Argon-slab step 0
  256
    1   AR   Ar    1   7.119   7.120  -0.006
    1   AR   Ar    2   0.007   0.887   0.888
    1   AR   Ar    3   0.886   0.002   0.892
    1   AR   Ar    4   0.885   0.883   0.006
    1   AR   Ar    5   7.115   0.006   1.774
    1   AR   Ar    6   0.006   0.893   2.676
    1   AR   Ar    7   0.897   7.117   2.671
    1   AR   Ar    8   0.887   0.891   1.781
    1   AR   Ar    9   7.115   0.006   3.563
    1   AR   Ar   10   7.119   0.886   4.450
    1   AR   Ar   11   0.890   7.114   4.449
    1   AR   Ar   12   0.894   0.887   3.560
    1   AR   Ar   13   7.113   0.000   5.336
    1   AR   Ar   14   0.004   0.890   6.225
    1   AR   Ar   15   0.892   0.004   6.232
    1   AR   Ar   16   0.897   0.896   5.336
    1   AR   Ar   17   0.004   1.775  -0.007
    1   AR   Ar   18   0.007   2.672   0.892
    1   AR   Ar   19   0.890   1.776   0.888
    1   AR   Ar   20   0.894   2.670   0.000
    1   AR   Ar   21   0.001   1.786   1.776
    1   AR   Ar   22   0.002   2.663   2.664
    1   AR   Ar   23   0.885   1.784   2.672
    1   AR   Ar   24   0.886   2.675   1.777
    1   AR   Ar   25   7.120   1.773   3.553
    1   AR   Ar   26   0.004   2.671   4.450
    1   AR   Ar   27   0.885   1.775   4.454
    1   AR   Ar   28   0.894   2.673   3.560
    1   AR   Ar   29   7.116   1.779   5.333
    1   AR   Ar   30   0.006   2.674   6.231
    1   AR   Ar   31   0.896   1.776   6.236
    1   AR   Ar   32   0.890   2.665   5.341
    1   AR   Ar   33   7.115   3.560  -0.000
    1   AR   Ar   34   7.115   4.454   0.888
    1   AR   Ar   35   0.889   3.558   0.886
    1   AR   Ar   36   0.891   4.453  -0.004
    1   AR   Ar   37   0.006   3.564   1.777
    1   AR   Ar   38   7.117   4.449   2.673
    1   AR   Ar   39   0.890   3.563   2.673
    1   AR   Ar   40   0.889   4.455   1.783
    1   AR   Ar   41   0.001   3.556   3.559
    1   AR   Ar   42   7.114   4.452   4.451
    1   AR   Ar   43   0.889   3.558   4.452
    1   AR   Ar   44   0.885   4.447   3.559
    1   AR   Ar   45   0.005   3.557   5.340
    1   AR   Ar   46   7.115   4.452   6.231
    1   AR   Ar   47   0.894   3.559   6.228
    1   AR   Ar   48   0.895   4.456   5.345
    1   AR   Ar   49   0.006   5.336  -0.004
    1   AR   Ar   50   0.001   6.226   0.883
    1   AR   Ar   51   0.892   5.341   0.893
    1   AR   Ar   52   0.890   6.225  -0.002
    1   AR   Ar   53   7.116   5.342   1.784
    1   AR   Ar   54   0.001   6.229   2.671
    1   AR   Ar   55   0.892   5.337   2.673
    1   AR   Ar   56   0.886   6.229   1.783
    1   AR   Ar   57   0.002   5.333   3.560
    1   AR   Ar   58   0.004   6.233   4.445
    1   AR   Ar   59   0.885   5.333   4.444
    1   AR   Ar   60   0.894   6.233   3.560
    1   AR   Ar   61   7.116   5.343   5.338
    1   AR   Ar   62   7.117   6.236   6.225
    1   AR   Ar   63   0.896   5.344   6.229
    1   AR   Ar   64   0.891   6.234   5.344
    1   AR   Ar   65   1.777   0.006  -0.004
    1   AR   Ar   66   1.778   0.890   0.894
    1   AR   Ar   67   2.668   0.005   0.889
    1   AR   Ar   68   2.675   0.888  -0.003
    1   AR   Ar   69   1.774   0.000   1.786
    1   AR   Ar   70   1.775   0.893   2.669
    1   AR   Ar   71   2.664   7.113   2.670
    1   AR   Ar   72   2.667   0.894   1.776
    1   AR   Ar   73   1.785   0.004   3.560
    1   AR   Ar   74   1.776   0.886   4.453
    1   AR   Ar   75   2.674   7.120   4.448
    1   AR   Ar   76   2.667   0.895   3.558
    1   AR   Ar   77   1.780   0.001   5.343
    1   AR   Ar   78   1.782   0.887   6.233
    1   AR   Ar   79   2.672   0.006   6.224
    1   AR   Ar   80   2.676   0.889   5.345
    1   AR   Ar   81   1.783   1.779  -0.007
    1   AR   Ar   82   1.774   2.674   0.896
    1   AR   Ar   83   2.675   1.785   0.894
    1   AR   Ar   84   2.673   2.674  -0.006
    1   AR   Ar   85   1.774   1.785   1.780
    1   AR   Ar   86   1.782   2.673   2.675
    1   AR   Ar   87   2.669   1.776   2.673
    1   AR   Ar   88   2.670   2.668   1.779
    1   AR   Ar   89   1.778   1.775   3.561
    1   AR   Ar   90   1.773   2.670   4.447
    1   AR   Ar   91   2.670   1.774   4.448
    1   AR   Ar   92   2.670   2.670   3.558
    1   AR   Ar   93   1.774   1.785   5.342
    1   AR   Ar   94   1.786   2.664   6.225
    1   AR   Ar   95   2.667   1.781   6.229
    1   AR   Ar   96   2.669   2.666   5.342
    1   AR   Ar   97   1.775   3.554  -0.004
    1   AR   Ar   98   1.774   4.445   0.892
    1   AR   Ar   99   2.676   3.563   0.892
    1   AR   Ar  100   2.665   4.455  -0.002
    1   AR   Ar  101   1.777   3.560   1.778
    1   AR   Ar  102   1.777   4.448   2.676
    1   AR   Ar  103   2.666   3.566   2.675
    1   AR   Ar  104   2.675   4.455   1.782
    1   AR   Ar  105   1.779   3.564   3.562
    1   AR   Ar  106   1.776   4.456   4.453
    1   AR   Ar  107   2.673   3.561   4.454
    1   AR   Ar  108   2.675   4.456   3.555
    1   AR   Ar  109   1.781   3.563   5.343
    1   AR   Ar  110   1.779   4.451   6.236
    1   AR   Ar  111   2.665   3.564   6.228
    1   AR   Ar  112   2.676   4.449   5.339
    1   AR   Ar  113   1.779   5.337   0.005
    1   AR   Ar  114   1.777   6.227   0.889
    1   AR   Ar  115   2.668   5.343   0.891
    1   AR   Ar  116   2.676   6.225  -0.006
    1   AR   Ar  117   1.787   5.335   1.781
    1   AR   Ar  118   1.781   6.225   2.669
    1   AR   Ar  119   2.668   5.343   2.675
    1   AR   Ar  120   2.668   6.234   1.784
    1   AR   Ar  121   1.785   5.343   3.557
    1   AR   Ar  122   1.779   6.230   4.450
    1   AR   Ar  123   2.665   5.334   4.453
    1   AR   Ar  124   2.670   6.233   3.553
    1   AR   Ar  125   1.783   5.336   5.340
    1   AR   Ar  126   1.774   6.225   6.230
    1   AR   Ar  127   2.664   5.340   6.225
    1   AR   Ar  128   2.664   6.232   5.342
    1   AR   Ar  129   3.557   7.117   0.003
    1   AR   Ar  130   3.567   0.894   0.891
    1   AR   Ar  131   4.446   7.116   0.896
    1   AR   Ar  132   4.447   0.892  -0.000
    1   AR   Ar  133   3.557   7.113   1.779
    1   AR   Ar  134   3.556   0.895   2.668
    1   AR   Ar  135   4.446   0.006   2.672
    1   AR   Ar  136   4.443   0.895   1.783
    1   AR   Ar  137   3.557   7.113   3.561
    1   AR   Ar  138   3.567   0.891   4.453
    1   AR   Ar  139   4.445   0.006   4.451
    1   AR   Ar  140   4.454   0.887   3.563
    1   AR   Ar  141   3.561   7.117   5.344
    1   AR   Ar  142   3.564   0.887   6.234
    1   AR   Ar  143   4.457   0.003   6.228
    1   AR   Ar  144   4.448   0.883   5.342
    1   AR   Ar  145   3.560   1.781   0.005
    1   AR   Ar  146   3.553   2.667   0.894
    1   AR   Ar  147   4.446   1.787   0.896
    1   AR   Ar  148   4.450   2.672  -0.001
    1   AR   Ar  149   3.553   1.783   1.778
    1   AR   Ar  150   3.565   2.670   2.671
    1   AR   Ar  151   4.449   1.777   2.665
    1   AR   Ar  152   4.448   2.676   1.786
    1   AR   Ar  153   3.566   1.785   3.556
    1   AR   Ar  154   3.566   2.673   4.446
    1   AR   Ar  155   4.452   1.783   4.449
    1   AR   Ar  156   4.457   2.665   3.562
    1   AR   Ar  157   3.555   1.785   5.340
    1   AR   Ar  158   3.554   2.669   6.224
    1   AR   Ar  159   4.453   1.778   6.231
    1   AR   Ar  160   4.447   2.664   5.332
    1   AR   Ar  161   3.562   3.565  -0.003
    1   AR   Ar  162   3.560   4.454   0.884
    1   AR   Ar  163   4.453   3.565   0.895
    1   AR   Ar  164   4.445   4.452  -0.002
    1   AR   Ar  165   3.558   3.561   1.779
    1   AR   Ar  166   3.566   4.450   2.670
    1   AR   Ar  167   4.446   3.565   2.676
    1   AR   Ar  168   4.448   4.447   1.784
    1   AR   Ar  169   3.554   3.565   3.554
    1   AR   Ar  170   3.564   4.446   4.444
    1   AR   Ar  171   4.455   3.561   4.447
    1   AR   Ar  172   4.448   4.445   3.560
    1   AR   Ar  173   3.560   3.560   5.344
    1   AR   Ar  174   3.567   4.447   6.233
    1   AR   Ar  175   4.453   3.560   6.229
    1   AR   Ar  176   4.449   4.449   5.337
    1   AR   Ar  177   3.559   5.346   0.000
    1   AR   Ar  178   3.556   6.232   0.885
    1   AR   Ar  179   4.454   5.346   0.895
    1   AR   Ar  180   4.448   6.233   0.001
    1   AR   Ar  181   3.566   5.333   1.777
    1   AR   Ar  182   3.558   6.229   2.673
    1   AR   Ar  183   4.447   5.335   2.671
    1   AR   Ar  184   4.454   6.226   1.775
    1   AR   Ar  185   3.555   5.338   3.562
    1   AR   Ar  186   3.565   6.231   4.450
    1   AR   Ar  187   4.453   5.343   4.446
    1   AR   Ar  188   4.450   6.225   3.560
    1   AR   Ar  189   3.564   5.343   5.346
    1   AR   Ar  190   3.560   6.233   6.224
    1   AR   Ar  191   4.449   5.346   6.224
    1   AR   Ar  192   4.454   6.236   5.345
    1   AR   Ar  193   5.340   7.120   0.006
    1   AR   Ar  194   5.334   0.889   0.892
    1   AR   Ar  195   6.229   0.004   0.894
    1   AR   Ar  196   6.236   0.888   0.001
    1   AR   Ar  197   5.342   7.115   1.776
    1   AR   Ar  198   5.346   0.891   2.675
    1   AR   Ar  199   6.235   0.001   2.663
    1   AR   Ar  200   6.223   0.891   1.779
    1   AR   Ar  201   5.340   7.114   3.563
    1   AR   Ar  202   5.333   0.884   4.453
    1   AR   Ar  203   6.234   7.119   4.456
    1   AR   Ar  204   6.235   0.895   3.553
    1   AR   Ar  205   5.347   0.001   5.345
    1   AR   Ar  206   5.345   0.888   6.233
    1   AR   Ar  207   6.226   0.002   6.230
    1   AR   Ar  208   6.230   0.887   5.346
    1   AR   Ar  209   5.336   1.784  -0.004
    1   AR   Ar  210   5.347   2.666   0.883
    1   AR   Ar  211   6.230   1.780   0.883
    1   AR   Ar  212   6.235   2.671   0.006
    1   AR   Ar  213   5.337   1.784   1.786
    1   AR   Ar  214   5.341   2.666   2.674
    1   AR   Ar  215   6.233   1.776   2.674
    1   AR   Ar  216   6.235   2.670   1.775
    1   AR   Ar  217   5.335   1.775   3.554
    1   AR   Ar  218   5.342   2.672   4.447
    1   AR   Ar  219   6.225   1.777   4.454
    1   AR   Ar  220   6.232   2.673   3.564
    1   AR   Ar  221   5.347   1.786   5.334
    1   AR   Ar  222   5.335   2.663   6.225
    1   AR   Ar  223   6.228   1.773   6.231
    1   AR   Ar  224   6.234   2.674   5.343
    1   AR   Ar  225   5.342   3.553  -0.001
    1   AR   Ar  226   5.339   4.450   0.894
    1   AR   Ar  227   6.227   3.566   0.885
    1   AR   Ar  228   6.228   4.452  -0.004
    1   AR   Ar  229   5.337   3.563   1.777
    1   AR   Ar  230   5.340   4.444   2.665
    1   AR   Ar  231   6.231   3.563   2.671
    1   AR   Ar  232   6.233   4.446   1.775
    1   AR   Ar  233   5.335   3.561   3.565
    1   AR   Ar  234   5.345   4.444   4.456
    1   AR   Ar  235   6.236   3.561   4.444
    1   AR   Ar  236   6.235   4.449   3.565
    1   AR   Ar  237   5.344   3.559   5.339
    1   AR   Ar  238   5.334   4.447   6.235
    1   AR   Ar  239   6.223   3.555   6.232
    1   AR   Ar  240   6.228   4.452   5.341
    1   AR   Ar  241   5.340   5.342   0.004
    1   AR   Ar  242   5.334   6.227   0.893
    1   AR   Ar  243   6.234   5.337   0.889
    1   AR   Ar  244   6.230   6.229   0.002
    1   AR   Ar  245   5.344   5.341   1.775
    1   AR   Ar  246   5.335   6.223   2.664
    1   AR   Ar  247   6.226   5.334   2.674
    1   AR   Ar  248   6.232   6.234   1.776
    1   AR   Ar  249   5.338   5.339   3.562
    1   AR   Ar  250   5.345   6.225   4.451
    1   AR   Ar  251   6.235   5.346   4.453
    1   AR   Ar  252   6.226   6.235   3.564
    1   AR   Ar  253   5.334   5.333   5.337
    1   AR   Ar  254   5.338   6.225   6.226
    1   AR   Ar  255   6.228   5.333   6.235
    1   AR   Ar  256   6.235   6.232   5.338
    7.12000  7.12000 12.00000
Argon-slab step 5
  256
    1   AR   Ar    1   7.117   7.120  -0.034
    1   AR   Ar    2   0.040   0.869   0.878
    1   AR   Ar    3   0.869   0.005   0.899
    1   AR   Ar    4   0.861   0.850   0.040
    1   AR   Ar    5   7.090   0.038   1.743
    1   AR   Ar    6   0.037   0.910   2.707
    1   AR   Ar    7   0.904   7.114   2.668
    1   AR   Ar    8   0.874   0.897   1.788
    1   AR   Ar    9   7.091   0.036   3.578
    1   AR   Ar   10   7.117   0.865   4.450
    1   AR   Ar   11   0.892   7.084   4.445
    1   AR   Ar   12   0.911   0.869   3.562
    1   AR   Ar   13   7.081   0.002   5.314
    1   AR   Ar   14   0.023   0.891   6.201
    1   AR   Ar   15   0.903   0.022   6.239
    1   AR   Ar   16   0.930   0.924   5.318
    1   AR   Ar   17   0.026   1.749  -0.039
    1   AR   Ar   18   0.040   2.682   0.900
    1   AR   Ar   19   0.896   1.781   0.892
    1   AR   Ar   20   0.913   2.668  -0.003
    1   AR   Ar   21   0.004   1.814   1.759
    1   AR   Ar   22   0.012   2.628   2.634
    1   AR   Ar   23   0.860   1.806   2.683
    1   AR   Ar   24   0.864   2.702   1.762
    1   AR   Ar   25   7.118   1.739   3.515
    1   AR   Ar   26   0.026   2.678   4.452
    1   AR   Ar   27   0.861   1.751   4.474
    1   AR   Ar   28   0.914   2.690   3.560
    1   AR   Ar   29   7.098   1.775   5.300
    1   AR   Ar   30   0.033   2.697   6.232
    1   AR   Ar   31   0.924   1.756   6.262
    1   AR   Ar   32   0.888   2.641   5.348
    1   AR   Ar   33   7.090   3.562  -0.001
    1   AR   Ar   34   7.090   4.471   0.877
    1   AR   Ar   35   0.882   3.545   0.865
    1   AR   Ar   36   0.895   4.469  -0.023
    1   AR   Ar   37   0.037   3.584   1.764
    1   AR   Ar   38   7.104   4.444   2.687
    1   AR   Ar   39   0.889   3.576   2.689
    1   AR   Ar   40   0.884   4.479   1.796
    1   AR   Ar   41   0.004   3.539   3.557
    1   AR   Ar   42   7.092   4.459   4.457
    1   AR   Ar   43   0.886   3.550   4.459
    1   AR   Ar   44   0.858   4.435   3.553
    1   AR   Ar   45   0.028   3.543   5.339
    1   AR   Ar   46   7.092   4.461   6.233
    1   AR   Ar   47   0.912   3.563   6.217
    1   AR   Ar   48   0.919   4.488   5.371
    1   AR   Ar   49   0.035   5.319  -0.025
    1   AR   Ar   50   7.103   6.211   0.860
    1   AR   Ar   51   0.904   5.349   0.907
    1   AR   Ar   52   0.893   6.198  -0.008
    1   AR   Ar   53   7.094   5.351   1.807
    1   AR   Ar   54   0.006   6.221   2.674
    1   AR   Ar   55   0.900   5.325   2.689
    1   AR   Ar   56   0.864   6.225   1.801
    1   AR   Ar   57   0.029   5.337   3.577
    1   AR   Ar   58   0.025   6.246   4.418
    1   AR   Ar   59   0.858   5.296   4.412
    1   AR   Ar   60   0.916   6.250   3.561
    1   AR   Ar   61   7.094   5.359   5.329
    1   AR   Ar   62   7.111   6.252   6.217
    1   AR   Ar   63   0.928   5.365   6.220
    1   AR   Ar   64   0.894   6.252   5.362
    1   AR   Ar   65   1.759   0.038  -0.019
    1   AR   Ar   66   1.765   0.891   0.916
    1   AR   Ar   67   2.668   7.104   0.858
    1   AR   Ar   68   2.699   0.878  -0.014
    1   AR   Ar   69   1.745   0.001   1.814
    1   AR   Ar   70   1.753   0.910   2.664
    1   AR   Ar   71   2.661   7.098   2.659
    1   AR   Ar   72   2.654   0.917   1.757
    1   AR   Ar   73   1.807   0.025   3.561
    1   AR   Ar   74   1.757   0.867   4.471
    1   AR   Ar   75   2.695   7.117   4.436
    1   AR   Ar   76   2.650   0.919   3.549
    1   AR   Ar   77   1.783   0.005   5.356
    1   AR   Ar   78   1.793   0.874   6.249
    1   AR   Ar   79   2.682   0.038   6.193
    1   AR   Ar   80   2.708   0.884   5.372
    1   AR   Ar   81   1.799   1.776  -0.038
    1   AR   Ar   82   1.742   2.691   0.925
    1   AR   Ar   83   2.700   1.788   0.912
    1   AR   Ar   84   2.689   2.693  -0.032
    1   AR   Ar   85   1.745   1.813   1.778
    1   AR   Ar   86   1.793   2.687   2.701
    1   AR   Ar   87   2.662   1.755   2.689
    1   AR   Ar   88   2.671   2.655   1.777
    1   AR   Ar   89   1.767   1.751   3.566
    1   AR   Ar   90   1.757   2.679   4.446
    1   AR   Ar   91   2.672   1.741   4.437
    1   AR   Ar   92   2.671   2.673   3.549
    1   AR   Ar   93   1.743   1.811   5.349
    1   AR   Ar   94   1.819   2.632   6.200
    1   AR   Ar   95   2.652   1.787   6.222
    1   AR   Ar   96   2.666   2.645   5.354
    1   AR   Ar   97   1.749   3.524  -0.022
    1   AR   Ar   98   1.743   4.422   0.901
    1   AR   Ar   99   2.703   3.575   0.900
    1   AR   Ar  100   2.640   4.478  -0.009
    1   AR   Ar  101   1.759   3.557   1.767
    1   AR   Ar  102   1.763   4.438   2.696
    1   AR   Ar  103   2.643   3.599   2.699
    1   AR   Ar  104   2.702   4.480   1.791
    1   AR   Ar  105   1.777   3.584   3.570
    1   AR   Ar  106   1.759   4.486   4.467
    1   AR   Ar  107   2.689   3.566   4.472
    1   AR   Ar  108   2.701   4.483   3.531
    1   AR   Ar  109   1.787   3.577   5.360
    1   AR   Ar  110   1.774   4.458   6.266
    1   AR   Ar  111   2.638   3.581   6.218
    1   AR   Ar  112   2.709   4.441   5.336
    1   AR   Ar  113   1.775   5.324   0.033
    1   AR   Ar  114   1.759   6.227   0.896
    1   AR   Ar  115   2.659   5.358   0.899
    1   AR   Ar  116   2.703   6.202  -0.037
    1   AR   Ar  117   1.822   5.307   1.785
    1   AR   Ar  118   1.789   6.202   2.665
    1   AR   Ar  119   2.658   5.343   2.692
    1   AR   Ar  120   2.655   6.254   1.802
    1   AR   Ar  121   1.811   5.361   3.541
    1   AR   Ar  122   1.775   6.228   4.452
    1   AR   Ar  123   2.641   5.304   4.470
    1   AR   Ar  124   2.668   6.245   3.518
    1   AR   Ar  125   1.801   5.314   5.337
    1   AR   Ar  126   1.744   6.197   6.226
    1   AR   Ar  127   2.631   5.343   6.197
    1   AR   Ar  128   2.637   6.243   5.349
    1   AR   Ar  129   3.545   7.101   0.020
    1   AR   Ar  130   3.600   0.916   0.896
    1   AR   Ar  131   4.424   7.097   0.927
    1   AR   Ar  132   4.448   0.895  -0.003
    1   AR   Ar  133   3.544   7.079   1.777
    1   AR   Ar  134   3.533   0.921   2.656
    1   AR   Ar  135   4.427   0.033   2.682
    1   AR   Ar  136   4.409   0.921   1.797
    1   AR   Ar  137   3.540   7.097   3.545
    1   AR   Ar  138   3.601   0.898   4.470
    1   AR   Ar  139   4.421   0.034   4.453
    1   AR   Ar  140   4.476   0.869   3.577
    1   AR   Ar  141   3.564   7.100   5.362
    1   AR   Ar  142   3.583   0.870   6.250
    1   AR   Ar  143   4.489   0.018   6.217
    1   AR   Ar  144   4.435   0.850   5.352
    1   AR   Ar  145   3.555   1.767   0.020
    1   AR   Ar  146   3.519   2.651   0.914
    1   AR   Ar  147   4.424   1.820   0.924
    1   AR   Ar  148   4.450   2.683  -0.002
    1   AR   Ar  149   3.519   1.798   1.770
    1   AR   Ar  150   3.588   2.668   2.674
    1   AR   Ar  151   4.446   1.764   2.643
    1   AR   Ar  152   4.443   2.685   1.813
    1   AR   Ar  153   3.594   1.812   3.537
    1   AR   Ar  154   3.598   2.688   4.425
    1   AR   Ar  155   4.462   1.799   4.446
    1   AR   Ar  156   4.456   2.654   3.607
    1   AR   Ar  157   3.532   1.808   5.341
    1   AR   Ar  158   3.524   2.667   6.194
    1   AR   Ar  159   4.458   1.786   6.241
    1   AR   Ar  160   4.432   2.635   5.295
    1   AR   Ar  161   3.572   3.588  -0.016
    1   AR   Ar  162   3.558   4.472   0.857
    1   AR   Ar  163   4.466   3.593   0.922
    1   AR   Ar  164   4.422   4.462  -0.010
    1   AR   Ar  165   3.546   3.567   1.777
    1   AR   Ar  166   3.596   4.448   2.668
    1   AR   Ar  167   4.428   3.590   2.705
    1   AR   Ar  168   4.435   4.430   1.804
    1   AR   Ar  169   3.521   3.589   3.522
    1   AR   Ar  170   3.547   4.442   4.430
    1   AR   Ar  171   4.481   3.564   4.433
    1   AR   Ar  172   4.436   4.420   3.558
    1   AR   Ar  173   3.559   3.563   5.366
    1   AR   Ar  174   3.599   4.434   6.249
    1   AR   Ar  175   4.469   3.560   6.220
    1   AR   Ar  176   4.456   4.459   5.306
    1   AR   Ar  177   3.551   5.377   0.003
    1   AR   Ar  178   3.542   6.235   0.868
    1   AR   Ar  179   4.469   5.371   0.913
    1   AR   Ar  180   4.437   6.249   0.009
    1   AR   Ar  181   3.597   5.296   1.764
    1   AR   Ar  182   3.545   6.226   2.691
    1   AR   Ar  183   4.434   5.307   2.675
    1   AR   Ar  184   4.475   6.207   1.748
    1   AR   Ar  185   3.530   5.328   3.574
    1   AR   Ar  186   3.589   6.235   4.448
    1   AR   Ar  187   4.470   5.360   4.425
    1   AR   Ar  188   4.449   6.201   3.562
    1   AR   Ar  189   3.581   5.357   5.377
    1   AR   Ar  190   3.558   6.249   6.190
    1   AR   Ar  191   4.445   5.376   6.191
    1   AR   Ar  192   4.472   6.267   5.368
    1   AR   Ar  193   5.343   7.118   0.038
    1   AR   Ar  194   5.307   0.881   0.905
    1   AR   Ar  195   6.224   0.023   0.913
    1   AR   Ar  196   6.263   0.876   0.010
    1   AR   Ar  197   5.352   7.087   1.754
    1   AR   Ar  198   5.379   0.898   2.698
    1   AR   Ar  199   6.257   0.006   2.629
    1   AR   Ar  200   6.190   0.897   1.776
    1   AR   Ar  201   5.337   7.087   3.576
    1   AR   Ar  202   5.299   0.855   4.467
    1   AR   Ar  203   6.256   7.111   4.483
    1   AR   Ar  204   6.261   0.920   3.519
    1   AR   Ar  205   5.380   0.007   5.372
    1   AR   Ar  206   5.373   0.880   6.246
    1   AR   Ar  207   6.207   0.013   6.230
    1   AR   Ar  208   6.231   0.869   5.374
    1   AR   Ar  209   5.317   1.806  -0.022
    1   AR   Ar  210   5.381   2.646   0.847
    1   AR   Ar  211   6.230   1.781   0.847
    1   AR   Ar  212   6.262   2.674   0.036
    1   AR   Ar  213   5.322   1.787   1.794
    1   AR   Ar  214   5.343   2.644   2.692
    1   AR   Ar  215   6.246   1.756   2.692
    1   AR   Ar  216   6.263   2.673   1.752
    1   AR   Ar  217   5.339   1.782   3.530
    1   AR   Ar  218   5.354   2.684   4.433
    1   AR   Ar  219   6.202   1.761   4.475
    1   AR   Ar  220   6.244   2.690   3.582
    1   AR   Ar  221   5.380   1.817   5.305
    1   AR   Ar  222   5.311   2.630   6.200
    1   AR   Ar  223   6.217   1.738   6.231
    1   AR   Ar  224   6.252   2.695   5.356
    1   AR   Ar  225   5.353   3.517  -0.006
    1   AR   Ar  226   5.337   4.451   0.917
    1   AR   Ar  227   6.213   3.598   0.861
    1   AR   Ar  228   6.218   4.463  -0.021
    1   AR   Ar  229   5.323   3.577   1.762
    1   AR   Ar  230   5.338   4.413   2.641
    1   AR   Ar  231   6.224   3.557   2.672
    1   AR   Ar  232   6.239   4.425   1.753
    1   AR   Ar  233   5.310   3.567   3.592
    1   AR   Ar  234   5.369   4.413   4.487
    1   AR   Ar  235   6.266   3.568   4.415
    1   AR   Ar  236   6.261   4.442   3.592
    1   AR   Ar  237   5.362   3.554   5.332
    1   AR   Ar  238   5.304   4.432   6.261
    1   AR   Ar  239   6.189   3.528   6.240
    1   AR   Ar  240   6.215   4.459   5.347
    1   AR   Ar  241   5.338   5.349   0.028
    1   AR   Ar  242   5.304   6.213   0.911
    1   AR   Ar  243   6.254   5.319   0.881
    1   AR   Ar  244   6.233   6.221   0.012
    1   AR   Ar  245   5.365   5.347   1.749
    1   AR   Ar  246   5.309   6.190   2.635
    1   AR   Ar  247   6.204   5.305   2.691
    1   AR   Ar  248   6.242   6.254   1.757
    1   AR   Ar  249   5.314   5.335   3.551
    1   AR   Ar  250   5.367   6.197   4.455
    1   AR   Ar  251   6.261   5.373   4.467
    1   AR   Ar  252   6.204   6.261   3.582
    1   AR   Ar  253   5.303   5.299   5.321
    1   AR   Ar  254   5.362   6.203   6.204
    1   AR   Ar  255   6.217   5.300   6.257
    1   AR   Ar  256   6.257   6.240   5.325
    7.12000  7.12000 12.00000
Argon-slab step 10
  256
    1   AR   Ar    1   7.114   7.119  -0.059
    1   AR   Ar    2   0.073   0.852   0.868
    1   AR   Ar    3   0.866   7.093   0.901
    1   AR   Ar    4   0.836   0.816   0.077
    1   AR   Ar    5   7.106   0.071   1.720
    1   AR   Ar    6   0.068   0.926   2.738
    1   AR   Ar    7   0.905   7.115   2.662
    1   AR   Ar    8   0.861   0.903   1.794
    1   AR   Ar    9   7.067   0.066   3.594
    1   AR   Ar   10   7.115   0.844   4.451
    1   AR   Ar   11   0.894   7.054   4.440
    1   AR   Ar   12   0.929   0.852   3.564
    1   AR   Ar   13   7.049   0.003   5.292
    1   AR   Ar   14   0.042   0.891   6.174
    1   AR   Ar   15   0.913   0.040   6.242
    1   AR   Ar   16   0.963   0.952   5.300
    1   AR   Ar   17   0.047   1.723  -0.068
    1   AR   Ar   18   0.072   2.692   0.908
    1   AR   Ar   19   0.904   1.793   0.898
    1   AR   Ar   20   0.928   2.667  -0.018
    1   AR   Ar   21   0.008   1.843   1.741
    1   AR   Ar   22   0.022   2.593   2.604
    1   AR   Ar   23   0.836   1.827   2.695
    1   AR   Ar   24   0.842   2.729   1.748
    1   AR   Ar   25   7.117   1.706   3.478
    1   AR   Ar   26   0.048   2.684   4.454
    1   AR   Ar   27   0.838   1.727   4.493
    1   AR   Ar   28   0.934   2.689   3.563
    1   AR   Ar   29   7.082   1.780   5.293
    1   AR   Ar   30   0.061   2.720   6.231
    1   AR   Ar   31   0.953   1.737   6.286
    1   AR   Ar   32   0.887   2.616   5.355
    1   AR   Ar   33   7.065   3.563   0.002
    1   AR   Ar   34   7.065   4.489   0.866
    1   AR   Ar   35   0.876   3.533   0.845
    1   AR   Ar   36   0.899   4.485  -0.039
    1   AR   Ar   37   0.067   3.604   1.751
    1   AR   Ar   38   7.093   4.444   2.690
    1   AR   Ar   39   0.888   3.589   2.705
    1   AR   Ar   40   0.879   4.503   1.810
    1   AR   Ar   41   0.008   3.521   3.555
    1   AR   Ar   42   7.112   4.462   4.465
    1   AR   Ar   43   0.882   3.541   4.467
    1   AR   Ar   44   0.841   4.436   3.555
    1   AR   Ar   45   0.052   3.528   5.338
    1   AR   Ar   46   7.069   4.471   6.233
    1   AR   Ar   47   0.930   3.597   6.209
    1   AR   Ar   48   0.944   4.519   5.397
    1   AR   Ar   49   0.064   5.301  -0.042
    1   AR   Ar   50   7.080   6.198   0.841
    1   AR   Ar   51   0.917   5.356   0.922
    1   AR   Ar   52   0.895   6.171  -0.011
    1   AR   Ar   53   7.081   5.359   1.827
    1   AR   Ar   54   0.011   6.214   2.677
    1   AR   Ar   55   0.908   5.312   2.705
    1   AR   Ar   56   0.843   6.221   1.818
    1   AR   Ar   57   0.059   5.351   3.597
    1   AR   Ar   58   0.047   6.259   4.392
    1   AR   Ar   59   0.831   5.260   4.381
    1   AR   Ar   60   0.937   6.266   3.561
    1   AR   Ar   61   7.072   5.374   5.320
    1   AR   Ar   62   7.120   6.245   6.234
    1   AR   Ar   63   0.959   5.386   6.209
    1   AR   Ar   64   0.897   6.270   5.380
    1   AR   Ar   65   1.741   0.053  -0.032
    1   AR   Ar   66   1.753   0.892   0.939
    1   AR   Ar   67   2.670   7.073   0.820
    1   AR   Ar   68   2.724   0.869  -0.023
    1   AR   Ar   69   1.715   0.003   1.842
    1   AR   Ar   70   1.730   0.927   2.660
    1   AR   Ar   71   2.666   7.088   2.646
    1   AR   Ar   72   2.641   0.939   1.737
    1   AR   Ar   73   1.826   0.043   3.561
    1   AR   Ar   74   1.738   0.848   4.488
    1   AR   Ar   75   2.716   7.115   4.424
    1   AR   Ar   76   2.632   0.942   3.539
    1   AR   Ar   77   1.785   0.010   5.369
    1   AR   Ar   78   1.805   0.861   6.261
    1   AR   Ar   79   2.693   0.070   6.158
    1   AR   Ar   80   2.739   0.879   5.398
    1   AR   Ar   81   1.787   1.774  -0.063
    1   AR   Ar   82   1.711   2.709   0.955
    1   AR   Ar   83   2.721   1.762   0.928
    1   AR   Ar   84   2.705   2.713  -0.055
    1   AR   Ar   85   1.716   1.840   1.776
    1   AR   Ar   86   1.804   2.701   2.728
    1   AR   Ar   87   2.656   1.735   2.705
    1   AR   Ar   88   2.672   2.643   1.774
    1   AR   Ar   89   1.756   1.726   3.571
    1   AR   Ar   90   1.769   2.698   4.464
    1   AR   Ar   91   2.673   1.709   4.426
    1   AR   Ar   92   2.672   2.675   3.540
    1   AR   Ar   93   1.713   1.837   5.356
    1   AR   Ar   94   1.851   2.600   6.171
    1   AR   Ar   95   2.637   1.793   6.212
    1   AR   Ar   96   2.663   2.624   5.365
    1   AR   Ar   97   1.724   3.493  -0.038
    1   AR   Ar   98   1.712   4.398   0.911
    1   AR   Ar   99   2.731   3.588   0.908
    1   AR   Ar  100   2.615   4.501  -0.014
    1   AR   Ar  101   1.742   3.555   1.757
    1   AR   Ar  102   1.750   4.431   2.682
    1   AR   Ar  103   2.621   3.631   2.723
    1   AR   Ar  104   2.729   4.504   1.801
    1   AR   Ar  105   1.777   3.605   3.578
    1   AR   Ar  106   1.741   4.517   4.481
    1   AR   Ar  107   2.705   3.571   4.491
    1   AR   Ar  108   2.728   4.511   3.506
    1   AR   Ar  109   1.791   3.583   5.370
    1   AR   Ar  110   1.769   4.466   6.293
    1   AR   Ar  111   2.611   3.599   6.204
    1   AR   Ar  112   2.741   4.434   5.332
    1   AR   Ar  113   1.774   5.320   0.054
    1   AR   Ar  114   1.741   6.231   0.907
    1   AR   Ar  115   2.650   5.373   0.906
    1   AR   Ar  116   2.731   6.179  -0.064
    1   AR   Ar  117   1.857   5.280   1.789
    1   AR   Ar  118   1.796   6.180   2.660
    1   AR   Ar  119   2.648   5.339   2.705
    1   AR   Ar  120   2.643   6.274   1.821
    1   AR   Ar  121   1.837   5.378   3.525
    1   AR   Ar  122   1.770   6.227   4.454
    1   AR   Ar  123   2.616   5.274   4.487
    1   AR   Ar  124   2.666   6.258   3.482
    1   AR   Ar  125   1.818   5.292   5.335
    1   AR   Ar  126   1.726   6.193   6.220
    1   AR   Ar  127   2.599   5.345   6.166
    1   AR   Ar  128   2.609   6.254   5.356
    1   AR   Ar  129   3.532   7.086   0.039
    1   AR   Ar  130   3.633   0.938   0.902
    1   AR   Ar  131   4.402   7.079   0.958
    1   AR   Ar  132   4.462   0.896  -0.016
    1   AR   Ar  133   3.530   7.045   1.774
    1   AR   Ar  134   3.509   0.942   2.643
    1   AR   Ar  135   4.408   0.061   2.691
    1   AR   Ar  136   4.374   0.947   1.812
    1   AR   Ar  137   3.523   7.080   3.528
    1   AR   Ar  138   3.600   0.865   4.495
    1   AR   Ar  139   4.397   0.062   4.456
    1   AR   Ar  140   4.491   0.861   3.592
    1   AR   Ar  141   3.568   7.084   5.380
    1   AR   Ar  142   3.602   0.853   6.262
    1   AR   Ar  143   4.522   0.032   6.204
    1   AR   Ar  144   4.423   0.817   5.361
    1   AR   Ar  145   3.549   1.739   0.032
    1   AR   Ar  146   3.484   2.636   0.934
    1   AR   Ar  147   4.412   1.849   0.955
    1   AR   Ar  148   4.451   2.693  -0.001
    1   AR   Ar  149   3.485   1.813   1.762
    1   AR   Ar  150   3.612   2.666   2.677
    1   AR   Ar  151   4.442   1.750   2.620
    1   AR   Ar  152   4.444   2.665   1.839
    1   AR   Ar  153   3.622   1.839   3.518
    1   AR   Ar  154   3.630   2.703   4.405
    1   AR   Ar  155   4.449   1.804   4.470
    1   AR   Ar  156   4.456   2.643   3.651
    1   AR   Ar  157   3.509   1.831   5.341
    1   AR   Ar  158   3.517   2.653   6.188
    1   AR   Ar  159   4.452   1.822   6.256
    1   AR   Ar  160   4.417   2.607   5.256
    1   AR   Ar  161   3.581   3.611  -0.027
    1   AR   Ar  162   3.556   4.490   0.829
    1   AR   Ar  163   4.479   3.620   0.948
    1   AR   Ar  164   4.398   4.472  -0.015
    1   AR   Ar  165   3.534   3.572   1.774
    1   AR   Ar  166   3.626   4.447   2.666
    1   AR   Ar  167   4.410   3.615   2.734
    1   AR   Ar  168   4.423   4.413   1.824
    1   AR   Ar  169   3.489   3.613   3.491
    1   AR   Ar  170   3.519   4.441   4.419
    1   AR   Ar  171   4.507   3.567   4.419
    1   AR   Ar  172   4.423   4.396   3.556
    1   AR   Ar  173   3.559   3.565   5.387
    1   AR   Ar  174   3.632   4.421   6.261
    1   AR   Ar  175   4.485   3.560   6.208
    1   AR   Ar  176   4.464   4.469   5.274
    1   AR   Ar  177   3.544   5.408   0.008
    1   AR   Ar  178   3.530   6.232   0.854
    1   AR   Ar  179   4.472   5.370   0.914
    1   AR   Ar  180   4.426   6.264   0.020
    1   AR   Ar  181   3.622   5.291   1.792
    1   AR   Ar  182   3.533   6.222   2.708
    1   AR   Ar  183   4.420   5.280   2.679
    1   AR   Ar  184   4.496   6.188   1.721
    1   AR   Ar  185   3.505   5.319   3.586
    1   AR   Ar  186   3.612   6.239   4.446
    1   AR   Ar  187   4.486   5.377   4.404
    1   AR   Ar  188   4.448   6.177   3.563
    1   AR   Ar  189   3.599   5.372   5.408
    1   AR   Ar  190   3.557   6.265   6.153
    1   AR   Ar  191   4.442   5.406   6.155
    1   AR   Ar  192   4.485   6.295   5.386
    1   AR   Ar  193   5.345   7.116   0.074
    1   AR   Ar  194   5.279   0.874   0.917
    1   AR   Ar  195   6.211   0.028   0.915
    1   AR   Ar  196   6.291   0.865   0.022
    1   AR   Ar  197   5.362   7.060   1.732
    1   AR   Ar  198   5.411   0.904   2.720
    1   AR   Ar  199   6.280   0.012   2.595
    1   AR   Ar  200   6.157   0.902   1.772
    1   AR   Ar  201   5.335   7.059   3.590
    1   AR   Ar  202   5.266   0.826   4.481
    1   AR   Ar  203   6.277   7.104   4.511
    1   AR   Ar  204   6.288   0.944   3.486
    1   AR   Ar  205   5.406   0.009   5.403
    1   AR   Ar  206   5.400   0.871   6.256
    1   AR   Ar  207   6.189   0.024   6.226
    1   AR   Ar  208   6.235   0.856   5.403
    1   AR   Ar  209   5.299   1.827  -0.036
    1   AR   Ar  210   5.415   2.626   0.811
    1   AR   Ar  211   6.230   1.781   0.811
    1   AR   Ar  212   6.288   2.677   0.070
    1   AR   Ar  213   5.307   1.786   1.797
    1   AR   Ar  214   5.345   2.623   2.711
    1   AR   Ar  215   6.250   1.768   2.673
    1   AR   Ar  216   6.291   2.675   1.728
    1   AR   Ar  217   5.343   1.789   3.506
    1   AR   Ar  218   5.366   2.695   4.418
    1   AR   Ar  219   6.179   1.745   4.495
    1   AR   Ar  220   6.256   2.706   3.601
    1   AR   Ar  221   5.413   1.847   5.277
    1   AR   Ar  222   5.287   2.597   6.171
    1   AR   Ar  223   6.206   1.703   6.229
    1   AR   Ar  224   6.270   2.715   5.370
    1   AR   Ar  225   5.364   3.482  -0.008
    1   AR   Ar  226   5.334   4.452   0.940
    1   AR   Ar  227   6.198   3.630   0.837
    1   AR   Ar  228   6.209   4.473  -0.035
    1   AR   Ar  229   5.308   3.591   1.747
    1   AR   Ar  230   5.336   4.381   2.617
    1   AR   Ar  231   6.215   3.547   2.673
    1   AR   Ar  232   6.201   4.404   1.737
    1   AR   Ar  233   5.285   3.573   3.618
    1   AR   Ar  234   5.393   4.382   4.518
    1   AR   Ar  235   6.296   3.574   4.386
    1   AR   Ar  236   6.286   4.435   3.619
    1   AR   Ar  237   5.379   3.548   5.325
    1   AR   Ar  238   5.274   4.417   6.283
    1   AR   Ar  239   6.154   3.501   6.246
    1   AR   Ar  240   6.203   4.467   5.353
    1   AR   Ar  241   5.336   5.357   0.055
    1   AR   Ar  242   5.274   6.199   0.928
    1   AR   Ar  243   6.274   5.302   0.875
    1   AR   Ar  244   6.235   6.214   0.026
    1   AR   Ar  245   5.386   5.353   1.723
    1   AR   Ar  246   5.283   6.156   2.606
    1   AR   Ar  247   6.183   5.276   2.709
    1   AR   Ar  248   6.253   6.275   1.739
    1   AR   Ar  249   5.283   5.331   3.528
    1   AR   Ar  250   5.390   6.170   4.459
    1   AR   Ar  251   6.287   5.401   4.481
    1   AR   Ar  252   6.182   6.286   3.601
    1   AR   Ar  253   5.273   5.265   5.304
    1   AR   Ar  254   5.393   6.183   6.181
    1   AR   Ar  255   6.205   5.267   6.275
    1   AR   Ar  256   6.280   6.249   5.312
    7.12000  7.12000 12.00000
Argon-slab step 15
  256
    1   AR   Ar    1   7.112   7.119  -0.081
    1   AR   Ar    2   0.105   0.835   0.859
    1   AR   Ar    3   0.863   7.061   0.903
    1   AR   Ar    4   0.813   0.783   0.115
    1   AR   Ar    5   0.011   0.104   1.699
    1   AR   Ar    6   0.100   0.940   2.766
    1   AR   Ar    7   0.905   7.115   2.656
    1   AR   Ar    8   0.849   0.910   1.801
    1   AR   Ar    9   7.043   0.096   3.609
    1   AR   Ar   10   7.112   0.823   4.451
    1   AR   Ar   11   0.896   7.025   4.436
    1   AR   Ar   12   0.946   0.834   3.566
    1   AR   Ar   13   7.047   0.005   5.279
    1   AR   Ar   14   0.061   0.891   6.143
    1   AR   Ar   15   0.916   0.051   6.246
    1   AR   Ar   16   0.996   0.979   5.284
    1   AR   Ar   17   0.068   1.696  -0.093
    1   AR   Ar   18   0.096   2.709   0.911
    1   AR   Ar   19   0.912   1.804   0.905
    1   AR   Ar   20   0.912   2.696  -0.002
    1   AR   Ar   21   0.007   1.848   1.736
    1   AR   Ar   22   0.031   2.559   2.575
    1   AR   Ar   23   0.813   1.847   2.705
    1   AR   Ar   24   0.821   2.755   1.733
    1   AR   Ar   25   7.116   1.675   3.444
    1   AR   Ar   26   0.070   2.690   4.456
    1   AR   Ar   27   0.814   1.703   4.512
    1   AR   Ar   28   0.952   2.659   3.570
    1   AR   Ar   29   7.067   1.793   5.302
    1   AR   Ar   30   0.089   2.742   6.226
    1   AR   Ar   31   0.982   1.717   6.306
    1   AR   Ar   32   0.916   2.589   5.343
    1   AR   Ar   33   7.042   3.566   0.003
    1   AR   Ar   34   7.040   4.506   0.856
    1   AR   Ar   35   0.871   3.529   0.825
    1   AR   Ar   36   0.904   4.501  -0.051
    1   AR   Ar   37   0.098   3.624   1.738
    1   AR   Ar   38   7.083   4.445   2.694
    1   AR   Ar   39   0.887   3.603   2.720
    1   AR   Ar   40   0.874   4.526   1.823
    1   AR   Ar   41   0.012   3.504   3.552
    1   AR   Ar   42   7.109   4.454   4.493
    1   AR   Ar   43   0.879   3.533   4.474
    1   AR   Ar   44   0.839   4.458   3.569
    1   AR   Ar   45   0.066   3.533   5.331
    1   AR   Ar   46   7.046   4.480   6.229
    1   AR   Ar   47   0.947   3.632   6.199
    1   AR   Ar   48   0.949   4.540   5.405
    1   AR   Ar   49   0.092   5.284  -0.056
    1   AR   Ar   50   7.058   6.184   0.822
    1   AR   Ar   51   0.928   5.363   0.937
    1   AR   Ar   52   0.898   6.163  -0.022
    1   AR   Ar   53   7.102   5.366   1.840
    1   AR   Ar   54   0.016   6.207   2.680
    1   AR   Ar   55   0.916   5.300   2.722
    1   AR   Ar   56   0.822   6.217   1.835
    1   AR   Ar   57   0.089   5.365   3.616
    1   AR   Ar   58   0.067   6.273   4.366
    1   AR   Ar   59   0.805   5.224   4.351
    1   AR   Ar   60   0.958   6.283   3.562
    1   AR   Ar   61   7.050   5.389   5.311
    1   AR   Ar   62   0.008   6.239   6.247
    1   AR   Ar   63   0.990   5.406   6.195
    1   AR   Ar   64   0.899   6.289   5.397
    1   AR   Ar   65   1.715   0.003  -0.043
    1   AR   Ar   66   1.740   0.893   0.961
    1   AR   Ar   67   2.672   7.042   0.784
    1   AR   Ar   68   2.723   0.871  -0.002
    1   AR   Ar   69   1.686   0.004   1.870
    1   AR   Ar   70   1.707   0.944   2.655
    1   AR   Ar   71   2.671   7.078   2.633
    1   AR   Ar   72   2.628   0.961   1.719
    1   AR   Ar   73   1.826   0.046   3.561
    1   AR   Ar   74   1.720   0.829   4.504
    1   AR   Ar   75   2.737   7.113   4.412
    1   AR   Ar   76   2.615   0.965   3.530
    1   AR   Ar   77   1.787   0.015   5.382
    1   AR   Ar   78   1.816   0.848   6.271
    1   AR   Ar   79   2.700   0.097   6.127
    1   AR   Ar   80   2.771   0.875   5.423
    1   AR   Ar   81   1.775   1.772  -0.086
    1   AR   Ar   82   1.679   2.727   0.985
    1   AR   Ar   83   2.743   1.736   0.943
    1   AR   Ar   84   2.696   2.717  -0.088
    1   AR   Ar   85   1.687   1.867   1.774
    1   AR   Ar   86   1.814   2.715   2.754
    1   AR   Ar   87   2.649   1.715   2.721
    1   AR   Ar   88   2.672   2.631   1.772
    1   AR   Ar   89   1.746   1.702   3.576
    1   AR   Ar   90   1.782   2.717   4.482
    1   AR   Ar   91   2.674   1.676   4.415
    1   AR   Ar   92   2.673   2.678   3.530
    1   AR   Ar   93   1.683   1.862   5.362
    1   AR   Ar   94   1.882   2.570   6.141
    1   AR   Ar   95   2.622   1.798   6.200
    1   AR   Ar   96   2.660   2.603   5.375
    1   AR   Ar   97   1.699   3.463  -0.050
    1   AR   Ar   98   1.681   4.375   0.921
    1   AR   Ar   99   2.759   3.600   0.917
    1   AR   Ar  100   2.590   4.524  -0.015
    1   AR   Ar  101   1.747   3.563   1.763
    1   AR   Ar  102   1.737   4.424   2.667
    1   AR   Ar  103   2.599   3.664   2.747
    1   AR   Ar  104   2.756   4.529   1.810
    1   AR   Ar  105   1.781   3.629   3.585
    1   AR   Ar  106   1.723   4.546   4.495
    1   AR   Ar  107   2.721   3.576   4.509
    1   AR   Ar  108   2.753   4.537   3.482
    1   AR   Ar  109   1.773   3.586   5.350
    1   AR   Ar  110   1.763   4.473   6.317
    1   AR   Ar  111   2.585   3.616   6.187
    1   AR   Ar  112   2.773   4.427   5.328
    1   AR   Ar  113   1.775   5.322   0.070
    1   AR   Ar  114   1.722   6.235   0.917
    1   AR   Ar  115   2.642   5.387   0.914
    1   AR   Ar  116   2.758   6.156  -0.088
    1   AR   Ar  117   1.892   5.254   1.793
    1   AR   Ar  118   1.803   6.157   2.655
    1   AR   Ar  119   2.638   5.335   2.718
    1   AR   Ar  120   2.630   6.293   1.840
    1   AR   Ar  121   1.863   5.395   3.509
    1   AR   Ar  122   1.766   6.225   4.456
    1   AR   Ar  123   2.593   5.243   4.504
    1   AR   Ar  124   2.664   6.271   3.447
    1   AR   Ar  125   1.835   5.271   5.333
    1   AR   Ar  126   1.729   6.224   6.213
    1   AR   Ar  127   2.567   5.348   6.133
    1   AR   Ar  128   2.581   6.264   5.363
    1   AR   Ar  129   3.520   7.070   0.062
    1   AR   Ar  130   3.666   0.960   0.908
    1   AR   Ar  131   4.381   7.060   0.988
    1   AR   Ar  132   4.492   0.920  -0.074
    1   AR   Ar  133   3.498   7.037   1.780
    1   AR   Ar  134   3.473   0.937   2.627
    1   AR   Ar  135   4.388   0.089   2.701
    1   AR   Ar  136   4.339   0.973   1.825
    1   AR   Ar  137   3.506   7.063   3.512
    1   AR   Ar  138   3.598   0.833   4.520
    1   AR   Ar  139   4.373   0.089   4.459
    1   AR   Ar  140   4.476   0.889   3.609
    1   AR   Ar  141   3.572   7.068   5.397
    1   AR   Ar  142   3.621   0.837   6.272
    1   AR   Ar  143   4.554   0.047   6.187
    1   AR   Ar  144   4.411   0.784   5.370
    1   AR   Ar  145   3.543   1.712   0.047
    1   AR   Ar  146   3.450   2.620   0.954
    1   AR   Ar  147   4.406   1.875   0.988
    1   AR   Ar  148   4.451   2.704   0.003
    1   AR   Ar  149   3.451   1.823   1.749
    1   AR   Ar  150   3.635   2.665   2.681
    1   AR   Ar  151   4.439   1.737   2.598
    1   AR   Ar  152   4.430   2.655   1.876
    1   AR   Ar  153   3.649   1.865   3.499
    1   AR   Ar  154   3.661   2.719   4.384
    1   AR   Ar  155   4.432   1.798   4.500
    1   AR   Ar  156   4.457   2.632   3.695
    1   AR   Ar  157   3.486   1.853   5.340
    1   AR   Ar  158   3.516   2.636   6.187
    1   AR   Ar  159   4.445   1.857   6.269
    1   AR   Ar  160   4.403   2.579   5.219
    1   AR   Ar  161   3.591   3.635  -0.034
    1   AR   Ar  162   3.554   4.508   0.803
    1   AR   Ar  163   4.491   3.648   0.975
    1   AR   Ar  164   4.374   4.482  -0.017
    1   AR   Ar  165   3.523   3.578   1.772
    1   AR   Ar  166   3.654   4.446   2.664
    1   AR   Ar  167   4.392   3.639   2.762
    1   AR   Ar  168   4.411   4.396   1.843
    1   AR   Ar  169   3.457   3.638   3.461
    1   AR   Ar  170   3.491   4.441   4.409
    1   AR   Ar  171   4.532   3.570   4.406
    1   AR   Ar  172   4.419   4.381   3.535
    1   AR   Ar  173   3.558   3.567   5.408
    1   AR   Ar  174   3.665   4.408   6.270
    1   AR   Ar  175   4.500   3.561   6.194
    1   AR   Ar  176   4.471   4.478   5.242
    1   AR   Ar  177   3.538   5.438   0.017
    1   AR   Ar  178   3.519   6.229   0.841
    1   AR   Ar  179   4.474   5.369   0.915
    1   AR   Ar  180   4.415   6.280   0.034
    1   AR   Ar  181   3.647   5.285   1.820
    1   AR   Ar  182   3.520   6.218   2.725
    1   AR   Ar  183   4.408   5.253   2.684
    1   AR   Ar  184   4.516   6.169   1.696
    1   AR   Ar  185   3.481   5.310   3.598
    1   AR   Ar  186   3.636   6.243   4.444
    1   AR   Ar  187   4.502   5.393   4.384
    1   AR   Ar  188   4.447   6.154   3.565
    1   AR   Ar  189   3.615   5.385   5.438
    1   AR   Ar  190   3.555   6.280   6.114
    1   AR   Ar  191   4.439   5.436   6.118
    1   AR   Ar  192   4.478   6.311   5.380
    1   AR   Ar  193   5.347   7.115   0.112
    1   AR   Ar  194   5.251   0.866   0.930
    1   AR   Ar  195   6.191   0.021   0.904
    1   AR   Ar  196   6.319   0.854   0.037
    1   AR   Ar  197   5.371   7.032   1.709
    1   AR   Ar  198   5.410   0.914   2.719
    1   AR   Ar  199   6.302   0.017   2.561
    1   AR   Ar  200   6.123   0.907   1.769
    1   AR   Ar  201   5.332   7.032   3.604
    1   AR   Ar  202   5.232   0.798   4.496
    1   AR   Ar  203   6.297   7.096   4.538
    1   AR   Ar  204   6.313   0.968   3.453
    1   AR   Ar  205   5.407   7.115   5.454
    1   AR   Ar  206   5.427   0.862   6.263
    1   AR   Ar  207   6.171   0.034   6.220
    1   AR   Ar  208   6.247   0.847   5.432
    1   AR   Ar  209   5.286   1.845  -0.048
    1   AR   Ar  210   5.451   2.610   0.785
    1   AR   Ar  211   6.230   1.782   0.776
    1   AR   Ar  212   6.315   2.680   0.105
    1   AR   Ar  213   5.291   1.785   1.800
    1   AR   Ar  214   5.348   2.601   2.730
    1   AR   Ar  215   6.256   1.791   2.652
    1   AR   Ar  216   6.318   2.663   1.710
    1   AR   Ar  217   5.347   1.796   3.483
    1   AR   Ar  218   5.378   2.706   4.404
    1   AR   Ar  219   6.158   1.729   4.514
    1   AR   Ar  220   6.268   2.723   3.619
    1   AR   Ar  221   5.444   1.878   5.249
    1   AR   Ar  222   5.264   2.565   6.139
    1   AR   Ar  223   6.195   1.668   6.224
    1   AR   Ar  224   6.288   2.735   5.382
    1   AR   Ar  225   5.375   3.446  -0.006
    1   AR   Ar  226   5.331   4.454   0.963
    1   AR   Ar  227   6.184   3.662   0.813
    1   AR   Ar  228   6.199   4.484  -0.045
    1   AR   Ar  229   5.294   3.605   1.732
    1   AR   Ar  230   5.334   4.351   2.593
    1   AR   Ar  231   6.206   3.537   2.674
    1   AR   Ar  232   6.163   4.384   1.721
    1   AR   Ar  233   5.262   3.579   3.643
    1   AR   Ar  234   5.418   4.351   4.548
    1   AR   Ar  235   6.326   3.580   4.358
    1   AR   Ar  236   6.312   4.429   3.645
    1   AR   Ar  237   5.397   3.542   5.317
    1   AR   Ar  238   5.246   4.414   6.297
    1   AR   Ar  239   6.120   3.475   6.248
    1   AR   Ar  240   6.191   4.475   5.345
    1   AR   Ar  241   5.334   5.364   0.085
    1   AR   Ar  242   5.245   6.186   0.944
    1   AR   Ar  243   6.293   5.286   0.868
    1   AR   Ar  244   6.238   6.206   0.043
    1   AR   Ar  245   5.406   5.358   1.697
    1   AR   Ar  246   5.258   6.122   2.577
    1   AR   Ar  247   6.161   5.247   2.726
    1   AR   Ar  248   6.263   6.295   1.719
    1   AR   Ar  249   5.251   5.327   3.505
    1   AR   Ar  250   5.412   6.143   4.463
    1   AR   Ar  251   6.313   5.428   4.495
    1   AR   Ar  252   6.161   6.311   3.620
    1   AR   Ar  253   5.243   5.232   5.288
    1   AR   Ar  254   5.424   6.162   6.155
    1   AR   Ar  255   6.194   5.234   6.291
    1   AR   Ar  256   6.302   6.257   5.300
    7.12000  7.12000 12.00000
Argon-slab step 20
  256
    1   AR   Ar    1   7.109   7.118  -0.099
    1   AR   Ar    2   0.131   0.819   0.855
    1   AR   Ar    3   0.860   7.029   0.906
    1   AR   Ar    4   0.795   0.750   0.150
    1   AR   Ar    5   0.025   0.119   1.700
    1   AR   Ar    6   0.132   0.947   2.788
    1   AR   Ar    7   0.905   7.115   2.652
    1   AR   Ar    8   0.836   0.916   1.807
    1   AR   Ar    9   7.020   0.125   3.624
    1   AR   Ar   10   7.110   0.804   4.453
    1   AR   Ar   11   0.884   7.009   4.450
    1   AR   Ar   12   0.963   0.817   3.568
    1   AR   Ar   13   7.057   0.007   5.271
    1   AR   Ar   14   0.079   0.892   6.110
    1   AR   Ar   15   0.917   0.060   6.248
    1   AR   Ar   16   1.026   1.004   5.271
    1   AR   Ar   17   0.090   1.670  -0.116
    1   AR   Ar   18   0.107   2.734   0.904
    1   AR   Ar   19   0.920   1.816   0.913
    1   AR   Ar   20   0.895   2.723   0.017
    1   AR   Ar   21   0.001   1.829   1.746
    1   AR   Ar   22   0.038   2.528   2.546
    1   AR   Ar   23   0.818   1.814   2.691
    1   AR   Ar   24   0.801   2.780   1.720
    1   AR   Ar   25   7.115   1.655   3.440
    1   AR   Ar   26   0.087   2.701   4.452
    1   AR   Ar   27   0.790   1.682   4.529
    1   AR   Ar   28   0.970   2.629   3.576
    1   AR   Ar   29   7.051   1.805   5.312
    1   AR   Ar   30   0.117   2.765   6.218
    1   AR   Ar   31   1.012   1.698   6.323
    1   AR   Ar   32   0.951   2.563   5.327
    1   AR   Ar   33   7.032   3.577  -0.013
    1   AR   Ar   34   7.017   4.521   0.845
    1   AR   Ar   35   0.873   3.560   0.806
    1   AR   Ar   36   0.909   4.516  -0.061
    1   AR   Ar   37   0.128   3.644   1.725
    1   AR   Ar   38   7.073   4.445   2.698
    1   AR   Ar   39   0.886   3.616   2.736
    1   AR   Ar   40   0.870   4.550   1.837
    1   AR   Ar   41   0.017   3.487   3.550
    1   AR   Ar   42   7.091   4.438   4.535
    1   AR   Ar   43   0.893   3.525   4.456
    1   AR   Ar   44   0.836   4.479   3.583
    1   AR   Ar   45   0.067   3.568   5.314
    1   AR   Ar   46   7.024   4.489   6.222
    1   AR   Ar   47   0.964   3.666   6.186
    1   AR   Ar   48   0.949   4.558   5.409
    1   AR   Ar   49   0.120   5.267  -0.067
    1   AR   Ar   50   7.047   6.168   0.808
    1   AR   Ar   51   0.940   5.370   0.951
    1   AR   Ar   52   0.885   6.144  -0.030
    1   AR   Ar   53   7.095   5.366   1.852
    1   AR   Ar   54   0.010   6.220   2.676
    1   AR   Ar   55   0.906   5.310   2.727
    1   AR   Ar   56   0.801   6.213   1.852
    1   AR   Ar   57   0.114   5.380   3.631
    1   AR   Ar   58   0.086   6.285   4.341
    1   AR   Ar   59   0.784   5.190   4.326
    1   AR   Ar   60   0.980   6.298   3.562
    1   AR   Ar   61   7.030   5.404   5.303
    1   AR   Ar   62   0.016   6.232   6.257
    1   AR   Ar   63   1.020   5.425   6.178
    1   AR   Ar   64   0.902   6.308   5.414
    1   AR   Ar   65   1.689   7.072  -0.051
    1   AR   Ar   66   1.726   0.894   0.984
    1   AR   Ar   67   2.673   7.010   0.748
    1   AR   Ar   68   2.717   0.877   0.028
    1   AR   Ar   69   1.658   0.005   1.897
    1   AR   Ar   70   1.684   0.961   2.650
    1   AR   Ar   71   2.676   7.070   2.621
    1   AR   Ar   72   2.615   0.983   1.702
    1   AR   Ar   73   1.826   0.048   3.560
    1   AR   Ar   74   1.703   0.810   4.517
    1   AR   Ar   75   2.750   7.110   4.410
    1   AR   Ar   76   2.598   0.986   3.520
    1   AR   Ar   77   1.788   0.019   5.394
    1   AR   Ar   78   1.827   0.836   6.277
    1   AR   Ar   79   2.694   0.103   6.111
    1   AR   Ar   80   2.802   0.873   5.444
    1   AR   Ar   81   1.762   1.770  -0.106
    1   AR   Ar   82   1.648   2.744   1.013
    1   AR   Ar   83   2.762   1.709   0.955
    1   AR   Ar   84   2.687   2.722  -0.118
    1   AR   Ar   85   1.658   1.893   1.772
    1   AR   Ar   86   1.825   2.729   2.779
    1   AR   Ar   87   2.642   1.697   2.735
    1   AR   Ar   88   2.671   2.620   1.770
    1   AR   Ar   89   1.734   1.678   3.581
    1   AR   Ar   90   1.793   2.736   4.501
    1   AR   Ar   91   2.663   1.655   4.412
    1   AR   Ar   92   2.674   2.680   3.521
    1   AR   Ar   93   1.687   1.861   5.343
    1   AR   Ar   94   1.910   2.543   6.112
    1   AR   Ar   95   2.610   1.801   6.184
    1   AR   Ar   96   2.657   2.584   5.384
    1   AR   Ar   97   1.674   3.435  -0.060
    1   AR   Ar   98   1.650   4.353   0.931
    1   AR   Ar   99   2.751   3.581   0.916
    1   AR   Ar  100   2.579   4.549  -0.011
    1   AR   Ar  101   1.758   3.573   1.773
    1   AR   Ar  102   1.724   4.418   2.653
    1   AR   Ar  103   2.576   3.696   2.770
    1   AR   Ar  104   2.784   4.553   1.820
    1   AR   Ar  105   1.784   3.611   3.575
    1   AR   Ar  106   1.705   4.574   4.509
    1   AR   Ar  107   2.731   3.587   4.517
    1   AR   Ar  108   2.776   4.562   3.458
    1   AR   Ar  109   1.756   3.588   5.330
    1   AR   Ar  110   1.758   4.480   6.337
    1   AR   Ar  111   2.559   3.634   6.168
    1   AR   Ar  112   2.804   4.420   5.325
    1   AR   Ar  113   1.775   5.325   0.090
    1   AR   Ar  114   1.703   6.239   0.928
    1   AR   Ar  115   2.633   5.402   0.921
    1   AR   Ar  116   2.783   6.136  -0.110
    1   AR   Ar  117   1.925   5.228   1.798
    1   AR   Ar  118   1.810   6.135   2.651
    1   AR   Ar  119   2.629   5.332   2.729
    1   AR   Ar  120   2.617   6.311   1.857
    1   AR   Ar  121   1.887   5.411   3.495
    1   AR   Ar  122   1.761   6.224   4.458
    1   AR   Ar  123   2.583   5.203   4.509
    1   AR   Ar  124   2.661   6.283   3.413
    1   AR   Ar  125   1.850   5.251   5.330
    1   AR   Ar  126   1.732   6.257   6.203
    1   AR   Ar  127   2.536   5.351   6.098
    1   AR   Ar  128   2.554   6.275   5.370
    1   AR   Ar  129   3.509   7.055   0.085
    1   AR   Ar  130   3.699   0.982   0.913
    1   AR   Ar  131   4.360   7.041   1.019
    1   AR   Ar  132   4.521   0.944  -0.128
    1   AR   Ar  133   3.460   7.037   1.788
    1   AR   Ar  134   3.438   0.932   2.610
    1   AR   Ar  135   4.380   0.114   2.694
    1   AR   Ar  136   4.305   0.997   1.838
    1   AR   Ar  137   3.493   7.048   3.494
    1   AR   Ar  138   3.593   0.839   4.519
    1   AR   Ar  139   4.350   0.113   4.462
    1   AR   Ar  140   4.462   0.917   3.625
    1   AR   Ar  141   3.577   7.056   5.410
    1   AR   Ar  142   3.640   0.820   6.279
    1   AR   Ar  143   4.586   0.060   6.170
    1   AR   Ar  144   4.398   0.752   5.378
    1   AR   Ar  145   3.537   1.684   0.064
    1   AR   Ar  146   3.417   2.606   0.973
    1   AR   Ar  147   4.400   1.901   1.020
    1   AR   Ar  148   4.452   2.714   0.010
    1   AR   Ar  149   3.414   1.817   1.712
    1   AR   Ar  150   3.658   2.663   2.684
    1   AR   Ar  151   4.435   1.726   2.578
    1   AR   Ar  152   4.413   2.647   1.916
    1   AR   Ar  153   3.677   1.891   3.480
    1   AR   Ar  154   3.689   2.734   4.366
    1   AR   Ar  155   4.414   1.788   4.527
    1   AR   Ar  156   4.462   2.622   3.735
    1   AR   Ar  157   3.464   1.875   5.339
    1   AR   Ar  158   3.515   2.619   6.183
    1   AR   Ar  159   4.436   1.891   6.279
    1   AR   Ar  160   4.390   2.554   5.185
    1   AR   Ar  161   3.610   3.633  -0.043
    1   AR   Ar  162   3.551   4.527   0.777
    1   AR   Ar  163   4.503   3.675   1.000
    1   AR   Ar  164   4.370   4.495  -0.015
    1   AR   Ar  165   3.512   3.584   1.771
    1   AR   Ar  166   3.679   4.445   2.663
    1   AR   Ar  167   4.375   3.660   2.788
    1   AR   Ar  168   4.400   4.379   1.863
    1   AR   Ar  169   3.427   3.661   3.431
    1   AR   Ar  170   3.489   4.446   4.404
    1   AR   Ar  171   4.506   3.599   4.405
    1   AR   Ar  172   4.414   4.369   3.517
    1   AR   Ar  173   3.557   3.569   5.428
    1   AR   Ar  174   3.698   4.394   6.276
    1   AR   Ar  175   4.516   3.560   6.176
    1   AR   Ar  176   4.477   4.486   5.210
    1   AR   Ar  177   3.534   5.466   0.028
    1   AR   Ar  178   3.509   6.226   0.829
    1   AR   Ar  179   4.475   5.367   0.916
    1   AR   Ar  180   4.404   6.295   0.051
    1   AR   Ar  181   3.672   5.279   1.847
    1   AR   Ar  182   3.508   6.214   2.741
    1   AR   Ar  183   4.396   5.227   2.689
    1   AR   Ar  184   4.532   6.151   1.674
    1   AR   Ar  185   3.460   5.303   3.609
    1   AR   Ar  186   3.661   6.248   4.442
    1   AR   Ar  187   4.518   5.408   4.365
    1   AR   Ar  188   4.445   6.131   3.565
    1   AR   Ar  189   3.630   5.399   5.464
    1   AR   Ar  190   3.554   6.294   6.075
    1   AR   Ar  191   4.438   5.465   6.080
    1   AR   Ar  192   4.471   6.328   5.373
    1   AR   Ar  193   5.348   7.112   0.153
    1   AR   Ar  194   5.223   0.858   0.943
    1   AR   Ar  195   6.173   0.015   0.894
    1   AR   Ar  196   6.347   0.842   0.055
    1   AR   Ar  197   5.337   7.044   1.737
    1   AR   Ar  198   5.386   0.926   2.700
    1   AR   Ar  199   6.325   0.024   2.527
    1   AR   Ar  200   6.090   0.912   1.765
    1   AR   Ar  201   5.327   7.006   3.618
    1   AR   Ar  202   5.199   0.770   4.511
    1   AR   Ar  203   6.314   7.089   4.561
    1   AR   Ar  204   6.337   0.990   3.420
    1   AR   Ar  205   5.408   7.102   5.503
    1   AR   Ar  206   5.452   0.852   6.268
    1   AR   Ar  207   6.155   0.043   6.213
    1   AR   Ar  208   6.258   0.839   5.459
    1   AR   Ar  209   5.296   1.850  -0.059
    1   AR   Ar  210   5.490   2.607   0.787
    1   AR   Ar  211   6.230   1.781   0.742
    1   AR   Ar  212   6.342   2.685   0.142
    1   AR   Ar  213   5.306   1.786   1.836
    1   AR   Ar  214   5.350   2.581   2.747
    1   AR   Ar  215   6.263   1.814   2.631
    1   AR   Ar  216   6.346   2.630   1.700
    1   AR   Ar  217   5.350   1.803   3.461
    1   AR   Ar  218   5.390   2.717   4.390
    1   AR   Ar  219   6.140   1.712   4.529
    1   AR   Ar  220   6.279   2.738   3.636
    1   AR   Ar  221   5.472   1.909   5.225
    1   AR   Ar  222   5.242   2.535   6.105
    1   AR   Ar  223   6.184   1.635   6.216
    1   AR   Ar  224   6.306   2.755   5.394
    1   AR   Ar  225   5.387   3.411  -0.003
    1   AR   Ar  226   5.324   4.457   0.991
    1   AR   Ar  227   6.169   3.693   0.790
    1   AR   Ar  228   6.190   4.494  -0.052
    1   AR   Ar  229   5.281   3.618   1.718
    1   AR   Ar  230   5.332   4.321   2.570
    1   AR   Ar  231   6.197   3.527   2.675
    1   AR   Ar  232   6.126   4.365   1.705
    1   AR   Ar  233   5.240   3.585   3.666
    1   AR   Ar  234   5.441   4.321   4.576
    1   AR   Ar  235   6.355   3.585   4.332
    1   AR   Ar  236   6.338   4.423   3.670
    1   AR   Ar  237   5.415   3.536   5.310
    1   AR   Ar  238   5.221   4.419   6.304
    1   AR   Ar  239   6.085   3.448   6.248
    1   AR   Ar  240   6.199   4.470   5.330
    1   AR   Ar  241   5.333   5.372   0.118
    1   AR   Ar  242   5.220   6.174   0.957
    1   AR   Ar  243   6.310   5.271   0.862
    1   AR   Ar  244   6.239   6.199   0.062
    1   AR   Ar  245   5.427   5.363   1.672
    1   AR   Ar  246   5.229   6.102   2.557
    1   AR   Ar  247   6.140   5.218   2.743
    1   AR   Ar  248   6.273   6.314   1.700
    1   AR   Ar  249   5.220   5.323   3.481
    1   AR   Ar  250   5.434   6.116   4.468
    1   AR   Ar  251   6.338   5.454   4.507
    1   AR   Ar  252   6.142   6.335   3.639
    1   AR   Ar  253   5.216   5.201   5.272
    1   AR   Ar  254   5.455   6.143   6.126
    1   AR   Ar  255   6.181   5.203   6.301
    1   AR   Ar  256   6.324   6.266   5.287
    7.12000  7.12000 12.00000
Argon-slab step 25
  256
    1   AR   Ar    1   7.106   7.117  -0.115
    1   AR   Ar    2   0.147   0.806   0.862
    1   AR   Ar    3   0.857   6.997   0.909
    1   AR   Ar    4   0.789   0.717   0.175
    1   AR   Ar    5   0.023   0.107   1.733
    1   AR   Ar    6   0.167   0.941   2.797
    1   AR   Ar    7   0.902   7.116   2.650
    1   AR   Ar    8   0.824   0.923   1.814
    1   AR   Ar    9   6.997   0.151   3.637
    1   AR   Ar   10   7.113   0.791   4.456
    1   AR   Ar   11   0.863   7.005   4.478
    1   AR   Ar   12   0.979   0.800   3.570
    1   AR   Ar   13   7.071   0.009   5.267
    1   AR   Ar   14   0.098   0.892   6.075
    1   AR   Ar   15   0.918   0.069   6.247
    1   AR   Ar   16   1.052   1.024   5.268
    1   AR   Ar   17   0.111   1.643  -0.135
    1   AR   Ar   18   0.115   2.759   0.895
    1   AR   Ar   19   0.926   1.828   0.920
    1   AR   Ar   20   0.882   2.702   0.028
    1   AR   Ar   21   7.118   1.814   1.752
    1   AR   Ar   22   0.043   2.501   2.520
    1   AR   Ar   23   0.827   1.779   2.677
    1   AR   Ar   24   0.784   2.804   1.710
    1   AR   Ar   25   7.115   1.653   3.462
    1   AR   Ar   26   0.098   2.718   4.441
    1   AR   Ar   27   0.766   1.664   4.541
    1   AR   Ar   28   0.988   2.600   3.584
    1   AR   Ar   29   7.036   1.817   5.321
    1   AR   Ar   30   0.145   2.788   6.208
    1   AR   Ar   31   1.042   1.678   6.337
    1   AR   Ar   32   0.980   2.543   5.310
    1   AR   Ar   33   7.039   3.587  -0.027
    1   AR   Ar   34   6.998   4.532   0.835
    1   AR   Ar   35   0.874   3.592   0.787
    1   AR   Ar   36   0.916   4.529  -0.067
    1   AR   Ar   37   0.157   3.665   1.711
    1   AR   Ar   38   7.064   4.445   2.702
    1   AR   Ar   39   0.885   3.629   2.751
    1   AR   Ar   40   0.865   4.573   1.851
    1   AR   Ar   41   0.023   3.471   3.547
    1   AR   Ar   42   7.073   4.423   4.577
    1   AR   Ar   43   0.911   3.518   4.432
    1   AR   Ar   44   0.834   4.487   3.592
    1   AR   Ar   45   0.068   3.603   5.296
    1   AR   Ar   46   7.025   4.474   6.216
    1   AR   Ar   47   0.981   3.700   6.170
    1   AR   Ar   48   0.948   4.576   5.411
    1   AR   Ar   49   0.146   5.252  -0.075
    1   AR   Ar   50   7.055   6.148   0.799
    1   AR   Ar   51   0.951   5.376   0.966
    1   AR   Ar   52   0.860   6.109  -0.031
    1   AR   Ar   53   7.088   5.365   1.864
    1   AR   Ar   54   0.002   6.238   2.671
    1   AR   Ar   55   0.884   5.334   2.724
    1   AR   Ar   56   0.782   6.210   1.868
    1   AR   Ar   57   0.130   5.397   3.636
    1   AR   Ar   58   0.103   6.297   4.316
    1   AR   Ar   59   0.771   5.159   4.316
    1   AR   Ar   60   1.001   6.313   3.561
    1   AR   Ar   61   7.014   5.417   5.297
    1   AR   Ar   62   0.025   6.225   6.264
    1   AR   Ar   63   1.049   5.443   6.159
    1   AR   Ar   64   0.905   6.327   5.430
    1   AR   Ar   65   1.662   7.022  -0.055
    1   AR   Ar   66   1.712   0.895   1.007
    1   AR   Ar   67   2.672   6.978   0.715
    1   AR   Ar   68   2.711   0.883   0.060
    1   AR   Ar   69   1.632   0.005   1.922
    1   AR   Ar   70   1.661   0.977   2.646
    1   AR   Ar   71   2.680   7.063   2.611
    1   AR   Ar   72   2.602   1.002   1.689
    1   AR   Ar   73   1.825   0.050   3.559
    1   AR   Ar   74   1.690   0.790   4.526
    1   AR   Ar   75   2.751   7.103   4.423
    1   AR   Ar   76   2.581   1.003   3.513
    1   AR   Ar   77   1.789   0.024   5.406
    1   AR   Ar   78   1.838   0.824   6.280
    1   AR   Ar   79   2.688   0.103   6.098
    1   AR   Ar   80   2.835   0.877   5.461
    1   AR   Ar   81   1.749   1.769  -0.124
    1   AR   Ar   82   1.617   2.761   1.041
    1   AR   Ar   83   2.775   1.684   0.957
    1   AR   Ar   84   2.678   2.726  -0.146
    1   AR   Ar   85   1.629   1.919   1.772
    1   AR   Ar   86   1.834   2.743   2.804
    1   AR   Ar   87   2.635   1.682   2.747
    1   AR   Ar   88   2.668   2.609   1.769
    1   AR   Ar   89   1.722   1.655   3.586
    1   AR   Ar   90   1.805   2.755   4.520
    1   AR   Ar   91   2.633   1.650   4.421
    1   AR   Ar   92   2.677   2.683   3.512
    1   AR   Ar   93   1.662   1.873   5.362
    1   AR   Ar   94   1.930   2.524   6.085
    1   AR   Ar   95   2.602   1.798   6.167
    1   AR   Ar   96   2.655   2.568   5.388
    1   AR   Ar   97   1.652   3.408  -0.067
    1   AR   Ar   98   1.620   4.332   0.941
    1   AR   Ar   99   2.743   3.562   0.915
    1   AR   Ar  100   2.571   4.575  -0.004
    1   AR   Ar  101   1.768   3.583   1.785
    1   AR   Ar  102   1.710   4.413   2.639
    1   AR   Ar  103   2.553   3.727   2.791
    1   AR   Ar  104   2.813   4.575   1.830
    1   AR   Ar  105   1.786   3.565   3.555
    1   AR   Ar  106   1.685   4.598   4.520
    1   AR   Ar  107   2.719   3.620   4.483
    1   AR   Ar  108   2.793   4.580   3.436
    1   AR   Ar  109   1.738   3.591   5.309
    1   AR   Ar  110   1.752   4.489   6.354
    1   AR   Ar  111   2.533   3.650   6.146
    1   AR   Ar  112   2.835   4.414   5.322
    1   AR   Ar  113   1.775   5.328   0.111
    1   AR   Ar  114   1.685   6.243   0.939
    1   AR   Ar  115   2.626   5.417   0.928
    1   AR   Ar  116   2.803   6.121  -0.129
    1   AR   Ar  117   1.956   5.203   1.803
    1   AR   Ar  118   1.815   6.114   2.645
    1   AR   Ar  119   2.623   5.330   2.736
    1   AR   Ar  120   2.603   6.326   1.873
    1   AR   Ar  121   1.910   5.427   3.484
    1   AR   Ar  122   1.745   6.230   4.480
    1   AR   Ar  123   2.586   5.157   4.506
    1   AR   Ar  124   2.656   6.294   3.381
    1   AR   Ar  125   1.861   5.232   5.327
    1   AR   Ar  126   1.737   6.290   6.191
    1   AR   Ar  127   2.509   5.354   6.065
    1   AR   Ar  128   2.527   6.286   5.377
    1   AR   Ar  129   3.500   7.040   0.109
    1   AR   Ar  130   3.730   1.003   0.919
    1   AR   Ar  131   4.339   7.023   1.048
    1   AR   Ar  132   4.550   0.968  -0.179
    1   AR   Ar  133   3.424   7.037   1.796
    1   AR   Ar  134   3.404   0.926   2.592
    1   AR   Ar  135   4.375   0.139   2.684
    1   AR   Ar  136   4.271   1.019   1.848
    1   AR   Ar  137   3.496   7.040   3.470
    1   AR   Ar  138   3.584   0.856   4.512
    1   AR   Ar  139   4.327   0.131   4.464
    1   AR   Ar  140   4.448   0.945   3.641
    1   AR   Ar  141   3.581   7.051   5.417
    1   AR   Ar  142   3.659   0.802   6.282
    1   AR   Ar  143   4.615   0.072   6.154
    1   AR   Ar  144   4.386   0.721   5.384
    1   AR   Ar  145   3.531   1.658   0.083
    1   AR   Ar  146   3.386   2.593   0.990
    1   AR   Ar  147   4.394   1.927   1.053
    1   AR   Ar  148   4.455   2.725   0.017
    1   AR   Ar  149   3.386   1.809   1.685
    1   AR   Ar  150   3.679   2.663   2.689
    1   AR   Ar  151   4.432   1.717   2.562
    1   AR   Ar  152   4.396   2.639   1.953
    1   AR   Ar  153   3.695   1.907   3.472
    1   AR   Ar  154   3.708   2.751   4.353
    1   AR   Ar  155   4.397   1.771   4.548
    1   AR   Ar  156   4.468   2.636   3.760
    1   AR   Ar  157   3.474   1.895   5.349
    1   AR   Ar  158   3.514   2.602   6.177
    1   AR   Ar  159   4.423   1.923   6.287
    1   AR   Ar  160   4.378   2.536   5.157
    1   AR   Ar  161   3.625   3.633  -0.047
    1   AR   Ar  162   3.549   4.545   0.753
    1   AR   Ar  163   4.511   3.702   1.022
    1   AR   Ar  164   4.395   4.512  -0.011
    1   AR   Ar  165   3.525   3.617   1.727
    1   AR   Ar  166   3.697   4.445   2.662
    1   AR   Ar  167   4.361   3.673   2.808
    1   AR   Ar  168   4.390   4.363   1.881
    1   AR   Ar  169   3.419   3.654   3.402
    1   AR   Ar  170   3.495   4.452   4.400
    1   AR   Ar  171   4.478   3.628   4.409
    1   AR   Ar  172   4.409   4.362   3.504
    1   AR   Ar  173   3.557   3.571   5.448
    1   AR   Ar  174   3.731   4.381   6.278
    1   AR   Ar  175   4.530   3.559   6.156
    1   AR   Ar  176   4.477   4.490   5.179
    1   AR   Ar  177   3.536   5.487   0.042
    1   AR   Ar  178   3.499   6.223   0.819
    1   AR   Ar  179   4.460   5.363   0.927
    1   AR   Ar  180   4.392   6.310   0.072
    1   AR   Ar  181   3.697   5.274   1.873
    1   AR   Ar  182   3.497   6.209   2.755
    1   AR   Ar  183   4.387   5.203   2.694
    1   AR   Ar  184   4.540   6.132   1.662
    1   AR   Ar  185   3.443   5.302   3.621
    1   AR   Ar  186   3.685   6.253   4.440
    1   AR   Ar  187   4.533   5.422   4.348
    1   AR   Ar  188   4.443   6.110   3.563
    1   AR   Ar  189   3.638   5.409   5.484
    1   AR   Ar  190   3.552   6.303   6.041
    1   AR   Ar  191   4.444   5.494   6.045
    1   AR   Ar  192   4.465   6.344   5.364
    1   AR   Ar  193   5.349   7.110   0.195
    1   AR   Ar  194   5.195   0.850   0.958
    1   AR   Ar  195   6.155   0.009   0.885
    1   AR   Ar  196   6.375   0.831   0.074
    1   AR   Ar  197   5.304   7.057   1.765
    1   AR   Ar  198   5.361   0.938   2.681
    1   AR   Ar  199   6.348   0.030   2.493
    1   AR   Ar  200   6.057   0.916   1.761
    1   AR   Ar  201   5.319   6.983   3.633
    1   AR   Ar  202   5.169   0.744   4.527
    1   AR   Ar  203   6.327   7.082   4.580
    1   AR   Ar  204   6.354   1.009   3.387
    1   AR   Ar  205   5.407   7.087   5.544
    1   AR   Ar  206   5.474   0.843   6.271
    1   AR   Ar  207   6.146   0.049   6.208
    1   AR   Ar  208   6.269   0.831   5.482
    1   AR   Ar  209   5.306   1.855  -0.068
    1   AR   Ar  210   5.494   2.585   0.759
    1   AR   Ar  211   6.232   1.779   0.710
    1   AR   Ar  212   6.371   2.690   0.178
    1   AR   Ar  213   5.341   1.789   1.894
    1   AR   Ar  214   5.350   2.569   2.767
    1   AR   Ar  215   6.268   1.837   2.610
    1   AR   Ar  216   6.372   2.598   1.690
    1   AR   Ar  217   5.354   1.806   3.442
    1   AR   Ar  218   5.401   2.728   4.377
    1   AR   Ar  219   6.132   1.693   4.535
    1   AR   Ar  220   6.289   2.752   3.653
    1   AR   Ar  221   5.491   1.943   5.209
    1   AR   Ar  222   5.224   2.509   6.069
    1   AR   Ar  223   6.176   1.604   6.205
    1   AR   Ar  224   6.324   2.773   5.404
    1   AR   Ar  225   5.400   3.393   0.011
    1   AR   Ar  226   5.310   4.463   1.028
    1   AR   Ar  227   6.155   3.723   0.767
    1   AR   Ar  228   6.181   4.505  -0.057
    1   AR   Ar  229   5.270   3.630   1.707
    1   AR   Ar  230   5.328   4.292   2.548
    1   AR   Ar  231   6.189   3.516   2.677
    1   AR   Ar  232   6.092   4.347   1.692
    1   AR   Ar  233   5.223   3.590   3.685
    1   AR   Ar  234   5.463   4.291   4.600
    1   AR   Ar  235   6.382   3.589   4.310
    1   AR   Ar  236   6.364   4.419   3.693
    1   AR   Ar  237   5.432   3.528   5.304
    1   AR   Ar  238   5.196   4.424   6.308
    1   AR   Ar  239   6.050   3.423   6.246
    1   AR   Ar  240   6.210   4.465   5.317
    1   AR   Ar  241   5.331   5.379   0.154
    1   AR   Ar  242   5.204   6.165   0.960
    1   AR   Ar  243   6.310   5.255   0.822
    1   AR   Ar  244   6.240   6.191   0.083
    1   AR   Ar  245   5.448   5.368   1.648
    1   AR   Ar  246   5.191   6.135   2.576
    1   AR   Ar  247   6.118   5.188   2.759
    1   AR   Ar  248   6.283   6.334   1.680
    1   AR   Ar  249   5.235   5.349   3.462
    1   AR   Ar  250   5.454   6.090   4.473
    1   AR   Ar  251   6.362   5.480   4.516
    1   AR   Ar  252   6.128   6.356   3.658
    1   AR   Ar  253   5.193   5.175   5.256
    1   AR   Ar  254   5.486   6.123   6.094
    1   AR   Ar  255   6.163   5.180   6.297
    1   AR   Ar  256   6.344   6.275   5.276
    7.12000  7.12000 12.00000
Argon-slab step 30
  256
    1   AR   Ar    1   7.091   0.007  -0.110
    1   AR   Ar    2   0.145   0.795   0.886
    1   AR   Ar    3   0.853   6.964   0.914
    1   AR   Ar    4   0.800   0.683   0.183
    1   AR   Ar    5   0.022   0.094   1.766
    1   AR   Ar    6   0.202   0.924   2.798
    1   AR   Ar    7   0.895   7.118   2.652
    1   AR   Ar    8   0.813   0.930   1.821
    1   AR   Ar    9   6.976   0.173   3.646
    1   AR   Ar   10   0.004   0.790   4.462
    1   AR   Ar   11   0.845   7.005   4.507
    1   AR   Ar   12   0.993   0.782   3.573
    1   AR   Ar   13   7.092   0.011   5.268
    1   AR   Ar   14   0.118   0.893   6.038
    1   AR   Ar   15   0.920   0.078   6.243
    1   AR   Ar   16   1.072   1.038   5.277
    1   AR   Ar   17   0.132   1.616  -0.151
    1   AR   Ar   18   0.121   2.784   0.885
    1   AR   Ar   19   0.931   1.839   0.927
    1   AR   Ar   20   0.869   2.647   0.034
    1   AR   Ar   21   7.118   1.794   1.754
    1   AR   Ar   22   0.048   2.479   2.499
    1   AR   Ar   23   0.839   1.745   2.662
    1   AR   Ar   24   0.768   2.825   1.703
    1   AR   Ar   25   0.002   1.666   3.493
    1   AR   Ar   26   0.109   2.735   4.430
    1   AR   Ar   27   0.740   1.652   4.547
    1   AR   Ar   28   1.005   2.572   3.591
    1   AR   Ar   29   7.021   1.829   5.330
    1   AR   Ar   30   0.173   2.811   6.194
    1   AR   Ar   31   1.072   1.658   6.347
    1   AR   Ar   32   0.993   2.539   5.291
    1   AR   Ar   33   7.047   3.598  -0.037
    1   AR   Ar   34   6.987   4.534   0.826
    1   AR   Ar   35   0.873   3.622   0.769
    1   AR   Ar   36   0.925   4.540  -0.071
    1   AR   Ar   37   0.183   3.688   1.698
    1   AR   Ar   38   7.056   4.445   2.706
    1   AR   Ar   39   0.885   3.642   2.765
    1   AR   Ar   40   0.861   4.596   1.864
    1   AR   Ar   41   0.031   3.457   3.543
    1   AR   Ar   42   7.056   4.410   4.618
    1   AR   Ar   43   0.930   3.511   4.408
    1   AR   Ar   44   0.832   4.461   3.597
    1   AR   Ar   45   0.070   3.636   5.279
    1   AR   Ar   46   7.027   4.458   6.206
    1   AR   Ar   47   0.996   3.734   6.152
    1   AR   Ar   48   0.946   4.592   5.413
    1   AR   Ar   49   0.168   5.238  -0.079
    1   AR   Ar   50   7.065   6.127   0.790
    1   AR   Ar   51   0.962   5.382   0.980
    1   AR   Ar   52   0.835   6.076  -0.029
    1   AR   Ar   53   7.077   5.376   1.876
    1   AR   Ar   54   7.114   6.256   2.667
    1   AR   Ar   55   0.862   5.359   2.722
    1   AR   Ar   56   0.763   6.207   1.883
    1   AR   Ar   57   0.134   5.417   3.628
    1   AR   Ar   58   0.116   6.307   4.292
    1   AR   Ar   59   0.768   5.132   4.326
    1   AR   Ar   60   1.000   6.302   3.561
    1   AR   Ar   61   7.003   5.428   5.296
    1   AR   Ar   62   0.034   6.219   6.268
    1   AR   Ar   63   1.078   5.460   6.138
    1   AR   Ar   64   0.906   6.347   5.445
    1   AR   Ar   65   1.636   6.971  -0.057
    1   AR   Ar   66   1.696   0.896   1.030
    1   AR   Ar   67   2.665   6.945   0.686
    1   AR   Ar   68   2.701   0.882   0.087
    1   AR   Ar   69   1.610   0.006   1.942
    1   AR   Ar   70   1.638   0.993   2.641
    1   AR   Ar   71   2.683   7.061   2.604
    1   AR   Ar   72   2.588   1.015   1.683
    1   AR   Ar   73   1.826   0.052   3.558
    1   AR   Ar   74   1.683   0.769   4.527
    1   AR   Ar   75   2.752   7.097   4.435
    1   AR   Ar   76   2.565   1.012   3.509
    1   AR   Ar   77   1.789   0.029   5.417
    1   AR   Ar   78   1.854   0.828   6.289
    1   AR   Ar   79   2.681   0.097   6.089
    1   AR   Ar   80   2.869   0.886   5.473
    1   AR   Ar   81   1.737   1.768  -0.139
    1   AR   Ar   82   1.588   2.779   1.065
    1   AR   Ar   83   2.776   1.660   0.940
    1   AR   Ar   84   2.668   2.731  -0.171
    1   AR   Ar   85   1.601   1.943   1.774
    1   AR   Ar   86   1.843   2.756   2.827
    1   AR   Ar   87   2.626   1.674   2.753
    1   AR   Ar   88   2.659   2.606   1.780
    1   AR   Ar   89   1.709   1.634   3.591
    1   AR   Ar   90   1.817   2.774   4.538
    1   AR   Ar   91   2.603   1.645   4.431
    1   AR   Ar   92   2.657   2.689   3.502
    1   AR   Ar   93   1.642   1.875   5.388
    1   AR   Ar   94   1.938   2.519   6.068
    1   AR   Ar   95   2.601   1.785   6.150
    1   AR   Ar   96   2.657   2.555   5.385
    1   AR   Ar   97   1.633   3.385  -0.071
    1   AR   Ar   98   1.639   4.325   0.939
    1   AR   Ar   99   2.731   3.531   0.907
    1   AR   Ar  100   2.565   4.601   0.007
    1   AR   Ar  101   1.778   3.593   1.798
    1   AR   Ar  102   1.697   4.409   2.625
    1   AR   Ar  103   2.523   3.736   2.768
    1   AR   Ar  104   2.845   4.594   1.841
    1   AR   Ar  105   1.786   3.519   3.537
    1   AR   Ar  106   1.662   4.615   4.527
    1   AR   Ar  107   2.707   3.653   4.448
    1   AR   Ar  108   2.804   4.588   3.416
    1   AR   Ar  109   1.721   3.594   5.288
    1   AR   Ar  110   1.747   4.498   6.367
    1   AR   Ar  111   2.508   3.666   6.122
    1   AR   Ar  112   2.864   4.423   5.327
    1   AR   Ar  113   1.773   5.333   0.136
    1   AR   Ar  114   1.668   6.246   0.951
    1   AR   Ar  115   2.619   5.433   0.934
    1   AR   Ar  116   2.812   6.114  -0.147
    1   AR   Ar  117   1.983   5.180   1.809
    1   AR   Ar  118   1.819   6.095   2.638
    1   AR   Ar  119   2.620   5.331   2.736
    1   AR   Ar  120   2.587   6.337   1.886
    1   AR   Ar  121   1.928   5.441   3.478
    1   AR   Ar  122   1.754   6.234   4.503
    1   AR   Ar  123   2.591   5.113   4.501
    1   AR   Ar  124   2.670   6.290   3.353
    1   AR   Ar  125   1.865   5.215   5.319
    1   AR   Ar  126   1.742   6.325   6.177
    1   AR   Ar  127   2.490   5.359   6.040
    1   AR   Ar  128   2.501   6.296   5.382
    1   AR   Ar  129   3.496   7.027   0.130
    1   AR   Ar  130   3.760   1.022   0.925
    1   AR   Ar  131   4.318   7.005   1.077
    1   AR   Ar  132   4.579   0.993  -0.228
    1   AR   Ar  133   3.391   7.039   1.803
    1   AR   Ar  134   3.371   0.919   2.575
    1   AR   Ar  135   4.369   0.164   2.672
    1   AR   Ar  136   4.238   1.036   1.854
    1   AR   Ar  137   3.501   7.033   3.447
    1   AR   Ar  138   3.572   0.877   4.506
    1   AR   Ar  139   4.303   0.142   4.465
    1   AR   Ar  140   4.433   0.974   3.656
    1   AR   Ar  141   3.586   7.058   5.413
    1   AR   Ar  142   3.677   0.784   6.283
    1   AR   Ar  143   4.639   0.081   6.145
    1   AR   Ar  144   4.372   0.695   5.386
    1   AR   Ar  145   3.526   1.634   0.103
    1   AR   Ar  146   3.359   2.585   1.002
    1   AR   Ar  147   4.387   1.952   1.087
    1   AR   Ar  148   4.468   2.741   0.022
    1   AR   Ar  149   3.373   1.799   1.676
    1   AR   Ar  150   3.696   2.664   2.698
    1   AR   Ar  151   4.430   1.713   2.553
    1   AR   Ar  152   4.385   2.633   1.986
    1   AR   Ar  153   3.680   1.889   3.508
    1   AR   Ar  154   3.712   2.770   4.348
    1   AR   Ar  155   4.379   1.743   4.560
    1   AR   Ar  156   4.486   2.654   3.772
    1   AR   Ar  157   3.486   1.911   5.356
    1   AR   Ar  158   3.513   2.587   6.170
    1   AR   Ar  159   4.405   1.950   6.294
    1   AR   Ar  160   4.369   2.530   5.141
    1   AR   Ar  161   3.615   3.665  -0.036
    1   AR   Ar  162   3.546   4.564   0.730
    1   AR   Ar  163   4.513   3.729   1.038
    1   AR   Ar  164   4.420   4.530  -0.003
    1   AR   Ar  165   3.540   3.650   1.685
    1   AR   Ar  166   3.703   4.446   2.663
    1   AR   Ar  167   4.350   3.671   2.819
    1   AR   Ar  168   4.384   4.349   1.896
    1   AR   Ar  169   3.427   3.627   3.374
    1   AR   Ar  170   3.501   4.458   4.395
    1   AR   Ar  171   4.446   3.656   4.415
    1   AR   Ar  172   4.405   4.366   3.501
    1   AR   Ar  173   3.557   3.572   5.467
    1   AR   Ar  174   3.765   4.369   6.278
    1   AR   Ar  175   4.545   3.556   6.133
    1   AR   Ar  176   4.469   4.485   5.147
    1   AR   Ar  177   3.548   5.498   0.060
    1   AR   Ar  178   3.490   6.220   0.814
    1   AR   Ar  179   4.421   5.359   0.953
    1   AR   Ar  180   4.391   6.316   0.074
    1   AR   Ar  181   3.720   5.270   1.897
    1   AR   Ar  182   3.490   6.201   2.766
    1   AR   Ar  183   4.384   5.184   2.702
    1   AR   Ar  184   4.536   6.113   1.664
    1   AR   Ar  185   3.435   5.311   3.634
    1   AR   Ar  186   3.710   6.259   4.438
    1   AR   Ar  187   4.547   5.432   4.334
    1   AR   Ar  188   4.439   6.093   3.558
    1   AR   Ar  189   3.637   5.416   5.494
    1   AR   Ar  190   3.548   6.304   6.017
    1   AR   Ar  191   4.460   5.522   6.017
    1   AR   Ar  192   4.460   6.362   5.354
    1   AR   Ar  193   5.346   7.107   0.238
    1   AR   Ar  194   5.167   0.842   0.973
    1   AR   Ar  195   6.118   0.006   0.881
    1   AR   Ar  196   6.404   0.819   0.096
    1   AR   Ar  197   5.270   7.069   1.792
    1   AR   Ar  198   5.336   0.951   2.662
    1   AR   Ar  199   6.370   0.038   2.461
    1   AR   Ar  200   6.024   0.920   1.757
    1   AR   Ar  201   5.305   6.963   3.648
    1   AR   Ar  202   5.142   0.721   4.543
    1   AR   Ar  203   6.333   7.075   4.591
    1   AR   Ar  204   6.362   1.021   3.355
    1   AR   Ar  205   5.425   7.086   5.537
    1   AR   Ar  206   5.489   0.833   6.273
    1   AR   Ar  207   6.147   0.051   6.208
    1   AR   Ar  208   6.281   0.822   5.500
    1   AR   Ar  209   5.316   1.861  -0.074
    1   AR   Ar  210   5.495   2.564   0.735
    1   AR   Ar  211   6.234   1.773   0.681
    1   AR   Ar  212   6.402   2.699   0.212
    1   AR   Ar  213   5.376   1.793   1.951
    1   AR   Ar  214   5.349   2.573   2.788
    1   AR   Ar  215   6.273   1.859   2.588
    1   AR   Ar  216   6.398   2.566   1.679
    1   AR   Ar  217   5.358   1.805   3.427
    1   AR   Ar  218   5.413   2.739   4.366
    1   AR   Ar  219   6.136   1.669   4.527
    1   AR   Ar  220   6.298   2.763   3.667
    1   AR   Ar  221   5.498   1.979   5.204
    1   AR   Ar  222   5.212   2.490   6.032
    1   AR   Ar  223   6.170   1.579   6.194
    1   AR   Ar  224   6.342   2.791   5.412
    1   AR   Ar  225   5.413   3.388   0.032
    1   AR   Ar  226   5.291   4.471   1.058
    1   AR   Ar  227   6.142   3.752   0.744
    1   AR   Ar  228   6.173   4.515  -0.058
    1   AR   Ar  229   5.263   3.637   1.698
    1   AR   Ar  230   5.325   4.266   2.528
    1   AR   Ar  231   6.182   3.513   2.671
    1   AR   Ar  232   6.063   4.330   1.682
    1   AR   Ar  233   5.210   3.595   3.700
    1   AR   Ar  234   5.483   4.264   4.618
    1   AR   Ar  235   6.408   3.590   4.295
    1   AR   Ar  236   6.389   4.420   3.713
    1   AR   Ar  237   5.448   3.516   5.301
    1   AR   Ar  238   5.173   4.431   6.309
    1   AR   Ar  239   6.015   3.398   6.243
    1   AR   Ar  240   6.223   4.460   5.306
    1   AR   Ar  241   5.330   5.385   0.192
    1   AR   Ar  242   5.201   6.160   0.950
    1   AR   Ar  243   6.302   5.246   0.784
    1   AR   Ar  244   6.239   6.184   0.105
    1   AR   Ar  245   5.464   5.346   1.661
    1   AR   Ar  246   5.153   6.167   2.595
    1   AR   Ar  247   6.097   5.157   2.775
    1   AR   Ar  248   6.293   6.352   1.661
    1   AR   Ar  249   5.250   5.375   3.443
    1   AR   Ar  250   5.473   6.064   4.480
    1   AR   Ar  251   6.383   5.504   4.518
    1   AR   Ar  252   6.120   6.374   3.677
    1   AR   Ar  253   5.179   5.157   5.241
    1   AR   Ar  254   5.516   6.102   6.060
    1   AR   Ar  255   6.159   5.176   6.315
    1   AR   Ar  256   6.363   6.284   5.267
    7.12000  7.12000 12.00000
Argon-slab step 35
  256
    1   AR   Ar    1   7.068   0.023  -0.091
    1   AR   Ar    2   0.131   0.787   0.923
    1   AR   Ar    3   0.847   6.937   0.920
    1   AR   Ar    4   0.824   0.648   0.180
    1   AR   Ar    5   0.017   0.074   1.782
    1   AR   Ar    6   0.236   0.900   2.794
    1   AR   Ar    7   0.882   7.119   2.660
    1   AR   Ar    8   0.803   0.938   1.828
    1   AR   Ar    9   6.956   0.191   3.652
    1   AR   Ar   10   0.016   0.792   4.473
    1   AR   Ar   11   0.832   7.009   4.536
    1   AR   Ar   12   1.006   0.765   3.577
    1   AR   Ar   13   7.119   0.013   5.275
    1   AR   Ar   14   0.138   0.894   5.999
    1   AR   Ar   15   0.922   0.087   6.236
    1   AR   Ar   16   1.085   1.042   5.299
    1   AR   Ar   17   0.153   1.589  -0.164
    1   AR   Ar   18   0.127   2.808   0.874
    1   AR   Ar   19   0.934   1.851   0.933
    1   AR   Ar   20   0.855   2.589   0.043
    1   AR   Ar   21   7.118   1.773   1.752
    1   AR   Ar   22   0.052   2.465   2.484
    1   AR   Ar   23   0.854   1.714   2.647
    1   AR   Ar   24   0.755   2.842   1.702
    1   AR   Ar   25   0.014   1.688   3.530
    1   AR   Ar   26   0.117   2.744   4.425
    1   AR   Ar   27   0.712   1.645   4.546
    1   AR   Ar   28   1.022   2.543   3.599
    1   AR   Ar   29   7.005   1.840   5.339
    1   AR   Ar   30   0.201   2.835   6.178
    1   AR   Ar   31   1.102   1.638   6.355
    1   AR   Ar   32   0.985   2.555   5.270
    1   AR   Ar   33   7.056   3.610  -0.045
    1   AR   Ar   34   6.984   4.528   0.817
    1   AR   Ar   35   0.869   3.649   0.750
    1   AR   Ar   36   0.938   4.547  -0.071
    1   AR   Ar   37   0.208   3.715   1.684
    1   AR   Ar   38   7.048   4.445   2.711
    1   AR   Ar   39   0.884   3.655   2.780
    1   AR   Ar   40   0.858   4.619   1.878
    1   AR   Ar   41   0.042   3.443   3.536
    1   AR   Ar   42   7.041   4.403   4.653
    1   AR   Ar   43   0.949   3.505   4.384
    1   AR   Ar   44   0.831   4.427   3.593
    1   AR   Ar   45   0.072   3.665   5.267
    1   AR   Ar   46   7.029   4.441   6.192
    1   AR   Ar   47   1.010   3.766   6.132
    1   AR   Ar   48   0.946   4.598   5.415
    1   AR   Ar   49   0.184   5.227  -0.081
    1   AR   Ar   50   7.074   6.115   0.789
    1   AR   Ar   51   0.972   5.388   0.995
    1   AR   Ar   52   0.813   6.045  -0.023
    1   AR   Ar   53   7.067   5.390   1.888
    1   AR   Ar   54   7.106   6.274   2.663
    1   AR   Ar   55   0.841   5.384   2.721
    1   AR   Ar   56   0.745   6.205   1.897
    1   AR   Ar   57   0.143   5.408   3.614
    1   AR   Ar   58   0.124   6.313   4.269
    1   AR   Ar   59   0.763   5.126   4.344
    1   AR   Ar   60   0.984   6.274   3.561
    1   AR   Ar   61   7.001   5.435   5.304
    1   AR   Ar   62   0.043   6.213   6.269
    1   AR   Ar   63   1.106   5.475   6.116
    1   AR   Ar   64   0.907   6.368   5.459
    1   AR   Ar   65   1.609   6.919  -0.056
    1   AR   Ar   66   1.678   0.898   1.053
    1   AR   Ar   67   2.649   6.912   0.663
    1   AR   Ar   68   2.679   0.860   0.083
    1   AR   Ar   69   1.594   0.006   1.957
    1   AR   Ar   70   1.616   1.007   2.636
    1   AR   Ar   71   2.685   7.065   2.602
    1   AR   Ar   72   2.572   1.022   1.685
    1   AR   Ar   73   1.827   0.053   3.557
    1   AR   Ar   74   1.681   0.745   4.520
    1   AR   Ar   75   2.753   7.091   4.449
    1   AR   Ar   76   2.551   1.013   3.510
    1   AR   Ar   77   1.787   0.036   5.427
    1   AR   Ar   78   1.876   0.841   6.294
    1   AR   Ar   79   2.674   0.084   6.082
    1   AR   Ar   80   2.904   0.901   5.478
    1   AR   Ar   81   1.750   1.784  -0.139
    1   AR   Ar   82   1.563   2.797   1.085
    1   AR   Ar   83   2.765   1.638   0.901
    1   AR   Ar   84   2.659   2.735  -0.194
    1   AR   Ar   85   1.574   1.966   1.778
    1   AR   Ar   86   1.849   2.766   2.843
    1   AR   Ar   87   2.616   1.673   2.753
    1   AR   Ar   88   2.645   2.611   1.809
    1   AR   Ar   89   1.694   1.615   3.596
    1   AR   Ar   90   1.829   2.792   4.555
    1   AR   Ar   91   2.573   1.641   4.442
    1   AR   Ar   92   2.641   2.695   3.495
    1   AR   Ar   93   1.643   1.853   5.408
    1   AR   Ar   94   1.945   2.510   6.059
    1   AR   Ar   95   2.608   1.763   6.132
    1   AR   Ar   96   2.663   2.547   5.372
    1   AR   Ar   97   1.615   3.363  -0.074
    1   AR   Ar   98   1.662   4.321   0.938
    1   AR   Ar   99   2.716   3.497   0.897
    1   AR   Ar  100   2.560   4.626   0.020
    1   AR   Ar  101   1.774   3.601   1.828
    1   AR   Ar  102   1.682   4.408   2.612
    1   AR   Ar  103   2.495   3.744   2.744
    1   AR   Ar  104   2.879   4.611   1.852
    1   AR   Ar  105   1.785   3.477   3.523
    1   AR   Ar  106   1.639   4.624   4.529
    1   AR   Ar  107   2.694   3.686   4.414
    1   AR   Ar  108   2.807   4.582   3.398
    1   AR   Ar  109   1.714   3.599   5.275
    1   AR   Ar  110   1.743   4.509   6.378
    1   AR   Ar  111   2.483   3.681   6.096
    1   AR   Ar  112   2.887   4.433   5.335
    1   AR   Ar  113   1.778   5.337   0.119
    1   AR   Ar  114   1.653   6.248   0.962
    1   AR   Ar  115   2.613   5.449   0.938
    1   AR   Ar  116   2.812   6.116  -0.166
    1   AR   Ar  117   2.005   5.160   1.815
    1   AR   Ar  118   1.813   6.086   2.632
    1   AR   Ar  119   2.622   5.335   2.726
    1   AR   Ar  120   2.570   6.340   1.893
    1   AR   Ar  121   1.942   5.454   3.479
    1   AR   Ar  122   1.778   6.237   4.528
    1   AR   Ar  123   2.600   5.071   4.494
    1   AR   Ar  124   2.654   6.282   3.335
    1   AR   Ar  125   1.858   5.202   5.305
    1   AR   Ar  126   1.749   6.360   6.163
    1   AR   Ar  127   2.482   5.366   6.026
    1   AR   Ar  128   2.477   6.306   5.387
    1   AR   Ar  129   3.500   7.017   0.145
    1   AR   Ar  130   3.788   1.039   0.930
    1   AR   Ar  131   4.297   6.989   1.104
    1   AR   Ar  132   4.608   1.017  -0.274
    1   AR   Ar  133   3.361   7.043   1.808
    1   AR   Ar  134   3.339   0.910   2.557
    1   AR   Ar  135   4.363   0.190   2.661
    1   AR   Ar  136   4.205   1.044   1.855
    1   AR   Ar  137   3.506   7.029   3.426
    1   AR   Ar  138   3.557   0.902   4.501
    1   AR   Ar  139   4.277   0.144   4.463
    1   AR   Ar  140   4.418   1.003   3.671
    1   AR   Ar  141   3.567   7.094   5.408
    1   AR   Ar  142   3.696   0.766   6.281
    1   AR   Ar  143   4.656   0.085   6.146
    1   AR   Ar  144   4.358   0.676   5.383
    1   AR   Ar  145   3.522   1.613   0.121
    1   AR   Ar  146   3.379   2.600   0.994
    1   AR   Ar  147   4.380   1.977   1.120
    1   AR   Ar  148   4.480   2.756   0.029
    1   AR   Ar  149   3.375   1.787   1.687
    1   AR   Ar  150   3.679   2.640   2.701
    1   AR   Ar  151   4.430   1.715   2.554
    1   AR   Ar  152   4.381   2.628   2.010
    1   AR   Ar  153   3.650   1.878   3.510
    1   AR   Ar  154   3.701   2.791   4.349
    1   AR   Ar  155   4.362   1.703   4.563
    1   AR   Ar  156   4.517   2.672   3.773
    1   AR   Ar  157   3.501   1.922   5.360
    1   AR   Ar  158   3.510   2.575   6.163
    1   AR   Ar  159   4.379   1.972   6.300
    1   AR   Ar  160   4.363   2.536   5.136
    1   AR   Ar  161   3.605   3.698  -0.022
    1   AR   Ar  162   3.543   4.582   0.709
    1   AR   Ar  163   4.506   3.753   1.046
    1   AR   Ar  164   4.445   4.548   0.007
    1   AR   Ar  165   3.554   3.682   1.643
    1   AR   Ar  166   3.692   4.446   2.665
    1   AR   Ar  167   4.345   3.653   2.819
    1   AR   Ar  168   4.382   4.336   1.910
    1   AR   Ar  169   3.434   3.598   3.349
    1   AR   Ar  170   3.511   4.465   4.402
    1   AR   Ar  171   4.411   3.683   4.424
    1   AR   Ar  172   4.401   4.381   3.510
    1   AR   Ar  173   3.569   3.586   5.471
    1   AR   Ar  174   3.798   4.357   6.274
    1   AR   Ar  175   4.559   3.552   6.107
    1   AR   Ar  176   4.451   4.473   5.115
    1   AR   Ar  177   3.570   5.497   0.079
    1   AR   Ar  178   3.482   6.216   0.814
    1   AR   Ar  179   4.380   5.350   0.976
    1   AR   Ar  180   4.393   6.319   0.073
    1   AR   Ar  181   3.742   5.268   1.918
    1   AR   Ar  182   3.488   6.191   2.770
    1   AR   Ar  183   4.390   5.171   2.714
    1   AR   Ar  184   4.523   6.095   1.680
    1   AR   Ar  185   3.436   5.329   3.649
    1   AR   Ar  186   3.734   6.265   4.437
    1   AR   Ar  187   4.560   5.437   4.326
    1   AR   Ar  188   4.433   6.080   3.547
    1   AR   Ar  189   3.624   5.416   5.493
    1   AR   Ar  190   3.543   6.296   6.004
    1   AR   Ar  191   4.483   5.538   5.996
    1   AR   Ar  192   4.456   6.381   5.341
    1   AR   Ar  193   5.336   7.103   0.276
    1   AR   Ar  194   5.139   0.833   0.988
    1   AR   Ar  195   6.074   0.005   0.884
    1   AR   Ar  196   6.400   0.809   0.121
    1   AR   Ar  197   5.237   7.080   1.818
    1   AR   Ar  198   5.311   0.963   2.644
    1   AR   Ar  199   6.388   0.046   2.432
    1   AR   Ar  200   5.993   0.923   1.753
    1   AR   Ar  201   5.286   6.964   3.656
    1   AR   Ar  202   5.120   0.702   4.561
    1   AR   Ar  203   6.334   7.072   4.595
    1   AR   Ar  204   6.361   1.030   3.321
    1   AR   Ar  205   5.443   7.082   5.514
    1   AR   Ar  206   5.493   0.822   6.274
    1   AR   Ar  207   6.160   0.045   6.216
    1   AR   Ar  208   6.294   0.811   5.509
    1   AR   Ar  209   5.326   1.865  -0.080
    1   AR   Ar  210   5.492   2.544   0.716
    1   AR   Ar  211   6.237   1.763   0.654
    1   AR   Ar  212   6.434   2.711   0.243
    1   AR   Ar  213   5.409   1.798   2.006
    1   AR   Ar  214   5.346   2.584   2.804
    1   AR   Ar  215   6.287   1.819   2.602
    1   AR   Ar  216   6.420   2.537   1.667
    1   AR   Ar  217   5.361   1.796   3.419
    1   AR   Ar  218   5.425   2.750   4.356
    1   AR   Ar  219   6.150   1.641   4.510
    1   AR   Ar  220   6.306   2.770   3.677
    1   AR   Ar  221   5.498   2.015   5.202
    1   AR   Ar  222   5.204   2.481   5.996
    1   AR   Ar  223   6.170   1.564   6.183
    1   AR   Ar  224   6.361   2.807   5.418
    1   AR   Ar  225   5.426   3.383   0.053
    1   AR   Ar  226   5.267   4.485   1.079
    1   AR   Ar  227   6.130   3.780   0.724
    1   AR   Ar  228   6.166   4.526  -0.059
    1   AR   Ar  229   5.260   3.635   1.695
    1   AR   Ar  230   5.320   4.243   2.512
    1   AR   Ar  231   6.183   3.534   2.633
    1   AR   Ar  232   6.045   4.315   1.678
    1   AR   Ar  233   5.200   3.600   3.711
    1   AR   Ar  234   5.498   4.241   4.626
    1   AR   Ar  235   6.431   3.587   4.290
    1   AR   Ar  236   6.415   4.426   3.727
    1   AR   Ar  237   5.463   3.499   5.301
    1   AR   Ar  238   5.150   4.440   6.307
    1   AR   Ar  239   5.979   3.375   6.241
    1   AR   Ar  240   6.238   4.457   5.300
    1   AR   Ar  241   5.329   5.390   0.231
    1   AR   Ar  242   5.209   6.159   0.930
    1   AR   Ar  243   6.285   5.245   0.746
    1   AR   Ar  244   6.236   6.178   0.128
    1   AR   Ar  245   5.479   5.320   1.684
    1   AR   Ar  246   5.136   6.197   2.599
    1   AR   Ar  247   6.077   5.126   2.789
    1   AR   Ar  248   6.303   6.369   1.641
    1   AR   Ar  249   5.265   5.400   3.424
    1   AR   Ar  250   5.488   6.040   4.488
    1   AR   Ar  251   6.403   5.510   4.518
    1   AR   Ar  252   6.122   6.387   3.695
    1   AR   Ar  253   5.176   5.149   5.228
    1   AR   Ar  254   5.546   6.082   6.025
    1   AR   Ar  255   6.155   5.171   6.330
    1   AR   Ar  256   6.380   6.293   5.263
    7.12000  7.12000 12.00000
Argon-slab step 40
  256
    1   AR   Ar    1   7.046   0.036  -0.070
    1   AR   Ar    2   0.112   0.781   0.964
    1   AR   Ar    3   0.837   6.931   0.932
    1   AR   Ar    4   0.854   0.614   0.173
    1   AR   Ar    5   0.017   0.050   1.780
    1   AR   Ar    6   0.266   0.871   2.789
    1   AR   Ar    7   0.862   0.000   2.676
    1   AR   Ar    8   0.794   0.945   1.834
    1   AR   Ar    9   6.937   0.203   3.654
    1   AR   Ar   10   0.028   0.797   4.487
    1   AR   Ar   11   0.823   7.019   4.565
    1   AR   Ar   12   1.016   0.748   3.582
    1   AR   Ar   13   0.030   0.015   5.286
    1   AR   Ar   14   0.160   0.896   5.959
    1   AR   Ar   15   0.925   0.095   6.227
    1   AR   Ar   16   1.088   1.034   5.329
    1   AR   Ar   17   0.175   1.561  -0.174
    1   AR   Ar   18   0.133   2.832   0.864
    1   AR   Ar   19   0.934   1.861   0.937
    1   AR   Ar   20   0.839   2.531   0.055
    1   AR   Ar   21   7.115   1.768   1.749
    1   AR   Ar   22   0.058   2.457   2.477
    1   AR   Ar   23   0.869   1.690   2.633
    1   AR   Ar   24   0.738   2.866   1.694
    1   AR   Ar   25   0.031   1.715   3.568
    1   AR   Ar   26   0.114   2.723   4.445
    1   AR   Ar   27   0.684   1.643   4.542
    1   AR   Ar   28   1.039   2.516   3.608
    1   AR   Ar   29   6.990   1.851   5.347
    1   AR   Ar   30   0.229   2.859   6.158
    1   AR   Ar   31   1.132   1.619   6.360
    1   AR   Ar   32   0.965   2.585   5.245
    1   AR   Ar   33   7.065   3.623  -0.049
    1   AR   Ar   34   6.988   4.514   0.809
    1   AR   Ar   35   0.862   3.675   0.731
    1   AR   Ar   36   0.957   4.548  -0.068
    1   AR   Ar   37   0.228   3.747   1.670
    1   AR   Ar   38   7.041   4.445   2.715
    1   AR   Ar   39   0.883   3.667   2.792
    1   AR   Ar   40   0.855   4.642   1.891
    1   AR   Ar   41   0.057   3.431   3.528
    1   AR   Ar   42   7.030   4.411   4.676
    1   AR   Ar   43   0.967   3.500   4.360
    1   AR   Ar   44   0.830   4.389   3.585
    1   AR   Ar   45   0.077   3.680   5.264
    1   AR   Ar   46   7.022   4.424   6.171
    1   AR   Ar   47   1.021   3.796   6.111
    1   AR   Ar   48   0.943   4.601   5.416
    1   AR   Ar   49   0.190   5.216  -0.080
    1   AR   Ar   50   7.081   6.110   0.798
    1   AR   Ar   51   0.980   5.392   1.009
    1   AR   Ar   52   0.794   6.018  -0.014
    1   AR   Ar   53   7.054   5.395   1.901
    1   AR   Ar   54   7.097   6.293   2.661
    1   AR   Ar   55   0.820   5.409   2.719
    1   AR   Ar   56   0.730   6.204   1.909
    1   AR   Ar   57   0.109   5.417   3.628
    1   AR   Ar   58   0.125   6.317   4.246
    1   AR   Ar   59   0.749   5.144   4.356
    1   AR   Ar   60   0.969   6.246   3.559
    1   AR   Ar   61   7.008   5.439   5.320
    1   AR   Ar   62   0.052   6.207   6.266
    1   AR   Ar   63   1.134   5.490   6.093
    1   AR   Ar   64   0.907   6.388   5.471
    1   AR   Ar   65   1.581   6.867  -0.051
    1   AR   Ar   66   1.666   0.879   1.078
    1   AR   Ar   67   2.624   6.879   0.645
    1   AR   Ar   68   2.657   0.838   0.081
    1   AR   Ar   69   1.584   0.007   1.964
    1   AR   Ar   70   1.599   1.017   2.631
    1   AR   Ar   71   2.684   7.076   2.607
    1   AR   Ar   72   2.556   1.024   1.696
    1   AR   Ar   73   1.830   0.053   3.556
    1   AR   Ar   74   1.683   0.720   4.508
    1   AR   Ar   75   2.754   7.086   4.462
    1   AR   Ar   76   2.539   1.005   3.517
    1   AR   Ar   77   1.783   0.045   5.434
    1   AR   Ar   78   1.902   0.851   6.291
    1   AR   Ar   79   2.667   0.068   6.077
    1   AR   Ar   80   2.939   0.919   5.480
    1   AR   Ar   81   1.780   1.812  -0.129
    1   AR   Ar   82   1.543   2.816   1.098
    1   AR   Ar   83   2.748   1.620   0.851
    1   AR   Ar   84   2.649   2.740  -0.214
    1   AR   Ar   85   1.549   1.987   1.786
    1   AR   Ar   86   1.852   2.767   2.846
    1   AR   Ar   87   2.604   1.680   2.746
    1   AR   Ar   88   2.628   2.617   1.839
    1   AR   Ar   89   1.677   1.600   3.601
    1   AR   Ar   90   1.843   2.808   4.571
    1   AR   Ar   91   2.542   1.637   4.455
    1   AR   Ar   92   2.630   2.701   3.491
    1   AR   Ar   93   1.659   1.818   5.420
    1   AR   Ar   94   1.946   2.512   6.063
    1   AR   Ar   95   2.621   1.733   6.114
    1   AR   Ar   96   2.673   2.542   5.351
    1   AR   Ar   97   1.599   3.343  -0.074
    1   AR   Ar   98   1.686   4.320   0.937
    1   AR   Ar   99   2.701   3.465   0.888
    1   AR   Ar  100   2.559   4.650   0.035
    1   AR   Ar  101   1.760   3.607   1.869
    1   AR   Ar  102   1.666   4.411   2.599
    1   AR   Ar  103   2.470   3.749   2.717
    1   AR   Ar  104   2.907   4.622   1.861
    1   AR   Ar  105   1.780   3.444   3.520
    1   AR   Ar  106   1.615   4.620   4.523
    1   AR   Ar  107   2.680   3.718   4.379
    1   AR   Ar  108   2.806   4.567   3.382
    1   AR   Ar  109   1.750   3.613   5.298
    1   AR   Ar  110   1.740   4.523   6.386
    1   AR   Ar  111   2.458   3.696   6.068
    1   AR   Ar  112   2.898   4.416   5.336
    1   AR   Ar  113   1.786   5.342   0.075
    1   AR   Ar  114   1.642   6.250   0.974
    1   AR   Ar  115   2.609   5.465   0.942
    1   AR   Ar  116   2.805   6.122  -0.183
    1   AR   Ar  117   2.020   5.143   1.821
    1   AR   Ar  118   1.775   6.109   2.635
    1   AR   Ar  119   2.630   5.342   2.708
    1   AR   Ar  120   2.550   6.336   1.895
    1   AR   Ar  121   1.951   5.465   3.488
    1   AR   Ar  122   1.802   6.240   4.552
    1   AR   Ar  123   2.611   5.032   4.484
    1   AR   Ar  124   2.633   6.275   3.323
    1   AR   Ar  125   1.844   5.193   5.288
    1   AR   Ar  126   1.756   6.396   6.151
    1   AR   Ar  127   2.495   5.363   6.048
    1   AR   Ar  128   2.457   6.316   5.390
    1   AR   Ar  129   3.511   7.012   0.155
    1   AR   Ar  130   3.813   1.051   0.933
    1   AR   Ar  131   4.277   6.974   1.129
    1   AR   Ar  132   4.637   1.042  -0.317
    1   AR   Ar  133   3.338   7.049   1.810
    1   AR   Ar  134   3.309   0.899   2.539
    1   AR   Ar  135   4.356   0.216   2.649
    1   AR   Ar  136   4.174   1.045   1.855
    1   AR   Ar  137   3.511   7.027   3.408
    1   AR   Ar  138   3.538   0.929   4.497
    1   AR   Ar  139   4.247   0.137   4.459
    1   AR   Ar  140   4.404   1.032   3.686
    1   AR   Ar  141   3.531   0.027   5.403
    1   AR   Ar  142   3.713   0.747   6.278
    1   AR   Ar  143   4.669   0.085   6.155
    1   AR   Ar  144   4.343   0.665   5.376
    1   AR   Ar  145   3.517   1.596   0.136
    1   AR   Ar  146   3.412   2.621   0.979
    1   AR   Ar  147   4.373   2.000   1.153
    1   AR   Ar  148   4.493   2.771   0.038
    1   AR   Ar  149   3.385   1.775   1.708
    1   AR   Ar  150   3.645   2.593   2.705
    1   AR   Ar  151   4.431   1.723   2.566
    1   AR   Ar  152   4.386   2.627   2.024
    1   AR   Ar  153   3.617   1.867   3.503
    1   AR   Ar  154   3.681   2.814   4.354
    1   AR   Ar  155   4.344   1.657   4.561
    1   AR   Ar  156   4.553   2.687   3.768
    1   AR   Ar  157   3.516   1.925   5.360
    1   AR   Ar  158   3.505   2.568   6.157
    1   AR   Ar  159   4.391   1.972   6.305
    1   AR   Ar  160   4.362   2.549   5.138
    1   AR   Ar  161   3.595   3.730  -0.006
    1   AR   Ar  162   3.539   4.599   0.690
    1   AR   Ar  163   4.491   3.775   1.043
    1   AR   Ar  164   4.471   4.566   0.020
    1   AR   Ar  165   3.567   3.714   1.602
    1   AR   Ar  166   3.679   4.441   2.669
    1   AR   Ar  167   4.346   3.624   2.811
    1   AR   Ar  168   4.384   4.326   1.921
    1   AR   Ar  169   3.439   3.569   3.328
    1   AR   Ar  170   3.527   4.477   4.456
    1   AR   Ar  171   4.375   3.706   4.432
    1   AR   Ar  172   4.397   4.403   3.527
    1   AR   Ar  173   3.590   3.608   5.465
    1   AR   Ar  174   3.832   4.346   6.268
    1   AR   Ar  175   4.573   3.545   6.079
    1   AR   Ar  176   4.425   4.457   5.085
    1   AR   Ar  177   3.599   5.488   0.098
    1   AR   Ar  178   3.475   6.211   0.821
    1   AR   Ar  179   4.340   5.337   0.995
    1   AR   Ar  180   4.395   6.322   0.076
    1   AR   Ar  181   3.760   5.268   1.933
    1   AR   Ar  182   3.492   6.177   2.767
    1   AR   Ar  183   4.405   5.166   2.730
    1   AR   Ar  184   4.504   6.079   1.705
    1   AR   Ar  185   3.442   5.355   3.665
    1   AR   Ar  186   3.720   6.318   4.428
    1   AR   Ar  187   4.572   5.437   4.323
    1   AR   Ar  188   4.424   6.074   3.531
    1   AR   Ar  189   3.604   5.408   5.483
    1   AR   Ar  190   3.537   6.285   6.000
    1   AR   Ar  191   4.502   5.509   5.981
    1   AR   Ar  192   4.453   6.403   5.326
    1   AR   Ar  193   5.310   7.097   0.302
    1   AR   Ar  194   5.109   0.825   1.005
    1   AR   Ar  195   6.046   0.006   0.901
    1   AR   Ar  196   6.387   0.797   0.123
    1   AR   Ar  197   5.204   7.092   1.843
    1   AR   Ar  198   5.285   0.972   2.627
    1   AR   Ar  199   6.398   0.055   2.412
    1   AR   Ar  200   5.963   0.923   1.747
    1   AR   Ar  201   5.266   6.992   3.653
    1   AR   Ar  202   5.105   0.686   4.579
    1   AR   Ar  203   6.331   7.073   4.593
    1   AR   Ar  204   6.355   1.035   3.287
    1   AR   Ar  205   5.460   7.078   5.479
    1   AR   Ar  206   5.488   0.810   6.276
    1   AR   Ar  207   6.184   0.033   6.229
    1   AR   Ar  208   6.307   0.797   5.508
    1   AR   Ar  209   5.337   1.869  -0.086
    1   AR   Ar  210   5.485   2.526   0.702
    1   AR   Ar  211   6.242   1.749   0.630
    1   AR   Ar  212   6.432   2.742   0.259
    1   AR   Ar  213   5.439   1.808   2.057
    1   AR   Ar  214   5.344   2.604   2.815
    1   AR   Ar  215   6.302   1.780   2.615
    1   AR   Ar  216   6.439   2.511   1.654
    1   AR   Ar  217   5.365   1.780   3.417
    1   AR   Ar  218   5.438   2.761   4.349
    1   AR   Ar  219   6.170   1.610   4.488
    1   AR   Ar  220   6.312   2.768   3.685
    1   AR   Ar  221   5.499   2.046   5.191
    1   AR   Ar  222   5.198   2.486   5.972
    1   AR   Ar  223   6.174   1.560   6.173
    1   AR   Ar  224   6.381   2.822   5.420
    1   AR   Ar  225   5.437   3.379   0.071
    1   AR   Ar  226   5.236   4.504   1.090
    1   AR   Ar  227   6.121   3.807   0.706
    1   AR   Ar  228   6.158   4.537  -0.059
    1   AR   Ar  229   5.260   3.622   1.695
    1   AR   Ar  230   5.314   4.225   2.504
    1   AR   Ar  231   6.184   3.555   2.597
    1   AR   Ar  232   6.040   4.303   1.681
    1   AR   Ar  233   5.192   3.606   3.719
    1   AR   Ar  234   5.510   4.222   4.622
    1   AR   Ar  235   6.448   3.603   4.284
    1   AR   Ar  236   6.441   4.440   3.736
    1   AR   Ar  237   5.476   3.475   5.305
    1   AR   Ar  238   5.128   4.450   6.302
    1   AR   Ar  239   5.942   3.353   6.240
    1   AR   Ar  240   6.255   4.456   5.302
    1   AR   Ar  241   5.327   5.392   0.268
    1   AR   Ar  242   5.221   6.163   0.907
    1   AR   Ar  243   6.263   5.252   0.711
    1   AR   Ar  244   6.230   6.173   0.152
    1   AR   Ar  245   5.494   5.297   1.710
    1   AR   Ar  246   5.134   6.226   2.594
    1   AR   Ar  247   6.059   5.093   2.800
    1   AR   Ar  248   6.313   6.385   1.621
    1   AR   Ar  249   5.280   5.425   3.407
    1   AR   Ar  250   5.499   6.017   4.498
    1   AR   Ar  251   6.421   5.503   4.513
    1   AR   Ar  252   6.132   6.395   3.713
    1   AR   Ar  253   5.182   5.148   5.216
    1   AR   Ar  254   5.574   6.062   5.987
    1   AR   Ar  255   6.150   5.166   6.342
    1   AR   Ar  256   6.394   6.302   5.263
    7.12000  7.12000 12.00000
Argon-slab step 45
  256
    1   AR   Ar    1   7.029   0.043  -0.048
    1   AR   Ar    2   0.092   0.775   1.004
    1   AR   Ar    3   0.825   6.926   0.944
    1   AR   Ar    4   0.879   0.586   0.165
    1   AR   Ar    5   0.030   0.024   1.770
    1   AR   Ar    6   0.289   0.841   2.785
    1   AR   Ar    7   0.839   7.119   2.696
    1   AR   Ar    8   0.786   0.950   1.839
    1   AR   Ar    9   6.919   0.211   3.653
    1   AR   Ar   10   0.044   0.803   4.499
    1   AR   Ar   11   0.820   7.033   4.593
    1   AR   Ar   12   1.023   0.731   3.587
    1   AR   Ar   13   0.061   0.016   5.300
    1   AR   Ar   14   0.183   0.899   5.919
    1   AR   Ar   15   0.929   0.105   6.215
    1   AR   Ar   16   1.082   1.012   5.362
    1   AR   Ar   17   0.196   1.533  -0.181
    1   AR   Ar   18   0.140   2.856   0.853
    1   AR   Ar   19   0.932   1.870   0.941
    1   AR   Ar   20   0.824   2.473   0.067
    1   AR   Ar   21   7.118   1.750   1.741
    1   AR   Ar   22   0.065   2.456   2.477
    1   AR   Ar   23   0.879   1.679   2.620
    1   AR   Ar   24   0.720   2.886   1.693
    1   AR   Ar   25   0.049   1.743   3.606
    1   AR   Ar   26   0.112   2.702   4.465
    1   AR   Ar   27   0.657   1.645   4.535
    1   AR   Ar   28   1.054   2.490   3.618
    1   AR   Ar   29   6.974   1.861   5.354
    1   AR   Ar   30   0.257   2.884   6.135
    1   AR   Ar   31   1.161   1.600   6.364
    1   AR   Ar   32   0.942   2.618   5.220
    1   AR   Ar   33   7.074   3.636  -0.050
    1   AR   Ar   34   6.997   4.497   0.801
    1   AR   Ar   35   0.862   3.677   0.719
    1   AR   Ar   36   0.982   4.544  -0.063
    1   AR   Ar   37   0.245   3.784   1.656
    1   AR   Ar   38   7.036   4.445   2.720
    1   AR   Ar   39   0.882   3.676   2.803
    1   AR   Ar   40   0.851   4.665   1.903
    1   AR   Ar   41   0.075   3.420   3.518
    1   AR   Ar   42   7.025   4.437   4.681
    1   AR   Ar   43   0.985   3.495   4.335
    1   AR   Ar   44   0.828   4.351   3.577
    1   AR   Ar   45   0.086   3.679   5.274
    1   AR   Ar   46   7.002   4.406   6.138
    1   AR   Ar   47   1.028   3.821   6.089
    1   AR   Ar   48   0.938   4.604   5.415
    1   AR   Ar   49   0.184   5.203  -0.077
    1   AR   Ar   50   7.092   6.105   0.809
    1   AR   Ar   51   0.987   5.395   1.022
    1   AR   Ar   52   0.781   5.998  -0.001
    1   AR   Ar   53   7.060   5.378   1.921
    1   AR   Ar   54   7.088   6.312   2.660
    1   AR   Ar   55   0.799   5.434   2.718
    1   AR   Ar   56   0.718   6.204   1.918
    1   AR   Ar   57   0.068   5.426   3.635
    1   AR   Ar   58   0.096   6.290   4.199
    1   AR   Ar   59   0.735   5.165   4.375
    1   AR   Ar   60   0.956   6.218   3.557
    1   AR   Ar   61   7.023   5.438   5.345
    1   AR   Ar   62   0.061   6.201   6.260
    1   AR   Ar   63   1.161   5.503   6.069
    1   AR   Ar   64   0.906   6.409   5.481
    1   AR   Ar   65   1.554   6.814  -0.044
    1   AR   Ar   66   1.652   0.860   1.102
    1   AR   Ar   67   2.591   6.844   0.631
    1   AR   Ar   68   2.635   0.814   0.080
    1   AR   Ar   69   1.581   0.007   1.966
    1   AR   Ar   70   1.590   1.019   2.626
    1   AR   Ar   71   2.679   7.091   2.619
    1   AR   Ar   72   2.540   1.024   1.711
    1   AR   Ar   73   1.834   0.050   3.554
    1   AR   Ar   74   1.687   0.694   4.493
    1   AR   Ar   75   2.755   7.080   4.476
    1   AR   Ar   76   2.530   0.990   3.528
    1   AR   Ar   77   1.777   0.058   5.438
    1   AR   Ar   78   1.928   0.839   6.281
    1   AR   Ar   79   2.660   0.048   6.073
    1   AR   Ar   80   2.974   0.940   5.478
    1   AR   Ar   81   1.811   1.841  -0.116
    1   AR   Ar   82   1.530   2.836   1.103
    1   AR   Ar   83   2.729   1.604   0.800
    1   AR   Ar   84   2.639   2.737  -0.224
    1   AR   Ar   85   1.526   2.006   1.799
    1   AR   Ar   86   1.850   2.755   2.828
    1   AR   Ar   87   2.591   1.694   2.734
    1   AR   Ar   88   2.610   2.623   1.870
    1   AR   Ar   89   1.659   1.588   3.607
    1   AR   Ar   90   1.856   2.823   4.585
    1   AR   Ar   91   2.513   1.618   4.466
    1   AR   Ar   92   2.625   2.706   3.491
    1   AR   Ar   93   1.685   1.783   5.424
    1   AR   Ar   94   1.940   2.528   6.078
    1   AR   Ar   95   2.637   1.700   6.096
    1   AR   Ar   96   2.685   2.541   5.323
    1   AR   Ar   97   1.583   3.322  -0.072
    1   AR   Ar   98   1.712   4.322   0.937
    1   AR   Ar   99   2.685   3.433   0.878
    1   AR   Ar  100   2.561   4.671   0.052
    1   AR   Ar  101   1.746   3.612   1.910
    1   AR   Ar  102   1.649   4.418   2.589
    1   AR   Ar  103   2.449   3.751   2.690
    1   AR   Ar  104   2.896   4.626   1.857
    1   AR   Ar  105   1.773   3.425   3.533
    1   AR   Ar  106   1.592   4.604   4.506
    1   AR   Ar  107   2.666   3.751   4.344
    1   AR   Ar  108   2.803   4.546   3.371
    1   AR   Ar  109   1.783   3.628   5.318
    1   AR   Ar  110   1.738   4.539   6.392
    1   AR   Ar  111   2.436   3.709   6.042
    1   AR   Ar  112   2.908   4.424   5.365
    1   AR   Ar  113   1.795   5.352   0.039
    1   AR   Ar  114   1.634   6.249   0.985
    1   AR   Ar  115   2.605   5.481   0.944
    1   AR   Ar  116   2.795   6.131  -0.198
    1   AR   Ar  117   2.028   5.129   1.826
    1   AR   Ar  118   1.734   6.133   2.636
    1   AR   Ar  119   2.641   5.352   2.684
    1   AR   Ar  120   2.529   6.326   1.893
    1   AR   Ar  121   1.955   5.473   3.502
    1   AR   Ar  122   1.814   6.243   4.559
    1   AR   Ar  123   2.622   4.995   4.471
    1   AR   Ar  124   2.609   6.269   3.317
    1   AR   Ar  125   1.829   5.192   5.274
    1   AR   Ar  126   1.762   6.430   6.144
    1   AR   Ar  127   2.515   5.358   6.080
    1   AR   Ar  128   2.444   6.323   5.391
    1   AR   Ar  129   3.528   7.011   0.161
    1   AR   Ar  130   3.837   1.058   0.932
    1   AR   Ar  131   4.298   6.970   1.158
    1   AR   Ar  132   4.664   1.065  -0.359
    1   AR   Ar  133   3.320   7.057   1.807
    1   AR   Ar  134   3.281   0.886   2.521
    1   AR   Ar  135   4.350   0.242   2.638
    1   AR   Ar  136   4.149   1.040   1.861
    1   AR   Ar  137   3.517   7.027   3.392
    1   AR   Ar  138   3.517   0.957   4.493
    1   AR   Ar  139   4.215   0.125   4.451
    1   AR   Ar  140   4.389   1.059   3.698
    1   AR   Ar  141   3.493   0.078   5.393
    1   AR   Ar  142   3.724   0.747   6.270
    1   AR   Ar  143   4.679   0.081   6.169
    1   AR   Ar  144   4.330   0.661   5.365
    1   AR   Ar  145   3.514   1.583   0.143
    1   AR   Ar  146   3.445   2.642   0.964
    1   AR   Ar  147   4.370   2.019   1.174
    1   AR   Ar  148   4.506   2.785   0.049
    1   AR   Ar  149   3.396   1.764   1.733
    1   AR   Ar  150   3.604   2.546   2.713
    1   AR   Ar  151   4.434   1.732   2.585
    1   AR   Ar  152   4.398   2.630   2.033
    1   AR   Ar  153   3.583   1.855   3.499
    1   AR   Ar  154   3.655   2.837   4.358
    1   AR   Ar  155   4.328   1.611   4.559
    1   AR   Ar  156   4.589   2.701   3.759
    1   AR   Ar  157   3.534   1.919   5.355
    1   AR   Ar  158   3.498   2.566   6.154
    1   AR   Ar  159   4.436   1.967   6.316
    1   AR   Ar  160   4.365   2.567   5.143
    1   AR   Ar  161   3.585   3.762   0.012
    1   AR   Ar  162   3.535   4.615   0.674
    1   AR   Ar  163   4.469   3.793   1.030
    1   AR   Ar  164   4.496   4.585   0.037
    1   AR   Ar  165   3.577   3.745   1.561
    1   AR   Ar  166   3.698   4.427   2.667
    1   AR   Ar  167   4.352   3.590   2.800
    1   AR   Ar  168   4.391   4.320   1.932
    1   AR   Ar  169   3.441   3.540   3.310
    1   AR   Ar  170   3.545   4.488   4.507
    1   AR   Ar  171   4.338   3.721   4.434
    1   AR   Ar  172   4.412   4.399   3.505
    1   AR   Ar  173   3.612   3.628   5.457
    1   AR   Ar  174   3.866   4.337   6.260
    1   AR   Ar  175   4.588   3.535   6.047
    1   AR   Ar  176   4.397   4.445   5.064
    1   AR   Ar  177   3.632   5.474   0.115
    1   AR   Ar  178   3.468   6.206   0.837
    1   AR   Ar  179   4.301   5.322   1.010
    1   AR   Ar  180   4.397   6.324   0.082
    1   AR   Ar  181   3.776   5.271   1.946
    1   AR   Ar  182   3.501   6.160   2.759
    1   AR   Ar  183   4.428   5.165   2.750
    1   AR   Ar  184   4.486   6.065   1.735
    1   AR   Ar  185   3.452   5.384   3.680
    1   AR   Ar  186   3.696   6.382   4.417
    1   AR   Ar  187   4.584   5.433   4.324
    1   AR   Ar  188   4.412   6.072   3.510
    1   AR   Ar  189   3.579   5.393   5.465
    1   AR   Ar  190   3.529   6.277   5.999
    1   AR   Ar  191   4.524   5.479   5.969
    1   AR   Ar  192   4.450   6.426   5.310
    1   AR   Ar  193   5.266   7.091   0.314
    1   AR   Ar  194   5.079   0.816   1.023
    1   AR   Ar  195   6.035   0.009   0.931
    1   AR   Ar  196   6.372   0.789   0.122
    1   AR   Ar  197   5.172   7.105   1.868
    1   AR   Ar  198   5.257   0.975   2.615
    1   AR   Ar  199   6.396   0.066   2.402
    1   AR   Ar  200   5.936   0.922   1.741
    1   AR   Ar  201   5.242   7.022   3.650
    1   AR   Ar  202   5.096   0.674   4.597
    1   AR   Ar  203   6.326   7.078   4.586
    1   AR   Ar  204   6.347   1.033   3.258
    1   AR   Ar  205   5.477   7.073   5.437
    1   AR   Ar  206   5.482   0.817   6.291
    1   AR   Ar  207   6.214   0.015   6.245
    1   AR   Ar  208   6.320   0.780   5.497
    1   AR   Ar  209   5.346   1.871  -0.094
    1   AR   Ar  210   5.476   2.510   0.696
    1   AR   Ar  211   6.247   1.734   0.608
    1   AR   Ar  212   6.418   2.779   0.268
    1   AR   Ar  213   5.463   1.824   2.102
    1   AR   Ar  214   5.340   2.630   2.822
    1   AR   Ar  215   6.321   1.748   2.626
    1   AR   Ar  216   6.451   2.491   1.639
    1   AR   Ar  217   5.369   1.759   3.419
    1   AR   Ar  218   5.454   2.771   4.345
    1   AR   Ar  219   6.192   1.578   4.464
    1   AR   Ar  220   6.316   2.760   3.689
    1   AR   Ar  221   5.506   2.066   5.162
    1   AR   Ar  222   5.191   2.508   5.963
    1   AR   Ar  223   6.182   1.566   6.165
    1   AR   Ar  224   6.402   2.835   5.420
    1   AR   Ar  225   5.453   3.378   0.075
    1   AR   Ar  226   5.202   4.526   1.091
    1   AR   Ar  227   6.115   3.834   0.694
    1   AR   Ar  228   6.151   4.548  -0.061
    1   AR   Ar  229   5.261   3.598   1.695
    1   AR   Ar  230   5.307   4.214   2.503
    1   AR   Ar  231   6.186   3.576   2.560
    1   AR   Ar  232   6.045   4.294   1.689
    1   AR   Ar  233   5.186   3.612   3.724
    1   AR   Ar  234   5.518   4.208   4.610
    1   AR   Ar  235   6.457   3.622   4.279
    1   AR   Ar  236   6.467   4.462   3.739
    1   AR   Ar  237   5.486   3.445   5.311
    1   AR   Ar  238   5.107   4.462   6.295
    1   AR   Ar  239   5.906   3.333   6.242
    1   AR   Ar  240   6.267   4.456   5.313
    1   AR   Ar  241   5.321   5.386   0.301
    1   AR   Ar  242   5.228   6.173   0.892
    1   AR   Ar  243   6.242   5.262   0.683
    1   AR   Ar  244   6.222   6.170   0.176
    1   AR   Ar  245   5.510   5.278   1.738
    1   AR   Ar  246   5.131   6.253   2.589
    1   AR   Ar  247   6.045   5.058   2.809
    1   AR   Ar  248   6.324   6.398   1.603
    1   AR   Ar  249   5.293   5.450   3.394
    1   AR   Ar  250   5.514   5.995   4.482
    1   AR   Ar  251   6.436   5.494   4.498
    1   AR   Ar  252   6.148   6.402   3.729
    1   AR   Ar  253   5.194   5.150   5.205
    1   AR   Ar  254   5.602   6.042   5.947
    1   AR   Ar  255   6.145   5.161   6.353
    1   AR   Ar  256   6.407   6.309   5.268
    7.12000  7.12000 12.00000
Argon-slab step 50
  256
    1   AR   Ar    1   7.017   0.044  -0.024
    1   AR   Ar    2   0.071   0.771   1.041
    1   AR   Ar    3   0.809   6.922   0.958
    1   AR   Ar    4   0.882   0.580   0.157
    1   AR   Ar    5   0.054   7.116   1.753
    1   AR   Ar    6   0.302   0.813   2.783
    1   AR   Ar    7   0.817   7.110   2.718
    1   AR   Ar    8   0.780   0.954   1.840
    1   AR   Ar    9   6.903   0.214   3.650
    1   AR   Ar   10   0.073   0.805   4.488
    1   AR   Ar   11   0.821   7.049   4.616
    1   AR   Ar   12   1.025   0.714   3.594
    1   AR   Ar   13   0.089   0.016   5.317
    1   AR   Ar   14   0.205   0.904   5.881
    1   AR   Ar   15   0.933   0.115   6.201
    1   AR   Ar   16   1.069   0.979   5.394
    1   AR   Ar   17   0.217   1.505  -0.185
    1   AR   Ar   18   0.148   2.880   0.842
    1   AR   Ar   19   0.927   1.877   0.945
    1   AR   Ar   20   0.809   2.417   0.079
    1   AR   Ar   21   0.007   1.721   1.729
    1   AR   Ar   22   0.073   2.459   2.484
    1   AR   Ar   23   0.879   1.684   2.609
    1   AR   Ar   24   0.703   2.900   1.702
    1   AR   Ar   25   0.068   1.771   3.643
    1   AR   Ar   26   0.108   2.682   4.484
    1   AR   Ar   27   0.634   1.651   4.528
    1   AR   Ar   28   1.067   2.465   3.628
    1   AR   Ar   29   6.959   1.870   5.360
    1   AR   Ar   30   0.285   2.909   6.110
    1   AR   Ar   31   1.188   1.582   6.367
    1   AR   Ar   32   0.918   2.651   5.195
    1   AR   Ar   33   7.084   3.651  -0.048
    1   AR   Ar   34   7.008   4.479   0.794
    1   AR   Ar   35   0.867   3.664   0.711
    1   AR   Ar   36   1.010   4.537  -0.054
    1   AR   Ar   37   0.257   3.826   1.643
    1   AR   Ar   38   7.031   4.445   2.725
    1   AR   Ar   39   0.882   3.680   2.807
    1   AR   Ar   40   0.848   4.689   1.914
    1   AR   Ar   41   0.094   3.410   3.508
    1   AR   Ar   42   7.030   4.477   4.671
    1   AR   Ar   43   1.002   3.491   4.312
    1   AR   Ar   44   0.826   4.316   3.573
    1   AR   Ar   45   0.098   3.666   5.292
    1   AR   Ar   46   6.983   4.389   6.103
    1   AR   Ar   47   1.033   3.841   6.068
    1   AR   Ar   48   0.930   4.609   5.410
    1   AR   Ar   49   0.168   5.185  -0.072
    1   AR   Ar   50   7.105   6.099   0.821
    1   AR   Ar   51   0.992   5.396   1.035
    1   AR   Ar   52   0.775   5.986   0.015
    1   AR   Ar   53   7.081   5.354   1.945
    1   AR   Ar   54   7.077   6.332   2.662
    1   AR   Ar   55   0.778   5.458   2.719
    1   AR   Ar   56   0.709   6.205   1.924
    1   AR   Ar   57   0.037   5.424   3.645
    1   AR   Ar   58   0.064   6.267   4.157
    1   AR   Ar   59   0.719   5.189   4.399
    1   AR   Ar   60   0.945   6.190   3.553
    1   AR   Ar   61   7.043   5.434   5.374
    1   AR   Ar   62   0.071   6.196   6.250
    1   AR   Ar   63   1.187   5.515   6.045
    1   AR   Ar   64   0.904   6.428   5.490
    1   AR   Ar   65   1.528   6.761  -0.035
    1   AR   Ar   66   1.636   0.841   1.126
    1   AR   Ar   67   2.555   6.810   0.619
    1   AR   Ar   68   2.613   0.787   0.080
    1   AR   Ar   69   1.570   0.012   1.949
    1   AR   Ar   70   1.594   1.009   2.621
    1   AR   Ar   71   2.670   7.109   2.636
    1   AR   Ar   72   2.523   1.023   1.728
    1   AR   Ar   73   1.841   0.045   3.551
    1   AR   Ar   74   1.673   0.676   4.497
    1   AR   Ar   75   2.756   7.075   4.490
    1   AR   Ar   76   2.522   0.969   3.539
    1   AR   Ar   77   1.767   0.076   5.435
    1   AR   Ar   78   1.954   0.827   6.268
    1   AR   Ar   79   2.654   0.028   6.071
    1   AR   Ar   80   3.004   0.965   5.473
    1   AR   Ar   81   1.841   1.870  -0.101
    1   AR   Ar   82   1.524   2.858   1.101
    1   AR   Ar   83   2.716   1.591   0.775
    1   AR   Ar   84   2.618   2.713  -0.219
    1   AR   Ar   85   1.506   2.024   1.816
    1   AR   Ar   86   1.844   2.732   2.794
    1   AR   Ar   87   2.577   1.713   2.721
    1   AR   Ar   88   2.592   2.630   1.901
    1   AR   Ar   89   1.641   1.574   3.618
    1   AR   Ar   90   1.871   2.836   4.597
    1   AR   Ar   91   2.483   1.600   4.478
    1   AR   Ar   92   2.627   2.710   3.496
    1   AR   Ar   93   1.720   1.754   5.423
    1   AR   Ar   94   1.937   2.544   6.093
    1   AR   Ar   95   2.653   1.670   6.080
    1   AR   Ar   96   2.695   2.542   5.293
    1   AR   Ar   97   1.582   3.323  -0.090
    1   AR   Ar   98   1.740   4.326   0.938
    1   AR   Ar   99   2.667   3.402   0.868
    1   AR   Ar  100   2.569   4.688   0.072
    1   AR   Ar  101   1.728   3.614   1.946
    1   AR   Ar  102   1.631   4.431   2.583
    1   AR   Ar  103   2.435   3.751   2.666
    1   AR   Ar  104   2.893   4.625   1.853
    1   AR   Ar  105   1.764   3.417   3.556
    1   AR   Ar  106   1.571   4.578   4.482
    1   AR   Ar  107   2.652   3.784   4.308
    1   AR   Ar  108   2.810   4.548   3.373
    1   AR   Ar  109   1.807   3.643   5.325
    1   AR   Ar  110   1.739   4.559   6.395
    1   AR   Ar  111   2.424   3.723   6.027
    1   AR   Ar  112   2.915   4.434   5.395
    1   AR   Ar  113   1.821   5.371   0.027
    1   AR   Ar  114   1.631   6.249   0.997
    1   AR   Ar  115   2.601   5.498   0.945
    1   AR   Ar  116   2.784   6.139  -0.211
    1   AR   Ar  117   2.025   5.121   1.829
    1   AR   Ar  118   1.692   6.158   2.637
    1   AR   Ar  119   2.656   5.364   2.658
    1   AR   Ar  120   2.506   6.312   1.889
    1   AR   Ar  121   1.955   5.477   3.520
    1   AR   Ar  122   1.808   6.244   4.540
    1   AR   Ar  123   2.631   4.961   4.457
    1   AR   Ar  124   2.586   6.266   3.313
    1   AR   Ar  125   1.818   5.198   5.266
    1   AR   Ar  126   1.765   6.462   6.145
    1   AR   Ar  127   2.536   5.353   6.113
    1   AR   Ar  128   2.439   6.328   5.390
    1   AR   Ar  129   3.547   7.013   0.165
    1   AR   Ar  130   3.858   1.059   0.926
    1   AR   Ar  131   4.330   6.970   1.186
    1   AR   Ar  132   4.691   1.088  -0.399
    1   AR   Ar  133   3.307   7.067   1.800
    1   AR   Ar  134   3.255   0.873   2.504
    1   AR   Ar  135   4.343   0.268   2.626
    1   AR   Ar  136   4.131   1.029   1.875
    1   AR   Ar  137   3.523   7.029   3.378
    1   AR   Ar  138   3.491   0.983   4.489
    1   AR   Ar  139   4.185   0.117   4.441
    1   AR   Ar  140   4.376   1.083   3.704
    1   AR   Ar  141   3.456   0.119   5.379
    1   AR   Ar  142   3.730   0.760   6.260
    1   AR   Ar  143   4.688   0.074   6.185
    1   AR   Ar  144   4.321   0.665   5.352
    1   AR   Ar  145   3.512   1.576   0.141
    1   AR   Ar  146   3.459   2.652   0.945
    1   AR   Ar  147   4.373   2.032   1.176
    1   AR   Ar  148   4.518   2.796   0.064
    1   AR   Ar  149   3.406   1.756   1.758
    1   AR   Ar  150   3.560   2.503   2.722
    1   AR   Ar  151   4.437   1.743   2.610
    1   AR   Ar  152   4.413   2.638   2.041
    1   AR   Ar  153   3.558   1.845   3.503
    1   AR   Ar  154   3.627   2.860   4.362
    1   AR   Ar  155   4.315   1.570   4.562
    1   AR   Ar  156   4.621   2.714   3.747
    1   AR   Ar  157   3.553   1.905   5.346
    1   AR   Ar  158   3.491   2.568   6.152
    1   AR   Ar  159   4.478   1.962   6.333
    1   AR   Ar  160   4.354   2.602   5.164
    1   AR   Ar  161   3.575   3.792   0.032
    1   AR   Ar  162   3.529   4.626   0.665
    1   AR   Ar  163   4.445   3.807   1.008
    1   AR   Ar  164   4.520   4.605   0.056
    1   AR   Ar  165   3.581   3.774   1.522
    1   AR   Ar  166   3.698   4.437   2.639
    1   AR   Ar  167   4.365   3.552   2.785
    1   AR   Ar  168   4.405   4.318   1.941
    1   AR   Ar  169   3.439   3.510   3.295
    1   AR   Ar  170   3.572   4.501   4.532
    1   AR   Ar  171   4.301   3.720   4.425
    1   AR   Ar  172   4.426   4.396   3.488
    1   AR   Ar  173   3.636   3.645   5.447
    1   AR   Ar  174   3.900   4.330   6.249
    1   AR   Ar  175   4.603   3.523   6.013
    1   AR   Ar  176   4.375   4.446   5.059
    1   AR   Ar  177   3.659   5.465   0.128
    1   AR   Ar  178   3.463   6.201   0.858
    1   AR   Ar  179   4.264   5.304   1.020
    1   AR   Ar  180   4.400   6.326   0.091
    1   AR   Ar  181   3.786   5.274   1.957
    1   AR   Ar  182   3.512   6.141   2.748
    1   AR   Ar  183   4.421   5.145   2.726
    1   AR   Ar  184   4.467   6.053   1.767
    1   AR   Ar  185   3.463   5.414   3.696
    1   AR   Ar  186   3.667   6.437   4.406
    1   AR   Ar  187   4.593   5.425   4.327
    1   AR   Ar  188   4.398   6.075   3.485
    1   AR   Ar  189   3.559   5.379   5.433
    1   AR   Ar  190   3.521   6.273   6.001
    1   AR   Ar  191   4.546   5.449   5.959
    1   AR   Ar  192   4.447   6.449   5.292
    1   AR   Ar  193   5.211   7.085   0.319
    1   AR   Ar  194   5.048   0.808   1.043
    1   AR   Ar  195   6.032   0.016   0.967
    1   AR   Ar  196   6.353   0.784   0.122
    1   AR   Ar  197   5.141   7.118   1.891
    1   AR   Ar  198   5.229   0.972   2.606
    1   AR   Ar  199   6.384   0.078   2.401
    1   AR   Ar  200   5.936   0.945   1.738
    1   AR   Ar  201   5.216   7.052   3.648
    1   AR   Ar  202   5.090   0.676   4.607
    1   AR   Ar  203   6.320   7.087   4.576
    1   AR   Ar  204   6.338   1.017   3.242
    1   AR   Ar  205   5.495   7.068   5.392
    1   AR   Ar  206   5.517   0.829   6.299
    1   AR   Ar  207   6.246   7.113   6.260
    1   AR   Ar  208   6.333   0.761   5.480
    1   AR   Ar  209   5.357   1.870  -0.104
    1   AR   Ar  210   5.464   2.496   0.698
    1   AR   Ar  211   6.254   1.720   0.589
    1   AR   Ar  212   6.401   2.817   0.274
    1   AR   Ar  213   5.481   1.847   2.138
    1   AR   Ar  214   5.334   2.656   2.828
    1   AR   Ar  215   6.344   1.736   2.636
    1   AR   Ar  216   6.462   2.484   1.625
    1   AR   Ar  217   5.374   1.736   3.422
    1   AR   Ar  218   5.471   2.782   4.345
    1   AR   Ar  219   6.216   1.546   4.438
    1   AR   Ar  220   6.321   2.747   3.691
    1   AR   Ar  221   5.514   2.071   5.128
    1   AR   Ar  222   5.186   2.544   5.963
    1   AR   Ar  223   6.193   1.580   6.156
    1   AR   Ar  224   6.424   2.847   5.417
    1   AR   Ar  225   5.470   3.378   0.078
    1   AR   Ar  226   5.166   4.550   1.088
    1   AR   Ar  227   6.114   3.859   0.689
    1   AR   Ar  228   6.144   4.559  -0.068
    1   AR   Ar  229   5.262   3.566   1.692
    1   AR   Ar  230   5.305   4.205   2.505
    1   AR   Ar  231   6.189   3.596   2.524
    1   AR   Ar  232   6.051   4.291   1.703
    1   AR   Ar  233   5.181   3.621   3.726
    1   AR   Ar  234   5.523   4.197   4.593
    1   AR   Ar  235   6.466   3.617   4.287
    1   AR   Ar  236   6.493   4.493   3.736
    1   AR   Ar  237   5.492   3.413   5.313
    1   AR   Ar  238   5.086   4.476   6.286
    1   AR   Ar  239   5.871   3.313   6.249
    1   AR   Ar  240   6.271   4.458   5.333
    1   AR   Ar  241   5.307   5.373   0.324
    1   AR   Ar  242   5.224   6.190   0.889
    1   AR   Ar  243   6.227   5.271   0.665
    1   AR   Ar  244   6.211   6.172   0.198
    1   AR   Ar  245   5.525   5.263   1.769
    1   AR   Ar  246   5.129   6.281   2.587
    1   AR   Ar  247   6.035   5.020   2.813
    1   AR   Ar  248   6.336   6.405   1.588
    1   AR   Ar  249   5.303   5.477   3.385
    1   AR   Ar  250   5.475   5.998   4.477
    1   AR   Ar  251   6.451   5.483   4.479
    1   AR   Ar  252   6.166   6.407   3.743
    1   AR   Ar  253   5.214   5.161   5.203
    1   AR   Ar  254   5.627   6.022   5.907
    1   AR   Ar  255   6.141   5.154   6.360
    1   AR   Ar  256   6.420   6.316   5.275
    7.12000  7.12000 12.00000
Argon-slab step 55
  256
    1   AR   Ar    1   7.010   0.037   0.001
    1   AR   Ar    2   0.049   0.769   1.073
    1   AR   Ar    3   0.791   6.920   0.972
    1   AR   Ar    4   0.885   0.575   0.151
    1   AR   Ar    5   0.081   7.094   1.746
    1   AR   Ar    6   0.303   0.797   2.784
    1   AR   Ar    7   0.802   7.087   2.741
    1   AR   Ar    8   0.777   0.955   1.840
    1   AR   Ar    9   6.890   0.214   3.645
    1   AR   Ar   10   0.099   0.803   4.481
    1   AR   Ar   11   0.827   7.065   4.633
    1   AR   Ar   12   1.022   0.696   3.601
    1   AR   Ar   13   0.111   0.015   5.338
    1   AR   Ar   14   0.219   0.911   5.850
    1   AR   Ar   15   0.947   0.112   6.216
    1   AR   Ar   16   1.061   0.939   5.420
    1   AR   Ar   17   0.237   1.475  -0.187
    1   AR   Ar   18   0.154   2.902   0.830
    1   AR   Ar   19   0.919   1.880   0.952
    1   AR   Ar   20   0.805   2.393   0.072
    1   AR   Ar   21   0.020   1.685   1.715
    1   AR   Ar   22   0.080   2.465   2.496
    1   AR   Ar   23   0.870   1.701   2.603
    1   AR   Ar   24   0.687   2.909   1.719
    1   AR   Ar   25   0.085   1.799   3.676
    1   AR   Ar   26   0.102   2.662   4.502
    1   AR   Ar   27   0.618   1.663   4.525
    1   AR   Ar   28   1.078   2.444   3.639
    1   AR   Ar   29   6.945   1.879   5.364
    1   AR   Ar   30   0.312   2.934   6.083
    1   AR   Ar   31   1.213   1.564   6.368
    1   AR   Ar   32   0.896   2.685   5.171
    1   AR   Ar   33   7.093   3.666  -0.044
    1   AR   Ar   34   7.020   4.461   0.786
    1   AR   Ar   35   0.873   3.653   0.703
    1   AR   Ar   36   1.041   4.528  -0.043
    1   AR   Ar   37   0.265   3.872   1.629
    1   AR   Ar   38   7.028   4.445   2.730
    1   AR   Ar   39   0.882   3.677   2.802
    1   AR   Ar   40   0.844   4.713   1.923
    1   AR   Ar   41   0.114   3.400   3.498
    1   AR   Ar   42   7.041   4.522   4.655
    1   AR   Ar   43   1.003   3.490   4.301
    1   AR   Ar   44   0.823   4.290   3.577
    1   AR   Ar   45   0.112   3.648   5.311
    1   AR   Ar   46   6.967   4.372   6.069
    1   AR   Ar   47   1.034   3.853   6.050
    1   AR   Ar   48   0.917   4.618   5.401
    1   AR   Ar   49   0.144   5.162  -0.065
    1   AR   Ar   50   7.119   6.092   0.836
    1   AR   Ar   51   0.995   5.396   1.048
    1   AR   Ar   52   0.755   5.980   0.030
    1   AR   Ar   53   7.095   5.342   1.948
    1   AR   Ar   54   7.066   6.351   2.665
    1   AR   Ar   55   0.757   5.482   2.721
    1   AR   Ar   56   0.703   6.207   1.925
    1   AR   Ar   57   0.025   5.400   3.660
    1   AR   Ar   58   0.031   6.256   4.125
    1   AR   Ar   59   0.704   5.214   4.426
    1   AR   Ar   60   0.936   6.162   3.547
    1   AR   Ar   61   7.066   5.427   5.405
    1   AR   Ar   62   0.080   6.192   6.238
    1   AR   Ar   63   1.211   5.527   6.024
    1   AR   Ar   64   0.902   6.444   5.497
    1   AR   Ar   65   1.503   6.708  -0.023
    1   AR   Ar   66   1.618   0.822   1.149
    1   AR   Ar   67   2.516   6.777   0.610
    1   AR   Ar   68   2.584   0.813   0.122
    1   AR   Ar   69   1.560   0.016   1.930
    1   AR   Ar   70   1.607   0.989   2.616
    1   AR   Ar   71   2.657   0.008   2.656
    1   AR   Ar   72   2.576   1.014   1.700
    1   AR   Ar   73   1.851   0.037   3.547
    1   AR   Ar   74   1.630   0.668   4.532
    1   AR   Ar   75   2.755   7.071   4.504
    1   AR   Ar   76   2.517   0.947   3.551
    1   AR   Ar   77   1.778   0.055   5.434
    1   AR   Ar   78   1.979   0.814   6.252
    1   AR   Ar   79   2.650   0.008   6.070
    1   AR   Ar   80   3.028   0.996   5.462
    1   AR   Ar   81   1.872   1.899  -0.084
    1   AR   Ar   82   1.524   2.880   1.094
    1   AR   Ar   83   2.713   1.573   0.763
    1   AR   Ar   84   2.590   2.683  -0.212
    1   AR   Ar   85   1.489   2.042   1.834
    1   AR   Ar   86   1.836   2.704   2.752
    1   AR   Ar   87   2.591   1.735   2.690
    1   AR   Ar   88   2.573   2.636   1.931
    1   AR   Ar   89   1.627   1.544   3.646
    1   AR   Ar   90   1.885   2.848   4.607
    1   AR   Ar   91   2.453   1.581   4.492
    1   AR   Ar   92   2.633   2.713   3.503
    1   AR   Ar   93   1.761   1.729   5.418
    1   AR   Ar   94   1.954   2.542   6.092
    1   AR   Ar   95   2.667   1.648   6.068
    1   AR   Ar   96   2.704   2.548   5.292
    1   AR   Ar   97   1.591   3.337  -0.120
    1   AR   Ar   98   1.757   4.339   0.919
    1   AR   Ar   99   2.648   3.372   0.859
    1   AR   Ar  100   2.583   4.700   0.094
    1   AR   Ar  101   1.705   3.610   1.974
    1   AR   Ar  102   1.613   4.450   2.583
    1   AR   Ar  103   2.428   3.748   2.646
    1   AR   Ar  104   2.897   4.618   1.849
    1   AR   Ar  105   1.755   3.415   3.583
    1   AR   Ar  106   1.550   4.544   4.452
    1   AR   Ar  107   2.638   3.817   4.273
    1   AR   Ar  108   2.831   4.588   3.393
    1   AR   Ar  109   1.813   3.657   5.311
    1   AR   Ar  110   1.741   4.581   6.396
    1   AR   Ar  111   2.429   3.736   6.031
    1   AR   Ar  112   2.920   4.447   5.426
    1   AR   Ar  113   1.840   5.395   0.018
    1   AR   Ar  114   1.632   6.248   1.010
    1   AR   Ar  115   2.598   5.514   0.945
    1   AR   Ar  116   2.774   6.146  -0.222
    1   AR   Ar  117   2.012   5.118   1.830
    1   AR   Ar  118   1.648   6.183   2.638
    1   AR   Ar  119   2.672   5.378   2.632
    1   AR   Ar  120   2.482   6.295   1.883
    1   AR   Ar  121   1.951   5.476   3.540
    1   AR   Ar  122   1.801   6.246   4.519
    1   AR   Ar  123   2.647   4.981   4.440
    1   AR   Ar  124   2.565   6.267   3.311
    1   AR   Ar  125   1.812   5.207   5.258
    1   AR   Ar  126   1.766   6.490   6.156
    1   AR   Ar  127   2.558   5.349   6.143
    1   AR   Ar  128   2.441   6.330   5.385
    1   AR   Ar  129   3.566   7.017   0.168
    1   AR   Ar  130   3.879   1.055   0.917
    1   AR   Ar  131   4.360   6.971   1.211
    1   AR   Ar  132   4.680   1.080  -0.391
    1   AR   Ar  133   3.298   7.077   1.790
    1   AR   Ar  134   3.233   0.861   2.490
    1   AR   Ar  135   4.314   0.281   2.645
    1   AR   Ar  136   4.121   1.013   1.898
    1   AR   Ar  137   3.529   7.032   3.366
    1   AR   Ar  138   3.459   1.005   4.484
    1   AR   Ar  139   4.164   0.124   4.429
    1   AR   Ar  140   4.363   1.099   3.700
    1   AR   Ar  141   3.426   0.139   5.360
    1   AR   Ar  142   3.735   0.772   6.250
    1   AR   Ar  143   4.697   0.065   6.201
    1   AR   Ar  144   4.315   0.674   5.339
    1   AR   Ar  145   3.513   1.574   0.128
    1   AR   Ar  146   3.474   2.661   0.925
    1   AR   Ar  147   4.377   2.042   1.176
    1   AR   Ar  148   4.521   2.800   0.092
    1   AR   Ar  149   3.411   1.753   1.783
    1   AR   Ar  150   3.514   2.462   2.725
    1   AR   Ar  151   4.440   1.753   2.639
    1   AR   Ar  152   4.430   2.651   2.049
    1   AR   Ar  153   3.563   1.849   3.539
    1   AR   Ar  154   3.597   2.883   4.365
    1   AR   Ar  155   4.308   1.548   4.569
    1   AR   Ar  156   4.648   2.724   3.732
    1   AR   Ar  157   3.574   1.887   5.333
    1   AR   Ar  158   3.483   2.572   6.151
    1   AR   Ar  159   4.512   1.950   6.352
    1   AR   Ar  160   4.345   2.638   5.186
    1   AR   Ar  161   3.565   3.819   0.051
    1   AR   Ar  162   3.521   4.632   0.664
    1   AR   Ar  163   4.444   3.815   0.973
    1   AR   Ar  164   4.544   4.624   0.079
    1   AR   Ar  165   3.575   3.802   1.487
    1   AR   Ar  166   3.685   4.441   2.618
    1   AR   Ar  167   4.381   3.512   2.768
    1   AR   Ar  168   4.425   4.318   1.944
    1   AR   Ar  169   3.434   3.481   3.283
    1   AR   Ar  170   3.603   4.523   4.530
    1   AR   Ar  171   4.265   3.706   4.405
    1   AR   Ar  172   4.439   4.393   3.473
    1   AR   Ar  173   3.661   3.659   5.434
    1   AR   Ar  174   3.931   4.330   6.239
    1   AR   Ar  175   4.618   3.509   5.977
    1   AR   Ar  176   4.369   4.459   5.078
    1   AR   Ar  177   3.660   5.477   0.136
    1   AR   Ar  178   3.459   6.196   0.884
    1   AR   Ar  179   4.233   5.287   1.028
    1   AR   Ar  180   4.404   6.325   0.103
    1   AR   Ar  181   3.786   5.278   1.963
    1   AR   Ar  182   3.525   6.119   2.733
    1   AR   Ar  183   4.402   5.116   2.676
    1   AR   Ar  184   4.451   6.044   1.799
    1   AR   Ar  185   3.474   5.444   3.711
    1   AR   Ar  186   3.627   6.473   4.393
    1   AR   Ar  187   4.596   5.428   4.325
    1   AR   Ar  188   4.381   6.080   3.459
    1   AR   Ar  189   3.550   5.370   5.383
    1   AR   Ar  190   3.513   6.273   6.001
    1   AR   Ar  191   4.567   5.421   5.950
    1   AR   Ar  192   4.444   6.474   5.275
    1   AR   Ar  193   5.153   7.080   0.321
    1   AR   Ar  194   5.016   0.799   1.063
    1   AR   Ar  195   6.031   0.030   1.000
    1   AR   Ar  196   6.329   0.783   0.125
    1   AR   Ar  197   5.112   0.013   1.913
    1   AR   Ar  198   5.199   0.962   2.600
    1   AR   Ar  199   6.367   0.093   2.405
    1   AR   Ar  200   5.954   0.984   1.738
    1   AR   Ar  201   5.189   7.081   3.646
    1   AR   Ar  202   5.087   0.698   4.607
    1   AR   Ar  203   6.314   7.101   4.566
    1   AR   Ar  204   6.327   0.983   3.241
    1   AR   Ar  205   5.513   7.063   5.347
    1   AR   Ar  206   5.558   0.829   6.299
    1   AR   Ar  207   6.279   7.089   6.273
    1   AR   Ar  208   6.345   0.740   5.457
    1   AR   Ar  209   5.367   1.868  -0.118
    1   AR   Ar  210   5.450   2.484   0.708
    1   AR   Ar  211   6.262   1.708   0.573
    1   AR   Ar  212   6.383   2.854   0.278
    1   AR   Ar  213   5.492   1.877   2.165
    1   AR   Ar  214   5.317   2.667   2.830
    1   AR   Ar  215   6.365   1.765   2.672
    1   AR   Ar  216   6.486   2.509   1.624
    1   AR   Ar  217   5.378   1.712   3.425
    1   AR   Ar  218   5.492   2.794   4.347
    1   AR   Ar  219   6.242   1.513   4.412
    1   AR   Ar  220   6.326   2.731   3.689
    1   AR   Ar  221   5.506   2.092   5.108
    1   AR   Ar  222   5.186   2.589   5.964
    1   AR   Ar  223   6.209   1.601   6.146
    1   AR   Ar  224   6.447   2.858   5.412
    1   AR   Ar  225   5.470   3.371   0.072
    1   AR   Ar  226   5.133   4.575   1.082
    1   AR   Ar  227   6.116   3.884   0.693
    1   AR   Ar  228   6.138   4.568  -0.081
    1   AR   Ar  229   5.262   3.530   1.686
    1   AR   Ar  230   5.313   4.196   2.506
    1   AR   Ar  231   6.194   3.613   2.490
    1   AR   Ar  232   6.037   4.304   1.736
    1   AR   Ar  233   5.177   3.631   3.726
    1   AR   Ar  234   5.527   4.188   4.573
    1   AR   Ar  235   6.472   3.608   4.302
    1   AR   Ar  236   6.518   4.528   3.729
    1   AR   Ar  237   5.494   3.381   5.310
    1   AR   Ar  238   5.075   4.481   6.272
    1   AR   Ar  239   5.840   3.296   6.262
    1   AR   Ar  240   6.267   4.460   5.356
    1   AR   Ar  241   5.284   5.352   0.339
    1   AR   Ar  242   5.220   6.214   0.894
    1   AR   Ar  243   6.225   5.277   0.661
    1   AR   Ar  244   6.214   6.163   0.215
    1   AR   Ar  245   5.537   5.249   1.799
    1   AR   Ar  246   5.127   6.307   2.588
    1   AR   Ar  247   6.029   4.980   2.813
    1   AR   Ar  248   6.349   6.406   1.578
    1   AR   Ar  249   5.311   5.506   3.379
    1   AR   Ar  250   5.437   6.004   4.475
    1   AR   Ar  251   6.465   5.470   4.458
    1   AR   Ar  252   6.186   6.412   3.755
    1   AR   Ar  253   5.251   5.205   5.237
    1   AR   Ar  254   5.649   6.003   5.866
    1   AR   Ar  255   6.137   5.146   6.365
    1   AR   Ar  256   6.435   6.322   5.283
    7.12000  7.12000 12.00000
Argon-slab step 60
  256
    1   AR   Ar    1   7.009   0.024   0.029
    1   AR   Ar    2   0.026   0.769   1.100
    1   AR   Ar    3   0.774   6.918   0.985
    1   AR   Ar    4   0.887   0.570   0.146
    1   AR   Ar    5   0.100   7.102   1.780
    1   AR   Ar    6   0.291   0.793   2.787
    1   AR   Ar    7   0.795   7.050   2.763
    1   AR   Ar    8   0.778   0.953   1.838
    1   AR   Ar    9   6.880   0.207   3.639
    1   AR   Ar   10   0.121   0.795   4.475
    1   AR   Ar   11   0.839   7.082   4.641
    1   AR   Ar   12   1.014   0.677   3.609
    1   AR   Ar   13   0.124   0.013   5.362
    1   AR   Ar   14   0.213   0.922   5.831
    1   AR   Ar   15   0.966   0.102   6.249
    1   AR   Ar   16   1.070   0.896   5.435
    1   AR   Ar   17   0.257   1.443  -0.186
    1   AR   Ar   18   0.159   2.923   0.818
    1   AR   Ar   19   0.910   1.879   0.963
    1   AR   Ar   20   0.817   2.415   0.040
    1   AR   Ar   21   0.034   1.649   1.702
    1   AR   Ar   22   0.088   2.471   2.509
    1   AR   Ar   23   0.856   1.724   2.603
    1   AR   Ar   24   0.674   2.916   1.742
    1   AR   Ar   25   0.097   1.828   3.703
    1   AR   Ar   26   0.092   2.643   4.516
    1   AR   Ar   27   0.612   1.681   4.529
    1   AR   Ar   28   1.087   2.427   3.650
    1   AR   Ar   29   6.932   1.886   5.366
    1   AR   Ar   30   0.340   2.958   6.056
    1   AR   Ar   31   1.237   1.548   6.368
    1   AR   Ar   32   0.878   2.719   5.149
    1   AR   Ar   33   7.103   3.683  -0.037
    1   AR   Ar   34   7.035   4.444   0.778
    1   AR   Ar   35   0.879   3.646   0.695
    1   AR   Ar   36   1.073   4.517  -0.030
    1   AR   Ar   37   0.271   3.917   1.616
    1   AR   Ar   38   7.027   4.444   2.733
    1   AR   Ar   39   0.868   3.687   2.788
    1   AR   Ar   40   0.842   4.738   1.931
    1   AR   Ar   41   0.133   3.389   3.490
    1   AR   Ar   42   7.053   4.557   4.642
    1   AR   Ar   43   0.997   3.490   4.296
    1   AR   Ar   44   0.818   4.272   3.589
    1   AR   Ar   45   0.127   3.631   5.325
    1   AR   Ar   46   6.959   4.355   6.041
    1   AR   Ar   47   1.033   3.857   6.036
    1   AR   Ar   48   0.902   4.631   5.386
    1   AR   Ar   49   0.113   5.135  -0.057
    1   AR   Ar   50   0.015   6.085   0.852
    1   AR   Ar   51   0.996   5.394   1.060
    1   AR   Ar   52   0.733   5.977   0.047
    1   AR   Ar   53   7.093   5.350   1.957
    1   AR   Ar   54   7.053   6.370   2.671
    1   AR   Ar   55   0.736   5.503   2.724
    1   AR   Ar   56   0.700   6.211   1.923
    1   AR   Ar   57   0.013   5.364   3.661
    1   AR   Ar   58   0.002   6.259   4.102
    1   AR   Ar   59   0.724   5.223   4.444
    1   AR   Ar   60   0.930   6.136   3.542
    1   AR   Ar   61   7.090   5.418   5.435
    1   AR   Ar   62   0.089   6.189   6.224
    1   AR   Ar   63   1.231   5.541   6.006
    1   AR   Ar   64   0.900   6.455   5.502
    1   AR   Ar   65   1.481   6.659  -0.009
    1   AR   Ar   66   1.600   0.803   1.170
    1   AR   Ar   67   2.478   6.744   0.602
    1   AR   Ar   68   2.553   0.831   0.159
    1   AR   Ar   69   1.550   0.020   1.912
    1   AR   Ar   70   1.626   0.963   2.611
    1   AR   Ar   71   2.638   0.024   2.677
    1   AR   Ar   72   2.625   1.006   1.670
    1   AR   Ar   73   1.862   0.027   3.542
    1   AR   Ar   74   1.591   0.663   4.565
    1   AR   Ar   75   2.751   7.069   4.518
    1   AR   Ar   76   2.500   0.946   3.554
    1   AR   Ar   77   1.799   0.012   5.429
    1   AR   Ar   78   2.002   0.801   6.234
    1   AR   Ar   79   2.649   7.109   6.072
    1   AR   Ar   80   3.044   1.032   5.442
    1   AR   Ar   81   1.900   1.926  -0.065
    1   AR   Ar   82   1.528   2.901   1.084
    1   AR   Ar   83   2.706   1.563   0.761
    1   AR   Ar   84   2.565   2.655  -0.204
    1   AR   Ar   85   1.484   2.039   1.830
    1   AR   Ar   86   1.826   2.676   2.709
    1   AR   Ar   87   2.604   1.759   2.660
    1   AR   Ar   88   2.555   2.641   1.962
    1   AR   Ar   89   1.615   1.516   3.674
    1   AR   Ar   90   1.900   2.859   4.614
    1   AR   Ar   91   2.423   1.563   4.507
    1   AR   Ar   92   2.636   2.709   3.519
    1   AR   Ar   93   1.804   1.705   5.409
    1   AR   Ar   94   1.970   2.542   6.091
    1   AR   Ar   95   2.674   1.641   6.067
    1   AR   Ar   96   2.714   2.555   5.291
    1   AR   Ar   97   1.599   3.350  -0.148
    1   AR   Ar   98   1.758   4.364   0.869
    1   AR   Ar   99   2.627   3.344   0.850
    1   AR   Ar  100   2.601   4.709   0.117
    1   AR   Ar  101   1.674   3.602   1.993
    1   AR   Ar  102   1.596   4.473   2.589
    1   AR   Ar  103   2.430   3.745   2.635
    1   AR   Ar  104   2.906   4.606   1.844
    1   AR   Ar  105   1.749   3.414   3.607
    1   AR   Ar  106   1.532   4.506   4.421
    1   AR   Ar  107   2.623   3.850   4.238
    1   AR   Ar  108   2.852   4.627   3.414
    1   AR   Ar  109   1.810   3.668   5.320
    1   AR   Ar  110   1.745   4.604   6.395
    1   AR   Ar  111   2.447   3.749   6.054
    1   AR   Ar  112   2.925   4.464   5.454
    1   AR   Ar  113   1.854   5.426   0.011
    1   AR   Ar  114   1.635   6.246   1.024
    1   AR   Ar  115   2.593   5.531   0.944
    1   AR   Ar  116   2.764   6.151  -0.232
    1   AR   Ar  117   2.009   5.119   1.842
    1   AR   Ar  118   1.604   6.209   2.638
    1   AR   Ar  119   2.690   5.392   2.608
    1   AR   Ar  120   2.483   6.300   1.896
    1   AR   Ar  121   1.944   5.471   3.561
    1   AR   Ar  122   1.792   6.249   4.496
    1   AR   Ar  123   2.663   5.016   4.422
    1   AR   Ar  124   2.547   6.272   3.309
    1   AR   Ar  125   1.813   5.217   5.247
    1   AR   Ar  126   1.764   6.510   6.177
    1   AR   Ar  127   2.579   5.346   6.170
    1   AR   Ar  128   2.448   6.328   5.377
    1   AR   Ar  129   3.583   7.024   0.173
    1   AR   Ar  130   3.900   1.047   0.906
    1   AR   Ar  131   4.386   6.972   1.232
    1   AR   Ar  132   4.669   1.071  -0.381
    1   AR   Ar  133   3.292   7.088   1.779
    1   AR   Ar  134   3.215   0.850   2.480
    1   AR   Ar  135   4.279   0.288   2.674
    1   AR   Ar  136   4.118   0.994   1.925
    1   AR   Ar  137   3.534   7.036   3.356
    1   AR   Ar  138   3.422   1.022   4.476
    1   AR   Ar  139   4.157   0.152   4.416
    1   AR   Ar  140   4.353   1.108   3.683
    1   AR   Ar  141   3.404   0.136   5.335
    1   AR   Ar  142   3.741   0.784   6.241
    1   AR   Ar  143   4.707   0.063   6.214
    1   AR   Ar  144   4.311   0.687   5.327
    1   AR   Ar  145   3.516   1.576   0.106
    1   AR   Ar  146   3.489   2.669   0.907
    1   AR   Ar  147   4.381   2.049   1.175
    1   AR   Ar  148   4.524   2.803   0.121
    1   AR   Ar  149   3.414   1.754   1.807
    1   AR   Ar  150   3.467   2.426   2.723
    1   AR   Ar  151   4.443   1.763   2.672
    1   AR   Ar  152   4.447   2.667   2.058
    1   AR   Ar  153   3.567   1.849   3.579
    1   AR   Ar  154   3.564   2.903   4.367
    1   AR   Ar  155   4.311   1.570   4.559
    1   AR   Ar  156   4.668   2.730   3.715
    1   AR   Ar  157   3.595   1.867   5.318
    1   AR   Ar  158   3.480   2.561   6.144
    1   AR   Ar  159   4.538   1.932   6.372
    1   AR   Ar  160   4.339   2.676   5.207
    1   AR   Ar  161   3.557   3.841   0.069
    1   AR   Ar  162   3.509   4.632   0.672
    1   AR   Ar  163   4.460   3.817   0.929
    1   AR   Ar  164   4.565   4.641   0.104
    1   AR   Ar  165   3.563   3.829   1.455
    1   AR   Ar  166   3.656   4.436   2.604
    1   AR   Ar  167   4.400   3.472   2.751
    1   AR   Ar  168   4.450   4.318   1.940
    1   AR   Ar  169   3.422   3.454   3.281
    1   AR   Ar  170   3.616   4.553   4.536
    1   AR   Ar  171   4.232   3.684   4.379
    1   AR   Ar  172   4.452   4.389   3.461
    1   AR   Ar  173   3.684   3.672   5.420
    1   AR   Ar  174   3.912   4.334   6.236
    1   AR   Ar  175   4.633   3.495   5.939
    1   AR   Ar  176   4.385   4.477   5.117
    1   AR   Ar  177   3.660   5.494   0.137
    1   AR   Ar  178   3.456   6.193   0.914
    1   AR   Ar  179   4.209   5.273   1.033
    1   AR   Ar  180   4.407   6.322   0.117
    1   AR   Ar  181   3.776   5.283   1.980
    1   AR   Ar  182   3.507   6.096   2.761
    1   AR   Ar  183   4.406   5.095   2.643
    1   AR   Ar  184   4.438   6.038   1.829
    1   AR   Ar  185   3.485   5.474   3.725
    1   AR   Ar  186   3.575   6.486   4.379
    1   AR   Ar  187   4.594   5.426   4.322
    1   AR   Ar  188   4.364   6.086   3.433
    1   AR   Ar  189   3.541   5.360   5.332
    1   AR   Ar  190   3.503   6.273   6.001
    1   AR   Ar  191   4.581   5.394   5.944
    1   AR   Ar  192   4.441   6.499   5.257
    1   AR   Ar  193   5.096   7.080   0.321
    1   AR   Ar  194   5.009   0.783   1.068
    1   AR   Ar  195   6.026   0.052   1.029
    1   AR   Ar  196   6.301   0.781   0.127
    1   AR   Ar  197   5.088   0.031   1.934
    1   AR   Ar  198   5.169   0.949   2.595
    1   AR   Ar  199   6.348   0.109   2.410
    1   AR   Ar  200   5.974   1.022   1.736
    1   AR   Ar  201   5.162   7.110   3.644
    1   AR   Ar  202   5.086   0.721   4.604
    1   AR   Ar  203   6.309   7.118   4.556
    1   AR   Ar  204   6.315   0.969   3.272
    1   AR   Ar  205   5.530   7.057   5.303
    1   AR   Ar  206   5.574   0.830   6.305
    1   AR   Ar  207   6.313   7.064   6.284
    1   AR   Ar  208   6.347   0.734   5.456
    1   AR   Ar  209   5.379   1.865  -0.133
    1   AR   Ar  210   5.435   2.475   0.724
    1   AR   Ar  211   6.270   1.701   0.561
    1   AR   Ar  212   6.364   2.890   0.281
    1   AR   Ar  213   5.496   1.909   2.186
    1   AR   Ar  214   5.300   2.682   2.834
    1   AR   Ar  215   6.392   1.807   2.701
    1   AR   Ar  216   6.508   2.538   1.623
    1   AR   Ar  217   5.382   1.688   3.428
    1   AR   Ar  218   5.515   2.810   4.351
    1   AR   Ar  219   6.269   1.480   4.386
    1   AR   Ar  220   6.336   2.715   3.681
    1   AR   Ar  221   5.499   2.108   5.088
    1   AR   Ar  222   5.185   2.632   5.962
    1   AR   Ar  223   6.227   1.627   6.134
    1   AR   Ar  224   6.471   2.869   5.406
    1   AR   Ar  225   5.461   3.362   0.061
    1   AR   Ar  226   5.102   4.601   1.076
    1   AR   Ar  227   6.120   3.907   0.704
    1   AR   Ar  228   6.126   4.563  -0.094
    1   AR   Ar  229   5.261   3.490   1.679
    1   AR   Ar  230   5.317   4.190   2.514
    1   AR   Ar  231   6.203   3.625   2.460
    1   AR   Ar  232   6.035   4.314   1.759
    1   AR   Ar  233   5.176   3.642   3.722
    1   AR   Ar  234   5.531   4.181   4.554
    1   AR   Ar  235   6.479   3.599   4.321
    1   AR   Ar  236   6.519   4.518   3.725
    1   AR   Ar  237   5.493   3.359   5.310
    1   AR   Ar  238   5.098   4.447   6.252
    1   AR   Ar  239   5.815   3.285   6.284
    1   AR   Ar  240   6.255   4.463   5.375
    1   AR   Ar  241   5.253   5.331   0.348
    1   AR   Ar  242   5.215   6.238   0.907
    1   AR   Ar  243   6.227   5.267   0.676
    1   AR   Ar  244   6.225   6.152   0.226
    1   AR   Ar  245   5.535   5.227   1.822
    1   AR   Ar  246   5.127   6.332   2.592
    1   AR   Ar  247   6.026   4.938   2.812
    1   AR   Ar  248   6.365   6.397   1.574
    1   AR   Ar  249   5.316   5.535   3.376
    1   AR   Ar  250   5.403   6.014   4.473
    1   AR   Ar  251   6.475   5.457   4.441
    1   AR   Ar  252   6.201   6.415   3.764
    1   AR   Ar  253   5.293   5.245   5.265
    1   AR   Ar  254   5.667   5.985   5.827
    1   AR   Ar  255   6.134   5.137   6.368
    1   AR   Ar  256   6.454   6.329   5.288
    7.12000  7.12000 12.00000
Argon-slab step 65
  256
    1   AR   Ar    1   7.012   0.008   0.059
    1   AR   Ar    2   7.120   0.769   1.119
    1   AR   Ar    3   0.758   6.917   0.995
    1   AR   Ar    4   0.890   0.564   0.144
    1   AR   Ar    5   0.120   7.110   1.819
    1   AR   Ar    6   0.271   0.797   2.791
    1   AR   Ar    7   0.795   7.005   2.784
    1   AR   Ar    8   0.784   0.946   1.837
    1   AR   Ar    9   6.875   0.194   3.633
    1   AR   Ar   10   0.139   0.781   4.471
    1   AR   Ar   11   0.852   7.096   4.643
    1   AR   Ar   12   1.001   0.656   3.618
    1   AR   Ar   13   0.129   0.009   5.388
    1   AR   Ar   14   0.187   0.939   5.824
    1   AR   Ar   15   0.984   0.095   6.281
    1   AR   Ar   16   1.099   0.852   5.443
    1   AR   Ar   17   0.275   1.412  -0.183
    1   AR   Ar   18   0.161   2.939   0.806
    1   AR   Ar   19   0.899   1.877   0.974
    1   AR   Ar   20   0.830   2.440   0.007
    1   AR   Ar   21   0.045   1.618   1.691
    1   AR   Ar   22   0.094   2.480   2.526
    1   AR   Ar   23   0.839   1.748   2.607
    1   AR   Ar   24   0.664   2.922   1.767
    1   AR   Ar   25   0.101   1.858   3.717
    1   AR   Ar   26   0.075   2.626   4.524
    1   AR   Ar   27   0.617   1.702   4.545
    1   AR   Ar   28   1.094   2.413   3.662
    1   AR   Ar   29   6.921   1.893   5.364
    1   AR   Ar   30   0.367   2.977   6.034
    1   AR   Ar   31   1.260   1.532   6.367
    1   AR   Ar   32   0.867   2.753   5.130
    1   AR   Ar   33   7.113   3.700  -0.028
    1   AR   Ar   34   7.050   4.430   0.768
    1   AR   Ar   35   0.886   3.645   0.686
    1   AR   Ar   36   1.104   4.507  -0.014
    1   AR   Ar   37   0.275   3.959   1.605
    1   AR   Ar   38   7.029   4.443   2.736
    1   AR   Ar   39   0.855   3.690   2.762
    1   AR   Ar   40   0.841   4.764   1.938
    1   AR   Ar   41   0.150   3.377   3.485
    1   AR   Ar   42   7.052   4.547   4.647
    1   AR   Ar   43   0.985   3.488   4.298
    1   AR   Ar   44   0.812   4.264   3.608
    1   AR   Ar   45   0.142   3.618   5.331
    1   AR   Ar   46   6.961   4.340   6.022
    1   AR   Ar   47   1.030   3.856   6.025
    1   AR   Ar   48   0.883   4.647   5.367
    1   AR   Ar   49   0.080   5.106  -0.047
    1   AR   Ar   50   0.032   6.077   0.870
    1   AR   Ar   51   0.996   5.391   1.071
    1   AR   Ar   52   0.709   5.971   0.066
    1   AR   Ar   53   7.043   5.378   1.980
    1   AR   Ar   54   7.039   6.389   2.678
    1   AR   Ar   55   0.715   5.520   2.729
    1   AR   Ar   56   0.700   6.215   1.917
    1   AR   Ar   57   0.007   5.322   3.650
    1   AR   Ar   58   7.104   6.268   4.090
    1   AR   Ar   59   0.755   5.230   4.460
    1   AR   Ar   60   0.925   6.111   3.539
    1   AR   Ar   61   7.115   5.406   5.464
    1   AR   Ar   62   0.097   6.188   6.208
    1   AR   Ar   63   1.245   5.554   5.996
    1   AR   Ar   64   0.902   6.462   5.506
    1   AR   Ar   65   1.465   6.614   0.006
    1   AR   Ar   66   1.598   0.802   1.197
    1   AR   Ar   67   2.441   6.714   0.597
    1   AR   Ar   68   2.520   0.835   0.186
    1   AR   Ar   69   1.539   0.021   1.895
    1   AR   Ar   70   1.645   0.950   2.615
    1   AR   Ar   71   2.615   0.037   2.699
    1   AR   Ar   72   2.669   0.995   1.638
    1   AR   Ar   73   1.874   0.014   3.538
    1   AR   Ar   74   1.559   0.662   4.592
    1   AR   Ar   75   2.738   7.072   4.531
    1   AR   Ar   76   2.483   0.950   3.553
    1   AR   Ar   77   1.817   7.102   5.410
    1   AR   Ar   78   2.022   0.788   6.214
    1   AR   Ar   79   2.653   7.090   6.075
    1   AR   Ar   80   3.055   1.060   5.412
    1   AR   Ar   81   1.921   1.944  -0.041
    1   AR   Ar   82   1.536   2.920   1.073
    1   AR   Ar   83   2.686   1.574   0.775
    1   AR   Ar   84   2.546   2.636  -0.194
    1   AR   Ar   85   1.488   2.023   1.810
    1   AR   Ar   86   1.811   2.648   2.669
    1   AR   Ar   87   2.614   1.781   2.630
    1   AR   Ar   88   2.540   2.648   1.988
    1   AR   Ar   89   1.613   1.492   3.675
    1   AR   Ar   90   1.914   2.868   4.618
    1   AR   Ar   91   2.394   1.544   4.522
    1   AR   Ar   92   2.633   2.695   3.545
    1   AR   Ar   93   1.790   1.714   5.401
    1   AR   Ar   94   1.996   2.554   6.099
    1   AR   Ar   95   2.676   1.650   6.080
    1   AR   Ar   96   2.724   2.560   5.289
    1   AR   Ar   97   1.607   3.363  -0.173
    1   AR   Ar   98   1.760   4.391   0.820
    1   AR   Ar   99   2.605   3.317   0.841
    1   AR   Ar  100   2.604   4.705   0.136
    1   AR   Ar  101   1.636   3.589   2.003
    1   AR   Ar  102   1.583   4.497   2.602
    1   AR   Ar  103   2.441   3.743   2.630
    1   AR   Ar  104   2.917   4.593   1.837
    1   AR   Ar  105   1.746   3.414   3.627
    1   AR   Ar  106   1.516   4.466   4.390
    1   AR   Ar  107   2.609   3.882   4.203
    1   AR   Ar  108   2.873   4.663   3.433
    1   AR   Ar  109   1.800   3.679   5.326
    1   AR   Ar  110   1.741   4.620   6.391
    1   AR   Ar  111   2.474   3.760   6.089
    1   AR   Ar  112   2.930   4.483   5.480
    1   AR   Ar  113   1.864   5.460   0.006
    1   AR   Ar  114   1.640   6.242   1.036
    1   AR   Ar  115   2.588   5.546   0.943
    1   AR   Ar  116   2.756   6.153  -0.240
    1   AR   Ar  117   2.007   5.116   1.855
    1   AR   Ar  118   1.562   6.236   2.639
    1   AR   Ar  119   2.708   5.407   2.586
    1   AR   Ar  120   2.484   6.304   1.908
    1   AR   Ar  121   1.934   5.462   3.583
    1   AR   Ar  122   1.781   6.252   4.473
    1   AR   Ar  123   2.676   5.052   4.406
    1   AR   Ar  124   2.533   6.280   3.308
    1   AR   Ar  125   1.820   5.226   5.230
    1   AR   Ar  126   1.762   6.519   6.211
    1   AR   Ar  127   2.600   5.344   6.194
    1   AR   Ar  128   2.462   6.319   5.365
    1   AR   Ar  129   3.598   7.030   0.179
    1   AR   Ar  130   3.921   1.037   0.897
    1   AR   Ar  131   4.405   6.971   1.246
    1   AR   Ar  132   4.656   1.061  -0.369
    1   AR   Ar  133   3.288   7.099   1.766
    1   AR   Ar  134   3.203   0.842   2.478
    1   AR   Ar  135   4.284   0.295   2.692
    1   AR   Ar  136   4.122   0.974   1.951
    1   AR   Ar  137   3.538   7.039   3.348
    1   AR   Ar  138   3.384   1.037   4.464
    1   AR   Ar  139   4.158   0.190   4.401
    1   AR   Ar  140   4.345   1.109   3.656
    1   AR   Ar  141   3.390   0.116   5.308
    1   AR   Ar  142   3.745   0.796   6.232
    1   AR   Ar  143   4.716   0.084   6.222
    1   AR   Ar  144   4.308   0.702   5.317
    1   AR   Ar  145   3.520   1.581   0.080
    1   AR   Ar  146   3.505   2.676   0.889
    1   AR   Ar  147   4.385   2.055   1.172
    1   AR   Ar  148   4.526   2.805   0.153
    1   AR   Ar  149   3.415   1.760   1.831
    1   AR   Ar  150   3.421   2.394   2.718
    1   AR   Ar  151   4.444   1.774   2.706
    1   AR   Ar  152   4.464   2.683   2.066
    1   AR   Ar  153   3.571   1.847   3.624
    1   AR   Ar  154   3.527   2.918   4.369
    1   AR   Ar  155   4.317   1.599   4.558
    1   AR   Ar  156   4.682   2.733   3.698
    1   AR   Ar  157   3.620   1.852   5.303
    1   AR   Ar  158   3.467   2.534   6.120
    1   AR   Ar  159   4.561   1.912   6.392
    1   AR   Ar  160   4.333   2.715   5.228
    1   AR   Ar  161   3.549   3.855   0.083
    1   AR   Ar  162   3.523   4.635   0.686
    1   AR   Ar  163   4.463   3.804   0.922
    1   AR   Ar  164   4.577   4.652   0.128
    1   AR   Ar  165   3.546   3.855   1.425
    1   AR   Ar  166   3.618   4.422   2.595
    1   AR   Ar  167   4.421   3.435   2.736
    1   AR   Ar  168   4.475   4.316   1.929
    1   AR   Ar  169   3.407   3.429   3.285
    1   AR   Ar  170   3.615   4.585   4.530
    1   AR   Ar  171   4.205   3.664   4.352
    1   AR   Ar  172   4.462   4.386   3.448
    1   AR   Ar  173   3.694   3.693   5.416
    1   AR   Ar  174   3.895   4.340   6.232
    1   AR   Ar  175   4.644   3.486   5.902
    1   AR   Ar  176   4.399   4.493   5.121
    1   AR   Ar  177   3.660   5.514   0.132
    1   AR   Ar  178   3.455   6.192   0.946
    1   AR   Ar  179   4.194   5.262   1.038
    1   AR   Ar  180   4.409   6.315   0.133
    1   AR   Ar  181   3.752   5.291   2.013
    1   AR   Ar  182   3.491   6.073   2.786
    1   AR   Ar  183   4.437   5.081   2.633
    1   AR   Ar  184   4.427   6.036   1.858
    1   AR   Ar  185   3.496   5.505   3.741
    1   AR   Ar  186   3.520   6.482   4.364
    1   AR   Ar  187   4.584   5.419   4.319
    1   AR   Ar  188   4.347   6.095   3.407
    1   AR   Ar  189   3.533   5.350   5.280
    1   AR   Ar  190   3.493   6.275   5.998
    1   AR   Ar  191   4.587   5.370   5.943
    1   AR   Ar  192   4.438   6.524   5.239
    1   AR   Ar  193   5.040   7.088   0.320
    1   AR   Ar  194   5.020   0.764   1.064
    1   AR   Ar  195   6.019   0.081   1.053
    1   AR   Ar  196   6.270   0.777   0.129
    1   AR   Ar  197   5.070   0.053   1.958
    1   AR   Ar  198   5.141   0.934   2.591
    1   AR   Ar  199   6.328   0.126   2.416
    1   AR   Ar  200   5.994   1.058   1.735
    1   AR   Ar  201   5.133   0.019   3.643
    1   AR   Ar  202   5.089   0.743   4.598
    1   AR   Ar  203   6.306   0.018   4.547
    1   AR   Ar  204   6.300   0.963   3.311
    1   AR   Ar  205   5.546   7.050   5.261
    1   AR   Ar  206   5.560   0.836   6.319
    1   AR   Ar  207   6.347   7.038   6.291
    1   AR   Ar  208   6.344   0.766   5.446
    1   AR   Ar  209   5.391   1.862  -0.150
    1   AR   Ar  210   5.420   2.467   0.745
    1   AR   Ar  211   6.280   1.701   0.553
    1   AR   Ar  212   6.347   2.923   0.285
    1   AR   Ar  213   5.497   1.939   2.201
    1   AR   Ar  214   5.283   2.702   2.841
    1   AR   Ar  215   6.390   1.833   2.717
    1   AR   Ar  216   6.529   2.566   1.621
    1   AR   Ar  217   5.387   1.665   3.431
    1   AR   Ar  218   5.541   2.829   4.352
    1   AR   Ar  219   6.298   1.448   4.359
    1   AR   Ar  220   6.354   2.709   3.657
    1   AR   Ar  221   5.493   2.119   5.071
    1   AR   Ar  222   5.177   2.657   5.958
    1   AR   Ar  223   6.247   1.656   6.121
    1   AR   Ar  224   6.493   2.880   5.399
    1   AR   Ar  225   5.448   3.356   0.048
    1   AR   Ar  226   5.079   4.618   1.074
    1   AR   Ar  227   6.123   3.928   0.721
    1   AR   Ar  228   6.113   4.558  -0.111
    1   AR   Ar  229   5.259   3.451   1.671
    1   AR   Ar  230   5.316   4.185   2.527
    1   AR   Ar  231   6.213   3.636   2.456
    1   AR   Ar  232   6.069   4.301   1.757
    1   AR   Ar  233   5.176   3.655   3.714
    1   AR   Ar  234   5.535   4.177   4.538
    1   AR   Ar  235   6.485   3.588   4.343
    1   AR   Ar  236   6.512   4.494   3.720
    1   AR   Ar  237   5.486   3.380   5.344
    1   AR   Ar  238   5.114   4.433   6.234
    1   AR   Ar  239   5.807   3.296   6.304
    1   AR   Ar  240   6.230   4.467   5.385
    1   AR   Ar  241   5.224   5.317   0.355
    1   AR   Ar  242   5.213   6.261   0.926
    1   AR   Ar  243   6.214   5.218   0.725
    1   AR   Ar  244   6.236   6.151   0.234
    1   AR   Ar  245   5.531   5.209   1.846
    1   AR   Ar  246   5.127   6.354   2.600
    1   AR   Ar  247   6.025   4.896   2.808
    1   AR   Ar  248   6.383   6.381   1.576
    1   AR   Ar  249   5.321   5.565   3.374
    1   AR   Ar  250   5.376   6.030   4.474
    1   AR   Ar  251   6.480   5.445   4.429
    1   AR   Ar  252   6.169   6.414   3.782
    1   AR   Ar  253   5.339   5.273   5.280
    1   AR   Ar  254   5.682   5.973   5.797
    1   AR   Ar  255   6.130   5.127   6.368
    1   AR   Ar  256   6.478   6.338   5.290
    7.12000  7.12000 12.00000
Argon-slab step 70
  256
    1   AR   Ar    1   7.016   7.109   0.092
    1   AR   Ar    2   7.091   0.765   1.131
    1   AR   Ar    3   0.759   6.914   0.985
    1   AR   Ar    4   0.893   0.557   0.144
    1   AR   Ar    5   0.126   7.102   1.813
    1   AR   Ar    6   0.248   0.803   2.795
    1   AR   Ar    7   0.797   6.959   2.806
    1   AR   Ar    8   0.796   0.933   1.840
    1   AR   Ar    9   6.886   0.171   3.620
    1   AR   Ar   10   0.154   0.766   4.468
    1   AR   Ar   11   0.861   7.101   4.641
    1   AR   Ar   12   0.982   0.632   3.627
    1   AR   Ar   13   0.119   0.025   5.397
    1   AR   Ar   14   0.155   0.962   5.826
    1   AR   Ar   15   0.999   0.093   6.312
    1   AR   Ar   16   1.131   0.808   5.457
    1   AR   Ar   17   0.293   1.381  -0.177
    1   AR   Ar   18   0.160   2.951   0.795
    1   AR   Ar   19   0.887   1.894   0.979
    1   AR   Ar   20   0.844   2.466  -0.024
    1   AR   Ar   21   0.050   1.598   1.684
    1   AR   Ar   22   0.110   2.493   2.528
    1   AR   Ar   23   0.824   1.770   2.614
    1   AR   Ar   24   0.657   2.928   1.790
    1   AR   Ar   25   0.099   1.888   3.720
    1   AR   Ar   26   0.058   2.618   4.533
    1   AR   Ar   27   0.633   1.723   4.571
    1   AR   Ar   28   1.098   2.404   3.674
    1   AR   Ar   29   6.914   1.898   5.358
    1   AR   Ar   30   0.395   2.987   6.023
    1   AR   Ar   31   1.282   1.517   6.364
    1   AR   Ar   32   0.865   2.788   5.114
    1   AR   Ar   33   0.002   3.718  -0.019
    1   AR   Ar   34   7.066   4.421   0.757
    1   AR   Ar   35   0.896   3.651   0.675
    1   AR   Ar   36   1.133   4.498   0.000
    1   AR   Ar   37   0.278   3.995   1.599
    1   AR   Ar   38   7.032   4.442   2.738
    1   AR   Ar   39   0.842   3.690   2.730
    1   AR   Ar   40   0.839   4.792   1.943
    1   AR   Ar   41   0.164   3.364   3.483
    1   AR   Ar   42   7.057   4.537   4.641
    1   AR   Ar   43   0.968   3.484   4.307
    1   AR   Ar   44   0.803   4.263   3.628
    1   AR   Ar   45   0.157   3.614   5.321
    1   AR   Ar   46   6.973   4.326   6.014
    1   AR   Ar   47   1.026   3.852   6.017
    1   AR   Ar   48   0.863   4.665   5.346
    1   AR   Ar   49   0.045   5.076  -0.037
    1   AR   Ar   50   0.049   6.069   0.891
    1   AR   Ar   51   0.994   5.387   1.080
    1   AR   Ar   52   0.683   5.955   0.088
    1   AR   Ar   53   6.991   5.405   2.002
    1   AR   Ar   54   7.046   6.409   2.679
    1   AR   Ar   55   0.692   5.533   2.732
    1   AR   Ar   56   0.703   6.218   1.907
    1   AR   Ar   57   0.023   5.347   3.636
    1   AR   Ar   58   0.001   6.292   4.130
    1   AR   Ar   59   0.786   5.241   4.475
    1   AR   Ar   60   0.922   6.090   3.542
    1   AR   Ar   61   7.104   5.408   5.471
    1   AR   Ar   62   0.105   6.188   6.191
    1   AR   Ar   63   1.251   5.565   6.003
    1   AR   Ar   64   0.907   6.463   5.509
    1   AR   Ar   65   1.458   6.576   0.022
    1   AR   Ar   66   1.604   0.807   1.221
    1   AR   Ar   67   2.410   6.688   0.593
    1   AR   Ar   68   2.484   0.823   0.202
    1   AR   Ar   69   1.528   0.018   1.881
    1   AR   Ar   70   1.662   0.957   2.630
    1   AR   Ar   71   2.588   0.047   2.720
    1   AR   Ar   72   2.707   0.982   1.603
    1   AR   Ar   73   1.885   0.001   3.534
    1   AR   Ar   74   1.542   0.669   4.605
    1   AR   Ar   75   2.712   7.081   4.541
    1   AR   Ar   76   2.472   0.952   3.551
    1   AR   Ar   77   1.828   7.084   5.381
    1   AR   Ar   78   2.040   0.776   6.191
    1   AR   Ar   79   2.663   7.071   6.081
    1   AR   Ar   80   3.058   1.075   5.380
    1   AR   Ar   81   1.925   1.945  -0.012
    1   AR   Ar   82   1.545   2.936   1.063
    1   AR   Ar   83   2.665   1.603   0.799
    1   AR   Ar   84   2.544   2.635  -0.186
    1   AR   Ar   85   1.496   2.007   1.791
    1   AR   Ar   86   1.790   2.621   2.637
    1   AR   Ar   87   2.617   1.797   2.601
    1   AR   Ar   88   2.536   2.633   1.975
    1   AR   Ar   89   1.615   1.474   3.659
    1   AR   Ar   90   1.927   2.876   4.620
    1   AR   Ar   91   2.365   1.526   4.537
    1   AR   Ar   92   2.630   2.680   3.571
    1   AR   Ar   93   1.760   1.732   5.393
    1   AR   Ar   94   2.027   2.574   6.111
    1   AR   Ar   95   2.672   1.671   6.103
    1   AR   Ar   96   2.736   2.564   5.286
    1   AR   Ar   97   1.614   3.375  -0.196
    1   AR   Ar   98   1.763   4.417   0.775
    1   AR   Ar   99   2.582   3.290   0.832
    1   AR   Ar  100   2.597   4.695   0.150
    1   AR   Ar  101   1.594   3.573   2.007
    1   AR   Ar  102   1.572   4.522   2.623
    1   AR   Ar  103   2.457   3.741   2.630
    1   AR   Ar  104   2.926   4.581   1.829
    1   AR   Ar  105   1.747   3.414   3.640
    1   AR   Ar  106   1.504   4.426   4.361
    1   AR   Ar  107   2.594   3.915   4.169
    1   AR   Ar  108   2.893   4.697   3.449
    1   AR   Ar  109   1.786   3.691   5.325
    1   AR   Ar  110   1.729   4.639   6.377
    1   AR   Ar  111   2.503   3.768   6.130
    1   AR   Ar  112   2.934   4.505   5.503
    1   AR   Ar  113   1.871   5.498   0.003
    1   AR   Ar  114   1.647   6.229   1.037
    1   AR   Ar  115   2.581   5.561   0.941
    1   AR   Ar  116   2.748   6.154  -0.249
    1   AR   Ar  117   2.000   5.115   1.862
    1   AR   Ar  118   1.523   6.263   2.639
    1   AR   Ar  119   2.726   5.421   2.566
    1   AR   Ar  120   2.483   6.308   1.920
    1   AR   Ar  121   1.921   5.449   3.606
    1   AR   Ar  122   1.770   6.256   4.449
    1   AR   Ar  123   2.684   5.090   4.393
    1   AR   Ar  124   2.522   6.288   3.307
    1   AR   Ar  125   1.813   5.228   5.220
    1   AR   Ar  126   1.760   6.518   6.253
    1   AR   Ar  127   2.621   5.342   6.216
    1   AR   Ar  128   2.480   6.302   5.352
    1   AR   Ar  129   3.612   7.038   0.187
    1   AR   Ar  130   3.942   1.024   0.888
    1   AR   Ar  131   4.395   6.958   1.252
    1   AR   Ar  132   4.656   1.060  -0.359
    1   AR   Ar  133   3.284   7.110   1.753
    1   AR   Ar  134   3.199   0.837   2.484
    1   AR   Ar  135   4.314   0.298   2.707
    1   AR   Ar  136   4.129   0.955   1.973
    1   AR   Ar  137   3.540   7.041   3.343
    1   AR   Ar  138   3.348   1.049   4.443
    1   AR   Ar  139   4.160   0.230   4.383
    1   AR   Ar  140   4.339   1.105   3.624
    1   AR   Ar  141   3.384   0.088   5.282
    1   AR   Ar  142   3.749   0.808   6.223
    1   AR   Ar  143   4.725   0.106   6.228
    1   AR   Ar  144   4.304   0.720   5.309
    1   AR   Ar  145   3.524   1.588   0.051
    1   AR   Ar  146   3.522   2.682   0.871
    1   AR   Ar  147   4.389   2.059   1.169
    1   AR   Ar  148   4.526   2.806   0.187
    1   AR   Ar  149   3.417   1.768   1.852
    1   AR   Ar  150   3.382   2.370   2.712
    1   AR   Ar  151   4.445   1.785   2.741
    1   AR   Ar  152   4.482   2.693   2.068
    1   AR   Ar  153   3.573   1.846   3.671
    1   AR   Ar  154   3.495   2.917   4.375
    1   AR   Ar  155   4.327   1.631   4.560
    1   AR   Ar  156   4.689   2.732   3.682
    1   AR   Ar  157   3.650   1.846   5.286
    1   AR   Ar  158   3.455   2.508   6.095
    1   AR   Ar  159   4.580   1.889   6.411
    1   AR   Ar  160   4.326   2.753   5.247
    1   AR   Ar  161   3.541   3.859   0.092
    1   AR   Ar  162   3.551   4.640   0.703
    1   AR   Ar  163   4.462   3.784   0.921
    1   AR   Ar  164   4.572   4.648   0.148
    1   AR   Ar  165   3.529   3.877   1.397
    1   AR   Ar  166   3.577   4.402   2.593
    1   AR   Ar  167   4.441   3.406   2.727
    1   AR   Ar  168   4.497   4.311   1.913
    1   AR   Ar  169   3.392   3.406   3.289
    1   AR   Ar  170   3.607   4.616   4.515
    1   AR   Ar  171   4.184   3.649   4.324
    1   AR   Ar  172   4.470   4.384   3.437
    1   AR   Ar  173   3.702   3.710   5.407
    1   AR   Ar  174   3.879   4.349   6.227
    1   AR   Ar  175   4.644   3.489   5.869
    1   AR   Ar  176   4.413   4.509   5.101
    1   AR   Ar  177   3.658   5.535   0.125
    1   AR   Ar  178   3.456   6.193   0.981
    1   AR   Ar  179   4.190   5.261   1.048
    1   AR   Ar  180   4.407   6.301   0.151
    1   AR   Ar  181   3.705   5.302   2.031
    1   AR   Ar  182   3.476   6.053   2.809
    1   AR   Ar  183   4.490   5.069   2.639
    1   AR   Ar  184   4.420   6.039   1.884
    1   AR   Ar  185   3.507   5.536   3.757
    1   AR   Ar  186   3.471   6.468   4.346
    1   AR   Ar  187   4.568   5.407   4.315
    1   AR   Ar  188   4.373   6.138   3.405
    1   AR   Ar  189   3.526   5.343   5.229
    1   AR   Ar  190   3.482   6.277   5.993
    1   AR   Ar  191   4.586   5.346   5.946
    1   AR   Ar  192   4.435   6.550   5.221
    1   AR   Ar  193   4.989   7.104   0.319
    1   AR   Ar  194   5.031   0.746   1.063
    1   AR   Ar  195   6.009   0.115   1.075
    1   AR   Ar  196   6.238   0.768   0.130
    1   AR   Ar  197   5.060   0.080   1.984
    1   AR   Ar  198   5.116   0.921   2.587
    1   AR   Ar  199   6.307   0.144   2.423
    1   AR   Ar  200   6.016   1.093   1.733
    1   AR   Ar  201   5.104   0.048   3.641
    1   AR   Ar  202   5.094   0.767   4.590
    1   AR   Ar  203   6.306   0.041   4.538
    1   AR   Ar  204   6.281   0.960   3.348
    1   AR   Ar  205   5.559   7.042   5.223
    1   AR   Ar  206   5.544   0.841   6.331
    1   AR   Ar  207   6.381   7.012   6.294
    1   AR   Ar  208   6.338   0.796   5.433
    1   AR   Ar  209   5.403   1.858  -0.166
    1   AR   Ar  210   5.405   2.460   0.768
    1   AR   Ar  211   6.289   1.709   0.550
    1   AR   Ar  212   6.348   2.951   0.281
    1   AR   Ar  213   5.494   1.965   2.210
    1   AR   Ar  214   5.267   2.727   2.850
    1   AR   Ar  215   6.370   1.846   2.725
    1   AR   Ar  216   6.549   2.595   1.618
    1   AR   Ar  217   5.391   1.644   3.433
    1   AR   Ar  218   5.569   2.854   4.350
    1   AR   Ar  219   6.319   1.421   4.335
    1   AR   Ar  220   6.375   2.701   3.630
    1   AR   Ar  221   5.479   2.124   5.061
    1   AR   Ar  222   5.178   2.665   5.946
    1   AR   Ar  223   6.240   1.632   6.110
    1   AR   Ar  224   6.512   2.891   5.391
    1   AR   Ar  225   5.451   3.363   0.037
    1   AR   Ar  226   5.077   4.604   1.080
    1   AR   Ar  227   6.124   3.945   0.742
    1   AR   Ar  228   6.102   4.553  -0.131
    1   AR   Ar  229   5.258   3.412   1.663
    1   AR   Ar  230   5.310   4.179   2.544
    1   AR   Ar  231   6.222   3.645   2.490
    1   AR   Ar  232   6.105   4.297   1.744
    1   AR   Ar  233   5.179   3.666   3.701
    1   AR   Ar  234   5.540   4.175   4.525
    1   AR   Ar  235   6.493   3.575   4.367
    1   AR   Ar  236   6.501   4.466   3.716
    1   AR   Ar  237   5.485   3.409   5.362
    1   AR   Ar  238   5.097   4.449   6.219
    1   AR   Ar  239   5.816   3.333   6.319
    1   AR   Ar  240   6.194   4.474   5.385
    1   AR   Ar  241   5.207   5.323   0.361
    1   AR   Ar  242   5.211   6.281   0.949
    1   AR   Ar  243   6.204   5.165   0.779
    1   AR   Ar  244   6.245   6.154   0.242
    1   AR   Ar  245   5.525   5.196   1.872
    1   AR   Ar  246   5.128   6.375   2.613
    1   AR   Ar  247   6.027   4.857   2.805
    1   AR   Ar  248   6.403   6.362   1.581
    1   AR   Ar  249   5.326   5.594   3.374
    1   AR   Ar  250   5.356   6.052   4.475
    1   AR   Ar  251   6.478   5.434   4.423
    1   AR   Ar  252   6.179   6.423   3.795
    1   AR   Ar  253   5.381   5.276   5.274
    1   AR   Ar  254   5.701   5.982   5.785
    1   AR   Ar  255   6.127   5.115   6.366
    1   AR   Ar  256   6.508   6.349   5.288
    7.12000  7.12000 12.00000
Argon-slab step 75
  256
    1   AR   Ar    1   7.022   7.088   0.128
    1   AR   Ar    2   7.060   0.755   1.133
    1   AR   Ar    3   0.767   6.910   0.968
    1   AR   Ar    4   0.898   0.548   0.147
    1   AR   Ar    5   0.129   7.092   1.799
    1   AR   Ar    6   0.222   0.811   2.798
    1   AR   Ar    7   0.799   6.920   2.828
    1   AR   Ar    8   0.810   0.917   1.847
    1   AR   Ar    9   6.916   0.138   3.599
    1   AR   Ar   10   0.159   0.755   4.450
    1   AR   Ar   11   0.863   7.094   4.635
    1   AR   Ar   12   0.961   0.605   3.636
    1   AR   Ar   13   0.105   0.026   5.346
    1   AR   Ar   14   0.124   0.990   5.832
    1   AR   Ar   15   1.011   0.094   6.341
    1   AR   Ar   16   1.156   0.766   5.486
    1   AR   Ar   17   0.309   1.352  -0.171
    1   AR   Ar   18   0.165   2.931   0.755
    1   AR   Ar   19   0.872   1.911   0.978
    1   AR   Ar   20   0.858   2.492  -0.053
    1   AR   Ar   21   0.050   1.592   1.682
    1   AR   Ar   22   0.136   2.510   2.511
    1   AR   Ar   23   0.814   1.786   2.624
    1   AR   Ar   24   0.656   2.937   1.809
    1   AR   Ar   25   0.092   1.918   3.715
    1   AR   Ar   26   0.069   2.632   4.540
    1   AR   Ar   27   0.656   1.743   4.603
    1   AR   Ar   28   1.101   2.398   3.687
    1   AR   Ar   29   6.910   1.902   5.346
    1   AR   Ar   30   0.422   2.986   6.026
    1   AR   Ar   31   1.303   1.503   6.360
    1   AR   Ar   32   0.886   2.808   5.097
    1   AR   Ar   33   0.012   3.734  -0.011
    1   AR   Ar   34   7.082   4.415   0.744
    1   AR   Ar   35   0.907   3.664   0.664
    1   AR   Ar   36   1.153   4.491   0.009
    1   AR   Ar   37   0.282   4.022   1.600
    1   AR   Ar   38   7.039   4.440   2.739
    1   AR   Ar   39   0.829   3.689   2.695
    1   AR   Ar   40   0.836   4.823   1.949
    1   AR   Ar   41   0.177   3.349   3.483
    1   AR   Ar   42   7.064   4.526   4.637
    1   AR   Ar   43   0.946   3.476   4.321
    1   AR   Ar   44   0.801   4.268   3.595
    1   AR   Ar   45   0.172   3.621   5.295
    1   AR   Ar   46   6.992   4.314   6.011
    1   AR   Ar   47   1.019   3.848   6.012
    1   AR   Ar   48   0.842   4.681   5.327
    1   AR   Ar   49   0.010   5.049  -0.028
    1   AR   Ar   50   0.064   6.059   0.915
    1   AR   Ar   51   0.991   5.383   1.086
    1   AR   Ar   52   0.684   5.931   0.105
    1   AR   Ar   53   6.939   5.433   2.023
    1   AR   Ar   54   7.063   6.428   2.675
    1   AR   Ar   55   0.668   5.539   2.732
    1   AR   Ar   56   0.707   6.221   1.894
    1   AR   Ar   57   0.044   5.370   3.617
    1   AR   Ar   58   0.026   6.318   4.174
    1   AR   Ar   59   0.799   5.261   4.483
    1   AR   Ar   60   0.921   6.074   3.552
    1   AR   Ar   61   7.070   5.417   5.462
    1   AR   Ar   62   0.112   6.191   6.175
    1   AR   Ar   63   1.253   5.576   6.014
    1   AR   Ar   64   0.916   6.462   5.511
    1   AR   Ar   65   1.459   6.552   0.018
    1   AR   Ar   66   1.614   0.817   1.240
    1   AR   Ar   67   2.386   6.667   0.588
    1   AR   Ar   68   2.446   0.804   0.214
    1   AR   Ar   69   1.515   0.010   1.870
    1   AR   Ar   70   1.680   0.964   2.646
    1   AR   Ar   71   2.558   0.055   2.738
    1   AR   Ar   72   2.741   0.965   1.569
    1   AR   Ar   73   1.893   7.108   3.533
    1   AR   Ar   74   1.546   0.686   4.599
    1   AR   Ar   75   2.671   7.097   4.547
    1   AR   Ar   76   2.468   0.948   3.547
    1   AR   Ar   77   1.836   7.072   5.347
    1   AR   Ar   78   2.055   0.764   6.166
    1   AR   Ar   79   2.678   7.051   6.088
    1   AR   Ar   80   3.048   1.078   5.357
    1   AR   Ar   81   1.912   1.927   0.023
    1   AR   Ar   82   1.556   2.948   1.054
    1   AR   Ar   83   2.646   1.646   0.826
    1   AR   Ar   84   2.559   2.653  -0.181
    1   AR   Ar   85   1.508   1.991   1.776
    1   AR   Ar   86   1.761   2.596   2.614
    1   AR   Ar   87   2.604   1.799   2.573
    1   AR   Ar   88   2.538   2.621   1.951
    1   AR   Ar   89   1.613   1.460   3.643
    1   AR   Ar   90   1.938   2.883   4.619
    1   AR   Ar   91   2.337   1.507   4.550
    1   AR   Ar   92   2.626   2.663   3.597
    1   AR   Ar   93   1.731   1.750   5.385
    1   AR   Ar   94   2.057   2.595   6.123
    1   AR   Ar   95   2.667   1.697   6.130
    1   AR   Ar   96   2.748   2.567   5.281
    1   AR   Ar   97   1.622   3.387  -0.216
    1   AR   Ar   98   1.771   4.443   0.739
    1   AR   Ar   99   2.560   3.265   0.823
    1   AR   Ar  100   2.592   4.684   0.164
    1   AR   Ar  101   1.553   3.556   2.007
    1   AR   Ar  102   1.564   4.544   2.650
    1   AR   Ar  103   2.475   3.739   2.632
    1   AR   Ar  104   2.928   4.572   1.817
    1   AR   Ar  105   1.752   3.413   3.648
    1   AR   Ar  106   1.498   4.387   4.337
    1   AR   Ar  107   2.616   3.935   4.162
    1   AR   Ar  108   2.913   4.729   3.460
    1   AR   Ar  109   1.774   3.703   5.319
    1   AR   Ar  110   1.719   4.657   6.360
    1   AR   Ar  111   2.532   3.775   6.172
    1   AR   Ar  112   2.937   4.527   5.523
    1   AR   Ar  113   1.876   5.536   0.004
    1   AR   Ar  114   1.647   6.211   1.044
    1   AR   Ar  115   2.573   5.570   0.942
    1   AR   Ar  116   2.742   6.153  -0.257
    1   AR   Ar  117   1.990   5.118   1.864
    1   AR   Ar  118   1.493   6.285   2.639
    1   AR   Ar  119   2.740   5.429   2.547
    1   AR   Ar  120   2.482   6.311   1.932
    1   AR   Ar  121   1.907   5.435   3.629
    1   AR   Ar  122   1.759   6.261   4.424
    1   AR   Ar  123   2.687   5.131   4.384
    1   AR   Ar  124   2.513   6.293   3.307
    1   AR   Ar  125   1.805   5.227   5.207
    1   AR   Ar  126   1.761   6.511   6.297
    1   AR   Ar  127   2.641   5.341   6.234
    1   AR   Ar  128   2.504   6.278   5.337
    1   AR   Ar  129   3.625   7.046   0.198
    1   AR   Ar  130   3.962   1.010   0.881
    1   AR   Ar  131   4.406   6.947   1.271
    1   AR   Ar  132   4.676   1.075  -0.352
    1   AR   Ar  133   3.282   0.001   1.741
    1   AR   Ar  134   3.200   0.836   2.497
    1   AR   Ar  135   4.341   0.292   2.730
    1   AR   Ar  136   4.139   0.942   1.988
    1   AR   Ar  137   3.540   7.042   3.340
    1   AR   Ar  138   3.319   1.060   4.410
    1   AR   Ar  139   4.160   0.269   4.361
    1   AR   Ar  140   4.335   1.095   3.590
    1   AR   Ar  141   3.386   0.057   5.260
    1   AR   Ar  142   3.756   0.817   6.214
    1   AR   Ar  143   4.733   0.127   6.232
    1   AR   Ar  144   4.299   0.739   5.302
    1   AR   Ar  145   3.528   1.595   0.023
    1   AR   Ar  146   3.538   2.689   0.853
    1   AR   Ar  147   4.394   2.061   1.166
    1   AR   Ar  148   4.524   2.807   0.223
    1   AR   Ar  149   3.419   1.777   1.868
    1   AR   Ar  150   3.359   2.359   2.711
    1   AR   Ar  151   4.445   1.798   2.776
    1   AR   Ar  152   4.500   2.692   2.062
    1   AR   Ar  153   3.574   1.848   3.719
    1   AR   Ar  154   3.497   2.873   4.395
    1   AR   Ar  155   4.345   1.659   4.555
    1   AR   Ar  156   4.688   2.728   3.672
    1   AR   Ar  157   3.683   1.851   5.271
    1   AR   Ar  158   3.445   2.484   6.073
    1   AR   Ar  159   4.590   1.864   6.424
    1   AR   Ar  160   4.317   2.785   5.259
    1   AR   Ar  161   3.534   3.855   0.098
    1   AR   Ar  162   3.565   4.644   0.719
    1   AR   Ar  163   4.462   3.759   0.918
    1   AR   Ar  164   4.550   4.628   0.162
    1   AR   Ar  165   3.512   3.891   1.371
    1   AR   Ar  166   3.541   4.377   2.597
    1   AR   Ar  167   4.437   3.419   2.742
    1   AR   Ar  168   4.514   4.304   1.894
    1   AR   Ar  169   3.375   3.390   3.291
    1   AR   Ar  170   3.594   4.641   4.490
    1   AR   Ar  171   4.170   3.640   4.296
    1   AR   Ar  172   4.474   4.382   3.426
    1   AR   Ar  173   3.708   3.724   5.394
    1   AR   Ar  174   3.865   4.360   6.221
    1   AR   Ar  175   4.619   3.496   5.864
    1   AR   Ar  176   4.435   4.525   5.087
    1   AR   Ar  177   3.654   5.556   0.116
    1   AR   Ar  178   3.458   6.197   1.017
    1   AR   Ar  179   4.201   5.273   1.065
    1   AR   Ar  180   4.404   6.280   0.169
    1   AR   Ar  181   3.651   5.313   2.044
    1   AR   Ar  182   3.466   6.039   2.830
    1   AR   Ar  183   4.550   5.062   2.650
    1   AR   Ar  184   4.415   6.043   1.907
    1   AR   Ar  185   3.518   5.565   3.775
    1   AR   Ar  186   3.431   6.448   4.328
    1   AR   Ar  187   4.546   5.390   4.310
    1   AR   Ar  188   4.370   6.149   3.429
    1   AR   Ar  189   3.521   5.344   5.182
    1   AR   Ar  190   3.471   6.279   5.986
    1   AR   Ar  191   4.580   5.324   5.948
    1   AR   Ar  192   4.431   6.577   5.202
    1   AR   Ar  193   4.943   0.008   0.316
    1   AR   Ar  194   5.043   0.731   1.063
    1   AR   Ar  195   5.998   0.149   1.096
    1   AR   Ar  196   6.205   0.755   0.131
    1   AR   Ar  197   5.047   0.078   1.999
    1   AR   Ar  198   5.097   0.915   2.585
    1   AR   Ar  199   6.286   0.163   2.429
    1   AR   Ar  200   6.037   1.127   1.732
    1   AR   Ar  201   5.074   0.077   3.639
    1   AR   Ar  202   5.102   0.791   4.579
    1   AR   Ar  203   6.312   0.067   4.528
    1   AR   Ar  204   6.253   0.966   3.345
    1   AR   Ar  205   5.567   7.032   5.189
    1   AR   Ar  206   5.529   0.845   6.342
    1   AR   Ar  207   6.415   6.987   6.294
    1   AR   Ar  208   6.328   0.823   5.415
    1   AR   Ar  209   5.416   1.855  -0.181
    1   AR   Ar  210   5.390   2.454   0.794
    1   AR   Ar  211   6.300   1.721   0.550
    1   AR   Ar  212   6.363   2.974   0.273
    1   AR   Ar  213   5.485   1.978   2.218
    1   AR   Ar  214   5.256   2.755   2.857
    1   AR   Ar  215   6.355   1.853   2.737
    1   AR   Ar  216   6.570   2.623   1.616
    1   AR   Ar  217   5.395   1.623   3.434
    1   AR   Ar  218   5.597   2.884   4.347
    1   AR   Ar  219   6.312   1.420   4.320
    1   AR   Ar  220   6.396   2.693   3.603
    1   AR   Ar  221   5.431   2.127   5.065
    1   AR   Ar  222   5.202   2.663   5.929
    1   AR   Ar  223   6.243   1.609   6.107
    1   AR   Ar  224   6.527   2.903   5.384
    1   AR   Ar  225   5.479   3.390   0.028
    1   AR   Ar  226   5.082   4.589   1.091
    1   AR   Ar  227   6.122   3.960   0.763
    1   AR   Ar  228   6.090   4.550  -0.152
    1   AR   Ar  229   5.256   3.374   1.656
    1   AR   Ar  230   5.299   4.170   2.562
    1   AR   Ar  231   6.236   3.646   2.532
    1   AR   Ar  232   6.126   4.299   1.769
    1   AR   Ar  233   5.179   3.655   3.708
    1   AR   Ar  234   5.546   4.176   4.516
    1   AR   Ar  235   6.500   3.562   4.392
    1   AR   Ar  236   6.529   4.471   3.723
    1   AR   Ar  237   5.495   3.444   5.359
    1   AR   Ar  238   5.077   4.462   6.200
    1   AR   Ar  239   5.833   3.377   6.343
    1   AR   Ar  240   6.153   4.482   5.381
    1   AR   Ar  241   5.204   5.350   0.368
    1   AR   Ar  242   5.212   6.298   0.975
    1   AR   Ar  243   6.195   5.112   0.837
    1   AR   Ar  244   6.255   6.158   0.252
    1   AR   Ar  245   5.517   5.184   1.898
    1   AR   Ar  246   5.130   6.394   2.630
    1   AR   Ar  247   6.033   4.822   2.802
    1   AR   Ar  248   6.422   6.342   1.589
    1   AR   Ar  249   5.332   5.622   3.375
    1   AR   Ar  250   5.341   6.079   4.478
    1   AR   Ar  251   6.471   5.424   4.422
    1   AR   Ar  252   6.174   6.431   3.799
    1   AR   Ar  253   5.415   5.253   5.246
    1   AR   Ar  254   5.725   6.013   5.793
    1   AR   Ar  255   6.124   5.103   6.361
    1   AR   Ar  256   6.513   6.340   5.287
    7.12000  7.12000 12.00000
Argon-slab step 80
  256
    1   AR   Ar    1   7.022   7.056   0.132
    1   AR   Ar    2   7.026   0.741   1.127
    1   AR   Ar    3   0.770   6.909   0.961
    1   AR   Ar    4   0.905   0.535   0.153
    1   AR   Ar    5   0.129   7.083   1.790
    1   AR   Ar    6   0.202   0.814   2.801
    1   AR   Ar    7   0.795   6.900   2.855
    1   AR   Ar    8   0.823   0.897   1.860
    1   AR   Ar    9   6.949   0.103   3.575
    1   AR   Ar   10   0.151   0.751   4.409
    1   AR   Ar   11   0.862   7.077   4.625
    1   AR   Ar   12   0.938   0.577   3.645
    1   AR   Ar   13   0.086   0.028   5.297
    1   AR   Ar   14   0.100   1.019   5.841
    1   AR   Ar   15   1.019   0.100   6.368
    1   AR   Ar   16   1.173   0.727   5.527
    1   AR   Ar   17   0.322   1.327  -0.163
    1   AR   Ar   18   0.172   2.907   0.719
    1   AR   Ar   19   0.853   1.928   0.973
    1   AR   Ar   20   0.873   2.519  -0.080
    1   AR   Ar   21   0.046   1.597   1.686
    1   AR   Ar   22   0.147   2.528   2.505
    1   AR   Ar   23   0.810   1.796   2.636
    1   AR   Ar   24   0.663   2.951   1.815
    1   AR   Ar   25   0.083   1.947   3.706
    1   AR   Ar   26   0.105   2.666   4.535
    1   AR   Ar   27   0.683   1.760   4.638
    1   AR   Ar   28   1.104   2.396   3.700
    1   AR   Ar   29   6.909   1.906   5.330
    1   AR   Ar   30   0.448   2.976   6.036
    1   AR   Ar   31   1.322   1.489   6.355
    1   AR   Ar   32   0.919   2.821   5.087
    1   AR   Ar   33   0.021   3.747  -0.007
    1   AR   Ar   34   7.096   4.414   0.735
    1   AR   Ar   35   0.918   3.681   0.653
    1   AR   Ar   36   1.151   4.490   0.008
    1   AR   Ar   37   0.286   4.040   1.609
    1   AR   Ar   38   7.050   4.438   2.738
    1   AR   Ar   39   0.809   3.688   2.662
    1   AR   Ar   40   0.833   4.855   1.957
    1   AR   Ar   41   0.188   3.333   3.485
    1   AR   Ar   42   7.073   4.515   4.637
    1   AR   Ar   43   0.920   3.469   4.335
    1   AR   Ar   44   0.795   4.276   3.558
    1   AR   Ar   45   0.187   3.634   5.256
    1   AR   Ar   46   7.011   4.306   6.011
    1   AR   Ar   47   1.010   3.847   6.010
    1   AR   Ar   48   0.829   4.674   5.316
    1   AR   Ar   49   7.094   5.026  -0.026
    1   AR   Ar   50   0.077   6.049   0.943
    1   AR   Ar   51   0.987   5.379   1.089
    1   AR   Ar   52   0.683   5.904   0.124
    1   AR   Ar   53   6.887   5.461   2.043
    1   AR   Ar   54   7.072   6.443   2.671
    1   AR   Ar   55   0.657   5.548   2.723
    1   AR   Ar   56   0.713   6.221   1.877
    1   AR   Ar   57   0.066   5.391   3.595
    1   AR   Ar   58   0.055   6.346   4.222
    1   AR   Ar   59   0.808   5.287   4.484
    1   AR   Ar   60   0.923   6.061   3.569
    1   AR   Ar   61   7.035   5.422   5.451
    1   AR   Ar   62   0.119   6.196   6.160
    1   AR   Ar   63   1.251   5.587   6.027
    1   AR   Ar   64   0.927   6.460   5.511
    1   AR   Ar   65   1.471   6.546  -0.016
    1   AR   Ar   66   1.632   0.831   1.254
    1   AR   Ar   67   2.375   6.651   0.577
    1   AR   Ar   68   2.407   0.782   0.226
    1   AR   Ar   69   1.501   7.117   1.864
    1   AR   Ar   70   1.698   0.969   2.661
    1   AR   Ar   71   2.527   0.063   2.751
    1   AR   Ar   72   2.773   0.943   1.536
    1   AR   Ar   73   1.894   7.096   3.536
    1   AR   Ar   74   1.565   0.712   4.575
    1   AR   Ar   75   2.620   7.117   4.548
    1   AR   Ar   76   2.473   0.940   3.541
    1   AR   Ar   77   1.842   7.062   5.313
    1   AR   Ar   78   2.069   0.754   6.139
    1   AR   Ar   79   2.667   7.053   6.103
    1   AR   Ar   80   3.029   1.073   5.344
    1   AR   Ar   81   1.891   1.901   0.063
    1   AR   Ar   82   1.567   2.955   1.047
    1   AR   Ar   83   2.628   1.697   0.850
    1   AR   Ar   84   2.581   2.680  -0.176
    1   AR   Ar   85   1.524   1.974   1.764
    1   AR   Ar   86   1.766   2.618   2.605
    1   AR   Ar   87   2.571   1.782   2.547
    1   AR   Ar   88   2.544   2.613   1.920
    1   AR   Ar   89   1.605   1.450   3.629
    1   AR   Ar   90   1.949   2.888   4.617
    1   AR   Ar   91   2.310   1.489   4.562
    1   AR   Ar   92   2.621   2.646   3.623
    1   AR   Ar   93   1.707   1.720   5.381
    1   AR   Ar   94   2.085   2.617   6.135
    1   AR   Ar   95   2.661   1.724   6.156
    1   AR   Ar   96   2.760   2.568   5.273
    1   AR   Ar   97   1.629   3.399  -0.232
    1   AR   Ar   98   1.787   4.468   0.723
    1   AR   Ar   99   2.539   3.240   0.814
    1   AR   Ar  100   2.592   4.674   0.177
    1   AR   Ar  101   1.522   3.533   1.999
    1   AR   Ar  102   1.558   4.563   2.682
    1   AR   Ar  103   2.493   3.737   2.634
    1   AR   Ar  104   2.919   4.568   1.802
    1   AR   Ar  105   1.757   3.413   3.653
    1   AR   Ar  106   1.499   4.350   4.318
    1   AR   Ar  107   2.646   3.951   4.162
    1   AR   Ar  108   2.933   4.759   3.465
    1   AR   Ar  109   1.764   3.717   5.309
    1   AR   Ar  110   1.711   4.674   6.340
    1   AR   Ar  111   2.560   3.780   6.215
    1   AR   Ar  112   2.940   4.549   5.541
    1   AR   Ar  113   1.880   5.568   0.007
    1   AR   Ar  114   1.639   6.188   1.060
    1   AR   Ar  115   2.564   5.559   0.949
    1   AR   Ar  116   2.738   6.150  -0.266
    1   AR   Ar  117   1.976   5.124   1.861
    1   AR   Ar  118   1.481   6.295   2.634
    1   AR   Ar  119   2.744   5.431   2.530
    1   AR   Ar  120   2.505   6.331   1.924
    1   AR   Ar  121   1.892   5.420   3.652
    1   AR   Ar  122   1.748   6.267   4.401
    1   AR   Ar  123   2.685   5.176   4.381
    1   AR   Ar  124   2.505   6.293   3.309
    1   AR   Ar  125   1.801   5.225   5.190
    1   AR   Ar  126   1.765   6.500   6.341
    1   AR   Ar  127   2.661   5.341   6.251
    1   AR   Ar  128   2.530   6.249   5.321
    1   AR   Ar  129   3.637   7.054   0.210
    1   AR   Ar  130   3.983   0.996   0.874
    1   AR   Ar  131   4.414   6.937   1.288
    1   AR   Ar  132   4.694   1.089  -0.342
    1   AR   Ar  133   3.281   0.011   1.728
    1   AR   Ar  134   3.204   0.837   2.514
    1   AR   Ar  135   4.359   0.276   2.763
    1   AR   Ar  136   4.150   0.932   1.995
    1   AR   Ar  137   3.538   7.043   3.339
    1   AR   Ar  138   3.294   1.067   4.367
    1   AR   Ar  139   4.158   0.306   4.337
    1   AR   Ar  140   4.334   1.083   3.556
    1   AR   Ar  141   3.394   0.024   5.242
    1   AR   Ar  142   3.774   0.809   6.206
    1   AR   Ar  143   4.738   0.147   6.232
    1   AR   Ar  144   4.293   0.759   5.296
    1   AR   Ar  145   3.531   1.603  -0.004
    1   AR   Ar  146   3.554   2.696   0.835
    1   AR   Ar  147   4.390   2.060   1.147
    1   AR   Ar  148   4.520   2.807   0.260
    1   AR   Ar  149   3.424   1.784   1.878
    1   AR   Ar  150   3.353   2.365   2.718
    1   AR   Ar  151   4.445   1.813   2.810
    1   AR   Ar  152   4.516   2.683   2.049
    1   AR   Ar  153   3.573   1.853   3.765
    1   AR   Ar  154   3.495   2.824   4.416
    1   AR   Ar  155   4.386   1.667   4.526
    1   AR   Ar  156   4.678   2.720   3.670
    1   AR   Ar  157   3.715   1.861   5.260
    1   AR   Ar  158   3.436   2.463   6.054
    1   AR   Ar  159   4.566   1.831   6.423
    1   AR   Ar  160   4.303   2.808   5.262
    1   AR   Ar  161   3.528   3.843   0.100
    1   AR   Ar  162   3.568   4.648   0.730
    1   AR   Ar  163   4.461   3.732   0.911
    1   AR   Ar  164   4.547   4.616   0.178
    1   AR   Ar  165   3.498   3.891   1.349
    1   AR   Ar  166   3.510   4.350   2.607
    1   AR   Ar  167   4.430   3.442   2.764
    1   AR   Ar  168   4.522   4.295   1.876
    1   AR   Ar  169   3.338   3.398   3.279
    1   AR   Ar  170   3.583   4.655   4.455
    1   AR   Ar  171   4.161   3.635   4.267
    1   AR   Ar  172   4.474   4.378   3.418
    1   AR   Ar  173   3.710   3.737   5.375
    1   AR   Ar  174   3.852   4.373   6.216
    1   AR   Ar  175   4.583   3.510   5.883
    1   AR   Ar  176   4.462   4.540   5.077
    1   AR   Ar  177   3.647   5.574   0.108
    1   AR   Ar  178   3.463   6.201   1.054
    1   AR   Ar  179   4.226   5.299   1.089
    1   AR   Ar  180   4.399   6.254   0.190
    1   AR   Ar  181   3.658   5.322   2.033
    1   AR   Ar  182   3.463   6.043   2.846
    1   AR   Ar  183   4.611   5.061   2.659
    1   AR   Ar  184   4.410   6.047   1.930
    1   AR   Ar  185   3.523   5.575   3.778
    1   AR   Ar  186   3.395   6.427   4.311
    1   AR   Ar  187   4.522   5.371   4.305
    1   AR   Ar  188   4.368   6.161   3.454
    1   AR   Ar  189   3.518   5.355   5.142
    1   AR   Ar  190   3.460   6.280   5.976
    1   AR   Ar  191   4.570   5.307   5.948
    1   AR   Ar  192   4.427   6.605   5.182
    1   AR   Ar  193   4.899   0.037   0.311
    1   AR   Ar  194   5.055   0.719   1.068
    1   AR   Ar  195   5.988   0.184   1.118
    1   AR   Ar  196   6.172   0.739   0.133
    1   AR   Ar  197   5.037   0.058   2.004
    1   AR   Ar  198   5.088   0.922   2.586
    1   AR   Ar  199   6.265   0.183   2.435
    1   AR   Ar  200   6.060   1.159   1.730
    1   AR   Ar  201   5.043   0.105   3.637
    1   AR   Ar  202   5.113   0.815   4.567
    1   AR   Ar  203   6.325   0.098   4.516
    1   AR   Ar  204   6.227   0.969   3.340
    1   AR   Ar  205   5.569   7.021   5.162
    1   AR   Ar  206   5.514   0.847   6.352
    1   AR   Ar  207   6.450   6.961   6.290
    1   AR   Ar  208   6.312   0.845   5.391
    1   AR   Ar  209   5.430   1.854  -0.194
    1   AR   Ar  210   5.378   2.449   0.820
    1   AR   Ar  211   6.311   1.737   0.553
    1   AR   Ar  212   6.380   2.993   0.266
    1   AR   Ar  213   5.471   1.972   2.230
    1   AR   Ar  214   5.250   2.770   2.864
    1   AR   Ar  215   6.349   1.840   2.750
    1   AR   Ar  216   6.592   2.651   1.614
    1   AR   Ar  217   5.398   1.605   3.435
    1   AR   Ar  218   5.625   2.916   4.343
    1   AR   Ar  219   6.305   1.419   4.307
    1   AR   Ar  220   6.418   2.683   3.574
    1   AR   Ar  221   5.384   2.126   5.067
    1   AR   Ar  222   5.224   2.649   5.917
    1   AR   Ar  223   6.249   1.592   6.108
    1   AR   Ar  224   6.537   2.915   5.376
    1   AR   Ar  225   5.500   3.420   0.020
    1   AR   Ar  226   5.095   4.573   1.101
    1   AR   Ar  227   6.117   3.972   0.783
    1   AR   Ar  228   6.090   4.568  -0.166
    1   AR   Ar  229   5.256   3.339   1.649
    1   AR   Ar  230   5.283   4.155   2.582
    1   AR   Ar  231   6.252   3.640   2.581
    1   AR   Ar  232   6.109   4.312   1.788
    1   AR   Ar  233   5.178   3.642   3.705
    1   AR   Ar  234   5.554   4.180   4.510
    1   AR   Ar  235   6.509   3.547   4.419
    1   AR   Ar  236   6.555   4.474   3.730
    1   AR   Ar  237   5.514   3.486   5.344
    1   AR   Ar  238   5.060   4.471   6.180
    1   AR   Ar  239   5.855   3.425   6.371
    1   AR   Ar  240   6.112   4.488   5.376
    1   AR   Ar  241   5.208   5.386   0.377
    1   AR   Ar  242   5.215   6.314   1.003
    1   AR   Ar  243   6.187   5.059   0.896
    1   AR   Ar  244   6.264   6.161   0.265
    1   AR   Ar  245   5.507   5.175   1.925
    1   AR   Ar  246   5.134   6.410   2.651
    1   AR   Ar  247   6.042   4.792   2.801
    1   AR   Ar  248   6.418   6.344   1.602
    1   AR   Ar  249   5.376   5.617   3.364
    1   AR   Ar  250   5.327   6.108   4.482
    1   AR   Ar  251   6.425   5.421   4.422
    1   AR   Ar  252   6.138   6.433   3.797
    1   AR   Ar  253   5.443   5.220   5.210
    1   AR   Ar  254   5.745   6.052   5.813
    1   AR   Ar  255   6.121   5.090   6.352
    1   AR   Ar  256   6.506   6.319   5.283
    7.12000  7.12000 12.00000
Argon-slab step 85
  256
    1   AR   Ar    1   7.021   7.021   0.131
    1   AR   Ar    2   6.991   0.724   1.115
    1   AR   Ar    3   0.765   6.912   0.971
    1   AR   Ar    4   0.915   0.518   0.162
    1   AR   Ar    5   0.126   7.075   1.785
    1   AR   Ar    6   0.208   0.799   2.802
    1   AR   Ar    7   0.785   6.904   2.889
    1   AR   Ar    8   0.833   0.877   1.878
    1   AR   Ar    9   6.982   0.067   3.550
    1   AR   Ar   10   0.141   0.750   4.369
    1   AR   Ar   11   0.863   7.055   4.611
    1   AR   Ar   12   0.914   0.548   3.653
    1   AR   Ar   13   0.063   0.032   5.252
    1   AR   Ar   14   0.082   1.047   5.853
    1   AR   Ar   15   1.023   0.108   6.395
    1   AR   Ar   16   1.184   0.691   5.570
    1   AR   Ar   17   0.325   1.313  -0.157
    1   AR   Ar   18   0.184   2.881   0.687
    1   AR   Ar   19   0.831   1.946   0.965
    1   AR   Ar   20   0.889   2.546  -0.105
    1   AR   Ar   21   0.040   1.609   1.694
    1   AR   Ar   22   0.141   2.545   2.514
    1   AR   Ar   23   0.813   1.797   2.650
    1   AR   Ar   24   0.677   2.971   1.805
    1   AR   Ar   25   0.098   1.932   3.748
    1   AR   Ar   26   0.133   2.700   4.524
    1   AR   Ar   27   0.713   1.776   4.674
    1   AR   Ar   28   1.105   2.398   3.714
    1   AR   Ar   29   6.909   1.910   5.310
    1   AR   Ar   30   0.471   2.960   6.050
    1   AR   Ar   31   1.339   1.477   6.352
    1   AR   Ar   32   0.963   2.828   5.088
    1   AR   Ar   33   0.031   3.756  -0.010
    1   AR   Ar   34   7.109   4.413   0.737
    1   AR   Ar   35   0.927   3.700   0.643
    1   AR   Ar   36   1.136   4.492  -0.009
    1   AR   Ar   37   0.291   4.050   1.626
    1   AR   Ar   38   7.065   4.437   2.736
    1   AR   Ar   39   0.793   3.692   2.639
    1   AR   Ar   40   0.829   4.885   1.967
    1   AR   Ar   41   0.198   3.316   3.488
    1   AR   Ar   42   7.084   4.505   4.640
    1   AR   Ar   43   0.891   3.465   4.342
    1   AR   Ar   44   0.784   4.286   3.520
    1   AR   Ar   45   0.205   3.649   5.210
    1   AR   Ar   46   7.031   4.299   6.012
    1   AR   Ar   47   1.000   3.850   6.009
    1   AR   Ar   48   0.823   4.651   5.313
    1   AR   Ar   49   7.087   5.014  -0.019
    1   AR   Ar   50   0.089   6.038   0.975
    1   AR   Ar   51   0.981   5.374   1.086
    1   AR   Ar   52   0.681   5.873   0.140
    1   AR   Ar   53   6.836   5.486   2.063
    1   AR   Ar   54   7.068   6.450   2.665
    1   AR   Ar   55   0.646   5.547   2.714
    1   AR   Ar   56   0.720   6.219   1.857
    1   AR   Ar   57   0.087   5.410   3.576
    1   AR   Ar   58   0.083   6.373   4.273
    1   AR   Ar   59   0.816   5.316   4.480
    1   AR   Ar   60   0.928   6.052   3.593
    1   AR   Ar   61   7.002   5.421   5.437
    1   AR   Ar   62   0.126   6.203   6.146
    1   AR   Ar   63   1.247   5.598   6.041
    1   AR   Ar   64   0.940   6.460   5.510
    1   AR   Ar   65   1.484   6.546  -0.050
    1   AR   Ar   66   1.657   0.850   1.261
    1   AR   Ar   67   2.374   6.637   0.561
    1   AR   Ar   68   2.368   0.760   0.240
    1   AR   Ar   69   1.485   7.099   1.861
    1   AR   Ar   70   1.715   0.973   2.674
    1   AR   Ar   71   2.505   0.071   2.759
    1   AR   Ar   72   2.804   0.919   1.505
    1   AR   Ar   73   1.887   7.088   3.547
    1   AR   Ar   74   1.589   0.741   4.545
    1   AR   Ar   75   2.563   0.020   4.546
    1   AR   Ar   76   2.475   0.954   3.533
    1   AR   Ar   77   1.847   7.051   5.280
    1   AR   Ar   78   2.080   0.747   6.110
    1   AR   Ar   79   2.654   7.055   6.119
    1   AR   Ar   80   3.006   1.064   5.339
    1   AR   Ar   81   1.866   1.873   0.103
    1   AR   Ar   82   1.574   2.957   1.042
    1   AR   Ar   83   2.611   1.753   0.871
    1   AR   Ar   84   2.605   2.710  -0.169
    1   AR   Ar   85   1.544   1.957   1.755
    1   AR   Ar   86   1.776   2.653   2.604
    1   AR   Ar   87   2.536   1.761   2.517
    1   AR   Ar   88   2.554   2.609   1.882
    1   AR   Ar   89   1.600   1.452   3.630
    1   AR   Ar   90   1.958   2.893   4.612
    1   AR   Ar   91   2.286   1.473   4.570
    1   AR   Ar   92   2.615   2.627   3.649
    1   AR   Ar   93   1.684   1.678   5.378
    1   AR   Ar   94   2.111   2.641   6.145
    1   AR   Ar   95   2.654   1.747   6.180
    1   AR   Ar   96   2.771   2.568   5.261
    1   AR   Ar   97   1.635   3.411  -0.246
    1   AR   Ar   98   1.807   4.490   0.729
    1   AR   Ar   99   2.523   3.218   0.804
    1   AR   Ar  100   2.601   4.668   0.184
    1   AR   Ar  101   1.521   3.487   1.976
    1   AR   Ar  102   1.550   4.585   2.703
    1   AR   Ar  103   2.510   3.735   2.636
    1   AR   Ar  104   2.900   4.571   1.786
    1   AR   Ar  105   1.764   3.414   3.654
    1   AR   Ar  106   1.506   4.317   4.304
    1   AR   Ar  107   2.676   3.966   4.163
    1   AR   Ar  108   2.952   4.784   3.465
    1   AR   Ar  109   1.756   3.731   5.296
    1   AR   Ar  110   1.704   4.689   6.318
    1   AR   Ar  111   2.587   3.784   6.256
    1   AR   Ar  112   2.941   4.570   5.557
    1   AR   Ar  113   1.885   5.573   0.013
    1   AR   Ar  114   1.625   6.164   1.081
    1   AR   Ar  115   2.555   5.548   0.957
    1   AR   Ar  116   2.737   6.147  -0.276
    1   AR   Ar  117   1.959   5.131   1.854
    1   AR   Ar  118   1.492   6.288   2.625
    1   AR   Ar  119   2.738   5.427   2.516
    1   AR   Ar  120   2.527   6.352   1.916
    1   AR   Ar  121   1.876   5.403   3.674
    1   AR   Ar  122   1.737   6.274   4.377
    1   AR   Ar  123   2.677   5.225   4.384
    1   AR   Ar  124   2.501   6.287   3.312
    1   AR   Ar  125   1.800   5.222   5.170
    1   AR   Ar  126   1.772   6.485   6.382
    1   AR   Ar  127   2.679   5.343   6.265
    1   AR   Ar  128   2.552   6.237   5.306
    1   AR   Ar  129   3.648   7.062   0.225
    1   AR   Ar  130   3.992   0.983   0.872
    1   AR   Ar  131   4.409   6.926   1.295
    1   AR   Ar  132   4.711   1.100  -0.330
    1   AR   Ar  133   3.280   0.028   1.777
    1   AR   Ar  134   3.211   0.841   2.535
    1   AR   Ar  135   4.368   0.249   2.803
    1   AR   Ar  136   4.161   0.926   1.996
    1   AR   Ar  137   3.534   7.044   3.341
    1   AR   Ar  138   3.273   1.068   4.320
    1   AR   Ar  139   4.154   0.340   4.312
    1   AR   Ar  140   4.333   1.066   3.524
    1   AR   Ar  141   3.407   7.112   5.225
    1   AR   Ar  142   3.790   0.802   6.199
    1   AR   Ar  143   4.741   0.165   6.229
    1   AR   Ar  144   4.288   0.780   5.290
    1   AR   Ar  145   3.534   1.611  -0.028
    1   AR   Ar  146   3.568   2.704   0.817
    1   AR   Ar  147   4.374   2.054   1.105
    1   AR   Ar  148   4.516   2.808   0.297
    1   AR   Ar  149   3.432   1.789   1.881
    1   AR   Ar  150   3.357   2.382   2.734
    1   AR   Ar  151   4.444   1.832   2.841
    1   AR   Ar  152   4.531   2.669   2.034
    1   AR   Ar  153   3.573   1.864   3.807
    1   AR   Ar  154   3.492   2.771   4.438
    1   AR   Ar  155   4.431   1.674   4.493
    1   AR   Ar  156   4.659   2.707   3.678
    1   AR   Ar  157   3.745   1.871   5.249
    1   AR   Ar  158   3.431   2.445   6.040
    1   AR   Ar  159   4.541   1.799   6.419
    1   AR   Ar  160   4.287   2.820   5.254
    1   AR   Ar  161   3.521   3.827   0.102
    1   AR   Ar  162   3.565   4.660   0.734
    1   AR   Ar  163   4.460   3.703   0.903
    1   AR   Ar  164   4.580   4.622   0.198
    1   AR   Ar  165   3.494   3.870   1.343
    1   AR   Ar  166   3.485   4.321   2.622
    1   AR   Ar  167   4.420   3.471   2.789
    1   AR   Ar  168   4.522   4.283   1.862
    1   AR   Ar  169   3.304   3.406   3.269
    1   AR   Ar  170   3.575   4.657   4.409
    1   AR   Ar  171   4.154   3.634   4.239
    1   AR   Ar  172   4.471   4.374   3.413
    1   AR   Ar  173   3.707   3.750   5.350
    1   AR   Ar  174   3.840   4.388   6.209
    1   AR   Ar  175   4.551   3.534   5.913
    1   AR   Ar  176   4.491   4.554   5.070
    1   AR   Ar  177   3.634   5.587   0.101
    1   AR   Ar  178   3.469   6.206   1.091
    1   AR   Ar  179   4.259   5.333   1.115
    1   AR   Ar  180   4.399   6.227   0.213
    1   AR   Ar  181   3.681   5.327   2.016
    1   AR   Ar  182   3.467   6.062   2.857
    1   AR   Ar  183   4.673   5.065   2.664
    1   AR   Ar  184   4.407   6.053   1.951
    1   AR   Ar  185   3.476   5.573   3.754
    1   AR   Ar  186   3.386   6.432   4.314
    1   AR   Ar  187   4.496   5.352   4.299
    1   AR   Ar  188   4.368   6.175   3.479
    1   AR   Ar  189   3.515   5.377   5.110
    1   AR   Ar  190   3.450   6.280   5.964
    1   AR   Ar  191   4.553   5.297   5.944
    1   AR   Ar  192   4.423   6.634   5.162
    1   AR   Ar  193   4.857   0.067   0.303
    1   AR   Ar  194   5.067   0.711   1.078
    1   AR   Ar  195   5.980   0.217   1.140
    1   AR   Ar  196   6.139   0.722   0.135
    1   AR   Ar  197   5.038   0.043   2.007
    1   AR   Ar  198   5.090   0.939   2.587
    1   AR   Ar  199   6.244   0.203   2.440
    1   AR   Ar  200   6.059   1.172   1.730
    1   AR   Ar  201   5.012   0.134   3.634
    1   AR   Ar  202   5.126   0.840   4.553
    1   AR   Ar  203   6.340   0.140   4.493
    1   AR   Ar  204   6.203   0.966   3.335
    1   AR   Ar  205   5.565   7.008   5.139
    1   AR   Ar  206   5.500   0.851   6.360
    1   AR   Ar  207   6.483   6.937   6.282
    1   AR   Ar  208   6.292   0.862   5.361
    1   AR   Ar  209   5.446   1.854  -0.205
    1   AR   Ar  210   5.368   2.445   0.848
    1   AR   Ar  211   6.323   1.755   0.557
    1   AR   Ar  212   6.398   3.007   0.261
    1   AR   Ar  213   5.452   1.965   2.236
    1   AR   Ar  214   5.252   2.784   2.866
    1   AR   Ar  215   6.349   1.828   2.764
    1   AR   Ar  216   6.617   2.637   1.604
    1   AR   Ar  217   5.396   1.590   3.435
    1   AR   Ar  218   5.653   2.947   4.340
    1   AR   Ar  219   6.297   1.419   4.299
    1   AR   Ar  220   6.438   2.674   3.546
    1   AR   Ar  221   5.337   2.119   5.064
    1   AR   Ar  222   5.241   2.643   5.913
    1   AR   Ar  223   6.255   1.579   6.112
    1   AR   Ar  224   6.543   2.928   5.370
    1   AR   Ar  225   5.513   3.454   0.011
    1   AR   Ar  226   5.116   4.560   1.108
    1   AR   Ar  227   6.110   3.981   0.801
    1   AR   Ar  228   6.089   4.586  -0.177
    1   AR   Ar  229   5.258   3.307   1.642
    1   AR   Ar  230   5.264   4.136   2.602
    1   AR   Ar  231   6.269   3.632   2.633
    1   AR   Ar  232   6.084   4.337   1.753
    1   AR   Ar  233   5.176   3.650   3.660
    1   AR   Ar  234   5.562   4.187   4.506
    1   AR   Ar  235   6.519   3.534   4.446
    1   AR   Ar  236   6.580   4.476   3.735
    1   AR   Ar  237   5.535   3.529   5.324
    1   AR   Ar  238   5.050   4.471   6.160
    1   AR   Ar  239   5.877   3.474   6.398
    1   AR   Ar  240   6.078   4.488   5.372
    1   AR   Ar  241   5.216   5.428   0.387
    1   AR   Ar  242   5.221   6.328   1.031
    1   AR   Ar  243   6.178   5.008   0.955
    1   AR   Ar  244   6.273   6.164   0.280
    1   AR   Ar  245   5.494   5.168   1.952
    1   AR   Ar  246   5.139   6.422   2.677
    1   AR   Ar  247   6.055   4.768   2.802
    1   AR   Ar  248   6.398   6.363   1.620
    1   AR   Ar  249   5.430   5.603   3.351
    1   AR   Ar  250   5.315   6.137   4.487
    1   AR   Ar  251   6.355   5.422   4.422
    1   AR   Ar  252   6.101   6.434   3.793
    1   AR   Ar  253   5.464   5.190   5.169
    1   AR   Ar  254   5.752   6.088   5.843
    1   AR   Ar  255   6.116   5.079   6.321
    1   AR   Ar  256   6.509   6.306   5.267
    7.12000  7.12000 12.00000
Argon-slab step 90
  256
    1   AR   Ar    1   7.021   6.987   0.132
    1   AR   Ar    2   6.955   0.708   1.099
    1   AR   Ar    3   0.763   6.913   0.978
    1   AR   Ar    4   0.928   0.497   0.174
    1   AR   Ar    5   0.121   7.070   1.786
    1   AR   Ar    6   0.213   0.784   2.802
    1   AR   Ar    7   0.776   6.900   2.915
    1   AR   Ar    8   0.838   0.857   1.900
    1   AR   Ar    9   7.015   0.030   3.525
    1   AR   Ar   10   0.130   0.752   4.331
    1   AR   Ar   11   0.881   7.079   4.588
    1   AR   Ar   12   0.892   0.519   3.661
    1   AR   Ar   13   0.037   0.038   5.211
    1   AR   Ar   14   0.070   1.071   5.866
    1   AR   Ar   15   1.024   0.114   6.425
    1   AR   Ar   16   1.189   0.659   5.606
    1   AR   Ar   17   0.316   1.315  -0.156
    1   AR   Ar   18   0.203   2.853   0.662
    1   AR   Ar   19   0.808   1.964   0.954
    1   AR   Ar   20   0.906   2.573  -0.127
    1   AR   Ar   21   0.034   1.625   1.704
    1   AR   Ar   22   0.123   2.562   2.532
    1   AR   Ar   23   0.822   1.792   2.665
    1   AR   Ar   24   0.691   2.990   1.783
    1   AR   Ar   25   0.118   1.904   3.802
    1   AR   Ar   26   0.152   2.735   4.509
    1   AR   Ar   27   0.745   1.789   4.709
    1   AR   Ar   28   1.105   2.403   3.728
    1   AR   Ar   29   6.909   1.915   5.286
    1   AR   Ar   30   0.490   2.940   6.063
    1   AR   Ar   31   1.354   1.465   6.351
    1   AR   Ar   32   0.963   2.843   5.101
    1   AR   Ar   33   0.041   3.760  -0.019
    1   AR   Ar   34   0.002   4.413   0.752
    1   AR   Ar   35   0.934   3.719   0.636
    1   AR   Ar   36   1.113   4.498  -0.035
    1   AR   Ar   37   0.298   4.067   1.610
    1   AR   Ar   38   7.083   4.436   2.733
    1   AR   Ar   39   0.787   3.703   2.628
    1   AR   Ar   40   0.826   4.911   1.978
    1   AR   Ar   41   0.207   3.299   3.492
    1   AR   Ar   42   7.096   4.498   4.645
    1   AR   Ar   43   0.860   3.468   4.341
    1   AR   Ar   44   0.769   4.296   3.486
    1   AR   Ar   45   0.225   3.662   5.165
    1   AR   Ar   46   7.051   4.295   6.012
    1   AR   Ar   47   0.990   3.856   6.011
    1   AR   Ar   48   0.820   4.638   5.318
    1   AR   Ar   49   0.004   5.016  -0.004
    1   AR   Ar   50   0.097   6.027   1.009
    1   AR   Ar   51   0.974   5.366   1.078
    1   AR   Ar   52   0.681   5.840   0.154
    1   AR   Ar   53   6.787   5.509   2.084
    1   AR   Ar   54   7.052   6.449   2.657
    1   AR   Ar   55   0.638   5.540   2.708
    1   AR   Ar   56   0.730   6.213   1.837
    1   AR   Ar   57   0.102   5.426   3.560
    1   AR   Ar   58   0.109   6.399   4.325
    1   AR   Ar   59   0.825   5.346   4.474
    1   AR   Ar   60   0.937   6.048   3.621
    1   AR   Ar   61   6.971   5.412   5.422
    1   AR   Ar   62   0.133   6.208   6.132
    1   AR   Ar   63   1.240   5.609   6.054
    1   AR   Ar   64   0.953   6.461   5.506
    1   AR   Ar   65   1.497   6.552  -0.083
    1   AR   Ar   66   1.687   0.870   1.263
    1   AR   Ar   67   2.378   6.627   0.547
    1   AR   Ar   68   2.329   0.739   0.256
    1   AR   Ar   69   1.469   7.078   1.859
    1   AR   Ar   70   1.732   0.975   2.685
    1   AR   Ar   71   2.506   0.073   2.770
    1   AR   Ar   72   2.832   0.896   1.474
    1   AR   Ar   73   1.870   7.082   3.566
    1   AR   Ar   74   1.609   0.766   4.513
    1   AR   Ar   75   2.507   0.045   4.537
    1   AR   Ar   76   2.483   0.963   3.523
    1   AR   Ar   77   1.849   7.039   5.251
    1   AR   Ar   78   2.090   0.747   6.080
    1   AR   Ar   79   2.649   7.051   6.132
    1   AR   Ar   80   2.980   1.054   5.338
    1   AR   Ar   81   1.839   1.846   0.145
    1   AR   Ar   82   1.575   2.952   1.038
    1   AR   Ar   83   2.595   1.812   0.894
    1   AR   Ar   84   2.629   2.738  -0.162
    1   AR   Ar   85   1.541   1.977   1.773
    1   AR   Ar   86   1.784   2.687   2.607
    1   AR   Ar   87   2.539   1.764   2.466
    1   AR   Ar   88   2.549   2.622   1.891
    1   AR   Ar   89   1.594   1.463   3.643
    1   AR   Ar   90   1.967   2.897   4.606
    1   AR   Ar   91   2.271   1.462   4.573
    1   AR   Ar   92   2.608   2.607   3.675
    1   AR   Ar   93   1.666   1.690   5.372
    1   AR   Ar   94   2.135   2.669   6.153
    1   AR   Ar   95   2.646   1.765   6.203
    1   AR   Ar   96   2.780   2.566   5.246
    1   AR   Ar   97   1.642   3.422  -0.257
    1   AR   Ar   98   1.834   4.479   0.746
    1   AR   Ar   99   2.515   3.198   0.793
    1   AR   Ar  100   2.622   4.665   0.185
    1   AR   Ar  101   1.521   3.468   1.955
    1   AR   Ar  102   1.540   4.611   2.705
    1   AR   Ar  103   2.523   3.734   2.637
    1   AR   Ar  104   2.876   4.579   1.769
    1   AR   Ar  105   1.771   3.414   3.654
    1   AR   Ar  106   1.516   4.288   4.292
    1   AR   Ar  107   2.706   3.981   4.165
    1   AR   Ar  108   2.965   4.800   3.457
    1   AR   Ar  109   1.750   3.745   5.281
    1   AR   Ar  110   1.699   4.700   6.295
    1   AR   Ar  111   2.613   3.788   6.296
    1   AR   Ar  112   2.941   4.589   5.570
    1   AR   Ar  113   1.888   5.574   0.023
    1   AR   Ar  114   1.610   6.143   1.106
    1   AR   Ar  115   2.546   5.536   0.964
    1   AR   Ar  116   2.739   6.142  -0.288
    1   AR   Ar  117   1.939   5.140   1.843
    1   AR   Ar  118   1.516   6.272   2.614
    1   AR   Ar  119   2.728   5.419   2.502
    1   AR   Ar  120   2.547   6.371   1.907
    1   AR   Ar  121   1.858   5.387   3.694
    1   AR   Ar  122   1.726   6.282   4.355
    1   AR   Ar  123   2.665   5.276   4.392
    1   AR   Ar  124   2.499   6.274   3.317
    1   AR   Ar  125   1.799   5.219   5.149
    1   AR   Ar  126   1.781   6.480   6.408
    1   AR   Ar  127   2.697   5.346   6.278
    1   AR   Ar  128   2.572   6.236   5.291
    1   AR   Ar  129   3.660   7.070   0.243
    1   AR   Ar  130   3.963   0.980   0.886
    1   AR   Ar  131   4.390   6.916   1.293
    1   AR   Ar  132   4.725   1.109  -0.317
    1   AR   Ar  133   3.283   0.041   1.826
    1   AR   Ar  134   3.219   0.846   2.558
    1   AR   Ar  135   4.373   0.217   2.843
    1   AR   Ar  136   4.173   0.920   1.995
    1   AR   Ar  137   3.526   7.044   3.345
    1   AR   Ar  138   3.251   1.060   4.276
    1   AR   Ar  139   4.148   0.372   4.286
    1   AR   Ar  140   4.333   1.047   3.496
    1   AR   Ar  141   3.421   7.081   5.209
    1   AR   Ar  142   3.803   0.795   6.194
    1   AR   Ar  143   4.739   0.180   6.223
    1   AR   Ar  144   4.283   0.802   5.280
    1   AR   Ar  145   3.537   1.619  -0.050
    1   AR   Ar  146   3.578   2.714   0.800
    1   AR   Ar  147   4.358   2.045   1.066
    1   AR   Ar  148   4.513   2.809   0.332
    1   AR   Ar  149   3.440   1.791   1.879
    1   AR   Ar  150   3.365   2.404   2.754
    1   AR   Ar  151   4.444   1.855   2.869
    1   AR   Ar  152   4.538   2.657   2.018
    1   AR   Ar  153   3.576   1.883   3.842
    1   AR   Ar  154   3.488   2.719   4.459
    1   AR   Ar  155   4.478   1.680   4.456
    1   AR   Ar  156   4.634   2.692   3.693
    1   AR   Ar  157   3.773   1.879   5.237
    1   AR   Ar  158   3.431   2.433   6.033
    1   AR   Ar  159   4.516   1.766   6.412
    1   AR   Ar  160   4.269   2.826   5.241
    1   AR   Ar  161   3.514   3.807   0.104
    1   AR   Ar  162   3.559   4.680   0.735
    1   AR   Ar  163   4.461   3.674   0.894
    1   AR   Ar  164   4.608   4.625   0.216
    1   AR   Ar  165   3.501   3.828   1.358
    1   AR   Ar  166   3.464   4.291   2.638
    1   AR   Ar  167   4.409   3.475   2.810
    1   AR   Ar  168   4.525   4.269   1.871
    1   AR   Ar  169   3.273   3.415   3.261
    1   AR   Ar  170   3.576   4.658   4.380
    1   AR   Ar  171   4.147   3.633   4.210
    1   AR   Ar  172   4.478   4.380   3.411
    1   AR   Ar  173   3.699   3.763   5.319
    1   AR   Ar  174   3.830   4.405   6.203
    1   AR   Ar  175   4.525   3.564   5.950
    1   AR   Ar  176   4.520   4.567   5.064
    1   AR   Ar  177   3.615   5.594   0.095
    1   AR   Ar  178   3.476   6.211   1.128
    1   AR   Ar  179   4.298   5.369   1.140
    1   AR   Ar  180   4.403   6.203   0.240
    1   AR   Ar  181   3.701   5.327   1.999
    1   AR   Ar  182   3.461   6.032   2.854
    1   AR   Ar  183   4.733   5.074   2.667
    1   AR   Ar  184   4.408   6.062   1.973
    1   AR   Ar  185   3.437   5.573   3.736
    1   AR   Ar  186   3.384   6.446   4.325
    1   AR   Ar  187   4.470   5.332   4.293
    1   AR   Ar  188   4.370   6.190   3.505
    1   AR   Ar  189   3.513   5.408   5.083
    1   AR   Ar  190   3.465   6.274   5.977
    1   AR   Ar  191   4.531   5.298   5.935
    1   AR   Ar  192   4.419   6.663   5.141
    1   AR   Ar  193   4.815   0.097   0.293
    1   AR   Ar  194   5.076   0.710   1.092
    1   AR   Ar  195   5.974   0.245   1.164
    1   AR   Ar  196   6.110   0.706   0.139
    1   AR   Ar  197   5.049   0.036   2.010
    1   AR   Ar  198   5.098   0.961   2.589
    1   AR   Ar  199   6.225   0.223   2.445
    1   AR   Ar  200   6.043   1.171   1.730
    1   AR   Ar  201   4.984   0.162   3.633
    1   AR   Ar  202   5.142   0.863   4.539
    1   AR   Ar  203   6.358   0.183   4.468
    1   AR   Ar  204   6.184   0.954   3.328
    1   AR   Ar  205   5.558   6.995   5.120
    1   AR   Ar  206   5.490   0.857   6.368
    1   AR   Ar  207   6.514   6.914   6.272
    1   AR   Ar  208   6.269   0.874   5.325
    1   AR   Ar  209   5.464   1.857  -0.213
    1   AR   Ar  210   5.362   2.440   0.875
    1   AR   Ar  211   6.335   1.773   0.564
    1   AR   Ar  212   6.413   3.019   0.255
    1   AR   Ar  213   5.429   1.956   2.240
    1   AR   Ar  214   5.260   2.799   2.864
    1   AR   Ar  215   6.353   1.819   2.778
    1   AR   Ar  216   6.644   2.596   1.590
    1   AR   Ar  217   5.390   1.579   3.437
    1   AR   Ar  218   5.679   2.976   4.338
    1   AR   Ar  219   6.283   1.422   4.302
    1   AR   Ar  220   6.440   2.663   3.524
    1   AR   Ar  221   5.291   2.108   5.052
    1   AR   Ar  222   5.250   2.655   5.916
    1   AR   Ar  223   6.260   1.571   6.119
    1   AR   Ar  224   6.547   2.941   5.364
    1   AR   Ar  225   5.519   3.490   0.003
    1   AR   Ar  226   5.146   4.549   1.109
    1   AR   Ar  227   6.102   3.983   0.812
    1   AR   Ar  228   6.087   4.603  -0.186
    1   AR   Ar  229   5.263   3.279   1.634
    1   AR   Ar  230   5.244   4.113   2.622
    1   AR   Ar  231   6.286   3.623   2.685
    1   AR   Ar  232   6.061   4.358   1.728
    1   AR   Ar  233   5.177   3.657   3.613
    1   AR   Ar  234   5.570   4.197   4.497
    1   AR   Ar  235   6.531   3.523   4.471
    1   AR   Ar  236   6.602   4.477   3.737
    1   AR   Ar  237   5.555   3.543   5.327
    1   AR   Ar  238   5.047   4.462   6.140
    1   AR   Ar  239   5.899   3.525   6.422
    1   AR   Ar  240   6.061   4.473   5.375
    1   AR   Ar  241   5.226   5.471   0.398
    1   AR   Ar  242   5.230   6.341   1.060
    1   AR   Ar  243   6.169   4.966   1.011
    1   AR   Ar  244   6.282   6.166   0.297
    1   AR   Ar  245   5.479   5.165   1.978
    1   AR   Ar  246   5.144   6.429   2.711
    1   AR   Ar  247   6.070   4.748   2.804
    1   AR   Ar  248   6.390   6.374   1.632
    1   AR   Ar  249   5.483   5.587   3.340
    1   AR   Ar  250   5.301   6.166   4.492
    1   AR   Ar  251   6.285   5.424   4.422
    1   AR   Ar  252   6.066   6.434   3.788
    1   AR   Ar  253   5.472   5.176   5.124
    1   AR   Ar  254   5.748   6.121   5.880
    1   AR   Ar  255   6.111   5.067   6.287
    1   AR   Ar  256   6.520   6.300   5.240
    7.12000  7.12000 12.00000
Argon-slab step 95
  256
    1   AR   Ar    1   7.023   6.953   0.137
    1   AR   Ar    2   6.920   0.694   1.080
    1   AR   Ar    3   0.763   6.914   0.983
    1   AR   Ar    4   0.942   0.475   0.186
    1   AR   Ar    5   0.113   7.067   1.791
    1   AR   Ar    6   0.217   0.771   2.801
    1   AR   Ar    7   0.772   6.887   2.931
    1   AR   Ar    8   0.841   0.837   1.922
    1   AR   Ar    9   7.046   7.113   3.500
    1   AR   Ar   10   0.118   0.758   4.296
    1   AR   Ar   11   0.908   7.114   4.564
    1   AR   Ar   12   0.884   0.504   3.665
    1   AR   Ar   13   0.010   0.047   5.173
    1   AR   Ar   14   0.062   1.091   5.879
    1   AR   Ar   15   1.023   0.116   6.460
    1   AR   Ar   16   1.186   0.634   5.630
    1   AR   Ar   17   0.306   1.319  -0.153
    1   AR   Ar   18   0.229   2.826   0.642
    1   AR   Ar   19   0.788   1.956   0.934
    1   AR   Ar   20   0.924   2.600  -0.148
    1   AR   Ar   21   0.027   1.641   1.717
    1   AR   Ar   22   0.099   2.580   2.555
    1   AR   Ar   23   0.834   1.784   2.680
    1   AR   Ar   24   0.695   3.002   1.752
    1   AR   Ar   25   0.141   1.875   3.816
    1   AR   Ar   26   0.163   2.764   4.490
    1   AR   Ar   27   0.777   1.802   4.744
    1   AR   Ar   28   1.104   2.413   3.743
    1   AR   Ar   29   6.909   1.921   5.258
    1   AR   Ar   30   0.505   2.918   6.075
    1   AR   Ar   31   1.367   1.454   6.352
    1   AR   Ar   32   0.959   2.854   5.126
    1   AR   Ar   33   0.052   3.761  -0.034
    1   AR   Ar   34   0.010   4.413   0.772
    1   AR   Ar   35   0.940   3.736   0.633
    1   AR   Ar   36   1.087   4.507  -0.064
    1   AR   Ar   37   0.309   4.080   1.599
    1   AR   Ar   38   0.004   4.439   2.713
    1   AR   Ar   39   0.790   3.716   2.618
    1   AR   Ar   40   0.822   4.928   1.984
    1   AR   Ar   41   0.217   3.283   3.496
    1   AR   Ar   42   7.107   4.498   4.650
    1   AR   Ar   43   0.833   3.479   4.329
    1   AR   Ar   44   0.745   4.298   3.470
    1   AR   Ar   45   0.248   3.671   5.125
    1   AR   Ar   46   7.069   4.292   6.009
    1   AR   Ar   47   0.980   3.863   6.015
    1   AR   Ar   48   0.823   4.640   5.333
    1   AR   Ar   49   0.021   4.975  -0.006
    1   AR   Ar   50   0.101   6.016   1.043
    1   AR   Ar   51   0.963   5.352   1.065
    1   AR   Ar   52   0.684   5.809   0.166
    1   AR   Ar   53   6.740   5.527   2.106
    1   AR   Ar   54   7.026   6.443   2.646
    1   AR   Ar   55   0.638   5.523   2.706
    1   AR   Ar   56   0.742   6.204   1.820
    1   AR   Ar   57   0.124   5.390   3.561
    1   AR   Ar   58   0.133   6.423   4.376
    1   AR   Ar   59   0.833   5.377   4.468
    1   AR   Ar   60   0.949   6.047   3.648
    1   AR   Ar   61   6.942   5.393   5.406
    1   AR   Ar   62   0.143   6.211   6.117
    1   AR   Ar   63   1.231   5.619   6.067
    1   AR   Ar   64   0.968   6.467   5.499
    1   AR   Ar   65   1.508   6.560  -0.114
    1   AR   Ar   66   1.720   0.892   1.263
    1   AR   Ar   67   2.384   6.620   0.538
    1   AR   Ar   68   2.307   0.745   0.265
    1   AR   Ar   69   1.454   7.056   1.858
    1   AR   Ar   70   1.748   0.976   2.693
    1   AR   Ar   71   2.494   0.078   2.768
    1   AR   Ar   72   2.859   0.878   1.443
    1   AR   Ar   73   1.847   7.079   3.591
    1   AR   Ar   74   1.618   0.778   4.480
    1   AR   Ar   75   2.461   0.072   4.518
    1   AR   Ar   76   2.496   0.969   3.512
    1   AR   Ar   77   1.844   7.024   5.231
    1   AR   Ar   78   2.101   0.756   6.050
    1   AR   Ar   79   2.651   7.038   6.142
    1   AR   Ar   80   2.955   1.042   5.338
    1   AR   Ar   81   1.809   1.819   0.186
    1   AR   Ar   82   1.564   2.942   1.036
    1   AR   Ar   83   2.581   1.872   0.919
    1   AR   Ar   84   2.652   2.766  -0.154
    1   AR   Ar   85   1.539   1.998   1.793
    1   AR   Ar   86   1.791   2.719   2.617
    1   AR   Ar   87   2.538   1.761   2.418
    1   AR   Ar   88   2.546   2.639   1.894
    1   AR   Ar   89   1.584   1.475   3.658
    1   AR   Ar   90   1.975   2.901   4.597
    1   AR   Ar   91   2.294   1.465   4.556
    1   AR   Ar   92   2.602   2.587   3.702
    1   AR   Ar   93   1.653   1.737   5.363
    1   AR   Ar   94   2.156   2.701   6.160
    1   AR   Ar   95   2.637   1.776   6.224
    1   AR   Ar   96   2.785   2.564   5.229
    1   AR   Ar   97   1.629   3.434  -0.260
    1   AR   Ar   98   1.860   4.444   0.770
    1   AR   Ar   99   2.514   3.187   0.791
    1   AR   Ar  100   2.651   4.664   0.179
    1   AR   Ar  101   1.534   3.466   1.934
    1   AR   Ar  102   1.533   4.621   2.718
    1   AR   Ar  103   2.530   3.735   2.634
    1   AR   Ar  104   2.851   4.589   1.751
    1   AR   Ar  105   1.777   3.415   3.652
    1   AR   Ar  106   1.529   4.263   4.282
    1   AR   Ar  107   2.735   3.994   4.166
    1   AR   Ar  108   2.968   4.784   3.446
    1   AR   Ar  109   1.745   3.761   5.263
    1   AR   Ar  110   1.698   4.699   6.272
    1   AR   Ar  111   2.639   3.792   6.334
    1   AR   Ar  112   2.941   4.607   5.579
    1   AR   Ar  113   1.890   5.571   0.037
    1   AR   Ar  114   1.598   6.127   1.133
    1   AR   Ar  115   2.538   5.524   0.972
    1   AR   Ar  116   2.744   6.137  -0.304
    1   AR   Ar  117   1.915   5.151   1.829
    1   AR   Ar  118   1.548   6.250   2.602
    1   AR   Ar  119   2.714   5.408   2.490
    1   AR   Ar  120   2.565   6.388   1.898
    1   AR   Ar  121   1.839   5.369   3.712
    1   AR   Ar  122   1.716   6.290   4.335
    1   AR   Ar  123   2.662   5.288   4.390
    1   AR   Ar  124   2.489   6.267   3.323
    1   AR   Ar  125   1.799   5.216   5.127
    1   AR   Ar  126   1.789   6.488   6.412
    1   AR   Ar  127   2.714   5.352   6.290
    1   AR   Ar  128   2.592   6.234   5.275
    1   AR   Ar  129   3.655   7.072   0.249
    1   AR   Ar  130   3.933   0.976   0.901
    1   AR   Ar  131   4.361   6.907   1.283
    1   AR   Ar  132   4.736   1.116  -0.301
    1   AR   Ar  133   3.290   0.050   1.877
    1   AR   Ar  134   3.228   0.854   2.583
    1   AR   Ar  135   4.373   0.183   2.872
    1   AR   Ar  136   4.185   0.913   1.993
    1   AR   Ar  137   3.512   7.043   3.353
    1   AR   Ar  138   3.229   1.040   4.237
    1   AR   Ar  139   4.142   0.395   4.267
    1   AR   Ar  140   4.332   1.029   3.470
    1   AR   Ar  141   3.432   7.053   5.194
    1   AR   Ar  142   3.812   0.789   6.191
    1   AR   Ar  143   4.733   0.190   6.214
    1   AR   Ar  144   4.281   0.825   5.267
    1   AR   Ar  145   3.541   1.628  -0.070
    1   AR   Ar  146   3.583   2.726   0.784
    1   AR   Ar  147   4.342   2.031   1.029
    1   AR   Ar  148   4.512   2.809   0.360
    1   AR   Ar  149   3.451   1.792   1.874
    1   AR   Ar  150   3.373   2.427   2.777
    1   AR   Ar  151   4.444   1.884   2.892
    1   AR   Ar  152   4.525   2.666   1.994
    1   AR   Ar  153   3.584   1.910   3.868
    1   AR   Ar  154   3.485   2.671   4.481
    1   AR   Ar  155   4.523   1.688   4.415
    1   AR   Ar  156   4.604   2.675   3.711
    1   AR   Ar  157   3.800   1.881   5.221
    1   AR   Ar  158   3.430   2.445   6.054
    1   AR   Ar  159   4.490   1.733   6.403
    1   AR   Ar  160   4.254   2.830   5.225
    1   AR   Ar  161   3.507   3.785   0.109
    1   AR   Ar  162   3.555   4.703   0.737
    1   AR   Ar  163   4.462   3.649   0.887
    1   AR   Ar  164   4.632   4.627   0.233
    1   AR   Ar  165   3.509   3.782   1.375
    1   AR   Ar  166   3.448   4.263   2.653
    1   AR   Ar  167   4.394   3.461   2.828
    1   AR   Ar  168   4.530   4.254   1.896
    1   AR   Ar  169   3.247   3.421   3.259
    1   AR   Ar  170   3.589   4.665   4.381
    1   AR   Ar  171   4.141   3.633   4.182
    1   AR   Ar  172   4.501   4.403   3.412
    1   AR   Ar  173   3.689   3.778   5.285
    1   AR   Ar  174   3.821   4.423   6.195
    1   AR   Ar  175   4.502   3.593   5.989
    1   AR   Ar  176   4.526   4.572   5.068
    1   AR   Ar  177   3.589   5.596   0.092
    1   AR   Ar  178   3.483   6.216   1.166
    1   AR   Ar  179   4.341   5.406   1.161
    1   AR   Ar  180   4.413   6.184   0.272
    1   AR   Ar  181   3.716   5.322   1.986
    1   AR   Ar  182   3.461   6.012   2.842
    1   AR   Ar  183   4.787   5.087   2.671
    1   AR   Ar  184   4.412   6.076   1.996
    1   AR   Ar  185   3.412   5.586   3.730
    1   AR   Ar  186   3.381   6.461   4.336
    1   AR   Ar  187   4.443   5.315   4.285
    1   AR   Ar  188   4.394   6.211   3.509
    1   AR   Ar  189   3.513   5.444   5.060
    1   AR   Ar  190   3.468   6.292   5.979
    1   AR   Ar  191   4.504   5.305   5.922
    1   AR   Ar  192   4.417   6.693   5.119
    1   AR   Ar  193   4.772   0.126   0.280
    1   AR   Ar  194   5.080   0.714   1.110
    1   AR   Ar  195   5.974   0.267   1.189
    1   AR   Ar  196   6.100   0.691   0.140
    1   AR   Ar  197   5.067   0.035   2.012
    1   AR   Ar  198   5.113   0.957   2.595
    1   AR   Ar  199   6.206   0.243   2.448
    1   AR   Ar  200   6.027   1.170   1.731
    1   AR   Ar  201   4.964   0.188   3.639
    1   AR   Ar  202   5.161   0.884   4.524
    1   AR   Ar  203   6.375   0.224   4.440
    1   AR   Ar  204   6.171   0.933   3.322
    1   AR   Ar  205   5.551   6.984   5.104
    1   AR   Ar  206   5.483   0.866   6.375
    1   AR   Ar  207   6.542   6.896   6.259
    1   AR   Ar  208   6.245   0.884   5.285
    1   AR   Ar  209   5.484   1.862  -0.219
    1   AR   Ar  210   5.359   2.436   0.904
    1   AR   Ar  211   6.347   1.791   0.571
    1   AR   Ar  212   6.423   3.028   0.250
    1   AR   Ar  213   5.404   1.946   2.241
    1   AR   Ar  214   5.272   2.817   2.861
    1   AR   Ar  215   6.360   1.813   2.790
    1   AR   Ar  216   6.672   2.556   1.574
    1   AR   Ar  217   5.378   1.575   3.441
    1   AR   Ar  218   5.698   3.001   4.336
    1   AR   Ar  219   6.297   1.388   4.308
    1   AR   Ar  220   6.419   2.648   3.513
    1   AR   Ar  221   5.246   2.094   5.034
    1   AR   Ar  222   5.202   2.680   5.900
    1   AR   Ar  223   6.264   1.567   6.127
    1   AR   Ar  224   6.549   2.954   5.360
    1   AR   Ar  225   5.521   3.529  -0.005
    1   AR   Ar  226   5.163   4.561   1.112
    1   AR   Ar  227   6.094   3.972   0.811
    1   AR   Ar  228   6.085   4.619  -0.191
    1   AR   Ar  229   5.271   3.256   1.625
    1   AR   Ar  230   5.236   4.107   2.629
    1   AR   Ar  231   6.303   3.613   2.739
    1   AR   Ar  232   6.038   4.361   1.733
    1   AR   Ar  233   5.181   3.659   3.567
    1   AR   Ar  234   5.576   4.208   4.484
    1   AR   Ar  235   6.521   3.522   4.462
    1   AR   Ar  236   6.595   4.468   3.738
    1   AR   Ar  237   5.574   3.536   5.347
    1   AR   Ar  238   5.051   4.448   6.119
    1   AR   Ar  239   5.910   3.513   6.438
    1   AR   Ar  240   6.064   4.444   5.387
    1   AR   Ar  241   5.230   5.469   0.416
    1   AR   Ar  242   5.242   6.353   1.090
    1   AR   Ar  243   6.165   4.950   1.048
    1   AR   Ar  244   6.291   6.167   0.317
    1   AR   Ar  245   5.465   5.169   1.999
    1   AR   Ar  246   5.151   6.433   2.750
    1   AR   Ar  247   6.085   4.731   2.807
    1   AR   Ar  248   6.380   6.356   1.626
    1   AR   Ar  249   5.536   5.571   3.330
    1   AR   Ar  250   5.286   6.192   4.497
    1   AR   Ar  251   6.216   5.426   4.421
    1   AR   Ar  252   6.034   6.436   3.782
    1   AR   Ar  253   5.506   5.184   5.127
    1   AR   Ar  254   5.740   6.151   5.920
    1   AR   Ar  255   6.106   5.056   6.252
    1   AR   Ar  256   6.531   6.301   5.206
    7.12000  7.12000 12.00000
Argon-slab step 100
  256
    1   AR   Ar    1   7.026   6.921   0.144
    1   AR   Ar    2   6.888   0.683   1.059
    1   AR   Ar    3   0.765   6.913   0.986
    1   AR   Ar    4   0.958   0.454   0.198
    1   AR   Ar    5   0.103   7.067   1.800
    1   AR   Ar    6   0.219   0.758   2.800
    1   AR   Ar    7   0.777   6.876   2.945
    1   AR   Ar    8   0.844   0.819   1.944
    1   AR   Ar    9   7.070   7.077   3.480
    1   AR   Ar   10   0.106   0.769   4.265
    1   AR   Ar   11   0.937   0.026   4.544
    1   AR   Ar   12   0.881   0.494   3.663
    1   AR   Ar   13   7.106   0.058   5.140
    1   AR   Ar   14   0.058   1.108   5.892
    1   AR   Ar   15   1.018   0.115   6.501
    1   AR   Ar   16   1.177   0.615   5.640
    1   AR   Ar   17   0.294   1.323  -0.149
    1   AR   Ar   18   0.257   2.800   0.626
    1   AR   Ar   19   0.751   1.948   0.926
    1   AR   Ar   20   0.943   2.625  -0.167
    1   AR   Ar   21   0.023   1.652   1.732
    1   AR   Ar   22   0.074   2.598   2.581
    1   AR   Ar   23   0.847   1.774   2.696
    1   AR   Ar   24   0.687   3.006   1.716
    1   AR   Ar   25   0.163   1.845   3.829
    1   AR   Ar   26   0.163   2.783   4.469
    1   AR   Ar   27   0.809   1.814   4.776
    1   AR   Ar   28   1.102   2.428   3.760
    1   AR   Ar   29   6.909   1.928   5.228
    1   AR   Ar   30   0.517   2.893   6.088
    1   AR   Ar   31   1.359   1.458   6.358
    1   AR   Ar   32   0.964   2.861   5.156
    1   AR   Ar   33   0.064   3.761  -0.051
    1   AR   Ar   34   0.010   4.414   0.789
    1   AR   Ar   35   0.945   3.751   0.633
    1   AR   Ar   36   1.061   4.518  -0.094
    1   AR   Ar   37   0.305   4.079   1.627
    1   AR   Ar   38   0.044   4.445   2.691
    1   AR   Ar   39   0.811   3.732   2.608
    1   AR   Ar   40   0.820   4.931   1.978
    1   AR   Ar   41   0.224   3.266   3.496
    1   AR   Ar   42   7.116   4.508   4.652
    1   AR   Ar   43   0.816   3.499   4.307
    1   AR   Ar   44   0.722   4.303   3.461
    1   AR   Ar   45   0.260   3.701   5.158
    1   AR   Ar   46   7.086   4.290   6.005
    1   AR   Ar   47   0.970   3.869   6.020
    1   AR   Ar   48   0.827   4.646   5.346
    1   AR   Ar   49   0.023   4.911  -0.025
    1   AR   Ar   50   0.100   6.004   1.074
    1   AR   Ar   51   0.951   5.331   1.050
    1   AR   Ar   52   0.689   5.781   0.175
    1   AR   Ar   53   6.695   5.539   2.130
    1   AR   Ar   54   6.994   6.432   2.634
    1   AR   Ar   55   0.676   5.516   2.674
    1   AR   Ar   56   0.758   6.193   1.809
    1   AR   Ar   57   0.143   5.338   3.572
    1   AR   Ar   58   0.155   6.444   4.425
    1   AR   Ar   59   0.842   5.407   4.463
    1   AR   Ar   60   0.961   6.051   3.671
    1   AR   Ar   61   6.936   5.383   5.385
    1   AR   Ar   62   0.157   6.207   6.101
    1   AR   Ar   63   1.221   5.628   6.078
    1   AR   Ar   64   0.981   6.475   5.489
    1   AR   Ar   65   1.518   6.571  -0.145
    1   AR   Ar   66   1.753   0.916   1.262
    1   AR   Ar   67   2.390   6.615   0.535
    1   AR   Ar   68   2.313   0.791   0.262
    1   AR   Ar   69   1.440   7.033   1.858
    1   AR   Ar   70   1.762   0.975   2.700
    1   AR   Ar   71   2.473   0.085   2.756
    1   AR   Ar   72   2.884   0.865   1.409
    1   AR   Ar   73   1.819   7.079   3.617
    1   AR   Ar   74   1.616   0.780   4.447
    1   AR   Ar   75   2.429   0.103   4.484
    1   AR   Ar   76   2.508   0.972   3.497
    1   AR   Ar   77   1.829   7.007   5.226
    1   AR   Ar   78   2.115   0.770   6.019
    1   AR   Ar   79   2.660   7.021   6.150
    1   AR   Ar   80   2.931   1.030   5.340
    1   AR   Ar   81   1.777   1.794   0.226
    1   AR   Ar   82   1.531   2.930   1.041
    1   AR   Ar   83   2.569   1.933   0.947
    1   AR   Ar   84   2.676   2.791  -0.148
    1   AR   Ar   85   1.538   2.019   1.812
    1   AR   Ar   86   1.795   2.748   2.633
    1   AR   Ar   87   2.534   1.751   2.374
    1   AR   Ar   88   2.546   2.661   1.891
    1   AR   Ar   89   1.571   1.487   3.672
    1   AR   Ar   90   1.981   2.904   4.589
    1   AR   Ar   91   2.329   1.481   4.539
    1   AR   Ar   92   2.596   2.567   3.727
    1   AR   Ar   93   1.641   1.786   5.355
    1   AR   Ar   94   2.176   2.736   6.165
    1   AR   Ar   95   2.626   1.780   6.243
    1   AR   Ar   96   2.786   2.558   5.214
    1   AR   Ar   97   1.605   3.446  -0.256
    1   AR   Ar   98   1.880   4.409   0.800
    1   AR   Ar   99   2.513   3.204   0.817
    1   AR   Ar  100   2.684   4.667   0.168
    1   AR   Ar  101   1.563   3.475   1.914
    1   AR   Ar  102   1.530   4.610   2.742
    1   AR   Ar  103   2.527   3.736   2.625
    1   AR   Ar  104   2.826   4.599   1.731
    1   AR   Ar  105   1.783   3.414   3.646
    1   AR   Ar  106   1.545   4.244   4.273
    1   AR   Ar  107   2.762   4.006   4.168
    1   AR   Ar  108   2.963   4.746   3.432
    1   AR   Ar  109   1.740   3.776   5.245
    1   AR   Ar  110   1.703   4.658   6.255
    1   AR   Ar  111   2.664   3.796   6.370
    1   AR   Ar  112   2.940   4.623   5.584
    1   AR   Ar  113   1.891   5.565   0.055
    1   AR   Ar  114   1.592   6.117   1.160
    1   AR   Ar  115   2.532   5.511   0.979
    1   AR   Ar  116   2.750   6.131  -0.323
    1   AR   Ar  117   1.888   5.164   1.811
    1   AR   Ar  118   1.584   6.225   2.590
    1   AR   Ar  119   2.701   5.389   2.482
    1   AR   Ar  120   2.581   6.402   1.890
    1   AR   Ar  121   1.818   5.351   3.729
    1   AR   Ar  122   1.709   6.299   4.319
    1   AR   Ar  123   2.666   5.328   4.391
    1   AR   Ar  124   2.469   6.273   3.330
    1   AR   Ar  125   1.798   5.212   5.105
    1   AR   Ar  126   1.798   6.494   6.415
    1   AR   Ar  127   2.730   5.361   6.302
    1   AR   Ar  128   2.613   6.231   5.258
    1   AR   Ar  129   3.638   7.071   0.248
    1   AR   Ar  130   3.903   0.970   0.915
    1   AR   Ar  131   4.325   6.901   1.270
    1   AR   Ar  132   4.723   1.130  -0.298
    1   AR   Ar  133   3.304   0.054   1.929
    1   AR   Ar  134   3.238   0.865   2.610
    1   AR   Ar  135   4.368   0.144   2.882
    1   AR   Ar  136   4.197   0.906   1.990
    1   AR   Ar  137   3.493   7.041   3.364
    1   AR   Ar  138   3.210   1.012   4.205
    1   AR   Ar  139   4.148   0.394   4.269
    1   AR   Ar  140   4.330   1.017   3.447
    1   AR   Ar  141   3.440   7.032   5.181
    1   AR   Ar  142   3.818   0.784   6.190
    1   AR   Ar  143   4.722   0.196   6.201
    1   AR   Ar  144   4.280   0.847   5.249
    1   AR   Ar  145   3.545   1.637  -0.087
    1   AR   Ar  146   3.579   2.740   0.771
    1   AR   Ar  147   4.326   2.012   0.997
    1   AR   Ar  148   4.517   2.804   0.377
    1   AR   Ar  149   3.465   1.792   1.865
    1   AR   Ar  150   3.383   2.451   2.802
    1   AR   Ar  151   4.444   1.917   2.913
    1   AR   Ar  152   4.506   2.671   1.973
    1   AR   Ar  153   3.595   1.933   3.881
    1   AR   Ar  154   3.484   2.635   4.506
    1   AR   Ar  155   4.563   1.698   4.371
    1   AR   Ar  156   4.574   2.657   3.731
    1   AR   Ar  157   3.825   1.877   5.204
    1   AR   Ar  158   3.430   2.472   6.091
    1   AR   Ar  159   4.464   1.699   6.391
    1   AR   Ar  160   4.241   2.835   5.209
    1   AR   Ar  161   3.501   3.761   0.116
    1   AR   Ar  162   3.553   4.727   0.742
    1   AR   Ar  163   4.464   3.634   0.886
    1   AR   Ar  164   4.654   4.640   0.246
    1   AR   Ar  165   3.515   3.734   1.391
    1   AR   Ar  166   3.438   4.239   2.664
    1   AR   Ar  167   4.375   3.446   2.845
    1   AR   Ar  168   4.535   4.251   1.912
    1   AR   Ar  169   3.228   3.424   3.266
    1   AR   Ar  170   3.603   4.667   4.380
    1   AR   Ar  171   4.134   3.633   4.154
    1   AR   Ar  172   4.481   4.424   3.426
    1   AR   Ar  173   3.677   3.794   5.248
    1   AR   Ar  174   3.812   4.442   6.187
    1   AR   Ar  175   4.478   3.616   6.026
    1   AR   Ar  176   4.496   4.593   5.088
    1   AR   Ar  177   3.560   5.594   0.090
    1   AR   Ar  178   3.491   6.220   1.203
    1   AR   Ar  179   4.387   5.442   1.175
    1   AR   Ar  180   4.427   6.168   0.307
    1   AR   Ar  181   3.725   5.311   1.975
    1   AR   Ar  182   3.467   6.001   2.821
    1   AR   Ar  183   4.826   5.102   2.686
    1   AR   Ar  184   4.413   6.092   2.003
    1   AR   Ar  185   3.399   5.610   3.737
    1   AR   Ar  186   3.378   6.475   4.346
    1   AR   Ar  187   4.418   5.300   4.276
    1   AR   Ar  188   4.422   6.234   3.508
    1   AR   Ar  189   3.513   5.485   5.041
    1   AR   Ar  190   3.464   6.316   5.972
    1   AR   Ar  191   4.474   5.317   5.907
    1   AR   Ar  192   4.417   6.723   5.097
    1   AR   Ar  193   4.729   0.154   0.268
    1   AR   Ar  194   5.075   0.725   1.130
    1   AR   Ar  195   5.977   0.279   1.214
    1   AR   Ar  196   6.095   0.701   0.184
    1   AR   Ar  197   5.087   0.038   2.012
    1   AR   Ar  198   5.131   0.944   2.601
    1   AR   Ar  199   6.187   0.262   2.450
    1   AR   Ar  200   6.012   1.172   1.734
    1   AR   Ar  201   4.959   0.211   3.655
    1   AR   Ar  202   5.184   0.901   4.509
    1   AR   Ar  203   6.386   0.261   4.409
    1   AR   Ar  204   6.161   0.903   3.317
    1   AR   Ar  205   5.545   7.003   5.085
    1   AR   Ar  206   5.477   0.833   6.401
    1   AR   Ar  207   6.563   6.883   6.245
    1   AR   Ar  208   6.220   0.893   5.246
    1   AR   Ar  209   5.506   1.870  -0.222
    1   AR   Ar  210   5.359   2.430   0.932
    1   AR   Ar  211   6.359   1.810   0.581
    1   AR   Ar  212   6.429   3.036   0.245
    1   AR   Ar  213   5.378   1.936   2.241
    1   AR   Ar  214   5.284   2.820   2.843
    1   AR   Ar  215   6.368   1.809   2.799
    1   AR   Ar  216   6.697   2.520   1.557
    1   AR   Ar  217   5.362   1.575   3.447
    1   AR   Ar  218   5.706   3.019   4.333
    1   AR   Ar  219   6.317   1.345   4.313
    1   AR   Ar  220   6.397   2.634   3.502
    1   AR   Ar  221   5.266   2.077   5.020
    1   AR   Ar  222   5.154   2.706   5.887
    1   AR   Ar  223   6.267   1.566   6.136
    1   AR   Ar  224   6.551   2.967   5.359
    1   AR   Ar  225   5.519   3.569  -0.012
    1   AR   Ar  226   5.169   4.587   1.117
    1   AR   Ar  227   6.096   3.960   0.814
    1   AR   Ar  228   6.083   4.634  -0.193
    1   AR   Ar  229   5.284   3.240   1.615
    1   AR   Ar  230   5.241   4.112   2.626
    1   AR   Ar  231   6.320   3.604   2.793
    1   AR   Ar  232   6.014   4.336   1.777
    1   AR   Ar  233   5.191   3.655   3.528
    1   AR   Ar  234   5.581   4.219   4.467
    1   AR   Ar  235   6.520   3.532   4.450
    1   AR   Ar  236   6.587   4.458   3.736
    1   AR   Ar  237   5.582   3.527   5.358
    1   AR   Ar  238   5.063   4.434   6.098
    1   AR   Ar  239   5.918   3.487   6.448
    1   AR   Ar  240   6.083   4.404   5.403
    1   AR   Ar  241   5.233   5.438   0.438
    1   AR   Ar  242   5.256   6.366   1.120
    1   AR   Ar  243   6.168   4.969   1.057
    1   AR   Ar  244   6.298   6.166   0.340
    1   AR   Ar  245   5.462   5.178   2.008
    1   AR   Ar  246   5.158   6.435   2.792
    1   AR   Ar  247   6.100   4.716   2.809
    1   AR   Ar  248   6.365   6.345   1.618
    1   AR   Ar  249   5.589   5.553   3.320
    1   AR   Ar  250   5.268   6.212   4.500
    1   AR   Ar  251   6.153   5.430   4.417
    1   AR   Ar  252   6.056   6.394   3.771
    1   AR   Ar  253   5.524   5.206   5.131
    1   AR   Ar  254   5.730   6.181   5.959
    1   AR   Ar  255   6.101   5.046   6.216
    1   AR   Ar  256   6.537   6.307   5.169
    7.12000  7.12000 12.00000
Argon-slab step 105
  256
    1   AR   Ar    1   7.032   6.891   0.153
    1   AR   Ar    2   6.864   0.676   1.036
    1   AR   Ar    3   0.767   6.910   0.988
    1   AR   Ar    4   0.974   0.435   0.208
    1   AR   Ar    5   0.091   7.069   1.811
    1   AR   Ar    6   0.219   0.746   2.800
    1   AR   Ar    7   0.791   6.863   2.949
    1   AR   Ar    8   0.847   0.803   1.964
    1   AR   Ar    9   7.086   7.041   3.469
    1   AR   Ar   10   0.101   0.788   4.235
    1   AR   Ar   11   0.965   0.050   4.533
    1   AR   Ar   12   0.884   0.493   3.652
    1   AR   Ar   13   7.086   0.077   5.114
    1   AR   Ar   14   0.107   1.108   5.874
    1   AR   Ar   15   1.012   0.110   6.548
    1   AR   Ar   16   1.161   0.600   5.639
    1   AR   Ar   17   0.283   1.328  -0.142
    1   AR   Ar   18   0.286   2.779   0.614
    1   AR   Ar   19   0.718   1.936   0.920
    1   AR   Ar   20   0.962   2.648  -0.185
    1   AR   Ar   21   0.024   1.653   1.751
    1   AR   Ar   22   0.047   2.616   2.607
    1   AR   Ar   23   0.861   1.763   2.713
    1   AR   Ar   24   0.671   3.006   1.678
    1   AR   Ar   25   0.183   1.814   3.840
    1   AR   Ar   26   0.154   2.789   4.449
    1   AR   Ar   27   0.835   1.826   4.801
    1   AR   Ar   28   1.098   2.448   3.777
    1   AR   Ar   29   6.908   1.934   5.195
    1   AR   Ar   30   0.525   2.868   6.104
    1   AR   Ar   31   1.338   1.471   6.364
    1   AR   Ar   32   0.974   2.866   5.185
    1   AR   Ar   33   0.077   3.761  -0.070
    1   AR   Ar   34   0.004   4.414   0.805
    1   AR   Ar   35   0.949   3.764   0.635
    1   AR   Ar   36   1.036   4.532  -0.122
    1   AR   Ar   37   0.301   4.065   1.679
    1   AR   Ar   38   0.079   4.454   2.666
    1   AR   Ar   39   0.831   3.742   2.595
    1   AR   Ar   40   0.823   4.912   1.951
    1   AR   Ar   41   0.228   3.249   3.492
    1   AR   Ar   42   0.003   4.528   4.649
    1   AR   Ar   43   0.811   3.527   4.282
    1   AR   Ar   44   0.709   4.291   3.455
    1   AR   Ar   45   0.272   3.721   5.198
    1   AR   Ar   46   7.099   4.290   6.001
    1   AR   Ar   47   0.962   3.872   6.027
    1   AR   Ar   48   0.832   4.655   5.356
    1   AR   Ar   49   0.025   4.857  -0.061
    1   AR   Ar   50   0.093   5.992   1.099
    1   AR   Ar   51   0.939   5.303   1.033
    1   AR   Ar   52   0.694   5.757   0.179
    1   AR   Ar   53   6.654   5.540   2.156
    1   AR   Ar   54   6.960   6.419   2.621
    1   AR   Ar   55   0.721   5.530   2.656
    1   AR   Ar   56   0.775   6.181   1.807
    1   AR   Ar   57   0.159   5.284   3.585
    1   AR   Ar   58   0.178   6.459   4.468
    1   AR   Ar   59   0.850   5.432   4.464
    1   AR   Ar   60   0.970   6.060   3.686
    1   AR   Ar   61   6.937   5.369   5.363
    1   AR   Ar   62   0.178   6.195   6.084
    1   AR   Ar   63   1.209   5.635   6.088
    1   AR   Ar   64   0.992   6.485   5.476
    1   AR   Ar   65   1.526   6.582  -0.173
    1   AR   Ar   66   1.786   0.940   1.261
    1   AR   Ar   67   2.396   6.611   0.536
    1   AR   Ar   68   2.318   0.838   0.260
    1   AR   Ar   69   1.427   7.011   1.858
    1   AR   Ar   70   1.775   0.974   2.705
    1   AR   Ar   71   2.451   0.091   2.743
    1   AR   Ar   72   2.908   0.856   1.375
    1   AR   Ar   73   1.788   7.081   3.641
    1   AR   Ar   74   1.610   0.779   4.417
    1   AR   Ar   75   2.412   0.135   4.442
    1   AR   Ar   76   2.515   0.973   3.477
    1   AR   Ar   77   1.811   6.989   5.229
    1   AR   Ar   78   2.131   0.787   5.988
    1   AR   Ar   79   2.674   7.002   6.154
    1   AR   Ar   80   2.908   1.017   5.341
    1   AR   Ar   81   1.743   1.769   0.268
    1   AR   Ar   82   1.495   2.912   1.041
    1   AR   Ar   83   2.558   1.994   0.977
    1   AR   Ar   84   2.657   2.784  -0.150
    1   AR   Ar   85   1.537   2.039   1.830
    1   AR   Ar   86   1.798   2.775   2.654
    1   AR   Ar   87   2.527   1.737   2.334
    1   AR   Ar   88   2.548   2.688   1.882
    1   AR   Ar   89   1.557   1.499   3.683
    1   AR   Ar   90   1.984   2.907   4.579
    1   AR   Ar   91   2.368   1.506   4.521
    1   AR   Ar   92   2.591   2.546   3.753
    1   AR   Ar   93   1.637   1.834   5.351
    1   AR   Ar   94   2.195   2.774   6.168
    1   AR   Ar   95   2.614   1.779   6.259
    1   AR   Ar   96   2.781   2.551   5.207
    1   AR   Ar   97   1.582   3.461  -0.249
    1   AR   Ar   98   1.897   4.373   0.833
    1   AR   Ar   99   2.516   3.214   0.840
    1   AR   Ar  100   2.717   4.670   0.155
    1   AR   Ar  101   1.601   3.492   1.895
    1   AR   Ar  102   1.529   4.599   2.768
    1   AR   Ar  103   2.512   3.738   2.610
    1   AR   Ar  104   2.802   4.608   1.711
    1   AR   Ar  105   1.789   3.413   3.638
    1   AR   Ar  106   1.562   4.231   4.265
    1   AR   Ar  107   2.787   4.014   4.171
    1   AR   Ar  108   2.951   4.705   3.416
    1   AR   Ar  109   1.734   3.792   5.227
    1   AR   Ar  110   1.710   4.616   6.237
    1   AR   Ar  111   2.690   3.801   6.404
    1   AR   Ar  112   2.938   4.637   5.584
    1   AR   Ar  113   1.891   5.557   0.076
    1   AR   Ar  114   1.592   6.112   1.186
    1   AR   Ar  115   2.527   5.498   0.986
    1   AR   Ar  116   2.755   6.125  -0.345
    1   AR   Ar  117   1.859   5.178   1.792
    1   AR   Ar  118   1.621   6.199   2.579
    1   AR   Ar  119   2.692   5.362   2.480
    1   AR   Ar  120   2.593   6.413   1.881
    1   AR   Ar  121   1.796   5.331   3.743
    1   AR   Ar  122   1.707   6.307   4.311
    1   AR   Ar  123   2.665   5.366   4.396
    1   AR   Ar  124   2.450   6.276   3.338
    1   AR   Ar  125   1.798   5.209   5.083
    1   AR   Ar  126   1.804   6.499   6.415
    1   AR   Ar  127   2.725   5.374   6.331
    1   AR   Ar  128   2.634   6.227   5.239
    1   AR   Ar  129   3.621   7.068   0.250
    1   AR   Ar  130   3.873   0.964   0.929
    1   AR   Ar  131   4.288   6.898   1.255
    1   AR   Ar  132   4.694   1.150  -0.303
    1   AR   Ar  133   3.322   0.055   1.982
    1   AR   Ar  134   3.249   0.879   2.638
    1   AR   Ar  135   4.358   0.103   2.875
    1   AR   Ar  136   4.209   0.897   1.988
    1   AR   Ar  137   3.468   7.038   3.378
    1   AR   Ar  138   3.200   0.980   4.181
    1   AR   Ar  139   4.148   0.391   4.276
    1   AR   Ar  140   4.325   1.011   3.424
    1   AR   Ar  141   3.442   7.020   5.175
    1   AR   Ar  142   3.823   0.788   6.208
    1   AR   Ar  143   4.706   0.195   6.183
    1   AR   Ar  144   4.280   0.870   5.229
    1   AR   Ar  145   3.549   1.646  -0.102
    1   AR   Ar  146   3.566   2.757   0.759
    1   AR   Ar  147   4.310   1.986   0.971
    1   AR   Ar  148   4.543   2.792   0.377
    1   AR   Ar  149   3.480   1.792   1.854
    1   AR   Ar  150   3.386   2.461   2.808
    1   AR   Ar  151   4.444   1.952   2.930
    1   AR   Ar  152   4.483   2.672   1.954
    1   AR   Ar  153   3.611   1.942   3.875
    1   AR   Ar  154   3.485   2.618   4.534
    1   AR   Ar  155   4.594   1.709   4.321
    1   AR   Ar  156   4.543   2.640   3.751
    1   AR   Ar  157   3.844   1.874   5.190
    1   AR   Ar  158   3.432   2.501   6.128
    1   AR   Ar  159   4.438   1.666   6.377
    1   AR   Ar  160   4.234   2.844   5.195
    1   AR   Ar  161   3.494   3.737   0.126
    1   AR   Ar  162   3.555   4.751   0.753
    1   AR   Ar  163   4.467   3.632   0.891
    1   AR   Ar  164   4.675   4.667   0.252
    1   AR   Ar  165   3.520   3.687   1.408
    1   AR   Ar  166   3.436   4.218   2.668
    1   AR   Ar  167   4.352   3.431   2.862
    1   AR   Ar  168   4.539   4.257   1.921
    1   AR   Ar  169   3.216   3.421   3.284
    1   AR   Ar  170   3.614   4.663   4.378
    1   AR   Ar  171   4.127   3.632   4.126
    1   AR   Ar  172   4.457   4.446   3.443
    1   AR   Ar  173   3.660   3.813   5.216
    1   AR   Ar  174   3.804   4.462   6.178
    1   AR   Ar  175   4.452   3.631   6.061
    1   AR   Ar  176   4.466   4.612   5.110
    1   AR   Ar  177   3.530   5.590   0.090
    1   AR   Ar  178   3.498   6.221   1.239
    1   AR   Ar  179   4.410   5.474   1.173
    1   AR   Ar  180   4.441   6.156   0.345
    1   AR   Ar  181   3.728   5.295   1.966
    1   AR   Ar  182   3.477   5.998   2.792
    1   AR   Ar  183   4.844   5.118   2.719
    1   AR   Ar  184   4.410   6.111   2.003
    1   AR   Ar  185   3.387   5.617   3.750
    1   AR   Ar  186   3.375   6.487   4.350
    1   AR   Ar  187   4.397   5.290   4.264
    1   AR   Ar  188   4.447   6.257   3.511
    1   AR   Ar  189   3.516   5.530   5.024
    1   AR   Ar  190   3.462   6.337   5.966
    1   AR   Ar  191   4.463   5.333   5.886
    1   AR   Ar  192   4.423   6.752   5.073
    1   AR   Ar  193   4.686   0.181   0.256
    1   AR   Ar  194   5.083   0.758   1.134
    1   AR   Ar  195   5.980   0.278   1.241
    1   AR   Ar  196   6.090   0.718   0.240
    1   AR   Ar  197   5.109   0.040   2.009
    1   AR   Ar  198   5.150   0.930   2.609
    1   AR   Ar  199   6.169   0.280   2.449
    1   AR   Ar  200   5.998   1.177   1.740
    1   AR   Ar  201   4.969   0.230   3.679
    1   AR   Ar  202   5.212   0.913   4.495
    1   AR   Ar  203   6.385   0.289   4.374
    1   AR   Ar  204   6.154   0.869   3.314
    1   AR   Ar  205   5.541   7.045   5.066
    1   AR   Ar  206   5.477   0.805   6.427
    1   AR   Ar  207   6.577   6.879   6.230
    1   AR   Ar  208   6.195   0.900   5.212
    1   AR   Ar  209   5.530   1.879  -0.222
    1   AR   Ar  210   5.362   2.422   0.960
    1   AR   Ar  211   6.372   1.828   0.591
    1   AR   Ar  212   6.431   3.042   0.240
    1   AR   Ar  213   5.352   1.926   2.240
    1   AR   Ar  214   5.293   2.803   2.803
    1   AR   Ar  215   6.377   1.805   2.805
    1   AR   Ar  216   6.718   2.493   1.536
    1   AR   Ar  217   5.344   1.578   3.455
    1   AR   Ar  218   5.700   3.028   4.328
    1   AR   Ar  219   6.336   1.308   4.315
    1   AR   Ar  220   6.375   2.622   3.493
    1   AR   Ar  221   5.288   2.062   5.006
    1   AR   Ar  222   5.104   2.732   5.877
    1   AR   Ar  223   6.268   1.579   6.148
    1   AR   Ar  224   6.559   2.947   5.363
    1   AR   Ar  225   5.514   3.610  -0.019
    1   AR   Ar  226   5.177   4.610   1.128
    1   AR   Ar  227   6.100   3.946   0.815
    1   AR   Ar  228   6.080   4.648  -0.191
    1   AR   Ar  229   5.301   3.231   1.605
    1   AR   Ar  230   5.251   4.116   2.620
    1   AR   Ar  231   6.337   3.595   2.849
    1   AR   Ar  232   5.989   4.296   1.839
    1   AR   Ar  233   5.203   3.647   3.498
    1   AR   Ar  234   5.586   4.230   4.447
    1   AR   Ar  235   6.525   3.535   4.432
    1   AR   Ar  236   6.578   4.446   3.734
    1   AR   Ar  237   5.573   3.517   5.354
    1   AR   Ar  238   5.082   4.425   6.074
    1   AR   Ar  239   5.925   3.461   6.456
    1   AR   Ar  240   6.112   4.361   5.419
    1   AR   Ar  241   5.243   5.414   0.462
    1   AR   Ar  242   5.271   6.377   1.150
    1   AR   Ar  243   6.176   5.007   1.053
    1   AR   Ar  244   6.304   6.162   0.367
    1   AR   Ar  245   5.476   5.195   1.995
    1   AR   Ar  246   5.169   6.436   2.833
    1   AR   Ar  247   6.115   4.703   2.811
    1   AR   Ar  248   6.346   6.342   1.607
    1   AR   Ar  249   5.640   5.534   3.312
    1   AR   Ar  250   5.251   6.211   4.499
    1   AR   Ar  251   6.099   5.436   4.402
    1   AR   Ar  252   6.081   6.355   3.761
    1   AR   Ar  253   5.528   5.231   5.143
    1   AR   Ar  254   5.720   6.210   5.996
    1   AR   Ar  255   6.096   5.040   6.181
    1   AR   Ar  256   6.540   6.324   5.144
    7.12000  7.12000 12.00000
Argon-slab step 110
  256
    1   AR   Ar    1   7.042   6.864   0.164
    1   AR   Ar    2   6.868   0.681   1.026
    1   AR   Ar    3   0.768   6.903   0.990
    1   AR   Ar    4   0.991   0.419   0.216
    1   AR   Ar    5   0.079   7.073   1.822
    1   AR   Ar    6   0.209   0.737   2.789
    1   AR   Ar    7   0.815   6.845   2.943
    1   AR   Ar    8   0.851   0.789   1.981
    1   AR   Ar    9   7.091   7.009   3.467
    1   AR   Ar   10   0.107   0.810   4.208
    1   AR   Ar   11   0.988   0.060   4.534
    1   AR   Ar   12   0.889   0.500   3.631
    1   AR   Ar   13   7.070   0.106   5.098
    1   AR   Ar   14   0.158   1.106   5.853
    1   AR   Ar   15   1.003   0.103   6.595
    1   AR   Ar   16   1.139   0.588   5.632
    1   AR   Ar   17   0.272   1.334  -0.132
    1   AR   Ar   18   0.305   2.769   0.606
    1   AR   Ar   19   0.691   1.916   0.917
    1   AR   Ar   20   0.980   2.665  -0.203
    1   AR   Ar   21   0.032   1.638   1.774
    1   AR   Ar   22   0.021   2.634   2.633
    1   AR   Ar   23   0.865   1.760   2.727
    1   AR   Ar   24   0.650   3.003   1.642
    1   AR   Ar   25   0.203   1.784   3.851
    1   AR   Ar   26   0.139   2.785   4.434
    1   AR   Ar   27   0.847   1.837   4.816
    1   AR   Ar   28   1.094   2.472   3.796
    1   AR   Ar   29   6.907   1.939   5.160
    1   AR   Ar   30   0.530   2.843   6.122
    1   AR   Ar   31   1.316   1.484   6.370
    1   AR   Ar   32   0.990   2.872   5.209
    1   AR   Ar   33   0.091   3.759  -0.088
    1   AR   Ar   34   7.114   4.413   0.825
    1   AR   Ar   35   0.951   3.777   0.641
    1   AR   Ar   36   1.014   4.546  -0.150
    1   AR   Ar   37   0.298   4.043   1.738
    1   AR   Ar   38   0.106   4.470   2.640
    1   AR   Ar   39   0.854   3.746   2.580
    1   AR   Ar   40   0.828   4.876   1.914
    1   AR   Ar   41   0.228   3.233   3.481
    1   AR   Ar   42   0.008   4.553   4.643
    1   AR   Ar   43   0.813   3.558   4.259
    1   AR   Ar   44   0.705   4.269   3.455
    1   AR   Ar   45   0.285   3.732   5.239
    1   AR   Ar   46   7.095   4.349   6.026
    1   AR   Ar   47   0.956   3.870   6.037
    1   AR   Ar   48   0.840   4.670   5.364
    1   AR   Ar   49   0.026   4.813  -0.108
    1   AR   Ar   50   0.080   5.978   1.117
    1   AR   Ar   51   0.930   5.269   1.016
    1   AR   Ar   52   0.698   5.737   0.175
    1   AR   Ar   53   6.614   5.531   2.184
    1   AR   Ar   54   6.926   6.406   2.608
    1   AR   Ar   55   0.762   5.561   2.660
    1   AR   Ar   56   0.793   6.168   1.815
    1   AR   Ar   57   0.174   5.231   3.598
    1   AR   Ar   58   0.206   6.467   4.500
    1   AR   Ar   59   0.858   5.452   4.471
    1   AR   Ar   60   0.973   6.073   3.688
    1   AR   Ar   61   6.938   5.352   5.341
    1   AR   Ar   62   0.202   6.177   6.064
    1   AR   Ar   63   1.213   5.642   6.084
    1   AR   Ar   64   0.995   6.494   5.462
    1   AR   Ar   65   1.533   6.593  -0.200
    1   AR   Ar   66   1.818   0.965   1.262
    1   AR   Ar   67   2.402   6.607   0.540
    1   AR   Ar   68   2.324   0.882   0.261
    1   AR   Ar   69   1.418   6.992   1.859
    1   AR   Ar   70   1.784   0.972   2.708
    1   AR   Ar   71   2.430   0.096   2.728
    1   AR   Ar   72   2.928   0.850   1.342
    1   AR   Ar   73   1.756   7.087   3.657
    1   AR   Ar   74   1.608   0.786   4.391
    1   AR   Ar   75   2.407   0.166   4.399
    1   AR   Ar   76   2.514   0.972   3.450
    1   AR   Ar   77   1.802   6.974   5.235
    1   AR   Ar   78   2.145   0.805   5.959
    1   AR   Ar   79   2.690   6.986   6.155
    1   AR   Ar   80   2.892   1.005   5.339
    1   AR   Ar   81   1.707   1.746   0.311
    1   AR   Ar   82   1.485   2.898   1.041
    1   AR   Ar   83   2.548   2.056   1.009
    1   AR   Ar   84   2.610   2.756  -0.157
    1   AR   Ar   85   1.536   2.060   1.847
    1   AR   Ar   86   1.800   2.801   2.680
    1   AR   Ar   87   2.518   1.720   2.296
    1   AR   Ar   88   2.550   2.718   1.870
    1   AR   Ar   89   1.542   1.513   3.691
    1   AR   Ar   90   1.983   2.910   4.571
    1   AR   Ar   91   2.405   1.537   4.503
    1   AR   Ar   92   2.587   2.524   3.777
    1   AR   Ar   93   1.647   1.883   5.355
    1   AR   Ar   94   2.214   2.813   6.169
    1   AR   Ar   95   2.602   1.776   6.274
    1   AR   Ar   96   2.749   2.545   5.208
    1   AR   Ar   97   1.563   3.481  -0.241
    1   AR   Ar   98   1.912   4.339   0.867
    1   AR   Ar   99   2.518   3.191   0.838
    1   AR   Ar  100   2.747   4.675   0.139
    1   AR   Ar  101   1.643   3.515   1.877
    1   AR   Ar  102   1.528   4.588   2.794
    1   AR   Ar  103   2.488   3.739   2.591
    1   AR   Ar  104   2.780   4.616   1.689
    1   AR   Ar  105   1.796   3.409   3.625
    1   AR   Ar  106   1.563   4.216   4.253
    1   AR   Ar  107   2.808   4.018   4.178
    1   AR   Ar  108   2.936   4.669   3.402
    1   AR   Ar  109   1.728   3.807   5.211
    1   AR   Ar  110   1.720   4.576   6.216
    1   AR   Ar  111   2.715   3.807   6.436
    1   AR   Ar  112   2.934   4.651   5.580
    1   AR   Ar  113   1.889   5.548   0.099
    1   AR   Ar  114   1.598   6.109   1.209
    1   AR   Ar  115   2.499   5.493   1.002
    1   AR   Ar  116   2.757   6.121  -0.368
    1   AR   Ar  117   1.827   5.194   1.773
    1   AR   Ar  118   1.660   6.171   2.568
    1   AR   Ar  119   2.682   5.335   2.480
    1   AR   Ar  120   2.601   6.421   1.873
    1   AR   Ar  121   1.774   5.310   3.757
    1   AR   Ar  122   1.712   6.313   4.314
    1   AR   Ar  123   2.657   5.403   4.407
    1   AR   Ar  124   2.434   6.275   3.347
    1   AR   Ar  125   1.796   5.206   5.061
    1   AR   Ar  126   1.808   6.501   6.414
    1   AR   Ar  127   2.720   5.389   6.360
    1   AR   Ar  128   2.654   6.222   5.219
    1   AR   Ar  129   3.603   7.064   0.254
    1   AR   Ar  130   3.847   0.956   0.941
    1   AR   Ar  131   4.254   6.900   1.240
    1   AR   Ar  132   4.674   1.159  -0.325
    1   AR   Ar  133   3.345   0.054   2.033
    1   AR   Ar  134   3.261   0.896   2.668
    1   AR   Ar  135   4.347   0.059   2.858
    1   AR   Ar  136   4.214   0.887   2.002
    1   AR   Ar  137   3.438   7.035   3.393
    1   AR   Ar  138   3.202   0.943   4.166
    1   AR   Ar  139   4.144   0.385   4.286
    1   AR   Ar  140   4.317   1.010   3.401
    1   AR   Ar  141   3.438   7.022   5.176
    1   AR   Ar  142   3.824   0.794   6.229
    1   AR   Ar  143   4.687   0.189   6.162
    1   AR   Ar  144   4.282   0.891   5.209
    1   AR   Ar  145   3.555   1.655  -0.113
    1   AR   Ar  146   3.549   2.774   0.750
    1   AR   Ar  147   4.294   1.955   0.949
    1   AR   Ar  148   4.583   2.776   0.363
    1   AR   Ar  149   3.499   1.792   1.842
    1   AR   Ar  150   3.385   2.463   2.802
    1   AR   Ar  151   4.443   1.989   2.945
    1   AR   Ar  152   4.457   2.671   1.937
    1   AR   Ar  153   3.630   1.937   3.852
    1   AR   Ar  154   3.488   2.620   4.561
    1   AR   Ar  155   4.618   1.722   4.268
    1   AR   Ar  156   4.525   2.632   3.765
    1   AR   Ar  157   3.848   1.886   5.190
    1   AR   Ar  158   3.436   2.530   6.163
    1   AR   Ar  159   4.413   1.634   6.361
    1   AR   Ar  160   4.232   2.858   5.184
    1   AR   Ar  161   3.487   3.713   0.139
    1   AR   Ar  162   3.562   4.772   0.770
    1   AR   Ar  163   4.471   3.642   0.903
    1   AR   Ar  164   4.684   4.686   0.255
    1   AR   Ar  165   3.534   3.687   1.411
    1   AR   Ar  166   3.444   4.201   2.663
    1   AR   Ar  167   4.328   3.416   2.877
    1   AR   Ar  168   4.536   4.264   1.925
    1   AR   Ar  169   3.207   3.414   3.311
    1   AR   Ar  170   3.621   4.655   4.375
    1   AR   Ar  171   4.119   3.630   4.098
    1   AR   Ar  172   4.430   4.467   3.461
    1   AR   Ar  173   3.623   3.803   5.235
    1   AR   Ar  174   3.797   4.484   6.169
    1   AR   Ar  175   4.423   3.639   6.093
    1   AR   Ar  176   4.437   4.627   5.131
    1   AR   Ar  177   3.502   5.585   0.094
    1   AR   Ar  178   3.502   6.219   1.275
    1   AR   Ar  179   4.418   5.501   1.160
    1   AR   Ar  180   4.454   6.147   0.383
    1   AR   Ar  181   3.728   5.276   1.959
    1   AR   Ar  182   3.490   6.001   2.760
    1   AR   Ar  183   4.848   5.136   2.762
    1   AR   Ar  184   4.410   6.134   2.007
    1   AR   Ar  185   3.378   5.612   3.762
    1   AR   Ar  186   3.370   6.494   4.346
    1   AR   Ar  187   4.386   5.325   4.251
    1   AR   Ar  188   4.465   6.278   3.520
    1   AR   Ar  189   3.520   5.564   5.008
    1   AR   Ar  190   3.463   6.352   5.961
    1   AR   Ar  191   4.481   5.355   5.861
    1   AR   Ar  192   4.434   6.780   5.049
    1   AR   Ar  193   4.644   0.207   0.247
    1   AR   Ar  194   5.090   0.800   1.133
    1   AR   Ar  195   5.978   0.263   1.270
    1   AR   Ar  196   6.084   0.735   0.296
    1   AR   Ar  197   5.131   0.042   2.004
    1   AR   Ar  198   5.168   0.915   2.618
    1   AR   Ar  199   6.151   0.295   2.443
    1   AR   Ar  200   5.985   1.187   1.749
    1   AR   Ar  201   4.991   0.244   3.705
    1   AR   Ar  202   5.217   0.902   4.509
    1   AR   Ar  203   6.372   0.299   4.345
    1   AR   Ar  204   6.148   0.833   3.314
    1   AR   Ar  205   5.539   7.091   5.050
    1   AR   Ar  206   5.483   0.782   6.453
    1   AR   Ar  207   6.586   6.881   6.213
    1   AR   Ar  208   6.169   0.905   5.190
    1   AR   Ar  209   5.565   1.884  -0.250
    1   AR   Ar  210   5.368   2.409   0.986
    1   AR   Ar  211   6.385   1.847   0.603
    1   AR   Ar  212   6.432   3.047   0.237
    1   AR   Ar  213   5.325   1.915   2.237
    1   AR   Ar  214   5.302   2.788   2.764
    1   AR   Ar  215   6.386   1.800   2.809
    1   AR   Ar  216   6.732   2.481   1.511
    1   AR   Ar  217   5.325   1.583   3.465
    1   AR   Ar  218   5.680   3.029   4.321
    1   AR   Ar  219   6.351   1.285   4.308
    1   AR   Ar  220   6.355   2.611   3.485
    1   AR   Ar  221   5.314   2.047   4.995
    1   AR   Ar  222   5.054   2.756   5.869
    1   AR   Ar  223   6.269   1.610   6.166
    1   AR   Ar  224   6.567   2.929   5.367
    1   AR   Ar  225   5.507   3.651  -0.026
    1   AR   Ar  226   5.188   4.628   1.145
    1   AR   Ar  227   6.105   3.931   0.816
    1   AR   Ar  228   6.076   4.661  -0.186
    1   AR   Ar  229   5.320   3.229   1.598
    1   AR   Ar  230   5.265   4.120   2.611
    1   AR   Ar  231   6.354   3.586   2.904
    1   AR   Ar  232   5.967   4.250   1.900
    1   AR   Ar  233   5.217   3.633   3.479
    1   AR   Ar  234   5.591   4.242   4.428
    1   AR   Ar  235   6.525   3.529   4.414
    1   AR   Ar  236   6.569   4.432   3.731
    1   AR   Ar  237   5.561   3.502   5.348
    1   AR   Ar  238   5.106   4.421   6.049
    1   AR   Ar  239   5.931   3.437   6.461
    1   AR   Ar  240   6.148   4.320   5.431
    1   AR   Ar  241   5.266   5.406   0.483
    1   AR   Ar  242   5.286   6.388   1.181
    1   AR   Ar  243   6.187   5.050   1.047
    1   AR   Ar  244   6.307   6.155   0.396
    1   AR   Ar  245   5.500   5.218   1.971
    1   AR   Ar  246   5.186   6.439   2.869
    1   AR   Ar  247   6.132   4.692   2.812
    1   AR   Ar  248   6.323   6.346   1.594
    1   AR   Ar  249   5.690   5.512   3.304
    1   AR   Ar  250   5.238   6.194   4.501
    1   AR   Ar  251   6.059   5.445   4.372
    1   AR   Ar  252   6.110   6.323   3.753
    1   AR   Ar  253   5.519   5.252   5.171
    1   AR   Ar  254   5.710   6.237   6.031
    1   AR   Ar  255   6.091   5.038   6.149
    1   AR   Ar  256   6.535   6.346   5.129
    7.12000  7.12000 12.00000
Argon-slab step 115
  256
    1   AR   Ar    1   7.055   6.840   0.177
    1   AR   Ar    2   6.879   0.694   1.024
    1   AR   Ar    3   0.768   6.892   0.995
    1   AR   Ar    4   1.009   0.406   0.220
    1   AR   Ar    5   0.066   7.078   1.834
    1   AR   Ar    6   0.191   0.728   2.774
    1   AR   Ar    7   0.846   6.823   2.927
    1   AR   Ar    8   0.859   0.777   1.995
    1   AR   Ar    9   7.088   6.979   3.474
    1   AR   Ar   10   0.123   0.829   4.184
    1   AR   Ar   11   1.000   0.055   4.543
    1   AR   Ar   12   0.894   0.517   3.600
    1   AR   Ar   13   7.058   0.146   5.091
    1   AR   Ar   14   0.209   1.104   5.832
    1   AR   Ar   15   0.994   0.097   6.642
    1   AR   Ar   16   1.139   0.595   5.608
    1   AR   Ar   17   0.261   1.339  -0.120
    1   AR   Ar   18   0.301   2.770   0.613
    1   AR   Ar   19   0.669   1.887   0.918
    1   AR   Ar   20   0.994   2.675  -0.220
    1   AR   Ar   21   0.025   1.637   1.751
    1   AR   Ar   22   7.115   2.650   2.655
    1   AR   Ar   23   0.855   1.768   2.738
    1   AR   Ar   24   0.626   3.000   1.610
    1   AR   Ar   25   0.223   1.758   3.860
    1   AR   Ar   26   0.125   2.772   4.422
    1   AR   Ar   27   0.846   1.847   4.820
    1   AR   Ar   28   1.088   2.500   3.816
    1   AR   Ar   29   6.906   1.941   5.124
    1   AR   Ar   30   0.531   2.817   6.144
    1   AR   Ar   31   1.295   1.495   6.374
    1   AR   Ar   32   1.009   2.879   5.226
    1   AR   Ar   33   0.103   3.767  -0.101
    1   AR   Ar   34   7.103   4.412   0.847
    1   AR   Ar   35   0.951   3.789   0.648
    1   AR   Ar   36   0.997   4.559  -0.176
    1   AR   Ar   37   0.292   4.009   1.790
    1   AR   Ar   38   0.125   4.489   2.622
    1   AR   Ar   39   0.881   3.741   2.563
    1   AR   Ar   40   0.835   4.836   1.884
    1   AR   Ar   41   0.225   3.218   3.466
    1   AR   Ar   42   0.012   4.580   4.635
    1   AR   Ar   43   0.814   3.587   4.242
    1   AR   Ar   44   0.703   4.249   3.464
    1   AR   Ar   45   0.296   3.735   5.275
    1   AR   Ar   46   7.087   4.412   6.052
    1   AR   Ar   47   0.952   3.863   6.049
    1   AR   Ar   48   0.848   4.688   5.369
    1   AR   Ar   49   0.023   4.778  -0.161
    1   AR   Ar   50   0.063   5.962   1.129
    1   AR   Ar   51   0.925   5.233   0.997
    1   AR   Ar   52   0.701   5.724   0.163
    1   AR   Ar   53   6.590   5.542   2.197
    1   AR   Ar   54   6.894   6.395   2.597
    1   AR   Ar   55   0.800   5.593   2.674
    1   AR   Ar   56   0.806   6.154   1.830
    1   AR   Ar   57   0.190   5.178   3.610
    1   AR   Ar   58   0.240   6.466   4.522
    1   AR   Ar   59   0.865   5.467   4.486
    1   AR   Ar   60   0.978   6.097   3.687
    1   AR   Ar   61   6.940   5.334   5.321
    1   AR   Ar   62   0.227   6.155   6.045
    1   AR   Ar   63   1.226   5.647   6.068
    1   AR   Ar   64   0.987   6.497   5.447
    1   AR   Ar   65   1.540   6.604  -0.224
    1   AR   Ar   66   1.848   0.991   1.263
    1   AR   Ar   67   2.408   6.602   0.547
    1   AR   Ar   68   2.332   0.925   0.263
    1   AR   Ar   69   1.413   6.976   1.863
    1   AR   Ar   70   1.790   0.971   2.710
    1   AR   Ar   71   2.410   0.100   2.714
    1   AR   Ar   72   2.942   0.843   1.314
    1   AR   Ar   73   1.723   7.093   3.662
    1   AR   Ar   74   1.612   0.806   4.369
    1   AR   Ar   75   2.415   0.195   4.360
    1   AR   Ar   76   2.507   0.971   3.421
    1   AR   Ar   77   1.808   6.966   5.238
    1   AR   Ar   78   2.151   0.821   5.937
    1   AR   Ar   79   2.705   6.976   6.154
    1   AR   Ar   80   2.885   0.994   5.329
    1   AR   Ar   81   1.686   1.720   0.316
    1   AR   Ar   82   1.493   2.887   1.039
    1   AR   Ar   83   2.539   2.116   1.041
    1   AR   Ar   84   2.563   2.727  -0.162
    1   AR   Ar   85   1.535   2.081   1.863
    1   AR   Ar   86   1.802   2.825   2.707
    1   AR   Ar   87   2.507   1.701   2.260
    1   AR   Ar   88   2.553   2.751   1.859
    1   AR   Ar   89   1.557   1.527   3.658
    1   AR   Ar   90   1.978   2.913   4.564
    1   AR   Ar   91   2.440   1.572   4.486
    1   AR   Ar   92   2.584   2.502   3.799
    1   AR   Ar   93   1.673   1.933   5.368
    1   AR   Ar   94   2.232   2.853   6.169
    1   AR   Ar   95   2.589   1.772   6.286
    1   AR   Ar   96   2.699   2.539   5.217
    1   AR   Ar   97   1.550   3.508  -0.231
    1   AR   Ar   98   1.928   4.305   0.902
    1   AR   Ar   99   2.520   3.171   0.837
    1   AR   Ar  100   2.773   4.681   0.122
    1   AR   Ar  101   1.687   3.541   1.858
    1   AR   Ar  102   1.529   4.579   2.819
    1   AR   Ar  103   2.466   3.731   2.589
    1   AR   Ar  104   2.759   4.621   1.665
    1   AR   Ar  105   1.803   3.404   3.610
    1   AR   Ar  106   1.566   4.209   4.239
    1   AR   Ar  107   2.826   4.014   4.189
    1   AR   Ar  108   2.914   4.653   3.425
    1   AR   Ar  109   1.721   3.822   5.197
    1   AR   Ar  110   1.732   4.538   6.193
    1   AR   Ar  111   2.741   3.814   6.465
    1   AR   Ar  112   2.927   4.664   5.572
    1   AR   Ar  113   1.893   5.530   0.109
    1   AR   Ar  114   1.611   6.108   1.227
    1   AR   Ar  115   2.468   5.491   1.019
    1   AR   Ar  116   2.755   6.120  -0.394
    1   AR   Ar  117   1.795   5.209   1.755
    1   AR   Ar  118   1.700   6.143   2.557
    1   AR   Ar  119   2.671   5.309   2.482
    1   AR   Ar  120   2.606   6.425   1.866
    1   AR   Ar  121   1.751   5.289   3.770
    1   AR   Ar  122   1.726   6.316   4.328
    1   AR   Ar  123   2.641   5.437   4.423
    1   AR   Ar  124   2.419   6.274   3.357
    1   AR   Ar  125   1.795   5.203   5.040
    1   AR   Ar  126   1.810   6.502   6.412
    1   AR   Ar  127   2.714   5.405   6.387
    1   AR   Ar  128   2.667   6.207   5.201
    1   AR   Ar  129   3.583   7.058   0.261
    1   AR   Ar  130   3.828   0.947   0.949
    1   AR   Ar  131   4.271   6.876   1.219
    1   AR   Ar  132   4.662   1.163  -0.357
    1   AR   Ar  133   3.372   0.052   2.084
    1   AR   Ar  134   3.275   0.915   2.699
    1   AR   Ar  135   4.337   0.016   2.835
    1   AR   Ar  136   4.218   0.876   2.016
    1   AR   Ar  137   3.406   7.033   3.409
    1   AR   Ar  138   3.214   0.903   4.158
    1   AR   Ar  139   4.135   0.378   4.295
    1   AR   Ar  140   4.336   1.006   3.403
    1   AR   Ar  141   3.430   7.037   5.183
    1   AR   Ar  142   3.802   0.777   6.224
    1   AR   Ar  143   4.665   0.178   6.136
    1   AR   Ar  144   4.285   0.912   5.190
    1   AR   Ar  145   3.551   1.651  -0.128
    1   AR   Ar  146   3.530   2.790   0.741
    1   AR   Ar  147   4.277   1.921   0.930
    1   AR   Ar  148   4.624   2.758   0.343
    1   AR   Ar  149   3.518   1.792   1.828
    1   AR   Ar  150   3.385   2.462   2.794
    1   AR   Ar  151   4.441   2.025   2.955
    1   AR   Ar  152   4.430   2.668   1.920
    1   AR   Ar  153   3.650   1.924   3.821
    1   AR   Ar  154   3.490   2.633   4.577
    1   AR   Ar  155   4.625   1.732   4.239
    1   AR   Ar  156   4.526   2.640   3.767
    1   AR   Ar  157   3.857   1.890   5.204
    1   AR   Ar  158   3.439   2.560   6.195
    1   AR   Ar  159   4.390   1.605   6.342
    1   AR   Ar  160   4.238   2.878   5.178
    1   AR   Ar  161   3.479   3.689   0.154
    1   AR   Ar  162   3.574   4.792   0.794
    1   AR   Ar  163   4.477   3.656   0.917
    1   AR   Ar  164   4.684   4.698   0.257
    1   AR   Ar  165   3.548   3.700   1.411
    1   AR   Ar  166   3.454   4.207   2.661
    1   AR   Ar  167   4.303   3.401   2.893
    1   AR   Ar  168   4.525   4.272   1.926
    1   AR   Ar  169   3.199   3.404   3.343
    1   AR   Ar  170   3.625   4.644   4.373
    1   AR   Ar  171   4.109   3.628   4.071
    1   AR   Ar  172   4.401   4.486   3.480
    1   AR   Ar  173   3.586   3.794   5.253
    1   AR   Ar  174   3.790   4.508   6.160
    1   AR   Ar  175   4.393   3.641   6.122
    1   AR   Ar  176   4.408   4.638   5.150
    1   AR   Ar  177   3.478   5.579   0.101
    1   AR   Ar  178   3.502   6.211   1.311
    1   AR   Ar  179   4.426   5.520   1.151
    1   AR   Ar  180   4.466   6.145   0.417
    1   AR   Ar  181   3.725   5.254   1.952
    1   AR   Ar  182   3.505   6.008   2.727
    1   AR   Ar  183   4.846   5.155   2.806
    1   AR   Ar  184   4.410   6.149   2.018
    1   AR   Ar  185   3.378   5.608   3.768
    1   AR   Ar  186   3.363   6.497   4.335
    1   AR   Ar  187   4.380   5.366   4.236
    1   AR   Ar  188   4.474   6.285   3.544
    1   AR   Ar  189   3.526   5.550   4.985
    1   AR   Ar  190   3.471   6.358   5.957
    1   AR   Ar  191   4.500   5.381   5.837
    1   AR   Ar  192   4.450   6.807   5.025
    1   AR   Ar  193   4.604   0.233   0.240
    1   AR   Ar  194   5.092   0.843   1.132
    1   AR   Ar  195   5.972   0.237   1.302
    1   AR   Ar  196   6.077   0.755   0.351
    1   AR   Ar  197   5.151   0.042   1.997
    1   AR   Ar  198   5.187   0.899   2.629
    1   AR   Ar  199   6.138   0.306   2.433
    1   AR   Ar  200   5.973   1.199   1.759
    1   AR   Ar  201   5.020   0.255   3.728
    1   AR   Ar  202   5.205   0.878   4.542
    1   AR   Ar  203   6.351   0.288   4.326
    1   AR   Ar  204   6.142   0.799   3.320
    1   AR   Ar  205   5.538   0.017   5.034
    1   AR   Ar  206   5.493   0.762   6.479
    1   AR   Ar  207   6.591   6.888   6.194
    1   AR   Ar  208   6.141   0.906   5.183
    1   AR   Ar  209   5.601   1.890  -0.276
    1   AR   Ar  210   5.376   2.390   1.011
    1   AR   Ar  211   6.399   1.865   0.616
    1   AR   Ar  212   6.431   3.050   0.235
    1   AR   Ar  213   5.298   1.901   2.230
    1   AR   Ar  214   5.311   2.778   2.730
    1   AR   Ar  215   6.394   1.793   2.809
    1   AR   Ar  216   6.739   2.483   1.481
    1   AR   Ar  217   5.308   1.589   3.475
    1   AR   Ar  218   5.650   3.024   4.314
    1   AR   Ar  219   6.360   1.285   4.289
    1   AR   Ar  220   6.334   2.604   3.481
    1   AR   Ar  221   5.342   2.033   4.984
    1   AR   Ar  222   5.004   2.776   5.863
    1   AR   Ar  223   6.270   1.641   6.182
    1   AR   Ar  224   6.574   2.914   5.371
    1   AR   Ar  225   5.498   3.692  -0.032
    1   AR   Ar  226   5.200   4.639   1.168
    1   AR   Ar  227   6.109   3.918   0.820
    1   AR   Ar  228   6.084   4.668  -0.189
    1   AR   Ar  229   5.339   3.235   1.595
    1   AR   Ar  230   5.276   4.125   2.604
    1   AR   Ar  231   6.370   3.578   2.961
    1   AR   Ar  232   5.951   4.202   1.950
    1   AR   Ar  233   5.232   3.615   3.470
    1   AR   Ar  234   5.597   4.253   4.408
    1   AR   Ar  235   6.533   3.534   4.397
    1   AR   Ar  236   6.559   4.416   3.729
    1   AR   Ar  237   5.546   3.486   5.339
    1   AR   Ar  238   5.135   4.420   6.021
    1   AR   Ar  239   5.937   3.412   6.463
    1   AR   Ar  240   6.190   4.280   5.438
    1   AR   Ar  241   5.302   5.417   0.484
    1   AR   Ar  242   5.299   6.399   1.212
    1   AR   Ar  243   6.199   5.094   1.042
    1   AR   Ar  244   6.306   6.145   0.430
    1   AR   Ar  245   5.529   5.244   1.943
    1   AR   Ar  246   5.212   6.443   2.898
    1   AR   Ar  247   6.152   4.685   2.814
    1   AR   Ar  248   6.297   6.354   1.580
    1   AR   Ar  249   5.737   5.488   3.295
    1   AR   Ar  250   5.238   6.162   4.479
    1   AR   Ar  251   6.027   5.454   4.334
    1   AR   Ar  252   6.093   6.333   3.771
    1   AR   Ar  253   5.501   5.270   5.211
    1   AR   Ar  254   5.700   6.264   6.063
    1   AR   Ar  255   6.086   5.041   6.119
    1   AR   Ar  256   6.521   6.364   5.118
    7.12000  7.12000 12.00000
Argon-slab step 120
  256
    1   AR   Ar    1   7.072   6.818   0.193
    1   AR   Ar    2   6.845   0.707   1.012
    1   AR   Ar    3   0.765   6.877   1.002
    1   AR   Ar    4   1.028   0.397   0.221
    1   AR   Ar    5   0.054   7.083   1.845
    1   AR   Ar    6   0.168   0.719   2.762
    1   AR   Ar    7   0.880   6.800   2.903
    1   AR   Ar    8   0.857   0.750   1.980
    1   AR   Ar    9   7.082   6.951   3.487
    1   AR   Ar   10   0.144   0.836   4.167
    1   AR   Ar   11   1.007   0.042   4.556
    1   AR   Ar   12   0.895   0.541   3.563
    1   AR   Ar   13   7.049   0.194   5.090
    1   AR   Ar   14   0.258   1.102   5.809
    1   AR   Ar   15   0.985   0.091   6.687
    1   AR   Ar   16   1.153   0.615   5.573
    1   AR   Ar   17   0.249   1.345  -0.104
    1   AR   Ar   18   0.293   2.780   0.617
    1   AR   Ar   19   0.653   1.851   0.921
    1   AR   Ar   20   1.004   2.677  -0.235
    1   AR   Ar   21   0.023   1.623   1.734
    1   AR   Ar   22   7.088   2.662   2.671
    1   AR   Ar   23   0.844   1.775   2.749
    1   AR   Ar   24   0.600   2.996   1.582
    1   AR   Ar   25   0.244   1.744   3.864
    1   AR   Ar   26   0.113   2.754   4.414
    1   AR   Ar   27   0.836   1.855   4.815
    1   AR   Ar   28   1.082   2.530   3.836
    1   AR   Ar   29   6.904   1.941   5.113
    1   AR   Ar   30   0.529   2.792   6.168
    1   AR   Ar   31   1.274   1.506   6.375
    1   AR   Ar   32   1.031   2.887   5.238
    1   AR   Ar   33   0.113   3.776  -0.110
    1   AR   Ar   34   7.093   4.411   0.869
    1   AR   Ar   35   0.950   3.801   0.658
    1   AR   Ar   36   0.990   4.570  -0.200
    1   AR   Ar   37   0.278   3.962   1.825
    1   AR   Ar   38   0.137   4.505   2.634
    1   AR   Ar   39   0.914   3.729   2.551
    1   AR   Ar   40   0.844   4.798   1.867
    1   AR   Ar   41   0.222   3.208   3.450
    1   AR   Ar   42   0.018   4.603   4.623
    1   AR   Ar   43   0.808   3.605   4.234
    1   AR   Ar   44   0.701   4.231   3.475
    1   AR   Ar   45   0.303   3.734   5.305
    1   AR   Ar   46   7.080   4.476   6.078
    1   AR   Ar   47   0.949   3.853   6.065
    1   AR   Ar   48   0.858   4.708   5.373
    1   AR   Ar   49   0.013   4.753  -0.214
    1   AR   Ar   50   0.046   5.946   1.138
    1   AR   Ar   51   0.925   5.196   0.974
    1   AR   Ar   52   0.701   5.716   0.143
    1   AR   Ar   53   6.569   5.548   2.202
    1   AR   Ar   54   6.866   6.393   2.590
    1   AR   Ar   55   0.836   5.621   2.697
    1   AR   Ar   56   0.811   6.139   1.848
    1   AR   Ar   57   0.207   5.129   3.623
    1   AR   Ar   58   0.277   6.458   4.536
    1   AR   Ar   59   0.870   5.478   4.506
    1   AR   Ar   60   0.978   6.122   3.678
    1   AR   Ar   61   6.940   5.329   5.300
    1   AR   Ar   62   0.249   6.128   6.026
    1   AR   Ar   63   1.240   5.649   6.051
    1   AR   Ar   64   0.968   6.497   5.430
    1   AR   Ar   65   1.548   6.613  -0.246
    1   AR   Ar   66   1.877   1.018   1.266
    1   AR   Ar   67   2.414   6.596   0.556
    1   AR   Ar   68   2.346   0.962   0.266
    1   AR   Ar   69   1.414   6.965   1.869
    1   AR   Ar   70   1.799   0.972   2.720
    1   AR   Ar   71   2.392   0.101   2.699
    1   AR   Ar   72   2.940   0.836   1.293
    1   AR   Ar   73   1.693   7.096   3.656
    1   AR   Ar   74   1.614   0.799   4.390
    1   AR   Ar   75   2.429   0.219   4.333
    1   AR   Ar   76   2.506   0.969   3.402
    1   AR   Ar   77   1.832   6.965   5.239
    1   AR   Ar   78   2.144   0.834   5.923
    1   AR   Ar   79   2.716   6.973   6.150
    1   AR   Ar   80   2.892   0.985   5.309
    1   AR   Ar   81   1.714   1.698   0.282
    1   AR   Ar   82   1.504   2.872   1.032
    1   AR   Ar   83   2.528   2.170   1.070
    1   AR   Ar   84   2.515   2.698  -0.166
    1   AR   Ar   85   1.534   2.103   1.878
    1   AR   Ar   86   1.803   2.847   2.733
    1   AR   Ar   87   2.497   1.668   2.270
    1   AR   Ar   88   2.555   2.787   1.853
    1   AR   Ar   89   1.570   1.545   3.621
    1   AR   Ar   90   1.968   2.918   4.557
    1   AR   Ar   91   2.474   1.608   4.469
    1   AR   Ar   92   2.584   2.478   3.819
    1   AR   Ar   93   1.654   1.930   5.397
    1   AR   Ar   94   2.250   2.892   6.167
    1   AR   Ar   95   2.576   1.769   6.295
    1   AR   Ar   96   2.681   2.519   5.224
    1   AR   Ar   97   1.542   3.543  -0.220
    1   AR   Ar   98   1.944   4.272   0.938
    1   AR   Ar   99   2.523   3.156   0.837
    1   AR   Ar  100   2.795   4.686   0.105
    1   AR   Ar  101   1.731   3.568   1.838
    1   AR   Ar  102   1.531   4.573   2.843
    1   AR   Ar  103   2.452   3.710   2.617
    1   AR   Ar  104   2.740   4.623   1.639
    1   AR   Ar  105   1.811   3.398   3.592
    1   AR   Ar  106   1.578   4.217   4.223
    1   AR   Ar  107   2.838   4.002   4.208
    1   AR   Ar  108   2.889   4.649   3.453
    1   AR   Ar  109   1.713   3.836   5.188
    1   AR   Ar  110   1.749   4.503   6.167
    1   AR   Ar  111   2.767   3.822   6.492
    1   AR   Ar  112   2.918   4.679   5.560
    1   AR   Ar  113   1.895   5.513   0.121
    1   AR   Ar  114   1.629   6.109   1.237
    1   AR   Ar  115   2.444   5.489   1.033
    1   AR   Ar  116   2.736   6.109  -0.404
    1   AR   Ar  117   1.764   5.223   1.743
    1   AR   Ar  118   1.742   6.116   2.544
    1   AR   Ar  119   2.658   5.284   2.485
    1   AR   Ar  120   2.607   6.428   1.860
    1   AR   Ar  121   1.728   5.267   3.783
    1   AR   Ar  122   1.715   6.343   4.366
    1   AR   Ar  123   2.618   5.468   4.440
    1   AR   Ar  124   2.407   6.271   3.370
    1   AR   Ar  125   1.792   5.200   5.021
    1   AR   Ar  126   1.808   6.502   6.408
    1   AR   Ar  127   2.707   5.421   6.412
    1   AR   Ar  128   2.656   6.152   5.196
    1   AR   Ar  129   3.560   7.051   0.270
    1   AR   Ar  130   3.827   0.937   0.951
    1   AR   Ar  131   4.292   6.859   1.198
    1   AR   Ar  132   4.649   1.169  -0.387
    1   AR   Ar  133   3.402   0.047   2.134
    1   AR   Ar  134   3.292   0.936   2.729
    1   AR   Ar  135   4.327   7.094   2.810
    1   AR   Ar  136   4.223   0.863   2.031
    1   AR   Ar  137   3.372   7.032   3.423
    1   AR   Ar  138   3.231   0.864   4.153
    1   AR   Ar  139   4.123   0.369   4.302
    1   AR   Ar  140   4.352   1.004   3.404
    1   AR   Ar  141   3.418   7.062   5.194
    1   AR   Ar  142   3.773   0.756   6.217
    1   AR   Ar  143   4.644   0.164   6.106
    1   AR   Ar  144   4.267   0.897   5.189
    1   AR   Ar  145   3.545   1.644  -0.142
    1   AR   Ar  146   3.531   2.795   0.754
    1   AR   Ar  147   4.268   1.909   0.913
    1   AR   Ar  148   4.665   2.742   0.320
    1   AR   Ar  149   3.539   1.791   1.813
    1   AR   Ar  150   3.385   2.461   2.787
    1   AR   Ar  151   4.438   2.058   2.959
    1   AR   Ar  152   4.402   2.665   1.903
    1   AR   Ar  153   3.668   1.908   3.785
    1   AR   Ar  154   3.459   2.647   4.556
    1   AR   Ar  155   4.609   1.736   4.250
    1   AR   Ar  156   4.529   2.657   3.772
    1   AR   Ar  157   3.879   1.892   5.223
    1   AR   Ar  158   3.443   2.590   6.225
    1   AR   Ar  159   4.371   1.582   6.323
    1   AR   Ar  160   4.241   2.898   5.177
    1   AR   Ar  161   3.471   3.668   0.172
    1   AR   Ar  162   3.578   4.797   0.801
    1   AR   Ar  163   4.486   3.674   0.931
    1   AR   Ar  164   4.671   4.699   0.255
    1   AR   Ar  165   3.559   3.714   1.413
    1   AR   Ar  166   3.464   4.226   2.662
    1   AR   Ar  167   4.277   3.385   2.909
    1   AR   Ar  168   4.509   4.280   1.923
    1   AR   Ar  169   3.192   3.393   3.378
    1   AR   Ar  170   3.630   4.632   4.371
    1   AR   Ar  171   4.098   3.625   4.046
    1   AR   Ar  172   4.371   4.504   3.499
    1   AR   Ar  173   3.549   3.786   5.270
    1   AR   Ar  174   3.784   4.534   6.150
    1   AR   Ar  175   4.362   3.640   6.150
    1   AR   Ar  176   4.378   4.644   5.164
    1   AR   Ar  177   3.458   5.574   0.111
    1   AR   Ar  178   3.499   6.198   1.345
    1   AR   Ar  179   4.434   5.527   1.154
    1   AR   Ar  180   4.478   6.155   0.439
    1   AR   Ar  181   3.723   5.253   1.956
    1   AR   Ar  182   3.519   6.017   2.694
    1   AR   Ar  183   4.844   5.177   2.846
    1   AR   Ar  184   4.411   6.149   2.038
    1   AR   Ar  185   3.386   5.603   3.765
    1   AR   Ar  186   3.357   6.497   4.320
    1   AR   Ar  187   4.376   5.409   4.221
    1   AR   Ar  188   4.475   6.291   3.575
    1   AR   Ar  189   3.536   5.537   4.965
    1   AR   Ar  190   3.485   6.355   5.954
    1   AR   Ar  191   4.519   5.412   5.816
    1   AR   Ar  192   4.469   6.831   5.003
    1   AR   Ar  193   4.567   0.260   0.235
    1   AR   Ar  194   5.091   0.887   1.132
    1   AR   Ar  195   5.966   0.207   1.335
    1   AR   Ar  196   6.066   0.776   0.403
    1   AR   Ar  197   5.168   0.041   1.990
    1   AR   Ar  198   5.206   0.882   2.641
    1   AR   Ar  199   6.141   0.310   2.420
    1   AR   Ar  200   5.963   1.213   1.770
    1   AR   Ar  201   5.054   0.260   3.746
    1   AR   Ar  202   5.195   0.859   4.576
    1   AR   Ar  203   6.325   0.264   4.303
    1   AR   Ar  204   6.136   0.768   3.332
    1   AR   Ar  205   5.538   0.056   5.021
    1   AR   Ar  206   5.505   0.743   6.504
    1   AR   Ar  207   6.595   6.898   6.174
    1   AR   Ar  208   6.112   0.906   5.188
    1   AR   Ar  209   5.636   1.896  -0.300
    1   AR   Ar  210   5.385   2.365   1.034
    1   AR   Ar  211   6.413   1.883   0.630
    1   AR   Ar  212   6.429   3.052   0.233
    1   AR   Ar  213   5.271   1.882   2.220
    1   AR   Ar  214   5.318   2.776   2.699
    1   AR   Ar  215   6.402   1.781   2.807
    1   AR   Ar  216   6.741   2.498   1.448
    1   AR   Ar  217   5.297   1.594   3.483
    1   AR   Ar  218   5.613   3.015   4.306
    1   AR   Ar  219   6.362   1.304   4.263
    1   AR   Ar  220   6.314   2.599   3.479
    1   AR   Ar  221   5.371   2.020   4.975
    1   AR   Ar  222   4.956   2.791   5.862
    1   AR   Ar  223   6.271   1.671   6.195
    1   AR   Ar  224   6.581   2.904   5.376
    1   AR   Ar  225   5.488   3.733  -0.038
    1   AR   Ar  226   5.212   4.643   1.193
    1   AR   Ar  227   6.114   3.908   0.826
    1   AR   Ar  228   6.090   4.675  -0.188
    1   AR   Ar  229   5.359   3.248   1.595
    1   AR   Ar  230   5.271   4.128   2.611
    1   AR   Ar  231   6.386   3.571   3.017
    1   AR   Ar  232   5.953   4.151   1.974
    1   AR   Ar  233   5.246   3.594   3.469
    1   AR   Ar  234   5.603   4.264   4.389
    1   AR   Ar  235   6.545   3.545   4.381
    1   AR   Ar  236   6.549   4.397   3.730
    1   AR   Ar  237   5.530   3.468   5.327
    1   AR   Ar  238   5.165   4.420   5.991
    1   AR   Ar  239   5.941   3.389   6.461
    1   AR   Ar  240   6.235   4.240   5.438
    1   AR   Ar  241   5.350   5.443   0.487
    1   AR   Ar  242   5.310   6.407   1.241
    1   AR   Ar  243   6.213   5.138   1.037
    1   AR   Ar  244   6.302   6.132   0.466
    1   AR   Ar  245   5.558   5.273   1.919
    1   AR   Ar  246   5.247   6.449   2.919
    1   AR   Ar  247   6.175   4.679   2.815
    1   AR   Ar  248   6.272   6.363   1.567
    1   AR   Ar  249   5.782   5.465   3.285
    1   AR   Ar  250   5.237   6.131   4.457
    1   AR   Ar  251   6.002   5.458   4.296
    1   AR   Ar  252   6.079   6.352   3.789
    1   AR   Ar  253   5.490   5.283   5.242
    1   AR   Ar  254   5.675   6.271   6.078
    1   AR   Ar  255   6.081   5.048   6.092
    1   AR   Ar  256   6.499   6.379   5.110
    7.12000  7.12000 12.00000
Argon-slab step 125
  256
    1   AR   Ar    1   7.092   6.798   0.210
    1   AR   Ar    2   6.824   0.722   1.008
    1   AR   Ar    3   0.761   6.858   1.011
    1   AR   Ar    4   1.048   0.392   0.220
    1   AR   Ar    5   0.041   7.090   1.855
    1   AR   Ar    6   0.140   0.710   2.753
    1   AR   Ar    7   0.914   6.779   2.872
    1   AR   Ar    8   0.857   0.725   1.963
    1   AR   Ar    9   7.082   6.971   3.491
    1   AR   Ar   10   0.165   0.824   4.160
    1   AR   Ar   11   1.008   0.026   4.571
    1   AR   Ar   12   0.892   0.573   3.521
    1   AR   Ar   13   7.043   0.246   5.092
    1   AR   Ar   14   0.304   1.103   5.785
    1   AR   Ar   15   0.976   0.086   6.728
    1   AR   Ar   16   1.168   0.633   5.535
    1   AR   Ar   17   0.238   1.350  -0.087
    1   AR   Ar   18   0.284   2.794   0.616
    1   AR   Ar   19   0.640   1.813   0.923
    1   AR   Ar   20   1.012   2.673  -0.248
    1   AR   Ar   21   0.022   1.598   1.723
    1   AR   Ar   22   7.059   2.667   2.675
    1   AR   Ar   23   0.833   1.782   2.760
    1   AR   Ar   24   0.577   2.989   1.560
    1   AR   Ar   25   0.267   1.748   3.862
    1   AR   Ar   26   0.103   2.731   4.408
    1   AR   Ar   27   0.822   1.862   4.805
    1   AR   Ar   28   1.075   2.562   3.857
    1   AR   Ar   29   6.903   1.938   5.142
    1   AR   Ar   30   0.526   2.767   6.191
    1   AR   Ar   31   1.253   1.516   6.375
    1   AR   Ar   32   1.054   2.896   5.246
    1   AR   Ar   33   0.125   3.774  -0.115
    1   AR   Ar   34   7.085   4.412   0.890
    1   AR   Ar   35   0.946   3.812   0.671
    1   AR   Ar   36   0.993   4.579  -0.221
    1   AR   Ar   37   0.254   3.908   1.842
    1   AR   Ar   38   0.144   4.530   2.656
    1   AR   Ar   39   0.953   3.711   2.545
    1   AR   Ar   40   0.851   4.758   1.863
    1   AR   Ar   41   0.220   3.204   3.441
    1   AR   Ar   42   0.027   4.620   4.607
    1   AR   Ar   43   0.813   3.596   4.224
    1   AR   Ar   44   0.702   4.217   3.483
    1   AR   Ar   45   0.303   3.731   5.326
    1   AR   Ar   46   7.074   4.542   6.102
    1   AR   Ar   47   0.948   3.839   6.086
    1   AR   Ar   48   0.867   4.729   5.377
    1   AR   Ar   49   7.116   4.743  -0.267
    1   AR   Ar   50   0.028   5.928   1.145
    1   AR   Ar   51   0.928   5.161   0.946
    1   AR   Ar   52   0.701   5.715   0.124
    1   AR   Ar   53   6.546   5.540   2.203
    1   AR   Ar   54   6.841   6.400   2.589
    1   AR   Ar   55   0.868   5.640   2.728
    1   AR   Ar   56   0.809   6.125   1.863
    1   AR   Ar   57   0.223   5.087   3.635
    1   AR   Ar   58   0.312   6.444   4.547
    1   AR   Ar   59   0.874   5.487   4.529
    1   AR   Ar   60   0.975   6.147   3.668
    1   AR   Ar   61   6.939   5.343   5.280
    1   AR   Ar   62   0.264   6.099   6.011
    1   AR   Ar   63   1.255   5.647   6.032
    1   AR   Ar   64   0.955   6.494   5.409
    1   AR   Ar   65   1.556   6.621  -0.266
    1   AR   Ar   66   1.903   1.047   1.270
    1   AR   Ar   67   2.421   6.588   0.566
    1   AR   Ar   68   2.371   0.987   0.269
    1   AR   Ar   69   1.417   6.964   1.860
    1   AR   Ar   70   1.794   0.972   2.720
    1   AR   Ar   71   2.375   0.098   2.685
    1   AR   Ar   72   2.921   0.826   1.281
    1   AR   Ar   73   1.670   7.093   3.642
    1   AR   Ar   74   1.615   0.797   4.423
    1   AR   Ar   75   2.427   0.238   4.330
    1   AR   Ar   76   2.536   0.966   3.412
    1   AR   Ar   77   1.868   6.969   5.241
    1   AR   Ar   78   2.137   0.846   5.918
    1   AR   Ar   79   2.724   6.977   6.144
    1   AR   Ar   80   2.910   0.977   5.280
    1   AR   Ar   81   1.731   1.690   0.249
    1   AR   Ar   82   1.514   2.854   1.022
    1   AR   Ar   83   2.517   2.210   1.093
    1   AR   Ar   84   2.480   2.681  -0.166
    1   AR   Ar   85   1.533   2.124   1.891
    1   AR   Ar   86   1.802   2.863   2.753
    1   AR   Ar   87   2.489   1.636   2.280
    1   AR   Ar   88   2.555   2.817   1.857
    1   AR   Ar   89   1.583   1.565   3.583
    1   AR   Ar   90   1.954   2.929   4.548
    1   AR   Ar   91   2.505   1.645   4.452
    1   AR   Ar   92   2.587   2.455   3.835
    1   AR   Ar   93   1.629   1.915   5.432
    1   AR   Ar   94   2.268   2.930   6.164
    1   AR   Ar   95   2.563   1.768   6.302
    1   AR   Ar   96   2.713   2.482   5.221
    1   AR   Ar   97   1.538   3.583  -0.208
    1   AR   Ar   98   1.960   4.240   0.974
    1   AR   Ar   99   2.525   3.152   0.834
    1   AR   Ar  100   2.813   4.692   0.088
    1   AR   Ar  101   1.773   3.595   1.816
    1   AR   Ar  102   1.535   4.568   2.866
    1   AR   Ar  103   2.440   3.690   2.647
    1   AR   Ar  104   2.722   4.624   1.614
    1   AR   Ar  105   1.819   3.395   3.577
    1   AR   Ar  106   1.599   4.238   4.206
    1   AR   Ar  107   2.840   3.994   4.230
    1   AR   Ar  108   2.863   4.652   3.476
    1   AR   Ar  109   1.705   3.849   5.182
    1   AR   Ar  110   1.769   4.473   6.140
    1   AR   Ar  111   2.794   3.831   6.517
    1   AR   Ar  112   2.906   4.694   5.546
    1   AR   Ar  113   1.896   5.497   0.132
    1   AR   Ar  114   1.648   6.115   1.241
    1   AR   Ar  115   2.430   5.488   1.043
    1   AR   Ar  116   2.728   6.119  -0.410
    1   AR   Ar  117   1.735   5.233   1.739
    1   AR   Ar  118   1.785   6.091   2.528
    1   AR   Ar  119   2.645   5.262   2.490
    1   AR   Ar  120   2.603   6.430   1.855
    1   AR   Ar  121   1.735   5.266   3.776
    1   AR   Ar  122   1.709   6.364   4.410
    1   AR   Ar  123   2.592   5.495   4.452
    1   AR   Ar  124   2.398   6.268   3.385
    1   AR   Ar  125   1.788   5.195   5.003
    1   AR   Ar  126   1.805   6.502   6.402
    1   AR   Ar  127   2.701   5.438   6.435
    1   AR   Ar  128   2.644   6.103   5.197
    1   AR   Ar  129   3.535   7.041   0.282
    1   AR   Ar  130   3.844   0.926   0.945
    1   AR   Ar  131   4.315   6.849   1.180
    1   AR   Ar  132   4.636   1.176  -0.416
    1   AR   Ar  133   3.433   0.040   2.182
    1   AR   Ar  134   3.312   0.958   2.757
    1   AR   Ar  135   4.317   7.053   2.785
    1   AR   Ar  136   4.229   0.851   2.046
    1   AR   Ar  137   3.337   7.034   3.433
    1   AR   Ar  138   3.251   0.828   4.149
    1   AR   Ar  139   4.112   0.359   4.302
    1   AR   Ar  140   4.365   1.003   3.403
    1   AR   Ar  141   3.405   7.095   5.205
    1   AR   Ar  142   3.736   0.732   6.207
    1   AR   Ar  143   4.625   0.147   6.091
    1   AR   Ar  144   4.249   0.881   5.191
    1   AR   Ar  145   3.541   1.636  -0.153
    1   AR   Ar  146   3.538   2.794   0.775
    1   AR   Ar  147   4.266   1.911   0.897
    1   AR   Ar  148   4.705   2.726   0.297
    1   AR   Ar  149   3.559   1.790   1.798
    1   AR   Ar  150   3.384   2.459   2.779
    1   AR   Ar  151   4.433   2.088   2.957
    1   AR   Ar  152   4.375   2.660   1.887
    1   AR   Ar  153   3.656   1.905   3.788
    1   AR   Ar  154   3.419   2.663   4.520
    1   AR   Ar  155   4.591   1.737   4.267
    1   AR   Ar  156   4.533   2.682   3.780
    1   AR   Ar  157   3.908   1.894   5.243
    1   AR   Ar  158   3.446   2.619   6.252
    1   AR   Ar  159   4.355   1.563   6.301
    1   AR   Ar  160   4.210   2.899   5.184
    1   AR   Ar  161   3.463   3.647   0.185
    1   AR   Ar  162   3.568   4.780   0.780
    1   AR   Ar  163   4.498   3.692   0.944
    1   AR   Ar  164   4.654   4.696   0.253
    1   AR   Ar  165   3.541   3.714   1.402
    1   AR   Ar  166   3.437   4.239   2.642
    1   AR   Ar  167   4.252   3.370   2.924
    1   AR   Ar  168   4.487   4.288   1.919
    1   AR   Ar  169   3.186   3.381   3.413
    1   AR   Ar  170   3.636   4.623   4.368
    1   AR   Ar  171   4.085   3.621   4.022
    1   AR   Ar  172   4.365   4.509   3.507
    1   AR   Ar  173   3.513   3.778   5.286
    1   AR   Ar  174   3.779   4.562   6.141
    1   AR   Ar  175   4.330   3.638   6.175
    1   AR   Ar  176   4.348   4.644   5.175
    1   AR   Ar  177   3.441   5.571   0.123
    1   AR   Ar  178   3.496   6.180   1.378
    1   AR   Ar  179   4.441   5.518   1.171
    1   AR   Ar  180   4.490   6.177   0.443
    1   AR   Ar  181   3.722   5.266   1.967
    1   AR   Ar  182   3.519   6.033   2.671
    1   AR   Ar  183   4.841   5.201   2.882
    1   AR   Ar  184   4.413   6.150   2.061
    1   AR   Ar  185   3.397   5.597   3.758
    1   AR   Ar  186   3.349   6.495   4.307
    1   AR   Ar  187   4.375   5.451   4.208
    1   AR   Ar  188   4.470   6.296   3.611
    1   AR   Ar  189   3.550   5.525   4.948
    1   AR   Ar  190   3.507   6.343   5.951
    1   AR   Ar  191   4.538   5.447   5.799
    1   AR   Ar  192   4.491   6.852   4.985
    1   AR   Ar  193   4.531   0.287   0.233
    1   AR   Ar  194   5.089   0.930   1.133
    1   AR   Ar  195   5.959   0.178   1.364
    1   AR   Ar  196   6.046   0.800   0.449
    1   AR   Ar  197   5.179   0.038   1.984
    1   AR   Ar  198   5.224   0.866   2.656
    1   AR   Ar  199   6.147   0.310   2.403
    1   AR   Ar  200   5.956   1.226   1.781
    1   AR   Ar  201   5.089   0.260   3.760
    1   AR   Ar  202   5.177   0.889   4.585
    1   AR   Ar  203   6.297   0.233   4.278
    1   AR   Ar  204   6.133   0.741   3.350
    1   AR   Ar  205   5.539   0.080   5.013
    1   AR   Ar  206   5.517   0.726   6.527
    1   AR   Ar  207   6.568   6.907   6.159
    1   AR   Ar  208   6.081   0.900   5.176
    1   AR   Ar  209   5.671   1.901  -0.321
    1   AR   Ar  210   5.396   2.335   1.057
    1   AR   Ar  211   6.427   1.899   0.642
    1   AR   Ar  212   6.426   3.053   0.232
    1   AR   Ar  213   5.255   1.898   2.222
    1   AR   Ar  214   5.326   2.781   2.673
    1   AR   Ar  215   6.408   1.766   2.802
    1   AR   Ar  216   6.739   2.521   1.414
    1   AR   Ar  217   5.289   1.600   3.488
    1   AR   Ar  218   5.575   3.004   4.300
    1   AR   Ar  219   6.360   1.333   4.233
    1   AR   Ar  220   6.294   2.595   3.482
    1   AR   Ar  221   5.400   2.007   4.965
    1   AR   Ar  222   4.914   2.800   5.870
    1   AR   Ar  223   6.273   1.700   6.206
    1   AR   Ar  224   6.586   2.898   5.380
    1   AR   Ar  225   5.475   3.773  -0.043
    1   AR   Ar  226   5.224   4.641   1.215
    1   AR   Ar  227   6.117   3.900   0.835
    1   AR   Ar  228   6.092   4.682  -0.185
    1   AR   Ar  229   5.377   3.264   1.598
    1   AR   Ar  230   5.247   4.133   2.635
    1   AR   Ar  231   6.385   3.560   3.028
    1   AR   Ar  232   5.974   4.099   1.972
    1   AR   Ar  233   5.260   3.569   3.475
    1   AR   Ar  234   5.611   4.275   4.370
    1   AR   Ar  235   6.557   3.559   4.367
    1   AR   Ar  236   6.583   4.401   3.744
    1   AR   Ar  237   5.515   3.452   5.312
    1   AR   Ar  238   5.196   4.420   5.958
    1   AR   Ar  239   5.942   3.388   6.452
    1   AR   Ar  240   6.283   4.200   5.435
    1   AR   Ar  241   5.400   5.475   0.489
    1   AR   Ar  242   5.313   6.412   1.266
    1   AR   Ar  243   6.230   5.182   1.034
    1   AR   Ar  244   6.296   6.116   0.504
    1   AR   Ar  245   5.566   5.272   1.916
    1   AR   Ar  246   5.232   6.466   2.919
    1   AR   Ar  247   6.202   4.672   2.813
    1   AR   Ar  248   6.253   6.370   1.558
    1   AR   Ar  249   5.822   5.449   3.274
    1   AR   Ar  250   5.230   6.104   4.437
    1   AR   Ar  251   5.987   5.457   4.268
    1   AR   Ar  252   6.067   6.380   3.805
    1   AR   Ar  253   5.489   5.290   5.255
    1   AR   Ar  254   5.629   6.248   6.070
    1   AR   Ar  255   6.078   5.058   6.068
    1   AR   Ar  256   6.466   6.375   5.102
    7.12000  7.12000 12.00000
Argon-slab step 130
  256
    1   AR   Ar    1   7.113   6.779   0.228
    1   AR   Ar    2   6.819   0.736   1.015
    1   AR   Ar    3   0.754   6.837   1.021
    1   AR   Ar    4   1.068   0.388   0.218
    1   AR   Ar    5   0.033   7.103   1.858
    1   AR   Ar    6   0.109   0.700   2.744
    1   AR   Ar    7   0.947   6.763   2.833
    1   AR   Ar    8   0.858   0.705   1.945
    1   AR   Ar    9   7.085   7.004   3.494
    1   AR   Ar   10   0.179   0.799   4.163
    1   AR   Ar   11   0.964   0.042   4.556
    1   AR   Ar   12   0.890   0.610   3.472
    1   AR   Ar   13   7.038   0.297   5.095
    1   AR   Ar   14   0.343   1.108   5.761
    1   AR   Ar   15   0.967   0.081   6.768
    1   AR   Ar   16   1.186   0.648   5.494
    1   AR   Ar   17   0.228   1.363  -0.075
    1   AR   Ar   18   0.276   2.808   0.606
    1   AR   Ar   19   0.631   1.776   0.921
    1   AR   Ar   20   1.040   2.621  -0.222
    1   AR   Ar   21   0.019   1.569   1.718
    1   AR   Ar   22   7.027   2.664   2.667
    1   AR   Ar   23   0.821   1.788   2.771
    1   AR   Ar   24   0.561   2.978   1.545
    1   AR   Ar   25   0.290   1.765   3.853
    1   AR   Ar   26   0.095   2.706   4.405
    1   AR   Ar   27   0.812   1.869   4.797
    1   AR   Ar   28   1.070   2.593   3.878
    1   AR   Ar   29   6.902   1.930   5.169
    1   AR   Ar   30   0.522   2.741   6.214
    1   AR   Ar   31   1.233   1.525   6.373
    1   AR   Ar   32   1.078   2.905   5.251
    1   AR   Ar   33   0.139   3.760  -0.116
    1   AR   Ar   34   7.079   4.413   0.910
    1   AR   Ar   35   0.942   3.824   0.686
    1   AR   Ar   36   1.003   4.588  -0.238
    1   AR   Ar   37   0.220   3.854   1.852
    1   AR   Ar   38   0.149   4.558   2.680
    1   AR   Ar   39   0.996   3.689   2.544
    1   AR   Ar   40   0.855   4.715   1.868
    1   AR   Ar   41   0.225   3.208   3.435
    1   AR   Ar   42   0.038   4.630   4.589
    1   AR   Ar   43   0.820   3.572   4.227
    1   AR   Ar   44   0.705   4.204   3.483
    1   AR   Ar   45   0.296   3.727   5.338
    1   AR   Ar   46   7.070   4.607   6.126
    1   AR   Ar   47   0.949   3.823   6.111
    1   AR   Ar   48   0.876   4.750   5.381
    1   AR   Ar   49   7.096   4.745  -0.320
    1   AR   Ar   50   0.013   5.909   1.151
    1   AR   Ar   51   0.933   5.125   0.915
    1   AR   Ar   52   0.703   5.728   0.132
    1   AR   Ar   53   6.533   5.528   2.206
    1   AR   Ar   54   6.820   6.416   2.594
    1   AR   Ar   55   0.896   5.649   2.768
    1   AR   Ar   56   0.802   6.113   1.874
    1   AR   Ar   57   0.241   5.057   3.646
    1   AR   Ar   58   0.336   6.422   4.556
    1   AR   Ar   59   0.876   5.496   4.552
    1   AR   Ar   60   0.972   6.169   3.661
    1   AR   Ar   61   6.936   5.362   5.264
    1   AR   Ar   62   0.270   6.066   5.999
    1   AR   Ar   63   1.270   5.650   6.028
    1   AR   Ar   64   0.959   6.492   5.384
    1   AR   Ar   65   1.565   6.627  -0.283
    1   AR   Ar   66   1.923   1.079   1.276
    1   AR   Ar   67   2.427   6.580   0.576
    1   AR   Ar   68   2.411   0.995   0.273
    1   AR   Ar   69   1.420   6.972   1.827
    1   AR   Ar   70   1.779   0.972   2.715
    1   AR   Ar   71   2.360   0.090   2.671
    1   AR   Ar   72   2.896   0.815   1.275
    1   AR   Ar   73   1.654   7.085   3.625
    1   AR   Ar   74   1.615   0.810   4.456
    1   AR   Ar   75   2.433   0.247   4.330
    1   AR   Ar   76   2.563   0.962   3.429
    1   AR   Ar   77   1.869   6.983   5.234
    1   AR   Ar   78   2.138   0.859   5.917
    1   AR   Ar   79   2.729   6.986   6.136
    1   AR   Ar   80   2.936   0.971   5.245
    1   AR   Ar   81   1.733   1.699   0.219
    1   AR   Ar   82   1.523   2.835   1.011
    1   AR   Ar   83   2.505   2.225   1.109
    1   AR   Ar   84   2.495   2.708  -0.152
    1   AR   Ar   85   1.532   2.147   1.904
    1   AR   Ar   86   1.799   2.870   2.762
    1   AR   Ar   87   2.484   1.607   2.287
    1   AR   Ar   88   2.545   2.811   1.879
    1   AR   Ar   89   1.596   1.587   3.548
    1   AR   Ar   90   1.948   2.961   4.526
    1   AR   Ar   91   2.536   1.675   4.439
    1   AR   Ar   92   2.590   2.437   3.844
    1   AR   Ar   93   1.611   1.901   5.469
    1   AR   Ar   94   2.285   2.967   6.159
    1   AR   Ar   95   2.554   1.764   6.299
    1   AR   Ar   96   2.741   2.443   5.225
    1   AR   Ar   97   1.537   3.625  -0.195
    1   AR   Ar   98   1.973   4.208   1.006
    1   AR   Ar   99   2.528   3.165   0.827
    1   AR   Ar  100   2.825   4.696   0.070
    1   AR   Ar  101   1.764   3.594   1.813
    1   AR   Ar  102   1.541   4.565   2.889
    1   AR   Ar  103   2.431   3.675   2.678
    1   AR   Ar  104   2.708   4.622   1.590
    1   AR   Ar  105   1.828   3.400   3.571
    1   AR   Ar  106   1.626   4.266   4.187
    1   AR   Ar  107   2.833   3.999   4.252
    1   AR   Ar  108   2.836   4.662   3.492
    1   AR   Ar  109   1.695   3.862   5.179
    1   AR   Ar  110   1.794   4.446   6.111
    1   AR   Ar  111   2.822   3.843   6.539
    1   AR   Ar  112   2.891   4.711   5.529
    1   AR   Ar  113   1.895   5.481   0.142
    1   AR   Ar  114   1.664   6.129   1.239
    1   AR   Ar  115   2.428   5.486   1.049
    1   AR   Ar  116   2.737   6.160  -0.407
    1   AR   Ar  117   1.709   5.239   1.743
    1   AR   Ar  118   1.830   6.067   2.510
    1   AR   Ar  119   2.632   5.241   2.496
    1   AR   Ar  120   2.596   6.432   1.852
    1   AR   Ar  121   1.760   5.263   3.785
    1   AR   Ar  122   1.706   6.378   4.454
    1   AR   Ar  123   2.568   5.513   4.445
    1   AR   Ar  124   2.391   6.264   3.403
    1   AR   Ar  125   1.781   5.188   4.990
    1   AR   Ar  126   1.801   6.502   6.395
    1   AR   Ar  127   2.694   5.455   6.455
    1   AR   Ar  128   2.631   6.067   5.213
    1   AR   Ar  129   3.507   7.030   0.296
    1   AR   Ar  130   3.874   0.914   0.935
    1   AR   Ar  131   4.337   6.846   1.168
    1   AR   Ar  132   4.623   1.184  -0.444
    1   AR   Ar  133   3.462   0.031   2.228
    1   AR   Ar  134   3.339   0.981   2.782
    1   AR   Ar  135   4.283   7.063   2.776
    1   AR   Ar  136   4.236   0.837   2.061
    1   AR   Ar  137   3.302   7.040   3.437
    1   AR   Ar  138   3.270   0.800   4.146
    1   AR   Ar  139   4.107   0.346   4.294
    1   AR   Ar  140   4.376   1.002   3.402
    1   AR   Ar  141   3.391   0.011   5.215
    1   AR   Ar  142   3.694   0.706   6.194
    1   AR   Ar  143   4.606   0.118   6.143
    1   AR   Ar  144   4.232   0.864   5.198
    1   AR   Ar  145   3.537   1.629  -0.162
    1   AR   Ar  146   3.547   2.787   0.798
    1   AR   Ar  147   4.283   1.910   0.892
    1   AR   Ar  148   4.744   2.713   0.274
    1   AR   Ar  149   3.579   1.788   1.784
    1   AR   Ar  150   3.384   2.457   2.770
    1   AR   Ar  151   4.420   2.104   2.946
    1   AR   Ar  152   4.349   2.656   1.872
    1   AR   Ar  153   3.655   1.906   3.813
    1   AR   Ar  154   3.384   2.681   4.479
    1   AR   Ar  155   4.570   1.736   4.287
    1   AR   Ar  156   4.539   2.710   3.792
    1   AR   Ar  157   3.934   1.895   5.263
    1   AR   Ar  158   3.449   2.649   6.276
    1   AR   Ar  159   4.341   1.548   6.277
    1   AR   Ar  160   4.174   2.905   5.185
    1   AR   Ar  161   3.452   3.619   0.177
    1   AR   Ar  162   3.564   4.760   0.769
    1   AR   Ar  163   4.513   3.710   0.955
    1   AR   Ar  164   4.655   4.707   0.275
    1   AR   Ar  165   3.542   3.724   1.403
    1   AR   Ar  166   3.400   4.249   2.616
    1   AR   Ar  167   4.227   3.354   2.939
    1   AR   Ar  168   4.461   4.297   1.915
    1   AR   Ar  169   3.180   3.369   3.447
    1   AR   Ar  170   3.644   4.615   4.364
    1   AR   Ar  171   4.070   3.616   4.001
    1   AR   Ar  172   4.396   4.498   3.496
    1   AR   Ar  173   3.478   3.770   5.302
    1   AR   Ar  174   3.775   4.591   6.131
    1   AR   Ar  175   4.298   3.636   6.199
    1   AR   Ar  176   4.319   4.640   5.184
    1   AR   Ar  177   3.431   5.573   0.141
    1   AR   Ar  178   3.495   6.161   1.409
    1   AR   Ar  179   4.449   5.500   1.195
    1   AR   Ar  180   4.503   6.204   0.433
    1   AR   Ar  181   3.721   5.274   1.976
    1   AR   Ar  182   3.506   6.054   2.655
    1   AR   Ar  183   4.839   5.228   2.914
    1   AR   Ar  184   4.418   6.153   2.084
    1   AR   Ar  185   3.409   5.590   3.746
    1   AR   Ar  186   3.341   6.492   4.299
    1   AR   Ar  187   4.374   5.489   4.197
    1   AR   Ar  188   4.461   6.306   3.647
    1   AR   Ar  189   3.567   5.530   4.947
    1   AR   Ar  190   3.522   6.345   5.953
    1   AR   Ar  191   4.558   5.485   5.784
    1   AR   Ar  192   4.488   6.854   5.024
    1   AR   Ar  193   4.569   0.314   0.234
    1   AR   Ar  194   5.086   0.972   1.134
    1   AR   Ar  195   5.955   0.161   1.385
    1   AR   Ar  196   6.010   0.826   0.485
    1   AR   Ar  197   5.180   0.035   1.984
    1   AR   Ar  198   5.241   0.851   2.672
    1   AR   Ar  199   6.171   0.316   2.398
    1   AR   Ar  200   5.952   1.238   1.790
    1   AR   Ar  201   5.127   0.257   3.769
    1   AR   Ar  202   5.154   0.940   4.583
    1   AR   Ar  203   6.271   0.201   4.253
    1   AR   Ar  204   6.142   0.720   3.376
    1   AR   Ar  205   5.538   0.084   5.010
    1   AR   Ar  206   5.522   0.713   6.541
    1   AR   Ar  207   6.533   6.916   6.144
    1   AR   Ar  208   6.054   0.897   5.152
    1   AR   Ar  209   5.705   1.906  -0.339
    1   AR   Ar  210   5.408   2.302   1.080
    1   AR   Ar  211   6.441   1.912   0.652
    1   AR   Ar  212   6.421   3.052   0.230
    1   AR   Ar  213   5.248   1.932   2.229
    1   AR   Ar  214   5.333   2.796   2.652
    1   AR   Ar  215   6.414   1.748   2.796
    1   AR   Ar  216   6.733   2.549   1.384
    1   AR   Ar  217   5.286   1.605   3.492
    1   AR   Ar  218   5.549   2.993   4.300
    1   AR   Ar  219   6.355   1.367   4.202
    1   AR   Ar  220   6.272   2.591   3.488
    1   AR   Ar  221   5.431   1.995   4.956
    1   AR   Ar  222   4.913   2.811   5.856
    1   AR   Ar  223   6.275   1.728   6.214
    1   AR   Ar  224   6.590   2.899   5.385
    1   AR   Ar  225   5.462   3.813  -0.046
    1   AR   Ar  226   5.235   4.632   1.231
    1   AR   Ar  227   6.119   3.894   0.846
    1   AR   Ar  228   6.089   4.689  -0.177
    1   AR   Ar  229   5.394   3.283   1.602
    1   AR   Ar  230   5.213   4.142   2.664
    1   AR   Ar  231   6.372   3.548   3.009
    1   AR   Ar  232   6.006   4.046   1.957
    1   AR   Ar  233   5.273   3.543   3.485
    1   AR   Ar  234   5.620   4.285   4.352
    1   AR   Ar  235   6.569   3.572   4.355
    1   AR   Ar  236   6.613   4.403   3.758
    1   AR   Ar  237   5.501   3.438   5.296
    1   AR   Ar  238   5.225   4.418   5.923
    1   AR   Ar  239   5.936   3.422   6.433
    1   AR   Ar  240   6.332   4.160   5.428
    1   AR   Ar  241   5.446   5.509   0.491
    1   AR   Ar  242   5.305   6.411   1.284
    1   AR   Ar  243   6.252   5.222   1.034
    1   AR   Ar  244   6.288   6.103   0.541
    1   AR   Ar  245   5.557   5.254   1.931
    1   AR   Ar  246   5.222   6.484   2.917
    1   AR   Ar  247   6.233   4.657   2.805
    1   AR   Ar  248   6.248   6.369   1.558
    1   AR   Ar  249   5.856   5.443   3.261
    1   AR   Ar  250   5.245   6.161   4.442
    1   AR   Ar  251   6.000   5.464   4.269
    1   AR   Ar  252   6.057   6.414   3.817
    1   AR   Ar  253   5.486   5.297   5.264
    1   AR   Ar  254   5.582   6.225   6.059
    1   AR   Ar  255   6.079   5.070   6.048
    1   AR   Ar  256   6.419   6.343   5.092
    7.12000  7.12000 12.00000
Argon-slab step 135
  256
    1   AR   Ar    1   0.016   6.760   0.248
    1   AR   Ar    2   6.834   0.737   1.014
    1   AR   Ar    3   0.746   6.814   1.031
    1   AR   Ar    4   1.087   0.386   0.217
    1   AR   Ar    5   0.042   0.016   1.841
    1   AR   Ar    6   0.075   0.692   2.735
    1   AR   Ar    7   0.979   6.751   2.789
    1   AR   Ar    8   0.857   0.690   1.927
    1   AR   Ar    9   7.089   7.037   3.499
    1   AR   Ar   10   0.189   0.768   4.172
    1   AR   Ar   11   0.912   0.073   4.532
    1   AR   Ar   12   0.889   0.650   3.419
    1   AR   Ar   13   7.033   0.346   5.099
    1   AR   Ar   14   0.374   1.118   5.739
    1   AR   Ar   15   0.958   0.075   6.805
    1   AR   Ar   16   1.208   0.659   5.450
    1   AR   Ar   17   0.233   1.387  -0.098
    1   AR   Ar   18   0.309   2.815   0.623
    1   AR   Ar   19   0.625   1.740   0.916
    1   AR   Ar   20   1.069   2.569  -0.195
    1   AR   Ar   21   0.012   1.538   1.719
    1   AR   Ar   22   6.993   2.656   2.649
    1   AR   Ar   23   0.809   1.793   2.783
    1   AR   Ar   24   0.556   2.960   1.539
    1   AR   Ar   25   0.314   1.788   3.839
    1   AR   Ar   26   0.087   2.681   4.404
    1   AR   Ar   27   0.801   1.875   4.787
    1   AR   Ar   28   1.066   2.622   3.899
    1   AR   Ar   29   6.900   1.917   5.196
    1   AR   Ar   30   0.517   2.716   6.235
    1   AR   Ar   31   1.212   1.531   6.372
    1   AR   Ar   32   1.101   2.915   5.254
    1   AR   Ar   33   0.155   3.739  -0.114
    1   AR   Ar   34   7.074   4.416   0.929
    1   AR   Ar   35   0.935   3.836   0.704
    1   AR   Ar   36   1.017   4.596  -0.253
    1   AR   Ar   37   0.178   3.808   1.862
    1   AR   Ar   38   0.154   4.588   2.702
    1   AR   Ar   39   1.039   3.666   2.547
    1   AR   Ar   40   0.855   4.667   1.878
    1   AR   Ar   41   0.239   3.195   3.419
    1   AR   Ar   42   0.055   4.634   4.576
    1   AR   Ar   43   0.827   3.540   4.245
    1   AR   Ar   44   0.714   4.187   3.477
    1   AR   Ar   45   0.284   3.723   5.344
    1   AR   Ar   46   7.069   4.671   6.147
    1   AR   Ar   47   0.952   3.806   6.140
    1   AR   Ar   48   0.882   4.768   5.385
    1   AR   Ar   49   7.077   4.752  -0.363
    1   AR   Ar   50   0.002   5.889   1.157
    1   AR   Ar   51   0.941   5.087   0.886
    1   AR   Ar   52   0.708   5.745   0.136
    1   AR   Ar   53   6.512   5.568   2.255
    1   AR   Ar   54   6.801   6.439   2.602
    1   AR   Ar   55   0.922   5.648   2.811
    1   AR   Ar   56   0.791   6.101   1.881
    1   AR   Ar   57   0.262   5.048   3.657
    1   AR   Ar   58   0.346   6.389   4.561
    1   AR   Ar   59   0.876   5.503   4.574
    1   AR   Ar   60   0.969   6.191   3.664
    1   AR   Ar   61   6.946   5.369   5.261
    1   AR   Ar   62   0.270   6.032   5.991
    1   AR   Ar   63   1.287   5.663   6.048
    1   AR   Ar   64   0.967   6.489   5.359
    1   AR   Ar   65   1.575   6.631  -0.298
    1   AR   Ar   66   1.935   1.114   1.283
    1   AR   Ar   67   2.434   6.570   0.588
    1   AR   Ar   68   2.410   0.969   0.290
    1   AR   Ar   69   1.431   6.980   1.799
    1   AR   Ar   70   1.756   0.969   2.707
    1   AR   Ar   71   2.348   0.080   2.659
    1   AR   Ar   72   2.875   0.802   1.271
    1   AR   Ar   73   1.644   7.074   3.608
    1   AR   Ar   74   1.611   0.835   4.489
    1   AR   Ar   75   2.443   0.247   4.330
    1   AR   Ar   76   2.580   0.959   3.449
    1   AR   Ar   77   1.866   7.004   5.230
    1   AR   Ar   78   2.137   0.871   5.918
    1   AR   Ar   79   2.731   7.000   6.126
    1   AR   Ar   80   2.964   0.968   5.208
    1   AR   Ar   81   1.724   1.720   0.190
    1   AR   Ar   82   1.530   2.816   0.999
    1   AR   Ar   83   2.491   2.217   1.115
    1   AR   Ar   84   2.509   2.736  -0.138
    1   AR   Ar   85   1.533   2.169   1.917
    1   AR   Ar   86   1.791   2.862   2.757
    1   AR   Ar   87   2.482   1.581   2.292
    1   AR   Ar   88   2.535   2.814   1.915
    1   AR   Ar   89   1.608   1.610   3.518
    1   AR   Ar   90   1.940   2.993   4.509
    1   AR   Ar   91   2.566   1.691   4.435
    1   AR   Ar   92   2.592   2.430   3.837
    1   AR   Ar   93   1.599   1.887   5.505
    1   AR   Ar   94   2.302   3.002   6.152
    1   AR   Ar   95   2.554   1.757   6.281
    1   AR   Ar   96   2.763   2.401   5.234
    1   AR   Ar   97   1.538   3.666  -0.180
    1   AR   Ar   98   1.984   4.178   1.031
    1   AR   Ar   99   2.531   3.194   0.818
    1   AR   Ar  100   2.830   4.697   0.048
    1   AR   Ar  101   1.741   3.579   1.812
    1   AR   Ar  102   1.549   4.564   2.910
    1   AR   Ar  103   2.425   3.664   2.708
    1   AR   Ar  104   2.700   4.619   1.571
    1   AR   Ar  105   1.836   3.414   3.576
    1   AR   Ar  106   1.654   4.297   4.167
    1   AR   Ar  107   2.819   3.995   4.281
    1   AR   Ar  108   2.807   4.676   3.503
    1   AR   Ar  109   1.684   3.873   5.177
    1   AR   Ar  110   1.823   4.422   6.081
    1   AR   Ar  111   2.852   3.855   6.560
    1   AR   Ar  112   2.873   4.729   5.509
    1   AR   Ar  113   1.891   5.466   0.151
    1   AR   Ar  114   1.677   6.149   1.233
    1   AR   Ar  115   2.438   5.484   1.051
    1   AR   Ar  116   2.744   6.202  -0.405
    1   AR   Ar  117   1.685   5.243   1.753
    1   AR   Ar  118   1.875   6.044   2.490
    1   AR   Ar  119   2.619   5.222   2.503
    1   AR   Ar  120   2.586   6.435   1.849
    1   AR   Ar  121   1.788   5.262   3.796
    1   AR   Ar  122   1.704   6.383   4.492
    1   AR   Ar  123   2.549   5.520   4.418
    1   AR   Ar  124   2.385   6.261   3.425
    1   AR   Ar  125   1.774   5.179   4.982
    1   AR   Ar  126   1.796   6.503   6.386
    1   AR   Ar  127   2.688   5.472   6.473
    1   AR   Ar  128   2.620   6.046   5.247
    1   AR   Ar  129   3.480   7.018   0.312
    1   AR   Ar  130   3.908   0.900   0.925
    1   AR   Ar  131   4.355   6.853   1.166
    1   AR   Ar  132   4.610   1.193  -0.471
    1   AR   Ar  133   3.480   0.021   2.267
    1   AR   Ar  134   3.372   1.004   2.803
    1   AR   Ar  135   4.259   7.073   2.775
    1   AR   Ar  136   4.243   0.824   2.075
    1   AR   Ar  137   3.267   7.050   3.435
    1   AR   Ar  138   3.284   0.784   4.144
    1   AR   Ar  139   4.115   0.326   4.281
    1   AR   Ar  140   4.385   1.002   3.401
    1   AR   Ar  141   3.379   0.046   5.223
    1   AR   Ar  142   3.648   0.677   6.179
    1   AR   Ar  143   4.588   0.090   6.192
    1   AR   Ar  144   4.214   0.846   5.207
    1   AR   Ar  145   3.533   1.621  -0.169
    1   AR   Ar  146   3.559   2.776   0.825
    1   AR   Ar  147   4.301   1.909   0.889
    1   AR   Ar  148   4.783   2.701   0.252
    1   AR   Ar  149   3.598   1.787   1.769
    1   AR   Ar  150   3.383   2.455   2.762
    1   AR   Ar  151   4.402   2.112   2.930
    1   AR   Ar  152   4.330   2.672   1.858
    1   AR   Ar  153   3.652   1.905   3.833
    1   AR   Ar  154   3.355   2.705   4.434
    1   AR   Ar  155   4.578   1.710   4.284
    1   AR   Ar  156   4.547   2.737   3.806
    1   AR   Ar  157   3.957   1.893   5.282
    1   AR   Ar  158   3.452   2.679   6.297
    1   AR   Ar  159   4.329   1.534   6.252
    1   AR   Ar  160   4.144   2.907   5.183
    1   AR   Ar  161   3.441   3.595   0.169
    1   AR   Ar  162   3.566   4.736   0.767
    1   AR   Ar  163   4.531   3.728   0.964
    1   AR   Ar  164   4.668   4.727   0.314
    1   AR   Ar  165   3.555   3.742   1.413
    1   AR   Ar  166   3.365   4.259   2.589
    1   AR   Ar  167   4.203   3.338   2.952
    1   AR   Ar  168   4.432   4.306   1.910
    1   AR   Ar  169   3.173   3.354   3.479
    1   AR   Ar  170   3.655   4.610   4.357
    1   AR   Ar  171   4.054   3.613   3.984
    1   AR   Ar  172   4.425   4.484   3.486
    1   AR   Ar  173   3.443   3.764   5.317
    1   AR   Ar  174   3.771   4.620   6.122
    1   AR   Ar  175   4.266   3.634   6.221
    1   AR   Ar  176   4.314   4.662   5.166
    1   AR   Ar  177   3.429   5.583   0.167
    1   AR   Ar  178   3.497   6.141   1.437
    1   AR   Ar  179   4.463   5.503   1.198
    1   AR   Ar  180   4.518   6.227   0.412
    1   AR   Ar  181   3.718   5.277   1.986
    1   AR   Ar  182   3.491   6.078   2.643
    1   AR   Ar  183   4.838   5.259   2.942
    1   AR   Ar  184   4.426   6.159   2.107
    1   AR   Ar  185   3.421   5.581   3.732
    1   AR   Ar  186   3.333   6.488   4.299
    1   AR   Ar  187   4.375   5.515   4.193
    1   AR   Ar  188   4.449   6.326   3.677
    1   AR   Ar  189   3.587   5.558   4.972
    1   AR   Ar  190   3.537   6.348   5.956
    1   AR   Ar  191   4.576   5.526   5.770
    1   AR   Ar  192   4.486   6.852   5.068
    1   AR   Ar  193   4.608   0.342   0.237
    1   AR   Ar  194   5.081   1.014   1.136
    1   AR   Ar  195   5.955   0.159   1.394
    1   AR   Ar  196   5.961   0.855   0.513
    1   AR   Ar  197   5.169   0.032   1.993
    1   AR   Ar  198   5.257   0.837   2.690
    1   AR   Ar  199   6.209   0.326   2.404
    1   AR   Ar  200   5.950   1.249   1.798
    1   AR   Ar  201   5.165   0.250   3.776
    1   AR   Ar  202   5.131   0.991   4.580
    1   AR   Ar  203   6.260   0.191   4.248
    1   AR   Ar  204   6.150   0.702   3.398
    1   AR   Ar  205   5.530   0.069   5.009
    1   AR   Ar  206   5.516   0.706   6.541
    1   AR   Ar  207   6.498   6.924   6.127
    1   AR   Ar  208   6.037   0.907   5.133
    1   AR   Ar  209   5.740   1.911  -0.356
    1   AR   Ar  210   5.420   2.267   1.104
    1   AR   Ar  211   6.453   1.920   0.657
    1   AR   Ar  212   6.415   3.051   0.229
    1   AR   Ar  213   5.238   1.951   2.230
    1   AR   Ar  214   5.342   2.827   2.640
    1   AR   Ar  215   6.419   1.726   2.789
    1   AR   Ar  216   6.724   2.580   1.360
    1   AR   Ar  217   5.287   1.611   3.494
    1   AR   Ar  218   5.569   2.991   4.323
    1   AR   Ar  219   6.349   1.404   4.173
    1   AR   Ar  220   6.251   2.587   3.496
    1   AR   Ar  221   5.460   1.975   4.951
    1   AR   Ar  222   4.916   2.816   5.851
    1   AR   Ar  223   6.277   1.756   6.220
    1   AR   Ar  224   6.583   2.899   5.390
    1   AR   Ar  225   5.448   3.786  -0.058
    1   AR   Ar  226   5.244   4.616   1.237
    1   AR   Ar  227   6.120   3.889   0.858
    1   AR   Ar  228   6.080   4.696  -0.166
    1   AR   Ar  229   5.407   3.299   1.605
    1   AR   Ar  230   5.179   4.154   2.690
    1   AR   Ar  231   6.358   3.538   2.989
    1   AR   Ar  232   6.042   3.996   1.941
    1   AR   Ar  233   5.283   3.516   3.495
    1   AR   Ar  234   5.630   4.294   4.334
    1   AR   Ar  235   6.579   3.582   4.347
    1   AR   Ar  236   6.634   4.402   3.765
    1   AR   Ar  237   5.490   3.428   5.277
    1   AR   Ar  238   5.252   4.415   5.887
    1   AR   Ar  239   5.930   3.456   6.410
    1   AR   Ar  240   6.381   4.119   5.419
    1   AR   Ar  241   5.481   5.541   0.491
    1   AR   Ar  242   5.286   6.403   1.295
    1   AR   Ar  243   6.278   5.252   1.044
    1   AR   Ar  244   6.281   6.099   0.570
    1   AR   Ar  245   5.549   5.241   1.954
    1   AR   Ar  246   5.214   6.501   2.913
    1   AR   Ar  247   6.227   4.629   2.783
    1   AR   Ar  248   6.257   6.355   1.568
    1   AR   Ar  249   5.886   5.448   3.246
    1   AR   Ar  250   5.256   6.221   4.451
    1   AR   Ar  251   6.023   5.438   4.282
    1   AR   Ar  252   6.048   6.448   3.824
    1   AR   Ar  253   5.480   5.306   5.264
    1   AR   Ar  254   5.536   6.201   6.045
    1   AR   Ar  255   6.085   5.083   6.033
    1   AR   Ar  256   6.371   6.312   5.082
    7.12000  7.12000 12.00000
Argon-slab step 140
  256
    1   AR   Ar    1   0.038   6.741   0.269
    1   AR   Ar    2   6.864   0.721   0.990
    1   AR   Ar    3   0.737   6.790   1.039
    1   AR   Ar    4   1.106   0.384   0.217
    1   AR   Ar    5   0.048   0.046   1.822
    1   AR   Ar    6   0.039   0.686   2.725
    1   AR   Ar    7   1.009   6.743   2.740
    1   AR   Ar    8   0.855   0.683   1.910
    1   AR   Ar    9   7.093   7.070   3.505
    1   AR   Ar   10   0.192   0.739   4.182
    1   AR   Ar   11   0.866   0.110   4.507
    1   AR   Ar   12   0.891   0.693   3.363
    1   AR   Ar   13   7.027   0.392   5.104
    1   AR   Ar   14   0.397   1.130   5.723
    1   AR   Ar   15   0.950   0.070   6.840
    1   AR   Ar   16   1.232   0.668   5.406
    1   AR   Ar   17   0.261   1.413  -0.151
    1   AR   Ar   18   0.340   2.827   0.615
    1   AR   Ar   19   0.643   1.722   0.913
    1   AR   Ar   20   1.098   2.518  -0.165
    1   AR   Ar   21   0.001   1.506   1.726
    1   AR   Ar   22   6.957   2.645   2.623
    1   AR   Ar   23   0.795   1.797   2.793
    1   AR   Ar   24   0.566   2.935   1.548
    1   AR   Ar   25   0.338   1.811   3.821
    1   AR   Ar   26   0.079   2.656   4.405
    1   AR   Ar   27   0.790   1.881   4.777
    1   AR   Ar   28   1.066   2.642   3.915
    1   AR   Ar   29   6.893   1.902   5.222
    1   AR   Ar   30   0.513   2.692   6.253
    1   AR   Ar   31   1.189   1.534   6.375
    1   AR   Ar   32   1.123   2.925   5.257
    1   AR   Ar   33   0.173   3.716  -0.109
    1   AR   Ar   34   7.072   4.420   0.947
    1   AR   Ar   35   0.928   3.847   0.724
    1   AR   Ar   36   1.031   4.607  -0.264
    1   AR   Ar   37   0.128   3.771   1.875
    1   AR   Ar   38   0.159   4.618   2.720
    1   AR   Ar   39   1.036   3.643   2.534
    1   AR   Ar   40   0.851   4.616   1.890
    1   AR   Ar   41   0.251   3.171   3.413
    1   AR   Ar   42   0.077   4.633   4.572
    1   AR   Ar   43   0.835   3.512   4.275
    1   AR   Ar   44   0.729   4.164   3.469
    1   AR   Ar   45   0.271   3.719   5.344
    1   AR   Ar   46   7.071   4.734   6.166
    1   AR   Ar   47   0.956   3.788   6.169
    1   AR   Ar   48   0.886   4.784   5.393
    1   AR   Ar   49   7.061   4.743  -0.363
    1   AR   Ar   50   7.119   5.869   1.164
    1   AR   Ar   51   0.952   5.045   0.859
    1   AR   Ar   52   0.727   5.761   0.140
    1   AR   Ar   53   6.490   5.596   2.301
    1   AR   Ar   54   6.786   6.474   2.615
    1   AR   Ar   55   0.947   5.639   2.852
    1   AR   Ar   56   0.780   6.090   1.886
    1   AR   Ar   57   0.288   5.059   3.666
    1   AR   Ar   58   0.341   6.351   4.562
    1   AR   Ar   59   0.875   5.508   4.593
    1   AR   Ar   60   0.966   6.213   3.676
    1   AR   Ar   61   6.962   5.367   5.266
    1   AR   Ar   62   0.266   5.997   5.985
    1   AR   Ar   63   1.303   5.671   6.064
    1   AR   Ar   64   0.979   6.487   5.338
    1   AR   Ar   65   1.550   6.662  -0.280
    1   AR   Ar   66   1.934   1.154   1.293
    1   AR   Ar   67   2.426   6.554   0.577
    1   AR   Ar   68   2.443   0.976   0.311
    1   AR   Ar   69   1.449   6.988   1.777
    1   AR   Ar   70   1.726   0.962   2.697
    1   AR   Ar   71   2.336   0.066   2.647
    1   AR   Ar   72   2.865   0.785   1.271
    1   AR   Ar   73   1.637   7.062   3.592
    1   AR   Ar   74   1.609   0.867   4.517
    1   AR   Ar   75   2.453   0.239   4.331
    1   AR   Ar   76   2.586   0.957   3.468
    1   AR   Ar   77   1.873   7.034   5.236
    1   AR   Ar   78   2.135   0.879   5.918
    1   AR   Ar   79   2.738   7.003   6.111
    1   AR   Ar   80   2.990   0.971   5.169
    1   AR   Ar   81   1.711   1.747   0.163
    1   AR   Ar   82   1.536   2.796   0.986
    1   AR   Ar   83   2.476   2.195   1.116
    1   AR   Ar   84   2.522   2.761  -0.124
    1   AR   Ar   85   1.533   2.190   1.929
    1   AR   Ar   86   1.779   2.843   2.743
    1   AR   Ar   87   2.484   1.558   2.294
    1   AR   Ar   88   2.527   2.822   1.958
    1   AR   Ar   89   1.620   1.635   3.492
    1   AR   Ar   90   1.953   3.003   4.487
    1   AR   Ar   91   2.594   1.688   4.442
    1   AR   Ar   92   2.589   2.438   3.810
    1   AR   Ar   93   1.619   1.898   5.505
    1   AR   Ar   94   2.313   3.012   6.166
    1   AR   Ar   95   2.554   1.754   6.263
    1   AR   Ar   96   2.769   2.394   5.232
    1   AR   Ar   97   1.541   3.704  -0.165
    1   AR   Ar   98   1.988   4.149   1.045
    1   AR   Ar   99   2.536   3.233   0.810
    1   AR   Ar  100   2.829   4.698   0.025
    1   AR   Ar  101   1.720   3.555   1.808
    1   AR   Ar  102   1.559   4.565   2.931
    1   AR   Ar  103   2.423   3.660   2.737
    1   AR   Ar  104   2.701   4.617   1.559
    1   AR   Ar  105   1.843   3.435   3.586
    1   AR   Ar  106   1.682   4.327   4.149
    1   AR   Ar  107   2.801   3.985   4.316
    1   AR   Ar  108   2.777   4.693   3.511
    1   AR   Ar  109   1.671   3.884   5.174
    1   AR   Ar  110   1.855   4.403   6.051
    1   AR   Ar  111   2.845   3.880   6.538
    1   AR   Ar  112   2.855   4.748   5.489
    1   AR   Ar  113   1.885   5.452   0.159
    1   AR   Ar  114   1.685   6.171   1.224
    1   AR   Ar  115   2.456   5.483   1.051
    1   AR   Ar  116   2.749   6.244  -0.402
    1   AR   Ar  117   1.666   5.246   1.767
    1   AR   Ar  118   1.915   6.022   2.471
    1   AR   Ar  119   2.607   5.202   2.511
    1   AR   Ar  120   2.576   6.440   1.845
    1   AR   Ar  121   1.809   5.264   3.800
    1   AR   Ar  122   1.701   6.377   4.520
    1   AR   Ar  123   2.544   5.510   4.410
    1   AR   Ar  124   2.382   6.257   3.448
    1   AR   Ar  125   1.768   5.167   4.978
    1   AR   Ar  126   1.792   6.508   6.377
    1   AR   Ar  127   2.681   5.490   6.487
    1   AR   Ar  128   2.608   6.034   5.292
    1   AR   Ar  129   3.453   7.006   0.331
    1   AR   Ar  130   3.943   0.884   0.915
    1   AR   Ar  131   4.367   6.870   1.172
    1   AR   Ar  132   4.596   1.204  -0.496
    1   AR   Ar  133   3.472   0.012   2.289
    1   AR   Ar  134   3.410   1.028   2.820
    1   AR   Ar  135   4.261   7.082   2.791
    1   AR   Ar  136   4.252   0.812   2.089
    1   AR   Ar  137   3.231   7.062   3.427
    1   AR   Ar  138   3.293   0.781   4.145
    1   AR   Ar  139   4.138   0.297   4.266
    1   AR   Ar  140   4.392   1.000   3.399
    1   AR   Ar  141   3.370   0.075   5.229
    1   AR   Ar  142   3.600   0.647   6.160
    1   AR   Ar  143   4.571   0.061   6.239
    1   AR   Ar  144   4.196   0.828   5.219
    1   AR   Ar  145   3.530   1.612  -0.174
    1   AR   Ar  146   3.572   2.761   0.856
    1   AR   Ar  147   4.301   1.914   0.877
    1   AR   Ar  148   4.822   2.689   0.231
    1   AR   Ar  149   3.616   1.784   1.755
    1   AR   Ar  150   3.380   2.454   2.753
    1   AR   Ar  151   4.385   2.119   2.914
    1   AR   Ar  152   4.318   2.701   1.847
    1   AR   Ar  153   3.645   1.901   3.849
    1   AR   Ar  154   3.333   2.736   4.392
    1   AR   Ar  155   4.573   1.700   4.278
    1   AR   Ar  156   4.558   2.758   3.820
    1   AR   Ar  157   3.978   1.890   5.300
    1   AR   Ar  158   3.454   2.709   6.316
    1   AR   Ar  159   4.318   1.521   6.226
    1   AR   Ar  160   4.114   2.913   5.178
    1   AR   Ar  161   3.428   3.575   0.162
    1   AR   Ar  162   3.573   4.709   0.773
    1   AR   Ar  163   4.551   3.745   0.972
    1   AR   Ar  164   4.682   4.748   0.354
    1   AR   Ar  165   3.564   3.760   1.423
    1   AR   Ar  166   3.330   4.270   2.562
    1   AR   Ar  167   4.179   3.323   2.962
    1   AR   Ar  168   4.401   4.316   1.906
    1   AR   Ar  169   3.164   3.338   3.509
    1   AR   Ar  170   3.683   4.619   4.362
    1   AR   Ar  171   4.035   3.615   3.974
    1   AR   Ar  172   4.453   4.468   3.478
    1   AR   Ar  173   3.408   3.758   5.332
    1   AR   Ar  174   3.767   4.650   6.112
    1   AR   Ar  175   4.232   3.632   6.240
    1   AR   Ar  176   4.319   4.696   5.153
    1   AR   Ar  177   3.428   5.598   0.194
    1   AR   Ar  178   3.502   6.123   1.461
    1   AR   Ar  179   4.480   5.520   1.186
    1   AR   Ar  180   4.533   6.244   0.384
    1   AR   Ar  181   3.716   5.273   1.996
    1   AR   Ar  182   3.472   6.105   2.634
    1   AR   Ar  183   4.838   5.295   2.966
    1   AR   Ar  184   4.436   6.165   2.130
    1   AR   Ar  185   3.431   5.571   3.715
    1   AR   Ar  186   3.324   6.483   4.304
    1   AR   Ar  187   4.377   5.526   4.200
    1   AR   Ar  188   4.437   6.362   3.699
    1   AR   Ar  189   3.607   5.586   4.996
    1   AR   Ar  190   3.555   6.347   5.956
    1   AR   Ar  191   4.591   5.568   5.757
    1   AR   Ar  192   4.484   6.848   5.113
    1   AR   Ar  193   4.646   0.368   0.242
    1   AR   Ar  194   5.073   1.055   1.140
    1   AR   Ar  195   5.959   0.169   1.392
    1   AR   Ar  196   5.907   0.887   0.538
    1   AR   Ar  197   5.175   0.020   1.982
    1   AR   Ar  198   5.273   0.824   2.708
    1   AR   Ar  199   6.247   0.333   2.410
    1   AR   Ar  200   5.950   1.259   1.806
    1   AR   Ar  201   5.204   0.242   3.781
    1   AR   Ar  202   5.117   1.027   4.576
    1   AR   Ar  203   6.262   0.200   4.263
    1   AR   Ar  204   6.157   0.689   3.412
    1   AR   Ar  205   5.515   0.042   5.008
    1   AR   Ar  206   5.510   0.699   6.540
    1   AR   Ar  207   6.463   6.931   6.107
    1   AR   Ar  208   6.029   0.927   5.116
    1   AR   Ar  209   5.774   1.916  -0.369
    1   AR   Ar  210   5.432   2.232   1.129
    1   AR   Ar  211   6.463   1.920   0.656
    1   AR   Ar  212   6.408   3.048   0.229
    1   AR   Ar  213   5.226   1.956   2.223
    1   AR   Ar  214   5.351   2.872   2.635
    1   AR   Ar  215   6.422   1.702   2.782
    1   AR   Ar  216   6.711   2.615   1.345
    1   AR   Ar  217   5.291   1.617   3.495
    1   AR   Ar  218   5.591   2.984   4.349
    1   AR   Ar  219   6.344   1.442   4.145
    1   AR   Ar  220   6.229   2.582   3.506
    1   AR   Ar  221   5.485   1.945   4.953
    1   AR   Ar  222   4.921   2.815   5.852
    1   AR   Ar  223   6.280   1.783   6.224
    1   AR   Ar  224   6.567   2.901   5.394
    1   AR   Ar  225   5.439   3.764  -0.069
    1   AR   Ar  226   5.250   4.594   1.248
    1   AR   Ar  227   6.119   3.886   0.871
    1   AR   Ar  228   6.064   4.704  -0.150
    1   AR   Ar  229   5.413   3.309   1.604
    1   AR   Ar  230   5.145   4.169   2.714
    1   AR   Ar  231   6.343   3.530   2.969
    1   AR   Ar  232   6.084   3.952   1.927
    1   AR   Ar  233   5.293   3.491   3.505
    1   AR   Ar  234   5.641   4.303   4.317
    1   AR   Ar  235   6.589   3.586   4.344
    1   AR   Ar  236   6.643   4.398   3.761
    1   AR   Ar  237   5.484   3.425   5.258
    1   AR   Ar  238   5.245   4.409   5.895
    1   AR   Ar  239   5.924   3.491   6.384
    1   AR   Ar  240   6.380   4.119   5.402
    1   AR   Ar  241   5.497   5.567   0.487
    1   AR   Ar  242   5.262   6.387   1.301
    1   AR   Ar  243   6.308   5.263   1.066
    1   AR   Ar  244   6.283   6.117   0.588
    1   AR   Ar  245   5.540   5.234   1.983
    1   AR   Ar  246   5.208   6.519   2.909
    1   AR   Ar  247   6.211   4.593   2.755
    1   AR   Ar  248   6.276   6.333   1.588
    1   AR   Ar  249   5.913   5.461   3.232
    1   AR   Ar  250   5.262   6.281   4.463
    1   AR   Ar  251   6.048   5.403   4.300
    1   AR   Ar  252   6.028   6.457   3.831
    1   AR   Ar  253   5.471   5.318   5.256
    1   AR   Ar  254   5.491   6.177   6.029
    1   AR   Ar  255   6.097   5.095   6.022
    1   AR   Ar  256   6.322   6.282   5.071
    7.12000  7.12000 12.00000
Argon-slab step 145
  256
    1   AR   Ar    1   0.058   6.721   0.288
    1   AR   Ar    2   6.897   0.704   0.967
    1   AR   Ar    3   0.727   6.765   1.047
    1   AR   Ar    4   1.124   0.385   0.219
    1   AR   Ar    5   0.050   0.071   1.803
    1   AR   Ar    6   0.007   0.684   2.715
    1   AR   Ar    7   1.038   6.739   2.690
    1   AR   Ar    8   0.853   0.686   1.895
    1   AR   Ar    9   7.097   7.099   3.512
    1   AR   Ar   10   0.185   0.726   4.185
    1   AR   Ar   11   0.834   0.139   4.484
    1   AR   Ar   12   0.895   0.737   3.308
    1   AR   Ar   13   7.019   0.433   5.113
    1   AR   Ar   14   0.415   1.130   5.724
    1   AR   Ar   15   0.942   0.065   6.873
    1   AR   Ar   16   1.249   0.677   5.371
    1   AR   Ar   17   0.290   1.439  -0.201
    1   AR   Ar   18   0.369   2.838   0.590
    1   AR   Ar   19   0.663   1.705   0.908
    1   AR   Ar   20   1.123   2.472  -0.134
    1   AR   Ar   21   7.108   1.474   1.736
    1   AR   Ar   22   6.933   2.638   2.601
    1   AR   Ar   23   0.790   1.794   2.805
    1   AR   Ar   24   0.588   2.905   1.572
    1   AR   Ar   25   0.359   1.830   3.799
    1   AR   Ar   26   0.069   2.634   4.408
    1   AR   Ar   27   0.782   1.887   4.769
    1   AR   Ar   28   1.072   2.646   3.926
    1   AR   Ar   29   6.861   1.892   5.249
    1   AR   Ar   30   0.510   2.667   6.268
    1   AR   Ar   31   1.166   1.536   6.381
    1   AR   Ar   32   1.143   2.934   5.258
    1   AR   Ar   33   0.191   3.692  -0.102
    1   AR   Ar   34   7.072   4.424   0.964
    1   AR   Ar   35   0.920   3.859   0.748
    1   AR   Ar   36   1.043   4.622  -0.273
    1   AR   Ar   37   0.073   3.743   1.892
    1   AR   Ar   38   0.163   4.648   2.734
    1   AR   Ar   39   1.020   3.635   2.506
    1   AR   Ar   40   0.846   4.561   1.901
    1   AR   Ar   41   0.263   3.148   3.410
    1   AR   Ar   42   0.104   4.626   4.577
    1   AR   Ar   43   0.841   3.496   4.317
    1   AR   Ar   44   0.747   4.136   3.461
    1   AR   Ar   45   0.257   3.714   5.341
    1   AR   Ar   46   7.077   4.795   6.183
    1   AR   Ar   47   0.960   3.769   6.197
    1   AR   Ar   48   0.886   4.796   5.403
    1   AR   Ar   49   7.050   4.737  -0.363
    1   AR   Ar   50   0.007   5.851   1.170
    1   AR   Ar   51   0.963   5.000   0.836
    1   AR   Ar   52   0.745   5.781   0.142
    1   AR   Ar   53   6.475   5.593   2.320
    1   AR   Ar   54   6.775   6.520   2.633
    1   AR   Ar   55   0.972   5.620   2.888
    1   AR   Ar   56   0.769   6.078   1.891
    1   AR   Ar   57   0.319   5.087   3.674
    1   AR   Ar   58   0.320   6.316   4.558
    1   AR   Ar   59   0.874   5.509   4.609
    1   AR   Ar   60   0.964   6.239   3.697
    1   AR   Ar   61   6.976   5.366   5.269
    1   AR   Ar   62   0.261   5.964   5.980
    1   AR   Ar   63   1.318   5.672   6.075
    1   AR   Ar   64   0.994   6.484   5.322
    1   AR   Ar   65   1.518   6.696  -0.252
    1   AR   Ar   66   1.924   1.198   1.303
    1   AR   Ar   67   2.419   6.539   0.567
    1   AR   Ar   68   2.477   0.983   0.331
    1   AR   Ar   69   1.478   7.020   1.759
    1   AR   Ar   70   1.693   0.952   2.685
    1   AR   Ar   71   2.326   0.051   2.636
    1   AR   Ar   72   2.865   0.765   1.273
    1   AR   Ar   73   1.633   7.052   3.577
    1   AR   Ar   74   1.612   0.906   4.534
    1   AR   Ar   75   2.460   0.225   4.334
    1   AR   Ar   76   2.581   0.957   3.482
    1   AR   Ar   77   1.891   7.066   5.250
    1   AR   Ar   78   2.133   0.882   5.916
    1   AR   Ar   79   2.736   7.013   6.088
    1   AR   Ar   80   3.010   0.988   5.133
    1   AR   Ar   81   1.696   1.762   0.161
    1   AR   Ar   82   1.540   2.777   0.971
    1   AR   Ar   83   2.459   2.188   1.126
    1   AR   Ar   84   2.535   2.785  -0.110
    1   AR   Ar   85   1.534   2.210   1.939
    1   AR   Ar   86   1.764   2.817   2.729
    1   AR   Ar   87   2.489   1.538   2.294
    1   AR   Ar   88   2.520   2.831   2.003
    1   AR   Ar   89   1.633   1.663   3.472
    1   AR   Ar   90   1.968   3.011   4.475
    1   AR   Ar   91   2.623   1.673   4.455
    1   AR   Ar   92   2.578   2.452   3.766
    1   AR   Ar   93   1.648   1.915   5.493
    1   AR   Ar   94   2.319   3.005   6.193
    1   AR   Ar   95   2.557   1.757   6.243
    1   AR   Ar   96   2.770   2.396   5.230
    1   AR   Ar   97   1.546   3.736  -0.148
    1   AR   Ar   98   1.986   4.123   1.046
    1   AR   Ar   99   2.542   3.275   0.807
    1   AR   Ar  100   2.825   4.697   0.002
    1   AR   Ar  101   1.702   3.526   1.804
    1   AR   Ar  102   1.571   4.567   2.950
    1   AR   Ar  103   2.423   3.661   2.762
    1   AR   Ar  104   2.712   4.615   1.555
    1   AR   Ar  105   1.848   3.462   3.595
    1   AR   Ar  106   1.709   4.351   4.134
    1   AR   Ar  107   2.780   3.972   4.353
    1   AR   Ar  108   2.746   4.711   3.517
    1   AR   Ar  109   1.657   3.894   5.166
    1   AR   Ar  110   1.889   4.387   6.023
    1   AR   Ar  111   2.840   3.906   6.514
    1   AR   Ar  112   2.835   4.768   5.466
    1   AR   Ar  113   1.877   5.439   0.166
    1   AR   Ar  114   1.689   6.189   1.212
    1   AR   Ar  115   2.480   5.484   1.050
    1   AR   Ar  116   2.753   6.286  -0.399
    1   AR   Ar  117   1.649   5.248   1.781
    1   AR   Ar  118   1.946   6.001   2.458
    1   AR   Ar  119   2.610   5.198   2.504
    1   AR   Ar  120   2.569   6.449   1.837
    1   AR   Ar  121   1.822   5.273   3.795
    1   AR   Ar  122   1.697   6.362   4.537
    1   AR   Ar  123   2.556   5.493   4.421
    1   AR   Ar  124   2.380   6.253   3.473
    1   AR   Ar  125   1.746   5.172   4.977
    1   AR   Ar  126   1.790   6.518   6.368
    1   AR   Ar  127   2.673   5.507   6.499
    1   AR   Ar  128   2.597   6.025   5.342
    1   AR   Ar  129   3.428   6.992   0.351
    1   AR   Ar  130   3.978   0.867   0.906
    1   AR   Ar  131   4.372   6.893   1.184
    1   AR   Ar  132   4.583   1.216  -0.520
    1   AR   Ar  133   3.440   0.006   2.294
    1   AR   Ar  134   3.451   1.052   2.836
    1   AR   Ar  135   4.286   7.089   2.825
    1   AR   Ar  136   4.263   0.801   2.102
    1   AR   Ar  137   3.195   7.077   3.415
    1   AR   Ar  138   3.306   0.787   4.149
    1   AR   Ar  139   4.172   0.260   4.249
    1   AR   Ar  140   4.397   0.998   3.398
    1   AR   Ar  141   3.366   0.090   5.232
    1   AR   Ar  142   3.601   0.684   6.156
    1   AR   Ar  143   4.553   0.032   6.284
    1   AR   Ar  144   4.179   0.809   5.231
    1   AR   Ar  145   3.528   1.604  -0.176
    1   AR   Ar  146   3.584   2.745   0.888
    1   AR   Ar  147   4.302   1.920   0.866
    1   AR   Ar  148   4.862   2.678   0.212
    1   AR   Ar  149   3.633   1.781   1.743
    1   AR   Ar  150   3.375   2.453   2.745
    1   AR   Ar  151   4.369   2.124   2.899
    1   AR   Ar  152   4.306   2.731   1.836
    1   AR   Ar  153   3.636   1.895   3.860
    1   AR   Ar  154   3.321   2.774   4.359
    1   AR   Ar  155   4.547   1.718   4.263
    1   AR   Ar  156   4.572   2.770   3.836
    1   AR   Ar  157   3.996   1.884   5.314
    1   AR   Ar  158   3.455   2.741   6.331
    1   AR   Ar  159   4.307   1.506   6.202
    1   AR   Ar  160   4.082   2.923   5.170
    1   AR   Ar  161   3.415   3.556   0.156
    1   AR   Ar  162   3.583   4.680   0.784
    1   AR   Ar  163   4.572   3.762   0.978
    1   AR   Ar  164   4.694   4.768   0.394
    1   AR   Ar  165   3.571   3.779   1.434
    1   AR   Ar  166   3.297   4.282   2.534
    1   AR   Ar  167   4.157   3.307   2.968
    1   AR   Ar  168   4.369   4.328   1.902
    1   AR   Ar  169   3.150   3.322   3.533
    1   AR   Ar  170   3.718   4.637   4.370
    1   AR   Ar  171   4.017   3.623   3.972
    1   AR   Ar  172   4.478   4.450   3.473
    1   AR   Ar  173   3.373   3.754   5.347
    1   AR   Ar  174   3.762   4.680   6.102
    1   AR   Ar  175   4.254   3.659   6.271
    1   AR   Ar  176   4.328   4.734   5.150
    1   AR   Ar  177   3.429   5.616   0.223
    1   AR   Ar  178   3.509   6.109   1.480
    1   AR   Ar  179   4.497   5.537   1.176
    1   AR   Ar  180   4.550   6.259   0.350
    1   AR   Ar  181   3.714   5.261   2.007
    1   AR   Ar  182   3.451   6.133   2.627
    1   AR   Ar  183   4.840   5.328   2.979
    1   AR   Ar  184   4.448   6.173   2.151
    1   AR   Ar  185   3.439   5.562   3.696
    1   AR   Ar  186   3.316   6.478   4.313
    1   AR   Ar  187   4.382   5.523   4.215
    1   AR   Ar  188   4.424   6.412   3.713
    1   AR   Ar  189   3.626   5.614   5.021
    1   AR   Ar  190   3.561   6.339   5.951
    1   AR   Ar  191   4.606   5.603   5.742
    1   AR   Ar  192   4.480   6.842   5.161
    1   AR   Ar  193   4.684   0.393   0.250
    1   AR   Ar  194   5.061   1.097   1.148
    1   AR   Ar  195   5.969   0.187   1.381
    1   AR   Ar  196   5.853   0.919   0.559
    1   AR   Ar  197   5.188   0.003   1.961
    1   AR   Ar  198   5.288   0.813   2.726
    1   AR   Ar  199   6.279   0.338   2.413
    1   AR   Ar  200   5.952   1.267   1.812
    1   AR   Ar  201   5.227   0.228   3.786
    1   AR   Ar  202   5.122   1.034   4.565
    1   AR   Ar  203   6.270   0.213   4.292
    1   AR   Ar  204   6.164   0.681   3.416
    1   AR   Ar  205   5.499   0.012   5.008
    1   AR   Ar  206   5.504   0.692   6.537
    1   AR   Ar  207   6.427   6.938   6.084
    1   AR   Ar  208   6.026   0.953   5.101
    1   AR   Ar  209   5.808   1.921  -0.380
    1   AR   Ar  210   5.444   2.195   1.154
    1   AR   Ar  211   6.472   1.915   0.651
    1   AR   Ar  212   6.402   3.043   0.229
    1   AR   Ar  213   5.212   1.953   2.214
    1   AR   Ar  214   5.365   2.900   2.620
    1   AR   Ar  215   6.425   1.675   2.776
    1   AR   Ar  216   6.695   2.654   1.337
    1   AR   Ar  217   5.299   1.624   3.495
    1   AR   Ar  218   5.615   2.971   4.373
    1   AR   Ar  219   6.339   1.482   4.119
    1   AR   Ar  220   6.207   2.576   3.517
    1   AR   Ar  221   5.511   1.917   4.955
    1   AR   Ar  222   4.924   2.810   5.859
    1   AR   Ar  223   6.283   1.810   6.226
    1   AR   Ar  224   6.550   2.906   5.399
    1   AR   Ar  225   5.454   3.764  -0.087
    1   AR   Ar  226   5.253   4.569   1.270
    1   AR   Ar  227   6.116   3.884   0.880
    1   AR   Ar  228   6.042   4.711  -0.130
    1   AR   Ar  229   5.410   3.312   1.599
    1   AR   Ar  230   5.114   4.185   2.732
    1   AR   Ar  231   6.328   3.522   2.949
    1   AR   Ar  232   6.134   3.916   1.918
    1   AR   Ar  233   5.302   3.470   3.514
    1   AR   Ar  234   5.652   4.310   4.300
    1   AR   Ar  235   6.599   3.583   4.348
    1   AR   Ar  236   6.644   4.394   3.746
    1   AR   Ar  237   5.481   3.429   5.241
    1   AR   Ar  238   5.236   4.403   5.902
    1   AR   Ar  239   5.916   3.526   6.355
    1   AR   Ar  240   6.366   4.132   5.376
    1   AR   Ar  241   5.493   5.582   0.481
    1   AR   Ar  242   5.241   6.362   1.301
    1   AR   Ar  243   6.334   5.256   1.098
    1   AR   Ar  244   6.277   6.128   0.570
    1   AR   Ar  245   5.531   5.230   2.017
    1   AR   Ar  246   5.203   6.535   2.906
    1   AR   Ar  247   6.194   4.556   2.727
    1   AR   Ar  248   6.297   6.311   1.615
    1   AR   Ar  249   5.937   5.479   3.218
    1   AR   Ar  250   5.262   6.337   4.480
    1   AR   Ar  251   6.075   5.368   4.321
    1   AR   Ar  252   5.993   6.434   3.843
    1   AR   Ar  253   5.462   5.330   5.238
    1   AR   Ar  254   5.447   6.153   6.011
    1   AR   Ar  255   6.110   5.108   6.015
    1   AR   Ar  256   6.272   6.252   5.058
    7.12000  7.12000 12.00000
Argon-slab step 150
  256
    1   AR   Ar    1   0.074   6.700   0.304
    1   AR   Ar    2   6.929   0.688   0.943
    1   AR   Ar    3   0.722   6.741   1.057
    1   AR   Ar    4   1.139   0.392   0.226
    1   AR   Ar    5   0.046   0.090   1.784
    1   AR   Ar    6   7.109   0.692   2.707
    1   AR   Ar    7   1.066   6.737   2.644
    1   AR   Ar    8   0.851   0.699   1.883
    1   AR   Ar    9   7.101   0.002   3.518
    1   AR   Ar   10   0.157   0.741   4.174
    1   AR   Ar   11   0.827   0.147   4.471
    1   AR   Ar   12   0.896   0.780   3.258
    1   AR   Ar   13   7.008   0.470   5.126
    1   AR   Ar   14   0.428   1.136   5.727
    1   AR   Ar   15   0.935   0.059   6.904
    1   AR   Ar   16   1.252   0.686   5.357
    1   AR   Ar   17   0.319   1.465  -0.249
    1   AR   Ar   18   0.397   2.848   0.557
    1   AR   Ar   19   0.684   1.690   0.902
    1   AR   Ar   20   1.137   2.441  -0.109
    1   AR   Ar   21   7.094   1.442   1.749
    1   AR   Ar   22   6.955   2.660   2.609
    1   AR   Ar   23   0.799   1.781   2.819
    1   AR   Ar   24   0.619   2.873   1.604
    1   AR   Ar   25   0.379   1.845   3.773
    1   AR   Ar   26   0.057   2.616   4.414
    1   AR   Ar   27   0.775   1.891   4.764
    1   AR   Ar   28   1.085   2.635   3.929
    1   AR   Ar   29   6.829   1.880   5.274
    1   AR   Ar   30   0.507   2.642   6.281
    1   AR   Ar   31   1.144   1.537   6.388
    1   AR   Ar   32   1.162   2.941   5.260
    1   AR   Ar   33   0.210   3.669  -0.093
    1   AR   Ar   34   7.073   4.429   0.982
    1   AR   Ar   35   0.911   3.869   0.774
    1   AR   Ar   36   1.052   4.642  -0.279
    1   AR   Ar   37   0.018   3.718   1.911
    1   AR   Ar   38   0.165   4.677   2.743
    1   AR   Ar   39   0.995   3.628   2.488
    1   AR   Ar   40   0.840   4.505   1.911
    1   AR   Ar   41   0.273   3.128   3.408
    1   AR   Ar   42   0.133   4.613   4.588
    1   AR   Ar   43   0.828   3.486   4.342
    1   AR   Ar   44   0.766   4.106   3.455
    1   AR   Ar   45   0.240   3.721   5.339
    1   AR   Ar   46   7.090   4.853   6.200
    1   AR   Ar   47   0.964   3.750   6.224
    1   AR   Ar   48   0.882   4.804   5.418
    1   AR   Ar   49   7.047   4.737  -0.340
    1   AR   Ar   50   0.027   5.837   1.176
    1   AR   Ar   51   0.976   4.953   0.814
    1   AR   Ar   52   0.763   5.803   0.145
    1   AR   Ar   53   6.469   5.569   2.323
    1   AR   Ar   54   6.768   6.572   2.651
    1   AR   Ar   55   0.998   5.596   2.919
    1   AR   Ar   56   0.760   6.064   1.896
    1   AR   Ar   57   0.353   5.124   3.682
    1   AR   Ar   58   0.286   6.289   4.552
    1   AR   Ar   59   0.874   5.503   4.620
    1   AR   Ar   60   0.963   6.257   3.730
    1   AR   Ar   61   6.987   5.365   5.268
    1   AR   Ar   62   0.257   5.935   5.980
    1   AR   Ar   63   1.330   5.665   6.082
    1   AR   Ar   64   1.000   6.480   5.312
    1   AR   Ar   65   1.500   6.701  -0.218
    1   AR   Ar   66   1.910   1.235   1.308
    1   AR   Ar   67   2.414   6.525   0.558
    1   AR   Ar   68   2.511   0.990   0.348
    1   AR   Ar   69   1.514   7.052   1.745
    1   AR   Ar   70   1.676   0.941   2.671
    1   AR   Ar   71   2.315   0.035   2.628
    1   AR   Ar   72   2.871   0.742   1.280
    1   AR   Ar   73   1.630   7.046   3.563
    1   AR   Ar   74   1.625   0.953   4.526
    1   AR   Ar   75   2.465   0.207   4.337
    1   AR   Ar   76   2.567   0.958   3.489
    1   AR   Ar   77   1.922   7.095   5.267
    1   AR   Ar   78   2.130   0.881   5.912
    1   AR   Ar   79   2.732   7.024   6.065
    1   AR   Ar   80   3.026   1.016   5.102
    1   AR   Ar   81   1.687   1.748   0.198
    1   AR   Ar   82   1.542   2.759   0.954
    1   AR   Ar   83   2.443   2.193   1.143
    1   AR   Ar   84   2.547   2.807  -0.099
    1   AR   Ar   85   1.534   2.225   1.943
    1   AR   Ar   86   1.753   2.795   2.733
    1   AR   Ar   87   2.497   1.521   2.292
    1   AR   Ar   88   2.517   2.839   2.046
    1   AR   Ar   89   1.647   1.692   3.455
    1   AR   Ar   90   1.983   3.018   4.496
    1   AR   Ar   91   2.649   1.656   4.466
    1   AR   Ar   92   2.558   2.464   3.712
    1   AR   Ar   93   1.660   1.923   5.470
    1   AR   Ar   94   2.324   2.995   6.218
    1   AR   Ar   95   2.562   1.766   6.223
    1   AR   Ar   96   2.770   2.399   5.230
    1   AR   Ar   97   1.554   3.763  -0.129
    1   AR   Ar   98   1.978   4.102   1.038
    1   AR   Ar   99   2.555   3.292   0.844
    1   AR   Ar  100   2.818   4.696  -0.020
    1   AR   Ar  101   1.689   3.490   1.797
    1   AR   Ar  102   1.586   4.570   2.967
    1   AR   Ar  103   2.425   3.635   2.760
    1   AR   Ar  104   2.729   4.612   1.558
    1   AR   Ar  105   1.848   3.490   3.598
    1   AR   Ar  106   1.733   4.368   4.124
    1   AR   Ar  107   2.794   3.969   4.329
    1   AR   Ar  108   2.721   4.718   3.521
    1   AR   Ar  109   1.641   3.902   5.151
    1   AR   Ar  110   1.925   4.376   6.000
    1   AR   Ar  111   2.837   3.934   6.488
    1   AR   Ar  112   2.814   4.789   5.442
    1   AR   Ar  113   1.868   5.427   0.172
    1   AR   Ar  114   1.689   6.201   1.198
    1   AR   Ar  115   2.507   5.489   1.047
    1   AR   Ar  116   2.758   6.327  -0.397
    1   AR   Ar  117   1.634   5.248   1.794
    1   AR   Ar  118   1.968   5.981   2.453
    1   AR   Ar  119   2.619   5.196   2.494
    1   AR   Ar  120   2.568   6.463   1.821
    1   AR   Ar  121   1.826   5.292   3.778
    1   AR   Ar  122   1.695   6.341   4.547
    1   AR   Ar  123   2.582   5.478   4.435
    1   AR   Ar  124   2.379   6.247   3.499
    1   AR   Ar  125   1.721   5.189   4.980
    1   AR   Ar  126   1.791   6.535   6.358
    1   AR   Ar  127   2.666   5.525   6.507
    1   AR   Ar  128   2.584   6.019   5.395
    1   AR   Ar  129   3.404   6.979   0.372
    1   AR   Ar  130   4.010   0.850   0.900
    1   AR   Ar  131   4.371   6.922   1.199
    1   AR   Ar  132   4.570   1.228  -0.543
    1   AR   Ar  133   3.398   0.003   2.292
    1   AR   Ar  134   3.492   1.075   2.852
    1   AR   Ar  135   4.318   7.098   2.864
    1   AR   Ar  136   4.274   0.790   2.114
    1   AR   Ar  137   3.159   7.092   3.402
    1   AR   Ar  138   3.326   0.798   4.154
    1   AR   Ar  139   4.212   0.220   4.233
    1   AR   Ar  140   4.402   0.995   3.397
    1   AR   Ar  141   3.369   0.089   5.234
    1   AR   Ar  142   3.600   0.719   6.150
    1   AR   Ar  143   4.535   0.003   6.326
    1   AR   Ar  144   4.163   0.791   5.241
    1   AR   Ar  145   3.526   1.595  -0.176
    1   AR   Ar  146   3.595   2.729   0.922
    1   AR   Ar  147   4.306   1.926   0.854
    1   AR   Ar  148   4.902   2.668   0.194
    1   AR   Ar  149   3.649   1.777   1.731
    1   AR   Ar  150   3.375   2.431   2.744
    1   AR   Ar  151   4.355   2.129   2.886
    1   AR   Ar  152   4.295   2.760   1.825
    1   AR   Ar  153   3.620   1.887   3.865
    1   AR   Ar  154   3.316   2.813   4.339
    1   AR   Ar  155   4.510   1.755   4.245
    1   AR   Ar  156   4.587   2.775   3.852
    1   AR   Ar  157   4.010   1.879   5.320
    1   AR   Ar  158   3.457   2.772   6.344
    1   AR   Ar  159   4.301   1.489   6.182
    1   AR   Ar  160   4.050   2.936   5.160
    1   AR   Ar  161   3.402   3.540   0.152
    1   AR   Ar  162   3.595   4.651   0.799
    1   AR   Ar  163   4.593   3.777   0.982
    1   AR   Ar  164   4.722   4.769   0.399
    1   AR   Ar  165   3.574   3.795   1.444
    1   AR   Ar  166   3.265   4.294   2.505
    1   AR   Ar  167   4.136   3.290   2.971
    1   AR   Ar  168   4.337   4.341   1.900
    1   AR   Ar  169   3.130   3.310   3.545
    1   AR   Ar  170   3.745   4.655   4.371
    1   AR   Ar  171   3.999   3.636   3.978
    1   AR   Ar  172   4.498   4.434   3.475
    1   AR   Ar  173   3.338   3.751   5.362
    1   AR   Ar  174   3.757   4.710   6.091
    1   AR   Ar  175   4.269   3.685   6.292
    1   AR   Ar  176   4.345   4.772   5.153
    1   AR   Ar  177   3.429   5.636   0.254
    1   AR   Ar  178   3.518   6.100   1.494
    1   AR   Ar  179   4.514   5.552   1.167
    1   AR   Ar  180   4.567   6.273   0.316
    1   AR   Ar  181   3.713   5.243   2.021
    1   AR   Ar  182   3.428   6.158   2.624
    1   AR   Ar  183   4.843   5.335   2.953
    1   AR   Ar  184   4.461   6.180   2.171
    1   AR   Ar  185   3.446   5.553   3.676
    1   AR   Ar  186   3.307   6.472   4.324
    1   AR   Ar  187   4.389   5.515   4.235
    1   AR   Ar  188   4.411   6.468   3.724
    1   AR   Ar  189   3.644   5.642   5.046
    1   AR   Ar  190   3.559   6.325   5.943
    1   AR   Ar  191   4.618   5.624   5.723
    1   AR   Ar  192   4.474   6.834   5.209
    1   AR   Ar  193   4.724   0.417   0.258
    1   AR   Ar  194   5.042   1.139   1.162
    1   AR   Ar  195   5.980   0.216   1.366
    1   AR   Ar  196   5.806   0.952   0.576
    1   AR   Ar  197   5.191   7.110   1.952
    1   AR   Ar  198   5.303   0.801   2.744
    1   AR   Ar  199   6.294   0.337   2.409
    1   AR   Ar  200   5.956   1.274   1.818
    1   AR   Ar  201   5.227   0.207   3.789
    1   AR   Ar  202   5.137   1.017   4.557
    1   AR   Ar  203   6.281   0.226   4.330
    1   AR   Ar  204   6.178   0.674   3.408
    1   AR   Ar  205   5.485   7.112   5.017
    1   AR   Ar  206   5.498   0.684   6.532
    1   AR   Ar  207   6.391   6.945   6.059
    1   AR   Ar  208   6.029   0.980   5.088
    1   AR   Ar  209   5.842   1.926  -0.389
    1   AR   Ar  210   5.456   2.159   1.179
    1   AR   Ar  211   6.481   1.905   0.642
    1   AR   Ar  212   6.395   3.038   0.230
    1   AR   Ar  213   5.197   1.946   2.204
    1   AR   Ar  214   5.386   2.897   2.590
    1   AR   Ar  215   6.426   1.646   2.770
    1   AR   Ar  216   6.676   2.696   1.333
    1   AR   Ar  217   5.310   1.632   3.494
    1   AR   Ar  218   5.643   2.951   4.391
    1   AR   Ar  219   6.334   1.524   4.094
    1   AR   Ar  220   6.186   2.569   3.528
    1   AR   Ar  221   5.540   1.896   4.957
    1   AR   Ar  222   4.926   2.802   5.868
    1   AR   Ar  223   6.286   1.837   6.226
    1   AR   Ar  224   6.532   2.915   5.402
    1   AR   Ar  225   5.468   3.763  -0.103
    1   AR   Ar  226   5.259   4.541   1.291
    1   AR   Ar  227   6.111   3.882   0.886
    1   AR   Ar  228   6.015   4.719  -0.105
    1   AR   Ar  229   5.399   3.308   1.589
    1   AR   Ar  230   5.089   4.200   2.742
    1   AR   Ar  231   6.313   3.514   2.931
    1   AR   Ar  232   6.187   3.884   1.912
    1   AR   Ar  233   5.312   3.453   3.523
    1   AR   Ar  234   5.665   4.316   4.283
    1   AR   Ar  235   6.609   3.574   4.356
    1   AR   Ar  236   6.641   4.394   3.722
    1   AR   Ar  237   5.490   3.423   5.274
    1   AR   Ar  238   5.227   4.395   5.907
    1   AR   Ar  239   5.909   3.562   6.322
    1   AR   Ar  240   6.351   4.147   5.349
    1   AR   Ar  241   5.472   5.585   0.475
    1   AR   Ar  242   5.226   6.327   1.297
    1   AR   Ar  243   6.352   5.237   1.135
    1   AR   Ar  244   6.284   6.156   0.548
    1   AR   Ar  245   5.520   5.229   2.054
    1   AR   Ar  246   5.202   6.550   2.904
    1   AR   Ar  247   6.176   4.524   2.700
    1   AR   Ar  248   6.315   6.294   1.643
    1   AR   Ar  249   5.960   5.498   3.207
    1   AR   Ar  250   5.247   6.380   4.499
    1   AR   Ar  251   6.104   5.333   4.342
    1   AR   Ar  252   5.968   6.410   3.843
    1   AR   Ar  253   5.453   5.342   5.214
    1   AR   Ar  254   5.426   6.146   6.007
    1   AR   Ar  255   6.122   5.123   6.009
    1   AR   Ar  256   6.221   6.223   5.046
    7.12000  7.12000 12.00000
Argon-slab step 155
  256
    1   AR   Ar    1   0.085   6.680   0.313
    1   AR   Ar    2   6.961   0.674   0.917
    1   AR   Ar    3   0.722   6.717   1.073
    1   AR   Ar    4   1.148   0.407   0.240
    1   AR   Ar    5   0.036   0.101   1.766
    1   AR   Ar    6   7.113   0.713   2.706
    1   AR   Ar    7   1.094   6.736   2.602
    1   AR   Ar    8   0.851   0.721   1.873
    1   AR   Ar    9   7.105   0.019   3.522
    1   AR   Ar   10   0.113   0.782   4.154
    1   AR   Ar   11   0.839   0.137   4.465
    1   AR   Ar   12   0.913   0.779   3.283
    1   AR   Ar   13   6.996   0.502   5.142
    1   AR   Ar   14   0.434   1.148   5.732
    1   AR   Ar   15   0.929   0.053   6.934
    1   AR   Ar   16   1.240   0.695   5.359
    1   AR   Ar   17   0.349   1.493  -0.294
    1   AR   Ar   18   0.424   2.856   0.527
    1   AR   Ar   19   0.706   1.677   0.895
    1   AR   Ar   20   1.138   2.438  -0.095
    1   AR   Ar   21   7.090   1.432   1.756
    1   AR   Ar   22   6.975   2.679   2.611
    1   AR   Ar   23   0.808   1.768   2.825
    1   AR   Ar   24   0.653   2.840   1.639
    1   AR   Ar   25   0.395   1.856   3.746
    1   AR   Ar   26   0.041   2.595   4.414
    1   AR   Ar   27   0.771   1.893   4.762
    1   AR   Ar   28   1.106   2.612   3.927
    1   AR   Ar   29   6.797   1.866   5.296
    1   AR   Ar   30   0.504   2.618   6.291
    1   AR   Ar   31   1.125   1.539   6.395
    1   AR   Ar   32   1.178   2.947   5.262
    1   AR   Ar   33   0.229   3.648  -0.084
    1   AR   Ar   34   7.076   4.432   0.999
    1   AR   Ar   35   0.902   3.877   0.801
    1   AR   Ar   36   1.058   4.668  -0.285
    1   AR   Ar   37   0.026   3.687   1.934
    1   AR   Ar   38   0.165   4.705   2.751
    1   AR   Ar   39   0.963   3.619   2.479
    1   AR   Ar   40   0.835   4.450   1.917
    1   AR   Ar   41   0.284   3.110   3.410
    1   AR   Ar   42   0.163   4.596   4.600
    1   AR   Ar   43   0.803   3.482   4.357
    1   AR   Ar   44   0.784   4.075   3.452
    1   AR   Ar   45   0.211   3.738   5.336
    1   AR   Ar   46   7.109   4.908   6.218
    1   AR   Ar   47   0.969   3.731   6.247
    1   AR   Ar   48   0.872   4.806   5.438
    1   AR   Ar   49   7.049   4.738  -0.309
    1   AR   Ar   50   0.051   5.832   1.181
    1   AR   Ar   51   0.990   4.908   0.795
    1   AR   Ar   52   0.782   5.825   0.149
    1   AR   Ar   53   6.471   5.538   2.326
    1   AR   Ar   54   6.762   6.620   2.670
    1   AR   Ar   55   1.025   5.569   2.945
    1   AR   Ar   56   0.754   6.049   1.902
    1   AR   Ar   57   0.390   5.164   3.691
    1   AR   Ar   58   0.259   6.306   4.563
    1   AR   Ar   59   0.868   5.494   4.625
    1   AR   Ar   60   0.964   6.264   3.775
    1   AR   Ar   61   6.991   5.361   5.257
    1   AR   Ar   62   0.263   5.916   5.987
    1   AR   Ar   63   1.341   5.652   6.084
    1   AR   Ar   64   0.965   6.470   5.304
    1   AR   Ar   65   1.494   6.681  -0.181
    1   AR   Ar   66   1.897   1.229   1.285
    1   AR   Ar   67   2.411   6.512   0.551
    1   AR   Ar   68   2.540   0.987   0.373
    1   AR   Ar   69   1.555   7.085   1.733
    1   AR   Ar   70   1.687   0.931   2.655
    1   AR   Ar   71   2.304   0.018   2.621
    1   AR   Ar   72   2.883   0.716   1.293
    1   AR   Ar   73   1.630   7.044   3.549
    1   AR   Ar   74   1.649   1.007   4.498
    1   AR   Ar   75   2.469   0.186   4.339
    1   AR   Ar   76   2.547   0.960   3.492
    1   AR   Ar   77   1.957   7.117   5.286
    1   AR   Ar   78   2.129   0.877   5.906
    1   AR   Ar   79   2.727   7.037   6.042
    1   AR   Ar   80   3.042   1.046   5.087
    1   AR   Ar   81   1.694   1.714   0.247
    1   AR   Ar   82   1.543   2.741   0.936
    1   AR   Ar   83   2.429   2.197   1.161
    1   AR   Ar   84   2.558   2.828  -0.087
    1   AR   Ar   85   1.532   2.235   1.941
    1   AR   Ar   86   1.769   2.786   2.791
    1   AR   Ar   87   2.507   1.505   2.290
    1   AR   Ar   88   2.520   2.845   2.084
    1   AR   Ar   89   1.663   1.723   3.442
    1   AR   Ar   90   2.000   3.024   4.524
    1   AR   Ar   91   2.668   1.646   4.465
    1   AR   Ar   92   2.533   2.472   3.654
    1   AR   Ar   93   1.669   1.927   5.443
    1   AR   Ar   94   2.330   2.985   6.240
    1   AR   Ar   95   2.569   1.780   6.203
    1   AR   Ar   96   2.771   2.404   5.233
    1   AR   Ar   97   1.566   3.783  -0.107
    1   AR   Ar   98   1.964   4.090   1.023
    1   AR   Ar   99   2.577   3.297   0.863
    1   AR   Ar  100   2.811   4.696  -0.040
    1   AR   Ar  101   1.681   3.449   1.787
    1   AR   Ar  102   1.604   4.573   2.982
    1   AR   Ar  103   2.428   3.607   2.748
    1   AR   Ar  104   2.751   4.606   1.564
    1   AR   Ar  105   1.843   3.508   3.603
    1   AR   Ar  106   1.755   4.379   4.120
    1   AR   Ar  107   2.815   3.968   4.293
    1   AR   Ar  108   2.705   4.709   3.520
    1   AR   Ar  109   1.623   3.909   5.130
    1   AR   Ar  110   1.962   4.369   5.981
    1   AR   Ar  111   2.835   3.963   6.460
    1   AR   Ar  112   2.794   4.811   5.417
    1   AR   Ar  113   1.857   5.415   0.179
    1   AR   Ar  114   1.683   6.206   1.186
    1   AR   Ar  115   2.535   5.497   1.044
    1   AR   Ar  116   2.764   6.367  -0.398
    1   AR   Ar  117   1.618   5.246   1.805
    1   AR   Ar  118   1.979   5.966   2.457
    1   AR   Ar  119   2.632   5.191   2.484
    1   AR   Ar  120   2.572   6.482   1.799
    1   AR   Ar  121   1.823   5.323   3.755
    1   AR   Ar  122   1.695   6.317   4.552
    1   AR   Ar  123   2.616   5.465   4.450
    1   AR   Ar  124   2.379   6.241   3.526
    1   AR   Ar  125   1.713   5.202   4.987
    1   AR   Ar  126   1.794   6.556   6.348
    1   AR   Ar  127   2.658   5.543   6.513
    1   AR   Ar  128   2.571   6.014   5.449
    1   AR   Ar  129   3.381   6.966   0.395
    1   AR   Ar  130   4.038   0.833   0.896
    1   AR   Ar  131   4.366   6.952   1.215
    1   AR   Ar  132   4.556   1.241  -0.564
    1   AR   Ar  133   3.355   0.006   2.286
    1   AR   Ar  134   3.530   1.099   2.866
    1   AR   Ar  135   4.349   7.110   2.904
    1   AR   Ar  136   4.287   0.779   2.124
    1   AR   Ar  137   3.124   7.107   3.387
    1   AR   Ar  138   3.352   0.799   4.162
    1   AR   Ar  139   4.252   0.185   4.220
    1   AR   Ar  140   4.408   0.992   3.398
    1   AR   Ar  141   3.373   0.076   5.233
    1   AR   Ar  142   3.594   0.751   6.144
    1   AR   Ar  143   4.517   7.095   6.365
    1   AR   Ar  144   4.150   0.774   5.249
    1   AR   Ar  145   3.525   1.586  -0.174
    1   AR   Ar  146   3.606   2.705   0.934
    1   AR   Ar  147   4.312   1.931   0.843
    1   AR   Ar  148   4.944   2.657   0.179
    1   AR   Ar  149   3.665   1.774   1.721
    1   AR   Ar  150   3.374   2.396   2.749
    1   AR   Ar  151   4.345   2.132   2.875
    1   AR   Ar  152   4.285   2.789   1.815
    1   AR   Ar  153   3.591   1.879   3.862
    1   AR   Ar  154   3.317   2.843   4.339
    1   AR   Ar  155   4.481   1.793   4.232
    1   AR   Ar  156   4.600   2.773   3.869
    1   AR   Ar  157   4.020   1.877   5.316
    1   AR   Ar  158   3.458   2.805   6.355
    1   AR   Ar  159   4.300   1.470   6.171
    1   AR   Ar  160   4.018   2.951   5.151
    1   AR   Ar  161   3.388   3.524   0.149
    1   AR   Ar  162   3.608   4.624   0.813
    1   AR   Ar  163   4.611   3.790   0.984
    1   AR   Ar  164   4.753   4.763   0.395
    1   AR   Ar  165   3.573   3.807   1.454
    1   AR   Ar  166   3.235   4.306   2.476
    1   AR   Ar  167   4.116   3.273   2.971
    1   AR   Ar  168   4.308   4.357   1.901
    1   AR   Ar  169   3.104   3.309   3.535
    1   AR   Ar  170   3.763   4.670   4.362
    1   AR   Ar  171   3.983   3.652   3.990
    1   AR   Ar  172   4.508   4.422   3.488
    1   AR   Ar  173   3.302   3.748   5.378
    1   AR   Ar  174   3.750   4.739   6.078
    1   AR   Ar  175   4.258   3.703   6.276
    1   AR   Ar  176   4.368   4.808   5.163
    1   AR   Ar  177   3.428   5.658   0.287
    1   AR   Ar  178   3.528   6.095   1.503
    1   AR   Ar  179   4.529   5.564   1.159
    1   AR   Ar  180   4.583   6.286   0.282
    1   AR   Ar  181   3.713   5.220   2.038
    1   AR   Ar  182   3.403   6.178   2.624
    1   AR   Ar  183   4.847   5.344   2.926
    1   AR   Ar  184   4.474   6.188   2.189
    1   AR   Ar  185   3.452   5.545   3.655
    1   AR   Ar  186   3.299   6.467   4.336
    1   AR   Ar  187   4.399   5.506   4.255
    1   AR   Ar  188   4.398   6.517   3.732
    1   AR   Ar  189   3.660   5.670   5.071
    1   AR   Ar  190   3.558   6.310   5.933
    1   AR   Ar  191   4.617   5.645   5.705
    1   AR   Ar  192   4.464   6.824   5.258
    1   AR   Ar  193   4.766   0.440   0.266
    1   AR   Ar  194   5.012   1.181   1.186
    1   AR   Ar  195   5.983   0.253   1.359
    1   AR   Ar  196   5.770   0.984   0.585
    1   AR   Ar  197   5.187   7.102   1.952
    1   AR   Ar  198   5.317   0.789   2.761
    1   AR   Ar  199   6.282   0.330   2.394
    1   AR   Ar  200   5.960   1.278   1.822
    1   AR   Ar  201   5.227   0.184   3.791
    1   AR   Ar  202   5.153   0.990   4.547
    1   AR   Ar  203   6.294   0.237   4.371
    1   AR   Ar  204   6.195   0.663   3.396
    1   AR   Ar  205   5.481   7.117   5.043
    1   AR   Ar  206   5.491   0.676   6.525
    1   AR   Ar  207   6.353   6.951   6.032
    1   AR   Ar  208   6.037   1.005   5.078
    1   AR   Ar  209   5.875   1.931  -0.395
    1   AR   Ar  210   5.469   2.124   1.202
    1   AR   Ar  211   6.461   1.933   0.625
    1   AR   Ar  212   6.391   3.036   0.228
    1   AR   Ar  213   5.180   1.935   2.194
    1   AR   Ar  214   5.407   2.897   2.562
    1   AR   Ar  215   6.427   1.615   2.765
    1   AR   Ar  216   6.657   2.742   1.331
    1   AR   Ar  217   5.322   1.640   3.493
    1   AR   Ar  218   5.671   2.926   4.407
    1   AR   Ar  219   6.330   1.565   4.071
    1   AR   Ar  220   6.189   2.570   3.529
    1   AR   Ar  221   5.568   1.881   4.960
    1   AR   Ar  222   4.924   2.790   5.880
    1   AR   Ar  223   6.288   1.864   6.225
    1   AR   Ar  224   6.513   2.926   5.404
    1   AR   Ar  225   5.482   3.761  -0.115
    1   AR   Ar  226   5.268   4.514   1.313
    1   AR   Ar  227   6.106   3.881   0.887
    1   AR   Ar  228   5.985   4.727  -0.078
    1   AR   Ar  229   5.383   3.302   1.577
    1   AR   Ar  230   5.074   4.211   2.739
    1   AR   Ar  231   6.299   3.502   2.915
    1   AR   Ar  232   6.226   3.856   1.907
    1   AR   Ar  233   5.324   3.440   3.529
    1   AR   Ar  234   5.677   4.320   4.267
    1   AR   Ar  235   6.618   3.561   4.367
    1   AR   Ar  236   6.637   4.397   3.693
    1   AR   Ar  237   5.502   3.425   5.309
    1   AR   Ar  238   5.218   4.388   5.910
    1   AR   Ar  239   5.901   3.597   6.287
    1   AR   Ar  240   6.334   4.164   5.322
    1   AR   Ar  241   5.441   5.582   0.470
    1   AR   Ar  242   5.216   6.287   1.290
    1   AR   Ar  243   6.359   5.210   1.174
    1   AR   Ar  244   6.297   6.191   0.527
    1   AR   Ar  245   5.507   5.229   2.091
    1   AR   Ar  246   5.206   6.563   2.905
    1   AR   Ar  247   6.160   4.502   2.687
    1   AR   Ar  248   6.325   6.295   1.660
    1   AR   Ar  249   5.978   5.517   3.201
    1   AR   Ar  250   5.212   6.397   4.509
    1   AR   Ar  251   6.135   5.298   4.362
    1   AR   Ar  252   5.953   6.387   3.833
    1   AR   Ar  253   5.447   5.353   5.185
    1   AR   Ar  254   5.426   6.151   6.005
    1   AR   Ar  255   6.129   5.138   6.002
    1   AR   Ar  256   6.171   6.194   5.033
    7.12000  7.12000 12.00000
Argon-slab step 160
  256
    1   AR   Ar    1   0.093   6.662   0.315
    1   AR   Ar    2   6.992   0.663   0.889
    1   AR   Ar    3   0.730   6.697   1.094
    1   AR   Ar    4   1.155   0.430   0.259
    1   AR   Ar    5   0.023   0.106   1.751
    1   AR   Ar    6   0.012   0.742   2.708
    1   AR   Ar    7   1.121   6.738   2.568
    1   AR   Ar    8   0.852   0.749   1.865
    1   AR   Ar    9   7.109   0.028   3.526
    1   AR   Ar   10   0.065   0.838   4.134
    1   AR   Ar   11   0.857   0.122   4.460
    1   AR   Ar   12   0.924   0.775   3.316
    1   AR   Ar   13   6.983   0.530   5.160
    1   AR   Ar   14   0.431   1.166   5.738
    1   AR   Ar   15   0.924   0.047   6.963
    1   AR   Ar   16   1.223   0.702   5.366
    1   AR   Ar   17   0.380   1.521  -0.337
    1   AR   Ar   18   0.448   2.860   0.504
    1   AR   Ar   19   0.728   1.664   0.888
    1   AR   Ar   20   1.135   2.449  -0.091
    1   AR   Ar   21   7.094   1.437   1.758
    1   AR   Ar   22   6.992   2.694   2.604
    1   AR   Ar   23   0.817   1.755   2.822
    1   AR   Ar   24   0.687   2.807   1.675
    1   AR   Ar   25   0.406   1.861   3.721
    1   AR   Ar   26   0.019   2.553   4.381
    1   AR   Ar   27   0.769   1.893   4.763
    1   AR   Ar   28   1.132   2.586   3.923
    1   AR   Ar   29   6.768   1.851   5.313
    1   AR   Ar   30   0.502   2.593   6.299
    1   AR   Ar   31   1.110   1.543   6.402
    1   AR   Ar   32   1.192   2.950   5.265
    1   AR   Ar   33   0.247   3.634  -0.077
    1   AR   Ar   34   7.081   4.434   1.017
    1   AR   Ar   35   0.893   3.878   0.830
    1   AR   Ar   36   1.062   4.697  -0.289
    1   AR   Ar   37   0.034   3.707   1.943
    1   AR   Ar   38   0.163   4.732   2.756
    1   AR   Ar   39   0.928   3.603   2.481
    1   AR   Ar   40   0.830   4.400   1.917
    1   AR   Ar   41   0.296   3.096   3.419
    1   AR   Ar   42   0.193   4.574   4.610
    1   AR   Ar   43   0.777   3.484   4.376
    1   AR   Ar   44   0.801   4.047   3.451
    1   AR   Ar   45   0.185   3.755   5.332
    1   AR   Ar   46   0.014   4.958   6.237
    1   AR   Ar   47   0.975   3.712   6.267
    1   AR   Ar   48   0.877   4.800   5.438
    1   AR   Ar   49   7.051   4.739  -0.278
    1   AR   Ar   50   0.049   5.827   1.186
    1   AR   Ar   51   1.005   4.868   0.777
    1   AR   Ar   52   0.801   5.847   0.155
    1   AR   Ar   53   6.412   5.524   2.322
    1   AR   Ar   54   6.761   6.659   2.689
    1   AR   Ar   55   1.054   5.541   2.968
    1   AR   Ar   56   0.751   6.038   1.903
    1   AR   Ar   57   0.426   5.204   3.703
    1   AR   Ar   58   0.227   6.337   4.577
    1   AR   Ar   59   0.852   5.488   4.622
    1   AR   Ar   60   0.964   6.268   3.818
    1   AR   Ar   61   6.991   5.355   5.238
    1   AR   Ar   62   0.298   5.914   6.007
    1   AR   Ar   63   1.352   5.635   6.083
    1   AR   Ar   64   0.933   6.461   5.301
    1   AR   Ar   65   1.492   6.652  -0.146
    1   AR   Ar   66   1.882   1.223   1.263
    1   AR   Ar   67   2.409   6.501   0.546
    1   AR   Ar   68   2.550   0.998   0.384
    1   AR   Ar   69   1.591   7.112   1.724
    1   AR   Ar   70   1.701   0.921   2.635
    1   AR   Ar   71   2.291   0.000   2.616
    1   AR   Ar   72   2.898   0.688   1.314
    1   AR   Ar   73   1.632   7.047   3.536
    1   AR   Ar   74   1.677   1.063   4.460
    1   AR   Ar   75   2.470   0.164   4.342
    1   AR   Ar   76   2.529   0.958   3.490
    1   AR   Ar   77   1.972   0.020   5.311
    1   AR   Ar   78   2.128   0.872   5.900
    1   AR   Ar   79   2.721   7.050   6.021
    1   AR   Ar   80   3.063   1.066   5.097
    1   AR   Ar   81   1.710   1.669   0.304
    1   AR   Ar   82   1.540   2.726   0.916
    1   AR   Ar   83   2.416   2.200   1.178
    1   AR   Ar   84   2.568   2.846  -0.077
    1   AR   Ar   85   1.528   2.256   1.953
    1   AR   Ar   86   1.779   2.775   2.857
    1   AR   Ar   87   2.518   1.488   2.281
    1   AR   Ar   88   2.529   2.843   2.114
    1   AR   Ar   89   1.681   1.754   3.431
    1   AR   Ar   90   2.020   3.027   4.553
    1   AR   Ar   91   2.677   1.651   4.445
    1   AR   Ar   92   2.503   2.473   3.596
    1   AR   Ar   93   1.678   1.931   5.416
    1   AR   Ar   94   2.336   2.973   6.260
    1   AR   Ar   95   2.577   1.799   6.181
    1   AR   Ar   96   2.771   2.410   5.237
    1   AR   Ar   97   1.579   3.799  -0.082
    1   AR   Ar   98   1.990   4.106   1.036
    1   AR   Ar   99   2.604   3.295   0.880
    1   AR   Ar  100   2.803   4.696  -0.058
    1   AR   Ar  101   1.675   3.405   1.775
    1   AR   Ar  102   1.623   4.576   2.995
    1   AR   Ar  103   2.432   3.588   2.736
    1   AR   Ar  104   2.775   4.600   1.571
    1   AR   Ar  105   1.836   3.511   3.631
    1   AR   Ar  106   1.776   4.389   4.123
    1   AR   Ar  107   2.836   3.968   4.261
    1   AR   Ar  108   2.689   4.701   3.517
    1   AR   Ar  109   1.602   3.915   5.103
    1   AR   Ar  110   1.997   4.366   5.966
    1   AR   Ar  111   2.837   3.991   6.430
    1   AR   Ar  112   2.774   4.835   5.390
    1   AR   Ar  113   1.846   5.403   0.187
    1   AR   Ar  114   1.672   6.203   1.176
    1   AR   Ar  115   2.565   5.508   1.042
    1   AR   Ar  116   2.772   6.406  -0.402
    1   AR   Ar  117   1.602   5.241   1.812
    1   AR   Ar  118   1.983   5.958   2.468
    1   AR   Ar  119   2.648   5.183   2.475
    1   AR   Ar  120   2.578   6.503   1.772
    1   AR   Ar  121   1.816   5.361   3.728
    1   AR   Ar  122   1.700   6.292   4.555
    1   AR   Ar  123   2.653   5.454   4.465
    1   AR   Ar  124   2.382   6.235   3.552
    1   AR   Ar  125   1.724   5.211   4.999
    1   AR   Ar  126   1.798   6.581   6.337
    1   AR   Ar  127   2.651   5.565   6.523
    1   AR   Ar  128   2.558   6.009   5.501
    1   AR   Ar  129   3.361   6.953   0.420
    1   AR   Ar  130   4.060   0.818   0.896
    1   AR   Ar  131   4.358   6.982   1.231
    1   AR   Ar  132   4.543   1.253  -0.582
    1   AR   Ar  133   3.314   0.018   2.276
    1   AR   Ar  134   3.563   1.124   2.879
    1   AR   Ar  135   4.373   0.009   2.938
    1   AR   Ar  136   4.300   0.765   2.113
    1   AR   Ar  137   3.090   0.003   3.374
    1   AR   Ar  138   3.377   0.752   4.185
    1   AR   Ar  139   4.283   0.166   4.225
    1   AR   Ar  140   4.402   0.982   3.411
    1   AR   Ar  141   3.379   0.057   5.228
    1   AR   Ar  142   3.580   0.776   6.138
    1   AR   Ar  143   4.512   7.106   6.385
    1   AR   Ar  144   4.143   0.760   5.252
    1   AR   Ar  145   3.524   1.576  -0.170
    1   AR   Ar  146   3.613   2.677   0.931
    1   AR   Ar  147   4.301   1.905   0.835
    1   AR   Ar  148   4.986   2.646   0.165
    1   AR   Ar  149   3.681   1.770   1.712
    1   AR   Ar  150   3.365   2.370   2.743
    1   AR   Ar  151   4.342   2.132   2.867
    1   AR   Ar  152   4.276   2.817   1.806
    1   AR   Ar  153   3.547   1.873   3.851
    1   AR   Ar  154   3.322   2.863   4.358
    1   AR   Ar  155   4.465   1.828   4.226
    1   AR   Ar  156   4.612   2.770   3.885
    1   AR   Ar  157   4.025   1.879   5.300
    1   AR   Ar  158   3.459   2.838   6.362
    1   AR   Ar  159   4.309   1.452   6.170
    1   AR   Ar  160   3.989   2.967   5.142
    1   AR   Ar  161   3.375   3.510   0.149
    1   AR   Ar  162   3.622   4.601   0.826
    1   AR   Ar  163   4.626   3.799   0.984
    1   AR   Ar  164   4.782   4.757   0.390
    1   AR   Ar  165   3.566   3.811   1.464
    1   AR   Ar  166   3.208   4.315   2.450
    1   AR   Ar  167   4.097   3.256   2.969
    1   AR   Ar  168   4.327   4.404   1.911
    1   AR   Ar  169   3.074   3.320   3.539
    1   AR   Ar  170   3.773   4.684   4.349
    1   AR   Ar  171   3.967   3.669   4.007
    1   AR   Ar  172   4.509   4.423   3.523
    1   AR   Ar  173   3.265   3.748   5.394
    1   AR   Ar  174   3.743   4.768   6.065
    1   AR   Ar  175   4.246   3.722   6.257
    1   AR   Ar  176   4.396   4.841   5.176
    1   AR   Ar  177   3.427   5.681   0.323
    1   AR   Ar  178   3.540   6.093   1.509
    1   AR   Ar  179   4.536   5.570   1.153
    1   AR   Ar  180   4.598   6.301   0.250
    1   AR   Ar  181   3.711   5.197   2.056
    1   AR   Ar  182   3.378   6.190   2.628
    1   AR   Ar  183   4.849   5.355   2.902
    1   AR   Ar  184   4.485   6.196   2.206
    1   AR   Ar  185   3.465   5.529   3.640
    1   AR   Ar  186   3.290   6.462   4.348
    1   AR   Ar  187   4.412   5.500   4.276
    1   AR   Ar  188   4.389   6.538   3.730
    1   AR   Ar  189   3.674   5.696   5.094
    1   AR   Ar  190   3.558   6.297   5.924
    1   AR   Ar  191   4.603   5.668   5.689
    1   AR   Ar  192   4.452   6.812   5.306
    1   AR   Ar  193   4.811   0.461   0.274
    1   AR   Ar  194   4.974   1.221   1.220
    1   AR   Ar  195   5.983   0.268   1.370
    1   AR   Ar  196   5.742   1.015   0.588
    1   AR   Ar  197   5.178   7.097   1.958
    1   AR   Ar  198   5.329   0.777   2.776
    1   AR   Ar  199   6.249   0.324   2.369
    1   AR   Ar  200   5.965   1.281   1.825
    1   AR   Ar  201   5.224   0.159   3.798
    1   AR   Ar  202   5.163   0.959   4.533
    1   AR   Ar  203   6.306   0.245   4.409
    1   AR   Ar  204   6.199   0.637   3.388
    1   AR   Ar  205   5.485   0.025   5.086
    1   AR   Ar  206   5.484   0.668   6.516
    1   AR   Ar  207   6.315   6.957   6.002
    1   AR   Ar  208   6.053   1.024   5.071
    1   AR   Ar  209   5.908   1.937  -0.399
    1   AR   Ar  210   5.485   2.093   1.221
    1   AR   Ar  211   6.441   1.960   0.607
    1   AR   Ar  212   6.389   3.036   0.224
    1   AR   Ar  213   5.160   1.919   2.187
    1   AR   Ar  214   5.427   2.898   2.537
    1   AR   Ar  215   6.428   1.585   2.762
    1   AR   Ar  216   6.638   2.789   1.330
    1   AR   Ar  217   5.336   1.649   3.492
    1   AR   Ar  218   5.701   2.898   4.422
    1   AR   Ar  219   6.326   1.606   4.048
    1   AR   Ar  220   6.149   2.558   3.523
    1   AR   Ar  221   5.571   1.898   4.979
    1   AR   Ar  222   4.919   2.776   5.894
    1   AR   Ar  223   6.289   1.890   6.225
    1   AR   Ar  224   6.503   2.914   5.416
    1   AR   Ar  225   5.496   3.757  -0.125
    1   AR   Ar  226   5.282   4.489   1.337
    1   AR   Ar  227   6.099   3.881   0.881
    1   AR   Ar  228   5.954   4.736  -0.047
    1   AR   Ar  229   5.366   3.294   1.561
    1   AR   Ar  230   5.071   4.218   2.720
    1   AR   Ar  231   6.286   3.486   2.903
    1   AR   Ar  232   6.236   3.831   1.900
    1   AR   Ar  233   5.338   3.432   3.533
    1   AR   Ar  234   5.689   4.322   4.252
    1   AR   Ar  235   6.628   3.548   4.381
    1   AR   Ar  236   6.634   4.401   3.662
    1   AR   Ar  237   5.515   3.431   5.342
    1   AR   Ar  238   5.208   4.382   5.911
    1   AR   Ar  239   5.895   3.633   6.252
    1   AR   Ar  240   6.317   4.182   5.294
    1   AR   Ar  241   5.410   5.577   0.466
    1   AR   Ar  242   5.229   6.270   1.295
    1   AR   Ar  243   6.358   5.182   1.214
    1   AR   Ar  244   6.311   6.226   0.508
    1   AR   Ar  245   5.490   5.228   2.126
    1   AR   Ar  246   5.218   6.572   2.908
    1   AR   Ar  247   6.159   4.497   2.712
    1   AR   Ar  248   6.287   6.294   1.675
    1   AR   Ar  249   5.992   5.533   3.202
    1   AR   Ar  250   5.161   6.391   4.509
    1   AR   Ar  251   6.169   5.265   4.380
    1   AR   Ar  252   5.945   6.366   3.818
    1   AR   Ar  253   5.443   5.362   5.152
    1   AR   Ar  254   5.434   6.161   6.003
    1   AR   Ar  255   6.132   5.155   5.993
    1   AR   Ar  256   6.121   6.167   5.021
    7.12000  7.12000 12.00000
Argon-slab step 165
  256
    1   AR   Ar    1   0.101   6.648   0.312
    1   AR   Ar    2   7.023   0.654   0.857
    1   AR   Ar    3   0.742   6.681   1.116
    1   AR   Ar    4   1.159   0.456   0.283
    1   AR   Ar    5   0.006   0.106   1.740
    1   AR   Ar    6   0.036   0.774   2.710
    1   AR   Ar    7   1.155   6.731   2.538
    1   AR   Ar    8   0.854   0.781   1.858
    1   AR   Ar    9   7.116   0.032   3.532
    1   AR   Ar   10   0.018   0.902   4.115
    1   AR   Ar   11   0.878   0.106   4.454
    1   AR   Ar   12   0.933   0.771   3.354
    1   AR   Ar   13   6.973   0.553   5.178
    1   AR   Ar   14   0.426   1.207   5.722
    1   AR   Ar   15   0.919   0.040   6.990
    1   AR   Ar   16   1.206   0.709   5.369
    1   AR   Ar   17   0.411   1.551  -0.377
    1   AR   Ar   18   0.467   2.859   0.497
    1   AR   Ar   19   0.750   1.652   0.881
    1   AR   Ar   20   1.136   2.460  -0.094
    1   AR   Ar   21   7.083   1.435   1.775
    1   AR   Ar   22   7.006   2.704   2.590
    1   AR   Ar   23   0.828   1.742   2.805
    1   AR   Ar   24   0.717   2.777   1.708
    1   AR   Ar   25   0.411   1.861   3.700
    1   AR   Ar   26   7.114   2.516   4.351
    1   AR   Ar   27   0.768   1.891   4.765
    1   AR   Ar   28   1.164   2.560   3.919
    1   AR   Ar   29   6.742   1.835   5.323
    1   AR   Ar   30   0.500   2.568   6.305
    1   AR   Ar   31   1.100   1.549   6.412
    1   AR   Ar   32   1.200   2.940   5.265
    1   AR   Ar   33   0.263   3.630  -0.076
    1   AR   Ar   34   7.088   4.434   1.034
    1   AR   Ar   35   0.883   3.868   0.861
    1   AR   Ar   36   1.063   4.729  -0.293
    1   AR   Ar   37   0.053   3.735   1.948
    1   AR   Ar   38   0.162   4.757   2.761
    1   AR   Ar   39   0.896   3.576   2.495
    1   AR   Ar   40   0.827   4.364   1.908
    1   AR   Ar   41   0.289   3.072   3.429
    1   AR   Ar   42   0.223   4.549   4.616
    1   AR   Ar   43   0.749   3.488   4.397
    1   AR   Ar   44   0.817   4.022   3.452
    1   AR   Ar   45   0.161   3.769   5.328
    1   AR   Ar   46   0.041   5.000   6.258
    1   AR   Ar   47   0.981   3.693   6.284
    1   AR   Ar   48   0.893   4.787   5.426
    1   AR   Ar   49   7.055   4.739  -0.243
    1   AR   Ar   50   0.042   5.790   1.174
    1   AR   Ar   51   1.022   4.839   0.762
    1   AR   Ar   52   0.821   5.866   0.163
    1   AR   Ar   53   6.413   5.501   2.300
    1   AR   Ar   54   6.763   6.686   2.706
    1   AR   Ar   55   1.086   5.516   2.983
    1   AR   Ar   56   0.752   6.028   1.902
    1   AR   Ar   57   0.457   5.242   3.717
    1   AR   Ar   58   0.186   6.368   4.588
    1   AR   Ar   59   0.829   5.485   4.616
    1   AR   Ar   60   0.961   6.271   3.857
    1   AR   Ar   61   6.986   5.350   5.215
    1   AR   Ar   62   0.335   5.920   6.027
    1   AR   Ar   63   1.363   5.616   6.078
    1   AR   Ar   64   0.907   6.454   5.303
    1   AR   Ar   65   1.493   6.619  -0.110
    1   AR   Ar   66   1.871   1.228   1.255
    1   AR   Ar   67   2.408   6.491   0.544
    1   AR   Ar   68   2.548   1.017   0.385
    1   AR   Ar   69   1.590   7.105   1.732
    1   AR   Ar   70   1.702   0.903   2.613
    1   AR   Ar   71   2.275   7.101   2.612
    1   AR   Ar   72   2.887   0.649   1.335
    1   AR   Ar   73   1.636   7.052   3.523
    1   AR   Ar   74   1.706   1.121   4.420
    1   AR   Ar   75   2.462   0.142   4.347
    1   AR   Ar   76   2.535   0.939   3.473
    1   AR   Ar   77   1.996   0.022   5.321
    1   AR   Ar   78   2.129   0.869   5.894
    1   AR   Ar   79   2.718   7.063   6.006
    1   AR   Ar   80   3.089   1.078   5.128
    1   AR   Ar   81   1.726   1.624   0.362
    1   AR   Ar   82   1.535   2.712   0.895
    1   AR   Ar   83   2.407   2.201   1.197
    1   AR   Ar   84   2.574   2.862  -0.067
    1   AR   Ar   85   1.527   2.276   1.969
    1   AR   Ar   86   1.791   2.771   2.907
    1   AR   Ar   87   2.527   1.460   2.252
    1   AR   Ar   88   2.542   2.829   2.132
    1   AR   Ar   89   1.702   1.783   3.422
    1   AR   Ar   90   2.041   3.029   4.583
    1   AR   Ar   91   2.675   1.668   4.411
    1   AR   Ar   92   2.472   2.471   3.541
    1   AR   Ar   93   1.689   1.932   5.388
    1   AR   Ar   94   2.342   2.962   6.277
    1   AR   Ar   95   2.587   1.819   6.158
    1   AR   Ar   96   2.772   2.416   5.242
    1   AR   Ar   97   1.595   3.811  -0.054
    1   AR   Ar   98   2.012   4.127   1.047
    1   AR   Ar   99   2.633   3.290   0.902
    1   AR   Ar  100   2.795   4.696  -0.072
    1   AR   Ar  101   1.669   3.359   1.763
    1   AR   Ar  102   1.645   4.578   3.006
    1   AR   Ar  103   2.435   3.584   2.731
    1   AR   Ar  104   2.798   4.593   1.573
    1   AR   Ar  105   1.835   3.526   3.661
    1   AR   Ar  106   1.795   4.404   4.130
    1   AR   Ar  107   2.855   3.971   4.240
    1   AR   Ar  108   2.672   4.694   3.511
    1   AR   Ar  109   1.580   3.924   5.073
    1   AR   Ar  110   2.027   4.366   5.951
    1   AR   Ar  111   2.845   4.017   6.401
    1   AR   Ar  112   2.757   4.859   5.363
    1   AR   Ar  113   1.835   5.393   0.196
    1   AR   Ar  114   1.679   6.179   1.175
    1   AR   Ar  115   2.595   5.521   1.040
    1   AR   Ar  116   2.781   6.443  -0.411
    1   AR   Ar  117   1.585   5.233   1.817
    1   AR   Ar  118   1.983   5.958   2.484
    1   AR   Ar  119   2.664   5.177   2.468
    1   AR   Ar  120   2.584   6.524   1.742
    1   AR   Ar  121   1.807   5.403   3.704
    1   AR   Ar  122   1.710   6.266   4.560
    1   AR   Ar  123   2.693   5.443   4.479
    1   AR   Ar  124   2.387   6.232   3.579
    1   AR   Ar  125   1.749   5.205   5.016
    1   AR   Ar  126   1.802   6.607   6.325
    1   AR   Ar  127   2.649   5.598   6.563
    1   AR   Ar  128   2.543   6.005   5.552
    1   AR   Ar  129   3.344   6.940   0.447
    1   AR   Ar  130   4.102   0.839   0.896
    1   AR   Ar  131   4.350   7.009   1.248
    1   AR   Ar  132   4.529   1.266  -0.599
    1   AR   Ar  133   3.277   0.039   2.263
    1   AR   Ar  134   3.587   1.151   2.888
    1   AR   Ar  135   4.390   0.039   2.962
    1   AR   Ar  136   4.312   0.747   2.089
    1   AR   Ar  137   3.058   0.017   3.361
    1   AR   Ar  138   3.405   0.705   4.202
    1   AR   Ar  139   4.301   0.174   4.260
    1   AR   Ar  140   4.399   0.970   3.433
    1   AR   Ar  141   3.384   0.032   5.219
    1   AR   Ar  142   3.555   0.792   6.132
    1   AR   Ar  143   4.510   0.007   6.397
    1   AR   Ar  144   4.141   0.749   5.251
    1   AR   Ar  145   3.523   1.566  -0.163
    1   AR   Ar  146   3.616   2.653   0.929
    1   AR   Ar  147   4.279   1.860   0.827
    1   AR   Ar  148   5.030   2.635   0.153
    1   AR   Ar  149   3.695   1.765   1.706
    1   AR   Ar  150   3.341   2.369   2.699
    1   AR   Ar  151   4.345   2.131   2.862
    1   AR   Ar  152   4.268   2.845   1.799
    1   AR   Ar  153   3.494   1.867   3.832
    1   AR   Ar  154   3.326   2.873   4.387
    1   AR   Ar  155   4.459   1.854   4.227
    1   AR   Ar  156   4.622   2.771   3.900
    1   AR   Ar  157   4.009   1.888   5.281
    1   AR   Ar  158   3.460   2.872   6.367
    1   AR   Ar  159   4.327   1.437   6.174
    1   AR   Ar  160   3.963   2.984   5.137
    1   AR   Ar  161   3.365   3.499   0.150
    1   AR   Ar  162   3.638   4.583   0.835
    1   AR   Ar  163   4.586   3.803   0.990
    1   AR   Ar  164   4.808   4.745   0.385
    1   AR   Ar  165   3.557   3.807   1.477
    1   AR   Ar  166   3.188   4.317   2.429
    1   AR   Ar  167   4.078   3.239   2.967
    1   AR   Ar  168   4.361   4.456   1.922
    1   AR   Ar  169   3.045   3.336   3.522
    1   AR   Ar  170   3.775   4.695   4.333
    1   AR   Ar  171   3.951   3.684   4.026
    1   AR   Ar  172   4.488   4.404   3.539
    1   AR   Ar  173   3.228   3.748   5.410
    1   AR   Ar  174   3.734   4.797   6.049
    1   AR   Ar  175   4.234   3.740   6.237
    1   AR   Ar  176   4.425   4.865   5.186
    1   AR   Ar  177   3.425   5.704   0.360
    1   AR   Ar  178   3.553   6.093   1.512
    1   AR   Ar  179   4.535   5.568   1.147
    1   AR   Ar  180   4.612   6.316   0.222
    1   AR   Ar  181   3.705   5.179   2.074
    1   AR   Ar  182   3.352   6.195   2.634
    1   AR   Ar  183   4.846   5.366   2.883
    1   AR   Ar  184   4.495   6.202   2.220
    1   AR   Ar  185   3.488   5.501   3.636
    1   AR   Ar  186   3.281   6.458   4.358
    1   AR   Ar  187   4.429   5.499   4.295
    1   AR   Ar  188   4.384   6.513   3.711
    1   AR   Ar  189   3.663   5.699   5.079
    1   AR   Ar  190   3.559   6.286   5.917
    1   AR   Ar  191   4.582   5.699   5.677
    1   AR   Ar  192   4.439   6.798   5.354
    1   AR   Ar  193   4.859   0.480   0.281
    1   AR   Ar  194   4.934   1.253   1.263
    1   AR   Ar  195   5.984   0.273   1.372
    1   AR   Ar  196   5.721   1.047   0.587
    1   AR   Ar  197   5.166   7.094   1.968
    1   AR   Ar  198   5.339   0.765   2.789
    1   AR   Ar  199   6.207   0.323   2.342
    1   AR   Ar  200   5.970   1.282   1.826
    1   AR   Ar  201   5.198   0.124   3.827
    1   AR   Ar  202   5.164   0.935   4.522
    1   AR   Ar  203   6.316   0.248   4.442
    1   AR   Ar  204   6.204   0.612   3.382
    1   AR   Ar  205   5.493   0.060   5.136
    1   AR   Ar  206   5.477   0.659   6.506
    1   AR   Ar  207   6.275   6.963   5.969
    1   AR   Ar  208   6.073   1.039   5.069
    1   AR   Ar  209   5.941   1.943  -0.400
    1   AR   Ar  210   5.506   2.072   1.234
    1   AR   Ar  211   6.445   1.916   0.620
    1   AR   Ar  212   6.387   3.035   0.221
    1   AR   Ar  213   5.138   1.900   2.183
    1   AR   Ar  214   5.448   2.900   2.517
    1   AR   Ar  215   6.429   1.556   2.761
    1   AR   Ar  216   6.619   2.839   1.330
    1   AR   Ar  217   5.314   1.645   3.520
    1   AR   Ar  218   5.731   2.870   4.439
    1   AR   Ar  219   6.322   1.646   4.026
    1   AR   Ar  220   6.099   2.542   3.513
    1   AR   Ar  221   5.556   1.938   5.009
    1   AR   Ar  222   4.911   2.759   5.909
    1   AR   Ar  223   6.288   1.918   6.227
    1   AR   Ar  224   6.492   2.903   5.427
    1   AR   Ar  225   5.509   3.752  -0.133
    1   AR   Ar  226   5.301   4.468   1.364
    1   AR   Ar  227   6.091   3.882   0.871
    1   AR   Ar  228   5.924   4.746  -0.013
    1   AR   Ar  229   5.349   3.287   1.550
    1   AR   Ar  230   5.035   4.235   2.710
    1   AR   Ar  231   6.275   3.467   2.895
    1   AR   Ar  232   6.216   3.809   1.892
    1   AR   Ar  233   5.355   3.429   3.534
    1   AR   Ar  234   5.700   4.319   4.237
    1   AR   Ar  235   6.639   3.535   4.395
    1   AR   Ar  236   6.633   4.405   3.632
    1   AR   Ar  237   5.525   3.439   5.366
    1   AR   Ar  238   5.197   4.378   5.909
    1   AR   Ar  239   5.894   3.669   6.224
    1   AR   Ar  240   6.298   4.203   5.266
    1   AR   Ar  241   5.382   5.573   0.463
    1   AR   Ar  242   5.253   6.262   1.305
    1   AR   Ar  243   6.348   5.152   1.255
    1   AR   Ar  244   6.319   6.257   0.494
    1   AR   Ar  245   5.467   5.224   2.153
    1   AR   Ar  246   5.207   6.598   2.890
    1   AR   Ar  247   6.155   4.500   2.736
    1   AR   Ar  248   6.248   6.300   1.687
    1   AR   Ar  249   5.999   5.544   3.212
    1   AR   Ar  250   5.103   6.377   4.507
    1   AR   Ar  251   6.207   5.234   4.396
    1   AR   Ar  252   5.940   6.351   3.804
    1   AR   Ar  253   5.438   5.367   5.118
    1   AR   Ar  254   5.438   6.152   6.007
    1   AR   Ar  255   6.132   5.172   5.981
    1   AR   Ar  256   6.075   6.142   5.009
    7.12000  7.12000 12.00000
Argon-slab step 170
  256
    1   AR   Ar    1   0.114   6.639   0.304
    1   AR   Ar    2   7.054   0.647   0.824
    1   AR   Ar    3   0.756   6.671   1.138
    1   AR   Ar    4   1.162   0.485   0.309
    1   AR   Ar    5   7.108   0.103   1.733
    1   AR   Ar    6   0.062   0.805   2.711
    1   AR   Ar    7   1.189   6.715   2.520
    1   AR   Ar    8   0.858   0.815   1.852
    1   AR   Ar    9   0.012   0.036   3.549
    1   AR   Ar   10   7.093   0.969   4.098
    1   AR   Ar   11   0.886   0.083   4.427
    1   AR   Ar   12   0.944   0.760   3.356
    1   AR   Ar   13   6.968   0.571   5.197
    1   AR   Ar   14   0.414   1.260   5.702
    1   AR   Ar   15   0.916   0.034   7.015
    1   AR   Ar   16   1.194   0.713   5.367
    1   AR   Ar   17   0.444   1.581  -0.415
    1   AR   Ar   18   0.479   2.853   0.508
    1   AR   Ar   19   0.772   1.641   0.875
    1   AR   Ar   20   1.145   2.465  -0.105
    1   AR   Ar   21   7.049   1.422   1.812
    1   AR   Ar   22   7.017   2.710   2.566
    1   AR   Ar   23   0.841   1.728   2.777
    1   AR   Ar   24   0.730   2.772   1.705
    1   AR   Ar   25   0.407   1.842   3.677
    1   AR   Ar   26   7.083   2.485   4.325
    1   AR   Ar   27   0.767   1.887   4.769
    1   AR   Ar   28   1.198   2.539   3.916
    1   AR   Ar   29   6.720   1.820   5.325
    1   AR   Ar   30   0.499   2.543   6.308
    1   AR   Ar   31   1.095   1.557   6.423
    1   AR   Ar   32   1.204   2.926   5.264
    1   AR   Ar   33   0.277   3.637  -0.081
    1   AR   Ar   34   7.096   4.433   1.051
    1   AR   Ar   35   0.874   3.844   0.894
    1   AR   Ar   36   1.064   4.762  -0.299
    1   AR   Ar   37   0.078   3.755   1.950
    1   AR   Ar   38   0.160   4.782   2.765
    1   AR   Ar   39   0.869   3.536   2.519
    1   AR   Ar   40   0.832   4.344   1.890
    1   AR   Ar   41   0.280   3.048   3.445
    1   AR   Ar   42   0.251   4.522   4.616
    1   AR   Ar   43   0.721   3.492   4.419
    1   AR   Ar   44   0.833   4.000   3.456
    1   AR   Ar   45   0.140   3.780   5.326
    1   AR   Ar   46   0.067   5.031   6.280
    1   AR   Ar   47   0.987   3.674   6.298
    1   AR   Ar   48   0.905   4.770   5.419
    1   AR   Ar   49   7.059   4.739  -0.207
    1   AR   Ar   50   0.035   5.755   1.157
    1   AR   Ar   51   1.040   4.822   0.749
    1   AR   Ar   52   0.839   5.880   0.175
    1   AR   Ar   53   6.457   5.472   2.269
    1   AR   Ar   54   6.766   6.704   2.719
    1   AR   Ar   55   1.119   5.495   2.987
    1   AR   Ar   56   0.754   6.011   1.906
    1   AR   Ar   57   0.480   5.274   3.731
    1   AR   Ar   58   0.135   6.399   4.597
    1   AR   Ar   59   0.808   5.486   4.617
    1   AR   Ar   60   0.956   6.272   3.889
    1   AR   Ar   61   6.988   5.330   5.188
    1   AR   Ar   62   0.372   5.936   6.046
    1   AR   Ar   63   1.377   5.595   6.071
    1   AR   Ar   64   0.888   6.447   5.307
    1   AR   Ar   65   1.497   6.587  -0.074
    1   AR   Ar   66   1.861   1.228   1.262
    1   AR   Ar   67   2.406   6.482   0.544
    1   AR   Ar   68   2.552   1.032   0.385
    1   AR   Ar   69   1.601   7.089   1.735
    1   AR   Ar   70   1.690   0.887   2.630
    1   AR   Ar   71   2.257   7.081   2.611
    1   AR   Ar   72   2.858   0.601   1.356
    1   AR   Ar   73   1.642   7.059   3.512
    1   AR   Ar   74   1.734   1.177   4.380
    1   AR   Ar   75   2.454   0.120   4.351
    1   AR   Ar   76   2.539   0.923   3.456
    1   AR   Ar   77   2.016   0.013   5.320
    1   AR   Ar   78   2.131   0.870   5.891
    1   AR   Ar   79   2.722   7.079   5.997
    1   AR   Ar   80   3.115   1.089   5.168
    1   AR   Ar   81   1.735   1.589   0.409
    1   AR   Ar   82   1.528   2.699   0.873
    1   AR   Ar   83   2.400   2.202   1.217
    1   AR   Ar   84   2.576   2.873  -0.059
    1   AR   Ar   85   1.536   2.288   1.987
    1   AR   Ar   86   1.822   2.799   2.881
    1   AR   Ar   87   2.539   1.434   2.222
    1   AR   Ar   88   2.553   2.806   2.136
    1   AR   Ar   89   1.721   1.805   3.413
    1   AR   Ar   90   2.065   3.030   4.613
    1   AR   Ar   91   2.665   1.688   4.375
    1   AR   Ar   92   2.454   2.463   3.497
    1   AR   Ar   93   1.701   1.932   5.361
    1   AR   Ar   94   2.348   2.950   6.293
    1   AR   Ar   95   2.597   1.841   6.134
    1   AR   Ar   96   2.774   2.424   5.248
    1   AR   Ar   97   1.610   3.822  -0.022
    1   AR   Ar   98   2.027   4.151   1.055
    1   AR   Ar   99   2.662   3.282   0.929
    1   AR   Ar  100   2.786   4.697  -0.084
    1   AR   Ar  101   1.664   3.315   1.751
    1   AR   Ar  102   1.669   4.577   3.015
    1   AR   Ar  103   2.433   3.596   2.730
    1   AR   Ar  104   2.817   4.591   1.564
    1   AR   Ar  105   1.833   3.535   3.687
    1   AR   Ar  106   1.820   4.411   4.131
    1   AR   Ar  107   2.871   3.980   4.233
    1   AR   Ar  108   2.656   4.690   3.502
    1   AR   Ar  109   1.557   3.934   5.043
    1   AR   Ar  110   2.046   4.372   5.931
    1   AR   Ar  111   2.862   4.040   6.376
    1   AR   Ar  112   2.785   4.845   5.395
    1   AR   Ar  113   1.825   5.384   0.207
    1   AR   Ar  114   1.681   6.149   1.177
    1   AR   Ar  115   2.624   5.534   1.040
    1   AR   Ar  116   2.792   6.479  -0.423
    1   AR   Ar  117   1.591   5.219   1.790
    1   AR   Ar  118   1.980   5.965   2.502
    1   AR   Ar  119   2.687   5.194   2.459
    1   AR   Ar  120   2.588   6.544   1.709
    1   AR   Ar  121   1.797   5.441   3.686
    1   AR   Ar  122   1.725   6.240   4.567
    1   AR   Ar  123   2.733   5.434   4.490
    1   AR   Ar  124   2.397   6.233   3.605
    1   AR   Ar  125   1.784   5.146   5.036
    1   AR   Ar  126   1.804   6.633   6.311
    1   AR   Ar  127   2.647   5.632   6.601
    1   AR   Ar  128   2.526   6.001   5.600
    1   AR   Ar  129   3.331   6.930   0.476
    1   AR   Ar  130   4.130   0.855   0.895
    1   AR   Ar  131   4.352   7.017   1.262
    1   AR   Ar  132   4.517   1.278  -0.614
    1   AR   Ar  133   3.244   0.066   2.248
    1   AR   Ar  134   3.602   1.179   2.891
    1   AR   Ar  135   4.398   0.079   2.977
    1   AR   Ar  136   4.325   0.746   2.086
    1   AR   Ar  137   3.029   0.028   3.351
    1   AR   Ar  138   3.432   0.660   4.215
    1   AR   Ar  139   4.312   0.197   4.313
    1   AR   Ar  140   4.405   0.961   3.463
    1   AR   Ar  141   3.389   0.005   5.205
    1   AR   Ar  142   3.522   0.802   6.127
    1   AR   Ar  143   4.508   0.028   6.409
    1   AR   Ar  144   4.145   0.740   5.247
    1   AR   Ar  145   3.523   1.556  -0.155
    1   AR   Ar  146   3.614   2.633   0.927
    1   AR   Ar  147   4.257   1.823   0.812
    1   AR   Ar  148   5.074   2.624   0.143
    1   AR   Ar  149   3.709   1.760   1.704
    1   AR   Ar  150   3.315   2.369   2.656
    1   AR   Ar  151   4.375   2.125   2.869
    1   AR   Ar  152   4.262   2.873   1.793
    1   AR   Ar  153   3.442   1.862   3.807
    1   AR   Ar  154   3.323   2.878   4.412
    1   AR   Ar  155   4.455   1.868   4.233
    1   AR   Ar  156   4.631   2.779   3.911
    1   AR   Ar  157   3.990   1.897   5.257
    1   AR   Ar  158   3.460   2.907   6.369
    1   AR   Ar  159   4.354   1.425   6.181
    1   AR   Ar  160   3.946   3.002   5.141
    1   AR   Ar  161   3.360   3.492   0.153
    1   AR   Ar  162   3.655   4.573   0.840
    1   AR   Ar  163   4.542   3.805   0.995
    1   AR   Ar  164   4.830   4.728   0.381
    1   AR   Ar  165   3.547   3.795   1.494
    1   AR   Ar  166   3.182   4.303   2.431
    1   AR   Ar  167   4.060   3.222   2.966
    1   AR   Ar  168   4.400   4.501   1.929
    1   AR   Ar  169   3.021   3.348   3.492
    1   AR   Ar  170   3.771   4.705   4.319
    1   AR   Ar  171   3.934   3.693   4.049
    1   AR   Ar  172   4.467   4.390   3.558
    1   AR   Ar  173   3.189   3.749   5.424
    1   AR   Ar  174   3.724   4.826   6.033
    1   AR   Ar  175   4.222   3.758   6.213
    1   AR   Ar  176   4.433   4.865   5.181
    1   AR   Ar  177   3.425   5.728   0.398
    1   AR   Ar  178   3.567   6.094   1.513
    1   AR   Ar  179   4.526   5.560   1.141
    1   AR   Ar  180   4.625   6.332   0.195
    1   AR   Ar  181   3.696   5.173   2.091
    1   AR   Ar  182   3.326   6.195   2.643
    1   AR   Ar  183   4.806   5.370   2.903
    1   AR   Ar  184   4.502   6.209   2.230
    1   AR   Ar  185   3.510   5.475   3.631
    1   AR   Ar  186   3.273   6.454   4.367
    1   AR   Ar  187   4.449   5.502   4.314
    1   AR   Ar  188   4.379   6.461   3.687
    1   AR   Ar  189   3.645   5.693   5.052
    1   AR   Ar  190   3.560   6.279   5.915
    1   AR   Ar  191   4.557   5.738   5.670
    1   AR   Ar  192   4.427   6.782   5.400
    1   AR   Ar  193   4.900   0.497   0.288
    1   AR   Ar  194   4.901   1.274   1.317
    1   AR   Ar  195   5.982   0.260   1.359
    1   AR   Ar  196   5.704   1.081   0.587
    1   AR   Ar  197   5.153   7.095   1.980
    1   AR   Ar  198   5.353   0.765   2.794
    1   AR   Ar  199   6.162   0.327   2.319
    1   AR   Ar  200   5.975   1.281   1.825
    1   AR   Ar  201   5.188   0.098   3.845
    1   AR   Ar  202   5.144   0.939   4.533
    1   AR   Ar  203   6.322   0.245   4.468
    1   AR   Ar  204   6.210   0.589   3.380
    1   AR   Ar  205   5.500   0.094   5.186
    1   AR   Ar  206   5.469   0.649   6.494
    1   AR   Ar  207   6.235   6.969   5.934
    1   AR   Ar  208   6.091   1.054   5.069
    1   AR   Ar  209   5.945   1.955  -0.393
    1   AR   Ar  210   5.534   2.060   1.241
    1   AR   Ar  211   6.451   1.872   0.634
    1   AR   Ar  212   6.385   3.033   0.218
    1   AR   Ar  213   5.115   1.879   2.183
    1   AR   Ar  214   5.467   2.900   2.500
    1   AR   Ar  215   6.430   1.519   2.765
    1   AR   Ar  216   6.601   2.889   1.330
    1   AR   Ar  217   5.293   1.641   3.548
    1   AR   Ar  218   5.760   2.843   4.459
    1   AR   Ar  219   6.319   1.683   4.007
    1   AR   Ar  220   6.050   2.527   3.498
    1   AR   Ar  221   5.538   1.981   5.038
    1   AR   Ar  222   4.901   2.742   5.924
    1   AR   Ar  223   6.283   1.946   6.234
    1   AR   Ar  224   6.482   2.894   5.436
    1   AR   Ar  225   5.522   3.745  -0.138
    1   AR   Ar  226   5.324   4.450   1.393
    1   AR   Ar  227   6.083   3.883   0.855
    1   AR   Ar  228   5.894   4.756   0.022
    1   AR   Ar  229   5.334   3.291   1.562
    1   AR   Ar  230   5.006   4.250   2.694
    1   AR   Ar  231   6.267   3.447   2.892
    1   AR   Ar  232   6.178   3.791   1.885
    1   AR   Ar  233   5.373   3.428   3.534
    1   AR   Ar  234   5.710   4.314   4.222
    1   AR   Ar  235   6.650   3.523   4.409
    1   AR   Ar  236   6.637   4.409   3.609
    1   AR   Ar  237   5.529   3.444   5.371
    1   AR   Ar  238   5.184   4.379   5.904
    1   AR   Ar  239   5.902   3.706   6.211
    1   AR   Ar  240   6.279   4.226   5.236
    1   AR   Ar  241   5.361   5.576   0.461
    1   AR   Ar  242   5.279   6.259   1.315
    1   AR   Ar  243   6.331   5.122   1.295
    1   AR   Ar  244   6.318   6.285   0.484
    1   AR   Ar  245   5.443   5.215   2.167
    1   AR   Ar  246   5.208   6.618   2.877
    1   AR   Ar  247   6.153   4.502   2.757
    1   AR   Ar  248   6.210   6.312   1.695
    1   AR   Ar  249   6.001   5.548   3.226
    1   AR   Ar  250   5.044   6.361   4.507
    1   AR   Ar  251   6.249   5.203   4.409
    1   AR   Ar  252   5.935   6.344   3.796
    1   AR   Ar  253   5.426   5.366   5.086
    1   AR   Ar  254   5.434   6.111   6.021
    1   AR   Ar  255   6.130   5.189   5.966
    1   AR   Ar  256   6.034   6.126   4.998
    7.12000  7.12000 12.00000
Argon-slab step 175
  256
    1   AR   Ar    1   0.131   6.651   0.302
    1   AR   Ar    2   7.085   0.642   0.790
    1   AR   Ar    3   0.771   6.667   1.155
    1   AR   Ar    4   1.120   0.481   0.314
    1   AR   Ar    5   7.090   0.099   1.730
    1   AR   Ar    6   0.090   0.831   2.712
    1   AR   Ar    7   1.217   6.698   2.520
    1   AR   Ar    8   0.862   0.849   1.845
    1   AR   Ar    9   0.019   0.032   3.568
    1   AR   Ar   10   7.049   1.033   4.084
    1   AR   Ar   11   0.892   0.061   4.395
    1   AR   Ar   12   0.956   0.746   3.336
    1   AR   Ar   13   6.971   0.583   5.216
    1   AR   Ar   14   0.421   1.305   5.699
    1   AR   Ar   15   0.913   0.027   7.039
    1   AR   Ar   16   1.185   0.714   5.360
    1   AR   Ar   17   0.442   1.562  -0.413
    1   AR   Ar   18   0.483   2.844   0.534
    1   AR   Ar   19   0.793   1.630   0.871
    1   AR   Ar   20   1.162   2.464  -0.124
    1   AR   Ar   21   7.033   1.411   1.842
    1   AR   Ar   22   7.012   2.713   2.569
    1   AR   Ar   23   0.857   1.713   2.739
    1   AR   Ar   24   0.721   2.804   1.649
    1   AR   Ar   25   0.399   1.811   3.652
    1   AR   Ar   26   7.048   2.458   4.306
    1   AR   Ar   27   0.767   1.882   4.772
    1   AR   Ar   28   1.231   2.524   3.917
    1   AR   Ar   29   6.703   1.809   5.318
    1   AR   Ar   30   0.498   2.518   6.309
    1   AR   Ar   31   1.094   1.567   6.435
    1   AR   Ar   32   1.206   2.910   5.265
    1   AR   Ar   33   0.290   3.652  -0.089
    1   AR   Ar   34   7.106   4.430   1.068
    1   AR   Ar   35   0.865   3.809   0.928
    1   AR   Ar   36   1.064   4.795  -0.307
    1   AR   Ar   37   0.087   3.764   1.950
    1   AR   Ar   38   0.160   4.803   2.774
    1   AR   Ar   39   0.851   3.486   2.551
    1   AR   Ar   40   0.853   4.341   1.867
    1   AR   Ar   41   0.273   3.027   3.466
    1   AR   Ar   42   0.278   4.496   4.607
    1   AR   Ar   43   0.693   3.495   4.441
    1   AR   Ar   44   0.848   3.983   3.462
    1   AR   Ar   45   0.121   3.788   5.328
    1   AR   Ar   46   0.091   5.050   6.303
    1   AR   Ar   47   0.994   3.655   6.309
    1   AR   Ar   48   0.914   4.752   5.417
    1   AR   Ar   49   7.063   4.738  -0.168
    1   AR   Ar   50   0.030   5.723   1.137
    1   AR   Ar   51   1.052   4.816   0.741
    1   AR   Ar   52   0.851   5.884   0.191
    1   AR   Ar   53   6.509   5.443   2.241
    1   AR   Ar   54   6.776   6.723   2.718
    1   AR   Ar   55   1.144   5.479   2.973
    1   AR   Ar   56   0.758   5.987   1.914
    1   AR   Ar   57   0.492   5.299   3.736
    1   AR   Ar   58   0.079   6.430   4.603
    1   AR   Ar   59   0.794   5.493   4.632
    1   AR   Ar   60   0.948   6.273   3.914
    1   AR   Ar   61   6.990   5.312   5.163
    1   AR   Ar   62   0.409   5.961   6.063
    1   AR   Ar   63   1.394   5.574   6.061
    1   AR   Ar   64   0.876   6.443   5.311
    1   AR   Ar   65   1.507   6.561  -0.039
    1   AR   Ar   66   1.858   1.214   1.289
    1   AR   Ar   67   2.403   6.472   0.545
    1   AR   Ar   68   2.565   1.042   0.385
    1   AR   Ar   69   1.620   7.081   1.722
    1   AR   Ar   70   1.678   0.871   2.645
    1   AR   Ar   71   2.237   7.059   2.610
    1   AR   Ar   72   2.829   0.552   1.378
    1   AR   Ar   73   1.649   7.066   3.501
    1   AR   Ar   74   1.760   1.231   4.339
    1   AR   Ar   75   2.446   0.098   4.352
    1   AR   Ar   76   2.540   0.912   3.440
    1   AR   Ar   77   2.027   7.119   5.308
    1   AR   Ar   78   2.135   0.877   5.889
    1   AR   Ar   79   2.720   7.090   6.016
    1   AR   Ar   80   3.078   1.097   5.177
    1   AR   Ar   81   1.732   1.572   0.430
    1   AR   Ar   82   1.519   2.687   0.851
    1   AR   Ar   83   2.396   2.201   1.237
    1   AR   Ar   84   2.572   2.880  -0.052
    1   AR   Ar   85   1.556   2.289   2.008
    1   AR   Ar   86   1.829   2.832   2.844
    1   AR   Ar   87   2.552   1.410   2.191
    1   AR   Ar   88   2.539   2.789   2.122
    1   AR   Ar   89   1.736   1.814   3.400
    1   AR   Ar   90   2.091   3.029   4.641
    1   AR   Ar   91   2.645   1.708   4.344
    1   AR   Ar   92   2.458   2.453   3.471
    1   AR   Ar   93   1.715   1.931   5.334
    1   AR   Ar   94   2.353   2.940   6.306
    1   AR   Ar   95   2.608   1.862   6.111
    1   AR   Ar   96   2.776   2.432   5.253
    1   AR   Ar   97   1.626   3.832   0.012
    1   AR   Ar   98   2.037   4.175   1.060
    1   AR   Ar   99   2.689   3.274   0.961
    1   AR   Ar  100   2.777   4.698  -0.093
    1   AR   Ar  101   1.661   3.276   1.739
    1   AR   Ar  102   1.693   4.574   3.022
    1   AR   Ar  103   2.426   3.625   2.727
    1   AR   Ar  104   2.834   4.595   1.547
    1   AR   Ar  105   1.833   3.532   3.706
    1   AR   Ar  106   1.852   4.406   4.121
    1   AR   Ar  107   2.885   3.993   4.239
    1   AR   Ar  108   2.641   4.689   3.490
    1   AR   Ar  109   1.533   3.945   5.013
    1   AR   Ar  110   2.048   4.392   5.905
    1   AR   Ar  111   2.888   4.060   6.358
    1   AR   Ar  112   2.793   4.841   5.433
    1   AR   Ar  113   1.818   5.376   0.219
    1   AR   Ar  114   1.680   6.114   1.182
    1   AR   Ar  115   2.649   5.546   1.043
    1   AR   Ar  116   2.805   6.515  -0.437
    1   AR   Ar  117   1.603   5.202   1.756
    1   AR   Ar  118   1.978   5.975   2.520
    1   AR   Ar  119   2.713   5.228   2.448
    1   AR   Ar  120   2.590   6.561   1.674
    1   AR   Ar  121   1.791   5.473   3.682
    1   AR   Ar  122   1.746   6.214   4.577
    1   AR   Ar  123   2.771   5.427   4.498
    1   AR   Ar  124   2.414   6.242   3.630
    1   AR   Ar  125   1.823   5.088   5.055
    1   AR   Ar  126   1.804   6.656   6.297
    1   AR   Ar  127   2.644   5.665   6.638
    1   AR   Ar  128   2.509   5.998   5.643
    1   AR   Ar  129   3.324   6.921   0.506
    1   AR   Ar  130   4.139   0.858   0.891
    1   AR   Ar  131   4.360   7.010   1.275
    1   AR   Ar  132   4.504   1.291  -0.627
    1   AR   Ar  133   3.246   0.067   2.233
    1   AR   Ar  134   3.628   1.171   2.878
    1   AR   Ar  135   4.399   0.121   2.984
    1   AR   Ar  136   4.327   0.734   2.056
    1   AR   Ar  137   3.005   0.034   3.341
    1   AR   Ar  138   3.450   0.620   4.225
    1   AR   Ar  139   4.323   0.219   4.374
    1   AR   Ar  140   4.418   0.957   3.503
    1   AR   Ar  141   3.388   7.105   5.189
    1   AR   Ar  142   3.484   0.809   6.122
    1   AR   Ar  143   4.505   0.051   6.420
    1   AR   Ar  144   4.152   0.735   5.241
    1   AR   Ar  145   3.523   1.546  -0.143
    1   AR   Ar  146   3.608   2.617   0.925
    1   AR   Ar  147   4.247   1.840   0.809
    1   AR   Ar  148   5.120   2.612   0.134
    1   AR   Ar  149   3.721   1.754   1.705
    1   AR   Ar  150   3.292   2.366   2.617
    1   AR   Ar  151   4.403   2.120   2.881
    1   AR   Ar  152   4.256   2.901   1.788
    1   AR   Ar  153   3.401   1.859   3.772
    1   AR   Ar  154   3.308   2.878   4.426
    1   AR   Ar  155   4.449   1.868   4.244
    1   AR   Ar  156   4.640   2.797   3.918
    1   AR   Ar  157   3.969   1.906   5.233
    1   AR   Ar  158   3.461   2.943   6.369
    1   AR   Ar  159   4.384   1.414   6.188
    1   AR   Ar  160   3.940   3.021   5.157
    1   AR   Ar  161   3.362   3.491   0.158
    1   AR   Ar  162   3.674   4.568   0.841
    1   AR   Ar  163   4.496   3.807   1.000
    1   AR   Ar  164   4.847   4.702   0.378
    1   AR   Ar  165   3.537   3.775   1.515
    1   AR   Ar  166   3.192   4.273   2.461
    1   AR   Ar  167   4.042   3.205   2.965
    1   AR   Ar  168   4.425   4.515   1.928
    1   AR   Ar  169   3.005   3.353   3.457
    1   AR   Ar  170   3.760   4.713   4.308
    1   AR   Ar  171   3.915   3.693   4.074
    1   AR   Ar  172   4.482   4.386   3.565
    1   AR   Ar  173   3.151   3.749   5.435
    1   AR   Ar  174   3.713   4.855   6.015
    1   AR   Ar  175   4.209   3.776   6.188
    1   AR   Ar  176   4.435   4.854   5.171
    1   AR   Ar  177   3.427   5.754   0.435
    1   AR   Ar  178   3.582   6.096   1.513
    1   AR   Ar  179   4.512   5.549   1.137
    1   AR   Ar  180   4.636   6.350   0.172
    1   AR   Ar  181   3.682   5.177   2.108
    1   AR   Ar  182   3.299   6.193   2.653
    1   AR   Ar  183   4.758   5.376   2.933
    1   AR   Ar  184   4.504   6.213   2.237
    1   AR   Ar  185   3.531   5.452   3.624
    1   AR   Ar  186   3.265   6.449   4.372
    1   AR   Ar  187   4.450   5.510   4.326
    1   AR   Ar  188   4.371   6.400   3.662
    1   AR   Ar  189   3.626   5.683   5.022
    1   AR   Ar  190   3.561   6.273   5.915
    1   AR   Ar  191   4.526   5.781   5.665
    1   AR   Ar  192   4.415   6.767   5.441
    1   AR   Ar  193   4.912   0.514   0.303
    1   AR   Ar  194   4.883   1.286   1.383
    1   AR   Ar  195   5.978   0.247   1.331
    1   AR   Ar  196   5.690   1.118   0.588
    1   AR   Ar  197   5.138   7.101   1.990
    1   AR   Ar  198   5.376   0.786   2.789
    1   AR   Ar  199   6.123   0.333   2.305
    1   AR   Ar  200   5.977   1.278   1.823
    1   AR   Ar  201   5.209   0.113   3.838
    1   AR   Ar  202   5.123   0.945   4.542
    1   AR   Ar  203   6.329   0.237   4.478
    1   AR   Ar  204   6.218   0.567   3.381
    1   AR   Ar  205   5.503   0.128   5.235
    1   AR   Ar  206   5.462   0.639   6.479
    1   AR   Ar  207   6.195   6.975   5.899
    1   AR   Ar  208   6.106   1.059   5.077
    1   AR   Ar  209   5.908   1.975  -0.373
    1   AR   Ar  210   5.505   2.054   1.182
    1   AR   Ar  211   6.485   1.876   0.625
    1   AR   Ar  212   6.384   3.030   0.215
    1   AR   Ar  213   5.093   1.856   2.185
    1   AR   Ar  214   5.484   2.896   2.488
    1   AR   Ar  215   6.431   1.480   2.774
    1   AR   Ar  216   6.583   2.940   1.331
    1   AR   Ar  217   5.272   1.637   3.574
    1   AR   Ar  218   5.789   2.818   4.478
    1   AR   Ar  219   6.316   1.717   3.992
    1   AR   Ar  220   6.001   2.516   3.476
    1   AR   Ar  221   5.520   2.023   5.068
    1   AR   Ar  222   4.889   2.724   5.937
    1   AR   Ar  223   6.290   1.964   6.235
    1   AR   Ar  224   6.472   2.885   5.444
    1   AR   Ar  225   5.534   3.736  -0.141
    1   AR   Ar  226   5.350   4.433   1.420
    1   AR   Ar  227   6.076   3.885   0.836
    1   AR   Ar  228   5.866   4.755   0.033
    1   AR   Ar  229   5.315   3.294   1.567
    1   AR   Ar  230   4.988   4.261   2.679
    1   AR   Ar  231   6.264   3.427   2.892
    1   AR   Ar  232   6.137   3.776   1.881
    1   AR   Ar  233   5.393   3.430   3.533
    1   AR   Ar  234   5.718   4.304   4.206
    1   AR   Ar  235   6.661   3.512   4.422
    1   AR   Ar  236   6.649   4.412   3.598
    1   AR   Ar  237   5.524   3.445   5.357
    1   AR   Ar  238   5.167   4.383   5.896
    1   AR   Ar  239   5.923   3.745   6.216
    1   AR   Ar  240   6.259   4.253   5.206
    1   AR   Ar  241   5.347   5.585   0.462
    1   AR   Ar  242   5.300   6.258   1.322
    1   AR   Ar  243   6.306   5.089   1.333
    1   AR   Ar  244   6.308   6.307   0.479
    1   AR   Ar  245   5.425   5.205   2.171
    1   AR   Ar  246   5.220   6.631   2.873
    1   AR   Ar  247   6.169   4.484   2.776
    1   AR   Ar  248   6.181   6.328   1.705
    1   AR   Ar  249   6.003   5.540   3.234
    1   AR   Ar  250   4.988   6.347   4.512
    1   AR   Ar  251   6.294   5.174   4.420
    1   AR   Ar  252   5.930   6.349   3.796
    1   AR   Ar  253   5.405   5.354   5.055
    1   AR   Ar  254   5.436   6.074   6.034
    1   AR   Ar  255   6.126   5.206   5.949
    1   AR   Ar  256   6.003   6.122   4.986
    7.12000  7.12000 12.00000
Argon-slab step 180
  256
    1   AR   Ar    1   0.151   6.677   0.303
    1   AR   Ar    2   7.111   0.638   0.760
    1   AR   Ar    3   0.758   6.658   1.156
    1   AR   Ar    4   1.084   0.470   0.337
    1   AR   Ar    5   7.070   0.094   1.728
    1   AR   Ar    6   0.120   0.851   2.714
    1   AR   Ar    7   1.236   6.679   2.535
    1   AR   Ar    8   0.866   0.882   1.839
    1   AR   Ar    9   0.030   0.030   3.595
    1   AR   Ar   10   7.008   1.083   4.074
    1   AR   Ar   11   0.898   0.045   4.366
    1   AR   Ar   12   0.961   0.733   3.324
    1   AR   Ar   13   6.983   0.589   5.237
    1   AR   Ar   14   0.459   1.332   5.717
    1   AR   Ar   15   0.910   0.019   7.062
    1   AR   Ar   16   1.179   0.712   5.349
    1   AR   Ar   17   0.432   1.532  -0.399
    1   AR   Ar   18   0.481   2.833   0.568
    1   AR   Ar   19   0.809   1.620   0.869
    1   AR   Ar   20   1.183   2.460  -0.148
    1   AR   Ar   21   7.041   1.400   1.858
    1   AR   Ar   22   7.002   2.713   2.573
    1   AR   Ar   23   0.875   1.697   2.694
    1   AR   Ar   24   0.704   2.837   1.591
    1   AR   Ar   25   0.402   1.791   3.632
    1   AR   Ar   26   7.009   2.435   4.292
    1   AR   Ar   27   0.767   1.877   4.775
    1   AR   Ar   28   1.261   2.516   3.921
    1   AR   Ar   29   6.694   1.808   5.303
    1   AR   Ar   30   0.497   2.493   6.308
    1   AR   Ar   31   1.098   1.577   6.449
    1   AR   Ar   32   1.205   2.894   5.266
    1   AR   Ar   33   0.302   3.672  -0.098
    1   AR   Ar   34   7.106   4.437   1.050
    1   AR   Ar   35   0.858   3.766   0.963
    1   AR   Ar   36   1.062   4.826  -0.317
    1   AR   Ar   37   0.077   3.763   1.947
    1   AR   Ar   38   0.161   4.821   2.792
    1   AR   Ar   39   0.839   3.430   2.585
    1   AR   Ar   40   0.889   4.351   1.842
    1   AR   Ar   41   0.269   3.008   3.491
    1   AR   Ar   42   0.231   4.485   4.631
    1   AR   Ar   43   0.667   3.495   4.461
    1   AR   Ar   44   0.862   3.970   3.473
    1   AR   Ar   45   0.102   3.790   5.337
    1   AR   Ar   46   0.112   5.059   6.326
    1   AR   Ar   47   1.001   3.636   6.317
    1   AR   Ar   48   0.918   4.732   5.421
    1   AR   Ar   49   7.067   4.737  -0.127
    1   AR   Ar   50   0.026   5.692   1.116
    1   AR   Ar   51   1.037   4.823   0.740
    1   AR   Ar   52   0.854   5.873   0.214
    1   AR   Ar   53   6.565   5.416   2.223
    1   AR   Ar   54   6.789   6.742   2.706
    1   AR   Ar   55   1.158   5.466   2.940
    1   AR   Ar   56   0.761   5.955   1.926
    1   AR   Ar   57   0.494   5.316   3.732
    1   AR   Ar   58   0.020   6.461   4.607
    1   AR   Ar   59   0.787   5.503   4.664
    1   AR   Ar   60   0.939   6.271   3.932
    1   AR   Ar   61   6.993   5.297   5.146
    1   AR   Ar   62   0.442   5.993   6.082
    1   AR   Ar   63   1.415   5.552   6.049
    1   AR   Ar   64   0.872   6.442   5.309
    1   AR   Ar   65   1.485   6.546  -0.047
    1   AR   Ar   66   1.866   1.186   1.332
    1   AR   Ar   67   2.399   6.462   0.547
    1   AR   Ar   68   2.588   1.045   0.386
    1   AR   Ar   69   1.645   7.081   1.696
    1   AR   Ar   70   1.672   0.858   2.654
    1   AR   Ar   71   2.218   7.037   2.608
    1   AR   Ar   72   2.798   0.504   1.398
    1   AR   Ar   73   1.645   7.071   3.499
    1   AR   Ar   74   1.776   1.280   4.300
    1   AR   Ar   75   2.440   0.077   4.348
    1   AR   Ar   76   2.535   0.910   3.426
    1   AR   Ar   77   2.029   7.100   5.288
    1   AR   Ar   78   2.139   0.887   5.888
    1   AR   Ar   79   2.716   7.098   6.054
    1   AR   Ar   80   3.038   1.105   5.185
    1   AR   Ar   81   1.719   1.573   0.426
    1   AR   Ar   82   1.511   2.675   0.830
    1   AR   Ar   83   2.393   2.197   1.256
    1   AR   Ar   84   2.561   2.883  -0.046
    1   AR   Ar   85   1.577   2.277   2.026
    1   AR   Ar   86   1.814   2.867   2.805
    1   AR   Ar   87   2.566   1.387   2.161
    1   AR   Ar   88   2.527   2.772   2.097
    1   AR   Ar   89   1.742   1.806   3.383
    1   AR   Ar   90   2.118   3.028   4.668
    1   AR   Ar   91   2.618   1.731   4.324
    1   AR   Ar   92   2.485   2.444   3.457
    1   AR   Ar   93   1.731   1.927   5.308
    1   AR   Ar   94   2.359   2.930   6.317
    1   AR   Ar   95   2.618   1.881   6.088
    1   AR   Ar   96   2.779   2.441   5.256
    1   AR   Ar   97   1.640   3.842   0.049
    1   AR   Ar   98   2.039   4.192   1.060
    1   AR   Ar   99   2.714   3.264   0.998
    1   AR   Ar  100   2.768   4.699  -0.099
    1   AR   Ar  101   1.659   3.247   1.727
    1   AR   Ar  102   1.718   4.567   3.027
    1   AR   Ar  103   2.410   3.667   2.716
    1   AR   Ar  104   2.853   4.603   1.528
    1   AR   Ar  105   1.833   3.515   3.717
    1   AR   Ar  106   1.845   4.407   4.097
    1   AR   Ar  107   2.896   4.008   4.254
    1   AR   Ar  108   2.631   4.691   3.473
    1   AR   Ar  109   1.509   3.954   4.986
    1   AR   Ar  110   2.033   4.409   5.880
    1   AR   Ar  111   2.920   4.079   6.349
    1   AR   Ar  112   2.775   4.854   5.477
    1   AR   Ar  113   1.815   5.370   0.234
    1   AR   Ar  114   1.676   6.076   1.189
    1   AR   Ar  115   2.669   5.556   1.053
    1   AR   Ar  116   2.818   6.550  -0.452
    1   AR   Ar  117   1.616   5.184   1.722
    1   AR   Ar  118   1.977   5.986   2.538
    1   AR   Ar  119   2.734   5.263   2.441
    1   AR   Ar  120   2.592   6.576   1.638
    1   AR   Ar  121   1.791   5.496   3.693
    1   AR   Ar  122   1.771   6.188   4.591
    1   AR   Ar  123   2.798   5.424   4.501
    1   AR   Ar  124   2.426   6.253   3.648
    1   AR   Ar  125   1.863   5.035   5.069
    1   AR   Ar  126   1.800   6.678   6.282
    1   AR   Ar  127   2.642   5.697   6.676
    1   AR   Ar  128   2.490   5.996   5.681
    1   AR   Ar  129   3.323   6.915   0.539
    1   AR   Ar  130   4.134   0.849   0.885
    1   AR   Ar  131   4.372   6.999   1.269
    1   AR   Ar  132   4.493   1.303  -0.639
    1   AR   Ar  133   3.260   0.064   2.220
    1   AR   Ar  134   3.648   1.164   2.862
    1   AR   Ar  135   4.395   0.157   2.983
    1   AR   Ar  136   4.322   0.710   2.026
    1   AR   Ar  137   2.988   0.031   3.333
    1   AR   Ar  138   3.455   0.587   4.233
    1   AR   Ar  139   4.344   0.228   4.433
    1   AR   Ar  140   4.435   0.963   3.554
    1   AR   Ar  141   3.383   7.092   5.175
    1   AR   Ar  142   3.445   0.813   6.117
    1   AR   Ar  143   4.481   0.061   6.429
    1   AR   Ar  144   4.162   0.735   5.241
    1   AR   Ar  145   3.522   1.536  -0.129
    1   AR   Ar  146   3.596   2.608   0.925
    1   AR   Ar  147   4.243   1.866   0.796
    1   AR   Ar  148   5.167   2.601   0.128
    1   AR   Ar  149   3.732   1.748   1.711
    1   AR   Ar  150   3.278   2.357   2.584
    1   AR   Ar  151   4.426   2.116   2.898
    1   AR   Ar  152   4.250   2.928   1.785
    1   AR   Ar  153   3.375   1.860   3.725
    1   AR   Ar  154   3.282   2.874   4.428
    1   AR   Ar  155   4.442   1.860   4.258
    1   AR   Ar  156   4.648   2.822   3.923
    1   AR   Ar  157   3.947   1.914   5.209
    1   AR   Ar  158   3.462   2.979   6.366
    1   AR   Ar  159   4.409   1.402   6.191
    1   AR   Ar  160   3.944   3.043   5.185
    1   AR   Ar  161   3.370   3.494   0.165
    1   AR   Ar  162   3.694   4.567   0.839
    1   AR   Ar  163   4.452   3.809   1.004
    1   AR   Ar  164   4.858   4.670   0.378
    1   AR   Ar  165   3.528   3.751   1.539
    1   AR   Ar  166   3.212   4.285   2.480
    1   AR   Ar  167   4.024   3.188   2.964
    1   AR   Ar  168   4.434   4.511   1.913
    1   AR   Ar  169   3.001   3.324   3.420
    1   AR   Ar  170   3.746   4.720   4.303
    1   AR   Ar  171   3.895   3.688   4.101
    1   AR   Ar  172   4.507   4.388   3.570
    1   AR   Ar  173   3.115   3.747   5.438
    1   AR   Ar  174   3.702   4.884   5.997
    1   AR   Ar  175   4.195   3.795   6.160
    1   AR   Ar  176   4.436   4.839   5.162
    1   AR   Ar  177   3.443   5.750   0.415
    1   AR   Ar  178   3.598   6.100   1.512
    1   AR   Ar  179   4.494   5.535   1.135
    1   AR   Ar  180   4.646   6.368   0.152
    1   AR   Ar  181   3.668   5.187   2.124
    1   AR   Ar  182   3.271   6.189   2.663
    1   AR   Ar  183   4.706   5.383   2.968
    1   AR   Ar  184   4.503   6.216   2.240
    1   AR   Ar  185   3.550   5.434   3.614
    1   AR   Ar  186   3.256   6.445   4.372
    1   AR   Ar  187   4.437   5.518   4.333
    1   AR   Ar  188   4.361   6.339   3.635
    1   AR   Ar  189   3.611   5.671   4.995
    1   AR   Ar  190   3.560   6.268   5.917
    1   AR   Ar  191   4.492   5.817   5.659
    1   AR   Ar  192   4.404   6.758   5.477
    1   AR   Ar  193   4.923   0.525   0.315
    1   AR   Ar  194   4.874   1.290   1.450
    1   AR   Ar  195   5.974   0.233   1.290
    1   AR   Ar  196   5.679   1.157   0.593
    1   AR   Ar  197   5.124   7.112   1.995
    1   AR   Ar  198   5.388   0.812   2.787
    1   AR   Ar  199   6.093   0.335   2.298
    1   AR   Ar  200   5.975   1.275   1.817
    1   AR   Ar  201   5.234   0.127   3.827
    1   AR   Ar  202   5.102   0.953   4.551
    1   AR   Ar  203   6.343   0.235   4.454
    1   AR   Ar  204   6.228   0.544   3.385
    1   AR   Ar  205   5.496   0.157   5.272
    1   AR   Ar  206   5.454   0.628   6.463
    1   AR   Ar  207   6.162   6.977   5.869
    1   AR   Ar  208   6.116   1.045   5.092
    1   AR   Ar  209   5.870   1.996  -0.351
    1   AR   Ar  210   5.481   2.056   1.120
    1   AR   Ar  211   6.489   1.861   0.609
    1   AR   Ar  212   6.383   3.025   0.213
    1   AR   Ar  213   5.077   1.837   2.192
    1   AR   Ar  214   5.497   2.887   2.480
    1   AR   Ar  215   6.421   1.466   2.744
    1   AR   Ar  216   6.566   2.991   1.332
    1   AR   Ar  217   5.254   1.634   3.599
    1   AR   Ar  218   5.819   2.797   4.496
    1   AR   Ar  219   6.308   1.747   3.981
    1   AR   Ar  220   5.951   2.510   3.448
    1   AR   Ar  221   5.501   2.061   5.101
    1   AR   Ar  222   4.876   2.706   5.950
    1   AR   Ar  223   6.294   1.983   6.239
    1   AR   Ar  224   6.462   2.877   5.451
    1   AR   Ar  225   5.546   3.726  -0.142
    1   AR   Ar  226   5.377   4.416   1.446
    1   AR   Ar  227   6.069   3.888   0.813
    1   AR   Ar  228   5.840   4.738   0.004
    1   AR   Ar  229   5.288   3.295   1.563
    1   AR   Ar  230   4.983   4.267   2.670
    1   AR   Ar  231   6.267   3.409   2.897
    1   AR   Ar  232   6.101   3.767   1.883
    1   AR   Ar  233   5.413   3.436   3.531
    1   AR   Ar  234   5.725   4.293   4.191
    1   AR   Ar  235   6.672   3.503   4.435
    1   AR   Ar  236   6.672   4.413   3.607
    1   AR   Ar  237   5.514   3.442   5.333
    1   AR   Ar  238   5.148   4.391   5.886
    1   AR   Ar  239   5.952   3.785   6.230
    1   AR   Ar  240   6.237   4.271   5.179
    1   AR   Ar  241   5.339   5.600   0.463
    1   AR   Ar  242   5.306   6.257   1.323
    1   AR   Ar  243   6.273   5.053   1.362
    1   AR   Ar  244   6.291   6.327   0.478
    1   AR   Ar  245   5.409   5.195   2.171
    1   AR   Ar  246   5.242   6.638   2.878
    1   AR   Ar  247   6.173   4.471   2.776
    1   AR   Ar  248   6.169   6.347   1.722
    1   AR   Ar  249   6.005   5.521   3.235
    1   AR   Ar  250   4.938   6.340   4.522
    1   AR   Ar  251   6.337   5.146   4.426
    1   AR   Ar  252   5.932   6.340   3.811
    1   AR   Ar  253   5.375   5.331   5.026
    1   AR   Ar  254   5.443   6.039   6.046
    1   AR   Ar  255   6.124   5.221   5.929
    1   AR   Ar  256   5.981   6.131   4.973
    7.12000  7.12000 12.00000
Argon-slab step 185
  256
    1   AR   Ar    1   0.171   6.707   0.303
    1   AR   Ar    2   7.110   0.627   0.753
    1   AR   Ar    3   0.740   6.649   1.153
    1   AR   Ar    4   1.080   0.501   0.330
    1   AR   Ar    5   7.050   0.091   1.728
    1   AR   Ar    6   0.152   0.863   2.718
    1   AR   Ar    7   1.244   6.664   2.558
    1   AR   Ar    8   0.887   0.902   1.829
    1   AR   Ar    9   0.046   0.029   3.626
    1   AR   Ar   10   6.972   1.113   4.072
    1   AR   Ar   11   0.904   0.038   4.342
    1   AR   Ar   12   0.962   0.715   3.324
    1   AR   Ar   13   7.005   0.588   5.259
    1   AR   Ar   14   0.489   1.362   5.732
    1   AR   Ar   15   0.909   0.011   7.083
    1   AR   Ar   16   1.178   0.707   5.335
    1   AR   Ar   17   0.424   1.502  -0.382
    1   AR   Ar   18   0.474   2.820   0.600
    1   AR   Ar   19   0.819   1.610   0.870
    1   AR   Ar   20   1.204   2.454  -0.174
    1   AR   Ar   21   7.051   1.393   1.869
    1   AR   Ar   22   6.994   2.711   2.572
    1   AR   Ar   23   0.867   1.692   2.698
    1   AR   Ar   24   0.697   2.828   1.602
    1   AR   Ar   25   0.439   1.810   3.637
    1   AR   Ar   26   6.972   2.415   4.286
    1   AR   Ar   27   0.766   1.871   4.776
    1   AR   Ar   28   1.288   2.514   3.931
    1   AR   Ar   29   6.695   1.816   5.284
    1   AR   Ar   30   0.496   2.468   6.304
    1   AR   Ar   31   1.109   1.589   6.468
    1   AR   Ar   32   1.202   2.878   5.268
    1   AR   Ar   33   0.315   3.693  -0.106
    1   AR   Ar   34   7.108   4.445   1.032
    1   AR   Ar   35   0.853   3.722   0.996
    1   AR   Ar   36   1.060   4.857  -0.329
    1   AR   Ar   37   0.058   3.757   1.943
    1   AR   Ar   38   0.164   4.836   2.810
    1   AR   Ar   39   0.831   3.443   2.610
    1   AR   Ar   40   0.931   4.368   1.819
    1   AR   Ar   41   0.267   2.991   3.519
    1   AR   Ar   42   0.185   4.477   4.642
    1   AR   Ar   43   0.641   3.492   4.479
    1   AR   Ar   44   0.875   3.962   3.488
    1   AR   Ar   45   0.084   3.787   5.355
    1   AR   Ar   46   0.131   5.062   6.347
    1   AR   Ar   47   1.008   3.616   6.321
    1   AR   Ar   48   0.919   4.712   5.430
    1   AR   Ar   49   7.071   4.736  -0.083
    1   AR   Ar   50   0.023   5.662   1.095
    1   AR   Ar   51   1.022   4.831   0.744
    1   AR   Ar   52   0.844   5.847   0.245
    1   AR   Ar   53   6.624   5.395   2.216
    1   AR   Ar   54   6.800   6.758   2.691
    1   AR   Ar   55   1.161   5.455   2.894
    1   AR   Ar   56   0.764   5.917   1.939
    1   AR   Ar   57   0.489   5.328   3.721
    1   AR   Ar   58   7.079   6.490   4.610
    1   AR   Ar   59   0.788   5.517   4.704
    1   AR   Ar   60   0.930   6.263   3.941
    1   AR   Ar   61   7.000   5.289   5.143
    1   AR   Ar   62   0.446   6.009   6.098
    1   AR   Ar   63   1.439   5.529   6.035
    1   AR   Ar   64   0.875   6.446   5.298
    1   AR   Ar   65   1.474   6.545  -0.060
    1   AR   Ar   66   1.874   1.153   1.385
    1   AR   Ar   67   2.393   6.452   0.548
    1   AR   Ar   68   2.595   1.066   0.418
    1   AR   Ar   69   1.671   7.087   1.664
    1   AR   Ar   70   1.673   0.846   2.655
    1   AR   Ar   71   2.205   7.016   2.605
    1   AR   Ar   72   2.765   0.460   1.415
    1   AR   Ar   73   1.644   7.074   3.499
    1   AR   Ar   74   1.773   1.317   4.262
    1   AR   Ar   75   2.435   0.056   4.339
    1   AR   Ar   76   2.526   0.918   3.413
    1   AR   Ar   77   2.026   7.079   5.266
    1   AR   Ar   78   2.143   0.900   5.886
    1   AR   Ar   79   2.721   7.105   6.095
    1   AR   Ar   80   2.998   1.114   5.189
    1   AR   Ar   81   1.743   1.579   0.440
    1   AR   Ar   82   1.505   2.663   0.811
    1   AR   Ar   83   2.391   2.190   1.270
    1   AR   Ar   84   2.566   2.903  -0.060
    1   AR   Ar   85   1.595   2.253   2.040
    1   AR   Ar   86   1.785   2.902   2.777
    1   AR   Ar   87   2.581   1.365   2.131
    1   AR   Ar   88   2.516   2.762   2.065
    1   AR   Ar   89   1.742   1.785   3.357
    1   AR   Ar   90   2.145   3.028   4.692
    1   AR   Ar   91   2.597   1.762   4.315
    1   AR   Ar   92   2.522   2.438   3.449
    1   AR   Ar   93   1.750   1.922   5.281
    1   AR   Ar   94   2.364   2.921   6.325
    1   AR   Ar   95   2.629   1.894   6.070
    1   AR   Ar   96   2.785   2.451   5.258
    1   AR   Ar   97   1.654   3.852   0.088
    1   AR   Ar   98   2.031   4.189   1.046
    1   AR   Ar   99   2.735   3.255   1.037
    1   AR   Ar  100   2.767   4.720  -0.080
    1   AR   Ar  101   1.660   3.229   1.714
    1   AR   Ar  102   1.699   4.578   3.044
    1   AR   Ar  103   2.388   3.720   2.696
    1   AR   Ar  104   2.873   4.613   1.512
    1   AR   Ar  105   1.834   3.483   3.722
    1   AR   Ar  106   1.826   4.420   4.075
    1   AR   Ar  107   2.904   4.022   4.274
    1   AR   Ar  108   2.629   4.697   3.455
    1   AR   Ar  109   1.486   3.961   4.960
    1   AR   Ar  110   2.000   4.415   5.865
    1   AR   Ar  111   2.953   4.101   6.350
    1   AR   Ar  112   2.777   4.876   5.513
    1   AR   Ar  113   1.817   5.367   0.250
    1   AR   Ar  114   1.670   6.039   1.196
    1   AR   Ar  115   2.684   5.564   1.068
    1   AR   Ar  116   2.831   6.585  -0.466
    1   AR   Ar  117   1.630   5.163   1.691
    1   AR   Ar  118   1.982   5.995   2.555
    1   AR   Ar  119   2.744   5.296   2.436
    1   AR   Ar  120   2.593   6.586   1.602
    1   AR   Ar  121   1.791   5.509   3.715
    1   AR   Ar  122   1.798   6.162   4.607
    1   AR   Ar  123   2.788   5.446   4.497
    1   AR   Ar  124   2.396   6.247   3.643
    1   AR   Ar  125   1.863   5.018   5.065
    1   AR   Ar  126   1.791   6.697   6.268
    1   AR   Ar  127   2.628   5.718   6.659
    1   AR   Ar  128   2.470   5.994   5.713
    1   AR   Ar  129   3.327   6.910   0.574
    1   AR   Ar  130   4.117   0.836   0.880
    1   AR   Ar  131   4.389   6.983   1.236
    1   AR   Ar  132   4.482   1.315  -0.648
    1   AR   Ar  133   3.279   0.062   2.211
    1   AR   Ar  134   3.664   1.154   2.847
    1   AR   Ar  135   4.389   0.185   2.976
    1   AR   Ar  136   4.309   0.682   2.004
    1   AR   Ar  137   2.979   0.019   3.326
    1   AR   Ar  138   3.448   0.559   4.236
    1   AR   Ar  139   4.377   0.221   4.483
    1   AR   Ar  140   4.453   0.975   3.613
    1   AR   Ar  141   3.377   7.081   5.162
    1   AR   Ar  142   3.407   0.816   6.114
    1   AR   Ar  143   4.443   0.062   6.439
    1   AR   Ar  144   4.168   0.745   5.253
    1   AR   Ar  145   3.522   1.526  -0.113
    1   AR   Ar  146   3.576   2.607   0.927
    1   AR   Ar  147   4.248   1.892   0.778
    1   AR   Ar  148   5.211   2.592   0.126
    1   AR   Ar  149   3.742   1.741   1.721
    1   AR   Ar  150   3.272   2.343   2.558
    1   AR   Ar  151   4.442   2.113   2.924
    1   AR   Ar  152   4.244   2.954   1.783
    1   AR   Ar  153   3.362   1.862   3.668
    1   AR   Ar  154   3.251   2.868   4.423
    1   AR   Ar  155   4.432   1.847   4.273
    1   AR   Ar  156   4.655   2.848   3.927
    1   AR   Ar  157   3.923   1.920   5.187
    1   AR   Ar  158   3.462   3.016   6.359
    1   AR   Ar  159   4.407   1.383   6.185
    1   AR   Ar  160   3.952   3.067   5.218
    1   AR   Ar  161   3.383   3.502   0.174
    1   AR   Ar  162   3.715   4.570   0.837
    1   AR   Ar  163   4.410   3.809   1.008
    1   AR   Ar  164   4.863   4.635   0.375
    1   AR   Ar  165   3.517   3.726   1.565
    1   AR   Ar  166   3.241   4.326   2.494
    1   AR   Ar  167   4.006   3.172   2.964
    1   AR   Ar  168   4.433   4.509   1.885
    1   AR   Ar  169   3.007   3.289   3.387
    1   AR   Ar  170   3.728   4.723   4.304
    1   AR   Ar  171   3.877   3.678   4.126
    1   AR   Ar  172   4.531   4.392   3.578
    1   AR   Ar  173   3.080   3.740   5.430
    1   AR   Ar  174   3.694   4.913   5.979
    1   AR   Ar  175   4.180   3.813   6.130
    1   AR   Ar  176   4.434   4.821   5.153
    1   AR   Ar  177   3.465   5.740   0.378
    1   AR   Ar  178   3.613   6.105   1.511
    1   AR   Ar  179   4.474   5.520   1.135
    1   AR   Ar  180   4.654   6.388   0.134
    1   AR   Ar  181   3.665   5.201   2.137
    1   AR   Ar  182   3.243   6.185   2.674
    1   AR   Ar  183   4.652   5.390   3.006
    1   AR   Ar  184   4.499   6.218   2.240
    1   AR   Ar  185   3.567   5.422   3.599
    1   AR   Ar  186   3.248   6.441   4.367
    1   AR   Ar  187   4.420   5.517   4.336
    1   AR   Ar  188   4.349   6.280   3.604
    1   AR   Ar  189   3.605   5.660   4.978
    1   AR   Ar  190   3.554   6.264   5.921
    1   AR   Ar  191   4.460   5.834   5.654
    1   AR   Ar  192   4.394   6.767   5.502
    1   AR   Ar  193   4.933   0.531   0.323
    1   AR   Ar  194   4.870   1.282   1.494
    1   AR   Ar  195   5.970   0.219   1.243
    1   AR   Ar  196   5.672   1.196   0.600
    1   AR   Ar  197   5.111   0.007   1.997
    1   AR   Ar  198   5.386   0.845   2.790
    1   AR   Ar  199   6.075   0.331   2.292
    1   AR   Ar  200   5.968   1.271   1.806
    1   AR   Ar  201   5.260   0.141   3.814
    1   AR   Ar  202   5.083   0.965   4.561
    1   AR   Ar  203   6.356   0.228   4.427
    1   AR   Ar  204   6.238   0.523   3.390
    1   AR   Ar  205   5.463   0.167   5.275
    1   AR   Ar  206   5.446   0.617   6.443
    1   AR   Ar  207   6.147   6.972   5.853
    1   AR   Ar  208   6.108   1.029   5.104
    1   AR   Ar  209   5.842   2.013  -0.336
    1   AR   Ar  210   5.465   2.063   1.076
    1   AR   Ar  211   6.495   1.849   0.593
    1   AR   Ar  212   6.383   3.019   0.211
    1   AR   Ar  213   5.072   1.829   2.212
    1   AR   Ar  214   5.506   2.873   2.475
    1   AR   Ar  215   6.406   1.456   2.720
    1   AR   Ar  216   6.569   2.987   1.329
    1   AR   Ar  217   5.239   1.631   3.622
    1   AR   Ar  218   5.853   2.782   4.507
    1   AR   Ar  219   6.288   1.776   3.973
    1   AR   Ar  220   5.899   2.509   3.413
    1   AR   Ar  221   5.490   2.083   5.117
    1   AR   Ar  222   4.862   2.688   5.960
    1   AR   Ar  223   6.296   2.004   6.246
    1   AR   Ar  224   6.452   2.870   5.456
    1   AR   Ar  225   5.556   3.713  -0.143
    1   AR   Ar  226   5.402   4.399   1.468
    1   AR   Ar  227   6.093   3.897   0.798
    1   AR   Ar  228   5.819   4.723  -0.024
    1   AR   Ar  229   5.253   3.293   1.549
    1   AR   Ar  230   4.992   4.268   2.670
    1   AR   Ar  231   6.277   3.396   2.905
    1   AR   Ar  232   6.073   3.764   1.892
    1   AR   Ar  233   5.431   3.446   3.528
    1   AR   Ar  234   5.736   4.288   4.171
    1   AR   Ar  235   6.683   3.494   4.446
    1   AR   Ar  236   6.704   4.411   3.631
    1   AR   Ar  237   5.501   3.438   5.306
    1   AR   Ar  238   5.138   4.402   5.879
    1   AR   Ar  239   5.984   3.825   6.245
    1   AR   Ar  240   6.211   4.245   5.165
    1   AR   Ar  241   5.335   5.617   0.465
    1   AR   Ar  242   5.331   6.255   1.345
    1   AR   Ar  243   6.234   5.013   1.380
    1   AR   Ar  244   6.270   6.345   0.481
    1   AR   Ar  245   5.396   5.186   2.171
    1   AR   Ar  246   5.269   6.608   2.886
    1   AR   Ar  247   6.168   4.461   2.761
    1   AR   Ar  248   6.177   6.368   1.749
    1   AR   Ar  249   6.007   5.493   3.230
    1   AR   Ar  250   4.897   6.345   4.539
    1   AR   Ar  251   6.374   5.117   4.423
    1   AR   Ar  252   5.934   6.340   3.833
    1   AR   Ar  253   5.341   5.302   4.997
    1   AR   Ar  254   5.451   6.009   6.058
    1   AR   Ar  255   6.122   5.234   5.906
    1   AR   Ar  256   5.965   6.147   4.960
    7.12000  7.12000 12.00000
Argon-slab step 190
  256
    1   AR   Ar    1   0.187   6.739   0.288
    1   AR   Ar    2   7.115   0.604   0.765
    1   AR   Ar    3   0.725   6.642   1.153
    1   AR   Ar    4   1.081   0.542   0.313
    1   AR   Ar    5   7.030   0.088   1.727
    1   AR   Ar    6   0.182   0.869   2.724
    1   AR   Ar    7   1.239   6.653   2.583
    1   AR   Ar    8   0.909   0.921   1.819
    1   AR   Ar    9   0.064   0.029   3.659
    1   AR   Ar   10   6.946   1.123   4.076
    1   AR   Ar   11   0.911   0.043   4.324
    1   AR   Ar   12   0.960   0.690   3.335
    1   AR   Ar   13   7.013   0.572   5.281
    1   AR   Ar   14   0.510   1.396   5.741
    1   AR   Ar   15   0.908   0.003   7.103
    1   AR   Ar   16   1.179   0.699   5.317
    1   AR   Ar   17   0.415   1.473  -0.363
    1   AR   Ar   18   0.460   2.804   0.627
    1   AR   Ar   19   0.824   1.601   0.875
    1   AR   Ar   20   1.225   2.446  -0.203
    1   AR   Ar   21   7.061   1.389   1.872
    1   AR   Ar   22   6.987   2.706   2.566
    1   AR   Ar   23   0.861   1.688   2.697
    1   AR   Ar   24   0.691   2.808   1.637
    1   AR   Ar   25   0.480   1.832   3.640
    1   AR   Ar   26   6.939   2.403   4.288
    1   AR   Ar   27   0.764   1.866   4.776
    1   AR   Ar   28   1.312   2.516   3.943
    1   AR   Ar   29   6.702   1.830   5.261
    1   AR   Ar   30   0.494   2.445   6.297
    1   AR   Ar   31   1.129   1.601   6.494
    1   AR   Ar   32   1.198   2.863   5.269
    1   AR   Ar   33   0.329   3.713  -0.111
    1   AR   Ar   34   7.110   4.452   1.014
    1   AR   Ar   35   0.851   3.678   1.026
    1   AR   Ar   36   1.057   4.885  -0.342
    1   AR   Ar   37   0.036   3.749   1.937
    1   AR   Ar   38   0.170   4.849   2.827
    1   AR   Ar   39   0.831   3.466   2.629
    1   AR   Ar   40   0.974   4.385   1.799
    1   AR   Ar   41   0.268   2.978   3.546
    1   AR   Ar   42   0.142   4.469   4.640
    1   AR   Ar   43   0.618   3.487   4.493
    1   AR   Ar   44   0.888   3.958   3.508
    1   AR   Ar   45   0.065   3.777   5.382
    1   AR   Ar   46   0.149   5.059   6.367
    1   AR   Ar   47   1.016   3.596   6.324
    1   AR   Ar   48   0.914   4.692   5.443
    1   AR   Ar   49   7.075   4.736  -0.037
    1   AR   Ar   50   0.020   5.632   1.073
    1   AR   Ar   51   1.005   4.837   0.752
    1   AR   Ar   52   0.826   5.812   0.282
    1   AR   Ar   53   6.683   5.380   2.215
    1   AR   Ar   54   6.812   6.769   2.681
    1   AR   Ar   55   1.157   5.446   2.843
    1   AR   Ar   56   0.768   5.877   1.953
    1   AR   Ar   57   0.481   5.336   3.709
    1   AR   Ar   58   7.042   6.462   4.578
    1   AR   Ar   59   0.794   5.530   4.748
    1   AR   Ar   60   0.923   6.247   3.944
    1   AR   Ar   61   6.987   5.286   5.188
    1   AR   Ar   62   0.432   6.014   6.112
    1   AR   Ar   63   1.465   5.506   6.018
    1   AR   Ar   64   0.880   6.445   5.281
    1   AR   Ar   65   1.470   6.552  -0.073
    1   AR   Ar   66   1.879   1.118   1.439
    1   AR   Ar   67   2.385   6.442   0.546
    1   AR   Ar   68   2.610   1.081   0.452
    1   AR   Ar   69   1.694   7.096   1.628
    1   AR   Ar   70   1.683   0.837   2.647
    1   AR   Ar   71   2.201   6.999   2.600
    1   AR   Ar   72   2.730   0.423   1.427
    1   AR   Ar   73   1.645   7.074   3.503
    1   AR   Ar   74   1.746   1.338   4.229
    1   AR   Ar   75   2.431   0.037   4.323
    1   AR   Ar   76   2.513   0.934   3.402
    1   AR   Ar   77   2.019   7.056   5.248
    1   AR   Ar   78   2.147   0.914   5.884
    1   AR   Ar   79   2.732   7.112   6.135
    1   AR   Ar   80   2.958   1.124   5.191
    1   AR   Ar   81   1.772   1.593   0.456
    1   AR   Ar   82   1.502   2.651   0.795
    1   AR   Ar   83   2.388   2.174   1.275
    1   AR   Ar   84   2.571   2.925  -0.079
    1   AR   Ar   85   1.607   2.214   2.048
    1   AR   Ar   86   1.749   2.937   2.759
    1   AR   Ar   87   2.599   1.344   2.105
    1   AR   Ar   88   2.510   2.763   2.037
    1   AR   Ar   89   1.740   1.759   3.321
    1   AR   Ar   90   2.170   3.031   4.712
    1   AR   Ar   91   2.594   1.805   4.314
    1   AR   Ar   92   2.519   2.434   3.458
    1   AR   Ar   93   1.770   1.915   5.254
    1   AR   Ar   94   2.369   2.915   6.332
    1   AR   Ar   95   2.638   1.900   6.058
    1   AR   Ar   96   2.795   2.462   5.258
    1   AR   Ar   97   1.666   3.861   0.127
    1   AR   Ar   98   2.020   4.185   1.032
    1   AR   Ar   99   2.749   3.245   1.076
    1   AR   Ar  100   2.765   4.742  -0.059
    1   AR   Ar  101   1.660   3.222   1.699
    1   AR   Ar  102   1.699   4.601   3.037
    1   AR   Ar  103   2.362   3.779   2.672
    1   AR   Ar  104   2.895   4.625   1.499
    1   AR   Ar  105   1.837   3.443   3.723
    1   AR   Ar  106   1.806   4.443   4.059
    1   AR   Ar  107   2.905   4.035   4.295
    1   AR   Ar  108   2.636   4.705   3.437
    1   AR   Ar  109   1.465   3.964   4.935
    1   AR   Ar  110   1.963   4.411   5.861
    1   AR   Ar  111   2.986   4.125   6.360
    1   AR   Ar  112   2.793   4.905   5.542
    1   AR   Ar  113   1.823   5.365   0.269
    1   AR   Ar  114   1.661   6.008   1.200
    1   AR   Ar  115   2.696   5.572   1.086
    1   AR   Ar  116   2.845   6.619  -0.478
    1   AR   Ar  117   1.647   5.137   1.664
    1   AR   Ar  118   1.994   5.999   2.569
    1   AR   Ar  119   2.739   5.325   2.435
    1   AR   Ar  120   2.597   6.587   1.570
    1   AR   Ar  121   1.781   5.506   3.743
    1   AR   Ar  122   1.826   6.136   4.624
    1   AR   Ar  123   2.764   5.463   4.485
    1   AR   Ar  124   2.380   6.255   3.636
    1   AR   Ar  125   1.850   5.017   5.048
    1   AR   Ar  126   1.777   6.712   6.255
    1   AR   Ar  127   2.611   5.733   6.636
    1   AR   Ar  128   2.447   5.995   5.733
    1   AR   Ar  129   3.335   6.907   0.611
    1   AR   Ar  130   4.093   0.823   0.877
    1   AR   Ar  131   4.404   6.963   1.201
    1   AR   Ar  132   4.472   1.326  -0.656
    1   AR   Ar  133   3.281   0.062   2.236
    1   AR   Ar  134   3.667   1.134   2.849
    1   AR   Ar  135   4.382   0.207   2.966
    1   AR   Ar  136   4.283   0.647   1.990
    1   AR   Ar  137   2.975   7.120   3.320
    1   AR   Ar  138   3.434   0.535   4.238
    1   AR   Ar  139   4.415   0.195   4.518
    1   AR   Ar  140   4.466   0.987   3.677
    1   AR   Ar  141   3.370   7.074   5.154
    1   AR   Ar  142   3.372   0.819   6.111
    1   AR   Ar  143   4.404   0.066   6.451
    1   AR   Ar  144   4.171   0.767   5.281
    1   AR   Ar  145   3.523   1.516  -0.095
    1   AR   Ar  146   3.550   2.613   0.931
    1   AR   Ar  147   4.262   1.912   0.756
    1   AR   Ar  148   5.246   2.593   0.132
    1   AR   Ar  149   3.752   1.732   1.733
    1   AR   Ar  150   3.275   2.324   2.539
    1   AR   Ar  151   4.449   2.114   2.958
    1   AR   Ar  152   4.241   2.941   1.772
    1   AR   Ar  153   3.361   1.863   3.607
    1   AR   Ar  154   3.218   2.861   4.412
    1   AR   Ar  155   4.421   1.833   4.287
    1   AR   Ar  156   4.660   2.873   3.931
    1   AR   Ar  157   3.896   1.927   5.168
    1   AR   Ar  158   3.462   3.052   6.351
    1   AR   Ar  159   4.405   1.363   6.178
    1   AR   Ar  160   3.962   3.090   5.253
    1   AR   Ar  161   3.400   3.513   0.186
    1   AR   Ar  162   3.734   4.577   0.833
    1   AR   Ar  163   4.374   3.807   1.012
    1   AR   Ar  164   4.867   4.651   0.387
    1   AR   Ar  165   3.515   3.705   1.586
    1   AR   Ar  166   3.270   4.361   2.510
    1   AR   Ar  167   3.990   3.155   2.964
    1   AR   Ar  168   4.424   4.509   1.847
    1   AR   Ar  169   3.022   3.263   3.359
    1   AR   Ar  170   3.709   4.721   4.311
    1   AR   Ar  171   3.865   3.665   4.150
    1   AR   Ar  172   4.548   4.363   3.576
    1   AR   Ar  173   3.046   3.730   5.412
    1   AR   Ar  174   3.707   4.937   5.987
    1   AR   Ar  175   4.165   3.833   6.098
    1   AR   Ar  176   4.428   4.801   5.146
    1   AR   Ar  177   3.490   5.731   0.342
    1   AR   Ar  178   3.627   6.112   1.510
    1   AR   Ar  179   4.453   5.503   1.136
    1   AR   Ar  180   4.661   6.410   0.118
    1   AR   Ar  181   3.676   5.220   2.143
    1   AR   Ar  182   3.217   6.183   2.686
    1   AR   Ar  183   4.597   5.395   3.043
    1   AR   Ar  184   4.493   6.219   2.238
    1   AR   Ar  185   3.582   5.417   3.577
    1   AR   Ar  186   3.239   6.436   4.354
    1   AR   Ar  187   4.402   5.504   4.334
    1   AR   Ar  188   4.336   6.224   3.570
    1   AR   Ar  189   3.611   5.648   4.972
    1   AR   Ar  190   3.542   6.261   5.927
    1   AR   Ar  191   4.432   5.825   5.649
    1   AR   Ar  192   4.385   6.798   5.516
    1   AR   Ar  193   4.942   0.531   0.330
    1   AR   Ar  194   4.868   1.263   1.506
    1   AR   Ar  195   5.965   0.206   1.193
    1   AR   Ar  196   5.667   1.230   0.606
    1   AR   Ar  197   5.100   0.024   1.996
    1   AR   Ar  198   5.375   0.883   2.797
    1   AR   Ar  199   6.066   0.322   2.285
    1   AR   Ar  200   5.957   1.269   1.788
    1   AR   Ar  201   5.287   0.155   3.800
    1   AR   Ar  202   5.069   0.981   4.571
    1   AR   Ar  203   6.356   0.236   4.403
    1   AR   Ar  204   6.248   0.503   3.393
    1   AR   Ar  205   5.411   0.183   5.263
    1   AR   Ar  206   5.438   0.606   6.422
    1   AR   Ar  207   6.147   6.960   5.849
    1   AR   Ar  208   6.087   1.011   5.113
    1   AR   Ar  209   5.837   2.043  -0.362
    1   AR   Ar  210   5.473   2.070   1.111
    1   AR   Ar  211   6.504   1.840   0.579
    1   AR   Ar  212   6.383   3.011   0.210
    1   AR   Ar  213   5.082   1.837   2.251
    1   AR   Ar  214   5.511   2.855   2.469
    1   AR   Ar  215   6.395   1.451   2.710
    1   AR   Ar  216   6.573   2.982   1.325
    1   AR   Ar  217   5.230   1.632   3.643
    1   AR   Ar  218   5.890   2.773   4.510
    1   AR   Ar  219   6.250   1.804   3.965
    1   AR   Ar  220   5.846   2.511   3.374
    1   AR   Ar  221   5.475   2.098   5.138
    1   AR   Ar  222   4.848   2.670   5.969
    1   AR   Ar  223   6.298   2.025   6.254
    1   AR   Ar  224   6.442   2.864   5.461
    1   AR   Ar  225   5.558   3.688  -0.113
    1   AR   Ar  226   5.419   4.383   1.486
    1   AR   Ar  227   6.125   3.908   0.785
    1   AR   Ar  228   5.804   4.710  -0.051
    1   AR   Ar  229   5.212   3.289   1.528
    1   AR   Ar  230   5.012   4.264   2.672
    1   AR   Ar  231   6.292   3.388   2.915
    1   AR   Ar  232   6.068   3.773   1.914
    1   AR   Ar  233   5.419   3.463   3.552
    1   AR   Ar  234   5.750   4.288   4.147
    1   AR   Ar  235   6.691   3.487   4.455
    1   AR   Ar  236   6.740   4.408   3.662
    1   AR   Ar  237   5.482   3.432   5.284
    1   AR   Ar  238   5.132   4.413   5.872
    1   AR   Ar  239   6.019   3.863   6.259
    1   AR   Ar  240   6.186   4.222   5.152
    1   AR   Ar  241   5.334   5.634   0.468
    1   AR   Ar  242   5.344   6.250   1.366
    1   AR   Ar  243   6.194   4.971   1.389
    1   AR   Ar  244   6.247   6.362   0.487
    1   AR   Ar  245   5.383   5.182   2.173
    1   AR   Ar  246   5.299   6.569   2.896
    1   AR   Ar  247   6.159   4.454   2.740
    1   AR   Ar  248   6.208   6.393   1.786
    1   AR   Ar  249   6.009   5.461   3.222
    1   AR   Ar  250   4.865   6.362   4.561
    1   AR   Ar  251   6.401   5.088   4.410
    1   AR   Ar  252   5.950   6.322   3.845
    1   AR   Ar  253   5.320   5.306   4.968
    1   AR   Ar  254   5.458   5.983   6.067
    1   AR   Ar  255   6.124   5.243   5.879
    1   AR   Ar  256   5.952   6.167   4.947
    7.12000  7.12000 12.00000
Argon-slab step 195
  256
    1   AR   Ar    1   0.191   6.775   0.226
    1   AR   Ar    2   0.001   0.582   0.777
    1   AR   Ar    3   0.714   6.634   1.156
    1   AR   Ar    4   1.081   0.584   0.299
    1   AR   Ar    5   7.010   0.087   1.726
    1   AR   Ar    6   0.205   0.869   2.731
    1   AR   Ar    7   1.220   6.647   2.607
    1   AR   Ar    8   0.929   0.938   1.811
    1   AR   Ar    9   0.082   0.030   3.692
    1   AR   Ar   10   6.921   1.134   4.075
    1   AR   Ar   11   0.918   0.059   4.314
    1   AR   Ar   12   0.955   0.669   3.357
    1   AR   Ar   13   6.993   0.536   5.304
    1   AR   Ar   14   0.522   1.430   5.743
    1   AR   Ar   15   0.908   7.114   7.122
    1   AR   Ar   16   1.183   0.690   5.296
    1   AR   Ar   17   0.406   1.454  -0.344
    1   AR   Ar   18   0.441   2.785   0.647
    1   AR   Ar   19   0.823   1.592   0.883
    1   AR   Ar   20   1.245   2.437  -0.232
    1   AR   Ar   21   7.070   1.387   1.869
    1   AR   Ar   22   6.984   2.697   2.556
    1   AR   Ar   23   0.856   1.684   2.690
    1   AR   Ar   24   0.682   2.785   1.678
    1   AR   Ar   25   0.522   1.856   3.646
    1   AR   Ar   26   6.916   2.399   4.301
    1   AR   Ar   27   0.761   1.861   4.774
    1   AR   Ar   28   1.336   2.519   3.958
    1   AR   Ar   29   6.713   1.847   5.236
    1   AR   Ar   30   0.490   2.423   6.288
    1   AR   Ar   31   1.158   1.615   6.526
    1   AR   Ar   32   1.193   2.849   5.270
    1   AR   Ar   33   0.343   3.733  -0.113
    1   AR   Ar   34   7.112   4.457   0.998
    1   AR   Ar   35   0.836   3.661   1.047
    1   AR   Ar   36   1.052   4.913  -0.355
    1   AR   Ar   37   0.015   3.742   1.931
    1   AR   Ar   38   0.181   4.855   2.844
    1   AR   Ar   39   0.859   3.465   2.641
    1   AR   Ar   40   1.013   4.399   1.783
    1   AR   Ar   41   0.272   2.967   3.572
    1   AR   Ar   42   0.102   4.462   4.631
    1   AR   Ar   43   0.598   3.478   4.506
    1   AR   Ar   44   0.900   3.959   3.536
    1   AR   Ar   45   0.047   3.763   5.417
    1   AR   Ar   46   0.165   5.051   6.385
    1   AR   Ar   47   1.023   3.576   6.323
    1   AR   Ar   48   0.905   4.674   5.459
    1   AR   Ar   49   7.079   4.738   0.010
    1   AR   Ar   50   0.017   5.603   1.052
    1   AR   Ar   51   1.023   4.824   0.765
    1   AR   Ar   52   0.804   5.774   0.321
    1   AR   Ar   53   6.739   5.371   2.213
    1   AR   Ar   54   6.825   6.759   2.693
    1   AR   Ar   55   1.148   5.439   2.793
    1   AR   Ar   56   0.770   5.837   1.963
    1   AR   Ar   57   0.472   5.339   3.700
    1   AR   Ar   58   7.012   6.418   4.537
    1   AR   Ar   59   0.803   5.542   4.790
    1   AR   Ar   60   0.918   6.227   3.942
    1   AR   Ar   61   6.990   5.320   5.219
    1   AR   Ar   62   0.417   6.022   6.127
    1   AR   Ar   63   1.492   5.483   6.000
    1   AR   Ar   64   0.889   6.447   5.261
    1   AR   Ar   65   1.469   6.562  -0.087
    1   AR   Ar   66   1.881   1.083   1.489
    1   AR   Ar   67   2.375   6.432   0.539
    1   AR   Ar   68   2.637   1.089   0.489
    1   AR   Ar   69   1.712   7.108   1.592
    1   AR   Ar   70   1.698   0.830   2.632
    1   AR   Ar   71   2.206   6.988   2.591
    1   AR   Ar   72   2.696   0.401   1.433
    1   AR   Ar   73   1.651   7.070   3.511
    1   AR   Ar   74   1.702   1.346   4.203
    1   AR   Ar   75   2.429   0.019   4.302
    1   AR   Ar   76   2.498   0.953   3.392
    1   AR   Ar   77   2.010   7.033   5.236
    1   AR   Ar   78   2.149   0.927   5.881
    1   AR   Ar   79   2.745   7.115   6.172
    1   AR   Ar   80   2.917   1.136   5.188
    1   AR   Ar   81   1.794   1.614   0.471
    1   AR   Ar   82   1.497   2.651   0.785
    1   AR   Ar   83   2.384   2.148   1.267
    1   AR   Ar   84   2.572   2.947  -0.096
    1   AR   Ar   85   1.616   2.167   2.052
    1   AR   Ar   86   1.713   2.971   2.750
    1   AR   Ar   87   2.630   1.343   2.144
    1   AR   Ar   88   2.511   2.774   2.018
    1   AR   Ar   89   1.736   1.733   3.276
    1   AR   Ar   90   2.184   3.040   4.723
    1   AR   Ar   91   2.576   1.788   4.332
    1   AR   Ar   92   2.484   2.431   3.477
    1   AR   Ar   93   1.792   1.907   5.227
    1   AR   Ar   94   2.373   2.910   6.336
    1   AR   Ar   95   2.646   1.898   6.053
    1   AR   Ar   96   2.810   2.473   5.258
    1   AR   Ar   97   1.674   3.869   0.162
    1   AR   Ar   98   2.009   4.183   1.025
    1   AR   Ar   99   2.729   3.247   1.077
    1   AR   Ar  100   2.764   4.763  -0.035
    1   AR   Ar  101   1.659   3.223   1.681
    1   AR   Ar  102   1.696   4.620   3.025
    1   AR   Ar  103   2.337   3.841   2.647
    1   AR   Ar  104   2.916   4.635   1.489
    1   AR   Ar  105   1.844   3.401   3.723
    1   AR   Ar  106   1.785   4.468   4.048
    1   AR   Ar  107   2.899   4.046   4.318
    1   AR   Ar  108   2.651   4.716   3.419
    1   AR   Ar  109   1.446   3.962   4.912
    1   AR   Ar  110   1.960   4.406   5.865
    1   AR   Ar  111   3.020   4.151   6.373
    1   AR   Ar  112   2.812   4.938   5.566
    1   AR   Ar  113   1.833   5.365   0.290
    1   AR   Ar  114   1.650   5.987   1.201
    1   AR   Ar  115   2.707   5.580   1.105
    1   AR   Ar  116   2.858   6.653  -0.488
    1   AR   Ar  117   1.670   5.106   1.642
    1   AR   Ar  118   2.011   5.998   2.584
    1   AR   Ar  119   2.724   5.344   2.434
    1   AR   Ar  120   2.602   6.571   1.543
    1   AR   Ar  121   1.761   5.489   3.772
    1   AR   Ar  122   1.854   6.111   4.644
    1   AR   Ar  123   2.734   5.473   4.462
    1   AR   Ar  124   2.381   6.270   3.623
    1   AR   Ar  125   1.836   5.023   5.022
    1   AR   Ar  126   1.757   6.725   6.243
    1   AR   Ar  127   2.598   5.743   6.630
    1   AR   Ar  128   2.422   6.002   5.730
    1   AR   Ar  129   3.346   6.904   0.650
    1   AR   Ar  130   4.065   0.812   0.875
    1   AR   Ar  131   4.417   6.961   1.216
    1   AR   Ar  132   4.463   1.338  -0.662
    1   AR   Ar  133   3.282   0.063   2.271
    1   AR   Ar  134   3.670   1.114   2.849
    1   AR   Ar  135   4.377   0.224   2.954
    1   AR   Ar  136   4.243   0.608   1.982
    1   AR   Ar  137   2.975   7.098   3.316
    1   AR   Ar  138   3.419   0.514   4.237
    1   AR   Ar  139   4.453   0.159   4.543
    1   AR   Ar  140   4.472   0.993   3.738
    1   AR   Ar  141   3.363   7.071   5.151
    1   AR   Ar  142   3.340   0.824   6.109
    1   AR   Ar  143   4.365   0.075   6.468
    1   AR   Ar  144   4.169   0.795   5.318
    1   AR   Ar  145   3.523   1.506  -0.073
    1   AR   Ar  146   3.522   2.622   0.937
    1   AR   Ar  147   4.284   1.928   0.733
    1   AR   Ar  148   5.268   2.608   0.152
    1   AR   Ar  149   3.764   1.723   1.745
    1   AR   Ar  150   3.294   2.336   2.564
    1   AR   Ar  151   4.448   2.117   3.002
    1   AR   Ar  152   4.236   2.915   1.762
    1   AR   Ar  153   3.367   1.862   3.545
    1   AR   Ar  154   3.186   2.853   4.396
    1   AR   Ar  155   4.412   1.857   4.290
    1   AR   Ar  156   4.661   2.895   3.935
    1   AR   Ar  157   3.864   1.933   5.154
    1   AR   Ar  158   3.462   3.088   6.340
    1   AR   Ar  159   4.403   1.343   6.170
    1   AR   Ar  160   3.972   3.113   5.287
    1   AR   Ar  161   3.420   3.527   0.202
    1   AR   Ar  162   3.751   4.589   0.827
    1   AR   Ar  163   4.372   3.804   1.012
    1   AR   Ar  164   4.870   4.677   0.411
    1   AR   Ar  165   3.524   3.694   1.598
    1   AR   Ar  166   3.300   4.391   2.529
    1   AR   Ar  167   3.977   3.138   2.962
    1   AR   Ar  168   4.412   4.511   1.807
    1   AR   Ar  169   3.042   3.250   3.333
    1   AR   Ar  170   3.689   4.716   4.322
    1   AR   Ar  171   3.857   3.649   4.172
    1   AR   Ar  172   4.562   4.334   3.580
    1   AR   Ar  173   3.012   3.717   5.388
    1   AR   Ar  174   3.731   4.961   6.004
    1   AR   Ar  175   4.200   3.816   6.087
    1   AR   Ar  176   4.417   4.778   5.140
    1   AR   Ar  177   3.516   5.722   0.307
    1   AR   Ar  178   3.639   6.121   1.508
    1   AR   Ar  179   4.432   5.485   1.138
    1   AR   Ar  180   4.666   6.432   0.105
    1   AR   Ar  181   3.701   5.244   2.145
    1   AR   Ar  182   3.193   6.187   2.700
    1   AR   Ar  183   4.545   5.393   3.075
    1   AR   Ar  184   4.485   6.220   2.235
    1   AR   Ar  185   3.587   5.423   3.564
    1   AR   Ar  186   3.232   6.429   4.336
    1   AR   Ar  187   4.387   5.485   4.327
    1   AR   Ar  188   4.321   6.180   3.537
    1   AR   Ar  189   3.620   5.637   4.976
    1   AR   Ar  190   3.523   6.259   5.935
    1   AR   Ar  191   4.411   5.800   5.643
    1   AR   Ar  192   4.377   6.839   5.520
    1   AR   Ar  193   4.952   0.528   0.335
    1   AR   Ar  194   4.871   1.240   1.497
    1   AR   Ar  195   5.973   0.216   1.184
    1   AR   Ar  196   5.663   1.257   0.610
    1   AR   Ar  197   5.092   0.038   1.995
    1   AR   Ar  198   5.358   0.924   2.806
    1   AR   Ar  199   6.065   0.310   2.278
    1   AR   Ar  200   5.943   1.265   1.764
    1   AR   Ar  201   5.312   0.169   3.787
    1   AR   Ar  202   5.060   1.002   4.583
    1   AR   Ar  203   6.348   0.254   4.385
    1   AR   Ar  204   6.258   0.485   3.392
    1   AR   Ar  205   5.350   0.200   5.244
    1   AR   Ar  206   5.429   0.594   6.398
    1   AR   Ar  207   6.154   6.944   5.849
    1   AR   Ar  208   6.059   0.995   5.120
    1   AR   Ar  209   5.841   2.073  -0.404
    1   AR   Ar  210   5.479   2.087   1.151
    1   AR   Ar  211   6.517   1.835   0.566
    1   AR   Ar  212   6.384   3.000   0.209
    1   AR   Ar  213   5.103   1.853   2.296
    1   AR   Ar  214   5.511   2.837   2.458
    1   AR   Ar  215   6.392   1.452   2.725
    1   AR   Ar  216   6.579   2.976   1.321
    1   AR   Ar  217   5.230   1.637   3.661
    1   AR   Ar  218   5.929   2.766   4.505
    1   AR   Ar  219   6.221   1.809   3.952
    1   AR   Ar  220   5.792   2.513   3.336
    1   AR   Ar  221   5.459   2.107   5.164
    1   AR   Ar  222   4.834   2.653   5.975
    1   AR   Ar  223   6.299   2.048   6.261
    1   AR   Ar  224   6.433   2.861   5.465
    1   AR   Ar  225   5.562   3.675  -0.096
    1   AR   Ar  226   5.417   4.362   1.496
    1   AR   Ar  227   6.157   3.920   0.775
    1   AR   Ar  228   5.792   4.710  -0.065
    1   AR   Ar  229   5.172   3.285   1.504
    1   AR   Ar  230   5.038   4.257   2.671
    1   AR   Ar  231   6.311   3.385   2.929
    1   AR   Ar  232   6.074   3.778   1.943
    1   AR   Ar  233   5.408   3.484   3.573
    1   AR   Ar  234   5.763   4.288   4.123
    1   AR   Ar  235   6.695   3.482   4.462
    1   AR   Ar  236   6.778   4.402   3.692
    1   AR   Ar  237   5.447   3.421   5.282
    1   AR   Ar  238   5.128   4.425   5.864
    1   AR   Ar  239   6.054   3.902   6.270
    1   AR   Ar  240   6.163   4.203   5.139
    1   AR   Ar  241   5.344   5.645   0.471
    1   AR   Ar  242   5.341   6.243   1.380
    1   AR   Ar  243   6.163   4.937   1.393
    1   AR   Ar  244   6.224   6.379   0.496
    1   AR   Ar  245   5.393   5.156   2.169
    1   AR   Ar  246   5.331   6.530   2.909
    1   AR   Ar  247   6.148   4.450   2.717
    1   AR   Ar  248   6.253   6.420   1.831
    1   AR   Ar  249   6.011   5.426   3.212
    1   AR   Ar  250   4.839   6.384   4.586
    1   AR   Ar  251   6.421   5.063   4.390
    1   AR   Ar  252   5.966   6.307   3.860
    1   AR   Ar  253   5.304   5.319   4.938
    1   AR   Ar  254   5.460   5.963   6.075
    1   AR   Ar  255   6.130   5.244   5.850
    1   AR   Ar  256   5.940   6.190   4.936
    7.12000  7.12000 12.00000
Argon-slab step 200
  256
    1   AR   Ar    1   0.196   6.810   0.163
    1   AR   Ar    2   0.007   0.563   0.789
    1   AR   Ar    3   0.703   6.627   1.161
    1   AR   Ar    4   1.080   0.626   0.286
    1   AR   Ar    5   6.991   0.088   1.725
    1   AR   Ar    6   0.219   0.864   2.736
    1   AR   Ar    7   1.192   6.644   2.631
    1   AR   Ar    8   0.944   0.952   1.805
    1   AR   Ar    9   0.099   0.029   3.723
    1   AR   Ar   10   6.897   1.156   4.064
    1   AR   Ar   11   0.939   0.072   4.318
    1   AR   Ar   12   0.951   0.652   3.386
    1   AR   Ar   13   6.976   0.499   5.326
    1   AR   Ar   14   0.529   1.463   5.742
    1   AR   Ar   15   0.908   7.105   7.139
    1   AR   Ar   16   1.196   0.683   5.283
    1   AR   Ar   17   0.390   1.478  -0.331
    1   AR   Ar   18   0.417   2.762   0.662
    1   AR   Ar   19   0.820   1.584   0.891
    1   AR   Ar   20   1.263   2.427  -0.260
    1   AR   Ar   21   7.077   1.388   1.861
    1   AR   Ar   22   6.984   2.685   2.543
    1   AR   Ar   23   0.853   1.680   2.676
    1   AR   Ar   24   0.672   2.761   1.724
    1   AR   Ar   25   0.563   1.880   3.656
    1   AR   Ar   26   6.905   2.400   4.322
    1   AR   Ar   27   0.758   1.857   4.769
    1   AR   Ar   28   1.359   2.519   3.976
    1   AR   Ar   29   6.726   1.863   5.209
    1   AR   Ar   30   0.486   2.403   6.277
    1   AR   Ar   31   1.192   1.627   6.561
    1   AR   Ar   32   1.187   2.836   5.271
    1   AR   Ar   33   0.359   3.751  -0.112
    1   AR   Ar   34   7.116   4.460   0.989
    1   AR   Ar   35   0.813   3.662   1.061
    1   AR   Ar   36   1.038   4.928  -0.345
    1   AR   Ar   37   7.117   3.734   1.925
    1   AR   Ar   38   0.198   4.851   2.862
    1   AR   Ar   39   0.876   3.467   2.646
    1   AR   Ar   40   1.041   4.403   1.772
    1   AR   Ar   41   0.277   2.960   3.594
    1   AR   Ar   42   0.070   4.453   4.623
    1   AR   Ar   43   0.583   3.466   4.517
    1   AR   Ar   44   0.910   3.964   3.569
    1   AR   Ar   45   0.029   3.748   5.455
    1   AR   Ar   46   0.179   5.039   6.402
    1   AR   Ar   47   1.031   3.556   6.319
    1   AR   Ar   48   0.891   4.657   5.478
    1   AR   Ar   49   7.082   4.743   0.053
    1   AR   Ar   50   0.013   5.573   1.032
    1   AR   Ar   51   1.064   4.795   0.780
    1   AR   Ar   52   0.782   5.739   0.361
    1   AR   Ar   53   6.789   5.368   2.203
    1   AR   Ar   54   6.815   6.760   2.689
    1   AR   Ar   55   1.136   5.432   2.751
    1   AR   Ar   56   0.769   5.800   1.963
    1   AR   Ar   57   0.461   5.339   3.696
    1   AR   Ar   58   6.982   6.373   4.496
    1   AR   Ar   59   0.816   5.549   4.827
    1   AR   Ar   60   0.917   6.208   3.938
    1   AR   Ar   61   6.998   5.365   5.248
    1   AR   Ar   62   0.403   6.033   6.140
    1   AR   Ar   63   1.517   5.461   5.980
    1   AR   Ar   64   0.901   6.455   5.240
    1   AR   Ar   65   1.466   6.572  -0.098
    1   AR   Ar   66   1.883   1.051   1.533
    1   AR   Ar   67   2.363   6.422   0.527
    1   AR   Ar   68   2.672   1.092   0.528
    1   AR   Ar   69   1.724   7.120   1.558
    1   AR   Ar   70   1.715   0.823   2.614
    1   AR   Ar   71   2.217   6.985   2.579
    1   AR   Ar   72   2.667   0.397   1.435
    1   AR   Ar   73   1.663   7.063   3.521
    1   AR   Ar   74   1.646   1.346   4.183
    1   AR   Ar   75   2.422   0.005   4.287
    1   AR   Ar   76   2.484   0.973   3.383
    1   AR   Ar   77   2.000   7.009   5.227
    1   AR   Ar   78   2.149   0.938   5.879
    1   AR   Ar   79   2.757   7.113   6.207
    1   AR   Ar   80   2.879   1.148   5.180
    1   AR   Ar   81   1.808   1.641   0.484
    1   AR   Ar   82   1.492   2.659   0.780
    1   AR   Ar   83   2.380   2.114   1.250
    1   AR   Ar   84   2.570   2.967  -0.111
    1   AR   Ar   85   1.623   2.115   2.054
    1   AR   Ar   86   1.685   2.997   2.744
    1   AR   Ar   87   2.665   1.344   2.187
    1   AR   Ar   88   2.517   2.793   2.011
    1   AR   Ar   89   1.731   1.708   3.223
    1   AR   Ar   90   2.176   3.059   4.713
    1   AR   Ar   91   2.569   1.775   4.354
    1   AR   Ar   92   2.442   2.426   3.496
    1   AR   Ar   93   1.816   1.897   5.199
    1   AR   Ar   94   2.376   2.907   6.338
    1   AR   Ar   95   2.654   1.889   6.054
    1   AR   Ar   96   2.831   2.482   5.261
    1   AR   Ar   97   1.677   3.872   0.186
    1   AR   Ar   98   2.000   4.186   1.030
    1   AR   Ar   99   2.704   3.253   1.076
    1   AR   Ar  100   2.768   4.762  -0.015
    1   AR   Ar  101   1.655   3.231   1.663
    1   AR   Ar  102   1.692   4.635   3.008
    1   AR   Ar  103   2.319   3.892   2.625
    1   AR   Ar  104   2.936   4.642   1.483
    1   AR   Ar  105   1.853   3.364   3.723
    1   AR   Ar  106   1.767   4.480   4.042
    1   AR   Ar  107   2.883   4.054   4.340
    1   AR   Ar  108   2.671   4.728   3.403
    1   AR   Ar  109   1.431   3.958   4.890
    1   AR   Ar  110   1.954   4.397   5.872
    1   AR   Ar  111   3.053   4.177   6.387
    1   AR   Ar  112   2.829   4.974   5.584
    1   AR   Ar  113   1.846   5.366   0.312
    1   AR   Ar  114   1.637   5.976   1.198
    1   AR   Ar  115   2.718   5.588   1.123
    1   AR   Ar  116   2.872   6.687  -0.496
    1   AR   Ar  117   1.705   5.076   1.624
    1   AR   Ar  118   2.023   5.997   2.598
    1   AR   Ar  119   2.708   5.347   2.430
    1   AR   Ar  120   2.610   6.535   1.525
    1   AR   Ar  121   1.736   5.467   3.800
    1   AR   Ar  122   1.881   6.087   4.665
    1   AR   Ar  123   2.715   5.465   4.422
    1   AR   Ar  124   2.397   6.281   3.604
    1   AR   Ar  125   1.823   5.033   4.992
    1   AR   Ar  126   1.733   6.736   6.231
    1   AR   Ar  127   2.587   5.736   6.647
    1   AR   Ar  128   2.395   6.016   5.703
    1   AR   Ar  129   3.359   6.902   0.692
    1   AR   Ar  130   4.032   0.803   0.873
    1   AR   Ar  131   4.421   6.972   1.251
    1   AR   Ar  132   4.454   1.349  -0.667
    1   AR   Ar  133   3.285   0.064   2.305
    1   AR   Ar  134   3.673   1.092   2.848
    1   AR   Ar  135   4.373   0.239   2.945
    1   AR   Ar  136   4.193   0.570   1.976
    1   AR   Ar  137   2.979   7.078   3.315
    1   AR   Ar  138   3.404   0.494   4.235
    1   AR   Ar  139   4.483   0.133   4.561
    1   AR   Ar  140   4.469   0.987   3.782
    1   AR   Ar  141   3.353   7.062   5.160
    1   AR   Ar  142   3.313   0.833   6.107
    1   AR   Ar  143   4.325   0.087   6.490
    1   AR   Ar  144   4.164   0.825   5.353
    1   AR   Ar  145   3.524   1.496  -0.050
    1   AR   Ar  146   3.495   2.629   0.944
    1   AR   Ar  147   4.309   1.941   0.710
    1   AR   Ar  148   5.278   2.632   0.185
    1   AR   Ar  149   3.776   1.713   1.757
    1   AR   Ar  150   3.280   2.324   2.549
    1   AR   Ar  151   4.440   2.121   3.054
    1   AR   Ar  152   4.229   2.885   1.753
    1   AR   Ar  153   3.377   1.861   3.486
    1   AR   Ar  154   3.157   2.845   4.373
    1   AR   Ar  155   4.402   1.888   4.293
    1   AR   Ar  156   4.658   2.912   3.941
    1   AR   Ar  157   3.829   1.940   5.146
    1   AR   Ar  158   3.460   3.123   6.326
    1   AR   Ar  159   4.401   1.324   6.165
    1   AR   Ar  160   3.980   3.134   5.320
    1   AR   Ar  161   3.442   3.543   0.221
    1   AR   Ar  162   3.754   4.576   0.821
    1   AR   Ar  163   4.417   3.802   1.008
    1   AR   Ar  164   4.867   4.701   0.440
    1   AR   Ar  165   3.530   3.685   1.615
    1   AR   Ar  166   3.327   4.415   2.551
    1   AR   Ar  167   3.972   3.121   2.959
    1   AR   Ar  168   4.396   4.514   1.767
    1   AR   Ar  169   3.058   3.246   3.309
    1   AR   Ar  170   3.661   4.726   4.331
    1   AR   Ar  171   3.855   3.633   4.193
    1   AR   Ar  172   4.574   4.307   3.589
    1   AR   Ar  173   2.978   3.702   5.363
    1   AR   Ar  174   3.760   4.986   6.022
    1   AR   Ar  175   4.236   3.803   6.076
    1   AR   Ar  176   4.372   4.787   5.137
    1   AR   Ar  177   3.541   5.714   0.274
    1   AR   Ar  178   3.649   6.133   1.506
    1   AR   Ar  179   4.413   5.466   1.140
    1   AR   Ar  180   4.670   6.456   0.094
    1   AR   Ar  181   3.734   5.275   2.143
    1   AR   Ar  182   3.173   6.197   2.717
    1   AR   Ar  183   4.502   5.367   3.091
    1   AR   Ar  184   4.478   6.220   2.232
    1   AR   Ar  185   3.574   5.399   3.536
    1   AR   Ar  186   3.227   6.422   4.312
    1   AR   Ar  187   4.378   5.463   4.316
    1   AR   Ar  188   4.302   6.165   3.514
    1   AR   Ar  189   3.626   5.627   4.986
    1   AR   Ar  190   3.499   6.258   5.943
    1   AR   Ar  191   4.398   5.769   5.637
    1   AR   Ar  192   4.370   6.881   5.518
    1   AR   Ar  193   4.959   0.522   0.341
    1   AR   Ar  194   4.876   1.216   1.480
    1   AR   Ar  195   5.990   0.241   1.202
    1   AR   Ar  196   5.657   1.276   0.612
    1   AR   Ar  197   5.089   0.051   1.997
    1   AR   Ar  198   5.339   0.964   2.817
    1   AR   Ar  199   6.067   0.299   2.272
    1   AR   Ar  200   5.928   1.262   1.738
    1   AR   Ar  201   5.335   0.183   3.775
    1   AR   Ar  202   5.057   1.028   4.598
    1   AR   Ar  203   6.338   0.268   4.372
    1   AR   Ar  204   6.268   0.470   3.382
    1   AR   Ar  205   5.287   0.214   5.224
    1   AR   Ar  206   5.419   0.582   6.371
    1   AR   Ar  207   6.162   6.927   5.849
    1   AR   Ar  208   6.028   0.981   5.127
    1   AR   Ar  209   5.856   2.092  -0.454
    1   AR   Ar  210   5.484   2.113   1.195
    1   AR   Ar  211   6.534   1.840   0.550
    1   AR   Ar  212   6.385   2.988   0.208
    1   AR   Ar  213   5.132   1.870   2.337
    1   AR   Ar  214   5.494   2.837   2.435
    1   AR   Ar  215   6.364   1.449   2.734
    1   AR   Ar  216   6.585   2.970   1.318
    1   AR   Ar  217   5.235   1.646   3.675
    1   AR   Ar  218   5.964   2.761   4.495
    1   AR   Ar  219   6.217   1.785   3.931
    1   AR   Ar  220   5.741   2.512   3.308
    1   AR   Ar  221   5.442   2.113   5.192
    1   AR   Ar  222   4.818   2.637   5.980
    1   AR   Ar  223   6.300   2.070   6.266
    1   AR   Ar  224   6.424   2.860   5.469
    1   AR   Ar  225   5.568   3.681  -0.097
    1   AR   Ar  226   5.391   4.332   1.501
    1   AR   Ar  227   6.191   3.934   0.767
    1   AR   Ar  228   5.775   4.748  -0.027
    1   AR   Ar  229   5.138   3.280   1.479
    1   AR   Ar  230   5.068   4.248   2.667
    1   AR   Ar  231   6.330   3.386   2.947
    1   AR   Ar  232   6.085   3.774   1.972
    1   AR   Ar  233   5.399   3.507   3.589
    1   AR   Ar  234   5.774   4.288   4.100
    1   AR   Ar  235   6.695   3.480   4.467
    1   AR   Ar  236   6.817   4.391   3.715
    1   AR   Ar  237   5.410   3.408   5.282
    1   AR   Ar  238   5.125   4.437   5.855
    1   AR   Ar  239   6.089   3.940   6.279
    1   AR   Ar  240   6.143   4.186   5.128
    1   AR   Ar  241   5.390   5.643   0.479
    1   AR   Ar  242   5.333   6.237   1.393
    1   AR   Ar  243   6.150   4.915   1.393
    1   AR   Ar  244   6.201   6.396   0.507
    1   AR   Ar  245   5.403   5.136   2.168
    1   AR   Ar  246   5.362   6.491   2.923
    1   AR   Ar  247   6.139   4.451   2.698
    1   AR   Ar  248   6.302   6.445   1.877
    1   AR   Ar  249   6.014   5.390   3.200
    1   AR   Ar  250   4.823   6.395   4.613
    1   AR   Ar  251   6.433   5.047   4.370
    1   AR   Ar  252   5.982   6.295   3.874
    1   AR   Ar  253   5.291   5.331   4.909
    1   AR   Ar  254   5.456   5.950   6.083
    1   AR   Ar  255   6.121   5.245   5.849
    1   AR   Ar  256   5.929   6.213   4.927
    7.12000  7.12000 12.00000
Argon-slab step 205
  256
    1   AR   Ar    1   0.201   6.843   0.101
    1   AR   Ar    2   0.014   0.547   0.801
    1   AR   Ar    3   0.693   6.619   1.166
    1   AR   Ar    4   1.079   0.668   0.275
    1   AR   Ar    5   6.983   0.094   1.710
    1   AR   Ar    6   0.223   0.854   2.738
    1   AR   Ar    7   1.172   6.661   2.642
    1   AR   Ar    8   0.947   0.963   1.802
    1   AR   Ar    9   0.112   0.029   3.750
    1   AR   Ar   10   6.894   1.160   4.057
    1   AR   Ar   11   0.972   0.083   4.334
    1   AR   Ar   12   0.948   0.641   3.420
    1   AR   Ar   13   6.961   0.462   5.346
    1   AR   Ar   14   0.534   1.494   5.739
    1   AR   Ar   15   0.909   7.096   7.155
    1   AR   Ar   16   1.222   0.684   5.282
    1   AR   Ar   17   0.375   1.502  -0.315
    1   AR   Ar   18   0.390   2.736   0.674
    1   AR   Ar   19   0.815   1.577   0.901
    1   AR   Ar   20   1.281   2.417  -0.288
    1   AR   Ar   21   7.083   1.391   1.850
    1   AR   Ar   22   6.988   2.670   2.529
    1   AR   Ar   23   0.849   1.679   2.655
    1   AR   Ar   24   0.662   2.735   1.771
    1   AR   Ar   25   0.602   1.901   3.670
    1   AR   Ar   26   6.905   2.404   4.345
    1   AR   Ar   27   0.755   1.854   4.762
    1   AR   Ar   28   1.380   2.514   3.997
    1   AR   Ar   29   6.739   1.875   5.183
    1   AR   Ar   30   0.480   2.387   6.264
    1   AR   Ar   31   1.230   1.639   6.596
    1   AR   Ar   32   1.181   2.823   5.271
    1   AR   Ar   33   0.353   3.749  -0.133
    1   AR   Ar   34   0.002   4.458   0.995
    1   AR   Ar   35   0.791   3.665   1.072
    1   AR   Ar   36   1.009   4.926  -0.300
    1   AR   Ar   37   7.105   3.726   1.918
    1   AR   Ar   38   0.217   4.836   2.879
    1   AR   Ar   39   0.871   3.479   2.643
    1   AR   Ar   40   1.056   4.393   1.769
    1   AR   Ar   41   0.285   2.956   3.612
    1   AR   Ar   42   0.052   4.441   4.629
    1   AR   Ar   43   0.574   3.451   4.528
    1   AR   Ar   44   0.920   3.971   3.605
    1   AR   Ar   45   0.012   3.732   5.495
    1   AR   Ar   46   0.194   5.023   6.416
    1   AR   Ar   47   1.038   3.535   6.313
    1   AR   Ar   48   0.874   4.640   5.499
    1   AR   Ar   49   7.085   4.754   0.085
    1   AR   Ar   50   0.006   5.543   1.017
    1   AR   Ar   51   1.104   4.765   0.793
    1   AR   Ar   52   0.763   5.708   0.399
    1   AR   Ar   53   6.824   5.374   2.192
    1   AR   Ar   54   6.810   6.762   2.695
    1   AR   Ar   55   1.129   5.422   2.729
    1   AR   Ar   56   0.758   5.771   1.941
    1   AR   Ar   57   0.449   5.335   3.699
    1   AR   Ar   58   6.953   6.328   4.456
    1   AR   Ar   59   0.832   5.548   4.859
    1   AR   Ar   60   0.927   6.190   3.959
    1   AR   Ar   61   7.005   5.411   5.279
    1   AR   Ar   62   0.391   6.046   6.151
    1   AR   Ar   63   1.541   5.440   5.960
    1   AR   Ar   64   0.915   6.472   5.222
    1   AR   Ar   65   1.463   6.581  -0.108
    1   AR   Ar   66   1.892   1.028   1.570
    1   AR   Ar   67   2.352   6.413   0.510
    1   AR   Ar   68   2.712   1.091   0.569
    1   AR   Ar   69   1.727   0.008   1.524
    1   AR   Ar   70   1.730   0.816   2.593
    1   AR   Ar   71   2.231   6.989   2.564
    1   AR   Ar   72   2.648   0.403   1.435
    1   AR   Ar   73   1.678   7.051   3.531
    1   AR   Ar   74   1.584   1.341   4.167
    1   AR   Ar   75   2.405   7.113   4.287
    1   AR   Ar   76   2.474   0.992   3.376
    1   AR   Ar   77   1.990   6.987   5.222
    1   AR   Ar   78   2.144   0.947   5.879
    1   AR   Ar   79   2.766   7.104   6.240
    1   AR   Ar   80   2.844   1.161   5.167
    1   AR   Ar   81   1.816   1.669   0.494
    1   AR   Ar   82   1.487   2.667   0.775
    1   AR   Ar   83   2.378   2.077   1.230
    1   AR   Ar   84   2.567   2.986  -0.123
    1   AR   Ar   85   1.630   2.063   2.056
    1   AR   Ar   86   1.679   3.007   2.741
    1   AR   Ar   87   2.702   1.346   2.232
    1   AR   Ar   88   2.526   2.814   2.011
    1   AR   Ar   89   1.726   1.687   3.167
    1   AR   Ar   90   2.162   3.082   4.701
    1   AR   Ar   91   2.566   1.767   4.376
    1   AR   Ar   92   2.399   2.422   3.516
    1   AR   Ar   93   1.841   1.887   5.172
    1   AR   Ar   94   2.378   2.906   6.338
    1   AR   Ar   95   2.661   1.873   6.060
    1   AR   Ar   96   2.854   2.491   5.267
    1   AR   Ar   97   1.671   3.869   0.194
    1   AR   Ar   98   1.998   4.194   1.054
    1   AR   Ar   99   2.687   3.270   1.072
    1   AR   Ar  100   2.778   4.745   0.002
    1   AR   Ar  101   1.649   3.244   1.644
    1   AR   Ar  102   1.687   4.645   2.990
    1   AR   Ar  103   2.312   3.892   2.622
    1   AR   Ar  104   2.955   4.646   1.482
    1   AR   Ar  105   1.847   3.352   3.729
    1   AR   Ar  106   1.760   4.441   4.044
    1   AR   Ar  107   2.860   4.060   4.360
    1   AR   Ar  108   2.693   4.741   3.389
    1   AR   Ar  109   1.419   3.950   4.870
    1   AR   Ar  110   1.948   4.386   5.879
    1   AR   Ar  111   3.086   4.203   6.399
    1   AR   Ar  112   2.841   5.011   5.598
    1   AR   Ar  113   1.862   5.368   0.335
    1   AR   Ar  114   1.621   5.975   1.192
    1   AR   Ar  115   2.728   5.594   1.138
    1   AR   Ar  116   2.885   6.720  -0.501
    1   AR   Ar  117   1.755   5.053   1.610
    1   AR   Ar  118   2.025   5.999   2.615
    1   AR   Ar  119   2.698   5.329   2.419
    1   AR   Ar  120   2.620   6.492   1.517
    1   AR   Ar  121   1.708   5.447   3.825
    1   AR   Ar  122   1.906   6.066   4.686
    1   AR   Ar  123   2.697   5.453   4.379
    1   AR   Ar  124   2.412   6.287   3.585
    1   AR   Ar  125   1.811   5.044   4.961
    1   AR   Ar  126   1.708   6.746   6.220
    1   AR   Ar  127   2.574   5.709   6.679
    1   AR   Ar  128   2.368   6.033   5.665
    1   AR   Ar  129   3.371   6.898   0.735
    1   AR   Ar  130   3.998   0.795   0.872
    1   AR   Ar  131   4.401   6.983   1.232
    1   AR   Ar  132   4.446   1.361  -0.670
    1   AR   Ar  133   3.288   0.067   2.337
    1   AR   Ar  134   3.677   1.068   2.843
    1   AR   Ar  135   4.372   0.250   2.939
    1   AR   Ar  136   4.136   0.538   1.969
    1   AR   Ar  137   2.988   7.063   3.317
    1   AR   Ar  138   3.391   0.476   4.231
    1   AR   Ar  139   4.495   0.136   4.567
    1   AR   Ar  140   4.460   0.971   3.801
    1   AR   Ar  141   3.338   7.045   5.181
    1   AR   Ar  142   3.292   0.848   6.105
    1   AR   Ar  143   4.285   0.102   6.514
    1   AR   Ar  144   4.155   0.848   5.376
    1   AR   Ar  145   3.527   1.486  -0.025
    1   AR   Ar  146   3.472   2.633   0.951
    1   AR   Ar  147   4.336   1.952   0.689
    1   AR   Ar  148   5.282   2.659   0.214
    1   AR   Ar  149   3.790   1.702   1.769
    1   AR   Ar  150   3.258   2.304   2.521
    1   AR   Ar  151   4.427   2.126   3.111
    1   AR   Ar  152   4.219   2.851   1.747
    1   AR   Ar  153   3.387   1.861   3.434
    1   AR   Ar  154   3.131   2.838   4.343
    1   AR   Ar  155   4.393   1.922   4.295
    1   AR   Ar  156   4.650   2.924   3.948
    1   AR   Ar  157   3.790   1.946   5.142
    1   AR   Ar  158   3.456   3.156   6.312
    1   AR   Ar  159   4.403   1.312   6.169
    1   AR   Ar  160   3.986   3.151   5.348
    1   AR   Ar  161   3.465   3.560   0.244
    1   AR   Ar  162   3.754   4.558   0.812
    1   AR   Ar  163   4.459   3.798   0.997
    1   AR   Ar  164   4.859   4.722   0.474
    1   AR   Ar  165   3.535   3.679   1.633
    1   AR   Ar  166   3.354   4.434   2.575
    1   AR   Ar  167   3.979   3.103   2.951
    1   AR   Ar  168   4.378   4.519   1.731
    1   AR   Ar  169   3.066   3.247   3.288
    1   AR   Ar  170   3.627   4.743   4.337
    1   AR   Ar  171   3.855   3.617   4.213
    1   AR   Ar  172   4.583   4.280   3.603
    1   AR   Ar  173   2.944   3.686   5.338
    1   AR   Ar  174   3.793   5.009   6.042
    1   AR   Ar  175   4.274   3.794   6.065
    1   AR   Ar  176   4.327   4.794   5.136
    1   AR   Ar  177   3.565   5.706   0.245
    1   AR   Ar  178   3.657   6.149   1.502
    1   AR   Ar  179   4.394   5.446   1.142
    1   AR   Ar  180   4.673   6.480   0.087
    1   AR   Ar  181   3.770   5.310   2.141
    1   AR   Ar  182   3.157   6.209   2.735
    1   AR   Ar  183   4.471   5.312   3.089
    1   AR   Ar  184   4.470   6.220   2.230
    1   AR   Ar  185   3.552   5.377   3.507
    1   AR   Ar  186   3.224   6.413   4.286
    1   AR   Ar  187   4.376   5.442   4.298
    1   AR   Ar  188   4.277   6.184   3.505
    1   AR   Ar  189   3.624   5.617   4.998
    1   AR   Ar  190   3.472   6.258   5.951
    1   AR   Ar  191   4.410   5.776   5.647
    1   AR   Ar  192   4.362   6.917   5.516
    1   AR   Ar  193   4.966   0.513   0.347
    1   AR   Ar  194   4.882   1.193   1.460
    1   AR   Ar  195   6.006   0.266   1.218
    1   AR   Ar  196   5.650   1.291   0.614
    1   AR   Ar  197   5.091   0.062   2.002
    1   AR   Ar  198   5.320   0.998   2.829
    1   AR   Ar  199   6.071   0.291   2.271
    1   AR   Ar  200   5.914   1.257   1.712
    1   AR   Ar  201   5.354   0.197   3.764
    1   AR   Ar  202   5.059   1.026   4.574
    1   AR   Ar  203   6.328   0.276   4.366
    1   AR   Ar  204   6.281   0.458   3.363
    1   AR   Ar  205   5.228   0.225   5.208
    1   AR   Ar  206   5.408   0.569   6.342
    1   AR   Ar  207   6.170   6.910   5.847
    1   AR   Ar  208   5.997   0.971   5.133
    1   AR   Ar  209   5.876   2.107  -0.507
    1   AR   Ar  210   5.488   2.144   1.242
    1   AR   Ar  211   6.552   1.858   0.532
    1   AR   Ar  212   6.388   2.974   0.208
    1   AR   Ar  213   5.163   1.884   2.373
    1   AR   Ar  214   5.472   2.850   2.396
    1   AR   Ar  215   6.336   1.446   2.745
    1   AR   Ar  216   6.591   2.964   1.314
    1   AR   Ar  217   5.241   1.657   3.687
    1   AR   Ar  218   5.988   2.754   4.483
    1   AR   Ar  219   6.192   1.774   3.906
    1   AR   Ar  220   5.695   2.506   3.293
    1   AR   Ar  221   5.425   2.118   5.219
    1   AR   Ar  222   4.802   2.622   5.983
    1   AR   Ar  223   6.302   2.092   6.270
    1   AR   Ar  224   6.414   2.862   5.473
    1   AR   Ar  225   5.573   3.687  -0.098
    1   AR   Ar  226   5.347   4.293   1.499
    1   AR   Ar  227   6.223   3.948   0.761
    1   AR   Ar  228   5.766   4.786   0.009
    1   AR   Ar  229   5.116   3.272   1.455
    1   AR   Ar  230   5.099   4.237   2.660
    1   AR   Ar  231   6.348   3.391   2.969
    1   AR   Ar  232   6.095   3.759   1.994
    1   AR   Ar  233   5.395   3.531   3.605
    1   AR   Ar  234   5.786   4.292   4.080
    1   AR   Ar  235   6.691   3.481   4.470
    1   AR   Ar  236   6.854   4.371   3.720
    1   AR   Ar  237   5.372   3.394   5.282
    1   AR   Ar  238   5.125   4.449   5.844
    1   AR   Ar  239   6.124   3.979   6.284
    1   AR   Ar  240   6.124   4.172   5.118
    1   AR   Ar  241   5.414   5.639   0.480
    1   AR   Ar  242   5.323   6.231   1.407
    1   AR   Ar  243   6.141   4.899   1.380
    1   AR   Ar  244   6.179   6.414   0.521
    1   AR   Ar  245   5.412   5.121   2.169
    1   AR   Ar  246   5.393   6.453   2.935
    1   AR   Ar  247   6.133   4.458   2.685
    1   AR   Ar  248   6.343   6.463   1.915
    1   AR   Ar  249   6.017   5.355   3.190
    1   AR   Ar  250   4.821   6.376   4.644
    1   AR   Ar  251   6.435   5.047   4.353
    1   AR   Ar  252   5.998   6.285   3.885
    1   AR   Ar  253   5.280   5.343   4.881
    1   AR   Ar  254   5.445   5.945   6.090
    1   AR   Ar  255   6.112   5.238   5.852
    1   AR   Ar  256   5.919   6.238   4.922
    7.12000  7.12000 12.00000
Argon-slab step 210
  256
    1   AR   Ar    1   0.208   6.875   0.041
    1   AR   Ar    2   0.022   0.535   0.810
    1   AR   Ar    3   0.682   6.611   1.171
    1   AR   Ar    4   1.077   0.710   0.265
    1   AR   Ar    5   6.983   0.105   1.695
    1   AR   Ar    6   0.209   0.842   2.712
    1   AR   Ar    7   1.167   6.708   2.633
    1   AR   Ar    8   0.939   0.971   1.804
    1   AR   Ar    9   0.121   0.028   3.774
    1   AR   Ar   10   6.912   1.149   4.053
    1   AR   Ar   11   1.008   0.094   4.356
    1   AR   Ar   12   0.947   0.637   3.455
    1   AR   Ar   13   6.947   0.425   5.366
    1   AR   Ar   14   0.538   1.520   5.734
    1   AR   Ar   15   0.911   7.086   7.169
    1   AR   Ar   16   1.248   0.685   5.281
    1   AR   Ar   17   0.360   1.526  -0.297
    1   AR   Ar   18   0.361   2.709   0.685
    1   AR   Ar   19   0.808   1.571   0.911
    1   AR   Ar   20   1.322   2.396  -0.286
    1   AR   Ar   21   7.086   1.396   1.836
    1   AR   Ar   22   6.992   2.654   2.513
    1   AR   Ar   23   0.839   1.679   2.630
    1   AR   Ar   24   0.652   2.710   1.818
    1   AR   Ar   25   0.603   1.889   3.684
    1   AR   Ar   26   6.919   2.408   4.364
    1   AR   Ar   27   0.752   1.852   4.754
    1   AR   Ar   28   1.398   2.503   4.023
    1   AR   Ar   29   6.751   1.881   5.163
    1   AR   Ar   30   0.473   2.375   6.251
    1   AR   Ar   31   1.269   1.650   6.631
    1   AR   Ar   32   1.174   2.810   5.270
    1   AR   Ar   33   0.348   3.746  -0.151
    1   AR   Ar   34   0.012   4.450   1.021
    1   AR   Ar   35   0.769   3.665   1.081
    1   AR   Ar   36   0.981   4.921  -0.255
    1   AR   Ar   37   7.102   3.719   1.912
    1   AR   Ar   38   0.238   4.810   2.889
    1   AR   Ar   39   0.843   3.505   2.636
    1   AR   Ar   40   1.060   4.374   1.776
    1   AR   Ar   41   0.295   2.955   3.625
    1   AR   Ar   42   0.049   4.426   4.654
    1   AR   Ar   43   0.571   3.434   4.539
    1   AR   Ar   44   0.926   3.979   3.642
    1   AR   Ar   45   7.115   3.717   5.534
    1   AR   Ar   46   0.205   5.017   6.421
    1   AR   Ar   47   1.046   3.515   6.304
    1   AR   Ar   48   0.855   4.625   5.520
    1   AR   Ar   49   7.072   4.762   0.082
    1   AR   Ar   50   7.110   5.512   1.011
    1   AR   Ar   51   1.139   4.732   0.805
    1   AR   Ar   52   0.753   5.682   0.432
    1   AR   Ar   53   6.821   5.393   2.194
    1   AR   Ar   54   6.815   6.770   2.720
    1   AR   Ar   55   1.125   5.411   2.727
    1   AR   Ar   56   0.737   5.752   1.895
    1   AR   Ar   57   0.437   5.330   3.712
    1   AR   Ar   58   6.926   6.281   4.416
    1   AR   Ar   59   0.851   5.538   4.884
    1   AR   Ar   60   0.940   6.179   3.981
    1   AR   Ar   61   7.011   5.456   5.310
    1   AR   Ar   62   0.380   6.060   6.159
    1   AR   Ar   63   1.562   5.418   5.939
    1   AR   Ar   64   0.931   6.498   5.206
    1   AR   Ar   65   1.458   6.590  -0.115
    1   AR   Ar   66   1.906   1.020   1.601
    1   AR   Ar   67   2.341   6.404   0.489
    1   AR   Ar   68   2.753   1.088   0.614
    1   AR   Ar   69   1.720   0.008   1.493
    1   AR   Ar   70   1.743   0.807   2.573
    1   AR   Ar   71   2.248   6.998   2.546
    1   AR   Ar   72   2.646   0.410   1.434
    1   AR   Ar   73   1.696   7.038   3.538
    1   AR   Ar   74   1.519   1.335   4.152
    1   AR   Ar   75   2.390   7.104   4.287
    1   AR   Ar   76   2.467   1.007   3.371
    1   AR   Ar   77   1.979   6.967   5.221
    1   AR   Ar   78   2.134   0.952   5.882
    1   AR   Ar   79   2.771   7.089   6.271
    1   AR   Ar   80   2.816   1.173   5.153
    1   AR   Ar   81   1.819   1.694   0.499
    1   AR   Ar   82   1.482   2.675   0.771
    1   AR   Ar   83   2.380   2.042   1.215
    1   AR   Ar   84   2.562   3.006  -0.133
    1   AR   Ar   85   1.640   2.011   2.056
    1   AR   Ar   86   1.695   3.001   2.739
    1   AR   Ar   87   2.740   1.348   2.279
    1   AR   Ar   88   2.535   2.836   2.014
    1   AR   Ar   89   1.721   1.672   3.113
    1   AR   Ar   90   2.144   3.104   4.691
    1   AR   Ar   91   2.565   1.762   4.393
    1   AR   Ar   92   2.357   2.420   3.536
    1   AR   Ar   93   1.866   1.877   5.145
    1   AR   Ar   94   2.380   2.905   6.336
    1   AR   Ar   95   2.669   1.854   6.070
    1   AR   Ar   96   2.876   2.500   5.275
    1   AR   Ar   97   1.660   3.860   0.191
    1   AR   Ar   98   2.001   4.203   1.089
    1   AR   Ar   99   2.674   3.285   1.055
    1   AR   Ar  100   2.788   4.729   0.023
    1   AR   Ar  101   1.640   3.261   1.626
    1   AR   Ar  102   1.684   4.649   2.974
    1   AR   Ar  103   2.286   3.885   2.626
    1   AR   Ar  104   2.973   4.647   1.486
    1   AR   Ar  105   1.841   3.357   3.734
    1   AR   Ar  106   1.758   4.401   4.044
    1   AR   Ar  107   2.829   4.063   4.376
    1   AR   Ar  108   2.713   4.753   3.378
    1   AR   Ar  109   1.414   3.938   4.866
    1   AR   Ar  110   1.941   4.375   5.885
    1   AR   Ar  111   3.119   4.229   6.408
    1   AR   Ar  112   2.847   5.037   5.614
    1   AR   Ar  113   1.880   5.370   0.357
    1   AR   Ar  114   1.604   5.981   1.186
    1   AR   Ar  115   2.739   5.590   1.147
    1   AR   Ar  116   2.898   6.752  -0.504
    1   AR   Ar  117   1.794   5.046   1.601
    1   AR   Ar  118   2.017   6.005   2.634
    1   AR   Ar  119   2.697   5.297   2.404
    1   AR   Ar  120   2.628   6.456   1.520
    1   AR   Ar  121   1.681   5.429   3.847
    1   AR   Ar  122   1.926   6.051   4.705
    1   AR   Ar  123   2.681   5.437   4.335
    1   AR   Ar  124   2.423   6.282   3.568
    1   AR   Ar  125   1.800   5.052   4.931
    1   AR   Ar  126   1.680   6.755   6.210
    1   AR   Ar  127   2.562   5.682   6.710
    1   AR   Ar  128   2.344   6.052   5.625
    1   AR   Ar  129   3.384   6.896   0.778
    1   AR   Ar  130   3.961   0.790   0.870
    1   AR   Ar  131   4.383   6.988   1.207
    1   AR   Ar  132   4.438   1.372  -0.671
    1   AR   Ar  133   3.290   0.071   2.363
    1   AR   Ar  134   3.679   1.041   2.835
    1   AR   Ar  135   4.370   0.259   2.938
    1   AR   Ar  136   4.079   0.514   1.960
    1   AR   Ar  137   3.000   7.057   3.326
    1   AR   Ar  138   3.379   0.459   4.227
    1   AR   Ar  139   4.485   0.162   4.556
    1   AR   Ar  140   4.439   0.950   3.807
    1   AR   Ar  141   3.322   7.030   5.204
    1   AR   Ar  142   3.275   0.867   6.101
    1   AR   Ar  143   4.244   0.119   6.540
    1   AR   Ar  144   4.140   0.861   5.380
    1   AR   Ar  145   3.531   1.477   0.001
    1   AR   Ar  146   3.453   2.633   0.958
    1   AR   Ar  147   4.365   1.962   0.668
    1   AR   Ar  148   5.278   2.676   0.207
    1   AR   Ar  149   3.804   1.690   1.780
    1   AR   Ar  150   3.240   2.284   2.492
    1   AR   Ar  151   4.401   2.134   3.120
    1   AR   Ar  152   4.205   2.812   1.744
    1   AR   Ar  153   3.396   1.862   3.391
    1   AR   Ar  154   3.108   2.829   4.307
    1   AR   Ar  155   4.385   1.957   4.294
    1   AR   Ar  156   4.639   2.932   3.955
    1   AR   Ar  157   3.748   1.951   5.142
    1   AR   Ar  158   3.450   3.187   6.296
    1   AR   Ar  159   4.411   1.309   6.190
    1   AR   Ar  160   3.989   3.162   5.367
    1   AR   Ar  161   3.488   3.578   0.269
    1   AR   Ar  162   3.753   4.543   0.799
    1   AR   Ar  163   4.490   3.799   0.973
    1   AR   Ar  164   4.844   4.739   0.512
    1   AR   Ar  165   3.539   3.675   1.651
    1   AR   Ar  166   3.381   4.450   2.598
    1   AR   Ar  167   3.984   3.086   2.950
    1   AR   Ar  168   4.354   4.526   1.700
    1   AR   Ar  169   3.061   3.251   3.271
    1   AR   Ar  170   3.590   4.758   4.343
    1   AR   Ar  171   3.855   3.603   4.233
    1   AR   Ar  172   4.590   4.254   3.619
    1   AR   Ar  173   2.910   3.668   5.318
    1   AR   Ar  174   3.826   5.032   6.065
    1   AR   Ar  175   4.315   3.792   6.059
    1   AR   Ar  176   4.296   4.799   5.122
    1   AR   Ar  177   3.589   5.699   0.218
    1   AR   Ar  178   3.663   6.166   1.498
    1   AR   Ar  179   4.377   5.429   1.145
    1   AR   Ar  180   4.677   6.504   0.082
    1   AR   Ar  181   3.807   5.346   2.139
    1   AR   Ar  182   3.144   6.219   2.752
    1   AR   Ar  183   4.450   5.244   3.077
    1   AR   Ar  184   4.463   6.221   2.228
    1   AR   Ar  185   3.522   5.359   3.479
    1   AR   Ar  186   3.226   6.403   4.260
    1   AR   Ar  187   4.379   5.425   4.275
    1   AR   Ar  188   4.250   6.218   3.501
    1   AR   Ar  189   3.614   5.609   5.012
    1   AR   Ar  190   3.444   6.257   5.958
    1   AR   Ar  191   4.430   5.786   5.657
    1   AR   Ar  192   4.347   6.945   5.519
    1   AR   Ar  193   4.970   0.502   0.355
    1   AR   Ar  194   4.885   1.170   1.440
    1   AR   Ar  195   6.021   0.290   1.232
    1   AR   Ar  196   5.643   1.305   0.616
    1   AR   Ar  197   5.094   0.072   2.010
    1   AR   Ar  198   5.302   1.023   2.843
    1   AR   Ar  199   6.075   0.290   2.276
    1   AR   Ar  200   5.902   1.252   1.689
    1   AR   Ar  201   5.368   0.210   3.755
    1   AR   Ar  202   5.069   1.022   4.547
    1   AR   Ar  203   6.358   0.292   4.370
    1   AR   Ar  204   6.296   0.450   3.335
    1   AR   Ar  205   5.186   0.234   5.202
    1   AR   Ar  206   5.395   0.555   6.310
    1   AR   Ar  207   6.176   6.894   5.842
    1   AR   Ar  208   5.968   0.965   5.141
    1   AR   Ar  209   5.897   2.122  -0.558
    1   AR   Ar  210   5.491   2.179   1.291
    1   AR   Ar  211   6.573   1.879   0.514
    1   AR   Ar  212   6.390   2.958   0.209
    1   AR   Ar  213   5.193   1.897   2.403
    1   AR   Ar  214   5.450   2.875   2.348
    1   AR   Ar  215   6.307   1.443   2.757
    1   AR   Ar  216   6.597   2.958   1.311
    1   AR   Ar  217   5.223   1.649   3.690
    1   AR   Ar  218   5.996   2.746   4.470
    1   AR   Ar  219   6.160   1.776   3.879
    1   AR   Ar  220   5.652   2.500   3.288
    1   AR   Ar  221   5.411   2.121   5.246
    1   AR   Ar  222   4.785   2.607   5.986
    1   AR   Ar  223   6.305   2.114   6.271
    1   AR   Ar  224   6.404   2.867   5.477
    1   AR   Ar  225   5.578   3.693  -0.098
    1   AR   Ar  226   5.301   4.252   1.494
    1   AR   Ar  227   6.247   3.958   0.757
    1   AR   Ar  228   5.765   4.820   0.043
    1   AR   Ar  229   5.116   3.255   1.439
    1   AR   Ar  230   5.127   4.221   2.651
    1   AR   Ar  231   6.365   3.397   2.995
    1   AR   Ar  232   6.098   3.734   2.008
    1   AR   Ar  233   5.395   3.550   3.622
    1   AR   Ar  234   5.800   4.303   4.063
    1   AR   Ar  235   6.682   3.488   4.471
    1   AR   Ar  236   6.888   4.345   3.706
    1   AR   Ar  237   5.334   3.378   5.282
    1   AR   Ar  238   5.128   4.462   5.832
    1   AR   Ar  239   6.159   4.018   6.286
    1   AR   Ar  240   6.107   4.160   5.109
    1   AR   Ar  241   5.403   5.636   0.471
    1   AR   Ar  242   5.312   6.225   1.422
    1   AR   Ar  243   6.145   4.908   1.395
    1   AR   Ar  244   6.159   6.433   0.538
    1   AR   Ar  245   5.420   5.112   2.170
    1   AR   Ar  246   5.424   6.416   2.947
    1   AR   Ar  247   6.132   4.470   2.679
    1   AR   Ar  248   6.370   6.465   1.937
    1   AR   Ar  249   6.019   5.324   3.181
    1   AR   Ar  250   4.828   6.333   4.676
    1   AR   Ar  251   6.430   5.063   4.340
    1   AR   Ar  252   6.013   6.277   3.893
    1   AR   Ar  253   5.270   5.354   4.855
    1   AR   Ar  254   5.428   5.947   6.096
    1   AR   Ar  255   6.108   5.222   5.853
    1   AR   Ar  256   5.909   6.264   4.922
    7.12000  7.12000 12.00000
Argon-slab step 215
  256
    1   AR   Ar    1   0.217   6.906  -0.018
    1   AR   Ar    2   0.033   0.529   0.811
    1   AR   Ar    3   0.681   6.607   1.166
    1   AR   Ar    4   1.075   0.751   0.256
    1   AR   Ar    5   6.989   0.120   1.688
    1   AR   Ar    6   0.186   0.819   2.680
    1   AR   Ar    7   1.161   6.755   2.623
    1   AR   Ar    8   0.921   0.975   1.809
    1   AR   Ar    9   0.128   0.025   3.795
    1   AR   Ar   10   6.940   1.132   4.051
    1   AR   Ar   11   1.047   0.104   4.384
    1   AR   Ar   12   0.952   0.640   3.480
    1   AR   Ar   13   6.934   0.389   5.383
    1   AR   Ar   14   0.543   1.536   5.726
    1   AR   Ar   15   0.962   7.087   7.183
    1   AR   Ar   16   1.273   0.687   5.278
    1   AR   Ar   17   0.346   1.551  -0.276
    1   AR   Ar   18   0.331   2.681   0.696
    1   AR   Ar   19   0.799   1.567   0.921
    1   AR   Ar   20   1.312   2.394  -0.331
    1   AR   Ar   21   7.095   1.388   1.843
    1   AR   Ar   22   7.002   2.643   2.495
    1   AR   Ar   23   0.821   1.681   2.603
    1   AR   Ar   24   0.647   2.686   1.861
    1   AR   Ar   25   0.580   1.855   3.698
    1   AR   Ar   26   6.946   2.414   4.373
    1   AR   Ar   27   0.750   1.853   4.744
    1   AR   Ar   28   1.414   2.486   4.054
    1   AR   Ar   29   6.759   1.877   5.155
    1   AR   Ar   30   0.465   2.373   6.241
    1   AR   Ar   31   1.308   1.661   6.663
    1   AR   Ar   32   1.168   2.797   5.269
    1   AR   Ar   33   0.344   3.743  -0.165
    1   AR   Ar   34   0.026   4.438   1.060
    1   AR   Ar   35   0.747   3.662   1.085
    1   AR   Ar   36   0.955   4.913  -0.212
    1   AR   Ar   37   7.108   3.712   1.906
    1   AR   Ar   38   0.259   4.776   2.890
    1   AR   Ar   39   0.805   3.535   2.626
    1   AR   Ar   40   1.059   4.350   1.793
    1   AR   Ar   41   0.305   2.957   3.633
    1   AR   Ar   42   0.055   4.411   4.692
    1   AR   Ar   43   0.571   3.414   4.552
    1   AR   Ar   44   0.925   3.985   3.675
    1   AR   Ar   45   7.099   3.703   5.572
    1   AR   Ar   46   0.213   5.028   6.413
    1   AR   Ar   47   1.054   3.494   6.292
    1   AR   Ar   48   0.835   4.609   5.542
    1   AR   Ar   49   7.047   4.766   0.059
    1   AR   Ar   50   7.083   5.482   1.014
    1   AR   Ar   51   1.169   4.700   0.812
    1   AR   Ar   52   0.755   5.663   0.459
    1   AR   Ar   53   6.814   5.413   2.194
    1   AR   Ar   54   6.833   6.785   2.765
    1   AR   Ar   55   1.119   5.406   2.734
    1   AR   Ar   56   0.711   5.738   1.836
    1   AR   Ar   57   0.425   5.324   3.733
    1   AR   Ar   58   6.904   6.234   4.380
    1   AR   Ar   59   0.870   5.522   4.905
    1   AR   Ar   60   0.956   6.175   4.005
    1   AR   Ar   61   7.016   5.500   5.341
    1   AR   Ar   62   0.370   6.075   6.165
    1   AR   Ar   63   1.581   5.397   5.919
    1   AR   Ar   64   0.950   6.530   5.192
    1   AR   Ar   65   1.451   6.598  -0.121
    1   AR   Ar   66   1.923   1.030   1.624
    1   AR   Ar   67   2.333   6.396   0.467
    1   AR   Ar   68   2.793   1.086   0.660
    1   AR   Ar   69   1.704   7.120   1.462
    1   AR   Ar   70   1.752   0.792   2.557
    1   AR   Ar   71   2.266   7.010   2.527
    1   AR   Ar   72   2.664   0.411   1.433
    1   AR   Ar   73   1.717   7.028   3.546
    1   AR   Ar   74   1.456   1.329   4.137
    1   AR   Ar   75   2.379   7.097   4.287
    1   AR   Ar   76   2.466   1.019   3.368
    1   AR   Ar   77   1.967   6.953   5.222
    1   AR   Ar   78   2.120   0.953   5.889
    1   AR   Ar   79   2.774   7.071   6.300
    1   AR   Ar   80   2.794   1.180   5.141
    1   AR   Ar   81   1.814   1.711   0.493
    1   AR   Ar   82   1.477   2.684   0.766
    1   AR   Ar   83   2.392   2.013   1.212
    1   AR   Ar   84   2.556   3.026  -0.140
    1   AR   Ar   85   1.653   1.962   2.053
    1   AR   Ar   86   1.718   2.984   2.737
    1   AR   Ar   87   2.776   1.349   2.325
    1   AR   Ar   88   2.541   2.861   2.017
    1   AR   Ar   89   1.719   1.664   3.065
    1   AR   Ar   90   2.126   3.126   4.686
    1   AR   Ar   91   2.565   1.764   4.398
    1   AR   Ar   92   2.319   2.417   3.554
    1   AR   Ar   93   1.887   1.867   5.122
    1   AR   Ar   94   2.381   2.905   6.332
    1   AR   Ar   95   2.677   1.835   6.080
    1   AR   Ar   96   2.895   2.514   5.284
    1   AR   Ar   97   1.646   3.850   0.184
    1   AR   Ar   98   2.011   4.207   1.129
    1   AR   Ar   99   2.669   3.293   1.022
    1   AR   Ar  100   2.797   4.713   0.046
    1   AR   Ar  101   1.646   3.258   1.613
    1   AR   Ar  102   1.685   4.646   2.961
    1   AR   Ar  103   2.264   3.876   2.629
    1   AR   Ar  104   2.989   4.642   1.496
    1   AR   Ar  105   1.838   3.372   3.735
    1   AR   Ar  106   1.767   4.365   4.041
    1   AR   Ar  107   2.792   4.064   4.386
    1   AR   Ar  108   2.726   4.760   3.370
    1   AR   Ar  109   1.413   3.922   4.875
    1   AR   Ar  110   1.935   4.362   5.889
    1   AR   Ar  111   3.151   4.256   6.415
    1   AR   Ar  112   2.833   5.020   5.644
    1   AR   Ar  113   1.899   5.371   0.378
    1   AR   Ar  114   1.585   5.991   1.181
    1   AR   Ar  115   2.751   5.570   1.146
    1   AR   Ar  116   2.911   6.784  -0.504
    1   AR   Ar  117   1.756   5.057   1.597
    1   AR   Ar  118   2.002   6.011   2.652
    1   AR   Ar  119   2.700   5.258   2.384
    1   AR   Ar  120   2.633   6.439   1.538
    1   AR   Ar  121   1.653   5.413   3.865
    1   AR   Ar  122   1.936   6.038   4.720
    1   AR   Ar  123   2.668   5.418   4.288
    1   AR   Ar  124   2.430   6.266   3.554
    1   AR   Ar  125   1.791   5.054   4.903
    1   AR   Ar  126   1.650   6.763   6.202
    1   AR   Ar  127   2.550   5.655   6.737
    1   AR   Ar  128   2.329   6.071   5.592
    1   AR   Ar  129   3.393   6.894   0.819
    1   AR   Ar  130   3.924   0.788   0.868
    1   AR   Ar  131   4.367   6.988   1.180
    1   AR   Ar  132   4.431   1.383  -0.671
    1   AR   Ar  133   3.288   0.073   2.385
    1   AR   Ar  134   3.681   1.015   2.826
    1   AR   Ar  135   4.347   0.256   2.946
    1   AR   Ar  136   4.029   0.499   1.945
    1   AR   Ar  137   3.016   7.064   3.343
    1   AR   Ar  138   3.370   0.444   4.223
    1   AR   Ar  139   4.456   0.192   4.525
    1   AR   Ar  140   4.406   0.927   3.800
    1   AR   Ar  141   3.303   7.016   5.226
    1   AR   Ar  142   3.261   0.889   6.097
    1   AR   Ar  143   4.202   0.138   6.565
    1   AR   Ar  144   4.131   0.868   5.379
    1   AR   Ar  145   3.538   1.469   0.027
    1   AR   Ar  146   3.437   2.628   0.965
    1   AR   Ar  147   4.359   1.948   0.679
    1   AR   Ar  148   5.274   2.693   0.203
    1   AR   Ar  149   3.820   1.676   1.789
    1   AR   Ar  150   3.226   2.267   2.461
    1   AR   Ar  151   4.368   2.141   3.097
    1   AR   Ar  152   4.191   2.771   1.743
    1   AR   Ar  153   3.401   1.864   3.361
    1   AR   Ar  154   3.086   2.820   4.268
    1   AR   Ar  155   4.376   1.990   4.293
    1   AR   Ar  156   4.627   2.936   3.962
    1   AR   Ar  157   3.709   1.954   5.144
    1   AR   Ar  158   3.443   3.216   6.281
    1   AR   Ar  159   4.423   1.313   6.225
    1   AR   Ar  160   3.988   3.165   5.376
    1   AR   Ar  161   3.511   3.597   0.297
    1   AR   Ar  162   3.752   4.530   0.784
    1   AR   Ar  163   4.506   3.804   0.936
    1   AR   Ar  164   4.826   4.750   0.552
    1   AR   Ar  165   3.544   3.673   1.669
    1   AR   Ar  166   3.409   4.463   2.619
    1   AR   Ar  167   3.979   3.073   2.960
    1   AR   Ar  168   4.324   4.535   1.678
    1   AR   Ar  169   3.045   3.258   3.258
    1   AR   Ar  170   3.552   4.769   4.348
    1   AR   Ar  171   3.855   3.591   4.254
    1   AR   Ar  172   4.594   4.231   3.636
    1   AR   Ar  173   2.878   3.647   5.303
    1   AR   Ar  174   3.858   5.053   6.090
    1   AR   Ar  175   4.359   3.798   6.060
    1   AR   Ar  176   4.279   4.802   5.102
    1   AR   Ar  177   3.612   5.692   0.195
    1   AR   Ar  178   3.668   6.185   1.493
    1   AR   Ar  179   4.359   5.416   1.149
    1   AR   Ar  180   4.680   6.528   0.079
    1   AR   Ar  181   3.842   5.382   2.140
    1   AR   Ar  182   3.134   6.223   2.767
    1   AR   Ar  183   4.451   5.272   3.072
    1   AR   Ar  184   4.458   6.223   2.228
    1   AR   Ar  185   3.490   5.349   3.451
    1   AR   Ar  186   3.231   6.393   4.234
    1   AR   Ar  187   4.384   5.411   4.245
    1   AR   Ar  188   4.223   6.257   3.497
    1   AR   Ar  189   3.598   5.605   5.025
    1   AR   Ar  190   3.416   6.254   5.966
    1   AR   Ar  191   4.437   5.780   5.687
    1   AR   Ar  192   4.323   6.961   5.530
    1   AR   Ar  193   4.972   0.490   0.366
    1   AR   Ar  194   4.884   1.145   1.420
    1   AR   Ar  195   6.033   0.312   1.240
    1   AR   Ar  196   5.635   1.319   0.618
    1   AR   Ar  197   5.095   0.083   2.017
    1   AR   Ar  198   5.284   1.032   2.861
    1   AR   Ar  199   6.080   0.296   2.287
    1   AR   Ar  200   5.895   1.248   1.670
    1   AR   Ar  201   5.378   0.222   3.748
    1   AR   Ar  202   5.088   1.027   4.528
    1   AR   Ar  203   6.396   0.306   4.379
    1   AR   Ar  204   6.314   0.444   3.302
    1   AR   Ar  205   5.171   0.245   5.211
    1   AR   Ar  206   5.381   0.541   6.275
    1   AR   Ar  207   6.179   6.877   5.837
    1   AR   Ar  208   5.941   0.961   5.149
    1   AR   Ar  209   5.920   2.137  -0.607
    1   AR   Ar  210   5.492   2.216   1.339
    1   AR   Ar  211   6.595   1.901   0.496
    1   AR   Ar  212   6.417   2.961   0.214
    1   AR   Ar  213   5.221   1.914   2.426
    1   AR   Ar  214   5.430   2.908   2.299
    1   AR   Ar  215   6.279   1.440   2.769
    1   AR   Ar  216   6.602   2.951   1.308
    1   AR   Ar  217   5.181   1.626   3.686
    1   AR   Ar  218   5.998   2.735   4.457
    1   AR   Ar  219   6.137   1.784   3.856
    1   AR   Ar  220   5.610   2.497   3.284
    1   AR   Ar  221   5.398   2.124   5.270
    1   AR   Ar  222   4.766   2.595   5.987
    1   AR   Ar  223   6.308   2.135   6.271
    1   AR   Ar  224   6.394   2.874   5.479
    1   AR   Ar  225   5.582   3.701  -0.097
    1   AR   Ar  226   5.263   4.216   1.487
    1   AR   Ar  227   6.267   3.967   0.754
    1   AR   Ar  228   5.773   4.843   0.072
    1   AR   Ar  229   5.154   3.238   1.433
    1   AR   Ar  230   5.151   4.201   2.642
    1   AR   Ar  231   6.382   3.404   3.023
    1   AR   Ar  232   6.093   3.702   2.013
    1   AR   Ar  233   5.395   3.556   3.629
    1   AR   Ar  234   5.819   4.324   4.052
    1   AR   Ar  235   6.670   3.499   4.470
    1   AR   Ar  236   6.918   4.313   3.681
    1   AR   Ar  237   5.295   3.361   5.283
    1   AR   Ar  238   5.119   4.449   5.820
    1   AR   Ar  239   6.167   4.042   6.286
    1   AR   Ar  240   6.090   4.150   5.102
    1   AR   Ar  241   5.388   5.644   0.468
    1   AR   Ar  242   5.300   6.221   1.438
    1   AR   Ar  243   6.152   4.917   1.409
    1   AR   Ar  244   6.139   6.453   0.557
    1   AR   Ar  245   5.426   5.108   2.172
    1   AR   Ar  246   5.455   6.380   2.958
    1   AR   Ar  247   6.140   4.483   2.693
    1   AR   Ar  248   6.381   6.450   1.940
    1   AR   Ar  249   6.021   5.302   3.179
    1   AR   Ar  250   4.837   6.285   4.710
    1   AR   Ar  251   6.423   5.090   4.328
    1   AR   Ar  252   6.026   6.269   3.894
    1   AR   Ar  253   5.264   5.363   4.833
    1   AR   Ar  254   5.408   5.954   6.102
    1   AR   Ar  255   6.106   5.201   5.851
    1   AR   Ar  256   5.899   6.291   4.928
    7.12000  7.12000 12.00000
Argon-slab step 220
  256
    1   AR   Ar    1   0.227   6.936  -0.075
    1   AR   Ar    2   0.046   0.529   0.802
    1   AR   Ar    3   0.674   6.607   1.161
    1   AR   Ar    4   1.072   0.791   0.247
    1   AR   Ar    5   6.999   0.134   1.693
    1   AR   Ar    6   0.160   0.790   2.652
    1   AR   Ar    7   1.155   6.790   2.630
    1   AR   Ar    8   0.903   0.974   1.814
    1   AR   Ar    9   0.134   0.021   3.815
    1   AR   Ar   10   6.965   1.122   4.045
    1   AR   Ar   11   1.067   0.124   4.416
    1   AR   Ar   12   0.974   0.649   3.471
    1   AR   Ar   13   6.921   0.355   5.399
    1   AR   Ar   14   0.550   1.541   5.714
    1   AR   Ar   15   1.015   7.088   7.195
    1   AR   Ar   16   1.280   0.686   5.267
    1   AR   Ar   17   0.333   1.576  -0.252
    1   AR   Ar   18   0.304   2.652   0.706
    1   AR   Ar   19   0.788   1.567   0.931
    1   AR   Ar   20   1.288   2.396  -0.385
    1   AR   Ar   21   7.113   1.365   1.879
    1   AR   Ar   22   7.028   2.655   2.465
    1   AR   Ar   23   0.793   1.686   2.576
    1   AR   Ar   24   0.652   2.662   1.896
    1   AR   Ar   25   0.556   1.820   3.708
    1   AR   Ar   26   6.984   2.424   4.370
    1   AR   Ar   27   0.747   1.856   4.735
    1   AR   Ar   28   1.423   2.465   4.089
    1   AR   Ar   29   6.763   1.862   5.159
    1   AR   Ar   30   0.457   2.381   6.235
    1   AR   Ar   31   1.348   1.672   6.693
    1   AR   Ar   32   1.161   2.784   5.267
    1   AR   Ar   33   0.340   3.740  -0.177
    1   AR   Ar   34   0.044   4.425   1.103
    1   AR   Ar   35   0.726   3.653   1.086
    1   AR   Ar   36   0.932   4.901  -0.174
    1   AR   Ar   37   0.000   3.706   1.900
    1   AR   Ar   38   0.281   4.738   2.881
    1   AR   Ar   39   0.774   3.523   2.633
    1   AR   Ar   40   1.052   4.322   1.819
    1   AR   Ar   41   0.318   2.961   3.634
    1   AR   Ar   42   0.065   4.399   4.736
    1   AR   Ar   43   0.574   3.391   4.566
    1   AR   Ar   44   0.914   3.989   3.704
    1   AR   Ar   45   7.084   3.691   5.609
    1   AR   Ar   46   0.220   5.037   6.403
    1   AR   Ar   47   1.061   3.473   6.278
    1   AR   Ar   48   0.815   4.593   5.563
    1   AR   Ar   49   7.029   4.756   0.059
    1   AR   Ar   50   7.045   5.452   1.025
    1   AR   Ar   51   1.191   4.668   0.814
    1   AR   Ar   52   0.766   5.652   0.483
    1   AR   Ar   53   6.806   5.433   2.193
    1   AR   Ar   54   6.858   6.801   2.818
    1   AR   Ar   55   1.105   5.411   2.743
    1   AR   Ar   56   0.684   5.723   1.773
    1   AR   Ar   57   0.411   5.318   3.760
    1   AR   Ar   58   6.891   6.185   4.348
    1   AR   Ar   59   0.887   5.506   4.923
    1   AR   Ar   60   0.972   6.180   4.031
    1   AR   Ar   61   7.020   5.544   5.370
    1   AR   Ar   62   0.362   6.091   6.170
    1   AR   Ar   63   1.596   5.376   5.899
    1   AR   Ar   64   0.968   6.563   5.181
    1   AR   Ar   65   1.441   6.606  -0.126
    1   AR   Ar   66   1.930   1.047   1.628
    1   AR   Ar   67   2.327   6.388   0.447
    1   AR   Ar   68   2.831   1.086   0.706
    1   AR   Ar   69   1.684   7.107   1.433
    1   AR   Ar   70   1.755   0.770   2.550
    1   AR   Ar   71   2.283   7.021   2.506
    1   AR   Ar   72   2.695   0.403   1.436
    1   AR   Ar   73   1.746   7.036   3.568
    1   AR   Ar   74   1.397   1.322   4.123
    1   AR   Ar   75   2.376   7.091   4.292
    1   AR   Ar   76   2.469   1.027   3.368
    1   AR   Ar   77   1.954   6.948   5.224
    1   AR   Ar   78   2.110   0.952   5.888
    1   AR   Ar   79   2.775   7.051   6.327
    1   AR   Ar   80   2.781   1.179   5.136
    1   AR   Ar   81   1.800   1.721   0.476
    1   AR   Ar   82   1.470   2.693   0.759
    1   AR   Ar   83   2.415   1.989   1.221
    1   AR   Ar   84   2.550   3.047  -0.144
    1   AR   Ar   85   1.668   1.919   2.045
    1   AR   Ar   86   1.742   2.962   2.734
    1   AR   Ar   87   2.808   1.344   2.370
    1   AR   Ar   88   2.544   2.888   2.018
    1   AR   Ar   89   1.718   1.665   3.026
    1   AR   Ar   90   2.108   3.144   4.685
    1   AR   Ar   91   2.569   1.774   4.384
    1   AR   Ar   92   2.329   2.425   3.549
    1   AR   Ar   93   1.901   1.859   5.106
    1   AR   Ar   94   2.386   2.930   6.334
    1   AR   Ar   95   2.685   1.816   6.091
    1   AR   Ar   96   2.893   2.513   5.300
    1   AR   Ar   97   1.630   3.838   0.176
    1   AR   Ar   98   2.029   4.202   1.167
    1   AR   Ar   99   2.677   3.296   1.017
    1   AR   Ar  100   2.808   4.696   0.073
    1   AR   Ar  101   1.672   3.224   1.607
    1   AR   Ar  102   1.675   4.662   2.939
    1   AR   Ar  103   2.249   3.864   2.628
    1   AR   Ar  104   3.004   4.633   1.511
    1   AR   Ar  105   1.837   3.390   3.728
    1   AR   Ar  106   1.789   4.339   4.037
    1   AR   Ar  107   2.779   4.092   4.395
    1   AR   Ar  108   2.722   4.758   3.365
    1   AR   Ar  109   1.412   3.906   4.893
    1   AR   Ar  110   1.938   4.345   5.879
    1   AR   Ar  111   3.182   4.283   6.420
    1   AR   Ar  112   2.793   5.044   5.629
    1   AR   Ar  113   1.919   5.370   0.399
    1   AR   Ar  114   1.567   6.006   1.177
    1   AR   Ar  115   2.763   5.538   1.135
    1   AR   Ar  116   2.924   6.816  -0.503
    1   AR   Ar  117   1.723   5.051   1.604
    1   AR   Ar  118   1.984   6.013   2.666
    1   AR   Ar  119   2.703   5.218   2.363
    1   AR   Ar  120   2.632   6.439   1.566
    1   AR   Ar  121   1.627   5.395   3.879
    1   AR   Ar  122   1.932   6.029   4.717
    1   AR   Ar  123   2.659   5.396   4.242
    1   AR   Ar  124   2.439   6.271   3.540
    1   AR   Ar  125   1.786   5.045   4.877
    1   AR   Ar  126   1.620   6.769   6.196
    1   AR   Ar  127   2.537   5.628   6.761
    1   AR   Ar  128   2.327   6.087   5.578
    1   AR   Ar  129   3.396   6.898   0.854
    1   AR   Ar  130   3.885   0.789   0.866
    1   AR   Ar  131   4.360   6.983   1.152
    1   AR   Ar  132   4.424   1.395  -0.669
    1   AR   Ar  133   3.278   0.072   2.404
    1   AR   Ar  134   3.679   0.991   2.816
    1   AR   Ar  135   4.311   0.229   2.966
    1   AR   Ar  136   4.047   0.495   1.927
    1   AR   Ar  137   3.032   7.080   3.369
    1   AR   Ar  138   3.362   0.430   4.221
    1   AR   Ar  139   4.415   0.215   4.488
    1   AR   Ar  140   4.364   0.906   3.784
    1   AR   Ar  141   3.280   7.005   5.245
    1   AR   Ar  142   3.260   0.897   6.100
    1   AR   Ar  143   4.160   0.159   6.588
    1   AR   Ar  144   4.129   0.871   5.374
    1   AR   Ar  145   3.548   1.463   0.053
    1   AR   Ar  146   3.426   2.619   0.972
    1   AR   Ar  147   4.345   1.927   0.698
    1   AR   Ar  148   5.271   2.708   0.201
    1   AR   Ar  149   3.837   1.660   1.797
    1   AR   Ar  150   3.218   2.256   2.427
    1   AR   Ar  151   4.341   2.143   3.074
    1   AR   Ar  152   4.195   2.773   1.735
    1   AR   Ar  153   3.402   1.865   3.343
    1   AR   Ar  154   3.064   2.810   4.228
    1   AR   Ar  155   4.365   2.019   4.293
    1   AR   Ar  156   4.616   2.941   3.965
    1   AR   Ar  157   3.675   1.950   5.147
    1   AR   Ar  158   3.434   3.244   6.265
    1   AR   Ar  159   4.438   1.320   6.267
    1   AR   Ar  160   3.984   3.162   5.374
    1   AR   Ar  161   3.532   3.614   0.327
    1   AR   Ar  162   3.749   4.520   0.765
    1   AR   Ar  163   4.506   3.807   0.941
    1   AR   Ar  164   4.809   4.755   0.589
    1   AR   Ar  165   3.548   3.671   1.686
    1   AR   Ar  166   3.439   4.475   2.638
    1   AR   Ar  167   3.981   3.065   2.967
    1   AR   Ar  168   4.287   4.543   1.664
    1   AR   Ar  169   3.018   3.267   3.247
    1   AR   Ar  170   3.513   4.778   4.350
    1   AR   Ar  171   3.853   3.584   4.275
    1   AR   Ar  172   4.595   4.210   3.654
    1   AR   Ar  173   2.847   3.623   5.297
    1   AR   Ar  174   3.885   5.069   6.117
    1   AR   Ar  175   4.371   3.808   6.070
    1   AR   Ar  176   4.266   4.801   5.087
    1   AR   Ar  177   3.635   5.684   0.174
    1   AR   Ar  178   3.674   6.202   1.491
    1   AR   Ar  179   4.340   5.413   1.154
    1   AR   Ar  180   4.683   6.552   0.080
    1   AR   Ar  181   3.873   5.413   2.144
    1   AR   Ar  182   3.126   6.218   2.776
    1   AR   Ar  183   4.457   5.299   3.065
    1   AR   Ar  184   4.457   6.230   2.230
    1   AR   Ar  185   3.467   5.351   3.423
    1   AR   Ar  186   3.239   6.383   4.210
    1   AR   Ar  187   4.389   5.399   4.210
    1   AR   Ar  188   4.194   6.298   3.493
    1   AR   Ar  189   3.578   5.605   5.038
    1   AR   Ar  190   3.389   6.248   5.973
    1   AR   Ar  191   4.448   5.780   5.712
    1   AR   Ar  192   4.293   6.968   5.546
    1   AR   Ar  193   4.973   0.477   0.378
    1   AR   Ar  194   4.879   1.120   1.399
    1   AR   Ar  195   6.044   0.330   1.242
    1   AR   Ar  196   5.628   1.335   0.619
    1   AR   Ar  197   5.092   0.093   2.025
    1   AR   Ar  198   5.312   1.006   2.883
    1   AR   Ar  199   6.086   0.306   2.300
    1   AR   Ar  200   5.891   1.255   1.661
    1   AR   Ar  201   5.385   0.234   3.742
    1   AR   Ar  202   5.113   1.036   4.515
    1   AR   Ar  203   6.416   0.305   4.372
    1   AR   Ar  204   6.334   0.442   3.272
    1   AR   Ar  205   5.185   0.259   5.231
    1   AR   Ar  206   5.366   0.527   6.239
    1   AR   Ar  207   6.181   6.860   5.831
    1   AR   Ar  208   5.919   0.960   5.160
    1   AR   Ar  209   5.942   2.153  -0.654
    1   AR   Ar  210   5.494   2.252   1.386
    1   AR   Ar  211   6.618   1.922   0.480
    1   AR   Ar  212   6.449   2.968   0.219
    1   AR   Ar  213   5.247   1.933   2.444
    1   AR   Ar  214   5.415   2.940   2.265
    1   AR   Ar  215   6.253   1.438   2.781
    1   AR   Ar  216   6.605   2.944   1.307
    1   AR   Ar  217   5.130   1.607   3.681
    1   AR   Ar  218   6.036   2.719   4.448
    1   AR   Ar  219   6.125   1.794   3.835
    1   AR   Ar  220   5.568   2.499   3.280
    1   AR   Ar  221   5.388   2.126   5.292
    1   AR   Ar  222   4.744   2.583   5.990
    1   AR   Ar  223   6.311   2.157   6.268
    1   AR   Ar  224   6.382   2.882   5.479
    1   AR   Ar  225   5.587   3.709  -0.095
    1   AR   Ar  226   5.238   4.193   1.483
    1   AR   Ar  227   6.284   3.973   0.751
    1   AR   Ar  228   5.791   4.853   0.095
    1   AR   Ar  229   5.194   3.211   1.414
    1   AR   Ar  230   5.151   4.209   2.644
    1   AR   Ar  231   6.398   3.412   3.054
    1   AR   Ar  232   6.082   3.669   2.014
    1   AR   Ar  233   5.394   3.550   3.627
    1   AR   Ar  234   5.840   4.352   4.044
    1   AR   Ar  235   6.657   3.514   4.467
    1   AR   Ar  236   6.944   4.276   3.657
    1   AR   Ar  237   5.257   3.343   5.283
    1   AR   Ar  238   5.107   4.421   5.805
    1   AR   Ar  239   6.135   4.044   6.284
    1   AR   Ar  240   6.074   4.141   5.097
    1   AR   Ar  241   5.367   5.666   0.472
    1   AR   Ar  242   5.289   6.217   1.454
    1   AR   Ar  243   6.160   4.922   1.431
    1   AR   Ar  244   6.119   6.474   0.578
    1   AR   Ar  245   5.430   5.109   2.173
    1   AR   Ar  246   5.484   6.346   2.967
    1   AR   Ar  247   6.157   4.483   2.701
    1   AR   Ar  248   6.384   6.425   1.935
    1   AR   Ar  249   6.020   5.296   3.186
    1   AR   Ar  250   4.843   6.244   4.744
    1   AR   Ar  251   6.418   5.126   4.319
    1   AR   Ar  252   6.032   6.263   3.887
    1   AR   Ar  253   5.263   5.364   4.814
    1   AR   Ar  254   5.388   5.964   6.106
    1   AR   Ar  255   6.104   5.175   5.847
    1   AR   Ar  256   5.891   6.317   4.939
    7.12000  7.12000 12.00000
Argon-slab step 225
  256
    1   AR   Ar    1   0.238   6.967  -0.129
    1   AR   Ar    2   0.029   0.526   0.808
    1   AR   Ar    3   0.653   6.610   1.150
    1   AR   Ar    4   1.068   0.830   0.239
    1   AR   Ar    5   7.012   0.146   1.710
    1   AR   Ar    6   0.134   0.752   2.636
    1   AR   Ar    7   1.162   6.817   2.651
    1   AR   Ar    8   0.892   0.963   1.819
    1   AR   Ar    9   0.136   0.016   3.824
    1   AR   Ar   10   6.962   1.138   4.029
    1   AR   Ar   11   1.087   0.144   4.443
    1   AR   Ar   12   0.993   0.660   3.454
    1   AR   Ar   13   6.911   0.323   5.411
    1   AR   Ar   14   0.558   1.535   5.699
    1   AR   Ar   15   1.067   7.088   7.205
    1   AR   Ar   16   1.281   0.687   5.256
    1   AR   Ar   17   0.321   1.602  -0.225
    1   AR   Ar   18   0.280   2.623   0.716
    1   AR   Ar   19   0.776   1.570   0.941
    1   AR   Ar   20   1.264   2.398  -0.437
    1   AR   Ar   21   0.000   1.337   1.838
    1   AR   Ar   22   7.032   2.668   2.452
    1   AR   Ar   23   0.758   1.693   2.551
    1   AR   Ar   24   0.680   2.639   1.911
    1   AR   Ar   25   0.533   1.788   3.711
    1   AR   Ar   26   7.031   2.434   4.364
    1   AR   Ar   27   0.743   1.861   4.730
    1   AR   Ar   28   1.430   2.442   4.128
    1   AR   Ar   29   6.763   1.842   5.171
    1   AR   Ar   30   0.447   2.399   6.233
    1   AR   Ar   31   1.314   1.694   6.691
    1   AR   Ar   32   1.156   2.770   5.265
    1   AR   Ar   33   0.337   3.737  -0.186
    1   AR   Ar   34   0.062   4.415   1.148
    1   AR   Ar   35   0.710   3.637   1.082
    1   AR   Ar   36   0.913   4.884  -0.142
    1   AR   Ar   37   0.016   3.699   1.896
    1   AR   Ar   38   0.305   4.699   2.863
    1   AR   Ar   39   0.745   3.512   2.642
    1   AR   Ar   40   1.042   4.290   1.852
    1   AR   Ar   41   0.333   2.969   3.627
    1   AR   Ar   42   0.077   4.389   4.781
    1   AR   Ar   43   0.575   3.366   4.581
    1   AR   Ar   44   0.894   3.991   3.729
    1   AR   Ar   45   7.074   3.684   5.642
    1   AR   Ar   46   0.227   5.045   6.391
    1   AR   Ar   47   1.069   3.452   6.260
    1   AR   Ar   48   0.795   4.576   5.583
    1   AR   Ar   49   7.016   4.737   0.077
    1   AR   Ar   50   7.001   5.426   1.039
    1   AR   Ar   51   1.200   4.642   0.822
    1   AR   Ar   52   0.782   5.648   0.510
    1   AR   Ar   53   6.798   5.451   2.193
    1   AR   Ar   54   6.887   6.815   2.870
    1   AR   Ar   55   1.081   5.431   2.749
    1   AR   Ar   56   0.658   5.706   1.710
    1   AR   Ar   57   0.397   5.310   3.790
    1   AR   Ar   58   6.892   6.135   4.323
    1   AR   Ar   59   0.892   5.492   4.940
    1   AR   Ar   60   0.986   6.192   4.059
    1   AR   Ar   61   7.023   5.586   5.396
    1   AR   Ar   62   0.356   6.110   6.174
    1   AR   Ar   63   1.610   5.356   5.879
    1   AR   Ar   64   0.983   6.592   5.174
    1   AR   Ar   65   1.429   6.614  -0.129
    1   AR   Ar   66   1.898   1.046   1.601
    1   AR   Ar   67   2.324   6.381   0.429
    1   AR   Ar   68   2.866   1.090   0.751
    1   AR   Ar   69   1.663   7.093   1.405
    1   AR   Ar   70   1.752   0.744   2.553
    1   AR   Ar   71   2.298   7.028   2.485
    1   AR   Ar   72   2.733   0.387   1.445
    1   AR   Ar   73   1.764   7.044   3.575
    1   AR   Ar   74   1.347   1.315   4.112
    1   AR   Ar   75   2.385   7.087   4.307
    1   AR   Ar   76   2.476   1.032   3.371
    1   AR   Ar   77   1.941   6.954   5.225
    1   AR   Ar   78   2.130   0.943   5.832
    1   AR   Ar   79   2.773   7.032   6.353
    1   AR   Ar   80   2.763   1.187   5.135
    1   AR   Ar   81   1.781   1.726   0.451
    1   AR   Ar   82   1.461   2.702   0.748
    1   AR   Ar   83   2.443   1.971   1.239
    1   AR   Ar   84   2.554   3.054  -0.153
    1   AR   Ar   85   1.683   1.886   2.033
    1   AR   Ar   86   1.762   2.933   2.732
    1   AR   Ar   87   2.831   1.333   2.410
    1   AR   Ar   88   2.550   2.917   2.018
    1   AR   Ar   89   1.719   1.672   2.999
    1   AR   Ar   90   2.093   3.157   4.687
    1   AR   Ar   91   2.578   1.791   4.351
    1   AR   Ar   92   2.340   2.432   3.539
    1   AR   Ar   93   1.906   1.852   5.099
    1   AR   Ar   94   2.389   2.956   6.338
    1   AR   Ar   95   2.693   1.800   6.102
    1   AR   Ar   96   2.870   2.506   5.319
    1   AR   Ar   97   1.613   3.826   0.171
    1   AR   Ar   98   2.053   4.187   1.205
    1   AR   Ar   99   2.663   3.297   1.024
    1   AR   Ar  100   2.818   4.680   0.103
    1   AR   Ar  101   1.693   3.196   1.605
    1   AR   Ar  102   1.663   4.684   2.911
    1   AR   Ar  103   2.238   3.852   2.626
    1   AR   Ar  104   3.021   4.615   1.530
    1   AR   Ar  105   1.838   3.399   3.717
    1   AR   Ar  106   1.820   4.326   4.033
    1   AR   Ar  107   2.766   4.123   4.400
    1   AR   Ar  108   2.699   4.741   3.361
    1   AR   Ar  109   1.412   3.892   4.917
    1   AR   Ar  110   1.945   4.326   5.864
    1   AR   Ar  111   3.211   4.311   6.424
    1   AR   Ar  112   2.752   5.068   5.613
    1   AR   Ar  113   1.939   5.368   0.418
    1   AR   Ar  114   1.551   6.024   1.173
    1   AR   Ar  115   2.774   5.505   1.117
    1   AR   Ar  116   2.936   6.846  -0.499
    1   AR   Ar  117   1.707   5.047   1.631
    1   AR   Ar  118   1.965   6.014   2.674
    1   AR   Ar  119   2.705   5.181   2.341
    1   AR   Ar  120   2.627   6.447   1.600
    1   AR   Ar  121   1.602   5.375   3.887
    1   AR   Ar  122   1.918   6.027   4.691
    1   AR   Ar  123   2.649   5.376   4.196
    1   AR   Ar  124   2.441   6.288   3.534
    1   AR   Ar  125   1.788   5.024   4.856
    1   AR   Ar  126   1.588   6.775   6.192
    1   AR   Ar  127   2.525   5.601   6.781
    1   AR   Ar  128   2.340   6.098   5.587
    1   AR   Ar  129   3.388   6.911   0.878
    1   AR   Ar  130   3.848   0.792   0.865
    1   AR   Ar  131   4.363   6.976   1.124
    1   AR   Ar  132   4.417   1.406  -0.666
    1   AR   Ar  133   3.269   0.071   2.415
    1   AR   Ar  134   3.676   0.974   2.807
    1   AR   Ar  135   4.280   0.191   2.986
    1   AR   Ar  136   4.086   0.498   1.906
    1   AR   Ar  137   3.040   7.085   3.403
    1   AR   Ar  138   3.357   0.420   4.223
    1   AR   Ar  139   4.373   0.227   4.456
    1   AR   Ar  140   4.348   0.915   3.788
    1   AR   Ar  141   3.253   6.997   5.261
    1   AR   Ar  142   3.261   0.903   6.103
    1   AR   Ar  143   4.117   0.182   6.610
    1   AR   Ar  144   4.125   0.876   5.365
    1   AR   Ar  145   3.561   1.458   0.077
    1   AR   Ar  146   3.423   2.615   0.971
    1   AR   Ar  147   4.331   1.906   0.720
    1   AR   Ar  148   5.268   2.720   0.201
    1   AR   Ar  149   3.855   1.642   1.804
    1   AR   Ar  150   3.217   2.253   2.393
    1   AR   Ar  151   4.325   2.137   3.052
    1   AR   Ar  152   4.210   2.759   1.728
    1   AR   Ar  153   3.395   1.864   3.336
    1   AR   Ar  154   3.056   2.801   4.201
    1   AR   Ar  155   4.352   2.040   4.295
    1   AR   Ar  156   4.606   2.947   3.966
    1   AR   Ar  157   3.652   1.938   5.148
    1   AR   Ar  158   3.423   3.270   6.251
    1   AR   Ar  159   4.454   1.329   6.311
    1   AR   Ar  160   3.979   3.155   5.363
    1   AR   Ar  161   3.551   3.625   0.356
    1   AR   Ar  162   3.743   4.518   0.744
    1   AR   Ar  163   4.494   3.802   0.937
    1   AR   Ar  164   4.798   4.752   0.621
    1   AR   Ar  165   3.552   3.669   1.701
    1   AR   Ar  166   3.473   4.484   2.654
    1   AR   Ar  167   3.986   3.064   2.971
    1   AR   Ar  168   4.247   4.546   1.660
    1   AR   Ar  169   3.021   3.279   3.253
    1   AR   Ar  170   3.480   4.787   4.350
    1   AR   Ar  171   3.846   3.579   4.298
    1   AR   Ar  172   4.592   4.193   3.673
    1   AR   Ar  173   2.819   3.597   5.299
    1   AR   Ar  174   3.906   5.078   6.146
    1   AR   Ar  175   4.332   3.820   6.091
    1   AR   Ar  176   4.273   4.820   5.120
    1   AR   Ar  177   3.657   5.677   0.157
    1   AR   Ar  178   3.681   6.213   1.495
    1   AR   Ar  179   4.317   5.426   1.161
    1   AR   Ar  180   4.686   6.575   0.083
    1   AR   Ar  181   3.896   5.436   2.151
    1   AR   Ar  182   3.122   6.207   2.779
    1   AR   Ar  183   4.467   5.324   3.057
    1   AR   Ar  184   4.462   6.244   2.234
    1   AR   Ar  185   3.456   5.369   3.398
    1   AR   Ar  186   3.251   6.371   4.189
    1   AR   Ar  187   4.391   5.389   4.170
    1   AR   Ar  188   4.163   6.339   3.489
    1   AR   Ar  189   3.555   5.610   5.052
    1   AR   Ar  190   3.365   6.237   5.981
    1   AR   Ar  191   4.460   5.787   5.729
    1   AR   Ar  192   4.261   6.967   5.564
    1   AR   Ar  193   4.972   0.465   0.393
    1   AR   Ar  194   4.869   1.093   1.379
    1   AR   Ar  195   6.052   0.343   1.238
    1   AR   Ar  196   5.621   1.353   0.620
    1   AR   Ar  197   5.087   0.102   2.031
    1   AR   Ar  198   5.338   0.968   2.903
    1   AR   Ar  199   6.092   0.318   2.311
    1   AR   Ar  200   5.889   1.278   1.665
    1   AR   Ar  201   5.389   0.247   3.737
    1   AR   Ar  202   5.137   1.046   4.507
    1   AR   Ar  203   6.408   0.283   4.341
    1   AR   Ar  204   6.355   0.446   3.250
    1   AR   Ar  205   5.199   0.266   5.250
    1   AR   Ar  206   5.350   0.514   6.204
    1   AR   Ar  207   6.178   6.842   5.826
    1   AR   Ar  208   5.907   0.964   5.173
    1   AR   Ar  209   5.965   2.169  -0.698
    1   AR   Ar  210   5.498   2.278   1.432
    1   AR   Ar  211   6.640   1.943   0.465
    1   AR   Ar  212   6.480   2.977   0.224
    1   AR   Ar  213   5.272   1.950   2.457
    1   AR   Ar  214   5.404   2.963   2.266
    1   AR   Ar  215   6.231   1.437   2.790
    1   AR   Ar  216   6.604   2.937   1.308
    1   AR   Ar  217   5.075   1.595   3.671
    1   AR   Ar  218   6.057   2.700   4.439
    1   AR   Ar  219   6.121   1.803   3.818
    1   AR   Ar  220   5.527   2.506   3.277
    1   AR   Ar  221   5.382   2.127   5.310
    1   AR   Ar  222   4.720   2.574   5.993
    1   AR   Ar  223   6.312   2.180   6.262
    1   AR   Ar  224   6.371   2.882   5.482
    1   AR   Ar  225   5.592   3.719  -0.091
    1   AR   Ar  226   5.229   4.185   1.484
    1   AR   Ar  227   6.297   3.979   0.748
    1   AR   Ar  228   5.816   4.853   0.116
    1   AR   Ar  229   5.226   3.187   1.364
    1   AR   Ar  230   5.141   4.220   2.651
    1   AR   Ar  231   6.414   3.419   3.085
    1   AR   Ar  232   6.071   3.639   2.010
    1   AR   Ar  233   5.398   3.536   3.619
    1   AR   Ar  234   5.860   4.379   4.035
    1   AR   Ar  235   6.646   3.531   4.462
    1   AR   Ar  236   6.965   4.237   3.637
    1   AR   Ar  237   5.219   3.325   5.283
    1   AR   Ar  238   5.104   4.399   5.786
    1   AR   Ar  239   6.110   4.049   6.286
    1   AR   Ar  240   6.058   4.134   5.096
    1   AR   Ar  241   5.341   5.698   0.482
    1   AR   Ar  242   5.277   6.213   1.470
    1   AR   Ar  243   6.168   4.920   1.467
    1   AR   Ar  244   6.100   6.496   0.601
    1   AR   Ar  245   5.427   5.089   2.175
    1   AR   Ar  246   5.512   6.312   2.972
    1   AR   Ar  247   6.184   4.469   2.702
    1   AR   Ar  248   6.382   6.397   1.927
    1   AR   Ar  249   6.017   5.308   3.204
    1   AR   Ar  250   4.839   6.218   4.778
    1   AR   Ar  251   6.419   5.169   4.312
    1   AR   Ar  252   6.027   6.258   3.873
    1   AR   Ar  253   5.270   5.353   4.798
    1   AR   Ar  254   5.372   5.977   6.110
    1   AR   Ar  255   6.102   5.147   5.841
    1   AR   Ar  256   5.884   6.343   4.951
    7.12000  7.12000 12.00000
Argon-slab step 230
  256
    1   AR   Ar    1   0.251   6.997  -0.182
    1   AR   Ar    2   0.007   0.527   0.811
    1   AR   Ar    3   0.630   6.616   1.137
    1   AR   Ar    4   1.065   0.866   0.230
    1   AR   Ar    5   7.026   0.155   1.739
    1   AR   Ar    6   0.110   0.708   2.629
    1   AR   Ar    7   1.178   6.843   2.675
    1   AR   Ar    8   0.893   0.941   1.823
    1   AR   Ar    9   0.119   0.006   3.805
    1   AR   Ar   10   6.955   1.148   4.015
    1   AR   Ar   11   1.108   0.165   4.454
    1   AR   Ar   12   1.006   0.666   3.429
    1   AR   Ar   13   6.905   0.294   5.420
    1   AR   Ar   14   0.568   1.522   5.685
    1   AR   Ar   15   1.120   7.087   7.215
    1   AR   Ar   16   1.281   0.694   5.251
    1   AR   Ar   17   0.310   1.628  -0.197
    1   AR   Ar   18   0.265   2.594   0.725
    1   AR   Ar   19   0.761   1.577   0.952
    1   AR   Ar   20   1.240   2.400  -0.486
    1   AR   Ar   21   0.002   1.317   1.844
    1   AR   Ar   22   7.017   2.665   2.450
    1   AR   Ar   23   0.719   1.703   2.530
    1   AR   Ar   24   0.731   2.616   1.910
    1   AR   Ar   25   0.512   1.765   3.703
    1   AR   Ar   26   7.080   2.442   4.359
    1   AR   Ar   27   0.737   1.870   4.730
    1   AR   Ar   28   1.435   2.421   4.167
    1   AR   Ar   29   6.761   1.819   5.186
    1   AR   Ar   30   0.437   2.423   6.233
    1   AR   Ar   31   1.280   1.715   6.687
    1   AR   Ar   32   1.152   2.755   5.263
    1   AR   Ar   33   0.334   3.734  -0.192
    1   AR   Ar   34   0.080   4.410   1.192
    1   AR   Ar   35   0.700   3.612   1.074
    1   AR   Ar   36   0.897   4.861  -0.119
    1   AR   Ar   37   0.030   3.690   1.897
    1   AR   Ar   38   0.331   4.661   2.839
    1   AR   Ar   39   0.717   3.500   2.654
    1   AR   Ar   40   1.028   4.256   1.890
    1   AR   Ar   41   0.351   2.982   3.611
    1   AR   Ar   42   0.089   4.382   4.824
    1   AR   Ar   43   0.576   3.341   4.598
    1   AR   Ar   44   0.870   3.992   3.752
    1   AR   Ar   45   7.074   3.695   5.661
    1   AR   Ar   46   0.232   5.052   6.379
    1   AR   Ar   47   1.076   3.432   6.240
    1   AR   Ar   48   0.778   4.559   5.603
    1   AR   Ar   49   6.998   4.716   0.098
    1   AR   Ar   50   6.954   5.405   1.051
    1   AR   Ar   51   1.183   4.636   0.864
    1   AR   Ar   52   0.798   5.650   0.540
    1   AR   Ar   53   6.790   5.466   2.195
    1   AR   Ar   54   6.920   6.821   2.916
    1   AR   Ar   55   1.045   5.465   2.752
    1   AR   Ar   56   0.634   5.686   1.651
    1   AR   Ar   57   0.383   5.300   3.822
    1   AR   Ar   58   6.906   6.086   4.304
    1   AR   Ar   59   0.870   5.477   4.955
    1   AR   Ar   60   0.999   6.210   4.088
    1   AR   Ar   61   7.023   5.625   5.417
    1   AR   Ar   62   0.362   6.121   6.182
    1   AR   Ar   63   1.622   5.338   5.859
    1   AR   Ar   64   0.965   6.590   5.179
    1   AR   Ar   65   1.415   6.622  -0.131
    1   AR   Ar   66   1.875   1.037   1.558
    1   AR   Ar   67   2.325   6.375   0.414
    1   AR   Ar   68   2.893   1.100   0.792
    1   AR   Ar   69   1.642   7.077   1.381
    1   AR   Ar   70   1.742   0.719   2.562
    1   AR   Ar   71   2.306   7.027   2.465
    1   AR   Ar   72   2.769   0.367   1.465
    1   AR   Ar   73   1.767   7.056   3.567
    1   AR   Ar   74   1.310   1.309   4.106
    1   AR   Ar   75   2.406   7.084   4.333
    1   AR   Ar   76   2.485   1.033   3.379
    1   AR   Ar   77   1.931   6.970   5.226
    1   AR   Ar   78   2.141   0.927   5.788
    1   AR   Ar   79   2.769   7.015   6.376
    1   AR   Ar   80   2.752   1.204   5.127
    1   AR   Ar   81   1.760   1.728   0.425
    1   AR   Ar   82   1.449   2.709   0.733
    1   AR   Ar   83   2.474   1.955   1.260
    1   AR   Ar   84   2.564   3.052  -0.163
    1   AR   Ar   85   1.695   1.872   2.017
    1   AR   Ar   86   1.766   2.906   2.738
    1   AR   Ar   87   2.830   1.331   2.426
    1   AR   Ar   88   2.562   2.947   2.021
    1   AR   Ar   89   1.720   1.683   2.986
    1   AR   Ar   90   2.080   3.163   4.691
    1   AR   Ar   91   2.569   1.797   4.345
    1   AR   Ar   92   2.351   2.438   3.524
    1   AR   Ar   93   1.903   1.847   5.097
    1   AR   Ar   94   2.392   2.968   6.316
    1   AR   Ar   95   2.700   1.807   6.101
    1   AR   Ar   96   2.836   2.508   5.337
    1   AR   Ar   97   1.618   3.819   0.177
    1   AR   Ar   98   2.081   4.165   1.241
    1   AR   Ar   99   2.645   3.302   1.029
    1   AR   Ar  100   2.828   4.664   0.135
    1   AR   Ar  101   1.705   3.174   1.604
    1   AR   Ar  102   1.659   4.694   2.888
    1   AR   Ar  103   2.233   3.841   2.622
    1   AR   Ar  104   3.041   4.590   1.551
    1   AR   Ar  105   1.842   3.389   3.702
    1   AR   Ar  106   1.852   4.328   4.029
    1   AR   Ar  107   2.746   4.144   4.402
    1   AR   Ar  108   2.664   4.714   3.356
    1   AR   Ar  109   1.410   3.884   4.944
    1   AR   Ar  110   1.951   4.305   5.847
    1   AR   Ar  111   3.239   4.340   6.426
    1   AR   Ar  112   2.712   5.092   5.597
    1   AR   Ar  113   1.958   5.362   0.437
    1   AR   Ar  114   1.540   6.044   1.176
    1   AR   Ar  115   2.784   5.476   1.096
    1   AR   Ar  116   2.948   6.877  -0.493
    1   AR   Ar  117   1.696   5.053   1.663
    1   AR   Ar  118   1.959   6.020   2.691
    1   AR   Ar  119   2.705   5.149   2.322
    1   AR   Ar  120   2.620   6.454   1.635
    1   AR   Ar  121   1.577   5.354   3.889
    1   AR   Ar  122   1.899   6.031   4.653
    1   AR   Ar  123   2.638   5.360   4.152
    1   AR   Ar  124   2.438   6.294   3.537
    1   AR   Ar  125   1.796   4.991   4.839
    1   AR   Ar  126   1.556   6.780   6.191
    1   AR   Ar  127   2.513   5.575   6.798
    1   AR   Ar  128   2.361   6.106   5.608
    1   AR   Ar  129   3.370   6.944   0.882
    1   AR   Ar  130   3.818   0.795   0.866
    1   AR   Ar  131   4.378   6.966   1.097
    1   AR   Ar  132   4.410   1.417  -0.662
    1   AR   Ar  133   3.270   0.071   2.418
    1   AR   Ar  134   3.677   0.961   2.802
    1   AR   Ar  135   4.256   0.147   3.005
    1   AR   Ar  136   4.126   0.504   1.886
    1   AR   Ar  137   3.046   7.089   3.432
    1   AR   Ar  138   3.354   0.418   4.235
    1   AR   Ar  139   4.335   0.223   4.439
    1   AR   Ar  140   4.332   0.938   3.787
    1   AR   Ar  141   3.221   6.992   5.272
    1   AR   Ar  142   3.264   0.906   6.104
    1   AR   Ar  143   4.073   0.205   6.630
    1   AR   Ar  144   4.120   0.882   5.353
    1   AR   Ar  145   3.576   1.456   0.097
    1   AR   Ar  146   3.428   2.625   0.958
    1   AR   Ar  147   4.319   1.885   0.744
    1   AR   Ar  148   5.266   2.732   0.204
    1   AR   Ar  149   3.876   1.621   1.808
    1   AR   Ar  150   3.223   2.258   2.358
    1   AR   Ar  151   4.320   2.122   3.028
    1   AR   Ar  152   4.226   2.745   1.722
    1   AR   Ar  153   3.380   1.861   3.338
    1   AR   Ar  154   3.067   2.794   4.194
    1   AR   Ar  155   4.334   2.053   4.300
    1   AR   Ar  156   4.600   2.957   3.961
    1   AR   Ar  157   3.638   1.918   5.147
    1   AR   Ar  158   3.411   3.294   6.237
    1   AR   Ar  159   4.469   1.336   6.354
    1   AR   Ar  160   3.973   3.143   5.346
    1   AR   Ar  161   3.567   3.627   0.382
    1   AR   Ar  162   3.735   4.528   0.723
    1   AR   Ar  163   4.473   3.787   0.928
    1   AR   Ar  164   4.793   4.751   0.640
    1   AR   Ar  165   3.555   3.667   1.716
    1   AR   Ar  166   3.510   4.493   2.669
    1   AR   Ar  167   3.991   3.072   2.972
    1   AR   Ar  168   4.206   4.545   1.665
    1   AR   Ar  169   3.025   3.284   3.257
    1   AR   Ar  170   3.459   4.802   4.347
    1   AR   Ar  171   3.836   3.579   4.322
    1   AR   Ar  172   4.586   4.179   3.692
    1   AR   Ar  173   2.794   3.572   5.307
    1   AR   Ar  174   3.922   5.081   6.177
    1   AR   Ar  175   4.290   3.831   6.115
    1   AR   Ar  176   4.266   4.844   5.151
    1   AR   Ar  177   3.679   5.669   0.143
    1   AR   Ar  178   3.702   6.220   1.499
    1   AR   Ar  179   4.312   5.430   1.175
    1   AR   Ar  180   4.688   6.596   0.087
    1   AR   Ar  181   3.909   5.447   2.162
    1   AR   Ar  182   3.122   6.192   2.776
    1   AR   Ar  183   4.481   5.348   3.048
    1   AR   Ar  184   4.475   6.268   2.242
    1   AR   Ar  185   3.453   5.395   3.373
    1   AR   Ar  186   3.267   6.358   4.172
    1   AR   Ar  187   4.391   5.380   4.128
    1   AR   Ar  188   4.131   6.378   3.485
    1   AR   Ar  189   3.532   5.618   5.065
    1   AR   Ar  190   3.344   6.220   5.989
    1   AR   Ar  191   4.471   5.801   5.737
    1   AR   Ar  192   4.231   6.962   5.582
    1   AR   Ar  193   4.971   0.454   0.410
    1   AR   Ar  194   4.856   1.066   1.359
    1   AR   Ar  195   6.059   0.352   1.231
    1   AR   Ar  196   5.615   1.371   0.620
    1   AR   Ar  197   5.088   0.115   2.060
    1   AR   Ar  198   5.359   0.921   2.919
    1   AR   Ar  199   6.094   0.332   2.308
    1   AR   Ar  200   5.890   1.303   1.675
    1   AR   Ar  201   5.392   0.258   3.734
    1   AR   Ar  202   5.158   1.054   4.502
    1   AR   Ar  203   6.393   0.259   4.314
    1   AR   Ar  204   6.375   0.459   3.244
    1   AR   Ar  205   5.208   0.262   5.260
    1   AR   Ar  206   5.335   0.503   6.177
    1   AR   Ar  207   6.172   6.823   5.826
    1   AR   Ar  208   5.907   0.974   5.190
    1   AR   Ar  209   5.987   2.186  -0.739
    1   AR   Ar  210   5.484   2.238   1.443
    1   AR   Ar  211   6.659   1.959   0.451
    1   AR   Ar  212   6.509   2.988   0.226
    1   AR   Ar  213   5.295   1.960   2.466
    1   AR   Ar  214   5.390   2.977   2.294
    1   AR   Ar  215   6.215   1.439   2.796
    1   AR   Ar  216   6.600   2.931   1.313
    1   AR   Ar  217   5.026   1.595   3.655
    1   AR   Ar  218   6.066   2.678   4.431
    1   AR   Ar  219   6.119   1.811   3.803
    1   AR   Ar  220   5.486   2.518   3.278
    1   AR   Ar  221   5.379   2.126   5.324
    1   AR   Ar  222   4.694   2.566   5.998
    1   AR   Ar  223   6.314   2.201   6.256
    1   AR   Ar  224   6.367   2.847   5.506
    1   AR   Ar  225   5.598   3.730  -0.085
    1   AR   Ar  226   5.231   4.190   1.493
    1   AR   Ar  227   6.308   3.984   0.747
    1   AR   Ar  228   5.844   4.847   0.137
    1   AR   Ar  229   5.252   3.178   1.288
    1   AR   Ar  230   5.129   4.225   2.659
    1   AR   Ar  231   6.429   3.426   3.117
    1   AR   Ar  232   6.066   3.618   2.002
    1   AR   Ar  233   5.407   3.520   3.607
    1   AR   Ar  234   5.878   4.403   4.023
    1   AR   Ar  235   6.637   3.551   4.453
    1   AR   Ar  236   6.987   4.209   3.625
    1   AR   Ar  237   5.181   3.307   5.284
    1   AR   Ar  238   5.107   4.383   5.764
    1   AR   Ar  239   6.114   4.066   6.312
    1   AR   Ar  240   6.041   4.129   5.099
    1   AR   Ar  241   5.312   5.735   0.494
    1   AR   Ar  242   5.266   6.210   1.486
    1   AR   Ar  243   6.176   4.914   1.499
    1   AR   Ar  244   6.082   6.518   0.627
    1   AR   Ar  245   5.420   5.058   2.178
    1   AR   Ar  246   5.537   6.280   2.973
    1   AR   Ar  247   6.217   4.445   2.698
    1   AR   Ar  248   6.377   6.371   1.917
    1   AR   Ar  249   6.013   5.328   3.229
    1   AR   Ar  250   4.825   6.208   4.811
    1   AR   Ar  251   6.424   5.217   4.307
    1   AR   Ar  252   6.014   6.255   3.856
    1   AR   Ar  253   5.288   5.325   4.785
    1   AR   Ar  254   5.364   5.993   6.115
    1   AR   Ar  255   6.100   5.118   5.834
    1   AR   Ar  256   5.878   6.368   4.962
    7.12000  7.12000 12.00000
Argon-slab step 235
  256
    1   AR   Ar    1   0.265   7.028  -0.232
    1   AR   Ar    2   7.107   0.531   0.806
    1   AR   Ar    3   0.605   6.625   1.123
    1   AR   Ar    4   1.061   0.900   0.220
    1   AR   Ar    5   7.041   0.160   1.774
    1   AR   Ar    6   0.088   0.661   2.632
    1   AR   Ar    7   1.194   6.871   2.698
    1   AR   Ar    8   0.904   0.907   1.828
    1   AR   Ar    9   0.118   7.113   3.807
    1   AR   Ar   10   6.939   1.148   4.006
    1   AR   Ar   11   1.128   0.183   4.447
    1   AR   Ar   12   1.013   0.666   3.393
    1   AR   Ar   13   6.902   0.269   5.425
    1   AR   Ar   14   0.580   1.505   5.674
    1   AR   Ar   15   1.173   7.087   7.223
    1   AR   Ar   16   1.278   0.712   5.255
    1   AR   Ar   17   0.303   1.654  -0.168
    1   AR   Ar   18   0.263   2.570   0.735
    1   AR   Ar   19   0.753   1.585   0.963
    1   AR   Ar   20   1.216   2.401  -0.532
    1   AR   Ar   21   7.118   1.302   1.883
    1   AR   Ar   22   6.993   2.652   2.451
    1   AR   Ar   23   0.680   1.715   2.514
    1   AR   Ar   24   0.766   2.612   1.915
    1   AR   Ar   25   0.496   1.756   3.682
    1   AR   Ar   26   0.005   2.448   4.358
    1   AR   Ar   27   0.731   1.879   4.736
    1   AR   Ar   28   1.441   2.401   4.204
    1   AR   Ar   29   6.757   1.796   5.201
    1   AR   Ar   30   0.427   2.450   6.232
    1   AR   Ar   31   1.238   1.711   6.695
    1   AR   Ar   32   1.130   2.753   5.266
    1   AR   Ar   33   0.331   3.731  -0.195
    1   AR   Ar   34   0.098   4.413   1.233
    1   AR   Ar   35   0.696   3.579   1.062
    1   AR   Ar   36   0.885   4.835  -0.101
    1   AR   Ar   37   0.042   3.676   1.902
    1   AR   Ar   38   0.359   4.622   2.808
    1   AR   Ar   39   0.693   3.487   2.670
    1   AR   Ar   40   1.014   4.220   1.930
    1   AR   Ar   41   0.372   2.999   3.586
    1   AR   Ar   42   0.101   4.377   4.862
    1   AR   Ar   43   0.574   3.315   4.614
    1   AR   Ar   44   0.850   3.992   3.774
    1   AR   Ar   45   7.076   3.706   5.679
    1   AR   Ar   46   0.236   5.060   6.365
    1   AR   Ar   47   1.084   3.411   6.217
    1   AR   Ar   48   0.765   4.541   5.623
    1   AR   Ar   49   6.978   4.696   0.123
    1   AR   Ar   50   6.907   5.390   1.057
    1   AR   Ar   51   1.163   4.629   0.906
    1   AR   Ar   52   0.813   5.654   0.572
    1   AR   Ar   53   6.785   5.476   2.201
    1   AR   Ar   54   6.954   6.813   2.946
    1   AR   Ar   55   1.001   5.509   2.754
    1   AR   Ar   56   0.613   5.663   1.597
    1   AR   Ar   57   0.369   5.288   3.853
    1   AR   Ar   58   6.933   6.048   4.291
    1   AR   Ar   59   0.883   5.458   4.980
    1   AR   Ar   60   1.008   6.232   4.116
    1   AR   Ar   61   7.019   5.661   5.433
    1   AR   Ar   62   0.375   6.134   6.193
    1   AR   Ar   63   1.630   5.333   5.843
    1   AR   Ar   64   0.936   6.575   5.190
    1   AR   Ar   65   1.399   6.629  -0.131
    1   AR   Ar   66   1.862   1.016   1.503
    1   AR   Ar   67   2.328   6.371   0.402
    1   AR   Ar   68   2.905   1.117   0.829
    1   AR   Ar   69   1.660   7.072   1.345
    1   AR   Ar   70   1.726   0.699   2.573
    1   AR   Ar   71   2.307   7.018   2.449
    1   AR   Ar   72   2.799   0.348   1.497
    1   AR   Ar   73   1.763   7.070   3.552
    1   AR   Ar   74   1.288   1.311   4.131
    1   AR   Ar   75   2.434   7.080   4.363
    1   AR   Ar   76   2.495   1.032   3.390
    1   AR   Ar   77   1.924   6.990   5.228
    1   AR   Ar   78   2.139   0.903   5.763
    1   AR   Ar   79   2.763   7.000   6.398
    1   AR   Ar   80   2.742   1.228   5.124
    1   AR   Ar   81   1.740   1.727   0.398
    1   AR   Ar   82   1.434   2.716   0.713
    1   AR   Ar   83   2.506   1.945   1.283
    1   AR   Ar   84   2.575   3.051  -0.170
    1   AR   Ar   85   1.703   1.874   1.998
    1   AR   Ar   86   1.765   2.874   2.742
    1   AR   Ar   87   2.801   1.349   2.407
    1   AR   Ar   88   2.574   2.954   2.015
    1   AR   Ar   89   1.720   1.696   2.987
    1   AR   Ar   90   2.074   3.175   4.669
    1   AR   Ar   91   2.550   1.798   4.352
    1   AR   Ar   92   2.361   2.442   3.505
    1   AR   Ar   93   1.891   1.845   5.101
    1   AR   Ar   94   2.395   2.981   6.286
    1   AR   Ar   95   2.703   1.842   6.085
    1   AR   Ar   96   2.796   2.514   5.353
    1   AR   Ar   97   1.583   3.818   0.201
    1   AR   Ar   98   2.109   4.144   1.277
    1   AR   Ar   99   2.627   3.289   1.035
    1   AR   Ar  100   2.837   4.648   0.170
    1   AR   Ar  101   1.704   3.159   1.605
    1   AR   Ar  102   1.660   4.699   2.866
    1   AR   Ar  103   2.234   3.827   2.619
    1   AR   Ar  104   3.064   4.559   1.570
    1   AR   Ar  105   1.845   3.373   3.681
    1   AR   Ar  106   1.877   4.339   4.021
    1   AR   Ar  107   2.725   4.154   4.408
    1   AR   Ar  108   2.626   4.679   3.349
    1   AR   Ar  109   1.406   3.882   4.975
    1   AR   Ar  110   1.958   4.282   5.828
    1   AR   Ar  111   3.262   4.366   6.427
    1   AR   Ar  112   2.693   5.066   5.608
    1   AR   Ar  113   1.973   5.352   0.455
    1   AR   Ar  114   1.539   6.065   1.204
    1   AR   Ar  115   2.796   5.453   1.074
    1   AR   Ar  116   2.960   6.906  -0.486
    1   AR   Ar  117   1.688   5.067   1.701
    1   AR   Ar  118   1.970   6.036   2.721
    1   AR   Ar  119   2.700   5.123   2.309
    1   AR   Ar  120   2.612   6.457   1.670
    1   AR   Ar  121   1.550   5.331   3.882
    1   AR   Ar  122   1.882   6.038   4.615
    1   AR   Ar  123   2.626   5.360   4.131
    1   AR   Ar  124   2.454   6.306   3.549
    1   AR   Ar  125   1.809   4.954   4.829
    1   AR   Ar  126   1.523   6.783   6.190
    1   AR   Ar  127   2.501   5.549   6.811
    1   AR   Ar  128   2.384   6.113   5.633
    1   AR   Ar  129   3.349   6.974   0.875
    1   AR   Ar  130   3.804   0.793   0.872
    1   AR   Ar  131   4.395   6.957   1.082
    1   AR   Ar  132   4.403   1.428  -0.656
    1   AR   Ar  133   3.284   0.071   2.414
    1   AR   Ar  134   3.684   0.952   2.800
    1   AR   Ar  135   4.237   0.103   3.021
    1   AR   Ar  136   4.159   0.511   1.869
    1   AR   Ar  137   3.051   7.095   3.448
    1   AR   Ar  138   3.353   0.425   4.258
    1   AR   Ar  139   4.304   0.205   4.435
    1   AR   Ar  140   4.302   0.962   3.776
    1   AR   Ar  141   3.185   6.989   5.280
    1   AR   Ar  142   3.270   0.906   6.104
    1   AR   Ar  143   4.029   0.230   6.648
    1   AR   Ar  144   4.115   0.890   5.339
    1   AR   Ar  145   3.591   1.458   0.111
    1   AR   Ar  146   3.436   2.631   0.945
    1   AR   Ar  147   4.308   1.864   0.772
    1   AR   Ar  148   5.265   2.741   0.210
    1   AR   Ar  149   3.878   1.593   1.802
    1   AR   Ar  150   3.237   2.269   2.325
    1   AR   Ar  151   4.322   2.101   3.002
    1   AR   Ar  152   4.244   2.730   1.717
    1   AR   Ar  153   3.370   1.845   3.322
    1   AR   Ar  154   3.080   2.787   4.194
    1   AR   Ar  155   4.311   2.057   4.309
    1   AR   Ar  156   4.596   2.970   3.953
    1   AR   Ar  157   3.629   1.893   5.146
    1   AR   Ar  158   3.395   3.314   6.223
    1   AR   Ar  159   4.484   1.343   6.396
    1   AR   Ar  160   3.967   3.130   5.324
    1   AR   Ar  161   3.577   3.615   0.405
    1   AR   Ar  162   3.727   4.553   0.705
    1   AR   Ar  163   4.448   3.766   0.916
    1   AR   Ar  164   4.788   4.776   0.629
    1   AR   Ar  165   3.558   3.661   1.730
    1   AR   Ar  166   3.548   4.500   2.682
    1   AR   Ar  167   3.999   3.086   2.972
    1   AR   Ar  168   4.166   4.539   1.676
    1   AR   Ar  169   3.022   3.284   3.257
    1   AR   Ar  170   3.456   4.821   4.344
    1   AR   Ar  171   3.823   3.581   4.346
    1   AR   Ar  172   4.577   4.168   3.710
    1   AR   Ar  173   2.773   3.551   5.321
    1   AR   Ar  174   3.929   5.076   6.207
    1   AR   Ar  175   4.249   3.844   6.140
    1   AR   Ar  176   4.256   4.866   5.178
    1   AR   Ar  177   3.701   5.660   0.132
    1   AR   Ar  178   3.728   6.228   1.503
    1   AR   Ar  179   4.319   5.434   1.193
    1   AR   Ar  180   4.689   6.614   0.093
    1   AR   Ar  181   3.913   5.449   2.177
    1   AR   Ar  182   3.125   6.176   2.766
    1   AR   Ar  183   4.480   5.360   3.047
    1   AR   Ar  184   4.493   6.301   2.254
    1   AR   Ar  185   3.454   5.423   3.351
    1   AR   Ar  186   3.285   6.343   4.160
    1   AR   Ar  187   4.389   5.372   4.088
    1   AR   Ar  188   4.098   6.410   3.483
    1   AR   Ar  189   3.507   5.630   5.078
    1   AR   Ar  190   3.328   6.199   5.999
    1   AR   Ar  191   4.459   5.787   5.731
    1   AR   Ar  192   4.245   6.948   5.577
    1   AR   Ar  193   4.971   0.446   0.428
    1   AR   Ar  194   4.844   1.040   1.339
    1   AR   Ar  195   6.065   0.359   1.221
    1   AR   Ar  196   5.609   1.391   0.619
    1   AR   Ar  197   5.064   0.088   2.051
    1   AR   Ar  198   5.373   0.869   2.931
    1   AR   Ar  199   6.083   0.350   2.275
    1   AR   Ar  200   5.894   1.326   1.690
    1   AR   Ar  201   5.394   0.267   3.734
    1   AR   Ar  202   5.176   1.060   4.498
    1   AR   Ar  203   6.371   0.235   4.293
    1   AR   Ar  204   6.390   0.482   3.254
    1   AR   Ar  205   5.207   0.244   5.250
    1   AR   Ar  206   5.321   0.496   6.168
    1   AR   Ar  207   6.162   6.804   5.832
    1   AR   Ar  208   5.920   0.990   5.209
    1   AR   Ar  209   6.010   2.204  -0.778
    1   AR   Ar  210   5.472   2.188   1.451
    1   AR   Ar  211   6.668   1.968   0.438
    1   AR   Ar  212   6.536   3.004   0.227
    1   AR   Ar  213   5.314   1.959   2.471
    1   AR   Ar  214   5.366   2.987   2.331
    1   AR   Ar  215   6.205   1.426   2.782
    1   AR   Ar  216   6.592   2.925   1.321
    1   AR   Ar  217   4.991   1.610   3.630
    1   AR   Ar  218   6.067   2.656   4.423
    1   AR   Ar  219   6.118   1.816   3.789
    1   AR   Ar  220   5.446   2.527   3.275
    1   AR   Ar  221   5.380   2.125   5.336
    1   AR   Ar  222   4.664   2.560   6.004
    1   AR   Ar  223   6.315   2.215   6.258
    1   AR   Ar  224   6.363   2.820   5.519
    1   AR   Ar  225   5.605   3.743  -0.078
    1   AR   Ar  226   5.240   4.202   1.507
    1   AR   Ar  227   6.319   3.988   0.747
    1   AR   Ar  228   5.873   4.840   0.159
    1   AR   Ar  229   5.277   3.177   1.205
    1   AR   Ar  230   5.114   4.221   2.671
    1   AR   Ar  231   6.445   3.432   3.148
    1   AR   Ar  232   6.069   3.606   1.989
    1   AR   Ar  233   5.421   3.506   3.594
    1   AR   Ar  234   5.895   4.423   4.009
    1   AR   Ar  235   6.630   3.569   4.442
    1   AR   Ar  236   7.009   4.203   3.620
    1   AR   Ar  237   5.144   3.289   5.284
    1   AR   Ar  238   5.115   4.370   5.739
    1   AR   Ar  239   6.118   4.083   6.334
    1   AR   Ar  240   6.022   4.126   5.104
    1   AR   Ar  241   5.280   5.771   0.507
    1   AR   Ar  242   5.255   6.208   1.503
    1   AR   Ar  243   6.183   4.901   1.529
    1   AR   Ar  244   6.063   6.541   0.654
    1   AR   Ar  245   5.410   5.037   2.182
    1   AR   Ar  246   5.552   6.260   2.976
    1   AR   Ar  247   6.253   4.420   2.692
    1   AR   Ar  248   6.369   6.350   1.906
    1   AR   Ar  249   6.008   5.349   3.254
    1   AR   Ar  250   4.804   6.210   4.843
    1   AR   Ar  251   6.427   5.259   4.305
    1   AR   Ar  252   5.998   6.254   3.844
    1   AR   Ar  253   5.312   5.288   4.772
    1   AR   Ar  254   5.367   6.010   6.121
    1   AR   Ar  255   6.096   5.088   5.826
    1   AR   Ar  256   5.873   6.390   4.968
    7.12000  7.12000 12.00000
Argon-slab step 240
  256
    1   AR   Ar    1   0.280   7.060  -0.280
    1   AR   Ar    2   7.089   0.538   0.798
    1   AR   Ar    3   0.579   6.638   1.107
    1   AR   Ar    4   1.056   0.930   0.209
    1   AR   Ar    5   7.054   0.159   1.807
    1   AR   Ar    6   0.074   0.615   2.648
    1   AR   Ar    7   1.205   6.897   2.717
    1   AR   Ar    8   0.920   0.866   1.834
    1   AR   Ar    9   0.137   7.085   3.823
    1   AR   Ar   10   6.912   1.136   4.003
    1   AR   Ar   11   1.147   0.195   4.425
    1   AR   Ar   12   1.012   0.665   3.352
    1   AR   Ar   13   6.914   0.258   5.427
    1   AR   Ar   14   0.593   1.486   5.669
    1   AR   Ar   15   1.227   7.086   7.231
    1   AR   Ar   16   1.270   0.739   5.267
    1   AR   Ar   17   0.302   1.679  -0.141
    1   AR   Ar   18   0.265   2.567   0.696
    1   AR   Ar   19   0.776   1.588   0.967
    1   AR   Ar   20   1.192   2.402  -0.575
    1   AR   Ar   21   7.095   1.296   1.909
    1   AR   Ar   22   7.013   2.669   2.429
    1   AR   Ar   23   0.645   1.729   2.505
    1   AR   Ar   24   0.764   2.635   1.937
    1   AR   Ar   25   0.500   1.760   3.712
    1   AR   Ar   26   0.040   2.455   4.359
    1   AR   Ar   27   0.724   1.888   4.750
    1   AR   Ar   28   1.458   2.397   4.185
    1   AR   Ar   29   6.752   1.774   5.215
    1   AR   Ar   30   0.416   2.478   6.230
    1   AR   Ar   31   1.194   1.699   6.705
    1   AR   Ar   32   1.081   2.769   5.277
    1   AR   Ar   33   0.330   3.728  -0.195
    1   AR   Ar   34   0.115   4.423   1.268
    1   AR   Ar   35   0.696   3.542   1.047
    1   AR   Ar   36   0.875   4.806  -0.086
    1   AR   Ar   37   0.048   3.656   1.913
    1   AR   Ar   38   0.339   4.616   2.816
    1   AR   Ar   39   0.673   3.474   2.690
    1   AR   Ar   40   1.001   4.185   1.970
    1   AR   Ar   41   0.394   3.018   3.556
    1   AR   Ar   42   0.109   4.375   4.893
    1   AR   Ar   43   0.568   3.295   4.628
    1   AR   Ar   44   0.839   3.991   3.796
    1   AR   Ar   45   7.077   3.715   5.697
    1   AR   Ar   46   0.237   5.068   6.353
    1   AR   Ar   47   1.091   3.391   6.191
    1   AR   Ar   48   0.745   4.529   5.622
    1   AR   Ar   49   6.955   4.675   0.150
    1   AR   Ar   50   6.862   5.383   1.054
    1   AR   Ar   51   1.142   4.620   0.947
    1   AR   Ar   52   0.826   5.651   0.594
    1   AR   Ar   53   6.784   5.479   2.211
    1   AR   Ar   54   6.985   6.790   2.956
    1   AR   Ar   55   0.955   5.555   2.755
    1   AR   Ar   56   0.596   5.638   1.552
    1   AR   Ar   57   0.359   5.270   3.882
    1   AR   Ar   58   6.977   6.037   4.281
    1   AR   Ar   59   0.901   5.444   5.008
    1   AR   Ar   60   1.010   6.257   4.141
    1   AR   Ar   61   7.011   5.693   5.442
    1   AR   Ar   62   0.393   6.151   6.208
    1   AR   Ar   63   1.633   5.347   5.831
    1   AR   Ar   64   0.904   6.556   5.203
    1   AR   Ar   65   1.381   6.637  -0.129
    1   AR   Ar   66   1.858   0.990   1.440
    1   AR   Ar   67   2.314   6.400   0.385
    1   AR   Ar   68   2.899   1.140   0.862
    1   AR   Ar   69   1.680   7.072   1.310
    1   AR   Ar   70   1.706   0.687   2.585
    1   AR   Ar   71   2.301   7.006   2.439
    1   AR   Ar   72   2.818   0.339   1.543
    1   AR   Ar   73   1.759   7.087   3.536
    1   AR   Ar   74   1.276   1.321   4.194
    1   AR   Ar   75   2.462   7.075   4.390
    1   AR   Ar   76   2.506   1.029   3.404
    1   AR   Ar   77   1.917   7.012   5.234
    1   AR   Ar   78   2.124   0.869   5.760
    1   AR   Ar   79   2.755   6.987   6.418
    1   AR   Ar   80   2.726   1.262   5.135
    1   AR   Ar   81   1.720   1.727   0.374
    1   AR   Ar   82   1.417   2.722   0.690
    1   AR   Ar   83   2.537   1.940   1.310
    1   AR   Ar   84   2.584   3.051  -0.174
    1   AR   Ar   85   1.708   1.886   1.976
    1   AR   Ar   86   1.760   2.839   2.743
    1   AR   Ar   87   2.764   1.362   2.385
    1   AR   Ar   88   2.587   2.947   2.005
    1   AR   Ar   89   1.719   1.709   2.998
    1   AR   Ar   90   2.069   3.180   4.645
    1   AR   Ar   91   2.535   1.805   4.341
    1   AR   Ar   92   2.370   2.442   3.484
    1   AR   Ar   93   1.868   1.844   5.112
    1   AR   Ar   94   2.395   2.994   6.255
    1   AR   Ar   95   2.705   1.872   6.074
    1   AR   Ar   96   2.755   2.525   5.359
    1   AR   Ar   97   1.548   3.817   0.227
    1   AR   Ar   98   2.132   4.125   1.314
    1   AR   Ar   99   2.611   3.263   1.038
    1   AR   Ar  100   2.842   4.633   0.205
    1   AR   Ar  101   1.692   3.149   1.607
    1   AR   Ar  102   1.660   4.702   2.846
    1   AR   Ar  103   2.237   3.814   2.615
    1   AR   Ar  104   3.090   4.523   1.583
    1   AR   Ar  105   1.846   3.354   3.656
    1   AR   Ar  106   1.882   4.352   4.003
    1   AR   Ar  107   2.715   4.151   4.422
    1   AR   Ar  108   2.591   4.641   3.338
    1   AR   Ar  109   1.399   3.885   5.006
    1   AR   Ar  110   1.976   4.268   5.814
    1   AR   Ar  111   3.277   4.387   6.429
    1   AR   Ar  112   2.680   5.027   5.626
    1   AR   Ar  113   1.982   5.339   0.471
    1   AR   Ar  114   1.543   6.082   1.232
    1   AR   Ar  115   2.811   5.432   1.055
    1   AR   Ar  116   2.971   6.936  -0.476
    1   AR   Ar  117   1.682   5.085   1.743
    1   AR   Ar  118   1.977   6.048   2.743
    1   AR   Ar  119   2.712   5.114   2.266
    1   AR   Ar  120   2.606   6.451   1.698
    1   AR   Ar  121   1.521   5.311   3.869
    1   AR   Ar  122   1.869   6.048   4.581
    1   AR   Ar  123   2.618   5.379   4.138
    1   AR   Ar  124   2.480   6.319   3.571
    1   AR   Ar  125   1.826   4.916   4.828
    1   AR   Ar  126   1.490   6.786   6.190
    1   AR   Ar  127   2.490   5.523   6.820
    1   AR   Ar  128   2.401   6.119   5.655
    1   AR   Ar  129   3.331   6.995   0.855
    1   AR   Ar  130   3.806   0.804   0.869
    1   AR   Ar  131   4.399   6.952   1.114
    1   AR   Ar  132   4.397   1.440  -0.649
    1   AR   Ar  133   3.308   0.071   2.407
    1   AR   Ar  134   3.693   0.949   2.801
    1   AR   Ar  135   4.228   0.086   3.022
    1   AR   Ar  136   4.180   0.517   1.858
    1   AR   Ar  137   3.056   7.105   3.449
    1   AR   Ar  138   3.351   0.444   4.292
    1   AR   Ar  139   4.284   0.175   4.440
    1   AR   Ar  140   4.258   0.980   3.762
    1   AR   Ar  141   3.147   6.989   5.286
    1   AR   Ar  142   3.276   0.905   6.102
    1   AR   Ar  143   3.984   0.255   6.663
    1   AR   Ar  144   4.111   0.897   5.325
    1   AR   Ar  145   3.606   1.463   0.118
    1   AR   Ar  146   3.446   2.634   0.933
    1   AR   Ar  147   4.300   1.844   0.802
    1   AR   Ar  148   5.265   2.748   0.215
    1   AR   Ar  149   3.850   1.556   1.782
    1   AR   Ar  150   3.191   2.261   2.335
    1   AR   Ar  151   4.327   2.079   2.972
    1   AR   Ar  152   4.263   2.715   1.713
    1   AR   Ar  153   3.358   1.826   3.306
    1   AR   Ar  154   3.092   2.778   4.202
    1   AR   Ar  155   4.286   2.057   4.320
    1   AR   Ar  156   4.593   2.986   3.941
    1   AR   Ar  157   3.621   1.868   5.145
    1   AR   Ar  158   3.374   3.329   6.210
    1   AR   Ar  159   4.499   1.348   6.435
    1   AR   Ar  160   3.960   3.115   5.302
    1   AR   Ar  161   3.577   3.594   0.422
    1   AR   Ar  162   3.721   4.589   0.690
    1   AR   Ar  163   4.425   3.745   0.908
    1   AR   Ar  164   4.791   4.792   0.613
    1   AR   Ar  165   3.561   3.648   1.743
    1   AR   Ar  166   3.583   4.508   2.691
    1   AR   Ar  167   4.010   3.104   2.969
    1   AR   Ar  168   4.129   4.528   1.692
    1   AR   Ar  169   3.013   3.287   3.255
    1   AR   Ar  170   3.467   4.843   4.341
    1   AR   Ar  171   3.806   3.588   4.370
    1   AR   Ar  172   4.566   4.158   3.729
    1   AR   Ar  173   2.756   3.536   5.338
    1   AR   Ar  174   3.916   5.050   6.223
    1   AR   Ar  175   4.225   3.859   6.163
    1   AR   Ar  176   4.248   4.887   5.202
    1   AR   Ar  177   3.722   5.651   0.125
    1   AR   Ar  178   3.749   6.238   1.509
    1   AR   Ar  179   4.324   5.447   1.211
    1   AR   Ar  180   4.688   6.628   0.097
    1   AR   Ar  181   3.908   5.447   2.194
    1   AR   Ar  182   3.128   6.165   2.748
    1   AR   Ar  183   4.475   5.377   3.053
    1   AR   Ar  184   4.512   6.337   2.270
    1   AR   Ar  185   3.456   5.447   3.335
    1   AR   Ar  186   3.306   6.325   4.155
    1   AR   Ar  187   4.386   5.364   4.052
    1   AR   Ar  188   4.062   6.420   3.492
    1   AR   Ar  189   3.481   5.645   5.090
    1   AR   Ar  190   3.322   6.174   6.011
    1   AR   Ar  191   4.444   5.777   5.720
    1   AR   Ar  192   4.270   6.931   5.567
    1   AR   Ar  193   4.973   0.443   0.448
    1   AR   Ar  194   4.836   1.018   1.317
    1   AR   Ar  195   6.069   0.367   1.209
    1   AR   Ar  196   5.603   1.412   0.619
    1   AR   Ar  197   5.038   0.049   2.031
    1   AR   Ar  198   5.379   0.818   2.936
    1   AR   Ar  199   6.072   0.361   2.260
    1   AR   Ar  200   5.903   1.339   1.710
    1   AR   Ar  201   5.394   0.270   3.741
    1   AR   Ar  202   5.189   1.065   4.495
    1   AR   Ar  203   6.343   0.211   4.279
    1   AR   Ar  204   6.400   0.509   3.272
    1   AR   Ar  205   5.201   0.216   5.221
    1   AR   Ar  206   5.308   0.495   6.175
    1   AR   Ar  207   6.148   6.780   5.840
    1   AR   Ar  208   5.940   1.010   5.232
    1   AR   Ar  209   6.033   2.222  -0.815
    1   AR   Ar  210   5.475   2.173   1.443
    1   AR   Ar  211   6.662   1.969   0.427
    1   AR   Ar  212   6.560   3.023   0.225
    1   AR   Ar  213   5.329   1.947   2.470
    1   AR   Ar  214   5.344   2.978   2.344
    1   AR   Ar  215   6.202   1.417   2.764
    1   AR   Ar  216   6.581   2.920   1.331
    1   AR   Ar  217   4.974   1.638   3.601
    1   AR   Ar  218   6.065   2.635   4.418
    1   AR   Ar  219   6.116   1.819   3.774
    1   AR   Ar  220   5.409   2.530   3.265
    1   AR   Ar  221   5.384   2.122   5.345
    1   AR   Ar  222   4.633   2.555   6.011
    1   AR   Ar  223   6.316   2.215   6.272
    1   AR   Ar  224   6.360   2.806   5.514
    1   AR   Ar  225   5.612   3.756  -0.069
    1   AR   Ar  226   5.251   4.216   1.521
    1   AR   Ar  227   6.329   3.991   0.749
    1   AR   Ar  228   5.901   4.832   0.184
    1   AR   Ar  229   5.304   3.178   1.123
    1   AR   Ar  230   5.096   4.209   2.688
    1   AR   Ar  231   6.460   3.434   3.178
    1   AR   Ar  232   6.078   3.601   1.973
    1   AR   Ar  233   5.439   3.497   3.580
    1   AR   Ar  234   5.909   4.440   3.993
    1   AR   Ar  235   6.619   3.586   4.436
    1   AR   Ar  236   7.019   4.199   3.620
    1   AR   Ar  237   5.107   3.271   5.284
    1   AR   Ar  238   5.134   4.388   5.709
    1   AR   Ar  239   6.123   4.099   6.354
    1   AR   Ar  240   6.003   4.125   5.112
    1   AR   Ar  241   5.249   5.807   0.521
    1   AR   Ar  242   5.244   6.206   1.519
    1   AR   Ar  243   6.186   4.878   1.559
    1   AR   Ar  244   6.044   6.563   0.683
    1   AR   Ar  245   5.398   5.027   2.186
    1   AR   Ar  246   5.550   6.259   2.984
    1   AR   Ar  247   6.289   4.397   2.687
    1   AR   Ar  248   6.357   6.337   1.893
    1   AR   Ar  249   6.005   5.366   3.280
    1   AR   Ar  250   4.781   6.217   4.871
    1   AR   Ar  251   6.426   5.275   4.318
    1   AR   Ar  252   5.986   6.256   3.846
    1   AR   Ar  253   5.338   5.248   4.761
    1   AR   Ar  254   5.376   6.030   6.128
    1   AR   Ar  255   6.092   5.058   5.815
    1   AR   Ar  256   5.866   6.408   4.965
    7.12000  7.12000 12.00000
Argon-slab step 245
  256
    1   AR   Ar    1   0.296   7.092  -0.326
    1   AR   Ar    2   7.073   0.546   0.789
    1   AR   Ar    3   0.553   6.653   1.091
    1   AR   Ar    4   1.050   0.953   0.196
    1   AR   Ar    5   7.066   0.149   1.827
    1   AR   Ar    6   0.070   0.581   2.679
    1   AR   Ar    7   1.210   6.917   2.730
    1   AR   Ar    8   0.934   0.821   1.842
    1   AR   Ar    9   0.171   7.049   3.856
    1   AR   Ar   10   6.880   1.116   4.005
    1   AR   Ar   11   1.165   0.205   4.396
    1   AR   Ar   12   1.003   0.667   3.314
    1   AR   Ar   13   6.944   0.265   5.428
    1   AR   Ar   14   0.605   1.465   5.671
    1   AR   Ar   15   1.280   7.086   7.238
    1   AR   Ar   16   1.254   0.770   5.278
    1   AR   Ar   17   0.310   1.702  -0.119
    1   AR   Ar   18   0.279   2.575   0.648
    1   AR   Ar   19   0.797   1.595   0.976
    1   AR   Ar   20   1.167   2.402  -0.616
    1   AR   Ar   21   7.060   1.293   1.923
    1   AR   Ar   22   7.028   2.695   2.407
    1   AR   Ar   23   0.618   1.745   2.504
    1   AR   Ar   24   0.771   2.661   1.953
    1   AR   Ar   25   0.511   1.773   3.747
    1   AR   Ar   26   0.057   2.466   4.358
    1   AR   Ar   27   0.717   1.898   4.776
    1   AR   Ar   28   1.477   2.395   4.165
    1   AR   Ar   29   6.747   1.754   5.227
    1   AR   Ar   30   0.405   2.506   6.225
    1   AR   Ar   31   1.150   1.689   6.713
    1   AR   Ar   32   1.041   2.778   5.295
    1   AR   Ar   33   0.328   3.724  -0.192
    1   AR   Ar   34   0.132   4.440   1.300
    1   AR   Ar   35   0.700   3.504   1.031
    1   AR   Ar   36   0.867   4.775  -0.072
    1   AR   Ar   37   0.048   3.632   1.925
    1   AR   Ar   38   0.370   4.614   2.813
    1   AR   Ar   39   0.659   3.461   2.712
    1   AR   Ar   40   0.991   4.151   2.008
    1   AR   Ar   41   0.415   3.035   3.528
    1   AR   Ar   42   0.108   4.373   4.909
    1   AR   Ar   43   0.558   3.285   4.634
    1   AR   Ar   44   0.843   3.988   3.821
    1   AR   Ar   45   7.078   3.722   5.717
    1   AR   Ar   46   0.236   5.078   6.341
    1   AR   Ar   47   1.076   3.398   6.158
    1   AR   Ar   48   0.719   4.530   5.596
    1   AR   Ar   49   6.934   4.654   0.180
    1   AR   Ar   50   6.820   5.384   1.041
    1   AR   Ar   51   1.120   4.611   0.987
    1   AR   Ar   52   0.837   5.617   0.585
    1   AR   Ar   53   6.788   5.476   2.225
    1   AR   Ar   54   7.008   6.753   2.947
    1   AR   Ar   55   0.909   5.602   2.756
    1   AR   Ar   56   0.582   5.610   1.524
    1   AR   Ar   57   0.355   5.245   3.908
    1   AR   Ar   58   7.032   6.056   4.275
    1   AR   Ar   59   0.916   5.441   5.016
    1   AR   Ar   60   1.001   6.284   4.160
    1   AR   Ar   61   7.000   5.722   5.444
    1   AR   Ar   62   0.415   6.172   6.225
    1   AR   Ar   63   1.635   5.361   5.821
    1   AR   Ar   64   0.887   6.567   5.227
    1   AR   Ar   65   1.362   6.644  -0.126
    1   AR   Ar   66   1.861   0.965   1.374
    1   AR   Ar   67   2.303   6.396   0.376
    1   AR   Ar   68   2.880   1.159   0.890
    1   AR   Ar   69   1.701   7.079   1.277
    1   AR   Ar   70   1.689   0.685   2.592
    1   AR   Ar   71   2.291   6.997   2.440
    1   AR   Ar   72   2.828   0.341   1.596
    1   AR   Ar   73   1.766   7.107   3.545
    1   AR   Ar   74   1.282   1.318   4.251
    1   AR   Ar   75   2.488   7.067   4.412
    1   AR   Ar   76   2.517   1.024   3.418
    1   AR   Ar   77   1.909   7.032   5.245
    1   AR   Ar   78   2.106   0.828   5.777
    1   AR   Ar   79   2.745   6.977   6.436
    1   AR   Ar   80   2.729   1.293   5.142
    1   AR   Ar   81   1.704   1.729   0.351
    1   AR   Ar   82   1.399   2.729   0.664
    1   AR   Ar   83   2.566   1.947   1.342
    1   AR   Ar   84   2.565   3.032  -0.174
    1   AR   Ar   85   1.709   1.902   1.953
    1   AR   Ar   86   1.750   2.803   2.736
    1   AR   Ar   87   2.720   1.366   2.360
    1   AR   Ar   88   2.599   2.946   1.999
    1   AR   Ar   89   1.717   1.721   3.013
    1   AR   Ar   90   2.067   3.180   4.623
    1   AR   Ar   91   2.521   1.819   4.316
    1   AR   Ar   92   2.382   2.438   3.464
    1   AR   Ar   93   1.837   1.847   5.128
    1   AR   Ar   94   2.389   3.006   6.223
    1   AR   Ar   95   2.699   1.866   6.066
    1   AR   Ar   96   2.740   2.530   5.346
    1   AR   Ar   97   1.512   3.816   0.256
    1   AR   Ar   98   2.151   4.112   1.351
    1   AR   Ar   99   2.632   3.280   1.033
    1   AR   Ar  100   2.840   4.617   0.239
    1   AR   Ar  101   1.670   3.143   1.610
    1   AR   Ar  102   1.657   4.706   2.824
    1   AR   Ar  103   2.244   3.811   2.581
    1   AR   Ar  104   3.115   4.486   1.587
    1   AR   Ar  105   1.846   3.339   3.627
    1   AR   Ar  106   1.866   4.361   3.974
    1   AR   Ar  107   2.717   4.141   4.445
    1   AR   Ar  108   2.564   4.605   3.322
    1   AR   Ar  109   1.388   3.890   5.035
    1   AR   Ar  110   1.995   4.255   5.803
    1   AR   Ar  111   3.274   4.391   6.435
    1   AR   Ar  112   2.671   4.990   5.643
    1   AR   Ar  113   1.983   5.325   0.485
    1   AR   Ar  114   1.551   6.091   1.261
    1   AR   Ar  115   2.831   5.414   1.040
    1   AR   Ar  116   2.983   6.964  -0.464
    1   AR   Ar  117   1.678   5.104   1.787
    1   AR   Ar  118   1.980   6.053   2.759
    1   AR   Ar  119   2.719   5.115   2.234
    1   AR   Ar  120   2.605   6.431   1.716
    1   AR   Ar  121   1.489   5.293   3.851
    1   AR   Ar  122   1.868   6.058   4.554
    1   AR   Ar  123   2.607   5.400   4.146
    1   AR   Ar  124   2.496   6.322   3.599
    1   AR   Ar  125   1.845   4.882   4.835
    1   AR   Ar  126   1.457   6.787   6.189
    1   AR   Ar  127   2.479   5.498   6.826
    1   AR   Ar  128   2.409   6.126   5.673
    1   AR   Ar  129   3.316   7.007   0.823
    1   AR   Ar  130   3.820   0.835   0.850
    1   AR   Ar  131   4.407   6.946   1.145
    1   AR   Ar  132   4.392   1.451  -0.641
    1   AR   Ar  133   3.339   0.066   2.399
    1   AR   Ar  134   3.661   0.937   2.791
    1   AR   Ar  135   4.243   0.125   2.998
    1   AR   Ar  136   4.167   0.517   1.873
    1   AR   Ar  137   3.067   0.002   3.440
    1   AR   Ar  138   3.345   0.475   4.330
    1   AR   Ar  139   4.278   0.139   4.449
    1   AR   Ar  140   4.204   0.993   3.747
    1   AR   Ar  141   3.108   6.989   5.292
    1   AR   Ar  142   3.282   0.902   6.098
    1   AR   Ar  143   3.940   0.280   6.675
    1   AR   Ar  144   4.109   0.929   5.324
    1   AR   Ar  145   3.618   1.472   0.119
    1   AR   Ar  146   3.458   2.633   0.923
    1   AR   Ar  147   4.295   1.827   0.835
    1   AR   Ar  148   5.265   2.750   0.213
    1   AR   Ar  149   3.822   1.519   1.761
    1   AR   Ar  150   3.160   2.253   2.347
    1   AR   Ar  151   4.330   2.058   2.936
    1   AR   Ar  152   4.266   2.712   1.717
    1   AR   Ar  153   3.341   1.807   3.294
    1   AR   Ar  154   3.101   2.765   4.219
    1   AR   Ar  155   4.259   2.054   4.331
    1   AR   Ar  156   4.589   3.002   3.928
    1   AR   Ar  157   3.612   1.844   5.146
    1   AR   Ar  158   3.351   3.339   6.197
    1   AR   Ar  159   4.513   1.352   6.472
    1   AR   Ar  160   3.954   3.097   5.280
    1   AR   Ar  161   3.566   3.567   0.435
    1   AR   Ar  162   3.723   4.631   0.680
    1   AR   Ar  163   4.409   3.725   0.906
    1   AR   Ar  164   4.800   4.802   0.592
    1   AR   Ar  165   3.566   3.624   1.757
    1   AR   Ar  166   3.604   4.521   2.686
    1   AR   Ar  167   4.024   3.122   2.965
    1   AR   Ar  168   4.100   4.515   1.709
    1   AR   Ar  169   3.001   3.293   3.253
    1   AR   Ar  170   3.486   4.864   4.337
    1   AR   Ar  171   3.787   3.598   4.392
    1   AR   Ar  172   4.554   4.149   3.748
    1   AR   Ar  173   2.742   3.531   5.358
    1   AR   Ar  174   3.916   5.039   6.237
    1   AR   Ar  175   4.253   3.867   6.183
    1   AR   Ar  176   4.241   4.902   5.223
    1   AR   Ar  177   3.744   5.641   0.120
    1   AR   Ar  178   3.762   6.252   1.517
    1   AR   Ar  179   4.331   5.464   1.230
    1   AR   Ar  180   4.685   6.639   0.101
    1   AR   Ar  181   3.897   5.443   2.212
    1   AR   Ar  182   3.129   6.162   2.719
    1   AR   Ar  183   4.477   5.393   3.053
    1   AR   Ar  184   4.526   6.370   2.292
    1   AR   Ar  185   3.458   5.462   3.327
    1   AR   Ar  186   3.327   6.305   4.162
    1   AR   Ar  187   4.383   5.358   4.027
    1   AR   Ar  188   4.026   6.405   3.509
    1   AR   Ar  189   3.454   5.661   5.100
    1   AR   Ar  190   3.329   6.148   6.028
    1   AR   Ar  191   4.425   5.771   5.713
    1   AR   Ar  192   4.292   6.913   5.558
    1   AR   Ar  193   4.977   0.443   0.466
    1   AR   Ar  194   4.835   1.002   1.293
    1   AR   Ar  195   6.072   0.376   1.195
    1   AR   Ar  196   5.597   1.433   0.619
    1   AR   Ar  197   5.025   0.014   2.012
    1   AR   Ar  198   5.378   0.774   2.929
    1   AR   Ar  199   6.062   0.368   2.259
    1   AR   Ar  200   5.918   1.339   1.735
    1   AR   Ar  201   5.418   0.290   3.767
    1   AR   Ar  202   5.173   1.068   4.488
    1   AR   Ar  203   6.311   0.185   4.272
    1   AR   Ar  204   6.404   0.536   3.295
    1   AR   Ar  205   5.194   0.183   5.180
    1   AR   Ar  206   5.296   0.496   6.191
    1   AR   Ar  207   6.128   6.735   5.832
    1   AR   Ar  208   5.960   1.028   5.247
    1   AR   Ar  209   6.056   2.241  -0.850
    1   AR   Ar  210   5.484   2.189   1.422
    1   AR   Ar  211   6.637   1.962   0.419
    1   AR   Ar  212   6.580   3.046   0.222
    1   AR   Ar  213   5.340   1.923   2.463
    1   AR   Ar  214   5.322   2.961   2.336
    1   AR   Ar  215   6.206   1.411   2.744
    1   AR   Ar  216   6.570   2.913   1.340
    1   AR   Ar  217   4.972   1.667   3.573
    1   AR   Ar  218   6.060   2.617   4.415
    1   AR   Ar  219   6.112   1.819   3.758
    1   AR   Ar  220   5.374   2.534   3.266
    1   AR   Ar  221   5.391   2.119   5.352
    1   AR   Ar  222   4.600   2.549   6.018
    1   AR   Ar  223   6.317   2.204   6.299
    1   AR   Ar  224   6.358   2.804   5.493
    1   AR   Ar  225   5.620   3.769  -0.059
    1   AR   Ar  226   5.261   4.228   1.533
    1   AR   Ar  227   6.339   3.993   0.756
    1   AR   Ar  228   5.925   4.826   0.210
    1   AR   Ar  229   5.335   3.183   1.050
    1   AR   Ar  230   5.077   4.189   2.710
    1   AR   Ar  231   6.474   3.432   3.205
    1   AR   Ar  232   6.088   3.600   1.955
    1   AR   Ar  233   5.461   3.496   3.566
    1   AR   Ar  234   5.922   4.451   3.975
    1   AR   Ar  235   6.592   3.597   4.460
    1   AR   Ar  236   7.015   4.198   3.625
    1   AR   Ar  237   5.071   3.253   5.283
    1   AR   Ar  238   5.158   4.426   5.676
    1   AR   Ar  239   6.128   4.115   6.371
    1   AR   Ar  240   6.012   4.132   5.127
    1   AR   Ar  241   5.217   5.839   0.535
    1   AR   Ar  242   5.244   6.196   1.550
    1   AR   Ar  243   6.184   4.845   1.589
    1   AR   Ar  244   6.025   6.583   0.714
    1   AR   Ar  245   5.384   5.029   2.193
    1   AR   Ar  246   5.537   6.263   2.974
    1   AR   Ar  247   6.326   4.376   2.681
    1   AR   Ar  248   6.355   6.339   1.871
    1   AR   Ar  249   6.004   5.376   3.304
    1   AR   Ar  250   4.759   6.227   4.892
    1   AR   Ar  251   6.425   5.263   4.351
    1   AR   Ar  252   5.982   6.263   3.864
    1   AR   Ar  253   5.365   5.206   4.750
    1   AR   Ar  254   5.389   6.050   6.133
    1   AR   Ar  255   6.089   5.029   5.802
    1   AR   Ar  256   5.858   6.421   4.952
    7.12000  7.12000 12.00000
Argon-slab step 250
  256
    1   AR   Ar    1   0.296   7.105  -0.345
    1   AR   Ar    2   7.059   0.555   0.779
    1   AR   Ar    3   0.528   6.669   1.074
    1   AR   Ar    4   1.040   0.968   0.180
    1   AR   Ar    5   7.075   0.131   1.832
    1   AR   Ar    6   0.079   0.562   2.720
    1   AR   Ar    7   1.207   6.928   2.735
    1   AR   Ar    8   0.943   0.776   1.851
    1   AR   Ar    9   0.210   7.018   3.896
    1   AR   Ar   10   6.876   1.108   4.000
    1   AR   Ar   11   1.182   0.213   4.366
    1   AR   Ar   12   0.984   0.675   3.284
    1   AR   Ar   13   6.975   0.273   5.428
    1   AR   Ar   14   0.630   1.445   5.657
    1   AR   Ar   15   1.334   7.085   7.245
    1   AR   Ar   16   1.232   0.800   5.283
    1   AR   Ar   17   0.327   1.723  -0.101
    1   AR   Ar   18   0.304   2.585   0.604
    1   AR   Ar   19   0.817   1.604   0.989
    1   AR   Ar   20   1.141   2.402  -0.654
    1   AR   Ar   21   7.016   1.288   1.928
    1   AR   Ar   22   7.028   2.718   2.392
    1   AR   Ar   23   0.598   1.764   2.510
    1   AR   Ar   24   0.790   2.686   1.960
    1   AR   Ar   25   0.525   1.788   3.770
    1   AR   Ar   26   0.054   2.482   4.352
    1   AR   Ar   27   0.713   1.910   4.813
    1   AR   Ar   28   1.496   2.394   4.143
    1   AR   Ar   29   6.743   1.736   5.238
    1   AR   Ar   30   0.436   2.534   6.199
    1   AR   Ar   31   1.109   1.674   6.716
    1   AR   Ar   32   1.012   2.778   5.323
    1   AR   Ar   33   0.328   3.720  -0.186
    1   AR   Ar   34   0.146   4.460   1.330
    1   AR   Ar   35   0.704   3.468   1.016
    1   AR   Ar   36   0.861   4.742  -0.059
    1   AR   Ar   37   0.044   3.606   1.935
    1   AR   Ar   38   0.403   4.613   2.805
    1   AR   Ar   39   0.655   3.457   2.725
    1   AR   Ar   40   0.985   4.121   2.042
    1   AR   Ar   41   0.429   3.042   3.518
    1   AR   Ar   42   0.100   4.365   4.901
    1   AR   Ar   43   0.543   3.293   4.631
    1   AR   Ar   44   0.857   3.985   3.848
    1   AR   Ar   45   7.078   3.726   5.737
    1   AR   Ar   46   0.232   5.089   6.331
    1   AR   Ar   47   1.056   3.415   6.123
    1   AR   Ar   48   0.716   4.534   5.597
    1   AR   Ar   49   6.920   4.633   0.211
    1   AR   Ar   50   6.778   5.392   1.020
    1   AR   Ar   51   1.102   4.601   1.027
    1   AR   Ar   52   0.850   5.584   0.562
    1   AR   Ar   53   6.796   5.466   2.243
    1   AR   Ar   54   7.027   6.704   2.930
    1   AR   Ar   55   0.863   5.649   2.757
    1   AR   Ar   56   0.568   5.582   1.514
    1   AR   Ar   57   0.357   5.210   3.929
    1   AR   Ar   58   7.088   6.090   4.274
    1   AR   Ar   59   0.934   5.409   5.060
    1   AR   Ar   60   0.981   6.312   4.171
    1   AR   Ar   61   6.986   5.749   5.442
    1   AR   Ar   62   0.440   6.196   6.244
    1   AR   Ar   63   1.637   5.375   5.811
    1   AR   Ar   64   0.880   6.596   5.258
    1   AR   Ar   65   1.341   6.651  -0.121
    1   AR   Ar   66   1.869   0.948   1.307
    1   AR   Ar   67   2.294   6.381   0.372
    1   AR   Ar   68   2.858   1.168   0.910
    1   AR   Ar   69   1.723   7.088   1.245
    1   AR   Ar   70   1.681   0.695   2.594
    1   AR   Ar   71   2.278   6.995   2.452
    1   AR   Ar   72   2.829   0.352   1.646
    1   AR   Ar   73   1.784   0.007   3.563
    1   AR   Ar   74   1.303   1.301   4.301
    1   AR   Ar   75   2.510   7.054   4.427
    1   AR   Ar   76   2.528   1.018   3.433
    1   AR   Ar   77   1.899   7.050   5.257
    1   AR   Ar   78   2.093   0.785   5.807
    1   AR   Ar   79   2.734   6.968   6.452
    1   AR   Ar   80   2.740   1.318   5.149
    1   AR   Ar   81   1.692   1.734   0.329
    1   AR   Ar   82   1.380   2.734   0.637
    1   AR   Ar   83   2.592   1.971   1.382
    1   AR   Ar   84   2.538   3.008  -0.170
    1   AR   Ar   85   1.707   1.920   1.932
    1   AR   Ar   86   1.729   2.841   2.756
    1   AR   Ar   87   2.671   1.359   2.335
    1   AR   Ar   88   2.605   2.956   1.993
    1   AR   Ar   89   1.722   1.728   3.020
    1   AR   Ar   90   2.067   3.176   4.603
    1   AR   Ar   91   2.506   1.837   4.282
    1   AR   Ar   92   2.398   2.430   3.445
    1   AR   Ar   93   1.799   1.851   5.147
    1   AR   Ar   94   2.374   3.016   6.195
    1   AR   Ar   95   2.705   1.855   6.054
    1   AR   Ar   96   2.725   2.533   5.318
    1   AR   Ar   97   1.476   3.814   0.287
    1   AR   Ar   98   2.153   4.110   1.390
    1   AR   Ar   99   2.664   3.306   1.021
    1   AR   Ar  100   2.827   4.601   0.269
    1   AR   Ar  101   1.643   3.139   1.613
    1   AR   Ar  102   1.648   4.711   2.802
    1   AR   Ar  103   2.250   3.808   2.548
    1   AR   Ar  104   3.130   4.451   1.581
    1   AR   Ar  105   1.843   3.328   3.598
    1   AR   Ar  106   1.839   4.359   3.946
    1   AR   Ar  107   2.725   4.127   4.472
    1   AR   Ar  108   2.551   4.572   3.302
    1   AR   Ar  109   1.375   3.894   5.062
    1   AR   Ar  110   2.012   4.237   5.794
    1   AR   Ar  111   3.248   4.377   6.446
    1   AR   Ar  112   2.669   4.960   5.657
    1   AR   Ar  113   1.977   5.309   0.498
    1   AR   Ar  114   1.560   6.091   1.291
    1   AR   Ar  115   2.857   5.403   1.033
    1   AR   Ar  116   2.994   6.992  -0.451
    1   AR   Ar  117   1.674   5.123   1.830
    1   AR   Ar  118   1.979   6.053   2.770
    1   AR   Ar  119   2.721   5.124   2.211
    1   AR   Ar  120   2.608   6.399   1.722
    1   AR   Ar  121   1.455   5.283   3.831
    1   AR   Ar  122   1.877   6.067   4.535
    1   AR   Ar  123   2.593   5.419   4.154
    1   AR   Ar  124   2.503   6.317   3.628
    1   AR   Ar  125   1.865   4.852   4.849
    1   AR   Ar  126   1.424   6.787   6.188
    1   AR   Ar  127   2.469   5.473   6.829
    1   AR   Ar  128   2.406   6.134   5.686
    1   AR   Ar  129   3.303   7.013   0.787
    1   AR   Ar  130   3.847   0.856   0.839
    1   AR   Ar  131   4.419   6.940   1.171
    1   AR   Ar  132   4.388   1.462  -0.633
    1   AR   Ar  133   3.374   0.050   2.394
    1   AR   Ar  134   3.619   0.932   2.780
    1   AR   Ar  135   4.266   0.167   2.970
    1   AR   Ar  136   4.140   0.512   1.893
    1   AR   Ar  137   3.048   0.006   3.416
    1   AR   Ar  138   3.337   0.514   4.371
    1   AR   Ar  139   4.282   0.098   4.460
    1   AR   Ar  140   4.148   1.003   3.733
    1   AR   Ar  141   3.070   6.989   5.299
    1   AR   Ar  142   3.285   0.900   6.090
    1   AR   Ar  143   3.906   0.299   6.684
    1   AR   Ar  144   4.111   0.972   5.332
    1   AR   Ar  145   3.624   1.488   0.111
    1   AR   Ar  146   3.472   2.627   0.916
    1   AR   Ar  147   4.294   1.813   0.870
    1   AR   Ar  148   5.264   2.739   0.191
    1   AR   Ar  149   3.791   1.484   1.743
    1   AR   Ar  150   3.146   2.242   2.365
    1   AR   Ar  151   4.326   2.042   2.891
    1   AR   Ar  152   4.246   2.728   1.734
    1   AR   Ar  153   3.322   1.790   3.288
    1   AR   Ar  154   3.110   2.751   4.239
    1   AR   Ar  155   4.233   2.049   4.340
    1   AR   Ar  156   4.585   3.017   3.916
    1   AR   Ar  157   3.603   1.825   5.148
    1   AR   Ar  158   3.333   3.346   6.185
    1   AR   Ar  159   4.526   1.355   6.507
    1   AR   Ar  160   3.946   3.077   5.263
    1   AR   Ar  161   3.542   3.541   0.440
    1   AR   Ar  162   3.734   4.674   0.676
    1   AR   Ar  163   4.404   3.710   0.913
    1   AR   Ar  164   4.811   4.801   0.584
    1   AR   Ar  165   3.573   3.585   1.772
    1   AR   Ar  166   3.624   4.532   2.682
    1   AR   Ar  167   4.012   3.115   2.971
    1   AR   Ar  168   4.086   4.504   1.727
    1   AR   Ar  169   2.987   3.301   3.249
    1   AR   Ar  170   3.498   4.867   4.331
    1   AR   Ar  171   3.766   3.613   4.410
    1   AR   Ar  172   4.542   4.142   3.766
    1   AR   Ar  173   2.729   3.537   5.374
    1   AR   Ar  174   3.933   5.045   6.246
    1   AR   Ar  175   4.285   3.877   6.201
    1   AR   Ar  176   4.233   4.912   5.236
    1   AR   Ar  177   3.766   5.631   0.118
    1   AR   Ar  178   3.760   6.262   1.527
    1   AR   Ar  179   4.341   5.482   1.247
    1   AR   Ar  180   4.679   6.648   0.103
    1   AR   Ar  181   3.881   5.441   2.228
    1   AR   Ar  182   3.126   6.167   2.682
    1   AR   Ar  183   4.487   5.409   3.043
    1   AR   Ar  184   4.526   6.386   2.325
    1   AR   Ar  185   3.460   5.468   3.328
    1   AR   Ar  186   3.342   6.283   4.187
    1   AR   Ar  187   4.379   5.352   4.016
    1   AR   Ar  188   4.001   6.383   3.517
    1   AR   Ar  189   3.427   5.662   5.115
    1   AR   Ar  190   3.347   6.121   6.051
    1   AR   Ar  191   4.405   5.770   5.713
    1   AR   Ar  192   4.309   6.896   5.552
    1   AR   Ar  193   4.985   0.445   0.480
    1   AR   Ar  194   4.840   0.993   1.275
    1   AR   Ar  195   6.072   0.390   1.183
    1   AR   Ar  196   5.592   1.453   0.619
    1   AR   Ar  197   5.032   7.114   1.990
    1   AR   Ar  198   5.370   0.740   2.911
    1   AR   Ar  199   6.057   0.373   2.257
    1   AR   Ar  200   5.936   1.331   1.757
    1   AR   Ar  201   5.436   0.301   3.804
    1   AR   Ar  202   5.154   1.072   4.482
    1   AR   Ar  203   6.283   0.157   4.273
    1   AR   Ar  204   6.401   0.558   3.318
    1   AR   Ar  205   5.189   0.150   5.135
    1   AR   Ar  206   5.284   0.498   6.207
    1   AR   Ar  207   6.114   6.698   5.835
    1   AR   Ar  208   5.967   1.039   5.224
    1   AR   Ar  209   6.080   2.260  -0.883
    1   AR   Ar  210   5.489   2.212   1.397
    1   AR   Ar  211   6.595   1.952   0.417
    1   AR   Ar  212   6.596   3.071   0.216
    1   AR   Ar  213   5.350   1.947   2.458
    1   AR   Ar  214   5.298   2.950   2.323
    1   AR   Ar  215   6.217   1.406   2.726
    1   AR   Ar  216   6.560   2.904   1.347
    1   AR   Ar  217   4.980   1.686   3.553
    1   AR   Ar  218   6.054   2.602   4.416
    1   AR   Ar  219   6.106   1.817   3.739
    1   AR   Ar  220   5.342   2.541   3.275
    1   AR   Ar  221   5.399   2.116   5.358
    1   AR   Ar  222   4.566   2.544   6.025
    1   AR   Ar  223   6.319   2.187   6.331
    1   AR   Ar  224   6.357   2.809   5.463
    1   AR   Ar  225   5.628   3.782  -0.047
    1   AR   Ar  226   5.269   4.238   1.543
    1   AR   Ar  227   6.343   3.991   0.762
    1   AR   Ar  228   5.944   4.824   0.228
    1   AR   Ar  229   5.370   3.203   1.000
    1   AR   Ar  230   5.057   4.164   2.733
    1   AR   Ar  231   6.488   3.425   3.231
    1   AR   Ar  232   6.096   3.604   1.938
    1   AR   Ar  233   5.484   3.503   3.554
    1   AR   Ar  234   5.936   4.445   3.953
    1   AR   Ar  235   6.567   3.605   4.480
    1   AR   Ar  236   7.004   4.203   3.635
    1   AR   Ar  237   5.036   3.236   5.282
    1   AR   Ar  238   5.166   4.446   5.678
    1   AR   Ar  239   6.133   4.129   6.386
    1   AR   Ar  240   6.027   4.143   5.145
    1   AR   Ar  241   5.186   5.867   0.549
    1   AR   Ar  242   5.256   6.170   1.602
    1   AR   Ar  243   6.181   4.804   1.620
    1   AR   Ar  244   6.005   6.599   0.743
    1   AR   Ar  245   5.366   5.039   2.204
    1   AR   Ar  246   5.518   6.270   2.951
    1   AR   Ar  247   6.342   4.363   2.667
    1   AR   Ar  248   6.359   6.351   1.867
    1   AR   Ar  249   6.005   5.379   3.326
    1   AR   Ar  250   4.741   6.240   4.903
    1   AR   Ar  251   6.431   5.246   4.359
    1   AR   Ar  252   5.983   6.273   3.894
    1   AR   Ar  253   5.391   5.165   4.740
    1   AR   Ar  254   5.401   6.068   6.138
    1   AR   Ar  255   6.086   5.003   5.787
    1   AR   Ar  256   5.846   6.428   4.925
    7.12000  7.12000 12.00000
Argon-slab step 255
  256
    1   AR   Ar    1   0.297   7.118  -0.362
    1   AR   Ar    2   7.049   0.564   0.769
    1   AR   Ar    3   0.503   6.683   1.057
    1   AR   Ar    4   1.042   0.964   0.170
    1   AR   Ar    5   7.083   0.109   1.828
    1   AR   Ar    6   0.096   0.554   2.764
    1   AR   Ar    7   1.196   6.929   2.735
    1   AR   Ar    8   0.947   0.730   1.858
    1   AR   Ar    9   0.249   6.997   3.936
    1   AR   Ar   10   6.884   1.105   4.000
    1   AR   Ar   11   1.197   0.223   4.341
    1   AR   Ar   12   0.954   0.687   3.268
    1   AR   Ar   13   6.994   0.281   5.418
    1   AR   Ar   14   0.646   1.432   5.659
    1   AR   Ar   15   1.387   7.085   7.251
    1   AR   Ar   16   1.216   0.818   5.277
    1   AR   Ar   17   0.350   1.744  -0.085
    1   AR   Ar   18   0.333   2.592   0.562
    1   AR   Ar   19   0.835   1.616   1.007
    1   AR   Ar   20   1.116   2.402  -0.688
    1   AR   Ar   21   6.979   1.280   1.945
    1   AR   Ar   22   7.015   2.735   2.388
    1   AR   Ar   23   0.584   1.783   2.521
    1   AR   Ar   24   0.817   2.710   1.961
    1   AR   Ar   25   0.544   1.803   3.784
    1   AR   Ar   26   0.033   2.499   4.344
    1   AR   Ar   27   0.710   1.929   4.848
    1   AR   Ar   28   1.512   2.391   4.120
    1   AR   Ar   29   6.742   1.723   5.247
    1   AR   Ar   30   0.463   2.559   6.174
    1   AR   Ar   31   1.080   1.644   6.705
    1   AR   Ar   32   0.992   2.770   5.354
    1   AR   Ar   33   0.328   3.716  -0.178
    1   AR   Ar   34   0.153   4.481   1.360
    1   AR   Ar   35   0.707   3.437   1.005
    1   AR   Ar   36   0.855   4.705  -0.047
    1   AR   Ar   37   0.038   3.587   1.937
    1   AR   Ar   38   0.436   4.614   2.797
    1   AR   Ar   39   0.663   3.463   2.723
    1   AR   Ar   40   0.986   4.096   2.069
    1   AR   Ar   41   0.435   3.033   3.536
    1   AR   Ar   42   0.093   4.346   4.876
    1   AR   Ar   43   0.526   3.317   4.624
    1   AR   Ar   44   0.876   3.982   3.875
    1   AR   Ar   45   7.077   3.726   5.759
    1   AR   Ar   46   0.226   5.103   6.321
    1   AR   Ar   47   1.037   3.439   6.090
    1   AR   Ar   48   0.727   4.553   5.632
    1   AR   Ar   49   6.920   4.613   0.240
    1   AR   Ar   50   6.737   5.403   0.995
    1   AR   Ar   51   1.092   4.592   1.065
    1   AR   Ar   52   0.866   5.556   0.532
    1   AR   Ar   53   6.806   5.454   2.262
    1   AR   Ar   54   7.042   6.647   2.911
    1   AR   Ar   55   0.818   5.696   2.758
    1   AR   Ar   56   0.554   5.552   1.517
    1   AR   Ar   57   0.361   5.168   3.949
    1   AR   Ar   58   0.016   6.126   4.278
    1   AR   Ar   59   0.947   5.381   5.096
    1   AR   Ar   60   0.958   6.339   4.178
    1   AR   Ar   61   6.972   5.775   5.438
    1   AR   Ar   62   0.466   6.220   6.262
    1   AR   Ar   63   1.641   5.387   5.805
    1   AR   Ar   64   0.872   6.625   5.286
    1   AR   Ar   65   1.318   6.659  -0.114
    1   AR   Ar   66   1.860   0.940   1.279
    1   AR   Ar   67   2.291   6.363   0.374
    1   AR   Ar   68   2.838   1.165   0.923
    1   AR   Ar   69   1.746   7.094   1.213
    1   AR   Ar   70   1.685   0.716   2.588
    1   AR   Ar   71   2.268   6.998   2.472
    1   AR   Ar   72   2.822   0.371   1.685
    1   AR   Ar   73   1.795   0.012   3.554
    1   AR   Ar   74   1.333   1.276   4.345
    1   AR   Ar   75   2.526   7.038   4.436
    1   AR   Ar   76   2.538   1.011   3.448
    1   AR   Ar   77   1.887   7.062   5.269
    1   AR   Ar   78   2.088   0.744   5.844
    1   AR   Ar   79   2.723   6.959   6.465
    1   AR   Ar   80   2.748   1.334   5.155
    1   AR   Ar   81   1.685   1.744   0.310
    1   AR   Ar   82   1.363   2.739   0.609
    1   AR   Ar   83   2.617   2.009   1.428
    1   AR   Ar   84   2.523   3.016  -0.151
    1   AR   Ar   85   1.701   1.938   1.911
    1   AR   Ar   86   1.703   2.873   2.760
    1   AR   Ar   87   2.652   1.340   2.355
    1   AR   Ar   88   2.606   2.975   1.986
    1   AR   Ar   89   1.724   1.734   3.026
    1   AR   Ar   90   2.069   3.172   4.587
    1   AR   Ar   91   2.491   1.853   4.248
    1   AR   Ar   92   2.417   2.421   3.425
    1   AR   Ar   93   1.760   1.857   5.166
    1   AR   Ar   94   2.349   3.023   6.171
    1   AR   Ar   95   2.711   1.839   6.050
    1   AR   Ar   96   2.713   2.533   5.279
    1   AR   Ar   97   1.439   3.813   0.319
    1   AR   Ar   98   2.114   4.129   1.422
    1   AR   Ar   99   2.695   3.331   1.005
    1   AR   Ar  100   2.806   4.582   0.297
    1   AR   Ar  101   1.619   3.140   1.615
    1   AR   Ar  102   1.635   4.717   2.781
    1   AR   Ar  103   2.255   3.807   2.513
    1   AR   Ar  104   3.137   4.423   1.565
    1   AR   Ar  105   1.840   3.327   3.576
    1   AR   Ar  106   1.821   4.346   3.932
    1   AR   Ar  107   2.734   4.112   4.499
    1   AR   Ar  108   2.553   4.541   3.275
    1   AR   Ar  109   1.359   3.895   5.083
    1   AR   Ar  110   2.022   4.213   5.792
    1   AR   Ar  111   3.212   4.355   6.459
    1   AR   Ar  112   2.676   4.940   5.670
    1   AR   Ar  113   1.964   5.292   0.510
    1   AR   Ar  114   1.568   6.084   1.320
    1   AR   Ar  115   2.882   5.410   1.045
    1   AR   Ar  116   3.005   7.020  -0.435
    1   AR   Ar  117   1.670   5.143   1.871
    1   AR   Ar  118   1.975   6.046   2.779
    1   AR   Ar  119   2.719   5.128   2.205
    1   AR   Ar  120   2.614   6.359   1.720
    1   AR   Ar  121   1.419   5.280   3.809
    1   AR   Ar  122   1.892   6.077   4.524
    1   AR   Ar  123   2.582   5.431   4.161
    1   AR   Ar  124   2.500   6.307   3.655
    1   AR   Ar  125   1.887   4.826   4.866
    1   AR   Ar  126   1.393   6.787   6.187
    1   AR   Ar  127   2.459   5.448   6.827
    1   AR   Ar  128   2.397   6.142   5.694
    1   AR   Ar  129   3.291   7.018   0.751
    1   AR   Ar  130   3.880   0.864   0.837
    1   AR   Ar  131   4.433   6.934   1.188
    1   AR   Ar  132   4.385   1.472  -0.625
    1   AR   Ar  133   3.378   0.060   2.385
    1   AR   Ar  134   3.575   0.938   2.768
    1   AR   Ar  135   4.296   0.205   2.944
    1   AR   Ar  136   4.124   0.492   1.885
    1   AR   Ar  137   3.010   0.003   3.386
    1   AR   Ar  138   3.331   0.561   4.412
    1   AR   Ar  139   4.290   0.055   4.471
    1   AR   Ar  140   4.091   1.013   3.721
    1   AR   Ar  141   3.035   6.988   5.310
    1   AR   Ar  142   3.286   0.899   6.079
    1   AR   Ar  143   3.888   0.309   6.690
    1   AR   Ar  144   4.117   1.007   5.341
    1   AR   Ar  145   3.625   1.510   0.096
    1   AR   Ar  146   3.488   2.614   0.912
    1   AR   Ar  147   4.296   1.806   0.905
    1   AR   Ar  148   5.261   2.713   0.147
    1   AR   Ar  149   3.776   1.470   1.732
    1   AR   Ar  150   3.145   2.230   2.386
    1   AR   Ar  151   4.318   2.033   2.866
    1   AR   Ar  152   4.228   2.741   1.751
    1   AR   Ar  153   3.301   1.779   3.294
    1   AR   Ar  154   3.120   2.737   4.259
    1   AR   Ar  155   4.208   2.044   4.346
    1   AR   Ar  156   4.579   3.031   3.904
    1   AR   Ar  157   3.595   1.818   5.152
    1   AR   Ar  158   3.323   3.351   6.174
    1   AR   Ar  159   4.519   1.373   6.516
    1   AR   Ar  160   3.937   3.052   5.249
    1   AR   Ar  161   3.510   3.519   0.439
    1   AR   Ar  162   3.753   4.717   0.677
    1   AR   Ar  163   4.407   3.698   0.925
    1   AR   Ar  164   4.823   4.806   0.552
    1   AR   Ar  165   3.581   3.534   1.788
    1   AR   Ar  166   3.641   4.540   2.682
    1   AR   Ar  167   4.003   3.107   2.976
    1   AR   Ar  168   4.093   4.494   1.743
    1   AR   Ar  169   2.971   3.311   3.246
    1   AR   Ar  170   3.496   4.843   4.322
    1   AR   Ar  171   3.744   3.632   4.423
    1   AR   Ar  172   4.530   4.135   3.783
    1   AR   Ar  173   2.717   3.554   5.385
    1   AR   Ar  174   3.955   5.057   6.257
    1   AR   Ar  175   4.293   3.887   6.205
    1   AR   Ar  176   4.226   4.912   5.242
    1   AR   Ar  177   3.788   5.622   0.119
    1   AR   Ar  178   3.730   6.252   1.536
    1   AR   Ar  179   4.345   5.476   1.243
    1   AR   Ar  180   4.669   6.656   0.102
    1   AR   Ar  181   3.894   5.426   2.224
    1   AR   Ar  182   3.121   6.177   2.641
    1   AR   Ar  183   4.505   5.426   3.023
    1   AR   Ar  184   4.511   6.385   2.369
    1   AR   Ar  185   3.460   5.466   3.336
    1   AR   Ar  186   3.346   6.259   4.233
    1   AR   Ar  187   4.377   5.348   4.018
    1   AR   Ar  188   3.993   6.364   3.508
    1   AR   Ar  189   3.400   5.660   5.130
    1   AR   Ar  190   3.374   6.096   6.079
    1   AR   Ar  191   4.386   5.778   5.722
    1   AR   Ar  192   4.318   6.882   5.552
    1   AR   Ar  193   4.997   0.444   0.485
    1   AR   Ar  194   4.848   0.992   1.269
    1   AR   Ar  195   6.071   0.409   1.173
    1   AR   Ar  196   5.587   1.473   0.619
    1   AR   Ar  197   5.057   7.115   1.966
    1   AR   Ar  198   5.354   0.712   2.888
    1   AR   Ar  199   6.058   0.373   2.254
    1   AR   Ar  200   5.952   1.320   1.772
    1   AR   Ar  201   5.442   0.307   3.842
    1   AR   Ar  202   5.133   1.078   4.476
    1   AR   Ar  203   6.266   0.126   4.286
    1   AR   Ar  204   6.386   0.572   3.339
    1   AR   Ar  205   5.187   0.139   5.125
    1   AR   Ar  206   5.271   0.500   6.221
    1   AR   Ar  207   6.110   6.671   5.845
    1   AR   Ar  208   5.970   1.034   5.210
    1   AR   Ar  209   6.104   2.279  -0.913
    1   AR   Ar  210   5.493   2.239   1.372
    1   AR   Ar  211   6.546   1.942   0.419
    1   AR   Ar  212   6.607   3.099   0.209
    1   AR   Ar  213   5.358   1.960   2.448
    1   AR   Ar  214   5.271   2.948   2.304
    1   AR   Ar  215   6.234   1.403   2.713
    1   AR   Ar  216   6.551   2.890   1.348
    1   AR   Ar  217   4.989   1.688   3.544
    1   AR   Ar  218   6.047   2.590   4.418
    1   AR   Ar  219   6.099   1.812   3.717
    1   AR   Ar  220   5.316   2.557   3.287
    1   AR   Ar  221   5.408   2.113   5.363
    1   AR   Ar  222   4.531   2.538   6.031
    1   AR   Ar  223   6.320   2.169   6.363
    1   AR   Ar  224   6.357   2.816   5.430
    1   AR   Ar  225   5.636   3.795  -0.034
    1   AR   Ar  226   5.295   4.220   1.549
    1   AR   Ar  227   6.343   3.985   0.772
    1   AR   Ar  228   5.957   4.836   0.205
    1   AR   Ar  229   5.411   3.238   0.973
    1   AR   Ar  230   5.036   4.137   2.757
    1   AR   Ar  231   6.502   3.411   3.252
    1   AR   Ar  232   6.100   3.611   1.923
    1   AR   Ar  233   5.507   3.518   3.545
    1   AR   Ar  234   5.953   4.413   3.927
    1   AR   Ar  235   6.586   3.591   4.498
    1   AR   Ar  236   6.991   4.213   3.649
    1   AR   Ar  237   5.005   3.222   5.280
    1   AR   Ar  238   5.161   4.454   5.702
    1   AR   Ar  239   6.138   4.141   6.400
    1   AR   Ar  240   6.042   4.155   5.164
    1   AR   Ar  241   5.157   5.891   0.566
    1   AR   Ar  242   5.272   6.140   1.651
    1   AR   Ar  243   6.181   4.756   1.650
    1   AR   Ar  244   5.985   6.608   0.772
    1   AR   Ar  245   5.345   5.057   2.220
    1   AR   Ar  246   5.495   6.280   2.923
    1   AR   Ar  247   6.328   4.361   2.640
    1   AR   Ar  248   6.369   6.372   1.895
    1   AR   Ar  249   6.017   5.385   3.353
    1   AR   Ar  250   4.729   6.253   4.900
    1   AR   Ar  251   6.445   5.231   4.350
    1   AR   Ar  252   5.988   6.285   3.925
    1   AR   Ar  253   5.416   5.124   4.731
    1   AR   Ar  254   5.405   6.080   6.143
    1   AR   Ar  255   6.085   4.983   5.770
    1   AR   Ar  256   5.831   6.431   4.891
    7.12000  7.12000 12.00000
Argon-slab step 260
  256
    1   AR   Ar    1   0.299   0.012  -0.377
    1   AR   Ar    2   7.041   0.575   0.760
    1   AR   Ar    3   0.481   6.696   1.039
    1   AR   Ar    4   1.044   0.949   0.161
    1   AR   Ar    5   7.089   0.087   1.822
    1   AR   Ar    6   0.113   0.550   2.801
    1   AR   Ar    7   1.179   6.922   2.730
    1   AR   Ar    8   0.947   0.685   1.864
    1   AR   Ar    9   0.283   7.001   3.966
    1   AR   Ar   10   6.898   1.106   4.009
    1   AR   Ar   11   1.210   0.236   4.323
    1   AR   Ar   12   0.925   0.705   3.265
    1   AR   Ar   13   7.013   0.289   5.407
    1   AR   Ar   14   0.639   1.433   5.693
    1   AR   Ar   15   1.441   7.084   7.257
    1   AR   Ar   16   1.217   0.811   5.258
    1   AR   Ar   17   0.374   1.765  -0.071
    1   AR   Ar   18   0.359   2.595   0.521
    1   AR   Ar   19   0.852   1.629   1.027
    1   AR   Ar   20   1.090   2.401  -0.721
    1   AR   Ar   21   6.958   1.270   1.983
    1   AR   Ar   22   6.993   2.739   2.394
    1   AR   Ar   23   0.575   1.820   2.515
    1   AR   Ar   24   0.838   2.727   1.963
    1   AR   Ar   25   0.567   1.816   3.791
    1   AR   Ar   26   7.118   2.512   4.336
    1   AR   Ar   27   0.707   1.952   4.868
    1   AR   Ar   28   1.526   2.386   4.097
    1   AR   Ar   29   6.745   1.715   5.256
    1   AR   Ar   30   0.483   2.578   6.157
    1   AR   Ar   31   1.051   1.614   6.693
    1   AR   Ar   32   0.983   2.759   5.375
    1   AR   Ar   33   0.330   3.710  -0.166
    1   AR   Ar   34   0.149   4.502   1.392
    1   AR   Ar   35   0.707   3.415   1.001
    1   AR   Ar   36   0.851   4.663  -0.036
    1   AR   Ar   37   0.030   3.581   1.928
    1   AR   Ar   38   0.467   4.616   2.790
    1   AR   Ar   39   0.676   3.470   2.719
    1   AR   Ar   40   0.999   4.082   2.080
    1   AR   Ar   41   0.437   3.014   3.572
    1   AR   Ar   42   0.082   4.330   4.842
    1   AR   Ar   43   0.535   3.301   4.622
    1   AR   Ar   44   0.892   3.979   3.901
    1   AR   Ar   45   7.075   3.726   5.779
    1   AR   Ar   46   0.215   5.121   6.314
    1   AR   Ar   47   1.020   3.474   6.063
    1   AR   Ar   48   0.746   4.565   5.674
    1   AR   Ar   49   6.935   4.595   0.267
    1   AR   Ar   50   6.695   5.415   0.969
    1   AR   Ar   51   1.092   4.584   1.099
    1   AR   Ar   52   0.883   5.532   0.501
    1   AR   Ar   53   6.804   5.442   2.259
    1   AR   Ar   54   7.057   6.588   2.892
    1   AR   Ar   55   0.774   5.742   2.759
    1   AR   Ar   56   0.542   5.522   1.527
    1   AR   Ar   57   0.365   5.124   3.969
    1   AR   Ar   58   0.043   6.144   4.292
    1   AR   Ar   59   0.953   5.361   5.118
    1   AR   Ar   60   0.954   6.358   4.183
    1   AR   Ar   61   6.957   5.801   5.431
    1   AR   Ar   62   0.475   6.242   6.275
    1   AR   Ar   63   1.656   5.393   5.802
    1   AR   Ar   64   0.862   6.652   5.310
    1   AR   Ar   65   1.296   6.666  -0.106
    1   AR   Ar   66   1.850   0.965   1.265
    1   AR   Ar   67   2.296   6.343   0.383
    1   AR   Ar   68   2.825   1.158   0.923
    1   AR   Ar   69   1.769   7.091   1.181
    1   AR   Ar   70   1.700   0.746   2.578
    1   AR   Ar   71   2.260   7.001   2.496
    1   AR   Ar   72   2.801   0.398   1.706
    1   AR   Ar   73   1.805   0.008   3.524
    1   AR   Ar   74   1.369   1.252   4.381
    1   AR   Ar   75   2.525   7.032   4.416
    1   AR   Ar   76   2.547   1.003   3.462
    1   AR   Ar   77   1.874   7.067   5.276
    1   AR   Ar   78   2.088   0.710   5.889
    1   AR   Ar   79   2.712   6.951   6.475
    1   AR   Ar   80   2.745   1.338   5.158
    1   AR   Ar   81   1.683   1.757   0.291
    1   AR   Ar   82   1.353   2.741   0.580
    1   AR   Ar   83   2.645   2.054   1.477
    1   AR   Ar   84   2.499   3.000  -0.165
    1   AR   Ar   85   1.690   1.956   1.894
    1   AR   Ar   86   1.672   2.893   2.739
    1   AR   Ar   87   2.628   1.315   2.375
    1   AR   Ar   88   2.604   2.995   1.979
    1   AR   Ar   89   1.725   1.737   3.033
    1   AR   Ar   90   2.072   3.168   4.574
    1   AR   Ar   91   2.475   1.864   4.221
    1   AR   Ar   92   2.438   2.416   3.399
    1   AR   Ar   93   1.721   1.863   5.186
    1   AR   Ar   94   2.315   3.025   6.151
    1   AR   Ar   95   2.715   1.824   6.052
    1   AR   Ar   96   2.700   2.529   5.234
    1   AR   Ar   97   1.404   3.813   0.350
    1   AR   Ar   98   2.070   4.150   1.455
    1   AR   Ar   99   2.718   3.355   0.989
    1   AR   Ar  100   2.780   4.561   0.325
    1   AR   Ar  101   1.605   3.136   1.619
    1   AR   Ar  102   1.618   4.719   2.769
    1   AR   Ar  103   2.259   3.808   2.479
    1   AR   Ar  104   3.151   4.409   1.535
    1   AR   Ar  105   1.840   3.339   3.571
    1   AR   Ar  106   1.805   4.328   3.923
    1   AR   Ar  107   2.740   4.098   4.524
    1   AR   Ar  108   2.565   4.514   3.245
    1   AR   Ar  109   1.340   3.891   5.098
    1   AR   Ar  110   2.024   4.184   5.796
    1   AR   Ar  111   3.171   4.332   6.473
    1   AR   Ar  112   2.691   4.930   5.680
    1   AR   Ar  113   1.948   5.274   0.523
    1   AR   Ar  114   1.576   6.072   1.348
    1   AR   Ar  115   2.883   5.402   1.029
    1   AR   Ar  116   3.016   7.047  -0.417
    1   AR   Ar  117   1.664   5.166   1.903
    1   AR   Ar  118   1.968   6.035   2.785
    1   AR   Ar  119   2.709   5.088   2.246
    1   AR   Ar  120   2.620   6.317   1.712
    1   AR   Ar  121   1.384   5.283   3.787
    1   AR   Ar  122   1.906   6.091   4.520
    1   AR   Ar  123   2.575   5.432   4.169
    1   AR   Ar  124   2.495   6.303   3.669
    1   AR   Ar  125   1.877   4.812   4.885
    1   AR   Ar  126   1.366   6.788   6.188
    1   AR   Ar  127   2.450   5.422   6.823
    1   AR   Ar  128   2.386   6.150   5.700
    1   AR   Ar  129   3.278   7.022   0.716
    1   AR   Ar  130   3.913   0.859   0.838
    1   AR   Ar  131   4.448   6.926   1.196
    1   AR   Ar  132   4.386   1.483  -0.618
    1   AR   Ar  133   3.378   0.057   2.385
    1   AR   Ar  134   3.551   0.946   2.751
    1   AR   Ar  135   4.330   0.241   2.920
    1   AR   Ar  136   4.124   0.517   1.896
    1   AR   Ar  137   3.009   7.117   3.360
    1   AR   Ar  138   3.326   0.612   4.452
    1   AR   Ar  139   4.299   0.013   4.480
    1   AR   Ar  140   4.035   1.024   3.710
    1   AR   Ar  141   3.005   6.988   5.328
    1   AR   Ar  142   3.284   0.898   6.064
    1   AR   Ar  143   3.873   0.317   6.696
    1   AR   Ar  144   4.131   1.030   5.351
    1   AR   Ar  145   3.620   1.536   0.079
    1   AR   Ar  146   3.504   2.594   0.913
    1   AR   Ar  147   4.302   1.809   0.936
    1   AR   Ar  148   5.258   2.681   0.095
    1   AR   Ar  149   3.785   1.487   1.734
    1   AR   Ar  150   3.153   2.219   2.407
    1   AR   Ar  151   4.307   2.033   2.875
    1   AR   Ar  152   4.215   2.748   1.768
    1   AR   Ar  153   3.276   1.785   3.329
    1   AR   Ar  154   3.130   2.724   4.280
    1   AR   Ar  155   4.186   2.040   4.347
    1   AR   Ar  156   4.571   3.045   3.896
    1   AR   Ar  157   3.589   1.829   5.158
    1   AR   Ar  158   3.323   3.352   6.167
    1   AR   Ar  159   4.506   1.393   6.518
    1   AR   Ar  160   3.925   3.024   5.239
    1   AR   Ar  161   3.480   3.504   0.430
    1   AR   Ar  162   3.775   4.756   0.683
    1   AR   Ar  163   4.412   3.687   0.942
    1   AR   Ar  164   4.837   4.809   0.521
    1   AR   Ar  165   3.587   3.481   1.806
    1   AR   Ar  166   3.654   4.544   2.687
    1   AR   Ar  167   3.994   3.099   2.978
    1   AR   Ar  168   4.119   4.484   1.757
    1   AR   Ar  169   2.953   3.323   3.242
    1   AR   Ar  170   3.493   4.818   4.314
    1   AR   Ar  171   3.720   3.656   4.431
    1   AR   Ar  172   4.518   4.129   3.800
    1   AR   Ar  173   2.708   3.578   5.387
    1   AR   Ar  174   3.975   5.065   6.274
    1   AR   Ar  175   4.283   3.897   6.200
    1   AR   Ar  176   4.218   4.904   5.239
    1   AR   Ar  177   3.811   5.615   0.121
    1   AR   Ar  178   3.694   6.244   1.549
    1   AR   Ar  179   4.346   5.455   1.226
    1   AR   Ar  180   4.653   6.665   0.099
    1   AR   Ar  181   3.910   5.414   2.210
    1   AR   Ar  182   3.116   6.187   2.600
    1   AR   Ar  183   4.531   5.444   3.000
    1   AR   Ar  184   4.486   6.377   2.418
    1   AR   Ar  185   3.458   5.460   3.346
    1   AR   Ar  186   3.345   6.235   4.292
    1   AR   Ar  187   4.375   5.346   4.030
    1   AR   Ar  188   3.996   6.349   3.488
    1   AR   Ar  189   3.380   5.646   5.152
    1   AR   Ar  190   3.403   6.072   6.111
    1   AR   Ar  191   4.370   5.797   5.735
    1   AR   Ar  192   4.318   6.874   5.561
    1   AR   Ar  193   5.014   0.439   0.480
    1   AR   Ar  194   4.858   0.997   1.280
    1   AR   Ar  195   6.067   0.436   1.167
    1   AR   Ar  196   5.581   1.490   0.620
    1   AR   Ar  197   5.094   0.008   1.945
    1   AR   Ar  198   5.331   0.691   2.865
    1   AR   Ar  199   6.067   0.368   2.249
    1   AR   Ar  200   5.959   1.309   1.774
    1   AR   Ar  201   5.430   0.312   3.873
    1   AR   Ar  202   5.110   1.086   4.472
    1   AR   Ar  203   6.269   0.093   4.313
    1   AR   Ar  204   6.361   0.579   3.355
    1   AR   Ar  205   5.184   0.105   5.149
    1   AR   Ar  206   5.257   0.501   6.234
    1   AR   Ar  207   6.121   6.656   5.854
    1   AR   Ar  208   5.968   1.016   5.203
    1   AR   Ar  209   6.127   2.299  -0.942
    1   AR   Ar  210   5.495   2.266   1.348
    1   AR   Ar  211   6.495   1.934   0.423
    1   AR   Ar  212   6.614   3.127   0.201
    1   AR   Ar  213   5.364   1.962   2.437
    1   AR   Ar  214   5.243   2.957   2.281
    1   AR   Ar  215   6.255   1.402   2.711
    1   AR   Ar  216   6.544   2.871   1.345
    1   AR   Ar  217   4.998   1.670   3.543
    1   AR   Ar  218   6.038   2.582   4.422
    1   AR   Ar  219   6.093   1.801   3.693
    1   AR   Ar  220   5.296   2.583   3.299
    1   AR   Ar  221   5.419   2.110   5.368
    1   AR   Ar  222   4.497   2.531   6.037
    1   AR   Ar  223   6.323   2.151   6.393
    1   AR   Ar  224   6.358   2.824   5.397
    1   AR   Ar  225   5.644   3.806  -0.019
    1   AR   Ar  226   5.320   4.194   1.552
    1   AR   Ar  227   6.339   3.973   0.791
    1   AR   Ar  228   5.958   4.851   0.184
    1   AR   Ar  229   5.421   3.252   0.983
    1   AR   Ar  230   5.016   4.109   2.779
    1   AR   Ar  231   6.518   3.392   3.270
    1   AR   Ar  232   6.100   3.620   1.909
    1   AR   Ar  233   5.528   3.539   3.538
    1   AR   Ar  234   5.968   4.379   3.901
    1   AR   Ar  235   6.605   3.570   4.510
    1   AR   Ar  236   6.978   4.227   3.666
    1   AR   Ar  237   4.989   3.216   5.277
    1   AR   Ar  238   5.153   4.460   5.726
    1   AR   Ar  239   6.143   4.150   6.414
    1   AR   Ar  240   6.057   4.165   5.182
    1   AR   Ar  241   5.129   5.909   0.586
    1   AR   Ar  242   5.288   6.107   1.698
    1   AR   Ar  243   6.187   4.709   1.676
    1   AR   Ar  244   5.963   6.610   0.800
    1   AR   Ar  245   5.321   5.080   2.240
    1   AR   Ar  246   5.471   6.290   2.892
    1   AR   Ar  247   6.314   4.361   2.617
    1   AR   Ar  248   6.365   6.371   1.893
    1   AR   Ar  249   6.031   5.389   3.379
    1   AR   Ar  250   4.723   6.261   4.883
    1   AR   Ar  251   6.462   5.219   4.345
    1   AR   Ar  252   5.994   6.294   3.945
    1   AR   Ar  253   5.448   5.110   4.743
    1   AR   Ar  254   5.396   6.082   6.151
    1   AR   Ar  255   6.086   4.973   5.753
    1   AR   Ar  256   5.815   6.432   4.862
    7.12000  7.12000 12.00000
Argon-slab step 265
  256
    1   AR   Ar    1   0.301   0.027  -0.390
    1   AR   Ar    2   7.054   0.582   0.750
    1   AR   Ar    3   0.461   6.708   1.020
    1   AR   Ar    4   1.044   0.929   0.152
    1   AR   Ar    5   7.093   0.068   1.817
    1   AR   Ar    6   0.114   0.544   2.825
    1   AR   Ar    7   1.156   6.911   2.720
    1   AR   Ar    8   0.943   0.639   1.868
    1   AR   Ar    9   0.305   7.039   3.980
    1   AR   Ar   10   6.916   1.110   4.026
    1   AR   Ar   11   1.223   0.248   4.310
    1   AR   Ar   12   0.911   0.728   3.280
    1   AR   Ar   13   7.032   0.296   5.395
    1   AR   Ar   14   0.617   1.442   5.747
    1   AR   Ar   15   1.495   7.084   7.263
    1   AR   Ar   16   1.227   0.786   5.237
    1   AR   Ar   17   0.399   1.782  -0.061
    1   AR   Ar   18   0.375   2.595   0.482
    1   AR   Ar   19   0.870   1.643   1.048
    1   AR   Ar   20   1.064   2.400  -0.750
    1   AR   Ar   21   6.946   1.256   2.015
    1   AR   Ar   22   6.965   2.731   2.409
    1   AR   Ar   23   0.569   1.856   2.512
    1   AR   Ar   24   0.838   2.732   1.971
    1   AR   Ar   25   0.593   1.828   3.795
    1   AR   Ar   26   7.070   2.518   4.331
    1   AR   Ar   27   0.702   1.974   4.873
    1   AR   Ar   28   1.539   2.376   4.095
    1   AR   Ar   29   6.751   1.711   5.264
    1   AR   Ar   30   0.487   2.589   6.157
    1   AR   Ar   31   1.022   1.584   6.680
    1   AR   Ar   32   0.993   2.751   5.376
    1   AR   Ar   33   0.333   3.704  -0.153
    1   AR   Ar   34   0.135   4.522   1.426
    1   AR   Ar   35   0.701   3.402   1.008
    1   AR   Ar   36   0.848   4.619  -0.027
    1   AR   Ar   37   0.025   3.586   1.909
    1   AR   Ar   38   0.496   4.620   2.787
    1   AR   Ar   39   0.686   3.467   2.730
    1   AR   Ar   40   1.013   4.094   2.083
    1   AR   Ar   41   0.439   2.993   3.610
    1   AR   Ar   42   0.074   4.319   4.807
    1   AR   Ar   43   0.551   3.282   4.625
    1   AR   Ar   44   0.898   3.973   3.924
    1   AR   Ar   45   7.073   3.725   5.798
    1   AR   Ar   46   0.199   5.144   6.311
    1   AR   Ar   47   1.007   3.519   6.041
    1   AR   Ar   48   0.769   4.565   5.717
    1   AR   Ar   49   6.962   4.580   0.292
    1   AR   Ar   50   6.718   5.413   0.945
    1   AR   Ar   51   1.103   4.578   1.129
    1   AR   Ar   52   0.900   5.515   0.474
    1   AR   Ar   53   6.795   5.429   2.241
    1   AR   Ar   54   7.072   6.528   2.872
    1   AR   Ar   55   0.731   5.787   2.760
    1   AR   Ar   56   0.531   5.492   1.539
    1   AR   Ar   57   0.368   5.080   3.990
    1   AR   Ar   58   0.038   6.137   4.318
    1   AR   Ar   59   0.950   5.351   5.124
    1   AR   Ar   60   0.983   6.366   4.187
    1   AR   Ar   61   6.943   5.826   5.423
    1   AR   Ar   62   0.456   6.260   6.282
    1   AR   Ar   63   1.698   5.379   5.787
    1   AR   Ar   64   0.847   6.678   5.325
    1   AR   Ar   65   1.273   6.673  -0.094
    1   AR   Ar   66   1.838   1.000   1.253
    1   AR   Ar   67   2.302   6.323   0.394
    1   AR   Ar   68   2.820   1.151   0.908
    1   AR   Ar   69   1.792   7.081   1.148
    1   AR   Ar   70   1.721   0.781   2.568
    1   AR   Ar   71   2.257   7.004   2.519
    1   AR   Ar   72   2.769   0.433   1.712
    1   AR   Ar   73   1.822   0.004   3.493
    1   AR   Ar   74   1.409   1.236   4.404
    1   AR   Ar   75   2.506   7.045   4.363
    1   AR   Ar   76   2.531   1.010   3.443
    1   AR   Ar   77   1.860   7.065   5.276
    1   AR   Ar   78   2.094   0.682   5.939
    1   AR   Ar   79   2.701   6.944   6.483
    1   AR   Ar   80   2.729   1.331   5.154
    1   AR   Ar   81   1.684   1.773   0.274
    1   AR   Ar   82   1.355   2.740   0.550
    1   AR   Ar   83   2.674   2.099   1.522
    1   AR   Ar   84   2.470   2.977  -0.186
    1   AR   Ar   85   1.676   1.974   1.878
    1   AR   Ar   86   1.679   2.902   2.711
    1   AR   Ar   87   2.601   1.288   2.392
    1   AR   Ar   88   2.603   3.014   1.972
    1   AR   Ar   89   1.722   1.740   3.040
    1   AR   Ar   90   2.077   3.165   4.565
    1   AR   Ar   91   2.458   1.867   4.203
    1   AR   Ar   92   2.457   2.417   3.366
    1   AR   Ar   93   1.686   1.871   5.208
    1   AR   Ar   94   2.276   3.024   6.135
    1   AR   Ar   95   2.718   1.812   6.060
    1   AR   Ar   96   2.691   2.534   5.215
    1   AR   Ar   97   1.374   3.814   0.381
    1   AR   Ar   98   2.025   4.173   1.488
    1   AR   Ar   99   2.725   3.378   0.984
    1   AR   Ar  100   2.752   4.538   0.354
    1   AR   Ar  101   1.601   3.142   1.620
    1   AR   Ar  102   1.599   4.716   2.769
    1   AR   Ar  103   2.258   3.814   2.449
    1   AR   Ar  104   3.155   4.394   1.502
    1   AR   Ar  105   1.841   3.359   3.579
    1   AR   Ar  106   1.800   4.314   3.918
    1   AR   Ar  107   2.742   4.087   4.541
    1   AR   Ar  108   2.584   4.488   3.215
    1   AR   Ar  109   1.318   3.884   5.105
    1   AR   Ar  110   2.042   4.180   5.788
    1   AR   Ar  111   3.170   4.339   6.478
    1   AR   Ar  112   2.713   4.928   5.688
    1   AR   Ar  113   1.956   5.267   0.537
    1   AR   Ar  114   1.582   6.057   1.374
    1   AR   Ar  115   2.893   5.434   1.022
    1   AR   Ar  116   3.026   7.074  -0.397
    1   AR   Ar  117   1.658   5.193   1.924
    1   AR   Ar  118   1.958   6.018   2.789
    1   AR   Ar  119   2.700   5.049   2.288
    1   AR   Ar  120   2.622   6.276   1.699
    1   AR   Ar  121   1.351   5.291   3.764
    1   AR   Ar  122   1.915   6.109   4.525
    1   AR   Ar  123   2.573   5.418   4.177
    1   AR   Ar  124   2.485   6.296   3.665
    1   AR   Ar  125   1.860   4.802   4.903
    1   AR   Ar  126   1.345   6.790   6.194
    1   AR   Ar  127   2.441   5.397   6.815
    1   AR   Ar  128   2.375   6.160   5.705
    1   AR   Ar  129   3.265   7.027   0.683
    1   AR   Ar  130   3.943   0.846   0.840
    1   AR   Ar  131   4.460   6.915   1.195
    1   AR   Ar  132   4.390   1.493  -0.613
    1   AR   Ar  133   3.384   0.032   2.394
    1   AR   Ar  134   3.542   0.960   2.731
    1   AR   Ar  135   4.366   0.274   2.899
    1   AR   Ar  136   4.127   0.543   1.906
    1   AR   Ar  137   3.012   7.116   3.336
    1   AR   Ar  138   3.326   0.651   4.490
    1   AR   Ar  139   4.305   7.095   4.485
    1   AR   Ar  140   3.982   1.036   3.700
    1   AR   Ar  141   2.978   6.988   5.351
    1   AR   Ar  142   3.279   0.898   6.045
    1   AR   Ar  143   3.860   0.322   6.702
    1   AR   Ar  144   4.153   1.042   5.362
    1   AR   Ar  145   3.610   1.565   0.066
    1   AR   Ar  146   3.520   2.569   0.917
    1   AR   Ar  147   4.315   1.823   0.960
    1   AR   Ar  148   5.255   2.647   0.041
    1   AR   Ar  149   3.787   1.506   1.743
    1   AR   Ar  150   3.167   2.211   2.427
    1   AR   Ar  151   4.293   2.035   2.880
    1   AR   Ar  152   4.213   2.740   1.785
    1   AR   Ar  153   3.255   1.792   3.372
    1   AR   Ar  154   3.142   2.713   4.298
    1   AR   Ar  155   4.167   2.037   4.343
    1   AR   Ar  156   4.561   3.059   3.891
    1   AR   Ar  157   3.584   1.857   5.165
    1   AR   Ar  158   3.330   3.348   6.162
    1   AR   Ar  159   4.494   1.406   6.524
    1   AR   Ar  160   3.910   2.992   5.231
    1   AR   Ar  161   3.489   3.505   0.435
    1   AR   Ar  162   3.796   4.788   0.693
    1   AR   Ar  163   4.429   3.716   0.957
    1   AR   Ar  164   4.854   4.810   0.491
    1   AR   Ar  165   3.583   3.439   1.824
    1   AR   Ar  166   3.663   4.543   2.699
    1   AR   Ar  167   3.986   3.091   2.978
    1   AR   Ar  168   4.159   4.472   1.767
    1   AR   Ar  169   2.936   3.339   3.238
    1   AR   Ar  170   3.491   4.795   4.306
    1   AR   Ar  171   3.697   3.681   4.437
    1   AR   Ar  172   4.506   4.126   3.816
    1   AR   Ar  173   2.705   3.600   5.382
    1   AR   Ar  174   3.980   5.047   6.285
    1   AR   Ar  175   4.273   3.908   6.193
    1   AR   Ar  176   4.209   4.891   5.231
    1   AR   Ar  177   3.835   5.613   0.123
    1   AR   Ar  178   3.656   6.238   1.562
    1   AR   Ar  179   4.350   5.437   1.210
    1   AR   Ar  180   4.632   6.674   0.092
    1   AR   Ar  181   3.920   5.408   2.190
    1   AR   Ar  182   3.112   6.194   2.566
    1   AR   Ar  183   4.523   5.433   2.994
    1   AR   Ar  184   4.457   6.367   2.466
    1   AR   Ar  185   3.452   5.451   3.356
    1   AR   Ar  186   3.344   6.212   4.353
    1   AR   Ar  187   4.374   5.344   4.046
    1   AR   Ar  188   4.002   6.338   3.464
    1   AR   Ar  189   3.373   5.614   5.188
    1   AR   Ar  190   3.431   6.050   6.146
    1   AR   Ar  191   4.359   5.824   5.747
    1   AR   Ar  192   4.307   6.872   5.580
    1   AR   Ar  193   5.034   0.431   0.468
    1   AR   Ar  194   4.852   0.995   1.296
    1   AR   Ar  195   6.061   0.466   1.162
    1   AR   Ar  196   5.570   1.504   0.620
    1   AR   Ar  197   5.137   0.027   1.928
    1   AR   Ar  198   5.304   0.674   2.844
    1   AR   Ar  199   6.085   0.359   2.243
    1   AR   Ar  200   5.955   1.300   1.762
    1   AR   Ar  201   5.405   0.314   3.897
    1   AR   Ar  202   5.083   1.098   4.472
    1   AR   Ar  203   6.289   0.064   4.350
    1   AR   Ar  204   6.327   0.578   3.366
    1   AR   Ar  205   5.184   0.070   5.177
    1   AR   Ar  206   5.242   0.501   6.244
    1   AR   Ar  207   6.112   6.672   5.840
    1   AR   Ar  208   5.964   0.994   5.194
    1   AR   Ar  209   6.151   2.319  -0.970
    1   AR   Ar  210   5.498   2.292   1.326
    1   AR   Ar  211   6.449   1.931   0.427
    1   AR   Ar  212   6.603   3.144   0.201
    1   AR   Ar  213   5.370   1.955   2.425
    1   AR   Ar  214   5.213   2.974   2.255
    1   AR   Ar  215   6.276   1.404   2.722
    1   AR   Ar  216   6.538   2.849   1.336
    1   AR   Ar  217   5.006   1.640   3.548
    1   AR   Ar  218   6.026   2.574   4.424
    1   AR   Ar  219   6.088   1.783   3.666
    1   AR   Ar  220   5.281   2.612   3.307
    1   AR   Ar  221   5.430   2.107   5.371
    1   AR   Ar  222   4.462   2.523   6.043
    1   AR   Ar  223   6.326   2.132   6.420
    1   AR   Ar  224   6.361   2.834   5.367
    1   AR   Ar  225   5.651   3.815  -0.003
    1   AR   Ar  226   5.334   4.167   1.553
    1   AR   Ar  227   6.331   3.957   0.820
    1   AR   Ar  228   5.952   4.870   0.164
    1   AR   Ar  229   5.425   3.263   1.001
    1   AR   Ar  230   4.995   4.082   2.799
    1   AR   Ar  231   6.536   3.368   3.285
    1   AR   Ar  232   6.098   3.626   1.896
    1   AR   Ar  233   5.543   3.560   3.532
    1   AR   Ar  234   5.982   4.350   3.878
    1   AR   Ar  235   6.621   3.543   4.517
    1   AR   Ar  236   6.969   4.243   3.683
    1   AR   Ar  237   4.975   3.210   5.274
    1   AR   Ar  238   5.142   4.466   5.750
    1   AR   Ar  239   6.149   4.157   6.427
    1   AR   Ar  240   6.072   4.167   5.194
    1   AR   Ar  241   5.105   5.922   0.611
    1   AR   Ar  242   5.305   6.071   1.744
    1   AR   Ar  243   6.198   4.667   1.695
    1   AR   Ar  244   5.940   6.606   0.828
    1   AR   Ar  245   5.297   5.103   2.260
    1   AR   Ar  246   5.448   6.300   2.861
    1   AR   Ar  247   6.302   4.361   2.606
    1   AR   Ar  248   6.356   6.370   1.899
    1   AR   Ar  249   6.045   5.391   3.401
    1   AR   Ar  250   4.723   6.260   4.857
    1   AR   Ar  251   6.481   5.209   4.343
    1   AR   Ar  252   6.005   6.298   3.941
    1   AR   Ar  253   5.480   5.104   4.762
    1   AR   Ar  254   5.375   6.073   6.161
    1   AR   Ar  255   6.091   4.976   5.740
    1   AR   Ar  256   5.794   6.429   4.856
    7.12000  7.12000 12.00000
Argon-slab step 270
  256
    1   AR   Ar    1   0.304   0.043  -0.401
    1   AR   Ar    2   7.070   0.589   0.740
    1   AR   Ar    3   0.444   6.717   0.998
    1   AR   Ar    4   1.042   0.914   0.169
    1   AR   Ar    5   7.095   0.051   1.814
    1   AR   Ar    6   0.094   0.533   2.835
    1   AR   Ar    7   1.131   6.899   2.708
    1   AR   Ar    8   0.935   0.594   1.870
    1   AR   Ar    9   0.314   7.097   3.985
    1   AR   Ar   10   6.938   1.115   4.046
    1   AR   Ar   11   1.232   0.261   4.302
    1   AR   Ar   12   0.921   0.758   3.311
    1   AR   Ar   13   7.051   0.303   5.381
    1   AR   Ar   14   0.589   1.452   5.803
    1   AR   Ar   15   1.550   7.083   7.267
    1   AR   Ar   16   1.235   0.753   5.230
    1   AR   Ar   17   0.424   1.788  -0.056
    1   AR   Ar   18   0.380   2.599   0.448
    1   AR   Ar   19   0.887   1.658   1.070
    1   AR   Ar   20   1.037   2.399  -0.777
    1   AR   Ar   21   6.947   1.237   2.038
    1   AR   Ar   22   6.934   2.716   2.430
    1   AR   Ar   23   0.565   1.890   2.511
    1   AR   Ar   24   0.816   2.725   1.985
    1   AR   Ar   25   0.599   1.825   3.800
    1   AR   Ar   26   7.013   2.515   4.333
    1   AR   Ar   27   0.690   1.987   4.865
    1   AR   Ar   28   1.548   2.369   4.101
    1   AR   Ar   29   6.759   1.710   5.271
    1   AR   Ar   30   0.477   2.592   6.177
    1   AR   Ar   31   0.996   1.556   6.671
    1   AR   Ar   32   1.024   2.752   5.365
    1   AR   Ar   33   0.337   3.693  -0.138
    1   AR   Ar   34   0.113   4.541   1.461
    1   AR   Ar   35   0.688   3.397   1.026
    1   AR   Ar   36   0.848   4.575  -0.021
    1   AR   Ar   37   0.035   3.592   1.910
    1   AR   Ar   38   0.520   4.628   2.788
    1   AR   Ar   39   0.693   3.456   2.755
    1   AR   Ar   40   1.030   4.123   2.078
    1   AR   Ar   41   0.445   2.973   3.643
    1   AR   Ar   42   0.089   4.310   4.807
    1   AR   Ar   43   0.568   3.268   4.630
    1   AR   Ar   44   0.888   3.965   3.945
    1   AR   Ar   45   7.070   3.724   5.814
    1   AR   Ar   46   0.178   5.172   6.311
    1   AR   Ar   47   0.996   3.571   6.026
    1   AR   Ar   48   0.795   4.554   5.761
    1   AR   Ar   49   6.992   4.565   0.317
    1   AR   Ar   50   6.755   5.408   0.924
    1   AR   Ar   51   1.118   4.575   1.154
    1   AR   Ar   52   0.916   5.503   0.451
    1   AR   Ar   53   6.787   5.415   2.224
    1   AR   Ar   54   7.084   6.470   2.852
    1   AR   Ar   55   0.691   5.830   2.760
    1   AR   Ar   56   0.524   5.466   1.552
    1   AR   Ar   57   0.373   5.038   4.013
    1   AR   Ar   58   0.016   6.116   4.350
    1   AR   Ar   59   0.944   5.348   5.121
    1   AR   Ar   60   1.031   6.363   4.189
    1   AR   Ar   61   6.928   5.850   5.414
    1   AR   Ar   62   0.432   6.275   6.287
    1   AR   Ar   63   1.744   5.362   5.781
    1   AR   Ar   64   0.827   6.703   5.331
    1   AR   Ar   65   1.251   6.680  -0.081
    1   AR   Ar   66   1.823   1.040   1.244
    1   AR   Ar   67   2.308   6.304   0.407
    1   AR   Ar   68   2.820   1.145   0.892
    1   AR   Ar   69   1.816   7.069   1.115
    1   AR   Ar   70   1.738   0.814   2.558
    1   AR   Ar   71   2.258   7.005   2.541
    1   AR   Ar   72   2.773   0.397   1.747
    1   AR   Ar   73   1.854   7.103   3.478
    1   AR   Ar   74   1.454   1.235   4.409
    1   AR   Ar   75   2.487   7.061   4.312
    1   AR   Ar   76   2.512   1.015   3.425
    1   AR   Ar   77   1.847   7.055   5.270
    1   AR   Ar   78   2.102   0.659   5.993
    1   AR   Ar   79   2.690   6.937   6.488
    1   AR   Ar   80   2.705   1.317   5.146
    1   AR   Ar   81   1.686   1.788   0.258
    1   AR   Ar   82   1.368   2.739   0.520
    1   AR   Ar   83   2.705   2.137   1.560
    1   AR   Ar   84   2.442   2.954  -0.204
    1   AR   Ar   85   1.660   1.991   1.865
    1   AR   Ar   86   1.685   2.905   2.673
    1   AR   Ar   87   2.575   1.265   2.406
    1   AR   Ar   88   2.604   3.030   1.966
    1   AR   Ar   89   1.717   1.743   3.047
    1   AR   Ar   90   2.083   3.164   4.561
    1   AR   Ar   91   2.444   1.863   4.193
    1   AR   Ar   92   2.472   2.427   3.326
    1   AR   Ar   93   1.657   1.880   5.233
    1   AR   Ar   94   2.233   3.020   6.121
    1   AR   Ar   95   2.719   1.804   6.071
    1   AR   Ar   96   2.683   2.543   5.218
    1   AR   Ar   97   1.379   3.792   0.386
    1   AR   Ar   98   1.982   4.196   1.518
    1   AR   Ar   99   2.695   3.393   0.990
    1   AR   Ar  100   2.723   4.511   0.386
    1   AR   Ar  101   1.608   3.150   1.616
    1   AR   Ar  102   1.580   4.705   2.784
    1   AR   Ar  103   2.254   3.828   2.425
    1   AR   Ar  104   3.154   4.380   1.467
    1   AR   Ar  105   1.843   3.379   3.588
    1   AR   Ar  106   1.810   4.311   3.916
    1   AR   Ar  107   2.737   4.085   4.546
    1   AR   Ar  108   2.589   4.467   3.190
    1   AR   Ar  109   1.305   3.897   5.119
    1   AR   Ar  110   2.046   4.180   5.790
    1   AR   Ar  111   3.195   4.365   6.479
    1   AR   Ar  112   2.739   4.931   5.695
    1   AR   Ar  113   2.000   5.277   0.551
    1   AR   Ar  114   1.586   6.045   1.396
    1   AR   Ar  115   2.905   5.467   1.016
    1   AR   Ar  116   3.036   7.101  -0.376
    1   AR   Ar  117   1.653   5.222   1.933
    1   AR   Ar  118   1.946   5.998   2.791
    1   AR   Ar  119   2.691   5.013   2.329
    1   AR   Ar  120   2.615   6.237   1.679
    1   AR   Ar  121   1.377   5.277   3.756
    1   AR   Ar  122   1.924   6.129   4.538
    1   AR   Ar  123   2.576   5.392   4.186
    1   AR   Ar  124   2.476   6.286   3.653
    1   AR   Ar  125   1.847   4.793   4.917
    1   AR   Ar  126   1.334   6.796   6.205
    1   AR   Ar  127   2.434   5.372   6.803
    1   AR   Ar  128   2.367   6.172   5.710
    1   AR   Ar  129   3.253   7.031   0.654
    1   AR   Ar  130   3.967   0.827   0.839
    1   AR   Ar  131   4.469   6.901   1.190
    1   AR   Ar  132   4.397   1.503  -0.610
    1   AR   Ar  133   3.396   7.117   2.402
    1   AR   Ar  134   3.534   0.982   2.712
    1   AR   Ar  135   4.397   0.302   2.881
    1   AR   Ar  136   4.133   0.567   1.912
    1   AR   Ar  137   3.017   7.119   3.318
    1   AR   Ar  138   3.339   0.633   4.511
    1   AR   Ar  139   4.307   7.065   4.487
    1   AR   Ar  140   3.931   1.047   3.692
    1   AR   Ar  141   2.955   6.989   5.375
    1   AR   Ar  142   3.273   0.898   6.022
    1   AR   Ar  143   3.882   0.293   6.678
    1   AR   Ar  144   4.179   1.046   5.374
    1   AR   Ar  145   3.597   1.595   0.057
    1   AR   Ar  146   3.535   2.541   0.924
    1   AR   Ar  147   4.333   1.846   0.976
    1   AR   Ar  148   5.255   2.613  -0.010
    1   AR   Ar  149   3.781   1.527   1.761
    1   AR   Ar  150   3.175   2.201   2.440
    1   AR   Ar  151   4.275   2.036   2.883
    1   AR   Ar  152   4.229   2.713   1.802
    1   AR   Ar  153   3.240   1.795   3.419
    1   AR   Ar  154   3.157   2.702   4.312
    1   AR   Ar  155   4.151   2.034   4.332
    1   AR   Ar  156   4.553   3.070   3.877
    1   AR   Ar  157   3.579   1.894   5.176
    1   AR   Ar  158   3.340   3.338   6.158
    1   AR   Ar  159   4.483   1.398   6.551
    1   AR   Ar  160   3.891   2.959   5.222
    1   AR   Ar  161   3.522   3.514   0.434
    1   AR   Ar  162   3.809   4.805   0.704
    1   AR   Ar  163   4.447   3.756   0.973
    1   AR   Ar  164   4.874   4.809   0.460
    1   AR   Ar  165   3.563   3.415   1.842
    1   AR   Ar  166   3.669   4.538   2.716
    1   AR   Ar  167   3.977   3.083   2.974
    1   AR   Ar  168   4.207   4.457   1.775
    1   AR   Ar  169   2.918   3.357   3.234
    1   AR   Ar  170   3.490   4.772   4.297
    1   AR   Ar  171   3.677   3.705   4.440
    1   AR   Ar  172   4.494   4.126   3.832
    1   AR   Ar  173   2.711   3.611   5.377
    1   AR   Ar  174   3.983   5.025   6.300
    1   AR   Ar  175   4.263   3.919   6.185
    1   AR   Ar  176   4.209   4.878   5.253
    1   AR   Ar  177   3.860   5.618   0.122
    1   AR   Ar  178   3.620   6.235   1.575
    1   AR   Ar  179   4.358   5.426   1.200
    1   AR   Ar  180   4.605   6.683   0.082
    1   AR   Ar  181   3.923   5.407   2.167
    1   AR   Ar  182   3.111   6.192   2.543
    1   AR   Ar  183   4.511   5.413   2.996
    1   AR   Ar  184   4.424   6.360   2.510
    1   AR   Ar  185   3.443   5.438   3.367
    1   AR   Ar  186   3.359   6.199   4.339
    1   AR   Ar  187   4.374   5.344   4.064
    1   AR   Ar  188   4.010   6.331   3.439
    1   AR   Ar  189   3.366   5.581   5.225
    1   AR   Ar  190   3.454   6.030   6.185
    1   AR   Ar  191   4.354   5.853   5.757
    1   AR   Ar  192   4.287   6.873   5.606
    1   AR   Ar  193   5.059   0.425   0.455
    1   AR   Ar  194   4.842   0.989   1.314
    1   AR   Ar  195   6.053   0.497   1.156
    1   AR   Ar  196   5.550   1.510   0.622
    1   AR   Ar  197   5.182   0.047   1.915
    1   AR   Ar  198   5.280   0.664   2.826
    1   AR   Ar  199   6.110   0.362   2.242
    1   AR   Ar  200   5.942   1.297   1.742
    1   AR   Ar  201   5.375   0.313   3.916
    1   AR   Ar  202   5.054   1.113   4.478
    1   AR   Ar  203   6.320   0.044   4.392
    1   AR   Ar  204   6.289   0.572   3.376
    1   AR   Ar  205   5.189   0.043   5.205
    1   AR   Ar  206   5.226   0.502   6.252
    1   AR   Ar  207   6.103   6.699   5.818
    1   AR   Ar  208   5.958   0.969   5.184
    1   AR   Ar  209   6.175   2.340  -0.995
    1   AR   Ar  210   5.500   2.315   1.309
    1   AR   Ar  211   6.413   1.933   0.430
    1   AR   Ar  212   6.591   3.163   0.213
    1   AR   Ar  213   5.374   1.943   2.414
    1   AR   Ar  214   5.183   2.997   2.228
    1   AR   Ar  215   6.276   1.413   2.716
    1   AR   Ar  216   6.534   2.825   1.325
    1   AR   Ar  217   5.014   1.604   3.553
    1   AR   Ar  218   6.008   2.566   4.422
    1   AR   Ar  219   6.082   1.766   3.644
    1   AR   Ar  220   5.268   2.634   3.310
    1   AR   Ar  221   5.430   2.104   5.344
    1   AR   Ar  222   4.428   2.514   6.048
    1   AR   Ar  223   6.321   2.118   6.411
    1   AR   Ar  224   6.367   2.844   5.341
    1   AR   Ar  225   5.657   3.823   0.013
    1   AR   Ar  226   5.332   4.145   1.550
    1   AR   Ar  227   6.320   3.941   0.857
    1   AR   Ar  228   5.943   4.889   0.147
    1   AR   Ar  229   5.431   3.277   1.017
    1   AR   Ar  230   4.973   4.057   2.815
    1   AR   Ar  231   6.557   3.341   3.298
    1   AR   Ar  232   6.097   3.623   1.886
    1   AR   Ar  233   5.551   3.574   3.525
    1   AR   Ar  234   5.996   4.335   3.863
    1   AR   Ar  235   6.633   3.509   4.519
    1   AR   Ar  236   6.965   4.257   3.698
    1   AR   Ar  237   4.963   3.205   5.271
    1   AR   Ar  238   5.129   4.472   5.774
    1   AR   Ar  239   6.156   4.163   6.438
    1   AR   Ar  240   6.086   4.159   5.199
    1   AR   Ar  241   5.083   5.932   0.638
    1   AR   Ar  242   5.315   6.089   1.743
    1   AR   Ar  243   6.214   4.636   1.697
    1   AR   Ar  244   5.944   6.593   0.841
    1   AR   Ar  245   5.272   5.125   2.281
    1   AR   Ar  246   5.427   6.310   2.830
    1   AR   Ar  247   6.294   4.359   2.615
    1   AR   Ar  248   6.347   6.371   1.906
    1   AR   Ar  249   6.058   5.391   3.417
    1   AR   Ar  250   4.728   6.247   4.827
    1   AR   Ar  251   6.499   5.205   4.344
    1   AR   Ar  252   6.019   6.295   3.913
    1   AR   Ar  253   5.510   5.098   4.782
    1   AR   Ar  254   5.347   6.060   6.172
    1   AR   Ar  255   6.099   4.996   5.732
    1   AR   Ar  256   5.771   6.422   4.870
    7.12000  7.12000 12.00000
Argon-slab step 275
  256
    1   AR   Ar    1   0.307   0.060  -0.410
    1   AR   Ar    2   7.086   0.593   0.733
    1   AR   Ar    3   0.429   6.723   0.973
    1   AR   Ar    4   1.039   0.904   0.203
    1   AR   Ar    5   7.094   0.037   1.814
    1   AR   Ar    6   0.064   0.518   2.837
    1   AR   Ar    7   1.103   6.887   2.694
    1   AR   Ar    8   0.927   0.549   1.871
    1   AR   Ar    9   0.312   0.038   3.984
    1   AR   Ar   10   6.955   1.113   4.049
    1   AR   Ar   11   1.220   0.281   4.298
    1   AR   Ar   12   0.936   0.780   3.344
    1   AR   Ar   13   7.069   0.310   5.365
    1   AR   Ar   14   0.554   1.461   5.842
    1   AR   Ar   15   1.605   7.083   7.271
    1   AR   Ar   16   1.214   0.733   5.257
    1   AR   Ar   17   0.450   1.777  -0.061
    1   AR   Ar   18   0.373   2.615   0.421
    1   AR   Ar   19   0.904   1.673   1.091
    1   AR   Ar   20   1.011   2.398  -0.801
    1   AR   Ar   21   6.962   1.213   2.050
    1   AR   Ar   22   6.901   2.698   2.453
    1   AR   Ar   23   0.562   1.918   2.516
    1   AR   Ar   24   0.783   2.717   1.999
    1   AR   Ar   25   0.592   1.813   3.806
    1   AR   Ar   26   6.956   2.502   4.340
    1   AR   Ar   27   0.670   1.988   4.847
    1   AR   Ar   28   1.541   2.389   4.081
    1   AR   Ar   29   6.768   1.712   5.276
    1   AR   Ar   30   0.459   2.592   6.205
    1   AR   Ar   31   0.978   1.531   6.677
    1   AR   Ar   32   1.070   2.763   5.354
    1   AR   Ar   33   0.340   3.677  -0.123
    1   AR   Ar   34   0.088   4.554   1.494
    1   AR   Ar   35   0.670   3.397   1.052
    1   AR   Ar   36   0.853   4.537  -0.018
    1   AR   Ar   37   0.055   3.595   1.924
    1   AR   Ar   38   0.536   4.639   2.795
    1   AR   Ar   39   0.698   3.442   2.785
    1   AR   Ar   40   1.054   4.149   2.064
    1   AR   Ar   41   0.456   2.954   3.668
    1   AR   Ar   42   0.108   4.305   4.809
    1   AR   Ar   43   0.583   3.257   4.638
    1   AR   Ar   44   0.891   3.962   3.960
    1   AR   Ar   45   7.065   3.723   5.827
    1   AR   Ar   46   0.153   5.203   6.311
    1   AR   Ar   47   0.986   3.617   6.020
    1   AR   Ar   48   0.821   4.543   5.805
    1   AR   Ar   49   7.021   4.551   0.344
    1   AR   Ar   50   6.791   5.405   0.905
    1   AR   Ar   51   1.131   4.577   1.171
    1   AR   Ar   52   0.931   5.495   0.432
    1   AR   Ar   53   6.779   5.400   2.209
    1   AR   Ar   54   7.085   6.424   2.832
    1   AR   Ar   55   0.680   5.821   2.793
    1   AR   Ar   56   0.521   5.449   1.578
    1   AR   Ar   57   0.384   5.005   4.038
    1   AR   Ar   58   7.110   6.094   4.382
    1   AR   Ar   59   0.950   5.345   5.132
    1   AR   Ar   60   1.074   6.357   4.188
    1   AR   Ar   61   6.914   5.874   5.405
    1   AR   Ar   62   0.405   6.288   6.292
    1   AR   Ar   63   1.788   5.341   5.782
    1   AR   Ar   64   0.820   6.719   5.332
    1   AR   Ar   65   1.229   6.686  -0.064
    1   AR   Ar   66   1.805   1.081   1.238
    1   AR   Ar   67   2.314   6.287   0.422
    1   AR   Ar   68   2.811   1.111   0.882
    1   AR   Ar   69   1.841   7.057   1.083
    1   AR   Ar   70   1.740   0.837   2.551
    1   AR   Ar   71   2.262   7.004   2.557
    1   AR   Ar   72   2.770   0.367   1.772
    1   AR   Ar   73   1.889   7.074   3.474
    1   AR   Ar   74   1.503   1.249   4.399
    1   AR   Ar   75   2.469   7.084   4.270
    1   AR   Ar   76   2.492   1.015   3.410
    1   AR   Ar   77   1.839   7.039   5.259
    1   AR   Ar   78   2.116   0.683   6.010
    1   AR   Ar   79   2.679   6.931   6.491
    1   AR   Ar   80   2.676   1.298   5.134
    1   AR   Ar   81   1.690   1.800   0.241
    1   AR   Ar   82   1.391   2.740   0.493
    1   AR   Ar   83   2.733   2.163   1.584
    1   AR   Ar   84   2.413   2.932  -0.219
    1   AR   Ar   85   1.643   2.009   1.853
    1   AR   Ar   86   1.690   2.904   2.632
    1   AR   Ar   87   2.561   1.254   2.413
    1   AR   Ar   88   2.606   3.043   1.965
    1   AR   Ar   89   1.710   1.747   3.055
    1   AR   Ar   90   2.091   3.163   4.563
    1   AR   Ar   91   2.431   1.854   4.190
    1   AR   Ar   92   2.479   2.443   3.283
    1   AR   Ar   93   1.634   1.888   5.260
    1   AR   Ar   94   2.188   3.016   6.106
    1   AR   Ar   95   2.719   1.801   6.083
    1   AR   Ar   96   2.672   2.548   5.224
    1   AR   Ar   97   1.399   3.764   0.385
    1   AR   Ar   98   2.022   4.214   1.487
    1   AR   Ar   99   2.643   3.404   0.998
    1   AR   Ar  100   2.711   4.508   0.377
    1   AR   Ar  101   1.626   3.158   1.604
    1   AR   Ar  102   1.565   4.691   2.809
    1   AR   Ar  103   2.245   3.848   2.410
    1   AR   Ar  104   3.149   4.365   1.432
    1   AR   Ar  105   1.844   3.391   3.591
    1   AR   Ar  106   1.831   4.320   3.919
    1   AR   Ar  107   2.722   4.093   4.534
    1   AR   Ar  108   2.573   4.452   3.177
    1   AR   Ar  109   1.299   3.924   5.132
    1   AR   Ar  110   2.037   4.187   5.803
    1   AR   Ar  111   3.216   4.388   6.481
    1   AR   Ar  112   2.765   4.936   5.702
    1   AR   Ar  113   2.036   5.286   0.567
    1   AR   Ar  114   1.588   6.040   1.410
    1   AR   Ar  115   2.924   5.498   1.012
    1   AR   Ar  116   3.046   0.007  -0.357
    1   AR   Ar  117   1.648   5.245   1.941
    1   AR   Ar  118   1.932   5.975   2.791
    1   AR   Ar  119   2.683   4.981   2.364
    1   AR   Ar  120   2.595   6.203   1.654
    1   AR   Ar  121   1.405   5.267   3.748
    1   AR   Ar  122   1.938   6.148   4.562
    1   AR   Ar  123   2.582   5.359   4.196
    1   AR   Ar  124   2.478   6.278   3.671
    1   AR   Ar  125   1.837   4.783   4.926
    1   AR   Ar  126   1.331   6.804   6.222
    1   AR   Ar  127   2.427   5.347   6.788
    1   AR   Ar  128   2.364   6.126   5.714
    1   AR   Ar  129   3.242   7.034   0.630
    1   AR   Ar  130   3.984   0.805   0.835
    1   AR   Ar  131   4.475   6.886   1.182
    1   AR   Ar  132   4.408   1.513  -0.608
    1   AR   Ar  133   3.421   7.084   2.405
    1   AR   Ar  134   3.530   1.001   2.696
    1   AR   Ar  135   4.409   0.320   2.870
    1   AR   Ar  136   4.131   0.566   1.923
    1   AR   Ar  137   3.020   0.006   3.309
    1   AR   Ar  138   3.352   0.615   4.534
    1   AR   Ar  139   4.303   7.047   4.482
    1   AR   Ar  140   3.912   1.053   3.703
    1   AR   Ar  141   2.933   6.993   5.398
    1   AR   Ar  142   3.266   0.895   5.997
    1   AR   Ar  143   3.905   0.264   6.654
    1   AR   Ar  144   4.208   1.046   5.385
    1   AR   Ar  145   3.581   1.625   0.053
    1   AR   Ar  146   3.548   2.514   0.933
    1   AR   Ar  147   4.358   1.874   0.985
    1   AR   Ar  148   5.256   2.578  -0.060
    1   AR   Ar  149   3.768   1.551   1.783
    1   AR   Ar  150   3.172   2.183   2.449
    1   AR   Ar  151   4.256   2.037   2.884
    1   AR   Ar  152   4.255   2.671   1.819
    1   AR   Ar  153   3.233   1.797   3.469
    1   AR   Ar  154   3.167   2.694   4.309
    1   AR   Ar  155   4.138   2.032   4.316
    1   AR   Ar  156   4.570   3.087   3.903
    1   AR   Ar  157   3.571   1.935   5.191
    1   AR   Ar  158   3.352   3.325   6.155
    1   AR   Ar  159   4.472   1.389   6.577
    1   AR   Ar  160   3.870   2.927   5.212
    1   AR   Ar  161   3.560   3.527   0.428
    1   AR   Ar  162   3.811   4.803   0.712
    1   AR   Ar  163   4.465   3.796   0.989
    1   AR   Ar  164   4.894   4.806   0.430
    1   AR   Ar  165   3.536   3.406   1.860
    1   AR   Ar  166   3.673   4.530   2.736
    1   AR   Ar  167   3.968   3.077   2.968
    1   AR   Ar  168   4.257   4.441   1.781
    1   AR   Ar  169   2.903   3.380   3.229
    1   AR   Ar  170   3.490   4.753   4.289
    1   AR   Ar  171   3.662   3.726   4.443
    1   AR   Ar  172   4.482   4.130   3.847
    1   AR   Ar  173   2.717   3.592   5.364
    1   AR   Ar  174   3.991   5.004   6.307
    1   AR   Ar  175   4.224   3.902   6.177
    1   AR   Ar  176   4.210   4.865   5.280
    1   AR   Ar  177   3.886   5.632   0.119
    1   AR   Ar  178   3.592   6.234   1.584
    1   AR   Ar  179   4.362   5.425   1.203
    1   AR   Ar  180   4.575   6.691   0.071
    1   AR   Ar  181   3.921   5.409   2.141
    1   AR   Ar  182   3.110   6.176   2.533
    1   AR   Ar  183   4.501   5.391   3.004
    1   AR   Ar  184   4.391   6.356   2.542
    1   AR   Ar  185   3.431   5.424   3.377
    1   AR   Ar  186   3.378   6.189   4.306
    1   AR   Ar  187   4.374   5.345   4.085
    1   AR   Ar  188   4.015   6.327   3.421
    1   AR   Ar  189   3.366   5.571   5.226
    1   AR   Ar  190   3.469   6.014   6.228
    1   AR   Ar  191   4.356   5.878   5.763
    1   AR   Ar  192   4.261   6.880   5.635
    1   AR   Ar  193   5.085   0.420   0.442
    1   AR   Ar  194   4.845   0.985   1.337
    1   AR   Ar  195   6.044   0.521   1.145
    1   AR   Ar  196   5.518   1.509   0.626
    1   AR   Ar  197   5.224   0.067   1.903
    1   AR   Ar  198   5.274   0.664   2.808
    1   AR   Ar  199   6.141   0.386   2.249
    1   AR   Ar  200   5.921   1.302   1.720
    1   AR   Ar  201   5.343   0.306   3.932
    1   AR   Ar  202   5.022   1.131   4.491
    1   AR   Ar  203   6.357   0.030   4.435
    1   AR   Ar  204   6.248   0.564   3.386
    1   AR   Ar  205   5.195   0.027   5.232
    1   AR   Ar  206   5.209   0.501   6.259
    1   AR   Ar  207   6.098   6.731   5.797
    1   AR   Ar  208   5.950   0.942   5.174
    1   AR   Ar  209   6.199   2.360  -1.019
    1   AR   Ar  210   5.503   2.331   1.296
    1   AR   Ar  211   6.389   1.944   0.432
    1   AR   Ar  212   6.578   3.179   0.224
    1   AR   Ar  213   5.350   1.981   2.392
    1   AR   Ar  214   5.155   3.023   2.200
    1   AR   Ar  215   6.257   1.426   2.700
    1   AR   Ar  216   6.541   2.825   1.354
    1   AR   Ar  217   5.020   1.566   3.555
    1   AR   Ar  218   5.979   2.557   4.415
    1   AR   Ar  219   6.077   1.752   3.628
    1   AR   Ar  220   5.258   2.646   3.307
    1   AR   Ar  221   5.427   2.101   5.309
    1   AR   Ar  222   4.394   2.504   6.053
    1   AR   Ar  223   6.316   2.104   6.400
    1   AR   Ar  224   6.375   2.855   5.320
    1   AR   Ar  225   5.662   3.829   0.030
    1   AR   Ar  226   5.315   4.131   1.546
    1   AR   Ar  227   6.309   3.927   0.898
    1   AR   Ar  228   5.934   4.908   0.132
    1   AR   Ar  229   5.440   3.292   1.028
    1   AR   Ar  230   4.949   4.034   2.825
    1   AR   Ar  231   6.581   3.314   3.310
    1   AR   Ar  232   6.101   3.608   1.882
    1   AR   Ar  233   5.549   3.574   3.515
    1   AR   Ar  234   6.011   4.339   3.859
    1   AR   Ar  235   6.641   3.474   4.515
    1   AR   Ar  236   6.968   4.263   3.707
    1   AR   Ar  237   4.952   3.200   5.268
    1   AR   Ar  238   5.117   4.477   5.796
    1   AR   Ar  239   6.162   4.168   6.448
    1   AR   Ar  240   6.101   4.141   5.198
    1   AR   Ar  241   5.064   5.940   0.666
    1   AR   Ar  242   5.321   6.121   1.729
    1   AR   Ar  243   6.231   4.620   1.683
    1   AR   Ar  244   5.947   6.578   0.856
    1   AR   Ar  245   5.248   5.145   2.300
    1   AR   Ar  246   5.410   6.320   2.800
    1   AR   Ar  247   6.288   4.353   2.645
    1   AR   Ar  248   6.337   6.373   1.913
    1   AR   Ar  249   6.070   5.386   3.426
    1   AR   Ar  250   4.736   6.221   4.798
    1   AR   Ar  251   6.511   5.210   4.345
    1   AR   Ar  252   6.034   6.291   3.874
    1   AR   Ar  253   5.539   5.092   4.801
    1   AR   Ar  254   5.317   6.044   6.182
    1   AR   Ar  255   6.109   5.027   5.728
    1   AR   Ar  256   5.750   6.404   4.890
    7.12000  7.12000 12.00000
Argon-slab step 280
  256
    1   AR   Ar    1   0.309   0.079  -0.417
    1   AR   Ar    2   7.096   0.581   0.729
    1   AR   Ar    3   0.418   6.728   0.946
    1   AR   Ar    4   1.035   0.891   0.240
    1   AR   Ar    5   7.092   0.025   1.817
    1   AR   Ar    6   0.031   0.499   2.837
    1   AR   Ar    7   1.074   6.876   2.680
    1   AR   Ar    8   0.919   0.505   1.872
    1   AR   Ar    9   0.299   0.098   3.979
    1   AR   Ar   10   6.969   1.106   4.047
    1   AR   Ar   11   1.217   0.298   4.296
    1   AR   Ar   12   0.930   0.757   3.354
    1   AR   Ar   13   7.087   0.318   5.348
    1   AR   Ar   14   0.508   1.468   5.857
    1   AR   Ar   15   1.661   7.083   7.273
    1   AR   Ar   16   1.182   0.720   5.294
    1   AR   Ar   17   0.477   1.754  -0.071
    1   AR   Ar   18   0.359   2.641   0.402
    1   AR   Ar   19   0.920   1.690   1.111
    1   AR   Ar   20   0.986   2.398  -0.823
    1   AR   Ar   21   6.987   1.185   2.050
    1   AR   Ar   22   6.866   2.679   2.476
    1   AR   Ar   23   0.559   1.934   2.530
    1   AR   Ar   24   0.749   2.717   2.004
    1   AR   Ar   25   0.588   1.801   3.808
    1   AR   Ar   26   6.908   2.481   4.349
    1   AR   Ar   27   0.646   1.984   4.826
    1   AR   Ar   28   1.528   2.408   4.059
    1   AR   Ar   29   6.775   1.716   5.281
    1   AR   Ar   30   0.439   2.591   6.233
    1   AR   Ar   31   0.972   1.507   6.706
    1   AR   Ar   32   1.126   2.778   5.351
    1   AR   Ar   33   0.343   3.652  -0.106
    1   AR   Ar   34   0.069   4.560   1.524
    1   AR   Ar   35   0.650   3.400   1.081
    1   AR   Ar   36   0.865   4.507  -0.017
    1   AR   Ar   37   0.076   3.598   1.939
    1   AR   Ar   38   0.542   4.653   2.807
    1   AR   Ar   39   0.701   3.438   2.784
    1   AR   Ar   40   1.079   4.167   2.050
    1   AR   Ar   41   0.470   2.934   3.687
    1   AR   Ar   42   0.128   4.301   4.814
    1   AR   Ar   43   0.593   3.248   4.649
    1   AR   Ar   44   0.921   3.968   3.968
    1   AR   Ar   45   7.058   3.722   5.837
    1   AR   Ar   46   0.126   5.236   6.310
    1   AR   Ar   47   0.979   3.643   6.029
    1   AR   Ar   48   0.843   4.548   5.846
    1   AR   Ar   49   7.044   4.534   0.373
    1   AR   Ar   50   6.824   5.404   0.888
    1   AR   Ar   51   1.139   4.586   1.173
    1   AR   Ar   52   0.946   5.490   0.417
    1   AR   Ar   53   6.771   5.384   2.196
    1   AR   Ar   54   7.064   6.397   2.813
    1   AR   Ar   55   0.692   5.793   2.825
    1   AR   Ar   56   0.523   5.443   1.621
    1   AR   Ar   57   0.406   4.983   4.068
    1   AR   Ar   58   7.085   6.075   4.412
    1   AR   Ar   59   0.951   5.346   5.137
    1   AR   Ar   60   1.102   6.351   4.179
    1   AR   Ar   61   6.899   5.898   5.399
    1   AR   Ar   62   0.383   6.291   6.294
    1   AR   Ar   63   1.821   5.313   5.790
    1   AR   Ar   64   0.834   6.722   5.332
    1   AR   Ar   65   1.209   6.692  -0.045
    1   AR   Ar   66   1.781   1.077   1.239
    1   AR   Ar   67   2.322   6.273   0.439
    1   AR   Ar   68   2.806   1.076   0.872
    1   AR   Ar   69   1.867   7.047   1.052
    1   AR   Ar   70   1.716   0.844   2.547
    1   AR   Ar   71   2.269   6.999   2.563
    1   AR   Ar   72   2.763   0.341   1.787
    1   AR   Ar   73   1.908   7.052   3.468
    1   AR   Ar   74   1.555   1.273   4.384
    1   AR   Ar   75   2.458   7.113   4.244
    1   AR   Ar   76   2.470   1.013   3.401
    1   AR   Ar   77   1.836   7.019   5.246
    1   AR   Ar   78   2.132   0.719   6.016
    1   AR   Ar   79   2.667   6.924   6.493
    1   AR   Ar   80   2.644   1.279   5.120
    1   AR   Ar   81   1.694   1.807   0.224
    1   AR   Ar   82   1.417   2.741   0.469
    1   AR   Ar   83   2.756   2.172   1.588
    1   AR   Ar   84   2.383   2.910  -0.232
    1   AR   Ar   85   1.627   2.027   1.844
    1   AR   Ar   86   1.695   2.900   2.593
    1   AR   Ar   87   2.571   1.260   2.408
    1   AR   Ar   88   2.604   3.057   1.973
    1   AR   Ar   89   1.699   1.754   3.065
    1   AR   Ar   90   2.098   3.165   4.570
    1   AR   Ar   91   2.421   1.843   4.190
    1   AR   Ar   92   2.479   2.463   3.240
    1   AR   Ar   93   1.618   1.894   5.288
    1   AR   Ar   94   2.141   3.011   6.091
    1   AR   Ar   95   2.717   1.801   6.096
    1   AR   Ar   96   2.660   2.548   5.232
    1   AR   Ar   97   1.425   3.739   0.386
    1   AR   Ar   98   2.068   4.232   1.451
    1   AR   Ar   99   2.591   3.417   1.003
    1   AR   Ar  100   2.702   4.502   0.371
    1   AR   Ar  101   1.645   3.171   1.586
    1   AR   Ar  102   1.556   4.676   2.840
    1   AR   Ar  103   2.231   3.873   2.402
    1   AR   Ar  104   3.144   4.350   1.400
    1   AR   Ar  105   1.844   3.394   3.586
    1   AR   Ar  106   1.859   4.341   3.928
    1   AR   Ar  107   2.697   4.111   4.511
    1   AR   Ar  108   2.560   4.433   3.180
    1   AR   Ar  109   1.293   3.945   5.128
    1   AR   Ar  110   2.023   4.196   5.825
    1   AR   Ar  111   3.232   4.406   6.485
    1   AR   Ar  112   2.788   4.937   5.710
    1   AR   Ar  113   2.062   5.291   0.583
    1   AR   Ar  114   1.584   6.050   1.412
    1   AR   Ar  115   2.953   5.523   1.007
    1   AR   Ar  116   3.054   0.034  -0.345
    1   AR   Ar  117   1.644   5.253   1.955
    1   AR   Ar  118   1.917   5.951   2.788
    1   AR   Ar  119   2.677   4.957   2.387
    1   AR   Ar  120   2.562   6.176   1.631
    1   AR   Ar  121   1.433   5.261   3.739
    1   AR   Ar  122   1.966   6.163   4.596
    1   AR   Ar  123   2.587   5.321   4.206
    1   AR   Ar  124   2.485   6.257   3.681
    1   AR   Ar  125   1.832   4.775   4.926
    1   AR   Ar  126   1.335   6.815   6.242
    1   AR   Ar  127   2.421   5.322   6.769
    1   AR   Ar  128   2.369   6.076   5.717
    1   AR   Ar  129   3.232   7.037   0.617
    1   AR   Ar  130   3.994   0.782   0.828
    1   AR   Ar  131   4.481   6.871   1.174
    1   AR   Ar  132   4.421   1.523  -0.607
    1   AR   Ar  133   3.461   7.056   2.403
    1   AR   Ar  134   3.534   0.994   2.683
    1   AR   Ar  135   4.396   0.325   2.868
    1   AR   Ar  136   4.115   0.553   1.933
    1   AR   Ar  137   3.011   0.011   3.305
    1   AR   Ar  138   3.365   0.597   4.558
    1   AR   Ar  139   4.293   7.040   4.474
    1   AR   Ar  140   3.938   1.051   3.738
    1   AR   Ar  141   2.914   6.999   5.419
    1   AR   Ar  142   3.260   0.888   5.970
    1   AR   Ar  143   3.929   0.234   6.627
    1   AR   Ar  144   4.237   1.045   5.396
    1   AR   Ar  145   3.563   1.655   0.054
    1   AR   Ar  146   3.557   2.490   0.943
    1   AR   Ar  147   4.389   1.901   0.990
    1   AR   Ar  148   5.258   2.544  -0.107
    1   AR   Ar  149   3.753   1.576   1.805
    1   AR   Ar  150   3.177   2.168   2.472
    1   AR   Ar  151   4.237   2.035   2.885
    1   AR   Ar  152   4.280   2.622   1.834
    1   AR   Ar  153   3.232   1.798   3.519
    1   AR   Ar  154   3.179   2.678   4.305
    1   AR   Ar  155   4.127   2.031   4.296
    1   AR   Ar  156   4.583   3.103   3.934
    1   AR   Ar  157   3.560   1.970   5.209
    1   AR   Ar  158   3.362   3.307   6.154
    1   AR   Ar  159   4.460   1.379   6.600
    1   AR   Ar  160   3.847   2.900   5.199
    1   AR   Ar  161   3.599   3.540   0.422
    1   AR   Ar  162   3.804   4.783   0.716
    1   AR   Ar  163   4.481   3.834   1.001
    1   AR   Ar  164   4.914   4.803   0.402
    1   AR   Ar  165   3.513   3.403   1.878
    1   AR   Ar  166   3.677   4.521   2.756
    1   AR   Ar  167   3.983   3.094   2.968
    1   AR   Ar  168   4.306   4.426   1.790
    1   AR   Ar  169   2.889   3.407   3.224
    1   AR   Ar  170   3.493   4.739   4.280
    1   AR   Ar  171   3.653   3.739   4.446
    1   AR   Ar  172   4.471   4.140   3.860
    1   AR   Ar  173   2.723   3.556   5.348
    1   AR   Ar  174   4.021   4.992   6.283
    1   AR   Ar  175   4.188   3.886   6.168
    1   AR   Ar  176   4.212   4.850   5.303
    1   AR   Ar  177   3.914   5.651   0.115
    1   AR   Ar  178   3.574   6.238   1.589
    1   AR   Ar  179   4.321   5.428   1.227
    1   AR   Ar  180   4.541   6.697   0.059
    1   AR   Ar  181   3.913   5.410   2.119
    1   AR   Ar  182   3.107   6.144   2.535
    1   AR   Ar  183   4.492   5.367   3.017
    1   AR   Ar  184   4.361   6.355   2.551
    1   AR   Ar  185   3.416   5.408   3.386
    1   AR   Ar  186   3.397   6.179   4.273
    1   AR   Ar  187   4.375   5.348   4.108
    1   AR   Ar  188   4.013   6.325   3.421
    1   AR   Ar  189   3.372   5.580   5.200
    1   AR   Ar  190   3.475   6.000   6.273
    1   AR   Ar  191   4.362   5.894   5.765
    1   AR   Ar  192   4.230   6.893   5.664
    1   AR   Ar  193   5.114   0.418   0.432
    1   AR   Ar  194   4.860   0.984   1.364
    1   AR   Ar  195   6.035   0.535   1.127
    1   AR   Ar  196   5.475   1.500   0.632
    1   AR   Ar  197   5.262   0.086   1.889
    1   AR   Ar  198   5.294   0.678   2.790
    1   AR   Ar  199   6.179   0.409   2.259
    1   AR   Ar  200   5.894   1.320   1.700
    1   AR   Ar  201   5.312   0.296   3.948
    1   AR   Ar  202   4.989   1.149   4.511
    1   AR   Ar  203   6.396   0.021   4.479
    1   AR   Ar  204   6.207   0.555   3.397
    1   AR   Ar  205   5.197   0.022   5.261
    1   AR   Ar  206   5.221   0.501   6.266
    1   AR   Ar  207   6.096   6.765   5.780
    1   AR   Ar  208   5.942   0.913   5.162
    1   AR   Ar  209   6.222   2.381  -1.041
    1   AR   Ar  210   5.505   2.340   1.288
    1   AR   Ar  211   6.376   1.961   0.433
    1   AR   Ar  212   6.562   3.191   0.236
    1   AR   Ar  213   5.325   2.017   2.370
    1   AR   Ar  214   5.130   3.053   2.173
    1   AR   Ar  215   6.233   1.439   2.687
    1   AR   Ar  216   6.550   2.823   1.380
    1   AR   Ar  217   5.024   1.530   3.552
    1   AR   Ar  218   5.935   2.548   4.404
    1   AR   Ar  219   6.071   1.741   3.621
    1   AR   Ar  220   5.251   2.644   3.297
    1   AR   Ar  221   5.425   2.097   5.274
    1   AR   Ar  222   4.360   2.494   6.057
    1   AR   Ar  223   6.312   2.090   6.386
    1   AR   Ar  224   6.387   2.863   5.308
    1   AR   Ar  225   5.666   3.835   0.048
    1   AR   Ar  226   5.288   4.130   1.546
    1   AR   Ar  227   6.300   3.915   0.939
    1   AR   Ar  228   5.928   4.928   0.118
    1   AR   Ar  229   5.449   3.306   1.030
    1   AR   Ar  230   4.921   4.014   2.830
    1   AR   Ar  231   6.587   3.302   3.311
    1   AR   Ar  232   6.081   3.594   1.886
    1   AR   Ar  233   5.542   3.566   3.505
    1   AR   Ar  234   6.020   4.361   3.865
    1   AR   Ar  235   6.647   3.443   4.506
    1   AR   Ar  236   6.978   4.257   3.709
    1   AR   Ar  237   4.941   3.195   5.264
    1   AR   Ar  238   5.105   4.483   5.818
    1   AR   Ar  239   6.168   4.173   6.455
    1   AR   Ar  240   6.117   4.120   5.195
    1   AR   Ar  241   5.048   5.949   0.692
    1   AR   Ar  242   5.323   6.151   1.714
    1   AR   Ar  243   6.240   4.614   1.662
    1   AR   Ar  244   5.950   6.564   0.872
    1   AR   Ar  245   5.227   5.163   2.317
    1   AR   Ar  246   5.396   6.330   2.771
    1   AR   Ar  247   6.283   4.346   2.687
    1   AR   Ar  248   6.329   6.376   1.921
    1   AR   Ar  249   6.080   5.374   3.426
    1   AR   Ar  250   4.744   6.182   4.771
    1   AR   Ar  251   6.523   5.213   4.352
    1   AR   Ar  252   6.051   6.293   3.835
    1   AR   Ar  253   5.565   5.085   4.821
    1   AR   Ar  254   5.289   6.029   6.192
    1   AR   Ar  255   6.120   5.063   5.727
    1   AR   Ar  256   5.736   6.373   4.906
    7.12000  7.12000 12.00000
Argon-slab step 285
  256
    1   AR   Ar    1   0.312   0.098  -0.423
    1   AR   Ar    2   7.106   0.571   0.726
    1   AR   Ar    3   0.409   6.729   0.917
    1   AR   Ar    4   1.032   0.876   0.279
    1   AR   Ar    5   7.088   0.014   1.822
    1   AR   Ar    6   7.119   0.478   2.839
    1   AR   Ar    7   1.046   6.865   2.668
    1   AR   Ar    8   0.913   0.463   1.872
    1   AR   Ar    9   0.275   0.153   3.971
    1   AR   Ar   10   6.980   1.098   4.047
    1   AR   Ar   11   1.225   0.312   4.298
    1   AR   Ar   12   0.928   0.754   3.358
    1   AR   Ar   13   7.077   0.330   5.357
    1   AR   Ar   14   0.457   1.475   5.857
    1   AR   Ar   15   1.708   7.086   7.277
    1   AR   Ar   16   1.147   0.710   5.334
    1   AR   Ar   17   0.504   1.725  -0.084
    1   AR   Ar   18   0.342   2.671   0.385
    1   AR   Ar   19   0.932   1.708   1.128
    1   AR   Ar   20   0.960   2.398  -0.843
    1   AR   Ar   21   7.017   1.156   2.043
    1   AR   Ar   22   6.831   2.660   2.498
    1   AR   Ar   23   0.554   1.934   2.555
    1   AR   Ar   24   0.718   2.730   1.997
    1   AR   Ar   25   0.608   1.803   3.826
    1   AR   Ar   26   6.874   2.449   4.358
    1   AR   Ar   27   0.621   1.979   4.808
    1   AR   Ar   28   1.512   2.427   4.037
    1   AR   Ar   29   6.779   1.722   5.282
    1   AR   Ar   30   0.419   2.589   6.260
    1   AR   Ar   31   0.974   1.486   6.748
    1   AR   Ar   32   1.185   2.797   5.355
    1   AR   Ar   33   0.344   3.619  -0.090
    1   AR   Ar   34   0.065   4.557   1.548
    1   AR   Ar   35   0.633   3.405   1.111
    1   AR   Ar   36   0.885   4.486  -0.019
    1   AR   Ar   37   0.092   3.601   1.956
    1   AR   Ar   38   0.539   4.669   2.821
    1   AR   Ar   39   0.703   3.441   2.765
    1   AR   Ar   40   1.105   4.174   2.043
    1   AR   Ar   41   0.486   2.912   3.700
    1   AR   Ar   42   0.149   4.296   4.822
    1   AR   Ar   43   0.598   3.242   4.662
    1   AR   Ar   44   0.945   3.973   3.974
    1   AR   Ar   45   7.048   3.722   5.844
    1   AR   Ar   46   0.132   5.239   6.356
    1   AR   Ar   47   0.977   3.638   6.050
    1   AR   Ar   48   0.859   4.566   5.848
    1   AR   Ar   49   7.062   4.514   0.405
    1   AR   Ar   50   6.855   5.406   0.874
    1   AR   Ar   51   1.143   4.603   1.159
    1   AR   Ar   52   0.937   5.483   0.404
    1   AR   Ar   53   6.761   5.368   2.188
    1   AR   Ar   54   7.027   6.384   2.794
    1   AR   Ar   55   0.693   5.762   2.799
    1   AR   Ar   56   0.535   5.447   1.665
    1   AR   Ar   57   0.439   4.975   4.099
    1   AR   Ar   58   7.064   6.063   4.435
    1   AR   Ar   59   0.948   5.350   5.139
    1   AR   Ar   60   1.117   6.346   4.163
    1   AR   Ar   61   6.882   5.920   5.398
    1   AR   Ar   62   0.364   6.288   6.293
    1   AR   Ar   63   1.837   5.268   5.807
    1   AR   Ar   64   0.843   6.723   5.326
    1   AR   Ar   65   1.190   6.697  -0.022
    1   AR   Ar   66   1.757   1.061   1.245
    1   AR   Ar   67   2.332   6.264   0.455
    1   AR   Ar   68   2.804   1.041   0.863
    1   AR   Ar   69   1.892   7.039   1.022
    1   AR   Ar   70   1.675   0.839   2.544
    1   AR   Ar   71   2.278   6.989   2.559
    1   AR   Ar   72   2.753   0.321   1.793
    1   AR   Ar   73   1.903   7.037   3.456
    1   AR   Ar   74   1.605   1.299   4.368
    1   AR   Ar   75   2.458   0.030   4.241
    1   AR   Ar   76   2.447   1.007   3.397
    1   AR   Ar   77   1.838   6.998   5.232
    1   AR   Ar   78   2.147   0.755   6.020
    1   AR   Ar   79   2.656   6.917   6.494
    1   AR   Ar   80   2.612   1.259   5.106
    1   AR   Ar   81   1.700   1.805   0.206
    1   AR   Ar   82   1.443   2.742   0.450
    1   AR   Ar   83   2.773   2.166   1.576
    1   AR   Ar   84   2.351   2.887  -0.243
    1   AR   Ar   85   1.613   2.046   1.837
    1   AR   Ar   86   1.699   2.895   2.557
    1   AR   Ar   87   2.593   1.277   2.394
    1   AR   Ar   88   2.599   3.055   2.001
    1   AR   Ar   89   1.686   1.764   3.077
    1   AR   Ar   90   2.105   3.167   4.579
    1   AR   Ar   91   2.413   1.833   4.191
    1   AR   Ar   92   2.475   2.481   3.198
    1   AR   Ar   93   1.608   1.892   5.317
    1   AR   Ar   94   2.093   3.007   6.076
    1   AR   Ar   95   2.713   1.803   6.107
    1   AR   Ar   96   2.647   2.539   5.243
    1   AR   Ar   97   1.454   3.720   0.389
    1   AR   Ar   98   2.115   4.254   1.413
    1   AR   Ar   99   2.540   3.429   1.003
    1   AR   Ar  100   2.722   4.506   0.374
    1   AR   Ar  101   1.661   3.187   1.562
    1   AR   Ar  102   1.555   4.660   2.875
    1   AR   Ar  103   2.211   3.901   2.397
    1   AR   Ar  104   3.137   4.334   1.371
    1   AR   Ar  105   1.842   3.390   3.573
    1   AR   Ar  106   1.882   4.361   3.937
    1   AR   Ar  107   2.666   4.133   4.483
    1   AR   Ar  108   2.552   4.409   3.203
    1   AR   Ar  109   1.286   3.960   5.109
    1   AR   Ar  110   2.009   4.205   5.852
    1   AR   Ar  111   3.242   4.416   6.493
    1   AR   Ar  112   2.810   4.936   5.718
    1   AR   Ar  113   2.076   5.293   0.601
    1   AR   Ar  114   1.570   6.071   1.401
    1   AR   Ar  115   2.994   5.540   0.997
    1   AR   Ar  116   3.059   0.062  -0.344
    1   AR   Ar  117   1.642   5.248   1.976
    1   AR   Ar  118   1.901   5.927   2.785
    1   AR   Ar  119   2.673   4.945   2.392
    1   AR   Ar  120   2.523   6.158   1.615
    1   AR   Ar  121   1.461   5.262   3.731
    1   AR   Ar  122   1.972   6.176   4.590
    1   AR   Ar  123   2.590   5.281   4.217
    1   AR   Ar  124   2.499   6.226   3.685
    1   AR   Ar  125   1.834   4.770   4.919
    1   AR   Ar  126   1.343   6.827   6.263
    1   AR   Ar  127   2.416   5.297   6.748
    1   AR   Ar  128   2.390   6.046   5.718
    1   AR   Ar  129   3.224   7.038   0.618
    1   AR   Ar  130   4.000   0.758   0.819
    1   AR   Ar  131   4.487   6.855   1.166
    1   AR   Ar  132   4.436   1.532  -0.604
    1   AR   Ar  133   3.508   7.029   2.400
    1   AR   Ar  134   3.539   0.989   2.676
    1   AR   Ar  135   4.370   0.321   2.876
    1   AR   Ar  136   4.092   0.550   1.932
    1   AR   Ar  137   3.013   0.019   3.303
    1   AR   Ar  138   3.377   0.578   4.584
    1   AR   Ar  139   4.276   7.032   4.459
    1   AR   Ar  140   3.945   1.046   3.767
    1   AR   Ar  141   2.897   7.006   5.439
    1   AR   Ar  142   3.256   0.879   5.942
    1   AR   Ar  143   3.953   0.205   6.599
    1   AR   Ar  144   4.266   1.043   5.407
    1   AR   Ar  145   3.545   1.684   0.059
    1   AR   Ar  146   3.561   2.471   0.953
    1   AR   Ar  147   4.427   1.924   0.994
    1   AR   Ar  148   5.262   2.509  -0.152
    1   AR   Ar  149   3.737   1.602   1.825
    1   AR   Ar  150   3.190   2.155   2.507
    1   AR   Ar  151   4.218   2.032   2.885
    1   AR   Ar  152   4.300   2.568   1.848
    1   AR   Ar  153   3.235   1.799   3.567
    1   AR   Ar  154   3.170   2.692   4.303
    1   AR   Ar  155   4.121   2.009   4.288
    1   AR   Ar  156   4.592   3.117   3.969
    1   AR   Ar  157   3.544   1.989   5.229
    1   AR   Ar  158   3.367   3.283   6.152
    1   AR   Ar  159   4.447   1.367   6.620
    1   AR   Ar  160   3.827   2.889   5.185
    1   AR   Ar  161   3.636   3.555   0.419
    1   AR   Ar  162   3.790   4.751   0.711
    1   AR   Ar  163   4.493   3.866   1.003
    1   AR   Ar  164   4.930   4.799   0.377
    1   AR   Ar  165   3.502   3.407   1.893
    1   AR   Ar  166   3.655   4.529   2.764
    1   AR   Ar  167   3.985   3.080   2.988
    1   AR   Ar  168   4.350   4.417   1.807
    1   AR   Ar  169   2.900   3.393   3.229
    1   AR   Ar  170   3.499   4.732   4.271
    1   AR   Ar  171   3.648   3.743   4.451
    1   AR   Ar  172   4.459   4.154   3.872
    1   AR   Ar  173   2.731   3.523   5.337
    1   AR   Ar  174   4.055   4.986   6.264
    1   AR   Ar  175   4.158   3.875   6.157
    1   AR   Ar  176   4.230   4.835   5.301
    1   AR   Ar  177   3.943   5.673   0.112
    1   AR   Ar  178   3.565   6.247   1.590
    1   AR   Ar  179   4.292   5.440   1.249
    1   AR   Ar  180   4.505   6.703   0.047
    1   AR   Ar  181   3.899   5.409   2.110
    1   AR   Ar  182   3.099   6.100   2.546
    1   AR   Ar  183   4.481   5.344   3.034
    1   AR   Ar  184   4.338   6.356   2.532
    1   AR   Ar  185   3.401   5.393   3.396
    1   AR   Ar  186   3.415   6.169   4.242
    1   AR   Ar  187   4.375   5.352   4.131
    1   AR   Ar  188   4.002   6.324   3.444
    1   AR   Ar  189   3.382   5.595   5.170
    1   AR   Ar  190   3.475   5.987   6.319
    1   AR   Ar  191   4.369   5.903   5.761
    1   AR   Ar  192   4.196   6.913   5.690
    1   AR   Ar  193   5.143   0.416   0.424
    1   AR   Ar  194   4.883   0.985   1.392
    1   AR   Ar  195   6.027   0.540   1.103
    1   AR   Ar  196   5.428   1.487   0.637
    1   AR   Ar  197   5.296   0.105   1.873
    1   AR   Ar  198   5.328   0.702   2.773
    1   AR   Ar  199   6.221   0.432   2.270
    1   AR   Ar  200   5.864   1.347   1.685
    1   AR   Ar  201   5.280   0.284   3.963
    1   AR   Ar  202   4.954   1.167   4.537
    1   AR   Ar  203   6.436   0.014   4.523
    1   AR   Ar  204   6.168   0.547   3.409
    1   AR   Ar  205   5.195   0.024   5.290
    1   AR   Ar  206   5.252   0.501   6.274
    1   AR   Ar  207   6.097   6.802   5.766
    1   AR   Ar  208   5.933   0.884   5.150
    1   AR   Ar  209   6.245   2.403  -1.061
    1   AR   Ar  210   5.508   2.341   1.284
    1   AR   Ar  211   6.368   1.982   0.433
    1   AR   Ar  212   6.544   3.198   0.247
    1   AR   Ar  213   5.311   2.030   2.345
    1   AR   Ar  214   5.111   3.090   2.148
    1   AR   Ar  215   6.207   1.451   2.673
    1   AR   Ar  216   6.561   2.818   1.402
    1   AR   Ar  217   5.026   1.494   3.543
    1   AR   Ar  218   5.875   2.540   4.390
    1   AR   Ar  219   6.066   1.733   3.624
    1   AR   Ar  220   5.243   2.629   3.281
    1   AR   Ar  221   5.423   2.093   5.239
    1   AR   Ar  222   4.326   2.483   6.061
    1   AR   Ar  223   6.309   2.077   6.369
    1   AR   Ar  224   6.404   2.857   5.310
    1   AR   Ar  225   5.668   3.841   0.067
    1   AR   Ar  226   5.261   4.144   1.554
    1   AR   Ar  227   6.296   3.904   0.974
    1   AR   Ar  228   5.926   4.947   0.106
    1   AR   Ar  229   5.459   3.315   1.025
    1   AR   Ar  230   4.889   3.997   2.829
    1   AR   Ar  231   6.607   3.278   3.293
    1   AR   Ar  232   6.057   3.577   1.903
    1   AR   Ar  233   5.536   3.557   3.497
    1   AR   Ar  234   6.021   4.390   3.878
    1   AR   Ar  235   6.651   3.423   4.491
    1   AR   Ar  236   6.994   4.239   3.703
    1   AR   Ar  237   4.930   3.189   5.261
    1   AR   Ar  238   5.096   4.489   5.839
    1   AR   Ar  239   6.175   4.178   6.460
    1   AR   Ar  240   6.133   4.098   5.191
    1   AR   Ar  241   5.058   5.937   0.705
    1   AR   Ar  242   5.320   6.178   1.698
    1   AR   Ar  243   6.265   4.603   1.684
    1   AR   Ar  244   5.952   6.550   0.890
    1   AR   Ar  245   5.241   5.166   2.332
    1   AR   Ar  246   5.400   6.346   2.780
    1   AR   Ar  247   6.279   4.338   2.733
    1   AR   Ar  248   6.322   6.381   1.930
    1   AR   Ar  249   6.088   5.355   3.417
    1   AR   Ar  250   4.750   6.137   4.747
    1   AR   Ar  251   6.535   5.212   4.363
    1   AR   Ar  252   6.067   6.302   3.799
    1   AR   Ar  253   5.588   5.079   4.838
    1   AR   Ar  254   5.266   6.015   6.201
    1   AR   Ar  255   6.133   5.102   5.729
    1   AR   Ar  256   5.732   6.334   4.915
    7.12000  7.12000 12.00000
Argon-slab step 290
  256
    1   AR   Ar    1   0.314   0.119  -0.426
    1   AR   Ar    2   7.117   0.562   0.724
    1   AR   Ar    3   0.403   6.728   0.888
    1   AR   Ar    4   1.030   0.858   0.321
    1   AR   Ar    5   7.083   0.002   1.825
    1   AR   Ar    6   7.089   0.454   2.845
    1   AR   Ar    7   1.019   6.854   2.658
    1   AR   Ar    8   0.908   0.425   1.869
    1   AR   Ar    9   0.246   0.200   3.960
    1   AR   Ar   10   6.987   1.092   4.048
    1   AR   Ar   11   1.240   0.324   4.304
    1   AR   Ar   12   0.929   0.766   3.358
    1   AR   Ar   13   7.067   0.343   5.365
    1   AR   Ar   14   0.409   1.480   5.854
    1   AR   Ar   15   1.693   7.081   7.279
    1   AR   Ar   16   1.112   0.702   5.375
    1   AR   Ar   17   0.531   1.696  -0.097
    1   AR   Ar   18   0.326   2.697   0.371
    1   AR   Ar   19   0.943   1.715   1.158
    1   AR   Ar   20   0.935   2.399  -0.861
    1   AR   Ar   21   7.048   1.129   2.031
    1   AR   Ar   22   6.796   2.639   2.517
    1   AR   Ar   23   0.549   1.923   2.587
    1   AR   Ar   24   0.691   2.749   1.979
    1   AR   Ar   25   0.636   1.808   3.839
    1   AR   Ar   26   6.859   2.430   4.354
    1   AR   Ar   27   0.614   1.960   4.803
    1   AR   Ar   28   1.493   2.446   4.015
    1   AR   Ar   29   6.776   1.730   5.279
    1   AR   Ar   30   0.398   2.587   6.284
    1   AR   Ar   31   0.980   1.464   6.794
    1   AR   Ar   32   1.247   2.823   5.363
    1   AR   Ar   33   0.346   3.584  -0.075
    1   AR   Ar   34   0.088   4.549   1.566
    1   AR   Ar   35   0.619   3.412   1.136
    1   AR   Ar   36   0.910   4.472  -0.022
    1   AR   Ar   37   0.100   3.604   1.975
    1   AR   Ar   38   0.545   4.682   2.803
    1   AR   Ar   39   0.710   3.448   2.751
    1   AR   Ar   40   1.131   4.174   2.042
    1   AR   Ar   41   0.502   2.889   3.709
    1   AR   Ar   42   0.170   4.287   4.835
    1   AR   Ar   43   0.598   3.238   4.677
    1   AR   Ar   44   0.963   3.978   3.978
    1   AR   Ar   45   7.036   3.722   5.848
    1   AR   Ar   46   0.136   5.241   6.399
    1   AR   Ar   47   0.979   3.610   6.080
    1   AR   Ar   48   0.870   4.593   5.825
    1   AR   Ar   49   7.065   4.489   0.418
    1   AR   Ar   50   6.885   5.413   0.864
    1   AR   Ar   51   1.145   4.627   1.132
    1   AR   Ar   52   0.913   5.475   0.393
    1   AR   Ar   53   6.764   5.344   2.209
    1   AR   Ar   54   6.984   6.378   2.774
    1   AR   Ar   55   0.687   5.734   2.733
    1   AR   Ar   56   0.557   5.457   1.707
    1   AR   Ar   57   0.480   4.976   4.130
    1   AR   Ar   58   7.051   6.060   4.448
    1   AR   Ar   59   0.943   5.358   5.138
    1   AR   Ar   60   1.117   6.344   4.140
    1   AR   Ar   61   6.863   5.940   5.408
    1   AR   Ar   62   0.376   6.266   6.279
    1   AR   Ar   63   1.836   5.214   5.831
    1   AR   Ar   64   0.846   6.721   5.317
    1   AR   Ar   65   1.154   6.700  -0.004
    1   AR   Ar   66   1.735   1.042   1.251
    1   AR   Ar   67   2.344   6.261   0.471
    1   AR   Ar   68   2.803   1.007   0.855
    1   AR   Ar   69   1.918   7.034   0.995
    1   AR   Ar   70   1.631   0.829   2.542
    1   AR   Ar   71   2.285   6.987   2.549
    1   AR   Ar   72   2.771   0.315   1.784
    1   AR   Ar   73   1.878   7.025   3.443
    1   AR   Ar   74   1.645   1.321   4.353
    1   AR   Ar   75   2.466   0.070   4.254
    1   AR   Ar   76   2.423   0.998   3.396
    1   AR   Ar   77   1.844   6.981   5.219
    1   AR   Ar   78   2.162   0.789   6.023
    1   AR   Ar   79   2.643   6.910   6.495
    1   AR   Ar   80   2.579   1.240   5.092
    1   AR   Ar   81   1.707   1.795   0.188
    1   AR   Ar   82   1.467   2.738   0.435
    1   AR   Ar   83   2.786   2.151   1.557
    1   AR   Ar   84   2.319   2.865  -0.251
    1   AR   Ar   85   1.603   2.066   1.835
    1   AR   Ar   86   1.700   2.889   2.527
    1   AR   Ar   87   2.614   1.299   2.373
    1   AR   Ar   88   2.588   3.046   2.037
    1   AR   Ar   89   1.671   1.775   3.090
    1   AR   Ar   90   2.108   3.169   4.587
    1   AR   Ar   91   2.413   1.832   4.193
    1   AR   Ar   92   2.471   2.497   3.171
    1   AR   Ar   93   1.605   1.882   5.346
    1   AR   Ar   94   2.045   3.003   6.059
    1   AR   Ar   95   2.709   1.807   6.116
    1   AR   Ar   96   2.636   2.522   5.252
    1   AR   Ar   97   1.487   3.711   0.395
    1   AR   Ar   98   2.153   4.281   1.376
    1   AR   Ar   99   2.495   3.437   0.996
    1   AR   Ar  100   2.744   4.507   0.378
    1   AR   Ar  101   1.671   3.206   1.533
    1   AR   Ar  102   1.561   4.643   2.911
    1   AR   Ar  103   2.186   3.930   2.393
    1   AR   Ar  104   3.133   4.317   1.348
    1   AR   Ar  105   1.839   3.384   3.555
    1   AR   Ar  106   1.866   4.358   3.931
    1   AR   Ar  107   2.675   4.139   4.481
    1   AR   Ar  108   2.554   4.384   3.237
    1   AR   Ar  109   1.275   3.965   5.083
    1   AR   Ar  110   1.995   4.212   5.881
    1   AR   Ar  111   3.247   4.420   6.504
    1   AR   Ar  112   2.833   4.934   5.723
    1   AR   Ar  113   2.080   5.289   0.621
    1   AR   Ar  114   1.542   6.096   1.382
    1   AR   Ar  115   3.046   5.549   0.982
    1   AR   Ar  116   3.063   0.092  -0.352
    1   AR   Ar  117   1.640   5.233   1.999
    1   AR   Ar  118   1.886   5.903   2.783
    1   AR   Ar  119   2.670   4.942   2.386
    1   AR   Ar  120   2.486   6.149   1.609
    1   AR   Ar  121   1.486   5.273   3.725
    1   AR   Ar  122   1.978   6.181   4.584
    1   AR   Ar  123   2.591   5.241   4.228
    1   AR   Ar  124   2.516   6.189   3.683
    1   AR   Ar  125   1.843   4.771   4.904
    1   AR   Ar  126   1.354   6.839   6.284
    1   AR   Ar  127   2.413   5.271   6.724
    1   AR   Ar  128   2.424   6.032   5.717
    1   AR   Ar  129   3.218   7.037   0.634
    1   AR   Ar  130   4.004   0.734   0.809
    1   AR   Ar  131   4.492   6.840   1.159
    1   AR   Ar  132   4.451   1.542  -0.600
    1   AR   Ar  133   3.550   6.998   2.399
    1   AR   Ar  134   3.543   0.986   2.678
    1   AR   Ar  135   4.344   0.313   2.895
    1   AR   Ar  136   4.067   0.584   1.914
    1   AR   Ar  137   3.025   0.028   3.306
    1   AR   Ar  138   3.388   0.560   4.611
    1   AR   Ar  139   4.255   7.022   4.439
    1   AR   Ar  140   3.941   1.039   3.791
    1   AR   Ar  141   2.883   7.015   5.457
    1   AR   Ar  142   3.253   0.868   5.912
    1   AR   Ar  143   3.974   0.179   6.575
    1   AR   Ar  144   4.295   1.039   5.418
    1   AR   Ar  145   3.527   1.714   0.066
    1   AR   Ar  146   3.563   2.457   0.962
    1   AR   Ar  147   4.470   1.943   0.997
    1   AR   Ar  148   5.267   2.473  -0.195
    1   AR   Ar  149   3.724   1.627   1.840
    1   AR   Ar  150   3.206   2.147   2.549
    1   AR   Ar  151   4.200   2.025   2.885
    1   AR   Ar  152   4.314   2.511   1.863
    1   AR   Ar  153   3.242   1.802   3.612
    1   AR   Ar  154   3.176   2.712   4.294
    1   AR   Ar  155   4.123   1.957   4.301
    1   AR   Ar  156   4.599   3.129   4.007
    1   AR   Ar  157   3.523   1.981   5.252
    1   AR   Ar  158   3.363   3.251   6.151
    1   AR   Ar  159   4.434   1.355   6.638
    1   AR   Ar  160   3.812   2.902   5.168
    1   AR   Ar  161   3.670   3.570   0.417
    1   AR   Ar  162   3.777   4.715   0.699
    1   AR   Ar  163   4.498   3.889   0.990
    1   AR   Ar  164   4.942   4.794   0.356
    1   AR   Ar  165   3.505   3.415   1.908
    1   AR   Ar  166   3.617   4.548   2.763
    1   AR   Ar  167   3.986   3.067   3.008
    1   AR   Ar  168   4.379   4.419   1.838
    1   AR   Ar  169   2.921   3.373   3.237
    1   AR   Ar  170   3.508   4.732   4.260
    1   AR   Ar  171   3.646   3.737   4.458
    1   AR   Ar  172   4.449   4.174   3.882
    1   AR   Ar  173   2.744   3.501   5.329
    1   AR   Ar  174   4.093   4.985   6.253
    1   AR   Ar  175   4.139   3.870   6.144
    1   AR   Ar  176   4.251   4.834   5.297
    1   AR   Ar  177   3.972   5.696   0.112
    1   AR   Ar  178   3.561   6.262   1.587
    1   AR   Ar  179   4.313   5.460   1.219
    1   AR   Ar  180   4.468   6.707   0.037
    1   AR   Ar  181   3.876   5.403   2.123
    1   AR   Ar  182   3.088   6.051   2.562
    1   AR   Ar  183   4.466   5.320   3.053
    1   AR   Ar  184   4.320   6.356   2.496
    1   AR   Ar  185   3.383   5.379   3.404
    1   AR   Ar  186   3.429   6.157   4.219
    1   AR   Ar  187   4.373   5.354   4.153
    1   AR   Ar  188   3.991   6.325   3.473
    1   AR   Ar  189   3.396   5.612   5.139
    1   AR   Ar  190   3.470   5.975   6.365
    1   AR   Ar  191   4.371   5.905   5.752
    1   AR   Ar  192   4.162   6.936   5.710
    1   AR   Ar  193   5.171   0.414   0.419
    1   AR   Ar  194   4.907   0.986   1.421
    1   AR   Ar  195   6.020   0.538   1.076
    1   AR   Ar  196   5.380   1.474   0.640
    1   AR   Ar  197   5.328   0.123   1.855
    1   AR   Ar  198   5.363   0.730   2.757
    1   AR   Ar  199   6.263   0.454   2.279
    1   AR   Ar  200   5.833   1.380   1.671
    1   AR   Ar  201   5.246   0.270   3.979
    1   AR   Ar  202   4.918   1.185   4.567
    1   AR   Ar  203   6.473   0.006   4.566
    1   AR   Ar  204   6.132   0.540   3.422
    1   AR   Ar  205   5.197   0.022   5.302
    1   AR   Ar  206   5.256   0.502   6.267
    1   AR   Ar  207   6.102   6.840   5.756
    1   AR   Ar  208   5.925   0.854   5.137
    1   AR   Ar  209   6.268   2.424  -1.080
    1   AR   Ar  210   5.510   2.337   1.284
    1   AR   Ar  211   6.361   2.007   0.435
    1   AR   Ar  212   6.522   3.202   0.257
    1   AR   Ar  213   5.311   2.012   2.317
    1   AR   Ar  214   5.098   3.131   2.125
    1   AR   Ar  215   6.182   1.461   2.656
    1   AR   Ar  216   6.574   2.817   1.407
    1   AR   Ar  217   5.025   1.459   3.530
    1   AR   Ar  218   5.807   2.535   4.372
    1   AR   Ar  219   6.062   1.727   3.637
    1   AR   Ar  220   5.233   2.602   3.261
    1   AR   Ar  221   5.420   2.088   5.206
    1   AR   Ar  222   4.293   2.471   6.064
    1   AR   Ar  223   6.307   2.063   6.350
    1   AR   Ar  224   6.422   2.849   5.317
    1   AR   Ar  225   5.669   3.847   0.086
    1   AR   Ar  226   5.251   4.167   1.568
    1   AR   Ar  227   6.299   3.894   0.998
    1   AR   Ar  228   5.929   4.966   0.096
    1   AR   Ar  229   5.465   3.320   1.012
    1   AR   Ar  230   4.853   3.983   2.822
    1   AR   Ar  231   6.626   3.258   3.280
    1   AR   Ar  232   6.035   3.556   1.932
    1   AR   Ar  233   5.534   3.551   3.494
    1   AR   Ar  234   6.014   4.421   3.896
    1   AR   Ar  235   6.655   3.413   4.470
    1   AR   Ar  236   7.015   4.213   3.692
    1   AR   Ar  237   4.918   3.183   5.257
    1   AR   Ar  238   5.089   4.495   5.860
    1   AR   Ar  239   6.182   4.184   6.462
    1   AR   Ar  240   6.149   4.077   5.188
    1   AR   Ar  241   5.075   5.919   0.711
    1   AR   Ar  242   5.312   6.202   1.684
    1   AR   Ar  243   6.268   4.595   1.723
    1   AR   Ar  244   5.956   6.539   0.907
    1   AR   Ar  245   5.278   5.161   2.344
    1   AR   Ar  246   5.415   6.366   2.813
    1   AR   Ar  247   6.275   4.329   2.782
    1   AR   Ar  248   6.316   6.387   1.941
    1   AR   Ar  249   6.096   5.332   3.401
    1   AR   Ar  250   4.751   6.089   4.723
    1   AR   Ar  251   6.545   5.204   4.378
    1   AR   Ar  252   6.084   6.318   3.766
    1   AR   Ar  253   5.606   5.073   4.854
    1   AR   Ar  254   5.251   6.002   6.211
    1   AR   Ar  255   6.149   5.141   5.734
    1   AR   Ar  256   5.736   6.289   4.920
    7.12000  7.12000 12.00000
Argon-slab step 295
  256
    1   AR   Ar    1   0.316   0.141  -0.428
    1   AR   Ar    2   0.006   0.558   0.723
    1   AR   Ar    3   0.399   6.723   0.858
    1   AR   Ar    4   1.029   0.837   0.365
    1   AR   Ar    5   7.078   7.108   1.827
    1   AR   Ar    6   7.069   0.428   2.859
    1   AR   Ar    7   0.992   6.842   2.651
    1   AR   Ar    8   0.904   0.390   1.862
    1   AR   Ar    9   0.220   0.231   3.947
    1   AR   Ar   10   6.985   1.100   4.050
    1   AR   Ar   11   1.259   0.335   4.299
    1   AR   Ar   12   0.931   0.780   3.357
    1   AR   Ar   13   7.059   0.357   5.376
    1   AR   Ar   14   0.372   1.483   5.857
    1   AR   Ar   15   1.683   7.075   7.280
    1   AR   Ar   16   1.077   0.695   5.415
    1   AR   Ar   17   0.511   1.666  -0.075
    1   AR   Ar   18   0.331   2.710   0.337
    1   AR   Ar   19   0.945   1.722   1.180
    1   AR   Ar   20   0.910   2.401  -0.877
    1   AR   Ar   21   7.082   1.104   2.016
    1   AR   Ar   22   6.764   2.612   2.527
    1   AR   Ar   23   0.545   1.908   2.624
    1   AR   Ar   24   0.668   2.764   1.957
    1   AR   Ar   25   0.666   1.809   3.837
    1   AR   Ar   26   6.864   2.435   4.329
    1   AR   Ar   27   0.622   1.934   4.814
    1   AR   Ar   28   1.475   2.464   3.993
    1   AR   Ar   29   6.760   1.741   5.267
    1   AR   Ar   30   0.378   2.585   6.306
    1   AR   Ar   31   0.986   1.443   6.840
    1   AR   Ar   32   1.306   2.853   5.372
    1   AR   Ar   33   0.352   3.573  -0.067
    1   AR   Ar   34   0.115   4.533   1.573
    1   AR   Ar   35   0.610   3.422   1.153
    1   AR   Ar   36   0.916   4.458  -0.045
    1   AR   Ar   37   0.093   3.610   1.996
    1   AR   Ar   38   0.542   4.693   2.785
    1   AR   Ar   39   0.729   3.465   2.739
    1   AR   Ar   40   1.117   4.230   2.015
    1   AR   Ar   41   0.518   2.867   3.712
    1   AR   Ar   42   0.189   4.275   4.851
    1   AR   Ar   43   0.593   3.233   4.693
    1   AR   Ar   44   0.968   3.977   3.981
    1   AR   Ar   45   7.024   3.723   5.850
    1   AR   Ar   46   0.139   5.240   6.440
    1   AR   Ar   47   0.983   3.576   6.111
    1   AR   Ar   48   0.879   4.624   5.804
    1   AR   Ar   49   7.049   4.459   0.403
    1   AR   Ar   50   6.915   5.423   0.857
    1   AR   Ar   51   1.145   4.654   1.096
    1   AR   Ar   52   0.889   5.469   0.385
    1   AR   Ar   53   6.776   5.317   2.251
    1   AR   Ar   54   6.939   6.375   2.755
    1   AR   Ar   55   0.686   5.706   2.671
    1   AR   Ar   56   0.584   5.470   1.745
    1   AR   Ar   57   0.525   4.983   4.159
    1   AR   Ar   58   7.045   6.069   4.448
    1   AR   Ar   59   0.937   5.371   5.132
    1   AR   Ar   60   1.106   6.343   4.112
    1   AR   Ar   61   6.842   5.960   5.428
    1   AR   Ar   62   0.397   6.243   6.259
    1   AR   Ar   63   1.823   5.164   5.857
    1   AR   Ar   64   0.843   6.718   5.305
    1   AR   Ar   65   1.120   6.703   0.017
    1   AR   Ar   66   1.715   1.020   1.259
    1   AR   Ar   67   2.361   6.261   0.484
    1   AR   Ar   68   2.812   1.026   0.862
    1   AR   Ar   69   1.942   7.037   0.971
    1   AR   Ar   70   1.589   0.818   2.539
    1   AR   Ar   71   2.293   7.018   2.542
    1   AR   Ar   72   2.808   0.319   1.763
    1   AR   Ar   73   1.842   7.015   3.436
    1   AR   Ar   74   1.661   1.329   4.342
    1   AR   Ar   75   2.477   0.111   4.275
    1   AR   Ar   76   2.399   0.988   3.398
    1   AR   Ar   77   1.851   6.969   5.208
    1   AR   Ar   78   2.175   0.822   6.024
    1   AR   Ar   79   2.629   6.902   6.496
    1   AR   Ar   80   2.545   1.220   5.078
    1   AR   Ar   81   1.715   1.777   0.168
    1   AR   Ar   82   1.496   2.726   0.428
    1   AR   Ar   83   2.793   2.129   1.537
    1   AR   Ar   84   2.286   2.843  -0.258
    1   AR   Ar   85   1.600   2.087   1.838
    1   AR   Ar   86   1.695   2.883   2.505
    1   AR   Ar   87   2.630   1.321   2.347
    1   AR   Ar   88   2.577   3.033   2.076
    1   AR   Ar   89   1.647   1.798   3.093
    1   AR   Ar   90   2.107   3.172   4.591
    1   AR   Ar   91   2.430   1.849   4.194
    1   AR   Ar   92   2.479   2.512   3.195
    1   AR   Ar   93   1.606   1.863   5.374
    1   AR   Ar   94   1.997   3.001   6.042
    1   AR   Ar   95   2.703   1.811   6.123
    1   AR   Ar   96   2.644   2.509   5.256
    1   AR   Ar   97   1.521   3.715   0.405
    1   AR   Ar   98   2.174   4.320   1.343
    1   AR   Ar   99   2.461   3.437   0.980
    1   AR   Ar  100   2.766   4.505   0.381
    1   AR   Ar  101   1.670   3.225   1.503
    1   AR   Ar  102   1.570   4.627   2.942
    1   AR   Ar  103   2.157   3.957   2.386
    1   AR   Ar  104   3.138   4.296   1.336
    1   AR   Ar  105   1.836   3.375   3.533
    1   AR   Ar  106   1.848   4.358   3.930
    1   AR   Ar  107   2.694   4.138   4.488
    1   AR   Ar  108   2.568   4.361   3.274
    1   AR   Ar  109   1.262   3.962   5.055
    1   AR   Ar  110   1.982   4.210   5.910
    1   AR   Ar  111   3.251   4.419   6.520
    1   AR   Ar  112   2.856   4.932   5.723
    1   AR   Ar  113   2.075   5.280   0.645
    1   AR   Ar  114   1.498   6.119   1.358
    1   AR   Ar  115   3.103   5.552   0.965
    1   AR   Ar  116   3.065   0.123  -0.367
    1   AR   Ar  117   1.637   5.214   2.019
    1   AR   Ar  118   1.871   5.880   2.782
    1   AR   Ar  119   2.667   4.943   2.372
    1   AR   Ar  120   2.459   6.145   1.610
    1   AR   Ar  121   1.510   5.294   3.722
    1   AR   Ar  122   1.979   6.166   4.596
    1   AR   Ar  123   2.590   5.202   4.239
    1   AR   Ar  124   2.533   6.151   3.676
    1   AR   Ar  125   1.857   4.777   4.886
    1   AR   Ar  126   1.367   6.852   6.302
    1   AR   Ar  127   2.413   5.246   6.700
    1   AR   Ar  128   2.414   6.033   5.718
    1   AR   Ar  129   3.214   7.034   0.660
    1   AR   Ar  130   3.987   0.724   0.819
    1   AR   Ar  131   4.498   6.826   1.154
    1   AR   Ar  132   4.467   1.553  -0.595
    1   AR   Ar  133   3.580   6.966   2.398
    1   AR   Ar  134   3.545   0.984   2.691
    1   AR   Ar  135   4.324   0.304   2.920
    1   AR   Ar  136   4.046   0.628   1.883
    1   AR   Ar  137   3.038   0.038   3.312
    1   AR   Ar  138   3.399   0.542   4.641
    1   AR   Ar  139   4.234   7.012   4.420
    1   AR   Ar  140   3.940   1.027   3.813
    1   AR   Ar  141   2.872   7.025   5.473
    1   AR   Ar  142   3.253   0.855   5.881
    1   AR   Ar  143   3.992   0.162   6.569
    1   AR   Ar  144   4.321   1.035   5.432
    1   AR   Ar  145   3.509   1.742   0.076
    1   AR   Ar  146   3.559   2.454   0.973
    1   AR   Ar  147   4.508   1.950   1.007
    1   AR   Ar  148   5.273   2.436  -0.236
    1   AR   Ar  149   3.713   1.647   1.848
    1   AR   Ar  150   3.223   2.145   2.593
    1   AR   Ar  151   4.183   2.018   2.880
    1   AR   Ar  152   4.324   2.456   1.879
    1   AR   Ar  153   3.254   1.806   3.651
    1   AR   Ar  154   3.191   2.738   4.279
    1   AR   Ar  155   4.126   1.909   4.316
    1   AR   Ar  156   4.604   3.137   4.047
    1   AR   Ar  157   3.499   1.954   5.276
    1   AR   Ar  158   3.352   3.211   6.151
    1   AR   Ar  159   4.421   1.341   6.654
    1   AR   Ar  160   3.802   2.931   5.149
    1   AR   Ar  161   3.700   3.585   0.415
    1   AR   Ar  162   3.770   4.681   0.680
    1   AR   Ar  163   4.497   3.906   0.966
    1   AR   Ar  164   4.947   4.788   0.338
    1   AR   Ar  165   3.519   3.426   1.921
    1   AR   Ar  166   3.581   4.564   2.762
    1   AR   Ar  167   4.003   3.034   3.004
    1   AR   Ar  168   4.373   4.423   1.878
    1   AR   Ar  169   2.948   3.363   3.245
    1   AR   Ar  170   3.520   4.737   4.250
    1   AR   Ar  171   3.646   3.723   4.466
    1   AR   Ar  172   4.438   4.189   3.891
    1   AR   Ar  173   2.760   3.491   5.325
    1   AR   Ar  174   4.130   4.988   6.255
    1   AR   Ar  175   4.129   3.872   6.128
    1   AR   Ar  176   4.276   4.854   5.296
    1   AR   Ar  177   4.003   5.718   0.114
    1   AR   Ar  178   3.559   6.282   1.582
    1   AR   Ar  179   4.345   5.481   1.175
    1   AR   Ar  180   4.463   6.691   0.045
    1   AR   Ar  181   3.848   5.395   2.144
    1   AR   Ar  182   3.075   6.000   2.580
    1   AR   Ar  183   4.449   5.302   3.067
    1   AR   Ar  184   4.311   6.351   2.453
    1   AR   Ar  185   3.364   5.367   3.413
    1   AR   Ar  186   3.432   6.143   4.214
    1   AR   Ar  187   4.368   5.352   4.171
    1   AR   Ar  188   3.989   6.346   3.471
    1   AR   Ar  189   3.405   5.619   5.118
    1   AR   Ar  190   3.463   5.962   6.409
    1   AR   Ar  191   4.365   5.903   5.735
    1   AR   Ar  192   4.130   6.955   5.709
    1   AR   Ar  193   5.196   0.410   0.415
    1   AR   Ar  194   4.927   0.987   1.450
    1   AR   Ar  195   6.015   0.533   1.049
    1   AR   Ar  196   5.357   1.456   0.677
    1   AR   Ar  197   5.360   0.140   1.838
    1   AR   Ar  198   5.392   0.761   2.739
    1   AR   Ar  199   6.296   0.474   2.283
    1   AR   Ar  200   5.808   1.412   1.656
    1   AR   Ar  201   5.211   0.256   3.996
    1   AR   Ar  202   4.884   1.202   4.597
    1   AR   Ar  203   6.507   7.117   4.607
    1   AR   Ar  204   6.102   0.532   3.438
    1   AR   Ar  205   5.205   0.009   5.289
    1   AR   Ar  206   5.240   0.504   6.249
    1   AR   Ar  207   6.110   6.879   5.747
    1   AR   Ar  208   5.917   0.825   5.123
    1   AR   Ar  209   6.291   2.446  -1.097
    1   AR   Ar  210   5.513   2.330   1.285
    1   AR   Ar  211   6.354   2.033   0.438
    1   AR   Ar  212   6.499   3.202   0.267
    1   AR   Ar  213   5.306   1.996   2.291
    1   AR   Ar  214   5.084   3.174   2.104
    1   AR   Ar  215   6.161   1.471   2.638
    1   AR   Ar  216   6.585   2.840   1.356
    1   AR   Ar  217   5.022   1.425   3.515
    1   AR   Ar  218   5.737   2.535   4.348
    1   AR   Ar  219   6.059   1.724   3.655
    1   AR   Ar  220   5.221   2.568   3.240
    1   AR   Ar  221   5.416   2.079   5.178
    1   AR   Ar  222   4.259   2.459   6.067
    1   AR   Ar  223   6.293   2.058   6.348
    1   AR   Ar  224   6.438   2.838   5.327
    1   AR   Ar  225   5.669   3.856   0.105
    1   AR   Ar  226   5.268   4.193   1.584
    1   AR   Ar  227   6.309   3.889   1.017
    1   AR   Ar  228   5.937   4.985   0.086
    1   AR   Ar  229   5.467   3.321   0.997
    1   AR   Ar  230   4.857   3.987   2.837
    1   AR   Ar  231   6.644   3.244   3.275
    1   AR   Ar  232   6.016   3.534   1.969
    1   AR   Ar  233   5.537   3.548   3.493
    1   AR   Ar  234   6.003   4.449   3.917
    1   AR   Ar  235   6.657   3.414   4.444
    1   AR   Ar  236   7.039   4.185   3.679
    1   AR   Ar  237   4.907   3.176   5.253
    1   AR   Ar  238   5.085   4.501   5.881
    1   AR   Ar  239   6.188   4.191   6.461
    1   AR   Ar  240   6.165   4.057   5.185
    1   AR   Ar  241   5.093   5.902   0.709
    1   AR   Ar  242   5.299   6.222   1.675
    1   AR   Ar  243   6.248   4.592   1.766
    1   AR   Ar  244   5.961   6.529   0.924
    1   AR   Ar  245   5.317   5.154   2.355
    1   AR   Ar  246   5.430   6.386   2.845
    1   AR   Ar  247   6.272   4.320   2.832
    1   AR   Ar  248   6.303   6.407   1.951
    1   AR   Ar  249   6.105   5.310   3.378
    1   AR   Ar  250   4.750   6.047   4.705
    1   AR   Ar  251   6.555   5.189   4.395
    1   AR   Ar  252   6.101   6.338   3.735
    1   AR   Ar  253   5.618   5.067   4.867
    1   AR   Ar  254   5.245   5.991   6.223
    1   AR   Ar  255   6.167   5.179   5.742
    1   AR   Ar  256   5.708   6.269   4.942
    7.12000  7.12000 12.00000
Argon-slab step 300
  256
    1   AR   Ar    1   0.316   0.166  -0.428
    1   AR   Ar    2   0.014   0.556   0.722
    1   AR   Ar    3   0.398   6.714   0.831
    1   AR   Ar    4   1.029   0.814   0.410
    1   AR   Ar    5   7.071   7.091   1.828
    1   AR   Ar    6   7.063   0.400   2.885
    1   AR   Ar    7   0.965   6.826   2.648
    1   AR   Ar    8   0.903   0.359   1.849
    1   AR   Ar    9   0.202   0.237   3.932
    1   AR   Ar   10   6.972   1.129   4.056
    1   AR   Ar   11   1.281   0.345   4.276
    1   AR   Ar   12   0.932   0.796   3.357
    1   AR   Ar   13   7.056   0.375   5.391
    1   AR   Ar   14   0.346   1.482   5.868
    1   AR   Ar   15   1.690   7.064   7.278
    1   AR   Ar   16   1.044   0.689   5.454
    1   AR   Ar   17   0.479   1.637  -0.045
    1   AR   Ar   18   0.367   2.704   0.276
    1   AR   Ar   19   0.938   1.729   1.195
    1   AR   Ar   20   0.885   2.402  -0.891
    1   AR   Ar   21   7.119   1.083   1.998
    1   AR   Ar   22   6.733   2.578   2.527
    1   AR   Ar   23   0.542   1.891   2.662
    1   AR   Ar   24   0.649   2.771   1.934
    1   AR   Ar   25   0.695   1.805   3.821
    1   AR   Ar   26   6.870   2.430   4.305
    1   AR   Ar   27   0.630   1.911   4.836
    1   AR   Ar   28   1.461   2.481   3.974
    1   AR   Ar   29   6.732   1.757   5.246
    1   AR   Ar   30   0.358   2.583   6.325
    1   AR   Ar   31   0.992   1.422   6.884
    1   AR   Ar   32   1.355   2.883   5.368
    1   AR   Ar   33   0.364   3.604  -0.072
    1   AR   Ar   34   0.125   4.511   1.569
    1   AR   Ar   35   0.605   3.434   1.158
    1   AR   Ar   36   0.944   4.455  -0.075
    1   AR   Ar   37   0.070   3.618   2.019
    1   AR   Ar   38   0.548   4.689   2.769
    1   AR   Ar   39   0.756   3.484   2.739
    1   AR   Ar   40   1.103   4.280   1.991
    1   AR   Ar   41   0.532   2.848   3.709
    1   AR   Ar   42   0.207   4.260   4.869
    1   AR   Ar   43   0.586   3.227   4.711
    1   AR   Ar   44   0.957   3.969   3.984
    1   AR   Ar   45   7.013   3.723   5.850
    1   AR   Ar   46   0.140   5.236   6.479
    1   AR   Ar   47   0.988   3.541   6.142
    1   AR   Ar   48   0.885   4.650   5.788
    1   AR   Ar   49   7.033   4.428   0.390
    1   AR   Ar   50   6.945   5.434   0.853
    1   AR   Ar   51   1.146   4.684   1.054
    1   AR   Ar   52   0.865   5.465   0.379
    1   AR   Ar   53   6.790   5.294   2.299
    1   AR   Ar   54   6.896   6.374   2.742
    1   AR   Ar   55   0.690   5.687   2.629
    1   AR   Ar   56   0.613   5.481   1.760
    1   AR   Ar   57   0.572   4.994   4.185
    1   AR   Ar   58   7.047   6.079   4.443
    1   AR   Ar   59   0.931   5.390   5.121
    1   AR   Ar   60   1.088   6.344   4.080
    1   AR   Ar   61   6.819   5.980   5.455
    1   AR   Ar   62   0.420   6.223   6.238
    1   AR   Ar   63   1.814   5.141   5.859
    1   AR   Ar   64   0.836   6.713   5.292
    1   AR   Ar   65   1.088   6.705   0.040
    1   AR   Ar   66   1.699   0.996   1.269
    1   AR   Ar   67   2.382   6.259   0.493
    1   AR   Ar   68   2.823   1.045   0.871
    1   AR   Ar   69   1.963   7.047   0.951
    1   AR   Ar   70   1.552   0.807   2.535
    1   AR   Ar   71   2.322   7.025   2.514
    1   AR   Ar   72   2.849   0.326   1.737
    1   AR   Ar   73   1.799   7.004   3.435
    1   AR   Ar   74   1.654   1.325   4.335
    1   AR   Ar   75   2.486   0.152   4.298
    1   AR   Ar   76   2.375   0.978   3.400
    1   AR   Ar   77   1.859   6.964   5.201
    1   AR   Ar   78   2.185   0.852   6.026
    1   AR   Ar   79   2.614   6.895   6.498
    1   AR   Ar   80   2.513   1.201   5.064
    1   AR   Ar   81   1.718   1.765   0.168
    1   AR   Ar   82   1.534   2.707   0.431
    1   AR   Ar   83   2.791   2.103   1.521
    1   AR   Ar   84   2.255   2.821  -0.265
    1   AR   Ar   85   1.607   2.111   1.856
    1   AR   Ar   86   1.679   2.878   2.493
    1   AR   Ar   87   2.639   1.341   2.318
    1   AR   Ar   88   2.573   3.018   2.113
    1   AR   Ar   89   1.611   1.838   3.080
    1   AR   Ar   90   2.101   3.175   4.592
    1   AR   Ar   91   2.458   1.883   4.195
    1   AR   Ar   92   2.476   2.516   3.223
    1   AR   Ar   93   1.609   1.839   5.401
    1   AR   Ar   94   1.963   3.001   6.036
    1   AR   Ar   95   2.698   1.816   6.128
    1   AR   Ar   96   2.646   2.487   5.259
    1   AR   Ar   97   1.557   3.728   0.419
    1   AR   Ar   98   2.174   4.368   1.314
    1   AR   Ar   99   2.443   3.431   0.952
    1   AR   Ar  100   2.785   4.501   0.382
    1   AR   Ar  101   1.655   3.243   1.479
    1   AR   Ar  102   1.571   4.617   2.954
    1   AR   Ar  103   2.127   3.981   2.377
    1   AR   Ar  104   3.154   4.270   1.334
    1   AR   Ar  105   1.832   3.367   3.508
    1   AR   Ar  106   1.836   4.359   3.939
    1   AR   Ar  107   2.709   4.137   4.495
    1   AR   Ar  108   2.595   4.340   3.307
    1   AR   Ar  109   1.249   3.955   5.027
    1   AR   Ar  110   1.972   4.175   5.908
    1   AR   Ar  111   3.254   4.415   6.540
    1   AR   Ar  112   2.878   4.931   5.718
    1   AR   Ar  113   2.074   5.286   0.665
    1   AR   Ar  114   1.442   6.141   1.330
    1   AR   Ar  115   3.161   5.552   0.946
    1   AR   Ar  116   3.068   0.154  -0.383
    1   AR   Ar  117   1.634   5.193   2.035
    1   AR   Ar  118   1.858   5.861   2.785
    1   AR   Ar  119   2.663   4.949   2.356
    1   AR   Ar  120   2.441   6.142   1.616
    1   AR   Ar  121   1.532   5.326   3.722
    1   AR   Ar  122   1.986   6.143   4.610
    1   AR   Ar  123   2.586   5.167   4.248
    1   AR   Ar  124   2.549   6.115   3.664
    1   AR   Ar  125   1.873   4.788   4.868
    1   AR   Ar  126   1.380   6.866   6.315
    1   AR   Ar  127   2.416   5.222   6.678
    1   AR   Ar  128   2.375   6.043   5.720
    1   AR   Ar  129   3.209   7.030   0.691
    1   AR   Ar  130   3.987   0.739   0.832
    1   AR   Ar  131   4.503   6.812   1.150
    1   AR   Ar  132   4.472   1.551  -0.593
    1   AR   Ar  133   3.588   6.942   2.396
    1   AR   Ar  134   3.544   0.985   2.712
    1   AR   Ar  135   4.317   0.300   2.924
    1   AR   Ar  136   4.028   0.668   1.848
    1   AR   Ar  137   3.053   0.048   3.320
    1   AR   Ar  138   3.409   0.526   4.673
    1   AR   Ar  139   4.213   7.002   4.401
    1   AR   Ar  140   3.937   0.988   3.785
    1   AR   Ar  141   2.864   7.035   5.484
    1   AR   Ar  142   3.257   0.842   5.850
    1   AR   Ar  143   4.005   0.157   6.588
    1   AR   Ar  144   4.332   1.038   5.441
    1   AR   Ar  145   3.492   1.770   0.088
    1   AR   Ar  146   3.549   2.469   0.987
    1   AR   Ar  147   4.510   1.940   0.972
    1   AR   Ar  148   5.281   2.399  -0.276
    1   AR   Ar  149   3.702   1.661   1.850
    1   AR   Ar  150   3.236   2.149   2.636
    1   AR   Ar  151   4.167   2.016   2.849
    1   AR   Ar  152   4.336   2.408   1.900
    1   AR   Ar  153   3.272   1.811   3.680
    1   AR   Ar  154   3.204   2.762   4.262
    1   AR   Ar  155   4.128   1.867   4.332
    1   AR   Ar  156   4.610   3.143   4.086
    1   AR   Ar  157   3.480   1.928   5.301
    1   AR   Ar  158   3.336   3.166   6.152
    1   AR   Ar  159   4.406   1.327   6.667
    1   AR   Ar  160   3.794   2.964   5.133
    1   AR   Ar  161   3.723   3.598   0.413
    1   AR   Ar  162   3.775   4.665   0.666
    1   AR   Ar  163   4.506   3.911   0.950
    1   AR   Ar  164   4.947   4.781   0.324
    1   AR   Ar  165   3.538   3.439   1.933
    1   AR   Ar  166   3.547   4.574   2.762
    1   AR   Ar  167   4.020   3.006   3.000
    1   AR   Ar  168   4.307   4.396   1.903
    1   AR   Ar  169   2.982   3.364   3.253
    1   AR   Ar  170   3.536   4.743   4.241
    1   AR   Ar  171   3.640   3.706   4.497
    1   AR   Ar  172   4.428   4.193   3.902
    1   AR   Ar  173   2.779   3.494   5.324
    1   AR   Ar  174   4.165   4.993   6.268
    1   AR   Ar  175   4.124   3.877   6.109
    1   AR   Ar  176   4.300   4.874   5.277
    1   AR   Ar  177   4.033   5.738   0.120
    1   AR   Ar  178   3.559   6.304   1.576
    1   AR   Ar  179   4.367   5.497   1.139
    1   AR   Ar  180   4.456   6.692   0.033
    1   AR   Ar  181   3.820   5.386   2.165
    1   AR   Ar  182   3.060   5.952   2.600
    1   AR   Ar  183   4.430   5.284   3.080
    1   AR   Ar  184   4.318   6.332   2.409
    1   AR   Ar  185   3.345   5.358   3.421
    1   AR   Ar  186   3.420   6.140   4.215
    1   AR   Ar  187   4.357   5.337   4.178
    1   AR   Ar  188   3.998   6.376   3.447
    1   AR   Ar  189   3.407   5.607   5.115
    1   AR   Ar  190   3.455   5.949   6.450
    1   AR   Ar  191   4.353   5.900   5.713
    1   AR   Ar  192   4.102   6.966   5.678
    1   AR   Ar  193   5.216   0.405   0.412
    1   AR   Ar  194   4.935   0.985   1.481
    1   AR   Ar  195   6.013   0.529   1.026
    1   AR   Ar  196   5.347   1.439   0.714
    1   AR   Ar  197   5.392   0.153   1.823
    1   AR   Ar  198   5.411   0.792   2.717
    1   AR   Ar  199   6.310   0.491   2.278
    1   AR   Ar  200   5.797   1.437   1.638
    1   AR   Ar  201   5.176   0.243   4.013
    1   AR   Ar  202   4.856   1.218   4.622
    1   AR   Ar  203   6.534   7.103   4.642
    1   AR   Ar  204   6.078   0.525   3.457
    1   AR   Ar  205   5.205   7.118   5.272
    1   AR   Ar  206   5.223   0.507   6.232
    1   AR   Ar  207   6.122   6.918   5.739
    1   AR   Ar  208   5.910   0.796   5.109
    1   AR   Ar  209   6.281   2.433  -1.097
    1   AR   Ar  210   5.516   2.325   1.286
    1   AR   Ar  211   6.347   2.061   0.442
    1   AR   Ar  212   6.475   3.198   0.276
    1   AR   Ar  213   5.293   1.986   2.273
    1   AR   Ar  214   5.070   3.204   2.082
    1   AR   Ar  215   6.146   1.483   2.622
    1   AR   Ar  216   6.591   2.837   1.343
    1   AR   Ar  217   5.016   1.391   3.499
    1   AR   Ar  218   5.670   2.540   4.316
    1   AR   Ar  219   6.058   1.721   3.676
    1   AR   Ar  220   5.208   2.531   3.218
    1   AR   Ar  221   5.408   2.066   5.157
    1   AR   Ar  222   4.229   2.448   6.066
    1   AR   Ar  223   6.261   2.064   6.372
    1   AR   Ar  224   6.455   2.826   5.338
    1   AR   Ar  225   5.667   3.868   0.123
    1   AR   Ar  226   5.301   4.219   1.600
    1   AR   Ar  227   6.327   3.888   1.034
    1   AR   Ar  228   5.950   5.005   0.078
    1   AR   Ar  229   5.464   3.320   0.982
    1   AR   Ar  230   4.887   4.003   2.865
    1   AR   Ar  231   6.659   3.237   3.280
    1   AR   Ar  232   6.013   3.547   1.948
    1   AR   Ar  233   5.543   3.545   3.495
    1   AR   Ar  234   5.989   4.468   3.942
    1   AR   Ar  235   6.658   3.424   4.415
    1   AR   Ar  236   7.064   4.158   3.667
    1   AR   Ar  237   4.894   3.168   5.248
    1   AR   Ar  238   5.084   4.506   5.903
    1   AR   Ar  239   6.195   4.199   6.458
    1   AR   Ar  240   6.182   4.039   5.183
    1   AR   Ar  241   5.119   5.890   0.696
    1   AR   Ar  242   5.296   6.206   1.666
    1   AR   Ar  243   6.217   4.590   1.812
    1   AR   Ar  244   5.968   6.523   0.938
    1   AR   Ar  245   5.356   5.147   2.365
    1   AR   Ar  246   5.445   6.407   2.875
    1   AR   Ar  247   6.269   4.310   2.883
    1   AR   Ar  248   6.283   6.436   1.958
    1   AR   Ar  249   6.113   5.292   3.351
    1   AR   Ar  250   4.756   6.054   4.691
    1   AR   Ar  251   6.566   5.170   4.413
    1   AR   Ar  252   6.079   6.348   3.715
    1   AR   Ar  253   5.625   5.060   4.877
    1   AR   Ar  254   5.247   5.980   6.236
    1   AR   Ar  255   6.186   5.216   5.754
    1   AR   Ar  256   5.690   6.248   4.963
    7.12000  7.12000 12.00000
Argon-slab step 305
  256
    1   AR   Ar    1   0.316   0.192  -0.426
    1   AR   Ar    2   0.020   0.559   0.722
    1   AR   Ar    3   0.396   6.700   0.808
    1   AR   Ar    4   1.031   0.790   0.456
    1   AR   Ar    5   7.058   7.070   1.835
    1   AR   Ar    6   7.069   0.370   2.920
    1   AR   Ar    7   0.939   6.809   2.650
    1   AR   Ar    8   0.904   0.333   1.829
    1   AR   Ar    9   0.191   0.226   3.916
    1   AR   Ar   10   6.953   1.175   4.064
    1   AR   Ar   11   1.301   0.352   4.257
    1   AR   Ar   12   0.930   0.814   3.359
    1   AR   Ar   13   7.059   0.397   5.413
    1   AR   Ar   14   0.328   1.479   5.884
    1   AR   Ar   15   1.700   7.054   7.280
    1   AR   Ar   16   1.012   0.683   5.492
    1   AR   Ar   17   0.448   1.610  -0.015
    1   AR   Ar   18   0.404   2.681   0.222
    1   AR   Ar   19   0.918   1.701   1.216
    1   AR   Ar   20   0.860   2.404  -0.901
    1   AR   Ar   21   0.039   1.065   1.978
    1   AR   Ar   22   6.703   2.539   2.519
    1   AR   Ar   23   0.540   1.875   2.701
    1   AR   Ar   24   0.651   2.777   1.917
    1   AR   Ar   25   0.722   1.795   3.798
    1   AR   Ar   26   6.876   2.418   4.280
    1   AR   Ar   27   0.631   1.894   4.859
    1   AR   Ar   28   1.454   2.498   3.960
    1   AR   Ar   29   6.695   1.774   5.219
    1   AR   Ar   30   0.338   2.581   6.342
    1   AR   Ar   31   0.998   1.400   6.926
    1   AR   Ar   32   1.378   2.907   5.333
    1   AR   Ar   33   0.372   3.627  -0.079
    1   AR   Ar   34   0.136   4.497   1.559
    1   AR   Ar   35   0.602   3.452   1.153
    1   AR   Ar   36   0.979   4.461  -0.105
    1   AR   Ar   37   0.032   3.624   2.045
    1   AR   Ar   38   0.551   4.677   2.756
    1   AR   Ar   39   0.789   3.503   2.749
    1   AR   Ar   40   1.090   4.322   1.968
    1   AR   Ar   41   0.544   2.835   3.702
    1   AR   Ar   42   0.223   4.245   4.888
    1   AR   Ar   43   0.573   3.216   4.728
    1   AR   Ar   44   0.930   3.953   3.985
    1   AR   Ar   45   7.004   3.722   5.848
    1   AR   Ar   46   0.135   5.252   6.494
    1   AR   Ar   47   0.992   3.508   6.171
    1   AR   Ar   48   0.888   4.666   5.778
    1   AR   Ar   49   7.015   4.399   0.380
    1   AR   Ar   50   6.975   5.444   0.851
    1   AR   Ar   51   1.146   4.714   1.008
    1   AR   Ar   52   0.841   5.463   0.375
    1   AR   Ar   53   6.806   5.274   2.350
    1   AR   Ar   54   6.859   6.373   2.736
    1   AR   Ar   55   0.702   5.687   2.635
    1   AR   Ar   56   0.638   5.479   1.723
    1   AR   Ar   57   0.618   5.006   4.209
    1   AR   Ar   58   7.057   6.067   4.438
    1   AR   Ar   59   0.926   5.419   5.103
    1   AR   Ar   60   1.068   6.346   4.047
    1   AR   Ar   61   6.798   6.004   5.483
    1   AR   Ar   62   0.445   6.206   6.215
    1   AR   Ar   63   1.817   5.150   5.825
    1   AR   Ar   64   0.826   6.706   5.278
    1   AR   Ar   65   1.061   6.706   0.064
    1   AR   Ar   66   1.687   0.970   1.281
    1   AR   Ar   67   2.408   6.255   0.499
    1   AR   Ar   68   2.834   1.065   0.880
    1   AR   Ar   69   1.982   7.065   0.936
    1   AR   Ar   70   1.522   0.798   2.530
    1   AR   Ar   71   2.349   7.030   2.487
    1   AR   Ar   72   2.893   0.336   1.707
    1   AR   Ar   73   1.755   6.993   3.435
    1   AR   Ar   74   1.638   1.318   4.329
    1   AR   Ar   75   2.492   0.191   4.320
    1   AR   Ar   76   2.350   0.968   3.403
    1   AR   Ar   77   1.864   6.965   5.197
    1   AR   Ar   78   2.192   0.879   6.027
    1   AR   Ar   79   2.598   6.887   6.501
    1   AR   Ar   80   2.482   1.182   5.049
    1   AR   Ar   81   1.715   1.764   0.197
    1   AR   Ar   82   1.563   2.691   0.444
    1   AR   Ar   83   2.793   2.081   1.527
    1   AR   Ar   84   2.229   2.800  -0.276
    1   AR   Ar   85   1.624   2.133   1.887
    1   AR   Ar   86   1.652   2.879   2.495
    1   AR   Ar   87   2.642   1.360   2.288
    1   AR   Ar   88   2.578   3.002   2.146
    1   AR   Ar   89   1.575   1.877   3.066
    1   AR   Ar   90   2.093   3.177   4.589
    1   AR   Ar   91   2.482   1.927   4.204
    1   AR   Ar   92   2.464   2.510   3.255
    1   AR   Ar   93   1.615   1.813   5.428
    1   AR   Ar   94   1.957   3.007   6.058
    1   AR   Ar   95   2.693   1.821   6.131
    1   AR   Ar   96   2.640   2.462   5.259
    1   AR   Ar   97   1.592   3.747   0.434
    1   AR   Ar   98   2.167   4.378   1.351
    1   AR   Ar   99   2.443   3.423   0.915
    1   AR   Ar  100   2.801   4.496   0.379
    1   AR   Ar  101   1.621   3.235   1.479
    1   AR   Ar  102   1.572   4.609   2.967
    1   AR   Ar  103   2.099   4.000   2.364
    1   AR   Ar  104   3.178   4.239   1.344
    1   AR   Ar  105   1.836   3.386   3.510
    1   AR   Ar  106   1.830   4.362   3.952
    1   AR   Ar  107   2.719   4.136   4.502
    1   AR   Ar  108   2.631   4.324   3.335
    1   AR   Ar  109   1.264   3.957   5.018
    1   AR   Ar  110   1.965   4.123   5.897
    1   AR   Ar  111   3.257   4.409   6.561
    1   AR   Ar  112   2.898   4.930   5.710
    1   AR   Ar  113   2.082   5.317   0.677
    1   AR   Ar  114   1.381   6.161   1.300
    1   AR   Ar  115   3.219   5.549   0.926
    1   AR   Ar  116   3.070   0.186  -0.398
    1   AR   Ar  117   1.631   5.170   2.045
    1   AR   Ar  118   1.847   5.846   2.791
    1   AR   Ar  119   2.655   4.955   2.338
    1   AR   Ar  120   2.427   6.138   1.625
    1   AR   Ar  121   1.554   5.365   3.725
    1   AR   Ar  122   1.997   6.114   4.622
    1   AR   Ar  123   2.583   5.139   4.252
    1   AR   Ar  124   2.560   6.080   3.647
    1   AR   Ar  125   1.886   4.800   4.857
    1   AR   Ar  126   1.393   6.878   6.321
    1   AR   Ar  127   2.424   5.198   6.660
    1   AR   Ar  128   2.360   6.062   5.728
    1   AR   Ar  129   3.204   7.025   0.725
    1   AR   Ar  130   4.007   0.766   0.835
    1   AR   Ar  131   4.505   6.801   1.160
    1   AR   Ar  132   4.463   1.530  -0.597
    1   AR   Ar  133   3.575   6.930   2.394
    1   AR   Ar  134   3.541   0.989   2.739
    1   AR   Ar  135   4.327   0.302   2.893
    1   AR   Ar  136   4.009   0.700   1.818
    1   AR   Ar  137   3.068   0.057   3.331
    1   AR   Ar  138   3.420   0.514   4.708
    1   AR   Ar  139   4.193   6.990   4.381
    1   AR   Ar  140   3.936   0.944   3.756
    1   AR   Ar  141   2.861   7.046   5.492
    1   AR   Ar  142   3.263   0.831   5.817
    1   AR   Ar  143   4.015   0.158   6.623
    1   AR   Ar  144   4.322   1.052   5.446
    1   AR   Ar  145   3.476   1.797   0.102
    1   AR   Ar  146   3.546   2.488   0.997
    1   AR   Ar  147   4.506   1.932   0.937
    1   AR   Ar  148   5.289   2.361  -0.314
    1   AR   Ar  149   3.696   1.657   1.861
    1   AR   Ar  150   3.236   2.159   2.674
    1   AR   Ar  151   4.168   2.000   2.825
    1   AR   Ar  152   4.319   2.393   1.913
    1   AR   Ar  153   3.302   1.816   3.699
    1   AR   Ar  154   3.213   2.784   4.243
    1   AR   Ar  155   4.128   1.837   4.339
    1   AR   Ar  156   4.615   3.146   4.126
    1   AR   Ar  157   3.475   1.943   5.327
    1   AR   Ar  158   3.320   3.117   6.154
    1   AR   Ar  159   4.392   1.311   6.678
    1   AR   Ar  160   3.788   2.988   5.126
    1   AR   Ar  161   3.737   3.608   0.407
    1   AR   Ar  162   3.794   4.675   0.662
    1   AR   Ar  163   4.532   3.903   0.952
    1   AR   Ar  164   4.943   4.774   0.313
    1   AR   Ar  165   3.560   3.450   1.947
    1   AR   Ar  166   3.518   4.577   2.762
    1   AR   Ar  167   4.037   2.984   2.997
    1   AR   Ar  168   4.236   4.370   1.930
    1   AR   Ar  169   3.023   3.371   3.260
    1   AR   Ar  170   3.552   4.746   4.236
    1   AR   Ar  171   3.636   3.696   4.528
    1   AR   Ar  172   4.418   4.200   3.911
    1   AR   Ar  173   2.800   3.504   5.325
    1   AR   Ar  174   4.197   5.000   6.290
    1   AR   Ar  175   4.122   3.884   6.088
    1   AR   Ar  176   4.323   4.894   5.248
    1   AR   Ar  177   4.061   5.753   0.128
    1   AR   Ar  178   3.561   6.325   1.568
    1   AR   Ar  179   4.373   5.505   1.113
    1   AR   Ar  180   4.416   6.679   0.041
    1   AR   Ar  181   3.807   5.389   2.167
    1   AR   Ar  182   3.040   5.910   2.618
    1   AR   Ar  183   4.411   5.267   3.091
    1   AR   Ar  184   4.345   6.301   2.364
    1   AR   Ar  185   3.325   5.351   3.431
    1   AR   Ar  186   3.405   6.137   4.225
    1   AR   Ar  187   4.342   5.315   4.178
    1   AR   Ar  188   4.012   6.408   3.414
    1   AR   Ar  189   3.411   5.596   5.112
    1   AR   Ar  190   3.446   5.935   6.489
    1   AR   Ar  191   4.337   5.897   5.688
    1   AR   Ar  192   4.075   6.973   5.628
    1   AR   Ar  193   5.228   0.396   0.406
    1   AR   Ar  194   4.929   0.980   1.516
    1   AR   Ar  195   6.018   0.527   1.008
    1   AR   Ar  196   5.346   1.424   0.733
    1   AR   Ar  197   5.425   0.158   1.810
    1   AR   Ar  198   5.418   0.820   2.692
    1   AR   Ar  199   6.310   0.507   2.264
    1   AR   Ar  200   5.808   1.449   1.620
    1   AR   Ar  201   5.140   0.230   4.031
    1   AR   Ar  202   4.839   1.229   4.638
    1   AR   Ar  203   6.554   7.084   4.669
    1   AR   Ar  204   6.079   0.508   3.457
    1   AR   Ar  205   5.198   7.108   5.253
    1   AR   Ar  206   5.205   0.510   6.213
    1   AR   Ar  207   6.138   6.956   5.731
    1   AR   Ar  208   5.904   0.768   5.095
    1   AR   Ar  209   6.270   2.420  -1.096
    1   AR   Ar  210   5.517   2.330   1.284
    1   AR   Ar  211   6.339   2.090   0.447
    1   AR   Ar  212   6.453   3.189   0.282
    1   AR   Ar  213   5.269   1.983   2.263
    1   AR   Ar  214   5.063   3.190   2.055
    1   AR   Ar  215   6.141   1.500   2.610
    1   AR   Ar  216   6.590   2.797   1.388
    1   AR   Ar  217   5.008   1.358   3.485
    1   AR   Ar  218   5.606   2.552   4.276
    1   AR   Ar  219   6.057   1.717   3.699
    1   AR   Ar  220   5.194   2.494   3.197
    1   AR   Ar  221   5.399   2.048   5.144
    1   AR   Ar  222   4.222   2.438   6.060
    1   AR   Ar  223   6.229   2.071   6.393
    1   AR   Ar  224   6.471   2.814   5.348
    1   AR   Ar  225   5.664   3.885   0.138
    1   AR   Ar  226   5.328   4.245   1.613
    1   AR   Ar  227   6.351   3.893   1.048
    1   AR   Ar  228   5.967   5.024   0.070
    1   AR   Ar  229   5.457   3.316   0.970
    1   AR   Ar  230   4.912   4.023   2.888
    1   AR   Ar  231   6.674   3.236   3.290
    1   AR   Ar  232   6.018   3.556   1.935
    1   AR   Ar  233   5.554   3.539   3.502
    1   AR   Ar  234   5.971   4.477   3.969
    1   AR   Ar  235   6.657   3.439   4.385
    1   AR   Ar  236   7.088   4.132   3.655
    1   AR   Ar  237   4.882   3.160   5.242
    1   AR   Ar  238   5.122   4.541   5.887
    1   AR   Ar  239   6.203   4.196   6.504
    1   AR   Ar  240   6.198   4.023   5.180
    1   AR   Ar  241   5.158   5.884   0.668
    1   AR   Ar  242   5.287   6.187   1.664
    1   AR   Ar  243   6.201   4.576   1.849
    1   AR   Ar  244   5.978   6.520   0.948
    1   AR   Ar  245   5.395   5.139   2.375
    1   AR   Ar  246   5.458   6.428   2.900
    1   AR   Ar  247   6.266   4.297   2.931
    1   AR   Ar  248   6.256   6.463   1.962
    1   AR   Ar  249   6.123   5.279   3.319
    1   AR   Ar  250   4.759   6.073   4.684
    1   AR   Ar  251   6.581   5.149   4.433
    1   AR   Ar  252   6.050   6.357   3.700
    1   AR   Ar  253   5.627   5.053   4.886
    1   AR   Ar  254   5.253   5.970   6.250
    1   AR   Ar  255   6.203   5.248   5.770
    1   AR   Ar  256   5.686   6.224   4.986
    7.12000  7.12000 12.00000
Argon-slab step 310
  256
    1   AR   Ar    1   0.315   0.220  -0.422
    1   AR   Ar    2   0.023   0.564   0.724
    1   AR   Ar    3   0.390   6.684   0.794
    1   AR   Ar    4   1.034   0.764   0.501
    1   AR   Ar    5   7.050   7.048   1.839
    1   AR   Ar    6   7.082   0.341   2.953
    1   AR   Ar    7   0.912   6.790   2.655
    1   AR   Ar    8   0.907   0.309   1.802
    1   AR   Ar    9   0.183   0.206   3.904
    1   AR   Ar   10   6.932   1.226   4.074
    1   AR   Ar   11   1.320   0.352   4.243
    1   AR   Ar   12   0.918   0.830   3.357
    1   AR   Ar   13   7.067   0.424   5.442
    1   AR   Ar   14   0.313   1.475   5.902
    1   AR   Ar   15   1.712   7.045   7.286
    1   AR   Ar   16   0.988   0.686   5.519
    1   AR   Ar   17   0.417   1.582   0.017
    1   AR   Ar   18   0.405   2.659   0.208
    1   AR   Ar   19   0.892   1.665   1.237
    1   AR   Ar   20   0.834   2.405  -0.909
    1   AR   Ar   21   0.081   1.048   1.958
    1   AR   Ar   22   6.674   2.498   2.507
    1   AR   Ar   23   0.537   1.858   2.739
    1   AR   Ar   24   0.635   2.775   1.895
    1   AR   Ar   25   0.746   1.780   3.773
    1   AR   Ar   26   6.880   2.402   4.257
    1   AR   Ar   27   0.597   1.902   4.863
    1   AR   Ar   28   1.459   2.514   3.951
    1   AR   Ar   29   6.655   1.789   5.187
    1   AR   Ar   30   0.317   2.578   6.356
    1   AR   Ar   31   1.004   1.379   6.966
    1   AR   Ar   32   1.383   2.925   5.276
    1   AR   Ar   33   0.374   3.628  -0.085
    1   AR   Ar   34   0.146   4.490   1.542
    1   AR   Ar   35   0.598   3.475   1.140
    1   AR   Ar   36   1.017   4.471  -0.135
    1   AR   Ar   37   7.107   3.628   2.074
    1   AR   Ar   38   0.545   4.662   2.748
    1   AR   Ar   39   0.825   3.524   2.763
    1   AR   Ar   40   1.079   4.350   1.945
    1   AR   Ar   41   0.549   2.830   3.689
    1   AR   Ar   42   0.236   4.231   4.907
    1   AR   Ar   43   0.556   3.203   4.743
    1   AR   Ar   44   0.898   3.930   3.986
    1   AR   Ar   45   6.997   3.720   5.845
    1   AR   Ar   46   0.125   5.279   6.491
    1   AR   Ar   47   0.995   3.477   6.199
    1   AR   Ar   48   0.887   4.675   5.772
    1   AR   Ar   49   6.996   4.376   0.374
    1   AR   Ar   50   7.004   5.454   0.851
    1   AR   Ar   51   1.148   4.742   0.962
    1   AR   Ar   52   0.817   5.467   0.368
    1   AR   Ar   53   6.817   5.259   2.387
    1   AR   Ar   54   6.831   6.372   2.740
    1   AR   Ar   55   0.718   5.698   2.671
    1   AR   Ar   56   0.659   5.469   1.657
    1   AR   Ar   57   0.663   5.016   4.227
    1   AR   Ar   58   7.071   6.060   4.433
    1   AR   Ar   59   0.924   5.455   5.085
    1   AR   Ar   60   1.046   6.348   4.015
    1   AR   Ar   61   6.780   6.034   5.508
    1   AR   Ar   62   0.473   6.194   6.191
    1   AR   Ar   63   1.818   5.165   5.791
    1   AR   Ar   64   0.813   6.698   5.262
    1   AR   Ar   65   1.043   6.706   0.083
    1   AR   Ar   66   1.679   0.944   1.296
    1   AR   Ar   67   2.440   6.253   0.501
    1   AR   Ar   68   2.848   1.086   0.898
    1   AR   Ar   69   1.998   7.089   0.925
    1   AR   Ar   70   1.500   0.791   2.523
    1   AR   Ar   71   2.374   7.031   2.462
    1   AR   Ar   72   2.939   0.348   1.674
    1   AR   Ar   73   1.715   6.982   3.432
    1   AR   Ar   74   1.619   1.315   4.323
    1   AR   Ar   75   2.494   0.230   4.341
    1   AR   Ar   76   2.325   0.958   3.406
    1   AR   Ar   77   1.867   6.972   5.195
    1   AR   Ar   78   2.196   0.901   6.029
    1   AR   Ar   79   2.580   6.879   6.506
    1   AR   Ar   80   2.466   1.169   5.018
    1   AR   Ar   81   1.712   1.748   0.224
    1   AR   Ar   82   1.580   2.687   0.472
    1   AR   Ar   83   2.788   2.060   1.539
    1   AR   Ar   84   2.214   2.796  -0.294
    1   AR   Ar   85   1.643   2.142   1.909
    1   AR   Ar   86   1.617   2.892   2.514
    1   AR   Ar   87   2.640   1.375   2.258
    1   AR   Ar   88   2.592   2.987   2.176
    1   AR   Ar   89   1.540   1.914   3.052
    1   AR   Ar   90   2.086   3.181   4.583
    1   AR   Ar   91   2.494   1.976   4.221
    1   AR   Ar   92   2.445   2.502   3.289
    1   AR   Ar   93   1.622   1.785   5.455
    1   AR   Ar   94   1.974   3.015   6.102
    1   AR   Ar   95   2.688   1.827   6.134
    1   AR   Ar   96   2.623   2.442   5.257
    1   AR   Ar   97   1.622   3.770   0.450
    1   AR   Ar   98   2.152   4.392   1.387
    1   AR   Ar   99   2.455   3.414   0.876
    1   AR   Ar  100   2.812   4.490   0.375
    1   AR   Ar  101   1.580   3.221   1.487
    1   AR   Ar  102   1.572   4.603   2.981
    1   AR   Ar  103   2.075   4.012   2.348
    1   AR   Ar  104   3.205   4.206   1.360
    1   AR   Ar  105   1.840   3.407   3.509
    1   AR   Ar  106   1.828   4.365   3.967
    1   AR   Ar  107   2.722   4.133   4.507
    1   AR   Ar  108   2.670   4.312   3.361
    1   AR   Ar  109   1.281   3.963   5.012
    1   AR   Ar  110   1.959   4.067   5.884
    1   AR   Ar  111   3.260   4.401   6.584
    1   AR   Ar  112   2.914   4.926   5.701
    1   AR   Ar  113   2.086   5.340   0.693
    1   AR   Ar  114   1.320   6.181   1.269
    1   AR   Ar  115   3.275   5.545   0.906
    1   AR   Ar  116   3.073   0.217  -0.412
    1   AR   Ar  117   1.631   5.152   2.050
    1   AR   Ar  118   1.838   5.836   2.799
    1   AR   Ar  119   2.644   4.963   2.318
    1   AR   Ar  120   2.415   6.135   1.634
    1   AR   Ar  121   1.577   5.408   3.731
    1   AR   Ar  122   2.009   6.080   4.631
    1   AR   Ar  123   2.585   5.122   4.248
    1   AR   Ar  124   2.565   6.047   3.626
    1   AR   Ar  125   1.891   4.813   4.857
    1   AR   Ar  126   1.405   6.890   6.318
    1   AR   Ar  127   2.436   5.175   6.645
    1   AR   Ar  128   2.351   6.083   5.738
    1   AR   Ar  129   3.200   7.020   0.760
    1   AR   Ar  130   4.028   0.793   0.827
    1   AR   Ar  131   4.519   6.784   1.160
    1   AR   Ar  132   4.453   1.510  -0.600
    1   AR   Ar  133   3.549   6.927   2.394
    1   AR   Ar  134   3.535   0.994   2.768
    1   AR   Ar  135   4.343   0.304   2.865
    1   AR   Ar  136   3.985   0.719   1.801
    1   AR   Ar  137   3.084   0.067   3.343
    1   AR   Ar  138   3.432   0.505   4.746
    1   AR   Ar  139   4.173   6.976   4.362
    1   AR   Ar  140   3.937   0.896   3.727
    1   AR   Ar  141   2.861   7.054   5.497
    1   AR   Ar  142   3.273   0.824   5.785
    1   AR   Ar  143   4.025   0.162   6.660
    1   AR   Ar  144   4.303   1.064   5.463
    1   AR   Ar  145   3.461   1.823   0.117
    1   AR   Ar  146   3.549   2.511   1.004
    1   AR   Ar  147   4.495   1.925   0.904
    1   AR   Ar  148   5.298   2.322  -0.350
    1   AR   Ar  149   3.688   1.641   1.877
    1   AR   Ar  150   3.221   2.176   2.707
    1   AR   Ar  151   4.190   1.969   2.813
    1   AR   Ar  152   4.287   2.408   1.916
    1   AR   Ar  153   3.341   1.819   3.705
    1   AR   Ar  154   3.219   2.803   4.223
    1   AR   Ar  155   4.118   1.839   4.316
    1   AR   Ar  156   4.620   3.147   4.166
    1   AR   Ar  157   3.480   1.950   5.353
    1   AR   Ar  158   3.303   3.067   6.157
    1   AR   Ar  159   4.377   1.294   6.686
    1   AR   Ar  160   3.787   2.993   5.138
    1   AR   Ar  161   3.743   3.615   0.399
    1   AR   Ar  162   3.822   4.689   0.655
    1   AR   Ar  163   4.564   3.897   0.959
    1   AR   Ar  164   4.937   4.767   0.304
    1   AR   Ar  165   3.585   3.460   1.962
    1   AR   Ar  166   3.493   4.571   2.765
    1   AR   Ar  167   4.053   2.970   2.994
    1   AR   Ar  168   4.165   4.344   1.958
    1   AR   Ar  169   3.010   3.367   3.272
    1   AR   Ar  170   3.561   4.741   4.234
    1   AR   Ar  171   3.635   3.704   4.543
    1   AR   Ar  172   4.410   4.208   3.918
    1   AR   Ar  173   2.820   3.517   5.329
    1   AR   Ar  174   4.228   5.007   6.315
    1   AR   Ar  175   4.121   3.891   6.065
    1   AR   Ar  176   4.344   4.914   5.212
    1   AR   Ar  177   4.085   5.758   0.137
    1   AR   Ar  178   3.562   6.346   1.556
    1   AR   Ar  179   4.368   5.508   1.098
    1   AR   Ar  180   4.381   6.675   0.052
    1   AR   Ar  181   3.806   5.399   2.154
    1   AR   Ar  182   3.016   5.878   2.635
    1   AR   Ar  183   4.391   5.250   3.102
    1   AR   Ar  184   4.381   6.324   2.357
    1   AR   Ar  185   3.307   5.347   3.442
    1   AR   Ar  186   3.393   6.135   4.238
    1   AR   Ar  187   4.358   5.309   4.177
    1   AR   Ar  188   4.028   6.441   3.378
    1   AR   Ar  189   3.417   5.585   5.110
    1   AR   Ar  190   3.435   5.921   6.524
    1   AR   Ar  191   4.319   5.896   5.662
    1   AR   Ar  192   4.048   6.981   5.571
    1   AR   Ar  193   5.228   0.370   0.389
    1   AR   Ar  194   4.914   0.976   1.553
    1   AR   Ar  195   6.032   0.527   0.995
    1   AR   Ar  196   5.353   1.409   0.733
    1   AR   Ar  197   5.459   0.154   1.798
    1   AR   Ar  198   5.413   0.842   2.663
    1   AR   Ar  199   6.303   0.522   2.246
    1   AR   Ar  200   5.840   1.449   1.605
    1   AR   Ar  201   5.111   0.228   4.033
    1   AR   Ar  202   4.838   1.231   4.649
    1   AR   Ar  203   6.568   7.059   4.689
    1   AR   Ar  204   6.083   0.490   3.457
    1   AR   Ar  205   5.183   7.100   5.231
    1   AR   Ar  206   5.195   0.484   6.193
    1   AR   Ar  207   6.155   6.994   5.724
    1   AR   Ar  208   5.900   0.743   5.080
    1   AR   Ar  209   6.259   2.408  -1.093
    1   AR   Ar  210   5.516   2.343   1.279
    1   AR   Ar  211   6.331   2.119   0.454
    1   AR   Ar  212   6.434   3.177   0.288
    1   AR   Ar  213   5.236   1.984   2.260
    1   AR   Ar  214   5.051   3.173   2.028
    1   AR   Ar  215   6.148   1.525   2.603
    1   AR   Ar  216   6.590   2.757   1.432
    1   AR   Ar  217   4.997   1.328   3.474
    1   AR   Ar  218   5.543   2.568   4.231
    1   AR   Ar  219   6.056   1.714   3.721
    1   AR   Ar  220   5.178   2.457   3.178
    1   AR   Ar  221   5.389   2.028   5.136
    1   AR   Ar  222   4.215   2.427   6.052
    1   AR   Ar  223   6.218   2.074   6.412
    1   AR   Ar  224   6.501   2.804   5.346
    1   AR   Ar  225   5.660   3.908   0.150
    1   AR   Ar  226   5.337   4.270   1.620
    1   AR   Ar  227   6.379   3.902   1.059
    1   AR   Ar  228   5.986   5.042   0.065
    1   AR   Ar  229   5.449   3.312   0.960
    1   AR   Ar  230   4.932   4.048   2.904
    1   AR   Ar  231   6.687   3.236   3.302
    1   AR   Ar  232   6.028   3.557   1.932
    1   AR   Ar  233   5.570   3.528   3.514
    1   AR   Ar  234   5.967   4.468   3.970
    1   AR   Ar  235   6.656   3.458   4.355
    1   AR   Ar  236   7.110   4.112   3.643
    1   AR   Ar  237   4.882   3.155   5.243
    1   AR   Ar  238   5.164   4.576   5.871
    1   AR   Ar  239   6.212   4.191   6.561
    1   AR   Ar  240   6.213   4.010   5.178
    1   AR   Ar  241   5.204   5.881   0.630
    1   AR   Ar  242   5.282   6.174   1.666
    1   AR   Ar  243   6.220   4.548   1.876
    1   AR   Ar  244   5.991   6.521   0.954
    1   AR   Ar  245   5.434   5.131   2.386
    1   AR   Ar  246   5.465   6.450   2.915
    1   AR   Ar  247   6.263   4.281   2.976
    1   AR   Ar  248   6.219   6.489   1.962
    1   AR   Ar  249   6.134   5.272   3.285
    1   AR   Ar  250   4.754   6.097   4.679
    1   AR   Ar  251   6.602   5.128   4.455
    1   AR   Ar  252   6.029   6.367   3.696
    1   AR   Ar  253   5.624   5.045   4.895
    1   AR   Ar  254   5.261   5.959   6.261
    1   AR   Ar  255   6.215   5.274   5.789
    1   AR   Ar  256   5.696   6.198   5.011
    7.12000  7.12000 12.00000
Argon-slab step 315
  256
    1   AR   Ar    1   0.314   0.249  -0.417
    1   AR   Ar    2   0.023   0.570   0.728
    1   AR   Ar    3   0.373   6.664   0.794
    1   AR   Ar    4   1.037   0.737   0.542
    1   AR   Ar    5   7.071   7.040   1.862
    1   AR   Ar    6   7.094   0.313   2.975
    1   AR   Ar    7   0.884   6.771   2.663
    1   AR   Ar    8   0.911   0.285   1.769
    1   AR   Ar    9   0.179   0.183   3.904
    1   AR   Ar   10   6.912   1.276   4.085
    1   AR   Ar   11   1.335   0.347   4.235
    1   AR   Ar   12   0.896   0.844   3.354
    1   AR   Ar   13   7.082   0.442   5.458
    1   AR   Ar   14   0.299   1.472   5.921
    1   AR   Ar   15   1.727   7.037   7.296
    1   AR   Ar   16   0.988   0.721   5.505
    1   AR   Ar   17   0.387   1.553   0.050
    1   AR   Ar   18   0.397   2.634   0.206
    1   AR   Ar   19   0.863   1.631   1.257
    1   AR   Ar   20   0.809   2.406  -0.915
    1   AR   Ar   21   0.125   1.033   1.938
    1   AR   Ar   22   6.669   2.548   2.523
    1   AR   Ar   23   0.530   1.841   2.772
    1   AR   Ar   24   0.609   2.764   1.875
    1   AR   Ar   25   0.766   1.762   3.754
    1   AR   Ar   26   6.883   2.382   4.235
    1   AR   Ar   27   0.564   1.910   4.867
    1   AR   Ar   28   1.468   2.529   3.957
    1   AR   Ar   29   6.613   1.800   5.154
    1   AR   Ar   30   0.295   2.575   6.369
    1   AR   Ar   31   1.010   1.358   7.004
    1   AR   Ar   32   1.384   2.937   5.221
    1   AR   Ar   33   0.379   3.627  -0.094
    1   AR   Ar   34   0.153   4.489   1.519
    1   AR   Ar   35   0.592   3.504   1.121
    1   AR   Ar   36   1.055   4.484  -0.163
    1   AR   Ar   37   7.058   3.628   2.106
    1   AR   Ar   38   0.532   4.643   2.744
    1   AR   Ar   39   0.857   3.532   2.749
    1   AR   Ar   40   1.069   4.362   1.919
    1   AR   Ar   41   0.547   2.832   3.671
    1   AR   Ar   42   0.247   4.218   4.924
    1   AR   Ar   43   0.533   3.187   4.756
    1   AR   Ar   44   0.872   3.902   3.989
    1   AR   Ar   45   6.993   3.718   5.843
    1   AR   Ar   46   0.112   5.301   6.487
    1   AR   Ar   47   0.997   3.448   6.224
    1   AR   Ar   48   0.909   4.689   5.759
    1   AR   Ar   49   6.977   4.364   0.374
    1   AR   Ar   50   7.031   5.463   0.853
    1   AR   Ar   51   1.161   4.730   0.949
    1   AR   Ar   52   0.793   5.480   0.357
    1   AR   Ar   53   6.805   5.251   2.358
    1   AR   Ar   54   6.808   6.369   2.753
    1   AR   Ar   55   0.735   5.713   2.713
    1   AR   Ar   56   0.677   5.454   1.587
    1   AR   Ar   57   0.706   5.021   4.236
    1   AR   Ar   58   7.088   6.057   4.426
    1   AR   Ar   59   0.924   5.501   5.072
    1   AR   Ar   60   1.024   6.349   3.985
    1   AR   Ar   61   6.767   6.074   5.527
    1   AR   Ar   62   0.505   6.187   6.166
    1   AR   Ar   63   1.817   5.184   5.762
    1   AR   Ar   64   0.798   6.690   5.245
    1   AR   Ar   65   1.038   6.706   0.093
    1   AR   Ar   66   1.685   0.945   1.318
    1   AR   Ar   67   2.477   6.255   0.501
    1   AR   Ar   68   2.868   1.110   0.927
    1   AR   Ar   69   2.013   7.115   0.918
    1   AR   Ar   70   1.484   0.785   2.513
    1   AR   Ar   71   2.398   7.031   2.439
    1   AR   Ar   72   2.985   0.361   1.643
    1   AR   Ar   73   1.678   6.969   3.424
    1   AR   Ar   74   1.600   1.319   4.316
    1   AR   Ar   75   2.493   0.268   4.359
    1   AR   Ar   76   2.299   0.948   3.408
    1   AR   Ar   77   1.866   6.982   5.193
    1   AR   Ar   78   2.197   0.919   6.031
    1   AR   Ar   79   2.556   6.863   6.512
    1   AR   Ar   80   2.472   1.163   4.965
    1   AR   Ar   81   1.710   1.719   0.248
    1   AR   Ar   82   1.589   2.694   0.512
    1   AR   Ar   83   2.778   2.045   1.547
    1   AR   Ar   84   2.207   2.805  -0.317
    1   AR   Ar   85   1.656   2.144   1.891
    1   AR   Ar   86   1.581   2.915   2.548
    1   AR   Ar   87   2.635   1.382   2.234
    1   AR   Ar   88   2.610   2.972   2.205
    1   AR   Ar   89   1.510   1.948   3.036
    1   AR   Ar   90   2.083   3.186   4.571
    1   AR   Ar   91   2.498   2.026   4.245
    1   AR   Ar   92   2.419   2.492   3.326
    1   AR   Ar   93   1.630   1.758   5.480
    1   AR   Ar   94   1.998   3.021   6.150
    1   AR   Ar   95   2.684   1.835   6.136
    1   AR   Ar   96   2.595   2.428   5.252
    1   AR   Ar   97   1.634   3.805   0.434
    1   AR   Ar   98   2.134   4.407   1.418
    1   AR   Ar   99   2.477   3.402   0.840
    1   AR   Ar  100   2.815   4.500   0.325
    1   AR   Ar  101   1.541   3.208   1.496
    1   AR   Ar  102   1.569   4.603   2.999
    1   AR   Ar  103   2.054   4.015   2.331
    1   AR   Ar  104   3.230   4.175   1.375
    1   AR   Ar  105   1.845   3.429   3.505
    1   AR   Ar  106   1.813   4.347   3.993
    1   AR   Ar  107   2.725   4.129   4.521
    1   AR   Ar  108   2.705   4.309   3.387
    1   AR   Ar  109   1.267   3.975   4.990
    1   AR   Ar  110   1.954   4.012   5.870
    1   AR   Ar  111   3.261   4.401   6.593
    1   AR   Ar  112   2.927   4.918   5.692
    1   AR   Ar  113   2.086   5.354   0.713
    1   AR   Ar  114   1.262   6.204   1.236
    1   AR   Ar  115   3.325   5.542   0.886
    1   AR   Ar  116   3.076   0.248  -0.423
    1   AR   Ar  117   1.636   5.143   2.050
    1   AR   Ar  118   1.831   5.830   2.807
    1   AR   Ar  119   2.629   4.968   2.295
    1   AR   Ar  120   2.403   6.131   1.645
    1   AR   Ar  121   1.601   5.451   3.740
    1   AR   Ar  122   2.021   6.042   4.639
    1   AR   Ar  123   2.594   5.116   4.233
    1   AR   Ar  124   2.561   6.018   3.603
    1   AR   Ar  125   1.888   4.825   4.866
    1   AR   Ar  126   1.417   6.901   6.306
    1   AR   Ar  127   2.449   5.154   6.631
    1   AR   Ar  128   2.344   6.106   5.747
    1   AR   Ar  129   3.198   7.016   0.792
    1   AR   Ar  130   4.049   0.822   0.805
    1   AR   Ar  131   4.538   6.775   1.157
    1   AR   Ar  132   4.443   1.520  -0.607
    1   AR   Ar  133   3.516   6.927   2.399
    1   AR   Ar  134   3.526   1.001   2.795
    1   AR   Ar  135   4.365   0.307   2.838
    1   AR   Ar  136   3.958   0.718   1.799
    1   AR   Ar  137   3.101   0.077   3.356
    1   AR   Ar  138   3.434   0.496   4.749
    1   AR   Ar  139   4.152   6.961   4.343
    1   AR   Ar  140   3.941   0.845   3.703
    1   AR   Ar  141   2.862   7.059   5.497
    1   AR   Ar  142   3.286   0.822   5.756
    1   AR   Ar  143   4.035   0.167   6.695
    1   AR   Ar  144   4.278   1.072   5.489
    1   AR   Ar  145   3.447   1.848   0.134
    1   AR   Ar  146   3.556   2.537   1.011
    1   AR   Ar  147   4.478   1.920   0.873
    1   AR   Ar  148   5.308   2.283  -0.385
    1   AR   Ar  149   3.669   1.625   1.892
    1   AR   Ar  150   3.200   2.195   2.734
    1   AR   Ar  151   4.222   1.924   2.809
    1   AR   Ar  152   4.262   2.438   1.911
    1   AR   Ar  153   3.378   1.819   3.700
    1   AR   Ar  154   3.222   2.819   4.201
    1   AR   Ar  155   4.107   1.850   4.304
    1   AR   Ar  156   4.623   3.148   4.204
    1   AR   Ar  157   3.493   1.950   5.379
    1   AR   Ar  158   3.287   3.014   6.160
    1   AR   Ar  159   4.362   1.277   6.691
    1   AR   Ar  160   3.791   2.977   5.167
    1   AR   Ar  161   3.744   3.620   0.390
    1   AR   Ar  162   3.856   4.702   0.646
    1   AR   Ar  163   4.596   3.893   0.969
    1   AR   Ar  164   4.946   4.805   0.312
    1   AR   Ar  165   3.610   3.461   1.981
    1   AR   Ar  166   3.474   4.561   2.767
    1   AR   Ar  167   4.069   2.961   2.992
    1   AR   Ar  168   4.098   4.322   1.983
    1   AR   Ar  169   2.987   3.356   3.283
    1   AR   Ar  170   3.562   4.728   4.238
    1   AR   Ar  171   3.638   3.731   4.543
    1   AR   Ar  172   4.406   4.215   3.923
    1   AR   Ar  173   2.840   3.529   5.335
    1   AR   Ar  174   4.256   5.015   6.341
    1   AR   Ar  175   4.121   3.899   6.039
    1   AR   Ar  176   4.364   4.931   5.175
    1   AR   Ar  177   4.103   5.748   0.144
    1   AR   Ar  178   3.564   6.363   1.541
    1   AR   Ar  179   4.362   5.510   1.093
    1   AR   Ar  180   4.351   6.688   0.062
    1   AR   Ar  181   3.807   5.409   2.136
    1   AR   Ar  182   2.985   5.883   2.655
    1   AR   Ar  183   4.371   5.232   3.110
    1   AR   Ar  184   4.422   6.384   2.374
    1   AR   Ar  185   3.293   5.340   3.456
    1   AR   Ar  186   3.384   6.135   4.250
    1   AR   Ar  187   4.379   5.307   4.173
    1   AR   Ar  188   4.042   6.473   3.341
    1   AR   Ar  189   3.426   5.575   5.106
    1   AR   Ar  190   3.425   5.907   6.558
    1   AR   Ar  191   4.301   5.896   5.636
    1   AR   Ar  192   4.021   6.990   5.513
    1   AR   Ar  193   5.220   0.339   0.367
    1   AR   Ar  194   4.904   0.979   1.582
    1   AR   Ar  195   6.053   0.529   0.986
    1   AR   Ar  196   5.365   1.393   0.719
    1   AR   Ar  197   5.488   0.141   1.787
    1   AR   Ar  198   5.403   0.861   2.661
    1   AR   Ar  199   6.298   0.538   2.228
    1   AR   Ar  200   5.885   1.439   1.596
    1   AR   Ar  201   5.104   0.263   3.971
    1   AR   Ar  202   4.843   1.214   4.664
    1   AR   Ar  203   6.577   7.029   4.705
    1   AR   Ar  204   6.088   0.473   3.459
    1   AR   Ar  205   5.162   7.091   5.207
    1   AR   Ar  206   5.186   0.451   6.171
    1   AR   Ar  207   6.171   7.030   5.717
    1   AR   Ar  208   5.897   0.721   5.064
    1   AR   Ar  209   6.248   2.396  -1.089
    1   AR   Ar  210   5.509   2.353   1.282
    1   AR   Ar  211   6.321   2.147   0.462
    1   AR   Ar  212   6.418   3.163   0.293
    1   AR   Ar  213   5.220   1.991   2.232
    1   AR   Ar  214   5.038   3.157   2.002
    1   AR   Ar  215   6.163   1.555   2.600
    1   AR   Ar  216   6.590   2.719   1.473
    1   AR   Ar  217   4.983   1.301   3.467
    1   AR   Ar  218   5.483   2.586   4.184
    1   AR   Ar  219   6.052   1.712   3.742
    1   AR   Ar  220   5.161   2.423   3.163
    1   AR   Ar  221   5.380   2.008   5.131
    1   AR   Ar  222   4.208   2.417   6.043
    1   AR   Ar  223   6.226   2.081   6.423
    1   AR   Ar  224   6.530   2.799   5.343
    1   AR   Ar  225   5.656   3.936   0.159
    1   AR   Ar  226   5.327   4.291   1.623
    1   AR   Ar  227   6.396   3.894   1.069
    1   AR   Ar  228   6.006   5.060   0.061
    1   AR   Ar  229   5.442   3.308   0.955
    1   AR   Ar  230   4.929   4.047   2.879
    1   AR   Ar  231   6.697   3.232   3.312
    1   AR   Ar  232   6.038   3.545   1.940
    1   AR   Ar  233   5.590   3.514   3.529
    1   AR   Ar  234   5.964   4.452   3.967
    1   AR   Ar  235   6.654   3.477   4.328
    1   AR   Ar  236   0.006   4.100   3.628
    1   AR   Ar  237   4.893   3.140   5.243
    1   AR   Ar  238   5.206   4.611   5.854
    1   AR   Ar  239   6.221   4.188   6.615
    1   AR   Ar  240   6.226   3.999   5.174
    1   AR   Ar  241   5.252   5.879   0.586
    1   AR   Ar  242   5.275   6.163   1.671
    1   AR   Ar  243   6.256   4.532   1.908
    1   AR   Ar  244   6.005   6.525   0.955
    1   AR   Ar  245   5.472   5.123   2.397
    1   AR   Ar  246   5.462   6.474   2.914
    1   AR   Ar  247   6.261   4.261   3.015
    1   AR   Ar  248   6.175   6.513   1.962
    1   AR   Ar  249   6.145   5.272   3.250
    1   AR   Ar  250   4.744   6.126   4.674
    1   AR   Ar  251   6.615   5.118   4.475
    1   AR   Ar  252   6.019   6.375   3.705
    1   AR   Ar  253   5.618   5.038   4.905
    1   AR   Ar  254   5.262   5.951   6.268
    1   AR   Ar  255   6.221   5.290   5.811
    1   AR   Ar  256   5.718   6.171   5.039
    7.12000  7.12000 12.00000
Argon-slab step 320
  256
    1   AR   Ar    1   0.313   0.279  -0.409
    1   AR   Ar    2   0.021   0.578   0.734
    1   AR   Ar    3   0.344   6.643   0.808
    1   AR   Ar    4   1.041   0.709   0.580
    1   AR   Ar    5   7.099   7.035   1.889
    1   AR   Ar    6   7.103   0.288   2.977
    1   AR   Ar    7   0.856   6.754   2.672
    1   AR   Ar    8   0.918   0.262   1.731
    1   AR   Ar    9   0.180   0.156   3.923
    1   AR   Ar   10   6.899   1.323   4.098
    1   AR   Ar   11   1.345   0.337   4.233
    1   AR   Ar   12   0.891   0.846   3.346
    1   AR   Ar   13   7.105   0.443   5.452
    1   AR   Ar   14   0.285   1.471   5.939
    1   AR   Ar   15   1.742   7.030   7.309
    1   AR   Ar   16   0.993   0.756   5.490
    1   AR   Ar   17   0.357   1.523   0.084
    1   AR   Ar   18   0.390   2.606   0.207
    1   AR   Ar   19   0.833   1.598   1.276
    1   AR   Ar   20   0.785   2.409  -0.916
    1   AR   Ar   21   0.168   1.018   1.919
    1   AR   Ar   22   6.665   2.596   2.539
    1   AR   Ar   23   0.516   1.825   2.795
    1   AR   Ar   24   0.583   2.748   1.858
    1   AR   Ar   25   0.782   1.748   3.746
    1   AR   Ar   26   6.884   2.363   4.213
    1   AR   Ar   27   0.533   1.919   4.871
    1   AR   Ar   28   1.473   2.546   3.981
    1   AR   Ar   29   6.571   1.803   5.120
    1   AR   Ar   30   0.273   2.571   6.379
    1   AR   Ar   31   1.015   1.337   7.041
    1   AR   Ar   32   1.385   2.940   5.177
    1   AR   Ar   33   0.386   3.624  -0.106
    1   AR   Ar   34   0.179   4.485   1.494
    1   AR   Ar   35   0.583   3.537   1.098
    1   AR   Ar   36   1.091   4.499  -0.191
    1   AR   Ar   37   7.014   3.628   2.141
    1   AR   Ar   38   0.513   4.624   2.744
    1   AR   Ar   39   0.877   3.548   2.731
    1   AR   Ar   40   1.061   4.357   1.894
    1   AR   Ar   41   0.541   2.839   3.649
    1   AR   Ar   42   0.253   4.208   4.940
    1   AR   Ar   43   0.501   3.169   4.764
    1   AR   Ar   44   0.859   3.868   3.997
    1   AR   Ar   45   6.992   3.714   5.843
    1   AR   Ar   46   0.096   5.317   6.483
    1   AR   Ar   47   0.997   3.421   6.246
    1   AR   Ar   48   0.943   4.705   5.741
    1   AR   Ar   49   6.961   4.370   0.397
    1   AR   Ar   50   7.049   5.470   0.858
    1   AR   Ar   51   1.179   4.706   0.943
    1   AR   Ar   52   0.775   5.498   0.340
    1   AR   Ar   53   6.799   5.250   2.333
    1   AR   Ar   54   6.789   6.365   2.770
    1   AR   Ar   55   0.752   5.726   2.755
    1   AR   Ar   56   0.691   5.436   1.523
    1   AR   Ar   57   0.745   5.019   4.236
    1   AR   Ar   58   7.107   6.058   4.420
    1   AR   Ar   59   0.928   5.555   5.066
    1   AR   Ar   60   0.999   6.351   3.957
    1   AR   Ar   61   6.758   6.122   5.541
    1   AR   Ar   62   0.542   6.186   6.139
    1   AR   Ar   63   1.817   5.208   5.746
    1   AR   Ar   64   0.783   6.682   5.226
    1   AR   Ar   65   1.046   6.706   0.093
    1   AR   Ar   66   1.709   0.986   1.350
    1   AR   Ar   67   2.518   6.262   0.499
    1   AR   Ar   68   2.889   1.136   0.954
    1   AR   Ar   69   2.027   0.022   0.911
    1   AR   Ar   70   1.474   0.781   2.500
    1   AR   Ar   71   2.420   7.030   2.419
    1   AR   Ar   72   3.024   0.377   1.622
    1   AR   Ar   73   1.691   6.968   3.411
    1   AR   Ar   74   1.584   1.331   4.309
    1   AR   Ar   75   2.488   0.303   4.374
    1   AR   Ar   76   2.273   0.939   3.411
    1   AR   Ar   77   1.861   6.995   5.191
    1   AR   Ar   78   2.195   0.931   6.031
    1   AR   Ar   79   2.511   6.816   6.520
    1   AR   Ar   80   2.479   1.159   4.915
    1   AR   Ar   81   1.708   1.683   0.273
    1   AR   Ar   82   1.592   2.707   0.558
    1   AR   Ar   83   2.765   2.043   1.544
    1   AR   Ar   84   2.203   2.814  -0.342
    1   AR   Ar   85   1.664   2.144   1.847
    1   AR   Ar   86   1.556   2.935   2.584
    1   AR   Ar   87   2.625   1.376   2.222
    1   AR   Ar   88   2.627   2.958   2.234
    1   AR   Ar   89   1.477   1.968   3.026
    1   AR   Ar   90   2.090   3.197   4.551
    1   AR   Ar   91   2.497   2.072   4.273
    1   AR   Ar   92   2.387   2.482   3.361
    1   AR   Ar   93   1.637   1.731   5.504
    1   AR   Ar   94   2.026   3.021   6.197
    1   AR   Ar   95   2.682   1.845   6.139
    1   AR   Ar   96   2.562   2.419   5.245
    1   AR   Ar   97   1.633   3.845   0.397
    1   AR   Ar   98   2.117   4.425   1.438
    1   AR   Ar   99   2.505   3.387   0.809
    1   AR   Ar  100   2.816   4.512   0.266
    1   AR   Ar  101   1.505   3.198   1.505
    1   AR   Ar  102   1.565   4.606   3.020
    1   AR   Ar  103   2.036   4.008   2.320
    1   AR   Ar  104   3.260   4.123   1.356
    1   AR   Ar  105   1.850   3.451   3.497
    1   AR   Ar  106   1.789   4.316   4.024
    1   AR   Ar  107   2.730   4.126   4.548
    1   AR   Ar  108   2.733   4.314   3.417
    1   AR   Ar  109   1.257   3.986   4.969
    1   AR   Ar  110   1.948   3.965   5.852
    1   AR   Ar  111   3.262   4.401   6.601
    1   AR   Ar  112   2.936   4.905   5.684
    1   AR   Ar  113   2.083   5.360   0.738
    1   AR   Ar  114   1.253   6.211   1.229
    1   AR   Ar  115   3.367   5.543   0.868
    1   AR   Ar  116   3.080   0.278  -0.432
    1   AR   Ar  117   1.644   5.145   2.047
    1   AR   Ar  118   1.827   5.829   2.813
    1   AR   Ar  119   2.616   4.971   2.272
    1   AR   Ar  120   2.392   6.127   1.655
    1   AR   Ar  121   1.625   5.491   3.755
    1   AR   Ar  122   2.033   6.003   4.645
    1   AR   Ar  123   2.605   5.120   4.213
    1   AR   Ar  124   2.548   5.998   3.584
    1   AR   Ar  125   1.879   4.835   4.874
    1   AR   Ar  126   1.428   6.912   6.288
    1   AR   Ar  127   2.463   5.134   6.619
    1   AR   Ar  128   2.338   6.129   5.755
    1   AR   Ar  129   3.198   7.009   0.813
    1   AR   Ar  130   4.072   0.852   0.776
    1   AR   Ar  131   4.550   6.785   1.179
    1   AR   Ar  132   4.439   1.549  -0.608
    1   AR   Ar  133   3.481   6.930   2.407
    1   AR   Ar  134   3.509   1.016   2.811
    1   AR   Ar  135   4.391   0.310   2.811
    1   AR   Ar  136   3.931   0.695   1.807
    1   AR   Ar  137   3.116   0.086   3.372
    1   AR   Ar  138   3.436   0.489   4.743
    1   AR   Ar  139   4.132   6.947   4.323
    1   AR   Ar  140   3.948   0.793   3.687
    1   AR   Ar  141   2.865   7.057   5.495
    1   AR   Ar  142   3.298   0.827   5.731
    1   AR   Ar  143   4.045   0.172   6.728
    1   AR   Ar  144   4.251   1.080   5.522
    1   AR   Ar  145   3.434   1.871   0.153
    1   AR   Ar  146   3.564   2.566   1.018
    1   AR   Ar  147   4.457   1.917   0.845
    1   AR   Ar  148   5.319   2.243  -0.419
    1   AR   Ar  149   3.675   1.627   1.905
    1   AR   Ar  150   3.182   2.215   2.754
    1   AR   Ar  151   4.257   1.872   2.811
    1   AR   Ar  152   4.241   2.448   1.913
    1   AR   Ar  153   3.399   1.817   3.679
    1   AR   Ar  154   3.224   2.833   4.181
    1   AR   Ar  155   4.110   1.866   4.306
    1   AR   Ar  156   4.619   3.151   4.239
    1   AR   Ar  157   3.511   1.944   5.404
    1   AR   Ar  158   3.269   2.961   6.164
    1   AR   Ar  159   4.347   1.258   6.694
    1   AR   Ar  160   3.797   2.954   5.203
    1   AR   Ar  161   3.743   3.621   0.388
    1   AR   Ar  162   3.894   4.709   0.635
    1   AR   Ar  163   4.624   3.893   0.980
    1   AR   Ar  164   4.953   4.843   0.322
    1   AR   Ar  165   3.634   3.445   2.005
    1   AR   Ar  166   3.460   4.549   2.770
    1   AR   Ar  167   4.085   2.955   2.989
    1   AR   Ar  168   4.045   4.308   2.004
    1   AR   Ar  169   2.969   3.340   3.291
    1   AR   Ar  170   3.558   4.715   4.247
    1   AR   Ar  171   3.650   3.761   4.538
    1   AR   Ar  172   4.406   4.221   3.924
    1   AR   Ar  173   2.859   3.539   5.345
    1   AR   Ar  174   4.284   5.022   6.364
    1   AR   Ar  175   4.119   3.905   6.011
    1   AR   Ar  176   4.384   4.946   5.138
    1   AR   Ar  177   4.117   5.724   0.147
    1   AR   Ar  178   3.575   6.395   1.550
    1   AR   Ar  179   4.361   5.513   1.100
    1   AR   Ar  180   4.324   6.715   0.073
    1   AR   Ar  181   3.809   5.420   2.117
    1   AR   Ar  182   2.952   5.904   2.668
    1   AR   Ar  183   4.351   5.213   3.115
    1   AR   Ar  184   4.467   6.442   2.387
    1   AR   Ar  185   3.287   5.330   3.470
    1   AR   Ar  186   3.378   6.139   4.259
    1   AR   Ar  187   4.405   5.308   4.167
    1   AR   Ar  188   4.053   6.505   3.308
    1   AR   Ar  189   3.437   5.565   5.101
    1   AR   Ar  190   3.413   5.891   6.588
    1   AR   Ar  191   4.284   5.899   5.614
    1   AR   Ar  192   3.994   7.000   5.454
    1   AR   Ar  193   5.208   0.306   0.347
    1   AR   Ar  194   4.907   0.990   1.598
    1   AR   Ar  195   6.055   0.533   0.968
    1   AR   Ar  196   5.378   1.376   0.696
    1   AR   Ar  197   5.507   0.124   1.773
    1   AR   Ar  198   5.387   0.875   2.652
    1   AR   Ar  199   6.299   0.556   2.213
    1   AR   Ar  200   5.937   1.424   1.591
    1   AR   Ar  201   5.097   0.299   3.910
    1   AR   Ar  202   4.855   1.191   4.673
    1   AR   Ar  203   6.585   6.996   4.716
    1   AR   Ar  204   6.093   0.456   3.460
    1   AR   Ar  205   5.137   7.081   5.180
    1   AR   Ar  206   5.176   0.420   6.150
    1   AR   Ar  207   6.186   7.063   5.712
    1   AR   Ar  208   5.894   0.704   5.047
    1   AR   Ar  209   6.237   2.383  -1.083
    1   AR   Ar  210   5.484   2.333   1.314
    1   AR   Ar  211   6.310   2.170   0.473
    1   AR   Ar  212   6.405   3.152   0.297
    1   AR   Ar  213   5.210   2.006   2.192
    1   AR   Ar  214   5.024   3.142   1.977
    1   AR   Ar  215   6.183   1.590   2.601
    1   AR   Ar  216   6.590   2.681   1.511
    1   AR   Ar  217   4.966   1.277   3.466
    1   AR   Ar  218   5.429   2.600   4.138
    1   AR   Ar  219   6.042   1.712   3.760
    1   AR   Ar  220   5.144   2.391   3.152
    1   AR   Ar  221   5.373   1.989   5.127
    1   AR   Ar  222   4.202   2.406   6.033
    1   AR   Ar  223   6.243   2.095   6.424
    1   AR   Ar  224   6.560   2.801   5.340
    1   AR   Ar  225   5.653   3.968   0.166
    1   AR   Ar  226   5.308   4.310   1.623
    1   AR   Ar  227   6.404   3.874   1.079
    1   AR   Ar  228   6.011   5.050   0.054
    1   AR   Ar  229   5.440   3.305   0.951
    1   AR   Ar  230   4.920   4.041   2.842
    1   AR   Ar  231   6.705   3.226   3.319
    1   AR   Ar  232   6.041   3.522   1.956
    1   AR   Ar  233   5.612   3.496   3.546
    1   AR   Ar  234   5.958   4.435   3.971
    1   AR   Ar  235   6.650   3.494   4.305
    1   AR   Ar  236   0.010   4.101   3.608
    1   AR   Ar  237   4.906   3.110   5.236
    1   AR   Ar  238   5.250   4.647   5.838
    1   AR   Ar  239   6.231   4.185   6.667
    1   AR   Ar  240   6.236   3.991   5.169
    1   AR   Ar  241   5.297   5.875   0.541
    1   AR   Ar  242   5.261   6.146   1.676
    1   AR   Ar  243   6.298   4.520   1.941
    1   AR   Ar  244   6.022   6.532   0.952
    1   AR   Ar  245   5.509   5.116   2.409
    1   AR   Ar  246   5.450   6.500   2.899
    1   AR   Ar  247   6.260   4.236   3.042
    1   AR   Ar  248   6.136   6.536   1.969
    1   AR   Ar  249   6.156   5.276   3.218
    1   AR   Ar  250   4.734   6.158   4.670
    1   AR   Ar  251   6.590   5.158   4.480
    1   AR   Ar  252   6.018   6.383   3.728
    1   AR   Ar  253   5.609   5.030   4.915
    1   AR   Ar  254   5.251   5.945   6.268
    1   AR   Ar  255   6.221   5.298   5.837
    1   AR   Ar  256   5.747   6.142   5.070
    7.12000  7.12000 12.00000
Argon-slab step 325
  256
    1   AR   Ar    1   0.312   0.311  -0.398
    1   AR   Ar    2   0.015   0.586   0.741
    1   AR   Ar    3   0.308   6.620   0.829
    1   AR   Ar    4   1.046   0.679   0.616
    1   AR   Ar    5   0.002   7.025   1.916
    1   AR   Ar    6   7.110   0.266   2.964
    1   AR   Ar    7   0.845   6.737   2.671
    1   AR   Ar    8   0.892   0.256   1.732
    1   AR   Ar    9   0.186   0.127   3.955
    1   AR   Ar   10   6.918   1.343   4.105
    1   AR   Ar   11   1.351   0.324   4.238
    1   AR   Ar   12   0.895   0.836   3.336
    1   AR   Ar   13   7.096   0.454   5.448
    1   AR   Ar   14   0.270   1.471   5.956
    1   AR   Ar   15   1.759   7.024   7.322
    1   AR   Ar   16   1.002   0.790   5.473
    1   AR   Ar   17   0.328   1.491   0.120
    1   AR   Ar   18   0.382   2.577   0.210
    1   AR   Ar   19   0.802   1.567   1.293
    1   AR   Ar   20   0.771   2.418  -0.903
    1   AR   Ar   21   0.209   1.005   1.902
    1   AR   Ar   22   6.662   2.639   2.552
    1   AR   Ar   23   0.488   1.808   2.805
    1   AR   Ar   24   0.556   2.732   1.844
    1   AR   Ar   25   0.791   1.742   3.757
    1   AR   Ar   26   6.884   2.349   4.193
    1   AR   Ar   27   0.504   1.928   4.874
    1   AR   Ar   28   1.481   2.559   4.008
    1   AR   Ar   29   6.529   1.799   5.084
    1   AR   Ar   30   0.249   2.567   6.388
    1   AR   Ar   31   1.021   1.316   7.076
    1   AR   Ar   32   1.367   2.939   5.149
    1   AR   Ar   33   0.395   3.621  -0.118
    1   AR   Ar   34   0.199   4.482   1.464
    1   AR   Ar   35   0.572   3.572   1.072
    1   AR   Ar   36   1.125   4.518  -0.219
    1   AR   Ar   37   6.979   3.629   2.178
    1   AR   Ar   38   0.491   4.605   2.746
    1   AR   Ar   39   0.873   3.585   2.719
    1   AR   Ar   40   1.060   4.336   1.876
    1   AR   Ar   41   0.533   2.850   3.624
    1   AR   Ar   42   0.254   4.201   4.953
    1   AR   Ar   43   0.460   3.151   4.768
    1   AR   Ar   44   0.858   3.827   4.007
    1   AR   Ar   45   6.995   3.708   5.845
    1   AR   Ar   46   0.078   5.328   6.478
    1   AR   Ar   47   0.997   3.394   6.265
    1   AR   Ar   48   0.970   4.716   5.723
    1   AR   Ar   49   6.920   4.363   0.400
    1   AR   Ar   50   7.052   5.477   0.864
    1   AR   Ar   51   1.198   4.680   0.931
    1   AR   Ar   52   0.771   5.501   0.331
    1   AR   Ar   53   6.803   5.261   2.312
    1   AR   Ar   54   6.773   6.359   2.791
    1   AR   Ar   55   0.767   5.733   2.796
    1   AR   Ar   56   0.706   5.413   1.469
    1   AR   Ar   57   0.783   5.011   4.230
    1   AR   Ar   58   0.010   6.063   4.414
    1   AR   Ar   59   0.935   5.615   5.066
    1   AR   Ar   60   0.972   6.352   3.930
    1   AR   Ar   61   6.754   6.175   5.551
    1   AR   Ar   62   0.581   6.187   6.112
    1   AR   Ar   63   1.830   5.237   5.717
    1   AR   Ar   64   0.767   6.676   5.203
    1   AR   Ar   65   1.060   6.707   0.089
    1   AR   Ar   66   1.738   1.029   1.385
    1   AR   Ar   67   2.560   6.271   0.497
    1   AR   Ar   68   2.909   1.165   0.978
    1   AR   Ar   69   2.040   0.049   0.907
    1   AR   Ar   70   1.469   0.777   2.485
    1   AR   Ar   71   2.439   7.029   2.400
    1   AR   Ar   72   3.046   0.395   1.616
    1   AR   Ar   73   1.709   6.965   3.390
    1   AR   Ar   74   1.570   1.349   4.303
    1   AR   Ar   75   2.478   0.330   4.382
    1   AR   Ar   76   2.246   0.929   3.414
    1   AR   Ar   77   1.851   7.007   5.189
    1   AR   Ar   78   2.191   0.936   6.030
    1   AR   Ar   79   2.467   6.772   6.531
    1   AR   Ar   80   2.488   1.161   4.872
    1   AR   Ar   81   1.704   1.643   0.299
    1   AR   Ar   82   1.594   2.722   0.605
    1   AR   Ar   83   2.751   2.056   1.529
    1   AR   Ar   84   2.198   2.823  -0.365
    1   AR   Ar   85   1.673   2.142   1.803
    1   AR   Ar   86   1.554   2.936   2.616
    1   AR   Ar   87   2.611   1.356   2.223
    1   AR   Ar   88   2.642   2.945   2.262
    1   AR   Ar   89   1.448   1.975   3.013
    1   AR   Ar   90   2.109   3.212   4.523
    1   AR   Ar   91   2.493   2.112   4.305
    1   AR   Ar   92   2.349   2.474   3.391
    1   AR   Ar   93   1.645   1.705   5.526
    1   AR   Ar   94   2.056   3.011   6.245
    1   AR   Ar   95   2.682   1.858   6.143
    1   AR   Ar   96   2.559   2.421   5.236
    1   AR   Ar   97   1.632   3.882   0.365
    1   AR   Ar   98   2.103   4.446   1.443
    1   AR   Ar   99   2.535   3.373   0.779
    1   AR   Ar  100   2.817   4.524   0.211
    1   AR   Ar  101   1.474   3.191   1.518
    1   AR   Ar  102   1.560   4.612   3.043
    1   AR   Ar  103   2.018   3.990   2.319
    1   AR   Ar  104   3.284   4.069   1.320
    1   AR   Ar  105   1.850   3.464   3.483
    1   AR   Ar  106   1.767   4.288   4.052
    1   AR   Ar  107   2.721   4.128   4.569
    1   AR   Ar  108   2.730   4.298   3.433
    1   AR   Ar  109   1.253   3.995   4.949
    1   AR   Ar  110   1.941   3.926   5.829
    1   AR   Ar  111   3.266   4.399   6.609
    1   AR   Ar  112   2.957   4.901   5.686
    1   AR   Ar  113   2.076   5.361   0.766
    1   AR   Ar  114   1.261   6.221   1.228
    1   AR   Ar  115   3.395   5.549   0.854
    1   AR   Ar  116   3.084   0.308  -0.440
    1   AR   Ar  117   1.637   5.153   2.051
    1   AR   Ar  118   1.826   5.832   2.814
    1   AR   Ar  119   2.607   4.973   2.249
    1   AR   Ar  120   2.382   6.123   1.665
    1   AR   Ar  121   1.646   5.525   3.775
    1   AR   Ar  122   2.045   5.963   4.653
    1   AR   Ar  123   2.614   5.128   4.192
    1   AR   Ar  124   2.527   5.987   3.573
    1   AR   Ar  125   1.869   4.841   4.874
    1   AR   Ar  126   1.438   6.923   6.266
    1   AR   Ar  127   2.476   5.116   6.608
    1   AR   Ar  128   2.334   6.149   5.760
    1   AR   Ar  129   3.203   6.999   0.815
    1   AR   Ar  130   4.094   0.881   0.744
    1   AR   Ar  131   4.561   6.797   1.201
    1   AR   Ar  132   4.436   1.578  -0.604
    1   AR   Ar  133   3.449   6.936   2.421
    1   AR   Ar  134   3.487   1.041   2.814
    1   AR   Ar  135   4.418   0.316   2.785
    1   AR   Ar  136   3.918   0.659   1.821
    1   AR   Ar  137   3.120   0.093   3.387
    1   AR   Ar  138   3.440   0.488   4.735
    1   AR   Ar  139   4.113   6.934   4.301
    1   AR   Ar  140   3.959   0.740   3.681
    1   AR   Ar  141   2.866   7.052   5.491
    1   AR   Ar  142   3.360   0.825   5.738
    1   AR   Ar  143   4.055   0.177   6.758
    1   AR   Ar  144   4.231   1.088   5.555
    1   AR   Ar  145   3.421   1.893   0.173
    1   AR   Ar  146   3.572   2.596   1.026
    1   AR   Ar  147   4.436   1.913   0.819
    1   AR   Ar  148   5.330   2.202  -0.450
    1   AR   Ar  149   3.720   1.643   1.914
    1   AR   Ar  150   3.168   2.234   2.767
    1   AR   Ar  151   4.292   1.816   2.816
    1   AR   Ar  152   4.210   2.455   1.919
    1   AR   Ar  153   3.405   1.812   3.646
    1   AR   Ar  154   3.228   2.846   4.163
    1   AR   Ar  155   4.129   1.884   4.322
    1   AR   Ar  156   4.602   3.161   4.271
    1   AR   Ar  157   3.527   1.932   5.425
    1   AR   Ar  158   3.250   2.907   6.168
    1   AR   Ar  159   4.331   1.240   6.695
    1   AR   Ar  160   3.803   2.930   5.236
    1   AR   Ar  161   3.745   3.606   0.410
    1   AR   Ar  162   3.933   4.706   0.621
    1   AR   Ar  163   4.621   3.896   0.946
    1   AR   Ar  164   4.959   4.880   0.333
    1   AR   Ar  165   3.652   3.405   2.034
    1   AR   Ar  166   3.463   4.538   2.762
    1   AR   Ar  167   4.100   2.948   2.986
    1   AR   Ar  168   4.011   4.312   2.019
    1   AR   Ar  169   2.955   3.321   3.294
    1   AR   Ar  170   3.553   4.707   4.259
    1   AR   Ar  171   3.672   3.781   4.535
    1   AR   Ar  172   4.411   4.225   3.922
    1   AR   Ar  173   2.855   3.526   5.347
    1   AR   Ar  174   4.310   5.030   6.386
    1   AR   Ar  175   4.117   3.912   5.981
    1   AR   Ar  176   4.403   4.958   5.105
    1   AR   Ar  177   4.131   5.695   0.143
    1   AR   Ar  178   3.593   6.434   1.574
    1   AR   Ar  179   4.370   5.518   1.119
    1   AR   Ar  180   4.300   6.750   0.085
    1   AR   Ar  181   3.810   5.430   2.098
    1   AR   Ar  182   2.923   5.929   2.671
    1   AR   Ar  183   4.330   5.194   3.117
    1   AR   Ar  184   4.500   6.457   2.408
    1   AR   Ar  185   3.291   5.318   3.480
    1   AR   Ar  186   3.373   6.145   4.263
    1   AR   Ar  187   4.432   5.311   4.157
    1   AR   Ar  188   4.059   6.535   3.283
    1   AR   Ar  189   3.448   5.555   5.093
    1   AR   Ar  190   3.401   5.875   6.616
    1   AR   Ar  191   4.269   5.904   5.597
    1   AR   Ar  192   3.968   7.010   5.396
    1   AR   Ar  193   5.193   0.272   0.328
    1   AR   Ar  194   4.911   1.005   1.614
    1   AR   Ar  195   6.027   0.537   0.935
    1   AR   Ar  196   5.391   1.359   0.670
    1   AR   Ar  197   5.506   0.113   1.755
    1   AR   Ar  198   5.371   0.885   2.637
    1   AR   Ar  199   6.309   0.576   2.201
    1   AR   Ar  200   5.992   1.406   1.587
    1   AR   Ar  201   5.088   0.333   3.849
    1   AR   Ar  202   4.870   1.163   4.676
    1   AR   Ar  203   6.590   6.961   4.725
    1   AR   Ar  204   6.100   0.440   3.461
    1   AR   Ar  205   5.109   7.068   5.151
    1   AR   Ar  206   5.165   0.389   6.128
    1   AR   Ar  207   6.198   7.092   5.711
    1   AR   Ar  208   5.893   0.692   5.026
    1   AR   Ar  209   6.226   2.371  -1.076
    1   AR   Ar  210   5.462   2.317   1.333
    1   AR   Ar  211   6.298   2.184   0.486
    1   AR   Ar  212   6.394   3.149   0.300
    1   AR   Ar  213   5.196   2.013   2.162
    1   AR   Ar  214   5.011   3.129   1.953
    1   AR   Ar  215   6.206   1.627   2.607
    1   AR   Ar  216   6.590   2.645   1.542
    1   AR   Ar  217   4.944   1.259   3.473
    1   AR   Ar  218   5.386   2.607   4.096
    1   AR   Ar  219   6.023   1.716   3.775
    1   AR   Ar  220   5.127   2.361   3.142
    1   AR   Ar  221   5.368   1.973   5.123
    1   AR   Ar  222   4.202   2.395   6.026
    1   AR   Ar  223   6.262   2.110   6.423
    1   AR   Ar  224   6.591   2.808   5.336
    1   AR   Ar  225   5.651   4.002   0.173
    1   AR   Ar  226   5.289   4.330   1.626
    1   AR   Ar  227   6.412   3.852   1.090
    1   AR   Ar  228   5.993   4.999   0.042
    1   AR   Ar  229   5.445   3.300   0.949
    1   AR   Ar  230   4.905   4.036   2.811
    1   AR   Ar  231   6.710   3.218   3.324
    1   AR   Ar  232   6.031   3.491   1.977
    1   AR   Ar  233   5.633   3.477   3.563
    1   AR   Ar  234   5.951   4.418   3.985
    1   AR   Ar  235   6.645   3.496   4.298
    1   AR   Ar  236   0.007   4.114   3.582
    1   AR   Ar  237   4.921   3.079   5.232
    1   AR   Ar  238   5.292   4.682   5.824
    1   AR   Ar  239   6.241   4.182   6.717
    1   AR   Ar  240   6.244   3.986   5.163
    1   AR   Ar  241   5.339   5.871   0.496
    1   AR   Ar  242   5.240   6.125   1.679
    1   AR   Ar  243   6.336   4.501   1.970
    1   AR   Ar  244   6.040   6.542   0.944
    1   AR   Ar  245   5.543   5.109   2.418
    1   AR   Ar  246   5.434   6.529   2.876
    1   AR   Ar  247   6.260   4.207   3.056
    1   AR   Ar  248   6.114   6.549   1.985
    1   AR   Ar  249   6.170   5.285   3.191
    1   AR   Ar  250   4.725   6.191   4.667
    1   AR   Ar  251   6.565   5.195   4.484
    1   AR   Ar  252   6.024   6.390   3.758
    1   AR   Ar  253   5.600   5.023   4.922
    1   AR   Ar  254   5.241   5.938   6.265
    1   AR   Ar  255   6.217   5.301   5.862
    1   AR   Ar  256   5.777   6.114   5.101
    7.12000  7.12000 12.00000
Argon-slab step 330
  256
    1   AR   Ar    1   0.287   0.311  -0.395
    1   AR   Ar    2   0.037   0.588   0.766
    1   AR   Ar    3   0.269   6.598   0.853
    1   AR   Ar    4   1.055   0.649   0.650
    1   AR   Ar    5   0.012   7.009   1.945
    1   AR   Ar    6   7.113   0.261   2.946
    1   AR   Ar    7   0.838   6.725   2.667
    1   AR   Ar    8   0.883   0.251   1.726
    1   AR   Ar    9   0.194   0.097   3.994
    1   AR   Ar   10   6.938   1.331   4.134
    1   AR   Ar   11   1.355   0.308   4.247
    1   AR   Ar   12   0.898   0.819   3.327
    1   AR   Ar   13   7.080   0.470   5.444
    1   AR   Ar   14   0.254   1.472   5.972
    1   AR   Ar   15   1.775   7.017   7.336
    1   AR   Ar   16   1.016   0.823   5.455
    1   AR   Ar   17   0.301   1.457   0.157
    1   AR   Ar   18   0.375   2.549   0.215
    1   AR   Ar   19   0.760   1.536   1.305
    1   AR   Ar   20   0.757   2.428  -0.889
    1   AR   Ar   21   0.241   0.991   1.890
    1   AR   Ar   22   6.660   2.671   2.558
    1   AR   Ar   23   0.448   1.791   2.804
    1   AR   Ar   24   0.528   2.714   1.833
    1   AR   Ar   25   0.793   1.744   3.783
    1   AR   Ar   26   6.882   2.344   4.172
    1   AR   Ar   27   0.476   1.937   4.878
    1   AR   Ar   28   1.486   2.570   4.036
    1   AR   Ar   29   6.485   1.789   5.049
    1   AR   Ar   30   0.224   2.563   6.394
    1   AR   Ar   31   1.026   1.294   7.109
    1   AR   Ar   32   1.351   2.926   5.143
    1   AR   Ar   33   0.405   3.617  -0.128
    1   AR   Ar   34   0.202   4.481   1.428
    1   AR   Ar   35   0.560   3.607   1.043
    1   AR   Ar   36   1.153   4.543  -0.251
    1   AR   Ar   37   6.959   3.632   2.217
    1   AR   Ar   38   0.467   4.589   2.747
    1   AR   Ar   39   0.853   3.639   2.711
    1   AR   Ar   40   1.070   4.303   1.869
    1   AR   Ar   41   0.527   2.860   3.597
    1   AR   Ar   42   0.249   4.198   4.964
    1   AR   Ar   43   0.412   3.131   4.769
    1   AR   Ar   44   0.860   3.781   4.017
    1   AR   Ar   45   7.001   3.701   5.851
    1   AR   Ar   46   0.058   5.338   6.473
    1   AR   Ar   47   0.997   3.369   6.282
    1   AR   Ar   48   0.990   4.722   5.705
    1   AR   Ar   49   6.866   4.348   0.385
    1   AR   Ar   50   7.036   5.483   0.869
    1   AR   Ar   51   1.217   4.654   0.911
    1   AR   Ar   52   0.786   5.480   0.338
    1   AR   Ar   53   6.818   5.289   2.298
    1   AR   Ar   54   6.758   6.351   2.815
    1   AR   Ar   55   0.780   5.732   2.838
    1   AR   Ar   56   0.725   5.388   1.429
    1   AR   Ar   57   0.820   4.998   4.220
    1   AR   Ar   58   0.036   6.071   4.409
    1   AR   Ar   59   0.943   5.676   5.069
    1   AR   Ar   60   0.958   6.357   3.913
    1   AR   Ar   61   6.753   6.228   5.559
    1   AR   Ar   62   0.623   6.188   6.086
    1   AR   Ar   63   1.855   5.275   5.693
    1   AR   Ar   64   0.751   6.675   5.177
    1   AR   Ar   65   1.077   6.708   0.086
    1   AR   Ar   66   1.770   1.071   1.423
    1   AR   Ar   67   2.600   6.276   0.493
    1   AR   Ar   68   2.899   1.162   0.997
    1   AR   Ar   69   2.053   0.077   0.904
    1   AR   Ar   70   1.468   0.774   2.466
    1   AR   Ar   71   2.449   7.027   2.382
    1   AR   Ar   72   3.039   0.409   1.623
    1   AR   Ar   73   1.728   6.963   3.371
    1   AR   Ar   74   1.561   1.369   4.300
    1   AR   Ar   75   2.463   0.340   4.379
    1   AR   Ar   76   2.218   0.919   3.416
    1   AR   Ar   77   1.839   7.021   5.187
    1   AR   Ar   78   2.187   0.936   6.026
    1   AR   Ar   79   2.453   6.768   6.536
    1   AR   Ar   80   2.499   1.178   4.840
    1   AR   Ar   81   1.700   1.603   0.327
    1   AR   Ar   82   1.595   2.735   0.648
    1   AR   Ar   83   2.738   2.079   1.509
    1   AR   Ar   84   2.193   2.832  -0.387
    1   AR   Ar   85   1.681   2.139   1.759
    1   AR   Ar   86   1.569   2.922   2.641
    1   AR   Ar   87   2.595   1.328   2.230
    1   AR   Ar   88   2.652   2.938   2.286
    1   AR   Ar   89   1.445   1.987   2.982
    1   AR   Ar   90   2.137   3.233   4.493
    1   AR   Ar   91   2.486   2.143   4.334
    1   AR   Ar   92   2.309   2.468   3.413
    1   AR   Ar   93   1.653   1.682   5.545
    1   AR   Ar   94   2.089   2.995   6.292
    1   AR   Ar   95   2.684   1.874   6.146
    1   AR   Ar   96   2.555   2.430   5.238
    1   AR   Ar   97   1.637   3.912   0.338
    1   AR   Ar   98   2.094   4.466   1.434
    1   AR   Ar   99   2.566   3.358   0.750
    1   AR   Ar  100   2.818   4.536   0.158
    1   AR   Ar  101   1.446   3.189   1.535
    1   AR   Ar  102   1.553   4.620   3.066
    1   AR   Ar  103   2.024   3.986   2.314
    1   AR   Ar  104   3.303   4.018   1.279
    1   AR   Ar  105   1.830   3.448   3.462
    1   AR   Ar  106   1.750   4.266   4.077
    1   AR   Ar  107   2.702   4.136   4.584
    1   AR   Ar  108   2.719   4.289   3.455
    1   AR   Ar  109   1.265   3.993   4.952
    1   AR   Ar  110   1.932   3.896   5.802
    1   AR   Ar  111   3.272   4.395   6.616
    1   AR   Ar  112   2.973   4.891   5.689
    1   AR   Ar  113   2.069   5.360   0.796
    1   AR   Ar  114   1.275   6.237   1.224
    1   AR   Ar  115   3.408   5.559   0.843
    1   AR   Ar  116   3.089   0.338  -0.445
    1   AR   Ar  117   1.615   5.166   2.058
    1   AR   Ar  118   1.826   5.840   2.810
    1   AR   Ar  119   2.606   4.974   2.229
    1   AR   Ar  120   2.371   6.118   1.676
    1   AR   Ar  121   1.660   5.550   3.798
    1   AR   Ar  122   2.040   5.929   4.648
    1   AR   Ar  123   2.612   5.132   4.179
    1   AR   Ar  124   2.503   5.989   3.573
    1   AR   Ar  125   1.851   4.838   4.871
    1   AR   Ar  126   1.447   6.934   6.239
    1   AR   Ar  127   2.488   5.102   6.599
    1   AR   Ar  128   2.329   6.166   5.758
    1   AR   Ar  129   3.213   6.989   0.802
    1   AR   Ar  130   4.116   0.909   0.712
    1   AR   Ar  131   4.571   6.811   1.222
    1   AR   Ar  132   4.432   1.607  -0.599
    1   AR   Ar  133   3.424   6.945   2.444
    1   AR   Ar  134   3.462   1.066   2.812
    1   AR   Ar  135   4.446   0.326   2.758
    1   AR   Ar  136   3.932   0.621   1.841
    1   AR   Ar  137   3.105   0.096   3.400
    1   AR   Ar  138   3.445   0.492   4.723
    1   AR   Ar  139   4.094   6.924   4.276
    1   AR   Ar  140   3.974   0.687   3.681
    1   AR   Ar  141   2.868   7.045   5.487
    1   AR   Ar  142   3.391   0.818   5.755
    1   AR   Ar  143   4.064   0.181   6.785
    1   AR   Ar  144   4.243   1.105   5.582
    1   AR   Ar  145   3.410   1.914   0.195
    1   AR   Ar  146   3.580   2.628   1.036
    1   AR   Ar  147   4.414   1.911   0.796
    1   AR   Ar  148   5.342   2.162  -0.479
    1   AR   Ar  149   3.750   1.648   1.922
    1   AR   Ar  150   3.159   2.252   2.772
    1   AR   Ar  151   4.322   1.759   2.820
    1   AR   Ar  152   4.190   2.478   1.924
    1   AR   Ar  153   3.404   1.802   3.613
    1   AR   Ar  154   3.235   2.858   4.150
    1   AR   Ar  155   4.155   1.905   4.346
    1   AR   Ar  156   4.570   3.179   4.298
    1   AR   Ar  157   3.537   1.914   5.441
    1   AR   Ar  158   3.228   2.852   6.171
    1   AR   Ar  159   4.316   1.222   6.693
    1   AR   Ar  160   3.808   2.912   5.263
    1   AR   Ar  161   3.745   3.591   0.432
    1   AR   Ar  162   3.971   4.695   0.605
    1   AR   Ar  163   4.612   3.902   0.912
    1   AR   Ar  164   4.964   4.916   0.346
    1   AR   Ar  165   3.665   3.349   2.067
    1   AR   Ar  166   3.470   4.532   2.758
    1   AR   Ar  167   4.115   2.941   2.983
    1   AR   Ar  168   4.002   4.324   2.018
    1   AR   Ar  169   2.944   3.300   3.291
    1   AR   Ar  170   3.548   4.711   4.272
    1   AR   Ar  171   3.700   3.784   4.538
    1   AR   Ar  172   4.422   4.228   3.916
    1   AR   Ar  173   2.854   3.521   5.358
    1   AR   Ar  174   4.336   5.037   6.405
    1   AR   Ar  175   4.114   3.919   5.949
    1   AR   Ar  176   4.423   4.964   5.077
    1   AR   Ar  177   4.148   5.666   0.130
    1   AR   Ar  178   3.613   6.463   1.594
    1   AR   Ar  179   4.391   5.527   1.148
    1   AR   Ar  180   4.274   6.787   0.100
    1   AR   Ar  181   3.810   5.442   2.079
    1   AR   Ar  182   2.899   5.957   2.661
    1   AR   Ar  183   4.309   5.200   3.100
    1   AR   Ar  184   4.513   6.409   2.441
    1   AR   Ar  185   3.304   5.307   3.480
    1   AR   Ar  186   3.354   6.140   4.265
    1   AR   Ar  187   4.458   5.317   4.142
    1   AR   Ar  188   4.058   6.565   3.269
    1   AR   Ar  189   3.458   5.544   5.082
    1   AR   Ar  190   3.384   5.872   6.611
    1   AR   Ar  191   4.258   5.913   5.585
    1   AR   Ar  192   3.947   7.018   5.341
    1   AR   Ar  193   5.175   0.237   0.310
    1   AR   Ar  194   4.916   1.022   1.629
    1   AR   Ar  195   6.003   0.541   0.903
    1   AR   Ar  196   5.402   1.345   0.642
    1   AR   Ar  197   5.484   0.115   1.731
    1   AR   Ar  198   5.357   0.892   2.615
    1   AR   Ar  199   6.323   0.597   2.192
    1   AR   Ar  200   6.046   1.389   1.582
    1   AR   Ar  201   5.081   0.373   3.873
    1   AR   Ar  202   4.885   1.131   4.676
    1   AR   Ar  203   6.594   6.924   4.731
    1   AR   Ar  204   6.108   0.424   3.460
    1   AR   Ar  205   5.081   7.057   5.121
    1   AR   Ar  206   5.152   0.359   6.107
    1   AR   Ar  207   6.205   7.118   5.714
    1   AR   Ar  208   5.891   0.685   5.002
    1   AR   Ar  209   6.215   2.359  -1.068
    1   AR   Ar  210   5.450   2.310   1.320
    1   AR   Ar  211   6.284   2.186   0.503
    1   AR   Ar  212   6.385   3.155   0.299
    1   AR   Ar  213   5.172   2.005   2.160
    1   AR   Ar  214   4.998   3.120   1.930
    1   AR   Ar  215   6.229   1.664   2.615
    1   AR   Ar  216   6.588   2.608   1.565
    1   AR   Ar  217   4.919   1.252   3.485
    1   AR   Ar  218   5.356   2.604   4.061
    1   AR   Ar  219   5.998   1.721   3.787
    1   AR   Ar  220   5.111   2.333   3.131
    1   AR   Ar  221   5.364   1.960   5.120
    1   AR   Ar  222   4.209   2.384   6.026
    1   AR   Ar  223   6.282   2.125   6.421
    1   AR   Ar  224   6.623   2.820   5.332
    1   AR   Ar  225   5.651   4.027   0.182
    1   AR   Ar  226   5.272   4.349   1.631
    1   AR   Ar  227   6.417   3.829   1.105
    1   AR   Ar  228   5.979   4.950   0.030
    1   AR   Ar  229   5.457   3.293   0.949
    1   AR   Ar  230   4.873   4.031   2.808
    1   AR   Ar  231   6.711   3.214   3.334
    1   AR   Ar  232   6.005   3.454   2.002
    1   AR   Ar  233   5.653   3.459   3.577
    1   AR   Ar  234   5.941   4.405   4.008
    1   AR   Ar  235   6.647   3.511   4.277
    1   AR   Ar  236   0.003   4.136   3.557
    1   AR   Ar  237   4.937   3.046   5.235
    1   AR   Ar  238   5.306   4.661   5.840
    1   AR   Ar  239   6.251   4.180   6.765
    1   AR   Ar  240   6.248   3.984   5.154
    1   AR   Ar  241   5.379   5.868   0.451
    1   AR   Ar  242   5.214   6.098   1.680
    1   AR   Ar  243   6.361   4.475   1.991
    1   AR   Ar  244   6.058   6.554   0.934
    1   AR   Ar  245   5.565   5.089   2.414
    1   AR   Ar  246   5.421   6.559   2.852
    1   AR   Ar  247   6.258   4.176   3.055
    1   AR   Ar  248   6.111   6.549   2.012
    1   AR   Ar  249   6.188   5.297   3.171
    1   AR   Ar  250   4.719   6.221   4.666
    1   AR   Ar  251   6.540   5.228   4.490
    1   AR   Ar  252   6.032   6.398   3.791
    1   AR   Ar  253   5.590   5.017   4.924
    1   AR   Ar  254   5.230   5.930   6.260
    1   AR   Ar  255   6.212   5.303   5.888
    1   AR   Ar  256   5.807   6.087   5.132
    7.12000  7.12000 12.00000
Argon-slab step 335
  256
    1   AR   Ar    1   0.263   0.312  -0.390
    1   AR   Ar    2   0.062   0.586   0.797
    1   AR   Ar    3   0.230   6.575   0.879
    1   AR   Ar    4   1.069   0.619   0.685
    1   AR   Ar    5   0.008   6.986   1.974
    1   AR   Ar    6   7.115   0.270   2.930
    1   AR   Ar    7   0.833   6.721   2.663
    1   AR   Ar    8   0.895   0.243   1.712
    1   AR   Ar    9   0.205   0.068   4.033
    1   AR   Ar   10   6.953   1.299   4.179
    1   AR   Ar   11   1.356   0.293   4.258
    1   AR   Ar   12   0.900   0.797   3.321
    1   AR   Ar   13   7.069   0.489   5.439
    1   AR   Ar   14   0.238   1.474   5.987
    1   AR   Ar   15   1.789   7.012   7.351
    1   AR   Ar   16   1.029   0.853   5.436
    1   AR   Ar   17   0.274   1.422   0.194
    1   AR   Ar   18   0.367   2.522   0.222
    1   AR   Ar   19   0.710   1.510   1.302
    1   AR   Ar   20   0.743   2.437  -0.873
    1   AR   Ar   21   0.254   0.972   1.896
    1   AR   Ar   22   6.657   2.689   2.555
    1   AR   Ar   23   0.401   1.773   2.797
    1   AR   Ar   24   0.500   2.696   1.823
    1   AR   Ar   25   0.786   1.753   3.813
    1   AR   Ar   26   6.878   2.348   4.151
    1   AR   Ar   27   0.452   1.946   4.882
    1   AR   Ar   28   1.486   2.577   4.066
    1   AR   Ar   29   6.441   1.777   5.013
    1   AR   Ar   30   0.199   2.558   6.398
    1   AR   Ar   31   1.031   1.273   7.141
    1   AR   Ar   32   1.343   2.909   5.144
    1   AR   Ar   33   0.417   3.614  -0.137
    1   AR   Ar   34   0.190   4.486   1.390
    1   AR   Ar   35   0.549   3.637   1.012
    1   AR   Ar   36   1.174   4.576  -0.287
    1   AR   Ar   37   6.952   3.638   2.258
    1   AR   Ar   38   0.478   4.595   2.740
    1   AR   Ar   39   0.829   3.691   2.706
    1   AR   Ar   40   1.086   4.263   1.869
    1   AR   Ar   41   0.525   2.867   3.569
    1   AR   Ar   42   0.240   4.198   4.972
    1   AR   Ar   43   0.379   3.118   4.778
    1   AR   Ar   44   0.859   3.732   4.024
    1   AR   Ar   45   7.010   3.692   5.859
    1   AR   Ar   46   0.019   5.299   6.458
    1   AR   Ar   47   0.997   3.344   6.295
    1   AR   Ar   48   0.992   4.754   5.705
    1   AR   Ar   49   6.817   4.338   0.365
    1   AR   Ar   50   7.005   5.489   0.871
    1   AR   Ar   51   1.231   4.630   0.887
    1   AR   Ar   52   0.801   5.477   0.347
    1   AR   Ar   53   6.841   5.328   2.285
    1   AR   Ar   54   6.746   6.342   2.842
    1   AR   Ar   55   0.788   5.721   2.882
    1   AR   Ar   56   0.698   5.407   1.446
    1   AR   Ar   57   0.857   4.982   4.210
    1   AR   Ar   58   0.065   6.080   4.404
    1   AR   Ar   59   0.978   5.667   5.023
    1   AR   Ar   60   0.966   6.351   3.924
    1   AR   Ar   61   6.759   6.279   5.567
    1   AR   Ar   62   0.665   6.188   6.061
    1   AR   Ar   63   1.880   5.323   5.695
    1   AR   Ar   64   0.759   6.685   5.164
    1   AR   Ar   65   1.094   6.710   0.085
    1   AR   Ar   66   1.804   1.114   1.459
    1   AR   Ar   67   2.632   6.274   0.487
    1   AR   Ar   68   2.879   1.155   1.009
    1   AR   Ar   69   2.066   0.104   0.902
    1   AR   Ar   70   1.471   0.772   2.446
    1   AR   Ar   71   2.446   7.026   2.366
    1   AR   Ar   72   3.006   0.415   1.637
    1   AR   Ar   73   1.739   6.971   3.375
    1   AR   Ar   74   1.559   1.389   4.301
    1   AR   Ar   75   2.446   0.333   4.363
    1   AR   Ar   76   2.189   0.908   3.418
    1   AR   Ar   77   1.824   7.034   5.185
    1   AR   Ar   78   2.185   0.928   6.023
    1   AR   Ar   79   2.461   6.794   6.541
    1   AR   Ar   80   2.494   1.201   4.825
    1   AR   Ar   81   1.694   1.563   0.357
    1   AR   Ar   82   1.597   2.745   0.685
    1   AR   Ar   83   2.726   2.106   1.488
    1   AR   Ar   84   2.187   2.842  -0.406
    1   AR   Ar   85   1.687   2.135   1.718
    1   AR   Ar   86   1.590   2.907   2.655
    1   AR   Ar   87   2.576   1.297   2.238
    1   AR   Ar   88   2.653   2.939   2.304
    1   AR   Ar   89   1.447   1.991   2.953
    1   AR   Ar   90   2.170   3.255   4.463
    1   AR   Ar   91   2.477   2.161   4.352
    1   AR   Ar   92   2.270   2.462   3.423
    1   AR   Ar   93   1.661   1.665   5.560
    1   AR   Ar   94   2.124   2.973   6.339
    1   AR   Ar   95   2.714   1.892   6.151
    1   AR   Ar   96   2.552   2.447   5.260
    1   AR   Ar   97   1.648   3.929   0.317
    1   AR   Ar   98   2.090   4.485   1.416
    1   AR   Ar   99   2.597   3.343   0.722
    1   AR   Ar  100   2.819   4.547   0.109
    1   AR   Ar  101   1.420   3.195   1.561
    1   AR   Ar  102   1.547   4.629   3.090
    1   AR   Ar  103   2.044   3.984   2.329
    1   AR   Ar  104   3.318   3.970   1.239
    1   AR   Ar  105   1.811   3.435   3.442
    1   AR   Ar  106   1.739   4.245   4.091
    1   AR   Ar  107   2.685   4.139   4.595
    1   AR   Ar  108   2.704   4.284   3.480
    1   AR   Ar  109   1.287   3.973   4.978
    1   AR   Ar  110   1.923   3.871   5.773
    1   AR   Ar  111   3.282   4.390   6.622
    1   AR   Ar  112   2.961   4.858   5.694
    1   AR   Ar  113   2.060   5.359   0.828
    1   AR   Ar  114   1.293   6.257   1.219
    1   AR   Ar  115   3.410   5.572   0.837
    1   AR   Ar  116   3.132   0.333  -0.457
    1   AR   Ar  117   1.587   5.182   2.063
    1   AR   Ar  118   1.826   5.853   2.802
    1   AR   Ar  119   2.611   4.975   2.211
    1   AR   Ar  120   2.361   6.112   1.685
    1   AR   Ar  121   1.660   5.562   3.820
    1   AR   Ar  122   2.025   5.902   4.641
    1   AR   Ar  123   2.595   5.117   4.180
    1   AR   Ar  124   2.506   6.014   3.589
    1   AR   Ar  125   1.820   4.824   4.874
    1   AR   Ar  126   1.454   6.946   6.210
    1   AR   Ar  127   2.496   5.090   6.591
    1   AR   Ar  128   2.326   6.180   5.748
    1   AR   Ar  129   3.231   6.984   0.780
    1   AR   Ar  130   4.137   0.933   0.682
    1   AR   Ar  131   4.580   6.828   1.241
    1   AR   Ar  132   4.426   1.634  -0.593
    1   AR   Ar  133   3.414   6.956   2.473
    1   AR   Ar  134   3.452   1.070   2.802
    1   AR   Ar  135   4.473   0.339   2.732
    1   AR   Ar  136   3.969   0.584   1.866
    1   AR   Ar  137   3.087   0.098   3.417
    1   AR   Ar  138   3.446   0.507   4.705
    1   AR   Ar  139   4.076   6.917   4.248
    1   AR   Ar  140   3.989   0.637   3.683
    1   AR   Ar  141   2.870   7.039   5.482
    1   AR   Ar  142   3.375   0.816   5.790
    1   AR   Ar  143   4.074   0.184   6.811
    1   AR   Ar  144   4.291   1.131   5.602
    1   AR   Ar  145   3.399   1.934   0.218
    1   AR   Ar  146   3.564   2.639   1.038
    1   AR   Ar  147   4.394   1.911   0.774
    1   AR   Ar  148   5.355   2.122  -0.505
    1   AR   Ar  149   3.765   1.633   1.926
    1   AR   Ar  150   3.151   2.264   2.773
    1   AR   Ar  151   4.301   1.737   2.804
    1   AR   Ar  152   4.181   2.515   1.931
    1   AR   Ar  153   3.403   1.787   3.589
    1   AR   Ar  154   3.246   2.868   4.144
    1   AR   Ar  155   4.185   1.927   4.372
    1   AR   Ar  156   4.529   3.201   4.320
    1   AR   Ar  157   3.541   1.890   5.451
    1   AR   Ar  158   3.204   2.798   6.174
    1   AR   Ar  159   4.300   1.206   6.689
    1   AR   Ar  160   3.812   2.901   5.281
    1   AR   Ar  161   3.742   3.572   0.450
    1   AR   Ar  162   4.004   4.681   0.590
    1   AR   Ar  163   4.605   3.910   0.880
    1   AR   Ar  164   4.968   4.947   0.360
    1   AR   Ar  165   3.674   3.292   2.102
    1   AR   Ar  166   3.463   4.530   2.773
    1   AR   Ar  167   4.130   2.933   2.981
    1   AR   Ar  168   4.014   4.337   1.996
    1   AR   Ar  169   2.934   3.280   3.279
    1   AR   Ar  170   3.541   4.718   4.286
    1   AR   Ar  171   3.729   3.772   4.549
    1   AR   Ar  172   4.437   4.232   3.906
    1   AR   Ar  173   2.858   3.516   5.377
    1   AR   Ar  174   4.361   5.046   6.421
    1   AR   Ar  175   4.110   3.926   5.916
    1   AR   Ar  176   4.443   4.966   5.058
    1   AR   Ar  177   4.168   5.638   0.112
    1   AR   Ar  178   3.629   6.478   1.612
    1   AR   Ar  179   4.419   5.537   1.182
    1   AR   Ar  180   4.247   6.824   0.116
    1   AR   Ar  181   3.809   5.454   2.061
    1   AR   Ar  182   2.882   5.987   2.641
    1   AR   Ar  183   4.289   5.212   3.076
    1   AR   Ar  184   4.487   6.383   2.418
    1   AR   Ar  185   3.323   5.301   3.471
    1   AR   Ar  186   3.331   6.134   4.262
    1   AR   Ar  187   4.485   5.326   4.120
    1   AR   Ar  188   4.047   6.595   3.272
    1   AR   Ar  189   3.466   5.531   5.067
    1   AR   Ar  190   3.370   5.886   6.622
    1   AR   Ar  191   4.252   5.925   5.579
    1   AR   Ar  192   3.933   7.019   5.295
    1   AR   Ar  193   5.157   0.202   0.294
    1   AR   Ar  194   4.921   1.043   1.641
    1   AR   Ar  195   5.985   0.543   0.873
    1   AR   Ar  196   5.410   1.335   0.614
    1   AR   Ar  197   5.448   0.125   1.705
    1   AR   Ar  198   5.346   0.900   2.591
    1   AR   Ar  199   6.340   0.614   2.186
    1   AR   Ar  200   6.099   1.376   1.574
    1   AR   Ar  201   5.069   0.404   3.899
    1   AR   Ar  202   4.899   1.094   4.674
    1   AR   Ar  203   6.594   6.887   4.736
    1   AR   Ar  204   6.116   0.408   3.459
    1   AR   Ar  205   5.069   7.047   5.093
    1   AR   Ar  206   5.139   0.331   6.086
    1   AR   Ar  207   6.205   0.020   5.722
    1   AR   Ar  208   5.888   0.681   4.974
    1   AR   Ar  209   6.235   2.339  -1.049
    1   AR   Ar  210   5.448   2.309   1.283
    1   AR   Ar  211   6.268   2.178   0.524
    1   AR   Ar  212   6.378   3.170   0.294
    1   AR   Ar  213   5.142   1.985   2.178
    1   AR   Ar  214   4.985   3.115   1.910
    1   AR   Ar  215   6.251   1.700   2.626
    1   AR   Ar  216   6.584   2.601   1.557
    1   AR   Ar  217   4.893   1.257   3.498
    1   AR   Ar  218   5.333   2.592   4.036
    1   AR   Ar  219   5.970   1.726   3.797
    1   AR   Ar  220   5.097   2.307   3.118
    1   AR   Ar  221   5.362   1.950   5.117
    1   AR   Ar  222   4.225   2.371   6.035
    1   AR   Ar  223   6.304   2.140   6.416
    1   AR   Ar  224   6.655   2.832   5.327
    1   AR   Ar  225   5.653   4.008   0.197
    1   AR   Ar  226   5.256   4.366   1.638
    1   AR   Ar  227   6.421   3.802   1.128
    1   AR   Ar  228   5.971   4.912   0.018
    1   AR   Ar  229   5.472   3.285   0.950
    1   AR   Ar  230   4.842   4.025   2.803
    1   AR   Ar  231   6.710   3.216   3.349
    1   AR   Ar  232   5.969   3.413   2.027
    1   AR   Ar  233   5.673   3.442   3.589
    1   AR   Ar  234   5.932   4.393   4.037
    1   AR   Ar  235   6.648   3.528   4.266
    1   AR   Ar  236   0.004   4.163   3.537
    1   AR   Ar  237   4.955   3.012   5.244
    1   AR   Ar  238   5.311   4.625   5.869
    1   AR   Ar  239   6.261   4.179   6.810
    1   AR   Ar  240   6.250   3.985   5.145
    1   AR   Ar  241   5.417   5.867   0.408
    1   AR   Ar  242   5.190   6.069   1.680
    1   AR   Ar  243   6.363   4.461   1.997
    1   AR   Ar  244   6.077   6.567   0.925
    1   AR   Ar  245   5.562   5.068   2.395
    1   AR   Ar  246   5.413   6.592   2.831
    1   AR   Ar  247   6.250   4.146   3.042
    1   AR   Ar  248   6.121   6.539   2.042
    1   AR   Ar  249   6.211   5.311   3.161
    1   AR   Ar  250   4.715   6.242   4.664
    1   AR   Ar  251   6.516   5.259   4.495
    1   AR   Ar  252   6.042   6.406   3.824
    1   AR   Ar  253   5.580   5.013   4.921
    1   AR   Ar  254   5.220   5.921   6.251
    1   AR   Ar  255   6.206   5.305   5.912
    1   AR   Ar  256   5.833   6.061   5.161
    7.12000  7.12000 12.00000
Argon-slab step 340
  256
    1   AR   Ar    1   0.240   0.313  -0.381
    1   AR   Ar    2   0.070   0.587   0.816
    1   AR   Ar    3   0.192   6.553   0.906
    1   AR   Ar    4   1.090   0.589   0.718
    1   AR   Ar    5   7.116   6.956   1.999
    1   AR   Ar    6   7.109   0.277   2.924
    1   AR   Ar    7   0.830   6.724   2.659
    1   AR   Ar    8   0.922   0.230   1.691
    1   AR   Ar    9   0.218   0.040   4.070
    1   AR   Ar   10   6.969   1.261   4.223
    1   AR   Ar   11   1.353   0.278   4.271
    1   AR   Ar   12   0.901   0.773   3.317
    1   AR   Ar   13   7.064   0.510   5.430
    1   AR   Ar   14   0.222   1.477   6.000
    1   AR   Ar   15   1.803   7.007   7.365
    1   AR   Ar   16   1.042   0.878   5.414
    1   AR   Ar   17   0.249   1.389   0.231
    1   AR   Ar   18   0.359   2.497   0.229
    1   AR   Ar   19   0.678   1.504   1.276
    1   AR   Ar   20   0.728   2.447  -0.856
    1   AR   Ar   21   0.243   0.941   1.927
    1   AR   Ar   22   6.666   2.692   2.550
    1   AR   Ar   23   0.351   1.755   2.787
    1   AR   Ar   24   0.473   2.679   1.816
    1   AR   Ar   25   0.769   1.769   3.839
    1   AR   Ar   26   6.873   2.358   4.129
    1   AR   Ar   27   0.428   1.955   4.888
    1   AR   Ar   28   1.477   2.583   4.099
    1   AR   Ar   29   6.398   1.764   4.977
    1   AR   Ar   30   0.174   2.555   6.401
    1   AR   Ar   31   1.036   1.251   7.171
    1   AR   Ar   32   1.338   2.889   5.148
    1   AR   Ar   33   0.429   3.610  -0.145
    1   AR   Ar   34   0.169   4.497   1.354
    1   AR   Ar   35   0.542   3.658   0.977
    1   AR   Ar   36   1.191   4.613  -0.326
    1   AR   Ar   37   6.954   3.647   2.299
    1   AR   Ar   38   0.494   4.624   2.726
    1   AR   Ar   39   0.811   3.726   2.705
    1   AR   Ar   40   1.104   4.220   1.870
    1   AR   Ar   41   0.529   2.870   3.538
    1   AR   Ar   42   0.229   4.199   4.976
    1   AR   Ar   43   0.376   3.117   4.801
    1   AR   Ar   44   0.857   3.683   4.032
    1   AR   Ar   45   7.022   3.684   5.871
    1   AR   Ar   46   7.097   5.249   6.441
    1   AR   Ar   47   0.998   3.320   6.306
    1   AR   Ar   48   0.987   4.791   5.709
    1   AR   Ar   49   6.804   4.346   0.314
    1   AR   Ar   50   6.973   5.484   0.875
    1   AR   Ar   51   1.236   4.612   0.863
    1   AR   Ar   52   0.819   5.479   0.356
    1   AR   Ar   53   6.868   5.371   2.273
    1   AR   Ar   54   6.736   6.331   2.873
    1   AR   Ar   55   0.794   5.703   2.927
    1   AR   Ar   56   0.678   5.426   1.472
    1   AR   Ar   57   0.892   4.961   4.200
    1   AR   Ar   58   0.094   6.089   4.401
    1   AR   Ar   59   1.014   5.655   4.979
    1   AR   Ar   60   0.950   6.333   3.929
    1   AR   Ar   61   6.773   6.323   5.579
    1   AR   Ar   62   0.707   6.183   6.039
    1   AR   Ar   63   1.901   5.367   5.709
    1   AR   Ar   64   0.783   6.706   5.158
    1   AR   Ar   65   1.070   6.724   0.077
    1   AR   Ar   66   1.837   1.153   1.493
    1   AR   Ar   67   2.655   6.262   0.479
    1   AR   Ar   68   2.859   1.158   1.012
    1   AR   Ar   69   2.080   0.130   0.903
    1   AR   Ar   70   1.478   0.770   2.425
    1   AR   Ar   71   2.425   7.024   2.353
    1   AR   Ar   72   2.967   0.414   1.658
    1   AR   Ar   73   1.752   6.977   3.375
    1   AR   Ar   74   1.566   1.405   4.308
    1   AR   Ar   75   2.427   0.313   4.341
    1   AR   Ar   76   2.160   0.898   3.420
    1   AR   Ar   77   1.809   7.047   5.182
    1   AR   Ar   78   2.186   0.912   6.020
    1   AR   Ar   79   2.474   6.825   6.549
    1   AR   Ar   80   2.465   1.220   4.824
    1   AR   Ar   81   1.688   1.523   0.390
    1   AR   Ar   82   1.600   2.751   0.713
    1   AR   Ar   83   2.716   2.135   1.469
    1   AR   Ar   84   2.180   2.852  -0.423
    1   AR   Ar   85   1.690   2.134   1.678
    1   AR   Ar   86   1.609   2.897   2.652
    1   AR   Ar   87   2.556   1.267   2.246
    1   AR   Ar   88   2.642   2.952   2.310
    1   AR   Ar   89   1.447   1.979   2.928
    1   AR   Ar   90   2.204   3.276   4.434
    1   AR   Ar   91   2.467   2.170   4.358
    1   AR   Ar   92   2.236   2.457   3.423
    1   AR   Ar   93   1.671   1.658   5.547
    1   AR   Ar   94   2.158   2.949   6.384
    1   AR   Ar   95   2.741   1.904   6.157
    1   AR   Ar   96   2.550   2.473   5.298
    1   AR   Ar   97   1.669   3.931   0.298
    1   AR   Ar   98   2.087   4.490   1.409
    1   AR   Ar   99   2.626   3.327   0.693
    1   AR   Ar  100   2.821   4.558   0.063
    1   AR   Ar  101   1.394   3.208   1.595
    1   AR   Ar  102   1.540   4.640   3.112
    1   AR   Ar  103   2.063   3.979   2.350
    1   AR   Ar  104   3.327   3.928   1.211
    1   AR   Ar  105   1.795   3.430   3.429
    1   AR   Ar  106   1.734   4.225   4.093
    1   AR   Ar  107   2.669   4.145   4.605
    1   AR   Ar  108   2.685   4.282   3.507
    1   AR   Ar  109   1.266   3.942   4.973
    1   AR   Ar  110   1.914   3.848   5.745
    1   AR   Ar  111   3.295   4.382   6.628
    1   AR   Ar  112   2.910   4.796   5.699
    1   AR   Ar  113   2.052   5.361   0.859
    1   AR   Ar  114   1.313   6.279   1.212
    1   AR   Ar  115   3.407   5.586   0.834
    1   AR   Ar  116   3.176   0.328  -0.467
    1   AR   Ar  117   1.555   5.198   2.065
    1   AR   Ar  118   1.829   5.870   2.792
    1   AR   Ar  119   2.619   4.978   2.196
    1   AR   Ar  120   2.351   6.106   1.694
    1   AR   Ar  121   1.644   5.559   3.830
    1   AR   Ar  122   2.029   5.909   4.615
    1   AR   Ar  123   2.573   5.104   4.185
    1   AR   Ar  124   2.527   6.057   3.614
    1   AR   Ar  125   1.791   4.814   4.872
    1   AR   Ar  126   1.460   6.959   6.180
    1   AR   Ar  127   2.500   5.083   6.585
    1   AR   Ar  128   2.328   6.202   5.732
    1   AR   Ar  129   3.259   6.991   0.756
    1   AR   Ar  130   4.156   0.948   0.653
    1   AR   Ar  131   4.587   6.846   1.258
    1   AR   Ar  132   4.417   1.660  -0.584
    1   AR   Ar  133   3.418   6.969   2.507
    1   AR   Ar  134   3.453   1.057   2.787
    1   AR   Ar  135   4.501   0.349   2.711
    1   AR   Ar  136   4.012   0.547   1.888
    1   AR   Ar  137   3.066   0.101   3.438
    1   AR   Ar  138   3.441   0.534   4.680
    1   AR   Ar  139   4.059   6.910   4.223
    1   AR   Ar  140   4.005   0.594   3.681
    1   AR   Ar  141   2.893   7.040   5.488
    1   AR   Ar  142   3.347   0.812   5.829
    1   AR   Ar  143   4.083   0.184   6.834
    1   AR   Ar  144   4.354   1.161   5.617
    1   AR   Ar  145   3.388   1.951   0.242
    1   AR   Ar  146   3.542   2.646   1.040
    1   AR   Ar  147   4.377   1.919   0.756
    1   AR   Ar  148   5.369   2.083  -0.527
    1   AR   Ar  149   3.769   1.606   1.923
    1   AR   Ar  150   3.126   2.262   2.774
    1   AR   Ar  151   4.246   1.740   2.776
    1   AR   Ar  152   4.187   2.538   1.933
    1   AR   Ar  153   3.405   1.767   3.578
    1   AR   Ar  154   3.260   2.875   4.145
    1   AR   Ar  155   4.215   1.950   4.399
    1   AR   Ar  156   4.489   3.219   4.336
    1   AR   Ar  157   3.538   1.862   5.456
    1   AR   Ar  158   3.183   2.749   6.177
    1   AR   Ar  159   4.285   1.193   6.684
    1   AR   Ar  160   3.813   2.897   5.289
    1   AR   Ar  161   3.739   3.547   0.454
    1   AR   Ar  162   4.026   4.667   0.576
    1   AR   Ar  163   4.604   3.917   0.853
    1   AR   Ar  164   4.973   4.973   0.376
    1   AR   Ar  165   3.667   3.289   2.125
    1   AR   Ar  166   3.449   4.530   2.798
    1   AR   Ar  167   4.146   2.922   2.981
    1   AR   Ar  168   4.038   4.347   1.960
    1   AR   Ar  169   2.925   3.262   3.262
    1   AR   Ar  170   3.514   4.705   4.299
    1   AR   Ar  171   3.751   3.755   4.566
    1   AR   Ar  172   4.456   4.237   3.892
    1   AR   Ar  173   2.865   3.506   5.400
    1   AR   Ar  174   4.385   5.054   6.435
    1   AR   Ar  175   4.105   3.933   5.881
    1   AR   Ar  176   4.462   4.971   5.050
    1   AR   Ar  177   4.190   5.614   0.090
    1   AR   Ar  178   3.645   6.466   1.627
    1   AR   Ar  179   4.449   5.546   1.214
    1   AR   Ar  180   4.217   6.859   0.134
    1   AR   Ar  181   3.803   5.461   2.053
    1   AR   Ar  182   2.871   6.016   2.616
    1   AR   Ar  183   4.272   5.224   3.048
    1   AR   Ar  184   4.449   6.359   2.372
    1   AR   Ar  185   3.340   5.305   3.448
    1   AR   Ar  186   3.307   6.130   4.254
    1   AR   Ar  187   4.510   5.339   4.093
    1   AR   Ar  188   4.050   6.607   3.276
    1   AR   Ar  189   3.471   5.514   5.052
    1   AR   Ar  190   3.355   5.924   6.655
    1   AR   Ar  191   4.250   5.940   5.578
    1   AR   Ar  192   3.928   7.012   5.260
    1   AR   Ar  193   5.139   0.168   0.280
    1   AR   Ar  194   4.924   1.067   1.649
    1   AR   Ar  195   5.974   0.540   0.846
    1   AR   Ar  196   5.413   1.332   0.586
    1   AR   Ar  197   5.411   0.136   1.679
    1   AR   Ar  198   5.341   0.909   2.568
    1   AR   Ar  199   6.359   0.625   2.186
    1   AR   Ar  200   6.147   1.371   1.561
    1   AR   Ar  201   5.050   0.423   3.926
    1   AR   Ar  202   4.910   1.058   4.672
    1   AR   Ar  203   6.589   6.853   4.739
    1   AR   Ar  204   6.124   0.392   3.456
    1   AR   Ar  205   5.072   7.047   5.070
    1   AR   Ar  206   5.124   0.303   6.066
    1   AR   Ar  207   6.196   0.041   5.736
    1   AR   Ar  208   5.886   0.681   4.942
    1   AR   Ar  209   6.265   2.318  -1.027
    1   AR   Ar  210   5.448   2.305   1.237
    1   AR   Ar  211   6.252   2.163   0.546
    1   AR   Ar  212   6.375   3.188   0.287
    1   AR   Ar  213   5.112   1.957   2.195
    1   AR   Ar  214   4.974   3.114   1.890
    1   AR   Ar  215   6.271   1.734   2.636
    1   AR   Ar  216   6.577   2.594   1.540
    1   AR   Ar  217   4.867   1.278   3.509
    1   AR   Ar  218   5.313   2.576   4.025
    1   AR   Ar  219   5.941   1.730   3.807
    1   AR   Ar  220   5.084   2.285   3.106
    1   AR   Ar  221   5.358   1.942   5.113
    1   AR   Ar  222   4.249   2.356   6.052
    1   AR   Ar  223   6.325   2.155   6.409
    1   AR   Ar  224   6.684   2.842   5.322
    1   AR   Ar  225   5.650   3.978   0.214
    1   AR   Ar  226   5.240   4.381   1.643
    1   AR   Ar  227   6.423   3.774   1.158
    1   AR   Ar  228   5.968   4.888   0.002
    1   AR   Ar  229   5.489   3.279   0.951
    1   AR   Ar  230   4.810   4.020   2.798
    1   AR   Ar  231   6.706   3.223   3.365
    1   AR   Ar  232   5.945   3.381   2.041
    1   AR   Ar  233   5.691   3.428   3.599
    1   AR   Ar  234   5.923   4.383   4.068
    1   AR   Ar  235   6.646   3.548   4.269
    1   AR   Ar  236   0.011   4.192   3.525
    1   AR   Ar  237   4.974   2.976   5.256
    1   AR   Ar  238   5.315   4.588   5.899
    1   AR   Ar  239   6.272   4.178   6.853
    1   AR   Ar  240   6.250   3.987   5.136
    1   AR   Ar  241   5.455   5.871   0.366
    1   AR   Ar  242   5.170   6.039   1.681
    1   AR   Ar  243   6.362   4.445   2.001
    1   AR   Ar  244   6.096   6.581   0.917
    1   AR   Ar  245   5.541   5.075   2.376
    1   AR   Ar  246   5.409   6.628   2.814
    1   AR   Ar  247   6.237   4.118   3.020
    1   AR   Ar  248   6.133   6.527   2.069
    1   AR   Ar  249   6.237   5.326   3.156
    1   AR   Ar  250   4.712   6.249   4.658
    1   AR   Ar  251   6.493   5.288   4.499
    1   AR   Ar  252   6.053   6.414   3.858
    1   AR   Ar  253   5.567   5.008   4.917
    1   AR   Ar  254   5.209   5.911   6.240
    1   AR   Ar  255   6.198   5.307   5.933
    1   AR   Ar  256   5.855   6.035   5.187
    7.12000  7.12000 12.00000
Argon-slab step 345
  256
    1   AR   Ar    1   0.228   0.310  -0.376
    1   AR   Ar    2   0.059   0.590   0.817
    1   AR   Ar    3   0.156   6.532   0.935
    1   AR   Ar    4   1.116   0.561   0.747
    1   AR   Ar    5   7.101   6.924   2.019
    1   AR   Ar    6   7.101   0.287   2.925
    1   AR   Ar    7   0.830   6.729   2.656
    1   AR   Ar    8   0.956   0.210   1.668
    1   AR   Ar    9   0.234   0.014   4.105
    1   AR   Ar   10   6.985   1.220   4.266
    1   AR   Ar   11   1.346   0.264   4.285
    1   AR   Ar   12   0.901   0.750   3.317
    1   AR   Ar   13   7.063   0.533   5.419
    1   AR   Ar   14   0.206   1.480   6.012
    1   AR   Ar   15   1.823   7.007   7.404
    1   AR   Ar   16   1.050   0.896   5.390
    1   AR   Ar   17   0.226   1.362   0.264
    1   AR   Ar   18   0.350   2.474   0.238
    1   AR   Ar   19   0.656   1.509   1.237
    1   AR   Ar   20   0.713   2.458  -0.837
    1   AR   Ar   21   0.218   0.905   1.973
    1   AR   Ar   22   6.691   2.682   2.556
    1   AR   Ar   23   0.300   1.737   2.778
    1   AR   Ar   24   0.448   2.661   1.810
    1   AR   Ar   25   0.743   1.790   3.859
    1   AR   Ar   26   6.867   2.369   4.107
    1   AR   Ar   27   0.407   1.964   4.896
    1   AR   Ar   28   1.460   2.588   4.133
    1   AR   Ar   29   6.356   1.751   4.943
    1   AR   Ar   30   0.152   2.553   6.401
    1   AR   Ar   31   1.042   1.229   7.200
    1   AR   Ar   32   1.338   2.866   5.154
    1   AR   Ar   33   0.441   3.606  -0.150
    1   AR   Ar   34   0.142   4.515   1.323
    1   AR   Ar   35   0.538   3.671   0.938
    1   AR   Ar   36   1.205   4.653  -0.365
    1   AR   Ar   37   6.960   3.658   2.339
    1   AR   Ar   38   0.504   4.674   2.708
    1   AR   Ar   39   0.801   3.738   2.713
    1   AR   Ar   40   1.123   4.181   1.866
    1   AR   Ar   41   0.536   2.863   3.504
    1   AR   Ar   42   0.218   4.203   4.978
    1   AR   Ar   43   0.377   3.116   4.818
    1   AR   Ar   44   0.853   3.639   4.039
    1   AR   Ar   45   7.035   3.676   5.885
    1   AR   Ar   46   7.059   5.199   6.425
    1   AR   Ar   47   1.000   3.296   6.314
    1   AR   Ar   48   0.980   4.827   5.711
    1   AR   Ar   49   6.795   4.353   0.264
    1   AR   Ar   50   6.949   5.462   0.884
    1   AR   Ar   51   1.238   4.613   0.841
    1   AR   Ar   52   0.837   5.484   0.365
    1   AR   Ar   53   6.898   5.415   2.258
    1   AR   Ar   54   6.730   6.320   2.909
    1   AR   Ar   55   0.796   5.681   2.974
    1   AR   Ar   56   0.662   5.446   1.502
    1   AR   Ar   57   0.922   4.934   4.189
    1   AR   Ar   58   0.120   6.094   4.401
    1   AR   Ar   59   1.051   5.646   4.936
    1   AR   Ar   60   0.941   6.320   3.931
    1   AR   Ar   61   6.797   6.360   5.596
    1   AR   Ar   62   0.748   6.174   6.021
    1   AR   Ar   63   1.900   5.384   5.726
    1   AR   Ar   64   0.804   6.731   5.145
    1   AR   Ar   65   1.045   6.739   0.072
    1   AR   Ar   66   1.870   1.183   1.520
    1   AR   Ar   67   2.668   6.243   0.468
    1   AR   Ar   68   2.838   1.167   1.008
    1   AR   Ar   69   2.095   0.157   0.905
    1   AR   Ar   70   1.487   0.768   2.407
    1   AR   Ar   71   2.392   7.021   2.344
    1   AR   Ar   72   2.930   0.408   1.683
    1   AR   Ar   73   1.767   6.981   3.373
    1   AR   Ar   74   1.579   1.418   4.318
    1   AR   Ar   75   2.408   0.287   4.315
    1   AR   Ar   76   2.130   0.889   3.421
    1   AR   Ar   77   1.797   7.061   5.178
    1   AR   Ar   78   2.191   0.890   6.018
    1   AR   Ar   79   2.491   6.857   6.558
    1   AR   Ar   80   2.439   1.240   4.831
    1   AR   Ar   81   1.681   1.483   0.426
    1   AR   Ar   82   1.621   2.753   0.721
    1   AR   Ar   83   2.708   2.164   1.451
    1   AR   Ar   84   2.173   2.863  -0.437
    1   AR   Ar   85   1.688   2.141   1.642
    1   AR   Ar   86   1.625   2.892   2.628
    1   AR   Ar   87   2.537   1.238   2.256
    1   AR   Ar   88   2.620   2.977   2.302
    1   AR   Ar   89   1.442   1.950   2.905
    1   AR   Ar   90   2.236   3.289   4.407
    1   AR   Ar   91   2.458   2.174   4.360
    1   AR   Ar   92   2.208   2.452   3.414
    1   AR   Ar   93   1.687   1.662   5.514
    1   AR   Ar   94   2.190   2.925   6.427
    1   AR   Ar   95   2.755   1.894   6.165
    1   AR   Ar   96   2.547   2.502   5.344
    1   AR   Ar   97   1.697   3.921   0.276
    1   AR   Ar   98   2.083   4.476   1.423
    1   AR   Ar   99   2.653   3.310   0.663
    1   AR   Ar  100   2.822   4.568   0.020
    1   AR   Ar  101   1.369   3.225   1.635
    1   AR   Ar  102   1.534   4.651   3.133
    1   AR   Ar  103   2.083   3.971   2.374
    1   AR   Ar  104   3.327   3.898   1.204
    1   AR   Ar  105   1.781   3.436   3.427
    1   AR   Ar  106   1.733   4.205   4.084
    1   AR   Ar  107   2.657   4.157   4.618
    1   AR   Ar  108   2.663   4.280   3.533
    1   AR   Ar  109   1.240   3.906   4.968
    1   AR   Ar  110   1.908   3.827   5.722
    1   AR   Ar  111   3.312   4.372   6.633
    1   AR   Ar  112   2.860   4.730   5.695
    1   AR   Ar  113   2.042   5.368   0.888
    1   AR   Ar  114   1.333   6.302   1.205
    1   AR   Ar  115   3.403   5.598   0.835
    1   AR   Ar  116   3.221   0.322  -0.474
    1   AR   Ar  117   1.521   5.212   2.064
    1   AR   Ar  118   1.832   5.892   2.785
    1   AR   Ar  119   2.630   4.983   2.183
    1   AR   Ar  120   2.340   6.099   1.699
    1   AR   Ar  121   1.619   5.544   3.817
    1   AR   Ar  122   2.049   5.945   4.586
    1   AR   Ar  123   2.547   5.095   4.189
    1   AR   Ar  124   2.546   6.103   3.636
    1   AR   Ar  125   1.764   4.813   4.875
    1   AR   Ar  126   1.465   6.974   6.151
    1   AR   Ar  127   2.500   5.080   6.585
    1   AR   Ar  128   2.320   6.219   5.705
    1   AR   Ar  129   3.294   7.008   0.735
    1   AR   Ar  130   4.174   0.954   0.625
    1   AR   Ar  131   4.588   6.864   1.271
    1   AR   Ar  132   4.389   1.663  -0.590
    1   AR   Ar  133   3.432   6.985   2.539
    1   AR   Ar  134   3.453   1.037   2.772
    1   AR   Ar  135   4.531   0.354   2.703
    1   AR   Ar  136   4.049   0.510   1.897
    1   AR   Ar  137   3.066   0.124   3.455
    1   AR   Ar  138   3.429   0.570   4.650
    1   AR   Ar  139   4.041   6.896   4.210
    1   AR   Ar  140   4.018   0.566   3.671
    1   AR   Ar  141   2.928   7.046   5.501
    1   AR   Ar  142   3.317   0.809   5.868
    1   AR   Ar  143   4.090   0.180   6.856
    1   AR   Ar  144   4.419   1.189   5.630
    1   AR   Ar  145   3.377   1.967   0.266
    1   AR   Ar  146   3.522   2.656   1.044
    1   AR   Ar  147   4.364   1.934   0.740
    1   AR   Ar  148   5.373   2.096  -0.497
    1   AR   Ar  149   3.765   1.574   1.907
    1   AR   Ar  150   3.109   2.253   2.772
    1   AR   Ar  151   4.193   1.746   2.757
    1   AR   Ar  152   4.201   2.532   1.930
    1   AR   Ar  153   3.410   1.743   3.580
    1   AR   Ar  154   3.277   2.879   4.151
    1   AR   Ar  155   4.245   1.973   4.427
    1   AR   Ar  156   4.467   3.222   4.343
    1   AR   Ar  157   3.533   1.832   5.456
    1   AR   Ar  158   3.175   2.719   6.179
    1   AR   Ar  159   4.270   1.185   6.678
    1   AR   Ar  160   3.812   2.898   5.291
    1   AR   Ar  161   3.741   3.510   0.436
    1   AR   Ar  162   4.034   4.658   0.562
    1   AR   Ar  163   4.609   3.918   0.846
    1   AR   Ar  164   4.981   4.992   0.394
    1   AR   Ar  165   3.643   3.358   2.133
    1   AR   Ar  166   3.434   4.524   2.821
    1   AR   Ar  167   4.163   2.910   2.985
    1   AR   Ar  168   4.067   4.358   1.920
    1   AR   Ar  169   2.916   3.248   3.242
    1   AR   Ar  170   3.494   4.696   4.312
    1   AR   Ar  171   3.752   3.748   4.595
    1   AR   Ar  172   4.475   4.244   3.877
    1   AR   Ar  173   2.876   3.495   5.425
    1   AR   Ar  174   4.409   5.063   6.446
    1   AR   Ar  175   4.099   3.941   5.844
    1   AR   Ar  176   4.482   4.984   5.052
    1   AR   Ar  177   4.212   5.595   0.068
    1   AR   Ar  178   3.672   6.437   1.639
    1   AR   Ar  179   4.472   5.551   1.240
    1   AR   Ar  180   4.212   6.819   0.115
    1   AR   Ar  181   3.788   5.443   2.074
    1   AR   Ar  182   2.866   6.044   2.589
    1   AR   Ar  183   4.263   5.234   3.016
    1   AR   Ar  184   4.431   6.346   2.355
    1   AR   Ar  185   3.350   5.317   3.425
    1   AR   Ar  186   3.288   6.130   4.246
    1   AR   Ar  187   4.534   5.353   4.062
    1   AR   Ar  188   4.056   6.611   3.277
    1   AR   Ar  189   3.434   5.518   5.059
    1   AR   Ar  190   3.340   5.961   6.686
    1   AR   Ar  191   4.252   5.957   5.582
    1   AR   Ar  192   3.932   6.998   5.233
    1   AR   Ar  193   5.124   0.137   0.269
    1   AR   Ar  194   4.923   1.095   1.648
    1   AR   Ar  195   5.971   0.533   0.822
    1   AR   Ar  196   5.410   1.336   0.557
    1   AR   Ar  197   5.385   0.144   1.656
    1   AR   Ar  198   5.344   0.921   2.550
    1   AR   Ar  199   6.377   0.627   2.192
    1   AR   Ar  200   6.192   1.375   1.542
    1   AR   Ar  201   5.038   0.419   3.951
    1   AR   Ar  202   4.918   1.028   4.676
    1   AR   Ar  203   6.577   6.826   4.738
    1   AR   Ar  204   6.132   0.376   3.453
    1   AR   Ar  205   5.080   7.060   5.051
    1   AR   Ar  206   5.108   0.277   6.046
    1   AR   Ar  207   6.180   0.061   5.752
    1   AR   Ar  208   5.886   0.681   4.909
    1   AR   Ar  209   6.298   2.298  -1.006
    1   AR   Ar  210   5.447   2.294   1.194
    1   AR   Ar  211   6.237   2.145   0.568
    1   AR   Ar  212   6.375   3.206   0.276
    1   AR   Ar  213   5.084   1.926   2.199
    1   AR   Ar  214   4.967   3.121   1.871
    1   AR   Ar  215   6.288   1.763   2.648
    1   AR   Ar  216   6.565   2.586   1.514
    1   AR   Ar  217   4.838   1.313   3.515
    1   AR   Ar  218   5.309   2.565   4.026
    1   AR   Ar  219   5.942   1.745   3.825
    1   AR   Ar  220   5.107   2.274   3.108
    1   AR   Ar  221   5.352   1.934   5.109
    1   AR   Ar  222   4.278   2.339   6.073
    1   AR   Ar  223   6.344   2.168   6.400
    1   AR   Ar  224   6.706   2.846   5.319
    1   AR   Ar  225   5.644   3.943   0.232
    1   AR   Ar  226   5.223   4.392   1.647
    1   AR   Ar  227   6.429   3.748   1.190
    1   AR   Ar  228   5.980   4.890  -0.005
    1   AR   Ar  229   5.507   3.274   0.955
    1   AR   Ar  230   4.778   4.014   2.792
    1   AR   Ar  231   6.702   3.230   3.375
    1   AR   Ar  232   5.976   3.384   2.008
    1   AR   Ar  233   5.707   3.416   3.608
    1   AR   Ar  234   5.916   4.374   4.100
    1   AR   Ar  235   6.645   3.571   4.286
    1   AR   Ar  236   0.022   4.221   3.519
    1   AR   Ar  237   4.992   2.939   5.270
    1   AR   Ar  238   5.317   4.552   5.929
    1   AR   Ar  239   6.284   4.179   6.895
    1   AR   Ar  240   6.261   3.979   5.121
    1   AR   Ar  241   5.494   5.880   0.325
    1   AR   Ar  242   5.164   6.014   1.686
    1   AR   Ar  243   6.358   4.433   2.002
    1   AR   Ar  244   6.116   6.594   0.911
    1   AR   Ar  245   5.518   5.085   2.358
    1   AR   Ar  246   5.403   6.666   2.799
    1   AR   Ar  247   6.219   4.093   2.994
    1   AR   Ar  248   6.144   6.515   2.090
    1   AR   Ar  249   6.220   5.316   3.170
    1   AR   Ar  250   4.709   6.264   4.634
    1   AR   Ar  251   6.471   5.318   4.502
    1   AR   Ar  252   6.064   6.422   3.890
    1   AR   Ar  253   5.552   5.003   4.914
    1   AR   Ar  254   5.208   5.909   6.236
    1   AR   Ar  255   6.186   5.309   5.951
    1   AR   Ar  256   5.872   6.012   5.211
    7.12000  7.12000 12.00000
Argon-slab step 350
  256
    1   AR   Ar    1   0.232   0.300  -0.376
    1   AR   Ar    2   0.042   0.577   0.831
    1   AR   Ar    3   0.121   6.512   0.964
    1   AR   Ar    4   1.144   0.538   0.768
    1   AR   Ar    5   7.089   6.890   2.031
    1   AR   Ar    6   7.094   0.298   2.931
    1   AR   Ar    7   0.832   6.736   2.654
    1   AR   Ar    8   0.990   0.183   1.651
    1   AR   Ar    9   0.253   7.113   4.137
    1   AR   Ar   10   7.002   1.176   4.306
    1   AR   Ar   11   1.344   0.249   4.301
    1   AR   Ar   12   0.903   0.727   3.319
    1   AR   Ar   13   7.064   0.557   5.404
    1   AR   Ar   14   0.190   1.485   6.022
    1   AR   Ar   15   1.844   7.009   7.449
    1   AR   Ar   16   1.053   0.906   5.364
    1   AR   Ar   17   0.205   1.348   0.285
    1   AR   Ar   18   0.341   2.452   0.249
    1   AR   Ar   19   0.639   1.517   1.197
    1   AR   Ar   20   0.698   2.469  -0.816
    1   AR   Ar   21   0.196   0.870   2.021
    1   AR   Ar   22   6.715   2.661   2.595
    1   AR   Ar   23   0.249   1.719   2.768
    1   AR   Ar   24   0.426   2.644   1.806
    1   AR   Ar   25   0.712   1.813   3.875
    1   AR   Ar   26   6.860   2.382   4.085
    1   AR   Ar   27   0.386   1.974   4.906
    1   AR   Ar   28   1.439   2.593   4.167
    1   AR   Ar   29   6.319   1.739   4.909
    1   AR   Ar   30   0.138   2.555   6.398
    1   AR   Ar   31   1.047   1.207   7.229
    1   AR   Ar   32   1.343   2.840   5.164
    1   AR   Ar   33   0.454   3.602  -0.156
    1   AR   Ar   34   0.112   4.537   1.296
    1   AR   Ar   35   0.538   3.677   0.898
    1   AR   Ar   36   1.218   4.693  -0.403
    1   AR   Ar   37   6.970   3.670   2.376
    1   AR   Ar   38   0.504   4.720   2.687
    1   AR   Ar   39   0.799   3.733   2.730
    1   AR   Ar   40   1.139   4.154   1.857
    1   AR   Ar   41   0.546   2.848   3.463
    1   AR   Ar   42   0.206   4.208   4.977
    1   AR   Ar   43   0.386   3.118   4.828
    1   AR   Ar   44   0.849   3.602   4.045
    1   AR   Ar   45   7.051   3.669   5.901
    1   AR   Ar   46   7.031   5.148   6.412
    1   AR   Ar   47   1.003   3.272   6.319
    1   AR   Ar   48   1.030   4.814   5.720
    1   AR   Ar   49   6.793   4.354   0.219
    1   AR   Ar   50   6.921   5.440   0.890
    1   AR   Ar   51   1.233   4.622   0.823
    1   AR   Ar   52   0.845   5.483   0.341
    1   AR   Ar   53   6.929   5.460   2.243
    1   AR   Ar   54   6.728   6.308   2.951
    1   AR   Ar   55   0.798   5.658   3.022
    1   AR   Ar   56   0.649   5.467   1.534
    1   AR   Ar   57   0.943   4.897   4.177
    1   AR   Ar   58   0.136   6.093   4.408
    1   AR   Ar   59   1.088   5.640   4.897
    1   AR   Ar   60   0.944   6.313   3.927
    1   AR   Ar   61   6.829   6.390   5.621
    1   AR   Ar   62   0.787   6.160   6.003
    1   AR   Ar   63   1.871   5.368   5.741
    1   AR   Ar   64   0.821   6.758   5.127
    1   AR   Ar   65   1.020   6.753   0.071
    1   AR   Ar   66   1.897   1.200   1.534
    1   AR   Ar   67   2.674   6.222   0.457
    1   AR   Ar   68   2.818   1.180   1.000
    1   AR   Ar   69   2.113   0.182   0.909
    1   AR   Ar   70   1.497   0.767   2.392
    1   AR   Ar   71   2.349   7.013   2.343
    1   AR   Ar   72   2.900   0.401   1.704
    1   AR   Ar   73   1.782   6.983   3.368
    1   AR   Ar   74   1.591   1.429   4.327
    1   AR   Ar   75   2.409   0.283   4.305
    1   AR   Ar   76   2.100   0.881   3.421
    1   AR   Ar   77   1.791   7.075   5.173
    1   AR   Ar   78   2.197   0.863   6.016
    1   AR   Ar   79   2.514   6.857   6.537
    1   AR   Ar   80   2.421   1.256   4.844
    1   AR   Ar   81   1.674   1.444   0.465
    1   AR   Ar   82   1.661   2.772   0.728
    1   AR   Ar   83   2.701   2.190   1.437
    1   AR   Ar   84   2.165   2.875  -0.449
    1   AR   Ar   85   1.679   2.159   1.611
    1   AR   Ar   86   1.636   2.890   2.592
    1   AR   Ar   87   2.523   1.213   2.274
    1   AR   Ar   88   2.593   3.007   2.283
    1   AR   Ar   89   1.432   1.909   2.885
    1   AR   Ar   90   2.265   3.292   4.379
    1   AR   Ar   91   2.449   2.177   4.363
    1   AR   Ar   92   2.186   2.447   3.400
    1   AR   Ar   93   1.706   1.678   5.480
    1   AR   Ar   94   2.218   2.902   6.467
    1   AR   Ar   95   2.761   1.877   6.182
    1   AR   Ar   96   2.540   2.532   5.388
    1   AR   Ar   97   1.730   3.904   0.251
    1   AR   Ar   98   2.076   4.470   1.443
    1   AR   Ar   99   2.676   3.290   0.632
    1   AR   Ar  100   2.824   4.577  -0.021
    1   AR   Ar  101   1.346   3.239   1.675
    1   AR   Ar  102   1.527   4.662   3.151
    1   AR   Ar  103   2.102   3.962   2.401
    1   AR   Ar  104   3.320   3.880   1.215
    1   AR   Ar  105   1.769   3.447   3.430
    1   AR   Ar  106   1.733   4.188   4.070
    1   AR   Ar  107   2.647   4.174   4.637
    1   AR   Ar  108   2.653   4.262   3.545
    1   AR   Ar  109   1.208   3.870   4.964
    1   AR   Ar  110   1.906   3.805   5.704
    1   AR   Ar  111   3.331   4.361   6.637
    1   AR   Ar  112   2.812   4.662   5.683
    1   AR   Ar  113   2.033   5.380   0.917
    1   AR   Ar  114   1.353   6.326   1.197
    1   AR   Ar  115   3.401   5.609   0.839
    1   AR   Ar  116   3.267   0.315  -0.480
    1   AR   Ar  117   1.497   5.220   2.066
    1   AR   Ar  118   1.837   5.917   2.780
    1   AR   Ar  119   2.641   4.990   2.173
    1   AR   Ar  120   2.326   6.092   1.701
    1   AR   Ar  121   1.594   5.523   3.788
    1   AR   Ar  122   2.076   5.989   4.574
    1   AR   Ar  123   2.519   5.092   4.190
    1   AR   Ar  124   2.551   6.151   3.645
    1   AR   Ar  125   1.740   4.817   4.882
    1   AR   Ar  126   1.470   6.989   6.125
    1   AR   Ar  127   2.498   5.081   6.590
    1   AR   Ar  128   2.313   6.233   5.690
    1   AR   Ar  129   3.323   7.010   0.730
    1   AR   Ar  130   4.185   0.954   0.598
    1   AR   Ar  131   4.577   6.876   1.276
    1   AR   Ar  132   4.348   1.652  -0.605
    1   AR   Ar  133   3.449   7.002   2.565
    1   AR   Ar  134   3.451   1.008   2.758
    1   AR   Ar  135   4.564   0.350   2.714
    1   AR   Ar  136   4.053   0.494   1.904
    1   AR   Ar  137   3.079   0.160   3.472
    1   AR   Ar  138   3.415   0.611   4.618
    1   AR   Ar  139   4.022   6.876   4.213
    1   AR   Ar  140   4.031   0.556   3.648
    1   AR   Ar  141   2.958   7.052   5.511
    1   AR   Ar  142   3.290   0.811   5.908
    1   AR   Ar  143   4.097   0.171   6.877
    1   AR   Ar  144   4.485   1.217   5.640
    1   AR   Ar  145   3.364   1.980   0.288
    1   AR   Ar  146   3.506   2.670   1.051
    1   AR   Ar  147   4.354   1.958   0.728
    1   AR   Ar  148   5.378   2.110  -0.464
    1   AR   Ar  149   3.751   1.539   1.873
    1   AR   Ar  150   3.096   2.239   2.766
    1   AR   Ar  151   4.148   1.759   2.752
    1   AR   Ar  152   4.207   2.513   1.927
    1   AR   Ar  153   3.422   1.743   3.599
    1   AR   Ar  154   3.296   2.880   4.161
    1   AR   Ar  155   4.276   1.997   4.454
    1   AR   Ar  156   4.471   3.203   4.341
    1   AR   Ar  157   3.528   1.802   5.453
    1   AR   Ar  158   3.189   2.718   6.182
    1   AR   Ar  159   4.255   1.181   6.673
    1   AR   Ar  160   3.812   2.899   5.290
    1   AR   Ar  161   3.750   3.465   0.398
    1   AR   Ar  162   4.026   4.655   0.547
    1   AR   Ar  163   4.616   3.914   0.865
    1   AR   Ar  164   4.996   5.004   0.414
    1   AR   Ar  165   3.614   3.433   2.143
    1   AR   Ar  166   3.421   4.511   2.837
    1   AR   Ar  167   4.180   2.896   2.991
    1   AR   Ar  168   4.096   4.365   1.875
    1   AR   Ar  169   2.909   3.238   3.223
    1   AR   Ar  170   3.479   4.668   4.317
    1   AR   Ar  171   3.726   3.756   4.636
    1   AR   Ar  172   4.494   4.251   3.862
    1   AR   Ar  173   2.890   3.485   5.450
    1   AR   Ar  174   4.429   5.073   6.438
    1   AR   Ar  175   4.092   3.948   5.806
    1   AR   Ar  176   4.498   4.996   5.056
    1   AR   Ar  177   4.231   5.581   0.044
    1   AR   Ar  178   3.695   6.407   1.648
    1   AR   Ar  179   4.477   5.543   1.252
    1   AR   Ar  180   4.202   6.776   0.096
    1   AR   Ar  181   3.769   5.426   2.095
    1   AR   Ar  182   2.868   6.071   2.566
    1   AR   Ar  183   4.262   5.243   2.979
    1   AR   Ar  184   4.444   6.348   2.387
    1   AR   Ar  185   3.351   5.339   3.411
    1   AR   Ar  186   3.282   6.132   4.245
    1   AR   Ar  187   4.557   5.368   4.030
    1   AR   Ar  188   4.062   6.610   3.273
    1   AR   Ar  189   3.395   5.518   5.069
    1   AR   Ar  190   3.324   5.998   6.715
    1   AR   Ar  191   4.256   5.974   5.589
    1   AR   Ar  192   3.942   6.981   5.213
    1   AR   Ar  193   5.113   0.108   0.260
    1   AR   Ar  194   4.918   1.121   1.634
    1   AR   Ar  195   5.973   0.523   0.801
    1   AR   Ar  196   5.402   1.346   0.527
    1   AR   Ar  197   5.391   0.141   1.629
    1   AR   Ar  198   5.358   0.935   2.537
    1   AR   Ar  199   6.388   0.622   2.204
    1   AR   Ar  200   6.235   1.386   1.518
    1   AR   Ar  201   5.031   0.393   3.964
    1   AR   Ar  202   4.919   1.012   4.693
    1   AR   Ar  203   6.562   6.835   4.733
    1   AR   Ar  204   6.138   0.361   3.450
    1   AR   Ar  205   5.094   7.084   5.035
    1   AR   Ar  206   5.085   0.258   6.042
    1   AR   Ar  207   6.158   0.082   5.770
    1   AR   Ar  208   5.895   0.680   4.881
    1   AR   Ar  209   6.333   2.279  -0.985
    1   AR   Ar  210   5.439   2.289   1.168
    1   AR   Ar  211   6.228   2.124   0.586
    1   AR   Ar  212   6.380   3.220   0.264
    1   AR   Ar  213   5.060   1.941   2.172
    1   AR   Ar  214   4.968   3.138   1.852
    1   AR   Ar  215   6.299   1.782   2.659
    1   AR   Ar  216   6.548   2.578   1.484
    1   AR   Ar  217   4.809   1.354   3.520
    1   AR   Ar  218   5.325   2.565   4.037
    1   AR   Ar  219   5.964   1.765   3.848
    1   AR   Ar  220   5.153   2.271   3.116
    1   AR   Ar  221   5.342   1.926   5.105
    1   AR   Ar  222   4.308   2.320   6.095
    1   AR   Ar  223   6.356   2.177   6.389
    1   AR   Ar  224   6.715   2.844   5.321
    1   AR   Ar  225   5.634   3.915   0.245
    1   AR   Ar  226   5.206   4.399   1.647
    1   AR   Ar  227   6.442   3.725   1.214
    1   AR   Ar  228   5.994   4.897  -0.011
    1   AR   Ar  229   5.522   3.269   0.964
    1   AR   Ar  230   4.747   4.008   2.784
    1   AR   Ar  231   6.699   3.237   3.380
    1   AR   Ar  232   6.004   3.384   1.984
    1   AR   Ar  233   5.719   3.406   3.617
    1   AR   Ar  234   5.909   4.366   4.130
    1   AR   Ar  235   6.648   3.595   4.309
    1   AR   Ar  236   0.034   4.249   3.517
    1   AR   Ar  237   5.009   2.904   5.284
    1   AR   Ar  238   5.319   4.516   5.958
    1   AR   Ar  239   6.296   4.179   6.934
    1   AR   Ar  240   6.277   3.967   5.107
    1   AR   Ar  241   5.535   5.894   0.285
    1   AR   Ar  242   5.179   6.000   1.700
    1   AR   Ar  243   6.350   4.420   2.000
    1   AR   Ar  244   6.136   6.606   0.908
    1   AR   Ar  245   5.495   5.098   2.343
    1   AR   Ar  246   5.394   6.706   2.788
    1   AR   Ar  247   6.198   4.073   2.967
    1   AR   Ar  248   6.153   6.498   2.097
    1   AR   Ar  249   6.217   5.312   3.170
    1   AR   Ar  250   4.707   6.279   4.599
    1   AR   Ar  251   6.450   5.348   4.505
    1   AR   Ar  252   6.075   6.429   3.921
    1   AR   Ar  253   5.535   4.997   4.913
    1   AR   Ar  254   5.222   5.919   6.245
    1   AR   Ar  255   6.164   5.311   5.964
    1   AR   Ar  256   5.843   6.036   5.168
    7.12000  7.12000 12.00000
Argon-slab step 355
  256
    1   AR   Ar    1   0.236   0.291  -0.373
    1   AR   Ar    2   0.021   0.548   0.857
    1   AR   Ar    3   0.089   6.492   0.994
    1   AR   Ar    4   1.170   0.522   0.773
    1   AR   Ar    5   7.088   6.863   2.034
    1   AR   Ar    6   7.089   0.309   2.944
    1   AR   Ar    7   0.836   6.743   2.654
    1   AR   Ar    8   1.021   0.148   1.648
    1   AR   Ar    9   0.273   7.097   4.166
    1   AR   Ar   10   7.020   1.131   4.345
    1   AR   Ar   11   1.355   0.252   4.287
    1   AR   Ar   12   0.905   0.704   3.323
    1   AR   Ar   13   7.067   0.580   5.386
    1   AR   Ar   14   0.174   1.473   6.047
    1   AR   Ar   15   1.865   7.011   7.492
    1   AR   Ar   16   1.053   0.910   5.335
    1   AR   Ar   17   0.186   1.347   0.290
    1   AR   Ar   18   0.331   2.432   0.261
    1   AR   Ar   19   0.626   1.526   1.163
    1   AR   Ar   20   0.682   2.481  -0.795
    1   AR   Ar   21   0.187   0.839   2.066
    1   AR   Ar   22   6.745   2.643   2.621
    1   AR   Ar   23   0.202   1.702   2.760
    1   AR   Ar   24   0.407   2.626   1.804
    1   AR   Ar   25   0.678   1.836   3.887
    1   AR   Ar   26   6.854   2.395   4.065
    1   AR   Ar   27   0.365   1.985   4.918
    1   AR   Ar   28   1.415   2.598   4.197
    1   AR   Ar   29   6.289   1.728   4.874
    1   AR   Ar   30   0.137   2.563   6.394
    1   AR   Ar   31   1.047   1.194   7.244
    1   AR   Ar   32   1.352   2.812   5.181
    1   AR   Ar   33   0.466   3.597  -0.163
    1   AR   Ar   34   0.083   4.558   1.273
    1   AR   Ar   35   0.540   3.679   0.860
    1   AR   Ar   36   1.231   4.733  -0.439
    1   AR   Ar   37   6.980   3.680   2.409
    1   AR   Ar   38   0.477   4.700   2.676
    1   AR   Ar   39   0.805   3.726   2.755
    1   AR   Ar   40   1.149   4.149   1.849
    1   AR   Ar   41   0.558   2.824   3.416
    1   AR   Ar   42   0.194   4.216   4.974
    1   AR   Ar   43   0.403   3.122   4.833
    1   AR   Ar   44   0.845   3.572   4.047
    1   AR   Ar   45   7.067   3.663   5.919
    1   AR   Ar   46   7.012   5.094   6.403
    1   AR   Ar   47   1.006   3.249   6.322
    1   AR   Ar   48   1.060   4.802   5.725
    1   AR   Ar   49   6.800   4.348   0.179
    1   AR   Ar   50   6.888   5.422   0.892
    1   AR   Ar   51   1.231   4.623   0.812
    1   AR   Ar   52   0.854   5.487   0.313
    1   AR   Ar   53   6.958   5.504   2.228
    1   AR   Ar   54   6.729   6.297   2.997
    1   AR   Ar   55   0.799   5.638   3.071
    1   AR   Ar   56   0.636   5.489   1.563
    1   AR   Ar   57   0.952   4.850   4.166
    1   AR   Ar   58   0.140   6.084   4.425
    1   AR   Ar   59   1.123   5.641   4.860
    1   AR   Ar   60   0.961   6.314   3.914
    1   AR   Ar   61   6.865   6.414   5.648
    1   AR   Ar   62   0.826   6.142   5.986
    1   AR   Ar   63   1.842   5.345   5.758
    1   AR   Ar   64   0.831   6.785   5.106
    1   AR   Ar   65   1.014   6.758   0.048
    1   AR   Ar   66   1.915   1.206   1.533
    1   AR   Ar   67   2.673   6.203   0.444
    1   AR   Ar   68   2.800   1.195   0.988
    1   AR   Ar   69   2.134   0.206   0.915
    1   AR   Ar   70   1.507   0.764   2.383
    1   AR   Ar   71   2.297   7.001   2.351
    1   AR   Ar   72   2.879   0.397   1.718
    1   AR   Ar   73   1.796   6.981   3.363
    1   AR   Ar   74   1.596   1.441   4.332
    1   AR   Ar   75   2.411   0.277   4.295
    1   AR   Ar   76   2.070   0.877   3.420
    1   AR   Ar   77   1.797   7.091   5.166
    1   AR   Ar   78   2.203   0.834   6.013
    1   AR   Ar   79   2.540   6.850   6.509
    1   AR   Ar   80   2.423   1.259   4.860
    1   AR   Ar   81   1.681   1.409   0.470
    1   AR   Ar   82   1.704   2.796   0.734
    1   AR   Ar   83   2.692   2.214   1.425
    1   AR   Ar   84   2.157   2.887  -0.458
    1   AR   Ar   85   1.661   2.187   1.584
    1   AR   Ar   86   1.653   2.883   2.566
    1   AR   Ar   87   2.517   1.191   2.304
    1   AR   Ar   88   2.568   3.038   2.252
    1   AR   Ar   89   1.419   1.861   2.864
    1   AR   Ar   90   2.291   3.285   4.351
    1   AR   Ar   91   2.442   2.182   4.368
    1   AR   Ar   92   2.166   2.441   3.384
    1   AR   Ar   93   1.720   1.677   5.463
    1   AR   Ar   94   2.213   2.904   6.471
    1   AR   Ar   95   2.754   1.842   6.204
    1   AR   Ar   96   2.528   2.557   5.426
    1   AR   Ar   97   1.766   3.882   0.226
    1   AR   Ar   98   2.062   4.480   1.470
    1   AR   Ar   99   2.696   3.268   0.599
    1   AR   Ar  100   2.825   4.586  -0.059
    1   AR   Ar  101   1.327   3.237   1.707
    1   AR   Ar  102   1.540   4.669   3.142
    1   AR   Ar  103   2.120   3.953   2.432
    1   AR   Ar  104   3.312   3.867   1.233
    1   AR   Ar  105   1.758   3.453   3.427
    1   AR   Ar  106   1.734   4.178   4.062
    1   AR   Ar  107   2.638   4.192   4.666
    1   AR   Ar  108   2.648   4.253   3.560
    1   AR   Ar  109   1.177   3.838   4.960
    1   AR   Ar  110   1.905   3.784   5.689
    1   AR   Ar  111   3.351   4.349   6.640
    1   AR   Ar  112   2.763   4.592   5.665
    1   AR   Ar  113   2.022   5.395   0.944
    1   AR   Ar  114   1.366   6.347   1.195
    1   AR   Ar  115   3.405   5.616   0.846
    1   AR   Ar  116   3.314   0.308  -0.483
    1   AR   Ar  117   1.508   5.216   2.080
    1   AR   Ar  118   1.842   5.945   2.778
    1   AR   Ar  119   2.644   4.995   2.193
    1   AR   Ar  120   2.311   6.085   1.698
    1   AR   Ar  121   1.578   5.505   3.751
    1   AR   Ar  122   2.103   6.038   4.571
    1   AR   Ar  123   2.490   5.097   4.190
    1   AR   Ar  124   2.539   6.201   3.636
    1   AR   Ar  125   1.720   4.820   4.890
    1   AR   Ar  126   1.475   7.006   6.106
    1   AR   Ar  127   2.496   5.085   6.598
    1   AR   Ar  128   2.302   6.237   5.694
    1   AR   Ar  129   3.346   7.002   0.738
    1   AR   Ar  130   4.175   0.964   0.576
    1   AR   Ar  131   4.553   6.882   1.273
    1   AR   Ar  132   4.308   1.641  -0.617
    1   AR   Ar  133   3.465   7.020   2.581
    1   AR   Ar  134   3.446   0.973   2.747
    1   AR   Ar  135   4.598   0.338   2.739
    1   AR   Ar  136   4.048   0.479   1.896
    1   AR   Ar  137   3.087   0.195   3.492
    1   AR   Ar  138   3.400   0.654   4.586
    1   AR   Ar  139   3.997   6.858   4.225
    1   AR   Ar  140   4.043   0.560   3.618
    1   AR   Ar  141   2.981   7.056   5.518
    1   AR   Ar  142   3.267   0.819   5.949
    1   AR   Ar  143   4.104   0.159   6.897
    1   AR   Ar  144   4.550   1.246   5.649
    1   AR   Ar  145   3.350   1.989   0.308
    1   AR   Ar  146   3.496   2.688   1.062
    1   AR   Ar  147   4.339   1.982   0.726
    1   AR   Ar  148   5.382   2.122  -0.427
    1   AR   Ar  149   3.731   1.501   1.827
    1   AR   Ar  150   3.086   2.223   2.755
    1   AR   Ar  151   4.112   1.778   2.757
    1   AR   Ar  152   4.208   2.494   1.939
    1   AR   Ar  153   3.440   1.758   3.629
    1   AR   Ar  154   3.316   2.879   4.173
    1   AR   Ar  155   4.308   2.022   4.482
    1   AR   Ar  156   4.485   3.174   4.333
    1   AR   Ar  157   3.524   1.773   5.446
    1   AR   Ar  158   3.222   2.739   6.186
    1   AR   Ar  159   4.239   1.181   6.667
    1   AR   Ar  160   3.816   2.914   5.304
    1   AR   Ar  161   3.762   3.419   0.352
    1   AR   Ar  162   4.007   4.656   0.534
    1   AR   Ar  163   4.630   3.902   0.888
    1   AR   Ar  164   5.017   5.010   0.439
    1   AR   Ar  165   3.585   3.506   2.155
    1   AR   Ar  166   3.411   4.491   2.847
    1   AR   Ar  167   4.197   2.882   2.996
    1   AR   Ar  168   4.114   4.361   1.815
    1   AR   Ar  169   2.903   3.232   3.209
    1   AR   Ar  170   3.470   4.644   4.315
    1   AR   Ar  171   3.690   3.767   4.685
    1   AR   Ar  172   4.512   4.259   3.847
    1   AR   Ar  173   2.909   3.482   5.475
    1   AR   Ar  174   4.443   5.083   6.403
    1   AR   Ar  175   4.084   3.957   5.766
    1   AR   Ar  176   4.510   5.008   5.062
    1   AR   Ar  177   4.247   5.573   0.020
    1   AR   Ar  178   3.713   6.378   1.654
    1   AR   Ar  179   4.465   5.525   1.253
    1   AR   Ar  180   4.187   6.730   0.079
    1   AR   Ar  181   3.746   5.408   2.114
    1   AR   Ar  182   2.877   6.095   2.548
    1   AR   Ar  183   4.271   5.251   2.944
    1   AR   Ar  184   4.460   6.349   2.412
    1   AR   Ar  185   3.343   5.369   3.404
    1   AR   Ar  186   3.290   6.134   4.255
    1   AR   Ar  187   4.578   5.381   3.996
    1   AR   Ar  188   4.068   6.604   3.269
    1   AR   Ar  189   3.390   5.520   5.082
    1   AR   Ar  190   3.307   6.036   6.743
    1   AR   Ar  191   4.249   5.944   5.562
    1   AR   Ar  192   3.959   6.964   5.200
    1   AR   Ar  193   5.107   0.081   0.255
    1   AR   Ar  194   4.908   1.141   1.607
    1   AR   Ar  195   5.981   0.514   0.782
    1   AR   Ar  196   5.389   1.359   0.498
    1   AR   Ar  197   5.412   0.143   1.610
    1   AR   Ar  198   5.382   0.954   2.530
    1   AR   Ar  199   6.383   0.609   2.220
    1   AR   Ar  200   6.275   1.401   1.490
    1   AR   Ar  201   5.030   0.352   3.964
    1   AR   Ar  202   4.911   0.995   4.684
    1   AR   Ar  203   6.542   6.850   4.732
    1   AR   Ar  204   6.142   0.345   3.447
    1   AR   Ar  205   5.111   7.114   5.020
    1   AR   Ar  206   5.062   0.240   6.051
    1   AR   Ar  207   6.133   0.102   5.787
    1   AR   Ar  208   5.932   0.668   4.879
    1   AR   Ar  209   6.369   2.259  -0.962
    1   AR   Ar  210   5.430   2.268   1.184
    1   AR   Ar  211   6.211   2.124   0.592
    1   AR   Ar  212   6.391   3.229   0.251
    1   AR   Ar  213   5.040   1.972   2.139
    1   AR   Ar  214   4.974   3.161   1.835
    1   AR   Ar  215   6.301   1.788   2.670
    1   AR   Ar  216   6.528   2.571   1.455
    1   AR   Ar  217   4.780   1.393   3.526
    1   AR   Ar  218   5.338   2.565   4.065
    1   AR   Ar  219   5.986   1.780   3.869
    1   AR   Ar  220   5.198   2.269   3.119
    1   AR   Ar  221   5.324   1.917   5.100
    1   AR   Ar  222   4.338   2.300   6.116
    1   AR   Ar  223   6.356   2.182   6.376
    1   AR   Ar  224   6.711   2.833   5.328
    1   AR   Ar  225   5.621   3.900   0.250
    1   AR   Ar  226   5.188   4.400   1.645
    1   AR   Ar  227   6.469   3.710   1.220
    1   AR   Ar  228   6.009   4.887  -0.012
    1   AR   Ar  229   5.537   3.260   0.981
    1   AR   Ar  230   4.715   4.002   2.775
    1   AR   Ar  231   6.701   3.247   3.387
    1   AR   Ar  232   6.020   3.375   1.980
    1   AR   Ar  233   5.725   3.399   3.626
    1   AR   Ar  234   5.903   4.358   4.156
    1   AR   Ar  235   6.660   3.612   4.324
    1   AR   Ar  236   0.045   4.276   3.517
    1   AR   Ar  237   5.023   2.871   5.298
    1   AR   Ar  238   5.321   4.482   5.986
    1   AR   Ar  239   6.308   4.181   6.972
    1   AR   Ar  240   6.283   3.962   5.112
    1   AR   Ar  241   5.576   5.911   0.246
    1   AR   Ar  242   5.213   5.998   1.724
    1   AR   Ar  243   6.331   4.388   1.987
    1   AR   Ar  244   6.155   6.616   0.908
    1   AR   Ar  245   5.473   5.114   2.331
    1   AR   Ar  246   5.384   6.742   2.782
    1   AR   Ar  247   6.173   4.058   2.942
    1   AR   Ar  248   6.163   6.462   2.083
    1   AR   Ar  249   6.240   5.325   3.147
    1   AR   Ar  250   4.710   6.280   4.565
    1   AR   Ar  251   6.432   5.378   4.505
    1   AR   Ar  252   6.085   6.433   3.947
    1   AR   Ar  253   5.520   4.990   4.915
    1   AR   Ar  254   5.236   5.929   6.251
    1   AR   Ar  255   6.132   5.314   5.971
    1   AR   Ar  256   5.812   6.063   5.124
    7.12000  7.12000 12.00000
Argon-slab step 360
  256
    1   AR   Ar    1   0.240   0.284  -0.368
    1   AR   Ar    2   7.118   0.509   0.892
    1   AR   Ar    3   0.062   6.473   1.024
    1   AR   Ar    4   1.188   0.519   0.763
    1   AR   Ar    5   7.115   6.868   2.019
    1   AR   Ar    6   7.086   0.318   2.962
    1   AR   Ar    7   0.835   6.751   2.649
    1   AR   Ar    8   1.046   0.107   1.661
    1   AR   Ar    9   0.295   7.088   4.191
    1   AR   Ar   10   7.038   1.083   4.383
    1   AR   Ar   11   1.346   0.273   4.267
    1   AR   Ar   12   0.910   0.682   3.328
    1   AR   Ar   13   7.070   0.603   5.365
    1   AR   Ar   14   0.158   1.461   6.071
    1   AR   Ar   15   1.886   7.013   7.534
    1   AR   Ar   16   1.049   0.908   5.305
    1   AR   Ar   17   0.163   1.352   0.280
    1   AR   Ar   18   0.320   2.414   0.275
    1   AR   Ar   19   0.618   1.536   1.139
    1   AR   Ar   20   0.666   2.493  -0.773
    1   AR   Ar   21   0.197   0.814   2.103
    1   AR   Ar   22   6.782   2.632   2.636
    1   AR   Ar   23   0.161   1.684   2.753
    1   AR   Ar   24   0.391   2.609   1.803
    1   AR   Ar   25   0.645   1.858   3.897
    1   AR   Ar   26   6.836   2.411   4.065
    1   AR   Ar   27   0.344   1.996   4.933
    1   AR   Ar   28   1.391   2.603   4.219
    1   AR   Ar   29   6.272   1.730   4.851
    1   AR   Ar   30   0.148   2.577   6.388
    1   AR   Ar   31   1.039   1.196   7.241
    1   AR   Ar   32   1.365   2.783   5.207
    1   AR   Ar   33   0.478   3.590  -0.174
    1   AR   Ar   34   0.058   4.571   1.256
    1   AR   Ar   35   0.543   3.680   0.829
    1   AR   Ar   36   1.243   4.771  -0.472
    1   AR   Ar   37   6.992   3.688   2.438
    1   AR   Ar   38   0.451   4.684   2.658
    1   AR   Ar   39   0.818   3.738   2.777
    1   AR   Ar   40   1.150   4.171   1.843
    1   AR   Ar   41   0.571   2.795   3.364
    1   AR   Ar   42   0.183   4.226   4.970
    1   AR   Ar   43   0.420   3.122   4.837
    1   AR   Ar   44   0.841   3.548   4.039
    1   AR   Ar   45   7.086   3.657   5.937
    1   AR   Ar   46   7.002   5.038   6.396
    1   AR   Ar   47   1.010   3.226   6.322
    1   AR   Ar   48   1.055   4.788   5.724
    1   AR   Ar   49   6.819   4.333   0.145
    1   AR   Ar   50   6.852   5.412   0.891
    1   AR   Ar   51   1.258   4.593   0.822
    1   AR   Ar   52   0.862   5.493   0.287
    1   AR   Ar   53   6.982   5.549   2.215
    1   AR   Ar   54   6.732   6.288   3.044
    1   AR   Ar   55   0.795   5.633   3.085
    1   AR   Ar   56   0.626   5.513   1.588
    1   AR   Ar   57   0.947   4.796   4.155
    1   AR   Ar   58   0.136   6.071   4.449
    1   AR   Ar   59   1.153   5.650   4.825
    1   AR   Ar   60   0.987   6.321   3.898
    1   AR   Ar   61   6.904   6.437   5.675
    1   AR   Ar   62   0.865   6.122   5.968
    1   AR   Ar   63   1.827   5.331   5.780
    1   AR   Ar   64   0.834   6.811   5.082
    1   AR   Ar   65   1.013   6.760   0.023
    1   AR   Ar   66   1.925   1.205   1.519
    1   AR   Ar   67   2.666   6.186   0.431
    1   AR   Ar   68   2.786   1.211   0.974
    1   AR   Ar   69   2.161   0.228   0.924
    1   AR   Ar   70   1.516   0.759   2.379
    1   AR   Ar   71   2.239   6.986   2.365
    1   AR   Ar   72   2.867   0.393   1.727
    1   AR   Ar   73   1.779   7.014   3.338
    1   AR   Ar   74   1.593   1.454   4.333
    1   AR   Ar   75   2.412   0.270   4.288
    1   AR   Ar   76   2.041   0.875   3.419
    1   AR   Ar   77   1.817   7.109   5.156
    1   AR   Ar   78   2.206   0.803   6.007
    1   AR   Ar   79   2.565   6.846   6.484
    1   AR   Ar   80   2.466   1.231   4.863
    1   AR   Ar   81   1.699   1.378   0.454
    1   AR   Ar   82   1.745   2.822   0.737
    1   AR   Ar   83   2.680   2.233   1.417
    1   AR   Ar   84   2.148   2.900  -0.464
    1   AR   Ar   85   1.638   2.220   1.562
    1   AR   Ar   86   1.677   2.865   2.567
    1   AR   Ar   87   2.517   1.173   2.345
    1   AR   Ar   88   2.554   3.067   2.209
    1   AR   Ar   89   1.404   1.809   2.844
    1   AR   Ar   90   2.317   3.272   4.323
    1   AR   Ar   91   2.437   2.189   4.373
    1   AR   Ar   92   2.157   2.437   3.375
    1   AR   Ar   93   1.723   1.684   5.464
    1   AR   Ar   94   2.186   2.924   6.449
    1   AR   Ar   95   2.743   1.798   6.226
    1   AR   Ar   96   2.509   2.574   5.459
    1   AR   Ar   97   1.802   3.859   0.201
    1   AR   Ar   98   2.053   4.485   1.495
    1   AR   Ar   99   2.712   3.245   0.564
    1   AR   Ar  100   2.827   4.595  -0.095
    1   AR   Ar  101   1.309   3.216   1.724
    1   AR   Ar  102   1.552   4.673   3.127
    1   AR   Ar  103   2.134   3.948   2.467
    1   AR   Ar  104   3.302   3.859   1.249
    1   AR   Ar  105   1.784   3.435   3.432
    1   AR   Ar  106   1.736   4.177   4.066
    1   AR   Ar  107   2.625   4.208   4.701
    1   AR   Ar  108   2.648   4.262   3.585
    1   AR   Ar  109   1.149   3.811   4.960
    1   AR   Ar  110   1.906   3.764   5.677
    1   AR   Ar  111   3.372   4.338   6.640
    1   AR   Ar  112   2.714   4.523   5.646
    1   AR   Ar  113   2.011   5.412   0.969
    1   AR   Ar  114   1.351   6.353   1.221
    1   AR   Ar  115   3.413   5.620   0.858
    1   AR   Ar  116   3.361   0.301  -0.485
    1   AR   Ar  117   1.521   5.210   2.095
    1   AR   Ar  118   1.846   5.976   2.776
    1   AR   Ar  119   2.647   5.003   2.216
    1   AR   Ar  120   2.293   6.078   1.693
    1   AR   Ar  121   1.574   5.492   3.716
    1   AR   Ar  122   2.130   6.089   4.573
    1   AR   Ar  123   2.462   5.108   4.186
    1   AR   Ar  124   2.517   6.252   3.614
    1   AR   Ar  125   1.707   4.815   4.898
    1   AR   Ar  126   1.478   7.023   6.095
    1   AR   Ar  127   2.494   5.090   6.607
    1   AR   Ar  128   2.285   6.238   5.690
    1   AR   Ar  129   3.370   6.995   0.747
    1   AR   Ar  130   4.164   0.970   0.555
    1   AR   Ar  131   4.525   6.883   1.264
    1   AR   Ar  132   4.267   1.630  -0.627
    1   AR   Ar  133   3.478   7.039   2.588
    1   AR   Ar  134   3.442   0.934   2.738
    1   AR   Ar  135   4.629   0.323   2.770
    1   AR   Ar  136   4.042   0.466   1.881
    1   AR   Ar  137   3.089   0.228   3.514
    1   AR   Ar  138   3.386   0.696   4.554
    1   AR   Ar  139   3.988   6.854   4.222
    1   AR   Ar  140   4.055   0.573   3.586
    1   AR   Ar  141   2.998   7.057   5.521
    1   AR   Ar  142   3.249   0.831   5.993
    1   AR   Ar  143   4.109   0.151   6.897
    1   AR   Ar  144   4.613   1.275   5.658
    1   AR   Ar  145   3.333   1.995   0.326
    1   AR   Ar  146   3.494   2.711   1.078
    1   AR   Ar  147   4.324   2.007   0.730
    1   AR   Ar  148   5.387   2.134  -0.389
    1   AR   Ar  149   3.727   1.495   1.817
    1   AR   Ar  150   3.075   2.206   2.741
    1   AR   Ar  151   4.080   1.800   2.766
    1   AR   Ar  152   4.206   2.489   1.972
    1   AR   Ar  153   3.458   1.772   3.663
    1   AR   Ar  154   3.336   2.877   4.185
    1   AR   Ar  155   4.341   2.047   4.511
    1   AR   Ar  156   4.501   3.144   4.324
    1   AR   Ar  157   3.521   1.745   5.438
    1   AR   Ar  158   3.266   2.766   6.193
    1   AR   Ar  159   4.223   1.185   6.661
    1   AR   Ar  160   3.827   2.934   5.327
    1   AR   Ar  161   3.776   3.375   0.304
    1   AR   Ar  162   3.982   4.658   0.521
    1   AR   Ar  163   4.645   3.887   0.912
    1   AR   Ar  164   5.040   5.010   0.466
    1   AR   Ar  165   3.556   3.575   2.175
    1   AR   Ar  166   3.403   4.467   2.853
    1   AR   Ar  167   4.213   2.868   3.002
    1   AR   Ar  168   4.134   4.359   1.754
    1   AR   Ar  169   2.899   3.228   3.198
    1   AR   Ar  170   3.466   4.637   4.304
    1   AR   Ar  171   3.654   3.772   4.740
    1   AR   Ar  172   4.529   4.266   3.833
    1   AR   Ar  173   2.931   3.488   5.498
    1   AR   Ar  174   4.457   5.094   6.366
    1   AR   Ar  175   4.075   3.965   5.725
    1   AR   Ar  176   4.506   5.003   5.082
    1   AR   Ar  177   4.260   5.570  -0.004
    1   AR   Ar  178   3.725   6.349   1.659
    1   AR   Ar  179   4.445   5.503   1.249
    1   AR   Ar  180   4.192   6.747   0.061
    1   AR   Ar  181   3.717   5.390   2.125
    1   AR   Ar  182   2.893   6.118   2.535
    1   AR   Ar  183   4.290   5.256   2.913
    1   AR   Ar  184   4.480   6.346   2.426
    1   AR   Ar  185   3.331   5.403   3.401
    1   AR   Ar  186   3.305   6.132   4.271
    1   AR   Ar  187   4.598   5.394   3.963
    1   AR   Ar  188   4.071   6.602   3.270
    1   AR   Ar  189   3.435   5.527   5.095
    1   AR   Ar  190   3.290   6.072   6.768
    1   AR   Ar  191   4.245   5.915   5.537
    1   AR   Ar  192   3.981   6.948   5.198
    1   AR   Ar  193   5.106   0.063   0.269
    1   AR   Ar  194   4.895   1.154   1.570
    1   AR   Ar  195   5.990   0.510   0.763
    1   AR   Ar  196   5.374   1.375   0.469
    1   AR   Ar  197   5.440   0.147   1.599
    1   AR   Ar  198   5.408   0.976   2.526
    1   AR   Ar  199   6.359   0.591   2.237
    1   AR   Ar  200   6.315   1.418   1.462
    1   AR   Ar  201   5.033   0.299   3.952
    1   AR   Ar  202   4.896   0.982   4.657
    1   AR   Ar  203   6.523   6.872   4.738
    1   AR   Ar  204   6.144   0.329   3.445
    1   AR   Ar  205   5.129   0.024   5.006
    1   AR   Ar  206   5.051   0.211   6.052
    1   AR   Ar  207   6.108   0.122   5.803
    1   AR   Ar  208   5.972   0.658   4.876
    1   AR   Ar  209   6.406   2.240  -0.939
    1   AR   Ar  210   5.415   2.235   1.211
    1   AR   Ar  211   6.198   2.138   0.576
    1   AR   Ar  212   6.404   3.228   0.246
    1   AR   Ar  213   5.029   2.005   2.110
    1   AR   Ar  214   4.979   3.189   1.822
    1   AR   Ar  215   6.276   1.764   2.655
    1   AR   Ar  216   6.524   2.562   1.467
    1   AR   Ar  217   4.751   1.429   3.534
    1   AR   Ar  218   5.340   2.570   4.094
    1   AR   Ar  219   6.009   1.790   3.884
    1   AR   Ar  220   5.244   2.269   3.116
    1   AR   Ar  221   5.301   1.903   5.094
    1   AR   Ar  222   4.367   2.279   6.135
    1   AR   Ar  223   6.344   2.181   6.361
    1   AR   Ar  224   6.698   2.818   5.339
    1   AR   Ar  225   5.604   3.899   0.246
    1   AR   Ar  226   5.172   4.403   1.645
    1   AR   Ar  227   6.513   3.702   1.202
    1   AR   Ar  228   6.013   4.886  -0.016
    1   AR   Ar  229   5.553   3.247   1.003
    1   AR   Ar  230   4.682   3.996   2.764
    1   AR   Ar  231   6.709   3.262   3.397
    1   AR   Ar  232   6.019   3.357   1.955
    1   AR   Ar  233   5.726   3.395   3.636
    1   AR   Ar  234   5.898   4.352   4.179
    1   AR   Ar  235   6.683   3.619   4.325
    1   AR   Ar  236   0.064   4.268   3.545
    1   AR   Ar  237   5.033   2.844   5.313
    1   AR   Ar  238   5.323   4.449   6.013
    1   AR   Ar  239   6.321   4.183   7.008
    1   AR   Ar  240   6.277   3.966   5.140
    1   AR   Ar  241   5.617   5.930   0.207
    1   AR   Ar  242   5.255   6.002   1.751
    1   AR   Ar  243   6.347   4.347   1.963
    1   AR   Ar  244   6.171   6.622   0.909
    1   AR   Ar  245   5.453   5.133   2.324
    1   AR   Ar  246   5.374   6.752   2.789
    1   AR   Ar  247   6.145   4.047   2.922
    1   AR   Ar  248   6.168   6.424   2.065
    1   AR   Ar  249   6.223   5.329   3.142
    1   AR   Ar  250   4.720   6.270   4.535
    1   AR   Ar  251   6.414   5.408   4.505
    1   AR   Ar  252   6.090   6.432   3.967
    1   AR   Ar  253   5.507   4.985   4.920
    1   AR   Ar  254   5.248   5.939   6.255
    1   AR   Ar  255   6.092   5.320   5.971
    1   AR   Ar  256   5.781   6.091   5.080
    7.12000  7.12000 12.00000
Argon-slab step 365
  256
    1   AR   Ar    1   0.243   0.279  -0.362
    1   AR   Ar    2   7.089   0.505   0.889
    1   AR   Ar    3   0.046   6.458   1.049
    1   AR   Ar    4   1.194   0.531   0.754
    1   AR   Ar    5   0.022   6.874   2.004
    1   AR   Ar    6   7.084   0.322   2.987
    1   AR   Ar    7   0.803   6.766   2.617
    1   AR   Ar    8   1.067   0.067   1.684
    1   AR   Ar    9   0.315   7.085   4.213
    1   AR   Ar   10   7.056   1.036   4.419
    1   AR   Ar   11   1.335   0.297   4.244
    1   AR   Ar   12   0.915   0.661   3.333
    1   AR   Ar   13   7.073   0.624   5.344
    1   AR   Ar   14   0.148   1.442   6.074
    1   AR   Ar   15   1.908   7.015   7.574
    1   AR   Ar   16   1.043   0.901   5.271
    1   AR   Ar   17   0.135   1.355   0.259
    1   AR   Ar   18   0.308   2.399   0.292
    1   AR   Ar   19   0.616   1.548   1.125
    1   AR   Ar   20   0.666   2.495  -0.765
    1   AR   Ar   21   0.220   0.795   2.131
    1   AR   Ar   22   6.824   2.622   2.642
    1   AR   Ar   23   0.130   1.665   2.749
    1   AR   Ar   24   0.379   2.592   1.804
    1   AR   Ar   25   0.612   1.876   3.904
    1   AR   Ar   26   6.813   2.430   4.080
    1   AR   Ar   27   0.324   2.007   4.949
    1   AR   Ar   28   1.367   2.607   4.232
    1   AR   Ar   29   6.266   1.741   4.841
    1   AR   Ar   30   0.165   2.594   6.380
    1   AR   Ar   31   1.031   1.198   7.237
    1   AR   Ar   32   1.381   2.753   5.243
    1   AR   Ar   33   0.491   3.582  -0.193
    1   AR   Ar   34   0.040   4.573   1.245
    1   AR   Ar   35   0.547   3.681   0.806
    1   AR   Ar   36   1.256   4.808  -0.504
    1   AR   Ar   37   7.003   3.694   2.462
    1   AR   Ar   38   0.424   4.674   2.635
    1   AR   Ar   39   0.843   3.745   2.806
    1   AR   Ar   40   1.142   4.207   1.842
    1   AR   Ar   41   0.571   2.773   3.323
    1   AR   Ar   42   0.173   4.239   4.965
    1   AR   Ar   43   0.431   3.115   4.844
    1   AR   Ar   44   0.837   3.531   4.018
    1   AR   Ar   45   7.105   3.652   5.954
    1   AR   Ar   46   6.997   4.988   6.397
    1   AR   Ar   47   1.017   3.205   6.319
    1   AR   Ar   48   1.029   4.758   5.723
    1   AR   Ar   49   6.846   4.310   0.115
    1   AR   Ar   50   6.810   5.414   0.883
    1   AR   Ar   51   1.279   4.564   0.830
    1   AR   Ar   52   0.869   5.501   0.264
    1   AR   Ar   53   6.997   5.594   2.210
    1   AR   Ar   54   6.737   6.282   3.091
    1   AR   Ar   55   0.784   5.637   3.073
    1   AR   Ar   56   0.624   5.537   1.604
    1   AR   Ar   57   0.930   4.742   4.144
    1   AR   Ar   58   0.131   6.055   4.475
    1   AR   Ar   59   1.179   5.667   4.791
    1   AR   Ar   60   1.017   6.334   3.881
    1   AR   Ar   61   6.942   6.459   5.701
    1   AR   Ar   62   0.905   6.099   5.947
    1   AR   Ar   63   1.829   5.328   5.806
    1   AR   Ar   64   0.832   6.834   5.058
    1   AR   Ar   65   1.013   6.760   0.001
    1   AR   Ar   66   1.927   1.202   1.500
    1   AR   Ar   67   2.655   6.173   0.417
    1   AR   Ar   68   2.778   1.227   0.957
    1   AR   Ar   69   2.192   0.247   0.933
    1   AR   Ar   70   1.522   0.752   2.379
    1   AR   Ar   71   2.178   6.970   2.381
    1   AR   Ar   72   2.861   0.390   1.733
    1   AR   Ar   73   1.752   7.049   3.308
    1   AR   Ar   74   1.584   1.456   4.339
    1   AR   Ar   75   2.412   0.262   4.283
    1   AR   Ar   76   2.012   0.881   3.417
    1   AR   Ar   77   1.846   0.009   5.142
    1   AR   Ar   78   2.206   0.770   6.000
    1   AR   Ar   79   2.589   6.847   6.463
    1   AR   Ar   80   2.514   1.199   4.869
    1   AR   Ar   81   1.718   1.350   0.438
    1   AR   Ar   82   1.786   2.851   0.736
    1   AR   Ar   83   2.664   2.248   1.412
    1   AR   Ar   84   2.139   2.914  -0.468
    1   AR   Ar   85   1.641   2.220   1.553
    1   AR   Ar   86   1.689   2.839   2.577
    1   AR   Ar   87   2.517   1.159   2.393
    1   AR   Ar   88   2.557   3.091   2.156
    1   AR   Ar   89   1.388   1.757   2.823
    1   AR   Ar   90   2.342   3.257   4.298
    1   AR   Ar   91   2.432   2.196   4.381
    1   AR   Ar   92   2.182   2.438   3.393
    1   AR   Ar   93   1.727   1.698   5.467
    1   AR   Ar   94   2.159   2.944   6.426
    1   AR   Ar   95   2.729   1.752   6.247
    1   AR   Ar   96   2.485   2.583   5.486
    1   AR   Ar   97   1.838   3.835   0.176
    1   AR   Ar   98   2.053   4.488   1.519
    1   AR   Ar   99   2.728   3.222   0.528
    1   AR   Ar  100   2.828   4.602  -0.129
    1   AR   Ar  101   1.289   3.189   1.730
    1   AR   Ar  102   1.576   4.686   3.130
    1   AR   Ar  103   2.146   3.950   2.504
    1   AR   Ar  104   3.291   3.853   1.256
    1   AR   Ar  105   1.817   3.407   3.432
    1   AR   Ar  106   1.740   4.181   4.077
    1   AR   Ar  107   2.608   4.217   4.732
    1   AR   Ar  108   2.650   4.269   3.607
    1   AR   Ar  109   1.130   3.793   4.965
    1   AR   Ar  110   1.908   3.742   5.667
    1   AR   Ar  111   3.393   4.326   6.638
    1   AR   Ar  112   2.666   4.460   5.637
    1   AR   Ar  113   2.001   5.419   0.983
    1   AR   Ar  114   1.335   6.355   1.242
    1   AR   Ar  115   3.425   5.620   0.872
    1   AR   Ar  116   3.410   0.293  -0.484
    1   AR   Ar  117   1.535   5.203   2.110
    1   AR   Ar  118   1.848   6.009   2.774
    1   AR   Ar  119   2.651   5.012   2.241
    1   AR   Ar  120   2.277   6.074   1.688
    1   AR   Ar  121   1.581   5.485   3.689
    1   AR   Ar  122   2.155   6.141   4.578
    1   AR   Ar  123   2.484   5.089   4.185
    1   AR   Ar  124   2.493   6.303   3.586
    1   AR   Ar  125   1.701   4.802   4.904
    1   AR   Ar  126   1.480   7.040   6.090
    1   AR   Ar  127   2.494   5.095   6.615
    1   AR   Ar  128   2.268   6.242   5.682
    1   AR   Ar  129   3.394   6.990   0.760
    1   AR   Ar  130   4.153   0.972   0.535
    1   AR   Ar  131   4.501   6.881   1.253
    1   AR   Ar  132   4.227   1.619  -0.635
    1   AR   Ar  133   3.487   7.054   2.586
    1   AR   Ar  134   3.441   0.899   2.731
    1   AR   Ar  135   4.655   0.310   2.799
    1   AR   Ar  136   4.049   0.456   1.863
    1   AR   Ar  137   3.089   0.259   3.536
    1   AR   Ar  138   3.374   0.738   4.522
    1   AR   Ar  139   3.990   6.866   4.206
    1   AR   Ar  140   4.068   0.592   3.557
    1   AR   Ar  141   3.010   7.057   5.521
    1   AR   Ar  142   3.237   0.846   6.038
    1   AR   Ar  143   4.114   0.141   6.896
    1   AR   Ar  144   4.676   1.304   5.666
    1   AR   Ar  145   3.314   1.998   0.342
    1   AR   Ar  146   3.502   2.739   1.097
    1   AR   Ar  147   4.313   2.035   0.737
    1   AR   Ar  148   5.419   2.132  -0.367
    1   AR   Ar  149   3.725   1.498   1.814
    1   AR   Ar  150   3.063   2.190   2.724
    1   AR   Ar  151   4.053   1.821   2.778
    1   AR   Ar  152   4.186   2.492   1.999
    1   AR   Ar  153   3.476   1.785   3.700
    1   AR   Ar  154   3.358   2.873   4.197
    1   AR   Ar  155   4.373   2.072   4.540
    1   AR   Ar  156   4.512   3.116   4.316
    1   AR   Ar  157   3.519   1.719   5.428
    1   AR   Ar  158   3.311   2.791   6.205
    1   AR   Ar  159   4.205   1.190   6.653
    1   AR   Ar  160   3.842   2.949   5.348
    1   AR   Ar  161   3.791   3.334   0.254
    1   AR   Ar  162   3.955   4.659   0.512
    1   AR   Ar  163   4.659   3.869   0.933
    1   AR   Ar  164   5.066   5.007   0.496
    1   AR   Ar  165   3.530   3.637   2.205
    1   AR   Ar  166   3.398   4.443   2.856
    1   AR   Ar  167   4.229   2.856   3.008
    1   AR   Ar  168   4.151   4.362   1.695
    1   AR   Ar  169   2.895   3.226   3.190
    1   AR   Ar  170   3.466   4.644   4.285
    1   AR   Ar  171   3.619   3.771   4.796
    1   AR   Ar  172   4.545   4.274   3.820
    1   AR   Ar  173   2.956   3.502   5.520
    1   AR   Ar  174   4.471   5.104   6.326
    1   AR   Ar  175   4.065   3.975   5.686
    1   AR   Ar  176   4.491   4.985   5.111
    1   AR   Ar  177   4.272   5.569  -0.028
    1   AR   Ar  178   3.733   6.322   1.665
    1   AR   Ar  179   4.422   5.479   1.246
    1   AR   Ar  180   4.217   6.756   0.067
    1   AR   Ar  181   3.680   5.372   2.127
    1   AR   Ar  182   2.915   6.138   2.526
    1   AR   Ar  183   4.317   5.259   2.891
    1   AR   Ar  184   4.501   6.338   2.426
    1   AR   Ar  185   3.316   5.439   3.400
    1   AR   Ar  186   3.315   6.126   4.286
    1   AR   Ar  187   4.617   5.403   3.930
    1   AR   Ar  188   4.068   6.624   3.266
    1   AR   Ar  189   3.471   5.525   5.108
    1   AR   Ar  190   3.272   6.108   6.793
    1   AR   Ar  191   4.250   5.893   5.517
    1   AR   Ar  192   4.008   6.935   5.207
    1   AR   Ar  193   5.124   0.070   0.281
    1   AR   Ar  194   4.880   1.163   1.528
    1   AR   Ar  195   6.002   0.511   0.744
    1   AR   Ar  196   5.357   1.391   0.442
    1   AR   Ar  197   5.472   0.151   1.592
    1   AR   Ar  198   5.420   1.000   2.532
    1   AR   Ar  199   6.324   0.569   2.254
    1   AR   Ar  200   6.354   1.435   1.433
    1   AR   Ar  201   5.039   0.238   3.931
    1   AR   Ar  202   4.879   0.979   4.635
    1   AR   Ar  203   6.508   6.897   4.754
    1   AR   Ar  204   6.142   0.312   3.443
    1   AR   Ar  205   5.148   0.049   4.994
    1   AR   Ar  206   5.038   0.182   6.053
    1   AR   Ar  207   6.096   0.070   5.818
    1   AR   Ar  208   6.013   0.652   4.870
    1   AR   Ar  209   6.442   2.222  -0.913
    1   AR   Ar  210   5.397   2.200   1.236
    1   AR   Ar  211   6.189   2.151   0.552
    1   AR   Ar  212   6.414   3.216   0.252
    1   AR   Ar  213   5.028   2.032   2.094
    1   AR   Ar  214   4.979   3.218   1.816
    1   AR   Ar  215   6.238   1.732   2.638
    1   AR   Ar  216   6.518   2.554   1.479
    1   AR   Ar  217   4.722   1.463   3.545
    1   AR   Ar  218   5.317   2.585   4.079
    1   AR   Ar  219   6.024   1.797   3.888
    1   AR   Ar  220   5.291   2.269   3.109
    1   AR   Ar  221   5.275   1.884   5.087
    1   AR   Ar  222   4.395   2.258   6.151
    1   AR   Ar  223   6.325   2.176   6.344
    1   AR   Ar  224   6.680   2.800   5.352
    1   AR   Ar  225   5.585   3.907   0.236
    1   AR   Ar  226   5.162   4.411   1.652
    1   AR   Ar  227   6.569   3.697   1.165
    1   AR   Ar  228   6.009   4.892  -0.020
    1   AR   Ar  229   5.572   3.231   1.022
    1   AR   Ar  230   4.650   3.989   2.751
    1   AR   Ar  231   6.723   3.279   3.405
    1   AR   Ar  232   6.010   3.331   1.949
    1   AR   Ar  233   5.722   3.396   3.647
    1   AR   Ar  234   5.893   4.345   4.198
    1   AR   Ar  235   6.713   3.622   4.321
    1   AR   Ar  236   0.082   4.258   3.575
    1   AR   Ar  237   5.067   2.820   5.311
    1   AR   Ar  238   5.325   4.418   6.037
    1   AR   Ar  239   6.334   4.186   7.041
    1   AR   Ar  240   6.263   3.975   5.182
    1   AR   Ar  241   5.657   5.949   0.170
    1   AR   Ar  242   5.296   6.010   1.775
    1   AR   Ar  243   6.361   4.320   1.938
    1   AR   Ar  244   6.182   6.625   0.913
    1   AR   Ar  245   5.435   5.152   2.321
    1   AR   Ar  246   5.372   6.759   2.798
    1   AR   Ar  247   6.112   4.040   2.907
    1   AR   Ar  248   6.173   6.387   2.049
    1   AR   Ar  249   6.207   5.330   3.137
    1   AR   Ar  250   4.739   6.254   4.510
    1   AR   Ar  251   6.396   5.436   4.503
    1   AR   Ar  252   6.101   6.425   3.977
    1   AR   Ar  253   5.501   4.972   4.922
    1   AR   Ar  254   5.259   5.950   6.256
    1   AR   Ar  255   6.049   5.325   5.968
    1   AR   Ar  256   5.780   6.093   5.079
    7.12000  7.12000 12.00000
Argon-slab step 370
  256
    1   AR   Ar    1   0.244   0.275  -0.354
    1   AR   Ar    2   7.059   0.509   0.880
    1   AR   Ar    3   0.055   6.461   1.053
    1   AR   Ar    4   1.205   0.525   0.752
    1   AR   Ar    5   0.041   6.881   1.985
    1   AR   Ar    6   7.083   0.320   3.017
    1   AR   Ar    7   0.780   6.779   2.595
    1   AR   Ar    8   1.084   0.038   1.713
    1   AR   Ar    9   0.330   7.087   4.228
    1   AR   Ar   10   7.075   0.992   4.447
    1   AR   Ar   11   1.324   0.263   4.229
    1   AR   Ar   12   0.921   0.642   3.337
    1   AR   Ar   13   7.074   0.639   5.329
    1   AR   Ar   14   0.148   1.409   6.049
    1   AR   Ar   15   1.930   7.018   7.612
    1   AR   Ar   16   1.036   0.892   5.236
    1   AR   Ar   17   0.103   1.355   0.230
    1   AR   Ar   18   0.295   2.388   0.310
    1   AR   Ar   19   0.619   1.560   1.119
    1   AR   Ar   20   0.689   2.483  -0.778
    1   AR   Ar   21   0.250   0.803   2.129
    1   AR   Ar   22   6.863   2.613   2.643
    1   AR   Ar   23   0.108   1.645   2.749
    1   AR   Ar   24   0.373   2.573   1.805
    1   AR   Ar   25   0.580   1.890   3.910
    1   AR   Ar   26   6.793   2.454   4.098
    1   AR   Ar   27   0.317   2.017   4.975
    1   AR   Ar   28   1.344   2.610   4.239
    1   AR   Ar   29   6.270   1.752   4.842
    1   AR   Ar   30   0.183   2.610   6.371
    1   AR   Ar   31   1.023   1.200   7.232
    1   AR   Ar   32   1.380   2.746   5.273
    1   AR   Ar   33   0.503   3.571  -0.218
    1   AR   Ar   34   0.031   4.566   1.239
    1   AR   Ar   35   0.552   3.682   0.792
    1   AR   Ar   36   1.270   4.843  -0.533
    1   AR   Ar   37   7.014   3.696   2.482
    1   AR   Ar   38   0.396   4.669   2.608
    1   AR   Ar   39   0.877   3.746   2.840
    1   AR   Ar   40   1.124   4.245   1.845
    1   AR   Ar   41   0.551   2.764   3.301
    1   AR   Ar   42   0.164   4.255   4.961
    1   AR   Ar   43   0.407   3.123   4.835
    1   AR   Ar   44   0.834   3.519   3.985
    1   AR   Ar   45   0.005   3.647   5.969
    1   AR   Ar   46   7.000   4.965   6.427
    1   AR   Ar   47   1.027   3.186   6.312
    1   AR   Ar   48   0.989   4.721   5.720
    1   AR   Ar   49   6.878   4.284   0.090
    1   AR   Ar   50   6.763   5.428   0.871
    1   AR   Ar   51   1.297   4.536   0.834
    1   AR   Ar   52   0.876   5.510   0.244
    1   AR   Ar   53   6.999   5.641   2.216
    1   AR   Ar   54   6.744   6.279   3.135
    1   AR   Ar   55   0.768   5.642   3.054
    1   AR   Ar   56   0.635   5.559   1.607
    1   AR   Ar   57   0.902   4.692   4.134
    1   AR   Ar   58   0.129   6.067   4.467
    1   AR   Ar   59   1.201   5.690   4.757
    1   AR   Ar   60   1.047   6.353   3.865
    1   AR   Ar   61   6.967   6.479   5.723
    1   AR   Ar   62   0.893   6.060   5.970
    1   AR   Ar   63   1.837   5.329   5.833
    1   AR   Ar   64   0.829   6.854   5.041
    1   AR   Ar   65   1.015   6.759  -0.018
    1   AR   Ar   66   1.922   1.195   1.483
    1   AR   Ar   67   2.641   6.162   0.403
    1   AR   Ar   68   2.777   1.242   0.937
    1   AR   Ar   69   2.223   0.265   0.942
    1   AR   Ar   70   1.526   0.744   2.383
    1   AR   Ar   71   2.125   6.958   2.384
    1   AR   Ar   72   2.859   0.386   1.740
    1   AR   Ar   73   1.719   7.075   3.282
    1   AR   Ar   74   1.568   1.441   4.356
    1   AR   Ar   75   2.408   0.252   4.281
    1   AR   Ar   76   1.988   0.897   3.416
    1   AR   Ar   77   1.881   0.029   5.126
    1   AR   Ar   78   2.201   0.736   5.989
    1   AR   Ar   79   2.611   6.853   6.446
    1   AR   Ar   80   2.560   1.169   4.879
    1   AR   Ar   81   1.740   1.327   0.422
    1   AR   Ar   82   1.823   2.880   0.733
    1   AR   Ar   83   2.648   2.259   1.408
    1   AR   Ar   84   2.130   2.928  -0.470
    1   AR   Ar   85   1.660   2.198   1.553
    1   AR   Ar   86   1.691   2.808   2.592
    1   AR   Ar   87   2.514   1.150   2.442
    1   AR   Ar   88   2.571   3.111   2.094
    1   AR   Ar   89   1.371   1.704   2.804
    1   AR   Ar   90   2.368   3.242   4.277
    1   AR   Ar   91   2.429   2.201   4.392
    1   AR   Ar   92   2.210   2.433   3.413
    1   AR   Ar   93   1.733   1.713   5.470
    1   AR   Ar   94   2.131   2.965   6.404
    1   AR   Ar   95   2.714   1.711   6.267
    1   AR   Ar   96   2.459   2.587   5.509
    1   AR   Ar   97   1.873   3.811   0.152
    1   AR   Ar   98   2.064   4.487   1.541
    1   AR   Ar   99   2.746   3.201   0.490
    1   AR   Ar  100   2.830   4.609  -0.162
    1   AR   Ar  101   1.267   3.165   1.728
    1   AR   Ar  102   1.602   4.693   3.129
    1   AR   Ar  103   2.154   3.957   2.545
    1   AR   Ar  104   3.277   3.848   1.253
    1   AR   Ar  105   1.846   3.382   3.426
    1   AR   Ar  106   1.748   4.181   4.093
    1   AR   Ar  107   2.588   4.215   4.742
    1   AR   Ar  108   2.655   4.269   3.622
    1   AR   Ar  109   1.123   3.787   4.974
    1   AR   Ar  110   1.908   3.718   5.657
    1   AR   Ar  111   3.414   4.315   6.633
    1   AR   Ar  112   2.620   4.417   5.654
    1   AR   Ar  113   2.005   5.393   0.967
    1   AR   Ar  114   1.322   6.345   1.257
    1   AR   Ar  115   3.438   5.618   0.887
    1   AR   Ar  116   3.459   0.285  -0.481
    1   AR   Ar  117   1.548   5.197   2.127
    1   AR   Ar  118   1.848   6.041   2.772
    1   AR   Ar  119   2.653   5.024   2.268
    1   AR   Ar  120   2.262   6.075   1.689
    1   AR   Ar  121   1.543   5.496   3.683
    1   AR   Ar  122   2.179   6.193   4.584
    1   AR   Ar  123   2.505   5.081   4.184
    1   AR   Ar  124   2.471   6.355   3.555
    1   AR   Ar  125   1.700   4.785   4.912
    1   AR   Ar  126   1.480   7.057   6.091
    1   AR   Ar  127   2.496   5.100   6.623
    1   AR   Ar  128   2.251   6.249   5.670
    1   AR   Ar  129   3.417   6.986   0.774
    1   AR   Ar  130   4.143   0.973   0.516
    1   AR   Ar  131   4.500   6.869   1.248
    1   AR   Ar  132   4.188   1.607  -0.640
    1   AR   Ar  133   3.491   7.058   2.574
    1   AR   Ar  134   3.445   0.878   2.726
    1   AR   Ar  135   4.675   0.302   2.820
    1   AR   Ar  136   4.055   0.449   1.846
    1   AR   Ar  137   3.086   0.288   3.542
    1   AR   Ar  138   3.369   0.777   4.489
    1   AR   Ar  139   3.991   6.893   4.195
    1   AR   Ar  140   4.079   0.617   3.535
    1   AR   Ar  141   3.018   7.058   5.516
    1   AR   Ar  142   3.232   0.859   6.083
    1   AR   Ar  143   4.120   0.134   6.898
    1   AR   Ar  144   4.733   1.327   5.678
    1   AR   Ar  145   3.293   2.001   0.357
    1   AR   Ar  146   3.515   2.769   1.120
    1   AR   Ar  147   4.305   2.063   0.746
    1   AR   Ar  148   5.460   2.126  -0.349
    1   AR   Ar  149   3.722   1.500   1.807
    1   AR   Ar  150   3.048   2.175   2.705
    1   AR   Ar  151   4.030   1.838   2.792
    1   AR   Ar  152   4.150   2.505   2.019
    1   AR   Ar  153   3.494   1.797   3.739
    1   AR   Ar  154   3.381   2.867   4.209
    1   AR   Ar  155   4.403   2.095   4.568
    1   AR   Ar  156   4.521   3.115   4.304
    1   AR   Ar  157   3.516   1.698   5.419
    1   AR   Ar  158   3.354   2.812   6.223
    1   AR   Ar  159   4.186   1.198   6.644
    1   AR   Ar  160   3.865   2.954   5.365
    1   AR   Ar  161   3.808   3.294   0.205
    1   AR   Ar  162   3.927   4.660   0.504
    1   AR   Ar  163   4.672   3.846   0.947
    1   AR   Ar  164   5.090   5.003   0.529
    1   AR   Ar  165   3.506   3.692   2.242
    1   AR   Ar  166   3.395   4.422   2.861
    1   AR   Ar  167   4.245   2.846   3.017
    1   AR   Ar  168   4.160   4.369   1.640
    1   AR   Ar  169   2.893   3.226   3.182
    1   AR   Ar  170   3.470   4.659   4.262
    1   AR   Ar  171   3.586   3.771   4.838
    1   AR   Ar  172   4.560   4.282   3.809
    1   AR   Ar  173   2.978   3.513   5.544
    1   AR   Ar  174   4.459   5.102   6.312
    1   AR   Ar  175   4.058   3.988   5.653
    1   AR   Ar  176   4.470   4.962   5.137
    1   AR   Ar  177   4.284   5.571  -0.050
    1   AR   Ar  178   3.735   6.296   1.671
    1   AR   Ar  179   4.400   5.455   1.244
    1   AR   Ar  180   4.243   6.757   0.080
    1   AR   Ar  181   3.638   5.353   2.124
    1   AR   Ar  182   2.940   6.157   2.519
    1   AR   Ar  183   4.350   5.260   2.873
    1   AR   Ar  184   4.522   6.326   2.415
    1   AR   Ar  185   3.300   5.475   3.398
    1   AR   Ar  186   3.320   6.117   4.299
    1   AR   Ar  187   4.634   5.409   3.896
    1   AR   Ar  188   4.065   6.640   3.266
    1   AR   Ar  189   3.490   5.512   5.114
    1   AR   Ar  190   3.257   6.142   6.817
    1   AR   Ar  191   4.271   5.885   5.509
    1   AR   Ar  192   4.038   6.922   5.222
    1   AR   Ar  193   5.146   0.079   0.295
    1   AR   Ar  194   4.864   1.168   1.482
    1   AR   Ar  195   6.014   0.519   0.723
    1   AR   Ar  196   5.338   1.405   0.418
    1   AR   Ar  197   5.502   0.154   1.589
    1   AR   Ar  198   5.429   1.028   2.538
    1   AR   Ar  199   6.288   0.545   2.268
    1   AR   Ar  200   6.392   1.450   1.405
    1   AR   Ar  201   5.046   0.172   3.903
    1   AR   Ar  202   4.858   0.983   4.612
    1   AR   Ar  203   6.500   6.920   4.778
    1   AR   Ar  204   6.136   0.296   3.442
    1   AR   Ar  205   5.167   0.067   4.983
    1   AR   Ar  206   5.021   0.154   6.057
    1   AR   Ar  207   6.086   0.018   5.830
    1   AR   Ar  208   6.051   0.655   4.863
    1   AR   Ar  209   6.445   2.217  -0.905
    1   AR   Ar  210   5.384   2.167   1.243
    1   AR   Ar  211   6.184   2.163   0.523
    1   AR   Ar  212   6.427   3.202   0.255
    1   AR   Ar  213   5.045   2.028   2.106
    1   AR   Ar  214   4.969   3.248   1.819
    1   AR   Ar  215   6.192   1.698   2.619
    1   AR   Ar  216   6.509   2.545   1.491
    1   AR   Ar  217   4.694   1.495   3.559
    1   AR   Ar  218   5.327   2.586   4.090
    1   AR   Ar  219   6.020   1.802   3.872
    1   AR   Ar  220   5.339   2.269   3.096
    1   AR   Ar  221   5.254   1.859   5.074
    1   AR   Ar  222   4.421   2.237   6.166
    1   AR   Ar  223   6.303   2.170   6.325
    1   AR   Ar  224   6.660   2.780   5.364
    1   AR   Ar  225   5.565   3.920   0.225
    1   AR   Ar  226   5.160   4.417   1.660
    1   AR   Ar  227   6.629   3.689   1.122
    1   AR   Ar  228   6.015   4.906  -0.021
    1   AR   Ar  229   5.597   3.213   1.031
    1   AR   Ar  230   4.616   3.983   2.735
    1   AR   Ar  231   6.739   3.295   3.406
    1   AR   Ar  232   6.001   3.303   1.956
    1   AR   Ar  233   5.716   3.401   3.657
    1   AR   Ar  234   5.891   4.337   4.212
    1   AR   Ar  235   6.744   3.624   4.324
    1   AR   Ar  236   0.099   4.248   3.604
    1   AR   Ar  237   5.103   2.806   5.307
    1   AR   Ar  238   5.328   4.387   6.060
    1   AR   Ar  239   6.348   4.189   7.073
    1   AR   Ar  240   6.246   3.986   5.229
    1   AR   Ar  241   5.696   5.968   0.134
    1   AR   Ar  242   5.296   5.999   1.767
    1   AR   Ar  243   6.375   4.310   1.936
    1   AR   Ar  244   6.186   6.625   0.918
    1   AR   Ar  245   5.430   5.164   2.325
    1   AR   Ar  246   5.385   6.760   2.809
    1   AR   Ar  247   6.099   4.026   2.916
    1   AR   Ar  248   6.185   6.354   2.035
    1   AR   Ar  249   6.191   5.331   3.132
    1   AR   Ar  250   4.764   6.237   4.491
    1   AR   Ar  251   6.378   5.462   4.498
    1   AR   Ar  252   6.110   6.412   3.980
    1   AR   Ar  253   5.482   4.961   4.916
    1   AR   Ar  254   5.266   5.963   6.257
    1   AR   Ar  255   6.006   5.329   5.960
    1   AR   Ar  256   5.777   6.100   5.079
    7.12000  7.12000 12.00000
Argon-slab step 375
  256
    1   AR   Ar    1   0.276   0.276  -0.375
    1   AR   Ar    2   7.034   0.511   0.874
    1   AR   Ar    3   0.073   6.461   1.053
    1   AR   Ar    4   1.210   0.516   0.750
    1   AR   Ar    5   0.045   6.890   1.961
    1   AR   Ar    6   7.083   0.316   3.048
    1   AR   Ar    7   0.770   6.787   2.593
    1   AR   Ar    8   1.098   0.026   1.743
    1   AR   Ar    9   0.333   7.094   4.231
    1   AR   Ar   10   7.086   0.961   4.462
    1   AR   Ar   11   1.293   0.209   4.237
    1   AR   Ar   12   0.924   0.627   3.339
    1   AR   Ar   13   7.075   0.642   5.333
    1   AR   Ar   14   0.149   1.379   6.023
    1   AR   Ar   15   1.953   7.020   7.649
    1   AR   Ar   16   1.029   0.881   5.200
    1   AR   Ar   17   0.068   1.352   0.197
    1   AR   Ar   18   0.282   2.381   0.330
    1   AR   Ar   19   0.624   1.573   1.118
    1   AR   Ar   20   0.704   2.477  -0.786
    1   AR   Ar   21   0.285   0.817   2.116
    1   AR   Ar   22   6.897   2.603   2.640
    1   AR   Ar   23   0.093   1.623   2.752
    1   AR   Ar   24   0.372   2.554   1.805
    1   AR   Ar   25   0.550   1.901   3.916
    1   AR   Ar   26   6.777   2.481   4.119
    1   AR   Ar   27   0.333   2.024   5.015
    1   AR   Ar   28   1.323   2.612   4.242
    1   AR   Ar   29   6.281   1.763   4.850
    1   AR   Ar   30   0.197   2.623   6.359
    1   AR   Ar   31   1.007   1.185   7.235
    1   AR   Ar   32   1.348   2.746   5.330
    1   AR   Ar   33   0.516   3.557  -0.251
    1   AR   Ar   34   0.024   4.556   1.245
    1   AR   Ar   35   0.559   3.684   0.785
    1   AR   Ar   36   1.283   4.877  -0.562
    1   AR   Ar   37   7.021   3.702   2.490
    1   AR   Ar   38   0.368   4.668   2.580
    1   AR   Ar   39   0.917   3.745   2.877
    1   AR   Ar   40   1.098   4.281   1.853
    1   AR   Ar   41   0.535   2.754   3.279
    1   AR   Ar   42   0.157   4.273   4.958
    1   AR   Ar   43   0.376   3.119   4.830
    1   AR   Ar   44   0.832   3.512   3.947
    1   AR   Ar   45   0.026   3.642   5.982
    1   AR   Ar   46   7.003   4.942   6.455
    1   AR   Ar   47   1.043   3.171   6.303
    1   AR   Ar   48   0.945   4.680   5.717
    1   AR   Ar   49   6.910   4.256   0.069
    1   AR   Ar   50   6.714   5.448   0.856
    1   AR   Ar   51   1.310   4.509   0.834
    1   AR   Ar   52   0.883   5.519   0.228
    1   AR   Ar   53   6.990   5.689   2.232
    1   AR   Ar   54   6.748   6.262   3.120
    1   AR   Ar   55   0.746   5.649   3.029
    1   AR   Ar   56   0.656   5.579   1.600
    1   AR   Ar   57   0.867   4.649   4.127
    1   AR   Ar   58   0.131   6.097   4.434
    1   AR   Ar   59   1.220   5.717   4.724
    1   AR   Ar   60   1.075   6.379   3.850
    1   AR   Ar   61   6.971   6.498   5.741
    1   AR   Ar   62   0.883   6.021   5.990
    1   AR   Ar   63   1.845   5.328   5.860
    1   AR   Ar   64   0.832   6.868   5.035
    1   AR   Ar   65   1.019   6.755  -0.033
    1   AR   Ar   66   1.914   1.184   1.469
    1   AR   Ar   67   2.626   6.153   0.391
    1   AR   Ar   68   2.782   1.256   0.915
    1   AR   Ar   69   2.253   0.281   0.947
    1   AR   Ar   70   1.527   0.732   2.389
    1   AR   Ar   71   2.095   6.958   2.349
    1   AR   Ar   72   2.863   0.383   1.751
    1   AR   Ar   73   1.681   7.088   3.261
    1   AR   Ar   74   1.571   1.413   4.356
    1   AR   Ar   75   2.402   0.240   4.279
    1   AR   Ar   76   1.967   0.924   3.418
    1   AR   Ar   77   1.915   0.050   5.114
    1   AR   Ar   78   2.193   0.703   5.976
    1   AR   Ar   79   2.627   6.865   6.433
    1   AR   Ar   80   2.593   1.144   4.896
    1   AR   Ar   81   1.766   1.310   0.404
    1   AR   Ar   82   1.852   2.907   0.733
    1   AR   Ar   83   2.620   2.266   1.435
    1   AR   Ar   84   2.120   2.942  -0.470
    1   AR   Ar   85   1.668   2.175   1.557
    1   AR   Ar   86   1.690   2.772   2.605
    1   AR   Ar   87   2.505   1.144   2.489
    1   AR   Ar   88   2.588   3.128   2.030
    1   AR   Ar   89   1.355   1.655   2.787
    1   AR   Ar   90   2.396   3.230   4.263
    1   AR   Ar   91   2.427   2.201   4.410
    1   AR   Ar   92   2.238   2.420   3.432
    1   AR   Ar   93   1.740   1.730   5.471
    1   AR   Ar   94   2.103   2.986   6.385
    1   AR   Ar   95   2.701   1.684   6.285
    1   AR   Ar   96   2.435   2.585   5.526
    1   AR   Ar   97   1.908   3.790   0.128
    1   AR   Ar   98   2.085   4.483   1.563
    1   AR   Ar   99   2.770   3.182   0.450
    1   AR   Ar  100   2.831   4.616  -0.192
    1   AR   Ar  101   1.243   3.146   1.721
    1   AR   Ar  102   1.627   4.688   3.121
    1   AR   Ar  103   2.161   3.968   2.586
    1   AR   Ar  104   3.261   3.845   1.245
    1   AR   Ar  105   1.867   3.365   3.418
    1   AR   Ar  106   1.759   4.173   4.106
    1   AR   Ar  107   2.592   4.208   4.760
    1   AR   Ar  108   2.663   4.260   3.630
    1   AR   Ar  109   1.125   3.786   4.986
    1   AR   Ar  110   1.902   3.688   5.647
    1   AR   Ar  111   3.434   4.304   6.626
    1   AR   Ar  112   2.577   4.400   5.703
    1   AR   Ar  113   2.006   5.365   0.947
    1   AR   Ar  114   1.312   6.321   1.261
    1   AR   Ar  115   3.448   5.616   0.900
    1   AR   Ar  116   3.457   0.267  -0.456
    1   AR   Ar  117   1.560   5.195   2.146
    1   AR   Ar  118   1.843   6.069   2.768
    1   AR   Ar  119   2.652   5.036   2.298
    1   AR   Ar  120   2.250   6.078   1.694
    1   AR   Ar  121   1.515   5.510   3.689
    1   AR   Ar  122   2.203   6.245   4.589
    1   AR   Ar  123   2.521   5.087   4.186
    1   AR   Ar  124   2.454   6.407   3.526
    1   AR   Ar  125   1.700   4.767   4.923
    1   AR   Ar  126   1.478   7.071   6.093
    1   AR   Ar  127   2.501   5.104   6.632
    1   AR   Ar  128   2.235   6.259   5.655
    1   AR   Ar  129   3.440   6.982   0.791
    1   AR   Ar  130   4.133   0.973   0.498
    1   AR   Ar  131   4.503   6.854   1.239
    1   AR   Ar  132   4.148   1.596  -0.643
    1   AR   Ar  133   3.489   7.049   2.548
    1   AR   Ar  134   3.455   0.878   2.722
    1   AR   Ar  135   4.690   0.300   2.832
    1   AR   Ar  136   4.060   0.447   1.831
    1   AR   Ar  137   3.081   0.317   3.527
    1   AR   Ar  138   3.377   0.811   4.451
    1   AR   Ar  139   3.991   6.929   4.194
    1   AR   Ar  140   4.084   0.641   3.526
    1   AR   Ar  141   3.024   7.060   5.506
    1   AR   Ar  142   3.235   0.866   6.128
    1   AR   Ar  143   4.125   0.133   6.891
    1   AR   Ar  144   4.779   1.338   5.700
    1   AR   Ar  145   3.271   2.005   0.372
    1   AR   Ar  146   3.532   2.800   1.145
    1   AR   Ar  147   4.300   2.091   0.758
    1   AR   Ar  148   5.500   2.122  -0.332
    1   AR   Ar  149   3.717   1.503   1.799
    1   AR   Ar  150   3.031   2.161   2.685
    1   AR   Ar  151   4.010   1.847   2.809
    1   AR   Ar  152   4.107   2.525   2.031
    1   AR   Ar  153   3.512   1.808   3.779
    1   AR   Ar  154   3.406   2.860   4.221
    1   AR   Ar  155   4.426   2.116   4.593
    1   AR   Ar  156   4.530   3.151   4.286
    1   AR   Ar  157   3.505   1.689   5.420
    1   AR   Ar  158   3.377   2.802   6.236
    1   AR   Ar  159   4.185   1.185   6.659
    1   AR   Ar  160   3.897   2.950   5.377
    1   AR   Ar  161   3.826   3.256   0.158
    1   AR   Ar  162   3.900   4.659   0.499
    1   AR   Ar  163   4.685   3.817   0.951
    1   AR   Ar  164   5.114   4.996   0.562
    1   AR   Ar  165   3.487   3.729   2.273
    1   AR   Ar  166   3.391   4.418   2.876
    1   AR   Ar  167   4.262   2.839   3.030
    1   AR   Ar  168   4.157   4.382   1.591
    1   AR   Ar  169   2.893   3.228   3.173
    1   AR   Ar  170   3.471   4.687   4.261
    1   AR   Ar  171   3.554   3.775   4.851
    1   AR   Ar  172   4.575   4.289   3.799
    1   AR   Ar  173   2.993   3.513   5.576
    1   AR   Ar  174   4.431   5.091   6.314
    1   AR   Ar  175   4.059   4.006   5.635
    1   AR   Ar  176   4.447   4.932   5.162
    1   AR   Ar  177   4.295   5.573  -0.070
    1   AR   Ar  178   3.733   6.274   1.679
    1   AR   Ar  179   4.382   5.431   1.246
    1   AR   Ar  180   4.264   6.756   0.093
    1   AR   Ar  181   3.596   5.332   2.118
    1   AR   Ar  182   2.965   6.173   2.515
    1   AR   Ar  183   4.385   5.260   2.857
    1   AR   Ar  184   4.542   6.311   2.398
    1   AR   Ar  185   3.283   5.510   3.395
    1   AR   Ar  186   3.320   6.108   4.307
    1   AR   Ar  187   4.650   5.411   3.862
    1   AR   Ar  188   4.066   6.647   3.264
    1   AR   Ar  189   3.482   5.529   5.118
    1   AR   Ar  190   3.244   6.172   6.841
    1   AR   Ar  191   4.311   5.891   5.512
    1   AR   Ar  192   4.072   6.910   5.242
    1   AR   Ar  193   5.171   0.089   0.312
    1   AR   Ar  194   4.847   1.172   1.435
    1   AR   Ar  195   6.026   0.534   0.702
    1   AR   Ar  196   5.318   1.418   0.397
    1   AR   Ar  197   5.531   0.155   1.589
    1   AR   Ar  198   5.432   1.053   2.518
    1   AR   Ar  199   6.291   0.535   2.287
    1   AR   Ar  200   6.430   1.464   1.376
    1   AR   Ar  201   5.053   0.104   3.873
    1   AR   Ar  202   4.873   0.990   4.589
    1   AR   Ar  203   6.504   6.922   4.794
    1   AR   Ar  204   6.125   0.279   3.443
    1   AR   Ar  205   5.186   0.078   4.974
    1   AR   Ar  206   5.002   0.126   6.060
    1   AR   Ar  207   6.076   7.085   5.840
    1   AR   Ar  208   6.083   0.674   4.857
    1   AR   Ar  209   6.448   2.213  -0.894
    1   AR   Ar  210   5.380   2.138   1.228
    1   AR   Ar  211   6.180   2.173   0.493
    1   AR   Ar  212   6.440   3.184   0.253
    1   AR   Ar  213   5.059   2.013   2.144
    1   AR   Ar  214   4.964   3.241   1.827
    1   AR   Ar  215   6.203   1.679   2.581
    1   AR   Ar  216   6.497   2.533   1.499
    1   AR   Ar  217   4.669   1.528   3.575
    1   AR   Ar  218   5.351   2.588   4.113
    1   AR   Ar  219   6.010   1.802   3.847
    1   AR   Ar  220   5.387   2.270   3.082
    1   AR   Ar  221   5.248   1.834   5.050
    1   AR   Ar  222   4.445   2.217   6.178
    1   AR   Ar  223   6.302   2.157   6.308
    1   AR   Ar  224   6.638   2.759   5.377
    1   AR   Ar  225   5.546   3.934   0.214
    1   AR   Ar  226   5.169   4.422   1.667
    1   AR   Ar  227   6.687   3.677   1.082
    1   AR   Ar  228   6.028   4.925  -0.019
    1   AR   Ar  229   5.626   3.192   1.029
    1   AR   Ar  230   4.581   3.977   2.716
    1   AR   Ar  231   6.757   3.308   3.400
    1   AR   Ar  232   5.996   3.279   1.975
    1   AR   Ar  233   5.709   3.409   3.666
    1   AR   Ar  234   5.891   4.326   4.221
    1   AR   Ar  235   6.772   3.626   4.338
    1   AR   Ar  236   0.115   4.239   3.630
    1   AR   Ar  237   5.135   2.803   5.304
    1   AR   Ar  238   5.327   4.364   6.079
    1   AR   Ar  239   6.350   4.188   7.104
    1   AR   Ar  240   6.228   3.997   5.279
    1   AR   Ar  241   5.735   5.988   0.100
    1   AR   Ar  242   5.278   5.985   1.743
    1   AR   Ar  243   6.389   4.310   1.948
    1   AR   Ar  244   6.189   6.623   0.922
    1   AR   Ar  245   5.443   5.167   2.335
    1   AR   Ar  246   5.414   6.752   2.820
    1   AR   Ar  247   6.099   4.009   2.938
    1   AR   Ar  248   6.206   6.327   2.025
    1   AR   Ar  249   6.175   5.368   3.107
    1   AR   Ar  250   4.792   6.224   4.477
    1   AR   Ar  251   6.360   5.483   4.492
    1   AR   Ar  252   6.115   6.396   3.981
    1   AR   Ar  253   5.465   4.954   4.915
    1   AR   Ar  254   5.252   5.953   6.258
    1   AR   Ar  255   5.968   5.327   5.949
    1   AR   Ar  256   5.789   6.099   5.087
    7.12000  7.12000 12.00000
Argon-slab step 380
  256
    1   AR   Ar    1   0.306   0.274  -0.388
    1   AR   Ar    2   7.015   0.511   0.872
    1   AR   Ar    3   0.099   6.457   1.048
    1   AR   Ar    4   1.209   0.503   0.751
    1   AR   Ar    5   0.035   6.903   1.935
    1   AR   Ar    6   7.085   0.309   3.077
    1   AR   Ar    7   0.769   6.787   2.616
    1   AR   Ar    8   1.113   0.028   1.767
    1   AR   Ar    9   0.318   7.106   4.219
    1   AR   Ar   10   7.067   0.951   4.476
    1   AR   Ar   11   1.277   0.165   4.247
    1   AR   Ar   12   0.921   0.619   3.340
    1   AR   Ar   13   7.065   0.630   5.320
    1   AR   Ar   14   0.151   1.355   5.999
    1   AR   Ar   15   1.975   7.023   7.685
    1   AR   Ar   16   1.023   0.869   5.162
    1   AR   Ar   17   0.031   1.347   0.164
    1   AR   Ar   18   0.268   2.378   0.350
    1   AR   Ar   19   0.629   1.586   1.118
    1   AR   Ar   20   0.693   2.500  -0.779
    1   AR   Ar   21   0.259   0.820   2.102
    1   AR   Ar   22   6.917   2.595   2.631
    1   AR   Ar   23   0.085   1.600   2.759
    1   AR   Ar   24   0.376   2.532   1.802
    1   AR   Ar   25   0.520   1.907   3.922
    1   AR   Ar   26   6.763   2.512   4.142
    1   AR   Ar   27   0.349   2.031   5.056
    1   AR   Ar   28   1.305   2.614   4.245
    1   AR   Ar   29   6.298   1.775   4.863
    1   AR   Ar   30   0.204   2.630   6.347
    1   AR   Ar   31   0.987   1.161   7.243
    1   AR   Ar   32   1.312   2.745   5.394
    1   AR   Ar   33   0.531   3.539  -0.286
    1   AR   Ar   34   7.119   4.546   1.285
    1   AR   Ar   35   0.571   3.685   0.782
    1   AR   Ar   36   1.298   4.909  -0.590
    1   AR   Ar   37   7.022   3.715   2.481
    1   AR   Ar   38   0.381   4.698   2.555
    1   AR   Ar   39   0.960   3.745   2.913
    1   AR   Ar   40   1.067   4.313   1.863
    1   AR   Ar   41   0.528   2.744   3.258
    1   AR   Ar   42   0.153   4.295   4.957
    1   AR   Ar   43   0.346   3.107   4.827
    1   AR   Ar   44   0.831   3.509   3.910
    1   AR   Ar   45   0.042   3.632   5.990
    1   AR   Ar   46   7.006   4.918   6.482
    1   AR   Ar   47   1.063   3.161   6.292
    1   AR   Ar   48   0.900   4.638   5.713
    1   AR   Ar   49   6.939   4.233   0.053
    1   AR   Ar   50   6.663   5.471   0.841
    1   AR   Ar   51   1.321   4.483   0.829
    1   AR   Ar   52   0.890   5.530   0.215
    1   AR   Ar   53   6.980   5.733   2.252
    1   AR   Ar   54   6.755   6.249   3.104
    1   AR   Ar   55   0.720   5.656   2.998
    1   AR   Ar   56   0.679   5.594   1.590
    1   AR   Ar   57   0.835   4.615   4.125
    1   AR   Ar   58   0.133   6.124   4.403
    1   AR   Ar   59   1.238   5.745   4.692
    1   AR   Ar   60   1.098   6.412   3.835
    1   AR   Ar   61   6.977   6.515   5.755
    1   AR   Ar   62   0.875   5.982   6.008
    1   AR   Ar   63   1.847   5.325   5.883
    1   AR   Ar   64   0.839   6.876   5.046
    1   AR   Ar   65   1.026   6.749  -0.045
    1   AR   Ar   66   1.902   1.168   1.460
    1   AR   Ar   67   2.610   6.144   0.381
    1   AR   Ar   68   2.762   1.227   0.887
    1   AR   Ar   69   2.279   0.293   0.948
    1   AR   Ar   70   1.526   0.717   2.395
    1   AR   Ar   71   2.072   6.962   2.304
    1   AR   Ar   72   2.872   0.382   1.767
    1   AR   Ar   73   1.644   7.091   3.242
    1   AR   Ar   74   1.578   1.383   4.351
    1   AR   Ar   75   2.398   0.230   4.270
    1   AR   Ar   76   1.950   0.957   3.423
    1   AR   Ar   77   1.946   0.071   5.111
    1   AR   Ar   78   2.187   0.672   5.960
    1   AR   Ar   79   2.637   6.884   6.423
    1   AR   Ar   80   2.611   1.126   4.924
    1   AR   Ar   81   1.794   1.298   0.384
    1   AR   Ar   82   1.873   2.929   0.736
    1   AR   Ar   83   2.609   2.271   1.457
    1   AR   Ar   84   2.111   2.954  -0.469
    1   AR   Ar   85   1.656   2.154   1.565
    1   AR   Ar   86   1.687   2.734   2.614
    1   AR   Ar   87   2.492   1.142   2.534
    1   AR   Ar   88   2.606   3.148   1.966
    1   AR   Ar   89   1.337   1.611   2.773
    1   AR   Ar   90   2.427   3.222   4.255
    1   AR   Ar   91   2.426   2.195   4.436
    1   AR   Ar   92   2.268   2.398   3.449
    1   AR   Ar   93   1.740   1.750   5.462
    1   AR   Ar   94   2.076   3.008   6.375
    1   AR   Ar   95   2.705   1.696   6.300
    1   AR   Ar   96   2.415   2.580   5.534
    1   AR   Ar   97   1.941   3.775   0.105
    1   AR   Ar   98   2.112   4.475   1.584
    1   AR   Ar   99   2.802   3.164   0.409
    1   AR   Ar  100   2.832   4.622  -0.220
    1   AR   Ar  101   1.220   3.134   1.712
    1   AR   Ar  102   1.651   4.678   3.111
    1   AR   Ar  103   2.171   3.977   2.624
    1   AR   Ar  104   3.243   3.843   1.234
    1   AR   Ar  105   1.878   3.357   3.408
    1   AR   Ar  106   1.769   4.158   4.117
    1   AR   Ar  107   2.597   4.194   4.764
    1   AR   Ar  108   2.674   4.243   3.631
    1   AR   Ar  109   1.131   3.777   5.006
    1   AR   Ar  110   1.891   3.651   5.635
    1   AR   Ar  111   3.453   4.294   6.615
    1   AR   Ar  112   2.538   4.408   5.772
    1   AR   Ar  113   2.006   5.337   0.925
    1   AR   Ar  114   1.304   6.289   1.256
    1   AR   Ar  115   3.451   5.613   0.910
    1   AR   Ar  116   3.455   0.250  -0.430
    1   AR   Ar  117   1.554   5.221   2.152
    1   AR   Ar  118   1.833   6.089   2.764
    1   AR   Ar  119   2.643   5.047   2.331
    1   AR   Ar  120   2.242   6.081   1.701
    1   AR   Ar  121   1.498   5.520   3.702
    1   AR   Ar  122   2.226   6.296   4.591
    1   AR   Ar  123   2.529   5.106   4.190
    1   AR   Ar  124   2.442   6.460   3.501
    1   AR   Ar  125   1.700   4.752   4.940
    1   AR   Ar  126   1.473   7.081   6.095
    1   AR   Ar  127   2.509   5.107   6.644
    1   AR   Ar  128   2.219   6.273   5.640
    1   AR   Ar  129   3.461   6.979   0.809
    1   AR   Ar  130   4.123   0.972   0.481
    1   AR   Ar  131   4.494   6.841   1.226
    1   AR   Ar  132   4.109   1.584  -0.643
    1   AR   Ar  133   3.482   7.032   2.508
    1   AR   Ar  134   3.470   0.896   2.718
    1   AR   Ar  135   4.702   0.303   2.833
    1   AR   Ar  136   4.064   0.449   1.817
    1   AR   Ar  137   3.091   0.340   3.514
    1   AR   Ar  138   3.401   0.838   4.406
    1   AR   Ar  139   3.989   6.972   4.205
    1   AR   Ar  140   4.084   0.663   3.531
    1   AR   Ar  141   3.030   7.064   5.489
    1   AR   Ar  142   3.247   0.863   6.170
    1   AR   Ar  143   4.123   0.125   6.867
    1   AR   Ar  144   4.813   1.331   5.737
    1   AR   Ar  145   3.251   2.012   0.386
    1   AR   Ar  146   3.548   2.831   1.174
    1   AR   Ar  147   4.298   2.117   0.772
    1   AR   Ar  148   5.534   2.110  -0.297
    1   AR   Ar  149   3.711   1.507   1.788
    1   AR   Ar  150   3.009   2.149   2.663
    1   AR   Ar  151   3.994   1.849   2.826
    1   AR   Ar  152   4.063   2.548   2.038
    1   AR   Ar  153   3.506   1.785   3.791
    1   AR   Ar  154   3.432   2.851   4.233
    1   AR   Ar  155   4.437   2.140   4.614
    1   AR   Ar  156   4.531   3.194   4.268
    1   AR   Ar  157   3.495   1.681   5.420
    1   AR   Ar  158   3.374   2.751   6.236
    1   AR   Ar  159   4.188   1.168   6.677
    1   AR   Ar  160   3.936   2.940   5.383
    1   AR   Ar  161   3.845   3.217   0.112
    1   AR   Ar  162   3.874   4.658   0.495
    1   AR   Ar  163   4.700   3.783   0.946
    1   AR   Ar  164   5.136   4.988   0.597
    1   AR   Ar  165   3.518   3.714   2.290
    1   AR   Ar  166   3.387   4.439   2.913
    1   AR   Ar  167   4.281   2.838   3.046
    1   AR   Ar  168   4.143   4.400   1.549
    1   AR   Ar  169   2.896   3.232   3.165
    1   AR   Ar  170   3.478   4.715   4.259
    1   AR   Ar  171   3.526   3.782   4.830
    1   AR   Ar  172   4.589   4.297   3.789
    1   AR   Ar  173   3.000   3.502   5.621
    1   AR   Ar  174   4.404   5.080   6.314
    1   AR   Ar  175   4.069   4.030   5.633
    1   AR   Ar  176   4.420   4.898   5.184
    1   AR   Ar  177   4.306   5.575  -0.086
    1   AR   Ar  178   3.731   6.262   1.694
    1   AR   Ar  179   4.370   5.405   1.251
    1   AR   Ar  180   4.276   6.756   0.111
    1   AR   Ar  181   3.562   5.310   2.110
    1   AR   Ar  182   2.987   6.184   2.512
    1   AR   Ar  183   4.420   5.258   2.838
    1   AR   Ar  184   4.557   6.296   2.380
    1   AR   Ar  185   3.267   5.544   3.390
    1   AR   Ar  186   3.316   6.102   4.310
    1   AR   Ar  187   4.666   5.409   3.830
    1   AR   Ar  188   4.070   6.647   3.259
    1   AR   Ar  189   3.461   5.547   5.122
    1   AR   Ar  190   3.235   6.197   6.868
    1   AR   Ar  191   4.362   5.906   5.521
    1   AR   Ar  192   4.099   6.909   5.270
    1   AR   Ar  193   5.196   0.099   0.331
    1   AR   Ar  194   4.830   1.175   1.387
    1   AR   Ar  195   6.035   0.555   0.681
    1   AR   Ar  196   5.296   1.424   0.382
    1   AR   Ar  197   5.558   0.156   1.590
    1   AR   Ar  198   5.424   1.073   2.492
    1   AR   Ar  199   6.307   0.526   2.306
    1   AR   Ar  200   6.468   1.475   1.348
    1   AR   Ar  201   5.060   0.035   3.843
    1   AR   Ar  202   4.893   0.997   4.562
    1   AR   Ar  203   6.520   6.895   4.792
    1   AR   Ar  204   6.110   0.261   3.445
    1   AR   Ar  205   5.204   0.083   4.960
    1   AR   Ar  206   4.981   0.098   6.064
    1   AR   Ar  207   6.064   7.033   5.847
    1   AR   Ar  208   6.107   0.706   4.851
    1   AR   Ar  209   6.452   2.209  -0.882
    1   AR   Ar  210   5.381   2.111   1.201
    1   AR   Ar  211   6.179   2.181   0.464
    1   AR   Ar  212   6.452   3.163   0.242
    1   AR   Ar  213   5.068   1.995   2.191
    1   AR   Ar  214   4.953   3.234   1.840
    1   AR   Ar  215   6.216   1.667   2.541
    1   AR   Ar  216   6.485   2.519   1.503
    1   AR   Ar  217   4.647   1.563   3.594
    1   AR   Ar  218   5.376   2.578   4.141
    1   AR   Ar  219   6.000   1.797   3.815
    1   AR   Ar  220   5.436   2.272   3.070
    1   AR   Ar  221   5.256   1.817   5.036
    1   AR   Ar  222   4.467   2.200   6.190
    1   AR   Ar  223   6.305   2.143   6.289
    1   AR   Ar  224   6.616   2.738   5.390
    1   AR   Ar  225   5.526   3.949   0.204
    1   AR   Ar  226   5.175   4.425   1.681
    1   AR   Ar  227   6.739   3.661   1.050
    1   AR   Ar  228   6.042   4.944  -0.016
    1   AR   Ar  229   5.657   3.171   1.018
    1   AR   Ar  230   4.552   4.011   2.743
    1   AR   Ar  231   6.773   3.315   3.391
    1   AR   Ar  232   5.995   3.261   2.004
    1   AR   Ar  233   5.701   3.420   3.676
    1   AR   Ar  234   5.894   4.314   4.227
    1   AR   Ar  235   6.789   3.629   4.358
    1   AR   Ar  236   0.125   4.229   3.641
    1   AR   Ar  237   5.152   2.806   5.300
    1   AR   Ar  238   5.309   4.370   6.090
    1   AR   Ar  239   6.307   4.167   7.134
    1   AR   Ar  240   6.210   4.008   5.328
    1   AR   Ar  241   5.772   6.008   0.067
    1   AR   Ar  242   5.257   5.974   1.711
    1   AR   Ar  243   6.397   4.315   1.959
    1   AR   Ar  244   6.212   6.621   0.921
    1   AR   Ar  245   5.458   5.167   2.351
    1   AR   Ar  246   5.455   6.737   2.831
    1   AR   Ar  247   6.097   3.998   2.958
    1   AR   Ar  248   6.227   6.305   2.016
    1   AR   Ar  249   6.159   5.414   3.077
    1   AR   Ar  250   4.820   6.215   4.468
    1   AR   Ar  251   6.343   5.499   4.483
    1   AR   Ar  252   6.116   6.381   3.979
    1   AR   Ar  253   5.449   4.951   4.918
    1   AR   Ar  254   5.226   5.943   6.260
    1   AR   Ar  255   5.937   5.319   5.933
    1   AR   Ar  256   5.825   6.086   5.107
    7.12000  7.12000 12.00000
Argon-slab step 385
  256
    1   AR   Ar    1   0.305   0.255  -0.339
    1   AR   Ar    2   7.007   0.510   0.873
    1   AR   Ar    3   0.132   6.446   1.035
    1   AR   Ar    4   1.204   0.488   0.754
    1   AR   Ar    5   0.017   6.920   1.912
    1   AR   Ar    6   7.087   0.300   3.104
    1   AR   Ar    7   0.771   6.782   2.655
    1   AR   Ar    8   1.142   0.034   1.764
    1   AR   Ar    9   0.286   0.004   4.196
    1   AR   Ar   10   7.050   0.962   4.446
    1   AR   Ar   11   1.281   0.140   4.257
    1   AR   Ar   12   0.908   0.624   3.342
    1   AR   Ar   13   7.050   0.596   5.315
    1   AR   Ar   14   0.155   1.338   5.979
    1   AR   Ar   15   1.998   7.025   7.719
    1   AR   Ar   16   1.017   0.856   5.124
    1   AR   Ar   17   7.113   1.341   0.130
    1   AR   Ar   18   0.253   2.379   0.372
    1   AR   Ar   19   0.635   1.597   1.119
    1   AR   Ar   20   0.680   2.522  -0.770
    1   AR   Ar   21   0.235   0.820   2.085
    1   AR   Ar   22   6.920   2.587   2.616
    1   AR   Ar   23   0.087   1.575   2.773
    1   AR   Ar   24   0.385   2.507   1.794
    1   AR   Ar   25   0.490   1.909   3.929
    1   AR   Ar   26   6.748   2.544   4.166
    1   AR   Ar   27   0.364   2.036   5.095
    1   AR   Ar   28   1.289   2.614   4.248
    1   AR   Ar   29   6.320   1.787   4.876
    1   AR   Ar   30   0.205   2.630   6.332
    1   AR   Ar   31   0.967   1.136   7.251
    1   AR   Ar   32   1.275   2.741   5.451
    1   AR   Ar   33   0.548   3.518  -0.323
    1   AR   Ar   34   7.105   4.547   1.324
    1   AR   Ar   35   0.594   3.685   0.779
    1   AR   Ar   36   1.313   4.940  -0.617
    1   AR   Ar   37   7.031   3.724   2.470
    1   AR   Ar   38   0.392   4.730   2.532
    1   AR   Ar   39   1.005   3.746   2.943
    1   AR   Ar   40   1.035   4.341   1.872
    1   AR   Ar   41   0.535   2.734   3.243
    1   AR   Ar   42   0.150   4.319   4.960
    1   AR   Ar   43   0.325   3.086   4.831
    1   AR   Ar   44   0.832   3.507   3.880
    1   AR   Ar   45   0.056   3.619   5.992
    1   AR   Ar   46   7.008   4.892   6.508
    1   AR   Ar   47   1.082   3.161   6.284
    1   AR   Ar   48   0.855   4.595   5.709
    1   AR   Ar   49   6.957   4.224   0.047
    1   AR   Ar   50   6.612   5.495   0.826
    1   AR   Ar   51   1.331   4.458   0.822
    1   AR   Ar   52   0.896   5.541   0.206
    1   AR   Ar   53   6.982   5.765   2.272
    1   AR   Ar   54   6.767   6.246   3.092
    1   AR   Ar   55   0.693   5.666   2.965
    1   AR   Ar   56   0.697   5.600   1.581
    1   AR   Ar   57   0.821   4.593   4.137
    1   AR   Ar   58   0.136   6.146   4.373
    1   AR   Ar   59   1.255   5.774   4.666
    1   AR   Ar   60   1.113   6.442   3.815
    1   AR   Ar   61   6.983   6.526   5.768
    1   AR   Ar   62   0.867   5.944   6.023
    1   AR   Ar   63   1.845   5.319   5.902
    1   AR   Ar   64   0.846   6.877   5.073
    1   AR   Ar   65   1.037   6.738  -0.052
    1   AR   Ar   66   1.888   1.146   1.456
    1   AR   Ar   67   2.595   6.137   0.372
    1   AR   Ar   68   2.749   1.198   0.860
    1   AR   Ar   69   2.301   0.300   0.943
    1   AR   Ar   70   1.524   0.698   2.401
    1   AR   Ar   71   2.056   6.969   2.254
    1   AR   Ar   72   2.885   0.384   1.786
    1   AR   Ar   73   1.614   7.086   3.222
    1   AR   Ar   74   1.585   1.354   4.348
    1   AR   Ar   75   2.397   0.222   4.250
    1   AR   Ar   76   1.936   0.992   3.430
    1   AR   Ar   77   1.967   0.090   5.122
    1   AR   Ar   78   2.194   0.673   5.936
    1   AR   Ar   79   2.641   6.908   6.416
    1   AR   Ar   80   2.617   1.112   4.959
    1   AR   Ar   81   1.823   1.288   0.364
    1   AR   Ar   82   1.890   2.970   0.749
    1   AR   Ar   83   2.616   2.270   1.474
    1   AR   Ar   84   2.103   2.960  -0.471
    1   AR   Ar   85   1.627   2.135   1.575
    1   AR   Ar   86   1.682   2.692   2.617
    1   AR   Ar   87   2.476   1.142   2.575
    1   AR   Ar   88   2.624   3.173   1.907
    1   AR   Ar   89   1.316   1.580   2.763
    1   AR   Ar   90   2.458   3.218   4.252
    1   AR   Ar   91   2.424   2.188   4.473
    1   AR   Ar   92   2.298   2.372   3.463
    1   AR   Ar   93   1.742   1.747   5.460
    1   AR   Ar   94   2.055   3.025   6.378
    1   AR   Ar   95   2.704   1.717   6.313
    1   AR   Ar   96   2.400   2.572   5.534
    1   AR   Ar   97   1.972   3.769   0.085
    1   AR   Ar   98   2.142   4.464   1.605
    1   AR   Ar   99   2.831   3.163   0.434
    1   AR   Ar  100   2.844   4.616  -0.245
    1   AR   Ar  101   1.200   3.128   1.701
    1   AR   Ar  102   1.670   4.671   3.103
    1   AR   Ar  103   2.188   3.983   2.655
    1   AR   Ar  104   3.224   3.843   1.221
    1   AR   Ar  105   1.880   3.355   3.402
    1   AR   Ar  106   1.777   4.138   4.123
    1   AR   Ar  107   2.601   4.179   4.764
    1   AR   Ar  108   2.685   4.221   3.631
    1   AR   Ar  109   1.099   3.762   4.972
    1   AR   Ar  110   1.879   3.615   5.618
    1   AR   Ar  111   3.472   4.284   6.602
    1   AR   Ar  112   2.501   4.428   5.848
    1   AR   Ar  113   2.006   5.311   0.903
    1   AR   Ar  114   1.303   6.259   1.242
    1   AR   Ar  115   3.435   5.609   0.910
    1   AR   Ar  116   3.454   0.232  -0.401
    1   AR   Ar  117   1.549   5.249   2.159
    1   AR   Ar  118   1.816   6.102   2.760
    1   AR   Ar  119   2.622   5.056   2.370
    1   AR   Ar  120   2.236   6.082   1.709
    1   AR   Ar  121   1.490   5.520   3.716
    1   AR   Ar  122   2.249   6.344   4.588
    1   AR   Ar  123   2.525   5.124   4.190
    1   AR   Ar  124   2.437   6.512   3.481
    1   AR   Ar  125   1.699   4.742   4.961
    1   AR   Ar  126   1.464   7.086   6.097
    1   AR   Ar  127   2.523   5.110   6.658
    1   AR   Ar  128   2.204   6.288   5.627
    1   AR   Ar  129   3.482   6.976   0.829
    1   AR   Ar  130   4.114   0.972   0.465
    1   AR   Ar  131   4.479   6.829   1.212
    1   AR   Ar  132   4.070   1.572  -0.641
    1   AR   Ar  133   3.479   7.018   2.466
    1   AR   Ar  134   3.470   0.907   2.721
    1   AR   Ar  135   4.717   0.310   2.824
    1   AR   Ar  136   4.067   0.455   1.804
    1   AR   Ar  137   3.122   0.352   3.509
    1   AR   Ar  138   3.436   0.863   4.357
    1   AR   Ar  139   3.987   7.017   4.224
    1   AR   Ar  140   4.083   0.688   3.544
    1   AR   Ar  141   3.035   7.070   5.466
    1   AR   Ar  142   3.262   0.854   6.144
    1   AR   Ar  143   4.121   0.113   6.841
    1   AR   Ar  144   4.838   1.311   5.784
    1   AR   Ar  145   3.232   2.023   0.400
    1   AR   Ar  146   3.551   2.860   1.213
    1   AR   Ar  147   4.296   2.142   0.786
    1   AR   Ar  148   5.557   2.109  -0.280
    1   AR   Ar  149   3.704   1.510   1.777
    1   AR   Ar  150   3.015   2.146   2.665
    1   AR   Ar  151   3.980   1.846   2.841
    1   AR   Ar  152   4.020   2.571   2.043
    1   AR   Ar  153   3.492   1.753   3.797
    1   AR   Ar  154   3.460   2.841   4.245
    1   AR   Ar  155   4.435   2.168   4.628
    1   AR   Ar  156   4.530   3.239   4.252
    1   AR   Ar  157   3.485   1.675   5.421
    1   AR   Ar  158   3.368   2.694   6.240
    1   AR   Ar  159   4.191   1.154   6.694
    1   AR   Ar  160   3.979   2.928   5.384
    1   AR   Ar  161   3.865   3.178   0.068
    1   AR   Ar  162   3.848   4.656   0.493
    1   AR   Ar  163   4.716   3.746   0.935
    1   AR   Ar  164   5.157   4.980   0.632
    1   AR   Ar  165   3.552   3.684   2.295
    1   AR   Ar  166   3.384   4.477   2.958
    1   AR   Ar  167   4.302   2.839   3.065
    1   AR   Ar  168   4.123   4.414   1.525
    1   AR   Ar  169   2.898   3.237   3.165
    1   AR   Ar  170   3.491   4.744   4.258
    1   AR   Ar  171   3.505   3.787   4.792
    1   AR   Ar  172   4.603   4.304   3.782
    1   AR   Ar  173   3.001   3.487   5.671
    1   AR   Ar  174   4.376   5.068   6.313
    1   AR   Ar  175   4.081   4.053   5.642
    1   AR   Ar  176   4.393   4.865   5.203
    1   AR   Ar  177   4.318   5.578  -0.100
    1   AR   Ar  178   3.726   6.281   1.690
    1   AR   Ar  179   4.366   5.381   1.261
    1   AR   Ar  180   4.276   6.759   0.138
    1   AR   Ar  181   3.541   5.288   2.100
    1   AR   Ar  182   3.001   6.184   2.510
    1   AR   Ar  183   4.453   5.255   2.813
    1   AR   Ar  184   4.569   6.282   2.365
    1   AR   Ar  185   3.251   5.575   3.383
    1   AR   Ar  186   3.311   6.103   4.305
    1   AR   Ar  187   4.681   5.405   3.799
    1   AR   Ar  188   4.076   6.641   3.252
    1   AR   Ar  189   3.439   5.558   5.132
    1   AR   Ar  190   3.231   6.217   6.896
    1   AR   Ar  191   4.418   5.923   5.533
    1   AR   Ar  192   4.116   6.925   5.310
    1   AR   Ar  193   5.218   0.108   0.351
    1   AR   Ar  194   4.812   1.177   1.340
    1   AR   Ar  195   6.042   0.582   0.661
    1   AR   Ar  196   5.270   1.422   0.373
    1   AR   Ar  197   5.582   0.155   1.592
    1   AR   Ar  198   5.406   1.083   2.467
    1   AR   Ar  199   6.327   0.516   2.324
    1   AR   Ar  200   6.506   1.483   1.320
    1   AR   Ar  201   5.067   7.086   3.812
    1   AR   Ar  202   4.910   1.001   4.530
    1   AR   Ar  203   6.539   6.864   4.794
    1   AR   Ar  204   6.092   0.244   3.449
    1   AR   Ar  205   5.213   0.083   4.920
    1   AR   Ar  206   4.959   0.070   6.067
    1   AR   Ar  207   6.049   6.983   5.852
    1   AR   Ar  208   6.122   0.744   4.845
    1   AR   Ar  209   6.458   2.205  -0.868
    1   AR   Ar  210   5.379   2.102   1.186
    1   AR   Ar  211   6.186   2.186   0.443
    1   AR   Ar  212   6.463   3.141   0.222
    1   AR   Ar  213   5.068   1.978   2.231
    1   AR   Ar  214   4.948   3.224   1.867
    1   AR   Ar  215   6.231   1.662   2.499
    1   AR   Ar  216   6.472   2.503   1.504
    1   AR   Ar  217   4.629   1.599   3.616
    1   AR   Ar  218   5.388   2.554   4.167
    1   AR   Ar  219   5.992   1.787   3.784
    1   AR   Ar  220   5.485   2.280   3.065
    1   AR   Ar  221   5.279   1.805   5.032
    1   AR   Ar  222   4.486   2.187   6.201
    1   AR   Ar  223   6.309   2.129   6.270
    1   AR   Ar  224   6.594   2.718   5.402
    1   AR   Ar  225   5.509   3.965   0.196
    1   AR   Ar  226   5.144   4.427   1.720
    1   AR   Ar  227   6.777   3.639   1.029
    1   AR   Ar  228   6.055   4.959  -0.006
    1   AR   Ar  229   5.688   3.150   1.003
    1   AR   Ar  230   4.516   4.000   2.756
    1   AR   Ar  231   6.786   3.318   3.384
    1   AR   Ar  232   5.996   3.247   2.042
    1   AR   Ar  233   5.692   3.429   3.688
    1   AR   Ar  234   5.918   4.295   4.242
    1   AR   Ar  235   6.793   3.635   4.376
    1   AR   Ar  236   0.125   4.218   3.612
    1   AR   Ar  237   5.147   2.812   5.292
    1   AR   Ar  238   5.292   4.378   6.099
    1   AR   Ar  239   6.264   4.146   7.163
    1   AR   Ar  240   6.192   4.019   5.376
    1   AR   Ar  241   5.809   6.028   0.036
    1   AR   Ar  242   5.241   5.978   1.687
    1   AR   Ar  243   6.395   4.324   1.969
    1   AR   Ar  244   6.229   6.619   0.921
    1   AR   Ar  245   5.471   5.166   2.368
    1   AR   Ar  246   5.503   6.718   2.842
    1   AR   Ar  247   6.096   3.995   2.972
    1   AR   Ar  248   6.260   6.308   2.029
    1   AR   Ar  249   6.144   5.457   3.050
    1   AR   Ar  250   4.850   6.211   4.462
    1   AR   Ar  251   6.332   5.504   4.470
    1   AR   Ar  252   6.114   6.368   3.973
    1   AR   Ar  253   5.433   4.951   4.924
    1   AR   Ar  254   5.194   5.939   6.263
    1   AR   Ar  255   5.913   5.305   5.913
    1   AR   Ar  256   5.855   6.080   5.133
    7.12000  7.12000 12.00000
Argon-slab step 390
  256
    1   AR   Ar    1   0.299   0.241  -0.289
    1   AR   Ar    2   7.010   0.506   0.880
    1   AR   Ar    3   0.171   6.432   1.015
    1   AR   Ar    4   1.197   0.472   0.758
    1   AR   Ar    5   7.116   6.939   1.895
    1   AR   Ar    6   7.087   0.289   3.128
    1   AR   Ar    7   0.771   6.773   2.700
    1   AR   Ar    8   1.168   0.038   1.747
    1   AR   Ar    9   0.248   0.027   4.167
    1   AR   Ar   10   7.051   0.959   4.434
    1   AR   Ar   11   1.303   0.141   4.272
    1   AR   Ar   12   0.889   0.625   3.346
    1   AR   Ar   13   7.036   0.543   5.333
    1   AR   Ar   14   0.159   1.326   5.961
    1   AR   Ar   15   2.022   7.028   7.753
    1   AR   Ar   16   1.011   0.843   5.087
    1   AR   Ar   17   7.074   1.334   0.098
    1   AR   Ar   18   0.237   2.381   0.394
    1   AR   Ar   19   0.640   1.608   1.120
    1   AR   Ar   20   0.667   2.544  -0.761
    1   AR   Ar   21   0.215   0.819   2.064
    1   AR   Ar   22   6.907   2.578   2.596
    1   AR   Ar   23   0.096   1.552   2.792
    1   AR   Ar   24   0.395   2.477   1.782
    1   AR   Ar   25   0.461   1.908   3.938
    1   AR   Ar   26   6.733   2.576   4.191
    1   AR   Ar   27   0.391   2.038   5.132
    1   AR   Ar   28   1.275   2.614   4.253
    1   AR   Ar   29   6.315   1.758   4.878
    1   AR   Ar   30   0.202   2.624   6.316
    1   AR   Ar   31   0.946   1.111   7.257
    1   AR   Ar   32   1.241   2.727   5.487
    1   AR   Ar   33   0.567   3.496  -0.360
    1   AR   Ar   34   7.104   4.558   1.358
    1   AR   Ar   35   0.630   3.684   0.772
    1   AR   Ar   36   1.328   4.970  -0.643
    1   AR   Ar   37   7.049   3.729   2.458
    1   AR   Ar   38   0.397   4.764   2.514
    1   AR   Ar   39   1.048   3.752   2.959
    1   AR   Ar   40   1.008   4.362   1.876
    1   AR   Ar   41   0.554   2.723   3.234
    1   AR   Ar   42   0.148   4.346   4.965
    1   AR   Ar   43   0.314   3.055   4.841
    1   AR   Ar   44   0.833   3.504   3.867
    1   AR   Ar   45   0.069   3.610   5.990
    1   AR   Ar   46   7.009   4.866   6.532
    1   AR   Ar   47   1.090   3.175   6.293
    1   AR   Ar   48   0.812   4.553   5.707
    1   AR   Ar   49   6.973   4.216   0.045
    1   AR   Ar   50   6.561   5.520   0.812
    1   AR   Ar   51   1.342   4.434   0.813
    1   AR   Ar   52   0.903   5.553   0.199
    1   AR   Ar   53   7.007   5.773   2.286
    1   AR   Ar   54   6.781   6.259   3.092
    1   AR   Ar   55   0.669   5.678   2.933
    1   AR   Ar   56   0.702   5.592   1.578
    1   AR   Ar   57   0.823   4.583   4.161
    1   AR   Ar   58   0.138   6.160   4.344
    1   AR   Ar   59   1.270   5.805   4.648
    1   AR   Ar   60   1.115   6.456   3.787
    1   AR   Ar   61   6.982   6.510   5.778
    1   AR   Ar   62   0.860   5.906   6.037
    1   AR   Ar   63   1.841   5.320   5.899
    1   AR   Ar   64   0.850   6.872   5.108
    1   AR   Ar   65   1.054   6.722  -0.054
    1   AR   Ar   66   1.871   1.119   1.455
    1   AR   Ar   67   2.579   6.130   0.366
    1   AR   Ar   68   2.745   1.175   0.835
    1   AR   Ar   69   2.316   0.296   0.934
    1   AR   Ar   70   1.522   0.677   2.409
    1   AR   Ar   71   2.048   6.974   2.202
    1   AR   Ar   72   2.899   0.391   1.805
    1   AR   Ar   73   1.598   7.079   3.198
    1   AR   Ar   74   1.592   1.326   4.347
    1   AR   Ar   75   2.400   0.218   4.220
    1   AR   Ar   76   1.922   1.024   3.442
    1   AR   Ar   77   1.981   0.110   5.139
    1   AR   Ar   78   2.209   0.688   5.911
    1   AR   Ar   79   2.640   6.937   6.410
    1   AR   Ar   80   2.619   1.098   4.997
    1   AR   Ar   81   1.849   1.279   0.342
    1   AR   Ar   82   1.904   3.039   0.773
    1   AR   Ar   83   2.632   2.261   1.485
    1   AR   Ar   84   2.096   2.957  -0.478
    1   AR   Ar   85   1.586   2.120   1.588
    1   AR   Ar   86   1.677   2.649   2.617
    1   AR   Ar   87   2.461   1.145   2.609
    1   AR   Ar   88   2.641   3.206   1.852
    1   AR   Ar   89   1.291   1.562   2.757
    1   AR   Ar   90   2.489   3.217   4.251
    1   AR   Ar   91   2.419   2.181   4.520
    1   AR   Ar   92   2.327   2.343   3.475
    1   AR   Ar   93   1.744   1.727   5.461
    1   AR   Ar   94   2.060   3.012   6.393
    1   AR   Ar   95   2.701   1.742   6.325
    1   AR   Ar   96   2.390   2.562   5.528
    1   AR   Ar   97   1.994   3.776   0.068
    1   AR   Ar   98   2.172   4.450   1.626
    1   AR   Ar   99   2.866   3.163   0.456
    1   AR   Ar  100   2.861   4.602  -0.268
    1   AR   Ar  101   1.184   3.127   1.690
    1   AR   Ar  102   1.681   4.671   3.103
    1   AR   Ar  103   2.214   3.980   2.673
    1   AR   Ar  104   3.202   3.849   1.209
    1   AR   Ar  105   1.876   3.353   3.399
    1   AR   Ar  106   1.780   4.115   4.126
    1   AR   Ar  107   2.597   4.167   4.768
    1   AR   Ar  108   2.693   4.195   3.633
    1   AR   Ar  109   1.075   3.757   4.947
    1   AR   Ar  110   1.874   3.621   5.609
    1   AR   Ar  111   3.485   4.262   6.611
    1   AR   Ar  112   2.467   4.451   5.922
    1   AR   Ar  113   2.004   5.288   0.882
    1   AR   Ar  114   1.312   6.240   1.218
    1   AR   Ar  115   3.396   5.604   0.899
    1   AR   Ar  116   3.457   0.222  -0.369
    1   AR   Ar  117   1.543   5.278   2.165
    1   AR   Ar  118   1.796   6.108   2.757
    1   AR   Ar  119   2.590   5.064   2.414
    1   AR   Ar  120   2.224   6.083   1.721
    1   AR   Ar  121   1.489   5.512   3.723
    1   AR   Ar  122   2.229   6.345   4.578
    1   AR   Ar  123   2.506   5.132   4.185
    1   AR   Ar  124   2.438   6.564   3.466
    1   AR   Ar  125   1.696   4.734   4.986
    1   AR   Ar  126   1.451   7.085   6.099
    1   AR   Ar  127   2.540   5.114   6.677
    1   AR   Ar  128   2.188   6.304   5.616
    1   AR   Ar  129   3.498   6.975   0.851
    1   AR   Ar  130   4.104   0.971   0.449
    1   AR   Ar  131   4.471   6.815   1.196
    1   AR   Ar  132   4.031   1.560  -0.637
    1   AR   Ar  133   3.485   7.012   2.428
    1   AR   Ar  134   3.445   0.900   2.733
    1   AR   Ar  135   4.746   0.325   2.808
    1   AR   Ar  136   4.070   0.465   1.792
    1   AR   Ar  137   3.146   0.356   3.500
    1   AR   Ar  138   3.473   0.886   4.314
    1   AR   Ar  139   3.985   7.061   4.247
    1   AR   Ar  140   4.090   0.716   3.558
    1   AR   Ar  141   3.040   7.078   5.438
    1   AR   Ar  142   3.279   0.840   6.116
    1   AR   Ar  143   4.117   0.099   6.814
    1   AR   Ar  144   4.861   1.281   5.835
    1   AR   Ar  145   3.214   2.038   0.414
    1   AR   Ar  146   3.551   2.888   1.243
    1   AR   Ar  147   4.296   2.165   0.802
    1   AR   Ar  148   5.568   2.127  -0.299
    1   AR   Ar  149   3.694   1.511   1.772
    1   AR   Ar  150   3.036   2.152   2.681
    1   AR   Ar  151   3.972   1.840   2.854
    1   AR   Ar  152   3.982   2.592   2.056
    1   AR   Ar  153   3.478   1.724   3.801
    1   AR   Ar  154   3.489   2.828   4.256
    1   AR   Ar  155   4.424   2.198   4.639
    1   AR   Ar  156   4.528   3.285   4.236
    1   AR   Ar  157   3.476   1.670   5.421
    1   AR   Ar  158   3.362   2.632   6.246
    1   AR   Ar  159   4.194   1.144   6.709
    1   AR   Ar  160   4.022   2.915   5.383
    1   AR   Ar  161   3.885   3.138   0.027
    1   AR   Ar  162   3.823   4.654   0.490
    1   AR   Ar  163   4.731   3.709   0.923
    1   AR   Ar  164   5.178   4.970   0.668
    1   AR   Ar  165   3.588   3.649   2.297
    1   AR   Ar  166   3.388   4.521   3.000
    1   AR   Ar  167   4.323   2.844   3.087
    1   AR   Ar  168   4.105   4.398   1.553
    1   AR   Ar  169   2.904   3.243   3.162
    1   AR   Ar  170   3.508   4.772   4.255
    1   AR   Ar  171   3.494   3.788   4.749
    1   AR   Ar  172   4.617   4.310   3.776
    1   AR   Ar  173   3.000   3.473   5.721
    1   AR   Ar  174   4.349   5.056   6.310
    1   AR   Ar  175   4.090   4.063   5.660
    1   AR   Ar  176   4.368   4.845   5.215
    1   AR   Ar  177   4.330   5.580  -0.111
    1   AR   Ar  178   3.723   6.301   1.677
    1   AR   Ar  179   4.368   5.361   1.273
    1   AR   Ar  180   4.276   6.761   0.163
    1   AR   Ar  181   3.532   5.267   2.087
    1   AR   Ar  182   3.004   6.169   2.510
    1   AR   Ar  183   4.482   5.250   2.783
    1   AR   Ar  184   4.576   6.272   2.354
    1   AR   Ar  185   3.234   5.603   3.375
    1   AR   Ar  186   3.304   6.110   4.294
    1   AR   Ar  187   4.697   5.401   3.773
    1   AR   Ar  188   4.081   6.633   3.246
    1   AR   Ar  189   3.417   5.562   5.150
    1   AR   Ar  190   3.230   6.233   6.926
    1   AR   Ar  191   4.474   5.939   5.542
    1   AR   Ar  192   4.121   6.918   5.321
    1   AR   Ar  193   5.234   0.113   0.370
    1   AR   Ar  194   4.794   1.178   1.296
    1   AR   Ar  195   6.045   0.617   0.641
    1   AR   Ar  196   5.241   1.410   0.370
    1   AR   Ar  197   5.605   0.154   1.594
    1   AR   Ar  198   5.385   1.078   2.444
    1   AR   Ar  199   6.347   0.505   2.343
    1   AR   Ar  200   6.544   1.485   1.291
    1   AR   Ar  201   5.072   7.018   3.782
    1   AR   Ar  202   4.922   1.004   4.493
    1   AR   Ar  203   6.559   6.835   4.799
    1   AR   Ar  204   6.072   0.229   3.455
    1   AR   Ar  205   5.223   0.079   4.882
    1   AR   Ar  206   4.935   0.042   6.068
    1   AR   Ar  207   6.031   6.934   5.853
    1   AR   Ar  208   6.128   0.779   4.839
    1   AR   Ar  209   6.467   2.202  -0.853
    1   AR   Ar  210   5.370   2.121   1.192
    1   AR   Ar  211   6.204   2.186   0.438
    1   AR   Ar  212   6.462   3.136   0.187
    1   AR   Ar  213   5.057   1.969   2.257
    1   AR   Ar  214   4.958   3.211   1.912
    1   AR   Ar  215   6.247   1.662   2.454
    1   AR   Ar  216   6.457   2.497   1.500
    1   AR   Ar  217   4.616   1.639   3.641
    1   AR   Ar  218   5.389   2.521   4.192
    1   AR   Ar  219   5.989   1.786   3.782
    1   AR   Ar  220   5.536   2.296   3.066
    1   AR   Ar  221   5.313   1.798   5.026
    1   AR   Ar  222   4.502   2.179   6.212
    1   AR   Ar  223   6.314   2.113   6.249
    1   AR   Ar  224   6.573   2.699   5.412
    1   AR   Ar  225   5.493   3.980   0.188
    1   AR   Ar  226   5.115   4.425   1.758
    1   AR   Ar  227   6.799   3.614   1.019
    1   AR   Ar  228   6.062   4.967   0.015
    1   AR   Ar  229   5.720   3.128   0.986
    1   AR   Ar  230   4.477   3.978   2.763
    1   AR   Ar  231   6.797   3.315   3.379
    1   AR   Ar  232   6.000   3.238   2.084
    1   AR   Ar  233   5.679   3.433   3.704
    1   AR   Ar  234   5.945   4.277   4.256
    1   AR   Ar  235   6.781   3.646   4.389
    1   AR   Ar  236   0.080   4.225   3.585
    1   AR   Ar  237   5.141   2.820   5.285
    1   AR   Ar  238   5.273   4.386   6.106
    1   AR   Ar  239   6.222   4.126   7.190
    1   AR   Ar  240   6.175   4.031   5.424
    1   AR   Ar  241   5.846   6.049   0.008
    1   AR   Ar  242   5.236   6.002   1.680
    1   AR   Ar  243   6.379   4.335   1.983
    1   AR   Ar  244   6.238   6.620   0.920
    1   AR   Ar  245   5.481   5.165   2.383
    1   AR   Ar  246   5.553   6.694   2.850
    1   AR   Ar  247   6.096   3.999   2.979
    1   AR   Ar  248   6.286   6.335   2.053
    1   AR   Ar  249   6.130   5.496   3.029
    1   AR   Ar  250   4.880   6.209   4.459
    1   AR   Ar  251   6.326   5.498   4.454
    1   AR   Ar  252   6.107   6.359   3.962
    1   AR   Ar  253   5.419   4.954   4.933
    1   AR   Ar  254   5.158   5.939   6.268
    1   AR   Ar  255   5.893   5.285   5.890
    1   AR   Ar  256   5.879   6.081   5.164
    7.12000  7.12000 12.00000
Argon-slab step 395
  256
    1   AR   Ar    1   0.287   0.232  -0.238
    1   AR   Ar    2   7.024   0.501   0.890
    1   AR   Ar    3   0.214   6.414   0.992
    1   AR   Ar    4   1.189   0.456   0.761
    1   AR   Ar    5   7.098   6.959   1.881
    1   AR   Ar    6   7.081   0.275   3.149
    1   AR   Ar    7   0.766   6.762   2.743
    1   AR   Ar    8   1.182   0.038   1.720
    1   AR   Ar    9   0.212   0.053   4.134
    1   AR   Ar   10   7.059   0.961   4.422
    1   AR   Ar   11   1.333   0.162   4.292
    1   AR   Ar   12   0.869   0.628   3.353
    1   AR   Ar   13   7.024   0.482   5.360
    1   AR   Ar   14   0.165   1.320   5.946
    1   AR   Ar   15   2.045   7.030   7.785
    1   AR   Ar   16   1.003   0.829   5.053
    1   AR   Ar   17   7.034   1.327   0.068
    1   AR   Ar   18   0.219   2.386   0.417
    1   AR   Ar   19   0.645   1.616   1.122
    1   AR   Ar   20   0.654   2.561  -0.751
    1   AR   Ar   21   0.199   0.820   2.040
    1   AR   Ar   22   6.882   2.570   2.573
    1   AR   Ar   23   0.111   1.529   2.818
    1   AR   Ar   24   0.406   2.443   1.765
    1   AR   Ar   25   0.432   1.904   3.948
    1   AR   Ar   26   6.716   2.605   4.216
    1   AR   Ar   27   0.402   2.026   5.146
    1   AR   Ar   28   1.263   2.613   4.259
    1   AR   Ar   29   6.339   1.731   4.895
    1   AR   Ar   30   0.196   2.612   6.299
    1   AR   Ar   31   0.926   1.085   7.263
    1   AR   Ar   32   1.210   2.699   5.498
    1   AR   Ar   33   0.585   3.477  -0.393
    1   AR   Ar   34   7.116   4.576   1.385
    1   AR   Ar   35   0.674   3.680   0.763
    1   AR   Ar   36   1.344   4.999  -0.669
    1   AR   Ar   37   7.072   3.731   2.444
    1   AR   Ar   38   0.391   4.801   2.504
    1   AR   Ar   39   1.090   3.766   2.955
    1   AR   Ar   40   0.991   4.376   1.871
    1   AR   Ar   41   0.582   2.710   3.226
    1   AR   Ar   42   0.140   4.374   4.969
    1   AR   Ar   43   0.311   3.018   4.856
    1   AR   Ar   44   0.830   3.499   3.872
    1   AR   Ar   45   0.082   3.604   5.984
    1   AR   Ar   46   7.010   4.839   6.554
    1   AR   Ar   47   1.085   3.208   6.323
    1   AR   Ar   48   0.775   4.512   5.710
    1   AR   Ar   49   6.988   4.208   0.045
    1   AR   Ar   50   6.512   5.546   0.800
    1   AR   Ar   51   1.355   4.413   0.805
    1   AR   Ar   52   0.911   5.566   0.196
    1   AR   Ar   53   7.050   5.760   2.288
    1   AR   Ar   54   6.798   6.289   3.106
    1   AR   Ar   55   0.653   5.694   2.908
    1   AR   Ar   56   0.693   5.570   1.582
    1   AR   Ar   57   0.833   4.577   4.190
    1   AR   Ar   58   0.142   6.165   4.314
    1   AR   Ar   59   1.282   5.838   4.642
    1   AR   Ar   60   1.104   6.453   3.756
    1   AR   Ar   61   6.985   6.493   5.786
    1   AR   Ar   62   0.854   5.869   6.048
    1   AR   Ar   63   1.840   5.333   5.867
    1   AR   Ar   64   0.851   6.864   5.148
    1   AR   Ar   65   1.075   6.701  -0.053
    1   AR   Ar   66   1.854   1.090   1.457
    1   AR   Ar   67   2.563   6.124   0.361
    1   AR   Ar   68   2.754   1.166   0.822
    1   AR   Ar   69   2.324   0.278   0.924
    1   AR   Ar   70   1.520   0.681   2.402
    1   AR   Ar   71   2.051   6.977   2.154
    1   AR   Ar   72   2.910   0.406   1.820
    1   AR   Ar   73   1.598   7.076   3.170
    1   AR   Ar   74   1.599   1.303   4.352
    1   AR   Ar   75   2.404   0.220   4.185
    1   AR   Ar   76   1.908   1.051   3.456
    1   AR   Ar   77   1.978   0.106   5.127
    1   AR   Ar   78   2.226   0.711   5.894
    1   AR   Ar   79   2.637   6.968   6.405
    1   AR   Ar   80   2.619   1.084   5.034
    1   AR   Ar   81   1.872   1.271   0.320
    1   AR   Ar   82   1.913   3.103   0.804
    1   AR   Ar   83   2.652   2.245   1.492
    1   AR   Ar   84   2.090   2.945  -0.488
    1   AR   Ar   85   1.570   2.109   1.614
    1   AR   Ar   86   1.670   2.605   2.615
    1   AR   Ar   87   2.446   1.151   2.634
    1   AR   Ar   88   2.655   3.244   1.802
    1   AR   Ar   89   1.261   1.559   2.755
    1   AR   Ar   90   2.520   3.218   4.252
    1   AR   Ar   91   2.414   2.170   4.568
    1   AR   Ar   92   2.355   2.313   3.486
    1   AR   Ar   93   1.746   1.704   5.461
    1   AR   Ar   94   2.087   2.979   6.414
    1   AR   Ar   95   2.696   1.767   6.333
    1   AR   Ar   96   2.383   2.553   5.520
    1   AR   Ar   97   1.987   3.795   0.049
    1   AR   Ar   98   2.192   4.441   1.647
    1   AR   Ar   99   2.905   3.162   0.475
    1   AR   Ar  100   2.879   4.588  -0.288
    1   AR   Ar  101   1.170   3.138   1.697
    1   AR   Ar  102   1.684   4.681   3.108
    1   AR   Ar  103   2.251   3.971   2.678
    1   AR   Ar  104   3.181   3.863   1.196
    1   AR   Ar  105   1.871   3.345   3.403
    1   AR   Ar  106   1.778   4.091   4.127
    1   AR   Ar  107   2.584   4.161   4.775
    1   AR   Ar  108   2.697   4.167   3.642
    1   AR   Ar  109   1.054   3.756   4.925
    1   AR   Ar  110   1.872   3.640   5.596
    1   AR   Ar  111   3.511   4.272   6.595
    1   AR   Ar  112   2.434   4.467   5.989
    1   AR   Ar  113   2.003   5.266   0.862
    1   AR   Ar  114   1.331   6.232   1.183
    1   AR   Ar  115   3.356   5.599   0.888
    1   AR   Ar  116   3.469   0.238  -0.333
    1   AR   Ar  117   1.537   5.304   2.170
    1   AR   Ar  118   1.773   6.112   2.755
    1   AR   Ar  119   2.551   5.073   2.463
    1   AR   Ar  120   2.211   6.081   1.734
    1   AR   Ar  121   1.493   5.496   3.722
    1   AR   Ar  122   2.210   6.342   4.562
    1   AR   Ar  123   2.484   5.143   4.180
    1   AR   Ar  124   2.448   6.611   3.452
    1   AR   Ar  125   1.691   4.727   5.011
    1   AR   Ar  126   1.437   7.082   6.100
    1   AR   Ar  127   2.560   5.123   6.704
    1   AR   Ar  128   2.173   6.319   5.610
    1   AR   Ar  129   3.507   6.977   0.873
    1   AR   Ar  130   4.119   0.941   0.429
    1   AR   Ar  131   4.475   6.801   1.180
    1   AR   Ar  132   3.991   1.547  -0.630
    1   AR   Ar  133   3.501   7.010   2.399
    1   AR   Ar  134   3.426   0.910   2.723
    1   AR   Ar  135   4.771   0.338   2.790
    1   AR   Ar  136   4.074   0.479   1.780
    1   AR   Ar  137   3.161   0.347   3.493
    1   AR   Ar  138   3.503   0.903   4.293
    1   AR   Ar  139   3.983   7.100   4.273
    1   AR   Ar  140   4.110   0.747   3.565
    1   AR   Ar  141   3.044   7.087   5.407
    1   AR   Ar  142   3.298   0.822   6.088
    1   AR   Ar  143   4.112   0.081   6.786
    1   AR   Ar  144   4.884   1.245   5.884
    1   AR   Ar  145   3.198   2.055   0.429
    1   AR   Ar  146   3.546   2.915   1.261
    1   AR   Ar  147   4.295   2.187   0.819
    1   AR   Ar  148   5.569   2.148  -0.330
    1   AR   Ar  149   3.693   1.526   1.772
    1   AR   Ar  150   3.050   2.159   2.692
    1   AR   Ar  151   3.971   1.831   2.863
    1   AR   Ar  152   3.951   2.608   2.081
    1   AR   Ar  153   3.462   1.706   3.800
    1   AR   Ar  154   3.521   2.812   4.266
    1   AR   Ar  155   4.417   2.192   4.664
    1   AR   Ar  156   4.525   3.329   4.220
    1   AR   Ar  157   3.485   1.666   5.387
    1   AR   Ar  158   3.356   2.568   6.252
    1   AR   Ar  159   4.197   1.138   6.722
    1   AR   Ar  160   4.065   2.904   5.380
    1   AR   Ar  161   3.906   3.098  -0.011
    1   AR   Ar  162   3.798   4.652   0.488
    1   AR   Ar  163   4.745   3.671   0.911
    1   AR   Ar  164   5.194   4.966   0.662
    1   AR   Ar  165   3.620   3.612   2.297
    1   AR   Ar  166   3.399   4.569   3.036
    1   AR   Ar  167   4.346   2.850   3.109
    1   AR   Ar  168   4.080   4.378   1.584
    1   AR   Ar  169   2.914   3.247   3.158
    1   AR   Ar  170   3.509   4.783   4.261
    1   AR   Ar  171   3.498   3.783   4.706
    1   AR   Ar  172   4.630   4.317   3.773
    1   AR   Ar  173   2.999   3.463   5.769
    1   AR   Ar  174   4.322   5.043   6.305
    1   AR   Ar  175   4.090   4.052   5.691
    1   AR   Ar  176   4.349   4.846   5.214
    1   AR   Ar  177   4.341   5.582  -0.119
    1   AR   Ar  178   3.737   6.316   1.623
    1   AR   Ar  179   4.372   5.345   1.287
    1   AR   Ar  180   4.275   6.762   0.184
    1   AR   Ar  181   3.530   5.248   2.071
    1   AR   Ar  182   2.997   6.143   2.509
    1   AR   Ar  183   4.507   5.242   2.747
    1   AR   Ar  184   4.578   6.257   2.346
    1   AR   Ar  185   3.218   5.628   3.365
    1   AR   Ar  186   3.296   6.123   4.279
    1   AR   Ar  187   4.713   5.398   3.752
    1   AR   Ar  188   4.086   6.626   3.242
    1   AR   Ar  189   3.396   5.562   5.172
    1   AR   Ar  190   3.230   6.247   6.957
    1   AR   Ar  191   4.524   5.952   5.543
    1   AR   Ar  192   4.108   6.876   5.290
    1   AR   Ar  193   5.242   0.114   0.389
    1   AR   Ar  194   4.774   1.178   1.256
    1   AR   Ar  195   6.049   0.660   0.624
    1   AR   Ar  196   5.212   1.395   0.368
    1   AR   Ar  197   5.627   0.152   1.597
    1   AR   Ar  198   5.368   1.058   2.423
    1   AR   Ar  199   6.365   0.493   2.362
    1   AR   Ar  200   6.584   1.482   1.260
    1   AR   Ar  201   5.076   6.951   3.752
    1   AR   Ar  202   4.931   1.005   4.451
    1   AR   Ar  203   6.577   6.809   4.806
    1   AR   Ar  204   6.054   0.217   3.464
    1   AR   Ar  205   5.235   0.070   4.848
    1   AR   Ar  206   4.931   0.023   6.066
    1   AR   Ar  207   6.008   6.888   5.853
    1   AR   Ar  208   6.123   0.803   4.833
    1   AR   Ar  209   6.478   2.200  -0.836
    1   AR   Ar  210   5.363   2.140   1.201
    1   AR   Ar  211   6.231   2.179   0.446
    1   AR   Ar  212   6.468   3.161   0.180
    1   AR   Ar  213   5.034   1.973   2.272
    1   AR   Ar  214   4.964   3.205   1.948
    1   AR   Ar  215   6.262   1.665   2.414
    1   AR   Ar  216   6.436   2.527   1.486
    1   AR   Ar  217   4.608   1.681   3.669
    1   AR   Ar  218   5.387   2.490   4.218
    1   AR   Ar  219   5.990   1.785   3.805
    1   AR   Ar  220   5.585   2.323   3.067
    1   AR   Ar  221   5.347   1.791   5.022
    1   AR   Ar  222   4.515   2.174   6.222
    1   AR   Ar  223   6.318   2.094   6.230
    1   AR   Ar  224   6.552   2.682   5.420
    1   AR   Ar  225   5.479   3.995   0.181
    1   AR   Ar  226   5.090   4.420   1.793
    1   AR   Ar  227   6.809   3.586   1.018
    1   AR   Ar  228   6.053   4.999   0.014
    1   AR   Ar  229   5.750   3.110   0.970
    1   AR   Ar  230   4.441   3.957   2.768
    1   AR   Ar  231   6.804   3.304   3.376
    1   AR   Ar  232   6.006   3.232   2.131
    1   AR   Ar  233   5.662   3.429   3.722
    1   AR   Ar  234   5.971   4.264   4.271
    1   AR   Ar  235   6.761   3.658   4.398
    1   AR   Ar  236   0.031   4.236   3.551
    1   AR   Ar  237   5.134   2.831   5.276
    1   AR   Ar  238   5.254   4.394   6.111
    1   AR   Ar  239   6.180   4.106   7.216
    1   AR   Ar  240   6.159   4.043   5.470
    1   AR   Ar  241   5.882   6.070  -0.019
    1   AR   Ar  242   5.240   6.023   1.663
    1   AR   Ar  243   6.349   4.348   2.000
    1   AR   Ar  244   6.232   6.637   0.917
    1   AR   Ar  245   5.483   5.162   2.389
    1   AR   Ar  246   5.602   6.666   2.854
    1   AR   Ar  247   6.097   4.010   2.981
    1   AR   Ar  248   6.288   6.376   2.070
    1   AR   Ar  249   6.121   5.536   3.017
    1   AR   Ar  250   4.910   6.207   4.461
    1   AR   Ar  251   6.324   5.482   4.436
    1   AR   Ar  252   6.097   6.355   3.947
    1   AR   Ar  253   5.404   4.959   4.942
    1   AR   Ar  254   5.128   5.942   6.280
    1   AR   Ar  255   5.876   5.262   5.866
    1   AR   Ar  256   5.897   6.085   5.197
    7.12000  7.12000 12.00000
Argon-slab step 400
  256
    1   AR   Ar    1   0.271   0.227  -0.186
    1   AR   Ar    2   7.045   0.494   0.903
    1   AR   Ar    3   0.258   6.396   0.967
    1   AR   Ar    4   1.180   0.441   0.761
    1   AR   Ar    5   7.084   6.976   1.866
    1   AR   Ar    6   7.067   0.259   3.162
    1   AR   Ar    7   0.752   6.748   2.778
    1   AR   Ar    8   1.181   0.033   1.686
    1   AR   Ar    9   0.184   0.072   4.100
    1   AR   Ar   10   7.070   0.975   4.408
    1   AR   Ar   11   1.364   0.189   4.309
    1   AR   Ar   12   0.851   0.640   3.363
    1   AR   Ar   13   7.014   0.416   5.389
    1   AR   Ar   14   0.172   1.316   5.931
    1   AR   Ar   15   2.069   7.033   7.817
    1   AR   Ar   16   0.990   0.816   5.024
    1   AR   Ar   17   6.994   1.321   0.040
    1   AR   Ar   18   0.200   2.392   0.441
    1   AR   Ar   19   0.623   1.614   1.126
    1   AR   Ar   20   0.641   2.566  -0.745
    1   AR   Ar   21   0.188   0.826   2.013
    1   AR   Ar   22   6.851   2.563   2.550
    1   AR   Ar   23   0.129   1.508   2.848
    1   AR   Ar   24   0.416   2.406   1.747
    1   AR   Ar   25   0.403   1.899   3.958
    1   AR   Ar   26   6.695   2.629   4.238
    1   AR   Ar   27   0.375   1.992   5.131
    1   AR   Ar   28   1.253   2.610   4.267
    1   AR   Ar   29   6.378   1.724   4.911
    1   AR   Ar   30   0.190   2.595   6.280
    1   AR   Ar   31   0.906   1.060   7.268
    1   AR   Ar   32   1.182   2.665   5.494
    1   AR   Ar   33   0.603   3.469  -0.419
    1   AR   Ar   34   0.012   4.609   1.375
    1   AR   Ar   35   0.718   3.670   0.753
    1   AR   Ar   36   1.360   5.028  -0.693
    1   AR   Ar   37   7.100   3.732   2.430
    1   AR   Ar   38   0.374   4.836   2.502
    1   AR   Ar   39   1.124   3.786   2.935
    1   AR   Ar   40   0.991   4.378   1.857
    1   AR   Ar   41   0.613   2.696   3.217
    1   AR   Ar   42   0.124   4.400   4.968
    1   AR   Ar   43   0.290   3.007   4.856
    1   AR   Ar   44   0.823   3.496   3.889
    1   AR   Ar   45   0.095   3.603   5.973
    1   AR   Ar   46   7.011   4.811   6.574
    1   AR   Ar   47   1.074   3.252   6.363
    1   AR   Ar   48   0.746   4.473   5.722
    1   AR   Ar   49   7.001   4.199   0.048
    1   AR   Ar   50   6.463   5.573   0.791
    1   AR   Ar   51   1.373   4.397   0.797
    1   AR   Ar   52   0.919   5.580   0.196
    1   AR   Ar   53   7.083   5.740   2.273
    1   AR   Ar   54   6.820   6.331   3.126
    1   AR   Ar   55   0.657   5.714   2.899
    1   AR   Ar   56   0.679   5.540   1.587
    1   AR   Ar   57   0.845   4.575   4.217
    1   AR   Ar   58   0.147   6.164   4.284
    1   AR   Ar   59   1.290   5.872   4.646
    1   AR   Ar   60   1.084   6.441   3.727
    1   AR   Ar   61   6.992   6.475   5.792
    1   AR   Ar   62   0.847   5.832   6.058
    1   AR   Ar   63   1.837   5.349   5.836
    1   AR   Ar   64   0.848   6.857   5.157
    1   AR   Ar   65   1.100   6.677  -0.047
    1   AR   Ar   66   1.836   1.060   1.460
    1   AR   Ar   67   2.546   6.119   0.357
    1   AR   Ar   68   2.776   1.171   0.825
    1   AR   Ar   69   2.327   0.249   0.914
    1   AR   Ar   70   1.518   0.701   2.384
    1   AR   Ar   71   2.067   6.980   2.112
    1   AR   Ar   72   2.915   0.430   1.826
    1   AR   Ar   73   1.614   7.084   3.140
    1   AR   Ar   74   1.604   1.284   4.367
    1   AR   Ar   75   2.408   0.227   4.153
    1   AR   Ar   76   1.893   1.070   3.469
    1   AR   Ar   77   1.970   0.102   5.114
    1   AR   Ar   78   2.232   0.726   5.889
    1   AR   Ar   79   2.632   7.000   6.400
    1   AR   Ar   80   2.621   1.071   5.063
    1   AR   Ar   81   1.889   1.263   0.296
    1   AR   Ar   82   1.917   3.163   0.842
    1   AR   Ar   83   2.675   2.225   1.498
    1   AR   Ar   84   2.065   2.917  -0.484
    1   AR   Ar   85   1.559   2.100   1.642
    1   AR   Ar   86   1.630   2.607   2.622
    1   AR   Ar   87   2.433   1.162   2.648
    1   AR   Ar   88   2.664   3.282   1.760
    1   AR   Ar   89   1.227   1.568   2.756
    1   AR   Ar   90   2.550   3.219   4.252
    1   AR   Ar   91   2.408   2.155   4.613
    1   AR   Ar   92   2.381   2.283   3.499
    1   AR   Ar   93   1.746   1.677   5.460
    1   AR   Ar   94   2.119   2.946   6.441
    1   AR   Ar   95   2.689   1.745   6.327
    1   AR   Ar   96   2.380   2.547   5.513
    1   AR   Ar   97   1.980   3.825   0.031
    1   AR   Ar   98   2.175   4.460   1.670
    1   AR   Ar   99   2.942   3.159   0.488
    1   AR   Ar  100   2.868   4.597  -0.304
    1   AR   Ar  101   1.164   3.132   1.726
    1   AR   Ar  102   1.684   4.693   3.115
    1   AR   Ar  103   2.293   3.959   2.673
    1   AR   Ar  104   3.161   3.892   1.181
    1   AR   Ar  105   1.869   3.328   3.413
    1   AR   Ar  106   1.770   4.068   4.128
    1   AR   Ar  107   2.565   4.161   4.788
    1   AR   Ar  108   2.699   4.139   3.657
    1   AR   Ar  109   1.034   3.756   4.912
    1   AR   Ar  110   1.871   3.660   5.581
    1   AR   Ar  111   3.545   4.302   6.563
    1   AR   Ar  112   2.403   4.472   6.045
    1   AR   Ar  113   2.003   5.248   0.844
    1   AR   Ar  114   1.353   6.229   1.142
    1   AR   Ar  115   3.315   5.593   0.878
    1   AR   Ar  116   3.483   0.255  -0.294
    1   AR   Ar  117   1.529   5.325   2.173
    1   AR   Ar  118   1.750   6.116   2.757
    1   AR   Ar  119   2.512   5.082   2.515
    1   AR   Ar  120   2.203   6.069   1.744
    1   AR   Ar  121   1.500   5.476   3.715
    1   AR   Ar  122   2.192   6.338   4.541
    1   AR   Ar  123   2.461   5.154   4.174
    1   AR   Ar  124   2.465   6.650   3.438
    1   AR   Ar  125   1.684   4.720   5.035
    1   AR   Ar  126   1.423   7.078   6.099
    1   AR   Ar  127   2.584   5.142   6.740
    1   AR   Ar  128   2.175   6.332   5.616
    1   AR   Ar  129   3.507   7.002   0.875
    1   AR   Ar  130   4.138   0.903   0.407
    1   AR   Ar  131   4.496   6.791   1.168
    1   AR   Ar  132   3.952   1.533  -0.621
    1   AR   Ar  133   3.527   7.005   2.383
    1   AR   Ar  134   3.413   0.938   2.682
    1   AR   Ar  135   4.791   0.342   2.773
    1   AR   Ar  136   4.079   0.496   1.766
    1   AR   Ar  137   3.171   0.328   3.485
    1   AR   Ar  138   3.522   0.910   4.303
    1   AR   Ar  139   3.983   0.014   4.297
    1   AR   Ar  140   4.146   0.777   3.556
    1   AR   Ar  141   3.039   7.097   5.404
    1   AR   Ar  142   3.318   0.805   6.059
    1   AR   Ar  143   4.104   0.060   6.758
    1   AR   Ar  144   4.909   1.205   5.931
    1   AR   Ar  145   3.185   2.075   0.445
    1   AR   Ar  146   3.540   2.939   1.266
    1   AR   Ar  147   4.295   2.208   0.836
    1   AR   Ar  148   5.562   2.169  -0.363
    1   AR   Ar  149   3.698   1.550   1.767
    1   AR   Ar  150   3.057   2.170   2.700
    1   AR   Ar  151   3.979   1.818   2.869
    1   AR   Ar  152   3.928   2.617   2.120
    1   AR   Ar  153   3.444   1.710   3.786
    1   AR   Ar  154   3.553   2.792   4.275
    1   AR   Ar  155   4.407   2.184   4.687
    1   AR   Ar  156   4.523   3.371   4.206
    1   AR   Ar  157   3.499   1.665   5.345
    1   AR   Ar  158   3.354   2.505   6.257
    1   AR   Ar  159   4.198   1.131   6.729
    1   AR   Ar  160   4.103   2.894   5.378
    1   AR   Ar  161   3.927   3.057  -0.047
    1   AR   Ar  162   3.775   4.649   0.488
    1   AR   Ar  163   4.757   3.633   0.902
    1   AR   Ar  164   5.208   4.961   0.658
    1   AR   Ar  165   3.644   3.574   2.292
    1   AR   Ar  166   3.416   4.619   3.067
    1   AR   Ar  167   4.369   2.856   3.132
    1   AR   Ar  168   4.051   4.354   1.616
    1   AR   Ar  169   2.927   3.247   3.152
    1   AR   Ar  170   3.483   4.769   4.279
    1   AR   Ar  171   3.473   3.782   4.712
    1   AR   Ar  172   4.630   4.352   3.783
    1   AR   Ar  173   2.997   3.455   5.815
    1   AR   Ar  174   4.296   5.031   6.300
    1   AR   Ar  175   4.086   4.025   5.730
    1   AR   Ar  176   4.334   4.863   5.202
    1   AR   Ar  177   4.353   5.584  -0.124
    1   AR   Ar  178   3.743   6.321   1.578
    1   AR   Ar  179   4.377   5.333   1.301
    1   AR   Ar  180   4.275   6.760   0.196
    1   AR   Ar  181   3.530   5.238   2.062
    1   AR   Ar  182   2.985   6.114   2.505
    1   AR   Ar  183   4.526   5.232   2.707
    1   AR   Ar  184   4.572   6.244   2.345
    1   AR   Ar  185   3.202   5.648   3.356
    1   AR   Ar  186   3.287   6.141   4.264
    1   AR   Ar  187   4.730   5.396   3.735
    1   AR   Ar  188   4.090   6.618   3.241
    1   AR   Ar  189   3.376   5.560   5.196
    1   AR   Ar  190   3.232   6.261   6.987
    1   AR   Ar  191   4.563   5.961   5.527
    1   AR   Ar  192   4.097   6.836   5.260
    1   AR   Ar  193   5.243   0.110   0.409
    1   AR   Ar  194   4.753   1.177   1.225
    1   AR   Ar  195   6.054   0.708   0.609
    1   AR   Ar  196   5.185   1.379   0.361
    1   AR   Ar  197   5.632   0.140   1.604
    1   AR   Ar  198   5.359   1.032   2.399
    1   AR   Ar  199   6.378   0.480   2.382
    1   AR   Ar  200   6.624   1.477   1.231
    1   AR   Ar  201   5.078   6.888   3.722
    1   AR   Ar  202   4.938   1.005   4.408
    1   AR   Ar  203   6.592   6.785   4.813
    1   AR   Ar  204   6.040   0.211   3.478
    1   AR   Ar  205   5.248   0.058   4.815
    1   AR   Ar  206   4.956   0.017   6.058
    1   AR   Ar  207   5.983   6.846   5.854
    1   AR   Ar  208   6.107   0.807   4.827
    1   AR   Ar  209   6.494   2.198  -0.820
    1   AR   Ar  210   5.356   2.157   1.210
    1   AR   Ar  211   6.261   2.168   0.460
    1   AR   Ar  212   6.473   3.185   0.162
    1   AR   Ar  213   5.002   1.987   2.280
    1   AR   Ar  214   4.965   3.224   1.944
    1   AR   Ar  215   6.277   1.668   2.384
    1   AR   Ar  216   6.420   2.553   1.473
    1   AR   Ar  217   4.604   1.727   3.700
    1   AR   Ar  218   5.382   2.464   4.245
    1   AR   Ar  219   6.000   1.777   3.840
    1   AR   Ar  220   5.633   2.357   3.066
    1   AR   Ar  221   5.376   1.784   5.022
    1   AR   Ar  222   4.526   2.173   6.230
    1   AR   Ar  223   6.322   2.070   6.218
    1   AR   Ar  224   6.534   2.670   5.423
    1   AR   Ar  225   5.468   4.010   0.175
    1   AR   Ar  226   5.067   4.410   1.826
    1   AR   Ar  227   6.815   3.560   1.028
    1   AR   Ar  228   6.033   5.043  -0.004
    1   AR   Ar  229   5.776   3.096   0.954
    1   AR   Ar  230   4.412   3.939   2.774
    1   AR   Ar  231   6.808   3.286   3.375
    1   AR   Ar  232   6.015   3.228   2.180
    1   AR   Ar  233   5.643   3.420   3.741
    1   AR   Ar  234   5.992   4.260   4.286
    1   AR   Ar  235   6.743   3.667   4.406
    1   AR   Ar  236   7.103   4.253   3.514
    1   AR   Ar  237   5.129   2.841   5.267
    1   AR   Ar  238   5.234   4.403   6.115
    1   AR   Ar  239   6.138   4.087   7.240
    1   AR   Ar  240   6.145   4.056   5.514
    1   AR   Ar  241   5.917   6.093  -0.044
    1   AR   Ar  242   5.254   6.042   1.636
    1   AR   Ar  243   6.311   4.362   2.018
    1   AR   Ar  244   6.231   6.648   0.909
    1   AR   Ar  245   5.482   5.175   2.390
    1   AR   Ar  246   5.648   6.632   2.853
    1   AR   Ar  247   6.099   4.024   2.981
    1   AR   Ar  248   6.277   6.418   2.086
    1   AR   Ar  249   6.119   5.579   3.015
    1   AR   Ar  250   4.940   6.202   4.466
    1   AR   Ar  251   6.324   5.460   4.420
    1   AR   Ar  252   6.108   6.367   3.929
    1   AR   Ar  253   5.404   4.954   4.947
    1   AR   Ar  254   5.110   5.946   6.308
    1   AR   Ar  255   5.862   5.237   5.845
    1   AR   Ar  256   5.910   6.088   5.228
    7.12000  7.12000 12.00000
Argon-slab step 405
  256
    1   AR   Ar    1   0.254   0.225  -0.132
    1   AR   Ar    2   7.070   0.486   0.917
    1   AR   Ar    3   0.301   6.378   0.941
    1   AR   Ar    4   1.170   0.430   0.754
    1   AR   Ar    5   7.078   6.988   1.850
    1   AR   Ar    6   7.061   0.253   3.176
    1   AR   Ar    7   0.728   6.736   2.804
    1   AR   Ar    8   1.168   0.024   1.653
    1   AR   Ar    9   0.163   0.082   4.073
    1   AR   Ar   10   7.043   0.987   4.416
    1   AR   Ar   11   1.391   0.213   4.313
    1   AR   Ar   12   0.839   0.659   3.376
    1   AR   Ar   13   7.007   0.352   5.418
    1   AR   Ar   14   0.178   1.313   5.918
    1   AR   Ar   15   2.093   7.036   7.847
    1   AR   Ar   16   0.971   0.805   5.004
    1   AR   Ar   17   6.952   1.315   0.015
    1   AR   Ar   18   0.199   2.388   0.461
    1   AR   Ar   19   0.584   1.600   1.128
    1   AR   Ar   20   0.627   2.553  -0.743
    1   AR   Ar   21   0.183   0.841   1.985
    1   AR   Ar   22   6.845   2.565   2.556
    1   AR   Ar   23   0.140   1.505   2.847
    1   AR   Ar   24   0.423   2.371   1.731
    1   AR   Ar   25   0.375   1.894   3.970
    1   AR   Ar   26   6.668   2.646   4.258
    1   AR   Ar   27   0.348   1.957   5.113
    1   AR   Ar   28   1.245   2.605   4.276
    1   AR   Ar   29   6.395   1.721   4.924
    1   AR   Ar   30   0.184   2.573   6.259
    1   AR   Ar   31   0.886   1.035   7.272
    1   AR   Ar   32   1.155   2.631   5.487
    1   AR   Ar   33   0.620   3.478  -0.437
    1   AR   Ar   34   0.029   4.646   1.355
    1   AR   Ar   35   0.756   3.649   0.741
    1   AR   Ar   36   1.377   5.056  -0.717
    1   AR   Ar   37   0.010   3.732   2.415
    1   AR   Ar   38   0.352   4.861   2.503
    1   AR   Ar   39   1.151   3.811   2.905
    1   AR   Ar   40   1.026   4.365   1.843
    1   AR   Ar   41   0.637   2.685   3.208
    1   AR   Ar   42   0.098   4.427   4.960
    1   AR   Ar   43   0.277   2.997   4.859
    1   AR   Ar   44   0.811   3.495   3.910
    1   AR   Ar   45   0.107   3.604   5.959
    1   AR   Ar   46   7.012   4.781   6.593
    1   AR   Ar   47   1.063   3.298   6.405
    1   AR   Ar   48   0.728   4.435   5.744
    1   AR   Ar   49   7.015   4.191   0.053
    1   AR   Ar   50   6.417   5.601   0.787
    1   AR   Ar   51   1.399   4.389   0.791
    1   AR   Ar   52   0.927   5.594   0.199
    1   AR   Ar   53   7.089   5.726   2.241
    1   AR   Ar   54   6.845   6.377   3.148
    1   AR   Ar   55   0.686   5.737   2.913
    1   AR   Ar   56   0.666   5.506   1.587
    1   AR   Ar   57   0.858   4.576   4.241
    1   AR   Ar   58   0.155   6.161   4.251
    1   AR   Ar   59   1.292   5.905   4.657
    1   AR   Ar   60   1.060   6.428   3.702
    1   AR   Ar   61   7.001   6.456   5.798
    1   AR   Ar   62   0.841   5.797   6.065
    1   AR   Ar   63   1.832   5.367   5.808
    1   AR   Ar   64   0.844   6.849   5.164
    1   AR   Ar   65   1.126   6.651  -0.039
    1   AR   Ar   66   1.819   1.030   1.460
    1   AR   Ar   67   2.527   6.117   0.353
    1   AR   Ar   68   2.805   1.179   0.832
    1   AR   Ar   69   2.327   0.212   0.904
    1   AR   Ar   70   1.514   0.717   2.370
    1   AR   Ar   71   2.091   6.986   2.077
    1   AR   Ar   72   2.897   0.433   1.834
    1   AR   Ar   73   1.637   7.104   3.112
    1   AR   Ar   74   1.610   1.274   4.393
    1   AR   Ar   75   2.411   0.243   4.130
    1   AR   Ar   76   1.878   1.083   3.477
    1   AR   Ar   77   1.963   0.099   5.104
    1   AR   Ar   78   2.194   0.693   5.907
    1   AR   Ar   79   2.627   7.030   6.396
    1   AR   Ar   80   2.627   1.063   5.080
    1   AR   Ar   81   1.901   1.254   0.272
    1   AR   Ar   82   1.919   3.221   0.885
    1   AR   Ar   83   2.698   2.203   1.503
    1   AR   Ar   84   2.041   2.887  -0.480
    1   AR   Ar   85   1.548   2.091   1.671
    1   AR   Ar   86   1.590   2.609   2.630
    1   AR   Ar   87   2.420   1.176   2.652
    1   AR   Ar   88   2.663   3.313   1.727
    1   AR   Ar   89   1.190   1.589   2.762
    1   AR   Ar   90   2.580   3.219   4.254
    1   AR   Ar   91   2.403   2.133   4.646
    1   AR   Ar   92   2.380   2.271   3.512
    1   AR   Ar   93   1.748   1.652   5.455
    1   AR   Ar   94   2.153   2.912   6.468
    1   AR   Ar   95   2.678   1.706   6.316
    1   AR   Ar   96   2.378   2.546   5.514
    1   AR   Ar   97   1.974   3.861   0.012
    1   AR   Ar   98   2.156   4.477   1.692
    1   AR   Ar   99   2.973   3.155   0.491
    1   AR   Ar  100   2.838   4.621  -0.316
    1   AR   Ar  101   1.175   3.091   1.746
    1   AR   Ar  102   1.684   4.701   3.120
    1   AR   Ar  103   2.337   3.948   2.662
    1   AR   Ar  104   3.147   3.938   1.161
    1   AR   Ar  105   1.872   3.302   3.428
    1   AR   Ar  106   1.759   4.046   4.129
    1   AR   Ar  107   2.571   4.160   4.788
    1   AR   Ar  108   2.701   4.114   3.675
    1   AR   Ar  109   1.016   3.755   4.901
    1   AR   Ar  110   1.868   3.673   5.566
    1   AR   Ar  111   3.572   4.334   6.534
    1   AR   Ar  112   2.372   4.466   6.089
    1   AR   Ar  113   2.004   5.232   0.827
    1   AR   Ar  114   1.376   6.228   1.097
    1   AR   Ar  115   3.277   5.586   0.870
    1   AR   Ar  116   3.496   0.273  -0.254
    1   AR   Ar  117   1.519   5.339   2.172
    1   AR   Ar  118   1.728   6.123   2.763
    1   AR   Ar  119   2.497   5.093   2.533
    1   AR   Ar  120   2.200   6.047   1.749
    1   AR   Ar  121   1.507   5.458   3.708
    1   AR   Ar  122   2.181   6.335   4.515
    1   AR   Ar  123   2.436   5.166   4.169
    1   AR   Ar  124   2.489   6.675   3.420
    1   AR   Ar  125   1.674   4.710   5.055
    1   AR   Ar  126   1.405   7.074   6.107
    1   AR   Ar  127   2.584   5.122   6.764
    1   AR   Ar  128   2.203   6.343   5.637
    1   AR   Ar  129   3.499   7.035   0.873
    1   AR   Ar  130   4.156   0.863   0.384
    1   AR   Ar  131   4.534   6.786   1.162
    1   AR   Ar  132   3.913   1.519  -0.610
    1   AR   Ar  133   3.559   6.994   2.376
    1   AR   Ar  134   3.409   0.967   2.639
    1   AR   Ar  135   4.799   0.319   2.752
    1   AR   Ar  136   4.089   0.514   1.748
    1   AR   Ar  137   3.184   0.306   3.475
    1   AR   Ar  138   3.530   0.909   4.337
    1   AR   Ar  139   3.987   0.039   4.314
    1   AR   Ar  140   4.191   0.806   3.536
    1   AR   Ar  141   3.024   0.007   5.396
    1   AR   Ar  142   3.338   0.787   6.031
    1   AR   Ar  143   4.094   0.037   6.728
    1   AR   Ar  144   4.935   1.163   5.974
    1   AR   Ar  145   3.173   2.098   0.461
    1   AR   Ar  146   3.540   2.960   1.267
    1   AR   Ar  147   4.293   2.228   0.854
    1   AR   Ar  148   5.551   2.191  -0.395
    1   AR   Ar  149   3.702   1.574   1.762
    1   AR   Ar  150   3.056   2.184   2.703
    1   AR   Ar  151   3.997   1.804   2.872
    1   AR   Ar  152   3.913   2.615   2.166
    1   AR   Ar  153   3.423   1.732   3.763
    1   AR   Ar  154   3.586   2.769   4.283
    1   AR   Ar  155   4.397   2.173   4.707
    1   AR   Ar  156   4.526   3.406   4.195
    1   AR   Ar  157   3.514   1.666   5.303
    1   AR   Ar  158   3.357   2.447   6.258
    1   AR   Ar  159   4.192   1.113   6.709
    1   AR   Ar  160   4.132   2.888   5.380
    1   AR   Ar  161   3.948   3.015  -0.081
    1   AR   Ar  162   3.751   4.647   0.489
    1   AR   Ar  163   4.768   3.596   0.894
    1   AR   Ar  164   5.220   4.957   0.657
    1   AR   Ar  165   3.651   3.535   2.279
    1   AR   Ar  166   3.437   4.669   3.094
    1   AR   Ar  167   4.393   2.861   3.155
    1   AR   Ar  168   4.018   4.329   1.647
    1   AR   Ar  169   2.945   3.241   3.146
    1   AR   Ar  170   3.457   4.756   4.296
    1   AR   Ar  171   3.451   3.776   4.731
    1   AR   Ar  172   4.627   4.393   3.797
    1   AR   Ar  173   3.014   3.438   5.837
    1   AR   Ar  174   4.271   5.021   6.293
    1   AR   Ar  175   4.083   3.990   5.767
    1   AR   Ar  176   4.337   4.891   5.194
    1   AR   Ar  177   4.364   5.586  -0.127
    1   AR   Ar  178   3.741   6.312   1.544
    1   AR   Ar  179   4.381   5.324   1.316
    1   AR   Ar  180   4.274   6.757   0.198
    1   AR   Ar  181   3.530   5.229   2.053
    1   AR   Ar  182   2.968   6.088   2.494
    1   AR   Ar  183   4.535   5.219   2.667
    1   AR   Ar  184   4.567   6.236   2.347
    1   AR   Ar  185   3.187   5.661   3.353
    1   AR   Ar  186   3.279   6.162   4.253
    1   AR   Ar  187   4.747   5.399   3.720
    1   AR   Ar  188   4.093   6.612   3.243
    1   AR   Ar  189   3.356   5.555   5.218
    1   AR   Ar  190   3.233   6.274   7.016
    1   AR   Ar  191   4.593   5.965   5.495
    1   AR   Ar  192   4.085   6.799   5.236
    1   AR   Ar  193   5.241   0.104   0.429
    1   AR   Ar  194   4.728   1.175   1.208
    1   AR   Ar  195   6.061   0.761   0.595
    1   AR   Ar  196   5.163   1.367   0.345
    1   AR   Ar  197   5.627   0.121   1.616
    1   AR   Ar  198   5.361   1.010   2.369
    1   AR   Ar  199   6.386   0.468   2.403
    1   AR   Ar  200   6.664   1.472   1.202
    1   AR   Ar  201   5.077   6.830   3.689
    1   AR   Ar  202   4.944   1.004   4.364
    1   AR   Ar  203   6.604   6.762   4.820
    1   AR   Ar  204   6.028   0.212   3.494
    1   AR   Ar  205   5.262   0.044   4.785
    1   AR   Ar  206   4.979   0.011   6.049
    1   AR   Ar  207   5.977   6.822   5.836
    1   AR   Ar  208   6.130   0.772   4.840
    1   AR   Ar  209   6.516   2.196  -0.802
    1   AR   Ar  210   5.349   2.172   1.220
    1   AR   Ar  211   6.290   2.155   0.475
    1   AR   Ar  212   6.472   3.186   0.163
    1   AR   Ar  213   5.005   2.015   2.291
    1   AR   Ar  214   4.964   3.242   1.939
    1   AR   Ar  215   6.290   1.669   2.352
    1   AR   Ar  216   6.413   2.571   1.465
    1   AR   Ar  217   4.603   1.777   3.731
    1   AR   Ar  218   5.371   2.447   4.270
    1   AR   Ar  219   6.020   1.764   3.879
    1   AR   Ar  220   5.681   2.396   3.063
    1   AR   Ar  221   5.399   1.773   5.028
    1   AR   Ar  222   4.534   2.172   6.237
    1   AR   Ar  223   6.324   2.029   6.232
    1   AR   Ar  224   6.517   2.663   5.421
    1   AR   Ar  225   5.459   4.024   0.168
    1   AR   Ar  226   5.047   4.396   1.857
    1   AR   Ar  227   6.821   3.536   1.048
    1   AR   Ar  228   6.013   5.082  -0.026
    1   AR   Ar  229   5.794   3.091   0.933
    1   AR   Ar  230   4.402   3.937   2.781
    1   AR   Ar  231   6.809   3.261   3.374
    1   AR   Ar  232   6.026   3.226   2.231
    1   AR   Ar  233   5.623   3.407   3.760
    1   AR   Ar  234   6.001   4.269   4.301
    1   AR   Ar  235   6.735   3.669   4.414
    1   AR   Ar  236   7.058   4.276   3.478
    1   AR   Ar  237   5.114   2.851   5.278
    1   AR   Ar  238   5.211   4.411   6.117
    1   AR   Ar  239   6.097   4.069   7.263
    1   AR   Ar  240   6.131   4.069   5.557
    1   AR   Ar  241   5.952   6.120  -0.068
    1   AR   Ar  242   5.274   6.059   1.604
    1   AR   Ar  243   6.270   4.376   2.034
    1   AR   Ar  244   6.224   6.655   0.899
    1   AR   Ar  245   5.481   5.185   2.382
    1   AR   Ar  246   5.688   6.594   2.851
    1   AR   Ar  247   6.100   4.039   2.984
    1   AR   Ar  248   6.262   6.457   2.097
    1   AR   Ar  249   6.123   5.624   3.022
    1   AR   Ar  250   4.969   6.193   4.478
    1   AR   Ar  251   6.324   5.434   4.404
    1   AR   Ar  252   6.132   6.387   3.912
    1   AR   Ar  253   5.425   4.936   4.943
    1   AR   Ar  254   5.105   5.950   6.351
    1   AR   Ar  255   5.850   5.211   5.827
    1   AR   Ar  256   5.919   6.083   5.250
    7.12000  7.12000 12.00000
Argon-slab step 410
  256
    1   AR   Ar    1   0.237   0.222  -0.075
    1   AR   Ar    2   7.097   0.476   0.932
    1   AR   Ar    3   0.344   6.361   0.915
    1   AR   Ar    4   1.160   0.422   0.736
    1   AR   Ar    5   7.079   6.994   1.829
    1   AR   Ar    6   7.070   0.268   3.183
    1   AR   Ar    7   0.727   6.725   2.784
    1   AR   Ar    8   1.148   0.009   1.627
    1   AR   Ar    9   0.153   0.065   4.077
    1   AR   Ar   10   7.015   0.987   4.432
    1   AR   Ar   11   1.409   0.232   4.300
    1   AR   Ar   12   0.834   0.682   3.391
    1   AR   Ar   13   7.003   0.295   5.450
    1   AR   Ar   14   0.183   1.309   5.906
    1   AR   Ar   15   2.117   7.038   7.877
    1   AR   Ar   16   0.973   0.772   4.997
    1   AR   Ar   17   6.910   1.310  -0.008
    1   AR   Ar   18   0.203   2.383   0.480
    1   AR   Ar   19   0.551   1.576   1.125
    1   AR   Ar   20   0.612   2.526  -0.744
    1   AR   Ar   21   0.182   0.863   1.957
    1   AR   Ar   22   6.858   2.572   2.579
    1   AR   Ar   23   0.146   1.508   2.841
    1   AR   Ar   24   0.424   2.340   1.720
    1   AR   Ar   25   0.346   1.889   3.981
    1   AR   Ar   26   6.635   2.654   4.273
    1   AR   Ar   27   0.322   1.923   5.092
    1   AR   Ar   28   1.238   2.598   4.287
    1   AR   Ar   29   6.399   1.718   4.935
    1   AR   Ar   30   0.179   2.550   6.236
    1   AR   Ar   31   0.866   1.009   7.276
    1   AR   Ar   32   1.130   2.598   5.479
    1   AR   Ar   33   0.637   3.502  -0.449
    1   AR   Ar   34   0.047   4.681   1.336
    1   AR   Ar   35   0.785   3.618   0.729
    1   AR   Ar   36   1.394   5.084  -0.738
    1   AR   Ar   37   7.119   3.726   2.432
    1   AR   Ar   38   0.332   4.869   2.507
    1   AR   Ar   39   1.172   3.837   2.870
    1   AR   Ar   40   1.061   4.349   1.829
    1   AR   Ar   41   0.623   2.693   3.209
    1   AR   Ar   42   0.065   4.454   4.950
    1   AR   Ar   43   0.271   2.987   4.868
    1   AR   Ar   44   0.795   3.497   3.927
    1   AR   Ar   45   0.115   3.605   5.942
    1   AR   Ar   46   7.012   4.751   6.610
    1   AR   Ar   47   1.054   3.345   6.445
    1   AR   Ar   48   0.718   4.400   5.772
    1   AR   Ar   49   7.028   4.182   0.060
    1   AR   Ar   50   6.374   5.629   0.787
    1   AR   Ar   51   1.390   4.388   0.801
    1   AR   Ar   52   0.941   5.568   0.195
    1   AR   Ar   53   7.071   5.728   2.205
    1   AR   Ar   54   6.873   6.420   3.167
    1   AR   Ar   55   0.727   5.756   2.940
    1   AR   Ar   56   0.664   5.491   1.578
    1   AR   Ar   57   0.871   4.582   4.261
    1   AR   Ar   58   0.168   6.157   4.213
    1   AR   Ar   59   1.284   5.935   4.673
    1   AR   Ar   60   1.038   6.414   3.685
    1   AR   Ar   61   7.013   6.434   5.803
    1   AR   Ar   62   0.841   5.771   6.066
    1   AR   Ar   63   1.828   5.388   5.785
    1   AR   Ar   64   0.839   6.839   5.171
    1   AR   Ar   65   1.152   6.626  -0.029
    1   AR   Ar   66   1.806   1.001   1.454
    1   AR   Ar   67   2.505   6.117   0.350
    1   AR   Ar   68   2.836   1.186   0.844
    1   AR   Ar   69   2.325   0.173   0.894
    1   AR   Ar   70   1.506   0.728   2.360
    1   AR   Ar   71   2.115   6.994   2.050
    1   AR   Ar   72   2.878   0.426   1.832
    1   AR   Ar   73   1.661   0.012   3.085
    1   AR   Ar   74   1.608   1.290   4.399
    1   AR   Ar   75   2.412   0.268   4.117
    1   AR   Ar   76   1.862   1.090   3.480
    1   AR   Ar   77   1.958   0.097   5.100
    1   AR   Ar   78   2.152   0.666   5.932
    1   AR   Ar   79   2.625   7.056   6.397
    1   AR   Ar   80   2.636   1.056   5.088
    1   AR   Ar   81   1.912   1.245   0.250
    1   AR   Ar   82   1.921   3.279   0.929
    1   AR   Ar   83   2.723   2.180   1.509
    1   AR   Ar   84   2.016   2.856  -0.476
    1   AR   Ar   85   1.536   2.079   1.699
    1   AR   Ar   86   1.561   2.600   2.638
    1   AR   Ar   87   2.409   1.195   2.647
    1   AR   Ar   88   2.652   3.336   1.707
    1   AR   Ar   89   1.152   1.616   2.769
    1   AR   Ar   90   2.608   3.215   4.257
    1   AR   Ar   91   2.398   2.103   4.662
    1   AR   Ar   92   2.344   2.261   3.533
    1   AR   Ar   93   1.761   1.636   5.441
    1   AR   Ar   94   2.186   2.881   6.497
    1   AR   Ar   95   2.660   1.661   6.302
    1   AR   Ar   96   2.377   2.553   5.529
    1   AR   Ar   97   1.968   3.899  -0.006
    1   AR   Ar   98   2.138   4.494   1.712
    1   AR   Ar   99   2.994   3.153   0.482
    1   AR   Ar  100   2.808   4.645  -0.327
    1   AR   Ar  101   1.188   3.057   1.766
    1   AR   Ar  102   1.685   4.699   3.118
    1   AR   Ar  103   2.379   3.938   2.647
    1   AR   Ar  104   3.138   3.999   1.134
    1   AR   Ar  105   1.875   3.275   3.447
    1   AR   Ar  106   1.744   4.027   4.132
    1   AR   Ar  107   2.584   4.162   4.781
    1   AR   Ar  108   2.705   4.094   3.694
    1   AR   Ar  109   0.999   3.755   4.894
    1   AR   Ar  110   1.860   3.671   5.557
    1   AR   Ar  111   3.587   4.364   6.515
    1   AR   Ar  112   2.340   4.446   6.121
    1   AR   Ar  113   2.006   5.221   0.813
    1   AR   Ar  114   1.400   6.226   1.049
    1   AR   Ar  115   3.240   5.576   0.865
    1   AR   Ar  116   3.509   0.291  -0.213
    1   AR   Ar  117   1.506   5.343   2.169
    1   AR   Ar  118   1.709   6.133   2.775
    1   AR   Ar  119   2.495   5.095   2.540
    1   AR   Ar  120   2.199   6.016   1.750
    1   AR   Ar  121   1.512   5.450   3.707
    1   AR   Ar  122   2.177   6.335   4.485
    1   AR   Ar  123   2.412   5.176   4.164
    1   AR   Ar  124   2.518   6.683   3.397
    1   AR   Ar  125   1.661   4.695   5.069
    1   AR   Ar  126   1.383   7.068   6.120
    1   AR   Ar  127   2.588   5.114   6.799
    1   AR   Ar  128   2.232   6.354   5.659
    1   AR   Ar  129   3.486   7.076   0.869
    1   AR   Ar  130   4.172   0.821   0.360
    1   AR   Ar  131   4.582   6.787   1.163
    1   AR   Ar  132   3.874   1.505  -0.597
    1   AR   Ar  133   3.593   6.979   2.376
    1   AR   Ar  134   3.412   0.993   2.596
    1   AR   Ar  135   4.798   0.279   2.733
    1   AR   Ar  136   4.092   0.512   1.738
    1   AR   Ar  137   3.206   0.286   3.460
    1   AR   Ar  138   3.530   0.915   4.382
    1   AR   Ar  139   3.997   0.056   4.320
    1   AR   Ar  140   4.238   0.833   3.511
    1   AR   Ar  141   3.008   0.040   5.377
    1   AR   Ar  142   3.359   0.772   6.004
    1   AR   Ar  143   4.083   0.013   6.698
    1   AR   Ar  144   4.964   1.121   6.012
    1   AR   Ar  145   3.164   2.122   0.478
    1   AR   Ar  146   3.549   2.975   1.274
    1   AR   Ar  147   4.291   2.247   0.873
    1   AR   Ar  148   5.536   2.213  -0.423
    1   AR   Ar  149   3.706   1.600   1.756
    1   AR   Ar  150   3.052   2.197   2.702
    1   AR   Ar  151   4.023   1.788   2.873
    1   AR   Ar  152   3.906   2.595   2.213
    1   AR   Ar  153   3.400   1.760   3.736
    1   AR   Ar  154   3.619   2.746   4.290
    1   AR   Ar  155   4.389   2.156   4.724
    1   AR   Ar  156   4.548   3.423   4.197
    1   AR   Ar  157   3.530   1.668   5.261
    1   AR   Ar  158   3.365   2.395   6.257
    1   AR   Ar  159   4.181   1.097   6.693
    1   AR   Ar  160   4.146   2.887   5.386
    1   AR   Ar  161   3.968   2.972  -0.111
    1   AR   Ar  162   3.729   4.644   0.491
    1   AR   Ar  163   4.776   3.558   0.889
    1   AR   Ar  164   5.229   4.954   0.659
    1   AR   Ar  165   3.634   3.497   2.248
    1   AR   Ar  166   3.460   4.716   3.119
    1   AR   Ar  167   4.409   2.867   3.160
    1   AR   Ar  168   4.003   4.321   1.666
    1   AR   Ar  169   2.966   3.230   3.139
    1   AR   Ar  170   3.432   4.745   4.312
    1   AR   Ar  171   3.446   3.762   4.750
    1   AR   Ar  172   4.622   4.428   3.810
    1   AR   Ar  173   3.043   3.414   5.844
    1   AR   Ar  174   4.290   5.023   6.294
    1   AR   Ar  175   4.115   3.978   5.779
    1   AR   Ar  176   4.345   4.922   5.185
    1   AR   Ar  177   4.376   5.588  -0.127
    1   AR   Ar  178   3.733   6.293   1.520
    1   AR   Ar  179   4.385   5.316   1.332
    1   AR   Ar  180   4.271   6.753   0.190
    1   AR   Ar  181   3.531   5.221   2.044
    1   AR   Ar  182   2.954   6.074   2.481
    1   AR   Ar  183   4.531   5.203   2.628
    1   AR   Ar  184   4.584   6.232   2.344
    1   AR   Ar  185   3.176   5.660   3.346
    1   AR   Ar  186   3.276   6.171   4.239
    1   AR   Ar  187   4.766   5.409   3.705
    1   AR   Ar  188   4.094   6.607   3.247
    1   AR   Ar  189   3.336   5.537   5.228
    1   AR   Ar  190   3.234   6.288   7.044
    1   AR   Ar  191   4.622   5.961   5.457
    1   AR   Ar  192   4.072   6.764   5.219
    1   AR   Ar  193   5.238   0.097   0.451
    1   AR   Ar  194   4.702   1.174   1.204
    1   AR   Ar  195   6.070   0.815   0.582
    1   AR   Ar  196   5.151   1.337   0.329
    1   AR   Ar  197   5.619   0.104   1.627
    1   AR   Ar  198   5.373   0.998   2.332
    1   AR   Ar  199   6.387   0.456   2.423
    1   AR   Ar  200   6.701   1.467   1.177
    1   AR   Ar  201   5.075   6.776   3.654
    1   AR   Ar  202   4.951   1.002   4.321
    1   AR   Ar  203   6.612   6.739   4.822
    1   AR   Ar  204   6.017   0.222   3.512
    1   AR   Ar  205   5.278   0.031   4.756
    1   AR   Ar  206   5.000   0.005   6.037
    1   AR   Ar  207   5.984   6.822   5.813
    1   AR   Ar  208   6.156   0.720   4.859
    1   AR   Ar  209   6.542   2.194  -0.783
    1   AR   Ar  210   5.342   2.184   1.231
    1   AR   Ar  211   6.313   2.140   0.486
    1   AR   Ar  212   6.472   3.180   0.160
    1   AR   Ar  213   5.015   2.048   2.301
    1   AR   Ar  214   4.960   3.260   1.936
    1   AR   Ar  215   6.301   1.670   2.317
    1   AR   Ar  216   6.419   2.579   1.467
    1   AR   Ar  217   4.605   1.832   3.762
    1   AR   Ar  218   5.358   2.438   4.292
    1   AR   Ar  219   6.044   1.745   3.917
    1   AR   Ar  220   5.729   2.438   3.060
    1   AR   Ar  221   5.414   1.758   5.040
    1   AR   Ar  222   4.542   2.172   6.242
    1   AR   Ar  223   6.326   1.985   6.247
    1   AR   Ar  224   6.514   2.662   5.436
    1   AR   Ar  225   5.453   4.036   0.161
    1   AR   Ar  226   5.027   4.380   1.886
    1   AR   Ar  227   6.830   3.515   1.074
    1   AR   Ar  228   5.995   5.114  -0.051
    1   AR   Ar  229   5.798   3.097   0.908
    1   AR   Ar  230   4.436   3.981   2.776
    1   AR   Ar  231   6.810   3.234   3.373
    1   AR   Ar  232   6.020   3.228   2.222
    1   AR   Ar  233   5.603   3.392   3.779
    1   AR   Ar  234   5.996   4.292   4.312
    1   AR   Ar  235   6.740   3.662   4.422
    1   AR   Ar  236   7.016   4.301   3.443
    1   AR   Ar  237   5.108   2.860   5.292
    1   AR   Ar  238   5.187   4.418   6.119
    1   AR   Ar  239   6.056   4.051   7.285
    1   AR   Ar  240   6.148   4.088   5.548
    1   AR   Ar  241   5.985   6.151  -0.092
    1   AR   Ar  242   5.298   6.076   1.569
    1   AR   Ar  243   6.230   4.393   2.044
    1   AR   Ar  244   6.203   6.665   0.863
    1   AR   Ar  245   5.487   5.195   2.367
    1   AR   Ar  246   5.715   6.558   2.859
    1   AR   Ar  247   6.101   4.052   2.992
    1   AR   Ar  248   6.252   6.488   2.094
    1   AR   Ar  249   6.131   5.670   3.033
    1   AR   Ar  250   4.998   6.178   4.493
    1   AR   Ar  251   6.325   5.407   4.389
    1   AR   Ar  252   6.154   6.404   3.898
    1   AR   Ar  253   5.442   4.918   4.935
    1   AR   Ar  254   5.105   5.954   6.401
    1   AR   Ar  255   5.842   5.186   5.816
    1   AR   Ar  256   5.923   6.060   5.255
    7.12000  7.12000 12.00000
Argon-slab step 415
  256
    1   AR   Ar    1   0.221   0.230  -0.043
    1   AR   Ar    2   0.005   0.467   0.947
    1   AR   Ar    3   0.384   6.346   0.889
    1   AR   Ar    4   1.148   0.420   0.707
    1   AR   Ar    5   7.087   6.996   1.807
    1   AR   Ar    6   7.069   0.297   3.166
    1   AR   Ar    7   0.733   6.735   2.761
    1   AR   Ar    8   1.123   7.110   1.612
    1   AR   Ar    9   0.151   0.037   4.106
    1   AR   Ar   10   6.995   0.987   4.447
    1   AR   Ar   11   1.418   0.243   4.266
    1   AR   Ar   12   0.836   0.709   3.409
    1   AR   Ar   13   7.004   0.248   5.484
    1   AR   Ar   14   0.186   1.302   5.897
    1   AR   Ar   15   2.141   7.041   7.906
    1   AR   Ar   16   0.972   0.739   5.003
    1   AR   Ar   17   6.867   1.306  -0.028
    1   AR   Ar   18   0.210   2.381   0.499
    1   AR   Ar   19   0.536   1.541   1.114
    1   AR   Ar   20   0.596   2.492  -0.746
    1   AR   Ar   21   0.184   0.892   1.928
    1   AR   Ar   22   6.870   2.576   2.598
    1   AR   Ar   23   0.146   1.510   2.837
    1   AR   Ar   24   0.420   2.317   1.719
    1   AR   Ar   25   0.317   1.886   3.991
    1   AR   Ar   26   6.595   2.652   4.285
    1   AR   Ar   27   0.298   1.890   5.067
    1   AR   Ar   28   1.232   2.588   4.299
    1   AR   Ar   29   6.414   1.721   4.946
    1   AR   Ar   30   0.176   2.525   6.210
    1   AR   Ar   31   0.847   0.983   7.279
    1   AR   Ar   32   1.105   2.567   5.471
    1   AR   Ar   33   0.625   3.504  -0.467
    1   AR   Ar   34   0.062   4.712   1.317
    1   AR   Ar   35   0.806   3.577   0.717
    1   AR   Ar   36   1.411   5.111  -0.759
    1   AR   Ar   37   7.109   3.721   2.448
    1   AR   Ar   38   0.316   4.863   2.513
    1   AR   Ar   39   1.188   3.858   2.832
    1   AR   Ar   40   1.095   4.333   1.816
    1   AR   Ar   41   0.610   2.699   3.210
    1   AR   Ar   42   0.029   4.482   4.939
    1   AR   Ar   43   0.272   2.977   4.881
    1   AR   Ar   44   0.775   3.499   3.938
    1   AR   Ar   45   0.117   3.601   5.923
    1   AR   Ar   46   7.013   4.719   6.625
    1   AR   Ar   47   1.046   3.392   6.483
    1   AR   Ar   48   0.716   4.371   5.801
    1   AR   Ar   49   7.042   4.172   0.070
    1   AR   Ar   50   6.333   5.655   0.791
    1   AR   Ar   51   1.375   4.394   0.815
    1   AR   Ar   52   0.956   5.531   0.191
    1   AR   Ar   53   7.036   5.744   2.173
    1   AR   Ar   54   6.904   6.454   3.182
    1   AR   Ar   55   0.758   5.760   2.965
    1   AR   Ar   56   0.678   5.508   1.561
    1   AR   Ar   57   0.882   4.592   4.277
    1   AR   Ar   58   0.179   6.147   4.177
    1   AR   Ar   59   1.268   5.961   4.691
    1   AR   Ar   60   1.021   6.405   3.678
    1   AR   Ar   61   7.026   6.408   5.808
    1   AR   Ar   62   0.863   5.780   6.040
    1   AR   Ar   63   1.825   5.411   5.767
    1   AR   Ar   64   0.833   6.826   5.176
    1   AR   Ar   65   1.179   6.602  -0.015
    1   AR   Ar   66   1.797   0.975   1.438
    1   AR   Ar   67   2.480   6.119   0.347
    1   AR   Ar   68   2.868   1.189   0.860
    1   AR   Ar   69   2.321   0.132   0.886
    1   AR   Ar   70   1.492   0.736   2.356
    1   AR   Ar   71   2.127   6.997   2.029
    1   AR   Ar   72   2.873   0.432   1.823
    1   AR   Ar   73   1.684   0.045   3.063
    1   AR   Ar   74   1.587   1.308   4.418
    1   AR   Ar   75   2.402   0.293   4.094
    1   AR   Ar   76   1.845   1.092   3.476
    1   AR   Ar   77   1.956   0.093   5.102
    1   AR   Ar   78   2.106   0.652   5.958
    1   AR   Ar   79   2.629   7.074   6.403
    1   AR   Ar   80   2.646   1.049   5.093
    1   AR   Ar   81   1.921   1.235   0.229
    1   AR   Ar   82   1.921   3.337   0.973
    1   AR   Ar   83   2.748   2.158   1.516
    1   AR   Ar   84   1.991   2.825  -0.469
    1   AR   Ar   85   1.526   2.061   1.725
    1   AR   Ar   86   1.550   2.574   2.647
    1   AR   Ar   87   2.399   1.217   2.634
    1   AR   Ar   88   2.635   3.354   1.695
    1   AR   Ar   89   1.120   1.646   2.778
    1   AR   Ar   90   2.634   3.206   4.261
    1   AR   Ar   91   2.395   2.067   4.663
    1   AR   Ar   92   2.307   2.252   3.555
    1   AR   Ar   93   1.772   1.619   5.429
    1   AR   Ar   94   2.218   2.851   6.528
    1   AR   Ar   95   2.638   1.610   6.285
    1   AR   Ar   96   2.378   2.565   5.553
    1   AR   Ar   97   1.962   3.936  -0.024
    1   AR   Ar   98   2.120   4.510   1.731
    1   AR   Ar   99   3.007   3.156   0.462
    1   AR   Ar  100   2.778   4.669  -0.335
    1   AR   Ar  101   1.200   3.032   1.783
    1   AR   Ar  102   1.691   4.689   3.110
    1   AR   Ar  103   2.397   3.925   2.636
    1   AR   Ar  104   3.132   4.059   1.106
    1   AR   Ar  105   1.866   3.265   3.480
    1   AR   Ar  106   1.730   4.011   4.138
    1   AR   Ar  107   2.579   4.175   4.779
    1   AR   Ar  108   2.710   4.080   3.712
    1   AR   Ar  109   0.984   3.755   4.896
    1   AR   Ar  110   1.852   3.665   5.546
    1   AR   Ar  111   3.585   4.392   6.506
    1   AR   Ar  112   2.306   4.419   6.143
    1   AR   Ar  113   2.011   5.215   0.799
    1   AR   Ar  114   1.425   6.224   0.999
    1   AR   Ar  115   3.205   5.564   0.862
    1   AR   Ar  116   3.516   0.307  -0.175
    1   AR   Ar  117   1.490   5.339   2.165
    1   AR   Ar  118   1.695   6.145   2.789
    1   AR   Ar  119   2.497   5.091   2.548
    1   AR   Ar  120   2.201   5.980   1.746
    1   AR   Ar  121   1.511   5.453   3.713
    1   AR   Ar  122   2.183   6.338   4.452
    1   AR   Ar  123   2.390   5.185   4.161
    1   AR   Ar  124   2.548   6.674   3.370
    1   AR   Ar  125   1.646   4.675   5.077
    1   AR   Ar  126   1.362   7.061   6.132
    1   AR   Ar  127   2.596   5.116   6.842
    1   AR   Ar  128   2.261   6.367   5.679
    1   AR   Ar  129   3.471   0.001   0.865
    1   AR   Ar  130   4.191   0.781   0.339
    1   AR   Ar  131   4.634   6.789   1.171
    1   AR   Ar  132   3.834   1.490  -0.581
    1   AR   Ar  133   3.626   6.961   2.380
    1   AR   Ar  134   3.420   1.014   2.554
    1   AR   Ar  135   4.790   0.230   2.717
    1   AR   Ar  136   4.078   0.482   1.741
    1   AR   Ar  137   3.241   0.274   3.441
    1   AR   Ar  138   3.523   0.930   4.429
    1   AR   Ar  139   4.013   0.065   4.314
    1   AR   Ar  140   4.265   0.844   3.487
    1   AR   Ar  141   2.991   0.070   5.352
    1   AR   Ar  142   3.380   0.761   5.980
    1   AR   Ar  143   4.070   7.107   6.665
    1   AR   Ar  144   4.996   1.080   6.047
    1   AR   Ar  145   3.159   2.146   0.495
    1   AR   Ar  146   3.567   2.987   1.287
    1   AR   Ar  147   4.288   2.265   0.891
    1   AR   Ar  148   5.520   2.234  -0.448
    1   AR   Ar  149   3.710   1.627   1.747
    1   AR   Ar  150   3.045   2.210   2.700
    1   AR   Ar  151   4.054   1.772   2.873
    1   AR   Ar  152   3.909   2.554   2.256
    1   AR   Ar  153   3.375   1.791   3.709
    1   AR   Ar  154   3.650   2.723   4.296
    1   AR   Ar  155   4.382   2.134   4.743
    1   AR   Ar  156   4.569   3.438   4.201
    1   AR   Ar  157   3.545   1.672   5.221
    1   AR   Ar  158   3.378   2.347   6.253
    1   AR   Ar  159   4.157   1.079   6.698
    1   AR   Ar  160   4.140   2.892   5.398
    1   AR   Ar  161   3.988   2.928  -0.139
    1   AR   Ar  162   3.708   4.643   0.494
    1   AR   Ar  163   4.782   3.520   0.885
    1   AR   Ar  164   5.235   4.954   0.666
    1   AR   Ar  165   3.606   3.480   2.220
    1   AR   Ar  166   3.486   4.755   3.141
    1   AR   Ar  167   4.416   2.872   3.138
    1   AR   Ar  168   3.999   4.324   1.676
    1   AR   Ar  169   2.990   3.213   3.133
    1   AR   Ar  170   3.408   4.736   4.326
    1   AR   Ar  171   3.463   3.736   4.770
    1   AR   Ar  172   4.616   4.455   3.824
    1   AR   Ar  173   3.072   3.392   5.850
    1   AR   Ar  174   4.317   5.035   6.291
    1   AR   Ar  175   4.161   3.968   5.777
    1   AR   Ar  176   4.352   4.952   5.176
    1   AR   Ar  177   4.387   5.590  -0.125
    1   AR   Ar  178   3.723   6.267   1.525
    1   AR   Ar  179   4.390   5.310   1.348
    1   AR   Ar  180   4.269   6.746   0.177
    1   AR   Ar  181   3.530   5.215   2.036
    1   AR   Ar  182   2.958   6.087   2.489
    1   AR   Ar  183   4.515   5.182   2.592
    1   AR   Ar  184   4.594   6.232   2.343
    1   AR   Ar  185   3.169   5.647   3.331
    1   AR   Ar  186   3.282   6.161   4.222
    1   AR   Ar  187   4.786   5.430   3.688
    1   AR   Ar  188   4.093   6.601   3.254
    1   AR   Ar  189   3.317   5.520   5.238
    1   AR   Ar  190   3.235   6.302   7.071
    1   AR   Ar  191   4.654   5.950   5.420
    1   AR   Ar  192   4.055   6.732   5.209
    1   AR   Ar  193   5.237   0.093   0.473
    1   AR   Ar  194   4.675   1.175   1.210
    1   AR   Ar  195   6.080   0.867   0.571
    1   AR   Ar  196   5.145   1.306   0.307
    1   AR   Ar  197   5.610   0.088   1.638
    1   AR   Ar  198   5.391   0.991   2.290
    1   AR   Ar  199   6.384   0.445   2.441
    1   AR   Ar  200   6.726   1.460   1.157
    1   AR   Ar  201   5.072   6.727   3.620
    1   AR   Ar  202   4.960   0.998   4.280
    1   AR   Ar  203   6.617   6.713   4.820
    1   AR   Ar  204   6.019   0.229   3.510
    1   AR   Ar  205   5.295   0.019   4.729
    1   AR   Ar  206   5.017   7.118   6.025
    1   AR   Ar  207   5.996   6.841   5.802
    1   AR   Ar  208   6.171   0.660   4.881
    1   AR   Ar  209   6.571   2.193  -0.762
    1   AR   Ar  210   5.335   2.194   1.242
    1   AR   Ar  211   6.329   2.126   0.494
    1   AR   Ar  212   6.475   3.173   0.148
    1   AR   Ar  213   5.023   2.083   2.311
    1   AR   Ar  214   4.954   3.276   1.933
    1   AR   Ar  215   6.311   1.669   2.281
    1   AR   Ar  216   6.434   2.576   1.477
    1   AR   Ar  217   4.607   1.889   3.788
    1   AR   Ar  218   5.343   2.438   4.308
    1   AR   Ar  219   6.071   1.723   3.954
    1   AR   Ar  220   5.778   2.481   3.057
    1   AR   Ar  221   5.419   1.739   5.059
    1   AR   Ar  222   4.548   2.171   6.245
    1   AR   Ar  223   6.328   1.939   6.261
    1   AR   Ar  224   6.511   2.665   5.450
    1   AR   Ar  225   5.449   4.047   0.154
    1   AR   Ar  226   5.010   4.362   1.914
    1   AR   Ar  227   6.841   3.497   1.105
    1   AR   Ar  228   5.978   5.140  -0.080
    1   AR   Ar  229   5.789   3.111   0.881
    1   AR   Ar  230   4.471   4.027   2.771
    1   AR   Ar  231   6.808   3.211   3.377
    1   AR   Ar  232   6.011   3.232   2.199
    1   AR   Ar  233   5.584   3.376   3.796
    1   AR   Ar  234   5.985   4.322   4.319
    1   AR   Ar  235   6.752   3.653   4.428
    1   AR   Ar  236   6.978   4.328   3.410
    1   AR   Ar  237   5.118   2.868   5.304
    1   AR   Ar  238   5.160   4.423   6.119
    1   AR   Ar  239   6.016   4.034   7.306
    1   AR   Ar  240   6.120   4.098   5.594
    1   AR   Ar  241   6.018   6.188  -0.115
    1   AR   Ar  242   5.325   6.091   1.532
    1   AR   Ar  243   6.192   4.412   2.048
    1   AR   Ar  244   6.179   6.650   0.896
    1   AR   Ar  245   5.503   5.206   2.347
    1   AR   Ar  246   5.722   6.532   2.881
    1   AR   Ar  247   6.098   4.062   3.006
    1   AR   Ar  248   6.251   6.510   2.073
    1   AR   Ar  249   6.146   5.707   3.048
    1   AR   Ar  250   5.027   6.157   4.509
    1   AR   Ar  251   6.326   5.381   4.375
    1   AR   Ar  252   6.171   6.416   3.890
    1   AR   Ar  253   5.454   4.901   4.922
    1   AR   Ar  254   5.105   5.921   6.382
    1   AR   Ar  255   5.839   5.162   5.813
    1   AR   Ar  256   5.923   6.020   5.243
    7.12000  7.12000 12.00000
Argon-slab step 420
  256
    1   AR   Ar    1   0.208   0.251  -0.048
    1   AR   Ar    2   0.032   0.459   0.962
    1   AR   Ar    3   0.420   6.334   0.863
    1   AR   Ar    4   1.136   0.416   0.714
    1   AR   Ar    5   7.104   6.995   1.786
    1   AR   Ar    6   7.067   0.338   3.141
    1   AR   Ar    7   0.737   6.759   2.726
    1   AR   Ar    8   1.096   7.086   1.606
    1   AR   Ar    9   0.155   0.011   4.143
    1   AR   Ar   10   6.985   0.993   4.458
    1   AR   Ar   11   1.413   0.250   4.231
    1   AR   Ar   12   0.844   0.739   3.427
    1   AR   Ar   13   7.009   0.214   5.519
    1   AR   Ar   14   0.189   1.293   5.891
    1   AR   Ar   15   2.166   7.043   7.935
    1   AR   Ar   16   0.962   0.711   5.020
    1   AR   Ar   17   6.827   1.303  -0.047
    1   AR   Ar   18   0.219   2.382   0.518
    1   AR   Ar   19   0.552   1.497   1.094
    1   AR   Ar   20   0.579   2.454  -0.748
    1   AR   Ar   21   0.188   0.924   1.903
    1   AR   Ar   22   6.881   2.576   2.608
    1   AR   Ar   23   0.135   1.511   2.836
    1   AR   Ar   24   0.411   2.301   1.724
    1   AR   Ar   25   0.289   1.883   3.998
    1   AR   Ar   26   6.551   2.642   4.296
    1   AR   Ar   27   0.280   1.862   5.040
    1   AR   Ar   28   1.227   2.578   4.312
    1   AR   Ar   29   6.432   1.723   4.973
    1   AR   Ar   30   0.174   2.499   6.183
    1   AR   Ar   31   0.827   0.957   7.281
    1   AR   Ar   32   1.081   2.537   5.463
    1   AR   Ar   33   0.607   3.502  -0.484
    1   AR   Ar   34   0.075   4.739   1.298
    1   AR   Ar   35   0.805   3.539   0.710
    1   AR   Ar   36   1.428   5.138  -0.778
    1   AR   Ar   37   7.098   3.716   2.463
    1   AR   Ar   38   0.302   4.851   2.518
    1   AR   Ar   39   1.200   3.872   2.793
    1   AR   Ar   40   1.122   4.316   1.808
    1   AR   Ar   41   0.602   2.703   3.212
    1   AR   Ar   42   7.111   4.511   4.931
    1   AR   Ar   43   0.278   2.964   4.898
    1   AR   Ar   44   0.751   3.502   3.941
    1   AR   Ar   45   0.111   3.587   5.902
    1   AR   Ar   46   7.013   4.686   6.639
    1   AR   Ar   47   1.039   3.438   6.518
    1   AR   Ar   48   0.724   4.351   5.829
    1   AR   Ar   49   7.055   4.162   0.082
    1   AR   Ar   50   6.294   5.673   0.799
    1   AR   Ar   51   1.367   4.374   0.827
    1   AR   Ar   52   0.977   5.514   0.186
    1   AR   Ar   53   6.992   5.768   2.145
    1   AR   Ar   54   6.937   6.476   3.192
    1   AR   Ar   55   0.749   5.744   2.974
    1   AR   Ar   56   0.699   5.527   1.537
    1   AR   Ar   57   0.890   4.609   4.289
    1   AR   Ar   58   0.184   6.127   4.145
    1   AR   Ar   59   1.246   5.983   4.711
    1   AR   Ar   60   1.015   6.407   3.680
    1   AR   Ar   61   7.040   6.374   5.815
    1   AR   Ar   62   0.884   5.790   6.013
    1   AR   Ar   63   1.824   5.434   5.752
    1   AR   Ar   64   0.832   6.816   5.182
    1   AR   Ar   65   1.204   6.580  -0.001
    1   AR   Ar   66   1.792   0.951   1.414
    1   AR   Ar   67   2.451   6.125   0.344
    1   AR   Ar   68   2.900   1.188   0.879
    1   AR   Ar   69   2.317   0.091   0.878
    1   AR   Ar   70   1.471   0.745   2.356
    1   AR   Ar   71   2.126   6.994   2.013
    1   AR   Ar   72   2.884   0.450   1.807
    1   AR   Ar   73   1.659   0.060   3.068
    1   AR   Ar   74   1.567   1.333   4.441
    1   AR   Ar   75   2.398   0.322   4.075
    1   AR   Ar   76   1.828   1.091   3.470
    1   AR   Ar   77   1.954   0.088   5.107
    1   AR   Ar   78   2.056   0.651   5.980
    1   AR   Ar   79   2.640   7.084   6.417
    1   AR   Ar   80   2.654   1.044   5.096
    1   AR   Ar   81   1.931   1.223   0.211
    1   AR   Ar   82   1.917   3.397   1.010
    1   AR   Ar   83   2.773   2.137   1.524
    1   AR   Ar   84   1.966   2.796  -0.461
    1   AR   Ar   85   1.518   2.035   1.749
    1   AR   Ar   86   1.544   2.552   2.661
    1   AR   Ar   87   2.391   1.241   2.616
    1   AR   Ar   88   2.619   3.368   1.691
    1   AR   Ar   89   1.097   1.676   2.787
    1   AR   Ar   90   2.660   3.191   4.267
    1   AR   Ar   91   2.393   2.028   4.657
    1   AR   Ar   92   2.269   2.241   3.577
    1   AR   Ar   93   1.782   1.603   5.419
    1   AR   Ar   94   2.250   2.822   6.561
    1   AR   Ar   95   2.612   1.557   6.265
    1   AR   Ar   96   2.379   2.579   5.577
    1   AR   Ar   97   1.957   3.973  -0.041
    1   AR   Ar   98   2.105   4.525   1.746
    1   AR   Ar   99   3.012   3.166   0.437
    1   AR   Ar  100   2.747   4.693  -0.341
    1   AR   Ar  101   1.211   3.019   1.797
    1   AR   Ar  102   1.701   4.674   3.099
    1   AR   Ar  103   2.382   3.905   2.631
    1   AR   Ar  104   3.134   4.092   1.088
    1   AR   Ar  105   1.859   3.250   3.507
    1   AR   Ar  106   1.717   4.000   4.147
    1   AR   Ar  107   2.563   4.195   4.780
    1   AR   Ar  108   2.716   4.073   3.725
    1   AR   Ar  109   0.970   3.754   4.907
    1   AR   Ar  110   1.844   3.656   5.535
    1   AR   Ar  111   3.571   4.416   6.503
    1   AR   Ar  112   2.272   4.388   6.160
    1   AR   Ar  113   2.019   5.212   0.787
    1   AR   Ar  114   1.453   6.220   0.951
    1   AR   Ar  115   3.173   5.549   0.862
    1   AR   Ar  116   3.511   0.318  -0.146
    1   AR   Ar  117   1.474   5.329   2.164
    1   AR   Ar  118   1.689   6.160   2.804
    1   AR   Ar  119   2.503   5.089   2.556
    1   AR   Ar  120   2.190   5.966   1.763
    1   AR   Ar  121   1.500   5.462   3.710
    1   AR   Ar  122   2.194   6.344   4.416
    1   AR   Ar  123   2.374   5.192   4.160
    1   AR   Ar  124   2.556   6.667   3.382
    1   AR   Ar  125   1.630   4.651   5.081
    1   AR   Ar  126   1.339   7.051   6.142
    1   AR   Ar  127   2.606   5.121   6.887
    1   AR   Ar  128   2.292   6.380   5.698
    1   AR   Ar  129   3.456   0.047   0.864
    1   AR   Ar  130   4.218   0.746   0.326
    1   AR   Ar  131   4.679   6.792   1.186
    1   AR   Ar  132   3.795   1.474  -0.563
    1   AR   Ar  133   3.656   6.942   2.387
    1   AR   Ar  134   3.429   1.030   2.515
    1   AR   Ar  135   4.781   0.178   2.700
    1   AR   Ar  136   4.058   0.503   1.751
    1   AR   Ar  137   3.285   0.268   3.422
    1   AR   Ar  138   3.512   0.952   4.475
    1   AR   Ar  139   4.033   0.069   4.297
    1   AR   Ar  140   4.264   0.832   3.465
    1   AR   Ar  141   2.974   0.092   5.323
    1   AR   Ar  142   3.393   0.764   6.010
    1   AR   Ar  143   4.056   7.080   6.631
    1   AR   Ar  144   5.030   1.042   6.078
    1   AR   Ar  145   3.185   2.159   0.469
    1   AR   Ar  146   3.590   2.996   1.303
    1   AR   Ar  147   4.284   2.282   0.910
    1   AR   Ar  148   5.504   2.254  -0.470
    1   AR   Ar  149   3.715   1.654   1.735
    1   AR   Ar  150   3.033   2.218   2.698
    1   AR   Ar  151   4.090   1.753   2.877
    1   AR   Ar  152   3.919   2.509   2.290
    1   AR   Ar  153   3.350   1.821   3.683
    1   AR   Ar  154   3.679   2.702   4.299
    1   AR   Ar  155   4.380   2.159   4.739
    1   AR   Ar  156   4.589   3.448   4.206
    1   AR   Ar  157   3.558   1.678   5.183
    1   AR   Ar  158   3.394   2.303   6.247
    1   AR   Ar  159   4.135   1.057   6.714
    1   AR   Ar  160   4.117   2.901   5.414
    1   AR   Ar  161   4.007   2.883  -0.165
    1   AR   Ar  162   3.693   4.646   0.499
    1   AR   Ar  163   4.786   3.483   0.881
    1   AR   Ar  164   5.238   4.956   0.676
    1   AR   Ar  165   3.574   3.479   2.195
    1   AR   Ar  166   3.518   4.777   3.159
    1   AR   Ar  167   4.424   2.877   3.117
    1   AR   Ar  168   4.002   4.317   1.680
    1   AR   Ar  169   3.016   3.192   3.129
    1   AR   Ar  170   3.385   4.730   4.339
    1   AR   Ar  171   3.492   3.703   4.792
    1   AR   Ar  172   4.608   4.475   3.838
    1   AR   Ar  173   3.063   3.390   5.863
    1   AR   Ar  174   4.349   5.055   6.285
    1   AR   Ar  175   4.210   3.956   5.769
    1   AR   Ar  176   4.358   4.979   5.166
    1   AR   Ar  177   4.399   5.591  -0.120
    1   AR   Ar  178   3.712   6.238   1.548
    1   AR   Ar  179   4.396   5.305   1.365
    1   AR   Ar  180   4.266   6.738   0.162
    1   AR   Ar  181   3.528   5.211   2.030
    1   AR   Ar  182   2.960   6.109   2.486
    1   AR   Ar  183   4.492   5.159   2.557
    1   AR   Ar  184   4.579   6.240   2.352
    1   AR   Ar  185   3.158   5.641   3.329
    1   AR   Ar  186   3.288   6.155   4.208
    1   AR   Ar  187   4.807   5.462   3.670
    1   AR   Ar  188   4.089   6.595   3.264
    1   AR   Ar  189   3.298   5.503   5.246
    1   AR   Ar  190   3.249   6.326   7.059
    1   AR   Ar  191   4.689   5.932   5.392
    1   AR   Ar  192   4.047   6.717   5.198
    1   AR   Ar  193   5.240   0.092   0.491
    1   AR   Ar  194   4.648   1.178   1.223
    1   AR   Ar  195   6.089   0.916   0.560
    1   AR   Ar  196   5.140   1.279   0.280
    1   AR   Ar  197   5.597   0.075   1.648
    1   AR   Ar  198   5.411   0.986   2.247
    1   AR   Ar  199   6.373   0.436   2.454
    1   AR   Ar  200   6.726   1.451   1.145
    1   AR   Ar  201   5.066   6.682   3.592
    1   AR   Ar  202   4.970   0.994   4.243
    1   AR   Ar  203   6.617   6.685   4.815
    1   AR   Ar  204   6.025   0.242   3.501
    1   AR   Ar  205   5.312   0.009   4.703
    1   AR   Ar  206   5.029   7.108   6.012
    1   AR   Ar  207   6.012   6.868   5.794
    1   AR   Ar  208   6.177   0.596   4.908
    1   AR   Ar  209   6.601   2.192  -0.738
    1   AR   Ar  210   5.330   2.202   1.254
    1   AR   Ar  211   6.336   2.114   0.497
    1   AR   Ar  212   6.485   3.165   0.128
    1   AR   Ar  213   5.030   2.118   2.321
    1   AR   Ar  214   4.946   3.289   1.932
    1   AR   Ar  215   6.321   1.669   2.244
    1   AR   Ar  216   6.453   2.567   1.491
    1   AR   Ar  217   4.608   1.945   3.806
    1   AR   Ar  218   5.331   2.443   4.322
    1   AR   Ar  219   6.098   1.699   3.987
    1   AR   Ar  220   5.828   2.525   3.055
    1   AR   Ar  221   5.415   1.716   5.082
    1   AR   Ar  222   4.554   2.170   6.246
    1   AR   Ar  223   6.332   1.900   6.275
    1   AR   Ar  224   6.509   2.670   5.462
    1   AR   Ar  225   5.448   4.055   0.147
    1   AR   Ar  226   4.997   4.346   1.940
    1   AR   Ar  227   6.854   3.481   1.138
    1   AR   Ar  228   5.961   5.160  -0.111
    1   AR   Ar  229   5.773   3.128   0.857
    1   AR   Ar  230   4.493   4.065   2.766
    1   AR   Ar  231   6.803   3.194   3.387
    1   AR   Ar  232   5.991   3.248   2.191
    1   AR   Ar  233   5.569   3.361   3.812
    1   AR   Ar  234   5.975   4.348   4.318
    1   AR   Ar  235   6.766   3.645   4.432
    1   AR   Ar  236   6.949   4.357   3.383
    1   AR   Ar  237   5.140   2.874   5.315
    1   AR   Ar  238   5.134   4.424   6.119
    1   AR   Ar  239   5.976   4.017   7.325
    1   AR   Ar  240   6.094   4.108   5.638
    1   AR   Ar  241   6.050   6.229  -0.139
    1   AR   Ar  242   5.356   6.104   1.497
    1   AR   Ar  243   6.156   4.430   2.045
    1   AR   Ar  244   6.156   6.642   0.930
    1   AR   Ar  245   5.524   5.221   2.325
    1   AR   Ar  246   5.714   6.526   2.905
    1   AR   Ar  247   6.086   4.067   3.021
    1   AR   Ar  248   6.254   6.525   2.041
    1   AR   Ar  249   6.173   5.720   3.068
    1   AR   Ar  250   5.059   6.133   4.520
    1   AR   Ar  251   6.328   5.356   4.360
    1   AR   Ar  252   6.184   6.422   3.889
    1   AR   Ar  253   5.452   4.898   4.925
    1   AR   Ar  254   5.089   5.922   6.375
    1   AR   Ar  255   5.840   5.140   5.820
    1   AR   Ar  256   5.920   5.974   5.222
    7.12000  7.12000 12.00000
Argon-slab step 425
  256
    1   AR   Ar    1   0.196   0.272  -0.054
    1   AR   Ar    2   0.037   0.463   0.947
    1   AR   Ar    3   0.453   6.324   0.837
    1   AR   Ar    4   1.124   0.411   0.743
    1   AR   Ar    5   0.007   6.990   1.769
    1   AR   Ar    6   7.086   0.375   3.124
    1   AR   Ar    7   0.741   6.788   2.686
    1   AR   Ar    8   1.068   7.059   1.608
    1   AR   Ar    9   0.156   7.112   4.167
    1   AR   Ar   10   6.984   0.999   4.465
    1   AR   Ar   11   1.388   0.265   4.246
    1   AR   Ar   12   0.853   0.771   3.447
    1   AR   Ar   13   6.998   0.220   5.483
    1   AR   Ar   14   0.190   1.282   5.888
    1   AR   Ar   15   2.191   7.046   7.962
    1   AR   Ar   16   0.952   0.705   5.022
    1   AR   Ar   17   6.792   1.301  -0.067
    1   AR   Ar   18   0.231   2.384   0.538
    1   AR   Ar   19   0.594   1.450   1.068
    1   AR   Ar   20   0.562   2.415  -0.748
    1   AR   Ar   21   0.192   0.957   1.884
    1   AR   Ar   22   6.889   2.570   2.608
    1   AR   Ar   23   0.110   1.510   2.836
    1   AR   Ar   24   0.399   2.287   1.733
    1   AR   Ar   25   0.261   1.883   4.000
    1   AR   Ar   26   6.504   2.626   4.306
    1   AR   Ar   27   0.277   1.839   5.013
    1   AR   Ar   28   1.228   2.574   4.272
    1   AR   Ar   29   6.443   1.720   5.022
    1   AR   Ar   30   0.175   2.473   6.154
    1   AR   Ar   31   0.808   0.932   7.282
    1   AR   Ar   32   1.060   2.508   5.456
    1   AR   Ar   33   0.590   3.500  -0.500
    1   AR   Ar   34   0.085   4.762   1.279
    1   AR   Ar   35   0.778   3.514   0.711
    1   AR   Ar   36   1.447   5.165  -0.795
    1   AR   Ar   37   7.088   3.711   2.478
    1   AR   Ar   38   0.291   4.835   2.522
    1   AR   Ar   39   1.205   3.876   2.752
    1   AR   Ar   40   1.138   4.297   1.806
    1   AR   Ar   41   0.599   2.705   3.215
    1   AR   Ar   42   7.074   4.541   4.924
    1   AR   Ar   43   0.286   2.948   4.915
    1   AR   Ar   44   0.724   3.505   3.939
    1   AR   Ar   45   0.096   3.564   5.879
    1   AR   Ar   46   7.014   4.652   6.650
    1   AR   Ar   47   1.032   3.484   6.551
    1   AR   Ar   48   0.740   4.342   5.855
    1   AR   Ar   49   7.067   4.151   0.097
    1   AR   Ar   50   6.257   5.681   0.808
    1   AR   Ar   51   1.362   4.353   0.833
    1   AR   Ar   52   1.004   5.528   0.178
    1   AR   Ar   53   6.947   5.793   2.119
    1   AR   Ar   54   6.971   6.489   3.197
    1   AR   Ar   55   0.732   5.719   2.977
    1   AR   Ar   56   0.721   5.549   1.509
    1   AR   Ar   57   0.893   4.630   4.298
    1   AR   Ar   58   0.181   6.095   4.119
    1   AR   Ar   59   1.224   6.000   4.730
    1   AR   Ar   60   1.021   6.420   3.682
    1   AR   Ar   61   7.054   6.334   5.823
    1   AR   Ar   62   0.901   5.804   5.985
    1   AR   Ar   63   1.826   5.455   5.738
    1   AR   Ar   64   0.855   6.817   5.194
    1   AR   Ar   65   1.229   6.560   0.012
    1   AR   Ar   66   1.790   0.928   1.384
    1   AR   Ar   67   2.420   6.134   0.341
    1   AR   Ar   68   2.922   1.181   0.889
    1   AR   Ar   69   2.311   0.051   0.870
    1   AR   Ar   70   1.444   0.756   2.356
    1   AR   Ar   71   2.116   6.994   1.999
    1   AR   Ar   72   2.905   0.477   1.785
    1   AR   Ar   73   1.607   0.063   3.095
    1   AR   Ar   74   1.546   1.359   4.462
    1   AR   Ar   75   2.402   0.355   4.059
    1   AR   Ar   76   1.817   1.088   3.475
    1   AR   Ar   77   1.948   0.082   5.110
    1   AR   Ar   78   2.007   0.662   5.999
    1   AR   Ar   79   2.658   7.089   6.435
    1   AR   Ar   80   2.658   1.041   5.099
    1   AR   Ar   81   1.935   1.231   0.184
    1   AR   Ar   82   1.903   3.458   1.038
    1   AR   Ar   83   2.781   2.091   1.508
    1   AR   Ar   84   1.940   2.768  -0.452
    1   AR   Ar   85   1.511   2.001   1.771
    1   AR   Ar   86   1.547   2.541   2.682
    1   AR   Ar   87   2.384   1.269   2.593
    1   AR   Ar   88   2.611   3.380   1.697
    1   AR   Ar   89   1.083   1.699   2.797
    1   AR   Ar   90   2.684   3.171   4.276
    1   AR   Ar   91   2.382   2.011   4.661
    1   AR   Ar   92   2.232   2.230   3.597
    1   AR   Ar   93   1.790   1.587   5.416
    1   AR   Ar   94   2.282   2.796   6.598
    1   AR   Ar   95   2.586   1.505   6.243
    1   AR   Ar   96   2.380   2.592   5.596
    1   AR   Ar   97   1.950   4.009  -0.056
    1   AR   Ar   98   2.099   4.539   1.757
    1   AR   Ar   99   3.015   3.184   0.410
    1   AR   Ar  100   2.717   4.717  -0.345
    1   AR   Ar  101   1.220   3.015   1.809
    1   AR   Ar  102   1.716   4.662   3.089
    1   AR   Ar  103   2.364   3.887   2.627
    1   AR   Ar  104   3.126   4.117   1.077
    1   AR   Ar  105   1.851   3.229   3.527
    1   AR   Ar  106   1.705   3.993   4.161
    1   AR   Ar  107   2.544   4.215   4.785
    1   AR   Ar  108   2.724   4.071   3.733
    1   AR   Ar  109   0.958   3.755   4.926
    1   AR   Ar  110   1.830   3.661   5.518
    1   AR   Ar  111   3.550   4.437   6.502
    1   AR   Ar  112   2.238   4.359   6.176
    1   AR   Ar  113   2.027   5.211   0.777
    1   AR   Ar  114   1.487   6.215   0.907
    1   AR   Ar  115   3.141   5.531   0.866
    1   AR   Ar  116   3.488   0.322  -0.132
    1   AR   Ar  117   1.459   5.313   2.169
    1   AR   Ar  118   1.688   6.174   2.818
    1   AR   Ar  119   2.513   5.089   2.565
    1   AR   Ar  120   2.169   5.960   1.770
    1   AR   Ar  121   1.475   5.470   3.690
    1   AR   Ar  122   2.207   6.351   4.379
    1   AR   Ar  123   2.364   5.196   4.162
    1   AR   Ar  124   2.563   6.651   3.393
    1   AR   Ar  125   1.612   4.625   5.085
    1   AR   Ar  126   1.313   7.037   6.152
    1   AR   Ar  127   2.617   5.128   6.932
    1   AR   Ar  128   2.317   6.371   5.723
    1   AR   Ar  129   3.442   0.093   0.868
    1   AR   Ar  130   4.258   0.718   0.324
    1   AR   Ar  131   4.711   6.796   1.209
    1   AR   Ar  132   3.756   1.458  -0.543
    1   AR   Ar  133   3.682   6.922   2.396
    1   AR   Ar  134   3.439   1.041   2.481
    1   AR   Ar  135   4.783   0.159   2.666
    1   AR   Ar  136   4.038   0.525   1.757
    1   AR   Ar  137   3.334   0.267   3.402
    1   AR   Ar  138   3.500   0.971   4.513
    1   AR   Ar  139   4.057   0.071   4.272
    1   AR   Ar  140   4.271   0.840   3.480
    1   AR   Ar  141   2.962   0.108   5.292
    1   AR   Ar  142   3.403   0.769   6.040
    1   AR   Ar  143   4.041   7.053   6.596
    1   AR   Ar  144   5.064   1.007   6.108
    1   AR   Ar  145   3.215   2.168   0.443
    1   AR   Ar  146   3.614   3.001   1.316
    1   AR   Ar  147   4.281   2.298   0.928
    1   AR   Ar  148   5.489   2.275  -0.490
    1   AR   Ar  149   3.722   1.678   1.718
    1   AR   Ar  150   3.015   2.222   2.696
    1   AR   Ar  151   4.131   1.725   2.888
    1   AR   Ar  152   3.934   2.474   2.311
    1   AR   Ar  153   3.325   1.850   3.659
    1   AR   Ar  154   3.700   2.687   4.298
    1   AR   Ar  155   4.387   2.190   4.741
    1   AR   Ar  156   4.605   3.456   4.213
    1   AR   Ar  157   3.568   1.689   5.153
    1   AR   Ar  158   3.410   2.260   6.238
    1   AR   Ar  159   4.114   1.036   6.730
    1   AR   Ar  160   4.085   2.912   5.433
    1   AR   Ar  161   4.029   2.859  -0.186
    1   AR   Ar  162   3.692   4.662   0.514
    1   AR   Ar  163   4.785   3.447   0.877
    1   AR   Ar  164   5.241   4.974   0.699
    1   AR   Ar  165   3.570   3.472   2.181
    1   AR   Ar  166   3.559   4.779   3.173
    1   AR   Ar  167   4.422   2.885   3.107
    1   AR   Ar  168   4.012   4.293   1.674
    1   AR   Ar  169   3.043   3.171   3.128
    1   AR   Ar  170   3.365   4.726   4.351
    1   AR   Ar  171   3.526   3.669   4.814
    1   AR   Ar  172   4.598   4.489   3.854
    1   AR   Ar  173   3.045   3.394   5.877
    1   AR   Ar  174   4.381   5.083   6.278
    1   AR   Ar  175   4.258   3.944   5.757
    1   AR   Ar  176   4.362   5.001   5.154
    1   AR   Ar  177   4.410   5.593  -0.113
    1   AR   Ar  178   3.703   6.210   1.570
    1   AR   Ar  179   4.402   5.300   1.383
    1   AR   Ar  180   4.264   6.729   0.149
    1   AR   Ar  181   3.521   5.209   2.025
    1   AR   Ar  182   2.961   6.136   2.472
    1   AR   Ar  183   4.465   5.136   2.523
    1   AR   Ar  184   4.566   6.248   2.358
    1   AR   Ar  185   3.140   5.646   3.336
    1   AR   Ar  186   3.295   6.152   4.200
    1   AR   Ar  187   4.830   5.501   3.649
    1   AR   Ar  188   4.080   6.586   3.279
    1   AR   Ar  189   3.280   5.485   5.253
    1   AR   Ar  190   3.265   6.353   7.036
    1   AR   Ar  191   4.723   5.911   5.378
    1   AR   Ar  192   4.055   6.725   5.181
    1   AR   Ar  193   5.251   0.098   0.503
    1   AR   Ar  194   4.624   1.185   1.238
    1   AR   Ar  195   6.093   0.958   0.550
    1   AR   Ar  196   5.136   1.254   0.251
    1   AR   Ar  197   5.578   0.068   1.658
    1   AR   Ar  198   5.429   0.983   2.203
    1   AR   Ar  199   6.354   0.429   2.457
    1   AR   Ar  200   6.710   1.442   1.144
    1   AR   Ar  201   5.051   6.641   3.580
    1   AR   Ar  202   4.983   0.990   4.208
    1   AR   Ar  203   6.615   6.653   4.811
    1   AR   Ar  204   6.030   0.260   3.493
    1   AR   Ar  205   5.329   7.120   4.677
    1   AR   Ar  206   5.037   7.094   5.999
    1   AR   Ar  207   6.032   6.897   5.784
    1   AR   Ar  208   6.176   0.530   4.937
    1   AR   Ar  209   6.632   2.191  -0.712
    1   AR   Ar  210   5.326   2.210   1.266
    1   AR   Ar  211   6.334   2.106   0.493
    1   AR   Ar  212   6.500   3.157   0.103
    1   AR   Ar  213   5.036   2.154   2.332
    1   AR   Ar  214   4.935   3.298   1.933
    1   AR   Ar  215   6.346   1.670   2.246
    1   AR   Ar  216   6.474   2.552   1.507
    1   AR   Ar  217   4.607   1.997   3.809
    1   AR   Ar  218   5.325   2.454   4.335
    1   AR   Ar  219   6.123   1.674   4.016
    1   AR   Ar  220   5.879   2.569   3.055
    1   AR   Ar  221   5.404   1.690   5.107
    1   AR   Ar  222   4.559   2.167   6.244
    1   AR   Ar  223   6.339   1.896   6.298
    1   AR   Ar  224   6.504   2.677   5.473
    1   AR   Ar  225   5.448   4.060   0.139
    1   AR   Ar  226   4.993   4.334   1.959
    1   AR   Ar  227   6.868   3.468   1.171
    1   AR   Ar  228   5.945   5.178  -0.143
    1   AR   Ar  229   5.756   3.145   0.837
    1   AR   Ar  230   4.468   4.072   2.761
    1   AR   Ar  231   6.794   3.185   3.405
    1   AR   Ar  232   5.956   3.283   2.201
    1   AR   Ar  233   5.558   3.347   3.825
    1   AR   Ar  234   5.964   4.355   4.299
    1   AR   Ar  235   6.809   3.641   4.442
    1   AR   Ar  236   6.931   4.388   3.362
    1   AR   Ar  237   5.168   2.879   5.325
    1   AR   Ar  238   5.110   4.420   6.117
    1   AR   Ar  239   5.936   4.000   7.343
    1   AR   Ar  240   6.069   4.116   5.680
    1   AR   Ar  241   6.082   6.272  -0.161
    1   AR   Ar  242   5.391   6.109   1.464
    1   AR   Ar  243   6.121   4.437   2.038
    1   AR   Ar  244   6.133   6.647   0.965
    1   AR   Ar  245   5.545   5.241   2.303
    1   AR   Ar  246   5.697   6.539   2.906
    1   AR   Ar  247   6.063   4.064   3.036
    1   AR   Ar  248   6.256   6.533   2.009
    1   AR   Ar  249   6.213   5.710   3.091
    1   AR   Ar  250   5.097   6.107   4.516
    1   AR   Ar  251   6.330   5.335   4.345
    1   AR   Ar  252   6.192   6.423   3.895
    1   AR   Ar  253   5.438   4.906   4.934
    1   AR   Ar  254   5.078   5.922   6.389
    1   AR   Ar  255   5.845   5.120   5.836
    1   AR   Ar  256   5.921   5.952   5.210
    7.12000  7.12000 12.00000
Argon-slab step 430
  256
    1   AR   Ar    1   0.185   0.291  -0.064
    1   AR   Ar    2   0.025   0.475   0.912
    1   AR   Ar    3   0.480   6.319   0.809
    1   AR   Ar    4   1.110   0.410   0.760
    1   AR   Ar    5   0.034   6.983   1.757
    1   AR   Ar    6   7.119   0.409   3.113
    1   AR   Ar    7   0.741   6.818   2.640
    1   AR   Ar    8   1.041   7.026   1.620
    1   AR   Ar    9   0.159   7.101   4.186
    1   AR   Ar   10   6.986   1.003   4.469
    1   AR   Ar   11   1.361   0.273   4.250
    1   AR   Ar   12   0.858   0.804   3.468
    1   AR   Ar   13   6.996   0.232   5.450
    1   AR   Ar   14   0.190   1.269   5.887
    1   AR   Ar   15   2.167   7.077   7.963
    1   AR   Ar   16   0.947   0.711   5.042
    1   AR   Ar   17   6.766   1.303  -0.092
    1   AR   Ar   18   0.244   2.389   0.559
    1   AR   Ar   19   0.633   1.430   1.045
    1   AR   Ar   20   0.547   2.377  -0.747
    1   AR   Ar   21   0.197   0.987   1.873
    1   AR   Ar   22   6.894   2.559   2.598
    1   AR   Ar   23   0.077   1.506   2.840
    1   AR   Ar   24   0.387   2.271   1.742
    1   AR   Ar   25   0.238   1.871   4.004
    1   AR   Ar   26   6.458   2.609   4.317
    1   AR   Ar   27   0.293   1.822   4.991
    1   AR   Ar   28   1.228   2.570   4.232
    1   AR   Ar   29   6.440   1.715   5.074
    1   AR   Ar   30   0.177   2.446   6.125
    1   AR   Ar   31   0.788   0.905   7.282
    1   AR   Ar   32   1.043   2.477   5.449
    1   AR   Ar   33   0.573   3.499  -0.514
    1   AR   Ar   34   0.093   4.780   1.260
    1   AR   Ar   35   0.747   3.484   0.711
    1   AR   Ar   36   1.465   5.191  -0.812
    1   AR   Ar   37   7.077   3.706   2.491
    1   AR   Ar   38   0.282   4.819   2.522
    1   AR   Ar   39   1.206   3.869   2.712
    1   AR   Ar   40   1.141   4.277   1.810
    1   AR   Ar   41   0.603   2.704   3.221
    1   AR   Ar   42   7.037   4.573   4.919
    1   AR   Ar   43   0.292   2.927   4.931
    1   AR   Ar   44   0.695   3.509   3.933
    1   AR   Ar   45   0.083   3.557   5.882
    1   AR   Ar   46   7.014   4.617   6.659
    1   AR   Ar   47   1.026   3.530   6.581
    1   AR   Ar   48   0.763   4.339   5.880
    1   AR   Ar   49   7.079   4.141   0.115
    1   AR   Ar   50   6.221   5.676   0.816
    1   AR   Ar   51   1.361   4.339   0.831
    1   AR   Ar   52   1.032   5.538   0.173
    1   AR   Ar   53   6.907   5.815   2.095
    1   AR   Ar   54   7.004   6.497   3.199
    1   AR   Ar   55   0.709   5.690   2.976
    1   AR   Ar   56   0.744   5.574   1.479
    1   AR   Ar   57   0.893   4.656   4.303
    1   AR   Ar   58   0.184   6.100   4.138
    1   AR   Ar   59   1.204   6.010   4.746
    1   AR   Ar   60   1.038   6.443   3.678
    1   AR   Ar   61   7.068   6.291   5.829
    1   AR   Ar   62   0.882   5.785   5.956
    1   AR   Ar   63   1.833   5.471   5.722
    1   AR   Ar   64   0.874   6.819   5.208
    1   AR   Ar   65   1.251   6.547   0.017
    1   AR   Ar   66   1.793   0.906   1.353
    1   AR   Ar   67   2.387   6.145   0.337
    1   AR   Ar   68   2.931   1.166   0.883
    1   AR   Ar   69   2.304   0.010   0.864
    1   AR   Ar   70   1.413   0.769   2.355
    1   AR   Ar   71   2.100   6.991   1.989
    1   AR   Ar   72   2.930   0.507   1.760
    1   AR   Ar   73   1.560   0.066   3.129
    1   AR   Ar   74   1.524   1.387   4.475
    1   AR   Ar   75   2.411   0.389   4.044
    1   AR   Ar   76   1.814   1.082   3.497
    1   AR   Ar   77   1.937   0.076   5.112
    1   AR   Ar   78   1.957   0.677   6.015
    1   AR   Ar   79   2.680   7.095   6.455
    1   AR   Ar   80   2.655   1.045   5.104
    1   AR   Ar   81   1.939   1.244   0.157
    1   AR   Ar   82   1.880   3.520   1.055
    1   AR   Ar   83   2.787   2.049   1.493
    1   AR   Ar   84   1.950   2.766  -0.431
    1   AR   Ar   85   1.505   1.961   1.790
    1   AR   Ar   86   1.560   2.543   2.706
    1   AR   Ar   87   2.381   1.307   2.572
    1   AR   Ar   88   2.612   3.389   1.712
    1   AR   Ar   89   1.071   1.710   2.810
    1   AR   Ar   90   2.706   3.147   4.286
    1   AR   Ar   91   2.376   1.998   4.661
    1   AR   Ar   92   2.195   2.217   3.617
    1   AR   Ar   93   1.796   1.572   5.423
    1   AR   Ar   94   2.314   2.770   6.639
    1   AR   Ar   95   2.561   1.455   6.219
    1   AR   Ar   96   2.380   2.602   5.610
    1   AR   Ar   97   1.943   4.043  -0.070
    1   AR   Ar   98   2.103   4.554   1.764
    1   AR   Ar   99   3.015   3.206   0.383
    1   AR   Ar  100   2.687   4.744  -0.348
    1   AR   Ar  101   1.227   3.019   1.818
    1   AR   Ar  102   1.690   4.674   3.078
    1   AR   Ar  103   2.346   3.870   2.624
    1   AR   Ar  104   3.107   4.133   1.076
    1   AR   Ar  105   1.868   3.227   3.531
    1   AR   Ar  106   1.695   3.991   4.177
    1   AR   Ar  107   2.526   4.233   4.794
    1   AR   Ar  108   2.730   4.072   3.736
    1   AR   Ar  109   0.929   3.759   4.952
    1   AR   Ar  110   1.808   3.687   5.494
    1   AR   Ar  111   3.526   4.458   6.499
    1   AR   Ar  112   2.254   4.361   6.217
    1   AR   Ar  113   2.036   5.210   0.768
    1   AR   Ar  114   1.527   6.207   0.876
    1   AR   Ar  115   3.110   5.513   0.872
    1   AR   Ar  116   3.454   0.324  -0.128
    1   AR   Ar  117   1.444   5.292   2.180
    1   AR   Ar  118   1.692   6.187   2.830
    1   AR   Ar  119   2.527   5.092   2.575
    1   AR   Ar  120   2.151   5.953   1.773
    1   AR   Ar  121   1.450   5.481   3.673
    1   AR   Ar  122   2.218   6.359   4.343
    1   AR   Ar  123   2.356   5.199   4.165
    1   AR   Ar  124   2.571   6.629   3.393
    1   AR   Ar  125   1.593   4.602   5.089
    1   AR   Ar  126   1.286   7.018   6.161
    1   AR   Ar  127   2.629   5.136   6.975
    1   AR   Ar  128   2.341   6.360   5.748
    1   AR   Ar  129   3.429   0.138   0.879
    1   AR   Ar  130   4.304   0.693   0.329
    1   AR   Ar  131   4.725   6.799   1.239
    1   AR   Ar  132   3.717   1.441  -0.520
    1   AR   Ar  133   3.705   6.904   2.405
    1   AR   Ar  134   3.448   1.050   2.454
    1   AR   Ar  135   4.785   0.140   2.631
    1   AR   Ar  136   4.018   0.545   1.762
    1   AR   Ar  137   3.384   0.268   3.382
    1   AR   Ar  138   3.490   0.977   4.536
    1   AR   Ar  139   4.082   0.074   4.240
    1   AR   Ar  140   4.277   0.850   3.501
    1   AR   Ar  141   2.956   0.114   5.263
    1   AR   Ar  142   3.410   0.774   6.065
    1   AR   Ar  143   4.026   7.026   6.558
    1   AR   Ar  144   5.041   1.036   6.117
    1   AR   Ar  145   3.247   2.173   0.419
    1   AR   Ar  146   3.636   3.003   1.320
    1   AR   Ar  147   4.279   2.311   0.945
    1   AR   Ar  148   5.475   2.295  -0.508
    1   AR   Ar  149   3.732   1.699   1.693
    1   AR   Ar  150   2.992   2.220   2.693
    1   AR   Ar  151   4.175   1.687   2.906
    1   AR   Ar  152   3.949   2.455   2.317
    1   AR   Ar  153   3.263   1.859   3.662
    1   AR   Ar  154   3.708   2.683   4.287
    1   AR   Ar  155   4.402   2.193   4.749
    1   AR   Ar  156   4.615   3.461   4.224
    1   AR   Ar  157   3.576   1.713   5.137
    1   AR   Ar  158   3.417   2.227   6.231
    1   AR   Ar  159   4.097   1.019   6.750
    1   AR   Ar  160   4.105   2.914   5.450
    1   AR   Ar  161   4.039   2.851  -0.220
    1   AR   Ar  162   3.702   4.686   0.521
    1   AR   Ar  163   4.775   3.412   0.872
    1   AR   Ar  164   5.243   5.001   0.731
    1   AR   Ar  165   3.574   3.468   2.181
    1   AR   Ar  166   3.606   4.767   3.184
    1   AR   Ar  167   4.405   2.898   3.110
    1   AR   Ar  168   4.019   4.271   1.666
    1   AR   Ar  169   3.070   3.151   3.130
    1   AR   Ar  170   3.348   4.724   4.362
    1   AR   Ar  171   3.561   3.634   4.837
    1   AR   Ar  172   4.586   4.501   3.869
    1   AR   Ar  173   3.049   3.380   5.885
    1   AR   Ar  174   4.407   5.117   6.270
    1   AR   Ar  175   4.302   3.931   5.743
    1   AR   Ar  176   4.362   5.014   5.140
    1   AR   Ar  177   4.422   5.594  -0.104
    1   AR   Ar  178   3.694   6.182   1.593
    1   AR   Ar  179   4.409   5.297   1.400
    1   AR   Ar  180   4.263   6.718   0.137
    1   AR   Ar  181   3.511   5.208   2.020
    1   AR   Ar  182   2.960   6.167   2.453
    1   AR   Ar  183   4.438   5.113   2.491
    1   AR   Ar  184   4.554   6.255   2.363
    1   AR   Ar  185   3.115   5.657   3.347
    1   AR   Ar  186   3.304   6.153   4.197
    1   AR   Ar  187   4.854   5.542   3.625
    1   AR   Ar  188   4.066   6.575   3.297
    1   AR   Ar  189   3.261   5.468   5.259
    1   AR   Ar  190   3.281   6.379   7.013
    1   AR   Ar  191   4.754   5.892   5.383
    1   AR   Ar  192   4.083   6.725   5.168
    1   AR   Ar  193   5.269   0.110   0.507
    1   AR   Ar  194   4.604   1.197   1.251
    1   AR   Ar  195   6.085   0.988   0.542
    1   AR   Ar  196   5.134   1.234   0.220
    1   AR   Ar  197   5.554   0.070   1.668
    1   AR   Ar  198   5.446   0.983   2.159
    1   AR   Ar  199   6.307   0.429   2.444
    1   AR   Ar  200   6.694   1.437   1.156
    1   AR   Ar  201   5.024   6.605   3.588
    1   AR   Ar  202   5.000   0.987   4.178
    1   AR   Ar  203   6.611   6.619   4.810
    1   AR   Ar  204   6.034   0.282   3.486
    1   AR   Ar  205   5.324   7.116   4.653
    1   AR   Ar  206   5.041   7.075   5.985
    1   AR   Ar  207   6.056   6.925   5.773
    1   AR   Ar  208   6.171   0.468   4.966
    1   AR   Ar  209   6.660   2.191  -0.683
    1   AR   Ar  210   5.324   2.216   1.277
    1   AR   Ar  211   6.323   2.105   0.485
    1   AR   Ar  212   6.519   3.147   0.076
    1   AR   Ar  213   5.043   2.191   2.344
    1   AR   Ar  214   4.920   3.301   1.935
    1   AR   Ar  215   6.370   1.670   2.245
    1   AR   Ar  216   6.493   2.533   1.524
    1   AR   Ar  217   4.602   2.042   3.795
    1   AR   Ar  218   5.321   2.457   4.341
    1   AR   Ar  219   6.146   1.646   4.043
    1   AR   Ar  220   5.929   2.612   3.055
    1   AR   Ar  221   5.389   1.664   5.133
    1   AR   Ar  222   4.563   2.164   6.239
    1   AR   Ar  223   6.347   1.890   6.318
    1   AR   Ar  224   6.498   2.687   5.483
    1   AR   Ar  225   5.450   4.059   0.130
    1   AR   Ar  226   5.001   4.329   1.970
    1   AR   Ar  227   6.883   3.457   1.202
    1   AR   Ar  228   5.928   5.194  -0.174
    1   AR   Ar  229   5.744   3.161   0.821
    1   AR   Ar  230   4.437   4.074   2.763
    1   AR   Ar  231   6.781   3.184   3.430
    1   AR   Ar  232   5.925   3.319   2.213
    1   AR   Ar  233   5.553   3.335   3.835
    1   AR   Ar  234   5.945   4.338   4.262
    1   AR   Ar  235   6.849   3.639   4.449
    1   AR   Ar  236   6.924   4.421   3.350
    1   AR   Ar  237   5.197   2.884   5.334
    1   AR   Ar  238   5.094   4.410   6.115
    1   AR   Ar  239   5.897   3.984   7.360
    1   AR   Ar  240   6.048   4.120   5.719
    1   AR   Ar  241   6.113   6.316  -0.181
    1   AR   Ar  242   5.429   6.105   1.437
    1   AR   Ar  243   6.090   4.440   2.027
    1   AR   Ar  244   6.114   6.664   0.993
    1   AR   Ar  245   5.563   5.268   2.283
    1   AR   Ar  246   5.683   6.543   2.889
    1   AR   Ar  247   6.033   4.055   3.045
    1   AR   Ar  248   6.256   6.535   1.983
    1   AR   Ar  249   6.258   5.688   3.114
    1   AR   Ar  250   5.142   6.082   4.497
    1   AR   Ar  251   6.334   5.318   4.330
    1   AR   Ar  252   6.196   6.421   3.903
    1   AR   Ar  253   5.415   4.919   4.945
    1   AR   Ar  254   5.074   5.917   6.417
    1   AR   Ar  255   5.853   5.106   5.861
    1   AR   Ar  256   5.931   5.968   5.215
    7.12000  7.12000 12.00000
Argon-slab step 435
  256
    1   AR   Ar    1   0.177   0.309  -0.080
    1   AR   Ar    2   0.010   0.490   0.882
    1   AR   Ar    3   0.503   6.320   0.780
    1   AR   Ar    4   1.095   0.410   0.765
    1   AR   Ar    5   0.039   6.972   1.736
    1   AR   Ar    6   0.029   0.443   3.101
    1   AR   Ar    7   0.739   6.847   2.593
    1   AR   Ar    8   1.021   6.989   1.637
    1   AR   Ar    9   0.167   7.101   4.202
    1   AR   Ar   10   6.989   1.001   4.472
    1   AR   Ar   11   1.334   0.275   4.245
    1   AR   Ar   12   0.857   0.839   3.491
    1   AR   Ar   13   7.008   0.245   5.422
    1   AR   Ar   14   0.190   1.255   5.886
    1   AR   Ar   15   2.143   7.113   7.961
    1   AR   Ar   16   0.954   0.734   5.071
    1   AR   Ar   17   6.750   1.306  -0.123
    1   AR   Ar   18   0.257   2.395   0.581
    1   AR   Ar   19   0.654   1.450   1.029
    1   AR   Ar   20   0.537   2.339  -0.744
    1   AR   Ar   21   0.202   1.014   1.869
    1   AR   Ar   22   6.898   2.548   2.583
    1   AR   Ar   23   0.064   1.492   2.855
    1   AR   Ar   24   0.385   2.240   1.792
    1   AR   Ar   25   0.218   1.853   4.001
    1   AR   Ar   26   6.413   2.594   4.331
    1   AR   Ar   27   0.323   1.808   4.977
    1   AR   Ar   28   1.229   2.564   4.192
    1   AR   Ar   29   6.428   1.706   5.129
    1   AR   Ar   30   0.182   2.418   6.095
    1   AR   Ar   31   0.769   0.879   7.281
    1   AR   Ar   32   1.034   2.445   5.445
    1   AR   Ar   33   0.557   3.495  -0.527
    1   AR   Ar   34   0.100   4.794   1.242
    1   AR   Ar   35   0.715   3.452   0.711
    1   AR   Ar   36   1.485   5.217  -0.827
    1   AR   Ar   37   7.065   3.701   2.503
    1   AR   Ar   38   0.275   4.803   2.515
    1   AR   Ar   39   1.202   3.849   2.680
    1   AR   Ar   40   1.131   4.258   1.811
    1   AR   Ar   41   0.612   2.703   3.198
    1   AR   Ar   42   7.000   4.606   4.916
    1   AR   Ar   43   0.295   2.903   4.944
    1   AR   Ar   44   0.666   3.514   3.925
    1   AR   Ar   45   0.064   3.546   5.869
    1   AR   Ar   46   7.014   4.581   6.667
    1   AR   Ar   47   1.020   3.575   6.609
    1   AR   Ar   48   0.789   4.341   5.903
    1   AR   Ar   49   7.091   4.130   0.135
    1   AR   Ar   50   6.187   5.664   0.823
    1   AR   Ar   51   1.356   4.337   0.820
    1   AR   Ar   52   1.060   5.544   0.169
    1   AR   Ar   53   6.877   5.826   2.074
    1   AR   Ar   54   7.037   6.501   3.198
    1   AR   Ar   55   0.683   5.663   2.970
    1   AR   Ar   56   0.768   5.599   1.450
    1   AR   Ar   57   0.887   4.684   4.305
    1   AR   Ar   58   0.183   6.093   4.161
    1   AR   Ar   59   1.204   6.015   4.732
    1   AR   Ar   60   1.056   6.472   3.675
    1   AR   Ar   61   7.079   6.250   5.833
    1   AR   Ar   62   0.860   5.767   5.927
    1   AR   Ar   63   1.842   5.480   5.704
    1   AR   Ar   64   0.886   6.824   5.225
    1   AR   Ar   65   1.269   6.544   0.007
    1   AR   Ar   66   1.800   0.887   1.324
    1   AR   Ar   67   2.360   6.157   0.329
    1   AR   Ar   68   2.948   1.174   0.871
    1   AR   Ar   69   2.296   7.090   0.860
    1   AR   Ar   70   1.379   0.782   2.354
    1   AR   Ar   71   2.081   6.990   1.981
    1   AR   Ar   72   2.950   0.535   1.732
    1   AR   Ar   73   1.522   0.072   3.166
    1   AR   Ar   74   1.498   1.414   4.479
    1   AR   Ar   75   2.423   0.423   4.033
    1   AR   Ar   76   1.809   1.082   3.502
    1   AR   Ar   77   1.923   0.069   5.115
    1   AR   Ar   78   1.906   0.689   6.027
    1   AR   Ar   79   2.702   7.102   6.474
    1   AR   Ar   80   2.654   1.065   5.150
    1   AR   Ar   81   1.942   1.255   0.132
    1   AR   Ar   82   1.854   3.575   1.067
    1   AR   Ar   83   2.788   2.010   1.479
    1   AR   Ar   84   1.968   2.772  -0.405
    1   AR   Ar   85   1.499   1.917   1.808
    1   AR   Ar   86   1.583   2.559   2.732
    1   AR   Ar   87   2.377   1.346   2.549
    1   AR   Ar   88   2.621   3.394   1.733
    1   AR   Ar   89   1.059   1.710   2.825
    1   AR   Ar   90   2.726   3.122   4.296
    1   AR   Ar   91   2.374   1.988   4.659
    1   AR   Ar   92   2.158   2.202   3.634
    1   AR   Ar   93   1.799   1.561   5.439
    1   AR   Ar   94   2.347   2.745   6.681
    1   AR   Ar   95   2.542   1.413   6.195
    1   AR   Ar   96   2.379   2.609   5.619
    1   AR   Ar   97   1.933   4.074  -0.081
    1   AR   Ar   98   2.116   4.567   1.766
    1   AR   Ar   99   3.014   3.232   0.358
    1   AR   Ar  100   2.659   4.772  -0.350
    1   AR   Ar  101   1.232   3.026   1.825
    1   AR   Ar  102   1.666   4.701   3.063
    1   AR   Ar  103   2.328   3.854   2.625
    1   AR   Ar  104   3.103   4.153   1.073
    1   AR   Ar  105   1.900   3.239   3.523
    1   AR   Ar  106   1.685   3.991   4.194
    1   AR   Ar  107   2.511   4.249   4.806
    1   AR   Ar  108   2.736   4.074   3.736
    1   AR   Ar  109   0.896   3.764   4.977
    1   AR   Ar  110   1.791   3.706   5.474
    1   AR   Ar  111   3.502   4.477   6.495
    1   AR   Ar  112   2.270   4.364   6.256
    1   AR   Ar  113   2.043   5.209   0.760
    1   AR   Ar  114   1.569   6.195   0.867
    1   AR   Ar  115   3.079   5.496   0.881
    1   AR   Ar  116   3.416   0.326  -0.132
    1   AR   Ar  117   1.429   5.270   2.197
    1   AR   Ar  118   1.698   6.196   2.839
    1   AR   Ar  119   2.543   5.099   2.585
    1   AR   Ar  120   2.134   5.944   1.774
    1   AR   Ar  121   1.426   5.492   3.663
    1   AR   Ar  122   2.227   6.367   4.309
    1   AR   Ar  123   2.367   5.228   4.186
    1   AR   Ar  124   2.585   6.601   3.378
    1   AR   Ar  125   1.573   4.587   5.095
    1   AR   Ar  126   1.258   6.996   6.172
    1   AR   Ar  127   2.642   5.143   7.017
    1   AR   Ar  128   2.368   6.353   5.771
    1   AR   Ar  129   3.418   0.180   0.894
    1   AR   Ar  130   4.345   0.664   0.339
    1   AR   Ar  131   4.721   6.802   1.271
    1   AR   Ar  132   3.717   1.442  -0.498
    1   AR   Ar  133   3.724   6.891   2.410
    1   AR   Ar  134   3.455   1.060   2.439
    1   AR   Ar  135   4.787   0.123   2.597
    1   AR   Ar  136   4.001   0.561   1.764
    1   AR   Ar  137   3.431   0.271   3.361
    1   AR   Ar  138   3.483   0.967   4.540
    1   AR   Ar  139   4.108   0.078   4.205
    1   AR   Ar  140   4.277   0.856   3.518
    1   AR   Ar  141   2.959   0.110   5.235
    1   AR   Ar  142   3.410   0.775   6.082
    1   AR   Ar  143   4.011   7.000   6.518
    1   AR   Ar  144   5.017   1.066   6.125
    1   AR   Ar  145   3.281   2.175   0.396
    1   AR   Ar  146   3.655   3.004   1.316
    1   AR   Ar  147   4.280   2.319   0.959
    1   AR   Ar  148   5.462   2.314  -0.523
    1   AR   Ar  149   3.744   1.713   1.662
    1   AR   Ar  150   2.966   2.214   2.685
    1   AR   Ar  151   4.221   1.647   2.925
    1   AR   Ar  152   3.963   2.449   2.316
    1   AR   Ar  153   3.204   1.867   3.668
    1   AR   Ar  154   3.706   2.683   4.272
    1   AR   Ar  155   4.431   2.196   4.745
    1   AR   Ar  156   4.620   3.463   4.237
    1   AR   Ar  157   3.580   1.752   5.137
    1   AR   Ar  158   3.385   2.234   6.243
    1   AR   Ar  159   4.087   1.004   6.774
    1   AR   Ar  160   4.159   2.909   5.467
    1   AR   Ar  161   4.040   2.831  -0.262
    1   AR   Ar  162   3.721   4.718   0.521
    1   AR   Ar  163   4.756   3.380   0.867
    1   AR   Ar  164   5.222   5.004   0.743
    1   AR   Ar  165   3.578   3.475   2.211
    1   AR   Ar  166   3.655   4.750   3.193
    1   AR   Ar  167   4.391   2.914   3.118
    1   AR   Ar  168   4.024   4.249   1.656
    1   AR   Ar  169   3.092   3.139   3.132
    1   AR   Ar  170   3.336   4.725   4.371
    1   AR   Ar  171   3.595   3.603   4.859
    1   AR   Ar  172   4.574   4.514   3.884
    1   AR   Ar  173   3.067   3.356   5.887
    1   AR   Ar  174   4.424   5.156   6.261
    1   AR   Ar  175   4.338   3.916   5.725
    1   AR   Ar  176   4.355   5.017   5.124
    1   AR   Ar  177   4.434   5.595  -0.093
    1   AR   Ar  178   3.686   6.155   1.613
    1   AR   Ar  179   4.418   5.295   1.417
    1   AR   Ar  180   4.263   6.708   0.128
    1   AR   Ar  181   3.495   5.206   2.016
    1   AR   Ar  182   2.957   6.197   2.431
    1   AR   Ar  183   4.415   5.093   2.461
    1   AR   Ar  184   4.545   6.257   2.365
    1   AR   Ar  185   3.087   5.666   3.355
    1   AR   Ar  186   3.315   6.160   4.202
    1   AR   Ar  187   4.876   5.582   3.598
    1   AR   Ar  188   4.047   6.559   3.320
    1   AR   Ar  189   3.243   5.451   5.264
    1   AR   Ar  190   3.296   6.404   6.990
    1   AR   Ar  191   4.787   5.878   5.400
    1   AR   Ar  192   4.126   6.718   5.159
    1   AR   Ar  193   5.291   0.126   0.506
    1   AR   Ar  194   4.591   1.214   1.262
    1   AR   Ar  195   6.064   1.004   0.535
    1   AR   Ar  196   5.136   1.222   0.188
    1   AR   Ar  197   5.528   0.079   1.683
    1   AR   Ar  198   5.459   0.988   2.116
    1   AR   Ar  199   6.261   0.429   2.428
    1   AR   Ar  200   6.685   1.438   1.181
    1   AR   Ar  201   4.995   6.576   3.609
    1   AR   Ar  202   5.013   0.993   4.188
    1   AR   Ar  203   6.610   6.584   4.814
    1   AR   Ar  204   6.037   0.305   3.481
    1   AR   Ar  205   5.303   7.115   4.629
    1   AR   Ar  206   5.039   7.054   5.970
    1   AR   Ar  207   6.082   6.948   5.762
    1   AR   Ar  208   6.161   0.417   4.988
    1   AR   Ar  209   6.682   2.193  -0.653
    1   AR   Ar  210   5.324   2.223   1.288
    1   AR   Ar  211   6.306   2.110   0.472
    1   AR   Ar  212   6.541   3.137   0.048
    1   AR   Ar  213   5.049   2.228   2.357
    1   AR   Ar  214   4.898   3.297   1.938
    1   AR   Ar  215   6.390   1.670   2.241
    1   AR   Ar  216   6.507   2.512   1.541
    1   AR   Ar  217   4.592   2.081   3.768
    1   AR   Ar  218   5.328   2.460   4.349
    1   AR   Ar  219   6.168   1.615   4.067
    1   AR   Ar  220   5.976   2.653   3.057
    1   AR   Ar  221   5.371   1.638   5.158
    1   AR   Ar  222   4.568   2.160   6.233
    1   AR   Ar  223   6.356   1.885   6.336
    1   AR   Ar  224   6.489   2.700   5.491
    1   AR   Ar  225   5.457   4.034   0.113
    1   AR   Ar  226   5.019   4.331   1.974
    1   AR   Ar  227   6.898   3.449   1.233
    1   AR   Ar  228   5.910   5.209  -0.204
    1   AR   Ar  229   5.740   3.173   0.806
    1   AR   Ar  230   4.424   4.079   2.750
    1   AR   Ar  231   6.767   3.187   3.459
    1   AR   Ar  232   5.899   3.354   2.224
    1   AR   Ar  233   5.557   3.326   3.839
    1   AR   Ar  234   5.929   4.316   4.220
    1   AR   Ar  235   6.885   3.640   4.453
    1   AR   Ar  236   6.922   4.454   3.345
    1   AR   Ar  237   5.227   2.888   5.344
    1   AR   Ar  238   5.089   4.399   6.116
    1   AR   Ar  239   5.857   3.969   7.376
    1   AR   Ar  240   6.030   4.117   5.755
    1   AR   Ar  241   6.144   6.361  -0.198
    1   AR   Ar  242   5.460   6.086   1.416
    1   AR   Ar  243   6.066   4.436   2.013
    1   AR   Ar  244   6.105   6.695   1.005
    1   AR   Ar  245   5.578   5.302   2.263
    1   AR   Ar  246   5.677   6.538   2.866
    1   AR   Ar  247   6.015   4.041   3.037
    1   AR   Ar  248   6.249   6.540   1.966
    1   AR   Ar  249   6.306   5.662   3.137
    1   AR   Ar  250   5.192   6.056   4.469
    1   AR   Ar  251   6.340   5.306   4.315
    1   AR   Ar  252   6.198   6.411   3.906
    1   AR   Ar  253   5.390   4.935   4.954
    1   AR   Ar  254   5.072   5.916   6.443
    1   AR   Ar  255   5.863   5.101   5.891
    1   AR   Ar  256   5.938   5.980   5.222
    7.12000  7.12000 12.00000
Argon-slab step 440
  256
    1   AR   Ar    1   0.176   0.338  -0.105
    1   AR   Ar    2   7.113   0.488   0.872
    1   AR   Ar    3   0.521   6.328   0.748
    1   AR   Ar    4   1.077   0.409   0.762
    1   AR   Ar    5   0.008   6.958   1.699
    1   AR   Ar    6   0.051   0.472   3.087
    1   AR   Ar    7   0.732   6.873   2.551
    1   AR   Ar    8   1.015   6.951   1.648
    1   AR   Ar    9   0.178   7.110   4.215
    1   AR   Ar   10   6.991   0.992   4.478
    1   AR   Ar   11   1.310   0.273   4.236
    1   AR   Ar   12   0.848   0.879   3.516
    1   AR   Ar   13   7.039   0.258   5.401
    1   AR   Ar   14   0.188   1.240   5.884
    1   AR   Ar   15   2.171   0.018   7.968
    1   AR   Ar   16   0.974   0.783   5.088
    1   AR   Ar   17   6.743   1.308  -0.156
    1   AR   Ar   18   0.246   2.385   0.562
    1   AR   Ar   19   0.679   1.470   1.011
    1   AR   Ar   20   0.538   2.304  -0.741
    1   AR   Ar   21   0.210   1.037   1.873
    1   AR   Ar   22   6.902   2.539   2.567
    1   AR   Ar   23   0.084   1.463   2.884
    1   AR   Ar   24   0.389   2.203   1.848
    1   AR   Ar   25   0.199   1.840   3.982
    1   AR   Ar   26   6.370   2.583   4.346
    1   AR   Ar   27   0.361   1.795   4.974
    1   AR   Ar   28   1.228   2.558   4.154
    1   AR   Ar   29   6.413   1.695   5.185
    1   AR   Ar   30   0.189   2.388   6.066
    1   AR   Ar   31   0.750   0.853   7.280
    1   AR   Ar   32   1.036   2.411   5.444
    1   AR   Ar   33   0.541   3.490  -0.539
    1   AR   Ar   34   0.105   4.806   1.223
    1   AR   Ar   35   0.685   3.419   0.710
    1   AR   Ar   36   1.506   5.242  -0.840
    1   AR   Ar   37   7.053   3.695   2.515
    1   AR   Ar   38   0.271   4.787   2.499
    1   AR   Ar   39   1.198   3.817   2.664
    1   AR   Ar   40   1.113   4.245   1.804
    1   AR   Ar   41   0.626   2.702   3.157
    1   AR   Ar   42   6.964   4.639   4.913
    1   AR   Ar   43   0.293   2.877   4.954
    1   AR   Ar   44   0.641   3.520   3.916
    1   AR   Ar   45   0.043   3.534   5.844
    1   AR   Ar   46   7.019   4.570   6.669
    1   AR   Ar   47   1.014   3.618   6.637
    1   AR   Ar   48   0.817   4.347   5.924
    1   AR   Ar   49   7.103   4.120   0.159
    1   AR   Ar   50   6.157   5.645   0.827
    1   AR   Ar   51   1.369   4.336   0.842
    1   AR   Ar   52   1.087   5.543   0.168
    1   AR   Ar   53   6.861   5.822   2.056
    1   AR   Ar   54   7.069   6.505   3.196
    1   AR   Ar   55   0.653   5.641   2.963
    1   AR   Ar   56   0.793   5.623   1.424
    1   AR   Ar   57   0.877   4.714   4.305
    1   AR   Ar   58   0.183   6.076   4.185
    1   AR   Ar   59   1.211   6.014   4.708
    1   AR   Ar   60   1.068   6.499   3.678
    1   AR   Ar   61   7.084   6.214   5.834
    1   AR   Ar   62   0.841   5.749   5.897
    1   AR   Ar   63   1.852   5.482   5.684
    1   AR   Ar   64   0.890   6.831   5.240
    1   AR   Ar   65   1.285   6.552  -0.015
    1   AR   Ar   66   1.813   0.871   1.299
    1   AR   Ar   67   2.349   6.167   0.308
    1   AR   Ar   68   2.966   1.180   0.854
    1   AR   Ar   69   2.287   7.052   0.858
    1   AR   Ar   70   1.345   0.795   2.352
    1   AR   Ar   71   2.061   6.992   1.974
    1   AR   Ar   72   2.960   0.561   1.707
    1   AR   Ar   73   1.495   0.087   3.202
    1   AR   Ar   74   1.469   1.441   4.475
    1   AR   Ar   75   2.438   0.453   4.025
    1   AR   Ar   76   1.814   1.088   3.503
    1   AR   Ar   77   1.906   0.062   5.117
    1   AR   Ar   78   1.879   0.667   6.028
    1   AR   Ar   79   2.723   7.114   6.491
    1   AR   Ar   80   2.651   1.088   5.196
    1   AR   Ar   81   1.946   1.265   0.110
    1   AR   Ar   82   1.840   3.611   1.084
    1   AR   Ar   83   2.782   1.976   1.467
    1   AR   Ar   84   1.986   2.778  -0.379
    1   AR   Ar   85   1.493   1.871   1.826
    1   AR   Ar   86   1.612   2.582   2.757
    1   AR   Ar   87   2.370   1.382   2.525
    1   AR   Ar   88   2.632   3.397   1.753
    1   AR   Ar   89   1.048   1.704   2.841
    1   AR   Ar   90   2.744   3.096   4.307
    1   AR   Ar   91   2.378   1.982   4.656
    1   AR   Ar   92   2.121   2.185   3.649
    1   AR   Ar   93   1.798   1.576   5.455
    1   AR   Ar   94   2.381   2.721   6.724
    1   AR   Ar   95   2.533   1.384   6.175
    1   AR   Ar   96   2.376   2.611   5.624
    1   AR   Ar   97   1.921   4.102  -0.091
    1   AR   Ar   98   2.134   4.579   1.764
    1   AR   Ar   99   3.013   3.260   0.333
    1   AR   Ar  100   2.633   4.804  -0.350
    1   AR   Ar  101   1.236   3.036   1.831
    1   AR   Ar  102   1.685   4.723   3.048
    1   AR   Ar  103   2.308   3.840   2.630
    1   AR   Ar  104   3.108   4.176   1.069
    1   AR   Ar  105   1.933   3.250   3.512
    1   AR   Ar  106   1.675   3.992   4.212
    1   AR   Ar  107   2.499   4.261   4.820
    1   AR   Ar  108   2.741   4.077   3.732
    1   AR   Ar  109   0.858   3.770   4.999
    1   AR   Ar  110   1.782   3.711   5.461
    1   AR   Ar  111   3.477   4.497   6.489
    1   AR   Ar  112   2.286   4.367   6.294
    1   AR   Ar  113   2.049   5.204   0.754
    1   AR   Ar  114   1.600   6.181   0.885
    1   AR   Ar  115   3.048   5.479   0.893
    1   AR   Ar  116   3.376   0.329  -0.140
    1   AR   Ar  117   1.414   5.251   2.216
    1   AR   Ar  118   1.706   6.203   2.845
    1   AR   Ar  119   2.560   5.107   2.596
    1   AR   Ar  120   2.118   5.933   1.772
    1   AR   Ar  121   1.405   5.505   3.660
    1   AR   Ar  122   2.232   6.374   4.281
    1   AR   Ar  123   2.382   5.263   4.211
    1   AR   Ar  124   2.600   6.579   3.358
    1   AR   Ar  125   1.574   4.594   5.102
    1   AR   Ar  126   1.231   6.972   6.186
    1   AR   Ar  127   2.656   5.150   7.058
    1   AR   Ar  128   2.396   6.351   5.793
    1   AR   Ar  129   3.411   0.218   0.908
    1   AR   Ar  130   4.374   0.629   0.352
    1   AR   Ar  131   4.700   6.803   1.300
    1   AR   Ar  132   3.726   1.448  -0.475
    1   AR   Ar  133   3.740   6.886   2.412
    1   AR   Ar  134   3.460   1.076   2.437
    1   AR   Ar  135   4.791   0.110   2.564
    1   AR   Ar  136   3.990   0.569   1.762
    1   AR   Ar  137   3.470   0.276   3.340
    1   AR   Ar  138   3.479   0.947   4.533
    1   AR   Ar  139   4.136   0.079   4.171
    1   AR   Ar  140   4.275   0.858   3.534
    1   AR   Ar  141   2.968   0.099   5.209
    1   AR   Ar  142   3.404   0.774   6.089
    1   AR   Ar  143   3.999   6.976   6.475
    1   AR   Ar  144   4.993   1.098   6.132
    1   AR   Ar  145   3.316   2.175   0.375
    1   AR   Ar  146   3.667   3.007   1.309
    1   AR   Ar  147   4.289   2.325   0.963
    1   AR   Ar  148   5.451   2.333  -0.537
    1   AR   Ar  149   3.756   1.717   1.632
    1   AR   Ar  150   2.940   2.206   2.673
    1   AR   Ar  151   4.250   1.640   2.927
    1   AR   Ar  152   3.976   2.449   2.310
    1   AR   Ar  153   3.147   1.873   3.675
    1   AR   Ar  154   3.695   2.678   4.270
    1   AR   Ar  155   4.471   2.207   4.744
    1   AR   Ar  156   4.618   3.463   4.254
    1   AR   Ar  157   3.581   1.799   5.147
    1   AR   Ar  158   3.352   2.241   6.253
    1   AR   Ar  159   4.109   1.017   6.793
    1   AR   Ar  160   4.209   2.901   5.486
    1   AR   Ar  161   4.039   2.811  -0.302
    1   AR   Ar  162   3.748   4.753   0.517
    1   AR   Ar  163   4.728   3.348   0.862
    1   AR   Ar  164   5.203   5.006   0.755
    1   AR   Ar  165   3.582   3.493   2.271
    1   AR   Ar  166   3.703   4.731   3.203
    1   AR   Ar  167   4.378   2.935   3.129
    1   AR   Ar  168   4.025   4.252   1.643
    1   AR   Ar  169   3.096   3.142   3.126
    1   AR   Ar  170   3.329   4.727   4.380
    1   AR   Ar  171   3.623   3.578   4.878
    1   AR   Ar  172   4.562   4.527   3.899
    1   AR   Ar  173   3.088   3.335   5.890
    1   AR   Ar  174   4.433   5.194   6.250
    1   AR   Ar  175   4.352   3.910   5.709
    1   AR   Ar  176   4.317   4.985   5.146
    1   AR   Ar  177   4.447   5.596  -0.079
    1   AR   Ar  178   3.680   6.132   1.630
    1   AR   Ar  179   4.425   5.288   1.429
    1   AR   Ar  180   4.263   6.697   0.121
    1   AR   Ar  181   3.473   5.202   2.011
    1   AR   Ar  182   2.950   6.225   2.408
    1   AR   Ar  183   4.397   5.076   2.435
    1   AR   Ar  184   4.543   6.255   2.375
    1   AR   Ar  185   3.058   5.669   3.359
    1   AR   Ar  186   3.329   6.171   4.214
    1   AR   Ar  187   4.892   5.601   3.576
    1   AR   Ar  188   4.021   6.535   3.344
    1   AR   Ar  189   3.224   5.433   5.267
    1   AR   Ar  190   3.307   6.417   7.024
    1   AR   Ar  191   4.823   5.870   5.424
    1   AR   Ar  192   4.168   6.712   5.151
    1   AR   Ar  193   5.315   0.144   0.504
    1   AR   Ar  194   4.585   1.235   1.269
    1   AR   Ar  195   6.037   1.011   0.532
    1   AR   Ar  196   5.142   1.220   0.153
    1   AR   Ar  197   5.502   0.092   1.700
    1   AR   Ar  198   5.467   1.004   2.074
    1   AR   Ar  199   6.266   0.435   2.401
    1   AR   Ar  200   6.680   1.446   1.211
    1   AR   Ar  201   4.970   6.563   3.636
    1   AR   Ar  202   5.026   1.006   4.226
    1   AR   Ar  203   6.615   6.552   4.822
    1   AR   Ar  204   6.041   0.328   3.478
    1   AR   Ar  205   5.276   7.111   4.603
    1   AR   Ar  206   5.035   7.032   5.955
    1   AR   Ar  207   6.108   6.962   5.761
    1   AR   Ar  208   6.157   0.448   4.982
    1   AR   Ar  209   6.691   2.198  -0.621
    1   AR   Ar  210   5.325   2.230   1.299
    1   AR   Ar  211   6.287   2.119   0.458
    1   AR   Ar  212   6.564   3.125   0.022
    1   AR   Ar  213   5.055   2.266   2.371
    1   AR   Ar  214   4.871   3.289   1.942
    1   AR   Ar  215   6.404   1.668   2.232
    1   AR   Ar  216   6.518   2.490   1.556
    1   AR   Ar  217   4.581   2.117   3.733
    1   AR   Ar  218   5.344   2.462   4.359
    1   AR   Ar  219   6.187   1.581   4.090
    1   AR   Ar  220   6.015   2.691   3.059
    1   AR   Ar  221   5.350   1.613   5.183
    1   AR   Ar  222   4.571   2.155   6.224
    1   AR   Ar  223   6.354   1.860   6.358
    1   AR   Ar  224   6.476   2.716   5.498
    1   AR   Ar  225   5.450   4.018   0.111
    1   AR   Ar  226   5.043   4.339   1.973
    1   AR   Ar  227   6.912   3.442   1.263
    1   AR   Ar  228   5.892   5.224  -0.232
    1   AR   Ar  229   5.745   3.182   0.793
    1   AR   Ar  230   4.406   4.077   2.744
    1   AR   Ar  231   6.755   3.196   3.490
    1   AR   Ar  232   5.878   3.387   2.232
    1   AR   Ar  233   5.568   3.321   3.839
    1   AR   Ar  234   5.914   4.291   4.177
    1   AR   Ar  235   6.915   3.643   4.456
    1   AR   Ar  236   6.920   4.486   3.349
    1   AR   Ar  237   5.258   2.892   5.354
    1   AR   Ar  238   5.095   4.390   6.122
    1   AR   Ar  239   5.818   3.953   7.391
    1   AR   Ar  240   6.019   4.105   5.787
    1   AR   Ar  241   6.175   6.405  -0.213
    1   AR   Ar  242   5.479   6.057   1.406
    1   AR   Ar  243   6.047   4.430   2.010
    1   AR   Ar  244   6.109   6.737   0.997
    1   AR   Ar  245   5.588   5.342   2.246
    1   AR   Ar  246   5.677   6.532   2.843
    1   AR   Ar  247   5.993   4.026   3.031
    1   AR   Ar  248   6.235   6.551   1.962
    1   AR   Ar  249   6.319   5.655   3.155
    1   AR   Ar  250   5.246   6.028   4.443
    1   AR   Ar  251   6.345   5.297   4.300
    1   AR   Ar  252   6.206   6.372   3.892
    1   AR   Ar  253   5.366   4.952   4.961
    1   AR   Ar  254   5.077   5.920   6.471
    1   AR   Ar  255   5.873   5.107   5.924
    1   AR   Ar  256   5.938   5.986   5.234
    7.12000  7.12000 12.00000
Argon-slab step 445
  256
    1   AR   Ar    1   0.187   0.385  -0.139
    1   AR   Ar    2   7.092   0.485   0.872
    1   AR   Ar    3   0.536   6.343   0.713
    1   AR   Ar    4   1.056   0.405   0.753
    1   AR   Ar    5   7.094   6.944   1.664
    1   AR   Ar    6   0.064   0.490   3.070
    1   AR   Ar    7   0.719   6.896   2.530
    1   AR   Ar    8   1.024   6.913   1.638
    1   AR   Ar    9   0.192   0.004   4.227
    1   AR   Ar   10   6.993   0.978   4.485
    1   AR   Ar   11   1.288   0.269   4.229
    1   AR   Ar   12   0.833   0.923   3.547
    1   AR   Ar   13   7.082   0.270   5.382
    1   AR   Ar   14   0.187   1.226   5.883
    1   AR   Ar   15   2.199   0.042   7.975
    1   AR   Ar   16   0.990   0.831   5.111
    1   AR   Ar   17   6.740   1.304  -0.187
    1   AR   Ar   18   0.227   2.373   0.532
    1   AR   Ar   19   0.704   1.489   0.993
    1   AR   Ar   20   0.551   2.271  -0.737
    1   AR   Ar   21   0.222   1.054   1.884
    1   AR   Ar   22   6.904   2.535   2.556
    1   AR   Ar   23   0.098   1.441   2.914
    1   AR   Ar   24   0.394   2.225   1.860
    1   AR   Ar   25   0.181   1.833   3.952
    1   AR   Ar   26   6.335   2.575   4.363
    1   AR   Ar   27   0.400   1.780   4.976
    1   AR   Ar   28   1.226   2.552   4.116
    1   AR   Ar   29   6.401   1.682   5.241
    1   AR   Ar   30   0.195   2.358   6.038
    1   AR   Ar   31   0.732   0.826   7.277
    1   AR   Ar   32   1.051   2.377   5.447
    1   AR   Ar   33   0.525   3.482  -0.550
    1   AR   Ar   34   0.111   4.816   1.206
    1   AR   Ar   35   0.658   3.386   0.708
    1   AR   Ar   36   1.527   5.268  -0.852
    1   AR   Ar   37   7.041   3.689   2.527
    1   AR   Ar   38   0.271   4.770   2.475
    1   AR   Ar   39   1.193   3.775   2.664
    1   AR   Ar   40   1.088   4.237   1.790
    1   AR   Ar   41   0.641   2.701   3.118
    1   AR   Ar   42   6.946   4.641   4.913
    1   AR   Ar   43   0.285   2.850   4.960
    1   AR   Ar   44   0.623   3.525   3.902
    1   AR   Ar   45   0.022   3.522   5.818
    1   AR   Ar   46   7.028   4.575   6.666
    1   AR   Ar   47   1.008   3.658   6.666
    1   AR   Ar   48   0.844   4.357   5.942
    1   AR   Ar   49   7.114   4.110   0.185
    1   AR   Ar   50   6.137   5.621   0.823
    1   AR   Ar   51   1.366   4.371   0.854
    1   AR   Ar   52   1.113   5.538   0.168
    1   AR   Ar   53   6.857   5.804   2.041
    1   AR   Ar   54   7.099   6.508   3.194
    1   AR   Ar   55   0.622   5.624   2.953
    1   AR   Ar   56   0.821   5.644   1.402
    1   AR   Ar   57   0.886   4.712   4.313
    1   AR   Ar   58   0.184   6.050   4.207
    1   AR   Ar   59   1.221   6.009   4.680
    1   AR   Ar   60   1.068   6.513   3.690
    1   AR   Ar   61   7.079   6.184   5.832
    1   AR   Ar   62   0.829   5.727   5.867
    1   AR   Ar   63   1.862   5.480   5.662
    1   AR   Ar   64   0.888   6.840   5.251
    1   AR   Ar   65   1.300   6.567  -0.042
    1   AR   Ar   66   1.832   0.858   1.278
    1   AR   Ar   67   2.356   6.174   0.271
    1   AR   Ar   68   2.984   1.185   0.832
    1   AR   Ar   69   2.278   7.019   0.858
    1   AR   Ar   70   1.310   0.805   2.349
    1   AR   Ar   71   2.042   6.995   1.969
    1   AR   Ar   72   2.954   0.587   1.691
    1   AR   Ar   73   1.482   0.116   3.227
    1   AR   Ar   74   1.438   1.471   4.464
    1   AR   Ar   75   2.456   0.479   4.021
    1   AR   Ar   76   1.831   1.091   3.497
    1   AR   Ar   77   1.890   0.055   5.119
    1   AR   Ar   78   1.854   0.630   6.024
    1   AR   Ar   79   2.743   0.009   6.505
    1   AR   Ar   80   2.651   1.109   5.237
    1   AR   Ar   81   1.951   1.275   0.091
    1   AR   Ar   82   1.850   3.608   1.111
    1   AR   Ar   83   2.779   1.955   1.447
    1   AR   Ar   84   2.005   2.786  -0.351
    1   AR   Ar   85   1.487   1.825   1.845
    1   AR   Ar   86   1.646   2.605   2.779
    1   AR   Ar   87   2.356   1.413   2.499
    1   AR   Ar   88   2.647   3.396   1.771
    1   AR   Ar   89   1.032   1.698   2.840
    1   AR   Ar   90   2.756   3.072   4.318
    1   AR   Ar   91   2.385   1.980   4.653
    1   AR   Ar   92   2.107   2.167   3.650
    1   AR   Ar   93   1.788   1.596   5.474
    1   AR   Ar   94   2.415   2.696   6.765
    1   AR   Ar   95   2.534   1.367   6.165
    1   AR   Ar   96   2.370   2.611   5.626
    1   AR   Ar   97   1.905   4.127  -0.098
    1   AR   Ar   98   2.154   4.589   1.759
    1   AR   Ar   99   3.011   3.287   0.311
    1   AR   Ar  100   2.610   4.840  -0.349
    1   AR   Ar  101   1.238   3.046   1.837
    1   AR   Ar  102   1.705   4.737   3.036
    1   AR   Ar  103   2.288   3.829   2.639
    1   AR   Ar  104   3.106   4.195   1.069
    1   AR   Ar  105   1.966   3.263   3.501
    1   AR   Ar  106   1.663   3.992   4.229
    1   AR   Ar  107   2.494   4.271   4.836
    1   AR   Ar  108   2.744   4.079   3.727
    1   AR   Ar  109   0.816   3.777   5.017
    1   AR   Ar  110   1.779   3.703   5.456
    1   AR   Ar  111   3.451   4.517   6.482
    1   AR   Ar  112   2.303   4.370   6.331
    1   AR   Ar  113   2.051   5.197   0.748
    1   AR   Ar  114   1.613   6.169   0.923
    1   AR   Ar  115   3.020   5.464   0.909
    1   AR   Ar  116   3.337   0.333  -0.150
    1   AR   Ar  117   1.400   5.250   2.224
    1   AR   Ar  118   1.714   6.207   2.847
    1   AR   Ar  119   2.578   5.117   2.606
    1   AR   Ar  120   2.105   5.918   1.771
    1   AR   Ar  121   1.388   5.517   3.665
    1   AR   Ar  122   2.232   6.382   4.259
    1   AR   Ar  123   2.396   5.298   4.237
    1   AR   Ar  124   2.615   6.566   3.335
    1   AR   Ar  125   1.579   4.617   5.105
    1   AR   Ar  126   1.231   6.971   6.190
    1   AR   Ar  127   2.645   5.163   7.064
    1   AR   Ar  128   2.427   6.354   5.812
    1   AR   Ar  129   3.413   0.248   0.914
    1   AR   Ar  130   4.391   0.589   0.368
    1   AR   Ar  131   4.666   6.800   1.326
    1   AR   Ar  132   3.735   1.453  -0.449
    1   AR   Ar  133   3.753   6.889   2.411
    1   AR   Ar  134   3.461   1.099   2.448
    1   AR   Ar  135   4.795   0.104   2.533
    1   AR   Ar  136   3.973   0.577   1.735
    1   AR   Ar  137   3.497   0.283   3.316
    1   AR   Ar  138   3.491   0.951   4.543
    1   AR   Ar  139   4.143   0.050   4.158
    1   AR   Ar  140   4.276   0.858   3.551
    1   AR   Ar  141   2.981   0.083   5.184
    1   AR   Ar  142   3.395   0.770   6.090
    1   AR   Ar  143   3.988   6.956   6.428
    1   AR   Ar  144   4.969   1.129   6.138
    1   AR   Ar  145   3.352   2.175   0.356
    1   AR   Ar  146   3.672   3.019   1.305
    1   AR   Ar  147   4.304   2.326   0.957
    1   AR   Ar  148   5.441   2.351  -0.548
    1   AR   Ar  149   3.759   1.698   1.616
    1   AR   Ar  150   2.937   2.205   2.672
    1   AR   Ar  151   4.266   1.657   2.910
    1   AR   Ar  152   3.986   2.455   2.301
    1   AR   Ar  153   3.092   1.878   3.685
    1   AR   Ar  154   3.686   2.673   4.264
    1   AR   Ar  155   4.508   2.211   4.753
    1   AR   Ar  156   4.612   3.461   4.272
    1   AR   Ar  157   3.578   1.850   5.160
    1   AR   Ar  158   3.319   2.247   6.260
    1   AR   Ar  159   4.130   1.037   6.791
    1   AR   Ar  160   4.254   2.890   5.506
    1   AR   Ar  161   4.038   2.823  -0.313
    1   AR   Ar  162   3.781   4.791   0.510
    1   AR   Ar  163   4.694   3.319   0.857
    1   AR   Ar  164   5.185   5.009   0.765
    1   AR   Ar  165   3.589   3.512   2.331
    1   AR   Ar  166   3.705   4.733   3.190
    1   AR   Ar  167   4.367   2.962   3.141
    1   AR   Ar  168   4.023   4.269   1.627
    1   AR   Ar  169   3.098   3.147   3.126
    1   AR   Ar  170   3.328   4.732   4.387
    1   AR   Ar  171   3.628   3.572   4.883
    1   AR   Ar  172   4.559   4.539   3.900
    1   AR   Ar  173   3.111   3.316   5.892
    1   AR   Ar  174   4.432   5.227   6.236
    1   AR   Ar  175   4.342   3.918   5.700
    1   AR   Ar  176   4.274   4.949   5.168
    1   AR   Ar  177   4.459   5.595  -0.064
    1   AR   Ar  178   3.677   6.114   1.642
    1   AR   Ar  179   4.431   5.274   1.434
    1   AR   Ar  180   4.263   6.686   0.116
    1   AR   Ar  181   3.446   5.192   2.008
    1   AR   Ar  182   2.938   6.249   2.385
    1   AR   Ar  183   4.384   5.064   2.416
    1   AR   Ar  184   4.549   6.247   2.399
    1   AR   Ar  185   3.031   5.664   3.361
    1   AR   Ar  186   3.344   6.186   4.231
    1   AR   Ar  187   4.886   5.565   3.589
    1   AR   Ar  188   3.988   6.502   3.367
    1   AR   Ar  189   3.205   5.416   5.269
    1   AR   Ar  190   3.316   6.424   7.074
    1   AR   Ar  191   4.861   5.864   5.449
    1   AR   Ar  192   4.210   6.705   5.145
    1   AR   Ar  193   5.339   0.162   0.502
    1   AR   Ar  194   4.590   1.258   1.271
    1   AR   Ar  195   6.013   1.011   0.534
    1   AR   Ar  196   5.148   1.228   0.113
    1   AR   Ar  197   5.478   0.105   1.717
    1   AR   Ar  198   5.470   1.035   2.035
    1   AR   Ar  199   6.276   0.440   2.376
    1   AR   Ar  200   6.675   1.458   1.240
    1   AR   Ar  201   4.954   6.571   3.661
    1   AR   Ar  202   5.042   1.022   4.268
    1   AR   Ar  203   6.629   6.530   4.830
    1   AR   Ar  204   6.045   0.349   3.477
    1   AR   Ar  205   5.248   7.105   4.576
    1   AR   Ar  206   5.029   7.009   5.937
    1   AR   Ar  207   6.133   6.968   5.768
    1   AR   Ar  208   6.147   0.491   4.963
    1   AR   Ar  209   6.685   2.209  -0.590
    1   AR   Ar  210   5.329   2.237   1.309
    1   AR   Ar  211   6.265   2.130   0.443
    1   AR   Ar  212   6.589   3.114  -0.004
    1   AR   Ar  213   5.063   2.303   2.387
    1   AR   Ar  214   4.838   3.277   1.946
    1   AR   Ar  215   6.413   1.663   2.224
    1   AR   Ar  216   6.524   2.470   1.567
    1   AR   Ar  217   4.572   2.152   3.701
    1   AR   Ar  218   5.367   2.462   4.369
    1   AR   Ar  219   6.204   1.544   4.111
    1   AR   Ar  220   6.042   2.723   3.060
    1   AR   Ar  221   5.330   1.594   5.200
    1   AR   Ar  222   4.574   2.149   6.214
    1   AR   Ar  223   6.346   1.824   6.382
    1   AR   Ar  224   6.460   2.734   5.503
    1   AR   Ar  225   5.411   3.987   0.109
    1   AR   Ar  226   5.065   4.349   1.967
    1   AR   Ar  227   6.923   3.437   1.295
    1   AR   Ar  228   5.873   5.239  -0.258
    1   AR   Ar  229   5.756   3.189   0.782
    1   AR   Ar  230   4.388   4.069   2.741
    1   AR   Ar  231   6.751   3.210   3.524
    1   AR   Ar  232   5.860   3.415   2.237
    1   AR   Ar  233   5.584   3.318   3.835
    1   AR   Ar  234   5.900   4.266   4.134
    1   AR   Ar  235   6.937   3.651   4.463
    1   AR   Ar  236   6.893   4.467   3.346
    1   AR   Ar  237   5.291   2.895   5.363
    1   AR   Ar  238   5.107   4.388   6.134
    1   AR   Ar  239   5.779   3.939   7.405
    1   AR   Ar  240   6.015   4.085   5.815
    1   AR   Ar  241   6.205   6.449  -0.226
    1   AR   Ar  242   5.482   6.027   1.405
    1   AR   Ar  243   6.032   4.428   2.054
    1   AR   Ar  244   6.120   6.785   0.973
    1   AR   Ar  245   5.597   5.386   2.230
    1   AR   Ar  246   5.678   6.524   2.823
    1   AR   Ar  247   5.972   4.011   3.030
    1   AR   Ar  248   6.213   6.566   1.969
    1   AR   Ar  249   6.310   5.660   3.167
    1   AR   Ar  250   5.303   5.996   4.424
    1   AR   Ar  251   6.349   5.292   4.284
    1   AR   Ar  252   6.210   6.337   3.877
    1   AR   Ar  253   5.345   4.971   4.967
    1   AR   Ar  254   5.089   5.932   6.501
    1   AR   Ar  255   5.883   5.120   5.958
    1   AR   Ar  256   5.930   5.982   5.253
    7.12000  7.12000 12.00000
Argon-slab step 450
  256
    1   AR   Ar    1   0.200   0.430  -0.176
    1   AR   Ar    2   7.070   0.485   0.872
    1   AR   Ar    3   0.548   6.365   0.677
    1   AR   Ar    4   1.032   0.398   0.740
    1   AR   Ar    5   7.063   6.931   1.630
    1   AR   Ar    6   0.070   0.487   3.052
    1   AR   Ar    7   0.701   6.918   2.530
    1   AR   Ar    8   1.043   6.873   1.604
    1   AR   Ar    9   0.208   0.018   4.236
    1   AR   Ar   10   6.994   0.970   4.482
    1   AR   Ar   11   1.267   0.266   4.229
    1   AR   Ar   12   0.814   0.971   3.583
    1   AR   Ar   13   0.009   0.282   5.363
    1   AR   Ar   14   0.184   1.213   5.881
    1   AR   Ar   15   2.227   0.066   7.981
    1   AR   Ar   16   1.007   0.831   5.132
    1   AR   Ar   17   6.739   1.294  -0.213
    1   AR   Ar   18   0.206   2.361   0.502
    1   AR   Ar   19   0.728   1.512   0.988
    1   AR   Ar   20   0.568   2.251  -0.730
    1   AR   Ar   21   0.240   1.067   1.900
    1   AR   Ar   22   6.935   2.543   2.593
    1   AR   Ar   23   0.097   1.433   2.943
    1   AR   Ar   24   0.405   2.241   1.870
    1   AR   Ar   25   0.164   1.830   3.917
    1   AR   Ar   26   6.324   2.568   4.382
    1   AR   Ar   27   0.435   1.760   4.977
    1   AR   Ar   28   1.221   2.546   4.079
    1   AR   Ar   29   6.392   1.668   5.295
    1   AR   Ar   30   0.184   2.370   6.043
    1   AR   Ar   31   0.713   0.799   7.274
    1   AR   Ar   32   1.079   2.347   5.453
    1   AR   Ar   33   0.509   3.473  -0.559
    1   AR   Ar   34   0.117   4.826   1.190
    1   AR   Ar   35   0.637   3.354   0.705
    1   AR   Ar   36   1.550   5.292  -0.862
    1   AR   Ar   37   7.028   3.681   2.538
    1   AR   Ar   38   0.268   4.755   2.450
    1   AR   Ar   39   1.189   3.728   2.675
    1   AR   Ar   40   1.058   4.232   1.777
    1   AR   Ar   41   0.657   2.702   3.084
    1   AR   Ar   42   6.928   4.642   4.913
    1   AR   Ar   43   0.274   2.823   4.962
    1   AR   Ar   44   0.615   3.530   3.883
    1   AR   Ar   45   0.003   3.512   5.792
    1   AR   Ar   46   7.037   4.579   6.662
    1   AR   Ar   47   1.004   3.694   6.697
    1   AR   Ar   48   0.870   4.373   5.955
    1   AR   Ar   49   0.004   4.100   0.213
    1   AR   Ar   50   6.131   5.596   0.814
    1   AR   Ar   51   1.348   4.431   0.847
    1   AR   Ar   52   1.141   5.529   0.171
    1   AR   Ar   53   6.860   5.779   2.026
    1   AR   Ar   54   0.007   6.510   3.193
    1   AR   Ar   55   0.590   5.612   2.944
    1   AR   Ar   56   0.849   5.660   1.385
    1   AR   Ar   57   0.891   4.713   4.318
    1   AR   Ar   58   0.187   6.020   4.226
    1   AR   Ar   59   1.233   6.000   4.652
    1   AR   Ar   60   1.056   6.513   3.711
    1   AR   Ar   61   7.063   6.162   5.827
    1   AR   Ar   62   0.828   5.701   5.835
    1   AR   Ar   63   1.872   5.476   5.640
    1   AR   Ar   64   0.881   6.847   5.255
    1   AR   Ar   65   1.313   6.583  -0.048
    1   AR   Ar   66   1.854   0.847   1.260
    1   AR   Ar   67   2.375   6.176   0.240
    1   AR   Ar   68   3.003   1.190   0.801
    1   AR   Ar   69   2.269   6.992   0.863
    1   AR   Ar   70   1.276   0.812   2.344
    1   AR   Ar   71   2.024   7.000   1.966
    1   AR   Ar   72   2.931   0.616   1.690
    1   AR   Ar   73   1.481   0.157   3.236
    1   AR   Ar   74   1.407   1.504   4.445
    1   AR   Ar   75   2.473   0.502   4.025
    1   AR   Ar   76   1.855   1.085   3.481
    1   AR   Ar   77   1.895   0.074   5.111
    1   AR   Ar   78   1.829   0.595   6.017
    1   AR   Ar   79   2.761   0.027   6.518
    1   AR   Ar   80   2.656   1.122   5.263
    1   AR   Ar   81   1.956   1.284   0.074
    1   AR   Ar   82   1.873   3.584   1.145
    1   AR   Ar   83   2.783   1.951   1.415
    1   AR   Ar   84   2.023   2.794  -0.322
    1   AR   Ar   85   1.481   1.778   1.863
    1   AR   Ar   86   1.680   2.627   2.795
    1   AR   Ar   87   2.336   1.435   2.471
    1   AR   Ar   88   2.665   3.393   1.786
    1   AR   Ar   89   1.009   1.695   2.812
    1   AR   Ar   90   2.722   3.078   4.333
    1   AR   Ar   91   2.396   1.979   4.651
    1   AR   Ar   92   2.105   2.150   3.641
    1   AR   Ar   93   1.771   1.618   5.493
    1   AR   Ar   94   2.450   2.672   6.804
    1   AR   Ar   95   2.538   1.362   6.173
    1   AR   Ar   96   2.362   2.606   5.627
    1   AR   Ar   97   1.886   4.148  -0.102
    1   AR   Ar   98   2.175   4.597   1.751
    1   AR   Ar   99   3.010   3.315   0.289
    1   AR   Ar  100   2.589   4.881  -0.348
    1   AR   Ar  101   1.240   3.056   1.843
    1   AR   Ar  102   1.726   4.743   3.030
    1   AR   Ar  103   2.268   3.822   2.650
    1   AR   Ar  104   3.099   4.212   1.071
    1   AR   Ar  105   2.002   3.277   3.494
    1   AR   Ar  106   1.651   3.989   4.244
    1   AR   Ar  107   2.495   4.277   4.851
    1   AR   Ar  108   2.745   4.080   3.721
    1   AR   Ar  109   0.771   3.786   5.033
    1   AR   Ar  110   1.780   3.685   5.456
    1   AR   Ar  111   3.426   4.537   6.473
    1   AR   Ar  112   2.319   4.373   6.365
    1   AR   Ar  113   2.048   5.188   0.741
    1   AR   Ar  114   1.614   6.161   0.964
    1   AR   Ar  115   2.997   5.452   0.928
    1   AR   Ar  116   3.299   0.338  -0.159
    1   AR   Ar  117   1.383   5.251   2.229
    1   AR   Ar  118   1.721   6.210   2.846
    1   AR   Ar  119   2.594   5.127   2.613
    1   AR   Ar  120   2.095   5.900   1.774
    1   AR   Ar  121   1.374   5.528   3.674
    1   AR   Ar  122   2.228   6.390   4.243
    1   AR   Ar  123   2.409   5.331   4.262
    1   AR   Ar  124   2.628   6.567   3.309
    1   AR   Ar  125   1.559   4.633   5.093
    1   AR   Ar  126   1.259   6.939   6.184
    1   AR   Ar  127   2.635   5.177   7.068
    1   AR   Ar  128   2.460   6.361   5.830
    1   AR   Ar  129   3.430   0.257   0.877
    1   AR   Ar  130   4.398   0.549   0.388
    1   AR   Ar  131   4.629   6.796   1.340
    1   AR   Ar  132   3.745   1.458  -0.421
    1   AR   Ar  133   3.763   6.899   2.407
    1   AR   Ar  134   3.459   1.124   2.468
    1   AR   Ar  135   4.800   0.104   2.505
    1   AR   Ar  136   3.956   0.584   1.695
    1   AR   Ar  137   3.499   0.294   3.299
    1   AR   Ar  138   3.508   0.947   4.538
    1   AR   Ar  139   4.150   0.011   4.172
    1   AR   Ar  140   4.283   0.864   3.567
    1   AR   Ar  141   2.996   0.066   5.159
    1   AR   Ar  142   3.386   0.764   6.086
    1   AR   Ar  143   3.979   6.938   6.378
    1   AR   Ar  144   4.947   1.158   6.142
    1   AR   Ar  145   3.388   2.175   0.338
    1   AR   Ar  146   3.670   3.037   1.305
    1   AR   Ar  147   4.325   2.320   0.947
    1   AR   Ar  148   5.432   2.369  -0.558
    1   AR   Ar  149   3.757   1.678   1.602
    1   AR   Ar  150   2.953   2.212   2.678
    1   AR   Ar  151   4.280   1.670   2.882
    1   AR   Ar  152   3.992   2.456   2.325
    1   AR   Ar  153   3.044   1.881   3.698
    1   AR   Ar  154   3.681   2.665   4.255
    1   AR   Ar  155   4.537   2.209   4.769
    1   AR   Ar  156   4.604   3.456   4.293
    1   AR   Ar  157   3.573   1.902   5.175
    1   AR   Ar  158   3.287   2.253   6.265
    1   AR   Ar  159   4.120   1.043   6.766
    1   AR   Ar  160   4.292   2.878   5.527
    1   AR   Ar  161   4.035   2.857  -0.304
    1   AR   Ar  162   3.817   4.831   0.504
    1   AR   Ar  163   4.658   3.291   0.852
    1   AR   Ar  164   5.170   5.010   0.773
    1   AR   Ar  165   3.599   3.533   2.383
    1   AR   Ar  166   3.693   4.741   3.172
    1   AR   Ar  167   4.355   2.998   3.151
    1   AR   Ar  168   4.022   4.286   1.613
    1   AR   Ar  169   3.096   3.150   3.136
    1   AR   Ar  170   3.331   4.738   4.392
    1   AR   Ar  171   3.632   3.569   4.888
    1   AR   Ar  172   4.555   4.551   3.902
    1   AR   Ar  173   3.137   3.300   5.895
    1   AR   Ar  174   4.423   5.253   6.220
    1   AR   Ar  175   4.324   3.926   5.686
    1   AR   Ar  176   4.230   4.911   5.189
    1   AR   Ar  177   4.473   5.594  -0.047
    1   AR   Ar  178   3.679   6.100   1.649
    1   AR   Ar  179   4.435   5.265   1.433
    1   AR   Ar  180   4.262   6.675   0.112
    1   AR   Ar  181   3.423   5.174   2.014
    1   AR   Ar  182   2.923   6.269   2.362
    1   AR   Ar  183   4.377   5.054   2.406
    1   AR   Ar  184   4.559   6.227   2.422
    1   AR   Ar  185   3.011   5.651   3.364
    1   AR   Ar  186   3.360   6.202   4.250
    1   AR   Ar  187   4.877   5.519   3.595
    1   AR   Ar  188   3.951   6.460   3.387
    1   AR   Ar  189   3.185   5.399   5.271
    1   AR   Ar  190   3.326   6.426   7.116
    1   AR   Ar  191   4.899   5.858   5.473
    1   AR   Ar  192   4.252   6.700   5.139
    1   AR   Ar  193   5.351   0.174   0.496
    1   AR   Ar  194   4.606   1.281   1.267
    1   AR   Ar  195   5.998   1.007   0.544
    1   AR   Ar  196   5.148   1.243   0.068
    1   AR   Ar  197   5.458   0.113   1.731
    1   AR   Ar  198   5.469   1.079   1.998
    1   AR   Ar  199   6.284   0.432   2.352
    1   AR   Ar  200   6.670   1.473   1.261
    1   AR   Ar  201   4.943   6.592   3.682
    1   AR   Ar  202   5.054   1.035   4.307
    1   AR   Ar  203   6.648   6.517   4.839
    1   AR   Ar  204   6.056   0.362   3.476
    1   AR   Ar  205   5.220   7.098   4.551
    1   AR   Ar  206   5.022   6.985   5.919
    1   AR   Ar  207   6.158   6.969   5.778
    1   AR   Ar  208   6.132   0.539   4.938
    1   AR   Ar  209   6.670   2.229  -0.562
    1   AR   Ar  210   5.335   2.243   1.319
    1   AR   Ar  211   6.241   2.141   0.430
    1   AR   Ar  212   6.616   3.103  -0.027
    1   AR   Ar  213   5.072   2.340   2.404
    1   AR   Ar  214   4.800   3.264   1.950
    1   AR   Ar  215   6.354   1.671   2.220
    1   AR   Ar  216   6.525   2.453   1.573
    1   AR   Ar  217   4.567   2.186   3.681
    1   AR   Ar  218   5.389   2.460   4.376
    1   AR   Ar  219   6.216   1.508   4.132
    1   AR   Ar  220   6.053   2.748   3.057
    1   AR   Ar  221   5.324   1.596   5.197
    1   AR   Ar  222   4.577   2.143   6.204
    1   AR   Ar  223   6.338   1.787   6.404
    1   AR   Ar  224   6.441   2.753   5.506
    1   AR   Ar  225   5.373   3.956   0.108
    1   AR   Ar  226   5.076   4.360   1.957
    1   AR   Ar  227   6.931   3.434   1.329
    1   AR   Ar  228   5.853   5.255  -0.282
    1   AR   Ar  229   5.771   3.193   0.773
    1   AR   Ar  230   4.373   4.055   2.741
    1   AR   Ar  231   6.755   3.230   3.560
    1   AR   Ar  232   5.842   3.433   2.233
    1   AR   Ar  233   5.601   3.315   3.827
    1   AR   Ar  234   5.888   4.245   4.093
    1   AR   Ar  235   6.948   3.662   4.477
    1   AR   Ar  236   6.861   4.443   3.338
    1   AR   Ar  237   5.328   2.898   5.372
    1   AR   Ar  238   5.119   4.391   6.153
    1   AR   Ar  239   5.741   3.924   7.417
    1   AR   Ar  240   6.019   4.059   5.840
    1   AR   Ar  241   6.235   6.493  -0.235
    1   AR   Ar  242   5.473   6.018   1.421
    1   AR   Ar  243   6.035   4.429   2.097
    1   AR   Ar  244   6.138   6.833   0.944
    1   AR   Ar  245   5.602   5.419   2.219
    1   AR   Ar  246   5.674   6.516   2.809
    1   AR   Ar  247   5.950   3.999   3.038
    1   AR   Ar  248   6.188   6.579   1.979
    1   AR   Ar  249   6.303   5.656   3.170
    1   AR   Ar  250   5.296   5.987   4.418
    1   AR   Ar  251   6.352   5.289   4.268
    1   AR   Ar  252   6.211   6.311   3.868
    1   AR   Ar  253   5.326   4.989   4.973
    1   AR   Ar  254   5.108   5.951   6.533
    1   AR   Ar  255   5.893   5.139   5.992
    1   AR   Ar  256   5.916   5.972   5.280
    7.12000  7.12000 12.00000
Argon-slab step 455
  256
    1   AR   Ar    1   0.216   0.470  -0.212
    1   AR   Ar    2   7.045   0.492   0.870
    1   AR   Ar    3   0.558   6.391   0.640
    1   AR   Ar    4   1.007   0.391   0.725
    1   AR   Ar    5   7.039   6.916   1.600
    1   AR   Ar    6   0.071   0.463   3.035
    1   AR   Ar    7   0.682   6.941   2.539
    1   AR   Ar    8   1.065   6.832   1.559
    1   AR   Ar    9   0.225   0.029   4.243
    1   AR   Ar   10   6.987   0.998   4.430
    1   AR   Ar   11   1.250   0.266   4.238
    1   AR   Ar   12   0.795   1.020   3.624
    1   AR   Ar   13   0.053   0.294   5.344
    1   AR   Ar   14   0.181   1.201   5.880
    1   AR   Ar   15   2.256   0.090   7.987
    1   AR   Ar   16   1.025   0.817   5.155
    1   AR   Ar   17   6.737   1.279  -0.235
    1   AR   Ar   18   0.204   2.361   0.494
    1   AR   Ar   19   0.741   1.551   1.033
    1   AR   Ar   20   0.581   2.249  -0.715
    1   AR   Ar   21   0.271   1.040   1.909
    1   AR   Ar   22   6.962   2.554   2.644
    1   AR   Ar   23   0.076   1.442   2.966
    1   AR   Ar   24   0.407   2.257   1.899
    1   AR   Ar   25   0.149   1.832   3.883
    1   AR   Ar   26   6.365   2.551   4.412
    1   AR   Ar   27   0.464   1.734   4.974
    1   AR   Ar   28   1.213   2.542   4.043
    1   AR   Ar   29   6.386   1.652   5.346
    1   AR   Ar   30   0.172   2.389   6.039
    1   AR   Ar   31   0.695   0.773   7.269
    1   AR   Ar   32   1.112   2.329   5.462
    1   AR   Ar   33   0.493   3.462  -0.566
    1   AR   Ar   34   0.123   4.834   1.174
    1   AR   Ar   35   0.620   3.323   0.699
    1   AR   Ar   36   1.573   5.317  -0.870
    1   AR   Ar   37   7.014   3.673   2.550
    1   AR   Ar   38   0.256   4.756   2.446
    1   AR   Ar   39   1.183   3.679   2.694
    1   AR   Ar   40   1.025   4.228   1.771
    1   AR   Ar   41   0.678   2.702   3.055
    1   AR   Ar   42   6.912   4.643   4.916
    1   AR   Ar   43   0.261   2.795   4.961
    1   AR   Ar   44   0.605   3.525   3.847
    1   AR   Ar   45   7.101   3.515   5.772
    1   AR   Ar   46   7.047   4.582   6.655
    1   AR   Ar   47   1.000   3.725   6.731
    1   AR   Ar   48   0.895   4.393   5.962
    1   AR   Ar   49   0.004   4.086   0.207
    1   AR   Ar   50   6.147   5.588   0.816
    1   AR   Ar   51   1.327   4.495   0.830
    1   AR   Ar   52   1.165   5.523   0.195
    1   AR   Ar   53   6.863   5.773   2.013
    1   AR   Ar   54   0.031   6.511   3.197
    1   AR   Ar   55   0.559   5.605   2.935
    1   AR   Ar   56   0.871   5.670   1.374
    1   AR   Ar   57   0.888   4.715   4.320
    1   AR   Ar   58   0.194   5.986   4.241
    1   AR   Ar   59   1.246   5.991   4.626
    1   AR   Ar   60   1.036   6.506   3.732
    1   AR   Ar   61   7.037   6.146   5.820
    1   AR   Ar   62   0.835   5.670   5.802
    1   AR   Ar   63   1.884   5.472   5.618
    1   AR   Ar   64   0.871   6.851   5.249
    1   AR   Ar   65   1.326   6.599  -0.039
    1   AR   Ar   66   1.878   0.836   1.246
    1   AR   Ar   67   2.401   6.174   0.226
    1   AR   Ar   68   3.021   1.193   0.762
    1   AR   Ar   69   2.261   6.972   0.871
    1   AR   Ar   70   1.243   0.814   2.338
    1   AR   Ar   71   2.008   7.005   1.964
    1   AR   Ar   72   2.895   0.645   1.695
    1   AR   Ar   73   1.485   0.201   3.233
    1   AR   Ar   74   1.378   1.539   4.423
    1   AR   Ar   75   2.477   0.526   4.050
    1   AR   Ar   76   1.878   1.089   3.461
    1   AR   Ar   77   1.908   0.099   5.099
    1   AR   Ar   78   1.811   0.570   6.009
    1   AR   Ar   79   2.777   0.045   6.531
    1   AR   Ar   80   2.668   1.126   5.266
    1   AR   Ar   81   1.961   1.293   0.059
    1   AR   Ar   82   1.897   3.558   1.177
    1   AR   Ar   83   2.780   1.955   1.388
    1   AR   Ar   84   2.042   2.803  -0.292
    1   AR   Ar   85   1.475   1.734   1.879
    1   AR   Ar   86   1.714   2.644   2.801
    1   AR   Ar   87   2.312   1.451   2.442
    1   AR   Ar   88   2.689   3.387   1.801
    1   AR   Ar   89   1.004   1.702   2.785
    1   AR   Ar   90   2.693   3.076   4.354
    1   AR   Ar   91   2.408   1.981   4.649
    1   AR   Ar   92   2.092   2.135   3.629
    1   AR   Ar   93   1.754   1.636   5.513
    1   AR   Ar   94   2.484   2.649   6.842
    1   AR   Ar   95   2.541   1.367   6.205
    1   AR   Ar   96   2.353   2.600   5.626
    1   AR   Ar   97   1.890   4.135  -0.090
    1   AR   Ar   98   2.196   4.605   1.742
    1   AR   Ar   99   3.009   3.342   0.269
    1   AR   Ar  100   2.570   4.925  -0.346
    1   AR   Ar  101   1.240   3.063   1.849
    1   AR   Ar  102   1.745   4.740   3.031
    1   AR   Ar  103   2.249   3.818   2.662
    1   AR   Ar  104   3.098   4.207   1.052
    1   AR   Ar  105   2.037   3.293   3.494
    1   AR   Ar  106   1.640   3.983   4.257
    1   AR   Ar  107   2.501   4.282   4.866
    1   AR   Ar  108   2.746   4.082   3.714
    1   AR   Ar  109   0.748   3.802   5.031
    1   AR   Ar  110   1.782   3.662   5.459
    1   AR   Ar  111   3.402   4.557   6.462
    1   AR   Ar  112   2.333   4.375   6.396
    1   AR   Ar  113   2.041   5.178   0.732
    1   AR   Ar  114   1.611   6.160   0.994
    1   AR   Ar  115   2.982   5.441   0.950
    1   AR   Ar  116   3.262   0.345  -0.171
    1   AR   Ar  117   1.363   5.254   2.230
    1   AR   Ar  118   1.727   6.212   2.843
    1   AR   Ar  119   2.605   5.136   2.617
    1   AR   Ar  120   2.093   5.878   1.786
    1   AR   Ar  121   1.364   5.536   3.685
    1   AR   Ar  122   2.220   6.401   4.232
    1   AR   Ar  123   2.420   5.362   4.288
    1   AR   Ar  124   2.640   6.580   3.283
    1   AR   Ar  125   1.536   4.654   5.084
    1   AR   Ar  126   1.283   6.896   6.186
    1   AR   Ar  127   2.626   5.191   7.072
    1   AR   Ar  128   2.492   6.369   5.846
    1   AR   Ar  129   3.455   0.250   0.814
    1   AR   Ar  130   4.399   0.515   0.411
    1   AR   Ar  131   4.608   6.803   1.316
    1   AR   Ar  132   3.755   1.462  -0.392
    1   AR   Ar  133   3.771   6.913   2.400
    1   AR   Ar  134   3.444   1.102   2.485
    1   AR   Ar  135   4.802   0.109   2.483
    1   AR   Ar  136   3.948   0.589   1.658
    1   AR   Ar  137   3.471   0.311   3.294
    1   AR   Ar  138   3.529   0.937   4.525
    1   AR   Ar  139   4.154   7.094   4.188
    1   AR   Ar  140   4.295   0.875   3.585
    1   AR   Ar  141   3.012   0.048   5.133
    1   AR   Ar  142   3.379   0.757   6.076
    1   AR   Ar  143   3.969   6.921   6.327
    1   AR   Ar  144   4.930   1.183   6.142
    1   AR   Ar  145   3.424   2.176   0.324
    1   AR   Ar  146   3.664   3.058   1.308
    1   AR   Ar  147   4.347   2.307   0.934
    1   AR   Ar  148   5.421   2.386  -0.564
    1   AR   Ar  149   3.750   1.660   1.591
    1   AR   Ar  150   2.972   2.222   2.681
    1   AR   Ar  151   4.294   1.675   2.847
    1   AR   Ar  152   3.991   2.458   2.365
    1   AR   Ar  153   3.010   1.879   3.713
    1   AR   Ar  154   3.680   2.655   4.245
    1   AR   Ar  155   4.553   2.202   4.790
    1   AR   Ar  156   4.622   3.468   4.265
    1   AR   Ar  157   3.565   1.954   5.191
    1   AR   Ar  158   3.256   2.257   6.267
    1   AR   Ar  159   4.110   1.049   6.745
    1   AR   Ar  160   4.322   2.870   5.546
    1   AR   Ar  161   4.033   2.890  -0.292
    1   AR   Ar  162   3.855   4.871   0.499
    1   AR   Ar  163   4.624   3.269   0.846
    1   AR   Ar  164   5.160   5.010   0.777
    1   AR   Ar  165   3.608   3.553   2.422
    1   AR   Ar  166   3.676   4.750   3.157
    1   AR   Ar  167   4.341   3.045   3.157
    1   AR   Ar  168   4.022   4.300   1.600
    1   AR   Ar  169   3.087   3.151   3.157
    1   AR   Ar  170   3.339   4.744   4.395
    1   AR   Ar  171   3.635   3.566   4.892
    1   AR   Ar  172   4.551   4.559   3.904
    1   AR   Ar  173   3.165   3.286   5.898
    1   AR   Ar  174   4.409   5.273   6.202
    1   AR   Ar  175   4.301   3.934   5.671
    1   AR   Ar  176   4.186   4.874   5.209
    1   AR   Ar  177   4.487   5.591  -0.028
    1   AR   Ar  178   3.685   6.091   1.652
    1   AR   Ar  179   4.436   5.261   1.427
    1   AR   Ar  180   4.240   6.684   0.110
    1   AR   Ar  181   3.399   5.153   2.017
    1   AR   Ar  182   2.904   6.285   2.338
    1   AR   Ar  183   4.372   5.056   2.402
    1   AR   Ar  184   4.572   6.198   2.444
    1   AR   Ar  185   2.998   5.633   3.373
    1   AR   Ar  186   3.375   6.219   4.271
    1   AR   Ar  187   4.867   5.473   3.595
    1   AR   Ar  188   3.912   6.412   3.402
    1   AR   Ar  189   3.164   5.383   5.272
    1   AR   Ar  190   3.341   6.417   7.121
    1   AR   Ar  191   4.933   5.853   5.495
    1   AR   Ar  192   4.294   6.693   5.135
    1   AR   Ar  193   5.345   0.178   0.484
    1   AR   Ar  194   4.635   1.302   1.257
    1   AR   Ar  195   5.992   1.002   0.559
    1   AR   Ar  196   5.182   1.240   0.047
    1   AR   Ar  197   5.441   0.120   1.736
    1   AR   Ar  198   5.466   1.133   1.962
    1   AR   Ar  199   6.294   0.424   2.329
    1   AR   Ar  200   6.664   1.486   1.273
    1   AR   Ar  201   4.934   6.618   3.693
    1   AR   Ar  202   5.038   1.043   4.284
    1   AR   Ar  203   6.663   6.517   4.843
    1   AR   Ar  204   6.091   0.345   3.475
    1   AR   Ar  205   5.193   7.092   4.530
    1   AR   Ar  206   5.015   6.959   5.899
    1   AR   Ar  207   6.183   6.968   5.788
    1   AR   Ar  208   6.116   0.588   4.911
    1   AR   Ar  209   6.649   2.252  -0.539
    1   AR   Ar  210   5.343   2.250   1.330
    1   AR   Ar  211   6.216   2.151   0.420
    1   AR   Ar  212   6.642   3.098  -0.046
    1   AR   Ar  213   5.083   2.375   2.423
    1   AR   Ar  214   4.759   3.253   1.955
    1   AR   Ar  215   6.294   1.676   2.224
    1   AR   Ar  216   6.526   2.452   1.576
    1   AR   Ar  217   4.567   2.217   3.674
    1   AR   Ar  218   5.399   2.453   4.377
    1   AR   Ar  219   6.219   1.475   4.151
    1   AR   Ar  220   6.051   2.766   3.050
    1   AR   Ar  221   5.304   1.598   5.210
    1   AR   Ar  222   4.578   2.135   6.194
    1   AR   Ar  223   6.331   1.751   6.424
    1   AR   Ar  224   6.418   2.770   5.507
    1   AR   Ar  225   5.333   3.927   0.107
    1   AR   Ar  226   5.074   4.369   1.944
    1   AR   Ar  227   6.935   3.431   1.366
    1   AR   Ar  228   5.833   5.272  -0.304
    1   AR   Ar  229   5.789   3.195   0.765
    1   AR   Ar  230   4.367   4.041   2.744
    1   AR   Ar  231   6.764   3.253   3.596
    1   AR   Ar  232   5.824   3.440   2.220
    1   AR   Ar  233   5.617   3.309   3.816
    1   AR   Ar  234   5.880   4.232   4.056
    1   AR   Ar  235   6.948   3.677   4.499
    1   AR   Ar  236   6.837   4.460   3.311
    1   AR   Ar  237   5.368   2.900   5.381
    1   AR   Ar  238   5.129   4.400   6.156
    1   AR   Ar  239   5.702   3.910   7.429
    1   AR   Ar  240   6.033   4.051   5.841
    1   AR   Ar  241   6.265   6.537  -0.243
    1   AR   Ar  242   5.457   6.038   1.452
    1   AR   Ar  243   6.057   4.439   2.137
    1   AR   Ar  244   6.162   6.879   0.914
    1   AR   Ar  245   5.600   5.396   2.219
    1   AR   Ar  246   5.662   6.508   2.807
    1   AR   Ar  247   5.929   3.989   3.056
    1   AR   Ar  248   6.167   6.584   1.985
    1   AR   Ar  249   6.299   5.639   3.158
    1   AR   Ar  250   5.292   5.975   4.419
    1   AR   Ar  251   6.353   5.288   4.252
    1   AR   Ar  252   6.209   6.300   3.871
    1   AR   Ar  253   5.309   5.006   4.978
    1   AR   Ar  254   5.131   5.974   6.565
    1   AR   Ar  255   5.902   5.159   6.026
    1   AR   Ar  256   5.903   5.958   5.309
    7.12000  7.12000 12.00000
Argon-slab step 460
  256
    1   AR   Ar    1   0.238   0.504  -0.247
    1   AR   Ar    2   7.019   0.505   0.863
    1   AR   Ar    3   0.563   6.419   0.606
    1   AR   Ar    4   0.983   0.383   0.708
    1   AR   Ar    5   7.025   6.896   1.574
    1   AR   Ar    6   0.066   0.430   3.022
    1   AR   Ar    7   0.671   6.961   2.542
    1   AR   Ar    8   1.081   6.792   1.513
    1   AR   Ar    9   0.241   0.036   4.248
    1   AR   Ar   10   7.004   1.012   4.416
    1   AR   Ar   11   1.237   0.269   4.254
    1   AR   Ar   12   0.777   1.067   3.667
    1   AR   Ar   13   0.087   0.310   5.322
    1   AR   Ar   14   0.178   1.192   5.879
    1   AR   Ar   15   2.284   0.114   7.991
    1   AR   Ar   16   1.042   0.803   5.180
    1   AR   Ar   17   6.731   1.267  -0.253
    1   AR   Ar   18   0.213   2.366   0.499
    1   AR   Ar   19   0.754   1.589   1.079
    1   AR   Ar   20   0.595   2.248  -0.700
    1   AR   Ar   21   0.302   1.011   1.920
    1   AR   Ar   22   6.965   2.563   2.692
    1   AR   Ar   23   0.048   1.460   2.965
    1   AR   Ar   24   0.418   2.266   1.920
    1   AR   Ar   25   0.135   1.845   3.856
    1   AR   Ar   26   6.424   2.536   4.441
    1   AR   Ar   27   0.485   1.704   4.966
    1   AR   Ar   28   1.201   2.541   4.008
    1   AR   Ar   29   6.384   1.637   5.394
    1   AR   Ar   30   0.160   2.405   6.026
    1   AR   Ar   31   0.682   0.768   7.260
    1   AR   Ar   32   1.125   2.330   5.472
    1   AR   Ar   33   0.477   3.449  -0.572
    1   AR   Ar   34   0.131   4.842   1.160
    1   AR   Ar   35   0.608   3.293   0.693
    1   AR   Ar   36   1.597   5.341  -0.876
    1   AR   Ar   37   6.996   3.670   2.564
    1   AR   Ar   38   0.243   4.754   2.435
    1   AR   Ar   39   1.175   3.631   2.719
    1   AR   Ar   40   0.990   4.223   1.769
    1   AR   Ar   41   0.708   2.693   3.035
    1   AR   Ar   42   6.898   4.646   4.921
    1   AR   Ar   43   0.247   2.767   4.959
    1   AR   Ar   44   0.602   3.518   3.806
    1   AR   Ar   45   7.063   3.562   5.774
    1   AR   Ar   46   7.056   4.584   6.646
    1   AR   Ar   47   0.996   3.753   6.769
    1   AR   Ar   48   0.919   4.418   5.964
    1   AR   Ar   49   7.120   4.072   0.194
    1   AR   Ar   50   6.167   5.580   0.816
    1   AR   Ar   51   1.298   4.554   0.810
    1   AR   Ar   52   1.186   5.525   0.249
    1   AR   Ar   53   6.862   5.799   2.000
    1   AR   Ar   54   0.049   6.509   3.206
    1   AR   Ar   55   0.530   5.603   2.928
    1   AR   Ar   56   0.880   5.670   1.369
    1   AR   Ar   57   0.876   4.720   4.315
    1   AR   Ar   58   0.185   5.982   4.274
    1   AR   Ar   59   1.260   5.980   4.607
    1   AR   Ar   60   1.011   6.501   3.750
    1   AR   Ar   61   7.006   6.134   5.812
    1   AR   Ar   62   0.846   5.638   5.768
    1   AR   Ar   63   1.899   5.471   5.596
    1   AR   Ar   64   0.866   6.847   5.236
    1   AR   Ar   65   1.346   6.586  -0.033
    1   AR   Ar   66   1.902   0.827   1.232
    1   AR   Ar   67   2.426   6.166   0.211
    1   AR   Ar   68   3.040   1.196   0.718
    1   AR   Ar   69   2.255   6.959   0.883
    1   AR   Ar   70   1.212   0.806   2.331
    1   AR   Ar   71   1.996   7.012   1.965
    1   AR   Ar   72   2.855   0.673   1.700
    1   AR   Ar   73   1.488   0.237   3.222
    1   AR   Ar   74   1.351   1.573   4.399
    1   AR   Ar   75   2.486   0.544   4.080
    1   AR   Ar   76   1.901   1.106   3.439
    1   AR   Ar   77   1.922   0.121   5.082
    1   AR   Ar   78   1.802   0.561   6.000
    1   AR   Ar   79   2.790   0.063   6.545
    1   AR   Ar   80   2.683   1.124   5.256
    1   AR   Ar   81   1.967   1.300   0.046
    1   AR   Ar   82   1.917   3.537   1.203
    1   AR   Ar   83   2.771   1.965   1.366
    1   AR   Ar   84   2.062   2.813  -0.260
    1   AR   Ar   85   1.469   1.694   1.886
    1   AR   Ar   86   1.746   2.656   2.797
    1   AR   Ar   87   2.291   1.454   2.415
    1   AR   Ar   88   2.718   3.380   1.817
    1   AR   Ar   89   1.008   1.717   2.764
    1   AR   Ar   90   2.664   3.074   4.375
    1   AR   Ar   91   2.420   1.984   4.649
    1   AR   Ar   92   2.064   2.124   3.616
    1   AR   Ar   93   1.750   1.635   5.531
    1   AR   Ar   94   2.515   2.626   6.881
    1   AR   Ar   95   2.541   1.379   6.252
    1   AR   Ar   96   2.343   2.592   5.625
    1   AR   Ar   97   1.898   4.114  -0.072
    1   AR   Ar   98   2.215   4.611   1.732
    1   AR   Ar   99   3.008   3.368   0.251
    1   AR   Ar  100   2.551   4.971  -0.342
    1   AR   Ar  101   1.237   3.067   1.854
    1   AR   Ar  102   1.763   4.732   3.039
    1   AR   Ar  103   2.234   3.821   2.668
    1   AR   Ar  104   3.107   4.169   1.003
    1   AR   Ar  105   2.071   3.308   3.507
    1   AR   Ar  106   1.631   3.972   4.268
    1   AR   Ar  107   2.510   4.284   4.882
    1   AR   Ar  108   2.747   4.085   3.707
    1   AR   Ar  109   0.756   3.827   5.007
    1   AR   Ar  110   1.785   3.638   5.462
    1   AR   Ar  111   3.379   4.578   6.450
    1   AR   Ar  112   2.346   4.375   6.424
    1   AR   Ar  113   2.035   5.172   0.722
    1   AR   Ar  114   1.613   6.167   1.002
    1   AR   Ar  115   2.975   5.433   0.976
    1   AR   Ar  116   3.224   0.353  -0.189
    1   AR   Ar  117   1.341   5.257   2.230
    1   AR   Ar  118   1.732   6.213   2.839
    1   AR   Ar  119   2.607   5.141   2.615
    1   AR   Ar  120   2.099   5.850   1.809
    1   AR   Ar  121   1.356   5.538   3.695
    1   AR   Ar  122   2.209   6.415   4.222
    1   AR   Ar  123   2.431   5.390   4.315
    1   AR   Ar  124   2.652   6.605   3.261
    1   AR   Ar  125   1.513   4.674   5.081
    1   AR   Ar  126   1.301   6.841   6.195
    1   AR   Ar  127   2.618   5.206   7.075
    1   AR   Ar  128   2.503   6.394   5.866
    1   AR   Ar  129   3.479   0.235   0.756
    1   AR   Ar  130   4.395   0.492   0.436
    1   AR   Ar  131   4.582   6.808   1.289
    1   AR   Ar  132   3.766   1.463  -0.362
    1   AR   Ar  133   3.773   6.901   2.389
    1   AR   Ar  134   3.427   1.068   2.502
    1   AR   Ar  135   4.798   0.118   2.471
    1   AR   Ar  136   3.945   0.593   1.624
    1   AR   Ar  137   3.438   0.327   3.289
    1   AR   Ar  138   3.549   0.927   4.510
    1   AR   Ar  139   4.153   7.062   4.205
    1   AR   Ar  140   4.307   0.887   3.600
    1   AR   Ar  141   3.029   0.031   5.107
    1   AR   Ar  142   3.373   0.742   6.069
    1   AR   Ar  143   3.959   6.904   6.275
    1   AR   Ar  144   4.919   1.202   6.140
    1   AR   Ar  145   3.458   2.179   0.313
    1   AR   Ar  146   3.656   3.081   1.313
    1   AR   Ar  147   4.366   2.287   0.920
    1   AR   Ar  148   5.397   2.400  -0.563
    1   AR   Ar  149   3.739   1.645   1.584
    1   AR   Ar  150   2.990   2.216   2.688
    1   AR   Ar  151   4.312   1.665   2.815
    1   AR   Ar  152   3.984   2.473   2.393
    1   AR   Ar  153   2.996   1.872   3.731
    1   AR   Ar  154   3.681   2.645   4.234
    1   AR   Ar  155   4.557   2.190   4.812
    1   AR   Ar  156   4.656   3.489   4.206
    1   AR   Ar  157   3.555   2.007   5.207
    1   AR   Ar  158   3.229   2.258   6.264
    1   AR   Ar  159   4.099   1.056   6.730
    1   AR   Ar  160   4.344   2.867   5.563
    1   AR   Ar  161   4.031   2.923  -0.279
    1   AR   Ar  162   3.892   4.910   0.496
    1   AR   Ar  163   4.594   3.256   0.838
    1   AR   Ar  164   5.156   5.008   0.776
    1   AR   Ar  165   3.609   3.568   2.444
    1   AR   Ar  166   3.655   4.760   3.144
    1   AR   Ar  167   4.329   3.069   3.167
    1   AR   Ar  168   4.022   4.310   1.590
    1   AR   Ar  169   3.074   3.148   3.190
    1   AR   Ar  170   3.351   4.751   4.396
    1   AR   Ar  171   3.636   3.564   4.896
    1   AR   Ar  172   4.544   4.560   3.909
    1   AR   Ar  173   3.194   3.273   5.899
    1   AR   Ar  174   4.392   5.290   6.187
    1   AR   Ar  175   4.278   3.940   5.657
    1   AR   Ar  176   4.141   4.840   5.225
    1   AR   Ar  177   4.503   5.589  -0.008
    1   AR   Ar  178   3.695   6.084   1.651
    1   AR   Ar  179   4.432   5.264   1.417
    1   AR   Ar  180   4.216   6.688   0.108
    1   AR   Ar  181   3.379   5.128   2.013
    1   AR   Ar  182   2.884   6.299   2.313
    1   AR   Ar  183   4.365   5.093   2.396
    1   AR   Ar  184   4.587   6.164   2.464
    1   AR   Ar  185   2.984   5.619   3.377
    1   AR   Ar  186   3.386   6.235   4.297
    1   AR   Ar  187   4.858   5.432   3.589
    1   AR   Ar  188   3.872   6.362   3.410
    1   AR   Ar  189   3.141   5.367   5.274
    1   AR   Ar  190   3.356   6.407   7.126
    1   AR   Ar  191   4.921   5.867   5.498
    1   AR   Ar  192   4.335   6.684   5.133
    1   AR   Ar  193   5.338   0.180   0.470
    1   AR   Ar  194   4.671   1.320   1.243
    1   AR   Ar  195   5.999   0.996   0.582
    1   AR   Ar  196   5.208   1.241   0.022
    1   AR   Ar  197   5.430   0.128   1.729
    1   AR   Ar  198   5.458   1.188   1.926
    1   AR   Ar  199   6.307   0.423   2.309
    1   AR   Ar  200   6.660   1.495   1.277
    1   AR   Ar  201   4.927   6.640   3.690
    1   AR   Ar  202   5.025   1.052   4.264
    1   AR   Ar  203   6.681   6.536   4.867
    1   AR   Ar  204   6.127   0.327   3.475
    1   AR   Ar  205   5.171   7.090   4.519
    1   AR   Ar  206   5.011   6.934   5.879
    1   AR   Ar  207   6.208   6.967   5.797
    1   AR   Ar  208   6.098   0.636   4.885
    1   AR   Ar  209   6.626   2.270  -0.526
    1   AR   Ar  210   5.355   2.257   1.342
    1   AR   Ar  211   6.188   2.161   0.413
    1   AR   Ar  212   6.669   3.104  -0.056
    1   AR   Ar  213   5.097   2.407   2.445
    1   AR   Ar  214   4.714   3.245   1.958
    1   AR   Ar  215   6.238   1.682   2.238
    1   AR   Ar  216   6.537   2.489   1.583
    1   AR   Ar  217   4.565   2.231   3.666
    1   AR   Ar  218   5.408   2.443   4.399
    1   AR   Ar  219   6.203   1.454   4.163
    1   AR   Ar  220   6.040   2.780   3.039
    1   AR   Ar  221   5.287   1.599   5.224
    1   AR   Ar  222   4.579   2.129   6.188
    1   AR   Ar  223   6.325   1.716   6.444
    1   AR   Ar  224   6.394   2.785   5.508
    1   AR   Ar  225   5.293   3.899   0.107
    1   AR   Ar  226   5.065   4.377   1.928
    1   AR   Ar  227   6.937   3.431   1.405
    1   AR   Ar  228   5.833   5.275  -0.292
    1   AR   Ar  229   5.807   3.194   0.760
    1   AR   Ar  230   4.379   4.035   2.753
    1   AR   Ar  231   6.771   3.276   3.626
    1   AR   Ar  232   5.805   3.436   2.200
    1   AR   Ar  233   5.629   3.296   3.807
    1   AR   Ar  234   5.875   4.232   4.027
    1   AR   Ar  235   6.942   3.693   4.529
    1   AR   Ar  236   6.831   4.482   3.321
    1   AR   Ar  237   5.407   2.902   5.388
    1   AR   Ar  238   5.135   4.414   6.149
    1   AR   Ar  239   5.663   3.896   7.440
    1   AR   Ar  240   6.054   4.046   5.835
    1   AR   Ar  241   6.294   6.581  -0.248
    1   AR   Ar  242   5.434   6.065   1.478
    1   AR   Ar  243   6.085   4.449   2.157
    1   AR   Ar  244   6.191   6.921   0.888
    1   AR   Ar  245   5.597   5.371   2.225
    1   AR   Ar  246   5.641   6.499   2.818
    1   AR   Ar  247   5.906   3.980   3.078
    1   AR   Ar  248   6.154   6.581   1.982
    1   AR   Ar  249   6.297   5.612   3.135
    1   AR   Ar  250   5.290   5.962   4.425
    1   AR   Ar  251   6.353   5.288   4.235
    1   AR   Ar  252   6.206   6.301   3.883
    1   AR   Ar  253   5.293   5.021   4.982
    1   AR   Ar  254   5.157   5.999   6.598
    1   AR   Ar  255   5.907   5.182   6.046
    1   AR   Ar  256   5.899   5.945   5.338
    7.12000  7.12000 12.00000
Argon-slab step 465
  256
    1   AR   Ar    1   0.267   0.527  -0.279
    1   AR   Ar    2   6.994   0.524   0.852
    1   AR   Ar    3   0.575   6.413   0.601
    1   AR   Ar    4   0.959   0.376   0.690
    1   AR   Ar    5   7.027   6.868   1.553
    1   AR   Ar    6   0.053   0.405   3.018
    1   AR   Ar    7   0.675   6.975   2.534
    1   AR   Ar    8   1.086   6.763   1.476
    1   AR   Ar    9   0.253   0.038   4.251
    1   AR   Ar   10   7.042   1.012   4.430
    1   AR   Ar   11   1.231   0.277   4.273
    1   AR   Ar   12   0.785   1.090   3.694
    1   AR   Ar   13   0.108   0.330   5.300
    1   AR   Ar   14   0.176   1.186   5.881
    1   AR   Ar   15   2.313   0.137   7.995
    1   AR   Ar   16   1.061   0.790   5.206
    1   AR   Ar   17   6.717   1.261  -0.268
    1   AR   Ar   18   0.217   2.366   0.504
    1   AR   Ar   19   0.765   1.624   1.124
    1   AR   Ar   20   0.609   2.248  -0.682
    1   AR   Ar   21   0.327   0.983   1.929
    1   AR   Ar   22   6.945   2.568   2.733
    1   AR   Ar   23   0.024   1.478   2.928
    1   AR   Ar   24   0.436   2.272   1.935
    1   AR   Ar   25   0.122   1.874   3.841
    1   AR   Ar   26   6.489   2.521   4.469
    1   AR   Ar   27   0.502   1.678   4.957
    1   AR   Ar   28   1.185   2.545   3.974
    1   AR   Ar   29   6.383   1.622   5.436
    1   AR   Ar   30   0.146   2.421   6.012
    1   AR   Ar   31   0.671   0.780   7.247
    1   AR   Ar   32   1.078   2.340   5.480
    1   AR   Ar   33   0.462   3.434  -0.577
    1   AR   Ar   34   0.134   4.849   1.146
    1   AR   Ar   35   0.600   3.268   0.687
    1   AR   Ar   36   1.621   5.365  -0.880
    1   AR   Ar   37   6.973   3.678   2.584
    1   AR   Ar   38   0.229   4.747   2.419
    1   AR   Ar   39   1.165   3.587   2.748
    1   AR   Ar   40   0.955   4.217   1.769
    1   AR   Ar   41   0.758   2.689   3.026
    1   AR   Ar   42   6.882   4.657   4.930
    1   AR   Ar   43   0.235   2.741   4.955
    1   AR   Ar   44   0.611   3.514   3.765
    1   AR   Ar   45   7.029   3.612   5.774
    1   AR   Ar   46   7.066   4.586   6.635
    1   AR   Ar   47   0.992   3.779   6.808
    1   AR   Ar   48   0.942   4.444   5.963
    1   AR   Ar   49   7.116   4.060   0.183
    1   AR   Ar   50   6.187   5.571   0.816
    1   AR   Ar   51   1.258   4.603   0.790
    1   AR   Ar   52   1.202   5.527   0.301
    1   AR   Ar   53   6.864   5.822   1.988
    1   AR   Ar   54   0.060   6.502   3.221
    1   AR   Ar   55   0.503   5.604   2.925
    1   AR   Ar   56   0.875   5.660   1.371
    1   AR   Ar   57   0.856   4.728   4.302
    1   AR   Ar   58   0.169   5.995   4.319
    1   AR   Ar   59   1.275   5.970   4.600
    1   AR   Ar   60   0.984   6.500   3.761
    1   AR   Ar   61   6.973   6.122   5.804
    1   AR   Ar   62   0.857   5.605   5.731
    1   AR   Ar   63   1.918   5.474   5.575
    1   AR   Ar   64   0.870   6.833   5.216
    1   AR   Ar   65   1.375   6.554  -0.029
    1   AR   Ar   66   1.924   0.819   1.219
    1   AR   Ar   67   2.451   6.155   0.194
    1   AR   Ar   68   3.060   1.197   0.671
    1   AR   Ar   69   2.251   6.953   0.896
    1   AR   Ar   70   1.188   0.788   2.326
    1   AR   Ar   71   1.987   7.019   1.969
    1   AR   Ar   72   2.813   0.700   1.705
    1   AR   Ar   73   1.488   0.261   3.206
    1   AR   Ar   74   1.330   1.605   4.375
    1   AR   Ar   75   2.498   0.559   4.115
    1   AR   Ar   76   1.923   1.133   3.415
    1   AR   Ar   77   1.938   0.140   5.061
    1   AR   Ar   78   1.798   0.563   5.994
    1   AR   Ar   79   2.798   0.077   6.562
    1   AR   Ar   80   2.700   1.118   5.240
    1   AR   Ar   81   1.974   1.308   0.035
    1   AR   Ar   82   1.912   3.533   1.191
    1   AR   Ar   83   2.757   1.978   1.347
    1   AR   Ar   84   2.081   2.824  -0.228
    1   AR   Ar   85   1.463   1.661   1.878
    1   AR   Ar   86   1.775   2.658   2.799
    1   AR   Ar   87   2.278   1.448   2.394
    1   AR   Ar   88   2.752   3.371   1.836
    1   AR   Ar   89   1.014   1.737   2.753
    1   AR   Ar   90   2.634   3.073   4.398
    1   AR   Ar   91   2.432   1.987   4.650
    1   AR   Ar   92   2.027   2.118   3.603
    1   AR   Ar   93   1.763   1.614   5.550
    1   AR   Ar   94   2.537   2.611   6.902
    1   AR   Ar   95   2.540   1.394   6.304
    1   AR   Ar   96   2.333   2.584   5.623
    1   AR   Ar   97   1.907   4.103  -0.056
    1   AR   Ar   98   2.274   4.603   1.729
    1   AR   Ar   99   3.008   3.393   0.233
    1   AR   Ar  100   2.531   5.019  -0.335
    1   AR   Ar  101   1.227   3.065   1.853
    1   AR   Ar  102   1.777   4.720   3.052
    1   AR   Ar  103   2.211   3.830   2.666
    1   AR   Ar  104   3.114   4.132   0.955
    1   AR   Ar  105   2.098   3.319   3.530
    1   AR   Ar  106   1.624   3.958   4.278
    1   AR   Ar  107   2.520   4.286   4.897
    1   AR   Ar  108   2.749   4.092   3.701
    1   AR   Ar  109   0.767   3.852   4.983
    1   AR   Ar  110   1.788   3.614   5.465
    1   AR   Ar  111   3.361   4.600   6.435
    1   AR   Ar  112   2.354   4.374   6.450
    1   AR   Ar  113   2.039   5.174   0.717
    1   AR   Ar  114   1.631   6.174   0.988
    1   AR   Ar  115   2.975   5.427   1.006
    1   AR   Ar  116   3.183   0.363  -0.216
    1   AR   Ar  117   1.316   5.258   2.230
    1   AR   Ar  118   1.734   6.213   2.833
    1   AR   Ar  119   2.584   5.138   2.566
    1   AR   Ar  120   2.109   5.818   1.835
    1   AR   Ar  121   1.353   5.532   3.698
    1   AR   Ar  122   2.197   6.433   4.214
    1   AR   Ar  123   2.442   5.415   4.344
    1   AR   Ar  124   2.664   6.636   3.244
    1   AR   Ar  125   1.494   4.693   5.083
    1   AR   Ar  126   1.316   6.776   6.206
    1   AR   Ar  127   2.611   5.222   7.078
    1   AR   Ar  128   2.498   6.430   5.887
    1   AR   Ar  129   3.497   0.211   0.711
    1   AR   Ar  130   4.390   0.485   0.463
    1   AR   Ar  131   4.553   6.813   1.262
    1   AR   Ar  132   3.778   1.459  -0.334
    1   AR   Ar  133   3.756   6.873   2.382
    1   AR   Ar  134   3.409   1.036   2.521
    1   AR   Ar  135   4.786   0.128   2.469
    1   AR   Ar  136   3.946   0.594   1.593
    1   AR   Ar  137   3.416   0.337   3.294
    1   AR   Ar  138   3.568   0.917   4.495
    1   AR   Ar  139   4.144   7.036   4.218
    1   AR   Ar  140   4.311   0.898   3.608
    1   AR   Ar  141   3.047   0.013   5.082
    1   AR   Ar  142   3.364   0.705   6.096
    1   AR   Ar  143   3.947   6.888   6.222
    1   AR   Ar  144   4.916   1.209   6.134
    1   AR   Ar  145   3.489   2.185   0.308
    1   AR   Ar  146   3.647   3.103   1.320
    1   AR   Ar  147   4.381   2.260   0.907
    1   AR   Ar  148   5.374   2.413  -0.561
    1   AR   Ar  149   3.728   1.632   1.578
    1   AR   Ar  150   3.003   2.197   2.697
    1   AR   Ar  151   4.334   1.641   2.785
    1   AR   Ar  152   3.971   2.500   2.408
    1   AR   Ar  153   2.998   1.860   3.751
    1   AR   Ar  154   3.682   2.634   4.222
    1   AR   Ar  155   4.546   2.175   4.834
    1   AR   Ar  156   4.687   3.508   4.149
    1   AR   Ar  157   3.543   2.059   5.223
    1   AR   Ar  158   3.209   2.254   6.257
    1   AR   Ar  159   4.086   1.063   6.720
    1   AR   Ar  160   4.360   2.874   5.575
    1   AR   Ar  161   4.029   2.955  -0.263
    1   AR   Ar  162   3.927   4.945   0.498
    1   AR   Ar  163   4.570   3.252   0.828
    1   AR   Ar  164   5.158   5.004   0.769
    1   AR   Ar  165   3.598   3.576   2.452
    1   AR   Ar  166   3.632   4.770   3.132
    1   AR   Ar  167   4.321   3.054   3.183
    1   AR   Ar  168   4.021   4.317   1.581
    1   AR   Ar  169   3.059   3.144   3.229
    1   AR   Ar  170   3.365   4.758   4.395
    1   AR   Ar  171   3.636   3.561   4.896
    1   AR   Ar  172   4.532   4.550   3.919
    1   AR   Ar  173   3.224   3.262   5.899
    1   AR   Ar  174   4.395   5.296   6.178
    1   AR   Ar  175   4.255   3.941   5.648
    1   AR   Ar  176   4.095   4.813   5.237
    1   AR   Ar  177   4.523   5.589   0.011
    1   AR   Ar  178   3.708   6.078   1.647
    1   AR   Ar  179   4.424   5.276   1.404
    1   AR   Ar  180   4.190   6.684   0.105
    1   AR   Ar  181   3.366   5.101   2.001
    1   AR   Ar  182   2.865   6.311   2.287
    1   AR   Ar  183   4.360   5.128   2.400
    1   AR   Ar  184   4.603   6.130   2.485
    1   AR   Ar  185   2.975   5.610   3.387
    1   AR   Ar  186   3.393   6.250   4.328
    1   AR   Ar  187   4.852   5.404   3.575
    1   AR   Ar  188   3.835   6.312   3.411
    1   AR   Ar  189   3.117   5.352   5.275
    1   AR   Ar  190   3.371   6.397   7.129
    1   AR   Ar  191   4.876   5.892   5.487
    1   AR   Ar  192   4.371   6.674   5.133
    1   AR   Ar  193   5.333   0.178   0.456
    1   AR   Ar  194   4.711   1.334   1.225
    1   AR   Ar  195   6.014   0.989   0.610
    1   AR   Ar  196   5.225   1.245  -0.007
    1   AR   Ar  197   5.425   0.139   1.708
    1   AR   Ar  198   5.442   1.237   1.887
    1   AR   Ar  199   6.322   0.427   2.290
    1   AR   Ar  200   6.659   1.502   1.279
    1   AR   Ar  201   4.920   6.654   3.667
    1   AR   Ar  202   5.022   1.065   4.252
    1   AR   Ar  203   6.696   6.562   4.896
    1   AR   Ar  204   6.164   0.307   3.475
    1   AR   Ar  205   5.157   7.094   4.521
    1   AR   Ar  206   5.010   6.909   5.862
    1   AR   Ar  207   6.234   6.965   5.803
    1   AR   Ar  208   6.079   0.682   4.860
    1   AR   Ar  209   6.622   2.269  -0.517
    1   AR   Ar  210   5.369   2.264   1.354
    1   AR   Ar  211   6.159   2.170   0.411
    1   AR   Ar  212   6.697   3.125  -0.054
    1   AR   Ar  213   5.110   2.430   2.465
    1   AR   Ar  214   4.666   3.241   1.960
    1   AR   Ar  215   6.194   1.696   2.260
    1   AR   Ar  216   6.544   2.527   1.589
    1   AR   Ar  217   4.561   2.220   3.651
    1   AR   Ar  218   5.423   2.432   4.432
    1   AR   Ar  219   6.166   1.445   4.170
    1   AR   Ar  220   6.024   2.790   3.024
    1   AR   Ar  221   5.275   1.600   5.236
    1   AR   Ar  222   4.572   2.139   6.188
    1   AR   Ar  223   6.320   1.681   6.464
    1   AR   Ar  224   6.377   2.797   5.508
    1   AR   Ar  225   5.258   3.880   0.100
    1   AR   Ar  226   5.053   4.385   1.910
    1   AR   Ar  227   6.940   3.434   1.445
    1   AR   Ar  228   5.866   5.261  -0.241
    1   AR   Ar  229   5.827   3.190   0.756
    1   AR   Ar  230   4.409   4.042   2.767
    1   AR   Ar  231   6.769   3.295   3.648
    1   AR   Ar  232   5.784   3.426   2.174
    1   AR   Ar  233   5.637   3.274   3.801
    1   AR   Ar  234   5.900   4.207   4.017
    1   AR   Ar  235   6.932   3.707   4.564
    1   AR   Ar  236   6.825   4.503   3.334
    1   AR   Ar  237   5.437   2.905   5.394
    1   AR   Ar  238   5.137   4.430   6.143
    1   AR   Ar  239   5.624   3.883   7.449
    1   AR   Ar  240   6.079   4.039   5.826
    1   AR   Ar  241   6.323   6.624  -0.251
    1   AR   Ar  242   5.403   6.093   1.499
    1   AR   Ar  243   6.111   4.455   2.150
    1   AR   Ar  244   6.210   6.977   0.878
    1   AR   Ar  245   5.592   5.348   2.236
    1   AR   Ar  246   5.614   6.489   2.840
    1   AR   Ar  247   5.905   3.967   3.087
    1   AR   Ar  248   6.147   6.572   1.976
    1   AR   Ar  249   6.297   5.580   3.106
    1   AR   Ar  250   5.289   5.949   4.433
    1   AR   Ar  251   6.352   5.287   4.218
    1   AR   Ar  252   6.203   6.309   3.898
    1   AR   Ar  253   5.279   5.032   4.986
    1   AR   Ar  254   5.183   6.024   6.628
    1   AR   Ar  255   5.898   5.211   6.011
    1   AR   Ar  256   5.905   5.937   5.363
    7.12000  7.12000 12.00000
Argon-slab step 470
  256
    1   AR   Ar    1   0.303   0.543  -0.309
    1   AR   Ar    2   6.974   0.551   0.838
    1   AR   Ar    3   0.588   6.384   0.616
    1   AR   Ar    4   0.937   0.369   0.672
    1   AR   Ar    5   7.037   6.840   1.535
    1   AR   Ar    6   0.031   0.393   3.022
    1   AR   Ar    7   0.693   6.978   2.513
    1   AR   Ar    8   1.080   6.777   1.464
    1   AR   Ar    9   0.258   0.036   4.252
    1   AR   Ar   10   7.084   1.006   4.446
    1   AR   Ar   11   1.233   0.287   4.292
    1   AR   Ar   12   0.785   1.097   3.691
    1   AR   Ar   13   0.115   0.354   5.276
    1   AR   Ar   14   0.169   1.179   5.879
    1   AR   Ar   15   2.315   0.162   7.972
    1   AR   Ar   16   1.081   0.780   5.232
    1   AR   Ar   17   6.696   1.259  -0.279
    1   AR   Ar   18   0.202   2.363   0.509
    1   AR   Ar   19   0.772   1.657   1.164
    1   AR   Ar   20   0.615   2.235  -0.678
    1   AR   Ar   21   0.336   0.958   1.933
    1   AR   Ar   22   6.920   2.570   2.769
    1   AR   Ar   23   7.115   1.494   2.896
    1   AR   Ar   24   0.457   2.276   1.949
    1   AR   Ar   25   0.108   1.914   3.835
    1   AR   Ar   26   6.550   2.505   4.491
    1   AR   Ar   27   0.481   1.683   4.956
    1   AR   Ar   28   1.164   2.555   3.944
    1   AR   Ar   29   6.384   1.608   5.470
    1   AR   Ar   30   0.131   2.434   5.999
    1   AR   Ar   31   0.686   0.783   7.233
    1   AR   Ar   32   1.031   2.360   5.489
    1   AR   Ar   33   0.448   3.417  -0.583
    1   AR   Ar   34   0.117   4.859   1.129
    1   AR   Ar   35   0.597   3.252   0.683
    1   AR   Ar   36   1.645   5.390  -0.881
    1   AR   Ar   37   6.950   3.685   2.603
    1   AR   Ar   38   0.228   4.719   2.440
    1   AR   Ar   39   1.155   3.552   2.780
    1   AR   Ar   40   0.921   4.210   1.770
    1   AR   Ar   41   0.802   2.690   3.012
    1   AR   Ar   42   6.863   4.681   4.946
    1   AR   Ar   43   0.227   2.719   4.953
    1   AR   Ar   44   0.630   3.514   3.727
    1   AR   Ar   45   7.002   3.661   5.773
    1   AR   Ar   46   7.076   4.586   6.622
    1   AR   Ar   47   0.987   3.805   6.847
    1   AR   Ar   48   0.963   4.472   5.962
    1   AR   Ar   49   0.001   4.058   0.177
    1   AR   Ar   50   6.206   5.564   0.818
    1   AR   Ar   51   1.224   4.615   0.768
    1   AR   Ar   52   1.209   5.532   0.344
    1   AR   Ar   53   6.870   5.840   1.977
    1   AR   Ar   54   0.063   6.493   3.242
    1   AR   Ar   55   0.479   5.608   2.922
    1   AR   Ar   56   0.856   5.649   1.376
    1   AR   Ar   57   0.828   4.737   4.284
    1   AR   Ar   58   0.157   6.004   4.358
    1   AR   Ar   59   1.290   5.959   4.605
    1   AR   Ar   60   0.957   6.503   3.767
    1   AR   Ar   61   6.942   6.108   5.798
    1   AR   Ar   62   0.868   5.573   5.693
    1   AR   Ar   63   1.943   5.482   5.556
    1   AR   Ar   64   0.882   6.810   5.193
    1   AR   Ar   65   1.408   6.524  -0.028
    1   AR   Ar   66   1.938   0.814   1.204
    1   AR   Ar   67   2.476   6.140   0.178
    1   AR   Ar   68   3.079   1.197   0.623
    1   AR   Ar   69   2.242   6.957   0.914
    1   AR   Ar   70   1.178   0.761   2.328
    1   AR   Ar   71   1.979   7.027   1.976
    1   AR   Ar   72   2.777   0.725   1.710
    1   AR   Ar   73   1.483   0.275   3.190
    1   AR   Ar   74   1.320   1.603   4.355
    1   AR   Ar   75   2.511   0.572   4.151
    1   AR   Ar   76   1.947   1.163   3.391
    1   AR   Ar   77   1.956   0.156   5.036
    1   AR   Ar   78   1.798   0.569   5.991
    1   AR   Ar   79   2.797   0.082   6.587
    1   AR   Ar   80   2.717   1.109   5.224
    1   AR   Ar   81   1.981   1.314   0.027
    1   AR   Ar   82   1.906   3.533   1.176
    1   AR   Ar   83   2.743   1.991   1.335
    1   AR   Ar   84   2.101   2.836  -0.194
    1   AR   Ar   85   1.458   1.636   1.855
    1   AR   Ar   86   1.801   2.649   2.811
    1   AR   Ar   87   2.274   1.438   2.378
    1   AR   Ar   88   2.784   3.362   1.855
    1   AR   Ar   89   1.022   1.755   2.752
    1   AR   Ar   90   2.607   3.072   4.423
    1   AR   Ar   91   2.442   1.992   4.653
    1   AR   Ar   92   1.992   2.113   3.595
    1   AR   Ar   93   1.782   1.585   5.567
    1   AR   Ar   94   2.549   2.604   6.900
    1   AR   Ar   95   2.537   1.409   6.356
    1   AR   Ar   96   2.324   2.575   5.621
    1   AR   Ar   97   1.918   4.107  -0.044
    1   AR   Ar   98   2.332   4.593   1.723
    1   AR   Ar   99   3.007   3.413   0.212
    1   AR   Ar  100   2.511   5.068  -0.326
    1   AR   Ar  101   1.205   3.057   1.845
    1   AR   Ar  102   1.787   4.706   3.069
    1   AR   Ar  103   2.176   3.844   2.654
    1   AR   Ar  104   3.121   4.099   0.913
    1   AR   Ar  105   2.113   3.325   3.561
    1   AR   Ar  106   1.618   3.943   4.287
    1   AR   Ar  107   2.535   4.297   4.911
    1   AR   Ar  108   2.754   4.104   3.697
    1   AR   Ar  109   0.779   3.876   4.960
    1   AR   Ar  110   1.790   3.591   5.466
    1   AR   Ar  111   3.348   4.624   6.419
    1   AR   Ar  112   2.356   4.370   6.474
    1   AR   Ar  113   2.057   5.179   0.718
    1   AR   Ar  114   1.666   6.169   0.957
    1   AR   Ar  115   2.982   5.422   1.039
    1   AR   Ar  116   3.141   0.377  -0.252
    1   AR   Ar  117   1.290   5.255   2.233
    1   AR   Ar  118   1.736   6.214   2.828
    1   AR   Ar  119   2.568   5.124   2.543
    1   AR   Ar  120   2.118   5.782   1.859
    1   AR   Ar  121   1.352   5.520   3.694
    1   AR   Ar  122   2.183   6.455   4.205
    1   AR   Ar  123   2.451   5.436   4.374
    1   AR   Ar  124   2.680   6.658   3.225
    1   AR   Ar  125   1.477   4.706   5.085
    1   AR   Ar  126   1.331   6.708   6.218
    1   AR   Ar  127   2.604   5.240   7.080
    1   AR   Ar  128   2.492   6.466   5.906
    1   AR   Ar  129   3.504   0.180   0.681
    1   AR   Ar  130   4.410   0.515   0.421
    1   AR   Ar  131   4.521   6.817   1.234
    1   AR   Ar  132   3.793   1.449  -0.308
    1   AR   Ar  133   3.741   6.849   2.375
    1   AR   Ar  134   3.394   1.009   2.538
    1   AR   Ar  135   4.767   0.138   2.476
    1   AR   Ar  136   3.949   0.593   1.565
    1   AR   Ar  137   3.414   0.341   3.312
    1   AR   Ar  138   3.586   0.907   4.479
    1   AR   Ar  139   4.125   7.017   4.226
    1   AR   Ar  140   4.304   0.906   3.608
    1   AR   Ar  141   3.066   7.117   5.055
    1   AR   Ar  142   3.360   0.677   6.107
    1   AR   Ar  143   3.935   6.871   6.168
    1   AR   Ar  144   4.920   1.205   6.127
    1   AR   Ar  145   3.515   2.198   0.309
    1   AR   Ar  146   3.637   3.124   1.328
    1   AR   Ar  147   4.393   2.231   0.893
    1   AR   Ar  148   5.359   2.423  -0.559
    1   AR   Ar  149   3.716   1.620   1.575
    1   AR   Ar  150   3.015   2.182   2.706
    1   AR   Ar  151   4.358   1.614   2.762
    1   AR   Ar  152   3.954   2.531   2.413
    1   AR   Ar  153   3.007   1.845   3.770
    1   AR   Ar  154   3.684   2.625   4.210
    1   AR   Ar  155   4.525   2.159   4.853
    1   AR   Ar  156   4.714   3.526   4.093
    1   AR   Ar  157   3.528   2.112   5.239
    1   AR   Ar  158   3.196   2.245   6.243
    1   AR   Ar  159   4.072   1.072   6.717
    1   AR   Ar  160   4.368   2.892   5.581
    1   AR   Ar  161   4.028   2.989  -0.245
    1   AR   Ar  162   3.955   4.974   0.505
    1   AR   Ar  163   4.550   3.256   0.817
    1   AR   Ar  164   5.166   4.998   0.757
    1   AR   Ar  165   3.581   3.580   2.453
    1   AR   Ar  166   3.608   4.779   3.121
    1   AR   Ar  167   4.313   3.052   3.199
    1   AR   Ar  168   3.994   4.311   1.543
    1   AR   Ar  169   3.048   3.135   3.271
    1   AR   Ar  170   3.381   4.765   4.390
    1   AR   Ar  171   3.633   3.556   4.893
    1   AR   Ar  172   4.536   4.558   3.943
    1   AR   Ar  173   3.254   3.254   5.898
    1   AR   Ar  174   4.394   5.301   6.159
    1   AR   Ar  175   4.236   3.933   5.647
    1   AR   Ar  176   4.049   4.798   5.241
    1   AR   Ar  177   4.548   5.595   0.028
    1   AR   Ar  178   3.723   6.072   1.642
    1   AR   Ar  179   4.413   5.293   1.391
    1   AR   Ar  180   4.163   6.672   0.101
    1   AR   Ar  181   3.365   5.073   1.978
    1   AR   Ar  182   2.849   6.323   2.261
    1   AR   Ar  183   4.357   5.158   2.412
    1   AR   Ar  184   4.621   6.100   2.505
    1   AR   Ar  185   2.967   5.604   3.403
    1   AR   Ar  186   3.393   6.260   4.335
    1   AR   Ar  187   4.851   5.391   3.555
    1   AR   Ar  188   3.801   6.263   3.404
    1   AR   Ar  189   3.092   5.335   5.271
    1   AR   Ar  190   3.385   6.387   7.131
    1   AR   Ar  191   4.835   5.911   5.479
    1   AR   Ar  192   4.395   6.666   5.129
    1   AR   Ar  193   5.332   0.172   0.441
    1   AR   Ar  194   4.745   1.344   1.198
    1   AR   Ar  195   6.033   0.982   0.641
    1   AR   Ar  196   5.239   1.250  -0.037
    1   AR   Ar  197   5.425   0.154   1.677
    1   AR   Ar  198   5.419   1.275   1.848
    1   AR   Ar  199   6.339   0.436   2.273
    1   AR   Ar  200   6.660   1.509   1.281
    1   AR   Ar  201   4.913   6.661   3.631
    1   AR   Ar  202   5.030   1.081   4.251
    1   AR   Ar  203   6.706   6.594   4.926
    1   AR   Ar  204   6.200   0.286   3.476
    1   AR   Ar  205   5.150   7.103   4.534
    1   AR   Ar  206   5.018   6.887   5.852
    1   AR   Ar  207   6.258   6.965   5.809
    1   AR   Ar  208   6.065   0.716   4.838
    1   AR   Ar  209   6.648   2.251  -0.507
    1   AR   Ar  210   5.386   2.272   1.368
    1   AR   Ar  211   6.129   2.176   0.414
    1   AR   Ar  212   6.722   3.155  -0.044
    1   AR   Ar  213   5.109   2.426   2.470
    1   AR   Ar  214   4.615   3.241   1.960
    1   AR   Ar  215   6.166   1.720   2.291
    1   AR   Ar  216   6.546   2.559   1.596
    1   AR   Ar  217   4.560   2.200   3.644
    1   AR   Ar  218   5.443   2.419   4.460
    1   AR   Ar  219   6.123   1.444   4.172
    1   AR   Ar  220   6.002   2.797   3.004
    1   AR   Ar  221   5.271   1.599   5.248
    1   AR   Ar  222   4.562   2.153   6.195
    1   AR   Ar  223   6.315   1.647   6.488
    1   AR   Ar  224   6.379   2.805   5.511
    1   AR   Ar  225   5.232   3.874   0.082
    1   AR   Ar  226   5.042   4.375   1.890
    1   AR   Ar  227   6.945   3.447   1.484
    1   AR   Ar  228   5.906   5.264  -0.234
    1   AR   Ar  229   5.848   3.186   0.755
    1   AR   Ar  230   4.447   4.062   2.782
    1   AR   Ar  231   6.756   3.309   3.663
    1   AR   Ar  232   5.769   3.459   2.136
    1   AR   Ar  233   5.642   3.243   3.802
    1   AR   Ar  234   5.934   4.188   4.028
    1   AR   Ar  235   6.920   3.717   4.601
    1   AR   Ar  236   6.807   4.502   3.362
    1   AR   Ar  237   5.447   2.910   5.398
    1   AR   Ar  238   5.136   4.448   6.136
    1   AR   Ar  239   5.586   3.869   7.458
    1   AR   Ar  240   6.103   4.034   5.816
    1   AR   Ar  241   6.352   6.669  -0.252
    1   AR   Ar  242   5.365   6.118   1.514
    1   AR   Ar  243   6.143   4.460   2.142
    1   AR   Ar  244   6.219   7.040   0.881
    1   AR   Ar  245   5.584   5.329   2.249
    1   AR   Ar  246   5.585   6.478   2.866
    1   AR   Ar  247   5.935   3.951   3.072
    1   AR   Ar  248   6.145   6.561   1.970
    1   AR   Ar  249   6.298   5.547   3.075
    1   AR   Ar  250   5.289   5.938   4.441
    1   AR   Ar  251   6.349   5.286   4.200
    1   AR   Ar  252   6.199   6.322   3.914
    1   AR   Ar  253   5.266   5.040   4.991
    1   AR   Ar  254   5.195   6.032   6.631
    1   AR   Ar  255   5.914   5.193   5.971
    1   AR   Ar  256   5.915   5.940   5.376
    7.12000  7.12000 12.00000
Argon-slab step 475
  256
    1   AR   Ar    1   0.344   0.553  -0.337
    1   AR   Ar    2   6.967   0.584   0.823
    1   AR   Ar    3   0.604   6.368   0.630
    1   AR   Ar    4   0.915   0.363   0.653
    1   AR   Ar    5   7.056   6.813   1.517
    1   AR   Ar    6   0.006   0.392   3.031
    1   AR   Ar    7   0.717   6.971   2.485
    1   AR   Ar    8   1.067   6.798   1.461
    1   AR   Ar    9   0.256   0.027   4.249
    1   AR   Ar   10   7.120   0.998   4.456
    1   AR   Ar   11   1.241   0.301   4.308
    1   AR   Ar   12   0.778   1.102   3.684
    1   AR   Ar   13   0.114   0.376   5.253
    1   AR   Ar   14   0.147   1.158   5.856
    1   AR   Ar   15   2.311   0.187   7.942
    1   AR   Ar   16   1.100   0.774   5.256
    1   AR   Ar   17   6.670   1.256  -0.286
    1   AR   Ar   18   0.175   2.358   0.514
    1   AR   Ar   19   0.768   1.687   1.191
    1   AR   Ar   20   0.602   2.227  -0.655
    1   AR   Ar   21   0.325   0.938   1.928
    1   AR   Ar   22   6.903   2.568   2.801
    1   AR   Ar   23   7.087   1.503   2.890
    1   AR   Ar   24   0.475   2.280   1.966
    1   AR   Ar   25   0.103   1.904   3.856
    1   AR   Ar   26   6.590   2.483   4.499
    1   AR   Ar   27   0.447   1.694   4.962
    1   AR   Ar   28   1.138   2.567   3.941
    1   AR   Ar   29   6.385   1.596   5.494
    1   AR   Ar   30   0.113   2.445   5.988
    1   AR   Ar   31   0.707   0.785   7.219
    1   AR   Ar   32   0.996   2.384   5.500
    1   AR   Ar   33   0.450   3.399  -0.576
    1   AR   Ar   34   0.100   4.868   1.114
    1   AR   Ar   35   0.585   3.282   0.673
    1   AR   Ar   36   1.668   5.415  -0.882
    1   AR   Ar   37   6.926   3.691   2.623
    1   AR   Ar   38   0.225   4.690   2.458
    1   AR   Ar   39   1.151   3.536   2.810
    1   AR   Ar   40   0.888   4.202   1.771
    1   AR   Ar   41   0.781   2.694   3.002
    1   AR   Ar   42   6.846   4.709   4.966
    1   AR   Ar   43   0.237   2.708   4.958
    1   AR   Ar   44   0.614   3.524   3.729
    1   AR   Ar   45   6.992   3.705   5.770
    1   AR   Ar   46   7.087   4.585   6.607
    1   AR   Ar   47   0.983   3.830   6.885
    1   AR   Ar   48   0.982   4.498   5.961
    1   AR   Ar   49   0.013   4.069   0.176
    1   AR   Ar   50   6.226   5.557   0.821
    1   AR   Ar   51   1.198   4.600   0.748
    1   AR   Ar   52   1.203   5.538   0.372
    1   AR   Ar   53   6.880   5.852   1.967
    1   AR   Ar   54   0.057   6.484   3.266
    1   AR   Ar   55   0.459   5.612   2.921
    1   AR   Ar   56   0.821   5.652   1.386
    1   AR   Ar   57   0.795   4.747   4.260
    1   AR   Ar   58   0.150   6.007   4.391
    1   AR   Ar   59   1.306   5.948   4.621
    1   AR   Ar   60   0.934   6.509   3.769
    1   AR   Ar   61   6.913   6.091   5.795
    1   AR   Ar   62   0.877   5.541   5.653
    1   AR   Ar   63   1.967   5.503   5.533
    1   AR   Ar   64   0.899   6.782   5.168
    1   AR   Ar   65   1.445   6.497  -0.029
    1   AR   Ar   66   1.941   0.812   1.184
    1   AR   Ar   67   2.499   6.124   0.162
    1   AR   Ar   68   3.099   1.197   0.576
    1   AR   Ar   69   2.223   6.975   0.940
    1   AR   Ar   70   1.189   0.729   2.335
    1   AR   Ar   71   1.973   7.035   1.985
    1   AR   Ar   72   2.752   0.748   1.717
    1   AR   Ar   73   1.478   0.280   3.176
    1   AR   Ar   74   1.322   1.581   4.341
    1   AR   Ar   75   2.524   0.585   4.189
    1   AR   Ar   76   1.971   1.184   3.365
    1   AR   Ar   77   1.978   0.169   5.012
    1   AR   Ar   78   1.801   0.580   5.983
    1   AR   Ar   79   2.783   0.076   6.626
    1   AR   Ar   80   2.735   1.099   5.209
    1   AR   Ar   81   1.989   1.320   0.020
    1   AR   Ar   82   1.885   3.542   1.157
    1   AR   Ar   83   2.734   1.994   1.348
    1   AR   Ar   84   2.096   2.825  -0.205
    1   AR   Ar   85   1.460   1.617   1.827
    1   AR   Ar   86   1.830   2.646   2.806
    1   AR   Ar   87   2.277   1.425   2.368
    1   AR   Ar   88   2.807   3.354   1.872
    1   AR   Ar   89   1.019   1.740   2.736
    1   AR   Ar   90   2.583   3.071   4.453
    1   AR   Ar   91   2.450   1.997   4.658
    1   AR   Ar   92   1.966   2.113   3.599
    1   AR   Ar   93   1.801   1.556   5.582
    1   AR   Ar   94   2.554   2.602   6.904
    1   AR   Ar   95   2.534   1.422   6.408
    1   AR   Ar   96   2.342   2.581   5.609
    1   AR   Ar   97   1.929   4.111  -0.030
    1   AR   Ar   98   2.387   4.578   1.709
    1   AR   Ar   99   3.005   3.424   0.184
    1   AR   Ar  100   2.492   5.116  -0.315
    1   AR   Ar  101   1.183   3.047   1.837
    1   AR   Ar  102   1.792   4.693   3.092
    1   AR   Ar  103   2.146   3.856   2.638
    1   AR   Ar  104   3.128   4.076   0.880
    1   AR   Ar  105   2.111   3.327   3.592
    1   AR   Ar  106   1.613   3.928   4.296
    1   AR   Ar  107   2.555   4.320   4.922
    1   AR   Ar  108   2.763   4.106   3.694
    1   AR   Ar  109   0.790   3.899   4.941
    1   AR   Ar  110   1.792   3.569   5.467
    1   AR   Ar  111   3.342   4.649   6.400
    1   AR   Ar  112   2.351   4.364   6.495
    1   AR   Ar  113   2.085   5.182   0.720
    1   AR   Ar  114   1.708   6.153   0.925
    1   AR   Ar  115   2.995   5.419   1.073
    1   AR   Ar  116   3.097   0.392  -0.292
    1   AR   Ar  117   1.264   5.249   2.240
    1   AR   Ar  118   1.728   6.194   2.831
    1   AR   Ar  119   2.551   5.111   2.538
    1   AR   Ar  120   2.121   5.743   1.874
    1   AR   Ar  121   1.354   5.503   3.682
    1   AR   Ar  122   2.169   6.482   4.196
    1   AR   Ar  123   2.459   5.454   4.404
    1   AR   Ar  124   2.694   6.652   3.192
    1   AR   Ar  125   1.464   4.717   5.083
    1   AR   Ar  126   1.346   6.639   6.228
    1   AR   Ar  127   2.599   5.259   7.082
    1   AR   Ar  128   2.485   6.499   5.920
    1   AR   Ar  129   3.502   0.143   0.660
    1   AR   Ar  130   4.427   0.557   0.379
    1   AR   Ar  131   4.488   6.820   1.206
    1   AR   Ar  132   3.809   1.432  -0.285
    1   AR   Ar  133   3.729   6.829   2.371
    1   AR   Ar  134   3.379   0.988   2.551
    1   AR   Ar  135   4.746   0.148   2.487
    1   AR   Ar  136   3.954   0.590   1.539
    1   AR   Ar  137   3.412   0.341   3.336
    1   AR   Ar  138   3.604   0.896   4.463
    1   AR   Ar  139   4.100   7.005   4.226
    1   AR   Ar  140   4.289   0.911   3.600
    1   AR   Ar  141   3.084   7.101   5.029
    1   AR   Ar  142   3.364   0.660   6.101
    1   AR   Ar  143   3.961   6.863   6.164
    1   AR   Ar  144   4.929   1.193   6.121
    1   AR   Ar  145   3.536   2.215   0.316
    1   AR   Ar  146   3.630   3.144   1.335
    1   AR   Ar  147   4.402   2.207   0.879
    1   AR   Ar  148   5.372   2.419  -0.566
    1   AR   Ar  149   3.705   1.611   1.573
    1   AR   Ar  150   3.023   2.179   2.721
    1   AR   Ar  151   4.366   1.609   2.768
    1   AR   Ar  152   3.936   2.560   2.410
    1   AR   Ar  153   3.021   1.828   3.788
    1   AR   Ar  154   3.685   2.616   4.199
    1   AR   Ar  155   4.496   2.144   4.866
    1   AR   Ar  156   4.735   3.541   4.042
    1   AR   Ar  157   3.511   2.165   5.252
    1   AR   Ar  158   3.193   2.231   6.224
    1   AR   Ar  159   4.060   1.084   6.718
    1   AR   Ar  160   4.371   2.919   5.580
    1   AR   Ar  161   4.027   3.022  -0.226
    1   AR   Ar  162   3.973   4.993   0.518
    1   AR   Ar  163   4.533   3.265   0.803
    1   AR   Ar  164   5.178   4.990   0.743
    1   AR   Ar  165   3.567   3.586   2.455
    1   AR   Ar  166   3.584   4.785   3.110
    1   AR   Ar  167   4.304   3.061   3.215
    1   AR   Ar  168   3.968   4.301   1.506
    1   AR   Ar  169   3.045   3.123   3.311
    1   AR   Ar  170   3.397   4.771   4.381
    1   AR   Ar  171   3.628   3.551   4.885
    1   AR   Ar  172   4.533   4.556   3.974
    1   AR   Ar  173   3.272   3.259   5.893
    1   AR   Ar  174   4.391   5.303   6.145
    1   AR   Ar  175   4.221   3.917   5.657
    1   AR   Ar  176   4.002   4.796   5.240
    1   AR   Ar  177   4.582   5.610   0.039
    1   AR   Ar  178   3.738   6.067   1.636
    1   AR   Ar  179   4.402   5.315   1.379
    1   AR   Ar  180   4.136   6.657   0.096
    1   AR   Ar  181   3.373   5.044   1.949
    1   AR   Ar  182   2.837   6.336   2.235
    1   AR   Ar  183   4.352   5.174   2.427
    1   AR   Ar  184   4.641   6.083   2.525
    1   AR   Ar  185   2.958   5.595   3.418
    1   AR   Ar  186   3.385   6.264   4.329
    1   AR   Ar  187   4.855   5.393   3.525
    1   AR   Ar  188   3.772   6.217   3.389
    1   AR   Ar  189   3.067   5.315   5.257
    1   AR   Ar  190   3.399   6.378   7.132
    1   AR   Ar  191   4.806   5.912   5.476
    1   AR   Ar  192   4.398   6.672   5.114
    1   AR   Ar  193   5.336   0.163   0.424
    1   AR   Ar  194   4.763   1.346   1.154
    1   AR   Ar  195   6.047   0.976   0.671
    1   AR   Ar  196   5.250   1.257  -0.066
    1   AR   Ar  197   5.426   0.170   1.640
    1   AR   Ar  198   5.405   1.304   1.822
    1   AR   Ar  199   6.356   0.449   2.255
    1   AR   Ar  200   6.665   1.519   1.286
    1   AR   Ar  201   4.904   6.665   3.591
    1   AR   Ar  202   5.048   1.100   4.258
    1   AR   Ar  203   6.709   6.633   4.953
    1   AR   Ar  204   6.234   0.264   3.479
    1   AR   Ar  205   5.150   7.116   4.551
    1   AR   Ar  206   5.036   6.869   5.851
    1   AR   Ar  207   6.279   6.966   5.815
    1   AR   Ar  208   6.072   0.708   4.821
    1   AR   Ar  209   6.673   2.234  -0.502
    1   AR   Ar  210   5.405   2.281   1.382
    1   AR   Ar  211   6.098   2.181   0.420
    1   AR   Ar  212   6.741   3.182  -0.027
    1   AR   Ar  213   5.109   2.421   2.475
    1   AR   Ar  214   4.565   3.244   1.959
    1   AR   Ar  215   6.151   1.752   2.329
    1   AR   Ar  216   6.541   2.579   1.606
    1   AR   Ar  217   4.564   2.172   3.645
    1   AR   Ar  218   5.454   2.416   4.454
    1   AR   Ar  219   6.079   1.454   4.167
    1   AR   Ar  220   5.971   2.801   2.976
    1   AR   Ar  221   5.275   1.596   5.256
    1   AR   Ar  222   4.551   2.162   6.210
    1   AR   Ar  223   6.311   1.613   6.515
    1   AR   Ar  224   6.402   2.811   5.517
    1   AR   Ar  225   5.205   3.868   0.065
    1   AR   Ar  226   5.030   4.362   1.870
    1   AR   Ar  227   6.956   3.472   1.523
    1   AR   Ar  228   5.945   5.266  -0.225
    1   AR   Ar  229   5.869   3.181   0.754
    1   AR   Ar  230   4.481   4.105   2.790
    1   AR   Ar  231   6.734   3.321   3.672
    1   AR   Ar  232   5.756   3.500   2.093
    1   AR   Ar  233   5.646   3.209   3.811
    1   AR   Ar  234   5.971   4.178   4.053
    1   AR   Ar  235   6.905   3.722   4.640
    1   AR   Ar  236   6.790   4.502   3.392
    1   AR   Ar  237   5.433   2.918   5.401
    1   AR   Ar  238   5.132   4.465   6.128
    1   AR   Ar  239   5.569   3.857   7.474
    1   AR   Ar  240   6.113   4.034   5.804
    1   AR   Ar  241   6.380   6.714  -0.250
    1   AR   Ar  242   5.320   6.141   1.525
    1   AR   Ar  243   6.181   4.463   2.133
    1   AR   Ar  244   6.222   7.091   0.887
    1   AR   Ar  245   5.572   5.314   2.262
    1   AR   Ar  246   5.559   6.467   2.891
    1   AR   Ar  247   5.964   3.932   3.046
    1   AR   Ar  248   6.143   6.551   1.967
    1   AR   Ar  249   6.301   5.514   3.043
    1   AR   Ar  250   5.289   5.931   4.448
    1   AR   Ar  251   6.345   5.285   4.183
    1   AR   Ar  252   6.196   6.337   3.928
    1   AR   Ar  253   5.253   5.044   4.998
    1   AR   Ar  254   5.198   6.029   6.616
    1   AR   Ar  255   5.929   5.160   5.943
    1   AR   Ar  256   5.926   5.959   5.377
    7.12000  7.12000 12.00000
Argon-slab step 480
  256
    1   AR   Ar    1   0.386   0.561  -0.362
    1   AR   Ar    2   6.996   0.600   0.823
    1   AR   Ar    3   0.620   6.361   0.641
    1   AR   Ar    4   0.923   0.363   0.621
    1   AR   Ar    5   7.080   6.789   1.499
    1   AR   Ar    6   7.109   0.398   3.039
    1   AR   Ar    7   0.740   6.955   2.456
    1   AR   Ar    8   1.054   6.822   1.462
    1   AR   Ar    9   0.267   0.004   4.244
    1   AR   Ar   10   0.026   0.987   4.455
    1   AR   Ar   11   1.253   0.317   4.318
    1   AR   Ar   12   0.795   1.104   3.689
    1   AR   Ar   13   0.110   0.389   5.230
    1   AR   Ar   14   0.128   1.144   5.843
    1   AR   Ar   15   2.307   0.211   7.911
    1   AR   Ar   16   1.115   0.772   5.277
    1   AR   Ar   17   6.641   1.247  -0.289
    1   AR   Ar   18   0.206   2.338   0.510
    1   AR   Ar   19   0.747   1.714   1.196
    1   AR   Ar   20   0.629   2.238  -0.685
    1   AR   Ar   21   0.300   0.920   1.918
    1   AR   Ar   22   6.893   2.563   2.829
    1   AR   Ar   23   7.059   1.509   2.874
    1   AR   Ar   24   0.488   2.285   1.987
    1   AR   Ar   25   0.100   1.898   3.879
    1   AR   Ar   26   6.599   2.453   4.490
    1   AR   Ar   27   0.416   1.709   4.973
    1   AR   Ar   28   1.108   2.580   3.961
    1   AR   Ar   29   6.385   1.587   5.509
    1   AR   Ar   30   0.092   2.453   5.985
    1   AR   Ar   31   0.729   0.786   7.204
    1   AR   Ar   32   0.980   2.406   5.517
    1   AR   Ar   33   0.472   3.379  -0.553
    1   AR   Ar   34   0.084   4.875   1.099
    1   AR   Ar   35   0.569   3.341   0.659
    1   AR   Ar   36   1.687   5.442  -0.882
    1   AR   Ar   37   6.903   3.694   2.642
    1   AR   Ar   38   0.221   4.660   2.474
    1   AR   Ar   39   1.155   3.544   2.834
    1   AR   Ar   40   0.856   4.193   1.771
    1   AR   Ar   41   0.750   2.682   2.997
    1   AR   Ar   42   6.829   4.739   4.988
    1   AR   Ar   43   0.266   2.717   4.970
    1   AR   Ar   44   0.601   3.537   3.735
    1   AR   Ar   45   7.008   3.741   5.764
    1   AR   Ar   46   7.093   4.588   6.591
    1   AR   Ar   47   0.977   3.857   6.922
    1   AR   Ar   48   0.998   4.520   5.965
    1   AR   Ar   49   0.030   4.091   0.179
    1   AR   Ar   50   6.245   5.550   0.827
    1   AR   Ar   51   1.168   4.576   0.731
    1   AR   Ar   52   1.185   5.539   0.385
    1   AR   Ar   53   6.896   5.856   1.958
    1   AR   Ar   54   0.040   6.477   3.290
    1   AR   Ar   55   0.441   5.613   2.920
    1   AR   Ar   56   0.785   5.655   1.397
    1   AR   Ar   57   0.760   4.758   4.235
    1   AR   Ar   58   0.148   6.005   4.419
    1   AR   Ar   59   1.321   5.935   4.642
    1   AR   Ar   60   0.918   6.494   3.761
    1   AR   Ar   61   6.889   6.069   5.796
    1   AR   Ar   62   0.885   5.512   5.611
    1   AR   Ar   63   1.987   5.531   5.513
    1   AR   Ar   64   0.916   6.752   5.142
    1   AR   Ar   65   1.483   6.474  -0.034
    1   AR   Ar   66   1.928   0.817   1.158
    1   AR   Ar   67   2.523   6.108   0.148
    1   AR   Ar   68   3.119   1.197   0.530
    1   AR   Ar   69   2.215   7.002   0.964
    1   AR   Ar   70   1.213   0.703   2.339
    1   AR   Ar   71   1.967   7.043   1.998
    1   AR   Ar   72   2.740   0.768   1.729
    1   AR   Ar   73   1.487   0.287   3.168
    1   AR   Ar   74   1.334   1.563   4.338
    1   AR   Ar   75   2.538   0.598   4.224
    1   AR   Ar   76   1.995   1.189   3.338
    1   AR   Ar   77   2.004   0.178   4.991
    1   AR   Ar   78   1.805   0.559   5.996
    1   AR   Ar   79   2.761   0.066   6.674
    1   AR   Ar   80   2.753   1.086   5.194
    1   AR   Ar   81   1.999   1.326   0.016
    1   AR   Ar   82   1.860   3.554   1.137
    1   AR   Ar   83   2.725   1.997   1.361
    1   AR   Ar   84   2.083   2.810  -0.227
    1   AR   Ar   85   1.475   1.600   1.805
    1   AR   Ar   86   1.858   2.651   2.784
    1   AR   Ar   87   2.287   1.414   2.364
    1   AR   Ar   88   2.814   3.344   1.887
    1   AR   Ar   89   1.008   1.730   2.731
    1   AR   Ar   90   2.563   3.069   4.489
    1   AR   Ar   91   2.454   2.002   4.664
    1   AR   Ar   92   1.949   2.119   3.618
    1   AR   Ar   93   1.820   1.531   5.594
    1   AR   Ar   94   2.553   2.602   6.911
    1   AR   Ar   95   2.529   1.432   6.458
    1   AR   Ar   96   2.367   2.591   5.593
    1   AR   Ar   97   1.941   4.116  -0.014
    1   AR   Ar   98   2.440   4.559   1.686
    1   AR   Ar   99   3.000   3.421   0.144
    1   AR   Ar  100   2.475   5.162  -0.299
    1   AR   Ar  101   1.162   3.039   1.828
    1   AR   Ar  102   1.790   4.682   3.121
    1   AR   Ar  103   2.121   3.864   2.616
    1   AR   Ar  104   3.135   4.065   0.861
    1   AR   Ar  105   2.093   3.325   3.619
    1   AR   Ar  106   1.620   3.918   4.299
    1   AR   Ar  107   2.574   4.343   4.932
    1   AR   Ar  108   2.777   4.104   3.694
    1   AR   Ar  109   0.799   3.918   4.926
    1   AR   Ar  110   1.793   3.549   5.466
    1   AR   Ar  111   3.341   4.676   6.379
    1   AR   Ar  112   2.341   4.355   6.514
    1   AR   Ar  113   2.109   5.190   0.725
    1   AR   Ar  114   1.752   6.134   0.906
    1   AR   Ar  115   3.013   5.421   1.106
    1   AR   Ar  116   3.052   0.409  -0.332
    1   AR   Ar  117   1.239   5.239   2.252
    1   AR   Ar  118   1.716   6.162   2.842
    1   AR   Ar  119   2.536   5.101   2.546
    1   AR   Ar  120   2.117   5.704   1.879
    1   AR   Ar  121   1.357   5.485   3.667
    1   AR   Ar  122   2.171   6.499   4.221
    1   AR   Ar  123   2.464   5.470   4.433
    1   AR   Ar  124   2.696   6.632   3.151
    1   AR   Ar  125   1.455   4.728   5.077
    1   AR   Ar  126   1.362   6.570   6.236
    1   AR   Ar  127   2.595   5.278   7.083
    1   AR   Ar  128   2.475   6.531   5.930
    1   AR   Ar  129   3.495   0.106   0.645
    1   AR   Ar  130   4.437   0.607   0.338
    1   AR   Ar  131   4.455   6.824   1.177
    1   AR   Ar  132   3.824   1.412  -0.273
    1   AR   Ar  133   3.721   6.813   2.370
    1   AR   Ar  134   3.366   0.972   2.560
    1   AR   Ar  135   4.724   0.156   2.498
    1   AR   Ar  136   3.944   0.574   1.530
    1   AR   Ar  137   3.410   0.335   3.366
    1   AR   Ar  138   3.620   0.885   4.447
    1   AR   Ar  139   4.073   7.002   4.216
    1   AR   Ar  140   4.256   0.882   3.577
    1   AR   Ar  141   3.104   7.086   5.003
    1   AR   Ar  142   3.375   0.682   6.097
    1   AR   Ar  143   3.995   6.857   6.171
    1   AR   Ar  144   4.939   1.174   6.119
    1   AR   Ar  145   3.550   2.238   0.326
    1   AR   Ar  146   3.631   3.124   1.354
    1   AR   Ar  147   4.408   2.194   0.864
    1   AR   Ar  148   5.387   2.415  -0.570
    1   AR   Ar  149   3.696   1.605   1.572
    1   AR   Ar  150   3.026   2.175   2.736
    1   AR   Ar  151   4.317   1.618   2.783
    1   AR   Ar  152   3.915   2.584   2.401
    1   AR   Ar  153   3.037   1.809   3.803
    1   AR   Ar  154   3.686   2.609   4.187
    1   AR   Ar  155   4.465   2.129   4.875
    1   AR   Ar  156   4.733   3.554   4.059
    1   AR   Ar  157   3.492   2.218   5.261
    1   AR   Ar  158   3.196   2.213   6.204
    1   AR   Ar  159   4.049   1.099   6.724
    1   AR   Ar  160   4.370   2.947   5.574
    1   AR   Ar  161   4.028   3.057  -0.205
    1   AR   Ar  162   3.990   4.989   0.534
    1   AR   Ar  163   4.520   3.277   0.789
    1   AR   Ar  164   5.192   4.981   0.728
    1   AR   Ar  165   3.563   3.596   2.462
    1   AR   Ar  166   3.560   4.789   3.099
    1   AR   Ar  167   4.293   3.078   3.229
    1   AR   Ar  168   3.944   4.288   1.470
    1   AR   Ar  169   3.053   3.107   3.350
    1   AR   Ar  170   3.412   4.776   4.366
    1   AR   Ar  171   3.633   3.554   4.870
    1   AR   Ar  172   4.526   4.550   4.008
    1   AR   Ar  173   3.273   3.283   5.886
    1   AR   Ar  174   4.382   5.298   6.138
    1   AR   Ar  175   4.210   3.901   5.675
    1   AR   Ar  176   3.958   4.801   5.237
    1   AR   Ar  177   4.616   5.626   0.062
    1   AR   Ar  178   3.752   6.062   1.630
    1   AR   Ar  179   4.395   5.338   1.372
    1   AR   Ar  180   4.112   6.638   0.090
    1   AR   Ar  181   3.388   5.015   1.923
    1   AR   Ar  182   2.827   6.348   2.206
    1   AR   Ar  183   4.344   5.172   2.443
    1   AR   Ar  184   4.664   6.083   2.546
    1   AR   Ar  185   2.938   5.593   3.427
    1   AR   Ar  186   3.371   6.264   4.329
    1   AR   Ar  187   4.849   5.395   3.493
    1   AR   Ar  188   3.752   6.176   3.366
    1   AR   Ar  189   3.040   5.297   5.248
    1   AR   Ar  190   3.412   6.368   7.130
    1   AR   Ar  191   4.794   5.893   5.477
    1   AR   Ar  192   4.381   6.692   5.092
    1   AR   Ar  193   5.343   0.150   0.407
    1   AR   Ar  194   4.760   1.338   1.099
    1   AR   Ar  195   6.051   0.976   0.697
    1   AR   Ar  196   5.262   1.264  -0.094
    1   AR   Ar  197   5.427   0.188   1.600
    1   AR   Ar  198   5.408   1.326   1.816
    1   AR   Ar  199   6.374   0.464   2.236
    1   AR   Ar  200   6.673   1.534   1.296
    1   AR   Ar  201   4.886   6.669   3.558
    1   AR   Ar  202   5.069   1.120   4.271
    1   AR   Ar  203   6.708   6.676   4.972
    1   AR   Ar  204   6.261   0.241   3.486
    1   AR   Ar  205   5.155   0.011   4.568
    1   AR   Ar  206   5.063   6.857   5.858
    1   AR   Ar  207   6.296   6.971   5.826
    1   AR   Ar  208   6.080   0.691   4.811
    1   AR   Ar  209   6.696   2.223  -0.500
    1   AR   Ar  210   5.425   2.293   1.395
    1   AR   Ar  211   6.072   2.184   0.428
    1   AR   Ar  212   6.750   3.198  -0.007
    1   AR   Ar  213   5.106   2.414   2.480
    1   AR   Ar  214   4.518   3.253   1.956
    1   AR   Ar  215   6.142   1.790   2.370
    1   AR   Ar  216   6.529   2.590   1.616
    1   AR   Ar  217   4.570   2.139   3.651
    1   AR   Ar  218   5.446   2.425   4.403
    1   AR   Ar  219   6.038   1.473   4.155
    1   AR   Ar  220   5.933   2.805   2.941
    1   AR   Ar  221   5.287   1.595   5.260
    1   AR   Ar  222   4.540   2.167   6.228
    1   AR   Ar  223   6.302   1.602   6.519
    1   AR   Ar  224   6.432   2.817   5.521
    1   AR   Ar  225   5.179   3.862   0.050
    1   AR   Ar  226   5.019   4.350   1.848
    1   AR   Ar  227   6.972   3.507   1.561
    1   AR   Ar  228   5.983   5.269  -0.215
    1   AR   Ar  229   5.890   3.176   0.756
    1   AR   Ar  230   4.516   4.148   2.798
    1   AR   Ar  231   6.706   3.330   3.677
    1   AR   Ar  232   5.740   3.536   2.047
    1   AR   Ar  233   5.654   3.176   3.826
    1   AR   Ar  234   6.010   4.173   4.086
    1   AR   Ar  235   6.889   3.722   4.678
    1   AR   Ar  236   6.776   4.503   3.424
    1   AR   Ar  237   5.407   2.928   5.403
    1   AR   Ar  238   5.127   4.482   6.119
    1   AR   Ar  239   5.559   3.844   7.492
    1   AR   Ar  240   6.099   4.043   5.793
    1   AR   Ar  241   6.409   6.760  -0.247
    1   AR   Ar  242   5.269   6.160   1.533
    1   AR   Ar  243   6.224   4.468   2.123
    1   AR   Ar  244   6.218   0.006   0.898
    1   AR   Ar  245   5.556   5.302   2.276
    1   AR   Ar  246   5.546   6.452   2.908
    1   AR   Ar  247   5.990   3.911   3.018
    1   AR   Ar  248   6.139   6.546   1.968
    1   AR   Ar  249   6.306   5.483   3.013
    1   AR   Ar  250   5.288   5.928   4.452
    1   AR   Ar  251   6.341   5.283   4.164
    1   AR   Ar  252   6.194   6.353   3.942
    1   AR   Ar  253   5.241   5.043   5.007
    1   AR   Ar  254   5.200   6.024   6.597
    1   AR   Ar  255   5.946   5.117   5.922
    1   AR   Ar  256   5.935   5.990   5.368
    7.12000  7.12000 12.00000
Argon-slab step 485
  256
    1   AR   Ar    1   0.428   0.569  -0.386
    1   AR   Ar    2   7.052   0.603   0.832
    1   AR   Ar    3   0.630   6.360   0.649
    1   AR   Ar    4   0.927   0.347   0.589
    1   AR   Ar    5   7.106   6.768   1.479
    1   AR   Ar    6   7.108   0.409   3.041
    1   AR   Ar    7   0.757   6.929   2.432
    1   AR   Ar    8   1.044   6.846   1.465
    1   AR   Ar    9   0.278   7.096   4.236
    1   AR   Ar   10   0.042   0.975   4.438
    1   AR   Ar   11   1.266   0.335   4.323
    1   AR   Ar   12   0.804   1.097   3.679
    1   AR   Ar   13   0.107   0.389   5.211
    1   AR   Ar   14   0.114   1.140   5.841
    1   AR   Ar   15   2.303   0.236   7.878
    1   AR   Ar   16   1.124   0.773   5.294
    1   AR   Ar   17   6.610   1.229  -0.286
    1   AR   Ar   18   0.189   2.339   0.509
    1   AR   Ar   19   0.711   1.736   1.184
    1   AR   Ar   20   0.657   2.249  -0.714
    1   AR   Ar   21   0.271   0.903   1.906
    1   AR   Ar   22   6.884   2.557   2.855
    1   AR   Ar   23   7.034   1.511   2.858
    1   AR   Ar   24   0.485   2.294   1.971
    1   AR   Ar   25   0.100   1.894   3.899
    1   AR   Ar   26   6.588   2.419   4.473
    1   AR   Ar   27   0.390   1.728   4.989
    1   AR   Ar   28   1.075   2.596   3.987
    1   AR   Ar   29   6.382   1.581   5.512
    1   AR   Ar   30   0.073   2.453   5.992
    1   AR   Ar   31   0.750   0.788   7.188
    1   AR   Ar   32   0.991   2.422   5.542
    1   AR   Ar   33   0.501   3.358  -0.531
    1   AR   Ar   34   0.067   4.882   1.084
    1   AR   Ar   35   0.556   3.399   0.649
    1   AR   Ar   36   1.702   5.472  -0.884
    1   AR   Ar   37   6.888   3.693   2.659
    1   AR   Ar   38   0.215   4.632   2.490
    1   AR   Ar   39   1.164   3.568   2.853
    1   AR   Ar   40   0.826   4.181   1.768
    1   AR   Ar   41   0.718   2.660   2.993
    1   AR   Ar   42   6.810   4.757   4.986
    1   AR   Ar   43   0.296   2.711   4.932
    1   AR   Ar   44   0.591   3.552   3.745
    1   AR   Ar   45   7.046   3.772   5.759
    1   AR   Ar   46   7.080   4.611   6.579
    1   AR   Ar   47   0.972   3.884   6.957
    1   AR   Ar   48   1.011   4.538   5.975
    1   AR   Ar   49   0.048   4.126   0.184
    1   AR   Ar   50   6.264   5.545   0.834
    1   AR   Ar   51   1.138   4.545   0.718
    1   AR   Ar   52   1.158   5.531   0.385
    1   AR   Ar   53   6.886   5.842   2.001
    1   AR   Ar   54   0.012   6.474   3.313
    1   AR   Ar   55   0.426   5.612   2.918
    1   AR   Ar   56   0.749   5.659   1.410
    1   AR   Ar   57   0.722   4.769   4.208
    1   AR   Ar   58   0.148   6.000   4.444
    1   AR   Ar   59   1.339   5.918   4.664
    1   AR   Ar   60   0.914   6.464   3.747
    1   AR   Ar   61   6.870   6.042   5.801
    1   AR   Ar   62   0.892   5.487   5.568
    1   AR   Ar   63   2.004   5.522   5.531
    1   AR   Ar   64   0.932   6.726   5.118
    1   AR   Ar   65   1.521   6.454  -0.042
    1   AR   Ar   66   1.903   0.830   1.127
    1   AR   Ar   67   2.547   6.095   0.137
    1   AR   Ar   68   3.138   1.195   0.488
    1   AR   Ar   69   2.199   6.985   0.967
    1   AR   Ar   70   1.243   0.690   2.332
    1   AR   Ar   71   1.962   7.052   2.015
    1   AR   Ar   72   2.740   0.782   1.738
    1   AR   Ar   73   1.488   0.301   3.202
    1   AR   Ar   74   1.357   1.552   4.349
    1   AR   Ar   75   2.555   0.613   4.253
    1   AR   Ar   76   2.020   1.192   3.321
    1   AR   Ar   77   2.032   0.184   4.979
    1   AR   Ar   78   1.813   0.511   6.035
    1   AR   Ar   79   2.738   0.056   6.728
    1   AR   Ar   80   2.772   1.072   5.182
    1   AR   Ar   81   2.009   1.331   0.013
    1   AR   Ar   82   1.837   3.569   1.116
    1   AR   Ar   83   2.713   1.999   1.374
    1   AR   Ar   84   2.071   2.795  -0.247
    1   AR   Ar   85   1.500   1.584   1.786
    1   AR   Ar   86   1.885   2.660   2.752
    1   AR   Ar   87   2.260   1.404   2.370
    1   AR   Ar   88   2.801   3.334   1.899
    1   AR   Ar   89   0.997   1.725   2.732
    1   AR   Ar   90   2.547   3.068   4.529
    1   AR   Ar   91   2.457   2.006   4.672
    1   AR   Ar   92   1.943   2.119   3.637
    1   AR   Ar   93   1.839   1.511   5.603
    1   AR   Ar   94   2.549   2.603   6.919
    1   AR   Ar   95   2.524   1.439   6.508
    1   AR   Ar   96   2.393   2.601   5.578
    1   AR   Ar   97   1.953   4.121   0.003
    1   AR   Ar   98   2.490   4.535   1.657
    1   AR   Ar   99   2.993   3.408   0.094
    1   AR   Ar  100   2.463   5.203  -0.282
    1   AR   Ar  101   1.144   3.034   1.821
    1   AR   Ar  102   1.784   4.672   3.154
    1   AR   Ar  103   2.104   3.868   2.591
    1   AR   Ar  104   3.139   4.065   0.853
    1   AR   Ar  105   2.065   3.319   3.637
    1   AR   Ar  106   1.621   3.921   4.295
    1   AR   Ar  107   2.592   4.364   4.942
    1   AR   Ar  108   2.792   4.107   3.694
    1   AR   Ar  109   0.803   3.934   4.915
    1   AR   Ar  110   1.795   3.531   5.463
    1   AR   Ar  111   3.344   4.705   6.355
    1   AR   Ar  112   2.328   4.345   6.532
    1   AR   Ar  113   2.107   5.228   0.736
    1   AR   Ar  114   1.794   6.116   0.901
    1   AR   Ar  115   3.033   5.428   1.132
    1   AR   Ar  116   3.009   0.426  -0.371
    1   AR   Ar  117   1.213   5.226   2.268
    1   AR   Ar  118   1.702   6.130   2.851
    1   AR   Ar  119   2.527   5.090   2.565
    1   AR   Ar  120   2.105   5.667   1.871
    1   AR   Ar  121   1.360   5.469   3.650
    1   AR   Ar  122   2.184   6.511   4.269
    1   AR   Ar  123   2.465   5.487   4.457
    1   AR   Ar  124   2.697   6.616   3.119
    1   AR   Ar  125   1.452   4.739   5.064
    1   AR   Ar  126   1.379   6.501   6.241
    1   AR   Ar  127   2.599   5.292   7.081
    1   AR   Ar  128   2.464   6.560   5.935
    1   AR   Ar  129   3.481   0.072   0.635
    1   AR   Ar  130   4.413   0.625   0.327
    1   AR   Ar  131   4.424   6.827   1.147
    1   AR   Ar  132   3.836   1.393  -0.278
    1   AR   Ar  133   3.719   6.804   2.373
    1   AR   Ar  134   3.355   0.961   2.566
    1   AR   Ar  135   4.702   0.164   2.510
    1   AR   Ar  136   3.926   0.544   1.512
    1   AR   Ar  137   3.404   0.321   3.400
    1   AR   Ar  138   3.633   0.875   4.432
    1   AR   Ar  139   4.044   7.009   4.192
    1   AR   Ar  140   4.219   0.833   3.546
    1   AR   Ar  141   3.124   7.072   4.977
    1   AR   Ar  142   3.386   0.725   6.094
    1   AR   Ar  143   4.029   6.850   6.179
    1   AR   Ar  144   4.949   1.150   6.121
    1   AR   Ar  145   3.553   2.249   0.345
    1   AR   Ar  146   3.636   3.092   1.372
    1   AR   Ar  147   4.413   2.200   0.848
    1   AR   Ar  148   5.403   2.410  -0.572
    1   AR   Ar  149   3.687   1.600   1.572
    1   AR   Ar  150   3.019   2.158   2.735
    1   AR   Ar  151   4.266   1.625   2.794
    1   AR   Ar  152   3.893   2.599   2.390
    1   AR   Ar  153   3.053   1.789   3.816
    1   AR   Ar  154   3.687   2.606   4.178
    1   AR   Ar  155   4.435   2.114   4.880
    1   AR   Ar  156   4.729   3.562   4.086
    1   AR   Ar  157   3.472   2.274   5.259
    1   AR   Ar  158   3.203   2.195   6.190
    1   AR   Ar  159   4.041   1.117   6.734
    1   AR   Ar  160   4.364   2.965   5.562
    1   AR   Ar  161   4.029   3.092  -0.183
    1   AR   Ar  162   4.004   4.968   0.549
    1   AR   Ar  163   4.510   3.290   0.774
    1   AR   Ar  164   5.209   4.971   0.713
    1   AR   Ar  165   3.570   3.613   2.477
    1   AR   Ar  166   3.536   4.790   3.088
    1   AR   Ar  167   4.282   3.097   3.243
    1   AR   Ar  168   3.929   4.270   1.436
    1   AR   Ar  169   3.066   3.088   3.386
    1   AR   Ar  170   3.426   4.782   4.344
    1   AR   Ar  171   3.645   3.564   4.850
    1   AR   Ar  172   4.515   4.548   4.044
    1   AR   Ar  173   3.273   3.306   5.878
    1   AR   Ar  174   4.368   5.286   6.140
    1   AR   Ar  175   4.199   3.899   5.699
    1   AR   Ar  176   3.919   4.809   5.236
    1   AR   Ar  177   4.640   5.634   0.084
    1   AR   Ar  178   3.761   6.061   1.625
    1   AR   Ar  179   4.399   5.359   1.373
    1   AR   Ar  180   4.092   6.617   0.081
    1   AR   Ar  181   3.408   4.986   1.908
    1   AR   Ar  182   2.818   6.358   2.169
    1   AR   Ar  183   4.332   5.156   2.457
    1   AR   Ar  184   4.686   6.097   2.566
    1   AR   Ar  185   2.908   5.594   3.441
    1   AR   Ar  186   3.350   6.259   4.333
    1   AR   Ar  187   4.792   5.370   3.466
    1   AR   Ar  188   3.742   6.140   3.338
    1   AR   Ar  189   3.008   5.319   5.277
    1   AR   Ar  190   3.429   6.371   7.126
    1   AR   Ar  191   4.794   5.870   5.475
    1   AR   Ar  192   4.354   6.718   5.074
    1   AR   Ar  193   5.350   0.136   0.388
    1   AR   Ar  194   4.737   1.329   1.066
    1   AR   Ar  195   6.043   0.984   0.717
    1   AR   Ar  196   5.274   1.271  -0.119
    1   AR   Ar  197   5.420   0.196   1.579
    1   AR   Ar  198   5.420   1.341   1.821
    1   AR   Ar  199   6.392   0.481   2.215
    1   AR   Ar  200   6.684   1.554   1.309
    1   AR   Ar  201   4.853   6.677   3.539
    1   AR   Ar  202   5.086   1.140   4.285
    1   AR   Ar  203   6.713   6.700   4.976
    1   AR   Ar  204   6.274   0.214   3.500
    1   AR   Ar  205   5.142   0.018   4.573
    1   AR   Ar  206   5.095   6.847   5.868
    1   AR   Ar  207   6.308   6.982   5.843
    1   AR   Ar  208   6.089   0.669   4.806
    1   AR   Ar  209   6.717   2.222  -0.498
    1   AR   Ar  210   5.446   2.307   1.406
    1   AR   Ar  211   6.067   2.184   0.433
    1   AR   Ar  212   6.749   3.204   0.018
    1   AR   Ar  213   5.098   2.405   2.482
    1   AR   Ar  214   4.479   3.269   1.950
    1   AR   Ar  215   6.136   1.832   2.412
    1   AR   Ar  216   6.514   2.594   1.627
    1   AR   Ar  217   4.578   2.106   3.662
    1   AR   Ar  218   5.431   2.409   4.395
    1   AR   Ar  219   6.003   1.500   4.140
    1   AR   Ar  220   5.894   2.810   2.901
    1   AR   Ar  221   5.288   1.594   5.275
    1   AR   Ar  222   4.529   2.170   6.248
    1   AR   Ar  223   6.339   1.576   6.534
    1   AR   Ar  224   6.455   2.828   5.518
    1   AR   Ar  225   5.152   3.855   0.037
    1   AR   Ar  226   5.007   4.340   1.826
    1   AR   Ar  227   6.992   3.549   1.597
    1   AR   Ar  228   6.020   5.271  -0.205
    1   AR   Ar  229   5.911   3.174   0.760
    1   AR   Ar  230   4.535   4.161   2.810
    1   AR   Ar  231   6.675   3.337   3.682
    1   AR   Ar  232   5.724   3.565   2.000
    1   AR   Ar  233   5.666   3.155   3.837
    1   AR   Ar  234   6.048   4.168   4.121
    1   AR   Ar  235   6.870   3.719   4.714
    1   AR   Ar  236   6.765   4.507   3.457
    1   AR   Ar  237   5.378   2.938   5.403
    1   AR   Ar  238   5.119   4.497   6.110
    1   AR   Ar  239   5.548   3.832   7.509
    1   AR   Ar  240   6.067   4.057   5.780
    1   AR   Ar  241   6.437   6.807  -0.241
    1   AR   Ar  242   5.214   6.178   1.541
    1   AR   Ar  243   6.270   4.475   2.113
    1   AR   Ar  244   6.212   0.023   0.915
    1   AR   Ar  245   5.535   5.293   2.288
    1   AR   Ar  246   5.554   6.435   2.912
    1   AR   Ar  247   6.007   3.891   2.994
    1   AR   Ar  248   6.133   6.544   1.971
    1   AR   Ar  249   6.314   5.452   2.984
    1   AR   Ar  250   5.287   5.929   4.453
    1   AR   Ar  251   6.336   5.281   4.146
    1   AR   Ar  252   6.192   6.370   3.956
    1   AR   Ar  253   5.230   5.037   5.017
    1   AR   Ar  254   5.202   6.019   6.576
    1   AR   Ar  255   5.965   5.074   5.902
    1   AR   Ar  256   5.938   6.025   5.354
    7.12000  7.12000 12.00000
Argon-slab step 490
  256
    1   AR   Ar    1   0.469   0.576  -0.409
    1   AR   Ar    2   7.112   0.611   0.842
    1   AR   Ar    3   0.635   6.365   0.652
    1   AR   Ar    4   0.933   0.326   0.556
    1   AR   Ar    5   0.012   6.750   1.460
    1   AR   Ar    6   0.003   0.424   3.036
    1   AR   Ar    7   0.768   6.896   2.416
    1   AR   Ar    8   1.041   6.871   1.465
    1   AR   Ar    9   0.283   7.068   4.227
    1   AR   Ar   10   0.051   0.966   4.407
    1   AR   Ar   11   1.277   0.354   4.322
    1   AR   Ar   12   0.807   1.082   3.656
    1   AR   Ar   13   0.109   0.379   5.199
    1   AR   Ar   14   0.105   1.143   5.851
    1   AR   Ar   15   2.300   0.260   7.845
    1   AR   Ar   16   1.128   0.776   5.307
    1   AR   Ar   17   6.635   1.221  -0.269
    1   AR   Ar   18   0.158   2.346   0.507
    1   AR   Ar   19   0.672   1.749   1.160
    1   AR   Ar   20   0.685   2.261  -0.741
    1   AR   Ar   21   0.240   0.886   1.894
    1   AR   Ar   22   6.865   2.552   2.877
    1   AR   Ar   23   7.022   1.531   2.869
    1   AR   Ar   24   0.470   2.304   1.953
    1   AR   Ar   25   0.092   1.869   3.880
    1   AR   Ar   26   6.561   2.387   4.455
    1   AR   Ar   27   0.368   1.742   5.009
    1   AR   Ar   28   1.039   2.612   4.017
    1   AR   Ar   29   6.375   1.580   5.504
    1   AR   Ar   30   0.065   2.444   6.012
    1   AR   Ar   31   0.772   0.790   7.171
    1   AR   Ar   32   1.022   2.434   5.575
    1   AR   Ar   33   0.532   3.337  -0.510
    1   AR   Ar   34   0.050   4.887   1.071
    1   AR   Ar   35   0.548   3.451   0.645
    1   AR   Ar   36   1.710   5.504  -0.889
    1   AR   Ar   37   6.888   3.685   2.672
    1   AR   Ar   38   0.208   4.609   2.507
    1   AR   Ar   39   1.172   3.597   2.871
    1   AR   Ar   40   0.795   4.163   1.811
    1   AR   Ar   41   0.719   2.662   2.989
    1   AR   Ar   42   6.788   4.753   4.948
    1   AR   Ar   43   0.321   2.717   4.876
    1   AR   Ar   44   0.581   3.569   3.758
    1   AR   Ar   45   7.092   3.800   5.754
    1   AR   Ar   46   7.066   4.633   6.564
    1   AR   Ar   47   0.966   3.912   6.991
    1   AR   Ar   48   1.022   4.549   5.989
    1   AR   Ar   49   0.065   4.174   0.187
    1   AR   Ar   50   6.283   5.540   0.845
    1   AR   Ar   51   1.107   4.510   0.707
    1   AR   Ar   52   1.127   5.516   0.376
    1   AR   Ar   53   6.880   5.821   2.045
    1   AR   Ar   54   7.093   6.473   3.334
    1   AR   Ar   55   0.412   5.609   2.916
    1   AR   Ar   56   0.751   5.660   1.436
    1   AR   Ar   57   0.683   4.780   4.181
    1   AR   Ar   58   0.152   5.991   4.467
    1   AR   Ar   59   1.359   5.895   4.682
    1   AR   Ar   60   0.923   6.431   3.733
    1   AR   Ar   61   6.857   6.013   5.808
    1   AR   Ar   62   0.894   5.469   5.524
    1   AR   Ar   63   2.019   5.517   5.551
    1   AR   Ar   64   0.944   6.705   5.097
    1   AR   Ar   65   1.558   6.437  -0.055
    1   AR   Ar   66   1.872   0.848   1.095
    1   AR   Ar   67   2.574   6.093   0.132
    1   AR   Ar   68   3.155   1.193   0.450
    1   AR   Ar   69   2.194   6.979   0.969
    1   AR   Ar   70   1.274   0.689   2.314
    1   AR   Ar   71   1.957   7.061   2.034
    1   AR   Ar   72   2.746   0.790   1.741
    1   AR   Ar   73   1.489   0.306   3.247
    1   AR   Ar   74   1.387   1.545   4.371
    1   AR   Ar   75   2.576   0.631   4.270
    1   AR   Ar   76   2.047   1.199   3.322
    1   AR   Ar   77   2.058   0.185   4.981
    1   AR   Ar   78   1.826   0.460   6.076
    1   AR   Ar   79   2.725   0.063   6.742
    1   AR   Ar   80   2.792   1.058   5.172
    1   AR   Ar   81   2.021   1.335   0.012
    1   AR   Ar   82   1.814   3.586   1.096
    1   AR   Ar   83   2.700   2.000   1.388
    1   AR   Ar   84   2.059   2.781  -0.267
    1   AR   Ar   85   1.520   1.572   1.765
    1   AR   Ar   86   1.911   2.672   2.715
    1   AR   Ar   87   2.232   1.398   2.384
    1   AR   Ar   88   2.776   3.323   1.908
    1   AR   Ar   89   0.989   1.711   2.735
    1   AR   Ar   90   2.534   3.068   4.573
    1   AR   Ar   91   2.463   2.003   4.681
    1   AR   Ar   92   1.948   2.107   3.645
    1   AR   Ar   93   1.851   1.533   5.601
    1   AR   Ar   94   2.543   2.605   6.927
    1   AR   Ar   95   2.517   1.444   6.556
    1   AR   Ar   96   2.418   2.610   5.563
    1   AR   Ar   97   1.967   4.127   0.023
    1   AR   Ar   98   2.538   4.508   1.625
    1   AR   Ar   99   2.985   3.389   0.039
    1   AR   Ar  100   2.456   5.230  -0.264
    1   AR   Ar  101   1.132   3.037   1.813
    1   AR   Ar  102   1.809   4.653   3.157
    1   AR   Ar  103   2.095   3.869   2.561
    1   AR   Ar  104   3.138   4.068   0.846
    1   AR   Ar  105   2.033   3.306   3.646
    1   AR   Ar  106   1.601   3.938   4.287
    1   AR   Ar  107   2.607   4.384   4.952
    1   AR   Ar  108   2.807   4.113   3.695
    1   AR   Ar  109   0.800   3.945   4.908
    1   AR   Ar  110   1.795   3.514   5.458
    1   AR   Ar  111   3.350   4.732   6.347
    1   AR   Ar  112   2.315   4.333   6.542
    1   AR   Ar  113   2.108   5.243   0.745
    1   AR   Ar  114   1.825   6.105   0.910
    1   AR   Ar  115   3.050   5.443   1.146
    1   AR   Ar  116   2.966   0.445  -0.408
    1   AR   Ar  117   1.188   5.210   2.286
    1   AR   Ar  118   1.689   6.099   2.859
    1   AR   Ar  119   2.525   5.076   2.589
    1   AR   Ar  120   2.088   5.633   1.854
    1   AR   Ar  121   1.361   5.455   3.636
    1   AR   Ar  122   2.197   6.524   4.313
    1   AR   Ar  123   2.460   5.502   4.473
    1   AR   Ar  124   2.696   6.603   3.099
    1   AR   Ar  125   1.455   4.751   5.044
    1   AR   Ar  126   1.396   6.433   6.243
    1   AR   Ar  127   2.621   5.298   7.071
    1   AR   Ar  128   2.452   6.587   5.934
    1   AR   Ar  129   3.461   0.044   0.629
    1   AR   Ar  130   4.377   0.634   0.323
    1   AR   Ar  131   4.395   6.828   1.115
    1   AR   Ar  132   3.849   1.373  -0.284
    1   AR   Ar  133   3.721   6.799   2.381
    1   AR   Ar  134   3.347   0.954   2.573
    1   AR   Ar  135   4.681   0.171   2.522
    1   AR   Ar  136   3.907   0.516   1.497
    1   AR   Ar  137   3.384   0.297   3.435
    1   AR   Ar  138   3.645   0.865   4.420
    1   AR   Ar  139   4.013   7.021   4.156
    1   AR   Ar  140   4.196   0.791   3.516
    1   AR   Ar  141   3.144   7.061   4.953
    1   AR   Ar  142   3.389   0.763   6.084
    1   AR   Ar  143   4.061   6.843   6.186
    1   AR   Ar  144   4.957   1.122   6.127
    1   AR   Ar  145   3.542   2.242   0.374
    1   AR   Ar  146   3.642   3.057   1.381
    1   AR   Ar  147   4.418   2.223   0.833
    1   AR   Ar  148   5.420   2.405  -0.572
    1   AR   Ar  149   3.680   1.596   1.573
    1   AR   Ar  150   2.998   2.123   2.708
    1   AR   Ar  151   4.214   1.632   2.799
    1   AR   Ar  152   3.867   2.606   2.379
    1   AR   Ar  153   3.069   1.766   3.826
    1   AR   Ar  154   3.686   2.613   4.183
    1   AR   Ar  155   4.407   2.099   4.881
    1   AR   Ar  156   4.725   3.565   4.117
    1   AR   Ar  157   3.452   2.332   5.243
    1   AR   Ar  158   3.210   2.175   6.188
    1   AR   Ar  159   4.039   1.139   6.750
    1   AR   Ar  160   4.355   2.966   5.547
    1   AR   Ar  161   4.031   3.127  -0.162
    1   AR   Ar  162   4.010   4.939   0.560
    1   AR   Ar  163   4.501   3.305   0.761
    1   AR   Ar  164   5.226   4.959   0.700
    1   AR   Ar  165   3.582   3.635   2.498
    1   AR   Ar  166   3.513   4.789   3.077
    1   AR   Ar  167   4.270   3.117   3.256
    1   AR   Ar  168   3.925   4.246   1.404
    1   AR   Ar  169   3.102   3.082   3.406
    1   AR   Ar  170   3.436   4.788   4.315
    1   AR   Ar  171   3.656   3.573   4.826
    1   AR   Ar  172   4.501   4.550   4.082
    1   AR   Ar  173   3.273   3.328   5.868
    1   AR   Ar  174   4.348   5.267   6.150
    1   AR   Ar  175   4.187   3.914   5.730
    1   AR   Ar  176   3.886   4.817   5.238
    1   AR   Ar  177   4.669   5.649   0.090
    1   AR   Ar  178   3.763   6.068   1.623
    1   AR   Ar  179   4.414   5.374   1.379
    1   AR   Ar  180   4.077   6.591   0.069
    1   AR   Ar  181   3.432   4.958   1.911
    1   AR   Ar  182   2.805   6.349   2.157
    1   AR   Ar  183   4.320   5.135   2.469
    1   AR   Ar  184   4.700   6.114   2.582
    1   AR   Ar  185   2.871   5.591   3.457
    1   AR   Ar  186   3.323   6.247   4.337
    1   AR   Ar  187   4.736   5.350   3.436
    1   AR   Ar  188   3.742   6.109   3.306
    1   AR   Ar  189   2.982   5.342   5.315
    1   AR   Ar  190   3.459   6.420   7.113
    1   AR   Ar  191   4.799   5.853   5.468
    1   AR   Ar  192   4.323   6.740   5.068
    1   AR   Ar  193   5.352   0.122   0.367
    1   AR   Ar  194   4.717   1.301   1.034
    1   AR   Ar  195   6.028   1.001   0.734
    1   AR   Ar  196   5.287   1.279  -0.142
    1   AR   Ar  197   5.409   0.204   1.560
    1   AR   Ar  198   5.436   1.351   1.830
    1   AR   Ar  199   6.409   0.498   2.192
    1   AR   Ar  200   6.697   1.576   1.325
    1   AR   Ar  201   4.808   6.688   3.531
    1   AR   Ar  202   5.093   1.157   4.300
    1   AR   Ar  203   6.728   6.695   4.967
    1   AR   Ar  204   6.275   0.186   3.521
    1   AR   Ar  205   5.118   0.019   4.570
    1   AR   Ar  206   5.130   6.839   5.876
    1   AR   Ar  207   6.314   6.996   5.868
    1   AR   Ar  208   6.100   0.645   4.803
    1   AR   Ar  209   6.737   2.227  -0.497
    1   AR   Ar  210   5.435   2.287   1.416
    1   AR   Ar  211   6.062   2.179   0.438
    1   AR   Ar  212   6.743   3.204   0.045
    1   AR   Ar  213   5.078   2.392   2.479
    1   AR   Ar  214   4.452   3.293   1.942
    1   AR   Ar  215   6.130   1.876   2.452
    1   AR   Ar  216   6.509   2.590   1.622
    1   AR   Ar  217   4.589   2.074   3.678
    1   AR   Ar  218   5.409   2.371   4.422
    1   AR   Ar  219   5.979   1.532   4.123
    1   AR   Ar  220   5.878   2.801   2.892
    1   AR   Ar  221   5.294   1.597   5.283
    1   AR   Ar  222   4.516   2.170   6.268
    1   AR   Ar  223   6.388   1.548   6.568
    1   AR   Ar  224   6.463   2.847   5.504
    1   AR   Ar  225   5.125   3.848   0.025
    1   AR   Ar  226   5.007   4.371   1.852
    1   AR   Ar  227   7.013   3.593   1.632
    1   AR   Ar  228   6.056   5.273  -0.193
    1   AR   Ar  229   5.930   3.174   0.766
    1   AR   Ar  230   4.544   4.153   2.825
    1   AR   Ar  231   6.647   3.343   3.685
    1   AR   Ar  232   5.708   3.588   1.952
    1   AR   Ar  233   5.680   3.149   3.843
    1   AR   Ar  234   6.082   4.163   4.160
    1   AR   Ar  235   6.851   3.713   4.747
    1   AR   Ar  236   6.760   4.511   3.486
    1   AR   Ar  237   5.354   2.947   5.401
    1   AR   Ar  238   5.107   4.510   6.099
    1   AR   Ar  239   5.537   3.821   7.525
    1   AR   Ar  240   6.031   4.067   5.764
    1   AR   Ar  241   6.465   6.855  -0.232
    1   AR   Ar  242   5.159   6.193   1.549
    1   AR   Ar  243   6.319   4.485   2.102
    1   AR   Ar  244   6.211   0.025   0.936
    1   AR   Ar  245   5.510   5.285   2.298
    1   AR   Ar  246   5.534   6.431   2.918
    1   AR   Ar  247   6.005   3.875   2.978
    1   AR   Ar  248   6.124   6.545   1.973
    1   AR   Ar  249   6.325   5.423   2.957
    1   AR   Ar  250   5.266   5.911   4.446
    1   AR   Ar  251   6.330   5.281   4.127
    1   AR   Ar  252   6.191   6.385   3.972
    1   AR   Ar  253   5.220   5.025   5.028
    1   AR   Ar  254   5.203   6.012   6.552
    1   AR   Ar  255   5.987   5.039   5.881
    1   AR   Ar  256   5.935   6.060   5.337
    7.12000  7.12000 12.00000
Argon-slab step 495
  256
    1   AR   Ar    1   0.509   0.584  -0.431
    1   AR   Ar    2   0.048   0.621   0.853
    1   AR   Ar    3   0.637   6.375   0.652
    1   AR   Ar    4   0.946   0.304   0.521
    1   AR   Ar    5   0.032   6.733   1.443
    1   AR   Ar    6   0.028   0.442   3.028
    1   AR   Ar    7   0.774   6.860   2.412
    1   AR   Ar    8   1.048   6.897   1.457
    1   AR   Ar    9   0.285   7.042   4.216
    1   AR   Ar   10   0.055   0.959   4.367
    1   AR   Ar   11   1.287   0.373   4.318
    1   AR   Ar   12   0.808   1.065   3.626
    1   AR   Ar   13   0.118   0.368   5.196
    1   AR   Ar   14   0.103   1.149   5.870
    1   AR   Ar   15   2.297   0.284   7.809
    1   AR   Ar   16   1.130   0.779   5.319
    1   AR   Ar   17   6.660   1.208  -0.248
    1   AR   Ar   18   0.143   2.354   0.511
    1   AR   Ar   19   0.635   1.752   1.131
    1   AR   Ar   20   0.715   2.272  -0.767
    1   AR   Ar   21   0.214   0.871   1.882
    1   AR   Ar   22   6.846   2.549   2.892
    1   AR   Ar   23   7.023   1.519   2.869
    1   AR   Ar   24   0.445   2.313   1.946
    1   AR   Ar   25   0.079   1.832   3.834
    1   AR   Ar   26   6.525   2.360   4.440
    1   AR   Ar   27   0.348   1.749   5.031
    1   AR   Ar   28   1.004   2.627   4.050
    1   AR   Ar   29   6.364   1.582   5.489
    1   AR   Ar   30   0.064   2.427   6.039
    1   AR   Ar   31   0.794   0.791   7.153
    1   AR   Ar   32   1.062   2.444   5.609
    1   AR   Ar   33   0.565   3.317  -0.487
    1   AR   Ar   34   0.035   4.890   1.059
    1   AR   Ar   35   0.547   3.494   0.648
    1   AR   Ar   36   1.712   5.539  -0.896
    1   AR   Ar   37   6.906   3.667   2.682
    1   AR   Ar   38   0.199   4.592   2.528
    1   AR   Ar   39   1.176   3.627   2.888
    1   AR   Ar   40   0.771   4.142   1.849
    1   AR   Ar   41   0.734   2.673   2.987
    1   AR   Ar   42   6.767   4.750   4.911
    1   AR   Ar   43   0.346   2.740   4.817
    1   AR   Ar   44   0.571   3.588   3.774
    1   AR   Ar   45   0.022   3.829   5.752
    1   AR   Ar   46   7.053   4.655   6.548
    1   AR   Ar   47   0.960   3.941   7.022
    1   AR   Ar   48   1.032   4.554   6.008
    1   AR   Ar   49   0.077   4.232   0.185
    1   AR   Ar   50   6.293   5.542   0.865
    1   AR   Ar   51   1.076   4.471   0.699
    1   AR   Ar   52   1.096   5.496   0.363
    1   AR   Ar   53   6.877   5.797   2.089
    1   AR   Ar   54   7.048   6.474   3.354
    1   AR   Ar   55   0.399   5.605   2.916
    1   AR   Ar   56   0.776   5.660   1.471
    1   AR   Ar   57   0.644   4.790   4.155
    1   AR   Ar   58   0.159   5.977   4.487
    1   AR   Ar   59   1.384   5.864   4.693
    1   AR   Ar   60   0.932   6.409   3.746
    1   AR   Ar   61   6.849   5.981   5.816
    1   AR   Ar   62   0.891   5.458   5.482
    1   AR   Ar   63   2.026   5.515   5.572
    1   AR   Ar   64   0.952   6.693   5.079
    1   AR   Ar   65   1.594   6.421  -0.069
    1   AR   Ar   66   1.840   0.866   1.060
    1   AR   Ar   67   2.606   6.108   0.135
    1   AR   Ar   68   3.168   1.188   0.418
    1   AR   Ar   69   2.198   6.990   0.971
    1   AR   Ar   70   1.304   0.694   2.293
    1   AR   Ar   71   1.954   7.067   2.055
    1   AR   Ar   72   2.755   0.794   1.737
    1   AR   Ar   73   1.490   0.304   3.296
    1   AR   Ar   74   1.418   1.539   4.399
    1   AR   Ar   75   2.600   0.653   4.271
    1   AR   Ar   76   2.074   1.190   3.333
    1   AR   Ar   77   2.079   0.184   4.999
    1   AR   Ar   78   1.840   0.409   6.118
    1   AR   Ar   79   2.715   0.077   6.747
    1   AR   Ar   80   2.809   1.054   5.173
    1   AR   Ar   81   2.033   1.338   0.012
    1   AR   Ar   82   1.791   3.605   1.075
    1   AR   Ar   83   2.685   2.001   1.403
    1   AR   Ar   84   2.046   2.768  -0.286
    1   AR   Ar   85   1.529   1.567   1.734
    1   AR   Ar   86   1.937   2.684   2.676
    1   AR   Ar   87   2.217   1.395   2.400
    1   AR   Ar   88   2.746   3.312   1.915
    1   AR   Ar   89   0.985   1.691   2.737
    1   AR   Ar   90   2.523   3.072   4.616
    1   AR   Ar   91   2.475   1.990   4.692
    1   AR   Ar   92   1.952   2.111   3.658
    1   AR   Ar   93   1.858   1.582   5.591
    1   AR   Ar   94   2.537   2.607   6.935
    1   AR   Ar   95   2.509   1.446   6.603
    1   AR   Ar   96   2.443   2.620   5.550
    1   AR   Ar   97   1.981   4.133   0.045
    1   AR   Ar   98   2.579   4.480   1.592
    1   AR   Ar   99   2.974   3.369  -0.016
    1   AR   Ar  100   2.451   5.236  -0.250
    1   AR   Ar  101   1.125   3.048   1.806
    1   AR   Ar  102   1.828   4.631   3.167
    1   AR   Ar  103   2.095   3.868   2.526
    1   AR   Ar  104   3.127   4.070   0.834
    1   AR   Ar  105   2.003   3.287   3.645
    1   AR   Ar  106   1.597   3.943   4.300
    1   AR   Ar  107   2.621   4.402   4.960
    1   AR   Ar  108   2.820   4.119   3.696
    1   AR   Ar  109   0.803   3.953   4.909
    1   AR   Ar  110   1.795   3.499   5.451
    1   AR   Ar  111   3.358   4.757   6.362
    1   AR   Ar  112   2.307   4.347   6.507
    1   AR   Ar  113   2.117   5.223   0.750
    1   AR   Ar  114   1.835   6.107   0.929
    1   AR   Ar  115   3.064   5.463   1.152
    1   AR   Ar  116   2.923   0.464  -0.442
    1   AR   Ar  117   1.165   5.190   2.308
    1   AR   Ar  118   1.666   6.074   2.888
    1   AR   Ar  119   2.530   5.062   2.612
    1   AR   Ar  120   2.069   5.601   1.830
    1   AR   Ar  121   1.361   5.443   3.625
    1   AR   Ar  122   2.209   6.534   4.346
    1   AR   Ar  123   2.463   5.511   4.486
    1   AR   Ar  124   2.693   6.595   3.092
    1   AR   Ar  125   1.465   4.762   5.017
    1   AR   Ar  126   1.414   6.365   6.243
    1   AR   Ar  127   2.647   5.304   7.058
    1   AR   Ar  128   2.439   6.613   5.927
    1   AR   Ar  129   3.434   0.020   0.626
    1   AR   Ar  130   4.339   0.638   0.318
    1   AR   Ar  131   4.370   6.826   1.081
    1   AR   Ar  132   3.867   1.355  -0.294
    1   AR   Ar  133   3.725   6.799   2.392
    1   AR   Ar  134   3.341   0.948   2.581
    1   AR   Ar  135   4.659   0.181   2.534
    1   AR   Ar  136   3.885   0.494   1.486
    1   AR   Ar  137   3.343   0.264   3.467
    1   AR   Ar  138   3.654   0.859   4.410
    1   AR   Ar  139   3.984   7.035   4.116
    1   AR   Ar  140   4.192   0.760   3.486
    1   AR   Ar  141   3.164   7.054   4.931
    1   AR   Ar  142   3.386   0.798   6.067
    1   AR   Ar  143   4.092   6.837   6.193
    1   AR   Ar  144   4.964   1.091   6.137
    1   AR   Ar  145   3.521   2.236   0.400
    1   AR   Ar  146   3.639   3.020   1.368
    1   AR   Ar  147   4.430   2.256   0.823
    1   AR   Ar  148   5.438   2.398  -0.570
    1   AR   Ar  149   3.675   1.593   1.574
    1   AR   Ar  150   2.975   2.086   2.682
    1   AR   Ar  151   4.160   1.638   2.801
    1   AR   Ar  152   3.838   2.606   2.370
    1   AR   Ar  153   3.086   1.741   3.833
    1   AR   Ar  154   3.688   2.621   4.188
    1   AR   Ar  155   4.383   2.083   4.880
    1   AR   Ar  156   4.721   3.560   4.150
    1   AR   Ar  157   3.430   2.394   5.217
    1   AR   Ar  158   3.218   2.154   6.195
    1   AR   Ar  159   4.042   1.166   6.771
    1   AR   Ar  160   4.338   2.956   5.528
    1   AR   Ar  161   4.033   3.161  -0.142
    1   AR   Ar  162   4.010   4.905   0.566
    1   AR   Ar  163   4.494   3.323   0.753
    1   AR   Ar  164   5.245   4.946   0.688
    1   AR   Ar  165   3.596   3.662   2.522
    1   AR   Ar  166   3.489   4.787   3.067
    1   AR   Ar  167   4.257   3.136   3.268
    1   AR   Ar  168   3.938   4.217   1.377
    1   AR   Ar  169   3.149   3.085   3.415
    1   AR   Ar  170   3.443   4.796   4.281
    1   AR   Ar  171   3.662   3.577   4.821
    1   AR   Ar  172   4.484   4.558   4.122
    1   AR   Ar  173   3.271   3.348   5.858
    1   AR   Ar  174   4.323   5.244   6.165
    1   AR   Ar  175   4.174   3.943   5.764
    1   AR   Ar  176   3.858   4.824   5.244
    1   AR   Ar  177   4.699   5.665   0.095
    1   AR   Ar  178   3.759   6.082   1.624
    1   AR   Ar  179   4.441   5.382   1.389
    1   AR   Ar  180   4.067   6.563   0.054
    1   AR   Ar  181   3.459   4.931   1.927
    1   AR   Ar  182   2.791   6.335   2.132
    1   AR   Ar  183   4.309   5.114   2.477
    1   AR   Ar  184   4.695   6.108   2.586
    1   AR   Ar  185   2.828   5.585   3.477
    1   AR   Ar  186   3.295   6.229   4.339
    1   AR   Ar  187   4.681   5.334   3.405
    1   AR   Ar  188   3.748   6.083   3.272
    1   AR   Ar  189   2.966   5.364   5.358
    1   AR   Ar  190   3.489   6.470   7.099
    1   AR   Ar  191   4.808   5.843   5.459
    1   AR   Ar  192   4.288   6.759   5.073
    1   AR   Ar  193   5.351   0.108   0.345
    1   AR   Ar  194   4.701   1.264   1.007
    1   AR   Ar  195   6.009   1.025   0.748
    1   AR   Ar  196   5.300   1.287  -0.162
    1   AR   Ar  197   5.393   0.215   1.544
    1   AR   Ar  198   5.452   1.353   1.841
    1   AR   Ar  199   6.423   0.515   2.169
    1   AR   Ar  200   6.711   1.598   1.343
    1   AR   Ar  201   4.755   6.701   3.529
    1   AR   Ar  202   5.087   1.169   4.317
    1   AR   Ar  203   6.733   6.682   4.952
    1   AR   Ar  204   6.269   0.160   3.545
    1   AR   Ar  205   5.100   0.022   4.563
    1   AR   Ar  206   5.166   6.832   5.881
    1   AR   Ar  207   6.318   7.013   5.895
    1   AR   Ar  208   6.111   0.620   4.800
    1   AR   Ar  209   6.757   2.237  -0.495
    1   AR   Ar  210   5.425   2.273   1.423
    1   AR   Ar  211   6.060   2.171   0.443
    1   AR   Ar  212   6.735   3.201   0.072
    1   AR   Ar  213   5.048   2.373   2.471
    1   AR   Ar  214   4.432   3.308   1.945
    1   AR   Ar  215   6.113   1.921   2.479
    1   AR   Ar  216   6.504   2.586   1.612
    1   AR   Ar  217   4.600   2.044   3.698
    1   AR   Ar  218   5.382   2.328   4.456
    1   AR   Ar  219   5.970   1.565   4.102
    1   AR   Ar  220   5.878   2.789   2.905
    1   AR   Ar  221   5.303   1.604   5.287
    1   AR   Ar  222   4.503   2.169   6.286
    1   AR   Ar  223   6.437   1.520   6.603
    1   AR   Ar  224   6.461   2.873   5.480
    1   AR   Ar  225   5.099   3.841   0.013
    1   AR   Ar  226   5.005   4.404   1.876
    1   AR   Ar  227   7.033   3.637   1.663
    1   AR   Ar  228   6.092   5.275  -0.181
    1   AR   Ar  229   5.948   3.177   0.776
    1   AR   Ar  230   4.553   4.143   2.841
    1   AR   Ar  231   6.627   3.349   3.688
    1   AR   Ar  232   5.695   3.606   1.903
    1   AR   Ar  233   5.688   3.148   3.849
    1   AR   Ar  234   6.109   4.157   4.202
    1   AR   Ar  235   6.832   3.700   4.776
    1   AR   Ar  236   6.731   4.501   3.480
    1   AR   Ar  237   5.337   2.955   5.397
    1   AR   Ar  238   5.091   4.521   6.089
    1   AR   Ar  239   5.526   3.809   7.541
    1   AR   Ar  240   5.996   4.062   5.745
    1   AR   Ar  241   6.493   6.905  -0.222
    1   AR   Ar  242   5.104   6.207   1.559
    1   AR   Ar  243   6.368   4.496   2.090
    1   AR   Ar  244   6.218   0.017   0.959
    1   AR   Ar  245   5.481   5.278   2.307
    1   AR   Ar  246   5.530   6.433   2.925
    1   AR   Ar  247   5.982   3.864   2.969
    1   AR   Ar  248   6.113   6.549   1.975
    1   AR   Ar  249   6.339   5.394   2.932
    1   AR   Ar  250   5.231   5.880   4.432
    1   AR   Ar  251   6.323   5.282   4.107
    1   AR   Ar  252   6.189   6.395   3.990
    1   AR   Ar  253   5.213   5.006   5.039
    1   AR   Ar  254   5.204   6.002   6.528
    1   AR   Ar  255   6.012   5.020   5.861
    1   AR   Ar  256   5.925   6.093   5.318
    7.12000  7.12000 12.00000
Argon-slab step 500
  256
    1   AR   Ar    1   0.547   0.592  -0.452
    1   AR   Ar    2   0.029   0.647   0.832
    1   AR   Ar    3   0.637   6.387   0.647
    1   AR   Ar    4   0.967   0.280   0.486
    1   AR   Ar    5   0.046   6.716   1.429
    1   AR   Ar    6   0.058   0.460   3.019
    1   AR   Ar    7   0.776   6.827   2.426
    1   AR   Ar    8   1.066   6.925   1.444
    1   AR   Ar    9   0.285   7.019   4.205
    1   AR   Ar   10   0.056   0.950   4.325
    1   AR   Ar   11   1.295   0.391   4.317
    1   AR   Ar   12   0.809   1.047   3.593
    1   AR   Ar   13   0.130   0.370   5.205
    1   AR   Ar   14   0.104   1.156   5.895
    1   AR   Ar   15   2.294   0.308   7.773
    1   AR   Ar   16   1.130   0.770   5.318
    1   AR   Ar   17   6.683   1.192  -0.224
    1   AR   Ar   18   0.152   2.364   0.525
    1   AR   Ar   19   0.605   1.742   1.100
    1   AR   Ar   20   0.744   2.283  -0.792
    1   AR   Ar   21   0.195   0.857   1.872
    1   AR   Ar   22   6.846   2.543   2.885
    1   AR   Ar   23   7.033   1.485   2.858
    1   AR   Ar   24   0.469   2.303   1.953
    1   AR   Ar   25   0.070   1.804   3.789
    1   AR   Ar   26   6.488   2.340   4.429
    1   AR   Ar   27   0.329   1.751   5.053
    1   AR   Ar   28   0.975   2.639   4.078
    1   AR   Ar   29   6.352   1.588   5.470
    1   AR   Ar   30   0.067   2.404   6.068
    1   AR   Ar   31   0.816   0.793   7.133
    1   AR   Ar   32   1.105   2.454   5.643
    1   AR   Ar   33   0.597   3.298  -0.463
    1   AR   Ar   34   0.021   4.893   1.050
    1   AR   Ar   35   0.550   3.527   0.659
    1   AR   Ar   36   1.711   5.577  -0.905
    1   AR   Ar   37   6.933   3.642   2.694
    1   AR   Ar   38   0.189   4.586   2.556
    1   AR   Ar   39   1.176   3.659   2.905
    1   AR   Ar   40   0.758   4.120   1.881
    1   AR   Ar   41   0.754   2.686   2.986
    1   AR   Ar   42   6.748   4.749   4.878
    1   AR   Ar   43   0.352   2.760   4.862
    1   AR   Ar   44   0.560   3.609   3.792
    1   AR   Ar   45   0.073   3.859   5.754
    1   AR   Ar   46   7.041   4.676   6.529
    1   AR   Ar   47   0.953   3.971   7.052
    1   AR   Ar   48   1.041   4.556   6.027
    1   AR   Ar   49   0.084   4.298   0.178
    1   AR   Ar   50   6.302   5.547   0.888
    1   AR   Ar   51   1.046   4.432   0.692
    1   AR   Ar   52   1.068   5.473   0.349
    1   AR   Ar   53   6.875   5.772   2.128
    1   AR   Ar   54   7.001   6.476   3.371
    1   AR   Ar   55   0.399   5.582   2.921
    1   AR   Ar   56   0.800   5.663   1.502
    1   AR   Ar   57   0.603   4.800   4.129
    1   AR   Ar   58   0.170   5.957   4.503
    1   AR   Ar   59   1.415   5.830   4.694
    1   AR   Ar   60   0.944   6.391   3.754
    1   AR   Ar   61   6.843   5.948   5.825
    1   AR   Ar   62   0.878   5.453   5.447
    1   AR   Ar   63   2.020   5.516   5.597
    1   AR   Ar   64   0.957   6.687   5.063
    1   AR   Ar   65   1.627   6.407  -0.083
    1   AR   Ar   66   1.809   0.882   1.023
    1   AR   Ar   67   2.642   6.139   0.148
    1   AR   Ar   68   3.176   1.180   0.394
    1   AR   Ar   69   2.211   7.018   0.973
    1   AR   Ar   70   1.328   0.704   2.273
    1   AR   Ar   71   1.955   7.070   2.076
    1   AR   Ar   72   2.762   0.794   1.725
    1   AR   Ar   73   1.492   0.296   3.340
    1   AR   Ar   74   1.449   1.532   4.430
    1   AR   Ar   75   2.624   0.675   4.258
    1   AR   Ar   76   2.101   1.168   3.357
    1   AR   Ar   77   2.097   0.183   5.030
    1   AR   Ar   78   1.855   0.358   6.159
    1   AR   Ar   79   2.707   0.095   6.755
    1   AR   Ar   80   2.811   1.083   5.195
    1   AR   Ar   81   2.047   1.341   0.013
    1   AR   Ar   82   1.769   3.625   1.056
    1   AR   Ar   83   2.669   2.001   1.419
    1   AR   Ar   84   2.034   2.754  -0.304
    1   AR   Ar   85   1.526   1.573   1.696
    1   AR   Ar   86   1.962   2.696   2.637
    1   AR   Ar   87   2.212   1.394   2.411
    1   AR   Ar   88   2.715   3.299   1.921
    1   AR   Ar   89   0.984   1.668   2.737
    1   AR   Ar   90   2.514   3.079   4.655
    1   AR   Ar   91   2.486   1.974   4.701
    1   AR   Ar   92   1.957   2.129   3.674
    1   AR   Ar   93   1.866   1.631   5.580
    1   AR   Ar   94   2.531   2.608   6.941
    1   AR   Ar   95   2.501   1.447   6.649
    1   AR   Ar   96   2.465   2.627   5.545
    1   AR   Ar   97   1.995   4.140   0.069
    1   AR   Ar   98   2.614   4.453   1.565
    1   AR   Ar   99   2.962   3.348  -0.070
    1   AR   Ar  100   2.448   5.225  -0.241
    1   AR   Ar  101   1.123   3.065   1.800
    1   AR   Ar  102   1.840   4.604   3.184
    1   AR   Ar  103   2.101   3.868   2.489
    1   AR   Ar  104   3.120   4.061   0.812
    1   AR   Ar  105   1.975   3.263   3.638
    1   AR   Ar  106   1.601   3.948   4.316
    1   AR   Ar  107   2.635   4.419   4.967
    1   AR   Ar  108   2.832   4.126   3.696
    1   AR   Ar  109   0.806   3.955   4.911
    1   AR   Ar  110   1.794   3.487   5.442
    1   AR   Ar  111   3.366   4.781   6.375
    1   AR   Ar  112   2.320   4.352   6.492
    1   AR   Ar  113   2.129   5.177   0.753
    1   AR   Ar  114   1.829   6.115   0.953
    1   AR   Ar  115   3.075   5.484   1.151
    1   AR   Ar  116   2.882   0.484  -0.474
    1   AR   Ar  117   1.146   5.167   2.333
    1   AR   Ar  118   1.646   6.054   2.910
    1   AR   Ar  119   2.542   5.049   2.627
    1   AR   Ar  120   2.048   5.567   1.806
    1   AR   Ar  121   1.359   5.427   3.620
    1   AR   Ar  122   2.212   6.529   4.345
    1   AR   Ar  123   2.483   5.511   4.499
    1   AR   Ar  124   2.689   6.589   3.093
    1   AR   Ar  125   1.481   4.771   4.986
    1   AR   Ar  126   1.430   6.330   6.239
    1   AR   Ar  127   2.656   5.286   7.031
    1   AR   Ar  128   2.427   6.635   5.916
    1   AR   Ar  129   3.400   7.120   0.625
    1   AR   Ar  130   4.298   0.633   0.310
    1   AR   Ar  131   4.350   6.819   1.044
    1   AR   Ar  132   3.888   1.340  -0.309
    1   AR   Ar  133   3.729   6.801   2.407
    1   AR   Ar  134   3.336   0.943   2.591
    1   AR   Ar  135   4.638   0.196   2.546
    1   AR   Ar  136   3.861   0.479   1.480
    1   AR   Ar  137   3.283   0.228   3.489
    1   AR   Ar  138   3.662   0.857   4.403
    1   AR   Ar  139   3.960   7.042   4.084
    1   AR   Ar  140   4.192   0.777   3.484
    1   AR   Ar  141   3.128   7.040   4.945
    1   AR   Ar  142   3.384   0.825   6.046
    1   AR   Ar  143   4.123   6.830   6.199
    1   AR   Ar  144   4.970   1.059   6.149
    1   AR   Ar  145   3.492   2.231   0.424
    1   AR   Ar  146   3.633   2.981   1.350
    1   AR   Ar  147   4.448   2.292   0.816
    1   AR   Ar  148   5.457   2.391  -0.566
    1   AR   Ar  149   3.671   1.588   1.574
    1   AR   Ar  150   2.951   2.049   2.659
    1   AR   Ar  151   4.105   1.645   2.801
    1   AR   Ar  152   3.808   2.601   2.363
    1   AR   Ar  153   3.103   1.715   3.839
    1   AR   Ar  154   3.691   2.629   4.194
    1   AR   Ar  155   4.362   2.064   4.876
    1   AR   Ar  156   4.717   3.549   4.186
    1   AR   Ar  157   3.408   2.457   5.185
    1   AR   Ar  158   3.228   2.131   6.206
    1   AR   Ar  159   4.048   1.195   6.795
    1   AR   Ar  160   4.313   2.942   5.509
    1   AR   Ar  161   4.034   3.193  -0.126
    1   AR   Ar  162   4.009   4.871   0.569
    1   AR   Ar  163   4.491   3.343   0.752
    1   AR   Ar  164   5.263   4.932   0.679
    1   AR   Ar  165   3.608   3.693   2.546
    1   AR   Ar  166   3.466   4.782   3.059
    1   AR   Ar  167   4.245   3.153   3.278
    1   AR   Ar  168   3.964   4.183   1.357
    1   AR   Ar  169   3.168   3.085   3.428
    1   AR   Ar  170   3.463   4.795   4.266
    1   AR   Ar  171   3.663   3.575   4.845
    1   AR   Ar  172   4.467   4.569   4.163
    1   AR   Ar  173   3.268   3.366   5.847
    1   AR   Ar  174   4.296   5.222   6.183
    1   AR   Ar  175   4.163   3.978   5.800
    1   AR   Ar  176   3.835   4.831   5.252
    1   AR   Ar  177   4.729   5.682   0.101
    1   AR   Ar  178   3.753   6.101   1.627
    1   AR   Ar  179   4.473   5.383   1.400
    1   AR   Ar  180   4.060   6.533   0.036
    1   AR   Ar  181   3.485   4.906   1.951
    1   AR   Ar  182   2.779   6.318   2.099
    1   AR   Ar  183   4.293   5.100   2.489
    1   AR   Ar  184   4.663   6.058   2.582
    1   AR   Ar  185   2.784   5.579   3.499
    1   AR   Ar  186   3.267   6.206   4.336
    1   AR   Ar  187   4.646   5.327   3.380
    1   AR   Ar  188   3.756   6.058   3.237
    1   AR   Ar  189   2.975   5.382   5.394
    1   AR   Ar  190   3.519   6.519   7.083
    1   AR   Ar  191   4.816   5.841   5.450
    1   AR   Ar  192   4.250   6.775   5.083
    1   AR   Ar  193   5.348   0.096   0.323
    1   AR   Ar  194   4.691   1.230   0.987
    1   AR   Ar  195   5.987   1.051   0.761
    1   AR   Ar  196   5.313   1.295  -0.180
    1   AR   Ar  197   5.373   0.227   1.530
    1   AR   Ar  198   5.469   1.348   1.855
    1   AR   Ar  199   6.431   0.530   2.145
    1   AR   Ar  200   6.724   1.618   1.360
    1   AR   Ar  201   4.701   6.714   3.529
    1   AR   Ar  202   5.069   1.176   4.335
    1   AR   Ar  203   6.708   6.708   4.963
    1   AR   Ar  204   6.262   0.143   3.566
    1   AR   Ar  205   5.087   0.027   4.553
    1   AR   Ar  206   5.203   6.828   5.883
    1   AR   Ar  207   6.322   7.031   5.922
    1   AR   Ar  208   6.123   0.595   4.797
    1   AR   Ar  209   6.775   2.250  -0.492
    1   AR   Ar  210   5.415   2.266   1.425
    1   AR   Ar  211   6.059   2.159   0.448
    1   AR   Ar  212   6.727   3.198   0.098
    1   AR   Ar  213   5.011   2.353   2.461
    1   AR   Ar  214   4.424   3.330   1.947
    1   AR   Ar  215   6.059   1.964   2.458
    1   AR   Ar  216   6.512   2.598   1.604
    1   AR   Ar  217   4.611   2.015   3.719
    1   AR   Ar  218   5.352   2.287   4.492
    1   AR   Ar  219   5.972   1.594   4.076
    1   AR   Ar  220   5.873   2.788   2.920
    1   AR   Ar  221   5.313   1.613   5.289
    1   AR   Ar  222   4.489   2.165   6.303
    1   AR   Ar  223   6.487   1.492   6.637
    1   AR   Ar  224   6.454   2.902   5.450
    1   AR   Ar  225   5.073   3.834   0.003
    1   AR   Ar  226   4.998   4.440   1.898
    1   AR   Ar  227   7.033   3.635   1.679
    1   AR   Ar  228   6.126   5.276  -0.169
    1   AR   Ar  229   5.962   3.181   0.790
    1   AR   Ar  230   4.562   4.130   2.859
    1   AR   Ar  231   6.623   3.355   3.690
    1   AR   Ar  232   5.683   3.619   1.854
    1   AR   Ar  233   5.683   3.148   3.862
    1   AR   Ar  234   6.128   4.152   4.247
    1   AR   Ar  235   6.816   3.682   4.802
    1   AR   Ar  236   6.709   4.492   3.469
    1   AR   Ar  237   5.327   2.962   5.392
    1   AR   Ar  238   5.074   4.531   6.078
    1   AR   Ar  239   5.516   3.798   7.556
    1   AR   Ar  240   5.964   4.039   5.720
    1   AR   Ar  241   6.522   6.956  -0.209
    1   AR   Ar  242   5.052   6.222   1.570
    1   AR   Ar  243   6.414   4.508   2.078
    1   AR   Ar  244   6.232   0.004   0.982
    1   AR   Ar  245   5.450   5.274   2.314
    1   AR   Ar  246   5.549   6.439   2.936
    1   AR   Ar  247   5.947   3.858   2.965
    1   AR   Ar  248   6.101   6.554   1.977
    1   AR   Ar  249   6.355   5.366   2.910
    1   AR   Ar  250   5.197   5.852   4.415
    1   AR   Ar  251   6.315   5.287   4.087
    1   AR   Ar  252   6.185   6.396   4.016
    1   AR   Ar  253   5.208   4.979   5.050
    1   AR   Ar  254   5.205   5.989   6.503
    1   AR   Ar  255   6.040   5.021   5.840
    1   AR   Ar  256   5.910   6.125   5.299
    7.12000  7.12000 12.00000
Argon-slab step 505
  256
    1   AR   Ar    1   0.583   0.601  -0.474
    1   AR   Ar    2   0.007   0.674   0.809
    1   AR   Ar    3   0.638   6.397   0.637
    1   AR   Ar    4   0.993   0.257   0.450
    1   AR   Ar    5   0.054   6.701   1.421
    1   AR   Ar    6   0.091   0.473   3.009
    1   AR   Ar    7   0.769   6.823   2.442
    1   AR   Ar    8   1.091   6.956   1.428
    1   AR   Ar    9   0.285   7.011   4.197
    1   AR   Ar   10   0.053   0.937   4.288
    1   AR   Ar   11   1.302   0.409   4.323
    1   AR   Ar   12   0.811   1.032   3.559
    1   AR   Ar   13   0.145   0.389   5.228
    1   AR   Ar   14   0.112   1.159   5.925
    1   AR   Ar   15   2.291   0.333   7.736
    1   AR   Ar   16   1.129   0.753   5.309
    1   AR   Ar   17   6.706   1.175  -0.197
    1   AR   Ar   18   0.152   2.386   0.528
    1   AR   Ar   19   0.588   1.716   1.076
    1   AR   Ar   20   0.773   2.292  -0.817
    1   AR   Ar   21   0.192   0.848   1.862
    1   AR   Ar   22   6.852   2.538   2.878
    1   AR   Ar   23   7.040   1.450   2.836
    1   AR   Ar   24   0.486   2.289   1.967
    1   AR   Ar   25   0.063   1.787   3.748
    1   AR   Ar   26   6.460   2.333   4.425
    1   AR   Ar   27   0.310   1.750   5.072
    1   AR   Ar   28   0.951   2.649   4.100
    1   AR   Ar   29   6.342   1.595   5.448
    1   AR   Ar   30   0.071   2.379   6.096
    1   AR   Ar   31   0.839   0.794   7.113
    1   AR   Ar   32   1.148   2.465   5.674
    1   AR   Ar   33   0.629   3.280  -0.437
    1   AR   Ar   34   0.010   4.896   1.045
    1   AR   Ar   35   0.555   3.549   0.674
    1   AR   Ar   36   1.707   5.616  -0.913
    1   AR   Ar   37   6.964   3.611   2.710
    1   AR   Ar   38   0.182   4.589   2.592
    1   AR   Ar   39   1.174   3.692   2.921
    1   AR   Ar   40   0.760   4.099   1.908
    1   AR   Ar   41   0.776   2.700   2.986
    1   AR   Ar   42   6.732   4.749   4.850
    1   AR   Ar   43   0.349   2.785   4.939
    1   AR   Ar   44   0.549   3.632   3.811
    1   AR   Ar   45   0.125   3.889   5.759
    1   AR   Ar   46   7.029   4.697   6.508
    1   AR   Ar   47   0.937   3.965   7.053
    1   AR   Ar   48   1.050   4.555   6.047
    1   AR   Ar   49   0.088   4.366   0.165
    1   AR   Ar   50   6.310   5.552   0.912
    1   AR   Ar   51   1.020   4.398   0.688
    1   AR   Ar   52   1.042   5.448   0.335
    1   AR   Ar   53   6.875   5.749   2.159
    1   AR   Ar   54   6.958   6.476   3.384
    1   AR   Ar   55   0.402   5.558   2.935
    1   AR   Ar   56   0.823   5.669   1.529
    1   AR   Ar   57   0.561   4.809   4.105
    1   AR   Ar   58   0.184   5.933   4.517
    1   AR   Ar   59   1.452   5.796   4.686
    1   AR   Ar   60   0.957   6.380   3.755
    1   AR   Ar   61   6.839   5.915   5.832
    1   AR   Ar   62   0.856   5.452   5.420
    1   AR   Ar   63   2.003   5.520   5.625
    1   AR   Ar   64   0.960   6.685   5.048
    1   AR   Ar   65   1.658   6.392  -0.097
    1   AR   Ar   66   1.811   0.903   0.984
    1   AR   Ar   67   2.681   6.177   0.166
    1   AR   Ar   68   3.178   1.169   0.377
    1   AR   Ar   69   2.208   7.005   0.952
    1   AR   Ar   70   1.346   0.718   2.256
    1   AR   Ar   71   1.963   7.065   2.096
    1   AR   Ar   72   2.769   0.794   1.708
    1   AR   Ar   73   1.496   0.282   3.373
    1   AR   Ar   74   1.479   1.524   4.463
    1   AR   Ar   75   2.645   0.697   4.238
    1   AR   Ar   76   2.128   1.139   3.393
    1   AR   Ar   77   2.109   0.185   5.067
    1   AR   Ar   78   1.866   0.312   6.198
    1   AR   Ar   79   2.701   0.115   6.764
    1   AR   Ar   80   2.812   1.112   5.221
    1   AR   Ar   81   2.061   1.343   0.016
    1   AR   Ar   82   1.747   3.647   1.037
    1   AR   Ar   83   2.653   2.001   1.437
    1   AR   Ar   84   2.020   2.741  -0.321
    1   AR   Ar   85   1.515   1.588   1.659
    1   AR   Ar   86   1.986   2.709   2.607
    1   AR   Ar   87   2.207   1.391   2.415
    1   AR   Ar   88   2.690   3.281   1.922
    1   AR   Ar   89   0.987   1.644   2.736
    1   AR   Ar   90   2.507   3.092   4.685
    1   AR   Ar   91   2.496   1.958   4.707
    1   AR   Ar   92   1.962   2.153   3.691
    1   AR   Ar   93   1.875   1.679   5.569
    1   AR   Ar   94   2.524   2.609   6.945
    1   AR   Ar   95   2.492   1.446   6.693
    1   AR   Ar   96   2.481   2.632   5.552
    1   AR   Ar   97   2.011   4.147   0.094
    1   AR   Ar   98   2.640   4.430   1.545
    1   AR   Ar   99   2.949   3.328  -0.123
    1   AR   Ar  100   2.446   5.205  -0.235
    1   AR   Ar  101   1.125   3.087   1.794
    1   AR   Ar  102   1.845   4.573   3.207
    1   AR   Ar  103   2.107   3.870   2.451
    1   AR   Ar  104   3.127   4.037   0.779
    1   AR   Ar  105   1.949   3.235   3.627
    1   AR   Ar  106   1.612   3.953   4.326
    1   AR   Ar  107   2.625   4.428   4.978
    1   AR   Ar  108   2.841   4.131   3.695
    1   AR   Ar  109   0.798   3.955   4.920
    1   AR   Ar  110   1.792   3.476   5.432
    1   AR   Ar  111   3.372   4.803   6.385
    1   AR   Ar  112   2.348   4.345   6.490
    1   AR   Ar  113   2.141   5.121   0.756
    1   AR   Ar  114   1.811   6.120   0.977
    1   AR   Ar  115   3.082   5.504   1.148
    1   AR   Ar  116   2.841   0.504  -0.504
    1   AR   Ar  117   1.132   5.137   2.361
    1   AR   Ar  118   1.629   6.041   2.922
    1   AR   Ar  119   2.557   5.039   2.633
    1   AR   Ar  120   2.026   5.531   1.784
    1   AR   Ar  121   1.353   5.405   3.624
    1   AR   Ar  122   2.215   6.525   4.340
    1   AR   Ar  123   2.498   5.506   4.511
    1   AR   Ar  124   2.682   6.582   3.097
    1   AR   Ar  125   1.503   4.778   4.953
    1   AR   Ar  126   1.445   6.344   6.229
    1   AR   Ar  127   2.652   5.252   6.995
    1   AR   Ar  128   2.417   6.653   5.898
    1   AR   Ar  129   3.361   7.101   0.624
    1   AR   Ar  130   4.254   0.616   0.298
    1   AR   Ar  131   4.336   6.810   1.004
    1   AR   Ar  132   3.912   1.330  -0.331
    1   AR   Ar  133   3.730   6.806   2.424
    1   AR   Ar  134   3.332   0.937   2.605
    1   AR   Ar  135   4.619   0.211   2.557
    1   AR   Ar  136   3.834   0.469   1.478
    1   AR   Ar  137   3.207   0.201   3.499
    1   AR   Ar  138   3.669   0.859   4.401
    1   AR   Ar  139   3.942   7.041   4.072
    1   AR   Ar  140   4.195   0.807   3.487
    1   AR   Ar  141   3.094   7.030   4.960
    1   AR   Ar  142   3.391   0.842   6.023
    1   AR   Ar  143   4.153   6.824   6.204
    1   AR   Ar  144   4.975   1.026   6.162
    1   AR   Ar  145   3.459   2.227   0.447
    1   AR   Ar  146   3.623   2.941   1.328
    1   AR   Ar  147   4.470   2.325   0.813
    1   AR   Ar  148   5.478   2.384  -0.559
    1   AR   Ar  149   3.666   1.578   1.567
    1   AR   Ar  150   2.930   2.015   2.639
    1   AR   Ar  151   4.051   1.653   2.801
    1   AR   Ar  152   3.777   2.595   2.357
    1   AR   Ar  153   3.120   1.688   3.843
    1   AR   Ar  154   3.699   2.636   4.200
    1   AR   Ar  155   4.342   2.043   4.872
    1   AR   Ar  156   4.713   3.535   4.224
    1   AR   Ar  157   3.387   2.520   5.154
    1   AR   Ar  158   3.239   2.108   6.216
    1   AR   Ar  159   4.054   1.226   6.819
    1   AR   Ar  160   4.311   2.945   5.498
    1   AR   Ar  161   4.038   3.214  -0.137
    1   AR   Ar  162   4.007   4.839   0.569
    1   AR   Ar  163   4.490   3.368   0.762
    1   AR   Ar  164   5.282   4.917   0.670
    1   AR   Ar  165   3.616   3.725   2.570
    1   AR   Ar  166   3.444   4.776   3.055
    1   AR   Ar  167   4.233   3.168   3.288
    1   AR   Ar  168   3.998   4.145   1.344
    1   AR   Ar  169   3.166   3.085   3.442
    1   AR   Ar  170   3.471   4.812   4.250
    1   AR   Ar  171   3.663   3.573   4.867
    1   AR   Ar  172   4.454   4.583   4.205
    1   AR   Ar  173   3.263   3.383   5.835
    1   AR   Ar  174   4.269   5.204   6.200
    1   AR   Ar  175   4.151   4.014   5.837
    1   AR   Ar  176   3.817   4.835   5.259
    1   AR   Ar  177   4.759   5.699   0.109
    1   AR   Ar  178   3.749   6.123   1.632
    1   AR   Ar  179   4.506   5.377   1.412
    1   AR   Ar  180   4.053   6.503   0.017
    1   AR   Ar  181   3.503   4.882   1.972
    1   AR   Ar  182   2.766   6.299   2.060
    1   AR   Ar  183   4.276   5.087   2.500
    1   AR   Ar  184   4.610   6.001   2.583
    1   AR   Ar  185   2.741   5.573   3.521
    1   AR   Ar  186   3.243   6.180   4.330
    1   AR   Ar  187   4.644   5.333   3.367
    1   AR   Ar  188   3.765   6.033   3.204
    1   AR   Ar  189   3.030   5.389   5.390
    1   AR   Ar  190   3.549   6.568   7.067
    1   AR   Ar  191   4.823   5.844   5.444
    1   AR   Ar  192   4.211   6.788   5.097
    1   AR   Ar  193   5.344   0.086   0.303
    1   AR   Ar  194   4.685   1.201   0.976
    1   AR   Ar  195   5.964   1.078   0.774
    1   AR   Ar  196   5.326   1.303  -0.194
    1   AR   Ar  197   5.349   0.240   1.518
    1   AR   Ar  198   5.484   1.333   1.867
    1   AR   Ar  199   6.426   0.541   2.124
    1   AR   Ar  200   6.733   1.635   1.378
    1   AR   Ar  201   4.654   6.722   3.522
    1   AR   Ar  202   5.054   1.190   4.347
    1   AR   Ar  203   6.682   6.722   4.970
    1   AR   Ar  204   6.255   0.139   3.583
    1   AR   Ar  205   5.076   0.031   4.541
    1   AR   Ar  206   5.240   6.827   5.879
    1   AR   Ar  207   6.325   7.049   5.948
    1   AR   Ar  208   6.136   0.571   4.794
    1   AR   Ar  209   6.793   2.263  -0.489
    1   AR   Ar  210   5.406   2.265   1.424
    1   AR   Ar  211   6.059   2.145   0.452
    1   AR   Ar  212   6.723   3.196   0.121
    1   AR   Ar  213   4.971   2.332   2.451
    1   AR   Ar  214   4.424   3.356   1.949
    1   AR   Ar  215   6.011   1.992   2.428
    1   AR   Ar  216   6.527   2.624   1.597
    1   AR   Ar  217   4.622   1.987   3.741
    1   AR   Ar  218   5.320   2.253   4.528
    1   AR   Ar  219   5.976   1.609   4.040
    1   AR   Ar  220   5.859   2.802   2.940
    1   AR   Ar  221   5.321   1.622   5.294
    1   AR   Ar  222   4.500   2.186   6.283
    1   AR   Ar  223   6.537   1.465   6.670
    1   AR   Ar  224   6.446   2.931   5.420
    1   AR   Ar  225   5.048   3.828  -0.008
    1   AR   Ar  226   4.988   4.473   1.916
    1   AR   Ar  227   7.027   3.608   1.696
    1   AR   Ar  228   6.159   5.277  -0.156
    1   AR   Ar  229   5.973   3.186   0.809
    1   AR   Ar  230   4.572   4.118   2.879
    1   AR   Ar  231   6.631   3.361   3.690
    1   AR   Ar  232   5.674   3.629   1.807
    1   AR   Ar  233   5.665   3.146   3.881
    1   AR   Ar  234   6.134   4.149   4.289
    1   AR   Ar  235   6.805   3.657   4.826
    1   AR   Ar  236   6.692   4.481   3.455
    1   AR   Ar  237   5.324   2.969   5.385
    1   AR   Ar  238   5.059   4.540   6.066
    1   AR   Ar  239   5.505   3.786   7.571
    1   AR   Ar  240   5.934   4.003   5.692
    1   AR   Ar  241   6.550   7.008  -0.194
    1   AR   Ar  242   5.005   6.240   1.583
    1   AR   Ar  243   6.454   4.520   2.065
    1   AR   Ar  244   6.251   7.110   1.005
    1   AR   Ar  245   5.419   5.274   2.323
    1   AR   Ar  246   5.577   6.447   2.949
    1   AR   Ar  247   5.908   3.856   2.961
    1   AR   Ar  248   6.091   6.561   1.964
    1   AR   Ar  249   6.370   5.336   2.893
    1   AR   Ar  250   5.164   5.826   4.396
    1   AR   Ar  251   6.307   5.295   4.070
    1   AR   Ar  252   6.176   6.384   4.050
    1   AR   Ar  253   5.206   4.946   5.059
    1   AR   Ar  254   5.205   5.972   6.478
    1   AR   Ar  255   6.070   5.034   5.820
    1   AR   Ar  256   5.889   6.155   5.279
    7.12000  7.12000 12.00000
Argon-slab step 510
  256
    1   AR   Ar    1   0.617   0.611  -0.495
    1   AR   Ar    2   7.104   0.701   0.786
    1   AR   Ar    3   0.641   6.403   0.623
    1   AR   Ar    4   1.021   0.236   0.415
    1   AR   Ar    5   0.057   6.700   1.420
    1   AR   Ar    6   0.123   0.476   3.000
    1   AR   Ar    7   0.759   6.822   2.452
    1   AR   Ar    8   1.121   6.988   1.414
    1   AR   Ar    9   0.283   7.010   4.191
    1   AR   Ar   10   0.046   0.919   4.256
    1   AR   Ar   11   1.306   0.426   4.340
    1   AR   Ar   12   0.814   1.018   3.528
    1   AR   Ar   13   0.160   0.409   5.249
    1   AR   Ar   14   0.139   1.147   5.956
    1   AR   Ar   15   2.288   0.357   7.699
    1   AR   Ar   16   1.131   0.738   5.303
    1   AR   Ar   17   6.728   1.158  -0.167
    1   AR   Ar   18   0.145   2.417   0.525
    1   AR   Ar   19   0.583   1.677   1.058
    1   AR   Ar   20   0.803   2.299  -0.841
    1   AR   Ar   21   0.205   0.843   1.850
    1   AR   Ar   22   6.862   2.531   2.870
    1   AR   Ar   23   7.044   1.417   2.799
    1   AR   Ar   24   0.498   2.273   1.984
    1   AR   Ar   25   0.058   1.784   3.715
    1   AR   Ar   26   6.443   2.344   4.431
    1   AR   Ar   27   0.293   1.746   5.090
    1   AR   Ar   28   0.932   2.656   4.119
    1   AR   Ar   29   6.338   1.603   5.426
    1   AR   Ar   30   0.074   2.353   6.121
    1   AR   Ar   31   0.861   0.796   7.091
    1   AR   Ar   32   1.190   2.476   5.704
    1   AR   Ar   33   0.659   3.264  -0.408
    1   AR   Ar   34   0.002   4.899   1.047
    1   AR   Ar   35   0.551   3.554   0.692
    1   AR   Ar   36   1.702   5.655  -0.922
    1   AR   Ar   37   6.994   3.579   2.732
    1   AR   Ar   38   0.181   4.597   2.633
    1   AR   Ar   39   1.170   3.726   2.937
    1   AR   Ar   40   0.773   4.081   1.932
    1   AR   Ar   41   0.788   2.692   2.983
    1   AR   Ar   42   6.723   4.752   4.830
    1   AR   Ar   43   0.344   2.814   5.018
    1   AR   Ar   44   0.537   3.657   3.832
    1   AR   Ar   45   0.177   3.920   5.767
    1   AR   Ar   46   7.017   4.718   6.486
    1   AR   Ar   47   0.921   3.959   7.051
    1   AR   Ar   48   1.059   4.553   6.065
    1   AR   Ar   49   0.089   4.432   0.146
    1   AR   Ar   50   6.315   5.560   0.938
    1   AR   Ar   51   1.004   4.379   0.686
    1   AR   Ar   52   1.019   5.423   0.321
    1   AR   Ar   53   6.879   5.732   2.174
    1   AR   Ar   54   6.921   6.473   3.391
    1   AR   Ar   55   0.388   5.574   2.958
    1   AR   Ar   56   0.844   5.679   1.552
    1   AR   Ar   57   0.518   4.816   4.081
    1   AR   Ar   58   0.199   5.908   4.531
    1   AR   Ar   59   1.492   5.768   4.669
    1   AR   Ar   60   0.973   6.368   3.754
    1   AR   Ar   61   6.815   5.890   5.843
    1   AR   Ar   62   0.826   5.451   5.399
    1   AR   Ar   63   1.982   5.525   5.652
    1   AR   Ar   64   0.963   6.685   5.033
    1   AR   Ar   65   1.686   6.378  -0.108
    1   AR   Ar   66   1.823   0.955   0.946
    1   AR   Ar   67   2.722   6.216   0.189
    1   AR   Ar   68   3.177   1.155   0.365
    1   AR   Ar   69   2.212   7.006   0.932
    1   AR   Ar   70   1.356   0.735   2.241
    1   AR   Ar   71   1.976   7.054   2.115
    1   AR   Ar   72   2.774   0.792   1.687
    1   AR   Ar   73   1.504   0.258   3.391
    1   AR   Ar   74   1.508   1.515   4.496
    1   AR   Ar   75   2.661   0.719   4.220
    1   AR   Ar   76   2.155   1.109   3.435
    1   AR   Ar   77   2.115   0.191   5.107
    1   AR   Ar   78   1.867   0.275   6.235
    1   AR   Ar   79   2.701   0.135   6.775
    1   AR   Ar   80   2.812   1.140   5.244
    1   AR   Ar   81   2.078   1.345   0.018
    1   AR   Ar   82   1.725   3.669   1.020
    1   AR   Ar   83   2.637   2.000   1.455
    1   AR   Ar   84   2.006   2.728  -0.337
    1   AR   Ar   85   1.500   1.613   1.624
    1   AR   Ar   86   2.013   2.721   2.610
    1   AR   Ar   87   2.196   1.383   2.413
    1   AR   Ar   88   2.687   3.263   1.900
    1   AR   Ar   89   0.991   1.622   2.731
    1   AR   Ar   90   2.502   3.113   4.701
    1   AR   Ar   91   2.475   1.939   4.712
    1   AR   Ar   92   1.967   2.179   3.707
    1   AR   Ar   93   1.885   1.723   5.557
    1   AR   Ar   94   2.518   2.609   6.948
    1   AR   Ar   95   2.484   1.443   6.736
    1   AR   Ar   96   2.487   2.631   5.576
    1   AR   Ar   97   2.027   4.156   0.120
    1   AR   Ar   98   2.657   4.411   1.535
    1   AR   Ar   99   2.935   3.308  -0.174
    1   AR   Ar  100   2.446   5.184  -0.232
    1   AR   Ar  101   1.131   3.112   1.789
    1   AR   Ar  102   1.845   4.554   3.239
    1   AR   Ar  103   2.110   3.878   2.417
    1   AR   Ar  104   3.137   4.007   0.735
    1   AR   Ar  105   1.924   3.209   3.614
    1   AR   Ar  106   1.630   3.958   4.331
    1   AR   Ar  107   2.615   4.437   4.987
    1   AR   Ar  108   2.846   4.134   3.694
    1   AR   Ar  109   0.782   3.953   4.931
    1   AR   Ar  110   1.788   3.469   5.419
    1   AR   Ar  111   3.372   4.818   6.392
    1   AR   Ar  112   2.375   4.335   6.487
    1   AR   Ar  113   2.150   5.061   0.761
    1   AR   Ar  114   1.784   6.116   0.997
    1   AR   Ar  115   3.086   5.521   1.143
    1   AR   Ar  116   2.801   0.525  -0.531
    1   AR   Ar  117   1.126   5.103   2.391
    1   AR   Ar  118   1.617   6.036   2.925
    1   AR   Ar  119   2.570   5.031   2.629
    1   AR   Ar  120   2.010   5.492   1.772
    1   AR   Ar  121   1.345   5.376   3.638
    1   AR   Ar  122   2.216   6.523   4.332
    1   AR   Ar  123   2.504   5.493   4.527
    1   AR   Ar  124   2.668   6.568   3.099
    1   AR   Ar  125   1.528   4.783   4.921
    1   AR   Ar  126   1.459   6.358   6.218
    1   AR   Ar  127   2.645   5.222   6.960
    1   AR   Ar  128   2.414   6.662   5.875
    1   AR   Ar  129   3.319   7.084   0.622
    1   AR   Ar  130   4.208   0.586   0.285
    1   AR   Ar  131   4.324   6.801   0.962
    1   AR   Ar  132   3.937   1.327  -0.360
    1   AR   Ar  133   3.728   6.812   2.444
    1   AR   Ar  134   3.320   0.925   2.620
    1   AR   Ar  135   4.604   0.228   2.569
    1   AR   Ar  136   3.806   0.463   1.480
    1   AR   Ar  137   3.129   0.185   3.502
    1   AR   Ar  138   3.676   0.868   4.403
    1   AR   Ar  139   3.921   7.037   4.079
    1   AR   Ar  140   4.199   0.837   3.488
    1   AR   Ar  141   3.066   7.022   4.975
    1   AR   Ar  142   3.400   0.857   6.005
    1   AR   Ar  143   4.185   6.818   6.208
    1   AR   Ar  144   4.979   0.992   6.174
    1   AR   Ar  145   3.425   2.224   0.470
    1   AR   Ar  146   3.622   2.913   1.319
    1   AR   Ar  147   4.492   2.355   0.810
    1   AR   Ar  148   5.499   2.376  -0.551
    1   AR   Ar  149   3.662   1.568   1.561
    1   AR   Ar  150   2.917   1.989   2.622
    1   AR   Ar  151   4.001   1.665   2.801
    1   AR   Ar  152   3.747   2.590   2.353
    1   AR   Ar  153   3.137   1.661   3.845
    1   AR   Ar  154   3.711   2.641   4.201
    1   AR   Ar  155   4.356   2.045   4.872
    1   AR   Ar  156   4.707   3.519   4.264
    1   AR   Ar  157   3.370   2.579   5.124
    1   AR   Ar  158   3.252   2.085   6.224
    1   AR   Ar  159   4.061   1.258   6.841
    1   AR   Ar  160   4.323   2.959   5.491
    1   AR   Ar  161   4.061   3.218  -0.159
    1   AR   Ar  162   4.005   4.810   0.567
    1   AR   Ar  163   4.492   3.395   0.781
    1   AR   Ar  164   5.301   4.901   0.664
    1   AR   Ar  165   3.620   3.758   2.593
    1   AR   Ar  166   3.428   4.768   3.057
    1   AR   Ar  167   4.272   3.154   3.290
    1   AR   Ar  168   4.034   4.106   1.337
    1   AR   Ar  169   3.159   3.086   3.451
    1   AR   Ar  170   3.470   4.833   4.232
    1   AR   Ar  171   3.664   3.574   4.885
    1   AR   Ar  172   4.447   4.597   4.247
    1   AR   Ar  173   3.254   3.393   5.831
    1   AR   Ar  174   4.249   5.192   6.216
    1   AR   Ar  175   4.139   4.049   5.874
    1   AR   Ar  176   3.812   4.831   5.264
    1   AR   Ar  177   4.789   5.715   0.118
    1   AR   Ar  178   3.749   6.145   1.637
    1   AR   Ar  179   4.536   5.363   1.424
    1   AR   Ar  180   4.045   6.474  -0.004
    1   AR   Ar  181   3.508   4.856   1.983
    1   AR   Ar  182   2.753   6.279   2.020
    1   AR   Ar  183   4.266   5.064   2.505
    1   AR   Ar  184   4.563   5.961   2.578
    1   AR   Ar  185   2.699   5.568   3.541
    1   AR   Ar  186   3.228   6.163   4.319
    1   AR   Ar  187   4.647   5.339   3.372
    1   AR   Ar  188   3.769   6.008   3.173
    1   AR   Ar  189   3.078   5.404   5.391
    1   AR   Ar  190   3.577   6.616   7.052
    1   AR   Ar  191   4.827   5.851   5.439
    1   AR   Ar  192   4.171   6.801   5.111
    1   AR   Ar  193   5.339   0.077   0.284
    1   AR   Ar  194   4.686   1.178   0.973
    1   AR   Ar  195   5.941   1.103   0.787
    1   AR   Ar  196   5.340   1.311  -0.206
    1   AR   Ar  197   5.322   0.254   1.506
    1   AR   Ar  198   5.478   1.365   1.886
    1   AR   Ar  199   6.436   0.576   2.121
    1   AR   Ar  200   6.736   1.647   1.396
    1   AR   Ar  201   4.622   6.723   3.503
    1   AR   Ar  202   5.011   1.188   4.364
    1   AR   Ar  203   6.683   6.713   4.979
    1   AR   Ar  204   6.249   0.145   3.596
    1   AR   Ar  205   5.067   0.036   4.528
    1   AR   Ar  206   5.275   6.830   5.872
    1   AR   Ar  207   6.328   7.051   5.960
    1   AR   Ar  208   6.150   0.547   4.790
    1   AR   Ar  209   6.810   2.277  -0.484
    1   AR   Ar  210   5.399   2.270   1.420
    1   AR   Ar  211   6.061   2.131   0.457
    1   AR   Ar  212   6.723   3.199   0.130
    1   AR   Ar  213   4.927   2.312   2.440
    1   AR   Ar  214   4.430   3.382   1.952
    1   AR   Ar  215   6.008   2.014   2.398
    1   AR   Ar  216   6.540   2.653   1.592
    1   AR   Ar  217   4.630   1.961   3.761
    1   AR   Ar  218   5.289   2.232   4.557
    1   AR   Ar  219   5.975   1.605   3.994
    1   AR   Ar  220   5.840   2.827   2.962
    1   AR   Ar  221   5.325   1.625   5.306
    1   AR   Ar  222   4.510   2.206   6.261
    1   AR   Ar  223   6.586   1.439   6.702
    1   AR   Ar  224   6.435   2.952   5.394
    1   AR   Ar  225   5.024   3.823  -0.019
    1   AR   Ar  226   4.971   4.498   1.929
    1   AR   Ar  227   7.015   3.578   1.703
    1   AR   Ar  228   6.192   5.277  -0.141
    1   AR   Ar  229   5.977   3.191   0.833
    1   AR   Ar  230   4.584   4.106   2.900
    1   AR   Ar  231   6.646   3.366   3.691
    1   AR   Ar  232   5.666   3.638   1.760
    1   AR   Ar  233   5.640   3.144   3.909
    1   AR   Ar  234   6.126   4.146   4.324
    1   AR   Ar  235   6.804   3.633   4.847
    1   AR   Ar  236   6.677   4.468   3.440
    1   AR   Ar  237   5.327   2.977   5.376
    1   AR   Ar  238   5.047   4.548   6.055
    1   AR   Ar  239   5.494   3.775   7.585
    1   AR   Ar  240   5.906   3.962   5.661
    1   AR   Ar  241   6.578   7.063  -0.176
    1   AR   Ar  242   4.973   6.257   1.576
    1   AR   Ar  243   6.479   4.538   2.056
    1   AR   Ar  244   6.270   7.096   1.025
    1   AR   Ar  245   5.391   5.283   2.336
    1   AR   Ar  246   5.605   6.454   2.962
    1   AR   Ar  247   5.868   3.857   2.956
    1   AR   Ar  248   6.086   6.568   1.930
    1   AR   Ar  249   6.378   5.302   2.886
    1   AR   Ar  250   5.132   5.802   4.374
    1   AR   Ar  251   6.306   5.307   4.066
    1   AR   Ar  252   6.162   6.364   4.093
    1   AR   Ar  253   5.205   4.910   5.066
    1   AR   Ar  254   5.205   5.952   6.454
    1   AR   Ar  255   6.101   5.052   5.798
    1   AR   Ar  256   5.864   6.180   5.260
    7.12000  7.12000 12.00000
Argon-slab step 515
  256
    1   AR   Ar    1   0.648   0.621  -0.517
    1   AR   Ar    2   7.082   0.727   0.762
    1   AR   Ar    3   0.646   6.404   0.607
    1   AR   Ar    4   1.053   0.218   0.381
    1   AR   Ar    5   0.059   6.754   1.430
    1   AR   Ar    6   0.155   0.463   2.992
    1   AR   Ar    7   0.750   6.820   2.464
    1   AR   Ar    8   1.152   7.020   1.402
    1   AR   Ar    9   0.280   7.010   4.188
    1   AR   Ar   10   0.037   0.898   4.229
    1   AR   Ar   11   1.308   0.443   4.364
    1   AR   Ar   12   0.820   1.007   3.504
    1   AR   Ar   13   0.172   0.425   5.265
    1   AR   Ar   14   0.168   1.138   5.989
    1   AR   Ar   15   2.270   0.374   7.676
    1   AR   Ar   16   1.137   0.728   5.302
    1   AR   Ar   17   6.749   1.141  -0.136
    1   AR   Ar   18   0.136   2.450   0.520
    1   AR   Ar   19   0.585   1.630   1.041
    1   AR   Ar   20   0.832   2.304  -0.864
    1   AR   Ar   21   0.236   0.842   1.835
    1   AR   Ar   22   6.896   2.512   2.850
    1   AR   Ar   23   7.042   1.392   2.749
    1   AR   Ar   24   0.506   2.255   2.001
    1   AR   Ar   25   0.053   1.793   3.688
    1   AR   Ar   26   6.434   2.366   4.444
    1   AR   Ar   27   0.280   1.736   5.096
    1   AR   Ar   28   0.914   2.663   4.136
    1   AR   Ar   29   6.340   1.612   5.403
    1   AR   Ar   30   0.077   2.325   6.143
    1   AR   Ar   31   0.869   0.799   7.068
    1   AR   Ar   32   1.229   2.492   5.734
    1   AR   Ar   33   0.688   3.249  -0.375
    1   AR   Ar   34   7.119   4.903   1.057
    1   AR   Ar   35   0.535   3.536   0.712
    1   AR   Ar   36   1.697   5.694  -0.930
    1   AR   Ar   37   7.027   3.547   2.756
    1   AR   Ar   38   0.187   4.606   2.676
    1   AR   Ar   39   1.164   3.761   2.952
    1   AR   Ar   40   0.790   4.068   1.954
    1   AR   Ar   41   0.803   2.676   2.987
    1   AR   Ar   42   6.724   4.760   4.819
    1   AR   Ar   43   0.339   2.844   5.099
    1   AR   Ar   44   0.527   3.683   3.855
    1   AR   Ar   45   0.225   3.950   5.779
    1   AR   Ar   46   7.006   4.740   6.462
    1   AR   Ar   47   0.904   3.954   7.048
    1   AR   Ar   48   1.069   4.551   6.082
    1   AR   Ar   49   0.089   4.495   0.120
    1   AR   Ar   50   6.316   5.571   0.965
    1   AR   Ar   51   1.002   4.384   0.685
    1   AR   Ar   52   0.998   5.397   0.309
    1   AR   Ar   53   6.888   5.723   2.172
    1   AR   Ar   54   6.888   6.467   3.393
    1   AR   Ar   55   0.378   5.593   2.991
    1   AR   Ar   56   0.841   5.678   1.545
    1   AR   Ar   57   0.474   4.823   4.059
    1   AR   Ar   58   0.214   5.882   4.543
    1   AR   Ar   59   1.531   5.748   4.646
    1   AR   Ar   60   0.990   6.357   3.753
    1   AR   Ar   61   6.778   5.871   5.856
    1   AR   Ar   62   0.792   5.451   5.383
    1   AR   Ar   63   1.961   5.529   5.679
    1   AR   Ar   64   0.965   6.685   5.017
    1   AR   Ar   65   1.712   6.365  -0.117
    1   AR   Ar   66   1.834   1.006   0.909
    1   AR   Ar   67   2.764   6.255   0.213
    1   AR   Ar   68   3.174   1.138   0.357
    1   AR   Ar   69   2.220   7.016   0.911
    1   AR   Ar   70   1.360   0.753   2.227
    1   AR   Ar   71   1.993   7.038   2.134
    1   AR   Ar   72   2.777   0.790   1.663
    1   AR   Ar   73   1.516   0.227   3.394
    1   AR   Ar   74   1.534   1.504   4.528
    1   AR   Ar   75   2.672   0.741   4.214
    1   AR   Ar   76   2.179   1.083   3.474
    1   AR   Ar   77   2.111   0.202   5.145
    1   AR   Ar   78   1.854   0.251   6.271
    1   AR   Ar   79   2.711   0.155   6.785
    1   AR   Ar   80   2.805   1.159   5.265
    1   AR   Ar   81   2.096   1.348   0.016
    1   AR   Ar   82   1.705   3.689   1.008
    1   AR   Ar   83   2.620   1.998   1.475
    1   AR   Ar   84   1.983   2.722  -0.358
    1   AR   Ar   85   1.481   1.646   1.597
    1   AR   Ar   86   2.039   2.733   2.614
    1   AR   Ar   87   2.175   1.366   2.406
    1   AR   Ar   88   2.693   3.239   1.872
    1   AR   Ar   89   0.999   1.606   2.722
    1   AR   Ar   90   2.481   3.132   4.692
    1   AR   Ar   91   2.456   1.927   4.710
    1   AR   Ar   92   1.972   2.200   3.723
    1   AR   Ar   93   1.896   1.762   5.548
    1   AR   Ar   94   2.513   2.609   6.948
    1   AR   Ar   95   2.475   1.440   6.777
    1   AR   Ar   96   2.485   2.626   5.614
    1   AR   Ar   97   2.045   4.165   0.145
    1   AR   Ar   98   2.668   4.394   1.530
    1   AR   Ar   99   2.921   3.289  -0.223
    1   AR   Ar  100   2.445   5.163  -0.230
    1   AR   Ar  101   1.139   3.135   1.784
    1   AR   Ar  102   1.845   4.536   3.273
    1   AR   Ar  103   2.107   3.894   2.388
    1   AR   Ar  104   3.123   4.006   0.733
    1   AR   Ar  105   1.899   3.186   3.599
    1   AR   Ar  106   1.652   3.958   4.330
    1   AR   Ar  107   2.606   4.445   4.995
    1   AR   Ar  108   2.848   4.136   3.694
    1   AR   Ar  109   0.766   3.951   4.940
    1   AR   Ar  110   1.782   3.464   5.407
    1   AR   Ar  111   3.364   4.824   6.394
    1   AR   Ar  112   2.400   4.323   6.480
    1   AR   Ar  113   2.157   5.001   0.770
    1   AR   Ar  114   1.749   6.105   1.013
    1   AR   Ar  115   3.086   5.536   1.136
    1   AR   Ar  116   2.761   0.547  -0.556
    1   AR   Ar  117   1.125   5.064   2.422
    1   AR   Ar  118   1.608   6.035   2.920
    1   AR   Ar  119   2.575   5.025   2.616
    1   AR   Ar  120   2.009   5.454   1.784
    1   AR   Ar  121   1.333   5.343   3.657
    1   AR   Ar  122   2.216   6.524   4.322
    1   AR   Ar  123   2.504   5.472   4.550
    1   AR   Ar  124   2.645   6.539   3.092
    1   AR   Ar  125   1.554   4.786   4.893
    1   AR   Ar  126   1.470   6.371   6.205
    1   AR   Ar  127   2.650   5.242   6.973
    1   AR   Ar  128   2.422   6.659   5.847
    1   AR   Ar  129   3.275   7.067   0.619
    1   AR   Ar  130   4.161   0.548   0.273
    1   AR   Ar  131   4.315   6.794   0.920
    1   AR   Ar  132   3.962   1.329  -0.393
    1   AR   Ar  133   3.720   6.819   2.466
    1   AR   Ar  134   3.285   0.898   2.643
    1   AR   Ar  135   4.592   0.247   2.580
    1   AR   Ar  136   3.780   0.459   1.483
    1   AR   Ar  137   3.058   0.183   3.504
    1   AR   Ar  138   3.684   0.880   4.412
    1   AR   Ar  139   3.891   7.032   4.099
    1   AR   Ar  140   4.204   0.865   3.486
    1   AR   Ar  141   3.045   7.013   4.988
    1   AR   Ar  142   3.413   0.869   5.994
    1   AR   Ar  143   4.218   6.812   6.210
    1   AR   Ar  144   4.982   0.959   6.186
    1   AR   Ar  145   3.391   2.222   0.493
    1   AR   Ar  146   3.637   2.905   1.329
    1   AR   Ar  147   4.514   2.380   0.808
    1   AR   Ar  148   5.522   2.368  -0.541
    1   AR   Ar  149   3.659   1.559   1.556
    1   AR   Ar  150   2.915   1.971   2.610
    1   AR   Ar  151   3.955   1.680   2.803
    1   AR   Ar  152   3.718   2.590   2.348
    1   AR   Ar  153   3.153   1.634   3.845
    1   AR   Ar  154   3.731   2.646   4.195
    1   AR   Ar  155   4.385   2.060   4.878
    1   AR   Ar  156   4.698   3.501   4.305
    1   AR   Ar  157   3.356   2.631   5.101
    1   AR   Ar  158   3.266   2.062   6.231
    1   AR   Ar  159   4.067   1.291   6.863
    1   AR   Ar  160   4.328   2.975   5.486
    1   AR   Ar  161   4.094   3.214  -0.178
    1   AR   Ar  162   4.003   4.784   0.564
    1   AR   Ar  163   4.498   3.420   0.801
    1   AR   Ar  164   5.320   4.885   0.658
    1   AR   Ar  165   3.632   3.761   2.608
    1   AR   Ar  166   3.419   4.758   3.067
    1   AR   Ar  167   4.300   3.137   3.293
    1   AR   Ar  168   4.048   4.085   1.337
    1   AR   Ar  169   3.148   3.088   3.456
    1   AR   Ar  170   3.460   4.858   4.215
    1   AR   Ar  171   3.666   3.580   4.898
    1   AR   Ar  172   4.449   4.610   4.289
    1   AR   Ar  173   3.239   3.393   5.838
    1   AR   Ar  174   4.241   5.190   6.228
    1   AR   Ar  175   4.126   4.080   5.912
    1   AR   Ar  176   3.827   4.813   5.264
    1   AR   Ar  177   4.821   5.722   0.151
    1   AR   Ar  178   3.754   6.166   1.643
    1   AR   Ar  179   4.545   5.349   1.419
    1   AR   Ar  180   4.034   6.447  -0.026
    1   AR   Ar  181   3.495   4.826   1.980
    1   AR   Ar  182   2.740   6.258   1.980
    1   AR   Ar  183   4.266   5.025   2.509
    1   AR   Ar  184   4.538   5.947   2.558
    1   AR   Ar  185   2.659   5.563   3.554
    1   AR   Ar  186   3.235   6.173   4.302
    1   AR   Ar  187   4.656   5.344   3.393
    1   AR   Ar  188   3.763   5.982   3.151
    1   AR   Ar  189   3.104   5.423   5.402
    1   AR   Ar  190   3.604   6.664   7.038
    1   AR   Ar  191   4.828   5.858   5.434
    1   AR   Ar  192   4.131   6.812   5.125
    1   AR   Ar  193   5.333   0.069   0.268
    1   AR   Ar  194   4.690   1.159   0.975
    1   AR   Ar  195   5.921   1.126   0.796
    1   AR   Ar  196   5.354   1.318  -0.215
    1   AR   Ar  197   5.294   0.269   1.494
    1   AR   Ar  198   5.461   1.397   1.903
    1   AR   Ar  199   6.439   0.613   2.125
    1   AR   Ar  200   6.733   1.657   1.415
    1   AR   Ar  201   4.604   6.717   3.473
    1   AR   Ar  202   4.967   1.182   4.382
    1   AR   Ar  203   6.664   6.727   4.980
    1   AR   Ar  204   6.242   0.158   3.608
    1   AR   Ar  205   5.058   0.040   4.514
    1   AR   Ar  206   5.306   6.837   5.863
    1   AR   Ar  207   6.330   7.030   5.954
    1   AR   Ar  208   6.163   0.524   4.786
    1   AR   Ar  209   6.826   2.290  -0.478
    1   AR   Ar  210   5.394   2.280   1.413
    1   AR   Ar  211   6.065   2.118   0.461
    1   AR   Ar  212   6.738   3.188   0.146
    1   AR   Ar  213   4.894   2.295   2.432
    1   AR   Ar  214   4.439   3.404   1.958
    1   AR   Ar  215   6.025   2.038   2.369
    1   AR   Ar  216   6.552   2.681   1.588
    1   AR   Ar  217   4.634   1.936   3.776
    1   AR   Ar  218   5.268   2.226   4.571
    1   AR   Ar  219   5.969   1.589   3.942
    1   AR   Ar  220   5.819   2.854   2.983
    1   AR   Ar  221   5.323   1.619   5.332
    1   AR   Ar  222   4.520   2.223   6.238
    1   AR   Ar  223   6.633   1.415   6.736
    1   AR   Ar  224   6.426   2.958   5.378
    1   AR   Ar  225   5.002   3.820  -0.032
    1   AR   Ar  226   4.956   4.514   1.938
    1   AR   Ar  227   7.002   3.549   1.705
    1   AR   Ar  228   6.225   5.277  -0.126
    1   AR   Ar  229   5.977   3.195   0.859
    1   AR   Ar  230   4.599   4.095   2.921
    1   AR   Ar  231   6.660   3.369   3.695
    1   AR   Ar  232   5.659   3.646   1.717
    1   AR   Ar  233   5.613   3.142   3.943
    1   AR   Ar  234   6.104   4.141   4.349
    1   AR   Ar  235   6.817   3.621   4.856
    1   AR   Ar  236   6.663   4.451   3.432
    1   AR   Ar  237   5.337   2.985   5.365
    1   AR   Ar  238   5.041   4.556   6.045
    1   AR   Ar  239   5.483   3.764   7.599
    1   AR   Ar  240   5.880   3.920   5.626
    1   AR   Ar  241   6.607   7.119  -0.156
    1   AR   Ar  242   4.951   6.277   1.563
    1   AR   Ar  243   6.493   4.561   2.048
    1   AR   Ar  244   6.288   7.086   1.041
    1   AR   Ar  245   5.369   5.304   2.354
    1   AR   Ar  246   5.634   6.460   2.976
    1   AR   Ar  247   5.828   3.863   2.951
    1   AR   Ar  248   6.079   6.574   1.899
    1   AR   Ar  249   6.378   5.266   2.889
    1   AR   Ar  250   5.101   5.779   4.352
    1   AR   Ar  251   6.304   5.319   4.058
    1   AR   Ar  252   6.143   6.340   4.141
    1   AR   Ar  253   5.206   4.872   5.071
    1   AR   Ar  254   5.205   5.928   6.431
    1   AR   Ar  255   6.130   5.071   5.776
    1   AR   Ar  256   5.843   6.182   5.243
    7.12000  7.12000 12.00000
Argon-slab step 520
  256
    1   AR   Ar    1   0.678   0.633  -0.540
    1   AR   Ar    2   7.060   0.751   0.743
    1   AR   Ar    3   0.652   6.401   0.590
    1   AR   Ar    4   1.087   0.203   0.347
    1   AR   Ar    5   0.064   6.808   1.446
    1   AR   Ar    6   0.182   0.435   2.982
    1   AR   Ar    7   0.742   6.818   2.475
    1   AR   Ar    8   1.185   7.053   1.392
    1   AR   Ar    9   0.299   7.020   4.191
    1   AR   Ar   10   0.025   0.877   4.207
    1   AR   Ar   11   1.310   0.456   4.385
    1   AR   Ar   12   0.830   0.998   3.491
    1   AR   Ar   13   0.177   0.436   5.275
    1   AR   Ar   14   0.201   1.131   6.024
    1   AR   Ar   15   2.230   0.380   7.675
    1   AR   Ar   16   1.148   0.724   5.312
    1   AR   Ar   17   6.769   1.127  -0.108
    1   AR   Ar   18   0.133   2.473   0.523
    1   AR   Ar   19   0.589   1.580   1.024
    1   AR   Ar   20   0.862   2.307  -0.887
    1   AR   Ar   21   0.281   0.842   1.818
    1   AR   Ar   22   6.933   2.487   2.828
    1   AR   Ar   23   7.036   1.378   2.691
    1   AR   Ar   24   0.512   2.235   2.017
    1   AR   Ar   25   0.049   1.808   3.665
    1   AR   Ar   26   6.427   2.394   4.459
    1   AR   Ar   27   0.276   1.737   5.094
    1   AR   Ar   28   0.897   2.669   4.152
    1   AR   Ar   29   6.350   1.621   5.380
    1   AR   Ar   30   0.080   2.296   6.162
    1   AR   Ar   31   0.883   0.792   7.050
    1   AR   Ar   32   1.209   2.533   5.734
    1   AR   Ar   33   0.716   3.236  -0.341
    1   AR   Ar   34   7.119   4.907   1.073
    1   AR   Ar   35   0.511   3.502   0.735
    1   AR   Ar   36   1.692   5.730  -0.939
    1   AR   Ar   37   7.062   3.520   2.778
    1   AR   Ar   38   0.201   4.615   2.717
    1   AR   Ar   39   1.156   3.794   2.967
    1   AR   Ar   40   0.807   4.063   1.977
    1   AR   Ar   41   0.826   2.672   2.986
    1   AR   Ar   42   6.734   4.771   4.818
    1   AR   Ar   43   0.339   2.872   5.180
    1   AR   Ar   44   0.520   3.711   3.877
    1   AR   Ar   45   0.267   3.977   5.797
    1   AR   Ar   46   6.995   4.763   6.436
    1   AR   Ar   47   0.887   3.950   7.043
    1   AR   Ar   48   1.081   4.551   6.097
    1   AR   Ar   49   0.088   4.555   0.089
    1   AR   Ar   50   6.315   5.584   0.993
    1   AR   Ar   51   1.006   4.406   0.686
    1   AR   Ar   52   0.978   5.373   0.297
    1   AR   Ar   53   6.900   5.720   2.155
    1   AR   Ar   54   6.859   6.458   3.392
    1   AR   Ar   55   0.370   5.616   3.032
    1   AR   Ar   56   0.837   5.679   1.538
    1   AR   Ar   57   0.428   4.830   4.037
    1   AR   Ar   58   0.229   5.858   4.553
    1   AR   Ar   59   1.561   5.741   4.622
    1   AR   Ar   60   1.008   6.346   3.753
    1   AR   Ar   61   6.745   5.857   5.867
    1   AR   Ar   62   0.756   5.451   5.367
    1   AR   Ar   63   1.942   5.533   5.704
    1   AR   Ar   64   0.968   6.685   5.001
    1   AR   Ar   65   1.740   6.358  -0.125
    1   AR   Ar   66   1.845   1.046   0.877
    1   AR   Ar   67   2.803   6.289   0.238
    1   AR   Ar   68   3.171   1.120   0.351
    1   AR   Ar   69   2.229   7.032   0.891
    1   AR   Ar   70   1.357   0.766   2.212
    1   AR   Ar   71   2.012   7.020   2.154
    1   AR   Ar   72   2.777   0.789   1.638
    1   AR   Ar   73   1.531   0.189   3.389
    1   AR   Ar   74   1.556   1.491   4.558
    1   AR   Ar   75   2.683   0.759   4.236
    1   AR   Ar   76   2.193   1.066   3.496
    1   AR   Ar   77   2.095   0.222   5.179
    1   AR   Ar   78   1.829   0.236   6.306
    1   AR   Ar   79   2.731   0.173   6.793
    1   AR   Ar   80   2.784   1.156   5.284
    1   AR   Ar   81   2.118   1.355   0.004
    1   AR   Ar   82   1.687   3.705   1.000
    1   AR   Ar   83   2.604   1.995   1.497
    1   AR   Ar   84   1.974   2.746  -0.387
    1   AR   Ar   85   1.462   1.685   1.577
    1   AR   Ar   86   2.064   2.744   2.618
    1   AR   Ar   87   2.146   1.344   2.397
    1   AR   Ar   88   2.704   3.211   1.839
    1   AR   Ar   89   1.009   1.596   2.707
    1   AR   Ar   90   2.457   3.152   4.671
    1   AR   Ar   91   2.444   1.925   4.699
    1   AR   Ar   92   1.987   2.196   3.712
    1   AR   Ar   93   1.907   1.790   5.542
    1   AR   Ar   94   2.508   2.607   6.946
    1   AR   Ar   95   2.468   1.435   6.816
    1   AR   Ar   96   2.477   2.621   5.660
    1   AR   Ar   97   2.064   4.172   0.165
    1   AR   Ar   98   2.671   4.379   1.534
    1   AR   Ar   99   2.909   3.271  -0.270
    1   AR   Ar  100   2.445   5.143  -0.230
    1   AR   Ar  101   1.149   3.151   1.781
    1   AR   Ar  102   1.848   4.515   3.306
    1   AR   Ar  103   2.100   3.914   2.362
    1   AR   Ar  104   3.104   4.044   0.727
    1   AR   Ar  105   1.870   3.173   3.584
    1   AR   Ar  106   1.677   3.952   4.324
    1   AR   Ar  107   2.598   4.452   5.004
    1   AR   Ar  108   2.845   4.135   3.696
    1   AR   Ar  109   0.753   3.950   4.942
    1   AR   Ar  110   1.773   3.462   5.395
    1   AR   Ar  111   3.346   4.820   6.393
    1   AR   Ar  112   2.415   4.316   6.508
    1   AR   Ar  113   2.161   4.944   0.784
    1   AR   Ar  114   1.711   6.092   1.025
    1   AR   Ar  115   3.084   5.547   1.128
    1   AR   Ar  116   2.721   0.569  -0.579
    1   AR   Ar  117   1.128   5.025   2.453
    1   AR   Ar  118   1.601   6.037   2.911
    1   AR   Ar  119   2.572   5.021   2.597
    1   AR   Ar  120   2.008   5.412   1.799
    1   AR   Ar  121   1.320   5.309   3.679
    1   AR   Ar  122   2.214   6.528   4.310
    1   AR   Ar  123   2.485   5.461   4.565
    1   AR   Ar  124   2.615   6.496   3.076
    1   AR   Ar  125   1.575   4.795   4.873
    1   AR   Ar  126   1.477   6.382   6.192
    1   AR   Ar  127   2.650   5.268   6.989
    1   AR   Ar  128   2.440   6.645   5.819
    1   AR   Ar  129   3.234   7.055   0.619
    1   AR   Ar  130   4.114   0.505   0.263
    1   AR   Ar  131   4.306   6.790   0.880
    1   AR   Ar  132   3.986   1.334  -0.427
    1   AR   Ar  133   3.708   6.828   2.490
    1   AR   Ar  134   3.249   0.867   2.665
    1   AR   Ar  135   4.584   0.269   2.591
    1   AR   Ar  136   3.755   0.453   1.487
    1   AR   Ar  137   2.999   0.189   3.503
    1   AR   Ar  138   3.694   0.896   4.426
    1   AR   Ar  139   3.858   7.027   4.124
    1   AR   Ar  140   4.209   0.893   3.483
    1   AR   Ar  141   3.034   7.003   4.998
    1   AR   Ar  142   3.432   0.878   5.991
    1   AR   Ar  143   4.255   6.807   6.209
    1   AR   Ar  144   4.985   0.925   6.198
    1   AR   Ar  145   3.358   2.220   0.517
    1   AR   Ar  146   3.664   2.875   1.326
    1   AR   Ar  147   4.526   2.394   0.806
    1   AR   Ar  148   5.546   2.361  -0.529
    1   AR   Ar  149   3.708   1.545   1.546
    1   AR   Ar  150   2.920   1.961   2.603
    1   AR   Ar  151   3.913   1.696   2.807
    1   AR   Ar  152   3.691   2.596   2.342
    1   AR   Ar  153   3.170   1.610   3.842
    1   AR   Ar  154   3.759   2.650   4.179
    1   AR   Ar  155   4.393   2.071   4.891
    1   AR   Ar  156   4.695   3.508   4.307
    1   AR   Ar  157   3.343   2.673   5.087
    1   AR   Ar  158   3.280   2.039   6.235
    1   AR   Ar  159   4.072   1.324   6.882
    1   AR   Ar  160   4.327   2.992   5.480
    1   AR   Ar  161   4.125   3.208  -0.196
    1   AR   Ar  162   4.001   4.761   0.560
    1   AR   Ar  163   4.508   3.438   0.812
    1   AR   Ar  164   5.338   4.867   0.654
    1   AR   Ar  165   3.648   3.742   2.617
    1   AR   Ar  166   3.419   4.747   3.083
    1   AR   Ar  167   4.291   3.123   3.302
    1   AR   Ar  168   4.038   4.088   1.348
    1   AR   Ar  169   3.134   3.091   3.457
    1   AR   Ar  170   3.443   4.887   4.197
    1   AR   Ar  171   3.669   3.595   4.905
    1   AR   Ar  172   4.456   4.622   4.332
    1   AR   Ar  173   3.222   3.396   5.848
    1   AR   Ar  174   4.246   5.199   6.236
    1   AR   Ar  175   4.110   4.105   5.952
    1   AR   Ar  176   3.835   4.813   5.241
    1   AR   Ar  177   4.854   5.728   0.187
    1   AR   Ar  178   3.765   6.187   1.648
    1   AR   Ar  179   4.525   5.342   1.389
    1   AR   Ar  180   4.020   6.421  -0.050
    1   AR   Ar  181   3.488   4.834   1.982
    1   AR   Ar  182   2.726   6.237   1.940
    1   AR   Ar  183   4.270   4.998   2.518
    1   AR   Ar  184   4.533   5.954   2.524
    1   AR   Ar  185   2.620   5.557   3.562
    1   AR   Ar  186   3.246   6.185   4.282
    1   AR   Ar  187   4.668   5.348   3.423
    1   AR   Ar  188   3.766   5.962   3.161
    1   AR   Ar  189   3.097   5.407   5.433
    1   AR   Ar  190   3.628   6.712   7.027
    1   AR   Ar  191   4.827   5.866   5.429
    1   AR   Ar  192   4.093   6.823   5.140
    1   AR   Ar  193   5.327   0.063   0.255
    1   AR   Ar  194   4.695   1.141   0.979
    1   AR   Ar  195   5.921   1.144   0.783
    1   AR   Ar  196   5.368   1.325  -0.222
    1   AR   Ar  197   5.266   0.284   1.481
    1   AR   Ar  198   5.437   1.411   1.913
    1   AR   Ar  199   6.430   0.647   2.130
    1   AR   Ar  200   6.725   1.663   1.436
    1   AR   Ar  201   4.597   6.705   3.459
    1   AR   Ar  202   4.924   1.170   4.402
    1   AR   Ar  203   6.645   6.747   4.977
    1   AR   Ar  204   6.236   0.175   3.621
    1   AR   Ar  205   5.049   0.042   4.501
    1   AR   Ar  206   5.332   6.846   5.853
    1   AR   Ar  207   6.335   7.011   5.947
    1   AR   Ar  208   6.176   0.504   4.781
    1   AR   Ar  209   6.843   2.302  -0.473
    1   AR   Ar  210   5.392   2.298   1.404
    1   AR   Ar  211   6.070   2.108   0.464
    1   AR   Ar  212   6.758   3.170   0.158
    1   AR   Ar  213   4.827   2.320   2.434
    1   AR   Ar  214   4.454   3.421   1.970
    1   AR   Ar  215   6.052   2.068   2.343
    1   AR   Ar  216   6.558   2.698   1.585
    1   AR   Ar  217   4.667   1.939   3.779
    1   AR   Ar  218   5.270   2.236   4.568
    1   AR   Ar  219   5.962   1.570   3.887
    1   AR   Ar  220   5.799   2.874   3.001
    1   AR   Ar  221   5.316   1.605   5.369
    1   AR   Ar  222   4.530   2.238   6.214
    1   AR   Ar  223   6.677   1.393   6.771
    1   AR   Ar  224   6.448   2.948   5.365
    1   AR   Ar  225   4.982   3.818  -0.045
    1   AR   Ar  226   4.960   4.527   1.949
    1   AR   Ar  227   6.993   3.531   1.703
    1   AR   Ar  228   6.258   5.276  -0.108
    1   AR   Ar  229   5.975   3.197   0.881
    1   AR   Ar  230   4.617   4.086   2.943
    1   AR   Ar  231   6.676   3.360   3.690
    1   AR   Ar  232   5.649   3.657   1.681
    1   AR   Ar  233   5.588   3.140   3.982
    1   AR   Ar  234   6.069   4.132   4.365
    1   AR   Ar  235   6.844   3.632   4.848
    1   AR   Ar  236   6.647   4.428   3.432
    1   AR   Ar  237   5.357   2.994   5.354
    1   AR   Ar  238   5.042   4.563   6.038
    1   AR   Ar  239   5.472   3.753   7.613
    1   AR   Ar  240   5.852   3.922   5.616
    1   AR   Ar  241   6.636   0.056  -0.134
    1   AR   Ar  242   4.935   6.301   1.554
    1   AR   Ar  243   6.503   4.582   2.038
    1   AR   Ar  244   6.303   7.082   1.049
    1   AR   Ar  245   5.353   5.334   2.376
    1   AR   Ar  246   5.662   6.465   2.990
    1   AR   Ar  247   5.790   3.877   2.945
    1   AR   Ar  248   6.072   6.577   1.873
    1   AR   Ar  249   6.360   5.265   2.867
    1   AR   Ar  250   5.071   5.757   4.329
    1   AR   Ar  251   6.301   5.329   4.047
    1   AR   Ar  252   6.119   6.319   4.191
    1   AR   Ar  253   5.209   4.835   5.071
    1   AR   Ar  254   5.205   5.902   6.409
    1   AR   Ar  255   6.154   5.085   5.751
    1   AR   Ar  256   5.832   6.153   5.229
    7.12000  7.12000 12.00000
Argon-slab step 525
  256
    1   AR   Ar    1   0.705   0.647  -0.563
    1   AR   Ar    2   7.041   0.767   0.737
    1   AR   Ar    3   0.658   6.395   0.575
    1   AR   Ar    4   1.124   0.191   0.315
    1   AR   Ar    5   0.077   6.861   1.466
    1   AR   Ar    6   0.203   0.397   2.971
    1   AR   Ar    7   0.738   6.813   2.485
    1   AR   Ar    8   1.217   7.085   1.383
    1   AR   Ar    9   0.321   7.031   4.204
    1   AR   Ar   10   0.010   0.861   4.187
    1   AR   Ar   11   1.313   0.464   4.394
    1   AR   Ar   12   0.846   0.991   3.489
    1   AR   Ar   13   0.176   0.442   5.278
    1   AR   Ar   14   0.224   1.135   6.037
    1   AR   Ar   15   2.188   0.386   7.676
    1   AR   Ar   16   1.163   0.727   5.335
    1   AR   Ar   17   6.783   1.123  -0.091
    1   AR   Ar   18   0.145   2.473   0.540
    1   AR   Ar   19   0.592   1.530   1.004
    1   AR   Ar   20   0.891   2.310  -0.909
    1   AR   Ar   21   0.332   0.842   1.799
    1   AR   Ar   22   6.965   2.459   2.805
    1   AR   Ar   23   7.028   1.370   2.630
    1   AR   Ar   24   0.515   2.216   2.028
    1   AR   Ar   25   0.046   1.826   3.643
    1   AR   Ar   26   6.422   2.421   4.472
    1   AR   Ar   27   0.273   1.768   5.099
    1   AR   Ar   28   0.873   2.661   4.175
    1   AR   Ar   29   6.364   1.630   5.356
    1   AR   Ar   30   0.083   2.266   6.179
    1   AR   Ar   31   0.899   0.782   7.032
    1   AR   Ar   32   1.188   2.576   5.734
    1   AR   Ar   33   0.742   3.223  -0.303
    1   AR   Ar   34   0.002   4.910   1.095
    1   AR   Ar   35   0.485   3.465   0.760
    1   AR   Ar   36   1.687   5.763  -0.951
    1   AR   Ar   37   7.103   3.499   2.793
    1   AR   Ar   38   0.218   4.623   2.754
    1   AR   Ar   39   1.149   3.819   2.977
    1   AR   Ar   40   0.820   4.068   1.998
    1   AR   Ar   41   0.858   2.687   2.978
    1   AR   Ar   42   6.750   4.784   4.822
    1   AR   Ar   43   0.346   2.898   5.260
    1   AR   Ar   44   0.516   3.740   3.901
    1   AR   Ar   45   0.298   4.002   5.822
    1   AR   Ar   46   6.984   4.787   6.410
    1   AR   Ar   47   0.869   3.946   7.037
    1   AR   Ar   48   1.096   4.553   6.111
    1   AR   Ar   49   0.087   4.614   0.056
    1   AR   Ar   50   6.311   5.599   1.023
    1   AR   Ar   51   1.011   4.433   0.688
    1   AR   Ar   52   0.959   5.352   0.286
    1   AR   Ar   53   6.899   5.740   2.155
    1   AR   Ar   54   6.833   6.447   3.389
    1   AR   Ar   55   0.366   5.641   3.077
    1   AR   Ar   56   0.831   5.680   1.530
    1   AR   Ar   57   0.381   4.835   4.016
    1   AR   Ar   58   0.241   5.835   4.560
    1   AR   Ar   59   1.573   5.754   4.598
    1   AR   Ar   60   1.025   6.335   3.755
    1   AR   Ar   61   6.720   5.855   5.877
    1   AR   Ar   62   0.723   5.449   5.355
    1   AR   Ar   63   1.923   5.535   5.726
    1   AR   Ar   64   0.972   6.685   4.985
    1   AR   Ar   65   1.772   6.362  -0.132
    1   AR   Ar   66   1.854   1.074   0.858
    1   AR   Ar   67   2.832   6.305   0.256
    1   AR   Ar   68   3.167   1.100   0.347
    1   AR   Ar   69   2.233   7.050   0.873
    1   AR   Ar   70   1.346   0.768   2.193
    1   AR   Ar   71   2.031   7.002   2.174
    1   AR   Ar   72   2.773   0.789   1.612
    1   AR   Ar   73   1.547   0.147   3.380
    1   AR   Ar   74   1.558   1.464   4.581
    1   AR   Ar   75   2.697   0.773   4.290
    1   AR   Ar   76   2.193   1.058   3.498
    1   AR   Ar   77   2.071   0.250   5.209
    1   AR   Ar   78   1.799   0.229   6.339
    1   AR   Ar   79   2.758   0.192   6.796
    1   AR   Ar   80   2.758   1.151   5.298
    1   AR   Ar   81   2.145   1.368  -0.023
    1   AR   Ar   82   1.672   3.717   1.000
    1   AR   Ar   83   2.589   1.992   1.519
    1   AR   Ar   84   1.973   2.769  -0.414
    1   AR   Ar   85   1.443   1.730   1.566
    1   AR   Ar   86   2.088   2.753   2.620
    1   AR   Ar   87   2.121   1.323   2.389
    1   AR   Ar   88   2.718   3.181   1.805
    1   AR   Ar   89   1.000   1.621   2.695
    1   AR   Ar   90   2.436   3.172   4.646
    1   AR   Ar   91   2.444   1.933   4.678
    1   AR   Ar   92   1.982   2.162   3.687
    1   AR   Ar   93   1.913   1.807   5.542
    1   AR   Ar   94   2.503   2.605   6.942
    1   AR   Ar   95   2.461   1.430   6.854
    1   AR   Ar   96   2.469   2.620   5.709
    1   AR   Ar   97   2.084   4.173   0.175
    1   AR   Ar   98   2.666   4.374   1.549
    1   AR   Ar   99   2.898   3.254  -0.314
    1   AR   Ar  100   2.445   5.126  -0.231
    1   AR   Ar  101   1.162   3.158   1.777
    1   AR   Ar  102   1.856   4.491   3.339
    1   AR   Ar  103   2.091   3.936   2.338
    1   AR   Ar  104   3.090   4.076   0.710
    1   AR   Ar  105   1.843   3.177   3.575
    1   AR   Ar  106   1.703   3.940   4.313
    1   AR   Ar  107   2.592   4.457   5.012
    1   AR   Ar  108   2.838   4.130   3.699
    1   AR   Ar  109   0.749   3.949   4.934
    1   AR   Ar  110   1.767   3.471   5.397
    1   AR   Ar  111   3.324   4.814   6.406
    1   AR   Ar  112   2.422   4.311   6.559
    1   AR   Ar  113   2.164   4.897   0.805
    1   AR   Ar  114   1.673   6.079   1.035
    1   AR   Ar  115   3.079   5.556   1.119
    1   AR   Ar  116   2.682   0.591  -0.599
    1   AR   Ar  117   1.137   4.988   2.485
    1   AR   Ar  118   1.595   6.039   2.898
    1   AR   Ar  119   2.564   5.018   2.576
    1   AR   Ar  120   2.005   5.370   1.813
    1   AR   Ar  121   1.306   5.278   3.701
    1   AR   Ar  122   2.212   6.536   4.297
    1   AR   Ar  123   2.474   5.448   4.581
    1   AR   Ar  124   2.580   6.448   3.055
    1   AR   Ar  125   1.573   4.834   4.864
    1   AR   Ar  126   1.480   6.390   6.178
    1   AR   Ar  127   2.646   5.298   7.009
    1   AR   Ar  128   2.464   6.623   5.795
    1   AR   Ar  129   3.217   7.065   0.591
    1   AR   Ar  130   4.067   0.463   0.253
    1   AR   Ar  131   4.298   6.787   0.842
    1   AR   Ar  132   4.011   1.341  -0.461
    1   AR   Ar  133   3.691   6.837   2.516
    1   AR   Ar  134   3.211   0.835   2.687
    1   AR   Ar  135   4.578   0.292   2.600
    1   AR   Ar  136   3.736   0.445   1.490
    1   AR   Ar  137   2.947   0.197   3.498
    1   AR   Ar  138   3.709   0.914   4.446
    1   AR   Ar  139   3.824   7.023   4.147
    1   AR   Ar  140   4.215   0.918   3.480
    1   AR   Ar  141   3.028   6.995   5.004
    1   AR   Ar  142   3.457   0.884   5.996
    1   AR   Ar  143   4.295   6.801   6.204
    1   AR   Ar  144   4.986   0.891   6.209
    1   AR   Ar  145   3.325   2.216   0.541
    1   AR   Ar  146   3.691   2.847   1.321
    1   AR   Ar  147   4.508   2.379   0.806
    1   AR   Ar  148   5.571   2.354  -0.516
    1   AR   Ar  149   3.756   1.533   1.537
    1   AR   Ar  150   2.922   1.953   2.598
    1   AR   Ar  151   3.877   1.709   2.815
    1   AR   Ar  152   3.668   2.609   2.337
    1   AR   Ar  153   3.187   1.591   3.835
    1   AR   Ar  154   3.793   2.651   4.157
    1   AR   Ar  155   4.380   2.078   4.912
    1   AR   Ar  156   4.684   3.517   4.312
    1   AR   Ar  157   3.326   2.701   5.079
    1   AR   Ar  158   3.294   2.015   6.239
    1   AR   Ar  159   4.077   1.357   6.898
    1   AR   Ar  160   4.324   3.009   5.485
    1   AR   Ar  161   4.152   3.200  -0.213
    1   AR   Ar  162   4.000   4.740   0.553
    1   AR   Ar  163   4.517   3.447   0.793
    1   AR   Ar  164   5.357   4.849   0.652
    1   AR   Ar  165   3.659   3.725   2.626
    1   AR   Ar  166   3.425   4.738   3.103
    1   AR   Ar  167   4.282   3.107   3.311
    1   AR   Ar  168   4.016   4.105   1.367
    1   AR   Ar  169   3.117   3.095   3.455
    1   AR   Ar  170   3.422   4.920   4.180
    1   AR   Ar  171   3.704   3.583   4.896
    1   AR   Ar  172   4.465   4.633   4.373
    1   AR   Ar  173   3.205   3.400   5.863
    1   AR   Ar  174   4.259   5.216   6.242
    1   AR   Ar  175   4.091   4.124   5.992
    1   AR   Ar  176   3.854   4.804   5.214
    1   AR   Ar  177   4.886   5.735   0.224
    1   AR   Ar  178   3.780   6.207   1.652
    1   AR   Ar  179   4.502   5.332   1.360
    1   AR   Ar  180   4.003   6.395  -0.076
    1   AR   Ar  181   3.471   4.843   1.975
    1   AR   Ar  182   2.712   6.216   1.901
    1   AR   Ar  183   4.278   4.999   2.534
    1   AR   Ar  184   4.534   5.975   2.482
    1   AR   Ar  185   2.581   5.548   3.565
    1   AR   Ar  186   3.257   6.193   4.261
    1   AR   Ar  187   4.680   5.350   3.455
    1   AR   Ar  188   3.766   5.944   3.184
    1   AR   Ar  189   3.078   5.401   5.469
    1   AR   Ar  190   3.649   6.758   7.018
    1   AR   Ar  191   4.821   5.873   5.421
    1   AR   Ar  192   4.058   6.832   5.155
    1   AR   Ar  193   5.321   0.058   0.244
    1   AR   Ar  194   4.709   1.116   0.963
    1   AR   Ar  195   5.920   1.155   0.773
    1   AR   Ar  196   5.382   1.330  -0.226
    1   AR   Ar  197   5.238   0.299   1.469
    1   AR   Ar  198   5.410   1.413   1.920
    1   AR   Ar  199   6.416   0.680   2.135
    1   AR   Ar  200   6.715   1.667   1.457
    1   AR   Ar  201   4.600   6.688   3.475
    1   AR   Ar  202   4.882   1.153   4.426
    1   AR   Ar  203   6.637   6.761   4.975
    1   AR   Ar  204   6.229   0.195   3.635
    1   AR   Ar  205   5.041   0.044   4.486
    1   AR   Ar  206   5.349   6.857   5.842
    1   AR   Ar  207   6.346   6.993   5.941
    1   AR   Ar  208   6.187   0.490   4.774
    1   AR   Ar  209   6.858   2.312  -0.467
    1   AR   Ar  210   5.394   2.321   1.392
    1   AR   Ar  211   6.078   2.103   0.467
    1   AR   Ar  212   6.760   3.168   0.149
    1   AR   Ar  213   4.805   2.322   2.423
    1   AR   Ar  214   4.432   3.410   1.966
    1   AR   Ar  215   6.064   2.062   2.358
    1   AR   Ar  216   6.556   2.695   1.582
    1   AR   Ar  217   4.694   1.946   3.775
    1   AR   Ar  218   5.297   2.255   4.555
    1   AR   Ar  219   5.954   1.549   3.833
    1   AR   Ar  220   5.780   2.886   3.016
    1   AR   Ar  221   5.304   1.588   5.410
    1   AR   Ar  222   4.539   2.249   6.189
    1   AR   Ar  223   6.718   1.372   6.809
    1   AR   Ar  224   6.455   2.921   5.369
    1   AR   Ar  225   4.966   3.820  -0.060
    1   AR   Ar  226   4.966   4.526   1.952
    1   AR   Ar  227   6.995   3.533   1.703
    1   AR   Ar  228   6.290   5.274  -0.089
    1   AR   Ar  229   5.973   3.192   0.890
    1   AR   Ar  230   4.637   4.077   2.966
    1   AR   Ar  231   6.693   3.332   3.675
    1   AR   Ar  232   5.635   3.674   1.657
    1   AR   Ar  233   5.568   3.137   4.023
    1   AR   Ar  234   6.028   4.122   4.377
    1   AR   Ar  235   6.880   3.662   4.824
    1   AR   Ar  236   6.627   4.400   3.441
    1   AR   Ar  237   5.389   3.005   5.341
    1   AR   Ar  238   5.048   4.568   6.036
    1   AR   Ar  239   5.461   3.751   7.628
    1   AR   Ar  240   5.824   3.989   5.641
    1   AR   Ar  241   6.665   0.113  -0.109
    1   AR   Ar  242   4.923   6.326   1.548
    1   AR   Ar  243   6.511   4.601   2.025
    1   AR   Ar  244   6.311   7.088   1.045
    1   AR   Ar  245   5.345   5.371   2.403
    1   AR   Ar  246   5.691   6.469   3.004
    1   AR   Ar  247   5.752   3.900   2.939
    1   AR   Ar  248   6.062   6.573   1.856
    1   AR   Ar  249   6.336   5.265   2.852
    1   AR   Ar  250   5.043   5.736   4.309
    1   AR   Ar  251   6.299   5.335   4.031
    1   AR   Ar  252   6.091   6.302   4.237
    1   AR   Ar  253   5.216   4.801   5.067
    1   AR   Ar  254   5.205   5.875   6.388
    1   AR   Ar  255   6.169   5.087   5.724
    1   AR   Ar  256   5.821   6.118   5.215
    7.12000  7.12000 12.00000
Argon-slab step 530
  256
    1   AR   Ar    1   0.731   0.661  -0.585
    1   AR   Ar    2   7.044   0.742   0.780
    1   AR   Ar    3   0.663   6.387   0.563
    1   AR   Ar    4   1.165   0.181   0.284
    1   AR   Ar    5   0.098   6.912   1.491
    1   AR   Ar    6   0.215   0.359   2.963
    1   AR   Ar    7   0.738   6.803   2.490
    1   AR   Ar    8   1.248   7.117   1.376
    1   AR   Ar    9   0.344   7.034   4.216
    1   AR   Ar   10   7.114   0.856   4.174
    1   AR   Ar   11   1.316   0.465   4.392
    1   AR   Ar   12   0.866   0.984   3.495
    1   AR   Ar   13   0.170   0.443   5.275
    1   AR   Ar   14   0.249   1.143   6.043
    1   AR   Ar   15   2.145   0.394   7.677
    1   AR   Ar   16   1.176   0.738   5.371
    1   AR   Ar   17   6.791   1.137  -0.096
    1   AR   Ar   18   0.169   2.452   0.569
    1   AR   Ar   19   0.596   1.483   0.982
    1   AR   Ar   20   0.919   2.312  -0.930
    1   AR   Ar   21   0.383   0.840   1.780
    1   AR   Ar   22   6.991   2.431   2.783
    1   AR   Ar   23   7.022   1.368   2.570
    1   AR   Ar   24   0.515   2.200   2.031
    1   AR   Ar   25   0.043   1.844   3.624
    1   AR   Ar   26   6.417   2.446   4.480
    1   AR   Ar   27   0.272   1.800   5.102
    1   AR   Ar   28   0.850   2.654   4.198
    1   AR   Ar   29   6.381   1.639   5.332
    1   AR   Ar   30   0.085   2.235   6.193
    1   AR   Ar   31   0.916   0.772   7.012
    1   AR   Ar   32   1.171   2.618   5.737
    1   AR   Ar   33   0.766   3.215  -0.279
    1   AR   Ar   34   0.009   4.911   1.119
    1   AR   Ar   35   0.462   3.430   0.788
    1   AR   Ar   36   1.688   5.784  -0.959
    1   AR   Ar   37   0.030   3.485   2.799
    1   AR   Ar   38   0.236   4.628   2.789
    1   AR   Ar   39   1.153   3.819   2.976
    1   AR   Ar   40   0.829   4.081   2.018
    1   AR   Ar   41   0.894   2.704   2.971
    1   AR   Ar   42   6.769   4.798   4.830
    1   AR   Ar   43   0.354   2.924   5.336
    1   AR   Ar   44   0.514   3.770   3.922
    1   AR   Ar   45   0.320   4.020   5.852
    1   AR   Ar   46   6.974   4.812   6.384
    1   AR   Ar   47   0.852   3.943   7.030
    1   AR   Ar   48   1.117   4.560   6.125
    1   AR   Ar   49   0.087   4.672   0.022
    1   AR   Ar   50   6.306   5.616   1.053
    1   AR   Ar   51   1.014   4.458   0.692
    1   AR   Ar   52   0.940   5.340   0.272
    1   AR   Ar   53   6.911   5.746   2.161
    1   AR   Ar   54   6.840   6.417   3.427
    1   AR   Ar   55   0.360   5.654   3.116
    1   AR   Ar   56   0.823   5.679   1.525
    1   AR   Ar   57   0.332   4.841   3.994
    1   AR   Ar   58   0.249   5.817   4.558
    1   AR   Ar   59   1.566   5.783   4.571
    1   AR   Ar   60   1.041   6.326   3.759
    1   AR   Ar   61   6.707   5.868   5.889
    1   AR   Ar   62   0.695   5.443   5.349
    1   AR   Ar   63   1.905   5.534   5.744
    1   AR   Ar   64   0.978   6.684   4.971
    1   AR   Ar   65   1.803   6.371  -0.131
    1   AR   Ar   66   1.859   1.094   0.852
    1   AR   Ar   67   2.846   6.288   0.261
    1   AR   Ar   68   3.163   1.080   0.345
    1   AR   Ar   69   2.232   7.069   0.857
    1   AR   Ar   70   1.324   0.758   2.171
    1   AR   Ar   71   2.048   6.986   2.195
    1   AR   Ar   72   2.762   0.792   1.586
    1   AR   Ar   73   1.565   0.103   3.368
    1   AR   Ar   74   1.545   1.429   4.598
    1   AR   Ar   75   2.708   0.782   4.362
    1   AR   Ar   76   2.185   1.056   3.489
    1   AR   Ar   77   2.045   0.280   5.233
    1   AR   Ar   78   1.767   0.230   6.371
    1   AR   Ar   79   2.786   0.212   6.797
    1   AR   Ar   80   2.730   1.144   5.312
    1   AR   Ar   81   2.176   1.385  -0.062
    1   AR   Ar   82   1.660   3.725   1.006
    1   AR   Ar   83   2.574   1.987   1.542
    1   AR   Ar   84   1.968   2.790  -0.441
    1   AR   Ar   85   1.426   1.777   1.561
    1   AR   Ar   86   2.112   2.762   2.621
    1   AR   Ar   87   2.104   1.308   2.383
    1   AR   Ar   88   2.733   3.152   1.771
    1   AR   Ar   89   1.015   1.644   2.683
    1   AR   Ar   90   2.465   3.148   4.643
    1   AR   Ar   91   2.455   1.949   4.651
    1   AR   Ar   92   1.977   2.123   3.661
    1   AR   Ar   93   1.917   1.812   5.543
    1   AR   Ar   94   2.499   2.601   6.936
    1   AR   Ar   95   2.454   1.423   6.890
    1   AR   Ar   96   2.462   2.625   5.760
    1   AR   Ar   97   2.104   4.162   0.170
    1   AR   Ar   98   2.637   4.359   1.557
    1   AR   Ar   99   2.891   3.240  -0.357
    1   AR   Ar  100   2.445   5.111  -0.232
    1   AR   Ar  101   1.170   3.140   1.773
    1   AR   Ar  102   1.869   4.467   3.370
    1   AR   Ar  103   2.079   3.957   2.317
    1   AR   Ar  104   3.081   4.104   0.683
    1   AR   Ar  105   1.846   3.206   3.574
    1   AR   Ar  106   1.729   3.929   4.302
    1   AR   Ar  107   2.588   4.459   5.019
    1   AR   Ar  108   2.827   4.123   3.706
    1   AR   Ar  109   0.754   3.951   4.919
    1   AR   Ar  110   1.763   3.489   5.408
    1   AR   Ar  111   3.269   4.825   6.428
    1   AR   Ar  112   2.434   4.299   6.556
    1   AR   Ar  113   2.165   4.865   0.836
    1   AR   Ar  114   1.637   6.067   1.041
    1   AR   Ar  115   3.073   5.561   1.110
    1   AR   Ar  116   2.644   0.612  -0.618
    1   AR   Ar  117   1.152   4.954   2.517
    1   AR   Ar  118   1.589   6.038   2.883
    1   AR   Ar  119   2.556   5.012   2.559
    1   AR   Ar  120   1.997   5.329   1.821
    1   AR   Ar  121   1.289   5.249   3.722
    1   AR   Ar  122   2.211   6.547   4.282
    1   AR   Ar  123   2.481   5.428   4.601
    1   AR   Ar  124   2.547   6.401   3.029
    1   AR   Ar  125   1.569   4.857   4.861
    1   AR   Ar  126   1.479   6.394   6.163
    1   AR   Ar  127   2.638   5.331   7.031
    1   AR   Ar  128   2.489   6.595   5.777
    1   AR   Ar  129   3.222   7.107   0.568
    1   AR   Ar  130   4.023   0.427   0.239
    1   AR   Ar  131   4.291   6.782   0.810
    1   AR   Ar  132   4.035   1.347  -0.493
    1   AR   Ar  133   3.671   6.846   2.543
    1   AR   Ar  134   3.173   0.804   2.707
    1   AR   Ar  135   4.575   0.316   2.608
    1   AR   Ar  136   3.722   0.432   1.493
    1   AR   Ar  137   2.899   0.202   3.491
    1   AR   Ar  138   3.729   0.933   4.471
    1   AR   Ar  139   3.793   7.025   4.167
    1   AR   Ar  140   4.220   0.942   3.477
    1   AR   Ar  141   3.012   6.995   4.994
    1   AR   Ar  142   3.486   0.888   6.006
    1   AR   Ar  143   4.339   6.795   6.198
    1   AR   Ar  144   4.985   0.866   6.220
    1   AR   Ar  145   3.291   2.211   0.564
    1   AR   Ar  146   3.718   2.823   1.316
    1   AR   Ar  147   4.489   2.360   0.804
    1   AR   Ar  148   5.597   2.349  -0.502
    1   AR   Ar  149   3.780   1.528   1.528
    1   AR   Ar  150   2.917   1.946   2.594
    1   AR   Ar  151   3.850   1.720   2.825
    1   AR   Ar  152   3.647   2.630   2.332
    1   AR   Ar  153   3.203   1.576   3.824
    1   AR   Ar  154   3.830   2.651   4.133
    1   AR   Ar  155   4.358   2.081   4.936
    1   AR   Ar  156   4.666   3.527   4.320
    1   AR   Ar  157   3.305   2.713   5.075
    1   AR   Ar  158   3.308   1.991   6.242
    1   AR   Ar  159   4.082   1.390   6.912
    1   AR   Ar  160   4.321   3.026   5.492
    1   AR   Ar  161   4.175   3.188  -0.231
    1   AR   Ar  162   3.999   4.723   0.543
    1   AR   Ar  163   4.529   3.451   0.776
    1   AR   Ar  164   5.375   4.830   0.651
    1   AR   Ar  165   3.667   3.708   2.635
    1   AR   Ar  166   3.436   4.730   3.122
    1   AR   Ar  167   4.274   3.090   3.318
    1   AR   Ar  168   3.987   4.131   1.391
    1   AR   Ar  169   3.099   3.097   3.450
    1   AR   Ar  170   3.403   4.921   4.158
    1   AR   Ar  171   3.760   3.562   4.875
    1   AR   Ar  172   4.473   4.643   4.407
    1   AR   Ar  173   3.188   3.408   5.879
    1   AR   Ar  174   4.274   5.238   6.246
    1   AR   Ar  175   4.070   4.140   6.032
    1   AR   Ar  176   3.877   4.792   5.186
    1   AR   Ar  177   4.916   5.744   0.262
    1   AR   Ar  178   3.798   6.225   1.655
    1   AR   Ar  179   4.500   5.327   1.368
    1   AR   Ar  180   4.009   6.378  -0.079
    1   AR   Ar  181   3.449   4.852   1.963
    1   AR   Ar  182   2.698   6.194   1.864
    1   AR   Ar  183   4.287   4.999   2.555
    1   AR   Ar  184   4.534   6.009   2.440
    1   AR   Ar  185   2.543   5.535   3.565
    1   AR   Ar  186   3.265   6.194   4.239
    1   AR   Ar  187   4.691   5.350   3.481
    1   AR   Ar  188   3.745   5.904   3.166
    1   AR   Ar  189   3.053   5.400   5.508
    1   AR   Ar  190   3.670   6.803   7.013
    1   AR   Ar  191   4.810   5.879   5.411
    1   AR   Ar  192   4.027   6.840   5.171
    1   AR   Ar  193   5.314   0.055   0.236
    1   AR   Ar  194   4.723   1.137   0.990
    1   AR   Ar  195   5.918   1.157   0.767
    1   AR   Ar  196   5.396   1.333  -0.227
    1   AR   Ar  197   5.211   0.314   1.455
    1   AR   Ar  198   5.393   1.407   1.919
    1   AR   Ar  199   6.399   0.710   2.137
    1   AR   Ar  200   6.705   1.667   1.479
    1   AR   Ar  201   4.604   6.669   3.490
    1   AR   Ar  202   4.841   1.135   4.452
    1   AR   Ar  203   6.641   6.765   4.972
    1   AR   Ar  204   6.223   0.215   3.651
    1   AR   Ar  205   5.032   0.044   4.472
    1   AR   Ar  206   5.358   6.869   5.830
    1   AR   Ar  207   6.364   6.976   5.939
    1   AR   Ar  208   6.191   0.487   4.764
    1   AR   Ar  209   6.874   2.319  -0.463
    1   AR   Ar  210   5.399   2.347   1.381
    1   AR   Ar  211   6.090   2.107   0.468
    1   AR   Ar  212   6.749   3.185   0.130
    1   AR   Ar  213   4.793   2.318   2.408
    1   AR   Ar  214   4.433   3.436   1.973
    1   AR   Ar  215   6.080   2.059   2.370
    1   AR   Ar  216   6.546   2.674   1.580
    1   AR   Ar  217   4.716   1.956   3.764
    1   AR   Ar  218   5.335   2.275   4.540
    1   AR   Ar  219   5.947   1.529   3.780
    1   AR   Ar  220   5.824   2.871   3.012
    1   AR   Ar  221   5.309   1.576   5.424
    1   AR   Ar  222   4.549   2.258   6.165
    1   AR   Ar  223   6.755   1.354   6.851
    1   AR   Ar  224   6.456   2.890   5.384
    1   AR   Ar  225   4.956   3.827  -0.076
    1   AR   Ar  226   4.973   4.516   1.949
    1   AR   Ar  227   6.995   3.547   1.700
    1   AR   Ar  228   6.322   5.272  -0.068
    1   AR   Ar  229   5.973   3.181   0.884
    1   AR   Ar  230   4.659   4.068   2.989
    1   AR   Ar  231   6.702   3.299   3.671
    1   AR   Ar  232   5.616   3.699   1.648
    1   AR   Ar  233   5.558   3.134   4.064
    1   AR   Ar  234   5.983   4.112   4.388
    1   AR   Ar  235   6.915   3.698   4.794
    1   AR   Ar  236   6.611   4.392   3.442
    1   AR   Ar  237   5.420   3.017   5.326
    1   AR   Ar  238   5.057   4.574   6.041
    1   AR   Ar  239   5.449   3.783   7.653
    1   AR   Ar  240   5.799   4.054   5.663
    1   AR   Ar  241   6.694   0.163  -0.082
    1   AR   Ar  242   4.914   6.352   1.543
    1   AR   Ar  243   6.519   4.619   2.010
    1   AR   Ar  244   6.314   7.102   1.028
    1   AR   Ar  245   5.342   5.409   2.431
    1   AR   Ar  246   5.720   6.472   3.019
    1   AR   Ar  247   5.714   3.929   2.932
    1   AR   Ar  248   6.057   6.561   1.856
    1   AR   Ar  249   6.309   5.263   2.844
    1   AR   Ar  250   5.029   5.737   4.293
    1   AR   Ar  251   6.298   5.334   4.012
    1   AR   Ar  252   6.075   6.284   4.239
    1   AR   Ar  253   5.227   4.771   5.059
    1   AR   Ar  254   5.207   5.847   6.369
    1   AR   Ar  255   6.169   5.075   5.692
    1   AR   Ar  256   5.811   6.080   5.205
    7.12000  7.12000 12.00000
Argon-slab step 535
  256
    1   AR   Ar    1   0.754   0.676  -0.608
    1   AR   Ar    2   7.049   0.717   0.820
    1   AR   Ar    3   0.669   6.378   0.552
    1   AR   Ar    4   1.207   0.172   0.254
    1   AR   Ar    5   0.124   6.961   1.518
    1   AR   Ar    6   0.217   0.328   2.959
    1   AR   Ar    7   0.748   6.783   2.488
    1   AR   Ar    8   1.277   0.028   1.370
    1   AR   Ar    9   0.365   7.031   4.225
    1   AR   Ar   10   7.109   0.875   4.186
    1   AR   Ar   11   1.319   0.457   4.383
    1   AR   Ar   12   0.888   0.979   3.504
    1   AR   Ar   13   0.161   0.442   5.268
    1   AR   Ar   14   0.277   1.152   6.048
    1   AR   Ar   15   2.101   0.402   7.677
    1   AR   Ar   16   1.181   0.755   5.415
    1   AR   Ar   17   6.796   1.171  -0.110
    1   AR   Ar   18   0.196   2.420   0.603
    1   AR   Ar   19   0.618   1.472   1.002
    1   AR   Ar   20   0.948   2.315  -0.949
    1   AR   Ar   21   0.429   0.836   1.761
    1   AR   Ar   22   7.011   2.408   2.763
    1   AR   Ar   23   7.020   1.373   2.515
    1   AR   Ar   24   0.512   2.187   2.021
    1   AR   Ar   25   0.042   1.860   3.607
    1   AR   Ar   26   6.413   2.468   4.481
    1   AR   Ar   27   0.275   1.832   5.105
    1   AR   Ar   28   0.855   2.654   4.197
    1   AR   Ar   29   6.396   1.649   5.308
    1   AR   Ar   30   0.088   2.204   6.204
    1   AR   Ar   31   0.933   0.761   6.990
    1   AR   Ar   32   1.170   2.653   5.748
    1   AR   Ar   33   0.778   3.231  -0.309
    1   AR   Ar   34   0.019   4.913   1.144
    1   AR   Ar   35   0.441   3.400   0.818
    1   AR   Ar   36   1.715   5.772  -0.945
    1   AR   Ar   37   0.083   3.476   2.798
    1   AR   Ar   38   0.251   4.631   2.822
    1   AR   Ar   39   1.154   3.816   2.975
    1   AR   Ar   40   0.834   4.097   2.033
    1   AR   Ar   41   0.922   2.716   2.964
    1   AR   Ar   42   6.790   4.811   4.840
    1   AR   Ar   43   0.354   2.957   5.402
    1   AR   Ar   44   0.514   3.798   3.938
    1   AR   Ar   45   0.333   4.031   5.881
    1   AR   Ar   46   6.964   4.840   6.357
    1   AR   Ar   47   0.833   3.940   7.021
    1   AR   Ar   48   1.146   4.573   6.139
    1   AR   Ar   49   0.089   4.727  -0.011
    1   AR   Ar   50   6.298   5.635   1.084
    1   AR   Ar   51   1.015   4.474   0.702
    1   AR   Ar   52   0.923   5.341   0.255
    1   AR   Ar   53   6.925   5.745   2.168
    1   AR   Ar   54   6.846   6.390   3.466
    1   AR   Ar   55   0.338   5.616   3.126
    1   AR   Ar   56   0.809   5.675   1.522
    1   AR   Ar   57   0.283   4.847   3.972
    1   AR   Ar   58   0.251   5.805   4.544
    1   AR   Ar   59   1.554   5.794   4.538
    1   AR   Ar   60   1.052   6.317   3.763
    1   AR   Ar   61   6.701   5.893   5.901
    1   AR   Ar   62   0.673   5.431   5.353
    1   AR   Ar   63   1.890   5.529   5.759
    1   AR   Ar   64   0.986   6.681   4.959
    1   AR   Ar   65   1.833   6.383  -0.122
    1   AR   Ar   66   1.864   1.109   0.854
    1   AR   Ar   67   2.850   6.251   0.259
    1   AR   Ar   68   3.158   1.060   0.345
    1   AR   Ar   69   2.225   7.088   0.843
    1   AR   Ar   70   1.299   0.756   2.177
    1   AR   Ar   71   2.042   6.965   2.195
    1   AR   Ar   72   2.746   0.797   1.560
    1   AR   Ar   73   1.583   0.058   3.354
    1   AR   Ar   74   1.531   1.399   4.614
    1   AR   Ar   75   2.714   0.787   4.433
    1   AR   Ar   76   2.202   1.064   3.446
    1   AR   Ar   77   2.026   0.307   5.255
    1   AR   Ar   78   1.737   0.237   6.403
    1   AR   Ar   79   2.813   0.235   6.795
    1   AR   Ar   80   2.703   1.138   5.331
    1   AR   Ar   81   2.208   1.407  -0.107
    1   AR   Ar   82   1.650   3.728   1.017
    1   AR   Ar   83   2.561   1.982   1.564
    1   AR   Ar   84   1.956   2.809  -0.467
    1   AR   Ar   85   1.411   1.825   1.561
    1   AR   Ar   86   2.135   2.770   2.622
    1   AR   Ar   87   2.107   1.293   2.382
    1   AR   Ar   88   2.749   3.123   1.737
    1   AR   Ar   89   1.047   1.661   2.677
    1   AR   Ar   90   2.504   3.113   4.642
    1   AR   Ar   91   2.476   1.937   4.630
    1   AR   Ar   92   1.972   2.083   3.636
    1   AR   Ar   93   1.934   1.798   5.529
    1   AR   Ar   94   2.496   2.597   6.927
    1   AR   Ar   95   2.449   1.416   6.924
    1   AR   Ar   96   2.458   2.635   5.813
    1   AR   Ar   97   2.123   4.139   0.152
    1   AR   Ar   98   2.609   4.341   1.573
    1   AR   Ar   99   2.890   3.228  -0.397
    1   AR   Ar  100   2.444   5.099  -0.232
    1   AR   Ar  101   1.166   3.129   1.744
    1   AR   Ar  102   1.893   4.451   3.387
    1   AR   Ar  103   2.063   3.976   2.301
    1   AR   Ar  104   3.075   4.130   0.650
    1   AR   Ar  105   1.852   3.220   3.584
    1   AR   Ar  106   1.754   3.919   4.295
    1   AR   Ar  107   2.585   4.459   5.028
    1   AR   Ar  108   2.813   4.112   3.717
    1   AR   Ar  109   0.773   3.956   4.904
    1   AR   Ar  110   1.758   3.508   5.419
    1   AR   Ar  111   3.227   4.837   6.443
    1   AR   Ar  112   2.436   4.281   6.553
    1   AR   Ar  113   2.162   4.850   0.871
    1   AR   Ar  114   1.608   6.059   1.044
    1   AR   Ar  115   3.068   5.563   1.098
    1   AR   Ar  116   2.608   0.631  -0.636
    1   AR   Ar  117   1.177   4.926   2.550
    1   AR   Ar  118   1.579   6.035   2.865
    1   AR   Ar  119   2.552   5.002   2.553
    1   AR   Ar  120   1.981   5.292   1.820
    1   AR   Ar  121   1.271   5.222   3.739
    1   AR   Ar  122   2.211   6.562   4.265
    1   AR   Ar  123   2.499   5.407   4.621
    1   AR   Ar  124   2.519   6.360   3.000
    1   AR   Ar  125   1.562   4.864   4.864
    1   AR   Ar  126   1.474   6.395   6.146
    1   AR   Ar  127   2.625   5.368   7.056
    1   AR   Ar  128   2.513   6.562   5.763
    1   AR   Ar  129   3.227   0.040   0.558
    1   AR   Ar  130   3.992   0.407   0.213
    1   AR   Ar  131   4.288   6.773   0.789
    1   AR   Ar  132   4.059   1.352  -0.523
    1   AR   Ar  133   3.649   6.856   2.572
    1   AR   Ar  134   3.136   0.778   2.722
    1   AR   Ar  135   4.603   0.316   2.631
    1   AR   Ar  136   3.714   0.416   1.494
    1   AR   Ar  137   2.851   0.202   3.488
    1   AR   Ar  138   3.719   0.936   4.453
    1   AR   Ar  139   3.767   7.037   4.181
    1   AR   Ar  140   4.224   0.965   3.476
    1   AR   Ar  141   2.993   7.002   4.974
    1   AR   Ar  142   3.517   0.890   6.018
    1   AR   Ar  143   4.385   6.789   6.190
    1   AR   Ar  144   4.985   0.846   6.224
    1   AR   Ar  145   3.257   2.204   0.586
    1   AR   Ar  146   3.743   2.804   1.311
    1   AR   Ar  147   4.471   2.337   0.798
    1   AR   Ar  148   5.624   2.347  -0.488
    1   AR   Ar  149   3.767   1.534   1.519
    1   AR   Ar  150   2.899   1.941   2.591
    1   AR   Ar  151   3.835   1.726   2.840
    1   AR   Ar  152   3.630   2.656   2.330
    1   AR   Ar  153   3.219   1.566   3.808
    1   AR   Ar  154   3.867   2.648   4.114
    1   AR   Ar  155   4.340   2.049   4.925
    1   AR   Ar  156   4.643   3.539   4.329
    1   AR   Ar  157   3.282   2.710   5.075
    1   AR   Ar  158   3.321   1.968   6.243
    1   AR   Ar  159   4.086   1.424   6.924
    1   AR   Ar  160   4.323   3.041   5.504
    1   AR   Ar  161   4.191   3.172  -0.248
    1   AR   Ar  162   3.999   4.709   0.531
    1   AR   Ar  163   4.539   3.453   0.764
    1   AR   Ar  164   5.394   4.810   0.652
    1   AR   Ar  165   3.671   3.694   2.644
    1   AR   Ar  166   3.448   4.724   3.138
    1   AR   Ar  167   4.269   3.072   3.321
    1   AR   Ar  168   3.954   4.160   1.417
    1   AR   Ar  169   3.079   3.099   3.443
    1   AR   Ar  170   3.409   4.930   4.135
    1   AR   Ar  171   3.812   3.560   4.846
    1   AR   Ar  172   4.482   4.649   4.425
    1   AR   Ar  173   3.172   3.419   5.897
    1   AR   Ar  174   4.286   5.263   6.248
    1   AR   Ar  175   4.047   4.152   6.071
    1   AR   Ar  176   3.895   4.780   5.167
    1   AR   Ar  177   4.945   5.754   0.303
    1   AR   Ar  178   3.815   6.244   1.657
    1   AR   Ar  179   4.511   5.324   1.401
    1   AR   Ar  180   4.030   6.365  -0.070
    1   AR   Ar  181   3.429   4.866   1.951
    1   AR   Ar  182   2.684   6.174   1.829
    1   AR   Ar  183   4.297   5.000   2.578
    1   AR   Ar  184   4.528   6.050   2.402
    1   AR   Ar  185   2.505   5.516   3.566
    1   AR   Ar  186   3.267   6.184   4.217
    1   AR   Ar  187   4.648   5.334   3.469
    1   AR   Ar  188   3.716   5.860   3.137
    1   AR   Ar  189   3.026   5.400   5.549
    1   AR   Ar  190   3.691   6.847   7.010
    1   AR   Ar  191   4.793   5.885   5.397
    1   AR   Ar  192   4.001   6.847   5.188
    1   AR   Ar  193   5.306   0.052   0.230
    1   AR   Ar  194   4.736   1.150   1.003
    1   AR   Ar  195   5.915   1.151   0.764
    1   AR   Ar  196   5.410   1.335  -0.225
    1   AR   Ar  197   5.187   0.326   1.443
    1   AR   Ar  198   5.374   1.396   1.916
    1   AR   Ar  199   6.377   0.734   2.133
    1   AR   Ar  200   6.695   1.660   1.500
    1   AR   Ar  201   4.608   6.649   3.504
    1   AR   Ar  202   4.800   1.116   4.479
    1   AR   Ar  203   6.656   6.756   4.969
    1   AR   Ar  204   6.219   0.211   3.670
    1   AR   Ar  205   5.023   0.042   4.459
    1   AR   Ar  206   5.360   6.879   5.816
    1   AR   Ar  207   6.387   6.961   5.941
    1   AR   Ar  208   6.189   0.497   4.751
    1   AR   Ar  209   6.889   2.322  -0.459
    1   AR   Ar  210   5.407   2.374   1.371
    1   AR   Ar  211   6.104   2.118   0.468
    1   AR   Ar  212   6.734   3.211   0.107
    1   AR   Ar  213   4.780   2.316   2.393
    1   AR   Ar  214   4.445   3.466   1.985
    1   AR   Ar  215   6.098   2.055   2.381
    1   AR   Ar  216   6.534   2.646   1.579
    1   AR   Ar  217   4.735   1.966   3.748
    1   AR   Ar  218   5.375   2.287   4.531
    1   AR   Ar  219   5.939   1.510   3.728
    1   AR   Ar  220   5.869   2.854   3.009
    1   AR   Ar  221   5.316   1.565   5.430
    1   AR   Ar  222   4.558   2.262   6.141
    1   AR   Ar  223   6.791   1.336   6.896
    1   AR   Ar  224   6.453   2.861   5.406
    1   AR   Ar  225   4.954   3.841  -0.094
    1   AR   Ar  226   4.981   4.502   1.944
    1   AR   Ar  227   6.984   3.562   1.694
    1   AR   Ar  228   6.352   5.272  -0.045
    1   AR   Ar  229   5.974   3.165   0.867
    1   AR   Ar  230   4.679   4.061   3.012
    1   AR   Ar  231   6.704   3.263   3.676
    1   AR   Ar  232   5.593   3.727   1.649
    1   AR   Ar  233   5.557   3.134   4.099
    1   AR   Ar  234   5.937   4.103   4.398
    1   AR   Ar  235   6.942   3.732   4.762
    1   AR   Ar  236   6.593   4.387   3.443
    1   AR   Ar  237   5.448   3.030   5.310
    1   AR   Ar  238   5.058   4.586   6.057
    1   AR   Ar  239   5.445   3.792   7.665
    1   AR   Ar  240   5.787   4.109   5.678
    1   AR   Ar  241   6.720   0.199  -0.054
    1   AR   Ar  242   4.910   6.377   1.537
    1   AR   Ar  243   6.526   4.635   1.995
    1   AR   Ar  244   6.312   0.001   1.004
    1   AR   Ar  245   5.345   5.445   2.458
    1   AR   Ar  246   5.749   6.474   3.033
    1   AR   Ar  247   5.678   3.896   2.918
    1   AR   Ar  248   6.055   6.542   1.866
    1   AR   Ar  249   6.283   5.261   2.844
    1   AR   Ar  250   5.021   5.747   4.292
    1   AR   Ar  251   6.299   5.325   3.990
    1   AR   Ar  252   6.079   6.259   4.216
    1   AR   Ar  253   5.247   4.745   5.049
    1   AR   Ar  254   5.219   5.809   6.361
    1   AR   Ar  255   6.159   5.053   5.656
    1   AR   Ar  256   5.802   6.040   5.200
    7.12000  7.12000 12.00000
Argon-slab step 540
  256
    1   AR   Ar    1   0.777   0.692  -0.629
    1   AR   Ar    2   7.048   0.716   0.835
    1   AR   Ar    3   0.673   6.370   0.544
    1   AR   Ar    4   1.252   0.163   0.227
    1   AR   Ar    5   0.151   7.008   1.546
    1   AR   Ar    6   0.209   0.308   2.963
    1   AR   Ar    7   0.765   6.753   2.479
    1   AR   Ar    8   1.304   0.059   1.363
    1   AR   Ar    9   0.382   7.026   4.230
    1   AR   Ar   10   7.102   0.898   4.197
    1   AR   Ar   11   1.321   0.438   4.369
    1   AR   Ar   12   0.912   0.974   3.515
    1   AR   Ar   13   0.151   0.441   5.257
    1   AR   Ar   14   0.308   1.161   6.050
    1   AR   Ar   15   2.057   0.411   7.675
    1   AR   Ar   16   1.173   0.780   5.466
    1   AR   Ar   17   6.801   1.222  -0.126
    1   AR   Ar   18   0.220   2.383   0.637
    1   AR   Ar   19   0.645   1.475   1.026
    1   AR   Ar   20   0.954   2.323  -0.941
    1   AR   Ar   21   0.462   0.830   1.743
    1   AR   Ar   22   7.024   2.393   2.747
    1   AR   Ar   23   7.028   1.385   2.468
    1   AR   Ar   24   0.507   2.178   1.995
    1   AR   Ar   25   0.042   1.872   3.596
    1   AR   Ar   26   6.413   2.487   4.473
    1   AR   Ar   27   0.283   1.865   5.106
    1   AR   Ar   28   0.867   2.657   4.191
    1   AR   Ar   29   6.409   1.658   5.285
    1   AR   Ar   30   0.089   2.175   6.214
    1   AR   Ar   31   0.950   0.752   6.968
    1   AR   Ar   32   1.192   2.677   5.768
    1   AR   Ar   33   0.790   3.246  -0.337
    1   AR   Ar   34   0.031   4.914   1.167
    1   AR   Ar   35   0.425   3.375   0.848
    1   AR   Ar   36   1.742   5.756  -0.932
    1   AR   Ar   37   0.139   3.471   2.792
    1   AR   Ar   38   0.262   4.628   2.853
    1   AR   Ar   39   1.149   3.799   2.975
    1   AR   Ar   40   0.836   4.113   2.041
    1   AR   Ar   41   0.905   2.703   2.950
    1   AR   Ar   42   6.812   4.824   4.850
    1   AR   Ar   43   0.335   2.999   5.457
    1   AR   Ar   44   0.514   3.824   3.945
    1   AR   Ar   45   0.340   4.035   5.907
    1   AR   Ar   46   6.955   4.869   6.332
    1   AR   Ar   47   0.815   3.937   7.010
    1   AR   Ar   48   1.181   4.591   6.153
    1   AR   Ar   49   0.096   4.777  -0.042
    1   AR   Ar   50   6.291   5.653   1.117
    1   AR   Ar   51   1.013   4.482   0.717
    1   AR   Ar   52   0.907   5.356   0.234
    1   AR   Ar   53   6.941   5.746   2.170
    1   AR   Ar   54   6.852   6.365   3.506
    1   AR   Ar   55   0.320   5.580   3.137
    1   AR   Ar   56   0.790   5.668   1.523
    1   AR   Ar   57   0.236   4.856   3.948
    1   AR   Ar   58   0.248   5.800   4.519
    1   AR   Ar   59   1.536   5.818   4.510
    1   AR   Ar   60   1.046   6.312   3.764
    1   AR   Ar   61   6.699   5.922   5.913
    1   AR   Ar   62   0.657   5.414   5.366
    1   AR   Ar   63   1.876   5.520   5.770
    1   AR   Ar   64   0.998   6.676   4.951
    1   AR   Ar   65   1.863   6.398  -0.107
    1   AR   Ar   66   1.867   1.121   0.859
    1   AR   Ar   67   2.853   6.208   0.256
    1   AR   Ar   68   3.151   1.046   0.345
    1   AR   Ar   69   2.215   7.105   0.829
    1   AR   Ar   70   1.284   0.771   2.231
    1   AR   Ar   71   2.034   6.946   2.195
    1   AR   Ar   72   2.726   0.804   1.534
    1   AR   Ar   73   1.603   0.013   3.338
    1   AR   Ar   74   1.519   1.378   4.629
    1   AR   Ar   75   2.711   0.786   4.487
    1   AR   Ar   76   2.219   1.070   3.404
    1   AR   Ar   77   2.018   0.326   5.273
    1   AR   Ar   78   1.710   0.249   6.434
    1   AR   Ar   79   2.836   0.261   6.790
    1   AR   Ar   80   2.680   1.136   5.366
    1   AR   Ar   81   2.242   1.398  -0.094
    1   AR   Ar   82   1.645   3.730   1.032
    1   AR   Ar   83   2.548   1.976   1.585
    1   AR   Ar   84   1.938   2.825  -0.494
    1   AR   Ar   85   1.402   1.875   1.566
    1   AR   Ar   86   2.157   2.777   2.622
    1   AR   Ar   87   2.132   1.273   2.386
    1   AR   Ar   88   2.765   3.095   1.704
    1   AR   Ar   89   1.084   1.675   2.677
    1   AR   Ar   90   2.531   3.086   4.634
    1   AR   Ar   91   2.504   1.907   4.612
    1   AR   Ar   92   1.967   2.046   3.609
    1   AR   Ar   93   1.944   1.783   5.518
    1   AR   Ar   94   2.494   2.591   6.917
    1   AR   Ar   95   2.444   1.408   6.957
    1   AR   Ar   96   2.451   2.627   5.828
    1   AR   Ar   97   2.141   4.110   0.127
    1   AR   Ar   98   2.591   4.320   1.591
    1   AR   Ar   99   2.894   3.219  -0.436
    1   AR   Ar  100   2.444   5.089  -0.231
    1   AR   Ar  101   1.160   3.113   1.717
    1   AR   Ar  102   1.927   4.449   3.384
    1   AR   Ar  103   2.037   3.990   2.295
    1   AR   Ar  104   3.072   4.155   0.616
    1   AR   Ar  105   1.862   3.221   3.595
    1   AR   Ar  106   1.778   3.915   4.298
    1   AR   Ar  107   2.584   4.453   5.037
    1   AR   Ar  108   2.799   4.098   3.731
    1   AR   Ar  109   0.789   3.972   4.886
    1   AR   Ar  110   1.754   3.529   5.428
    1   AR   Ar  111   3.218   4.865   6.451
    1   AR   Ar  112   2.426   4.256   6.549
    1   AR   Ar  113   2.153   4.847   0.898
    1   AR   Ar  114   1.587   6.053   1.043
    1   AR   Ar  115   3.065   5.560   1.083
    1   AR   Ar  116   2.575   0.645  -0.655
    1   AR   Ar  117   1.212   4.904   2.585
    1   AR   Ar  118   1.561   6.028   2.844
    1   AR   Ar  119   2.554   4.988   2.559
    1   AR   Ar  120   1.955   5.261   1.810
    1   AR   Ar  121   1.296   5.235   3.745
    1   AR   Ar  122   2.213   6.581   4.246
    1   AR   Ar  123   2.493   5.392   4.606
    1   AR   Ar  124   2.499   6.327   2.970
    1   AR   Ar  125   1.553   4.860   4.871
    1   AR   Ar  126   1.465   6.395   6.128
    1   AR   Ar  127   2.607   5.409   7.084
    1   AR   Ar  128   2.533   6.526   5.755
    1   AR   Ar  129   3.207   0.079   0.565
    1   AR   Ar  130   3.993   0.409   0.168
    1   AR   Ar  131   4.295   6.767   0.784
    1   AR   Ar  132   4.083   1.357  -0.550
    1   AR   Ar  133   3.625   6.865   2.601
    1   AR   Ar  134   3.102   0.758   2.729
    1   AR   Ar  135   4.639   0.308   2.657
    1   AR   Ar  136   3.711   0.397   1.496
    1   AR   Ar  137   2.801   0.194   3.492
    1   AR   Ar  138   3.716   0.941   4.441
    1   AR   Ar  139   3.747   7.057   4.189
    1   AR   Ar  140   4.228   0.985   3.477
    1   AR   Ar  141   2.974   7.010   4.950
    1   AR   Ar  142   3.548   0.892   6.032
    1   AR   Ar  143   4.407   6.774   6.191
    1   AR   Ar  144   4.990   0.880   6.226
    1   AR   Ar  145   3.223   2.194   0.608
    1   AR   Ar  146   3.764   2.792   1.309
    1   AR   Ar  147   4.458   2.309   0.792
    1   AR   Ar  148   5.653   2.347  -0.473
    1   AR   Ar  149   3.753   1.541   1.511
    1   AR   Ar  150   2.872   1.937   2.589
    1   AR   Ar  151   3.829   1.730   2.856
    1   AR   Ar  152   3.643   2.632   2.350
    1   AR   Ar  153   3.231   1.558   3.787
    1   AR   Ar  154   3.899   2.639   4.104
    1   AR   Ar  155   4.323   2.017   4.914
    1   AR   Ar  156   4.628   3.552   4.331
    1   AR   Ar  157   3.270   2.693   5.081
    1   AR   Ar  158   3.333   1.946   6.244
    1   AR   Ar  159   4.090   1.457   6.933
    1   AR   Ar  160   4.319   3.024   5.497
    1   AR   Ar  161   4.203   3.151  -0.266
    1   AR   Ar  162   4.001   4.698   0.516
    1   AR   Ar  163   4.549   3.453   0.759
    1   AR   Ar  164   5.412   4.789   0.654
    1   AR   Ar  165   3.671   3.681   2.650
    1   AR   Ar  166   3.461   4.718   3.147
    1   AR   Ar  167   4.269   3.058   3.313
    1   AR   Ar  168   3.920   4.187   1.441
    1   AR   Ar  169   3.060   3.098   3.435
    1   AR   Ar  170   3.414   4.943   4.119
    1   AR   Ar  171   3.846   3.570   4.816
    1   AR   Ar  172   4.490   4.649   4.416
    1   AR   Ar  173   3.171   3.437   5.886
    1   AR   Ar  174   4.294   5.290   6.249
    1   AR   Ar  175   4.024   4.164   6.109
    1   AR   Ar  176   3.900   4.772   5.163
    1   AR   Ar  177   4.973   5.765   0.346
    1   AR   Ar  178   3.829   6.261   1.656
    1   AR   Ar  179   4.521   5.321   1.435
    1   AR   Ar  180   4.047   6.349  -0.069
    1   AR   Ar  181   3.409   4.885   1.941
    1   AR   Ar  182   2.668   6.155   1.798
    1   AR   Ar  183   4.304   4.999   2.597
    1   AR   Ar  184   4.529   6.084   2.403
    1   AR   Ar  185   2.466   5.491   3.568
    1   AR   Ar  186   3.262   6.163   4.195
    1   AR   Ar  187   4.592   5.314   3.449
    1   AR   Ar  188   3.686   5.814   3.110
    1   AR   Ar  189   3.000   5.402   5.589
    1   AR   Ar  190   3.715   6.890   7.008
    1   AR   Ar  191   4.770   5.889   5.382
    1   AR   Ar  192   3.980   6.853   5.207
    1   AR   Ar  193   5.298   0.051   0.227
    1   AR   Ar  194   4.746   1.120   0.963
    1   AR   Ar  195   5.912   1.138   0.764
    1   AR   Ar  196   5.424   1.334  -0.221
    1   AR   Ar  197   5.165   0.335   1.432
    1   AR   Ar  198   5.354   1.385   1.912
    1   AR   Ar  199   6.348   0.750   2.122
    1   AR   Ar  200   6.687   1.643   1.519
    1   AR   Ar  201   4.612   6.628   3.517
    1   AR   Ar  202   4.760   1.100   4.506
    1   AR   Ar  203   6.677   6.735   4.963
    1   AR   Ar  204   6.239   0.214   3.683
    1   AR   Ar  205   5.015   0.038   4.445
    1   AR   Ar  206   5.360   6.889   5.798
    1   AR   Ar  207   6.413   6.948   5.946
    1   AR   Ar  208   6.184   0.514   4.737
    1   AR   Ar  209   6.905   2.324  -0.454
    1   AR   Ar  210   5.417   2.401   1.362
    1   AR   Ar  211   6.123   2.134   0.468
    1   AR   Ar  212   6.719   3.238   0.085
    1   AR   Ar  213   4.768   2.314   2.378
    1   AR   Ar  214   4.464   3.490   1.998
    1   AR   Ar  215   6.113   2.047   2.389
    1   AR   Ar  216   6.521   2.619   1.580
    1   AR   Ar  217   4.751   1.977   3.731
    1   AR   Ar  218   5.410   2.284   4.530
    1   AR   Ar  219   5.932   1.491   3.678
    1   AR   Ar  220   5.914   2.838   3.010
    1   AR   Ar  221   5.321   1.556   5.435
    1   AR   Ar  222   4.568   2.261   6.119
    1   AR   Ar  223   6.813   1.329   6.915
    1   AR   Ar  224   6.452   2.833   5.436
    1   AR   Ar  225   4.958   3.860  -0.115
    1   AR   Ar  226   4.987   4.489   1.939
    1   AR   Ar  227   6.974   3.582   1.690
    1   AR   Ar  228   6.375   5.275  -0.020
    1   AR   Ar  229   5.976   3.153   0.852
    1   AR   Ar  230   4.692   4.055   3.035
    1   AR   Ar  231   6.701   3.225   3.686
    1   AR   Ar  232   5.571   3.754   1.652
    1   AR   Ar  233   5.565   3.145   4.124
    1   AR   Ar  234   5.893   4.095   4.409
    1   AR   Ar  235   6.955   3.761   4.729
    1   AR   Ar  236   6.570   4.377   3.448
    1   AR   Ar  237   5.469   3.045   5.293
    1   AR   Ar  238   5.046   4.607   6.084
    1   AR   Ar  239   5.453   3.769   7.658
    1   AR   Ar  240   5.791   4.142   5.685
    1   AR   Ar  241   6.743   0.220  -0.028
    1   AR   Ar  242   4.913   6.403   1.525
    1   AR   Ar  243   6.534   4.649   1.981
    1   AR   Ar  244   6.304   0.021   0.978
    1   AR   Ar  245   5.347   5.478   2.484
    1   AR   Ar  246   5.777   6.474   3.048
    1   AR   Ar  247   5.649   3.865   2.903
    1   AR   Ar  248   6.053   6.522   1.879
    1   AR   Ar  249   6.260   5.259   2.849
    1   AR   Ar  250   5.020   5.760   4.302
    1   AR   Ar  251   6.304   5.305   3.965
    1   AR   Ar  252   6.098   6.235   4.201
    1   AR   Ar  253   5.262   4.736   5.050
    1   AR   Ar  254   5.235   5.769   6.355
    1   AR   Ar  255   6.144   5.035   5.620
    1   AR   Ar  256   5.797   5.999   5.198
    7.12000  7.12000 12.00000
Argon-slab step 545
  256
    1   AR   Ar    1   0.798   0.708  -0.650
    1   AR   Ar    2   7.030   0.712   0.839
    1   AR   Ar    3   0.677   6.365   0.537
    1   AR   Ar    4   1.297   0.155   0.201
    1   AR   Ar    5   0.176   7.046   1.574
    1   AR   Ar    6   0.196   0.295   2.971
    1   AR   Ar    7   0.780   6.722   2.464
    1   AR   Ar    8   1.327   0.089   1.358
    1   AR   Ar    9   0.393   7.021   4.229
    1   AR   Ar   10   7.094   0.923   4.209
    1   AR   Ar   11   1.324   0.409   4.353
    1   AR   Ar   12   0.935   0.969   3.525
    1   AR   Ar   13   0.141   0.440   5.243
    1   AR   Ar   14   0.341   1.168   6.051
    1   AR   Ar   15   2.013   0.420   7.670
    1   AR   Ar   16   1.155   0.811   5.520
    1   AR   Ar   17   6.806   1.283  -0.141
    1   AR   Ar   18   0.239   2.343   0.670
    1   AR   Ar   19   0.672   1.484   1.039
    1   AR   Ar   20   0.953   2.333  -0.925
    1   AR   Ar   21   0.479   0.824   1.727
    1   AR   Ar   22   7.030   2.389   2.734
    1   AR   Ar   23   7.044   1.400   2.431
    1   AR   Ar   24   0.502   2.171   1.957
    1   AR   Ar   25   0.044   1.881   3.592
    1   AR   Ar   26   6.371   2.479   4.455
    1   AR   Ar   27   0.297   1.899   5.106
    1   AR   Ar   28   0.878   2.661   4.183
    1   AR   Ar   29   6.419   1.666   5.261
    1   AR   Ar   30   0.088   2.148   6.219
    1   AR   Ar   31   0.964   0.745   6.946
    1   AR   Ar   32   1.230   2.693   5.795
    1   AR   Ar   33   0.801   3.260  -0.363
    1   AR   Ar   34   0.047   4.915   1.187
    1   AR   Ar   35   0.414   3.354   0.876
    1   AR   Ar   36   1.769   5.738  -0.921
    1   AR   Ar   37   0.194   3.468   2.785
    1   AR   Ar   38   0.270   4.613   2.880
    1   AR   Ar   39   1.141   3.762   2.975
    1   AR   Ar   40   0.834   4.126   2.041
    1   AR   Ar   41   0.893   2.691   2.937
    1   AR   Ar   42   6.835   4.837   4.860
    1   AR   Ar   43   0.308   3.049   5.504
    1   AR   Ar   44   0.515   3.846   3.936
    1   AR   Ar   45   0.328   4.028   5.889
    1   AR   Ar   46   6.969   4.885   6.310
    1   AR   Ar   47   0.796   3.934   6.997
    1   AR   Ar   48   1.209   4.598   6.164
    1   AR   Ar   49   0.112   4.817  -0.073
    1   AR   Ar   50   6.283   5.672   1.150
    1   AR   Ar   51   1.013   4.480   0.729
    1   AR   Ar   52   0.895   5.380   0.211
    1   AR   Ar   53   6.953   5.752   2.136
    1   AR   Ar   54   6.861   6.344   3.544
    1   AR   Ar   55   0.306   5.552   3.150
    1   AR   Ar   56   0.764   5.657   1.529
    1   AR   Ar   57   0.192   4.866   3.925
    1   AR   Ar   58   0.241   5.799   4.487
    1   AR   Ar   59   1.518   5.850   4.494
    1   AR   Ar   60   1.035   6.309   3.760
    1   AR   Ar   61   6.698   5.949   5.923
    1   AR   Ar   62   0.645   5.394   5.385
    1   AR   Ar   63   1.865   5.506   5.777
    1   AR   Ar   64   1.014   6.669   4.950
    1   AR   Ar   65   1.891   6.416  -0.087
    1   AR   Ar   66   1.870   1.130   0.869
    1   AR   Ar   67   2.857   6.165   0.253
    1   AR   Ar   68   3.144   1.043   0.346
    1   AR   Ar   69   2.202   0.002   0.816
    1   AR   Ar   70   1.277   0.774   2.293
    1   AR   Ar   71   2.024   6.930   2.195
    1   AR   Ar   72   2.703   0.812   1.508
    1   AR   Ar   73   1.625   7.090   3.321
    1   AR   Ar   74   1.509   1.366   4.643
    1   AR   Ar   75   2.699   0.778   4.516
    1   AR   Ar   76   2.234   1.072   3.366
    1   AR   Ar   77   2.019   0.336   5.287
    1   AR   Ar   78   1.687   0.264   6.464
    1   AR   Ar   79   2.856   0.287   6.786
    1   AR   Ar   80   2.667   1.137   5.421
    1   AR   Ar   81   2.271   1.398  -0.077
    1   AR   Ar   82   1.645   3.731   1.048
    1   AR   Ar   83   2.534   1.969   1.603
    1   AR   Ar   84   1.914   2.840  -0.520
    1   AR   Ar   85   1.403   1.925   1.575
    1   AR   Ar   86   2.178   2.784   2.621
    1   AR   Ar   87   2.159   1.254   2.386
    1   AR   Ar   88   2.780   3.067   1.671
    1   AR   Ar   89   1.123   1.690   2.682
    1   AR   Ar   90   2.546   3.097   4.641
    1   AR   Ar   91   2.533   1.878   4.591
    1   AR   Ar   92   1.959   2.014   3.583
    1   AR   Ar   93   1.942   1.772   5.511
    1   AR   Ar   94   2.492   2.585   6.906
    1   AR   Ar   95   2.440   1.399   6.988
    1   AR   Ar   96   2.441   2.612   5.835
    1   AR   Ar   97   2.155   4.077   0.099
    1   AR   Ar   98   2.589   4.295   1.604
    1   AR   Ar   99   2.903   3.213  -0.472
    1   AR   Ar  100   2.443   5.082  -0.228
    1   AR   Ar  101   1.151   3.093   1.696
    1   AR   Ar  102   1.955   4.451   3.374
    1   AR   Ar  103   1.998   3.997   2.305
    1   AR   Ar  104   3.070   4.181   0.585
    1   AR   Ar  105   1.870   3.217   3.604
    1   AR   Ar  106   1.800   3.918   4.310
    1   AR   Ar  107   2.583   4.442   5.048
    1   AR   Ar  108   2.790   4.081   3.750
    1   AR   Ar  109   0.807   3.999   4.874
    1   AR   Ar  110   1.752   3.553   5.435
    1   AR   Ar  111   3.233   4.898   6.466
    1   AR   Ar  112   2.409   4.225   6.545
    1   AR   Ar  113   2.138   4.851   0.910
    1   AR   Ar  114   1.575   6.051   1.038
    1   AR   Ar  115   3.065   5.549   1.066
    1   AR   Ar  116   2.552   0.643  -0.671
    1   AR   Ar  117   1.255   4.889   2.622
    1   AR   Ar  118   1.534   6.016   2.822
    1   AR   Ar  119   2.559   4.971   2.575
    1   AR   Ar  120   1.922   5.235   1.799
    1   AR   Ar  121   1.316   5.243   3.743
    1   AR   Ar  122   2.193   6.596   4.232
    1   AR   Ar  123   2.482   5.380   4.583
    1   AR   Ar  124   2.492   6.302   2.938
    1   AR   Ar  125   1.543   4.849   4.880
    1   AR   Ar  126   1.453   6.397   6.109
    1   AR   Ar  127   2.586   5.451   7.114
    1   AR   Ar  128   2.551   6.488   5.749
    1   AR   Ar  129   3.170   0.099   0.585
    1   AR   Ar  130   4.017   0.424   0.109
    1   AR   Ar  131   4.323   6.774   0.793
    1   AR   Ar  132   4.107   1.361  -0.576
    1   AR   Ar  133   3.606   6.871   2.624
    1   AR   Ar  134   3.071   0.746   2.727
    1   AR   Ar  135   4.675   0.299   2.681
    1   AR   Ar  136   3.711   0.376   1.497
    1   AR   Ar  137   2.760   0.224   3.481
    1   AR   Ar  138   3.719   0.946   4.435
    1   AR   Ar  139   3.731   7.080   4.191
    1   AR   Ar  140   4.231   1.000   3.480
    1   AR   Ar  141   2.954   7.018   4.922
    1   AR   Ar  142   3.580   0.891   6.045
    1   AR   Ar  143   4.413   6.752   6.199
    1   AR   Ar  144   4.995   0.931   6.231
    1   AR   Ar  145   3.188   2.182   0.630
    1   AR   Ar  146   3.780   2.787   1.312
    1   AR   Ar  147   4.451   2.272   0.793
    1   AR   Ar  148   5.672   2.307  -0.488
    1   AR   Ar  149   3.738   1.550   1.502
    1   AR   Ar  150   2.843   1.936   2.591
    1   AR   Ar  151   3.831   1.733   2.874
    1   AR   Ar  152   3.664   2.598   2.375
    1   AR   Ar  153   3.240   1.554   3.762
    1   AR   Ar  154   3.923   2.624   4.108
    1   AR   Ar  155   4.305   1.986   4.903
    1   AR   Ar  156   4.641   3.564   4.315
    1   AR   Ar  157   3.275   2.664   5.098
    1   AR   Ar  158   3.343   1.925   6.244
    1   AR   Ar  159   4.094   1.490   6.940
    1   AR   Ar  160   4.319   3.007   5.493
    1   AR   Ar  161   4.218   3.136  -0.278
    1   AR   Ar  162   4.006   4.689   0.501
    1   AR   Ar  163   4.556   3.453   0.760
    1   AR   Ar  164   5.429   4.768   0.657
    1   AR   Ar  165   3.669   3.659   2.634
    1   AR   Ar  166   3.473   4.709   3.148
    1   AR   Ar  167   4.276   3.049   3.291
    1   AR   Ar  168   3.890   4.209   1.460
    1   AR   Ar  169   3.040   3.095   3.426
    1   AR   Ar  170   3.415   4.956   4.111
    1   AR   Ar  171   3.844   3.590   4.797
    1   AR   Ar  172   4.503   4.646   4.386
    1   AR   Ar  173   3.178   3.419   5.915
    1   AR   Ar  174   4.294   5.319   6.248
    1   AR   Ar  175   4.000   4.175   6.145
    1   AR   Ar  176   3.896   4.785   5.162
    1   AR   Ar  177   5.000   5.778   0.390
    1   AR   Ar  178   3.837   6.261   1.654
    1   AR   Ar  179   4.543   5.327   1.430
    1   AR   Ar  180   4.059   6.327  -0.078
    1   AR   Ar  181   3.432   4.901   1.925
    1   AR   Ar  182   2.650   6.140   1.772
    1   AR   Ar  183   4.300   4.990   2.606
    1   AR   Ar  184   4.529   6.131   2.410
    1   AR   Ar  185   2.427   5.461   3.569
    1   AR   Ar  186   3.254   6.135   4.172
    1   AR   Ar  187   4.541   5.300   3.445
    1   AR   Ar  188   3.654   5.771   3.083
    1   AR   Ar  189   2.973   5.406   5.626
    1   AR   Ar  190   3.741   6.930   7.008
    1   AR   Ar  191   4.756   5.894   5.360
    1   AR   Ar  192   3.963   6.857   5.227
    1   AR   Ar  193   5.290   0.051   0.226
    1   AR   Ar  194   4.751   1.097   0.919
    1   AR   Ar  195   5.917   1.130   0.770
    1   AR   Ar  196   5.438   1.331  -0.215
    1   AR   Ar  197   5.148   0.339   1.424
    1   AR   Ar  198   5.336   1.372   1.906
    1   AR   Ar  199   6.312   0.759   2.106
    1   AR   Ar  200   6.680   1.617   1.531
    1   AR   Ar  201   4.615   6.605   3.529
    1   AR   Ar  202   4.724   1.084   4.532
    1   AR   Ar  203   6.700   6.708   4.953
    1   AR   Ar  204   6.275   0.230   3.690
    1   AR   Ar  205   5.012   0.038   4.447
    1   AR   Ar  206   5.362   6.899   5.778
    1   AR   Ar  207   6.440   6.939   5.954
    1   AR   Ar  208   6.176   0.535   4.724
    1   AR   Ar  209   6.921   2.323  -0.449
    1   AR   Ar  210   5.426   2.425   1.356
    1   AR   Ar  211   6.144   2.151   0.469
    1   AR   Ar  212   6.705   3.266   0.063
    1   AR   Ar  213   4.755   2.313   2.363
    1   AR   Ar  214   4.488   3.509   2.010
    1   AR   Ar  215   6.142   2.037   2.389
    1   AR   Ar  216   6.507   2.605   1.579
    1   AR   Ar  217   4.765   1.988   3.712
    1   AR   Ar  218   5.436   2.260   4.537
    1   AR   Ar  219   5.926   1.474   3.628
    1   AR   Ar  220   5.958   2.823   3.014
    1   AR   Ar  221   5.324   1.549   5.437
    1   AR   Ar  222   4.579   2.252   6.100
    1   AR   Ar  223   6.816   1.337   6.896
    1   AR   Ar  224   6.451   2.803   5.471
    1   AR   Ar  225   4.966   3.884  -0.137
    1   AR   Ar  226   4.986   4.484   1.938
    1   AR   Ar  227   6.963   3.606   1.690
    1   AR   Ar  228   6.385   5.285   0.008
    1   AR   Ar  229   5.990   3.160   0.865
    1   AR   Ar  230   4.692   4.052   3.060
    1   AR   Ar  231   6.698   3.187   3.698
    1   AR   Ar  232   5.556   3.771   1.654
    1   AR   Ar  233   5.570   3.158   4.156
    1   AR   Ar  234   5.851   4.092   4.421
    1   AR   Ar  235   6.954   3.786   4.697
    1   AR   Ar  236   6.541   4.361   3.454
    1   AR   Ar  237   5.483   3.064   5.275
    1   AR   Ar  238   5.024   4.635   6.119
    1   AR   Ar  239   5.462   3.747   7.652
    1   AR   Ar  240   5.807   4.145   5.688
    1   AR   Ar  241   6.752   0.229  -0.012
    1   AR   Ar  242   4.913   6.418   1.496
    1   AR   Ar  243   6.540   4.662   1.969
    1   AR   Ar  244   6.291   0.038   0.953
    1   AR   Ar  245   5.347   5.509   2.507
    1   AR   Ar  246   5.806   6.473   3.064
    1   AR   Ar  247   5.632   3.834   2.885
    1   AR   Ar  248   6.050   6.501   1.892
    1   AR   Ar  249   6.244   5.255   2.859
    1   AR   Ar  250   5.020   5.776   4.314
    1   AR   Ar  251   6.313   5.274   3.937
    1   AR   Ar  252   6.111   6.223   4.189
    1   AR   Ar  253   5.276   4.736   5.053
    1   AR   Ar  254   5.254   5.730   6.348
    1   AR   Ar  255   6.133   5.034   5.585
    1   AR   Ar  256   5.795   5.958   5.197
    7.12000  7.12000 12.00000
Argon-slab step 550
  256
    1   AR   Ar    1   0.818   0.724  -0.669
    1   AR   Ar    2   7.017   0.717   0.846
    1   AR   Ar    3   0.680   6.363   0.532
    1   AR   Ar    4   1.341   0.148   0.178
    1   AR   Ar    5   0.195   7.065   1.598
    1   AR   Ar    6   0.179   0.285   2.982
    1   AR   Ar    7   0.798   6.688   2.447
    1   AR   Ar    8   1.345   0.120   1.356
    1   AR   Ar    9   0.395   7.019   4.223
    1   AR   Ar   10   7.087   0.948   4.220
    1   AR   Ar   11   1.329   0.373   4.336
    1   AR   Ar   12   0.959   0.965   3.534
    1   AR   Ar   13   0.132   0.440   5.229
    1   AR   Ar   14   0.372   1.171   6.052
    1   AR   Ar   15   1.987   0.389   7.664
    1   AR   Ar   16   1.136   0.842   5.573
    1   AR   Ar   17   6.809   1.346  -0.154
    1   AR   Ar   18   0.254   2.304   0.701
    1   AR   Ar   19   0.698   1.495   1.040
    1   AR   Ar   20   0.952   2.342  -0.908
    1   AR   Ar   21   0.491   0.826   1.719
    1   AR   Ar   22   7.031   2.399   2.724
    1   AR   Ar   23   7.068   1.411   2.407
    1   AR   Ar   24   0.492   2.173   1.911
    1   AR   Ar   25   0.048   1.885   3.594
    1   AR   Ar   26   6.347   2.473   4.434
    1   AR   Ar   27   0.315   1.935   5.105
    1   AR   Ar   28   0.889   2.666   4.175
    1   AR   Ar   29   6.425   1.673   5.238
    1   AR   Ar   30   0.085   2.128   6.223
    1   AR   Ar   31   0.965   0.751   6.948
    1   AR   Ar   32   1.272   2.705   5.823
    1   AR   Ar   33   0.811   3.275  -0.386
    1   AR   Ar   34   0.065   4.917   1.203
    1   AR   Ar   35   0.407   3.336   0.900
    1   AR   Ar   36   1.796   5.718  -0.910
    1   AR   Ar   37   0.204   3.465   2.812
    1   AR   Ar   38   0.277   4.584   2.901
    1   AR   Ar   39   1.140   3.727   2.980
    1   AR   Ar   40   0.818   4.135   2.044
    1   AR   Ar   41   0.887   2.680   2.925
    1   AR   Ar   42   6.860   4.852   4.870
    1   AR   Ar   43   0.308   3.047   5.461
    1   AR   Ar   44   0.518   3.864   3.910
    1   AR   Ar   45   0.312   4.018   5.859
    1   AR   Ar   46   6.988   4.898   6.290
    1   AR   Ar   47   0.777   3.932   6.983
    1   AR   Ar   48   1.191   4.550   6.168
    1   AR   Ar   49   0.136   4.843  -0.105
    1   AR   Ar   50   6.275   5.689   1.184
    1   AR   Ar   51   1.013   4.468   0.733
    1   AR   Ar   52   0.891   5.411   0.190
    1   AR   Ar   53   6.964   5.758   2.102
    1   AR   Ar   54   6.876   6.327   3.577
    1   AR   Ar   55   0.297   5.537   3.163
    1   AR   Ar   56   0.755   5.661   1.517
    1   AR   Ar   57   0.155   4.877   3.906
    1   AR   Ar   58   0.234   5.803   4.451
    1   AR   Ar   59   1.504   5.881   4.495
    1   AR   Ar   60   1.017   6.309   3.750
    1   AR   Ar   61   6.699   5.969   5.930
    1   AR   Ar   62   0.634   5.372   5.406
    1   AR   Ar   63   1.855   5.487   5.781
    1   AR   Ar   64   1.033   6.660   4.955
    1   AR   Ar   65   1.906   6.433  -0.067
    1   AR   Ar   66   1.870   1.138   0.881
    1   AR   Ar   67   2.862   6.125   0.248
    1   AR   Ar   68   3.151   1.045   0.397
    1   AR   Ar   69   2.185   0.017   0.803
    1   AR   Ar   70   1.276   0.764   2.359
    1   AR   Ar   71   2.011   6.917   2.196
    1   AR   Ar   72   2.681   0.820   1.482
    1   AR   Ar   73   1.648   7.048   3.302
    1   AR   Ar   74   1.500   1.359   4.654
    1   AR   Ar   75   2.689   0.788   4.508
    1   AR   Ar   76   2.247   1.073   3.336
    1   AR   Ar   77   2.035   0.332   5.266
    1   AR   Ar   78   1.674   0.276   6.487
    1   AR   Ar   79   2.881   0.302   6.794
    1   AR   Ar   80   2.669   1.136   5.490
    1   AR   Ar   81   2.295   1.407  -0.057
    1   AR   Ar   82   1.652   3.733   1.064
    1   AR   Ar   83   2.521   1.962   1.617
    1   AR   Ar   84   1.887   2.854  -0.545
    1   AR   Ar   85   1.412   1.964   1.582
    1   AR   Ar   86   2.192   2.776   2.618
    1   AR   Ar   87   2.182   1.234   2.375
    1   AR   Ar   88   2.795   3.042   1.641
    1   AR   Ar   89   1.130   1.695   2.688
    1   AR   Ar   90   2.549   3.136   4.658
    1   AR   Ar   91   2.564   1.851   4.569
    1   AR   Ar   92   1.950   1.991   3.557
    1   AR   Ar   93   1.925   1.767   5.508
    1   AR   Ar   94   2.491   2.578   6.896
    1   AR   Ar   95   2.436   1.389   7.018
    1   AR   Ar   96   2.432   2.601   5.841
    1   AR   Ar   97   2.165   4.043   0.069
    1   AR   Ar   98   2.600   4.284   1.606
    1   AR   Ar   99   2.915   3.209  -0.506
    1   AR   Ar  100   2.438   5.090  -0.276
    1   AR   Ar  101   1.140   3.069   1.679
    1   AR   Ar  102   1.975   4.455   3.359
    1   AR   Ar  103   1.948   3.999   2.328
    1   AR   Ar  104   3.069   4.206   0.557
    1   AR   Ar  105   1.867   3.216   3.619
    1   AR   Ar  106   1.826   3.899   4.314
    1   AR   Ar  107   2.583   4.427   5.060
    1   AR   Ar  108   2.790   4.062   3.775
    1   AR   Ar  109   0.836   4.029   4.872
    1   AR   Ar  110   1.752   3.580   5.440
    1   AR   Ar  111   3.259   4.907   6.513
    1   AR   Ar  112   2.389   4.192   6.540
    1   AR   Ar  113   2.120   4.858   0.905
    1   AR   Ar  114   1.572   6.052   1.030
    1   AR   Ar  115   3.066   5.538   1.053
    1   AR   Ar  116   2.554   0.601  -0.664
    1   AR   Ar  117   1.303   4.877   2.661
    1   AR   Ar  118   1.501   6.000   2.798
    1   AR   Ar  119   2.565   4.954   2.594
    1   AR   Ar  120   1.884   5.215   1.793
    1   AR   Ar  121   1.333   5.243   3.732
    1   AR   Ar  122   2.195   6.608   4.227
    1   AR   Ar  123   2.472   5.371   4.565
    1   AR   Ar  124   2.494   6.281   2.908
    1   AR   Ar  125   1.532   4.837   4.890
    1   AR   Ar  126   1.439   6.402   6.089
    1   AR   Ar  127   2.563   5.495   7.143
    1   AR   Ar  128   2.567   6.449   5.745
    1   AR   Ar  129   3.137   0.102   0.609
    1   AR   Ar  130   4.049   0.443   0.046
    1   AR   Ar  131   4.346   6.790   0.800
    1   AR   Ar  132   4.130   1.365  -0.600
    1   AR   Ar  133   3.601   6.867   2.620
    1   AR   Ar  134   3.048   0.745   2.712
    1   AR   Ar  135   4.710   0.289   2.705
    1   AR   Ar  136   3.714   0.355   1.499
    1   AR   Ar  137   2.718   0.236   3.484
    1   AR   Ar  138   3.721   0.955   4.436
    1   AR   Ar  139   3.718   7.101   4.187
    1   AR   Ar  140   4.227   1.000   3.487
    1   AR   Ar  141   2.935   7.021   4.896
    1   AR   Ar  142   3.613   0.889   6.059
    1   AR   Ar  143   4.418   6.728   6.207
    1   AR   Ar  144   4.998   0.981   6.238
    1   AR   Ar  145   3.152   2.168   0.653
    1   AR   Ar  146   3.791   2.789   1.321
    1   AR   Ar  147   4.450   2.230   0.788
    1   AR   Ar  148   5.689   2.275  -0.502
    1   AR   Ar  149   3.722   1.560   1.493
    1   AR   Ar  150   2.820   1.941   2.601
    1   AR   Ar  151   3.836   1.732   2.892
    1   AR   Ar  152   3.684   2.572   2.398
    1   AR   Ar  153   3.244   1.553   3.733
    1   AR   Ar  154   3.942   2.605   4.122
    1   AR   Ar  155   4.288   1.957   4.895
    1   AR   Ar  156   4.676   3.576   4.283
    1   AR   Ar  157   3.295   2.625   5.122
    1   AR   Ar  158   3.352   1.906   6.242
    1   AR   Ar  159   4.098   1.523   6.945
    1   AR   Ar  160   4.318   2.993   5.485
    1   AR   Ar  161   4.242   3.132  -0.281
    1   AR   Ar  162   4.014   4.683   0.485
    1   AR   Ar  163   4.563   3.451   0.765
    1   AR   Ar  164   5.447   4.747   0.662
    1   AR   Ar  165   3.663   3.641   2.620
    1   AR   Ar  166   3.481   4.695   3.140
    1   AR   Ar  167   4.288   3.042   3.260
    1   AR   Ar  168   3.869   4.214   1.470
    1   AR   Ar  169   3.022   3.088   3.416
    1   AR   Ar  170   3.401   4.957   4.106
    1   AR   Ar  171   3.812   3.615   4.790
    1   AR   Ar  172   4.518   4.642   4.343
    1   AR   Ar  173   3.185   3.403   5.942
    1   AR   Ar  174   4.285   5.352   6.246
    1   AR   Ar  175   3.976   4.186   6.180
    1   AR   Ar  176   3.887   4.822   5.152
    1   AR   Ar  177   5.026   5.792   0.437
    1   AR   Ar  178   3.838   6.249   1.650
    1   AR   Ar  179   4.564   5.333   1.424
    1   AR   Ar  180   4.069   6.304  -0.091
    1   AR   Ar  181   3.458   4.931   1.918
    1   AR   Ar  182   2.629   6.129   1.752
    1   AR   Ar  183   4.291   4.974   2.582
    1   AR   Ar  184   4.513   6.138   2.414
    1   AR   Ar  185   2.388   5.431   3.567
    1   AR   Ar  186   3.242   6.104   4.147
    1   AR   Ar  187   4.538   5.292   3.454
    1   AR   Ar  188   3.619   5.731   3.055
    1   AR   Ar  189   2.944   5.413   5.656
    1   AR   Ar  190   3.771   6.969   7.010
    1   AR   Ar  191   4.788   5.898   5.316
    1   AR   Ar  192   3.948   6.862   5.247
    1   AR   Ar  193   5.280   0.051   0.229
    1   AR   Ar  194   4.753   1.083   0.869
    1   AR   Ar  195   5.926   1.154   0.774
    1   AR   Ar  196   5.450   1.323  -0.207
    1   AR   Ar  197   5.136   0.336   1.420
    1   AR   Ar  198   5.318   1.360   1.899
    1   AR   Ar  199   6.272   0.763   2.087
    1   AR   Ar  200   6.673   1.584   1.530
    1   AR   Ar  201   4.621   6.601   3.513
    1   AR   Ar  202   4.699   1.073   4.550
    1   AR   Ar  203   6.724   6.676   4.940
    1   AR   Ar  204   6.313   0.246   3.696
    1   AR   Ar  205   5.013   0.042   4.461
    1   AR   Ar  206   5.366   6.907   5.754
    1   AR   Ar  207   6.466   6.936   5.963
    1   AR   Ar  208   6.168   0.557   4.712
    1   AR   Ar  209   6.938   2.324  -0.442
    1   AR   Ar  210   5.432   2.447   1.352
    1   AR   Ar  211   6.166   2.160   0.471
    1   AR   Ar  212   6.694   3.293   0.042
    1   AR   Ar  213   4.742   2.312   2.348
    1   AR   Ar  214   4.515   3.524   2.022
    1   AR   Ar  215   6.167   2.019   2.383
    1   AR   Ar  216   6.466   2.610   1.571
    1   AR   Ar  217   4.778   1.999   3.692
    1   AR   Ar  218   5.442   2.220   4.551
    1   AR   Ar  219   5.920   1.458   3.580
    1   AR   Ar  220   6.001   2.810   3.021
    1   AR   Ar  221   5.329   1.545   5.424
    1   AR   Ar  222   4.591   2.236   6.084
    1   AR   Ar  223   6.827   1.341   6.889
    1   AR   Ar  224   6.449   2.771   5.508
    1   AR   Ar  225   4.977   3.912  -0.158
    1   AR   Ar  226   4.975   4.493   1.944
    1   AR   Ar  227   6.949   3.632   1.696
    1   AR   Ar  228   6.381   5.303   0.039
    1   AR   Ar  229   6.003   3.172   0.874
    1   AR   Ar  230   4.679   4.052   3.086
    1   AR   Ar  231   6.697   3.152   3.710
    1   AR   Ar  232   5.553   3.773   1.651
    1   AR   Ar  233   5.577   3.172   4.181
    1   AR   Ar  234   5.814   4.094   4.434
    1   AR   Ar  235   6.941   3.805   4.668
    1   AR   Ar  236   6.508   4.338   3.459
    1   AR   Ar  237   5.490   3.085   5.255
    1   AR   Ar  238   5.002   4.661   6.155
    1   AR   Ar  239   5.470   3.724   7.645
    1   AR   Ar  240   5.825   4.120   5.692
    1   AR   Ar  241   6.759   0.234  -0.001
    1   AR   Ar  242   4.917   6.418   1.467
    1   AR   Ar  243   6.544   4.673   1.962
    1   AR   Ar  244   6.270   0.050   0.932
    1   AR   Ar  245   5.340   5.540   2.527
    1   AR   Ar  246   5.834   6.471   3.079
    1   AR   Ar  247   5.628   3.803   2.864
    1   AR   Ar  248   6.047   6.480   1.905
    1   AR   Ar  249   6.239   5.250   2.872
    1   AR   Ar  250   5.023   5.791   4.326
    1   AR   Ar  251   6.321   5.239   3.911
    1   AR   Ar  252   6.113   6.218   4.183
    1   AR   Ar  253   5.288   4.743   5.054
    1   AR   Ar  254   5.278   5.693   6.340
    1   AR   Ar  255   6.127   5.052   5.554
    1   AR   Ar  256   5.795   5.920   5.196
    7.12000  7.12000 12.00000
Argon-slab step 555
  256
    1   AR   Ar    1   0.838   0.741  -0.686
    1   AR   Ar    2   7.010   0.733   0.857
    1   AR   Ar    3   0.688   6.361   0.531
    1   AR   Ar    4   1.380   0.146   0.155
    1   AR   Ar    5   0.204   7.058   1.618
    1   AR   Ar    6   0.162   0.277   2.994
    1   AR   Ar    7   0.815   6.657   2.429
    1   AR   Ar    8   1.351   0.143   1.358
    1   AR   Ar    9   0.389   7.019   4.214
    1   AR   Ar   10   7.081   0.974   4.231
    1   AR   Ar   11   1.339   0.335   4.320
    1   AR   Ar   12   0.980   0.963   3.544
    1   AR   Ar   13   0.127   0.435   5.232
    1   AR   Ar   14   0.389   1.175   6.060
    1   AR   Ar   15   1.961   0.358   7.654
    1   AR   Ar   16   1.132   0.868   5.616
    1   AR   Ar   17   6.811   1.403  -0.163
    1   AR   Ar   18   0.259   2.273   0.729
    1   AR   Ar   19   0.727   1.501   1.031
    1   AR   Ar   20   0.951   2.349  -0.891
    1   AR   Ar   21   0.505   0.845   1.722
    1   AR   Ar   22   7.031   2.419   2.716
    1   AR   Ar   23   7.072   1.414   2.392
    1   AR   Ar   24   0.477   2.180   1.861
    1   AR   Ar   25   0.052   1.887   3.601
    1   AR   Ar   26   6.347   2.468   4.413
    1   AR   Ar   27   0.336   1.971   5.105
    1   AR   Ar   28   0.900   2.671   4.165
    1   AR   Ar   29   6.428   1.679   5.214
    1   AR   Ar   30   0.081   2.116   6.224
    1   AR   Ar   31   0.952   0.772   6.970
    1   AR   Ar   32   1.315   2.713   5.851
    1   AR   Ar   33   0.820   3.291  -0.407
    1   AR   Ar   34   0.085   4.919   1.214
    1   AR   Ar   35   0.403   3.320   0.919
    1   AR   Ar   36   1.822   5.699  -0.898
    1   AR   Ar   37   0.200   3.463   2.836
    1   AR   Ar   38   0.284   4.543   2.915
    1   AR   Ar   39   1.149   3.698   2.989
    1   AR   Ar   40   0.783   4.138   2.057
    1   AR   Ar   41   0.896   2.675   2.909
    1   AR   Ar   42   6.888   4.867   4.880
    1   AR   Ar   43   0.314   3.044   5.414
    1   AR   Ar   44   0.523   3.880   3.874
    1   AR   Ar   45   0.295   4.010   5.828
    1   AR   Ar   46   7.007   4.913   6.268
    1   AR   Ar   47   0.757   3.930   6.967
    1   AR   Ar   48   1.175   4.504   6.170
    1   AR   Ar   49   0.161   4.858  -0.140
    1   AR   Ar   50   6.268   5.705   1.217
    1   AR   Ar   51   1.011   4.459   0.736
    1   AR   Ar   52   0.899   5.445   0.172
    1   AR   Ar   53   6.974   5.764   2.069
    1   AR   Ar   54   6.899   6.314   3.604
    1   AR   Ar   55   0.291   5.537   3.171
    1   AR   Ar   56   0.745   5.665   1.508
    1   AR   Ar   57   0.128   4.883   3.895
    1   AR   Ar   58   0.227   5.808   4.415
    1   AR   Ar   59   1.497   5.905   4.509
    1   AR   Ar   60   0.994   6.311   3.731
    1   AR   Ar   61   6.701   5.979   5.935
    1   AR   Ar   62   0.624   5.349   5.428
    1   AR   Ar   63   1.846   5.464   5.782
    1   AR   Ar   64   1.052   6.653   4.967
    1   AR   Ar   65   1.904   6.445  -0.050
    1   AR   Ar   66   1.866   1.145   0.895
    1   AR   Ar   67   2.869   6.087   0.240
    1   AR   Ar   68   3.161   1.062   0.448
    1   AR   Ar   69   2.162   0.028   0.791
    1   AR   Ar   70   1.276   0.740   2.427
    1   AR   Ar   71   1.995   6.903   2.200
    1   AR   Ar   72   2.662   0.827   1.457
    1   AR   Ar   73   1.671   7.009   3.281
    1   AR   Ar   74   1.491   1.353   4.661
    1   AR   Ar   75   2.673   0.802   4.490
    1   AR   Ar   76   2.259   1.073   3.335
    1   AR   Ar   77   2.073   0.319   5.249
    1   AR   Ar   78   1.675   0.282   6.502
    1   AR   Ar   79   2.890   0.319   6.800
    1   AR   Ar   80   2.684   1.130   5.564
    1   AR   Ar   81   2.315   1.421  -0.039
    1   AR   Ar   82   1.664   3.735   1.080
    1   AR   Ar   83   2.512   1.956   1.622
    1   AR   Ar   84   1.858   2.868  -0.570
    1   AR   Ar   85   1.418   1.956   1.576
    1   AR   Ar   86   2.193   2.745   2.610
    1   AR   Ar   87   2.193   1.222   2.352
    1   AR   Ar   88   2.804   3.023   1.616
    1   AR   Ar   89   1.090   1.684   2.693
    1   AR   Ar   90   2.548   3.178   4.671
    1   AR   Ar   91   2.594   1.826   4.548
    1   AR   Ar   92   1.936   1.979   3.534
    1   AR   Ar   93   1.896   1.769   5.507
    1   AR   Ar   94   2.491   2.569   6.888
    1   AR   Ar   95   2.433   1.378   7.046
    1   AR   Ar   96   2.425   2.593   5.843
    1   AR   Ar   97   2.171   4.007   0.038
    1   AR   Ar   98   2.619   4.280   1.603
    1   AR   Ar   99   2.928   3.205  -0.540
    1   AR   Ar  100   2.433   5.103  -0.312
    1   AR   Ar  101   1.127   3.044   1.667
    1   AR   Ar  102   1.983   4.458   3.346
    1   AR   Ar  103   1.894   3.998   2.354
    1   AR   Ar  104   3.069   4.231   0.532
    1   AR   Ar  105   1.865   3.206   3.626
    1   AR   Ar  106   1.851   3.884   4.326
    1   AR   Ar  107   2.584   4.410   5.073
    1   AR   Ar  108   2.796   4.040   3.806
    1   AR   Ar  109   0.867   4.058   4.877
    1   AR   Ar  110   1.753   3.610   5.444
    1   AR   Ar  111   3.287   4.915   6.562
    1   AR   Ar  112   2.369   4.160   6.532
    1   AR   Ar  113   2.102   4.863   0.885
    1   AR   Ar  114   1.576   6.054   1.021
    1   AR   Ar  115   3.063   5.547   1.068
    1   AR   Ar  116   2.557   0.555  -0.657
    1   AR   Ar  117   1.350   4.868   2.700
    1   AR   Ar  118   1.467   5.978   2.776
    1   AR   Ar  119   2.571   4.937   2.611
    1   AR   Ar  120   1.842   5.200   1.797
    1   AR   Ar  121   1.344   5.239   3.716
    1   AR   Ar  122   2.225   6.613   4.233
    1   AR   Ar  123   2.462   5.364   4.556
    1   AR   Ar  124   2.503   6.262   2.879
    1   AR   Ar  125   1.521   4.834   4.901
    1   AR   Ar  126   1.425   6.409   6.067
    1   AR   Ar  127   2.540   5.538   7.172
    1   AR   Ar  128   2.581   6.410   5.742
    1   AR   Ar  129   3.117   0.088   0.635
    1   AR   Ar  130   4.082   0.461  -0.016
    1   AR   Ar  131   4.358   6.815   0.797
    1   AR   Ar  132   4.154   1.368  -0.622
    1   AR   Ar  133   3.597   6.863   2.616
    1   AR   Ar  134   3.034   0.749   2.686
    1   AR   Ar  135   4.743   0.278   2.729
    1   AR   Ar  136   3.719   0.333   1.502
    1   AR   Ar  137   2.681   0.227   3.501
    1   AR   Ar  138   3.716   0.970   4.443
    1   AR   Ar  139   3.707   7.115   4.178
    1   AR   Ar  140   4.225   0.996   3.496
    1   AR   Ar  141   2.919   7.015   4.874
    1   AR   Ar  142   3.633   0.899   6.073
    1   AR   Ar  143   4.424   6.702   6.215
    1   AR   Ar  144   4.998   1.029   6.246
    1   AR   Ar  145   3.116   2.152   0.676
    1   AR   Ar  146   3.800   2.795   1.334
    1   AR   Ar  147   4.454   2.183   0.781
    1   AR   Ar  148   5.704   2.301  -0.487
    1   AR   Ar  149   3.697   1.595   1.489
    1   AR   Ar  150   2.807   1.951   2.620
    1   AR   Ar  151   3.840   1.735   2.911
    1   AR   Ar  152   3.691   2.565   2.401
    1   AR   Ar  153   3.242   1.553   3.704
    1   AR   Ar  154   3.958   2.586   4.141
    1   AR   Ar  155   4.270   1.932   4.890
    1   AR   Ar  156   4.710   3.589   4.247
    1   AR   Ar  157   3.323   2.581   5.150
    1   AR   Ar  158   3.364   1.899   6.243
    1   AR   Ar  159   4.114   1.529   6.947
    1   AR   Ar  160   4.316   2.984   5.472
    1   AR   Ar  161   4.265   3.126  -0.284
    1   AR   Ar  162   4.025   4.678   0.470
    1   AR   Ar  163   4.570   3.450   0.773
    1   AR   Ar  164   5.463   4.725   0.668
    1   AR   Ar  165   3.652   3.626   2.607
    1   AR   Ar  166   3.487   4.672   3.128
    1   AR   Ar  167   4.303   3.036   3.225
    1   AR   Ar  168   3.859   4.200   1.468
    1   AR   Ar  169   3.004   3.078   3.404
    1   AR   Ar  170   3.387   4.961   4.110
    1   AR   Ar  171   3.768   3.643   4.787
    1   AR   Ar  172   4.533   4.639   4.295
    1   AR   Ar  173   3.193   3.387   5.968
    1   AR   Ar  174   4.265   5.390   6.242
    1   AR   Ar  175   3.954   4.196   6.212
    1   AR   Ar  176   3.875   4.840   5.161
    1   AR   Ar  177   5.051   5.807   0.486
    1   AR   Ar  178   3.834   6.238   1.643
    1   AR   Ar  179   4.582   5.342   1.419
    1   AR   Ar  180   4.078   6.279  -0.105
    1   AR   Ar  181   3.472   4.982   1.923
    1   AR   Ar  182   2.605   6.120   1.737
    1   AR   Ar  183   4.281   4.954   2.539
    1   AR   Ar  184   4.492   6.135   2.421
    1   AR   Ar  185   2.351   5.402   3.559
    1   AR   Ar  186   3.230   6.072   4.122
    1   AR   Ar  187   4.546   5.264   3.462
    1   AR   Ar  188   3.609   5.697   3.023
    1   AR   Ar  189   2.916   5.419   5.682
    1   AR   Ar  190   3.805   7.006   7.014
    1   AR   Ar  191   4.812   5.902   5.281
    1   AR   Ar  192   3.930   6.860   5.266
    1   AR   Ar  193   5.270   0.054   0.234
    1   AR   Ar  194   4.751   1.074   0.814
    1   AR   Ar  195   5.933   1.196   0.779
    1   AR   Ar  196   5.462   1.311  -0.195
    1   AR   Ar  197   5.120   0.327   1.420
    1   AR   Ar  198   5.300   1.350   1.890
    1   AR   Ar  199   6.230   0.764   2.066
    1   AR   Ar  200   6.679   1.593   1.522
    1   AR   Ar  201   4.619   6.592   3.495
    1   AR   Ar  202   4.697   1.072   4.532
    1   AR   Ar  203   6.749   6.642   4.927
    1   AR   Ar  204   6.352   0.260   3.701
    1   AR   Ar  205   5.014   0.042   4.475
    1   AR   Ar  206   5.371   6.914   5.727
    1   AR   Ar  207   6.489   6.945   5.972
    1   AR   Ar  208   6.160   0.579   4.704
    1   AR   Ar  209   6.955   2.329  -0.436
    1   AR   Ar  210   5.435   2.464   1.351
    1   AR   Ar  211   6.163   2.150   0.477
    1   AR   Ar  212   6.684   3.319   0.021
    1   AR   Ar  213   4.730   2.311   2.332
    1   AR   Ar  214   4.546   3.535   2.033
    1   AR   Ar  215   6.183   1.992   2.375
    1   AR   Ar  216   6.433   2.617   1.567
    1   AR   Ar  217   4.790   2.009   3.672
    1   AR   Ar  218   5.425   2.168   4.570
    1   AR   Ar  219   5.916   1.442   3.532
    1   AR   Ar  220   6.041   2.797   3.030
    1   AR   Ar  221   5.343   1.540   5.387
    1   AR   Ar  222   4.606   2.210   6.073
    1   AR   Ar  223   6.842   1.341   6.890
    1   AR   Ar  224   6.446   2.735   5.546
    1   AR   Ar  225   4.989   3.941  -0.178
    1   AR   Ar  226   4.958   4.513   1.955
    1   AR   Ar  227   6.933   3.660   1.707
    1   AR   Ar  228   6.368   5.325   0.073
    1   AR   Ar  229   6.015   3.191   0.876
    1   AR   Ar  230   4.656   4.056   3.114
    1   AR   Ar  231   6.701   3.122   3.724
    1   AR   Ar  232   5.560   3.763   1.645
    1   AR   Ar  233   5.591   3.176   4.197
    1   AR   Ar  234   5.783   4.106   4.448
    1   AR   Ar  235   6.921   3.821   4.642
    1   AR   Ar  236   6.472   4.304   3.462
    1   AR   Ar  237   5.493   3.108   5.234
    1   AR   Ar  238   4.986   4.681   6.189
    1   AR   Ar  239   5.478   3.701   7.638
    1   AR   Ar  240   5.843   4.080   5.698
    1   AR   Ar  241   6.766   0.235   0.002
    1   AR   Ar  242   4.929   6.394   1.476
    1   AR   Ar  243   6.545   4.683   1.959
    1   AR   Ar  244   6.240   0.057   0.915
    1   AR   Ar  245   5.330   5.569   2.543
    1   AR   Ar  246   5.862   6.467   3.095
    1   AR   Ar  247   5.631   3.772   2.841
    1   AR   Ar  248   6.044   6.460   1.920
    1   AR   Ar  249   6.239   5.248   2.882
    1   AR   Ar  250   5.028   5.806   4.332
    1   AR   Ar  251   6.325   5.207   3.892
    1   AR   Ar  252   6.103   6.217   4.184
    1   AR   Ar  253   5.297   4.748   5.051
    1   AR   Ar  254   5.305   5.660   6.329
    1   AR   Ar  255   6.129   5.075   5.532
    1   AR   Ar  256   5.798   5.893   5.191
    7.12000  7.12000 12.00000
Argon-slab step 560
  256
    1   AR   Ar    1   0.858   0.758  -0.702
    1   AR   Ar    2   7.008   0.757   0.872
    1   AR   Ar    3   0.704   6.358   0.536
    1   AR   Ar    4   1.408   0.154   0.131
    1   AR   Ar    5   0.207   7.033   1.635
    1   AR   Ar    6   0.146   0.270   3.006
    1   AR   Ar    7   0.829   6.631   2.408
    1   AR   Ar    8   1.347   0.142   1.351
    1   AR   Ar    9   0.392   7.027   4.196
    1   AR   Ar   10   7.081   0.981   4.231
    1   AR   Ar   11   1.355   0.295   4.304
    1   AR   Ar   12   0.989   0.964   3.565
    1   AR   Ar   13   0.123   0.430   5.239
    1   AR   Ar   14   0.381   1.182   6.081
    1   AR   Ar   15   1.935   0.328   7.642
    1   AR   Ar   16   1.159   0.880   5.641
    1   AR   Ar   17   6.810   1.447  -0.164
    1   AR   Ar   18   0.251   2.258   0.749
    1   AR   Ar   19   0.762   1.492   1.013
    1   AR   Ar   20   0.948   2.353  -0.875
    1   AR   Ar   21   0.523   0.871   1.734
    1   AR   Ar   22   7.042   2.429   2.692
    1   AR   Ar   23   7.066   1.411   2.392
    1   AR   Ar   24   0.455   2.189   1.810
    1   AR   Ar   25   0.057   1.888   3.611
    1   AR   Ar   26   6.360   2.462   4.395
    1   AR   Ar   27   0.354   2.000   5.108
    1   AR   Ar   28   0.910   2.677   4.154
    1   AR   Ar   29   6.431   1.684   5.189
    1   AR   Ar   30   0.074   2.114   6.224
    1   AR   Ar   31   0.930   0.799   6.996
    1   AR   Ar   32   1.356   2.719   5.879
    1   AR   Ar   33   0.828   3.308  -0.425
    1   AR   Ar   34   0.106   4.920   1.219
    1   AR   Ar   35   0.400   3.305   0.935
    1   AR   Ar   36   1.845   5.683  -0.888
    1   AR   Ar   37   0.182   3.461   2.858
    1   AR   Ar   38   0.290   4.498   2.926
    1   AR   Ar   39   1.166   3.674   3.003
    1   AR   Ar   40   0.749   4.141   2.065
    1   AR   Ar   41   0.911   2.671   2.894
    1   AR   Ar   42   6.919   4.882   4.889
    1   AR   Ar   43   0.277   3.051   5.392
    1   AR   Ar   44   0.529   3.894   3.834
    1   AR   Ar   45   0.276   4.003   5.797
    1   AR   Ar   46   7.027   4.929   6.244
    1   AR   Ar   47   0.737   3.926   6.951
    1   AR   Ar   48   1.163   4.461   6.168
    1   AR   Ar   49   0.181   4.864  -0.177
    1   AR   Ar   50   6.261   5.716   1.248
    1   AR   Ar   51   1.005   4.454   0.739
    1   AR   Ar   52   0.917   5.478   0.156
    1   AR   Ar   53   6.982   5.769   2.039
    1   AR   Ar   54   6.920   6.321   3.622
    1   AR   Ar   55   0.292   5.546   3.171
    1   AR   Ar   56   0.739   5.669   1.501
    1   AR   Ar   57   0.115   4.878   3.892
    1   AR   Ar   58   0.222   5.815   4.382
    1   AR   Ar   59   1.496   5.915   4.527
    1   AR   Ar   60   0.980   6.314   3.720
    1   AR   Ar   61   6.706   5.976   5.937
    1   AR   Ar   62   0.614   5.325   5.448
    1   AR   Ar   63   1.835   5.439   5.781
    1   AR   Ar   64   1.065   6.654   4.988
    1   AR   Ar   65   1.905   6.449  -0.035
    1   AR   Ar   66   1.858   1.152   0.910
    1   AR   Ar   67   2.876   6.055   0.227
    1   AR   Ar   68   3.176   1.087   0.499
    1   AR   Ar   69   2.138   0.037   0.781
    1   AR   Ar   70   1.277   0.702   2.496
    1   AR   Ar   71   1.972   6.879   2.215
    1   AR   Ar   72   2.675   0.810   1.459
    1   AR   Ar   73   1.694   6.971   3.259
    1   AR   Ar   74   1.482   1.346   4.663
    1   AR   Ar   75   2.652   0.817   4.466
    1   AR   Ar   76   2.272   1.076   3.371
    1   AR   Ar   77   2.132   0.297   5.255
    1   AR   Ar   78   1.686   0.284   6.511
    1   AR   Ar   79   2.850   0.331   6.803
    1   AR   Ar   80   2.706   1.123   5.638
    1   AR   Ar   81   2.333   1.439  -0.022
    1   AR   Ar   82   1.682   3.738   1.098
    1   AR   Ar   83   2.521   1.958   1.615
    1   AR   Ar   84   1.830   2.883  -0.593
    1   AR   Ar   85   1.439   1.950   1.575
    1   AR   Ar   86   2.188   2.721   2.602
    1   AR   Ar   87   2.178   1.252   2.339
    1   AR   Ar   88   2.803   3.014   1.597
    1   AR   Ar   89   1.048   1.678   2.698
    1   AR   Ar   90   2.549   3.220   4.684
    1   AR   Ar   91   2.623   1.807   4.528
    1   AR   Ar   92   1.919   1.980   3.512
    1   AR   Ar   93   1.862   1.773   5.508
    1   AR   Ar   94   2.492   2.560   6.881
    1   AR   Ar   95   2.431   1.367   7.072
    1   AR   Ar   96   2.422   2.589   5.843
    1   AR   Ar   97   2.174   3.970   0.007
    1   AR   Ar   98   2.641   4.276   1.602
    1   AR   Ar   99   2.942   3.203  -0.571
    1   AR   Ar  100   2.430   5.121  -0.328
    1   AR   Ar  101   1.117   3.024   1.658
    1   AR   Ar  102   1.974   4.445   3.358
    1   AR   Ar  103   1.844   3.997   2.375
    1   AR   Ar  104   3.069   4.257   0.511
    1   AR   Ar  105   1.860   3.187   3.627
    1   AR   Ar  106   1.872   3.882   4.347
    1   AR   Ar  107   2.585   4.392   5.085
    1   AR   Ar  108   2.808   4.019   3.841
    1   AR   Ar  109   0.895   4.083   4.884
    1   AR   Ar  110   1.756   3.642   5.446
    1   AR   Ar  111   3.311   4.926   6.613
    1   AR   Ar  112   2.349   4.128   6.522
    1   AR   Ar  113   2.085   4.867   0.853
    1   AR   Ar  114   1.588   6.058   1.010
    1   AR   Ar  115   3.065   5.545   1.082
    1   AR   Ar  116   2.561   0.507  -0.649
    1   AR   Ar  117   1.388   4.864   2.732
    1   AR   Ar  118   1.438   5.949   2.757
    1   AR   Ar  119   2.578   4.922   2.625
    1   AR   Ar  120   1.798   5.189   1.807
    1   AR   Ar  121   1.351   5.249   3.730
    1   AR   Ar  122   2.252   6.617   4.236
    1   AR   Ar  123   2.453   5.357   4.556
    1   AR   Ar  124   2.516   6.243   2.852
    1   AR   Ar  125   1.508   4.869   4.916
    1   AR   Ar  126   1.410   6.418   6.044
    1   AR   Ar  127   2.517   5.581   7.198
    1   AR   Ar  128   2.592   6.375   5.738
    1   AR   Ar  129   3.113   0.064   0.658
    1   AR   Ar  130   4.115   0.478  -0.074
    1   AR   Ar  131   4.362   6.847   0.786
    1   AR   Ar  132   4.179   1.373  -0.643
    1   AR   Ar  133   3.593   6.857   2.612
    1   AR   Ar  134   3.030   0.754   2.655
    1   AR   Ar  135   4.777   0.267   2.751
    1   AR   Ar  136   3.724   0.312   1.506
    1   AR   Ar  137   2.652   0.198   3.526
    1   AR   Ar  138   3.704   0.990   4.455
    1   AR   Ar  139   3.698   0.003   4.163
    1   AR   Ar  140   4.220   0.987   3.493
    1   AR   Ar  141   2.912   7.003   4.856
    1   AR   Ar  142   3.637   0.929   6.087
    1   AR   Ar  143   4.432   6.673   6.221
    1   AR   Ar  144   4.995   1.075   6.257
    1   AR   Ar  145   3.080   2.137   0.700
    1   AR   Ar  146   3.810   2.803   1.348
    1   AR   Ar  147   4.460   2.135   0.772
    1   AR   Ar  148   5.720   2.330  -0.474
    1   AR   Ar  149   3.672   1.630   1.484
    1   AR   Ar  150   2.806   1.961   2.648
    1   AR   Ar  151   3.825   1.768   2.930
    1   AR   Ar  152   3.678   2.581   2.376
    1   AR   Ar  153   3.234   1.553   3.677
    1   AR   Ar  154   3.970   2.569   4.158
    1   AR   Ar  155   4.262   1.912   4.895
    1   AR   Ar  156   4.733   3.605   4.209
    1   AR   Ar  157   3.351   2.536   5.178
    1   AR   Ar  158   3.375   1.897   6.243
    1   AR   Ar  159   4.138   1.517   6.946
    1   AR   Ar  160   4.313   2.979   5.455
    1   AR   Ar  161   4.286   3.120  -0.285
    1   AR   Ar  162   4.040   4.674   0.456
    1   AR   Ar  163   4.580   3.448   0.777
    1   AR   Ar  164   5.479   4.704   0.676
    1   AR   Ar  165   3.639   3.616   2.594
    1   AR   Ar  166   3.490   4.642   3.114
    1   AR   Ar  167   4.320   3.027   3.189
    1   AR   Ar  168   3.855   4.174   1.460
    1   AR   Ar  169   2.987   3.064   3.392
    1   AR   Ar  170   3.373   4.966   4.117
    1   AR   Ar  171   3.720   3.671   4.783
    1   AR   Ar  172   4.539   4.636   4.257
    1   AR   Ar  173   3.201   3.372   5.993
    1   AR   Ar  174   4.237   5.432   6.237
    1   AR   Ar  175   3.934   4.204   6.240
    1   AR   Ar  176   3.858   4.852   5.166
    1   AR   Ar  177   5.075   5.823   0.536
    1   AR   Ar  178   3.837   6.244   1.635
    1   AR   Ar  179   4.598   5.352   1.414
    1   AR   Ar  180   4.086   6.255  -0.119
    1   AR   Ar  181   3.475   5.044   1.931
    1   AR   Ar  182   2.576   6.117   1.729
    1   AR   Ar  183   4.274   4.939   2.493
    1   AR   Ar  184   4.468   6.134   2.434
    1   AR   Ar  185   2.320   5.379   3.544
    1   AR   Ar  186   3.216   6.041   4.096
    1   AR   Ar  187   4.551   5.235   3.471
    1   AR   Ar  188   3.605   5.669   2.990
    1   AR   Ar  189   2.890   5.422   5.704
    1   AR   Ar  190   3.840   7.042   7.020
    1   AR   Ar  191   4.821   5.908   5.262
    1   AR   Ar  192   3.892   6.835   5.288
    1   AR   Ar  193   5.260   0.057   0.241
    1   AR   Ar  194   4.747   1.070   0.755
    1   AR   Ar  195   5.939   1.230   0.787
    1   AR   Ar  196   5.494   1.312  -0.204
    1   AR   Ar  197   5.101   0.315   1.421
    1   AR   Ar  198   5.283   1.341   1.879
    1   AR   Ar  199   6.200   0.765   2.057
    1   AR   Ar  200   6.685   1.612   1.499
    1   AR   Ar  201   4.616   6.582   3.477
    1   AR   Ar  202   4.709   1.070   4.513
    1   AR   Ar  203   6.773   6.607   4.913
    1   AR   Ar  204   6.393   0.272   3.704
    1   AR   Ar  205   5.016   0.040   4.488
    1   AR   Ar  206   5.377   6.921   5.698
    1   AR   Ar  207   6.510   6.965   5.980
    1   AR   Ar  208   6.151   0.601   4.699
    1   AR   Ar  209   6.975   2.349  -0.432
    1   AR   Ar  210   5.430   2.476   1.350
    1   AR   Ar  211   6.160   2.147   0.485
    1   AR   Ar  212   6.676   3.344   0.001
    1   AR   Ar  213   4.720   2.311   2.317
    1   AR   Ar  214   4.576   3.542   2.043
    1   AR   Ar  215   6.187   1.958   2.365
    1   AR   Ar  216   6.412   2.622   1.569
    1   AR   Ar  217   4.801   2.018   3.652
    1   AR   Ar  218   5.395   2.113   4.588
    1   AR   Ar  219   5.910   1.433   3.499
    1   AR   Ar  220   6.075   2.784   3.037
    1   AR   Ar  221   5.356   1.533   5.351
    1   AR   Ar  222   4.621   2.178   6.063
    1   AR   Ar  223   6.856   1.340   6.893
    1   AR   Ar  224   6.447   2.731   5.552
    1   AR   Ar  225   5.001   3.971  -0.195
    1   AR   Ar  226   4.966   4.509   1.966
    1   AR   Ar  227   6.914   3.688   1.721
    1   AR   Ar  228   6.351   5.349   0.111
    1   AR   Ar  229   6.025   3.218   0.868
    1   AR   Ar  230   4.629   4.063   3.143
    1   AR   Ar  231   6.716   3.116   3.755
    1   AR   Ar  232   5.571   3.748   1.638
    1   AR   Ar  233   5.616   3.165   4.203
    1   AR   Ar  234   5.760   4.125   4.460
    1   AR   Ar  235   6.897   3.835   4.617
    1   AR   Ar  236   6.435   4.260   3.461
    1   AR   Ar  237   5.496   3.129   5.220
    1   AR   Ar  238   4.975   4.692   6.220
    1   AR   Ar  239   5.487   3.679   7.631
    1   AR   Ar  240   5.862   4.035   5.704
    1   AR   Ar  241   6.773   0.234  -0.002
    1   AR   Ar  242   4.951   6.363   1.493
    1   AR   Ar  243   6.541   4.692   1.962
    1   AR   Ar  244   6.205   0.060   0.902
    1   AR   Ar  245   5.318   5.597   2.558
    1   AR   Ar  246   5.891   6.463   3.111
    1   AR   Ar  247   5.636   3.743   2.816
    1   AR   Ar  248   6.038   6.443   1.936
    1   AR   Ar  249   6.232   5.263   2.876
    1   AR   Ar  250   5.036   5.820   4.324
    1   AR   Ar  251   6.317   5.185   3.883
    1   AR   Ar  252   6.083   6.217   4.191
    1   AR   Ar  253   5.284   4.778   5.070
    1   AR   Ar  254   5.336   5.632   6.315
    1   AR   Ar  255   6.144   5.088   5.527
    1   AR   Ar  256   5.805   5.886   5.178
    7.12000  7.12000 12.00000
Argon-slab step 565
  256
    1   AR   Ar    1   0.877   0.775  -0.717
    1   AR   Ar    2   7.007   0.785   0.888
    1   AR   Ar    3   0.714   6.373   0.545
    1   AR   Ar    4   1.419   0.175   0.104
    1   AR   Ar    5   0.205   7.001   1.649
    1   AR   Ar    6   0.146   0.285   2.997
    1   AR   Ar    7   0.836   6.615   2.385
    1   AR   Ar    8   1.330   0.142   1.352
    1   AR   Ar    9   0.412   7.046   4.169
    1   AR   Ar   10   7.089   0.963   4.213
    1   AR   Ar   11   1.377   0.255   4.289
    1   AR   Ar   12   0.997   0.967   3.584
    1   AR   Ar   13   0.120   0.425   5.246
    1   AR   Ar   14   0.357   1.188   6.108
    1   AR   Ar   15   1.909   0.299   7.628
    1   AR   Ar   16   1.208   0.883   5.653
    1   AR   Ar   17   6.805   1.471  -0.157
    1   AR   Ar   18   0.229   2.256   0.762
    1   AR   Ar   19   0.803   1.470   0.985
    1   AR   Ar   20   0.942   2.354  -0.859
    1   AR   Ar   21   0.544   0.896   1.754
    1   AR   Ar   22   7.060   2.429   2.680
    1   AR   Ar   23   7.059   1.385   2.401
    1   AR   Ar   24   0.460   2.202   1.788
    1   AR   Ar   25   0.063   1.889   3.621
    1   AR   Ar   26   6.375   2.445   4.386
    1   AR   Ar   27   0.348   1.998   5.128
    1   AR   Ar   28   0.919   2.684   4.142
    1   AR   Ar   29   6.434   1.686   5.164
    1   AR   Ar   30   0.064   2.125   6.221
    1   AR   Ar   31   0.905   0.828   7.024
    1   AR   Ar   32   1.382   2.719   5.901
    1   AR   Ar   33   0.833   3.328  -0.441
    1   AR   Ar   34   0.126   4.917   1.219
    1   AR   Ar   35   0.397   3.293   0.946
    1   AR   Ar   36   1.860   5.674  -0.884
    1   AR   Ar   37   0.184   3.472   2.852
    1   AR   Ar   38   0.296   4.455   2.937
    1   AR   Ar   39   1.180   3.654   3.024
    1   AR   Ar   40   0.753   4.151   2.064
    1   AR   Ar   41   0.931   2.668   2.881
    1   AR   Ar   42   6.952   4.897   4.898
    1   AR   Ar   43   0.247   3.057   5.367
    1   AR   Ar   44   0.536   3.905   3.794
    1   AR   Ar   45   0.256   3.999   5.765
    1   AR   Ar   46   7.046   4.945   6.219
    1   AR   Ar   47   0.714   3.921   6.937
    1   AR   Ar   48   1.171   4.451   6.152
    1   AR   Ar   49   0.198   4.866  -0.215
    1   AR   Ar   50   6.254   5.723   1.272
    1   AR   Ar   51   0.998   4.452   0.741
    1   AR   Ar   52   0.937   5.499   0.147
    1   AR   Ar   53   6.963   5.755   2.023
    1   AR   Ar   54   6.917   6.336   3.661
    1   AR   Ar   55   0.297   5.559   3.162
    1   AR   Ar   56   0.739   5.678   1.495
    1   AR   Ar   57   0.116   4.864   3.895
    1   AR   Ar   58   0.222   5.820   4.356
    1   AR   Ar   59   1.502   5.914   4.544
    1   AR   Ar   60   0.975   6.316   3.714
    1   AR   Ar   61   6.713   5.966   5.936
    1   AR   Ar   62   0.606   5.302   5.469
    1   AR   Ar   63   1.822   5.414   5.780
    1   AR   Ar   64   1.070   6.664   5.017
    1   AR   Ar   65   1.911   6.440  -0.021
    1   AR   Ar   66   1.846   1.159   0.924
    1   AR   Ar   67   2.882   6.025   0.208
    1   AR   Ar   68   3.194   1.113   0.552
    1   AR   Ar   69   2.122   0.042   0.775
    1   AR   Ar   70   1.278   0.656   2.565
    1   AR   Ar   71   1.946   6.859   2.227
    1   AR   Ar   72   2.699   0.787   1.469
    1   AR   Ar   73   1.715   6.934   3.238
    1   AR   Ar   74   1.484   1.352   4.673
    1   AR   Ar   75   2.628   0.825   4.438
    1   AR   Ar   76   2.281   1.078   3.410
    1   AR   Ar   77   2.175   0.280   5.269
    1   AR   Ar   78   1.701   0.285   6.516
    1   AR   Ar   79   2.809   0.345   6.806
    1   AR   Ar   80   2.727   1.116   5.710
    1   AR   Ar   81   2.348   1.457  -0.007
    1   AR   Ar   82   1.704   3.741   1.116
    1   AR   Ar   83   2.532   1.959   1.606
    1   AR   Ar   84   1.805   2.900  -0.615
    1   AR   Ar   85   1.469   1.948   1.581
    1   AR   Ar   86   2.174   2.708   2.593
    1   AR   Ar   87   2.168   1.268   2.331
    1   AR   Ar   88   2.800   3.006   1.581
    1   AR   Ar   89   1.005   1.673   2.702
    1   AR   Ar   90   2.556   3.257   4.701
    1   AR   Ar   91   2.650   1.800   4.511
    1   AR   Ar   92   1.897   1.994   3.490
    1   AR   Ar   93   1.826   1.779   5.512
    1   AR   Ar   94   2.485   2.542   6.878
    1   AR   Ar   95   2.428   1.355   7.096
    1   AR   Ar   96   2.422   2.588   5.838
    1   AR   Ar   97   2.183   3.978  -0.023
    1   AR   Ar   98   2.663   4.271   1.601
    1   AR   Ar   99   2.955   3.200  -0.601
    1   AR   Ar  100   2.434   5.133  -0.334
    1   AR   Ar  101   1.121   3.033   1.646
    1   AR   Ar  102   1.972   4.414   3.384
    1   AR   Ar  103   1.815   3.998   2.382
    1   AR   Ar  104   3.062   4.266   0.487
    1   AR   Ar  105   1.857   3.161   3.622
    1   AR   Ar  106   1.884   3.894   4.373
    1   AR   Ar  107   2.586   4.373   5.097
    1   AR   Ar  108   2.824   3.999   3.878
    1   AR   Ar  109   0.916   4.101   4.890
    1   AR   Ar  110   1.760   3.676   5.449
    1   AR   Ar  111   3.331   4.940   6.665
    1   AR   Ar  112   2.330   4.096   6.509
    1   AR   Ar  113   2.070   4.870   0.817
    1   AR   Ar  114   1.607   6.062   1.000
    1   AR   Ar  115   3.073   5.533   1.094
    1   AR   Ar  116   2.564   0.459  -0.639
    1   AR   Ar  117   1.411   4.869   2.754
    1   AR   Ar  118   1.418   5.911   2.743
    1   AR   Ar  119   2.583   4.907   2.632
    1   AR   Ar  120   1.755   5.180   1.818
    1   AR   Ar  121   1.346   5.260   3.752
    1   AR   Ar  122   2.270   6.617   4.230
    1   AR   Ar  123   2.444   5.352   4.562
    1   AR   Ar  124   2.532   6.222   2.829
    1   AR   Ar  125   1.502   4.909   4.930
    1   AR   Ar  126   1.395   6.428   6.019
    1   AR   Ar  127   2.495   5.624   7.223
    1   AR   Ar  128   2.599   6.350   5.734
    1   AR   Ar  129   3.121   0.034   0.679
    1   AR   Ar  130   4.147   0.492  -0.129
    1   AR   Ar  131   4.363   6.882   0.773
    1   AR   Ar  132   4.203   1.381  -0.664
    1   AR   Ar  133   3.589   6.851   2.608
    1   AR   Ar  134   3.031   0.759   2.624
    1   AR   Ar  135   4.809   0.255   2.772
    1   AR   Ar  136   3.730   0.292   1.512
    1   AR   Ar  137   2.633   0.155   3.555
    1   AR   Ar  138   3.685   1.013   4.471
    1   AR   Ar  139   3.691   0.006   4.144
    1   AR   Ar  140   4.218   0.974   3.492
    1   AR   Ar  141   2.921   6.996   4.857
    1   AR   Ar  142   3.645   0.950   6.102
    1   AR   Ar  143   4.442   6.642   6.225
    1   AR   Ar  144   4.990   1.122   6.268
    1   AR   Ar  145   3.045   2.125   0.724
    1   AR   Ar  146   3.824   2.812   1.360
    1   AR   Ar  147   4.467   2.087   0.764
    1   AR   Ar  148   5.737   2.361  -0.461
    1   AR   Ar  149   3.645   1.665   1.481
    1   AR   Ar  150   2.818   1.967   2.683
    1   AR   Ar  151   3.821   1.798   2.943
    1   AR   Ar  152   3.661   2.603   2.348
    1   AR   Ar  153   3.217   1.549   3.658
    1   AR   Ar  154   3.979   2.557   4.173
    1   AR   Ar  155   4.269   1.898   4.913
    1   AR   Ar  156   4.745   3.623   4.172
    1   AR   Ar  157   3.379   2.490   5.205
    1   AR   Ar  158   3.382   1.904   6.243
    1   AR   Ar  159   4.163   1.505   6.944
    1   AR   Ar  160   4.309   2.977   5.435
    1   AR   Ar  161   4.307   3.113  -0.285
    1   AR   Ar  162   4.058   4.672   0.444
    1   AR   Ar  163   4.605   3.442   0.761
    1   AR   Ar  164   5.494   4.683   0.684
    1   AR   Ar  165   3.623   3.611   2.581
    1   AR   Ar  166   3.492   4.604   3.101
    1   AR   Ar  167   4.338   3.016   3.154
    1   AR   Ar  168   3.851   4.146   1.452
    1   AR   Ar  169   2.972   3.048   3.377
    1   AR   Ar  170   3.360   4.970   4.127
    1   AR   Ar  171   3.672   3.699   4.780
    1   AR   Ar  172   4.513   4.635   4.264
    1   AR   Ar  173   3.208   3.356   6.016
    1   AR   Ar  174   4.207   5.478   6.229
    1   AR   Ar  175   3.918   4.209   6.264
    1   AR   Ar  176   3.829   4.840   5.151
    1   AR   Ar  177   5.100   5.839   0.585
    1   AR   Ar  178   3.837   6.259   1.624
    1   AR   Ar  179   4.611   5.361   1.410
    1   AR   Ar  180   4.094   6.231  -0.131
    1   AR   Ar  181   3.468   5.111   1.936
    1   AR   Ar  182   2.543   6.118   1.727
    1   AR   Ar  183   4.268   4.929   2.457
    1   AR   Ar  184   4.440   6.136   2.453
    1   AR   Ar  185   2.300   5.366   3.525
    1   AR   Ar  186   3.202   6.012   4.068
    1   AR   Ar  187   4.556   5.213   3.473
    1   AR   Ar  188   3.599   5.646   2.957
    1   AR   Ar  189   2.871   5.414   5.724
    1   AR   Ar  190   3.875   7.080   7.028
    1   AR   Ar  191   4.814   5.915   5.262
    1   AR   Ar  192   3.856   6.809   5.308
    1   AR   Ar  193   5.284   0.060   0.211
    1   AR   Ar  194   4.743   1.065   0.694
    1   AR   Ar  195   5.942   1.252   0.801
    1   AR   Ar  196   5.527   1.312  -0.211
    1   AR   Ar  197   5.084   0.302   1.423
    1   AR   Ar  198   5.266   1.333   1.868
    1   AR   Ar  199   6.214   0.770   2.097
    1   AR   Ar  200   6.691   1.631   1.463
    1   AR   Ar  201   4.613   6.570   3.460
    1   AR   Ar  202   4.731   1.067   4.492
    1   AR   Ar  203   6.797   6.571   4.902
    1   AR   Ar  204   6.434   0.281   3.706
    1   AR   Ar  205   5.018   0.035   4.502
    1   AR   Ar  206   5.383   6.926   5.667
    1   AR   Ar  207   6.530   6.993   5.986
    1   AR   Ar  208   6.149   0.614   4.688
    1   AR   Ar  209   6.998   2.389  -0.432
    1   AR   Ar  210   5.416   2.485   1.351
    1   AR   Ar  211   6.163   2.153   0.492
    1   AR   Ar  212   6.669   3.368  -0.018
    1   AR   Ar  213   4.711   2.310   2.300
    1   AR   Ar  214   4.605   3.543   2.055
    1   AR   Ar  215   6.187   1.939   2.357
    1   AR   Ar  216   6.402   2.628   1.578
    1   AR   Ar  217   4.811   2.027   3.631
    1   AR   Ar  218   5.361   2.069   4.591
    1   AR   Ar  219   5.897   1.445   3.523
    1   AR   Ar  220   6.106   2.768   3.043
    1   AR   Ar  221   5.366   1.515   5.329
    1   AR   Ar  222   4.637   2.168   6.066
    1   AR   Ar  223   6.869   1.338   6.899
    1   AR   Ar  224   6.443   2.725   5.558
    1   AR   Ar  225   5.014   4.002  -0.211
    1   AR   Ar  226   4.999   4.488   1.975
    1   AR   Ar  227   6.893   3.714   1.737
    1   AR   Ar  228   6.332   5.373   0.150
    1   AR   Ar  229   6.035   3.250   0.850
    1   AR   Ar  230   4.601   4.073   3.171
    1   AR   Ar  231   6.740   3.122   3.782
    1   AR   Ar  232   5.557   3.766   1.624
    1   AR   Ar  233   5.625   3.129   4.218
    1   AR   Ar  234   5.742   4.147   4.471
    1   AR   Ar  235   6.872   3.847   4.593
    1   AR   Ar  236   6.400   4.209   3.459
    1   AR   Ar  237   5.509   3.138   5.231
    1   AR   Ar  238   4.963   4.693   6.248
    1   AR   Ar  239   5.495   3.656   7.623
    1   AR   Ar  240   5.881   3.991   5.710
    1   AR   Ar  241   6.779   0.233  -0.009
    1   AR   Ar  242   4.978   6.344   1.506
    1   AR   Ar  243   6.535   4.701   1.969
    1   AR   Ar  244   6.181   0.063   0.902
    1   AR   Ar  245   5.305   5.623   2.571
    1   AR   Ar  246   5.919   6.457   3.127
    1   AR   Ar  247   5.641   3.715   2.789
    1   AR   Ar  248   6.032   6.430   1.957
    1   AR   Ar  249   6.232   5.276   2.865
    1   AR   Ar  250   5.049   5.831   4.300
    1   AR   Ar  251   6.294   5.173   3.885
    1   AR   Ar  252   6.055   6.197   4.198
    1   AR   Ar  253   5.262   4.813   5.091
    1   AR   Ar  254   5.371   5.611   6.299
    1   AR   Ar  255   6.185   5.090   5.539
    1   AR   Ar  256   5.812   5.903   5.155
    7.12000  7.12000 12.00000
Argon-slab step 570
  256
    1   AR   Ar    1   0.897   0.792  -0.730
    1   AR   Ar    2   7.007   0.814   0.905
    1   AR   Ar    3   0.714   6.417   0.553
    1   AR   Ar    4   1.416   0.207   0.070
    1   AR   Ar    5   0.200   6.969   1.660
    1   AR   Ar    6   0.152   0.306   2.983
    1   AR   Ar    7   0.839   6.608   2.360
    1   AR   Ar    8   1.303   0.144   1.360
    1   AR   Ar    9   0.424   7.068   4.144
    1   AR   Ar   10   7.099   0.945   4.197
    1   AR   Ar   11   1.408   0.217   4.273
    1   AR   Ar   12   1.004   0.971   3.603
    1   AR   Ar   13   0.118   0.421   5.251
    1   AR   Ar   14   0.333   1.183   6.130
    1   AR   Ar   15   1.884   0.271   7.612
    1   AR   Ar   16   1.264   0.882   5.662
    1   AR   Ar   17   6.795   1.480  -0.144
    1   AR   Ar   18   0.199   2.260   0.769
    1   AR   Ar   19   0.845   1.442   0.947
    1   AR   Ar   20   0.933   2.350  -0.845
    1   AR   Ar   21   0.567   0.914   1.778
    1   AR   Ar   22   7.079   2.424   2.679
    1   AR   Ar   23   7.056   1.358   2.420
    1   AR   Ar   24   0.483   2.215   1.786
    1   AR   Ar   25   0.069   1.892   3.631
    1   AR   Ar   26   6.391   2.416   4.386
    1   AR   Ar   27   0.345   1.994   5.148
    1   AR   Ar   28   0.928   2.691   4.129
    1   AR   Ar   29   6.445   1.675   5.130
    1   AR   Ar   30   0.052   2.148   6.217
    1   AR   Ar   31   0.880   0.859   7.052
    1   AR   Ar   32   1.355   2.699   5.897
    1   AR   Ar   33   0.836   3.350  -0.454
    1   AR   Ar   34   0.143   4.910   1.216
    1   AR   Ar   35   0.391   3.284   0.955
    1   AR   Ar   36   1.864   5.676  -0.888
    1   AR   Ar   37   0.184   3.477   2.836
    1   AR   Ar   38   0.301   4.426   2.946
    1   AR   Ar   39   1.190   3.637   3.051
    1   AR   Ar   40   0.762   4.164   2.059
    1   AR   Ar   41   0.954   2.667   2.870
    1   AR   Ar   42   6.986   4.910   4.904
    1   AR   Ar   43   0.227   3.061   5.337
    1   AR   Ar   44   0.542   3.912   3.762
    1   AR   Ar   45   0.234   4.001   5.734
    1   AR   Ar   46   7.065   4.960   6.194
    1   AR   Ar   47   0.690   3.915   6.923
    1   AR   Ar   48   1.199   4.443   6.125
    1   AR   Ar   49   0.212   4.864  -0.253
    1   AR   Ar   50   6.244   5.722   1.287
    1   AR   Ar   51   0.989   4.451   0.742
    1   AR   Ar   52   0.934   5.491   0.170
    1   AR   Ar   53   6.944   5.742   2.014
    1   AR   Ar   54   6.912   6.330   3.709
    1   AR   Ar   55   0.306   5.574   3.147
    1   AR   Ar   56   0.745   5.691   1.491
    1   AR   Ar   57   0.127   4.843   3.901
    1   AR   Ar   58   0.218   5.814   4.337
    1   AR   Ar   59   1.514   5.906   4.561
    1   AR   Ar   60   0.970   6.316   3.704
    1   AR   Ar   61   6.720   5.951   5.933
    1   AR   Ar   62   0.604   5.282   5.490
    1   AR   Ar   63   1.807   5.391   5.781
    1   AR   Ar   64   1.069   6.683   5.051
    1   AR   Ar   65   1.920   6.422  -0.009
    1   AR   Ar   66   1.834   1.164   0.938
    1   AR   Ar   67   2.889   5.999   0.187
    1   AR   Ar   68   3.216   1.135   0.605
    1   AR   Ar   69   2.116   0.044   0.773
    1   AR   Ar   70   1.280   0.604   2.632
    1   AR   Ar   71   1.918   6.842   2.234
    1   AR   Ar   72   2.724   0.763   1.481
    1   AR   Ar   73   1.730   6.896   3.218
    1   AR   Ar   74   1.494   1.363   4.685
    1   AR   Ar   75   2.602   0.822   4.408
    1   AR   Ar   76   2.287   1.077   3.449
    1   AR   Ar   77   2.194   0.272   5.293
    1   AR   Ar   78   1.719   0.285   6.519
    1   AR   Ar   79   2.767   0.358   6.806
    1   AR   Ar   80   2.742   1.112   5.780
    1   AR   Ar   81   2.363   1.476   0.008
    1   AR   Ar   82   1.730   3.746   1.135
    1   AR   Ar   83   2.565   1.969   1.619
    1   AR   Ar   84   1.785   2.918  -0.635
    1   AR   Ar   85   1.505   1.948   1.594
    1   AR   Ar   86   2.151   2.703   2.582
    1   AR   Ar   87   2.173   1.265   2.338
    1   AR   Ar   88   2.795   3.001   1.567
    1   AR   Ar   89   0.973   1.668   2.697
    1   AR   Ar   90   2.573   3.285   4.722
    1   AR   Ar   91   2.675   1.807   4.499
    1   AR   Ar   92   1.871   2.017   3.469
    1   AR   Ar   93   1.793   1.785   5.523
    1   AR   Ar   94   2.474   2.518   6.877
    1   AR   Ar   95   2.425   1.342   7.119
    1   AR   Ar   96   2.428   2.589   5.828
    1   AR   Ar   97   2.191   3.997  -0.052
    1   AR   Ar   98   2.686   4.268   1.600
    1   AR   Ar   99   2.967   3.199  -0.630
    1   AR   Ar  100   2.449   5.133  -0.327
    1   AR   Ar  101   1.128   3.042   1.640
    1   AR   Ar  102   1.977   4.368   3.422
    1   AR   Ar  103   1.838   4.004   2.367
    1   AR   Ar  104   3.045   4.249   0.460
    1   AR   Ar  105   1.859   3.129   3.618
    1   AR   Ar  106   1.885   3.918   4.398
    1   AR   Ar  107   2.588   4.354   5.109
    1   AR   Ar  108   2.843   3.980   3.916
    1   AR   Ar  109   0.928   4.112   4.895
    1   AR   Ar  110   1.765   3.710   5.453
    1   AR   Ar  111   3.333   4.948   6.681
    1   AR   Ar  112   2.310   4.064   6.495
    1   AR   Ar  113   2.055   4.873   0.779
    1   AR   Ar  114   1.631   6.066   0.991
    1   AR   Ar  115   3.083   5.515   1.099
    1   AR   Ar  116   2.566   0.412  -0.625
    1   AR   Ar  117   1.418   4.880   2.766
    1   AR   Ar  118   1.407   5.867   2.734
    1   AR   Ar  119   2.588   4.892   2.634
    1   AR   Ar  120   1.757   5.181   1.830
    1   AR   Ar  121   1.327   5.269   3.776
    1   AR   Ar  122   2.275   6.607   4.222
    1   AR   Ar  123   2.434   5.347   4.574
    1   AR   Ar  124   2.550   6.199   2.809
    1   AR   Ar  125   1.500   4.951   4.940
    1   AR   Ar  126   1.383   6.437   5.995
    1   AR   Ar  127   2.473   5.666   7.247
    1   AR   Ar  128   2.598   6.351   5.733
    1   AR   Ar  129   3.137   0.001   0.697
    1   AR   Ar  130   4.180   0.501  -0.178
    1   AR   Ar  131   4.362   6.917   0.758
    1   AR   Ar  132   4.223   1.398  -0.686
    1   AR   Ar  133   3.590   6.863   2.609
    1   AR   Ar  134   3.036   0.762   2.594
    1   AR   Ar  135   4.842   0.244   2.791
    1   AR   Ar  136   3.738   0.272   1.521
    1   AR   Ar  137   2.628   0.109   3.581
    1   AR   Ar  138   3.712   1.042   4.485
    1   AR   Ar  139   3.708   0.007   4.130
    1   AR   Ar  140   4.215   0.959   3.492
    1   AR   Ar  141   2.950   6.999   4.881
    1   AR   Ar  142   3.664   0.961   6.119
    1   AR   Ar  143   4.453   6.608   6.228
    1   AR   Ar  144   4.984   1.167   6.280
    1   AR   Ar  145   3.011   2.119   0.745
    1   AR   Ar  146   3.841   2.822   1.367
    1   AR   Ar  147   4.472   2.042   0.757
    1   AR   Ar  148   5.755   2.394  -0.449
    1   AR   Ar  149   3.620   1.699   1.479
    1   AR   Ar  150   2.838   1.968   2.722
    1   AR   Ar  151   3.832   1.829   2.947
    1   AR   Ar  152   3.639   2.627   2.319
    1   AR   Ar  153   3.192   1.542   3.648
    1   AR   Ar  154   3.987   2.548   4.184
    1   AR   Ar  155   4.276   1.884   4.937
    1   AR   Ar  156   4.758   3.654   4.153
    1   AR   Ar  157   3.403   2.445   5.231
    1   AR   Ar  158   3.383   1.922   6.242
    1   AR   Ar  159   4.187   1.493   6.940
    1   AR   Ar  160   4.307   2.977   5.412
    1   AR   Ar  161   4.328   3.106  -0.284
    1   AR   Ar  162   4.080   4.671   0.433
    1   AR   Ar  163   4.631   3.436   0.746
    1   AR   Ar  164   5.508   4.663   0.694
    1   AR   Ar  165   3.606   3.612   2.568
    1   AR   Ar  166   3.494   4.562   3.091
    1   AR   Ar  167   4.345   3.032   3.159
    1   AR   Ar  168   3.848   4.118   1.444
    1   AR   Ar  169   2.957   3.028   3.361
    1   AR   Ar  170   3.348   4.971   4.136
    1   AR   Ar  171   3.622   3.727   4.776
    1   AR   Ar  172   4.486   4.631   4.281
    1   AR   Ar  173   3.216   3.340   6.037
    1   AR   Ar  174   4.176   5.524   6.220
    1   AR   Ar  175   3.906   4.211   6.285
    1   AR   Ar  176   3.800   4.829   5.137
    1   AR   Ar  177   5.125   5.855   0.631
    1   AR   Ar  178   3.834   6.275   1.610
    1   AR   Ar  179   4.620   5.366   1.408
    1   AR   Ar  180   4.101   6.207  -0.141
    1   AR   Ar  181   3.451   5.178   1.939
    1   AR   Ar  182   2.506   6.121   1.728
    1   AR   Ar  183   4.268   4.923   2.432
    1   AR   Ar  184   4.430   6.131   2.465
    1   AR   Ar  185   2.303   5.377   3.517
    1   AR   Ar  186   3.187   5.987   4.039
    1   AR   Ar  187   4.561   5.201   3.463
    1   AR   Ar  188   3.591   5.626   2.925
    1   AR   Ar  189   2.859   5.390   5.742
    1   AR   Ar  190   3.873   7.078   7.016
    1   AR   Ar  191   4.804   5.908   5.255
    1   AR   Ar  192   3.822   6.783   5.329
    1   AR   Ar  193   5.307   0.064   0.183
    1   AR   Ar  194   4.741   1.057   0.633
    1   AR   Ar  195   5.940   1.260   0.819
    1   AR   Ar  196   5.558   1.311  -0.217
    1   AR   Ar  197   5.068   0.290   1.426
    1   AR   Ar  198   5.250   1.328   1.854
    1   AR   Ar  199   6.228   0.775   2.135
    1   AR   Ar  200   6.698   1.648   1.422
    1   AR   Ar  201   4.609   6.556   3.445
    1   AR   Ar  202   4.760   1.064   4.470
    1   AR   Ar  203   6.820   6.537   4.891
    1   AR   Ar  204   6.474   0.287   3.706
    1   AR   Ar  205   5.021   0.026   4.516
    1   AR   Ar  206   5.391   6.930   5.635
    1   AR   Ar  207   6.550   6.989   6.002
    1   AR   Ar  208   6.152   0.621   4.674
    1   AR   Ar  209   7.008   2.412  -0.435
    1   AR   Ar  210   5.396   2.493   1.350
    1   AR   Ar  211   6.170   2.173   0.499
    1   AR   Ar  212   6.664   3.391  -0.038
    1   AR   Ar  213   4.703   2.310   2.284
    1   AR   Ar  214   4.629   3.538   2.069
    1   AR   Ar  215   6.180   1.923   2.351
    1   AR   Ar  216   6.402   2.636   1.590
    1   AR   Ar  217   4.820   2.036   3.609
    1   AR   Ar  218   5.327   2.046   4.567
    1   AR   Ar  219   5.884   1.459   3.548
    1   AR   Ar  220   6.132   2.751   3.048
    1   AR   Ar  221   5.376   1.478   5.333
    1   AR   Ar  222   4.654   2.173   6.075
    1   AR   Ar  223   6.877   1.336   6.912
    1   AR   Ar  224   6.443   2.722   5.543
    1   AR   Ar  225   5.026   4.033  -0.224
    1   AR   Ar  226   5.035   4.476   1.983
    1   AR   Ar  227   6.871   3.739   1.755
    1   AR   Ar  228   6.347   5.367   0.166
    1   AR   Ar  229   6.044   3.284   0.826
    1   AR   Ar  230   4.572   4.086   3.197
    1   AR   Ar  231   6.773   3.138   3.802
    1   AR   Ar  232   5.549   3.781   1.628
    1   AR   Ar  233   5.638   3.089   4.224
    1   AR   Ar  234   5.728   4.170   4.479
    1   AR   Ar  235   6.847   3.859   4.569
    1   AR   Ar  236   6.366   4.155   3.456
    1   AR   Ar  237   5.518   3.145   5.244
    1   AR   Ar  238   4.950   4.686   6.273
    1   AR   Ar  239   5.503   3.634   7.615
    1   AR   Ar  240   5.903   3.952   5.715
    1   AR   Ar  241   6.785   0.233  -0.018
    1   AR   Ar  242   5.005   6.377   1.493
    1   AR   Ar  243   6.526   4.711   1.979
    1   AR   Ar  244   6.171   0.077   0.903
    1   AR   Ar  245   5.294   5.646   2.582
    1   AR   Ar  246   5.947   6.451   3.141
    1   AR   Ar  247   5.644   3.688   2.761
    1   AR   Ar  248   6.022   6.422   1.984
    1   AR   Ar  249   6.238   5.290   2.851
    1   AR   Ar  250   5.062   5.840   4.264
    1   AR   Ar  251   6.261   5.166   3.895
    1   AR   Ar  252   6.022   6.151   4.201
    1   AR   Ar  253   5.234   4.853   5.115
    1   AR   Ar  254   5.409   5.599   6.280
    1   AR   Ar  255   6.227   5.081   5.562
    1   AR   Ar  256   5.822   5.933   5.131
    7.12000  7.12000 12.00000
Argon-slab step 575
  256
    1   AR   Ar    1   0.916   0.810  -0.743
    1   AR   Ar    2   7.016   0.842   0.920
    1   AR   Ar    3   0.712   6.468   0.563
    1   AR   Ar    4   1.405   0.245   0.033
    1   AR   Ar    5   0.190   6.939   1.665
    1   AR   Ar    6   0.160   0.327   2.967
    1   AR   Ar    7   0.841   6.605   2.338
    1   AR   Ar    8   1.269   0.146   1.373
    1   AR   Ar    9   0.430   7.094   4.122
    1   AR   Ar   10   7.114   0.932   4.185
    1   AR   Ar   11   1.438   0.230   4.272
    1   AR   Ar   12   1.010   0.976   3.623
    1   AR   Ar   13   0.116   0.418   5.255
    1   AR   Ar   14   0.318   1.169   6.139
    1   AR   Ar   15   1.860   0.244   7.595
    1   AR   Ar   16   1.273   0.881   5.653
    1   AR   Ar   17   6.783   1.480  -0.125
    1   AR   Ar   18   0.163   2.265   0.771
    1   AR   Ar   19   0.853   1.481   0.937
    1   AR   Ar   20   0.922   2.343  -0.831
    1   AR   Ar   21   0.595   0.926   1.804
    1   AR   Ar   22   7.097   2.418   2.678
    1   AR   Ar   23   7.056   1.361   2.417
    1   AR   Ar   24   0.503   2.226   1.785
    1   AR   Ar   25   0.076   1.895   3.641
    1   AR   Ar   26   6.409   2.379   4.389
    1   AR   Ar   27   0.344   1.990   5.167
    1   AR   Ar   28   0.935   2.698   4.114
    1   AR   Ar   29   6.461   1.652   5.092
    1   AR   Ar   30   0.046   2.147   6.219
    1   AR   Ar   31   0.855   0.889   7.078
    1   AR   Ar   32   1.325   2.681   5.892
    1   AR   Ar   33   0.835   3.374  -0.464
    1   AR   Ar   34   0.162   4.915   1.215
    1   AR   Ar   35   0.383   3.278   0.961
    1   AR   Ar   36   1.859   5.687  -0.899
    1   AR   Ar   37   0.176   3.465   2.815
    1   AR   Ar   38   0.304   4.421   2.950
    1   AR   Ar   39   1.201   3.626   3.074
    1   AR   Ar   40   0.774   4.175   2.049
    1   AR   Ar   41   0.964   2.672   2.865
    1   AR   Ar   42   7.018   4.919   4.907
    1   AR   Ar   43   0.218   3.066   5.302
    1   AR   Ar   44   0.548   3.912   3.747
    1   AR   Ar   45   0.211   4.009   5.705
    1   AR   Ar   46   7.083   4.971   6.176
    1   AR   Ar   47   0.664   3.908   6.909
    1   AR   Ar   48   1.227   4.437   6.095
    1   AR   Ar   49   0.223   4.859  -0.291
    1   AR   Ar   50   6.230   5.715   1.292
    1   AR   Ar   51   0.981   4.451   0.742
    1   AR   Ar   52   0.937   5.479   0.194
    1   AR   Ar   53   6.929   5.729   2.013
    1   AR   Ar   54   6.892   6.347   3.728
    1   AR   Ar   55   0.318   5.589   3.129
    1   AR   Ar   56   0.758   5.709   1.487
    1   AR   Ar   57   0.140   4.823   3.907
    1   AR   Ar   58   0.211   5.786   4.330
    1   AR   Ar   59   1.527   5.902   4.578
    1   AR   Ar   60   0.967   6.312   3.691
    1   AR   Ar   61   6.727   5.937   5.927
    1   AR   Ar   62   0.611   5.266   5.509
    1   AR   Ar   63   1.791   5.372   5.789
    1   AR   Ar   64   1.061   6.708   5.083
    1   AR   Ar   65   1.929   6.399   0.002
    1   AR   Ar   66   1.829   1.165   0.953
    1   AR   Ar   67   2.898   5.975   0.165
    1   AR   Ar   68   3.241   1.150   0.657
    1   AR   Ar   69   2.118   0.045   0.774
    1   AR   Ar   70   1.281   0.551   2.697
    1   AR   Ar   71   1.888   6.829   2.232
    1   AR   Ar   72   2.748   0.738   1.495
    1   AR   Ar   73   1.739   6.858   3.206
    1   AR   Ar   74   1.488   1.371   4.685
    1   AR   Ar   75   2.576   0.807   4.382
    1   AR   Ar   76   2.288   1.074   3.482
    1   AR   Ar   77   2.192   0.273   5.327
    1   AR   Ar   78   1.735   0.286   6.519
    1   AR   Ar   79   2.727   0.372   6.806
    1   AR   Ar   80   2.741   1.089   5.801
    1   AR   Ar   81   2.378   1.494   0.022
    1   AR   Ar   82   1.759   3.753   1.153
    1   AR   Ar   83   2.594   1.976   1.641
    1   AR   Ar   84   1.772   2.938  -0.655
    1   AR   Ar   85   1.540   1.951   1.612
    1   AR   Ar   86   2.122   2.704   2.570
    1   AR   Ar   87   2.159   1.264   2.341
    1   AR   Ar   88   2.789   2.999   1.554
    1   AR   Ar   89   0.983   1.676   2.660
    1   AR   Ar   90   2.597   3.304   4.748
    1   AR   Ar   91   2.698   1.826   4.492
    1   AR   Ar   92   1.842   2.045   3.447
    1   AR   Ar   93   1.766   1.796   5.542
    1   AR   Ar   94   2.464   2.492   6.879
    1   AR   Ar   95   2.422   1.331   7.140
    1   AR   Ar   96   2.437   2.591   5.814
    1   AR   Ar   97   2.194   4.014  -0.084
    1   AR   Ar   98   2.709   4.266   1.600
    1   AR   Ar   99   2.979   3.198  -0.658
    1   AR   Ar  100   2.471   5.123  -0.310
    1   AR   Ar  101   1.138   3.049   1.640
    1   AR   Ar  102   1.984   4.316   3.465
    1   AR   Ar  103   1.868   4.011   2.344
    1   AR   Ar  104   3.025   4.239   0.443
    1   AR   Ar  105   1.865   3.095   3.617
    1   AR   Ar  106   1.876   3.949   4.418
    1   AR   Ar  107   2.592   4.337   5.121
    1   AR   Ar  108   2.866   3.962   3.954
    1   AR   Ar  109   0.934   4.118   4.898
    1   AR   Ar  110   1.772   3.743   5.460
    1   AR   Ar  111   3.311   4.945   6.640
    1   AR   Ar  112   2.291   4.032   6.477
    1   AR   Ar  113   2.041   4.875   0.740
    1   AR   Ar  114   1.659   6.069   0.984
    1   AR   Ar  115   3.099   5.505   1.084
    1   AR   Ar  116   2.568   0.364  -0.610
    1   AR   Ar  117   1.416   4.884   2.777
    1   AR   Ar  118   1.402   5.830   2.728
    1   AR   Ar  119   2.591   4.878   2.630
    1   AR   Ar  120   1.782   5.179   1.832
    1   AR   Ar  121   1.299   5.272   3.799
    1   AR   Ar  122   2.268   6.583   4.222
    1   AR   Ar  123   2.426   5.342   4.589
    1   AR   Ar  124   2.570   6.174   2.792
    1   AR   Ar  125   1.498   4.987   4.944
    1   AR   Ar  126   1.373   6.446   5.975
    1   AR   Ar  127   2.452   5.708   7.269
    1   AR   Ar  128   2.588   6.410   5.746
    1   AR   Ar  129   3.158   7.086   0.713
    1   AR   Ar  130   4.213   0.505  -0.223
    1   AR   Ar  131   4.360   6.951   0.741
    1   AR   Ar  132   4.243   1.421  -0.709
    1   AR   Ar  133   3.601   6.903   2.616
    1   AR   Ar  134   3.044   0.763   2.567
    1   AR   Ar  135   4.874   0.234   2.807
    1   AR   Ar  136   3.747   0.255   1.534
    1   AR   Ar  137   2.631   0.074   3.587
    1   AR   Ar  138   3.733   1.072   4.500
    1   AR   Ar  139   3.759   0.009   4.125
    1   AR   Ar  140   4.213   0.944   3.492
    1   AR   Ar  141   2.994   6.996   4.895
    1   AR   Ar  142   3.694   0.961   6.138
    1   AR   Ar  143   4.466   6.574   6.228
    1   AR   Ar  144   4.977   1.209   6.292
    1   AR   Ar  145   2.977   2.123   0.754
    1   AR   Ar  146   3.863   2.834   1.363
    1   AR   Ar  147   4.477   2.004   0.751
    1   AR   Ar  148   5.772   2.427  -0.439
    1   AR   Ar  149   3.597   1.732   1.482
    1   AR   Ar  150   2.858   1.968   2.761
    1   AR   Ar  151   3.857   1.861   2.947
    1   AR   Ar  152   3.614   2.645   2.295
    1   AR   Ar  153   3.167   1.532   3.643
    1   AR   Ar  154   3.993   2.542   4.192
    1   AR   Ar  155   4.286   1.870   4.965
    1   AR   Ar  156   4.780   3.701   4.161
    1   AR   Ar  157   3.424   2.399   5.257
    1   AR   Ar  158   3.388   1.943   6.256
    1   AR   Ar  159   4.192   1.486   6.923
    1   AR   Ar  160   4.325   2.971   5.419
    1   AR   Ar  161   4.349   3.098  -0.282
    1   AR   Ar  162   4.102   4.669   0.424
    1   AR   Ar  163   4.663   3.440   0.731
    1   AR   Ar  164   5.522   4.642   0.705
    1   AR   Ar  165   3.609   3.623   2.562
    1   AR   Ar  166   3.497   4.518   3.084
    1   AR   Ar  167   4.349   3.052   3.174
    1   AR   Ar  168   3.846   4.090   1.438
    1   AR   Ar  169   2.943   3.007   3.344
    1   AR   Ar  170   3.339   4.965   4.144
    1   AR   Ar  171   3.573   3.756   4.772
    1   AR   Ar  172   4.456   4.627   4.307
    1   AR   Ar  173   3.223   3.324   6.057
    1   AR   Ar  174   4.145   5.570   6.208
    1   AR   Ar  175   3.898   4.208   6.300
    1   AR   Ar  176   3.771   4.816   5.125
    1   AR   Ar  177   5.154   5.870   0.668
    1   AR   Ar  178   3.829   6.289   1.592
    1   AR   Ar  179   4.625   5.369   1.410
    1   AR   Ar  180   4.109   6.185  -0.148
    1   AR   Ar  181   3.431   5.206   1.951
    1   AR   Ar  182   2.469   6.124   1.728
    1   AR   Ar  183   4.271   4.918   2.416
    1   AR   Ar  184   4.443   6.116   2.461
    1   AR   Ar  185   2.315   5.397   3.513
    1   AR   Ar  186   3.171   5.968   4.009
    1   AR   Ar  187   4.565   5.194   3.445
    1   AR   Ar  188   3.580   5.609   2.895
    1   AR   Ar  189   2.854   5.355   5.758
    1   AR   Ar  190   3.869   7.077   7.005
    1   AR   Ar  191   4.793   5.891   5.243
    1   AR   Ar  192   3.797   6.755   5.352
    1   AR   Ar  193   5.328   0.069   0.157
    1   AR   Ar  194   4.741   1.042   0.571
    1   AR   Ar  195   5.933   1.255   0.841
    1   AR   Ar  196   5.590   1.309  -0.222
    1   AR   Ar  197   5.054   0.284   1.428
    1   AR   Ar  198   5.234   1.323   1.840
    1   AR   Ar  199   6.241   0.779   2.170
    1   AR   Ar  200   6.707   1.667   1.385
    1   AR   Ar  201   4.605   6.540   3.434
    1   AR   Ar  202   4.793   1.061   4.445
    1   AR   Ar  203   6.842   6.506   4.883
    1   AR   Ar  204   6.510   0.288   3.704
    1   AR   Ar  205   5.025   0.014   4.530
    1   AR   Ar  206   5.398   6.932   5.601
    1   AR   Ar  207   6.570   6.980   6.018
    1   AR   Ar  208   6.153   0.628   4.663
    1   AR   Ar  209   7.010   2.426  -0.441
    1   AR   Ar  210   5.372   2.499   1.349
    1   AR   Ar  211   6.183   2.202   0.506
    1   AR   Ar  212   6.661   3.414  -0.057
    1   AR   Ar  213   4.695   2.311   2.267
    1   AR   Ar  214   4.648   3.524   2.086
    1   AR   Ar  215   6.166   1.905   2.344
    1   AR   Ar  216   6.409   2.648   1.605
    1   AR   Ar  217   4.828   2.043   3.586
    1   AR   Ar  218   5.293   2.037   4.528
    1   AR   Ar  219   5.873   1.474   3.574
    1   AR   Ar  220   6.131   2.738   3.045
    1   AR   Ar  221   5.386   1.428   5.352
    1   AR   Ar  222   4.669   2.178   6.083
    1   AR   Ar  223   6.878   1.335   6.934
    1   AR   Ar  224   6.451   2.723   5.494
    1   AR   Ar  225   5.022   4.037  -0.214
    1   AR   Ar  226   5.038   4.486   2.006
    1   AR   Ar  227   6.850   3.760   1.772
    1   AR   Ar  228   6.369   5.354   0.177
    1   AR   Ar  229   6.052   3.317   0.801
    1   AR   Ar  230   4.542   4.101   3.219
    1   AR   Ar  231   6.812   3.160   3.816
    1   AR   Ar  232   5.558   3.777   1.621
    1   AR   Ar  233   5.652   3.050   4.223
    1   AR   Ar  234   5.717   4.191   4.485
    1   AR   Ar  235   6.822   3.874   4.548
    1   AR   Ar  236   6.335   4.099   3.454
    1   AR   Ar  237   5.520   3.146   5.255
    1   AR   Ar  238   4.935   4.673   6.296
    1   AR   Ar  239   5.511   3.612   7.607
    1   AR   Ar  240   5.927   3.920   5.722
    1   AR   Ar  241   6.791   0.234  -0.026
    1   AR   Ar  242   5.031   6.411   1.488
    1   AR   Ar  243   6.514   4.722   1.989
    1   AR   Ar  244   6.156   0.096   0.896
    1   AR   Ar  245   5.287   5.666   2.593
    1   AR   Ar  246   5.974   6.444   3.155
    1   AR   Ar  247   5.645   3.663   2.732
    1   AR   Ar  248   6.011   6.420   2.016
    1   AR   Ar  249   6.249   5.304   2.836
    1   AR   Ar  250   5.070   5.846   4.224
    1   AR   Ar  251   6.226   5.159   3.908
    1   AR   Ar  252   5.996   6.112   4.194
    1   AR   Ar  253   5.181   4.869   5.100
    1   AR   Ar  254   5.449   5.593   6.257
    1   AR   Ar  255   6.262   5.066   5.589
    1   AR   Ar  256   5.833   5.963   5.119
    7.12000  7.12000 12.00000
Argon-slab step 580
  256
    1   AR   Ar    1   0.934   0.829  -0.756
    1   AR   Ar    2   7.057   0.868   0.928
    1   AR   Ar    3   0.710   6.522   0.576
    1   AR   Ar    4   1.392   0.283  -0.004
    1   AR   Ar    5   0.174   6.912   1.662
    1   AR   Ar    6   0.172   0.348   2.949
    1   AR   Ar    7   0.867   6.614   2.316
    1   AR   Ar    8   1.231   0.148   1.389
    1   AR   Ar    9   0.432   7.120   4.103
    1   AR   Ar   10   0.012   0.927   4.177
    1   AR   Ar   11   1.474   0.243   4.271
    1   AR   Ar   12   1.014   0.985   3.645
    1   AR   Ar   13   0.115   0.414   5.257
    1   AR   Ar   14   0.311   1.147   6.137
    1   AR   Ar   15   1.835   0.219   7.577
    1   AR   Ar   16   1.281   0.875   5.646
    1   AR   Ar   17   6.768   1.474  -0.101
    1   AR   Ar   18   0.126   2.272   0.766
    1   AR   Ar   19   0.849   1.536   0.932
    1   AR   Ar   20   0.908   2.332  -0.817
    1   AR   Ar   21   0.629   0.935   1.828
    1   AR   Ar   22   7.110   2.412   2.678
    1   AR   Ar   23   7.057   1.374   2.414
    1   AR   Ar   24   0.522   2.232   1.786
    1   AR   Ar   25   0.083   1.899   3.651
    1   AR   Ar   26   6.429   2.341   4.390
    1   AR   Ar   27   0.346   1.985   5.185
    1   AR   Ar   28   0.942   2.706   4.098
    1   AR   Ar   29   6.475   1.622   5.059
    1   AR   Ar   30   0.042   2.143   6.222
    1   AR   Ar   31   0.831   0.919   7.104
    1   AR   Ar   32   1.293   2.667   5.887
    1   AR   Ar   33   0.829   3.401  -0.473
    1   AR   Ar   34   0.184   4.942   1.220
    1   AR   Ar   35   0.371   3.277   0.965
    1   AR   Ar   36   1.849   5.701  -0.913
    1   AR   Ar   37   0.164   3.440   2.791
    1   AR   Ar   38   0.304   4.439   2.945
    1   AR   Ar   39   1.218   3.625   3.087
    1   AR   Ar   40   0.788   4.185   2.035
    1   AR   Ar   41   0.964   2.696   2.917
    1   AR   Ar   42   7.046   4.922   4.906
    1   AR   Ar   43   0.224   3.072   5.260
    1   AR   Ar   44   0.552   3.901   3.753
    1   AR   Ar   45   0.187   4.023   5.678
    1   AR   Ar   46   7.098   4.975   6.172
    1   AR   Ar   47   0.639   3.901   6.892
    1   AR   Ar   48   1.254   4.433   6.063
    1   AR   Ar   49   0.232   4.853  -0.328
    1   AR   Ar   50   6.210   5.704   1.286
    1   AR   Ar   51   0.976   4.449   0.742
    1   AR   Ar   52   0.943   5.468   0.221
    1   AR   Ar   53   6.920   5.718   2.020
    1   AR   Ar   54   6.862   6.382   3.726
    1   AR   Ar   55   0.330   5.603   3.109
    1   AR   Ar   56   0.757   5.722   1.495
    1   AR   Ar   57   0.152   4.806   3.912
    1   AR   Ar   58   0.223   5.740   4.341
    1   AR   Ar   59   1.538   5.910   4.595
    1   AR   Ar   60   0.964   6.306   3.678
    1   AR   Ar   61   6.736   5.925   5.920
    1   AR   Ar   62   0.635   5.258   5.525
    1   AR   Ar   63   1.790   5.380   5.800
    1   AR   Ar   64   1.047   6.739   5.103
    1   AR   Ar   65   1.936   6.375   0.010
    1   AR   Ar   66   1.830   1.161   0.967
    1   AR   Ar   67   2.908   5.955   0.142
    1   AR   Ar   68   3.269   1.156   0.704
    1   AR   Ar   69   2.122   0.045   0.777
    1   AR   Ar   70   1.282   0.498   2.757
    1   AR   Ar   71   1.860   6.818   2.219
    1   AR   Ar   72   2.770   0.714   1.510
    1   AR   Ar   73   1.744   6.817   3.204
    1   AR   Ar   74   1.463   1.379   4.675
    1   AR   Ar   75   2.552   0.783   4.369
    1   AR   Ar   76   2.276   1.071   3.500
    1   AR   Ar   77   2.178   0.277   5.365
    1   AR   Ar   78   1.747   0.287   6.515
    1   AR   Ar   79   2.694   0.383   6.804
    1   AR   Ar   80   2.731   1.064   5.809
    1   AR   Ar   81   2.392   1.511   0.037
    1   AR   Ar   82   1.791   3.764   1.172
    1   AR   Ar   83   2.618   1.978   1.677
    1   AR   Ar   84   1.765   2.960  -0.674
    1   AR   Ar   85   1.575   1.955   1.634
    1   AR   Ar   86   2.091   2.707   2.556
    1   AR   Ar   87   2.137   1.264   2.343
    1   AR   Ar   88   2.783   3.001   1.542
    1   AR   Ar   89   0.993   1.677   2.622
    1   AR   Ar   90   2.625   3.296   4.778
    1   AR   Ar   91   2.718   1.853   4.492
    1   AR   Ar   92   1.812   2.071   3.423
    1   AR   Ar   93   1.745   1.809   5.567
    1   AR   Ar   94   2.455   2.466   6.880
    1   AR   Ar   95   2.418   1.322   7.161
    1   AR   Ar   96   2.447   2.595   5.798
    1   AR   Ar   97   2.190   4.030  -0.118
    1   AR   Ar   98   2.731   4.265   1.599
    1   AR   Ar   99   2.990   3.197  -0.684
    1   AR   Ar  100   2.497   5.107  -0.287
    1   AR   Ar  101   1.151   3.057   1.647
    1   AR   Ar  102   1.983   4.302   3.473
    1   AR   Ar  103   1.853   4.017   2.342
    1   AR   Ar  104   3.012   4.231   0.432
    1   AR   Ar  105   1.876   3.061   3.620
    1   AR   Ar  106   1.861   3.984   4.437
    1   AR   Ar  107   2.600   4.324   5.133
    1   AR   Ar  108   2.891   3.946   3.990
    1   AR   Ar  109   0.932   4.123   4.899
    1   AR   Ar  110   1.778   3.772   5.470
    1   AR   Ar  111   3.283   4.947   6.603
    1   AR   Ar  112   2.272   4.001   6.457
    1   AR   Ar  113   2.028   4.878   0.703
    1   AR   Ar  114   1.688   6.072   0.978
    1   AR   Ar  115   3.124   5.507   1.045
    1   AR   Ar  116   2.569   0.317  -0.591
    1   AR   Ar  117   1.410   4.867   2.791
    1   AR   Ar  118   1.401   5.813   2.725
    1   AR   Ar  119   2.593   4.863   2.623
    1   AR   Ar  120   1.842   5.170   1.822
    1   AR   Ar  121   1.267   5.271   3.820
    1   AR   Ar  122   2.253   6.546   4.233
    1   AR   Ar  123   2.421   5.337   4.605
    1   AR   Ar  124   2.591   6.150   2.778
    1   AR   Ar  125   1.493   5.006   4.939
    1   AR   Ar  126   1.369   6.450   5.966
    1   AR   Ar  127   2.431   5.750   7.289
    1   AR   Ar  128   2.577   6.470   5.759
    1   AR   Ar  129   3.182   7.050   0.726
    1   AR   Ar  130   4.245   0.504  -0.265
    1   AR   Ar  131   4.357   6.983   0.722
    1   AR   Ar  132   4.265   1.447  -0.733
    1   AR   Ar  133   3.612   6.941   2.623
    1   AR   Ar  134   3.056   0.765   2.542
    1   AR   Ar  135   4.907   0.225   2.822
    1   AR   Ar  136   3.758   0.240   1.550
    1   AR   Ar  137   2.639   0.054   3.568
    1   AR   Ar  138   3.750   1.101   4.515
    1   AR   Ar  139   3.810   0.010   4.119
    1   AR   Ar  140   4.210   0.928   3.492
    1   AR   Ar  141   3.029   6.995   4.894
    1   AR   Ar  142   3.730   0.955   6.157
    1   AR   Ar  143   4.482   6.541   6.227
    1   AR   Ar  144   4.973   1.244   6.305
    1   AR   Ar  145   2.945   2.139   0.750
    1   AR   Ar  146   3.891   2.849   1.347
    1   AR   Ar  147   4.479   1.973   0.748
    1   AR   Ar  148   5.790   2.461  -0.429
    1   AR   Ar  149   3.583   1.764   1.491
    1   AR   Ar  150   2.874   1.969   2.797
    1   AR   Ar  151   3.892   1.892   2.947
    1   AR   Ar  152   3.585   2.658   2.280
    1   AR   Ar  153   3.151   1.518   3.642
    1   AR   Ar  154   3.999   2.537   4.199
    1   AR   Ar  155   4.300   1.855   4.997
    1   AR   Ar  156   4.804   3.736   4.170
    1   AR   Ar  157   3.439   2.355   5.282
    1   AR   Ar  158   3.391   1.969   6.271
    1   AR   Ar  159   4.165   1.489   6.890
    1   AR   Ar  160   4.348   2.964   5.432
    1   AR   Ar  161   4.369   3.091  -0.280
    1   AR   Ar  162   4.126   4.667   0.417
    1   AR   Ar  163   4.699   3.450   0.716
    1   AR   Ar  164   5.534   4.622   0.717
    1   AR   Ar  165   3.613   3.638   2.554
    1   AR   Ar  166   3.500   4.477   3.081
    1   AR   Ar  167   4.353   3.069   3.188
    1   AR   Ar  168   3.843   4.063   1.432
    1   AR   Ar  169   2.930   2.985   3.326
    1   AR   Ar  170   3.330   4.953   4.150
    1   AR   Ar  171   3.549   3.769   4.766
    1   AR   Ar  172   4.422   4.630   4.335
    1   AR   Ar  173   3.242   3.321   6.065
    1   AR   Ar  174   4.114   5.611   6.194
    1   AR   Ar  175   3.895   4.199   6.311
    1   AR   Ar  176   3.740   4.805   5.117
    1   AR   Ar  177   5.187   5.880   0.694
    1   AR   Ar  178   3.822   6.302   1.573
    1   AR   Ar  179   4.627   5.369   1.416
    1   AR   Ar  180   4.116   6.163  -0.154
    1   AR   Ar  181   3.409   5.206   1.969
    1   AR   Ar  182   2.435   6.124   1.726
    1   AR   Ar  183   4.271   4.918   2.409
    1   AR   Ar  184   4.442   6.108   2.453
    1   AR   Ar  185   2.329   5.418   3.510
    1   AR   Ar  186   3.154   5.956   3.976
    1   AR   Ar  187   4.570   5.192   3.423
    1   AR   Ar  188   3.568   5.595   2.871
    1   AR   Ar  189   2.851   5.318   5.771
    1   AR   Ar  190   3.864   7.078   6.992
    1   AR   Ar  191   4.776   5.876   5.236
    1   AR   Ar  192   3.789   6.721   5.385
    1   AR   Ar  193   5.349   0.076   0.132
    1   AR   Ar  194   4.745   1.020   0.510
    1   AR   Ar  195   5.953   1.241   0.821
    1   AR   Ar  196   5.621   1.308  -0.225
    1   AR   Ar  197   5.042   0.289   1.429
    1   AR   Ar  198   5.220   1.320   1.824
    1   AR   Ar  199   6.249   0.780   2.202
    1   AR   Ar  200   6.715   1.689   1.358
    1   AR   Ar  201   4.601   6.522   3.426
    1   AR   Ar  202   4.830   1.060   4.419
    1   AR   Ar  203   6.861   6.478   4.877
    1   AR   Ar  204   6.540   0.282   3.698
    1   AR   Ar  205   5.029   7.119   4.544
    1   AR   Ar  206   5.406   6.933   5.566
    1   AR   Ar  207   6.589   6.974   6.032
    1   AR   Ar  208   6.153   0.636   4.655
    1   AR   Ar  209   7.012   2.445  -0.446
    1   AR   Ar  210   5.347   2.505   1.347
    1   AR   Ar  211   6.198   2.236   0.515
    1   AR   Ar  212   6.661   3.436  -0.078
    1   AR   Ar  213   4.688   2.305   2.267
    1   AR   Ar  214   4.660   3.506   2.105
    1   AR   Ar  215   6.148   1.886   2.337
    1   AR   Ar  216   6.418   2.665   1.620
    1   AR   Ar  217   4.833   2.051   3.559
    1   AR   Ar  218   5.262   2.032   4.486
    1   AR   Ar  219   5.855   1.473   3.588
    1   AR   Ar  220   6.092   2.730   3.029
    1   AR   Ar  221   5.397   1.375   5.372
    1   AR   Ar  222   4.682   2.184   6.089
    1   AR   Ar  223   6.874   1.335   6.966
    1   AR   Ar  224   6.448   2.716   5.448
    1   AR   Ar  225   5.008   4.025  -0.187
    1   AR   Ar  226   5.038   4.508   2.034
    1   AR   Ar  227   6.831   3.777   1.789
    1   AR   Ar  228   6.391   5.339   0.189
    1   AR   Ar  229   6.059   3.349   0.776
    1   AR   Ar  230   4.512   4.120   3.237
    1   AR   Ar  231   6.853   3.179   3.823
    1   AR   Ar  232   5.566   3.764   1.605
    1   AR   Ar  233   5.664   3.015   4.216
    1   AR   Ar  234   5.708   4.210   4.490
    1   AR   Ar  235   6.798   3.893   4.532
    1   AR   Ar  236   6.307   4.046   3.454
    1   AR   Ar  237   5.513   3.140   5.264
    1   AR   Ar  238   4.917   4.657   6.318
    1   AR   Ar  239   5.520   3.590   7.598
    1   AR   Ar  240   5.957   3.898   5.732
    1   AR   Ar  241   6.798   0.236  -0.034
    1   AR   Ar  242   5.055   6.439   1.493
    1   AR   Ar  243   6.501   4.734   1.999
    1   AR   Ar  244   6.140   0.116   0.891
    1   AR   Ar  245   5.284   5.680   2.601
    1   AR   Ar  246   5.999   6.437   3.167
    1   AR   Ar  247   5.643   3.639   2.701
    1   AR   Ar  248   6.000   6.420   2.053
    1   AR   Ar  249   6.263   5.320   2.823
    1   AR   Ar  250   5.062   5.846   4.181
    1   AR   Ar  251   6.191   5.147   3.923
    1   AR   Ar  252   5.986   6.087   4.170
    1   AR   Ar  253   5.127   4.887   5.087
    1   AR   Ar  254   5.491   5.591   6.231
    1   AR   Ar  255   6.285   5.047   5.613
    1   AR   Ar  256   5.843   5.991   5.128
    7.12000  7.12000 12.00000
Argon-slab step 585
  256
    1   AR   Ar    1   0.949   0.851  -0.771
    1   AR   Ar    2   7.101   0.885   0.931
    1   AR   Ar    3   0.710   6.577   0.591
    1   AR   Ar    4   1.387   0.311  -0.028
    1   AR   Ar    5   0.151   6.890   1.653
    1   AR   Ar    6   0.187   0.371   2.930
    1   AR   Ar    7   0.892   6.622   2.300
    1   AR   Ar    8   1.193   0.149   1.404
    1   AR   Ar    9   0.436   0.023   4.085
    1   AR   Ar   10   0.034   0.934   4.175
    1   AR   Ar   11   1.513   0.255   4.271
    1   AR   Ar   12   1.016   0.996   3.668
    1   AR   Ar   13   0.114   0.410   5.257
    1   AR   Ar   14   0.309   1.120   6.126
    1   AR   Ar   15   1.812   0.194   7.560
    1   AR   Ar   16   1.286   0.865   5.638
    1   AR   Ar   17   6.753   1.464  -0.074
    1   AR   Ar   18   0.092   2.285   0.752
    1   AR   Ar   19   0.842   1.590   0.928
    1   AR   Ar   20   0.893   2.320  -0.804
    1   AR   Ar   21   0.667   0.940   1.848
    1   AR   Ar   22   7.117   2.403   2.677
    1   AR   Ar   23   7.062   1.391   2.417
    1   AR   Ar   24   0.538   2.234   1.785
    1   AR   Ar   25   0.106   1.899   3.659
    1   AR   Ar   26   6.452   2.308   4.384
    1   AR   Ar   27   0.351   1.979   5.202
    1   AR   Ar   28   0.947   2.714   4.080
    1   AR   Ar   29   6.487   1.584   5.041
    1   AR   Ar   30   0.036   2.146   6.224
    1   AR   Ar   31   0.808   0.948   7.129
    1   AR   Ar   32   1.257   2.659   5.884
    1   AR   Ar   33   0.820   3.429  -0.479
    1   AR   Ar   34   0.198   4.964   1.225
    1   AR   Ar   35   0.380   3.273   0.964
    1   AR   Ar   36   1.839   5.717  -0.926
    1   AR   Ar   37   0.150   3.413   2.766
    1   AR   Ar   38   0.306   4.458   2.935
    1   AR   Ar   39   1.240   3.636   3.091
    1   AR   Ar   40   0.803   4.193   2.019
    1   AR   Ar   41   0.966   2.709   2.969
    1   AR   Ar   42   7.067   4.919   4.906
    1   AR   Ar   43   0.242   3.080   5.212
    1   AR   Ar   44   0.554   3.881   3.775
    1   AR   Ar   45   0.163   4.042   5.652
    1   AR   Ar   46   7.111   4.969   6.185
    1   AR   Ar   47   0.613   3.895   6.874
    1   AR   Ar   48   1.251   4.446   6.065
    1   AR   Ar   49   0.241   4.846  -0.364
    1   AR   Ar   50   6.186   5.690   1.274
    1   AR   Ar   51   0.973   4.446   0.741
    1   AR   Ar   52   0.952   5.457   0.251
    1   AR   Ar   53   6.916   5.709   2.033
    1   AR   Ar   54   6.838   6.419   3.718
    1   AR   Ar   55   0.341   5.616   3.090
    1   AR   Ar   56   0.759   5.740   1.507
    1   AR   Ar   57   0.162   4.793   3.914
    1   AR   Ar   58   0.245   5.693   4.355
    1   AR   Ar   59   1.545   5.933   4.610
    1   AR   Ar   60   0.979   6.273   3.700
    1   AR   Ar   61   6.745   5.917   5.910
    1   AR   Ar   62   0.676   5.259   5.534
    1   AR   Ar   63   1.791   5.393   5.821
    1   AR   Ar   64   1.025   6.776   5.107
    1   AR   Ar   65   1.942   6.354   0.015
    1   AR   Ar   66   1.820   1.151   0.985
    1   AR   Ar   67   2.921   5.941   0.118
    1   AR   Ar   68   3.299   1.156   0.747
    1   AR   Ar   69   2.100   0.042   0.789
    1   AR   Ar   70   1.282   0.450   2.811
    1   AR   Ar   71   1.836   6.812   2.197
    1   AR   Ar   72   2.787   0.689   1.526
    1   AR   Ar   73   1.748   6.771   3.213
    1   AR   Ar   74   1.437   1.383   4.659
    1   AR   Ar   75   2.534   0.753   4.375
    1   AR   Ar   76   2.248   1.071   3.497
    1   AR   Ar   77   2.159   0.281   5.403
    1   AR   Ar   78   1.752   0.290   6.510
    1   AR   Ar   79   2.673   0.393   6.803
    1   AR   Ar   80   2.720   1.041   5.818
    1   AR   Ar   81   2.406   1.527   0.053
    1   AR   Ar   82   1.825   3.778   1.189
    1   AR   Ar   83   2.634   1.976   1.724
    1   AR   Ar   84   1.764   2.982  -0.692
    1   AR   Ar   85   1.587   1.944   1.643
    1   AR   Ar   86   2.058   2.711   2.541
    1   AR   Ar   87   2.111   1.263   2.346
    1   AR   Ar   88   2.777   3.008   1.531
    1   AR   Ar   89   1.005   1.676   2.585
    1   AR   Ar   90   2.650   3.251   4.811
    1   AR   Ar   91   2.735   1.883   4.499
    1   AR   Ar   92   1.782   2.089   3.398
    1   AR   Ar   93   1.729   1.821   5.594
    1   AR   Ar   94   2.446   2.439   6.881
    1   AR   Ar   95   2.413   1.316   7.181
    1   AR   Ar   96   2.460   2.599   5.779
    1   AR   Ar   97   2.179   4.043  -0.156
    1   AR   Ar   98   2.753   4.265   1.600
    1   AR   Ar   99   2.999   3.197  -0.709
    1   AR   Ar  100   2.522   5.086  -0.264
    1   AR   Ar  101   1.167   3.066   1.658
    1   AR   Ar  102   1.973   4.318   3.454
    1   AR   Ar  103   1.831   4.022   2.342
    1   AR   Ar  104   3.005   4.227   0.427
    1   AR   Ar  105   1.892   3.033   3.629
    1   AR   Ar  106   1.845   4.017   4.455
    1   AR   Ar  107   2.613   4.316   5.145
    1   AR   Ar  108   2.920   3.918   3.997
    1   AR   Ar  109   0.923   4.126   4.900
    1   AR   Ar  110   1.768   3.759   5.464
    1   AR   Ar  111   3.254   4.953   6.575
    1   AR   Ar  112   2.254   3.969   6.436
    1   AR   Ar  113   2.016   4.882   0.666
    1   AR   Ar  114   1.714   6.073   0.974
    1   AR   Ar  115   3.147   5.508   1.003
    1   AR   Ar  116   2.569   0.269  -0.571
    1   AR   Ar  117   1.401   4.829   2.806
    1   AR   Ar  118   1.405   5.819   2.719
    1   AR   Ar  119   2.592   4.848   2.615
    1   AR   Ar  120   1.903   5.161   1.811
    1   AR   Ar  121   1.232   5.265   3.838
    1   AR   Ar  122   2.280   6.534   4.252
    1   AR   Ar  123   2.421   5.331   4.623
    1   AR   Ar  124   2.612   6.127   2.766
    1   AR   Ar  125   1.484   5.005   4.930
    1   AR   Ar  126   1.372   6.450   5.972
    1   AR   Ar  127   2.411   5.791   7.308
    1   AR   Ar  128   2.564   6.527   5.772
    1   AR   Ar  129   3.206   7.012   0.736
    1   AR   Ar  130   4.277   0.497  -0.305
    1   AR   Ar  131   4.334   6.995   0.723
    1   AR   Ar  132   4.287   1.476  -0.757
    1   AR   Ar  133   3.624   6.976   2.630
    1   AR   Ar  134   3.070   0.767   2.522
    1   AR   Ar  135   4.939   0.218   2.834
    1   AR   Ar  136   3.767   0.234   1.564
    1   AR   Ar  137   2.659   0.041   3.542
    1   AR   Ar  138   3.761   1.127   4.529
    1   AR   Ar  139   3.862   0.012   4.112
    1   AR   Ar  140   4.225   0.942   3.488
    1   AR   Ar  141   3.048   7.001   4.878
    1   AR   Ar  142   3.767   0.941   6.170
    1   AR   Ar  143   4.497   6.518   6.218
    1   AR   Ar  144   4.972   1.270   6.321
    1   AR   Ar  145   2.914   2.163   0.736
    1   AR   Ar  146   3.922   2.865   1.323
    1   AR   Ar  147   4.478   1.949   0.748
    1   AR   Ar  148   5.808   2.494  -0.422
    1   AR   Ar  149   3.580   1.794   1.505
    1   AR   Ar  150   2.860   1.972   2.821
    1   AR   Ar  151   3.933   1.922   2.950
    1   AR   Ar  152   3.551   2.664   2.269
    1   AR   Ar  153   3.149   1.501   3.644
    1   AR   Ar  154   3.992   2.529   4.206
    1   AR   Ar  155   4.320   1.841   5.032
    1   AR   Ar  156   4.831   3.757   4.180
    1   AR   Ar  157   3.450   2.315   5.305
    1   AR   Ar  158   3.392   1.997   6.288
    1   AR   Ar  159   4.139   1.497   6.866
    1   AR   Ar  160   4.370   2.958   5.441
    1   AR   Ar  161   4.390   3.084  -0.277
    1   AR   Ar  162   4.149   4.664   0.412
    1   AR   Ar  163   4.736   3.460   0.705
    1   AR   Ar  164   5.518   4.625   0.726
    1   AR   Ar  165   3.617   3.652   2.543
    1   AR   Ar  166   3.501   4.446   3.085
    1   AR   Ar  167   4.357   3.082   3.202
    1   AR   Ar  168   3.842   4.035   1.427
    1   AR   Ar  169   2.919   2.963   3.306
    1   AR   Ar  170   3.323   4.936   4.152
    1   AR   Ar  171   3.549   3.773   4.760
    1   AR   Ar  172   4.383   4.641   4.362
    1   AR   Ar  173   3.267   3.326   6.064
    1   AR   Ar  174   4.080   5.642   6.178
    1   AR   Ar  175   3.896   4.185   6.318
    1   AR   Ar  176   3.707   4.794   5.115
    1   AR   Ar  177   5.223   5.886   0.706
    1   AR   Ar  178   3.816   6.312   1.553
    1   AR   Ar  179   4.626   5.367   1.426
    1   AR   Ar  180   4.122   6.142  -0.157
    1   AR   Ar  181   3.381   5.202   1.981
    1   AR   Ar  182   2.406   6.120   1.721
    1   AR   Ar  183   4.259   4.925   2.413
    1   AR   Ar  184   4.424   6.109   2.440
    1   AR   Ar  185   2.329   5.429   3.507
    1   AR   Ar  186   3.138   5.949   3.942
    1   AR   Ar  187   4.574   5.193   3.398
    1   AR   Ar  188   3.555   5.586   2.860
    1   AR   Ar  189   2.849   5.285   5.775
    1   AR   Ar  190   3.857   7.080   6.978
    1   AR   Ar  191   4.757   5.864   5.232
    1   AR   Ar  192   3.800   6.680   5.430
    1   AR   Ar  193   5.367   0.084   0.108
    1   AR   Ar  194   4.754   0.992   0.449
    1   AR   Ar  195   5.969   1.222   0.801
    1   AR   Ar  196   5.653   1.307  -0.228
    1   AR   Ar  197   5.032   0.309   1.430
    1   AR   Ar  198   5.207   1.319   1.808
    1   AR   Ar  199   6.254   0.777   2.232
    1   AR   Ar  200   6.717   1.712   1.347
    1   AR   Ar  201   4.595   6.503   3.422
    1   AR   Ar  202   4.867   1.058   4.392
    1   AR   Ar  203   6.877   6.455   4.873
    1   AR   Ar  204   6.562   0.271   3.688
    1   AR   Ar  205   5.033   7.101   4.556
    1   AR   Ar  206   5.414   6.933   5.531
    1   AR   Ar  207   6.608   6.970   6.044
    1   AR   Ar  208   6.144   0.643   4.642
    1   AR   Ar  209   7.012   2.466  -0.449
    1   AR   Ar  210   5.321   2.511   1.344
    1   AR   Ar  211   6.213   2.271   0.527
    1   AR   Ar  212   6.663   3.457  -0.101
    1   AR   Ar  213   4.682   2.291   2.291
    1   AR   Ar  214   4.669   3.483   2.126
    1   AR   Ar  215   6.125   1.867   2.330
    1   AR   Ar  216   6.429   2.686   1.635
    1   AR   Ar  217   4.835   2.058   3.527
    1   AR   Ar  218   5.236   2.030   4.449
    1   AR   Ar  219   5.827   1.451   3.586
    1   AR   Ar  220   6.054   2.720   3.016
    1   AR   Ar  221   5.409   1.323   5.387
    1   AR   Ar  222   4.692   2.196   6.092
    1   AR   Ar  223   6.866   1.337   7.003
    1   AR   Ar  224   6.437   2.703   5.405
    1   AR   Ar  225   4.994   4.013  -0.159
    1   AR   Ar  226   5.053   4.528   2.056
    1   AR   Ar  227   6.812   3.788   1.805
    1   AR   Ar  228   6.413   5.325   0.203
    1   AR   Ar  229   6.065   3.378   0.752
    1   AR   Ar  230   4.483   4.142   3.250
    1   AR   Ar  231   6.895   3.191   3.824
    1   AR   Ar  232   5.560   3.755   1.584
    1   AR   Ar  233   5.673   2.984   4.210
    1   AR   Ar  234   5.704   4.228   4.495
    1   AR   Ar  235   6.801   3.914   4.530
    1   AR   Ar  236   6.281   3.994   3.455
    1   AR   Ar  237   5.497   3.128   5.267
    1   AR   Ar  238   4.900   4.642   6.337
    1   AR   Ar  239   5.528   3.568   7.590
    1   AR   Ar  240   5.992   3.885   5.745
    1   AR   Ar  241   6.773   0.229  -0.017
    1   AR   Ar  242   5.069   6.435   1.523
    1   AR   Ar  243   6.487   4.746   2.007
    1   AR   Ar  244   6.124   0.136   0.889
    1   AR   Ar  245   5.267   5.692   2.591
    1   AR   Ar  246   6.019   6.430   3.174
    1   AR   Ar  247   5.638   3.616   2.669
    1   AR   Ar  248   5.988   6.422   2.091
    1   AR   Ar  249   6.279   5.338   2.815
    1   AR   Ar  250   5.035   5.840   4.140
    1   AR   Ar  251   6.159   5.124   3.937
    1   AR   Ar  252   5.992   6.077   4.139
    1   AR   Ar  253   5.077   4.906   5.078
    1   AR   Ar  254   5.532   5.590   6.202
    1   AR   Ar  255   6.246   5.031   5.596
    1   AR   Ar  256   5.853   6.016   5.152
    7.12000  7.12000 12.00000
Argon-slab step 590
  256
    1   AR   Ar    1   0.962   0.877  -0.790
    1   AR   Ar    2   0.027   0.894   0.930
    1   AR   Ar    3   0.711   6.632   0.607
    1   AR   Ar    4   1.409   0.303  -0.011
    1   AR   Ar    5   0.123   6.868   1.639
    1   AR   Ar    6   0.204   0.393   2.909
    1   AR   Ar    7   0.903   6.628   2.289
    1   AR   Ar    8   1.156   0.147   1.418
    1   AR   Ar    9   0.444   0.038   4.068
    1   AR   Ar   10   0.055   0.954   4.179
    1   AR   Ar   11   1.554   0.266   4.272
    1   AR   Ar   12   1.018   1.011   3.691
    1   AR   Ar   13   0.113   0.406   5.255
    1   AR   Ar   14   0.308   1.089   6.111
    1   AR   Ar   15   1.788   0.170   7.545
    1   AR   Ar   16   1.288   0.852   5.631
    1   AR   Ar   17   6.737   1.454  -0.043
    1   AR   Ar   18   0.068   2.309   0.726
    1   AR   Ar   19   0.835   1.641   0.924
    1   AR   Ar   20   0.879   2.307  -0.790
    1   AR   Ar   21   0.707   0.945   1.867
    1   AR   Ar   22   7.119   2.392   2.678
    1   AR   Ar   23   7.069   1.409   2.423
    1   AR   Ar   24   0.550   2.235   1.782
    1   AR   Ar   25   0.135   1.898   3.666
    1   AR   Ar   26   6.472   2.286   4.378
    1   AR   Ar   27   0.359   1.973   5.217
    1   AR   Ar   28   0.949   2.723   4.063
    1   AR   Ar   29   6.492   1.545   5.060
    1   AR   Ar   30   0.029   2.151   6.226
    1   AR   Ar   31   0.811   0.975   7.135
    1   AR   Ar   32   1.217   2.659   5.881
    1   AR   Ar   33   0.808   3.457  -0.484
    1   AR   Ar   34   0.204   4.980   1.230
    1   AR   Ar   35   0.393   3.271   0.957
    1   AR   Ar   36   1.829   5.733  -0.938
    1   AR   Ar   37   0.135   3.389   2.742
    1   AR   Ar   38   0.327   4.442   2.931
    1   AR   Ar   39   1.265   3.659   3.090
    1   AR   Ar   40   0.818   4.201   2.000
    1   AR   Ar   41   0.966   2.710   3.019
    1   AR   Ar   42   7.080   4.906   4.913
    1   AR   Ar   43   0.267   3.089   5.161
    1   AR   Ar   44   0.558   3.855   3.806
    1   AR   Ar   45   0.137   4.063   5.627
    1   AR   Ar   46   0.000   4.957   6.208
    1   AR   Ar   47   0.588   3.890   6.853
    1   AR   Ar   48   1.238   4.465   6.076
    1   AR   Ar   49   0.249   4.838  -0.398
    1   AR   Ar   50   6.159   5.674   1.261
    1   AR   Ar   51   0.973   4.441   0.739
    1   AR   Ar   52   0.962   5.448   0.283
    1   AR   Ar   53   6.918   5.705   2.047
    1   AR   Ar   54   6.834   6.451   3.713
    1   AR   Ar   55   0.353   5.628   3.071
    1   AR   Ar   56   0.769   5.766   1.522
    1   AR   Ar   57   0.167   4.780   3.912
    1   AR   Ar   58   0.274   5.658   4.365
    1   AR   Ar   59   1.545   5.967   4.626
    1   AR   Ar   60   0.995   6.237   3.733
    1   AR   Ar   61   6.754   5.911   5.898
    1   AR   Ar   62   0.726   5.267   5.541
    1   AR   Ar   63   1.800   5.394   5.762
    1   AR   Ar   64   0.999   6.819   5.099
    1   AR   Ar   65   1.947   6.335   0.015
    1   AR   Ar   66   1.802   1.136   1.005
    1   AR   Ar   67   2.920   5.930   0.103
    1   AR   Ar   68   3.330   1.151   0.782
    1   AR   Ar   69   2.061   0.035   0.807
    1   AR   Ar   70   1.263   0.438   2.802
    1   AR   Ar   71   1.827   6.814   2.169
    1   AR   Ar   72   2.798   0.664   1.541
    1   AR   Ar   73   1.748   6.750   3.208
    1   AR   Ar   74   1.411   1.386   4.639
    1   AR   Ar   75   2.520   0.718   4.396
    1   AR   Ar   76   2.229   1.063   3.487
    1   AR   Ar   77   2.134   0.285   5.435
    1   AR   Ar   78   1.747   0.294   6.506
    1   AR   Ar   79   2.675   0.378   6.807
    1   AR   Ar   80   2.710   1.023   5.829
    1   AR   Ar   81   2.419   1.539   0.068
    1   AR   Ar   82   1.860   3.795   1.207
    1   AR   Ar   83   2.642   1.974   1.779
    1   AR   Ar   84   1.766   3.004  -0.710
    1   AR   Ar   85   1.585   1.924   1.644
    1   AR   Ar   86   2.025   2.716   2.523
    1   AR   Ar   87   2.081   1.262   2.351
    1   AR   Ar   88   2.772   3.018   1.520
    1   AR   Ar   89   1.019   1.673   2.550
    1   AR   Ar   90   2.670   3.203   4.845
    1   AR   Ar   91   2.750   1.915   4.511
    1   AR   Ar   92   1.749   2.093   3.369
    1   AR   Ar   93   1.719   1.827   5.621
    1   AR   Ar   94   2.438   2.411   6.881
    1   AR   Ar   95   2.406   1.314   7.201
    1   AR   Ar   96   2.492   2.591   5.749
    1   AR   Ar   97   2.163   4.054  -0.196
    1   AR   Ar   98   2.775   4.266   1.600
    1   AR   Ar   99   3.008   3.198  -0.733
    1   AR   Ar  100   2.545   5.061  -0.244
    1   AR   Ar  101   1.185   3.044   1.651
    1   AR   Ar  102   1.960   4.336   3.455
    1   AR   Ar  103   1.816   4.024   2.334
    1   AR   Ar  104   3.002   4.225   0.426
    1   AR   Ar  105   1.912   3.018   3.644
    1   AR   Ar  106   1.833   4.050   4.468
    1   AR   Ar  107   2.636   4.301   5.125
    1   AR   Ar  108   2.944   3.888   3.991
    1   AR   Ar  109   0.905   4.128   4.900
    1   AR   Ar  110   1.758   3.740   5.461
    1   AR   Ar  111   3.230   4.955   6.565
    1   AR   Ar  112   2.236   3.938   6.413
    1   AR   Ar  113   2.004   4.885   0.633
    1   AR   Ar  114   1.733   6.072   0.970
    1   AR   Ar  115   3.170   5.507   0.965
    1   AR   Ar  116   2.568   0.220  -0.548
    1   AR   Ar  117   1.383   4.788   2.819
    1   AR   Ar  118   1.414   5.833   2.713
    1   AR   Ar  119   2.589   4.833   2.607
    1   AR   Ar  120   1.961   5.150   1.799
    1   AR   Ar  121   1.197   5.253   3.854
    1   AR   Ar  122   2.319   6.531   4.272
    1   AR   Ar  123   2.426   5.326   4.640
    1   AR   Ar  124   2.609   6.133   2.765
    1   AR   Ar  125   1.473   4.988   4.916
    1   AR   Ar  126   1.381   6.446   5.986
    1   AR   Ar  127   2.391   5.833   7.326
    1   AR   Ar  128   2.554   6.580   5.787
    1   AR   Ar  129   3.229   6.973   0.745
    1   AR   Ar  130   4.294   0.486  -0.340
    1   AR   Ar  131   4.300   6.993   0.736
    1   AR   Ar  132   4.310   1.506  -0.780
    1   AR   Ar  133   3.638   7.008   2.638
    1   AR   Ar  134   3.070   0.768   2.508
    1   AR   Ar  135   4.958   0.178   2.837
    1   AR   Ar  136   3.762   0.249   1.556
    1   AR   Ar  137   2.685   0.033   3.512
    1   AR   Ar  138   3.769   1.151   4.539
    1   AR   Ar  139   3.913   0.015   4.105
    1   AR   Ar  140   4.240   0.955   3.484
    1   AR   Ar  141   3.058   7.011   4.855
    1   AR   Ar  142   3.798   0.916   6.170
    1   AR   Ar  143   4.495   6.512   6.183
    1   AR   Ar  144   4.975   1.284   6.339
    1   AR   Ar  145   2.884   2.192   0.720
    1   AR   Ar  146   3.955   2.883   1.296
    1   AR   Ar  147   4.477   1.929   0.751
    1   AR   Ar  148   5.827   2.529  -0.415
    1   AR   Ar  149   3.591   1.826   1.523
    1   AR   Ar  150   2.853   1.974   2.838
    1   AR   Ar  151   3.973   1.950   2.954
    1   AR   Ar  152   3.515   2.664   2.262
    1   AR   Ar  153   3.161   1.480   3.652
    1   AR   Ar  154   3.978   2.517   4.214
    1   AR   Ar  155   4.348   1.827   5.069
    1   AR   Ar  156   4.858   3.767   4.189
    1   AR   Ar  157   3.456   2.279   5.324
    1   AR   Ar  158   3.390   2.025   6.306
    1   AR   Ar  159   4.115   1.516   6.858
    1   AR   Ar  160   4.390   2.955   5.448
    1   AR   Ar  161   4.388   3.087  -0.287
    1   AR   Ar  162   4.173   4.660   0.408
    1   AR   Ar  163   4.774   3.469   0.700
    1   AR   Ar  164   5.484   4.622   0.751
    1   AR   Ar  165   3.625   3.659   2.523
    1   AR   Ar  166   3.521   4.454   3.113
    1   AR   Ar  167   4.359   3.092   3.215
    1   AR   Ar  168   3.841   4.007   1.423
    1   AR   Ar  169   2.910   2.941   3.285
    1   AR   Ar  170   3.315   4.915   4.151
    1   AR   Ar  171   3.559   3.776   4.761
    1   AR   Ar  172   4.342   4.657   4.381
    1   AR   Ar  173   3.291   3.329   6.062
    1   AR   Ar  174   4.039   5.658   6.160
    1   AR   Ar  175   3.900   4.168   6.322
    1   AR   Ar  176   3.671   4.785   5.123
    1   AR   Ar  177   5.262   5.887   0.710
    1   AR   Ar  178   3.821   6.320   1.561
    1   AR   Ar  179   4.623   5.366   1.439
    1   AR   Ar  180   4.129   6.122  -0.158
    1   AR   Ar  181   3.348   5.194   1.979
    1   AR   Ar  182   2.387   6.112   1.714
    1   AR   Ar  183   4.239   4.936   2.424
    1   AR   Ar  184   4.387   6.117   2.422
    1   AR   Ar  185   2.310   5.424   3.505
    1   AR   Ar  186   3.122   5.941   3.929
    1   AR   Ar  187   4.577   5.198   3.374
    1   AR   Ar  188   3.542   5.582   2.864
    1   AR   Ar  189   2.846   5.263   5.761
    1   AR   Ar  190   3.850   7.083   6.962
    1   AR   Ar  191   4.735   5.859   5.231
    1   AR   Ar  192   3.820   6.634   5.479
    1   AR   Ar  193   5.383   0.094   0.085
    1   AR   Ar  194   4.768   0.962   0.394
    1   AR   Ar  195   5.982   1.201   0.781
    1   AR   Ar  196   5.683   1.306  -0.230
    1   AR   Ar  197   5.022   0.339   1.429
    1   AR   Ar  198   5.196   1.320   1.791
    1   AR   Ar  199   6.255   0.771   2.260
    1   AR   Ar  200   6.712   1.730   1.353
    1   AR   Ar  201   4.589   6.484   3.419
    1   AR   Ar  202   4.904   1.053   4.365
    1   AR   Ar  203   6.892   6.436   4.872
    1   AR   Ar  204   6.575   0.263   3.674
    1   AR   Ar  205   5.036   7.082   4.565
    1   AR   Ar  206   5.422   6.933   5.500
    1   AR   Ar  207   6.626   6.967   6.054
    1   AR   Ar  208   6.129   0.635   4.634
    1   AR   Ar  209   7.011   2.489  -0.450
    1   AR   Ar  210   5.296   2.518   1.342
    1   AR   Ar  211   6.224   2.307   0.540
    1   AR   Ar  212   6.669   3.470  -0.108
    1   AR   Ar  213   4.677   2.280   2.313
    1   AR   Ar  214   4.673   3.459   2.147
    1   AR   Ar  215   6.100   1.850   2.321
    1   AR   Ar  216   6.441   2.711   1.650
    1   AR   Ar  217   4.836   2.066   3.489
    1   AR   Ar  218   5.215   2.030   4.421
    1   AR   Ar  219   5.799   1.428   3.585
    1   AR   Ar  220   6.019   2.709   3.006
    1   AR   Ar  221   5.423   1.272   5.395
    1   AR   Ar  222   4.698   2.214   6.094
    1   AR   Ar  223   6.857   1.340   7.041
    1   AR   Ar  224   6.424   2.685   5.364
    1   AR   Ar  225   4.981   4.003  -0.131
    1   AR   Ar  226   5.083   4.543   2.073
    1   AR   Ar  227   6.796   3.793   1.819
    1   AR   Ar  228   6.436   5.309   0.219
    1   AR   Ar  229   6.062   3.370   0.740
    1   AR   Ar  230   4.457   4.162   3.261
    1   AR   Ar  231   6.904   3.196   3.818
    1   AR   Ar  232   5.555   3.743   1.561
    1   AR   Ar  233   5.670   2.959   4.223
    1   AR   Ar  234   5.704   4.247   4.500
    1   AR   Ar  235   6.810   3.938   4.535
    1   AR   Ar  236   6.257   3.944   3.458
    1   AR   Ar  237   5.500   3.129   5.245
    1   AR   Ar  238   4.883   4.629   6.355
    1   AR   Ar  239   5.536   3.558   7.596
    1   AR   Ar  240   6.032   3.878   5.759
    1   AR   Ar  241   6.741   0.221   0.006
    1   AR   Ar  242   5.079   6.426   1.561
    1   AR   Ar  243   6.470   4.756   2.010
    1   AR   Ar  244   6.109   0.156   0.889
    1   AR   Ar  245   5.268   5.695   2.585
    1   AR   Ar  246   6.028   6.425   3.170
    1   AR   Ar  247   5.631   3.597   2.636
    1   AR   Ar  248   5.978   6.424   2.128
    1   AR   Ar  249   6.294   5.360   2.814
    1   AR   Ar  250   4.999   5.830   4.101
    1   AR   Ar  251   6.130   5.090   3.949
    1   AR   Ar  252   6.002   6.077   4.113
    1   AR   Ar  253   5.058   4.913   5.070
    1   AR   Ar  254   5.572   5.591   6.171
    1   AR   Ar  255   6.202   5.012   5.575
    1   AR   Ar  256   5.864   6.038   5.182
    7.12000  7.12000 12.00000
Argon-slab step 595
  256
    1   AR   Ar    1   0.974   0.905  -0.810
    1   AR   Ar    2   0.074   0.898   0.927
    1   AR   Ar    3   0.714   6.686   0.624
    1   AR   Ar    4   1.398   0.295  -0.002
    1   AR   Ar    5   0.092   6.848   1.622
    1   AR   Ar    6   0.220   0.416   2.888
    1   AR   Ar    7   0.892   6.632   2.284
    1   AR   Ar    8   1.150   0.164   1.405
    1   AR   Ar    9   0.459   0.047   4.051
    1   AR   Ar   10   0.073   0.983   4.189
    1   AR   Ar   11   1.595   0.274   4.272
    1   AR   Ar   12   1.019   1.027   3.711
    1   AR   Ar   13   0.112   0.403   5.251
    1   AR   Ar   14   0.309   1.059   6.096
    1   AR   Ar   15   1.766   0.147   7.532
    1   AR   Ar   16   1.285   0.839   5.623
    1   AR   Ar   17   6.723   1.444  -0.009
    1   AR   Ar   18   0.058   2.340   0.692
    1   AR   Ar   19   0.830   1.688   0.920
    1   AR   Ar   20   0.874   2.285  -0.791
    1   AR   Ar   21   0.746   0.952   1.884
    1   AR   Ar   22   7.116   2.380   2.680
    1   AR   Ar   23   7.078   1.423   2.429
    1   AR   Ar   24   0.556   2.233   1.778
    1   AR   Ar   25   0.165   1.899   3.672
    1   AR   Ar   26   6.478   2.289   4.408
    1   AR   Ar   27   0.369   1.966   5.231
    1   AR   Ar   28   0.949   2.732   4.050
    1   AR   Ar   29   6.497   1.500   5.085
    1   AR   Ar   30   0.021   2.157   6.228
    1   AR   Ar   31   0.831   1.000   7.128
    1   AR   Ar   32   1.172   2.666   5.880
    1   AR   Ar   33   0.793   3.485  -0.487
    1   AR   Ar   34   0.202   4.991   1.234
    1   AR   Ar   35   0.404   3.274   0.952
    1   AR   Ar   36   1.819   5.749  -0.948
    1   AR   Ar   37   0.122   3.374   2.718
    1   AR   Ar   38   0.346   4.428   2.924
    1   AR   Ar   39   1.286   3.685   3.088
    1   AR   Ar   40   0.857   4.217   1.976
    1   AR   Ar   41   0.964   2.703   3.063
    1   AR   Ar   42   7.088   4.885   4.931
    1   AR   Ar   43   0.296   3.099   5.107
    1   AR   Ar   44   0.557   3.841   3.813
    1   AR   Ar   45   0.109   4.084   5.603
    1   AR   Ar   46   0.008   4.942   6.235
    1   AR   Ar   47   0.562   3.885   6.830
    1   AR   Ar   48   1.224   4.483   6.086
    1   AR   Ar   49   0.258   4.830  -0.431
    1   AR   Ar   50   6.133   5.657   1.249
    1   AR   Ar   51   0.975   4.432   0.738
    1   AR   Ar   52   0.966   5.436   0.314
    1   AR   Ar   53   6.923   5.706   2.060
    1   AR   Ar   54   6.856   6.468   3.712
    1   AR   Ar   55   0.363   5.638   3.053
    1   AR   Ar   56   0.784   5.800   1.539
    1   AR   Ar   57   0.168   4.766   3.903
    1   AR   Ar   58   0.278   5.645   4.347
    1   AR   Ar   59   1.541   6.003   4.644
    1   AR   Ar   60   1.007   6.207   3.765
    1   AR   Ar   61   6.763   5.906   5.883
    1   AR   Ar   62   0.775   5.280   5.548
    1   AR   Ar   63   1.810   5.399   5.711
    1   AR   Ar   64   0.970   6.865   5.086
    1   AR   Ar   65   1.950   6.319   0.008
    1   AR   Ar   66   1.803   1.128   1.017
    1   AR   Ar   67   2.895   5.923   0.102
    1   AR   Ar   68   3.362   1.145   0.812
    1   AR   Ar   69   2.025   0.028   0.826
    1   AR   Ar   70   1.223   0.418   2.777
    1   AR   Ar   71   1.835   6.826   2.139
    1   AR   Ar   72   2.800   0.638   1.549
    1   AR   Ar   73   1.734   6.748   3.182
    1   AR   Ar   74   1.386   1.388   4.620
    1   AR   Ar   75   2.510   0.684   4.423
    1   AR   Ar   76   2.235   1.042   3.480
    1   AR   Ar   77   2.103   0.291   5.457
    1   AR   Ar   78   1.730   0.298   6.492
    1   AR   Ar   79   2.695   0.347   6.816
    1   AR   Ar   80   2.703   1.011   5.843
    1   AR   Ar   81   2.429   1.547   0.081
    1   AR   Ar   82   1.895   3.813   1.224
    1   AR   Ar   83   2.642   1.972   1.836
    1   AR   Ar   84   1.746   3.016  -0.728
    1   AR   Ar   85   1.581   1.909   1.649
    1   AR   Ar   86   1.992   2.721   2.504
    1   AR   Ar   87   2.051   1.259   2.358
    1   AR   Ar   88   2.774   2.998   1.501
    1   AR   Ar   89   1.035   1.671   2.522
    1   AR   Ar   90   2.689   3.154   4.879
    1   AR   Ar   91   2.763   1.948   4.526
    1   AR   Ar   92   1.717   2.079   3.338
    1   AR   Ar   93   1.715   1.827   5.645
    1   AR   Ar   94   2.431   2.383   6.879
    1   AR   Ar   95   2.398   1.314   7.221
    1   AR   Ar   96   2.537   2.573   5.714
    1   AR   Ar   97   2.143   4.063  -0.237
    1   AR   Ar   98   2.796   4.269   1.602
    1   AR   Ar   99   3.016   3.199  -0.756
    1   AR   Ar  100   2.567   5.031  -0.228
    1   AR   Ar  101   1.221   3.026   1.661
    1   AR   Ar  102   1.964   4.351   3.461
    1   AR   Ar  103   1.813   4.022   2.316
    1   AR   Ar  104   3.001   4.225   0.430
    1   AR   Ar  105   1.934   3.016   3.663
    1   AR   Ar  106   1.825   4.080   4.474
    1   AR   Ar  107   2.662   4.287   5.106
    1   AR   Ar  108   2.960   3.860   3.975
    1   AR   Ar  109   0.878   4.128   4.900
    1   AR   Ar  110   1.748   3.716   5.460
    1   AR   Ar  111   3.214   4.951   6.576
    1   AR   Ar  112   2.220   3.908   6.389
    1   AR   Ar  113   1.990   4.888   0.604
    1   AR   Ar  114   1.743   6.068   0.966
    1   AR   Ar  115   3.194   5.501   0.936
    1   AR   Ar  116   2.566   0.171  -0.522
    1   AR   Ar  117   1.388   4.794   2.816
    1   AR   Ar  118   1.427   5.847   2.708
    1   AR   Ar  119   2.585   4.816   2.604
    1   AR   Ar  120   2.017   5.137   1.786
    1   AR   Ar  121   1.175   5.240   3.843
    1   AR   Ar  122   2.355   6.529   4.291
    1   AR   Ar  123   2.435   5.322   4.656
    1   AR   Ar  124   2.587   6.159   2.771
    1   AR   Ar  125   1.463   4.962   4.892
    1   AR   Ar  126   1.393   6.441   6.004
    1   AR   Ar  127   2.372   5.874   7.343
    1   AR   Ar  128   2.547   6.623   5.806
    1   AR   Ar  129   3.247   6.932   0.752
    1   AR   Ar  130   4.260   0.472  -0.351
    1   AR   Ar  131   4.271   6.990   0.745
    1   AR   Ar  132   4.334   1.537  -0.801
    1   AR   Ar  133   3.653   7.037   2.647
    1   AR   Ar  134   3.010   0.758   2.508
    1   AR   Ar  135   4.971   0.146   2.835
    1   AR   Ar  136   3.760   0.269   1.554
    1   AR   Ar  137   2.716   0.026   3.479
    1   AR   Ar  138   3.773   1.171   4.547
    1   AR   Ar  139   3.965   0.018   4.097
    1   AR   Ar  140   4.254   0.969   3.479
    1   AR   Ar  141   3.067   7.023   4.830
    1   AR   Ar  142   3.823   0.881   6.159
    1   AR   Ar  143   4.511   6.519   6.158
    1   AR   Ar  144   4.983   1.288   6.359
    1   AR   Ar  145   2.856   2.224   0.708
    1   AR   Ar  146   3.991   2.901   1.268
    1   AR   Ar  147   4.474   1.913   0.756
    1   AR   Ar  148   5.845   2.563  -0.409
    1   AR   Ar  149   3.613   1.859   1.542
    1   AR   Ar  150   2.842   1.977   2.848
    1   AR   Ar  151   4.001   1.975   2.962
    1   AR   Ar  152   3.479   2.661   2.255
    1   AR   Ar  153   3.182   1.453   3.665
    1   AR   Ar  154   3.964   2.503   4.221
    1   AR   Ar  155   4.383   1.813   5.108
    1   AR   Ar  156   4.882   3.770   4.197
    1   AR   Ar  157   3.459   2.248   5.337
    1   AR   Ar  158   3.384   2.053   6.328
    1   AR   Ar  159   4.093   1.542   6.859
    1   AR   Ar  160   4.408   2.955   5.449
    1   AR   Ar  161   4.380   3.094  -0.300
    1   AR   Ar  162   4.197   4.656   0.407
    1   AR   Ar  163   4.810   3.474   0.703
    1   AR   Ar  164   5.474   4.614   0.787
    1   AR   Ar  165   3.634   3.662   2.498
    1   AR   Ar  166   3.534   4.481   3.151
    1   AR   Ar  167   4.362   3.098   3.226
    1   AR   Ar  168   3.842   3.979   1.419
    1   AR   Ar  169   2.905   2.921   3.263
    1   AR   Ar  170   3.305   4.892   4.145
    1   AR   Ar  171   3.579   3.778   4.770
    1   AR   Ar  172   4.301   4.674   4.391
    1   AR   Ar  173   3.313   3.330   6.056
    1   AR   Ar  174   3.991   5.659   6.139
    1   AR   Ar  175   3.905   4.152   6.324
    1   AR   Ar  176   3.632   4.778   5.142
    1   AR   Ar  177   5.301   5.885   0.706
    1   AR   Ar  178   3.827   6.326   1.574
    1   AR   Ar  179   4.618   5.364   1.454
    1   AR   Ar  180   4.134   6.103  -0.156
    1   AR   Ar  181   3.310   5.184   1.963
    1   AR   Ar  182   2.381   6.101   1.710
    1   AR   Ar  183   4.215   4.947   2.436
    1   AR   Ar  184   4.342   6.130   2.403
    1   AR   Ar  185   2.286   5.416   3.503
    1   AR   Ar  186   3.107   5.925   3.947
    1   AR   Ar  187   4.579   5.205   3.351
    1   AR   Ar  188   3.530   5.584   2.883
    1   AR   Ar  189   2.837   5.249   5.723
    1   AR   Ar  190   3.842   7.086   6.945
    1   AR   Ar  191   4.710   5.862   5.232
    1   AR   Ar  192   3.832   6.588   5.521
    1   AR   Ar  193   5.398   0.104   0.062
    1   AR   Ar  194   4.787   0.935   0.347
    1   AR   Ar  195   5.994   1.182   0.763
    1   AR   Ar  196   5.710   1.306  -0.233
    1   AR   Ar  197   5.012   0.371   1.427
    1   AR   Ar  198   5.186   1.325   1.775
    1   AR   Ar  199   6.253   0.762   2.286
    1   AR   Ar  200   6.701   1.742   1.372
    1   AR   Ar  201   4.579   6.466   3.414
    1   AR   Ar  202   4.941   1.044   4.338
    1   AR   Ar  203   6.905   6.420   4.871
    1   AR   Ar  204   6.578   0.267   3.659
    1   AR   Ar  205   5.037   7.062   4.568
    1   AR   Ar  206   5.431   6.934   5.475
    1   AR   Ar  207   6.644   6.967   6.063
    1   AR   Ar  208   6.114   0.625   4.625
    1   AR   Ar  209   7.006   2.510  -0.448
    1   AR   Ar  210   5.271   2.525   1.340
    1   AR   Ar  211   6.222   2.341   0.554
    1   AR   Ar  212   6.680   3.469  -0.091
    1   AR   Ar  213   4.678   2.272   2.330
    1   AR   Ar  214   4.675   3.434   2.167
    1   AR   Ar  215   6.073   1.835   2.312
    1   AR   Ar  216   6.453   2.738   1.665
    1   AR   Ar  217   4.838   2.075   3.446
    1   AR   Ar  218   5.200   2.032   4.402
    1   AR   Ar  219   5.772   1.407   3.584
    1   AR   Ar  220   5.997   2.706   2.999
    1   AR   Ar  221   5.438   1.222   5.398
    1   AR   Ar  222   4.702   2.236   6.096
    1   AR   Ar  223   6.850   1.342   7.064
    1   AR   Ar  224   6.415   2.665   5.326
    1   AR   Ar  225   4.970   3.999  -0.109
    1   AR   Ar  226   5.121   4.556   2.088
    1   AR   Ar  227   6.780   3.794   1.831
    1   AR   Ar  228   6.458   5.293   0.236
    1   AR   Ar  229   6.058   3.360   0.729
    1   AR   Ar  230   4.441   4.178   3.270
    1   AR   Ar  231   6.908   3.193   3.818
    1   AR   Ar  232   5.551   3.731   1.538
    1   AR   Ar  233   5.668   2.940   4.231
    1   AR   Ar  234   5.707   4.264   4.521
    1   AR   Ar  235   6.819   3.965   4.543
    1   AR   Ar  236   6.232   3.898   3.462
    1   AR   Ar  237   5.496   3.131   5.223
    1   AR   Ar  238   4.867   4.617   6.370
    1   AR   Ar  239   5.545   3.566   7.624
    1   AR   Ar  240   6.075   3.875   5.773
    1   AR   Ar  241   6.709   0.214   0.030
    1   AR   Ar  242   5.085   6.415   1.604
    1   AR   Ar  243   6.452   4.765   2.009
    1   AR   Ar  244   6.108   0.168   0.889
    1   AR   Ar  245   5.285   5.689   2.577
    1   AR   Ar  246   6.024   6.421   3.154
    1   AR   Ar  247   5.622   3.582   2.601
    1   AR   Ar  248   5.971   6.426   2.162
    1   AR   Ar  249   6.307   5.385   2.822
    1   AR   Ar  250   4.962   5.817   4.069
    1   AR   Ar  251   6.104   5.049   3.959
    1   AR   Ar  252   6.009   6.080   4.100
    1   AR   Ar  253   5.063   4.911   5.064
    1   AR   Ar  254   5.609   5.594   6.140
    1   AR   Ar  255   6.238   5.009   5.580
    1   AR   Ar  256   5.876   6.057   5.212
    7.12000  7.12000 12.00000
Argon-slab step 600
  256
    1   AR   Ar    1   0.985   0.934  -0.831
    1   AR   Ar    2   0.120   0.898   0.924
    1   AR   Ar    3   0.718   6.738   0.641
    1   AR   Ar    4   1.365   0.286   0.000
    1   AR   Ar    5   0.059   6.829   1.604
    1   AR   Ar    6   0.229   0.439   2.867
    1   AR   Ar    7   0.866   6.634   2.281
    1   AR   Ar    8   1.145   0.176   1.391
    1   AR   Ar    9   0.480   0.051   4.036
    1   AR   Ar   10   0.086   1.016   4.205
    1   AR   Ar   11   1.629   0.278   4.271
    1   AR   Ar   12   1.021   1.043   3.725
    1   AR   Ar   13   0.110   0.399   5.244
    1   AR   Ar   14   0.305   1.041   6.098
    1   AR   Ar   15   1.744   0.124   7.521
    1   AR   Ar   16   1.273   0.828   5.616
    1   AR   Ar   17   6.714   1.436   0.026
    1   AR   Ar   18   0.062   2.372   0.653
    1   AR   Ar   19   0.827   1.730   0.914
    1   AR   Ar   20   0.875   2.258  -0.801
    1   AR   Ar   21   0.713   0.927   1.914
    1   AR   Ar   22   7.109   2.370   2.685
    1   AR   Ar   23   7.088   1.430   2.434
    1   AR   Ar   24   0.555   2.232   1.772
    1   AR   Ar   25   0.196   1.904   3.675
    1   AR   Ar   26   6.489   2.287   4.387
    1   AR   Ar   27   0.380   1.959   5.242
    1   AR   Ar   28   0.947   2.741   4.049
    1   AR   Ar   29   6.504   1.454   5.114
    1   AR   Ar   30   0.013   2.163   6.231
    1   AR   Ar   31   0.852   1.025   7.119
    1   AR   Ar   32   1.123   2.678   5.878
    1   AR   Ar   33   0.776   3.513  -0.489
    1   AR   Ar   34   0.196   5.000   1.239
    1   AR   Ar   35   0.416   3.282   0.949
    1   AR   Ar   36   1.810   5.764  -0.956
    1   AR   Ar   37   0.112   3.366   2.698
    1   AR   Ar   38   0.366   4.415   2.914
    1   AR   Ar   39   1.300   3.709   3.089
    1   AR   Ar   40   0.908   4.240   1.947
    1   AR   Ar   41   0.956   2.695   3.092
    1   AR   Ar   42   7.094   4.865   4.955
    1   AR   Ar   43   0.325   3.110   5.052
    1   AR   Ar   44   0.547   3.845   3.781
    1   AR   Ar   45   0.079   4.102   5.583
    1   AR   Ar   46   0.016   4.926   6.263
    1   AR   Ar   47   0.537   3.881   6.805
    1   AR   Ar   48   1.209   4.499   6.095
    1   AR   Ar   49   0.267   4.822  -0.461
    1   AR   Ar   50   6.112   5.639   1.243
    1   AR   Ar   51   0.979   4.421   0.737
    1   AR   Ar   52   0.940   5.408   0.332
    1   AR   Ar   53   6.934   5.713   2.070
    1   AR   Ar   54   6.898   6.468   3.713
    1   AR   Ar   55   0.373   5.647   3.035
    1   AR   Ar   56   0.804   5.838   1.556
    1   AR   Ar   57   0.165   4.751   3.890
    1   AR   Ar   58   0.266   5.650   4.314
    1   AR   Ar   59   1.534   6.037   4.667
    1   AR   Ar   60   1.015   6.191   3.794
    1   AR   Ar   61   6.772   5.900   5.866
    1   AR   Ar   62   0.815   5.299   5.558
    1   AR   Ar   63   1.824   5.412   5.667
    1   AR   Ar   64   0.942   6.912   5.071
    1   AR   Ar   65   1.949   6.308  -0.005
    1   AR   Ar   66   1.810   1.118   1.026
    1   AR   Ar   67   2.873   5.927   0.094
    1   AR   Ar   68   3.395   1.137   0.838
    1   AR   Ar   69   1.993   0.019   0.846
    1   AR   Ar   70   1.189   0.404   2.750
    1   AR   Ar   71   1.855   6.846   2.107
    1   AR   Ar   72   2.802   0.612   1.550
    1   AR   Ar   73   1.723   6.744   3.163
    1   AR   Ar   74   1.382   1.394   4.619
    1   AR   Ar   75   2.506   0.656   4.454
    1   AR   Ar   76   2.236   1.022   3.469
    1   AR   Ar   77   2.068   0.297   5.467
    1   AR   Ar   78   1.705   0.302   6.473
    1   AR   Ar   79   2.723   0.315   6.824
    1   AR   Ar   80   2.700   1.004   5.860
    1   AR   Ar   81   2.437   1.550   0.092
    1   AR   Ar   82   1.928   3.831   1.239
    1   AR   Ar   83   2.638   1.971   1.888
    1   AR   Ar   84   1.727   3.028  -0.746
    1   AR   Ar   85   1.578   1.901   1.655
    1   AR   Ar   86   1.959   2.726   2.483
    1   AR   Ar   87   2.018   1.252   2.367
    1   AR   Ar   88   2.775   2.981   1.482
    1   AR   Ar   89   1.054   1.673   2.506
    1   AR   Ar   90   2.707   3.108   4.908
    1   AR   Ar   91   2.775   1.982   4.543
    1   AR   Ar   92   1.688   2.052   3.308
    1   AR   Ar   93   1.714   1.822   5.667
    1   AR   Ar   94   2.424   2.355   6.875
    1   AR   Ar   95   2.389   1.314   7.240
    1   AR   Ar   96   2.578   2.552   5.685
    1   AR   Ar   97   2.120   4.068  -0.278
    1   AR   Ar   98   2.817   4.272   1.605
    1   AR   Ar   99   3.023   3.200  -0.777
    1   AR   Ar  100   2.591   4.999  -0.220
    1   AR   Ar  101   1.264   3.016   1.681
    1   AR   Ar  102   1.992   4.367   3.460
    1   AR   Ar  103   1.823   4.017   2.288
    1   AR   Ar  104   3.001   4.226   0.436
    1   AR   Ar  105   1.956   3.022   3.686
    1   AR   Ar  106   1.822   4.107   4.474
    1   AR   Ar  107   2.687   4.274   5.088
    1   AR   Ar  108   2.969   3.832   3.953
    1   AR   Ar  109   0.844   4.123   4.898
    1   AR   Ar  110   1.737   3.691   5.459
    1   AR   Ar  111   3.203   4.943   6.599
    1   AR   Ar  112   2.206   3.878   6.365
    1   AR   Ar  113   1.974   4.890   0.581
    1   AR   Ar  114   1.742   6.060   0.959
    1   AR   Ar  115   3.222   5.490   0.917
    1   AR   Ar  116   2.567   0.131  -0.495
    1   AR   Ar  117   1.390   4.819   2.802
    1   AR   Ar  118   1.442   5.858   2.704
    1   AR   Ar  119   2.573   4.804   2.594
    1   AR   Ar  120   2.069   5.120   1.771
    1   AR   Ar  121   1.173   5.227   3.790
    1   AR   Ar  122   2.385   6.529   4.307
    1   AR   Ar  123   2.444   5.318   4.673
    1   AR   Ar  124   2.566   6.185   2.778
    1   AR   Ar  125   1.454   4.933   4.857
    1   AR   Ar  126   1.407   6.435   6.021
    1   AR   Ar  127   2.352   5.916   7.359
    1   AR   Ar  128   2.548   6.653   5.831
    1   AR   Ar  129   3.256   6.889   0.756
    1   AR   Ar  130   4.225   0.458  -0.373
    1   AR   Ar  131   4.251   6.985   0.750
    1   AR   Ar  132   4.358   1.567  -0.821
    1   AR   Ar  133   3.671   7.062   2.656
    1   AR   Ar  134   2.951   0.752   2.521
    1   AR   Ar  135   4.964   0.142   2.825
    1   AR   Ar  136   3.763   0.293   1.558
    1   AR   Ar  137   2.748   0.021   3.445
    1   AR   Ar  138   3.775   1.190   4.553
    1   AR   Ar  139   4.017   0.023   4.090
    1   AR   Ar  140   4.266   0.984   3.474
    1   AR   Ar  141   3.081   7.036   4.811
    1   AR   Ar  142   3.845   0.840   6.140
    1   AR   Ar  143   4.554   6.532   6.151
    1   AR   Ar  144   4.993   1.286   6.380
    1   AR   Ar  145   2.832   2.260   0.701
    1   AR   Ar  146   4.026   2.917   1.241
    1   AR   Ar  147   4.471   1.897   0.762
    1   AR   Ar  148   5.863   2.598  -0.404
    1   AR   Ar  149   3.642   1.893   1.560
    1   AR   Ar  150   2.828   1.977   2.857
    1   AR   Ar  151   4.003   1.993   2.974
    1   AR   Ar  152   3.474   2.651   2.260
    1   AR   Ar  153   3.208   1.424   3.679
    1   AR   Ar  154   3.950   2.489   4.229
    1   AR   Ar  155   4.423   1.800   5.148
    1   AR   Ar  156   4.901   3.767   4.203
    1   AR   Ar  157   3.464   2.220   5.341
    1   AR   Ar  158   3.372   2.082   6.353
    1   AR   Ar  159   4.071   1.559   6.849
    1   AR   Ar  160   4.421   2.960   5.444
    1   AR   Ar  161   4.375   3.102  -0.308
    1   AR   Ar  162   4.221   4.651   0.407
    1   AR   Ar  163   4.845   3.472   0.720
    1   AR   Ar  164   5.464   4.606   0.824
    1   AR   Ar  165   3.643   3.667   2.472
    1   AR   Ar  166   3.529   4.516   3.188
    1   AR   Ar  167   4.392   3.101   3.220
    1   AR   Ar  168   3.844   3.953   1.416
    1   AR   Ar  169   2.904   2.905   3.242
    1   AR   Ar  170   3.291   4.868   4.135
    1   AR   Ar  171   3.607   3.779   4.784
    1   AR   Ar  172   4.266   4.689   4.391
    1   AR   Ar  173   3.332   3.327   6.048
    1   AR   Ar  174   3.938   5.650   6.117
    1   AR   Ar  175   3.911   4.136   6.326
    1   AR   Ar  176   3.590   4.775   5.170
    1   AR   Ar  177   5.334   5.883   0.698
    1   AR   Ar  178   3.828   6.330   1.578
    1   AR   Ar  179   4.613   5.364   1.470
    1   AR   Ar  180   4.139   6.084  -0.152
    1   AR   Ar  181   3.348   5.202   1.937
    1   AR   Ar  182   2.392   6.088   1.710
    1   AR   Ar  183   4.193   4.955   2.441
    1   AR   Ar  184   4.301   6.140   2.391
    1   AR   Ar  185   2.259   5.407   3.502
    1   AR   Ar  186   3.098   5.910   3.963
    1   AR   Ar  187   4.580   5.215   3.328
    1   AR   Ar  188   3.515   5.590   2.911
    1   AR   Ar  189   2.826   5.239   5.674
    1   AR   Ar  190   3.833   7.091   6.925
    1   AR   Ar  191   4.685   5.871   5.234
    1   AR   Ar  192   3.823   6.544   5.543
    1   AR   Ar  193   5.413   0.114   0.039
    1   AR   Ar  194   4.812   0.914   0.310
    1   AR   Ar  195   5.987   1.209   0.764
    1   AR   Ar  196   5.732   1.305  -0.240
    1   AR   Ar  197   5.001   0.399   1.421
    1   AR   Ar  198   5.183   1.301   1.798
    1   AR   Ar  199   6.291   0.735   2.287
    1   AR   Ar  200   6.689   1.750   1.398
    1   AR   Ar  201   4.565   6.452   3.405
    1   AR   Ar  202   4.976   1.031   4.312
    1   AR   Ar  203   6.918   6.407   4.872
    1   AR   Ar  204   6.573   0.288   3.642
    1   AR   Ar  205   5.043   7.044   4.569
    1   AR   Ar  206   5.441   6.940   5.461
    1   AR   Ar  207   6.661   6.968   6.069
    1   AR   Ar  208   6.097   0.613   4.615
    1   AR   Ar  209   6.985   2.496  -0.458
    1   AR   Ar  210   5.247   2.534   1.338
    1   AR   Ar  211   6.206   2.370   0.567
    1   AR   Ar  212   6.695   3.469  -0.076
    1   AR   Ar  213   4.689   2.270   2.335
    1   AR   Ar  214   4.672   3.408   2.186
    1   AR   Ar  215   6.045   1.861   2.321
    1   AR   Ar  216   6.464   2.766   1.681
    1   AR   Ar  217   4.852   2.086   3.407
    1   AR   Ar  218   5.187   2.036   4.390
    1   AR   Ar  219   5.745   1.386   3.585
    1   AR   Ar  220   6.019   2.746   2.995
    1   AR   Ar  221   5.453   1.172   5.396
    1   AR   Ar  222   4.706   2.258   6.101
    1   AR   Ar  223   6.857   1.349   7.069
    1   AR   Ar  224   6.409   2.646   5.297
    1   AR   Ar  225   4.963   4.003  -0.095
    1   AR   Ar  226   5.163   4.569   2.104
    1   AR   Ar  227   6.766   3.792   1.841
    1   AR   Ar  228   6.481   5.276   0.255
    1   AR   Ar  229   6.054   3.350   0.718
    1   AR   Ar  230   4.440   4.187   3.279
    1   AR   Ar  231   6.923   3.179   3.825
    1   AR   Ar  232   5.545   3.719   1.517
    1   AR   Ar  233   5.669   2.926   4.230
    1   AR   Ar  234   5.715   4.278   4.554
    1   AR   Ar  235   6.826   3.988   4.552
    1   AR   Ar  236   6.206   3.855   3.466
    1   AR   Ar  237   5.486   3.135   5.204
    1   AR   Ar  238   4.864   4.633   6.367
    1   AR   Ar  239   5.554   3.574   7.652
    1   AR   Ar  240   6.119   3.873   5.785
    1   AR   Ar  241   6.680   0.210   0.053
    1   AR   Ar  242   5.087   6.404   1.648
    1   AR   Ar  243   6.431   4.771   2.005
    1   AR   Ar  244   6.129   0.169   0.889
    1   AR   Ar  245   5.335   5.670   2.553
    1   AR   Ar  246   6.012   6.421   3.136
    1   AR   Ar  247   5.614   3.572   2.567
    1   AR   Ar  248   5.968   6.427   2.186
    1   AR   Ar  249   6.319   5.411   2.839
    1   AR   Ar  250   4.930   5.801   4.050
    1   AR   Ar  251   6.082   5.006   3.966
    1   AR   Ar  252   6.011   6.082   4.098
    1   AR   Ar  253   5.036   4.896   5.048
    1   AR   Ar  254   5.641   5.599   6.113
    1   AR   Ar  255   6.295   5.005   5.588
    1   AR   Ar  256   5.890   6.070   5.238
    7.12000  7.12000 12.00000
Argon-slab step 605
  256
    1   AR   Ar    1   0.996   0.963  -0.850
    1   AR   Ar    2   0.164   0.897   0.920
    1   AR   Ar    3   0.709   6.774   0.646
    1   AR   Ar    4   1.333   0.278   0.003
    1   AR   Ar    5   0.026   6.810   1.584
    1   AR   Ar    6   0.227   0.465   2.851
    1   AR   Ar    7   0.832   6.636   2.281
    1   AR   Ar    8   1.139   0.188   1.381
    1   AR   Ar    9   0.506   0.055   4.022
    1   AR   Ar   10   0.094   1.049   4.227
    1   AR   Ar   11   1.650   0.275   4.267
    1   AR   Ar   12   1.024   1.058   3.730
    1   AR   Ar   13   0.103   0.398   5.234
    1   AR   Ar   14   0.292   1.062   6.097
    1   AR   Ar   15   1.739   0.101   7.485
    1   AR   Ar   16   1.246   0.825   5.609
    1   AR   Ar   17   6.713   1.430   0.064
    1   AR   Ar   18   0.073   2.403   0.613
    1   AR   Ar   19   0.828   1.767   0.905
    1   AR   Ar   20   0.878   2.230  -0.811
    1   AR   Ar   21   0.677   0.901   1.939
    1   AR   Ar   22   7.099   2.366   2.694
    1   AR   Ar   23   7.096   1.427   2.437
    1   AR   Ar   24   0.547   2.233   1.768
    1   AR   Ar   25   0.229   1.913   3.677
    1   AR   Ar   26   6.505   2.277   4.344
    1   AR   Ar   27   0.393   1.951   5.251
    1   AR   Ar   28   0.942   2.752   4.067
    1   AR   Ar   29   6.513   1.410   5.144
    1   AR   Ar   30   0.005   2.168   6.234
    1   AR   Ar   31   0.874   1.048   7.109
    1   AR   Ar   32   1.072   2.692   5.876
    1   AR   Ar   33   0.757   3.541  -0.490
    1   AR   Ar   34   0.190   5.007   1.244
    1   AR   Ar   35   0.429   3.297   0.948
    1   AR   Ar   36   1.801   5.779  -0.963
    1   AR   Ar   37   0.114   3.391   2.734
    1   AR   Ar   38   0.385   4.404   2.898
    1   AR   Ar   39   1.299   3.726   3.084
    1   AR   Ar   40   0.951   4.264   1.915
    1   AR   Ar   41   0.941   2.691   3.099
    1   AR   Ar   42   7.105   4.858   4.976
    1   AR   Ar   43   0.354   3.120   4.995
    1   AR   Ar   44   0.547   3.843   3.753
    1   AR   Ar   45   0.048   4.110   5.574
    1   AR   Ar   46   0.025   4.911   6.292
    1   AR   Ar   47   0.511   3.879   6.778
    1   AR   Ar   48   1.196   4.512   6.105
    1   AR   Ar   49   0.276   4.814  -0.490
    1   AR   Ar   50   6.101   5.616   1.247
    1   AR   Ar   51   0.984   4.405   0.738
    1   AR   Ar   52   0.915   5.383   0.350
    1   AR   Ar   53   6.947   5.724   2.076
    1   AR   Ar   54   6.948   6.457   3.714
    1   AR   Ar   55   0.384   5.656   3.019
    1   AR   Ar   56   0.825   5.877   1.573
    1   AR   Ar   57   0.155   4.739   3.875
    1   AR   Ar   58   0.256   5.662   4.282
    1   AR   Ar   59   1.526   6.068   4.696
    1   AR   Ar   60   1.019   6.191   3.816
    1   AR   Ar   61   6.784   5.896   5.850
    1   AR   Ar   62   0.842   5.323   5.567
    1   AR   Ar   63   1.839   5.429   5.629
    1   AR   Ar   64   0.918   6.925   5.051
    1   AR   Ar   65   1.941   6.304  -0.023
    1   AR   Ar   66   1.818   1.103   1.033
    1   AR   Ar   67   2.874   5.941   0.080
    1   AR   Ar   68   3.428   1.129   0.862
    1   AR   Ar   69   1.969   0.008   0.864
    1   AR   Ar   70   1.171   0.398   2.720
    1   AR   Ar   71   1.877   6.873   2.075
    1   AR   Ar   72   2.797   0.578   1.553
    1   AR   Ar   73   1.714   6.742   3.151
    1   AR   Ar   74   1.409   1.407   4.648
    1   AR   Ar   75   2.512   0.640   4.486
    1   AR   Ar   76   2.233   1.002   3.455
    1   AR   Ar   77   2.037   0.302   5.462
    1   AR   Ar   78   1.679   0.307   6.453
    1   AR   Ar   79   2.753   0.283   6.832
    1   AR   Ar   80   2.700   1.002   5.880
    1   AR   Ar   81   2.442   1.546   0.100
    1   AR   Ar   82   1.959   3.850   1.252
    1   AR   Ar   83   2.641   1.977   1.892
    1   AR   Ar   84   1.710   3.041  -0.764
    1   AR   Ar   85   1.577   1.900   1.659
    1   AR   Ar   86   1.927   2.731   2.463
    1   AR   Ar   87   1.986   1.243   2.379
    1   AR   Ar   88   2.776   2.969   1.465
    1   AR   Ar   89   1.070   1.678   2.502
    1   AR   Ar   90   2.727   3.074   4.922
    1   AR   Ar   91   2.787   2.015   4.558
    1   AR   Ar   92   1.667   2.016   3.280
    1   AR   Ar   93   1.716   1.816   5.688
    1   AR   Ar   94   2.417   2.327   6.869
    1   AR   Ar   95   2.380   1.312   7.257
    1   AR   Ar   96   2.609   2.524   5.674
    1   AR   Ar   97   2.096   4.069  -0.318
    1   AR   Ar   98   2.839   4.277   1.609
    1   AR   Ar   99   3.029   3.203  -0.798
    1   AR   Ar  100   2.617   4.967  -0.218
    1   AR   Ar  101   1.307   3.009   1.700
    1   AR   Ar  102   2.023   4.383   3.461
    1   AR   Ar  103   1.849   4.010   2.257
    1   AR   Ar  104   3.001   4.227   0.445
    1   AR   Ar  105   1.977   3.032   3.711
    1   AR   Ar  106   1.825   4.121   4.467
    1   AR   Ar  107   2.708   4.260   5.070
    1   AR   Ar  108   2.973   3.804   3.929
    1   AR   Ar  109   0.807   4.115   4.893
    1   AR   Ar  110   1.724   3.663   5.454
    1   AR   Ar  111   3.192   4.935   6.625
    1   AR   Ar  112   2.195   3.849   6.344
    1   AR   Ar  113   1.955   4.893   0.565
    1   AR   Ar  114   1.732   6.050   0.951
    1   AR   Ar  115   3.252   5.474   0.905
    1   AR   Ar  116   2.580   0.121  -0.483
    1   AR   Ar  117   1.386   4.848   2.784
    1   AR   Ar  118   1.460   5.867   2.698
    1   AR   Ar  119   2.555   4.799   2.576
    1   AR   Ar  120   2.114   5.098   1.750
    1   AR   Ar  121   1.174   5.199   3.739
    1   AR   Ar  122   2.403   6.531   4.321
    1   AR   Ar  123   2.453   5.316   4.686
    1   AR   Ar  124   2.546   6.212   2.785
    1   AR   Ar  125   1.445   4.915   4.815
    1   AR   Ar  126   1.422   6.429   6.035
    1   AR   Ar  127   2.327   5.915   7.367
    1   AR   Ar  128   2.556   6.672   5.861
    1   AR   Ar  129   3.254   6.845   0.760
    1   AR   Ar  130   4.202   0.460  -0.415
    1   AR   Ar  131   4.244   6.979   0.750
    1   AR   Ar  132   4.383   1.596  -0.839
    1   AR   Ar  133   3.689   7.085   2.666
    1   AR   Ar  134   2.895   0.748   2.546
    1   AR   Ar  135   4.958   0.142   2.816
    1   AR   Ar  136   3.761   0.314   1.549
    1   AR   Ar  137   2.782   0.016   3.411
    1   AR   Ar  138   3.777   1.206   4.558
    1   AR   Ar  139   4.067   0.028   4.082
    1   AR   Ar  140   4.278   0.999   3.469
    1   AR   Ar  141   3.108   7.047   4.799
    1   AR   Ar  142   3.865   0.796   6.117
    1   AR   Ar  143   4.615   6.546   6.158
    1   AR   Ar  144   5.004   1.280   6.401
    1   AR   Ar  145   2.813   2.297   0.699
    1   AR   Ar  146   4.062   2.930   1.215
    1   AR   Ar  147   4.467   1.881   0.770
    1   AR   Ar  148   5.881   2.634  -0.400
    1   AR   Ar  149   3.676   1.925   1.577
    1   AR   Ar  150   2.812   1.969   2.872
    1   AR   Ar  151   3.977   2.006   2.987
    1   AR   Ar  152   3.469   2.641   2.268
    1   AR   Ar  153   3.237   1.394   3.694
    1   AR   Ar  154   3.936   2.474   4.237
    1   AR   Ar  155   4.467   1.787   5.188
    1   AR   Ar  156   4.915   3.760   4.207
    1   AR   Ar  157   3.477   2.192   5.338
    1   AR   Ar  158   3.355   2.114   6.377
    1   AR   Ar  159   4.084   1.560   6.851
    1   AR   Ar  160   4.429   2.971   5.433
    1   AR   Ar  161   4.388   3.123  -0.304
    1   AR   Ar  162   4.244   4.646   0.410
    1   AR   Ar  163   4.877   3.463   0.747
    1   AR   Ar  164   5.452   4.599   0.861
    1   AR   Ar  165   3.653   3.675   2.448
    1   AR   Ar  166   3.510   4.555   3.221
    1   AR   Ar  167   4.421   3.102   3.214
    1   AR   Ar  168   3.848   3.929   1.412
    1   AR   Ar  169   2.906   2.897   3.221
    1   AR   Ar  170   3.270   4.845   4.128
    1   AR   Ar  171   3.638   3.776   4.799
    1   AR   Ar  172   4.235   4.702   4.384
    1   AR   Ar  173   3.348   3.318   6.036
    1   AR   Ar  174   3.883   5.637   6.094
    1   AR   Ar  175   3.918   4.124   6.326
    1   AR   Ar  176   3.556   4.773   5.203
    1   AR   Ar  177   5.356   5.884   0.682
    1   AR   Ar  178   3.819   6.336   1.566
    1   AR   Ar  179   4.608   5.364   1.486
    1   AR   Ar  180   4.143   6.067  -0.147
    1   AR   Ar  181   3.382   5.222   1.906
    1   AR   Ar  182   2.416   6.075   1.713
    1   AR   Ar  183   4.177   4.957   2.441
    1   AR   Ar  184   4.269   6.146   2.393
    1   AR   Ar  185   2.230   5.399   3.500
    1   AR   Ar  186   3.096   5.893   3.976
    1   AR   Ar  187   4.581   5.227   3.307
    1   AR   Ar  188   3.497   5.599   2.945
    1   AR   Ar  189   2.816   5.232   5.624
    1   AR   Ar  190   3.824   7.095   6.903
    1   AR   Ar  191   4.660   5.884   5.236
    1   AR   Ar  192   3.796   6.503   5.548
    1   AR   Ar  193   5.430   0.122   0.017
    1   AR   Ar  194   4.818   0.913   0.294
    1   AR   Ar  195   5.987   1.225   0.759
    1   AR   Ar  196   5.747   1.305  -0.251
    1   AR   Ar  197   4.989   0.418   1.410
    1   AR   Ar  198   5.180   1.320   1.842
    1   AR   Ar  199   6.328   0.707   2.288
    1   AR   Ar  200   6.678   1.756   1.425
    1   AR   Ar  201   4.547   6.444   3.390
    1   AR   Ar  202   5.010   1.012   4.287
    1   AR   Ar  203   6.929   6.397   4.873
    1   AR   Ar  204   6.563   0.318   3.624
    1   AR   Ar  205   5.058   7.030   4.570
    1   AR   Ar  206   5.453   6.951   5.460
    1   AR   Ar  207   6.678   6.970   6.074
    1   AR   Ar  208   6.078   0.599   4.603
    1   AR   Ar  209   6.959   2.472  -0.468
    1   AR   Ar  210   5.224   2.544   1.336
    1   AR   Ar  211   6.178   2.388   0.581
    1   AR   Ar  212   6.713   3.469  -0.064
    1   AR   Ar  213   4.709   2.273   2.330
    1   AR   Ar  214   4.664   3.381   2.200
    1   AR   Ar  215   6.018   1.898   2.334
    1   AR   Ar  216   6.474   2.794   1.696
    1   AR   Ar  217   4.882   2.098   3.374
    1   AR   Ar  218   5.175   2.040   4.383
    1   AR   Ar  219   5.718   1.366   3.586
    1   AR   Ar  220   6.046   2.782   2.994
    1   AR   Ar  221   5.467   1.121   5.391
    1   AR   Ar  222   4.710   2.276   6.110
    1   AR   Ar  223   6.869   1.359   7.102
    1   AR   Ar  224   6.406   2.630   5.280
    1   AR   Ar  225   4.959   4.014  -0.092
    1   AR   Ar  226   5.156   4.570   2.092
    1   AR   Ar  227   6.753   3.788   1.849
    1   AR   Ar  228   6.504   5.258   0.274
    1   AR   Ar  229   6.047   3.346   0.709
    1   AR   Ar  230   4.453   4.187   3.289
    1   AR   Ar  231   6.935   3.155   3.831
    1   AR   Ar  232   5.537   3.709   1.500
    1   AR   Ar  233   5.671   2.919   4.220
    1   AR   Ar  234   5.728   4.285   4.593
    1   AR   Ar  235   6.830   4.004   4.557
    1   AR   Ar  236   6.179   3.814   3.472
    1   AR   Ar  237   5.471   3.143   5.190
    1   AR   Ar  238   4.878   4.677   6.346
    1   AR   Ar  239   5.563   3.583   7.680
    1   AR   Ar  240   6.163   3.871   5.795
    1   AR   Ar  241   6.654   0.209   0.069
    1   AR   Ar  242   5.091   6.379   1.656
    1   AR   Ar  243   6.409   4.770   2.001
    1   AR   Ar  244   6.144   0.166   0.899
    1   AR   Ar  245   5.379   5.650   2.530
    1   AR   Ar  246   5.998   6.423   3.133
    1   AR   Ar  247   5.607   3.568   2.533
    1   AR   Ar  248   5.972   6.430   2.188
    1   AR   Ar  249   6.331   5.437   2.864
    1   AR   Ar  250   4.927   5.810   4.078
    1   AR   Ar  251   6.064   4.969   3.968
    1   AR   Ar  252   6.010   6.086   4.088
    1   AR   Ar  253   5.044   4.874   5.035
    1   AR   Ar  254   5.667   5.605   6.092
    1   AR   Ar  255   6.337   4.994   5.595
    1   AR   Ar  256   5.892   6.082   5.228
    7.12000  7.12000 12.00000
Argon-slab step 610
  256
    1   AR   Ar    1   1.007   0.994  -0.868
    1   AR   Ar    2   0.207   0.895   0.918
    1   AR   Ar    3   0.653   6.754   0.610
    1   AR   Ar    4   1.318   0.270   0.010
    1   AR   Ar    5   7.112   6.792   1.564
    1   AR   Ar    6   0.221   0.500   2.854
    1   AR   Ar    7   0.796   6.639   2.283
    1   AR   Ar    8   1.130   0.201   1.377
    1   AR   Ar    9   0.528   0.061   4.013
    1   AR   Ar   10   0.098   1.078   4.255
    1   AR   Ar   11   1.652   0.265   4.259
    1   AR   Ar   12   1.028   1.071   3.729
    1   AR   Ar   13   0.092   0.400   5.223
    1   AR   Ar   14   0.278   1.085   6.096
    1   AR   Ar   15   1.735   0.079   7.450
    1   AR   Ar   16   1.202   0.832   5.602
    1   AR   Ar   17   6.722   1.428   0.101
    1   AR   Ar   18   0.084   2.431   0.570
    1   AR   Ar   19   0.834   1.797   0.891
    1   AR   Ar   20   0.880   2.203  -0.819
    1   AR   Ar   21   0.641   0.876   1.957
    1   AR   Ar   22   7.086   2.372   2.706
    1   AR   Ar   23   7.100   1.418   2.439
    1   AR   Ar   24   0.532   2.237   1.766
    1   AR   Ar   25   0.265   1.926   3.675
    1   AR   Ar   26   6.524   2.261   4.294
    1   AR   Ar   27   0.412   1.945   5.253
    1   AR   Ar   28   0.936   2.764   4.100
    1   AR   Ar   29   6.525   1.368   5.175
    1   AR   Ar   30   7.117   2.174   6.237
    1   AR   Ar   31   0.896   1.072   7.097
    1   AR   Ar   32   1.020   2.708   5.872
    1   AR   Ar   33   0.737   3.569  -0.489
    1   AR   Ar   34   0.192   5.009   1.253
    1   AR   Ar   35   0.443   3.317   0.951
    1   AR   Ar   36   1.794   5.792  -0.970
    1   AR   Ar   37   0.120   3.423   2.786
    1   AR   Ar   38   0.404   4.397   2.877
    1   AR   Ar   39   1.256   3.732   3.057
    1   AR   Ar   40   0.985   4.290   1.878
    1   AR   Ar   41   0.921   2.690   3.089
    1   AR   Ar   42   0.004   4.874   4.985
    1   AR   Ar   43   0.382   3.129   4.938
    1   AR   Ar   44   0.553   3.833   3.733
    1   AR   Ar   45   0.017   4.105   5.580
    1   AR   Ar   46   0.038   4.895   6.322
    1   AR   Ar   47   0.485   3.877   6.748
    1   AR   Ar   48   1.184   4.521   6.113
    1   AR   Ar   49   0.286   4.805  -0.516
    1   AR   Ar   50   6.101   5.589   1.262
    1   AR   Ar   51   0.988   4.385   0.741
    1   AR   Ar   52   0.890   5.362   0.369
    1   AR   Ar   53   6.963   5.738   2.077
    1   AR   Ar   54   6.998   6.441   3.711
    1   AR   Ar   55   0.395   5.663   3.005
    1   AR   Ar   56   0.847   5.913   1.586
    1   AR   Ar   57   0.138   4.733   3.861
    1   AR   Ar   58   0.247   5.675   4.253
    1   AR   Ar   59   1.519   6.095   4.732
    1   AR   Ar   60   1.022   6.203   3.832
    1   AR   Ar   61   6.798   5.893   5.834
    1   AR   Ar   62   0.856   5.351   5.576
    1   AR   Ar   63   1.855   5.452   5.594
    1   AR   Ar   64   0.900   6.887   5.027
    1   AR   Ar   65   1.927   6.306  -0.046
    1   AR   Ar   66   1.827   1.085   1.038
    1   AR   Ar   67   2.885   5.958   0.062
    1   AR   Ar   68   3.462   1.122   0.883
    1   AR   Ar   69   1.955   7.114   0.878
    1   AR   Ar   70   1.176   0.396   2.690
    1   AR   Ar   71   1.899   6.905   2.044
    1   AR   Ar   72   2.779   0.543   1.549
    1   AR   Ar   73   1.707   6.745   3.147
    1   AR   Ar   74   1.437   1.420   4.679
    1   AR   Ar   75   2.526   0.641   4.517
    1   AR   Ar   76   2.227   0.982   3.441
    1   AR   Ar   77   2.014   0.301   5.444
    1   AR   Ar   78   1.653   0.313   6.434
    1   AR   Ar   79   2.781   0.252   6.838
    1   AR   Ar   80   2.702   1.002   5.902
    1   AR   Ar   81   2.445   1.537   0.107
    1   AR   Ar   82   1.986   3.867   1.257
    1   AR   Ar   83   2.648   1.987   1.861
    1   AR   Ar   84   1.693   3.053  -0.781
    1   AR   Ar   85   1.580   1.905   1.660
    1   AR   Ar   86   1.901   2.734   2.449
    1   AR   Ar   87   1.962   1.233   2.388
    1   AR   Ar   88   2.777   2.963   1.454
    1   AR   Ar   89   1.076   1.686   2.507
    1   AR   Ar   90   2.752   3.057   4.915
    1   AR   Ar   91   2.788   2.027   4.559
    1   AR   Ar   92   1.655   1.974   3.257
    1   AR   Ar   93   1.719   1.808   5.709
    1   AR   Ar   94   2.409   2.301   6.861
    1   AR   Ar   95   2.371   1.308   7.274
    1   AR   Ar   96   2.625   2.485   5.688
    1   AR   Ar   97   2.072   4.061  -0.357
    1   AR   Ar   98   2.863   4.282   1.615
    1   AR   Ar   99   3.034   3.205  -0.817
    1   AR   Ar  100   2.647   4.938  -0.222
    1   AR   Ar  101   1.347   3.006   1.715
    1   AR   Ar  102   2.028   4.411   3.450
    1   AR   Ar  103   1.887   4.001   2.231
    1   AR   Ar  104   2.980   4.215   0.451
    1   AR   Ar  105   1.995   3.043   3.736
    1   AR   Ar  106   1.838   4.115   4.449
    1   AR   Ar  107   2.721   4.241   5.051
    1   AR   Ar  108   2.976   3.775   3.904
    1   AR   Ar  109   0.771   4.103   4.884
    1   AR   Ar  110   1.709   3.635   5.445
    1   AR   Ar  111   3.182   4.925   6.650
    1   AR   Ar  112   2.187   3.822   6.327
    1   AR   Ar  113   1.934   4.896   0.554
    1   AR   Ar  114   1.716   6.037   0.944
    1   AR   Ar  115   3.284   5.457   0.895
    1   AR   Ar  116   2.590   0.106  -0.476
    1   AR   Ar  117   1.381   4.874   2.759
    1   AR   Ar  118   1.480   5.875   2.677
    1   AR   Ar  119   2.543   4.792   2.569
    1   AR   Ar  120   2.150   5.075   1.718
    1   AR   Ar  121   1.175   5.164   3.691
    1   AR   Ar  122   2.409   6.535   4.331
    1   AR   Ar  123   2.459   5.314   4.692
    1   AR   Ar  124   2.529   6.236   2.793
    1   AR   Ar  125   1.443   4.896   4.808
    1   AR   Ar  126   1.437   6.424   6.047
    1   AR   Ar  127   2.300   5.902   7.372
    1   AR   Ar  128   2.570   6.683   5.895
    1   AR   Ar  129   3.240   6.798   0.764
    1   AR   Ar  130   4.178   0.461  -0.459
    1   AR   Ar  131   4.249   6.973   0.746
    1   AR   Ar  132   4.409   1.624  -0.856
    1   AR   Ar  133   3.709   7.107   2.676
    1   AR   Ar  134   2.842   0.745   2.579
    1   AR   Ar  135   4.955   0.149   2.823
    1   AR   Ar  136   3.761   0.333   1.533
    1   AR   Ar  137   2.815   0.011   3.379
    1   AR   Ar  138   3.781   1.222   4.567
    1   AR   Ar  139   4.116   0.036   4.075
    1   AR   Ar  140   4.290   1.014   3.464
    1   AR   Ar  141   3.149   7.053   4.797
    1   AR   Ar  142   3.884   0.752   6.093
    1   AR   Ar  143   4.683   6.560   6.169
    1   AR   Ar  144   5.017   1.271   6.421
    1   AR   Ar  145   2.796   2.333   0.698
    1   AR   Ar  146   4.098   2.937   1.192
    1   AR   Ar  147   4.464   1.866   0.779
    1   AR   Ar  148   5.898   2.671  -0.397
    1   AR   Ar  149   3.712   1.954   1.590
    1   AR   Ar  150   2.795   1.951   2.893
    1   AR   Ar  151   3.934   2.015   3.001
    1   AR   Ar  152   3.465   2.635   2.279
    1   AR   Ar  153   3.265   1.365   3.705
    1   AR   Ar  154   3.923   2.457   4.246
    1   AR   Ar  155   4.512   1.773   5.227
    1   AR   Ar  156   4.925   3.751   4.211
    1   AR   Ar  157   3.501   2.163   5.329
    1   AR   Ar  158   3.337   2.149   6.401
    1   AR   Ar  159   4.096   1.553   6.844
    1   AR   Ar  160   4.431   2.985   5.415
    1   AR   Ar  161   4.399   3.143  -0.298
    1   AR   Ar  162   4.266   4.642   0.417
    1   AR   Ar  163   4.907   3.449   0.777
    1   AR   Ar  164   5.440   4.592   0.899
    1   AR   Ar  165   3.661   3.687   2.427
    1   AR   Ar  166   3.487   4.590   3.242
    1   AR   Ar  167   4.448   3.100   3.209
    1   AR   Ar  168   3.853   3.909   1.407
    1   AR   Ar  169   2.913   2.897   3.202
    1   AR   Ar  170   3.238   4.825   4.130
    1   AR   Ar  171   3.672   3.771   4.815
    1   AR   Ar  172   4.212   4.712   4.374
    1   AR   Ar  173   3.360   3.305   6.020
    1   AR   Ar  174   3.830   5.618   6.073
    1   AR   Ar  175   3.926   4.116   6.327
    1   AR   Ar  176   3.541   4.771   5.233
    1   AR   Ar  177   5.366   5.889   0.658
    1   AR   Ar  178   3.802   6.342   1.539
    1   AR   Ar  179   4.603   5.364   1.502
    1   AR   Ar  180   4.146   6.049  -0.139
    1   AR   Ar  181   3.407   5.244   1.873
    1   AR   Ar  182   2.450   6.063   1.716
    1   AR   Ar  183   4.166   4.951   2.435
    1   AR   Ar  184   4.247   6.146   2.410
    1   AR   Ar  185   2.203   5.395   3.499
    1   AR   Ar  186   3.100   5.873   3.984
    1   AR   Ar  187   4.583   5.243   3.290
    1   AR   Ar  188   3.476   5.611   2.981
    1   AR   Ar  189   2.807   5.232   5.590
    1   AR   Ar  190   3.815   7.099   6.880
    1   AR   Ar  191   4.636   5.897   5.238
    1   AR   Ar  192   3.761   6.468   5.547
    1   AR   Ar  193   5.450   0.127  -0.006
    1   AR   Ar  194   4.792   0.939   0.302
    1   AR   Ar  195   5.993   1.225   0.752
    1   AR   Ar  196   5.756   1.304  -0.267
    1   AR   Ar  197   4.975   0.430   1.396
    1   AR   Ar  198   5.179   1.346   1.887
    1   AR   Ar  199   6.363   0.677   2.287
    1   AR   Ar  200   6.669   1.761   1.452
    1   AR   Ar  201   4.525   6.438   3.370
    1   AR   Ar  202   5.041   0.989   4.266
    1   AR   Ar  203   6.939   6.392   4.875
    1   AR   Ar  204   6.559   0.332   3.609
    1   AR   Ar  205   5.068   7.017   4.558
    1   AR   Ar  206   5.476   6.951   5.464
    1   AR   Ar  207   6.695   6.973   6.077
    1   AR   Ar  208   6.066   0.591   4.593
    1   AR   Ar  209   6.933   2.446  -0.478
    1   AR   Ar  210   5.202   2.555   1.336
    1   AR   Ar  211   6.147   2.390   0.596
    1   AR   Ar  212   6.736   3.469  -0.054
    1   AR   Ar  213   4.734   2.279   2.317
    1   AR   Ar  214   4.663   3.379   2.216
    1   AR   Ar  215   5.991   1.934   2.347
    1   AR   Ar  216   6.489   2.805   1.714
    1   AR   Ar  217   4.922   2.110   3.345
    1   AR   Ar  218   5.162   2.043   4.381
    1   AR   Ar  219   5.695   1.346   3.586
    1   AR   Ar  220   6.076   2.812   2.999
    1   AR   Ar  221   5.480   1.071   5.385
    1   AR   Ar  222   4.714   2.290   6.126
    1   AR   Ar  223   6.883   1.369   7.134
    1   AR   Ar  224   6.406   2.615   5.271
    1   AR   Ar  225   4.958   4.030  -0.095
    1   AR   Ar  226   5.137   4.567   2.074
    1   AR   Ar  227   6.740   3.785   1.855
    1   AR   Ar  228   6.528   5.240   0.295
    1   AR   Ar  229   6.038   3.351   0.700
    1   AR   Ar  230   4.471   4.182   3.297
    1   AR   Ar  231   6.943   3.122   3.838
    1   AR   Ar  232   5.530   3.701   1.490
    1   AR   Ar  233   5.678   2.918   4.200
    1   AR   Ar  234   5.747   4.280   4.638
    1   AR   Ar  235   6.829   4.009   4.556
    1   AR   Ar  236   6.150   3.776   3.478
    1   AR   Ar  237   5.455   3.154   5.181
    1   AR   Ar  238   4.892   4.723   6.323
    1   AR   Ar  239   5.572   3.591   7.708
    1   AR   Ar  240   6.205   3.869   5.804
    1   AR   Ar  241   6.636   0.207   0.071
    1   AR   Ar  242   5.094   6.345   1.639
    1   AR   Ar  243   6.390   4.744   2.010
    1   AR   Ar  244   6.153   0.162   0.923
    1   AR   Ar  245   5.414   5.626   2.506
    1   AR   Ar  246   5.983   6.430   3.147
    1   AR   Ar  247   5.605   3.571   2.501
    1   AR   Ar  248   5.982   6.436   2.167
    1   AR   Ar  249   6.346   5.460   2.896
    1   AR   Ar  250   4.930   5.816   4.117
    1   AR   Ar  251   6.052   4.939   3.962
    1   AR   Ar  252   6.003   6.089   4.082
    1   AR   Ar  253   5.077   4.855   5.031
    1   AR   Ar  254   5.687   5.610   6.078
    1   AR   Ar  255   6.331   4.970   5.613
    1   AR   Ar  256   5.874   6.104   5.218
    7.12000  7.12000 12.00000
Argon-slab step 615
  256
    1   AR   Ar    1   1.018   1.025  -0.886
    1   AR   Ar    2   0.230   0.903   0.927
    1   AR   Ar    3   0.647   6.761   0.620
    1   AR   Ar    4   1.329   0.265   0.023
    1   AR   Ar    5   7.077   6.774   1.542
    1   AR   Ar    6   0.203   0.532   2.864
    1   AR   Ar    7   0.759   6.645   2.291
    1   AR   Ar    8   1.115   0.214   1.379
    1   AR   Ar    9   0.524   0.070   4.022
    1   AR   Ar   10   0.098   1.104   4.287
    1   AR   Ar   11   1.643   0.248   4.247
    1   AR   Ar   12   1.035   1.084   3.723
    1   AR   Ar   13   0.078   0.406   5.210
    1   AR   Ar   14   0.276   1.111   6.102
    1   AR   Ar   15   1.732   0.056   7.418
    1   AR   Ar   16   1.147   0.845   5.594
    1   AR   Ar   17   6.742   1.430   0.135
    1   AR   Ar   18   0.091   2.456   0.527
    1   AR   Ar   19   0.843   1.821   0.875
    1   AR   Ar   20   0.883   2.175  -0.827
    1   AR   Ar   21   0.608   0.850   1.965
    1   AR   Ar   22   7.070   2.386   2.719
    1   AR   Ar   23   7.096   1.413   2.443
    1   AR   Ar   24   0.513   2.245   1.768
    1   AR   Ar   25   0.302   1.944   3.670
    1   AR   Ar   26   6.544   2.239   4.242
    1   AR   Ar   27   0.452   1.949   5.235
    1   AR   Ar   28   0.931   2.777   4.139
    1   AR   Ar   29   6.540   1.328   5.206
    1   AR   Ar   30   7.108   2.179   6.240
    1   AR   Ar   31   0.919   1.094   7.083
    1   AR   Ar   32   0.967   2.724   5.868
    1   AR   Ar   33   0.716   3.596  -0.486
    1   AR   Ar   34   0.193   5.010   1.262
    1   AR   Ar   35   0.452   3.341   0.959
    1   AR   Ar   36   1.786   5.804  -0.977
    1   AR   Ar   37   0.124   3.451   2.838
    1   AR   Ar   38   0.423   4.401   2.850
    1   AR   Ar   39   1.223   3.735   3.022
    1   AR   Ar   40   1.012   4.318   1.838
    1   AR   Ar   41   0.899   2.691   3.069
    1   AR   Ar   42   0.030   4.910   4.984
    1   AR   Ar   43   0.405   3.136   4.883
    1   AR   Ar   44   0.558   3.817   3.727
    1   AR   Ar   45   7.117   4.089   5.597
    1   AR   Ar   46   0.052   4.880   6.351
    1   AR   Ar   47   0.459   3.876   6.716
    1   AR   Ar   48   1.173   4.525   6.122
    1   AR   Ar   49   0.296   4.796  -0.540
    1   AR   Ar   50   6.109   5.559   1.287
    1   AR   Ar   51   0.993   4.361   0.746
    1   AR   Ar   52   0.865   5.344   0.389
    1   AR   Ar   53   6.979   5.754   2.075
    1   AR   Ar   54   7.043   6.426   3.701
    1   AR   Ar   55   0.408   5.670   2.994
    1   AR   Ar   56   0.868   5.944   1.595
    1   AR   Ar   57   0.117   4.732   3.847
    1   AR   Ar   58   0.240   5.680   4.230
    1   AR   Ar   59   1.515   6.116   4.771
    1   AR   Ar   60   1.027   6.220   3.841
    1   AR   Ar   61   6.814   5.890   5.818
    1   AR   Ar   62   0.857   5.383   5.582
    1   AR   Ar   63   1.865   5.482   5.564
    1   AR   Ar   64   0.884   6.851   5.003
    1   AR   Ar   65   1.908   6.313  -0.068
    1   AR   Ar   66   1.808   1.089   1.070
    1   AR   Ar   67   2.900   5.976   0.044
    1   AR   Ar   68   3.496   1.117   0.902
    1   AR   Ar   69   1.959   7.103   0.886
    1   AR   Ar   70   1.198   0.399   2.662
    1   AR   Ar   71   1.920   6.938   2.014
    1   AR   Ar   72   2.751   0.509   1.542
    1   AR   Ar   73   1.700   6.754   3.151
    1   AR   Ar   74   1.466   1.432   4.710
    1   AR   Ar   75   2.544   0.656   4.546
    1   AR   Ar   76   2.220   0.962   3.429
    1   AR   Ar   77   1.998   0.295   5.417
    1   AR   Ar   78   1.628   0.321   6.415
    1   AR   Ar   79   2.805   0.222   6.842
    1   AR   Ar   80   2.704   1.003   5.925
    1   AR   Ar   81   2.446   1.525   0.114
    1   AR   Ar   82   2.010   3.882   1.248
    1   AR   Ar   83   2.654   1.994   1.826
    1   AR   Ar   84   1.677   3.066  -0.797
    1   AR   Ar   85   1.585   1.917   1.656
    1   AR   Ar   86   1.886   2.730   2.451
    1   AR   Ar   87   1.964   1.239   2.375
    1   AR   Ar   88   2.778   2.969   1.453
    1   AR   Ar   89   1.066   1.693   2.516
    1   AR   Ar   90   2.779   3.052   4.895
    1   AR   Ar   91   2.783   2.023   4.548
    1   AR   Ar   92   1.654   1.933   3.244
    1   AR   Ar   93   1.722   1.801   5.729
    1   AR   Ar   94   2.398   2.277   6.851
    1   AR   Ar   95   2.362   1.301   7.289
    1   AR   Ar   96   2.629   2.439   5.717
    1   AR   Ar   97   2.058   4.030  -0.395
    1   AR   Ar   98   2.892   4.289   1.623
    1   AR   Ar   99   3.038   3.208  -0.835
    1   AR   Ar  100   2.653   4.921  -0.234
    1   AR   Ar  101   1.376   3.010   1.715
    1   AR   Ar  102   2.035   4.428   3.439
    1   AR   Ar  103   1.932   3.990   2.217
    1   AR   Ar  104   2.946   4.192   0.459
    1   AR   Ar  105   1.986   3.058   3.727
    1   AR   Ar  106   1.859   4.088   4.423
    1   AR   Ar  107   2.724   4.216   5.030
    1   AR   Ar  108   2.976   3.747   3.880
    1   AR   Ar  109   0.739   4.091   4.870
    1   AR   Ar  110   1.690   3.605   5.430
    1   AR   Ar  111   3.171   4.916   6.674
    1   AR   Ar  112   2.183   3.796   6.313
    1   AR   Ar  113   1.913   4.899   0.547
    1   AR   Ar  114   1.699   6.021   0.938
    1   AR   Ar  115   3.315   5.439   0.880
    1   AR   Ar  116   2.599   0.091  -0.466
    1   AR   Ar  117   1.404   4.882   2.745
    1   AR   Ar  118   1.491   5.877   2.653
    1   AR   Ar  119   2.536   4.782   2.567
    1   AR   Ar  120   2.177   5.051   1.675
    1   AR   Ar  121   1.171   5.128   3.653
    1   AR   Ar  122   2.407   6.541   4.338
    1   AR   Ar  123   2.457   5.315   4.681
    1   AR   Ar  124   2.517   6.257   2.800
    1   AR   Ar  125   1.443   4.883   4.819
    1   AR   Ar  126   1.453   6.418   6.057
    1   AR   Ar  127   2.273   5.891   7.377
    1   AR   Ar  128   2.587   6.690   5.930
    1   AR   Ar  129   3.217   6.752   0.766
    1   AR   Ar  130   4.154   0.460  -0.502
    1   AR   Ar  131   4.264   6.967   0.738
    1   AR   Ar  132   4.434   1.652  -0.871
    1   AR   Ar  133   3.729   0.009   2.686
    1   AR   Ar  134   2.796   0.741   2.615
    1   AR   Ar  135   4.952   0.157   2.829
    1   AR   Ar  136   3.769   0.350   1.522
    1   AR   Ar  137   2.847   0.004   3.349
    1   AR   Ar  138   3.789   1.237   4.581
    1   AR   Ar  139   4.162   0.046   4.067
    1   AR   Ar  140   4.302   1.029   3.458
    1   AR   Ar  141   3.203   7.054   4.802
    1   AR   Ar  142   3.903   0.708   6.068
    1   AR   Ar  143   4.750   6.574   6.180
    1   AR   Ar  144   5.031   1.260   6.437
    1   AR   Ar  145   2.781   2.362   0.691
    1   AR   Ar  146   4.133   2.936   1.171
    1   AR   Ar  147   4.461   1.852   0.789
    1   AR   Ar  148   5.911   2.709  -0.394
    1   AR   Ar  149   3.750   1.977   1.598
    1   AR   Ar  150   2.776   1.923   2.915
    1   AR   Ar  151   3.887   2.023   3.018
    1   AR   Ar  152   3.458   2.637   2.294
    1   AR   Ar  153   3.288   1.337   3.711
    1   AR   Ar  154   3.910   2.438   4.254
    1   AR   Ar  155   4.558   1.756   5.264
    1   AR   Ar  156   4.933   3.741   4.215
    1   AR   Ar  157   3.535   2.132   5.317
    1   AR   Ar  158   3.321   2.183   6.425
    1   AR   Ar  159   4.102   1.536   6.821
    1   AR   Ar  160   4.427   3.002   5.393
    1   AR   Ar  161   4.410   3.161  -0.290
    1   AR   Ar  162   4.286   4.639   0.427
    1   AR   Ar  163   4.930   3.434   0.799
    1   AR   Ar  164   5.427   4.588   0.937
    1   AR   Ar  165   3.667   3.701   2.410
    1   AR   Ar  166   3.466   4.619   3.243
    1   AR   Ar  167   4.475   3.096   3.206
    1   AR   Ar  168   3.860   3.895   1.401
    1   AR   Ar  169   2.922   2.905   3.184
    1   AR   Ar  170   3.193   4.808   4.151
    1   AR   Ar  171   3.708   3.764   4.829
    1   AR   Ar  172   4.196   4.722   4.362
    1   AR   Ar  173   3.369   3.286   6.000
    1   AR   Ar  174   3.793   5.595   6.049
    1   AR   Ar  175   3.937   4.113   6.327
    1   AR   Ar  176   3.555   4.762   5.256
    1   AR   Ar  177   5.369   5.895   0.628
    1   AR   Ar  178   3.781   6.347   1.506
    1   AR   Ar  179   4.597   5.366   1.518
    1   AR   Ar  180   4.106   6.022  -0.159
    1   AR   Ar  181   3.424   5.269   1.842
    1   AR   Ar  182   2.490   6.053   1.720
    1   AR   Ar  183   4.160   4.939   2.427
    1   AR   Ar  184   4.231   6.141   2.431
    1   AR   Ar  185   2.178   5.402   3.498
    1   AR   Ar  186   3.109   5.852   3.989
    1   AR   Ar  187   4.588   5.264   3.279
    1   AR   Ar  188   3.453   5.625   3.016
    1   AR   Ar  189   2.797   5.241   5.581
    1   AR   Ar  190   3.809   7.102   6.856
    1   AR   Ar  191   4.615   5.910   5.240
    1   AR   Ar  192   3.724   6.441   5.540
    1   AR   Ar  193   5.471   0.132  -0.028
    1   AR   Ar  194   4.767   0.965   0.312
    1   AR   Ar  195   5.991   1.223   0.755
    1   AR   Ar  196   5.760   1.302  -0.286
    1   AR   Ar  197   4.961   0.439   1.379
    1   AR   Ar  198   5.181   1.355   1.904
    1   AR   Ar  199   6.395   0.655   2.285
    1   AR   Ar  200   6.661   1.765   1.478
    1   AR   Ar  201   4.504   6.433   3.352
    1   AR   Ar  202   5.066   0.961   4.252
    1   AR   Ar  203   6.947   6.392   4.878
    1   AR   Ar  204   6.561   0.335   3.593
    1   AR   Ar  205   5.077   7.002   4.537
    1   AR   Ar  206   5.483   6.959   5.439
    1   AR   Ar  207   6.711   6.976   6.077
    1   AR   Ar  208   6.064   0.594   4.586
    1   AR   Ar  209   6.910   2.419  -0.488
    1   AR   Ar  210   5.182   2.566   1.336
    1   AR   Ar  211   6.116   2.375   0.613
    1   AR   Ar  212   6.762   3.468  -0.047
    1   AR   Ar  213   4.758   2.287   2.301
    1   AR   Ar  214   4.658   3.384   2.226
    1   AR   Ar  215   5.966   1.970   2.360
    1   AR   Ar  216   6.512   2.790   1.737
    1   AR   Ar  217   4.967   2.122   3.319
    1   AR   Ar  218   5.148   2.043   4.382
    1   AR   Ar  219   5.677   1.330   3.580
    1   AR   Ar  220   6.110   2.836   3.007
    1   AR   Ar  221   5.490   1.021   5.378
    1   AR   Ar  222   4.719   2.303   6.147
    1   AR   Ar  223   6.898   1.379   7.164
    1   AR   Ar  224   6.407   2.602   5.265
    1   AR   Ar  225   4.961   4.049  -0.100
    1   AR   Ar  226   5.119   4.565   2.056
    1   AR   Ar  227   6.731   3.783   1.861
    1   AR   Ar  228   6.553   5.221   0.316
    1   AR   Ar  229   6.059   3.360   0.704
    1   AR   Ar  230   4.491   4.176   3.305
    1   AR   Ar  231   6.949   3.086   3.845
    1   AR   Ar  232   5.527   3.698   1.493
    1   AR   Ar  233   5.688   2.921   4.174
    1   AR   Ar  234   5.778   4.257   4.685
    1   AR   Ar  235   6.818   4.004   4.535
    1   AR   Ar  236   6.122   3.740   3.487
    1   AR   Ar  237   5.439   3.168   5.175
    1   AR   Ar  238   4.881   4.718   6.298
    1   AR   Ar  239   5.581   3.600   7.735
    1   AR   Ar  240   6.234   3.864   5.813
    1   AR   Ar  241   6.625   0.204   0.059
    1   AR   Ar  242   5.092   6.312   1.621
    1   AR   Ar  243   6.369   4.722   2.020
    1   AR   Ar  244   6.155   0.156   0.959
    1   AR   Ar  245   5.439   5.601   2.480
    1   AR   Ar  246   5.966   6.442   3.166
    1   AR   Ar  247   5.609   3.579   2.474
    1   AR   Ar  248   6.000   6.444   2.131
    1   AR   Ar  249   6.366   5.479   2.932
    1   AR   Ar  250   4.934   5.822   4.162
    1   AR   Ar  251   6.044   4.916   3.948
    1   AR   Ar  252   5.997   6.089   4.087
    1   AR   Ar  253   5.100   4.848   5.034
    1   AR   Ar  254   5.700   5.615   6.073
    1   AR   Ar  255   6.322   4.940   5.630
    1   AR   Ar  256   5.864   6.115   5.197
    7.12000  7.12000 12.00000
Argon-slab step 620
  256
    1   AR   Ar    1   1.029   1.056  -0.902
    1   AR   Ar    2   0.248   0.913   0.940
    1   AR   Ar    3   0.640   6.765   0.630
    1   AR   Ar    4   1.340   0.260   0.035
    1   AR   Ar    5   7.043   6.757   1.521
    1   AR   Ar    6   0.181   0.554   2.882
    1   AR   Ar    7   0.719   6.656   2.305
    1   AR   Ar    8   1.097   0.224   1.381
    1   AR   Ar    9   0.523   0.085   4.031
    1   AR   Ar   10   0.095   1.128   4.323
    1   AR   Ar   11   1.636   0.238   4.259
    1   AR   Ar   12   1.047   1.089   3.714
    1   AR   Ar   13   0.062   0.412   5.197
    1   AR   Ar   14   0.293   1.139   6.118
    1   AR   Ar   15   1.730   0.033   7.388
    1   AR   Ar   16   1.090   0.860   5.584
    1   AR   Ar   17   6.772   1.435   0.165
    1   AR   Ar   18   0.095   2.481   0.485
    1   AR   Ar   19   0.846   1.837   0.859
    1   AR   Ar   20   0.885   2.149  -0.834
    1   AR   Ar   21   0.588   0.824   1.970
    1   AR   Ar   22   7.051   2.406   2.733
    1   AR   Ar   23   7.084   1.422   2.451
    1   AR   Ar   24   0.492   2.256   1.772
    1   AR   Ar   25   0.341   1.964   3.662
    1   AR   Ar   26   6.561   2.210   4.193
    1   AR   Ar   27   0.469   1.965   5.240
    1   AR   Ar   28   0.934   2.784   4.166
    1   AR   Ar   29   6.558   1.291   5.238
    1   AR   Ar   30   7.099   2.184   6.242
    1   AR   Ar   31   0.943   1.116   7.068
    1   AR   Ar   32   0.914   2.741   5.861
    1   AR   Ar   33   0.694   3.624  -0.483
    1   AR   Ar   34   0.194   5.012   1.272
    1   AR   Ar   35   0.432   3.367   0.980
    1   AR   Ar   36   1.778   5.814  -0.986
    1   AR   Ar   37   0.123   3.470   2.887
    1   AR   Ar   38   0.442   4.417   2.819
    1   AR   Ar   39   1.216   3.741   3.018
    1   AR   Ar   40   1.035   4.346   1.798
    1   AR   Ar   41   0.879   2.693   3.048
    1   AR   Ar   42   0.050   4.950   4.980
    1   AR   Ar   43   0.416   3.142   4.839
    1   AR   Ar   44   0.562   3.799   3.737
    1   AR   Ar   45   0.001   4.075   5.614
    1   AR   Ar   46   0.067   4.866   6.378
    1   AR   Ar   47   0.433   3.875   6.682
    1   AR   Ar   48   1.163   4.528   6.129
    1   AR   Ar   49   0.307   4.786  -0.563
    1   AR   Ar   50   6.119   5.528   1.316
    1   AR   Ar   51   0.997   4.332   0.751
    1   AR   Ar   52   0.840   5.330   0.408
    1   AR   Ar   53   6.994   5.771   2.070
    1   AR   Ar   54   7.063   6.426   3.685
    1   AR   Ar   55   0.423   5.676   2.985
    1   AR   Ar   56   0.889   5.968   1.598
    1   AR   Ar   57   0.093   4.733   3.831
    1   AR   Ar   58   0.238   5.673   4.216
    1   AR   Ar   59   1.517   6.129   4.810
    1   AR   Ar   60   1.034   6.240   3.845
    1   AR   Ar   61   6.830   5.886   5.803
    1   AR   Ar   62   0.848   5.418   5.588
    1   AR   Ar   63   1.866   5.517   5.538
    1   AR   Ar   64   0.864   6.821   4.982
    1   AR   Ar   65   1.887   6.325  -0.089
    1   AR   Ar   66   1.790   1.090   1.100
    1   AR   Ar   67   2.918   5.995   0.025
    1   AR   Ar   68   3.528   1.117   0.917
    1   AR   Ar   69   1.998   7.115   0.888
    1   AR   Ar   70   1.231   0.406   2.636
    1   AR   Ar   71   1.940   6.972   1.986
    1   AR   Ar   72   2.716   0.476   1.534
    1   AR   Ar   73   1.692   6.768   3.162
    1   AR   Ar   74   1.494   1.444   4.740
    1   AR   Ar   75   2.562   0.681   4.573
    1   AR   Ar   76   2.207   0.943   3.423
    1   AR   Ar   77   2.000   0.268   5.401
    1   AR   Ar   78   1.604   0.331   6.395
    1   AR   Ar   79   2.823   0.195   6.845
    1   AR   Ar   80   2.707   1.004   5.948
    1   AR   Ar   81   2.447   1.510   0.120
    1   AR   Ar   82   2.031   3.895   1.225
    1   AR   Ar   83   2.660   1.997   1.793
    1   AR   Ar   84   1.660   3.077  -0.814
    1   AR   Ar   85   1.592   1.935   1.650
    1   AR   Ar   86   1.887   2.717   2.475
    1   AR   Ar   87   1.966   1.244   2.361
    1   AR   Ar   88   2.828   2.951   1.487
    1   AR   Ar   89   1.036   1.698   2.519
    1   AR   Ar   90   2.808   3.054   4.871
    1   AR   Ar   91   2.778   2.017   4.535
    1   AR   Ar   92   1.664   1.894   3.244
    1   AR   Ar   93   1.726   1.793   5.751
    1   AR   Ar   94   2.381   2.256   6.842
    1   AR   Ar   95   2.352   1.290   7.303
    1   AR   Ar   96   2.624   2.394   5.748
    1   AR   Ar   97   2.043   3.999  -0.431
    1   AR   Ar   98   2.924   4.294   1.633
    1   AR   Ar   99   3.042   3.212  -0.853
    1   AR   Ar  100   2.619   4.921  -0.255
    1   AR   Ar  101   1.389   3.024   1.695
    1   AR   Ar  102   2.043   4.431   3.430
    1   AR   Ar  103   1.977   3.977   2.217
    1   AR   Ar  104   2.912   4.167   0.470
    1   AR   Ar  105   1.959   3.075   3.696
    1   AR   Ar  106   1.883   4.048   4.391
    1   AR   Ar  107   2.730   4.195   5.015
    1   AR   Ar  108   2.976   3.720   3.858
    1   AR   Ar  109   0.715   4.087   4.857
    1   AR   Ar  110   1.668   3.576   5.409
    1   AR   Ar  111   3.159   4.906   6.697
    1   AR   Ar  112   2.181   3.771   6.302
    1   AR   Ar  113   1.893   4.902   0.542
    1   AR   Ar  114   1.682   6.005   0.932
    1   AR   Ar  115   3.346   5.423   0.854
    1   AR   Ar  116   2.608   0.074  -0.455
    1   AR   Ar  117   1.449   4.872   2.728
    1   AR   Ar  118   1.458   5.854   2.662
    1   AR   Ar  119   2.524   4.767   2.548
    1   AR   Ar  120   2.205   5.077   1.694
    1   AR   Ar  121   1.160   5.094   3.631
    1   AR   Ar  122   2.412   6.502   4.322
    1   AR   Ar  123   2.445   5.318   4.654
    1   AR   Ar  124   2.511   6.273   2.804
    1   AR   Ar  125   1.432   4.881   4.807
    1   AR   Ar  126   1.469   6.412   6.063
    1   AR   Ar  127   2.248   5.877   7.406
    1   AR   Ar  128   2.605   6.696   5.966
    1   AR   Ar  129   3.186   6.709   0.764
    1   AR   Ar  130   4.131   0.461  -0.544
    1   AR   Ar  131   4.283   6.960   0.726
    1   AR   Ar  132   4.461   1.678  -0.884
    1   AR   Ar  133   3.750   0.030   2.696
    1   AR   Ar  134   2.762   0.734   2.645
    1   AR   Ar  135   4.949   0.165   2.835
    1   AR   Ar  136   3.783   0.362   1.518
    1   AR   Ar  137   2.878   7.116   3.326
    1   AR   Ar  138   3.801   1.252   4.601
    1   AR   Ar  139   4.202   0.059   4.058
    1   AR   Ar  140   4.315   1.045   3.452
    1   AR   Ar  141   3.263   7.052   4.809
    1   AR   Ar  142   3.922   0.666   6.040
    1   AR   Ar  143   4.816   6.587   6.189
    1   AR   Ar  144   5.049   1.248   6.450
    1   AR   Ar  145   2.768   2.384   0.675
    1   AR   Ar  146   4.162   2.925   1.152
    1   AR   Ar  147   4.457   1.841   0.801
    1   AR   Ar  148   5.922   2.749  -0.390
    1   AR   Ar  149   3.791   1.995   1.602
    1   AR   Ar  150   2.753   1.890   2.935
    1   AR   Ar  151   3.842   2.029   3.038
    1   AR   Ar  152   3.449   2.645   2.310
    1   AR   Ar  153   3.303   1.321   3.713
    1   AR   Ar  154   3.897   2.419   4.263
    1   AR   Ar  155   4.604   1.737   5.298
    1   AR   Ar  156   4.940   3.730   4.220
    1   AR   Ar  157   3.574   2.102   5.304
    1   AR   Ar  158   3.315   2.216   6.448
    1   AR   Ar  159   4.105   1.519   6.799
    1   AR   Ar  160   4.417   3.019   5.368
    1   AR   Ar  161   4.419   3.176  -0.282
    1   AR   Ar  162   4.302   4.639   0.441
    1   AR   Ar  163   4.937   3.421   0.798
    1   AR   Ar  164   5.413   4.587   0.974
    1   AR   Ar  165   3.670   3.717   2.398
    1   AR   Ar  166   3.450   4.638   3.229
    1   AR   Ar  167   4.499   3.090   3.206
    1   AR   Ar  168   3.869   3.888   1.392
    1   AR   Ar  169   2.932   2.918   3.168
    1   AR   Ar  170   3.142   4.790   4.185
    1   AR   Ar  171   3.744   3.756   4.843
    1   AR   Ar  172   4.187   4.730   4.348
    1   AR   Ar  173   3.420   3.264   6.012
    1   AR   Ar  174   3.817   5.577   6.011
    1   AR   Ar  175   3.949   4.113   6.327
    1   AR   Ar  176   3.592   4.747   5.275
    1   AR   Ar  177   5.367   5.902   0.597
    1   AR   Ar  178   3.763   6.347   1.476
    1   AR   Ar  179   4.572   5.367   1.527
    1   AR   Ar  180   4.065   5.996  -0.177
    1   AR   Ar  181   3.434   5.297   1.820
    1   AR   Ar  182   2.533   6.045   1.722
    1   AR   Ar  183   4.157   4.920   2.419
    1   AR   Ar  184   4.215   6.130   2.446
    1   AR   Ar  185   2.159   5.422   3.497
    1   AR   Ar  186   3.120   5.831   3.994
    1   AR   Ar  187   4.595   5.288   3.274
    1   AR   Ar  188   3.432   5.643   3.047
    1   AR   Ar  189   2.794   5.255   5.597
    1   AR   Ar  190   3.808   7.103   6.831
    1   AR   Ar  191   4.596   5.921   5.242
    1   AR   Ar  192   3.684   6.424   5.530
    1   AR   Ar  193   5.492   0.139  -0.048
    1   AR   Ar  194   4.743   0.987   0.322
    1   AR   Ar  195   5.981   1.220   0.767
    1   AR   Ar  196   5.760   1.300  -0.307
    1   AR   Ar  197   4.947   0.446   1.361
    1   AR   Ar  198   5.185   1.351   1.900
    1   AR   Ar  199   6.417   0.664   2.277
    1   AR   Ar  200   6.655   1.767   1.502
    1   AR   Ar  201   4.484   6.428   3.340
    1   AR   Ar  202   5.082   0.928   4.248
    1   AR   Ar  203   6.955   6.395   4.881
    1   AR   Ar  204   6.563   0.343   3.572
    1   AR   Ar  205   5.086   6.986   4.507
    1   AR   Ar  206   5.487   6.985   5.429
    1   AR   Ar  207   6.727   6.979   6.076
    1   AR   Ar  208   6.064   0.593   4.576
    1   AR   Ar  209   6.890   2.391  -0.499
    1   AR   Ar  210   5.164   2.575   1.337
    1   AR   Ar  211   6.085   2.347   0.632
    1   AR   Ar  212   6.789   3.473  -0.050
    1   AR   Ar  213   4.780   2.296   2.283
    1   AR   Ar  214   4.648   3.388   2.227
    1   AR   Ar  215   5.942   2.006   2.372
    1   AR   Ar  216   6.534   2.771   1.759
    1   AR   Ar  217   5.012   2.134   3.294
    1   AR   Ar  218   5.134   2.042   4.384
    1   AR   Ar  219   5.670   1.318   3.567
    1   AR   Ar  220   6.146   2.853   3.016
    1   AR   Ar  221   5.497   0.972   5.371
    1   AR   Ar  222   4.724   2.315   6.171
    1   AR   Ar  223   6.914   1.390   7.192
    1   AR   Ar  224   6.410   2.588   5.258
    1   AR   Ar  225   4.969   4.067  -0.106
    1   AR   Ar  226   5.103   4.560   2.039
    1   AR   Ar  227   6.724   3.781   1.866
    1   AR   Ar  228   6.578   5.201   0.338
    1   AR   Ar  229   6.087   3.374   0.710
    1   AR   Ar  230   4.510   4.171   3.310
    1   AR   Ar  231   6.956   3.051   3.850
    1   AR   Ar  232   5.533   3.701   1.509
    1   AR   Ar  233   5.701   2.928   4.143
    1   AR   Ar  234   5.819   4.218   4.732
    1   AR   Ar  235   6.806   3.987   4.514
    1   AR   Ar  236   6.094   3.711   3.500
    1   AR   Ar  237   5.427   3.184   5.170
    1   AR   Ar  238   4.864   4.702   6.271
    1   AR   Ar  239   5.589   3.608   7.762
    1   AR   Ar  240   6.236   3.852   5.827
    1   AR   Ar  241   6.617   0.204   0.043
    1   AR   Ar  242   5.087   6.280   1.603
    1   AR   Ar  243   6.344   4.708   2.031
    1   AR   Ar  244   6.153   0.150   1.004
    1   AR   Ar  245   5.459   5.575   2.452
    1   AR   Ar  246   5.948   6.462   3.180
    1   AR   Ar  247   5.620   3.591   2.459
    1   AR   Ar  248   6.003   6.434   2.145
    1   AR   Ar  249   6.391   5.497   2.971
    1   AR   Ar  250   4.939   5.827   4.209
    1   AR   Ar  251   6.039   4.898   3.930
    1   AR   Ar  252   5.993   6.084   4.102
    1   AR   Ar  253   5.111   4.852   5.044
    1   AR   Ar  254   5.708   5.622   6.074
    1   AR   Ar  255   6.312   4.905   5.643
    1   AR   Ar  256   5.863   6.110   5.165
    7.12000  7.12000 12.00000
Argon-slab step 625
  256
    1   AR   Ar    1   1.040   1.086  -0.916
    1   AR   Ar    2   0.265   0.921   0.953
    1   AR   Ar    3   0.631   6.767   0.640
    1   AR   Ar    4   1.352   0.256   0.048
    1   AR   Ar    5   7.009   6.741   1.500
    1   AR   Ar    6   0.176   0.565   2.906
    1   AR   Ar    7   0.677   6.672   2.327
    1   AR   Ar    8   1.083   0.228   1.380
    1   AR   Ar    9   0.523   0.106   4.042
    1   AR   Ar   10   0.092   1.150   4.359
    1   AR   Ar   11   1.626   0.226   4.270
    1   AR   Ar   12   1.075   1.070   3.699
    1   AR   Ar   13   0.047   0.418   5.183
    1   AR   Ar   14   0.302   1.170   6.138
    1   AR   Ar   15   1.728   0.004   7.367
    1   AR   Ar   16   1.037   0.872   5.567
    1   AR   Ar   17   6.807   1.444   0.192
    1   AR   Ar   18   0.095   2.506   0.445
    1   AR   Ar   19   0.845   1.849   0.844
    1   AR   Ar   20   0.886   2.124  -0.839
    1   AR   Ar   21   0.580   0.802   1.981
    1   AR   Ar   22   7.030   2.427   2.745
    1   AR   Ar   23   7.065   1.446   2.459
    1   AR   Ar   24   0.469   2.269   1.777
    1   AR   Ar   25   0.383   1.983   3.653
    1   AR   Ar   26   6.572   2.171   4.148
    1   AR   Ar   27   0.479   1.981   5.248
    1   AR   Ar   28   0.956   2.779   4.168
    1   AR   Ar   29   6.577   1.259   5.271
    1   AR   Ar   30   7.113   2.208   6.229
    1   AR   Ar   31   0.967   1.137   7.051
    1   AR   Ar   32   0.862   2.759   5.855
    1   AR   Ar   33   0.673   3.652  -0.478
    1   AR   Ar   34   0.195   5.014   1.284
    1   AR   Ar   35   0.411   3.394   1.002
    1   AR   Ar   36   1.771   5.821  -0.998
    1   AR   Ar   37   0.110   3.463   2.897
    1   AR   Ar   38   0.461   4.446   2.786
    1   AR   Ar   39   1.226   3.747   3.014
    1   AR   Ar   40   1.048   4.373   1.770
    1   AR   Ar   41   0.864   2.696   3.028
    1   AR   Ar   42   0.034   4.976   4.977
    1   AR   Ar   43   0.403   3.151   4.822
    1   AR   Ar   44   0.563   3.783   3.766
    1   AR   Ar   45   0.029   4.065   5.628
    1   AR   Ar   46   0.083   4.854   6.403
    1   AR   Ar   47   0.406   3.874   6.646
    1   AR   Ar   48   1.153   4.528   6.134
    1   AR   Ar   49   0.318   4.776  -0.583
    1   AR   Ar   50   6.128   5.497   1.348
    1   AR   Ar   51   1.000   4.300   0.754
    1   AR   Ar   52   0.815   5.319   0.427
    1   AR   Ar   53   7.007   5.788   2.062
    1   AR   Ar   54   7.072   6.434   3.658
    1   AR   Ar   55   0.431   5.683   2.981
    1   AR   Ar   56   0.907   5.985   1.597
    1   AR   Ar   57   0.066   4.734   3.814
    1   AR   Ar   58   0.242   5.656   4.212
    1   AR   Ar   59   1.527   6.133   4.843
    1   AR   Ar   60   1.044   6.260   3.847
    1   AR   Ar   61   6.847   5.879   5.789
    1   AR   Ar   62   0.832   5.455   5.593
    1   AR   Ar   63   1.856   5.532   5.523
    1   AR   Ar   64   0.835   6.802   4.965
    1   AR   Ar   65   1.865   6.340  -0.105
    1   AR   Ar   66   1.773   1.085   1.129
    1   AR   Ar   67   2.934   6.013   0.004
    1   AR   Ar   68   3.557   1.125   0.927
    1   AR   Ar   69   2.030   7.118   0.892
    1   AR   Ar   70   1.269   0.418   2.613
    1   AR   Ar   71   1.960   7.004   1.961
    1   AR   Ar   72   2.692   0.461   1.530
    1   AR   Ar   73   1.683   6.786   3.178
    1   AR   Ar   74   1.490   1.442   4.744
    1   AR   Ar   75   2.581   0.711   4.597
    1   AR   Ar   76   2.187   0.926   3.429
    1   AR   Ar   77   2.000   0.240   5.382
    1   AR   Ar   78   1.580   0.344   6.374
    1   AR   Ar   79   2.831   0.171   6.848
    1   AR   Ar   80   2.709   1.005   5.972
    1   AR   Ar   81   2.447   1.492   0.128
    1   AR   Ar   82   2.050   3.908   1.190
    1   AR   Ar   83   2.665   1.994   1.762
    1   AR   Ar   84   1.643   3.087  -0.830
    1   AR   Ar   85   1.597   1.959   1.645
    1   AR   Ar   86   1.898   2.699   2.512
    1   AR   Ar   87   1.962   1.252   2.343
    1   AR   Ar   88   2.891   2.938   1.534
    1   AR   Ar   89   0.994   1.700   2.518
    1   AR   Ar   90   2.838   3.058   4.846
    1   AR   Ar   91   2.772   2.009   4.521
    1   AR   Ar   92   1.682   1.861   3.254
    1   AR   Ar   93   1.728   1.784   5.774
    1   AR   Ar   94   2.357   2.236   6.833
    1   AR   Ar   95   2.342   1.275   7.316
    1   AR   Ar   96   2.614   2.351   5.772
    1   AR   Ar   97   2.029   3.969  -0.464
    1   AR   Ar   98   2.959   4.300   1.644
    1   AR   Ar   99   3.044   3.216  -0.869
    1   AR   Ar  100   2.587   4.923  -0.276
    1   AR   Ar  101   1.398   3.038   1.667
    1   AR   Ar  102   2.053   4.421   3.424
    1   AR   Ar  103   2.019   3.960   2.225
    1   AR   Ar  104   2.878   4.143   0.485
    1   AR   Ar  105   1.931   3.094   3.664
    1   AR   Ar  106   1.907   4.002   4.358
    1   AR   Ar  107   2.763   4.198   5.024
    1   AR   Ar  108   2.975   3.697   3.839
    1   AR   Ar  109   0.699   4.104   4.860
    1   AR   Ar  110   1.655   3.561   5.398
    1   AR   Ar  111   3.148   4.896   6.717
    1   AR   Ar  112   2.182   3.747   6.294
    1   AR   Ar  113   1.874   4.906   0.540
    1   AR   Ar  114   1.669   5.987   0.925
    1   AR   Ar  115   3.375   5.408   0.817
    1   AR   Ar  116   2.616   0.056  -0.442
    1   AR   Ar  117   1.493   4.849   2.694
    1   AR   Ar  118   1.425   5.841   2.669
    1   AR   Ar  119   2.525   4.753   2.546
    1   AR   Ar  120   2.222   5.104   1.696
    1   AR   Ar  121   1.142   5.063   3.624
    1   AR   Ar  122   2.414   6.466   4.307
    1   AR   Ar  123   2.422   5.327   4.623
    1   AR   Ar  124   2.513   6.276   2.807
    1   AR   Ar  125   1.419   4.884   4.795
    1   AR   Ar  126   1.485   6.405   6.067
    1   AR   Ar  127   2.222   5.865   7.435
    1   AR   Ar  128   2.624   6.700   6.002
    1   AR   Ar  129   3.148   6.672   0.756
    1   AR   Ar  130   4.108   0.461  -0.584
    1   AR   Ar  131   4.304   6.952   0.710
    1   AR   Ar  132   4.487   1.704  -0.896
    1   AR   Ar  133   3.773   0.052   2.704
    1   AR   Ar  134   2.744   0.724   2.663
    1   AR   Ar  135   4.946   0.174   2.841
    1   AR   Ar  136   3.785   0.365   1.526
    1   AR   Ar  137   2.909   7.105   3.312
    1   AR   Ar  138   3.816   1.267   4.626
    1   AR   Ar  139   4.229   0.071   4.048
    1   AR   Ar  140   4.329   1.060   3.445
    1   AR   Ar  141   3.324   7.050   4.813
    1   AR   Ar  142   3.940   0.627   6.010
    1   AR   Ar  143   4.880   6.599   6.198
    1   AR   Ar  144   5.069   1.235   6.460
    1   AR   Ar  145   2.755   2.399   0.652
    1   AR   Ar  146   4.182   2.904   1.139
    1   AR   Ar  147   4.455   1.835   0.815
    1   AR   Ar  148   5.928   2.791  -0.384
    1   AR   Ar  149   3.831   2.008   1.604
    1   AR   Ar  150   2.728   1.854   2.953
    1   AR   Ar  151   3.800   2.034   3.062
    1   AR   Ar  152   3.440   2.657   2.325
    1   AR   Ar  153   3.307   1.355   3.720
    1   AR   Ar  154   3.884   2.398   4.272
    1   AR   Ar  155   4.650   1.716   5.330
    1   AR   Ar  156   4.946   3.719   4.225
    1   AR   Ar  157   3.614   2.073   5.291
    1   AR   Ar  158   3.322   2.246   6.474
    1   AR   Ar  159   4.104   1.503   6.776
    1   AR   Ar  160   4.402   3.035   5.344
    1   AR   Ar  161   4.428   3.190  -0.273
    1   AR   Ar  162   4.316   4.642   0.461
    1   AR   Ar  163   4.913   3.423   0.767
    1   AR   Ar  164   5.397   4.589   1.007
    1   AR   Ar  165   3.668   3.735   2.393
    1   AR   Ar  166   3.432   4.657   3.223
    1   AR   Ar  167   4.522   3.081   3.211
    1   AR   Ar  168   3.881   3.884   1.379
    1   AR   Ar  169   2.941   2.932   3.153
    1   AR   Ar  170   3.092   4.764   4.220
    1   AR   Ar  171   3.780   3.747   4.855
    1   AR   Ar  172   4.181   4.738   4.333
    1   AR   Ar  173   3.469   3.238   6.020
    1   AR   Ar  174   3.843   5.549   5.979
    1   AR   Ar  175   3.960   4.117   6.325
    1   AR   Ar  176   3.639   4.730   5.292
    1   AR   Ar  177   5.365   5.909   0.566
    1   AR   Ar  178   3.751   6.341   1.455
    1   AR   Ar  179   4.541   5.367   1.532
    1   AR   Ar  180   4.023   5.970  -0.193
    1   AR   Ar  181   3.439   5.325   1.808
    1   AR   Ar  182   2.569   6.041   1.722
    1   AR   Ar  183   4.154   4.896   2.413
    1   AR   Ar  184   4.198   6.114   2.449
    1   AR   Ar  185   2.144   5.452   3.496
    1   AR   Ar  186   3.134   5.813   4.002
    1   AR   Ar  187   4.603   5.315   3.272
    1   AR   Ar  188   3.412   5.664   3.070
    1   AR   Ar  189   2.804   5.268   5.624
    1   AR   Ar  190   3.814   7.099   6.807
    1   AR   Ar  191   4.582   5.923   5.235
    1   AR   Ar  192   3.642   6.417   5.517
    1   AR   Ar  193   5.512   0.148  -0.065
    1   AR   Ar  194   4.723   1.003   0.329
    1   AR   Ar  195   5.968   1.218   0.787
    1   AR   Ar  196   5.760   1.298  -0.326
    1   AR   Ar  197   4.933   0.452   1.341
    1   AR   Ar  198   5.189   1.349   1.896
    1   AR   Ar  199   6.434   0.669   2.266
    1   AR   Ar  200   6.649   1.765   1.523
    1   AR   Ar  201   4.468   6.425   3.340
    1   AR   Ar  202   5.088   0.890   4.254
    1   AR   Ar  203   6.960   6.403   4.882
    1   AR   Ar  204   6.561   0.350   3.555
    1   AR   Ar  205   5.099   6.965   4.474
    1   AR   Ar  206   5.492   7.021   5.428
    1   AR   Ar  207   6.743   6.983   6.072
    1   AR   Ar  208   6.066   0.589   4.563
    1   AR   Ar  209   6.872   2.361  -0.513
    1   AR   Ar  210   5.130   2.584   1.344
    1   AR   Ar  211   6.056   2.313   0.651
    1   AR   Ar  212   6.817   3.481  -0.060
    1   AR   Ar  213   4.799   2.305   2.264
    1   AR   Ar  214   4.636   3.392   2.219
    1   AR   Ar  215   5.918   2.041   2.384
    1   AR   Ar  216   6.553   2.752   1.781
    1   AR   Ar  217   5.058   2.146   3.272
    1   AR   Ar  218   5.118   2.040   4.387
    1   AR   Ar  219   5.671   1.310   3.545
    1   AR   Ar  220   6.181   2.860   3.023
    1   AR   Ar  221   5.501   0.925   5.367
    1   AR   Ar  222   4.728   2.328   6.198
    1   AR   Ar  223   6.931   1.401   7.218
    1   AR   Ar  224   6.415   2.575   5.251
    1   AR   Ar  225   4.982   4.086  -0.114
    1   AR   Ar  226   5.089   4.555   2.023
    1   AR   Ar  227   6.721   3.776   1.871
    1   AR   Ar  228   6.605   5.181   0.361
    1   AR   Ar  229   6.116   3.391   0.716
    1   AR   Ar  230   4.528   4.168   3.314
    1   AR   Ar  231   6.964   3.021   3.852
    1   AR   Ar  232   5.546   3.707   1.524
    1   AR   Ar  233   5.715   2.934   4.110
    1   AR   Ar  234   5.864   4.173   4.779
    1   AR   Ar  235   6.805   3.931   4.517
    1   AR   Ar  236   6.067   3.694   3.519
    1   AR   Ar  237   5.418   3.201   5.163
    1   AR   Ar  238   4.848   4.688   6.242
    1   AR   Ar  239   5.598   3.617   7.790
    1   AR   Ar  240   6.212   3.830   5.845
    1   AR   Ar  241   6.610   0.205   0.026
    1   AR   Ar  242   5.082   6.252   1.584
    1   AR   Ar  243   6.317   4.700   2.044
    1   AR   Ar  244   6.149   0.143   1.051
    1   AR   Ar  245   5.473   5.546   2.423
    1   AR   Ar  246   5.928   6.486   3.190
    1   AR   Ar  247   5.640   3.604   2.463
    1   AR   Ar  248   6.004   6.421   2.167
    1   AR   Ar  249   6.420   5.512   3.012
    1   AR   Ar  250   4.955   5.849   4.222
    1   AR   Ar  251   6.035   4.881   3.911
    1   AR   Ar  252   5.993   6.076   4.125
    1   AR   Ar  253   5.115   4.864   5.057
    1   AR   Ar  254   5.711   5.630   6.080
    1   AR   Ar  255   6.303   4.868   5.652
    1   AR   Ar  256   5.867   6.097   5.129
    7.12000  7.12000 12.00000
Argon-slab step 630
  256
    1   AR   Ar    1   1.052   1.112  -0.930
    1   AR   Ar    2   0.281   0.927   0.966
    1   AR   Ar    3   0.589   6.793   0.660
    1   AR   Ar    4   1.365   0.252   0.061
    1   AR   Ar    5   6.977   6.726   1.480
    1   AR   Ar    6   0.196   0.566   2.930
    1   AR   Ar    7   0.634   6.691   2.352
    1   AR   Ar    8   1.077   0.225   1.374
    1   AR   Ar    9   0.523   0.132   4.051
    1   AR   Ar   10   0.089   1.173   4.394
    1   AR   Ar   11   1.616   0.214   4.280
    1   AR   Ar   12   1.102   1.049   3.683
    1   AR   Ar   13   0.037   0.402   5.167
    1   AR   Ar   14   0.300   1.204   6.165
    1   AR   Ar   15   1.715   7.073   7.375
    1   AR   Ar   16   0.994   0.879   5.541
    1   AR   Ar   17   6.843   1.454   0.217
    1   AR   Ar   18   0.094   2.532   0.411
    1   AR   Ar   19   0.845   1.859   0.829
    1   AR   Ar   20   0.887   2.104  -0.843
    1   AR   Ar   21   0.565   0.788   1.991
    1   AR   Ar   22   7.009   2.425   2.750
    1   AR   Ar   23   7.045   1.480   2.468
    1   AR   Ar   24   0.446   2.284   1.783
    1   AR   Ar   25   0.425   2.000   3.643
    1   AR   Ar   26   6.576   2.121   4.109
    1   AR   Ar   27   0.488   1.994   5.253
    1   AR   Ar   28   0.950   2.740   4.169
    1   AR   Ar   29   6.595   1.232   5.305
    1   AR   Ar   30   0.019   2.245   6.206
    1   AR   Ar   31   0.992   1.157   7.032
    1   AR   Ar   32   0.812   2.780   5.848
    1   AR   Ar   33   0.655   3.680  -0.473
    1   AR   Ar   34   0.194   5.015   1.296
    1   AR   Ar   35   0.390   3.421   1.026
    1   AR   Ar   36   1.764   5.826  -1.012
    1   AR   Ar   37   0.086   3.430   2.855
    1   AR   Ar   38   0.480   4.482   2.753
    1   AR   Ar   39   1.244   3.752   3.003
    1   AR   Ar   40   1.046   4.396   1.758
    1   AR   Ar   41   0.857   2.701   3.008
    1   AR   Ar   42   0.016   5.000   4.976
    1   AR   Ar   43   0.368   3.162   4.828
    1   AR   Ar   44   0.564   3.770   3.807
    1   AR   Ar   45   0.065   4.058   5.642
    1   AR   Ar   46   0.097   4.845   6.425
    1   AR   Ar   47   0.381   3.869   6.611
    1   AR   Ar   48   1.118   4.501   6.134
    1   AR   Ar   49   0.319   4.773  -0.585
    1   AR   Ar   50   6.137   5.468   1.381
    1   AR   Ar   51   1.002   4.266   0.752
    1   AR   Ar   52   0.791   5.310   0.445
    1   AR   Ar   53   7.019   5.805   2.054
    1   AR   Ar   54   7.075   6.448   3.624
    1   AR   Ar   55   0.428   5.691   2.983
    1   AR   Ar   56   0.921   5.999   1.597
    1   AR   Ar   57   0.037   4.730   3.794
    1   AR   Ar   58   0.250   5.636   4.212
    1   AR   Ar   59   1.533   6.136   4.853
    1   AR   Ar   60   1.055   6.280   3.849
    1   AR   Ar   61   6.863   5.868   5.777
    1   AR   Ar   62   0.810   5.492   5.597
    1   AR   Ar   63   1.841   5.538   5.521
    1   AR   Ar   64   0.800   6.793   4.952
    1   AR   Ar   65   1.844   6.359  -0.117
    1   AR   Ar   66   1.757   1.077   1.155
    1   AR   Ar   67   2.948   6.027  -0.022
    1   AR   Ar   68   3.584   1.140   0.931
    1   AR   Ar   69   2.018   7.099   0.915
    1   AR   Ar   70   1.310   0.434   2.594
    1   AR   Ar   71   1.977   7.031   1.941
    1   AR   Ar   72   2.715   0.515   1.543
    1   AR   Ar   73   1.690   6.815   3.180
    1   AR   Ar   74   1.477   1.436   4.739
    1   AR   Ar   75   2.600   0.743   4.619
    1   AR   Ar   76   2.158   0.910   3.449
    1   AR   Ar   77   2.000   0.211   5.362
    1   AR   Ar   78   1.557   0.359   6.352
    1   AR   Ar   79   2.829   0.151   6.852
    1   AR   Ar   80   2.710   1.006   5.995
    1   AR   Ar   81   2.446   1.473   0.137
    1   AR   Ar   82   2.046   3.897   1.176
    1   AR   Ar   83   2.670   1.980   1.735
    1   AR   Ar   84   1.622   3.092  -0.848
    1   AR   Ar   85   1.599   1.990   1.641
    1   AR   Ar   86   1.911   2.678   2.554
    1   AR   Ar   87   1.953   1.262   2.323
    1   AR   Ar   88   2.952   2.941   1.575
    1   AR   Ar   89   0.948   1.701   2.515
    1   AR   Ar   90   2.869   3.063   4.822
    1   AR   Ar   91   2.751   2.009   4.521
    1   AR   Ar   92   1.703   1.832   3.269
    1   AR   Ar   93   1.726   1.772   5.797
    1   AR   Ar   94   2.328   2.217   6.824
    1   AR   Ar   95   2.331   1.258   7.328
    1   AR   Ar   96   2.601   2.312   5.787
    1   AR   Ar   97   2.017   3.944  -0.494
    1   AR   Ar   98   2.992   4.306   1.656
    1   AR   Ar   99   3.046   3.221  -0.884
    1   AR   Ar  100   2.555   4.927  -0.298
    1   AR   Ar  101   1.423   3.030   1.656
    1   AR   Ar  102   2.068   4.404   3.421
    1   AR   Ar  103   2.051   3.937   2.240
    1   AR   Ar  104   2.843   4.119   0.500
    1   AR   Ar  105   1.903   3.112   3.631
    1   AR   Ar  106   1.931   3.954   4.329
    1   AR   Ar  107   2.792   4.198   5.036
    1   AR   Ar  108   2.966   3.675   3.838
    1   AR   Ar  109   0.692   4.129   4.858
    1   AR   Ar  110   1.657   3.569   5.402
    1   AR   Ar  111   3.137   4.886   6.735
    1   AR   Ar  112   2.185   3.724   6.286
    1   AR   Ar  113   1.857   4.911   0.539
    1   AR   Ar  114   1.662   5.970   0.914
    1   AR   Ar  115   3.404   5.395   0.770
    1   AR   Ar  116   2.623   0.037  -0.426
    1   AR   Ar  117   1.534   4.818   2.649
    1   AR   Ar  118   1.395   5.838   2.675
    1   AR   Ar  119   2.542   4.744   2.560
    1   AR   Ar  120   2.229   5.127   1.684
    1   AR   Ar  121   1.118   5.033   3.624
    1   AR   Ar  122   2.411   6.437   4.292
    1   AR   Ar  123   2.385   5.345   4.597
    1   AR   Ar  124   2.533   6.242   2.815
    1   AR   Ar  125   1.405   4.888   4.780
    1   AR   Ar  126   1.507   6.399   6.075
    1   AR   Ar  127   2.197   5.853   7.463
    1   AR   Ar  128   2.609   6.660   5.992
    1   AR   Ar  129   3.102   6.645   0.745
    1   AR   Ar  130   4.085   0.462  -0.622
    1   AR   Ar  131   4.325   6.943   0.693
    1   AR   Ar  132   4.514   1.728  -0.906
    1   AR   Ar  133   3.799   0.073   2.711
    1   AR   Ar  134   2.750   0.715   2.659
    1   AR   Ar  135   4.943   0.182   2.847
    1   AR   Ar  136   3.768   0.354   1.547
    1   AR   Ar  137   2.938   7.088   3.309
    1   AR   Ar  138   3.835   1.279   4.652
    1   AR   Ar  139   4.219   0.072   4.041
    1   AR   Ar  140   4.345   1.075   3.439
    1   AR   Ar  141   3.383   7.054   4.810
    1   AR   Ar  142   3.959   0.592   5.975
    1   AR   Ar  143   4.941   6.609   6.207
    1   AR   Ar  144   5.092   1.221   6.466
    1   AR   Ar  145   2.751   2.406   0.618
    1   AR   Ar  146   4.184   2.876   1.130
    1   AR   Ar  147   4.454   1.836   0.829
    1   AR   Ar  148   5.932   2.835  -0.376
    1   AR   Ar  149   3.868   2.020   1.611
    1   AR   Ar  150   2.702   1.818   2.968
    1   AR   Ar  151   3.764   2.038   3.089
    1   AR   Ar  152   3.438   2.670   2.339
    1   AR   Ar  153   3.307   1.386   3.727
    1   AR   Ar  154   3.871   2.377   4.279
    1   AR   Ar  155   4.696   1.692   5.360
    1   AR   Ar  156   4.952   3.709   4.233
    1   AR   Ar  157   3.653   2.048   5.282
    1   AR   Ar  158   3.340   2.275   6.503
    1   AR   Ar  159   4.101   1.487   6.753
    1   AR   Ar  160   4.384   3.046   5.321
    1   AR   Ar  161   4.436   3.201  -0.262
    1   AR   Ar  162   4.326   4.646   0.485
    1   AR   Ar  163   4.920   3.434   0.745
    1   AR   Ar  164   5.382   4.596   1.036
    1   AR   Ar  165   3.662   3.757   2.392
    1   AR   Ar  166   3.409   4.679   3.237
    1   AR   Ar  167   4.543   3.070   3.218
    1   AR   Ar  168   3.898   3.883   1.362
    1   AR   Ar  169   2.945   2.943   3.140
    1   AR   Ar  170   3.054   4.729   4.248
    1   AR   Ar  171   3.814   3.738   4.865
    1   AR   Ar  172   4.178   4.745   4.317
    1   AR   Ar  173   3.516   3.210   6.024
    1   AR   Ar  174   3.872   5.512   5.952
    1   AR   Ar  175   3.970   4.122   6.324
    1   AR   Ar  176   3.691   4.712   5.309
    1   AR   Ar  177   5.363   5.915   0.536
    1   AR   Ar  178   3.747   6.329   1.443
    1   AR   Ar  179   4.507   5.365   1.535
    1   AR   Ar  180   3.981   5.944  -0.206
    1   AR   Ar  181   3.440   5.355   1.805
    1   AR   Ar  182   2.569   6.037   1.718
    1   AR   Ar  183   4.152   4.868   2.411
    1   AR   Ar  184   4.178   6.093   2.438
    1   AR   Ar  185   2.131   5.488   3.496
    1   AR   Ar  186   3.150   5.794   4.017
    1   AR   Ar  187   4.612   5.344   3.273
    1   AR   Ar  188   3.395   5.689   3.079
    1   AR   Ar  189   2.823   5.279   5.656
    1   AR   Ar  190   3.829   7.090   6.785
    1   AR   Ar  191   4.574   5.911   5.212
    1   AR   Ar  192   3.601   6.412   5.508
    1   AR   Ar  193   5.531   0.158  -0.081
    1   AR   Ar  194   4.705   1.010   0.331
    1   AR   Ar  195   5.957   1.221   0.814
    1   AR   Ar  196   5.760   1.295  -0.344
    1   AR   Ar  197   4.921   0.458   1.321
    1   AR   Ar  198   5.194   1.347   1.891
    1   AR   Ar  199   6.441   0.679   2.251
    1   AR   Ar  200   6.642   1.756   1.540
    1   AR   Ar  201   4.464   6.424   3.340
    1   AR   Ar  202   5.086   0.852   4.265
    1   AR   Ar  203   6.964   6.412   4.880
    1   AR   Ar  204   6.554   0.355   3.543
    1   AR   Ar  205   5.121   6.939   4.440
    1   AR   Ar  206   5.476   7.027   5.418
    1   AR   Ar  207   6.759   6.986   6.067
    1   AR   Ar  208   6.073   0.582   4.546
    1   AR   Ar  209   6.857   2.329  -0.531
    1   AR   Ar  210   5.091   2.591   1.351
    1   AR   Ar  211   6.082   2.335   0.647
    1   AR   Ar  212   6.846   3.488  -0.070
    1   AR   Ar  213   4.813   2.314   2.250
    1   AR   Ar  214   4.625   3.396   2.204
    1   AR   Ar  215   5.890   2.051   2.401
    1   AR   Ar  216   6.570   2.735   1.803
    1   AR   Ar  217   5.104   2.157   3.252
    1   AR   Ar  218   5.103   2.037   4.389
    1   AR   Ar  219   5.679   1.304   3.518
    1   AR   Ar  220   6.210   2.861   3.029
    1   AR   Ar  221   5.501   0.886   5.365
    1   AR   Ar  222   4.730   2.342   6.226
    1   AR   Ar  223   6.950   1.411   7.242
    1   AR   Ar  224   6.420   2.562   5.243
    1   AR   Ar  225   5.000   4.104  -0.121
    1   AR   Ar  226   5.084   4.553   2.007
    1   AR   Ar  227   6.720   3.769   1.876
    1   AR   Ar  228   6.632   5.160   0.386
    1   AR   Ar  229   6.145   3.407   0.723
    1   AR   Ar  230   4.545   4.167   3.315
    1   AR   Ar  231   6.976   2.999   3.850
    1   AR   Ar  232   5.560   3.713   1.528
    1   AR   Ar  233   5.730   2.936   4.080
    1   AR   Ar  234   5.904   4.127   4.827
    1   AR   Ar  235   6.809   3.875   4.516
    1   AR   Ar  236   6.041   3.695   3.543
    1   AR   Ar  237   5.414   3.220   5.156
    1   AR   Ar  238   4.835   4.676   6.211
    1   AR   Ar  239   5.607   3.625   7.816
    1   AR   Ar  240   6.204   3.814   5.851
    1   AR   Ar  241   6.605   0.208   0.010
    1   AR   Ar  242   5.081   6.233   1.570
    1   AR   Ar  243   6.286   4.698   2.059
    1   AR   Ar  244   6.139   0.109   1.056
    1   AR   Ar  245   5.486   5.515   2.394
    1   AR   Ar  246   5.907   6.515   3.200
    1   AR   Ar  247   5.664   3.616   2.489
    1   AR   Ar  248   6.010   6.414   2.175
    1   AR   Ar  249   6.442   5.526   3.047
    1   AR   Ar  250   4.976   5.882   4.210
    1   AR   Ar  251   6.032   4.864   3.892
    1   AR   Ar  252   6.008   6.057   4.126
    1   AR   Ar  253   5.117   4.880   5.071
    1   AR   Ar  254   5.712   5.640   6.087
    1   AR   Ar  255   6.297   4.831   5.659
    1   AR   Ar  256   5.868   6.078   5.131
    7.12000  7.12000 12.00000
Argon-slab step 635
  256
    1   AR   Ar    1   1.065   1.130  -0.943
    1   AR   Ar    2   0.302   0.938   0.944
    1   AR   Ar    3   0.537   6.822   0.680
    1   AR   Ar    4   1.378   0.249   0.075
    1   AR   Ar    5   6.947   6.711   1.462
    1   AR   Ar    6   0.224   0.565   2.955
    1   AR   Ar    7   0.590   6.713   2.379
    1   AR   Ar    8   1.078   0.216   1.365
    1   AR   Ar    9   0.522   0.161   4.058
    1   AR   Ar   10   0.087   1.196   4.426
    1   AR   Ar   11   1.606   0.200   4.290
    1   AR   Ar   12   1.102   1.075   3.669
    1   AR   Ar   13   0.031   0.369   5.151
    1   AR   Ar   14   0.290   1.240   6.197
    1   AR   Ar   15   1.705   7.021   7.382
    1   AR   Ar   16   0.971   0.889   5.516
    1   AR   Ar   17   6.867   1.468   0.222
    1   AR   Ar   18   0.093   2.559   0.382
    1   AR   Ar   19   0.846   1.868   0.815
    1   AR   Ar   20   0.885   2.093  -0.845
    1   AR   Ar   21   0.542   0.783   2.001
    1   AR   Ar   22   6.999   2.405   2.749
    1   AR   Ar   23   7.024   1.510   2.478
    1   AR   Ar   24   0.447   2.282   1.774
    1   AR   Ar   25   0.465   2.011   3.632
    1   AR   Ar   26   6.574   2.063   4.072
    1   AR   Ar   27   0.496   2.002   5.254
    1   AR   Ar   28   0.943   2.692   4.166
    1   AR   Ar   29   6.610   1.213   5.342
    1   AR   Ar   30   0.039   2.279   6.186
    1   AR   Ar   31   1.017   1.177   7.013
    1   AR   Ar   32   0.770   2.810   5.840
    1   AR   Ar   33   0.643   3.709  -0.469
    1   AR   Ar   34   0.190   5.050   1.299
    1   AR   Ar   35   0.367   3.447   1.052
    1   AR   Ar   36   1.757   5.828  -1.028
    1   AR   Ar   37   0.062   3.402   2.812
    1   AR   Ar   38   0.497   4.519   2.720
    1   AR   Ar   39   1.266   3.756   2.990
    1   AR   Ar   40   1.046   4.419   1.752
    1   AR   Ar   41   0.857   2.709   2.987
    1   AR   Ar   42   0.010   4.999   4.966
    1   AR   Ar   43   0.326   3.169   4.846
    1   AR   Ar   44   0.567   3.758   3.850
    1   AR   Ar   45   0.100   4.052   5.654
    1   AR   Ar   46   0.110   4.843   6.443
    1   AR   Ar   47   0.357   3.857   6.580
    1   AR   Ar   48   1.077   4.467   6.130
    1   AR   Ar   49   0.317   4.773  -0.581
    1   AR   Ar   50   6.140   5.444   1.411
    1   AR   Ar   51   1.005   4.231   0.742
    1   AR   Ar   52   0.767   5.303   0.463
    1   AR   Ar   53   7.028   5.820   2.045
    1   AR   Ar   54   7.074   6.464   3.587
    1   AR   Ar   55   0.422   5.696   2.988
    1   AR   Ar   56   0.930   6.012   1.600
    1   AR   Ar   57   0.007   4.721   3.772
    1   AR   Ar   58   0.237   5.605   4.186
    1   AR   Ar   59   1.537   6.144   4.844
    1   AR   Ar   60   1.067   6.298   3.852
    1   AR   Ar   61   6.877   5.855   5.766
    1   AR   Ar   62   0.784   5.529   5.601
    1   AR   Ar   63   1.833   5.530   5.535
    1   AR   Ar   64   0.764   6.792   4.942
    1   AR   Ar   65   1.824   6.381  -0.123
    1   AR   Ar   66   1.742   1.064   1.181
    1   AR   Ar   67   2.955   6.035  -0.055
    1   AR   Ar   68   3.609   1.161   0.930
    1   AR   Ar   69   2.008   7.077   0.930
    1   AR   Ar   70   1.351   0.455   2.577
    1   AR   Ar   71   1.992   7.054   1.930
    1   AR   Ar   72   2.740   0.575   1.554
    1   AR   Ar   73   1.705   6.845   3.181
    1   AR   Ar   74   1.468   1.428   4.732
    1   AR   Ar   75   2.620   0.777   4.639
    1   AR   Ar   76   2.126   0.891   3.476
    1   AR   Ar   77   1.997   0.182   5.341
    1   AR   Ar   78   1.535   0.375   6.331
    1   AR   Ar   79   2.819   0.135   6.857
    1   AR   Ar   80   2.710   1.007   6.019
    1   AR   Ar   81   2.445   1.452   0.147
    1   AR   Ar   82   2.035   3.881   1.168
    1   AR   Ar   83   2.661   1.969   1.722
    1   AR   Ar   84   1.611   3.093  -0.864
    1   AR   Ar   85   1.598   2.023   1.638
    1   AR   Ar   86   1.926   2.655   2.597
    1   AR   Ar   87   1.942   1.275   2.301
    1   AR   Ar   88   3.002   2.960   1.596
    1   AR   Ar   89   0.904   1.700   2.515
    1   AR   Ar   90   2.901   3.070   4.799
    1   AR   Ar   91   2.731   2.007   4.521
    1   AR   Ar   92   1.719   1.809   3.285
    1   AR   Ar   93   1.720   1.757   5.821
    1   AR   Ar   94   2.296   2.198   6.816
    1   AR   Ar   95   2.321   1.238   7.339
    1   AR   Ar   96   2.590   2.276   5.796
    1   AR   Ar   97   2.009   3.927  -0.520
    1   AR   Ar   98   3.022   4.314   1.668
    1   AR   Ar   99   3.047   3.226  -0.899
    1   AR   Ar  100   2.524   4.932  -0.319
    1   AR   Ar  101   1.446   3.027   1.644
    1   AR   Ar  102   2.085   4.383   3.421
    1   AR   Ar  103   2.059   3.922   2.273
    1   AR   Ar  104   2.810   4.097   0.514
    1   AR   Ar  105   1.874   3.129   3.596
    1   AR   Ar  106   1.953   3.904   4.306
    1   AR   Ar  107   2.816   4.190   5.058
    1   AR   Ar  108   2.947   3.654   3.862
    1   AR   Ar  109   0.692   4.157   4.850
    1   AR   Ar  110   1.656   3.577   5.402
    1   AR   Ar  111   3.127   4.877   6.750
    1   AR   Ar  112   2.190   3.701   6.281
    1   AR   Ar  113   1.840   4.915   0.541
    1   AR   Ar  114   1.661   5.954   0.899
    1   AR   Ar  115   3.433   5.381   0.719
    1   AR   Ar  116   2.632   0.009  -0.419
    1   AR   Ar  117   1.567   4.786   2.599
    1   AR   Ar  118   1.370   5.842   2.679
    1   AR   Ar  119   2.575   4.743   2.581
    1   AR   Ar  120   2.226   5.139   1.663
    1   AR   Ar  121   1.093   5.004   3.627
    1   AR   Ar  122   2.403   6.413   4.276
    1   AR   Ar  123   2.336   5.371   4.577
    1   AR   Ar  124   2.551   6.207   2.819
    1   AR   Ar  125   1.399   4.860   4.826
    1   AR   Ar  126   1.535   6.394   6.090
    1   AR   Ar  127   2.171   5.842   7.490
    1   AR   Ar  128   2.596   6.613   5.973
    1   AR   Ar  129   3.051   6.626   0.736
    1   AR   Ar  130   4.064   0.464  -0.659
    1   AR   Ar  131   4.344   6.934   0.674
    1   AR   Ar  132   4.542   1.752  -0.915
    1   AR   Ar  133   3.828   0.094   2.716
    1   AR   Ar  134   2.794   0.716   2.624
    1   AR   Ar  135   4.939   0.192   2.853
    1   AR   Ar  136   3.755   0.336   1.573
    1   AR   Ar  137   2.967   7.067   3.316
    1   AR   Ar  138   3.856   1.285   4.674
    1   AR   Ar  139   4.202   0.077   4.031
    1   AR   Ar  140   4.360   1.090   3.426
    1   AR   Ar  141   3.436   7.068   4.797
    1   AR   Ar  142   3.978   0.560   5.936
    1   AR   Ar  143   5.000   6.616   6.218
    1   AR   Ar  144   5.115   1.207   6.469
    1   AR   Ar  145   2.747   2.413   0.585
    1   AR   Ar  146   4.168   2.850   1.120
    1   AR   Ar  147   4.458   1.843   0.840
    1   AR   Ar  148   5.927   2.867  -0.370
    1   AR   Ar  149   3.898   2.028   1.628
    1   AR   Ar  150   2.677   1.784   2.979
    1   AR   Ar  151   3.736   2.040   3.112
    1   AR   Ar  152   3.454   2.674   2.359
    1   AR   Ar  153   3.302   1.412   3.738
    1   AR   Ar  154   3.859   2.378   4.284
    1   AR   Ar  155   4.742   1.666   5.390
    1   AR   Ar  156   4.957   3.698   4.241
    1   AR   Ar  157   3.688   2.031   5.281
    1   AR   Ar  158   3.365   2.300   6.534
    1   AR   Ar  159   4.095   1.472   6.728
    1   AR   Ar  160   4.380   3.047   5.308
    1   AR   Ar  161   4.443   3.210  -0.250
    1   AR   Ar  162   4.335   4.653   0.514
    1   AR   Ar  163   4.931   3.453   0.717
    1   AR   Ar  164   5.367   4.608   1.055
    1   AR   Ar  165   3.651   3.780   2.396
    1   AR   Ar  166   3.389   4.694   3.251
    1   AR   Ar  167   4.563   3.059   3.228
    1   AR   Ar  168   3.919   3.882   1.342
    1   AR   Ar  169   2.942   2.952   3.134
    1   AR   Ar  170   3.027   4.690   4.262
    1   AR   Ar  171   3.837   3.732   4.869
    1   AR   Ar  172   4.147   4.744   4.308
    1   AR   Ar  173   3.562   3.181   6.024
    1   AR   Ar  174   3.902   5.474   5.931
    1   AR   Ar  175   3.975   4.128   6.321
    1   AR   Ar  176   3.744   4.693   5.325
    1   AR   Ar  177   5.360   5.921   0.507
    1   AR   Ar  178   3.749   6.315   1.437
    1   AR   Ar  179   4.472   5.362   1.534
    1   AR   Ar  180   3.943   5.918  -0.218
    1   AR   Ar  181   3.437   5.383   1.807
    1   AR   Ar  182   2.574   6.049   1.713
    1   AR   Ar  183   4.147   4.838   2.412
    1   AR   Ar  184   4.158   6.067   2.418
    1   AR   Ar  185   2.119   5.525   3.496
    1   AR   Ar  186   3.170   5.775   4.042
    1   AR   Ar  187   4.620   5.371   3.273
    1   AR   Ar  188   3.385   5.715   3.073
    1   AR   Ar  189   2.847   5.289   5.688
    1   AR   Ar  190   3.850   7.077   6.766
    1   AR   Ar  191   4.567   5.900   5.191
    1   AR   Ar  192   3.562   6.401   5.509
    1   AR   Ar  193   5.548   0.170  -0.094
    1   AR   Ar  194   4.690   1.007   0.329
    1   AR   Ar  195   5.944   1.223   0.841
    1   AR   Ar  196   5.760   1.293  -0.360
    1   AR   Ar  197   4.909   0.463   1.301
    1   AR   Ar  198   5.200   1.347   1.885
    1   AR   Ar  199   6.435   0.700   2.233
    1   AR   Ar  200   6.634   1.741   1.551
    1   AR   Ar  201   4.476   6.424   3.332
    1   AR   Ar  202   5.079   0.817   4.279
    1   AR   Ar  203   6.962   6.422   4.874
    1   AR   Ar  204   6.539   0.358   3.538
    1   AR   Ar  205   5.149   6.908   4.405
    1   AR   Ar  206   5.463   7.023   5.409
    1   AR   Ar  207   6.774   6.989   6.059
    1   AR   Ar  208   6.085   0.573   4.527
    1   AR   Ar  209   6.843   2.295  -0.553
    1   AR   Ar  210   5.071   2.595   1.352
    1   AR   Ar  211   6.074   2.327   0.677
    1   AR   Ar  212   6.872   3.493  -0.080
    1   AR   Ar  213   4.805   2.308   2.270
    1   AR   Ar  214   4.616   3.401   2.183
    1   AR   Ar  215   5.863   2.053   2.419
    1   AR   Ar  216   6.584   2.722   1.826
    1   AR   Ar  217   5.125   2.175   3.251
    1   AR   Ar  218   5.087   2.033   4.390
    1   AR   Ar  219   5.690   1.298   3.490
    1   AR   Ar  220   6.224   2.862   3.037
    1   AR   Ar  221   5.499   0.862   5.365
    1   AR   Ar  222   4.731   2.356   6.254
    1   AR   Ar  223   6.970   1.422   7.264
    1   AR   Ar  224   6.427   2.549   5.233
    1   AR   Ar  225   5.021   4.122  -0.130
    1   AR   Ar  226   5.110   4.569   1.983
    1   AR   Ar  227   6.721   3.762   1.879
    1   AR   Ar  228   6.660   5.139   0.411
    1   AR   Ar  229   6.174   3.423   0.729
    1   AR   Ar  230   4.560   4.168   3.315
    1   AR   Ar  231   6.988   2.982   3.845
    1   AR   Ar  232   5.573   3.715   1.525
    1   AR   Ar  233   5.742   2.926   4.057
    1   AR   Ar  234   5.934   4.085   4.876
    1   AR   Ar  235   6.818   3.820   4.510
    1   AR   Ar  236   6.019   3.716   3.567
    1   AR   Ar  237   5.420   3.205   5.144
    1   AR   Ar  238   4.826   4.669   6.177
    1   AR   Ar  239   5.616   3.634   7.843
    1   AR   Ar  240   6.210   3.799   5.849
    1   AR   Ar  241   6.601   0.214  -0.004
    1   AR   Ar  242   5.100   6.240   1.572
    1   AR   Ar  243   6.253   4.696   2.078
    1   AR   Ar  244   6.126   0.077   1.060
    1   AR   Ar  245   5.496   5.483   2.365
    1   AR   Ar  246   5.885   6.546   3.210
    1   AR   Ar  247   5.690   3.628   2.529
    1   AR   Ar  248   6.024   6.430   2.152
    1   AR   Ar  249   6.432   5.530   3.056
    1   AR   Ar  250   4.996   5.912   4.197
    1   AR   Ar  251   6.030   4.847   3.874
    1   AR   Ar  252   6.033   6.034   4.117
    1   AR   Ar  253   5.080   4.875   5.062
    1   AR   Ar  254   5.711   5.650   6.096
    1   AR   Ar  255   6.291   4.798   5.665
    1   AR   Ar  256   5.866   6.058   5.160
    7.12000  7.12000 12.00000
Argon-slab step 640
  256
    1   AR   Ar    1   1.081   1.135  -0.957
    1   AR   Ar    2   0.324   0.946   0.924
    1   AR   Ar    3   0.484   6.848   0.694
    1   AR   Ar    4   1.391   0.247   0.091
    1   AR   Ar    5   6.920   6.695   1.448
    1   AR   Ar    6   0.258   0.563   2.982
    1   AR   Ar    7   0.549   6.693   2.364
    1   AR   Ar    8   1.085   0.205   1.357
    1   AR   Ar    9   0.518   0.194   4.061
    1   AR   Ar   10   0.087   1.219   4.457
    1   AR   Ar   11   1.596   0.186   4.300
    1   AR   Ar   12   1.089   1.110   3.657
    1   AR   Ar   13   0.024   0.334   5.133
    1   AR   Ar   14   0.276   1.276   6.230
    1   AR   Ar   15   1.695   6.970   7.388
    1   AR   Ar   16   0.996   0.920   5.521
    1   AR   Ar   17   6.870   1.486   0.200
    1   AR   Ar   18   0.091   2.586   0.358
    1   AR   Ar   19   0.847   1.877   0.801
    1   AR   Ar   20   0.881   2.095  -0.845
    1   AR   Ar   21   0.514   0.784   2.009
    1   AR   Ar   22   7.005   2.389   2.749
    1   AR   Ar   23   7.028   1.483   2.486
    1   AR   Ar   24   0.450   2.283   1.764
    1   AR   Ar   25   0.499   2.009   3.617
    1   AR   Ar   26   6.569   2.001   4.037
    1   AR   Ar   27   0.502   2.004   5.249
    1   AR   Ar   28   0.945   2.651   4.165
    1   AR   Ar   29   6.622   1.200   5.380
    1   AR   Ar   30   0.044   2.306   6.172
    1   AR   Ar   31   1.044   1.197   6.993
    1   AR   Ar   32   0.741   2.854   5.827
    1   AR   Ar   33   0.641   3.739  -0.468
    1   AR   Ar   34   0.181   5.105   1.298
    1   AR   Ar   35   0.341   3.470   1.080
    1   AR   Ar   36   1.751   5.829  -1.045
    1   AR   Ar   37   0.038   3.383   2.770
    1   AR   Ar   38   0.513   4.557   2.689
    1   AR   Ar   39   1.284   3.761   2.975
    1   AR   Ar   40   1.045   4.442   1.750
    1   AR   Ar   41   0.865   2.720   2.965
    1   AR   Ar   42   0.004   4.988   4.958
    1   AR   Ar   43   0.291   3.163   4.876
    1   AR   Ar   44   0.574   3.747   3.891
    1   AR   Ar   45   0.128   4.049   5.657
    1   AR   Ar   46   0.119   4.847   6.458
    1   AR   Ar   47   0.335   3.834   6.563
    1   AR   Ar   48   1.041   4.435   6.120
    1   AR   Ar   49   0.316   4.773  -0.575
    1   AR   Ar   50   6.127   5.432   1.439
    1   AR   Ar   51   0.993   4.220   0.729
    1   AR   Ar   52   0.746   5.296   0.479
    1   AR   Ar   53   7.033   5.827   2.032
    1   AR   Ar   54   7.070   6.481   3.550
    1   AR   Ar   55   0.411   5.699   2.998
    1   AR   Ar   56   0.933   6.024   1.608
    1   AR   Ar   57   7.095   4.705   3.746
    1   AR   Ar   58   0.229   5.584   4.159
    1   AR   Ar   59   1.539   6.158   4.825
    1   AR   Ar   60   1.077   6.315   3.854
    1   AR   Ar   61   6.889   5.839   5.756
    1   AR   Ar   62   0.756   5.566   5.603
    1   AR   Ar   63   1.832   5.512   5.543
    1   AR   Ar   64   0.738   6.793   4.937
    1   AR   Ar   65   1.805   6.403  -0.126
    1   AR   Ar   66   1.727   1.051   1.207
    1   AR   Ar   67   2.967   6.036  -0.069
    1   AR   Ar   68   3.633   1.184   0.929
    1   AR   Ar   69   2.001   7.053   0.935
    1   AR   Ar   70   1.387   0.479   2.561
    1   AR   Ar   71   2.007   7.072   1.928
    1   AR   Ar   72   2.762   0.637   1.563
    1   AR   Ar   73   1.723   6.870   3.186
    1   AR   Ar   74   1.474   1.411   4.719
    1   AR   Ar   75   2.639   0.812   4.657
    1   AR   Ar   76   2.100   0.865   3.505
    1   AR   Ar   77   1.993   0.152   5.320
    1   AR   Ar   78   1.515   0.392   6.311
    1   AR   Ar   79   2.804   0.121   6.861
    1   AR   Ar   80   2.710   1.008   6.042
    1   AR   Ar   81   2.443   1.429   0.158
    1   AR   Ar   82   2.020   3.865   1.163
    1   AR   Ar   83   2.633   1.967   1.728
    1   AR   Ar   84   1.650   3.099  -0.864
    1   AR   Ar   85   1.594   2.052   1.635
    1   AR   Ar   86   1.956   2.660   2.609
    1   AR   Ar   87   1.932   1.288   2.280
    1   AR   Ar   88   3.040   2.992   1.592
    1   AR   Ar   89   0.869   1.698   2.518
    1   AR   Ar   90   2.933   3.077   4.777
    1   AR   Ar   91   2.712   2.003   4.521
    1   AR   Ar   92   1.735   1.787   3.279
    1   AR   Ar   93   1.706   1.737   5.846
    1   AR   Ar   94   2.262   2.179   6.808
    1   AR   Ar   95   2.309   1.216   7.348
    1   AR   Ar   96   2.587   2.244   5.798
    1   AR   Ar   97   2.006   3.921  -0.539
    1   AR   Ar   98   3.048   4.323   1.681
    1   AR   Ar   99   3.047   3.232  -0.912
    1   AR   Ar  100   2.494   4.938  -0.340
    1   AR   Ar  101   1.467   3.032   1.633
    1   AR   Ar  102   2.103   4.363   3.421
    1   AR   Ar  103   2.066   3.898   2.302
    1   AR   Ar  104   2.780   4.077   0.526
    1   AR   Ar  105   1.847   3.143   3.560
    1   AR   Ar  106   1.974   3.854   4.293
    1   AR   Ar  107   2.833   4.172   5.093
    1   AR   Ar  108   2.928   3.640   3.891
    1   AR   Ar  109   0.692   4.182   4.836
    1   AR   Ar  110   1.651   3.586   5.396
    1   AR   Ar  111   3.118   4.867   6.763
    1   AR   Ar  112   2.198   3.679   6.279
    1   AR   Ar  113   1.817   4.920   0.545
    1   AR   Ar  114   1.666   5.937   0.881
    1   AR   Ar  115   3.463   5.368   0.668
    1   AR   Ar  116   2.655   7.112  -0.400
    1   AR   Ar  117   1.577   4.780   2.572
    1   AR   Ar  118   1.353   5.850   2.682
    1   AR   Ar  119   2.621   4.750   2.602
    1   AR   Ar  120   2.216   5.137   1.638
    1   AR   Ar  121   1.069   4.974   3.629
    1   AR   Ar  122   2.393   6.395   4.260
    1   AR   Ar  123   2.282   5.398   4.560
    1   AR   Ar  124   2.557   6.175   2.804
    1   AR   Ar  125   1.397   4.837   4.869
    1   AR   Ar  126   1.562   6.390   6.105
    1   AR   Ar  127   2.152   5.830   7.514
    1   AR   Ar  128   2.584   6.567   5.954
    1   AR   Ar  129   3.000   6.616   0.730
    1   AR   Ar  130   4.043   0.467  -0.694
    1   AR   Ar  131   4.362   6.923   0.655
    1   AR   Ar  132   4.570   1.775  -0.923
    1   AR   Ar  133   3.859   0.114   2.720
    1   AR   Ar  134   2.829   0.706   2.613
    1   AR   Ar  135   4.937   0.201   2.861
    1   AR   Ar  136   3.747   0.314   1.601
    1   AR   Ar  137   2.994   7.044   3.329
    1   AR   Ar  138   3.881   1.279   4.687
    1   AR   Ar  139   4.184   0.085   4.020
    1   AR   Ar  140   4.369   1.106   3.388
    1   AR   Ar  141   3.487   7.091   4.775
    1   AR   Ar  142   3.998   0.533   5.892
    1   AR   Ar  143   5.055   6.620   6.233
    1   AR   Ar  144   5.086   1.193   6.461
    1   AR   Ar  145   2.744   2.421   0.555
    1   AR   Ar  146   4.135   2.835   1.105
    1   AR   Ar  147   4.469   1.853   0.846
    1   AR   Ar  148   5.911   2.882  -0.371
    1   AR   Ar  149   3.919   2.031   1.658
    1   AR   Ar  150   2.657   1.752   2.983
    1   AR   Ar  151   3.721   2.026   3.116
    1   AR   Ar  152   3.491   2.670   2.388
    1   AR   Ar  153   3.293   1.429   3.758
    1   AR   Ar  154   3.865   2.386   4.255
    1   AR   Ar  155   4.786   1.640   5.419
    1   AR   Ar  156   4.963   3.689   4.250
    1   AR   Ar  157   3.719   2.025   5.292
    1   AR   Ar  158   3.391   2.321   6.567
    1   AR   Ar  159   4.087   1.456   6.702
    1   AR   Ar  160   4.401   3.034   5.310
    1   AR   Ar  161   4.449   3.218  -0.238
    1   AR   Ar  162   4.342   4.659   0.546
    1   AR   Ar  163   4.945   3.476   0.686
    1   AR   Ar  164   5.355   4.626   1.054
    1   AR   Ar  165   3.638   3.804   2.403
    1   AR   Ar  166   3.372   4.704   3.266
    1   AR   Ar  167   4.581   3.050   3.237
    1   AR   Ar  168   3.944   3.882   1.321
    1   AR   Ar  169   2.929   2.960   3.134
    1   AR   Ar  170   3.008   4.655   4.261
    1   AR   Ar  171   3.826   3.717   4.863
    1   AR   Ar  172   4.075   4.731   4.313
    1   AR   Ar  173   3.606   3.153   6.020
    1   AR   Ar  174   3.934   5.439   5.918
    1   AR   Ar  175   3.975   4.134   6.319
    1   AR   Ar  176   3.798   4.669   5.337
    1   AR   Ar  177   5.357   5.926   0.480
    1   AR   Ar  178   3.755   6.302   1.433
    1   AR   Ar  179   4.439   5.358   1.531
    1   AR   Ar  180   3.912   5.891  -0.229
    1   AR   Ar  181   3.430   5.409   1.814
    1   AR   Ar  182   2.583   6.077   1.707
    1   AR   Ar  183   4.141   4.806   2.416
    1   AR   Ar  184   4.147   6.069   2.401
    1   AR   Ar  185   2.106   5.560   3.497
    1   AR   Ar  186   3.192   5.754   4.074
    1   AR   Ar  187   4.627   5.395   3.273
    1   AR   Ar  188   3.384   5.739   3.059
    1   AR   Ar  189   2.874   5.299   5.719
    1   AR   Ar  190   3.873   7.060   6.748
    1   AR   Ar  191   4.561   5.889   5.170
    1   AR   Ar  192   3.525   6.383   5.517
    1   AR   Ar  193   5.561   0.183  -0.106
    1   AR   Ar  194   4.678   0.996   0.323
    1   AR   Ar  195   5.929   1.223   0.868
    1   AR   Ar  196   5.760   1.290  -0.373
    1   AR   Ar  197   4.899   0.469   1.282
    1   AR   Ar  198   5.206   1.347   1.878
    1   AR   Ar  199   6.427   0.717   2.212
    1   AR   Ar  200   6.624   1.720   1.556
    1   AR   Ar  201   4.489   6.427   3.328
    1   AR   Ar  202   5.068   0.788   4.293
    1   AR   Ar  203   6.950   6.429   4.865
    1   AR   Ar  204   6.519   0.360   3.537
    1   AR   Ar  205   5.182   6.876   4.370
    1   AR   Ar  206   5.453   7.005   5.397
    1   AR   Ar  207   6.789   6.991   6.050
    1   AR   Ar  208   6.101   0.561   4.507
    1   AR   Ar  209   6.828   2.260  -0.578
    1   AR   Ar  210   5.071   2.598   1.351
    1   AR   Ar  211   6.067   2.319   0.707
    1   AR   Ar  212   6.889   3.496  -0.087
    1   AR   Ar  213   4.787   2.298   2.302
    1   AR   Ar  214   4.610   3.406   2.159
    1   AR   Ar  215   5.838   2.055   2.435
    1   AR   Ar  216   6.592   2.709   1.856
    1   AR   Ar  217   5.132   2.196   3.266
    1   AR   Ar  218   5.081   2.039   4.374
    1   AR   Ar  219   5.703   1.290   3.463
    1   AR   Ar  220   6.220   2.869   3.052
    1   AR   Ar  221   5.497   0.857   5.365
    1   AR   Ar  222   4.731   2.369   6.281
    1   AR   Ar  223   6.991   1.433   7.284
    1   AR   Ar  224   6.436   2.537   5.222
    1   AR   Ar  225   5.044   4.142  -0.139
    1   AR   Ar  226   5.131   4.581   1.976
    1   AR   Ar  227   6.723   3.756   1.882
    1   AR   Ar  228   6.689   5.118   0.437
    1   AR   Ar  229   6.204   3.437   0.734
    1   AR   Ar  230   4.574   4.171   3.312
    1   AR   Ar  231   7.001   2.965   3.837
    1   AR   Ar  232   5.587   3.713   1.522
    1   AR   Ar  233   5.751   2.903   4.042
    1   AR   Ar  234   5.956   4.049   4.924
    1   AR   Ar  235   6.823   3.777   4.495
    1   AR   Ar  236   6.002   3.755   3.589
    1   AR   Ar  237   5.427   3.188   5.131
    1   AR   Ar  238   4.822   4.666   6.140
    1   AR   Ar  239   5.625   3.643   7.870
    1   AR   Ar  240   6.214   3.776   5.850
    1   AR   Ar  241   6.600   0.220  -0.015
    1   AR   Ar  242   5.118   6.249   1.574
    1   AR   Ar  243   6.219   4.690   2.103
    1   AR   Ar  244   6.108   0.048   1.062
    1   AR   Ar  245   5.506   5.452   2.337
    1   AR   Ar  246   5.863   6.579   3.221
    1   AR   Ar  247   5.715   3.642   2.574
    1   AR   Ar  248   6.039   6.445   2.126
    1   AR   Ar  249   6.422   5.535   3.065
    1   AR   Ar  250   4.982   5.925   4.180
    1   AR   Ar  251   6.027   4.830   3.857
    1   AR   Ar  252   6.063   6.010   4.108
    1   AR   Ar  253   5.089   4.879   5.059
    1   AR   Ar  254   5.712   5.657   6.107
    1   AR   Ar  255   6.286   4.790   5.668
    1   AR   Ar  256   5.866   6.037   5.186
    7.12000  7.12000 12.00000
Argon-slab step 645
  256
    1   AR   Ar    1   1.099   1.129  -0.971
    1   AR   Ar    2   0.345   0.951   0.906
    1   AR   Ar    3   0.506   6.816   0.742
    1   AR   Ar    4   1.401   0.247   0.107
    1   AR   Ar    5   6.896   6.679   1.440
    1   AR   Ar    6   0.296   0.560   3.012
    1   AR   Ar    7   0.508   6.676   2.350
    1   AR   Ar    8   1.093   0.195   1.356
    1   AR   Ar    9   0.513   0.230   4.061
    1   AR   Ar   10   0.090   1.242   4.487
    1   AR   Ar   11   1.587   0.171   4.308
    1   AR   Ar   12   1.069   1.137   3.648
    1   AR   Ar   13   0.013   0.306   5.114
    1   AR   Ar   14   0.260   1.309   6.262
    1   AR   Ar   15   1.686   6.919   7.391
    1   AR   Ar   16   1.019   0.949   5.524
    1   AR   Ar   17   6.871   1.504   0.178
    1   AR   Ar   18   0.090   2.612   0.339
    1   AR   Ar   19   0.849   1.887   0.788
    1   AR   Ar   20   0.873   2.110  -0.842
    1   AR   Ar   21   0.486   0.785   2.012
    1   AR   Ar   22   7.022   2.378   2.755
    1   AR   Ar   23   7.024   1.439   2.494
    1   AR   Ar   24   0.454   2.285   1.752
    1   AR   Ar   25   0.519   1.991   3.592
    1   AR   Ar   26   6.561   1.939   4.001
    1   AR   Ar   27   0.509   2.002   5.239
    1   AR   Ar   28   0.957   2.623   4.175
    1   AR   Ar   29   6.631   1.191   5.419
    1   AR   Ar   30   0.032   2.323   6.166
    1   AR   Ar   31   1.073   1.216   6.973
    1   AR   Ar   32   0.730   2.914   5.809
    1   AR   Ar   33   0.653   3.748  -0.476
    1   AR   Ar   34   0.171   5.157   1.305
    1   AR   Ar   35   0.313   3.489   1.108
    1   AR   Ar   36   1.745   5.829  -1.062
    1   AR   Ar   37   0.016   3.374   2.732
    1   AR   Ar   38   0.526   4.595   2.660
    1   AR   Ar   39   1.295   3.770   2.960
    1   AR   Ar   40   1.045   4.463   1.746
    1   AR   Ar   41   0.879   2.735   2.942
    1   AR   Ar   42   7.116   4.974   4.954
    1   AR   Ar   43   0.273   3.138   4.918
    1   AR   Ar   44   0.586   3.737   3.926
    1   AR   Ar   45   0.147   4.049   5.645
    1   AR   Ar   46   0.124   4.858   6.471
    1   AR   Ar   47   0.315   3.799   6.568
    1   AR   Ar   48   1.012   4.406   6.105
    1   AR   Ar   49   0.314   4.774  -0.567
    1   AR   Ar   50   6.113   5.427   1.460
    1   AR   Ar   51   0.971   4.224   0.713
    1   AR   Ar   52   0.729   5.292   0.489
    1   AR   Ar   53   7.022   5.807   1.998
    1   AR   Ar   54   7.064   6.501   3.514
    1   AR   Ar   55   0.394   5.698   3.011
    1   AR   Ar   56   0.932   6.037   1.617
    1   AR   Ar   57   7.062   4.680   3.716
    1   AR   Ar   58   0.224   5.576   4.131
    1   AR   Ar   59   1.540   6.173   4.803
    1   AR   Ar   60   1.085   6.331   3.856
    1   AR   Ar   61   6.895   5.822   5.748
    1   AR   Ar   62   0.732   5.600   5.604
    1   AR   Ar   63   1.833   5.490   5.547
    1   AR   Ar   64   0.737   6.800   4.941
    1   AR   Ar   65   1.789   6.424  -0.127
    1   AR   Ar   66   1.721   1.040   1.218
    1   AR   Ar   67   2.964   6.033  -0.084
    1   AR   Ar   68   3.635   1.200   0.907
    1   AR   Ar   69   1.997   7.028   0.929
    1   AR   Ar   70   1.415   0.507   2.547
    1   AR   Ar   71   2.024   7.087   1.935
    1   AR   Ar   72   2.780   0.703   1.567
    1   AR   Ar   73   1.745   6.892   3.194
    1   AR   Ar   74   1.482   1.394   4.703
    1   AR   Ar   75   2.659   0.848   4.675
    1   AR   Ar   76   2.080   0.832   3.534
    1   AR   Ar   77   1.989   0.122   5.299
    1   AR   Ar   78   1.496   0.409   6.292
    1   AR   Ar   79   2.786   0.108   6.865
    1   AR   Ar   80   2.708   1.009   6.066
    1   AR   Ar   81   2.440   1.405   0.170
    1   AR   Ar   82   2.000   3.851   1.163
    1   AR   Ar   83   2.609   1.965   1.735
    1   AR   Ar   84   1.680   3.086  -0.871
    1   AR   Ar   85   1.585   2.074   1.633
    1   AR   Ar   86   1.995   2.681   2.598
    1   AR   Ar   87   1.925   1.305   2.259
    1   AR   Ar   88   3.071   3.032   1.574
    1   AR   Ar   89   0.849   1.697   2.526
    1   AR   Ar   90   2.965   3.081   4.759
    1   AR   Ar   91   2.694   1.999   4.522
    1   AR   Ar   92   1.738   1.776   3.268
    1   AR   Ar   93   1.686   1.712   5.871
    1   AR   Ar   94   2.228   2.160   6.801
    1   AR   Ar   95   2.298   1.192   7.355
    1   AR   Ar   96   2.605   2.246   5.801
    1   AR   Ar   97   2.012   3.934  -0.550
    1   AR   Ar   98   3.070   4.334   1.691
    1   AR   Ar   99   3.045   3.238  -0.924
    1   AR   Ar  100   2.464   4.944  -0.360
    1   AR   Ar  101   1.485   3.048   1.624
    1   AR   Ar  102   2.123   4.344   3.421
    1   AR   Ar  103   2.077   3.869   2.326
    1   AR   Ar  104   2.755   4.061   0.534
    1   AR   Ar  105   1.823   3.150   3.526
    1   AR   Ar  106   1.992   3.806   4.291
    1   AR   Ar  107   2.846   4.148   5.140
    1   AR   Ar  108   2.912   3.632   3.919
    1   AR   Ar  109   0.688   4.197   4.818
    1   AR   Ar  110   1.643   3.596   5.386
    1   AR   Ar  111   3.109   4.858   6.775
    1   AR   Ar  112   2.208   3.658   6.279
    1   AR   Ar  113   1.785   4.924   0.550
    1   AR   Ar  114   1.675   5.922   0.861
    1   AR   Ar  115   3.492   5.356   0.620
    1   AR   Ar  116   2.678   7.094  -0.378
    1   AR   Ar  117   1.576   4.794   2.564
    1   AR   Ar  118   1.345   5.861   2.682
    1   AR   Ar  119   2.668   4.762   2.616
    1   AR   Ar  120   2.202   5.127   1.612
    1   AR   Ar  121   1.045   4.944   3.630
    1   AR   Ar  122   2.384   6.382   4.252
    1   AR   Ar  123   2.228   5.421   4.544
    1   AR   Ar  124   2.548   6.151   2.772
    1   AR   Ar  125   1.406   4.824   4.911
    1   AR   Ar  126   1.584   6.387   6.119
    1   AR   Ar  127   2.141   5.817   7.534
    1   AR   Ar  128   2.572   6.521   5.935
    1   AR   Ar  129   2.950   6.613   0.727
    1   AR   Ar  130   4.022   0.469  -0.727
    1   AR   Ar  131   4.378   6.910   0.635
    1   AR   Ar  132   4.598   1.798  -0.929
    1   AR   Ar  133   3.874   0.129   2.726
    1   AR   Ar  134   2.864   0.697   2.604
    1   AR   Ar  135   4.936   0.212   2.870
    1   AR   Ar  136   3.744   0.290   1.629
    1   AR   Ar  137   3.018   7.019   3.346
    1   AR   Ar  138   3.910   1.261   4.691
    1   AR   Ar  139   4.168   0.096   4.004
    1   AR   Ar  140   4.371   1.113   3.385
    1   AR   Ar  141   3.532   7.119   4.752
    1   AR   Ar  142   4.018   0.508   5.845
    1   AR   Ar  143   5.106   6.621   6.253
    1   AR   Ar  144   5.045   1.178   6.447
    1   AR   Ar  145   2.742   2.429   0.527
    1   AR   Ar  146   4.093   2.830   1.084
    1   AR   Ar  147   4.487   1.864   0.847
    1   AR   Ar  148   5.895   2.897  -0.368
    1   AR   Ar  149   3.932   2.026   1.700
    1   AR   Ar  150   2.652   1.755   2.970
    1   AR   Ar  151   3.716   2.016   3.118
    1   AR   Ar  152   3.541   2.663   2.414
    1   AR   Ar  153   3.278   1.435   3.790
    1   AR   Ar  154   3.876   2.404   4.235
    1   AR   Ar  155   4.827   1.616   5.448
    1   AR   Ar  156   4.968   3.679   4.259
    1   AR   Ar  157   3.746   2.032   5.313
    1   AR   Ar  158   3.417   2.337   6.603
    1   AR   Ar  159   4.077   1.441   6.674
    1   AR   Ar  160   4.426   3.012   5.315
    1   AR   Ar  161   4.454   3.225  -0.226
    1   AR   Ar  162   4.349   4.666   0.580
    1   AR   Ar  163   4.937   3.477   0.686
    1   AR   Ar  164   5.348   4.648   1.031
    1   AR   Ar  165   3.623   3.827   2.414
    1   AR   Ar  166   3.364   4.710   3.286
    1   AR   Ar  167   4.595   3.046   3.246
    1   AR   Ar  168   3.973   3.882   1.299
    1   AR   Ar  169   2.908   2.967   3.139
    1   AR   Ar  170   2.989   4.626   4.251
    1   AR   Ar  171   3.808   3.701   4.849
    1   AR   Ar  172   4.070   4.711   4.315
    1   AR   Ar  173   3.649   3.130   6.011
    1   AR   Ar  174   3.970   5.414   5.916
    1   AR   Ar  175   3.969   4.137   6.317
    1   AR   Ar  176   3.849   4.636   5.343
    1   AR   Ar  177   5.354   5.931   0.456
    1   AR   Ar  178   3.764   6.294   1.425
    1   AR   Ar  179   4.410   5.355   1.525
    1   AR   Ar  180   3.897   5.862  -0.241
    1   AR   Ar  181   3.417   5.427   1.824
    1   AR   Ar  182   2.587   6.105   1.706
    1   AR   Ar  183   4.134   4.773   2.423
    1   AR   Ar  184   4.141   6.078   2.383
    1   AR   Ar  185   2.091   5.591   3.501
    1   AR   Ar  186   3.218   5.730   4.109
    1   AR   Ar  187   4.634   5.414   3.271
    1   AR   Ar  188   3.396   5.757   3.045
    1   AR   Ar  189   2.902   5.308   5.748
    1   AR   Ar  190   3.898   7.041   6.732
    1   AR   Ar  191   4.557   5.880   5.150
    1   AR   Ar  192   3.491   6.360   5.528
    1   AR   Ar  193   5.570   0.197  -0.116
    1   AR   Ar  194   4.668   0.979   0.313
    1   AR   Ar  195   5.913   1.221   0.895
    1   AR   Ar  196   5.761   1.288  -0.383
    1   AR   Ar  197   4.890   0.476   1.264
    1   AR   Ar  198   5.212   1.347   1.870
    1   AR   Ar  199   6.415   0.728   2.190
    1   AR   Ar  200   6.614   1.695   1.557
    1   AR   Ar  201   4.502   6.434   3.326
    1   AR   Ar  202   5.055   0.764   4.306
    1   AR   Ar  203   6.930   6.434   4.871
    1   AR   Ar  204   6.497   0.360   3.536
    1   AR   Ar  205   5.218   6.849   4.336
    1   AR   Ar  206   5.446   6.977   5.379
    1   AR   Ar  207   6.804   6.993   6.040
    1   AR   Ar  208   6.120   0.549   4.489
    1   AR   Ar  209   6.813   2.225  -0.604
    1   AR   Ar  210   5.084   2.600   1.350
    1   AR   Ar  211   6.061   2.311   0.736
    1   AR   Ar  212   6.896   3.497  -0.090
    1   AR   Ar  213   4.763   2.289   2.334
    1   AR   Ar  214   4.606   3.410   2.133
    1   AR   Ar  215   5.813   2.058   2.455
    1   AR   Ar  216   6.592   2.694   1.893
    1   AR   Ar  217   5.144   2.212   3.287
    1   AR   Ar  218   5.080   2.050   4.346
    1   AR   Ar  219   5.718   1.280   3.436
    1   AR   Ar  220   6.205   2.878   3.072
    1   AR   Ar  221   5.497   0.865   5.366
    1   AR   Ar  222   4.728   2.382   6.307
    1   AR   Ar  223   7.003   1.456   7.286
    1   AR   Ar  224   6.446   2.525   5.210
    1   AR   Ar  225   5.069   4.163  -0.148
    1   AR   Ar  226   5.143   4.586   1.989
    1   AR   Ar  227   6.722   3.753   1.882
    1   AR   Ar  228   6.716   5.097   0.461
    1   AR   Ar  229   6.236   3.449   0.738
    1   AR   Ar  230   4.570   4.181   3.310
    1   AR   Ar  231   7.012   2.944   3.825
    1   AR   Ar  232   5.599   3.707   1.522
    1   AR   Ar  233   5.757   2.870   4.033
    1   AR   Ar  234   5.963   4.026   4.951
    1   AR   Ar  235   6.813   3.755   4.467
    1   AR   Ar  236   5.988   3.804   3.612
    1   AR   Ar  237   5.436   3.167   5.118
    1   AR   Ar  238   4.824   4.668   6.100
    1   AR   Ar  239   5.633   3.651   7.896
    1   AR   Ar  240   6.219   3.745   5.860
    1   AR   Ar  241   6.604   0.229  -0.024
    1   AR   Ar  242   5.135   6.257   1.575
    1   AR   Ar  243   6.189   4.677   2.134
    1   AR   Ar  244   6.084   0.027   1.067
    1   AR   Ar  245   5.515   5.431   2.314
    1   AR   Ar  246   5.849   6.600   3.217
    1   AR   Ar  247   5.738   3.659   2.616
    1   AR   Ar  248   6.057   6.460   2.100
    1   AR   Ar  249   6.413   5.541   3.074
    1   AR   Ar  250   4.946   5.918   4.159
    1   AR   Ar  251   6.022   4.815   3.842
    1   AR   Ar  252   6.097   5.985   4.099
    1   AR   Ar  253   5.103   4.880   5.068
    1   AR   Ar  254   5.713   5.660   6.124
    1   AR   Ar  255   6.282   4.801   5.670
    1   AR   Ar  256   5.867   6.018   5.205
    7.12000  7.12000 12.00000
Argon-slab step 650
  256
    1   AR   Ar    1   1.118   1.116  -0.985
    1   AR   Ar    2   0.366   0.951   0.890
    1   AR   Ar    3   0.518   6.798   0.744
    1   AR   Ar    4   1.409   0.252   0.125
    1   AR   Ar    5   6.876   6.661   1.437
    1   AR   Ar    6   0.336   0.556   3.044
    1   AR   Ar    7   0.467   6.662   2.339
    1   AR   Ar    8   1.104   0.188   1.363
    1   AR   Ar    9   0.505   0.266   4.059
    1   AR   Ar   10   0.096   1.262   4.516
    1   AR   Ar   11   1.577   0.156   4.314
    1   AR   Ar   12   1.043   1.151   3.643
    1   AR   Ar   13   7.113   0.291   5.097
    1   AR   Ar   14   0.245   1.339   6.292
    1   AR   Ar   15   1.679   6.868   7.392
    1   AR   Ar   16   1.037   0.975   5.525
    1   AR   Ar   17   6.870   1.522   0.158
    1   AR   Ar   18   0.090   2.634   0.324
    1   AR   Ar   19   0.838   1.874   0.810
    1   AR   Ar   20   0.863   2.133  -0.837
    1   AR   Ar   21   0.462   0.781   2.007
    1   AR   Ar   22   7.045   2.365   2.769
    1   AR   Ar   23   7.011   1.393   2.509
    1   AR   Ar   24   0.458   2.289   1.738
    1   AR   Ar   25   0.527   1.964   3.558
    1   AR   Ar   26   6.551   1.880   3.964
    1   AR   Ar   27   0.516   1.998   5.228
    1   AR   Ar   28   0.976   2.608   4.193
    1   AR   Ar   29   6.609   1.190   5.427
    1   AR   Ar   30   0.008   2.336   6.165
    1   AR   Ar   31   1.104   1.236   6.952
    1   AR   Ar   32   0.732   2.984   5.791
    1   AR   Ar   33   0.678   3.722  -0.494
    1   AR   Ar   34   0.164   5.199   1.317
    1   AR   Ar   35   0.290   3.494   1.132
    1   AR   Ar   36   1.740   5.828  -1.078
    1   AR   Ar   37   7.118   3.372   2.699
    1   AR   Ar   38   0.536   4.633   2.635
    1   AR   Ar   39   1.293   3.785   2.943
    1   AR   Ar   40   1.044   4.482   1.737
    1   AR   Ar   41   0.899   2.752   2.918
    1   AR   Ar   42   7.105   4.960   4.954
    1   AR   Ar   43   0.264   3.100   4.963
    1   AR   Ar   44   0.603   3.725   3.951
    1   AR   Ar   45   0.154   4.050   5.622
    1   AR   Ar   46   0.126   4.871   6.482
    1   AR   Ar   47   0.295   3.754   6.588
    1   AR   Ar   48   0.996   4.392   6.106
    1   AR   Ar   49   0.312   4.776  -0.557
    1   AR   Ar   50   6.100   5.429   1.471
    1   AR   Ar   51   0.950   4.228   0.694
    1   AR   Ar   52   0.718   5.289   0.492
    1   AR   Ar   53   7.017   5.801   1.978
    1   AR   Ar   54   7.057   6.522   3.480
    1   AR   Ar   55   0.373   5.692   3.024
    1   AR   Ar   56   0.931   6.048   1.625
    1   AR   Ar   57   7.031   4.650   3.684
    1   AR   Ar   58   0.222   5.576   4.101
    1   AR   Ar   59   1.539   6.189   4.785
    1   AR   Ar   60   1.091   6.346   3.856
    1   AR   Ar   61   6.889   5.805   5.742
    1   AR   Ar   62   0.718   5.632   5.601
    1   AR   Ar   63   1.839   5.470   5.558
    1   AR   Ar   64   0.764   6.812   4.957
    1   AR   Ar   65   1.776   6.442  -0.127
    1   AR   Ar   66   1.720   1.033   1.219
    1   AR   Ar   67   2.941   6.027  -0.105
    1   AR   Ar   68   3.629   1.214   0.882
    1   AR   Ar   69   1.996   7.000   0.915
    1   AR   Ar   70   1.430   0.533   2.539
    1   AR   Ar   71   2.046   7.099   1.948
    1   AR   Ar   72   2.793   0.771   1.567
    1   AR   Ar   73   1.771   6.910   3.205
    1   AR   Ar   74   1.492   1.379   4.684
    1   AR   Ar   75   2.660   0.852   4.679
    1   AR   Ar   76   2.064   0.793   3.562
    1   AR   Ar   77   1.978   0.104   5.302
    1   AR   Ar   78   1.479   0.424   6.276
    1   AR   Ar   79   2.766   0.095   6.867
    1   AR   Ar   80   2.706   1.010   6.089
    1   AR   Ar   81   2.438   1.380   0.185
    1   AR   Ar   82   1.974   3.839   1.169
    1   AR   Ar   83   2.592   1.963   1.743
    1   AR   Ar   84   1.704   3.058  -0.883
    1   AR   Ar   85   1.572   2.085   1.630
    1   AR   Ar   86   2.033   2.700   2.582
    1   AR   Ar   87   1.925   1.326   2.239
    1   AR   Ar   88   3.099   3.075   1.551
    1   AR   Ar   89   0.844   1.696   2.538
    1   AR   Ar   90   2.995   3.077   4.748
    1   AR   Ar   91   2.676   1.995   4.525
    1   AR   Ar   92   1.727   1.776   3.258
    1   AR   Ar   93   1.665   1.687   5.897
    1   AR   Ar   94   2.193   2.140   6.794
    1   AR   Ar   95   2.285   1.166   7.360
    1   AR   Ar   96   2.632   2.257   5.802
    1   AR   Ar   97   2.024   3.962  -0.553
    1   AR   Ar   98   3.087   4.347   1.699
    1   AR   Ar   99   3.043   3.245  -0.936
    1   AR   Ar  100   2.434   4.952  -0.378
    1   AR   Ar  101   1.497   3.071   1.615
    1   AR   Ar  102   2.143   4.328   3.419
    1   AR   Ar  103   2.077   3.877   2.328
    1   AR   Ar  104   2.736   4.047   0.538
    1   AR   Ar  105   1.803   3.148   3.496
    1   AR   Ar  106   2.003   3.762   4.303
    1   AR   Ar  107   2.856   4.120   5.192
    1   AR   Ar  108   2.903   3.628   3.941
    1   AR   Ar  109   0.678   4.201   4.797
    1   AR   Ar  110   1.632   3.607   5.372
    1   AR   Ar  111   3.101   4.848   6.784
    1   AR   Ar  112   2.220   3.636   6.281
    1   AR   Ar  113   1.768   4.929   0.553
    1   AR   Ar  114   1.686   5.910   0.842
    1   AR   Ar  115   3.519   5.344   0.576
    1   AR   Ar  116   2.701   7.075  -0.355
    1   AR   Ar  117   1.578   4.813   2.560
    1   AR   Ar  118   1.342   5.875   2.681
    1   AR   Ar  119   2.707   4.779   2.617
    1   AR   Ar  120   2.187   5.112   1.587
    1   AR   Ar  121   1.023   4.915   3.631
    1   AR   Ar  122   2.378   6.379   4.239
    1   AR   Ar  123   2.177   5.435   4.531
    1   AR   Ar  124   2.527   6.137   2.735
    1   AR   Ar  125   1.424   4.818   4.950
    1   AR   Ar  126   1.598   6.385   6.133
    1   AR   Ar  127   2.130   5.805   7.554
    1   AR   Ar  128   2.561   6.477   5.918
    1   AR   Ar  129   2.928   6.580   0.731
    1   AR   Ar  130   4.002   0.472  -0.759
    1   AR   Ar  131   4.392   6.895   0.614
    1   AR   Ar  132   4.627   1.819  -0.934
    1   AR   Ar  133   3.865   0.134   2.735
    1   AR   Ar  134   2.882   0.696   2.607
    1   AR   Ar  135   4.937   0.223   2.879
    1   AR   Ar  136   3.747   0.272   1.658
    1   AR   Ar  137   3.037   7.014   3.352
    1   AR   Ar  138   3.941   1.236   4.690
    1   AR   Ar  139   4.160   0.111   3.977
    1   AR   Ar  140   4.366   1.114   3.407
    1   AR   Ar  141   3.569   0.027   4.737
    1   AR   Ar  142   4.038   0.485   5.795
    1   AR   Ar  143   5.144   6.622   6.271
    1   AR   Ar  144   5.052   1.188   6.475
    1   AR   Ar  145   2.740   2.438   0.501
    1   AR   Ar  146   4.048   2.831   1.060
    1   AR   Ar  147   4.491   1.879   0.845
    1   AR   Ar  148   5.881   2.912  -0.363
    1   AR   Ar  149   3.942   2.015   1.745
    1   AR   Ar  150   2.663   1.766   2.947
    1   AR   Ar  151   3.721   2.003   3.124
    1   AR   Ar  152   3.596   2.666   2.430
    1   AR   Ar  153   3.260   1.433   3.830
    1   AR   Ar  154   3.886   2.420   4.250
    1   AR   Ar  155   4.861   1.598   5.476
    1   AR   Ar  156   4.973   3.670   4.268
    1   AR   Ar  157   3.772   2.048   5.341
    1   AR   Ar  158   3.440   2.346   6.641
    1   AR   Ar  159   4.063   1.427   6.646
    1   AR   Ar  160   4.451   2.985   5.320
    1   AR   Ar  161   4.458   3.197  -0.239
    1   AR   Ar  162   4.357   4.673   0.615
    1   AR   Ar  163   4.931   3.479   0.688
    1   AR   Ar  164   5.344   4.672   0.994
    1   AR   Ar  165   3.609   3.847   2.428
    1   AR   Ar  166   3.369   4.713   3.314
    1   AR   Ar  167   4.604   3.049   3.255
    1   AR   Ar  168   4.003   3.883   1.279
    1   AR   Ar  169   2.883   2.971   3.146
    1   AR   Ar  170   2.967   4.603   4.239
    1   AR   Ar  171   3.791   3.689   4.828
    1   AR   Ar  172   4.067   4.692   4.313
    1   AR   Ar  173   3.678   3.116   5.992
    1   AR   Ar  174   4.007   5.399   5.924
    1   AR   Ar  175   3.958   4.140   6.315
    1   AR   Ar  176   3.897   4.595   5.344
    1   AR   Ar  177   5.351   5.936   0.433
    1   AR   Ar  178   3.774   6.291   1.411
    1   AR   Ar  179   4.385   5.351   1.517
    1   AR   Ar  180   3.901   5.831  -0.257
    1   AR   Ar  181   3.397   5.438   1.840
    1   AR   Ar  182   2.567   6.106   1.729
    1   AR   Ar  183   4.157   4.774   2.426
    1   AR   Ar  184   4.138   6.085   2.364
    1   AR   Ar  185   2.073   5.618   3.506
    1   AR   Ar  186   3.246   5.703   4.144
    1   AR   Ar  187   4.639   5.426   3.266
    1   AR   Ar  188   3.420   5.770   3.034
    1   AR   Ar  189   2.897   5.311   5.767
    1   AR   Ar  190   3.922   7.021   6.717
    1   AR   Ar  191   4.553   5.871   5.131
    1   AR   Ar  192   3.464   6.334   5.537
    1   AR   Ar  193   5.573   0.211  -0.123
    1   AR   Ar  194   4.659   0.958   0.300
    1   AR   Ar  195   5.895   1.217   0.920
    1   AR   Ar  196   5.779   1.261  -0.395
    1   AR   Ar  197   4.883   0.483   1.248
    1   AR   Ar  198   5.219   1.349   1.860
    1   AR   Ar  199   6.395   0.730   2.162
    1   AR   Ar  200   6.604   1.668   1.555
    1   AR   Ar  201   4.515   6.446   3.325
    1   AR   Ar  202   5.039   0.745   4.318
    1   AR   Ar  203   6.909   6.437   4.905
    1   AR   Ar  204   6.475   0.360   3.532
    1   AR   Ar  205   5.259   6.830   4.301
    1   AR   Ar  206   5.442   6.947   5.355
    1   AR   Ar  207   6.818   6.992   6.029
    1   AR   Ar  208   6.139   0.538   4.475
    1   AR   Ar  209   6.797   2.191  -0.632
    1   AR   Ar  210   5.103   2.604   1.351
    1   AR   Ar  211   6.056   2.304   0.766
    1   AR   Ar  212   6.892   3.499  -0.093
    1   AR   Ar  213   4.736   2.282   2.364
    1   AR   Ar  214   4.600   3.418   2.107
    1   AR   Ar  215   5.778   2.075   2.488
    1   AR   Ar  216   6.587   2.682   1.927
    1   AR   Ar  217   5.161   2.222   3.313
    1   AR   Ar  218   5.110   2.056   4.361
    1   AR   Ar  219   5.732   1.271   3.410
    1   AR   Ar  220   6.186   2.884   3.094
    1   AR   Ar  221   5.502   0.876   5.366
    1   AR   Ar  222   4.723   2.394   6.331
    1   AR   Ar  223   7.007   1.488   7.277
    1   AR   Ar  224   6.436   2.517   5.204
    1   AR   Ar  225   5.094   4.185  -0.157
    1   AR   Ar  226   5.143   4.578   2.011
    1   AR   Ar  227   6.718   3.753   1.877
    1   AR   Ar  228   6.740   5.075   0.481
    1   AR   Ar  229   6.268   3.460   0.743
    1   AR   Ar  230   4.564   4.216   3.320
    1   AR   Ar  231   7.022   2.919   3.811
    1   AR   Ar  232   5.608   3.707   1.532
    1   AR   Ar  233   5.763   2.835   4.028
    1   AR   Ar  234   5.939   4.025   4.924
    1   AR   Ar  235   6.792   3.747   4.430
    1   AR   Ar  236   5.976   3.853   3.638
    1   AR   Ar  237   5.402   3.153   5.108
    1   AR   Ar  238   4.829   4.673   6.058
    1   AR   Ar  239   5.642   3.660   7.923
    1   AR   Ar  240   6.228   3.708   5.880
    1   AR   Ar  241   6.612   0.239  -0.030
    1   AR   Ar  242   5.138   6.260   1.569
    1   AR   Ar  243   6.164   4.655   2.169
    1   AR   Ar  244   6.054   0.026   1.088
    1   AR   Ar  245   5.523   5.427   2.299
    1   AR   Ar  246   5.841   6.613   3.203
    1   AR   Ar  247   5.756   3.680   2.650
    1   AR   Ar  248   6.076   6.473   2.075
    1   AR   Ar  249   6.403   5.533   3.065
    1   AR   Ar  250   4.910   5.900   4.137
    1   AR   Ar  251   5.989   4.803   3.867
    1   AR   Ar  252   6.132   5.960   4.091
    1   AR   Ar  253   5.123   4.880   5.095
    1   AR   Ar  254   5.714   5.660   6.149
    1   AR   Ar  255   6.281   4.815   5.674
    1   AR   Ar  256   5.870   6.000   5.214
    7.12000  7.12000 12.00000
Argon-slab step 655
  256
    1   AR   Ar    1   1.111   1.118  -0.972
    1   AR   Ar    2   0.385   0.947   0.876
    1   AR   Ar    3   0.527   6.779   0.728
    1   AR   Ar    4   1.413   0.263   0.143
    1   AR   Ar    5   6.862   6.645   1.434
    1   AR   Ar    6   0.377   0.550   3.076
    1   AR   Ar    7   0.425   6.651   2.332
    1   AR   Ar    8   1.117   0.184   1.379
    1   AR   Ar    9   0.496   0.301   4.059
    1   AR   Ar   10   0.105   1.280   4.543
    1   AR   Ar   11   1.567   0.141   4.318
    1   AR   Ar   12   1.020   1.146   3.642
    1   AR   Ar   13   7.087   0.291   5.079
    1   AR   Ar   14   0.232   1.364   6.317
    1   AR   Ar   15   1.672   6.818   7.391
    1   AR   Ar   16   1.045   0.997   5.523
    1   AR   Ar   17   6.868   1.538   0.144
    1   AR   Ar   18   0.090   2.649   0.314
    1   AR   Ar   19   0.829   1.865   0.831
    1   AR   Ar   20   0.851   2.160  -0.831
    1   AR   Ar   21   0.445   0.769   1.993
    1   AR   Ar   22   7.069   2.348   2.788
    1   AR   Ar   23   6.991   1.358   2.536
    1   AR   Ar   24   0.462   2.295   1.725
    1   AR   Ar   25   0.521   1.944   3.521
    1   AR   Ar   26   6.539   1.822   3.924
    1   AR   Ar   27   0.523   1.993   5.217
    1   AR   Ar   28   0.986   2.614   4.203
    1   AR   Ar   29   6.572   1.174   5.427
    1   AR   Ar   30   7.100   2.352   6.163
    1   AR   Ar   31   1.136   1.256   6.931
    1   AR   Ar   32   0.747   3.056   5.789
    1   AR   Ar   33   0.711   3.698  -0.513
    1   AR   Ar   34   0.165   5.221   1.324
    1   AR   Ar   35   0.273   3.487   1.150
    1   AR   Ar   36   1.736   5.827  -1.093
    1   AR   Ar   37   7.105   3.373   2.676
    1   AR   Ar   38   0.540   4.671   2.614
    1   AR   Ar   39   1.276   3.808   2.924
    1   AR   Ar   40   1.044   4.500   1.723
    1   AR   Ar   41   0.922   2.770   2.895
    1   AR   Ar   42   7.092   4.948   4.956
    1   AR   Ar   43   0.249   3.061   4.994
    1   AR   Ar   44   0.624   3.706   3.960
    1   AR   Ar   45   0.149   4.050   5.598
    1   AR   Ar   46   0.126   4.886   6.490
    1   AR   Ar   47   0.273   3.706   6.614
    1   AR   Ar   48   0.990   4.380   6.104
    1   AR   Ar   49   0.310   4.778  -0.544
    1   AR   Ar   50   6.109   5.424   1.471
    1   AR   Ar   51   0.929   4.231   0.673
    1   AR   Ar   52   0.713   5.288   0.487
    1   AR   Ar   53   7.010   5.814   1.985
    1   AR   Ar   54   7.048   6.547   3.448
    1   AR   Ar   55   0.353   5.683   3.037
    1   AR   Ar   56   0.931   6.058   1.630
    1   AR   Ar   57   7.002   4.616   3.651
    1   AR   Ar   58   0.221   5.580   4.073
    1   AR   Ar   59   1.536   6.203   4.774
    1   AR   Ar   60   1.087   6.363   3.867
    1   AR   Ar   61   6.867   5.788   5.741
    1   AR   Ar   62   0.719   5.661   5.594
    1   AR   Ar   63   1.849   5.458   5.579
    1   AR   Ar   64   0.799   6.822   4.974
    1   AR   Ar   65   1.766   6.456  -0.126
    1   AR   Ar   66   1.720   1.027   1.218
    1   AR   Ar   67   2.906   6.016  -0.130
    1   AR   Ar   68   3.624   1.227   0.858
    1   AR   Ar   69   1.996   6.973   0.899
    1   AR   Ar   70   1.433   0.555   2.537
    1   AR   Ar   71   2.073   7.108   1.963
    1   AR   Ar   72   2.803   0.841   1.563
    1   AR   Ar   73   1.799   6.924   3.217
    1   AR   Ar   74   1.504   1.365   4.660
    1   AR   Ar   75   2.634   0.807   4.665
    1   AR   Ar   76   2.053   0.755   3.589
    1   AR   Ar   77   1.959   0.103   5.340
    1   AR   Ar   78   1.467   0.436   6.263
    1   AR   Ar   79   2.745   0.083   6.868
    1   AR   Ar   80   2.693   0.996   6.103
    1   AR   Ar   81   2.435   1.354   0.201
    1   AR   Ar   82   1.946   3.834   1.177
    1   AR   Ar   83   2.587   1.962   1.749
    1   AR   Ar   84   1.724   3.023  -0.897
    1   AR   Ar   85   1.553   2.088   1.625
    1   AR   Ar   86   2.069   2.716   2.561
    1   AR   Ar   87   1.930   1.352   2.221
    1   AR   Ar   88   3.126   3.120   1.529
    1   AR   Ar   89   0.851   1.696   2.551
    1   AR   Ar   90   3.020   3.061   4.747
    1   AR   Ar   91   2.657   1.992   4.529
    1   AR   Ar   92   1.708   1.785   3.248
    1   AR   Ar   93   1.635   1.687   5.927
    1   AR   Ar   94   2.158   2.120   6.787
    1   AR   Ar   95   2.272   1.140   7.364
    1   AR   Ar   96   2.661   2.269   5.800
    1   AR   Ar   97   2.037   3.996  -0.553
    1   AR   Ar   98   3.100   4.362   1.700
    1   AR   Ar   99   3.039   3.252  -0.946
    1   AR   Ar  100   2.405   4.962  -0.394
    1   AR   Ar  101   1.493   3.079   1.606
    1   AR   Ar  102   2.163   4.312   3.417
    1   AR   Ar  103   2.084   3.889   2.320
    1   AR   Ar  104   2.723   4.036   0.537
    1   AR   Ar  105   1.787   3.137   3.472
    1   AR   Ar  106   2.002   3.722   4.327
    1   AR   Ar  107   2.865   4.092   5.247
    1   AR   Ar  108   2.904   3.628   3.950
    1   AR   Ar  109   0.667   4.202   4.777
    1   AR   Ar  110   1.618   3.619   5.356
    1   AR   Ar  111   3.098   4.846   6.788
    1   AR   Ar  112   2.235   3.627   6.282
    1   AR   Ar  113   1.797   4.942   0.552
    1   AR   Ar  114   1.698   5.904   0.825
    1   AR   Ar  115   3.543   5.331   0.538
    1   AR   Ar  116   2.723   7.057  -0.329
    1   AR   Ar  117   1.585   4.834   2.561
    1   AR   Ar  118   1.343   5.891   2.679
    1   AR   Ar  119   2.735   4.800   2.604
    1   AR   Ar  120   2.172   5.095   1.563
    1   AR   Ar  121   1.002   4.885   3.632
    1   AR   Ar  122   2.378   6.387   4.220
    1   AR   Ar  123   2.133   5.437   4.519
    1   AR   Ar  124   2.500   6.129   2.700
    1   AR   Ar  125   1.443   4.823   4.957
    1   AR   Ar  126   1.602   6.384   6.149
    1   AR   Ar  127   2.119   5.794   7.572
    1   AR   Ar  128   2.550   6.434   5.902
    1   AR   Ar  129   2.910   6.549   0.743
    1   AR   Ar  130   3.982   0.476  -0.790
    1   AR   Ar  131   4.405   6.879   0.593
    1   AR   Ar  132   4.657   1.841  -0.938
    1   AR   Ar  133   3.857   0.138   2.745
    1   AR   Ar  134   2.887   0.700   2.618
    1   AR   Ar  135   4.941   0.235   2.890
    1   AR   Ar  136   3.758   0.288   1.688
    1   AR   Ar  137   3.050   7.021   3.353
    1   AR   Ar  138   3.973   1.207   4.685
    1   AR   Ar  139   4.163   0.128   3.938
    1   AR   Ar  140   4.363   1.115   3.430
    1   AR   Ar  141   3.595   0.055   4.736
    1   AR   Ar  142   4.058   0.464   5.743
    1   AR   Ar  143   5.145   6.638   6.258
    1   AR   Ar  144   5.064   1.198   6.502
    1   AR   Ar  145   2.739   2.447   0.478
    1   AR   Ar  146   4.003   2.834   1.035
    1   AR   Ar  147   4.527   1.872   0.805
    1   AR   Ar  148   5.868   2.927  -0.356
    1   AR   Ar  149   3.933   2.008   1.755
    1   AR   Ar  150   2.663   1.768   2.934
    1   AR   Ar  151   3.733   1.984   3.137
    1   AR   Ar  152   3.650   2.685   2.439
    1   AR   Ar  153   3.241   1.424   3.873
    1   AR   Ar  154   3.892   2.427   4.281
    1   AR   Ar  155   4.882   1.593   5.504
    1   AR   Ar  156   4.978   3.662   4.275
    1   AR   Ar  157   3.796   2.068   5.372
    1   AR   Ar  158   3.461   2.352   6.680
    1   AR   Ar  159   4.044   1.413   6.616
    1   AR   Ar  160   4.468   2.952   5.324
    1   AR   Ar  161   4.462   3.169  -0.252
    1   AR   Ar  162   4.373   4.696   0.647
    1   AR   Ar  163   4.924   3.482   0.693
    1   AR   Ar  164   5.333   4.690   0.969
    1   AR   Ar  165   3.596   3.862   2.446
    1   AR   Ar  166   3.391   4.713   3.348
    1   AR   Ar  167   4.608   3.061   3.262
    1   AR   Ar  168   4.033   3.884   1.260
    1   AR   Ar  169   2.858   2.974   3.152
    1   AR   Ar  170   2.942   4.585   4.235
    1   AR   Ar  171   3.780   3.680   4.804
    1   AR   Ar  172   4.066   4.674   4.307
    1   AR   Ar  173   3.686   3.113   5.963
    1   AR   Ar  174   4.030   5.394   5.940
    1   AR   Ar  175   3.943   4.141   6.315
    1   AR   Ar  176   3.945   4.549   5.342
    1   AR   Ar  177   5.347   5.942   0.413
    1   AR   Ar  178   3.784   6.294   1.391
    1   AR   Ar  179   4.366   5.346   1.507
    1   AR   Ar  180   3.918   5.800  -0.276
    1   AR   Ar  181   3.372   5.442   1.860
    1   AR   Ar  182   2.546   6.111   1.743
    1   AR   Ar  183   4.186   4.785   2.429
    1   AR   Ar  184   4.142   6.093   2.345
    1   AR   Ar  185   2.051   5.642   3.510
    1   AR   Ar  186   3.273   5.676   4.179
    1   AR   Ar  187   4.643   5.429   3.253
    1   AR   Ar  188   3.447   5.779   3.027
    1   AR   Ar  189   2.886   5.313   5.783
    1   AR   Ar  190   3.946   7.001   6.701
    1   AR   Ar  191   4.550   5.864   5.113
    1   AR   Ar  192   3.448   6.306   5.542
    1   AR   Ar  193   5.571   0.225  -0.129
    1   AR   Ar  194   4.650   0.936   0.286
    1   AR   Ar  195   5.875   1.210   0.942
    1   AR   Ar  196   5.798   1.235  -0.405
    1   AR   Ar  197   4.877   0.491   1.234
    1   AR   Ar  198   5.226   1.352   1.850
    1   AR   Ar  199   6.366   0.720   2.129
    1   AR   Ar  200   6.596   1.642   1.553
    1   AR   Ar  201   4.526   6.464   3.322
    1   AR   Ar  202   5.022   0.730   4.330
    1   AR   Ar  203   6.882   6.432   4.932
    1   AR   Ar  204   6.455   0.360   3.522
    1   AR   Ar  205   5.304   6.815   4.264
    1   AR   Ar  206   5.439   6.919   5.326
    1   AR   Ar  207   6.831   6.990   6.018
    1   AR   Ar  208   6.156   0.527   4.469
    1   AR   Ar  209   6.781   2.161  -0.662
    1   AR   Ar  210   5.103   2.621   1.363
    1   AR   Ar  211   6.053   2.299   0.796
    1   AR   Ar  212   6.882   3.505  -0.098
    1   AR   Ar  213   4.706   2.277   2.393
    1   AR   Ar  214   4.579   3.442   2.081
    1   AR   Ar  215   5.749   2.091   2.518
    1   AR   Ar  216   6.575   2.675   1.954
    1   AR   Ar  217   5.183   2.224   3.343
    1   AR   Ar  218   5.138   2.059   4.379
    1   AR   Ar  219   5.747   1.260   3.385
    1   AR   Ar  220   6.159   2.896   3.089
    1   AR   Ar  221   5.518   0.879   5.363
    1   AR   Ar  222   4.716   2.404   6.353
    1   AR   Ar  223   7.012   1.520   7.270
    1   AR   Ar  224   6.397   2.516   5.208
    1   AR   Ar  225   5.119   4.206  -0.163
    1   AR   Ar  226   5.143   4.553   2.040
    1   AR   Ar  227   6.706   3.760   1.864
    1   AR   Ar  228   6.759   5.051   0.495
    1   AR   Ar  229   6.300   3.468   0.749
    1   AR   Ar  230   4.560   4.256   3.334
    1   AR   Ar  231   7.033   2.890   3.795
    1   AR   Ar  232   5.606   3.729   1.568
    1   AR   Ar  233   5.770   2.801   4.028
    1   AR   Ar  234   5.912   4.031   4.893
    1   AR   Ar  235   6.811   3.731   4.447
    1   AR   Ar  236   5.967   3.888   3.667
    1   AR   Ar  237   5.378   3.137   5.096
    1   AR   Ar  238   4.836   4.679   6.021
    1   AR   Ar  239   5.651   3.669   7.949
    1   AR   Ar  240   6.233   3.667   5.898
    1   AR   Ar  241   6.618   0.262  -0.035
    1   AR   Ar  242   5.091   6.244   1.540
    1   AR   Ar  243   6.149   4.625   2.208
    1   AR   Ar  244   6.018   0.030   1.108
    1   AR   Ar  245   5.526   5.442   2.297
    1   AR   Ar  246   5.832   6.624   3.190
    1   AR   Ar  247   5.769   3.707   2.674
    1   AR   Ar  248   6.093   6.485   2.054
    1   AR   Ar  249   6.392   5.522   3.051
    1   AR   Ar  250   4.876   5.875   4.118
    1   AR   Ar  251   5.948   4.805   3.906
    1   AR   Ar  252   6.168   5.935   4.083
    1   AR   Ar  253   5.144   4.881   5.115
    1   AR   Ar  254   5.713   5.656   6.180
    1   AR   Ar  255   6.288   4.828   5.682
    1   AR   Ar  256   5.876   5.980   5.214
    7.12000  7.12000 12.00000
Argon-slab step 660
  256
    1   AR   Ar    1   1.096   1.124  -0.952
    1   AR   Ar    2   0.402   0.936   0.863
    1   AR   Ar    3   0.535   6.758   0.708
    1   AR   Ar    4   1.413   0.281   0.162
    1   AR   Ar    5   6.857   6.635   1.424
    1   AR   Ar    6   0.415   0.542   3.099
    1   AR   Ar    7   0.384   6.647   2.329
    1   AR   Ar    8   1.129   0.180   1.401
    1   AR   Ar    9   0.485   0.333   4.065
    1   AR   Ar   10   0.116   1.295   4.569
    1   AR   Ar   11   1.557   0.126   4.322
    1   AR   Ar   12   1.007   1.122   3.649
    1   AR   Ar   13   7.060   0.302   5.059
    1   AR   Ar   14   0.222   1.383   6.333
    1   AR   Ar   15   1.667   6.768   7.387
    1   AR   Ar   16   1.042   1.014   5.515
    1   AR   Ar   17   6.866   1.550   0.136
    1   AR   Ar   18   0.093   2.657   0.308
    1   AR   Ar   19   0.822   1.860   0.849
    1   AR   Ar   20   0.839   2.189  -0.823
    1   AR   Ar   21   0.434   0.751   1.972
    1   AR   Ar   22   7.090   2.332   2.808
    1   AR   Ar   23   6.967   1.334   2.576
    1   AR   Ar   24   0.464   2.303   1.715
    1   AR   Ar   25   0.505   1.937   3.489
    1   AR   Ar   26   6.526   1.768   3.883
    1   AR   Ar   27   0.523   2.000   5.200
    1   AR   Ar   28   0.996   2.622   4.214
    1   AR   Ar   29   6.542   1.166   5.431
    1   AR   Ar   30   7.070   2.372   6.160
    1   AR   Ar   31   1.170   1.277   6.909
    1   AR   Ar   32   0.776   3.128   5.808
    1   AR   Ar   33   0.748   3.673  -0.532
    1   AR   Ar   34   0.176   5.224   1.326
    1   AR   Ar   35   0.259   3.477   1.165
    1   AR   Ar   36   1.732   5.825  -1.106
    1   AR   Ar   37   7.098   3.376   2.664
    1   AR   Ar   38   0.539   4.709   2.598
    1   AR   Ar   39   1.248   3.837   2.906
    1   AR   Ar   40   1.046   4.512   1.701
    1   AR   Ar   41   0.947   2.787   2.871
    1   AR   Ar   42   7.073   4.943   4.954
    1   AR   Ar   43   0.223   3.019   5.004
    1   AR   Ar   44   0.650   3.678   3.949
    1   AR   Ar   45   0.132   4.046   5.581
    1   AR   Ar   46   0.123   4.901   6.495
    1   AR   Ar   47   0.251   3.656   6.640
    1   AR   Ar   48   0.976   4.380   6.106
    1   AR   Ar   49   0.308   4.780  -0.529
    1   AR   Ar   50   6.135   5.414   1.460
    1   AR   Ar   51   0.908   4.234   0.650
    1   AR   Ar   52   0.715   5.290   0.475
    1   AR   Ar   53   6.994   5.837   2.020
    1   AR   Ar   54   7.038   6.573   3.417
    1   AR   Ar   55   0.334   5.671   3.045
    1   AR   Ar   56   0.931   6.067   1.633
    1   AR   Ar   57   6.974   4.581   3.618
    1   AR   Ar   58   0.219   5.587   4.048
    1   AR   Ar   59   1.535   6.214   4.772
    1   AR   Ar   60   1.076   6.380   3.881
    1   AR   Ar   61   6.834   5.769   5.746
    1   AR   Ar   62   0.715   5.704   5.572
    1   AR   Ar   63   1.863   5.456   5.609
    1   AR   Ar   64   0.830   6.837   4.994
    1   AR   Ar   65   1.760   6.464  -0.127
    1   AR   Ar   66   1.722   1.023   1.215
    1   AR   Ar   67   2.865   6.001  -0.159
    1   AR   Ar   68   3.618   1.240   0.835
    1   AR   Ar   69   1.995   6.945   0.884
    1   AR   Ar   70   1.425   0.574   2.541
    1   AR   Ar   71   2.103   7.115   1.978
    1   AR   Ar   72   2.802   0.826   1.585
    1   AR   Ar   73   1.827   6.933   3.229
    1   AR   Ar   74   1.517   1.352   4.632
    1   AR   Ar   75   2.607   0.763   4.650
    1   AR   Ar   76   2.044   0.721   3.616
    1   AR   Ar   77   1.940   0.102   5.377
    1   AR   Ar   78   1.458   0.445   6.255
    1   AR   Ar   79   2.742   0.065   6.880
    1   AR   Ar   80   2.676   0.978   6.115
    1   AR   Ar   81   2.432   1.328   0.219
    1   AR   Ar   82   1.920   3.840   1.184
    1   AR   Ar   83   2.608   1.963   1.750
    1   AR   Ar   84   1.736   2.989  -0.893
    1   AR   Ar   85   1.529   2.085   1.620
    1   AR   Ar   86   2.100   2.727   2.530
    1   AR   Ar   87   1.939   1.376   2.209
    1   AR   Ar   88   3.149   3.167   1.508
    1   AR   Ar   89   0.865   1.695   2.562
    1   AR   Ar   90   3.036   3.029   4.757
    1   AR   Ar   91   2.638   1.990   4.536
    1   AR   Ar   92   1.685   1.799   3.237
    1   AR   Ar   93   1.601   1.709   5.961
    1   AR   Ar   94   2.125   2.098   6.780
    1   AR   Ar   95   2.259   1.113   7.364
    1   AR   Ar   96   2.692   2.280   5.797
    1   AR   Ar   97   2.050   4.028  -0.552
    1   AR   Ar   98   3.111   4.379   1.696
    1   AR   Ar   99   3.034   3.259  -0.956
    1   AR   Ar  100   2.377   4.977  -0.409
    1   AR   Ar  101   1.481   3.087   1.604
    1   AR   Ar  102   2.183   4.297   3.413
    1   AR   Ar  103   2.098   3.900   2.307
    1   AR   Ar  104   2.714   4.027   0.533
    1   AR   Ar  105   1.775   3.121   3.455
    1   AR   Ar  106   1.990   3.686   4.358
    1   AR   Ar  107   2.872   4.064   5.302
    1   AR   Ar  108   2.917   3.629   3.944
    1   AR   Ar  109   0.662   4.206   4.761
    1   AR   Ar  110   1.603   3.633   5.340
    1   AR   Ar  111   3.109   4.876   6.774
    1   AR   Ar  112   2.250   3.620   6.281
    1   AR   Ar  113   1.828   4.946   0.548
    1   AR   Ar  114   1.709   5.905   0.811
    1   AR   Ar  115   3.561   5.318   0.508
    1   AR   Ar  116   2.744   7.040  -0.302
    1   AR   Ar  117   1.596   4.857   2.565
    1   AR   Ar  118   1.346   5.910   2.678
    1   AR   Ar  119   2.755   4.825   2.585
    1   AR   Ar  120   2.156   5.076   1.541
    1   AR   Ar  121   0.982   4.854   3.632
    1   AR   Ar  122   2.384   6.405   4.195
    1   AR   Ar  123   2.098   5.429   4.507
    1   AR   Ar  124   2.471   6.124   2.682
    1   AR   Ar  125   1.446   4.822   4.957
    1   AR   Ar  126   1.591   6.383   6.167
    1   AR   Ar  127   2.108   5.782   7.590
    1   AR   Ar  128   2.538   6.394   5.888
    1   AR   Ar  129   2.897   6.519   0.759
    1   AR   Ar  130   3.963   0.479  -0.819
    1   AR   Ar  131   4.418   6.862   0.571
    1   AR   Ar  132   4.686   1.862  -0.941
    1   AR   Ar  133   3.854   0.142   2.756
    1   AR   Ar  134   2.890   0.704   2.632
    1   AR   Ar  135   4.947   0.250   2.901
    1   AR   Ar  136   3.770   0.304   1.716
    1   AR   Ar  137   3.058   7.026   3.357
    1   AR   Ar  138   4.007   1.178   4.681
    1   AR   Ar  139   4.172   0.149   3.887
    1   AR   Ar  140   4.359   1.115   3.454
    1   AR   Ar  141   3.613   0.082   4.746
    1   AR   Ar  142   4.079   0.444   5.690
    1   AR   Ar  143   5.143   6.652   6.249
    1   AR   Ar  144   5.092   1.183   6.469
    1   AR   Ar  145   2.738   2.457   0.456
    1   AR   Ar  146   3.963   2.836   1.008
    1   AR   Ar  147   4.565   1.865   0.767
    1   AR   Ar  148   5.855   2.942  -0.346
    1   AR   Ar  149   3.919   1.996   1.749
    1   AR   Ar  150   2.656   1.765   2.927
    1   AR   Ar  151   3.748   1.962   3.155
    1   AR   Ar  152   3.701   2.719   2.445
    1   AR   Ar  153   3.221   1.412   3.916
    1   AR   Ar  154   3.897   2.433   4.311
    1   AR   Ar  155   4.890   1.602   5.532
    1   AR   Ar  156   4.981   3.655   4.278
    1   AR   Ar  157   3.820   2.089   5.404
    1   AR   Ar  158   3.482   2.356   6.719
    1   AR   Ar  159   4.022   1.400   6.584
    1   AR   Ar  160   4.472   2.914   5.329
    1   AR   Ar  161   4.467   3.141  -0.265
    1   AR   Ar  162   4.392   4.728   0.673
    1   AR   Ar  163   4.919   3.487   0.700
    1   AR   Ar  164   5.313   4.698   0.965
    1   AR   Ar  165   3.580   3.866   2.461
    1   AR   Ar  166   3.409   4.724   3.374
    1   AR   Ar  167   4.608   3.078   3.268
    1   AR   Ar  168   4.061   3.887   1.243
    1   AR   Ar  169   2.855   2.970   3.157
    1   AR   Ar  170   2.911   4.576   4.241
    1   AR   Ar  171   3.779   3.675   4.777
    1   AR   Ar  172   4.065   4.656   4.297
    1   AR   Ar  173   3.689   3.111   5.933
    1   AR   Ar  174   3.992   5.406   5.964
    1   AR   Ar  175   3.926   4.141   6.317
    1   AR   Ar  176   3.992   4.505   5.341
    1   AR   Ar  177   5.342   5.947   0.396
    1   AR   Ar  178   3.763   6.307   1.395
    1   AR   Ar  179   4.351   5.342   1.497
    1   AR   Ar  180   3.941   5.773  -0.301
    1   AR   Ar  181   3.344   5.442   1.884
    1   AR   Ar  182   2.524   6.118   1.735
    1   AR   Ar  183   4.207   4.789   2.428
    1   AR   Ar  184   4.152   6.102   2.326
    1   AR   Ar  185   2.027   5.663   3.511
    1   AR   Ar  186   3.301   5.647   4.214
    1   AR   Ar  187   4.628   5.433   3.264
    1   AR   Ar  188   3.474   5.784   3.025
    1   AR   Ar  189   2.879   5.315   5.797
    1   AR   Ar  190   3.970   6.980   6.684
    1   AR   Ar  191   4.547   5.857   5.099
    1   AR   Ar  192   3.446   6.276   5.540
    1   AR   Ar  193   5.565   0.238  -0.132
    1   AR   Ar  194   4.642   0.912   0.268
    1   AR   Ar  195   5.851   1.199   0.962
    1   AR   Ar  196   5.819   1.211  -0.414
    1   AR   Ar  197   4.873   0.499   1.223
    1   AR   Ar  198   5.232   1.356   1.840
    1   AR   Ar  199   6.328   0.701   2.090
    1   AR   Ar  200   6.593   1.618   1.553
    1   AR   Ar  201   4.536   6.485   3.316
    1   AR   Ar  202   5.005   0.718   4.342
    1   AR   Ar  203   6.853   6.423   4.954
    1   AR   Ar  204   6.463   0.357   3.511
    1   AR   Ar  205   5.352   6.802   4.225
    1   AR   Ar  206   5.436   6.895   5.291
    1   AR   Ar  207   6.844   6.986   6.008
    1   AR   Ar  208   6.170   0.518   4.471
    1   AR   Ar  209   6.764   2.136  -0.696
    1   AR   Ar  210   5.088   2.646   1.381
    1   AR   Ar  211   6.051   2.294   0.826
    1   AR   Ar  212   6.869   3.519  -0.109
    1   AR   Ar  213   4.676   2.274   2.422
    1   AR   Ar  214   4.560   3.464   2.056
    1   AR   Ar  215   5.728   2.103   2.540
    1   AR   Ar  216   6.558   2.669   1.978
    1   AR   Ar  217   5.204   2.221   3.379
    1   AR   Ar  218   5.161   2.058   4.404
    1   AR   Ar  219   5.761   1.249   3.359
    1   AR   Ar  220   6.138   2.901   3.084
    1   AR   Ar  221   5.543   0.870   5.358
    1   AR   Ar  222   4.707   2.414   6.373
    1   AR   Ar  223   7.016   1.553   7.267
    1   AR   Ar  224   6.357   2.515   5.212
    1   AR   Ar  225   5.144   4.227  -0.168
    1   AR   Ar  226   5.149   4.517   2.077
    1   AR   Ar  227   6.685   3.773   1.845
    1   AR   Ar  228   6.772   5.025   0.501
    1   AR   Ar  229   6.330   3.474   0.760
    1   AR   Ar  230   4.557   4.296   3.347
    1   AR   Ar  231   7.044   2.859   3.778
    1   AR   Ar  232   5.603   3.748   1.593
    1   AR   Ar  233   5.778   2.772   4.035
    1   AR   Ar  234   5.882   4.042   4.861
    1   AR   Ar  235   6.828   3.721   4.461
    1   AR   Ar  236   5.959   3.901   3.697
    1   AR   Ar  237   5.375   3.120   5.082
    1   AR   Ar  238   4.840   4.681   6.006
    1   AR   Ar  239   5.660   3.678   7.975
    1   AR   Ar  240   6.214   3.622   5.897
    1   AR   Ar  241   6.624   0.296  -0.039
    1   AR   Ar  242   5.043   6.228   1.511
    1   AR   Ar  243   6.144   4.593   2.248
    1   AR   Ar  244   5.976   0.036   1.125
    1   AR   Ar  245   5.525   5.472   2.304
    1   AR   Ar  246   5.822   6.634   3.177
    1   AR   Ar  247   5.768   3.733   2.684
    1   AR   Ar  248   6.102   6.495   2.039
    1   AR   Ar  249   6.381   5.511   3.037
    1   AR   Ar  250   4.845   5.849   4.107
    1   AR   Ar  251   5.906   4.830   3.951
    1   AR   Ar  252   6.204   5.911   4.075
    1   AR   Ar  253   5.170   4.899   5.124
    1   AR   Ar  254   5.706   5.688   6.191
    1   AR   Ar  255   6.296   4.841   5.690
    1   AR   Ar  256   5.884   5.962   5.201
    7.12000  7.12000 12.00000
Argon-slab step 665
  256
    1   AR   Ar    1   1.082   1.102  -0.900
    1   AR   Ar    2   0.416   0.918   0.851
    1   AR   Ar    3   0.544   6.736   0.685
    1   AR   Ar    4   1.407   0.306   0.181
    1   AR   Ar    5   6.862   6.631   1.404
    1   AR   Ar    6   0.450   0.536   3.100
    1   AR   Ar    7   0.347   6.652   2.333
    1   AR   Ar    8   1.141   0.173   1.426
    1   AR   Ar    9   0.472   0.357   4.084
    1   AR   Ar   10   0.133   1.307   4.593
    1   AR   Ar   11   1.548   0.111   4.327
    1   AR   Ar   12   1.009   1.090   3.663
    1   AR   Ar   13   7.034   0.320   5.038
    1   AR   Ar   14   0.217   1.396   6.339
    1   AR   Ar   15   1.662   6.721   7.382
    1   AR   Ar   16   1.028   1.025   5.499
    1   AR   Ar   17   6.863   1.559   0.135
    1   AR   Ar   18   0.094   2.652   0.306
    1   AR   Ar   19   0.817   1.858   0.862
    1   AR   Ar   20   0.825   2.220  -0.814
    1   AR   Ar   21   0.426   0.731   1.950
    1   AR   Ar   22   7.102   2.317   2.815
    1   AR   Ar   23   6.941   1.313   2.621
    1   AR   Ar   24   0.463   2.313   1.709
    1   AR   Ar   25   0.491   1.935   3.475
    1   AR   Ar   26   6.534   1.784   3.873
    1   AR   Ar   27   0.557   2.012   5.226
    1   AR   Ar   28   1.006   2.631   4.225
    1   AR   Ar   29   6.539   1.185   5.448
    1   AR   Ar   30   7.039   2.396   6.154
    1   AR   Ar   31   1.205   1.298   6.888
    1   AR   Ar   32   0.810   3.202   5.838
    1   AR   Ar   33   0.787   3.649  -0.551
    1   AR   Ar   34   0.194   5.218   1.332
    1   AR   Ar   35   0.250   3.463   1.176
    1   AR   Ar   36   1.730   5.823  -1.117
    1   AR   Ar   37   7.095   3.377   2.661
    1   AR   Ar   38   0.534   4.745   2.584
    1   AR   Ar   39   1.213   3.871   2.889
    1   AR   Ar   40   1.050   4.509   1.670
    1   AR   Ar   41   0.972   2.803   2.845
    1   AR   Ar   42   7.042   4.952   4.938
    1   AR   Ar   43   0.192   2.975   5.003
    1   AR   Ar   44   0.678   3.641   3.922
    1   AR   Ar   45   0.105   4.040   5.571
    1   AR   Ar   46   0.118   4.917   6.499
    1   AR   Ar   47   0.228   3.607   6.665
    1   AR   Ar   48   0.946   4.395   6.115
    1   AR   Ar   49   0.307   4.781  -0.512
    1   AR   Ar   50   6.116   5.446   1.484
    1   AR   Ar   51   0.888   4.236   0.626
    1   AR   Ar   52   0.723   5.294   0.457
    1   AR   Ar   53   6.970   5.856   2.070
    1   AR   Ar   54   7.028   6.600   3.388
    1   AR   Ar   55   0.318   5.659   3.046
    1   AR   Ar   56   0.933   6.074   1.633
    1   AR   Ar   57   6.947   4.546   3.584
    1   AR   Ar   58   0.215   5.594   4.031
    1   AR   Ar   59   1.541   6.218   4.779
    1   AR   Ar   60   1.060   6.397   3.889
    1   AR   Ar   61   6.795   5.748   5.755
    1   AR   Ar   62   0.715   5.752   5.543
    1   AR   Ar   63   1.848   5.453   5.618
    1   AR   Ar   64   0.850   6.860   5.018
    1   AR   Ar   65   1.756   6.469  -0.129
    1   AR   Ar   66   1.726   1.020   1.210
    1   AR   Ar   67   2.823   5.982  -0.190
    1   AR   Ar   68   3.622   1.239   0.824
    1   AR   Ar   69   1.991   6.920   0.872
    1   AR   Ar   70   1.419   0.572   2.518
    1   AR   Ar   71   2.136   0.002   1.992
    1   AR   Ar   72   2.786   0.798   1.588
    1   AR   Ar   73   1.855   6.933   3.239
    1   AR   Ar   74   1.532   1.338   4.601
    1   AR   Ar   75   2.593   0.783   4.657
    1   AR   Ar   76   2.041   0.698   3.641
    1   AR   Ar   77   1.921   0.100   5.412
    1   AR   Ar   78   1.452   0.450   6.254
    1   AR   Ar   79   2.739   0.048   6.890
    1   AR   Ar   80   2.658   0.960   6.127
    1   AR   Ar   81   2.430   1.320   0.214
    1   AR   Ar   82   1.898   3.861   1.186
    1   AR   Ar   83   2.637   1.969   1.747
    1   AR   Ar   84   1.746   2.956  -0.883
    1   AR   Ar   85   1.504   2.078   1.612
    1   AR   Ar   86   2.096   2.707   2.535
    1   AR   Ar   87   1.949   1.396   2.204
    1   AR   Ar   88   3.166   3.217   1.493
    1   AR   Ar   89   0.882   1.690   2.566
    1   AR   Ar   90   3.044   2.985   4.773
    1   AR   Ar   91   2.640   1.993   4.525
    1   AR   Ar   92   1.659   1.818   3.229
    1   AR   Ar   93   1.571   1.735   5.996
    1   AR   Ar   94   2.093   2.077   6.776
    1   AR   Ar   95   2.245   1.085   7.362
    1   AR   Ar   96   2.724   2.291   5.794
    1   AR   Ar   97   2.061   4.053  -0.550
    1   AR   Ar   98   3.119   4.396   1.684
    1   AR   Ar   99   3.028   3.267  -0.964
    1   AR   Ar  100   2.352   5.000  -0.422
    1   AR   Ar  101   1.460   3.092   1.611
    1   AR   Ar  102   2.202   4.283   3.409
    1   AR   Ar  103   2.116   3.911   2.291
    1   AR   Ar  104   2.707   4.020   0.527
    1   AR   Ar  105   1.765   3.105   3.443
    1   AR   Ar  106   1.973   3.652   4.391
    1   AR   Ar  107   2.880   4.035   5.356
    1   AR   Ar  108   2.936   3.627   3.932
    1   AR   Ar  109   0.661   4.213   4.748
    1   AR   Ar  110   1.587   3.650   5.325
    1   AR   Ar  111   3.120   4.905   6.760
    1   AR   Ar  112   2.266   3.613   6.280
    1   AR   Ar  113   1.858   4.939   0.540
    1   AR   Ar  114   1.720   5.913   0.802
    1   AR   Ar  115   3.571   5.304   0.487
    1   AR   Ar  116   2.764   7.025  -0.274
    1   AR   Ar  117   1.612   4.881   2.572
    1   AR   Ar  118   1.348   5.932   2.675
    1   AR   Ar  119   2.770   4.851   2.564
    1   AR   Ar  120   2.142   5.056   1.523
    1   AR   Ar  121   0.963   4.823   3.631
    1   AR   Ar  122   2.393   6.428   4.168
    1   AR   Ar  123   2.076   5.416   4.494
    1   AR   Ar  124   2.442   6.121   2.683
    1   AR   Ar  125   1.426   4.815   4.953
    1   AR   Ar  126   1.569   6.384   6.187
    1   AR   Ar  127   2.097   5.771   7.607
    1   AR   Ar  128   2.524   6.356   5.875
    1   AR   Ar  129   2.890   6.486   0.775
    1   AR   Ar  130   3.944   0.483  -0.847
    1   AR   Ar  131   4.431   6.843   0.551
    1   AR   Ar  132   4.717   1.882  -0.942
    1   AR   Ar  133   3.855   0.146   2.766
    1   AR   Ar  134   2.892   0.709   2.647
    1   AR   Ar  135   4.955   0.267   2.913
    1   AR   Ar  136   3.782   0.320   1.740
    1   AR   Ar  137   3.061   7.027   3.367
    1   AR   Ar  138   4.041   1.148   4.676
    1   AR   Ar  139   4.182   0.171   3.835
    1   AR   Ar  140   4.357   1.116   3.478
    1   AR   Ar  141   3.627   0.109   4.760
    1   AR   Ar  142   4.101   0.425   5.638
    1   AR   Ar  143   5.139   6.665   6.245
    1   AR   Ar  144   5.124   1.162   6.424
    1   AR   Ar  145   2.737   2.465   0.436
    1   AR   Ar  146   3.956   2.836   0.991
    1   AR   Ar  147   4.602   1.860   0.731
    1   AR   Ar  148   5.844   2.957  -0.335
    1   AR   Ar  149   3.904   1.979   1.736
    1   AR   Ar  150   2.656   1.762   2.919
    1   AR   Ar  151   3.765   1.939   3.174
    1   AR   Ar  152   3.675   2.755   2.449
    1   AR   Ar  153   3.206   1.399   3.953
    1   AR   Ar  154   3.903   2.439   4.341
    1   AR   Ar  155   4.889   1.621   5.557
    1   AR   Ar  156   4.982   3.650   4.278
    1   AR   Ar  157   3.842   2.107   5.436
    1   AR   Ar  158   3.502   2.360   6.756
    1   AR   Ar  159   3.999   1.387   6.550
    1   AR   Ar  160   4.457   2.908   5.329
    1   AR   Ar  161   4.472   3.113  -0.277
    1   AR   Ar  162   4.401   4.756   0.689
    1   AR   Ar  163   4.914   3.493   0.707
    1   AR   Ar  164   5.309   4.706   0.968
    1   AR   Ar  165   3.563   3.861   2.475
    1   AR   Ar  166   3.412   4.750   3.383
    1   AR   Ar  167   4.606   3.098   3.273
    1   AR   Ar  168   4.086   3.892   1.226
    1   AR   Ar  169   2.870   2.959   3.161
    1   AR   Ar  170   2.877   4.575   4.258
    1   AR   Ar  171   3.786   3.673   4.747
    1   AR   Ar  172   4.065   4.640   4.284
    1   AR   Ar  173   3.685   3.111   5.907
    1   AR   Ar  174   3.954   5.416   5.988
    1   AR   Ar  175   3.908   4.141   6.322
    1   AR   Ar  176   4.039   4.465   5.340
    1   AR   Ar  177   5.337   5.952   0.380
    1   AR   Ar  178   3.741   6.322   1.393
    1   AR   Ar  179   4.338   5.341   1.490
    1   AR   Ar  180   3.969   5.749  -0.332
    1   AR   Ar  181   3.315   5.440   1.910
    1   AR   Ar  182   2.502   6.126   1.703
    1   AR   Ar  183   4.171   4.774   2.436
    1   AR   Ar  184   4.165   6.107   2.304
    1   AR   Ar  185   1.999   5.682   3.508
    1   AR   Ar  186   3.327   5.617   4.247
    1   AR   Ar  187   4.605   5.430   3.266
    1   AR   Ar  188   3.497   5.787   3.027
    1   AR   Ar  189   2.875   5.316   5.810
    1   AR   Ar  190   3.993   6.960   6.665
    1   AR   Ar  191   4.543   5.851   5.089
    1   AR   Ar  192   3.458   6.245   5.533
    1   AR   Ar  193   5.585   0.223  -0.112
    1   AR   Ar  194   4.633   0.887   0.248
    1   AR   Ar  195   5.824   1.185   0.977
    1   AR   Ar  196   5.840   1.192  -0.422
    1   AR   Ar  197   4.870   0.506   1.214
    1   AR   Ar  198   5.239   1.363   1.831
    1   AR   Ar  199   6.285   0.676   2.047
    1   AR   Ar  200   6.594   1.597   1.555
    1   AR   Ar  201   4.545   6.505   3.307
    1   AR   Ar  202   4.985   0.716   4.356
    1   AR   Ar  203   6.824   6.412   4.970
    1   AR   Ar  204   6.472   0.356   3.493
    1   AR   Ar  205   5.400   6.789   4.183
    1   AR   Ar  206   5.433   6.876   5.253
    1   AR   Ar  207   6.856   6.980   5.997
    1   AR   Ar  208   6.182   0.511   4.479
    1   AR   Ar  209   6.747   2.115  -0.732
    1   AR   Ar  210   5.073   2.671   1.402
    1   AR   Ar  211   6.049   2.291   0.855
    1   AR   Ar  212   6.856   3.537  -0.127
    1   AR   Ar  213   4.648   2.272   2.452
    1   AR   Ar  214   4.543   3.483   2.035
    1   AR   Ar  215   5.714   2.110   2.552
    1   AR   Ar  216   6.539   2.665   1.997
    1   AR   Ar  217   5.220   2.215   3.416
    1   AR   Ar  218   5.179   2.050   4.437
    1   AR   Ar  219   5.773   1.236   3.332
    1   AR   Ar  220   6.124   2.900   3.080
    1   AR   Ar  221   5.571   0.853   5.350
    1   AR   Ar  222   4.696   2.421   6.391
    1   AR   Ar  223   7.017   1.588   7.271
    1   AR   Ar  224   6.319   2.515   5.215
    1   AR   Ar  225   5.168   4.247  -0.170
    1   AR   Ar  226   5.145   4.482   2.114
    1   AR   Ar  227   6.657   3.790   1.822
    1   AR   Ar  228   6.779   4.997   0.499
    1   AR   Ar  229   6.356   3.479   0.776
    1   AR   Ar  230   4.553   4.335   3.361
    1   AR   Ar  231   7.054   2.827   3.761
    1   AR   Ar  232   5.603   3.758   1.600
    1   AR   Ar  233   5.794   2.751   4.048
    1   AR   Ar  234   5.853   4.055   4.829
    1   AR   Ar  235   6.840   3.714   4.473
    1   AR   Ar  236   5.954   3.896   3.726
    1   AR   Ar  237   5.392   3.103   5.065
    1   AR   Ar  238   4.837   4.676   6.023
    1   AR   Ar  239   5.669   3.686   8.001
    1   AR   Ar  240   6.196   3.577   5.894
    1   AR   Ar  241   6.633   0.331  -0.041
    1   AR   Ar  242   4.995   6.213   1.482
    1   AR   Ar  243   6.147   4.567   2.288
    1   AR   Ar  244   5.932   0.045   1.142
    1   AR   Ar  245   5.530   5.492   2.307
    1   AR   Ar  246   5.813   6.643   3.165
    1   AR   Ar  247   5.748   3.748   2.683
    1   AR   Ar  248   6.101   6.502   2.033
    1   AR   Ar  249   6.370   5.500   3.023
    1   AR   Ar  250   4.821   5.827   4.109
    1   AR   Ar  251   5.863   4.873   4.002
    1   AR   Ar  252   6.241   5.889   4.067
    1   AR   Ar  253   5.200   4.940   5.119
    1   AR   Ar  254   5.700   5.717   6.204
    1   AR   Ar  255   6.317   4.853   5.686
    1   AR   Ar  256   5.894   5.954   5.155
    7.12000  7.12000 12.00000
Argon-slab step 670
  256
    1   AR   Ar    1   1.068   1.080  -0.847
    1   AR   Ar    2   0.427   0.893   0.838
    1   AR   Ar    3   0.556   6.713   0.662
    1   AR   Ar    4   1.398   0.335   0.200
    1   AR   Ar    5   6.868   6.633   1.389
    1   AR   Ar    6   0.483   0.534   3.072
    1   AR   Ar    7   0.342   6.653   2.336
    1   AR   Ar    8   1.152   0.162   1.451
    1   AR   Ar    9   0.453   0.359   4.106
    1   AR   Ar   10   0.158   1.318   4.618
    1   AR   Ar   11   1.541   0.099   4.335
    1   AR   Ar   12   1.026   1.066   3.684
    1   AR   Ar   13   7.013   0.339   5.018
    1   AR   Ar   14   0.217   1.404   6.335
    1   AR   Ar   15   1.657   6.675   7.373
    1   AR   Ar   16   1.006   1.032   5.479
    1   AR   Ar   17   6.860   1.565   0.139
    1   AR   Ar   18   0.084   2.625   0.307
    1   AR   Ar   19   0.813   1.859   0.867
    1   AR   Ar   20   0.811   2.251  -0.804
    1   AR   Ar   21   0.415   0.712   1.930
    1   AR   Ar   22   7.108   2.292   2.793
    1   AR   Ar   23   6.913   1.290   2.670
    1   AR   Ar   24   0.457   2.327   1.710
    1   AR   Ar   25   0.492   1.924   3.493
    1   AR   Ar   26   6.546   1.818   3.871
    1   AR   Ar   27   0.594   2.025   5.255
    1   AR   Ar   28   1.015   2.639   4.236
    1   AR   Ar   29   6.541   1.206   5.467
    1   AR   Ar   30   7.008   2.425   6.145
    1   AR   Ar   31   1.239   1.320   6.869
    1   AR   Ar   32   0.843   3.273   5.873
    1   AR   Ar   33   0.826   3.625  -0.568
    1   AR   Ar   34   0.214   5.209   1.347
    1   AR   Ar   35   0.248   3.447   1.183
    1   AR   Ar   36   1.728   5.821  -1.126
    1   AR   Ar   37   7.095   3.379   2.663
    1   AR   Ar   38   0.526   4.780   2.571
    1   AR   Ar   39   1.177   3.907   2.873
    1   AR   Ar   40   1.056   4.505   1.638
    1   AR   Ar   41   0.994   2.815   2.818
    1   AR   Ar   42   7.012   4.964   4.919
    1   AR   Ar   43   0.162   2.931   5.002
    1   AR   Ar   44   0.707   3.600   3.886
    1   AR   Ar   45   0.070   4.030   5.566
    1   AR   Ar   46   0.109   4.924   6.506
    1   AR   Ar   47   0.204   3.559   6.688
    1   AR   Ar   48   0.922   4.408   6.122
    1   AR   Ar   49   0.306   4.780  -0.492
    1   AR   Ar   50   6.110   5.469   1.490
    1   AR   Ar   51   0.868   4.236   0.601
    1   AR   Ar   52   0.736   5.300   0.435
    1   AR   Ar   53   6.938   5.861   2.125
    1   AR   Ar   54   7.020   6.624   3.359
    1   AR   Ar   55   0.285   5.668   3.050
    1   AR   Ar   56   0.935   6.081   1.630
    1   AR   Ar   57   6.913   4.537   3.545
    1   AR   Ar   58   0.210   5.600   4.025
    1   AR   Ar   59   1.530   6.227   4.795
    1   AR   Ar   60   1.040   6.413   3.889
    1   AR   Ar   61   6.757   5.731   5.771
    1   AR   Ar   62   0.718   5.799   5.512
    1   AR   Ar   63   1.815   5.450   5.614
    1   AR   Ar   64   0.856   6.892   5.049
    1   AR   Ar   65   1.754   6.471  -0.132
    1   AR   Ar   66   1.768   1.034   1.213
    1   AR   Ar   67   2.780   5.958  -0.219
    1   AR   Ar   68   3.641   1.216   0.830
    1   AR   Ar   69   1.984   6.900   0.865
    1   AR   Ar   70   1.414   0.556   2.478
    1   AR   Ar   71   2.169   0.007   2.007
    1   AR   Ar   72   2.769   0.771   1.589
    1   AR   Ar   73   1.882   6.922   3.244
    1   AR   Ar   74   1.548   1.325   4.568
    1   AR   Ar   75   2.577   0.803   4.665
    1   AR   Ar   76   2.043   0.689   3.667
    1   AR   Ar   77   1.906   0.093   5.409
    1   AR   Ar   78   1.446   0.455   6.259
    1   AR   Ar   79   2.734   0.031   6.899
    1   AR   Ar   80   2.638   0.943   6.139
    1   AR   Ar   81   2.428   1.313   0.212
    1   AR   Ar   82   1.879   3.895   1.185
    1   AR   Ar   83   2.673   1.980   1.741
    1   AR   Ar   84   1.755   2.924  -0.872
    1   AR   Ar   85   1.480   2.070   1.605
    1   AR   Ar   86   2.087   2.683   2.533
    1   AR   Ar   87   1.959   1.408   2.207
    1   AR   Ar   88   3.178   3.271   1.483
    1   AR   Ar   89   0.898   1.682   2.560
    1   AR   Ar   90   3.047   2.936   4.794
    1   AR   Ar   91   2.655   2.001   4.504
    1   AR   Ar   92   1.635   1.840   3.224
    1   AR   Ar   93   1.541   1.763   6.022
    1   AR   Ar   94   2.068   2.058   6.778
    1   AR   Ar   95   2.230   1.056   7.358
    1   AR   Ar   96   2.757   2.302   5.791
    1   AR   Ar   97   2.069   4.068  -0.548
    1   AR   Ar   98   3.127   4.410   1.667
    1   AR   Ar   99   3.020   3.275  -0.972
    1   AR   Ar  100   2.330   5.032  -0.435
    1   AR   Ar  101   1.433   3.093   1.626
    1   AR   Ar  102   2.220   4.269   3.404
    1   AR   Ar  103   2.136   3.922   2.274
    1   AR   Ar  104   2.702   4.015   0.520
    1   AR   Ar  105   1.758   3.090   3.438
    1   AR   Ar  106   1.957   3.619   4.417
    1   AR   Ar  107   2.888   4.007   5.409
    1   AR   Ar  108   2.959   3.623   3.918
    1   AR   Ar  109   0.660   4.218   4.733
    1   AR   Ar  110   1.571   3.671   5.315
    1   AR   Ar  111   3.134   4.934   6.747
    1   AR   Ar  112   2.282   3.605   6.276
    1   AR   Ar  113   1.886   4.924   0.527
    1   AR   Ar  114   1.728   5.923   0.797
    1   AR   Ar  115   3.571   5.293   0.472
    1   AR   Ar  116   2.782   7.014  -0.244
    1   AR   Ar  117   1.631   4.905   2.579
    1   AR   Ar  118   1.348   5.955   2.673
    1   AR   Ar  119   2.778   4.877   2.546
    1   AR   Ar  120   2.129   5.035   1.513
    1   AR   Ar  121   0.944   4.792   3.631
    1   AR   Ar  122   2.405   6.455   4.140
    1   AR   Ar  123   2.066   5.399   4.480
    1   AR   Ar  124   2.416   6.120   2.694
    1   AR   Ar  125   1.404   4.804   4.951
    1   AR   Ar  126   1.539   6.386   6.209
    1   AR   Ar  127   2.111   5.749   7.604
    1   AR   Ar  128   2.509   6.320   5.863
    1   AR   Ar  129   2.889   6.451   0.787
    1   AR   Ar  130   3.925   0.487  -0.873
    1   AR   Ar  131   4.444   6.824   0.531
    1   AR   Ar  132   4.747   1.903  -0.942
    1   AR   Ar  133   3.861   0.150   2.777
    1   AR   Ar  134   2.892   0.714   2.664
    1   AR   Ar  135   4.964   0.288   2.925
    1   AR   Ar  136   3.795   0.337   1.760
    1   AR   Ar  137   3.059   7.025   3.381
    1   AR   Ar  138   4.075   1.120   4.671
    1   AR   Ar  139   4.189   0.194   3.786
    1   AR   Ar  140   4.335   1.120   3.496
    1   AR   Ar  141   3.637   0.135   4.772
    1   AR   Ar  142   4.126   0.409   5.589
    1   AR   Ar  143   5.132   6.678   6.242
    1   AR   Ar  144   5.157   1.137   6.384
    1   AR   Ar  145   2.738   2.474   0.418
    1   AR   Ar  146   3.995   2.835   0.993
    1   AR   Ar  147   4.640   1.856   0.698
    1   AR   Ar  148   5.834   2.972  -0.321
    1   AR   Ar  149   3.887   1.960   1.720
    1   AR   Ar  150   2.661   1.762   2.912
    1   AR   Ar  151   3.781   1.919   3.193
    1   AR   Ar  152   3.645   2.784   2.439
    1   AR   Ar  153   3.208   1.399   3.972
    1   AR   Ar  154   3.910   2.444   4.372
    1   AR   Ar  155   4.881   1.647   5.575
    1   AR   Ar  156   4.980   3.647   4.274
    1   AR   Ar  157   3.859   2.119   5.470
    1   AR   Ar  158   3.521   2.364   6.791
    1   AR   Ar  159   3.978   1.373   6.514
    1   AR   Ar  160   4.445   2.901   5.324
    1   AR   Ar  161   4.477   3.086  -0.288
    1   AR   Ar  162   4.397   4.770   0.697
    1   AR   Ar  163   4.913   3.500   0.712
    1   AR   Ar  164   5.326   4.712   0.979
    1   AR   Ar  165   3.546   3.856   2.492
    1   AR   Ar  166   3.420   4.775   3.391
    1   AR   Ar  167   4.604   3.120   3.277
    1   AR   Ar  168   4.104   3.901   1.209
    1   AR   Ar  169   2.888   2.947   3.164
    1   AR   Ar  170   2.840   4.582   4.283
    1   AR   Ar  171   3.798   3.669   4.713
    1   AR   Ar  172   4.064   4.625   4.270
    1   AR   Ar  173   3.670   3.114   5.885
    1   AR   Ar  174   3.947   5.432   5.984
    1   AR   Ar  175   3.888   4.140   6.329
    1   AR   Ar  176   4.086   4.431   5.339
    1   AR   Ar  177   5.330   5.958   0.366
    1   AR   Ar  178   3.720   6.338   1.388
    1   AR   Ar  179   4.324   5.344   1.491
    1   AR   Ar  180   3.999   5.729  -0.367
    1   AR   Ar  181   3.290   5.440   1.934
    1   AR   Ar  182   2.478   6.133   1.659
    1   AR   Ar  183   4.121   4.765   2.453
    1   AR   Ar  184   4.170   6.097   2.268
    1   AR   Ar  185   1.968   5.698   3.503
    1   AR   Ar  186   3.354   5.587   4.280
    1   AR   Ar  187   4.576   5.418   3.249
    1   AR   Ar  188   3.518   5.790   3.031
    1   AR   Ar  189   2.873   5.316   5.820
    1   AR   Ar  190   4.015   6.940   6.644
    1   AR   Ar  191   4.538   5.845   5.087
    1   AR   Ar  192   3.478   6.216   5.520
    1   AR   Ar  193   5.600   0.205  -0.088
    1   AR   Ar  194   4.625   0.861   0.226
    1   AR   Ar  195   5.796   1.167   0.986
    1   AR   Ar  196   5.864   1.176  -0.429
    1   AR   Ar  197   4.868   0.513   1.208
    1   AR   Ar  198   5.244   1.371   1.825
    1   AR   Ar  199   6.241   0.649   2.004
    1   AR   Ar  200   6.600   1.578   1.559
    1   AR   Ar  201   4.555   6.518   3.295
    1   AR   Ar  202   4.962   0.728   4.370
    1   AR   Ar  203   6.798   6.401   4.980
    1   AR   Ar  204   6.483   0.358   3.471
    1   AR   Ar  205   5.449   6.775   4.139
    1   AR   Ar  206   5.430   6.861   5.213
    1   AR   Ar  207   6.867   6.973   5.985
    1   AR   Ar  208   6.187   0.505   4.488
    1   AR   Ar  209   6.730   2.097  -0.771
    1   AR   Ar  210   5.058   2.695   1.425
    1   AR   Ar  211   6.048   2.290   0.885
    1   AR   Ar  212   6.844   3.560  -0.150
    1   AR   Ar  213   4.621   2.272   2.483
    1   AR   Ar  214   4.529   3.499   2.019
    1   AR   Ar  215   5.714   2.117   2.570
    1   AR   Ar  216   6.516   2.662   2.014
    1   AR   Ar  217   5.227   2.205   3.452
    1   AR   Ar  218   5.192   2.037   4.478
    1   AR   Ar  219   5.783   1.222   3.305
    1   AR   Ar  220   6.119   2.897   3.076
    1   AR   Ar  221   5.596   0.831   5.341
    1   AR   Ar  222   4.683   2.428   6.407
    1   AR   Ar  223   7.017   1.625   7.282
    1   AR   Ar  224   6.281   2.514   5.217
    1   AR   Ar  225   5.191   4.266  -0.170
    1   AR   Ar  226   5.132   4.452   2.153
    1   AR   Ar  227   6.625   3.808   1.798
    1   AR   Ar  228   6.781   4.965   0.492
    1   AR   Ar  229   6.377   3.482   0.797
    1   AR   Ar  230   4.551   4.370   3.374
    1   AR   Ar  231   7.063   2.798   3.746
    1   AR   Ar  232   5.604   3.760   1.601
    1   AR   Ar  233   5.812   2.768   4.019
    1   AR   Ar  234   5.825   4.071   4.799
    1   AR   Ar  235   6.848   3.713   4.482
    1   AR   Ar  236   5.950   3.883   3.755
    1   AR   Ar  237   5.421   3.085   5.048
    1   AR   Ar  238   4.833   4.671   6.048
    1   AR   Ar  239   5.678   3.695   8.026
    1   AR   Ar  240   6.182   3.539   5.883
    1   AR   Ar  241   6.644   0.368  -0.042
    1   AR   Ar  242   4.948   6.198   1.453
    1   AR   Ar  243   6.160   4.553   2.326
    1   AR   Ar  244   5.886   0.055   1.158
    1   AR   Ar  245   5.543   5.491   2.303
    1   AR   Ar  246   5.815   6.647   3.140
    1   AR   Ar  247   5.721   3.759   2.681
    1   AR   Ar  248   6.091   6.507   2.034
    1   AR   Ar  249   6.358   5.488   3.009
    1   AR   Ar  250   4.804   5.811   4.123
    1   AR   Ar  251   5.819   4.921   4.055
    1   AR   Ar  252   6.278   5.870   4.060
    1   AR   Ar  253   5.234   4.984   5.107
    1   AR   Ar  254   5.694   5.745   6.216
    1   AR   Ar  255   6.337   4.859   5.680
    1   AR   Ar  256   5.902   5.941   5.107
    7.12000  7.12000 12.00000
Argon-slab step 675
  256
    1   AR   Ar    1   1.054   1.058  -0.793
    1   AR   Ar    2   0.438   0.863   0.825
    1   AR   Ar    3   0.570   6.692   0.639
    1   AR   Ar    4   1.387   0.368   0.218
    1   AR   Ar    5   6.869   6.635   1.396
    1   AR   Ar    6   0.506   0.524   3.032
    1   AR   Ar    7   0.362   6.656   2.339
    1   AR   Ar    8   1.165   0.148   1.476
    1   AR   Ar    9   0.429   0.349   4.131
    1   AR   Ar   10   0.184   1.327   4.638
    1   AR   Ar   11   1.535   0.089   4.343
    1   AR   Ar   12   1.056   1.049   3.709
    1   AR   Ar   13   7.001   0.358   5.005
    1   AR   Ar   14   0.221   1.410   6.323
    1   AR   Ar   15   1.651   6.633   7.362
    1   AR   Ar   16   0.981   1.037   5.455
    1   AR   Ar   17   6.857   1.568   0.148
    1   AR   Ar   18   0.073   2.597   0.309
    1   AR   Ar   19   0.808   1.859   0.862
    1   AR   Ar   20   0.796   2.282  -0.792
    1   AR   Ar   21   0.382   0.699   1.928
    1   AR   Ar   22   7.101   2.280   2.752
    1   AR   Ar   23   6.884   1.265   2.718
    1   AR   Ar   24   0.446   2.344   1.718
    1   AR   Ar   25   0.506   1.905   3.534
    1   AR   Ar   26   6.559   1.853   3.868
    1   AR   Ar   27   0.634   2.037   5.288
    1   AR   Ar   28   1.024   2.645   4.246
    1   AR   Ar   29   6.549   1.232   5.486
    1   AR   Ar   30   6.978   2.455   6.134
    1   AR   Ar   31   1.268   1.338   6.857
    1   AR   Ar   32   0.869   3.339   5.910
    1   AR   Ar   33   0.866   3.602  -0.584
    1   AR   Ar   34   0.236   5.201   1.368
    1   AR   Ar   35   0.244   3.440   1.163
    1   AR   Ar   36   1.741   5.820  -1.126
    1   AR   Ar   37   7.096   3.381   2.668
    1   AR   Ar   38   0.517   4.811   2.555
    1   AR   Ar   39   1.141   3.943   2.857
    1   AR   Ar   40   1.064   4.502   1.608
    1   AR   Ar   41   1.010   2.824   2.786
    1   AR   Ar   42   6.984   4.978   4.896
    1   AR   Ar   43   0.133   2.889   5.001
    1   AR   Ar   44   0.737   3.560   3.845
    1   AR   Ar   45   0.031   4.019   5.564
    1   AR   Ar   46   0.094   4.891   6.536
    1   AR   Ar   47   0.203   3.530   6.702
    1   AR   Ar   48   0.925   4.385   6.122
    1   AR   Ar   49   0.306   4.778  -0.470
    1   AR   Ar   50   6.115   5.486   1.480
    1   AR   Ar   51   0.848   4.235   0.575
    1   AR   Ar   52   0.752   5.308   0.411
    1   AR   Ar   53   6.899   5.851   2.176
    1   AR   Ar   54   7.011   6.644   3.338
    1   AR   Ar   55   0.254   5.686   3.049
    1   AR   Ar   56   0.937   6.087   1.626
    1   AR   Ar   57   6.891   4.532   3.513
    1   AR   Ar   58   0.205   5.606   4.031
    1   AR   Ar   59   1.520   6.231   4.816
    1   AR   Ar   60   1.016   6.426   3.884
    1   AR   Ar   61   6.725   5.724   5.791
    1   AR   Ar   62   0.722   5.846   5.480
    1   AR   Ar   63   1.782   5.453   5.614
    1   AR   Ar   64   0.851   6.932   5.086
    1   AR   Ar   65   1.753   6.472  -0.136
    1   AR   Ar   66   1.759   1.012   1.216
    1   AR   Ar   67   2.739   5.933  -0.247
    1   AR   Ar   68   3.660   1.194   0.837
    1   AR   Ar   69   1.977   6.889   0.862
    1   AR   Ar   70   1.404   0.540   2.441
    1   AR   Ar   71   2.203   0.010   2.021
    1   AR   Ar   72   2.754   0.748   1.586
    1   AR   Ar   73   1.906   6.901   3.245
    1   AR   Ar   74   1.566   1.312   4.537
    1   AR   Ar   75   2.564   0.822   4.662
    1   AR   Ar   76   2.052   0.692   3.692
    1   AR   Ar   77   1.895   0.084   5.379
    1   AR   Ar   78   1.441   0.458   6.270
    1   AR   Ar   79   2.727   0.014   6.907
    1   AR   Ar   80   2.616   0.926   6.151
    1   AR   Ar   81   2.426   1.305   0.211
    1   AR   Ar   82   1.872   3.928   1.184
    1   AR   Ar   83   2.698   1.972   1.742
    1   AR   Ar   84   1.764   2.893  -0.860
    1   AR   Ar   85   1.461   2.061   1.600
    1   AR   Ar   86   2.076   2.656   2.523
    1   AR   Ar   87   1.969   1.415   2.217
    1   AR   Ar   88   3.186   3.327   1.476
    1   AR   Ar   89   0.910   1.669   2.544
    1   AR   Ar   90   3.047   2.888   4.818
    1   AR   Ar   91   2.660   2.015   4.491
    1   AR   Ar   92   1.614   1.866   3.224
    1   AR   Ar   93   1.505   1.790   6.029
    1   AR   Ar   94   2.053   2.044   6.792
    1   AR   Ar   95   2.216   1.027   7.351
    1   AR   Ar   96   2.791   2.313   5.787
    1   AR   Ar   97   2.074   4.073  -0.545
    1   AR   Ar   98   3.134   4.423   1.644
    1   AR   Ar   99   3.011   3.283  -0.978
    1   AR   Ar  100   2.309   5.070  -0.449
    1   AR   Ar  101   1.401   3.096   1.645
    1   AR   Ar  102   2.237   4.254   3.397
    1   AR   Ar  103   2.157   3.933   2.258
    1   AR   Ar  104   2.672   3.999   0.546
    1   AR   Ar  105   1.754   3.079   3.440
    1   AR   Ar  106   1.947   3.586   4.430
    1   AR   Ar  107   2.897   3.978   5.461
    1   AR   Ar  108   2.984   3.619   3.908
    1   AR   Ar  109   0.651   4.215   4.714
    1   AR   Ar  110   1.556   3.698   5.312
    1   AR   Ar  111   3.149   4.960   6.736
    1   AR   Ar  112   2.298   3.598   6.271
    1   AR   Ar  113   1.892   4.914   0.497
    1   AR   Ar  114   1.735   5.928   0.794
    1   AR   Ar  115   3.560   5.285   0.460
    1   AR   Ar  116   2.801   7.005  -0.212
    1   AR   Ar  117   1.650   4.928   2.587
    1   AR   Ar  118   1.344   5.981   2.669
    1   AR   Ar  119   2.775   4.895   2.538
    1   AR   Ar  120   2.118   5.015   1.509
    1   AR   Ar  121   0.931   4.754   3.614
    1   AR   Ar  122   2.417   6.484   4.113
    1   AR   Ar  123   2.065   5.382   4.466
    1   AR   Ar  124   2.395   6.122   2.704
    1   AR   Ar  125   1.385   4.791   4.951
    1   AR   Ar  126   1.503   6.390   6.231
    1   AR   Ar  127   2.142   5.720   7.588
    1   AR   Ar  128   2.492   6.288   5.850
    1   AR   Ar  129   2.894   6.415   0.790
    1   AR   Ar  130   3.906   0.491  -0.898
    1   AR   Ar  131   4.458   6.804   0.512
    1   AR   Ar  132   4.779   1.923  -0.940
    1   AR   Ar  133   3.868   0.147   2.783
    1   AR   Ar  134   2.890   0.719   2.681
    1   AR   Ar  135   4.976   0.312   2.937
    1   AR   Ar  136   3.808   0.353   1.774
    1   AR   Ar  137   3.051   7.021   3.399
    1   AR   Ar  138   4.103   1.097   4.668
    1   AR   Ar  139   4.196   0.211   3.779
    1   AR   Ar  140   4.302   1.130   3.507
    1   AR   Ar  141   3.640   0.155   4.774
    1   AR   Ar  142   4.158   0.396   5.550
    1   AR   Ar  143   5.140   6.679   6.237
    1   AR   Ar  144   5.151   1.176   6.397
    1   AR   Ar  145   2.738   2.483   0.401
    1   AR   Ar  146   4.038   2.832   0.993
    1   AR   Ar  147   4.678   1.853   0.667
    1   AR   Ar  148   5.850   2.979  -0.310
    1   AR   Ar  149   3.870   1.941   1.702
    1   AR   Ar  150   2.671   1.755   2.929
    1   AR   Ar  151   3.793   1.907   3.208
    1   AR   Ar  152   3.616   2.810   2.423
    1   AR   Ar  153   3.218   1.389   3.982
    1   AR   Ar  154   3.914   2.449   4.388
    1   AR   Ar  155   4.869   1.680   5.583
    1   AR   Ar  156   4.979   3.663   4.263
    1   AR   Ar  157   3.869   2.121   5.506
    1   AR   Ar  158   3.541   2.369   6.823
    1   AR   Ar  159   3.957   1.361   6.474
    1   AR   Ar  160   4.445   2.899   5.310
    1   AR   Ar  161   4.484   3.057  -0.297
    1   AR   Ar  162   4.405   4.755   0.665
    1   AR   Ar  163   4.915   3.507   0.715
    1   AR   Ar  164   5.358   4.716   0.996
    1   AR   Ar  165   3.528   3.850   2.510
    1   AR   Ar  166   3.430   4.799   3.398
    1   AR   Ar  167   4.601   3.143   3.280
    1   AR   Ar  168   4.112   3.915   1.190
    1   AR   Ar  169   2.906   2.930   3.165
    1   AR   Ar  170   2.802   4.592   4.313
    1   AR   Ar  171   3.757   3.672   4.714
    1   AR   Ar  172   4.063   4.614   4.257
    1   AR   Ar  173   3.643   3.120   5.871
    1   AR   Ar  174   3.951   5.443   5.974
    1   AR   Ar  175   3.866   4.139   6.338
    1   AR   Ar  176   4.133   4.403   5.338
    1   AR   Ar  177   5.323   5.964   0.355
    1   AR   Ar  178   3.700   6.355   1.380
    1   AR   Ar  179   4.308   5.350   1.501
    1   AR   Ar  180   4.030   5.712  -0.405
    1   AR   Ar  181   3.273   5.451   1.951
    1   AR   Ar  182   2.452   6.137   1.615
    1   AR   Ar  183   4.068   4.759   2.467
    1   AR   Ar  184   4.180   6.087   2.238
    1   AR   Ar  185   1.934   5.711   3.499
    1   AR   Ar  186   3.354   5.583   4.276
    1   AR   Ar  187   4.544   5.402   3.219
    1   AR   Ar  188   3.536   5.792   3.038
    1   AR   Ar  189   2.871   5.314   5.825
    1   AR   Ar  190   4.038   6.921   6.622
    1   AR   Ar  191   4.529   5.839   5.094
    1   AR   Ar  192   3.501   6.191   5.502
    1   AR   Ar  193   5.610   0.184  -0.061
    1   AR   Ar  194   4.617   0.834   0.201
    1   AR   Ar  195   5.769   1.148   0.989
    1   AR   Ar  196   5.889   1.164  -0.435
    1   AR   Ar  197   4.871   0.517   1.203
    1   AR   Ar  198   5.246   1.382   1.824
    1   AR   Ar  199   6.197   0.621   1.962
    1   AR   Ar  200   6.609   1.562   1.566
    1   AR   Ar  201   4.568   6.523   3.279
    1   AR   Ar  202   4.948   0.736   4.383
    1   AR   Ar  203   6.779   6.396   4.984
    1   AR   Ar  204   6.491   0.367   3.448
    1   AR   Ar  205   5.497   6.763   4.095
    1   AR   Ar  206   5.425   6.851   5.173
    1   AR   Ar  207   6.879   6.965   5.973
    1   AR   Ar  208   6.184   0.500   4.494
    1   AR   Ar  209   6.712   2.081  -0.810
    1   AR   Ar  210   5.038   2.723   1.450
    1   AR   Ar  211   6.048   2.289   0.914
    1   AR   Ar  212   6.834   3.583  -0.175
    1   AR   Ar  213   4.595   2.272   2.513
    1   AR   Ar  214   4.520   3.511   2.012
    1   AR   Ar  215   5.721   2.118   2.588
    1   AR   Ar  216   6.491   2.661   2.026
    1   AR   Ar  217   5.225   2.189   3.484
    1   AR   Ar  218   5.202   2.021   4.526
    1   AR   Ar  219   5.793   1.207   3.276
    1   AR   Ar  220   6.122   2.895   3.069
    1   AR   Ar  221   5.614   0.808   5.331
    1   AR   Ar  222   4.667   2.434   6.420
    1   AR   Ar  223   7.015   1.663   7.297
    1   AR   Ar  224   6.295   2.501   5.240
    1   AR   Ar  225   5.213   4.285  -0.167
    1   AR   Ar  226   5.108   4.430   2.194
    1   AR   Ar  227   6.595   3.825   1.776
    1   AR   Ar  228   6.782   4.932   0.483
    1   AR   Ar  229   6.393   3.483   0.817
    1   AR   Ar  230   4.551   4.400   3.385
    1   AR   Ar  231   7.070   2.772   3.734
    1   AR   Ar  232   5.604   3.756   1.594
    1   AR   Ar  233   5.837   2.793   4.005
    1   AR   Ar  234   5.800   4.088   4.773
    1   AR   Ar  235   6.853   3.714   4.487
    1   AR   Ar  236   5.948   3.867   3.781
    1   AR   Ar  237   5.453   3.066   5.031
    1   AR   Ar  238   4.830   4.667   6.075
    1   AR   Ar  239   5.686   3.704   8.052
    1   AR   Ar  240   6.176   3.532   5.842
    1   AR   Ar  241   6.658   0.407  -0.040
    1   AR   Ar  242   4.904   6.186   1.424
    1   AR   Ar  243   6.162   4.560   2.329
    1   AR   Ar  244   5.891   0.026   1.137
    1   AR   Ar  245   5.529   5.513   2.331
    1   AR   Ar  246   5.825   6.649   3.107
    1   AR   Ar  247   5.686   3.760   2.685
    1   AR   Ar  248   6.082   6.501   2.045
    1   AR   Ar  249   6.345   5.476   2.996
    1   AR   Ar  250   4.794   5.799   4.141
    1   AR   Ar  251   5.774   4.969   4.108
    1   AR   Ar  252   6.315   5.855   4.052
    1   AR   Ar  253   5.269   5.029   5.091
    1   AR   Ar  254   5.689   5.771   6.226
    1   AR   Ar  255   6.345   4.850   5.676
    1   AR   Ar  256   5.904   5.919   5.059
    7.12000  7.12000 12.00000
Argon-slab step 680
  256
    1   AR   Ar    1   1.040   1.037  -0.738
    1   AR   Ar    2   0.447   0.830   0.812
    1   AR   Ar    3   0.587   6.670   0.618
    1   AR   Ar    4   1.373   0.403   0.237
    1   AR   Ar    5   6.874   6.635   1.404
    1   AR   Ar    6   0.525   0.509   2.988
    1   AR   Ar    7   0.387   6.668   2.345
    1   AR   Ar    8   1.176   0.129   1.497
    1   AR   Ar    9   0.405   0.334   4.154
    1   AR   Ar   10   0.209   1.336   4.655
    1   AR   Ar   11   1.531   0.082   4.352
    1   AR   Ar   12   1.088   1.034   3.731
    1   AR   Ar   13   6.999   0.373   5.003
    1   AR   Ar   14   0.227   1.415   6.306
    1   AR   Ar   15   1.646   6.594   7.349
    1   AR   Ar   16   0.955   1.037   5.429
    1   AR   Ar   17   6.853   1.570   0.158
    1   AR   Ar   18   0.062   2.571   0.313
    1   AR   Ar   19   0.798   1.858   0.849
    1   AR   Ar   20   0.779   2.314  -0.780
    1   AR   Ar   21   0.342   0.689   1.931
    1   AR   Ar   22   7.093   2.272   2.709
    1   AR   Ar   23   6.853   1.236   2.766
    1   AR   Ar   24   0.430   2.365   1.729
    1   AR   Ar   25   0.524   1.884   3.581
    1   AR   Ar   26   6.569   1.886   3.864
    1   AR   Ar   27   0.677   2.048   5.324
    1   AR   Ar   28   1.034   2.648   4.258
    1   AR   Ar   29   6.561   1.261   5.505
    1   AR   Ar   30   6.949   2.486   6.122
    1   AR   Ar   31   1.288   1.352   6.883
    1   AR   Ar   32   0.886   3.396   5.951
    1   AR   Ar   33   0.906   3.578  -0.599
    1   AR   Ar   34   0.257   5.193   1.392
    1   AR   Ar   35   0.247   3.434   1.138
    1   AR   Ar   36   1.755   5.820  -1.123
    1   AR   Ar   37   7.098   3.383   2.675
    1   AR   Ar   38   0.508   4.839   2.538
    1   AR   Ar   39   1.106   3.978   2.840
    1   AR   Ar   40   1.073   4.499   1.580
    1   AR   Ar   41   1.019   2.829   2.751
    1   AR   Ar   42   6.960   4.993   4.868
    1   AR   Ar   43   0.106   2.850   5.000
    1   AR   Ar   44   0.711   3.592   3.842
    1   AR   Ar   45   7.110   4.008   5.563
    1   AR   Ar   46   0.076   4.858   6.565
    1   AR   Ar   47   0.234   3.529   6.704
    1   AR   Ar   48   0.932   4.364   6.119
    1   AR   Ar   49   0.306   4.775  -0.446
    1   AR   Ar   50   6.123   5.502   1.466
    1   AR   Ar   51   0.828   4.233   0.547
    1   AR   Ar   52   0.770   5.318   0.387
    1   AR   Ar   53   6.856   5.834   2.218
    1   AR   Ar   54   6.988   6.663   3.347
    1   AR   Ar   55   0.231   5.706   3.045
    1   AR   Ar   56   0.939   6.093   1.619
    1   AR   Ar   57   6.929   4.517   3.515
    1   AR   Ar   58   0.204   5.609   4.050
    1   AR   Ar   59   1.518   6.229   4.836
    1   AR   Ar   60   0.990   6.438   3.874
    1   AR   Ar   61   6.703   5.732   5.815
    1   AR   Ar   62   0.725   5.893   5.447
    1   AR   Ar   63   1.751   5.460   5.618
    1   AR   Ar   64   0.837   6.977   5.127
    1   AR   Ar   65   1.753   6.474  -0.142
    1   AR   Ar   66   1.750   0.990   1.217
    1   AR   Ar   67   2.703   5.919  -0.271
    1   AR   Ar   68   3.680   1.171   0.846
    1   AR   Ar   69   1.970   6.890   0.864
    1   AR   Ar   70   1.392   0.525   2.408
    1   AR   Ar   71   2.236   0.006   2.038
    1   AR   Ar   72   2.742   0.731   1.581
    1   AR   Ar   73   1.926   6.877   3.243
    1   AR   Ar   74   1.588   1.301   4.512
    1   AR   Ar   75   2.553   0.839   4.654
    1   AR   Ar   76   2.068   0.704   3.714
    1   AR   Ar   77   1.885   0.073   5.349
    1   AR   Ar   78   1.436   0.461   6.281
    1   AR   Ar   79   2.719   7.118   6.913
    1   AR   Ar   80   2.592   0.909   6.164
    1   AR   Ar   81   2.424   1.296   0.212
    1   AR   Ar   82   1.869   3.901   1.171
    1   AR   Ar   83   2.716   1.952   1.748
    1   AR   Ar   84   1.774   2.863  -0.848
    1   AR   Ar   85   1.448   2.051   1.600
    1   AR   Ar   86   2.065   2.626   2.508
    1   AR   Ar   87   1.978   1.415   2.231
    1   AR   Ar   88   3.193   3.383   1.470
    1   AR   Ar   89   0.915   1.654   2.521
    1   AR   Ar   90   3.047   2.847   4.848
    1   AR   Ar   91   2.654   2.029   4.483
    1   AR   Ar   92   1.600   1.894   3.231
    1   AR   Ar   93   1.465   1.821   6.011
    1   AR   Ar   94   2.050   2.035   6.817
    1   AR   Ar   95   2.202   0.997   7.342
    1   AR   Ar   96   2.824   2.325   5.785
    1   AR   Ar   97   2.077   4.072  -0.542
    1   AR   Ar   98   3.141   4.434   1.619
    1   AR   Ar   99   3.001   3.291  -0.984
    1   AR   Ar  100   2.284   5.103  -0.468
    1   AR   Ar  101   1.366   3.100   1.669
    1   AR   Ar  102   2.252   4.240   3.388
    1   AR   Ar  103   2.185   3.933   2.256
    1   AR   Ar  104   2.647   3.985   0.570
    1   AR   Ar  105   1.754   3.071   3.447
    1   AR   Ar  106   1.943   3.553   4.428
    1   AR   Ar  107   2.914   3.962   5.481
    1   AR   Ar  108   3.010   3.618   3.901
    1   AR   Ar  109   0.633   4.203   4.690
    1   AR   Ar  110   1.544   3.733   5.315
    1   AR   Ar  111   3.166   4.984   6.731
    1   AR   Ar  112   2.313   3.589   6.266
    1   AR   Ar  113   1.891   4.903   0.462
    1   AR   Ar  114   1.737   5.924   0.793
    1   AR   Ar  115   3.542   5.281   0.451
    1   AR   Ar  116   2.818   6.998  -0.179
    1   AR   Ar  117   1.661   4.945   2.589
    1   AR   Ar  118   1.334   6.009   2.664
    1   AR   Ar  119   2.760   4.902   2.545
    1   AR   Ar  120   2.108   4.995   1.512
    1   AR   Ar  121   0.919   4.715   3.593
    1   AR   Ar  122   2.428   6.511   4.088
    1   AR   Ar  123   2.070   5.367   4.453
    1   AR   Ar  124   2.384   6.125   2.708
    1   AR   Ar  125   1.372   4.781   4.955
    1   AR   Ar  126   1.465   6.394   6.252
    1   AR   Ar  127   2.174   5.689   7.572
    1   AR   Ar  128   2.475   6.277   5.844
    1   AR   Ar  129   2.900   6.381   0.773
    1   AR   Ar  130   3.887   0.494  -0.922
    1   AR   Ar  131   4.473   6.784   0.495
    1   AR   Ar  132   4.810   1.944  -0.937
    1   AR   Ar  133   3.865   0.118   2.767
    1   AR   Ar  134   2.887   0.724   2.698
    1   AR   Ar  135   4.989   0.340   2.949
    1   AR   Ar  136   3.820   0.371   1.783
    1   AR   Ar  137   3.042   7.016   3.419
    1   AR   Ar  138   4.116   1.085   4.670
    1   AR   Ar  139   4.203   0.216   3.805
    1   AR   Ar  140   4.354   1.137   3.494
    1   AR   Ar  141   3.633   0.164   4.794
    1   AR   Ar  142   4.164   0.398   5.559
    1   AR   Ar  143   5.156   6.675   6.228
    1   AR   Ar  144   5.147   1.211   6.416
    1   AR   Ar  145   2.739   2.491   0.385
    1   AR   Ar  146   4.082   2.827   0.993
    1   AR   Ar  147   4.716   1.851   0.639
    1   AR   Ar  148   5.866   2.986  -0.298
    1   AR   Ar  149   3.854   1.922   1.685
    1   AR   Ar  150   2.685   1.752   2.948
    1   AR   Ar  151   3.797   1.907   3.219
    1   AR   Ar  152   3.591   2.831   2.404
    1   AR   Ar  153   3.236   1.370   3.985
    1   AR   Ar  154   3.904   2.459   4.352
    1   AR   Ar  155   4.854   1.717   5.582
    1   AR   Ar  156   4.974   3.683   4.249
    1   AR   Ar  157   3.872   2.112   5.543
    1   AR   Ar  158   3.560   2.373   6.852
    1   AR   Ar  159   3.938   1.349   6.433
    1   AR   Ar  160   4.456   2.904   5.288
    1   AR   Ar  161   4.492   3.029  -0.305
    1   AR   Ar  162   4.412   4.760   0.675
    1   AR   Ar  163   4.923   3.513   0.713
    1   AR   Ar  164   5.397   4.720   1.017
    1   AR   Ar  165   3.508   3.846   2.530
    1   AR   Ar  166   3.441   4.819   3.406
    1   AR   Ar  167   4.599   3.166   3.283
    1   AR   Ar  168   4.111   3.932   1.171
    1   AR   Ar  169   2.920   2.909   3.165
    1   AR   Ar  170   2.765   4.602   4.344
    1   AR   Ar  171   3.716   3.672   4.712
    1   AR   Ar  172   4.059   4.606   4.250
    1   AR   Ar  173   3.608   3.130   5.860
    1   AR   Ar  174   3.961   5.444   5.970
    1   AR   Ar  175   3.842   4.138   6.348
    1   AR   Ar  176   4.179   4.377   5.335
    1   AR   Ar  177   5.314   5.970   0.345
    1   AR   Ar  178   3.701   6.376   1.366
    1   AR   Ar  179   4.289   5.352   1.514
    1   AR   Ar  180   4.061   5.695  -0.443
    1   AR   Ar  181   3.269   5.476   1.954
    1   AR   Ar  182   2.418   6.136   1.581
    1   AR   Ar  183   4.015   4.757   2.479
    1   AR   Ar  184   4.194   6.078   2.216
    1   AR   Ar  185   1.895   5.721   3.498
    1   AR   Ar  186   3.348   5.586   4.264
    1   AR   Ar  187   4.519   5.391   3.220
    1   AR   Ar  188   3.551   5.796   3.044
    1   AR   Ar  189   2.868   5.310   5.822
    1   AR   Ar  190   4.060   6.901   6.597
    1   AR   Ar  191   4.518   5.835   5.112
    1   AR   Ar  192   3.522   6.175   5.477
    1   AR   Ar  193   5.617   0.162  -0.031
    1   AR   Ar  194   4.610   0.806   0.176
    1   AR   Ar  195   5.746   1.126   0.984
    1   AR   Ar  196   5.915   1.153  -0.440
    1   AR   Ar  197   4.890   0.513   1.197
    1   AR   Ar  198   5.246   1.396   1.830
    1   AR   Ar  199   6.154   0.594   1.923
    1   AR   Ar  200   6.620   1.547   1.573
    1   AR   Ar  201   4.548   6.501   3.276
    1   AR   Ar  202   4.960   0.765   4.363
    1   AR   Ar  203   6.770   6.396   4.984
    1   AR   Ar  204   6.497   0.385   3.426
    1   AR   Ar  205   5.543   6.750   4.053
    1   AR   Ar  206   5.418   6.843   5.133
    1   AR   Ar  207   6.891   6.955   5.959
    1   AR   Ar  208   6.169   0.497   4.490
    1   AR   Ar  209   6.695   2.065  -0.848
    1   AR   Ar  210   5.015   2.751   1.477
    1   AR   Ar  211   6.047   2.289   0.944
    1   AR   Ar  212   6.825   3.606  -0.200
    1   AR   Ar  213   4.594   2.269   2.526
    1   AR   Ar  214   4.513   3.518   2.013
    1   AR   Ar  215   5.727   2.112   2.597
    1   AR   Ar  216   6.464   2.663   2.031
    1   AR   Ar  217   5.215   2.170   3.513
    1   AR   Ar  218   5.212   2.004   4.577
    1   AR   Ar  219   5.802   1.194   3.248
    1   AR   Ar  220   6.136   2.899   3.057
    1   AR   Ar  221   5.626   0.785   5.323
    1   AR   Ar  222   4.649   2.438   6.431
    1   AR   Ar  223   7.013   1.703   7.315
    1   AR   Ar  224   6.324   2.481   5.267
    1   AR   Ar  225   5.236   4.302  -0.161
    1   AR   Ar  226   5.075   4.418   2.233
    1   AR   Ar  227   6.574   3.839   1.759
    1   AR   Ar  228   6.795   4.893   0.510
    1   AR   Ar  229   6.403   3.481   0.833
    1   AR   Ar  230   4.554   4.420   3.392
    1   AR   Ar  231   7.076   2.753   3.722
    1   AR   Ar  232   5.598   3.748   1.582
    1   AR   Ar  233   5.864   2.822   4.008
    1   AR   Ar  234   5.778   4.108   4.754
    1   AR   Ar  235   6.854   3.718   4.490
    1   AR   Ar  236   5.949   3.851   3.801
    1   AR   Ar  237   5.485   3.049   5.013
    1   AR   Ar  238   4.832   4.670   6.076
    1   AR   Ar  239   5.695   3.713   8.077
    1   AR   Ar  240   6.171   3.524   5.799
    1   AR   Ar  241   6.675   0.448  -0.036
    1   AR   Ar  242   4.878   6.196   1.410
    1   AR   Ar  243   6.155   4.583   2.307
    1   AR   Ar  244   5.918   0.041   1.149
    1   AR   Ar  245   5.504   5.540   2.367
    1   AR   Ar  246   5.821   6.651   3.100
    1   AR   Ar  247   5.650   3.751   2.695
    1   AR   Ar  248   6.068   6.492   2.059
    1   AR   Ar  249   6.330   5.462   2.989
    1   AR   Ar  250   4.790   5.788   4.153
    1   AR   Ar  251   5.728   5.013   4.161
    1   AR   Ar  252   6.351   5.846   4.043
    1   AR   Ar  253   5.303   5.072   5.076
    1   AR   Ar  254   5.685   5.793   6.233
    1   AR   Ar  255   6.349   4.824   5.665
    1   AR   Ar  256   5.899   5.890   5.012
    7.12000  7.12000 12.00000
Argon-slab step 685
  256
    1   AR   Ar    1   1.026   1.017  -0.681
    1   AR   Ar    2   0.457   0.795   0.799
    1   AR   Ar    3   0.606   6.650   0.597
    1   AR   Ar    4   1.357   0.439   0.257
    1   AR   Ar    5   6.882   6.637   1.409
    1   AR   Ar    6   0.539   0.491   2.948
    1   AR   Ar    7   0.366   6.668   2.356
    1   AR   Ar    8   1.185   0.105   1.513
    1   AR   Ar    9   0.384   0.316   4.169
    1   AR   Ar   10   0.235   1.346   4.669
    1   AR   Ar   11   1.527   0.079   4.359
    1   AR   Ar   12   1.111   1.012   3.739
    1   AR   Ar   13   7.001   0.386   5.016
    1   AR   Ar   14   0.237   1.420   6.287
    1   AR   Ar   15   1.640   6.558   7.334
    1   AR   Ar   16   0.960   1.032   5.435
    1   AR   Ar   17   6.849   1.568   0.170
    1   AR   Ar   18   0.050   2.547   0.317
    1   AR   Ar   19   0.784   1.856   0.829
    1   AR   Ar   20   0.762   2.345  -0.766
    1   AR   Ar   21   0.300   0.679   1.935
    1   AR   Ar   22   7.089   2.263   2.672
    1   AR   Ar   23   6.821   1.206   2.813
    1   AR   Ar   24   0.412   2.388   1.741
    1   AR   Ar   25   0.542   1.863   3.626
    1   AR   Ar   26   6.575   1.912   3.861
    1   AR   Ar   27   0.719   2.060   5.361
    1   AR   Ar   28   1.043   2.649   4.269
    1   AR   Ar   29   6.576   1.292   5.525
    1   AR   Ar   30   6.939   2.501   6.127
    1   AR   Ar   31   1.276   1.354   6.914
    1   AR   Ar   32   0.897   3.433   5.991
    1   AR   Ar   33   0.945   3.555  -0.612
    1   AR   Ar   34   0.278   5.187   1.418
    1   AR   Ar   35   0.258   3.427   1.114
    1   AR   Ar   36   1.769   5.820  -1.118
    1   AR   Ar   37   7.100   3.386   2.682
    1   AR   Ar   38   0.498   4.866   2.517
    1   AR   Ar   39   1.073   4.010   2.823
    1   AR   Ar   40   1.082   4.497   1.555
    1   AR   Ar   41   1.023   2.832   2.713
    1   AR   Ar   42   6.938   5.009   4.835
    1   AR   Ar   43   0.084   2.818   4.996
    1   AR   Ar   44   0.685   3.624   3.835
    1   AR   Ar   45   7.071   3.997   5.562
    1   AR   Ar   46   0.056   4.826   6.592
    1   AR   Ar   47   0.258   3.530   6.710
    1   AR   Ar   48   0.940   4.355   6.116
    1   AR   Ar   49   0.307   4.769  -0.422
    1   AR   Ar   50   6.132   5.518   1.451
    1   AR   Ar   51   0.807   4.231   0.519
    1   AR   Ar   52   0.791   5.330   0.366
    1   AR   Ar   53   6.813   5.817   2.241
    1   AR   Ar   54   6.972   6.670   3.356
    1   AR   Ar   55   0.220   5.727   3.048
    1   AR   Ar   56   0.942   6.098   1.611
    1   AR   Ar   57   6.956   4.486   3.491
    1   AR   Ar   58   0.212   5.610   4.075
    1   AR   Ar   59   1.532   6.245   4.822
    1   AR   Ar   60   0.961   6.447   3.862
    1   AR   Ar   61   6.686   5.750   5.842
    1   AR   Ar   62   0.725   5.939   5.415
    1   AR   Ar   63   1.723   5.472   5.624
    1   AR   Ar   64   0.818   7.023   5.171
    1   AR   Ar   65   1.753   6.475  -0.148
    1   AR   Ar   66   1.739   0.969   1.217
    1   AR   Ar   67   2.681   5.926  -0.287
    1   AR   Ar   68   3.701   1.148   0.855
    1   AR   Ar   69   1.966   6.900   0.867
    1   AR   Ar   70   1.383   0.515   2.381
    1   AR   Ar   71   2.264   7.114   2.059
    1   AR   Ar   72   2.737   0.722   1.571
    1   AR   Ar   73   1.940   6.856   3.240
    1   AR   Ar   74   1.616   1.295   4.501
    1   AR   Ar   75   2.544   0.854   4.649
    1   AR   Ar   76   2.076   0.704   3.727
    1   AR   Ar   77   1.878   0.062   5.321
    1   AR   Ar   78   1.432   0.462   6.292
    1   AR   Ar   79   2.710   7.102   6.918
    1   AR   Ar   80   2.567   0.892   6.178
    1   AR   Ar   81   2.441   1.273   0.223
    1   AR   Ar   82   1.858   3.875   1.163
    1   AR   Ar   83   2.727   1.936   1.752
    1   AR   Ar   84   1.784   2.834  -0.834
    1   AR   Ar   85   1.441   2.042   1.603
    1   AR   Ar   86   2.055   2.594   2.491
    1   AR   Ar   87   1.985   1.411   2.248
    1   AR   Ar   88   3.200   3.437   1.465
    1   AR   Ar   89   0.914   1.635   2.493
    1   AR   Ar   90   3.050   2.820   4.883
    1   AR   Ar   91   2.638   2.036   4.473
    1   AR   Ar   92   1.591   1.925   3.243
    1   AR   Ar   93   1.425   1.853   5.982
    1   AR   Ar   94   2.056   2.030   6.846
    1   AR   Ar   95   2.189   0.966   7.331
    1   AR   Ar   96   2.857   2.335   5.783
    1   AR   Ar   97   2.061   4.076  -0.528
    1   AR   Ar   98   3.148   4.446   1.594
    1   AR   Ar   99   2.989   3.300  -0.988
    1   AR   Ar  100   2.251   5.116  -0.495
    1   AR   Ar  101   1.329   3.107   1.695
    1   AR   Ar  102   2.233   4.247   3.379
    1   AR   Ar  103   2.217   3.926   2.264
    1   AR   Ar  104   2.631   3.972   0.586
    1   AR   Ar  105   1.756   3.065   3.458
    1   AR   Ar  106   1.944   3.518   4.415
    1   AR   Ar  107   2.941   3.967   5.454
    1   AR   Ar  108   3.036   3.620   3.898
    1   AR   Ar  109   0.608   4.186   4.666
    1   AR   Ar  110   1.537   3.776   5.319
    1   AR   Ar  111   3.186   5.006   6.730
    1   AR   Ar  112   2.326   3.580   6.261
    1   AR   Ar  113   1.892   4.892   0.442
    1   AR   Ar  114   1.736   5.910   0.791
    1   AR   Ar  115   3.531   5.274   0.456
    1   AR   Ar  116   2.834   6.992  -0.145
    1   AR   Ar  117   1.630   4.943   2.568
    1   AR   Ar  118   1.318   6.039   2.656
    1   AR   Ar  119   2.736   4.899   2.563
    1   AR   Ar  120   2.100   4.975   1.517
    1   AR   Ar  121   0.908   4.679   3.574
    1   AR   Ar  122   2.437   6.535   4.070
    1   AR   Ar  123   2.076   5.356   4.444
    1   AR   Ar  124   2.383   6.127   2.703
    1   AR   Ar  125   1.365   4.774   4.960
    1   AR   Ar  126   1.426   6.400   6.271
    1   AR   Ar  127   2.207   5.656   7.556
    1   AR   Ar  128   2.458   6.296   5.848
    1   AR   Ar  129   2.908   6.348   0.737
    1   AR   Ar  130   3.869   0.498  -0.944
    1   AR   Ar  131   4.488   6.765   0.479
    1   AR   Ar  132   4.842   1.965  -0.933
    1   AR   Ar  133   3.864   0.087   2.756
    1   AR   Ar  134   2.883   0.727   2.714
    1   AR   Ar  135   5.004   0.368   2.962
    1   AR   Ar  136   3.832   0.390   1.784
    1   AR   Ar  137   3.034   7.013   3.438
    1   AR   Ar  138   4.113   1.085   4.677
    1   AR   Ar  139   4.205   0.213   3.837
    1   AR   Ar  140   4.413   1.146   3.481
    1   AR   Ar  141   3.613   0.164   4.807
    1   AR   Ar  142   4.183   0.405   5.583
    1   AR   Ar  143   5.168   6.675   6.219
    1   AR   Ar  144   5.144   1.243   6.439
    1   AR   Ar  145   2.740   2.499   0.370
    1   AR   Ar  146   4.061   2.830   0.998
    1   AR   Ar  147   4.754   1.848   0.612
    1   AR   Ar  148   5.883   2.992  -0.284
    1   AR   Ar  149   3.838   1.904   1.667
    1   AR   Ar  150   2.700   1.751   2.970
    1   AR   Ar  151   3.795   1.918   3.227
    1   AR   Ar  152   3.572   2.845   2.377
    1   AR   Ar  153   3.260   1.346   3.982
    1   AR   Ar  154   3.895   2.468   4.315
    1   AR   Ar  155   4.838   1.756   5.575
    1   AR   Ar  156   4.964   3.701   4.232
    1   AR   Ar  157   3.869   2.098   5.581
    1   AR   Ar  158   3.580   2.377   6.878
    1   AR   Ar  159   3.919   1.338   6.390
    1   AR   Ar  160   4.471   2.913   5.262
    1   AR   Ar  161   4.502   3.001  -0.310
    1   AR   Ar  162   4.423   4.766   0.678
    1   AR   Ar  163   4.937   3.520   0.708
    1   AR   Ar  164   5.440   4.722   1.041
    1   AR   Ar  165   3.485   3.844   2.551
    1   AR   Ar  166   3.449   4.835   3.415
    1   AR   Ar  167   4.598   3.189   3.285
    1   AR   Ar  168   4.105   3.946   1.160
    1   AR   Ar  169   2.930   2.884   3.166
    1   AR   Ar  170   2.732   4.609   4.375
    1   AR   Ar  171   3.677   3.669   4.711
    1   AR   Ar  172   4.053   4.600   4.250
    1   AR   Ar  173   3.569   3.141   5.851
    1   AR   Ar  174   3.977   5.434   5.973
    1   AR   Ar  175   3.817   4.137   6.357
    1   AR   Ar  176   4.190   4.339   5.342
    1   AR   Ar  177   5.305   5.977   0.337
    1   AR   Ar  178   3.730   6.403   1.345
    1   AR   Ar  179   4.267   5.347   1.527
    1   AR   Ar  180   4.093   5.679  -0.480
    1   AR   Ar  181   3.272   5.512   1.948
    1   AR   Ar  182   2.379   6.131   1.562
    1   AR   Ar  183   3.962   4.758   2.488
    1   AR   Ar  184   4.209   6.072   2.207
    1   AR   Ar  185   1.853   5.728   3.501
    1   AR   Ar  186   3.341   5.588   4.251
    1   AR   Ar  187   4.496   5.388   3.225
    1   AR   Ar  188   3.563   5.805   3.050
    1   AR   Ar  189   2.864   5.305   5.811
    1   AR   Ar  190   4.082   6.882   6.571
    1   AR   Ar  191   4.505   5.832   5.139
    1   AR   Ar  192   3.538   6.169   5.445
    1   AR   Ar  193   5.612   0.139  -0.006
    1   AR   Ar  194   4.603   0.779   0.150
    1   AR   Ar  195   5.736   1.114   0.986
    1   AR   Ar  196   5.940   1.145  -0.444
    1   AR   Ar  197   4.907   0.509   1.192
    1   AR   Ar  198   5.242   1.412   1.841
    1   AR   Ar  199   6.114   0.576   1.897
    1   AR   Ar  200   6.633   1.533   1.582
    1   AR   Ar  201   4.521   6.470   3.274
    1   AR   Ar  202   4.993   0.786   4.338
    1   AR   Ar  203   6.768   6.401   4.981
    1   AR   Ar  204   6.497   0.413   3.404
    1   AR   Ar  205   5.587   6.738   4.021
    1   AR   Ar  206   5.411   6.836   5.094
    1   AR   Ar  207   6.903   6.944   5.944
    1   AR   Ar  208   6.146   0.494   4.476
    1   AR   Ar  209   6.678   2.050  -0.884
    1   AR   Ar  210   4.997   2.774   1.506
    1   AR   Ar  211   6.047   2.289   0.975
    1   AR   Ar  212   6.819   3.630  -0.224
    1   AR   Ar  213   4.630   2.237   2.531
    1   AR   Ar  214   4.506   3.523   2.020
    1   AR   Ar  215   5.731   2.096   2.599
    1   AR   Ar  216   6.432   2.670   2.028
    1   AR   Ar  217   5.200   2.149   3.540
    1   AR   Ar  218   5.221   1.987   4.630
    1   AR   Ar  219   5.810   1.181   3.220
    1   AR   Ar  220   6.158   2.907   3.043
    1   AR   Ar  221   5.632   0.764   5.319
    1   AR   Ar  222   4.629   2.441   6.439
    1   AR   Ar  223   7.012   1.743   7.332
    1   AR   Ar  224   6.346   2.456   5.295
    1   AR   Ar  225   5.257   4.319  -0.153
    1   AR   Ar  226   5.034   4.417   2.268
    1   AR   Ar  227   6.565   3.853   1.748
    1   AR   Ar  228   6.809   4.852   0.537
    1   AR   Ar  229   6.403   3.476   0.839
    1   AR   Ar  230   4.563   4.425   3.394
    1   AR   Ar  231   7.084   2.745   3.711
    1   AR   Ar  232   5.583   3.737   1.568
    1   AR   Ar  233   5.892   2.849   4.024
    1   AR   Ar  234   5.759   4.131   4.749
    1   AR   Ar  235   6.851   3.721   4.489
    1   AR   Ar  236   5.953   3.836   3.810
    1   AR   Ar  237   5.516   3.034   4.994
    1   AR   Ar  238   4.843   4.676   6.085
    1   AR   Ar  239   5.704   3.721   8.103
    1   AR   Ar  240   6.166   3.516   5.754
    1   AR   Ar  241   6.693   0.490  -0.031
    1   AR   Ar  242   4.856   6.211   1.393
    1   AR   Ar  243   6.148   4.615   2.288
    1   AR   Ar  244   5.946   0.058   1.157
    1   AR   Ar  245   5.474   5.568   2.401
    1   AR   Ar  246   5.810   6.652   3.104
    1   AR   Ar  247   5.615   3.733   2.711
    1   AR   Ar  248   6.048   6.485   2.073
    1   AR   Ar  249   6.312   5.445   2.991
    1   AR   Ar  250   4.790   5.778   4.158
    1   AR   Ar  251   5.683   5.056   4.204
    1   AR   Ar  252   6.381   5.844   4.031
    1   AR   Ar  253   5.330   5.109   5.070
    1   AR   Ar  254   5.683   5.810   6.237
    1   AR   Ar  255   6.344   4.786   5.656
    1   AR   Ar  256   5.891   5.862   4.966
    7.12000  7.12000 12.00000
Argon-slab step 690
  256
    1   AR   Ar    1   1.010   0.997  -0.622
    1   AR   Ar    2   0.465   0.759   0.787
    1   AR   Ar    3   0.628   6.630   0.579
    1   AR   Ar    4   1.342   0.475   0.276
    1   AR   Ar    5   6.894   6.637   1.415
    1   AR   Ar    6   0.547   0.472   2.915
    1   AR   Ar    7   0.334   6.666   2.368
    1   AR   Ar    8   1.186   0.073   1.518
    1   AR   Ar    9   0.368   0.296   4.173
    1   AR   Ar   10   0.260   1.358   4.680
    1   AR   Ar   11   1.521   0.079   4.361
    1   AR   Ar   12   1.121   0.983   3.733
    1   AR   Ar   13   7.001   0.401   5.041
    1   AR   Ar   14   0.249   1.426   6.266
    1   AR   Ar   15   1.635   6.524   7.319
    1   AR   Ar   16   0.974   1.021   5.448
    1   AR   Ar   17   6.843   1.563   0.183
    1   AR   Ar   18   0.039   2.530   0.322
    1   AR   Ar   19   0.766   1.852   0.806
    1   AR   Ar   20   0.744   2.376  -0.750
    1   AR   Ar   21   0.256   0.671   1.936
    1   AR   Ar   22   7.089   2.250   2.646
    1   AR   Ar   23   6.792   1.181   2.857
    1   AR   Ar   24   0.395   2.412   1.751
    1   AR   Ar   25   0.558   1.844   3.670
    1   AR   Ar   26   6.573   1.928   3.857
    1   AR   Ar   27   0.745   2.077   5.385
    1   AR   Ar   28   1.052   2.649   4.281
    1   AR   Ar   29   6.592   1.324   5.542
    1   AR   Ar   30   6.938   2.503   6.132
    1   AR   Ar   31   1.243   1.346   6.934
    1   AR   Ar   32   0.916   3.437   6.008
    1   AR   Ar   33   0.984   3.532  -0.623
    1   AR   Ar   34   0.296   5.183   1.444
    1   AR   Ar   35   0.277   3.418   1.093
    1   AR   Ar   36   1.782   5.823  -1.114
    1   AR   Ar   37   7.104   3.389   2.689
    1   AR   Ar   38   0.488   4.893   2.495
    1   AR   Ar   39   1.043   4.033   2.800
    1   AR   Ar   40   1.109   4.499   1.551
    1   AR   Ar   41   1.023   2.833   2.676
    1   AR   Ar   42   6.917   5.024   4.802
    1   AR   Ar   43   0.074   2.793   4.986
    1   AR   Ar   44   0.660   3.649   3.819
    1   AR   Ar   45   7.039   3.987   5.561
    1   AR   Ar   46   0.035   4.793   6.616
    1   AR   Ar   47   0.271   3.534   6.726
    1   AR   Ar   48   0.950   4.375   6.115
    1   AR   Ar   49   0.307   4.761  -0.397
    1   AR   Ar   50   6.141   5.533   1.435
    1   AR   Ar   51   0.787   4.228   0.489
    1   AR   Ar   52   0.812   5.344   0.348
    1   AR   Ar   53   6.773   5.802   2.240
    1   AR   Ar   54   6.961   6.669   3.366
    1   AR   Ar   55   0.222   5.748   3.061
    1   AR   Ar   56   0.945   6.103   1.600
    1   AR   Ar   57   6.980   4.451   3.461
    1   AR   Ar   58   0.235   5.610   4.102
    1   AR   Ar   59   1.549   6.259   4.807
    1   AR   Ar   60   0.932   6.455   3.847
    1   AR   Ar   61   6.673   5.771   5.868
    1   AR   Ar   62   0.720   5.984   5.385
    1   AR   Ar   63   1.697   5.487   5.634
    1   AR   Ar   64   0.798   7.069   5.216
    1   AR   Ar   65   1.752   6.478  -0.155
    1   AR   Ar   66   1.728   0.950   1.216
    1   AR   Ar   67   2.671   5.954  -0.297
    1   AR   Ar   68   3.723   1.124   0.865
    1   AR   Ar   69   1.965   6.918   0.872
    1   AR   Ar   70   1.379   0.510   2.364
    1   AR   Ar   71   2.288   7.094   2.085
    1   AR   Ar   72   2.737   0.720   1.556
    1   AR   Ar   73   1.954   6.837   3.248
    1   AR   Ar   74   1.648   1.299   4.508
    1   AR   Ar   75   2.537   0.861   4.648
    1   AR   Ar   76   2.090   0.700   3.733
    1   AR   Ar   77   1.874   0.053   5.299
    1   AR   Ar   78   1.430   0.463   6.303
    1   AR   Ar   79   2.700   7.086   6.922
    1   AR   Ar   80   2.540   0.874   6.192
    1   AR   Ar   81   2.424   1.272   0.238
    1   AR   Ar   82   1.838   3.849   1.163
    1   AR   Ar   83   2.731   1.931   1.753
    1   AR   Ar   84   1.795   2.807  -0.820
    1   AR   Ar   85   1.439   2.033   1.609
    1   AR   Ar   86   2.046   2.561   2.471
    1   AR   Ar   87   1.991   1.402   2.269
    1   AR   Ar   88   3.205   3.483   1.460
    1   AR   Ar   89   0.909   1.615   2.463
    1   AR   Ar   90   3.058   2.806   4.923
    1   AR   Ar   91   2.614   2.033   4.458
    1   AR   Ar   92   1.587   1.943   3.250
    1   AR   Ar   93   1.401   1.881   5.963
    1   AR   Ar   94   2.058   2.027   6.854
    1   AR   Ar   95   2.178   0.934   7.318
    1   AR   Ar   96   2.884   2.343   5.787
    1   AR   Ar   97   2.016   4.088  -0.498
    1   AR   Ar   98   3.155   4.466   1.570
    1   AR   Ar   99   2.976   3.309  -0.992
    1   AR   Ar  100   2.208   5.108  -0.530
    1   AR   Ar  101   1.291   3.115   1.723
    1   AR   Ar  102   2.205   4.258   3.370
    1   AR   Ar  103   2.249   3.919   2.271
    1   AR   Ar  104   2.631   3.980   0.592
    1   AR   Ar  105   1.759   3.060   3.469
    1   AR   Ar  106   1.949   3.484   4.397
    1   AR   Ar  107   2.969   3.974   5.427
    1   AR   Ar  108   3.058   3.624   3.894
    1   AR   Ar  109   0.583   4.172   4.647
    1   AR   Ar  110   1.535   3.823   5.322
    1   AR   Ar  111   3.208   5.026   6.735
    1   AR   Ar  112   2.338   3.569   6.256
    1   AR   Ar  113   1.915   4.893   0.471
    1   AR   Ar  114   1.729   5.889   0.786
    1   AR   Ar  115   3.524   5.266   0.472
    1   AR   Ar  116   2.849   6.987  -0.110
    1   AR   Ar  117   1.600   4.941   2.547
    1   AR   Ar  118   1.297   6.070   2.646
    1   AR   Ar  119   2.709   4.892   2.584
    1   AR   Ar  120   2.093   4.955   1.524
    1   AR   Ar  121   0.897   4.650   3.560
    1   AR   Ar  122   2.441   6.551   4.065
    1   AR   Ar  123   2.080   5.352   4.437
    1   AR   Ar  124   2.391   6.124   2.691
    1   AR   Ar  125   1.360   4.769   4.966
    1   AR   Ar  126   1.387   6.406   6.286
    1   AR   Ar  127   2.242   5.622   7.538
    1   AR   Ar  128   2.441   6.318   5.851
    1   AR   Ar  129   2.915   6.314   0.691
    1   AR   Ar  130   3.851   0.502  -0.965
    1   AR   Ar  131   4.503   6.746   0.464
    1   AR   Ar  132   4.874   1.986  -0.927
    1   AR   Ar  133   3.864   0.055   2.751
    1   AR   Ar  134   2.879   0.729   2.729
    1   AR   Ar  135   5.018   0.396   2.976
    1   AR   Ar  136   3.844   0.412   1.778
    1   AR   Ar  137   3.032   7.014   3.450
    1   AR   Ar  138   4.101   1.093   4.687
    1   AR   Ar  139   4.204   0.204   3.872
    1   AR   Ar  140   4.478   1.158   3.467
    1   AR   Ar  141   3.610   0.179   4.777
    1   AR   Ar  142   4.197   0.409   5.610
    1   AR   Ar  143   5.176   6.682   6.208
    1   AR   Ar  144   5.140   1.273   6.463
    1   AR   Ar  145   2.736   2.494   0.377
    1   AR   Ar  146   4.039   2.834   1.003
    1   AR   Ar  147   4.792   1.846   0.588
    1   AR   Ar  148   5.900   2.999  -0.269
    1   AR   Ar  149   3.824   1.887   1.651
    1   AR   Ar  150   2.712   1.752   2.989
    1   AR   Ar  151   3.818   1.926   3.227
    1   AR   Ar  152   3.560   2.851   2.344
    1   AR   Ar  153   3.286   1.318   3.977
    1   AR   Ar  154   3.899   2.445   4.296
    1   AR   Ar  155   4.825   1.793   5.567
    1   AR   Ar  156   4.948   3.717   4.215
    1   AR   Ar  157   3.862   2.084   5.618
    1   AR   Ar  158   3.600   2.381   6.901
    1   AR   Ar  159   3.902   1.327   6.345
    1   AR   Ar  160   4.488   2.923   5.234
    1   AR   Ar  161   4.512   2.972  -0.315
    1   AR   Ar  162   4.439   4.775   0.674
    1   AR   Ar  163   4.953   3.525   0.699
    1   AR   Ar  164   5.484   4.724   1.066
    1   AR   Ar  165   3.458   3.846   2.572
    1   AR   Ar  166   3.455   4.847   3.426
    1   AR   Ar  167   4.597   3.212   3.285
    1   AR   Ar  168   4.113   3.943   1.178
    1   AR   Ar  169   2.934   2.857   3.169
    1   AR   Ar  170   2.732   4.604   4.384
    1   AR   Ar  171   3.642   3.664   4.710
    1   AR   Ar  172   4.044   4.596   4.258
    1   AR   Ar  173   3.561   3.118   5.881
    1   AR   Ar  174   3.995   5.415   5.982
    1   AR   Ar  175   3.791   4.137   6.365
    1   AR   Ar  176   4.179   4.292   5.355
    1   AR   Ar  177   5.294   5.984   0.331
    1   AR   Ar  178   3.763   6.430   1.324
    1   AR   Ar  179   4.244   5.334   1.537
    1   AR   Ar  180   4.124   5.664  -0.515
    1   AR   Ar  181   3.278   5.553   1.939
    1   AR   Ar  182   2.359   6.123   1.568
    1   AR   Ar  183   3.912   4.765   2.492
    1   AR   Ar  184   4.225   6.072   2.212
    1   AR   Ar  185   1.809   5.734   3.506
    1   AR   Ar  186   3.335   5.591   4.237
    1   AR   Ar  187   4.476   5.395   3.226
    1   AR   Ar  188   3.569   5.818   3.054
    1   AR   Ar  189   2.859   5.299   5.793
    1   AR   Ar  190   4.104   6.863   6.543
    1   AR   Ar  191   4.494   5.831   5.169
    1   AR   Ar  192   3.548   6.170   5.409
    1   AR   Ar  193   5.573   0.110  -0.013
    1   AR   Ar  194   4.596   0.751   0.125
    1   AR   Ar  195   5.736   1.111   0.990
    1   AR   Ar  196   5.965   1.138  -0.447
    1   AR   Ar  197   4.920   0.501   1.189
    1   AR   Ar  198   5.237   1.430   1.856
    1   AR   Ar  199   6.082   0.578   1.902
    1   AR   Ar  200   6.647   1.520   1.592
    1   AR   Ar  201   4.495   6.439   3.272
    1   AR   Ar  202   5.040   0.804   4.310
    1   AR   Ar  203   6.772   6.409   4.974
    1   AR   Ar  204   6.493   0.445   3.388
    1   AR   Ar  205   5.625   6.727   4.009
    1   AR   Ar  206   5.403   6.829   5.055
    1   AR   Ar  207   6.915   6.932   5.929
    1   AR   Ar  208   6.119   0.490   4.453
    1   AR   Ar  209   6.661   2.035  -0.917
    1   AR   Ar  210   4.984   2.792   1.534
    1   AR   Ar  211   6.047   2.290   1.006
    1   AR   Ar  212   6.813   3.653  -0.246
    1   AR   Ar  213   4.664   2.207   2.534
    1   AR   Ar  214   4.497   3.527   2.034
    1   AR   Ar  215   5.733   2.074   2.597
    1   AR   Ar  216   6.397   2.682   2.016
    1   AR   Ar  217   5.190   2.133   3.567
    1   AR   Ar  218   5.236   1.970   4.673
    1   AR   Ar  219   5.813   1.171   3.192
    1   AR   Ar  220   6.187   2.918   3.028
    1   AR   Ar  221   5.633   0.746   5.319
    1   AR   Ar  222   4.608   2.444   6.446
    1   AR   Ar  223   7.010   1.783   7.347
    1   AR   Ar  224   6.355   2.424   5.321
    1   AR   Ar  225   5.278   4.335  -0.142
    1   AR   Ar  226   4.988   4.426   2.300
    1   AR   Ar  227   6.569   3.865   1.746
    1   AR   Ar  228   6.824   4.810   0.565
    1   AR   Ar  229   6.395   3.465   0.833
    1   AR   Ar  230   4.577   4.415   3.392
    1   AR   Ar  231   7.096   2.750   3.699
    1   AR   Ar  232   5.560   3.724   1.553
    1   AR   Ar  233   5.919   2.868   4.046
    1   AR   Ar  234   5.744   4.156   4.755
    1   AR   Ar  235   6.838   3.721   4.486
    1   AR   Ar  236   5.961   3.826   3.808
    1   AR   Ar  237   5.544   3.022   4.976
    1   AR   Ar  238   4.851   4.680   6.086
    1   AR   Ar  239   5.713   3.730   8.128
    1   AR   Ar  240   6.159   3.506   5.708
    1   AR   Ar  241   6.712   0.531  -0.023
    1   AR   Ar  242   4.840   6.228   1.374
    1   AR   Ar  243   6.139   4.653   2.270
    1   AR   Ar  244   5.967   0.053   1.135
    1   AR   Ar  245   5.438   5.596   2.433
    1   AR   Ar  246   5.805   6.650   3.087
    1   AR   Ar  247   5.583   3.712   2.729
    1   AR   Ar  248   6.024   6.482   2.086
    1   AR   Ar  249   6.288   5.422   3.008
    1   AR   Ar  250   4.794   5.768   4.162
    1   AR   Ar  251   5.647   5.096   4.219
    1   AR   Ar  252   6.401   5.847   4.016
    1   AR   Ar  253   5.331   5.127   5.095
    1   AR   Ar  254   5.684   5.818   6.239
    1   AR   Ar  255   6.331   4.744   5.649
    1   AR   Ar  256   5.893   5.848   4.920
    7.12000  7.12000 12.00000
Argon-slab step 695
  256
    1   AR   Ar    1   0.994   0.979  -0.563
    1   AR   Ar    2   0.471   0.723   0.777
    1   AR   Ar    3   0.651   6.610   0.563
    1   AR   Ar    4   1.330   0.509   0.296
    1   AR   Ar    5   6.907   6.638   1.421
    1   AR   Ar    6   0.548   0.452   2.893
    1   AR   Ar    7   0.303   6.664   2.380
    1   AR   Ar    8   1.181   0.034   1.512
    1   AR   Ar    9   0.357   0.274   4.169
    1   AR   Ar   10   0.286   1.370   4.689
    1   AR   Ar   11   1.511   0.084   4.354
    1   AR   Ar   12   1.120   0.949   3.716
    1   AR   Ar   13   6.995   0.418   5.074
    1   AR   Ar   14   0.264   1.433   6.246
    1   AR   Ar   15   1.631   6.491   7.305
    1   AR   Ar   16   0.988   1.008   5.460
    1   AR   Ar   17   6.852   1.583   0.159
    1   AR   Ar   18   0.028   2.520   0.328
    1   AR   Ar   19   0.746   1.846   0.781
    1   AR   Ar   20   0.724   2.408  -0.733
    1   AR   Ar   21   0.212   0.663   1.933
    1   AR   Ar   22   7.089   2.234   2.633
    1   AR   Ar   23   6.775   1.174   2.885
    1   AR   Ar   24   0.380   2.439   1.753
    1   AR   Ar   25   0.573   1.841   3.698
    1   AR   Ar   26   6.564   1.934   3.855
    1   AR   Ar   27   0.735   2.106   5.376
    1   AR   Ar   28   1.059   2.650   4.293
    1   AR   Ar   29   6.607   1.357   5.557
    1   AR   Ar   30   6.952   2.486   6.140
    1   AR   Ar   31   1.207   1.338   6.953
    1   AR   Ar   32   0.963   3.426   5.966
    1   AR   Ar   33   1.022   3.510  -0.633
    1   AR   Ar   34   0.313   5.181   1.470
    1   AR   Ar   35   0.302   3.408   1.074
    1   AR   Ar   36   1.792   5.823  -1.115
    1   AR   Ar   37   7.110   3.392   2.697
    1   AR   Ar   38   0.435   4.897   2.463
    1   AR   Ar   39   1.016   4.046   2.769
    1   AR   Ar   40   1.159   4.507   1.575
    1   AR   Ar   41   1.016   2.831   2.644
    1   AR   Ar   42   6.892   5.035   4.772
    1   AR   Ar   43   0.074   2.776   4.970
    1   AR   Ar   44   0.636   3.665   3.793
    1   AR   Ar   45   7.017   3.976   5.559
    1   AR   Ar   46   0.013   4.759   6.638
    1   AR   Ar   47   0.273   3.540   6.752
    1   AR   Ar   48   0.957   4.393   6.106
    1   AR   Ar   49   0.306   4.750  -0.372
    1   AR   Ar   50   6.148   5.548   1.419
    1   AR   Ar   51   0.767   4.226   0.460
    1   AR   Ar   52   0.836   5.359   0.333
    1   AR   Ar   53   6.747   5.795   2.234
    1   AR   Ar   54   6.952   6.664   3.378
    1   AR   Ar   55   0.231   5.767   3.079
    1   AR   Ar   56   0.947   6.108   1.588
    1   AR   Ar   57   7.001   4.415   3.430
    1   AR   Ar   58   0.273   5.610   4.129
    1   AR   Ar   59   1.569   6.269   4.791
    1   AR   Ar   60   0.901   6.462   3.829
    1   AR   Ar   61   6.664   5.793   5.892
    1   AR   Ar   62   0.711   6.027   5.356
    1   AR   Ar   63   1.674   5.506   5.646
    1   AR   Ar   64   0.780   7.113   5.262
    1   AR   Ar   65   1.749   6.483  -0.159
    1   AR   Ar   66   1.716   0.932   1.217
    1   AR   Ar   67   2.649   5.955  -0.321
    1   AR   Ar   68   3.745   1.099   0.875
    1   AR   Ar   69   1.969   6.937   0.876
    1   AR   Ar   70   1.384   0.513   2.355
    1   AR   Ar   71   2.309   7.069   2.114
    1   AR   Ar   72   2.742   0.725   1.539
    1   AR   Ar   73   1.963   6.823   3.262
    1   AR   Ar   74   1.677   1.311   4.523
    1   AR   Ar   75   2.537   0.854   4.652
    1   AR   Ar   76   2.113   0.694   3.729
    1   AR   Ar   77   1.875   0.044   5.287
    1   AR   Ar   78   1.429   0.463   6.312
    1   AR   Ar   79   2.687   7.070   6.925
    1   AR   Ar   80   2.512   0.857   6.207
    1   AR   Ar   81   2.407   1.270   0.254
    1   AR   Ar   82   1.811   3.823   1.169
    1   AR   Ar   83   2.749   1.935   1.755
    1   AR   Ar   84   1.806   2.780  -0.806
    1   AR   Ar   85   1.438   2.024   1.616
    1   AR   Ar   86   2.039   2.528   2.449
    1   AR   Ar   87   1.995   1.390   2.293
    1   AR   Ar   88   3.209   3.517   1.456
    1   AR   Ar   89   0.901   1.594   2.435
    1   AR   Ar   90   3.071   2.802   4.958
    1   AR   Ar   91   2.585   2.023   4.440
    1   AR   Ar   92   1.589   1.941   3.246
    1   AR   Ar   93   1.414   1.898   5.978
    1   AR   Ar   94   2.051   2.022   6.830
    1   AR   Ar   95   2.156   0.920   7.308
    1   AR   Ar   96   2.901   2.343   5.801
    1   AR   Ar   97   1.970   4.095  -0.467
    1   AR   Ar   98   3.161   4.497   1.549
    1   AR   Ar   99   2.968   3.311  -0.998
    1   AR   Ar  100   2.198   5.104  -0.512
    1   AR   Ar  101   1.253   3.124   1.747
    1   AR   Ar  102   2.177   4.269   3.361
    1   AR   Ar  103   2.280   3.913   2.278
    1   AR   Ar  104   2.647   4.017   0.589
    1   AR   Ar  105   1.762   3.054   3.475
    1   AR   Ar  106   1.956   3.451   4.380
    1   AR   Ar  107   2.993   3.982   5.402
    1   AR   Ar  108   3.076   3.631   3.885
    1   AR   Ar  109   0.563   4.168   4.639
    1   AR   Ar  110   1.540   3.869   5.321
    1   AR   Ar  111   3.232   5.046   6.743
    1   AR   Ar  112   2.350   3.557   6.249
    1   AR   Ar  113   1.936   4.890   0.499
    1   AR   Ar  114   1.719   5.866   0.778
    1   AR   Ar  115   3.513   5.260   0.488
    1   AR   Ar  116   2.863   6.987  -0.076
    1   AR   Ar  117   1.570   4.940   2.526
    1   AR   Ar  118   1.273   6.102   2.635
    1   AR   Ar  119   2.684   4.885   2.605
    1   AR   Ar  120   2.115   4.982   1.533
    1   AR   Ar  121   0.887   4.632   3.555
    1   AR   Ar  122   2.439   6.555   4.079
    1   AR   Ar  123   2.081   5.357   4.434
    1   AR   Ar  124   2.407   6.115   2.672
    1   AR   Ar  125   1.354   4.768   4.969
    1   AR   Ar  126   1.348   6.413   6.297
    1   AR   Ar  127   2.277   5.588   7.520
    1   AR   Ar  128   2.422   6.342   5.854
    1   AR   Ar  129   2.922   6.278   0.646
    1   AR   Ar  130   3.833   0.506  -0.985
    1   AR   Ar  131   4.518   6.729   0.449
    1   AR   Ar  132   4.907   2.008  -0.920
    1   AR   Ar  133   3.864   0.021   2.750
    1   AR   Ar  134   2.874   0.728   2.743
    1   AR   Ar  135   5.034   0.419   2.990
    1   AR   Ar  136   3.855   0.434   1.767
    1   AR   Ar  137   3.027   7.036   3.470
    1   AR   Ar  138   4.089   1.106   4.698
    1   AR   Ar  139   4.203   0.195   3.906
    1   AR   Ar  140   4.543   1.173   3.454
    1   AR   Ar  141   3.601   0.190   4.745
    1   AR   Ar  142   4.169   0.385   5.614
    1   AR   Ar  143   5.178   6.698   6.194
    1   AR   Ar  144   5.136   1.303   6.488
    1   AR   Ar  145   2.729   2.485   0.392
    1   AR   Ar  146   4.016   2.838   1.008
    1   AR   Ar  147   4.831   1.843   0.565
    1   AR   Ar  148   5.917   3.005  -0.252
    1   AR   Ar  149   3.812   1.872   1.636
    1   AR   Ar  150   2.714   1.747   2.993
    1   AR   Ar  151   3.857   1.933   3.224
    1   AR   Ar  152   3.551   2.850   2.305
    1   AR   Ar  153   3.312   1.289   3.970
    1   AR   Ar  154   3.907   2.398   4.279
    1   AR   Ar  155   4.814   1.826   5.565
    1   AR   Ar  156   4.929   3.732   4.197
    1   AR   Ar  157   3.853   2.073   5.652
    1   AR   Ar  158   3.619   2.384   6.922
    1   AR   Ar  159   3.886   1.315   6.302
    1   AR   Ar  160   4.502   2.933   5.206
    1   AR   Ar  161   4.523   2.942  -0.317
    1   AR   Ar  162   4.461   4.785   0.663
    1   AR   Ar  163   4.971   3.530   0.686
    1   AR   Ar  164   5.523   4.729   1.073
    1   AR   Ar  165   3.427   3.848   2.596
    1   AR   Ar  166   3.474   4.829   3.454
    1   AR   Ar  167   4.596   3.234   3.284
    1   AR   Ar  168   4.109   3.955   1.166
    1   AR   Ar  169   2.935   2.827   3.175
    1   AR   Ar  170   2.741   4.591   4.393
    1   AR   Ar  171   3.616   3.657   4.711
    1   AR   Ar  172   4.036   4.594   4.274
    1   AR   Ar  173   3.557   3.099   5.912
    1   AR   Ar  174   4.012   5.390   5.995
    1   AR   Ar  175   3.765   4.137   6.372
    1   AR   Ar  176   4.154   4.315   5.362
    1   AR   Ar  177   5.284   5.990   0.326
    1   AR   Ar  178   3.796   6.459   1.304
    1   AR   Ar  179   4.222   5.313   1.543
    1   AR   Ar  180   4.109   5.643  -0.504
    1   AR   Ar  181   3.281   5.595   1.929
    1   AR   Ar  182   2.366   6.115   1.564
    1   AR   Ar  183   3.865   4.777   2.492
    1   AR   Ar  184   4.241   6.077   2.230
    1   AR   Ar  185   1.764   5.740   3.512
    1   AR   Ar  186   3.329   5.593   4.224
    1   AR   Ar  187   4.460   5.402   3.222
    1   AR   Ar  188   3.568   5.838   3.055
    1   AR   Ar  189   2.852   5.293   5.770
    1   AR   Ar  190   4.126   6.844   6.513
    1   AR   Ar  191   4.487   5.829   5.188
    1   AR   Ar  192   3.550   6.176   5.372
    1   AR   Ar  193   5.550   0.111  -0.032
    1   AR   Ar  194   4.590   0.723   0.100
    1   AR   Ar  195   5.741   1.111   0.989
    1   AR   Ar  196   5.988   1.134  -0.451
    1   AR   Ar  197   4.930   0.491   1.186
    1   AR   Ar  198   5.229   1.449   1.873
    1   AR   Ar  199   6.053   0.597   1.933
    1   AR   Ar  200   6.662   1.508   1.603
    1   AR   Ar  201   4.478   6.417   3.278
    1   AR   Ar  202   5.092   0.820   4.282
    1   AR   Ar  203   6.781   6.419   4.965
    1   AR   Ar  204   6.479   0.466   3.387
    1   AR   Ar  205   5.658   6.718   4.021
    1   AR   Ar  206   5.394   6.821   5.018
    1   AR   Ar  207   6.928   6.919   5.915
    1   AR   Ar  208   6.094   0.484   4.424
    1   AR   Ar  209   6.634   2.000  -0.896
    1   AR   Ar  210   4.975   2.802   1.560
    1   AR   Ar  211   6.047   2.290   1.036
    1   AR   Ar  212   6.810   3.677  -0.267
    1   AR   Ar  213   4.697   2.177   2.537
    1   AR   Ar  214   4.484   3.532   2.056
    1   AR   Ar  215   5.736   2.050   2.594
    1   AR   Ar  216   6.360   2.698   1.995
    1   AR   Ar  217   5.206   2.146   3.596
    1   AR   Ar  218   5.271   1.946   4.682
    1   AR   Ar  219   5.807   1.166   3.167
    1   AR   Ar  220   6.220   2.927   3.018
    1   AR   Ar  221   5.631   0.730   5.324
    1   AR   Ar  222   4.585   2.445   6.450
    1   AR   Ar  223   7.010   1.823   7.361
    1   AR   Ar  224   6.348   2.384   5.344
    1   AR   Ar  225   5.299   4.350  -0.128
    1   AR   Ar  226   4.939   4.442   2.330
    1   AR   Ar  227   6.580   3.878   1.751
    1   AR   Ar  228   6.838   4.767   0.594
    1   AR   Ar  229   6.384   3.473   0.827
    1   AR   Ar  230   4.594   4.393   3.385
    1   AR   Ar  231   7.113   2.768   3.685
    1   AR   Ar  232   5.533   3.713   1.541
    1   AR   Ar  233   5.928   2.856   4.061
    1   AR   Ar  234   5.732   4.181   4.770
    1   AR   Ar  235   6.815   3.716   4.481
    1   AR   Ar  236   5.972   3.826   3.796
    1   AR   Ar  237   5.567   3.012   4.960
    1   AR   Ar  238   4.842   4.664   6.055
    1   AR   Ar  239   5.705   3.739   8.135
    1   AR   Ar  240   6.147   3.494   5.663
    1   AR   Ar  241   6.734   0.567  -0.012
    1   AR   Ar  242   4.829   6.247   1.353
    1   AR   Ar  243   6.127   4.693   2.252
    1   AR   Ar  244   5.983   0.032   1.088
    1   AR   Ar  245   5.454   5.570   2.439
    1   AR   Ar  246   5.804   6.646   3.051
    1   AR   Ar  247   5.552   3.688   2.748
    1   AR   Ar  248   5.996   6.482   2.093
    1   AR   Ar  249   6.263   5.395   3.038
    1   AR   Ar  250   4.798   5.758   4.163
    1   AR   Ar  251   5.622   5.131   4.204
    1   AR   Ar  252   6.414   5.856   3.996
    1   AR   Ar  253   5.304   5.122   5.154
    1   AR   Ar  254   5.687   5.818   6.240
    1   AR   Ar  255   6.313   4.703   5.642
    1   AR   Ar  256   5.908   5.857   4.876
    7.12000  7.12000 12.00000
Argon-slab step 700
  256
    1   AR   Ar    1   0.988   0.971  -0.526
    1   AR   Ar    2   0.469   0.689   0.772
    1   AR   Ar    3   0.678   6.591   0.549
    1   AR   Ar    4   1.326   0.537   0.316
    1   AR   Ar    5   6.922   6.637   1.426
    1   AR   Ar    6   0.541   0.432   2.882
    1   AR   Ar    7   0.274   6.661   2.391
    1   AR   Ar    8   1.168   7.111   1.499
    1   AR   Ar    9   0.348   0.251   4.161
    1   AR   Ar   10   0.311   1.383   4.696
    1   AR   Ar   11   1.496   0.094   4.339
    1   AR   Ar   12   1.113   0.912   3.696
    1   AR   Ar   13   6.982   0.441   5.108
    1   AR   Ar   14   0.285   1.441   6.227
    1   AR   Ar   15   1.629   6.459   7.292
    1   AR   Ar   16   1.002   1.011   5.438
    1   AR   Ar   17   6.858   1.598   0.134
    1   AR   Ar   18   0.018   2.521   0.335
    1   AR   Ar   19   0.725   1.839   0.757
    1   AR   Ar   20   0.703   2.439  -0.714
    1   AR   Ar   21   0.168   0.656   1.927
    1   AR   Ar   22   7.085   2.215   2.632
    1   AR   Ar   23   6.779   1.198   2.889
    1   AR   Ar   24   0.369   2.467   1.746
    1   AR   Ar   25   0.562   1.838   3.679
    1   AR   Ar   26   6.550   1.933   3.852
    1   AR   Ar   27   0.702   2.138   5.349
    1   AR   Ar   28   1.066   2.651   4.304
    1   AR   Ar   29   6.620   1.388   5.569
    1   AR   Ar   30   6.972   2.471   6.152
    1   AR   Ar   31   1.167   1.330   6.971
    1   AR   Ar   32   1.002   3.394   5.927
    1   AR   Ar   33   1.057   3.489  -0.641
    1   AR   Ar   34   0.331   5.173   1.480
    1   AR   Ar   35   0.328   3.397   1.056
    1   AR   Ar   36   1.796   5.797  -1.134
    1   AR   Ar   37   7.119   3.397   2.704
    1   AR   Ar   38   0.372   4.895   2.434
    1   AR   Ar   39   0.990   4.047   2.730
    1   AR   Ar   40   1.204   4.516   1.603
    1   AR   Ar   41   1.004   2.824   2.628
    1   AR   Ar   42   6.861   5.040   4.747
    1   AR   Ar   43   0.078   2.767   4.947
    1   AR   Ar   44   0.611   3.667   3.757
    1   AR   Ar   45   7.010   3.965   5.555
    1   AR   Ar   46   7.110   4.725   6.658
    1   AR   Ar   47   0.272   3.548   6.778
    1   AR   Ar   48   0.961   4.408   6.092
    1   AR   Ar   49   0.304   4.737  -0.349
    1   AR   Ar   50   6.155   5.563   1.402
    1   AR   Ar   51   0.748   4.223   0.433
    1   AR   Ar   52   0.860   5.374   0.321
    1   AR   Ar   53   6.759   5.812   2.257
    1   AR   Ar   54   6.978   6.703   3.383
    1   AR   Ar   55   0.246   5.783   3.099
    1   AR   Ar   56   0.949   6.111   1.575
    1   AR   Ar   57   7.018   4.378   3.399
    1   AR   Ar   58   0.322   5.614   4.153
    1   AR   Ar   59   1.591   6.275   4.774
    1   AR   Ar   60   0.883   6.461   3.823
    1   AR   Ar   61   6.659   5.813   5.913
    1   AR   Ar   62   0.698   6.069   5.328
    1   AR   Ar   63   1.652   5.527   5.659
    1   AR   Ar   64   0.767   0.031   5.307
    1   AR   Ar   65   1.745   6.489  -0.162
    1   AR   Ar   66   1.704   0.917   1.219
    1   AR   Ar   67   2.623   5.941  -0.356
    1   AR   Ar   68   3.767   1.073   0.884
    1   AR   Ar   69   1.977   6.956   0.879
    1   AR   Ar   70   1.399   0.520   2.350
    1   AR   Ar   71   2.328   7.043   2.145
    1   AR   Ar   72   2.748   0.732   1.522
    1   AR   Ar   73   1.961   6.817   3.267
    1   AR   Ar   74   1.694   1.331   4.541
    1   AR   Ar   75   2.549   0.842   4.663
    1   AR   Ar   76   2.143   0.688   3.718
    1   AR   Ar   77   1.880   0.039   5.285
    1   AR   Ar   78   1.429   0.461   6.320
    1   AR   Ar   79   2.674   7.054   6.926
    1   AR   Ar   80   2.483   0.840   6.222
    1   AR   Ar   81   2.389   1.267   0.272
    1   AR   Ar   82   1.785   3.796   1.175
    1   AR   Ar   83   2.766   1.940   1.757
    1   AR   Ar   84   1.820   2.753  -0.791
    1   AR   Ar   85   1.438   2.017   1.622
    1   AR   Ar   86   2.034   2.495   2.427
    1   AR   Ar   87   1.999   1.375   2.316
    1   AR   Ar   88   3.209   3.537   1.454
    1   AR   Ar   89   0.891   1.571   2.408
    1   AR   Ar   90   3.086   2.806   4.982
    1   AR   Ar   91   2.555   2.011   4.419
    1   AR   Ar   92   1.591   1.938   3.244
    1   AR   Ar   93   1.450   1.906   6.014
    1   AR   Ar   94   2.062   1.994   6.881
    1   AR   Ar   95   2.127   0.917   7.298
    1   AR   Ar   96   2.900   2.333   5.828
    1   AR   Ar   97   1.939   4.096  -0.465
    1   AR   Ar   98   3.166   4.541   1.530
    1   AR   Ar   99   2.986   3.286  -1.017
    1   AR   Ar  100   2.194   5.093  -0.480
    1   AR   Ar  101   1.218   3.139   1.759
    1   AR   Ar  102   2.147   4.279   3.353
    1   AR   Ar  103   2.311   3.907   2.283
    1   AR   Ar  104   2.667   4.025   0.589
    1   AR   Ar  105   1.763   3.045   3.473
    1   AR   Ar  106   1.966   3.423   4.370
    1   AR   Ar  107   3.011   3.995   5.385
    1   AR   Ar  108   3.086   3.639   3.867
    1   AR   Ar  109   0.549   4.172   4.642
    1   AR   Ar  110   1.556   3.910   5.314
    1   AR   Ar  111   3.256   5.066   6.753
    1   AR   Ar  112   2.363   3.546   6.240
    1   AR   Ar  113   1.956   4.881   0.526
    1   AR   Ar  114   1.706   5.846   0.770
    1   AR   Ar  115   3.500   5.256   0.505
    1   AR   Ar  116   2.876   6.994  -0.046
    1   AR   Ar  117   1.541   4.941   2.507
    1   AR   Ar  118   1.247   6.135   2.623
    1   AR   Ar  119   2.660   4.880   2.625
    1   AR   Ar  120   2.147   5.022   1.546
    1   AR   Ar  121   0.883   4.628   3.558
    1   AR   Ar  122   2.433   6.548   4.114
    1   AR   Ar  123   2.079   5.368   4.434
    1   AR   Ar  124   2.427   6.100   2.651
    1   AR   Ar  125   1.345   4.779   4.967
    1   AR   Ar  126   1.309   6.420   6.302
    1   AR   Ar  127   2.312   5.554   7.500
    1   AR   Ar  128   2.403   6.366   5.857
    1   AR   Ar  129   2.942   6.261   0.637
    1   AR   Ar  130   3.802   0.477  -0.972
    1   AR   Ar  131   4.531   6.716   0.433
    1   AR   Ar  132   4.940   2.029  -0.911
    1   AR   Ar  133   3.865   7.107   2.750
    1   AR   Ar  134   2.869   0.725   2.756
    1   AR   Ar  135   5.053   0.435   3.001
    1   AR   Ar  136   3.866   0.458   1.754
    1   AR   Ar  137   3.014   7.085   3.507
    1   AR   Ar  138   4.081   1.124   4.711
    1   AR   Ar  139   4.204   0.197   3.924
    1   AR   Ar  140   4.605   1.193   3.444
    1   AR   Ar  141   3.584   0.197   4.713
    1   AR   Ar  142   4.144   0.363   5.619
    1   AR   Ar  143   5.178   6.720   6.177
    1   AR   Ar  144   5.131   1.333   6.511
    1   AR   Ar  145   2.723   2.475   0.407
    1   AR   Ar  146   3.993   2.842   1.014
    1   AR   Ar  147   4.870   1.839   0.544
    1   AR   Ar  148   5.933   3.011  -0.232
    1   AR   Ar  149   3.803   1.859   1.622
    1   AR   Ar  150   2.717   1.745   3.000
    1   AR   Ar  151   3.893   1.944   3.219
    1   AR   Ar  152   3.546   2.844   2.262
    1   AR   Ar  153   3.338   1.259   3.961
    1   AR   Ar  154   3.915   2.350   4.263
    1   AR   Ar  155   4.808   1.855   5.568
    1   AR   Ar  156   4.909   3.745   4.181
    1   AR   Ar  157   3.842   2.070   5.677
    1   AR   Ar  158   3.636   2.386   6.939
    1   AR   Ar  159   3.872   1.296   6.264
    1   AR   Ar  160   4.514   2.942   5.177
    1   AR   Ar  161   4.536   2.913  -0.318
    1   AR   Ar  162   4.489   4.796   0.648
    1   AR   Ar  163   4.988   3.533   0.669
    1   AR   Ar  164   5.555   4.737   1.052
    1   AR   Ar  165   3.393   3.851   2.620
    1   AR   Ar  166   3.487   4.809   3.480
    1   AR   Ar  167   4.596   3.256   3.280
    1   AR   Ar  168   4.101   3.972   1.148
    1   AR   Ar  169   2.934   2.797   3.181
    1   AR   Ar  170   2.756   4.570   4.401
    1   AR   Ar  171   3.606   3.646   4.712
    1   AR   Ar  172   4.029   4.591   4.296
    1   AR   Ar  173   3.559   3.088   5.944
    1   AR   Ar  174   4.027   5.362   6.012
    1   AR   Ar  175   3.739   4.137   6.377
    1   AR   Ar  176   4.127   4.338   5.367
    1   AR   Ar  177   5.275   5.995   0.323
    1   AR   Ar  178   3.825   6.487   1.283
    1   AR   Ar  179   4.200   5.288   1.546
    1   AR   Ar  180   4.083   5.620  -0.481
    1   AR   Ar  181   3.286   5.611   1.936
    1   AR   Ar  182   2.381   6.108   1.558
    1   AR   Ar  183   3.822   4.793   2.486
    1   AR   Ar  184   4.246   6.087   2.242
    1   AR   Ar  185   1.718   5.746   3.516
    1   AR   Ar  186   3.322   5.596   4.211
    1   AR   Ar  187   4.450   5.404   3.215
    1   AR   Ar  188   3.557   5.861   3.055
    1   AR   Ar  189   2.845   5.288   5.743
    1   AR   Ar  190   4.146   6.824   6.483
    1   AR   Ar  191   4.478   5.824   5.164
    1   AR   Ar  192   3.545   6.185   5.335
    1   AR   Ar  193   5.532   0.121  -0.052
    1   AR   Ar  194   4.584   0.695   0.078
    1   AR   Ar  195   5.751   1.116   0.985
    1   AR   Ar  196   6.006   1.133  -0.455
    1   AR   Ar  197   4.939   0.487   1.187
    1   AR   Ar  198   5.221   1.467   1.890
    1   AR   Ar  199   6.026   0.620   1.972
    1   AR   Ar  200   6.676   1.497   1.616
    1   AR   Ar  201   4.472   6.410   3.297
    1   AR   Ar  202   5.145   0.836   4.256
    1   AR   Ar  203   6.793   6.430   4.953
    1   AR   Ar  204   6.457   0.478   3.393
    1   AR   Ar  205   5.672   6.716   4.030
    1   AR   Ar  206   5.383   6.814   4.985
    1   AR   Ar  207   6.942   6.904   5.904
    1   AR   Ar  208   6.075   0.479   4.394
    1   AR   Ar  209   6.608   1.965  -0.873
    1   AR   Ar  210   4.973   2.796   1.573
    1   AR   Ar  211   6.046   2.291   1.066
    1   AR   Ar  212   6.807   3.701  -0.285
    1   AR   Ar  213   4.726   2.150   2.540
    1   AR   Ar  214   4.467   3.538   2.084
    1   AR   Ar  215   5.744   2.027   2.591
    1   AR   Ar  216   6.325   2.717   1.971
    1   AR   Ar  217   5.221   2.158   3.622
    1   AR   Ar  218   5.310   1.924   4.683
    1   AR   Ar  219   5.785   1.167   3.143
    1   AR   Ar  220   6.252   2.935   3.011
    1   AR   Ar  221   5.629   0.709   5.317
    1   AR   Ar  222   4.563   2.446   6.452
    1   AR   Ar  223   7.011   1.863   7.373
    1   AR   Ar  224   6.329   2.341   5.363
    1   AR   Ar  225   5.319   4.365  -0.112
    1   AR   Ar  226   4.891   4.465   2.357
    1   AR   Ar  227   6.596   3.889   1.760
    1   AR   Ar  228   6.854   4.722   0.624
    1   AR   Ar  229   6.378   3.473   0.818
    1   AR   Ar  230   4.611   4.366   3.377
    1   AR   Ar  231   0.014   2.793   3.670
    1   AR   Ar  232   5.508   3.703   1.535
    1   AR   Ar  233   5.936   2.829   4.067
    1   AR   Ar  234   5.722   4.206   4.789
    1   AR   Ar  235   6.783   3.713   4.472
    1   AR   Ar  236   5.983   3.833   3.778
    1   AR   Ar  237   5.582   3.004   4.951
    1   AR   Ar  238   4.836   4.650   6.026
    1   AR   Ar  239   5.696   3.748   8.134
    1   AR   Ar  240   6.132   3.480   5.621
    1   AR   Ar  241   6.758   0.596   0.001
    1   AR   Ar  242   4.824   6.265   1.332
    1   AR   Ar  243   6.114   4.734   2.233
    1   AR   Ar  244   5.998   0.005   1.034
    1   AR   Ar  245   5.449   5.560   2.423
    1   AR   Ar  246   5.804   6.642   3.012
    1   AR   Ar  247   5.519   3.666   2.767
    1   AR   Ar  248   5.967   6.485   2.086
    1   AR   Ar  249   6.239   5.365   3.078
    1   AR   Ar  250   4.800   5.751   4.165
    1   AR   Ar  251   5.602   5.159   4.174
    1   AR   Ar  252   6.425   5.869   3.970
    1   AR   Ar  253   5.268   5.108   5.226
    1   AR   Ar  254   5.695   5.829   6.267
    1   AR   Ar  255   6.289   4.668   5.637
    1   AR   Ar  256   5.925   5.876   4.837
    7.12000  7.12000 12.00000
Argon-slab step 705
  256
    1   AR   Ar    1   0.996   0.980  -0.522
    1   AR   Ar    2   0.457   0.656   0.775
    1   AR   Ar    3   0.706   6.573   0.537
    1   AR   Ar    4   1.334   0.558   0.335
    1   AR   Ar    5   6.937   6.637   1.431
    1   AR   Ar    6   0.529   0.413   2.882
    1   AR   Ar    7   0.247   6.659   2.399
    1   AR   Ar    8   1.149   7.072   1.484
    1   AR   Ar    9   0.338   0.229   4.151
    1   AR   Ar   10   0.334   1.395   4.699
    1   AR   Ar   11   1.479   0.107   4.317
    1   AR   Ar   12   1.100   0.886   3.677
    1   AR   Ar   13   6.961   0.469   5.137
    1   AR   Ar   14   0.312   1.449   6.211
    1   AR   Ar   15   1.629   6.429   7.283
    1   AR   Ar   16   1.018   1.024   5.408
    1   AR   Ar   17   6.850   1.608   0.140
    1   AR   Ar   18   0.009   2.537   0.344
    1   AR   Ar   19   0.705   1.829   0.735
    1   AR   Ar   20   0.681   2.470  -0.695
    1   AR   Ar   21   0.123   0.647   1.918
    1   AR   Ar   22   7.078   2.196   2.639
    1   AR   Ar   23   6.799   1.244   2.875
    1   AR   Ar   24   0.359   2.495   1.731
    1   AR   Ar   25   0.550   1.837   3.658
    1   AR   Ar   26   6.535   1.929   3.848
    1   AR   Ar   27   0.675   2.163   5.326
    1   AR   Ar   28   1.072   2.653   4.315
    1   AR   Ar   29   6.631   1.413   5.577
    1   AR   Ar   30   6.997   2.457   6.168
    1   AR   Ar   31   1.127   1.323   6.987
    1   AR   Ar   32   1.032   3.346   5.896
    1   AR   Ar   33   1.090   3.470  -0.648
    1   AR   Ar   34   0.349   5.166   1.477
    1   AR   Ar   35   0.355   3.385   1.039
    1   AR   Ar   36   1.797   5.774  -1.153
    1   AR   Ar   37   0.013   3.404   2.708
    1   AR   Ar   38   0.308   4.891   2.415
    1   AR   Ar   39   0.966   4.041   2.685
    1   AR   Ar   40   1.243   4.527   1.630
    1   AR   Ar   41   1.024   2.831   2.647
    1   AR   Ar   42   6.825   5.041   4.726
    1   AR   Ar   43   0.074   2.770   4.916
    1   AR   Ar   44   0.589   3.660   3.717
    1   AR   Ar   45   7.018   3.953   5.550
    1   AR   Ar   46   7.088   4.689   6.675
    1   AR   Ar   47   0.271   3.556   6.802
    1   AR   Ar   48   0.966   4.428   6.089
    1   AR   Ar   49   0.299   4.725  -0.331
    1   AR   Ar   50   6.161   5.579   1.385
    1   AR   Ar   51   0.734   4.238   0.426
    1   AR   Ar   52   0.884   5.389   0.311
    1   AR   Ar   53   6.772   5.826   2.277
    1   AR   Ar   54   7.004   6.742   3.390
    1   AR   Ar   55   0.265   5.796   3.119
    1   AR   Ar   56   0.949   6.109   1.562
    1   AR   Ar   57   7.027   4.342   3.366
    1   AR   Ar   58   0.378   5.619   4.176
    1   AR   Ar   59   1.612   6.276   4.757
    1   AR   Ar   60   0.867   6.461   3.815
    1   AR   Ar   61   6.660   5.832   5.929
    1   AR   Ar   62   0.683   6.109   5.301
    1   AR   Ar   63   1.631   5.551   5.673
    1   AR   Ar   64   0.787   0.040   5.311
    1   AR   Ar   65   1.738   6.497  -0.163
    1   AR   Ar   66   1.692   0.904   1.225
    1   AR   Ar   67   2.634   5.939  -0.355
    1   AR   Ar   68   3.789   1.047   0.891
    1   AR   Ar   69   1.990   6.974   0.878
    1   AR   Ar   70   1.418   0.529   2.347
    1   AR   Ar   71   2.345   7.019   2.176
    1   AR   Ar   72   2.756   0.741   1.505
    1   AR   Ar   73   1.951   6.817   3.266
    1   AR   Ar   74   1.700   1.355   4.559
    1   AR   Ar   75   2.573   0.823   4.679
    1   AR   Ar   76   2.176   0.682   3.700
    1   AR   Ar   77   1.888   0.037   5.289
    1   AR   Ar   78   1.429   0.470   6.341
    1   AR   Ar   79   2.658   7.038   6.926
    1   AR   Ar   80   2.453   0.823   6.236
    1   AR   Ar   81   2.370   1.263   0.292
    1   AR   Ar   82   1.764   3.768   1.177
    1   AR   Ar   83   2.774   1.942   1.762
    1   AR   Ar   84   1.835   2.725  -0.776
    1   AR   Ar   85   1.440   2.012   1.626
    1   AR   Ar   86   2.031   2.464   2.404
    1   AR   Ar   87   2.003   1.361   2.338
    1   AR   Ar   88   3.206   3.548   1.454
    1   AR   Ar   89   0.878   1.547   2.385
    1   AR   Ar   90   3.085   2.818   5.002
    1   AR   Ar   91   2.526   1.998   4.396
    1   AR   Ar   92   1.592   1.933   3.243
    1   AR   Ar   93   1.490   1.912   6.052
    1   AR   Ar   94   2.075   1.966   6.932
    1   AR   Ar   95   2.098   0.913   7.287
    1   AR   Ar   96   2.882   2.314   5.868
    1   AR   Ar   97   1.931   4.093  -0.508
    1   AR   Ar   98   3.163   4.557   1.515
    1   AR   Ar   99   3.004   3.262  -1.035
    1   AR   Ar  100   2.185   5.069  -0.449
    1   AR   Ar  101   1.186   3.159   1.753
    1   AR   Ar  102   2.117   4.287   3.347
    1   AR   Ar  103   2.340   3.900   2.286
    1   AR   Ar  104   2.688   4.013   0.592
    1   AR   Ar  105   1.763   3.032   3.460
    1   AR   Ar  106   1.978   3.398   4.369
    1   AR   Ar  107   3.018   4.014   5.381
    1   AR   Ar  108   3.077   3.642   3.819
    1   AR   Ar  109   0.539   4.182   4.651
    1   AR   Ar  110   1.586   3.942   5.304
    1   AR   Ar  111   3.281   5.087   6.766
    1   AR   Ar  112   2.376   3.533   6.229
    1   AR   Ar  113   1.974   4.865   0.551
    1   AR   Ar  114   1.693   5.833   0.762
    1   AR   Ar  115   3.486   5.254   0.523
    1   AR   Ar  116   2.887   7.006  -0.022
    1   AR   Ar  117   1.515   4.946   2.492
    1   AR   Ar  118   1.222   6.169   2.611
    1   AR   Ar  119   2.640   4.878   2.643
    1   AR   Ar  120   2.182   5.062   1.562
    1   AR   Ar  121   0.885   4.638   3.566
    1   AR   Ar  122   2.425   6.533   4.161
    1   AR   Ar  123   2.079   5.381   4.436
    1   AR   Ar  124   2.449   6.080   2.630
    1   AR   Ar  125   1.333   4.806   4.958
    1   AR   Ar  126   1.268   6.428   6.300
    1   AR   Ar  127   2.348   5.521   7.480
    1   AR   Ar  128   2.384   6.389   5.860
    1   AR   Ar  129   2.964   6.250   0.653
    1   AR   Ar  130   3.769   0.441  -0.949
    1   AR   Ar  131   4.541   6.708   0.415
    1   AR   Ar  132   4.973   2.051  -0.901
    1   AR   Ar  133   3.864   7.074   2.751
    1   AR   Ar  134   2.863   0.721   2.766
    1   AR   Ar  135   5.074   0.437   3.007
    1   AR   Ar  136   3.877   0.479   1.741
    1   AR   Ar  137   3.008   0.018   3.540
    1   AR   Ar  138   4.077   1.145   4.724
    1   AR   Ar  139   4.208   0.207   3.928
    1   AR   Ar  140   4.661   1.222   3.436
    1   AR   Ar  141   3.557   0.200   4.687
    1   AR   Ar  142   4.121   0.342   5.624
    1   AR   Ar  143   5.176   6.746   6.158
    1   AR   Ar  144   5.124   1.364   6.532
    1   AR   Ar  145   2.717   2.466   0.423
    1   AR   Ar  146   3.970   2.846   1.022
    1   AR   Ar  147   4.909   1.835   0.524
    1   AR   Ar  148   5.950   3.016  -0.211
    1   AR   Ar  149   3.799   1.848   1.610
    1   AR   Ar  150   2.721   1.746   3.009
    1   AR   Ar  151   3.925   1.958   3.214
    1   AR   Ar  152   3.543   2.835   2.218
    1   AR   Ar  153   3.342   1.238   3.972
    1   AR   Ar  154   3.923   2.302   4.249
    1   AR   Ar  155   4.809   1.880   5.574
    1   AR   Ar  156   4.890   3.758   4.170
    1   AR   Ar  157   3.833   2.078   5.690
    1   AR   Ar  158   3.649   2.388   6.956
    1   AR   Ar  159   3.859   1.266   6.235
    1   AR   Ar  160   4.523   2.950   5.148
    1   AR   Ar  161   4.550   2.883  -0.317
    1   AR   Ar  162   4.480   4.828   0.680
    1   AR   Ar  163   5.003   3.535   0.647
    1   AR   Ar  164   5.585   4.744   1.030
    1   AR   Ar  165   3.357   3.852   2.646
    1   AR   Ar  166   3.494   4.789   3.500
    1   AR   Ar  167   4.594   3.275   3.273
    1   AR   Ar  168   4.094   3.987   1.132
    1   AR   Ar  169   2.931   2.767   3.186
    1   AR   Ar  170   2.775   4.547   4.408
    1   AR   Ar  171   3.601   3.646   4.705
    1   AR   Ar  172   4.027   4.587   4.324
    1   AR   Ar  173   3.558   3.113   5.965
    1   AR   Ar  174   4.039   5.333   6.029
    1   AR   Ar  175   3.712   4.137   6.381
    1   AR   Ar  176   4.096   4.361   5.367
    1   AR   Ar  177   5.269   5.998   0.320
    1   AR   Ar  178   3.849   6.517   1.263
    1   AR   Ar  179   4.180   5.260   1.549
    1   AR   Ar  180   4.116   5.616  -0.443
    1   AR   Ar  181   3.289   5.610   1.956
    1   AR   Ar  182   2.396   6.102   1.553
    1   AR   Ar  183   3.780   4.814   2.477
    1   AR   Ar  184   4.242   6.085   2.237
    1   AR   Ar  185   1.702   5.746   3.509
    1   AR   Ar  186   3.316   5.599   4.199
    1   AR   Ar  187   4.445   5.395   3.205
    1   AR   Ar  188   3.534   5.879   3.069
    1   AR   Ar  189   2.839   5.282   5.715
    1   AR   Ar  190   4.165   6.803   6.453
    1   AR   Ar  191   4.475   5.820   5.139
    1   AR   Ar  192   3.533   6.197   5.299
    1   AR   Ar  193   5.514   0.131  -0.071
    1   AR   Ar  194   4.578   0.668   0.057
    1   AR   Ar  195   5.765   1.123   0.978
    1   AR   Ar  196   6.020   1.134  -0.460
    1   AR   Ar  197   4.933   0.490   1.206
    1   AR   Ar  198   5.212   1.481   1.901
    1   AR   Ar  199   6.000   0.644   2.013
    1   AR   Ar  200   6.690   1.488   1.628
    1   AR   Ar  201   4.469   6.410   3.318
    1   AR   Ar  202   5.191   0.853   4.231
    1   AR   Ar  203   6.810   6.444   4.939
    1   AR   Ar  204   6.433   0.464   3.410
    1   AR   Ar  205   5.687   6.709   4.040
    1   AR   Ar  206   5.369   6.808   4.961
    1   AR   Ar  207   6.957   6.886   5.897
    1   AR   Ar  208   6.066   0.473   4.365
    1   AR   Ar  209   6.582   1.932  -0.849
    1   AR   Ar  210   4.972   2.787   1.567
    1   AR   Ar  211   6.043   2.289   1.091
    1   AR   Ar  212   6.807   3.726  -0.301
    1   AR   Ar  213   4.748   2.126   2.544
    1   AR   Ar  214   4.446   3.544   2.116
    1   AR   Ar  215   5.759   2.010   2.589
    1   AR   Ar  216   6.292   2.739   1.947
    1   AR   Ar  217   5.235   2.169   3.646
    1   AR   Ar  218   5.353   1.901   4.679
    1   AR   Ar  219   5.754   1.174   3.124
    1   AR   Ar  220   6.282   2.938   3.010
    1   AR   Ar  221   5.627   0.685   5.301
    1   AR   Ar  222   4.543   2.448   6.452
    1   AR   Ar  223   7.012   1.902   7.383
    1   AR   Ar  224   6.302   2.302   5.377
    1   AR   Ar  225   5.339   4.379  -0.093
    1   AR   Ar  226   4.845   4.492   2.381
    1   AR   Ar  227   6.615   3.901   1.772
    1   AR   Ar  228   6.869   4.677   0.655
    1   AR   Ar  229   6.400   3.466   0.807
    1   AR   Ar  230   4.628   4.338   3.368
    1   AR   Ar  231   0.034   2.820   3.656
    1   AR   Ar  232   5.487   3.698   1.535
    1   AR   Ar  233   5.952   2.798   4.061
    1   AR   Ar  234   5.724   4.203   4.816
    1   AR   Ar  235   6.753   3.732   4.461
    1   AR   Ar  236   5.994   3.843   3.757
    1   AR   Ar  237   5.584   2.995   4.947
    1   AR   Ar  238   4.832   4.633   6.007
    1   AR   Ar  239   5.705   3.758   8.118
    1   AR   Ar  240   6.121   3.471   5.593
    1   AR   Ar  241   6.785   0.616   0.017
    1   AR   Ar  242   4.832   6.263   1.359
    1   AR   Ar  243   6.114   4.741   2.247
    1   AR   Ar  244   6.011   7.098   0.980
    1   AR   Ar  245   5.439   5.553   2.405
    1   AR   Ar  246   5.802   6.641   2.990
    1   AR   Ar  247   5.512   3.666   2.787
    1   AR   Ar  248   5.940   6.488   2.057
    1   AR   Ar  249   6.218   5.334   3.121
    1   AR   Ar  250   4.796   5.750   4.166
    1   AR   Ar  251   5.589   5.176   4.139
    1   AR   Ar  252   6.440   5.885   3.939
    1   AR   Ar  253   5.234   5.096   5.293
    1   AR   Ar  254   5.702   5.839   6.300
    1   AR   Ar  255   6.258   4.639   5.632
    1   AR   Ar  256   5.938   5.896   4.809
    7.12000  7.12000 12.00000
Argon-slab step 710
  256
    1   AR   Ar    1   1.000   0.992  -0.522
    1   AR   Ar    2   0.435   0.625   0.785
    1   AR   Ar    3   0.736   6.555   0.526
    1   AR   Ar    4   1.354   0.571   0.349
    1   AR   Ar    5   6.952   6.636   1.435
    1   AR   Ar    6   0.514   0.398   2.887
    1   AR   Ar    7   0.225   6.657   2.405
    1   AR   Ar    8   1.128   7.043   1.469
    1   AR   Ar    9   0.329   0.209   4.145
    1   AR   Ar   10   0.321   1.423   4.698
    1   AR   Ar   11   1.460   0.123   4.294
    1   AR   Ar   12   1.071   0.910   3.662
    1   AR   Ar   13   6.938   0.501   5.161
    1   AR   Ar   14   0.345   1.458   6.198
    1   AR   Ar   15   1.632   6.398   7.275
    1   AR   Ar   16   1.037   1.043   5.381
    1   AR   Ar   17   6.840   1.614   0.147
    1   AR   Ar   18   7.116   2.515   0.344
    1   AR   Ar   19   0.687   1.816   0.715
    1   AR   Ar   20   0.658   2.498  -0.673
    1   AR   Ar   21   0.081   0.635   1.909
    1   AR   Ar   22   7.072   2.183   2.650
    1   AR   Ar   23   6.822   1.289   2.856
    1   AR   Ar   24   0.349   2.522   1.713
    1   AR   Ar   25   0.536   1.836   3.635
    1   AR   Ar   26   6.520   1.921   3.843
    1   AR   Ar   27   0.662   2.175   5.314
    1   AR   Ar   28   1.077   2.655   4.324
    1   AR   Ar   29   6.644   1.424   5.584
    1   AR   Ar   30   7.024   2.444   6.184
    1   AR   Ar   31   1.085   1.317   7.002
    1   AR   Ar   32   1.055   3.293   5.869
    1   AR   Ar   33   1.118   3.454  -0.654
    1   AR   Ar   34   0.366   5.164   1.461
    1   AR   Ar   35   0.381   3.374   1.023
    1   AR   Ar   36   1.799   5.753  -1.172
    1   AR   Ar   37   0.034   3.414   2.710
    1   AR   Ar   38   0.243   4.883   2.409
    1   AR   Ar   39   0.959   4.030   2.669
    1   AR   Ar   40   1.275   4.535   1.651
    1   AR   Ar   41   1.038   2.831   2.682
    1   AR   Ar   42   6.785   5.039   4.707
    1   AR   Ar   43   0.055   2.789   4.873
    1   AR   Ar   44   0.575   3.649   3.677
    1   AR   Ar   45   7.038   3.940   5.545
    1   AR   Ar   46   7.066   4.652   6.690
    1   AR   Ar   47   0.269   3.564   6.824
    1   AR   Ar   48   0.970   4.450   6.091
    1   AR   Ar   49   0.290   4.716  -0.319
    1   AR   Ar   50   6.169   5.597   1.369
    1   AR   Ar   51   0.727   4.261   0.436
    1   AR   Ar   52   0.905   5.402   0.301
    1   AR   Ar   53   6.781   5.835   2.293
    1   AR   Ar   54   7.029   6.776   3.399
    1   AR   Ar   55   0.286   5.804   3.142
    1   AR   Ar   56   0.945   6.094   1.549
    1   AR   Ar   57   7.028   4.308   3.331
    1   AR   Ar   58   0.435   5.622   4.201
    1   AR   Ar   59   1.627   6.274   4.743
    1   AR   Ar   60   0.854   6.463   3.805
    1   AR   Ar   61   6.665   5.850   5.941
    1   AR   Ar   62   0.667   6.146   5.275
    1   AR   Ar   63   1.611   5.576   5.687
    1   AR   Ar   64   0.815   0.039   5.305
    1   AR   Ar   65   1.730   6.506  -0.161
    1   AR   Ar   66   1.682   0.895   1.238
    1   AR   Ar   67   2.658   5.946  -0.345
    1   AR   Ar   68   3.812   1.022   0.891
    1   AR   Ar   69   2.007   6.989   0.876
    1   AR   Ar   70   1.437   0.533   2.344
    1   AR   Ar   71   2.361   6.999   2.205
    1   AR   Ar   72   2.764   0.751   1.489
    1   AR   Ar   73   1.937   6.818   3.263
    1   AR   Ar   74   1.698   1.380   4.575
    1   AR   Ar   75   2.602   0.802   4.697
    1   AR   Ar   76   2.210   0.680   3.680
    1   AR   Ar   77   1.897   0.038   5.297
    1   AR   Ar   78   1.444   0.481   6.364
    1   AR   Ar   79   2.640   7.022   6.925
    1   AR   Ar   80   2.424   0.807   6.249
    1   AR   Ar   81   2.351   1.258   0.314
    1   AR   Ar   82   1.754   3.752   1.157
    1   AR   Ar   83   2.759   1.926   1.779
    1   AR   Ar   84   1.852   2.697  -0.761
    1   AR   Ar   85   1.441   2.007   1.626
    1   AR   Ar   86   2.030   2.435   2.383
    1   AR   Ar   87   1.974   1.356   2.351
    1   AR   Ar   88   3.199   3.549   1.456
    1   AR   Ar   89   0.862   1.522   2.365
    1   AR   Ar   90   3.073   2.833   5.021
    1   AR   Ar   91   2.499   1.986   4.372
    1   AR   Ar   92   1.593   1.927   3.242
    1   AR   Ar   93   1.527   1.915   6.088
    1   AR   Ar   94   2.090   1.938   6.984
    1   AR   Ar   95   2.091   0.898   7.287
    1   AR   Ar   96   2.850   2.292   5.915
    1   AR   Ar   97   1.924   4.083  -0.549
    1   AR   Ar   98   3.146   4.528   1.507
    1   AR   Ar   99   3.020   3.237  -1.053
    1   AR   Ar  100   2.173   5.040  -0.421
    1   AR   Ar  101   1.157   3.184   1.737
    1   AR   Ar  102   2.130   4.277   3.361
    1   AR   Ar  103   2.367   3.893   2.287
    1   AR   Ar  104   2.710   4.001   0.595
    1   AR   Ar  105   1.761   3.017   3.438
    1   AR   Ar  106   1.994   3.378   4.375
    1   AR   Ar  107   3.015   4.039   5.390
    1   AR   Ar  108   3.064   3.647   3.766
    1   AR   Ar  109   0.531   4.194   4.661
    1   AR   Ar  110   1.621   3.960   5.304
    1   AR   Ar  111   3.315   5.113   6.795
    1   AR   Ar  112   2.390   3.521   6.216
    1   AR   Ar  113   1.991   4.843   0.577
    1   AR   Ar  114   1.683   5.827   0.758
    1   AR   Ar  115   3.471   5.251   0.544
    1   AR   Ar  116   2.897   7.024  -0.000
    1   AR   Ar  117   1.491   4.958   2.487
    1   AR   Ar  118   1.197   6.204   2.601
    1   AR   Ar  119   2.624   4.879   2.658
    1   AR   Ar  120   2.218   5.101   1.583
    1   AR   Ar  121   0.893   4.656   3.576
    1   AR   Ar  122   2.418   6.515   4.212
    1   AR   Ar  123   2.081   5.394   4.438
    1   AR   Ar  124   2.472   6.054   2.612
    1   AR   Ar  125   1.316   4.850   4.943
    1   AR   Ar  126   1.243   6.431   6.273
    1   AR   Ar  127   2.384   5.488   7.458
    1   AR   Ar  128   2.366   6.411   5.863
    1   AR   Ar  129   2.967   6.225   0.673
    1   AR   Ar  130   3.735   0.404  -0.925
    1   AR   Ar  131   4.547   6.707   0.397
    1   AR   Ar  132   5.008   2.071  -0.890
    1   AR   Ar  133   3.862   7.041   2.752
    1   AR   Ar  134   2.856   0.715   2.773
    1   AR   Ar  135   5.089   0.436   2.996
    1   AR   Ar  136   3.889   0.498   1.733
    1   AR   Ar  137   3.008   0.071   3.573
    1   AR   Ar  138   4.078   1.168   4.740
    1   AR   Ar  139   4.220   0.220   3.924
    1   AR   Ar  140   4.710   1.262   3.430
    1   AR   Ar  141   3.522   0.202   4.665
    1   AR   Ar  142   4.098   0.323   5.626
    1   AR   Ar  143   5.175   6.775   6.135
    1   AR   Ar  144   5.112   1.362   6.565
    1   AR   Ar  145   2.711   2.456   0.439
    1   AR   Ar  146   3.949   2.851   1.030
    1   AR   Ar  147   4.949   1.830   0.505
    1   AR   Ar  148   5.965   3.020  -0.189
    1   AR   Ar  149   3.799   1.838   1.600
    1   AR   Ar  150   2.726   1.747   3.020
    1   AR   Ar  151   3.952   1.973   3.209
    1   AR   Ar  152   3.540   2.825   2.174
    1   AR   Ar  153   3.339   1.219   3.985
    1   AR   Ar  154   3.931   2.254   4.237
    1   AR   Ar  155   4.816   1.903   5.579
    1   AR   Ar  156   4.874   3.767   4.168
    1   AR   Ar  157   3.823   2.097   5.693
    1   AR   Ar  158   3.657   2.390   6.972
    1   AR   Ar  159   3.847   1.226   6.213
    1   AR   Ar  160   4.528   2.957   5.119
    1   AR   Ar  161   4.564   2.854  -0.313
    1   AR   Ar  162   4.478   4.862   0.703
    1   AR   Ar  163   5.016   3.536   0.620
    1   AR   Ar  164   5.614   4.747   1.009
    1   AR   Ar  165   3.322   3.853   2.673
    1   AR   Ar  166   3.491   4.781   3.523
    1   AR   Ar  167   4.592   3.289   3.264
    1   AR   Ar  168   4.088   4.001   1.118
    1   AR   Ar  169   2.928   2.739   3.192
    1   AR   Ar  170   2.795   4.522   4.415
    1   AR   Ar  171   3.592   3.664   4.686
    1   AR   Ar  172   4.030   4.584   4.357
    1   AR   Ar  173   3.539   3.144   5.972
    1   AR   Ar  174   4.048   5.306   6.044
    1   AR   Ar  175   3.685   4.138   6.383
    1   AR   Ar  176   4.061   4.382   5.365
    1   AR   Ar  177   5.266   5.996   0.317
    1   AR   Ar  178   3.866   6.547   1.244
    1   AR   Ar  179   4.162   5.233   1.555
    1   AR   Ar  180   4.149   5.611  -0.401
    1   AR   Ar  181   3.287   5.611   1.976
    1   AR   Ar  182   2.409   6.099   1.548
    1   AR   Ar  183   3.742   4.836   2.467
    1   AR   Ar  184   4.232   6.049   2.239
    1   AR   Ar  185   1.731   5.735   3.485
    1   AR   Ar  186   3.309   5.603   4.188
    1   AR   Ar  187   4.443   5.379   3.193
    1   AR   Ar  188   3.505   5.896   3.085
    1   AR   Ar  189   2.833   5.277   5.686
    1   AR   Ar  190   4.180   6.781   6.425
    1   AR   Ar  191   4.475   5.815   5.118
    1   AR   Ar  192   3.515   6.210   5.264
    1   AR   Ar  193   5.497   0.140  -0.087
    1   AR   Ar  194   4.570   0.643   0.037
    1   AR   Ar  195   5.781   1.131   0.971
    1   AR   Ar  196   6.028   1.134  -0.464
    1   AR   Ar  197   4.916   0.487   1.235
    1   AR   Ar  198   5.203   1.487   1.905
    1   AR   Ar  199   5.974   0.667   2.055
    1   AR   Ar  200   6.694   1.485   1.639
    1   AR   Ar  201   4.469   6.404   3.345
    1   AR   Ar  202   5.224   0.874   4.208
    1   AR   Ar  203   6.829   6.459   4.920
    1   AR   Ar  204   6.409   0.442   3.427
    1   AR   Ar  205   5.706   6.694   4.041
    1   AR   Ar  206   5.349   6.803   4.949
    1   AR   Ar  207   6.974   6.867   5.894
    1   AR   Ar  208   6.077   0.465   4.344
    1   AR   Ar  209   6.559   1.903  -0.826
    1   AR   Ar  210   4.967   2.783   1.545
    1   AR   Ar  211   6.038   2.282   1.108
    1   AR   Ar  212   6.808   3.751  -0.314
    1   AR   Ar  213   4.763   2.108   2.551
    1   AR   Ar  214   4.422   3.550   2.148
    1   AR   Ar  215   5.786   2.005   2.586
    1   AR   Ar  216   6.263   2.767   1.929
    1   AR   Ar  217   5.246   2.177   3.664
    1   AR   Ar  218   5.399   1.879   4.673
    1   AR   Ar  219   5.760   1.191   3.123
    1   AR   Ar  220   6.306   2.937   3.012
    1   AR   Ar  221   5.627   0.675   5.285
    1   AR   Ar  222   4.527   2.450   6.450
    1   AR   Ar  223   7.014   1.942   7.391
    1   AR   Ar  224   6.267   2.277   5.384
    1   AR   Ar  225   5.359   4.393  -0.072
    1   AR   Ar  226   4.801   4.524   2.399
    1   AR   Ar  227   6.634   3.911   1.786
    1   AR   Ar  228   6.881   4.645   0.671
    1   AR   Ar  229   6.411   3.477   0.769
    1   AR   Ar  230   4.641   4.314   3.361
    1   AR   Ar  231   0.051   2.841   3.642
    1   AR   Ar  232   5.471   3.697   1.542
    1   AR   Ar  233   5.975   2.768   4.046
    1   AR   Ar  234   5.733   4.181   4.846
    1   AR   Ar  235   6.720   3.747   4.450
    1   AR   Ar  236   6.002   3.856   3.733
    1   AR   Ar  237   5.572   2.983   4.941
    1   AR   Ar  238   4.824   4.603   6.013
    1   AR   Ar  239   5.714   3.767   8.102
    1   AR   Ar  240   6.132   3.477   5.600
    1   AR   Ar  241   6.813   0.624   0.034
    1   AR   Ar  242   4.849   6.255   1.398
    1   AR   Ar  243   6.120   4.739   2.266
    1   AR   Ar  244   6.023   7.072   0.927
    1   AR   Ar  245   5.425   5.548   2.385
    1   AR   Ar  246   5.798   6.642   2.985
    1   AR   Ar  247   5.522   3.683   2.807
    1   AR   Ar  248   5.916   6.489   2.007
    1   AR   Ar  249   6.198   5.299   3.162
    1   AR   Ar  250   4.784   5.757   4.165
    1   AR   Ar  251   5.586   5.182   4.102
    1   AR   Ar  252   6.463   5.907   3.906
    1   AR   Ar  253   5.215   5.096   5.340
    1   AR   Ar  254   5.704   5.845   6.333
    1   AR   Ar  255   6.225   4.616   5.629
    1   AR   Ar  256   5.944   5.915   4.791
    7.12000  7.12000 12.00000
Argon-slab step 715
  256
    1   AR   Ar    1   1.002   0.993  -0.528
    1   AR   Ar    2   0.410   0.594   0.801
    1   AR   Ar    3   0.769   6.538   0.516
    1   AR   Ar    4   1.378   0.578   0.358
    1   AR   Ar    5   6.967   6.634   1.436
    1   AR   Ar    6   0.503   0.384   2.891
    1   AR   Ar    7   0.207   6.659   2.409
    1   AR   Ar    8   1.106   7.031   1.453
    1   AR   Ar    9   0.320   0.195   4.145
    1   AR   Ar   10   0.304   1.447   4.690
    1   AR   Ar   11   1.442   0.140   4.271
    1   AR   Ar   12   1.043   0.934   3.647
    1   AR   Ar   13   6.915   0.533   5.181
    1   AR   Ar   14   0.366   1.451   6.184
    1   AR   Ar   15   1.615   6.385   7.247
    1   AR   Ar   16   1.059   1.066   5.358
    1   AR   Ar   17   6.826   1.612   0.156
    1   AR   Ar   18   7.103   2.514   0.346
    1   AR   Ar   19   0.670   1.801   0.697
    1   AR   Ar   20   0.633   2.524  -0.650
    1   AR   Ar   21   0.041   0.617   1.901
    1   AR   Ar   22   7.070   2.193   2.659
    1   AR   Ar   23   6.842   1.314   2.840
    1   AR   Ar   24   0.336   2.545   1.693
    1   AR   Ar   25   0.521   1.837   3.612
    1   AR   Ar   26   6.507   1.908   3.835
    1   AR   Ar   27   0.661   2.179   5.315
    1   AR   Ar   28   1.080   2.656   4.333
    1   AR   Ar   29   6.660   1.419   5.592
    1   AR   Ar   30   7.044   2.430   6.198
    1   AR   Ar   31   1.055   1.316   7.008
    1   AR   Ar   32   1.075   3.236   5.844
    1   AR   Ar   33   1.089   3.470  -0.641
    1   AR   Ar   34   0.383   5.165   1.434
    1   AR   Ar   35   0.406   3.365   1.006
    1   AR   Ar   36   1.787   5.775  -1.183
    1   AR   Ar   37   0.059   3.425   2.707
    1   AR   Ar   38   0.177   4.872   2.414
    1   AR   Ar   39   0.979   4.018   2.697
    1   AR   Ar   40   1.300   4.538   1.657
    1   AR   Ar   41   1.046   2.827   2.723
    1   AR   Ar   42   6.758   5.051   4.701
    1   AR   Ar   43   0.026   2.819   4.823
    1   AR   Ar   44   0.576   3.643   3.643
    1   AR   Ar   45   7.066   3.928   5.540
    1   AR   Ar   46   7.043   4.615   6.703
    1   AR   Ar   47   0.269   3.573   6.842
    1   AR   Ar   48   0.969   4.471   6.095
    1   AR   Ar   49   0.276   4.712  -0.317
    1   AR   Ar   50   6.177   5.615   1.355
    1   AR   Ar   51   0.728   4.277   0.456
    1   AR   Ar   52   0.919   5.411   0.289
    1   AR   Ar   53   6.782   5.836   2.305
    1   AR   Ar   54   7.051   6.800   3.407
    1   AR   Ar   55   0.309   5.809   3.164
    1   AR   Ar   56   0.938   6.065   1.536
    1   AR   Ar   57   7.020   4.281   3.292
    1   AR   Ar   58   0.492   5.621   4.229
    1   AR   Ar   59   1.629   6.269   4.737
    1   AR   Ar   60   0.849   6.469   3.791
    1   AR   Ar   61   6.675   5.864   5.949
    1   AR   Ar   62   0.651   6.175   5.249
    1   AR   Ar   63   1.593   5.602   5.699
    1   AR   Ar   64   0.842   0.037   5.297
    1   AR   Ar   65   1.741   6.479  -0.144
    1   AR   Ar   66   1.673   0.889   1.261
    1   AR   Ar   67   2.685   5.957  -0.335
    1   AR   Ar   68   3.835   1.000   0.881
    1   AR   Ar   69   2.028   7.002   0.873
    1   AR   Ar   70   1.451   0.526   2.340
    1   AR   Ar   71   2.375   6.985   2.232
    1   AR   Ar   72   2.772   0.760   1.474
    1   AR   Ar   73   1.922   6.819   3.259
    1   AR   Ar   74   1.688   1.401   4.590
    1   AR   Ar   75   2.630   0.779   4.716
    1   AR   Ar   76   2.236   0.685   3.661
    1   AR   Ar   77   1.906   0.045   5.306
    1   AR   Ar   78   1.479   0.488   6.386
    1   AR   Ar   79   2.621   7.006   6.922
    1   AR   Ar   80   2.418   0.788   6.253
    1   AR   Ar   81   2.330   1.253   0.338
    1   AR   Ar   82   1.753   3.745   1.122
    1   AR   Ar   83   2.754   1.912   1.787
    1   AR   Ar   84   1.870   2.667  -0.745
    1   AR   Ar   85   1.441   2.002   1.622
    1   AR   Ar   86   2.031   2.412   2.366
    1   AR   Ar   87   1.942   1.359   2.361
    1   AR   Ar   88   3.189   3.538   1.461
    1   AR   Ar   89   0.843   1.495   2.348
    1   AR   Ar   90   3.058   2.837   5.038
    1   AR   Ar   91   2.479   1.977   4.346
    1   AR   Ar   92   1.593   1.920   3.243
    1   AR   Ar   93   1.562   1.916   6.121
    1   AR   Ar   94   2.107   1.910   7.036
    1   AR   Ar   95   2.097   0.875   7.296
    1   AR   Ar   96   2.810   2.269   5.967
    1   AR   Ar   97   1.919   4.067  -0.590
    1   AR   Ar   98   3.131   4.513   1.500
    1   AR   Ar   99   3.035   3.212  -1.070
    1   AR   Ar  100   2.161   5.017  -0.394
    1   AR   Ar  101   1.129   3.209   1.721
    1   AR   Ar  102   2.120   4.253   3.372
    1   AR   Ar  103   2.388   3.885   2.284
    1   AR   Ar  104   2.732   3.991   0.598
    1   AR   Ar  105   1.760   3.000   3.413
    1   AR   Ar  106   2.011   3.360   4.386
    1   AR   Ar  107   3.004   4.067   5.409
    1   AR   Ar  108   3.050   3.653   3.711
    1   AR   Ar  109   0.525   4.206   4.671
    1   AR   Ar  110   1.642   3.967   5.339
    1   AR   Ar  111   3.346   5.139   6.825
    1   AR   Ar  112   2.405   3.508   6.201
    1   AR   Ar  113   2.005   4.816   0.605
    1   AR   Ar  114   1.684   5.831   0.764
    1   AR   Ar  115   3.454   5.248   0.565
    1   AR   Ar  116   2.905   7.044   0.019
    1   AR   Ar  117   1.473   4.979   2.498
    1   AR   Ar  118   1.175   6.239   2.593
    1   AR   Ar  119   2.611   4.896   2.659
    1   AR   Ar  120   2.254   5.136   1.607
    1   AR   Ar  121   0.903   4.680   3.587
    1   AR   Ar  122   2.422   6.501   4.257
    1   AR   Ar  123   2.089   5.404   4.440
    1   AR   Ar  124   2.494   6.023   2.599
    1   AR   Ar  125   1.295   4.901   4.925
    1   AR   Ar  126   1.217   6.436   6.243
    1   AR   Ar  127   2.420   5.456   7.435
    1   AR   Ar  128   2.348   6.430   5.868
    1   AR   Ar  129   2.971   6.199   0.693
    1   AR   Ar  130   3.702   0.367  -0.899
    1   AR   Ar  131   4.549   6.710   0.379
    1   AR   Ar  132   5.045   2.090  -0.878
    1   AR   Ar  133   3.857   7.010   2.752
    1   AR   Ar  134   2.850   0.711   2.775
    1   AR   Ar  135   5.093   0.442   2.965
    1   AR   Ar  136   3.900   0.510   1.734
    1   AR   Ar  137   3.016   0.117   3.608
    1   AR   Ar  138   4.082   1.191   4.757
    1   AR   Ar  139   4.237   0.234   3.914
    1   AR   Ar  140   4.752   1.309   3.423
    1   AR   Ar  141   3.483   0.202   4.647
    1   AR   Ar  142   4.077   0.306   5.624
    1   AR   Ar  143   5.178   6.805   6.109
    1   AR   Ar  144   5.098   1.339   6.604
    1   AR   Ar  145   2.705   2.446   0.457
    1   AR   Ar  146   3.929   2.855   1.040
    1   AR   Ar  147   4.989   1.825   0.487
    1   AR   Ar  148   5.981   3.024  -0.164
    1   AR   Ar  149   3.801   1.837   1.585
    1   AR   Ar  150   2.731   1.745   3.033
    1   AR   Ar  151   3.970   1.990   3.205
    1   AR   Ar  152   3.544   2.802   2.160
    1   AR   Ar  153   3.333   1.200   3.995
    1   AR   Ar  154   3.939   2.206   4.228
    1   AR   Ar  155   4.829   1.923   5.583
    1   AR   Ar  156   4.871   3.779   4.175
    1   AR   Ar  157   3.814   2.123   5.690
    1   AR   Ar  158   3.659   2.390   6.988
    1   AR   Ar  159   3.836   1.182   6.194
    1   AR   Ar  160   4.529   2.964   5.091
    1   AR   Ar  161   4.578   2.827  -0.307
    1   AR   Ar  162   4.484   4.894   0.712
    1   AR   Ar  163   5.008   3.519   0.623
    1   AR   Ar  164   5.642   4.748   0.988
    1   AR   Ar  165   3.299   3.848   2.696
    1   AR   Ar  166   3.476   4.792   3.551
    1   AR   Ar  167   4.588   3.295   3.251
    1   AR   Ar  168   4.084   4.012   1.107
    1   AR   Ar  169   2.926   2.715   3.196
    1   AR   Ar  170   2.817   4.497   4.421
    1   AR   Ar  171   3.593   3.679   4.660
    1   AR   Ar  172   4.037   4.582   4.389
    1   AR   Ar  173   3.520   3.174   5.978
    1   AR   Ar  174   4.056   5.281   6.057
    1   AR   Ar  175   3.658   4.140   6.384
    1   AR   Ar  176   4.023   4.403   5.365
    1   AR   Ar  177   5.268   5.989   0.316
    1   AR   Ar  178   3.878   6.578   1.227
    1   AR   Ar  179   4.143   5.208   1.567
    1   AR   Ar  180   4.182   5.607  -0.357
    1   AR   Ar  181   3.277   5.616   1.994
    1   AR   Ar  182   2.409   6.124   1.563
    1   AR   Ar  183   3.705   4.854   2.459
    1   AR   Ar  184   4.197   6.004   2.259
    1   AR   Ar  185   1.759   5.726   3.459
    1   AR   Ar  186   3.301   5.609   4.179
    1   AR   Ar  187   4.441   5.356   3.178
    1   AR   Ar  188   3.474   5.913   3.101
    1   AR   Ar  189   2.828   5.273   5.657
    1   AR   Ar  190   4.190   6.755   6.401
    1   AR   Ar  191   4.473   5.812   5.104
    1   AR   Ar  192   3.504   6.210   5.243
    1   AR   Ar  193   5.482   0.149  -0.101
    1   AR   Ar  194   4.561   0.619   0.020
    1   AR   Ar  195   5.799   1.140   0.963
    1   AR   Ar  196   6.027   1.129  -0.464
    1   AR   Ar  197   4.898   0.483   1.263
    1   AR   Ar  198   5.197   1.485   1.898
    1   AR   Ar  199   5.948   0.691   2.097
    1   AR   Ar  200   6.697   1.489   1.654
    1   AR   Ar  201   4.468   6.387   3.377
    1   AR   Ar  202   5.242   0.900   4.187
    1   AR   Ar  203   6.850   6.476   4.898
    1   AR   Ar  204   6.387   0.423   3.432
    1   AR   Ar  205   5.727   6.673   4.029
    1   AR   Ar  206   5.323   6.799   4.949
    1   AR   Ar  207   6.993   6.848   5.895
    1   AR   Ar  208   6.105   0.454   4.341
    1   AR   Ar  209   6.540   1.882  -0.809
    1   AR   Ar  210   4.962   2.775   1.523
    1   AR   Ar  211   6.033   2.293   1.105
    1   AR   Ar  212   6.810   3.776  -0.325
    1   AR   Ar  213   4.770   2.097   2.562
    1   AR   Ar  214   4.398   3.555   2.180
    1   AR   Ar  215   5.822   2.012   2.579
    1   AR   Ar  216   6.238   2.803   1.922
    1   AR   Ar  217   5.253   2.182   3.675
    1   AR   Ar  218   5.447   1.857   4.668
    1   AR   Ar  219   5.777   1.207   3.134
    1   AR   Ar  220   6.323   2.933   3.016
    1   AR   Ar  221   5.633   0.685   5.267
    1   AR   Ar  222   4.517   2.453   6.444
    1   AR   Ar  223   7.018   1.982   7.397
    1   AR   Ar  224   6.225   2.271   5.386
    1   AR   Ar  225   5.379   4.406  -0.048
    1   AR   Ar  226   4.775   4.542   2.399
    1   AR   Ar  227   6.655   3.919   1.798
    1   AR   Ar  228   6.888   4.623   0.679
    1   AR   Ar  229   6.421   3.488   0.731
    1   AR   Ar  230   4.650   4.298   3.356
    1   AR   Ar  231   0.059   2.846   3.631
    1   AR   Ar  232   5.460   3.701   1.554
    1   AR   Ar  233   6.005   2.745   4.029
    1   AR   Ar  234   5.738   4.156   4.870
    1   AR   Ar  235   6.705   3.760   4.464
    1   AR   Ar  236   6.007   3.870   3.707
    1   AR   Ar  237   5.553   2.969   4.935
    1   AR   Ar  238   4.830   4.586   6.024
    1   AR   Ar  239   5.723   3.776   8.086
    1   AR   Ar  240   6.144   3.484   5.614
    1   AR   Ar  241   6.840   0.621   0.050
    1   AR   Ar  242   4.873   6.245   1.435
    1   AR   Ar  243   6.126   4.736   2.283
    1   AR   Ar  244   6.033   7.046   0.875
    1   AR   Ar  245   5.413   5.551   2.377
    1   AR   Ar  246   5.794   6.645   2.989
    1   AR   Ar  247   5.530   3.700   2.823
    1   AR   Ar  248   5.893   6.490   1.945
    1   AR   Ar  249   6.177   5.261   3.197
    1   AR   Ar  250   4.767   5.771   4.157
    1   AR   Ar  251   5.592   5.178   4.063
    1   AR   Ar  252   6.493   5.934   3.876
    1   AR   Ar  253   5.214   5.115   5.359
    1   AR   Ar  254   5.703   5.850   6.366
    1   AR   Ar  255   6.193   4.598   5.630
    1   AR   Ar  256   5.943   5.913   4.789
    7.12000  7.12000 12.00000
Argon-slab step 720
  256
    1   AR   Ar    1   1.002   0.975  -0.540
    1   AR   Ar    2   0.388   0.564   0.825
    1   AR   Ar    3   0.802   6.522   0.507
    1   AR   Ar    4   1.402   0.581   0.361
    1   AR   Ar    5   6.981   6.633   1.433
    1   AR   Ar    6   0.512   0.365   2.877
    1   AR   Ar    7   0.195   6.665   2.409
    1   AR   Ar    8   1.085   7.032   1.438
    1   AR   Ar    9   0.314   0.190   4.157
    1   AR   Ar   10   0.284   1.468   4.678
    1   AR   Ar   11   1.426   0.157   4.249
    1   AR   Ar   12   1.019   0.957   3.632
    1   AR   Ar   13   6.894   0.558   5.194
    1   AR   Ar   14   0.381   1.435   6.171
    1   AR   Ar   15   1.599   6.372   7.220
    1   AR   Ar   16   1.081   1.090   5.340
    1   AR   Ar   17   6.824   1.620   0.115
    1   AR   Ar   18   7.093   2.534   0.352
    1   AR   Ar   19   0.656   1.781   0.682
    1   AR   Ar   20   0.606   2.546  -0.626
    1   AR   Ar   21   0.004   0.593   1.895
    1   AR   Ar   22   7.077   2.234   2.662
    1   AR   Ar   23   6.854   1.308   2.831
    1   AR   Ar   24   0.319   2.562   1.675
    1   AR   Ar   25   0.504   1.841   3.588
    1   AR   Ar   26   6.500   1.886   3.823
    1   AR   Ar   27   0.666   2.183   5.322
    1   AR   Ar   28   1.083   2.657   4.340
    1   AR   Ar   29   6.676   1.410   5.601
    1   AR   Ar   30   7.036   2.409   6.211
    1   AR   Ar   31   1.070   1.334   6.981
    1   AR   Ar   32   1.091   3.176   5.820
    1   AR   Ar   33   1.056   3.488  -0.628
    1   AR   Ar   34   0.400   5.165   1.404
    1   AR   Ar   35   0.425   3.358   0.984
    1   AR   Ar   36   1.773   5.809  -1.189
    1   AR   Ar   37   0.088   3.434   2.698
    1   AR   Ar   38   0.112   4.859   2.423
    1   AR   Ar   39   0.995   4.003   2.713
    1   AR   Ar   40   1.321   4.534   1.650
    1   AR   Ar   41   1.041   2.816   2.744
    1   AR   Ar   42   6.741   5.070   4.704
    1   AR   Ar   43   7.112   2.852   4.769
    1   AR   Ar   44   0.597   3.646   3.615
    1   AR   Ar   45   7.100   3.917   5.535
    1   AR   Ar   46   7.021   4.578   6.713
    1   AR   Ar   47   0.268   3.581   6.859
    1   AR   Ar   48   0.962   4.490   6.100
    1   AR   Ar   49   0.257   4.712  -0.322
    1   AR   Ar   50   6.187   5.634   1.343
    1   AR   Ar   51   0.740   4.288   0.484
    1   AR   Ar   52   0.926   5.415   0.273
    1   AR   Ar   53   6.775   5.829   2.315
    1   AR   Ar   54   7.068   6.809   3.409
    1   AR   Ar   55   0.331   5.809   3.185
    1   AR   Ar   56   0.929   6.026   1.525
    1   AR   Ar   57   7.003   4.262   3.253
    1   AR   Ar   58   0.546   5.615   4.262
    1   AR   Ar   59   1.611   6.263   4.743
    1   AR   Ar   60   0.853   6.478   3.776
    1   AR   Ar   61   6.685   5.873   5.953
    1   AR   Ar   62   0.638   6.194   5.225
    1   AR   Ar   63   1.576   5.627   5.710
    1   AR   Ar   64   0.868   0.041   5.288
    1   AR   Ar   65   1.764   6.429  -0.116
    1   AR   Ar   66   1.667   0.886   1.294
    1   AR   Ar   67   2.713   5.969  -0.324
    1   AR   Ar   68   3.857   0.983   0.861
    1   AR   Ar   69   2.052   7.013   0.871
    1   AR   Ar   70   1.457   0.505   2.337
    1   AR   Ar   71   2.388   6.976   2.258
    1   AR   Ar   72   2.779   0.770   1.459
    1   AR   Ar   73   1.906   6.821   3.255
    1   AR   Ar   74   1.673   1.417   4.602
    1   AR   Ar   75   2.636   0.763   4.716
    1   AR   Ar   76   2.248   0.701   3.644
    1   AR   Ar   77   1.915   0.058   5.311
    1   AR   Ar   78   1.506   0.492   6.408
    1   AR   Ar   79   2.600   6.990   6.918
    1   AR   Ar   80   2.501   0.754   6.222
    1   AR   Ar   81   2.309   1.247   0.364
    1   AR   Ar   82   1.757   3.741   1.080
    1   AR   Ar   83   2.757   1.899   1.789
    1   AR   Ar   84   1.889   2.638  -0.728
    1   AR   Ar   85   1.439   1.998   1.613
    1   AR   Ar   86   2.033   2.396   2.355
    1   AR   Ar   87   1.920   1.371   2.371
    1   AR   Ar   88   3.177   3.514   1.468
    1   AR   Ar   89   0.821   1.468   2.335
    1   AR   Ar   90   3.042   2.803   5.057
    1   AR   Ar   91   2.465   1.973   4.316
    1   AR   Ar   92   1.592   1.911   3.245
    1   AR   Ar   93   1.594   1.916   6.150
    1   AR   Ar   94   2.125   1.884   7.089
    1   AR   Ar   95   2.102   0.849   7.304
    1   AR   Ar   96   2.766   2.247   6.021
    1   AR   Ar   97   1.917   4.045  -0.630
    1   AR   Ar   98   3.116   4.513   1.496
    1   AR   Ar   99   3.048   3.187  -1.086
    1   AR   Ar  100   2.151   5.004  -0.369
    1   AR   Ar  101   1.104   3.233   1.713
    1   AR   Ar  102   2.109   4.227   3.384
    1   AR   Ar  103   2.400   3.877   2.276
    1   AR   Ar  104   2.753   3.981   0.599
    1   AR   Ar  105   1.761   3.007   3.411
    1   AR   Ar  106   2.031   3.344   4.399
    1   AR   Ar  107   2.988   4.097   5.434
    1   AR   Ar  108   3.040   3.659   3.665
    1   AR   Ar  109   0.521   4.219   4.678
    1   AR   Ar  110   1.666   3.974   5.374
    1   AR   Ar  111   3.374   5.165   6.856
    1   AR   Ar  112   2.421   3.494   6.184
    1   AR   Ar  113   2.018   4.785   0.637
    1   AR   Ar  114   1.695   5.837   0.784
    1   AR   Ar  115   3.437   5.244   0.588
    1   AR   Ar  116   2.912   7.065   0.039
    1   AR   Ar  117   1.458   5.011   2.526
    1   AR   Ar  118   1.156   6.273   2.586
    1   AR   Ar  119   2.601   4.915   2.658
    1   AR   Ar  120   2.287   5.163   1.634
    1   AR   Ar  121   0.915   4.708   3.597
    1   AR   Ar  122   2.442   6.491   4.292
    1   AR   Ar  123   2.102   5.410   4.440
    1   AR   Ar  124   2.514   5.988   2.593
    1   AR   Ar  125   1.272   4.954   4.907
    1   AR   Ar  126   1.191   6.445   6.210
    1   AR   Ar  127   2.455   5.439   7.412
    1   AR   Ar  128   2.333   6.445   5.876
    1   AR   Ar  129   2.975   6.173   0.712
    1   AR   Ar  130   3.669   0.330  -0.872
    1   AR   Ar  131   4.547   6.718   0.363
    1   AR   Ar  132   5.085   2.105  -0.868
    1   AR   Ar  133   3.850   6.980   2.751
    1   AR   Ar  134   2.843   0.707   2.771
    1   AR   Ar  135   5.096   0.440   2.931
    1   AR   Ar  136   3.912   0.517   1.747
    1   AR   Ar  137   3.040   0.150   3.646
    1   AR   Ar  138   4.089   1.214   4.777
    1   AR   Ar  139   4.256   0.250   3.901
    1   AR   Ar  140   4.785   1.359   3.410
    1   AR   Ar  141   3.444   0.199   4.632
    1   AR   Ar  142   4.055   0.291   5.616
    1   AR   Ar  143   5.186   6.837   6.079
    1   AR   Ar  144   5.081   1.317   6.640
    1   AR   Ar  145   2.699   2.435   0.476
    1   AR   Ar  146   3.919   2.869   1.066
    1   AR   Ar  147   5.030   1.821   0.469
    1   AR   Ar  148   5.996   3.026  -0.139
    1   AR   Ar  149   3.792   1.872   1.547
    1   AR   Ar  150   2.733   1.737   3.046
    1   AR   Ar  151   3.966   2.013   3.213
    1   AR   Ar  152   3.549   2.775   2.155
    1   AR   Ar  153   3.327   1.181   4.001
    1   AR   Ar  154   3.946   2.159   4.224
    1   AR   Ar  155   4.838   1.937   5.584
    1   AR   Ar  156   4.887   3.796   4.192
    1   AR   Ar  157   3.802   2.152   5.682
    1   AR   Ar  158   3.654   2.390   7.006
    1   AR   Ar  159   3.826   1.138   6.177
    1   AR   Ar  160   4.523   2.969   5.063
    1   AR   Ar  161   4.591   2.809  -0.287
    1   AR   Ar  162   4.499   4.924   0.706
    1   AR   Ar  163   4.998   3.501   0.622
    1   AR   Ar  164   5.669   4.746   0.967
    1   AR   Ar  165   3.316   3.830   2.700
    1   AR   Ar  166   3.458   4.801   3.571
    1   AR   Ar  167   4.582   3.292   3.236
    1   AR   Ar  168   4.080   4.021   1.098
    1   AR   Ar  169   2.925   2.699   3.200
    1   AR   Ar  170   2.839   4.473   4.426
    1   AR   Ar  171   3.598   3.688   4.630
    1   AR   Ar  172   4.049   4.586   4.412
    1   AR   Ar  173   3.502   3.202   5.983
    1   AR   Ar  174   4.062   5.260   6.065
    1   AR   Ar  175   3.635   4.149   6.363
    1   AR   Ar  176   3.984   4.422   5.373
    1   AR   Ar  177   5.274   5.978   0.316
    1   AR   Ar  178   3.887   6.608   1.211
    1   AR   Ar  179   4.123   5.185   1.587
    1   AR   Ar  180   4.215   5.603  -0.311
    1   AR   Ar  181   3.256   5.627   2.005
    1   AR   Ar  182   2.404   6.164   1.582
    1   AR   Ar  183   3.673   4.864   2.460
    1   AR   Ar  184   4.167   5.963   2.284
    1   AR   Ar  185   1.785   5.716   3.431
    1   AR   Ar  186   3.292   5.617   4.173
    1   AR   Ar  187   4.440   5.330   3.161
    1   AR   Ar  188   3.442   5.930   3.117
    1   AR   Ar  189   2.823   5.268   5.626
    1   AR   Ar  190   4.183   6.740   6.409
    1   AR   Ar  191   4.469   5.811   5.100
    1   AR   Ar  192   3.507   6.190   5.233
    1   AR   Ar  193   5.472   0.157  -0.114
    1   AR   Ar  194   4.547   0.599   0.004
    1   AR   Ar  195   5.809   1.154   0.973
    1   AR   Ar  196   5.992   1.106  -0.457
    1   AR   Ar  197   4.881   0.479   1.290
    1   AR   Ar  198   5.193   1.476   1.883
    1   AR   Ar  199   5.923   0.715   2.140
    1   AR   Ar  200   6.699   1.502   1.671
    1   AR   Ar  201   4.486   6.367   3.370
    1   AR   Ar  202   5.253   0.926   4.171
    1   AR   Ar  203   6.868   6.496   4.870
    1   AR   Ar  204   6.367   0.406   3.418
    1   AR   Ar  205   5.746   6.647   4.011
    1   AR   Ar  206   5.293   6.796   4.955
    1   AR   Ar  207   7.015   6.833   5.896
    1   AR   Ar  208   6.096   0.450   4.340
    1   AR   Ar  209   6.527   1.874  -0.799
    1   AR   Ar  210   4.956   2.762   1.502
    1   AR   Ar  211   6.029   2.334   1.082
    1   AR   Ar  212   6.813   3.800  -0.334
    1   AR   Ar  213   4.774   2.094   2.577
    1   AR   Ar  214   4.372   3.559   2.211
    1   AR   Ar  215   5.865   2.032   2.567
    1   AR   Ar  216   6.217   2.846   1.924
    1   AR   Ar  217   5.255   2.187   3.681
    1   AR   Ar  218   5.496   1.835   4.665
    1   AR   Ar  219   5.781   1.197   3.121
    1   AR   Ar  220   6.335   2.927   3.020
    1   AR   Ar  221   5.638   0.698   5.251
    1   AR   Ar  222   4.511   2.458   6.437
    1   AR   Ar  223   7.027   2.028   7.408
    1   AR   Ar  224   6.179   2.277   5.385
    1   AR   Ar  225   5.386   4.413  -0.038
    1   AR   Ar  226   4.771   4.537   2.377
    1   AR   Ar  227   6.676   3.926   1.810
    1   AR   Ar  228   6.891   4.601   0.689
    1   AR   Ar  229   6.432   3.499   0.695
    1   AR   Ar  230   4.656   4.291   3.354
    1   AR   Ar  231   0.056   2.832   3.623
    1   AR   Ar  232   5.452   3.710   1.570
    1   AR   Ar  233   6.039   2.735   4.015
    1   AR   Ar  234   5.737   4.127   4.882
    1   AR   Ar  235   6.699   3.755   4.488
    1   AR   Ar  236   6.012   3.885   3.684
    1   AR   Ar  237   5.532   2.956   4.926
    1   AR   Ar  238   4.834   4.559   6.052
    1   AR   Ar  239   5.732   3.786   8.069
    1   AR   Ar  240   6.155   3.489   5.632
    1   AR   Ar  241   6.863   0.608   0.062
    1   AR   Ar  242   4.901   6.235   1.471
    1   AR   Ar  243   6.132   4.730   2.298
    1   AR   Ar  244   6.043   7.022   0.824
    1   AR   Ar  245   5.400   5.558   2.371
    1   AR   Ar  246   5.797   6.642   2.988
    1   AR   Ar  247   5.534   3.718   2.831
    1   AR   Ar  248   5.871   6.492   1.879
    1   AR   Ar  249   6.157   5.219   3.225
    1   AR   Ar  250   4.741   5.767   4.152
    1   AR   Ar  251   5.601   5.168   4.027
    1   AR   Ar  252   6.529   5.965   3.850
    1   AR   Ar  253   5.228   5.149   5.355
    1   AR   Ar  254   5.699   5.854   6.399
    1   AR   Ar  255   6.165   4.587   5.640
    1   AR   Ar  256   5.937   5.911   4.778
    7.12000  7.12000 12.00000
Argon-slab step 725
  256
    1   AR   Ar    1   1.000   0.958  -0.552
    1   AR   Ar    2   0.371   0.533   0.856
    1   AR   Ar    3   0.837   6.506   0.500
    1   AR   Ar    4   1.423   0.580   0.359
    1   AR   Ar    5   6.994   6.631   1.425
    1   AR   Ar    6   0.526   0.358   2.865
    1   AR   Ar    7   0.186   6.671   2.405
    1   AR   Ar    8   1.065   7.040   1.425
    1   AR   Ar    9   0.311   0.196   4.182
    1   AR   Ar   10   0.261   1.486   4.661
    1   AR   Ar   11   1.413   0.174   4.229
    1   AR   Ar   12   1.000   0.977   3.618
    1   AR   Ar   13   6.878   0.568   5.198
    1   AR   Ar   14   0.404   1.417   6.160
    1   AR   Ar   15   1.580   6.366   7.200
    1   AR   Ar   16   1.097   1.111   5.330
    1   AR   Ar   17   6.820   1.619   0.083
    1   AR   Ar   18   7.084   2.569   0.361
    1   AR   Ar   19   0.643   1.760   0.669
    1   AR   Ar   20   0.576   2.564  -0.600
    1   AR   Ar   21   7.091   0.564   1.891
    1   AR   Ar   22   7.088   2.291   2.661
    1   AR   Ar   23   6.862   1.283   2.824
    1   AR   Ar   24   0.298   2.574   1.658
    1   AR   Ar   25   0.484   1.850   3.563
    1   AR   Ar   26   6.497   1.854   3.807
    1   AR   Ar   27   0.674   2.188   5.335
    1   AR   Ar   28   1.082   2.662   4.352
    1   AR   Ar   29   6.684   1.410   5.613
    1   AR   Ar   30   7.027   2.389   6.223
    1   AR   Ar   31   1.086   1.352   6.955
    1   AR   Ar   32   1.106   3.116   5.796
    1   AR   Ar   33   1.050   3.489  -0.583
    1   AR   Ar   34   0.414   5.160   1.372
    1   AR   Ar   35   0.438   3.354   0.954
    1   AR   Ar   36   1.759   5.842  -1.193
    1   AR   Ar   37   0.118   3.437   2.680
    1   AR   Ar   38   0.050   4.846   2.431
    1   AR   Ar   39   0.993   3.980   2.685
    1   AR   Ar   40   1.339   4.528   1.636
    1   AR   Ar   41   1.028   2.801   2.731
    1   AR   Ar   42   6.723   5.090   4.705
    1   AR   Ar   43   7.079   2.880   4.716
    1   AR   Ar   44   0.632   3.654   3.595
    1   AR   Ar   45   0.017   3.907   5.533
    1   AR   Ar   46   6.998   4.543   6.720
    1   AR   Ar   47   0.269   3.586   6.874
    1   AR   Ar   48   0.954   4.509   6.104
    1   AR   Ar   49   0.238   4.716  -0.331
    1   AR   Ar   50   6.199   5.652   1.331
    1   AR   Ar   51   0.759   4.297   0.516
    1   AR   Ar   52   0.928   5.414   0.256
    1   AR   Ar   53   6.761   5.815   2.322
    1   AR   Ar   54   7.075   6.803   3.404
    1   AR   Ar   55   0.351   5.805   3.203
    1   AR   Ar   56   0.920   5.987   1.517
    1   AR   Ar   57   6.977   4.252   3.218
    1   AR   Ar   58   0.599   5.605   4.297
    1   AR   Ar   59   1.576   6.258   4.757
    1   AR   Ar   60   0.868   6.489   3.762
    1   AR   Ar   61   6.696   5.876   5.955
    1   AR   Ar   62   0.629   6.201   5.204
    1   AR   Ar   63   1.561   5.649   5.718
    1   AR   Ar   64   0.891   0.051   5.279
    1   AR   Ar   65   1.787   6.380  -0.088
    1   AR   Ar   66   1.662   0.887   1.334
    1   AR   Ar   67   2.742   5.980  -0.313
    1   AR   Ar   68   3.880   0.969   0.833
    1   AR   Ar   69   2.078   7.021   0.869
    1   AR   Ar   70   1.458   0.472   2.333
    1   AR   Ar   71   2.400   6.972   2.283
    1   AR   Ar   72   2.787   0.780   1.446
    1   AR   Ar   73   1.887   6.821   3.250
    1   AR   Ar   74   1.656   1.432   4.607
    1   AR   Ar   75   2.619   0.756   4.703
    1   AR   Ar   76   2.242   0.730   3.630
    1   AR   Ar   77   1.925   0.077   5.313
    1   AR   Ar   78   1.530   0.494   6.427
    1   AR   Ar   79   2.576   6.974   6.913
    1   AR   Ar   80   2.586   0.722   6.189
    1   AR   Ar   81   2.269   1.225   0.337
    1   AR   Ar   82   1.765   3.739   1.036
    1   AR   Ar   83   2.758   1.883   1.790
    1   AR   Ar   84   1.907   2.611  -0.711
    1   AR   Ar   85   1.433   1.993   1.599
    1   AR   Ar   86   2.024   2.410   2.386
    1   AR   Ar   87   1.906   1.387   2.379
    1   AR   Ar   88   3.196   3.502   1.482
    1   AR   Ar   89   0.796   1.440   2.323
    1   AR   Ar   90   3.026   2.769   5.075
    1   AR   Ar   91   2.459   1.973   4.282
    1   AR   Ar   92   1.590   1.902   3.249
    1   AR   Ar   93   1.625   1.916   6.177
    1   AR   Ar   94   2.131   1.875   7.111
    1   AR   Ar   95   2.107   0.819   7.311
    1   AR   Ar   96   2.721   2.225   6.076
    1   AR   Ar   97   1.918   4.020  -0.672
    1   AR   Ar   98   3.104   4.522   1.494
    1   AR   Ar   99   3.061   3.162  -1.101
    1   AR   Ar  100   2.143   4.998  -0.346
    1   AR   Ar  101   1.087   3.258   1.715
    1   AR   Ar  102   2.096   4.201   3.395
    1   AR   Ar  103   2.380   3.871   2.258
    1   AR   Ar  104   2.775   3.972   0.599
    1   AR   Ar  105   1.767   3.030   3.427
    1   AR   Ar  106   2.052   3.329   4.413
    1   AR   Ar  107   2.968   4.125   5.460
    1   AR   Ar  108   3.050   3.657   3.652
    1   AR   Ar  109   0.518   4.232   4.682
    1   AR   Ar  110   1.691   3.982   5.406
    1   AR   Ar  111   3.401   5.190   6.887
    1   AR   Ar  112   2.437   3.480   6.166
    1   AR   Ar  113   2.028   4.754   0.674
    1   AR   Ar  114   1.698   5.816   0.805
    1   AR   Ar  115   3.421   5.236   0.612
    1   AR   Ar  116   2.918   7.086   0.059
    1   AR   Ar  117   1.446   5.047   2.562
    1   AR   Ar  118   1.150   6.245   2.586
    1   AR   Ar  119   2.591   4.933   2.659
    1   AR   Ar  120   2.317   5.185   1.662
    1   AR   Ar  121   0.928   4.738   3.607
    1   AR   Ar  122   2.475   6.487   4.318
    1   AR   Ar  123   2.122   5.406   4.439
    1   AR   Ar  124   2.525   5.953   2.597
    1   AR   Ar  125   1.247   5.007   4.890
    1   AR   Ar  126   1.163   6.460   6.176
    1   AR   Ar  127   2.482   5.483   7.389
    1   AR   Ar  128   2.320   6.455   5.888
    1   AR   Ar  129   2.978   6.150   0.730
    1   AR   Ar  130   3.636   0.292  -0.843
    1   AR   Ar  131   4.544   6.715   0.361
    1   AR   Ar  132   5.127   2.117  -0.859
    1   AR   Ar  133   3.842   6.951   2.750
    1   AR   Ar  134   2.838   0.704   2.762
    1   AR   Ar  135   5.110   0.425   2.912
    1   AR   Ar  136   3.921   0.519   1.769
    1   AR   Ar  137   3.077   0.170   3.683
    1   AR   Ar  138   4.097   1.235   4.798
    1   AR   Ar  139   4.276   0.268   3.886
    1   AR   Ar  140   4.804   1.403   3.388
    1   AR   Ar  141   3.416   0.189   4.618
    1   AR   Ar  142   4.035   0.275   5.601
    1   AR   Ar  143   5.196   6.868   6.047
    1   AR   Ar  144   5.064   1.296   6.675
    1   AR   Ar  145   2.685   2.420   0.470
    1   AR   Ar  146   3.918   2.888   1.103
    1   AR   Ar  147   5.072   1.816   0.453
    1   AR   Ar  148   6.009   3.026  -0.116
    1   AR   Ar  149   3.766   1.874   1.520
    1   AR   Ar  150   2.734   1.720   3.058
    1   AR   Ar  151   3.955   2.036   3.216
    1   AR   Ar  152   3.555   2.747   2.153
    1   AR   Ar  153   3.320   1.163   4.003
    1   AR   Ar  154   3.954   2.114   4.226
    1   AR   Ar  155   4.817   1.940   5.583
    1   AR   Ar  156   4.906   3.808   4.219
    1   AR   Ar  157   3.788   2.181   5.673
    1   AR   Ar  158   3.644   2.390   7.023
    1   AR   Ar  159   3.815   1.098   6.162
    1   AR   Ar  160   4.509   2.975   5.036
    1   AR   Ar  161   4.601   2.804  -0.250
    1   AR   Ar  162   4.521   4.954   0.690
    1   AR   Ar  163   4.988   3.483   0.620
    1   AR   Ar  164   5.696   4.743   0.948
    1   AR   Ar  165   3.342   3.813   2.701
    1   AR   Ar  166   3.440   4.805   3.582
    1   AR   Ar  167   4.576   3.279   3.221
    1   AR   Ar  168   4.083   4.038   1.103
    1   AR   Ar  169   2.925   2.692   3.204
    1   AR   Ar  170   2.803   4.485   4.426
    1   AR   Ar  171   3.602   3.692   4.600
    1   AR   Ar  172   4.067   4.597   4.423
    1   AR   Ar  173   3.483   3.224   5.985
    1   AR   Ar  174   4.066   5.243   6.070
    1   AR   Ar  175   3.613   4.163   6.345
    1   AR   Ar  176   3.948   4.440   5.392
    1   AR   Ar  177   5.283   5.963   0.318
    1   AR   Ar  178   3.895   6.639   1.198
    1   AR   Ar  179   4.102   5.161   1.608
    1   AR   Ar  180   4.248   5.599  -0.262
    1   AR   Ar  181   3.240   5.642   2.034
    1   AR   Ar  182   2.396   6.211   1.597
    1   AR   Ar  183   3.646   4.862   2.471
    1   AR   Ar  184   4.174   5.892   2.283
    1   AR   Ar  185   1.807   5.711   3.418
    1   AR   Ar  186   3.283   5.629   4.172
    1   AR   Ar  187   4.438   5.303   3.143
    1   AR   Ar  188   3.413   5.945   3.132
    1   AR   Ar  189   2.819   5.264   5.595
    1   AR   Ar  190   4.163   6.732   6.439
    1   AR   Ar  191   4.463   5.810   5.106
    1   AR   Ar  192   3.506   6.173   5.207
    1   AR   Ar  193   5.466   0.171  -0.125
    1   AR   Ar  194   4.529   0.584  -0.011
    1   AR   Ar  195   5.807   1.175   1.003
    1   AR   Ar  196   5.951   1.076  -0.446
    1   AR   Ar  197   4.867   0.474   1.315
    1   AR   Ar  198   5.191   1.464   1.862
    1   AR   Ar  199   5.901   0.737   2.182
    1   AR   Ar  200   6.698   1.522   1.688
    1   AR   Ar  201   4.505   6.352   3.358
    1   AR   Ar  202   5.257   0.951   4.158
    1   AR   Ar  203   6.878   6.519   4.837
    1   AR   Ar  204   6.349   0.391   3.387
    1   AR   Ar  205   5.763   6.621   3.994
    1   AR   Ar  206   5.261   6.794   4.963
    1   AR   Ar  207   7.041   6.825   5.897
    1   AR   Ar  208   6.064   0.449   4.344
    1   AR   Ar  209   6.516   1.878  -0.802
    1   AR   Ar  210   4.949   2.747   1.482
    1   AR   Ar  211   6.023   2.369   1.050
    1   AR   Ar  212   6.815   3.822  -0.341
    1   AR   Ar  213   4.779   2.097   2.593
    1   AR   Ar  214   4.345   3.562   2.238
    1   AR   Ar  215   5.911   2.056   2.552
    1   AR   Ar  216   6.198   2.895   1.932
    1   AR   Ar  217   5.257   2.197   3.685
    1   AR   Ar  218   5.547   1.814   4.662
    1   AR   Ar  219   5.778   1.174   3.094
    1   AR   Ar  220   6.340   2.923   3.022
    1   AR   Ar  221   5.642   0.712   5.238
    1   AR   Ar  222   4.509   2.465   6.430
    1   AR   Ar  223   7.023   2.042   7.417
    1   AR   Ar  224   6.134   2.287   5.384
    1   AR   Ar  225   5.373   4.410  -0.047
    1   AR   Ar  226   4.770   4.536   2.348
    1   AR   Ar  227   6.698   3.931   1.821
    1   AR   Ar  228   6.897   4.590   0.694
    1   AR   Ar  229   6.444   3.511   0.663
    1   AR   Ar  230   4.658   4.294   3.352
    1   AR   Ar  231   0.048   2.806   3.619
    1   AR   Ar  232   5.448   3.721   1.590
    1   AR   Ar  233   6.075   2.740   4.007
    1   AR   Ar  234   5.729   4.095   4.883
    1   AR   Ar  235   6.687   3.751   4.519
    1   AR   Ar  236   6.019   3.903   3.669
    1   AR   Ar  237   5.514   2.945   4.915
    1   AR   Ar  238   4.838   4.521   6.087
    1   AR   Ar  239   5.741   3.795   8.053
    1   AR   Ar  240   6.165   3.490   5.650
    1   AR   Ar  241   6.881   0.588   0.067
    1   AR   Ar  242   4.927   6.223   1.506
    1   AR   Ar  243   6.137   4.723   2.309
    1   AR   Ar  244   6.053   6.998   0.774
    1   AR   Ar  245   5.387   5.566   2.366
    1   AR   Ar  246   5.800   6.642   2.979
    1   AR   Ar  247   5.532   3.735   2.828
    1   AR   Ar  248   5.852   6.497   1.816
    1   AR   Ar  249   6.145   5.176   3.241
    1   AR   Ar  250   4.715   5.755   4.144
    1   AR   Ar  251   5.604   5.155   4.004
    1   AR   Ar  252   6.570   5.997   3.826
    1   AR   Ar  253   5.251   5.187   5.343
    1   AR   Ar  254   5.692   5.857   6.430
    1   AR   Ar  255   6.144   4.584   5.659
    1   AR   Ar  256   5.938   5.911   4.771
    7.12000  7.12000 12.00000
Argon-slab step 730
  256
    1   AR   Ar    1   0.996   0.942  -0.564
    1   AR   Ar    2   0.360   0.502   0.895
    1   AR   Ar    3   0.871   6.491   0.492
    1   AR   Ar    4   1.441   0.576   0.357
    1   AR   Ar    5   7.006   6.629   1.413
    1   AR   Ar    6   0.543   0.362   2.856
    1   AR   Ar    7   0.177   6.673   2.397
    1   AR   Ar    8   1.045   7.050   1.413
    1   AR   Ar    9   0.310   0.209   4.217
    1   AR   Ar   10   0.237   1.501   4.641
    1   AR   Ar   11   1.403   0.191   4.212
    1   AR   Ar   12   0.984   0.992   3.604
    1   AR   Ar   13   6.867   0.561   5.192
    1   AR   Ar   14   0.446   1.434   6.177
    1   AR   Ar   15   1.561   6.364   7.182
    1   AR   Ar   16   1.105   1.129   5.333
    1   AR   Ar   17   6.825   1.615   0.082
    1   AR   Ar   18   7.073   2.610   0.371
    1   AR   Ar   19   0.632   1.737   0.658
    1   AR   Ar   20   0.543   2.577  -0.578
    1   AR   Ar   21   7.058   0.532   1.889
    1   AR   Ar   22   7.102   2.349   2.658
    1   AR   Ar   23   6.870   1.254   2.817
    1   AR   Ar   24   0.307   2.583   1.633
    1   AR   Ar   25   0.463   1.862   3.537
    1   AR   Ar   26   6.498   1.813   3.788
    1   AR   Ar   27   0.682   2.195   5.349
    1   AR   Ar   28   1.079   2.669   4.368
    1   AR   Ar   29   6.683   1.425   5.627
    1   AR   Ar   30   7.040   2.386   6.220
    1   AR   Ar   31   1.106   1.370   6.932
    1   AR   Ar   32   1.120   3.055   5.772
    1   AR   Ar   33   1.048   3.487  -0.529
    1   AR   Ar   34   0.422   5.144   1.338
    1   AR   Ar   35   0.444   3.348   0.928
    1   AR   Ar   36   1.747   5.876  -1.194
    1   AR   Ar   37   0.144   3.430   2.655
    1   AR   Ar   38   7.116   4.835   2.434
    1   AR   Ar   39   0.997   3.962   2.653
    1   AR   Ar   40   1.356   4.520   1.619
    1   AR   Ar   41   1.024   2.790   2.712
    1   AR   Ar   42   6.704   5.109   4.707
    1   AR   Ar   43   7.051   2.894   4.667
    1   AR   Ar   44   0.645   3.664   3.597
    1   AR   Ar   45   0.055   3.897   5.535
    1   AR   Ar   46   6.974   4.511   6.725
    1   AR   Ar   47   0.306   3.618   6.882
    1   AR   Ar   48   0.944   4.527   6.107
    1   AR   Ar   49   0.221   4.723  -0.340
    1   AR   Ar   50   6.212   5.666   1.318
    1   AR   Ar   51   0.785   4.305   0.550
    1   AR   Ar   52   0.927   5.411   0.237
    1   AR   Ar   53   6.740   5.798   2.329
    1   AR   Ar   54   7.077   6.791   3.395
    1   AR   Ar   55   0.369   5.793   3.217
    1   AR   Ar   56   0.916   5.969   1.513
    1   AR   Ar   57   6.946   4.244   3.193
    1   AR   Ar   58   0.592   5.637   4.332
    1   AR   Ar   59   1.537   6.255   4.772
    1   AR   Ar   60   0.892   6.503   3.749
    1   AR   Ar   61   6.704   5.871   5.954
    1   AR   Ar   62   0.624   6.196   5.189
    1   AR   Ar   63   1.549   5.665   5.722
    1   AR   Ar   64   0.911   0.068   5.270
    1   AR   Ar   65   1.808   6.333  -0.060
    1   AR   Ar   66   1.658   0.889   1.377
    1   AR   Ar   67   2.773   5.989  -0.304
    1   AR   Ar   68   3.902   0.956   0.801
    1   AR   Ar   69   2.104   7.027   0.868
    1   AR   Ar   70   1.457   0.432   2.330
    1   AR   Ar   71   2.411   6.974   2.309
    1   AR   Ar   72   2.794   0.789   1.433
    1   AR   Ar   73   1.863   6.819   3.244
    1   AR   Ar   74   1.643   1.447   4.601
    1   AR   Ar   75   2.590   0.755   4.691
    1   AR   Ar   76   2.227   0.765   3.618
    1   AR   Ar   77   1.936   0.101   5.311
    1   AR   Ar   78   1.552   0.494   6.444
    1   AR   Ar   79   2.557   6.960   6.908
    1   AR   Ar   80   2.672   0.690   6.156
    1   AR   Ar   81   2.230   1.240   0.327
    1   AR   Ar   82   1.774   3.736   0.990
    1   AR   Ar   83   2.757   1.867   1.793
    1   AR   Ar   84   1.913   2.621  -0.689
    1   AR   Ar   85   1.425   1.988   1.582
    1   AR   Ar   86   2.018   2.431   2.420
    1   AR   Ar   87   1.896   1.401   2.387
    1   AR   Ar   88   3.231   3.502   1.502
    1   AR   Ar   89   0.770   1.412   2.314
    1   AR   Ar   90   3.009   2.732   5.088
    1   AR   Ar   91   2.458   1.976   4.245
    1   AR   Ar   92   1.586   1.893   3.257
    1   AR   Ar   93   1.652   1.914   6.200
    1   AR   Ar   94   2.129   1.877   7.113
    1   AR   Ar   95   2.111   0.789   7.317
    1   AR   Ar   96   2.677   2.204   6.132
    1   AR   Ar   97   1.924   3.994  -0.713
    1   AR   Ar   98   3.094   4.536   1.494
    1   AR   Ar   99   3.073   3.137  -1.115
    1   AR   Ar  100   2.134   4.997  -0.325
    1   AR   Ar  101   1.098   3.266   1.700
    1   AR   Ar  102   2.083   4.174   3.406
    1   AR   Ar  103   2.358   3.866   2.237
    1   AR   Ar  104   2.797   3.963   0.597
    1   AR   Ar  105   1.775   3.053   3.444
    1   AR   Ar  106   2.074   3.315   4.430
    1   AR   Ar  107   2.943   4.151   5.485
    1   AR   Ar  108   3.057   3.656   3.647
    1   AR   Ar  109   0.519   4.247   4.681
    1   AR   Ar  110   1.718   3.991   5.438
    1   AR   Ar  111   3.426   5.215   6.919
    1   AR   Ar  112   2.451   3.465   6.147
    1   AR   Ar  113   2.036   4.724   0.714
    1   AR   Ar  114   1.708   5.797   0.831
    1   AR   Ar  115   3.407   5.222   0.636
    1   AR   Ar  116   2.923   7.106   0.080
    1   AR   Ar  117   1.470   5.020   2.539
    1   AR   Ar  118   1.147   6.218   2.587
    1   AR   Ar  119   2.581   4.943   2.663
    1   AR   Ar  120   2.326   5.189   1.696
    1   AR   Ar  121   0.940   4.769   3.616
    1   AR   Ar  122   2.513   6.485   4.342
    1   AR   Ar  123   2.146   5.372   4.439
    1   AR   Ar  124   2.518   5.927   2.613
    1   AR   Ar  125   1.222   5.059   4.875
    1   AR   Ar  126   1.132   6.483   6.142
    1   AR   Ar  127   2.507   5.529   7.367
    1   AR   Ar  128   2.309   6.460   5.903
    1   AR   Ar  129   2.979   6.133   0.748
    1   AR   Ar  130   3.604   0.254  -0.811
    1   AR   Ar  131   4.540   6.693   0.380
    1   AR   Ar  132   5.173   2.127  -0.849
    1   AR   Ar  133   3.832   6.922   2.747
    1   AR   Ar  134   2.835   0.701   2.748
    1   AR   Ar  135   5.127   0.400   2.903
    1   AR   Ar  136   3.926   0.519   1.797
    1   AR   Ar  137   3.117   0.182   3.711
    1   AR   Ar  138   4.106   1.253   4.822
    1   AR   Ar  139   4.296   0.286   3.870
    1   AR   Ar  140   4.793   1.434   3.384
    1   AR   Ar  141   3.401   0.172   4.615
    1   AR   Ar  142   4.016   0.254   5.579
    1   AR   Ar  143   5.206   6.900   6.014
    1   AR   Ar  144   5.045   1.276   6.708
    1   AR   Ar  145   2.657   2.397   0.426
    1   AR   Ar  146   3.922   2.906   1.138
    1   AR   Ar  147   5.113   1.813   0.436
    1   AR   Ar  148   6.019   3.022  -0.096
    1   AR   Ar  149   3.731   1.853   1.499
    1   AR   Ar  150   2.732   1.697   3.070
    1   AR   Ar  151   3.937   2.060   3.215
    1   AR   Ar  152   3.560   2.719   2.154
    1   AR   Ar  153   3.313   1.149   4.003
    1   AR   Ar  154   3.961   2.071   4.235
    1   AR   Ar  155   4.810   1.942   5.586
    1   AR   Ar  156   4.925   3.816   4.250
    1   AR   Ar  157   3.771   2.211   5.661
    1   AR   Ar  158   3.631   2.389   7.040
    1   AR   Ar  159   3.803   1.065   6.149
    1   AR   Ar  160   4.487   2.979   5.010
    1   AR   Ar  161   4.610   2.799  -0.209
    1   AR   Ar  162   4.547   4.984   0.668
    1   AR   Ar  163   4.978   3.465   0.617
    1   AR   Ar  164   5.722   4.739   0.931
    1   AR   Ar  165   3.360   3.828   2.695
    1   AR   Ar  166   3.422   4.804   3.586
    1   AR   Ar  167   4.570   3.259   3.210
    1   AR   Ar  168   4.095   4.069   1.130
    1   AR   Ar  169   2.927   2.691   3.208
    1   AR   Ar  170   2.768   4.496   4.426
    1   AR   Ar  171   3.606   3.690   4.573
    1   AR   Ar  172   4.089   4.614   4.421
    1   AR   Ar  173   3.465   3.239   5.984
    1   AR   Ar  174   4.071   5.230   6.073
    1   AR   Ar  175   3.591   4.185   6.332
    1   AR   Ar  176   3.916   4.456   5.416
    1   AR   Ar  177   5.292   5.946   0.322
    1   AR   Ar  178   3.901   6.669   1.188
    1   AR   Ar  179   4.083   5.131   1.621
    1   AR   Ar  180   4.281   5.596  -0.210
    1   AR   Ar  181   3.226   5.660   2.050
    1   AR   Ar  182   2.385   6.259   1.606
    1   AR   Ar  183   3.624   4.849   2.492
    1   AR   Ar  184   4.190   5.832   2.290
    1   AR   Ar  185   1.821   5.713   3.427
    1   AR   Ar  186   3.280   5.637   4.171
    1   AR   Ar  187   4.434   5.275   3.126
    1   AR   Ar  188   3.388   5.958   3.149
    1   AR   Ar  189   2.812   5.254   5.570
    1   AR   Ar  190   4.143   6.723   6.470
    1   AR   Ar  191   4.455   5.811   5.120
    1   AR   Ar  192   3.498   6.158   5.182
    1   AR   Ar  193   5.465   0.181  -0.134
    1   AR   Ar  194   4.506   0.573  -0.025
    1   AR   Ar  195   5.808   1.194   1.029
    1   AR   Ar  196   5.909   1.046  -0.432
    1   AR   Ar  197   4.865   0.472   1.331
    1   AR   Ar  198   5.188   1.452   1.839
    1   AR   Ar  199   5.883   0.756   2.218
    1   AR   Ar  200   6.696   1.545   1.706
    1   AR   Ar  201   4.523   6.344   3.341
    1   AR   Ar  202   5.250   0.977   4.146
    1   AR   Ar  203   6.881   6.546   4.798
    1   AR   Ar  204   6.333   0.375   3.348
    1   AR   Ar  205   5.774   6.597   3.981
    1   AR   Ar  206   5.228   6.791   4.970
    1   AR   Ar  207   7.072   6.823   5.897
    1   AR   Ar  208   6.050   0.461   4.325
    1   AR   Ar  209   6.523   1.884  -0.814
    1   AR   Ar  210   4.931   2.746   1.503
    1   AR   Ar  211   6.016   2.402   1.014
    1   AR   Ar  212   6.816   3.841  -0.346
    1   AR   Ar  213   4.787   2.106   2.606
    1   AR   Ar  214   4.318   3.563   2.261
    1   AR   Ar  215   5.958   2.081   2.534
    1   AR   Ar  216   6.182   2.948   1.943
    1   AR   Ar  217   5.263   2.220   3.689
    1   AR   Ar  218   5.537   1.842   4.664
    1   AR   Ar  219   5.776   1.161   3.074
    1   AR   Ar  220   6.339   2.924   3.020
    1   AR   Ar  221   5.645   0.729   5.229
    1   AR   Ar  222   4.509   2.474   6.424
    1   AR   Ar  223   7.006   2.029   7.415
    1   AR   Ar  224   6.095   2.298   5.388
    1   AR   Ar  225   5.359   4.406  -0.056
    1   AR   Ar  226   4.770   4.539   2.314
    1   AR   Ar  227   6.721   3.936   1.830
    1   AR   Ar  228   6.879   4.576   0.689
    1   AR   Ar  229   6.456   3.503   0.639
    1   AR   Ar  230   4.659   4.302   3.351
    1   AR   Ar  231   0.040   2.779   3.619
    1   AR   Ar  232   5.444   3.733   1.611
    1   AR   Ar  233   6.111   2.756   4.007
    1   AR   Ar  234   5.717   4.061   4.875
    1   AR   Ar  235   6.669   3.759   4.547
    1   AR   Ar  236   6.031   3.921   3.665
    1   AR   Ar  237   5.498   2.940   4.899
    1   AR   Ar  238   4.842   4.481   6.124
    1   AR   Ar  239   5.751   3.804   8.036
    1   AR   Ar  240   6.174   3.486   5.669
    1   AR   Ar  241   6.891   0.564   0.065
    1   AR   Ar  242   4.947   6.208   1.538
    1   AR   Ar  243   6.137   4.715   2.316
    1   AR   Ar  244   6.063   6.974   0.726
    1   AR   Ar  245   5.372   5.574   2.361
    1   AR   Ar  246   5.787   6.660   2.968
    1   AR   Ar  247   5.524   3.750   2.814
    1   AR   Ar  248   5.839   6.509   1.758
    1   AR   Ar  249   6.151   5.135   3.236
    1   AR   Ar  250   4.693   5.739   4.133
    1   AR   Ar  251   5.592   5.140   4.004
    1   AR   Ar  252   6.613   6.022   3.805
    1   AR   Ar  253   5.278   5.224   5.330
    1   AR   Ar  254   5.685   5.860   6.460
    1   AR   Ar  255   6.128   4.586   5.683
    1   AR   Ar  256   5.935   5.904   4.774
    7.12000  7.12000 12.00000
Argon-slab step 735
  256
    1   AR   Ar    1   0.991   0.928  -0.575
    1   AR   Ar    2   0.352   0.474   0.934
    1   AR   Ar    3   0.905   6.478   0.487
    1   AR   Ar    4   1.450   0.573   0.358
    1   AR   Ar    5   7.017   6.626   1.395
    1   AR   Ar    6   0.561   0.362   2.861
    1   AR   Ar    7   0.174   6.674   2.391
    1   AR   Ar    8   1.029   7.058   1.405
    1   AR   Ar    9   0.309   0.225   4.256
    1   AR   Ar   10   0.212   1.516   4.621
    1   AR   Ar   11   1.397   0.209   4.197
    1   AR   Ar   12   0.973   1.002   3.592
    1   AR   Ar   13   6.859   0.542   5.178
    1   AR   Ar   14   0.487   1.451   6.190
    1   AR   Ar   15   1.544   6.361   7.163
    1   AR   Ar   16   1.103   1.141   5.350
    1   AR   Ar   17   6.819   1.622   0.084
    1   AR   Ar   18   7.060   2.651   0.380
    1   AR   Ar   19   0.624   1.724   0.656
    1   AR   Ar   20   0.498   2.586  -0.577
    1   AR   Ar   21   7.025   0.499   1.891
    1   AR   Ar   22   7.120   2.401   2.649
    1   AR   Ar   23   6.877   1.224   2.810
    1   AR   Ar   24   0.313   2.585   1.611
    1   AR   Ar   25   0.442   1.873   3.510
    1   AR   Ar   26   6.500   1.769   3.767
    1   AR   Ar   27   0.689   2.198   5.362
    1   AR   Ar   28   1.076   2.676   4.383
    1   AR   Ar   29   6.678   1.451   5.644
    1   AR   Ar   30   7.085   2.410   6.196
    1   AR   Ar   31   1.125   1.388   6.930
    1   AR   Ar   32   1.136   3.007   5.760
    1   AR   Ar   33   1.043   3.486  -0.473
    1   AR   Ar   34   0.424   5.116   1.303
    1   AR   Ar   35   0.438   3.323   0.941
    1   AR   Ar   36   1.735   5.909  -1.193
    1   AR   Ar   37   0.162   3.418   2.661
    1   AR   Ar   38   7.078   4.830   2.427
    1   AR   Ar   39   1.011   3.950   2.618
    1   AR   Ar   40   1.372   4.512   1.601
    1   AR   Ar   41   1.017   2.777   2.693
    1   AR   Ar   42   6.686   5.127   4.708
    1   AR   Ar   43   7.032   2.889   4.625
    1   AR   Ar   44   0.654   3.674   3.607
    1   AR   Ar   45   0.091   3.886   5.541
    1   AR   Ar   46   6.947   4.486   6.726
    1   AR   Ar   47   0.346   3.644   6.889
    1   AR   Ar   48   0.937   4.543   6.109
    1   AR   Ar   49   0.207   4.735  -0.349
    1   AR   Ar   50   6.228   5.676   1.303
    1   AR   Ar   51   0.814   4.315   0.584
    1   AR   Ar   52   0.925   5.406   0.218
    1   AR   Ar   53   6.714   5.782   2.335
    1   AR   Ar   54   7.080   6.782   3.384
    1   AR   Ar   55   0.385   5.776   3.227
    1   AR   Ar   56   0.914   6.008   1.515
    1   AR   Ar   57   6.910   4.235   3.179
    1   AR   Ar   58   0.579   5.669   4.358
    1   AR   Ar   59   1.502   6.253   4.783
    1   AR   Ar   60   0.922   6.517   3.739
    1   AR   Ar   61   6.710   5.860   5.951
    1   AR   Ar   62   0.616   6.187   5.186
    1   AR   Ar   63   1.540   5.675   5.722
    1   AR   Ar   64   0.924   0.086   5.259
    1   AR   Ar   65   1.828   6.289  -0.034
    1   AR   Ar   66   1.653   0.890   1.410
    1   AR   Ar   67   2.806   5.998  -0.295
    1   AR   Ar   68   3.924   0.944   0.771
    1   AR   Ar   69   2.131   7.032   0.869
    1   AR   Ar   70   1.456   0.389   2.329
    1   AR   Ar   71   2.412   6.979   2.313
    1   AR   Ar   72   2.802   0.798   1.420
    1   AR   Ar   73   1.839   6.818   3.240
    1   AR   Ar   74   1.661   1.441   4.577
    1   AR   Ar   75   2.551   0.760   4.680
    1   AR   Ar   76   2.207   0.803   3.608
    1   AR   Ar   77   1.949   0.129   5.307
    1   AR   Ar   78   1.575   0.491   6.457
    1   AR   Ar   79   2.556   6.953   6.906
    1   AR   Ar   80   2.756   0.658   6.122
    1   AR   Ar   81   2.194   1.279   0.329
    1   AR   Ar   82   1.783   3.731   0.944
    1   AR   Ar   83   2.748   1.850   1.798
    1   AR   Ar   84   1.922   2.633  -0.669
    1   AR   Ar   85   1.415   1.983   1.565
    1   AR   Ar   86   2.013   2.458   2.454
    1   AR   Ar   87   1.889   1.409   2.391
    1   AR   Ar   88   3.256   3.507   1.529
    1   AR   Ar   89   0.742   1.384   2.305
    1   AR   Ar   90   2.988   2.677   5.083
    1   AR   Ar   91   2.462   1.981   4.204
    1   AR   Ar   92   1.581   1.886   3.270
    1   AR   Ar   93   1.667   1.907   6.201
    1   AR   Ar   94   2.130   1.880   7.118
    1   AR   Ar   95   2.107   0.783   7.300
    1   AR   Ar   96   2.636   2.186   6.187
    1   AR   Ar   97   1.935   3.970  -0.755
    1   AR   Ar   98   3.089   4.552   1.495
    1   AR   Ar   99   3.084   3.111  -1.129
    1   AR   Ar  100   2.126   5.000  -0.303
    1   AR   Ar  101   1.122   3.271   1.686
    1   AR   Ar  102   2.070   4.148   3.417
    1   AR   Ar  103   2.335   3.862   2.217
    1   AR   Ar  104   2.818   3.953   0.593
    1   AR   Ar  105   1.784   3.075   3.459
    1   AR   Ar  106   2.098   3.303   4.449
    1   AR   Ar  107   2.912   4.175   5.506
    1   AR   Ar  108   3.061   3.657   3.648
    1   AR   Ar  109   0.521   4.263   4.674
    1   AR   Ar  110   1.745   4.001   5.468
    1   AR   Ar  111   3.453   5.237   6.950
    1   AR   Ar  112   2.462   3.448   6.128
    1   AR   Ar  113   2.043   4.697   0.755
    1   AR   Ar  114   1.723   5.777   0.861
    1   AR   Ar  115   3.397   5.201   0.661
    1   AR   Ar  116   2.929   0.005   0.102
    1   AR   Ar  117   1.496   4.994   2.520
    1   AR   Ar  118   1.147   6.190   2.588
    1   AR   Ar  119   2.575   4.942   2.669
    1   AR   Ar  120   2.318   5.185   1.730
    1   AR   Ar  121   0.953   4.801   3.625
    1   AR   Ar  122   2.553   6.485   4.364
    1   AR   Ar  123   2.172   5.340   4.438
    1   AR   Ar  124   2.486   5.919   2.642
    1   AR   Ar  125   1.200   5.106   4.864
    1   AR   Ar  126   1.099   6.513   6.111
    1   AR   Ar  127   2.531   5.576   7.345
    1   AR   Ar  128   2.299   6.462   5.921
    1   AR   Ar  129   2.978   6.123   0.766
    1   AR   Ar  130   3.572   0.216  -0.779
    1   AR   Ar  131   4.539   6.672   0.397
    1   AR   Ar  132   5.220   2.135  -0.839
    1   AR   Ar  133   3.820   6.895   2.744
    1   AR   Ar  134   2.835   0.698   2.732
    1   AR   Ar  135   5.138   0.370   2.895
    1   AR   Ar  136   3.928   0.519   1.828
    1   AR   Ar  137   3.151   0.187   3.715
    1   AR   Ar  138   4.117   1.265   4.851
    1   AR   Ar  139   4.287   0.288   3.868
    1   AR   Ar  140   4.758   1.451   3.389
    1   AR   Ar  141   3.409   0.139   4.631
    1   AR   Ar  142   3.999   0.228   5.552
    1   AR   Ar  143   5.191   6.921   6.003
    1   AR   Ar  144   5.025   1.257   6.739
    1   AR   Ar  145   2.629   2.373   0.383
    1   AR   Ar  146   3.935   2.917   1.166
    1   AR   Ar  147   5.155   1.810   0.419
    1   AR   Ar  148   6.023   3.009  -0.086
    1   AR   Ar  149   3.703   1.831   1.475
    1   AR   Ar  150   2.728   1.671   3.084
    1   AR   Ar  151   3.914   2.086   3.209
    1   AR   Ar  152   3.566   2.689   2.160
    1   AR   Ar  153   3.309   1.140   4.002
    1   AR   Ar  154   3.968   2.035   4.246
    1   AR   Ar  155   4.848   1.953   5.614
    1   AR   Ar  156   4.937   3.822   4.279
    1   AR   Ar  157   3.752   2.239   5.650
    1   AR   Ar  158   3.615   2.388   7.056
    1   AR   Ar  159   3.789   1.039   6.140
    1   AR   Ar  160   4.471   2.970   5.007
    1   AR   Ar  161   4.619   2.796  -0.167
    1   AR   Ar  162   4.576   5.013   0.645
    1   AR   Ar  163   4.969   3.447   0.615
    1   AR   Ar  164   5.730   4.722   0.924
    1   AR   Ar  165   3.375   3.851   2.684
    1   AR   Ar  166   3.405   4.799   3.584
    1   AR   Ar  167   4.566   3.233   3.203
    1   AR   Ar  168   4.108   4.100   1.157
    1   AR   Ar  169   2.929   2.695   3.211
    1   AR   Ar  170   2.734   4.505   4.425
    1   AR   Ar  171   3.608   3.686   4.549
    1   AR   Ar  172   4.115   4.636   4.413
    1   AR   Ar  173   3.450   3.247   5.979
    1   AR   Ar  174   4.076   5.223   6.076
    1   AR   Ar  175   3.569   4.212   6.330
    1   AR   Ar  176   3.890   4.471   5.434
    1   AR   Ar  177   5.304   5.926   0.327
    1   AR   Ar  178   3.904   6.699   1.183
    1   AR   Ar  179   4.063   5.092   1.620
    1   AR   Ar  180   4.314   5.594  -0.157
    1   AR   Ar  181   3.221   5.676   2.047
    1   AR   Ar  182   2.371   6.304   1.610
    1   AR   Ar  183   3.606   4.829   2.520
    1   AR   Ar  184   4.215   5.787   2.307
    1   AR   Ar  185   1.833   5.714   3.436
    1   AR   Ar  186   3.288   5.639   4.170
    1   AR   Ar  187   4.430   5.249   3.111
    1   AR   Ar  188   3.374   5.966   3.165
    1   AR   Ar  189   2.789   5.226   5.568
    1   AR   Ar  190   4.124   6.713   6.499
    1   AR   Ar  191   4.448   5.813   5.140
    1   AR   Ar  192   3.484   6.146   5.156
    1   AR   Ar  193   5.462   0.183  -0.141
    1   AR   Ar  194   4.480   0.566  -0.040
    1   AR   Ar  195   5.811   1.213   1.053
    1   AR   Ar  196   5.879   1.024  -0.414
    1   AR   Ar  197   4.896   0.478   1.318
    1   AR   Ar  198   5.182   1.442   1.817
    1   AR   Ar  199   5.872   0.763   2.234
    1   AR   Ar  200   6.692   1.571   1.724
    1   AR   Ar  201   4.541   6.341   3.318
    1   AR   Ar  202   5.233   1.004   4.136
    1   AR   Ar  203   6.877   6.576   4.755
    1   AR   Ar  204   6.322   0.357   3.305
    1   AR   Ar  205   5.781   6.575   3.973
    1   AR   Ar  206   5.196   6.788   4.972
    1   AR   Ar  207   7.106   6.827   5.895
    1   AR   Ar  208   6.053   0.470   4.303
    1   AR   Ar  209   6.554   1.886  -0.831
    1   AR   Ar  210   4.915   2.743   1.526
    1   AR   Ar  211   6.010   2.435   0.976
    1   AR   Ar  212   6.815   3.854  -0.349
    1   AR   Ar  213   4.797   2.120   2.614
    1   AR   Ar  214   4.290   3.565   2.275
    1   AR   Ar  215   6.004   2.100   2.516
    1   AR   Ar  216   6.167   3.003   1.953
    1   AR   Ar  217   5.276   2.256   3.696
    1   AR   Ar  218   5.525   1.869   4.665
    1   AR   Ar  219   5.773   1.169   3.075
    1   AR   Ar  220   6.331   2.934   3.016
    1   AR   Ar  221   5.645   0.749   5.224
    1   AR   Ar  222   4.510   2.485   6.421
    1   AR   Ar  223   6.989   2.015   7.411
    1   AR   Ar  224   6.065   2.309   5.400
    1   AR   Ar  225   5.345   4.401  -0.063
    1   AR   Ar  226   4.771   4.545   2.278
    1   AR   Ar  227   6.744   3.939   1.837
    1   AR   Ar  228   6.842   4.550   0.687
    1   AR   Ar  229   6.466   3.466   0.628
    1   AR   Ar  230   4.661   4.308   3.351
    1   AR   Ar  231   0.033   2.757   3.623
    1   AR   Ar  232   5.441   3.748   1.634
    1   AR   Ar  233   6.147   2.777   4.015
    1   AR   Ar  234   5.703   4.029   4.867
    1   AR   Ar  235   6.665   3.775   4.562
    1   AR   Ar  236   6.045   3.941   3.668
    1   AR   Ar  237   5.484   2.940   4.878
    1   AR   Ar  238   4.848   4.440   6.158
    1   AR   Ar  239   5.760   3.814   8.019
    1   AR   Ar  240   6.195   3.495   5.659
    1   AR   Ar  241   6.898   0.538   0.059
    1   AR   Ar  242   4.950   6.189   1.564
    1   AR   Ar  243   6.124   4.702   2.314
    1   AR   Ar  244   6.073   6.950   0.680
    1   AR   Ar  245   5.358   5.582   2.357
    1   AR   Ar  246   5.775   6.674   2.948
    1   AR   Ar  247   5.512   3.764   2.790
    1   AR   Ar  248   5.841   6.531   1.707
    1   AR   Ar  249   6.164   5.107   3.229
    1   AR   Ar  250   4.672   5.719   4.121
    1   AR   Ar  251   5.580   5.130   4.020
    1   AR   Ar  252   6.652   6.035   3.790
    1   AR   Ar  253   5.308   5.256   5.317
    1   AR   Ar  254   5.677   5.863   6.487
    1   AR   Ar  255   6.109   4.589   5.708
    1   AR   Ar  256   5.933   5.897   4.778
    7.12000  7.12000 12.00000
Argon-slab step 740
  256
    1   AR   Ar    1   0.985   0.914  -0.586
    1   AR   Ar    2   0.338   0.453   0.968
    1   AR   Ar    3   0.938   6.466   0.482
    1   AR   Ar    4   1.447   0.588   0.376
    1   AR   Ar    5   7.027   6.621   1.373
    1   AR   Ar    6   0.578   0.364   2.870
    1   AR   Ar    7   0.176   6.673   2.392
    1   AR   Ar    8   1.023   7.063   1.405
    1   AR   Ar    9   0.309   0.244   4.294
    1   AR   Ar   10   0.188   1.529   4.599
    1   AR   Ar   11   1.396   0.228   4.187
    1   AR   Ar   12   0.966   1.010   3.582
    1   AR   Ar   13   6.852   0.519   5.161
    1   AR   Ar   14   0.480   1.468   6.169
    1   AR   Ar   15   1.529   6.359   7.142
    1   AR   Ar   16   1.097   1.151   5.374
    1   AR   Ar   17   6.811   1.629   0.094
    1   AR   Ar   18   7.045   2.684   0.385
    1   AR   Ar   19   0.622   1.729   0.667
    1   AR   Ar   20   0.452   2.592  -0.576
    1   AR   Ar   21   6.992   0.468   1.896
    1   AR   Ar   22   0.018   2.440   2.634
    1   AR   Ar   23   6.884   1.195   2.804
    1   AR   Ar   24   0.315   2.580   1.594
    1   AR   Ar   25   0.447   1.857   3.509
    1   AR   Ar   26   6.500   1.725   3.745
    1   AR   Ar   27   0.710   2.186   5.387
    1   AR   Ar   28   1.071   2.683   4.396
    1   AR   Ar   29   6.671   1.480   5.661
    1   AR   Ar   30   7.068   2.407   6.225
    1   AR   Ar   31   1.142   1.403   6.956
    1   AR   Ar   32   1.160   3.000   5.795
    1   AR   Ar   33   1.031   3.497  -0.442
    1   AR   Ar   34   0.425   5.085   1.269
    1   AR   Ar   35   0.433   3.324   0.943
    1   AR   Ar   36   1.724   5.941  -1.189
    1   AR   Ar   37   0.171   3.405   2.687
    1   AR   Ar   38   7.061   4.831   2.411
    1   AR   Ar   39   1.038   3.948   2.605
    1   AR   Ar   40   1.387   4.502   1.580
    1   AR   Ar   41   1.010   2.763   2.675
    1   AR   Ar   42   6.669   5.144   4.708
    1   AR   Ar   43   7.021   2.867   4.592
    1   AR   Ar   44   0.665   3.684   3.620
    1   AR   Ar   45   0.127   3.874   5.552
    1   AR   Ar   46   6.915   4.468   6.724
    1   AR   Ar   47   0.390   3.662   6.896
    1   AR   Ar   48   0.946   4.556   6.113
    1   AR   Ar   49   0.197   4.751  -0.355
    1   AR   Ar   50   6.247   5.680   1.286
    1   AR   Ar   51   0.846   4.324   0.618
    1   AR   Ar   52   0.926   5.388   0.196
    1   AR   Ar   53   6.713   5.774   2.347
    1   AR   Ar   54   7.102   6.781   3.382
    1   AR   Ar   55   0.400   5.753   3.233
    1   AR   Ar   56   0.911   6.050   1.520
    1   AR   Ar   57   6.873   4.221   3.177
    1   AR   Ar   58   0.556   5.701   4.364
    1   AR   Ar   59   1.489   6.241   4.792
    1   AR   Ar   60   0.961   6.512   3.738
    1   AR   Ar   61   6.714   5.845   5.946
    1   AR   Ar   62   0.599   6.179   5.201
    1   AR   Ar   63   1.534   5.680   5.721
    1   AR   Ar   64   0.932   0.105   5.247
    1   AR   Ar   65   1.842   6.262  -0.018
    1   AR   Ar   66   1.646   0.881   1.403
    1   AR   Ar   67   2.841   6.005  -0.288
    1   AR   Ar   68   3.944   0.931   0.743
    1   AR   Ar   69   2.157   7.036   0.869
    1   AR   Ar   70   1.457   0.346   2.328
    1   AR   Ar   71   2.412   6.991   2.323
    1   AR   Ar   72   2.809   0.805   1.408
    1   AR   Ar   73   1.816   6.818   3.236
    1   AR   Ar   74   1.685   1.430   4.543
    1   AR   Ar   75   2.518   0.760   4.676
    1   AR   Ar   76   2.184   0.842   3.600
    1   AR   Ar   77   1.965   0.158   5.302
    1   AR   Ar   78   1.597   0.486   6.463
    1   AR   Ar   79   2.554   6.946   6.903
    1   AR   Ar   80   2.838   0.624   6.088
    1   AR   Ar   81   2.163   1.322   0.334
    1   AR   Ar   82   1.790   3.720   0.898
    1   AR   Ar   83   2.731   1.835   1.807
    1   AR   Ar   84   1.941   2.649  -0.659
    1   AR   Ar   85   1.405   1.980   1.549
    1   AR   Ar   86   2.013   2.489   2.488
    1   AR   Ar   87   1.884   1.412   2.394
    1   AR   Ar   88   3.270   3.521   1.563
    1   AR   Ar   89   0.715   1.355   2.297
    1   AR   Ar   90   2.964   2.624   5.076
    1   AR   Ar   91   2.470   1.988   4.160
    1   AR   Ar   92   1.575   1.880   3.287
    1   AR   Ar   93   1.667   1.896   6.185
    1   AR   Ar   94   2.133   1.882   7.128
    1   AR   Ar   95   2.102   0.786   7.279
    1   AR   Ar   96   2.607   2.171   6.240
    1   AR   Ar   97   1.948   3.946  -0.797
    1   AR   Ar   98   3.086   4.567   1.497
    1   AR   Ar   99   3.093   3.086  -1.142
    1   AR   Ar  100   2.117   5.005  -0.280
    1   AR   Ar  101   1.153   3.277   1.679
    1   AR   Ar  102   2.057   4.124   3.426
    1   AR   Ar  103   2.311   3.860   2.195
    1   AR   Ar  104   2.837   3.942   0.586
    1   AR   Ar  105   1.792   3.095   3.471
    1   AR   Ar  106   2.124   3.291   4.470
    1   AR   Ar  107   2.875   4.196   5.523
    1   AR   Ar  108   3.061   3.661   3.654
    1   AR   Ar  109   0.520   4.280   4.664
    1   AR   Ar  110   1.771   4.010   5.496
    1   AR   Ar  111   3.480   5.259   6.980
    1   AR   Ar  112   2.466   3.430   6.112
    1   AR   Ar  113   2.052   4.679   0.797
    1   AR   Ar  114   1.742   5.754   0.895
    1   AR   Ar  115   3.390   5.174   0.686
    1   AR   Ar  116   2.933   0.023   0.126
    1   AR   Ar  117   1.520   4.972   2.505
    1   AR   Ar  118   1.150   6.164   2.590
    1   AR   Ar  119   2.580   4.933   2.668
    1   AR   Ar  120   2.301   5.186   1.756
    1   AR   Ar  121   0.971   4.810   3.626
    1   AR   Ar  122   2.592   6.485   4.386
    1   AR   Ar  123   2.194   5.318   4.438
    1   AR   Ar  124   2.439   5.927   2.675
    1   AR   Ar  125   1.186   5.146   4.859
    1   AR   Ar  126   1.065   6.550   6.082
    1   AR   Ar  127   2.551   5.625   7.322
    1   AR   Ar  128   2.289   6.463   5.940
    1   AR   Ar  129   2.975   6.119   0.785
    1   AR   Ar  130   3.541   0.178  -0.745
    1   AR   Ar  131   4.541   6.651   0.409
    1   AR   Ar  132   5.270   2.142  -0.826
    1   AR   Ar  133   3.805   6.876   2.741
    1   AR   Ar  134   2.838   0.696   2.715
    1   AR   Ar  135   5.140   0.339   2.888
    1   AR   Ar  136   3.927   0.519   1.860
    1   AR   Ar  137   3.177   0.184   3.696
    1   AR   Ar  138   4.129   1.267   4.887
    1   AR   Ar  139   4.260   0.278   3.875
    1   AR   Ar  140   4.713   1.459   3.389
    1   AR   Ar  141   3.424   0.103   4.667
    1   AR   Ar  142   3.984   0.196   5.522
    1   AR   Ar  143   5.159   6.936   6.007
    1   AR   Ar  144   5.004   1.238   6.769
    1   AR   Ar  145   2.601   2.349   0.340
    1   AR   Ar  146   3.973   2.903   1.171
    1   AR   Ar  147   5.197   1.809   0.401
    1   AR   Ar  148   6.018   2.987  -0.089
    1   AR   Ar  149   3.684   1.808   1.449
    1   AR   Ar  150   2.722   1.646   3.099
    1   AR   Ar  151   3.876   2.110   3.188
    1   AR   Ar  152   3.571   2.658   2.170
    1   AR   Ar  153   3.306   1.140   4.002
    1   AR   Ar  154   3.975   2.008   4.255
    1   AR   Ar  155   4.888   1.960   5.637
    1   AR   Ar  156   4.923   3.829   4.297
    1   AR   Ar  157   3.736   2.263   5.640
    1   AR   Ar  158   3.598   2.387   7.070
    1   AR   Ar  159   3.776   1.019   6.133
    1   AR   Ar  160   4.458   2.951   5.021
    1   AR   Ar  161   4.629   2.790  -0.124
    1   AR   Ar  162   4.608   5.038   0.627
    1   AR   Ar  163   4.961   3.431   0.616
    1   AR   Ar  164   5.727   4.696   0.924
    1   AR   Ar  165   3.386   3.870   2.670
    1   AR   Ar  166   3.387   4.790   3.578
    1   AR   Ar  167   4.562   3.202   3.201
    1   AR   Ar  168   4.122   4.130   1.185
    1   AR   Ar  169   2.930   2.700   3.213
    1   AR   Ar  170   2.706   4.505   4.425
    1   AR   Ar  171   3.638   3.687   4.531
    1   AR   Ar  172   4.144   4.662   4.401
    1   AR   Ar  173   3.441   3.248   5.971
    1   AR   Ar  174   4.082   5.224   6.081
    1   AR   Ar  175   3.545   4.242   6.342
    1   AR   Ar  176   3.871   4.484   5.438
    1   AR   Ar  177   5.316   5.905   0.335
    1   AR   Ar  178   3.902   6.728   1.185
    1   AR   Ar  179   4.044   5.048   1.609
    1   AR   Ar  180   4.345   5.597  -0.107
    1   AR   Ar  181   3.221   5.693   2.031
    1   AR   Ar  182   2.354   6.337   1.607
    1   AR   Ar  183   3.593   4.811   2.550
    1   AR   Ar  184   4.243   5.757   2.324
    1   AR   Ar  185   1.842   5.714   3.448
    1   AR   Ar  186   3.296   5.642   4.174
    1   AR   Ar  187   4.427   5.227   3.104
    1   AR   Ar  188   3.366   5.971   3.179
    1   AR   Ar  189   2.767   5.201   5.566
    1   AR   Ar  190   4.115   6.700   6.516
    1   AR   Ar  191   4.443   5.815   5.162
    1   AR   Ar  192   3.463   6.136   5.131
    1   AR   Ar  193   5.456   0.172  -0.144
    1   AR   Ar  194   4.460   0.526  -0.067
    1   AR   Ar  195   5.821   1.228   1.072
    1   AR   Ar  196   5.895   1.021  -0.387
    1   AR   Ar  197   4.930   0.483   1.304
    1   AR   Ar  198   5.171   1.437   1.799
    1   AR   Ar  199   5.870   0.759   2.226
    1   AR   Ar  200   6.685   1.593   1.739
    1   AR   Ar  201   4.559   6.342   3.290
    1   AR   Ar  202   5.211   1.030   4.130
    1   AR   Ar  203   6.868   6.605   4.711
    1   AR   Ar  204   6.314   0.340   3.261
    1   AR   Ar  205   5.784   6.556   3.969
    1   AR   Ar  206   5.164   6.784   4.968
    1   AR   Ar  207   0.024   6.834   5.890
    1   AR   Ar  208   6.067   0.472   4.284
    1   AR   Ar  209   6.581   1.891  -0.858
    1   AR   Ar  210   4.902   2.740   1.550
    1   AR   Ar  211   6.004   2.467   0.938
    1   AR   Ar  212   6.812   3.860  -0.351
    1   AR   Ar  213   4.811   2.140   2.617
    1   AR   Ar  214   4.264   3.567   2.281
    1   AR   Ar  215   6.048   2.112   2.495
    1   AR   Ar  216   6.153   3.058   1.961
    1   AR   Ar  217   5.290   2.297   3.702
    1   AR   Ar  218   5.511   1.893   4.662
    1   AR   Ar  219   5.766   1.199   3.099
    1   AR   Ar  220   6.325   2.947   3.006
    1   AR   Ar  221   5.644   0.769   5.222
    1   AR   Ar  222   4.508   2.500   6.421
    1   AR   Ar  223   6.973   2.002   7.406
    1   AR   Ar  224   6.043   2.319   5.420
    1   AR   Ar  225   5.330   4.396  -0.069
    1   AR   Ar  226   4.773   4.551   2.241
    1   AR   Ar  227   6.768   3.942   1.842
    1   AR   Ar  228   6.846   4.548   0.694
    1   AR   Ar  229   6.483   3.443   0.636
    1   AR   Ar  230   4.667   4.316   3.349
    1   AR   Ar  231   0.027   2.747   3.627
    1   AR   Ar  232   5.438   3.757   1.648
    1   AR   Ar  233   6.181   2.800   4.028
    1   AR   Ar  234   5.693   4.002   4.863
    1   AR   Ar  235   6.683   3.796   4.561
    1   AR   Ar  236   6.055   3.960   3.678
    1   AR   Ar  237   5.471   2.947   4.852
    1   AR   Ar  238   4.854   4.399   6.191
    1   AR   Ar  239   5.770   3.823   8.002
    1   AR   Ar  240   6.224   3.509   5.629
    1   AR   Ar  241   6.901   0.511   0.050
    1   AR   Ar  242   4.936   6.164   1.584
    1   AR   Ar  243   6.094   4.684   2.303
    1   AR   Ar  244   6.085   6.926   0.636
    1   AR   Ar  245   5.345   5.589   2.355
    1   AR   Ar  246   5.764   6.680   2.921
    1   AR   Ar  247   5.498   3.778   2.762
    1   AR   Ar  248   5.857   6.565   1.663
    1   AR   Ar  249   6.178   5.095   3.234
    1   AR   Ar  250   4.652   5.694   4.112
    1   AR   Ar  251   5.607   5.147   4.037
    1   AR   Ar  252   6.683   6.029   3.786
    1   AR   Ar  253   5.339   5.284   5.306
    1   AR   Ar  254   5.668   5.866   6.513
    1   AR   Ar  255   6.076   4.589   5.725
    1   AR   Ar  256   5.933   5.893   4.781
    7.12000  7.12000 12.00000
Argon-slab step 745
  256
    1   AR   Ar    1   0.979   0.900  -0.596
    1   AR   Ar    2   0.316   0.443   0.990
    1   AR   Ar    3   0.968   6.456   0.481
    1   AR   Ar    4   1.438   0.598   0.395
    1   AR   Ar    5   7.035   6.615   1.347
    1   AR   Ar    6   0.593   0.370   2.881
    1   AR   Ar    7   0.181   6.666   2.386
    1   AR   Ar    8   1.030   7.062   1.412
    1   AR   Ar    9   0.312   0.266   4.327
    1   AR   Ar   10   0.164   1.542   4.578
    1   AR   Ar   11   1.400   0.250   4.180
    1   AR   Ar   12   0.966   1.012   3.576
    1   AR   Ar   13   6.845   0.496   5.144
    1   AR   Ar   14   0.472   1.484   6.148
    1   AR   Ar   15   1.515   6.358   7.119
    1   AR   Ar   16   1.091   1.161   5.399
    1   AR   Ar   17   6.803   1.635   0.111
    1   AR   Ar   18   7.030   2.697   0.381
    1   AR   Ar   19   0.620   1.734   0.679
    1   AR   Ar   20   0.404   2.596  -0.575
    1   AR   Ar   21   6.956   0.440   1.907
    1   AR   Ar   22   0.033   2.458   2.612
    1   AR   Ar   23   6.889   1.166   2.797
    1   AR   Ar   24   0.316   2.565   1.583
    1   AR   Ar   25   0.467   1.826   3.524
    1   AR   Ar   26   6.499   1.681   3.724
    1   AR   Ar   27   0.739   2.164   5.417
    1   AR   Ar   28   1.066   2.690   4.407
    1   AR   Ar   29   6.664   1.510   5.676
    1   AR   Ar   30   7.051   2.405   6.253
    1   AR   Ar   31   1.174   1.445   7.000
    1   AR   Ar   32   1.188   2.998   5.831
    1   AR   Ar   33   1.015   3.515  -0.427
    1   AR   Ar   34   0.427   5.057   1.237
    1   AR   Ar   35   0.426   3.325   0.916
    1   AR   Ar   36   1.713   5.974  -1.184
    1   AR   Ar   37   0.176   3.400   2.710
    1   AR   Ar   38   7.063   4.833   2.391
    1   AR   Ar   39   1.074   3.953   2.608
    1   AR   Ar   40   1.399   4.489   1.561
    1   AR   Ar   41   1.007   2.749   2.659
    1   AR   Ar   42   6.654   5.158   4.708
    1   AR   Ar   43   7.020   2.835   4.578
    1   AR   Ar   44   0.676   3.692   3.636
    1   AR   Ar   45   0.163   3.861   5.567
    1   AR   Ar   46   6.880   4.456   6.718
    1   AR   Ar   47   0.387   3.658   6.895
    1   AR   Ar   48   0.954   4.567   6.116
    1   AR   Ar   49   0.190   4.772  -0.360
    1   AR   Ar   50   6.244   5.689   1.280
    1   AR   Ar   51   0.878   4.332   0.650
    1   AR   Ar   52   0.928   5.369   0.175
    1   AR   Ar   53   6.726   5.774   2.360
    1   AR   Ar   54   0.014   6.792   3.383
    1   AR   Ar   55   0.407   5.747   3.232
    1   AR   Ar   56   0.907   6.086   1.527
    1   AR   Ar   57   6.842   4.206   3.178
    1   AR   Ar   58   0.521   5.733   4.347
    1   AR   Ar   59   1.499   6.216   4.802
    1   AR   Ar   60   1.003   6.491   3.745
    1   AR   Ar   61   6.718   5.829   5.939
    1   AR   Ar   62   0.571   6.175   5.235
    1   AR   Ar   63   1.530   5.683   5.720
    1   AR   Ar   64   0.933   0.122   5.232
    1   AR   Ar   65   1.848   6.259  -0.015
    1   AR   Ar   66   1.640   0.874   1.397
    1   AR   Ar   67   2.877   6.011  -0.281
    1   AR   Ar   68   3.963   0.919   0.721
    1   AR   Ar   69   2.181   7.043   0.869
    1   AR   Ar   70   1.461   0.303   2.328
    1   AR   Ar   71   2.436   7.016   2.309
    1   AR   Ar   72   2.816   0.812   1.396
    1   AR   Ar   73   1.797   6.821   3.229
    1   AR   Ar   74   1.706   1.417   4.507
    1   AR   Ar   75   2.521   0.740   4.697
    1   AR   Ar   76   2.160   0.880   3.592
    1   AR   Ar   77   1.981   0.185   5.300
    1   AR   Ar   78   1.615   0.477   6.460
    1   AR   Ar   79   2.551   6.939   6.899
    1   AR   Ar   80   2.911   0.586   6.053
    1   AR   Ar   81   2.135   1.368   0.340
    1   AR   Ar   82   1.794   3.700   0.853
    1   AR   Ar   83   2.714   1.825   1.809
    1   AR   Ar   84   1.961   2.667  -0.647
    1   AR   Ar   85   1.393   1.977   1.534
    1   AR   Ar   86   2.013   2.518   2.521
    1   AR   Ar   87   1.878   1.410   2.394
    1   AR   Ar   88   3.279   3.539   1.602
    1   AR   Ar   89   0.689   1.327   2.289
    1   AR   Ar   90   2.934   2.575   5.066
    1   AR   Ar   91   2.482   1.997   4.112
    1   AR   Ar   92   1.569   1.877   3.309
    1   AR   Ar   93   1.652   1.881   6.161
    1   AR   Ar   94   2.136   1.884   7.144
    1   AR   Ar   95   2.101   0.791   7.263
    1   AR   Ar   96   2.593   2.162   6.289
    1   AR   Ar   97   1.964   3.923  -0.838
    1   AR   Ar   98   3.083   4.591   1.495
    1   AR   Ar   99   3.102   3.061  -1.155
    1   AR   Ar  100   2.107   5.011  -0.257
    1   AR   Ar  101   1.187   3.284   1.678
    1   AR   Ar  102   2.044   4.103   3.435
    1   AR   Ar  103   2.286   3.860   2.174
    1   AR   Ar  104   2.858   3.932   0.579
    1   AR   Ar  105   1.798   3.111   3.480
    1   AR   Ar  106   2.152   3.280   4.493
    1   AR   Ar  107   2.836   4.209   5.534
    1   AR   Ar  108   3.058   3.666   3.660
    1   AR   Ar  109   0.497   4.292   4.655
    1   AR   Ar  110   1.796   4.020   5.524
    1   AR   Ar  111   3.509   5.279   7.009
    1   AR   Ar  112   2.461   3.408   6.098
    1   AR   Ar  113   2.065   4.670   0.834
    1   AR   Ar  114   1.769   5.737   0.912
    1   AR   Ar  115   3.386   5.144   0.708
    1   AR   Ar  116   2.938   0.039   0.151
    1   AR   Ar  117   1.543   4.952   2.495
    1   AR   Ar  118   1.157   6.139   2.592
    1   AR   Ar  119   2.587   4.911   2.679
    1   AR   Ar  120   2.276   5.194   1.772
    1   AR   Ar  121   1.000   4.814   3.613
    1   AR   Ar  122   2.630   6.487   4.408
    1   AR   Ar  123   2.208   5.313   4.439
    1   AR   Ar  124   2.388   5.946   2.701
    1   AR   Ar  125   1.180   5.177   4.861
    1   AR   Ar  126   1.035   6.590   6.057
    1   AR   Ar  127   2.554   5.625   7.345
    1   AR   Ar  128   2.279   6.463   5.959
    1   AR   Ar  129   2.971   6.120   0.803
    1   AR   Ar  130   3.515   0.147  -0.721
    1   AR   Ar  131   4.549   6.631   0.416
    1   AR   Ar  132   5.321   2.150  -0.812
    1   AR   Ar  133   3.783   6.883   2.740
    1   AR   Ar  134   2.844   0.696   2.698
    1   AR   Ar  135   5.134   0.315   2.884
    1   AR   Ar  136   3.926   0.519   1.892
    1   AR   Ar  137   3.198   0.174   3.665
    1   AR   Ar  138   4.144   1.259   4.931
    1   AR   Ar  139   4.233   0.270   3.882
    1   AR   Ar  140   4.661   1.466   3.384
    1   AR   Ar  141   3.439   0.066   4.706
    1   AR   Ar  142   3.974   0.162   5.495
    1   AR   Ar  143   5.126   6.951   6.014
    1   AR   Ar  144   4.982   1.220   6.797
    1   AR   Ar  145   2.572   2.327   0.298
    1   AR   Ar  146   4.020   2.876   1.160
    1   AR   Ar  147   5.239   1.809   0.382
    1   AR   Ar  148   6.006   2.956  -0.102
    1   AR   Ar  149   3.671   1.784   1.420
    1   AR   Ar  150   2.717   1.626   3.115
    1   AR   Ar  151   3.821   2.128   3.150
    1   AR   Ar  152   3.576   2.627   2.183
    1   AR   Ar  153   3.305   1.147   4.003
    1   AR   Ar  154   3.980   1.990   4.258
    1   AR   Ar  155   4.930   1.965   5.652
    1   AR   Ar  156   4.896   3.832   4.307
    1   AR   Ar  157   3.726   2.284   5.632
    1   AR   Ar  158   3.589   2.390   7.081
    1   AR   Ar  159   3.770   1.007   6.127
    1   AR   Ar  160   4.438   2.932   5.036
    1   AR   Ar  161   4.638   2.781  -0.084
    1   AR   Ar  162   4.645   5.051   0.626
    1   AR   Ar  163   4.955   3.418   0.622
    1   AR   Ar  164   5.722   4.670   0.926
    1   AR   Ar  165   3.386   3.876   2.658
    1   AR   Ar  166   3.370   4.777   3.571
    1   AR   Ar  167   4.559   3.179   3.213
    1   AR   Ar  168   4.137   4.151   1.211
    1   AR   Ar  169   2.930   2.705   3.213
    1   AR   Ar  170   2.689   4.489   4.424
    1   AR   Ar  171   3.675   3.689   4.518
    1   AR   Ar  172   4.173   4.689   4.387
    1   AR   Ar  173   3.441   3.247   5.960
    1   AR   Ar  174   4.091   5.231   6.089
    1   AR   Ar  175   3.520   4.272   6.367
    1   AR   Ar  176   3.858   4.493   5.426
    1   AR   Ar  177   5.331   5.883   0.345
    1   AR   Ar  178   3.895   6.758   1.193
    1   AR   Ar  179   4.024   5.009   1.595
    1   AR   Ar  180   4.369   5.612  -0.071
    1   AR   Ar  181   3.223   5.709   2.011
    1   AR   Ar  182   2.335   6.356   1.599
    1   AR   Ar  183   3.589   4.805   2.574
    1   AR   Ar  184   4.269   5.742   2.333
    1   AR   Ar  185   1.843   5.711   3.467
    1   AR   Ar  186   3.303   5.646   4.183
    1   AR   Ar  187   4.432   5.206   3.100
    1   AR   Ar  188   3.362   5.975   3.191
    1   AR   Ar  189   2.745   5.185   5.562
    1   AR   Ar  190   4.115   6.684   6.522
    1   AR   Ar  191   4.440   5.818   5.186
    1   AR   Ar  192   3.444   6.124   5.111
    1   AR   Ar  193   5.466   0.163  -0.139
    1   AR   Ar  194   4.440   0.486  -0.097
    1   AR   Ar  195   5.838   1.241   1.086
    1   AR   Ar  196   5.917   1.030  -0.362
    1   AR   Ar  197   4.963   0.487   1.289
    1   AR   Ar  198   5.152   1.437   1.789
    1   AR   Ar  199   5.875   0.748   2.204
    1   AR   Ar  200   6.676   1.611   1.752
    1   AR   Ar  201   4.579   6.344   3.260
    1   AR   Ar  202   5.190   1.050   4.130
    1   AR   Ar  203   6.854   6.631   4.668
    1   AR   Ar  204   6.311   0.325   3.217
    1   AR   Ar  205   5.777   6.580   3.956
    1   AR   Ar  206   5.132   6.780   4.960
    1   AR   Ar  207   0.061   6.844   5.884
    1   AR   Ar  208   6.087   0.472   4.267
    1   AR   Ar  209   6.606   1.899  -0.889
    1   AR   Ar  210   4.897   2.735   1.579
    1   AR   Ar  211   5.997   2.498   0.901
    1   AR   Ar  212   6.806   3.860  -0.351
    1   AR   Ar  213   4.828   2.165   2.615
    1   AR   Ar  214   4.244   3.568   2.278
    1   AR   Ar  215   6.089   2.117   2.473
    1   AR   Ar  216   6.142   3.110   1.967
    1   AR   Ar  217   5.305   2.341   3.705
    1   AR   Ar  218   5.495   1.914   4.657
    1   AR   Ar  219   5.749   1.221   3.127
    1   AR   Ar  220   6.327   2.959   2.991
    1   AR   Ar  221   5.642   0.791   5.221
    1   AR   Ar  222   4.504   2.517   6.424
    1   AR   Ar  223   6.958   1.988   7.398
    1   AR   Ar  224   6.028   2.331   5.448
    1   AR   Ar  225   5.315   4.390  -0.074
    1   AR   Ar  226   4.777   4.558   2.205
    1   AR   Ar  227   6.794   3.944   1.846
    1   AR   Ar  228   6.848   4.542   0.700
    1   AR   Ar  229   6.498   3.439   0.661
    1   AR   Ar  230   4.657   4.318   3.321
    1   AR   Ar  231   0.024   2.746   3.623
    1   AR   Ar  232   5.439   3.745   1.629
    1   AR   Ar  233   6.207   2.824   4.044
    1   AR   Ar  234   5.717   3.989   4.866
    1   AR   Ar  235   6.699   3.827   4.559
    1   AR   Ar  236   6.055   3.976   3.694
    1   AR   Ar  237   5.459   2.959   4.822
    1   AR   Ar  238   4.859   4.358   6.222
    1   AR   Ar  239   5.779   3.833   7.985
    1   AR   Ar  240   6.254   3.519   5.600
    1   AR   Ar  241   6.902   0.484   0.040
    1   AR   Ar  242   4.913   6.139   1.598
    1   AR   Ar  243   6.050   4.661   2.285
    1   AR   Ar  244   6.098   6.901   0.595
    1   AR   Ar  245   5.335   5.594   2.356
    1   AR   Ar  246   5.756   6.673   2.888
    1   AR   Ar  247   5.483   3.791   2.733
    1   AR   Ar  248   5.880   6.606   1.624
    1   AR   Ar  249   6.199   5.087   3.235
    1   AR   Ar  250   4.632   5.667   4.104
    1   AR   Ar  251   5.627   5.163   4.064
    1   AR   Ar  252   6.702   6.002   3.793
    1   AR   Ar  253   5.366   5.303   5.300
    1   AR   Ar  254   5.660   5.870   6.536
    1   AR   Ar  255   6.043   4.589   5.741
    1   AR   Ar  256   5.938   5.897   4.782
    7.12000  7.12000 12.00000
Argon-slab step 750
  256
    1   AR   Ar    1   0.972   0.886  -0.604
    1   AR   Ar    2   0.285   0.443   1.002
    1   AR   Ar    3   0.995   6.448   0.482
    1   AR   Ar    4   1.424   0.603   0.412
    1   AR   Ar    5   7.043   6.606   1.319
    1   AR   Ar    6   0.605   0.377   2.889
    1   AR   Ar    7   0.189   6.656   2.375
    1   AR   Ar    8   1.051   7.064   1.425
    1   AR   Ar    9   0.322   0.293   4.352
    1   AR   Ar   10   0.140   1.555   4.557
    1   AR   Ar   11   1.408   0.272   4.177
    1   AR   Ar   12   0.978   1.001   3.574
    1   AR   Ar   13   6.844   0.487   5.128
    1   AR   Ar   14   0.464   1.496   6.135
    1   AR   Ar   15   1.503   6.358   7.093
    1   AR   Ar   16   1.090   1.167   5.420
    1   AR   Ar   17   6.793   1.639   0.131
    1   AR   Ar   18   7.012   2.685   0.369
    1   AR   Ar   19   0.618   1.739   0.693
    1   AR   Ar   20   0.355   2.599  -0.574
    1   AR   Ar   21   6.918   0.415   1.923
    1   AR   Ar   22   0.042   2.450   2.585
    1   AR   Ar   23   6.892   1.139   2.791
    1   AR   Ar   24   0.315   2.544   1.575
    1   AR   Ar   25   0.480   1.808   3.536
    1   AR   Ar   26   6.499   1.641   3.704
    1   AR   Ar   27   0.766   2.143   5.441
    1   AR   Ar   28   1.061   2.696   4.418
    1   AR   Ar   29   6.655   1.537   5.687
    1   AR   Ar   30   7.034   2.405   6.280
    1   AR   Ar   31   1.203   1.484   7.045
    1   AR   Ar   32   1.218   3.001   5.870
    1   AR   Ar   33   0.998   3.533  -0.410
    1   AR   Ar   34   0.432   5.035   1.213
    1   AR   Ar   35   0.427   3.333   0.888
    1   AR   Ar   36   1.703   6.006  -1.176
    1   AR   Ar   37   0.181   3.411   2.732
    1   AR   Ar   38   7.076   4.833   2.368
    1   AR   Ar   39   1.104   3.958   2.605
    1   AR   Ar   40   1.406   4.473   1.549
    1   AR   Ar   41   1.007   2.735   2.645
    1   AR   Ar   42   6.643   5.169   4.707
    1   AR   Ar   43   7.031   2.800   4.590
    1   AR   Ar   44   0.687   3.701   3.652
    1   AR   Ar   45   0.200   3.847   5.583
    1   AR   Ar   46   6.841   4.447   6.709
    1   AR   Ar   47   0.388   3.649   6.892
    1   AR   Ar   48   0.962   4.579   6.117
    1   AR   Ar   49   0.196   4.774  -0.357
    1   AR   Ar   50   6.242   5.694   1.273
    1   AR   Ar   51   0.911   4.337   0.676
    1   AR   Ar   52   0.933   5.351   0.158
    1   AR   Ar   53   6.734   5.778   2.366
    1   AR   Ar   54   0.048   6.809   3.388
    1   AR   Ar   55   0.410   5.751   3.223
    1   AR   Ar   56   0.900   6.111   1.535
    1   AR   Ar   57   6.822   4.193   3.177
    1   AR   Ar   58   0.479   5.764   4.317
    1   AR   Ar   59   1.516   6.195   4.805
    1   AR   Ar   60   1.038   6.468   3.757
    1   AR   Ar   61   6.722   5.816   5.932
    1   AR   Ar   62   0.547   6.173   5.270
    1   AR   Ar   63   1.527   5.683   5.723
    1   AR   Ar   64   0.930   0.138   5.214
    1   AR   Ar   65   1.858   6.255  -0.016
    1   AR   Ar   66   1.635   0.868   1.392
    1   AR   Ar   67   2.914   6.017  -0.274
    1   AR   Ar   68   3.979   0.907   0.704
    1   AR   Ar   69   2.200   7.053   0.867
    1   AR   Ar   70   1.466   0.261   2.328
    1   AR   Ar   71   2.460   7.040   2.299
    1   AR   Ar   72   2.823   0.816   1.384
    1   AR   Ar   73   1.784   6.778   3.214
    1   AR   Ar   74   1.721   1.402   4.469
    1   AR   Ar   75   2.532   0.726   4.710
    1   AR   Ar   76   2.133   0.916   3.586
    1   AR   Ar   77   1.992   0.204   5.306
    1   AR   Ar   78   1.561   0.490   6.488
    1   AR   Ar   79   2.547   6.933   6.895
    1   AR   Ar   80   2.965   0.539   6.015
    1   AR   Ar   81   2.109   1.412   0.348
    1   AR   Ar   82   1.795   3.673   0.808
    1   AR   Ar   83   2.700   1.823   1.797
    1   AR   Ar   84   1.980   2.686  -0.635
    1   AR   Ar   85   1.381   1.975   1.520
    1   AR   Ar   86   2.010   2.536   2.554
    1   AR   Ar   87   1.872   1.405   2.394
    1   AR   Ar   88   3.286   3.556   1.641
    1   AR   Ar   89   0.667   1.315   2.281
    1   AR   Ar   90   2.906   2.556   5.051
    1   AR   Ar   91   2.497   2.009   4.064
    1   AR   Ar   92   1.564   1.875   3.333
    1   AR   Ar   93   1.625   1.864   6.131
    1   AR   Ar   94   2.138   1.885   7.167
    1   AR   Ar   95   2.105   0.799   7.256
    1   AR   Ar   96   2.595   2.159   6.332
    1   AR   Ar   97   1.979   3.900  -0.878
    1   AR   Ar   98   3.073   4.615   1.493
    1   AR   Ar   99   3.109   3.035  -1.166
    1   AR   Ar  100   2.096   5.019  -0.232
    1   AR   Ar  101   1.223   3.291   1.680
    1   AR   Ar  102   2.032   4.090   3.442
    1   AR   Ar  103   2.262   3.862   2.153
    1   AR   Ar  104   2.880   3.922   0.574
    1   AR   Ar  105   1.799   3.080   3.500
    1   AR   Ar  106   2.181   3.270   4.516
    1   AR   Ar  107   2.800   4.211   5.541
    1   AR   Ar  108   3.052   3.674   3.667
    1   AR   Ar  109   0.479   4.308   4.643
    1   AR   Ar  110   1.815   4.031   5.549
    1   AR   Ar  111   3.539   5.298   7.037
    1   AR   Ar  112   2.447   3.384   6.088
    1   AR   Ar  113   2.086   4.672   0.864
    1   AR   Ar  114   1.802   5.723   0.917
    1   AR   Ar  115   3.385   5.117   0.723
    1   AR   Ar  116   2.944   0.054   0.179
    1   AR   Ar  117   1.563   4.934   2.491
    1   AR   Ar  118   1.166   6.115   2.593
    1   AR   Ar  119   2.594   4.883   2.700
    1   AR   Ar  120   2.247   5.208   1.780
    1   AR   Ar  121   1.030   4.819   3.599
    1   AR   Ar  122   2.665   6.488   4.430
    1   AR   Ar  123   2.212   5.327   4.440
    1   AR   Ar  124   2.343   5.973   2.713
    1   AR   Ar  125   1.178   5.200   4.865
    1   AR   Ar  126   1.015   6.630   6.040
    1   AR   Ar  127   2.552   5.614   7.378
    1   AR   Ar  128   2.269   6.463   5.976
    1   AR   Ar  129   2.955   6.128   0.815
    1   AR   Ar  130   3.506   0.143  -0.737
    1   AR   Ar  131   4.560   6.611   0.420
    1   AR   Ar  132   5.373   2.157  -0.795
    1   AR   Ar  133   3.760   6.891   2.739
    1   AR   Ar  134   2.858   0.702   2.685
    1   AR   Ar  135   5.119   0.300   2.882
    1   AR   Ar  136   3.924   0.521   1.923
    1   AR   Ar  137   3.205   0.154   3.647
    1   AR   Ar  138   4.160   1.245   4.981
    1   AR   Ar  139   4.209   0.262   3.889
    1   AR   Ar  140   4.605   1.472   3.376
    1   AR   Ar  141   3.442   0.028   4.730
    1   AR   Ar  142   3.976   0.128   5.483
    1   AR   Ar  143   5.093   6.967   6.022
    1   AR   Ar  144   4.959   1.203   6.823
    1   AR   Ar  145   2.544   2.307   0.256
    1   AR   Ar  146   4.058   2.850   1.143
    1   AR   Ar  147   5.230   1.801   0.387
    1   AR   Ar  148   5.990   2.922  -0.121
    1   AR   Ar  149   3.663   1.759   1.390
    1   AR   Ar  150   2.713   1.614   3.130
    1   AR   Ar  151   3.768   2.145   3.112
    1   AR   Ar  152   3.582   2.596   2.197
    1   AR   Ar  153   3.303   1.157   4.005
    1   AR   Ar  154   3.986   1.979   4.256
    1   AR   Ar  155   4.972   1.967   5.663
    1   AR   Ar  156   4.862   3.832   4.311
    1   AR   Ar  157   3.723   2.298   5.627
    1   AR   Ar  158   3.579   2.401   7.070
    1   AR   Ar  159   3.782   1.006   6.123
    1   AR   Ar  160   4.415   2.912   5.051
    1   AR   Ar  161   4.646   2.765  -0.050
    1   AR   Ar  162   4.691   5.047   0.647
    1   AR   Ar  163   4.953   3.395   0.605
    1   AR   Ar  164   5.718   4.644   0.930
    1   AR   Ar  165   3.400   3.852   2.623
    1   AR   Ar  166   3.351   4.761   3.568
    1   AR   Ar  167   4.553   3.169   3.242
    1   AR   Ar  168   4.167   4.118   1.196
    1   AR   Ar  169   2.922   2.699   3.217
    1   AR   Ar  170   2.683   4.453   4.424
    1   AR   Ar  171   3.714   3.692   4.509
    1   AR   Ar  172   4.201   4.717   4.371
    1   AR   Ar  173   3.448   3.246   5.946
    1   AR   Ar  174   4.102   5.242   6.099
    1   AR   Ar  175   3.494   4.303   6.398
    1   AR   Ar  176   3.846   4.500   5.405
    1   AR   Ar  177   5.349   5.862   0.357
    1   AR   Ar  178   3.885   6.788   1.206
    1   AR   Ar  179   4.006   4.991   1.587
    1   AR   Ar  180   4.383   5.643  -0.055
    1   AR   Ar  181   3.224   5.725   1.989
    1   AR   Ar  182   2.313   6.361   1.590
    1   AR   Ar  183   3.597   4.818   2.589
    1   AR   Ar  184   4.282   5.747   2.341
    1   AR   Ar  185   1.834   5.704   3.498
    1   AR   Ar  186   3.311   5.647   4.194
    1   AR   Ar  187   4.449   5.191   3.096
    1   AR   Ar  188   3.361   5.978   3.200
    1   AR   Ar  189   2.736   5.196   5.581
    1   AR   Ar  190   4.114   6.668   6.527
    1   AR   Ar  191   4.439   5.820   5.209
    1   AR   Ar  192   3.455   6.094   5.111
    1   AR   Ar  193   5.504   0.165  -0.125
    1   AR   Ar  194   4.420   0.445  -0.129
    1   AR   Ar  195   5.860   1.249   1.093
    1   AR   Ar  196   5.944   1.049  -0.337
    1   AR   Ar  197   4.995   0.489   1.272
    1   AR   Ar  198   5.127   1.443   1.785
    1   AR   Ar  199   5.883   0.734   2.179
    1   AR   Ar  200   6.669   1.627   1.763
    1   AR   Ar  201   4.601   6.346   3.229
    1   AR   Ar  202   5.170   1.066   4.134
    1   AR   Ar  203   6.835   6.651   4.627
    1   AR   Ar  204   6.295   0.314   3.215
    1   AR   Ar  205   5.767   6.614   3.941
    1   AR   Ar  206   5.101   6.774   4.949
    1   AR   Ar  207   0.091   6.857   5.876
    1   AR   Ar  208   6.109   0.471   4.250
    1   AR   Ar  209   6.630   1.908  -0.922
    1   AR   Ar  210   4.904   2.729   1.613
    1   AR   Ar  211   5.987   2.492   0.908
    1   AR   Ar  212   6.799   3.855  -0.349
    1   AR   Ar  213   4.845   2.192   2.611
    1   AR   Ar  214   4.235   3.566   2.265
    1   AR   Ar  215   6.126   2.115   2.450
    1   AR   Ar  216   6.135   3.155   1.973
    1   AR   Ar  217   5.317   2.384   3.705
    1   AR   Ar  218   5.478   1.931   4.653
    1   AR   Ar  219   5.725   1.233   3.153
    1   AR   Ar  220   6.325   2.980   2.981
    1   AR   Ar  221   5.640   0.813   5.220
    1   AR   Ar  222   4.498   2.537   6.429
    1   AR   Ar  223   6.944   1.975   7.389
    1   AR   Ar  224   6.015   2.345   5.480
    1   AR   Ar  225   5.300   4.384  -0.077
    1   AR   Ar  226   4.782   4.565   2.170
    1   AR   Ar  227   6.820   3.947   1.847
    1   AR   Ar  228   6.856   4.577   0.677
    1   AR   Ar  229   6.503   3.455   0.697
    1   AR   Ar  230   4.644   4.290   3.295
    1   AR   Ar  231   0.043   2.729   3.615
    1   AR   Ar  232   5.434   3.743   1.607
    1   AR   Ar  233   6.224   2.806   4.061
    1   AR   Ar  234   5.759   3.988   4.870
    1   AR   Ar  235   6.713   3.859   4.555
    1   AR   Ar  236   6.041   3.988   3.718
    1   AR   Ar  237   5.448   2.973   4.790
    1   AR   Ar  238   4.863   4.319   6.251
    1   AR   Ar  239   5.789   3.842   7.967
    1   AR   Ar  240   6.286   3.524   5.573
    1   AR   Ar  241   6.902   0.458   0.030
    1   AR   Ar  242   4.886   6.117   1.604
    1   AR   Ar  243   5.999   4.637   2.263
    1   AR   Ar  244   6.114   6.875   0.556
    1   AR   Ar  245   5.330   5.594   2.363
    1   AR   Ar  246   5.750   6.689   2.880
    1   AR   Ar  247   5.465   3.803   2.722
    1   AR   Ar  248   5.905   6.652   1.589
    1   AR   Ar  249   6.187   5.080   3.246
    1   AR   Ar  250   4.612   5.640   4.097
    1   AR   Ar  251   5.643   5.177   4.098
    1   AR   Ar  252   6.711   5.966   3.807
    1   AR   Ar  253   5.386   5.313   5.301
    1   AR   Ar  254   5.652   5.873   6.558
    1   AR   Ar  255   6.013   4.590   5.759
    1   AR   Ar  256   5.949   5.915   4.777
    7.12000  7.12000 12.00000
Argon-slab step 755
  256
    1   AR   Ar    1   0.964   0.873  -0.610
    1   AR   Ar    2   0.252   0.449   1.007
    1   AR   Ar    3   1.015   6.442   0.488
    1   AR   Ar    4   1.406   0.604   0.427
    1   AR   Ar    5   7.048   6.595   1.291
    1   AR   Ar    6   0.613   0.385   2.891
    1   AR   Ar    7   0.201   6.645   2.360
    1   AR   Ar    8   1.078   7.074   1.436
    1   AR   Ar    9   0.339   0.324   4.364
    1   AR   Ar   10   0.116   1.567   4.538
    1   AR   Ar   11   1.420   0.292   4.178
    1   AR   Ar   12   1.003   0.978   3.578
    1   AR   Ar   13   6.851   0.500   5.117
    1   AR   Ar   14   0.455   1.503   6.138
    1   AR   Ar   15   1.492   6.359   7.065
    1   AR   Ar   16   1.097   1.167   5.434
    1   AR   Ar   17   6.782   1.642   0.153
    1   AR   Ar   18   6.989   2.657   0.353
    1   AR   Ar   19   0.617   1.744   0.709
    1   AR   Ar   20   0.307   2.602  -0.574
    1   AR   Ar   21   6.878   0.393   1.943
    1   AR   Ar   22   0.043   2.423   2.556
    1   AR   Ar   23   6.891   1.112   2.787
    1   AR   Ar   24   0.315   2.521   1.566
    1   AR   Ar   25   0.482   1.803   3.545
    1   AR   Ar   26   6.502   1.603   3.687
    1   AR   Ar   27   0.792   2.132   5.455
    1   AR   Ar   28   1.055   2.702   4.427
    1   AR   Ar   29   6.644   1.561   5.695
    1   AR   Ar   30   7.016   2.408   6.307
    1   AR   Ar   31   1.225   1.519   7.090
    1   AR   Ar   32   1.244   3.014   5.884
    1   AR   Ar   33   0.981   3.551  -0.392
    1   AR   Ar   34   0.442   5.025   1.200
    1   AR   Ar   35   0.436   3.353   0.864
    1   AR   Ar   36   1.694   6.037  -1.166
    1   AR   Ar   37   0.188   3.430   2.750
    1   AR   Ar   38   7.094   4.829   2.345
    1   AR   Ar   39   1.099   3.961   2.582
    1   AR   Ar   40   1.408   4.454   1.550
    1   AR   Ar   41   1.011   2.724   2.633
    1   AR   Ar   42   6.637   5.174   4.705
    1   AR   Ar   43   7.056   2.764   4.624
    1   AR   Ar   44   0.699   3.709   3.669
    1   AR   Ar   45   0.238   3.833   5.602
    1   AR   Ar   46   6.818   4.420   6.736
    1   AR   Ar   47   0.391   3.638   6.889
    1   AR   Ar   48   0.969   4.590   6.118
    1   AR   Ar   49   0.214   4.781  -0.353
    1   AR   Ar   50   6.238   5.691   1.258
    1   AR   Ar   51   0.944   4.335   0.690
    1   AR   Ar   52   0.942   5.334   0.143
    1   AR   Ar   53   6.737   5.791   2.379
    1   AR   Ar   54   0.069   6.824   3.396
    1   AR   Ar   55   0.413   5.752   3.211
    1   AR   Ar   56   0.891   6.120   1.545
    1   AR   Ar   57   6.812   4.186   3.171
    1   AR   Ar   58   0.437   5.793   4.286
    1   AR   Ar   59   1.536   6.181   4.804
    1   AR   Ar   60   1.063   6.441   3.775
    1   AR   Ar   61   6.729   5.812   5.923
    1   AR   Ar   62   0.538   6.162   5.249
    1   AR   Ar   63   1.525   5.683   5.731
    1   AR   Ar   64   0.926   0.152   5.193
    1   AR   Ar   65   1.874   6.250  -0.020
    1   AR   Ar   66   1.632   0.864   1.392
    1   AR   Ar   67   2.951   6.023  -0.266
    1   AR   Ar   68   3.994   0.895   0.692
    1   AR   Ar   69   2.212   7.067   0.865
    1   AR   Ar   70   1.474   0.222   2.329
    1   AR   Ar   71   2.480   7.053   2.289
    1   AR   Ar   72   2.830   0.819   1.373
    1   AR   Ar   73   1.783   6.731   3.191
    1   AR   Ar   74   1.731   1.387   4.432
    1   AR   Ar   75   2.555   0.720   4.709
    1   AR   Ar   76   2.104   0.947   3.582
    1   AR   Ar   77   1.993   0.213   5.324
    1   AR   Ar   78   1.501   0.500   6.504
    1   AR   Ar   79   2.543   6.928   6.892
    1   AR   Ar   80   2.998   0.478   5.974
    1   AR   Ar   81   2.079   1.449   0.359
    1   AR   Ar   82   1.796   3.642   0.763
    1   AR   Ar   83   2.683   1.822   1.789
    1   AR   Ar   84   1.999   2.706  -0.623
    1   AR   Ar   85   1.368   1.973   1.508
    1   AR   Ar   86   2.013   2.553   2.584
    1   AR   Ar   87   1.866   1.398   2.394
    1   AR   Ar   88   3.293   3.572   1.675
    1   AR   Ar   89   0.649   1.328   2.271
    1   AR   Ar   90   2.877   2.556   5.034
    1   AR   Ar   91   2.512   2.024   4.018
    1   AR   Ar   92   1.561   1.876   3.358
    1   AR   Ar   93   1.593   1.847   6.100
    1   AR   Ar   94   2.141   1.886   7.199
    1   AR   Ar   95   2.115   0.809   7.256
    1   AR   Ar   96   2.608   2.163   6.365
    1   AR   Ar   97   1.995   3.876  -0.916
    1   AR   Ar   98   3.053   4.628   1.505
    1   AR   Ar   99   3.115   3.010  -1.177
    1   AR   Ar  100   2.085   5.028  -0.205
    1   AR   Ar  101   1.259   3.299   1.683
    1   AR   Ar  102   2.021   4.082   3.448
    1   AR   Ar  103   2.236   3.866   2.132
    1   AR   Ar  104   2.902   3.913   0.571
    1   AR   Ar  105   1.797   3.016   3.527
    1   AR   Ar  106   2.211   3.261   4.540
    1   AR   Ar  107   2.774   4.204   5.544
    1   AR   Ar  108   3.054   3.672   3.691
    1   AR   Ar  109   0.471   4.331   4.629
    1   AR   Ar  110   1.823   4.042   5.571
    1   AR   Ar  111   3.570   5.316   7.065
    1   AR   Ar  112   2.428   3.354   6.081
    1   AR   Ar  113   2.117   4.678   0.885
    1   AR   Ar  114   1.832   5.708   0.920
    1   AR   Ar  115   3.388   5.096   0.725
    1   AR   Ar  116   2.954   0.068   0.204
    1   AR   Ar  117   1.576   4.919   2.494
    1   AR   Ar  118   1.180   6.092   2.595
    1   AR   Ar  119   2.600   4.853   2.727
    1   AR   Ar  120   2.219   5.228   1.782
    1   AR   Ar  121   1.060   4.824   3.585
    1   AR   Ar  122   2.696   6.489   4.451
    1   AR   Ar  123   2.212   5.352   4.444
    1   AR   Ar  124   2.306   6.003   2.711
    1   AR   Ar  125   1.175   5.217   4.867
    1   AR   Ar  126   1.018   6.668   6.033
    1   AR   Ar  127   2.549   5.605   7.410
    1   AR   Ar  128   2.257   6.462   5.992
    1   AR   Ar  129   2.922   6.147   0.815
    1   AR   Ar  130   3.497   0.139  -0.753
    1   AR   Ar  131   4.573   6.592   0.423
    1   AR   Ar  132   5.426   2.163  -0.776
    1   AR   Ar  133   3.736   6.899   2.736
    1   AR   Ar  134   2.880   0.720   2.676
    1   AR   Ar  135   5.121   0.302   2.887
    1   AR   Ar  136   3.922   0.524   1.953
    1   AR   Ar  137   3.205   0.131   3.626
    1   AR   Ar  138   4.176   1.227   5.034
    1   AR   Ar  139   4.191   0.255   3.897
    1   AR   Ar  140   4.547   1.479   3.367
    1   AR   Ar  141   3.430   7.109   4.730
    1   AR   Ar  142   3.997   0.096   5.497
    1   AR   Ar  143   5.058   6.982   6.031
    1   AR   Ar  144   4.935   1.186   6.847
    1   AR   Ar  145   2.521   2.297   0.213
    1   AR   Ar  146   4.083   2.828   1.120
    1   AR   Ar  147   5.189   1.790   0.407
    1   AR   Ar  148   5.974   2.888  -0.139
    1   AR   Ar  149   3.659   1.734   1.360
    1   AR   Ar  150   2.712   1.610   3.140
    1   AR   Ar  151   3.721   2.156   3.078
    1   AR   Ar  152   3.586   2.568   2.206
    1   AR   Ar  153   3.301   1.169   4.007
    1   AR   Ar  154   3.991   1.973   4.252
    1   AR   Ar  155   5.015   1.968   5.671
    1   AR   Ar  156   4.827   3.830   4.313
    1   AR   Ar  157   3.724   2.304   5.624
    1   AR   Ar  158   3.564   2.413   7.051
    1   AR   Ar  159   3.814   1.017   6.121
    1   AR   Ar  160   4.389   2.892   5.065
    1   AR   Ar  161   4.649   2.735  -0.028
    1   AR   Ar  162   4.740   5.031   0.682
    1   AR   Ar  163   4.960   3.373   0.582
    1   AR   Ar  164   5.715   4.618   0.935
    1   AR   Ar  165   3.398   3.820   2.596
    1   AR   Ar  166   3.332   4.745   3.570
    1   AR   Ar  167   4.550   3.186   3.243
    1   AR   Ar  168   4.201   4.070   1.176
    1   AR   Ar  169   2.903   2.679   3.230
    1   AR   Ar  170   2.684   4.407   4.423
    1   AR   Ar  171   3.754   3.695   4.501
    1   AR   Ar  172   4.227   4.743   4.355
    1   AR   Ar  173   3.460   3.249   5.932
    1   AR   Ar  174   4.114   5.256   6.111
    1   AR   Ar  175   3.468   4.333   6.431
    1   AR   Ar  176   3.835   4.504   5.378
    1   AR   Ar  177   5.371   5.841   0.372
    1   AR   Ar  178   3.871   6.819   1.222
    1   AR   Ar  179   3.991   4.992   1.586
    1   AR   Ar  180   4.389   5.683  -0.052
    1   AR   Ar  181   3.225   5.741   1.968
    1   AR   Ar  182   2.288   6.354   1.585
    1   AR   Ar  183   3.627   4.791   2.588
    1   AR   Ar  184   4.282   5.765   2.341
    1   AR   Ar  185   1.815   5.692   3.539
    1   AR   Ar  186   3.319   5.644   4.205
    1   AR   Ar  187   4.467   5.189   3.106
    1   AR   Ar  188   3.360   5.979   3.204
    1   AR   Ar  189   2.762   5.225   5.562
    1   AR   Ar  190   4.113   6.652   6.529
    1   AR   Ar  191   4.442   5.822   5.232
    1   AR   Ar  192   3.461   6.068   5.115
    1   AR   Ar  193   5.533   0.164  -0.114
    1   AR   Ar  194   4.402   0.403  -0.163
    1   AR   Ar  195   5.875   1.249   1.092
    1   AR   Ar  196   5.974   1.076  -0.312
    1   AR   Ar  197   5.028   0.489   1.255
    1   AR   Ar  198   5.097   1.452   1.787
    1   AR   Ar  199   5.892   0.720   2.153
    1   AR   Ar  200   6.668   1.638   1.769
    1   AR   Ar  201   4.623   6.349   3.198
    1   AR   Ar  202   5.152   1.077   4.142
    1   AR   Ar  203   6.813   6.664   4.588
    1   AR   Ar  204   6.282   0.311   3.224
    1   AR   Ar  205   5.757   6.648   3.928
    1   AR   Ar  206   5.070   6.768   4.935
    1   AR   Ar  207   0.102   6.878   5.867
    1   AR   Ar  208   6.134   0.472   4.236
    1   AR   Ar  209   6.653   1.917  -0.954
    1   AR   Ar  210   4.924   2.722   1.655
    1   AR   Ar  211   5.976   2.484   0.915
    1   AR   Ar  212   6.791   3.846  -0.344
    1   AR   Ar  213   4.864   2.222   2.607
    1   AR   Ar  214   4.241   3.566   2.246
    1   AR   Ar  215   6.155   2.112   2.432
    1   AR   Ar  216   6.134   3.191   1.980
    1   AR   Ar  217   5.332   2.386   3.720
    1   AR   Ar  218   5.463   1.945   4.649
    1   AR   Ar  219   5.695   1.246   3.177
    1   AR   Ar  220   6.320   3.007   2.978
    1   AR   Ar  221   5.638   0.836   5.218
    1   AR   Ar  222   4.490   2.558   6.435
    1   AR   Ar  223   6.930   1.962   7.379
    1   AR   Ar  224   6.004   2.363   5.513
    1   AR   Ar  225   5.284   4.377  -0.078
    1   AR   Ar  226   4.772   4.567   2.133
    1   AR   Ar  227   6.848   3.949   1.845
    1   AR   Ar  228   6.859   4.617   0.642
    1   AR   Ar  229   6.499   3.485   0.740
    1   AR   Ar  230   4.634   4.238   3.275
    1   AR   Ar  231   0.065   2.717   3.597
    1   AR   Ar  232   5.420   3.749   1.581
    1   AR   Ar  233   6.226   2.790   4.072
    1   AR   Ar  234   5.791   3.996   4.869
    1   AR   Ar  235   6.726   3.885   4.550
    1   AR   Ar  236   6.029   3.981   3.723
    1   AR   Ar  237   5.438   2.990   4.758
    1   AR   Ar  238   4.866   4.281   6.278
    1   AR   Ar  239   5.799   3.851   7.949
    1   AR   Ar  240   6.322   3.522   5.552
    1   AR   Ar  241   6.900   0.433   0.020
    1   AR   Ar  242   4.860   6.100   1.599
    1   AR   Ar  243   5.947   4.612   2.239
    1   AR   Ar  244   6.137   6.845   0.524
    1   AR   Ar  245   5.331   5.591   2.375
    1   AR   Ar  246   5.747   6.710   2.885
    1   AR   Ar  247   5.442   3.814   2.740
    1   AR   Ar  248   5.928   6.700   1.558
    1   AR   Ar  249   6.153   5.075   3.260
    1   AR   Ar  250   4.593   5.617   4.090
    1   AR   Ar  251   5.654   5.189   4.135
    1   AR   Ar  252   6.708   5.926   3.823
    1   AR   Ar  253   5.397   5.315   5.307
    1   AR   Ar  254   5.644   5.876   6.577
    1   AR   Ar  255   5.985   4.590   5.778
    1   AR   Ar  256   5.965   5.950   4.767
    7.12000  7.12000 12.00000
Argon-slab step 760
  256
    1   AR   Ar    1   0.956   0.860  -0.615
    1   AR   Ar    2   0.220   0.461   1.008
    1   AR   Ar    3   1.015   6.443   0.496
    1   AR   Ar    4   1.384   0.601   0.437
    1   AR   Ar    5   7.052   6.582   1.263
    1   AR   Ar    6   0.619   0.391   2.884
    1   AR   Ar    7   0.218   6.633   2.343
    1   AR   Ar    8   1.106   7.092   1.441
    1   AR   Ar    9   0.364   0.358   4.360
    1   AR   Ar   10   0.093   1.579   4.522
    1   AR   Ar   11   1.438   0.305   4.186
    1   AR   Ar   12   1.034   0.955   3.585
    1   AR   Ar   13   6.850   0.517   5.115
    1   AR   Ar   14   0.443   1.504   6.156
    1   AR   Ar   15   1.483   6.360   7.035
    1   AR   Ar   16   1.110   1.158   5.441
    1   AR   Ar   17   6.770   1.643   0.175
    1   AR   Ar   18   6.963   2.623   0.339
    1   AR   Ar   19   0.616   1.749   0.725
    1   AR   Ar   20   0.262   2.605  -0.578
    1   AR   Ar   21   6.839   0.373   1.964
    1   AR   Ar   22   0.038   2.386   2.529
    1   AR   Ar   23   6.887   1.087   2.784
    1   AR   Ar   24   0.317   2.497   1.553
    1   AR   Ar   25   0.480   1.805   3.549
    1   AR   Ar   26   6.509   1.570   3.674
    1   AR   Ar   27   0.815   2.134   5.458
    1   AR   Ar   28   1.048   2.707   4.434
    1   AR   Ar   29   6.631   1.581   5.699
    1   AR   Ar   30   6.998   2.413   6.332
    1   AR   Ar   31   1.238   1.550   7.133
    1   AR   Ar   32   1.262   3.039   5.860
    1   AR   Ar   33   0.964   3.570  -0.372
    1   AR   Ar   34   0.445   5.019   1.207
    1   AR   Ar   35   0.450   3.378   0.842
    1   AR   Ar   36   1.685   6.069  -1.154
    1   AR   Ar   37   0.198   3.446   2.764
    1   AR   Ar   38   7.112   4.823   2.324
    1   AR   Ar   39   1.097   3.963   2.560
    1   AR   Ar   40   1.408   4.432   1.567
    1   AR   Ar   41   1.016   2.714   2.622
    1   AR   Ar   42   6.636   5.178   4.708
    1   AR   Ar   43   7.089   2.728   4.670
    1   AR   Ar   44   0.712   3.717   3.687
    1   AR   Ar   45   0.277   3.819   5.621
    1   AR   Ar   46   6.827   4.442   6.727
    1   AR   Ar   47   0.395   3.624   6.883
    1   AR   Ar   48   0.975   4.600   6.117
    1   AR   Ar   49   0.238   4.792  -0.357
    1   AR   Ar   50   6.233   5.683   1.238
    1   AR   Ar   51   0.954   4.351   0.670
    1   AR   Ar   52   0.956   5.320   0.132
    1   AR   Ar   53   6.736   5.811   2.403
    1   AR   Ar   54   0.044   6.828   3.390
    1   AR   Ar   55   0.417   5.749   3.196
    1   AR   Ar   56   0.881   6.114   1.557
    1   AR   Ar   57   6.807   4.186   3.162
    1   AR   Ar   58   0.405   5.816   4.260
    1   AR   Ar   59   1.558   6.175   4.798
    1   AR   Ar   60   1.077   6.413   3.801
    1   AR   Ar   61   6.736   5.807   5.913
    1   AR   Ar   62   0.524   6.148   5.218
    1   AR   Ar   63   1.523   5.683   5.744
    1   AR   Ar   64   0.921   0.164   5.172
    1   AR   Ar   65   1.897   6.244  -0.028
    1   AR   Ar   66   1.641   0.878   1.409
    1   AR   Ar   67   2.988   6.030  -0.259
    1   AR   Ar   68   4.009   0.882   0.683
    1   AR   Ar   69   2.216   7.084   0.864
    1   AR   Ar   70   1.484   0.186   2.334
    1   AR   Ar   71   2.498   7.057   2.277
    1   AR   Ar   72   2.837   0.820   1.361
    1   AR   Ar   73   1.790   6.697   3.164
    1   AR   Ar   74   1.736   1.374   4.400
    1   AR   Ar   75   2.586   0.721   4.698
    1   AR   Ar   76   2.104   0.941   3.564
    1   AR   Ar   77   1.986   0.213   5.352
    1   AR   Ar   78   1.438   0.507   6.514
    1   AR   Ar   79   2.538   6.924   6.890
    1   AR   Ar   80   3.019   0.409   5.930
    1   AR   Ar   81   2.041   1.472   0.374
    1   AR   Ar   82   1.796   3.610   0.719
    1   AR   Ar   83   2.687   1.819   1.782
    1   AR   Ar   84   2.017   2.729  -0.612
    1   AR   Ar   85   1.356   1.971   1.499
    1   AR   Ar   86   2.023   2.567   2.611
    1   AR   Ar   87   1.858   1.389   2.394
    1   AR   Ar   88   3.297   3.582   1.689
    1   AR   Ar   89   0.635   1.342   2.259
    1   AR   Ar   90   2.854   2.564   5.023
    1   AR   Ar   91   2.525   2.044   3.982
    1   AR   Ar   92   1.560   1.880   3.383
    1   AR   Ar   93   1.562   1.829   6.070
    1   AR   Ar   94   2.149   1.889   7.240
    1   AR   Ar   95   2.129   0.820   7.260
    1   AR   Ar   96   2.629   2.170   6.389
    1   AR   Ar   97   2.011   3.851  -0.954
    1   AR   Ar   98   3.022   4.629   1.530
    1   AR   Ar   99   3.120   2.985  -1.186
    1   AR   Ar  100   2.073   5.038  -0.177
    1   AR   Ar  101   1.294   3.306   1.688
    1   AR   Ar  102   2.010   4.077   3.452
    1   AR   Ar  103   2.211   3.872   2.111
    1   AR   Ar  104   2.920   3.915   0.568
    1   AR   Ar  105   1.794   2.951   3.557
    1   AR   Ar  106   2.240   3.254   4.563
    1   AR   Ar  107   2.768   4.194   5.545
    1   AR   Ar  108   3.061   3.661   3.724
    1   AR   Ar  109   0.476   4.361   4.615
    1   AR   Ar  110   1.811   4.052   5.591
    1   AR   Ar  111   3.601   5.333   7.092
    1   AR   Ar  112   2.418   3.346   6.077
    1   AR   Ar  113   2.155   4.684   0.897
    1   AR   Ar  114   1.857   5.693   0.919
    1   AR   Ar  115   3.395   5.084   0.712
    1   AR   Ar  116   2.970   0.082   0.226
    1   AR   Ar  117   1.583   4.905   2.506
    1   AR   Ar  118   1.195   6.070   2.594
    1   AR   Ar  119   2.604   4.822   2.756
    1   AR   Ar  120   2.195   5.253   1.783
    1   AR   Ar  121   1.090   4.829   3.571
    1   AR   Ar  122   2.716   6.486   4.468
    1   AR   Ar  123   2.213   5.379   4.452
    1   AR   Ar  124   2.277   6.029   2.697
    1   AR   Ar  125   1.169   5.226   4.867
    1   AR   Ar  126   1.045   6.701   6.036
    1   AR   Ar  127   2.544   5.596   7.441
    1   AR   Ar  128   2.244   6.461   6.004
    1   AR   Ar  129   2.893   6.164   0.813
    1   AR   Ar  130   3.489   0.135  -0.769
    1   AR   Ar  131   4.588   6.578   0.429
    1   AR   Ar  132   5.480   2.169  -0.754
    1   AR   Ar  133   3.713   6.908   2.733
    1   AR   Ar  134   2.910   0.746   2.671
    1   AR   Ar  135   5.127   0.324   2.896
    1   AR   Ar  136   3.919   0.530   1.981
    1   AR   Ar  137   3.193   0.118   3.617
    1   AR   Ar  138   4.194   1.208   5.087
    1   AR   Ar  139   4.177   0.250   3.906
    1   AR   Ar  140   4.488   1.486   3.356
    1   AR   Ar  141   3.414   7.076   4.715
    1   AR   Ar  142   4.031   0.065   5.527
    1   AR   Ar  143   5.024   6.998   6.038
    1   AR   Ar  144   4.910   1.170   6.870
    1   AR   Ar  145   2.507   2.300   0.171
    1   AR   Ar  146   4.101   2.807   1.094
    1   AR   Ar  147   5.148   1.779   0.427
    1   AR   Ar  148   5.969   2.889  -0.186
    1   AR   Ar  149   3.657   1.709   1.329
    1   AR   Ar  150   2.717   1.613   3.138
    1   AR   Ar  151   3.687   2.155   3.057
    1   AR   Ar  152   3.589   2.548   2.201
    1   AR   Ar  153   3.299   1.181   4.008
    1   AR   Ar  154   3.998   1.969   4.246
    1   AR   Ar  155   5.055   1.967   5.678
    1   AR   Ar  156   4.793   3.827   4.314
    1   AR   Ar  157   3.727   2.302   5.624
    1   AR   Ar  158   3.549   2.426   7.031
    1   AR   Ar  159   3.858   1.037   6.120
    1   AR   Ar  160   4.365   2.873   5.078
    1   AR   Ar  161   4.645   2.685  -0.023
    1   AR   Ar  162   4.734   5.046   0.702
    1   AR   Ar  163   4.977   3.371   0.579
    1   AR   Ar  164   5.713   4.592   0.942
    1   AR   Ar  165   3.374   3.790   2.597
    1   AR   Ar  166   3.314   4.728   3.577
    1   AR   Ar  167   4.546   3.199   3.244
    1   AR   Ar  168   4.236   4.017   1.155
    1   AR   Ar  169   2.873   2.668   3.243
    1   AR   Ar  170   2.683   4.374   4.419
    1   AR   Ar  171   3.794   3.700   4.497
    1   AR   Ar  172   4.247   4.758   4.340
    1   AR   Ar  173   3.475   3.256   5.918
    1   AR   Ar  174   4.126   5.270   6.123
    1   AR   Ar  175   3.462   4.334   6.430
    1   AR   Ar  176   3.824   4.507   5.350
    1   AR   Ar  177   5.397   5.821   0.388
    1   AR   Ar  178   3.866   6.826   1.229
    1   AR   Ar  179   3.983   5.003   1.586
    1   AR   Ar  180   4.390   5.722  -0.053
    1   AR   Ar  181   3.223   5.756   1.947
    1   AR   Ar  182   2.259   6.341   1.589
    1   AR   Ar  183   3.664   4.772   2.580
    1   AR   Ar  184   4.271   5.788   2.336
    1   AR   Ar  185   1.791   5.677   3.583
    1   AR   Ar  186   3.327   5.635   4.212
    1   AR   Ar  187   4.474   5.190   3.128
    1   AR   Ar  188   3.359   5.979   3.204
    1   AR   Ar  189   2.788   5.261   5.542
    1   AR   Ar  190   4.111   6.636   6.531
    1   AR   Ar  191   4.422   5.830   5.213
    1   AR   Ar  192   3.462   6.045   5.127
    1   AR   Ar  193   5.551   0.164  -0.108
    1   AR   Ar  194   4.384   0.360  -0.198
    1   AR   Ar  195   5.893   1.248   1.089
    1   AR   Ar  196   5.991   1.069  -0.328
    1   AR   Ar  197   5.060   0.487   1.237
    1   AR   Ar  198   5.154   1.432   1.783
    1   AR   Ar  199   5.899   0.707   2.128
    1   AR   Ar  200   6.679   1.640   1.764
    1   AR   Ar  201   4.646   6.353   3.167
    1   AR   Ar  202   5.134   1.084   4.150
    1   AR   Ar  203   6.788   6.674   4.551
    1   AR   Ar  204   6.280   0.321   3.235
    1   AR   Ar  205   5.747   6.678   3.918
    1   AR   Ar  206   5.039   6.761   4.920
    1   AR   Ar  207   0.092   6.906   5.856
    1   AR   Ar  208   6.159   0.476   4.227
    1   AR   Ar  209   6.673   1.926  -0.985
    1   AR   Ar  210   4.954   2.715   1.699
    1   AR   Ar  211   5.965   2.477   0.924
    1   AR   Ar  212   6.782   3.833  -0.337
    1   AR   Ar  213   4.883   2.251   2.605
    1   AR   Ar  214   4.248   3.593   2.234
    1   AR   Ar  215   6.170   2.114   2.426
    1   AR   Ar  216   6.144   3.203   1.971
    1   AR   Ar  217   5.343   2.377   3.735
    1   AR   Ar  218   5.449   1.956   4.650
    1   AR   Ar  219   5.661   1.258   3.196
    1   AR   Ar  220   6.314   3.037   2.982
    1   AR   Ar  221   5.636   0.860   5.215
    1   AR   Ar  222   4.483   2.562   6.447
    1   AR   Ar  223   6.917   1.949   7.367
    1   AR   Ar  224   5.994   2.386   5.545
    1   AR   Ar  225   5.268   4.369  -0.078
    1   AR   Ar  226   4.755   4.565   2.097
    1   AR   Ar  227   6.877   3.949   1.841
    1   AR   Ar  228   6.853   4.650   0.601
    1   AR   Ar  229   6.490   3.520   0.785
    1   AR   Ar  230   4.624   4.178   3.258
    1   AR   Ar  231   0.088   2.713   3.575
    1   AR   Ar  232   5.397   3.762   1.550
    1   AR   Ar  233   6.223   2.775   4.079
    1   AR   Ar  234   5.808   4.014   4.862
    1   AR   Ar  235   6.737   3.902   4.540
    1   AR   Ar  236   6.008   3.966   3.729
    1   AR   Ar  237   5.426   3.008   4.726
    1   AR   Ar  238   4.869   4.243   6.304
    1   AR   Ar  239   5.809   3.861   7.931
    1   AR   Ar  240   6.363   3.513   5.538
    1   AR   Ar  241   6.897   0.410   0.009
    1   AR   Ar  242   4.838   6.088   1.582
    1   AR   Ar  243   5.896   4.589   2.213
    1   AR   Ar  244   6.168   6.810   0.499
    1   AR   Ar  245   5.336   5.585   2.392
    1   AR   Ar  246   5.749   6.699   2.878
    1   AR   Ar  247   5.421   3.821   2.756
    1   AR   Ar  248   5.951   6.750   1.531
    1   AR   Ar  249   6.123   5.070   3.266
    1   AR   Ar  250   4.579   5.607   4.081
    1   AR   Ar  251   5.661   5.198   4.177
    1   AR   Ar  252   6.687   5.887   3.833
    1   AR   Ar  253   5.402   5.314   5.315
    1   AR   Ar  254   5.628   5.873   6.596
    1   AR   Ar  255   5.960   4.588   5.799
    1   AR   Ar  256   5.985   5.997   4.756
    7.12000  7.12000 12.00000
Argon-slab step 765
  256
    1   AR   Ar    1   0.947   0.846  -0.618
    1   AR   Ar    2   0.190   0.475   1.008
    1   AR   Ar    3   1.002   6.450   0.504
    1   AR   Ar    4   1.359   0.595   0.445
    1   AR   Ar    5   7.056   6.568   1.238
    1   AR   Ar    6   0.617   0.385   2.878
    1   AR   Ar    7   0.241   6.624   2.326
    1   AR   Ar    8   1.132   7.111   1.435
    1   AR   Ar    9   0.389   0.393   4.339
    1   AR   Ar   10   0.071   1.590   4.509
    1   AR   Ar   11   1.464   0.307   4.203
    1   AR   Ar   12   1.064   0.940   3.591
    1   AR   Ar   13   6.844   0.539   5.120
    1   AR   Ar   14   0.432   1.499   6.185
    1   AR   Ar   15   1.476   6.363   7.003
    1   AR   Ar   16   1.127   1.139   5.441
    1   AR   Ar   17   6.759   1.638   0.190
    1   AR   Ar   18   6.934   2.596   0.333
    1   AR   Ar   19   0.613   1.753   0.741
    1   AR   Ar   20   0.221   2.611  -0.586
    1   AR   Ar   21   6.805   0.350   1.983
    1   AR   Ar   22   0.031   2.346   2.508
    1   AR   Ar   23   6.879   1.064   2.782
    1   AR   Ar   24   0.320   2.475   1.535
    1   AR   Ar   25   0.478   1.802   3.550
    1   AR   Ar   26   6.519   1.539   3.665
    1   AR   Ar   27   0.831   2.150   5.449
    1   AR   Ar   28   1.043   2.712   4.441
    1   AR   Ar   29   6.618   1.598   5.700
    1   AR   Ar   30   6.980   2.420   6.357
    1   AR   Ar   31   1.237   1.575   7.171
    1   AR   Ar   32   1.280   3.065   5.836
    1   AR   Ar   33   0.946   3.589  -0.350
    1   AR   Ar   34   0.442   5.015   1.230
    1   AR   Ar   35   0.466   3.404   0.821
    1   AR   Ar   36   1.676   6.100  -1.141
    1   AR   Ar   37   0.211   3.454   2.770
    1   AR   Ar   38   7.116   4.820   2.306
    1   AR   Ar   39   1.095   3.964   2.538
    1   AR   Ar   40   1.409   4.409   1.592
    1   AR   Ar   41   1.019   2.705   2.613
    1   AR   Ar   42   6.644   5.186   4.736
    1   AR   Ar   43   0.003   2.692   4.720
    1   AR   Ar   44   0.725   3.724   3.706
    1   AR   Ar   45   0.317   3.805   5.640
    1   AR   Ar   46   6.836   4.465   6.715
    1   AR   Ar   47   0.401   3.609   6.876
    1   AR   Ar   48   0.981   4.611   6.114
    1   AR   Ar   49   0.259   4.798  -0.364
    1   AR   Ar   50   6.242   5.700   1.205
    1   AR   Ar   51   0.978   4.333   0.676
    1   AR   Ar   52   0.976   5.311   0.127
    1   AR   Ar   53   6.729   5.830   2.427
    1   AR   Ar   54   0.016   6.827   3.390
    1   AR   Ar   55   0.418   5.745   3.180
    1   AR   Ar   56   0.870   6.099   1.568
    1   AR   Ar   57   6.803   4.196   3.154
    1   AR   Ar   58   0.388   5.830   4.246
    1   AR   Ar   59   1.582   6.178   4.790
    1   AR   Ar   60   1.087   6.391   3.830
    1   AR   Ar   61   6.742   5.803   5.901
    1   AR   Ar   62   0.512   6.134   5.192
    1   AR   Ar   63   1.522   5.683   5.762
    1   AR   Ar   64   0.918   0.171   5.153
    1   AR   Ar   65   1.925   6.238  -0.037
    1   AR   Ar   66   1.656   0.899   1.432
    1   AR   Ar   67   3.025   6.036  -0.251
    1   AR   Ar   68   4.023   0.868   0.676
    1   AR   Ar   69   2.210   7.103   0.869
    1   AR   Ar   70   1.497   0.153   2.345
    1   AR   Ar   71   2.516   7.055   2.265
    1   AR   Ar   72   2.840   0.816   1.347
    1   AR   Ar   73   1.797   6.687   3.146
    1   AR   Ar   74   1.736   1.364   4.374
    1   AR   Ar   75   2.621   0.723   4.682
    1   AR   Ar   76   2.125   0.907   3.533
    1   AR   Ar   77   1.976   0.211   5.383
    1   AR   Ar   78   1.374   0.514   6.520
    1   AR   Ar   79   2.533   6.923   6.890
    1   AR   Ar   80   3.037   0.336   5.884
    1   AR   Ar   81   1.997   1.481   0.395
    1   AR   Ar   82   1.796   3.579   0.675
    1   AR   Ar   83   2.691   1.814   1.777
    1   AR   Ar   84   2.032   2.757  -0.607
    1   AR   Ar   85   1.344   1.970   1.492
    1   AR   Ar   86   2.039   2.577   2.632
    1   AR   Ar   87   1.864   1.374   2.364
    1   AR   Ar   88   3.299   3.584   1.675
    1   AR   Ar   89   0.624   1.359   2.246
    1   AR   Ar   90   2.868   2.570   5.037
    1   AR   Ar   91   2.533   2.068   3.965
    1   AR   Ar   92   1.560   1.885   3.407
    1   AR   Ar   93   1.540   1.813   6.050
    1   AR   Ar   94   2.166   1.898   7.286
    1   AR   Ar   95   2.145   0.830   7.265
    1   AR   Ar   96   2.654   2.181   6.406
    1   AR   Ar   97   2.026   3.826  -0.989
    1   AR   Ar   98   2.987   4.623   1.565
    1   AR   Ar   99   3.124   2.959  -1.195
    1   AR   Ar  100   2.060   5.050  -0.147
    1   AR   Ar  101   1.318   3.295   1.703
    1   AR   Ar  102   1.999   4.072   3.456
    1   AR   Ar  103   2.186   3.879   2.090
    1   AR   Ar  104   2.918   3.956   0.561
    1   AR   Ar  105   1.789   2.887   3.589
    1   AR   Ar  106   2.266   3.252   4.583
    1   AR   Ar  107   2.779   4.186   5.543
    1   AR   Ar  108   3.066   3.648   3.754
    1   AR   Ar  109   0.485   4.347   4.591
    1   AR   Ar  110   1.781   4.062   5.610
    1   AR   Ar  111   3.631   5.351   7.118
    1   AR   Ar  112   2.414   3.349   6.076
    1   AR   Ar  113   2.195   4.687   0.902
    1   AR   Ar  114   1.875   5.679   0.909
    1   AR   Ar  115   3.395   5.077   0.689
    1   AR   Ar  116   2.995   0.096   0.243
    1   AR   Ar  117   1.583   4.893   2.526
    1   AR   Ar  118   1.212   6.046   2.589
    1   AR   Ar  119   2.610   4.791   2.784
    1   AR   Ar  120   2.177   5.282   1.787
    1   AR   Ar  121   1.120   4.834   3.557
    1   AR   Ar  122   2.714   6.470   4.478
    1   AR   Ar  123   2.218   5.405   4.467
    1   AR   Ar  124   2.264   6.037   2.668
    1   AR   Ar  125   1.159   5.230   4.863
    1   AR   Ar  126   1.086   6.728   6.043
    1   AR   Ar  127   2.540   5.589   7.471
    1   AR   Ar  128   2.229   6.460   6.013
    1   AR   Ar  129   2.868   6.179   0.807
    1   AR   Ar  130   3.479   0.129  -0.785
    1   AR   Ar  131   4.606   6.573   0.439
    1   AR   Ar  132   5.517   2.169  -0.735
    1   AR   Ar  133   3.690   6.914   2.729
    1   AR   Ar  134   2.946   0.775   2.667
    1   AR   Ar  135   5.123   0.357   2.906
    1   AR   Ar  136   3.916   0.537   2.008
    1   AR   Ar  137   3.165   0.122   3.625
    1   AR   Ar  138   4.212   1.189   5.139
    1   AR   Ar  139   4.169   0.246   3.915
    1   AR   Ar  140   4.431   1.492   3.346
    1   AR   Ar  141   3.411   7.059   4.702
    1   AR   Ar  142   4.069   0.035   5.560
    1   AR   Ar  143   4.990   7.014   6.045
    1   AR   Ar  144   4.885   1.153   6.890
    1   AR   Ar  145   2.495   2.292   0.144
    1   AR   Ar  146   4.116   2.788   1.066
    1   AR   Ar  147   5.108   1.768   0.447
    1   AR   Ar  148   5.969   2.902  -0.236
    1   AR   Ar  149   3.656   1.684   1.300
    1   AR   Ar  150   2.726   1.621   3.121
    1   AR   Ar  151   3.667   2.137   3.055
    1   AR   Ar  152   3.590   2.538   2.174
    1   AR   Ar  153   3.296   1.191   4.007
    1   AR   Ar  154   4.006   1.967   4.241
    1   AR   Ar  155   5.088   1.964   5.684
    1   AR   Ar  156   4.767   3.823   4.314
    1   AR   Ar  157   3.741   2.288   5.624
    1   AR   Ar  158   3.533   2.438   7.009
    1   AR   Ar  159   3.905   1.058   6.121
    1   AR   Ar  160   4.345   2.859   5.087
    1   AR   Ar  161   4.636   2.623  -0.028
    1   AR   Ar  162   4.714   5.067   0.719
    1   AR   Ar  163   5.002   3.380   0.588
    1   AR   Ar  164   5.713   4.567   0.949
    1   AR   Ar  165   3.334   3.765   2.633
    1   AR   Ar  166   3.297   4.711   3.587
    1   AR   Ar  167   4.542   3.197   3.245
    1   AR   Ar  168   4.271   3.962   1.135
    1   AR   Ar  169   2.836   2.669   3.256
    1   AR   Ar  170   2.683   4.381   4.409
    1   AR   Ar  171   3.828   3.704   4.495
    1   AR   Ar  172   4.257   4.754   4.330
    1   AR   Ar  173   3.491   3.268   5.905
    1   AR   Ar  174   4.138   5.283   6.134
    1   AR   Ar  175   3.461   4.328   6.419
    1   AR   Ar  176   3.812   4.510   5.321
    1   AR   Ar  177   5.426   5.804   0.407
    1   AR   Ar  178   3.889   6.824   1.221
    1   AR   Ar  179   3.977   5.019   1.585
    1   AR   Ar  180   4.388   5.754  -0.059
    1   AR   Ar  181   3.220   5.770   1.927
    1   AR   Ar  182   2.231   6.350   1.579
    1   AR   Ar  183   3.704   4.758   2.568
    1   AR   Ar  184   4.248   5.811   2.332
    1   AR   Ar  185   1.766   5.661   3.621
    1   AR   Ar  186   3.336   5.620   4.215
    1   AR   Ar  187   4.474   5.190   3.155
    1   AR   Ar  188   3.359   5.978   3.201
    1   AR   Ar  189   2.813   5.299   5.521
    1   AR   Ar  190   4.107   6.619   6.531
    1   AR   Ar  191   4.405   5.837   5.182
    1   AR   Ar  192   3.453   6.028   5.146
    1   AR   Ar  193   5.558   0.164  -0.108
    1   AR   Ar  194   4.369   0.316  -0.232
    1   AR   Ar  195   5.916   1.246   1.082
    1   AR   Ar  196   6.008   1.067  -0.344
    1   AR   Ar  197   5.091   0.484   1.219
    1   AR   Ar  198   5.164   1.421   1.780
    1   AR   Ar  199   5.900   0.697   2.106
    1   AR   Ar  200   6.701   1.632   1.747
    1   AR   Ar  201   4.671   6.358   3.138
    1   AR   Ar  202   5.115   1.087   4.158
    1   AR   Ar  203   6.765   6.686   4.513
    1   AR   Ar  204   6.277   0.341   3.237
    1   AR   Ar  205   5.736   6.706   3.910
    1   AR   Ar  206   5.008   6.754   4.904
    1   AR   Ar  207   0.070   6.937   5.843
    1   AR   Ar  208   6.185   0.485   4.226
    1   AR   Ar  209   6.691   1.934  -1.013
    1   AR   Ar  210   4.987   2.712   1.740
    1   AR   Ar  211   5.954   2.469   0.934
    1   AR   Ar  212   6.774   3.819  -0.327
    1   AR   Ar  213   4.901   2.278   2.610
    1   AR   Ar  214   4.273   3.616   2.215
    1   AR   Ar  215   6.169   2.122   2.432
    1   AR   Ar  216   6.163   3.188   1.937
    1   AR   Ar  217   5.348   2.368   3.739
    1   AR   Ar  218   5.438   1.963   4.657
    1   AR   Ar  219   5.622   1.270   3.211
    1   AR   Ar  220   6.307   3.069   2.991
    1   AR   Ar  221   5.634   0.885   5.210
    1   AR   Ar  222   4.480   2.542   6.467
    1   AR   Ar  223   6.905   1.935   7.353
    1   AR   Ar  224   5.986   2.415   5.574
    1   AR   Ar  225   5.252   4.362  -0.076
    1   AR   Ar  226   4.741   4.561   2.064
    1   AR   Ar  227   6.906   3.947   1.833
    1   AR   Ar  228   6.841   4.678   0.557
    1   AR   Ar  229   6.478   3.556   0.831
    1   AR   Ar  230   4.608   4.130   3.245
    1   AR   Ar  231   0.109   2.719   3.554
    1   AR   Ar  232   5.388   3.765   1.524
    1   AR   Ar  233   6.224   2.763   4.083
    1   AR   Ar  234   5.809   4.038   4.851
    1   AR   Ar  235   6.746   3.910   4.526
    1   AR   Ar  236   5.978   3.949   3.738
    1   AR   Ar  237   5.413   3.028   4.697
    1   AR   Ar  238   4.871   4.208   6.328
    1   AR   Ar  239   5.819   3.871   7.912
    1   AR   Ar  240   6.407   3.498   5.529
    1   AR   Ar  241   6.894   0.387  -0.001
    1   AR   Ar  242   4.822   6.081   1.553
    1   AR   Ar  243   5.848   4.567   2.185
    1   AR   Ar  244   6.208   6.768   0.480
    1   AR   Ar  245   5.344   5.577   2.411
    1   AR   Ar  246   5.755   6.664   2.860
    1   AR   Ar  247   5.404   3.822   2.769
    1   AR   Ar  248   5.972   6.801   1.508
    1   AR   Ar  249   6.095   5.064   3.267
    1   AR   Ar  250   4.573   5.620   4.070
    1   AR   Ar  251   5.663   5.203   4.220
    1   AR   Ar  252   6.640   5.849   3.832
    1   AR   Ar  253   5.404   5.313   5.322
    1   AR   Ar  254   5.601   5.861   6.615
    1   AR   Ar  255   5.938   4.583   5.822
    1   AR   Ar  256   6.003   6.051   4.747
    7.12000  7.12000 12.00000
Argon-slab step 770
  256
    1   AR   Ar    1   0.939   0.833  -0.620
    1   AR   Ar    2   0.161   0.491   1.009
    1   AR   Ar    3   0.989   6.457   0.515
    1   AR   Ar    4   1.332   0.587   0.453
    1   AR   Ar    5   7.058   6.554   1.217
    1   AR   Ar    6   0.610   0.370   2.873
    1   AR   Ar    7   0.271   6.618   2.308
    1   AR   Ar    8   1.152   0.009   1.419
    1   AR   Ar    9   0.396   0.431   4.352
    1   AR   Ar   10   0.048   1.599   4.501
    1   AR   Ar   11   1.499   0.296   4.231
    1   AR   Ar   12   1.090   0.936   3.592
    1   AR   Ar   13   6.835   0.563   5.129
    1   AR   Ar   14   0.420   1.492   6.202
    1   AR   Ar   15   1.471   6.365   6.970
    1   AR   Ar   16   1.143   1.113   5.435
    1   AR   Ar   17   6.756   1.625   0.184
    1   AR   Ar   18   6.923   2.604   0.294
    1   AR   Ar   19   0.609   1.756   0.756
    1   AR   Ar   20   0.187   2.621  -0.599
    1   AR   Ar   21   6.784   0.323   2.001
    1   AR   Ar   22   0.027   2.316   2.499
    1   AR   Ar   23   6.871   1.045   2.778
    1   AR   Ar   24   0.326   2.454   1.511
    1   AR   Ar   25   0.478   1.793   3.547
    1   AR   Ar   26   6.529   1.511   3.658
    1   AR   Ar   27   0.837   2.173   5.429
    1   AR   Ar   28   1.039   2.717   4.445
    1   AR   Ar   29   6.605   1.610   5.697
    1   AR   Ar   30   6.962   2.428   6.380
    1   AR   Ar   31   1.225   1.595   7.206
    1   AR   Ar   32   1.299   3.092   5.812
    1   AR   Ar   33   0.928   3.608  -0.326
    1   AR   Ar   34   0.440   5.016   1.260
    1   AR   Ar   35   0.482   3.428   0.802
    1   AR   Ar   36   1.668   6.131  -1.126
    1   AR   Ar   37   0.230   3.438   2.811
    1   AR   Ar   38   0.002   4.822   2.292
    1   AR   Ar   39   1.095   3.963   2.519
    1   AR   Ar   40   1.409   4.389   1.620
    1   AR   Ar   41   1.019   2.698   2.605
    1   AR   Ar   42   6.655   5.193   4.764
    1   AR   Ar   43   0.036   2.657   4.771
    1   AR   Ar   44   0.738   3.731   3.723
    1   AR   Ar   45   0.360   3.792   5.659
    1   AR   Ar   46   6.824   4.480   6.682
    1   AR   Ar   47   0.408   3.593   6.866
    1   AR   Ar   48   0.985   4.622   6.112
    1   AR   Ar   49   0.275   4.799  -0.375
    1   AR   Ar   50   6.208   5.706   1.197
    1   AR   Ar   51   1.003   4.314   0.672
    1   AR   Ar   52   1.003   5.306   0.128
    1   AR   Ar   53   6.716   5.845   2.451
    1   AR   Ar   54   7.108   6.821   3.396
    1   AR   Ar   55   0.418   5.739   3.164
    1   AR   Ar   56   0.844   6.083   1.565
    1   AR   Ar   57   6.796   4.214   3.149
    1   AR   Ar   58   0.379   5.835   4.239
    1   AR   Ar   59   1.606   6.189   4.782
    1   AR   Ar   60   1.095   6.380   3.858
    1   AR   Ar   61   6.748   5.799   5.887
    1   AR   Ar   62   0.501   6.123   5.174
    1   AR   Ar   63   1.519   5.682   5.781
    1   AR   Ar   64   0.916   0.171   5.141
    1   AR   Ar   65   1.954   6.231  -0.045
    1   AR   Ar   66   1.673   0.922   1.455
    1   AR   Ar   67   3.061   6.043  -0.244
    1   AR   Ar   68   4.038   0.851   0.670
    1   AR   Ar   69   2.196   0.004   0.876
    1   AR   Ar   70   1.511   0.125   2.361
    1   AR   Ar   71   2.538   7.051   2.253
    1   AR   Ar   72   2.849   0.805   1.331
    1   AR   Ar   73   1.797   6.700   3.147
    1   AR   Ar   74   1.735   1.357   4.353
    1   AR   Ar   75   2.654   0.725   4.665
    1   AR   Ar   76   2.142   0.879   3.504
    1   AR   Ar   77   1.965   0.207   5.416
    1   AR   Ar   78   1.311   0.524   6.526
    1   AR   Ar   79   2.529   6.924   6.893
    1   AR   Ar   80   3.054   0.263   5.838
    1   AR   Ar   81   1.945   1.480   0.421
    1   AR   Ar   82   1.796   3.549   0.632
    1   AR   Ar   83   2.685   1.811   1.775
    1   AR   Ar   84   2.042   2.789  -0.608
    1   AR   Ar   85   1.334   1.969   1.488
    1   AR   Ar   86   2.056   2.582   2.644
    1   AR   Ar   87   1.878   1.365   2.336
    1   AR   Ar   88   3.301   3.584   1.646
    1   AR   Ar   89   0.617   1.376   2.230
    1   AR   Ar   90   2.895   2.536   5.041
    1   AR   Ar   91   2.533   2.090   3.971
    1   AR   Ar   92   1.562   1.888   3.428
    1   AR   Ar   93   1.530   1.800   6.044
    1   AR   Ar   94   2.192   1.911   7.336
    1   AR   Ar   95   2.160   0.837   7.269
    1   AR   Ar   96   2.654   2.182   6.415
    1   AR   Ar   97   2.041   3.800  -1.024
    1   AR   Ar   98   2.953   4.615   1.606
    1   AR   Ar   99   3.126   2.934  -1.203
    1   AR   Ar  100   2.047   5.064  -0.116
    1   AR   Ar  101   1.325   3.257   1.734
    1   AR   Ar  102   1.988   4.067   3.459
    1   AR   Ar  103   2.165   3.887   2.072
    1   AR   Ar  104   2.920   3.985   0.562
    1   AR   Ar  105   1.784   2.830   3.626
    1   AR   Ar  106   2.289   3.254   4.599
    1   AR   Ar  107   2.799   4.179   5.537
    1   AR   Ar  108   3.070   3.633   3.780
    1   AR   Ar  109   0.503   4.308   4.560
    1   AR   Ar  110   1.741   4.072   5.625
    1   AR   Ar  111   3.660   5.368   7.143
    1   AR   Ar  112   2.411   3.348   6.077
    1   AR   Ar  113   2.233   4.686   0.902
    1   AR   Ar  114   1.886   5.666   0.887
    1   AR   Ar  115   3.383   5.074   0.661
    1   AR   Ar  116   3.027   0.110   0.257
    1   AR   Ar  117   1.581   4.883   2.552
    1   AR   Ar  118   1.227   6.021   2.581
    1   AR   Ar  119   2.615   4.760   2.809
    1   AR   Ar  120   2.162   5.310   1.797
    1   AR   Ar  121   1.146   4.836   3.544
    1   AR   Ar  122   2.690   6.439   4.481
    1   AR   Ar  123   2.207   5.400   4.475
    1   AR   Ar  124   2.269   6.023   2.624
    1   AR   Ar  125   1.147   5.229   4.857
    1   AR   Ar  126   1.131   6.752   6.048
    1   AR   Ar  127   2.535   5.582   7.500
    1   AR   Ar  128   2.214   6.457   6.017
    1   AR   Ar  129   2.847   6.194   0.799
    1   AR   Ar  130   3.468   0.123  -0.801
    1   AR   Ar  131   4.629   6.578   0.457
    1   AR   Ar  132   5.490   2.156  -0.726
    1   AR   Ar  133   3.667   6.919   2.726
    1   AR   Ar  134   2.988   0.797   2.659
    1   AR   Ar  135   5.115   0.394   2.917
    1   AR   Ar  136   3.913   0.548   2.032
    1   AR   Ar  137   3.132   0.126   3.633
    1   AR   Ar  138   4.232   1.172   5.186
    1   AR   Ar  139   4.164   0.243   3.925
    1   AR   Ar  140   4.378   1.494   3.336
    1   AR   Ar  141   3.428   7.058   4.694
    1   AR   Ar  142   4.105   0.006   5.592
    1   AR   Ar  143   4.961   7.029   6.052
    1   AR   Ar  144   4.859   1.137   6.910
    1   AR   Ar  145   2.483   2.286   0.142
    1   AR   Ar  146   4.130   2.770   1.040
    1   AR   Ar  147   5.070   1.756   0.468
    1   AR   Ar  148   5.974   2.922  -0.279
    1   AR   Ar  149   3.657   1.660   1.271
    1   AR   Ar  150   2.736   1.635   3.093
    1   AR   Ar  151   3.654   2.113   3.066
    1   AR   Ar  152   3.589   2.537   2.132
    1   AR   Ar  153   3.309   1.171   4.009
    1   AR   Ar  154   4.016   1.967   4.238
    1   AR   Ar  155   5.112   1.953   5.693
    1   AR   Ar  156   4.761   3.819   4.309
    1   AR   Ar  157   3.751   2.264   5.631
    1   AR   Ar  158   3.516   2.450   6.986
    1   AR   Ar  159   3.951   1.079   6.125
    1   AR   Ar  160   4.373   2.888   5.068
    1   AR   Ar  161   4.626   2.559  -0.035
    1   AR   Ar  162   4.692   5.084   0.740
    1   AR   Ar  163   5.030   3.391   0.598
    1   AR   Ar  164   5.715   4.545   0.954
    1   AR   Ar  165   3.288   3.742   2.687
    1   AR   Ar  166   3.284   4.695   3.597
    1   AR   Ar  167   4.536   3.166   3.246
    1   AR   Ar  168   4.306   3.910   1.118
    1   AR   Ar  169   2.803   2.688   3.264
    1   AR   Ar  170   2.699   4.351   4.421
    1   AR   Ar  171   3.845   3.708   4.499
    1   AR   Ar  172   4.259   4.736   4.324
    1   AR   Ar  173   3.507   3.283   5.891
    1   AR   Ar  174   4.150   5.296   6.143
    1   AR   Ar  175   3.461   4.323   6.407
    1   AR   Ar  176   3.800   4.514   5.293
    1   AR   Ar  177   5.457   5.788   0.426
    1   AR   Ar  178   3.920   6.839   1.212
    1   AR   Ar  179   3.970   5.039   1.580
    1   AR   Ar  180   4.368   5.768  -0.060
    1   AR   Ar  181   3.215   5.784   1.906
    1   AR   Ar  182   2.200   6.374   1.564
    1   AR   Ar  183   3.743   4.745   2.555
    1   AR   Ar  184   4.218   5.831   2.332
    1   AR   Ar  185   1.741   5.645   3.648
    1   AR   Ar  186   3.346   5.601   4.215
    1   AR   Ar  187   4.476   5.188   3.180
    1   AR   Ar  188   3.373   5.980   3.212
    1   AR   Ar  189   2.835   5.333   5.500
    1   AR   Ar  190   4.102   6.601   6.531
    1   AR   Ar  191   4.404   5.840   5.152
    1   AR   Ar  192   3.434   6.019   5.169
    1   AR   Ar  193   5.558   0.165  -0.109
    1   AR   Ar  194   4.357   0.273  -0.264
    1   AR   Ar  195   5.942   1.244   1.071
    1   AR   Ar  196   6.027   1.070  -0.361
    1   AR   Ar  197   5.117   0.475   1.206
    1   AR   Ar  198   5.171   1.415   1.780
    1   AR   Ar  199   5.890   0.690   2.087
    1   AR   Ar  200   6.730   1.618   1.723
    1   AR   Ar  201   4.696   6.364   3.111
    1   AR   Ar  202   5.096   1.088   4.166
    1   AR   Ar  203   6.749   6.701   4.475
    1   AR   Ar  204   6.250   0.366   3.209
    1   AR   Ar  205   5.723   6.732   3.904
    1   AR   Ar  206   4.978   6.747   4.888
    1   AR   Ar  207   0.046   6.967   5.828
    1   AR   Ar  208   6.212   0.500   4.234
    1   AR   Ar  209   6.703   1.937  -1.041
    1   AR   Ar  210   5.023   2.716   1.767
    1   AR   Ar  211   5.943   2.462   0.943
    1   AR   Ar  212   6.766   3.804  -0.314
    1   AR   Ar  213   4.918   2.298   2.629
    1   AR   Ar  214   4.289   3.640   2.200
    1   AR   Ar  215   6.154   2.131   2.445
    1   AR   Ar  216   6.183   3.168   1.903
    1   AR   Ar  217   5.346   2.359   3.732
    1   AR   Ar  218   5.435   1.971   4.665
    1   AR   Ar  219   5.581   1.283   3.223
    1   AR   Ar  220   6.301   3.102   3.003
    1   AR   Ar  221   5.632   0.911   5.204
    1   AR   Ar  222   4.477   2.522   6.484
    1   AR   Ar  223   6.893   1.922   7.339
    1   AR   Ar  224   5.982   2.452   5.601
    1   AR   Ar  225   5.236   4.354  -0.072
    1   AR   Ar  226   4.735   4.557   2.035
    1   AR   Ar  227   6.936   3.941   1.821
    1   AR   Ar  228   6.824   4.703   0.512
    1   AR   Ar  229   6.465   3.592   0.877
    1   AR   Ar  230   4.581   4.114   3.238
    1   AR   Ar  231   0.125   2.735   3.536
    1   AR   Ar  232   5.389   3.758   1.506
    1   AR   Ar  233   6.232   2.752   4.088
    1   AR   Ar  234   5.800   4.068   4.841
    1   AR   Ar  235   6.750   3.908   4.507
    1   AR   Ar  236   5.944   3.930   3.750
    1   AR   Ar  237   5.434   3.004   4.707
    1   AR   Ar  238   4.872   4.204   6.324
    1   AR   Ar  239   5.830   3.880   7.893
    1   AR   Ar  240   6.452   3.480   5.521
    1   AR   Ar  241   6.889   0.366  -0.012
    1   AR   Ar  242   4.837   6.079   1.535
    1   AR   Ar  243   5.803   4.548   2.155
    1   AR   Ar  244   6.252   6.722   0.463
    1   AR   Ar  245   5.352   5.568   2.431
    1   AR   Ar  246   5.761   6.618   2.836
    1   AR   Ar  247   5.398   3.816   2.776
    1   AR   Ar  248   5.993   6.852   1.489
    1   AR   Ar  249   6.068   5.057   3.263
    1   AR   Ar  250   4.574   5.655   4.060
    1   AR   Ar  251   5.660   5.199   4.213
    1   AR   Ar  252   6.575   5.812   3.821
    1   AR   Ar  253   5.404   5.315   5.326
    1   AR   Ar  254   5.595   5.860   6.621
    1   AR   Ar  255   5.932   4.574   5.849
    1   AR   Ar  256   6.017   6.105   4.741
    7.12000  7.12000 12.00000
Argon-slab step 775
  256
    1   AR   Ar    1   0.929   0.820  -0.619
    1   AR   Ar    2   0.133   0.509   1.010
    1   AR   Ar    3   0.976   6.464   0.528
    1   AR   Ar    4   1.302   0.577   0.461
    1   AR   Ar    5   7.060   6.541   1.198
    1   AR   Ar    6   0.601   0.355   2.865
    1   AR   Ar    7   0.282   6.625   2.315
    1   AR   Ar    8   1.166   0.028   1.400
    1   AR   Ar    9   0.397   0.472   4.350
    1   AR   Ar   10   0.027   1.605   4.498
    1   AR   Ar   11   1.541   0.276   4.266
    1   AR   Ar   12   1.109   0.937   3.589
    1   AR   Ar   13   6.823   0.591   5.138
    1   AR   Ar   14   0.401   1.485   6.155
    1   AR   Ar   15   1.472   6.370   6.954
    1   AR   Ar   16   1.158   1.085   5.423
    1   AR   Ar   17   6.753   1.603   0.178
    1   AR   Ar   18   6.913   2.627   0.260
    1   AR   Ar   19   0.603   1.756   0.767
    1   AR   Ar   20   0.173   2.632  -0.626
    1   AR   Ar   21   6.777   0.291   2.015
    1   AR   Ar   22   0.027   2.302   2.504
    1   AR   Ar   23   6.865   1.033   2.771
    1   AR   Ar   24   0.331   2.436   1.486
    1   AR   Ar   25   0.480   1.779   3.540
    1   AR   Ar   26   6.539   1.485   3.652
    1   AR   Ar   27   0.835   2.200   5.402
    1   AR   Ar   28   1.037   2.721   4.448
    1   AR   Ar   29   6.599   1.624   5.690
    1   AR   Ar   30   6.944   2.439   6.400
    1   AR   Ar   31   1.208   1.613   7.238
    1   AR   Ar   32   1.317   3.119   5.788
    1   AR   Ar   33   0.909   3.628  -0.300
    1   AR   Ar   34   0.439   5.019   1.291
    1   AR   Ar   35   0.496   3.447   0.783
    1   AR   Ar   36   1.660   6.161  -1.110
    1   AR   Ar   37   0.252   3.411   2.869
    1   AR   Ar   38   0.009   4.831   2.280
    1   AR   Ar   39   1.094   3.960   2.506
    1   AR   Ar   40   1.407   4.373   1.643
    1   AR   Ar   41   1.017   2.689   2.600
    1   AR   Ar   42   6.666   5.199   4.792
    1   AR   Ar   43   0.065   2.624   4.823
    1   AR   Ar   44   0.754   3.735   3.737
    1   AR   Ar   45   0.404   3.779   5.677
    1   AR   Ar   46   6.807   4.493   6.642
    1   AR   Ar   47   0.414   3.578   6.854
    1   AR   Ar   48   0.987   4.635   6.109
    1   AR   Ar   49   0.289   4.795  -0.390
    1   AR   Ar   50   6.174   5.712   1.190
    1   AR   Ar   51   1.028   4.297   0.660
    1   AR   Ar   52   1.034   5.306   0.134
    1   AR   Ar   53   6.698   5.858   2.476
    1   AR   Ar   54   7.078   6.811   3.403
    1   AR   Ar   55   0.395   5.727   3.127
    1   AR   Ar   56   0.811   6.068   1.551
    1   AR   Ar   57   6.786   4.237   3.146
    1   AR   Ar   58   0.366   5.828   4.230
    1   AR   Ar   59   1.628   6.208   4.777
    1   AR   Ar   60   1.102   6.384   3.883
    1   AR   Ar   61   6.752   5.795   5.881
    1   AR   Ar   62   0.492   6.118   5.167
    1   AR   Ar   63   1.533   5.682   5.799
    1   AR   Ar   64   0.917   0.159   5.136
    1   AR   Ar   65   1.984   6.224  -0.052
    1   AR   Ar   66   1.692   0.942   1.471
    1   AR   Ar   67   3.098   6.050  -0.237
    1   AR   Ar   68   4.053   0.832   0.664
    1   AR   Ar   69   2.201   7.079   0.846
    1   AR   Ar   70   1.524   0.103   2.374
    1   AR   Ar   71   2.564   7.049   2.245
    1   AR   Ar   72   2.858   0.793   1.315
    1   AR   Ar   73   1.797   6.723   3.163
    1   AR   Ar   74   1.733   1.353   4.338
    1   AR   Ar   75   2.683   0.724   4.651
    1   AR   Ar   76   2.131   0.891   3.489
    1   AR   Ar   77   1.953   0.205   5.447
    1   AR   Ar   78   1.249   0.540   6.532
    1   AR   Ar   79   2.545   6.903   6.890
    1   AR   Ar   80   3.069   0.189   5.790
    1   AR   Ar   81   1.889   1.473   0.451
    1   AR   Ar   82   1.796   3.520   0.589
    1   AR   Ar   83   2.679   1.808   1.774
    1   AR   Ar   84   2.048   2.826  -0.616
    1   AR   Ar   85   1.358   1.940   1.477
    1   AR   Ar   86   2.067   2.584   2.643
    1   AR   Ar   87   1.891   1.359   2.319
    1   AR   Ar   88   3.304   3.582   1.612
    1   AR   Ar   89   0.612   1.395   2.214
    1   AR   Ar   90   2.924   2.500   5.046
    1   AR   Ar   91   2.528   2.104   3.997
    1   AR   Ar   92   1.563   1.883   3.443
    1   AR   Ar   93   1.523   1.796   6.050
    1   AR   Ar   94   2.223   1.927   7.389
    1   AR   Ar   95   2.174   0.843   7.272
    1   AR   Ar   96   2.617   2.166   6.419
    1   AR   Ar   97   2.056   3.775  -1.057
    1   AR   Ar   98   2.925   4.606   1.654
    1   AR   Ar   99   3.126   2.909  -1.210
    1   AR   Ar  100   2.034   5.078  -0.084
    1   AR   Ar  101   1.332   3.217   1.761
    1   AR   Ar  102   1.977   4.062   3.462
    1   AR   Ar  103   2.151   3.893   2.059
    1   AR   Ar  104   2.934   3.970   0.588
    1   AR   Ar  105   1.780   2.787   3.669
    1   AR   Ar  106   2.310   3.261   4.612
    1   AR   Ar  107   2.822   4.173   5.529
    1   AR   Ar  108   3.072   3.613   3.801
    1   AR   Ar  109   0.537   4.281   4.534
    1   AR   Ar  110   1.700   4.082   5.638
    1   AR   Ar  111   3.689   5.386   7.168
    1   AR   Ar  112   2.414   3.341   6.087
    1   AR   Ar  113   2.263   4.683   0.899
    1   AR   Ar  114   1.889   5.655   0.856
    1   AR   Ar  115   3.368   5.071   0.632
    1   AR   Ar  116   3.063   0.124   0.269
    1   AR   Ar  117   1.578   4.878   2.581
    1   AR   Ar  118   1.241   5.995   2.570
    1   AR   Ar  119   2.619   4.729   2.829
    1   AR   Ar  120   2.150   5.338   1.812
    1   AR   Ar  121   1.166   4.831   3.531
    1   AR   Ar  122   2.654   6.401   4.480
    1   AR   Ar  123   2.196   5.398   4.487
    1   AR   Ar  124   2.287   5.997   2.573
    1   AR   Ar  125   1.133   5.225   4.849
    1   AR   Ar  126   1.174   6.770   6.048
    1   AR   Ar  127   2.531   5.576   7.528
    1   AR   Ar  128   2.199   6.453   6.019
    1   AR   Ar  129   2.831   6.207   0.787
    1   AR   Ar  130   3.453   0.115  -0.817
    1   AR   Ar  131   4.656   6.591   0.480
    1   AR   Ar  132   5.466   2.137  -0.717
    1   AR   Ar  133   3.644   6.921   2.723
    1   AR   Ar  134   3.034   0.810   2.647
    1   AR   Ar  135   5.105   0.429   2.928
    1   AR   Ar  136   3.910   0.561   2.053
    1   AR   Ar  137   3.095   0.131   3.640
    1   AR   Ar  138   4.256   1.155   5.219
    1   AR   Ar  139   4.163   0.241   3.935
    1   AR   Ar  140   4.336   1.487   3.328
    1   AR   Ar  141   3.454   7.065   4.691
    1   AR   Ar  142   4.127   7.099   5.613
    1   AR   Ar  143   4.946   7.044   6.063
    1   AR   Ar  144   4.831   1.122   6.927
    1   AR   Ar  145   2.479   2.283   0.145
    1   AR   Ar  146   4.145   2.752   1.014
    1   AR   Ar  147   5.036   1.741   0.493
    1   AR   Ar  148   5.984   2.948  -0.316
    1   AR   Ar  149   3.658   1.638   1.244
    1   AR   Ar  150   2.739   1.656   3.062
    1   AR   Ar  151   3.640   2.093   3.079
    1   AR   Ar  152   3.588   2.539   2.085
    1   AR   Ar  153   3.329   1.146   4.008
    1   AR   Ar  154   4.026   1.968   4.237
    1   AR   Ar  155   5.123   1.921   5.711
    1   AR   Ar  156   4.782   3.814   4.299
    1   AR   Ar  157   3.761   2.233   5.641
    1   AR   Ar  158   3.499   2.441   6.974
    1   AR   Ar  159   4.004   1.098   6.125
    1   AR   Ar  160   4.374   2.892   5.068
    1   AR   Ar  161   4.615   2.498  -0.043
    1   AR   Ar  162   4.670   5.100   0.762
    1   AR   Ar  163   5.061   3.398   0.603
    1   AR   Ar  164   5.720   4.530   0.956
    1   AR   Ar  165   3.241   3.719   2.746
    1   AR   Ar  166   3.276   4.679   3.609
    1   AR   Ar  167   4.529   3.112   3.248
    1   AR   Ar  168   4.337   3.862   1.104
    1   AR   Ar  169   2.784   2.723   3.269
    1   AR   Ar  170   2.712   4.324   4.439
    1   AR   Ar  171   3.838   3.708   4.509
    1   AR   Ar  172   4.256   4.713   4.318
    1   AR   Ar  173   3.523   3.300   5.876
    1   AR   Ar  174   4.162   5.308   6.151
    1   AR   Ar  175   3.462   4.319   6.395
    1   AR   Ar  176   3.788   4.519   5.266
    1   AR   Ar  177   5.487   5.773   0.445
    1   AR   Ar  178   3.949   6.856   1.204
    1   AR   Ar  179   3.960   5.063   1.568
    1   AR   Ar  180   4.335   5.768  -0.058
    1   AR   Ar  181   3.212   5.793   1.917
    1   AR   Ar  182   2.163   6.396   1.558
    1   AR   Ar  183   3.779   4.730   2.544
    1   AR   Ar  184   4.184   5.850   2.334
    1   AR   Ar  185   1.720   5.634   3.661
    1   AR   Ar  186   3.364   5.604   4.205
    1   AR   Ar  187   4.472   5.159   3.157
    1   AR   Ar  188   3.365   5.999   3.222
    1   AR   Ar  189   2.847   5.355   5.484
    1   AR   Ar  190   4.095   6.580   6.533
    1   AR   Ar  191   4.413   5.841   5.121
    1   AR   Ar  192   3.416   6.027   5.190
    1   AR   Ar  193   5.553   0.163  -0.109
    1   AR   Ar  194   4.348   0.230  -0.293
    1   AR   Ar  195   5.969   1.241   1.057
    1   AR   Ar  196   6.047   1.076  -0.379
    1   AR   Ar  197   5.121   0.451   1.217
    1   AR   Ar  198   5.174   1.413   1.782
    1   AR   Ar  199   5.867   0.689   2.072
    1   AR   Ar  200   6.761   1.601   1.697
    1   AR   Ar  201   4.722   6.371   3.087
    1   AR   Ar  202   5.074   1.086   4.174
    1   AR   Ar  203   6.745   6.725   4.434
    1   AR   Ar  204   6.219   0.390   3.179
    1   AR   Ar  205   5.710   6.756   3.898
    1   AR   Ar  206   4.948   6.741   4.871
    1   AR   Ar  207   0.031   6.983   5.820
    1   AR   Ar  208   6.238   0.519   4.245
    1   AR   Ar  209   6.710   1.936  -1.070
    1   AR   Ar  210   5.063   2.729   1.778
    1   AR   Ar  211   5.931   2.454   0.953
    1   AR   Ar  212   6.768   3.788  -0.309
    1   AR   Ar  213   4.934   2.309   2.665
    1   AR   Ar  214   4.285   3.668   2.193
    1   AR   Ar  215   6.128   2.140   2.460
    1   AR   Ar  216   6.202   3.145   1.869
    1   AR   Ar  217   5.338   2.350   3.716
    1   AR   Ar  218   5.438   1.978   4.676
    1   AR   Ar  219   5.541   1.300   3.232
    1   AR   Ar  220   6.301   3.117   3.032
    1   AR   Ar  221   5.630   0.938   5.196
    1   AR   Ar  222   4.474   2.501   6.500
    1   AR   Ar  223   6.883   1.908   7.325
    1   AR   Ar  224   5.991   2.476   5.618
    1   AR   Ar  225   5.220   4.346  -0.066
    1   AR   Ar  226   4.734   4.553   2.010
    1   AR   Ar  227   6.966   3.930   1.806
    1   AR   Ar  228   6.805   4.726   0.470
    1   AR   Ar  229   6.451   3.628   0.922
    1   AR   Ar  230   4.543   4.123   3.236
    1   AR   Ar  231   0.138   2.753   3.525
    1   AR   Ar  232   5.387   3.749   1.495
    1   AR   Ar  233   6.248   2.743   4.092
    1   AR   Ar  234   5.784   4.100   4.832
    1   AR   Ar  235   6.744   3.897   4.485
    1   AR   Ar  236   5.907   3.911   3.761
    1   AR   Ar  237   5.453   2.985   4.721
    1   AR   Ar  238   4.873   4.222   6.302
    1   AR   Ar  239   5.840   3.890   7.874
    1   AR   Ar  240   6.495   3.462   5.512
    1   AR   Ar  241   6.884   0.347  -0.023
    1   AR   Ar  242   4.873   6.080   1.524
    1   AR   Ar  243   5.764   4.532   2.123
    1   AR   Ar  244   6.297   6.673   0.448
    1   AR   Ar  245   5.360   5.560   2.452
    1   AR   Ar  246   5.769   6.569   2.808
    1   AR   Ar  247   5.399   3.801   2.777
    1   AR   Ar  248   6.012   6.903   1.472
    1   AR   Ar  249   6.041   5.047   3.252
    1   AR   Ar  250   4.579   5.702   4.054
    1   AR   Ar  251   5.654   5.190   4.175
    1   AR   Ar  252   6.504   5.778   3.807
    1   AR   Ar  253   5.401   5.320   5.328
    1   AR   Ar  254   5.593   5.862   6.622
    1   AR   Ar  255   5.976   4.566   5.883
    1   AR   Ar  256   6.020   6.151   4.741
    7.12000  7.12000 12.00000
Argon-slab step 780
  256
    1   AR   Ar    1   0.919   0.807  -0.617
    1   AR   Ar    2   0.107   0.528   1.012
    1   AR   Ar    3   0.965   6.471   0.540
    1   AR   Ar    4   1.271   0.565   0.469
    1   AR   Ar    5   7.061   6.529   1.180
    1   AR   Ar    6   0.592   0.343   2.855
    1   AR   Ar    7   0.271   6.618   2.315
    1   AR   Ar    8   1.163   0.063   1.392
    1   AR   Ar    9   0.394   0.516   4.335
    1   AR   Ar   10   0.007   1.609   4.499
    1   AR   Ar   11   1.586   0.250   4.302
    1   AR   Ar   12   1.122   0.936   3.583
    1   AR   Ar   13   6.810   0.622   5.148
    1   AR   Ar   14   0.387   1.476   6.111
    1   AR   Ar   15   1.476   6.374   6.945
    1   AR   Ar   16   1.152   1.086   5.402
    1   AR   Ar   17   6.751   1.580   0.174
    1   AR   Ar   18   6.896   2.657   0.245
    1   AR   Ar   19   0.596   1.750   0.773
    1   AR   Ar   20   0.170   2.648  -0.663
    1   AR   Ar   21   6.779   0.257   2.028
    1   AR   Ar   22   0.028   2.288   2.513
    1   AR   Ar   23   6.854   1.036   2.771
    1   AR   Ar   24   0.337   2.425   1.463
    1   AR   Ar   25   0.490   1.789   3.516
    1   AR   Ar   26   6.544   1.460   3.648
    1   AR   Ar   27   0.830   2.226   5.374
    1   AR   Ar   28   1.037   2.725   4.449
    1   AR   Ar   29   6.623   1.656   5.675
    1   AR   Ar   30   6.916   2.421   6.398
    1   AR   Ar   31   1.201   1.616   7.275
    1   AR   Ar   32   1.335   3.142   5.765
    1   AR   Ar   33   0.890   3.647  -0.272
    1   AR   Ar   34   0.439   5.022   1.321
    1   AR   Ar   35   0.504   3.460   0.766
    1   AR   Ar   36   1.652   6.191  -1.094
    1   AR   Ar   37   0.276   3.400   2.903
    1   AR   Ar   38   0.018   4.844   2.273
    1   AR   Ar   39   1.089   3.951   2.500
    1   AR   Ar   40   1.398   4.369   1.653
    1   AR   Ar   41   1.013   2.678   2.599
    1   AR   Ar   42   6.677   5.205   4.821
    1   AR   Ar   43   0.086   2.595   4.875
    1   AR   Ar   44   0.774   3.732   3.743
    1   AR   Ar   45   0.450   3.766   5.695
    1   AR   Ar   46   6.808   4.496   6.601
    1   AR   Ar   47   0.420   3.562   6.840
    1   AR   Ar   48   0.983   4.653   6.110
    1   AR   Ar   49   0.303   4.788  -0.408
    1   AR   Ar   50   6.147   5.719   1.190
    1   AR   Ar   51   1.056   4.288   0.645
    1   AR   Ar   52   1.066   5.309   0.145
    1   AR   Ar   53   6.673   5.869   2.500
    1   AR   Ar   54   7.047   6.799   3.411
    1   AR   Ar   55   0.368   5.713   3.090
    1   AR   Ar   56   0.783   6.050   1.538
    1   AR   Ar   57   6.775   4.260   3.144
    1   AR   Ar   58   0.344   5.811   4.216
    1   AR   Ar   59   1.647   6.232   4.777
    1   AR   Ar   60   1.108   6.402   3.905
    1   AR   Ar   61   6.752   5.792   5.888
    1   AR   Ar   62   0.488   6.111   5.168
    1   AR   Ar   63   1.545   5.681   5.794
    1   AR   Ar   64   0.918   0.135   5.136
    1   AR   Ar   65   2.014   6.218  -0.057
    1   AR   Ar   66   1.710   0.954   1.472
    1   AR   Ar   67   3.136   6.058  -0.230
    1   AR   Ar   68   4.070   0.809   0.659
    1   AR   Ar   69   2.201   7.042   0.811
    1   AR   Ar   70   1.533   0.089   2.377
    1   AR   Ar   71   2.593   7.048   2.238
    1   AR   Ar   72   2.866   0.807   1.292
    1   AR   Ar   73   1.802   6.743   3.193
    1   AR   Ar   74   1.731   1.350   4.331
    1   AR   Ar   75   2.703   0.718   4.641
    1   AR   Ar   76   2.128   0.899   3.470
    1   AR   Ar   77   1.943   0.204   5.477
    1   AR   Ar   78   1.223   0.537   6.533
    1   AR   Ar   79   2.576   6.866   6.884
    1   AR   Ar   80   3.083   0.114   5.741
    1   AR   Ar   81   1.832   1.464   0.484
    1   AR   Ar   82   1.795   3.491   0.547
    1   AR   Ar   83   2.674   1.807   1.774
    1   AR   Ar   84   2.052   2.863  -0.625
    1   AR   Ar   85   1.383   1.915   1.471
    1   AR   Ar   86   2.068   2.580   2.629
    1   AR   Ar   87   1.906   1.359   2.321
    1   AR   Ar   88   3.303   3.582   1.582
    1   AR   Ar   89   0.609   1.414   2.197
    1   AR   Ar   90   2.952   2.465   5.050
    1   AR   Ar   91   2.522   2.110   4.036
    1   AR   Ar   92   1.563   1.863   3.449
    1   AR   Ar   93   1.496   1.814   6.060
    1   AR   Ar   94   2.256   1.945   7.442
    1   AR   Ar   95   2.186   0.847   7.272
    1   AR   Ar   96   2.579   2.150   6.418
    1   AR   Ar   97   2.071   3.753  -1.091
    1   AR   Ar   98   2.905   4.596   1.708
    1   AR   Ar   99   3.125   2.885  -1.216
    1   AR   Ar  100   2.026   5.092  -0.054
    1   AR   Ar  101   1.339   3.178   1.783
    1   AR   Ar  102   1.967   4.056   3.464
    1   AR   Ar  103   2.149   3.894   2.052
    1   AR   Ar  104   2.951   3.952   0.614
    1   AR   Ar  105   1.777   2.766   3.715
    1   AR   Ar  106   2.329   3.270   4.623
    1   AR   Ar  107   2.842   4.168   5.520
    1   AR   Ar  108   3.077   3.599   3.814
    1   AR   Ar  109   0.579   4.265   4.519
    1   AR   Ar  110   1.665   4.092   5.646
    1   AR   Ar  111   3.716   5.403   7.191
    1   AR   Ar  112   2.418   3.332   6.097
    1   AR   Ar  113   2.290   4.682   0.895
    1   AR   Ar  114   1.886   5.647   0.822
    1   AR   Ar  115   3.353   5.069   0.605
    1   AR   Ar  116   3.104   0.136   0.280
    1   AR   Ar  117   1.576   4.878   2.610
    1   AR   Ar  118   1.202   6.023   2.564
    1   AR   Ar  119   2.622   4.699   2.842
    1   AR   Ar  120   2.138   5.358   1.823
    1   AR   Ar  121   1.184   4.826   3.526
    1   AR   Ar  122   2.616   6.364   4.478
    1   AR   Ar  123   2.195   5.398   4.507
    1   AR   Ar  124   2.311   5.973   2.528
    1   AR   Ar  125   1.118   5.221   4.840
    1   AR   Ar  126   1.215   6.783   6.040
    1   AR   Ar  127   2.528   5.571   7.555
    1   AR   Ar  128   2.189   6.448   6.018
    1   AR   Ar  129   2.820   6.219   0.775
    1   AR   Ar  130   3.434   0.106  -0.835
    1   AR   Ar  131   4.689   6.608   0.504
    1   AR   Ar  132   5.464   2.119  -0.703
    1   AR   Ar  133   3.620   6.921   2.722
    1   AR   Ar  134   3.081   0.814   2.631
    1   AR   Ar  135   5.092   0.457   2.938
    1   AR   Ar  136   3.914   0.574   2.066
    1   AR   Ar  137   3.056   0.134   3.647
    1   AR   Ar  138   4.289   1.141   5.225
    1   AR   Ar  139   4.170   0.253   3.935
    1   AR   Ar  140   4.311   1.466   3.325
    1   AR   Ar  141   3.482   7.072   4.690
    1   AR   Ar  142   4.127   7.075   5.617
    1   AR   Ar  143   4.957   7.059   6.087
    1   AR   Ar  144   4.804   1.106   6.943
    1   AR   Ar  145   2.479   2.280   0.151
    1   AR   Ar  146   4.162   2.735   0.990
    1   AR   Ar  147   5.005   1.721   0.522
    1   AR   Ar  148   5.997   2.976  -0.349
    1   AR   Ar  149   3.658   1.617   1.220
    1   AR   Ar  150   2.731   1.683   3.031
    1   AR   Ar  151   3.622   2.088   3.089
    1   AR   Ar  152   3.588   2.543   2.035
    1   AR   Ar  153   3.353   1.124   4.000
    1   AR   Ar  154   4.037   1.972   4.238
    1   AR   Ar  155   5.128   1.886   5.730
    1   AR   Ar  156   4.822   3.807   4.284
    1   AR   Ar  157   3.773   2.199   5.654
    1   AR   Ar  158   3.481   2.418   6.970
    1   AR   Ar  159   4.066   1.117   6.125
    1   AR   Ar  160   4.383   2.905   5.054
    1   AR   Ar  161   4.603   2.442  -0.054
    1   AR   Ar  162   4.649   5.114   0.785
    1   AR   Ar  163   5.100   3.397   0.597
    1   AR   Ar  164   5.727   4.521   0.954
    1   AR   Ar  165   3.194   3.697   2.802
    1   AR   Ar  166   3.276   4.664   3.622
    1   AR   Ar  167   4.521   3.051   3.251
    1   AR   Ar  168   4.360   3.821   1.097
    1   AR   Ar  169   2.781   2.769   3.275
    1   AR   Ar  170   2.722   4.301   4.461
    1   AR   Ar  171   3.817   3.707   4.525
    1   AR   Ar  172   4.250   4.694   4.309
    1   AR   Ar  173   3.539   3.317   5.860
    1   AR   Ar  174   4.173   5.320   6.156
    1   AR   Ar  175   3.465   4.316   6.381
    1   AR   Ar  176   3.777   4.525   5.240
    1   AR   Ar  177   5.512   5.760   0.459
    1   AR   Ar  178   3.975   6.874   1.199
    1   AR   Ar  179   3.948   5.054   1.543
    1   AR   Ar  180   4.301   5.764  -0.058
    1   AR   Ar  181   3.208   5.799   1.949
    1   AR   Ar  182   2.130   6.370   1.574
    1   AR   Ar  183   3.809   4.712   2.531
    1   AR   Ar  184   4.150   5.866   2.337
    1   AR   Ar  185   1.705   5.629   3.661
    1   AR   Ar  186   3.382   5.604   4.198
    1   AR   Ar  187   4.472   5.136   3.134
    1   AR   Ar  188   3.351   6.022   3.229
    1   AR   Ar  189   2.838   5.353   5.477
    1   AR   Ar  190   4.086   6.556   6.537
    1   AR   Ar  191   4.428   5.838   5.092
    1   AR   Ar  192   3.410   6.060   5.205
    1   AR   Ar  193   5.546   0.160  -0.107
    1   AR   Ar  194   4.342   0.187  -0.319
    1   AR   Ar  195   5.997   1.237   1.040
    1   AR   Ar  196   6.064   1.083  -0.399
    1   AR   Ar  197   5.125   0.426   1.227
    1   AR   Ar  198   5.174   1.416   1.785
    1   AR   Ar  199   5.838   0.691   2.061
    1   AR   Ar  200   6.792   1.583   1.673
    1   AR   Ar  201   4.749   6.379   3.066
    1   AR   Ar  202   5.051   1.082   4.184
    1   AR   Ar  203   6.741   6.756   4.411
    1   AR   Ar  204   6.183   0.408   3.150
    1   AR   Ar  205   5.695   6.779   3.891
    1   AR   Ar  206   4.919   6.736   4.853
    1   AR   Ar  207   0.025   6.990   5.816
    1   AR   Ar  208   6.263   0.543   4.256
    1   AR   Ar  209   6.712   1.929  -1.099
    1   AR   Ar  210   5.103   2.746   1.778
    1   AR   Ar  211   5.920   2.448   0.963
    1   AR   Ar  212   6.804   3.775  -0.344
    1   AR   Ar  213   4.950   2.313   2.710
    1   AR   Ar  214   4.277   3.688   2.189
    1   AR   Ar  215   6.096   2.148   2.476
    1   AR   Ar  216   6.222   3.120   1.838
    1   AR   Ar  217   5.328   2.342   3.694
    1   AR   Ar  218   5.443   1.975   4.689
    1   AR   Ar  219   5.503   1.324   3.240
    1   AR   Ar  220   6.302   3.132   3.061
    1   AR   Ar  221   5.628   0.966   5.188
    1   AR   Ar  222   4.472   2.480   6.512
    1   AR   Ar  223   6.874   1.895   7.314
    1   AR   Ar  224   6.013   2.475   5.623
    1   AR   Ar  225   5.205   4.338  -0.057
    1   AR   Ar  226   4.738   4.554   1.985
    1   AR   Ar  227   6.998   3.915   1.792
    1   AR   Ar  228   6.785   4.746   0.432
    1   AR   Ar  229   6.435   3.664   0.963
    1   AR   Ar  230   4.500   4.140   3.237
    1   AR   Ar  231   0.146   2.755   3.536
    1   AR   Ar  232   5.383   3.735   1.494
    1   AR   Ar  233   6.271   2.733   4.096
    1   AR   Ar  234   5.763   4.133   4.825
    1   AR   Ar  235   6.732   3.879   4.461
    1   AR   Ar  236   5.868   3.891   3.772
    1   AR   Ar  237   5.464   2.980   4.732
    1   AR   Ar  238   4.873   4.241   6.278
    1   AR   Ar  239   5.851   3.900   7.854
    1   AR   Ar  240   6.538   3.444   5.502
    1   AR   Ar  241   6.879   0.330  -0.034
    1   AR   Ar  242   4.910   6.081   1.511
    1   AR   Ar  243   5.776   4.548   2.126
    1   AR   Ar  244   6.340   6.623   0.432
    1   AR   Ar  245   5.366   5.551   2.473
    1   AR   Ar  246   5.778   6.520   2.778
    1   AR   Ar  247   5.404   3.782   2.776
    1   AR   Ar  248   6.030   6.951   1.455
    1   AR   Ar  249   6.014   5.032   3.230
    1   AR   Ar  250   4.585   5.754   4.049
    1   AR   Ar  251   5.643   5.181   4.145
    1   AR   Ar  252   6.435   5.750   3.794
    1   AR   Ar  253   5.400   5.326   5.328
    1   AR   Ar  254   5.591   5.863   6.621
    1   AR   Ar  255   6.020   4.557   5.916
    1   AR   Ar  256   6.013   6.187   4.748
    7.12000  7.12000 12.00000
Argon-slab step 785
  256
    1   AR   Ar    1   0.909   0.793  -0.613
    1   AR   Ar    2   0.080   0.548   1.015
    1   AR   Ar    3   0.956   6.478   0.553
    1   AR   Ar    4   1.237   0.552   0.475
    1   AR   Ar    5   7.061   6.520   1.164
    1   AR   Ar    6   0.582   0.333   2.846
    1   AR   Ar    7   0.252   6.596   2.306
    1   AR   Ar    8   1.156   0.093   1.384
    1   AR   Ar    9   0.389   0.561   4.315
    1   AR   Ar   10   7.109   1.610   4.505
    1   AR   Ar   11   1.633   0.223   4.338
    1   AR   Ar   12   1.124   0.929   3.576
    1   AR   Ar   13   6.798   0.657   5.160
    1   AR   Ar   14   0.382   1.466   6.070
    1   AR   Ar   15   1.484   6.377   6.938
    1   AR   Ar   16   1.185   1.075   5.392
    1   AR   Ar   17   6.753   1.557   0.175
    1   AR   Ar   18   6.874   2.688   0.242
    1   AR   Ar   19   0.589   1.736   0.771
    1   AR   Ar   20   0.174   2.671  -0.707
    1   AR   Ar   21   6.786   0.227   2.041
    1   AR   Ar   22   0.029   2.274   2.523
    1   AR   Ar   23   6.851   1.049   2.771
    1   AR   Ar   24   0.341   2.422   1.446
    1   AR   Ar   25   0.499   1.807   3.504
    1   AR   Ar   26   6.545   1.438   3.645
    1   AR   Ar   27   0.835   2.245   5.353
    1   AR   Ar   28   1.037   2.731   4.448
    1   AR   Ar   29   6.641   1.683   5.654
    1   AR   Ar   30   6.888   2.405   6.392
    1   AR   Ar   31   1.192   1.614   7.308
    1   AR   Ar   32   1.351   3.156   5.742
    1   AR   Ar   33   0.870   3.667  -0.244
    1   AR   Ar   34   0.440   5.024   1.348
    1   AR   Ar   35   0.507   3.465   0.751
    1   AR   Ar   36   1.643   6.221  -1.078
    1   AR   Ar   37   0.299   3.415   2.904
    1   AR   Ar   38   0.026   4.860   2.270
    1   AR   Ar   39   1.082   3.938   2.505
    1   AR   Ar   40   1.436   4.362   1.664
    1   AR   Ar   41   1.016   2.671   2.606
    1   AR   Ar   42   6.687   5.211   4.848
    1   AR   Ar   43   0.088   2.576   4.920
    1   AR   Ar   44   0.801   3.721   3.738
    1   AR   Ar   45   0.495   3.754   5.713
    1   AR   Ar   46   6.819   4.496   6.562
    1   AR   Ar   47   0.425   3.547   6.824
    1   AR   Ar   48   0.973   4.676   6.114
    1   AR   Ar   49   0.317   4.778  -0.428
    1   AR   Ar   50   6.130   5.726   1.203
    1   AR   Ar   51   1.088   4.289   0.626
    1   AR   Ar   52   1.090   5.316   0.160
    1   AR   Ar   53   6.688   5.868   2.519
    1   AR   Ar   54   7.016   6.785   3.417
    1   AR   Ar   55   0.343   5.697   3.059
    1   AR   Ar   56   0.761   6.030   1.525
    1   AR   Ar   57   6.763   4.282   3.143
    1   AR   Ar   58   0.315   5.789   4.197
    1   AR   Ar   59   1.659   6.259   4.785
    1   AR   Ar   60   1.109   6.431   3.925
    1   AR   Ar   61   6.752   5.788   5.893
    1   AR   Ar   62   0.500   6.088   5.165
    1   AR   Ar   63   1.531   5.690   5.828
    1   AR   Ar   64   0.915   0.101   5.137
    1   AR   Ar   65   2.045   6.215  -0.062
    1   AR   Ar   66   1.729   0.952   1.457
    1   AR   Ar   67   3.175   6.065  -0.225
    1   AR   Ar   68   4.088   0.782   0.652
    1   AR   Ar   69   2.194   7.013   0.773
    1   AR   Ar   70   1.539   0.082   2.371
    1   AR   Ar   71   2.625   7.048   2.233
    1   AR   Ar   72   2.873   0.819   1.269
    1   AR   Ar   73   1.814   6.759   3.233
    1   AR   Ar   74   1.731   1.348   4.335
    1   AR   Ar   75   2.715   0.709   4.636
    1   AR   Ar   76   2.134   0.903   3.448
    1   AR   Ar   77   1.934   0.207   5.503
    1   AR   Ar   78   1.208   0.535   6.535
    1   AR   Ar   79   2.608   6.832   6.881
    1   AR   Ar   80   3.094   0.038   5.693
    1   AR   Ar   81   1.812   1.469   0.485
    1   AR   Ar   82   1.796   3.462   0.506
    1   AR   Ar   83   2.672   1.808   1.773
    1   AR   Ar   84   2.055   2.894  -0.631
    1   AR   Ar   85   1.408   1.898   1.467
    1   AR   Ar   86   2.062   2.573   2.606
    1   AR   Ar   87   1.921   1.365   2.343
    1   AR   Ar   88   3.284   3.598   1.566
    1   AR   Ar   89   0.610   1.432   2.180
    1   AR   Ar   90   2.979   2.430   5.053
    1   AR   Ar   91   2.517   2.110   4.079
    1   AR   Ar   92   1.563   1.835   3.443
    1   AR   Ar   93   1.473   1.833   6.076
    1   AR   Ar   94   2.254   1.968   7.476
    1   AR   Ar   95   2.198   0.851   7.272
    1   AR   Ar   96   2.540   2.136   6.415
    1   AR   Ar   97   2.086   3.739  -1.129
    1   AR   Ar   98   2.890   4.588   1.768
    1   AR   Ar   99   3.134   2.879  -1.221
    1   AR   Ar  100   2.026   5.103  -0.030
    1   AR   Ar  101   1.348   3.141   1.797
    1   AR   Ar  102   1.958   4.047   3.466
    1   AR   Ar  103   2.160   3.888   2.055
    1   AR   Ar  104   2.972   3.930   0.639
    1   AR   Ar  105   1.778   2.765   3.763
    1   AR   Ar  106   2.344   3.268   4.624
    1   AR   Ar  107   2.858   4.160   5.511
    1   AR   Ar  108   3.083   3.589   3.825
    1   AR   Ar  109   0.622   4.261   4.519
    1   AR   Ar  110   1.639   4.103   5.647
    1   AR   Ar  111   3.743   5.421   7.214
    1   AR   Ar  112   2.421   3.322   6.106
    1   AR   Ar  113   2.310   4.682   0.892
    1   AR   Ar  114   1.879   5.642   0.790
    1   AR   Ar  115   3.336   5.069   0.578
    1   AR   Ar  116   3.147   0.148   0.292
    1   AR   Ar  117   1.579   4.881   2.632
    1   AR   Ar  118   1.168   6.051   2.555
    1   AR   Ar  119   2.624   4.668   2.836
    1   AR   Ar  120   2.122   5.361   1.821
    1   AR   Ar  121   1.194   4.813   3.531
    1   AR   Ar  122   2.585   6.332   4.473
    1   AR   Ar  123   2.200   5.389   4.535
    1   AR   Ar  124   2.339   5.961   2.505
    1   AR   Ar  125   1.103   5.217   4.830
    1   AR   Ar  126   1.247   6.789   6.024
    1   AR   Ar  127   2.525   5.567   7.581
    1   AR   Ar  128   2.187   6.442   6.014
    1   AR   Ar  129   2.815   6.225   0.763
    1   AR   Ar  130   3.412   0.096  -0.852
    1   AR   Ar  131   4.728   6.625   0.525
    1   AR   Ar  132   5.463   2.099  -0.689
    1   AR   Ar  133   3.597   6.920   2.721
    1   AR   Ar  134   3.127   0.816   2.617
    1   AR   Ar  135   5.075   0.477   2.945
    1   AR   Ar  136   3.938   0.580   2.066
    1   AR   Ar  137   3.015   0.137   3.654
    1   AR   Ar  138   4.330   1.128   5.199
    1   AR   Ar  139   4.185   0.275   3.927
    1   AR   Ar  140   4.302   1.430   3.326
    1   AR   Ar  141   3.510   7.079   4.691
    1   AR   Ar  142   4.110   7.053   5.606
    1   AR   Ar  143   4.987   7.073   6.119
    1   AR   Ar  144   4.777   1.091   6.958
    1   AR   Ar  145   2.481   2.277   0.160
    1   AR   Ar  146   4.179   2.716   0.967
    1   AR   Ar  147   4.978   1.695   0.558
    1   AR   Ar  148   6.011   3.006  -0.380
    1   AR   Ar  149   3.658   1.599   1.198
    1   AR   Ar  150   2.709   1.711   3.002
    1   AR   Ar  151   3.600   2.090   3.113
    1   AR   Ar  152   3.588   2.546   1.986
    1   AR   Ar  153   3.384   1.108   3.983
    1   AR   Ar  154   4.049   1.976   4.241
    1   AR   Ar  155   5.129   1.849   5.749
    1   AR   Ar  156   4.863   3.797   4.275
    1   AR   Ar  157   3.787   2.163   5.671
    1   AR   Ar  158   3.463   2.396   6.964
    1   AR   Ar  159   4.119   1.135   6.154
    1   AR   Ar  160   4.391   2.917   5.041
    1   AR   Ar  161   4.588   2.393  -0.067
    1   AR   Ar  162   4.633   5.127   0.806
    1   AR   Ar  163   5.145   3.386   0.578
    1   AR   Ar  164   5.735   4.519   0.948
    1   AR   Ar  165   3.148   3.678   2.851
    1   AR   Ar  166   3.283   4.649   3.638
    1   AR   Ar  167   4.509   2.995   3.258
    1   AR   Ar  168   4.374   3.787   1.096
    1   AR   Ar  169   2.788   2.817   3.285
    1   AR   Ar  170   2.733   4.282   4.475
    1   AR   Ar  171   3.793   3.705   4.545
    1   AR   Ar  172   4.243   4.679   4.295
    1   AR   Ar  173   3.555   3.333   5.842
    1   AR   Ar  174   4.184   5.331   6.159
    1   AR   Ar  175   3.470   4.314   6.368
    1   AR   Ar  176   3.768   4.535   5.218
    1   AR   Ar  177   5.524   5.748   0.462
    1   AR   Ar  178   3.997   6.893   1.198
    1   AR   Ar  179   3.929   5.048   1.517
    1   AR   Ar  180   4.265   5.759  -0.057
    1   AR   Ar  181   3.198   5.804   1.977
    1   AR   Ar  182   2.093   6.345   1.592
    1   AR   Ar  183   3.828   4.687   2.516
    1   AR   Ar  184   4.121   5.882   2.341
    1   AR   Ar  185   1.696   5.631   3.653
    1   AR   Ar  186   3.402   5.602   4.194
    1   AR   Ar  187   4.480   5.127   3.117
    1   AR   Ar  188   3.336   6.042   3.233
    1   AR   Ar  189   2.816   5.333   5.475
    1   AR   Ar  190   4.075   6.529   6.542
    1   AR   Ar  191   4.443   5.832   5.067
    1   AR   Ar  192   3.416   6.113   5.215
    1   AR   Ar  193   5.538   0.156  -0.102
    1   AR   Ar  194   4.340   0.144  -0.340
    1   AR   Ar  195   6.023   1.233   1.022
    1   AR   Ar  196   6.078   1.089  -0.422
    1   AR   Ar  197   5.115   0.426   1.216
    1   AR   Ar  198   5.169   1.425   1.786
    1   AR   Ar  199   5.809   0.693   2.054
    1   AR   Ar  200   6.823   1.563   1.650
    1   AR   Ar  201   4.774   6.387   3.046
    1   AR   Ar  202   5.026   1.077   4.194
    1   AR   Ar  203   6.730   6.792   4.419
    1   AR   Ar  204   6.140   0.419   3.125
    1   AR   Ar  205   5.681   6.803   3.881
    1   AR   Ar  206   4.915   6.726   4.858
    1   AR   Ar  207   0.021   6.994   5.812
    1   AR   Ar  208   6.284   0.573   4.264
    1   AR   Ar  209   6.708   1.917  -1.129
    1   AR   Ar  210   5.144   2.764   1.773
    1   AR   Ar  211   5.909   2.441   0.972
    1   AR   Ar  212   6.841   3.762  -0.376
    1   AR   Ar  213   4.967   2.307   2.751
    1   AR   Ar  214   4.267   3.699   2.189
    1   AR   Ar  215   6.060   2.154   2.491
    1   AR   Ar  216   6.241   3.090   1.812
    1   AR   Ar  217   5.317   2.335   3.674
    1   AR   Ar  218   5.449   1.965   4.704
    1   AR   Ar  219   5.470   1.356   3.248
    1   AR   Ar  220   6.302   3.146   3.089
    1   AR   Ar  221   5.627   0.995   5.178
    1   AR   Ar  222   4.475   2.457   6.516
    1   AR   Ar  223   6.870   1.894   7.312
    1   AR   Ar  224   6.033   2.479   5.625
    1   AR   Ar  225   5.189   4.330  -0.045
    1   AR   Ar  226   4.748   4.561   1.960
    1   AR   Ar  227   7.033   3.900   1.781
    1   AR   Ar  228   6.762   4.766   0.398
    1   AR   Ar  229   6.418   3.698   0.995
    1   AR   Ar  230   4.455   4.151   3.239
    1   AR   Ar  231   0.147   2.735   3.576
    1   AR   Ar  232   5.379   3.722   1.506
    1   AR   Ar  233   6.297   2.724   4.099
    1   AR   Ar  234   5.740   4.168   4.821
    1   AR   Ar  235   6.719   3.858   4.436
    1   AR   Ar  236   5.830   3.871   3.782
    1   AR   Ar  237   5.467   2.989   4.739
    1   AR   Ar  238   4.872   4.261   6.254
    1   AR   Ar  239   5.862   3.910   7.834
    1   AR   Ar  240   6.579   3.426   5.490
    1   AR   Ar  241   6.873   0.315  -0.045
    1   AR   Ar  242   4.944   6.083   1.500
    1   AR   Ar  243   5.806   4.572   2.137
    1   AR   Ar  244   6.379   6.572   0.414
    1   AR   Ar  245   5.370   5.541   2.494
    1   AR   Ar  246   5.791   6.473   2.748
    1   AR   Ar  247   5.408   3.760   2.773
    1   AR   Ar  248   6.045   6.994   1.434
    1   AR   Ar  249   5.986   5.010   3.194
    1   AR   Ar  250   4.592   5.806   4.042
    1   AR   Ar  251   5.625   5.170   4.127
    1   AR   Ar  252   6.374   5.732   3.782
    1   AR   Ar  253   5.399   5.331   5.326
    1   AR   Ar  254   5.589   5.863   6.618
    1   AR   Ar  255   6.062   4.549   5.945
    1   AR   Ar  256   5.995   6.214   4.760
    7.12000  7.12000 12.00000
Argon-slab step 790
  256
    1   AR   Ar    1   0.898   0.780  -0.608
    1   AR   Ar    2   0.055   0.568   1.019
    1   AR   Ar    3   0.948   6.485   0.565
    1   AR   Ar    4   1.203   0.539   0.477
    1   AR   Ar    5   7.061   6.514   1.153
    1   AR   Ar    6   0.573   0.324   2.836
    1   AR   Ar    7   0.243   6.569   2.299
    1   AR   Ar    8   1.144   0.115   1.379
    1   AR   Ar    9   0.384   0.573   4.332
    1   AR   Ar   10   7.093   1.609   4.514
    1   AR   Ar   11   1.682   0.196   4.373
    1   AR   Ar   12   1.118   0.914   3.569
    1   AR   Ar   13   6.787   0.694   5.174
    1   AR   Ar   14   0.389   1.453   6.035
    1   AR   Ar   15   1.487   6.366   6.926
    1   AR   Ar   16   1.218   1.066   5.381
    1   AR   Ar   17   6.759   1.538   0.180
    1   AR   Ar   18   6.851   2.721   0.246
    1   AR   Ar   19   0.583   1.714   0.761
    1   AR   Ar   20   0.182   2.697  -0.752
    1   AR   Ar   21   6.792   0.206   2.054
    1   AR   Ar   22   0.027   2.261   2.535
    1   AR   Ar   23   6.855   1.066   2.761
    1   AR   Ar   24   0.344   2.427   1.437
    1   AR   Ar   25   0.507   1.826   3.500
    1   AR   Ar   26   6.538   1.424   3.638
    1   AR   Ar   27   0.863   2.250   5.348
    1   AR   Ar   28   1.034   2.739   4.447
    1   AR   Ar   29   6.654   1.705   5.622
    1   AR   Ar   30   6.863   2.394   6.383
    1   AR   Ar   31   1.162   1.601   7.321
    1   AR   Ar   32   1.368   3.158   5.720
    1   AR   Ar   33   0.851   3.677  -0.237
    1   AR   Ar   34   0.445   5.024   1.368
    1   AR   Ar   35   0.504   3.464   0.739
    1   AR   Ar   36   1.635   6.250  -1.061
    1   AR   Ar   37   0.315   3.438   2.888
    1   AR   Ar   38   0.038   4.875   2.274
    1   AR   Ar   39   1.075   3.923   2.515
    1   AR   Ar   40   1.460   4.368   1.671
    1   AR   Ar   41   1.027   2.668   2.627
    1   AR   Ar   42   6.696   5.219   4.876
    1   AR   Ar   43   0.061   2.572   4.952
    1   AR   Ar   44   0.834   3.700   3.722
    1   AR   Ar   45   0.537   3.744   5.729
    1   AR   Ar   46   6.839   4.496   6.540
    1   AR   Ar   47   0.430   3.531   6.809
    1   AR   Ar   48   0.955   4.706   6.121
    1   AR   Ar   49   0.333   4.766  -0.449
    1   AR   Ar   50   6.118   5.729   1.206
    1   AR   Ar   51   1.123   4.298   0.607
    1   AR   Ar   52   1.100   5.326   0.178
    1   AR   Ar   53   6.683   5.866   2.529
    1   AR   Ar   54   6.985   6.770   3.417
    1   AR   Ar   55   0.330   5.675   3.043
    1   AR   Ar   56   0.746   6.008   1.516
    1   AR   Ar   57   6.752   4.301   3.143
    1   AR   Ar   58   0.297   5.772   4.189
    1   AR   Ar   59   1.657   6.288   4.804
    1   AR   Ar   60   1.102   6.465   3.944
    1   AR   Ar   61   6.752   5.784   5.896
    1   AR   Ar   62   0.513   6.068   5.168
    1   AR   Ar   63   1.507   5.699   5.873
    1   AR   Ar   64   0.909   0.062   5.135
    1   AR   Ar   65   2.076   6.214  -0.068
    1   AR   Ar   66   1.752   0.940   1.434
    1   AR   Ar   67   3.214   6.073  -0.220
    1   AR   Ar   68   4.108   0.753   0.646
    1   AR   Ar   69   2.180   6.994   0.735
    1   AR   Ar   70   1.545   0.078   2.360
    1   AR   Ar   71   2.657   7.048   2.227
    1   AR   Ar   72   2.879   0.829   1.247
    1   AR   Ar   73   1.832   6.772   3.278
    1   AR   Ar   74   1.732   1.345   4.347
    1   AR   Ar   75   2.720   0.696   4.634
    1   AR   Ar   76   2.148   0.903   3.424
    1   AR   Ar   77   1.931   0.216   5.523
    1   AR   Ar   78   1.193   0.541   6.539
    1   AR   Ar   79   2.640   6.800   6.880
    1   AR   Ar   80   3.096   7.082   5.645
    1   AR   Ar   81   1.802   1.479   0.479
    1   AR   Ar   82   1.796   3.433   0.464
    1   AR   Ar   83   2.671   1.810   1.771
    1   AR   Ar   84   2.057   2.915  -0.631
    1   AR   Ar   85   1.431   1.891   1.465
    1   AR   Ar   86   2.080   2.564   2.594
    1   AR   Ar   87   1.933   1.373   2.377
    1   AR   Ar   88   3.269   3.610   1.556
    1   AR   Ar   89   0.616   1.448   2.165
    1   AR   Ar   90   3.004   2.397   5.054
    1   AR   Ar   91   2.516   2.105   4.123
    1   AR   Ar   92   1.566   1.809   3.427
    1   AR   Ar   93   1.453   1.853   6.098
    1   AR   Ar   94   2.243   1.993   7.504
    1   AR   Ar   95   2.208   0.855   7.270
    1   AR   Ar   96   2.500   2.121   6.410
    1   AR   Ar   97   2.101   3.735  -1.172
    1   AR   Ar   98   2.881   4.583   1.828
    1   AR   Ar   99   3.144   2.879  -1.225
    1   AR   Ar  100   2.041   5.106  -0.019
    1   AR   Ar  101   1.360   3.109   1.801
    1   AR   Ar  102   1.945   4.052   3.466
    1   AR   Ar  103   2.187   3.869   2.068
    1   AR   Ar  104   2.993   3.908   0.659
    1   AR   Ar  105   1.782   2.775   3.804
    1   AR   Ar  106   2.357   3.250   4.609
    1   AR   Ar  107   2.867   4.150   5.503
    1   AR   Ar  108   3.089   3.581   3.846
    1   AR   Ar  109   0.662   4.267   4.534
    1   AR   Ar  110   1.624   4.118   5.642
    1   AR   Ar  111   3.769   5.439   7.235
    1   AR   Ar  112   2.425   3.311   6.114
    1   AR   Ar  113   2.327   4.681   0.892
    1   AR   Ar  114   1.868   5.644   0.772
    1   AR   Ar  115   3.318   5.069   0.551
    1   AR   Ar  116   3.192   0.160   0.304
    1   AR   Ar  117   1.587   4.888   2.644
    1   AR   Ar  118   1.142   6.082   2.545
    1   AR   Ar  119   2.630   4.635   2.805
    1   AR   Ar  120   2.099   5.338   1.799
    1   AR   Ar  121   1.188   4.786   3.547
    1   AR   Ar  122   2.569   6.308   4.463
    1   AR   Ar  123   2.207   5.370   4.565
    1   AR   Ar  124   2.369   5.966   2.513
    1   AR   Ar  125   1.090   5.215   4.820
    1   AR   Ar  126   1.265   6.787   6.005
    1   AR   Ar  127   2.523   5.563   7.605
    1   AR   Ar  128   2.197   6.433   6.008
    1   AR   Ar  129   2.815   6.225   0.754
    1   AR   Ar  130   3.413   0.077  -0.866
    1   AR   Ar  131   4.771   6.642   0.544
    1   AR   Ar  132   5.463   2.077  -0.674
    1   AR   Ar  133   3.575   6.919   2.721
    1   AR   Ar  134   3.167   0.819   2.608
    1   AR   Ar  135   5.060   0.482   2.956
    1   AR   Ar  136   3.969   0.586   2.059
    1   AR   Ar  137   2.973   0.139   3.660
    1   AR   Ar  138   4.376   1.116   5.157
    1   AR   Ar  139   4.212   0.293   3.930
    1   AR   Ar  140   4.304   1.385   3.329
    1   AR   Ar  141   3.537   7.084   4.690
    1   AR   Ar  142   4.093   7.031   5.590
    1   AR   Ar  143   5.024   7.088   6.154
    1   AR   Ar  144   4.752   1.076   6.975
    1   AR   Ar  145   2.483   2.274   0.170
    1   AR   Ar  146   4.197   2.696   0.945
    1   AR   Ar  147   4.956   1.663   0.600
    1   AR   Ar  148   6.026   3.036  -0.410
    1   AR   Ar  149   3.659   1.584   1.177
    1   AR   Ar  150   2.673   1.738   2.973
    1   AR   Ar  151   3.579   2.089   3.162
    1   AR   Ar  152   3.588   2.550   1.936
    1   AR   Ar  153   3.419   1.096   3.961
    1   AR   Ar  154   4.061   1.982   4.245
    1   AR   Ar  155   5.127   1.811   5.769
    1   AR   Ar  156   4.883   3.786   4.291
    1   AR   Ar  157   3.805   2.125   5.689
    1   AR   Ar  158   3.444   2.373   6.958
    1   AR   Ar  159   4.167   1.154   6.194
    1   AR   Ar  160   4.415   2.931   5.047
    1   AR   Ar  161   4.571   2.350  -0.084
    1   AR   Ar  162   4.623   5.140   0.822
    1   AR   Ar  163   5.195   3.368   0.549
    1   AR   Ar  164   5.743   4.524   0.941
    1   AR   Ar  165   3.160   3.650   2.885
    1   AR   Ar  166   3.296   4.635   3.653
    1   AR   Ar  167   4.490   2.952   3.273
    1   AR   Ar  168   4.381   3.758   1.099
    1   AR   Ar  169   2.793   2.852   3.294
    1   AR   Ar  170   2.746   4.267   4.475
    1   AR   Ar  171   3.771   3.703   4.568
    1   AR   Ar  172   4.237   4.669   4.277
    1   AR   Ar  173   3.572   3.348   5.822
    1   AR   Ar  174   4.195   5.342   6.161
    1   AR   Ar  175   3.477   4.315   6.356
    1   AR   Ar  176   3.761   4.548   5.199
    1   AR   Ar  177   5.523   5.737   0.450
    1   AR   Ar  178   4.015   6.915   1.201
    1   AR   Ar  179   3.926   5.054   1.505
    1   AR   Ar  180   4.283   5.784  -0.046
    1   AR   Ar  181   3.183   5.807   1.998
    1   AR   Ar  182   2.057   6.332   1.599
    1   AR   Ar  183   3.835   4.657   2.497
    1   AR   Ar  184   4.101   5.896   2.348
    1   AR   Ar  185   1.691   5.640   3.639
    1   AR   Ar  186   3.422   5.599   4.193
    1   AR   Ar  187   4.495   5.136   3.105
    1   AR   Ar  188   3.320   6.061   3.235
    1   AR   Ar  189   2.789   5.306   5.474
    1   AR   Ar  190   4.064   6.500   6.548
    1   AR   Ar  191   4.455   5.820   5.047
    1   AR   Ar  192   3.424   6.172   5.223
    1   AR   Ar  193   5.530   0.152  -0.096
    1   AR   Ar  194   4.336   0.102  -0.337
    1   AR   Ar  195   6.047   1.227   1.002
    1   AR   Ar  196   6.088   1.093  -0.448
    1   AR   Ar  197   5.096   0.455   1.184
    1   AR   Ar  198   5.161   1.441   1.786
    1   AR   Ar  199   5.784   0.692   2.053
    1   AR   Ar  200   6.852   1.544   1.627
    1   AR   Ar  201   4.798   6.396   3.029
    1   AR   Ar  202   4.999   1.072   4.204
    1   AR   Ar  203   6.731   6.828   4.429
    1   AR   Ar  204   6.095   0.425   3.102
    1   AR   Ar  205   5.666   6.826   3.871
    1   AR   Ar  206   4.915   6.722   4.862
    1   AR   Ar  207   0.020   6.995   5.807
    1   AR   Ar  208   6.299   0.607   4.266
    1   AR   Ar  209   6.700   1.902  -1.158
    1   AR   Ar  210   5.167   2.757   1.753
    1   AR   Ar  211   5.912   2.420   0.950
    1   AR   Ar  212   6.880   3.747  -0.405
    1   AR   Ar  213   4.968   2.307   2.762
    1   AR   Ar  214   4.253   3.704   2.191
    1   AR   Ar  215   6.023   2.159   2.507
    1   AR   Ar  216   6.259   3.058   1.791
    1   AR   Ar  217   5.305   2.312   3.675
    1   AR   Ar  218   5.456   1.950   4.719
    1   AR   Ar  219   5.441   1.394   3.255
    1   AR   Ar  220   6.304   3.160   3.114
    1   AR   Ar  221   5.626   1.023   5.169
    1   AR   Ar  222   4.494   2.428   6.491
    1   AR   Ar  223   6.867   1.892   7.312
    1   AR   Ar  224   6.048   2.490   5.626
    1   AR   Ar  225   5.169   4.325  -0.025
    1   AR   Ar  226   4.764   4.572   1.934
    1   AR   Ar  227   7.074   3.884   1.774
    1   AR   Ar  228   6.768   4.790   0.398
    1   AR   Ar  229   6.398   3.732   1.018
    1   AR   Ar  230   4.408   4.148   3.244
    1   AR   Ar  231   0.133   2.738   3.584
    1   AR   Ar  232   5.377   3.713   1.526
    1   AR   Ar  233   6.324   2.713   4.104
    1   AR   Ar  234   5.718   4.205   4.819
    1   AR   Ar  235   6.706   3.835   4.410
    1   AR   Ar  236   5.792   3.851   3.791
    1   AR   Ar  237   5.471   3.006   4.746
    1   AR   Ar  238   4.871   4.282   6.227
    1   AR   Ar  239   5.873   3.920   7.813
    1   AR   Ar  240   6.620   3.408   5.477
    1   AR   Ar  241   6.868   0.302  -0.056
    1   AR   Ar  242   4.964   6.089   1.502
    1   AR   Ar  243   5.839   4.597   2.148
    1   AR   Ar  244   6.412   6.520   0.393
    1   AR   Ar  245   5.370   5.530   2.512
    1   AR   Ar  246   5.807   6.431   2.719
    1   AR   Ar  247   5.411   3.737   2.768
    1   AR   Ar  248   6.057   7.032   1.408
    1   AR   Ar  249   5.956   4.981   3.147
    1   AR   Ar  250   4.599   5.858   4.030
    1   AR   Ar  251   5.596   5.155   4.121
    1   AR   Ar  252   6.323   5.728   3.771
    1   AR   Ar  253   5.399   5.336   5.324
    1   AR   Ar  254   5.587   5.864   6.613
    1   AR   Ar  255   6.091   4.541   5.962
    1   AR   Ar  256   5.970   6.232   4.775
    7.12000  7.12000 12.00000
Argon-slab step 795
  256
    1   AR   Ar    1   0.887   0.766  -0.601
    1   AR   Ar    2   0.029   0.588   1.024
    1   AR   Ar    3   0.950   6.503   0.573
    1   AR   Ar    4   1.195   0.533   0.490
    1   AR   Ar    5   7.061   6.513   1.148
    1   AR   Ar    6   0.562   0.317   2.827
    1   AR   Ar    7   0.243   6.538   2.293
    1   AR   Ar    8   1.127   0.127   1.381
    1   AR   Ar    9   0.379   0.577   4.358
    1   AR   Ar   10   7.078   1.606   4.524
    1   AR   Ar   11   1.733   0.171   4.406
    1   AR   Ar   12   1.104   0.891   3.564
    1   AR   Ar   13   6.779   0.732   5.191
    1   AR   Ar   14   0.408   1.437   6.005
    1   AR   Ar   15   1.490   6.352   6.914
    1   AR   Ar   16   1.250   1.058   5.368
    1   AR   Ar   17   6.770   1.521   0.190
    1   AR   Ar   18   6.829   2.753   0.253
    1   AR   Ar   19   0.579   1.684   0.748
    1   AR   Ar   20   0.190   2.726  -0.796
    1   AR   Ar   21   6.796   0.198   2.069
    1   AR   Ar   22   0.022   2.249   2.548
    1   AR   Ar   23   6.864   1.084   2.741
    1   AR   Ar   24   0.347   2.440   1.433
    1   AR   Ar   25   0.516   1.834   3.494
    1   AR   Ar   26   6.514   1.433   3.607
    1   AR   Ar   27   0.905   2.245   5.353
    1   AR   Ar   28   1.022   2.749   4.449
    1   AR   Ar   29   6.653   1.715   5.605
    1   AR   Ar   30   6.839   2.386   6.373
    1   AR   Ar   31   1.134   1.587   7.332
    1   AR   Ar   32   1.388   3.147   5.698
    1   AR   Ar   33   0.835   3.672  -0.260
    1   AR   Ar   34   0.452   5.019   1.378
    1   AR   Ar   35   0.496   3.459   0.732
    1   AR   Ar   36   1.626   6.280  -1.045
    1   AR   Ar   37   0.316   3.459   2.865
    1   AR   Ar   38   0.069   4.882   2.287
    1   AR   Ar   39   1.078   3.913   2.525
    1   AR   Ar   40   1.473   4.385   1.665
    1   AR   Ar   41   1.028   2.638   2.671
    1   AR   Ar   42   6.704   5.227   4.902
    1   AR   Ar   43   0.012   2.578   4.975
    1   AR   Ar   44   0.874   3.676   3.704
    1   AR   Ar   45   0.573   3.738   5.743
    1   AR   Ar   46   6.868   4.499   6.565
    1   AR   Ar   47   0.436   3.511   6.809
    1   AR   Ar   48   0.931   4.741   6.132
    1   AR   Ar   49   0.351   4.753  -0.469
    1   AR   Ar   50   6.114   5.730   1.208
    1   AR   Ar   51   1.161   4.313   0.589
    1   AR   Ar   52   1.093   5.338   0.196
    1   AR   Ar   53   6.653   5.862   2.527
    1   AR   Ar   54   6.955   6.753   3.414
    1   AR   Ar   55   0.334   5.648   3.044
    1   AR   Ar   56   0.740   5.986   1.509
    1   AR   Ar   57   6.745   4.312   3.135
    1   AR   Ar   58   0.296   5.768   4.200
    1   AR   Ar   59   1.641   6.316   4.834
    1   AR   Ar   60   1.100   6.492   3.951
    1   AR   Ar   61   6.751   5.780   5.898
    1   AR   Ar   62   0.526   6.052   5.175
    1   AR   Ar   63   1.479   5.703   5.915
    1   AR   Ar   64   0.898   0.022   5.127
    1   AR   Ar   65   2.078   6.240  -0.084
    1   AR   Ar   66   1.781   0.922   1.409
    1   AR   Ar   67   3.253   6.082  -0.216
    1   AR   Ar   68   4.129   0.722   0.639
    1   AR   Ar   69   2.179   6.986   0.748
    1   AR   Ar   70   1.575   0.081   2.363
    1   AR   Ar   71   2.684   7.047   2.220
    1   AR   Ar   72   2.885   0.837   1.226
    1   AR   Ar   73   1.855   6.786   3.324
    1   AR   Ar   74   1.734   1.340   4.365
    1   AR   Ar   75   2.720   0.681   4.635
    1   AR   Ar   76   2.169   0.899   3.399
    1   AR   Ar   77   1.936   0.233   5.535
    1   AR   Ar   78   1.178   0.554   6.545
    1   AR   Ar   79   2.673   6.769   6.881
    1   AR   Ar   80   3.086   7.009   5.603
    1   AR   Ar   81   1.791   1.487   0.473
    1   AR   Ar   82   1.797   3.404   0.422
    1   AR   Ar   83   2.673   1.813   1.769
    1   AR   Ar   84   2.058   2.927  -0.623
    1   AR   Ar   85   1.451   1.892   1.466
    1   AR   Ar   86   2.115   2.556   2.590
    1   AR   Ar   87   1.938   1.379   2.414
    1   AR   Ar   88   3.258   3.619   1.559
    1   AR   Ar   89   0.628   1.463   2.150
    1   AR   Ar   90   3.028   2.367   5.054
    1   AR   Ar   91   2.517   2.098   4.165
    1   AR   Ar   92   1.574   1.792   3.404
    1   AR   Ar   93   1.435   1.872   6.125
    1   AR   Ar   94   2.274   1.974   7.541
    1   AR   Ar   95   2.217   0.859   7.266
    1   AR   Ar   96   2.461   2.108   6.403
    1   AR   Ar   97   2.098   3.740  -1.208
    1   AR   Ar   98   2.881   4.583   1.879
    1   AR   Ar   99   3.153   2.879  -1.229
    1   AR   Ar  100   2.069   5.099  -0.026
    1   AR   Ar  101   1.375   3.080   1.796
    1   AR   Ar  102   1.930   4.064   3.464
    1   AR   Ar  103   2.223   3.838   2.092
    1   AR   Ar  104   3.020   3.881   0.637
    1   AR   Ar  105   1.793   2.792   3.835
    1   AR   Ar  106   2.369   3.231   4.596
    1   AR   Ar  107   2.870   4.137   5.498
    1   AR   Ar  108   3.097   3.576   3.880
    1   AR   Ar  109   0.699   4.277   4.555
    1   AR   Ar  110   1.618   4.139   5.630
    1   AR   Ar  111   3.795   5.458   7.255
    1   AR   Ar  112   2.429   3.299   6.121
    1   AR   Ar  113   2.340   4.680   0.897
    1   AR   Ar  114   1.857   5.656   0.772
    1   AR   Ar  115   3.300   5.070   0.525
    1   AR   Ar  116   3.239   0.169   0.317
    1   AR   Ar  117   1.598   4.897   2.647
    1   AR   Ar  118   1.124   6.112   2.535
    1   AR   Ar  119   2.634   4.603   2.782
    1   AR   Ar  120   2.074   5.301   1.770
    1   AR   Ar  121   1.168   4.751   3.572
    1   AR   Ar  122   2.569   6.293   4.446
    1   AR   Ar  123   2.212   5.342   4.595
    1   AR   Ar  124   2.390   5.979   2.544
    1   AR   Ar  125   1.078   5.214   4.809
    1   AR   Ar  126   1.268   6.777   5.989
    1   AR   Ar  127   2.521   5.560   7.629
    1   AR   Ar  128   2.220   6.422   5.999
    1   AR   Ar  129   2.823   6.217   0.749
    1   AR   Ar  130   3.411   0.058  -0.878
    1   AR   Ar  131   4.818   6.657   0.560
    1   AR   Ar  132   5.465   2.055  -0.659
    1   AR   Ar  133   3.559   6.920   2.720
    1   AR   Ar  134   3.198   0.826   2.605
    1   AR   Ar  135   5.040   0.482   2.966
    1   AR   Ar  136   4.008   0.590   2.044
    1   AR   Ar  137   2.930   0.139   3.666
    1   AR   Ar  138   4.423   1.104   5.111
    1   AR   Ar  139   4.249   0.310   3.940
    1   AR   Ar  140   4.311   1.335   3.332
    1   AR   Ar  141   3.563   7.090   4.683
    1   AR   Ar  142   4.086   7.009   5.572
    1   AR   Ar  143   5.060   7.103   6.189
    1   AR   Ar  144   4.737   1.060   7.002
    1   AR   Ar  145   2.486   2.272   0.180
    1   AR   Ar  146   4.216   2.675   0.925
    1   AR   Ar  147   4.935   1.629   0.647
    1   AR   Ar  148   6.039   3.066  -0.439
    1   AR   Ar  149   3.668   1.600   1.182
    1   AR   Ar  150   2.652   1.745   2.977
    1   AR   Ar  151   3.566   2.095   3.213
    1   AR   Ar  152   3.587   2.555   1.888
    1   AR   Ar  153   3.456   1.087   3.936
    1   AR   Ar  154   4.074   1.988   4.250
    1   AR   Ar  155   5.123   1.774   5.789
    1   AR   Ar  156   4.896   3.774   4.307
    1   AR   Ar  157   3.825   2.087   5.708
    1   AR   Ar  158   3.425   2.350   6.950
    1   AR   Ar  159   4.206   1.175   6.224
    1   AR   Ar  160   4.442   2.944   5.059
    1   AR   Ar  161   4.552   2.310  -0.101
    1   AR   Ar  162   4.625   5.154   0.829
    1   AR   Ar  163   5.249   3.346   0.517
    1   AR   Ar  164   5.747   4.536   0.932
    1   AR   Ar  165   3.193   3.633   2.896
    1   AR   Ar  166   3.313   4.622   3.666
    1   AR   Ar  167   4.459   2.925   3.300
    1   AR   Ar  168   4.384   3.734   1.103
    1   AR   Ar  169   2.787   2.862   3.302
    1   AR   Ar  170   2.755   4.262   4.480
    1   AR   Ar  171   3.754   3.699   4.597
    1   AR   Ar  172   4.233   4.662   4.254
    1   AR   Ar  173   3.588   3.360   5.801
    1   AR   Ar  174   4.205   5.353   6.162
    1   AR   Ar  175   3.486   4.317   6.344
    1   AR   Ar  176   3.758   4.565   5.184
    1   AR   Ar  177   5.510   5.726   0.425
    1   AR   Ar  178   4.030   6.937   1.207
    1   AR   Ar  179   3.917   5.063   1.503
    1   AR   Ar  180   4.301   5.810  -0.033
    1   AR   Ar  181   3.168   5.806   2.007
    1   AR   Ar  182   2.041   6.341   1.570
    1   AR   Ar  183   3.833   4.627   2.475
    1   AR   Ar  184   4.092   5.911   2.359
    1   AR   Ar  185   1.691   5.657   3.623
    1   AR   Ar  186   3.444   5.594   4.197
    1   AR   Ar  187   4.516   5.157   3.097
    1   AR   Ar  188   3.303   6.076   3.236
    1   AR   Ar  189   2.763   5.278   5.474
    1   AR   Ar  190   4.053   6.470   6.553
    1   AR   Ar  191   4.463   5.803   5.033
    1   AR   Ar  192   3.424   6.169   5.229
    1   AR   Ar  193   5.524   0.148  -0.088
    1   AR   Ar  194   4.332   0.059  -0.317
    1   AR   Ar  195   6.068   1.220   0.982
    1   AR   Ar  196   6.093   1.095  -0.477
    1   AR   Ar  197   5.088   0.468   1.163
    1   AR   Ar  198   5.148   1.463   1.783
    1   AR   Ar  199   5.764   0.690   2.056
    1   AR   Ar  200   6.879   1.523   1.604
    1   AR   Ar  201   4.819   6.405   3.014
    1   AR   Ar  202   4.987   1.064   4.209
    1   AR   Ar  203   6.739   6.860   4.442
    1   AR   Ar  204   6.052   0.429   3.082
    1   AR   Ar  205   5.651   6.849   3.859
    1   AR   Ar  206   4.917   6.723   4.863
    1   AR   Ar  207   0.020   6.995   5.802
    1   AR   Ar  208   6.309   0.647   4.264
    1   AR   Ar  209   6.691   1.886  -1.185
    1   AR   Ar  210   5.177   2.728   1.724
    1   AR   Ar  211   5.918   2.395   0.919
    1   AR   Ar  212   6.919   3.733  -0.433
    1   AR   Ar  213   4.946   2.322   2.730
    1   AR   Ar  214   4.238   3.702   2.195
    1   AR   Ar  215   5.987   2.164   2.523
    1   AR   Ar  216   6.278   3.022   1.776
    1   AR   Ar  217   5.293   2.284   3.701
    1   AR   Ar  218   5.470   1.934   4.719
    1   AR   Ar  219   5.418   1.430   3.259
    1   AR   Ar  220   6.307   3.174   3.136
    1   AR   Ar  221   5.627   1.047   5.160
    1   AR   Ar  222   4.512   2.399   6.465
    1   AR   Ar  223   6.864   1.888   7.314
    1   AR   Ar  224   6.055   2.509   5.624
    1   AR   Ar  225   5.147   4.322   0.001
    1   AR   Ar  226   4.784   4.586   1.908
    1   AR   Ar  227   7.119   3.868   1.773
    1   AR   Ar  228   6.794   4.818   0.421
    1   AR   Ar  229   6.379   3.763   1.032
    1   AR   Ar  230   4.362   4.135   3.253
    1   AR   Ar  231   0.144   2.724   3.570
    1   AR   Ar  232   5.377   3.712   1.551
    1   AR   Ar  233   6.350   2.702   4.111
    1   AR   Ar  234   5.696   4.234   4.822
    1   AR   Ar  235   6.695   3.812   4.383
    1   AR   Ar  236   5.758   3.832   3.797
    1   AR   Ar  237   5.477   3.024   4.753
    1   AR   Ar  238   4.870   4.305   6.200
    1   AR   Ar  239   5.884   3.930   7.792
    1   AR   Ar  240   6.661   3.392   5.464
    1   AR   Ar  241   6.869   0.271  -0.041
    1   AR   Ar  242   4.984   6.094   1.505
    1   AR   Ar  243   5.874   4.619   2.155
    1   AR   Ar  244   6.437   6.469   0.366
    1   AR   Ar  245   5.363   5.517   2.524
    1   AR   Ar  246   5.827   6.397   2.692
    1   AR   Ar  247   5.411   3.714   2.761
    1   AR   Ar  248   6.060   7.051   1.384
    1   AR   Ar  249   5.928   4.948   3.099
    1   AR   Ar  250   4.608   5.910   4.013
    1   AR   Ar  251   5.557   5.134   4.123
    1   AR   Ar  252   6.284   5.735   3.759
    1   AR   Ar  253   5.402   5.340   5.322
    1   AR   Ar  254   5.585   5.864   6.607
    1   AR   Ar  255   6.070   4.545   5.990
    1   AR   Ar  256   5.940   6.245   4.792
    7.12000  7.12000 12.00000
Argon-slab step 800
  256
    1   AR   Ar    1   0.874   0.752  -0.592
    1   AR   Ar    2   0.003   0.609   1.028
    1   AR   Ar    3   0.904   6.514   0.556
    1   AR   Ar    4   1.204   0.533   0.504
    1   AR   Ar    5   7.062   6.517   1.150
    1   AR   Ar    6   0.551   0.309   2.817
    1   AR   Ar    7   0.247   6.508   2.286
    1   AR   Ar    8   1.104   0.128   1.393
    1   AR   Ar    9   0.373   0.580   4.382
    1   AR   Ar   10   7.064   1.602   4.535
    1   AR   Ar   11   1.784   0.149   4.437
    1   AR   Ar   12   1.088   0.863   3.560
    1   AR   Ar   13   6.803   0.716   5.181
    1   AR   Ar   14   0.434   1.419   5.979
    1   AR   Ar   15   1.448   6.346   6.927
    1   AR   Ar   16   1.281   1.050   5.355
    1   AR   Ar   17   6.783   1.506   0.202
    1   AR   Ar   18   6.806   2.785   0.261
    1   AR   Ar   19   0.576   1.650   0.734
    1   AR   Ar   20   0.198   2.756  -0.838
    1   AR   Ar   21   6.763   0.199   2.071
    1   AR   Ar   22   0.013   2.238   2.561
    1   AR   Ar   23   6.877   1.100   2.712
    1   AR   Ar   24   0.349   2.457   1.434
    1   AR   Ar   25   0.529   1.826   3.487
    1   AR   Ar   26   6.488   1.449   3.580
    1   AR   Ar   27   0.947   2.237   5.357
    1   AR   Ar   28   1.000   2.760   4.454
    1   AR   Ar   29   6.639   1.709   5.616
    1   AR   Ar   30   6.818   2.383   6.363
    1   AR   Ar   31   1.107   1.574   7.341
    1   AR   Ar   32   1.413   3.125   5.675
    1   AR   Ar   33   0.823   3.668  -0.285
    1   AR   Ar   34   0.454   5.003   1.384
    1   AR   Ar   35   0.487   3.452   0.728
    1   AR   Ar   36   1.616   6.309  -1.030
    1   AR   Ar   37   0.295   3.472   2.842
    1   AR   Ar   38   0.095   4.888   2.310
    1   AR   Ar   39   1.098   3.911   2.531
    1   AR   Ar   40   1.482   4.407   1.652
    1   AR   Ar   41   1.027   2.606   2.720
    1   AR   Ar   42   6.711   5.235   4.928
    1   AR   Ar   43   7.077   2.586   4.994
    1   AR   Ar   44   0.916   3.648   3.687
    1   AR   Ar   45   0.603   3.737   5.756
    1   AR   Ar   46   6.909   4.501   6.597
    1   AR   Ar   47   0.447   3.512   6.808
    1   AR   Ar   48   0.904   4.778   6.144
    1   AR   Ar   49   0.370   4.739  -0.488
    1   AR   Ar   50   6.117   5.732   1.219
    1   AR   Ar   51   1.199   4.329   0.572
    1   AR   Ar   52   1.075   5.350   0.211
    1   AR   Ar   53   6.613   5.848   2.518
    1   AR   Ar   54   6.925   6.735   3.406
    1   AR   Ar   55   0.347   5.616   3.056
    1   AR   Ar   56   0.742   5.966   1.505
    1   AR   Ar   57   6.752   4.302   3.097
    1   AR   Ar   58   0.293   5.763   4.206
    1   AR   Ar   59   1.619   6.342   4.873
    1   AR   Ar   60   1.093   6.516   3.955
    1   AR   Ar   61   6.750   5.776   5.899
    1   AR   Ar   62   0.540   6.040   5.187
    1   AR   Ar   63   1.447   5.704   5.954
    1   AR   Ar   64   0.886   7.104   5.113
    1   AR   Ar   65   2.074   6.273  -0.102
    1   AR   Ar   66   1.815   0.900   1.384
    1   AR   Ar   67   3.292   6.091  -0.213
    1   AR   Ar   68   4.151   0.693   0.631
    1   AR   Ar   69   2.178   6.988   0.773
    1   AR   Ar   70   1.622   0.088   2.378
    1   AR   Ar   71   2.705   7.045   2.209
    1   AR   Ar   72   2.890   0.842   1.205
    1   AR   Ar   73   1.883   6.800   3.367
    1   AR   Ar   74   1.736   1.334   4.385
    1   AR   Ar   75   2.718   0.667   4.636
    1   AR   Ar   76   2.191   0.890   3.376
    1   AR   Ar   77   1.949   0.256   5.541
    1   AR   Ar   78   1.161   0.550   6.562
    1   AR   Ar   79   2.707   6.739   6.884
    1   AR   Ar   80   3.058   6.948   5.569
    1   AR   Ar   81   1.819   1.500   0.479
    1   AR   Ar   82   1.797   3.376   0.381
    1   AR   Ar   83   2.675   1.817   1.766
    1   AR   Ar   84   2.059   2.931  -0.610
    1   AR   Ar   85   1.468   1.900   1.469
    1   AR   Ar   86   2.144   2.549   2.580
    1   AR   Ar   87   1.931   1.378   2.444
    1   AR   Ar   88   3.251   3.623   1.573
    1   AR   Ar   89   0.648   1.477   2.138
    1   AR   Ar   90   3.049   2.346   5.056
    1   AR   Ar   91   2.520   2.088   4.203
    1   AR   Ar   92   1.587   1.783   3.377
    1   AR   Ar   93   1.420   1.887   6.158
    1   AR   Ar   94   2.314   1.945   7.580
    1   AR   Ar   95   2.225   0.863   7.261
    1   AR   Ar   96   2.422   2.096   6.397
    1   AR   Ar   97   2.067   3.751  -1.227
    1   AR   Ar   98   2.894   4.590   1.901
    1   AR   Ar   99   3.160   2.879  -1.231
    1   AR   Ar  100   2.080   5.104  -0.020
    1   AR   Ar  101   1.391   3.054   1.787
    1   AR   Ar  102   1.921   4.071   3.461
    1   AR   Ar  103   2.278   3.838   2.070
    1   AR   Ar  104   3.045   3.857   0.605
    1   AR   Ar  105   1.808   2.811   3.854
    1   AR   Ar  106   2.382   3.212   4.587
    1   AR   Ar  107   2.866   4.121   5.496
    1   AR   Ar  108   3.106   3.570   3.914
    1   AR   Ar  109   0.735   4.285   4.579
    1   AR   Ar  110   1.617   4.163   5.616
    1   AR   Ar  111   3.820   5.477   7.273
    1   AR   Ar  112   2.434   3.287   6.127
    1   AR   Ar  113   2.351   4.676   0.906
    1   AR   Ar  114   1.846   5.676   0.785
    1   AR   Ar  115   3.282   5.073   0.500
    1   AR   Ar  116   3.285   0.176   0.330
    1   AR   Ar  117   1.609   4.908   2.647
    1   AR   Ar  118   1.120   6.141   2.527
    1   AR   Ar  119   2.632   4.573   2.786
    1   AR   Ar  120   2.086   5.285   1.758
    1   AR   Ar  121   1.140   4.715   3.604
    1   AR   Ar  122   2.580   6.285   4.426
    1   AR   Ar  123   2.217   5.310   4.620
    1   AR   Ar  124   2.396   5.998   2.589
    1   AR   Ar  125   1.071   5.216   4.798
    1   AR   Ar  126   1.258   6.760   5.978
    1   AR   Ar  127   2.519   5.558   7.651
    1   AR   Ar  128   2.252   6.409   5.988
    1   AR   Ar  129   2.836   6.202   0.747
    1   AR   Ar  130   3.407   0.037  -0.890
    1   AR   Ar  131   4.867   6.672   0.574
    1   AR   Ar  132   5.471   2.039  -0.647
    1   AR   Ar  133   3.551   6.923   2.720
    1   AR   Ar  134   3.221   0.837   2.608
    1   AR   Ar  135   5.017   0.453   2.965
    1   AR   Ar  136   4.014   0.557   2.042
    1   AR   Ar  137   2.898   0.142   3.656
    1   AR   Ar  138   4.470   1.092   5.066
    1   AR   Ar  139   4.288   0.326   3.946
    1   AR   Ar  140   4.322   1.283   3.335
    1   AR   Ar  141   3.588   7.097   4.668
    1   AR   Ar  142   4.091   6.988   5.558
    1   AR   Ar  143   5.095   7.118   6.224
    1   AR   Ar  144   4.760   1.076   7.001
    1   AR   Ar  145   2.490   2.272   0.192
    1   AR   Ar  146   4.221   2.668   0.929
    1   AR   Ar  147   4.916   1.593   0.696
    1   AR   Ar  148   6.052   3.094  -0.467
    1   AR   Ar  149   3.680   1.617   1.187
    1   AR   Ar  150   2.641   1.749   2.995
    1   AR   Ar  151   3.560   2.105   3.265
    1   AR   Ar  152   3.587   2.559   1.839
    1   AR   Ar  153   3.491   1.079   3.910
    1   AR   Ar  154   4.089   1.994   4.255
    1   AR   Ar  155   5.119   1.736   5.809
    1   AR   Ar  156   4.897   3.762   4.323
    1   AR   Ar  157   3.847   2.049   5.726
    1   AR   Ar  158   3.414   2.334   6.940
    1   AR   Ar  159   4.233   1.199   6.235
    1   AR   Ar  160   4.466   2.956   5.071
    1   AR   Ar  161   4.533   2.272  -0.118
    1   AR   Ar  162   4.636   5.168   0.828
    1   AR   Ar  163   5.304   3.322   0.485
    1   AR   Ar  164   5.752   4.541   0.921
    1   AR   Ar  165   3.236   3.634   2.885
    1   AR   Ar  166   3.332   4.609   3.675
    1   AR   Ar  167   4.417   2.911   3.338
    1   AR   Ar  168   4.386   3.712   1.109
    1   AR   Ar  169   2.772   2.846   3.314
    1   AR   Ar  170   2.756   4.269   4.492
    1   AR   Ar  171   3.745   3.694   4.634
    1   AR   Ar  172   4.231   4.658   4.227
    1   AR   Ar  173   3.606   3.371   5.777
    1   AR   Ar  174   4.215   5.364   6.161
    1   AR   Ar  175   3.498   4.321   6.333
    1   AR   Ar  176   3.758   4.587   5.173
    1   AR   Ar  177   5.489   5.716   0.392
    1   AR   Ar  178   4.037   6.957   1.219
    1   AR   Ar  179   3.904   5.068   1.495
    1   AR   Ar  180   4.321   5.836  -0.019
    1   AR   Ar  181   3.157   5.800   2.001
    1   AR   Ar  182   2.024   6.353   1.544
    1   AR   Ar  183   3.824   4.599   2.454
    1   AR   Ar  184   4.093   5.925   2.372
    1   AR   Ar  185   1.695   5.676   3.606
    1   AR   Ar  186   3.467   5.588   4.204
    1   AR   Ar  187   4.538   5.183   3.091
    1   AR   Ar  188   3.276   6.084   3.222
    1   AR   Ar  189   2.738   5.262   5.475
    1   AR   Ar  190   4.041   6.439   6.558
    1   AR   Ar  191   4.467   5.782   5.024
    1   AR   Ar  192   3.429   6.152   5.229
    1   AR   Ar  193   5.525   0.152  -0.081
    1   AR   Ar  194   4.329   0.016  -0.294
    1   AR   Ar  195   6.085   1.211   0.962
    1   AR   Ar  196   6.097   1.095  -0.508
    1   AR   Ar  197   5.081   0.483   1.142
    1   AR   Ar  198   5.132   1.492   1.779
    1   AR   Ar  199   5.761   0.683   2.067
    1   AR   Ar  200   6.901   1.504   1.581
    1   AR   Ar  201   4.839   6.415   3.001
    1   AR   Ar  202   5.002   1.054   4.214
    1   AR   Ar  203   6.751   6.887   4.458
    1   AR   Ar  204   6.017   0.431   3.065
    1   AR   Ar  205   5.636   6.871   3.847
    1   AR   Ar  206   4.920   6.728   4.863
    1   AR   Ar  207   0.021   6.993   5.796
    1   AR   Ar  208   6.312   0.689   4.259
    1   AR   Ar  209   6.680   1.869  -1.211
    1   AR   Ar  210   5.185   2.693   1.696
    1   AR   Ar  211   5.923   2.370   0.888
    1   AR   Ar  212   6.956   3.719  -0.460
    1   AR   Ar  213   4.929   2.325   2.683
    1   AR   Ar  214   4.223   3.695   2.200
    1   AR   Ar  215   5.952   2.169   2.538
    1   AR   Ar  216   6.297   2.984   1.764
    1   AR   Ar  217   5.281   2.271   3.739
    1   AR   Ar  218   5.483   1.924   4.717
    1   AR   Ar  219   5.399   1.454   3.254
    1   AR   Ar  220   6.312   3.186   3.156
    1   AR   Ar  221   5.631   1.062   5.153
    1   AR   Ar  222   4.530   2.371   6.440
    1   AR   Ar  223   6.863   1.883   7.317
    1   AR   Ar  224   6.053   2.534   5.620
    1   AR   Ar  225   5.124   4.319   0.029
    1   AR   Ar  226   4.808   4.601   1.882
    1   AR   Ar  227   0.047   3.853   1.774
    1   AR   Ar  228   6.820   4.844   0.446
    1   AR   Ar  229   6.364   3.789   1.041
    1   AR   Ar  230   4.316   4.115   3.264
    1   AR   Ar  231   0.151   2.721   3.560
    1   AR   Ar  232   5.368   3.721   1.561
    1   AR   Ar  233   6.373   2.689   4.122
    1   AR   Ar  234   5.678   4.263   4.828
    1   AR   Ar  235   6.685   3.787   4.356
    1   AR   Ar  236   5.732   3.815   3.799
    1   AR   Ar  237   5.488   3.043   4.761
    1   AR   Ar  238   4.868   4.329   6.172
    1   AR   Ar  239   5.895   3.940   7.771
    1   AR   Ar  240   6.677   3.380   5.464
    1   AR   Ar  241   6.871   0.238  -0.020
    1   AR   Ar  242   5.004   6.097   1.508
    1   AR   Ar  243   5.910   4.637   2.153
    1   AR   Ar  244   6.455   6.416   0.334
    1   AR   Ar  245   5.345   5.506   2.527
    1   AR   Ar  246   5.846   6.378   2.668
    1   AR   Ar  247   5.410   3.692   2.752
    1   AR   Ar  248   6.050   7.047   1.368
    1   AR   Ar  249   5.902   4.912   3.066
    1   AR   Ar  250   4.617   5.961   3.991
    1   AR   Ar  251   5.563   5.148   4.143
    1   AR   Ar  252   6.253   5.751   3.744
    1   AR   Ar  253   5.407   5.343   5.318
    1   AR   Ar  254   5.580   5.864   6.606
    1   AR   Ar  255   6.038   4.550   6.009
    1   AR   Ar  256   5.909   6.254   4.809
    7.12000  7.12000 12.00000
Argon-slab step 805
  256
    1   AR   Ar    1   0.862   0.738  -0.581
    1   AR   Ar    2   7.098   0.627   1.032
    1   AR   Ar    3   0.859   6.525   0.539
    1   AR   Ar    4   1.214   0.539   0.507
    1   AR   Ar    5   7.063   6.526   1.156
    1   AR   Ar    6   0.540   0.300   2.805
    1   AR   Ar    7   0.243   6.483   2.276
    1   AR   Ar    8   1.077   0.119   1.417
    1   AR   Ar    9   0.369   0.585   4.402
    1   AR   Ar   10   7.049   1.598   4.545
    1   AR   Ar   11   1.835   0.131   4.464
    1   AR   Ar   12   1.072   0.832   3.558
    1   AR   Ar   13   6.831   0.692   5.176
    1   AR   Ar   14   0.464   1.398   5.954
    1   AR   Ar   15   1.395   6.341   6.947
    1   AR   Ar   16   1.310   1.044   5.341
    1   AR   Ar   17   6.796   1.493   0.215
    1   AR   Ar   18   6.785   2.817   0.271
    1   AR   Ar   19   0.577   1.615   0.721
    1   AR   Ar   20   0.206   2.786  -0.879
    1   AR   Ar   21   6.732   0.204   2.074
    1   AR   Ar   22   0.001   2.228   2.574
    1   AR   Ar   23   6.893   1.115   2.676
    1   AR   Ar   24   0.352   2.476   1.436
    1   AR   Ar   25   0.543   1.805   3.478
    1   AR   Ar   26   6.459   1.473   3.556
    1   AR   Ar   27   0.982   2.225   5.354
    1   AR   Ar   28   0.971   2.773   4.460
    1   AR   Ar   29   6.622   1.697   5.618
    1   AR   Ar   30   6.801   2.385   6.356
    1   AR   Ar   31   1.081   1.559   7.348
    1   AR   Ar   32   1.445   3.097   5.653
    1   AR   Ar   33   0.821   3.662  -0.308
    1   AR   Ar   34   0.453   4.976   1.383
    1   AR   Ar   35   0.487   3.485   0.747
    1   AR   Ar   36   1.605   6.338  -1.018
    1   AR   Ar   37   0.259   3.477   2.819
    1   AR   Ar   38   0.119   4.891   2.338
    1   AR   Ar   39   1.133   3.917   2.534
    1   AR   Ar   40   1.488   4.430   1.637
    1   AR   Ar   41   1.026   2.573   2.771
    1   AR   Ar   42   6.717   5.244   4.954
    1   AR   Ar   43   7.025   2.588   5.011
    1   AR   Ar   44   0.899   3.631   3.678
    1   AR   Ar   45   0.626   3.741   5.767
    1   AR   Ar   46   6.954   4.502   6.630
    1   AR   Ar   47   0.459   3.517   6.804
    1   AR   Ar   48   0.874   4.815   6.156
    1   AR   Ar   49   0.389   4.723  -0.505
    1   AR   Ar   50   6.125   5.736   1.231
    1   AR   Ar   51   1.239   4.346   0.556
    1   AR   Ar   52   1.048   5.363   0.225
    1   AR   Ar   53   6.584   5.818   2.504
    1   AR   Ar   54   6.895   6.716   3.395
    1   AR   Ar   55   0.365   5.585   3.074
    1   AR   Ar   56   0.752   5.950   1.502
    1   AR   Ar   57   6.759   4.290   3.060
    1   AR   Ar   58   0.288   5.758   4.207
    1   AR   Ar   59   1.594   6.361   4.918
    1   AR   Ar   60   1.080   6.541   3.962
    1   AR   Ar   61   6.749   5.772   5.899
    1   AR   Ar   62   0.554   6.031   5.204
    1   AR   Ar   63   1.415   5.703   5.990
    1   AR   Ar   64   0.876   7.084   5.097
    1   AR   Ar   65   2.073   6.305  -0.114
    1   AR   Ar   66   1.851   0.877   1.363
    1   AR   Ar   67   3.329   6.102  -0.211
    1   AR   Ar   68   4.184   0.685   0.610
    1   AR   Ar   69   2.170   6.993   0.783
    1   AR   Ar   70   1.614   0.091   2.398
    1   AR   Ar   71   2.717   7.045   2.192
    1   AR   Ar   72   2.897   0.846   1.184
    1   AR   Ar   73   1.917   6.816   3.407
    1   AR   Ar   74   1.739   1.326   4.404
    1   AR   Ar   75   2.715   0.652   4.638
    1   AR   Ar   76   2.212   0.877   3.356
    1   AR   Ar   77   1.968   0.280   5.543
    1   AR   Ar   78   1.144   0.543   6.581
    1   AR   Ar   79   2.741   6.710   6.889
    1   AR   Ar   80   3.015   6.909   5.545
    1   AR   Ar   81   1.855   1.513   0.489
    1   AR   Ar   82   1.797   3.348   0.340
    1   AR   Ar   83   2.677   1.820   1.763
    1   AR   Ar   84   2.048   2.951  -0.636
    1   AR   Ar   85   1.485   1.911   1.474
    1   AR   Ar   86   2.166   2.542   2.562
    1   AR   Ar   87   1.911   1.372   2.462
    1   AR   Ar   88   3.249   3.625   1.594
    1   AR   Ar   89   0.673   1.489   2.128
    1   AR   Ar   90   3.065   2.339   5.061
    1   AR   Ar   91   2.522   2.082   4.231
    1   AR   Ar   92   1.602   1.780   3.350
    1   AR   Ar   93   1.407   1.897   6.200
    1   AR   Ar   94   2.355   1.915   7.616
    1   AR   Ar   95   2.232   0.867   7.255
    1   AR   Ar   96   2.388   2.085   6.392
    1   AR   Ar   97   2.097   3.744  -1.245
    1   AR   Ar   98   2.925   4.607   1.887
    1   AR   Ar   99   3.165   2.880  -1.233
    1   AR   Ar  100   2.090   5.110  -0.016
    1   AR   Ar  101   1.407   3.029   1.777
    1   AR   Ar  102   1.917   4.073   3.457
    1   AR   Ar  103   2.316   3.832   2.056
    1   AR   Ar  104   3.069   3.835   0.567
    1   AR   Ar  105   1.824   2.830   3.860
    1   AR   Ar  106   2.398   3.194   4.585
    1   AR   Ar  107   2.857   4.103   5.497
    1   AR   Ar  108   3.114   3.558   3.936
    1   AR   Ar  109   0.767   4.285   4.603
    1   AR   Ar  110   1.619   4.189   5.599
    1   AR   Ar  111   3.845   5.497   7.290
    1   AR   Ar  112   2.440   3.274   6.131
    1   AR   Ar  113   2.362   4.669   0.918
    1   AR   Ar  114   1.836   5.699   0.804
    1   AR   Ar  115   3.285   5.059   0.501
    1   AR   Ar  116   3.328   0.180   0.342
    1   AR   Ar  117   1.620   4.920   2.648
    1   AR   Ar  118   1.132   6.166   2.522
    1   AR   Ar  119   2.623   4.544   2.822
    1   AR   Ar  120   2.108   5.278   1.753
    1   AR   Ar  121   1.106   4.685   3.637
    1   AR   Ar  122   2.595   6.281   4.403
    1   AR   Ar  123   2.236   5.281   4.632
    1   AR   Ar  124   2.389   6.019   2.641
    1   AR   Ar  125   1.069   5.224   4.788
    1   AR   Ar  126   1.242   6.738   5.971
    1   AR   Ar  127   2.519   5.556   7.672
    1   AR   Ar  128   2.284   6.392   5.974
    1   AR   Ar  129   2.853   6.182   0.748
    1   AR   Ar  130   3.403   0.016  -0.900
    1   AR   Ar  131   4.857   6.683   0.541
    1   AR   Ar  132   5.486   2.049  -0.654
    1   AR   Ar  133   3.554   6.928   2.723
    1   AR   Ar  134   3.237   0.852   2.616
    1   AR   Ar  135   4.991   0.405   2.956
    1   AR   Ar  136   4.031   0.518   2.029
    1   AR   Ar  137   2.871   0.143   3.643
    1   AR   Ar  138   4.511   1.081   5.029
    1   AR   Ar  139   4.327   0.339   3.951
    1   AR   Ar  140   4.337   1.233   3.335
    1   AR   Ar  141   3.609   7.103   4.646
    1   AR   Ar  142   4.104   6.966   5.548
    1   AR   Ar  143   5.129   0.012   6.257
    1   AR   Ar  144   4.805   1.099   7.008
    1   AR   Ar  145   2.495   2.274   0.203
    1   AR   Ar  146   4.228   2.659   0.934
    1   AR   Ar  147   4.897   1.557   0.745
    1   AR   Ar  148   6.063   3.121  -0.494
    1   AR   Ar  149   3.693   1.635   1.192
    1   AR   Ar  150   2.641   1.755   3.021
    1   AR   Ar  151   3.560   2.117   3.319
    1   AR   Ar  152   3.587   2.564   1.792
    1   AR   Ar  153   3.514   1.082   3.891
    1   AR   Ar  154   4.105   1.999   4.260
    1   AR   Ar  155   5.114   1.699   5.827
    1   AR   Ar  156   4.880   3.752   4.341
    1   AR   Ar  157   3.866   2.012   5.741
    1   AR   Ar  158   3.432   2.348   6.924
    1   AR   Ar  159   4.246   1.224   6.223
    1   AR   Ar  160   4.488   2.966   5.084
    1   AR   Ar  161   4.547   2.274  -0.140
    1   AR   Ar  162   4.656   5.182   0.822
    1   AR   Ar  163   5.360   3.297   0.456
    1   AR   Ar  164   5.757   4.538   0.907
    1   AR   Ar  165   3.284   3.643   2.865
    1   AR   Ar  166   3.352   4.598   3.678
    1   AR   Ar  167   4.372   2.903   3.381
    1   AR   Ar  168   4.387   3.694   1.114
    1   AR   Ar  169   2.753   2.819   3.329
    1   AR   Ar  170   2.751   4.288   4.510
    1   AR   Ar  171   3.745   3.689   4.680
    1   AR   Ar  172   4.233   4.656   4.200
    1   AR   Ar  173   3.563   3.328   5.773
    1   AR   Ar  174   4.224   5.375   6.158
    1   AR   Ar  175   3.511   4.327   6.322
    1   AR   Ar  176   3.755   4.606   5.166
    1   AR   Ar  177   5.465   5.706   0.356
    1   AR   Ar  178   4.015   6.952   1.253
    1   AR   Ar  179   3.883   5.071   1.490
    1   AR   Ar  180   4.342   5.862  -0.003
    1   AR   Ar  181   3.148   5.790   1.985
    1   AR   Ar  182   2.015   6.351   1.557
    1   AR   Ar  183   3.801   4.580   2.436
    1   AR   Ar  184   4.099   5.938   2.387
    1   AR   Ar  185   1.699   5.696   3.589
    1   AR   Ar  186   3.490   5.583   4.212
    1   AR   Ar  187   4.557   5.210   3.090
    1   AR   Ar  188   3.289   6.100   3.244
    1   AR   Ar  189   2.712   5.291   5.477
    1   AR   Ar  190   4.029   6.407   6.561
    1   AR   Ar  191   4.467   5.758   5.018
    1   AR   Ar  192   3.442   6.111   5.220
    1   AR   Ar  193   5.526   0.156  -0.073
    1   AR   Ar  194   4.377   0.034  -0.241
    1   AR   Ar  195   6.098   1.199   0.943
    1   AR   Ar  196   6.099   1.094  -0.539
    1   AR   Ar  197   5.075   0.498   1.122
    1   AR   Ar  198   5.115   1.522   1.775
    1   AR   Ar  199   5.778   0.671   2.083
    1   AR   Ar  200   6.921   1.487   1.558
    1   AR   Ar  201   4.856   6.426   2.989
    1   AR   Ar  202   5.026   1.046   4.218
    1   AR   Ar  203   6.765   6.910   4.477
    1   AR   Ar  204   5.992   0.434   3.051
    1   AR   Ar  205   5.622   6.892   3.835
    1   AR   Ar  206   4.921   6.710   4.867
    1   AR   Ar  207   0.024   6.989   5.789
    1   AR   Ar  208   6.310   0.732   4.252
    1   AR   Ar  209   6.668   1.852  -1.234
    1   AR   Ar  210   5.193   2.655   1.666
    1   AR   Ar  211   5.929   2.344   0.856
    1   AR   Ar  212   6.993   3.736  -0.472
    1   AR   Ar  213   4.911   2.323   2.632
    1   AR   Ar  214   4.211   3.681   2.205
    1   AR   Ar  215   5.922   2.173   2.553
    1   AR   Ar  216   6.316   2.945   1.754
    1   AR   Ar  217   5.267   2.276   3.786
    1   AR   Ar  218   5.496   1.926   4.712
    1   AR   Ar  219   5.385   1.462   3.240
    1   AR   Ar  220   6.320   3.198   3.172
    1   AR   Ar  221   5.639   1.063   5.151
    1   AR   Ar  222   4.549   2.343   6.419
    1   AR   Ar  223   6.862   1.876   7.320
    1   AR   Ar  224   6.044   2.562   5.613
    1   AR   Ar  225   5.102   4.318   0.058
    1   AR   Ar  226   4.833   4.618   1.857
    1   AR   Ar  227   0.097   3.838   1.777
    1   AR   Ar  228   6.845   4.870   0.472
    1   AR   Ar  229   6.358   3.803   1.049
    1   AR   Ar  230   4.271   4.092   3.277
    1   AR   Ar  231   0.154   2.730   3.553
    1   AR   Ar  232   5.353   3.735   1.560
    1   AR   Ar  233   6.393   2.675   4.135
    1   AR   Ar  234   5.662   4.292   4.836
    1   AR   Ar  235   6.670   3.782   4.355
    1   AR   Ar  236   5.733   3.800   3.804
    1   AR   Ar  237   5.505   3.058   4.769
    1   AR   Ar  238   4.866   4.354   6.142
    1   AR   Ar  239   5.907   3.950   7.749
    1   AR   Ar  240   6.657   3.377   5.488
    1   AR   Ar  241   6.877   0.235  -0.001
    1   AR   Ar  242   5.024   6.100   1.512
    1   AR   Ar  243   5.947   4.647   2.129
    1   AR   Ar  244   6.467   6.363   0.299
    1   AR   Ar  245   5.319   5.500   2.517
    1   AR   Ar  246   5.851   6.380   2.650
    1   AR   Ar  247   5.417   3.685   2.752
    1   AR   Ar  248   6.038   7.038   1.347
    1   AR   Ar  249   5.881   4.876   3.061
    1   AR   Ar  250   4.627   6.012   3.967
    1   AR   Ar  251   5.561   5.168   4.169
    1   AR   Ar  252   6.229   5.775   3.725
    1   AR   Ar  253   5.415   5.344   5.315
    1   AR   Ar  254   5.574   5.864   6.602
    1   AR   Ar  255   6.030   4.537   5.996
    1   AR   Ar  256   5.879   6.262   4.825
    7.12000  7.12000 12.00000
Argon-slab step 810
  256
    1   AR   Ar    1   0.848   0.724  -0.569
    1   AR   Ar    2   7.074   0.639   1.033
    1   AR   Ar    3   0.841   6.546   0.532
    1   AR   Ar    4   1.224   0.547   0.503
    1   AR   Ar    5   7.072   6.529   1.174
    1   AR   Ar    6   0.527   0.290   2.790
    1   AR   Ar    7   0.230   6.463   2.265
    1   AR   Ar    8   1.047   0.105   1.449
    1   AR   Ar    9   0.369   0.591   4.415
    1   AR   Ar   10   7.034   1.594   4.554
    1   AR   Ar   11   1.883   0.115   4.486
    1   AR   Ar   12   1.059   0.801   3.558
    1   AR   Ar   13   6.855   0.670   5.178
    1   AR   Ar   14   0.495   1.377   5.930
    1   AR   Ar   15   1.344   6.336   6.967
    1   AR   Ar   16   1.333   1.040   5.327
    1   AR   Ar   17   6.809   1.481   0.222
    1   AR   Ar   18   6.765   2.849   0.281
    1   AR   Ar   19   0.582   1.578   0.712
    1   AR   Ar   20   0.213   2.815  -0.918
    1   AR   Ar   21   6.705   0.210   2.080
    1   AR   Ar   22   7.107   2.219   2.586
    1   AR   Ar   23   6.909   1.130   2.637
    1   AR   Ar   24   0.355   2.495   1.439
    1   AR   Ar   25   0.557   1.775   3.469
    1   AR   Ar   26   6.429   1.503   3.531
    1   AR   Ar   27   1.010   2.210   5.345
    1   AR   Ar   28   0.938   2.788   4.464
    1   AR   Ar   29   6.603   1.678   5.614
    1   AR   Ar   30   6.787   2.392   6.351
    1   AR   Ar   31   1.055   1.545   7.353
    1   AR   Ar   32   1.481   3.071   5.631
    1   AR   Ar   33   0.837   3.656  -0.328
    1   AR   Ar   34   0.453   4.943   1.374
    1   AR   Ar   35   0.486   3.517   0.767
    1   AR   Ar   36   1.590   6.367  -1.011
    1   AR   Ar   37   0.219   3.477   2.793
    1   AR   Ar   38   0.140   4.892   2.369
    1   AR   Ar   39   1.173   3.924   2.535
    1   AR   Ar   40   1.492   4.452   1.621
    1   AR   Ar   41   1.027   2.540   2.823
    1   AR   Ar   42   6.723   5.253   4.977
    1   AR   Ar   43   6.978   2.583   5.024
    1   AR   Ar   44   0.867   3.614   3.670
    1   AR   Ar   45   0.645   3.747   5.776
    1   AR   Ar   46   6.949   4.495   6.622
    1   AR   Ar   47   0.470   3.522   6.801
    1   AR   Ar   48   0.841   4.849   6.168
    1   AR   Ar   49   0.410   4.707  -0.519
    1   AR   Ar   50   6.142   5.750   1.228
    1   AR   Ar   51   1.278   4.362   0.539
    1   AR   Ar   52   1.016   5.375   0.236
    1   AR   Ar   53   6.573   5.768   2.486
    1   AR   Ar   54   6.864   6.695   3.382
    1   AR   Ar   55   0.384   5.556   3.097
    1   AR   Ar   56   0.769   5.936   1.498
    1   AR   Ar   57   6.765   4.276   3.027
    1   AR   Ar   58   0.282   5.753   4.206
    1   AR   Ar   59   1.573   6.371   4.967
    1   AR   Ar   60   1.061   6.566   3.972
    1   AR   Ar   61   6.748   5.769   5.900
    1   AR   Ar   62   0.565   6.027   5.226
    1   AR   Ar   63   1.409   5.717   5.974
    1   AR   Ar   64   0.872   7.076   5.082
    1   AR   Ar   65   2.075   6.337  -0.119
    1   AR   Ar   66   1.855   0.887   1.366
    1   AR   Ar   67   3.363   6.115  -0.210
    1   AR   Ar   68   4.230   0.704   0.571
    1   AR   Ar   69   2.147   6.986   0.780
    1   AR   Ar   70   1.606   0.093   2.419
    1   AR   Ar   71   2.721   7.044   2.169
    1   AR   Ar   72   2.906   0.848   1.164
    1   AR   Ar   73   1.953   6.832   3.445
    1   AR   Ar   74   1.742   1.323   4.393
    1   AR   Ar   75   2.715   0.640   4.640
    1   AR   Ar   76   2.229   0.861   3.339
    1   AR   Ar   77   1.991   0.300   5.546
    1   AR   Ar   78   1.128   0.538   6.599
    1   AR   Ar   79   2.776   6.681   6.894
    1   AR   Ar   80   2.969   6.892   5.522
    1   AR   Ar   81   1.888   1.522   0.500
    1   AR   Ar   82   1.796   3.321   0.301
    1   AR   Ar   83   2.679   1.823   1.762
    1   AR   Ar   84   2.037   2.963  -0.658
    1   AR   Ar   85   1.501   1.923   1.480
    1   AR   Ar   86   2.178   2.537   2.536
    1   AR   Ar   87   1.883   1.359   2.466
    1   AR   Ar   88   3.251   3.625   1.618
    1   AR   Ar   89   0.704   1.501   2.121
    1   AR   Ar   90   3.084   2.336   5.069
    1   AR   Ar   91   2.520   2.097   4.238
    1   AR   Ar   92   1.617   1.783   3.329
    1   AR   Ar   93   1.391   1.904   6.248
    1   AR   Ar   94   2.395   1.885   7.651
    1   AR   Ar   95   2.237   0.871   7.248
    1   AR   Ar   96   2.361   2.076   6.389
    1   AR   Ar   97   2.142   3.738  -1.267
    1   AR   Ar   98   2.962   4.633   1.856
    1   AR   Ar   99   3.170   2.881  -1.234
    1   AR   Ar  100   2.101   5.115  -0.016
    1   AR   Ar  101   1.423   3.005   1.768
    1   AR   Ar  102   1.915   4.070   3.453
    1   AR   Ar  103   2.308   3.831   2.062
    1   AR   Ar  104   3.091   3.815   0.527
    1   AR   Ar  105   1.826   2.856   3.865
    1   AR   Ar  106   2.417   3.179   4.595
    1   AR   Ar  107   2.846   4.083   5.504
    1   AR   Ar  108   3.124   3.542   3.944
    1   AR   Ar  109   0.796   4.276   4.626
    1   AR   Ar  110   1.624   4.216   5.580
    1   AR   Ar  111   3.869   5.517   7.305
    1   AR   Ar  112   2.447   3.261   6.135
    1   AR   Ar  113   2.371   4.660   0.932
    1   AR   Ar  114   1.827   5.723   0.823
    1   AR   Ar  115   3.310   5.058   0.499
    1   AR   Ar  116   3.367   0.179   0.354
    1   AR   Ar  117   1.629   4.933   2.650
    1   AR   Ar  118   1.160   6.187   2.522
    1   AR   Ar  119   2.613   4.517   2.871
    1   AR   Ar  120   2.131   5.275   1.752
    1   AR   Ar  121   1.067   4.660   3.669
    1   AR   Ar  122   2.611   6.281   4.380
    1   AR   Ar  123   2.246   5.252   4.630
    1   AR   Ar  124   2.374   6.042   2.697
    1   AR   Ar  125   1.073   5.237   4.779
    1   AR   Ar  126   1.226   6.717   5.968
    1   AR   Ar  127   2.518   5.555   7.693
    1   AR   Ar  128   2.308   6.368   5.962
    1   AR   Ar  129   2.870   6.160   0.751
    1   AR   Ar  130   3.399   7.114  -0.908
    1   AR   Ar  131   4.853   6.678   0.516
    1   AR   Ar  132   5.527   2.049  -0.660
    1   AR   Ar  133   3.567   6.937   2.728
    1   AR   Ar  134   3.248   0.871   2.628
    1   AR   Ar  135   4.956   0.358   2.947
    1   AR   Ar  136   4.052   0.482   2.016
    1   AR   Ar  137   2.850   0.141   3.631
    1   AR   Ar  138   4.542   1.072   5.008
    1   AR   Ar  139   4.366   0.347   3.952
    1   AR   Ar  140   4.355   1.186   3.330
    1   AR   Ar  141   3.628   7.109   4.620
    1   AR   Ar  142   4.122   6.944   5.543
    1   AR   Ar  143   5.160   0.027   6.289
    1   AR   Ar  144   4.860   1.119   7.027
    1   AR   Ar  145   2.522   2.284   0.210
    1   AR   Ar  146   4.237   2.646   0.937
    1   AR   Ar  147   4.878   1.522   0.792
    1   AR   Ar  148   6.073   3.147  -0.521
    1   AR   Ar  149   3.707   1.652   1.197
    1   AR   Ar  150   2.654   1.767   3.042
    1   AR   Ar  151   3.566   2.128   3.374
    1   AR   Ar  152   3.585   2.570   1.748
    1   AR   Ar  153   3.476   1.080   3.903
    1   AR   Ar  154   4.123   2.004   4.267
    1   AR   Ar  155   5.112   1.663   5.841
    1   AR   Ar  156   4.851   3.743   4.360
    1   AR   Ar  157   3.879   1.982   5.745
    1   AR   Ar  158   3.449   2.362   6.907
    1   AR   Ar  159   4.252   1.242   6.203
    1   AR   Ar  160   4.508   2.975   5.097
    1   AR   Ar  161   4.560   2.275  -0.160
    1   AR   Ar  162   4.680   5.194   0.814
    1   AR   Ar  163   5.417   3.271   0.429
    1   AR   Ar  164   5.750   4.551   0.891
    1   AR   Ar  165   3.333   3.654   2.842
    1   AR   Ar  166   3.368   4.587   3.676
    1   AR   Ar  167   4.325   2.896   3.426
    1   AR   Ar  168   4.387   3.678   1.119
    1   AR   Ar  169   2.736   2.794   3.344
    1   AR   Ar  170   2.740   4.316   4.527
    1   AR   Ar  171   3.753   3.683   4.733
    1   AR   Ar  172   4.240   4.656   4.175
    1   AR   Ar  173   3.522   3.283   5.768
    1   AR   Ar  174   4.234   5.384   6.154
    1   AR   Ar  175   3.523   4.317   6.287
    1   AR   Ar  176   3.740   4.600   5.162
    1   AR   Ar  177   5.469   5.713   0.372
    1   AR   Ar  178   3.993   6.942   1.285
    1   AR   Ar  179   3.857   5.075   1.487
    1   AR   Ar  180   4.366   5.889   0.014
    1   AR   Ar  181   3.138   5.777   1.963
    1   AR   Ar  182   2.019   6.329   1.625
    1   AR   Ar  183   3.762   4.575   2.426
    1   AR   Ar  184   4.109   5.952   2.403
    1   AR   Ar  185   1.704   5.715   3.571
    1   AR   Ar  186   3.515   5.576   4.223
    1   AR   Ar  187   4.568   5.232   3.095
    1   AR   Ar  188   3.301   6.106   3.262
    1   AR   Ar  189   2.716   5.323   5.485
    1   AR   Ar  190   4.070   6.405   6.567
    1   AR   Ar  191   4.463   5.731   5.013
    1   AR   Ar  192   3.463   6.055   5.205
    1   AR   Ar  193   5.529   0.161  -0.064
    1   AR   Ar  194   4.422   0.053  -0.192
    1   AR   Ar  195   6.105   1.185   0.927
    1   AR   Ar  196   6.102   1.093  -0.569
    1   AR   Ar  197   5.073   0.513   1.104
    1   AR   Ar  198   5.100   1.553   1.775
    1   AR   Ar  199   5.792   0.663   2.094
    1   AR   Ar  200   6.934   1.476   1.541
    1   AR   Ar  201   4.872   6.437   2.979
    1   AR   Ar  202   5.064   1.040   4.206
    1   AR   Ar  203   6.780   6.929   4.498
    1   AR   Ar  204   5.979   0.436   3.044
    1   AR   Ar  205   5.606   6.912   3.824
    1   AR   Ar  206   4.920   6.678   4.874
    1   AR   Ar  207   0.029   6.982   5.782
    1   AR   Ar  208   6.305   0.773   4.245
    1   AR   Ar  209   6.656   1.836  -1.256
    1   AR   Ar  210   5.201   2.618   1.633
    1   AR   Ar  211   5.920   2.339   0.838
    1   AR   Ar  212   7.016   3.761  -0.482
    1   AR   Ar  213   4.887   2.319   2.584
    1   AR   Ar  214   4.204   3.661   2.208
    1   AR   Ar  215   5.899   2.176   2.567
    1   AR   Ar  216   6.336   2.906   1.745
    1   AR   Ar  217   5.249   2.293   3.833
    1   AR   Ar  218   5.508   1.938   4.708
    1   AR   Ar  219   5.374   1.458   3.217
    1   AR   Ar  220   6.331   3.207   3.186
    1   AR   Ar  221   5.652   1.050   5.153
    1   AR   Ar  222   4.570   2.320   6.404
    1   AR   Ar  223   6.863   1.870   7.324
    1   AR   Ar  224   6.027   2.589   5.605
    1   AR   Ar  225   5.078   4.317   0.089
    1   AR   Ar  226   4.857   4.636   1.833
    1   AR   Ar  227   0.148   3.823   1.780
    1   AR   Ar  228   6.871   4.895   0.500
    1   AR   Ar  229   6.347   3.809   1.054
    1   AR   Ar  230   4.228   4.066   3.290
    1   AR   Ar  231   0.158   2.745   3.549
    1   AR   Ar  232   5.341   3.747   1.560
    1   AR   Ar  233   6.408   2.660   4.150
    1   AR   Ar  234   5.656   4.320   4.845
    1   AR   Ar  235   6.648   3.808   4.391
    1   AR   Ar  236   5.744   3.789   3.809
    1   AR   Ar  237   5.520   3.042   4.774
    1   AR   Ar  238   4.864   4.381   6.110
    1   AR   Ar  239   5.919   3.961   7.727
    1   AR   Ar  240   6.635   3.387   5.515
    1   AR   Ar  241   6.888   0.274   0.013
    1   AR   Ar  242   5.045   6.102   1.516
    1   AR   Ar  243   5.986   4.651   2.087
    1   AR   Ar  244   6.475   6.309   0.263
    1   AR   Ar  245   5.293   5.499   2.494
    1   AR   Ar  246   5.840   6.404   2.636
    1   AR   Ar  247   5.430   3.688   2.758
    1   AR   Ar  248   6.024   7.028   1.322
    1   AR   Ar  249   5.861   4.840   3.079
    1   AR   Ar  250   4.637   6.062   3.943
    1   AR   Ar  251   5.552   5.183   4.198
    1   AR   Ar  252   6.212   5.805   3.701
    1   AR   Ar  253   5.424   5.344   5.313
    1   AR   Ar  254   5.568   5.863   6.597
    1   AR   Ar  255   6.028   4.520   5.973
    1   AR   Ar  256   5.852   6.266   4.839
    7.12000  7.12000 12.00000
Argon-slab step 815
  256
    1   AR   Ar    1   0.834   0.710  -0.554
    1   AR   Ar    2   7.053   0.641   1.030
    1   AR   Ar    3   0.830   6.569   0.527
    1   AR   Ar    4   1.233   0.557   0.497
    1   AR   Ar    5   7.092   6.521   1.206
    1   AR   Ar    6   0.513   0.278   2.774
    1   AR   Ar    7   0.209   6.448   2.252
    1   AR   Ar    8   1.015   0.088   1.483
    1   AR   Ar    9   0.377   0.601   4.418
    1   AR   Ar   10   7.018   1.590   4.561
    1   AR   Ar   11   1.923   0.098   4.503
    1   AR   Ar   12   1.050   0.770   3.559
    1   AR   Ar   13   6.873   0.653   5.187
    1   AR   Ar   14   0.525   1.354   5.906
    1   AR   Ar   15   1.294   6.331   6.987
    1   AR   Ar   16   1.351   1.040   5.314
    1   AR   Ar   17   6.821   1.472   0.223
    1   AR   Ar   18   6.746   2.882   0.293
    1   AR   Ar   19   0.594   1.540   0.708
    1   AR   Ar   20   0.219   2.844  -0.956
    1   AR   Ar   21   6.685   0.213   2.087
    1   AR   Ar   22   7.090   2.212   2.597
    1   AR   Ar   23   6.925   1.144   2.597
    1   AR   Ar   24   0.358   2.514   1.444
    1   AR   Ar   25   0.568   1.742   3.461
    1   AR   Ar   26   6.401   1.539   3.505
    1   AR   Ar   27   1.032   2.188   5.331
    1   AR   Ar   28   0.901   2.804   4.467
    1   AR   Ar   29   6.583   1.654   5.605
    1   AR   Ar   30   6.775   2.401   6.348
    1   AR   Ar   31   1.031   1.530   7.356
    1   AR   Ar   32   1.521   3.048   5.609
    1   AR   Ar   33   0.872   3.647  -0.344
    1   AR   Ar   34   0.455   4.906   1.361
    1   AR   Ar   35   0.485   3.550   0.786
    1   AR   Ar   36   1.571   6.397  -1.010
    1   AR   Ar   37   0.181   3.470   2.765
    1   AR   Ar   38   0.161   4.890   2.393
    1   AR   Ar   39   1.215   3.930   2.538
    1   AR   Ar   40   1.496   4.465   1.605
    1   AR   Ar   41   1.027   2.511   2.874
    1   AR   Ar   42   6.727   5.261   4.997
    1   AR   Ar   43   6.938   2.571   5.036
    1   AR   Ar   44   0.837   3.595   3.663
    1   AR   Ar   45   0.662   3.755   5.782
    1   AR   Ar   46   6.932   4.486   6.602
    1   AR   Ar   47   0.480   3.527   6.798
    1   AR   Ar   48   0.806   4.879   6.178
    1   AR   Ar   49   0.431   4.693  -0.532
    1   AR   Ar   50   6.161   5.763   1.227
    1   AR   Ar   51   1.318   4.377   0.522
    1   AR   Ar   52   0.980   5.389   0.247
    1   AR   Ar   53   6.569   5.706   2.467
    1   AR   Ar   54   6.833   6.675   3.368
    1   AR   Ar   55   0.406   5.533   3.124
    1   AR   Ar   56   0.792   5.923   1.494
    1   AR   Ar   57   6.765   4.263   2.998
    1   AR   Ar   58   0.275   5.750   4.202
    1   AR   Ar   59   1.568   6.358   4.974
    1   AR   Ar   60   1.040   6.591   3.983
    1   AR   Ar   61   6.747   5.767   5.902
    1   AR   Ar   62   0.574   6.026   5.252
    1   AR   Ar   63   1.413   5.730   5.942
    1   AR   Ar   64   0.892   7.081   5.083
    1   AR   Ar   65   2.081   6.366  -0.116
    1   AR   Ar   66   1.850   0.904   1.379
    1   AR   Ar   67   3.395   6.129  -0.211
    1   AR   Ar   68   4.272   0.729   0.535
    1   AR   Ar   69   2.123   6.996   0.820
    1   AR   Ar   70   1.600   0.096   2.440
    1   AR   Ar   71   2.719   7.045   2.144
    1   AR   Ar   72   2.916   0.850   1.144
    1   AR   Ar   73   1.984   6.845   3.479
    1   AR   Ar   74   1.747   1.323   4.359
    1   AR   Ar   75   2.722   0.634   4.643
    1   AR   Ar   76   2.238   0.846   3.323
    1   AR   Ar   77   2.018   0.314   5.550
    1   AR   Ar   78   1.113   0.533   6.615
    1   AR   Ar   79   2.812   6.652   6.899
    1   AR   Ar   80   2.935   6.893   5.490
    1   AR   Ar   81   1.916   1.527   0.512
    1   AR   Ar   82   1.793   3.296   0.266
    1   AR   Ar   83   2.680   1.825   1.761
    1   AR   Ar   84   2.027   2.965  -0.675
    1   AR   Ar   85   1.517   1.936   1.487
    1   AR   Ar   86   2.183   2.532   2.501
    1   AR   Ar   87   1.884   1.356   2.437
    1   AR   Ar   88   3.226   3.637   1.650
    1   AR   Ar   89   0.739   1.513   2.115
    1   AR   Ar   90   3.106   2.336   5.082
    1   AR   Ar   91   2.516   2.111   4.239
    1   AR   Ar   92   1.632   1.790   3.317
    1   AR   Ar   93   1.368   1.906   6.300
    1   AR   Ar   94   2.435   1.857   7.684
    1   AR   Ar   95   2.261   0.852   7.236
    1   AR   Ar   96   2.344   2.069   6.387
    1   AR   Ar   97   2.188   3.740  -1.295
    1   AR   Ar   98   2.991   4.662   1.817
    1   AR   Ar   99   3.182   2.882  -1.241
    1   AR   Ar  100   2.113   5.121  -0.017
    1   AR   Ar  101   1.438   2.981   1.761
    1   AR   Ar  102   1.912   4.061   3.453
    1   AR   Ar  103   2.295   3.828   2.071
    1   AR   Ar  104   3.113   3.795   0.488
    1   AR   Ar  105   1.817   2.883   3.863
    1   AR   Ar  106   2.439   3.165   4.617
    1   AR   Ar  107   2.831   4.062   5.514
    1   AR   Ar  108   3.136   3.527   3.944
    1   AR   Ar  109   0.813   4.258   4.650
    1   AR   Ar  110   1.629   4.244   5.560
    1   AR   Ar  111   3.885   5.529   7.305
    1   AR   Ar  112   2.454   3.247   6.138
    1   AR   Ar  113   2.380   4.648   0.943
    1   AR   Ar  114   1.817   5.746   0.840
    1   AR   Ar  115   3.317   5.070   0.489
    1   AR   Ar  116   3.402   0.173   0.365
    1   AR   Ar  117   1.637   4.947   2.655
    1   AR   Ar  118   1.198   6.204   2.525
    1   AR   Ar  119   2.609   4.493   2.917
    1   AR   Ar  120   2.155   5.277   1.754
    1   AR   Ar  121   1.027   4.643   3.700
    1   AR   Ar  122   2.627   6.282   4.356
    1   AR   Ar  123   2.247   5.225   4.616
    1   AR   Ar  124   2.364   6.058   2.737
    1   AR   Ar  125   1.083   5.255   4.769
    1   AR   Ar  126   1.209   6.701   5.969
    1   AR   Ar  127   2.519   5.555   7.712
    1   AR   Ar  128   2.316   6.331   5.957
    1   AR   Ar  129   2.885   6.161   0.770
    1   AR   Ar  130   3.396   7.091  -0.913
    1   AR   Ar  131   4.856   6.662   0.501
    1   AR   Ar  132   5.533   2.046  -0.661
    1   AR   Ar  133   3.587   6.947   2.735
    1   AR   Ar  134   3.256   0.891   2.643
    1   AR   Ar  135   4.918   0.315   2.938
    1   AR   Ar  136   4.077   0.454   2.010
    1   AR   Ar  137   2.844   0.133   3.624
    1   AR   Ar  138   4.562   1.064   5.003
    1   AR   Ar  139   4.403   0.348   3.953
    1   AR   Ar  140   4.372   1.144   3.322
    1   AR   Ar  141   3.642   7.114   4.592
    1   AR   Ar  142   4.139   6.921   5.542
    1   AR   Ar  143   5.191   0.041   6.321
    1   AR   Ar  144   4.918   1.139   7.048
    1   AR   Ar  145   2.556   2.299   0.215
    1   AR   Ar  146   4.250   2.630   0.936
    1   AR   Ar  147   4.858   1.493   0.831
    1   AR   Ar  148   6.082   3.172  -0.548
    1   AR   Ar  149   3.722   1.666   1.202
    1   AR   Ar  150   2.690   1.792   3.023
    1   AR   Ar  151   3.575   2.137   3.429
    1   AR   Ar  152   3.581   2.577   1.709
    1   AR   Ar  153   3.434   1.078   3.917
    1   AR   Ar  154   4.115   1.997   4.267
    1   AR   Ar  155   5.118   1.626   5.850
    1   AR   Ar  156   4.816   3.736   4.377
    1   AR   Ar  157   3.879   1.969   5.733
    1   AR   Ar  158   3.466   2.374   6.887
    1   AR   Ar  159   4.259   1.239   6.191
    1   AR   Ar  160   4.525   2.982   5.112
    1   AR   Ar  161   4.574   2.277  -0.177
    1   AR   Ar  162   4.704   5.204   0.808
    1   AR   Ar  163   5.474   3.246   0.404
    1   AR   Ar  164   5.733   4.580   0.875
    1   AR   Ar  165   3.378   3.664   2.820
    1   AR   Ar  166   3.377   4.576   3.669
    1   AR   Ar  167   4.280   2.892   3.472
    1   AR   Ar  168   4.385   3.666   1.122
    1   AR   Ar  169   2.748   2.786   3.323
    1   AR   Ar  170   2.729   4.345   4.541
    1   AR   Ar  171   3.770   3.671   4.733
    1   AR   Ar  172   4.255   4.659   4.156
    1   AR   Ar  173   3.482   3.236   5.763
    1   AR   Ar  174   4.241   5.385   6.168
    1   AR   Ar  175   3.534   4.299   6.236
    1   AR   Ar  176   3.725   4.602   5.161
    1   AR   Ar  177   5.482   5.726   0.400
    1   AR   Ar  178   3.970   6.924   1.306
    1   AR   Ar  179   3.833   5.080   1.483
    1   AR   Ar  180   4.391   5.913   0.032
    1   AR   Ar  181   3.127   5.765   1.940
    1   AR   Ar  182   2.022   6.312   1.700
    1   AR   Ar  183   3.731   4.573   2.426
    1   AR   Ar  184   4.118   5.964   2.416
    1   AR   Ar  185   1.709   5.734   3.554
    1   AR   Ar  186   3.540   5.568   4.234
    1   AR   Ar  187   4.569   5.250   3.110
    1   AR   Ar  188   3.312   6.108   3.285
    1   AR   Ar  189   2.741   5.357   5.501
    1   AR   Ar  190   4.109   6.403   6.573
    1   AR   Ar  191   4.458   5.701   5.007
    1   AR   Ar  192   3.485   5.996   5.188
    1   AR   Ar  193   5.534   0.169  -0.054
    1   AR   Ar  194   4.421   0.068  -0.161
    1   AR   Ar  195   6.106   1.169   0.912
    1   AR   Ar  196   6.105   1.091  -0.598
    1   AR   Ar  197   5.078   0.524   1.092
    1   AR   Ar  198   5.088   1.582   1.783
    1   AR   Ar  199   5.797   0.662   2.096
    1   AR   Ar  200   6.933   1.478   1.538
    1   AR   Ar  201   4.884   6.446   2.970
    1   AR   Ar  202   5.118   1.038   4.178
    1   AR   Ar  203   6.794   6.943   4.519
    1   AR   Ar  204   5.975   0.437   3.046
    1   AR   Ar  205   5.605   6.917   3.822
    1   AR   Ar  206   4.914   6.651   4.879
    1   AR   Ar  207   0.035   6.971   5.777
    1   AR   Ar  208   6.306   0.790   4.253
    1   AR   Ar  209   6.643   1.820  -1.275
    1   AR   Ar  210   5.210   2.584   1.596
    1   AR   Ar  211   5.902   2.347   0.827
    1   AR   Ar  212   7.018   3.787  -0.493
    1   AR   Ar  213   4.856   2.315   2.541
    1   AR   Ar  214   4.201   3.637   2.210
    1   AR   Ar  215   5.883   2.179   2.580
    1   AR   Ar  216   6.356   2.866   1.737
    1   AR   Ar  217   5.228   2.320   3.869
    1   AR   Ar  218   5.524   1.952   4.713
    1   AR   Ar  219   5.366   1.450   3.191
    1   AR   Ar  220   6.344   3.212   3.195
    1   AR   Ar  221   5.670   1.029   5.158
    1   AR   Ar  222   4.591   2.302   6.396
    1   AR   Ar  223   6.864   1.863   7.328
    1   AR   Ar  224   6.003   2.608   5.596
    1   AR   Ar  225   5.053   4.316   0.120
    1   AR   Ar  226   4.879   4.657   1.810
    1   AR   Ar  227   0.172   3.815   1.773
    1   AR   Ar  228   6.896   4.920   0.527
    1   AR   Ar  229   6.336   3.805   1.058
    1   AR   Ar  230   4.188   4.037   3.302
    1   AR   Ar  231   0.163   2.762   3.548
    1   AR   Ar  232   5.335   3.756   1.561
    1   AR   Ar  233   6.415   2.643   4.148
    1   AR   Ar  234   5.680   4.341   4.852
    1   AR   Ar  235   6.633   3.808   4.396
    1   AR   Ar  236   5.755   3.781   3.815
    1   AR   Ar  237   5.526   2.984   4.774
    1   AR   Ar  238   4.861   4.409   6.077
    1   AR   Ar  239   5.931   3.971   7.704
    1   AR   Ar  240   6.616   3.411   5.545
    1   AR   Ar  241   6.900   0.313   0.028
    1   AR   Ar  242   5.065   6.103   1.520
    1   AR   Ar  243   6.026   4.654   2.037
    1   AR   Ar  244   6.483   6.255   0.229
    1   AR   Ar  245   5.273   5.502   2.460
    1   AR   Ar  246   5.827   6.441   2.624
    1   AR   Ar  247   5.441   3.692   2.762
    1   AR   Ar  248   6.009   7.015   1.293
    1   AR   Ar  249   5.840   4.805   3.108
    1   AR   Ar  250   4.646   6.111   3.921
    1   AR   Ar  251   5.540   5.197   4.229
    1   AR   Ar  252   6.217   5.795   3.719
    1   AR   Ar  253   5.436   5.343   5.311
    1   AR   Ar  254   5.561   5.862   6.590
    1   AR   Ar  255   6.026   4.503   5.949
    1   AR   Ar  256   5.831   6.268   4.851
    7.12000  7.12000 12.00000
Argon-slab step 820
  256
    1   AR   Ar    1   0.820   0.697  -0.542
    1   AR   Ar    2   7.035   0.631   1.024
    1   AR   Ar    3   0.811   6.582   0.498
    1   AR   Ar    4   1.242   0.567   0.492
    1   AR   Ar    5   7.108   6.517   1.236
    1   AR   Ar    6   0.498   0.265   2.756
    1   AR   Ar    7   0.186   6.434   2.243
    1   AR   Ar    8   0.982   0.068   1.517
    1   AR   Ar    9   0.392   0.613   4.410
    1   AR   Ar   10   7.019   1.591   4.539
    1   AR   Ar   11   1.951   0.077   4.513
    1   AR   Ar   12   1.045   0.739   3.562
    1   AR   Ar   13   6.885   0.642   5.204
    1   AR   Ar   14   0.520   1.333   5.909
    1   AR   Ar   15   1.245   6.325   7.007
    1   AR   Ar   16   1.364   1.043   5.299
    1   AR   Ar   17   6.829   1.463   0.218
    1   AR   Ar   18   6.728   2.916   0.306
    1   AR   Ar   19   0.613   1.503   0.709
    1   AR   Ar   20   0.225   2.871  -0.993
    1   AR   Ar   21   6.674   0.212   2.094
    1   AR   Ar   22   7.073   2.206   2.607
    1   AR   Ar   23   6.939   1.157   2.559
    1   AR   Ar   24   0.361   2.532   1.449
    1   AR   Ar   25   0.575   1.707   3.453
    1   AR   Ar   26   6.375   1.578   3.477
    1   AR   Ar   27   1.050   2.161   5.314
    1   AR   Ar   28   0.863   2.822   4.469
    1   AR   Ar   29   6.562   1.630   5.593
    1   AR   Ar   30   6.766   2.413   6.345
    1   AR   Ar   31   1.007   1.514   7.357
    1   AR   Ar   32   1.563   3.030   5.587
    1   AR   Ar   33   0.918   3.637  -0.356
    1   AR   Ar   34   0.459   4.867   1.346
    1   AR   Ar   35   0.485   3.583   0.802
    1   AR   Ar   36   1.592   6.415  -0.991
    1   AR   Ar   37   0.201   3.452   2.757
    1   AR   Ar   38   0.185   4.886   2.409
    1   AR   Ar   39   1.255   3.935   2.542
    1   AR   Ar   40   1.504   4.448   1.598
    1   AR   Ar   41   1.027   2.486   2.920
    1   AR   Ar   42   6.730   5.267   5.013
    1   AR   Ar   43   6.903   2.555   5.050
    1   AR   Ar   44   0.808   3.574   3.655
    1   AR   Ar   45   0.678   3.765   5.784
    1   AR   Ar   46   6.915   4.477   6.581
    1   AR   Ar   47   0.477   3.494   6.784
    1   AR   Ar   48   0.769   4.907   6.187
    1   AR   Ar   49   0.456   4.681  -0.542
    1   AR   Ar   50   6.155   5.756   1.238
    1   AR   Ar   51   1.294   4.379   0.545
    1   AR   Ar   52   0.943   5.402   0.259
    1   AR   Ar   53   6.564   5.642   2.448
    1   AR   Ar   54   6.801   6.655   3.352
    1   AR   Ar   55   0.430   5.516   3.157
    1   AR   Ar   56   0.821   5.910   1.489
    1   AR   Ar   57   6.756   4.253   2.976
    1   AR   Ar   58   0.267   5.748   4.199
    1   AR   Ar   59   1.571   6.333   4.981
    1   AR   Ar   60   1.017   6.617   3.996
    1   AR   Ar   61   6.746   5.768   5.907
    1   AR   Ar   62   0.578   6.028   5.280
    1   AR   Ar   63   1.419   5.734   5.907
    1   AR   Ar   64   0.906   7.096   5.079
    1   AR   Ar   65   2.090   6.394  -0.106
    1   AR   Ar   66   1.844   0.918   1.395
    1   AR   Ar   67   3.423   6.145  -0.211
    1   AR   Ar   68   4.301   0.761   0.505
    1   AR   Ar   69   2.098   7.008   0.861
    1   AR   Ar   70   1.595   0.101   2.461
    1   AR   Ar   71   2.724   7.054   2.142
    1   AR   Ar   72   2.928   0.851   1.125
    1   AR   Ar   73   1.999   6.850   3.508
    1   AR   Ar   74   1.752   1.322   4.322
    1   AR   Ar   75   2.740   0.635   4.649
    1   AR   Ar   76   2.240   0.838   3.305
    1   AR   Ar   77   2.046   0.323   5.557
    1   AR   Ar   78   1.098   0.530   6.630
    1   AR   Ar   79   2.847   6.622   6.904
    1   AR   Ar   80   2.915   6.904   5.446
    1   AR   Ar   81   1.942   1.530   0.525
    1   AR   Ar   82   1.789   3.274   0.237
    1   AR   Ar   83   2.680   1.826   1.760
    1   AR   Ar   84   2.041   2.964  -0.686
    1   AR   Ar   85   1.533   1.949   1.494
    1   AR   Ar   86   2.181   2.528   2.460
    1   AR   Ar   87   1.884   1.350   2.399
    1   AR   Ar   88   3.207   3.646   1.671
    1   AR   Ar   89   0.774   1.525   2.111
    1   AR   Ar   90   3.128   2.338   5.095
    1   AR   Ar   91   2.512   2.123   4.235
    1   AR   Ar   92   1.648   1.798   3.315
    1   AR   Ar   93   1.336   1.906   6.353
    1   AR   Ar   94   2.474   1.829   7.716
    1   AR   Ar   95   2.288   0.826   7.223
    1   AR   Ar   96   2.339   2.065   6.386
    1   AR   Ar   97   2.236   3.748  -1.327
    1   AR   Ar   98   3.002   4.687   1.773
    1   AR   Ar   99   3.200   2.884  -1.253
    1   AR   Ar  100   2.124   5.127  -0.018
    1   AR   Ar  101   1.452   2.960   1.756
    1   AR   Ar  102   1.899   4.044   3.460
    1   AR   Ar  103   2.276   3.825   2.083
    1   AR   Ar  104   3.135   3.778   0.451
    1   AR   Ar  105   1.802   2.909   3.854
    1   AR   Ar  106   2.463   3.153   4.648
    1   AR   Ar  107   2.813   4.040   5.525
    1   AR   Ar  108   3.150   3.514   3.936
    1   AR   Ar  109   0.820   4.232   4.675
    1   AR   Ar  110   1.635   4.272   5.539
    1   AR   Ar  111   3.889   5.529   7.286
    1   AR   Ar  112   2.461   3.232   6.141
    1   AR   Ar  113   2.388   4.633   0.952
    1   AR   Ar  114   1.816   5.720   0.848
    1   AR   Ar  115   3.303   5.084   0.478
    1   AR   Ar  116   3.433   0.164   0.376
    1   AR   Ar  117   1.643   4.962   2.661
    1   AR   Ar  118   1.240   6.219   2.530
    1   AR   Ar  119   2.616   4.475   2.954
    1   AR   Ar  120   2.166   5.286   1.747
    1   AR   Ar  121   0.988   4.632   3.726
    1   AR   Ar  122   2.643   6.285   4.333
    1   AR   Ar  123   2.240   5.206   4.596
    1   AR   Ar  124   2.388   6.054   2.755
    1   AR   Ar  125   1.091   5.266   4.752
    1   AR   Ar  126   1.192   6.694   5.973
    1   AR   Ar  127   2.519   5.556   7.730
    1   AR   Ar  128   2.311   6.284   5.960
    1   AR   Ar  129   2.897   6.198   0.810
    1   AR   Ar  130   3.393   7.068  -0.916
    1   AR   Ar  131   4.867   6.651   0.503
    1   AR   Ar  132   5.541   2.044  -0.661
    1   AR   Ar  133   3.611   6.960   2.743
    1   AR   Ar  134   3.263   0.911   2.659
    1   AR   Ar  135   4.880   0.281   2.926
    1   AR   Ar  136   4.105   0.440   2.015
    1   AR   Ar  137   2.862   0.123   3.624
    1   AR   Ar  138   4.579   1.056   4.998
    1   AR   Ar  139   4.438   0.339   3.955
    1   AR   Ar  140   4.384   1.109   3.311
    1   AR   Ar  141   3.653   7.116   4.565
    1   AR   Ar  142   4.154   6.898   5.543
    1   AR   Ar  143   5.219   0.056   6.351
    1   AR   Ar  144   4.977   1.160   7.069
    1   AR   Ar  145   2.568   2.299   0.209
    1   AR   Ar  146   4.259   2.630   0.942
    1   AR   Ar  147   4.840   1.476   0.859
    1   AR   Ar  148   6.067   3.184  -0.529
    1   AR   Ar  149   3.739   1.677   1.205
    1   AR   Ar  150   2.727   1.809   3.003
    1   AR   Ar  151   3.582   2.143   3.478
    1   AR   Ar  152   3.573   2.587   1.676
    1   AR   Ar  153   3.392   1.076   3.929
    1   AR   Ar  154   4.093   1.982   4.268
    1   AR   Ar  155   5.134   1.591   5.853
    1   AR   Ar  156   4.779   3.729   4.393
    1   AR   Ar  157   3.867   1.974   5.706
    1   AR   Ar  158   3.482   2.387   6.865
    1   AR   Ar  159   4.269   1.213   6.192
    1   AR   Ar  160   4.538   2.985   5.129
    1   AR   Ar  161   4.588   2.278  -0.192
    1   AR   Ar  162   4.724   5.210   0.806
    1   AR   Ar  163   5.530   3.222   0.381
    1   AR   Ar  164   5.712   4.618   0.861
    1   AR   Ar  165   3.410   3.668   2.798
    1   AR   Ar  166   3.377   4.568   3.659
    1   AR   Ar  167   4.258   2.898   3.475
    1   AR   Ar  168   4.380   3.657   1.125
    1   AR   Ar  169   2.761   2.783   3.305
    1   AR   Ar  170   2.722   4.369   4.549
    1   AR   Ar  171   3.792   3.656   4.697
    1   AR   Ar  172   4.276   4.666   4.144
    1   AR   Ar  173   3.445   3.187   5.756
    1   AR   Ar  174   4.247   5.381   6.194
    1   AR   Ar  175   3.549   4.281   6.187
    1   AR   Ar  176   3.710   4.612   5.162
    1   AR   Ar  177   5.498   5.742   0.425
    1   AR   Ar  178   3.946   6.894   1.313
    1   AR   Ar  179   3.819   5.090   1.475
    1   AR   Ar  180   4.403   5.913   0.028
    1   AR   Ar  181   3.114   5.756   1.917
    1   AR   Ar  182   2.025   6.300   1.777
    1   AR   Ar  183   3.714   4.575   2.439
    1   AR   Ar  184   4.126   5.976   2.428
    1   AR   Ar  185   1.712   5.752   3.537
    1   AR   Ar  186   3.566   5.558   4.242
    1   AR   Ar  187   4.562   5.263   3.134
    1   AR   Ar  188   3.310   6.104   3.275
    1   AR   Ar  189   2.765   5.387   5.524
    1   AR   Ar  190   4.149   6.402   6.577
    1   AR   Ar  191   4.455   5.667   4.999
    1   AR   Ar  192   3.477   5.959   5.184
    1   AR   Ar  193   5.542   0.177  -0.043
    1   AR   Ar  194   4.406   0.063  -0.147
    1   AR   Ar  195   6.099   1.150   0.901
    1   AR   Ar  196   6.108   1.088  -0.625
    1   AR   Ar  197   5.092   0.528   1.087
    1   AR   Ar  198   5.079   1.604   1.803
    1   AR   Ar  199   5.790   0.669   2.087
    1   AR   Ar  200   6.931   1.492   1.542
    1   AR   Ar  201   4.891   6.445   2.962
    1   AR   Ar  202   5.183   1.041   4.142
    1   AR   Ar  203   6.805   6.951   4.538
    1   AR   Ar  204   5.978   0.438   3.058
    1   AR   Ar  205   5.607   6.917   3.823
    1   AR   Ar  206   4.901   6.630   4.880
    1   AR   Ar  207   0.044   6.956   5.772
    1   AR   Ar  208   6.313   0.783   4.265
    1   AR   Ar  209   6.630   1.806  -1.293
    1   AR   Ar  210   5.219   2.558   1.556
    1   AR   Ar  211   5.886   2.352   0.815
    1   AR   Ar  212   7.008   3.813  -0.502
    1   AR   Ar  213   4.819   2.313   2.503
    1   AR   Ar  214   4.205   3.610   2.209
    1   AR   Ar  215   5.873   2.182   2.593
    1   AR   Ar  216   6.376   2.827   1.729
    1   AR   Ar  217   5.201   2.353   3.892
    1   AR   Ar  218   5.545   1.959   4.731
    1   AR   Ar  219   5.359   1.441   3.163
    1   AR   Ar  220   6.359   3.214   3.202
    1   AR   Ar  221   5.691   1.002   5.163
    1   AR   Ar  222   4.611   2.291   6.396
    1   AR   Ar  223   6.866   1.855   7.331
    1   AR   Ar  224   5.975   2.619   5.591
    1   AR   Ar  225   5.032   4.312   0.145
    1   AR   Ar  226   4.893   4.668   1.790
    1   AR   Ar  227   0.157   3.815   1.753
    1   AR   Ar  228   6.899   4.923   0.531
    1   AR   Ar  229   6.332   3.792   1.064
    1   AR   Ar  230   4.159   4.007   3.315
    1   AR   Ar  231   0.169   2.775   3.549
    1   AR   Ar  232   5.333   3.760   1.564
    1   AR   Ar  233   6.416   2.626   4.133
    1   AR   Ar  234   5.705   4.358   4.860
    1   AR   Ar  235   6.623   3.791   4.383
    1   AR   Ar  236   5.760   3.776   3.823
    1   AR   Ar  237   5.533   2.933   4.767
    1   AR   Ar  238   4.858   4.438   6.043
    1   AR   Ar  239   5.943   3.982   7.680
    1   AR   Ar  240   6.600   3.446   5.577
    1   AR   Ar  241   6.910   0.353   0.042
    1   AR   Ar  242   5.086   6.104   1.523
    1   AR   Ar  243   6.067   4.656   1.986
    1   AR   Ar  244   6.491   6.202   0.196
    1   AR   Ar  245   5.261   5.508   2.418
    1   AR   Ar  246   5.820   6.483   2.610
    1   AR   Ar  247   5.451   3.697   2.764
    1   AR   Ar  248   5.994   7.001   1.261
    1   AR   Ar  249   5.817   4.771   3.139
    1   AR   Ar  250   4.655   6.158   3.905
    1   AR   Ar  251   5.546   5.222   4.236
    1   AR   Ar  252   6.214   5.772   3.711
    1   AR   Ar  253   5.449   5.340   5.313
    1   AR   Ar  254   5.554   5.861   6.581
    1   AR   Ar  255   5.992   4.494   5.964
    1   AR   Ar  256   5.822   6.265   4.860
    7.12000  7.12000 12.00000
Argon-slab step 825
  256
    1   AR   Ar    1   0.812   0.688  -0.543
    1   AR   Ar    2   7.021   0.615   1.021
    1   AR   Ar    3   0.793   6.595   0.470
    1   AR   Ar    4   1.251   0.577   0.489
    1   AR   Ar    5   7.119   6.516   1.261
    1   AR   Ar    6   0.482   0.250   2.736
    1   AR   Ar    7   0.164   6.420   2.239
    1   AR   Ar    8   0.948   0.048   1.551
    1   AR   Ar    9   0.411   0.628   4.395
    1   AR   Ar   10   7.019   1.592   4.516
    1   AR   Ar   11   1.967   0.050   4.521
    1   AR   Ar   12   1.048   0.707   3.559
    1   AR   Ar   13   6.891   0.639   5.225
    1   AR   Ar   14   0.492   1.312   5.930
    1   AR   Ar   15   1.197   6.320   7.025
    1   AR   Ar   16   1.373   1.049   5.283
    1   AR   Ar   17   6.835   1.455   0.209
    1   AR   Ar   18   6.710   2.951   0.321
    1   AR   Ar   19   0.636   1.465   0.714
    1   AR   Ar   20   0.230   2.899  -1.029
    1   AR   Ar   21   6.673   0.205   2.100
    1   AR   Ar   22   7.056   2.204   2.616
    1   AR   Ar   23   6.952   1.168   2.525
    1   AR   Ar   24   0.364   2.550   1.455
    1   AR   Ar   25   0.577   1.670   3.447
    1   AR   Ar   26   6.351   1.618   3.450
    1   AR   Ar   27   1.065   2.129   5.296
    1   AR   Ar   28   0.824   2.840   4.471
    1   AR   Ar   29   6.540   1.605   5.579
    1   AR   Ar   30   6.758   2.426   6.340
    1   AR   Ar   31   0.983   1.498   7.356
    1   AR   Ar   32   1.605   3.015   5.564
    1   AR   Ar   33   0.967   3.626  -0.368
    1   AR   Ar   34   0.465   4.826   1.332
    1   AR   Ar   35   0.485   3.615   0.813
    1   AR   Ar   36   1.619   6.431  -0.971
    1   AR   Ar   37   0.238   3.428   2.750
    1   AR   Ar   38   0.213   4.877   2.414
    1   AR   Ar   39   1.294   3.939   2.546
    1   AR   Ar   40   1.511   4.431   1.593
    1   AR   Ar   41   1.024   2.471   2.960
    1   AR   Ar   42   6.732   5.271   5.023
    1   AR   Ar   43   6.873   2.538   5.065
    1   AR   Ar   44   0.810   3.594   3.663
    1   AR   Ar   45   0.693   3.775   5.783
    1   AR   Ar   46   6.900   4.466   6.560
    1   AR   Ar   47   0.470   3.451   6.768
    1   AR   Ar   48   0.732   4.934   6.195
    1   AR   Ar   49   0.469   4.693  -0.578
    1   AR   Ar   50   6.142   5.735   1.247
    1   AR   Ar   51   1.255   4.376   0.577
    1   AR   Ar   52   0.921   5.414   0.284
    1   AR   Ar   53   6.556   5.578   2.430
    1   AR   Ar   54   6.770   6.635   3.335
    1   AR   Ar   55   0.458   5.505   3.194
    1   AR   Ar   56   0.853   5.897   1.485
    1   AR   Ar   57   6.738   4.246   2.960
    1   AR   Ar   58   0.258   5.748   4.196
    1   AR   Ar   59   1.580   6.301   4.987
    1   AR   Ar   60   0.995   6.643   4.010
    1   AR   Ar   61   6.746   5.771   5.917
    1   AR   Ar   62   0.577   6.031   5.309
    1   AR   Ar   63   1.427   5.726   5.872
    1   AR   Ar   64   0.916   7.118   5.071
    1   AR   Ar   65   2.104   6.421  -0.087
    1   AR   Ar   66   1.837   0.928   1.412
    1   AR   Ar   67   3.445   6.163  -0.211
    1   AR   Ar   68   4.315   0.795   0.478
    1   AR   Ar   69   2.072   7.020   0.903
    1   AR   Ar   70   1.592   0.109   2.483
    1   AR   Ar   71   2.744   7.077   2.179
    1   AR   Ar   72   2.939   0.851   1.107
    1   AR   Ar   73   1.997   6.845   3.532
    1   AR   Ar   74   1.757   1.319   4.283
    1   AR   Ar   75   2.767   0.643   4.658
    1   AR   Ar   76   2.236   0.836   3.286
    1   AR   Ar   77   2.073   0.329   5.568
    1   AR   Ar   78   1.084   0.527   6.643
    1   AR   Ar   79   2.883   6.592   6.908
    1   AR   Ar   80   2.906   6.918   5.396
    1   AR   Ar   81   1.953   1.533   0.533
    1   AR   Ar   82   1.783   3.255   0.217
    1   AR   Ar   83   2.680   1.826   1.758
    1   AR   Ar   84   2.048   2.962  -0.708
    1   AR   Ar   85   1.551   1.960   1.499
    1   AR   Ar   86   2.175   2.525   2.416
    1   AR   Ar   87   1.884   1.344   2.358
    1   AR   Ar   88   3.225   3.635   1.652
    1   AR   Ar   89   0.808   1.537   2.110
    1   AR   Ar   90   3.148   2.344   5.105
    1   AR   Ar   91   2.526   2.114   4.238
    1   AR   Ar   92   1.671   1.804   3.318
    1   AR   Ar   93   1.323   1.909   6.381
    1   AR   Ar   94   2.514   1.800   7.747
    1   AR   Ar   95   2.314   0.801   7.209
    1   AR   Ar   96   2.341   2.064   6.386
    1   AR   Ar   97   2.286   3.760  -1.362
    1   AR   Ar   98   2.993   4.703   1.732
    1   AR   Ar   99   3.215   2.886  -1.264
    1   AR   Ar  100   2.134   5.133  -0.019
    1   AR   Ar  101   1.463   2.944   1.751
    1   AR   Ar  102   1.878   4.020   3.474
    1   AR   Ar  103   2.255   3.823   2.097
    1   AR   Ar  104   3.156   3.761   0.416
    1   AR   Ar  105   1.785   2.934   3.841
    1   AR   Ar  106   2.487   3.143   4.684
    1   AR   Ar  107   2.811   4.048   5.522
    1   AR   Ar  108   3.163   3.504   3.920
    1   AR   Ar  109   0.827   4.202   4.705
    1   AR   Ar  110   1.643   4.301   5.517
    1   AR   Ar  111   3.892   5.529   7.265
    1   AR   Ar  112   2.467   3.215   6.147
    1   AR   Ar  113   2.393   4.616   0.953
    1   AR   Ar  114   1.817   5.685   0.853
    1   AR   Ar  115   3.288   5.100   0.468
    1   AR   Ar  116   3.462   0.151   0.386
    1   AR   Ar  117   1.648   4.977   2.668
    1   AR   Ar  118   1.281   6.231   2.537
    1   AR   Ar  119   2.630   4.463   2.979
    1   AR   Ar  120   2.166   5.299   1.735
    1   AR   Ar  121   0.949   4.626   3.747
    1   AR   Ar  122   2.658   6.289   4.310
    1   AR   Ar  123   2.224   5.202   4.574
    1   AR   Ar  124   2.413   6.055   2.780
    1   AR   Ar  125   1.092   5.264   4.724
    1   AR   Ar  126   1.175   6.683   6.034
    1   AR   Ar  127   2.521   5.557   7.748
    1   AR   Ar  128   2.302   6.236   5.967
    1   AR   Ar  129   2.908   6.234   0.852
    1   AR   Ar  130   3.392   7.044  -0.917
    1   AR   Ar  131   4.892   6.638   0.526
    1   AR   Ar  132   5.552   2.042  -0.662
    1   AR   Ar  133   3.637   6.973   2.753
    1   AR   Ar  134   3.269   0.930   2.676
    1   AR   Ar  135   4.844   0.264   2.913
    1   AR   Ar  136   4.136   0.437   2.029
    1   AR   Ar  137   2.906   0.114   3.630
    1   AR   Ar  138   4.609   1.046   4.961
    1   AR   Ar  139   4.474   0.321   3.960
    1   AR   Ar  140   4.384   1.103   3.308
    1   AR   Ar  141   3.661   7.116   4.538
    1   AR   Ar  142   4.159   6.879   5.549
    1   AR   Ar  143   5.247   0.070   6.381
    1   AR   Ar  144   5.036   1.181   7.088
    1   AR   Ar  145   2.586   2.309   0.217
    1   AR   Ar  146   4.269   2.638   0.949
    1   AR   Ar  147   4.828   1.480   0.879
    1   AR   Ar  148   6.053   3.195  -0.514
    1   AR   Ar  149   3.757   1.681   1.206
    1   AR   Ar  150   2.760   1.817   2.982
    1   AR   Ar  151   3.579   2.146   3.513
    1   AR   Ar  152   3.559   2.601   1.653
    1   AR   Ar  153   3.352   1.076   3.939
    1   AR   Ar  154   4.084   1.963   4.288
    1   AR   Ar  155   5.159   1.556   5.849
    1   AR   Ar  156   4.763   3.739   4.359
    1   AR   Ar  157   3.854   1.987   5.674
    1   AR   Ar  158   3.479   2.391   6.856
    1   AR   Ar  159   4.276   1.174   6.201
    1   AR   Ar  160   4.549   2.985   5.149
    1   AR   Ar  161   4.601   2.280  -0.204
    1   AR   Ar  162   4.740   5.212   0.808
    1   AR   Ar  163   5.583   3.204   0.360
    1   AR   Ar  164   5.692   4.662   0.852
    1   AR   Ar  165   3.418   3.662   2.778
    1   AR   Ar  166   3.372   4.563   3.651
    1   AR   Ar  167   4.246   2.911   3.467
    1   AR   Ar  168   4.371   3.648   1.118
    1   AR   Ar  169   2.772   2.786   3.289
    1   AR   Ar  170   2.760   4.359   4.519
    1   AR   Ar  171   3.813   3.641   4.668
    1   AR   Ar  172   4.302   4.677   4.136
    1   AR   Ar  173   3.413   3.138   5.747
    1   AR   Ar  174   4.253   5.375   6.217
    1   AR   Ar  175   3.569   4.265   6.142
    1   AR   Ar  176   3.694   4.627   5.162
    1   AR   Ar  177   5.517   5.760   0.445
    1   AR   Ar  178   3.957   6.872   1.307
    1   AR   Ar  179   3.814   5.115   1.482
    1   AR   Ar  180   4.415   5.905   0.021
    1   AR   Ar  181   3.100   5.751   1.896
    1   AR   Ar  182   2.026   6.294   1.851
    1   AR   Ar  183   3.708   4.581   2.460
    1   AR   Ar  184   4.131   5.986   2.435
    1   AR   Ar  185   1.713   5.769   3.522
    1   AR   Ar  186   3.599   5.564   4.221
    1   AR   Ar  187   4.551   5.274   3.163
    1   AR   Ar  188   3.309   6.099   3.268
    1   AR   Ar  189   2.779   5.406   5.552
    1   AR   Ar  190   4.188   6.402   6.581
    1   AR   Ar  191   4.454   5.629   4.990
    1   AR   Ar  192   3.430   5.958   5.196
    1   AR   Ar  193   5.550   0.188  -0.030
    1   AR   Ar  194   4.414   0.032  -0.147
    1   AR   Ar  195   6.087   1.130   0.892
    1   AR   Ar  196   6.112   1.084  -0.649
    1   AR   Ar  197   5.114   0.522   1.088
    1   AR   Ar  198   5.107   1.605   1.794
    1   AR   Ar  199   5.772   0.683   2.070
    1   AR   Ar  200   6.928   1.514   1.548
    1   AR   Ar  201   4.886   6.438   2.974
    1   AR   Ar  202   5.254   1.046   4.105
    1   AR   Ar  203   6.816   6.953   4.556
    1   AR   Ar  204   5.984   0.439   3.076
    1   AR   Ar  205   5.607   6.915   3.825
    1   AR   Ar  206   4.882   6.615   4.877
    1   AR   Ar  207   0.055   6.934   5.770
    1   AR   Ar  208   6.324   0.761   4.277
    1   AR   Ar  209   6.616   1.792  -1.310
    1   AR   Ar  210   5.227   2.546   1.516
    1   AR   Ar  211   5.876   2.350   0.800
    1   AR   Ar  212   6.992   3.834  -0.510
    1   AR   Ar  213   4.776   2.313   2.473
    1   AR   Ar  214   4.220   3.583   2.202
    1   AR   Ar  215   5.868   2.188   2.604
    1   AR   Ar  216   6.396   2.787   1.721
    1   AR   Ar  217   5.170   2.390   3.902
    1   AR   Ar  218   5.571   1.949   4.758
    1   AR   Ar  219   5.354   1.431   3.133
    1   AR   Ar  220   6.375   3.212   3.204
    1   AR   Ar  221   5.714   0.971   5.168
    1   AR   Ar  222   4.630   2.283   6.399
    1   AR   Ar  223   6.870   1.848   7.333
    1   AR   Ar  224   5.947   2.621   5.596
    1   AR   Ar  225   5.028   4.297   0.148
    1   AR   Ar  226   4.883   4.631   1.777
    1   AR   Ar  227   0.139   3.819   1.736
    1   AR   Ar  228   6.878   4.928   0.529
    1   AR   Ar  229   6.332   3.776   1.071
    1   AR   Ar  230   4.146   3.978   3.333
    1   AR   Ar  231   0.174   2.780   3.547
    1   AR   Ar  232   5.337   3.760   1.566
    1   AR   Ar  233   6.411   2.606   4.117
    1   AR   Ar  234   5.723   4.347   4.878
    1   AR   Ar  235   6.617   3.772   4.373
    1   AR   Ar  236   5.759   3.774   3.833
    1   AR   Ar  237   5.521   2.927   4.755
    1   AR   Ar  238   4.854   4.468   6.007
    1   AR   Ar  239   5.956   3.992   7.656
    1   AR   Ar  240   6.586   3.487   5.609
    1   AR   Ar  241   6.920   0.391   0.051
    1   AR   Ar  242   5.107   6.106   1.524
    1   AR   Ar  243   6.107   4.658   1.935
    1   AR   Ar  244   6.499   6.150   0.166
    1   AR   Ar  245   5.255   5.515   2.373
    1   AR   Ar  246   5.794   6.490   2.637
    1   AR   Ar  247   5.462   3.696   2.767
    1   AR   Ar  248   5.980   6.986   1.230
    1   AR   Ar  249   5.793   4.738   3.170
    1   AR   Ar  250   4.662   6.202   3.895
    1   AR   Ar  251   5.552   5.248   4.238
    1   AR   Ar  252   6.212   5.752   3.691
    1   AR   Ar  253   5.463   5.336   5.317
    1   AR   Ar  254   5.547   5.860   6.570
    1   AR   Ar  255   5.951   4.487   5.988
    1   AR   Ar  256   5.823   6.258   4.866
    7.12000  7.12000 12.00000
Argon-slab step 830
  256
    1   AR   Ar    1   0.803   0.679  -0.542
    1   AR   Ar    2   7.011   0.595   1.026
    1   AR   Ar    3   0.777   6.609   0.443
    1   AR   Ar    4   1.260   0.585   0.487
    1   AR   Ar    5   0.005   6.519   1.275
    1   AR   Ar    6   0.466   0.235   2.715
    1   AR   Ar    7   0.145   6.404   2.246
    1   AR   Ar    8   0.914   0.027   1.585
    1   AR   Ar    9   0.431   0.645   4.378
    1   AR   Ar   10   7.019   1.595   4.492
    1   AR   Ar   11   1.976   0.022   4.528
    1   AR   Ar   12   1.051   0.707   3.552
    1   AR   Ar   13   6.887   0.648   5.227
    1   AR   Ar   14   0.463   1.291   5.950
    1   AR   Ar   15   1.160   6.319   7.049
    1   AR   Ar   16   1.375   1.061   5.277
    1   AR   Ar   17   6.839   1.449   0.198
    1   AR   Ar   18   6.693   2.986   0.337
    1   AR   Ar   19   0.663   1.428   0.723
    1   AR   Ar   20   0.234   2.927  -1.063
    1   AR   Ar   21   6.676   0.193   2.105
    1   AR   Ar   22   7.039   2.206   2.624
    1   AR   Ar   23   6.964   1.174   2.496
    1   AR   Ar   24   0.368   2.568   1.463
    1   AR   Ar   25   0.574   1.632   3.443
    1   AR   Ar   26   6.331   1.659   3.424
    1   AR   Ar   27   1.078   2.094   5.278
    1   AR   Ar   28   0.784   2.857   4.472
    1   AR   Ar   29   6.517   1.582   5.565
    1   AR   Ar   30   6.751   2.439   6.335
    1   AR   Ar   31   0.958   1.481   7.355
    1   AR   Ar   32   1.646   3.001   5.539
    1   AR   Ar   33   1.014   3.616  -0.379
    1   AR   Ar   34   0.474   4.784   1.318
    1   AR   Ar   35   0.488   3.644   0.816
    1   AR   Ar   36   1.643   6.447  -0.958
    1   AR   Ar   37   0.280   3.403   2.738
    1   AR   Ar   38   0.246   4.866   2.412
    1   AR   Ar   39   1.328   3.941   2.553
    1   AR   Ar   40   1.508   4.432   1.593
    1   AR   Ar   41   1.018   2.467   2.992
    1   AR   Ar   42   6.734   5.272   5.027
    1   AR   Ar   43   6.847   2.522   5.082
    1   AR   Ar   44   0.815   3.615   3.671
    1   AR   Ar   45   0.708   3.786   5.778
    1   AR   Ar   46   6.885   4.455   6.537
    1   AR   Ar   47   0.462   3.428   6.766
    1   AR   Ar   48   0.694   4.960   6.200
    1   AR   Ar   49   0.485   4.708  -0.612
    1   AR   Ar   50   6.134   5.713   1.260
    1   AR   Ar   51   1.216   4.375   0.605
    1   AR   Ar   52   0.922   5.422   0.327
    1   AR   Ar   53   6.544   5.528   2.424
    1   AR   Ar   54   6.739   6.616   3.317
    1   AR   Ar   55   0.487   5.498   3.230
    1   AR   Ar   56   0.889   5.883   1.481
    1   AR   Ar   57   6.715   4.237   2.947
    1   AR   Ar   58   0.248   5.750   4.197
    1   AR   Ar   59   1.593   6.266   4.991
    1   AR   Ar   60   0.973   6.669   4.024
    1   AR   Ar   61   6.730   5.770   5.915
    1   AR   Ar   62   0.572   6.037   5.337
    1   AR   Ar   63   1.433   5.703   5.837
    1   AR   Ar   64   0.925   0.020   5.064
    1   AR   Ar   65   2.122   6.446  -0.059
    1   AR   Ar   66   1.830   0.931   1.427
    1   AR   Ar   67   3.462   6.183  -0.209
    1   AR   Ar   68   4.311   0.822   0.447
    1   AR   Ar   69   2.046   7.031   0.946
    1   AR   Ar   70   1.592   0.120   2.505
    1   AR   Ar   71   2.761   7.101   2.215
    1   AR   Ar   72   2.950   0.852   1.089
    1   AR   Ar   73   1.984   6.836   3.550
    1   AR   Ar   74   1.763   1.313   4.244
    1   AR   Ar   75   2.796   0.654   4.672
    1   AR   Ar   76   2.229   0.836   3.267
    1   AR   Ar   77   2.092   0.335   5.581
    1   AR   Ar   78   1.071   0.525   6.654
    1   AR   Ar   79   2.918   6.561   6.912
    1   AR   Ar   80   2.905   6.927   5.341
    1   AR   Ar   81   1.918   1.547   0.520
    1   AR   Ar   82   1.777   3.239   0.207
    1   AR   Ar   83   2.682   1.824   1.756
    1   AR   Ar   84   2.057   2.956  -0.735
    1   AR   Ar   85   1.571   1.968   1.501
    1   AR   Ar   86   2.166   2.522   2.374
    1   AR   Ar   87   1.885   1.338   2.322
    1   AR   Ar   88   3.244   3.626   1.632
    1   AR   Ar   89   0.840   1.549   2.111
    1   AR   Ar   90   3.157   2.353   5.104
    1   AR   Ar   91   2.540   2.105   4.237
    1   AR   Ar   92   1.701   1.806   3.325
    1   AR   Ar   93   1.308   1.913   6.373
    1   AR   Ar   94   2.554   1.772   7.775
    1   AR   Ar   95   2.339   0.776   7.193
    1   AR   Ar   96   2.350   2.063   6.386
    1   AR   Ar   97   2.336   3.773  -1.398
    1   AR   Ar   98   2.975   4.679   1.726
    1   AR   Ar   99   3.230   2.888  -1.274
    1   AR   Ar  100   2.145   5.139  -0.019
    1   AR   Ar  101   1.462   2.938   1.759
    1   AR   Ar  102   1.850   3.992   3.494
    1   AR   Ar  103   2.236   3.821   2.113
    1   AR   Ar  104   3.176   3.744   0.383
    1   AR   Ar  105   1.801   2.971   3.823
    1   AR   Ar  106   2.511   3.134   4.723
    1   AR   Ar  107   2.816   4.074   5.507
    1   AR   Ar  108   3.174   3.497   3.898
    1   AR   Ar  109   0.833   4.169   4.737
    1   AR   Ar  110   1.650   4.330   5.493
    1   AR   Ar  111   3.894   5.530   7.244
    1   AR   Ar  112   2.470   3.198   6.155
    1   AR   Ar  113   2.391   4.596   0.944
    1   AR   Ar  114   1.817   5.653   0.855
    1   AR   Ar  115   3.272   5.116   0.459
    1   AR   Ar  116   3.488   0.135   0.396
    1   AR   Ar  117   1.654   4.994   2.675
    1   AR   Ar  118   1.315   6.238   2.550
    1   AR   Ar  119   2.646   4.454   2.993
    1   AR   Ar  120   2.155   5.300   1.736
    1   AR   Ar  121   0.912   4.627   3.766
    1   AR   Ar  122   2.674   6.293   4.288
    1   AR   Ar  123   2.202   5.207   4.554
    1   AR   Ar  124   2.436   6.056   2.803
    1   AR   Ar  125   1.094   5.263   4.696
    1   AR   Ar  126   1.157   6.678   6.106
    1   AR   Ar  127   2.523   5.559   7.764
    1   AR   Ar  128   2.295   6.194   5.976
    1   AR   Ar  129   2.919   6.269   0.893
    1   AR   Ar  130   3.390   7.020  -0.916
    1   AR   Ar  131   4.926   6.624   0.567
    1   AR   Ar  132   5.565   2.041  -0.662
    1   AR   Ar  133   3.665   6.986   2.765
    1   AR   Ar  134   3.276   0.946   2.694
    1   AR   Ar  135   4.810   0.266   2.895
    1   AR   Ar  136   4.159   0.440   2.035
    1   AR   Ar  137   2.963   0.104   3.638
    1   AR   Ar  138   4.638   1.037   4.926
    1   AR   Ar  139   4.512   0.297   3.968
    1   AR   Ar  140   4.370   1.133   3.321
    1   AR   Ar  141   3.666   7.114   4.513
    1   AR   Ar  142   4.137   6.874   5.565
    1   AR   Ar  143   5.272   0.085   6.410
    1   AR   Ar  144   5.094   1.202   7.105
    1   AR   Ar  145   2.606   2.326   0.234
    1   AR   Ar  146   4.287   2.641   0.948
    1   AR   Ar  147   4.823   1.508   0.890
    1   AR   Ar  148   6.045   3.205  -0.509
    1   AR   Ar  149   3.775   1.681   1.206
    1   AR   Ar  150   2.767   1.816   2.961
    1   AR   Ar  151   3.564   2.147   3.532
    1   AR   Ar  152   3.538   2.618   1.639
    1   AR   Ar  153   3.316   1.079   3.942
    1   AR   Ar  154   4.090   1.938   4.328
    1   AR   Ar  155   5.190   1.524   5.843
    1   AR   Ar  156   4.756   3.747   4.323
    1   AR   Ar  157   3.851   1.998   5.648
    1   AR   Ar  158   3.471   2.392   6.849
    1   AR   Ar  159   4.281   1.130   6.213
    1   AR   Ar  160   4.556   2.983   5.170
    1   AR   Ar  161   4.614   2.282  -0.213
    1   AR   Ar  162   4.750   5.210   0.815
    1   AR   Ar  163   5.628   3.194   0.348
    1   AR   Ar  164   5.676   4.709   0.847
    1   AR   Ar  165   3.401   3.644   2.758
    1   AR   Ar  166   3.367   4.563   3.647
    1   AR   Ar  167   4.238   2.928   3.461
    1   AR   Ar  168   4.365   3.645   1.088
    1   AR   Ar  169   2.780   2.795   3.272
    1   AR   Ar  170   2.814   4.336   4.479
    1   AR   Ar  171   3.830   3.627   4.647
    1   AR   Ar  172   4.331   4.692   4.132
    1   AR   Ar  173   3.387   3.089   5.737
    1   AR   Ar  174   4.259   5.369   6.238
    1   AR   Ar  175   3.597   4.250   6.105
    1   AR   Ar  176   3.680   4.645   5.157
    1   AR   Ar  177   5.536   5.781   0.460
    1   AR   Ar  178   3.967   6.845   1.294
    1   AR   Ar  179   3.825   5.153   1.498
    1   AR   Ar  180   4.428   5.892   0.012
    1   AR   Ar  181   3.087   5.753   1.878
    1   AR   Ar  182   2.029   6.298   1.915
    1   AR   Ar  183   3.708   4.593   2.485
    1   AR   Ar  184   4.131   5.994   2.439
    1   AR   Ar  185   1.711   5.785   3.510
    1   AR   Ar  186   3.635   5.573   4.192
    1   AR   Ar  187   4.539   5.283   3.195
    1   AR   Ar  188   3.313   6.092   3.266
    1   AR   Ar  189   2.772   5.401   5.591
    1   AR   Ar  190   4.228   6.403   6.584
    1   AR   Ar  191   4.452   5.589   4.980
    1   AR   Ar  192   3.405   5.979   5.197
    1   AR   Ar  193   5.570   0.157  -0.008
    1   AR   Ar  194   4.416   7.119  -0.164
    1   AR   Ar  195   6.069   1.110   0.885
    1   AR   Ar  196   6.109   1.084  -0.652
    1   AR   Ar  197   5.141   0.510   1.094
    1   AR   Ar  198   5.141   1.594   1.802
    1   AR   Ar  199   5.748   0.702   2.050
    1   AR   Ar  200   6.925   1.542   1.551
    1   AR   Ar  201   4.871   6.419   2.997
    1   AR   Ar  202   5.327   1.051   4.068
    1   AR   Ar  203   6.826   6.948   4.573
    1   AR   Ar  204   5.993   0.443   3.094
    1   AR   Ar  205   5.606   6.913   3.821
    1   AR   Ar  206   4.860   6.604   4.870
    1   AR   Ar  207   0.068   6.908   5.769
    1   AR   Ar  208   6.333   0.740   4.286
    1   AR   Ar  209   6.603   1.780  -1.326
    1   AR   Ar  210   5.230   2.548   1.480
    1   AR   Ar  211   5.877   2.337   0.781
    1   AR   Ar  212   6.974   3.853  -0.516
    1   AR   Ar  213   4.731   2.316   2.449
    1   AR   Ar  214   4.244   3.554   2.189
    1   AR   Ar  215   5.866   2.195   2.613
    1   AR   Ar  216   6.416   2.748   1.714
    1   AR   Ar  217   5.137   2.427   3.907
    1   AR   Ar  218   5.599   1.925   4.788
    1   AR   Ar  219   5.349   1.421   3.098
    1   AR   Ar  220   6.391   3.209   3.203
    1   AR   Ar  221   5.740   0.936   5.171
    1   AR   Ar  222   4.647   2.277   6.404
    1   AR   Ar  223   6.874   1.841   7.334
    1   AR   Ar  224   5.920   2.617   5.610
    1   AR   Ar  225   5.019   4.282   0.151
    1   AR   Ar  226   4.869   4.601   1.767
    1   AR   Ar  227   0.118   3.824   1.727
    1   AR   Ar  228   6.856   4.934   0.527
    1   AR   Ar  229   6.333   3.758   1.077
    1   AR   Ar  230   4.149   3.951   3.357
    1   AR   Ar  231   0.173   2.771   3.529
    1   AR   Ar  232   5.336   3.750   1.565
    1   AR   Ar  233   6.402   2.586   4.100
    1   AR   Ar  234   5.741   4.333   4.896
    1   AR   Ar  235   6.617   3.752   4.367
    1   AR   Ar  236   5.749   3.774   3.842
    1   AR   Ar  237   5.503   2.946   4.734
    1   AR   Ar  238   4.850   4.498   5.969
    1   AR   Ar  239   5.969   4.003   7.631
    1   AR   Ar  240   6.574   3.530   5.641
    1   AR   Ar  241   6.929   0.425   0.052
    1   AR   Ar  242   5.127   6.110   1.521
    1   AR   Ar  243   6.099   4.668   1.940
    1   AR   Ar  244   6.508   6.099   0.139
    1   AR   Ar  245   5.250   5.519   2.330
    1   AR   Ar  246   5.778   6.489   2.669
    1   AR   Ar  247   5.477   3.665   2.785
    1   AR   Ar  248   5.966   6.970   1.198
    1   AR   Ar  249   5.767   4.706   3.201
    1   AR   Ar  250   4.664   6.242   3.899
    1   AR   Ar  251   5.545   5.283   4.234
    1   AR   Ar  252   6.217   5.737   3.664
    1   AR   Ar  253   5.490   5.306   5.327
    1   AR   Ar  254   5.538   5.859   6.557
    1   AR   Ar  255   5.930   4.474   6.006
    1   AR   Ar  256   5.834   6.248   4.870
    7.12000  7.12000 12.00000
Argon-slab step 835
  256
    1   AR   Ar    1   0.793   0.671  -0.540
    1   AR   Ar    2   7.003   0.574   1.042
    1   AR   Ar    3   0.761   6.623   0.418
    1   AR   Ar    4   1.269   0.591   0.486
    1   AR   Ar    5   0.007   6.524   1.278
    1   AR   Ar    6   0.452   0.221   2.694
    1   AR   Ar    7   0.129   6.385   2.265
    1   AR   Ar    8   0.880   0.005   1.618
    1   AR   Ar    9   0.449   0.664   4.360
    1   AR   Ar   10   7.017   1.599   4.468
    1   AR   Ar   11   1.982   7.116   4.538
    1   AR   Ar   12   1.061   0.703   3.542
    1   AR   Ar   13   6.871   0.668   5.198
    1   AR   Ar   14   0.434   1.269   5.969
    1   AR   Ar   15   1.130   6.319   7.081
    1   AR   Ar   16   1.368   1.079   5.289
    1   AR   Ar   17   6.841   1.449   0.187
    1   AR   Ar   18   6.679   3.022   0.355
    1   AR   Ar   19   0.690   1.392   0.736
    1   AR   Ar   20   0.238   2.955  -1.096
    1   AR   Ar   21   6.680   0.180   2.109
    1   AR   Ar   22   7.022   2.212   2.632
    1   AR   Ar   23   6.976   1.174   2.475
    1   AR   Ar   24   0.372   2.585   1.471
    1   AR   Ar   25   0.566   1.594   3.439
    1   AR   Ar   26   6.314   1.699   3.401
    1   AR   Ar   27   1.089   2.061   5.259
    1   AR   Ar   28   0.744   2.875   4.475
    1   AR   Ar   29   6.494   1.563   5.552
    1   AR   Ar   30   6.744   2.452   6.328
    1   AR   Ar   31   0.934   1.463   7.352
    1   AR   Ar   32   1.685   2.989   5.512
    1   AR   Ar   33   1.056   3.610  -0.393
    1   AR   Ar   34   0.484   4.744   1.304
    1   AR   Ar   35   0.491   3.670   0.811
    1   AR   Ar   36   1.663   6.463  -0.950
    1   AR   Ar   37   0.323   3.380   2.719
    1   AR   Ar   38   0.284   4.853   2.406
    1   AR   Ar   39   1.353   3.941   2.562
    1   AR   Ar   40   1.521   4.424   1.641
    1   AR   Ar   41   1.012   2.470   3.017
    1   AR   Ar   42   6.738   5.276   5.013
    1   AR   Ar   43   6.823   2.508   5.100
    1   AR   Ar   44   0.821   3.630   3.678
    1   AR   Ar   45   0.723   3.798   5.772
    1   AR   Ar   46   6.871   4.441   6.514
    1   AR   Ar   47   0.450   3.440   6.755
    1   AR   Ar   48   0.657   4.985   6.204
    1   AR   Ar   49   0.503   4.725  -0.643
    1   AR   Ar   50   6.133   5.690   1.281
    1   AR   Ar   51   1.194   4.381   0.620
    1   AR   Ar   52   0.896   5.415   0.346
    1   AR   Ar   53   6.530   5.524   2.468
    1   AR   Ar   54   6.708   6.599   3.298
    1   AR   Ar   55   0.519   5.492   3.262
    1   AR   Ar   56   0.926   5.869   1.477
    1   AR   Ar   57   6.691   4.227   2.936
    1   AR   Ar   58   0.235   5.755   4.203
    1   AR   Ar   59   1.609   6.231   4.991
    1   AR   Ar   60   0.950   6.695   4.040
    1   AR   Ar   61   6.714   5.773   5.918
    1   AR   Ar   62   0.564   6.042   5.362
    1   AR   Ar   63   1.434   5.669   5.804
    1   AR   Ar   64   0.936   0.042   5.059
    1   AR   Ar   65   2.144   6.470  -0.022
    1   AR   Ar   66   1.822   0.927   1.431
    1   AR   Ar   67   3.474   6.205  -0.206
    1   AR   Ar   68   4.298   0.842   0.412
    1   AR   Ar   69   2.020   7.041   0.991
    1   AR   Ar   70   1.595   0.137   2.527
    1   AR   Ar   71   2.776   0.005   2.250
    1   AR   Ar   72   2.960   0.853   1.073
    1   AR   Ar   73   1.968   6.826   3.560
    1   AR   Ar   74   1.768   1.303   4.208
    1   AR   Ar   75   2.820   0.664   4.693
    1   AR   Ar   76   2.223   0.835   3.248
    1   AR   Ar   77   2.105   0.343   5.598
    1   AR   Ar   78   1.067   0.518   6.651
    1   AR   Ar   79   2.954   6.530   6.914
    1   AR   Ar   80   2.907   6.925   5.316
    1   AR   Ar   81   1.882   1.560   0.509
    1   AR   Ar   82   1.773   3.223   0.206
    1   AR   Ar   83   2.686   1.819   1.751
    1   AR   Ar   84   2.068   2.948  -0.766
    1   AR   Ar   85   1.584   1.976   1.500
    1   AR   Ar   86   2.159   2.517   2.337
    1   AR   Ar   87   1.889   1.336   2.300
    1   AR   Ar   88   3.264   3.619   1.611
    1   AR   Ar   89   0.867   1.560   2.114
    1   AR   Ar   90   3.149   2.363   5.085
    1   AR   Ar   91   2.555   2.097   4.233
    1   AR   Ar   92   1.737   1.805   3.331
    1   AR   Ar   93   1.283   1.914   6.363
    1   AR   Ar   94   2.593   1.744   7.803
    1   AR   Ar   95   2.363   0.752   7.177
    1   AR   Ar   96   2.362   2.064   6.385
    1   AR   Ar   97   2.387   3.786  -1.434
    1   AR   Ar   98   2.957   4.640   1.738
    1   AR   Ar   99   3.244   2.894  -1.289
    1   AR   Ar  100   2.156   5.144  -0.019
    1   AR   Ar  101   1.417   2.949   1.809
    1   AR   Ar  102   1.821   3.965   3.516
    1   AR   Ar  103   2.225   3.817   2.126
    1   AR   Ar  104   3.196   3.729   0.353
    1   AR   Ar  105   1.817   3.005   3.804
    1   AR   Ar  106   2.535   3.128   4.762
    1   AR   Ar  107   2.813   4.096   5.488
    1   AR   Ar  108   3.183   3.490   3.872
    1   AR   Ar  109   0.838   4.133   4.769
    1   AR   Ar  110   1.659   4.360   5.469
    1   AR   Ar  111   3.906   5.520   7.226
    1   AR   Ar  112   2.470   3.182   6.168
    1   AR   Ar  113   2.382   4.574   0.923
    1   AR   Ar  114   1.817   5.627   0.854
    1   AR   Ar  115   3.256   5.134   0.452
    1   AR   Ar  116   3.511   0.116   0.406
    1   AR   Ar  117   1.659   5.011   2.684
    1   AR   Ar  118   1.332   6.240   2.577
    1   AR   Ar  119   2.654   4.445   2.994
    1   AR   Ar  120   2.131   5.284   1.752
    1   AR   Ar  121   0.876   4.635   3.782
    1   AR   Ar  122   2.691   6.297   4.265
    1   AR   Ar  123   2.179   5.216   4.534
    1   AR   Ar  124   2.450   6.052   2.822
    1   AR   Ar  125   1.095   5.263   4.679
    1   AR   Ar  126   1.138   6.680   6.168
    1   AR   Ar  127   2.525   5.562   7.779
    1   AR   Ar  128   2.290   6.165   5.988
    1   AR   Ar  129   2.929   6.305   0.934
    1   AR   Ar  130   3.390   6.996  -0.913
    1   AR   Ar  131   4.962   6.612   0.616
    1   AR   Ar  132   5.581   2.042  -0.661
    1   AR   Ar  133   3.695   6.999   2.782
    1   AR   Ar  134   3.285   0.958   2.712
    1   AR   Ar  135   4.780   0.281   2.877
    1   AR   Ar  136   4.176   0.446   2.031
    1   AR   Ar  137   3.022   0.093   3.647
    1   AR   Ar  138   4.666   1.028   4.891
    1   AR   Ar  139   4.553   0.271   3.976
    1   AR   Ar  140   4.349   1.167   3.336
    1   AR   Ar  141   3.669   7.110   4.490
    1   AR   Ar  142   4.110   6.869   5.582
    1   AR   Ar  143   5.297   0.099   6.438
    1   AR   Ar  144   5.152   1.223   7.118
    1   AR   Ar  145   2.627   2.345   0.251
    1   AR   Ar  146   4.308   2.637   0.941
    1   AR   Ar  147   4.823   1.552   0.895
    1   AR   Ar  148   6.044   3.214  -0.523
    1   AR   Ar  149   3.793   1.677   1.205
    1   AR   Ar  150   2.738   1.809   2.942
    1   AR   Ar  151   3.550   2.149   3.562
    1   AR   Ar  152   3.513   2.634   1.632
    1   AR   Ar  153   3.287   1.090   3.937
    1   AR   Ar  154   4.104   1.910   4.382
    1   AR   Ar  155   5.223   1.495   5.836
    1   AR   Ar  156   4.761   3.754   4.282
    1   AR   Ar  157   3.864   2.002   5.634
    1   AR   Ar  158   3.462   2.393   6.839
    1   AR   Ar  159   4.285   1.085   6.226
    1   AR   Ar  160   4.559   2.980   5.194
    1   AR   Ar  161   4.626   2.285  -0.219
    1   AR   Ar  162   4.754   5.208   0.824
    1   AR   Ar  163   5.626   3.195   0.346
    1   AR   Ar  164   5.665   4.755   0.847
    1   AR   Ar  165   3.370   3.620   2.739
    1   AR   Ar  166   3.371   4.568   3.647
    1   AR   Ar  167   4.233   2.945   3.454
    1   AR   Ar  168   4.371   3.672   1.081
    1   AR   Ar  169   2.782   2.808   3.253
    1   AR   Ar  170   2.865   4.310   4.442
    1   AR   Ar  171   3.839   3.614   4.637
    1   AR   Ar  172   4.359   4.710   4.130
    1   AR   Ar  173   3.383   3.065   5.733
    1   AR   Ar  174   4.264   5.362   6.254
    1   AR   Ar  175   3.632   4.235   6.077
    1   AR   Ar  176   3.667   4.668   5.146
    1   AR   Ar  177   5.553   5.801   0.466
    1   AR   Ar  178   3.977   6.814   1.279
    1   AR   Ar  179   3.849   5.193   1.509
    1   AR   Ar  180   4.443   5.875   0.003
    1   AR   Ar  181   3.072   5.763   1.865
    1   AR   Ar  182   2.043   6.311   1.957
    1   AR   Ar  183   3.713   4.609   2.511
    1   AR   Ar  184   4.126   5.999   2.438
    1   AR   Ar  185   1.705   5.799   3.502
    1   AR   Ar  186   3.671   5.582   4.163
    1   AR   Ar  187   4.526   5.293   3.227
    1   AR   Ar  188   3.327   6.086   3.269
    1   AR   Ar  189   2.751   5.371   5.635
    1   AR   Ar  190   4.267   6.404   6.588
    1   AR   Ar  191   4.450   5.548   4.969
    1   AR   Ar  192   3.398   6.015   5.187
    1   AR   Ar  193   5.594   0.116   0.016
    1   AR   Ar  194   4.402   7.088  -0.156
    1   AR   Ar  195   6.048   1.090   0.879
    1   AR   Ar  196   6.094   1.092  -0.626
    1   AR   Ar  197   5.166   0.496   1.100
    1   AR   Ar  198   5.181   1.574   1.826
    1   AR   Ar  199   5.722   0.721   2.029
    1   AR   Ar  200   6.921   1.575   1.549
    1   AR   Ar  201   4.851   6.391   3.007
    1   AR   Ar  202   5.400   1.056   4.034
    1   AR   Ar  203   6.838   6.938   4.587
    1   AR   Ar  204   6.003   0.448   3.112
    1   AR   Ar  205   5.606   6.916   3.785
    1   AR   Ar  206   4.837   6.596   4.861
    1   AR   Ar  207   0.083   6.880   5.769
    1   AR   Ar  208   6.344   0.719   4.292
    1   AR   Ar  209   6.590   1.769  -1.341
    1   AR   Ar  210   5.226   2.562   1.453
    1   AR   Ar  211   5.890   2.310   0.756
    1   AR   Ar  212   6.955   3.868  -0.520
    1   AR   Ar  213   4.683   2.322   2.427
    1   AR   Ar  214   4.275   3.525   2.174
    1   AR   Ar  215   5.865   2.207   2.617
    1   AR   Ar  216   6.435   2.709   1.707
    1   AR   Ar  217   5.102   2.461   3.908
    1   AR   Ar  218   5.629   1.895   4.818
    1   AR   Ar  219   5.343   1.409   3.058
    1   AR   Ar  220   6.407   3.204   3.199
    1   AR   Ar  221   5.767   0.897   5.173
    1   AR   Ar  222   4.663   2.271   6.408
    1   AR   Ar  223   6.876   1.837   7.333
    1   AR   Ar  224   5.893   2.610   5.630
    1   AR   Ar  225   5.007   4.265   0.153
    1   AR   Ar  226   4.849   4.580   1.758
    1   AR   Ar  227   0.094   3.831   1.727
    1   AR   Ar  228   6.833   4.939   0.524
    1   AR   Ar  229   6.334   3.741   1.083
    1   AR   Ar  230   4.162   3.928   3.383
    1   AR   Ar  231   0.171   2.756   3.518
    1   AR   Ar  232   5.336   3.729   1.560
    1   AR   Ar  233   6.389   2.564   4.085
    1   AR   Ar  234   5.758   4.318   4.912
    1   AR   Ar  235   6.624   3.729   4.364
    1   AR   Ar  236   5.733   3.774   3.851
    1   AR   Ar  237   5.489   2.977   4.708
    1   AR   Ar  238   4.844   4.528   5.928
    1   AR   Ar  239   5.982   4.014   7.606
    1   AR   Ar  240   6.562   3.574   5.672
    1   AR   Ar  241   6.936   0.454   0.042
    1   AR   Ar  242   5.146   6.119   1.513
    1   AR   Ar  243   6.079   4.679   1.958
    1   AR   Ar  244   6.520   6.049   0.113
    1   AR   Ar  245   5.248   5.519   2.294
    1   AR   Ar  246   5.778   6.490   2.697
    1   AR   Ar  247   5.491   3.636   2.800
    1   AR   Ar  248   5.956   6.952   1.166
    1   AR   Ar  249   5.739   4.677   3.232
    1   AR   Ar  250   4.660   6.275   3.925
    1   AR   Ar  251   5.519   5.333   4.219
    1   AR   Ar  252   6.195   5.715   3.634
    1   AR   Ar  253   5.525   5.259   5.341
    1   AR   Ar  254   5.529   5.857   6.542
    1   AR   Ar  255   5.921   4.457   6.021
    1   AR   Ar  256   5.851   6.237   4.872
    7.12000  7.12000 12.00000
Argon-slab step 840
  256
    1   AR   Ar    1   0.782   0.662  -0.536
    1   AR   Ar    2   6.997   0.552   1.067
    1   AR   Ar    3   0.746   6.637   0.394
    1   AR   Ar    4   1.282   0.590   0.484
    1   AR   Ar    5   0.007   6.531   1.271
    1   AR   Ar    6   0.440   0.207   2.676
    1   AR   Ar    7   0.116   6.362   2.292
    1   AR   Ar    8   0.847   7.103   1.651
    1   AR   Ar    9   0.463   0.683   4.344
    1   AR   Ar   10   7.014   1.605   4.443
    1   AR   Ar   11   1.988   7.094   4.553
    1   AR   Ar   12   1.077   0.710   3.537
    1   AR   Ar   13   6.860   0.688   5.172
    1   AR   Ar   14   0.406   1.247   5.986
    1   AR   Ar   15   1.101   6.315   7.124
    1   AR   Ar   16   1.362   1.091   5.301
    1   AR   Ar   17   6.842   1.455   0.178
    1   AR   Ar   18   6.672   3.043   0.368
    1   AR   Ar   19   0.714   1.361   0.753
    1   AR   Ar   20   0.242   2.984  -1.127
    1   AR   Ar   21   6.681   0.166   2.110
    1   AR   Ar   22   7.006   2.221   2.639
    1   AR   Ar   23   6.987   1.169   2.462
    1   AR   Ar   24   0.379   2.602   1.480
    1   AR   Ar   25   0.554   1.561   3.435
    1   AR   Ar   26   6.303   1.735   3.383
    1   AR   Ar   27   1.097   2.033   5.239
    1   AR   Ar   28   0.704   2.892   4.478
    1   AR   Ar   29   6.470   1.551   5.541
    1   AR   Ar   30   6.739   2.464   6.320
    1   AR   Ar   31   0.909   1.446   7.348
    1   AR   Ar   32   1.720   2.976   5.482
    1   AR   Ar   33   1.091   3.606  -0.410
    1   AR   Ar   34   0.493   4.707   1.291
    1   AR   Ar   35   0.491   3.689   0.800
    1   AR   Ar   36   1.681   6.480  -0.944
    1   AR   Ar   37   0.368   3.359   2.696
    1   AR   Ar   38   0.323   4.838   2.397
    1   AR   Ar   39   1.363   3.941   2.579
    1   AR   Ar   40   1.532   4.417   1.687
    1   AR   Ar   41   1.008   2.478   3.035
    1   AR   Ar   42   6.749   5.286   4.977
    1   AR   Ar   43   6.800   2.494   5.117
    1   AR   Ar   44   0.826   3.639   3.685
    1   AR   Ar   45   0.737   3.809   5.767
    1   AR   Ar   46   6.859   4.427   6.491
    1   AR   Ar   47   0.436   3.456   6.740
    1   AR   Ar   48   0.619   5.011   6.206
    1   AR   Ar   49   0.522   4.741  -0.672
    1   AR   Ar   50   6.139   5.666   1.309
    1   AR   Ar   51   1.200   4.398   0.616
    1   AR   Ar   52   0.852   5.398   0.347
    1   AR   Ar   53   6.514   5.522   2.513
    1   AR   Ar   54   6.679   6.585   3.279
    1   AR   Ar   55   0.553   5.489   3.286
    1   AR   Ar   56   0.963   5.856   1.474
    1   AR   Ar   57   6.666   4.217   2.923
    1   AR   Ar   58   0.220   5.763   4.215
    1   AR   Ar   59   1.626   6.200   4.985
    1   AR   Ar   60   0.928   6.722   4.056
    1   AR   Ar   61   6.699   5.777   5.924
    1   AR   Ar   62   0.554   6.046   5.383
    1   AR   Ar   63   1.431   5.623   5.777
    1   AR   Ar   64   0.948   0.060   5.058
    1   AR   Ar   65   2.168   6.493   0.020
    1   AR   Ar   66   1.812   0.913   1.421
    1   AR   Ar   67   3.482   6.227  -0.199
    1   AR   Ar   68   4.282   0.859   0.376
    1   AR   Ar   69   1.993   7.050   1.037
    1   AR   Ar   70   1.611   0.135   2.526
    1   AR   Ar   71   2.763   0.010   2.251
    1   AR   Ar   72   2.969   0.855   1.058
    1   AR   Ar   73   1.953   6.817   3.562
    1   AR   Ar   74   1.761   1.297   4.181
    1   AR   Ar   75   2.837   0.671   4.720
    1   AR   Ar   76   2.217   0.832   3.229
    1   AR   Ar   77   2.110   0.354   5.617
    1   AR   Ar   78   1.078   0.504   6.625
    1   AR   Ar   79   2.990   6.497   6.915
    1   AR   Ar   80   2.909   6.910   5.340
    1   AR   Ar   81   1.844   1.572   0.499
    1   AR   Ar   82   1.774   3.205   0.214
    1   AR   Ar   83   2.685   1.821   1.764
    1   AR   Ar   84   2.080   2.938  -0.799
    1   AR   Ar   85   1.564   1.989   1.500
    1   AR   Ar   86   2.154   2.512   2.307
    1   AR   Ar   87   1.896   1.340   2.298
    1   AR   Ar   88   3.283   3.619   1.590
    1   AR   Ar   89   0.886   1.570   2.121
    1   AR   Ar   90   3.132   2.367   5.051
    1   AR   Ar   91   2.569   2.088   4.224
    1   AR   Ar   92   1.773   1.807   3.333
    1   AR   Ar   93   1.298   1.892   6.350
    1   AR   Ar   94   2.632   1.715   7.828
    1   AR   Ar   95   2.387   0.728   7.161
    1   AR   Ar   96   2.377   2.066   6.384
    1   AR   Ar   97   2.439   3.798  -1.469
    1   AR   Ar   98   2.943   4.600   1.758
    1   AR   Ar   99   3.258   2.905  -1.314
    1   AR   Ar  100   2.168   5.150  -0.021
    1   AR   Ar  101   1.364   2.968   1.858
    1   AR   Ar  102   1.795   3.949   3.538
    1   AR   Ar  103   2.229   3.810   2.136
    1   AR   Ar  104   3.216   3.714   0.324
    1   AR   Ar  105   1.832   3.027   3.788
    1   AR   Ar  106   2.556   3.127   4.799
    1   AR   Ar  107   2.803   4.115   5.467
    1   AR   Ar  108   3.193   3.486   3.842
    1   AR   Ar  109   0.843   4.098   4.798
    1   AR   Ar  110   1.669   4.391   5.444
    1   AR   Ar  111   3.932   5.494   7.216
    1   AR   Ar  112   2.467   3.167   6.184
    1   AR   Ar  113   2.366   4.552   0.894
    1   AR   Ar  114   1.817   5.605   0.851
    1   AR   Ar  115   3.239   5.153   0.446
    1   AR   Ar  116   3.529   0.096   0.416
    1   AR   Ar  117   1.657   5.007   2.691
    1   AR   Ar  118   1.329   6.236   2.618
    1   AR   Ar  119   2.653   4.435   2.984
    1   AR   Ar  120   2.106   5.266   1.774
    1   AR   Ar  121   0.843   4.649   3.799
    1   AR   Ar  122   2.708   6.301   4.244
    1   AR   Ar  123   2.158   5.227   4.514
    1   AR   Ar  124   2.448   6.031   2.826
    1   AR   Ar  125   1.090   5.266   4.678
    1   AR   Ar  126   1.121   6.684   6.214
    1   AR   Ar  127   2.528   5.565   7.794
    1   AR   Ar  128   2.286   6.152   6.005
    1   AR   Ar  129   2.938   6.341   0.973
    1   AR   Ar  130   3.389   6.975  -0.910
    1   AR   Ar  131   5.000   6.611   0.598
    1   AR   Ar  132   5.599   2.044  -0.661
    1   AR   Ar  133   3.727   7.010   2.801
    1   AR   Ar  134   3.295   0.965   2.730
    1   AR   Ar  135   4.753   0.301   2.860
    1   AR   Ar  136   4.193   0.456   2.023
    1   AR   Ar  137   3.079   0.081   3.652
    1   AR   Ar  138   4.695   1.020   4.856
    1   AR   Ar  139   4.597   0.245   3.983
    1   AR   Ar  140   4.324   1.202   3.352
    1   AR   Ar  141   3.672   7.102   4.471
    1   AR   Ar  142   4.080   6.865   5.599
    1   AR   Ar  143   5.320   0.114   6.465
    1   AR   Ar  144   5.210   1.244   7.130
    1   AR   Ar  145   2.648   2.367   0.268
    1   AR   Ar  146   4.331   2.629   0.929
    1   AR   Ar  147   4.827   1.603   0.894
    1   AR   Ar  148   6.052   3.223  -0.554
    1   AR   Ar  149   3.810   1.671   1.204
    1   AR   Ar  150   2.724   1.803   2.937
    1   AR   Ar  151   3.532   2.148   3.590
    1   AR   Ar  152   3.487   2.645   1.629
    1   AR   Ar  153   3.264   1.108   3.920
    1   AR   Ar  154   4.122   1.881   4.441
    1   AR   Ar  155   5.255   1.469   5.830
    1   AR   Ar  156   4.775   3.757   4.242
    1   AR   Ar  157   3.891   2.001   5.629
    1   AR   Ar  158   3.453   2.394   6.827
    1   AR   Ar  159   4.289   1.040   6.239
    1   AR   Ar  160   4.558   2.975   5.219
    1   AR   Ar  161   4.634   2.285  -0.216
    1   AR   Ar  162   4.750   5.206   0.836
    1   AR   Ar  163   5.629   3.197   0.342
    1   AR   Ar  164   5.663   4.797   0.851
    1   AR   Ar  165   3.334   3.593   2.721
    1   AR   Ar  166   3.392   4.583   3.645
    1   AR   Ar  167   4.229   2.954   3.448
    1   AR   Ar  168   4.376   3.703   1.073
    1   AR   Ar  169   2.778   2.819   3.229
    1   AR   Ar  170   2.908   4.283   4.416
    1   AR   Ar  171   3.842   3.602   4.634
    1   AR   Ar  172   4.387   4.731   4.132
    1   AR   Ar  173   3.397   3.062   5.734
    1   AR   Ar  174   4.269   5.356   6.266
    1   AR   Ar  175   3.673   4.218   6.056
    1   AR   Ar  176   3.656   4.696   5.128
    1   AR   Ar  177   5.568   5.818   0.466
    1   AR   Ar  178   3.988   6.781   1.263
    1   AR   Ar  179   3.880   5.230   1.518
    1   AR   Ar  180   4.462   5.858  -0.005
    1   AR   Ar  181   3.056   5.776   1.855
    1   AR   Ar  182   2.069   6.332   1.973
    1   AR   Ar  183   3.719   4.627   2.538
    1   AR   Ar  184   4.115   6.000   2.430
    1   AR   Ar  185   1.695   5.808   3.500
    1   AR   Ar  186   3.707   5.590   4.135
    1   AR   Ar  187   4.514   5.304   3.259
    1   AR   Ar  188   3.350   6.081   3.278
    1   AR   Ar  189   2.731   5.324   5.677
    1   AR   Ar  190   4.307   6.407   6.591
    1   AR   Ar  191   4.448   5.506   4.958
    1   AR   Ar  192   3.399   6.052   5.172
    1   AR   Ar  193   5.619   0.078   0.042
    1   AR   Ar  194   4.388   7.052  -0.151
    1   AR   Ar  195   6.027   1.071   0.875
    1   AR   Ar  196   6.087   1.106  -0.614
    1   AR   Ar  197   5.186   0.484   1.106
    1   AR   Ar  198   5.223   1.555   1.858
    1   AR   Ar  199   5.699   0.736   2.010
    1   AR   Ar  200   6.917   1.612   1.539
    1   AR   Ar  201   4.853   6.388   3.005
    1   AR   Ar  202   5.468   1.061   4.002
    1   AR   Ar  203   6.851   6.921   4.601
    1   AR   Ar  204   6.016   0.459   3.124
    1   AR   Ar  205   5.603   6.915   3.754
    1   AR   Ar  206   4.816   6.592   4.858
    1   AR   Ar  207   0.097   6.854   5.769
    1   AR   Ar  208   6.357   0.699   4.292
    1   AR   Ar  209   6.577   1.760  -1.356
    1   AR   Ar  210   5.218   2.581   1.433
    1   AR   Ar  211   5.913   2.272   0.728
    1   AR   Ar  212   6.936   3.882  -0.522
    1   AR   Ar  213   4.636   2.330   2.408
    1   AR   Ar  214   4.308   3.496   2.158
    1   AR   Ar  215   5.864   2.224   2.616
    1   AR   Ar  216   6.453   2.670   1.700
    1   AR   Ar  217   5.071   2.487   3.904
    1   AR   Ar  218   5.659   1.865   4.846
    1   AR   Ar  219   5.336   1.396   3.013
    1   AR   Ar  220   6.421   3.198   3.193
    1   AR   Ar  221   5.792   0.852   5.172
    1   AR   Ar  222   4.677   2.264   6.412
    1   AR   Ar  223   6.865   1.845   7.328
    1   AR   Ar  224   5.865   2.601   5.652
    1   AR   Ar  225   4.994   4.246   0.157
    1   AR   Ar  226   4.862   4.590   1.746
    1   AR   Ar  227   0.066   3.837   1.736
    1   AR   Ar  228   6.809   4.946   0.522
    1   AR   Ar  229   6.334   3.726   1.089
    1   AR   Ar  230   4.178   3.916   3.407
    1   AR   Ar  231   0.168   2.736   3.518
    1   AR   Ar  232   5.341   3.700   1.554
    1   AR   Ar  233   6.374   2.542   4.071
    1   AR   Ar  234   5.776   4.300   4.925
    1   AR   Ar  235   6.635   3.705   4.363
    1   AR   Ar  236   5.714   3.774   3.859
    1   AR   Ar  237   5.480   3.013   4.682
    1   AR   Ar  238   4.837   4.557   5.885
    1   AR   Ar  239   5.996   4.025   7.580
    1   AR   Ar  240   6.551   3.616   5.702
    1   AR   Ar  241   6.935   0.456   0.027
    1   AR   Ar  242   5.163   6.133   1.499
    1   AR   Ar  243   6.057   4.688   1.976
    1   AR   Ar  244   6.534   6.000   0.089
    1   AR   Ar  245   5.248   5.512   2.268
    1   AR   Ar  246   5.791   6.492   2.719
    1   AR   Ar  247   5.503   3.606   2.813
    1   AR   Ar  248   5.950   6.931   1.134
    1   AR   Ar  249   5.710   4.650   3.262
    1   AR   Ar  250   4.649   6.300   3.966
    1   AR   Ar  251   5.481   5.377   4.214
    1   AR   Ar  252   6.162   5.691   3.597
    1   AR   Ar  253   5.560   5.216   5.356
    1   AR   Ar  254   5.519   5.855   6.526
    1   AR   Ar  255   5.913   4.440   6.034
    1   AR   Ar  256   5.870   6.224   4.873
    7.12000  7.12000 12.00000
Argon-slab step 845
  256
    1   AR   Ar    1   0.771   0.653  -0.530
    1   AR   Ar    2   6.992   0.531   1.096
    1   AR   Ar    3   0.693   6.646   0.367
    1   AR   Ar    4   1.299   0.580   0.481
    1   AR   Ar    5   0.003   6.538   1.260
    1   AR   Ar    6   0.433   0.194   2.660
    1   AR   Ar    7   0.103   6.355   2.302
    1   AR   Ar    8   0.815   7.081   1.685
    1   AR   Ar    9   0.473   0.702   4.332
    1   AR   Ar   10   7.010   1.612   4.419
    1   AR   Ar   11   1.993   7.077   4.571
    1   AR   Ar   12   1.101   0.732   3.544
    1   AR   Ar   13   6.858   0.704   5.153
    1   AR   Ar   14   0.382   1.237   6.008
    1   AR   Ar   15   1.072   6.307   7.178
    1   AR   Ar   16   1.357   1.091   5.312
    1   AR   Ar   17   6.841   1.469   0.171
    1   AR   Ar   18   6.674   3.042   0.373
    1   AR   Ar   19   0.732   1.338   0.774
    1   AR   Ar   20   0.245   3.013  -1.157
    1   AR   Ar   21   6.677   0.151   2.108
    1   AR   Ar   22   6.990   2.232   2.642
    1   AR   Ar   23   6.998   1.160   2.455
    1   AR   Ar   24   0.386   2.619   1.490
    1   AR   Ar   25   0.535   1.534   3.430
    1   AR   Ar   26   6.297   1.765   3.371
    1   AR   Ar   27   1.101   2.019   5.218
    1   AR   Ar   28   0.664   2.908   4.483
    1   AR   Ar   29   6.446   1.547   5.534
    1   AR   Ar   30   6.735   2.477   6.310
    1   AR   Ar   31   0.883   1.428   7.342
    1   AR   Ar   32   1.750   2.963   5.449
    1   AR   Ar   33   1.120   3.607  -0.432
    1   AR   Ar   34   0.500   4.675   1.281
    1   AR   Ar   35   0.488   3.703   0.786
    1   AR   Ar   36   1.699   6.496  -0.939
    1   AR   Ar   37   0.412   3.340   2.669
    1   AR   Ar   38   0.364   4.822   2.388
    1   AR   Ar   39   1.359   3.939   2.604
    1   AR   Ar   40   1.536   4.413   1.725
    1   AR   Ar   41   1.011   2.487   3.046
    1   AR   Ar   42   6.757   5.294   4.940
    1   AR   Ar   43   6.780   2.483   5.133
    1   AR   Ar   44   0.807   3.669   3.683
    1   AR   Ar   45   0.751   3.822   5.767
    1   AR   Ar   46   6.850   4.410   6.469
    1   AR   Ar   47   0.420   3.473   6.725
    1   AR   Ar   48   0.582   5.037   6.205
    1   AR   Ar   49   0.542   4.757  -0.700
    1   AR   Ar   50   6.148   5.643   1.342
    1   AR   Ar   51   1.215   4.418   0.607
    1   AR   Ar   52   0.807   5.382   0.349
    1   AR   Ar   53   6.497   5.521   2.558
    1   AR   Ar   54   6.654   6.573   3.260
    1   AR   Ar   55   0.589   5.491   3.301
    1   AR   Ar   56   1.000   5.843   1.472
    1   AR   Ar   57   6.634   4.215   2.900
    1   AR   Ar   58   0.204   5.776   4.231
    1   AR   Ar   59   1.644   6.172   4.972
    1   AR   Ar   60   0.907   6.747   4.072
    1   AR   Ar   61   6.683   5.782   5.932
    1   AR   Ar   62   0.545   6.044   5.397
    1   AR   Ar   63   1.426   5.568   5.756
    1   AR   Ar   64   0.961   0.077   5.060
    1   AR   Ar   65   2.193   6.515   0.067
    1   AR   Ar   66   1.801   0.895   1.399
    1   AR   Ar   67   3.488   6.247  -0.187
    1   AR   Ar   68   4.266   0.877   0.342
    1   AR   Ar   69   1.968   7.055   1.083
    1   AR   Ar   70   1.636   0.122   2.509
    1   AR   Ar   71   2.757   0.029   2.220
    1   AR   Ar   72   2.978   0.856   1.044
    1   AR   Ar   73   1.938   6.811   3.558
    1   AR   Ar   74   1.758   1.298   4.175
    1   AR   Ar   75   2.850   0.676   4.753
    1   AR   Ar   76   2.213   0.826   3.212
    1   AR   Ar   77   2.109   0.366   5.637
    1   AR   Ar   78   1.088   0.496   6.601
    1   AR   Ar   79   3.026   6.464   6.915
    1   AR   Ar   80   2.911   6.896   5.362
    1   AR   Ar   81   1.807   1.583   0.489
    1   AR   Ar   82   1.780   3.184   0.229
    1   AR   Ar   83   2.688   1.821   1.777
    1   AR   Ar   84   2.093   2.929  -0.833
    1   AR   Ar   85   1.548   2.004   1.493
    1   AR   Ar   86   2.152   2.507   2.284
    1   AR   Ar   87   1.906   1.347   2.312
    1   AR   Ar   88   3.302   3.626   1.567
    1   AR   Ar   89   0.914   1.574   2.118
    1   AR   Ar   90   3.118   2.360   5.014
    1   AR   Ar   91   2.581   2.079   4.209
    1   AR   Ar   92   1.806   1.815   3.328
    1   AR   Ar   93   1.311   1.869   6.336
    1   AR   Ar   94   2.671   1.685   7.853
    1   AR   Ar   95   2.410   0.705   7.144
    1   AR   Ar   96   2.378   2.074   6.391
    1   AR   Ar   97   2.491   3.810  -1.504
    1   AR   Ar   98   2.932   4.563   1.782
    1   AR   Ar   99   3.271   2.917  -1.337
    1   AR   Ar  100   2.180   5.154  -0.025
    1   AR   Ar  101   1.334   2.998   1.893
    1   AR   Ar  102   1.775   3.955   3.556
    1   AR   Ar  103   2.249   3.797   2.143
    1   AR   Ar  104   3.235   3.699   0.297
    1   AR   Ar  105   1.848   3.029   3.778
    1   AR   Ar  106   2.572   3.137   4.832
    1   AR   Ar  107   2.789   4.132   5.446
    1   AR   Ar  108   3.205   3.482   3.811
    1   AR   Ar  109   0.848   4.063   4.818
    1   AR   Ar  110   1.680   4.423   5.419
    1   AR   Ar  111   3.955   5.471   7.212
    1   AR   Ar  112   2.465   3.154   6.204
    1   AR   Ar  113   2.347   4.529   0.863
    1   AR   Ar  114   1.816   5.588   0.845
    1   AR   Ar  115   3.222   5.174   0.442
    1   AR   Ar  116   3.540   0.075   0.426
    1   AR   Ar  117   1.655   5.004   2.708
    1   AR   Ar  118   1.314   6.230   2.664
    1   AR   Ar  119   2.645   4.424   2.967
    1   AR   Ar  120   2.084   5.251   1.798
    1   AR   Ar  121   0.812   4.665   3.817
    1   AR   Ar  122   2.726   6.304   4.222
    1   AR   Ar  123   2.138   5.238   4.495
    1   AR   Ar  124   2.447   6.008   2.835
    1   AR   Ar  125   1.085   5.269   4.678
    1   AR   Ar  126   1.104   6.687   6.243
    1   AR   Ar  127   2.531   5.569   7.807
    1   AR   Ar  128   2.282   6.152   6.025
    1   AR   Ar  129   2.947   6.379   1.009
    1   AR   Ar  130   3.389   6.956  -0.909
    1   AR   Ar  131   5.027   6.618   0.565
    1   AR   Ar  132   5.618   2.050  -0.660
    1   AR   Ar  133   3.741   7.002   2.787
    1   AR   Ar  134   3.308   0.967   2.748
    1   AR   Ar  135   4.772   0.291   2.863
    1   AR   Ar  136   4.208   0.469   2.009
    1   AR   Ar  137   3.112   0.077   3.659
    1   AR   Ar  138   4.724   1.011   4.822
    1   AR   Ar  139   4.642   0.223   3.990
    1   AR   Ar  140   4.297   1.237   3.371
    1   AR   Ar  141   3.678   7.092   4.458
    1   AR   Ar  142   4.048   6.862   5.616
    1   AR   Ar  143   5.342   0.129   6.492
    1   AR   Ar  144   5.266   1.266   7.138
    1   AR   Ar  145   2.668   2.389   0.286
    1   AR   Ar  146   4.349   2.620   0.914
    1   AR   Ar  147   4.836   1.657   0.890
    1   AR   Ar  148   6.063   3.230  -0.594
    1   AR   Ar  149   3.824   1.663   1.204
    1   AR   Ar  150   2.737   1.800   2.951
    1   AR   Ar  151   3.514   2.146   3.617
    1   AR   Ar  152   3.463   2.647   1.628
    1   AR   Ar  153   3.245   1.132   3.897
    1   AR   Ar  154   4.142   1.852   4.502
    1   AR   Ar  155   5.286   1.445   5.826
    1   AR   Ar  156   4.790   3.756   4.205
    1   AR   Ar  157   3.924   1.998   5.627
    1   AR   Ar  158   3.443   2.394   6.813
    1   AR   Ar  159   4.294   0.996   6.251
    1   AR   Ar  160   4.555   2.968   5.245
    1   AR   Ar  161   4.634   2.275  -0.187
    1   AR   Ar  162   4.738   5.209   0.848
    1   AR   Ar  163   5.626   3.202   0.346
    1   AR   Ar  164   5.669   4.833   0.857
    1   AR   Ar  165   3.299   3.567   2.701
    1   AR   Ar  166   3.427   4.606   3.634
    1   AR   Ar  167   4.224   2.948   3.441
    1   AR   Ar  168   4.379   3.737   1.064
    1   AR   Ar  169   2.768   2.826   3.201
    1   AR   Ar  170   2.939   4.254   4.407
    1   AR   Ar  171   3.841   3.592   4.637
    1   AR   Ar  172   4.414   4.753   4.137
    1   AR   Ar  173   3.417   3.064   5.738
    1   AR   Ar  174   4.274   5.360   6.256
    1   AR   Ar  175   3.717   4.200   6.040
    1   AR   Ar  176   3.648   4.726   5.105
    1   AR   Ar  177   5.585   5.828   0.461
    1   AR   Ar  178   4.002   6.745   1.250
    1   AR   Ar  179   3.914   5.265   1.526
    1   AR   Ar  180   4.483   5.841  -0.013
    1   AR   Ar  181   3.038   5.791   1.851
    1   AR   Ar  182   2.098   6.360   1.967
    1   AR   Ar  183   3.727   4.645   2.565
    1   AR   Ar  184   4.098   5.998   2.417
    1   AR   Ar  185   1.682   5.811   3.505
    1   AR   Ar  186   3.744   5.597   4.110
    1   AR   Ar  187   4.502   5.317   3.288
    1   AR   Ar  188   3.380   6.078   3.288
    1   AR   Ar  189   2.714   5.268   5.713
    1   AR   Ar  190   4.347   6.409   6.595
    1   AR   Ar  191   4.448   5.464   4.948
    1   AR   Ar  192   3.406   6.082   5.153
    1   AR   Ar  193   5.649   0.045   0.066
    1   AR   Ar  194   4.375   7.014  -0.151
    1   AR   Ar  195   6.008   1.054   0.870
    1   AR   Ar  196   6.084   1.121  -0.616
    1   AR   Ar  197   5.182   0.474   1.097
    1   AR   Ar  198   5.257   1.553   1.892
    1   AR   Ar  199   5.687   0.733   1.996
    1   AR   Ar  200   6.912   1.651   1.524
    1   AR   Ar  201   4.857   6.392   2.999
    1   AR   Ar  202   5.529   1.068   3.970
    1   AR   Ar  203   6.867   6.899   4.613
    1   AR   Ar  204   6.005   0.445   3.122
    1   AR   Ar  205   5.596   6.908   3.728
    1   AR   Ar  206   4.798   6.594   4.873
    1   AR   Ar  207   0.106   6.843   5.771
    1   AR   Ar  208   6.375   0.677   4.284
    1   AR   Ar  209   6.563   1.751  -1.369
    1   AR   Ar  210   5.214   2.603   1.420
    1   AR   Ar  211   5.939   2.228   0.698
    1   AR   Ar  212   6.922   3.855  -0.544
    1   AR   Ar  213   4.588   2.339   2.388
    1   AR   Ar  214   4.342   3.467   2.143
    1   AR   Ar  215   5.860   2.248   2.607
    1   AR   Ar  216   6.468   2.631   1.693
    1   AR   Ar  217   5.052   2.496   3.894
    1   AR   Ar  218   5.689   1.838   4.871
    1   AR   Ar  219   5.327   1.381   2.964
    1   AR   Ar  220   6.425   3.194   3.201
    1   AR   Ar  221   5.812   0.802   5.170
    1   AR   Ar  222   4.691   2.256   6.415
    1   AR   Ar  223   6.856   1.854   7.321
    1   AR   Ar  224   5.848   2.597   5.674
    1   AR   Ar  225   4.981   4.227   0.163
    1   AR   Ar  226   4.880   4.611   1.734
    1   AR   Ar  227   0.038   3.843   1.752
    1   AR   Ar  228   6.784   4.952   0.520
    1   AR   Ar  229   6.333   3.713   1.097
    1   AR   Ar  230   4.179   3.899   3.376
    1   AR   Ar  231   0.162   2.716   3.528
    1   AR   Ar  232   5.349   3.666   1.549
    1   AR   Ar  233   6.357   2.522   4.062
    1   AR   Ar  234   5.795   4.276   4.936
    1   AR   Ar  235   6.644   3.713   4.385
    1   AR   Ar  236   5.700   3.771   3.866
    1   AR   Ar  237   5.477   3.052   4.658
    1   AR   Ar  238   4.830   4.584   5.840
    1   AR   Ar  239   6.010   4.037   7.552
    1   AR   Ar  240   6.541   3.657   5.731
    1   AR   Ar  241   6.920   0.425   0.011
    1   AR   Ar  242   5.179   6.151   1.480
    1   AR   Ar  243   6.033   4.695   1.993
    1   AR   Ar  244   6.551   5.951   0.066
    1   AR   Ar  245   5.257   5.517   2.254
    1   AR   Ar  246   5.813   6.494   2.735
    1   AR   Ar  247   5.512   3.578   2.822
    1   AR   Ar  248   5.950   6.905   1.103
    1   AR   Ar  249   5.680   4.627   3.290
    1   AR   Ar  250   4.630   6.313   3.999
    1   AR   Ar  251   5.430   5.415   4.218
    1   AR   Ar  252   6.138   5.672   3.549
    1   AR   Ar  253   5.593   5.179   5.372
    1   AR   Ar  254   5.509   5.852   6.507
    1   AR   Ar  255   5.903   4.424   6.047
    1   AR   Ar  256   5.890   6.211   4.872
    7.12000  7.12000 12.00000
Argon-slab step 850
  256
    1   AR   Ar    1   0.759   0.643  -0.522
    1   AR   Ar    2   6.988   0.511   1.127
    1   AR   Ar    3   0.630   6.654   0.340
    1   AR   Ar    4   1.320   0.561   0.473
    1   AR   Ar    5   7.117   6.544   1.246
    1   AR   Ar    6   0.430   0.183   2.650
    1   AR   Ar    7   0.090   6.372   2.280
    1   AR   Ar    8   0.787   7.060   1.717
    1   AR   Ar    9   0.479   0.720   4.323
    1   AR   Ar   10   7.003   1.620   4.395
    1   AR   Ar   11   1.999   7.064   4.591
    1   AR   Ar   12   1.137   0.743   3.543
    1   AR   Ar   13   6.868   0.716   5.141
    1   AR   Ar   14   0.362   1.235   6.031
    1   AR   Ar   15   1.043   6.296   7.238
    1   AR   Ar   16   1.356   1.075   5.325
    1   AR   Ar   17   6.840   1.485   0.167
    1   AR   Ar   18   6.697   3.028   0.372
    1   AR   Ar   19   0.742   1.323   0.801
    1   AR   Ar   20   0.248   3.043  -1.186
    1   AR   Ar   21   6.662   0.174   2.076
    1   AR   Ar   22   6.975   2.243   2.643
    1   AR   Ar   23   7.009   1.149   2.451
    1   AR   Ar   24   0.396   2.636   1.500
    1   AR   Ar   25   0.509   1.518   3.424
    1   AR   Ar   26   6.295   1.786   3.362
    1   AR   Ar   27   1.099   2.021   5.194
    1   AR   Ar   28   0.624   2.924   4.490
    1   AR   Ar   29   6.423   1.550   5.534
    1   AR   Ar   30   6.732   2.508   6.328
    1   AR   Ar   31   0.858   1.410   7.334
    1   AR   Ar   32   1.775   2.949   5.417
    1   AR   Ar   33   1.138   3.611  -0.464
    1   AR   Ar   34   0.503   4.648   1.275
    1   AR   Ar   35   0.481   3.711   0.770
    1   AR   Ar   36   1.716   6.512  -0.933
    1   AR   Ar   37   0.437   3.327   2.656
    1   AR   Ar   38   0.405   4.806   2.380
    1   AR   Ar   39   1.344   3.933   2.635
    1   AR   Ar   40   1.533   4.409   1.753
    1   AR   Ar   41   1.021   2.495   3.052
    1   AR   Ar   42   6.770   5.298   4.905
    1   AR   Ar   43   6.782   2.464   5.149
    1   AR   Ar   44   0.781   3.689   3.679
    1   AR   Ar   45   0.766   3.835   5.777
    1   AR   Ar   46   6.844   4.394   6.449
    1   AR   Ar   47   0.402   3.489   6.710
    1   AR   Ar   48   0.544   5.064   6.203
    1   AR   Ar   49   0.563   4.773  -0.725
    1   AR   Ar   50   6.162   5.621   1.380
    1   AR   Ar   51   1.241   4.438   0.593
    1   AR   Ar   52   0.760   5.367   0.352
    1   AR   Ar   53   6.490   5.520   2.582
    1   AR   Ar   54   6.639   6.564   3.247
    1   AR   Ar   55   0.624   5.500   3.307
    1   AR   Ar   56   1.034   5.832   1.473
    1   AR   Ar   57   6.590   4.227   2.860
    1   AR   Ar   58   0.189   5.794   4.246
    1   AR   Ar   59   1.664   6.148   4.955
    1   AR   Ar   60   0.886   6.772   4.086
    1   AR   Ar   61   6.667   5.787   5.940
    1   AR   Ar   62   0.540   6.034   5.405
    1   AR   Ar   63   1.420   5.507   5.739
    1   AR   Ar   64   0.974   0.091   5.065
    1   AR   Ar   65   2.220   6.536   0.116
    1   AR   Ar   66   1.788   0.881   1.376
    1   AR   Ar   67   3.493   6.263  -0.169
    1   AR   Ar   68   4.251   0.896   0.309
    1   AR   Ar   69   1.944   7.054   1.129
    1   AR   Ar   70   1.661   0.112   2.492
    1   AR   Ar   71   2.752   0.050   2.190
    1   AR   Ar   72   2.985   0.858   1.032
    1   AR   Ar   73   1.958   6.810   3.586
    1   AR   Ar   74   1.778   1.305   4.194
    1   AR   Ar   75   2.861   0.681   4.787
    1   AR   Ar   76   2.212   0.816   3.196
    1   AR   Ar   77   2.104   0.380   5.658
    1   AR   Ar   78   1.099   0.499   6.578
    1   AR   Ar   79   3.062   6.429   6.914
    1   AR   Ar   80   2.909   6.889   5.385
    1   AR   Ar   81   1.785   1.593   0.484
    1   AR   Ar   82   1.790   3.161   0.249
    1   AR   Ar   83   2.697   1.815   1.784
    1   AR   Ar   84   2.106   2.921  -0.866
    1   AR   Ar   85   1.539   2.023   1.477
    1   AR   Ar   86   2.149   2.504   2.269
    1   AR   Ar   87   1.919   1.355   2.333
    1   AR   Ar   88   3.322   3.640   1.544
    1   AR   Ar   89   0.940   1.571   2.110
    1   AR   Ar   90   3.116   2.340   4.983
    1   AR   Ar   91   2.588   2.068   4.186
    1   AR   Ar   92   1.831   1.830   3.318
    1   AR   Ar   93   1.323   1.844   6.321
    1   AR   Ar   94   2.710   1.656   7.876
    1   AR   Ar   95   2.432   0.682   7.126
    1   AR   Ar   96   2.358   2.091   6.408
    1   AR   Ar   97   2.543   3.820  -1.538
    1   AR   Ar   98   2.930   4.558   1.778
    1   AR   Ar   99   3.283   2.929  -1.360
    1   AR   Ar  100   2.193   5.157  -0.032
    1   AR   Ar  101   1.344   2.982   1.917
    1   AR   Ar  102   1.762   3.983   3.572
    1   AR   Ar  103   2.279   3.779   2.149
    1   AR   Ar  104   3.254   3.685   0.272
    1   AR   Ar  105   1.864   3.010   3.772
    1   AR   Ar  106   2.584   3.162   4.859
    1   AR   Ar  107   2.773   4.146   5.428
    1   AR   Ar  108   3.221   3.478   3.779
    1   AR   Ar  109   0.853   4.032   4.823
    1   AR   Ar  110   1.692   4.458   5.394
    1   AR   Ar  111   3.976   5.449   7.213
    1   AR   Ar  112   2.463   3.142   6.225
    1   AR   Ar  113   2.327   4.506   0.832
    1   AR   Ar  114   1.825   5.598   0.859
    1   AR   Ar  115   3.205   5.195   0.440
    1   AR   Ar  116   3.545   0.054   0.436
    1   AR   Ar  117   1.659   5.024   2.738
    1   AR   Ar  118   1.292   6.224   2.706
    1   AR   Ar  119   2.634   4.412   2.948
    1   AR   Ar  120   2.068   5.244   1.823
    1   AR   Ar  121   0.783   4.682   3.841
    1   AR   Ar  122   2.745   6.306   4.202
    1   AR   Ar  123   2.121   5.250   4.476
    1   AR   Ar  124   2.448   5.982   2.846
    1   AR   Ar  125   1.078   5.271   4.681
    1   AR   Ar  126   1.090   6.683   6.258
    1   AR   Ar  127   2.535   5.574   7.820
    1   AR   Ar  128   2.277   6.159   6.046
    1   AR   Ar  129   2.953   6.419   1.040
    1   AR   Ar  130   3.389   6.942  -0.910
    1   AR   Ar  131   5.035   6.629   0.543
    1   AR   Ar  132   5.637   2.060  -0.658
    1   AR   Ar  133   3.751   6.989   2.765
    1   AR   Ar  134   3.324   0.964   2.766
    1   AR   Ar  135   4.795   0.286   2.870
    1   AR   Ar  136   4.221   0.484   1.991
    1   AR   Ar  137   3.066   0.110   3.685
    1   AR   Ar  138   4.756   1.001   4.788
    1   AR   Ar  139   4.687   0.207   3.995
    1   AR   Ar  140   4.268   1.272   3.390
    1   AR   Ar  141   3.677   7.087   4.470
    1   AR   Ar  142   4.014   6.859   5.633
    1   AR   Ar  143   5.363   0.145   6.518
    1   AR   Ar  144   5.322   1.287   7.145
    1   AR   Ar  145   2.687   2.411   0.304
    1   AR   Ar  146   4.360   2.613   0.894
    1   AR   Ar  147   4.849   1.710   0.884
    1   AR   Ar  148   6.075   3.235  -0.638
    1   AR   Ar  149   3.836   1.654   1.206
    1   AR   Ar  150   2.755   1.798   2.961
    1   AR   Ar  151   3.499   2.144   3.644
    1   AR   Ar  152   3.446   2.662   1.618
    1   AR   Ar  153   3.227   1.159   3.870
    1   AR   Ar  154   4.160   1.826   4.561
    1   AR   Ar  155   5.315   1.423   5.824
    1   AR   Ar  156   4.795   3.753   4.175
    1   AR   Ar  157   3.959   1.995   5.627
    1   AR   Ar  158   3.433   2.395   6.796
    1   AR   Ar  159   4.298   0.983   6.242
    1   AR   Ar  160   4.551   2.961   5.271
    1   AR   Ar  161   4.632   2.288  -0.139
    1   AR   Ar  162   4.720   5.215   0.859
    1   AR   Ar  163   5.617   3.208   0.355
    1   AR   Ar  164   5.682   4.861   0.865
    1   AR   Ar  165   3.266   3.544   2.679
    1   AR   Ar  166   3.471   4.636   3.615
    1   AR   Ar  167   4.218   2.925   3.434
    1   AR   Ar  168   4.381   3.772   1.055
    1   AR   Ar  169   2.750   2.826   3.168
    1   AR   Ar  170   2.961   4.226   4.410
    1   AR   Ar  171   3.811   3.597   4.645
    1   AR   Ar  172   4.441   4.770   4.146
    1   AR   Ar  173   3.441   3.069   5.742
    1   AR   Ar  174   4.279   5.366   6.239
    1   AR   Ar  175   3.763   4.182   6.024
    1   AR   Ar  176   3.642   4.736   5.095
    1   AR   Ar  177   5.606   5.829   0.453
    1   AR   Ar  178   4.018   6.707   1.239
    1   AR   Ar  179   3.947   5.299   1.537
    1   AR   Ar  180   4.503   5.822  -0.020
    1   AR   Ar  181   3.021   5.804   1.853
    1   AR   Ar  182   2.123   6.389   1.949
    1   AR   Ar  183   3.725   4.634   2.579
    1   AR   Ar  184   4.077   5.992   2.401
    1   AR   Ar  185   1.666   5.805   3.521
    1   AR   Ar  186   3.781   5.604   4.090
    1   AR   Ar  187   4.490   5.334   3.312
    1   AR   Ar  188   3.412   6.079   3.295
    1   AR   Ar  189   2.700   5.206   5.746
    1   AR   Ar  190   4.387   6.412   6.598
    1   AR   Ar  191   4.449   5.424   4.940
    1   AR   Ar  192   3.421   6.098   5.130
    1   AR   Ar  193   5.690   0.022   0.082
    1   AR   Ar  194   4.376   7.013  -0.150
    1   AR   Ar  195   5.993   1.040   0.865
    1   AR   Ar  196   6.081   1.131  -0.635
    1   AR   Ar  197   5.164   0.466   1.083
    1   AR   Ar  198   5.279   1.577   1.921
    1   AR   Ar  199   5.691   0.705   1.988
    1   AR   Ar  200   6.908   1.689   1.505
    1   AR   Ar  201   4.857   6.391   2.994
    1   AR   Ar  202   5.579   1.079   3.937
    1   AR   Ar  203   6.884   6.873   4.624
    1   AR   Ar  204   5.981   0.418   3.106
    1   AR   Ar  205   5.585   6.891   3.712
    1   AR   Ar  206   4.786   6.605   4.914
    1   AR   Ar  207   0.111   6.873   5.775
    1   AR   Ar  208   6.400   0.651   4.267
    1   AR   Ar  209   6.550   1.744  -1.382
    1   AR   Ar  210   5.204   2.605   1.405
    1   AR   Ar  211   5.968   2.181   0.668
    1   AR   Ar  212   6.914   3.803  -0.578
    1   AR   Ar  213   4.549   2.341   2.372
    1   AR   Ar  214   4.375   3.438   2.128
    1   AR   Ar  215   5.853   2.278   2.590
    1   AR   Ar  216   6.478   2.595   1.686
    1   AR   Ar  217   5.036   2.500   3.883
    1   AR   Ar  218   5.717   1.813   4.890
    1   AR   Ar  219   5.317   1.364   2.915
    1   AR   Ar  220   6.417   3.194   3.230
    1   AR   Ar  221   5.816   0.788   5.172
    1   AR   Ar  222   4.705   2.247   6.416
    1   AR   Ar  223   6.848   1.863   7.313
    1   AR   Ar  224   5.848   2.598   5.697
    1   AR   Ar  225   4.969   4.207   0.171
    1   AR   Ar  226   4.892   4.630   1.729
    1   AR   Ar  227   0.009   3.847   1.774
    1   AR   Ar  228   6.760   4.958   0.520
    1   AR   Ar  229   6.329   3.702   1.105
    1   AR   Ar  230   4.176   3.897   3.326
    1   AR   Ar  231   0.161   2.723   3.559
    1   AR   Ar  232   5.359   3.632   1.544
    1   AR   Ar  233   6.337   2.505   4.059
    1   AR   Ar  234   5.815   4.246   4.942
    1   AR   Ar  235   6.653   3.727   4.411
    1   AR   Ar  236   5.700   3.766   3.871
    1   AR   Ar  237   5.480   3.092   4.639
    1   AR   Ar  238   4.822   4.607   5.792
    1   AR   Ar  239   5.978   4.041   7.542
    1   AR   Ar  240   6.534   3.693   5.757
    1   AR   Ar  241   6.905   0.390  -0.004
    1   AR   Ar  242   5.194   6.174   1.459
    1   AR   Ar  243   6.009   4.701   2.009
    1   AR   Ar  244   6.565   5.934   0.050
    1   AR   Ar  245   5.269   5.522   2.247
    1   AR   Ar  246   5.836   6.496   2.741
    1   AR   Ar  247   5.519   3.550   2.829
    1   AR   Ar  248   5.956   6.876   1.074
    1   AR   Ar  249   5.648   4.610   3.315
    1   AR   Ar  250   4.605   6.310   4.010
    1   AR   Ar  251   5.371   5.450   4.229
    1   AR   Ar  252   6.119   5.654   3.499
    1   AR   Ar  253   5.627   5.152   5.387
    1   AR   Ar  254   5.497   5.849   6.487
    1   AR   Ar  255   5.888   4.409   6.060
    1   AR   Ar  256   5.912   6.198   4.871
    7.12000  7.12000 12.00000
Argon-slab step 855
  256
    1   AR   Ar    1   0.747   0.634  -0.513
    1   AR   Ar    2   6.985   0.493   1.155
    1   AR   Ar    3   0.568   6.664   0.313
    1   AR   Ar    4   1.343   0.534   0.461
    1   AR   Ar    5   7.106   6.548   1.227
    1   AR   Ar    6   0.426   0.184   2.634
    1   AR   Ar    7   0.077   6.384   2.260
    1   AR   Ar    8   0.763   7.039   1.744
    1   AR   Ar    9   0.480   0.738   4.319
    1   AR   Ar   10   6.995   1.631   4.371
    1   AR   Ar   11   2.007   7.056   4.615
    1   AR   Ar   12   1.181   0.744   3.536
    1   AR   Ar   13   6.889   0.725   5.138
    1   AR   Ar   14   0.348   1.227   6.035
    1   AR   Ar   15   1.014   6.283   7.300
    1   AR   Ar   16   1.356   1.050   5.339
    1   AR   Ar   17   6.838   1.501   0.164
    1   AR   Ar   18   6.726   3.009   0.367
    1   AR   Ar   19   0.747   1.314   0.832
    1   AR   Ar   20   0.252   3.072  -1.215
    1   AR   Ar   21   6.641   0.204   2.038
    1   AR   Ar   22   6.963   2.256   2.640
    1   AR   Ar   23   7.020   1.138   2.449
    1   AR   Ar   24   0.389   2.645   1.534
    1   AR   Ar   25   0.477   1.510   3.415
    1   AR   Ar   26   6.297   1.795   3.354
    1   AR   Ar   27   1.094   2.034   5.169
    1   AR   Ar   28   0.585   2.941   4.499
    1   AR   Ar   29   6.409   1.557   5.546
    1   AR   Ar   30   6.732   2.553   6.364
    1   AR   Ar   31   0.832   1.391   7.323
    1   AR   Ar   32   1.791   2.932   5.387
    1   AR   Ar   33   1.146   3.619  -0.508
    1   AR   Ar   34   0.504   4.628   1.271
    1   AR   Ar   35   0.471   3.715   0.753
    1   AR   Ar   36   1.734   6.528  -0.926
    1   AR   Ar   37   0.433   3.323   2.665
    1   AR   Ar   38   0.447   4.789   2.372
    1   AR   Ar   39   1.323   3.925   2.669
    1   AR   Ar   40   1.523   4.401   1.773
    1   AR   Ar   41   1.036   2.502   3.054
    1   AR   Ar   42   6.789   5.292   4.876
    1   AR   Ar   43   6.799   2.443   5.163
    1   AR   Ar   44   0.751   3.697   3.674
    1   AR   Ar   45   0.780   3.846   5.798
    1   AR   Ar   46   6.844   4.379   6.434
    1   AR   Ar   47   0.381   3.504   6.697
    1   AR   Ar   48   0.506   5.091   6.199
    1   AR   Ar   49   0.583   4.787  -0.747
    1   AR   Ar   50   6.178   5.603   1.421
    1   AR   Ar   51   1.274   4.457   0.575
    1   AR   Ar   52   0.712   5.354   0.356
    1   AR   Ar   53   6.488   5.517   2.592
    1   AR   Ar   54   6.644   6.559   3.245
    1   AR   Ar   55   0.658   5.518   3.303
    1   AR   Ar   56   1.064   5.822   1.478
    1   AR   Ar   57   6.548   4.239   2.818
    1   AR   Ar   58   0.181   5.821   4.255
    1   AR   Ar   59   1.693   6.131   4.945
    1   AR   Ar   60   0.855   6.795   4.099
    1   AR   Ar   61   6.650   5.792   5.946
    1   AR   Ar   62   0.538   6.018   5.408
    1   AR   Ar   63   1.416   5.443   5.726
    1   AR   Ar   64   0.985   0.100   5.071
    1   AR   Ar   65   2.247   6.557   0.166
    1   AR   Ar   66   1.775   0.878   1.356
    1   AR   Ar   67   3.498   6.273  -0.143
    1   AR   Ar   68   4.236   0.916   0.278
    1   AR   Ar   69   1.923   7.042   1.171
    1   AR   Ar   70   1.686   0.105   2.474
    1   AR   Ar   71   2.751   0.075   2.162
    1   AR   Ar   72   2.992   0.859   1.021
    1   AR   Ar   73   1.998   6.813   3.632
    1   AR   Ar   74   1.797   1.309   4.219
    1   AR   Ar   75   2.869   0.685   4.820
    1   AR   Ar   76   2.213   0.803   3.184
    1   AR   Ar   77   2.090   0.386   5.663
    1   AR   Ar   78   1.103   0.497   6.571
    1   AR   Ar   79   3.099   6.394   6.912
    1   AR   Ar   80   2.901   6.890   5.410
    1   AR   Ar   81   1.787   1.600   0.484
    1   AR   Ar   82   1.802   3.138   0.271
    1   AR   Ar   83   2.692   1.822   1.791
    1   AR   Ar   84   2.120   2.914  -0.898
    1   AR   Ar   85   1.538   2.045   1.453
    1   AR   Ar   86   2.149   2.504   2.264
    1   AR   Ar   87   1.935   1.362   2.357
    1   AR   Ar   88   3.342   3.661   1.518
    1   AR   Ar   89   0.952   1.565   2.111
    1   AR   Ar   90   3.127   2.313   4.959
    1   AR   Ar   91   2.587   2.055   4.153
    1   AR   Ar   92   1.848   1.850   3.307
    1   AR   Ar   93   1.332   1.818   6.305
    1   AR   Ar   94   2.725   1.646   7.905
    1   AR   Ar   95   2.454   0.660   7.108
    1   AR   Ar   96   2.341   2.107   6.426
    1   AR   Ar   97   2.595   3.829  -1.571
    1   AR   Ar   98   2.935   4.578   1.754
    1   AR   Ar   99   3.293   2.942  -1.382
    1   AR   Ar  100   2.205   5.161  -0.041
    1   AR   Ar  101   1.346   2.974   1.941
    1   AR   Ar  102   1.756   4.025   3.591
    1   AR   Ar  103   2.312   3.754   2.155
    1   AR   Ar  104   3.273   3.670   0.249
    1   AR   Ar  105   1.880   2.980   3.770
    1   AR   Ar  106   2.598   3.200   4.878
    1   AR   Ar  107   2.756   4.157   5.413
    1   AR   Ar  108   3.241   3.474   3.745
    1   AR   Ar  109   0.860   4.007   4.819
    1   AR   Ar  110   1.704   4.494   5.368
    1   AR   Ar  111   3.994   5.428   7.218
    1   AR   Ar  112   2.463   3.133   6.245
    1   AR   Ar  113   2.308   4.483   0.805
    1   AR   Ar  114   1.839   5.616   0.874
    1   AR   Ar  115   3.188   5.218   0.440
    1   AR   Ar  116   3.542   0.036   0.447
    1   AR   Ar  117   1.660   5.043   2.772
    1   AR   Ar  118   1.265   6.223   2.738
    1   AR   Ar  119   2.621   4.402   2.928
    1   AR   Ar  120   2.092   5.239   1.825
    1   AR   Ar  121   0.757   4.696   3.870
    1   AR   Ar  122   2.764   6.308   4.182
    1   AR   Ar  123   2.107   5.261   4.457
    1   AR   Ar  124   2.450   5.955   2.858
    1   AR   Ar  125   1.068   5.274   4.686
    1   AR   Ar  126   1.077   6.668   6.264
    1   AR   Ar  127   2.540   5.579   7.832
    1   AR   Ar  128   2.271   6.169   6.066
    1   AR   Ar  129   2.958   6.463   1.066
    1   AR   Ar  130   3.389   6.934  -0.915
    1   AR   Ar  131   5.022   6.637   0.532
    1   AR   Ar  132   5.655   2.075  -0.655
    1   AR   Ar  133   3.760   6.976   2.745
    1   AR   Ar  134   3.342   0.954   2.783
    1   AR   Ar  135   4.822   0.287   2.880
    1   AR   Ar  136   4.233   0.501   1.968
    1   AR   Ar  137   3.013   0.143   3.702
    1   AR   Ar  138   4.792   0.989   4.755
    1   AR   Ar  139   4.729   0.200   4.001
    1   AR   Ar  140   4.240   1.306   3.411
    1   AR   Ar  141   3.673   7.084   4.499
    1   AR   Ar  142   3.981   6.858   5.650
    1   AR   Ar  143   5.383   0.162   6.543
    1   AR   Ar  144   5.326   1.312   7.142
    1   AR   Ar  145   2.705   2.434   0.323
    1   AR   Ar  146   4.357   2.612   0.870
    1   AR   Ar  147   4.869   1.756   0.876
    1   AR   Ar  148   6.082   3.234  -0.682
    1   AR   Ar  149   3.850   1.668   1.193
    1   AR   Ar  150   2.777   1.795   2.967
    1   AR   Ar  151   3.493   2.150   3.659
    1   AR   Ar  152   3.432   2.671   1.607
    1   AR   Ar  153   3.218   1.166   3.860
    1   AR   Ar  154   4.175   1.803   4.617
    1   AR   Ar  155   5.341   1.405   5.825
    1   AR   Ar  156   4.782   3.749   4.152
    1   AR   Ar  157   3.995   1.992   5.628
    1   AR   Ar  158   3.422   2.396   6.776
    1   AR   Ar  159   4.310   0.990   6.230
    1   AR   Ar  160   4.545   2.952   5.296
    1   AR   Ar  161   4.631   2.306  -0.087
    1   AR   Ar  162   4.701   5.224   0.865
    1   AR   Ar  163   5.605   3.214   0.367
    1   AR   Ar  164   5.699   4.879   0.873
    1   AR   Ar  165   3.240   3.527   2.652
    1   AR   Ar  166   3.516   4.670   3.596
    1   AR   Ar  167   4.207   2.893   3.425
    1   AR   Ar  168   4.383   3.806   1.046
    1   AR   Ar  169   2.725   2.819   3.135
    1   AR   Ar  170   2.976   4.202   4.416
    1   AR   Ar  171   3.786   3.607   4.663
    1   AR   Ar  172   4.469   4.779   4.158
    1   AR   Ar  173   3.466   3.074   5.745
    1   AR   Ar  174   4.284   5.375   6.216
    1   AR   Ar  175   3.779   4.166   6.025
    1   AR   Ar  176   3.640   4.710   5.107
    1   AR   Ar  177   5.629   5.823   0.444
    1   AR   Ar  178   4.038   6.666   1.232
    1   AR   Ar  179   3.977   5.333   1.550
    1   AR   Ar  180   4.514   5.794  -0.033
    1   AR   Ar  181   3.006   5.812   1.861
    1   AR   Ar  182   2.142   6.414   1.927
    1   AR   Ar  183   3.723   4.622   2.589
    1   AR   Ar  184   4.055   5.984   2.382
    1   AR   Ar  185   1.652   5.790   3.552
    1   AR   Ar  186   3.816   5.607   4.081
    1   AR   Ar  187   4.479   5.356   3.328
    1   AR   Ar  188   3.442   6.084   3.296
    1   AR   Ar  189   2.686   5.143   5.777
    1   AR   Ar  190   4.428   6.414   6.602
    1   AR   Ar  191   4.454   5.391   4.937
    1   AR   Ar  192   3.443   6.101   5.101
    1   AR   Ar  193   5.745   0.013   0.086
    1   AR   Ar  194   4.375   6.986  -0.138
    1   AR   Ar  195   5.982   1.028   0.860
    1   AR   Ar  196   6.080   1.134  -0.651
    1   AR   Ar  197   5.139   0.457   1.068
    1   AR   Ar  198   5.263   1.550   1.921
    1   AR   Ar  199   5.703   0.659   1.984
    1   AR   Ar  200   6.907   1.720   1.483
    1   AR   Ar  201   4.852   6.384   2.990
    1   AR   Ar  202   5.616   1.095   3.901
    1   AR   Ar  203   6.894   6.868   4.623
    1   AR   Ar  204   5.965   0.403   3.079
    1   AR   Ar  205   5.572   6.863   3.705
    1   AR   Ar  206   4.777   6.620   4.968
    1   AR   Ar  207   0.113   6.911   5.779
    1   AR   Ar  208   6.386   0.646   4.249
    1   AR   Ar  209   6.556   1.748  -1.391
    1   AR   Ar  210   5.190   2.589   1.396
    1   AR   Ar  211   5.996   2.133   0.640
    1   AR   Ar  212   6.912   3.757  -0.608
    1   AR   Ar  213   4.521   2.332   2.361
    1   AR   Ar  214   4.400   3.430   2.107
    1   AR   Ar  215   5.842   2.297   2.595
    1   AR   Ar  216   6.480   2.566   1.681
    1   AR   Ar  217   5.024   2.500   3.873
    1   AR   Ar  218   5.737   1.794   4.898
    1   AR   Ar  219   5.307   1.344   2.872
    1   AR   Ar  220   6.409   3.194   3.258
    1   AR   Ar  221   5.797   0.789   5.174
    1   AR   Ar  222   4.719   2.237   6.416
    1   AR   Ar  223   6.838   1.873   7.305
    1   AR   Ar  224   5.846   2.599   5.718
    1   AR   Ar  225   4.957   4.188   0.182
    1   AR   Ar  226   4.878   4.643   1.744
    1   AR   Ar  227   7.101   3.850   1.799
    1   AR   Ar  228   6.737   4.963   0.522
    1   AR   Ar  229   6.325   3.693   1.112
    1   AR   Ar  230   4.172   3.908   3.271
    1   AR   Ar  231   0.164   2.746   3.601
    1   AR   Ar  232   5.369   3.602   1.541
    1   AR   Ar  233   6.316   2.494   4.066
    1   AR   Ar  234   5.790   4.201   4.972
    1   AR   Ar  235   6.664   3.740   4.438
    1   AR   Ar  236   5.720   3.757   3.871
    1   AR   Ar  237   5.487   3.129   4.627
    1   AR   Ar  238   4.814   4.626   5.741
    1   AR   Ar  239   5.947   4.045   7.530
    1   AR   Ar  240   6.530   3.719   5.775
    1   AR   Ar  241   6.889   0.355  -0.019
    1   AR   Ar  242   5.207   6.197   1.437
    1   AR   Ar  243   5.984   4.705   2.023
    1   AR   Ar  244   6.581   5.927   0.036
    1   AR   Ar  245   5.282   5.525   2.247
    1   AR   Ar  246   5.848   6.496   2.731
    1   AR   Ar  247   5.522   3.524   2.831
    1   AR   Ar  248   5.968   6.846   1.049
    1   AR   Ar  249   5.615   4.601   3.336
    1   AR   Ar  250   4.578   6.295   4.015
    1   AR   Ar  251   5.309   5.484   4.241
    1   AR   Ar  252   6.095   5.638   3.457
    1   AR   Ar  253   5.660   5.137   5.400
    1   AR   Ar  254   5.485   5.846   6.464
    1   AR   Ar  255   5.865   4.396   6.077
    1   AR   Ar  256   5.933   6.183   4.869
    7.12000  7.12000 12.00000
Argon-slab step 860
  256
    1   AR   Ar    1   0.735   0.624  -0.502
    1   AR   Ar    2   6.986   0.482   1.172
    1   AR   Ar    3   0.506   6.674   0.286
    1   AR   Ar    4   1.367   0.503   0.445
    1   AR   Ar    5   7.092   6.549   1.205
    1   AR   Ar    6   0.387   0.184   2.628
    1   AR   Ar    7   0.062   6.390   2.245
    1   AR   Ar    8   0.748   7.017   1.762
    1   AR   Ar    9   0.481   0.754   4.315
    1   AR   Ar   10   6.983   1.643   4.348
    1   AR   Ar   11   2.018   7.056   4.644
    1   AR   Ar   12   1.229   0.741   3.526
    1   AR   Ar   13   6.916   0.732   5.140
    1   AR   Ar   14   0.333   1.218   6.043
    1   AR   Ar   15   0.985   6.271   7.362
    1   AR   Ar   16   1.354   1.025   5.353
    1   AR   Ar   17   6.835   1.516   0.163
    1   AR   Ar   18   6.755   2.989   0.362
    1   AR   Ar   19   0.749   1.307   0.866
    1   AR   Ar   20   0.258   3.096  -1.246
    1   AR   Ar   21   6.617   0.226   2.009
    1   AR   Ar   22   6.953   2.269   2.637
    1   AR   Ar   23   7.030   1.129   2.448
    1   AR   Ar   24   0.379   2.652   1.573
    1   AR   Ar   25   0.441   1.505   3.405
    1   AR   Ar   26   6.290   1.782   3.344
    1   AR   Ar   27   1.086   2.053   5.143
    1   AR   Ar   28   0.549   2.958   4.517
    1   AR   Ar   29   6.406   1.562   5.574
    1   AR   Ar   30   6.732   2.597   6.400
    1   AR   Ar   31   0.806   1.373   7.311
    1   AR   Ar   32   1.798   2.912   5.363
    1   AR   Ar   33   1.152   3.627  -0.552
    1   AR   Ar   34   0.504   4.614   1.270
    1   AR   Ar   35   0.460   3.715   0.735
    1   AR   Ar   36   1.752   6.545  -0.918
    1   AR   Ar   37   0.425   3.317   2.673
    1   AR   Ar   38   0.489   4.771   2.366
    1   AR   Ar   39   1.301   3.916   2.702
    1   AR   Ar   40   1.509   4.391   1.788
    1   AR   Ar   41   1.012   2.479   3.075
    1   AR   Ar   42   6.798   5.277   4.860
    1   AR   Ar   43   6.818   2.425   5.175
    1   AR   Ar   44   0.718   3.698   3.668
    1   AR   Ar   45   0.776   3.872   5.825
    1   AR   Ar   46   6.812   4.403   6.435
    1   AR   Ar   47   0.358   3.517   6.686
    1   AR   Ar   48   0.467   5.120   6.193
    1   AR   Ar   49   0.603   4.800  -0.768
    1   AR   Ar   50   6.198   5.591   1.464
    1   AR   Ar   51   1.308   4.475   0.555
    1   AR   Ar   52   0.672   5.348   0.366
    1   AR   Ar   53   6.495   5.514   2.583
    1   AR   Ar   54   6.669   6.556   3.255
    1   AR   Ar   55   0.687   5.542   3.293
    1   AR   Ar   56   1.087   5.814   1.490
    1   AR   Ar   57   6.508   4.250   2.778
    1   AR   Ar   58   0.150   5.821   4.262
    1   AR   Ar   59   1.736   6.123   4.949
    1   AR   Ar   60   0.810   6.816   4.109
    1   AR   Ar   61   6.634   5.796   5.950
    1   AR   Ar   62   0.536   6.000   5.408
    1   AR   Ar   63   1.413   5.382   5.714
    1   AR   Ar   64   1.013   0.101   5.063
    1   AR   Ar   65   2.275   6.576   0.218
    1   AR   Ar   66   1.760   0.888   1.343
    1   AR   Ar   67   3.502   6.277  -0.112
    1   AR   Ar   68   4.223   0.937   0.250
    1   AR   Ar   69   1.901   7.022   1.206
    1   AR   Ar   70   1.709   0.099   2.458
    1   AR   Ar   71   2.738   0.085   2.137
    1   AR   Ar   72   2.998   0.861   1.011
    1   AR   Ar   73   2.036   6.817   3.668
    1   AR   Ar   74   1.817   1.310   4.248
    1   AR   Ar   75   2.860   0.667   4.834
    1   AR   Ar   76   2.219   0.787   3.175
    1   AR   Ar   77   2.073   0.388   5.665
    1   AR   Ar   78   1.097   0.481   6.583
    1   AR   Ar   79   3.135   6.358   6.909
    1   AR   Ar   80   2.891   6.894   5.435
    1   AR   Ar   81   1.790   1.607   0.485
    1   AR   Ar   82   1.814   3.115   0.293
    1   AR   Ar   83   2.696   1.822   1.791
    1   AR   Ar   84   2.135   2.908  -0.929
    1   AR   Ar   85   1.542   2.068   1.423
    1   AR   Ar   86   2.153   2.504   2.269
    1   AR   Ar   87   1.953   1.368   2.377
    1   AR   Ar   88   3.364   3.687   1.491
    1   AR   Ar   89   0.953   1.555   2.116
    1   AR   Ar   90   3.142   2.288   4.946
    1   AR   Ar   91   2.584   2.060   4.112
    1   AR   Ar   92   1.855   1.873   3.300
    1   AR   Ar   93   1.336   1.789   6.287
    1   AR   Ar   94   2.724   1.650   7.938
    1   AR   Ar   95   2.476   0.638   7.090
    1   AR   Ar   96   2.326   2.120   6.444
    1   AR   Ar   97   2.647   3.837  -1.603
    1   AR   Ar   98   2.939   4.602   1.732
    1   AR   Ar   99   3.302   2.955  -1.404
    1   AR   Ar  100   2.216   5.164  -0.051
    1   AR   Ar  101   1.338   2.976   1.964
    1   AR   Ar  102   1.754   4.072   3.614
    1   AR   Ar  103   2.344   3.727   2.158
    1   AR   Ar  104   3.291   3.655   0.228
    1   AR   Ar  105   1.895   2.946   3.768
    1   AR   Ar  106   2.619   3.246   4.889
    1   AR   Ar  107   2.739   4.162   5.405
    1   AR   Ar  108   3.265   3.470   3.717
    1   AR   Ar  109   0.868   3.985   4.803
    1   AR   Ar  110   1.718   4.527   5.340
    1   AR   Ar  111   4.011   5.409   7.227
    1   AR   Ar  112   2.464   3.128   6.264
    1   AR   Ar  113   2.291   4.460   0.780
    1   AR   Ar  114   1.860   5.634   0.883
    1   AR   Ar  115   3.172   5.242   0.442
    1   AR   Ar  116   3.535   0.023   0.458
    1   AR   Ar  117   1.659   5.059   2.808
    1   AR   Ar  118   1.236   6.226   2.761
    1   AR   Ar  119   2.609   4.394   2.910
    1   AR   Ar  120   2.118   5.242   1.828
    1   AR   Ar  121   0.732   4.708   3.902
    1   AR   Ar  122   2.784   6.307   4.165
    1   AR   Ar  123   2.096   5.270   4.437
    1   AR   Ar  124   2.452   5.929   2.869
    1   AR   Ar  125   1.055   5.277   4.694
    1   AR   Ar  126   1.065   6.643   6.264
    1   AR   Ar  127   2.550   5.562   7.819
    1   AR   Ar  128   2.265   6.180   6.085
    1   AR   Ar  129   2.960   6.510   1.089
    1   AR   Ar  130   3.388   6.929  -0.923
    1   AR   Ar  131   4.999   6.641   0.529
    1   AR   Ar  132   5.671   2.096  -0.650
    1   AR   Ar  133   3.769   6.965   2.725
    1   AR   Ar  134   3.363   0.939   2.798
    1   AR   Ar  135   4.850   0.294   2.890
    1   AR   Ar  136   4.245   0.517   1.945
    1   AR   Ar  137   2.958   0.175   3.715
    1   AR   Ar  138   4.832   0.974   4.723
    1   AR   Ar  139   4.763   0.202   4.008
    1   AR   Ar  140   4.213   1.339   3.431
    1   AR   Ar  141   3.672   7.079   4.532
    1   AR   Ar  142   3.947   6.858   5.668
    1   AR   Ar  143   5.401   0.179   6.568
    1   AR   Ar  144   5.316   1.339   7.135
    1   AR   Ar  145   2.723   2.457   0.343
    1   AR   Ar  146   4.338   2.623   0.845
    1   AR   Ar  147   4.896   1.789   0.866
    1   AR   Ar  148   6.078   3.225  -0.726
    1   AR   Ar  149   3.862   1.686   1.178
    1   AR   Ar  150   2.805   1.791   2.968
    1   AR   Ar  151   3.501   2.168   3.655
    1   AR   Ar  152   3.420   2.670   1.597
    1   AR   Ar  153   3.215   1.190   3.836
    1   AR   Ar  154   4.187   1.784   4.667
    1   AR   Ar  155   5.361   1.391   5.834
    1   AR   Ar  156   4.755   3.744   4.133
    1   AR   Ar  157   4.029   1.991   5.633
    1   AR   Ar  158   3.412   2.396   6.755
    1   AR   Ar  159   4.326   0.992   6.224
    1   AR   Ar  160   4.540   2.943   5.321
    1   AR   Ar  161   4.632   2.322  -0.037
    1   AR   Ar  162   4.687   5.234   0.866
    1   AR   Ar  163   5.592   3.220   0.381
    1   AR   Ar  164   5.714   4.887   0.881
    1   AR   Ar  165   3.222   3.517   2.620
    1   AR   Ar  166   3.560   4.706   3.581
    1   AR   Ar  167   4.193   2.861   3.413
    1   AR   Ar  168   4.381   3.823   1.060
    1   AR   Ar  169   2.694   2.806   3.104
    1   AR   Ar  170   2.985   4.184   4.419
    1   AR   Ar  171   3.773   3.615   4.689
    1   AR   Ar  172   4.501   4.774   4.183
    1   AR   Ar  173   3.451   3.112   5.736
    1   AR   Ar  174   4.288   5.387   6.190
    1   AR   Ar  175   3.775   4.152   6.037
    1   AR   Ar  176   3.639   4.687   5.117
    1   AR   Ar  177   5.642   5.822   0.444
    1   AR   Ar  178   4.061   6.624   1.228
    1   AR   Ar  179   4.000   5.365   1.568
    1   AR   Ar  180   4.526   5.767  -0.045
    1   AR   Ar  181   3.010   5.809   1.867
    1   AR   Ar  182   2.156   6.427   1.907
    1   AR   Ar  183   3.722   4.611   2.593
    1   AR   Ar  184   4.034   5.976   2.364
    1   AR   Ar  185   1.641   5.772   3.595
    1   AR   Ar  186   3.846   5.607   4.084
    1   AR   Ar  187   4.471   5.382   3.334
    1   AR   Ar  188   3.470   6.094   3.291
    1   AR   Ar  189   2.672   5.084   5.807
    1   AR   Ar  190   4.469   6.416   6.605
    1   AR   Ar  191   4.460   5.367   4.945
    1   AR   Ar  192   3.470   6.095   5.068
    1   AR   Ar  193   5.809   0.012   0.081
    1   AR   Ar  194   4.372   6.962  -0.136
    1   AR   Ar  195   5.975   1.018   0.854
    1   AR   Ar  196   6.081   1.131  -0.664
    1   AR   Ar  197   5.108   0.447   1.054
    1   AR   Ar  198   5.235   1.519   1.901
    1   AR   Ar  199   5.717   0.606   1.982
    1   AR   Ar  200   6.913   1.735   1.457
    1   AR   Ar  201   4.845   6.373   2.987
    1   AR   Ar  202   5.604   1.111   3.884
    1   AR   Ar  203   6.897   6.877   4.614
    1   AR   Ar  204   5.953   0.397   3.044
    1   AR   Ar  205   5.561   6.823   3.706
    1   AR   Ar  206   4.771   6.636   5.026
    1   AR   Ar  207   0.113   6.951   5.782
    1   AR   Ar  208   6.354   0.648   4.237
    1   AR   Ar  209   6.567   1.756  -1.400
    1   AR   Ar  210   5.200   2.610   1.420
    1   AR   Ar  211   6.011   2.113   0.612
    1   AR   Ar  212   6.918   3.721  -0.632
    1   AR   Ar  213   4.495   2.323   2.349
    1   AR   Ar  214   4.418   3.437   2.082
    1   AR   Ar  215   5.827   2.310   2.613
    1   AR   Ar  216   6.470   2.552   1.678
    1   AR   Ar  217   5.019   2.496   3.865
    1   AR   Ar  218   5.746   1.785   4.889
    1   AR   Ar  219   5.297   1.321   2.843
    1   AR   Ar  220   6.403   3.194   3.284
    1   AR   Ar  221   5.780   0.779   5.170
    1   AR   Ar  222   4.734   2.226   6.416
    1   AR   Ar  223   6.832   1.870   7.315
    1   AR   Ar  224   5.842   2.600   5.738
    1   AR   Ar  225   4.963   4.203   0.176
    1   AR   Ar  226   4.864   4.653   1.760
    1   AR   Ar  227   7.074   3.852   1.828
    1   AR   Ar  228   6.716   4.967   0.526
    1   AR   Ar  229   6.321   3.685   1.116
    1   AR   Ar  230   4.169   3.923   3.215
    1   AR   Ar  231   0.164   2.766   3.639
    1   AR   Ar  232   5.377   3.576   1.541
    1   AR   Ar  233   6.294   2.489   4.082
    1   AR   Ar  234   5.755   4.149   5.006
    1   AR   Ar  235   6.676   3.750   4.465
    1   AR   Ar  236   5.756   3.746   3.869
    1   AR   Ar  237   5.496   3.159   4.624
    1   AR   Ar  238   4.804   4.639   5.687
    1   AR   Ar  239   5.917   4.050   7.517
    1   AR   Ar  240   6.529   3.728   5.781
    1   AR   Ar  241   6.872   0.321  -0.031
    1   AR   Ar  242   5.218   6.217   1.419
    1   AR   Ar  243   5.957   4.708   2.036
    1   AR   Ar  244   6.601   5.923   0.023
    1   AR   Ar  245   5.296   5.528   2.251
    1   AR   Ar  246   5.846   6.492   2.704
    1   AR   Ar  247   5.520   3.499   2.830
    1   AR   Ar  248   5.986   6.815   1.029
    1   AR   Ar  249   5.580   4.599   3.352
    1   AR   Ar  250   4.561   6.277   4.042
    1   AR   Ar  251   5.280   5.496   4.242
    1   AR   Ar  252   6.063   5.625   3.433
    1   AR   Ar  253   5.695   5.135   5.408
    1   AR   Ar  254   5.471   5.842   6.440
    1   AR   Ar  255   5.832   4.387   6.099
    1   AR   Ar  256   5.956   6.169   4.867
    7.12000  7.12000 12.00000
Argon-slab step 865
  256
    1   AR   Ar    1   0.723   0.614  -0.489
    1   AR   Ar    2   6.990   0.471   1.173
    1   AR   Ar    3   0.446   6.684   0.259
    1   AR   Ar    4   1.388   0.470   0.426
    1   AR   Ar    5   7.073   6.546   1.182
    1   AR   Ar    6   0.341   0.184   2.643
    1   AR   Ar    7   0.044   6.389   2.233
    1   AR   Ar    8   0.743   6.995   1.767
    1   AR   Ar    9   0.482   0.769   4.311
    1   AR   Ar   10   6.969   1.656   4.325
    1   AR   Ar   11   2.031   7.063   4.678
    1   AR   Ar   12   1.276   0.735   3.514
    1   AR   Ar   13   6.946   0.738   5.145
    1   AR   Ar   14   0.319   1.210   6.049
    1   AR   Ar   15   0.957   6.259   7.422
    1   AR   Ar   16   1.348   1.009   5.367
    1   AR   Ar   17   6.832   1.530   0.164
    1   AR   Ar   18   6.783   2.969   0.357
    1   AR   Ar   19   0.750   1.300   0.903
    1   AR   Ar   20   0.270   3.114  -1.283
    1   AR   Ar   21   6.597   0.235   1.999
    1   AR   Ar   22   6.942   2.308   2.660
    1   AR   Ar   23   7.040   1.124   2.447
    1   AR   Ar   24   0.373   2.660   1.614
    1   AR   Ar   25   0.411   1.500   3.392
    1   AR   Ar   26   6.288   1.760   3.335
    1   AR   Ar   27   1.091   2.040   5.137
    1   AR   Ar   28   0.517   2.978   4.547
    1   AR   Ar   29   6.413   1.593   5.597
    1   AR   Ar   30   6.733   2.642   6.434
    1   AR   Ar   31   0.779   1.355   7.296
    1   AR   Ar   32   1.798   2.889   5.342
    1   AR   Ar   33   1.157   3.636  -0.596
    1   AR   Ar   34   0.504   4.605   1.270
    1   AR   Ar   35   0.448   3.712   0.716
    1   AR   Ar   36   1.754   6.560  -0.920
    1   AR   Ar   37   0.415   3.309   2.680
    1   AR   Ar   38   0.533   4.753   2.361
    1   AR   Ar   39   1.277   3.906   2.733
    1   AR   Ar   40   1.493   4.381   1.798
    1   AR   Ar   41   1.019   2.456   3.069
    1   AR   Ar   42   6.792   5.246   4.864
    1   AR   Ar   43   6.839   2.412   5.184
    1   AR   Ar   44   0.686   3.695   3.662
    1   AR   Ar   45   0.769   3.904   5.852
    1   AR   Ar   46   6.777   4.443   6.447
    1   AR   Ar   47   0.331   3.527   6.679
    1   AR   Ar   48   0.428   5.149   6.185
    1   AR   Ar   49   0.619   4.819  -0.786
    1   AR   Ar   50   6.219   5.585   1.509
    1   AR   Ar   51   1.337   4.493   0.532
    1   AR   Ar   52   0.664   5.370   0.397
    1   AR   Ar   53   6.510   5.508   2.558
    1   AR   Ar   54   6.703   6.555   3.271
    1   AR   Ar   55   0.708   5.564   3.281
    1   AR   Ar   56   1.102   5.809   1.508
    1   AR   Ar   57   6.470   4.258   2.742
    1   AR   Ar   58   0.125   5.828   4.253
    1   AR   Ar   59   1.777   6.113   4.955
    1   AR   Ar   60   0.765   6.835   4.116
    1   AR   Ar   61   6.618   5.799   5.953
    1   AR   Ar   62   0.534   5.981   5.406
    1   AR   Ar   63   1.409   5.334   5.709
    1   AR   Ar   64   1.045   0.097   5.056
    1   AR   Ar   65   2.302   6.595   0.269
    1   AR   Ar   66   1.758   0.896   1.339
    1   AR   Ar   67   3.505   6.273  -0.078
    1   AR   Ar   68   4.210   0.957   0.224
    1   AR   Ar   69   1.876   7.008   1.225
    1   AR   Ar   70   1.728   0.096   2.443
    1   AR   Ar   71   2.721   0.088   2.115
    1   AR   Ar   72   3.004   0.862   1.003
    1   AR   Ar   73   2.065   6.820   3.692
    1   AR   Ar   74   1.837   1.309   4.279
    1   AR   Ar   75   2.847   0.671   4.823
    1   AR   Ar   76   2.231   0.769   3.171
    1   AR   Ar   77   2.057   0.386   5.670
    1   AR   Ar   78   1.091   0.474   6.596
    1   AR   Ar   79   3.172   6.321   6.905
    1   AR   Ar   80   2.879   6.897   5.460
    1   AR   Ar   81   1.794   1.612   0.484
    1   AR   Ar   82   1.826   3.092   0.314
    1   AR   Ar   83   2.708   1.815   1.784
    1   AR   Ar   84   2.149   2.904  -0.959
    1   AR   Ar   85   1.547   2.083   1.412
    1   AR   Ar   86   2.158   2.504   2.281
    1   AR   Ar   87   1.969   1.374   2.393
    1   AR   Ar   88   3.387   3.715   1.463
    1   AR   Ar   89   0.960   1.572   2.094
    1   AR   Ar   90   3.147   2.276   4.946
    1   AR   Ar   91   2.584   2.092   4.065
    1   AR   Ar   92   1.857   1.897   3.296
    1   AR   Ar   93   1.337   1.757   6.267
    1   AR   Ar   94   2.723   1.654   7.970
    1   AR   Ar   95   2.497   0.617   7.071
    1   AR   Ar   96   2.314   2.129   6.463
    1   AR   Ar   97   2.698   3.845  -1.634
    1   AR   Ar   98   2.945   4.629   1.712
    1   AR   Ar   99   3.310   2.968  -1.425
    1   AR   Ar  100   2.226   5.169  -0.063
    1   AR   Ar  101   1.322   2.986   1.987
    1   AR   Ar  102   1.756   4.121   3.641
    1   AR   Ar  103   2.368   3.696   2.155
    1   AR   Ar  104   3.309   3.640   0.210
    1   AR   Ar  105   1.906   2.912   3.769
    1   AR   Ar  106   2.648   3.292   4.895
    1   AR   Ar  107   2.723   4.160   5.401
    1   AR   Ar  108   3.290   3.475   3.714
    1   AR   Ar  109   0.876   3.964   4.781
    1   AR   Ar  110   1.734   4.549   5.306
    1   AR   Ar  111   4.027   5.392   7.236
    1   AR   Ar  112   2.464   3.118   6.245
    1   AR   Ar  113   2.284   4.438   0.761
    1   AR   Ar  114   1.888   5.651   0.884
    1   AR   Ar  115   3.156   5.266   0.447
    1   AR   Ar  116   3.525   0.016   0.472
    1   AR   Ar  117   1.657   5.073   2.843
    1   AR   Ar  118   1.209   6.236   2.774
    1   AR   Ar  119   2.599   4.390   2.895
    1   AR   Ar  120   2.142   5.247   1.834
    1   AR   Ar  121   0.706   4.717   3.933
    1   AR   Ar  122   2.808   6.302   4.152
    1   AR   Ar  123   2.090   5.276   4.418
    1   AR   Ar  124   2.453   5.902   2.879
    1   AR   Ar  125   1.042   5.283   4.705
    1   AR   Ar  126   1.054   6.609   6.259
    1   AR   Ar  127   2.563   5.541   7.800
    1   AR   Ar  128   2.258   6.191   6.101
    1   AR   Ar  129   2.958   6.526   1.093
    1   AR   Ar  130   3.388   6.927  -0.932
    1   AR   Ar  131   4.978   6.642   0.533
    1   AR   Ar  132   5.687   2.122  -0.643
    1   AR   Ar  133   3.778   6.957   2.706
    1   AR   Ar  134   3.385   0.918   2.811
    1   AR   Ar  135   4.878   0.304   2.899
    1   AR   Ar  136   4.259   0.534   1.921
    1   AR   Ar  137   2.907   0.207   3.728
    1   AR   Ar  138   4.873   0.959   4.694
    1   AR   Ar  139   4.789   0.209   4.017
    1   AR   Ar  140   4.189   1.372   3.451
    1   AR   Ar  141   3.672   7.072   4.564
    1   AR   Ar  142   3.914   6.860   5.689
    1   AR   Ar  143   5.419   0.196   6.591
    1   AR   Ar  144   5.306   1.366   7.125
    1   AR   Ar  145   2.741   2.481   0.364
    1   AR   Ar  146   4.306   2.648   0.832
    1   AR   Ar  147   4.919   1.814   0.865
    1   AR   Ar  148   6.064   3.208  -0.769
    1   AR   Ar  149   3.873   1.704   1.165
    1   AR   Ar  150   2.836   1.784   2.965
    1   AR   Ar  151   3.512   2.188   3.653
    1   AR   Ar  152   3.410   2.664   1.589
    1   AR   Ar  153   3.207   1.224   3.805
    1   AR   Ar  154   4.198   1.769   4.705
    1   AR   Ar  155   5.373   1.384   5.851
    1   AR   Ar  156   4.721   3.736   4.114
    1   AR   Ar  157   4.061   1.991   5.646
    1   AR   Ar  158   3.401   2.398   6.731
    1   AR   Ar  159   4.343   0.995   6.217
    1   AR   Ar  160   4.534   2.934   5.345
    1   AR   Ar  161   4.639   2.334  -0.002
    1   AR   Ar  162   4.681   5.244   0.859
    1   AR   Ar  163   5.579   3.224   0.396
    1   AR   Ar  164   5.726   4.886   0.892
    1   AR   Ar  165   3.231   3.520   2.629
    1   AR   Ar  166   3.599   4.743   3.575
    1   AR   Ar  167   4.177   2.837   3.394
    1   AR   Ar  168   4.378   3.828   1.087
    1   AR   Ar  169   2.662   2.791   3.078
    1   AR   Ar  170   2.988   4.174   4.414
    1   AR   Ar  171   3.765   3.618   4.719
    1   AR   Ar  172   4.534   4.756   4.203
    1   AR   Ar  173   3.425   3.158   5.722
    1   AR   Ar  174   4.289   5.401   6.161
    1   AR   Ar  175   3.771   4.137   6.048
    1   AR   Ar  176   3.640   4.665   5.126
    1   AR   Ar  177   5.651   5.825   0.446
    1   AR   Ar  178   4.088   6.579   1.226
    1   AR   Ar  179   4.015   5.393   1.586
    1   AR   Ar  180   4.521   5.731  -0.071
    1   AR   Ar  181   3.022   5.800   1.875
    1   AR   Ar  182   2.174   6.430   1.874
    1   AR   Ar  183   3.719   4.604   2.584
    1   AR   Ar  184   4.013   5.972   2.351
    1   AR   Ar  185   1.636   5.755   3.646
    1   AR   Ar  186   3.861   5.600   4.102
    1   AR   Ar  187   4.469   5.407   3.329
    1   AR   Ar  188   3.495   6.108   3.281
    1   AR   Ar  189   2.657   5.033   5.839
    1   AR   Ar  190   4.502   6.416   6.591
    1   AR   Ar  191   4.466   5.356   4.967
    1   AR   Ar  192   3.499   6.083   5.031
    1   AR   Ar  193   5.874   0.016   0.069
    1   AR   Ar  194   4.362   6.942  -0.147
    1   AR   Ar  195   5.972   1.008   0.849
    1   AR   Ar  196   6.084   1.123  -0.673
    1   AR   Ar  197   5.074   0.437   1.041
    1   AR   Ar  198   5.204   1.497   1.862
    1   AR   Ar  199   5.719   0.555   1.979
    1   AR   Ar  200   6.928   1.730   1.426
    1   AR   Ar  201   4.834   6.357   2.984
    1   AR   Ar  202   5.564   1.136   3.866
    1   AR   Ar  203   6.902   6.884   4.604
    1   AR   Ar  204   5.944   0.395   3.008
    1   AR   Ar  205   5.558   6.773   3.707
    1   AR   Ar  206   4.767   6.652   5.083
    1   AR   Ar  207   0.113   6.993   5.784
    1   AR   Ar  208   6.339   0.640   4.229
    1   AR   Ar  209   6.578   1.765  -1.408
    1   AR   Ar  210   5.214   2.623   1.448
    1   AR   Ar  211   6.004   2.135   0.586
    1   AR   Ar  212   6.932   3.700  -0.647
    1   AR   Ar  213   4.469   2.315   2.337
    1   AR   Ar  214   4.415   3.435   2.070
    1   AR   Ar  215   5.808   2.327   2.626
    1   AR   Ar  216   6.444   2.557   1.679
    1   AR   Ar  217   5.020   2.489   3.861
    1   AR   Ar  218   5.746   1.783   4.866
    1   AR   Ar  219   5.289   1.294   2.830
    1   AR   Ar  220   6.389   3.203   3.303
    1   AR   Ar  221   5.768   0.757   5.161
    1   AR   Ar  222   4.750   2.213   6.415
    1   AR   Ar  223   6.835   1.852   7.336
    1   AR   Ar  224   5.837   2.599   5.756
    1   AR   Ar  225   4.973   4.227   0.167
    1   AR   Ar  226   4.849   4.660   1.776
    1   AR   Ar  227   7.050   3.854   1.860
    1   AR   Ar  228   6.697   4.971   0.531
    1   AR   Ar  229   6.318   3.678   1.118
    1   AR   Ar  230   4.171   3.933   3.160
    1   AR   Ar  231   0.160   2.780   3.667
    1   AR   Ar  232   5.384   3.563   1.543
    1   AR   Ar  233   6.270   2.487   4.106
    1   AR   Ar  234   5.719   4.096   5.038
    1   AR   Ar  235   6.689   3.758   4.492
    1   AR   Ar  236   5.796   3.738   3.865
    1   AR   Ar  237   5.463   3.149   4.633
    1   AR   Ar  238   4.794   4.646   5.632
    1   AR   Ar  239   5.887   4.055   7.503
    1   AR   Ar  240   6.531   3.721   5.775
    1   AR   Ar  241   6.854   0.287  -0.041
    1   AR   Ar  242   5.228   6.233   1.408
    1   AR   Ar  243   5.929   4.708   2.045
    1   AR   Ar  244   6.625   5.921   0.009
    1   AR   Ar  245   5.310   5.534   2.258
    1   AR   Ar  246   5.838   6.486   2.667
    1   AR   Ar  247   5.523   3.485   2.821
    1   AR   Ar  248   6.009   6.784   1.015
    1   AR   Ar  249   5.594   4.584   3.340
    1   AR   Ar  250   4.551   6.266   4.067
    1   AR   Ar  251   5.277   5.494   4.234
    1   AR   Ar  252   6.021   5.614   3.425
    1   AR   Ar  253   5.732   5.141   5.412
    1   AR   Ar  254   5.475   5.848   6.447
    1   AR   Ar  255   5.791   4.379   6.126
    1   AR   Ar  256   5.978   6.153   4.865
    7.12000  7.12000 12.00000
Argon-slab step 870
  256
    1   AR   Ar    1   0.709   0.602  -0.489
    1   AR   Ar    2   6.982   0.432   1.169
    1   AR   Ar    3   0.389   6.693   0.230
    1   AR   Ar    4   1.409   0.436   0.406
    1   AR   Ar    5   7.052   6.538   1.158
    1   AR   Ar    6   0.295   0.187   2.669
    1   AR   Ar    7   0.022   6.382   2.224
    1   AR   Ar    8   0.765   6.992   1.790
    1   AR   Ar    9   0.485   0.784   4.306
    1   AR   Ar   10   6.953   1.669   4.305
    1   AR   Ar   11   2.047   7.077   4.714
    1   AR   Ar   12   1.305   0.738   3.487
    1   AR   Ar   13   6.974   0.745   5.151
    1   AR   Ar   14   0.307   1.201   6.055
    1   AR   Ar   15   0.929   6.247   7.481
    1   AR   Ar   16   1.336   1.004   5.379
    1   AR   Ar   17   6.829   1.542   0.165
    1   AR   Ar   18   6.810   2.949   0.351
    1   AR   Ar   19   0.751   1.294   0.941
    1   AR   Ar   20   0.288   3.124  -1.328
    1   AR   Ar   21   6.590   0.224   2.010
    1   AR   Ar   22   6.931   2.354   2.690
    1   AR   Ar   23   7.049   1.125   2.445
    1   AR   Ar   24   0.369   2.669   1.655
    1   AR   Ar   25   0.405   1.485   3.376
    1   AR   Ar   26   6.296   1.768   3.353
    1   AR   Ar   27   1.095   2.028   5.130
    1   AR   Ar   28   0.490   2.998   4.591
    1   AR   Ar   29   6.424   1.616   5.628
    1   AR   Ar   30   6.735   2.686   6.466
    1   AR   Ar   31   0.752   1.336   7.279
    1   AR   Ar   32   1.794   2.866   5.324
    1   AR   Ar   33   1.162   3.644  -0.638
    1   AR   Ar   34   0.503   4.600   1.271
    1   AR   Ar   35   0.435   3.706   0.696
    1   AR   Ar   36   1.746   6.573  -0.930
    1   AR   Ar   37   0.400   3.298   2.686
    1   AR   Ar   38   0.577   4.735   2.358
    1   AR   Ar   39   1.256   3.896   2.762
    1   AR   Ar   40   1.477   4.371   1.807
    1   AR   Ar   41   1.024   2.436   3.061
    1   AR   Ar   42   6.776   5.204   4.883
    1   AR   Ar   43   6.862   2.405   5.188
    1   AR   Ar   44   0.655   3.691   3.656
    1   AR   Ar   45   0.768   3.926   5.866
    1   AR   Ar   46   6.754   4.477   6.462
    1   AR   Ar   47   0.299   3.535   6.678
    1   AR   Ar   48   0.390   5.179   6.176
    1   AR   Ar   49   0.615   4.866  -0.796
    1   AR   Ar   50   6.242   5.585   1.552
    1   AR   Ar   51   1.352   4.512   0.507
    1   AR   Ar   52   0.656   5.392   0.430
    1   AR   Ar   53   6.529   5.506   2.529
    1   AR   Ar   54   6.705   6.556   3.288
    1   AR   Ar   55   0.715   5.577   3.272
    1   AR   Ar   56   1.113   5.805   1.531
    1   AR   Ar   57   6.440   4.260   2.713
    1   AR   Ar   58   0.110   5.848   4.232
    1   AR   Ar   59   1.815   6.101   4.965
    1   AR   Ar   60   0.722   6.851   4.118
    1   AR   Ar   61   6.602   5.802   5.953
    1   AR   Ar   62   0.512   5.996   5.395
    1   AR   Ar   63   1.397   5.309   5.716
    1   AR   Ar   64   1.073   0.087   5.052
    1   AR   Ar   65   2.328   6.614   0.318
    1   AR   Ar   66   1.774   0.893   1.344
    1   AR   Ar   67   3.507   6.263  -0.044
    1   AR   Ar   68   4.198   0.977   0.200
    1   AR   Ar   69   1.840   7.008   1.219
    1   AR   Ar   70   1.741   0.094   2.429
    1   AR   Ar   71   2.716   0.102   2.094
    1   AR   Ar   72   3.008   0.864   0.996
    1   AR   Ar   73   2.077   6.819   3.704
    1   AR   Ar   74   1.857   1.307   4.310
    1   AR   Ar   75   2.835   0.682   4.804
    1   AR   Ar   76   2.249   0.752   3.168
    1   AR   Ar   77   2.046   0.380   5.681
    1   AR   Ar   78   1.086   0.472   6.609
    1   AR   Ar   79   3.210   6.283   6.900
    1   AR   Ar   80   2.874   6.888   5.465
    1   AR   Ar   81   1.798   1.617   0.483
    1   AR   Ar   82   1.837   3.071   0.335
    1   AR   Ar   83   2.725   1.803   1.771
    1   AR   Ar   84   2.165   2.901  -0.989
    1   AR   Ar   85   1.552   2.085   1.430
    1   AR   Ar   86   2.153   2.491   2.287
    1   AR   Ar   87   1.983   1.380   2.402
    1   AR   Ar   88   3.410   3.743   1.436
    1   AR   Ar   89   0.960   1.588   2.072
    1   AR   Ar   90   3.154   2.266   4.948
    1   AR   Ar   91   2.578   2.125   4.019
    1   AR   Ar   92   1.858   1.919   3.296
    1   AR   Ar   93   1.335   1.723   6.246
    1   AR   Ar   94   2.722   1.657   8.001
    1   AR   Ar   95   2.517   0.596   7.051
    1   AR   Ar   96   2.304   2.133   6.483
    1   AR   Ar   97   2.748   3.853  -1.665
    1   AR   Ar   98   2.953   4.655   1.693
    1   AR   Ar   99   3.313   2.979  -1.437
    1   AR   Ar  100   2.232   5.174  -0.075
    1   AR   Ar  101   1.298   2.997   2.005
    1   AR   Ar  102   1.759   4.172   3.672
    1   AR   Ar  103   2.382   3.665   2.144
    1   AR   Ar  104   3.326   3.625   0.193
    1   AR   Ar  105   1.913   2.881   3.773
    1   AR   Ar  106   2.680   3.329   4.895
    1   AR   Ar  107   2.708   4.150   5.403
    1   AR   Ar  108   3.317   3.477   3.710
    1   AR   Ar  109   0.885   3.947   4.756
    1   AR   Ar  110   1.757   4.551   5.259
    1   AR   Ar  111   4.042   5.375   7.244
    1   AR   Ar  112   2.471   3.119   6.217
    1   AR   Ar  113   2.290   4.415   0.747
    1   AR   Ar  114   1.921   5.669   0.879
    1   AR   Ar  115   3.143   5.293   0.455
    1   AR   Ar  116   3.515   0.019   0.486
    1   AR   Ar  117   1.659   5.079   2.867
    1   AR   Ar  118   1.189   6.256   2.778
    1   AR   Ar  119   2.589   4.389   2.883
    1   AR   Ar  120   2.159   5.256   1.843
    1   AR   Ar  121   0.679   4.724   3.961
    1   AR   Ar  122   2.836   6.294   4.143
    1   AR   Ar  123   2.089   5.274   4.402
    1   AR   Ar  124   2.453   5.876   2.889
    1   AR   Ar  125   1.029   5.293   4.719
    1   AR   Ar  126   1.044   6.571   6.251
    1   AR   Ar  127   2.576   5.520   7.780
    1   AR   Ar  128   2.250   6.202   6.117
    1   AR   Ar  129   2.974   6.543   1.076
    1   AR   Ar  130   3.394   6.914  -0.937
    1   AR   Ar  131   4.963   6.640   0.539
    1   AR   Ar  132   5.703   2.149  -0.635
    1   AR   Ar  133   3.787   6.953   2.686
    1   AR   Ar  134   3.409   0.891   2.820
    1   AR   Ar  135   4.904   0.314   2.908
    1   AR   Ar  136   4.272   0.551   1.897
    1   AR   Ar  137   2.870   0.241   3.743
    1   AR   Ar  138   4.912   0.948   4.668
    1   AR   Ar  139   4.806   0.217   4.023
    1   AR   Ar  140   4.170   1.404   3.471
    1   AR   Ar  141   3.673   7.065   4.596
    1   AR   Ar  142   3.882   6.863   5.712
    1   AR   Ar  143   5.435   0.214   6.614
    1   AR   Ar  144   5.295   1.393   7.112
    1   AR   Ar  145   2.759   2.504   0.386
    1   AR   Ar  146   4.263   2.686   0.838
    1   AR   Ar  147   4.928   1.838   0.863
    1   AR   Ar  148   6.042   3.186  -0.811
    1   AR   Ar  149   3.882   1.719   1.152
    1   AR   Ar  150   2.865   1.774   2.956
    1   AR   Ar  151   3.518   2.206   3.656
    1   AR   Ar  152   3.401   2.656   1.581
    1   AR   Ar  153   3.194   1.252   3.781
    1   AR   Ar  154   4.208   1.753   4.728
    1   AR   Ar  155   5.381   1.383   5.873
    1   AR   Ar  156   4.687   3.725   4.094
    1   AR   Ar  157   4.087   1.994   5.671
    1   AR   Ar  158   3.390   2.399   6.704
    1   AR   Ar  159   4.362   0.999   6.210
    1   AR   Ar  160   4.528   2.925   5.367
    1   AR   Ar  161   4.654   2.341   0.013
    1   AR   Ar  162   4.682   5.253   0.847
    1   AR   Ar  163   5.566   3.227   0.412
    1   AR   Ar  164   5.732   4.878   0.906
    1   AR   Ar  165   3.255   3.528   2.641
    1   AR   Ar  166   3.634   4.777   3.575
    1   AR   Ar  167   4.169   2.827   3.368
    1   AR   Ar  168   4.378   3.835   1.112
    1   AR   Ar  169   2.636   2.779   3.063
    1   AR   Ar  170   2.983   4.175   4.401
    1   AR   Ar  171   3.764   3.617   4.753
    1   AR   Ar  172   4.566   4.727   4.213
    1   AR   Ar  173   3.399   3.201   5.706
    1   AR   Ar  174   4.290   5.418   6.132
    1   AR   Ar  175   3.767   4.124   6.060
    1   AR   Ar  176   3.642   4.647   5.133
    1   AR   Ar  177   5.648   5.798   0.439
    1   AR   Ar  178   4.101   6.563   1.228
    1   AR   Ar  179   4.023   5.410   1.596
    1   AR   Ar  180   4.503   5.689  -0.106
    1   AR   Ar  181   3.039   5.791   1.884
    1   AR   Ar  182   2.196   6.401   1.857
    1   AR   Ar  183   3.712   4.603   2.559
    1   AR   Ar  184   3.995   5.976   2.351
    1   AR   Ar  185   1.634   5.745   3.700
    1   AR   Ar  186   3.866   5.597   4.131
    1   AR   Ar  187   4.471   5.430   3.316
    1   AR   Ar  188   3.518   6.121   3.270
    1   AR   Ar  189   2.640   4.995   5.875
    1   AR   Ar  190   4.528   6.415   6.565
    1   AR   Ar  191   4.471   5.361   4.999
    1   AR   Ar  192   3.493   6.074   5.045
    1   AR   Ar  193   5.866   0.021   0.070
    1   AR   Ar  194   4.350   6.934  -0.160
    1   AR   Ar  195   5.972   0.999   0.844
    1   AR   Ar  196   6.084   1.122  -0.685
    1   AR   Ar  197   5.081   0.429   1.053
    1   AR   Ar  198   5.171   1.479   1.814
    1   AR   Ar  199   5.693   0.511   1.974
    1   AR   Ar  200   6.948   1.713   1.391
    1   AR   Ar  201   4.821   6.341   2.981
    1   AR   Ar  202   5.514   1.165   3.845
    1   AR   Ar  203   6.908   6.891   4.596
    1   AR   Ar  204   5.940   0.396   2.975
    1   AR   Ar  205   5.564   6.717   3.708
    1   AR   Ar  206   4.764   6.667   5.138
    1   AR   Ar  207   0.114   7.034   5.785
    1   AR   Ar  208   6.334   0.627   4.223
    1   AR   Ar  209   6.589   1.776  -1.416
    1   AR   Ar  210   5.213   2.634   1.455
    1   AR   Ar  211   5.997   2.159   0.561
    1   AR   Ar  212   6.949   3.691  -0.649
    1   AR   Ar  213   4.444   2.306   2.324
    1   AR   Ar  214   4.381   3.421   2.077
    1   AR   Ar  215   5.786   2.347   2.634
    1   AR   Ar  216   6.408   2.572   1.682
    1   AR   Ar  217   5.028   2.479   3.859
    1   AR   Ar  218   5.741   1.786   4.835
    1   AR   Ar  219   5.282   1.268   2.828
    1   AR   Ar  220   6.368   3.222   3.311
    1   AR   Ar  221   5.765   0.728   5.149
    1   AR   Ar  222   4.769   2.201   6.415
    1   AR   Ar  223   6.838   1.835   7.355
    1   AR   Ar  224   5.831   2.598   5.771
    1   AR   Ar  225   4.985   4.251   0.161
    1   AR   Ar  226   4.835   4.664   1.793
    1   AR   Ar  227   7.028   3.856   1.893
    1   AR   Ar  228   6.683   4.973   0.537
    1   AR   Ar  229   6.318   3.670   1.115
    1   AR   Ar  230   4.183   3.943   3.118
    1   AR   Ar  231   0.149   2.785   3.682
    1   AR   Ar  232   5.390   3.569   1.549
    1   AR   Ar  233   6.244   2.488   4.134
    1   AR   Ar  234   5.683   4.045   5.070
    1   AR   Ar  235   6.704   3.765   4.520
    1   AR   Ar  236   5.831   3.736   3.870
    1   AR   Ar  237   5.431   3.132   4.648
    1   AR   Ar  238   4.785   4.646   5.578
    1   AR   Ar  239   5.857   4.060   7.488
    1   AR   Ar  240   6.515   3.731   5.780
    1   AR   Ar  241   6.840   0.259  -0.051
    1   AR   Ar  242   5.235   6.242   1.407
    1   AR   Ar  243   5.895   4.708   2.045
    1   AR   Ar  244   6.651   5.922  -0.004
    1   AR   Ar  245   5.322   5.543   2.268
    1   AR   Ar  246   5.830   6.479   2.624
    1   AR   Ar  247   5.557   3.509   2.791
    1   AR   Ar  248   6.029   6.762   1.003
    1   AR   Ar  249   5.619   4.570   3.320
    1   AR   Ar  250   4.553   6.268   4.090
    1   AR   Ar  251   5.277   5.492   4.227
    1   AR   Ar  252   5.974   5.607   3.425
    1   AR   Ar  253   5.770   5.153   5.412
    1   AR   Ar  254   5.479   5.854   6.453
    1   AR   Ar  255   5.742   4.371   6.156
    1   AR   Ar  256   6.002   6.138   4.861
    7.12000  7.12000 12.00000
Argon-slab step 875
  256
    1   AR   Ar    1   0.696   0.589  -0.488
    1   AR   Ar    2   6.982   0.406   1.145
    1   AR   Ar    3   0.341   6.696   0.202
    1   AR   Ar    4   1.428   0.404   0.383
    1   AR   Ar    5   7.032   6.522   1.136
    1   AR   Ar    6   0.254   0.188   2.702
    1   AR   Ar    7   7.118   6.370   2.217
    1   AR   Ar    8   0.777   6.987   1.792
    1   AR   Ar    9   0.490   0.798   4.299
    1   AR   Ar   10   6.936   1.683   4.285
    1   AR   Ar   11   2.068   7.094   4.747
    1   AR   Ar   12   1.298   0.766   3.490
    1   AR   Ar   13   7.000   0.754   5.157
    1   AR   Ar   14   0.296   1.192   6.061
    1   AR   Ar   15   0.901   6.236   7.539
    1   AR   Ar   16   1.317   1.012   5.391
    1   AR   Ar   17   6.826   1.553   0.168
    1   AR   Ar   18   6.835   2.928   0.347
    1   AR   Ar   19   0.750   1.296   0.962
    1   AR   Ar   20   0.310   3.128  -1.379
    1   AR   Ar   21   6.596   0.199   2.040
    1   AR   Ar   22   6.922   2.399   2.718
    1   AR   Ar   23   7.055   1.131   2.441
    1   AR   Ar   24   0.363   2.677   1.696
    1   AR   Ar   25   0.400   1.472   3.359
    1   AR   Ar   26   6.306   1.771   3.372
    1   AR   Ar   27   1.102   2.009   5.131
    1   AR   Ar   28   0.464   3.016   4.644
    1   AR   Ar   29   6.434   1.633   5.665
    1   AR   Ar   30   6.736   2.729   6.497
    1   AR   Ar   31   0.726   1.318   7.260
    1   AR   Ar   32   1.790   2.842   5.306
    1   AR   Ar   33   1.166   3.653  -0.680
    1   AR   Ar   34   0.502   4.598   1.272
    1   AR   Ar   35   0.422   3.699   0.676
    1   AR   Ar   36   1.738   6.587  -0.937
    1   AR   Ar   37   0.382   3.284   2.690
    1   AR   Ar   38   0.620   4.717   2.356
    1   AR   Ar   39   1.238   3.888   2.789
    1   AR   Ar   40   1.462   4.361   1.814
    1   AR   Ar   41   1.022   2.420   3.049
    1   AR   Ar   42   6.747   5.173   4.880
    1   AR   Ar   43   6.887   2.405   5.189
    1   AR   Ar   44   0.627   3.689   3.653
    1   AR   Ar   45   0.772   3.930   5.863
    1   AR   Ar   46   6.762   4.467   6.465
    1   AR   Ar   47   0.263   3.541   6.680
    1   AR   Ar   48   0.353   5.211   6.165
    1   AR   Ar   49   0.611   4.912  -0.805
    1   AR   Ar   50   6.263   5.590   1.588
    1   AR   Ar   51   1.352   4.532   0.479
    1   AR   Ar   52   0.647   5.415   0.463
    1   AR   Ar   53   6.545   5.516   2.514
    1   AR   Ar   54   6.682   6.547   3.309
    1   AR   Ar   55   0.708   5.577   3.269
    1   AR   Ar   56   1.120   5.801   1.558
    1   AR   Ar   57   6.419   4.254   2.696
    1   AR   Ar   58   0.100   5.874   4.206
    1   AR   Ar   59   1.829   6.110   4.979
    1   AR   Ar   60   0.682   6.864   4.116
    1   AR   Ar   61   6.585   5.804   5.951
    1   AR   Ar   62   0.521   5.997   5.391
    1   AR   Ar   63   1.381   5.302   5.734
    1   AR   Ar   64   1.094   0.070   5.050
    1   AR   Ar   65   2.349   6.632   0.359
    1   AR   Ar   66   1.791   0.898   1.353
    1   AR   Ar   67   3.507   6.246  -0.010
    1   AR   Ar   68   4.182   0.973   0.175
    1   AR   Ar   69   1.797   7.016   1.201
    1   AR   Ar   70   1.748   0.094   2.417
    1   AR   Ar   71   2.721   0.124   2.074
    1   AR   Ar   72   3.012   0.866   0.991
    1   AR   Ar   73   2.068   6.809   3.707
    1   AR   Ar   74   1.877   1.303   4.342
    1   AR   Ar   75   2.822   0.695   4.785
    1   AR   Ar   76   2.273   0.739   3.160
    1   AR   Ar   77   2.038   0.369   5.698
    1   AR   Ar   78   1.080   0.473   6.619
    1   AR   Ar   79   3.231   6.276   6.896
    1   AR   Ar   80   2.871   6.871   5.456
    1   AR   Ar   81   1.802   1.621   0.481
    1   AR   Ar   82   1.847   3.051   0.356
    1   AR   Ar   83   2.746   1.788   1.754
    1   AR   Ar   84   2.180   2.900  -1.017
    1   AR   Ar   85   1.562   2.091   1.444
    1   AR   Ar   86   2.133   2.457   2.279
    1   AR   Ar   87   1.994   1.385   2.405
    1   AR   Ar   88   3.428   3.768   1.411
    1   AR   Ar   89   0.953   1.600   2.056
    1   AR   Ar   90   3.156   2.255   4.951
    1   AR   Ar   91   2.570   2.155   3.978
    1   AR   Ar   92   1.860   1.935   3.296
    1   AR   Ar   93   1.330   1.688   6.225
    1   AR   Ar   94   2.721   1.660   8.031
    1   AR   Ar   95   2.537   0.575   7.030
    1   AR   Ar   96   2.295   2.133   6.503
    1   AR   Ar   97   2.784   3.874  -1.673
    1   AR   Ar   98   2.967   4.680   1.675
    1   AR   Ar   99   3.297   2.987  -1.417
    1   AR   Ar  100   2.235   5.178  -0.088
    1   AR   Ar  101   1.271   2.992   1.998
    1   AR   Ar  102   1.762   4.224   3.704
    1   AR   Ar  103   2.389   3.631   2.128
    1   AR   Ar  104   3.344   3.608   0.178
    1   AR   Ar  105   1.911   2.856   3.780
    1   AR   Ar  106   2.710   3.348   4.886
    1   AR   Ar  107   2.699   4.137   5.412
    1   AR   Ar  108   3.346   3.475   3.704
    1   AR   Ar  109   0.896   3.934   4.730
    1   AR   Ar  110   1.783   4.538   5.200
    1   AR   Ar  111   4.057   5.360   7.252
    1   AR   Ar  112   2.477   3.125   6.186
    1   AR   Ar  113   2.312   4.392   0.739
    1   AR   Ar  114   1.958   5.687   0.871
    1   AR   Ar  115   3.131   5.320   0.467
    1   AR   Ar  116   3.523   0.013   0.498
    1   AR   Ar  117   1.679   5.068   2.853
    1   AR   Ar  118   1.178   6.290   2.772
    1   AR   Ar  119   2.580   4.392   2.872
    1   AR   Ar  120   2.164   5.266   1.855
    1   AR   Ar  121   0.650   4.728   3.984
    1   AR   Ar  122   2.867   6.282   4.138
    1   AR   Ar  123   2.100   5.258   4.398
    1   AR   Ar  124   2.453   5.851   2.898
    1   AR   Ar  125   1.017   5.306   4.736
    1   AR   Ar  126   1.035   6.531   6.241
    1   AR   Ar  127   2.589   5.499   7.759
    1   AR   Ar  128   2.233   6.207   6.132
    1   AR   Ar  129   2.992   6.553   1.072
    1   AR   Ar  130   3.399   6.902  -0.941
    1   AR   Ar  131   4.955   6.634   0.545
    1   AR   Ar  132   5.719   2.177  -0.625
    1   AR   Ar  133   3.797   6.955   2.665
    1   AR   Ar  134   3.434   0.858   2.826
    1   AR   Ar  135   4.924   0.319   2.917
    1   AR   Ar  136   4.287   0.568   1.873
    1   AR   Ar  137   2.855   0.276   3.766
    1   AR   Ar  138   4.945   0.948   4.650
    1   AR   Ar  139   4.819   0.220   4.023
    1   AR   Ar  140   4.160   1.435   3.489
    1   AR   Ar  141   3.682   7.066   4.600
    1   AR   Ar  142   3.853   6.866   5.737
    1   AR   Ar  143   5.449   0.234   6.636
    1   AR   Ar  144   5.271   1.418   7.097
    1   AR   Ar  145   2.780   2.526   0.409
    1   AR   Ar  146   4.213   2.734   0.857
    1   AR   Ar  147   4.936   1.855   0.849
    1   AR   Ar  148   6.019   3.162  -0.852
    1   AR   Ar  149   3.890   1.733   1.140
    1   AR   Ar  150   2.890   1.765   2.939
    1   AR   Ar  151   3.517   2.220   3.666
    1   AR   Ar  152   3.392   2.647   1.575
    1   AR   Ar  153   3.176   1.273   3.767
    1   AR   Ar  154   4.218   1.736   4.737
    1   AR   Ar  155   5.386   1.384   5.898
    1   AR   Ar  156   4.653   3.706   4.072
    1   AR   Ar  157   4.107   1.997   5.706
    1   AR   Ar  158   3.379   2.401   6.676
    1   AR   Ar  159   4.383   1.003   6.202
    1   AR   Ar  160   4.522   2.919   5.388
    1   AR   Ar  161   4.675   2.346   0.012
    1   AR   Ar  162   4.690   5.260   0.832
    1   AR   Ar  163   5.552   3.228   0.429
    1   AR   Ar  164   5.732   4.862   0.925
    1   AR   Ar  165   3.279   3.541   2.620
    1   AR   Ar  166   3.664   4.805   3.577
    1   AR   Ar  167   4.175   2.836   3.332
    1   AR   Ar  168   4.384   3.842   1.130
    1   AR   Ar  169   2.623   2.775   3.060
    1   AR   Ar  170   2.973   4.190   4.387
    1   AR   Ar  171   3.769   3.611   4.788
    1   AR   Ar  172   4.594   4.697   4.218
    1   AR   Ar  173   3.376   3.240   5.688
    1   AR   Ar  174   4.289   5.436   6.103
    1   AR   Ar  175   3.764   4.111   6.055
    1   AR   Ar  176   3.646   4.631   5.139
    1   AR   Ar  177   5.642   5.767   0.430
    1   AR   Ar  178   4.111   6.553   1.232
    1   AR   Ar  179   4.027   5.414   1.592
    1   AR   Ar  180   4.486   5.650  -0.142
    1   AR   Ar  181   3.060   5.783   1.881
    1   AR   Ar  182   2.216   6.350   1.854
    1   AR   Ar  183   3.700   4.610   2.522
    1   AR   Ar  184   3.980   5.991   2.367
    1   AR   Ar  185   1.627   5.747   3.744
    1   AR   Ar  186   3.858   5.591   4.168
    1   AR   Ar  187   4.476   5.448   3.300
    1   AR   Ar  188   3.539   6.134   3.263
    1   AR   Ar  189   2.635   4.983   5.871
    1   AR   Ar  190   4.553   6.414   6.539
    1   AR   Ar  191   4.471   5.385   5.029
    1   AR   Ar  192   3.479   6.063   5.073
    1   AR   Ar  193   5.832   0.027   0.071
    1   AR   Ar  194   4.361   6.958  -0.144
    1   AR   Ar  195   5.973   0.990   0.839
    1   AR   Ar  196   6.099   1.127  -0.697
    1   AR   Ar  197   5.102   0.405   1.040
    1   AR   Ar  198   5.138   1.461   1.764
    1   AR   Ar  199   5.642   0.475   1.964
    1   AR   Ar  200   6.968   1.692   1.356
    1   AR   Ar  201   4.808   6.328   2.978
    1   AR   Ar  202   5.469   1.188   3.835
    1   AR   Ar  203   6.911   6.896   4.590
    1   AR   Ar  204   5.943   0.397   2.948
    1   AR   Ar  205   5.574   6.658   3.707
    1   AR   Ar  206   4.763   6.681   5.190
    1   AR   Ar  207   0.117   7.074   5.784
    1   AR   Ar  208   6.331   0.614   4.217
    1   AR   Ar  209   6.599   1.788  -1.423
    1   AR   Ar  210   5.206   2.632   1.458
    1   AR   Ar  211   5.984   2.174   0.547
    1   AR   Ar  212   6.963   3.699  -0.631
    1   AR   Ar  213   4.419   2.297   2.311
    1   AR   Ar  214   4.345   3.406   2.088
    1   AR   Ar  215   5.761   2.370   2.640
    1   AR   Ar  216   6.368   2.591   1.685
    1   AR   Ar  217   5.039   2.467   3.858
    1   AR   Ar  218   5.733   1.790   4.802
    1   AR   Ar  219   5.276   1.247   2.825
    1   AR   Ar  220   6.371   3.222   3.303
    1   AR   Ar  221   5.770   0.694   5.140
    1   AR   Ar  222   4.792   2.188   6.417
    1   AR   Ar  223   6.842   1.818   7.373
    1   AR   Ar  224   5.826   2.596   5.785
    1   AR   Ar  225   4.996   4.275   0.158
    1   AR   Ar  226   4.819   4.666   1.808
    1   AR   Ar  227   7.007   3.858   1.925
    1   AR   Ar  228   6.674   4.976   0.543
    1   AR   Ar  229   6.322   3.663   1.109
    1   AR   Ar  230   4.222   3.973   3.118
    1   AR   Ar  231   0.133   2.782   3.688
    1   AR   Ar  232   5.396   3.595   1.560
    1   AR   Ar  233   6.218   2.493   4.163
    1   AR   Ar  234   5.724   4.026   5.077
    1   AR   Ar  235   6.698   3.774   4.533
    1   AR   Ar  236   5.849   3.746   3.894
    1   AR   Ar  237   5.397   3.109   4.664
    1   AR   Ar  238   4.782   4.631   5.530
    1   AR   Ar  239   5.828   4.065   7.471
    1   AR   Ar  240   6.518   3.729   5.810
    1   AR   Ar  241   6.825   0.241  -0.063
    1   AR   Ar  242   5.241   6.243   1.418
    1   AR   Ar  243   5.874   4.709   2.060
    1   AR   Ar  244   6.678   5.925  -0.016
    1   AR   Ar  245   5.332   5.556   2.280
    1   AR   Ar  246   5.824   6.471   2.580
    1   AR   Ar  247   5.584   3.536   2.755
    1   AR   Ar  248   6.027   6.769   0.983
    1   AR   Ar  249   5.635   4.561   3.301
    1   AR   Ar  250   4.555   6.293   4.076
    1   AR   Ar  251   5.279   5.493   4.221
    1   AR   Ar  252   5.926   5.603   3.425
    1   AR   Ar  253   5.808   5.167   5.412
    1   AR   Ar  254   5.482   5.858   6.456
    1   AR   Ar  255   5.690   4.363   6.186
    1   AR   Ar  256   6.025   6.121   4.858
    7.12000  7.12000 12.00000
Argon-slab step 880
  256
    1   AR   Ar    1   0.700   0.593  -0.487
    1   AR   Ar    2   6.987   0.391   1.110
    1   AR   Ar    3   0.309   6.687   0.177
    1   AR   Ar    4   1.442   0.398   0.360
    1   AR   Ar    5   7.013   6.495   1.118
    1   AR   Ar    6   0.219   0.185   2.744
    1   AR   Ar    7   7.093   6.356   2.212
    1   AR   Ar    8   0.791   6.983   1.793
    1   AR   Ar    9   0.492   0.800   4.315
    1   AR   Ar   10   6.918   1.695   4.268
    1   AR   Ar   11   2.093   7.110   4.772
    1   AR   Ar   12   1.279   0.800   3.501
    1   AR   Ar   13   7.023   0.767   5.162
    1   AR   Ar   14   0.288   1.184   6.068
    1   AR   Ar   15   0.873   6.225   7.595
    1   AR   Ar   16   1.294   1.024   5.401
    1   AR   Ar   17   6.822   1.562   0.171
    1   AR   Ar   18   6.863   2.928   0.334
    1   AR   Ar   19   0.748   1.311   0.958
    1   AR   Ar   20   0.335   3.130  -1.432
    1   AR   Ar   21   6.603   0.167   2.075
    1   AR   Ar   22   6.912   2.442   2.745
    1   AR   Ar   23   7.058   1.144   2.434
    1   AR   Ar   24   0.349   2.682   1.735
    1   AR   Ar   25   0.395   1.459   3.343
    1   AR   Ar   26   6.316   1.772   3.390
    1   AR   Ar   27   1.112   1.986   5.136
    1   AR   Ar   28   0.439   3.031   4.700
    1   AR   Ar   29   6.442   1.643   5.704
    1   AR   Ar   30   6.734   2.770   6.526
    1   AR   Ar   31   0.708   1.302   7.243
    1   AR   Ar   32   1.788   2.819   5.288
    1   AR   Ar   33   1.169   3.661  -0.721
    1   AR   Ar   34   0.501   4.597   1.272
    1   AR   Ar   35   0.409   3.692   0.656
    1   AR   Ar   36   1.731   6.601  -0.944
    1   AR   Ar   37   0.363   3.269   2.694
    1   AR   Ar   38   0.662   4.701   2.358
    1   AR   Ar   39   1.224   3.882   2.815
    1   AR   Ar   40   1.451   4.350   1.819
    1   AR   Ar   41   1.012   2.408   3.033
    1   AR   Ar   42   6.752   5.178   4.910
    1   AR   Ar   43   6.912   2.409   5.186
    1   AR   Ar   44   0.600   3.690   3.653
    1   AR   Ar   45   0.767   3.912   5.847
    1   AR   Ar   46   6.769   4.462   6.472
    1   AR   Ar   47   0.226   3.549   6.686
    1   AR   Ar   48   0.318   5.242   6.153
    1   AR   Ar   49   0.607   4.957  -0.812
    1   AR   Ar   50   6.280   5.601   1.606
    1   AR   Ar   51   1.344   4.554   0.449
    1   AR   Ar   52   0.637   5.438   0.497
    1   AR   Ar   53   6.564   5.523   2.515
    1   AR   Ar   54   6.660   6.539   3.330
    1   AR   Ar   55   0.692   5.568   3.270
    1   AR   Ar   56   1.127   5.799   1.587
    1   AR   Ar   57   6.414   4.238   2.694
    1   AR   Ar   58   0.092   5.900   4.179
    1   AR   Ar   59   1.811   6.147   4.996
    1   AR   Ar   60   0.649   6.874   4.108
    1   AR   Ar   61   6.567   5.806   5.947
    1   AR   Ar   62   0.504   6.001   5.400
    1   AR   Ar   63   1.367   5.305   5.743
    1   AR   Ar   64   1.108   0.049   5.050
    1   AR   Ar   65   2.359   6.651   0.386
    1   AR   Ar   66   1.808   0.911   1.364
    1   AR   Ar   67   3.507   6.225   0.022
    1   AR   Ar   68   4.161   0.933   0.145
    1   AR   Ar   69   1.752   7.018   1.184
    1   AR   Ar   70   1.749   0.094   2.407
    1   AR   Ar   71   2.732   0.149   2.053
    1   AR   Ar   72   3.015   0.868   0.987
    1   AR   Ar   73   2.045   6.793   3.705
    1   AR   Ar   74   1.897   1.298   4.372
    1   AR   Ar   75   2.812   0.711   4.765
    1   AR   Ar   76   2.293   0.733   3.143
    1   AR   Ar   77   2.033   0.356   5.722
    1   AR   Ar   78   1.075   0.474   6.627
    1   AR   Ar   79   3.242   6.288   6.890
    1   AR   Ar   80   2.875   6.871   5.467
    1   AR   Ar   81   1.806   1.624   0.479
    1   AR   Ar   82   1.854   3.032   0.377
    1   AR   Ar   83   2.762   1.773   1.738
    1   AR   Ar   84   2.197   2.899  -1.045
    1   AR   Ar   85   1.578   2.099   1.451
    1   AR   Ar   86   2.107   2.421   2.264
    1   AR   Ar   87   2.002   1.390   2.403
    1   AR   Ar   88   3.438   3.789   1.389
    1   AR   Ar   89   0.939   1.608   2.047
    1   AR   Ar   90   3.133   2.236   4.954
    1   AR   Ar   91   2.568   2.177   3.949
    1   AR   Ar   92   1.864   1.942   3.294
    1   AR   Ar   93   1.334   1.689   6.209
    1   AR   Ar   94   2.719   1.663   8.060
    1   AR   Ar   95   2.556   0.554   7.008
    1   AR   Ar   96   2.286   2.131   6.525
    1   AR   Ar   97   2.784   3.883  -1.639
    1   AR   Ar   98   2.985   4.703   1.656
    1   AR   Ar   99   3.281   2.993  -1.394
    1   AR   Ar  100   2.236   5.182  -0.101
    1   AR   Ar  101   1.248   2.993   1.994
    1   AR   Ar  102   1.750   4.228   3.700
    1   AR   Ar  103   2.389   3.598   2.108
    1   AR   Ar  104   3.361   3.591   0.166
    1   AR   Ar  105   1.895   2.846   3.791
    1   AR   Ar  106   2.736   3.340   4.865
    1   AR   Ar  107   2.696   4.123   5.429
    1   AR   Ar  108   3.337   3.471   3.698
    1   AR   Ar  109   0.911   3.928   4.705
    1   AR   Ar  110   1.806   4.520   5.135
    1   AR   Ar  111   4.072   5.346   7.257
    1   AR   Ar  112   2.480   3.133   6.155
    1   AR   Ar  113   2.344   4.369   0.735
    1   AR   Ar  114   1.998   5.705   0.862
    1   AR   Ar  115   3.120   5.347   0.482
    1   AR   Ar  116   3.538   0.021   0.504
    1   AR   Ar  117   1.697   5.054   2.838
    1   AR   Ar  118   1.174   6.332   2.758
    1   AR   Ar  119   2.572   4.396   2.862
    1   AR   Ar  120   2.159   5.277   1.870
    1   AR   Ar  121   0.619   4.730   4.002
    1   AR   Ar  122   2.901   6.269   4.135
    1   AR   Ar  123   2.124   5.227   4.409
    1   AR   Ar  124   2.453   5.827   2.906
    1   AR   Ar  125   1.008   5.322   4.754
    1   AR   Ar  126   1.026   6.490   6.230
    1   AR   Ar  127   2.603   5.479   7.737
    1   AR   Ar  128   2.203   6.204   6.148
    1   AR   Ar  129   3.012   6.553   1.090
    1   AR   Ar  130   3.406   6.889  -0.942
    1   AR   Ar  131   4.953   6.621   0.553
    1   AR   Ar  132   5.727   2.201  -0.617
    1   AR   Ar  133   3.808   6.965   2.643
    1   AR   Ar  134   3.459   0.823   2.828
    1   AR   Ar  135   4.935   0.314   2.925
    1   AR   Ar  136   4.303   0.584   1.853
    1   AR   Ar  137   2.862   0.305   3.801
    1   AR   Ar  138   4.967   0.959   4.647
    1   AR   Ar  139   4.827   0.213   4.013
    1   AR   Ar  140   4.159   1.462   3.504
    1   AR   Ar  141   3.695   7.073   4.584
    1   AR   Ar  142   3.830   6.869   5.766
    1   AR   Ar  143   5.463   0.253   6.656
    1   AR   Ar  144   5.242   1.442   7.078
    1   AR   Ar  145   2.802   2.547   0.434
    1   AR   Ar  146   4.163   2.786   0.881
    1   AR   Ar  147   4.946   1.865   0.832
    1   AR   Ar  148   5.995   3.140  -0.893
    1   AR   Ar  149   3.896   1.744   1.129
    1   AR   Ar  150   2.912   1.757   2.913
    1   AR   Ar  151   3.512   2.235   3.681
    1   AR   Ar  152   3.384   2.641   1.571
    1   AR   Ar  153   3.153   1.285   3.765
    1   AR   Ar  154   4.228   1.720   4.735
    1   AR   Ar  155   5.390   1.386   5.923
    1   AR   Ar  156   4.619   3.677   4.050
    1   AR   Ar  157   4.094   1.987   5.719
    1   AR   Ar  158   3.368   2.404   6.645
    1   AR   Ar  159   4.404   1.009   6.194
    1   AR   Ar  160   4.517   2.914   5.408
    1   AR   Ar  161   4.698   2.353  -0.000
    1   AR   Ar  162   4.703   5.267   0.814
    1   AR   Ar  163   5.537   3.229   0.448
    1   AR   Ar  164   5.735   4.830   0.933
    1   AR   Ar  165   3.311   3.554   2.600
    1   AR   Ar  166   3.690   4.826   3.578
    1   AR   Ar  167   4.193   2.858   3.287
    1   AR   Ar  168   4.401   3.852   1.143
    1   AR   Ar  169   2.621   2.778   3.065
    1   AR   Ar  170   2.974   4.207   4.391
    1   AR   Ar  171   3.778   3.605   4.821
    1   AR   Ar  172   4.620   4.672   4.222
    1   AR   Ar  173   3.392   3.252   5.676
    1   AR   Ar  174   4.288   5.455   6.074
    1   AR   Ar  175   3.763   4.100   6.027
    1   AR   Ar  176   3.652   4.619   5.142
    1   AR   Ar  177   5.636   5.741   0.420
    1   AR   Ar  178   4.121   6.542   1.238
    1   AR   Ar  179   4.028   5.408   1.579
    1   AR   Ar  180   4.468   5.614  -0.178
    1   AR   Ar  181   3.081   5.782   1.828
    1   AR   Ar  182   2.230   6.294   1.854
    1   AR   Ar  183   3.684   4.621   2.477
    1   AR   Ar  184   3.971   6.009   2.388
    1   AR   Ar  185   1.612   5.764   3.774
    1   AR   Ar  186   3.842   5.584   4.212
    1   AR   Ar  187   4.482   5.457   3.285
    1   AR   Ar  188   3.556   6.145   3.265
    1   AR   Ar  189   2.631   4.990   5.862
    1   AR   Ar  190   4.577   6.414   6.512
    1   AR   Ar  191   4.466   5.426   5.049
    1   AR   Ar  192   3.466   6.050   5.100
    1   AR   Ar  193   5.791   0.036   0.067
    1   AR   Ar  194   4.362   6.986  -0.140
    1   AR   Ar  195   5.978   0.983   0.834
    1   AR   Ar  196   6.132   1.110  -0.690
    1   AR   Ar  197   5.120   0.383   1.028
    1   AR   Ar  198   5.106   1.441   1.719
    1   AR   Ar  199   5.580   0.442   1.950
    1   AR   Ar  200   6.986   1.671   1.322
    1   AR   Ar  201   4.798   6.325   2.972
    1   AR   Ar  202   5.444   1.183   3.866
    1   AR   Ar  203   6.908   6.901   4.589
    1   AR   Ar  204   5.955   0.397   2.927
    1   AR   Ar  205   5.587   6.597   3.705
    1   AR   Ar  206   4.762   6.694   5.240
    1   AR   Ar  207   0.122   7.111   5.785
    1   AR   Ar  208   6.330   0.603   4.208
    1   AR   Ar  209   6.610   1.801  -1.429
    1   AR   Ar  210   5.198   2.623   1.463
    1   AR   Ar  211   5.969   2.185   0.541
    1   AR   Ar  212   6.965   3.668  -0.625
    1   AR   Ar  213   4.396   2.288   2.297
    1   AR   Ar  214   4.310   3.389   2.101
    1   AR   Ar  215   5.735   2.394   2.645
    1   AR   Ar  216   6.340   2.620   1.695
    1   AR   Ar  217   5.052   2.453   3.858
    1   AR   Ar  218   5.725   1.792   4.769
    1   AR   Ar  219   5.273   1.238   2.818
    1   AR   Ar  220   6.391   3.207   3.282
    1   AR   Ar  221   5.785   0.658   5.135
    1   AR   Ar  222   4.820   2.177   6.423
    1   AR   Ar  223   6.845   1.801   7.389
    1   AR   Ar  224   5.820   2.593   5.797
    1   AR   Ar  225   5.008   4.300   0.157
    1   AR   Ar  226   4.802   4.667   1.823
    1   AR   Ar  227   6.990   3.860   1.954
    1   AR   Ar  228   6.672   4.979   0.549
    1   AR   Ar  229   6.331   3.656   1.100
    1   AR   Ar  230   4.264   3.997   3.121
    1   AR   Ar  231   0.115   2.772   3.692
    1   AR   Ar  232   5.400   3.634   1.576
    1   AR   Ar  233   6.231   2.494   4.179
    1   AR   Ar  234   5.765   4.010   5.085
    1   AR   Ar  235   6.660   3.787   4.526
    1   AR   Ar  236   5.851   3.765   3.934
    1   AR   Ar  237   5.364   3.082   4.681
    1   AR   Ar  238   4.777   4.621   5.553
    1   AR   Ar  239   5.813   4.069   7.444
    1   AR   Ar  240   6.527   3.715   5.846
    1   AR   Ar  241   6.803   0.239  -0.079
    1   AR   Ar  242   5.247   6.239   1.439
    1   AR   Ar  243   5.872   4.712   2.097
    1   AR   Ar  244   6.701   5.926  -0.024
    1   AR   Ar  245   5.339   5.571   2.295
    1   AR   Ar  246   5.820   6.465   2.534
    1   AR   Ar  247   5.604   3.565   2.715
    1   AR   Ar  248   6.026   6.776   0.969
    1   AR   Ar  249   5.634   4.560   3.298
    1   AR   Ar  250   4.560   6.328   4.052
    1   AR   Ar  251   5.280   5.494   4.219
    1   AR   Ar  252   5.881   5.602   3.420
    1   AR   Ar  253   5.843   5.181   5.411
    1   AR   Ar  254   5.487   5.861   6.457
    1   AR   Ar  255   5.637   4.355   6.216
    1   AR   Ar  256   6.050   6.105   4.853
    7.12000  7.12000 12.00000
Argon-slab step 885
  256
    1   AR   Ar    1   0.697   0.566  -0.493
    1   AR   Ar    2   6.992   0.384   1.072
    1   AR   Ar    3   0.293   6.666   0.155
    1   AR   Ar    4   1.453   0.411   0.334
    1   AR   Ar    5   6.997   6.459   1.104
    1   AR   Ar    6   0.192   0.179   2.795
    1   AR   Ar    7   7.071   6.343   2.206
    1   AR   Ar    8   0.804   6.979   1.793
    1   AR   Ar    9   0.495   0.800   4.334
    1   AR   Ar   10   6.902   1.706   4.254
    1   AR   Ar   11   2.119   0.005   4.787
    1   AR   Ar   12   1.260   0.833   3.512
    1   AR   Ar   13   7.039   0.784   5.163
    1   AR   Ar   14   0.282   1.175   6.076
    1   AR   Ar   15   0.845   6.215   7.650
    1   AR   Ar   16   1.270   1.032   5.410
    1   AR   Ar   17   6.817   1.570   0.175
    1   AR   Ar   18   6.896   2.957   0.310
    1   AR   Ar   19   0.752   1.322   0.952
    1   AR   Ar   20   0.360   3.132  -1.485
    1   AR   Ar   21   6.600   0.146   2.094
    1   AR   Ar   22   6.899   2.473   2.766
    1   AR   Ar   23   7.060   1.160   2.424
    1   AR   Ar   24   0.324   2.682   1.772
    1   AR   Ar   25   0.390   1.449   3.328
    1   AR   Ar   26   6.325   1.770   3.406
    1   AR   Ar   27   1.118   1.970   5.137
    1   AR   Ar   28   0.415   3.044   4.752
    1   AR   Ar   29   6.447   1.650   5.744
    1   AR   Ar   30   6.726   2.802   6.552
    1   AR   Ar   31   0.725   1.294   7.245
    1   AR   Ar   32   1.786   2.798   5.269
    1   AR   Ar   33   1.172   3.669  -0.762
    1   AR   Ar   34   0.500   4.599   1.271
    1   AR   Ar   35   0.397   3.687   0.636
    1   AR   Ar   36   1.723   6.616  -0.949
    1   AR   Ar   37   0.347   3.258   2.696
    1   AR   Ar   38   0.697   4.688   2.365
    1   AR   Ar   39   1.215   3.876   2.838
    1   AR   Ar   40   1.447   4.338   1.821
    1   AR   Ar   41   0.995   2.401   3.014
    1   AR   Ar   42   6.762   5.184   4.938
    1   AR   Ar   43   6.935   2.412   5.184
    1   AR   Ar   44   0.575   3.694   3.657
    1   AR   Ar   45   0.756   3.879   5.822
    1   AR   Ar   46   6.774   4.468   6.462
    1   AR   Ar   47   0.192   3.562   6.695
    1   AR   Ar   48   0.287   5.272   6.140
    1   AR   Ar   49   0.603   5.002  -0.817
    1   AR   Ar   50   6.290   5.615   1.604
    1   AR   Ar   51   1.332   4.577   0.419
    1   AR   Ar   52   0.627   5.462   0.532
    1   AR   Ar   53   6.584   5.525   2.538
    1   AR   Ar   54   6.638   6.530   3.350
    1   AR   Ar   55   0.671   5.555   3.271
    1   AR   Ar   56   1.135   5.796   1.617
    1   AR   Ar   57   6.427   4.211   2.714
    1   AR   Ar   58   0.084   5.926   4.152
    1   AR   Ar   59   1.790   6.180   5.015
    1   AR   Ar   60   0.628   6.882   4.091
    1   AR   Ar   61   6.548   5.810   5.941
    1   AR   Ar   62   0.485   6.009   5.406
    1   AR   Ar   63   1.356   5.312   5.750
    1   AR   Ar   64   1.115   0.024   5.053
    1   AR   Ar   65   2.360   6.672   0.398
    1   AR   Ar   66   1.825   0.930   1.378
    1   AR   Ar   67   3.507   6.202   0.053
    1   AR   Ar   68   4.139   0.894   0.119
    1   AR   Ar   69   1.709   7.011   1.174
    1   AR   Ar   70   1.747   0.095   2.396
    1   AR   Ar   71   2.749   0.177   2.030
    1   AR   Ar   72   3.018   0.871   0.985
    1   AR   Ar   73   2.017   6.775   3.701
    1   AR   Ar   74   1.918   1.293   4.402
    1   AR   Ar   75   2.806   0.732   4.749
    1   AR   Ar   76   2.308   0.734   3.117
    1   AR   Ar   77   2.027   0.343   5.754
    1   AR   Ar   78   1.070   0.476   6.631
    1   AR   Ar   79   3.254   6.299   6.883
    1   AR   Ar   80   2.873   6.871   5.476
    1   AR   Ar   81   1.811   1.627   0.479
    1   AR   Ar   82   1.860   3.014   0.397
    1   AR   Ar   83   2.751   1.774   1.735
    1   AR   Ar   84   2.213   2.900  -1.073
    1   AR   Ar   85   1.597   2.108   1.448
    1   AR   Ar   86   2.081   2.388   2.252
    1   AR   Ar   87   2.007   1.390   2.395
    1   AR   Ar   88   3.439   3.805   1.370
    1   AR   Ar   89   0.953   1.615   2.047
    1   AR   Ar   90   3.111   2.219   4.956
    1   AR   Ar   91   2.573   2.188   3.937
    1   AR   Ar   92   1.867   1.937   3.287
    1   AR   Ar   93   1.327   1.673   6.181
    1   AR   Ar   94   2.718   1.666   8.088
    1   AR   Ar   95   2.575   0.533   6.986
    1   AR   Ar   96   2.277   2.128   6.546
    1   AR   Ar   97   2.782   3.895  -1.605
    1   AR   Ar   98   3.004   4.724   1.635
    1   AR   Ar   99   3.277   2.994  -1.380
    1   AR   Ar  100   2.234   5.186  -0.114
    1   AR   Ar  101   1.234   3.001   1.996
    1   AR   Ar  102   1.734   4.222   3.689
    1   AR   Ar  103   2.369   3.605   2.101
    1   AR   Ar  104   3.378   3.574   0.156
    1   AR   Ar  105   1.873   2.848   3.805
    1   AR   Ar  106   2.756   3.311   4.833
    1   AR   Ar  107   2.699   4.105   5.453
    1   AR   Ar  108   3.329   3.466   3.692
    1   AR   Ar  109   0.929   3.929   4.680
    1   AR   Ar  110   1.823   4.503   5.068
    1   AR   Ar  111   4.086   5.334   7.261
    1   AR   Ar  112   2.481   3.142   6.124
    1   AR   Ar  113   2.379   4.346   0.733
    1   AR   Ar  114   2.038   5.723   0.854
    1   AR   Ar  115   3.109   5.373   0.503
    1   AR   Ar  116   3.558   0.040   0.506
    1   AR   Ar  117   1.711   5.040   2.824
    1   AR   Ar  118   1.173   6.376   2.742
    1   AR   Ar  119   2.566   4.400   2.852
    1   AR   Ar  120   2.146   5.282   1.886
    1   AR   Ar  121   0.587   4.730   4.017
    1   AR   Ar  122   2.935   6.256   4.135
    1   AR   Ar  123   2.158   5.190   4.428
    1   AR   Ar  124   2.454   5.805   2.915
    1   AR   Ar  125   1.002   5.340   4.769
    1   AR   Ar  126   1.018   6.449   6.218
    1   AR   Ar  127   2.618   5.460   7.714
    1   AR   Ar  128   2.173   6.200   6.161
    1   AR   Ar  129   3.037   6.545   1.126
    1   AR   Ar  130   3.413   6.876  -0.941
    1   AR   Ar  131   4.956   6.598   0.559
    1   AR   Ar  132   5.702   2.219  -0.626
    1   AR   Ar  133   3.820   6.983   2.621
    1   AR   Ar  134   3.484   0.789   2.831
    1   AR   Ar  135   4.935   0.298   2.934
    1   AR   Ar  136   4.319   0.602   1.849
    1   AR   Ar  137   2.861   0.319   3.783
    1   AR   Ar  138   4.971   0.973   4.668
    1   AR   Ar  139   4.835   0.203   3.996
    1   AR   Ar  140   4.166   1.485   3.519
    1   AR   Ar  141   3.708   7.079   4.569
    1   AR   Ar  142   3.814   6.872   5.798
    1   AR   Ar  143   5.475   0.274   6.675
    1   AR   Ar  144   5.215   1.464   7.059
    1   AR   Ar  145   2.828   2.568   0.460
    1   AR   Ar  146   4.116   2.840   0.904
    1   AR   Ar  147   4.955   1.869   0.810
    1   AR   Ar  148   6.001   3.159  -0.919
    1   AR   Ar  149   3.902   1.754   1.119
    1   AR   Ar  150   2.930   1.753   2.879
    1   AR   Ar  151   3.512   2.258   3.699
    1   AR   Ar  152   3.374   2.637   1.569
    1   AR   Ar  153   3.127   1.291   3.774
    1   AR   Ar  154   4.237   1.705   4.727
    1   AR   Ar  155   5.392   1.409   5.955
    1   AR   Ar  156   4.588   3.638   4.030
    1   AR   Ar  157   4.069   1.977   5.744
    1   AR   Ar  158   3.348   2.405   6.627
    1   AR   Ar  159   4.426   1.014   6.186
    1   AR   Ar  160   4.512   2.911   5.427
    1   AR   Ar  161   4.720   2.365  -0.020
    1   AR   Ar  162   4.725   5.270   0.804
    1   AR   Ar  163   5.521   3.229   0.467
    1   AR   Ar  164   5.739   4.787   0.937
    1   AR   Ar  165   3.347   3.567   2.580
    1   AR   Ar  166   3.712   4.837   3.574
    1   AR   Ar  167   4.216   2.886   3.237
    1   AR   Ar  168   4.427   3.865   1.151
    1   AR   Ar  169   2.627   2.787   3.071
    1   AR   Ar  170   2.970   4.201   4.388
    1   AR   Ar  171   3.793   3.600   4.845
    1   AR   Ar  172   4.643   4.652   4.227
    1   AR   Ar  173   3.432   3.235   5.672
    1   AR   Ar  174   4.284   5.473   6.050
    1   AR   Ar  175   3.766   4.096   6.005
    1   AR   Ar  176   3.658   4.614   5.142
    1   AR   Ar  177   5.631   5.719   0.411
    1   AR   Ar  178   4.131   6.529   1.247
    1   AR   Ar  179   4.028   5.396   1.562
    1   AR   Ar  180   4.451   5.579  -0.213
    1   AR   Ar  181   3.108   5.777   1.776
    1   AR   Ar  182   2.235   6.250   1.856
    1   AR   Ar  183   3.669   4.634   2.431
    1   AR   Ar  184   3.968   6.021   2.400
    1   AR   Ar  185   1.589   5.788   3.796
    1   AR   Ar  186   3.824   5.580   4.258
    1   AR   Ar  187   4.486   5.454   3.273
    1   AR   Ar  188   3.568   6.154   3.280
    1   AR   Ar  189   2.626   5.012   5.858
    1   AR   Ar  190   4.598   6.417   6.484
    1   AR   Ar  191   4.461   5.476   5.061
    1   AR   Ar  192   3.462   6.057   5.108
    1   AR   Ar  193   5.744   0.048   0.058
    1   AR   Ar  194   4.357   7.018  -0.147
    1   AR   Ar  195   5.985   0.976   0.829
    1   AR   Ar  196   6.166   1.092  -0.681
    1   AR   Ar  197   5.134   0.365   1.016
    1   AR   Ar  198   5.075   1.417   1.682
    1   AR   Ar  199   5.515   0.409   1.937
    1   AR   Ar  200   6.998   1.652   1.292
    1   AR   Ar  201   4.794   6.335   2.962
    1   AR   Ar  202   5.433   1.184   3.878
    1   AR   Ar  203   6.896   6.904   4.595
    1   AR   Ar  204   5.975   0.396   2.913
    1   AR   Ar  205   5.601   6.538   3.702
    1   AR   Ar  206   4.761   6.706   5.287
    1   AR   Ar  207   0.131   0.022   5.789
    1   AR   Ar  208   6.330   0.593   4.196
    1   AR   Ar  209   6.620   1.815  -1.434
    1   AR   Ar  210   5.191   2.614   1.472
    1   AR   Ar  211   5.953   2.196   0.536
    1   AR   Ar  212   6.968   3.638  -0.616
    1   AR   Ar  213   4.373   2.278   2.281
    1   AR   Ar  214   4.274   3.372   2.116
    1   AR   Ar  215   5.708   2.419   2.649
    1   AR   Ar  216   6.312   2.650   1.704
    1   AR   Ar  217   5.067   2.437   3.857
    1   AR   Ar  218   5.716   1.793   4.739
    1   AR   Ar  219   5.273   1.241   2.807
    1   AR   Ar  220   6.415   3.189   3.258
    1   AR   Ar  221   5.808   0.620   5.137
    1   AR   Ar  222   4.850   2.169   6.430
    1   AR   Ar  223   6.848   1.784   7.404
    1   AR   Ar  224   5.811   2.586   5.812
    1   AR   Ar  225   5.029   4.309   0.147
    1   AR   Ar  226   4.786   4.667   1.838
    1   AR   Ar  227   6.988   3.863   1.957
    1   AR   Ar  228   6.676   4.982   0.554
    1   AR   Ar  229   6.343   3.649   1.089
    1   AR   Ar  230   4.306   4.021   3.121
    1   AR   Ar  231   0.099   2.755   3.701
    1   AR   Ar  232   5.396   3.677   1.594
    1   AR   Ar  233   6.244   2.502   4.193
    1   AR   Ar  234   5.798   4.006   5.092
    1   AR   Ar  235   6.633   3.799   4.523
    1   AR   Ar  236   5.842   3.781   3.970
    1   AR   Ar  237   5.332   3.055   4.700
    1   AR   Ar  238   4.773   4.607   5.594
    1   AR   Ar  239   5.802   4.072   7.414
    1   AR   Ar  240   6.535   3.693   5.876
    1   AR   Ar  241   6.769   0.253  -0.099
    1   AR   Ar  242   5.253   6.230   1.467
    1   AR   Ar  243   5.856   4.723   2.116
    1   AR   Ar  244   6.703   5.913  -0.021
    1   AR   Ar  245   5.341   5.587   2.311
    1   AR   Ar  246   5.819   6.462   2.489
    1   AR   Ar  247   5.616   3.593   2.672
    1   AR   Ar  248   6.025   6.784   0.961
    1   AR   Ar  249   5.631   4.565   3.298
    1   AR   Ar  250   4.565   6.360   4.028
    1   AR   Ar  251   5.278   5.498   4.223
    1   AR   Ar  252   5.841   5.603   3.406
    1   AR   Ar  253   5.872   5.192   5.413
    1   AR   Ar  254   5.494   5.862   6.456
    1   AR   Ar  255   5.586   4.348   6.246
    1   AR   Ar  256   6.076   6.089   4.847
    7.12000  7.12000 12.00000
Argon-slab step 890
  256
    1   AR   Ar    1   0.688   0.564  -0.510
    1   AR   Ar    2   6.996   0.382   1.032
    1   AR   Ar    3   0.290   6.640   0.136
    1   AR   Ar    4   1.462   0.429   0.304
    1   AR   Ar    5   6.985   6.417   1.094
    1   AR   Ar    6   0.174   0.171   2.853
    1   AR   Ar    7   7.054   6.333   2.200
    1   AR   Ar    8   0.816   6.974   1.794
    1   AR   Ar    9   0.502   0.802   4.348
    1   AR   Ar   10   6.892   1.711   4.246
    1   AR   Ar   11   2.143   0.018   4.791
    1   AR   Ar   12   1.243   0.866   3.524
    1   AR   Ar   13   7.048   0.807   5.163
    1   AR   Ar   14   0.313   1.206   6.078
    1   AR   Ar   15   0.818   6.204   7.705
    1   AR   Ar   16   1.244   1.024   5.414
    1   AR   Ar   17   6.812   1.576   0.180
    1   AR   Ar   18   6.923   2.980   0.283
    1   AR   Ar   19   0.767   1.330   0.942
    1   AR   Ar   20   0.351   3.126  -1.478
    1   AR   Ar   21   6.586   0.143   2.090
    1   AR   Ar   22   6.881   2.482   2.777
    1   AR   Ar   23   7.058   1.178   2.409
    1   AR   Ar   24   0.289   2.677   1.805
    1   AR   Ar   25   0.385   1.442   3.315
    1   AR   Ar   26   6.331   1.767   3.415
    1   AR   Ar   27   1.121   1.962   5.134
    1   AR   Ar   28   0.397   3.063   4.798
    1   AR   Ar   29   6.452   1.655   5.784
    1   AR   Ar   30   6.708   2.821   6.574
    1   AR   Ar   31   0.741   1.287   7.245
    1   AR   Ar   32   1.788   2.779   5.251
    1   AR   Ar   33   1.173   3.676  -0.802
    1   AR   Ar   34   0.497   4.600   1.270
    1   AR   Ar   35   0.390   3.688   0.620
    1   AR   Ar   36   1.715   6.630  -0.954
    1   AR   Ar   37   0.338   3.257   2.699
    1   AR   Ar   38   0.723   4.681   2.377
    1   AR   Ar   39   1.209   3.868   2.857
    1   AR   Ar   40   1.453   4.321   1.817
    1   AR   Ar   41   0.972   2.397   2.992
    1   AR   Ar   42   6.771   5.185   4.960
    1   AR   Ar   43   6.947   2.407   5.186
    1   AR   Ar   44   0.548   3.700   3.664
    1   AR   Ar   45   0.746   3.847   5.795
    1   AR   Ar   46   6.777   4.484   6.451
    1   AR   Ar   47   0.168   3.586   6.707
    1   AR   Ar   48   0.261   5.299   6.128
    1   AR   Ar   49   0.600   5.046  -0.821
    1   AR   Ar   50   6.296   5.633   1.588
    1   AR   Ar   51   1.319   4.600   0.390
    1   AR   Ar   52   0.615   5.488   0.567
    1   AR   Ar   53   6.604   5.519   2.576
    1   AR   Ar   54   6.616   6.521   3.369
    1   AR   Ar   55   0.649   5.541   3.270
    1   AR   Ar   56   1.143   5.794   1.647
    1   AR   Ar   57   6.454   4.180   2.749
    1   AR   Ar   58   0.076   5.950   4.127
    1   AR   Ar   59   1.766   6.206   5.034
    1   AR   Ar   60   0.617   6.889   4.067
    1   AR   Ar   61   6.527   5.818   5.934
    1   AR   Ar   62   0.464   6.019   5.410
    1   AR   Ar   63   1.348   5.320   5.760
    1   AR   Ar   64   1.117   7.118   5.057
    1   AR   Ar   65   2.357   6.693   0.403
    1   AR   Ar   66   1.842   0.952   1.393
    1   AR   Ar   67   3.510   6.184   0.081
    1   AR   Ar   68   4.118   0.859   0.094
    1   AR   Ar   69   1.667   6.999   1.172
    1   AR   Ar   70   1.743   0.098   2.397
    1   AR   Ar   71   2.767   0.204   2.007
    1   AR   Ar   72   3.019   0.875   0.986
    1   AR   Ar   73   1.987   6.759   3.696
    1   AR   Ar   74   1.938   1.288   4.430
    1   AR   Ar   75   2.807   0.760   4.735
    1   AR   Ar   76   2.315   0.739   3.084
    1   AR   Ar   77   2.020   0.331   5.792
    1   AR   Ar   78   1.066   0.476   6.632
    1   AR   Ar   79   3.266   6.310   6.875
    1   AR   Ar   80   2.862   6.871   5.483
    1   AR   Ar   81   1.815   1.629   0.479
    1   AR   Ar   82   1.863   2.997   0.418
    1   AR   Ar   83   2.743   1.772   1.729
    1   AR   Ar   84   2.229   2.902  -1.100
    1   AR   Ar   85   1.615   2.116   1.430
    1   AR   Ar   86   2.060   2.368   2.251
    1   AR   Ar   87   2.006   1.385   2.382
    1   AR   Ar   88   3.435   3.818   1.353
    1   AR   Ar   89   0.969   1.620   2.054
    1   AR   Ar   90   3.089   2.203   4.957
    1   AR   Ar   91   2.580   2.189   3.940
    1   AR   Ar   92   1.868   1.924   3.275
    1   AR   Ar   93   1.320   1.661   6.160
    1   AR   Ar   94   2.716   1.668   8.116
    1   AR   Ar   95   2.593   0.512   6.962
    1   AR   Ar   96   2.268   2.124   6.567
    1   AR   Ar   97   2.778   3.908  -1.570
    1   AR   Ar   98   3.022   4.744   1.611
    1   AR   Ar   99   3.315   2.985  -1.403
    1   AR   Ar  100   2.249   5.163  -0.138
    1   AR   Ar  101   1.228   3.014   2.002
    1   AR   Ar  102   1.718   4.218   3.681
    1   AR   Ar  103   2.343   3.621   2.098
    1   AR   Ar  104   3.395   3.556   0.148
    1   AR   Ar  105   1.850   2.851   3.822
    1   AR   Ar  106   2.747   3.288   4.814
    1   AR   Ar  107   2.708   4.082   5.480
    1   AR   Ar  108   3.330   3.467   3.702
    1   AR   Ar  109   0.951   3.934   4.656
    1   AR   Ar  110   1.833   4.480   5.006
    1   AR   Ar  111   4.100   5.322   7.263
    1   AR   Ar  112   2.480   3.152   6.093
    1   AR   Ar  113   2.415   4.325   0.732
    1   AR   Ar  114   2.078   5.741   0.848
    1   AR   Ar  115   3.096   5.396   0.530
    1   AR   Ar  116   3.578   0.066   0.508
    1   AR   Ar  117   1.718   5.024   2.813
    1   AR   Ar  118   1.171   6.420   2.725
    1   AR   Ar  119   2.562   4.404   2.842
    1   AR   Ar  120   2.129   5.272   1.902
    1   AR   Ar  121   0.554   4.731   4.029
    1   AR   Ar  122   2.918   6.227   4.135
    1   AR   Ar  123   2.197   5.157   4.444
    1   AR   Ar  124   2.456   5.785   2.923
    1   AR   Ar  125   0.997   5.358   4.781
    1   AR   Ar  126   1.013   6.410   6.206
    1   AR   Ar  127   2.634   5.441   7.690
    1   AR   Ar  128   2.142   6.197   6.173
    1   AR   Ar  129   3.062   6.537   1.169
    1   AR   Ar  130   3.392   6.864  -0.953
    1   AR   Ar  131   4.961   6.568   0.561
    1   AR   Ar  132   5.677   2.230  -0.633
    1   AR   Ar  133   3.835   7.002   2.598
    1   AR   Ar  134   3.505   0.762   2.835
    1   AR   Ar  135   4.931   0.294   2.943
    1   AR   Ar  136   4.335   0.618   1.845
    1   AR   Ar  137   2.866   0.314   3.760
    1   AR   Ar  138   4.961   0.985   4.712
    1   AR   Ar  139   4.844   0.198   3.977
    1   AR   Ar  140   4.179   1.505   3.531
    1   AR   Ar  141   3.720   7.083   4.553
    1   AR   Ar  142   3.807   6.875   5.833
    1   AR   Ar  143   5.486   0.296   6.693
    1   AR   Ar  144   5.190   1.479   7.044
    1   AR   Ar  145   2.856   2.588   0.489
    1   AR   Ar  146   4.075   2.895   0.923
    1   AR   Ar  147   4.963   1.868   0.783
    1   AR   Ar  148   6.009   3.182  -0.946
    1   AR   Ar  149   3.907   1.763   1.110
    1   AR   Ar  150   2.946   1.751   2.840
    1   AR   Ar  151   3.522   2.289   3.716
    1   AR   Ar  152   3.360   2.634   1.573
    1   AR   Ar  153   3.101   1.296   3.788
    1   AR   Ar  154   4.242   1.693   4.715
    1   AR   Ar  155   5.404   1.411   5.959
    1   AR   Ar  156   4.558   3.591   4.014
    1   AR   Ar  157   4.041   1.967   5.770
    1   AR   Ar  158   3.314   2.403   6.627
    1   AR   Ar  159   4.447   1.018   6.179
    1   AR   Ar  160   4.508   2.910   5.446
    1   AR   Ar  161   4.741   2.383  -0.047
    1   AR   Ar  162   4.745   5.268   0.831
    1   AR   Ar  163   5.504   3.228   0.487
    1   AR   Ar  164   5.739   4.739   0.945
    1   AR   Ar  165   3.381   3.580   2.562
    1   AR   Ar  166   3.712   4.879   3.572
    1   AR   Ar  167   4.241   2.918   3.184
    1   AR   Ar  168   4.460   3.879   1.155
    1   AR   Ar  169   2.618   2.779   3.103
    1   AR   Ar  170   2.947   4.196   4.386
    1   AR   Ar  171   3.816   3.600   4.856
    1   AR   Ar  172   4.663   4.635   4.233
    1   AR   Ar  173   3.466   3.201   5.675
    1   AR   Ar  174   4.275   5.471   6.050
    1   AR   Ar  175   3.775   4.101   5.991
    1   AR   Ar  176   3.665   4.617   5.136
    1   AR   Ar  177   5.627   5.699   0.401
    1   AR   Ar  178   4.140   6.516   1.257
    1   AR   Ar  179   4.030   5.382   1.543
    1   AR   Ar  180   4.433   5.546  -0.248
    1   AR   Ar  181   3.139   5.766   1.730
    1   AR   Ar  182   2.231   6.226   1.859
    1   AR   Ar  183   3.656   4.648   2.387
    1   AR   Ar  184   3.972   6.022   2.398
    1   AR   Ar  185   1.565   5.814   3.815
    1   AR   Ar  186   3.806   5.579   4.302
    1   AR   Ar  187   4.491   5.444   3.266
    1   AR   Ar  188   3.576   6.164   3.308
    1   AR   Ar  189   2.620   5.044   5.857
    1   AR   Ar  190   4.617   6.423   6.457
    1   AR   Ar  191   4.460   5.529   5.067
    1   AR   Ar  192   3.434   6.081   5.103
    1   AR   Ar  193   5.692   0.063   0.044
    1   AR   Ar  194   4.390   7.043  -0.133
    1   AR   Ar  195   5.995   0.971   0.824
    1   AR   Ar  196   6.184   1.063  -0.688
    1   AR   Ar  197   5.143   0.352   0.998
    1   AR   Ar  198   5.066   1.404   1.668
    1   AR   Ar  199   5.453   0.376   1.932
    1   AR   Ar  200   6.999   1.637   1.265
    1   AR   Ar  201   4.801   6.365   2.933
    1   AR   Ar  202   5.435   1.190   3.867
    1   AR   Ar  203   6.877   6.907   4.608
    1   AR   Ar  204   5.999   0.395   2.904
    1   AR   Ar  205   5.613   6.487   3.702
    1   AR   Ar  206   4.763   6.717   5.325
    1   AR   Ar  207   0.144   0.047   5.796
    1   AR   Ar  208   6.330   0.587   4.182
    1   AR   Ar  209   6.629   1.829  -1.437
    1   AR   Ar  210   5.184   2.607   1.484
    1   AR   Ar  211   5.944   2.200   0.533
    1   AR   Ar  212   6.972   3.607  -0.607
    1   AR   Ar  213   4.350   2.268   2.265
    1   AR   Ar  214   4.242   3.355   2.130
    1   AR   Ar  215   5.682   2.444   2.655
    1   AR   Ar  216   6.285   2.681   1.713
    1   AR   Ar  217   5.082   2.419   3.855
    1   AR   Ar  218   5.723   1.771   4.729
    1   AR   Ar  219   5.274   1.253   2.793
    1   AR   Ar  220   6.431   3.180   3.236
    1   AR   Ar  221   5.836   0.581   5.142
    1   AR   Ar  222   4.878   2.170   6.434
    1   AR   Ar  223   6.831   1.766   7.410
    1   AR   Ar  224   5.800   2.583   5.822
    1   AR   Ar  225   5.057   4.309   0.130
    1   AR   Ar  226   4.770   4.666   1.853
    1   AR   Ar  227   7.007   3.870   1.923
    1   AR   Ar  228   6.685   4.987   0.560
    1   AR   Ar  229   6.358   3.642   1.076
    1   AR   Ar  230   4.348   4.046   3.116
    1   AR   Ar  231   0.089   2.732   3.717
    1   AR   Ar  232   5.372   3.715   1.612
    1   AR   Ar  233   6.254   2.520   4.206
    1   AR   Ar  234   5.807   4.038   5.093
    1   AR   Ar  235   6.626   3.809   4.527
    1   AR   Ar  236   5.828   3.756   3.972
    1   AR   Ar  237   5.302   3.027   4.718
    1   AR   Ar  238   4.768   4.589   5.634
    1   AR   Ar  239   5.792   4.077   7.382
    1   AR   Ar  240   6.541   3.664   5.899
    1   AR   Ar  241   6.731   0.278  -0.121
    1   AR   Ar  242   5.259   6.219   1.500
    1   AR   Ar  243   5.834   4.736   2.124
    1   AR   Ar  244   6.703   5.899  -0.017
    1   AR   Ar  245   5.319   5.579   2.299
    1   AR   Ar  246   5.823   6.466   2.446
    1   AR   Ar  247   5.622   3.619   2.628
    1   AR   Ar  248   6.038   6.816   0.955
    1   AR   Ar  249   5.604   4.559   3.294
    1   AR   Ar  250   4.566   6.383   4.006
    1   AR   Ar  251   5.272   5.503   4.236
    1   AR   Ar  252   5.808   5.602   3.381
    1   AR   Ar  253   5.889   5.199   5.419
    1   AR   Ar  254   5.503   5.860   6.453
    1   AR   Ar  255   5.537   4.340   6.275
    1   AR   Ar  256   6.102   6.075   4.839
    7.12000  7.12000 12.00000
Argon-slab step 895
  256
    1   AR   Ar    1   0.675   0.562  -0.531
    1   AR   Ar    2   7.001   0.381   0.993
    1   AR   Ar    3   0.293   6.615   0.118
    1   AR   Ar    4   1.466   0.441   0.288
    1   AR   Ar    5   6.975   6.370   1.085
    1   AR   Ar    6   0.159   0.162   2.915
    1   AR   Ar    7   7.042   6.327   2.192
    1   AR   Ar    8   0.823   6.969   1.798
    1   AR   Ar    9   0.514   0.805   4.355
    1   AR   Ar   10   6.875   1.718   4.255
    1   AR   Ar   11   2.163   0.028   4.785
    1   AR   Ar   12   1.231   0.896   3.535
    1   AR   Ar   13   7.048   0.835   5.163
    1   AR   Ar   14   0.345   1.237   6.082
    1   AR   Ar   15   0.791   6.194   7.758
    1   AR   Ar   16   1.217   0.997   5.412
    1   AR   Ar   17   6.806   1.581   0.184
    1   AR   Ar   18   6.940   2.992   0.255
    1   AR   Ar   19   0.793   1.333   0.930
    1   AR   Ar   20   0.342   3.120  -1.472
    1   AR   Ar   21   6.623   0.149   2.093
    1   AR   Ar   22   6.862   2.459   2.773
    1   AR   Ar   23   7.055   1.196   2.391
    1   AR   Ar   24   0.247   2.668   1.836
    1   AR   Ar   25   0.393   1.445   3.336
    1   AR   Ar   26   6.331   1.763   3.417
    1   AR   Ar   27   1.118   1.964   5.125
    1   AR   Ar   28   0.389   3.093   4.834
    1   AR   Ar   29   6.456   1.658   5.823
    1   AR   Ar   30   6.679   2.825   6.593
    1   AR   Ar   31   0.757   1.282   7.244
    1   AR   Ar   32   1.795   2.777   5.244
    1   AR   Ar   33   1.174   3.684  -0.842
    1   AR   Ar   34   0.495   4.603   1.269
    1   AR   Ar   35   0.389   3.700   0.609
    1   AR   Ar   36   1.720   6.655  -0.934
    1   AR   Ar   37   0.337   3.269   2.701
    1   AR   Ar   38   0.738   4.680   2.396
    1   AR   Ar   39   1.206   3.859   2.869
    1   AR   Ar   40   1.454   4.309   1.811
    1   AR   Ar   41   0.946   2.394   2.967
    1   AR   Ar   42   6.754   5.162   4.961
    1   AR   Ar   43   6.945   2.387   5.196
    1   AR   Ar   44   0.538   3.687   3.654
    1   AR   Ar   45   0.734   3.816   5.765
    1   AR   Ar   46   6.777   4.505   6.442
    1   AR   Ar   47   0.155   3.621   6.722
    1   AR   Ar   48   0.229   5.328   6.147
    1   AR   Ar   49   0.596   5.089  -0.823
    1   AR   Ar   50   6.298   5.652   1.567
    1   AR   Ar   51   1.306   4.623   0.362
    1   AR   Ar   52   0.603   5.514   0.603
    1   AR   Ar   53   6.620   5.505   2.623
    1   AR   Ar   54   6.597   6.513   3.385
    1   AR   Ar   55   0.627   5.527   3.267
    1   AR   Ar   56   1.151   5.793   1.677
    1   AR   Ar   57   6.486   4.155   2.785
    1   AR   Ar   58   0.068   5.972   4.104
    1   AR   Ar   59   1.741   6.227   5.055
    1   AR   Ar   60   0.613   6.894   4.037
    1   AR   Ar   61   6.503   5.833   5.926
    1   AR   Ar   62   0.439   6.034   5.407
    1   AR   Ar   63   1.341   5.330   5.773
    1   AR   Ar   64   1.114   7.091   5.063
    1   AR   Ar   65   2.354   6.716   0.403
    1   AR   Ar   66   1.859   0.975   1.407
    1   AR   Ar   67   3.518   6.174   0.105
    1   AR   Ar   68   4.097   0.836   0.072
    1   AR   Ar   69   1.629   6.984   1.174
    1   AR   Ar   70   1.742   0.105   2.414
    1   AR   Ar   71   2.786   0.232   1.982
    1   AR   Ar   72   3.016   0.872   0.983
    1   AR   Ar   73   1.958   6.746   3.690
    1   AR   Ar   74   1.955   1.284   4.457
    1   AR   Ar   75   2.817   0.794   4.723
    1   AR   Ar   76   2.318   0.748   3.046
    1   AR   Ar   77   2.009   0.321   5.834
    1   AR   Ar   78   1.063   0.475   6.628
    1   AR   Ar   79   3.278   6.320   6.866
    1   AR   Ar   80   2.847   6.870   5.490
    1   AR   Ar   81   1.819   1.629   0.479
    1   AR   Ar   82   1.865   2.981   0.440
    1   AR   Ar   83   2.737   1.766   1.719
    1   AR   Ar   84   2.244   2.906  -1.126
    1   AR   Ar   85   1.629   2.121   1.396
    1   AR   Ar   86   2.046   2.362   2.266
    1   AR   Ar   87   2.001   1.371   2.363
    1   AR   Ar   88   3.428   3.825   1.337
    1   AR   Ar   89   0.982   1.623   2.064
    1   AR   Ar   90   3.069   2.187   4.958
    1   AR   Ar   91   2.585   2.183   3.960
    1   AR   Ar   92   1.866   1.905   3.260
    1   AR   Ar   93   1.314   1.656   6.151
    1   AR   Ar   94   2.715   1.671   8.143
    1   AR   Ar   95   2.611   0.491   6.937
    1   AR   Ar   96   2.258   2.120   6.587
    1   AR   Ar   97   2.773   3.923  -1.536
    1   AR   Ar   98   3.033   4.764   1.581
    1   AR   Ar   99   3.354   2.976  -1.424
    1   AR   Ar  100   2.267   5.133  -0.163
    1   AR   Ar  101   1.228   3.031   2.011
    1   AR   Ar  102   1.705   4.216   3.679
    1   AR   Ar  103   2.316   3.637   2.094
    1   AR   Ar  104   3.409   3.549   0.158
    1   AR   Ar  105   1.817   2.864   3.841
    1   AR   Ar  106   2.729   3.260   4.798
    1   AR   Ar  107   2.710   4.062   5.479
    1   AR   Ar  108   3.330   3.465   3.715
    1   AR   Ar  109   0.976   3.943   4.632
    1   AR   Ar  110   1.833   4.444   4.956
    1   AR   Ar  111   4.114   5.312   7.263
    1   AR   Ar  112   2.477   3.160   6.060
    1   AR   Ar  113   2.452   4.304   0.732
    1   AR   Ar  114   2.119   5.758   0.844
    1   AR   Ar  115   3.108   5.413   0.559
    1   AR   Ar  116   3.592   0.077   0.505
    1   AR   Ar  117   1.717   5.007   2.807
    1   AR   Ar  118   1.166   6.459   2.710
    1   AR   Ar  119   2.562   4.406   2.832
    1   AR   Ar  120   2.110   5.246   1.915
    1   AR   Ar  121   0.520   4.732   4.040
    1   AR   Ar  122   2.898   6.199   4.136
    1   AR   Ar  123   2.245   5.139   4.448
    1   AR   Ar  124   2.460   5.767   2.931
    1   AR   Ar  125   0.994   5.376   4.787
    1   AR   Ar  126   1.009   6.373   6.196
    1   AR   Ar  127   2.650   5.423   7.665
    1   AR   Ar  128   2.112   6.195   6.182
    1   AR   Ar  129   3.065   6.545   1.181
    1   AR   Ar  130   3.364   6.851  -0.966
    1   AR   Ar  131   4.967   6.529   0.562
    1   AR   Ar  132   5.652   2.238  -0.637
    1   AR   Ar  133   3.856   7.015   2.572
    1   AR   Ar  134   3.519   0.750   2.844
    1   AR   Ar  135   4.924   0.301   2.950
    1   AR   Ar  136   4.351   0.633   1.841
    1   AR   Ar  137   2.879   0.294   3.746
    1   AR   Ar  138   4.948   0.990   4.767
    1   AR   Ar  139   4.857   0.205   3.961
    1   AR   Ar  140   4.196   1.521   3.543
    1   AR   Ar  141   3.732   7.086   4.538
    1   AR   Ar  142   3.807   6.877   5.871
    1   AR   Ar  143   5.496   0.319   6.710
    1   AR   Ar  144   5.170   1.482   7.037
    1   AR   Ar  145   2.887   2.607   0.519
    1   AR   Ar  146   4.041   2.950   0.937
    1   AR   Ar  147   4.970   1.862   0.754
    1   AR   Ar  148   6.018   3.207  -0.972
    1   AR   Ar  149   3.911   1.771   1.102
    1   AR   Ar  150   2.961   1.750   2.800
    1   AR   Ar  151   3.543   2.326   3.730
    1   AR   Ar  152   3.341   2.632   1.583
    1   AR   Ar  153   3.078   1.303   3.804
    1   AR   Ar  154   4.242   1.688   4.702
    1   AR   Ar  155   5.426   1.390   5.938
    1   AR   Ar  156   4.529   3.540   4.002
    1   AR   Ar  157   4.010   1.957   5.796
    1   AR   Ar  158   3.281   2.401   6.625
    1   AR   Ar  159   4.467   1.022   6.172
    1   AR   Ar  160   4.503   2.908   5.465
    1   AR   Ar  161   4.760   2.406  -0.079
    1   AR   Ar  162   4.765   5.264   0.862
    1   AR   Ar  163   5.486   3.226   0.508
    1   AR   Ar  164   5.735   4.690   0.958
    1   AR   Ar  165   3.405   3.596   2.550
    1   AR   Ar  166   3.705   4.911   3.567
    1   AR   Ar  167   4.266   2.951   3.131
    1   AR   Ar  168   4.480   3.888   1.141
    1   AR   Ar  169   2.612   2.775   3.128
    1   AR   Ar  170   2.925   4.199   4.383
    1   AR   Ar  171   3.844   3.603   4.854
    1   AR   Ar  172   4.677   4.624   4.240
    1   AR   Ar  173   3.492   3.151   5.686
    1   AR   Ar  174   4.259   5.439   6.083
    1   AR   Ar  175   3.786   4.109   5.986
    1   AR   Ar  176   3.672   4.627   5.123
    1   AR   Ar  177   5.627   5.682   0.393
    1   AR   Ar  178   4.150   6.501   1.269
    1   AR   Ar  179   4.036   5.363   1.525
    1   AR   Ar  180   4.417   5.518  -0.272
    1   AR   Ar  181   3.165   5.745   1.697
    1   AR   Ar  182   2.222   6.225   1.862
    1   AR   Ar  183   3.650   4.662   2.350
    1   AR   Ar  184   3.978   6.013   2.386
    1   AR   Ar  185   1.539   5.837   3.834
    1   AR   Ar  186   3.785   5.581   4.328
    1   AR   Ar  187   4.501   5.433   3.259
    1   AR   Ar  188   3.583   6.150   3.340
    1   AR   Ar  189   2.613   5.080   5.856
    1   AR   Ar  190   4.633   6.432   6.429
    1   AR   Ar  191   4.464   5.554   5.078
    1   AR   Ar  192   3.403   6.105   5.107
    1   AR   Ar  193   5.639   0.081   0.028
    1   AR   Ar  194   4.451   7.057  -0.107
    1   AR   Ar  195   6.007   0.967   0.818
    1   AR   Ar  196   6.201   1.036  -0.693
    1   AR   Ar  197   5.146   0.342   0.972
    1   AR   Ar  198   5.090   1.411   1.681
    1   AR   Ar  199   5.395   0.341   1.938
    1   AR   Ar  200   6.992   1.626   1.245
    1   AR   Ar  201   4.812   6.398   2.903
    1   AR   Ar  202   5.442   1.198   3.845
    1   AR   Ar  203   6.853   6.908   4.628
    1   AR   Ar  204   6.024   0.394   2.901
    1   AR   Ar  205   5.619   6.455   3.709
    1   AR   Ar  206   4.775   6.729   5.328
    1   AR   Ar  207   0.138   0.052   5.808
    1   AR   Ar  208   6.330   0.584   4.165
    1   AR   Ar  209   6.638   1.844  -1.439
    1   AR   Ar  210   5.176   2.604   1.498
    1   AR   Ar  211   5.958   2.179   0.535
    1   AR   Ar  212   6.951   3.582  -0.617
    1   AR   Ar  213   4.328   2.256   2.247
    1   AR   Ar  214   4.220   3.337   2.136
    1   AR   Ar  215   5.656   2.469   2.661
    1   AR   Ar  216   6.257   2.712   1.722
    1   AR   Ar  217   5.097   2.398   3.851
    1   AR   Ar  218   5.734   1.744   4.726
    1   AR   Ar  219   5.277   1.270   2.776
    1   AR   Ar  220   6.432   3.189   3.222
    1   AR   Ar  221   5.867   0.543   5.150
    1   AR   Ar  222   4.900   2.184   6.430
    1   AR   Ar  223   6.814   1.745   7.414
    1   AR   Ar  224   5.792   2.593   5.820
    1   AR   Ar  225   5.084   4.309   0.117
    1   AR   Ar  226   4.755   4.664   1.870
    1   AR   Ar  227   7.028   3.876   1.886
    1   AR   Ar  228   6.697   4.991   0.567
    1   AR   Ar  229   6.372   3.635   1.063
    1   AR   Ar  230   4.340   4.053   3.110
    1   AR   Ar  231   0.105   2.710   3.715
    1   AR   Ar  232   5.351   3.754   1.629
    1   AR   Ar  233   6.262   2.546   4.219
    1   AR   Ar  234   5.810   4.073   5.099
    1   AR   Ar  235   6.637   3.816   4.536
    1   AR   Ar  236   5.802   3.722   3.966
    1   AR   Ar  237   5.280   3.024   4.720
    1   AR   Ar  238   4.760   4.572   5.668
    1   AR   Ar  239   5.782   4.081   7.348
    1   AR   Ar  240   6.547   3.643   5.912
    1   AR   Ar  241   6.716   0.313  -0.130
    1   AR   Ar  242   5.266   6.210   1.530
    1   AR   Ar  243   5.815   4.743   2.128
    1   AR   Ar  244   6.700   5.884  -0.012
    1   AR   Ar  245   5.279   5.556   2.272
    1   AR   Ar  246   5.831   6.474   2.404
    1   AR   Ar  247   5.622   3.641   2.586
    1   AR   Ar  248   6.048   6.849   0.953
    1   AR   Ar  249   5.557   4.546   3.285
    1   AR   Ar  250   4.560   6.388   4.037
    1   AR   Ar  251   5.262   5.511   4.254
    1   AR   Ar  252   5.780   5.598   3.349
    1   AR   Ar  253   5.892   5.200   5.428
    1   AR   Ar  254   5.515   5.855   6.448
    1   AR   Ar  255   5.495   4.332   6.306
    1   AR   Ar  256   6.112   6.071   4.843
    7.12000  7.12000 12.00000
Argon-slab step 900
  256
    1   AR   Ar    1   0.660   0.558  -0.550
    1   AR   Ar    2   7.005   0.381   0.953
    1   AR   Ar    3   0.269   6.610   0.122
    1   AR   Ar    4   1.466   0.451   0.282
    1   AR   Ar    5   6.969   6.321   1.078
    1   AR   Ar    6   0.147   0.153   2.980
    1   AR   Ar    7   7.058   6.317   2.220
    1   AR   Ar    8   0.823   6.963   1.804
    1   AR   Ar    9   0.527   0.813   4.353
    1   AR   Ar   10   6.854   1.724   4.280
    1   AR   Ar   11   2.176   0.037   4.772
    1   AR   Ar   12   1.226   0.923   3.546
    1   AR   Ar   13   7.040   0.867   5.165
    1   AR   Ar   14   0.376   1.266   6.086
    1   AR   Ar   15   0.763   6.183   7.811
    1   AR   Ar   16   1.190   0.957   5.403
    1   AR   Ar   17   6.786   1.593   0.207
    1   AR   Ar   18   6.946   2.990   0.224
    1   AR   Ar   19   0.826   1.334   0.916
    1   AR   Ar   20   0.333   3.113  -1.464
    1   AR   Ar   21   6.659   0.157   2.088
    1   AR   Ar   22   6.846   2.413   2.757
    1   AR   Ar   23   7.051   1.214   2.371
    1   AR   Ar   24   0.204   2.656   1.862
    1   AR   Ar   25   0.395   1.452   3.358
    1   AR   Ar   26   6.326   1.758   3.411
    1   AR   Ar   27   1.113   1.971   5.112
    1   AR   Ar   28   0.389   3.132   4.864
    1   AR   Ar   29   6.462   1.661   5.861
    1   AR   Ar   30   6.645   2.820   6.610
    1   AR   Ar   31   0.772   1.280   7.243
    1   AR   Ar   32   1.804   2.778   5.237
    1   AR   Ar   33   1.175   3.691  -0.881
    1   AR   Ar   34   0.493   4.606   1.268
    1   AR   Ar   35   0.397   3.723   0.603
    1   AR   Ar   36   1.725   6.681  -0.914
    1   AR   Ar   37   0.337   3.288   2.703
    1   AR   Ar   38   0.743   4.686   2.420
    1   AR   Ar   39   1.207   3.846   2.873
    1   AR   Ar   40   1.440   4.306   1.806
    1   AR   Ar   41   0.919   2.392   2.942
    1   AR   Ar   42   6.750   5.140   4.957
    1   AR   Ar   43   6.935   2.357   5.209
    1   AR   Ar   44   0.538   3.664   3.637
    1   AR   Ar   45   0.721   3.785   5.735
    1   AR   Ar   46   6.774   4.530   6.436
    1   AR   Ar   47   0.149   3.661   6.739
    1   AR   Ar   48   0.206   5.353   6.166
    1   AR   Ar   49   0.593   5.133  -0.824
    1   AR   Ar   50   6.298   5.671   1.545
    1   AR   Ar   51   1.294   4.647   0.336
    1   AR   Ar   52   0.589   5.541   0.640
    1   AR   Ar   53   6.629   5.487   2.661
    1   AR   Ar   54   6.581   6.506   3.397
    1   AR   Ar   55   0.605   5.512   3.261
    1   AR   Ar   56   1.160   5.792   1.708
    1   AR   Ar   57   6.511   4.148   2.804
    1   AR   Ar   58   0.059   5.990   4.085
    1   AR   Ar   59   1.747   6.229   5.037
    1   AR   Ar   60   0.614   6.900   4.004
    1   AR   Ar   61   6.480   5.856   5.918
    1   AR   Ar   62   0.411   6.053   5.398
    1   AR   Ar   63   1.337   5.341   5.788
    1   AR   Ar   64   1.107   7.065   5.070
    1   AR   Ar   65   2.351   6.741   0.400
    1   AR   Ar   66   1.876   0.996   1.418
    1   AR   Ar   67   3.532   6.175   0.124
    1   AR   Ar   68   4.075   0.830   0.051
    1   AR   Ar   69   1.597   6.967   1.177
    1   AR   Ar   70   1.745   0.119   2.427
    1   AR   Ar   71   2.800   0.263   1.958
    1   AR   Ar   72   3.008   0.858   0.977
    1   AR   Ar   73   1.932   6.741   3.682
    1   AR   Ar   74   1.968   1.282   4.481
    1   AR   Ar   75   2.836   0.805   4.718
    1   AR   Ar   76   2.322   0.754   3.014
    1   AR   Ar   77   1.996   0.310   5.877
    1   AR   Ar   78   1.060   0.472   6.619
    1   AR   Ar   79   3.290   6.330   6.854
    1   AR   Ar   80   2.828   6.871   5.500
    1   AR   Ar   81   1.825   1.628   0.478
    1   AR   Ar   82   1.866   2.965   0.462
    1   AR   Ar   83   2.733   1.756   1.704
    1   AR   Ar   84   2.260   2.910  -1.152
    1   AR   Ar   85   1.640   2.125   1.354
    1   AR   Ar   86   2.035   2.370   2.290
    1   AR   Ar   87   1.989   1.355   2.338
    1   AR   Ar   88   3.420   3.828   1.322
    1   AR   Ar   89   0.991   1.626   2.077
    1   AR   Ar   90   3.071   2.173   4.979
    1   AR   Ar   91   2.583   2.174   3.990
    1   AR   Ar   92   1.864   1.883   3.245
    1   AR   Ar   93   1.312   1.657   6.151
    1   AR   Ar   94   2.713   1.673   8.170
    1   AR   Ar   95   2.628   0.469   6.910
    1   AR   Ar   96   2.245   2.115   6.606
    1   AR   Ar   97   2.767   3.936  -1.500
    1   AR   Ar   98   3.036   4.777   1.542
    1   AR   Ar   99   3.393   2.966  -1.445
    1   AR   Ar  100   2.285   5.104  -0.186
    1   AR   Ar  101   1.230   3.051   2.020
    1   AR   Ar  102   1.695   4.217   3.683
    1   AR   Ar  103   2.290   3.652   2.090
    1   AR   Ar  104   3.420   3.550   0.181
    1   AR   Ar  105   1.778   2.882   3.861
    1   AR   Ar  106   2.711   3.225   4.781
    1   AR   Ar  107   2.707   4.047   5.461
    1   AR   Ar  108   3.322   3.457   3.727
    1   AR   Ar  109   1.000   3.952   4.607
    1   AR   Ar  110   1.827   4.396   4.918
    1   AR   Ar  111   4.127   5.302   7.261
    1   AR   Ar  112   2.475   3.167   6.028
    1   AR   Ar  113   2.489   4.284   0.732
    1   AR   Ar  114   2.158   5.773   0.842
    1   AR   Ar  115   3.134   5.420   0.594
    1   AR   Ar  116   3.589   0.035   0.480
    1   AR   Ar  117   1.707   4.989   2.809
    1   AR   Ar  118   1.157   6.489   2.699
    1   AR   Ar  119   2.567   4.407   2.822
    1   AR   Ar  120   2.093   5.210   1.921
    1   AR   Ar  121   0.485   4.734   4.050
    1   AR   Ar  122   2.874   6.173   4.139
    1   AR   Ar  123   2.301   5.137   4.440
    1   AR   Ar  124   2.466   5.751   2.940
    1   AR   Ar  125   0.993   5.392   4.788
    1   AR   Ar  126   1.014   6.358   6.186
    1   AR   Ar  127   2.666   5.406   7.639
    1   AR   Ar  128   2.083   6.192   6.190
    1   AR   Ar  129   3.037   6.571   1.151
    1   AR   Ar  130   3.345   6.841  -0.972
    1   AR   Ar  131   4.977   6.480   0.566
    1   AR   Ar  132   5.631   2.243  -0.641
    1   AR   Ar  133   3.883   7.016   2.542
    1   AR   Ar  134   3.525   0.756   2.859
    1   AR   Ar  135   4.916   0.309   2.951
    1   AR   Ar  136   4.365   0.647   1.838
    1   AR   Ar  137   2.897   0.262   3.738
    1   AR   Ar  138   4.939   0.987   4.826
    1   AR   Ar  139   4.873   0.222   3.950
    1   AR   Ar  140   4.216   1.534   3.554
    1   AR   Ar  141   3.742   7.087   4.522
    1   AR   Ar  142   3.810   6.880   5.909
    1   AR   Ar  143   5.504   0.344   6.725
    1   AR   Ar  144   5.155   1.473   7.039
    1   AR   Ar  145   2.920   2.626   0.551
    1   AR   Ar  146   4.012   3.004   0.945
    1   AR   Ar  147   4.975   1.853   0.726
    1   AR   Ar  148   6.025   3.232  -0.999
    1   AR   Ar  149   3.916   1.780   1.095
    1   AR   Ar  150   2.976   1.750   2.762
    1   AR   Ar  151   3.572   2.368   3.743
    1   AR   Ar  152   3.319   2.631   1.601
    1   AR   Ar  153   3.064   1.304   3.813
    1   AR   Ar  154   4.234   1.691   4.686
    1   AR   Ar  155   5.450   1.369   5.913
    1   AR   Ar  156   4.503   3.486   3.994
    1   AR   Ar  157   3.978   1.948   5.821
    1   AR   Ar  158   3.252   2.402   6.621
    1   AR   Ar  159   4.486   1.024   6.166
    1   AR   Ar  160   4.500   2.905   5.485
    1   AR   Ar  161   4.763   2.423  -0.098
    1   AR   Ar  162   4.792   5.259   0.887
    1   AR   Ar  163   5.466   3.225   0.531
    1   AR   Ar  164   5.729   4.640   0.974
    1   AR   Ar  165   3.409   3.617   2.547
    1   AR   Ar  166   3.691   4.933   3.559
    1   AR   Ar  167   4.291   2.981   3.080
    1   AR   Ar  168   4.477   3.890   1.103
    1   AR   Ar  169   2.610   2.776   3.147
    1   AR   Ar  170   2.902   4.207   4.379
    1   AR   Ar  171   3.873   3.610   4.846
    1   AR   Ar  172   4.681   4.632   4.254
    1   AR   Ar  173   3.513   3.094   5.702
    1   AR   Ar  174   4.244   5.427   6.096
    1   AR   Ar  175   3.799   4.117   5.987
    1   AR   Ar  176   3.678   4.645   5.104
    1   AR   Ar  177   5.630   5.664   0.385
    1   AR   Ar  178   4.160   6.486   1.283
    1   AR   Ar  179   4.047   5.340   1.510
    1   AR   Ar  180   4.404   5.504  -0.266
    1   AR   Ar  181   3.180   5.723   1.678
    1   AR   Ar  182   2.212   6.239   1.865
    1   AR   Ar  183   3.653   4.652   2.359
    1   AR   Ar  184   3.986   5.997   2.369
    1   AR   Ar  185   1.510   5.852   3.855
    1   AR   Ar  186   3.756   5.596   4.311
    1   AR   Ar  187   4.520   5.425   3.250
    1   AR   Ar  188   3.593   6.129   3.374
    1   AR   Ar  189   2.605   5.119   5.853
    1   AR   Ar  190   4.648   6.442   6.401
    1   AR   Ar  191   4.472   5.573   5.092
    1   AR   Ar  192   3.362   6.132   5.128
    1   AR   Ar  193   5.585   0.101   0.009
    1   AR   Ar  194   4.513   7.064  -0.090
    1   AR   Ar  195   6.021   0.963   0.812
    1   AR   Ar  196   6.216   1.012  -0.699
    1   AR   Ar  197   5.143   0.337   0.941
    1   AR   Ar  198   5.114   1.417   1.697
    1   AR   Ar  199   5.389   0.307   1.948
    1   AR   Ar  200   6.981   1.620   1.234
    1   AR   Ar  201   4.827   6.429   2.874
    1   AR   Ar  202   5.444   1.205   3.823
    1   AR   Ar  203   6.828   6.909   4.651
    1   AR   Ar  204   6.048   0.394   2.902
    1   AR   Ar  205   5.616   6.448   3.726
    1   AR   Ar  206   4.787   6.740   5.330
    1   AR   Ar  207   0.135   0.053   5.822
    1   AR   Ar  208   6.331   0.583   4.144
    1   AR   Ar  209   6.646   1.860  -1.440
    1   AR   Ar  210   5.168   2.603   1.515
    1   AR   Ar  211   5.973   2.160   0.537
    1   AR   Ar  212   6.933   3.560  -0.628
    1   AR   Ar  213   4.314   2.279   2.198
    1   AR   Ar  214   4.218   3.315   2.129
    1   AR   Ar  215   5.631   2.494   2.668
    1   AR   Ar  216   6.229   2.744   1.731
    1   AR   Ar  217   5.113   2.377   3.846
    1   AR   Ar  218   5.747   1.718   4.726
    1   AR   Ar  219   5.282   1.292   2.758
    1   AR   Ar  220   6.423   3.211   3.218
    1   AR   Ar  221   5.899   0.506   5.159
    1   AR   Ar  222   4.916   2.213   6.414
    1   AR   Ar  223   6.798   1.725   7.416
    1   AR   Ar  224   5.784   2.604   5.817
    1   AR   Ar  225   5.111   4.310   0.106
    1   AR   Ar  226   4.740   4.661   1.887
    1   AR   Ar  227   7.051   3.881   1.849
    1   AR   Ar  228   6.711   4.994   0.576
    1   AR   Ar  229   6.386   3.628   1.049
    1   AR   Ar  230   4.319   4.059   3.101
    1   AR   Ar  231   0.129   2.686   3.712
    1   AR   Ar  232   5.363   3.763   1.629
    1   AR   Ar  233   6.254   2.564   4.228
    1   AR   Ar  234   5.808   4.108   5.107
    1   AR   Ar  235   6.660   3.822   4.546
    1   AR   Ar  236   5.769   3.687   3.956
    1   AR   Ar  237   5.277   3.050   4.705
    1   AR   Ar  238   4.747   4.557   5.693
    1   AR   Ar  239   5.773   4.085   7.314
    1   AR   Ar  240   6.565   3.671   5.900
    1   AR   Ar  241   6.709   0.349  -0.133
    1   AR   Ar  242   5.271   6.208   1.552
    1   AR   Ar  243   5.803   4.740   2.130
    1   AR   Ar  244   6.693   5.867  -0.007
    1   AR   Ar  245   5.231   5.535   2.256
    1   AR   Ar  246   5.843   6.485   2.365
    1   AR   Ar  247   5.619   3.658   2.553
    1   AR   Ar  248   6.058   6.881   0.953
    1   AR   Ar  249   5.509   4.532   3.274
    1   AR   Ar  250   4.548   6.379   4.081
    1   AR   Ar  251   5.252   5.520   4.275
    1   AR   Ar  252   5.749   5.617   3.333
    1   AR   Ar  253   5.876   5.193   5.442
    1   AR   Ar  254   5.528   5.848   6.442
    1   AR   Ar  255   5.461   4.322   6.341
    1   AR   Ar  256   6.111   6.075   4.856
    7.12000  7.12000 12.00000
Argon-slab step 905
  256
    1   AR   Ar    1   0.645   0.554  -0.567
    1   AR   Ar    2   7.010   0.381   0.914
    1   AR   Ar    3   0.242   6.614   0.132
    1   AR   Ar    4   1.467   0.462   0.276
    1   AR   Ar    5   6.967   6.274   1.070
    1   AR   Ar    6   0.136   0.145   3.046
    1   AR   Ar    7   7.093   6.304   2.273
    1   AR   Ar    8   0.813   6.958   1.815
    1   AR   Ar    9   0.526   0.835   4.333
    1   AR   Ar   10   6.841   1.724   4.312
    1   AR   Ar   11   2.182   0.045   4.752
    1   AR   Ar   12   1.231   0.945   3.557
    1   AR   Ar   13   7.026   0.902   5.170
    1   AR   Ar   14   0.400   1.292   6.092
    1   AR   Ar   15   0.736   6.173   7.863
    1   AR   Ar   16   1.161   0.910   5.391
    1   AR   Ar   17   6.767   1.606   0.225
    1   AR   Ar   18   6.946   2.978   0.196
    1   AR   Ar   19   0.862   1.333   0.903
    1   AR   Ar   20   0.327   3.129  -1.448
    1   AR   Ar   21   6.693   0.166   2.076
    1   AR   Ar   22   6.831   2.359   2.737
    1   AR   Ar   23   7.047   1.231   2.351
    1   AR   Ar   24   0.163   2.642   1.883
    1   AR   Ar   25   0.388   1.465   3.378
    1   AR   Ar   26   6.317   1.767   3.430
    1   AR   Ar   27   1.104   1.979   5.097
    1   AR   Ar   28   0.390   3.173   4.891
    1   AR   Ar   29   6.468   1.663   5.899
    1   AR   Ar   30   6.608   2.810   6.627
    1   AR   Ar   31   0.785   1.280   7.241
    1   AR   Ar   32   1.814   2.779   5.229
    1   AR   Ar   33   1.175   3.698  -0.920
    1   AR   Ar   34   0.491   4.612   1.266
    1   AR   Ar   35   0.409   3.753   0.602
    1   AR   Ar   36   1.709   6.671  -0.960
    1   AR   Ar   37   0.334   3.307   2.702
    1   AR   Ar   38   0.731   4.683   2.432
    1   AR   Ar   39   1.213   3.832   2.869
    1   AR   Ar   40   1.432   4.299   1.797
    1   AR   Ar   41   0.892   2.390   2.915
    1   AR   Ar   42   6.756   5.117   4.948
    1   AR   Ar   43   6.921   2.324   5.223
    1   AR   Ar   44   0.537   3.645   3.628
    1   AR   Ar   45   0.707   3.754   5.704
    1   AR   Ar   46   6.766   4.558   6.431
    1   AR   Ar   47   0.147   3.700   6.757
    1   AR   Ar   48   0.193   5.378   6.187
    1   AR   Ar   49   0.589   5.176  -0.823
    1   AR   Ar   50   6.294   5.687   1.526
    1   AR   Ar   51   1.281   4.670   0.310
    1   AR   Ar   52   0.575   5.522   0.593
    1   AR   Ar   53   6.625   5.468   2.655
    1   AR   Ar   54   6.568   6.501   3.403
    1   AR   Ar   55   0.585   5.498   3.253
    1   AR   Ar   56   1.168   5.792   1.738
    1   AR   Ar   57   6.541   4.148   2.822
    1   AR   Ar   58   0.052   6.003   4.071
    1   AR   Ar   59   1.763   6.223   5.010
    1   AR   Ar   60   0.616   6.906   3.970
    1   AR   Ar   61   6.456   5.887   5.910
    1   AR   Ar   62   0.379   6.074   5.383
    1   AR   Ar   63   1.333   5.353   5.805
    1   AR   Ar   64   1.096   7.038   5.076
    1   AR   Ar   65   2.347   6.768   0.393
    1   AR   Ar   66   1.883   1.008   1.421
    1   AR   Ar   67   3.552   6.185   0.136
    1   AR   Ar   68   4.052   0.838   0.031
    1   AR   Ar   69   1.574   6.949   1.176
    1   AR   Ar   70   1.752   0.138   2.433
    1   AR   Ar   71   2.793   0.246   1.909
    1   AR   Ar   72   2.998   0.844   0.971
    1   AR   Ar   73   1.910   6.745   3.673
    1   AR   Ar   74   1.974   1.284   4.502
    1   AR   Ar   75   2.855   0.768   4.708
    1   AR   Ar   76   2.333   0.755   2.995
    1   AR   Ar   77   1.959   0.312   5.857
    1   AR   Ar   78   1.059   0.467   6.605
    1   AR   Ar   79   3.303   6.340   6.841
    1   AR   Ar   80   2.805   6.878   5.517
    1   AR   Ar   81   1.831   1.624   0.473
    1   AR   Ar   82   1.866   2.948   0.486
    1   AR   Ar   83   2.729   1.745   1.684
    1   AR   Ar   84   2.277   2.914  -1.179
    1   AR   Ar   85   1.650   2.132   1.313
    1   AR   Ar   86   2.026   2.386   2.317
    1   AR   Ar   87   1.973   1.344   2.311
    1   AR   Ar   88   3.411   3.828   1.309
    1   AR   Ar   89   0.997   1.629   2.089
    1   AR   Ar   90   3.075   2.159   5.000
    1   AR   Ar   91   2.575   2.168   4.028
    1   AR   Ar   92   1.860   1.861   3.234
    1   AR   Ar   93   1.317   1.664   6.156
    1   AR   Ar   94   2.711   1.676   8.196
    1   AR   Ar   95   2.645   0.446   6.882
    1   AR   Ar   96   2.229   2.110   6.624
    1   AR   Ar   97   2.761   3.948  -1.464
    1   AR   Ar   98   3.033   4.778   1.498
    1   AR   Ar   99   3.394   2.966  -1.437
    1   AR   Ar  100   2.303   5.074  -0.206
    1   AR   Ar  101   1.232   3.072   2.031
    1   AR   Ar  102   1.705   4.219   3.687
    1   AR   Ar  103   2.258   3.638   2.064
    1   AR   Ar  104   3.432   3.552   0.205
    1   AR   Ar  105   1.736   2.902   3.881
    1   AR   Ar  106   2.702   3.205   4.784
    1   AR   Ar  107   2.705   4.037   5.449
    1   AR   Ar  108   3.316   3.448   3.739
    1   AR   Ar  109   1.016   3.957   4.578
    1   AR   Ar  110   1.826   4.347   4.887
    1   AR   Ar  111   4.140   5.293   7.257
    1   AR   Ar  112   2.472   3.171   5.997
    1   AR   Ar  113   2.526   4.265   0.732
    1   AR   Ar  114   2.195   5.787   0.844
    1   AR   Ar  115   3.156   5.415   0.636
    1   AR   Ar  116   3.585   7.114   0.458
    1   AR   Ar  117   1.687   4.969   2.821
    1   AR   Ar  118   1.141   6.509   2.694
    1   AR   Ar  119   2.576   4.406   2.813
    1   AR   Ar  120   2.081   5.172   1.918
    1   AR   Ar  121   0.450   4.737   4.059
    1   AR   Ar  122   2.843   6.150   4.144
    1   AR   Ar  123   2.361   5.145   4.428
    1   AR   Ar  124   2.473   5.736   2.948
    1   AR   Ar  125   0.992   5.408   4.784
    1   AR   Ar  126   1.029   6.375   6.176
    1   AR   Ar  127   2.684   5.389   7.612
    1   AR   Ar  128   2.055   6.190   6.195
    1   AR   Ar  129   3.009   6.600   1.123
    1   AR   Ar  130   3.338   6.835  -0.970
    1   AR   Ar  131   4.989   6.425   0.574
    1   AR   Ar  132   5.614   2.247  -0.645
    1   AR   Ar  133   3.915   7.008   2.508
    1   AR   Ar  134   3.526   0.774   2.879
    1   AR   Ar  135   4.907   0.325   2.945
    1   AR   Ar  136   4.376   0.659   1.836
    1   AR   Ar  137   2.917   0.225   3.734
    1   AR   Ar  138   4.936   0.977   4.886
    1   AR   Ar  139   4.892   0.245   3.948
    1   AR   Ar  140   4.238   1.545   3.565
    1   AR   Ar  141   3.752   7.087   4.507
    1   AR   Ar  142   3.814   6.882   5.947
    1   AR   Ar  143   5.511   0.369   6.738
    1   AR   Ar  144   5.142   1.454   7.046
    1   AR   Ar  145   2.954   2.644   0.585
    1   AR   Ar  146   3.986   3.051   0.949
    1   AR   Ar  147   4.972   1.855   0.750
    1   AR   Ar  148   6.029   3.255  -1.027
    1   AR   Ar  149   3.920   1.789   1.090
    1   AR   Ar  150   2.989   1.750   2.726
    1   AR   Ar  151   3.604   2.412   3.755
    1   AR   Ar  152   3.306   2.636   1.611
    1   AR   Ar  153   3.076   1.279   3.796
    1   AR   Ar  154   4.220   1.702   4.669
    1   AR   Ar  155   5.474   1.346   5.886
    1   AR   Ar  156   4.479   3.432   3.987
    1   AR   Ar  157   3.955   1.976   5.824
    1   AR   Ar  158   3.226   2.404   6.615
    1   AR   Ar  159   4.503   1.025   6.161
    1   AR   Ar  160   4.503   2.900   5.504
    1   AR   Ar  161   4.767   2.429  -0.102
    1   AR   Ar  162   4.829   5.253   0.904
    1   AR   Ar  163   5.445   3.222   0.555
    1   AR   Ar  164   5.701   4.643   0.953
    1   AR   Ar  165   3.396   3.641   2.554
    1   AR   Ar  166   3.669   4.945   3.547
    1   AR   Ar  167   4.315   3.006   3.035
    1   AR   Ar  168   4.476   3.900   1.063
    1   AR   Ar  169   2.609   2.779   3.162
    1   AR   Ar  170   2.880   4.218   4.375
    1   AR   Ar  171   3.901   3.617   4.836
    1   AR   Ar  172   4.685   4.646   4.273
    1   AR   Ar  173   3.526   3.035   5.720
    1   AR   Ar  174   4.224   5.398   6.087
    1   AR   Ar  175   3.811   4.122   5.990
    1   AR   Ar  176   3.684   4.668   5.081
    1   AR   Ar  177   5.637   5.646   0.377
    1   AR   Ar  178   4.169   6.470   1.298
    1   AR   Ar  179   4.060   5.313   1.497
    1   AR   Ar  180   4.392   5.491  -0.256
    1   AR   Ar  181   3.182   5.717   1.669
    1   AR   Ar  182   2.201   6.259   1.869
    1   AR   Ar  183   3.660   4.637   2.382
    1   AR   Ar  184   3.995   5.976   2.350
    1   AR   Ar  185   1.477   5.859   3.878
    1   AR   Ar  186   3.729   5.612   4.298
    1   AR   Ar  187   4.546   5.420   3.240
    1   AR   Ar  188   3.605   6.110   3.405
    1   AR   Ar  189   2.597   5.159   5.849
    1   AR   Ar  190   4.661   6.453   6.374
    1   AR   Ar  191   4.483   5.593   5.103
    1   AR   Ar  192   3.327   6.151   5.148
    1   AR   Ar  193   5.559   0.102  -0.021
    1   AR   Ar  194   4.573   7.067  -0.081
    1   AR   Ar  195   6.037   0.960   0.805
    1   AR   Ar  196   6.228   0.995  -0.709
    1   AR   Ar  197   5.134   0.336   0.909
    1   AR   Ar  198   5.140   1.424   1.713
    1   AR   Ar  199   5.417   0.273   1.957
    1   AR   Ar  200   6.967   1.615   1.229
    1   AR   Ar  201   4.842   6.453   2.846
    1   AR   Ar  202   5.450   1.183   3.831
    1   AR   Ar  203   6.806   6.908   4.676
    1   AR   Ar  204   6.069   0.394   2.908
    1   AR   Ar  205   5.624   6.478   3.728
    1   AR   Ar  206   4.798   6.751   5.330
    1   AR   Ar  207   0.135   0.052   5.836
    1   AR   Ar  208   6.331   0.586   4.122
    1   AR   Ar  209   6.653   1.875  -1.438
    1   AR   Ar  210   5.159   2.603   1.531
    1   AR   Ar  211   5.987   2.145   0.541
    1   AR   Ar  212   6.920   3.544  -0.640
    1   AR   Ar  213   4.301   2.297   2.148
    1   AR   Ar  214   4.232   3.296   2.103
    1   AR   Ar  215   5.605   2.519   2.675
    1   AR   Ar  216   6.202   2.777   1.741
    1   AR   Ar  217   5.129   2.354   3.839
    1   AR   Ar  218   5.762   1.693   4.728
    1   AR   Ar  219   5.287   1.316   2.740
    1   AR   Ar  220   6.409   3.233   3.218
    1   AR   Ar  221   5.931   0.469   5.169
    1   AR   Ar  222   4.928   2.248   6.391
    1   AR   Ar  223   6.782   1.705   7.417
    1   AR   Ar  224   5.777   2.613   5.812
    1   AR   Ar  225   5.137   4.310   0.096
    1   AR   Ar  226   4.725   4.653   1.906
    1   AR   Ar  227   7.075   3.885   1.814
    1   AR   Ar  228   6.725   4.994   0.589
    1   AR   Ar  229   6.398   3.621   1.033
    1   AR   Ar  230   4.298   4.068   3.090
    1   AR   Ar  231   0.153   2.660   3.712
    1   AR   Ar  232   5.380   3.785   1.604
    1   AR   Ar  233   6.258   2.607   4.276
    1   AR   Ar  234   5.803   4.144   5.118
    1   AR   Ar  235   6.688   3.827   4.555
    1   AR   Ar  236   5.734   3.651   3.945
    1   AR   Ar  237   5.288   3.066   4.704
    1   AR   Ar  238   4.727   4.545   5.709
    1   AR   Ar  239   5.766   4.088   7.282
    1   AR   Ar  240   6.580   3.694   5.883
    1   AR   Ar  241   6.706   0.379  -0.129
    1   AR   Ar  242   5.285   6.231   1.535
    1   AR   Ar  243   5.799   4.728   2.130
    1   AR   Ar  244   6.683   5.850  -0.003
    1   AR   Ar  245   5.177   5.516   2.254
    1   AR   Ar  246   5.860   6.496   2.332
    1   AR   Ar  247   5.617   3.672   2.536
    1   AR   Ar  248   6.066   6.913   0.955
    1   AR   Ar  249   5.458   4.518   3.263
    1   AR   Ar  250   4.533   6.363   4.126
    1   AR   Ar  251   5.242   5.532   4.299
    1   AR   Ar  252   5.722   5.609   3.300
    1   AR   Ar  253   5.847   5.181   5.459
    1   AR   Ar  254   5.542   5.838   6.435
    1   AR   Ar  255   5.435   4.311   6.377
    1   AR   Ar  256   6.131   6.079   4.873
    7.12000  7.12000 12.00000
Argon-slab step 910
  256
    1   AR   Ar    1   0.630   0.549  -0.582
    1   AR   Ar    2   7.015   0.381   0.877
    1   AR   Ar    3   0.233   6.620   0.133
    1   AR   Ar    4   1.467   0.473   0.271
    1   AR   Ar    5   6.971   6.232   1.060
    1   AR   Ar    6   0.126   0.138   3.110
    1   AR   Ar    7   0.011   6.294   2.324
    1   AR   Ar    8   0.792   6.954   1.830
    1   AR   Ar    9   0.525   0.856   4.313
    1   AR   Ar   10   6.832   1.720   4.347
    1   AR   Ar   11   2.177   0.049   4.726
    1   AR   Ar   12   1.247   0.963   3.567
    1   AR   Ar   13   7.009   0.937   5.177
    1   AR   Ar   14   0.415   1.313   6.097
    1   AR   Ar   15   0.710   6.163   7.915
    1   AR   Ar   16   1.132   0.866   5.377
    1   AR   Ar   17   6.773   1.595   0.235
    1   AR   Ar   18   6.942   2.958   0.173
    1   AR   Ar   19   0.900   1.331   0.890
    1   AR   Ar   20   0.322   3.144  -1.434
    1   AR   Ar   21   6.728   0.176   2.060
    1   AR   Ar   22   6.814   2.301   2.720
    1   AR   Ar   23   7.043   1.250   2.331
    1   AR   Ar   24   0.127   2.629   1.896
    1   AR   Ar   25   0.374   1.484   3.396
    1   AR   Ar   26   6.304   1.773   3.447
    1   AR   Ar   27   1.094   1.985   5.080
    1   AR   Ar   28   0.393   3.190   4.909
    1   AR   Ar   29   6.477   1.664   5.939
    1   AR   Ar   30   6.570   2.800   6.642
    1   AR   Ar   31   0.797   1.282   7.239
    1   AR   Ar   32   1.824   2.781   5.220
    1   AR   Ar   33   1.174   3.704  -0.958
    1   AR   Ar   34   0.491   4.621   1.263
    1   AR   Ar   35   0.422   3.785   0.602
    1   AR   Ar   36   1.688   6.652  -1.021
    1   AR   Ar   37   0.324   3.323   2.695
    1   AR   Ar   38   0.705   4.675   2.437
    1   AR   Ar   39   1.226   3.818   2.857
    1   AR   Ar   40   1.427   4.289   1.785
    1   AR   Ar   41   0.866   2.387   2.887
    1   AR   Ar   42   6.767   5.096   4.938
    1   AR   Ar   43   6.903   2.295   5.225
    1   AR   Ar   44   0.534   3.630   3.631
    1   AR   Ar   45   0.694   3.726   5.675
    1   AR   Ar   46   6.751   4.587   6.428
    1   AR   Ar   47   0.148   3.737   6.776
    1   AR   Ar   48   0.188   5.406   6.206
    1   AR   Ar   49   0.586   5.219  -0.821
    1   AR   Ar   50   6.282   5.698   1.511
    1   AR   Ar   51   1.268   4.694   0.285
    1   AR   Ar   52   0.560   5.504   0.547
    1   AR   Ar   53   6.619   5.445   2.651
    1   AR   Ar   54   6.560   6.497   3.401
    1   AR   Ar   55   0.551   5.482   3.287
    1   AR   Ar   56   1.175   5.793   1.769
    1   AR   Ar   57   6.574   4.156   2.837
    1   AR   Ar   58   0.046   6.012   4.063
    1   AR   Ar   59   1.779   6.211   4.985
    1   AR   Ar   60   0.602   6.908   3.963
    1   AR   Ar   61   6.436   5.923   5.900
    1   AR   Ar   62   0.344   6.097   5.365
    1   AR   Ar   63   1.320   5.359   5.809
    1   AR   Ar   64   1.081   7.010   5.082
    1   AR   Ar   65   2.337   6.798   0.379
    1   AR   Ar   66   1.877   1.005   1.410
    1   AR   Ar   67   3.575   6.191   0.139
    1   AR   Ar   68   4.028   0.852   0.011
    1   AR   Ar   69   1.560   6.930   1.171
    1   AR   Ar   70   1.762   0.161   2.431
    1   AR   Ar   71   2.775   0.215   1.888
    1   AR   Ar   72   2.988   0.831   0.967
    1   AR   Ar   73   1.892   6.757   3.662
    1   AR   Ar   74   1.977   1.287   4.522
    1   AR   Ar   75   2.884   0.733   4.697
    1   AR   Ar   76   2.354   0.752   2.991
    1   AR   Ar   77   1.920   0.313   5.838
    1   AR   Ar   78   1.058   0.461   6.587
    1   AR   Ar   79   3.326   6.358   6.844
    1   AR   Ar   80   2.788   6.893   5.531
    1   AR   Ar   81   1.841   1.615   0.460
    1   AR   Ar   82   1.852   2.935   0.514
    1   AR   Ar   83   2.724   1.731   1.661
    1   AR   Ar   84   2.298   2.908  -1.208
    1   AR   Ar   85   1.659   2.143   1.282
    1   AR   Ar   86   2.019   2.406   2.343
    1   AR   Ar   87   1.956   1.341   2.293
    1   AR   Ar   88   3.400   3.827   1.300
    1   AR   Ar   89   0.999   1.635   2.101
    1   AR   Ar   90   3.080   2.145   5.022
    1   AR   Ar   91   2.564   2.163   4.069
    1   AR   Ar   92   1.863   1.839   3.227
    1   AR   Ar   93   1.331   1.674   6.163
    1   AR   Ar   94   2.709   1.678   8.222
    1   AR   Ar   95   2.660   0.422   6.852
    1   AR   Ar   96   2.209   2.105   6.641
    1   AR   Ar   97   2.755   3.959  -1.428
    1   AR   Ar   98   3.026   4.767   1.455
    1   AR   Ar   99   3.370   2.972  -1.409
    1   AR   Ar  100   2.321   5.044  -0.224
    1   AR   Ar  101   1.233   3.093   2.042
    1   AR   Ar  102   1.722   4.217   3.679
    1   AR   Ar  103   2.228   3.623   2.039
    1   AR   Ar  104   3.441   3.557   0.228
    1   AR   Ar  105   1.694   2.922   3.901
    1   AR   Ar  106   2.686   3.196   4.805
    1   AR   Ar  107   2.707   4.032   5.438
    1   AR   Ar  108   3.311   3.441   3.750
    1   AR   Ar  109   1.016   3.955   4.541
    1   AR   Ar  110   1.842   4.305   4.863
    1   AR   Ar  111   4.109   5.278   7.270
    1   AR   Ar  112   2.469   3.172   5.967
    1   AR   Ar  113   2.561   4.244   0.729
    1   AR   Ar  114   2.230   5.801   0.848
    1   AR   Ar  115   3.171   5.398   0.665
    1   AR   Ar  116   3.583   7.085   0.438
    1   AR   Ar  117   1.662   4.950   2.841
    1   AR   Ar  118   1.121   6.519   2.696
    1   AR   Ar  119   2.588   4.405   2.803
    1   AR   Ar  120   2.046   5.164   1.901
    1   AR   Ar  121   0.414   4.739   4.068
    1   AR   Ar  122   2.807   6.130   4.150
    1   AR   Ar  123   2.421   5.157   4.415
    1   AR   Ar  124   2.480   5.722   2.957
    1   AR   Ar  125   0.991   5.423   4.778
    1   AR   Ar  126   1.040   6.395   6.165
    1   AR   Ar  127   2.673   5.395   7.619
    1   AR   Ar  128   2.033   6.188   6.198
    1   AR   Ar  129   2.990   6.623   1.113
    1   AR   Ar  130   3.355   6.843  -0.989
    1   AR   Ar  131   5.000   6.367   0.582
    1   AR   Ar  132   5.605   2.250  -0.652
    1   AR   Ar  133   3.948   7.000   2.473
    1   AR   Ar  134   3.525   0.796   2.901
    1   AR   Ar  135   4.898   0.349   2.931
    1   AR   Ar  136   4.378   0.664   1.820
    1   AR   Ar  137   2.927   0.195   3.742
    1   AR   Ar  138   4.932   0.968   4.934
    1   AR   Ar  139   4.910   0.267   3.953
    1   AR   Ar  140   4.261   1.555   3.574
    1   AR   Ar  141   3.761   7.086   4.492
    1   AR   Ar  142   3.814   6.886   5.982
    1   AR   Ar  143   5.517   0.396   6.750
    1   AR   Ar  144   5.130   1.433   7.052
    1   AR   Ar  145   2.988   2.661   0.620
    1   AR   Ar  146   3.963   3.082   0.950
    1   AR   Ar  147   4.969   1.859   0.772
    1   AR   Ar  148   6.027   3.274  -1.056
    1   AR   Ar  149   3.922   1.799   1.085
    1   AR   Ar  150   3.001   1.751   2.693
    1   AR   Ar  151   3.636   2.454   3.767
    1   AR   Ar  152   3.312   2.648   1.610
    1   AR   Ar  153   3.091   1.255   3.775
    1   AR   Ar  154   4.202   1.716   4.652
    1   AR   Ar  155   5.497   1.324   5.858
    1   AR   Ar  156   4.458   3.378   3.980
    1   AR   Ar  157   3.934   2.013   5.821
    1   AR   Ar  158   3.204   2.407   6.608
    1   AR   Ar  159   4.519   1.026   6.157
    1   AR   Ar  160   4.514   2.894   5.521
    1   AR   Ar  161   4.774   2.439  -0.101
    1   AR   Ar  162   4.872   5.247   0.914
    1   AR   Ar  163   5.424   3.219   0.580
    1   AR   Ar  164   5.672   4.658   0.926
    1   AR   Ar  165   3.374   3.664   2.564
    1   AR   Ar  166   3.644   4.949   3.529
    1   AR   Ar  167   4.339   3.023   3.000
    1   AR   Ar  168   4.466   3.896   1.064
    1   AR   Ar  169   2.610   2.783   3.174
    1   AR   Ar  170   2.859   4.228   4.371
    1   AR   Ar  171   3.925   3.625   4.829
    1   AR   Ar  172   4.685   4.656   4.291
    1   AR   Ar  173   3.531   2.977   5.738
    1   AR   Ar  174   4.202   5.371   6.084
    1   AR   Ar  175   3.820   4.125   5.995
    1   AR   Ar  176   3.690   4.695   5.055
    1   AR   Ar  177   5.652   5.625   0.368
    1   AR   Ar  178   4.180   6.455   1.306
    1   AR   Ar  179   4.067   5.310   1.465
    1   AR   Ar  180   4.387   5.477  -0.251
    1   AR   Ar  181   3.172   5.731   1.668
    1   AR   Ar  182   2.215   6.323   1.861
    1   AR   Ar  183   3.670   4.627   2.404
    1   AR   Ar  184   3.998   5.985   2.349
    1   AR   Ar  185   1.441   5.858   3.903
    1   AR   Ar  186   3.707   5.627   4.294
    1   AR   Ar  187   4.576   5.417   3.230
    1   AR   Ar  188   3.624   6.104   3.425
    1   AR   Ar  189   2.589   5.198   5.843
    1   AR   Ar  190   4.676   6.462   6.349
    1   AR   Ar  191   4.495   5.613   5.110
    1   AR   Ar  192   3.303   6.159   5.164
    1   AR   Ar  193   5.580   0.076  -0.068
    1   AR   Ar  194   4.622   7.069  -0.077
    1   AR   Ar  195   6.056   0.948   0.802
    1   AR   Ar  196   6.231   0.989  -0.726
    1   AR   Ar  197   5.120   0.336   0.880
    1   AR   Ar  198   5.167   1.431   1.726
    1   AR   Ar  199   5.446   0.240   1.966
    1   AR   Ar  200   6.953   1.610   1.230
    1   AR   Ar  201   4.860   6.467   2.818
    1   AR   Ar  202   5.462   1.155   3.842
    1   AR   Ar  203   6.786   6.908   4.702
    1   AR   Ar  204   6.088   0.394   2.917
    1   AR   Ar  205   5.631   6.528   3.723
    1   AR   Ar  206   4.808   6.761   5.327
    1   AR   Ar  207   0.137   0.050   5.849
    1   AR   Ar  208   6.308   0.586   4.111
    1   AR   Ar  209   6.659   1.891  -1.436
    1   AR   Ar  210   5.132   2.608   1.543
    1   AR   Ar  211   5.995   2.136   0.548
    1   AR   Ar  212   6.911   3.536  -0.652
    1   AR   Ar  213   4.288   2.304   2.098
    1   AR   Ar  214   4.252   3.288   2.058
    1   AR   Ar  215   5.580   2.543   2.683
    1   AR   Ar  216   6.176   2.811   1.752
    1   AR   Ar  217   5.145   2.330   3.833
    1   AR   Ar  218   5.779   1.669   4.732
    1   AR   Ar  219   5.293   1.339   2.725
    1   AR   Ar  220   6.395   3.247   3.222
    1   AR   Ar  221   5.964   0.434   5.178
    1   AR   Ar  222   4.931   2.262   6.381
    1   AR   Ar  223   6.766   1.684   7.416
    1   AR   Ar  224   5.772   2.623   5.806
    1   AR   Ar  225   5.162   4.310   0.088
    1   AR   Ar  226   4.712   4.636   1.925
    1   AR   Ar  227   7.068   3.909   1.799
    1   AR   Ar  228   6.726   4.988   0.585
    1   AR   Ar  229   6.409   3.615   1.015
    1   AR   Ar  230   4.278   4.080   3.079
    1   AR   Ar  231   0.176   2.630   3.712
    1   AR   Ar  232   5.395   3.807   1.564
    1   AR   Ar  233   6.260   2.653   4.323
    1   AR   Ar  234   5.797   4.179   5.129
    1   AR   Ar  235   6.717   3.832   4.564
    1   AR   Ar  236   5.698   3.616   3.932
    1   AR   Ar  237   5.298   3.080   4.706
    1   AR   Ar  238   4.706   4.535   5.713
    1   AR   Ar  239   5.765   4.089   7.261
    1   AR   Ar  240   6.594   3.714   5.862
    1   AR   Ar  241   6.710   0.400  -0.114
    1   AR   Ar  242   5.304   6.269   1.496
    1   AR   Ar  243   5.802   4.709   2.130
    1   AR   Ar  244   6.670   5.832   0.001
    1   AR   Ar  245   5.118   5.503   2.260
    1   AR   Ar  246   5.883   6.506   2.306
    1   AR   Ar  247   5.617   3.682   2.534
    1   AR   Ar  248   6.074   6.943   0.958
    1   AR   Ar  249   5.407   4.505   3.250
    1   AR   Ar  250   4.517   6.344   4.170
    1   AR   Ar  251   5.251   5.544   4.294
    1   AR   Ar  252   5.695   5.588   3.258
    1   AR   Ar  253   5.809   5.167   5.476
    1   AR   Ar  254   5.554   5.826   6.427
    1   AR   Ar  255   5.413   4.301   6.406
    1   AR   Ar  256   6.181   6.079   4.896
    7.12000  7.12000 12.00000
Argon-slab step 915
  256
    1   AR   Ar    1   0.614   0.543  -0.595
    1   AR   Ar    2   7.024   0.381   0.846
    1   AR   Ar    3   0.282   6.617   0.099
    1   AR   Ar    4   1.466   0.486   0.267
    1   AR   Ar    5   6.983   6.197   1.046
    1   AR   Ar    6   0.115   0.135   3.168
    1   AR   Ar    7   0.050   6.287   2.375
    1   AR   Ar    8   0.763   6.953   1.844
    1   AR   Ar    9   0.522   0.877   4.295
    1   AR   Ar   10   6.826   1.711   4.382
    1   AR   Ar   11   2.162   0.046   4.696
    1   AR   Ar   12   1.271   0.977   3.574
    1   AR   Ar   13   6.991   0.973   5.184
    1   AR   Ar   14   0.418   1.330   6.101
    1   AR   Ar   15   0.683   6.153   7.966
    1   AR   Ar   16   1.101   0.828   5.363
    1   AR   Ar   17   6.803   1.575   0.233
    1   AR   Ar   18   6.936   2.932   0.158
    1   AR   Ar   19   0.935   1.327   0.880
    1   AR   Ar   20   0.319   3.156  -1.424
    1   AR   Ar   21   6.762   0.185   2.042
    1   AR   Ar   22   6.795   2.243   2.710
    1   AR   Ar   23   7.039   1.268   2.312
    1   AR   Ar   24   0.098   2.619   1.899
    1   AR   Ar   25   0.352   1.507   3.413
    1   AR   Ar   26   6.287   1.778   3.464
    1   AR   Ar   27   1.081   1.990   5.063
    1   AR   Ar   28   0.398   3.166   4.911
    1   AR   Ar   29   6.483   1.655   5.932
    1   AR   Ar   30   6.532   2.789   6.655
    1   AR   Ar   31   0.809   1.286   7.236
    1   AR   Ar   32   1.829   2.782   5.210
    1   AR   Ar   33   1.174   3.711  -0.996
    1   AR   Ar   34   0.494   4.635   1.260
    1   AR   Ar   35   0.435   3.817   0.601
    1   AR   Ar   36   1.667   6.634  -1.081
    1   AR   Ar   37   0.307   3.337   2.681
    1   AR   Ar   38   0.674   4.669   2.442
    1   AR   Ar   39   1.243   3.804   2.841
    1   AR   Ar   40   1.422   4.277   1.771
    1   AR   Ar   41   0.841   2.384   2.860
    1   AR   Ar   42   6.779   5.074   4.928
    1   AR   Ar   43   6.872   2.284   5.185
    1   AR   Ar   44   0.530   3.619   3.642
    1   AR   Ar   45   0.683   3.705   5.656
    1   AR   Ar   46   6.729   4.615   6.426
    1   AR   Ar   47   0.144   3.750   6.797
    1   AR   Ar   48   0.189   5.438   6.224
    1   AR   Ar   49   0.583   5.261  -0.816
    1   AR   Ar   50   6.259   5.702   1.503
    1   AR   Ar   51   1.255   4.717   0.261
    1   AR   Ar   52   0.545   5.487   0.501
    1   AR   Ar   53   6.609   5.419   2.647
    1   AR   Ar   54   6.559   6.495   3.391
    1   AR   Ar   55   0.517   5.466   3.329
    1   AR   Ar   56   1.152   5.826   1.774
    1   AR   Ar   57   6.609   4.173   2.848
    1   AR   Ar   58   0.041   6.016   4.062
    1   AR   Ar   59   1.797   6.195   4.960
    1   AR   Ar   60   0.561   6.902   3.998
    1   AR   Ar   61   6.421   5.961   5.890
    1   AR   Ar   62   0.308   6.122   5.344
    1   AR   Ar   63   1.293   5.356   5.794
    1   AR   Ar   64   1.063   6.977   5.087
    1   AR   Ar   65   2.323   6.830   0.358
    1   AR   Ar   66   1.868   0.993   1.377
    1   AR   Ar   67   3.601   6.177   0.134
    1   AR   Ar   68   4.004   0.869  -0.008
    1   AR   Ar   69   1.552   6.911   1.162
    1   AR   Ar   70   1.770   0.183   2.422
    1   AR   Ar   71   2.756   0.187   1.877
    1   AR   Ar   72   2.978   0.817   0.962
    1   AR   Ar   73   1.876   6.774   3.649
    1   AR   Ar   74   1.977   1.290   4.541
    1   AR   Ar   75   2.924   0.704   4.688
    1   AR   Ar   76   2.384   0.750   2.998
    1   AR   Ar   77   1.880   0.313   5.820
    1   AR   Ar   78   1.057   0.454   6.564
    1   AR   Ar   79   3.348   6.376   6.846
    1   AR   Ar   80   2.808   6.910   5.506
    1   AR   Ar   81   1.855   1.600   0.438
    1   AR   Ar   82   1.834   2.923   0.543
    1   AR   Ar   83   2.719   1.718   1.633
    1   AR   Ar   84   2.317   2.903  -1.236
    1   AR   Ar   85   1.665   2.158   1.261
    1   AR   Ar   86   2.012   2.427   2.367
    1   AR   Ar   87   1.941   1.347   2.289
    1   AR   Ar   88   3.385   3.827   1.297
    1   AR   Ar   89   0.996   1.642   2.110
    1   AR   Ar   90   3.086   2.132   5.045
    1   AR   Ar   91   2.554   2.152   4.045
    1   AR   Ar   92   1.893   1.815   3.232
    1   AR   Ar   93   1.356   1.687   6.171
    1   AR   Ar   94   2.707   1.681   8.247
    1   AR   Ar   95   2.676   0.397   6.821
    1   AR   Ar   96   2.185   2.099   6.657
    1   AR   Ar   97   2.748   3.969  -1.391
    1   AR   Ar   98   3.019   4.753   1.424
    1   AR   Ar   99   3.347   2.979  -1.381
    1   AR   Ar  100   2.339   5.015  -0.239
    1   AR   Ar  101   1.231   3.114   2.051
    1   AR   Ar  102   1.741   4.216   3.675
    1   AR   Ar  103   2.200   3.607   2.015
    1   AR   Ar  104   3.448   3.568   0.246
    1   AR   Ar  105   1.652   2.943   3.921
    1   AR   Ar  106   2.661   3.176   4.815
    1   AR   Ar  107   2.713   4.033   5.428
    1   AR   Ar  108   3.307   3.438   3.760
    1   AR   Ar  109   1.001   3.947   4.499
    1   AR   Ar  110   1.875   4.271   4.844
    1   AR   Ar  111   4.077   5.263   7.280
    1   AR   Ar  112   2.467   3.169   5.942
    1   AR   Ar  113   2.591   4.221   0.720
    1   AR   Ar  114   2.261   5.816   0.855
    1   AR   Ar  115   3.160   5.366   0.632
    1   AR   Ar  116   3.585   7.082   0.423
    1   AR   Ar  117   1.634   4.931   2.865
    1   AR   Ar  118   1.098   6.521   2.705
    1   AR   Ar  119   2.600   4.403   2.793
    1   AR   Ar  120   2.016   5.168   1.884
    1   AR   Ar  121   0.377   4.742   4.079
    1   AR   Ar  122   2.765   6.115   4.155
    1   AR   Ar  123   2.414   5.176   4.408
    1   AR   Ar  124   2.488   5.707   2.965
    1   AR   Ar  125   0.988   5.437   4.771
    1   AR   Ar  126   1.045   6.418   6.153
    1   AR   Ar  127   2.657   5.408   7.634
    1   AR   Ar  128   2.018   6.185   6.198
    1   AR   Ar  129   3.000   6.629   1.147
    1   AR   Ar  130   3.373   6.851  -1.006
    1   AR   Ar  131   5.004   6.313   0.578
    1   AR   Ar  132   5.602   2.251  -0.661
    1   AR   Ar  133   3.981   6.996   2.438
    1   AR   Ar  134   3.524   0.818   2.922
    1   AR   Ar  135   4.889   0.380   2.913
    1   AR   Ar  136   4.378   0.667   1.800
    1   AR   Ar  137   2.923   0.180   3.766
    1   AR   Ar  138   4.919   0.975   4.930
    1   AR   Ar  139   4.927   0.286   3.966
    1   AR   Ar  140   4.285   1.563   3.581
    1   AR   Ar  141   3.769   7.084   4.478
    1   AR   Ar  142   3.811   6.891   6.014
    1   AR   Ar  143   5.522   0.423   6.760
    1   AR   Ar  144   5.119   1.409   7.058
    1   AR   Ar  145   3.019   2.676   0.652
    1   AR   Ar  146   3.946   3.087   0.949
    1   AR   Ar  147   4.968   1.876   0.782
    1   AR   Ar  148   6.018   3.291  -1.089
    1   AR   Ar  149   3.924   1.810   1.083
    1   AR   Ar  150   3.011   1.754   2.664
    1   AR   Ar  151   3.669   2.493   3.779
    1   AR   Ar  152   3.316   2.660   1.618
    1   AR   Ar  153   3.105   1.235   3.754
    1   AR   Ar  154   4.183   1.734   4.635
    1   AR   Ar  155   5.518   1.302   5.829
    1   AR   Ar  156   4.441   3.325   3.972
    1   AR   Ar  157   3.915   2.044   5.818
    1   AR   Ar  158   3.185   2.412   6.600
    1   AR   Ar  159   4.534   1.026   6.152
    1   AR   Ar  160   4.533   2.889   5.536
    1   AR   Ar  161   4.773   2.472  -0.098
    1   AR   Ar  162   4.859   5.245   0.910
    1   AR   Ar  163   5.402   3.216   0.607
    1   AR   Ar  164   5.654   4.668   0.904
    1   AR   Ar  165   3.349   3.679   2.577
    1   AR   Ar  166   3.616   4.948   3.507
    1   AR   Ar  167   4.364   3.032   2.975
    1   AR   Ar  168   4.465   3.907   1.066
    1   AR   Ar  169   2.611   2.789   3.186
    1   AR   Ar  170   2.842   4.235   4.366
    1   AR   Ar  171   3.945   3.634   4.827
    1   AR   Ar  172   4.682   4.664   4.309
    1   AR   Ar  173   3.528   2.926   5.754
    1   AR   Ar  174   4.177   5.346   6.084
    1   AR   Ar  175   3.821   4.124   6.000
    1   AR   Ar  176   3.697   4.696   5.055
    1   AR   Ar  177   5.675   5.603   0.361
    1   AR   Ar  178   4.201   6.446   1.282
    1   AR   Ar  179   4.064   5.325   1.421
    1   AR   Ar  180   4.393   5.459  -0.253
    1   AR   Ar  181   3.156   5.756   1.675
    1   AR   Ar  182   2.229   6.387   1.853
    1   AR   Ar  183   3.680   4.626   2.422
    1   AR   Ar  184   4.003   5.988   2.348
    1   AR   Ar  185   1.404   5.854   3.927
    1   AR   Ar  186   3.690   5.637   4.304
    1   AR   Ar  187   4.607   5.415   3.220
    1   AR   Ar  188   3.646   6.106   3.433
    1   AR   Ar  189   2.580   5.239   5.835
    1   AR   Ar  190   4.694   6.468   6.327
    1   AR   Ar  191   4.508   5.634   5.114
    1   AR   Ar  192   3.288   6.153   5.173
    1   AR   Ar  193   5.619   0.052  -0.115
    1   AR   Ar  194   4.652   7.070  -0.075
    1   AR   Ar  195   6.075   0.929   0.801
    1   AR   Ar  196   6.228   0.993  -0.751
    1   AR   Ar  197   5.103   0.337   0.853
    1   AR   Ar  198   5.193   1.439   1.733
    1   AR   Ar  199   5.473   0.213   1.972
    1   AR   Ar  200   6.939   1.605   1.240
    1   AR   Ar  201   4.879   6.472   2.790
    1   AR   Ar  202   5.472   1.133   3.853
    1   AR   Ar  203   6.772   6.940   4.729
    1   AR   Ar  204   6.106   0.393   2.928
    1   AR   Ar  205   5.625   6.582   3.724
    1   AR   Ar  206   4.818   6.772   5.321
    1   AR   Ar  207   0.141   0.048   5.860
    1   AR   Ar  208   6.289   0.585   4.101
    1   AR   Ar  209   6.665   1.907  -1.431
    1   AR   Ar  210   5.082   2.620   1.548
    1   AR   Ar  211   5.997   2.133   0.559
    1   AR   Ar  212   6.907   3.536  -0.662
    1   AR   Ar  213   4.270   2.297   2.053
    1   AR   Ar  214   4.272   3.297   1.998
    1   AR   Ar  215   5.555   2.568   2.691
    1   AR   Ar  216   6.150   2.846   1.764
    1   AR   Ar  217   5.162   2.307   3.826
    1   AR   Ar  218   5.797   1.647   4.738
    1   AR   Ar  219   5.298   1.354   2.713
    1   AR   Ar  220   6.383   3.250   3.227
    1   AR   Ar  221   5.996   0.400   5.188
    1   AR   Ar  222   4.921   2.240   6.395
    1   AR   Ar  223   6.751   1.664   7.414
    1   AR   Ar  224   5.769   2.632   5.796
    1   AR   Ar  225   5.185   4.309   0.079
    1   AR   Ar  226   4.697   4.609   1.944
    1   AR   Ar  227   7.061   3.930   1.789
    1   AR   Ar  228   6.698   4.985   0.595
    1   AR   Ar  229   6.418   3.609   0.994
    1   AR   Ar  230   4.289   4.087   3.086
    1   AR   Ar  231   0.195   2.597   3.714
    1   AR   Ar  232   5.411   3.828   1.517
    1   AR   Ar  233   6.263   2.701   4.368
    1   AR   Ar  234   5.790   4.210   5.138
    1   AR   Ar  235   6.746   3.837   4.571
    1   AR   Ar  236   5.684   3.605   3.914
    1   AR   Ar  237   5.306   3.091   4.712
    1   AR   Ar  238   4.689   4.527   5.707
    1   AR   Ar  239   5.772   4.085   7.259
    1   AR   Ar  240   6.608   3.730   5.838
    1   AR   Ar  241   6.718   0.413  -0.094
    1   AR   Ar  242   5.324   6.304   1.467
    1   AR   Ar  243   5.807   4.689   2.130
    1   AR   Ar  244   6.656   5.817   0.002
    1   AR   Ar  245   5.061   5.498   2.269
    1   AR   Ar  246   5.914   6.511   2.288
    1   AR   Ar  247   5.618   3.689   2.541
    1   AR   Ar  248   6.082   6.972   0.961
    1   AR   Ar  249   5.354   4.493   3.238
    1   AR   Ar  250   4.502   6.326   4.213
    1   AR   Ar  251   5.250   5.532   4.280
    1   AR   Ar  252   5.669   5.565   3.212
    1   AR   Ar  253   5.768   5.154   5.496
    1   AR   Ar  254   5.562   5.812   6.421
    1   AR   Ar  255   5.389   4.296   6.417
    1   AR   Ar  256   6.230   6.076   4.914
    7.12000  7.12000 12.00000
Argon-slab step 920
  256
    1   AR   Ar    1   0.598   0.537  -0.607
    1   AR   Ar    2   7.039   0.381   0.826
    1   AR   Ar    3   0.333   6.615   0.065
    1   AR   Ar    4   1.466   0.500   0.264
    1   AR   Ar    5   7.002   6.168   1.028
    1   AR   Ar    6   0.103   0.138   3.218
    1   AR   Ar    7   0.084   6.285   2.411
    1   AR   Ar    8   0.727   6.958   1.851
    1   AR   Ar    9   0.516   0.896   4.282
    1   AR   Ar   10   6.823   1.694   4.406
    1   AR   Ar   11   2.147   0.037   4.666
    1   AR   Ar   12   1.301   0.990   3.579
    1   AR   Ar   13   6.972   1.007   5.191
    1   AR   Ar   14   0.415   1.342   6.105
    1   AR   Ar   15   0.656   6.143   8.017
    1   AR   Ar   16   1.066   0.801   5.349
    1   AR   Ar   17   6.838   1.553   0.222
    1   AR   Ar   18   6.933   2.913   0.149
    1   AR   Ar   19   0.967   1.323   0.872
    1   AR   Ar   20   0.320   3.164  -1.420
    1   AR   Ar   21   6.796   0.193   2.023
    1   AR   Ar   22   6.775   2.187   2.706
    1   AR   Ar   23   7.036   1.285   2.294
    1   AR   Ar   24   0.073   2.631   1.882
    1   AR   Ar   25   0.328   1.531   3.428
    1   AR   Ar   26   6.265   1.782   3.484
    1   AR   Ar   27   1.067   1.993   5.046
    1   AR   Ar   28   0.398   3.129   4.898
    1   AR   Ar   29   6.490   1.639   5.895
    1   AR   Ar   30   6.494   2.778   6.666
    1   AR   Ar   31   0.819   1.291   7.231
    1   AR   Ar   32   1.825   2.778   5.200
    1   AR   Ar   33   1.174   3.718  -1.033
    1   AR   Ar   34   0.498   4.656   1.256
    1   AR   Ar   35   0.446   3.831   0.606
    1   AR   Ar   36   1.646   6.616  -1.141
    1   AR   Ar   37   0.286   3.349   2.663
    1   AR   Ar   38   0.707   4.663   2.429
    1   AR   Ar   39   1.251   3.802   2.835
    1   AR   Ar   40   1.416   4.265   1.756
    1   AR   Ar   41   0.818   2.382   2.832
    1   AR   Ar   42   6.792   5.054   4.918
    1   AR   Ar   43   6.843   2.281   5.153
    1   AR   Ar   44   0.525   3.609   3.655
    1   AR   Ar   45   0.665   3.681   5.661
    1   AR   Ar   46   6.703   4.642   6.425
    1   AR   Ar   47   0.127   3.764   6.817
    1   AR   Ar   48   0.196   5.474   6.240
    1   AR   Ar   49   0.580   5.304  -0.810
    1   AR   Ar   50   6.228   5.698   1.500
    1   AR   Ar   51   1.243   4.738   0.238
    1   AR   Ar   52   0.530   5.474   0.455
    1   AR   Ar   53   6.599   5.391   2.643
    1   AR   Ar   54   6.561   6.492   3.372
    1   AR   Ar   55   0.485   5.450   3.362
    1   AR   Ar   56   1.128   5.861   1.780
    1   AR   Ar   57   6.645   4.196   2.855
    1   AR   Ar   58   0.036   6.014   4.073
    1   AR   Ar   59   1.817   6.176   4.936
    1   AR   Ar   60   0.528   6.896   4.041
    1   AR   Ar   61   6.413   6.000   5.885
    1   AR   Ar   62   0.272   6.147   5.322
    1   AR   Ar   63   1.267   5.354   5.781
    1   AR   Ar   64   1.044   6.937   5.090
    1   AR   Ar   65   2.309   6.864   0.335
    1   AR   Ar   66   1.860   0.975   1.332
    1   AR   Ar   67   3.629   6.146   0.122
    1   AR   Ar   68   3.981   0.886  -0.025
    1   AR   Ar   69   1.548   6.892   1.152
    1   AR   Ar   70   1.775   0.203   2.407
    1   AR   Ar   71   2.736   0.166   1.871
    1   AR   Ar   72   2.967   0.802   0.958
    1   AR   Ar   73   1.862   6.793   3.636
    1   AR   Ar   74   1.976   1.294   4.559
    1   AR   Ar   75   2.970   0.682   4.683
    1   AR   Ar   76   2.420   0.751   3.012
    1   AR   Ar   77   1.843   0.309   5.803
    1   AR   Ar   78   1.056   0.447   6.539
    1   AR   Ar   79   3.370   6.393   6.847
    1   AR   Ar   80   2.819   6.942   5.490
    1   AR   Ar   81   1.873   1.582   0.411
    1   AR   Ar   82   1.818   2.913   0.571
    1   AR   Ar   83   2.713   1.705   1.603
    1   AR   Ar   84   2.332   2.899  -1.263
    1   AR   Ar   85   1.671   2.173   1.252
    1   AR   Ar   86   2.006   2.449   2.386
    1   AR   Ar   87   1.924   1.358   2.284
    1   AR   Ar   88   3.369   3.824   1.301
    1   AR   Ar   89   1.025   1.631   2.103
    1   AR   Ar   90   3.093   2.119   5.067
    1   AR   Ar   91   2.545   2.142   4.023
    1   AR   Ar   92   1.916   1.793   3.241
    1   AR   Ar   93   1.384   1.700   6.176
    1   AR   Ar   94   2.705   1.684   8.272
    1   AR   Ar   95   2.691   0.372   6.788
    1   AR   Ar   96   2.199   2.101   6.668
    1   AR   Ar   97   2.742   3.978  -1.353
    1   AR   Ar   98   3.013   4.746   1.409
    1   AR   Ar   99   3.327   2.986  -1.354
    1   AR   Ar  100   2.356   4.985  -0.251
    1   AR   Ar  101   1.227   3.132   2.057
    1   AR   Ar  102   1.763   4.216   3.676
    1   AR   Ar  103   2.177   3.589   1.993
    1   AR   Ar  104   3.449   3.586   0.254
    1   AR   Ar  105   1.610   2.964   3.940
    1   AR   Ar  106   2.646   3.158   4.819
    1   AR   Ar  107   2.726   4.040   5.420
    1   AR   Ar  108   3.301   3.442   3.770
    1   AR   Ar  109   0.980   3.938   4.456
    1   AR   Ar  110   1.913   4.242   4.828
    1   AR   Ar  111   4.045   5.250   7.290
    1   AR   Ar  112   2.440   3.199   5.938
    1   AR   Ar  113   2.581   4.233   0.713
    1   AR   Ar  114   2.288   5.832   0.865
    1   AR   Ar  115   3.154   5.334   0.593
    1   AR   Ar  116   3.589   7.101   0.413
    1   AR   Ar  117   1.604   4.913   2.891
    1   AR   Ar  118   1.077   6.518   2.721
    1   AR   Ar  119   2.612   4.404   2.783
    1   AR   Ar  120   2.025   5.180   1.893
    1   AR   Ar  121   0.339   4.742   4.091
    1   AR   Ar  122   2.720   6.109   4.158
    1   AR   Ar  123   2.386   5.196   4.404
    1   AR   Ar  124   2.496   5.693   2.973
    1   AR   Ar  125   0.982   5.448   4.766
    1   AR   Ar  126   1.040   6.444   6.139
    1   AR   Ar  127   2.641   5.421   7.648
    1   AR   Ar  128   2.013   6.181   6.197
    1   AR   Ar  129   3.013   6.634   1.179
    1   AR   Ar  130   3.390   6.859  -1.021
    1   AR   Ar  131   4.995   6.265   0.554
    1   AR   Ar  132   5.606   2.251  -0.672
    1   AR   Ar  133   4.013   6.999   2.404
    1   AR   Ar  134   3.527   0.835   2.938
    1   AR   Ar  135   4.881   0.411   2.895
    1   AR   Ar  136   4.380   0.670   1.780
    1   AR   Ar  137   2.918   0.159   3.790
    1   AR   Ar  138   4.907   0.980   4.926
    1   AR   Ar  139   4.940   0.300   3.983
    1   AR   Ar  140   4.305   1.574   3.585
    1   AR   Ar  141   3.770   7.085   4.464
    1   AR   Ar  142   3.805   6.899   6.041
    1   AR   Ar  143   5.518   0.437   6.762
    1   AR   Ar  144   5.109   1.385   7.063
    1   AR   Ar  145   3.043   2.688   0.678
    1   AR   Ar  146   3.943   3.070   0.948
    1   AR   Ar  147   4.966   1.892   0.803
    1   AR   Ar  148   6.003   3.304  -1.123
    1   AR   Ar  149   3.923   1.822   1.081
    1   AR   Ar  150   3.019   1.757   2.638
    1   AR   Ar  151   3.704   2.524   3.792
    1   AR   Ar  152   3.318   2.671   1.638
    1   AR   Ar  153   3.118   1.222   3.737
    1   AR   Ar  154   4.162   1.753   4.620
    1   AR   Ar  155   5.536   1.279   5.798
    1   AR   Ar  156   4.427   3.271   3.964
    1   AR   Ar  157   3.905   2.057   5.816
    1   AR   Ar  158   3.170   2.417   6.593
    1   AR   Ar  159   4.548   1.027   6.146
    1   AR   Ar  160   4.547   2.889   5.549
    1   AR   Ar  161   4.768   2.507  -0.092
    1   AR   Ar  162   4.837   5.248   0.893
    1   AR   Ar  163   5.379   3.211   0.634
    1   AR   Ar  164   5.650   4.674   0.890
    1   AR   Ar  165   3.323   3.685   2.589
    1   AR   Ar  166   3.588   4.943   3.484
    1   AR   Ar  167   4.389   3.035   2.952
    1   AR   Ar  168   4.469   3.932   1.067
    1   AR   Ar  169   2.614   2.795   3.198
    1   AR   Ar  170   2.828   4.238   4.358
    1   AR   Ar  171   3.961   3.643   4.829
    1   AR   Ar  172   4.676   4.668   4.326
    1   AR   Ar  173   3.512   2.895   5.765
    1   AR   Ar  174   4.148   5.325   6.089
    1   AR   Ar  175   3.815   4.118   6.006
    1   AR   Ar  176   3.704   4.681   5.072
    1   AR   Ar  177   5.703   5.588   0.369
    1   AR   Ar  178   4.221   6.436   1.260
    1   AR   Ar  179   4.044   5.340   1.390
    1   AR   Ar  180   4.400   5.441  -0.252
    1   AR   Ar  181   3.137   5.783   1.687
    1   AR   Ar  182   2.238   6.445   1.848
    1   AR   Ar  183   3.690   4.634   2.436
    1   AR   Ar  184   4.008   5.981   2.346
    1   AR   Ar  185   1.369   5.850   3.947
    1   AR   Ar  186   3.676   5.639   4.327
    1   AR   Ar  187   4.634   5.413   3.214
    1   AR   Ar  188   3.656   6.106   3.425
    1   AR   Ar  189   2.571   5.279   5.825
    1   AR   Ar  190   4.715   6.472   6.309
    1   AR   Ar  191   4.521   5.654   5.115
    1   AR   Ar  192   3.283   6.132   5.176
    1   AR   Ar  193   5.674   0.029  -0.159
    1   AR   Ar  194   4.664   7.070  -0.074
    1   AR   Ar  195   6.094   0.912   0.800
    1   AR   Ar  196   6.220   1.003  -0.780
    1   AR   Ar  197   5.085   0.338   0.829
    1   AR   Ar  198   5.219   1.447   1.730
    1   AR   Ar  199   5.494   0.197   1.973
    1   AR   Ar  200   6.926   1.600   1.256
    1   AR   Ar  201   4.901   6.473   2.764
    1   AR   Ar  202   5.481   1.132   3.873
    1   AR   Ar  203   6.760   6.956   4.746
    1   AR   Ar  204   6.122   0.392   2.940
    1   AR   Ar  205   5.609   6.638   3.728
    1   AR   Ar  206   4.827   6.783   5.311
    1   AR   Ar  207   0.147   0.046   5.868
    1   AR   Ar  208   6.275   0.582   4.091
    1   AR   Ar  209   6.670   1.924  -1.425
    1   AR   Ar  210   5.038   2.637   1.550
    1   AR   Ar  211   5.995   2.135   0.571
    1   AR   Ar  212   6.905   3.546  -0.667
    1   AR   Ar  213   4.234   2.270   2.027
    1   AR   Ar  214   4.291   3.318   1.930
    1   AR   Ar  215   5.529   2.591   2.700
    1   AR   Ar  216   6.122   2.882   1.777
    1   AR   Ar  217   5.180   2.283   3.819
    1   AR   Ar  218   5.816   1.625   4.746
    1   AR   Ar  219   5.306   1.371   2.713
    1   AR   Ar  220   6.374   3.244   3.233
    1   AR   Ar  221   6.037   0.389   5.196
    1   AR   Ar  222   4.910   2.218   6.407
    1   AR   Ar  223   6.737   1.644   7.410
    1   AR   Ar  224   5.767   2.641   5.785
    1   AR   Ar  225   5.204   4.305   0.066
    1   AR   Ar  226   4.682   4.575   1.961
    1   AR   Ar  227   7.054   3.949   1.783
    1   AR   Ar  228   6.670   4.976   0.611
    1   AR   Ar  229   6.426   3.602   0.972
    1   AR   Ar  230   4.308   4.092   3.101
    1   AR   Ar  231   0.212   2.564   3.716
    1   AR   Ar  232   5.429   3.846   1.470
    1   AR   Ar  233   6.266   2.748   4.411
    1   AR   Ar  234   5.783   4.233   5.145
    1   AR   Ar  235   6.773   3.843   4.577
    1   AR   Ar  236   5.675   3.581   3.879
    1   AR   Ar  237   5.310   3.100   4.724
    1   AR   Ar  238   4.678   4.521   5.690
    1   AR   Ar  239   5.790   4.075   7.276
    1   AR   Ar  240   6.621   3.744   5.812
    1   AR   Ar  241   6.726   0.421  -0.077
    1   AR   Ar  242   5.347   6.339   1.457
    1   AR   Ar  243   5.814   4.671   2.129
    1   AR   Ar  244   6.644   5.807  -0.000
    1   AR   Ar  245   5.053   5.515   2.276
    1   AR   Ar  246   5.927   6.498   2.317
    1   AR   Ar  247   5.619   3.694   2.550
    1   AR   Ar  248   6.086   6.972   0.999
    1   AR   Ar  249   5.301   4.481   3.225
    1   AR   Ar  250   4.490   6.310   4.254
    1   AR   Ar  251   5.258   5.522   4.309
    1   AR   Ar  252   5.676   5.617   3.216
    1   AR   Ar  253   5.726   5.149   5.517
    1   AR   Ar  254   5.566   5.795   6.417
    1   AR   Ar  255   5.361   4.295   6.410
    1   AR   Ar  256   6.274   6.071   4.924
    7.12000  7.12000 12.00000
Argon-slab step 925
  256
    1   AR   Ar    1   0.581   0.530  -0.616
    1   AR   Ar    2   7.057   0.381   0.830
    1   AR   Ar    3   0.360   6.615   0.057
    1   AR   Ar    4   1.454   0.518   0.259
    1   AR   Ar    5   7.026   6.144   1.008
    1   AR   Ar    6   0.089   0.149   3.258
    1   AR   Ar    7   0.095   6.294   2.390
    1   AR   Ar    8   0.681   6.981   1.836
    1   AR   Ar    9   0.508   0.913   4.273
    1   AR   Ar   10   6.821   1.666   4.411
    1   AR   Ar   11   2.156   0.007   4.644
    1   AR   Ar   12   1.332   1.000   3.582
    1   AR   Ar   13   6.955   1.037   5.198
    1   AR   Ar   14   0.407   1.352   6.109
    1   AR   Ar   15   0.629   6.133   8.068
    1   AR   Ar   16   1.025   0.783   5.334
    1   AR   Ar   17   6.873   1.528   0.206
    1   AR   Ar   18   6.945   2.933   0.141
    1   AR   Ar   19   0.992   1.319   0.865
    1   AR   Ar   20   0.325   3.167  -1.423
    1   AR   Ar   21   6.829   0.201   2.004
    1   AR   Ar   22   6.754   2.139   2.705
    1   AR   Ar   23   7.041   1.294   2.273
    1   AR   Ar   24   0.052   2.645   1.860
    1   AR   Ar   25   0.301   1.556   3.439
    1   AR   Ar   26   6.239   1.783   3.509
    1   AR   Ar   27   1.052   1.994   5.029
    1   AR   Ar   28   0.394   3.081   4.874
    1   AR   Ar   29   6.497   1.626   5.863
    1   AR   Ar   30   6.456   2.768   6.676
    1   AR   Ar   31   0.829   1.297   7.225
    1   AR   Ar   32   1.809   2.769   5.191
    1   AR   Ar   33   1.175   3.725  -1.069
    1   AR   Ar   34   0.505   4.683   1.252
    1   AR   Ar   35   0.457   3.818   0.619
    1   AR   Ar   36   1.625   6.598  -1.199
    1   AR   Ar   37   0.260   3.361   2.648
    1   AR   Ar   38   0.749   4.658   2.410
    1   AR   Ar   39   1.241   3.815   2.847
    1   AR   Ar   40   1.409   4.252   1.740
    1   AR   Ar   41   0.795   2.382   2.804
    1   AR   Ar   42   6.804   5.034   4.910
    1   AR   Ar   43   6.817   2.291   5.138
    1   AR   Ar   44   0.513   3.597   3.661
    1   AR   Ar   45   0.631   3.643   5.691
    1   AR   Ar   46   6.672   4.668   6.423
    1   AR   Ar   47   0.104   3.790   6.834
    1   AR   Ar   48   0.207   5.513   6.254
    1   AR   Ar   49   0.576   5.347  -0.801
    1   AR   Ar   50   6.202   5.687   1.516
    1   AR   Ar   51   1.233   4.757   0.214
    1   AR   Ar   52   0.512   5.463   0.409
    1   AR   Ar   53   6.589   5.362   2.639
    1   AR   Ar   54   6.561   6.485   3.348
    1   AR   Ar   55   0.457   5.434   3.385
    1   AR   Ar   56   1.104   5.897   1.785
    1   AR   Ar   57   6.683   4.222   2.861
    1   AR   Ar   58   0.026   6.007   4.094
    1   AR   Ar   59   1.837   6.153   4.913
    1   AR   Ar   60   0.503   6.894   4.092
    1   AR   Ar   61   6.412   6.040   5.890
    1   AR   Ar   62   0.235   6.172   5.298
    1   AR   Ar   63   1.241   5.353   5.769
    1   AR   Ar   64   1.023   6.892   5.092
    1   AR   Ar   65   2.296   6.897   0.314
    1   AR   Ar   66   1.853   0.951   1.285
    1   AR   Ar   67   3.659   6.109   0.107
    1   AR   Ar   68   3.960   0.905  -0.042
    1   AR   Ar   69   1.545   6.874   1.141
    1   AR   Ar   70   1.772   0.214   2.403
    1   AR   Ar   71   2.721   0.167   1.873
    1   AR   Ar   72   2.956   0.786   0.954
    1   AR   Ar   73   1.859   6.812   3.625
    1   AR   Ar   74   1.974   1.296   4.576
    1   AR   Ar   75   3.017   0.664   4.683
    1   AR   Ar   76   2.458   0.753   3.030
    1   AR   Ar   77   1.810   0.301   5.787
    1   AR   Ar   78   1.053   0.439   6.511
    1   AR   Ar   79   3.389   6.407   6.851
    1   AR   Ar   80   2.824   6.983   5.478
    1   AR   Ar   81   1.867   1.585   0.399
    1   AR   Ar   82   1.804   2.908   0.596
    1   AR   Ar   83   2.707   1.693   1.569
    1   AR   Ar   84   2.337   2.895  -1.289
    1   AR   Ar   85   1.685   2.184   1.239
    1   AR   Ar   86   1.999   2.470   2.402
    1   AR   Ar   87   1.911   1.368   2.270
    1   AR   Ar   88   3.355   3.816   1.312
    1   AR   Ar   89   1.035   1.626   2.090
    1   AR   Ar   90   3.099   2.107   5.088
    1   AR   Ar   91   2.537   2.131   4.007
    1   AR   Ar   92   1.931   1.773   3.253
    1   AR   Ar   93   1.413   1.711   6.178
    1   AR   Ar   94   2.703   1.686   8.296
    1   AR   Ar   95   2.706   0.344   6.753
    1   AR   Ar   96   2.199   2.109   6.691
    1   AR   Ar   97   2.735   3.987  -1.315
    1   AR   Ar   98   3.010   4.752   1.415
    1   AR   Ar   99   3.317   2.995  -1.327
    1   AR   Ar  100   2.374   4.955  -0.261
    1   AR   Ar  101   1.218   3.145   2.058
    1   AR   Ar  102   1.786   4.214   3.682
    1   AR   Ar  103   2.161   3.570   1.973
    1   AR   Ar  104   3.446   3.612   0.254
    1   AR   Ar  105   1.568   2.986   3.960
    1   AR   Ar  106   2.643   3.143   4.814
    1   AR   Ar  107   2.747   4.053   5.415
    1   AR   Ar  108   3.294   3.454   3.780
    1   AR   Ar  109   0.963   3.931   4.425
    1   AR   Ar  110   1.945   4.215   4.813
    1   AR   Ar  111   4.012   5.236   7.297
    1   AR   Ar  112   2.413   3.226   5.939
    1   AR   Ar  113   2.553   4.248   0.696
    1   AR   Ar  114   2.311   5.851   0.878
    1   AR   Ar  115   3.151   5.300   0.550
    1   AR   Ar  116   3.594   0.010   0.405
    1   AR   Ar  117   1.578   4.898   2.917
    1   AR   Ar  118   1.070   6.512   2.738
    1   AR   Ar  119   2.619   4.409   2.774
    1   AR   Ar  120   2.035   5.194   1.902
    1   AR   Ar  121   0.300   4.738   4.106
    1   AR   Ar  122   2.677   6.113   4.159
    1   AR   Ar  123   2.353   5.211   4.404
    1   AR   Ar  124   2.497   5.670   2.994
    1   AR   Ar  125   0.970   5.455   4.766
    1   AR   Ar  126   1.027   6.474   6.122
    1   AR   Ar  127   2.625   5.435   7.661
    1   AR   Ar  128   2.015   6.176   6.194
    1   AR   Ar  129   3.030   6.639   1.196
    1   AR   Ar  130   3.408   6.867  -1.034
    1   AR   Ar  131   4.977   6.223   0.516
    1   AR   Ar  132   5.615   2.250  -0.684
    1   AR   Ar  133   4.042   7.007   2.371
    1   AR   Ar  134   3.537   0.846   2.942
    1   AR   Ar  135   4.877   0.427   2.887
    1   AR   Ar  136   4.384   0.674   1.759
    1   AR   Ar  137   2.912   0.134   3.809
    1   AR   Ar  138   4.897   0.984   4.922
    1   AR   Ar  139   4.945   0.306   4.004
    1   AR   Ar  140   4.304   1.598   3.582
    1   AR   Ar  141   3.750   7.096   4.451
    1   AR   Ar  142   3.796   6.909   6.063
    1   AR   Ar  143   5.476   0.393   6.736
    1   AR   Ar  144   5.099   1.362   7.068
    1   AR   Ar  145   3.057   2.696   0.695
    1   AR   Ar  146   3.957   3.039   0.945
    1   AR   Ar  147   4.964   1.908   0.820
    1   AR   Ar  148   5.985   3.316  -1.158
    1   AR   Ar  149   3.930   1.799   1.079
    1   AR   Ar  150   3.025   1.762   2.614
    1   AR   Ar  151   3.739   2.543   3.804
    1   AR   Ar  152   3.317   2.680   1.673
    1   AR   Ar  153   3.125   1.217   3.731
    1   AR   Ar  154   4.139   1.775   4.608
    1   AR   Ar  155   5.551   1.255   5.767
    1   AR   Ar  156   4.419   3.220   3.957
    1   AR   Ar  157   3.909   2.039   5.816
    1   AR   Ar  158   3.157   2.420   6.591
    1   AR   Ar  159   4.561   1.028   6.141
    1   AR   Ar  160   4.518   2.907   5.564
    1   AR   Ar  161   4.761   2.544  -0.083
    1   AR   Ar  162   4.828   5.252   0.865
    1   AR   Ar  163   5.356   3.204   0.659
    1   AR   Ar  164   5.659   4.677   0.883
    1   AR   Ar  165   3.300   3.681   2.601
    1   AR   Ar  166   3.560   4.938   3.460
    1   AR   Ar  167   4.386   3.036   2.922
    1   AR   Ar  168   4.476   3.964   1.065
    1   AR   Ar  169   2.617   2.803   3.207
    1   AR   Ar  170   2.822   4.238   4.348
    1   AR   Ar  171   3.975   3.653   4.834
    1   AR   Ar  172   4.665   4.668   4.344
    1   AR   Ar  173   3.482   2.898   5.768
    1   AR   Ar  174   4.117   5.307   6.095
    1   AR   Ar  175   3.835   4.137   5.998
    1   AR   Ar  176   3.710   4.668   5.087
    1   AR   Ar  177   5.736   5.569   0.376
    1   AR   Ar  178   4.237   6.427   1.239
    1   AR   Ar  179   4.004   5.356   1.372
    1   AR   Ar  180   4.409   5.424  -0.249
    1   AR   Ar  181   3.114   5.805   1.704
    1   AR   Ar  182   2.237   6.488   1.846
    1   AR   Ar  183   3.699   4.649   2.445
    1   AR   Ar  184   4.014   5.966   2.343
    1   AR   Ar  185   1.337   5.851   3.957
    1   AR   Ar  186   3.663   5.633   4.355
    1   AR   Ar  187   4.656   5.410   3.213
    1   AR   Ar  188   3.650   6.101   3.401
    1   AR   Ar  189   2.563   5.320   5.813
    1   AR   Ar  190   4.738   6.472   6.294
    1   AR   Ar  191   4.533   5.673   5.118
    1   AR   Ar  192   3.284   6.101   5.177
    1   AR   Ar  193   5.691   0.016  -0.174
    1   AR   Ar  194   4.666   7.070  -0.074
    1   AR   Ar  195   6.111   0.898   0.799
    1   AR   Ar  196   6.211   1.017  -0.811
    1   AR   Ar  197   5.068   0.338   0.808
    1   AR   Ar  198   5.244   1.455   1.717
    1   AR   Ar  199   5.509   0.191   1.970
    1   AR   Ar  200   6.943   1.612   1.252
    1   AR   Ar  201   4.925   6.471   2.739
    1   AR   Ar  202   5.482   1.144   3.886
    1   AR   Ar  203   6.749   6.944   4.745
    1   AR   Ar  204   6.138   0.391   2.953
    1   AR   Ar  205   5.589   6.692   3.732
    1   AR   Ar  206   4.836   6.795   5.296
    1   AR   Ar  207   0.155   0.045   5.875
    1   AR   Ar  208   6.271   0.573   4.082
    1   AR   Ar  209   6.674   1.940  -1.418
    1   AR   Ar  210   5.002   2.658   1.549
    1   AR   Ar  211   5.993   2.138   0.585
    1   AR   Ar  212   6.902   3.564  -0.666
    1   AR   Ar  213   4.194   2.237   2.006
    1   AR   Ar  214   4.309   3.346   1.863
    1   AR   Ar  215   5.504   2.614   2.709
    1   AR   Ar  216   6.094   2.919   1.790
    1   AR   Ar  217   5.199   2.260   3.813
    1   AR   Ar  218   5.823   1.624   4.757
    1   AR   Ar  219   5.316   1.389   2.726
    1   AR   Ar  220   6.391   3.229   3.224
    1   AR   Ar  221   6.074   0.388   5.208
    1   AR   Ar  222   4.898   2.196   6.416
    1   AR   Ar  223   6.723   1.624   7.405
    1   AR   Ar  224   5.765   2.648   5.772
    1   AR   Ar  225   5.219   4.299   0.050
    1   AR   Ar  226   4.666   4.537   1.978
    1   AR   Ar  227   7.045   3.965   1.780
    1   AR   Ar  228   6.643   4.964   0.631
    1   AR   Ar  229   6.433   3.597   0.948
    1   AR   Ar  230   4.326   4.097   3.117
    1   AR   Ar  231   0.225   2.531   3.720
    1   AR   Ar  232   5.448   3.861   1.430
    1   AR   Ar  233   6.270   2.795   4.449
    1   AR   Ar  234   5.777   4.245   5.148
    1   AR   Ar  235   6.784   3.830   4.555
    1   AR   Ar  236   5.662   3.560   3.844
    1   AR   Ar  237   5.311   3.107   4.741
    1   AR   Ar  238   4.674   4.519   5.661
    1   AR   Ar  239   5.814   4.063   7.303
    1   AR   Ar  240   6.634   3.756   5.784
    1   AR   Ar  241   6.709   0.427  -0.059
    1   AR   Ar  242   5.372   6.372   1.460
    1   AR   Ar  243   5.822   4.654   2.128
    1   AR   Ar  244   6.637   5.803  -0.006
    1   AR   Ar  245   5.059   5.537   2.278
    1   AR   Ar  246   5.943   6.473   2.363
    1   AR   Ar  247   5.619   3.696   2.559
    1   AR   Ar  248   6.092   6.970   1.036
    1   AR   Ar  249   5.249   4.473   3.212
    1   AR   Ar  250   4.481   6.296   4.292
    1   AR   Ar  251   5.270   5.516   4.336
    1   AR   Ar  252   5.684   5.671   3.219
    1   AR   Ar  253   5.682   5.154   5.543
    1   AR   Ar  254   5.564   5.775   6.416
    1   AR   Ar  255   5.339   4.305   6.404
    1   AR   Ar  256   6.313   6.060   4.919
    7.12000  7.12000 12.00000
Argon-slab step 930
  256
    1   AR   Ar    1   0.565   0.522  -0.624
    1   AR   Ar    2   7.060   0.386   0.863
    1   AR   Ar    3   0.353   6.616   0.088
    1   AR   Ar    4   1.434   0.539   0.253
    1   AR   Ar    5   7.050   6.122   0.987
    1   AR   Ar    6   0.107   0.115   3.254
    1   AR   Ar    7   0.100   6.300   2.369
    1   AR   Ar    8   0.640   7.005   1.818
    1   AR   Ar    9   0.498   0.928   4.267
    1   AR   Ar   10   6.822   1.630   4.394
    1   AR   Ar   11   2.162   7.100   4.620
    1   AR   Ar   12   1.314   0.991   3.591
    1   AR   Ar   13   6.945   1.057   5.203
    1   AR   Ar   14   0.399   1.360   6.112
    1   AR   Ar   15   0.602   6.123   8.119
    1   AR   Ar   16   0.979   0.773   5.317
    1   AR   Ar   17   6.908   1.501   0.186
    1   AR   Ar   18   6.956   2.951   0.138
    1   AR   Ar   19   1.006   1.317   0.861
    1   AR   Ar   20   0.331   3.166  -1.432
    1   AR   Ar   21   6.855   0.208   1.986
    1   AR   Ar   22   6.734   2.102   2.706
    1   AR   Ar   23   7.074   1.285   2.238
    1   AR   Ar   24   0.033   2.658   1.836
    1   AR   Ar   25   0.274   1.574   3.446
    1   AR   Ar   26   6.211   1.785   3.537
    1   AR   Ar   27   1.034   1.992   5.012
    1   AR   Ar   28   0.389   3.029   4.842
    1   AR   Ar   29   6.503   1.619   5.840
    1   AR   Ar   30   6.419   2.758   6.685
    1   AR   Ar   31   0.839   1.303   7.216
    1   AR   Ar   32   1.782   2.755   5.184
    1   AR   Ar   33   1.177   3.734  -1.104
    1   AR   Ar   34   0.512   4.715   1.248
    1   AR   Ar   35   0.467   3.805   0.631
    1   AR   Ar   36   1.603   6.581  -1.257
    1   AR   Ar   37   0.231   3.379   2.650
    1   AR   Ar   38   0.778   4.655   2.389
    1   AR   Ar   39   1.233   3.829   2.861
    1   AR   Ar   40   1.403   4.240   1.720
    1   AR   Ar   41   0.788   2.390   2.781
    1   AR   Ar   42   6.815   5.016   4.906
    1   AR   Ar   43   6.794   2.312   5.140
    1   AR   Ar   44   0.490   3.577   3.651
    1   AR   Ar   45   0.599   3.610   5.726
    1   AR   Ar   46   6.639   4.693   6.421
    1   AR   Ar   47   0.080   3.814   6.849
    1   AR   Ar   48   0.219   5.554   6.266
    1   AR   Ar   49   0.576   5.380  -0.795
    1   AR   Ar   50   6.178   5.673   1.537
    1   AR   Ar   51   1.227   4.771   0.190
    1   AR   Ar   52   0.490   5.456   0.363
    1   AR   Ar   53   6.579   5.335   2.635
    1   AR   Ar   54   6.559   6.474   3.321
    1   AR   Ar   55   0.434   5.418   3.395
    1   AR   Ar   56   1.080   5.933   1.791
    1   AR   Ar   57   6.720   4.249   2.866
    1   AR   Ar   58   0.012   5.996   4.124
    1   AR   Ar   59   1.858   6.128   4.893
    1   AR   Ar   60   0.487   6.894   4.150
    1   AR   Ar   61   6.417   6.080   5.905
    1   AR   Ar   62   0.198   6.196   5.275
    1   AR   Ar   63   1.218   5.355   5.760
    1   AR   Ar   64   1.003   6.844   5.092
    1   AR   Ar   65   2.284   6.931   0.294
    1   AR   Ar   66   1.852   0.924   1.239
    1   AR   Ar   67   3.690   6.074   0.093
    1   AR   Ar   68   3.939   0.925  -0.059
    1   AR   Ar   69   1.542   6.894   1.148
    1   AR   Ar   70   1.762   0.220   2.407
    1   AR   Ar   71   2.717   0.201   1.883
    1   AR   Ar   72   2.945   0.770   0.950
    1   AR   Ar   73   1.873   6.830   3.616
    1   AR   Ar   74   1.973   1.298   4.593
    1   AR   Ar   75   3.062   0.654   4.690
    1   AR   Ar   76   2.494   0.757   3.047
    1   AR   Ar   77   1.784   0.287   5.770
    1   AR   Ar   78   1.047   0.433   6.484
    1   AR   Ar   79   3.406   6.418   6.859
    1   AR   Ar   80   2.828   7.027   5.468
    1   AR   Ar   81   1.896   1.547   0.413
    1   AR   Ar   82   1.793   2.914   0.611
    1   AR   Ar   83   2.700   1.683   1.534
    1   AR   Ar   84   2.331   2.890  -1.315
    1   AR   Ar   85   1.712   2.182   1.221
    1   AR   Ar   86   1.990   2.458   2.441
    1   AR   Ar   87   1.928   1.370   2.261
    1   AR   Ar   88   3.342   3.801   1.328
    1   AR   Ar   89   1.017   1.627   2.068
    1   AR   Ar   90   3.103   2.096   5.106
    1   AR   Ar   91   2.532   2.122   3.998
    1   AR   Ar   92   1.945   1.755   3.262
    1   AR   Ar   93   1.438   1.718   6.176
    1   AR   Ar   94   2.700   1.671   8.314
    1   AR   Ar   95   2.721   0.316   6.716
    1   AR   Ar   96   2.196   2.117   6.718
    1   AR   Ar   97   2.728   3.994  -1.275
    1   AR   Ar   98   3.009   4.770   1.435
    1   AR   Ar   99   3.313   2.999  -1.321
    1   AR   Ar  100   2.392   4.924  -0.270
    1   AR   Ar  101   1.202   3.154   2.056
    1   AR   Ar  102   1.812   4.210   3.692
    1   AR   Ar  103   2.153   3.551   1.954
    1   AR   Ar  104   3.441   3.641   0.250
    1   AR   Ar  105   1.526   3.009   3.979
    1   AR   Ar  106   2.652   3.133   4.803
    1   AR   Ar  107   2.757   4.064   5.382
    1   AR   Ar  108   3.285   3.473   3.789
    1   AR   Ar  109   0.957   3.932   4.412
    1   AR   Ar  110   1.963   4.188   4.797
    1   AR   Ar  111   3.979   5.224   7.303
    1   AR   Ar  112   2.388   3.248   5.944
    1   AR   Ar  113   2.519   4.259   0.671
    1   AR   Ar  114   2.332   5.871   0.893
    1   AR   Ar  115   3.150   5.265   0.505
    1   AR   Ar  116   3.599   0.039   0.399
    1   AR   Ar  117   1.559   4.888   2.944
    1   AR   Ar  118   1.082   6.504   2.750
    1   AR   Ar  119   2.621   4.421   2.766
    1   AR   Ar  120   2.047   5.209   1.911
    1   AR   Ar  121   0.262   4.730   4.124
    1   AR   Ar  122   2.637   6.129   4.156
    1   AR   Ar  123   2.316   5.218   4.406
    1   AR   Ar  124   2.494   5.640   3.023
    1   AR   Ar  125   0.949   5.456   4.775
    1   AR   Ar  126   1.009   6.504   6.103
    1   AR   Ar  127   2.611   5.449   7.674
    1   AR   Ar  128   2.021   6.172   6.190
    1   AR   Ar  129   3.045   6.648   1.191
    1   AR   Ar  130   3.426   6.874  -1.045
    1   AR   Ar  131   4.953   6.188   0.472
    1   AR   Ar  132   5.626   2.248  -0.697
    1   AR   Ar  133   4.069   7.016   2.339
    1   AR   Ar  134   3.557   0.848   2.932
    1   AR   Ar  135   4.859   0.446   2.880
    1   AR   Ar  136   4.390   0.680   1.736
    1   AR   Ar  137   2.903   0.104   3.823
    1   AR   Ar  138   4.886   0.987   4.917
    1   AR   Ar  139   4.940   0.311   4.028
    1   AR   Ar  140   4.305   1.620   3.575
    1   AR   Ar  141   3.736   7.103   4.438
    1   AR   Ar  142   3.799   6.942   6.073
    1   AR   Ar  143   5.434   0.349   6.707
    1   AR   Ar  144   5.089   1.338   7.074
    1   AR   Ar  145   3.059   2.699   0.705
    1   AR   Ar  146   3.987   3.002   0.940
    1   AR   Ar  147   4.961   1.922   0.832
    1   AR   Ar  148   5.966   3.325  -1.193
    1   AR   Ar  149   3.935   1.767   1.075
    1   AR   Ar  150   3.028   1.768   2.592
    1   AR   Ar  151   3.764   2.544   3.814
    1   AR   Ar  152   3.311   2.690   1.718
    1   AR   Ar  153   3.127   1.222   3.739
    1   AR   Ar  154   4.116   1.798   4.599
    1   AR   Ar  155   5.561   1.229   5.737
    1   AR   Ar  156   4.425   3.181   3.955
    1   AR   Ar  157   3.923   2.002   5.817
    1   AR   Ar  158   3.167   2.395   6.611
    1   AR   Ar  159   4.573   1.029   6.135
    1   AR   Ar  160   4.493   2.927   5.578
    1   AR   Ar  161   4.752   2.582  -0.071
    1   AR   Ar  162   4.823   5.255   0.832
    1   AR   Ar  163   5.332   3.193   0.678
    1   AR   Ar  164   5.675   4.679   0.883
    1   AR   Ar  165   3.282   3.667   2.612
    1   AR   Ar  166   3.531   4.934   3.439
    1   AR   Ar  167   4.376   3.035   2.888
    1   AR   Ar  168   4.481   4.003   1.056
    1   AR   Ar  169   2.622   2.812   3.215
    1   AR   Ar  170   2.826   4.239   4.331
    1   AR   Ar  171   3.988   3.663   4.842
    1   AR   Ar  172   4.651   4.664   4.362
    1   AR   Ar  173   3.443   2.925   5.762
    1   AR   Ar  174   4.084   5.291   6.103
    1   AR   Ar  175   3.844   4.148   5.995
    1   AR   Ar  176   3.716   4.661   5.100
    1   AR   Ar  177   5.768   5.549   0.384
    1   AR   Ar  178   4.250   6.420   1.221
    1   AR   Ar  179   3.953   5.370   1.362
    1   AR   Ar  180   4.419   5.406  -0.243
    1   AR   Ar  181   3.090   5.817   1.729
    1   AR   Ar  182   2.218   6.504   1.848
    1   AR   Ar  183   3.707   4.669   2.449
    1   AR   Ar  184   4.021   5.946   2.340
    1   AR   Ar  185   1.312   5.858   3.955
    1   AR   Ar  186   3.651   5.620   4.381
    1   AR   Ar  187   4.670   5.406   3.218
    1   AR   Ar  188   3.644   6.096   3.376
    1   AR   Ar  189   2.555   5.359   5.798
    1   AR   Ar  190   4.761   6.470   6.282
    1   AR   Ar  191   4.544   5.689   5.126
    1   AR   Ar  192   3.285   6.070   5.182
    1   AR   Ar  193   5.682   0.009  -0.167
    1   AR   Ar  194   4.660   7.070  -0.077
    1   AR   Ar  195   6.127   0.887   0.797
    1   AR   Ar  196   6.202   1.032  -0.841
    1   AR   Ar  197   5.054   0.339   0.792
    1   AR   Ar  198   5.269   1.462   1.701
    1   AR   Ar  199   5.522   0.193   1.965
    1   AR   Ar  200   6.980   1.636   1.234
    1   AR   Ar  201   4.950   6.471   2.717
    1   AR   Ar  202   5.477   1.166   3.894
    1   AR   Ar  203   6.750   6.935   4.740
    1   AR   Ar  204   6.151   0.388   2.965
    1   AR   Ar  205   5.571   6.741   3.734
    1   AR   Ar  206   4.844   6.809   5.278
    1   AR   Ar  207   0.163   0.045   5.879
    1   AR   Ar  208   6.276   0.560   4.076
    1   AR   Ar  209   6.677   1.958  -1.409
    1   AR   Ar  210   4.975   2.681   1.547
    1   AR   Ar  211   5.993   2.142   0.598
    1   AR   Ar  212   6.897   3.589  -0.662
    1   AR   Ar  213   4.154   2.199   1.993
    1   AR   Ar  214   4.323   3.377   1.808
    1   AR   Ar  215   5.478   2.635   2.720
    1   AR   Ar  216   6.065   2.957   1.803
    1   AR   Ar  217   5.218   2.238   3.806
    1   AR   Ar  218   5.822   1.636   4.771
    1   AR   Ar  219   5.328   1.409   2.748
    1   AR   Ar  220   6.414   3.209   3.212
    1   AR   Ar  221   6.102   0.394   5.223
    1   AR   Ar  222   4.889   2.198   6.432
    1   AR   Ar  223   6.710   1.604   7.398
    1   AR   Ar  224   5.764   2.655   5.757
    1   AR   Ar  225   5.231   4.290   0.030
    1   AR   Ar  226   4.653   4.498   1.995
    1   AR   Ar  227   7.035   3.980   1.780
    1   AR   Ar  228   6.619   4.950   0.654
    1   AR   Ar  229   6.439   3.591   0.923
    1   AR   Ar  230   4.336   4.099   3.134
    1   AR   Ar  231   0.235   2.506   3.728
    1   AR   Ar  232   5.469   3.872   1.403
    1   AR   Ar  233   6.274   2.844   4.480
    1   AR   Ar  234   5.771   4.246   5.146
    1   AR   Ar  235   6.794   3.811   4.526
    1   AR   Ar  236   5.644   3.544   3.811
    1   AR   Ar  237   5.306   3.113   4.760
    1   AR   Ar  238   4.706   4.534   5.651
    1   AR   Ar  239   5.840   4.050   7.332
    1   AR   Ar  240   6.647   3.768   5.755
    1   AR   Ar  241   6.673   0.432  -0.049
    1   AR   Ar  242   5.390   6.401   1.467
    1   AR   Ar  243   5.830   4.641   2.126
    1   AR   Ar  244   6.638   5.804  -0.015
    1   AR   Ar  245   5.070   5.558   2.272
    1   AR   Ar  246   5.964   6.442   2.414
    1   AR   Ar  247   5.620   3.696   2.568
    1   AR   Ar  248   6.102   6.968   1.072
    1   AR   Ar  249   5.207   4.470   3.201
    1   AR   Ar  250   4.474   6.286   4.325
    1   AR   Ar  251   5.287   5.513   4.362
    1   AR   Ar  252   5.695   5.726   3.222
    1   AR   Ar  253   5.638   5.167   5.570
    1   AR   Ar  254   5.558   5.754   6.418
    1   AR   Ar  255   5.328   4.329   6.411
    1   AR   Ar  256   6.315   6.042   4.911
    7.12000  7.12000 12.00000
Argon-slab step 935
  256
    1   AR   Ar    1   0.548   0.514  -0.629
    1   AR   Ar    2   7.071   0.389   0.908
    1   AR   Ar    3   0.345   6.618   0.118
    1   AR   Ar    4   1.413   0.558   0.247
    1   AR   Ar    5   7.073   6.102   0.970
    1   AR   Ar    6   0.136   0.075   3.237
    1   AR   Ar    7   0.100   6.304   2.351
    1   AR   Ar    8   0.616   7.027   1.795
    1   AR   Ar    9   0.488   0.939   4.266
    1   AR   Ar   10   6.823   1.596   4.366
    1   AR   Ar   11   2.168   7.077   4.598
    1   AR   Ar   12   1.296   0.978   3.600
    1   AR   Ar   13   6.946   1.060   5.201
    1   AR   Ar   14   0.393   1.366   6.116
    1   AR   Ar   15   0.576   6.112   8.169
    1   AR   Ar   16   0.929   0.768   5.300
    1   AR   Ar   17   6.943   1.474   0.165
    1   AR   Ar   18   6.967   2.964   0.141
    1   AR   Ar   19   1.006   1.317   0.859
    1   AR   Ar   20   0.337   3.162  -1.444
    1   AR   Ar   21   6.865   0.220   1.972
    1   AR   Ar   22   6.713   2.077   2.708
    1   AR   Ar   23   7.111   1.267   2.202
    1   AR   Ar   24   0.015   2.672   1.811
    1   AR   Ar   25   0.247   1.579   3.446
    1   AR   Ar   26   6.184   1.789   3.565
    1   AR   Ar   27   1.015   1.989   4.995
    1   AR   Ar   28   0.387   2.977   4.807
    1   AR   Ar   29   6.501   1.623   5.833
    1   AR   Ar   30   6.382   2.748   6.693
    1   AR   Ar   31   0.848   1.309   7.206
    1   AR   Ar   32   1.750   2.739   5.178
    1   AR   Ar   33   1.181   3.743  -1.137
    1   AR   Ar   34   0.520   4.749   1.244
    1   AR   Ar   35   0.476   3.791   0.644
    1   AR   Ar   36   1.581   6.563  -1.314
    1   AR   Ar   37   0.202   3.395   2.650
    1   AR   Ar   38   0.789   4.654   2.366
    1   AR   Ar   39   1.226   3.842   2.877
    1   AR   Ar   40   1.399   4.227   1.695
    1   AR   Ar   41   0.806   2.410   2.766
    1   AR   Ar   42   6.820   5.001   4.908
    1   AR   Ar   43   6.776   2.333   5.152
    1   AR   Ar   44   0.458   3.553   3.630
    1   AR   Ar   45   0.568   3.578   5.762
    1   AR   Ar   46   6.604   4.718   6.418
    1   AR   Ar   47   0.054   3.837   6.862
    1   AR   Ar   48   0.232   5.597   6.276
    1   AR   Ar   49   0.582   5.397  -0.795
    1   AR   Ar   50   6.153   5.656   1.559
    1   AR   Ar   51   1.225   4.780   0.166
    1   AR   Ar   52   0.465   5.451   0.318
    1   AR   Ar   53   6.569   5.309   2.630
    1   AR   Ar   54   6.553   6.459   3.294
    1   AR   Ar   55   0.415   5.404   3.394
    1   AR   Ar   56   1.056   5.969   1.796
    1   AR   Ar   57   6.757   4.276   2.870
    1   AR   Ar   58   7.113   5.981   4.162
    1   AR   Ar   59   1.867   6.109   4.883
    1   AR   Ar   60   0.480   6.899   4.208
    1   AR   Ar   61   6.425   6.120   5.927
    1   AR   Ar   62   0.163   6.216   5.252
    1   AR   Ar   63   1.196   5.359   5.756
    1   AR   Ar   64   0.987   6.796   5.090
    1   AR   Ar   65   2.275   6.964   0.276
    1   AR   Ar   66   1.858   0.889   1.202
    1   AR   Ar   67   3.721   6.044   0.081
    1   AR   Ar   68   3.920   0.946  -0.075
    1   AR   Ar   69   1.538   6.925   1.157
    1   AR   Ar   70   1.750   0.228   2.410
    1   AR   Ar   71   2.722   0.258   1.899
    1   AR   Ar   72   2.933   0.752   0.945
    1   AR   Ar   73   1.885   6.847   3.606
    1   AR   Ar   74   1.979   1.301   4.620
    1   AR   Ar   75   3.098   0.656   4.703
    1   AR   Ar   76   2.525   0.760   3.061
    1   AR   Ar   77   1.764   0.270   5.751
    1   AR   Ar   78   1.038   0.430   6.457
    1   AR   Ar   79   3.421   6.425   6.870
    1   AR   Ar   80   2.831   7.031   5.476
    1   AR   Ar   81   1.932   1.510   0.418
    1   AR   Ar   82   1.785   2.935   0.615
    1   AR   Ar   83   2.693   1.673   1.499
    1   AR   Ar   84   2.312   2.886  -1.340
    1   AR   Ar   85   1.737   2.166   1.221
    1   AR   Ar   86   1.979   2.446   2.475
    1   AR   Ar   87   1.961   1.364   2.254
    1   AR   Ar   88   3.332   3.781   1.345
    1   AR   Ar   89   0.984   1.633   2.040
    1   AR   Ar   90   3.107   2.086   5.105
    1   AR   Ar   91   2.532   2.114   3.999
    1   AR   Ar   92   1.959   1.737   3.267
    1   AR   Ar   93   1.457   1.722   6.169
    1   AR   Ar   94   2.697   1.651   8.331
    1   AR   Ar   95   2.737   0.286   6.677
    1   AR   Ar   96   2.192   2.126   6.748
    1   AR   Ar   97   2.720   4.001  -1.236
    1   AR   Ar   98   3.007   4.792   1.462
    1   AR   Ar   99   3.314   2.993  -1.346
    1   AR   Ar  100   2.410   4.893  -0.277
    1   AR   Ar  101   1.181   3.159   2.051
    1   AR   Ar  102   1.840   4.203   3.706
    1   AR   Ar  103   2.153   3.531   1.937
    1   AR   Ar  104   3.435   3.672   0.245
    1   AR   Ar  105   1.485   3.033   3.999
    1   AR   Ar  106   2.664   3.126   4.792
    1   AR   Ar  107   2.778   4.077   5.356
    1   AR   Ar  108   3.278   3.493   3.796
    1   AR   Ar  109   0.960   3.938   4.414
    1   AR   Ar  110   1.962   4.161   4.782
    1   AR   Ar  111   3.945   5.212   7.307
    1   AR   Ar  112   2.363   3.268   5.950
    1   AR   Ar  113   2.482   4.261   0.668
    1   AR   Ar  114   2.351   5.892   0.909
    1   AR   Ar  115   3.150   5.228   0.460
    1   AR   Ar  116   3.582   0.005   0.402
    1   AR   Ar  117   1.549   4.885   2.975
    1   AR   Ar  118   1.096   6.497   2.764
    1   AR   Ar  119   2.617   4.438   2.759
    1   AR   Ar  120   2.060   5.224   1.920
    1   AR   Ar  121   0.228   4.715   4.139
    1   AR   Ar  122   2.602   6.156   4.149
    1   AR   Ar  123   2.275   5.216   4.410
    1   AR   Ar  124   2.494   5.617   3.047
    1   AR   Ar  125   0.920   5.453   4.787
    1   AR   Ar  126   0.990   6.532   6.084
    1   AR   Ar  127   2.597   5.464   7.685
    1   AR   Ar  128   2.028   6.171   6.185
    1   AR   Ar  129   3.029   6.659   1.154
    1   AR   Ar  130   3.445   6.881  -1.055
    1   AR   Ar  131   4.929   6.161   0.423
    1   AR   Ar  132   5.639   2.247  -0.708
    1   AR   Ar  133   4.094   7.025   2.308
    1   AR   Ar  134   3.586   0.845   2.913
    1   AR   Ar  135   4.838   0.466   2.875
    1   AR   Ar  136   4.399   0.690   1.711
    1   AR   Ar  137   2.898   0.086   3.826
    1   AR   Ar  138   4.875   0.990   4.911
    1   AR   Ar  139   4.923   0.318   4.058
    1   AR   Ar  140   4.291   1.614   3.575
    1   AR   Ar  141   3.733   7.101   4.424
    1   AR   Ar  142   3.805   6.983   6.077
    1   AR   Ar  143   5.391   0.305   6.676
    1   AR   Ar  144   5.079   1.313   7.079
    1   AR   Ar  145   3.052   2.700   0.710
    1   AR   Ar  146   4.027   2.961   0.930
    1   AR   Ar  147   4.957   1.937   0.837
    1   AR   Ar  148   5.946   3.333  -1.228
    1   AR   Ar  149   3.937   1.735   1.069
    1   AR   Ar  150   3.030   1.776   2.572
    1   AR   Ar  151   3.767   2.520   3.819
    1   AR   Ar  152   3.299   2.703   1.767
    1   AR   Ar  153   3.126   1.234   3.759
    1   AR   Ar  154   4.092   1.822   4.593
    1   AR   Ar  155   5.567   1.202   5.709
    1   AR   Ar  156   4.455   3.163   3.958
    1   AR   Ar  157   3.920   1.966   5.824
    1   AR   Ar  158   3.186   2.363   6.637
    1   AR   Ar  159   4.591   1.026   6.139
    1   AR   Ar  160   4.472   2.947   5.590
    1   AR   Ar  161   4.743   2.620  -0.058
    1   AR   Ar  162   4.820   5.256   0.785
    1   AR   Ar  163   5.308   3.177   0.691
    1   AR   Ar  164   5.693   4.681   0.888
    1   AR   Ar  165   3.270   3.646   2.621
    1   AR   Ar  166   3.502   4.930   3.421
    1   AR   Ar  167   4.366   3.032   2.851
    1   AR   Ar  168   4.482   4.029   1.065
    1   AR   Ar  169   2.629   2.825   3.222
    1   AR   Ar  170   2.840   4.243   4.308
    1   AR   Ar  171   4.000   3.670   4.850
    1   AR   Ar  172   4.634   4.659   4.380
    1   AR   Ar  173   3.400   2.961   5.751
    1   AR   Ar  174   4.050   5.276   6.110
    1   AR   Ar  175   3.838   4.134   5.986
    1   AR   Ar  176   3.721   4.658   5.108
    1   AR   Ar  177   5.794   5.532   0.392
    1   AR   Ar  178   4.261   6.415   1.205
    1   AR   Ar  179   3.901   5.382   1.354
    1   AR   Ar  180   4.434   5.385  -0.237
    1   AR   Ar  181   3.063   5.822   1.761
    1   AR   Ar  182   2.188   6.499   1.853
    1   AR   Ar  183   3.711   4.686   2.453
    1   AR   Ar  184   4.028   5.922   2.336
    1   AR   Ar  185   1.291   5.871   3.942
    1   AR   Ar  186   3.641   5.599   4.398
    1   AR   Ar  187   4.678   5.403   3.227
    1   AR   Ar  188   3.638   6.091   3.351
    1   AR   Ar  189   2.550   5.396   5.779
    1   AR   Ar  190   4.783   6.468   6.272
    1   AR   Ar  191   4.554   5.697   5.142
    1   AR   Ar  192   3.282   6.042   5.195
    1   AR   Ar  193   5.702   0.020  -0.174
    1   AR   Ar  194   4.644   7.068  -0.083
    1   AR   Ar  195   6.139   0.880   0.796
    1   AR   Ar  196   6.192   1.049  -0.870
    1   AR   Ar  197   5.042   0.340   0.782
    1   AR   Ar  198   5.295   1.466   1.684
    1   AR   Ar  199   5.515   0.206   1.977
    1   AR   Ar  200   6.996   1.646   1.215
    1   AR   Ar  201   4.973   6.475   2.698
    1   AR   Ar  202   5.463   1.192   3.899
    1   AR   Ar  203   6.758   6.929   4.729
    1   AR   Ar  204   6.164   0.385   2.978
    1   AR   Ar  205   5.562   6.782   3.732
    1   AR   Ar  206   4.852   6.823   5.256
    1   AR   Ar  207   0.170   0.046   5.879
    1   AR   Ar  208   6.286   0.544   4.071
    1   AR   Ar  209   6.697   1.964  -1.403
    1   AR   Ar  210   4.959   2.700   1.545
    1   AR   Ar  211   5.995   2.147   0.612
    1   AR   Ar  212   6.890   3.619  -0.659
    1   AR   Ar  213   4.119   2.160   1.987
    1   AR   Ar  214   4.330   3.413   1.773
    1   AR   Ar  215   5.451   2.654   2.731
    1   AR   Ar  216   6.035   2.997   1.816
    1   AR   Ar  217   5.237   2.218   3.801
    1   AR   Ar  218   5.823   1.651   4.786
    1   AR   Ar  219   5.342   1.431   2.775
    1   AR   Ar  220   6.441   3.185   3.197
    1   AR   Ar  221   6.122   0.405   5.243
    1   AR   Ar  222   4.886   2.153   6.460
    1   AR   Ar  223   6.697   1.585   7.389
    1   AR   Ar  224   5.763   2.661   5.740
    1   AR   Ar  225   5.241   4.280   0.008
    1   AR   Ar  226   4.643   4.460   2.013
    1   AR   Ar  227   7.024   3.994   1.781
    1   AR   Ar  228   6.605   4.937   0.678
    1   AR   Ar  229   6.444   3.586   0.898
    1   AR   Ar  230   4.324   4.093   3.150
    1   AR   Ar  231   0.234   2.499   3.730
    1   AR   Ar  232   5.490   3.876   1.391
    1   AR   Ar  233   6.276   2.894   4.502
    1   AR   Ar  234   5.767   4.242   5.142
    1   AR   Ar  235   6.811   3.791   4.505
    1   AR   Ar  236   5.621   3.529   3.780
    1   AR   Ar  237   5.299   3.119   4.748
    1   AR   Ar  238   4.762   4.566   5.644
    1   AR   Ar  239   5.869   4.037   7.360
    1   AR   Ar  240   6.657   3.779   5.726
    1   AR   Ar  241   6.635   0.437  -0.048
    1   AR   Ar  242   5.385   6.399   1.472
    1   AR   Ar  243   5.838   4.631   2.124
    1   AR   Ar  244   6.649   5.809  -0.030
    1   AR   Ar  245   5.092   5.556   2.260
    1   AR   Ar  246   5.990   6.410   2.462
    1   AR   Ar  247   5.620   3.695   2.576
    1   AR   Ar  248   6.119   6.969   1.104
    1   AR   Ar  249   5.187   4.475   3.191
    1   AR   Ar  250   4.470   6.284   4.350
    1   AR   Ar  251   5.307   5.512   4.386
    1   AR   Ar  252   5.706   5.781   3.226
    1   AR   Ar  253   5.595   5.185   5.595
    1   AR   Ar  254   5.551   5.733   6.424
    1   AR   Ar  255   5.324   4.353   6.421
    1   AR   Ar  256   6.289   6.016   4.901
    7.12000  7.12000 12.00000
Argon-slab step 940
  256
    1   AR   Ar    1   0.530   0.505  -0.632
    1   AR   Ar    2   7.088   0.392   0.955
    1   AR   Ar    3   0.337   6.622   0.148
    1   AR   Ar    4   1.392   0.574   0.239
    1   AR   Ar    5   7.092   6.083   0.958
    1   AR   Ar    6   0.167   0.040   3.216
    1   AR   Ar    7   0.095   6.305   2.334
    1   AR   Ar    8   0.617   7.042   1.766
    1   AR   Ar    9   0.474   0.931   4.267
    1   AR   Ar   10   6.820   1.568   4.333
    1   AR   Ar   11   2.172   7.057   4.579
    1   AR   Ar   12   1.279   0.964   3.606
    1   AR   Ar   13   6.961   1.048   5.192
    1   AR   Ar   14   0.388   1.371   6.120
    1   AR   Ar   15   0.549   6.102   8.219
    1   AR   Ar   16   0.877   0.764   5.282
    1   AR   Ar   17   6.976   1.446   0.141
    1   AR   Ar   18   6.978   2.973   0.148
    1   AR   Ar   19   0.994   1.322   0.859
    1   AR   Ar   20   0.342   3.156  -1.458
    1   AR   Ar   21   6.849   0.228   1.990
    1   AR   Ar   22   6.692   2.059   2.709
    1   AR   Ar   23   0.028   1.245   2.167
    1   AR   Ar   24   7.118   2.685   1.788
    1   AR   Ar   25   0.222   1.567   3.437
    1   AR   Ar   26   6.164   1.798   3.590
    1   AR   Ar   27   0.992   1.982   4.977
    1   AR   Ar   28   0.389   2.928   4.768
    1   AR   Ar   29   6.490   1.637   5.843
    1   AR   Ar   30   6.345   2.738   6.700
    1   AR   Ar   31   0.856   1.316   7.193
    1   AR   Ar   32   1.718   2.724   5.172
    1   AR   Ar   33   1.188   3.753  -1.170
    1   AR   Ar   34   0.527   4.784   1.238
    1   AR   Ar   35   0.483   3.778   0.657
    1   AR   Ar   36   1.559   6.545  -1.371
    1   AR   Ar   37   0.176   3.408   2.643
    1   AR   Ar   38   0.784   4.657   2.341
    1   AR   Ar   39   1.224   3.832   2.881
    1   AR   Ar   40   1.400   4.212   1.665
    1   AR   Ar   41   0.823   2.431   2.753
    1   AR   Ar   42   6.818   4.991   4.923
    1   AR   Ar   43   6.761   2.351   5.170
    1   AR   Ar   44   0.422   3.527   3.608
    1   AR   Ar   45   0.540   3.545   5.797
    1   AR   Ar   46   6.567   4.743   6.414
    1   AR   Ar   47   0.028   3.861   6.874
    1   AR   Ar   48   0.244   5.640   6.285
    1   AR   Ar   49   0.588   5.414  -0.793
    1   AR   Ar   50   6.130   5.637   1.581
    1   AR   Ar   51   1.228   4.786   0.141
    1   AR   Ar   52   0.440   5.448   0.274
    1   AR   Ar   53   6.559   5.287   2.624
    1   AR   Ar   54   6.555   6.436   3.278
    1   AR   Ar   55   0.399   5.392   3.385
    1   AR   Ar   56   1.033   6.006   1.800
    1   AR   Ar   57   6.793   4.302   2.875
    1   AR   Ar   58   7.092   5.964   4.202
    1   AR   Ar   59   1.833   6.121   4.905
    1   AR   Ar   60   0.482   6.906   4.257
    1   AR   Ar   61   6.434   6.162   5.953
    1   AR   Ar   62   0.130   6.227   5.233
    1   AR   Ar   63   1.178   5.364   5.758
    1   AR   Ar   64   0.979   6.753   5.088
    1   AR   Ar   65   2.266   6.997   0.261
    1   AR   Ar   66   1.870   0.847   1.176
    1   AR   Ar   67   3.749   6.022   0.073
    1   AR   Ar   68   3.901   0.967  -0.090
    1   AR   Ar   69   1.532   6.957   1.164
    1   AR   Ar   70   1.736   0.236   2.414
    1   AR   Ar   71   2.730   0.322   1.916
    1   AR   Ar   72   2.921   0.734   0.939
    1   AR   Ar   73   1.895   6.864   3.591
    1   AR   Ar   74   1.995   1.307   4.663
    1   AR   Ar   75   3.123   0.672   4.722
    1   AR   Ar   76   2.549   0.763   3.071
    1   AR   Ar   77   1.750   0.249   5.727
    1   AR   Ar   78   1.025   0.430   6.434
    1   AR   Ar   79   3.433   6.430   6.884
    1   AR   Ar   80   2.833   7.006   5.493
    1   AR   Ar   81   1.973   1.479   0.414
    1   AR   Ar   82   1.771   2.951   0.618
    1   AR   Ar   83   2.687   1.665   1.462
    1   AR   Ar   84   2.285   2.882  -1.365
    1   AR   Ar   85   1.761   2.140   1.235
    1   AR   Ar   86   1.966   2.434   2.505
    1   AR   Ar   87   2.000   1.356   2.247
    1   AR   Ar   88   3.322   3.758   1.364
    1   AR   Ar   89   0.948   1.641   2.009
    1   AR   Ar   90   3.110   2.079   5.078
    1   AR   Ar   91   2.537   2.109   4.010
    1   AR   Ar   92   1.971   1.717   3.268
    1   AR   Ar   93   1.470   1.722   6.156
    1   AR   Ar   94   2.693   1.631   8.347
    1   AR   Ar   95   2.752   0.254   6.636
    1   AR   Ar   96   2.187   2.137   6.782
    1   AR   Ar   97   2.712   4.007  -1.195
    1   AR   Ar   98   3.004   4.814   1.493
    1   AR   Ar   99   3.323   2.989  -1.372
    1   AR   Ar  100   2.426   4.861  -0.284
    1   AR   Ar  101   1.156   3.161   2.044
    1   AR   Ar  102   1.857   4.204   3.682
    1   AR   Ar  103   2.161   3.510   1.921
    1   AR   Ar  104   3.430   3.704   0.241
    1   AR   Ar  105   1.443   3.057   4.018
    1   AR   Ar  106   2.670   3.125   4.797
    1   AR   Ar  107   2.808   4.089   5.336
    1   AR   Ar  108   3.276   3.509   3.800
    1   AR   Ar  109   0.966   3.946   4.422
    1   AR   Ar  110   1.947   4.134   4.768
    1   AR   Ar  111   3.911   5.201   7.310
    1   AR   Ar  112   2.337   3.286   5.956
    1   AR   Ar  113   2.444   4.261   0.673
    1   AR   Ar  114   2.367   5.910   0.925
    1   AR   Ar  115   3.149   5.190   0.418
    1   AR   Ar  116   3.561   7.076   0.403
    1   AR   Ar  117   1.545   4.889   3.008
    1   AR   Ar  118   1.110   6.491   2.780
    1   AR   Ar  119   2.609   4.460   2.753
    1   AR   Ar  120   2.072   5.240   1.930
    1   AR   Ar  121   0.200   4.693   4.146
    1   AR   Ar  122   2.574   6.187   4.137
    1   AR   Ar  123   2.236   5.215   4.419
    1   AR   Ar  124   2.482   5.600   3.049
    1   AR   Ar  125   0.885   5.448   4.798
    1   AR   Ar  126   0.971   6.555   6.069
    1   AR   Ar  127   2.584   5.478   7.696
    1   AR   Ar  128   2.031   6.176   6.181
    1   AR   Ar  129   3.015   6.674   1.117
    1   AR   Ar  130   3.464   6.888  -1.063
    1   AR   Ar  131   4.907   6.148   0.368
    1   AR   Ar  132   5.654   2.246  -0.719
    1   AR   Ar  133   4.116   7.029   2.279
    1   AR   Ar  134   3.619   0.839   2.888
    1   AR   Ar  135   4.818   0.485   2.871
    1   AR   Ar  136   4.411   0.703   1.683
    1   AR   Ar  137   2.902   0.089   3.817
    1   AR   Ar  138   4.864   0.993   4.904
    1   AR   Ar  139   4.893   0.330   4.092
    1   AR   Ar  140   4.270   1.588   3.577
    1   AR   Ar  141   3.744   7.085   4.409
    1   AR   Ar  142   3.813   7.026   6.075
    1   AR   Ar  143   5.348   0.261   6.643
    1   AR   Ar  144   5.071   1.287   7.085
    1   AR   Ar  145   3.038   2.699   0.715
    1   AR   Ar  146   4.071   2.917   0.914
    1   AR   Ar  147   4.952   1.953   0.834
    1   AR   Ar  148   5.927   3.340  -1.262
    1   AR   Ar  149   3.934   1.700   1.059
    1   AR   Ar  150   3.030   1.783   2.552
    1   AR   Ar  151   3.752   2.482   3.820
    1   AR   Ar  152   3.281   2.720   1.816
    1   AR   Ar  153   3.127   1.250   3.786
    1   AR   Ar  154   4.068   1.846   4.592
    1   AR   Ar  155   5.570   1.174   5.684
    1   AR   Ar  156   4.502   3.162   3.965
    1   AR   Ar  157   3.914   1.933   5.833
    1   AR   Ar  158   3.211   2.332   6.663
    1   AR   Ar  159   4.616   1.017   6.159
    1   AR   Ar  160   4.453   2.966   5.602
    1   AR   Ar  161   4.734   2.657  -0.043
    1   AR   Ar  162   4.814   5.251   0.734
    1   AR   Ar  163   5.284   3.158   0.696
    1   AR   Ar  164   5.701   4.681   0.898
    1   AR   Ar  165   3.261   3.621   2.629
    1   AR   Ar  166   3.471   4.929   3.411
    1   AR   Ar  167   4.355   3.028   2.814
    1   AR   Ar  168   4.481   4.055   1.072
    1   AR   Ar  169   2.637   2.839   3.228
    1   AR   Ar  170   2.861   4.255   4.282
    1   AR   Ar  171   4.012   3.676   4.858
    1   AR   Ar  172   4.615   4.652   4.398
    1   AR   Ar  173   3.357   2.999   5.737
    1   AR   Ar  174   4.016   5.262   6.116
    1   AR   Ar  175   3.817   4.084   5.966
    1   AR   Ar  176   3.724   4.663   5.113
    1   AR   Ar  177   5.812   5.524   0.399
    1   AR   Ar  178   4.269   6.411   1.191
    1   AR   Ar  179   3.853   5.391   1.344
    1   AR   Ar  180   4.452   5.361  -0.232
    1   AR   Ar  181   3.032   5.826   1.800
    1   AR   Ar  182   2.156   6.486   1.860
    1   AR   Ar  183   3.702   4.680   2.473
    1   AR   Ar  184   4.036   5.897   2.331
    1   AR   Ar  185   1.274   5.889   3.921
    1   AR   Ar  186   3.635   5.569   4.404
    1   AR   Ar  187   4.681   5.402   3.239
    1   AR   Ar  188   3.632   6.086   3.328
    1   AR   Ar  189   2.547   5.428   5.756
    1   AR   Ar  190   4.804   6.467   6.262
    1   AR   Ar  191   4.558   5.704   5.151
    1   AR   Ar  192   3.275   6.021   5.219
    1   AR   Ar  193   5.750   0.045  -0.166
    1   AR   Ar  194   4.621   7.065  -0.093
    1   AR   Ar  195   6.147   0.878   0.795
    1   AR   Ar  196   6.182   1.066  -0.899
    1   AR   Ar  197   5.033   0.342   0.778
    1   AR   Ar  198   5.322   1.468   1.671
    1   AR   Ar  199   5.507   0.223   1.991
    1   AR   Ar  200   6.980   1.638   1.191
    1   AR   Ar  201   4.993   6.484   2.683
    1   AR   Ar  202   5.484   1.188   3.911
    1   AR   Ar  203   6.762   6.926   4.719
    1   AR   Ar  204   6.175   0.381   2.989
    1   AR   Ar  205   5.562   6.812   3.723
    1   AR   Ar  206   4.860   6.839   5.231
    1   AR   Ar  207   0.175   0.050   5.876
    1   AR   Ar  208   6.299   0.527   4.066
    1   AR   Ar  209   6.727   1.965  -1.399
    1   AR   Ar  210   4.951   2.711   1.547
    1   AR   Ar  211   5.999   2.152   0.626
    1   AR   Ar  212   6.882   3.653  -0.657
    1   AR   Ar  213   4.091   2.118   1.988
    1   AR   Ar  214   4.327   3.448   1.766
    1   AR   Ar  215   5.425   2.671   2.743
    1   AR   Ar  216   6.006   3.035   1.829
    1   AR   Ar  217   5.253   2.203   3.795
    1   AR   Ar  218   5.825   1.669   4.802
    1   AR   Ar  219   5.357   1.454   2.805
    1   AR   Ar  220   6.469   3.158   3.183
    1   AR   Ar  221   6.136   0.418   5.265
    1   AR   Ar  222   4.888   2.138   6.472
    1   AR   Ar  223   6.685   1.565   7.379
    1   AR   Ar  224   5.762   2.665   5.722
    1   AR   Ar  225   5.249   4.269  -0.012
    1   AR   Ar  226   4.639   4.424   2.034
    1   AR   Ar  227   7.013   4.008   1.781
    1   AR   Ar  228   6.611   4.925   0.702
    1   AR   Ar  229   6.449   3.581   0.873
    1   AR   Ar  230   4.290   4.077   3.166
    1   AR   Ar  231   0.219   2.516   3.723
    1   AR   Ar  232   5.480   3.857   1.403
    1   AR   Ar  233   6.277   2.945   4.515
    1   AR   Ar  234   5.763   4.234   5.136
    1   AR   Ar  235   6.830   3.775   4.483
    1   AR   Ar  236   5.601   3.530   3.763
    1   AR   Ar  237   5.287   3.125   4.715
    1   AR   Ar  238   4.809   4.599   5.623
    1   AR   Ar  239   5.898   4.024   7.387
    1   AR   Ar  240   6.664   3.791   5.695
    1   AR   Ar  241   6.604   0.442  -0.050
    1   AR   Ar  242   5.366   6.386   1.477
    1   AR   Ar  243   5.846   4.623   2.120
    1   AR   Ar  244   6.668   5.819  -0.050
    1   AR   Ar  245   5.096   5.551   2.254
    1   AR   Ar  246   6.016   6.381   2.497
    1   AR   Ar  247   5.620   3.693   2.584
    1   AR   Ar  248   6.144   6.974   1.132
    1   AR   Ar  249   5.182   4.496   3.188
    1   AR   Ar  250   4.473   6.287   4.357
    1   AR   Ar  251   5.329   5.513   4.408
    1   AR   Ar  252   5.715   5.832   3.234
    1   AR   Ar  253   5.556   5.203   5.611
    1   AR   Ar  254   5.542   5.714   6.440
    1   AR   Ar  255   5.328   4.376   6.440
    1   AR   Ar  256   6.257   5.984   4.888
    7.12000  7.12000 12.00000
Argon-slab step 945
  256
    1   AR   Ar    1   0.511   0.496  -0.632
    1   AR   Ar    2   7.109   0.395   1.001
    1   AR   Ar    3   0.330   6.629   0.174
    1   AR   Ar    4   1.370   0.585   0.229
    1   AR   Ar    5   7.107   6.064   0.954
    1   AR   Ar    6   0.194   0.021   3.195
    1   AR   Ar    7   0.087   6.304   2.320
    1   AR   Ar    8   0.634   7.054   1.732
    1   AR   Ar    9   0.461   0.914   4.270
    1   AR   Ar   10   6.812   1.548   4.303
    1   AR   Ar   11   2.176   7.045   4.567
    1   AR   Ar   12   1.265   0.948   3.611
    1   AR   Ar   13   6.982   1.028   5.182
    1   AR   Ar   14   0.385   1.374   6.123
    1   AR   Ar   15   0.523   6.092   8.269
    1   AR   Ar   16   0.827   0.760   5.265
    1   AR   Ar   17   7.009   1.418   0.117
    1   AR   Ar   18   6.989   2.979   0.156
    1   AR   Ar   19   0.975   1.331   0.862
    1   AR   Ar   20   0.345   3.147  -1.473
    1   AR   Ar   21   6.814   0.239   2.014
    1   AR   Ar   22   6.672   2.046   2.709
    1   AR   Ar   23   0.060   1.220   2.136
    1   AR   Ar   24   7.100   2.697   1.765
    1   AR   Ar   25   0.199   1.545   3.418
    1   AR   Ar   26   6.151   1.811   3.601
    1   AR   Ar   27   0.967   1.971   4.958
    1   AR   Ar   28   0.395   2.883   4.726
    1   AR   Ar   29   6.473   1.656   5.864
    1   AR   Ar   30   6.308   2.729   6.705
    1   AR   Ar   31   0.864   1.322   7.178
    1   AR   Ar   32   1.686   2.712   5.165
    1   AR   Ar   33   1.195   3.764  -1.202
    1   AR   Ar   34   0.534   4.821   1.231
    1   AR   Ar   35   0.490   3.766   0.672
    1   AR   Ar   36   1.537   6.527  -1.427
    1   AR   Ar   37   0.156   3.417   2.623
    1   AR   Ar   38   0.770   4.663   2.318
    1   AR   Ar   39   1.244   3.823   2.899
    1   AR   Ar   40   1.403   4.195   1.630
    1   AR   Ar   41   0.833   2.450   2.741
    1   AR   Ar   42   6.807   4.986   4.951
    1   AR   Ar   43   6.746   2.364   5.190
    1   AR   Ar   44   0.387   3.506   3.593
    1   AR   Ar   45   0.560   3.536   5.774
    1   AR   Ar   46   6.529   4.768   6.408
    1   AR   Ar   47   7.120   3.884   6.883
    1   AR   Ar   48   0.257   5.684   6.292
    1   AR   Ar   49   0.602   5.378  -0.816
    1   AR   Ar   50   6.108   5.617   1.602
    1   AR   Ar   51   1.234   4.788   0.117
    1   AR   Ar   52   0.417   5.443   0.233
    1   AR   Ar   53   6.556   5.292   2.626
    1   AR   Ar   54   6.578   6.410   3.282
    1   AR   Ar   55   0.383   5.381   3.371
    1   AR   Ar   56   1.012   6.041   1.802
    1   AR   Ar   57   6.828   4.326   2.882
    1   AR   Ar   58   7.117   5.953   4.204
    1   AR   Ar   59   1.831   6.150   4.923
    1   AR   Ar   60   0.496   6.917   4.287
    1   AR   Ar   61   6.443   6.204   5.978
    1   AR   Ar   62   0.099   6.228   5.223
    1   AR   Ar   63   1.163   5.371   5.767
    1   AR   Ar   64   0.984   6.714   5.088
    1   AR   Ar   65   2.260   7.030   0.250
    1   AR   Ar   66   1.886   0.800   1.164
    1   AR   Ar   67   3.775   6.006   0.068
    1   AR   Ar   68   3.883   0.987  -0.103
    1   AR   Ar   69   1.525   6.988   1.169
    1   AR   Ar   70   1.722   0.245   2.417
    1   AR   Ar   71   2.737   0.387   1.936
    1   AR   Ar   72   2.911   0.714   0.930
    1   AR   Ar   73   1.901   6.880   3.572
    1   AR   Ar   74   2.012   1.312   4.705
    1   AR   Ar   75   3.125   0.672   4.749
    1   AR   Ar   76   2.568   0.765   3.075
    1   AR   Ar   77   1.740   0.225   5.699
    1   AR   Ar   78   1.009   0.435   6.414
    1   AR   Ar   79   3.445   6.433   6.898
    1   AR   Ar   80   2.835   6.981   5.512
    1   AR   Ar   81   2.019   1.453   0.402
    1   AR   Ar   82   1.753   2.963   0.622
    1   AR   Ar   83   2.684   1.657   1.426
    1   AR   Ar   84   2.254   2.878  -1.389
    1   AR   Ar   85   1.781   2.109   1.256
    1   AR   Ar   86   1.952   2.425   2.528
    1   AR   Ar   87   2.040   1.345   2.239
    1   AR   Ar   88   3.313   3.734   1.383
    1   AR   Ar   89   0.920   1.651   1.974
    1   AR   Ar   90   3.111   2.072   5.050
    1   AR   Ar   91   2.540   2.112   4.028
    1   AR   Ar   92   1.977   1.701   3.256
    1   AR   Ar   93   1.480   1.719   6.140
    1   AR   Ar   94   2.690   1.611   8.363
    1   AR   Ar   95   2.768   0.221   6.592
    1   AR   Ar   96   2.183   2.149   6.819
    1   AR   Ar   97   2.704   4.011  -1.153
    1   AR   Ar   98   2.997   4.831   1.524
    1   AR   Ar   99   3.336   2.986  -1.397
    1   AR   Ar  100   2.440   4.828  -0.292
    1   AR   Ar  101   1.128   3.163   2.035
    1   AR   Ar  102   1.876   4.199   3.663
    1   AR   Ar  103   2.174   3.488   1.907
    1   AR   Ar  104   3.424   3.735   0.238
    1   AR   Ar  105   1.401   3.080   4.037
    1   AR   Ar  106   2.678   3.125   4.801
    1   AR   Ar  107   2.844   4.101   5.322
    1   AR   Ar  108   3.281   3.516   3.798
    1   AR   Ar  109   0.970   3.955   4.433
    1   AR   Ar  110   1.927   4.105   4.754
    1   AR   Ar  111   3.876   5.190   7.311
    1   AR   Ar  112   2.310   3.303   5.961
    1   AR   Ar  113   2.407   4.260   0.678
    1   AR   Ar  114   2.379   5.922   0.940
    1   AR   Ar  115   3.150   5.151   0.379
    1   AR   Ar  116   3.533   7.064   0.403
    1   AR   Ar  117   1.542   4.897   3.033
    1   AR   Ar  118   1.125   6.485   2.798
    1   AR   Ar  119   2.599   4.485   2.747
    1   AR   Ar  120   2.084   5.256   1.942
    1   AR   Ar  121   0.181   4.666   4.142
    1   AR   Ar  122   2.550   6.216   4.122
    1   AR   Ar  123   2.197   5.227   4.403
    1   AR   Ar  124   2.453   5.566   3.052
    1   AR   Ar  125   0.853   5.484   4.778
    1   AR   Ar  126   0.957   6.570   6.062
    1   AR   Ar  127   2.566   5.493   7.698
    1   AR   Ar  128   2.030   6.189   6.179
    1   AR   Ar  129   2.998   6.690   1.088
    1   AR   Ar  130   3.455   6.873  -1.041
    1   AR   Ar  131   4.887   6.148   0.310
    1   AR   Ar  132   5.669   2.245  -0.729
    1   AR   Ar  133   4.135   7.029   2.251
    1   AR   Ar  134   3.655   0.833   2.863
    1   AR   Ar  135   4.800   0.505   2.868
    1   AR   Ar  136   4.426   0.721   1.652
    1   AR   Ar  137   2.905   0.093   3.804
    1   AR   Ar  138   4.852   0.999   4.899
    1   AR   Ar  139   4.854   0.344   4.127
    1   AR   Ar  140   4.251   1.558   3.576
    1   AR   Ar  141   3.765   7.062   4.394
    1   AR   Ar  142   3.822   7.069   6.071
    1   AR   Ar  143   5.304   0.219   6.609
    1   AR   Ar  144   5.065   1.260   7.094
    1   AR   Ar  145   3.022   2.698   0.720
    1   AR   Ar  146   4.116   2.872   0.895
    1   AR   Ar  147   4.945   1.969   0.825
    1   AR   Ar  148   5.908   3.346  -1.294
    1   AR   Ar  149   3.945   1.693   1.047
    1   AR   Ar  150   3.029   1.792   2.534
    1   AR   Ar  151   3.728   2.443   3.817
    1   AR   Ar  152   3.258   2.742   1.865
    1   AR   Ar  153   3.135   1.259   3.808
    1   AR   Ar  154   4.046   1.867   4.595
    1   AR   Ar  155   5.568   1.146   5.666
    1   AR   Ar  156   4.553   3.165   3.969
    1   AR   Ar  157   3.907   1.903   5.830
    1   AR   Ar  158   3.239   2.301   6.686
    1   AR   Ar  159   4.638   1.007   6.177
    1   AR   Ar  160   4.435   2.985   5.614
    1   AR   Ar  161   4.724   2.693  -0.030
    1   AR   Ar  162   4.805   5.231   0.694
    1   AR   Ar  163   5.263   3.139   0.695
    1   AR   Ar  164   5.695   4.675   0.915
    1   AR   Ar  165   3.258   3.612   2.604
    1   AR   Ar  166   3.438   4.929   3.410
    1   AR   Ar  167   4.344   3.024   2.776
    1   AR   Ar  168   4.483   4.098   1.054
    1   AR   Ar  169   2.646   2.854   3.232
    1   AR   Ar  170   2.866   4.282   4.263
    1   AR   Ar  171   4.015   3.679   4.862
    1   AR   Ar  172   4.595   4.646   4.417
    1   AR   Ar  173   3.314   3.038   5.722
    1   AR   Ar  174   3.982   5.248   6.120
    1   AR   Ar  175   3.798   4.032   5.948
    1   AR   Ar  176   3.728   4.675   5.113
    1   AR   Ar  177   5.823   5.526   0.403
    1   AR   Ar  178   4.275   6.409   1.179
    1   AR   Ar  179   3.813   5.401   1.332
    1   AR   Ar  180   4.474   5.331  -0.233
    1   AR   Ar  181   2.999   5.832   1.843
    1   AR   Ar  182   2.160   6.481   1.845
    1   AR   Ar  183   3.693   4.674   2.483
    1   AR   Ar  184   4.044   5.870   2.326
    1   AR   Ar  185   1.259   5.908   3.899
    1   AR   Ar  186   3.631   5.535   4.401
    1   AR   Ar  187   4.679   5.406   3.253
    1   AR   Ar  188   3.625   6.080   3.307
    1   AR   Ar  189   2.548   5.453   5.728
    1   AR   Ar  190   4.823   6.465   6.252
    1   AR   Ar  191   4.570   5.723   5.160
    1   AR   Ar  192   3.263   5.997   5.241
    1   AR   Ar  193   5.775   0.060  -0.158
    1   AR   Ar  194   4.595   7.062  -0.107
    1   AR   Ar  195   6.152   0.880   0.797
    1   AR   Ar  196   6.174   1.084  -0.925
    1   AR   Ar  197   5.028   0.344   0.779
    1   AR   Ar  198   5.350   1.466   1.660
    1   AR   Ar  199   5.499   0.240   2.006
    1   AR   Ar  200   6.964   1.631   1.168
    1   AR   Ar  201   5.009   6.499   2.671
    1   AR   Ar  202   5.476   1.177   3.926
    1   AR   Ar  203   6.750   6.928   4.710
    1   AR   Ar  204   6.185   0.376   2.998
    1   AR   Ar  205   5.570   6.836   3.709
    1   AR   Ar  206   4.868   6.856   5.206
    1   AR   Ar  207   0.174   0.058   5.868
    1   AR   Ar  208   6.313   0.511   4.063
    1   AR   Ar  209   6.728   1.969  -1.393
    1   AR   Ar  210   4.950   2.713   1.556
    1   AR   Ar  211   6.004   2.158   0.640
    1   AR   Ar  212   6.873   3.684  -0.658
    1   AR   Ar  213   4.069   2.077   1.995
    1   AR   Ar  214   4.312   3.471   1.787
    1   AR   Ar  215   5.399   2.683   2.756
    1   AR   Ar  216   5.979   3.071   1.841
    1   AR   Ar  217   5.262   2.195   3.792
    1   AR   Ar  218   5.829   1.690   4.816
    1   AR   Ar  219   5.372   1.478   2.836
    1   AR   Ar  220   6.492   3.128   3.172
    1   AR   Ar  221   6.145   0.429   5.287
    1   AR   Ar  222   4.890   2.125   6.481
    1   AR   Ar  223   6.674   1.546   7.368
    1   AR   Ar  224   5.761   2.679   5.704
    1   AR   Ar  225   5.256   4.258  -0.031
    1   AR   Ar  226   4.640   4.391   2.059
    1   AR   Ar  227   7.002   4.023   1.781
    1   AR   Ar  228   6.637   4.917   0.725
    1   AR   Ar  229   6.453   3.578   0.851
    1   AR   Ar  230   4.270   4.057   3.187
    1   AR   Ar  231   0.202   2.540   3.719
    1   AR   Ar  232   5.449   3.825   1.431
    1   AR   Ar  233   6.273   2.990   4.521
    1   AR   Ar  234   5.760   4.225   5.130
    1   AR   Ar  235   6.855   3.766   4.462
    1   AR   Ar  236   5.584   3.543   3.753
    1   AR   Ar  237   5.271   3.131   4.687
    1   AR   Ar  238   4.833   4.622   5.592
    1   AR   Ar  239   5.928   4.011   7.413
    1   AR   Ar  240   6.665   3.804   5.664
    1   AR   Ar  241   6.595   0.454  -0.051
    1   AR   Ar  242   5.342   6.370   1.483
    1   AR   Ar  243   5.853   4.619   2.114
    1   AR   Ar  244   6.687   5.834  -0.075
    1   AR   Ar  245   5.097   5.543   2.245
    1   AR   Ar  246   6.039   6.360   2.499
    1   AR   Ar  247   5.619   3.693   2.594
    1   AR   Ar  248   6.171   6.978   1.159
    1   AR   Ar  249   5.189   4.520   3.185
    1   AR   Ar  250   4.503   6.283   4.328
    1   AR   Ar  251   5.352   5.514   4.430
    1   AR   Ar  252   5.715   5.869   3.254
    1   AR   Ar  253   5.532   5.228   5.614
    1   AR   Ar  254   5.535   5.701   6.468
    1   AR   Ar  255   5.339   4.397   6.467
    1   AR   Ar  256   6.222   5.950   4.874
    7.12000  7.12000 12.00000
Argon-slab step 950
  256
    1   AR   Ar    1   0.492   0.487  -0.630
    1   AR   Ar    2   0.011   0.400   1.042
    1   AR   Ar    3   0.325   6.642   0.197
    1   AR   Ar    4   1.346   0.593   0.216
    1   AR   Ar    5   7.117   6.044   0.959
    1   AR   Ar    6   0.191   0.054   3.176
    1   AR   Ar    7   0.076   6.303   2.307
    1   AR   Ar    8   0.657   7.066   1.700
    1   AR   Ar    9   0.463   0.902   4.263
    1   AR   Ar   10   6.799   1.536   4.282
    1   AR   Ar   11   2.178   7.046   4.563
    1   AR   Ar   12   1.254   0.931   3.613
    1   AR   Ar   13   6.994   1.026   5.178
    1   AR   Ar   14   0.383   1.377   6.127
    1   AR   Ar   15   0.496   6.082   8.319
    1   AR   Ar   16   0.787   0.753   5.252
    1   AR   Ar   17   7.043   1.391   0.092
    1   AR   Ar   18   7.001   2.982   0.165
    1   AR   Ar   19   0.952   1.343   0.868
    1   AR   Ar   20   0.346   3.138  -1.487
    1   AR   Ar   21   6.771   0.247   2.044
    1   AR   Ar   22   6.653   2.036   2.705
    1   AR   Ar   23   0.081   1.189   2.109
    1   AR   Ar   24   7.084   2.710   1.743
    1   AR   Ar   25   0.180   1.518   3.392
    1   AR   Ar   26   6.145   1.823   3.595
    1   AR   Ar   27   0.939   1.955   4.940
    1   AR   Ar   28   0.405   2.843   4.682
    1   AR   Ar   29   6.473   1.665   5.878
    1   AR   Ar   30   6.271   2.735   6.685
    1   AR   Ar   31   0.872   1.328   7.161
    1   AR   Ar   32   1.656   2.702   5.158
    1   AR   Ar   33   1.205   3.776  -1.233
    1   AR   Ar   34   0.540   4.857   1.224
    1   AR   Ar   35   0.497   3.755   0.689
    1   AR   Ar   36   1.514   6.510  -1.482
    1   AR   Ar   37   0.145   3.423   2.591
    1   AR   Ar   38   0.750   4.670   2.298
    1   AR   Ar   39   1.255   3.814   2.918
    1   AR   Ar   40   1.407   4.178   1.592
    1   AR   Ar   41   0.838   2.466   2.732
    1   AR   Ar   42   6.792   4.985   4.986
    1   AR   Ar   43   6.733   2.376   5.210
    1   AR   Ar   44   0.357   3.497   3.585
    1   AR   Ar   45   0.546   3.554   5.794
    1   AR   Ar   46   6.490   4.793   6.400
    1   AR   Ar   47   7.090   3.907   6.891
    1   AR   Ar   48   0.268   5.728   6.298
    1   AR   Ar   49   0.617   5.330  -0.846
    1   AR   Ar   50   6.093   5.594   1.617
    1   AR   Ar   51   1.242   4.788   0.093
    1   AR   Ar   52   0.404   5.433   0.197
    1   AR   Ar   53   6.522   5.318   2.591
    1   AR   Ar   54   6.616   6.385   3.306
    1   AR   Ar   55   0.369   5.370   3.353
    1   AR   Ar   56   1.011   6.072   1.800
    1   AR   Ar   57   6.864   4.349   2.891
    1   AR   Ar   58   0.022   5.941   4.205
    1   AR   Ar   59   1.838   6.176   4.943
    1   AR   Ar   60   0.516   6.931   4.292
    1   AR   Ar   61   6.450   6.247   6.003
    1   AR   Ar   62   0.072   6.218   5.222
    1   AR   Ar   63   1.152   5.380   5.777
    1   AR   Ar   64   0.999   6.680   5.091
    1   AR   Ar   65   2.255   7.064   0.241
    1   AR   Ar   66   1.903   0.758   1.160
    1   AR   Ar   67   3.785   6.000   0.076
    1   AR   Ar   68   3.865   1.006  -0.114
    1   AR   Ar   69   1.515   7.011   1.170
    1   AR   Ar   70   1.708   0.254   2.420
    1   AR   Ar   71   2.744   0.453   1.957
    1   AR   Ar   72   2.919   0.698   0.916
    1   AR   Ar   73   1.903   6.896   3.547
    1   AR   Ar   74   2.028   1.316   4.746
    1   AR   Ar   75   3.119   0.670   4.778
    1   AR   Ar   76   2.583   0.768   3.074
    1   AR   Ar   77   1.734   0.198   5.667
    1   AR   Ar   78   0.991   0.447   6.398
    1   AR   Ar   79   3.456   6.435   6.911
    1   AR   Ar   80   2.835   6.955   5.529
    1   AR   Ar   81   2.054   1.452   0.373
    1   AR   Ar   82   1.737   2.978   0.627
    1   AR   Ar   83   2.687   1.648   1.390
    1   AR   Ar   84   2.221   2.876  -1.413
    1   AR   Ar   85   1.797   2.081   1.267
    1   AR   Ar   86   1.944   2.426   2.542
    1   AR   Ar   87   2.078   1.332   2.229
    1   AR   Ar   88   3.303   3.710   1.402
    1   AR   Ar   89   0.906   1.669   1.936
    1   AR   Ar   90   3.109   2.068   5.021
    1   AR   Ar   91   2.526   2.127   4.049
    1   AR   Ar   92   1.978   1.694   3.230
    1   AR   Ar   93   1.486   1.715   6.121
    1   AR   Ar   94   2.686   1.591   8.378
    1   AR   Ar   95   2.784   0.187   6.548
    1   AR   Ar   96   2.177   2.162   6.856
    1   AR   Ar   97   2.695   4.015  -1.111
    1   AR   Ar   98   2.985   4.840   1.555
    1   AR   Ar   99   3.349   2.984  -1.421
    1   AR   Ar  100   2.450   4.792  -0.304
    1   AR   Ar  101   1.132   3.198   2.063
    1   AR   Ar  102   1.902   4.189   3.652
    1   AR   Ar  103   2.191   3.465   1.893
    1   AR   Ar  104   3.418   3.767   0.238
    1   AR   Ar  105   1.361   3.101   4.055
    1   AR   Ar  106   2.686   3.125   4.803
    1   AR   Ar  107   2.881   4.112   5.311
    1   AR   Ar  108   3.294   3.515   3.792
    1   AR   Ar  109   0.966   3.965   4.442
    1   AR   Ar  110   1.911   4.077   4.743
    1   AR   Ar  111   3.841   5.181   7.311
    1   AR   Ar  112   2.281   3.320   5.965
    1   AR   Ar  113   2.372   4.260   0.685
    1   AR   Ar  114   2.385   5.926   0.952
    1   AR   Ar  115   3.154   5.114   0.348
    1   AR   Ar  116   3.516   7.051   0.400
    1   AR   Ar  117   1.539   4.903   3.022
    1   AR   Ar  118   1.139   6.479   2.816
    1   AR   Ar  119   2.588   4.510   2.741
    1   AR   Ar  120   2.092   5.272   1.955
    1   AR   Ar  121   0.168   4.639   4.130
    1   AR   Ar  122   2.533   6.238   4.103
    1   AR   Ar  123   2.202   5.218   4.394
    1   AR   Ar  124   2.426   5.532   3.055
    1   AR   Ar  125   0.820   5.521   4.756
    1   AR   Ar  126   0.948   6.573   6.065
    1   AR   Ar  127   2.542   5.508   7.687
    1   AR   Ar  128   2.025   6.210   6.177
    1   AR   Ar  129   2.973   6.705   1.079
    1   AR   Ar  130   3.447   6.857  -1.017
    1   AR   Ar  131   4.872   6.156   0.251
    1   AR   Ar  132   5.686   2.245  -0.739
    1   AR   Ar  133   4.152   7.026   2.224
    1   AR   Ar  134   3.692   0.827   2.837
    1   AR   Ar  135   4.783   0.525   2.867
    1   AR   Ar  136   4.442   0.742   1.621
    1   AR   Ar  137   2.910   0.096   3.791
    1   AR   Ar  138   4.838   1.010   4.897
    1   AR   Ar  139   4.838   0.329   4.139
    1   AR   Ar  140   4.236   1.524   3.573
    1   AR   Ar  141   3.791   7.035   4.380
    1   AR   Ar  142   3.832   7.113   6.066
    1   AR   Ar  143   5.261   0.179   6.574
    1   AR   Ar  144   5.061   1.231   7.107
    1   AR   Ar  145   3.006   2.697   0.727
    1   AR   Ar  146   4.159   2.826   0.875
    1   AR   Ar  147   4.938   1.986   0.811
    1   AR   Ar  148   5.891   3.352  -1.326
    1   AR   Ar  149   3.953   1.683   1.032
    1   AR   Ar  150   3.027   1.800   2.516
    1   AR   Ar  151   3.698   2.411   3.809
    1   AR   Ar  152   3.233   2.764   1.914
    1   AR   Ar  153   3.165   1.230   3.805
    1   AR   Ar  154   4.029   1.885   4.603
    1   AR   Ar  155   5.560   1.124   5.656
    1   AR   Ar  156   4.598   3.169   3.968
    1   AR   Ar  157   3.874   1.901   5.792
    1   AR   Ar  158   3.270   2.271   6.707
    1   AR   Ar  159   4.657   0.997   6.191
    1   AR   Ar  160   4.417   3.003   5.625
    1   AR   Ar  161   4.710   2.724  -0.022
    1   AR   Ar  162   4.795   5.201   0.671
    1   AR   Ar  163   5.248   3.122   0.690
    1   AR   Ar  164   5.681   4.662   0.938
    1   AR   Ar  165   3.258   3.603   2.580
    1   AR   Ar  166   3.403   4.932   3.419
    1   AR   Ar  167   4.332   3.018   2.739
    1   AR   Ar  168   4.485   4.150   1.020
    1   AR   Ar  169   2.657   2.868   3.236
    1   AR   Ar  170   2.813   4.338   4.262
    1   AR   Ar  171   3.989   3.678   4.857
    1   AR   Ar  172   4.576   4.639   4.435
    1   AR   Ar  173   3.275   3.076   5.705
    1   AR   Ar  174   3.948   5.233   6.123
    1   AR   Ar  175   3.782   4.024   5.929
    1   AR   Ar  176   3.732   4.693   5.112
    1   AR   Ar  177   5.826   5.525   0.406
    1   AR   Ar  178   4.280   6.407   1.168
    1   AR   Ar  179   3.781   5.412   1.316
    1   AR   Ar  180   4.496   5.295  -0.247
    1   AR   Ar  181   2.994   5.830   1.874
    1   AR   Ar  182   2.171   6.480   1.827
    1   AR   Ar  183   3.697   4.663   2.487
    1   AR   Ar  184   4.054   5.844   2.319
    1   AR   Ar  185   1.245   5.930   3.874
    1   AR   Ar  186   3.631   5.497   4.393
    1   AR   Ar  187   4.672   5.414   3.268
    1   AR   Ar  188   3.617   6.074   3.288
    1   AR   Ar  189   2.548   5.467   5.698
    1   AR   Ar  190   4.837   6.463   6.239
    1   AR   Ar  191   4.581   5.736   5.178
    1   AR   Ar  192   3.247   5.948   5.236
    1   AR   Ar  193   5.766   0.060  -0.153
    1   AR   Ar  194   4.572   7.061  -0.122
    1   AR   Ar  195   6.153   0.886   0.801
    1   AR   Ar  196   6.165   1.103  -0.949
    1   AR   Ar  197   5.026   0.346   0.783
    1   AR   Ar  198   5.379   1.463   1.653
    1   AR   Ar  199   5.491   0.258   2.021
    1   AR   Ar  200   6.947   1.624   1.145
    1   AR   Ar  201   4.996   6.500   2.652
    1   AR   Ar  202   5.459   1.156   3.944
    1   AR   Ar  203   6.728   6.940   4.698
    1   AR   Ar  204   6.195   0.369   3.006
    1   AR   Ar  205   5.562   6.835   3.728
    1   AR   Ar  206   4.876   6.874   5.180
    1   AR   Ar  207   0.165   0.069   5.855
    1   AR   Ar  208   6.329   0.497   4.060
    1   AR   Ar  209   6.710   1.976  -1.386
    1   AR   Ar  210   4.952   2.710   1.575
    1   AR   Ar  211   6.011   2.164   0.655
    1   AR   Ar  212   6.862   3.692  -0.671
    1   AR   Ar  213   4.050   2.036   2.007
    1   AR   Ar  214   4.288   3.484   1.819
    1   AR   Ar  215   5.420   2.690   2.751
    1   AR   Ar  216   5.959   3.099   1.852
    1   AR   Ar  217   5.258   2.196   3.790
    1   AR   Ar  218   5.836   1.714   4.828
    1   AR   Ar  219   5.388   1.504   2.868
    1   AR   Ar  220   6.507   3.096   3.166
    1   AR   Ar  221   6.155   0.432   5.307
    1   AR   Ar  222   4.891   2.113   6.486
    1   AR   Ar  223   6.663   1.528   7.355
    1   AR   Ar  224   5.755   2.730   5.692
    1   AR   Ar  225   5.263   4.248  -0.047
    1   AR   Ar  226   4.647   4.366   2.089
    1   AR   Ar  227   6.990   4.039   1.778
    1   AR   Ar  228   6.677   4.910   0.746
    1   AR   Ar  229   6.454   3.577   0.831
    1   AR   Ar  230   4.252   4.034   3.210
    1   AR   Ar  231   0.181   2.556   3.717
    1   AR   Ar  232   5.449   3.840   1.430
    1   AR   Ar  233   6.265   3.024   4.522
    1   AR   Ar  234   5.758   4.216   5.122
    1   AR   Ar  235   6.888   3.767   4.442
    1   AR   Ar  236   5.568   3.556   3.741
    1   AR   Ar  237   5.253   3.136   4.668
    1   AR   Ar  238   4.827   4.626   5.555
    1   AR   Ar  239   5.959   3.998   7.436
    1   AR   Ar  240   6.663   3.817   5.632
    1   AR   Ar  241   6.623   0.478  -0.050
    1   AR   Ar  242   5.315   6.353   1.490
    1   AR   Ar  243   5.860   4.615   2.107
    1   AR   Ar  244   6.700   5.855  -0.105
    1   AR   Ar  245   5.101   5.531   2.234
    1   AR   Ar  246   6.059   6.349   2.465
    1   AR   Ar  247   5.617   3.696   2.606
    1   AR   Ar  248   6.200   6.982   1.185
    1   AR   Ar  249   5.204   4.542   3.181
    1   AR   Ar  250   4.534   6.282   4.290
    1   AR   Ar  251   5.374   5.514   4.449
    1   AR   Ar  252   5.703   5.889   3.288
    1   AR   Ar  253   5.535   5.268   5.603
    1   AR   Ar  254   5.529   5.691   6.508
    1   AR   Ar  255   5.353   4.419   6.496
    1   AR   Ar  256   6.187   5.917   4.861
    7.12000  7.12000 12.00000
Argon-slab step 955
  256
    1   AR   Ar    1   0.472   0.478  -0.625
    1   AR   Ar    2   0.014   0.436   1.037
    1   AR   Ar    3   0.321   6.659   0.216
    1   AR   Ar    4   1.322   0.598   0.203
    1   AR   Ar    5   0.003   6.022   0.972
    1   AR   Ar    6   0.190   0.088   3.157
    1   AR   Ar    7   0.063   6.303   2.296
    1   AR   Ar    8   0.676   7.078   1.676
    1   AR   Ar    9   0.468   0.890   4.253
    1   AR   Ar   10   6.783   1.528   4.272
    1   AR   Ar   11   2.178   7.062   4.565
    1   AR   Ar   12   1.248   0.913   3.611
    1   AR   Ar   13   6.990   1.034   5.176
    1   AR   Ar   14   0.383   1.378   6.129
    1   AR   Ar   15   0.470   6.072   8.369
    1   AR   Ar   16   0.768   0.738   5.242
    1   AR   Ar   17   7.044   1.387   0.085
    1   AR   Ar   18   7.014   2.982   0.172
    1   AR   Ar   19   0.929   1.355   0.875
    1   AR   Ar   20   0.346   3.128  -1.500
    1   AR   Ar   21   6.724   0.250   2.076
    1   AR   Ar   22   6.635   2.030   2.697
    1   AR   Ar   23   0.090   1.154   2.087
    1   AR   Ar   24   7.067   2.723   1.722
    1   AR   Ar   25   0.164   1.489   3.360
    1   AR   Ar   26   6.148   1.837   3.581
    1   AR   Ar   27   0.938   1.958   4.906
    1   AR   Ar   28   0.417   2.809   4.641
    1   AR   Ar   29   6.481   1.665   5.889
    1   AR   Ar   30   6.234   2.751   6.647
    1   AR   Ar   31   0.880   1.334   7.142
    1   AR   Ar   32   1.629   2.694   5.151
    1   AR   Ar   33   1.215   3.788  -1.263
    1   AR   Ar   34   0.547   4.893   1.215
    1   AR   Ar   35   0.503   3.746   0.707
    1   AR   Ar   36   1.491   6.492  -1.537
    1   AR   Ar   37   0.142   3.426   2.549
    1   AR   Ar   38   0.728   4.676   2.279
    1   AR   Ar   39   1.241   3.840   2.920
    1   AR   Ar   40   1.412   4.162   1.554
    1   AR   Ar   41   0.839   2.480   2.728
    1   AR   Ar   42   6.775   4.985   5.026
    1   AR   Ar   43   6.721   2.388   5.227
    1   AR   Ar   44   0.333   3.505   3.579
    1   AR   Ar   45   0.534   3.571   5.813
    1   AR   Ar   46   6.449   4.818   6.391
    1   AR   Ar   47   7.059   3.930   6.897
    1   AR   Ar   48   0.277   5.773   6.302
    1   AR   Ar   49   0.633   5.281  -0.876
    1   AR   Ar   50   6.105   5.567   1.606
    1   AR   Ar   51   1.253   4.786   0.069
    1   AR   Ar   52   0.402   5.417   0.167
    1   AR   Ar   53   6.503   5.333   2.568
    1   AR   Ar   54   6.669   6.371   3.307
    1   AR   Ar   55   0.356   5.360   3.332
    1   AR   Ar   56   1.041   6.097   1.794
    1   AR   Ar   57   6.900   4.372   2.901
    1   AR   Ar   58   0.043   5.929   4.203
    1   AR   Ar   59   1.851   6.188   4.967
    1   AR   Ar   60   0.538   6.949   4.279
    1   AR   Ar   61   6.456   6.289   6.028
    1   AR   Ar   62   0.063   6.243   5.211
    1   AR   Ar   63   1.142   5.391   5.788
    1   AR   Ar   64   1.018   6.650   5.096
    1   AR   Ar   65   2.274   7.099   0.258
    1   AR   Ar   66   1.927   0.736   1.162
    1   AR   Ar   67   3.776   6.001   0.102
    1   AR   Ar   68   3.847   1.023  -0.123
    1   AR   Ar   69   1.502   7.014   1.166
    1   AR   Ar   70   1.694   0.264   2.422
    1   AR   Ar   71   2.749   0.518   1.979
    1   AR   Ar   72   2.954   0.686   0.896
    1   AR   Ar   73   1.902   6.913   3.518
    1   AR   Ar   74   2.045   1.321   4.787
    1   AR   Ar   75   3.110   0.669   4.807
    1   AR   Ar   76   2.593   0.772   3.065
    1   AR   Ar   77   1.707   0.195   5.637
    1   AR   Ar   78   0.975   0.465   6.385
    1   AR   Ar   79   3.467   6.436   6.924
    1   AR   Ar   80   2.834   6.928   5.544
    1   AR   Ar   81   2.081   1.466   0.335
    1   AR   Ar   82   1.721   2.994   0.632
    1   AR   Ar   83   2.700   1.637   1.355
    1   AR   Ar   84   2.189   2.875  -1.436
    1   AR   Ar   85   1.813   2.071   1.226
    1   AR   Ar   86   1.940   2.435   2.545
    1   AR   Ar   87   2.114   1.317   2.216
    1   AR   Ar   88   3.292   3.689   1.419
    1   AR   Ar   89   0.906   1.694   1.895
    1   AR   Ar   90   3.100   2.064   4.994
    1   AR   Ar   91   2.513   2.144   4.072
    1   AR   Ar   92   1.979   1.681   3.210
    1   AR   Ar   93   1.491   1.709   6.101
    1   AR   Ar   94   2.682   1.572   8.393
    1   AR   Ar   95   2.799   0.152   6.504
    1   AR   Ar   96   2.172   2.175   6.894
    1   AR   Ar   97   2.686   4.017  -1.068
    1   AR   Ar   98   2.969   4.838   1.586
    1   AR   Ar   99   3.362   2.983  -1.445
    1   AR   Ar  100   2.454   4.754  -0.319
    1   AR   Ar  101   1.134   3.208   2.038
    1   AR   Ar  102   1.927   4.181   3.652
    1   AR   Ar  103   2.210   3.441   1.880
    1   AR   Ar  104   3.412   3.798   0.240
    1   AR   Ar  105   1.385   3.086   4.049
    1   AR   Ar  106   2.692   3.126   4.803
    1   AR   Ar  107   2.915   4.119   5.302
    1   AR   Ar  108   3.310   3.513   3.785
    1   AR   Ar  109   0.951   3.977   4.450
    1   AR   Ar  110   1.902   4.048   4.737
    1   AR   Ar  111   3.805   5.172   7.310
    1   AR   Ar  112   2.251   3.337   5.967
    1   AR   Ar  113   2.337   4.259   0.693
    1   AR   Ar  114   2.385   5.918   0.960
    1   AR   Ar  115   3.164   5.078   0.323
    1   AR   Ar  116   3.517   7.047   0.376
    1   AR   Ar  117   1.544   4.922   2.997
    1   AR   Ar  118   1.152   6.474   2.836
    1   AR   Ar  119   2.576   4.534   2.733
    1   AR   Ar  120   2.096   5.287   1.970
    1   AR   Ar  121   0.159   4.618   4.112
    1   AR   Ar  122   2.522   6.248   4.080
    1   AR   Ar  123   2.216   5.204   4.386
    1   AR   Ar  124   2.400   5.501   3.059
    1   AR   Ar  125   0.816   5.537   4.765
    1   AR   Ar  126   0.929   6.579   6.074
    1   AR   Ar  127   2.519   5.523   7.675
    1   AR   Ar  128   2.016   6.236   6.176
    1   AR   Ar  129   2.940   6.719   1.093
    1   AR   Ar  130   3.439   6.841  -0.992
    1   AR   Ar  131   4.860   6.166   0.195
    1   AR   Ar  132   5.703   2.244  -0.747
    1   AR   Ar  133   4.167   7.020   2.195
    1   AR   Ar  134   3.720   0.829   2.819
    1   AR   Ar  135   4.794   0.528   2.881
    1   AR   Ar  136   4.458   0.766   1.590
    1   AR   Ar  137   2.919   0.099   3.778
    1   AR   Ar  138   4.823   1.025   4.898
    1   AR   Ar  139   4.823   0.304   4.142
    1   AR   Ar  140   4.224   1.487   3.568
    1   AR   Ar  141   3.801   7.022   4.369
    1   AR   Ar  142   3.842   0.037   6.060
    1   AR   Ar  143   5.224   0.149   6.542
    1   AR   Ar  144   5.060   1.202   7.123
    1   AR   Ar  145   2.990   2.697   0.737
    1   AR   Ar  146   4.198   2.781   0.859
    1   AR   Ar  147   4.932   2.002   0.793
    1   AR   Ar  148   5.874   3.356  -1.356
    1   AR   Ar  149   3.956   1.671   1.013
    1   AR   Ar  150   3.025   1.808   2.500
    1   AR   Ar  151   3.662   2.384   3.795
    1   AR   Ar  152   3.207   2.783   1.961
    1   AR   Ar  153   3.197   1.204   3.804
    1   AR   Ar  154   4.020   1.896   4.616
    1   AR   Ar  155   5.546   1.110   5.654
    1   AR   Ar  156   4.627   3.173   3.951
    1   AR   Ar  157   3.842   1.900   5.753
    1   AR   Ar  158   3.302   2.242   6.727
    1   AR   Ar  159   4.669   0.987   6.199
    1   AR   Ar  160   4.400   3.019   5.637
    1   AR   Ar  161   4.691   2.749  -0.026
    1   AR   Ar  162   4.788   5.168   0.665
    1   AR   Ar  163   5.243   3.134   0.674
    1   AR   Ar  164   5.666   4.653   0.961
    1   AR   Ar  165   3.258   3.596   2.556
    1   AR   Ar  166   3.365   4.937   3.436
    1   AR   Ar  167   4.319   3.010   2.707
    1   AR   Ar  168   4.484   4.137   1.014
    1   AR   Ar  169   2.667   2.881   3.238
    1   AR   Ar  170   2.788   4.370   4.242
    1   AR   Ar  171   3.961   3.677   4.851
    1   AR   Ar  172   4.557   4.634   4.453
    1   AR   Ar  173   3.239   3.111   5.687
    1   AR   Ar  174   3.915   5.219   6.124
    1   AR   Ar  175   3.769   4.015   5.911
    1   AR   Ar  176   3.738   4.716   5.111
    1   AR   Ar  177   5.813   5.484   0.407
    1   AR   Ar  178   4.282   6.407   1.156
    1   AR   Ar  179   3.759   5.425   1.295
    1   AR   Ar  180   4.515   5.257  -0.276
    1   AR   Ar  181   2.998   5.828   1.904
    1   AR   Ar  182   2.179   6.482   1.814
    1   AR   Ar  183   3.708   4.650   2.487
    1   AR   Ar  184   4.064   5.817   2.312
    1   AR   Ar  185   1.233   5.954   3.847
    1   AR   Ar  186   3.632   5.459   4.378
    1   AR   Ar  187   4.661   5.429   3.284
    1   AR   Ar  188   3.609   6.067   3.272
    1   AR   Ar  189   2.537   5.469   5.672
    1   AR   Ar  190   4.844   6.452   6.221
    1   AR   Ar  191   4.591   5.745   5.200
    1   AR   Ar  192   3.241   5.909   5.227
    1   AR   Ar  193   5.737   0.050  -0.147
    1   AR   Ar  194   4.574   7.061  -0.137
    1   AR   Ar  195   6.152   0.895   0.807
    1   AR   Ar  196   6.157   1.121  -0.972
    1   AR   Ar  197   5.026   0.346   0.788
    1   AR   Ar  198   5.409   1.459   1.646
    1   AR   Ar  199   5.483   0.275   2.036
    1   AR   Ar  200   6.931   1.617   1.123
    1   AR   Ar  201   4.966   6.493   2.630
    1   AR   Ar  202   5.439   1.131   3.963
    1   AR   Ar  203   6.718   6.970   4.678
    1   AR   Ar  204   6.203   0.361   3.011
    1   AR   Ar  205   5.553   6.827   3.753
    1   AR   Ar  206   4.883   6.893   5.153
    1   AR   Ar  207   0.147   0.083   5.837
    1   AR   Ar  208   6.344   0.490   4.055
    1   AR   Ar  209   6.691   1.984  -1.378
    1   AR   Ar  210   4.956   2.703   1.604
    1   AR   Ar  211   6.019   2.170   0.670
    1   AR   Ar  212   6.852   3.701  -0.684
    1   AR   Ar  213   4.026   2.035   2.000
    1   AR   Ar  214   4.257   3.490   1.847
    1   AR   Ar  215   5.453   2.691   2.743
    1   AR   Ar  216   5.949   3.116   1.863
    1   AR   Ar  217   5.242   2.206   3.792
    1   AR   Ar  218   5.845   1.741   4.837
    1   AR   Ar  219   5.403   1.529   2.899
    1   AR   Ar  220   6.513   3.060   3.164
    1   AR   Ar  221   6.167   0.426   5.324
    1   AR   Ar  222   4.887   2.107   6.487
    1   AR   Ar  223   6.652   1.509   7.340
    1   AR   Ar  224   5.781   2.731   5.686
    1   AR   Ar  225   5.269   4.238  -0.061
    1   AR   Ar  226   4.662   4.351   2.124
    1   AR   Ar  227   6.976   4.057   1.773
    1   AR   Ar  228   6.720   4.905   0.768
    1   AR   Ar  229   6.451   3.579   0.816
    1   AR   Ar  230   4.232   4.011   3.233
    1   AR   Ar  231   0.155   2.555   3.712
    1   AR   Ar  232   5.440   3.854   1.435
    1   AR   Ar  233   6.250   3.047   4.522
    1   AR   Ar  234   5.756   4.207   5.114
    1   AR   Ar  235   6.926   3.773   4.426
    1   AR   Ar  236   5.555   3.570   3.725
    1   AR   Ar  237   5.242   3.140   4.668
    1   AR   Ar  238   4.802   4.617   5.515
    1   AR   Ar  239   5.990   3.985   7.458
    1   AR   Ar  240   6.659   3.830   5.628
    1   AR   Ar  241   6.668   0.503  -0.049
    1   AR   Ar  242   5.288   6.338   1.499
    1   AR   Ar  243   5.872   4.613   2.103
    1   AR   Ar  244   6.703   5.883  -0.139
    1   AR   Ar  245   5.109   5.515   2.222
    1   AR   Ar  246   6.078   6.342   2.416
    1   AR   Ar  247   5.613   3.706   2.622
    1   AR   Ar  248   6.226   6.982   1.211
    1   AR   Ar  249   5.224   4.561   3.175
    1   AR   Ar  250   4.567   6.282   4.246
    1   AR   Ar  251   5.386   5.509   4.463
    1   AR   Ar  252   5.684   5.900   3.327
    1   AR   Ar  253   5.554   5.318   5.585
    1   AR   Ar  254   5.525   5.684   6.556
    1   AR   Ar  255   5.370   4.442   6.525
    1   AR   Ar  256   6.161   5.889   4.853
    7.12000  7.12000 12.00000
Argon-slab step 960
  256
    1   AR   Ar    1   0.453   0.469  -0.619
    1   AR   Ar    2   7.110   0.448   1.038
    1   AR   Ar    3   0.318   6.681   0.232
    1   AR   Ar    4   1.298   0.602   0.191
    1   AR   Ar    5   0.006   5.997   0.991
    1   AR   Ar    6   0.190   0.125   3.138
    1   AR   Ar    7   0.050   6.303   2.285
    1   AR   Ar    8   0.684   7.092   1.663
    1   AR   Ar    9   0.469   0.876   4.245
    1   AR   Ar   10   6.767   1.523   4.271
    1   AR   Ar   11   2.177   7.092   4.572
    1   AR   Ar   12   1.247   0.895   3.603
    1   AR   Ar   13   6.969   1.050   5.174
    1   AR   Ar   14   0.384   1.379   6.130
    1   AR   Ar   15   0.443   6.062   8.419
    1   AR   Ar   16   0.774   0.716   5.238
    1   AR   Ar   17   7.027   1.408   0.091
    1   AR   Ar   18   7.028   2.978   0.177
    1   AR   Ar   19   0.905   1.367   0.882
    1   AR   Ar   20   0.345   3.118  -1.513
    1   AR   Ar   21   6.675   0.247   2.109
    1   AR   Ar   22   6.619   2.026   2.683
    1   AR   Ar   23   0.094   1.118   2.067
    1   AR   Ar   24   7.049   2.735   1.701
    1   AR   Ar   25   0.152   1.458   3.325
    1   AR   Ar   26   6.154   1.854   3.563
    1   AR   Ar   27   0.957   1.969   4.862
    1   AR   Ar   28   0.430   2.784   4.606
    1   AR   Ar   29   6.485   1.661   5.904
    1   AR   Ar   30   6.198   2.767   6.611
    1   AR   Ar   31   0.888   1.341   7.121
    1   AR   Ar   32   1.606   2.691   5.144
    1   AR   Ar   33   1.227   3.800  -1.292
    1   AR   Ar   34   0.558   4.929   1.207
    1   AR   Ar   35   0.509   3.739   0.728
    1   AR   Ar   36   1.468   6.474  -1.592
    1   AR   Ar   37   0.145   3.427   2.504
    1   AR   Ar   38   0.715   4.701   2.268
    1   AR   Ar   39   1.224   3.865   2.919
    1   AR   Ar   40   1.413   4.156   1.525
    1   AR   Ar   41   0.837   2.492   2.727
    1   AR   Ar   42   6.758   4.986   5.066
    1   AR   Ar   43   6.712   2.404   5.240
    1   AR   Ar   44   0.315   3.527   3.572
    1   AR   Ar   45   0.525   3.587   5.831
    1   AR   Ar   46   6.408   4.843   6.381
    1   AR   Ar   47   7.026   3.953   6.901
    1   AR   Ar   48   0.283   5.816   6.307
    1   AR   Ar   49   0.650   5.232  -0.907
    1   AR   Ar   50   6.117   5.541   1.591
    1   AR   Ar   51   1.265   4.782   0.046
    1   AR   Ar   52   0.407   5.397   0.142
    1   AR   Ar   53   6.508   5.330   2.564
    1   AR   Ar   54   6.652   6.380   3.269
    1   AR   Ar   55   0.343   5.350   3.307
    1   AR   Ar   56   1.074   6.119   1.787
    1   AR   Ar   57   6.936   4.394   2.913
    1   AR   Ar   58   0.061   5.920   4.198
    1   AR   Ar   59   1.878   6.185   4.992
    1   AR   Ar   60   0.561   6.967   4.255
    1   AR   Ar   61   6.460   6.331   6.051
    1   AR   Ar   62   0.055   6.262   5.206
    1   AR   Ar   63   1.136   5.404   5.798
    1   AR   Ar   64   1.029   6.629   5.099
    1   AR   Ar   65   2.308   0.015   0.293
    1   AR   Ar   66   1.960   0.737   1.167
    1   AR   Ar   67   3.766   6.003   0.129
    1   AR   Ar   68   3.829   1.038  -0.130
    1   AR   Ar   69   1.491   6.994   1.153
    1   AR   Ar   70   1.681   0.274   2.423
    1   AR   Ar   71   2.756   0.580   2.000
    1   AR   Ar   72   2.991   0.675   0.874
    1   AR   Ar   73   1.897   6.932   3.486
    1   AR   Ar   74   2.062   1.326   4.827
    1   AR   Ar   75   3.100   0.667   4.835
    1   AR   Ar   76   2.599   0.777   3.050
    1   AR   Ar   77   1.677   0.198   5.607
    1   AR   Ar   78   0.959   0.488   6.373
    1   AR   Ar   79   3.478   6.438   6.934
    1   AR   Ar   80   2.832   6.898   5.551
    1   AR   Ar   81   2.107   1.478   0.298
    1   AR   Ar   82   1.705   3.011   0.638
    1   AR   Ar   83   2.723   1.622   1.322
    1   AR   Ar   84   2.156   2.876  -1.459
    1   AR   Ar   85   1.820   2.063   1.187
    1   AR   Ar   86   1.937   2.451   2.540
    1   AR   Ar   87   2.143   1.305   2.201
    1   AR   Ar   88   3.280   3.671   1.434
    1   AR   Ar   89   0.916   1.727   1.853
    1   AR   Ar   90   3.083   2.063   4.968
    1   AR   Ar   91   2.501   2.161   4.094
    1   AR   Ar   92   1.981   1.663   3.197
    1   AR   Ar   93   1.494   1.701   6.079
    1   AR   Ar   94   2.678   1.552   8.408
    1   AR   Ar   95   2.814   0.119   6.465
    1   AR   Ar   96   2.166   2.189   6.930
    1   AR   Ar   97   2.677   4.016  -1.026
    1   AR   Ar   98   2.950   4.826   1.616
    1   AR   Ar   99   3.354   2.975  -1.455
    1   AR   Ar  100   2.434   4.728  -0.319
    1   AR   Ar  101   1.136   3.211   1.997
    1   AR   Ar  102   1.935   4.194   3.676
    1   AR   Ar  103   2.211   3.443   1.858
    1   AR   Ar  104   3.405   3.831   0.244
    1   AR   Ar  105   1.425   3.060   4.035
    1   AR   Ar  106   2.696   3.128   4.798
    1   AR   Ar  107   2.942   4.123   5.291
    1   AR   Ar  108   3.330   3.513   3.780
    1   AR   Ar  109   0.925   3.987   4.456
    1   AR   Ar  110   1.901   4.017   4.735
    1   AR   Ar  111   3.769   5.164   7.307
    1   AR   Ar  112   2.217   3.354   5.968
    1   AR   Ar  113   2.303   4.258   0.703
    1   AR   Ar  114   2.378   5.896   0.964
    1   AR   Ar  115   3.179   5.044   0.306
    1   AR   Ar  116   3.528   7.049   0.341
    1   AR   Ar  117   1.543   4.942   2.970
    1   AR   Ar  118   1.163   6.469   2.855
    1   AR   Ar  119   2.566   4.552   2.723
    1   AR   Ar  120   2.094   5.303   1.986
    1   AR   Ar  121   0.155   4.612   4.087
    1   AR   Ar  122   2.515   6.249   4.054
    1   AR   Ar  123   2.225   5.195   4.379
    1   AR   Ar  124   2.378   5.478   3.066
    1   AR   Ar  125   0.823   5.546   4.784
    1   AR   Ar  126   0.906   6.587   6.089
    1   AR   Ar  127   2.497   5.539   7.662
    1   AR   Ar  128   2.005   6.266   6.174
    1   AR   Ar  129   2.907   6.738   1.120
    1   AR   Ar  130   3.432   6.825  -0.964
    1   AR   Ar  131   4.842   6.172   0.170
    1   AR   Ar  132   5.722   2.244  -0.756
    1   AR   Ar  133   4.179   7.014   2.166
    1   AR   Ar  134   3.741   0.836   2.804
    1   AR   Ar  135   4.807   0.532   2.896
    1   AR   Ar  136   4.475   0.793   1.561
    1   AR   Ar  137   2.930   0.101   3.767
    1   AR   Ar  138   4.805   1.043   4.899
    1   AR   Ar  139   4.802   0.277   4.145
    1   AR   Ar  140   4.216   1.449   3.563
    1   AR   Ar  141   3.785   7.030   4.364
    1   AR   Ar  142   3.854   0.080   6.054
    1   AR   Ar  143   5.195   0.135   6.516
    1   AR   Ar  144   5.062   1.174   7.144
    1   AR   Ar  145   2.974   2.697   0.749
    1   AR   Ar  146   4.229   2.740   0.849
    1   AR   Ar  147   4.930   2.018   0.773
    1   AR   Ar  148   5.859   3.359  -1.384
    1   AR   Ar  149   3.956   1.657   0.993
    1   AR   Ar  150   3.023   1.816   2.485
    1   AR   Ar  151   3.622   2.363   3.777
    1   AR   Ar  152   3.179   2.794   2.004
    1   AR   Ar  153   3.230   1.180   3.807
    1   AR   Ar  154   4.020   1.903   4.631
    1   AR   Ar  155   5.529   1.105   5.659
    1   AR   Ar  156   4.634   3.177   3.916
    1   AR   Ar  157   3.813   1.900   5.717
    1   AR   Ar  158   3.333   2.214   6.744
    1   AR   Ar  159   4.674   0.977   6.203
    1   AR   Ar  160   4.396   3.029   5.630
    1   AR   Ar  161   4.666   2.768  -0.048
    1   AR   Ar  162   4.780   5.134   0.672
    1   AR   Ar  163   5.249   3.156   0.662
    1   AR   Ar  164   5.656   4.651   0.979
    1   AR   Ar  165   3.260   3.596   2.538
    1   AR   Ar  166   3.326   4.942   3.455
    1   AR   Ar  167   4.307   2.995   2.686
    1   AR   Ar  168   4.481   4.109   1.015
    1   AR   Ar  169   2.676   2.893   3.239
    1   AR   Ar  170   2.789   4.381   4.210
    1   AR   Ar  171   3.932   3.674   4.843
    1   AR   Ar  172   4.540   4.628   4.466
    1   AR   Ar  173   3.209   3.142   5.671
    1   AR   Ar  174   3.883   5.204   6.123
    1   AR   Ar  175   3.760   4.006   5.897
    1   AR   Ar  176   3.734   4.710   5.097
    1   AR   Ar  177   5.801   5.450   0.405
    1   AR   Ar  178   4.286   6.395   1.181
    1   AR   Ar  179   3.744   5.441   1.269
    1   AR   Ar  180   4.531   5.217  -0.318
    1   AR   Ar  181   2.976   5.807   1.918
    1   AR   Ar  182   2.183   6.487   1.807
    1   AR   Ar  183   3.718   4.637   2.483
    1   AR   Ar  184   4.074   5.790   2.303
    1   AR   Ar  185   1.222   5.979   3.820
    1   AR   Ar  186   3.636   5.422   4.357
    1   AR   Ar  187   4.645   5.448   3.301
    1   AR   Ar  188   3.601   6.059   3.259
    1   AR   Ar  189   2.521   5.458   5.655
    1   AR   Ar  190   4.842   6.424   6.194
    1   AR   Ar  191   4.598   5.752   5.224
    1   AR   Ar  192   3.254   5.884   5.208
    1   AR   Ar  193   5.703   0.039  -0.141
    1   AR   Ar  194   4.572   7.070  -0.155
    1   AR   Ar  195   6.149   0.905   0.815
    1   AR   Ar  196   6.149   1.139  -0.991
    1   AR   Ar  197   5.029   0.345   0.793
    1   AR   Ar  198   5.438   1.454   1.639
    1   AR   Ar  199   5.475   0.290   2.050
    1   AR   Ar  200   6.915   1.611   1.103
    1   AR   Ar  201   4.938   6.486   2.610
    1   AR   Ar  202   5.419   1.106   3.982
    1   AR   Ar  203   6.710   6.991   4.665
    1   AR   Ar  204   6.209   0.352   3.015
    1   AR   Ar  205   5.548   6.821   3.777
    1   AR   Ar  206   4.890   6.913   5.127
    1   AR   Ar  207   0.155   0.066   5.820
    1   AR   Ar  208   6.355   0.495   4.043
    1   AR   Ar  209   6.672   1.994  -1.369
    1   AR   Ar  210   4.961   2.695   1.639
    1   AR   Ar  211   6.027   2.177   0.686
    1   AR   Ar  212   6.841   3.709  -0.697
    1   AR   Ar  213   4.004   2.037   1.995
    1   AR   Ar  214   4.222   3.491   1.865
    1   AR   Ar  215   5.485   2.688   2.737
    1   AR   Ar  216   5.948   3.122   1.872
    1   AR   Ar  217   5.217   2.221   3.796
    1   AR   Ar  218   5.854   1.769   4.845
    1   AR   Ar  219   5.415   1.552   2.928
    1   AR   Ar  220   6.512   3.025   3.164
    1   AR   Ar  221   6.171   0.426   5.337
    1   AR   Ar  222   4.876   2.109   6.482
    1   AR   Ar  223   6.642   1.491   7.324
    1   AR   Ar  224   5.813   2.718   5.678
    1   AR   Ar  225   5.274   4.229  -0.072
    1   AR   Ar  226   4.682   4.340   2.149
    1   AR   Ar  227   6.961   4.078   1.764
    1   AR   Ar  228   6.761   4.900   0.789
    1   AR   Ar  229   6.446   3.584   0.806
    1   AR   Ar  230   4.211   3.987   3.256
    1   AR   Ar  231   0.125   2.536   3.701
    1   AR   Ar  232   5.423   3.858   1.448
    1   AR   Ar  233   6.235   3.062   4.520
    1   AR   Ar  234   5.754   4.198   5.104
    1   AR   Ar  235   6.962   3.773   4.419
    1   AR   Ar  236   5.548   3.586   3.707
    1   AR   Ar  237   5.240   3.143   4.688
    1   AR   Ar  238   4.771   4.604   5.477
    1   AR   Ar  239   6.022   3.973   7.477
    1   AR   Ar  240   6.660   3.870   5.652
    1   AR   Ar  241   6.712   0.514  -0.050
    1   AR   Ar  242   5.264   6.323   1.508
    1   AR   Ar  243   5.891   4.611   2.102
    1   AR   Ar  244   6.697   5.915  -0.176
    1   AR   Ar  245   5.119   5.496   2.210
    1   AR   Ar  246   6.094   6.339   2.361
    1   AR   Ar  247   5.607   3.722   2.642
    1   AR   Ar  248   6.248   6.972   1.239
    1   AR   Ar  249   5.245   4.577   3.169
    1   AR   Ar  250   4.601   6.279   4.201
    1   AR   Ar  251   5.378   5.493   4.467
    1   AR   Ar  252   5.664   5.903   3.365
    1   AR   Ar  253   5.579   5.369   5.563
    1   AR   Ar  254   5.522   5.676   6.607
    1   AR   Ar  255   5.387   4.466   6.552
    1   AR   Ar  256   6.155   5.872   4.855
    7.12000  7.12000 12.00000
Argon-slab step 965
  256
    1   AR   Ar    1   0.438   0.460  -0.614
    1   AR   Ar    2   7.083   0.452   1.046
    1   AR   Ar    3   0.316   6.706   0.248
    1   AR   Ar    4   1.282   0.610   0.181
    1   AR   Ar    5   0.008   5.971   1.013
    1   AR   Ar    6   0.191   0.162   3.119
    1   AR   Ar    7   0.039   6.303   2.273
    1   AR   Ar    8   0.676   7.109   1.664
    1   AR   Ar    9   0.465   0.865   4.239
    1   AR   Ar   10   6.754   1.520   4.276
    1   AR   Ar   11   2.176   0.009   4.581
    1   AR   Ar   12   1.253   0.875   3.591
    1   AR   Ar   13   6.941   1.069   5.171
    1   AR   Ar   14   0.385   1.379   6.130
    1   AR   Ar   15   0.417   6.052   8.468
    1   AR   Ar   16   0.794   0.690   5.236
    1   AR   Ar   17   7.017   1.446   0.096
    1   AR   Ar   18   7.041   2.973   0.178
    1   AR   Ar   19   0.881   1.377   0.885
    1   AR   Ar   20   0.343   3.107  -1.525
    1   AR   Ar   21   6.639   0.231   2.132
    1   AR   Ar   22   6.606   2.025   2.660
    1   AR   Ar   23   0.103   1.141   2.049
    1   AR   Ar   24   7.032   2.746   1.680
    1   AR   Ar   25   0.141   1.426   3.288
    1   AR   Ar   26   6.161   1.874   3.548
    1   AR   Ar   27   0.975   1.965   4.819
    1   AR   Ar   28   0.443   2.771   4.579
    1   AR   Ar   29   6.483   1.655   5.925
    1   AR   Ar   30   6.228   2.787   6.613
    1   AR   Ar   31   0.896   1.347   7.100
    1   AR   Ar   32   1.616   2.692   5.145
    1   AR   Ar   33   1.239   3.812  -1.321
    1   AR   Ar   34   0.575   4.965   1.202
    1   AR   Ar   35   0.515   3.733   0.751
    1   AR   Ar   36   1.445   6.456  -1.646
    1   AR   Ar   37   0.139   3.430   2.470
    1   AR   Ar   38   0.720   4.754   2.268
    1   AR   Ar   39   1.207   3.875   2.920
    1   AR   Ar   40   1.395   4.187   1.541
    1   AR   Ar   41   0.832   2.502   2.728
    1   AR   Ar   42   6.742   4.985   5.107
    1   AR   Ar   43   6.709   2.421   5.247
    1   AR   Ar   44   0.305   3.554   3.558
    1   AR   Ar   45   0.520   3.601   5.849
    1   AR   Ar   46   6.367   4.868   6.369
    1   AR   Ar   47   6.992   3.976   6.903
    1   AR   Ar   48   0.283   5.855   6.312
    1   AR   Ar   49   0.667   5.182  -0.937
    1   AR   Ar   50   6.128   5.517   1.571
    1   AR   Ar   51   1.280   4.776   0.023
    1   AR   Ar   52   0.415   5.376   0.122
    1   AR   Ar   53   6.515   5.330   2.564
    1   AR   Ar   54   6.635   6.390   3.233
    1   AR   Ar   55   0.331   5.342   3.279
    1   AR   Ar   56   1.107   6.137   1.780
    1   AR   Ar   57   6.972   4.416   2.925
    1   AR   Ar   58   0.074   5.912   4.188
    1   AR   Ar   59   1.919   6.169   5.018
    1   AR   Ar   60   0.584   6.981   4.223
    1   AR   Ar   61   6.428   6.326   6.034
    1   AR   Ar   62   0.048   6.275   5.208
    1   AR   Ar   63   1.137   5.411   5.805
    1   AR   Ar   64   1.041   6.659   5.090
    1   AR   Ar   65   2.342   0.051   0.330
    1   AR   Ar   66   1.997   0.750   1.172
    1   AR   Ar   67   3.756   6.004   0.157
    1   AR   Ar   68   3.811   1.052  -0.135
    1   AR   Ar   69   1.489   6.961   1.128
    1   AR   Ar   70   1.669   0.284   2.424
    1   AR   Ar   71   2.774   0.629   2.014
    1   AR   Ar   72   3.029   0.667   0.853
    1   AR   Ar   73   1.892   6.954   3.454
    1   AR   Ar   74   2.079   1.331   4.867
    1   AR   Ar   75   3.089   0.666   4.863
    1   AR   Ar   76   2.602   0.782   3.032
    1   AR   Ar   77   1.651   0.199   5.576
    1   AR   Ar   78   0.946   0.514   6.363
    1   AR   Ar   79   3.489   6.438   6.943
    1   AR   Ar   80   2.829   6.862   5.543
    1   AR   Ar   81   2.134   1.489   0.264
    1   AR   Ar   82   1.691   3.030   0.646
    1   AR   Ar   83   2.754   1.606   1.290
    1   AR   Ar   84   2.124   2.878  -1.481
    1   AR   Ar   85   1.820   2.058   1.150
    1   AR   Ar   86   1.936   2.453   2.520
    1   AR   Ar   87   2.158   1.304   2.185
    1   AR   Ar   88   3.264   3.657   1.443
    1   AR   Ar   89   0.930   1.765   1.816
    1   AR   Ar   90   3.058   2.064   4.945
    1   AR   Ar   91   2.488   2.179   4.115
    1   AR   Ar   92   1.983   1.643   3.190
    1   AR   Ar   93   1.497   1.694   6.057
    1   AR   Ar   94   2.675   1.533   8.422
    1   AR   Ar   95   2.828   0.090   6.439
    1   AR   Ar   96   2.161   2.202   6.966
    1   AR   Ar   97   2.669   4.011  -0.988
    1   AR   Ar   98   2.933   4.805   1.644
    1   AR   Ar   99   3.332   2.964  -1.456
    1   AR   Ar  100   2.395   4.712  -0.306
    1   AR   Ar  101   1.112   3.215   2.005
    1   AR   Ar  102   1.940   4.206   3.697
    1   AR   Ar  103   2.208   3.452   1.835
    1   AR   Ar  104   3.397   3.863   0.250
    1   AR   Ar  105   1.465   3.036   4.022
    1   AR   Ar  106   2.695   3.130   4.785
    1   AR   Ar  107   2.957   4.124   5.278
    1   AR   Ar  108   3.352   3.514   3.778
    1   AR   Ar  109   0.896   3.996   4.460
    1   AR   Ar  110   1.899   3.998   4.734
    1   AR   Ar  111   3.732   5.157   7.303
    1   AR   Ar  112   2.182   3.372   5.967
    1   AR   Ar  113   2.270   4.258   0.714
    1   AR   Ar  114   2.369   5.865   0.964
    1   AR   Ar  115   3.198   5.012   0.295
    1   AR   Ar  116   3.544   7.051   0.301
    1   AR   Ar  117   1.534   4.958   2.942
    1   AR   Ar  118   1.171   6.463   2.871
    1   AR   Ar  119   2.558   4.562   2.710
    1   AR   Ar  120   2.082   5.318   2.005
    1   AR   Ar  121   0.156   4.626   4.055
    1   AR   Ar  122   2.511   6.244   4.026
    1   AR   Ar  123   2.231   5.193   4.373
    1   AR   Ar  124   2.364   5.469   3.078
    1   AR   Ar  125   0.833   5.555   4.804
    1   AR   Ar  126   0.894   6.592   6.113
    1   AR   Ar  127   2.475   5.555   7.649
    1   AR   Ar  128   1.994   6.299   6.170
    1   AR   Ar  129   2.880   6.762   1.151
    1   AR   Ar  130   3.426   6.810  -0.934
    1   AR   Ar  131   4.812   6.175   0.187
    1   AR   Ar  132   5.741   2.244  -0.763
    1   AR   Ar  133   4.187   7.010   2.134
    1   AR   Ar  134   3.759   0.842   2.788
    1   AR   Ar  135   4.821   0.535   2.913
    1   AR   Ar  136   4.490   0.821   1.535
    1   AR   Ar  137   2.942   0.101   3.758
    1   AR   Ar  138   4.784   1.062   4.901
    1   AR   Ar  139   4.773   0.251   4.147
    1   AR   Ar  140   4.214   1.412   3.559
    1   AR   Ar  141   3.771   7.037   4.361
    1   AR   Ar  142   3.867   0.122   6.047
    1   AR   Ar  143   5.176   0.135   6.497
    1   AR   Ar  144   5.066   1.146   7.167
    1   AR   Ar  145   2.959   2.698   0.763
    1   AR   Ar  146   4.247   2.706   0.850
    1   AR   Ar  147   4.936   2.027   0.753
    1   AR   Ar  148   5.844   3.362  -1.412
    1   AR   Ar  149   3.952   1.640   0.971
    1   AR   Ar  150   3.022   1.824   2.472
    1   AR   Ar  151   3.580   2.345   3.755
    1   AR   Ar  152   3.150   2.789   2.039
    1   AR   Ar  153   3.261   1.158   3.812
    1   AR   Ar  154   4.030   1.906   4.645
    1   AR   Ar  155   5.511   1.108   5.667
    1   AR   Ar  156   4.625   3.178   3.871
    1   AR   Ar  157   3.787   1.900   5.683
    1   AR   Ar  158   3.365   2.185   6.761
    1   AR   Ar  159   4.668   0.970   6.202
    1   AR   Ar  160   4.401   3.033   5.612
    1   AR   Ar  161   4.641   2.783  -0.085
    1   AR   Ar  162   4.770   5.102   0.685
    1   AR   Ar  163   5.261   3.182   0.656
    1   AR   Ar  164   5.653   4.658   0.995
    1   AR   Ar  165   3.264   3.611   2.531
    1   AR   Ar  166   3.288   4.948   3.471
    1   AR   Ar  167   4.297   2.972   2.679
    1   AR   Ar  168   4.478   4.081   1.013
    1   AR   Ar  169   2.684   2.901   3.237
    1   AR   Ar  170   2.804   4.376   4.196
    1   AR   Ar  171   3.903   3.671   4.833
    1   AR   Ar  172   4.527   4.623   4.471
    1   AR   Ar  173   3.207   3.140   5.643
    1   AR   Ar  174   3.851   5.189   6.120
    1   AR   Ar  175   3.760   3.999   5.888
    1   AR   Ar  176   3.726   4.686   5.077
    1   AR   Ar  177   5.791   5.426   0.397
    1   AR   Ar  178   4.286   6.381   1.213
    1   AR   Ar  179   3.729   5.438   1.282
    1   AR   Ar  180   4.545   5.178  -0.364
    1   AR   Ar  181   2.955   5.787   1.930
    1   AR   Ar  182   2.179   6.495   1.808
    1   AR   Ar  183   3.726   4.625   2.477
    1   AR   Ar  184   4.083   5.763   2.293
    1   AR   Ar  185   1.212   6.004   3.796
    1   AR   Ar  186   3.643   5.388   4.330
    1   AR   Ar  187   4.626   5.469   3.317
    1   AR   Ar  188   3.599   6.068   3.266
    1   AR   Ar  189   2.489   5.437   5.645
    1   AR   Ar  190   4.831   6.380   6.157
    1   AR   Ar  191   4.604   5.759   5.249
    1   AR   Ar  192   3.281   5.869   5.183
    1   AR   Ar  193   5.669   0.027  -0.132
    1   AR   Ar  194   4.565   7.089  -0.175
    1   AR   Ar  195   6.142   0.915   0.822
    1   AR   Ar  196   6.140   1.155  -1.008
    1   AR   Ar  197   5.035   0.341   0.797
    1   AR   Ar  198   5.467   1.449   1.633
    1   AR   Ar  199   5.468   0.305   2.063
    1   AR   Ar  200   6.900   1.607   1.089
    1   AR   Ar  201   4.916   6.477   2.594
    1   AR   Ar  202   5.402   1.084   3.999
    1   AR   Ar  203   6.707   6.998   4.660
    1   AR   Ar  204   6.210   0.343   3.021
    1   AR   Ar  205   5.548   6.818   3.801
    1   AR   Ar  206   4.897   6.932   5.101
    1   AR   Ar  207   0.152   0.054   5.799
    1   AR   Ar  208   6.358   0.510   4.024
    1   AR   Ar  209   6.654   2.006  -1.360
    1   AR   Ar  210   4.967   2.688   1.677
    1   AR   Ar  211   6.036   2.183   0.703
    1   AR   Ar  212   6.830   3.717  -0.710
    1   AR   Ar  213   3.983   2.040   1.992
    1   AR   Ar  214   4.182   3.492   1.867
    1   AR   Ar  215   5.516   2.679   2.734
    1   AR   Ar  216   5.969   3.109   1.867
    1   AR   Ar  217   5.187   2.238   3.802
    1   AR   Ar  218   5.864   1.798   4.852
    1   AR   Ar  219   5.423   1.573   2.951
    1   AR   Ar  220   6.505   2.992   3.162
    1   AR   Ar  221   6.180   0.404   5.345
    1   AR   Ar  222   4.866   2.109   6.476
    1   AR   Ar  223   6.633   1.473   7.307
    1   AR   Ar  224   5.839   2.706   5.663
    1   AR   Ar  225   5.279   4.221  -0.079
    1   AR   Ar  226   4.663   4.316   2.127
    1   AR   Ar  227   6.944   4.102   1.750
    1   AR   Ar  228   6.793   4.895   0.808
    1   AR   Ar  229   6.437   3.592   0.799
    1   AR   Ar  230   4.191   3.965   3.278
    1   AR   Ar  231   0.093   2.503   3.683
    1   AR   Ar  232   5.396   3.850   1.471
    1   AR   Ar  233   6.237   3.076   4.521
    1   AR   Ar  234   5.752   4.189   5.094
    1   AR   Ar  235   6.991   3.760   4.427
    1   AR   Ar  236   5.546   3.603   3.689
    1   AR   Ar  237   5.239   3.146   4.723
    1   AR   Ar  238   4.740   4.591   5.444
    1   AR   Ar  239   6.055   3.961   7.495
    1   AR   Ar  240   6.657   3.912   5.676
    1   AR   Ar  241   6.747   0.506  -0.050
    1   AR   Ar  242   5.245   6.310   1.519
    1   AR   Ar  243   5.909   4.608   2.100
    1   AR   Ar  244   6.687   5.951  -0.212
    1   AR   Ar  245   5.131   5.473   2.200
    1   AR   Ar  246   6.104   6.334   2.321
    1   AR   Ar  247   5.600   3.741   2.661
    1   AR   Ar  248   6.243   6.972   1.254
    1   AR   Ar  249   5.267   4.594   3.162
    1   AR   Ar  250   4.618   6.273   4.168
    1   AR   Ar  251   5.351   5.468   4.459
    1   AR   Ar  252   5.644   5.899   3.399
    1   AR   Ar  253   5.584   5.374   5.546
    1   AR   Ar  254   5.521   5.666   6.659
    1   AR   Ar  255   5.404   4.491   6.578
    1   AR   Ar  256   6.171   5.870   4.863
    7.12000  7.12000 12.00000
Argon-slab step 970
  256
    1   AR   Ar    1   0.432   0.451  -0.614
    1   AR   Ar    2   7.060   0.460   1.052
    1   AR   Ar    3   0.313   6.732   0.263
    1   AR   Ar    4   1.296   0.637   0.180
    1   AR   Ar    5   0.008   5.944   1.038
    1   AR   Ar    6   0.193   0.200   3.100
    1   AR   Ar    7   0.032   6.304   2.260
    1   AR   Ar    8   0.658   0.009   1.675
    1   AR   Ar    9   0.455   0.859   4.234
    1   AR   Ar   10   6.744   1.520   4.282
    1   AR   Ar   11   2.175   0.012   4.578
    1   AR   Ar   12   1.263   0.853   3.573
    1   AR   Ar   13   6.916   1.088   5.171
    1   AR   Ar   14   0.386   1.380   6.126
    1   AR   Ar   15   0.390   6.042   8.518
    1   AR   Ar   16   0.816   0.665   5.234
    1   AR   Ar   17   7.011   1.492   0.097
    1   AR   Ar   18   7.051   2.973   0.166
    1   AR   Ar   19   0.857   1.382   0.881
    1   AR   Ar   20   0.340   3.097  -1.536
    1   AR   Ar   21   6.625   0.200   2.140
    1   AR   Ar   22   6.595   2.026   2.628
    1   AR   Ar   23   0.110   1.163   2.032
    1   AR   Ar   24   7.014   2.756   1.657
    1   AR   Ar   25   0.136   1.453   3.279
    1   AR   Ar   26   6.169   1.899   3.541
    1   AR   Ar   27   0.994   1.946   4.776
    1   AR   Ar   28   0.453   2.771   4.557
    1   AR   Ar   29   6.477   1.648   5.948
    1   AR   Ar   30   6.260   2.808   6.619
    1   AR   Ar   31   0.905   1.354   7.078
    1   AR   Ar   32   1.645   2.690   5.150
    1   AR   Ar   33   1.251   3.824  -1.350
    1   AR   Ar   34   0.603   5.002   1.200
    1   AR   Ar   35   0.520   3.729   0.776
    1   AR   Ar   36   1.422   6.437  -1.700
    1   AR   Ar   37   0.127   3.434   2.447
    1   AR   Ar   38   0.723   4.805   2.269
    1   AR   Ar   39   1.194   3.832   2.924
    1   AR   Ar   40   1.377   4.219   1.556
    1   AR   Ar   41   0.825   2.510   2.732
    1   AR   Ar   42   6.726   4.983   5.148
    1   AR   Ar   43   6.715   2.437   5.248
    1   AR   Ar   44   0.310   3.572   3.531
    1   AR   Ar   45   0.518   3.614   5.867
    1   AR   Ar   46   6.329   4.895   6.354
    1   AR   Ar   47   6.958   3.999   6.902
    1   AR   Ar   48   0.272   5.883   6.318
    1   AR   Ar   49   0.685   5.132  -0.967
    1   AR   Ar   50   6.134   5.492   1.556
    1   AR   Ar   51   1.298   4.768   0.000
    1   AR   Ar   52   0.421   5.356   0.104
    1   AR   Ar   53   6.524   5.335   2.568
    1   AR   Ar   54   6.619   6.399   3.202
    1   AR   Ar   55   0.321   5.336   3.248
    1   AR   Ar   56   1.141   6.152   1.773
    1   AR   Ar   57   7.009   4.434   2.938
    1   AR   Ar   58   0.084   5.907   4.176
    1   AR   Ar   59   1.966   6.148   5.044
    1   AR   Ar   60   0.607   6.989   4.187
    1   AR   Ar   61   6.386   6.309   6.007
    1   AR   Ar   62   0.044   6.282   5.215
    1   AR   Ar   63   1.158   5.389   5.801
    1   AR   Ar   64   1.046   6.689   5.077
    1   AR   Ar   65   2.372   0.088   0.364
    1   AR   Ar   66   2.035   0.769   1.179
    1   AR   Ar   67   3.745   6.003   0.187
    1   AR   Ar   68   3.793   1.064  -0.137
    1   AR   Ar   69   1.495   6.924   1.095
    1   AR   Ar   70   1.657   0.294   2.423
    1   AR   Ar   71   2.813   0.655   2.018
    1   AR   Ar   72   3.069   0.663   0.834
    1   AR   Ar   73   1.888   6.978   3.425
    1   AR   Ar   74   2.096   1.336   4.907
    1   AR   Ar   75   3.078   0.665   4.890
    1   AR   Ar   76   2.604   0.788   3.015
    1   AR   Ar   77   1.633   0.201   5.549
    1   AR   Ar   78   0.935   0.541   6.354
    1   AR   Ar   79   3.501   6.438   6.951
    1   AR   Ar   80   2.835   6.829   5.524
    1   AR   Ar   81   2.161   1.497   0.231
    1   AR   Ar   82   1.676   3.050   0.655
    1   AR   Ar   83   2.788   1.591   1.261
    1   AR   Ar   84   2.093   2.882  -1.503
    1   AR   Ar   85   1.816   2.052   1.115
    1   AR   Ar   86   1.922   2.461   2.522
    1   AR   Ar   87   2.148   1.324   2.170
    1   AR   Ar   88   3.244   3.647   1.447
    1   AR   Ar   89   0.938   1.802   1.790
    1   AR   Ar   90   3.030   2.065   4.926
    1   AR   Ar   91   2.470   2.198   4.129
    1   AR   Ar   92   1.986   1.623   3.187
    1   AR   Ar   93   1.498   1.685   6.034
    1   AR   Ar   94   2.671   1.513   8.437
    1   AR   Ar   95   2.840   0.067   6.430
    1   AR   Ar   96   2.156   2.214   7.000
    1   AR   Ar   97   2.663   3.999  -0.954
    1   AR   Ar   98   2.916   4.773   1.669
    1   AR   Ar   99   3.309   2.953  -1.456
    1   AR   Ar  100   2.352   4.700  -0.289
    1   AR   Ar  101   1.089   3.220   2.010
    1   AR   Ar  102   1.938   4.213   3.707
    1   AR   Ar  103   2.206   3.460   1.811
    1   AR   Ar  104   3.389   3.896   0.258
    1   AR   Ar  105   1.505   3.013   4.009
    1   AR   Ar  106   2.689   3.133   4.763
    1   AR   Ar  107   2.955   4.122   5.257
    1   AR   Ar  108   3.376   3.514   3.777
    1   AR   Ar  109   0.868   4.001   4.463
    1   AR   Ar  110   1.867   4.029   4.723
    1   AR   Ar  111   3.694   5.151   7.298
    1   AR   Ar  112   2.146   3.390   5.963
    1   AR   Ar  113   2.238   4.257   0.727
    1   AR   Ar  114   2.358   5.829   0.963
    1   AR   Ar  115   3.221   4.980   0.288
    1   AR   Ar  116   3.562   7.053   0.259
    1   AR   Ar  117   1.544   4.932   2.981
    1   AR   Ar  118   1.176   6.459   2.879
    1   AR   Ar  119   2.553   4.562   2.692
    1   AR   Ar  120   2.051   5.299   1.980
    1   AR   Ar  121   0.159   4.652   4.017
    1   AR   Ar  122   2.508   6.235   3.999
    1   AR   Ar  123   2.232   5.198   4.368
    1   AR   Ar  124   2.360   5.476   3.096
    1   AR   Ar  125   0.846   5.564   4.822
    1   AR   Ar  126   0.899   6.597   6.139
    1   AR   Ar  127   2.455   5.570   7.634
    1   AR   Ar  128   1.982   6.333   6.164
    1   AR   Ar  129   2.863   6.790   1.179
    1   AR   Ar  130   3.420   6.794  -0.902
    1   AR   Ar  131   4.787   6.172   0.208
    1   AR   Ar  132   5.760   2.244  -0.770
    1   AR   Ar  133   4.191   7.011   2.099
    1   AR   Ar  134   3.775   0.847   2.769
    1   AR   Ar  135   4.836   0.538   2.932
    1   AR   Ar  136   4.503   0.852   1.514
    1   AR   Ar  137   2.952   0.101   3.748
    1   AR   Ar  138   4.761   1.081   4.902
    1   AR   Ar  139   4.739   0.229   4.148
    1   AR   Ar  140   4.222   1.378   3.555
    1   AR   Ar  141   3.758   7.042   4.361
    1   AR   Ar  142   3.882   0.164   6.040
    1   AR   Ar  143   5.164   0.139   6.482
    1   AR   Ar  144   5.071   1.118   7.191
    1   AR   Ar  145   2.944   2.699   0.780
    1   AR   Ar  146   4.250   2.684   0.859
    1   AR   Ar  147   4.955   2.028   0.731
    1   AR   Ar  148   5.831   3.364  -1.437
    1   AR   Ar  149   3.945   1.622   0.949
    1   AR   Ar  150   3.021   1.830   2.463
    1   AR   Ar  151   3.536   2.328   3.732
    1   AR   Ar  152   3.119   2.769   2.065
    1   AR   Ar  153   3.286   1.137   3.821
    1   AR   Ar  154   4.047   1.907   4.654
    1   AR   Ar  155   5.498   1.117   5.676
    1   AR   Ar  156   4.608   3.176   3.825
    1   AR   Ar  157   3.763   1.900   5.655
    1   AR   Ar  158   3.396   2.157   6.776
    1   AR   Ar  159   4.651   0.966   6.200
    1   AR   Ar  160   4.406   3.037   5.592
    1   AR   Ar  161   4.617   2.797  -0.130
    1   AR   Ar  162   4.755   5.073   0.699
    1   AR   Ar  163   5.277   3.209   0.653
    1   AR   Ar  164   5.657   4.665   1.012
    1   AR   Ar  165   3.271   3.640   2.535
    1   AR   Ar  166   3.249   4.953   3.481
    1   AR   Ar  167   4.289   2.940   2.686
    1   AR   Ar  168   4.472   4.053   1.009
    1   AR   Ar  169   2.691   2.908   3.234
    1   AR   Ar  170   2.835   4.348   4.208
    1   AR   Ar  171   3.874   3.665   4.820
    1   AR   Ar  172   4.518   4.619   4.460
    1   AR   Ar  173   3.216   3.126   5.618
    1   AR   Ar  174   3.819   5.175   6.115
    1   AR   Ar  175   3.767   3.992   5.884
    1   AR   Ar  176   3.720   4.674   5.061
    1   AR   Ar  177   5.784   5.412   0.383
    1   AR   Ar  178   4.279   6.367   1.242
    1   AR   Ar  179   3.716   5.429   1.303
    1   AR   Ar  180   4.559   5.139  -0.410
    1   AR   Ar  181   2.944   5.776   1.945
    1   AR   Ar  182   2.167   6.503   1.818
    1   AR   Ar  183   3.729   4.616   2.472
    1   AR   Ar  184   4.092   5.736   2.284
    1   AR   Ar  185   1.202   6.027   3.778
    1   AR   Ar  186   3.653   5.359   4.300
    1   AR   Ar  187   4.606   5.492   3.333
    1   AR   Ar  188   3.601   6.087   3.288
    1   AR   Ar  189   2.452   5.413   5.638
    1   AR   Ar  190   4.815   6.328   6.116
    1   AR   Ar  191   4.607   5.766   5.271
    1   AR   Ar  192   3.314   5.860   5.158
    1   AR   Ar  193   5.636   0.016  -0.122
    1   AR   Ar  194   4.555   7.114  -0.197
    1   AR   Ar  195   6.131   0.925   0.829
    1   AR   Ar  196   6.131   1.169  -1.022
    1   AR   Ar  197   5.045   0.333   0.798
    1   AR   Ar  198   5.495   1.443   1.625
    1   AR   Ar  199   5.462   0.317   2.074
    1   AR   Ar  200   6.888   1.606   1.084
    1   AR   Ar  201   4.900   6.466   2.582
    1   AR   Ar  202   5.388   1.066   4.014
    1   AR   Ar  203   6.713   6.993   4.660
    1   AR   Ar  204   6.204   0.333   3.031
    1   AR   Ar  205   5.555   6.818   3.825
    1   AR   Ar  206   4.904   6.950   5.079
    1   AR   Ar  207   0.178   0.063   5.799
    1   AR   Ar  208   6.356   0.517   4.018
    1   AR   Ar  209   6.638   2.022  -1.352
    1   AR   Ar  210   4.973   2.680   1.716
    1   AR   Ar  211   6.045   2.191   0.719
    1   AR   Ar  212   6.819   3.723  -0.723
    1   AR   Ar  213   3.964   2.044   1.988
    1   AR   Ar  214   4.140   3.489   1.856
    1   AR   Ar  215   5.544   2.667   2.734
    1   AR   Ar  216   6.015   3.074   1.843
    1   AR   Ar  217   5.155   2.255   3.810
    1   AR   Ar  218   5.872   1.806   4.857
    1   AR   Ar  219   5.424   1.589   2.968
    1   AR   Ar  220   6.490   2.964   3.158
    1   AR   Ar  221   6.194   0.351   5.347
    1   AR   Ar  222   4.855   2.109   6.467
    1   AR   Ar  223   6.623   1.455   7.287
    1   AR   Ar  224   5.851   2.699   5.653
    1   AR   Ar  225   5.284   4.214  -0.084
    1   AR   Ar  226   4.653   4.303   2.108
    1   AR   Ar  227   6.926   4.131   1.733
    1   AR   Ar  228   6.812   4.888   0.824
    1   AR   Ar  229   6.426   3.602   0.797
    1   AR   Ar  230   4.172   3.945   3.297
    1   AR   Ar  231   0.062   2.461   3.660
    1   AR   Ar  232   5.366   3.849   1.493
    1   AR   Ar  233   6.262   3.093   4.529
    1   AR   Ar  234   5.749   4.181   5.083
    1   AR   Ar  235   7.012   3.742   4.450
    1   AR   Ar  236   5.549   3.620   3.674
    1   AR   Ar  237   5.234   3.149   4.761
    1   AR   Ar  238   4.711   4.579   5.421
    1   AR   Ar  239   6.086   3.950   7.511
    1   AR   Ar  240   6.650   3.955   5.699
    1   AR   Ar  241   6.768   0.488  -0.044
    1   AR   Ar  242   5.235   6.299   1.531
    1   AR   Ar  243   5.925   4.601   2.098
    1   AR   Ar  244   6.675   5.987  -0.247
    1   AR   Ar  245   5.139   5.461   2.185
    1   AR   Ar  246   6.101   6.311   2.342
    1   AR   Ar  247   5.592   3.759   2.675
    1   AR   Ar  248   6.232   6.967   1.267
    1   AR   Ar  249   5.287   4.613   3.155
    1   AR   Ar  250   4.562   6.255   4.191
    1   AR   Ar  251   5.314   5.439   4.446
    1   AR   Ar  252   5.624   5.887   3.429
    1   AR   Ar  253   5.583   5.364   5.535
    1   AR   Ar  254   5.521   5.656   6.709
    1   AR   Ar  255   5.400   4.492   6.596
    1   AR   Ar  256   6.199   5.877   4.871
    7.12000  7.12000 12.00000
Argon-slab step 975
  256
    1   AR   Ar    1   0.439   0.441  -0.620
    1   AR   Ar    2   7.041   0.473   1.056
    1   AR   Ar    3   0.310   6.760   0.280
    1   AR   Ar    4   1.311   0.663   0.180
    1   AR   Ar    5   0.008   5.918   1.063
    1   AR   Ar    6   0.196   0.238   3.082
    1   AR   Ar    7   0.029   6.305   2.245
    1   AR   Ar    8   0.638   0.030   1.692
    1   AR   Ar    9   0.440   0.861   4.232
    1   AR   Ar   10   6.736   1.523   4.286
    1   AR   Ar   11   2.174   7.112   4.567
    1   AR   Ar   12   1.276   0.831   3.553
    1   AR   Ar   13   6.896   1.105   5.175
    1   AR   Ar   14   0.385   1.385   6.119
    1   AR   Ar   15   0.364   6.032   8.567
    1   AR   Ar   16   0.833   0.648   5.228
    1   AR   Ar   17   7.006   1.542   0.091
    1   AR   Ar   18   7.060   2.971   0.154
    1   AR   Ar   19   0.831   1.384   0.871
    1   AR   Ar   20   0.337   3.088  -1.545
    1   AR   Ar   21   6.638   0.192   2.135
    1   AR   Ar   22   6.588   2.028   2.587
    1   AR   Ar   23   0.116   1.184   2.016
    1   AR   Ar   24   6.999   2.763   1.632
    1   AR   Ar   25   0.132   1.476   3.270
    1   AR   Ar   26   6.179   1.930   3.541
    1   AR   Ar   27   1.015   1.917   4.734
    1   AR   Ar   28   0.462   2.780   4.538
    1   AR   Ar   29   6.467   1.643   5.974
    1   AR   Ar   30   6.293   2.829   6.627
    1   AR   Ar   31   0.911   1.362   7.061
    1   AR   Ar   32   1.634   2.684   5.146
    1   AR   Ar   33   1.263   3.835  -1.377
    1   AR   Ar   34   0.623   5.033   1.203
    1   AR   Ar   35   0.525   3.726   0.803
    1   AR   Ar   36   1.398   6.419  -1.753
    1   AR   Ar   37   0.116   3.437   2.429
    1   AR   Ar   38   0.702   4.819   2.261
    1   AR   Ar   39   1.181   3.789   2.928
    1   AR   Ar   40   1.360   4.252   1.572
    1   AR   Ar   41   0.814   2.517   2.740
    1   AR   Ar   42   6.710   4.980   5.190
    1   AR   Ar   43   6.732   2.449   5.244
    1   AR   Ar   44   0.333   3.574   3.503
    1   AR   Ar   45   0.518   3.627   5.885
    1   AR   Ar   46   6.327   4.908   6.339
    1   AR   Ar   47   6.925   4.022   6.897
    1   AR   Ar   48   0.251   5.900   6.326
    1   AR   Ar   49   0.671   5.125  -0.968
    1   AR   Ar   50   6.119   5.464   1.567
    1   AR   Ar   51   1.316   4.758  -0.021
    1   AR   Ar   52   0.428   5.345   0.087
    1   AR   Ar   53   6.535   5.342   2.573
    1   AR   Ar   54   6.643   6.366   3.226
    1   AR   Ar   55   0.314   5.337   3.214
    1   AR   Ar   56   1.173   6.164   1.768
    1   AR   Ar   57   7.044   4.448   2.948
    1   AR   Ar   58   0.091   5.904   4.162
    1   AR   Ar   59   2.014   6.127   5.068
    1   AR   Ar   60   0.629   6.988   4.145
    1   AR   Ar   61   6.375   6.332   5.996
    1   AR   Ar   62   0.044   6.281   5.226
    1   AR   Ar   63   1.181   5.368   5.800
    1   AR   Ar   64   1.045   6.710   5.060
    1   AR   Ar   65   2.396   0.123   0.393
    1   AR   Ar   66   2.071   0.789   1.186
    1   AR   Ar   67   3.733   5.999   0.218
    1   AR   Ar   68   3.775   1.075  -0.137
    1   AR   Ar   69   1.505   6.888   1.056
    1   AR   Ar   70   1.647   0.304   2.421
    1   AR   Ar   71   2.868   0.666   2.012
    1   AR   Ar   72   3.116   0.666   0.818
    1   AR   Ar   73   1.887   7.005   3.399
    1   AR   Ar   74   2.113   1.341   4.946
    1   AR   Ar   75   3.079   0.668   4.897
    1   AR   Ar   76   2.606   0.794   3.001
    1   AR   Ar   77   1.633   0.204   5.532
    1   AR   Ar   78   0.930   0.565   6.346
    1   AR   Ar   79   3.513   6.438   6.958
    1   AR   Ar   80   2.848   6.797   5.495
    1   AR   Ar   81   2.188   1.504   0.200
    1   AR   Ar   82   1.663   3.072   0.665
    1   AR   Ar   83   2.823   1.578   1.233
    1   AR   Ar   84   2.081   2.885  -1.506
    1   AR   Ar   85   1.812   2.046   1.081
    1   AR   Ar   86   1.904   2.476   2.530
    1   AR   Ar   87   2.119   1.358   2.155
    1   AR   Ar   88   3.215   3.641   1.443
    1   AR   Ar   89   0.934   1.836   1.780
    1   AR   Ar   90   3.003   2.066   4.916
    1   AR   Ar   91   2.444   2.218   4.132
    1   AR   Ar   92   1.987   1.605   3.187
    1   AR   Ar   93   1.499   1.675   6.010
    1   AR   Ar   94   2.667   1.494   8.450
    1   AR   Ar   95   2.852   0.048   6.433
    1   AR   Ar   96   2.151   2.226   7.033
    1   AR   Ar   97   2.660   3.981  -0.924
    1   AR   Ar   98   2.901   4.735   1.691
    1   AR   Ar   99   3.284   2.943  -1.456
    1   AR   Ar  100   2.306   4.692  -0.269
    1   AR   Ar  101   1.069   3.226   2.010
    1   AR   Ar  102   1.932   4.216   3.706
    1   AR   Ar  103   2.204   3.468   1.788
    1   AR   Ar  104   3.380   3.928   0.267
    1   AR   Ar  105   1.545   2.990   3.997
    1   AR   Ar  106   2.679   3.137   4.733
    1   AR   Ar  107   2.946   4.105   5.277
    1   AR   Ar  108   3.397   3.512   3.781
    1   AR   Ar  109   0.852   4.003   4.460
    1   AR   Ar  110   1.841   4.057   4.718
    1   AR   Ar  111   3.656   5.146   7.291
    1   AR   Ar  112   2.112   3.407   5.957
    1   AR   Ar  113   2.262   4.275   0.737
    1   AR   Ar  114   2.348   5.791   0.963
    1   AR   Ar  115   3.245   4.950   0.284
    1   AR   Ar  116   3.579   7.055   0.216
    1   AR   Ar  117   1.543   4.902   3.018
    1   AR   Ar  118   1.176   6.457   2.875
    1   AR   Ar  119   2.544   4.564   2.651
    1   AR   Ar  120   2.009   5.271   1.946
    1   AR   Ar  121   0.160   4.681   3.981
    1   AR   Ar  122   2.504   6.225   3.972
    1   AR   Ar  123   2.232   5.205   4.363
    1   AR   Ar  124   2.363   5.497   3.119
    1   AR   Ar  125   0.860   5.573   4.838
    1   AR   Ar  126   0.922   6.607   6.165
    1   AR   Ar  127   2.435   5.586   7.619
    1   AR   Ar  128   1.971   6.367   6.156
    1   AR   Ar  129   2.857   6.818   1.204
    1   AR   Ar  130   3.416   6.778  -0.867
    1   AR   Ar  131   4.766   6.165   0.233
    1   AR   Ar  132   5.778   2.246  -0.775
    1   AR   Ar  133   4.191   7.017   2.062
    1   AR   Ar  134   3.799   0.868   2.748
    1   AR   Ar  135   4.850   0.541   2.953
    1   AR   Ar  136   4.515   0.884   1.498
    1   AR   Ar  137   2.959   0.099   3.738
    1   AR   Ar  138   4.737   1.099   4.902
    1   AR   Ar  139   4.710   0.217   4.145
    1   AR   Ar  140   4.204   1.382   3.560
    1   AR   Ar  141   3.746   7.045   4.365
    1   AR   Ar  142   3.897   0.204   6.031
    1   AR   Ar  143   5.156   0.142   6.468
    1   AR   Ar  144   5.077   1.091   7.215
    1   AR   Ar  145   2.935   2.728   0.791
    1   AR   Ar  146   4.240   2.673   0.875
    1   AR   Ar  147   4.984   2.018   0.708
    1   AR   Ar  148   5.818   3.365  -1.462
    1   AR   Ar  149   3.936   1.603   0.927
    1   AR   Ar  150   3.020   1.830   2.459
    1   AR   Ar  151   3.492   2.310   3.710
    1   AR   Ar  152   3.086   2.746   2.086
    1   AR   Ar  153   3.303   1.116   3.833
    1   AR   Ar  154   4.067   1.908   4.657
    1   AR   Ar  155   5.492   1.129   5.682
    1   AR   Ar  156   4.587   3.170   3.781
    1   AR   Ar  157   3.742   1.901   5.634
    1   AR   Ar  158   3.401   2.152   6.782
    1   AR   Ar  159   4.623   0.968   6.198
    1   AR   Ar  160   4.386   3.025   5.622
    1   AR   Ar  161   4.594   2.810  -0.177
    1   AR   Ar  162   4.736   5.047   0.713
    1   AR   Ar  163   5.266   3.150   0.662
    1   AR   Ar  164   5.666   4.669   1.032
    1   AR   Ar  165   3.278   3.677   2.547
    1   AR   Ar  166   3.211   4.957   3.479
    1   AR   Ar  167   4.281   2.904   2.701
    1   AR   Ar  168   4.462   4.026   1.001
    1   AR   Ar  169   2.711   2.871   3.245
    1   AR   Ar  170   2.870   4.317   4.225
    1   AR   Ar  171   3.846   3.656   4.806
    1   AR   Ar  172   4.514   4.613   4.430
    1   AR   Ar  173   3.230   3.107   5.599
    1   AR   Ar  174   3.788   5.159   6.107
    1   AR   Ar  175   3.781   3.987   5.886
    1   AR   Ar  176   3.718   4.675   5.049
    1   AR   Ar  177   5.778   5.408   0.362
    1   AR   Ar  178   4.263   6.354   1.266
    1   AR   Ar  179   3.697   5.421   1.309
    1   AR   Ar  180   4.573   5.100  -0.454
    1   AR   Ar  181   2.940   5.772   1.963
    1   AR   Ar  182   2.146   6.510   1.839
    1   AR   Ar  183   3.730   4.610   2.468
    1   AR   Ar  184   4.099   5.710   2.275
    1   AR   Ar  185   1.192   6.046   3.769
    1   AR   Ar  186   3.648   5.356   4.274
    1   AR   Ar  187   4.583   5.515   3.348
    1   AR   Ar  188   3.603   6.105   3.311
    1   AR   Ar  189   2.414   5.385   5.631
    1   AR   Ar  190   4.800   6.277   6.078
    1   AR   Ar  191   4.628   5.797   5.288
    1   AR   Ar  192   3.347   5.852   5.134
    1   AR   Ar  193   5.604   0.005  -0.109
    1   AR   Ar  194   4.542   0.022  -0.220
    1   AR   Ar  195   6.115   0.933   0.834
    1   AR   Ar  196   6.120   1.179  -1.034
    1   AR   Ar  197   5.058   0.323   0.798
    1   AR   Ar  198   5.524   1.438   1.618
    1   AR   Ar  199   5.458   0.329   2.083
    1   AR   Ar  200   6.878   1.608   1.089
    1   AR   Ar  201   4.891   6.452   2.576
    1   AR   Ar  202   5.375   1.051   4.027
    1   AR   Ar  203   6.714   6.983   4.667
    1   AR   Ar  204   6.191   0.322   3.043
    1   AR   Ar  205   5.566   6.823   3.850
    1   AR   Ar  206   4.912   6.965   5.062
    1   AR   Ar  207   0.190   0.076   5.793
    1   AR   Ar  208   6.350   0.535   4.010
    1   AR   Ar  209   6.626   2.041  -1.346
    1   AR   Ar  210   4.978   2.673   1.756
    1   AR   Ar  211   6.053   2.200   0.737
    1   AR   Ar  212   6.809   3.728  -0.736
    1   AR   Ar  213   3.948   2.050   1.983
    1   AR   Ar  214   4.101   3.479   1.841
    1   AR   Ar  215   5.571   2.653   2.735
    1   AR   Ar  216   6.060   3.040   1.819
    1   AR   Ar  217   5.124   2.272   3.819
    1   AR   Ar  218   5.879   1.808   4.860
    1   AR   Ar  219   5.416   1.600   2.977
    1   AR   Ar  220   6.468   2.945   3.149
    1   AR   Ar  221   6.201   0.300   5.358
    1   AR   Ar  222   4.844   2.107   6.458
    1   AR   Ar  223   6.615   1.437   7.266
    1   AR   Ar  224   5.858   2.719   5.669
    1   AR   Ar  225   5.288   4.207  -0.086
    1   AR   Ar  226   4.676   4.303   2.133
    1   AR   Ar  227   6.906   4.163   1.713
    1   AR   Ar  228   6.819   4.879   0.837
    1   AR   Ar  229   6.414   3.613   0.797
    1   AR   Ar  230   4.156   3.932   3.309
    1   AR   Ar  231   0.035   2.414   3.638
    1   AR   Ar  232   5.337   3.838   1.521
    1   AR   Ar  233   6.281   3.103   4.535
    1   AR   Ar  234   5.746   4.173   5.071
    1   AR   Ar  235   7.029   3.725   4.480
    1   AR   Ar  236   5.556   3.635   3.667
    1   AR   Ar  237   5.226   3.152   4.801
    1   AR   Ar  238   4.688   4.566   5.413
    1   AR   Ar  239   6.116   3.938   7.527
    1   AR   Ar  240   6.640   3.999   5.722
    1   AR   Ar  241   6.760   0.491  -0.010
    1   AR   Ar  242   5.235   6.289   1.545
    1   AR   Ar  243   5.939   4.592   2.095
    1   AR   Ar  244   6.664   6.024  -0.280
    1   AR   Ar  245   5.137   5.466   2.164
    1   AR   Ar  246   6.088   6.289   2.356
    1   AR   Ar  247   5.586   3.773   2.678
    1   AR   Ar  248   6.216   6.958   1.276
    1   AR   Ar  249   5.305   4.637   3.150
    1   AR   Ar  250   4.506   6.237   4.213
    1   AR   Ar  251   5.274   5.408   4.431
    1   AR   Ar  252   5.605   5.869   3.454
    1   AR   Ar  253   5.582   5.350   5.528
    1   AR   Ar  254   5.522   5.644   6.756
    1   AR   Ar  255   5.392   4.492   6.613
    1   AR   Ar  256   6.231   5.889   4.877
    7.12000  7.12000 12.00000
Argon-slab step 980
  256
    1   AR   Ar    1   0.452   0.430  -0.630
    1   AR   Ar    2   7.032   0.493   1.058
    1   AR   Ar    3   0.307   6.787   0.298
    1   AR   Ar    4   1.311   0.675   0.164
    1   AR   Ar    5   0.007   5.895   1.088
    1   AR   Ar    6   0.199   0.276   3.064
    1   AR   Ar    7   0.030   6.305   2.229
    1   AR   Ar    8   0.618   0.050   1.712
    1   AR   Ar    9   0.423   0.869   4.229
    1   AR   Ar   10   6.730   1.532   4.285
    1   AR   Ar   11   2.173   7.093   4.556
    1   AR   Ar   12   1.290   0.806   3.530
    1   AR   Ar   13   6.880   1.116   5.185
    1   AR   Ar   14   0.381   1.394   6.107
    1   AR   Ar   15   0.338   6.021   8.617
    1   AR   Ar   16   0.838   0.643   5.214
    1   AR   Ar   17   7.002   1.591   0.077
    1   AR   Ar   18   7.069   2.968   0.142
    1   AR   Ar   19   0.805   1.382   0.855
    1   AR   Ar   20   0.328   3.083  -1.553
    1   AR   Ar   21   6.672   0.200   2.123
    1   AR   Ar   22   6.581   2.030   2.542
    1   AR   Ar   23   0.121   1.201   2.003
    1   AR   Ar   24   6.994   2.766   1.603
    1   AR   Ar   25   0.129   1.490   3.258
    1   AR   Ar   26   6.189   1.965   3.545
    1   AR   Ar   27   1.036   1.882   4.691
    1   AR   Ar   28   0.470   2.794   4.520
    1   AR   Ar   29   6.453   1.641   6.002
    1   AR   Ar   30   6.329   2.851   6.637
    1   AR   Ar   31   0.905   1.373   7.059
    1   AR   Ar   32   1.624   2.680   5.142
    1   AR   Ar   33   1.276   3.845  -1.405
    1   AR   Ar   34   0.640   5.061   1.210
    1   AR   Ar   35   0.530   3.723   0.832
    1   AR   Ar   36   1.423   6.420  -1.762
    1   AR   Ar   37   0.104   3.441   2.415
    1   AR   Ar   38   0.682   4.833   2.255
    1   AR   Ar   39   1.171   3.748   2.931
    1   AR   Ar   40   1.343   4.284   1.587
    1   AR   Ar   41   0.800   2.521   2.750
    1   AR   Ar   42   6.695   4.976   5.232
    1   AR   Ar   43   6.750   2.463   5.240
    1   AR   Ar   44   0.334   3.604   3.535
    1   AR   Ar   45   0.518   3.638   5.902
    1   AR   Ar   46   6.377   4.900   6.326
    1   AR   Ar   47   6.895   4.046   6.887
    1   AR   Ar   48   0.221   5.908   6.333
    1   AR   Ar   49   0.658   5.118  -0.969
    1   AR   Ar   50   6.106   5.443   1.576
    1   AR   Ar   51   1.329   4.747  -0.040
    1   AR   Ar   52   0.445   5.358   0.069
    1   AR   Ar   53   6.548   5.350   2.580
    1   AR   Ar   54   6.669   6.333   3.255
    1   AR   Ar   55   0.313   5.351   3.177
    1   AR   Ar   56   1.199   6.172   1.764
    1   AR   Ar   57   7.076   4.451   2.954
    1   AR   Ar   58   0.096   5.902   4.147
    1   AR   Ar   59   2.059   6.111   5.086
    1   AR   Ar   60   0.651   6.981   4.100
    1   AR   Ar   61   6.371   6.365   5.989
    1   AR   Ar   62   0.081   6.270   5.236
    1   AR   Ar   63   1.206   5.349   5.803
    1   AR   Ar   64   1.036   6.720   5.039
    1   AR   Ar   65   2.410   0.154   0.412
    1   AR   Ar   66   2.105   0.809   1.194
    1   AR   Ar   67   3.717   5.992   0.251
    1   AR   Ar   68   3.757   1.084  -0.135
    1   AR   Ar   69   1.516   6.855   1.014
    1   AR   Ar   70   1.636   0.314   2.416
    1   AR   Ar   71   2.928   0.672   1.999
    1   AR   Ar   72   3.170   0.676   0.806
    1   AR   Ar   73   1.889   7.034   3.377
    1   AR   Ar   74   2.129   1.346   4.986
    1   AR   Ar   75   3.088   0.672   4.890
    1   AR   Ar   76   2.608   0.797   2.989
    1   AR   Ar   77   1.658   0.208   5.528
    1   AR   Ar   78   0.932   0.585   6.340
    1   AR   Ar   79   3.525   6.436   6.963
    1   AR   Ar   80   2.859   6.762   5.457
    1   AR   Ar   81   2.216   1.508   0.171
    1   AR   Ar   82   1.649   3.096   0.678
    1   AR   Ar   83   2.859   1.570   1.209
    1   AR   Ar   84   2.081   2.887  -1.496
    1   AR   Ar   85   1.807   2.039   1.050
    1   AR   Ar   86   1.888   2.493   2.535
    1   AR   Ar   87   2.084   1.396   2.137
    1   AR   Ar   88   3.177   3.638   1.432
    1   AR   Ar   89   0.932   1.875   1.775
    1   AR   Ar   90   2.983   2.062   4.907
    1   AR   Ar   91   2.409   2.240   4.123
    1   AR   Ar   92   1.987   1.592   3.191
    1   AR   Ar   93   1.499   1.665   5.985
    1   AR   Ar   94   2.663   1.475   8.464
    1   AR   Ar   95   2.862   0.032   6.443
    1   AR   Ar   96   2.146   2.238   7.065
    1   AR   Ar   97   2.657   3.959  -0.897
    1   AR   Ar   98   2.889   4.694   1.707
    1   AR   Ar   99   3.258   2.933  -1.456
    1   AR   Ar  100   2.266   4.688  -0.247
    1   AR   Ar  101   1.052   3.233   2.005
    1   AR   Ar  102   1.927   4.218   3.702
    1   AR   Ar  103   2.201   3.476   1.766
    1   AR   Ar  104   3.371   3.955   0.279
    1   AR   Ar  105   1.585   2.969   3.986
    1   AR   Ar  106   2.665   3.144   4.697
    1   AR   Ar  107   2.925   4.075   5.314
    1   AR   Ar  108   3.412   3.503   3.789
    1   AR   Ar  109   0.868   3.996   4.435
    1   AR   Ar  110   1.823   4.085   4.719
    1   AR   Ar  111   3.636   5.137   7.271
    1   AR   Ar  112   2.078   3.424   5.948
    1   AR   Ar  113   2.287   4.292   0.749
    1   AR   Ar  114   2.339   5.753   0.964
    1   AR   Ar  115   3.268   4.927   0.283
    1   AR   Ar  116   3.594   7.057   0.174
    1   AR   Ar  117   1.534   4.871   3.051
    1   AR   Ar  118   1.172   6.458   2.857
    1   AR   Ar  119   2.530   4.568   2.599
    1   AR   Ar  120   1.960   5.244   1.912
    1   AR   Ar  121   0.160   4.709   3.950
    1   AR   Ar  122   2.502   6.214   3.946
    1   AR   Ar  123   2.231   5.212   4.358
    1   AR   Ar  124   2.370   5.526   3.142
    1   AR   Ar  125   0.874   5.584   4.850
    1   AR   Ar  126   0.958   6.620   6.190
    1   AR   Ar  127   2.416   5.602   7.604
    1   AR   Ar  128   1.962   6.402   6.146
    1   AR   Ar  129   2.859   6.845   1.229
    1   AR   Ar  130   3.412   6.763  -0.831
    1   AR   Ar  131   4.749   6.157   0.260
    1   AR   Ar  132   5.792   2.248  -0.777
    1   AR   Ar  133   4.189   7.029   2.027
    1   AR   Ar  134   3.820   0.887   2.723
    1   AR   Ar  135   4.865   0.545   2.977
    1   AR   Ar  136   4.525   0.918   1.486
    1   AR   Ar  137   2.961   0.096   3.725
    1   AR   Ar  138   4.712   1.116   4.904
    1   AR   Ar  139   4.720   0.228   4.135
    1   AR   Ar  140   4.193   1.399   3.567
    1   AR   Ar  141   3.734   7.045   4.375
    1   AR   Ar  142   3.911   0.240   6.022
    1   AR   Ar  143   5.152   0.140   6.455
    1   AR   Ar  144   5.083   1.064   7.237
    1   AR   Ar  145   2.932   2.776   0.799
    1   AR   Ar  146   4.223   2.671   0.895
    1   AR   Ar  147   5.019   2.003   0.685
    1   AR   Ar  148   5.807   3.365  -1.485
    1   AR   Ar  149   3.925   1.584   0.904
    1   AR   Ar  150   3.028   1.834   2.444
    1   AR   Ar  151   3.451   2.291   3.689
    1   AR   Ar  152   3.052   2.731   2.101
    1   AR   Ar  153   3.308   1.094   3.850
    1   AR   Ar  154   4.088   1.910   4.653
    1   AR   Ar  155   5.493   1.141   5.687
    1   AR   Ar  156   4.567   3.160   3.743
    1   AR   Ar  157   3.723   1.902   5.621
    1   AR   Ar  158   3.388   2.164   6.783
    1   AR   Ar  159   4.610   0.968   6.205
    1   AR   Ar  160   4.366   3.013   5.650
    1   AR   Ar  161   4.571   2.823  -0.223
    1   AR   Ar  162   4.713   5.025   0.725
    1   AR   Ar  163   5.256   3.092   0.672
    1   AR   Ar  164   5.677   4.667   1.053
    1   AR   Ar  165   3.283   3.712   2.562
    1   AR   Ar  166   3.170   4.957   3.466
    1   AR   Ar  167   4.274   2.867   2.718
    1   AR   Ar  168   4.450   3.999   0.989
    1   AR   Ar  169   2.728   2.835   3.252
    1   AR   Ar  170   2.906   4.285   4.247
    1   AR   Ar  171   3.818   3.644   4.790
    1   AR   Ar  172   4.513   4.607   4.385
    1   AR   Ar  173   3.246   3.085   5.584
    1   AR   Ar  174   3.757   5.144   6.098
    1   AR   Ar  175   3.801   3.983   5.890
    1   AR   Ar  176   3.718   4.680   5.038
    1   AR   Ar  177   5.774   5.411   0.336
    1   AR   Ar  178   4.241   6.339   1.284
    1   AR   Ar  179   3.670   5.416   1.296
    1   AR   Ar  180   4.581   5.079  -0.473
    1   AR   Ar  181   2.945   5.769   1.980
    1   AR   Ar  182   2.124   6.517   1.868
    1   AR   Ar  183   3.728   4.609   2.465
    1   AR   Ar  184   4.105   5.685   2.268
    1   AR   Ar  185   1.183   6.059   3.773
    1   AR   Ar  186   3.637   5.373   4.250
    1   AR   Ar  187   4.559   5.537   3.363
    1   AR   Ar  188   3.605   6.122   3.336
    1   AR   Ar  189   2.379   5.353   5.628
    1   AR   Ar  190   4.790   6.240   6.063
    1   AR   Ar  191   4.644   5.821   5.288
    1   AR   Ar  192   3.379   5.845   5.113
    1   AR   Ar  193   5.586   7.119  -0.094
    1   AR   Ar  194   4.528   0.051  -0.243
    1   AR   Ar  195   6.094   0.940   0.838
    1   AR   Ar  196   6.108   1.187  -1.042
    1   AR   Ar  197   5.073   0.310   0.797
    1   AR   Ar  198   5.485   1.434   1.603
    1   AR   Ar  199   5.454   0.338   2.090
    1   AR   Ar  200   6.870   1.612   1.103
    1   AR   Ar  201   4.886   6.436   2.574
    1   AR   Ar  202   5.365   1.040   4.036
    1   AR   Ar  203   6.725   6.966   4.662
    1   AR   Ar  204   6.172   0.309   3.052
    1   AR   Ar  205   5.581   6.831   3.875
    1   AR   Ar  206   4.921   6.977   5.052
    1   AR   Ar  207   0.191   0.091   5.784
    1   AR   Ar  208   6.345   0.560   4.005
    1   AR   Ar  209   6.619   2.063  -1.342
    1   AR   Ar  210   4.975   2.688   1.739
    1   AR   Ar  211   6.062   2.210   0.754
    1   AR   Ar  212   6.798   3.732  -0.749
    1   AR   Ar  213   3.935   2.056   1.976
    1   AR   Ar  214   4.070   3.464   1.829
    1   AR   Ar  215   5.592   2.638   2.735
    1   AR   Ar  216   6.097   3.010   1.796
    1   AR   Ar  217   5.096   2.284   3.828
    1   AR   Ar  218   5.885   1.811   4.864
    1   AR   Ar  219   5.401   1.605   2.982
    1   AR   Ar  220   6.444   2.935   3.139
    1   AR   Ar  221   6.198   0.254   5.382
    1   AR   Ar  222   4.833   2.105   6.446
    1   AR   Ar  223   6.606   1.420   7.243
    1   AR   Ar  224   5.870   2.745   5.682
    1   AR   Ar  225   5.291   4.201  -0.085
    1   AR   Ar  226   4.700   4.310   2.163
    1   AR   Ar  227   6.886   4.196   1.691
    1   AR   Ar  228   6.817   4.868   0.847
    1   AR   Ar  229   6.400   3.625   0.800
    1   AR   Ar  230   4.145   3.934   3.309
    1   AR   Ar  231   0.014   2.368   3.622
    1   AR   Ar  232   5.315   3.816   1.552
    1   AR   Ar  233   6.289   3.104   4.539
    1   AR   Ar  234   5.743   4.166   5.059
    1   AR   Ar  235   7.043   3.715   4.512
    1   AR   Ar  236   5.550   3.640   3.679
    1   AR   Ar  237   5.217   3.155   4.840
    1   AR   Ar  238   4.679   4.550   5.413
    1   AR   Ar  239   6.140   3.927   7.545
    1   AR   Ar  240   6.628   4.043   5.744
    1   AR   Ar  241   6.773   0.499  -0.003
    1   AR   Ar  242   5.244   6.283   1.556
    1   AR   Ar  243   5.951   4.580   2.094
    1   AR   Ar  244   6.655   6.056  -0.307
    1   AR   Ar  245   5.138   5.465   2.146
    1   AR   Ar  246   6.068   6.271   2.366
    1   AR   Ar  247   5.581   3.780   2.668
    1   AR   Ar  248   6.193   6.945   1.281
    1   AR   Ar  249   5.321   4.667   3.146
    1   AR   Ar  250   4.451   6.217   4.236
    1   AR   Ar  251   5.234   5.378   4.416
    1   AR   Ar  252   5.588   5.847   3.475
    1   AR   Ar  253   5.581   5.333   5.525
    1   AR   Ar  254   5.523   5.633   6.801
    1   AR   Ar  255   5.383   4.492   6.630
    1   AR   Ar  256   6.262   5.905   4.880
    7.12000  7.12000 12.00000
Argon-slab step 985
  256
    1   AR   Ar    1   0.471   0.419  -0.642
    1   AR   Ar    2   7.026   0.515   1.059
    1   AR   Ar    3   0.304   6.814   0.317
    1   AR   Ar    4   1.301   0.678   0.136
    1   AR   Ar    5   0.004   5.876   1.114
    1   AR   Ar    6   0.202   0.314   3.048
    1   AR   Ar    7   0.033   6.305   2.213
    1   AR   Ar    8   0.600   0.068   1.734
    1   AR   Ar    9   0.406   0.878   4.227
    1   AR   Ar   10   6.727   1.544   4.280
    1   AR   Ar   11   2.172   7.075   4.544
    1   AR   Ar   12   1.301   0.781   3.508
    1   AR   Ar   13   6.882   1.124   5.182
    1   AR   Ar   14   0.373   1.409   6.090
    1   AR   Ar   15   0.311   6.011   8.666
    1   AR   Ar   16   0.834   0.650   5.194
    1   AR   Ar   17   6.998   1.641   0.061
    1   AR   Ar   18   7.078   2.966   0.131
    1   AR   Ar   19   0.778   1.378   0.837
    1   AR   Ar   20   0.300   3.101  -1.559
    1   AR   Ar   21   6.708   0.210   2.113
    1   AR   Ar   22   6.575   2.033   2.493
    1   AR   Ar   23   0.125   1.215   1.992
    1   AR   Ar   24   7.010   2.762   1.568
    1   AR   Ar   25   0.128   1.484   3.239
    1   AR   Ar   26   6.192   2.000   3.549
    1   AR   Ar   27   1.058   1.843   4.648
    1   AR   Ar   28   0.479   2.809   4.503
    1   AR   Ar   29   6.435   1.641   6.030
    1   AR   Ar   30   6.365   2.873   6.649
    1   AR   Ar   31   0.900   1.386   7.058
    1   AR   Ar   32   1.617   2.676   5.136
    1   AR   Ar   33   1.289   3.855  -1.431
    1   AR   Ar   34   0.662   5.088   1.217
    1   AR   Ar   35   0.534   3.721   0.863
    1   AR   Ar   36   1.460   6.425  -1.759
    1   AR   Ar   37   0.089   3.445   2.405
    1   AR   Ar   38   0.662   4.846   2.250
    1   AR   Ar   39   1.163   3.710   2.934
    1   AR   Ar   40   1.329   4.313   1.602
    1   AR   Ar   41   0.783   2.525   2.763
    1   AR   Ar   42   6.680   4.974   5.273
    1   AR   Ar   43   6.743   2.493   5.251
    1   AR   Ar   44   0.332   3.630   3.568
    1   AR   Ar   45   0.519   3.650   5.918
    1   AR   Ar   46   6.426   4.896   6.313
    1   AR   Ar   47   6.870   4.070   6.870
    1   AR   Ar   48   0.187   5.913   6.339
    1   AR   Ar   49   0.646   5.110  -0.970
    1   AR   Ar   50   6.097   5.433   1.582
    1   AR   Ar   51   1.324   4.736  -0.055
    1   AR   Ar   52   0.459   5.373   0.054
    1   AR   Ar   53   6.560   5.358   2.588
    1   AR   Ar   54   6.696   6.302   3.285
    1   AR   Ar   55   0.320   5.381   3.138
    1   AR   Ar   56   1.213   6.173   1.761
    1   AR   Ar   57   7.091   4.452   2.961
    1   AR   Ar   58   0.101   5.902   4.132
    1   AR   Ar   59   2.098   6.104   5.096
    1   AR   Ar   60   0.672   6.971   4.050
    1   AR   Ar   61   6.367   6.398   5.980
    1   AR   Ar   62   0.128   6.256   5.247
    1   AR   Ar   63   1.234   5.331   5.809
    1   AR   Ar   64   1.025   6.721   5.016
    1   AR   Ar   65   2.415   0.182   0.423
    1   AR   Ar   66   2.136   0.829   1.203
    1   AR   Ar   67   3.699   5.982   0.285
    1   AR   Ar   68   3.739   1.091  -0.131
    1   AR   Ar   69   1.528   6.825   0.970
    1   AR   Ar   70   1.626   0.327   2.410
    1   AR   Ar   71   2.990   0.678   1.981
    1   AR   Ar   72   3.233   0.690   0.797
    1   AR   Ar   73   1.895   7.062   3.359
    1   AR   Ar   74   2.144   1.351   5.025
    1   AR   Ar   75   3.097   0.677   4.883
    1   AR   Ar   76   2.611   0.798   2.978
    1   AR   Ar   77   1.700   0.211   5.534
    1   AR   Ar   78   0.942   0.599   6.334
    1   AR   Ar   79   3.537   6.434   6.968
    1   AR   Ar   80   2.870   6.728   5.416
    1   AR   Ar   81   2.235   1.514   0.149
    1   AR   Ar   82   1.637   3.121   0.692
    1   AR   Ar   83   2.893   1.568   1.189
    1   AR   Ar   84   2.082   2.891  -1.486
    1   AR   Ar   85   1.803   2.031   1.021
    1   AR   Ar   86   1.873   2.510   2.540
    1   AR   Ar   87   2.046   1.434   2.116
    1   AR   Ar   88   3.134   3.640   1.415
    1   AR   Ar   89   0.932   1.917   1.774
    1   AR   Ar   90   2.970   2.055   4.893
    1   AR   Ar   91   2.367   2.261   4.105
    1   AR   Ar   92   1.986   1.584   3.198
    1   AR   Ar   93   1.497   1.653   5.959
    1   AR   Ar   94   2.659   1.456   8.477
    1   AR   Ar   95   2.871   0.017   6.455
    1   AR   Ar   96   2.141   2.249   7.097
    1   AR   Ar   97   2.656   3.933  -0.872
    1   AR   Ar   98   2.884   4.653   1.706
    1   AR   Ar   99   3.231   2.924  -1.455
    1   AR   Ar  100   2.244   4.685  -0.229
    1   AR   Ar  101   1.039   3.240   1.994
    1   AR   Ar  102   1.926   4.214   3.699
    1   AR   Ar  103   2.194   3.484   1.745
    1   AR   Ar  104   3.362   3.966   0.291
    1   AR   Ar  105   1.624   2.949   3.976
    1   AR   Ar  106   2.648   3.137   4.676
    1   AR   Ar  107   2.895   4.044   5.350
    1   AR   Ar  108   3.412   3.504   3.802
    1   AR   Ar  109   0.887   3.990   4.406
    1   AR   Ar  110   1.815   4.111   4.729
    1   AR   Ar  111   3.627   5.125   7.242
    1   AR   Ar  112   2.046   3.441   5.937
    1   AR   Ar  113   2.313   4.308   0.765
    1   AR   Ar  114   2.331   5.715   0.967
    1   AR   Ar  115   3.290   4.918   0.283
    1   AR   Ar  116   3.606   7.059   0.137
    1   AR   Ar  117   1.531   4.861   3.075
    1   AR   Ar  118   1.165   6.462   2.828
    1   AR   Ar  119   2.511   4.569   2.563
    1   AR   Ar  120   1.909   5.217   1.880
    1   AR   Ar  121   0.160   4.734   3.927
    1   AR   Ar  122   2.499   6.204   3.922
    1   AR   Ar  123   2.231   5.218   4.353
    1   AR   Ar  124   2.375   5.557   3.162
    1   AR   Ar  125   0.871   5.606   4.863
    1   AR   Ar  126   0.994   6.634   6.213
    1   AR   Ar  127   2.403   5.610   7.587
    1   AR   Ar  128   1.960   6.436   6.134
    1   AR   Ar  129   2.867   6.870   1.256
    1   AR   Ar  130   3.401   6.758  -0.802
    1   AR   Ar  131   4.737   6.149   0.288
    1   AR   Ar  132   5.802   2.253  -0.775
    1   AR   Ar  133   4.185   7.048   1.996
    1   AR   Ar  134   3.839   0.905   2.695
    1   AR   Ar  135   4.880   0.548   3.003
    1   AR   Ar  136   4.535   0.950   1.478
    1   AR   Ar  137   2.959   0.090   3.709
    1   AR   Ar  138   4.688   1.128   4.907
    1   AR   Ar  139   4.724   0.242   4.119
    1   AR   Ar  140   4.198   1.423   3.574
    1   AR   Ar  141   3.723   7.044   4.390
    1   AR   Ar  142   3.921   0.272   6.010
    1   AR   Ar  143   5.150   0.136   6.445
    1   AR   Ar  144   5.089   1.037   7.257
    1   AR   Ar  145   2.928   2.822   0.808
    1   AR   Ar  146   4.203   2.671   0.917
    1   AR   Ar  147   5.053   1.985   0.662
    1   AR   Ar  148   5.797   3.365  -1.507
    1   AR   Ar  149   3.920   1.569   0.889
    1   AR   Ar  150   3.047   1.847   2.421
    1   AR   Ar  151   3.417   2.267   3.672
    1   AR   Ar  152   3.021   2.734   2.110
    1   AR   Ar  153   3.301   1.070   3.871
    1   AR   Ar  154   4.108   1.916   4.641
    1   AR   Ar  155   5.498   1.153   5.689
    1   AR   Ar  156   4.547   3.143   3.711
    1   AR   Ar  157   3.706   1.903   5.616
    1   AR   Ar  158   3.375   2.175   6.783
    1   AR   Ar  159   4.627   0.964   6.224
    1   AR   Ar  160   4.346   3.001   5.677
    1   AR   Ar  161   4.550   2.835  -0.268
    1   AR   Ar  162   4.690   5.005   0.736
    1   AR   Ar  163   5.246   3.034   0.684
    1   AR   Ar  164   5.689   4.659   1.073
    1   AR   Ar  165   3.284   3.740   2.580
    1   AR   Ar  166   3.131   4.953   3.445
    1   AR   Ar  167   4.273   2.859   2.714
    1   AR   Ar  168   4.436   3.972   0.974
    1   AR   Ar  169   2.738   2.803   3.254
    1   AR   Ar  170   2.940   4.254   4.273
    1   AR   Ar  171   3.792   3.630   4.774
    1   AR   Ar  172   4.512   4.598   4.331
    1   AR   Ar  173   3.263   3.058   5.571
    1   AR   Ar  174   3.727   5.129   6.086
    1   AR   Ar  175   3.823   3.979   5.895
    1   AR   Ar  176   3.719   4.683   5.026
    1   AR   Ar  177   5.770   5.416   0.308
    1   AR   Ar  178   4.216   6.320   1.294
    1   AR   Ar  179   3.643   5.407   1.279
    1   AR   Ar  180   4.570   5.078  -0.467
    1   AR   Ar  181   2.953   5.765   1.997
    1   AR   Ar  182   2.107   6.525   1.902
    1   AR   Ar  183   3.727   4.618   2.462
    1   AR   Ar  184   4.107   5.661   2.262
    1   AR   Ar  185   1.174   6.067   3.786
    1   AR   Ar  186   3.641   5.377   4.255
    1   AR   Ar  187   4.534   5.557   3.377
    1   AR   Ar  188   3.619   6.117   3.308
    1   AR   Ar  189   2.349   5.312   5.630
    1   AR   Ar  190   4.790   6.230   6.099
    1   AR   Ar  191   4.655   5.843   5.289
    1   AR   Ar  192   3.409   5.840   5.099
    1   AR   Ar  193   5.579   7.115  -0.077
    1   AR   Ar  194   4.564   0.053  -0.267
    1   AR   Ar  195   6.070   0.945   0.839
    1   AR   Ar  196   6.095   1.192  -1.048
    1   AR   Ar  197   5.089   0.295   0.797
    1   AR   Ar  198   5.477   1.434   1.579
    1   AR   Ar  199   5.451   0.346   2.094
    1   AR   Ar  200   6.863   1.619   1.123
    1   AR   Ar  201   4.883   6.421   2.575
    1   AR   Ar  202   5.358   1.033   4.044
    1   AR   Ar  203   6.744   6.945   4.646
    1   AR   Ar  204   6.149   0.294   3.055
    1   AR   Ar  205   5.600   6.840   3.900
    1   AR   Ar  206   4.932   6.986   5.049
    1   AR   Ar  207   0.181   0.103   5.774
    1   AR   Ar  208   6.341   0.589   4.006
    1   AR   Ar  209   6.619   2.087  -1.342
    1   AR   Ar  210   4.971   2.703   1.722
    1   AR   Ar  211   6.072   2.222   0.772
    1   AR   Ar  212   6.787   3.735  -0.761
    1   AR   Ar  213   3.927   2.063   1.965
    1   AR   Ar  214   4.049   3.445   1.821
    1   AR   Ar  215   5.603   2.620   2.731
    1   AR   Ar  216   6.111   2.986   1.779
    1   AR   Ar  217   5.071   2.291   3.838
    1   AR   Ar  218   5.872   1.814   4.868
    1   AR   Ar  219   5.382   1.605   2.984
    1   AR   Ar  220   6.433   2.934   3.135
    1   AR   Ar  221   6.188   0.214   5.415
    1   AR   Ar  222   4.822   2.101   6.434
    1   AR   Ar  223   6.598   1.402   7.218
    1   AR   Ar  224   5.876   2.771   5.694
    1   AR   Ar  225   5.294   4.196  -0.081
    1   AR   Ar  226   4.725   4.318   2.195
    1   AR   Ar  227   6.868   4.228   1.669
    1   AR   Ar  228   6.808   4.856   0.853
    1   AR   Ar  229   6.385   3.637   0.805
    1   AR   Ar  230   4.139   3.953   3.295
    1   AR   Ar  231   0.001   2.340   3.616
    1   AR   Ar  232   5.301   3.785   1.580
    1   AR   Ar  233   6.284   3.096   4.540
    1   AR   Ar  234   5.739   4.160   5.046
    1   AR   Ar  235   7.056   3.714   4.548
    1   AR   Ar  236   5.526   3.631   3.713
    1   AR   Ar  237   5.206   3.159   4.878
    1   AR   Ar  238   4.714   4.520   5.408
    1   AR   Ar  239   6.159   3.915   7.566
    1   AR   Ar  240   6.616   4.081   5.766
    1   AR   Ar  241   6.799   0.512  -0.012
    1   AR   Ar  242   5.237   6.244   1.581
    1   AR   Ar  243   5.961   4.564   2.097
    1   AR   Ar  244   6.643   6.096  -0.325
    1   AR   Ar  245   5.142   5.455   2.134
    1   AR   Ar  246   6.043   6.255   2.374
    1   AR   Ar  247   5.576   3.781   2.651
    1   AR   Ar  248   6.168   6.930   1.283
    1   AR   Ar  249   5.334   4.702   3.143
    1   AR   Ar  250   4.396   6.196   4.259
    1   AR   Ar  251   5.196   5.350   4.403
    1   AR   Ar  252   5.572   5.824   3.493
    1   AR   Ar  253   5.581   5.315   5.523
    1   AR   Ar  254   5.525   5.621   6.844
    1   AR   Ar  255   5.374   4.493   6.645
    1   AR   Ar  256   6.291   5.923   4.880
    7.12000  7.12000 12.00000
Argon-slab step 990
  256
    1   AR   Ar    1   0.495   0.408  -0.656
    1   AR   Ar    2   7.021   0.538   1.061
    1   AR   Ar    3   0.301   6.837   0.331
    1   AR   Ar    4   1.292   0.681   0.109
    1   AR   Ar    5   7.083   5.898   1.121
    1   AR   Ar    6   0.206   0.351   3.032
    1   AR   Ar    7   0.037   6.304   2.197
    1   AR   Ar    8   0.585   0.085   1.759
    1   AR   Ar    9   0.389   0.887   4.222
    1   AR   Ar   10   6.725   1.561   4.274
    1   AR   Ar   11   2.171   7.057   4.532
    1   AR   Ar   12   1.309   0.759   3.486
    1   AR   Ar   13   6.896   1.128   5.173
    1   AR   Ar   14   0.362   1.427   6.070
    1   AR   Ar   15   0.285   6.001   8.716
    1   AR   Ar   16   0.829   0.663   5.170
    1   AR   Ar   17   6.994   1.690   0.043
    1   AR   Ar   18   7.083   2.955   0.123
    1   AR   Ar   19   0.751   1.373   0.819
    1   AR   Ar   20   0.271   3.119  -1.563
    1   AR   Ar   21   6.743   0.220   2.104
    1   AR   Ar   22   6.570   2.037   2.443
    1   AR   Ar   23   0.125   1.222   1.982
    1   AR   Ar   24   7.048   2.751   1.527
    1   AR   Ar   25   0.129   1.456   3.211
    1   AR   Ar   26   6.181   2.033   3.551
    1   AR   Ar   27   1.079   1.803   4.606
    1   AR   Ar   28   0.490   2.823   4.485
    1   AR   Ar   29   6.416   1.643   6.059
    1   AR   Ar   30   6.403   2.896   6.660
    1   AR   Ar   31   0.895   1.400   7.058
    1   AR   Ar   32   1.611   2.674   5.130
    1   AR   Ar   33   1.302   3.864  -1.457
    1   AR   Ar   34   0.690   5.112   1.222
    1   AR   Ar   35   0.537   3.720   0.896
    1   AR   Ar   36   1.497   6.430  -1.756
    1   AR   Ar   37   0.072   3.450   2.398
    1   AR   Ar   38   0.642   4.861   2.247
    1   AR   Ar   39   1.158   3.673   2.937
    1   AR   Ar   40   1.316   4.339   1.615
    1   AR   Ar   41   0.764   2.528   2.777
    1   AR   Ar   42   6.666   4.977   5.308
    1   AR   Ar   43   6.744   2.517   5.261
    1   AR   Ar   44   0.327   3.652   3.599
    1   AR   Ar   45   0.520   3.661   5.934
    1   AR   Ar   46   6.471   4.902   6.307
    1   AR   Ar   47   6.852   4.094   6.846
    1   AR   Ar   48   0.153   5.916   6.343
    1   AR   Ar   49   0.635   5.101  -0.972
    1   AR   Ar   50   6.093   5.434   1.587
    1   AR   Ar   51   1.293   4.725  -0.064
    1   AR   Ar   52   0.470   5.390   0.044
    1   AR   Ar   53   6.571   5.365   2.594
    1   AR   Ar   54   6.722   6.272   3.314
    1   AR   Ar   55   0.335   5.424   3.101
    1   AR   Ar   56   1.211   6.166   1.756
    1   AR   Ar   57   7.093   4.448   2.964
    1   AR   Ar   58   0.107   5.902   4.119
    1   AR   Ar   59   2.130   6.104   5.097
    1   AR   Ar   60   0.690   6.962   3.998
    1   AR   Ar   61   6.363   6.430   5.969
    1   AR   Ar   62   0.124   6.257   5.268
    1   AR   Ar   63   1.249   5.320   5.815
    1   AR   Ar   64   1.017   6.720   4.992
    1   AR   Ar   65   2.416   0.209   0.426
    1   AR   Ar   66   2.165   0.847   1.213
    1   AR   Ar   67   3.711   6.002   0.309
    1   AR   Ar   68   3.738   1.089  -0.144
    1   AR   Ar   69   1.541   6.798   0.925
    1   AR   Ar   70   1.616   0.340   2.401
    1   AR   Ar   71   3.052   0.685   1.959
    1   AR   Ar   72   3.300   0.702   0.790
    1   AR   Ar   73   1.891   7.057   3.344
    1   AR   Ar   74   2.157   1.355   5.063
    1   AR   Ar   75   3.103   0.682   4.877
    1   AR   Ar   76   2.616   0.797   2.966
    1   AR   Ar   77   1.750   0.213   5.543
    1   AR   Ar   78   0.958   0.609   6.328
    1   AR   Ar   79   3.553   6.430   6.974
    1   AR   Ar   80   2.883   6.699   5.376
    1   AR   Ar   81   2.217   1.532   0.152
    1   AR   Ar   82   1.624   3.146   0.708
    1   AR   Ar   83   2.924   1.575   1.173
    1   AR   Ar   84   2.083   2.896  -1.475
    1   AR   Ar   85   1.794   2.032   1.020
    1   AR   Ar   86   1.860   2.528   2.543
    1   AR   Ar   87   2.009   1.472   2.095
    1   AR   Ar   88   3.094   3.648   1.395
    1   AR   Ar   89   0.934   1.962   1.775
    1   AR   Ar   90   2.959   2.048   4.882
    1   AR   Ar   91   2.324   2.276   4.083
    1   AR   Ar   92   1.982   1.583   3.207
    1   AR   Ar   93   1.495   1.640   5.932
    1   AR   Ar   94   2.654   1.437   8.490
    1   AR   Ar   95   2.879   0.003   6.465
    1   AR   Ar   96   2.134   2.254   7.116
    1   AR   Ar   97   2.656   3.905  -0.848
    1   AR   Ar   98   2.889   4.615   1.681
    1   AR   Ar   99   3.204   2.916  -1.453
    1   AR   Ar  100   2.249   4.683  -0.215
    1   AR   Ar  101   1.036   3.237   1.976
    1   AR   Ar  102   1.931   4.201   3.700
    1   AR   Ar  103   2.179   3.490   1.727
    1   AR   Ar  104   3.354   3.957   0.306
    1   AR   Ar  105   1.656   2.936   3.965
    1   AR   Ar  106   2.618   3.117   4.668
    1   AR   Ar  107   2.862   4.014   5.386
    1   AR   Ar  108   3.402   3.506   3.812
    1   AR   Ar  109   0.907   3.984   4.373
    1   AR   Ar  110   1.821   4.138   4.746
    1   AR   Ar  111   3.618   5.115   7.211
    1   AR   Ar  112   2.015   3.457   5.923
    1   AR   Ar  113   2.339   4.323   0.784
    1   AR   Ar  114   2.324   5.678   0.972
    1   AR   Ar  115   3.309   4.930   0.285
    1   AR   Ar  116   3.617   7.064   0.109
    1   AR   Ar  117   1.541   4.836   3.073
    1   AR   Ar  118   1.156   6.468   2.794
    1   AR   Ar  119   2.491   4.566   2.548
    1   AR   Ar  120   1.858   5.192   1.849
    1   AR   Ar  121   0.160   4.757   3.915
    1   AR   Ar  122   2.498   6.200   3.905
    1   AR   Ar  123   2.232   5.223   4.347
    1   AR   Ar  124   2.373   5.588   3.172
    1   AR   Ar  125   0.869   5.627   4.872
    1   AR   Ar  126   1.021   6.651   6.234
    1   AR   Ar  127   2.411   5.586   7.569
    1   AR   Ar  128   1.969   6.467   6.122
    1   AR   Ar  129   2.880   6.894   1.284
    1   AR   Ar  130   3.388   6.782  -0.790
    1   AR   Ar  131   4.729   6.142   0.317
    1   AR   Ar  132   5.804   2.260  -0.767
    1   AR   Ar  133   4.182   7.074   1.970
    1   AR   Ar  134   3.865   0.906   2.696
    1   AR   Ar  135   4.895   0.551   3.031
    1   AR   Ar  136   4.536   0.953   1.487
    1   AR   Ar  137   2.953   0.080   3.692
    1   AR   Ar  138   4.668   1.134   4.912
    1   AR   Ar  139   4.720   0.256   4.098
    1   AR   Ar  140   4.172   1.444   3.588
    1   AR   Ar  141   3.714   7.041   4.407
    1   AR   Ar  142   3.927   0.298   5.996
    1   AR   Ar  143   5.152   0.132   6.444
    1   AR   Ar  144   5.095   1.010   7.275
    1   AR   Ar  145   2.923   2.865   0.816
    1   AR   Ar  146   4.181   2.673   0.940
    1   AR   Ar  147   5.083   1.963   0.641
    1   AR   Ar  148   5.787   3.364  -1.527
    1   AR   Ar  149   3.939   1.567   0.912
    1   AR   Ar  150   3.044   1.857   2.439
    1   AR   Ar  151   3.397   2.232   3.665
    1   AR   Ar  152   2.999   2.765   2.115
    1   AR   Ar  153   3.288   1.048   3.894
    1   AR   Ar  154   4.125   1.928   4.622
    1   AR   Ar  155   5.507   1.165   5.690
    1   AR   Ar  156   4.526   3.126   3.686
    1   AR   Ar  157   3.692   1.904   5.618
    1   AR   Ar  158   3.362   2.187   6.781
    1   AR   Ar  159   4.641   0.973   6.244
    1   AR   Ar  160   4.340   3.005   5.678
    1   AR   Ar  161   4.530   2.848  -0.310
    1   AR   Ar  162   4.666   4.988   0.747
    1   AR   Ar  163   5.238   2.981   0.696
    1   AR   Ar  164   5.698   4.644   1.087
    1   AR   Ar  165   3.280   3.758   2.600
    1   AR   Ar  166   3.097   4.942   3.423
    1   AR   Ar  167   4.276   2.870   2.695
    1   AR   Ar  168   4.420   3.945   0.956
    1   AR   Ar  169   2.735   2.783   3.244
    1   AR   Ar  170   2.969   4.231   4.304
    1   AR   Ar  171   3.796   3.589   4.761
    1   AR   Ar  172   4.492   4.590   4.341
    1   AR   Ar  173   3.279   3.029   5.558
    1   AR   Ar  174   3.697   5.113   6.073
    1   AR   Ar  175   3.848   3.976   5.900
    1   AR   Ar  176   3.716   4.686   5.018
    1   AR   Ar  177   5.765   5.423   0.280
    1   AR   Ar  178   4.189   6.297   1.299
    1   AR   Ar  179   3.617   5.395   1.259
    1   AR   Ar  180   4.553   5.076  -0.467
    1   AR   Ar  181   2.959   5.761   2.016
    1   AR   Ar  182   2.102   6.537   1.941
    1   AR   Ar  183   3.728   4.637   2.457
    1   AR   Ar  184   4.108   5.639   2.257
    1   AR   Ar  185   1.168   6.071   3.804
    1   AR   Ar  186   3.648   5.379   4.249
    1   AR   Ar  187   4.509   5.575   3.390
    1   AR   Ar  188   3.630   6.111   3.282
    1   AR   Ar  189   2.323   5.262   5.637
    1   AR   Ar  190   4.798   6.241   6.175
    1   AR   Ar  191   4.660   5.848   5.253
    1   AR   Ar  192   3.438   5.839   5.094
    1   AR   Ar  193   5.579   7.110  -0.061
    1   AR   Ar  194   4.597   0.055  -0.291
    1   AR   Ar  195   6.044   0.948   0.837
    1   AR   Ar  196   6.083   1.196  -1.053
    1   AR   Ar  197   5.104   0.280   0.801
    1   AR   Ar  198   5.470   1.436   1.556
    1   AR   Ar  199   5.449   0.353   2.097
    1   AR   Ar  200   6.858   1.628   1.142
    1   AR   Ar  201   4.881   6.407   2.581
    1   AR   Ar  202   5.354   1.034   4.048
    1   AR   Ar  203   6.766   6.923   4.624
    1   AR   Ar  204   6.124   0.276   3.051
    1   AR   Ar  205   5.622   6.848   3.925
    1   AR   Ar  206   4.943   6.992   5.052
    1   AR   Ar  207   0.166   0.113   5.764
    1   AR   Ar  208   6.340   0.619   4.013
    1   AR   Ar  209   6.627   2.112  -1.347
    1   AR   Ar  210   4.968   2.718   1.707
    1   AR   Ar  211   6.083   2.237   0.791
    1   AR   Ar  212   6.776   3.736  -0.774
    1   AR   Ar  213   3.925   2.072   1.951
    1   AR   Ar  214   4.033   3.423   1.816
    1   AR   Ar  215   5.625   2.644   2.702
    1   AR   Ar  216   6.104   2.969   1.766
    1   AR   Ar  217   5.051   2.291   3.850
    1   AR   Ar  218   5.834   1.818   4.871
    1   AR   Ar  219   5.360   1.602   2.986
    1   AR   Ar  220   6.445   2.942   3.142
    1   AR   Ar  221   6.174   0.178   5.452
    1   AR   Ar  222   4.810   2.096   6.419
    1   AR   Ar  223   6.590   1.385   7.191
    1   AR   Ar  224   5.874   2.799   5.707
    1   AR   Ar  225   5.312   4.195  -0.050
    1   AR   Ar  226   4.756   4.316   2.214
    1   AR   Ar  227   6.854   4.257   1.651
    1   AR   Ar  228   6.795   4.846   0.855
    1   AR   Ar  229   6.371   3.649   0.812
    1   AR   Ar  230   4.138   3.985   3.271
    1   AR   Ar  231   7.118   2.336   3.622
    1   AR   Ar  232   5.294   3.746   1.603
    1   AR   Ar  233   6.267   3.082   4.538
    1   AR   Ar  234   5.736   4.154   5.034
    1   AR   Ar  235   7.065   3.721   4.589
    1   AR   Ar  236   5.503   3.621   3.750
    1   AR   Ar  237   5.195   3.162   4.914
    1   AR   Ar  238   4.750   4.491   5.405
    1   AR   Ar  239   6.176   3.900   7.594
    1   AR   Ar  240   6.604   4.105   5.784
    1   AR   Ar  241   6.818   0.527  -0.018
    1   AR   Ar  242   5.222   6.192   1.605
    1   AR   Ar  243   5.968   4.547   2.104
    1   AR   Ar  244   6.632   6.137  -0.341
    1   AR   Ar  245   5.147   5.427   2.132
    1   AR   Ar  246   6.014   6.244   2.380
    1   AR   Ar  247   5.571   3.774   2.634
    1   AR   Ar  248   6.140   6.914   1.283
    1   AR   Ar  249   5.346   4.739   3.140
    1   AR   Ar  250   4.343   6.177   4.282
    1   AR   Ar  251   5.161   5.328   4.391
    1   AR   Ar  252   5.559   5.800   3.508
    1   AR   Ar  253   5.562   5.322   5.537
    1   AR   Ar  254   5.527   5.608   6.883
    1   AR   Ar  255   5.367   4.494   6.660
    1   AR   Ar  256   6.317   5.942   4.880
    7.12000  7.12000 12.00000
Argon-slab step 995
  256
    1   AR   Ar    1   0.523   0.395  -0.673
    1   AR   Ar    2   7.016   0.560   1.062
    1   AR   Ar    3   0.295   6.842   0.324
    1   AR   Ar    4   1.283   0.683   0.085
    1   AR   Ar    5   7.032   5.931   1.123
    1   AR   Ar    6   0.229   0.366   3.030
    1   AR   Ar    7   0.041   6.302   2.182
    1   AR   Ar    8   0.579   0.091   1.751
    1   AR   Ar    9   0.374   0.894   4.215
    1   AR   Ar   10   6.724   1.584   4.266
    1   AR   Ar   11   2.170   7.040   4.520
    1   AR   Ar   12   1.310   0.740   3.465
    1   AR   Ar   13   6.911   1.128   5.170
    1   AR   Ar   14   0.351   1.448   6.049
    1   AR   Ar   15   0.259   5.991   8.765
    1   AR   Ar   16   0.826   0.681   5.147
    1   AR   Ar   17   6.989   1.739   0.026
    1   AR   Ar   18   7.086   2.938   0.119
    1   AR   Ar   19   0.724   1.367   0.801
    1   AR   Ar   20   0.242   3.136  -1.567
    1   AR   Ar   21   6.772   0.230   2.096
    1   AR   Ar   22   6.565   2.042   2.393
    1   AR   Ar   23   0.105   1.208   1.961
    1   AR   Ar   24   7.096   2.737   1.484
    1   AR   Ar   25   0.132   1.415   3.176
    1   AR   Ar   26   6.155   2.061   3.550
    1   AR   Ar   27   1.101   1.761   4.563
    1   AR   Ar   28   0.503   2.834   4.466
    1   AR   Ar   29   6.396   1.648   6.088
    1   AR   Ar   30   6.442   2.920   6.672
    1   AR   Ar   31   0.891   1.416   7.057
    1   AR   Ar   32   1.606   2.671   5.121
    1   AR   Ar   33   1.314   3.873  -1.482
    1   AR   Ar   34   0.718   5.138   1.224
    1   AR   Ar   35   0.539   3.719   0.931
    1   AR   Ar   36   1.534   6.435  -1.752
    1   AR   Ar   37   0.053   3.455   2.393
    1   AR   Ar   38   0.622   4.875   2.245
    1   AR   Ar   39   1.156   3.638   2.941
    1   AR   Ar   40   1.306   4.351   1.620
    1   AR   Ar   41   0.749   2.520   2.787
    1   AR   Ar   42   6.654   4.989   5.332
    1   AR   Ar   43   6.753   2.536   5.270
    1   AR   Ar   44   0.318   3.669   3.624
    1   AR   Ar   45   0.519   3.672   5.949
    1   AR   Ar   46   6.509   4.927   6.314
    1   AR   Ar   47   6.838   4.114   6.820
    1   AR   Ar   48   0.119   5.919   6.345
    1   AR   Ar   49   0.624   5.091  -0.975
    1   AR   Ar   50   6.094   5.445   1.592
    1   AR   Ar   51   1.289   4.736  -0.070
    1   AR   Ar   52   0.478   5.409   0.039
    1   AR   Ar   53   6.578   5.370   2.597
    1   AR   Ar   54   6.744   6.245   3.336
    1   AR   Ar   55   0.358   5.474   3.066
    1   AR   Ar   56   1.196   6.152   1.749
    1   AR   Ar   57   7.090   4.437   2.961
    1   AR   Ar   58   0.114   5.901   4.113
    1   AR   Ar   59   2.141   6.110   5.093
    1   AR   Ar   60   0.705   6.957   3.944
    1   AR   Ar   61   6.360   6.456   5.960
    1   AR   Ar   62   0.119   6.256   5.294
    1   AR   Ar   63   1.214   5.327   5.806
    1   AR   Ar   64   1.012   6.718   4.970
    1   AR   Ar   65   2.418   0.231   0.420
    1   AR   Ar   66   2.190   0.865   1.226
    1   AR   Ar   67   3.719   6.019   0.334
    1   AR   Ar   68   3.751   1.080  -0.169
    1   AR   Ar   69   1.554   6.773   0.880
    1   AR   Ar   70   1.604   0.355   2.389
    1   AR   Ar   71   3.113   0.693   1.935
    1   AR   Ar   72   3.369   0.711   0.785
    1   AR   Ar   73   1.881   7.076   3.342
    1   AR   Ar   74   2.168   1.358   5.101
    1   AR   Ar   75   3.108   0.686   4.874
    1   AR   Ar   76   2.622   0.795   2.951
    1   AR   Ar   77   1.801   0.217   5.552
    1   AR   Ar   78   0.981   0.617   6.316
    1   AR   Ar   79   3.570   6.425   6.980
    1   AR   Ar   80   2.901   6.679   5.338
    1   AR   Ar   81   2.200   1.547   0.155
    1   AR   Ar   82   1.613   3.173   0.727
    1   AR   Ar   83   2.951   1.590   1.162
    1   AR   Ar   84   2.084   2.903  -1.463
    1   AR   Ar   85   1.784   2.034   1.028
    1   AR   Ar   86   1.847   2.546   2.545
    1   AR   Ar   87   1.972   1.510   2.074
    1   AR   Ar   88   3.066   3.663   1.375
    1   AR   Ar   89   0.936   2.008   1.776
    1   AR   Ar   90   2.952   2.042   4.870
    1   AR   Ar   91   2.294   2.271   4.062
    1   AR   Ar   92   1.978   1.586   3.217
    1   AR   Ar   93   1.492   1.626   5.905
    1   AR   Ar   94   2.650   1.418   8.503
    1   AR   Ar   95   2.887   7.108   6.472
    1   AR   Ar   96   2.096   2.249   7.088
    1   AR   Ar   97   2.656   3.875  -0.825
    1   AR   Ar   98   2.903   4.586   1.639
    1   AR   Ar   99   3.176   2.908  -1.450
    1   AR   Ar  100   2.272   4.681  -0.205
    1   AR   Ar  101   1.040   3.226   1.953
    1   AR   Ar  102   1.943   4.179   3.707
    1   AR   Ar  103   2.153   3.495   1.713
    1   AR   Ar  104   3.346   3.932   0.323
    1   AR   Ar  105   1.671   2.942   3.951
    1   AR   Ar  106   2.589   3.101   4.659
    1   AR   Ar  107   2.827   3.985   5.420
    1   AR   Ar  108   3.393   3.493   3.813
    1   AR   Ar  109   0.928   3.981   4.338
    1   AR   Ar  110   1.837   4.166   4.770
    1   AR   Ar  111   3.608   5.106   7.180
    1   AR   Ar  112   1.984   3.473   5.907
    1   AR   Ar  113   2.366   4.337   0.806
    1   AR   Ar  114   2.319   5.641   0.978
    1   AR   Ar  115   3.326   4.957   0.287
    1   AR   Ar  116   3.629   7.073   0.098
    1   AR   Ar  117   1.544   4.821   3.060
    1   AR   Ar  118   1.145   6.474   2.758
    1   AR   Ar  119   2.501   4.554   2.539
    1   AR   Ar  120   1.809   5.171   1.820
    1   AR   Ar  121   0.161   4.775   3.930
    1   AR   Ar  122   2.500   6.207   3.902
    1   AR   Ar  123   2.233   5.226   4.341
    1   AR   Ar  124   2.362   5.613   3.166
    1   AR   Ar  125   0.869   5.647   4.876
    1   AR   Ar  126   1.033   6.668   6.254
    1   AR   Ar  127   2.420   5.561   7.550
    1   AR   Ar  128   1.994   6.493   6.108
    1   AR   Ar  129   2.883   6.861   1.288
    1   AR   Ar  130   3.414   6.784  -0.779
    1   AR   Ar  131   4.727   6.136   0.347
    1   AR   Ar  132   5.802   2.268  -0.755
    1   AR   Ar  133   4.179   7.106   1.948
    1   AR   Ar  134   3.849   0.901   2.680
    1   AR   Ar  135   4.910   0.555   3.059
    1   AR   Ar  136   4.532   0.933   1.509
    1   AR   Ar  137   2.944   0.067   3.674
    1   AR   Ar  138   4.652   1.132   4.921
    1   AR   Ar  139   4.707   0.266   4.075
    1   AR   Ar  140   4.144   1.465   3.605
    1   AR   Ar  141   3.698   7.052   4.397
    1   AR   Ar  142   3.927   0.317   5.979
    1   AR   Ar  143   5.159   0.123   6.445
    1   AR   Ar  144   5.102   0.983   7.291
    1   AR   Ar  145   2.916   2.898   0.820
    1   AR   Ar  146   4.158   2.676   0.963
    1   AR   Ar  147   5.108   1.936   0.620
    1   AR   Ar  148   5.779   3.361  -1.546
    1   AR   Ar  149   3.960   1.571   0.931
    1   AR   Ar  150   3.037   1.848   2.466
    1   AR   Ar  151   3.390   2.186   3.667
    1   AR   Ar  152   2.977   2.813   2.113
    1   AR   Ar  153   3.271   1.029   3.917
    1   AR   Ar  154   4.136   1.947   4.599
    1   AR   Ar  155   5.518   1.176   5.688
    1   AR   Ar  156   4.501   3.113   3.664
    1   AR   Ar  157   3.680   1.905   5.623
    1   AR   Ar  158   3.348   2.199   6.777
    1   AR   Ar  159   4.653   0.993   6.264
    1   AR   Ar  160   4.340   3.012   5.672
    1   AR   Ar  161   4.510   2.860  -0.349
    1   AR   Ar  162   4.643   4.974   0.756
    1   AR   Ar  163   5.240   2.950   0.699
    1   AR   Ar  164   5.703   4.624   1.095
    1   AR   Ar  165   3.270   3.766   2.621
    1   AR   Ar  166   3.068   4.925   3.401
    1   AR   Ar  167   4.279   2.881   2.674
    1   AR   Ar  168   4.404   3.916   0.937
    1   AR   Ar  169   2.719   2.775   3.223
    1   AR   Ar  170   2.990   4.218   4.341
    1   AR   Ar  171   3.803   3.549   4.754
    1   AR   Ar  172   4.468   4.573   4.345
    1   AR   Ar  173   3.294   2.997   5.545
    1   AR   Ar  174   3.689   5.112   6.071
    1   AR   Ar  175   3.872   3.973   5.904
    1   AR   Ar  176   3.709   4.687   5.017
    1   AR   Ar  177   5.760   5.430   0.254
    1   AR   Ar  178   4.162   6.272   1.301
    1   AR   Ar  179   3.592   5.380   1.238
    1   AR   Ar  180   4.536   5.074  -0.464
    1   AR   Ar  181   2.953   5.755   2.032
    1   AR   Ar  182   2.107   6.553   1.983
    1   AR   Ar  183   3.731   4.664   2.452
    1   AR   Ar  184   4.107   5.618   2.253
    1   AR   Ar  185   1.165   6.069   3.823
    1   AR   Ar  186   3.657   5.376   4.230
    1   AR   Ar  187   4.487   5.587   3.402
    1   AR   Ar  188   3.636   6.107   3.256
    1   AR   Ar  189   2.300   5.207   5.646
    1   AR   Ar  190   4.808   6.254   6.260
    1   AR   Ar  191   4.662   5.849   5.208
    1   AR   Ar  192   3.465   5.840   5.098
    1   AR   Ar  193   5.590   7.102  -0.047
    1   AR   Ar  194   4.625   0.058  -0.317
    1   AR   Ar  195   6.018   0.948   0.832
    1   AR   Ar  196   6.070   1.199  -1.056
    1   AR   Ar  197   5.116   0.265   0.811
    1   AR   Ar  198   5.465   1.443   1.537
    1   AR   Ar  199   5.447   0.358   2.097
    1   AR   Ar  200   6.851   1.640   1.159
    1   AR   Ar  201   4.878   6.393   2.590
    1   AR   Ar  202   5.354   1.043   4.051
    1   AR   Ar  203   6.789   6.903   4.598
    1   AR   Ar  204   6.097   0.255   3.043
    1   AR   Ar  205   5.648   6.855   3.950
    1   AR   Ar  206   4.955   6.997   5.058
    1   AR   Ar  207   0.147   0.121   5.753
    1   AR   Ar  208   6.341   0.647   4.022
    1   AR   Ar  209   6.641   2.138  -1.355
    1   AR   Ar  210   4.977   2.733   1.684
    1   AR   Ar  211   6.095   2.256   0.810
    1   AR   Ar  212   6.769   3.743  -0.781
    1   AR   Ar  213   3.928   2.082   1.932
    1   AR   Ar  214   4.020   3.401   1.812
    1   AR   Ar  215   5.634   2.663   2.666
    1   AR   Ar  216   6.087   2.954   1.756
    1   AR   Ar  217   5.036   2.281   3.863
    1   AR   Ar  218   5.796   1.823   4.873
    1   AR   Ar  219   5.337   1.597   2.987
    1   AR   Ar  220   6.466   2.963   3.150
    1   AR   Ar  221   6.158   0.148   5.486
    1   AR   Ar  222   4.799   2.090   6.403
    1   AR   Ar  223   6.583   1.369   7.163
    1   AR   Ar  224   5.867   2.827   5.721
    1   AR   Ar  225   5.332   4.197  -0.012
    1   AR   Ar  226   4.779   4.322   2.238
    1   AR   Ar  227   6.835   4.256   1.640
    1   AR   Ar  228   6.780   4.841   0.848
    1   AR   Ar  229   6.355   3.661   0.820
    1   AR   Ar  230   4.140   4.025   3.242
    1   AR   Ar  231   0.009   2.347   3.636
    1   AR   Ar  232   5.293   3.702   1.617
    1   AR   Ar  233   6.242   3.067   4.532
    1   AR   Ar  234   5.734   4.148   5.021
    1   AR   Ar  235   7.046   3.694   4.557
    1   AR   Ar  236   5.481   3.610   3.787
    1   AR   Ar  237   5.182   3.166   4.948
    1   AR   Ar  238   4.785   4.462   5.403
    1   AR   Ar  239   6.209   3.882   7.632
    1   AR   Ar  240   6.594   4.105   5.796
    1   AR   Ar  241   6.829   0.546  -0.020
    1   AR   Ar  242   5.211   6.165   1.610
    1   AR   Ar  243   5.973   4.532   2.116
    1   AR   Ar  244   6.622   6.177  -0.355
    1   AR   Ar  245   5.155   5.386   2.147
    1   AR   Ar  246   5.985   6.235   2.387
    1   AR   Ar  247   5.566   3.759   2.623
    1   AR   Ar  248   6.111   6.897   1.284
    1   AR   Ar  249   5.358   4.777   3.136
    1   AR   Ar  250   4.293   6.159   4.303
    1   AR   Ar  251   5.131   5.312   4.382
    1   AR   Ar  252   5.549   5.779   3.520
    1   AR   Ar  253   5.546   5.327   5.551
    1   AR   Ar  254   5.529   5.595   6.921
    1   AR   Ar  255   5.361   4.495   6.672
    1   AR   Ar  256   6.341   5.960   4.878
    7.12000  7.12000 12.00000
Argon-slab step 1000
  256
    1   AR   Ar    1   0.553   0.382  -0.690
    1   AR   Ar    2   7.012   0.581   1.063
    1   AR   Ar    3   0.289   6.846   0.319
    1   AR   Ar    4   1.276   0.684   0.062
    1   AR   Ar    5   6.981   5.965   1.125
    1   AR   Ar    6   0.258   0.372   3.032
    1   AR   Ar    7   0.046   6.298   2.169
    1   AR   Ar    8   0.584   0.095   1.742
    1   AR   Ar    9   0.361   0.898   4.204
    1   AR   Ar   10   6.722   1.613   4.260
    1   AR   Ar   11   2.168   7.026   4.508
    1   AR   Ar   12   1.302   0.732   3.445
    1   AR   Ar   13   6.925   1.124   5.171
    1   AR   Ar   14   0.341   1.469   6.026
    1   AR   Ar   15   0.232   5.981   8.815
    1   AR   Ar   16   0.825   0.701   5.126
    1   AR   Ar   17   6.983   1.787   0.010
    1   AR   Ar   18   7.088   2.921   0.116
    1   AR   Ar   19   0.730   1.384   0.792
    1   AR   Ar   20   0.212   3.154  -1.570
    1   AR   Ar   21   6.758   0.247   2.099
    1   AR   Ar   22   6.560   2.048   2.344
    1   AR   Ar   23   0.092   1.190   1.950
    1   AR   Ar   24   0.027   2.722   1.439
    1   AR   Ar   25   0.134   1.373   3.141
    1   AR   Ar   26   6.118   2.086   3.548
    1   AR   Ar   27   1.122   1.720   4.520
    1   AR   Ar   28   0.521   2.843   4.448
    1   AR   Ar   29   6.377   1.654   6.114
    1   AR   Ar   30   6.481   2.945   6.684
    1   AR   Ar   31   0.886   1.433   7.057
    1   AR   Ar   32   1.601   2.668   5.111
    1   AR   Ar   33   1.327   3.881  -1.507
    1   AR   Ar   34   0.746   5.166   1.222
    1   AR   Ar   35   0.541   3.717   0.968
    1   AR   Ar   36   1.570   6.440  -1.748
    1   AR   Ar   37   0.034   3.460   2.389
    1   AR   Ar   38   0.603   4.889   2.242
    1   AR   Ar   39   1.154   3.604   2.946
    1   AR   Ar   40   1.293   4.341   1.613
    1   AR   Ar   41   0.737   2.507   2.793
    1   AR   Ar   42   6.643   5.011   5.341
    1   AR   Ar   43   6.768   2.549   5.280
    1   AR   Ar   44   0.304   3.679   3.635
    1   AR   Ar   45   0.517   3.684   5.963
    1   AR   Ar   46   6.540   4.971   6.335
    1   AR   Ar   47   6.833   4.117   6.808
    1   AR   Ar   48   0.086   5.921   6.347
    1   AR   Ar   49   0.615   5.080  -0.979
    1   AR   Ar   50   6.099   5.462   1.596
    1   AR   Ar   51   1.286   4.752  -0.073
    1   AR   Ar   52   0.481   5.432   0.037
    1   AR   Ar   53   6.580   5.372   2.597
    1   AR   Ar   54   6.758   6.226   3.347
    1   AR   Ar   55   0.387   5.529   3.037
    1   AR   Ar   56   1.173   6.135   1.737
    1   AR   Ar   57   7.085   4.425   2.953
    1   AR   Ar   58   0.128   5.897   4.118
    1   AR   Ar   59   2.122   6.120   5.090
    1   AR   Ar   60   0.716   6.960   3.890
    1   AR   Ar   61   6.360   6.466   5.959
    1   AR   Ar   62   0.116   6.253   5.324
    1   AR   Ar   63   1.178   5.336   5.797
    1   AR   Ar   64   1.012   6.719   4.948
    1   AR   Ar   65   2.436   0.242   0.396
    1   AR   Ar   66   2.214   0.881   1.239
    1   AR   Ar   67   3.719   6.034   0.358
    1   AR   Ar   68   3.763   1.070  -0.194
    1   AR   Ar   69   1.568   6.748   0.837
    1   AR   Ar   70   1.593   0.372   2.375
    1   AR   Ar   71   3.172   0.702   1.907
    1   AR   Ar   72   3.435   0.716   0.783
    1   AR   Ar   73   1.879   7.094   3.345
    1   AR   Ar   74   2.178   1.358   5.137
    1   AR   Ar   75   3.110   0.689   4.877
    1   AR   Ar   76   2.629   0.792   2.933
    1   AR   Ar   77   1.850   0.226   5.558
    1   AR   Ar   78   1.011   0.626   6.296
    1   AR   Ar   79   3.588   6.419   6.985
    1   AR   Ar   80   2.927   6.672   5.304
    1   AR   Ar   81   2.184   1.560   0.160
    1   AR   Ar   82   1.610   3.183   0.738
    1   AR   Ar   83   2.973   1.611   1.155
    1   AR   Ar   84   2.083   2.912  -1.451
    1   AR   Ar   85   1.774   2.037   1.038
    1   AR   Ar   86   1.835   2.564   2.546
    1   AR   Ar   87   1.936   1.549   2.053
    1   AR   Ar   88   3.055   3.681   1.360
    1   AR   Ar   89   0.939   2.045   1.777
    1   AR   Ar   90   2.946   2.038   4.856
    1   AR   Ar   91   2.285   2.237   4.045
    1   AR   Ar   92   1.972   1.593   3.226
    1   AR   Ar   93   1.486   1.612   5.879
    1   AR   Ar   94   2.646   1.400   8.515
    1   AR   Ar   95   2.894   7.094   6.478
    1   AR   Ar   96   2.054   2.247   7.059
    1   AR   Ar   97   2.656   3.842  -0.802
    1   AR   Ar   98   2.922   4.574   1.596
    1   AR   Ar   99   3.148   2.901  -1.447
    1   AR   Ar  100   2.306   4.681  -0.196
    1   AR   Ar  101   1.045   3.214   1.926
    1   AR   Ar  102   1.961   4.149   3.720
    1   AR   Ar  103   2.115   3.500   1.702
    1   AR   Ar  104   3.338   3.901   0.341
    1   AR   Ar  105   1.662   2.974   3.934
    1   AR   Ar  106   2.561   3.089   4.652
    1   AR   Ar  107   2.794   3.958   5.451
    1   AR   Ar  108   3.385   3.469   3.802
    1   AR   Ar  109   0.954   3.979   4.307
    1   AR   Ar  110   1.861   4.194   4.799
    1   AR   Ar  111   3.598   5.097   7.149
    1   AR   Ar  112   1.953   3.488   5.889
    1   AR   Ar  113   2.389   4.349   0.825
    1   AR   Ar  114   2.315   5.604   0.985
    1   AR   Ar  115   3.343   4.988   0.289
    1   AR   Ar  116   3.644   7.085   0.101
    1   AR   Ar  117   1.541   4.813   3.040
    1   AR   Ar  118   1.150   6.447   2.738
    1   AR   Ar  119   2.505   4.544   2.540
    1   AR   Ar  120   1.766   5.160   1.796
    1   AR   Ar  121   0.142   4.794   3.950
    1   AR   Ar  122   2.505   6.226   3.915
    1   AR   Ar  123   2.235   5.227   4.335
    1   AR   Ar  124   2.344   5.630   3.142
    1   AR   Ar  125   0.864   5.663   4.871
    1   AR   Ar  126   1.032   6.686   6.272
    1   AR   Ar  127   2.430   5.536   7.530
    1   AR   Ar  128   2.032   6.512   6.094
    1   AR   Ar  129   2.888   6.827   1.291
    1   AR   Ar  130   3.431   6.781  -0.790
    1   AR   Ar  131   4.734   6.130   0.377
    1   AR   Ar  132   5.798   2.285  -0.774
    1   AR   Ar  133   4.167   7.117   1.953
    1   AR   Ar  134   3.833   0.898   2.665
    1   AR   Ar  135   4.926   0.558   3.087
    1   AR   Ar  136   4.527   0.911   1.535
    1   AR   Ar  137   2.933   0.049   3.655
    1   AR   Ar  138   4.640   1.123   4.932
    1   AR   Ar  139   4.688   0.271   4.053
    1   AR   Ar  140   4.127   1.486   3.619
    1   AR   Ar  141   3.680   7.073   4.368
    1   AR   Ar  142   3.923   0.332   5.960
    1   AR   Ar  143   5.169   0.111   6.445
    1   AR   Ar  144   5.109   0.956   7.306
    1   AR   Ar  145   2.905   2.915   0.813
    1   AR   Ar  146   4.135   2.679   0.986
    1   AR   Ar  147   5.127   1.902   0.598
    1   AR   Ar  148   5.772   3.359  -1.564
    1   AR   Ar  149   3.985   1.579   0.946
    1   AR   Ar  150   3.026   1.831   2.497
    1   AR   Ar  151   3.387   2.137   3.674
    1   AR   Ar  152   2.955   2.867   2.108
    1   AR   Ar  153   3.251   1.023   3.934
    1   AR   Ar  154   4.144   1.973   4.572
    1   AR   Ar  155   5.529   1.185   5.685
    1   AR   Ar  156   4.473   3.105   3.647
    1   AR   Ar  157   3.672   1.907   5.632
    1   AR   Ar  158   3.335   2.211   6.771
    1   AR   Ar  159   4.662   1.021   6.285
    1   AR   Ar  160   4.342   3.017   5.665
    1   AR   Ar  161   4.492   2.873  -0.387
    1   AR   Ar  162   4.619   4.961   0.766
    1   AR   Ar  163   5.249   2.939   0.693
    1   AR   Ar  164   5.706   4.599   1.099
    1   AR   Ar  165   3.258   3.767   2.642
    1   AR   Ar  166   3.045   4.902   3.382
    1   AR   Ar  167   4.281   2.889   2.653
    1   AR   Ar  168   4.389   3.887   0.918
    1   AR   Ar  169   2.716   2.779   3.195
    1   AR   Ar  170   3.005   4.215   4.384
    1   AR   Ar  171   3.813   3.510   4.751
    1   AR   Ar  172   4.441   4.547   4.343
    1   AR   Ar  173   3.303   2.965   5.524
    1   AR   Ar  174   3.694   5.119   6.075
    1   AR   Ar  175   3.896   3.971   5.905
    1   AR   Ar  176   3.699   4.687   5.023
    1   AR   Ar  177   5.754   5.437   0.229
    1   AR   Ar  178   4.136   6.246   1.302
    1   AR   Ar  179   3.566   5.363   1.219
    1   AR   Ar  180   4.520   5.072  -0.458
    1   AR   Ar  181   2.946   5.749   2.049
    1   AR   Ar  182   2.116   6.571   2.028
    1   AR   Ar  183   3.734   4.694   2.445
    1   AR   Ar  184   4.105   5.602   2.248
    1   AR   Ar  185   1.168   6.061   3.841
    1   AR   Ar  186   3.663   5.365   4.198
    1   AR   Ar  187   4.471   5.593   3.413
    1   AR   Ar  188   3.634   6.106   3.229
    1   AR   Ar  189   2.279   5.150   5.654
    1   AR   Ar  190   4.785   6.221   6.241
    1   AR   Ar  191   4.694   5.843   5.193
    1   AR   Ar  192   3.494   5.842   5.108
    1   AR   Ar  193   5.619   7.106  -0.046
    1   AR   Ar  194   4.644   0.060  -0.343
    1   AR   Ar  195   5.995   0.946   0.823
    1   AR   Ar  196   6.058   1.203  -1.058
    1   AR   Ar  197   5.126   0.251   0.827
    1   AR   Ar  198   5.459   1.453   1.523
    1   AR   Ar  199   5.446   0.363   2.096
    1   AR   Ar  200   6.842   1.657   1.168
    1   AR   Ar  201   4.874   6.381   2.602
    1   AR   Ar  202   5.358   1.060   4.052
    1   AR   Ar  203   6.813   6.887   4.569
    1   AR   Ar  204   6.075   0.240   3.034
    1   AR   Ar  205   5.675   6.862   3.975
    1   AR   Ar  206   4.968   7.001   5.066
    1   AR   Ar  207   0.126   0.129   5.743
    1   AR   Ar  208   6.345   0.672   4.032
    1   AR   Ar  209   6.659   2.164  -1.365
    1   AR   Ar  210   5.001   2.741   1.651
    1   AR   Ar  211   6.108   2.278   0.829
    1   AR   Ar  212   6.762   3.751  -0.786
    1   AR   Ar  213   3.933   2.094   1.912
    1   AR   Ar  214   4.007   3.380   1.807
    1   AR   Ar  215   5.635   2.678   2.630
    1   AR   Ar  216   6.070   2.940   1.743
    1   AR   Ar  217   5.027   2.264   3.877
    1   AR   Ar  218   5.777   1.823   4.879
    1   AR   Ar  219   5.314   1.592   2.988
    1   AR   Ar  220   6.493   2.995   3.157
    1   AR   Ar  221   6.130   0.133   5.499
    1   AR   Ar  222   4.787   2.085   6.385
    1   AR   Ar  223   6.576   1.352   7.133
    1   AR   Ar  224   5.856   2.856   5.736
    1   AR   Ar  225   5.352   4.200   0.029
    1   AR   Ar  226   4.796   4.333   2.265
    1   AR   Ar  227   6.817   4.232   1.637
    1   AR   Ar  228   6.765   4.844   0.832
    1   AR   Ar  229   6.340   3.672   0.830
    1   AR   Ar  230   4.143   4.020   3.236
    1   AR   Ar  231   0.029   2.361   3.652
    1   AR   Ar  232   5.296   3.661   1.622
    1   AR   Ar  233   6.210   3.048   4.522
    1   AR   Ar  234   5.735   4.142   5.007
    1   AR   Ar  235   7.017   3.665   4.514
    1   AR   Ar  236   5.460   3.599   3.825
    1   AR   Ar  237   5.168   3.170   4.979
    1   AR   Ar  238   4.818   4.435   5.402
    1   AR   Ar  239   6.240   3.863   7.671
    1   AR   Ar  240   6.562   4.092   5.821
    1   AR   Ar  241   6.836   0.567  -0.021
    1   AR   Ar  242   5.202   6.158   1.596
    1   AR   Ar  243   5.975   4.522   2.130
    1   AR   Ar  244   6.612   6.218  -0.367
    1   AR   Ar  245   5.173   5.374   2.174
    1   AR   Ar  246   5.955   6.230   2.395
    1   AR   Ar  247   5.562   3.736   2.621
    1   AR   Ar  248   6.081   6.881   1.285
    1   AR   Ar  249   5.368   4.814   3.131
    1   AR   Ar  250   4.247   6.149   4.322
    1   AR   Ar  251   5.108   5.302   4.374
    1   AR   Ar  252   5.542   5.761   3.529
    1   AR   Ar  253   5.532   5.331   5.566
    1   AR   Ar  254   5.531   5.582   6.956
    1   AR   Ar  255   5.356   4.497   6.683
    1   AR   Ar  256   6.358   5.976   4.875
    7.12000  7.12000 12.00000
Argon-slab step 1005
  256
    1   AR   Ar    1   0.582   0.367  -0.708
    1   AR   Ar    2   7.008   0.602   1.061
    1   AR   Ar    3   0.285   6.849   0.315
    1   AR   Ar    4   1.270   0.686   0.043
    1   AR   Ar    5   6.930   5.999   1.126
    1   AR   Ar    6   0.288   0.371   3.032
    1   AR   Ar    7   0.050   6.294   2.158
    1   AR   Ar    8   0.596   0.097   1.733
    1   AR   Ar    9   0.349   0.899   4.188
    1   AR   Ar   10   6.719   1.647   4.257
    1   AR   Ar   11   2.165   7.016   4.497
    1   AR   Ar   12   1.280   0.739   3.428
    1   AR   Ar   13   6.936   1.118   5.172
    1   AR   Ar   14   0.332   1.490   6.005
    1   AR   Ar   15   0.206   5.971   8.864
    1   AR   Ar   16   0.814   0.697   5.079
    1   AR   Ar   17   6.976   1.834  -0.004
    1   AR   Ar   18   7.089   2.905   0.114
    1   AR   Ar   19   0.737   1.401   0.784
    1   AR   Ar   20   0.236   3.153  -1.607
    1   AR   Ar   21   6.760   0.221   2.080
    1   AR   Ar   22   6.562   2.044   2.320
    1   AR   Ar   23   0.086   1.168   1.951
    1   AR   Ar   24   0.079   2.709   1.396
    1   AR   Ar   25   0.135   1.339   3.106
    1   AR   Ar   26   6.077   2.109   3.544
    1   AR   Ar   27   1.143   1.679   4.479
    1   AR   Ar   28   0.543   2.850   4.433
    1   AR   Ar   29   6.358   1.664   6.139
    1   AR   Ar   30   6.521   2.971   6.694
    1   AR   Ar   31   0.881   1.450   7.054
    1   AR   Ar   32   1.597   2.664   5.099
    1   AR   Ar   33   1.340   3.888  -1.530
    1   AR   Ar   34   0.771   5.198   1.216
    1   AR   Ar   35   0.541   3.716   1.007
    1   AR   Ar   36   1.607   6.445  -1.744
    1   AR   Ar   37   0.015   3.464   2.385
    1   AR   Ar   38   0.604   4.884   2.203
    1   AR   Ar   39   1.153   3.600   2.922
    1   AR   Ar   40   1.275   4.310   1.601
    1   AR   Ar   41   0.724   2.497   2.804
    1   AR   Ar   42   6.634   5.038   5.339
    1   AR   Ar   43   6.787   2.560   5.289
    1   AR   Ar   44   0.287   3.682   3.624
    1   AR   Ar   45   0.497   3.677   5.953
    1   AR   Ar   46   6.567   5.026   6.366
    1   AR   Ar   47   6.838   4.096   6.819
    1   AR   Ar   48   0.055   5.921   6.350
    1   AR   Ar   49   0.642   5.041  -0.987
    1   AR   Ar   50   6.106   5.482   1.599
    1   AR   Ar   51   1.279   4.766  -0.075
    1   AR   Ar   52   0.481   5.457   0.040
    1   AR   Ar   53   6.579   5.373   2.596
    1   AR   Ar   54   6.761   6.214   3.345
    1   AR   Ar   55   0.422   5.585   3.013
    1   AR   Ar   56   1.147   6.116   1.722
    1   AR   Ar   57   7.077   4.413   2.942
    1   AR   Ar   58   0.147   5.890   4.135
    1   AR   Ar   59   2.095   6.123   5.083
    1   AR   Ar   60   0.722   6.969   3.837
    1   AR   Ar   61   6.364   6.454   5.968
    1   AR   Ar   62   0.116   6.251   5.357
    1   AR   Ar   63   1.144   5.344   5.792
    1   AR   Ar   64   1.013   6.722   4.926
    1   AR   Ar   65   2.454   0.253   0.372
    1   AR   Ar   66   2.235   0.895   1.254
    1   AR   Ar   67   3.711   6.048   0.379
    1   AR   Ar   68   3.777   1.060  -0.217
    1   AR   Ar   69   1.582   6.724   0.795
    1   AR   Ar   70   1.580   0.391   2.361
    1   AR   Ar   71   3.227   0.711   1.874
    1   AR   Ar   72   3.498   0.716   0.785
    1   AR   Ar   73   1.889   7.095   3.348
    1   AR   Ar   74   2.187   1.355   5.170
    1   AR   Ar   75   3.108   0.691   4.888
    1   AR   Ar   76   2.637   0.789   2.914
    1   AR   Ar   77   1.897   0.240   5.559
    1   AR   Ar   78   1.042   0.637   6.272
    1   AR   Ar   79   3.607   6.411   6.990
    1   AR   Ar   80   2.956   6.676   5.274
    1   AR   Ar   81   2.169   1.571   0.166
    1   AR   Ar   82   1.610   3.190   0.748
    1   AR   Ar   83   2.974   1.618   1.149
    1   AR   Ar   84   2.081   2.921  -1.439
    1   AR   Ar   85   1.761   2.041   1.041
    1   AR   Ar   86   1.822   2.583   2.547
    1   AR   Ar   87   1.902   1.588   2.035
    1   AR   Ar   88   3.058   3.689   1.349
    1   AR   Ar   89   0.947   2.043   1.774
    1   AR   Ar   90   2.944   2.036   4.841
    1   AR   Ar   91   2.284   2.205   4.043
    1   AR   Ar   92   1.967   1.603   3.234
    1   AR   Ar   93   1.476   1.598   5.854
    1   AR   Ar   94   2.642   1.381   8.527
    1   AR   Ar   95   2.901   7.080   6.480
    1   AR   Ar   96   2.013   2.245   7.029
    1   AR   Ar   97   2.657   3.808  -0.779
    1   AR   Ar   98   2.948   4.594   1.571
    1   AR   Ar   99   3.171   2.917  -1.432
    1   AR   Ar  100   2.346   4.681  -0.187
    1   AR   Ar  101   1.049   3.202   1.898
    1   AR   Ar  102   1.981   4.116   3.734
    1   AR   Ar  103   2.072   3.504   1.695
    1   AR   Ar  104   3.330   3.869   0.358
    1   AR   Ar  105   1.641   3.020   3.914
    1   AR   Ar  106   2.535   3.080   4.644
    1   AR   Ar  107   2.764   3.933   5.480
    1   AR   Ar  108   3.377   3.439   3.784
    1   AR   Ar  109   0.986   3.980   4.282
    1   AR   Ar  110   1.890   4.223   4.832
    1   AR   Ar  111   3.587   5.090   7.119
    1   AR   Ar  112   1.920   3.502   5.871
    1   AR   Ar  113   2.400   4.357   0.832
    1   AR   Ar  114   2.311   5.580   0.988
    1   AR   Ar  115   3.357   5.018   0.287
    1   AR   Ar  116   3.651   7.082   0.095
    1   AR   Ar  117   1.535   4.808   3.015
    1   AR   Ar  118   1.158   6.412   2.725
    1   AR   Ar  119   2.505   4.533   2.543
    1   AR   Ar  120   1.733   5.164   1.778
    1   AR   Ar  121   0.093   4.820   3.956
    1   AR   Ar  122   2.513   6.247   3.936
    1   AR   Ar  123   2.238   5.227   4.328
    1   AR   Ar  124   2.320   5.643   3.107
    1   AR   Ar  125   0.861   5.678   4.861
    1   AR   Ar  126   1.026   6.702   6.288
    1   AR   Ar  127   2.440   5.512   7.510
    1   AR   Ar  128   2.077   6.523   6.084
    1   AR   Ar  129   2.894   6.795   1.294
    1   AR   Ar  130   3.430   6.778  -0.825
    1   AR   Ar  131   4.747   6.126   0.407
    1   AR   Ar  132   5.792   2.305  -0.799
    1   AR   Ar  133   4.163   0.010   1.994
    1   AR   Ar  134   3.821   0.896   2.654
    1   AR   Ar  135   4.942   0.563   3.110
    1   AR   Ar  136   4.524   0.887   1.562
    1   AR   Ar  137   2.920   0.030   3.633
    1   AR   Ar  138   4.631   1.111   4.944
    1   AR   Ar  139   4.664   0.272   4.036
    1   AR   Ar  140   4.125   1.498   3.629
    1   AR   Ar  141   3.664   7.092   4.342
    1   AR   Ar  142   3.918   0.345   5.940
    1   AR   Ar  143   5.182   0.099   6.444
    1   AR   Ar  144   5.117   0.928   7.320
    1   AR   Ar  145   2.891   2.914   0.795
    1   AR   Ar  146   4.112   2.684   1.006
    1   AR   Ar  147   5.143   1.865   0.576
    1   AR   Ar  148   5.766   3.355  -1.580
    1   AR   Ar  149   4.016   1.593   0.958
    1   AR   Ar  150   3.015   1.812   2.530
    1   AR   Ar  151   3.377   2.094   3.685
    1   AR   Ar  152   2.934   2.919   2.101
    1   AR   Ar  153   3.231   1.037   3.939
    1   AR   Ar  154   4.149   2.003   4.546
    1   AR   Ar  155   5.539   1.190   5.682
    1   AR   Ar  156   4.442   3.099   3.636
    1   AR   Ar  157   3.666   1.909   5.641
    1   AR   Ar  158   3.321   2.223   6.764
    1   AR   Ar  159   4.669   1.052   6.306
    1   AR   Ar  160   4.348   3.020   5.658
    1   AR   Ar  161   4.474   2.885  -0.423
    1   AR   Ar  162   4.596   4.951   0.775
    1   AR   Ar  163   5.260   2.936   0.682
    1   AR   Ar  164   5.706   4.572   1.100
    1   AR   Ar  165   3.245   3.765   2.663
    1   AR   Ar  166   3.027   4.876   3.366
    1   AR   Ar  167   4.285   2.893   2.633
    1   AR   Ar  168   4.375   3.856   0.898
    1   AR   Ar  169   2.722   2.790   3.164
    1   AR   Ar  170   3.014   4.217   4.427
    1   AR   Ar  171   3.826   3.474   4.752
    1   AR   Ar  172   4.413   4.513   4.335
    1   AR   Ar  173   3.308   2.933   5.502
    1   AR   Ar  174   3.700   5.127   6.076
    1   AR   Ar  175   3.918   3.971   5.905
    1   AR   Ar  176   3.686   4.687   5.039
    1   AR   Ar  177   5.748   5.443   0.207
    1   AR   Ar  178   4.111   6.222   1.306
    1   AR   Ar  179   3.554   5.334   1.216
    1   AR   Ar  180   4.504   5.071  -0.449
    1   AR   Ar  181   2.950   5.741   2.040
    1   AR   Ar  182   2.126   6.588   2.073
    1   AR   Ar  183   3.733   4.719   2.439
    1   AR   Ar  184   4.107   5.595   2.241
    1   AR   Ar  185   1.177   6.045   3.858
    1   AR   Ar  186   3.662   5.345   4.159
    1   AR   Ar  187   4.463   5.593   3.424
    1   AR   Ar  188   3.624   6.109   3.202
    1   AR   Ar  189   2.260   5.092   5.660
    1   AR   Ar  190   4.763   6.187   6.222
    1   AR   Ar  191   4.724   5.838   5.182
    1   AR   Ar  192   3.525   5.840   5.122
    1   AR   Ar  193   5.666   0.009  -0.065
    1   AR   Ar  194   4.658   0.063  -0.370
    1   AR   Ar  195   5.976   0.941   0.808
    1   AR   Ar  196   6.059   1.199  -1.052
    1   AR   Ar  197   5.133   0.238   0.848
    1   AR   Ar  198   5.452   1.468   1.516
    1   AR   Ar  199   5.444   0.366   2.093
    1   AR   Ar  200   6.831   1.677   1.170
    1   AR   Ar  201   4.869   6.369   2.616
    1   AR   Ar  202   5.362   1.083   4.053
    1   AR   Ar  203   6.838   6.876   4.538
    1   AR   Ar  204   6.072   0.247   3.028
    1   AR   Ar  205   5.702   6.869   4.000
    1   AR   Ar  206   4.980   7.005   5.074
    1   AR   Ar  207   0.105   0.137   5.732
    1   AR   Ar  208   6.350   0.693   4.042
    1   AR   Ar  209   6.680   2.191  -1.376
    1   AR   Ar  210   5.024   2.737   1.666
    1   AR   Ar  211   6.123   2.286   0.851
    1   AR   Ar  212   6.745   3.768  -0.789
    1   AR   Ar  213   3.938   2.106   1.892
    1   AR   Ar  214   3.993   3.363   1.800
    1   AR   Ar  215   5.629   2.686   2.599
    1   AR   Ar  216   6.059   2.928   1.726
    1   AR   Ar  217   5.021   2.242   3.894
    1   AR   Ar  218   5.786   1.814   4.890
    1   AR   Ar  219   5.316   1.600   2.983
    1   AR   Ar  220   6.519   3.034   3.163
    1   AR   Ar  221   6.092   0.137   5.489
    1   AR   Ar  222   4.775   2.082   6.366
    1   AR   Ar  223   6.570   1.335   7.104
    1   AR   Ar  224   5.845   2.884   5.753
    1   AR   Ar  225   5.371   4.203   0.073
    1   AR   Ar  226   4.807   4.348   2.292
    1   AR   Ar  227   6.808   4.204   1.640
    1   AR   Ar  228   6.749   4.853   0.811
    1   AR   Ar  229   6.323   3.682   0.840
    1   AR   Ar  230   4.148   4.008   3.235
    1   AR   Ar  231   0.054   2.375   3.667
    1   AR   Ar  232   5.304   3.635   1.619
    1   AR   Ar  233   6.170   3.026   4.510
    1   AR   Ar  234   5.741   4.135   4.991
    1   AR   Ar  235   6.983   3.643   4.486
    1   AR   Ar  236   5.439   3.587   3.862
    1   AR   Ar  237   5.154   3.175   5.007
    1   AR   Ar  238   4.847   4.410   5.402
    1   AR   Ar  239   6.269   3.843   7.710
    1   AR   Ar  240   6.523   4.071   5.843
    1   AR   Ar  241   6.839   0.592  -0.021
    1   AR   Ar  242   5.194   6.164   1.571
    1   AR   Ar  243   5.974   4.518   2.148
    1   AR   Ar  244   6.603   6.259  -0.376
    1   AR   Ar  245   5.180   5.383   2.187
    1   AR   Ar  246   5.926   6.226   2.403
    1   AR   Ar  247   5.560   3.707   2.629
    1   AR   Ar  248   6.052   6.866   1.287
    1   AR   Ar  249   5.377   4.846   3.123
    1   AR   Ar  250   4.206   6.150   4.338
    1   AR   Ar  251   5.088   5.296   4.367
    1   AR   Ar  252   5.538   5.750   3.536
    1   AR   Ar  253   5.522   5.332   5.582
    1   AR   Ar  254   5.534   5.569   6.989
    1   AR   Ar  255   5.353   4.499   6.693
    1   AR   Ar  256   6.369   5.989   4.870
    7.12000  7.12000 12.00000
Argon-slab step 1010
  256
    1   AR   Ar    1   0.609   0.351  -0.726
    1   AR   Ar    2   7.004   0.620   1.058
    1   AR   Ar    3   0.281   6.851   0.312
    1   AR   Ar    4   1.266   0.688   0.027
    1   AR   Ar    5   6.881   6.034   1.126
    1   AR   Ar    6   0.318   0.358   3.029
    1   AR   Ar    7   0.069   6.308   2.167
    1   AR   Ar    8   0.616   0.097   1.723
    1   AR   Ar    9   0.336   0.898   4.165
    1   AR   Ar   10   6.715   1.684   4.257
    1   AR   Ar   11   2.160   7.014   4.489
    1   AR   Ar   12   1.248   0.757   3.412
    1   AR   Ar   13   6.948   1.111   5.177
    1   AR   Ar   14   0.348   1.490   6.014
    1   AR   Ar   15   0.180   5.960   8.913
    1   AR   Ar   16   0.799   0.678   5.021
    1   AR   Ar   17   6.968   1.878  -0.017
    1   AR   Ar   18   7.089   2.891   0.115
    1   AR   Ar   19   0.743   1.419   0.777
    1   AR   Ar   20   0.259   3.152  -1.643
    1   AR   Ar   21   6.754   0.193   2.064
    1   AR   Ar   22   6.572   2.027   2.335
    1   AR   Ar   23   0.085   1.146   1.960
    1   AR   Ar   24   0.129   2.696   1.353
    1   AR   Ar   25   0.133   1.318   3.073
    1   AR   Ar   26   6.035   2.134   3.540
    1   AR   Ar   27   1.165   1.638   4.437
    1   AR   Ar   28   0.571   2.856   4.421
    1   AR   Ar   29   6.341   1.677   6.158
    1   AR   Ar   30   6.560   2.997   6.703
    1   AR   Ar   31   0.876   1.468   7.050
    1   AR   Ar   32   1.590   2.670   5.088
    1   AR   Ar   33   1.353   3.894  -1.553
    1   AR   Ar   34   0.795   5.230   1.205
    1   AR   Ar   35   0.541   3.713   1.046
    1   AR   Ar   36   1.643   6.450  -1.740
    1   AR   Ar   37   0.023   3.454   2.381
    1   AR   Ar   38   0.605   4.879   2.167
    1   AR   Ar   39   1.152   3.604   2.892
    1   AR   Ar   40   1.253   4.267   1.588
    1   AR   Ar   41   0.712   2.500   2.830
    1   AR   Ar   42   6.625   5.065   5.331
    1   AR   Ar   43   6.806   2.570   5.297
    1   AR   Ar   44   0.273   3.679   3.591
    1   AR   Ar   45   0.472   3.665   5.935
    1   AR   Ar   46   6.589   5.084   6.401
    1   AR   Ar   47   6.846   4.073   6.834
    1   AR   Ar   48   0.055   5.905   6.366
    1   AR   Ar   49   0.658   5.027  -0.974
    1   AR   Ar   50   6.113   5.501   1.601
    1   AR   Ar   51   1.273   4.779  -0.076
    1   AR   Ar   52   0.478   5.485   0.045
    1   AR   Ar   53   6.578   5.372   2.594
    1   AR   Ar   54   6.756   6.208   3.335
    1   AR   Ar   55   0.451   5.610   2.989
    1   AR   Ar   56   1.121   6.096   1.703
    1   AR   Ar   57   7.067   4.403   2.929
    1   AR   Ar   58   0.167   5.882   4.160
    1   AR   Ar   59   2.062   6.121   5.073
    1   AR   Ar   60   0.727   6.980   3.787
    1   AR   Ar   61   6.368   6.431   5.984
    1   AR   Ar   62   0.120   6.249   5.390
    1   AR   Ar   63   1.111   5.352   5.792
    1   AR   Ar   64   1.017   6.728   4.904
    1   AR   Ar   65   2.474   0.265   0.348
    1   AR   Ar   66   2.254   0.906   1.268
    1   AR   Ar   67   3.698   6.059   0.395
    1   AR   Ar   68   3.791   1.049  -0.240
    1   AR   Ar   69   1.595   6.697   0.765
    1   AR   Ar   70   1.571   0.399   2.350
    1   AR   Ar   71   3.276   0.718   1.833
    1   AR   Ar   72   3.557   0.715   0.792
    1   AR   Ar   73   1.904   7.084   3.350
    1   AR   Ar   74   2.200   1.349   5.198
    1   AR   Ar   75   3.104   0.693   4.907
    1   AR   Ar   76   2.644   0.787   2.893
    1   AR   Ar   77   1.942   0.262   5.554
    1   AR   Ar   78   1.073   0.650   6.247
    1   AR   Ar   79   3.626   6.402   6.994
    1   AR   Ar   80   2.984   6.690   5.245
    1   AR   Ar   81   2.154   1.579   0.172
    1   AR   Ar   82   1.610   3.196   0.760
    1   AR   Ar   83   2.962   1.623   1.158
    1   AR   Ar   84   2.076   2.933  -1.425
    1   AR   Ar   85   1.734   2.053   1.008
    1   AR   Ar   86   1.810   2.603   2.546
    1   AR   Ar   87   1.869   1.626   2.020
    1   AR   Ar   88   3.069   3.681   1.350
    1   AR   Ar   89   0.952   2.042   1.771
    1   AR   Ar   90   2.946   2.034   4.825
    1   AR   Ar   91   2.286   2.177   4.053
    1   AR   Ar   92   1.961   1.612   3.239
    1   AR   Ar   93   1.460   1.585   5.834
    1   AR   Ar   94   2.637   1.363   8.539
    1   AR   Ar   95   2.909   7.068   6.481
    1   AR   Ar   96   1.971   2.242   6.998
    1   AR   Ar   97   2.657   3.772  -0.756
    1   AR   Ar   98   2.980   4.643   1.571
    1   AR   Ar   99   3.194   2.934  -1.417
    1   AR   Ar  100   2.389   4.683  -0.179
    1   AR   Ar  101   1.051   3.188   1.869
    1   AR   Ar  102   2.004   4.083   3.749
    1   AR   Ar  103   2.029   3.509   1.689
    1   AR   Ar  104   3.322   3.838   0.373
    1   AR   Ar  105   1.617   3.071   3.893
    1   AR   Ar  106   2.510   3.075   4.638
    1   AR   Ar  107   2.741   3.910   5.506
    1   AR   Ar  108   3.368   3.406   3.763
    1   AR   Ar  109   0.984   3.945   4.277
    1   AR   Ar  110   1.921   4.251   4.865
    1   AR   Ar  111   3.575   5.084   7.092
    1   AR   Ar  112   1.882   3.512   5.852
    1   AR   Ar  113   2.398   4.360   0.824
    1   AR   Ar  114   2.294   5.604   0.974
    1   AR   Ar  115   3.369   5.044   0.277
    1   AR   Ar  116   3.661   7.081   0.097
    1   AR   Ar  117   1.527   4.804   2.989
    1   AR   Ar  118   1.166   6.380   2.716
    1   AR   Ar  119   2.500   4.523   2.544
    1   AR   Ar  120   1.705   5.176   1.765
    1   AR   Ar  121   0.044   4.845   3.962
    1   AR   Ar  122   2.522   6.262   3.959
    1   AR   Ar  123   2.241   5.226   4.321
    1   AR   Ar  124   2.306   5.636   3.087
    1   AR   Ar  125   0.845   5.659   4.866
    1   AR   Ar  126   1.016   6.715   6.301
    1   AR   Ar  127   2.452   5.488   7.488
    1   AR   Ar  128   2.123   6.526   6.077
    1   AR   Ar  129   2.902   6.763   1.295
    1   AR   Ar  130   3.427   6.773  -0.869
    1   AR   Ar  131   4.767   6.121   0.438
    1   AR   Ar  132   5.784   2.326  -0.822
    1   AR   Ar  133   4.158   0.019   2.037
    1   AR   Ar  134   3.815   0.897   2.652
    1   AR   Ar  135   4.938   0.575   3.120
    1   AR   Ar  136   4.522   0.864   1.590
    1   AR   Ar  137   2.907   0.013   3.608
    1   AR   Ar  138   4.624   1.110   4.955
    1   AR   Ar  139   4.638   0.270   4.026
    1   AR   Ar  140   4.143   1.498   3.633
    1   AR   Ar  141   3.651   7.109   4.320
    1   AR   Ar  142   3.912   0.356   5.918
    1   AR   Ar  143   5.195   0.085   6.441
    1   AR   Ar  144   5.121   0.897   7.328
    1   AR   Ar  145   2.874   2.899   0.770
    1   AR   Ar  146   4.089   2.689   1.022
    1   AR   Ar  147   5.157   1.827   0.553
    1   AR   Ar  148   5.761   3.350  -1.595
    1   AR   Ar  149   4.052   1.610   0.967
    1   AR   Ar  150   3.002   1.793   2.564
    1   AR   Ar  151   3.352   2.064   3.697
    1   AR   Ar  152   2.914   2.968   2.093
    1   AR   Ar  153   3.209   1.052   3.938
    1   AR   Ar  154   4.151   2.037   4.523
    1   AR   Ar  155   5.546   1.190   5.679
    1   AR   Ar  156   4.411   3.092   3.631
    1   AR   Ar  157   3.664   1.910   5.652
    1   AR   Ar  158   3.308   2.235   6.755
    1   AR   Ar  159   4.675   1.080   6.326
    1   AR   Ar  160   4.354   3.019   5.654
    1   AR   Ar  161   4.457   2.898  -0.457
    1   AR   Ar  162   4.573   4.942   0.784
    1   AR   Ar  163   5.270   2.937   0.666
    1   AR   Ar  164   5.705   4.546   1.099
    1   AR   Ar  165   3.233   3.762   2.685
    1   AR   Ar  166   3.013   4.850   3.355
    1   AR   Ar  167   4.291   2.893   2.615
    1   AR   Ar  168   4.361   3.824   0.878
    1   AR   Ar  169   2.728   2.802   3.134
    1   AR   Ar  170   3.017   4.218   4.467
    1   AR   Ar  171   3.841   3.441   4.753
    1   AR   Ar  172   4.385   4.473   4.322
    1   AR   Ar  173   3.321   2.917   5.512
    1   AR   Ar  174   3.707   5.125   6.057
    1   AR   Ar  175   3.938   3.973   5.902
    1   AR   Ar  176   3.673   4.690   5.063
    1   AR   Ar  177   5.741   5.448   0.186
    1   AR   Ar  178   4.090   6.203   1.316
    1   AR   Ar  179   3.550   5.308   1.223
    1   AR   Ar  180   4.487   5.070  -0.438
    1   AR   Ar  181   2.953   5.731   2.030
    1   AR   Ar  182   2.135   6.603   2.120
    1   AR   Ar  183   3.725   4.731   2.436
    1   AR   Ar  184   4.113   5.603   2.232
    1   AR   Ar  185   1.190   6.026   3.874
    1   AR   Ar  186   3.655   5.314   4.116
    1   AR   Ar  187   4.462   5.586   3.434
    1   AR   Ar  188   3.606   6.115   3.174
    1   AR   Ar  189   2.241   5.034   5.665
    1   AR   Ar  190   4.741   6.152   6.202
    1   AR   Ar  191   4.750   5.836   5.174
    1   AR   Ar  192   3.559   5.832   5.136
    1   AR   Ar  193   5.718   0.031  -0.083
    1   AR   Ar  194   4.667   0.066  -0.396
    1   AR   Ar  195   5.961   0.934   0.789
    1   AR   Ar  196   6.061   1.197  -1.046
    1   AR   Ar  197   5.137   0.223   0.872
    1   AR   Ar  198   5.445   1.486   1.514
    1   AR   Ar  199   5.442   0.369   2.089
    1   AR   Ar  200   6.826   1.694   1.170
    1   AR   Ar  201   4.863   6.358   2.632
    1   AR   Ar  202   5.365   1.110   4.053
    1   AR   Ar  203   6.829   6.843   4.542
    1   AR   Ar  204   6.069   0.255   3.021
    1   AR   Ar  205   5.730   6.876   4.026
    1   AR   Ar  206   4.993   7.010   5.082
    1   AR   Ar  207   0.084   0.146   5.722
    1   AR   Ar  208   6.358   0.709   4.051
    1   AR   Ar  209   6.703   2.217  -1.387
    1   AR   Ar  210   5.035   2.709   1.698
    1   AR   Ar  211   6.125   2.294   0.857
    1   AR   Ar  212   6.722   3.792  -0.790
    1   AR   Ar  213   3.943   2.119   1.876
    1   AR   Ar  214   3.977   3.351   1.789
    1   AR   Ar  215   5.619   2.686   2.575
    1   AR   Ar  216   6.042   2.911   1.699
    1   AR   Ar  217   5.016   2.217   3.911
    1   AR   Ar  218   5.797   1.808   4.897
    1   AR   Ar  219   5.318   1.605   2.980
    1   AR   Ar  220   6.544   3.075   3.169
    1   AR   Ar  221   6.049   0.155   5.471
    1   AR   Ar  222   4.777   2.072   6.361
    1   AR   Ar  223   6.565   1.317   7.077
    1   AR   Ar  224   5.836   2.912   5.770
    1   AR   Ar  225   5.361   4.189   0.075
    1   AR   Ar  226   4.814   4.366   2.319
    1   AR   Ar  227   6.812   4.179   1.652
    1   AR   Ar  228   6.734   4.864   0.788
    1   AR   Ar  229   6.305   3.690   0.849
    1   AR   Ar  230   4.154   4.000   3.232
    1   AR   Ar  231   0.079   2.388   3.677
    1   AR   Ar  232   5.315   3.637   1.610
    1   AR   Ar  233   6.125   2.998   4.497
    1   AR   Ar  234   5.753   4.126   4.972
    1   AR   Ar  235   6.943   3.629   4.476
    1   AR   Ar  236   5.418   3.576   3.900
    1   AR   Ar  237   5.118   3.177   4.991
    1   AR   Ar  238   4.869   4.386   5.404
    1   AR   Ar  239   6.299   3.823   7.749
    1   AR   Ar  240   6.481   4.046   5.859
    1   AR   Ar  241   6.841   0.619  -0.021
    1   AR   Ar  242   5.186   6.179   1.537
    1   AR   Ar  243   5.969   4.520   2.167
    1   AR   Ar  244   6.594   6.301  -0.384
    1   AR   Ar  245   5.184   5.391   2.199
    1   AR   Ar  246   5.900   6.225   2.412
    1   AR   Ar  247   5.560   3.678   2.646
    1   AR   Ar  248   6.024   6.850   1.290
    1   AR   Ar  249   5.375   4.859   3.107
    1   AR   Ar  250   4.194   6.159   4.334
    1   AR   Ar  251   5.068   5.300   4.369
    1   AR   Ar  252   5.540   5.750   3.541
    1   AR   Ar  253   5.517   5.331   5.600
    1   AR   Ar  254   5.531   5.562   7.011
    1   AR   Ar  255   5.351   4.502   6.700
    1   AR   Ar  256   6.373   6.000   4.864
    7.12000  7.12000 12.00000
Argon-slab step 1015
  256
    1   AR   Ar    1   0.647   0.372  -0.727
    1   AR   Ar    2   7.000   0.635   1.053
    1   AR   Ar    3   0.278   6.853   0.310
    1   AR   Ar    4   1.264   0.691   0.015
    1   AR   Ar    5   6.835   6.070   1.123
    1   AR   Ar    6   0.342   0.353   3.023
    1   AR   Ar    7   0.088   6.320   2.179
    1   AR   Ar    8   0.640   0.096   1.713
    1   AR   Ar    9   0.320   0.897   4.133
    1   AR   Ar   10   6.709   1.720   4.261
    1   AR   Ar   11   2.150   7.023   4.486
    1   AR   Ar   12   1.214   0.780   3.397
    1   AR   Ar   13   6.958   1.104   5.182
    1   AR   Ar   14   0.379   1.477   6.044
    1   AR   Ar   15   0.153   5.950   8.963
    1   AR   Ar   16   0.791   0.657   4.971
    1   AR   Ar   17   6.958   1.916  -0.029
    1   AR   Ar   18   7.089   2.883   0.118
    1   AR   Ar   19   0.748   1.436   0.771
    1   AR   Ar   20   0.282   3.151  -1.678
    1   AR   Ar   21   6.741   0.164   2.051
    1   AR   Ar   22   6.583   2.010   2.349
    1   AR   Ar   23   0.090   1.126   1.975
    1   AR   Ar   24   0.178   2.684   1.311
    1   AR   Ar   25   0.129   1.312   3.042
    1   AR   Ar   26   5.996   2.161   3.537
    1   AR   Ar   27   1.188   1.597   4.396
    1   AR   Ar   28   0.605   2.866   4.414
    1   AR   Ar   29   6.326   1.695   6.171
    1   AR   Ar   30   6.599   3.025   6.710
    1   AR   Ar   31   0.871   1.485   7.044
    1   AR   Ar   32   1.577   2.693   5.079
    1   AR   Ar   33   1.352   3.889  -1.560
    1   AR   Ar   34   0.814   5.262   1.187
    1   AR   Ar   35   0.537   3.709   1.084
    1   AR   Ar   36   1.679   6.455  -1.735
    1   AR   Ar   37   0.039   3.440   2.376
    1   AR   Ar   38   0.603   4.875   2.136
    1   AR   Ar   39   1.133   3.594   2.912
    1   AR   Ar   40   1.262   4.248   1.617
    1   AR   Ar   41   0.700   2.504   2.853
    1   AR   Ar   42   6.616   5.092   5.321
    1   AR   Ar   43   6.826   2.578   5.304
    1   AR   Ar   44   0.261   3.670   3.548
    1   AR   Ar   45   0.445   3.653   5.917
    1   AR   Ar   46   6.605   5.136   6.438
    1   AR   Ar   47   6.857   4.067   6.828
    1   AR   Ar   48   0.080   5.902   6.364
    1   AR   Ar   49   0.674   5.012  -0.962
    1   AR   Ar   50   6.117   5.518   1.602
    1   AR   Ar   51   1.268   4.789  -0.076
    1   AR   Ar   52   0.473   5.514   0.052
    1   AR   Ar   53   6.576   5.370   2.593
    1   AR   Ar   54   6.746   6.207   3.321
    1   AR   Ar   55   0.475   5.612   2.967
    1   AR   Ar   56   1.094   6.081   1.683
    1   AR   Ar   57   7.054   4.397   2.912
    1   AR   Ar   58   0.183   5.879   4.184
    1   AR   Ar   59   2.028   6.116   5.062
    1   AR   Ar   60   0.735   6.987   3.746
    1   AR   Ar   61   6.369   6.406   6.000
    1   AR   Ar   62   0.121   6.247   5.418
    1   AR   Ar   63   1.079   5.360   5.799
    1   AR   Ar   64   1.022   6.735   4.882
    1   AR   Ar   65   2.494   0.277   0.325
    1   AR   Ar   66   2.269   0.911   1.283
    1   AR   Ar   67   3.680   6.069   0.405
    1   AR   Ar   68   3.805   1.037  -0.262
    1   AR   Ar   69   1.607   6.665   0.751
    1   AR   Ar   70   1.577   0.366   2.351
    1   AR   Ar   71   3.318   0.725   1.785
    1   AR   Ar   72   3.613   0.713   0.801
    1   AR   Ar   73   1.919   7.067   3.350
    1   AR   Ar   74   2.217   1.339   5.219
    1   AR   Ar   75   3.097   0.693   4.932
    1   AR   Ar   76   2.651   0.785   2.870
    1   AR   Ar   77   1.985   0.288   5.545
    1   AR   Ar   78   1.103   0.665   6.220
    1   AR   Ar   79   3.616   6.431   7.011
    1   AR   Ar   80   3.011   6.709   5.216
    1   AR   Ar   81   2.142   1.584   0.177
    1   AR   Ar   82   1.608   3.202   0.771
    1   AR   Ar   83   2.937   1.622   1.185
    1   AR   Ar   84   2.072   2.945  -1.412
    1   AR   Ar   85   1.707   2.067   0.977
    1   AR   Ar   86   1.796   2.624   2.545
    1   AR   Ar   87   1.842   1.661   2.007
    1   AR   Ar   88   3.081   3.671   1.361
    1   AR   Ar   89   0.951   2.042   1.768
    1   AR   Ar   90   2.953   2.033   4.811
    1   AR   Ar   91   2.285   2.151   4.062
    1   AR   Ar   92   1.954   1.620   3.239
    1   AR   Ar   93   1.438   1.575   5.818
    1   AR   Ar   94   2.633   1.344   8.551
    1   AR   Ar   95   2.920   7.059   6.481
    1   AR   Ar   96   1.930   2.238   6.966
    1   AR   Ar   97   2.658   3.735  -0.734
    1   AR   Ar   98   3.000   4.688   1.592
    1   AR   Ar   99   3.217   2.952  -1.401
    1   AR   Ar  100   2.432   4.685  -0.173
    1   AR   Ar  101   1.050   3.171   1.841
    1   AR   Ar  102   2.027   4.050   3.763
    1   AR   Ar  103   1.991   3.515   1.685
    1   AR   Ar  104   3.315   3.810   0.382
    1   AR   Ar  105   1.611   3.088   3.856
    1   AR   Ar  106   2.488   3.072   4.631
    1   AR   Ar  107   2.742   3.902   5.498
    1   AR   Ar  108   3.357   3.374   3.742
    1   AR   Ar  109   0.987   3.912   4.276
    1   AR   Ar  110   1.953   4.279   4.898
    1   AR   Ar  111   3.562   5.078   7.069
    1   AR   Ar  112   1.837   3.520   5.834
    1   AR   Ar  113   2.387   4.359   0.810
    1   AR   Ar  114   2.280   5.629   0.960
    1   AR   Ar  115   3.379   5.063   0.260
    1   AR   Ar  116   3.673   7.080   0.100
    1   AR   Ar  117   1.523   4.803   2.967
    1   AR   Ar  118   1.175   6.351   2.711
    1   AR   Ar  119   2.490   4.513   2.538
    1   AR   Ar  120   1.683   5.191   1.758
    1   AR   Ar  121   0.040   4.823   3.947
    1   AR   Ar  122   2.533   6.262   3.979
    1   AR   Ar  123   2.245   5.225   4.313
    1   AR   Ar  124   2.294   5.625   3.070
    1   AR   Ar  125   0.830   5.631   4.874
    1   AR   Ar  126   1.006   6.724   6.312
    1   AR   Ar  127   2.465   5.463   7.466
    1   AR   Ar  128   2.167   6.522   6.072
    1   AR   Ar  129   2.911   6.731   1.296
    1   AR   Ar  130   3.424   6.766  -0.916
    1   AR   Ar  131   4.789   6.117   0.469
    1   AR   Ar  132   5.776   2.346  -0.844
    1   AR   Ar  133   4.151   0.022   2.083
    1   AR   Ar  134   3.814   0.901   2.659
    1   AR   Ar  135   4.922   0.594   3.117
    1   AR   Ar  136   4.521   0.845   1.616
    1   AR   Ar  137   2.899   0.002   3.579
    1   AR   Ar  138   4.620   1.116   4.964
    1   AR   Ar  139   4.611   0.265   4.025
    1   AR   Ar  140   4.176   1.486   3.632
    1   AR   Ar  141   3.639   0.005   4.300
    1   AR   Ar  142   3.906   0.367   5.895
    1   AR   Ar  143   5.209   0.073   6.437
    1   AR   Ar  144   5.126   0.866   7.334
    1   AR   Ar  145   2.854   2.875   0.741
    1   AR   Ar  146   4.069   2.695   1.029
    1   AR   Ar  147   5.169   1.789   0.529
    1   AR   Ar  148   5.757   3.345  -1.609
    1   AR   Ar  149   4.091   1.629   0.971
    1   AR   Ar  150   2.989   1.774   2.597
    1   AR   Ar  151   3.316   2.046   3.710
    1   AR   Ar  152   2.892   3.009   2.083
    1   AR   Ar  153   3.228   1.040   3.944
    1   AR   Ar  154   4.150   2.074   4.506
    1   AR   Ar  155   5.550   1.184   5.678
    1   AR   Ar  156   4.383   3.080   3.633
    1   AR   Ar  157   3.663   1.909   5.663
    1   AR   Ar  158   3.295   2.246   6.745
    1   AR   Ar  159   4.678   1.098   6.345
    1   AR   Ar  160   4.361   3.015   5.653
    1   AR   Ar  161   4.440   2.910  -0.490
    1   AR   Ar  162   4.551   4.935   0.792
    1   AR   Ar  163   5.280   2.941   0.651
    1   AR   Ar  164   5.702   4.522   1.099
    1   AR   Ar  165   3.223   3.759   2.709
    1   AR   Ar  166   3.003   4.823   3.350
    1   AR   Ar  167   4.300   2.889   2.603
    1   AR   Ar  168   4.348   3.792   0.858
    1   AR   Ar  169   2.732   2.812   3.106
    1   AR   Ar  170   3.014   4.215   4.501
    1   AR   Ar  171   3.858   3.411   4.753
    1   AR   Ar  172   4.358   4.430   4.307
    1   AR   Ar  173   3.332   2.906   5.530
    1   AR   Ar  174   3.714   5.121   6.029
    1   AR   Ar  175   3.956   3.976   5.899
    1   AR   Ar  176   3.663   4.696   5.093
    1   AR   Ar  177   5.733   5.452   0.168
    1   AR   Ar  178   4.072   6.189   1.334
    1   AR   Ar  179   3.564   5.299   1.228
    1   AR   Ar  180   4.471   5.069  -0.423
    1   AR   Ar  181   2.956   5.721   2.022
    1   AR   Ar  182   2.144   6.617   2.166
    1   AR   Ar  183   3.710   4.730   2.435
    1   AR   Ar  184   4.123   5.623   2.221
    1   AR   Ar  185   1.209   6.005   3.889
    1   AR   Ar  186   3.643   5.279   4.073
    1   AR   Ar  187   4.465   5.576   3.443
    1   AR   Ar  188   3.584   6.122   3.146
    1   AR   Ar  189   2.224   4.993   5.664
    1   AR   Ar  190   4.719   6.118   6.184
    1   AR   Ar  191   4.767   5.840   5.170
    1   AR   Ar  192   3.595   5.820   5.151
    1   AR   Ar  193   5.772   0.054  -0.099
    1   AR   Ar  194   4.675   0.068  -0.421
    1   AR   Ar  195   5.943   0.927   0.761
    1   AR   Ar  196   6.064   1.196  -1.038
    1   AR   Ar  197   5.139   0.208   0.896
    1   AR   Ar  198   5.437   1.506   1.518
    1   AR   Ar  199   5.439   0.371   2.083
    1   AR   Ar  200   6.828   1.706   1.170
    1   AR   Ar  201   4.889   6.388   2.629
    1   AR   Ar  202   5.366   1.140   4.053
    1   AR   Ar  203   6.823   6.819   4.542
    1   AR   Ar  204   6.062   0.256   3.016
    1   AR   Ar  205   5.758   6.883   4.051
    1   AR   Ar  206   5.005   7.014   5.089
    1   AR   Ar  207   0.063   0.157   5.711
    1   AR   Ar  208   6.366   0.721   4.060
    1   AR   Ar  209   6.710   2.250  -1.403
    1   AR   Ar  210   5.033   2.664   1.730
    1   AR   Ar  211   6.099   2.338   0.829
    1   AR   Ar  212   6.698   3.814  -0.792
    1   AR   Ar  213   3.945   2.132   1.867
    1   AR   Ar  214   3.958   3.347   1.778
    1   AR   Ar  215   5.615   2.671   2.576
    1   AR   Ar  216   6.039   2.898   1.667
    1   AR   Ar  217   5.014   2.192   3.927
    1   AR   Ar  218   5.809   1.806   4.899
    1   AR   Ar  219   5.319   1.606   2.977
    1   AR   Ar  220   6.565   3.117   3.175
    1   AR   Ar  221   6.012   0.162   5.467
    1   AR   Ar  222   4.779   2.072   6.354
    1   AR   Ar  223   6.562   1.296   7.057
    1   AR   Ar  224   5.808   2.929   5.760
    1   AR   Ar  225   5.343   4.171   0.068
    1   AR   Ar  226   4.818   4.383   2.343
    1   AR   Ar  227   6.820   4.156   1.664
    1   AR   Ar  228   6.719   4.877   0.765
    1   AR   Ar  229   6.286   3.694   0.858
    1   AR   Ar  230   4.158   4.021   3.229
    1   AR   Ar  231   0.101   2.399   3.681
    1   AR   Ar  232   5.327   3.656   1.596
    1   AR   Ar  233   6.076   2.966   4.485
    1   AR   Ar  234   5.771   4.115   4.950
    1   AR   Ar  235   6.901   3.617   4.475
    1   AR   Ar  236   5.395   3.564   3.936
    1   AR   Ar  237   5.085   3.180   4.969
    1   AR   Ar  238   4.884   4.365   5.407
    1   AR   Ar  239   6.327   3.803   7.787
    1   AR   Ar  240   6.437   4.021   5.871
    1   AR   Ar  241   6.841   0.647  -0.023
    1   AR   Ar  242   5.177   6.198   1.500
    1   AR   Ar  243   5.962   4.525   2.188
    1   AR   Ar  244   6.632   6.318  -0.426
    1   AR   Ar  245   5.189   5.396   2.213
    1   AR   Ar  246   5.876   6.226   2.421
    1   AR   Ar  247   5.560   3.654   2.668
    1   AR   Ar  248   5.998   6.835   1.294
    1   AR   Ar  249   5.367   4.856   3.087
    1   AR   Ar  250   4.199   6.174   4.318
    1   AR   Ar  251   5.038   5.334   4.398
    1   AR   Ar  252   5.545   5.761   3.547
    1   AR   Ar  253   5.519   5.325   5.621
    1   AR   Ar  254   5.526   5.556   7.030
    1   AR   Ar  255   5.351   4.505   6.706
    1   AR   Ar  256   6.369   6.004   4.857
    7.12000  7.12000 12.00000
Argon-slab step 1020
  256
    1   AR   Ar    1   0.680   0.390  -0.732
    1   AR   Ar    2   6.995   0.648   1.047
    1   AR   Ar    3   0.274   6.854   0.308
    1   AR   Ar    4   1.254   0.706   0.015
    1   AR   Ar    5   6.794   6.109   1.118
    1   AR   Ar    6   0.354   0.369   3.011
    1   AR   Ar    7   0.105   6.329   2.186
    1   AR   Ar    8   0.665   0.094   1.703
    1   AR   Ar    9   0.301   0.898   4.090
    1   AR   Ar   10   6.698   1.748   4.266
    1   AR   Ar   11   2.133   7.044   4.502
    1   AR   Ar   12   1.183   0.808   3.383
    1   AR   Ar   13   6.963   1.097   5.186
    1   AR   Ar   14   0.380   1.449   6.040
    1   AR   Ar   15   0.127   5.940   9.012
    1   AR   Ar   16   0.783   0.647   4.947
    1   AR   Ar   17   6.975   1.921  -0.019
    1   AR   Ar   18   7.089   2.887   0.125
    1   AR   Ar   19   0.753   1.453   0.766
    1   AR   Ar   20   0.304   3.150  -1.711
    1   AR   Ar   21   6.724   0.133   2.039
    1   AR   Ar   22   6.593   1.995   2.363
    1   AR   Ar   23   0.097   1.106   1.992
    1   AR   Ar   24   0.226   2.673   1.269
    1   AR   Ar   25   0.121   1.321   3.015
    1   AR   Ar   26   5.964   2.190   3.536
    1   AR   Ar   27   1.211   1.557   4.354
    1   AR   Ar   28   0.644   2.879   4.414
    1   AR   Ar   29   6.311   1.720   6.174
    1   AR   Ar   30   6.629   3.012   6.706
    1   AR   Ar   31   0.866   1.502   7.036
    1   AR   Ar   32   1.563   2.713   5.069
    1   AR   Ar   33   1.347   3.880  -1.562
    1   AR   Ar   34   0.828   5.286   1.157
    1   AR   Ar   35   0.530   3.705   1.118
    1   AR   Ar   36   1.716   6.460  -1.730
    1   AR   Ar   37   0.060   3.423   2.369
    1   AR   Ar   38   0.598   4.880   2.138
    1   AR   Ar   39   1.116   3.585   2.932
    1   AR   Ar   40   1.265   4.230   1.632
    1   AR   Ar   41   0.692   2.510   2.870
    1   AR   Ar   42   6.608   5.116   5.313
    1   AR   Ar   43   6.844   2.586   5.311
    1   AR   Ar   44   0.253   3.657   3.505
    1   AR   Ar   45   0.416   3.641   5.899
    1   AR   Ar   46   6.610   5.175   6.475
    1   AR   Ar   47   6.869   4.063   6.825
    1   AR   Ar   48   0.125   5.914   6.352
    1   AR   Ar   49   0.689   4.997  -0.949
    1   AR   Ar   50   6.129   5.522   1.606
    1   AR   Ar   51   1.266   4.799  -0.074
    1   AR   Ar   52   0.468   5.536   0.044
    1   AR   Ar   53   6.574   5.368   2.591
    1   AR   Ar   54   6.731   6.212   3.313
    1   AR   Ar   55   0.498   5.611   2.947
    1   AR   Ar   56   1.069   6.076   1.667
    1   AR   Ar   57   7.040   4.396   2.890
    1   AR   Ar   58   0.189   5.880   4.200
    1   AR   Ar   59   1.992   6.109   5.051
    1   AR   Ar   60   0.750   6.982   3.721
    1   AR   Ar   61   6.364   6.381   6.015
    1   AR   Ar   62   0.096   6.241   5.432
    1   AR   Ar   63   1.050   5.366   5.814
    1   AR   Ar   64   1.027   6.740   4.858
    1   AR   Ar   65   2.515   0.290   0.304
    1   AR   Ar   66   2.274   0.906   1.298
    1   AR   Ar   67   3.660   6.078   0.411
    1   AR   Ar   68   3.820   1.024  -0.283
    1   AR   Ar   69   1.620   6.653   0.735
    1   AR   Ar   70   1.580   0.335   2.353
    1   AR   Ar   71   3.355   0.731   1.737
    1   AR   Ar   72   3.668   0.711   0.808
    1   AR   Ar   73   1.925   7.047   3.349
    1   AR   Ar   74   2.238   1.328   5.235
    1   AR   Ar   75   3.088   0.694   4.961
    1   AR   Ar   76   2.657   0.783   2.847
    1   AR   Ar   77   2.027   0.317   5.533
    1   AR   Ar   78   1.104   0.662   6.221
    1   AR   Ar   79   3.606   6.458   7.027
    1   AR   Ar   80   3.034   6.731   5.187
    1   AR   Ar   81   2.131   1.585   0.181
    1   AR   Ar   82   1.605   3.207   0.781
    1   AR   Ar   83   2.921   1.632   1.211
    1   AR   Ar   84   2.068   2.959  -1.397
    1   AR   Ar   85   1.679   2.083   0.950
    1   AR   Ar   86   1.782   2.645   2.543
    1   AR   Ar   87   1.826   1.691   1.998
    1   AR   Ar   88   3.091   3.668   1.371
    1   AR   Ar   89   0.940   2.046   1.765
    1   AR   Ar   90   2.968   2.032   4.802
    1   AR   Ar   91   2.279   2.128   4.069
    1   AR   Ar   92   1.947   1.627   3.234
    1   AR   Ar   93   1.411   1.569   5.804
    1   AR   Ar   94   2.628   1.326   8.563
    1   AR   Ar   95   2.936   7.055   6.482
    1   AR   Ar   96   1.888   2.233   6.933
    1   AR   Ar   97   2.653   3.722  -0.742
    1   AR   Ar   98   2.996   4.709   1.633
    1   AR   Ar   99   3.239   2.970  -1.384
    1   AR   Ar  100   2.475   4.688  -0.170
    1   AR   Ar  101   1.043   3.149   1.817
    1   AR   Ar  102   2.054   4.022   3.776
    1   AR   Ar  103   1.965   3.523   1.684
    1   AR   Ar  104   3.310   3.785   0.384
    1   AR   Ar  105   1.618   3.074   3.834
    1   AR   Ar  106   2.468   3.073   4.624
    1   AR   Ar  107   2.720   3.909   5.451
    1   AR   Ar  108   3.346   3.344   3.725
    1   AR   Ar  109   0.991   3.879   4.276
    1   AR   Ar  110   1.981   4.306   4.928
    1   AR   Ar  111   3.548   5.074   7.048
    1   AR   Ar  112   1.788   3.526   5.815
    1   AR   Ar  113   2.373   4.356   0.798
    1   AR   Ar  114   2.268   5.654   0.946
    1   AR   Ar  115   3.376   5.081   0.253
    1   AR   Ar  116   3.684   7.079   0.101
    1   AR   Ar  117   1.525   4.805   2.953
    1   AR   Ar  118   1.186   6.327   2.709
    1   AR   Ar  119   2.474   4.502   2.525
    1   AR   Ar  120   1.667   5.207   1.757
    1   AR   Ar  121   0.047   4.788   3.927
    1   AR   Ar  122   2.546   6.248   3.997
    1   AR   Ar  123   2.250   5.222   4.305
    1   AR   Ar  124   2.282   5.614   3.052
    1   AR   Ar  125   0.823   5.602   4.881
    1   AR   Ar  126   0.994   6.731   6.320
    1   AR   Ar  127   2.479   5.439   7.443
    1   AR   Ar  128   2.192   6.520   6.063
    1   AR   Ar  129   2.920   6.699   1.297
    1   AR   Ar  130   3.421   6.759  -0.963
    1   AR   Ar  131   4.811   6.112   0.499
    1   AR   Ar  132   5.767   2.367  -0.865
    1   AR   Ar  133   4.144   0.018   2.131
    1   AR   Ar  134   3.817   0.907   2.673
    1   AR   Ar  135   4.908   0.615   3.107
    1   AR   Ar  136   4.521   0.831   1.640
    1   AR   Ar  137   2.898   7.115   3.547
    1   AR   Ar  138   4.616   1.122   4.973
    1   AR   Ar  139   4.586   0.260   4.030
    1   AR   Ar  140   4.165   1.466   3.642
    1   AR   Ar  141   3.629   0.020   4.292
    1   AR   Ar  142   3.899   0.377   5.870
    1   AR   Ar  143   5.222   0.060   6.431
    1   AR   Ar  144   5.132   0.835   7.339
    1   AR   Ar  145   2.833   2.847   0.711
    1   AR   Ar  146   4.050   2.702   1.024
    1   AR   Ar  147   5.180   1.751   0.504
    1   AR   Ar  148   5.754   3.338  -1.621
    1   AR   Ar  149   4.132   1.647   0.973
    1   AR   Ar  150   2.976   1.758   2.629
    1   AR   Ar  151   3.275   2.037   3.722
    1   AR   Ar  152   2.869   3.038   2.074
    1   AR   Ar  153   3.246   1.024   3.947
    1   AR   Ar  154   4.145   2.112   4.494
    1   AR   Ar  155   5.550   1.173   5.679
    1   AR   Ar  156   4.357   3.065   3.641
    1   AR   Ar  157   3.666   1.905   5.674
    1   AR   Ar  158   3.281   2.258   6.733
    1   AR   Ar  159   4.679   1.102   6.362
    1   AR   Ar  160   4.367   3.007   5.657
    1   AR   Ar  161   4.431   2.907  -0.506
    1   AR   Ar  162   4.529   4.928   0.800
    1   AR   Ar  163   5.284   2.949   0.636
    1   AR   Ar  164   5.684   4.499   1.114
    1   AR   Ar  165   3.217   3.759   2.734
    1   AR   Ar  166   2.996   4.796   3.350
    1   AR   Ar  167   4.313   2.881   2.594
    1   AR   Ar  168   4.337   3.760   0.838
    1   AR   Ar  169   2.733   2.819   3.080
    1   AR   Ar  170   3.012   4.207   4.506
    1   AR   Ar  171   3.876   3.383   4.750
    1   AR   Ar  172   4.331   4.385   4.291
    1   AR   Ar  173   3.337   2.896   5.547
    1   AR   Ar  174   3.723   5.119   6.003
    1   AR   Ar  175   3.972   3.981   5.893
    1   AR   Ar  176   3.661   4.708   5.104
    1   AR   Ar  177   5.725   5.456   0.151
    1   AR   Ar  178   4.059   6.183   1.357
    1   AR   Ar  179   3.603   5.316   1.222
    1   AR   Ar  180   4.455   5.068  -0.405
    1   AR   Ar  181   2.957   5.712   2.015
    1   AR   Ar  182   2.155   6.627   2.212
    1   AR   Ar  183   3.692   4.723   2.437
    1   AR   Ar  184   4.136   5.649   2.212
    1   AR   Ar  185   1.230   5.985   3.902
    1   AR   Ar  186   3.630   5.243   4.032
    1   AR   Ar  187   4.471   5.564   3.448
    1   AR   Ar  188   3.560   6.130   3.118
    1   AR   Ar  189   2.217   5.025   5.652
    1   AR   Ar  190   4.698   6.085   6.169
    1   AR   Ar  191   4.775   5.856   5.176
    1   AR   Ar  192   3.632   5.805   5.166
    1   AR   Ar  193   5.828   0.077  -0.113
    1   AR   Ar  194   4.683   0.071  -0.444
    1   AR   Ar  195   5.922   0.921   0.726
    1   AR   Ar  196   6.067   1.195  -1.029
    1   AR   Ar  197   5.138   0.192   0.921
    1   AR   Ar  198   5.429   1.528   1.527
    1   AR   Ar  199   5.436   0.372   2.076
    1   AR   Ar  200   6.833   1.714   1.171
    1   AR   Ar  201   4.908   6.420   2.627
    1   AR   Ar  202   5.366   1.170   4.052
    1   AR   Ar  203   6.824   6.807   4.539
    1   AR   Ar  204   6.036   0.239   3.016
    1   AR   Ar  205   5.786   6.890   4.077
    1   AR   Ar  206   5.016   7.018   5.096
    1   AR   Ar  207   0.044   0.168   5.700
    1   AR   Ar  208   6.375   0.730   4.069
    1   AR   Ar  209   6.694   2.293  -1.427
    1   AR   Ar  210   5.019   2.613   1.758
    1   AR   Ar  211   6.074   2.379   0.794
    1   AR   Ar  212   6.675   3.835  -0.793
    1   AR   Ar  213   3.945   2.142   1.867
    1   AR   Ar  214   3.965   3.348   1.755
    1   AR   Ar  215   5.615   2.642   2.590
    1   AR   Ar  216   6.046   2.888   1.637
    1   AR   Ar  217   5.012   2.167   3.944
    1   AR   Ar  218   5.822   1.809   4.897
    1   AR   Ar  219   5.318   1.606   2.972
    1   AR   Ar  220   6.580   3.156   3.182
    1   AR   Ar  221   5.985   0.146   5.488
    1   AR   Ar  222   4.782   2.085   6.346
    1   AR   Ar  223   6.556   1.279   7.051
    1   AR   Ar  224   5.768   2.940   5.731
    1   AR   Ar  225   5.325   4.154   0.063
    1   AR   Ar  226   4.817   4.398   2.363
    1   AR   Ar  227   6.829   4.135   1.676
    1   AR   Ar  228   6.704   4.890   0.744
    1   AR   Ar  229   6.269   3.693   0.864
    1   AR   Ar  230   4.154   4.059   3.223
    1   AR   Ar  231   0.118   2.409   3.681
    1   AR   Ar  232   5.336   3.681   1.581
    1   AR   Ar  233   6.027   2.928   4.473
    1   AR   Ar  234   5.818   4.145   4.965
    1   AR   Ar  235   6.860   3.608   4.477
    1   AR   Ar  236   5.371   3.554   3.971
    1   AR   Ar  237   5.056   3.186   4.940
    1   AR   Ar  238   4.894   4.346   5.412
    1   AR   Ar  239   6.356   3.782   7.824
    1   AR   Ar  240   6.391   3.995   5.879
    1   AR   Ar  241   6.840   0.676  -0.025
    1   AR   Ar  242   5.166   6.218   1.464
    1   AR   Ar  243   5.954   4.533   2.208
    1   AR   Ar  244   6.671   6.337  -0.466
    1   AR   Ar  245   5.195   5.401   2.225
    1   AR   Ar  246   5.861   6.228   2.429
    1   AR   Ar  247   5.560   3.638   2.693
    1   AR   Ar  248   5.977   6.821   1.299
    1   AR   Ar  249   5.361   4.849   3.071
    1   AR   Ar  250   4.205   6.191   4.300
    1   AR   Ar  251   5.011   5.358   4.414
    1   AR   Ar  252   5.554   5.779   3.552
    1   AR   Ar  253   5.527   5.316   5.645
    1   AR   Ar  254   5.521   5.551   7.046
    1   AR   Ar  255   5.351   4.507   6.710
    1   AR   Ar  256   6.356   6.002   4.853
    7.12000  7.12000 12.00000
Argon-slab step 1025
  256
    1   AR   Ar    1   0.705   0.404  -0.743
    1   AR   Ar    2   6.992   0.658   1.040
    1   AR   Ar    3   0.270   6.856   0.308
    1   AR   Ar    4   1.247   0.727   0.026
    1   AR   Ar    5   6.760   6.152   1.109
    1   AR   Ar    6   0.354   0.352   3.019
    1   AR   Ar    7   0.112   6.334   2.172
    1   AR   Ar    8   0.691   0.092   1.693
    1   AR   Ar    9   0.281   0.900   4.040
    1   AR   Ar   10   6.673   1.742   4.266
    1   AR   Ar   11   2.119   7.039   4.510
    1   AR   Ar   12   1.159   0.840   3.372
    1   AR   Ar   13   6.964   1.092   5.186
    1   AR   Ar   14   0.371   1.419   6.028
    1   AR   Ar   15   0.101   5.930   9.061
    1   AR   Ar   16   0.750   0.667   4.956
    1   AR   Ar   17   6.991   1.913  -0.009
    1   AR   Ar   18   7.083   2.886   0.132
    1   AR   Ar   19   0.756   1.470   0.761
    1   AR   Ar   20   0.326   3.150  -1.744
    1   AR   Ar   21   6.704   0.104   2.027
    1   AR   Ar   22   6.628   1.986   2.348
    1   AR   Ar   23   0.107   1.086   2.007
    1   AR   Ar   24   0.248   2.663   1.238
    1   AR   Ar   25   0.111   1.343   2.993
    1   AR   Ar   26   5.940   2.223   3.536
    1   AR   Ar   27   1.234   1.517   4.312
    1   AR   Ar   28   0.685   2.892   4.418
    1   AR   Ar   29   6.297   1.749   6.170
    1   AR   Ar   30   6.675   2.990   6.683
    1   AR   Ar   31   0.863   1.520   7.027
    1   AR   Ar   32   1.548   2.733   5.058
    1   AR   Ar   33   1.342   3.870  -1.564
    1   AR   Ar   34   0.833   5.298   1.115
    1   AR   Ar   35   0.519   3.702   1.146
    1   AR   Ar   36   1.752   6.465  -1.725
    1   AR   Ar   37   0.086   3.404   2.361
    1   AR   Ar   38   0.590   4.891   2.161
    1   AR   Ar   39   1.103   3.575   2.948
    1   AR   Ar   40   1.263   4.217   1.644
    1   AR   Ar   41   0.688   2.518   2.878
    1   AR   Ar   42   6.602   5.136   5.308
    1   AR   Ar   43   6.861   2.594   5.316
    1   AR   Ar   44   0.253   3.644   3.471
    1   AR   Ar   45   0.386   3.629   5.881
    1   AR   Ar   46   6.605   5.204   6.513
    1   AR   Ar   47   6.883   4.061   6.823
    1   AR   Ar   48   0.183   5.930   6.352
    1   AR   Ar   49   0.703   4.982  -0.939
    1   AR   Ar   50   6.142   5.515   1.613
    1   AR   Ar   51   1.267   4.807  -0.069
    1   AR   Ar   52   0.468   5.545   0.011
    1   AR   Ar   53   6.583   5.368   2.599
    1   AR   Ar   54   6.714   6.219   3.311
    1   AR   Ar   55   0.518   5.605   2.930
    1   AR   Ar   56   1.047   6.086   1.656
    1   AR   Ar   57   7.023   4.399   2.862
    1   AR   Ar   58   0.184   5.886   4.206
    1   AR   Ar   59   1.955   6.100   5.038
    1   AR   Ar   60   0.773   6.965   3.713
    1   AR   Ar   61   6.353   6.357   6.030
    1   AR   Ar   62   0.077   6.238   5.431
    1   AR   Ar   63   1.024   5.371   5.840
    1   AR   Ar   64   1.032   6.741   4.834
    1   AR   Ar   65   2.537   0.303   0.286
    1   AR   Ar   66   2.270   0.889   1.315
    1   AR   Ar   67   3.638   6.086   0.415
    1   AR   Ar   68   3.836   1.011  -0.302
    1   AR   Ar   69   1.635   6.668   0.715
    1   AR   Ar   70   1.579   0.311   2.358
    1   AR   Ar   71   3.386   0.737   1.700
    1   AR   Ar   72   3.726   0.709   0.807
    1   AR   Ar   73   1.920   7.025   3.345
    1   AR   Ar   74   2.263   1.317   5.247
    1   AR   Ar   75   3.079   0.694   4.992
    1   AR   Ar   76   2.661   0.778   2.823
    1   AR   Ar   77   2.068   0.345   5.521
    1   AR   Ar   78   1.098   0.652   6.230
    1   AR   Ar   79   3.599   6.482   7.044
    1   AR   Ar   80   3.056   6.754   5.158
    1   AR   Ar   81   2.124   1.581   0.181
    1   AR   Ar   82   1.600   3.211   0.787
    1   AR   Ar   83   2.915   1.653   1.236
    1   AR   Ar   84   2.064   2.974  -1.383
    1   AR   Ar   85   1.650   2.102   0.928
    1   AR   Ar   86   1.767   2.668   2.542
    1   AR   Ar   87   1.822   1.715   1.993
    1   AR   Ar   88   3.097   3.677   1.375
    1   AR   Ar   89   0.917   2.052   1.761
    1   AR   Ar   90   2.989   2.032   4.798
    1   AR   Ar   91   2.266   2.109   4.075
    1   AR   Ar   92   1.939   1.632   3.223
    1   AR   Ar   93   1.384   1.569   5.791
    1   AR   Ar   94   2.624   1.308   8.575
    1   AR   Ar   95   2.957   7.058   6.481
    1   AR   Ar   96   1.846   2.227   6.899
    1   AR   Ar   97   2.672   3.715  -0.756
    1   AR   Ar   98   2.976   4.715   1.679
    1   AR   Ar   99   3.261   2.988  -1.366
    1   AR   Ar  100   2.516   4.692  -0.172
    1   AR   Ar  101   1.057   3.162   1.821
    1   AR   Ar  102   2.022   4.037   3.784
    1   AR   Ar  103   1.958   3.529   1.688
    1   AR   Ar  104   3.306   3.763   0.380
    1   AR   Ar  105   1.626   3.047   3.852
    1   AR   Ar  106   2.451   3.077   4.616
    1   AR   Ar  107   2.710   3.911   5.413
    1   AR   Ar  108   3.334   3.317   3.714
    1   AR   Ar  109   0.997   3.850   4.276
    1   AR   Ar  110   1.999   4.334   4.947
    1   AR   Ar  111   3.533   5.070   7.029
    1   AR   Ar  112   1.737   3.532   5.796
    1   AR   Ar  113   2.358   4.351   0.792
    1   AR   Ar  114   2.258   5.678   0.933
    1   AR   Ar  115   3.358   5.098   0.266
    1   AR   Ar  116   3.695   7.077   0.099
    1   AR   Ar  117   1.524   4.806   2.938
    1   AR   Ar  118   1.201   6.309   2.707
    1   AR   Ar  119   2.453   4.490   2.509
    1   AR   Ar  120   1.647   5.209   1.778
    1   AR   Ar  121   0.055   4.754   3.907
    1   AR   Ar  122   2.560   6.226   4.013
    1   AR   Ar  123   2.255   5.219   4.296
    1   AR   Ar  124   2.270   5.605   3.033
    1   AR   Ar  125   0.824   5.571   4.888
    1   AR   Ar  126   0.982   6.734   6.326
    1   AR   Ar  127   2.494   5.415   7.419
    1   AR   Ar  128   2.191   6.529   6.049
    1   AR   Ar  129   2.930   6.667   1.297
    1   AR   Ar  130   3.419   6.752  -1.009
    1   AR   Ar  131   4.832   6.107   0.524
    1   AR   Ar  132   5.757   2.389  -0.885
    1   AR   Ar  133   4.136   0.006   2.180
    1   AR   Ar  134   3.820   0.916   2.690
    1   AR   Ar  135   4.894   0.635   3.093
    1   AR   Ar  136   4.522   0.823   1.660
    1   AR   Ar  137   2.908   7.112   3.522
    1   AR   Ar  138   4.613   1.127   4.981
    1   AR   Ar  139   4.583   0.270   4.078
    1   AR   Ar  140   4.147   1.442   3.653
    1   AR   Ar  141   3.621   0.034   4.299
    1   AR   Ar  142   3.892   0.387   5.845
    1   AR   Ar  143   5.236   0.049   6.423
    1   AR   Ar  144   5.138   0.803   7.343
    1   AR   Ar  145   2.810   2.816   0.682
    1   AR   Ar  146   4.033   2.706   1.003
    1   AR   Ar  147   5.205   1.723   0.489
    1   AR   Ar  148   5.753   3.331  -1.631
    1   AR   Ar  149   4.176   1.662   0.971
    1   AR   Ar  150   2.965   1.746   2.661
    1   AR   Ar  151   3.236   2.035   3.732
    1   AR   Ar  152   2.841   3.054   2.070
    1   AR   Ar  153   3.261   1.004   3.949
    1   AR   Ar  154   4.134   2.153   4.487
    1   AR   Ar  155   5.547   1.158   5.680
    1   AR   Ar  156   4.335   3.049   3.653
    1   AR   Ar  157   3.671   1.899   5.685
    1   AR   Ar  158   3.268   2.270   6.718
    1   AR   Ar  159   4.678   1.093   6.378
    1   AR   Ar  160   4.374   2.995   5.668
    1   AR   Ar  161   4.431   2.880  -0.497
    1   AR   Ar  162   4.508   4.921   0.806
    1   AR   Ar  163   5.279   2.966   0.622
    1   AR   Ar  164   5.663   4.488   1.130
    1   AR   Ar  165   3.212   3.761   2.760
    1   AR   Ar  166   2.990   4.768   3.353
    1   AR   Ar  167   4.328   2.872   2.589
    1   AR   Ar  168   4.329   3.730   0.817
    1   AR   Ar  169   2.731   2.821   3.057
    1   AR   Ar  170   3.011   4.195   4.487
    1   AR   Ar  171   3.895   3.357   4.745
    1   AR   Ar  172   4.305   4.339   4.274
    1   AR   Ar  173   3.343   2.895   5.557
    1   AR   Ar  174   3.735   5.121   5.985
    1   AR   Ar  175   3.986   3.987   5.887
    1   AR   Ar  176   3.662   4.720   5.104
    1   AR   Ar  177   5.717   5.458   0.137
    1   AR   Ar  178   4.052   6.193   1.380
    1   AR   Ar  179   3.643   5.330   1.204
    1   AR   Ar  180   4.439   5.067  -0.385
    1   AR   Ar  181   2.958   5.705   2.010
    1   AR   Ar  182   2.170   6.630   2.257
    1   AR   Ar  183   3.673   4.714   2.441
    1   AR   Ar  184   4.150   5.675   2.208
    1   AR   Ar  185   1.255   5.965   3.914
    1   AR   Ar  186   3.618   5.209   3.998
    1   AR   Ar  187   4.487   5.550   3.416
    1   AR   Ar  188   3.535   6.137   3.091
    1   AR   Ar  189   2.212   5.060   5.640
    1   AR   Ar  190   4.677   6.053   6.160
    1   AR   Ar  191   4.773   5.887   5.195
    1   AR   Ar  192   3.669   5.790   5.179
    1   AR   Ar  193   5.805   0.060  -0.115
    1   AR   Ar  194   4.682   0.074  -0.451
    1   AR   Ar  195   5.903   0.915   0.692
    1   AR   Ar  196   6.071   1.196  -1.018
    1   AR   Ar  197   5.132   0.177   0.945
    1   AR   Ar  198   5.422   1.550   1.537
    1   AR   Ar  199   5.434   0.372   2.069
    1   AR   Ar  200   6.838   1.723   1.171
    1   AR   Ar  201   4.917   6.453   2.627
    1   AR   Ar  202   5.365   1.198   4.051
    1   AR   Ar  203   6.832   6.808   4.532
    1   AR   Ar  204   6.012   0.221   3.017
    1   AR   Ar  205   5.813   6.896   4.103
    1   AR   Ar  206   5.024   7.022   5.101
    1   AR   Ar  207   0.025   0.179   5.690
    1   AR   Ar  208   6.381   0.737   4.078
    1   AR   Ar  209   6.678   2.336  -1.450
    1   AR   Ar  210   4.999   2.561   1.779
    1   AR   Ar  211   6.059   2.407   0.750
    1   AR   Ar  212   6.652   3.855  -0.795
    1   AR   Ar  213   3.943   2.150   1.876
    1   AR   Ar  214   3.982   3.356   1.738
    1   AR   Ar  215   5.617   2.604   2.609
    1   AR   Ar  216   6.059   2.883   1.616
    1   AR   Ar  217   5.011   2.147   3.959
    1   AR   Ar  218   5.835   1.815   4.892
    1   AR   Ar  219   5.313   1.605   2.965
    1   AR   Ar  220   6.581   3.188   3.189
    1   AR   Ar  221   5.960   0.131   5.509
    1   AR   Ar  222   4.787   2.110   6.335
    1   AR   Ar  223   6.527   1.289   7.081
    1   AR   Ar  224   5.730   2.951   5.702
    1   AR   Ar  225   5.305   4.141   0.064
    1   AR   Ar  226   4.810   4.407   2.375
    1   AR   Ar  227   6.837   4.119   1.689
    1   AR   Ar  228   6.689   4.904   0.724
    1   AR   Ar  229   6.252   3.686   0.869
    1   AR   Ar  230   4.141   4.071   3.211
    1   AR   Ar  231   0.127   2.417   3.680
    1   AR   Ar  232   5.340   3.700   1.569
    1   AR   Ar  233   6.020   2.925   4.452
    1   AR   Ar  234   5.867   4.172   4.977
    1   AR   Ar  235   6.820   3.600   4.481
    1   AR   Ar  236   5.343   3.548   4.001
    1   AR   Ar  237   5.030   3.194   4.906
    1   AR   Ar  238   4.900   4.327   5.417
    1   AR   Ar  239   6.385   3.762   7.860
    1   AR   Ar  240   6.345   3.969   5.886
    1   AR   Ar  241   6.838   0.705  -0.028
    1   AR   Ar  242   5.155   6.235   1.437
    1   AR   Ar  243   5.953   4.550   2.209
    1   AR   Ar  244   6.691   6.342  -0.449
    1   AR   Ar  245   5.201   5.409   2.232
    1   AR   Ar  246   5.857   6.231   2.436
    1   AR   Ar  247   5.556   3.620   2.706
    1   AR   Ar  248   5.964   6.809   1.305
    1   AR   Ar  249   5.359   4.840   3.066
    1   AR   Ar  250   4.212   6.210   4.280
    1   AR   Ar  251   4.990   5.367   4.410
    1   AR   Ar  252   5.565   5.801   3.556
    1   AR   Ar  253   5.539   5.305   5.672
    1   AR   Ar  254   5.524   5.558   7.030
    1   AR   Ar  255   5.352   4.510   6.711
    1   AR   Ar  256   6.333   5.994   4.849
    7.12000  7.12000 12.00000
Argon-slab step 1030
  256
    1   AR   Ar    1   0.723   0.415  -0.760
    1   AR   Ar    2   6.988   0.665   1.033
    1   AR   Ar    3   0.266   6.858   0.308
    1   AR   Ar    4   1.246   0.752   0.046
    1   AR   Ar    5   6.733   6.196   1.096
    1   AR   Ar    6   0.341   0.316   3.033
    1   AR   Ar    7   0.119   6.334   2.160
    1   AR   Ar    8   0.716   0.089   1.684
    1   AR   Ar    9   0.264   0.903   3.988
    1   AR   Ar   10   6.649   1.737   4.265
    1   AR   Ar   11   2.107   7.030   4.512
    1   AR   Ar   12   1.141   0.876   3.362
    1   AR   Ar   13   6.955   1.091   5.181
    1   AR   Ar   14   0.357   1.389   6.019
    1   AR   Ar   15   0.074   5.920   9.111
    1   AR   Ar   16   0.709   0.710   4.954
    1   AR   Ar   17   7.004   1.891   0.001
    1   AR   Ar   18   7.065   2.871   0.137
    1   AR   Ar   19   0.758   1.487   0.758
    1   AR   Ar   20   0.348   3.150  -1.776
    1   AR   Ar   21   6.681   0.078   2.017
    1   AR   Ar   22   6.656   1.986   2.334
    1   AR   Ar   23   0.119   1.066   2.018
    1   AR   Ar   24   0.235   2.653   1.224
    1   AR   Ar   25   0.101   1.375   2.979
    1   AR   Ar   26   5.925   2.257   3.540
    1   AR   Ar   27   1.258   1.477   4.270
    1   AR   Ar   28   0.723   2.902   4.425
    1   AR   Ar   29   6.285   1.783   6.162
    1   AR   Ar   30   6.721   2.967   6.658
    1   AR   Ar   31   0.860   1.537   7.017
    1   AR   Ar   32   1.532   2.750   5.047
    1   AR   Ar   33   1.337   3.860  -1.564
    1   AR   Ar   34   0.833   5.298   1.062
    1   AR   Ar   35   0.503   3.700   1.166
    1   AR   Ar   36   1.788   6.471  -1.720
    1   AR   Ar   37   0.115   3.383   2.352
    1   AR   Ar   38   0.583   4.902   2.181
    1   AR   Ar   39   1.098   3.564   2.958
    1   AR   Ar   40   1.257   4.215   1.658
    1   AR   Ar   41   0.692   2.529   2.874
    1   AR   Ar   42   6.598   5.149   5.308
    1   AR   Ar   43   6.877   2.602   5.320
    1   AR   Ar   44   0.263   3.635   3.451
    1   AR   Ar   45   0.355   3.616   5.863
    1   AR   Ar   46   6.593   5.227   6.550
    1   AR   Ar   47   6.897   4.060   6.822
    1   AR   Ar   48   0.247   5.946   6.362
    1   AR   Ar   49   0.715   4.967  -0.931
    1   AR   Ar   50   6.151   5.503   1.620
    1   AR   Ar   51   1.271   4.815  -0.060
    1   AR   Ar   52   0.465   5.556  -0.020
    1   AR   Ar   53   6.607   5.371   2.621
    1   AR   Ar   54   6.696   6.228   3.308
    1   AR   Ar   55   0.532   5.595   2.919
    1   AR   Ar   56   1.027   6.109   1.652
    1   AR   Ar   57   7.003   4.405   2.831
    1   AR   Ar   58   0.172   5.895   4.204
    1   AR   Ar   59   1.918   6.090   5.024
    1   AR   Ar   60   0.805   6.937   3.721
    1   AR   Ar   61   6.338   6.332   6.046
    1   AR   Ar   62   0.063   6.238   5.415
    1   AR   Ar   63   1.000   5.375   5.875
    1   AR   Ar   64   1.037   6.739   4.810
    1   AR   Ar   65   2.560   0.316   0.269
    1   AR   Ar   66   2.261   0.866   1.332
    1   AR   Ar   67   3.617   6.096   0.417
    1   AR   Ar   68   3.852   0.996  -0.321
    1   AR   Ar   69   1.650   6.684   0.696
    1   AR   Ar   70   1.573   0.295   2.364
    1   AR   Ar   71   3.408   0.744   1.681
    1   AR   Ar   72   3.789   0.709   0.790
    1   AR   Ar   73   1.907   7.002   3.340
    1   AR   Ar   74   2.255   1.315   5.238
    1   AR   Ar   75   3.073   0.700   5.021
    1   AR   Ar   76   2.662   0.769   2.800
    1   AR   Ar   77   2.107   0.369   5.510
    1   AR   Ar   78   1.093   0.642   6.238
    1   AR   Ar   79   3.618   6.500   7.037
    1   AR   Ar   80   3.080   6.773   5.128
    1   AR   Ar   81   2.119   1.574   0.180
    1   AR   Ar   82   1.592   3.214   0.789
    1   AR   Ar   83   2.915   1.682   1.261
    1   AR   Ar   84   2.061   2.990  -1.368
    1   AR   Ar   85   1.620   2.125   0.912
    1   AR   Ar   86   1.752   2.692   2.540
    1   AR   Ar   87   1.829   1.734   1.991
    1   AR   Ar   88   3.099   3.698   1.370
    1   AR   Ar   89   0.886   2.060   1.757
    1   AR   Ar   90   3.015   2.031   4.798
    1   AR   Ar   91   2.245   2.094   4.083
    1   AR   Ar   92   1.930   1.636   3.206
    1   AR   Ar   93   1.359   1.571   5.777
    1   AR   Ar   94   2.619   1.289   8.586
    1   AR   Ar   95   2.978   7.067   6.478
    1   AR   Ar   96   1.803   2.221   6.864
    1   AR   Ar   97   2.707   3.712  -0.773
    1   AR   Ar   98   2.952   4.717   1.717
    1   AR   Ar   99   3.283   3.006  -1.348
    1   AR   Ar  100   2.554   4.695  -0.180
    1   AR   Ar  101   1.070   3.175   1.838
    1   AR   Ar  102   1.993   4.056   3.793
    1   AR   Ar  103   1.974   3.534   1.697
    1   AR   Ar  104   3.302   3.743   0.369
    1   AR   Ar  105   1.633   3.016   3.868
    1   AR   Ar  106   2.439   3.084   4.607
    1   AR   Ar  107   2.714   3.910   5.393
    1   AR   Ar  108   3.322   3.293   3.711
    1   AR   Ar  109   1.006   3.828   4.276
    1   AR   Ar  110   1.999   4.367   4.950
    1   AR   Ar  111   3.517   5.067   7.013
    1   AR   Ar  112   1.686   3.539   5.776
    1   AR   Ar  113   2.343   4.344   0.791
    1   AR   Ar  114   2.249   5.702   0.921
    1   AR   Ar  115   3.340   5.110   0.274
    1   AR   Ar  116   3.706   7.075   0.092
    1   AR   Ar  117   1.520   4.807   2.922
    1   AR   Ar  118   1.223   6.298   2.707
    1   AR   Ar  119   2.426   4.475   2.494
    1   AR   Ar  120   1.633   5.210   1.804
    1   AR   Ar  121   0.063   4.719   3.887
    1   AR   Ar  122   2.575   6.201   4.029
    1   AR   Ar  123   2.260   5.214   4.287
    1   AR   Ar  124   2.259   5.597   3.015
    1   AR   Ar  125   0.821   5.557   4.880
    1   AR   Ar  126   0.970   6.734   6.329
    1   AR   Ar  127   2.510   5.391   7.395
    1   AR   Ar  128   2.186   6.534   6.032
    1   AR   Ar  129   2.941   6.634   1.297
    1   AR   Ar  130   3.443   6.755  -1.027
    1   AR   Ar  131   4.846   6.099   0.537
    1   AR   Ar  132   5.746   2.410  -0.904
    1   AR   Ar  133   4.127   7.110   2.231
    1   AR   Ar  134   3.840   0.951   2.667
    1   AR   Ar  135   4.879   0.653   3.078
    1   AR   Ar  136   4.524   0.820   1.679
    1   AR   Ar  137   2.935   7.113   3.527
    1   AR   Ar  138   4.610   1.133   4.988
    1   AR   Ar  139   4.591   0.285   4.135
    1   AR   Ar  140   4.137   1.419   3.662
    1   AR   Ar  141   3.608   0.045   4.310
    1   AR   Ar  142   3.886   0.397   5.818
    1   AR   Ar  143   5.249   0.038   6.414
    1   AR   Ar  144   5.145   0.771   7.346
    1   AR   Ar  145   2.787   2.784   0.655
    1   AR   Ar  146   4.017   2.707   0.970
    1   AR   Ar  147   5.233   1.698   0.477
    1   AR   Ar  148   5.752   3.323  -1.641
    1   AR   Ar  149   4.221   1.675   0.968
    1   AR   Ar  150   2.945   1.743   2.673
    1   AR   Ar  151   3.200   2.037   3.738
    1   AR   Ar  152   2.812   3.056   2.070
    1   AR   Ar  153   3.271   0.980   3.952
    1   AR   Ar  154   4.117   2.195   4.485
    1   AR   Ar  155   5.541   1.140   5.682
    1   AR   Ar  156   4.318   3.031   3.669
    1   AR   Ar  157   3.678   1.889   5.696
    1   AR   Ar  158   3.255   2.283   6.702
    1   AR   Ar  159   4.676   1.078   6.392
    1   AR   Ar  160   4.382   2.980   5.683
    1   AR   Ar  161   4.431   2.854  -0.487
    1   AR   Ar  162   4.492   4.912   0.811
    1   AR   Ar  163   5.259   2.992   0.607
    1   AR   Ar  164   5.646   4.498   1.138
    1   AR   Ar  165   3.209   3.765   2.784
    1   AR   Ar  166   2.979   4.736   3.354
    1   AR   Ar  167   4.345   2.862   2.589
    1   AR   Ar  168   4.324   3.702   0.793
    1   AR   Ar  169   2.723   2.817   3.038
    1   AR   Ar  170   3.011   4.183   4.457
    1   AR   Ar  171   3.914   3.333   4.737
    1   AR   Ar  172   4.308   4.364   4.246
    1   AR   Ar  173   3.378   2.922   5.540
    1   AR   Ar  174   3.749   5.128   5.981
    1   AR   Ar  175   3.998   3.993   5.880
    1   AR   Ar  176   3.664   4.725   5.091
    1   AR   Ar  177   5.709   5.461   0.125
    1   AR   Ar  178   4.050   6.224   1.398
    1   AR   Ar  179   3.640   5.303   1.165
    1   AR   Ar  180   4.423   5.067  -0.362
    1   AR   Ar  181   2.959   5.702   2.007
    1   AR   Ar  182   2.191   6.625   2.302
    1   AR   Ar  183   3.657   4.705   2.448
    1   AR   Ar  184   4.165   5.695   2.216
    1   AR   Ar  185   1.281   5.946   3.926
    1   AR   Ar  186   3.611   5.178   3.971
    1   AR   Ar  187   4.503   5.535   3.381
    1   AR   Ar  188   3.509   6.143   3.064
    1   AR   Ar  189   2.208   5.090   5.635
    1   AR   Ar  190   4.655   6.022   6.163
    1   AR   Ar  191   4.768   5.927   5.215
    1   AR   Ar  192   3.705   5.780   5.188
    1   AR   Ar  193   5.782   0.042  -0.116
    1   AR   Ar  194   4.675   0.076  -0.447
    1   AR   Ar  195   5.888   0.909   0.658
    1   AR   Ar  196   6.076   1.198  -1.006
    1   AR   Ar  197   5.121   0.162   0.967
    1   AR   Ar  198   5.415   1.571   1.549
    1   AR   Ar  199   5.431   0.370   2.061
    1   AR   Ar  200   6.841   1.732   1.171
    1   AR   Ar  201   4.914   6.489   2.629
    1   AR   Ar  202   5.365   1.219   4.050
    1   AR   Ar  203   6.845   6.820   4.523
    1   AR   Ar  204   5.987   0.202   3.019
    1   AR   Ar  205   5.839   6.901   4.129
    1   AR   Ar  206   5.029   7.026   5.105
    1   AR   Ar  207   0.007   0.188   5.681
    1   AR   Ar  208   6.383   0.741   4.087
    1   AR   Ar  209   6.664   2.379  -1.473
    1   AR   Ar  210   4.976   2.510   1.794
    1   AR   Ar  211   6.059   2.421   0.699
    1   AR   Ar  212   6.628   3.873  -0.797
    1   AR   Ar  213   3.938   2.156   1.891
    1   AR   Ar  214   4.002   3.371   1.734
    1   AR   Ar  215   5.623   2.562   2.628
    1   AR   Ar  216   6.086   2.893   1.614
    1   AR   Ar  217   5.007   2.133   3.974
    1   AR   Ar  218   5.846   1.823   4.886
    1   AR   Ar  219   5.307   1.603   2.956
    1   AR   Ar  220   6.563   3.209   3.191
    1   AR   Ar  221   5.940   0.118   5.530
    1   AR   Ar  222   4.792   2.142   6.322
    1   AR   Ar  223   6.513   1.306   7.078
    1   AR   Ar  224   5.694   2.961   5.673
    1   AR   Ar  225   5.279   4.152   0.079
    1   AR   Ar  226   4.795   4.409   2.378
    1   AR   Ar  227   6.843   4.107   1.701
    1   AR   Ar  228   6.673   4.918   0.706
    1   AR   Ar  229   6.239   3.674   0.871
    1   AR   Ar  230   4.130   4.083   3.200
    1   AR   Ar  231   0.128   2.424   3.684
    1   AR   Ar  232   5.336   3.704   1.568
    1   AR   Ar  233   6.015   2.914   4.434
    1   AR   Ar  234   5.916   4.199   4.984
    1   AR   Ar  235   6.784   3.594   4.484
    1   AR   Ar  236   5.313   3.547   4.022
    1   AR   Ar  237   5.004   3.201   4.872
    1   AR   Ar  238   4.905   4.310   5.420
    1   AR   Ar  239   6.414   3.741   7.894
    1   AR   Ar  240   6.301   3.942   5.895
    1   AR   Ar  241   6.837   0.735  -0.032
    1   AR   Ar  242   5.152   6.247   1.429
    1   AR   Ar  243   5.957   4.573   2.197
    1   AR   Ar  244   6.711   6.348  -0.429
    1   AR   Ar  245   5.207   5.419   2.235
    1   AR   Ar  246   5.868   6.233   2.441
    1   AR   Ar  247   5.536   3.568   2.657
    1   AR   Ar  248   5.978   6.791   1.317
    1   AR   Ar  249   5.364   4.833   3.076
    1   AR   Ar  250   4.218   6.228   4.261
    1   AR   Ar  251   4.972   5.365   4.392
    1   AR   Ar  252   5.577   5.826   3.558
    1   AR   Ar  253   5.560   5.311   5.702
    1   AR   Ar  254   5.541   5.572   7.022
    1   AR   Ar  255   5.354   4.513   6.710
    1   AR   Ar  256   6.321   5.985   4.834
    7.12000  7.12000 12.00000
Argon-slab step 1035
  256
    1   AR   Ar    1   0.737   0.423  -0.781
    1   AR   Ar    2   6.985   0.670   1.027
    1   AR   Ar    3   0.261   6.862   0.310
    1   AR   Ar    4   1.249   0.778   0.073
    1   AR   Ar    5   6.720   6.235   1.079
    1   AR   Ar    6   0.316   0.283   3.031
    1   AR   Ar    7   0.127   6.331   2.151
    1   AR   Ar    8   0.723   0.103   1.685
    1   AR   Ar    9   0.252   0.907   3.937
    1   AR   Ar   10   6.682   1.722   4.302
    1   AR   Ar   11   2.094   7.023   4.514
    1   AR   Ar   12   1.129   0.912   3.352
    1   AR   Ar   13   6.930   1.098   5.173
    1   AR   Ar   14   0.365   1.381   5.979
    1   AR   Ar   15   0.055   5.912   9.131
    1   AR   Ar   16   0.682   0.748   4.950
    1   AR   Ar   17   7.008   1.882   0.022
    1   AR   Ar   18   7.047   2.867   0.146
    1   AR   Ar   19   0.756   1.504   0.755
    1   AR   Ar   20   0.370   3.151  -1.807
    1   AR   Ar   21   6.657   0.056   2.007
    1   AR   Ar   22   6.661   2.018   2.330
    1   AR   Ar   23   0.132   1.043   2.022
    1   AR   Ar   24   0.219   2.648   1.208
    1   AR   Ar   25   0.092   1.409   2.976
    1   AR   Ar   26   5.921   2.290   3.550
    1   AR   Ar   27   1.282   1.438   4.229
    1   AR   Ar   28   0.751   2.901   4.433
    1   AR   Ar   29   6.273   1.819   6.149
    1   AR   Ar   30   6.767   2.945   6.631
    1   AR   Ar   31   0.856   1.500   7.031
    1   AR   Ar   32   1.521   2.767   5.039
    1   AR   Ar   33   1.331   3.849  -1.565
    1   AR   Ar   34   0.830   5.292   1.006
    1   AR   Ar   35   0.485   3.697   1.177
    1   AR   Ar   36   1.824   6.476  -1.714
    1   AR   Ar   37   0.147   3.359   2.344
    1   AR   Ar   38   0.576   4.910   2.195
    1   AR   Ar   39   1.108   3.553   2.961
    1   AR   Ar   40   1.245   4.223   1.672
    1   AR   Ar   41   0.700   2.540   2.861
    1   AR   Ar   42   6.598   5.155   5.313
    1   AR   Ar   43   6.891   2.611   5.324
    1   AR   Ar   44   0.277   3.633   3.446
    1   AR   Ar   45   0.322   3.603   5.845
    1   AR   Ar   46   6.579   5.249   6.585
    1   AR   Ar   47   6.910   4.060   6.821
    1   AR   Ar   48   0.311   5.961   6.381
    1   AR   Ar   49   0.726   4.951  -0.926
    1   AR   Ar   50   6.157   5.490   1.629
    1   AR   Ar   51   1.280   4.820  -0.046
    1   AR   Ar   52   0.457   5.562  -0.032
    1   AR   Ar   53   6.630   5.376   2.643
    1   AR   Ar   54   6.678   6.239   3.305
    1   AR   Ar   55   0.541   5.584   2.917
    1   AR   Ar   56   1.011   6.138   1.649
    1   AR   Ar   57   6.982   4.409   2.798
    1   AR   Ar   58   0.154   5.907   4.195
    1   AR   Ar   59   1.881   6.077   5.011
    1   AR   Ar   60   0.844   6.900   3.740
    1   AR   Ar   61   6.321   6.306   6.062
    1   AR   Ar   62   0.052   6.240   5.389
    1   AR   Ar   63   0.980   5.378   5.914
    1   AR   Ar   64   1.040   6.737   4.785
    1   AR   Ar   65   2.582   0.330   0.254
    1   AR   Ar   66   2.249   0.840   1.349
    1   AR   Ar   67   3.596   6.106   0.421
    1   AR   Ar   68   3.868   0.980  -0.337
    1   AR   Ar   69   1.666   6.700   0.678
    1   AR   Ar   70   1.561   0.286   2.372
    1   AR   Ar   71   3.423   0.752   1.677
    1   AR   Ar   72   3.847   0.709   0.769
    1   AR   Ar   73   1.889   6.977   3.337
    1   AR   Ar   74   2.226   1.288   5.213
    1   AR   Ar   75   3.078   0.725   5.040
    1   AR   Ar   76   2.661   0.755   2.776
    1   AR   Ar   77   2.144   0.382   5.502
    1   AR   Ar   78   1.089   0.633   6.246
    1   AR   Ar   79   3.642   6.514   7.033
    1   AR   Ar   80   3.120   6.780   5.092
    1   AR   Ar   81   2.116   1.563   0.178
    1   AR   Ar   82   1.583   3.217   0.789
    1   AR   Ar   83   2.919   1.715   1.285
    1   AR   Ar   84   2.058   3.007  -1.353
    1   AR   Ar   85   1.640   2.138   0.929
    1   AR   Ar   86   1.737   2.716   2.539
    1   AR   Ar   87   1.844   1.751   1.990
    1   AR   Ar   88   3.098   3.726   1.360
    1   AR   Ar   89   0.851   2.067   1.757
    1   AR   Ar   90   3.044   2.031   4.801
    1   AR   Ar   91   2.217   2.081   4.095
    1   AR   Ar   92   1.921   1.638   3.185
    1   AR   Ar   93   1.346   1.576   5.760
    1   AR   Ar   94   2.615   1.271   8.598
    1   AR   Ar   95   2.998   7.081   6.471
    1   AR   Ar   96   1.760   2.214   6.828
    1   AR   Ar   97   2.741   3.711  -0.787
    1   AR   Ar   98   2.930   4.716   1.736
    1   AR   Ar   99   3.307   3.017  -1.336
    1   AR   Ar  100   2.583   4.694  -0.194
    1   AR   Ar  101   1.074   3.178   1.860
    1   AR   Ar  102   1.975   4.066   3.797
    1   AR   Ar  103   2.008   3.540   1.707
    1   AR   Ar  104   3.328   3.748   0.348
    1   AR   Ar  105   1.641   2.984   3.882
    1   AR   Ar  106   2.431   3.092   4.598
    1   AR   Ar  107   2.721   3.939   5.395
    1   AR   Ar  108   3.308   3.273   3.717
    1   AR   Ar  109   1.020   3.822   4.273
    1   AR   Ar  110   1.981   4.402   4.938
    1   AR   Ar  111   3.501   5.065   6.998
    1   AR   Ar  112   1.635   3.547   5.754
    1   AR   Ar  113   2.327   4.335   0.796
    1   AR   Ar  114   2.242   5.725   0.911
    1   AR   Ar  115   3.324   5.116   0.269
    1   AR   Ar  116   3.715   7.074   0.081
    1   AR   Ar  117   1.512   4.808   2.908
    1   AR   Ar  118   1.249   6.293   2.707
    1   AR   Ar  119   2.390   4.456   2.487
    1   AR   Ar  120   1.622   5.211   1.832
    1   AR   Ar  121   0.072   4.684   3.867
    1   AR   Ar  122   2.590   6.176   4.042
    1   AR   Ar  123   2.266   5.207   4.277
    1   AR   Ar  124   2.249   5.591   2.996
    1   AR   Ar  125   0.808   5.569   4.854
    1   AR   Ar  126   0.958   6.731   6.330
    1   AR   Ar  127   2.526   5.367   7.370
    1   AR   Ar  128   2.179   6.536   6.012
    1   AR   Ar  129   2.952   6.601   1.296
    1   AR   Ar  130   3.484   6.765  -1.027
    1   AR   Ar  131   4.853   6.088   0.530
    1   AR   Ar  132   5.735   2.431  -0.921
    1   AR   Ar  133   4.117   7.091   2.281
    1   AR   Ar  134   3.860   0.988   2.646
    1   AR   Ar  135   4.863   0.668   3.062
    1   AR   Ar  136   4.525   0.819   1.696
    1   AR   Ar  137   2.963   7.113   3.530
    1   AR   Ar  138   4.607   1.138   4.995
    1   AR   Ar  139   4.605   0.303   4.192
    1   AR   Ar  140   4.135   1.398   3.668
    1   AR   Ar  141   3.597   0.054   4.322
    1   AR   Ar  142   3.879   0.407   5.790
    1   AR   Ar  143   5.261   0.027   6.402
    1   AR   Ar  144   5.152   0.738   7.349
    1   AR   Ar  145   2.763   2.752   0.630
    1   AR   Ar  146   4.005   2.688   0.963
    1   AR   Ar  147   5.257   1.678   0.463
    1   AR   Ar  148   5.753   3.313  -1.649
    1   AR   Ar  149   4.269   1.685   0.965
    1   AR   Ar  150   2.922   1.749   2.671
    1   AR   Ar  151   3.172   2.042   3.739
    1   AR   Ar  152   2.784   3.050   2.069
    1   AR   Ar  153   3.274   0.956   3.955
    1   AR   Ar  154   4.095   2.238   4.487
    1   AR   Ar  155   5.534   1.121   5.684
    1   AR   Ar  156   4.306   3.012   3.687
    1   AR   Ar  157   3.688   1.879   5.706
    1   AR   Ar  158   3.242   2.295   6.684
    1   AR   Ar  159   4.673   1.060   6.404
    1   AR   Ar  160   4.396   2.963   5.701
    1   AR   Ar  161   4.433   2.828  -0.476
    1   AR   Ar  162   4.451   4.910   0.843
    1   AR   Ar  163   5.229   3.027   0.594
    1   AR   Ar  164   5.633   4.529   1.137
    1   AR   Ar  165   3.204   3.771   2.804
    1   AR   Ar  166   2.963   4.698   3.352
    1   AR   Ar  167   4.363   2.854   2.593
    1   AR   Ar  168   4.323   3.680   0.767
    1   AR   Ar  169   2.710   2.806   3.025
    1   AR   Ar  170   3.011   4.171   4.418
    1   AR   Ar  171   3.932   3.312   4.725
    1   AR   Ar  172   4.319   4.404   4.215
    1   AR   Ar  173   3.387   2.922   5.528
    1   AR   Ar  174   3.766   5.136   5.990
    1   AR   Ar  175   4.006   3.999   5.873
    1   AR   Ar  176   3.667   4.722   5.067
    1   AR   Ar  177   5.700   5.462   0.114
    1   AR   Ar  178   4.049   6.268   1.408
    1   AR   Ar  179   3.634   5.280   1.148
    1   AR   Ar  180   4.407   5.066  -0.336
    1   AR   Ar  181   2.960   5.704   2.006
    1   AR   Ar  182   2.220   6.612   2.345
    1   AR   Ar  183   3.645   4.698   2.458
    1   AR   Ar  184   4.179   5.709   2.235
    1   AR   Ar  185   1.310   5.928   3.937
    1   AR   Ar  186   3.611   5.157   3.961
    1   AR   Ar  187   4.519   5.521   3.343
    1   AR   Ar  188   3.478   6.156   3.035
    1   AR   Ar  189   2.206   5.088   5.650
    1   AR   Ar  190   4.631   5.994   6.184
    1   AR   Ar  191   4.766   5.969   5.222
    1   AR   Ar  192   3.740   5.776   5.193
    1   AR   Ar  193   5.760   0.026  -0.115
    1   AR   Ar  194   4.669   0.079  -0.442
    1   AR   Ar  195   5.877   0.899   0.625
    1   AR   Ar  196   6.081   1.201  -0.992
    1   AR   Ar  197   5.106   0.149   0.988
    1   AR   Ar  198   5.410   1.590   1.561
    1   AR   Ar  199   5.429   0.367   2.054
    1   AR   Ar  200   6.843   1.740   1.172
    1   AR   Ar  201   4.905   6.525   2.633
    1   AR   Ar  202   5.369   1.228   4.050
    1   AR   Ar  203   6.862   6.838   4.513
    1   AR   Ar  204   5.963   0.182   3.022
    1   AR   Ar  205   5.862   6.906   4.154
    1   AR   Ar  206   5.028   7.028   5.106
    1   AR   Ar  207   7.110   0.193   5.673
    1   AR   Ar  208   6.379   0.740   4.097
    1   AR   Ar  209   6.650   2.423  -1.497
    1   AR   Ar  210   4.952   2.462   1.804
    1   AR   Ar  211   6.069   2.426   0.644
    1   AR   Ar  212   6.604   3.891  -0.798
    1   AR   Ar  213   3.929   2.160   1.908
    1   AR   Ar  214   4.025   3.389   1.739
    1   AR   Ar  215   5.629   2.539   2.616
    1   AR   Ar  216   6.114   2.903   1.619
    1   AR   Ar  217   4.999   2.130   3.987
    1   AR   Ar  218   5.853   1.834   4.883
    1   AR   Ar  219   5.300   1.601   2.947
    1   AR   Ar  220   6.527   3.220   3.190
    1   AR   Ar  221   5.929   0.106   5.547
    1   AR   Ar  222   4.797   2.175   6.308
    1   AR   Ar  223   6.510   1.329   7.053
    1   AR   Ar  224   5.660   2.971   5.643
    1   AR   Ar  225   5.252   4.162   0.096
    1   AR   Ar  226   4.775   4.406   2.372
    1   AR   Ar  227   6.843   4.111   1.680
    1   AR   Ar  228   6.656   4.933   0.689
    1   AR   Ar  229   6.226   3.659   0.870
    1   AR   Ar  230   4.120   4.094   3.192
    1   AR   Ar  231   0.121   2.431   3.694
    1   AR   Ar  232   5.332   3.685   1.572
    1   AR   Ar  233   6.010   2.896   4.419
    1   AR   Ar  234   5.963   4.227   4.985
    1   AR   Ar  235   6.753   3.591   4.487
    1   AR   Ar  236   5.284   3.555   4.026
    1   AR   Ar  237   4.974   3.204   4.848
    1   AR   Ar  238   4.911   4.293   5.423
    1   AR   Ar  239   6.444   3.721   7.927
    1   AR   Ar  240   6.258   3.913   5.908
    1   AR   Ar  241   6.834   0.765  -0.038
    1   AR   Ar  242   5.148   6.256   1.444
    1   AR   Ar  243   5.961   4.593   2.184
    1   AR   Ar  244   6.731   6.354  -0.408
    1   AR   Ar  245   5.203   5.409   2.229
    1   AR   Ar  246   5.889   6.237   2.444
    1   AR   Ar  247   5.516   3.525   2.610
    1   AR   Ar  248   5.998   6.780   1.331
    1   AR   Ar  249   5.375   4.828   3.097
    1   AR   Ar  250   4.225   6.246   4.241
    1   AR   Ar  251   4.954   5.358   4.368
    1   AR   Ar  252   5.576   5.782   3.576
    1   AR   Ar  253   5.581   5.317   5.732
    1   AR   Ar  254   5.558   5.586   7.011
    1   AR   Ar  255   5.357   4.515   6.707
    1   AR   Ar  256   6.316   5.981   4.810
    7.12000  7.12000 12.00000
Argon-slab step 1040
  256
    1   AR   Ar    1   0.748   0.429  -0.804
    1   AR   Ar    2   6.982   0.671   1.022
    1   AR   Ar    3   0.257   6.866   0.313
    1   AR   Ar    4   1.222   0.779   0.087
    1   AR   Ar    5   6.730   6.260   1.055
    1   AR   Ar    6   0.285   0.252   3.022
    1   AR   Ar    7   0.131   6.324   2.146
    1   AR   Ar    8   0.705   0.142   1.702
    1   AR   Ar    9   0.244   0.911   3.888
    1   AR   Ar   10   6.721   1.710   4.334
    1   AR   Ar   11   2.083   7.019   4.513
    1   AR   Ar   12   1.119   0.944   3.335
    1   AR   Ar   13   6.884   1.111   5.161
    1   AR   Ar   14   0.368   1.375   5.944
    1   AR   Ar   15   0.046   5.909   9.107
    1   AR   Ar   16   0.671   0.778   4.944
    1   AR   Ar   17   7.019   1.873   0.030
    1   AR   Ar   18   7.028   2.873   0.157
    1   AR   Ar   19   0.753   1.520   0.752
    1   AR   Ar   20   0.392   3.152  -1.837
    1   AR   Ar   21   6.635   0.039   2.001
    1   AR   Ar   22   6.664   2.053   2.323
    1   AR   Ar   23   0.146   1.019   2.021
    1   AR   Ar   24   0.201   2.649   1.190
    1   AR   Ar   25   0.086   1.445   2.981
    1   AR   Ar   26   5.925   2.320   3.564
    1   AR   Ar   27   1.307   1.402   4.192
    1   AR   Ar   28   0.764   2.887   4.439
    1   AR   Ar   29   6.262   1.857   6.132
    1   AR   Ar   30   6.811   2.923   6.602
    1   AR   Ar   31   0.852   1.463   7.042
    1   AR   Ar   32   1.542   2.792   5.060
    1   AR   Ar   33   1.325   3.839  -1.564
    1   AR   Ar   34   0.827   5.284   0.949
    1   AR   Ar   35   0.470   3.692   1.181
    1   AR   Ar   36   1.853   6.486  -1.707
    1   AR   Ar   37   0.176   3.335   2.336
    1   AR   Ar   38   0.570   4.912   2.199
    1   AR   Ar   39   1.133   3.543   2.955
    1   AR   Ar   40   1.233   4.236   1.687
    1   AR   Ar   41   0.711   2.551   2.842
    1   AR   Ar   42   6.601   5.156   5.323
    1   AR   Ar   43   6.904   2.620   5.326
    1   AR   Ar   44   0.286   3.634   3.455
    1   AR   Ar   45   0.287   3.589   5.827
    1   AR   Ar   46   6.563   5.270   6.618
    1   AR   Ar   47   6.923   4.060   6.819
    1   AR   Ar   48   0.362   5.974   6.405
    1   AR   Ar   49   0.735   4.936  -0.924
    1   AR   Ar   50   6.161   5.478   1.636
    1   AR   Ar   51   1.291   4.826  -0.028
    1   AR   Ar   52   0.441   5.560  -0.016
    1   AR   Ar   53   6.650   5.384   2.663
    1   AR   Ar   54   6.660   6.252   3.302
    1   AR   Ar   55   0.546   5.578   2.926
    1   AR   Ar   56   0.998   6.167   1.644
    1   AR   Ar   57   6.960   4.407   2.766
    1   AR   Ar   58   0.130   5.921   4.177
    1   AR   Ar   59   1.845   6.062   4.996
    1   AR   Ar   60   0.886   6.860   3.762
    1   AR   Ar   61   6.302   6.278   6.078
    1   AR   Ar   62   0.045   6.241   5.360
    1   AR   Ar   63   0.966   5.376   5.948
    1   AR   Ar   64   1.040   6.734   4.763
    1   AR   Ar   65   2.606   0.344   0.240
    1   AR   Ar   66   2.232   0.815   1.361
    1   AR   Ar   67   3.577   6.116   0.427
    1   AR   Ar   68   3.885   0.963  -0.353
    1   AR   Ar   69   1.681   6.717   0.661
    1   AR   Ar   70   1.546   0.282   2.381
    1   AR   Ar   71   3.432   0.759   1.681
    1   AR   Ar   72   3.864   0.705   0.767
    1   AR   Ar   73   1.871   6.952   3.335
    1   AR   Ar   74   2.196   1.283   5.179
    1   AR   Ar   75   3.087   0.752   5.056
    1   AR   Ar   76   2.658   0.736   2.752
    1   AR   Ar   77   2.178   0.376   5.502
    1   AR   Ar   78   1.086   0.627   6.252
    1   AR   Ar   79   3.670   6.524   7.030
    1   AR   Ar   80   3.154   6.780   5.066
    1   AR   Ar   81   2.114   1.549   0.175
    1   AR   Ar   82   1.572   3.221   0.789
    1   AR   Ar   83   2.923   1.749   1.311
    1   AR   Ar   84   2.056   3.024  -1.337
    1   AR   Ar   85   1.635   2.162   0.932
    1   AR   Ar   86   1.724   2.739   2.539
    1   AR   Ar   87   1.846   1.769   1.978
    1   AR   Ar   88   3.095   3.756   1.350
    1   AR   Ar   89   0.816   2.071   1.760
    1   AR   Ar   90   3.072   2.030   4.808
    1   AR   Ar   91   2.183   2.069   4.112
    1   AR   Ar   92   1.912   1.641   3.161
    1   AR   Ar   93   1.351   1.582   5.738
    1   AR   Ar   94   2.610   1.253   8.609
    1   AR   Ar   95   3.016   7.100   6.459
    1   AR   Ar   96   1.716   2.206   6.790
    1   AR   Ar   97   2.773   3.713  -0.798
    1   AR   Ar   98   2.910   4.716   1.735
    1   AR   Ar   99   3.340   3.006  -1.347
    1   AR   Ar  100   2.600   4.685  -0.217
    1   AR   Ar  101   1.073   3.175   1.883
    1   AR   Ar  102   1.992   4.036   3.789
    1   AR   Ar  103   2.047   3.553   1.714
    1   AR   Ar  104   3.352   3.753   0.323
    1   AR   Ar  105   1.650   2.953   3.890
    1   AR   Ar  106   2.428   3.104   4.588
    1   AR   Ar  107   2.738   3.961   5.407
    1   AR   Ar  108   3.294   3.255   3.732
    1   AR   Ar  109   1.039   3.833   4.268
    1   AR   Ar  110   1.951   4.436   4.915
    1   AR   Ar  111   3.486   5.062   6.986
    1   AR   Ar  112   1.585   3.558   5.733
    1   AR   Ar  113   2.311   4.326   0.803
    1   AR   Ar  114   2.235   5.747   0.903
    1   AR   Ar  115   3.312   5.121   0.250
    1   AR   Ar  116   3.724   7.073   0.066
    1   AR   Ar  117   1.497   4.809   2.894
    1   AR   Ar  118   1.277   6.292   2.708
    1   AR   Ar  119   2.346   4.430   2.490
    1   AR   Ar  120   1.613   5.215   1.862
    1   AR   Ar  121   0.082   4.649   3.848
    1   AR   Ar  122   2.608   6.153   4.054
    1   AR   Ar  123   2.271   5.197   4.266
    1   AR   Ar  124   2.241   5.587   2.978
    1   AR   Ar  125   0.803   5.578   4.835
    1   AR   Ar  126   0.951   6.729   6.329
    1   AR   Ar  127   2.541   5.344   7.345
    1   AR   Ar  128   2.169   6.536   5.992
    1   AR   Ar  129   2.929   6.604   1.305
    1   AR   Ar  130   3.526   6.775  -1.025
    1   AR   Ar  131   4.853   6.075   0.511
    1   AR   Ar  132   5.722   2.452  -0.936
    1   AR   Ar  133   4.103   7.074   2.329
    1   AR   Ar  134   3.879   1.027   2.626
    1   AR   Ar  135   4.845   0.677   3.047
    1   AR   Ar  136   4.526   0.821   1.713
    1   AR   Ar  137   2.987   7.111   3.527
    1   AR   Ar  138   4.604   1.144   5.001
    1   AR   Ar  139   4.608   0.315   4.222
    1   AR   Ar  140   4.142   1.380   3.673
    1   AR   Ar  141   3.593   0.062   4.333
    1   AR   Ar  142   3.872   0.417   5.761
    1   AR   Ar  143   5.272   0.017   6.391
    1   AR   Ar  144   5.160   0.705   7.350
    1   AR   Ar  145   2.739   2.721   0.608
    1   AR   Ar  146   3.996   2.658   0.976
    1   AR   Ar  147   5.251   1.706   0.456
    1   AR   Ar  148   5.755   3.303  -1.656
    1   AR   Ar  149   4.318   1.691   0.964
    1   AR   Ar  150   2.899   1.761   2.667
    1   AR   Ar  151   3.150   2.048   3.737
    1   AR   Ar  152   2.765   3.035   2.065
    1   AR   Ar  153   3.268   0.933   3.959
    1   AR   Ar  154   4.068   2.281   4.491
    1   AR   Ar  155   5.526   1.102   5.686
    1   AR   Ar  156   4.300   2.992   3.706
    1   AR   Ar  157   3.700   1.868   5.715
    1   AR   Ar  158   3.230   2.307   6.665
    1   AR   Ar  159   4.669   1.041   6.415
    1   AR   Ar  160   4.413   2.947   5.720
    1   AR   Ar  161   4.441   2.829  -0.473
    1   AR   Ar  162   4.431   4.899   0.866
    1   AR   Ar  163   5.195   3.064   0.581
    1   AR   Ar  164   5.622   4.572   1.131
    1   AR   Ar  165   3.197   3.776   2.819
    1   AR   Ar  166   2.940   4.658   3.347
    1   AR   Ar  167   4.382   2.847   2.603
    1   AR   Ar  168   4.325   3.661   0.739
    1   AR   Ar  169   2.693   2.788   3.021
    1   AR   Ar  170   3.011   4.159   4.372
    1   AR   Ar  171   3.949   3.295   4.709
    1   AR   Ar  172   4.332   4.442   4.186
    1   AR   Ar  173   3.364   2.881   5.527
    1   AR   Ar  174   3.789   5.121   6.002
    1   AR   Ar  175   4.010   4.003   5.865
    1   AR   Ar  176   3.670   4.715   5.036
    1   AR   Ar  177   5.692   5.463   0.105
    1   AR   Ar  178   4.047   6.318   1.412
    1   AR   Ar  179   3.615   5.270   1.161
    1   AR   Ar  180   4.391   5.066  -0.307
    1   AR   Ar  181   2.952   5.704   2.020
    1   AR   Ar  182   2.254   6.594   2.388
    1   AR   Ar  183   3.638   4.695   2.470
    1   AR   Ar  184   4.191   5.719   2.261
    1   AR   Ar  185   1.340   5.910   3.947
    1   AR   Ar  186   3.614   5.154   3.994
    1   AR   Ar  187   4.533   5.507   3.305
    1   AR   Ar  188   3.446   6.169   3.007
    1   AR   Ar  189   2.207   5.091   5.668
    1   AR   Ar  190   4.605   5.965   6.221
    1   AR   Ar  191   4.768   6.011   5.215
    1   AR   Ar  192   3.771   5.778   5.191
    1   AR   Ar  193   5.739   0.009  -0.112
    1   AR   Ar  194   4.662   0.082  -0.435
    1   AR   Ar  195   5.871   0.884   0.595
    1   AR   Ar  196   6.087   1.205  -0.977
    1   AR   Ar  197   5.089   0.136   1.007
    1   AR   Ar  198   5.408   1.601   1.571
    1   AR   Ar  199   5.429   0.361   2.047
    1   AR   Ar  200   6.841   1.745   1.172
    1   AR   Ar  201   4.896   6.558   2.639
    1   AR   Ar  202   5.377   1.224   4.050
    1   AR   Ar  203   6.884   6.863   4.503
    1   AR   Ar  204   5.939   0.160   3.025
    1   AR   Ar  205   5.882   6.908   4.178
    1   AR   Ar  206   5.023   7.031   5.107
    1   AR   Ar  207   7.094   0.196   5.667
    1   AR   Ar  208   6.368   0.735   4.107
    1   AR   Ar  209   6.637   2.467  -1.521
    1   AR   Ar  210   4.926   2.421   1.810
    1   AR   Ar  211   6.086   2.426   0.589
    1   AR   Ar  212   6.580   3.907  -0.800
    1   AR   Ar  213   3.916   2.161   1.926
    1   AR   Ar  214   4.049   3.409   1.750
    1   AR   Ar  215   5.636   2.524   2.581
    1   AR   Ar  216   6.143   2.911   1.628
    1   AR   Ar  217   4.985   2.140   4.000
    1   AR   Ar  218   5.854   1.846   4.883
    1   AR   Ar  219   5.268   1.544   2.938
    1   AR   Ar  220   6.481   3.226   3.186
    1   AR   Ar  221   5.935   0.103   5.547
    1   AR   Ar  222   4.803   2.206   6.293
    1   AR   Ar  223   6.507   1.350   7.030
    1   AR   Ar  224   5.627   2.979   5.613
    1   AR   Ar  225   5.225   4.173   0.116
    1   AR   Ar  226   4.752   4.399   2.360
    1   AR   Ar  227   6.836   4.120   1.662
    1   AR   Ar  228   6.639   4.948   0.675
    1   AR   Ar  229   6.215   3.643   0.868
    1   AR   Ar  230   4.113   4.103   3.187
    1   AR   Ar  231   0.109   2.437   3.707
    1   AR   Ar  232   5.360   3.636   1.565
    1   AR   Ar  233   6.002   2.871   4.407
    1   AR   Ar  234   6.007   4.256   4.980
    1   AR   Ar  235   6.728   3.591   4.489
    1   AR   Ar  236   5.260   3.574   4.007
    1   AR   Ar  237   4.940   3.198   4.841
    1   AR   Ar  238   4.920   4.277   5.423
    1   AR   Ar  239   6.451   3.710   7.943
    1   AR   Ar  240   6.217   3.883   5.928
    1   AR   Ar  241   6.831   0.794  -0.045
    1   AR   Ar  242   5.142   6.262   1.478
    1   AR   Ar  243   5.964   4.609   2.173
    1   AR   Ar  244   6.750   6.360  -0.385
    1   AR   Ar  245   5.193   5.384   2.218
    1   AR   Ar  246   5.915   6.241   2.445
    1   AR   Ar  247   5.495   3.492   2.564
    1   AR   Ar  248   6.002   6.786   1.349
    1   AR   Ar  249   5.393   4.824   3.109
    1   AR   Ar  250   4.236   6.261   4.224
    1   AR   Ar  251   4.936   5.350   4.343
    1   AR   Ar  252   5.590   5.808   3.538
    1   AR   Ar  253   5.601   5.323   5.764
    1   AR   Ar  254   5.575   5.601   6.999
    1   AR   Ar  255   5.362   4.519   6.702
    1   AR   Ar  256   6.304   5.981   4.781
    7.12000  7.12000 12.00000
Argon-slab step 1045
  256
    1   AR   Ar    1   0.758   0.435  -0.826
    1   AR   Ar    2   6.979   0.671   1.017
    1   AR   Ar    3   0.250   6.864   0.307
    1   AR   Ar    4   1.189   0.773   0.100
    1   AR   Ar    5   6.759   6.272   1.024
    1   AR   Ar    6   0.252   0.221   3.008
    1   AR   Ar    7   0.131   6.315   2.146
    1   AR   Ar    8   0.686   0.179   1.718
    1   AR   Ar    9   0.238   0.915   3.845
    1   AR   Ar   10   6.761   1.703   4.361
    1   AR   Ar   11   2.072   7.015   4.511
    1   AR   Ar   12   1.110   0.969   3.306
    1   AR   Ar   13   6.822   1.125   5.149
    1   AR   Ar   14   0.367   1.369   5.915
    1   AR   Ar   15   0.037   5.906   9.083
    1   AR   Ar   16   0.670   0.805   4.936
    1   AR   Ar   17   7.029   1.857   0.039
    1   AR   Ar   18   7.008   2.889   0.169
    1   AR   Ar   19   0.747   1.536   0.752
    1   AR   Ar   20   0.414   3.154  -1.867
    1   AR   Ar   21   6.619   0.031   2.004
    1   AR   Ar   22   6.664   2.087   2.313
    1   AR   Ar   23   0.160   0.996   2.019
    1   AR   Ar   24   0.180   2.657   1.170
    1   AR   Ar   25   0.050   1.471   2.999
    1   AR   Ar   26   5.933   2.345   3.574
    1   AR   Ar   27   1.333   1.370   4.166
    1   AR   Ar   28   0.763   2.866   4.443
    1   AR   Ar   29   6.250   1.897   6.110
    1   AR   Ar   30   6.856   2.902   6.570
    1   AR   Ar   31   0.849   1.425   7.052
    1   AR   Ar   32   1.567   2.810   5.082
    1   AR   Ar   33   1.317   3.828  -1.564
    1   AR   Ar   34   0.825   5.274   0.895
    1   AR   Ar   35   0.460   3.683   1.176
    1   AR   Ar   36   1.855   6.518  -1.696
    1   AR   Ar   37   0.199   3.314   2.331
    1   AR   Ar   38   0.571   4.911   2.187
    1   AR   Ar   39   1.169   3.534   2.944
    1   AR   Ar   40   1.221   4.249   1.702
    1   AR   Ar   41   0.722   2.558   2.821
    1   AR   Ar   42   6.606   5.153   5.337
    1   AR   Ar   43   6.915   2.629   5.328
    1   AR   Ar   44   0.289   3.635   3.470
    1   AR   Ar   45   0.252   3.574   5.808
    1   AR   Ar   46   6.547   5.291   6.648
    1   AR   Ar   47   6.935   4.060   6.816
    1   AR   Ar   48   0.389   5.983   6.439
    1   AR   Ar   49   0.701   4.942  -0.929
    1   AR   Ar   50   6.167   5.469   1.640
    1   AR   Ar   51   1.305   4.830  -0.007
    1   AR   Ar   52   0.422   5.560  -0.002
    1   AR   Ar   53   6.627   5.353   2.675
    1   AR   Ar   54   6.642   6.267   3.299
    1   AR   Ar   55   0.550   5.577   2.946
    1   AR   Ar   56   0.992   6.189   1.632
    1   AR   Ar   57   6.937   4.398   2.735
    1   AR   Ar   58   0.103   5.937   4.153
    1   AR   Ar   59   1.810   6.043   4.982
    1   AR   Ar   60   0.924   6.823   3.779
    1   AR   Ar   61   6.284   6.248   6.094
    1   AR   Ar   62   0.041   6.241   5.332
    1   AR   Ar   63   0.964   5.365   5.972
    1   AR   Ar   64   1.037   6.730   4.747
    1   AR   Ar   65   2.629   0.358   0.229
    1   AR   Ar   66   2.194   0.798   1.350
    1   AR   Ar   67   3.557   6.125   0.435
    1   AR   Ar   68   3.886   0.939  -0.353
    1   AR   Ar   69   1.696   6.734   0.645
    1   AR   Ar   70   1.530   0.280   2.391
    1   AR   Ar   71   3.435   0.767   1.691
    1   AR   Ar   72   3.884   0.703   0.762
    1   AR   Ar   73   1.855   6.928   3.336
    1   AR   Ar   74   2.166   1.297   5.137
    1   AR   Ar   75   3.101   0.779   5.071
    1   AR   Ar   76   2.654   0.714   2.729
    1   AR   Ar   77   2.210   0.353   5.508
    1   AR   Ar   78   1.083   0.624   6.250
    1   AR   Ar   79   3.701   6.531   7.028
    1   AR   Ar   80   3.122   6.797   5.064
    1   AR   Ar   81   2.113   1.534   0.174
    1   AR   Ar   82   1.560   3.228   0.789
    1   AR   Ar   83   2.928   1.784   1.337
    1   AR   Ar   84   2.056   3.041  -1.322
    1   AR   Ar   85   1.631   2.185   0.939
    1   AR   Ar   86   1.718   2.758   2.541
    1   AR   Ar   87   1.848   1.787   1.963
    1   AR   Ar   88   3.093   3.785   1.339
    1   AR   Ar   89   0.786   2.061   1.770
    1   AR   Ar   90   3.099   2.029   4.816
    1   AR   Ar   91   2.147   2.056   4.133
    1   AR   Ar   92   1.905   1.646   3.134
    1   AR   Ar   93   1.359   1.591   5.717
    1   AR   Ar   94   2.606   1.235   8.620
    1   AR   Ar   95   3.032   0.001   6.442
    1   AR   Ar   96   1.672   2.197   6.752
    1   AR   Ar   97   2.804   3.717  -0.807
    1   AR   Ar   98   2.891   4.716   1.722
    1   AR   Ar   99   3.374   2.992  -1.360
    1   AR   Ar  100   2.602   4.666  -0.249
    1   AR   Ar  101   1.072   3.169   1.901
    1   AR   Ar  102   2.012   4.006   3.779
    1   AR   Ar  103   2.074   3.578   1.715
    1   AR   Ar  104   3.373   3.760   0.294
    1   AR   Ar  105   1.659   2.924   3.893
    1   AR   Ar  106   2.433   3.117   4.578
    1   AR   Ar  107   2.758   3.980   5.420
    1   AR   Ar  108   3.278   3.238   3.754
    1   AR   Ar  109   1.060   3.852   4.261
    1   AR   Ar  110   1.915   4.464   4.886
    1   AR   Ar  111   3.472   5.059   6.977
    1   AR   Ar  112   1.536   3.574   5.715
    1   AR   Ar  113   2.295   4.317   0.811
    1   AR   Ar  114   2.229   5.768   0.896
    1   AR   Ar  115   3.309   5.127   0.227
    1   AR   Ar  116   3.730   7.072   0.049
    1   AR   Ar  117   1.474   4.811   2.885
    1   AR   Ar  118   1.306   6.293   2.709
    1   AR   Ar  119   2.298   4.397   2.497
    1   AR   Ar  120   1.607   5.221   1.892
    1   AR   Ar  121   0.092   4.615   3.828
    1   AR   Ar  122   2.626   6.134   4.064
    1   AR   Ar  123   2.275   5.185   4.253
    1   AR   Ar  124   2.234   5.584   2.959
    1   AR   Ar  125   0.804   5.584   4.823
    1   AR   Ar  126   0.955   6.737   6.324
    1   AR   Ar  127   2.553   5.322   7.321
    1   AR   Ar  128   2.159   6.535   5.970
    1   AR   Ar  129   2.897   6.616   1.316
    1   AR   Ar  130   3.569   6.786  -1.022
    1   AR   Ar  131   4.850   6.062   0.487
    1   AR   Ar  132   5.708   2.472  -0.949
    1   AR   Ar  133   4.096   7.069   2.354
    1   AR   Ar  134   3.897   1.067   2.607
    1   AR   Ar  135   4.820   0.669   3.035
    1   AR   Ar  136   4.525   0.824   1.729
    1   AR   Ar  137   3.005   7.106   3.518
    1   AR   Ar  138   4.601   1.149   5.007
    1   AR   Ar  139   4.595   0.317   4.215
    1   AR   Ar  140   4.156   1.365   3.678
    1   AR   Ar  141   3.605   0.071   4.336
    1   AR   Ar  142   3.867   0.426   5.731
    1   AR   Ar  143   5.282   0.007   6.379
    1   AR   Ar  144   5.169   0.672   7.350
    1   AR   Ar  145   2.715   2.691   0.588
    1   AR   Ar  146   3.984   2.634   0.986
    1   AR   Ar  147   5.259   1.733   0.456
    1   AR   Ar  148   5.758   3.293  -1.662
    1   AR   Ar  149   4.368   1.691   0.966
    1   AR   Ar  150   2.879   1.775   2.661
    1   AR   Ar  151   3.134   2.054   3.731
    1   AR   Ar  152   2.763   3.009   2.060
    1   AR   Ar  153   3.254   0.919   3.961
    1   AR   Ar  154   4.040   2.320   4.497
    1   AR   Ar  155   5.517   1.083   5.688
    1   AR   Ar  156   4.300   2.986   3.704
    1   AR   Ar  157   3.714   1.855   5.725
    1   AR   Ar  158   3.217   2.320   6.644
    1   AR   Ar  159   4.665   1.022   6.423
    1   AR   Ar  160   4.428   2.936   5.737
    1   AR   Ar  161   4.450   2.831  -0.470
    1   AR   Ar  162   4.434   4.878   0.881
    1   AR   Ar  163   5.162   3.101   0.570
    1   AR   Ar  164   5.612   4.618   1.124
    1   AR   Ar  165   3.185   3.777   2.828
    1   AR   Ar  166   2.916   4.619   3.344
    1   AR   Ar  167   4.402   2.843   2.618
    1   AR   Ar  168   4.330   3.647   0.710
    1   AR   Ar  169   2.673   2.766   3.027
    1   AR   Ar  170   3.010   4.146   4.324
    1   AR   Ar  171   3.956   3.285   4.692
    1   AR   Ar  172   4.350   4.469   4.172
    1   AR   Ar  173   3.337   2.840   5.525
    1   AR   Ar  174   3.822   5.070   6.010
    1   AR   Ar  175   4.011   4.006   5.857
    1   AR   Ar  176   3.674   4.704   5.003
    1   AR   Ar  177   5.684   5.463   0.098
    1   AR   Ar  178   4.043   6.370   1.414
    1   AR   Ar  179   3.586   5.275   1.185
    1   AR   Ar  180   4.377   5.085  -0.299
    1   AR   Ar  181   2.939   5.704   2.043
    1   AR   Ar  182   2.293   6.574   2.428
    1   AR   Ar  183   3.632   4.697   2.482
    1   AR   Ar  184   4.201   5.727   2.289
    1   AR   Ar  185   1.373   5.891   3.956
    1   AR   Ar  186   3.613   5.159   4.019
    1   AR   Ar  187   4.546   5.492   3.266
    1   AR   Ar  188   3.414   6.181   2.979
    1   AR   Ar  189   2.208   5.098   5.689
    1   AR   Ar  190   4.578   5.935   6.264
    1   AR   Ar  191   4.778   6.052   5.202
    1   AR   Ar  192   3.796   5.784   5.186
    1   AR   Ar  193   5.719   7.113  -0.108
    1   AR   Ar  194   4.656   0.086  -0.429
    1   AR   Ar  195   5.870   0.866   0.567
    1   AR   Ar  196   6.093   1.209  -0.960
    1   AR   Ar  197   5.069   0.125   1.025
    1   AR   Ar  198   5.412   1.601   1.579
    1   AR   Ar  199   5.430   0.354   2.042
    1   AR   Ar  200   6.836   1.746   1.173
    1   AR   Ar  201   4.895   6.586   2.647
    1   AR   Ar  202   5.383   1.223   4.043
    1   AR   Ar  203   6.909   6.893   4.494
    1   AR   Ar  204   5.915   0.138   3.028
    1   AR   Ar  205   5.898   6.909   4.202
    1   AR   Ar  206   5.015   7.035   5.107
    1   AR   Ar  207   7.080   0.196   5.661
    1   AR   Ar  208   6.350   0.733   4.108
    1   AR   Ar  209   6.624   2.512  -1.544
    1   AR   Ar  210   4.896   2.392   1.812
    1   AR   Ar  211   6.104   2.427   0.535
    1   AR   Ar  212   6.556   3.922  -0.801
    1   AR   Ar  213   3.898   2.158   1.944
    1   AR   Ar  214   4.074   3.430   1.764
    1   AR   Ar  215   5.648   2.499   2.544
    1   AR   Ar  216   6.173   2.915   1.639
    1   AR   Ar  217   4.968   2.159   4.013
    1   AR   Ar  218   5.830   1.857   4.904
    1   AR   Ar  219   5.236   1.488   2.928
    1   AR   Ar  220   6.431   3.230   3.180
    1   AR   Ar  221   5.948   0.099   5.546
    1   AR   Ar  222   4.813   2.231   6.280
    1   AR   Ar  223   6.505   1.370   7.008
    1   AR   Ar  224   5.596   2.986   5.585
    1   AR   Ar  225   5.220   4.181   0.129
    1   AR   Ar  226   4.728   4.391   2.346
    1   AR   Ar  227   6.821   4.135   1.651
    1   AR   Ar  228   6.621   4.963   0.661
    1   AR   Ar  229   6.223   3.625   0.872
    1   AR   Ar  230   4.110   4.110   3.186
    1   AR   Ar  231   0.094   2.445   3.719
    1   AR   Ar  232   5.383   3.588   1.553
    1   AR   Ar  233   5.991   2.846   4.403
    1   AR   Ar  234   6.049   4.287   4.972
    1   AR   Ar  235   6.709   3.594   4.490
    1   AR   Ar  236   5.241   3.600   3.974
    1   AR   Ar  237   4.909   3.187   4.844
    1   AR   Ar  238   4.932   4.262   5.420
    1   AR   Ar  239   6.423   3.711   7.936
    1   AR   Ar  240   6.178   3.851   5.951
    1   AR   Ar  241   6.828   0.821  -0.052
    1   AR   Ar  242   5.134   6.265   1.521
    1   AR   Ar  243   5.943   4.605   2.196
    1   AR   Ar  244   6.767   6.364  -0.363
    1   AR   Ar  245   5.185   5.362   2.206
    1   AR   Ar  246   5.944   6.245   2.446
    1   AR   Ar  247   5.472   3.473   2.525
    1   AR   Ar  248   5.986   6.804   1.366
    1   AR   Ar  249   5.424   4.814   3.094
    1   AR   Ar  250   4.266   6.270   4.219
    1   AR   Ar  251   4.917   5.341   4.318
    1   AR   Ar  252   5.604   5.836   3.499
    1   AR   Ar  253   5.621   5.330   5.796
    1   AR   Ar  254   5.591   5.616   6.983
    1   AR   Ar  255   5.367   4.522   6.694
    1   AR   Ar  256   6.287   5.985   4.749
    7.12000  7.12000 12.00000
Argon-slab step 1050
  256
    1   AR   Ar    1   0.765   0.440  -0.849
    1   AR   Ar    2   6.976   0.668   1.012
    1   AR   Ar    3   0.246   6.866   0.305
    1   AR   Ar    4   1.157   0.766   0.116
    1   AR   Ar    5   6.796   6.277   0.990
    1   AR   Ar    6   0.248   0.240   2.992
    1   AR   Ar    7   0.125   6.305   2.152
    1   AR   Ar    8   0.667   0.209   1.731
    1   AR   Ar    9   0.231   0.916   3.811
    1   AR   Ar   10   6.802   1.706   4.378
    1   AR   Ar   11   2.063   7.012   4.507
    1   AR   Ar   12   1.099   0.985   3.260
    1   AR   Ar   13   6.752   1.132   5.145
    1   AR   Ar   14   0.362   1.364   5.889
    1   AR   Ar   15   0.028   5.903   9.059
    1   AR   Ar   16   0.674   0.829   4.927
    1   AR   Ar   17   7.039   1.840   0.050
    1   AR   Ar   18   6.988   2.911   0.180
    1   AR   Ar   19   0.739   1.553   0.752
    1   AR   Ar   20   0.436   3.155  -1.895
    1   AR   Ar   21   6.613   0.031   2.019
    1   AR   Ar   22   6.656   2.107   2.303
    1   AR   Ar   23   0.170   0.980   2.018
    1   AR   Ar   24   0.160   2.671   1.151
    1   AR   Ar   25   0.008   1.496   3.019
    1   AR   Ar   26   5.942   2.358   3.573
    1   AR   Ar   27   1.360   1.343   4.153
    1   AR   Ar   28   0.754   2.843   4.448
    1   AR   Ar   29   6.239   1.939   6.084
    1   AR   Ar   30   6.899   2.880   6.537
    1   AR   Ar   31   0.845   1.388   7.059
    1   AR   Ar   32   1.594   2.818   5.102
    1   AR   Ar   33   1.309   3.818  -1.562
    1   AR   Ar   34   0.822   5.273   0.888
    1   AR   Ar   35   0.455   3.672   1.166
    1   AR   Ar   36   1.857   6.551  -1.685
    1   AR   Ar   37   0.207   3.299   2.329
    1   AR   Ar   38   0.589   4.918   2.148
    1   AR   Ar   39   1.209   3.532   2.934
    1   AR   Ar   40   1.211   4.260   1.716
    1   AR   Ar   41   0.731   2.561   2.801
    1   AR   Ar   42   6.614   5.151   5.353
    1   AR   Ar   43   6.925   2.637   5.329
    1   AR   Ar   44   0.289   3.633   3.488
    1   AR   Ar   45   0.215   3.560   5.789
    1   AR   Ar   46   6.533   5.311   6.675
    1   AR   Ar   47   6.946   4.060   6.812
    1   AR   Ar   48   0.390   5.985   6.482
    1   AR   Ar   49   0.667   4.948  -0.933
    1   AR   Ar   50   6.173   5.464   1.643
    1   AR   Ar   51   1.320   4.835   0.016
    1   AR   Ar   52   0.401   5.562   0.008
    1   AR   Ar   53   6.606   5.347   2.671
    1   AR   Ar   54   6.624   6.285   3.296
    1   AR   Ar   55   0.553   5.580   2.973
    1   AR   Ar   56   0.991   6.187   1.604
    1   AR   Ar   57   6.915   4.378   2.706
    1   AR   Ar   58   0.080   5.950   4.142
    1   AR   Ar   59   1.778   6.023   4.968
    1   AR   Ar   60   0.953   6.789   3.783
    1   AR   Ar   61   6.266   6.219   6.107
    1   AR   Ar   62   0.035   6.228   5.319
    1   AR   Ar   63   0.972   5.343   5.987
    1   AR   Ar   64   1.032   6.726   4.744
    1   AR   Ar   65   2.653   0.372   0.219
    1   AR   Ar   66   2.157   0.782   1.340
    1   AR   Ar   67   3.538   6.134   0.447
    1   AR   Ar   68   3.878   0.910  -0.342
    1   AR   Ar   69   1.712   6.752   0.631
    1   AR   Ar   70   1.515   0.279   2.402
    1   AR   Ar   71   3.433   0.775   1.704
    1   AR   Ar   72   3.908   0.703   0.755
    1   AR   Ar   73   1.846   6.907   3.341
    1   AR   Ar   74   2.138   1.319   5.088
    1   AR   Ar   75   3.110   0.801   5.087
    1   AR   Ar   76   2.649   0.690   2.704
    1   AR   Ar   77   2.231   0.317   5.531
    1   AR   Ar   78   1.075   0.622   6.221
    1   AR   Ar   79   3.733   6.535   7.027
    1   AR   Ar   80   3.093   6.801   5.072
    1   AR   Ar   81   2.112   1.518   0.174
    1   AR   Ar   82   1.548   3.238   0.791
    1   AR   Ar   83   2.932   1.819   1.364
    1   AR   Ar   84   2.054   3.065  -1.328
    1   AR   Ar   85   1.627   2.207   0.947
    1   AR   Ar   86   1.722   2.770   2.546
    1   AR   Ar   87   1.851   1.804   1.950
    1   AR   Ar   88   3.093   3.809   1.328
    1   AR   Ar   89   0.757   2.046   1.785
    1   AR   Ar   90   3.119   2.026   4.825
    1   AR   Ar   91   2.115   2.042   4.158
    1   AR   Ar   92   1.899   1.653   3.106
    1   AR   Ar   93   1.368   1.601   5.697
    1   AR   Ar   94   2.601   1.217   8.632
    1   AR   Ar   95   3.046   0.024   6.422
    1   AR   Ar   96   1.627   2.187   6.712
    1   AR   Ar   97   2.814   3.705  -0.819
    1   AR   Ar   98   2.868   4.716   1.706
    1   AR   Ar   99   3.409   2.977  -1.373
    1   AR   Ar  100   2.591   4.639  -0.287
    1   AR   Ar  101   1.086   3.171   1.894
    1   AR   Ar  102   2.035   3.978   3.768
    1   AR   Ar  103   2.090   3.615   1.709
    1   AR   Ar  104   3.391   3.767   0.262
    1   AR   Ar  105   1.664   2.900   3.888
    1   AR   Ar  106   2.444   3.133   4.569
    1   AR   Ar  107   2.780   3.998   5.433
    1   AR   Ar  108   3.260   3.222   3.780
    1   AR   Ar  109   1.070   3.866   4.270
    1   AR   Ar  110   1.898   4.472   4.885
    1   AR   Ar  111   3.464   5.054   6.970
    1   AR   Ar  112   1.529   3.585   5.719
    1   AR   Ar  113   2.279   4.308   0.820
    1   AR   Ar  114   2.195   5.767   0.886
    1   AR   Ar  115   3.317   5.136   0.204
    1   AR   Ar  116   3.732   7.070   0.030
    1   AR   Ar  117   1.441   4.815   2.880
    1   AR   Ar  118   1.328   6.293   2.708
    1   AR   Ar  119   2.286   4.376   2.493
    1   AR   Ar  120   1.603   5.232   1.921
    1   AR   Ar  121   0.103   4.585   3.809
    1   AR   Ar  122   2.646   6.122   4.073
    1   AR   Ar  123   2.281   5.171   4.237
    1   AR   Ar  124   2.228   5.581   2.942
    1   AR   Ar  125   0.807   5.589   4.816
    1   AR   Ar  126   0.972   6.755   6.315
    1   AR   Ar  127   2.559   5.302   7.298
    1   AR   Ar  128   2.148   6.530   5.949
    1   AR   Ar  129   2.866   6.627   1.328
    1   AR   Ar  130   3.613   6.797  -1.018
    1   AR   Ar  131   4.844   6.049   0.462
    1   AR   Ar  132   5.698   2.489  -0.956
    1   AR   Ar  133   4.102   7.081   2.349
    1   AR   Ar  134   3.914   1.109   2.590
    1   AR   Ar  135   4.781   0.630   3.026
    1   AR   Ar  136   4.525   0.829   1.743
    1   AR   Ar  137   3.018   7.097   3.503
    1   AR   Ar  138   4.597   1.155   5.012
    1   AR   Ar  139   4.586   0.322   4.204
    1   AR   Ar  140   4.174   1.352   3.682
    1   AR   Ar  141   3.629   0.078   4.335
    1   AR   Ar  142   3.864   0.435   5.702
    1   AR   Ar  143   5.290   7.118   6.368
    1   AR   Ar  144   5.178   0.638   7.350
    1   AR   Ar  145   2.691   2.661   0.570
    1   AR   Ar  146   3.970   2.616   0.995
    1   AR   Ar  147   5.270   1.762   0.454
    1   AR   Ar  148   5.763   3.284  -1.668
    1   AR   Ar  149   4.416   1.685   0.973
    1   AR   Ar  150   2.861   1.788   2.652
    1   AR   Ar  151   3.124   2.063   3.727
    1   AR   Ar  152   2.776   2.972   2.053
    1   AR   Ar  153   3.239   0.915   3.953
    1   AR   Ar  154   4.014   2.347   4.502
    1   AR   Ar  155   5.508   1.066   5.689
    1   AR   Ar  156   4.292   2.992   3.706
    1   AR   Ar  157   3.730   1.840   5.733
    1   AR   Ar  158   3.204   2.321   6.616
    1   AR   Ar  159   4.664   1.012   6.422
    1   AR   Ar  160   4.435   2.935   5.746
    1   AR   Ar  161   4.460   2.833  -0.465
    1   AR   Ar  162   4.449   4.851   0.891
    1   AR   Ar  163   5.137   3.132   0.558
    1   AR   Ar  164   5.602   4.664   1.115
    1   AR   Ar  165   3.171   3.770   2.830
    1   AR   Ar  166   2.889   4.586   3.345
    1   AR   Ar  167   4.423   2.842   2.637
    1   AR   Ar  168   4.338   3.643   0.692
    1   AR   Ar  169   2.650   2.743   3.042
    1   AR   Ar  170   3.003   4.139   4.298
    1   AR   Ar  171   3.945   3.291   4.676
    1   AR   Ar  172   4.376   4.466   4.210
    1   AR   Ar  173   3.310   2.803   5.522
    1   AR   Ar  174   3.856   5.020   6.015
    1   AR   Ar  175   4.008   4.006   5.848
    1   AR   Ar  176   3.676   4.691   4.971
    1   AR   Ar  177   5.676   5.461   0.093
    1   AR   Ar  178   4.039   6.424   1.415
    1   AR   Ar  179   3.570   5.290   1.170
    1   AR   Ar  180   4.364   5.110  -0.295
    1   AR   Ar  181   2.926   5.707   2.068
    1   AR   Ar  182   2.336   6.554   2.465
    1   AR   Ar  183   3.627   4.705   2.491
    1   AR   Ar  184   4.206   5.736   2.314
    1   AR   Ar  185   1.409   5.870   3.963
    1   AR   Ar  186   3.599   5.177   4.004
    1   AR   Ar  187   4.559   5.477   3.229
    1   AR   Ar  188   3.382   6.192   2.951
    1   AR   Ar  189   2.210   5.108   5.711
    1   AR   Ar  190   4.551   5.905   6.307
    1   AR   Ar  191   4.793   6.088   5.189
    1   AR   Ar  192   3.815   5.790   5.178
    1   AR   Ar  193   5.700   7.096  -0.102
    1   AR   Ar  194   4.652   0.090  -0.423
    1   AR   Ar  195   5.863   0.856   0.546
    1   AR   Ar  196   6.100   1.214  -0.941
    1   AR   Ar  197   5.048   0.115   1.040
    1   AR   Ar  198   5.424   1.588   1.583
    1   AR   Ar  199   5.433   0.345   2.039
    1   AR   Ar  200   6.828   1.744   1.175
    1   AR   Ar  201   4.907   6.607   2.659
    1   AR   Ar  202   5.385   1.223   4.031
    1   AR   Ar  203   6.938   6.927   4.486
    1   AR   Ar  204   5.903   0.126   3.026
    1   AR   Ar  205   5.903   6.900   4.214
    1   AR   Ar  206   5.006   7.046   5.107
    1   AR   Ar  207   7.067   0.196   5.655
    1   AR   Ar  208   6.314   0.744   4.074
    1   AR   Ar  209   6.612   2.558  -1.568
    1   AR   Ar  210   4.862   2.377   1.811
    1   AR   Ar  211   6.124   2.427   0.484
    1   AR   Ar  212   6.532   3.936  -0.802
    1   AR   Ar  213   3.873   2.152   1.964
    1   AR   Ar  214   4.099   3.451   1.778
    1   AR   Ar  215   5.661   2.463   2.508
    1   AR   Ar  216   6.207   2.914   1.654
    1   AR   Ar  217   4.951   2.182   4.025
    1   AR   Ar  218   5.800   1.867   4.931
    1   AR   Ar  219   5.249   1.467   2.924
    1   AR   Ar  220   6.381   3.234   3.173
    1   AR   Ar  221   5.968   0.094   5.543
    1   AR   Ar  222   4.829   2.242   6.275
    1   AR   Ar  223   6.504   1.389   6.987
    1   AR   Ar  224   5.569   2.990   5.559
    1   AR   Ar  225   5.221   4.189   0.141
    1   AR   Ar  226   4.705   4.381   2.329
    1   AR   Ar  227   6.798   4.154   1.644
    1   AR   Ar  228   6.603   4.979   0.650
    1   AR   Ar  229   6.198   3.622   0.896
    1   AR   Ar  230   4.111   4.114   3.191
    1   AR   Ar  231   0.076   2.453   3.728
    1   AR   Ar  232   5.367   3.603   1.510
    1   AR   Ar  233   5.977   2.825   4.413
    1   AR   Ar  234   6.087   4.318   4.963
    1   AR   Ar  235   6.696   3.597   4.490
    1   AR   Ar  236   5.223   3.628   3.933
    1   AR   Ar  237   4.889   3.172   4.847
    1   AR   Ar  238   4.947   4.248   5.415
    1   AR   Ar  239   6.396   3.714   7.927
    1   AR   Ar  240   6.140   3.819   5.977
    1   AR   Ar  241   6.822   0.842  -0.057
    1   AR   Ar  242   5.121   6.263   1.569
    1   AR   Ar  243   5.924   4.594   2.218
    1   AR   Ar  244   6.781   6.366  -0.343
    1   AR   Ar  245   5.179   5.345   2.192
    1   AR   Ar  246   5.972   6.250   2.444
    1   AR   Ar  247   5.486   3.489   2.522
    1   AR   Ar  248   5.957   6.822   1.375
    1   AR   Ar  249   5.454   4.804   3.084
    1   AR   Ar  250   4.296   6.278   4.213
    1   AR   Ar  251   4.899   5.335   4.294
    1   AR   Ar  252   5.619   5.866   3.459
    1   AR   Ar  253   5.640   5.337   5.830
    1   AR   Ar  254   5.600   5.626   6.971
    1   AR   Ar  255   5.373   4.527   6.684
    1   AR   Ar  256   6.268   5.991   4.716
    7.12000  7.12000 12.00000
Argon-slab step 1055
  256
    1   AR   Ar    1   0.774   0.434  -0.870
    1   AR   Ar    2   6.973   0.663   1.008
    1   AR   Ar    3   0.249   6.874   0.307
    1   AR   Ar    4   1.125   0.759   0.133
    1   AR   Ar    5   6.835   6.278   0.958
    1   AR   Ar    6   0.264   0.293   2.973
    1   AR   Ar    7   0.116   6.292   2.161
    1   AR   Ar    8   0.656   0.221   1.738
    1   AR   Ar    9   0.225   0.913   3.789
    1   AR   Ar   10   6.841   1.720   4.380
    1   AR   Ar   11   2.056   7.008   4.502
    1   AR   Ar   12   1.087   0.994   3.202
    1   AR   Ar   13   6.732   1.134   5.159
    1   AR   Ar   14   0.354   1.359   5.865
    1   AR   Ar   15   0.019   5.899   9.036
    1   AR   Ar   16   0.678   0.852   4.918
    1   AR   Ar   17   7.049   1.826   0.062
    1   AR   Ar   18   6.971   2.938   0.188
    1   AR   Ar   19   0.730   1.571   0.755
    1   AR   Ar   20   0.458   3.157  -1.924
    1   AR   Ar   21   6.616   0.039   2.044
    1   AR   Ar   22   6.649   2.128   2.290
    1   AR   Ar   23   0.175   0.991   2.009
    1   AR   Ar   24   0.139   2.685   1.136
    1   AR   Ar   25   7.086   1.524   3.035
    1   AR   Ar   26   5.951   2.360   3.557
    1   AR   Ar   27   1.386   1.315   4.149
    1   AR   Ar   28   0.742   2.820   4.453
    1   AR   Ar   29   6.227   1.982   6.055
    1   AR   Ar   30   6.914   2.879   6.525
    1   AR   Ar   31   0.840   1.351   7.064
    1   AR   Ar   32   1.622   2.815   5.115
    1   AR   Ar   33   1.300   3.809  -1.561
    1   AR   Ar   34   0.819   5.277   0.916
    1   AR   Ar   35   0.464   3.680   1.173
    1   AR   Ar   36   1.858   6.583  -1.673
    1   AR   Ar   37   0.201   3.290   2.328
    1   AR   Ar   38   0.600   4.931   2.110
    1   AR   Ar   39   1.230   3.528   2.926
    1   AR   Ar   40   1.214   4.274   1.732
    1   AR   Ar   41   0.739   2.557   2.786
    1   AR   Ar   42   6.626   5.152   5.371
    1   AR   Ar   43   6.933   2.645   5.330
    1   AR   Ar   44   0.287   3.622   3.504
    1   AR   Ar   45   0.178   3.546   5.769
    1   AR   Ar   46   6.524   5.327   6.700
    1   AR   Ar   47   6.955   4.059   6.807
    1   AR   Ar   48   0.375   5.983   6.531
    1   AR   Ar   49   0.633   4.953  -0.936
    1   AR   Ar   50   6.179   5.462   1.644
    1   AR   Ar   51   1.336   4.839   0.039
    1   AR   Ar   52   0.376   5.566   0.014
    1   AR   Ar   53   6.583   5.348   2.668
    1   AR   Ar   54   6.611   6.304   3.291
    1   AR   Ar   55   0.555   5.585   3.004
    1   AR   Ar   56   1.013   6.186   1.604
    1   AR   Ar   57   6.896   4.351   2.679
    1   AR   Ar   58   0.063   5.961   4.153
    1   AR   Ar   59   1.753   6.000   4.957
    1   AR   Ar   60   0.971   6.760   3.774
    1   AR   Ar   61   6.248   6.190   6.119
    1   AR   Ar   62   0.063   6.230   5.305
    1   AR   Ar   63   0.987   5.316   5.994
    1   AR   Ar   64   1.027   6.731   4.754
    1   AR   Ar   65   2.677   0.387   0.211
    1   AR   Ar   66   2.121   0.766   1.329
    1   AR   Ar   67   3.520   6.142   0.462
    1   AR   Ar   68   3.870   0.885  -0.333
    1   AR   Ar   69   1.727   6.771   0.617
    1   AR   Ar   70   1.502   0.278   2.415
    1   AR   Ar   71   3.427   0.782   1.718
    1   AR   Ar   72   3.934   0.703   0.750
    1   AR   Ar   73   1.848   6.891   3.350
    1   AR   Ar   74   2.113   1.341   5.033
    1   AR   Ar   75   3.110   0.814   5.102
    1   AR   Ar   76   2.651   0.678   2.688
    1   AR   Ar   77   2.251   0.287   5.551
    1   AR   Ar   78   1.069   0.630   6.189
    1   AR   Ar   79   3.767   6.538   7.025
    1   AR   Ar   80   3.057   6.801   5.087
    1   AR   Ar   81   2.110   1.501   0.176
    1   AR   Ar   82   1.535   3.252   0.794
    1   AR   Ar   83   2.935   1.855   1.392
    1   AR   Ar   84   2.052   3.101  -1.367
    1   AR   Ar   85   1.624   2.225   0.957
    1   AR   Ar   86   1.740   2.770   2.550
    1   AR   Ar   87   1.856   1.821   1.938
    1   AR   Ar   88   3.086   3.820   1.333
    1   AR   Ar   89   0.729   2.031   1.801
    1   AR   Ar   90   3.121   2.034   4.841
    1   AR   Ar   91   2.091   2.024   4.186
    1   AR   Ar   92   1.900   1.658   3.101
    1   AR   Ar   93   1.375   1.614   5.680
    1   AR   Ar   94   2.596   1.199   8.643
    1   AR   Ar   95   3.059   0.047   6.399
    1   AR   Ar   96   1.582   2.176   6.672
    1   AR   Ar   97   2.792   3.669  -0.837
    1   AR   Ar   98   2.842   4.720   1.688
    1   AR   Ar   99   3.444   2.962  -1.385
    1   AR   Ar  100   2.574   4.608  -0.328
    1   AR   Ar  101   1.106   3.176   1.871
    1   AR   Ar  102   2.058   3.949   3.757
    1   AR   Ar  103   2.098   3.656   1.702
    1   AR   Ar  104   3.404   3.776   0.229
    1   AR   Ar  105   1.666   2.883   3.877
    1   AR   Ar  106   2.461   3.151   4.559
    1   AR   Ar  107   2.802   4.016   5.445
    1   AR   Ar  108   3.242   3.206   3.808
    1   AR   Ar  109   1.072   3.875   4.290
    1   AR   Ar  110   1.885   4.470   4.891
    1   AR   Ar  111   3.464   5.047   6.963
    1   AR   Ar  112   1.522   3.606   5.729
    1   AR   Ar  113   2.261   4.300   0.828
    1   AR   Ar  114   2.155   5.758   0.877
    1   AR   Ar  115   3.328   5.143   0.178
    1   AR   Ar  116   3.731   7.066   0.015
    1   AR   Ar  117   1.403   4.819   2.880
    1   AR   Ar  118   1.334   6.297   2.699
    1   AR   Ar  119   2.323   4.377   2.473
    1   AR   Ar  120   1.604   5.246   1.948
    1   AR   Ar  121   0.112   4.560   3.791
    1   AR   Ar  122   2.668   6.115   4.079
    1   AR   Ar  123   2.294   5.169   4.202
    1   AR   Ar  124   2.223   5.578   2.926
    1   AR   Ar  125   0.810   5.592   4.812
    1   AR   Ar  126   0.996   6.774   6.303
    1   AR   Ar  127   2.555   5.285   7.279
    1   AR   Ar  128   2.136   6.516   5.931
    1   AR   Ar  129   2.836   6.638   1.339
    1   AR   Ar  130   3.657   6.809  -1.013
    1   AR   Ar  131   4.835   6.037   0.440
    1   AR   Ar  132   5.706   2.494  -0.944
    1   AR   Ar  133   4.098   7.099   2.339
    1   AR   Ar  134   3.929   1.153   2.577
    1   AR   Ar  135   4.734   0.573   3.019
    1   AR   Ar  136   4.525   0.836   1.757
    1   AR   Ar  137   3.026   7.085   3.483
    1   AR   Ar  138   4.593   1.160   5.016
    1   AR   Ar  139   4.587   0.331   4.189
    1   AR   Ar  140   4.196   1.341   3.687
    1   AR   Ar  141   3.655   0.079   4.335
    1   AR   Ar  142   3.864   0.443   5.674
    1   AR   Ar  143   5.296   7.109   6.357
    1   AR   Ar  144   5.188   0.604   7.348
    1   AR   Ar  145   2.666   2.632   0.553
    1   AR   Ar  146   3.954   2.605   1.003
    1   AR   Ar  147   5.287   1.793   0.448
    1   AR   Ar  148   5.768   3.276  -1.675
    1   AR   Ar  149   4.459   1.674   0.987
    1   AR   Ar  150   2.846   1.800   2.640
    1   AR   Ar  151   3.122   2.075   3.730
    1   AR   Ar  152   2.797   2.930   2.044
    1   AR   Ar  153   3.227   0.922   3.932
    1   AR   Ar  154   3.994   2.358   4.505
    1   AR   Ar  155   5.499   1.049   5.690
    1   AR   Ar  156   4.281   3.043   3.701
    1   AR   Ar  157   3.750   1.823   5.742
    1   AR   Ar  158   3.190   2.315   6.583
    1   AR   Ar  159   4.665   1.009   6.414
    1   AR   Ar  160   4.437   2.946   5.726
    1   AR   Ar  161   4.470   2.836  -0.458
    1   AR   Ar  162   4.470   4.821   0.898
    1   AR   Ar  163   5.129   3.150   0.542
    1   AR   Ar  164   5.591   4.710   1.108
    1   AR   Ar  165   3.156   3.755   2.826
    1   AR   Ar  166   2.862   4.562   3.349
    1   AR   Ar  167   4.444   2.842   2.659
    1   AR   Ar  168   4.361   3.665   0.706
    1   AR   Ar  169   2.626   2.722   3.065
    1   AR   Ar  170   2.992   4.137   4.290
    1   AR   Ar  171   3.915   3.318   4.663
    1   AR   Ar  172   4.403   4.454   4.246
    1   AR   Ar  173   3.282   2.771   5.519
    1   AR   Ar  174   3.887   5.005   6.022
    1   AR   Ar  175   4.002   4.001   5.838
    1   AR   Ar  176   3.678   4.677   4.943
    1   AR   Ar  177   5.670   5.457   0.088
    1   AR   Ar  178   4.035   6.477   1.415
    1   AR   Ar  179   3.552   5.311   1.165
    1   AR   Ar  180   4.351   5.134  -0.288
    1   AR   Ar  181   2.915   5.712   2.092
    1   AR   Ar  182   2.384   6.536   2.500
    1   AR   Ar  183   3.620   4.717   2.497
    1   AR   Ar  184   4.205   5.749   2.332
    1   AR   Ar  185   1.448   5.848   3.966
    1   AR   Ar  186   3.584   5.197   3.987
    1   AR   Ar  187   4.573   5.460   3.198
    1   AR   Ar  188   3.349   6.203   2.924
    1   AR   Ar  189   2.212   5.118   5.732
    1   AR   Ar  190   4.533   5.874   6.342
    1   AR   Ar  191   4.812   6.112   5.177
    1   AR   Ar  192   3.829   5.795   5.169
    1   AR   Ar  193   5.682   7.078  -0.094
    1   AR   Ar  194   4.651   0.094  -0.418
    1   AR   Ar  195   5.848   0.861   0.534
    1   AR   Ar  196   6.108   1.220  -0.920
    1   AR   Ar  197   5.022   0.106   1.051
    1   AR   Ar  198   5.442   1.566   1.585
    1   AR   Ar  199   5.418   0.329   2.036
    1   AR   Ar  200   6.818   1.738   1.178
    1   AR   Ar  201   4.929   6.621   2.675
    1   AR   Ar  202   5.374   1.200   4.001
    1   AR   Ar  203   6.970   6.965   4.479
    1   AR   Ar  204   5.909   0.130   3.015
    1   AR   Ar  205   5.899   6.903   4.222
    1   AR   Ar  206   4.999   7.069   5.107
    1   AR   Ar  207   7.056   0.195   5.648
    1   AR   Ar  208   6.281   0.755   4.040
    1   AR   Ar  209   6.602   2.605  -1.592
    1   AR   Ar  210   4.828   2.370   1.805
    1   AR   Ar  211   6.141   2.427   0.436
    1   AR   Ar  212   6.507   3.950  -0.804
    1   AR   Ar  213   3.841   2.142   1.986
    1   AR   Ar  214   4.124   3.473   1.793
    1   AR   Ar  215   5.675   2.423   2.473
    1   AR   Ar  216   6.242   2.909   1.671
    1   AR   Ar  217   4.935   2.207   4.038
    1   AR   Ar  218   5.769   1.876   4.958
    1   AR   Ar  219   5.291   1.467   2.925
    1   AR   Ar  220   6.333   3.240   3.165
    1   AR   Ar  221   5.992   0.087   5.538
    1   AR   Ar  222   4.853   2.238   6.279
    1   AR   Ar  223   6.503   1.407   6.965
    1   AR   Ar  224   5.548   2.991   5.538
    1   AR   Ar  225   5.221   4.198   0.155
    1   AR   Ar  226   4.684   4.369   2.310
    1   AR   Ar  227   6.772   4.176   1.640
    1   AR   Ar  228   6.586   4.996   0.639
    1   AR   Ar  229   6.167   3.627   0.918
    1   AR   Ar  230   4.115   4.115   3.202
    1   AR   Ar  231   0.056   2.463   3.733
    1   AR   Ar  232   5.343   3.621   1.466
    1   AR   Ar  233   5.962   2.812   4.439
    1   AR   Ar  234   6.120   4.349   4.955
    1   AR   Ar  235   6.688   3.600   4.488
    1   AR   Ar  236   5.205   3.657   3.891
    1   AR   Ar  237   4.880   3.156   4.842
    1   AR   Ar  238   4.966   4.233   5.409
    1   AR   Ar  239   6.369   3.716   7.916
    1   AR   Ar  240   6.104   3.788   6.003
    1   AR   Ar  241   6.805   0.843  -0.045
    1   AR   Ar  242   5.108   6.260   1.602
    1   AR   Ar  243   5.909   4.576   2.233
    1   AR   Ar  244   6.789   6.364  -0.326
    1   AR   Ar  245   5.175   5.331   2.178
    1   AR   Ar  246   5.998   6.256   2.439
    1   AR   Ar  247   5.499   3.509   2.525
    1   AR   Ar  248   5.927   6.838   1.373
    1   AR   Ar  249   5.480   4.794   3.083
    1   AR   Ar  250   4.325   6.286   4.207
    1   AR   Ar  251   4.885   5.336   4.270
    1   AR   Ar  252   5.635   5.875   3.464
    1   AR   Ar  253   5.657   5.343   5.864
    1   AR   Ar  254   5.585   5.619   6.973
    1   AR   Ar  255   5.381   4.533   6.671
    1   AR   Ar  256   6.246   5.998   4.683
    7.12000  7.12000 12.00000
Argon-slab step 1060
  256
    1   AR   Ar    1   0.790   0.381  -0.884
    1   AR   Ar    2   6.971   0.656   1.005
    1   AR   Ar    3   0.253   6.882   0.322
    1   AR   Ar    4   1.094   0.751   0.151
    1   AR   Ar    5   6.871   6.276   0.931
    1   AR   Ar    6   0.276   0.263   3.009
    1   AR   Ar    7   0.105   6.278   2.174
    1   AR   Ar    8   0.653   0.196   1.736
    1   AR   Ar    9   0.218   0.907   3.782
    1   AR   Ar   10   6.880   1.739   4.375
    1   AR   Ar   11   2.050   7.004   4.495
    1   AR   Ar   12   1.074   1.000   3.138
    1   AR   Ar   13   6.731   1.133   5.179
    1   AR   Ar   14   0.344   1.356   5.844
    1   AR   Ar   15   0.010   5.896   9.012
    1   AR   Ar   16   0.682   0.875   4.908
    1   AR   Ar   17   7.059   1.818   0.075
    1   AR   Ar   18   6.958   2.972   0.190
    1   AR   Ar   19   0.720   1.588   0.759
    1   AR   Ar   20   0.479   3.159  -1.951
    1   AR   Ar   21   6.623   0.050   2.074
    1   AR   Ar   22   6.648   2.149   2.274
    1   AR   Ar   23   0.174   1.039   1.984
    1   AR   Ar   24   0.121   2.698   1.127
    1   AR   Ar   25   7.104   1.556   3.020
    1   AR   Ar   26   5.958   2.351   3.533
    1   AR   Ar   27   1.405   1.283   4.148
    1   AR   Ar   28   0.728   2.797   4.461
    1   AR   Ar   29   6.216   2.025   6.023
    1   AR   Ar   30   6.927   2.874   6.508
    1   AR   Ar   31   0.836   1.314   7.066
    1   AR   Ar   32   1.650   2.803   5.123
    1   AR   Ar   33   1.288   3.803  -1.560
    1   AR   Ar   34   0.817   5.280   0.950
    1   AR   Ar   35   0.489   3.718   1.205
    1   AR   Ar   36   1.860   6.615  -1.661
    1   AR   Ar   37   0.185   3.287   2.327
    1   AR   Ar   38   0.598   4.952   2.076
    1   AR   Ar   39   1.222   3.517   2.922
    1   AR   Ar   40   1.230   4.284   1.747
    1   AR   Ar   41   0.746   2.547   2.775
    1   AR   Ar   42   6.640   5.158   5.391
    1   AR   Ar   43   6.938   2.650   5.328
    1   AR   Ar   44   0.287   3.601   3.517
    1   AR   Ar   45   0.142   3.537   5.749
    1   AR   Ar   46   6.521   5.340   6.721
    1   AR   Ar   47   6.963   4.057   6.801
    1   AR   Ar   48   0.353   5.979   6.581
    1   AR   Ar   49   0.600   4.959  -0.938
    1   AR   Ar   50   6.187   5.463   1.644
    1   AR   Ar   51   1.353   4.843   0.061
    1   AR   Ar   52   0.349   5.571   0.017
    1   AR   Ar   53   6.573   5.325   2.672
    1   AR   Ar   54   6.617   6.322   3.279
    1   AR   Ar   55   0.555   5.591   3.036
    1   AR   Ar   56   1.042   6.186   1.611
    1   AR   Ar   57   6.880   4.319   2.656
    1   AR   Ar   58   0.048   5.971   4.161
    1   AR   Ar   59   1.736   5.977   4.950
    1   AR   Ar   60   0.973   6.732   3.755
    1   AR   Ar   61   6.231   6.165   6.129
    1   AR   Ar   62   0.091   6.232   5.292
    1   AR   Ar   63   1.005   5.288   5.998
    1   AR   Ar   64   1.036   6.771   4.760
    1   AR   Ar   65   2.702   0.401   0.204
    1   AR   Ar   66   2.085   0.751   1.319
    1   AR   Ar   67   3.501   6.152   0.479
    1   AR   Ar   68   3.862   0.866  -0.326
    1   AR   Ar   69   1.743   6.791   0.604
    1   AR   Ar   70   1.489   0.278   2.428
    1   AR   Ar   71   3.418   0.789   1.731
    1   AR   Ar   72   3.961   0.722   0.745
    1   AR   Ar   73   1.864   6.880   3.360
    1   AR   Ar   74   2.094   1.360   4.974
    1   AR   Ar   75   3.106   0.831   5.112
    1   AR   Ar   76   2.664   0.683   2.685
    1   AR   Ar   77   2.272   0.270   5.565
    1   AR   Ar   78   1.065   0.648   6.155
    1   AR   Ar   79   3.801   6.541   7.022
    1   AR   Ar   80   3.018   6.798   5.106
    1   AR   Ar   81   2.109   1.483   0.180
    1   AR   Ar   82   1.522   3.272   0.798
    1   AR   Ar   83   2.938   1.890   1.421
    1   AR   Ar   84   2.051   3.134  -1.407
    1   AR   Ar   85   1.621   2.240   0.968
    1   AR   Ar   86   1.767   2.759   2.552
    1   AR   Ar   87   1.862   1.838   1.927
    1   AR   Ar   88   3.078   3.823   1.346
    1   AR   Ar   89   0.701   2.016   1.817
    1   AR   Ar   90   3.110   2.033   4.855
    1   AR   Ar   91   2.078   2.009   4.216
    1   AR   Ar   92   1.903   1.664   3.103
    1   AR   Ar   93   1.379   1.629   5.667
    1   AR   Ar   94   2.581   1.193   8.658
    1   AR   Ar   95   3.072   0.070   6.373
    1   AR   Ar   96   1.577   2.155   6.661
    1   AR   Ar   97   2.772   3.634  -0.853
    1   AR   Ar   98   2.816   4.733   1.668
    1   AR   Ar   99   3.480   2.947  -1.397
    1   AR   Ar  100   2.553   4.575  -0.368
    1   AR   Ar  101   1.133   3.154   1.871
    1   AR   Ar  102   2.081   3.918   3.744
    1   AR   Ar  103   2.104   3.697   1.694
    1   AR   Ar  104   3.414   3.785   0.195
    1   AR   Ar  105   1.664   2.874   3.861
    1   AR   Ar  106   2.481   3.170   4.549
    1   AR   Ar  107   2.826   4.034   5.454
    1   AR   Ar  108   3.222   3.189   3.835
    1   AR   Ar  109   1.074   3.884   4.309
    1   AR   Ar  110   1.870   4.465   4.897
    1   AR   Ar  111   3.472   5.039   6.957
    1   AR   Ar  112   1.515   3.634   5.742
    1   AR   Ar  113   2.313   4.301   0.825
    1   AR   Ar  114   2.115   5.749   0.869
    1   AR   Ar  115   3.340   5.148   0.149
    1   AR   Ar  116   3.723   7.056   0.005
    1   AR   Ar  117   1.362   4.821   2.884
    1   AR   Ar  118   1.335   6.296   2.687
    1   AR   Ar  119   2.353   4.377   2.457
    1   AR   Ar  120   1.609   5.266   1.972
    1   AR   Ar  121   0.120   4.545   3.776
    1   AR   Ar  122   2.691   6.115   4.085
    1   AR   Ar  123   2.312   5.171   4.157
    1   AR   Ar  124   2.217   5.572   2.913
    1   AR   Ar  125   0.811   5.591   4.810
    1   AR   Ar  126   1.023   6.785   6.289
    1   AR   Ar  127   2.542   5.271   7.262
    1   AR   Ar  128   2.122   6.489   5.916
    1   AR   Ar  129   2.805   6.648   1.351
    1   AR   Ar  130   3.701   6.820  -1.009
    1   AR   Ar  131   4.824   6.027   0.419
    1   AR   Ar  132   5.713   2.498  -0.928
    1   AR   Ar  133   4.086   0.001   2.326
    1   AR   Ar  134   3.943   1.200   2.567
    1   AR   Ar  135   4.688   0.512   3.014
    1   AR   Ar  136   4.525   0.843   1.768
    1   AR   Ar  137   3.030   7.071   3.461
    1   AR   Ar  138   4.589   1.165   5.020
    1   AR   Ar  139   4.601   0.346   4.169
    1   AR   Ar  140   4.220   1.331   3.692
    1   AR   Ar  141   3.674   0.074   4.339
    1   AR   Ar  142   3.871   0.448   5.648
    1   AR   Ar  143   5.300   7.100   6.345
    1   AR   Ar  144   5.197   0.570   7.345
    1   AR   Ar  145   2.641   2.603   0.539
    1   AR   Ar  146   3.937   2.597   1.012
    1   AR   Ar  147   5.309   1.825   0.437
    1   AR   Ar  148   5.772   3.272  -1.682
    1   AR   Ar  149   4.494   1.659   1.008
    1   AR   Ar  150   2.835   1.809   2.623
    1   AR   Ar  151   3.123   2.085   3.734
    1   AR   Ar  152   2.821   2.885   2.032
    1   AR   Ar  153   3.212   0.936   3.910
    1   AR   Ar  154   3.982   2.358   4.504
    1   AR   Ar  155   5.491   1.034   5.690
    1   AR   Ar  156   4.273   3.094   3.695
    1   AR   Ar  157   3.772   1.804   5.749
    1   AR   Ar  158   3.176   2.310   6.549
    1   AR   Ar  159   4.666   1.005   6.405
    1   AR   Ar  160   4.446   2.961   5.711
    1   AR   Ar  161   4.481   2.839  -0.450
    1   AR   Ar  162   4.494   4.789   0.904
    1   AR   Ar  163   5.143   3.151   0.520
    1   AR   Ar  164   5.580   4.753   1.100
    1   AR   Ar  165   3.143   3.731   2.817
    1   AR   Ar  166   2.831   4.564   3.347
    1   AR   Ar  167   4.465   2.845   2.682
    1   AR   Ar  168   4.364   3.701   0.726
    1   AR   Ar  169   2.601   2.705   3.093
    1   AR   Ar  170   2.982   4.135   4.287
    1   AR   Ar  171   3.872   3.363   4.655
    1   AR   Ar  172   4.419   4.433   4.275
    1   AR   Ar  173   3.256   2.747   5.519
    1   AR   Ar  174   3.918   5.003   6.027
    1   AR   Ar  175   4.000   4.006   5.828
    1   AR   Ar  176   3.676   4.663   4.920
    1   AR   Ar  177   5.652   5.453   0.080
    1   AR   Ar  178   4.029   6.530   1.415
    1   AR   Ar  179   3.535   5.336   1.167
    1   AR   Ar  180   4.339   5.159  -0.278
    1   AR   Ar  181   2.905   5.715   2.112
    1   AR   Ar  182   2.431   6.524   2.533
    1   AR   Ar  183   3.612   4.733   2.501
    1   AR   Ar  184   4.198   5.766   2.339
    1   AR   Ar  185   1.488   5.824   3.964
    1   AR   Ar  186   3.568   5.218   3.968
    1   AR   Ar  187   4.592   5.439   3.178
    1   AR   Ar  188   3.319   6.214   2.899
    1   AR   Ar  189   2.213   5.130   5.753
    1   AR   Ar  190   4.529   5.842   6.364
    1   AR   Ar  191   4.835   6.123   5.168
    1   AR   Ar  192   3.832   5.787   5.143
    1   AR   Ar  193   5.666   7.059  -0.085
    1   AR   Ar  194   4.653   0.099  -0.415
    1   AR   Ar  195   5.830   0.861   0.547
    1   AR   Ar  196   6.115   1.227  -0.898
    1   AR   Ar  197   4.991   0.100   1.059
    1   AR   Ar  198   5.463   1.540   1.586
    1   AR   Ar  199   5.416   0.332   2.038
    1   AR   Ar  200   6.805   1.730   1.182
    1   AR   Ar  201   4.958   6.631   2.693
    1   AR   Ar  202   5.348   1.178   3.963
    1   AR   Ar  203   7.002   7.006   4.473
    1   AR   Ar  204   5.914   0.133   3.005
    1   AR   Ar  205   5.891   6.904   4.228
    1   AR   Ar  206   4.993   7.106   5.107
    1   AR   Ar  207   7.049   0.194   5.641
    1   AR   Ar  208   6.257   0.765   4.006
    1   AR   Ar  209   6.593   2.650  -1.615
    1   AR   Ar  210   4.795   2.367   1.795
    1   AR   Ar  211   6.153   2.424   0.391
    1   AR   Ar  212   6.482   3.962  -0.805
    1   AR   Ar  213   3.803   2.130   2.010
    1   AR   Ar  214   4.150   3.494   1.807
    1   AR   Ar  215   5.684   2.385   2.441
    1   AR   Ar  216   6.278   2.904   1.689
    1   AR   Ar  217   4.922   2.233   4.050
    1   AR   Ar  218   5.739   1.885   4.985
    1   AR   Ar  219   5.334   1.471   2.925
    1   AR   Ar  220   6.290   3.249   3.156
    1   AR   Ar  221   6.017   0.079   5.530
    1   AR   Ar  222   4.882   2.225   6.288
    1   AR   Ar  223   6.504   1.425   6.943
    1   AR   Ar  224   5.536   2.986   5.526
    1   AR   Ar  225   5.221   4.207   0.171
    1   AR   Ar  226   4.664   4.356   2.290
    1   AR   Ar  227   6.755   4.188   1.648
    1   AR   Ar  228   6.568   5.013   0.630
    1   AR   Ar  229   6.144   3.633   0.929
    1   AR   Ar  230   4.121   4.113   3.217
    1   AR   Ar  231   0.034   2.476   3.732
    1   AR   Ar  232   5.308   3.641   1.429
    1   AR   Ar  233   5.944   2.804   4.474
    1   AR   Ar  234   6.148   4.378   4.947
    1   AR   Ar  235   6.684   3.600   4.484
    1   AR   Ar  236   5.188   3.685   3.848
    1   AR   Ar  237   4.877   3.146   4.821
    1   AR   Ar  238   4.986   4.218   5.401
    1   AR   Ar  239   6.369   3.735   7.918
    1   AR   Ar  240   6.069   3.759   6.029
    1   AR   Ar  241   6.787   0.837  -0.035
    1   AR   Ar  242   5.099   6.262   1.569
    1   AR   Ar  243   5.899   4.551   2.235
    1   AR   Ar  244   6.791   6.357  -0.314
    1   AR   Ar  245   5.172   5.320   2.163
    1   AR   Ar  246   6.021   6.262   2.430
    1   AR   Ar  247   5.510   3.532   2.528
    1   AR   Ar  248   5.902   6.849   1.364
    1   AR   Ar  249   5.501   4.787   3.094
    1   AR   Ar  250   4.352   6.295   4.200
    1   AR   Ar  251   4.908   5.337   4.247
    1   AR   Ar  252   5.650   5.883   3.468
    1   AR   Ar  253   5.671   5.345   5.891
    1   AR   Ar  254   5.565   5.614   6.975
    1   AR   Ar  255   5.389   4.539   6.657
    1   AR   Ar  256   6.227   6.006   4.659
    7.12000  7.12000 12.00000
Argon-slab step 1065
  256
    1   AR   Ar    1   0.805   0.329  -0.897
    1   AR   Ar    2   6.969   0.647   1.002
    1   AR   Ar    3   0.268   6.901   0.336
    1   AR   Ar    4   1.063   0.742   0.170
    1   AR   Ar    5   6.892   6.267   0.913
    1   AR   Ar    6   0.287   0.227   3.038
    1   AR   Ar    7   0.093   6.262   2.188
    1   AR   Ar    8   0.652   0.156   1.730
    1   AR   Ar    9   0.213   0.902   3.788
    1   AR   Ar   10   6.917   1.759   4.369
    1   AR   Ar   11   2.047   7.000   4.488
    1   AR   Ar   12   1.064   1.007   3.082
    1   AR   Ar   13   6.722   1.126   5.198
    1   AR   Ar   14   0.335   1.356   5.827
    1   AR   Ar   15   0.001   5.893   8.988
    1   AR   Ar   16   0.686   0.896   4.899
    1   AR   Ar   17   7.068   1.817   0.089
    1   AR   Ar   18   6.951   3.013   0.184
    1   AR   Ar   19   0.711   1.606   0.767
    1   AR   Ar   20   0.499   3.160  -1.978
    1   AR   Ar   21   6.632   0.065   2.106
    1   AR   Ar   22   6.658   2.166   2.258
    1   AR   Ar   23   0.168   1.096   1.963
    1   AR   Ar   24   0.095   2.702   1.137
    1   AR   Ar   25   7.114   1.570   3.035
    1   AR   Ar   26   5.964   2.334   3.508
    1   AR   Ar   27   1.416   1.242   4.145
    1   AR   Ar   28   0.716   2.776   4.471
    1   AR   Ar   29   6.204   2.069   5.989
    1   AR   Ar   30   6.938   2.867   6.491
    1   AR   Ar   31   0.831   1.277   7.067
    1   AR   Ar   32   1.677   2.787   5.128
    1   AR   Ar   33   1.272   3.801  -1.559
    1   AR   Ar   34   0.817   5.282   0.988
    1   AR   Ar   35   0.515   3.755   1.236
    1   AR   Ar   36   1.869   6.625  -1.664
    1   AR   Ar   37   0.163   3.288   2.324
    1   AR   Ar   38   0.583   4.983   2.047
    1   AR   Ar   39   1.210   3.514   2.921
    1   AR   Ar   40   1.254   4.285   1.758
    1   AR   Ar   41   0.752   2.531   2.768
    1   AR   Ar   42   6.658   5.171   5.415
    1   AR   Ar   43   6.941   2.650   5.322
    1   AR   Ar   44   0.286   3.568   3.526
    1   AR   Ar   45   0.107   3.533   5.729
    1   AR   Ar   46   6.524   5.348   6.741
    1   AR   Ar   47   6.970   4.055   6.793
    1   AR   Ar   48   0.328   5.973   6.629
    1   AR   Ar   49   0.567   4.964  -0.939
    1   AR   Ar   50   6.195   5.465   1.644
    1   AR   Ar   51   1.371   4.848   0.084
    1   AR   Ar   52   0.322   5.576   0.020
    1   AR   Ar   53   6.570   5.286   2.681
    1   AR   Ar   54   6.627   6.342   3.270
    1   AR   Ar   55   0.554   5.596   3.069
    1   AR   Ar   56   1.071   6.185   1.617
    1   AR   Ar   57   6.868   4.294   2.637
    1   AR   Ar   58   0.036   5.981   4.168
    1   AR   Ar   59   1.730   5.955   4.950
    1   AR   Ar   60   0.961   6.704   3.732
    1   AR   Ar   61   6.218   6.148   6.138
    1   AR   Ar   62   0.118   6.236   5.281
    1   AR   Ar   63   1.023   5.261   5.999
    1   AR   Ar   64   1.041   6.811   4.775
    1   AR   Ar   65   2.727   0.416   0.199
    1   AR   Ar   66   2.049   0.736   1.309
    1   AR   Ar   67   3.482   6.162   0.498
    1   AR   Ar   68   3.855   0.857  -0.323
    1   AR   Ar   69   1.759   6.813   0.593
    1   AR   Ar   70   1.479   0.276   2.442
    1   AR   Ar   71   3.406   0.795   1.744
    1   AR   Ar   72   3.988   0.768   0.742
    1   AR   Ar   73   1.894   6.873   3.372
    1   AR   Ar   74   2.081   1.369   4.922
    1   AR   Ar   75   3.097   0.851   5.116
    1   AR   Ar   76   2.655   0.671   2.697
    1   AR   Ar   77   2.291   0.269   5.576
    1   AR   Ar   78   1.063   0.676   6.119
    1   AR   Ar   79   3.836   6.543   7.017
    1   AR   Ar   80   2.980   6.793   5.125
    1   AR   Ar   81   2.106   1.465   0.186
    1   AR   Ar   82   1.509   3.295   0.804
    1   AR   Ar   83   2.939   1.925   1.450
    1   AR   Ar   84   2.051   3.160  -1.448
    1   AR   Ar   85   1.618   2.253   0.978
    1   AR   Ar   86   1.799   2.739   2.549
    1   AR   Ar   87   1.870   1.854   1.920
    1   AR   Ar   88   3.089   3.826   1.323
    1   AR   Ar   89   0.673   2.001   1.832
    1   AR   Ar   90   3.087   2.019   4.864
    1   AR   Ar   91   2.076   2.005   4.240
    1   AR   Ar   92   1.907   1.674   3.106
    1   AR   Ar   93   1.380   1.646   5.655
    1   AR   Ar   94   2.564   1.190   8.674
    1   AR   Ar   95   3.084   0.092   6.346
    1   AR   Ar   96   1.599   2.128   6.671
    1   AR   Ar   97   2.756   3.600  -0.867
    1   AR   Ar   98   2.791   4.757   1.643
    1   AR   Ar   99   3.515   2.931  -1.408
    1   AR   Ar  100   2.531   4.543  -0.405
    1   AR   Ar  101   1.159   3.126   1.871
    1   AR   Ar  102   2.100   3.886   3.731
    1   AR   Ar  103   2.107   3.733   1.687
    1   AR   Ar  104   3.421   3.796   0.161
    1   AR   Ar  105   1.659   2.870   3.840
    1   AR   Ar  106   2.500   3.190   4.543
    1   AR   Ar  107   2.849   4.052   5.462
    1   AR   Ar  108   3.204   3.172   3.856
    1   AR   Ar  109   1.077   3.891   4.326
    1   AR   Ar  110   1.857   4.459   4.903
    1   AR   Ar  111   3.487   5.029   6.952
    1   AR   Ar  112   1.507   3.666   5.756
    1   AR   Ar  113   2.360   4.304   0.816
    1   AR   Ar  114   2.076   5.739   0.864
    1   AR   Ar  115   3.351   5.150   0.118
    1   AR   Ar  116   3.711   7.039   0.003
    1   AR   Ar  117   1.322   4.820   2.891
    1   AR   Ar  118   1.334   6.293   2.673
    1   AR   Ar  119   2.373   4.374   2.449
    1   AR   Ar  120   1.620   5.290   1.992
    1   AR   Ar  121   0.127   4.540   3.763
    1   AR   Ar  122   2.715   6.121   4.089
    1   AR   Ar  123   2.330   5.165   4.112
    1   AR   Ar  124   2.209   5.561   2.904
    1   AR   Ar  125   0.807   5.587   4.809
    1   AR   Ar  126   1.050   6.785   6.273
    1   AR   Ar  127   2.520   5.259   7.247
    1   AR   Ar  128   2.105   6.450   5.906
    1   AR   Ar  129   2.775   6.658   1.362
    1   AR   Ar  130   3.746   6.832  -1.008
    1   AR   Ar  131   4.809   6.018   0.401
    1   AR   Ar  132   5.720   2.500  -0.910
    1   AR   Ar  133   4.070   0.022   2.311
    1   AR   Ar  134   3.955   1.247   2.562
    1   AR   Ar  135   4.646   0.454   3.012
    1   AR   Ar  136   4.527   0.852   1.776
    1   AR   Ar  137   3.032   7.057   3.440
    1   AR   Ar  138   4.585   1.170   5.023
    1   AR   Ar  139   4.628   0.365   4.145
    1   AR   Ar  140   4.246   1.321   3.698
    1   AR   Ar  141   3.683   0.065   4.347
    1   AR   Ar  142   3.884   0.450   5.625
    1   AR   Ar  143   5.304   7.092   6.333
    1   AR   Ar  144   5.207   0.536   7.340
    1   AR   Ar  145   2.615   2.573   0.526
    1   AR   Ar  146   3.919   2.593   1.021
    1   AR   Ar  147   5.334   1.856   0.423
    1   AR   Ar  148   5.797   3.290  -1.697
    1   AR   Ar  149   4.523   1.642   1.034
    1   AR   Ar  150   2.828   1.815   2.601
    1   AR   Ar  151   3.126   2.091   3.741
    1   AR   Ar  152   2.845   2.840   2.020
    1   AR   Ar  153   3.195   0.953   3.888
    1   AR   Ar  154   3.977   2.355   4.501
    1   AR   Ar  155   5.484   1.019   5.690
    1   AR   Ar  156   4.266   3.146   3.691
    1   AR   Ar  157   3.782   1.780   5.756
    1   AR   Ar  158   3.162   2.304   6.515
    1   AR   Ar  159   4.665   1.002   6.395
    1   AR   Ar  160   4.452   2.944   5.743
    1   AR   Ar  161   4.493   2.843  -0.441
    1   AR   Ar  162   4.518   4.759   0.909
    1   AR   Ar  163   5.169   3.140   0.492
    1   AR   Ar  164   5.569   4.795   1.094
    1   AR   Ar  165   3.131   3.700   2.805
    1   AR   Ar  166   2.797   4.597   3.330
    1   AR   Ar  167   4.473   2.832   2.689
    1   AR   Ar  168   4.356   3.745   0.751
    1   AR   Ar  169   2.580   2.694   3.126
    1   AR   Ar  170   2.973   4.133   4.288
    1   AR   Ar  171   3.825   3.418   4.652
    1   AR   Ar  172   4.396   4.405   4.290
    1   AR   Ar  173   3.233   2.733   5.525
    1   AR   Ar  174   3.950   5.006   6.027
    1   AR   Ar  175   3.999   4.017   5.819
    1   AR   Ar  176   3.670   4.650   4.905
    1   AR   Ar  177   5.627   5.449   0.069
    1   AR   Ar  178   4.024   6.582   1.414
    1   AR   Ar  179   3.520   5.362   1.174
    1   AR   Ar  180   4.329   5.184  -0.266
    1   AR   Ar  181   2.898   5.711   2.122
    1   AR   Ar  182   2.470   6.522   2.560
    1   AR   Ar  183   3.601   4.751   2.503
    1   AR   Ar  184   4.184   5.790   2.333
    1   AR   Ar  185   1.527   5.800   3.955
    1   AR   Ar  186   3.554   5.238   3.955
    1   AR   Ar  187   4.615   5.413   3.168
    1   AR   Ar  188   3.301   6.223   2.882
    1   AR   Ar  189   2.214   5.141   5.773
    1   AR   Ar  190   4.526   5.811   6.385
    1   AR   Ar  191   4.860   6.124   5.161
    1   AR   Ar  192   3.828   5.770   5.106
    1   AR   Ar  193   5.652   7.040  -0.074
    1   AR   Ar  194   4.658   0.103  -0.413
    1   AR   Ar  195   5.813   0.860   0.567
    1   AR   Ar  196   6.123   1.234  -0.874
    1   AR   Ar  197   4.953   0.096   1.064
    1   AR   Ar  198   5.485   1.512   1.586
    1   AR   Ar  199   5.419   0.344   2.047
    1   AR   Ar  200   6.790   1.721   1.186
    1   AR   Ar  201   4.991   6.636   2.710
    1   AR   Ar  202   5.345   1.190   3.948
    1   AR   Ar  203   7.034   7.049   4.467
    1   AR   Ar  204   5.920   0.136   2.997
    1   AR   Ar  205   5.881   6.906   4.233
    1   AR   Ar  206   4.989   0.034   5.108
    1   AR   Ar  207   7.048   0.193   5.633
    1   AR   Ar  208   6.244   0.773   3.973
    1   AR   Ar  209   6.589   2.693  -1.638
    1   AR   Ar  210   4.766   2.368   1.781
    1   AR   Ar  211   6.161   2.419   0.351
    1   AR   Ar  212   6.457   3.973  -0.806
    1   AR   Ar  213   3.763   2.118   2.035
    1   AR   Ar  214   4.174   3.514   1.821
    1   AR   Ar  215   5.686   2.349   2.411
    1   AR   Ar  216   6.312   2.904   1.705
    1   AR   Ar  217   4.928   2.241   4.051
    1   AR   Ar  218   5.708   1.891   5.011
    1   AR   Ar  219   5.377   1.474   2.924
    1   AR   Ar  220   6.253   3.261   3.147
    1   AR   Ar  221   6.041   0.070   5.520
    1   AR   Ar  222   4.914   2.206   6.298
    1   AR   Ar  223   6.504   1.443   6.919
    1   AR   Ar  224   5.534   2.977   5.522
    1   AR   Ar  225   5.221   4.218   0.189
    1   AR   Ar  226   4.646   4.343   2.269
    1   AR   Ar  227   6.743   4.193   1.660
    1   AR   Ar  228   6.551   5.031   0.622
    1   AR   Ar  229   6.133   3.640   0.930
    1   AR   Ar  230   4.127   4.111   3.236
    1   AR   Ar  231   0.011   2.495   3.724
    1   AR   Ar  232   5.261   3.664   1.403
    1   AR   Ar  233   5.926   2.798   4.512
    1   AR   Ar  234   6.171   4.403   4.944
    1   AR   Ar  235   6.685   3.598   4.477
    1   AR   Ar  236   5.171   3.714   3.805
    1   AR   Ar  237   4.872   3.139   4.783
    1   AR   Ar  238   5.008   4.202   5.392
    1   AR   Ar  239   6.376   3.758   7.921
    1   AR   Ar  240   6.037   3.733   6.056
    1   AR   Ar  241   6.767   0.825  -0.027
    1   AR   Ar  242   5.086   6.259   1.539
    1   AR   Ar  243   5.895   4.520   2.223
    1   AR   Ar  244   6.798   6.352  -0.303
    1   AR   Ar  245   5.169   5.312   2.147
    1   AR   Ar  246   6.040   6.269   2.415
    1   AR   Ar  247   5.519   3.550   2.534
    1   AR   Ar  248   5.889   6.857   1.350
    1   AR   Ar  249   5.515   4.782   3.118
    1   AR   Ar  250   4.380   6.305   4.192
    1   AR   Ar  251   4.941   5.341   4.223
    1   AR   Ar  252   5.654   5.890   3.470
    1   AR   Ar  253   5.681   5.333   5.887
    1   AR   Ar  254   5.538   5.612   6.976
    1   AR   Ar  255   5.399   4.545   6.641
    1   AR   Ar  256   6.219   6.020   4.645
    7.12000  7.12000 12.00000
Argon-slab step 1070
  256
    1   AR   Ar    1   0.815   0.330  -0.903
    1   AR   Ar    2   6.967   0.636   1.002
    1   AR   Ar    3   0.292   6.932   0.347
    1   AR   Ar    4   1.032   0.732   0.189
    1   AR   Ar    5   6.869   6.254   0.915
    1   AR   Ar    6   0.298   0.184   3.059
    1   AR   Ar    7   0.080   6.258   2.175
    1   AR   Ar    8   0.650   0.114   1.724
    1   AR   Ar    9   0.203   0.895   3.809
    1   AR   Ar   10   6.951   1.773   4.367
    1   AR   Ar   11   2.046   6.995   4.480
    1   AR   Ar   12   1.071   1.018   3.066
    1   AR   Ar   13   6.702   1.116   5.213
    1   AR   Ar   14   0.329   1.362   5.818
    1   AR   Ar   15   7.112   5.890   8.964
    1   AR   Ar   16   0.689   0.915   4.889
    1   AR   Ar   17   7.075   1.820   0.102
    1   AR   Ar   18   6.949   3.061   0.174
    1   AR   Ar   19   0.704   1.623   0.780
    1   AR   Ar   20   0.518   3.160  -2.006
    1   AR   Ar   21   6.641   0.081   2.138
    1   AR   Ar   22   6.682   2.172   2.245
    1   AR   Ar   23   0.159   1.151   1.945
    1   AR   Ar   24   0.069   2.704   1.154
    1   AR   Ar   25   7.113   1.556   3.095
    1   AR   Ar   26   5.970   2.311   3.484
    1   AR   Ar   27   1.419   1.196   4.136
    1   AR   Ar   28   0.704   2.756   4.482
    1   AR   Ar   29   6.192   2.112   5.955
    1   AR   Ar   30   6.947   2.859   6.475
    1   AR   Ar   31   0.826   1.241   7.065
    1   AR   Ar   32   1.703   2.768   5.131
    1   AR   Ar   33   1.252   3.805  -1.558
    1   AR   Ar   34   0.817   5.284   1.026
    1   AR   Ar   35   0.539   3.790   1.266
    1   AR   Ar   36   1.881   6.630  -1.671
    1   AR   Ar   37   0.138   3.292   2.320
    1   AR   Ar   38   0.560   5.007   2.024
    1   AR   Ar   39   1.198   3.516   2.921
    1   AR   Ar   40   1.280   4.285   1.770
    1   AR   Ar   41   0.758   2.512   2.765
    1   AR   Ar   42   6.680   5.190   5.441
    1   AR   Ar   43   6.941   2.643   5.313
    1   AR   Ar   44   0.287   3.526   3.533
    1   AR   Ar   45   0.074   3.538   5.709
    1   AR   Ar   46   6.530   5.351   6.760
    1   AR   Ar   47   6.975   4.052   6.784
    1   AR   Ar   48   0.303   5.968   6.676
    1   AR   Ar   49   0.534   4.968  -0.939
    1   AR   Ar   50   6.205   5.469   1.645
    1   AR   Ar   51   1.388   4.853   0.107
    1   AR   Ar   52   0.297   5.578   0.026
    1   AR   Ar   53   6.567   5.253   2.692
    1   AR   Ar   54   6.641   6.364   3.263
    1   AR   Ar   55   0.551   5.603   3.102
    1   AR   Ar   56   1.100   6.185   1.621
    1   AR   Ar   57   6.862   4.303   2.619
    1   AR   Ar   58   0.027   5.992   4.171
    1   AR   Ar   59   1.734   5.938   4.956
    1   AR   Ar   60   0.941   6.675   3.707
    1   AR   Ar   61   6.208   6.140   6.145
    1   AR   Ar   62   0.141   6.241   5.270
    1   AR   Ar   63   1.041   5.234   5.999
    1   AR   Ar   64   1.042   6.850   4.794
    1   AR   Ar   65   2.751   0.432   0.196
    1   AR   Ar   66   2.014   0.721   1.299
    1   AR   Ar   67   3.463   6.172   0.518
    1   AR   Ar   68   3.848   0.855  -0.324
    1   AR   Ar   69   1.775   6.835   0.583
    1   AR   Ar   70   1.507   0.259   2.470
    1   AR   Ar   71   3.393   0.801   1.756
    1   AR   Ar   72   4.015   0.810   0.741
    1   AR   Ar   73   1.931   6.869   3.385
    1   AR   Ar   74   2.074   1.358   4.894
    1   AR   Ar   75   3.084   0.875   5.115
    1   AR   Ar   76   2.640   0.655   2.713
    1   AR   Ar   77   2.305   0.279   5.586
    1   AR   Ar   78   1.064   0.706   6.081
    1   AR   Ar   79   3.864   6.551   7.013
    1   AR   Ar   80   2.947   6.784   5.141
    1   AR   Ar   81   2.104   1.447   0.194
    1   AR   Ar   82   1.496   3.322   0.811
    1   AR   Ar   83   2.935   1.957   1.475
    1   AR   Ar   84   2.053   3.180  -1.492
    1   AR   Ar   85   1.614   2.264   0.987
    1   AR   Ar   86   1.827   2.715   2.542
    1   AR   Ar   87   1.879   1.867   1.915
    1   AR   Ar   88   3.111   3.821   1.301
    1   AR   Ar   89   0.646   1.991   1.845
    1   AR   Ar   90   3.055   1.993   4.866
    1   AR   Ar   91   2.082   2.026   4.244
    1   AR   Ar   92   1.891   1.704   3.095
    1   AR   Ar   93   1.380   1.664   5.645
    1   AR   Ar   94   2.546   1.187   8.690
    1   AR   Ar   95   3.098   0.107   6.324
    1   AR   Ar   96   1.620   2.100   6.680
    1   AR   Ar   97   2.746   3.567  -0.876
    1   AR   Ar   98   2.768   4.789   1.615
    1   AR   Ar   99   3.550   2.916  -1.418
    1   AR   Ar  100   2.509   4.512  -0.440
    1   AR   Ar  101   1.180   3.099   1.866
    1   AR   Ar  102   2.117   3.853   3.717
    1   AR   Ar  103   2.112   3.759   1.680
    1   AR   Ar  104   3.427   3.807   0.127
    1   AR   Ar  105   1.653   2.870   3.817
    1   AR   Ar  106   2.498   3.195   4.548
    1   AR   Ar  107   2.873   4.070   5.467
    1   AR   Ar  108   3.191   3.155   3.866
    1   AR   Ar  109   1.079   3.897   4.343
    1   AR   Ar  110   1.845   4.451   4.909
    1   AR   Ar  111   3.504   5.019   6.948
    1   AR   Ar  112   1.499   3.699   5.770
    1   AR   Ar  113   2.400   4.306   0.806
    1   AR   Ar  114   2.051   5.726   0.860
    1   AR   Ar  115   3.358   5.148   0.088
    1   AR   Ar  116   3.696   7.019   0.009
    1   AR   Ar  117   1.282   4.817   2.901
    1   AR   Ar  118   1.343   6.303   2.662
    1   AR   Ar  119   2.383   4.371   2.446
    1   AR   Ar  120   1.630   5.309   1.996
    1   AR   Ar  121   0.131   4.530   3.768
    1   AR   Ar  122   2.741   6.137   4.093
    1   AR   Ar  123   2.350   5.152   4.069
    1   AR   Ar  124   2.198   5.547   2.901
    1   AR   Ar  125   0.772   5.570   4.806
    1   AR   Ar  126   1.077   6.780   6.257
    1   AR   Ar  127   2.495   5.249   7.233
    1   AR   Ar  128   2.088   6.411   5.902
    1   AR   Ar  129   2.748   6.675   1.356
    1   AR   Ar  130   3.792   6.843  -1.011
    1   AR   Ar  131   4.790   6.012   0.385
    1   AR   Ar  132   5.728   2.502  -0.890
    1   AR   Ar  133   4.048   0.040   2.293
    1   AR   Ar  134   3.966   1.292   2.564
    1   AR   Ar  135   4.609   0.405   3.017
    1   AR   Ar  136   4.529   0.860   1.781
    1   AR   Ar  137   3.032   7.044   3.420
    1   AR   Ar  138   4.580   1.175   5.025
    1   AR   Ar  139   4.661   0.386   4.119
    1   AR   Ar  140   4.272   1.312   3.703
    1   AR   Ar  141   3.685   0.055   4.358
    1   AR   Ar  142   3.904   0.450   5.605
    1   AR   Ar  143   5.306   7.084   6.320
    1   AR   Ar  144   5.216   0.502   7.333
    1   AR   Ar  145   2.616   2.592   0.520
    1   AR   Ar  146   3.900   2.587   1.044
    1   AR   Ar  147   5.355   1.885   0.407
    1   AR   Ar  148   5.832   3.328  -1.717
    1   AR   Ar  149   4.549   1.625   1.062
    1   AR   Ar  150   2.825   1.819   2.576
    1   AR   Ar  151   3.121   2.091   3.745
    1   AR   Ar  152   2.869   2.798   2.009
    1   AR   Ar  153   3.177   0.972   3.866
    1   AR   Ar  154   3.975   2.354   4.496
    1   AR   Ar  155   5.478   1.004   5.689
    1   AR   Ar  156   4.261   3.194   3.689
    1   AR   Ar  157   3.788   1.760   5.748
    1   AR   Ar  158   3.148   2.298   6.481
    1   AR   Ar  159   4.663   0.998   6.384
    1   AR   Ar  160   4.453   2.931   5.773
    1   AR   Ar  161   4.505   2.848  -0.431
    1   AR   Ar  162   4.540   4.734   0.915
    1   AR   Ar  163   5.200   3.123   0.461
    1   AR   Ar  164   5.558   4.835   1.088
    1   AR   Ar  165   3.121   3.667   2.794
    1   AR   Ar  166   2.769   4.634   3.317
    1   AR   Ar  167   4.473   2.809   2.684
    1   AR   Ar  168   4.343   3.786   0.776
    1   AR   Ar  169   2.565   2.689   3.166
    1   AR   Ar  170   2.965   4.133   4.291
    1   AR   Ar  171   3.777   3.478   4.655
    1   AR   Ar  172   4.381   4.372   4.296
    1   AR   Ar  173   3.213   2.732   5.535
    1   AR   Ar  174   3.982   5.014   6.020
    1   AR   Ar  175   3.997   4.019   5.806
    1   AR   Ar  176   3.656   4.642   4.900
    1   AR   Ar  177   5.604   5.442   0.059
    1   AR   Ar  178   4.017   6.632   1.410
    1   AR   Ar  179   3.508   5.387   1.185
    1   AR   Ar  180   4.323   5.209  -0.253
    1   AR   Ar  181   2.892   5.698   2.121
    1   AR   Ar  182   2.484   6.538   2.578
    1   AR   Ar  183   3.589   4.759   2.498
    1   AR   Ar  184   4.166   5.816   2.320
    1   AR   Ar  185   1.539   5.786   3.952
    1   AR   Ar  186   3.547   5.256   3.967
    1   AR   Ar  187   4.640   5.385   3.164
    1   AR   Ar  188   3.309   6.219   2.883
    1   AR   Ar  189   2.215   5.154   5.791
    1   AR   Ar  190   4.527   5.783   6.406
    1   AR   Ar  191   4.865   6.117   5.143
    1   AR   Ar  192   3.823   5.753   5.068
    1   AR   Ar  193   5.640   7.021  -0.060
    1   AR   Ar  194   4.663   0.108  -0.412
    1   AR   Ar  195   5.796   0.859   0.589
    1   AR   Ar  196   6.131   1.242  -0.848
    1   AR   Ar  197   4.911   0.095   1.064
    1   AR   Ar  198   5.508   1.483   1.587
    1   AR   Ar  199   5.421   0.357   2.059
    1   AR   Ar  200   6.773   1.712   1.191
    1   AR   Ar  201   5.026   6.635   2.726
    1   AR   Ar  202   5.342   1.215   3.940
    1   AR   Ar  203   7.067   7.092   4.461
    1   AR   Ar  204   5.926   0.137   2.991
    1   AR   Ar  205   5.891   6.921   4.218
    1   AR   Ar  206   4.986   0.087   5.110
    1   AR   Ar  207   7.056   0.191   5.625
    1   AR   Ar  208   6.241   0.778   3.941
    1   AR   Ar  209   6.594   2.729  -1.659
    1   AR   Ar  210   4.740   2.370   1.765
    1   AR   Ar  211   6.169   2.415   0.313
    1   AR   Ar  212   6.431   3.983  -0.807
    1   AR   Ar  213   3.725   2.112   2.062
    1   AR   Ar  214   4.197   3.530   1.834
    1   AR   Ar  215   5.678   2.318   2.382
    1   AR   Ar  216   6.342   2.913   1.715
    1   AR   Ar  217   4.948   2.238   4.043
    1   AR   Ar  218   5.677   1.895   5.038
    1   AR   Ar  219   5.400   1.468   2.912
    1   AR   Ar  220   6.226   3.275   3.143
    1   AR   Ar  221   6.060   0.059   5.506
    1   AR   Ar  222   4.950   2.183   6.309
    1   AR   Ar  223   6.505   1.462   6.894
    1   AR   Ar  224   5.537   2.962   5.523
    1   AR   Ar  225   5.222   4.229   0.208
    1   AR   Ar  226   4.632   4.333   2.250
    1   AR   Ar  227   6.730   4.197   1.661
    1   AR   Ar  228   6.535   5.049   0.614
    1   AR   Ar  229   6.130   3.648   0.922
    1   AR   Ar  230   4.134   4.109   3.254
    1   AR   Ar  231   7.108   2.519   3.706
    1   AR   Ar  232   5.205   3.690   1.386
    1   AR   Ar  233   5.909   2.794   4.547
    1   AR   Ar  234   6.188   4.422   4.946
    1   AR   Ar  235   6.688   3.593   4.469
    1   AR   Ar  236   5.156   3.743   3.761
    1   AR   Ar  237   4.862   3.134   4.734
    1   AR   Ar  238   5.023   4.191   5.376
    1   AR   Ar  239   6.383   3.781   7.923
    1   AR   Ar  240   6.007   3.709   6.083
    1   AR   Ar  241   6.747   0.809  -0.021
    1   AR   Ar  242   5.068   6.250   1.512
    1   AR   Ar  243   5.904   4.517   2.209
    1   AR   Ar  244   6.802   6.346  -0.294
    1   AR   Ar  245   5.168   5.306   2.132
    1   AR   Ar  246   6.055   6.276   2.397
    1   AR   Ar  247   5.522   3.563   2.542
    1   AR   Ar  248   5.888   6.865   1.332
    1   AR   Ar  249   5.526   4.780   3.149
    1   AR   Ar  250   4.406   6.315   4.183
    1   AR   Ar  251   4.976   5.347   4.201
    1   AR   Ar  252   5.627   5.893   3.462
    1   AR   Ar  253   5.685   5.315   5.881
    1   AR   Ar  254   5.508   5.610   6.977
    1   AR   Ar  255   5.409   4.552   6.623
    1   AR   Ar  256   6.219   6.033   4.634
    7.12000  7.12000 12.00000
Argon-slab step 1075
  256
    1   AR   Ar    1   0.825   0.344  -0.907
    1   AR   Ar    2   6.965   0.624   1.004
    1   AR   Ar    3   0.321   6.968   0.358
    1   AR   Ar    4   1.008   0.715   0.190
    1   AR   Ar    5   6.843   6.237   0.921
    1   AR   Ar    6   0.309   0.138   3.075
    1   AR   Ar    7   0.068   6.252   2.163
    1   AR   Ar    8   0.646   0.071   1.718
    1   AR   Ar    9   0.190   0.877   3.820
    1   AR   Ar   10   6.984   1.783   4.370
    1   AR   Ar   11   2.053   6.990   4.489
    1   AR   Ar   12   1.074   1.029   3.053
    1   AR   Ar   13   6.671   1.105   5.220
    1   AR   Ar   14   0.325   1.375   5.815
    1   AR   Ar   15   7.103   5.886   8.940
    1   AR   Ar   16   0.690   0.932   4.879
    1   AR   Ar   17   7.079   1.827   0.112
    1   AR   Ar   18   6.951   3.114   0.162
    1   AR   Ar   19   0.699   1.622   0.792
    1   AR   Ar   20   0.534   3.159  -2.033
    1   AR   Ar   21   6.651   0.099   2.169
    1   AR   Ar   22   6.719   2.167   2.240
    1   AR   Ar   23   0.157   1.183   1.938
    1   AR   Ar   24   0.049   2.705   1.172
    1   AR   Ar   25   7.111   1.548   3.148
    1   AR   Ar   26   5.974   2.285   3.461
    1   AR   Ar   27   1.416   1.147   4.120
    1   AR   Ar   28   0.693   2.737   4.494
    1   AR   Ar   29   6.181   2.155   5.921
    1   AR   Ar   30   6.954   2.849   6.460
    1   AR   Ar   31   0.820   1.214   7.078
    1   AR   Ar   32   1.728   2.746   5.134
    1   AR   Ar   33   1.227   3.814  -1.556
    1   AR   Ar   34   0.818   5.286   1.063
    1   AR   Ar   35   0.559   3.821   1.292
    1   AR   Ar   36   1.892   6.635  -1.678
    1   AR   Ar   37   0.112   3.295   2.314
    1   AR   Ar   38   0.533   5.015   2.008
    1   AR   Ar   39   1.187   3.521   2.922
    1   AR   Ar   40   1.304   4.290   1.786
    1   AR   Ar   41   0.763   2.493   2.766
    1   AR   Ar   42   6.706   5.215   5.469
    1   AR   Ar   43   6.937   2.629   5.299
    1   AR   Ar   44   0.287   3.507   3.552
    1   AR   Ar   45   0.043   3.553   5.689
    1   AR   Ar   46   6.538   5.349   6.779
    1   AR   Ar   47   6.979   4.048   6.774
    1   AR   Ar   48   0.279   5.964   6.721
    1   AR   Ar   49   0.509   4.963  -0.953
    1   AR   Ar   50   6.217   5.475   1.646
    1   AR   Ar   51   1.406   4.858   0.132
    1   AR   Ar   52   0.274   5.577   0.034
    1   AR   Ar   53   6.562   5.232   2.704
    1   AR   Ar   54   6.657   6.387   3.257
    1   AR   Ar   55   0.547   5.612   3.135
    1   AR   Ar   56   1.121   6.184   1.624
    1   AR   Ar   57   6.865   4.303   2.616
    1   AR   Ar   58   0.022   6.004   4.171
    1   AR   Ar   59   1.744   5.923   4.966
    1   AR   Ar   60   0.916   6.645   3.683
    1   AR   Ar   61   6.201   6.142   6.151
    1   AR   Ar   62   0.161   6.250   5.262
    1   AR   Ar   63   1.060   5.210   5.997
    1   AR   Ar   64   1.040   6.889   4.816
    1   AR   Ar   65   2.775   0.448   0.194
    1   AR   Ar   66   1.980   0.706   1.288
    1   AR   Ar   67   3.442   6.180   0.540
    1   AR   Ar   68   3.841   0.859  -0.328
    1   AR   Ar   69   1.792   6.859   0.574
    1   AR   Ar   70   1.537   0.240   2.497
    1   AR   Ar   71   3.380   0.808   1.767
    1   AR   Ar   72   4.017   0.818   0.729
    1   AR   Ar   73   1.968   6.867   3.402
    1   AR   Ar   74   2.074   1.324   4.890
    1   AR   Ar   75   3.070   0.900   5.110
    1   AR   Ar   76   2.633   0.647   2.738
    1   AR   Ar   77   2.318   0.276   5.597
    1   AR   Ar   78   1.069   0.734   6.043
    1   AR   Ar   79   3.881   6.569   7.009
    1   AR   Ar   80   2.921   6.768   5.152
    1   AR   Ar   81   2.100   1.428   0.205
    1   AR   Ar   82   1.483   3.352   0.818
    1   AR   Ar   83   2.923   1.977   1.488
    1   AR   Ar   84   2.053   3.192  -1.541
    1   AR   Ar   85   1.610   2.274   0.994
    1   AR   Ar   86   1.849   2.690   2.530
    1   AR   Ar   87   1.889   1.877   1.913
    1   AR   Ar   88   3.145   3.807   1.285
    1   AR   Ar   89   0.628   1.995   1.854
    1   AR   Ar   90   3.018   1.960   4.863
    1   AR   Ar   91   2.092   2.067   4.229
    1   AR   Ar   92   1.876   1.737   3.087
    1   AR   Ar   93   1.378   1.683   5.635
    1   AR   Ar   94   2.528   1.185   8.705
    1   AR   Ar   95   3.118   0.100   6.331
    1   AR   Ar   96   1.641   2.070   6.689
    1   AR   Ar   97   2.742   3.535  -0.880
    1   AR   Ar   98   2.747   4.825   1.588
    1   AR   Ar   99   3.584   2.902  -1.428
    1   AR   Ar  100   2.486   4.482  -0.472
    1   AR   Ar  101   1.197   3.074   1.855
    1   AR   Ar  102   2.131   3.818   3.701
    1   AR   Ar  103   2.122   3.772   1.669
    1   AR   Ar  104   3.432   3.819   0.094
    1   AR   Ar  105   1.643   2.873   3.791
    1   AR   Ar  106   2.479   3.191   4.563
    1   AR   Ar  107   2.897   4.087   5.470
    1   AR   Ar  108   3.188   3.139   3.864
    1   AR   Ar  109   1.082   3.900   4.357
    1   AR   Ar  110   1.836   4.445   4.915
    1   AR   Ar  111   3.524   5.007   6.948
    1   AR   Ar  112   1.491   3.733   5.781
    1   AR   Ar  113   2.428   4.293   0.817
    1   AR   Ar  114   2.084   5.701   0.858
    1   AR   Ar  115   3.358   5.145   0.061
    1   AR   Ar  116   3.682   6.999   0.020
    1   AR   Ar  117   1.244   4.811   2.911
    1   AR   Ar  118   1.355   6.314   2.652
    1   AR   Ar  119   2.346   4.351   2.423
    1   AR   Ar  120   1.643   5.327   1.993
    1   AR   Ar  121   0.135   4.516   3.786
    1   AR   Ar  122   2.770   6.166   4.098
    1   AR   Ar  123   2.368   5.137   4.034
    1   AR   Ar  124   2.186   5.531   2.903
    1   AR   Ar  125   0.739   5.548   4.801
    1   AR   Ar  126   1.103   6.770   6.239
    1   AR   Ar  127   2.467   5.238   7.218
    1   AR   Ar  128   2.071   6.401   5.920
    1   AR   Ar  129   2.721   6.693   1.346
    1   AR   Ar  130   3.838   6.855  -1.016
    1   AR   Ar  131   4.768   6.010   0.373
    1   AR   Ar  132   5.736   2.504  -0.869
    1   AR   Ar  133   4.018   0.055   2.272
    1   AR   Ar  134   3.979   1.329   2.576
    1   AR   Ar  135   4.597   0.378   3.021
    1   AR   Ar  136   4.531   0.868   1.786
    1   AR   Ar  137   3.031   7.036   3.406
    1   AR   Ar  138   4.575   1.180   5.026
    1   AR   Ar  139   4.697   0.406   4.093
    1   AR   Ar  140   4.297   1.305   3.708
    1   AR   Ar  141   3.683   0.043   4.370
    1   AR   Ar  142   3.927   0.449   5.584
    1   AR   Ar  143   5.308   7.077   6.306
    1   AR   Ar  144   5.225   0.469   7.325
    1   AR   Ar  145   2.635   2.643   0.520
    1   AR   Ar  146   3.877   2.578   1.087
    1   AR   Ar  147   5.365   1.907   0.393
    1   AR   Ar  148   5.854   3.376  -1.736
    1   AR   Ar  149   4.567   1.611   1.086
    1   AR   Ar  150   2.822   1.820   2.552
    1   AR   Ar  151   3.102   2.083   3.746
    1   AR   Ar  152   2.890   2.766   2.004
    1   AR   Ar  153   3.159   0.990   3.845
    1   AR   Ar  154   3.973   2.355   4.490
    1   AR   Ar  155   5.474   0.988   5.686
    1   AR   Ar  156   4.255   3.235   3.692
    1   AR   Ar  157   3.787   1.764   5.727
    1   AR   Ar  158   3.133   2.290   6.451
    1   AR   Ar  159   4.660   0.994   6.373
    1   AR   Ar  160   4.451   2.920   5.800
    1   AR   Ar  161   4.518   2.852  -0.419
    1   AR   Ar  162   4.559   4.723   0.923
    1   AR   Ar  163   5.231   3.103   0.430
    1   AR   Ar  164   5.550   4.873   1.084
    1   AR   Ar  165   3.113   3.633   2.783
    1   AR   Ar  166   2.752   4.671   3.306
    1   AR   Ar  167   4.472   2.787   2.681
    1   AR   Ar  168   4.325   3.813   0.797
    1   AR   Ar  169   2.554   2.689   3.209
    1   AR   Ar  170   2.957   4.136   4.295
    1   AR   Ar  171   3.732   3.539   4.663
    1   AR   Ar  172   4.376   4.335   4.295
    1   AR   Ar  173   3.195   2.739   5.544
    1   AR   Ar  174   4.012   5.023   6.007
    1   AR   Ar  175   3.995   4.013   5.789
    1   AR   Ar  176   3.636   4.637   4.906
    1   AR   Ar  177   5.583   5.432   0.050
    1   AR   Ar  178   4.009   6.679   1.401
    1   AR   Ar  179   3.500   5.411   1.198
    1   AR   Ar  180   4.324   5.234  -0.240
    1   AR   Ar  181   2.888   5.681   2.111
    1   AR   Ar  182   2.473   6.567   2.584
    1   AR   Ar  183   3.573   4.723   2.469
    1   AR   Ar  184   4.147   5.845   2.302
    1   AR   Ar  185   1.541   5.777   3.946
    1   AR   Ar  186   3.539   5.274   3.979
    1   AR   Ar  187   4.663   5.357   3.161
    1   AR   Ar  188   3.344   6.200   2.901
    1   AR   Ar  189   2.215   5.167   5.808
    1   AR   Ar  190   4.531   5.760   6.429
    1   AR   Ar  191   4.867   6.107   5.124
    1   AR   Ar  192   3.817   5.735   5.029
    1   AR   Ar  193   5.632   7.000  -0.043
    1   AR   Ar  194   4.670   0.111  -0.413
    1   AR   Ar  195   5.779   0.857   0.613
    1   AR   Ar  196   6.139   1.251  -0.821
    1   AR   Ar  197   4.923   0.116   1.046
    1   AR   Ar  198   5.531   1.454   1.589
    1   AR   Ar  199   5.423   0.370   2.074
    1   AR   Ar  200   6.753   1.704   1.194
    1   AR   Ar  201   5.063   6.628   2.739
    1   AR   Ar  202   5.331   1.243   3.936
    1   AR   Ar  203   7.099   0.017   4.456
    1   AR   Ar  204   5.932   0.138   2.987
    1   AR   Ar  205   5.898   6.938   4.201
    1   AR   Ar  206   4.984   0.142   5.114
    1   AR   Ar  207   7.074   0.190   5.618
    1   AR   Ar  208   6.248   0.781   3.908
    1   AR   Ar  209   6.611   2.757  -1.678
    1   AR   Ar  210   4.717   2.374   1.749
    1   AR   Ar  211   6.184   2.415   0.275
    1   AR   Ar  212   6.414   3.977  -0.801
    1   AR   Ar  213   3.693   2.115   2.089
    1   AR   Ar  214   4.215   3.538   1.844
    1   AR   Ar  215   5.665   2.293   2.352
    1   AR   Ar  216   6.348   2.944   1.733
    1   AR   Ar  217   4.969   2.235   4.036
    1   AR   Ar  218   5.643   1.896   5.063
    1   AR   Ar  219   5.397   1.448   2.886
    1   AR   Ar  220   6.213   3.286   3.147
    1   AR   Ar  221   6.072   0.046   5.490
    1   AR   Ar  222   4.987   2.156   6.319
    1   AR   Ar  223   6.498   1.499   6.899
    1   AR   Ar  224   5.559   2.987   5.503
    1   AR   Ar  225   5.223   4.240   0.228
    1   AR   Ar  226   4.623   4.330   2.235
    1   AR   Ar  227   6.718   4.200   1.646
    1   AR   Ar  228   6.520   5.068   0.608
    1   AR   Ar  229   6.131   3.655   0.911
    1   AR   Ar  230   4.138   4.114   3.269
    1   AR   Ar  231   7.082   2.548   3.682
    1   AR   Ar  232   5.147   3.719   1.376
    1   AR   Ar  233   5.894   2.792   4.578
    1   AR   Ar  234   6.202   4.439   4.948
    1   AR   Ar  235   6.694   3.586   4.459
    1   AR   Ar  236   5.143   3.773   3.717
    1   AR   Ar  237   4.883   3.116   4.721
    1   AR   Ar  238   5.011   4.201   5.336
    1   AR   Ar  239   6.397   3.801   7.921
    1   AR   Ar  240   5.980   3.689   6.112
    1   AR   Ar  241   6.726   0.790  -0.016
    1   AR   Ar  242   5.048   6.237   1.488
    1   AR   Ar  243   5.918   4.533   2.194
    1   AR   Ar  244   6.801   6.343  -0.287
    1   AR   Ar  245   5.166   5.301   2.117
    1   AR   Ar  246   6.068   6.283   2.375
    1   AR   Ar  247   5.511   3.580   2.539
    1   AR   Ar  248   5.894   6.873   1.312
    1   AR   Ar  249   5.501   4.752   3.163
    1   AR   Ar  250   4.432   6.326   4.173
    1   AR   Ar  251   5.010   5.352   4.180
    1   AR   Ar  252   5.600   5.898   3.453
    1   AR   Ar  253   5.684   5.292   5.872
    1   AR   Ar  254   5.477   5.610   6.976
    1   AR   Ar  255   5.419   4.558   6.605
    1   AR   Ar  256   6.216   6.042   4.627
    7.12000  7.12000 12.00000
Argon-slab step 1080
  256
    1   AR   Ar    1   0.834   0.358  -0.910
    1   AR   Ar    2   6.965   0.611   1.010
    1   AR   Ar    3   0.350   7.005   0.369
    1   AR   Ar    4   0.987   0.697   0.187
    1   AR   Ar    5   6.817   6.218   0.927
    1   AR   Ar    6   0.317   0.091   3.087
    1   AR   Ar    7   0.057   6.246   2.152
    1   AR   Ar    8   0.641   0.028   1.713
    1   AR   Ar    9   0.193   0.852   3.819
    1   AR   Ar   10   7.016   1.790   4.377
    1   AR   Ar   11   2.050   6.966   4.453
    1   AR   Ar   12   1.073   1.041   3.040
    1   AR   Ar   13   6.633   1.092   5.221
    1   AR   Ar   14   0.318   1.395   5.815
    1   AR   Ar   15   7.094   5.883   8.916
    1   AR   Ar   16   0.709   0.931   4.885
    1   AR   Ar   17   7.079   1.834   0.117
    1   AR   Ar   18   6.954   3.169   0.149
    1   AR   Ar   19   0.697   1.608   0.806
    1   AR   Ar   20   0.549   3.156  -2.061
    1   AR   Ar   21   6.662   0.118   2.199
    1   AR   Ar   22   6.763   2.155   2.240
    1   AR   Ar   23   0.165   1.178   1.945
    1   AR   Ar   24   0.035   2.706   1.188
    1   AR   Ar   25   7.105   1.552   3.189
    1   AR   Ar   26   5.979   2.256   3.440
    1   AR   Ar   27   1.410   1.097   4.098
    1   AR   Ar   28   0.682   2.719   4.506
    1   AR   Ar   29   6.172   2.198   5.892
    1   AR   Ar   30   6.970   2.849   6.440
    1   AR   Ar   31   0.812   1.209   7.102
    1   AR   Ar   32   1.749   2.723   5.137
    1   AR   Ar   33   1.201   3.827  -1.553
    1   AR   Ar   34   0.821   5.289   1.094
    1   AR   Ar   35   0.573   3.847   1.316
    1   AR   Ar   36   1.903   6.640  -1.685
    1   AR   Ar   37   0.087   3.299   2.309
    1   AR   Ar   38   0.503   5.023   2.000
    1   AR   Ar   39   1.176   3.527   2.922
    1   AR   Ar   40   1.323   4.305   1.808
    1   AR   Ar   41   0.768   2.474   2.770
    1   AR   Ar   42   6.734   5.244   5.499
    1   AR   Ar   43   6.932   2.610   5.280
    1   AR   Ar   44   0.289   3.525   3.587
    1   AR   Ar   45   0.012   3.575   5.669
    1   AR   Ar   46   6.543   5.342   6.798
    1   AR   Ar   47   6.981   4.043   6.762
    1   AR   Ar   48   0.257   5.962   6.763
    1   AR   Ar   49   0.497   4.944  -0.991
    1   AR   Ar   50   6.231   5.482   1.648
    1   AR   Ar   51   1.424   4.863   0.157
    1   AR   Ar   52   0.255   5.572   0.046
    1   AR   Ar   53   6.554   5.226   2.717
    1   AR   Ar   54   6.675   6.411   3.252
    1   AR   Ar   55   0.541   5.622   3.168
    1   AR   Ar   56   1.113   6.179   1.621
    1   AR   Ar   57   6.876   4.291   2.627
    1   AR   Ar   58   0.021   6.017   4.167
    1   AR   Ar   59   1.757   5.909   4.980
    1   AR   Ar   60   0.891   6.613   3.661
    1   AR   Ar   61   6.205   6.145   6.154
    1   AR   Ar   62   0.176   6.264   5.257
    1   AR   Ar   63   1.078   5.186   5.993
    1   AR   Ar   64   1.034   6.927   4.838
    1   AR   Ar   65   2.798   0.464   0.194
    1   AR   Ar   66   1.945   0.691   1.278
    1   AR   Ar   67   3.418   6.188   0.563
    1   AR   Ar   68   3.833   0.865  -0.335
    1   AR   Ar   69   1.809   6.882   0.567
    1   AR   Ar   70   1.568   0.221   2.521
    1   AR   Ar   71   3.366   0.816   1.778
    1   AR   Ar   72   4.009   0.814   0.716
    1   AR   Ar   73   1.913   6.879   3.356
    1   AR   Ar   74   2.077   1.282   4.898
    1   AR   Ar   75   3.057   0.924   5.104
    1   AR   Ar   76   2.659   0.666   2.798
    1   AR   Ar   77   2.332   0.251   5.613
    1   AR   Ar   78   1.079   0.756   6.006
    1   AR   Ar   79   3.889   6.593   6.997
    1   AR   Ar   80   2.904   6.744   5.156
    1   AR   Ar   81   2.097   1.409   0.217
    1   AR   Ar   82   1.471   3.383   0.827
    1   AR   Ar   83   2.904   1.976   1.477
    1   AR   Ar   84   2.053   3.198  -1.595
    1   AR   Ar   85   1.605   2.286   0.999
    1   AR   Ar   86   1.867   2.668   2.516
    1   AR   Ar   87   1.885   1.869   1.933
    1   AR   Ar   88   3.152   3.788   1.273
    1   AR   Ar   89   0.622   2.019   1.857
    1   AR   Ar   90   2.980   1.926   4.858
    1   AR   Ar   91   2.106   2.114   4.207
    1   AR   Ar   92   1.885   1.757   3.091
    1   AR   Ar   93   1.376   1.705   5.624
    1   AR   Ar   94   2.511   1.182   8.721
    1   AR   Ar   95   3.139   0.091   6.337
    1   AR   Ar   96   1.661   2.040   6.696
    1   AR   Ar   97   2.746   3.504  -0.879
    1   AR   Ar   98   2.725   4.859   1.564
    1   AR   Ar   99   3.618   2.888  -1.436
    1   AR   Ar  100   2.464   4.455  -0.500
    1   AR   Ar  101   1.208   3.051   1.840
    1   AR   Ar  102   2.145   3.785   3.683
    1   AR   Ar  103   2.139   3.766   1.650
    1   AR   Ar  104   3.434   3.832   0.061
    1   AR   Ar  105   1.628   2.880   3.763
    1   AR   Ar  106   2.456   3.187   4.584
    1   AR   Ar  107   2.920   4.103   5.473
    1   AR   Ar  108   3.188   3.123   3.860
    1   AR   Ar  109   1.083   3.901   4.370
    1   AR   Ar  110   1.829   4.439   4.921
    1   AR   Ar  111   3.546   4.994   6.949
    1   AR   Ar  112   1.483   3.767   5.791
    1   AR   Ar  113   2.444   4.282   0.809
    1   AR   Ar  114   2.116   5.675   0.858
    1   AR   Ar  115   3.352   5.140   0.038
    1   AR   Ar  116   3.689   6.999  -0.012
    1   AR   Ar  117   1.230   4.806   2.918
    1   AR   Ar  118   1.366   6.322   2.646
    1   AR   Ar  119   2.296   4.335   2.404
    1   AR   Ar  120   1.648   5.331   1.988
    1   AR   Ar  121   0.138   4.506   3.803
    1   AR   Ar  122   2.798   6.197   4.102
    1   AR   Ar  123   2.379   5.131   4.019
    1   AR   Ar  124   2.172   5.516   2.908
    1   AR   Ar  125   0.710   5.520   4.795
    1   AR   Ar  126   1.126   6.761   6.221
    1   AR   Ar  127   2.439   5.228   7.202
    1   AR   Ar  128   2.055   6.388   5.937
    1   AR   Ar  129   2.694   6.710   1.337
    1   AR   Ar  130   3.884   6.866  -1.024
    1   AR   Ar  131   4.743   6.012   0.364
    1   AR   Ar  132   5.745   2.506  -0.847
    1   AR   Ar  133   3.984   0.069   2.253
    1   AR   Ar  134   3.996   1.352   2.597
    1   AR   Ar  135   4.619   0.376   3.017
    1   AR   Ar  136   4.533   0.873   1.792
    1   AR   Ar  137   3.031   7.032   3.398
    1   AR   Ar  138   4.571   1.186   5.026
    1   AR   Ar  139   4.733   0.421   4.070
    1   AR   Ar  140   4.317   1.301   3.711
    1   AR   Ar  141   3.680   0.033   4.384
    1   AR   Ar  142   3.952   0.447   5.564
    1   AR   Ar  143   5.309   7.070   6.290
    1   AR   Ar  144   5.233   0.435   7.315
    1   AR   Ar  145   2.653   2.693   0.521
    1   AR   Ar  146   3.875   2.577   1.117
    1   AR   Ar  147   5.364   1.921   0.381
    1   AR   Ar  148   5.867   3.432  -1.754
    1   AR   Ar  149   4.558   1.598   1.101
    1   AR   Ar  150   2.815   1.819   2.531
    1   AR   Ar  151   3.092   2.065   3.753
    1   AR   Ar  152   2.885   2.776   1.994
    1   AR   Ar  153   3.147   1.003   3.829
    1   AR   Ar  154   3.972   2.358   4.485
    1   AR   Ar  155   5.473   0.973   5.682
    1   AR   Ar  156   4.248   3.261   3.702
    1   AR   Ar  157   3.788   1.767   5.704
    1   AR   Ar  158   3.118   2.279   6.426
    1   AR   Ar  159   4.656   0.990   6.361
    1   AR   Ar  160   4.446   2.911   5.823
    1   AR   Ar  161   4.531   2.857  -0.407
    1   AR   Ar  162   4.576   4.735   0.935
    1   AR   Ar  163   5.262   3.084   0.399
    1   AR   Ar  164   5.546   4.909   1.081
    1   AR   Ar  165   3.105   3.598   2.774
    1   AR   Ar  166   2.748   4.697   3.281
    1   AR   Ar  167   4.472   2.767   2.680
    1   AR   Ar  168   4.294   3.818   0.810
    1   AR   Ar  169   2.541   2.695   3.250
    1   AR   Ar  170   2.970   4.154   4.283
    1   AR   Ar  171   3.725   3.568   4.663
    1   AR   Ar  172   4.378   4.297   4.291
    1   AR   Ar  173   3.180   2.753   5.547
    1   AR   Ar  174   4.039   5.030   5.986
    1   AR   Ar  175   3.993   4.002   5.770
    1   AR   Ar  176   3.613   4.638   4.919
    1   AR   Ar  177   5.565   5.419   0.041
    1   AR   Ar  178   4.001   6.722   1.384
    1   AR   Ar  179   3.497   5.432   1.215
    1   AR   Ar  180   4.331   5.259  -0.227
    1   AR   Ar  181   2.886   5.668   2.099
    1   AR   Ar  182   2.472   6.565   2.555
    1   AR   Ar  183   3.556   4.687   2.440
    1   AR   Ar  184   4.130   5.873   2.281
    1   AR   Ar  185   1.541   5.771   3.934
    1   AR   Ar  186   3.531   5.291   3.990
    1   AR   Ar  187   4.681   5.331   3.156
    1   AR   Ar  188   3.390   6.175   2.925
    1   AR   Ar  189   2.214   5.180   5.824
    1   AR   Ar  190   4.541   5.745   6.455
    1   AR   Ar  191   4.871   6.097   5.108
    1   AR   Ar  192   3.812   5.717   4.989
    1   AR   Ar  193   5.654   6.992  -0.039
    1   AR   Ar  194   4.681   0.106  -0.417
    1   AR   Ar  195   5.762   0.854   0.638
    1   AR   Ar  196   6.147   1.262  -0.793
    1   AR   Ar  197   4.947   0.143   1.021
    1   AR   Ar  198   5.555   1.424   1.590
    1   AR   Ar  199   5.426   0.383   2.088
    1   AR   Ar  200   6.730   1.697   1.195
    1   AR   Ar  201   5.101   6.615   2.749
    1   AR   Ar  202   5.320   1.273   3.934
    1   AR   Ar  203   0.011   0.059   4.451
    1   AR   Ar  204   5.939   0.139   2.988
    1   AR   Ar  205   5.903   6.956   4.182
    1   AR   Ar  206   4.982   0.195   5.119
    1   AR   Ar  207   7.101   0.189   5.612
    1   AR   Ar  208   6.259   0.783   3.874
    1   AR   Ar  209   6.639   2.776  -1.696
    1   AR   Ar  210   4.698   2.382   1.734
    1   AR   Ar  211   6.208   2.421   0.238
    1   AR   Ar  212   6.402   3.959  -0.789
    1   AR   Ar  213   3.675   2.132   2.113
    1   AR   Ar  214   4.222   3.530   1.850
    1   AR   Ar  215   5.651   2.273   2.320
    1   AR   Ar  216   6.345   2.984   1.750
    1   AR   Ar  217   4.991   2.235   4.028
    1   AR   Ar  218   5.606   1.894   5.086
    1   AR   Ar  219   5.392   1.423   2.860
    1   AR   Ar  220   6.213   3.295   3.160
    1   AR   Ar  221   6.079   0.031   5.472
    1   AR   Ar  222   5.027   2.126   6.328
    1   AR   Ar  223   6.485   1.514   6.922
    1   AR   Ar  224   5.578   3.008   5.490
    1   AR   Ar  225   5.221   4.241   0.229
    1   AR   Ar  226   4.632   4.319   2.228
    1   AR   Ar  227   6.708   4.201   1.618
    1   AR   Ar  228   6.505   5.088   0.602
    1   AR   Ar  229   6.132   3.662   0.898
    1   AR   Ar  230   4.140   4.130   3.276
    1   AR   Ar  231   7.058   2.572   3.654
    1   AR   Ar  232   5.098   3.749   1.370
    1   AR   Ar  233   5.885   2.789   4.596
    1   AR   Ar  234   6.213   4.454   4.951
    1   AR   Ar  235   6.702   3.576   4.449
    1   AR   Ar  236   5.136   3.804   3.672
    1   AR   Ar  237   4.874   3.105   4.716
    1   AR   Ar  238   5.000   4.211   5.296
    1   AR   Ar  239   6.423   3.814   7.913
    1   AR   Ar  240   5.978   3.691   6.068
    1   AR   Ar  241   6.706   0.770  -0.012
    1   AR   Ar  242   5.027   6.222   1.467
    1   AR   Ar  243   5.925   4.550   2.178
    1   AR   Ar  244   6.795   6.345  -0.280
    1   AR   Ar  245   5.164   5.299   2.103
    1   AR   Ar  246   6.078   6.290   2.352
    1   AR   Ar  247   5.489   3.600   2.526
    1   AR   Ar  248   5.906   6.880   1.292
    1   AR   Ar  249   5.470   4.716   3.172
    1   AR   Ar  250   4.456   6.337   4.160
    1   AR   Ar  251   5.044   5.356   4.162
    1   AR   Ar  252   5.599   5.906   3.440
    1   AR   Ar  253   5.680   5.266   5.861
    1   AR   Ar  254   5.446   5.610   6.974
    1   AR   Ar  255   5.429   4.562   6.586
    1   AR   Ar  256   6.211   6.049   4.625
    7.12000  7.12000 12.00000
Argon-slab step 1085
  256
    1   AR   Ar    1   0.842   0.372  -0.911
    1   AR   Ar    2   6.979   0.615   1.015
    1   AR   Ar    3   0.376   7.038   0.380
    1   AR   Ar    4   0.969   0.682   0.184
    1   AR   Ar    5   6.791   6.199   0.934
    1   AR   Ar    6   0.322   0.047   3.090
    1   AR   Ar    7   0.046   6.237   2.141
    1   AR   Ar    8   0.635   7.108   1.709
    1   AR   Ar    9   0.205   0.820   3.827
    1   AR   Ar   10   7.048   1.795   4.386
    1   AR   Ar   11   2.048   6.942   4.417
    1   AR   Ar   12   1.069   1.052   3.027
    1   AR   Ar   13   6.591   1.080   5.218
    1   AR   Ar   14   0.308   1.421   5.816
    1   AR   Ar   15   7.085   5.880   8.892
    1   AR   Ar   16   0.725   0.930   4.895
    1   AR   Ar   17   7.078   1.833   0.106
    1   AR   Ar   18   6.959   3.225   0.138
    1   AR   Ar   19   0.697   1.593   0.825
    1   AR   Ar   20   0.562   3.152  -2.090
    1   AR   Ar   21   6.674   0.137   2.227
    1   AR   Ar   22   6.808   2.141   2.244
    1   AR   Ar   23   0.165   1.154   1.957
    1   AR   Ar   24   0.025   2.710   1.200
    1   AR   Ar   25   7.100   1.563   3.209
    1   AR   Ar   26   5.983   2.225   3.419
    1   AR   Ar   27   1.405   1.046   4.072
    1   AR   Ar   28   0.681   2.721   4.518
    1   AR   Ar   29   6.163   2.239   5.869
    1   AR   Ar   30   6.987   2.850   6.418
    1   AR   Ar   31   0.801   1.216   7.111
    1   AR   Ar   32   1.765   2.695   5.143
    1   AR   Ar   33   1.173   3.844  -1.548
    1   AR   Ar   34   0.828   5.292   1.115
    1   AR   Ar   35   0.581   3.868   1.337
    1   AR   Ar   36   1.913   6.645  -1.691
    1   AR   Ar   37   0.089   3.298   2.298
    1   AR   Ar   38   0.467   5.029   2.002
    1   AR   Ar   39   1.167   3.533   2.921
    1   AR   Ar   40   1.339   4.328   1.836
    1   AR   Ar   41   0.773   2.458   2.780
    1   AR   Ar   42   6.763   5.276   5.530
    1   AR   Ar   43   6.928   2.589   5.257
    1   AR   Ar   44   0.294   3.542   3.620
    1   AR   Ar   45   7.100   3.601   5.648
    1   AR   Ar   46   6.544   5.331   6.816
    1   AR   Ar   47   6.981   4.038   6.749
    1   AR   Ar   48   0.238   5.962   6.803
    1   AR   Ar   49   0.486   4.924  -1.027
    1   AR   Ar   50   6.248   5.491   1.651
    1   AR   Ar   51   1.442   4.869   0.184
    1   AR   Ar   52   0.240   5.561   0.062
    1   AR   Ar   53   6.543   5.234   2.733
    1   AR   Ar   54   6.693   6.435   3.248
    1   AR   Ar   55   0.534   5.635   3.201
    1   AR   Ar   56   1.104   6.175   1.616
    1   AR   Ar   57   6.893   4.270   2.644
    1   AR   Ar   58   0.024   6.033   4.158
    1   AR   Ar   59   1.770   5.896   4.994
    1   AR   Ar   60   0.870   6.577   3.645
    1   AR   Ar   61   6.243   6.135   6.151
    1   AR   Ar   62   0.187   6.283   5.254
    1   AR   Ar   63   1.097   5.164   5.988
    1   AR   Ar   64   1.027   6.964   4.861
    1   AR   Ar   65   2.820   0.482   0.195
    1   AR   Ar   66   1.911   0.677   1.266
    1   AR   Ar   67   3.393   6.197   0.583
    1   AR   Ar   68   3.825   0.873  -0.344
    1   AR   Ar   69   1.774   6.885   0.572
    1   AR   Ar   70   1.576   0.201   2.527
    1   AR   Ar   71   3.352   0.827   1.789
    1   AR   Ar   72   4.007   0.811   0.702
    1   AR   Ar   73   1.860   6.890   3.323
    1   AR   Ar   74   2.080   1.238   4.908
    1   AR   Ar   75   3.047   0.942   5.098
    1   AR   Ar   76   2.682   0.688   2.855
    1   AR   Ar   77   2.333   0.240   5.634
    1   AR   Ar   78   1.094   0.771   5.970
    1   AR   Ar   79   3.899   6.617   6.983
    1   AR   Ar   80   2.902   6.751   5.175
    1   AR   Ar   81   2.092   1.389   0.232
    1   AR   Ar   82   1.461   3.416   0.836
    1   AR   Ar   83   2.879   1.956   1.447
    1   AR   Ar   84   2.053   3.203  -1.651
    1   AR   Ar   85   1.599   2.298   1.003
    1   AR   Ar   86   1.882   2.655   2.506
    1   AR   Ar   87   1.873   1.843   1.963
    1   AR   Ar   88   3.160   3.762   1.268
    1   AR   Ar   89   0.620   2.030   1.824
    1   AR   Ar   90   2.942   1.897   4.851
    1   AR   Ar   91   2.153   2.131   4.168
    1   AR   Ar   92   1.909   1.769   3.105
    1   AR   Ar   93   1.375   1.729   5.612
    1   AR   Ar   94   2.493   1.179   8.737
    1   AR   Ar   95   3.161   0.082   6.342
    1   AR   Ar   96   1.680   2.009   6.702
    1   AR   Ar   97   2.753   3.471  -0.876
    1   AR   Ar   98   2.699   4.886   1.544
    1   AR   Ar   99   3.651   2.875  -1.443
    1   AR   Ar  100   2.441   4.430  -0.525
    1   AR   Ar  101   1.214   3.030   1.822
    1   AR   Ar  102   2.160   3.755   3.662
    1   AR   Ar  103   2.159   3.739   1.619
    1   AR   Ar  104   3.436   3.846   0.030
    1   AR   Ar  105   1.605   2.889   3.733
    1   AR   Ar  106   2.434   3.192   4.622
    1   AR   Ar  107   2.938   4.116   5.475
    1   AR   Ar  108   3.178   3.103   3.872
    1   AR   Ar  109   1.083   3.900   4.379
    1   AR   Ar  110   1.826   4.435   4.927
    1   AR   Ar  111   3.568   4.982   6.951
    1   AR   Ar  112   1.476   3.802   5.799
    1   AR   Ar  113   2.448   4.275   0.781
    1   AR   Ar  114   2.149   5.650   0.861
    1   AR   Ar  115   3.339   5.134   0.018
    1   AR   Ar  116   3.703   7.003  -0.050
    1   AR   Ar  117   1.250   4.802   2.923
    1   AR   Ar  118   1.375   6.324   2.641
    1   AR   Ar  119   2.246   4.329   2.399
    1   AR   Ar  120   1.621   5.288   1.976
    1   AR   Ar  121   0.140   4.502   3.821
    1   AR   Ar  122   2.826   6.228   4.107
    1   AR   Ar  123   2.380   5.136   4.027
    1   AR   Ar  124   2.156   5.502   2.917
    1   AR   Ar  125   0.687   5.487   4.788
    1   AR   Ar  126   1.145   6.752   6.202
    1   AR   Ar  127   2.412   5.218   7.186
    1   AR   Ar  128   2.043   6.371   5.952
    1   AR   Ar  129   2.667   6.727   1.327
    1   AR   Ar  130   3.929   6.876  -1.037
    1   AR   Ar  131   4.741   6.004   0.349
    1   AR   Ar  132   5.735   2.497  -0.855
    1   AR   Ar  133   3.946   0.084   2.243
    1   AR   Ar  134   4.017   1.363   2.628
    1   AR   Ar  135   4.642   0.380   3.014
    1   AR   Ar  136   4.534   0.872   1.802
    1   AR   Ar  137   3.032   7.028   3.395
    1   AR   Ar  138   4.566   1.195   5.025
    1   AR   Ar  139   4.769   0.429   4.052
    1   AR   Ar  140   4.330   1.302   3.712
    1   AR   Ar  141   3.676   0.023   4.397
    1   AR   Ar  142   3.977   0.444   5.545
    1   AR   Ar  143   5.310   7.063   6.273
    1   AR   Ar  144   5.241   0.402   7.304
    1   AR   Ar  145   2.672   2.744   0.525
    1   AR   Ar  146   3.883   2.581   1.135
    1   AR   Ar  147   5.353   1.929   0.371
    1   AR   Ar  148   5.874   3.493  -1.772
    1   AR   Ar  149   4.551   1.589   1.107
    1   AR   Ar  150   2.804   1.813   2.518
    1   AR   Ar  151   3.091   2.038   3.766
    1   AR   Ar  152   2.860   2.821   1.982
    1   AR   Ar  153   3.159   1.000   3.833
    1   AR   Ar  154   3.970   2.363   4.480
    1   AR   Ar  155   5.475   0.958   5.678
    1   AR   Ar  156   4.241   3.272   3.720
    1   AR   Ar  157   3.790   1.770   5.679
    1   AR   Ar  158   3.102   2.264   6.409
    1   AR   Ar  159   4.649   0.985   6.350
    1   AR   Ar  160   4.441   2.903   5.843
    1   AR   Ar  161   4.545   2.862  -0.395
    1   AR   Ar  162   4.586   4.762   0.949
    1   AR   Ar  163   5.294   3.065   0.369
    1   AR   Ar  164   5.550   4.944   1.081
    1   AR   Ar  165   3.104   3.587   2.763
    1   AR   Ar  166   2.761   4.708   3.236
    1   AR   Ar  167   4.471   2.749   2.683
    1   AR   Ar  168   4.248   3.808   0.813
    1   AR   Ar  169   2.521   2.706   3.282
    1   AR   Ar  170   2.982   4.176   4.264
    1   AR   Ar  171   3.743   3.571   4.659
    1   AR   Ar  172   4.385   4.260   4.286
    1   AR   Ar  173   3.166   2.774   5.541
    1   AR   Ar  174   4.061   5.032   5.957
    1   AR   Ar  175   3.991   3.987   5.748
    1   AR   Ar  176   3.595   4.646   4.936
    1   AR   Ar  177   5.548   5.403   0.033
    1   AR   Ar  178   3.972   6.721   1.373
    1   AR   Ar  179   3.500   5.450   1.235
    1   AR   Ar  180   4.341   5.270  -0.223
    1   AR   Ar  181   2.885   5.663   2.093
    1   AR   Ar  182   2.469   6.563   2.521
    1   AR   Ar  183   3.538   4.651   2.410
    1   AR   Ar  184   4.117   5.900   2.255
    1   AR   Ar  185   1.538   5.766   3.920
    1   AR   Ar  186   3.523   5.307   4.000
    1   AR   Ar  187   4.690   5.310   3.148
    1   AR   Ar  188   3.437   6.147   2.953
    1   AR   Ar  189   2.213   5.193   5.839
    1   AR   Ar  190   4.553   5.738   6.484
    1   AR   Ar  191   4.878   6.089   5.099
    1   AR   Ar  192   3.806   5.701   4.949
    1   AR   Ar  193   5.697   6.992  -0.043
    1   AR   Ar  194   4.692   0.102  -0.420
    1   AR   Ar  195   5.762   0.868   0.637
    1   AR   Ar  196   6.153   1.275  -0.764
    1   AR   Ar  197   4.969   0.172   0.996
    1   AR   Ar  198   5.579   1.395   1.592
    1   AR   Ar  199   5.429   0.395   2.101
    1   AR   Ar  200   6.705   1.692   1.194
    1   AR   Ar  201   5.138   6.597   2.756
    1   AR   Ar  202   5.317   1.302   3.935
    1   AR   Ar  203   0.040   0.096   4.450
    1   AR   Ar  204   5.947   0.139   2.994
    1   AR   Ar  205   5.906   6.974   4.162
    1   AR   Ar  206   4.980   0.245   5.124
    1   AR   Ar  207   0.014   0.188   5.605
    1   AR   Ar  208   6.273   0.787   3.840
    1   AR   Ar  209   6.672   2.790  -1.712
    1   AR   Ar  210   4.684   2.393   1.721
    1   AR   Ar  211   6.237   2.434   0.200
    1   AR   Ar  212   6.391   3.941  -0.778
    1   AR   Ar  213   3.669   2.162   2.131
    1   AR   Ar  214   4.216   3.506   1.855
    1   AR   Ar  215   5.637   2.258   2.287
    1   AR   Ar  216   6.333   3.030   1.768
    1   AR   Ar  217   5.011   2.241   4.020
    1   AR   Ar  218   5.564   1.888   5.104
    1   AR   Ar  219   5.414   1.404   2.851
    1   AR   Ar  220   6.221   3.301   3.177
    1   AR   Ar  221   6.082   0.016   5.451
    1   AR   Ar  222   5.068   2.094   6.335
    1   AR   Ar  223   6.473   1.476   6.942
    1   AR   Ar  224   5.587   3.023   5.486
    1   AR   Ar  225   5.218   4.239   0.227
    1   AR   Ar  226   4.649   4.317   2.224
    1   AR   Ar  227   6.702   4.200   1.583
    1   AR   Ar  228   6.492   5.109   0.597
    1   AR   Ar  229   6.132   3.668   0.882
    1   AR   Ar  230   4.139   4.159   3.272
    1   AR   Ar  231   7.047   2.581   3.629
    1   AR   Ar  232   5.066   3.780   1.368
    1   AR   Ar  233   5.885   2.783   4.598
    1   AR   Ar  234   6.222   4.468   4.954
    1   AR   Ar  235   6.711   3.566   4.439
    1   AR   Ar  236   5.132   3.835   3.626
    1   AR   Ar  237   4.860   3.102   4.735
    1   AR   Ar  238   4.988   4.220   5.255
    1   AR   Ar  239   6.414   3.790   7.911
    1   AR   Ar  240   5.994   3.698   6.048
    1   AR   Ar  241   6.687   0.749  -0.008
    1   AR   Ar  242   5.008   6.206   1.449
    1   AR   Ar  243   5.926   4.566   2.162
    1   AR   Ar  244   6.785   6.352  -0.273
    1   AR   Ar  245   5.161   5.298   2.089
    1   AR   Ar  246   6.086   6.296   2.329
    1   AR   Ar  247   5.458   3.622   2.508
    1   AR   Ar  248   5.922   6.887   1.272
    1   AR   Ar  249   5.446   4.676   3.180
    1   AR   Ar  250   4.480   6.350   4.145
    1   AR   Ar  251   5.076   5.359   4.148
    1   AR   Ar  252   5.617   5.917   3.422
    1   AR   Ar  253   5.675   5.240   5.847
    1   AR   Ar  254   5.420   5.610   6.973
    1   AR   Ar  255   5.439   4.564   6.569
    1   AR   Ar  256   6.203   6.053   4.627
    7.12000  7.12000 12.00000
Argon-slab step 1090
  256
    1   AR   Ar    1   0.851   0.385  -0.910
    1   AR   Ar    2   6.997   0.624   1.022
    1   AR   Ar    3   0.381   7.066   0.387
    1   AR   Ar    4   0.958   0.677   0.180
    1   AR   Ar    5   6.765   6.179   0.941
    1   AR   Ar    6   0.321   0.013   3.083
    1   AR   Ar    7   0.037   6.227   2.131
    1   AR   Ar    8   0.625   7.072   1.706
    1   AR   Ar    9   0.226   0.795   3.834
    1   AR   Ar   10   7.080   1.798   4.396
    1   AR   Ar   11   2.045   6.919   4.381
    1   AR   Ar   12   1.061   1.064   3.013
    1   AR   Ar   13   6.547   1.067   5.213
    1   AR   Ar   14   0.295   1.451   5.817
    1   AR   Ar   15   7.076   5.877   8.868
    1   AR   Ar   16   0.739   0.929   4.907
    1   AR   Ar   17   7.077   1.830   0.093
    1   AR   Ar   18   6.964   3.284   0.128
    1   AR   Ar   19   0.698   1.577   0.847
    1   AR   Ar   20   0.565   3.153  -2.105
    1   AR   Ar   21   6.689   0.157   2.252
    1   AR   Ar   22   6.848   2.128   2.250
    1   AR   Ar   23   0.161   1.120   1.971
    1   AR   Ar   24   0.017   2.727   1.200
    1   AR   Ar   25   7.106   1.558   3.189
    1   AR   Ar   26   5.988   2.193   3.398
    1   AR   Ar   27   1.399   0.996   4.044
    1   AR   Ar   28   0.682   2.728   4.530
    1   AR   Ar   29   6.157   2.278   5.853
    1   AR   Ar   30   7.003   2.851   6.397
    1   AR   Ar   31   0.789   1.222   7.118
    1   AR   Ar   32   1.772   2.660   5.155
    1   AR   Ar   33   1.145   3.864  -1.541
    1   AR   Ar   34   0.838   5.295   1.125
    1   AR   Ar   35   0.585   3.885   1.356
    1   AR   Ar   36   1.924   6.651  -1.697
    1   AR   Ar   37   0.112   3.294   2.285
    1   AR   Ar   38   0.428   5.032   2.015
    1   AR   Ar   39   1.159   3.540   2.918
    1   AR   Ar   40   1.351   4.347   1.866
    1   AR   Ar   41   0.778   2.443   2.792
    1   AR   Ar   42   6.792   5.309   5.561
    1   AR   Ar   43   6.928   2.575   5.235
    1   AR   Ar   44   0.304   3.552   3.648
    1   AR   Ar   45   7.067   3.629   5.626
    1   AR   Ar   46   6.537   5.319   6.824
    1   AR   Ar   47   6.980   4.032   6.735
    1   AR   Ar   48   0.224   5.966   6.841
    1   AR   Ar   49   0.474   4.903  -1.063
    1   AR   Ar   50   6.267   5.499   1.654
    1   AR   Ar   51   1.429   4.873   0.187
    1   AR   Ar   52   0.241   5.561   0.061
    1   AR   Ar   53   6.532   5.250   2.749
    1   AR   Ar   54   6.686   6.446   3.243
    1   AR   Ar   55   0.526   5.647   3.232
    1   AR   Ar   56   1.096   6.171   1.611
    1   AR   Ar   57   6.912   4.245   2.664
    1   AR   Ar   58   0.029   6.050   4.148
    1   AR   Ar   59   1.790   5.911   5.016
    1   AR   Ar   60   0.854   6.535   3.638
    1   AR   Ar   61   6.281   6.127   6.146
    1   AR   Ar   62   0.196   6.303   5.252
    1   AR   Ar   63   1.115   5.142   5.982
    1   AR   Ar   64   1.017   6.973   4.874
    1   AR   Ar   65   2.832   0.494   0.193
    1   AR   Ar   66   1.877   0.662   1.255
    1   AR   Ar   67   3.366   6.212   0.597
    1   AR   Ar   68   3.817   0.884  -0.356
    1   AR   Ar   69   1.738   6.888   0.578
    1   AR   Ar   70   1.546   0.183   2.498
    1   AR   Ar   71   3.337   0.841   1.799
    1   AR   Ar   72   4.013   0.813   0.688
    1   AR   Ar   73   1.832   6.874   3.329
    1   AR   Ar   74   2.077   1.194   4.918
    1   AR   Ar   75   3.045   0.947   5.095
    1   AR   Ar   76   2.702   0.716   2.906
    1   AR   Ar   77   2.319   0.245   5.664
    1   AR   Ar   78   1.112   0.779   5.935
    1   AR   Ar   79   3.909   6.641   6.969
    1   AR   Ar   80   2.913   6.756   5.188
    1   AR   Ar   81   2.087   1.369   0.249
    1   AR   Ar   82   1.451   3.448   0.844
    1   AR   Ar   83   2.853   1.929   1.410
    1   AR   Ar   84   2.052   3.206  -1.708
    1   AR   Ar   85   1.580   2.295   0.987
    1   AR   Ar   86   1.895   2.653   2.501
    1   AR   Ar   87   1.858   1.805   1.986
    1   AR   Ar   88   3.179   3.731   1.267
    1   AR   Ar   89   0.625   2.041   1.779
    1   AR   Ar   90   2.907   1.879   4.843
    1   AR   Ar   91   2.195   2.146   4.134
    1   AR   Ar   92   1.933   1.779   3.122
    1   AR   Ar   93   1.373   1.755   5.598
    1   AR   Ar   94   2.475   1.176   8.753
    1   AR   Ar   95   3.160   0.090   6.360
    1   AR   Ar   96   1.699   1.977   6.707
    1   AR   Ar   97   2.764   3.436  -0.871
    1   AR   Ar   98   2.672   4.880   1.541
    1   AR   Ar   99   3.685   2.862  -1.449
    1   AR   Ar  100   2.418   4.406  -0.548
    1   AR   Ar  101   1.215   3.010   1.803
    1   AR   Ar  102   2.178   3.728   3.640
    1   AR   Ar  103   2.180   3.697   1.583
    1   AR   Ar  104   3.435   3.861  -0.001
    1   AR   Ar  105   1.572   2.899   3.703
    1   AR   Ar  106   2.420   3.206   4.658
    1   AR   Ar  107   2.948   4.124   5.480
    1   AR   Ar  108   3.177   3.091   3.891
    1   AR   Ar  109   1.082   3.896   4.387
    1   AR   Ar  110   1.818   4.440   4.926
    1   AR   Ar  111   3.589   4.971   6.952
    1   AR   Ar  112   1.469   3.836   5.805
    1   AR   Ar  113   2.444   4.270   0.738
    1   AR   Ar  114   2.182   5.624   0.865
    1   AR   Ar  115   3.322   5.126   0.001
    1   AR   Ar  116   3.716   7.005  -0.080
    1   AR   Ar  117   1.270   4.798   2.927
    1   AR   Ar  118   1.378   6.314   2.634
    1   AR   Ar  119   2.199   4.331   2.405
    1   AR   Ar  120   1.598   5.253   1.964
    1   AR   Ar  121   0.142   4.509   3.840
    1   AR   Ar  122   2.854   6.257   4.112
    1   AR   Ar  123   2.378   5.147   4.049
    1   AR   Ar  124   2.138   5.492   2.926
    1   AR   Ar  125   0.667   5.450   4.781
    1   AR   Ar  126   1.155   6.747   6.183
    1   AR   Ar  127   2.385   5.208   7.167
    1   AR   Ar  128   2.040   6.350   5.965
    1   AR   Ar  129   2.642   6.743   1.318
    1   AR   Ar  130   3.972   6.884  -1.057
    1   AR   Ar  131   4.755   5.995   0.334
    1   AR   Ar  132   5.726   2.471  -0.851
    1   AR   Ar  133   3.909   0.100   2.245
    1   AR   Ar  134   4.040   1.366   2.664
    1   AR   Ar  135   4.666   0.390   3.009
    1   AR   Ar  136   4.534   0.867   1.816
    1   AR   Ar  137   3.035   7.022   3.397
    1   AR   Ar  138   4.560   1.210   5.021
    1   AR   Ar  139   4.806   0.428   4.039
    1   AR   Ar  140   4.322   1.291   3.705
    1   AR   Ar  141   3.672   0.014   4.411
    1   AR   Ar  142   4.000   0.441   5.525
    1   AR   Ar  143   5.310   7.058   6.254
    1   AR   Ar  144   5.249   0.369   7.291
    1   AR   Ar  145   2.690   2.796   0.532
    1   AR   Ar  146   3.884   2.588   1.149
    1   AR   Ar  147   5.338   1.935   0.363
    1   AR   Ar  148   5.879   3.547  -1.786
    1   AR   Ar  149   4.546   1.587   1.106
    1   AR   Ar  150   2.789   1.805   2.510
    1   AR   Ar  151   3.101   2.007   3.779
    1   AR   Ar  152   2.832   2.875   1.973
    1   AR   Ar  153   3.171   0.993   3.839
    1   AR   Ar  154   3.967   2.368   4.475
    1   AR   Ar  155   5.485   0.984   5.674
    1   AR   Ar  156   4.234   3.271   3.743
    1   AR   Ar  157   3.793   1.772   5.651
    1   AR   Ar  158   3.085   2.244   6.398
    1   AR   Ar  159   4.641   0.979   6.338
    1   AR   Ar  160   4.435   2.895   5.861
    1   AR   Ar  161   4.558   2.867  -0.383
    1   AR   Ar  162   4.586   4.795   0.964
    1   AR   Ar  163   5.327   3.048   0.342
    1   AR   Ar  164   5.535   4.938   1.102
    1   AR   Ar  165   3.109   3.592   2.751
    1   AR   Ar  166   2.784   4.709   3.183
    1   AR   Ar  167   4.449   2.752   2.660
    1   AR   Ar  168   4.191   3.791   0.806
    1   AR   Ar  169   2.495   2.716   3.303
    1   AR   Ar  170   2.989   4.198   4.240
    1   AR   Ar  171   3.760   3.567   4.662
    1   AR   Ar  172   4.397   4.267   4.282
    1   AR   Ar  173   3.154   2.799   5.525
    1   AR   Ar  174   4.080   5.030   5.921
    1   AR   Ar  175   3.990   3.968   5.725
    1   AR   Ar  176   3.585   4.660   4.952
    1   AR   Ar  177   5.532   5.385   0.025
    1   AR   Ar  178   3.963   6.737   1.351
    1   AR   Ar  179   3.511   5.462   1.258
    1   AR   Ar  180   4.343   5.237  -0.248
    1   AR   Ar  181   2.915   5.651   2.072
    1   AR   Ar  182   2.468   6.562   2.486
    1   AR   Ar  183   3.519   4.616   2.379
    1   AR   Ar  184   4.101   5.870   2.215
    1   AR   Ar  185   1.534   5.763   3.903
    1   AR   Ar  186   3.513   5.321   4.006
    1   AR   Ar  187   4.688   5.296   3.136
    1   AR   Ar  188   3.452   6.145   2.959
    1   AR   Ar  189   2.212   5.206   5.852
    1   AR   Ar  190   4.561   5.738   6.512
    1   AR   Ar  191   4.891   6.096   5.112
    1   AR   Ar  192   3.802   5.688   4.911
    1   AR   Ar  193   5.741   6.992  -0.044
    1   AR   Ar  194   4.710   0.097  -0.430
    1   AR   Ar  195   5.773   0.891   0.618
    1   AR   Ar  196   6.158   1.290  -0.736
    1   AR   Ar  197   4.987   0.201   0.971
    1   AR   Ar  198   5.602   1.366   1.594
    1   AR   Ar  199   5.433   0.406   2.113
    1   AR   Ar  200   6.677   1.689   1.187
    1   AR   Ar  201   5.171   6.577   2.760
    1   AR   Ar  202   5.326   1.324   3.937
    1   AR   Ar  203   0.065   0.120   4.460
    1   AR   Ar  204   5.954   0.140   3.004
    1   AR   Ar  205   5.907   6.992   4.142
    1   AR   Ar  206   4.979   0.286   5.127
    1   AR   Ar  207   0.052   0.189   5.597
    1   AR   Ar  208   6.286   0.794   3.806
    1   AR   Ar  209   6.707   2.804  -1.727
    1   AR   Ar  210   4.678   2.406   1.714
    1   AR   Ar  211   6.266   2.450   0.164
    1   AR   Ar  212   6.379   3.921  -0.766
    1   AR   Ar  213   3.671   2.199   2.145
    1   AR   Ar  214   4.198   3.469   1.859
    1   AR   Ar  215   5.625   2.248   2.254
    1   AR   Ar  216   6.316   3.076   1.788
    1   AR   Ar  217   5.028   2.258   4.014
    1   AR   Ar  218   5.519   1.880   5.119
    1   AR   Ar  219   5.441   1.382   2.848
    1   AR   Ar  220   6.233   3.308   3.196
    1   AR   Ar  221   6.083   7.120   5.429
    1   AR   Ar  222   5.111   2.062   6.339
    1   AR   Ar  223   6.460   1.438   6.959
    1   AR   Ar  224   5.584   3.032   5.489
    1   AR   Ar  225   5.217   4.236   0.225
    1   AR   Ar  226   4.660   4.323   2.210
    1   AR   Ar  227   6.699   4.201   1.547
    1   AR   Ar  228   6.480   5.130   0.593
    1   AR   Ar  229   6.129   3.673   0.863
    1   AR   Ar  230   4.138   4.195   3.258
    1   AR   Ar  231   7.034   2.588   3.602
    1   AR   Ar  232   5.051   3.813   1.369
    1   AR   Ar  233   5.894   2.774   4.582
    1   AR   Ar  234   6.230   4.482   4.958
    1   AR   Ar  235   6.719   3.553   4.431
    1   AR   Ar  236   5.124   3.860   3.595
    1   AR   Ar  237   4.867   3.136   4.741
    1   AR   Ar  238   4.977   4.228   5.215
    1   AR   Ar  239   6.401   3.763   7.907
    1   AR   Ar  240   6.034   3.712   6.028
    1   AR   Ar  241   6.669   0.726  -0.003
    1   AR   Ar  242   5.000   6.191   1.442
    1   AR   Ar  243   5.923   4.580   2.147
    1   AR   Ar  244   6.772   6.363  -0.266
    1   AR   Ar  245   5.158   5.300   2.076
    1   AR   Ar  246   6.092   6.305   2.305
    1   AR   Ar  247   5.426   3.643   2.488
    1   AR   Ar  248   5.941   6.893   1.254
    1   AR   Ar  249   5.434   4.638   3.182
    1   AR   Ar  250   4.503   6.362   4.127
    1   AR   Ar  251   5.107   5.359   4.137
    1   AR   Ar  252   5.639   5.928   3.403
    1   AR   Ar  253   5.671   5.219   5.828
    1   AR   Ar  254   5.402   5.610   6.973
    1   AR   Ar  255   5.447   4.561   6.556
    1   AR   Ar  256   6.193   6.056   4.632
    7.12000  7.12000 12.00000
Argon-slab step 1095
  256
    1   AR   Ar    1   0.859   0.399  -0.909
    1   AR   Ar    2   7.014   0.634   1.032
    1   AR   Ar    3   0.379   7.051   0.396
    1   AR   Ar    4   0.959   0.688   0.174
    1   AR   Ar    5   6.763   6.162   0.949
    1   AR   Ar    6   0.317   7.110   3.065
    1   AR   Ar    7   0.029   6.216   2.122
    1   AR   Ar    8   0.613   7.043   1.704
    1   AR   Ar    9   0.258   0.787   3.827
    1   AR   Ar   10   7.087   1.790   4.414
    1   AR   Ar   11   2.042   6.896   4.350
    1   AR   Ar   12   1.052   1.075   2.998
    1   AR   Ar   13   6.502   1.055   5.207
    1   AR   Ar   14   0.278   1.483   5.818
    1   AR   Ar   15   7.067   5.873   8.843
    1   AR   Ar   16   0.751   0.929   4.918
    1   AR   Ar   17   7.079   1.823   0.081
    1   AR   Ar   18   6.969   3.342   0.119
    1   AR   Ar   19   0.699   1.558   0.866
    1   AR   Ar   20   0.555   3.163  -2.102
    1   AR   Ar   21   6.705   0.175   2.273
    1   AR   Ar   22   6.881   2.118   2.259
    1   AR   Ar   23   0.156   1.082   1.987
    1   AR   Ar   24   0.011   2.745   1.198
    1   AR   Ar   25   7.112   1.558   3.166
    1   AR   Ar   26   5.993   2.160   3.378
    1   AR   Ar   27   1.395   0.946   4.015
    1   AR   Ar   28   0.684   2.737   4.540
    1   AR   Ar   29   6.153   2.310   5.845
    1   AR   Ar   30   6.997   2.855   6.384
    1   AR   Ar   31   0.778   1.229   7.123
    1   AR   Ar   32   1.772   2.619   5.171
    1   AR   Ar   33   1.119   3.885  -1.533
    1   AR   Ar   34   0.850   5.295   1.126
    1   AR   Ar   35   0.585   3.899   1.373
    1   AR   Ar   36   1.934   6.657  -1.702
    1   AR   Ar   37   0.140   3.288   2.273
    1   AR   Ar   38   0.385   5.034   2.036
    1   AR   Ar   39   1.152   3.547   2.913
    1   AR   Ar   40   1.352   4.345   1.891
    1   AR   Ar   41   0.784   2.429   2.804
    1   AR   Ar   42   6.780   5.304   5.553
    1   AR   Ar   43   6.938   2.583   5.227
    1   AR   Ar   44   0.319   3.554   3.671
    1   AR   Ar   45   7.035   3.658   5.602
    1   AR   Ar   46   6.519   5.309   6.820
    1   AR   Ar   47   6.978   4.026   6.720
    1   AR   Ar   48   0.213   5.973   6.877
    1   AR   Ar   49   0.462   4.883  -1.097
    1   AR   Ar   50   6.289   5.506   1.657
    1   AR   Ar   51   1.407   4.876   0.186
    1   AR   Ar   52   0.248   5.563   0.055
    1   AR   Ar   53   6.521   5.271   2.766
    1   AR   Ar   54   6.644   6.439   3.237
    1   AR   Ar   55   0.517   5.654   3.259
    1   AR   Ar   56   1.091   6.165   1.605
    1   AR   Ar   57   6.932   4.219   2.685
    1   AR   Ar   58   0.034   6.069   4.138
    1   AR   Ar   59   1.814   5.944   5.042
    1   AR   Ar   60   0.845   6.492   3.641
    1   AR   Ar   61   6.293   6.122   6.135
    1   AR   Ar   62   0.204   6.324   5.250
    1   AR   Ar   63   1.132   5.121   5.973
    1   AR   Ar   64   1.005   6.942   4.872
    1   AR   Ar   65   2.837   0.493   0.182
    1   AR   Ar   66   1.843   0.647   1.243
    1   AR   Ar   67   3.336   6.230   0.607
    1   AR   Ar   68   3.810   0.897  -0.372
    1   AR   Ar   69   1.701   6.891   0.585
    1   AR   Ar   70   1.523   0.167   2.489
    1   AR   Ar   71   3.319   0.859   1.807
    1   AR   Ar   72   4.017   0.808   0.674
    1   AR   Ar   73   1.823   6.843   3.362
    1   AR   Ar   74   2.066   1.150   4.927
    1   AR   Ar   75   3.054   0.933   5.101
    1   AR   Ar   76   2.683   0.707   2.920
    1   AR   Ar   77   2.294   0.262   5.698
    1   AR   Ar   78   1.132   0.783   5.901
    1   AR   Ar   79   3.920   6.664   6.954
    1   AR   Ar   80   2.932   6.751   5.194
    1   AR   Ar   81   2.081   1.349   0.268
    1   AR   Ar   82   1.442   3.482   0.849
    1   AR   Ar   83   2.827   1.901   1.371
    1   AR   Ar   84   2.050   3.209  -1.765
    1   AR   Ar   85   1.562   2.291   0.973
    1   AR   Ar   86   1.860   2.681   2.506
    1   AR   Ar   87   1.841   1.759   2.002
    1   AR   Ar   88   3.203   3.698   1.267
    1   AR   Ar   89   0.640   2.057   1.734
    1   AR   Ar   90   2.874   1.877   4.835
    1   AR   Ar   91   2.223   2.160   4.106
    1   AR   Ar   92   1.953   1.788   3.142
    1   AR   Ar   93   1.371   1.782   5.584
    1   AR   Ar   94   2.492   1.163   8.735
    1   AR   Ar   95   3.142   0.077   6.370
    1   AR   Ar   96   1.717   1.944   6.711
    1   AR   Ar   97   2.776   3.400  -0.867
    1   AR   Ar   98   2.642   4.846   1.547
    1   AR   Ar   99   3.717   2.850  -1.453
    1   AR   Ar  100   2.395   4.385  -0.567
    1   AR   Ar  101   1.211   2.993   1.783
    1   AR   Ar  102   2.199   3.707   3.616
    1   AR   Ar  103   2.197   3.651   1.548
    1   AR   Ar  104   3.433   3.877  -0.030
    1   AR   Ar  105   1.529   2.906   3.676
    1   AR   Ar  106   2.419   3.220   4.681
    1   AR   Ar  107   2.949   4.124   5.489
    1   AR   Ar  108   3.185   3.085   3.916
    1   AR   Ar  109   1.078   3.889   4.391
    1   AR   Ar  110   1.807   4.453   4.919
    1   AR   Ar  111   3.610   4.961   6.952
    1   AR   Ar  112   1.462   3.871   5.810
    1   AR   Ar  113   2.437   4.265   0.686
    1   AR   Ar  114   2.215   5.597   0.871
    1   AR   Ar  115   3.300   5.118  -0.012
    1   AR   Ar  116   3.726   7.004  -0.102
    1   AR   Ar  117   1.295   4.796   2.937
    1   AR   Ar  118   1.375   6.290   2.624
    1   AR   Ar  119   2.157   4.335   2.417
    1   AR   Ar  120   1.584   5.242   1.954
    1   AR   Ar  121   0.117   4.518   3.861
    1   AR   Ar  122   2.883   6.282   4.118
    1   AR   Ar  123   2.377   5.157   4.075
    1   AR   Ar  124   2.119   5.485   2.934
    1   AR   Ar  125   0.650   5.412   4.774
    1   AR   Ar  126   1.155   6.746   6.163
    1   AR   Ar  127   2.360   5.214   7.135
    1   AR   Ar  128   2.040   6.332   5.966
    1   AR   Ar  129   2.620   6.758   1.336
    1   AR   Ar  130   4.013   6.891  -1.086
    1   AR   Ar  131   4.766   5.992   0.324
    1   AR   Ar  132   5.721   2.443  -0.838
    1   AR   Ar  133   3.872   0.113   2.255
    1   AR   Ar  134   4.064   1.366   2.700
    1   AR   Ar  135   4.665   0.392   3.005
    1   AR   Ar  136   4.533   0.859   1.833
    1   AR   Ar  137   3.040   7.013   3.403
    1   AR   Ar  138   4.554   1.232   5.014
    1   AR   Ar  139   4.842   0.420   4.033
    1   AR   Ar  140   4.299   1.272   3.695
    1   AR   Ar  141   3.667   0.005   4.424
    1   AR   Ar  142   4.019   0.437   5.507
    1   AR   Ar  143   5.309   7.052   6.233
    1   AR   Ar  144   5.248   0.359   7.287
    1   AR   Ar  145   2.709   2.849   0.541
    1   AR   Ar  146   3.876   2.599   1.156
    1   AR   Ar  147   5.322   1.939   0.356
    1   AR   Ar  148   5.879   3.569  -1.791
    1   AR   Ar  149   4.543   1.590   1.099
    1   AR   Ar  150   2.794   1.794   2.509
    1   AR   Ar  151   3.125   1.976   3.786
    1   AR   Ar  152   2.804   2.929   1.964
    1   AR   Ar  153   3.185   0.978   3.847
    1   AR   Ar  154   3.974   2.369   4.451
    1   AR   Ar  155   5.500   1.022   5.672
    1   AR   Ar  156   4.229   3.264   3.766
    1   AR   Ar  157   3.795   1.775   5.622
    1   AR   Ar  158   3.067   2.222   6.390
    1   AR   Ar  159   4.632   0.973   6.325
    1   AR   Ar  160   4.429   2.887   5.877
    1   AR   Ar  161   4.570   2.871  -0.373
    1   AR   Ar  162   4.571   4.829   0.977
    1   AR   Ar  163   5.361   3.032   0.316
    1   AR   Ar  164   5.527   4.920   1.130
    1   AR   Ar  165   3.113   3.598   2.740
    1   AR   Ar  166   2.812   4.707   3.132
    1   AR   Ar  167   4.422   2.763   2.637
    1   AR   Ar  168   4.130   3.773   0.796
    1   AR   Ar  169   2.468   2.724   3.313
    1   AR   Ar  170   2.993   4.218   4.212
    1   AR   Ar  171   3.774   3.558   4.672
    1   AR   Ar  172   4.413   4.288   4.278
    1   AR   Ar  173   3.143   2.828   5.502
    1   AR   Ar  174   4.097   5.026   5.883
    1   AR   Ar  175   3.991   3.946   5.701
    1   AR   Ar  176   3.585   4.679   4.964
    1   AR   Ar  177   5.519   5.364   0.017
    1   AR   Ar  178   3.961   6.758   1.321
    1   AR   Ar  179   3.527   5.468   1.275
    1   AR   Ar  180   4.348   5.201  -0.274
    1   AR   Ar  181   2.946   5.652   2.065
    1   AR   Ar  182   2.466   6.562   2.450
    1   AR   Ar  183   3.500   4.581   2.346
    1   AR   Ar  184   4.089   5.839   2.169
    1   AR   Ar  185   1.528   5.761   3.886
    1   AR   Ar  186   3.502   5.332   4.006
    1   AR   Ar  187   4.677   5.289   3.122
    1   AR   Ar  188   3.426   6.183   2.927
    1   AR   Ar  189   2.213   5.214   5.865
    1   AR   Ar  190   4.557   5.743   6.534
    1   AR   Ar  191   4.905   6.101   5.126
    1   AR   Ar  192   3.801   5.682   4.878
    1   AR   Ar  193   5.786   6.993  -0.042
    1   AR   Ar  194   4.736   0.092  -0.452
    1   AR   Ar  195   5.784   0.915   0.599
    1   AR   Ar  196   6.162   1.308  -0.708
    1   AR   Ar  197   5.003   0.230   0.947
    1   AR   Ar  198   5.624   1.337   1.597
    1   AR   Ar  199   5.439   0.414   2.124
    1   AR   Ar  200   6.646   1.697   1.163
    1   AR   Ar  201   5.198   6.558   2.759
    1   AR   Ar  202   5.345   1.339   3.942
    1   AR   Ar  203   0.082   0.122   4.488
    1   AR   Ar  204   5.961   0.140   3.019
    1   AR   Ar  205   5.906   7.007   4.122
    1   AR   Ar  206   4.981   0.316   5.128
    1   AR   Ar  207   0.091   0.193   5.590
    1   AR   Ar  208   6.300   0.804   3.771
    1   AR   Ar  209   6.741   2.816  -1.741
    1   AR   Ar  210   4.683   2.421   1.711
    1   AR   Ar  211   6.291   2.469   0.128
    1   AR   Ar  212   6.367   3.899  -0.753
    1   AR   Ar  213   3.675   2.239   2.155
    1   AR   Ar  214   4.173   3.426   1.864
    1   AR   Ar  215   5.615   2.241   2.220
    1   AR   Ar  216   6.312   3.092   1.787
    1   AR   Ar  217   5.040   2.286   4.010
    1   AR   Ar  218   5.471   1.873   5.129
    1   AR   Ar  219   5.467   1.357   2.844
    1   AR   Ar  220   6.246   3.315   3.215
    1   AR   Ar  221   6.084   7.103   5.404
    1   AR   Ar  222   5.153   2.028   6.341
    1   AR   Ar  223   6.448   1.401   6.975
    1   AR   Ar  224   5.569   3.039   5.494
    1   AR   Ar  225   5.215   4.233   0.226
    1   AR   Ar  226   4.670   4.336   2.201
    1   AR   Ar  227   6.700   4.204   1.513
    1   AR   Ar  228   6.469   5.151   0.590
    1   AR   Ar  229   6.122   3.676   0.840
    1   AR   Ar  230   4.148   4.222   3.230
    1   AR   Ar  231   7.020   2.592   3.575
    1   AR   Ar  232   5.047   3.847   1.368
    1   AR   Ar  233   5.908   2.761   4.556
    1   AR   Ar  234   6.238   4.495   4.963
    1   AR   Ar  235   6.726   3.540   4.425
    1   AR   Ar  236   5.089   3.872   3.619
    1   AR   Ar  237   4.876   3.180   4.741
    1   AR   Ar  238   4.967   4.236   5.175
    1   AR   Ar  239   6.407   3.754   7.890
    1   AR   Ar  240   6.081   3.736   6.016
    1   AR   Ar  241   6.653   0.701   0.003
    1   AR   Ar  242   4.993   6.177   1.436
    1   AR   Ar  243   5.918   4.592   2.133
    1   AR   Ar  244   6.731   6.356  -0.301
    1   AR   Ar  245   5.152   5.305   2.064
    1   AR   Ar  246   6.098   6.315   2.284
    1   AR   Ar  247   5.395   3.662   2.468
    1   AR   Ar  248   5.961   6.900   1.237
    1   AR   Ar  249   5.439   4.617   3.170
    1   AR   Ar  250   4.526   6.375   4.107
    1   AR   Ar  251   5.137   5.359   4.130
    1   AR   Ar  252   5.666   5.937   3.386
    1   AR   Ar  253   5.669   5.203   5.802
    1   AR   Ar  254   5.393   5.611   6.975
    1   AR   Ar  255   5.454   4.554   6.547
    1   AR   Ar  256   6.180   6.058   4.640
    7.12000  7.12000 12.00000
Argon-slab step 1100
  256
    1   AR   Ar    1   0.867   0.412  -0.907
    1   AR   Ar    2   7.030   0.644   1.044
    1   AR   Ar    3   0.376   7.014   0.411
    1   AR   Ar    4   0.999   0.668   0.162
    1   AR   Ar    5   6.776   6.147   0.957
    1   AR   Ar    6   0.311   7.095   3.040
    1   AR   Ar    7   0.023   6.203   2.114
    1   AR   Ar    8   0.595   7.023   1.702
    1   AR   Ar    9   0.298   0.793   3.808
    1   AR   Ar   10   7.077   1.781   4.437
    1   AR   Ar   11   2.039   6.875   4.327
    1   AR   Ar   12   1.041   1.087   2.981
    1   AR   Ar   13   6.460   1.042   5.200
    1   AR   Ar   14   0.261   1.515   5.817
    1   AR   Ar   15   7.058   5.870   8.819
    1   AR   Ar   16   0.761   0.930   4.928
    1   AR   Ar   17   7.085   1.810   0.070
    1   AR   Ar   18   6.984   3.374   0.112
    1   AR   Ar   19   0.699   1.533   0.880
    1   AR   Ar   20   0.547   3.173  -2.099
    1   AR   Ar   21   6.723   0.193   2.291
    1   AR   Ar   22   6.909   2.110   2.270
    1   AR   Ar   23   0.152   1.045   2.005
    1   AR   Ar   24   0.006   2.764   1.195
    1   AR   Ar   25   7.117   1.559   3.140
    1   AR   Ar   26   5.999   2.128   3.358
    1   AR   Ar   27   1.392   0.894   3.988
    1   AR   Ar   28   0.699   2.722   4.545
    1   AR   Ar   29   6.152   2.334   5.843
    1   AR   Ar   30   6.977   2.862   6.377
    1   AR   Ar   31   0.767   1.237   7.125
    1   AR   Ar   32   1.770   2.580   5.185
    1   AR   Ar   33   1.093   3.907  -1.523
    1   AR   Ar   34   0.861   5.289   1.120
    1   AR   Ar   35   0.582   3.910   1.389
    1   AR   Ar   36   1.944   6.662  -1.708
    1   AR   Ar   37   0.170   3.279   2.259
    1   AR   Ar   38   0.340   5.035   2.060
    1   AR   Ar   39   1.144   3.555   2.904
    1   AR   Ar   40   1.333   4.314   1.907
    1   AR   Ar   41   0.789   2.416   2.817
    1   AR   Ar   42   6.759   5.290   5.535
    1   AR   Ar   43   6.937   2.583   5.233
    1   AR   Ar   44   0.340   3.549   3.687
    1   AR   Ar   45   7.008   3.680   5.584
    1   AR   Ar   46   6.498   5.295   6.815
    1   AR   Ar   47   6.974   4.019   6.703
    1   AR   Ar   48   0.214   5.997   6.896
    1   AR   Ar   49   0.451   4.862  -1.131
    1   AR   Ar   50   6.312   5.510   1.660
    1   AR   Ar   51   1.386   4.879   0.185
    1   AR   Ar   52   0.234   5.549   0.076
    1   AR   Ar   53   6.511   5.294   2.783
    1   AR   Ar   54   6.601   6.430   3.232
    1   AR   Ar   55   0.503   5.649   3.278
    1   AR   Ar   56   1.091   6.158   1.599
    1   AR   Ar   57   6.952   4.195   2.707
    1   AR   Ar   58   0.036   6.088   4.131
    1   AR   Ar   59   1.836   5.976   5.061
    1   AR   Ar   60   0.845   6.461   3.654
    1   AR   Ar   61   6.275   6.118   6.135
    1   AR   Ar   62   0.209   6.340   5.247
    1   AR   Ar   63   1.149   5.100   5.964
    1   AR   Ar   64   0.998   6.910   4.871
    1   AR   Ar   65   2.843   0.492   0.172
    1   AR   Ar   66   1.809   0.634   1.232
    1   AR   Ar   67   3.305   6.251   0.613
    1   AR   Ar   68   3.802   0.912  -0.390
    1   AR   Ar   69   1.665   6.894   0.593
    1   AR   Ar   70   1.507   0.152   2.497
    1   AR   Ar   71   3.300   0.883   1.813
    1   AR   Ar   72   4.018   0.798   0.662
    1   AR   Ar   73   1.826   6.828   3.375
    1   AR   Ar   74   2.048   1.107   4.934
    1   AR   Ar   75   3.057   0.906   5.117
    1   AR   Ar   76   2.652   0.693   2.919
    1   AR   Ar   77   2.264   0.284   5.733
    1   AR   Ar   78   1.152   0.783   5.869
    1   AR   Ar   79   3.932   6.686   6.938
    1   AR   Ar   80   2.955   6.743   5.196
    1   AR   Ar   81   2.073   1.328   0.289
    1   AR   Ar   82   1.432   3.514   0.851
    1   AR   Ar   83   2.801   1.875   1.333
    1   AR   Ar   84   2.049   3.213  -1.821
    1   AR   Ar   85   1.544   2.289   0.955
    1   AR   Ar   86   1.814   2.717   2.514
    1   AR   Ar   87   1.821   1.710   2.014
    1   AR   Ar   88   3.227   3.665   1.268
    1   AR   Ar   89   0.660   2.075   1.695
    1   AR   Ar   90   2.855   1.868   4.844
    1   AR   Ar   91   2.232   2.175   4.089
    1   AR   Ar   92   1.970   1.793   3.163
    1   AR   Ar   93   1.365   1.803   5.572
    1   AR   Ar   94   2.508   1.150   8.718
    1   AR   Ar   95   3.125   0.064   6.379
    1   AR   Ar   96   1.735   1.910   6.714
    1   AR   Ar   97   2.788   3.363  -0.862
    1   AR   Ar   98   2.610   4.805   1.553
    1   AR   Ar   99   3.749   2.838  -1.457
    1   AR   Ar  100   2.373   4.364  -0.585
    1   AR   Ar  101   1.203   2.978   1.761
    1   AR   Ar  102   2.222   3.691   3.593
    1   AR   Ar  103   2.210   3.607   1.516
    1   AR   Ar  104   3.428   3.893  -0.060
    1   AR   Ar  105   1.508   2.920   3.669
    1   AR   Ar  106   2.447   3.214   4.670
    1   AR   Ar  107   2.941   4.119   5.501
    1   AR   Ar  108   3.197   3.081   3.945
    1   AR   Ar  109   1.074   3.879   4.395
    1   AR   Ar  110   1.800   4.468   4.912
    1   AR   Ar  111   3.631   4.951   6.951
    1   AR   Ar  112   1.455   3.906   5.814
    1   AR   Ar  113   2.429   4.260   0.629
    1   AR   Ar  114   2.248   5.572   0.878
    1   AR   Ar  115   3.277   5.108  -0.024
    1   AR   Ar  116   3.734   7.000  -0.115
    1   AR   Ar  117   1.320   4.797   2.952
    1   AR   Ar  118   1.367   6.256   2.614
    1   AR   Ar  119   2.129   4.337   2.438
    1   AR   Ar  120   1.578   5.261   1.947
    1   AR   Ar  121   0.091   4.534   3.883
    1   AR   Ar  122   2.913   6.302   4.127
    1   AR   Ar  123   2.378   5.167   4.101
    1   AR   Ar  124   2.100   5.483   2.941
    1   AR   Ar  125   0.635   5.373   4.767
    1   AR   Ar  126   1.145   6.751   6.144
    1   AR   Ar  127   2.337   5.225   7.097
    1   AR   Ar  128   2.042   6.321   5.954
    1   AR   Ar  129   2.606   6.770   1.395
    1   AR   Ar  130   4.049   6.895  -1.124
    1   AR   Ar  131   4.774   5.994   0.319
    1   AR   Ar  132   5.715   2.415  -0.823
    1   AR   Ar  133   3.836   0.123   2.272
    1   AR   Ar  134   4.085   1.365   2.730
    1   AR   Ar  135   4.660   0.388   2.998
    1   AR   Ar  136   4.529   0.849   1.851
    1   AR   Ar  137   3.045   7.007   3.403
    1   AR   Ar  138   4.546   1.261   5.004
    1   AR   Ar  139   4.879   0.407   4.031
    1   AR   Ar  140   4.274   1.256   3.690
    1   AR   Ar  141   3.663   7.117   4.437
    1   AR   Ar  142   4.035   0.450   5.484
    1   AR   Ar  143   5.308   7.048   6.211
    1   AR   Ar  144   5.234   0.383   7.296
    1   AR   Ar  145   2.727   2.902   0.553
    1   AR   Ar  146   3.859   2.612   1.157
    1   AR   Ar  147   5.307   1.941   0.349
    1   AR   Ar  148   5.881   3.590  -1.794
    1   AR   Ar  149   4.539   1.581   1.080
    1   AR   Ar  150   2.806   1.782   2.509
    1   AR   Ar  151   3.162   1.952   3.787
    1   AR   Ar  152   2.780   2.976   1.956
    1   AR   Ar  153   3.200   0.955   3.859
    1   AR   Ar  154   3.989   2.369   4.415
    1   AR   Ar  155   5.518   1.057   5.676
    1   AR   Ar  156   4.226   3.254   3.788
    1   AR   Ar  157   3.797   1.778   5.592
    1   AR   Ar  158   3.049   2.199   6.383
    1   AR   Ar  159   4.623   0.967   6.311
    1   AR   Ar  160   4.424   2.878   5.890
    1   AR   Ar  161   4.581   2.875  -0.363
    1   AR   Ar  162   4.540   4.861   0.989
    1   AR   Ar  163   5.396   3.019   0.293
    1   AR   Ar  164   5.534   4.903   1.159
    1   AR   Ar  165   3.117   3.606   2.733
    1   AR   Ar  166   2.844   4.704   3.087
    1   AR   Ar  167   4.399   2.777   2.625
    1   AR   Ar  168   4.074   3.754   0.784
    1   AR   Ar  169   2.450   2.734   3.313
    1   AR   Ar  170   2.996   4.237   4.182
    1   AR   Ar  171   3.786   3.548   4.689
    1   AR   Ar  172   4.426   4.315   4.274
    1   AR   Ar  173   3.133   2.858   5.476
    1   AR   Ar  174   4.113   5.021   5.862
    1   AR   Ar  175   3.991   3.933   5.695
    1   AR   Ar  176   3.593   4.700   4.971
    1   AR   Ar  177   5.509   5.338   0.010
    1   AR   Ar  178   3.961   6.777   1.289
    1   AR   Ar  179   3.541   5.462   1.263
    1   AR   Ar  180   4.354   5.163  -0.299
    1   AR   Ar  181   2.973   5.660   2.070
    1   AR   Ar  182   2.464   6.563   2.416
    1   AR   Ar  183   3.484   4.546   2.309
    1   AR   Ar  184   4.080   5.807   2.121
    1   AR   Ar  185   1.524   5.758   3.869
    1   AR   Ar  186   3.487   5.336   3.994
    1   AR   Ar  187   4.660   5.286   3.107
    1   AR   Ar  188   3.399   6.217   2.895
    1   AR   Ar  189   2.225   5.201   5.875
    1   AR   Ar  190   4.534   5.753   6.546
    1   AR   Ar  191   4.920   6.107   5.140
    1   AR   Ar  192   3.806   5.686   4.855
    1   AR   Ar  193   5.832   6.995  -0.038
    1   AR   Ar  194   4.769   0.089  -0.468
    1   AR   Ar  195   5.797   0.939   0.581
    1   AR   Ar  196   6.164   1.329  -0.679
    1   AR   Ar  197   5.016   0.259   0.923
    1   AR   Ar  198   5.644   1.309   1.598
    1   AR   Ar  199   5.446   0.418   2.136
    1   AR   Ar  200   6.616   1.705   1.139
    1   AR   Ar  201   5.216   6.544   2.753
    1   AR   Ar  202   5.371   1.347   3.947
    1   AR   Ar  203   0.090   0.109   4.527
    1   AR   Ar  204   5.966   0.140   3.036
    1   AR   Ar  205   5.905   7.020   4.103
    1   AR   Ar  206   4.987   0.334   5.125
    1   AR   Ar  207   0.132   0.202   5.583
    1   AR   Ar  208   6.315   0.820   3.737
    1   AR   Ar  209   6.771   2.829  -1.753
    1   AR   Ar  210   4.698   2.435   1.709
    1   AR   Ar  211   6.311   2.492   0.094
    1   AR   Ar  212   6.355   3.877  -0.741
    1   AR   Ar  213   3.687   2.264   2.158
    1   AR   Ar  214   4.145   3.383   1.868
    1   AR   Ar  215   5.608   2.236   2.188
    1   AR   Ar  216   6.309   3.101   1.782
    1   AR   Ar  217   5.048   2.325   4.007
    1   AR   Ar  218   5.421   1.874   5.133
    1   AR   Ar  219   5.491   1.328   2.839
    1   AR   Ar  220   6.259   3.322   3.234
    1   AR   Ar  221   6.085   7.086   5.379
    1   AR   Ar  222   5.196   1.995   6.339
    1   AR   Ar  223   6.436   1.363   6.989
    1   AR   Ar  224   5.545   3.047   5.500
    1   AR   Ar  225   5.214   4.229   0.229
    1   AR   Ar  226   4.676   4.357   2.195
    1   AR   Ar  227   6.702   4.210   1.483
    1   AR   Ar  228   6.458   5.171   0.587
    1   AR   Ar  229   6.112   3.677   0.815
    1   AR   Ar  230   4.155   4.251   3.199
    1   AR   Ar  231   7.006   2.594   3.548
    1   AR   Ar  232   5.049   3.881   1.362
    1   AR   Ar  233   5.908   2.759   4.552
    1   AR   Ar  234   6.246   4.507   4.969
    1   AR   Ar  235   6.731   3.526   4.423
    1   AR   Ar  236   5.050   3.860   3.652
    1   AR   Ar  237   4.879   3.226   4.737
    1   AR   Ar  238   4.959   4.243   5.139
    1   AR   Ar  239   6.413   3.746   7.872
    1   AR   Ar  240   6.128   3.766   6.009
    1   AR   Ar  241   6.641   0.673   0.011
    1   AR   Ar  242   4.986   6.165   1.429
    1   AR   Ar  243   5.912   4.600   2.120
    1   AR   Ar  244   6.683   6.345  -0.345
    1   AR   Ar  245   5.145   5.313   2.056
    1   AR   Ar  246   6.106   6.295   2.269
    1   AR   Ar  247   5.367   3.677   2.450
    1   AR   Ar  248   5.981   6.906   1.222
    1   AR   Ar  249   5.460   4.615   3.144
    1   AR   Ar  250   4.548   6.388   4.088
    1   AR   Ar  251   5.150   5.354   4.112
    1   AR   Ar  252   5.697   5.940   3.373
    1   AR   Ar  253   5.668   5.192   5.772
    1   AR   Ar  254   5.372   5.627   6.967
    1   AR   Ar  255   5.460   4.542   6.544
    1   AR   Ar  256   6.167   6.060   4.649
    7.12000  7.12000 12.00000
Argon-slab step 1105
  256
    1   AR   Ar    1   0.875   0.424  -0.904
    1   AR   Ar    2   7.045   0.655   1.056
    1   AR   Ar    3   0.351   7.013   0.439
    1   AR   Ar    4   1.029   0.657   0.155
    1   AR   Ar    5   6.793   6.135   0.962
    1   AR   Ar    6   0.320   7.113   3.052
    1   AR   Ar    7   0.019   6.187   2.107
    1   AR   Ar    8   0.574   7.014   1.702
    1   AR   Ar    9   0.340   0.802   3.786
    1   AR   Ar   10   7.062   1.796   4.455
    1   AR   Ar   11   2.036   6.855   4.319
    1   AR   Ar   12   1.028   1.099   2.962
    1   AR   Ar   13   6.421   1.030   5.190
    1   AR   Ar   14   0.244   1.547   5.815
    1   AR   Ar   15   7.049   5.866   8.794
    1   AR   Ar   16   0.769   0.931   4.933
    1   AR   Ar   17   7.093   1.793   0.059
    1   AR   Ar   18   7.014   3.364   0.105
    1   AR   Ar   19   0.699   1.499   0.883
    1   AR   Ar   20   0.555   3.177  -2.101
    1   AR   Ar   21   6.737   0.206   2.305
    1   AR   Ar   22   6.933   2.106   2.279
    1   AR   Ar   23   0.151   1.013   2.023
    1   AR   Ar   24   0.001   2.783   1.190
    1   AR   Ar   25   0.001   1.560   3.116
    1   AR   Ar   26   6.020   2.102   3.349
    1   AR   Ar   27   1.390   0.841   3.961
    1   AR   Ar   28   0.723   2.690   4.546
    1   AR   Ar   29   6.144   2.345   5.854
    1   AR   Ar   30   6.956   2.870   6.369
    1   AR   Ar   31   0.756   1.244   7.126
    1   AR   Ar   32   1.776   2.555   5.192
    1   AR   Ar   33   1.068   3.931  -1.513
    1   AR   Ar   34   0.870   5.278   1.111
    1   AR   Ar   35   0.573   3.915   1.402
    1   AR   Ar   36   1.954   6.669  -1.713
    1   AR   Ar   37   0.203   3.267   2.246
    1   AR   Ar   38   0.295   5.035   2.086
    1   AR   Ar   39   1.136   3.566   2.891
    1   AR   Ar   40   1.302   4.272   1.917
    1   AR   Ar   41   0.794   2.403   2.829
    1   AR   Ar   42   6.738   5.277   5.517
    1   AR   Ar   43   6.919   2.568   5.261
    1   AR   Ar   44   0.365   3.540   3.697
    1   AR   Ar   45   7.006   3.671   5.595
    1   AR   Ar   46   6.475   5.278   6.808
    1   AR   Ar   47   6.972   4.011   6.725
    1   AR   Ar   48   0.223   6.034   6.903
    1   AR   Ar   49   0.440   4.840  -1.164
    1   AR   Ar   50   6.336   5.507   1.661
    1   AR   Ar   51   1.367   4.882   0.187
    1   AR   Ar   52   0.221   5.534   0.098
    1   AR   Ar   53   6.501   5.319   2.799
    1   AR   Ar   54   6.564   6.420   3.226
    1   AR   Ar   55   0.483   5.626   3.286
    1   AR   Ar   56   1.095   6.149   1.592
    1   AR   Ar   57   6.970   4.173   2.729
    1   AR   Ar   58   0.047   6.091   4.120
    1   AR   Ar   59   1.854   6.003   5.066
    1   AR   Ar   60   0.854   6.453   3.673
    1   AR   Ar   61   6.264   6.127   6.129
    1   AR   Ar   62   0.210   6.350   5.243
    1   AR   Ar   63   1.164   5.079   5.952
    1   AR   Ar   64   1.000   6.878   4.871
    1   AR   Ar   65   2.849   0.492   0.164
    1   AR   Ar   66   1.775   0.622   1.222
    1   AR   Ar   67   3.271   6.273   0.617
    1   AR   Ar   68   3.795   0.928  -0.409
    1   AR   Ar   69   1.627   6.896   0.601
    1   AR   Ar   70   1.489   0.144   2.499
    1   AR   Ar   71   3.288   0.904   1.806
    1   AR   Ar   72   4.017   0.782   0.651
    1   AR   Ar   73   1.840   6.836   3.350
    1   AR   Ar   74   2.024   1.064   4.941
    1   AR   Ar   75   3.067   0.871   5.135
    1   AR   Ar   76   2.628   0.688   2.919
    1   AR   Ar   77   2.232   0.307   5.767
    1   AR   Ar   78   1.175   0.779   5.842
    1   AR   Ar   79   3.946   6.708   6.921
    1   AR   Ar   80   2.977   6.734   5.198
    1   AR   Ar   81   2.065   1.307   0.312
    1   AR   Ar   82   1.421   3.547   0.848
    1   AR   Ar   83   2.774   1.849   1.297
    1   AR   Ar   84   2.047   3.218  -1.876
    1   AR   Ar   85   1.526   2.290   0.921
    1   AR   Ar   86   1.770   2.751   2.523
    1   AR   Ar   87   1.800   1.661   2.026
    1   AR   Ar   88   3.244   3.632   1.275
    1   AR   Ar   89   0.683   2.097   1.666
    1   AR   Ar   90   2.845   1.855   4.865
    1   AR   Ar   91   2.228   2.189   4.086
    1   AR   Ar   92   1.981   1.795   3.180
    1   AR   Ar   93   1.351   1.808   5.568
    1   AR   Ar   94   2.525   1.137   8.701
    1   AR   Ar   95   3.108   0.051   6.385
    1   AR   Ar   96   1.752   1.875   6.715
    1   AR   Ar   97   2.802   3.326  -0.857
    1   AR   Ar   98   2.577   4.760   1.560
    1   AR   Ar   99   3.781   2.827  -1.459
    1   AR   Ar  100   2.351   4.343  -0.600
    1   AR   Ar  101   1.191   2.970   1.736
    1   AR   Ar  102   2.247   3.683   3.569
    1   AR   Ar  103   2.210   3.578   1.480
    1   AR   Ar  104   3.420   3.910  -0.090
    1   AR   Ar  105   1.486   2.934   3.671
    1   AR   Ar  106   2.473   3.210   4.659
    1   AR   Ar  107   2.928   4.109   5.514
    1   AR   Ar  108   3.208   3.078   3.973
    1   AR   Ar  109   1.070   3.868   4.397
    1   AR   Ar  110   1.796   4.486   4.907
    1   AR   Ar  111   3.653   4.942   6.948
    1   AR   Ar  112   1.447   3.941   5.818
    1   AR   Ar  113   2.413   4.261   0.601
    1   AR   Ar  114   2.280   5.547   0.885
    1   AR   Ar  115   3.287   5.093  -0.020
    1   AR   Ar  116   3.742   6.995  -0.124
    1   AR   Ar  117   1.339   4.796   2.968
    1   AR   Ar  118   1.356   6.214   2.606
    1   AR   Ar  119   2.117   4.336   2.466
    1   AR   Ar  120   1.580   5.293   1.943
    1   AR   Ar  121   0.064   4.556   3.906
    1   AR   Ar  122   2.944   6.315   4.140
    1   AR   Ar  123   2.381   5.176   4.127
    1   AR   Ar  124   2.085   5.484   2.947
    1   AR   Ar  125   0.620   5.335   4.760
    1   AR   Ar  126   1.128   6.759   6.123
    1   AR   Ar  127   2.314   5.236   7.058
    1   AR   Ar  128   2.055   6.313   5.952
    1   AR   Ar  129   2.593   6.782   1.450
    1   AR   Ar  130   4.082   6.898  -1.167
    1   AR   Ar  131   4.778   6.001   0.316
    1   AR   Ar  132   5.709   2.388  -0.808
    1   AR   Ar  133   3.802   0.129   2.294
    1   AR   Ar  134   4.104   1.365   2.748
    1   AR   Ar  135   4.657   0.386   2.988
    1   AR   Ar  136   4.524   0.838   1.869
    1   AR   Ar  137   3.051   7.010   3.374
    1   AR   Ar  138   4.525   1.250   5.012
    1   AR   Ar  139   4.916   0.390   4.033
    1   AR   Ar  140   4.251   1.239   3.697
    1   AR   Ar  141   3.660   7.111   4.449
    1   AR   Ar  142   4.044   0.466   5.463
    1   AR   Ar  143   5.306   7.044   6.187
    1   AR   Ar  144   5.219   0.406   7.303
    1   AR   Ar  145   2.746   2.958   0.567
    1   AR   Ar  146   3.835   2.628   1.151
    1   AR   Ar  147   5.293   1.943   0.341
    1   AR   Ar  148   5.883   3.611  -1.797
    1   AR   Ar  149   4.533   1.554   1.047
    1   AR   Ar  150   2.819   1.769   2.510
    1   AR   Ar  151   3.208   1.934   3.782
    1   AR   Ar  152   2.766   3.005   1.956
    1   AR   Ar  153   3.216   0.922   3.872
    1   AR   Ar  154   4.004   2.368   4.381
    1   AR   Ar  155   5.536   1.083   5.689
    1   AR   Ar  156   4.224   3.241   3.805
    1   AR   Ar  157   3.798   1.781   5.562
    1   AR   Ar  158   3.031   2.175   6.374
    1   AR   Ar  159   4.614   0.960   6.296
    1   AR   Ar  160   4.419   2.869   5.900
    1   AR   Ar  161   4.590   2.879  -0.355
    1   AR   Ar  162   4.502   4.893   1.000
    1   AR   Ar  163   5.432   3.010   0.272
    1   AR   Ar  164   5.548   4.884   1.184
    1   AR   Ar  165   3.108   3.625   2.714
    1   AR   Ar  166   2.876   4.702   3.053
    1   AR   Ar  167   4.385   2.794   2.631
    1   AR   Ar  168   4.032   3.736   0.767
    1   AR   Ar  169   2.443   2.745   3.300
    1   AR   Ar  170   3.000   4.255   4.152
    1   AR   Ar  171   3.795   3.539   4.712
    1   AR   Ar  172   4.429   4.348   4.271
    1   AR   Ar  173   3.125   2.887   5.448
    1   AR   Ar  174   4.130   5.013   5.872
    1   AR   Ar  175   4.007   3.941   5.713
    1   AR   Ar  176   3.604   4.717   4.974
    1   AR   Ar  177   5.502   5.308   0.002
    1   AR   Ar  178   3.963   6.797   1.257
    1   AR   Ar  179   3.559   5.451   1.245
    1   AR   Ar  180   4.361   5.124  -0.322
    1   AR   Ar  181   2.994   5.670   2.082
    1   AR   Ar  182   2.451   6.575   2.427
    1   AR   Ar  183   3.472   4.512   2.266
    1   AR   Ar  184   4.062   5.801   2.105
    1   AR   Ar  185   1.523   5.750   3.853
    1   AR   Ar  186   3.469   5.335   3.984
    1   AR   Ar  187   4.640   5.286   3.089
    1   AR   Ar  188   3.376   6.245   2.860
    1   AR   Ar  189   2.239   5.188   5.885
    1   AR   Ar  190   4.490   5.766   6.548
    1   AR   Ar  191   4.936   6.112   5.154
    1   AR   Ar  192   3.817   5.702   4.842
    1   AR   Ar  193   5.876   6.998  -0.032
    1   AR   Ar  194   4.806   0.089  -0.478
    1   AR   Ar  195   5.815   0.957   0.567
    1   AR   Ar  196   6.165   1.352  -0.650
    1   AR   Ar  197   5.027   0.287   0.901
    1   AR   Ar  198   5.664   1.282   1.599
    1   AR   Ar  199   5.456   0.418   2.148
    1   AR   Ar  200   6.587   1.713   1.115
    1   AR   Ar  201   5.223   6.537   2.741
    1   AR   Ar  202   5.399   1.353   3.953
    1   AR   Ar  203   0.089   0.092   4.567
    1   AR   Ar  204   5.967   0.140   3.052
    1   AR   Ar  205   5.903   7.030   4.085
    1   AR   Ar  206   5.001   0.344   5.121
    1   AR   Ar  207   0.173   0.216   5.579
    1   AR   Ar  208   6.333   0.841   3.704
    1   AR   Ar  209   6.795   2.839  -1.762
    1   AR   Ar  210   4.718   2.448   1.705
    1   AR   Ar  211   6.330   2.516   0.062
    1   AR   Ar  212   6.342   3.854  -0.727
    1   AR   Ar  213   3.699   2.274   2.153
    1   AR   Ar  214   4.113   3.348   1.866
    1   AR   Ar  215   5.605   2.231   2.159
    1   AR   Ar  216   6.303   3.111   1.780
    1   AR   Ar  217   5.054   2.368   4.004
    1   AR   Ar  218   5.372   1.886   5.129
    1   AR   Ar  219   5.514   1.295   2.834
    1   AR   Ar  220   6.272   3.330   3.252
    1   AR   Ar  221   6.097   7.082   5.378
    1   AR   Ar  222   5.234   1.964   6.335
    1   AR   Ar  223   6.424   1.326   7.002
    1   AR   Ar  224   5.516   3.059   5.507
    1   AR   Ar  225   5.212   4.226   0.235
    1   AR   Ar  226   4.672   4.386   2.191
    1   AR   Ar  227   6.704   4.219   1.457
    1   AR   Ar  228   6.446   5.189   0.585
    1   AR   Ar  229   6.099   3.676   0.787
    1   AR   Ar  230   4.160   4.281   3.166
    1   AR   Ar  231   6.992   2.593   3.522
    1   AR   Ar  232   5.054   3.912   1.353
    1   AR   Ar  233   5.905   2.760   4.553
    1   AR   Ar  234   6.253   4.516   4.976
    1   AR   Ar  235   6.733   3.512   4.424
    1   AR   Ar  236   5.054   3.836   3.644
    1   AR   Ar  237   4.877   3.271   4.727
    1   AR   Ar  238   4.954   4.251   5.110
    1   AR   Ar  239   6.419   3.738   7.853
    1   AR   Ar  240   6.154   3.786   6.002
    1   AR   Ar  241   6.633   0.644   0.019
    1   AR   Ar  242   4.979   6.155   1.421
    1   AR   Ar  243   5.909   4.604   2.110
    1   AR   Ar  244   6.636   6.334  -0.386
    1   AR   Ar  245   5.135   5.325   2.050
    1   AR   Ar  246   6.113   6.273   2.258
    1   AR   Ar  247   5.345   3.685   2.435
    1   AR   Ar  248   5.993   6.921   1.215
    1   AR   Ar  249   5.487   4.621   3.111
    1   AR   Ar  250   4.583   6.407   4.073
    1   AR   Ar  251   5.152   5.346   4.088
    1   AR   Ar  252   5.730   5.935   3.366
    1   AR   Ar  253   5.668   5.185   5.737
    1   AR   Ar  254   5.374   5.639   6.968
    1   AR   Ar  255   5.466   4.527   6.543
    1   AR   Ar  256   6.163   6.041   4.621
    7.12000  7.12000 12.00000
Argon-slab step 1110
  256
    1   AR   Ar    1   0.882   0.437  -0.901
    1   AR   Ar    2   7.058   0.667   1.067
    1   AR   Ar    3   0.319   7.018   0.471
    1   AR   Ar    4   1.039   0.654   0.156
    1   AR   Ar    5   6.813   6.129   0.967
    1   AR   Ar    6   0.334   0.018   3.072
    1   AR   Ar    7   0.018   6.170   2.101
    1   AR   Ar    8   0.549   7.013   1.702
    1   AR   Ar    9   0.381   0.812   3.766
    1   AR   Ar   10   7.047   1.810   4.472
    1   AR   Ar   11   2.033   6.837   4.323
    1   AR   Ar   12   1.016   1.112   2.941
    1   AR   Ar   13   6.390   1.018   5.176
    1   AR   Ar   14   0.235   1.571   5.814
    1   AR   Ar   15   7.039   5.863   8.770
    1   AR   Ar   16   0.773   0.935   4.929
    1   AR   Ar   17   7.102   1.772   0.050
    1   AR   Ar   18   7.043   3.354   0.101
    1   AR   Ar   19   0.698   1.458   0.878
    1   AR   Ar   20   0.577   3.178  -2.108
    1   AR   Ar   21   6.745   0.212   2.317
    1   AR   Ar   22   6.952   2.107   2.283
    1   AR   Ar   23   0.156   0.989   2.043
    1   AR   Ar   24   7.118   2.803   1.182
    1   AR   Ar   25   0.005   1.558   3.096
    1   AR   Ar   26   6.042   2.076   3.341
    1   AR   Ar   27   1.404   0.833   3.943
    1   AR   Ar   28   0.748   2.660   4.545
    1   AR   Ar   29   6.157   2.331   5.826
    1   AR   Ar   30   6.935   2.880   6.360
    1   AR   Ar   31   0.746   1.253   7.125
    1   AR   Ar   32   1.794   2.550   5.186
    1   AR   Ar   33   1.044   3.955  -1.502
    1   AR   Ar   34   0.876   5.261   1.098
    1   AR   Ar   35   0.552   3.912   1.405
    1   AR   Ar   36   1.964   6.675  -1.718
    1   AR   Ar   37   0.237   3.253   2.232
    1   AR   Ar   38   0.250   5.035   2.111
    1   AR   Ar   39   1.127   3.579   2.875
    1   AR   Ar   40   1.273   4.231   1.929
    1   AR   Ar   41   0.797   2.390   2.841
    1   AR   Ar   42   6.721   5.269   5.500
    1   AR   Ar   43   6.908   2.556   5.282
    1   AR   Ar   44   0.390   3.528   3.701
    1   AR   Ar   45   7.022   3.660   5.596
    1   AR   Ar   46   6.451   5.260   6.800
    1   AR   Ar   47   6.971   4.002   6.771
    1   AR   Ar   48   0.230   6.070   6.908
    1   AR   Ar   49   0.429   4.817  -1.196
    1   AR   Ar   50   6.361   5.495   1.659
    1   AR   Ar   51   1.348   4.885   0.188
    1   AR   Ar   52   0.210   5.521   0.120
    1   AR   Ar   53   6.485   5.341   2.786
    1   AR   Ar   54   6.543   6.415   3.220
    1   AR   Ar   55   0.460   5.600   3.291
    1   AR   Ar   56   1.101   6.144   1.583
    1   AR   Ar   57   6.988   4.152   2.751
    1   AR   Ar   58   0.061   6.078   4.109
    1   AR   Ar   59   1.869   6.024   5.052
    1   AR   Ar   60   0.869   6.467   3.693
    1   AR   Ar   61   6.264   6.154   6.115
    1   AR   Ar   62   0.207   6.351   5.241
    1   AR   Ar   63   1.178   5.058   5.939
    1   AR   Ar   64   1.015   6.848   4.871
    1   AR   Ar   65   2.855   0.491   0.157
    1   AR   Ar   66   1.742   0.613   1.213
    1   AR   Ar   67   3.235   6.296   0.619
    1   AR   Ar   68   3.788   0.944  -0.429
    1   AR   Ar   69   1.589   6.896   0.608
    1   AR   Ar   70   1.469   0.141   2.495
    1   AR   Ar   71   3.276   0.927   1.795
    1   AR   Ar   72   4.012   0.757   0.638
    1   AR   Ar   73   1.856   6.841   3.321
    1   AR   Ar   74   1.996   1.021   4.947
    1   AR   Ar   75   3.079   0.831   5.153
    1   AR   Ar   76   2.646   0.663   2.912
    1   AR   Ar   77   2.252   0.323   5.771
    1   AR   Ar   78   1.200   0.772   5.821
    1   AR   Ar   79   3.961   6.729   6.904
    1   AR   Ar   80   2.996   6.726   5.201
    1   AR   Ar   81   2.060   1.287   0.336
    1   AR   Ar   82   1.406   3.580   0.839
    1   AR   Ar   83   2.748   1.825   1.262
    1   AR   Ar   84   2.044   3.224  -1.930
    1   AR   Ar   85   1.509   2.291   0.887
    1   AR   Ar   86   1.730   2.783   2.535
    1   AR   Ar   87   1.777   1.614   2.038
    1   AR   Ar   88   3.243   3.601   1.293
    1   AR   Ar   89   0.704   2.118   1.647
    1   AR   Ar   90   2.838   1.846   4.887
    1   AR   Ar   91   2.223   2.197   4.104
    1   AR   Ar   92   1.988   1.792   3.193
    1   AR   Ar   93   1.324   1.792   5.573
    1   AR   Ar   94   2.541   1.123   8.684
    1   AR   Ar   95   3.091   0.038   6.389
    1   AR   Ar   96   1.768   1.839   6.714
    1   AR   Ar   97   2.815   3.289  -0.852
    1   AR   Ar   98   2.545   4.713   1.569
    1   AR   Ar   99   3.812   2.817  -1.460
    1   AR   Ar  100   2.330   4.322  -0.612
    1   AR   Ar  101   1.176   2.971   1.707
    1   AR   Ar  102   2.270   3.686   3.547
    1   AR   Ar  103   2.194   3.569   1.435
    1   AR   Ar  104   3.409   3.928  -0.121
    1   AR   Ar  105   1.460   2.946   3.677
    1   AR   Ar  106   2.495   3.209   4.648
    1   AR   Ar  107   2.911   4.097   5.526
    1   AR   Ar  108   3.220   3.072   3.995
    1   AR   Ar  109   1.067   3.856   4.401
    1   AR   Ar  110   1.795   4.505   4.902
    1   AR   Ar  111   3.675   4.934   6.943
    1   AR   Ar  112   1.440   3.977   5.820
    1   AR   Ar  113   2.385   4.271   0.616
    1   AR   Ar  114   2.313   5.523   0.892
    1   AR   Ar  115   3.297   5.077  -0.014
    1   AR   Ar  116   3.751   6.989  -0.130
    1   AR   Ar  117   1.349   4.793   2.986
    1   AR   Ar  118   1.343   6.169   2.602
    1   AR   Ar  119   2.126   4.327   2.469
    1   AR   Ar  120   1.585   5.325   1.942
    1   AR   Ar  121   0.044   4.568   3.923
    1   AR   Ar  122   2.975   6.324   4.156
    1   AR   Ar  123   2.385   5.184   4.154
    1   AR   Ar  124   2.078   5.490   2.952
    1   AR   Ar  125   0.605   5.297   4.753
    1   AR   Ar  126   1.106   6.770   6.101
    1   AR   Ar  127   2.291   5.246   7.017
    1   AR   Ar  128   2.076   6.309   5.965
    1   AR   Ar  129   2.589   6.793   1.478
    1   AR   Ar  130   4.113   6.899  -1.213
    1   AR   Ar  131   4.778   6.010   0.315
    1   AR   Ar  132   5.702   2.361  -0.792
    1   AR   Ar  133   3.767   0.130   2.319
    1   AR   Ar  134   4.119   1.367   2.750
    1   AR   Ar  135   4.654   0.385   2.975
    1   AR   Ar  136   4.518   0.829   1.885
    1   AR   Ar  137   3.056   7.020   3.353
    1   AR   Ar  138   4.505   1.269   5.022
    1   AR   Ar  139   4.951   0.373   4.036
    1   AR   Ar  140   4.233   1.221   3.722
    1   AR   Ar  141   3.658   7.106   4.460
    1   AR   Ar  142   4.044   0.477   5.445
    1   AR   Ar  143   5.303   7.041   6.163
    1   AR   Ar  144   5.204   0.430   7.308
    1   AR   Ar  145   2.764   3.013   0.582
    1   AR   Ar  146   3.806   2.643   1.140
    1   AR   Ar  147   5.280   1.944   0.334
    1   AR   Ar  148   5.850   3.604  -1.761
    1   AR   Ar  149   4.531   1.533   1.017
    1   AR   Ar  150   2.832   1.756   2.510
    1   AR   Ar  151   3.255   1.923   3.773
    1   AR   Ar  152   2.767   3.007   1.972
    1   AR   Ar  153   3.230   0.881   3.887
    1   AR   Ar  154   4.009   2.377   4.377
    1   AR   Ar  155   5.550   1.102   5.713
    1   AR   Ar  156   4.224   3.227   3.818
    1   AR   Ar  157   3.796   1.787   5.532
    1   AR   Ar  158   3.013   2.151   6.363
    1   AR   Ar  159   4.606   0.953   6.280
    1   AR   Ar  160   4.414   2.859   5.909
    1   AR   Ar  161   4.597   2.882  -0.348
    1   AR   Ar  162   4.462   4.924   1.010
    1   AR   Ar  163   5.466   3.004   0.253
    1   AR   Ar  164   5.564   4.865   1.201
    1   AR   Ar  165   3.099   3.644   2.701
    1   AR   Ar  166   2.907   4.703   3.029
    1   AR   Ar  167   4.382   2.812   2.658
    1   AR   Ar  168   4.013   3.721   0.740
    1   AR   Ar  169   2.450   2.753   3.276
    1   AR   Ar  170   3.005   4.271   4.122
    1   AR   Ar  171   3.803   3.532   4.740
    1   AR   Ar  172   4.423   4.385   4.263
    1   AR   Ar  173   3.120   2.916   5.419
    1   AR   Ar  174   4.148   5.006   5.882
    1   AR   Ar  175   4.028   3.950   5.729
    1   AR   Ar  176   3.615   4.727   4.973
    1   AR   Ar  177   5.504   5.276  -0.008
    1   AR   Ar  178   3.967   6.818   1.227
    1   AR   Ar  179   3.578   5.435   1.221
    1   AR   Ar  180   4.370   5.086  -0.343
    1   AR   Ar  181   3.008   5.677   2.094
    1   AR   Ar  182   2.434   6.587   2.447
    1   AR   Ar  183   3.466   4.479   2.213
    1   AR   Ar  184   4.028   5.832   2.138
    1   AR   Ar  185   1.528   5.737   3.840
    1   AR   Ar  186   3.448   5.330   3.974
    1   AR   Ar  187   4.619   5.288   3.071
    1   AR   Ar  188   3.361   6.264   2.824
    1   AR   Ar  189   2.253   5.174   5.893
    1   AR   Ar  190   4.436   5.782   6.546
    1   AR   Ar  191   4.952   6.117   5.167
    1   AR   Ar  192   3.834   5.730   4.837
    1   AR   Ar  193   5.917   7.001  -0.022
    1   AR   Ar  194   4.845   0.090  -0.484
    1   AR   Ar  195   5.859   0.951   0.570
    1   AR   Ar  196   6.166   1.378  -0.619
    1   AR   Ar  197   5.037   0.315   0.881
    1   AR   Ar  198   5.683   1.259   1.599
    1   AR   Ar  199   5.466   0.412   2.160
    1   AR   Ar  200   6.560   1.722   1.091
    1   AR   Ar  201   5.222   6.535   2.724
    1   AR   Ar  202   5.426   1.358   3.961
    1   AR   Ar  203   0.096   0.075   4.593
    1   AR   Ar  204   5.964   0.139   3.063
    1   AR   Ar  205   5.901   7.037   4.071
    1   AR   Ar  206   5.023   0.347   5.115
    1   AR   Ar  207   0.205   0.235   5.583
    1   AR   Ar  208   6.355   0.867   3.675
    1   AR   Ar  209   6.810   2.848  -1.767
    1   AR   Ar  210   4.736   2.460   1.696
    1   AR   Ar  211   6.348   2.539   0.032
    1   AR   Ar  212   6.330   3.829  -0.713
    1   AR   Ar  213   3.702   2.279   2.143
    1   AR   Ar  214   4.079   3.325   1.858
    1   AR   Ar  215   5.609   2.227   2.133
    1   AR   Ar  216   6.295   3.122   1.779
    1   AR   Ar  217   5.058   2.413   4.001
    1   AR   Ar  218   5.323   1.910   5.120
    1   AR   Ar  219   5.536   1.261   2.827
    1   AR   Ar  220   6.283   3.341   3.269
    1   AR   Ar  221   6.113   7.081   5.382
    1   AR   Ar  222   5.263   1.940   6.330
    1   AR   Ar  223   6.412   1.290   7.014
    1   AR   Ar  224   5.483   3.074   5.516
    1   AR   Ar  225   5.211   4.222   0.243
    1   AR   Ar  226   4.660   4.422   2.189
    1   AR   Ar  227   6.704   4.232   1.434
    1   AR   Ar  228   6.432   5.204   0.585
    1   AR   Ar  229   6.085   3.675   0.758
    1   AR   Ar  230   4.163   4.309   3.134
    1   AR   Ar  231   6.981   2.589   3.497
    1   AR   Ar  232   5.061   3.940   1.339
    1   AR   Ar  233   5.905   2.759   4.553
    1   AR   Ar  234   6.258   4.522   4.982
    1   AR   Ar  235   6.733   3.497   4.428
    1   AR   Ar  236   5.037   3.825   3.648
    1   AR   Ar  237   4.872   3.314   4.711
    1   AR   Ar  238   4.955   4.261   5.091
    1   AR   Ar  239   6.432   3.725   7.839
    1   AR   Ar  240   6.155   3.800   6.000
    1   AR   Ar  241   6.633   0.613   0.026
    1   AR   Ar  242   4.971   6.147   1.412
    1   AR   Ar  243   5.908   4.604   2.105
    1   AR   Ar  244   6.613   6.328  -0.393
    1   AR   Ar  245   5.125   5.340   2.050
    1   AR   Ar  246   6.115   6.259   2.251
    1   AR   Ar  247   5.329   3.686   2.422
    1   AR   Ar  248   5.993   6.947   1.221
    1   AR   Ar  249   5.516   4.629   3.076
    1   AR   Ar  250   4.635   6.433   4.068
    1   AR   Ar  251   5.152   5.338   4.064
    1   AR   Ar  252   5.755   5.918   3.366
    1   AR   Ar  253   5.681   5.194   5.729
    1   AR   Ar  254   5.389   5.649   6.972
    1   AR   Ar  255   5.472   4.513   6.544
    1   AR   Ar  256   6.159   6.019   4.586
    7.12000  7.12000 12.00000
Argon-slab step 1115
  256
    1   AR   Ar    1   0.889   0.449  -0.899
    1   AR   Ar    2   7.067   0.680   1.078
    1   AR   Ar    3   0.287   7.019   0.502
    1   AR   Ar    4   1.049   0.653   0.159
    1   AR   Ar    5   6.837   6.127   0.970
    1   AR   Ar    6   0.348   0.042   3.090
    1   AR   Ar    7   0.022   6.151   2.096
    1   AR   Ar    8   0.523   7.019   1.702
    1   AR   Ar    9   0.417   0.822   3.751
    1   AR   Ar   10   7.033   1.822   4.488
    1   AR   Ar   11   2.031   6.821   4.334
    1   AR   Ar   12   1.005   1.126   2.916
    1   AR   Ar   13   6.367   1.006   5.156
    1   AR   Ar   14   0.258   1.566   5.821
    1   AR   Ar   15   7.030   5.860   8.745
    1   AR   Ar   16   0.773   0.940   4.917
    1   AR   Ar   17   7.111   1.749   0.042
    1   AR   Ar   18   7.072   3.346   0.098
    1   AR   Ar   19   0.698   1.411   0.867
    1   AR   Ar   20   0.607   3.182  -2.117
    1   AR   Ar   21   6.744   0.206   2.329
    1   AR   Ar   22   6.938   2.120   2.275
    1   AR   Ar   23   0.169   0.979   2.062
    1   AR   Ar   24   7.117   2.824   1.174
    1   AR   Ar   25   0.010   1.552   3.083
    1   AR   Ar   26   6.047   2.071   3.352
    1   AR   Ar   27   1.423   0.823   3.927
    1   AR   Ar   28   0.771   2.630   4.545
    1   AR   Ar   29   6.158   2.309   5.808
    1   AR   Ar   30   6.914   2.889   6.352
    1   AR   Ar   31   0.735   1.261   7.122
    1   AR   Ar   32   1.820   2.557   5.173
    1   AR   Ar   33   1.022   3.979  -1.490
    1   AR   Ar   34   0.879   5.239   1.084
    1   AR   Ar   35   0.518   3.899   1.396
    1   AR   Ar   36   1.974   6.681  -1.723
    1   AR   Ar   37   0.270   3.236   2.219
    1   AR   Ar   38   0.205   5.035   2.136
    1   AR   Ar   39   1.117   3.597   2.858
    1   AR   Ar   40   1.257   4.197   1.950
    1   AR   Ar   41   0.798   2.376   2.853
    1   AR   Ar   42   6.709   5.267   5.486
    1   AR   Ar   43   6.914   2.550   5.290
    1   AR   Ar   44   0.414   3.513   3.698
    1   AR   Ar   45   7.054   3.646   5.588
    1   AR   Ar   46   6.426   5.241   6.789
    1   AR   Ar   47   6.969   3.992   6.816
    1   AR   Ar   48   0.220   6.091   6.904
    1   AR   Ar   49   0.417   4.795  -1.228
    1   AR   Ar   50   6.387   5.472   1.655
    1   AR   Ar   51   1.330   4.887   0.190
    1   AR   Ar   52   0.202   5.509   0.142
    1   AR   Ar   53   6.469   5.361   2.764
    1   AR   Ar   54   6.548   6.420   3.212
    1   AR   Ar   55   0.436   5.603   3.311
    1   AR   Ar   56   1.106   6.144   1.570
    1   AR   Ar   57   7.005   4.132   2.774
    1   AR   Ar   58   0.064   6.063   4.108
    1   AR   Ar   59   1.879   6.039   5.025
    1   AR   Ar   60   0.891   6.497   3.710
    1   AR   Ar   61   6.263   6.181   6.099
    1   AR   Ar   62   0.197   6.343   5.242
    1   AR   Ar   63   1.191   5.039   5.925
    1   AR   Ar   64   1.040   6.820   4.869
    1   AR   Ar   65   2.863   0.490   0.151
    1   AR   Ar   66   1.708   0.608   1.207
    1   AR   Ar   67   3.197   6.318   0.621
    1   AR   Ar   68   3.781   0.959  -0.449
    1   AR   Ar   69   1.549   6.893   0.615
    1   AR   Ar   70   1.444   0.143   2.483
    1   AR   Ar   71   3.265   0.952   1.783
    1   AR   Ar   72   4.002   0.724   0.624
    1   AR   Ar   73   1.874   6.844   3.294
    1   AR   Ar   74   1.967   0.979   4.952
    1   AR   Ar   75   3.091   0.788   5.171
    1   AR   Ar   76   2.656   0.651   2.896
    1   AR   Ar   77   2.270   0.338   5.773
    1   AR   Ar   78   1.229   0.761   5.809
    1   AR   Ar   79   3.978   6.751   6.887
    1   AR   Ar   80   3.013   6.718   5.207
    1   AR   Ar   81   2.059   1.277   0.333
    1   AR   Ar   82   1.383   3.614   0.822
    1   AR   Ar   83   2.721   1.802   1.229
    1   AR   Ar   84   2.041   3.230  -1.983
    1   AR   Ar   85   1.492   2.291   0.855
    1   AR   Ar   86   1.729   2.825   2.526
    1   AR   Ar   87   1.754   1.567   2.049
    1   AR   Ar   88   3.230   3.577   1.319
    1   AR   Ar   89   0.721   2.130   1.635
    1   AR   Ar   90   2.832   1.839   4.911
    1   AR   Ar   91   2.219   2.204   4.134
    1   AR   Ar   92   1.990   1.784   3.200
    1   AR   Ar   93   1.290   1.764   5.583
    1   AR   Ar   94   2.558   1.110   8.667
    1   AR   Ar   95   3.074   0.025   6.391
    1   AR   Ar   96   1.784   1.803   6.712
    1   AR   Ar   97   2.829   3.252  -0.847
    1   AR   Ar   98   2.515   4.667   1.580
    1   AR   Ar   99   3.843   2.807  -1.459
    1   AR   Ar  100   2.310   4.300  -0.623
    1   AR   Ar  101   1.164   2.986   1.675
    1   AR   Ar  102   2.292   3.701   3.527
    1   AR   Ar  103   2.173   3.570   1.390
    1   AR   Ar  104   3.396   3.946  -0.152
    1   AR   Ar  105   1.432   2.955   3.684
    1   AR   Ar  106   2.505   3.213   4.640
    1   AR   Ar  107   2.893   4.083   5.536
    1   AR   Ar  108   3.233   3.062   4.008
    1   AR   Ar  109   1.067   3.844   4.407
    1   AR   Ar  110   1.796   4.527   4.897
    1   AR   Ar  111   3.697   4.927   6.938
    1   AR   Ar  112   1.433   4.013   5.821
    1   AR   Ar  113   2.357   4.280   0.627
    1   AR   Ar  114   2.346   5.500   0.900
    1   AR   Ar  115   3.305   5.060  -0.006
    1   AR   Ar  116   3.761   6.983  -0.135
    1   AR   Ar  117   1.349   4.786   3.006
    1   AR   Ar  118   1.334   6.128   2.600
    1   AR   Ar  119   2.143   4.312   2.465
    1   AR   Ar  120   1.596   5.350   1.943
    1   AR   Ar  121   0.049   4.538   3.914
    1   AR   Ar  122   3.002   6.277   4.153
    1   AR   Ar  123   2.389   5.192   4.181
    1   AR   Ar  124   2.080   5.500   2.956
    1   AR   Ar  125   0.591   5.260   4.746
    1   AR   Ar  126   1.082   6.782   6.076
    1   AR   Ar  127   2.283   5.238   7.050
    1   AR   Ar  128   2.102   6.309   5.991
    1   AR   Ar  129   2.598   6.800   1.468
    1   AR   Ar  130   4.142   6.901  -1.258
    1   AR   Ar  131   4.777   6.019   0.315
    1   AR   Ar  132   5.692   2.335  -0.776
    1   AR   Ar  133   3.732   0.130   2.345
    1   AR   Ar  134   4.131   1.372   2.740
    1   AR   Ar  135   4.652   0.385   2.962
    1   AR   Ar  136   4.511   0.819   1.899
    1   AR   Ar  137   3.062   7.032   3.346
    1   AR   Ar  138   4.490   1.291   5.024
    1   AR   Ar  139   4.983   0.357   4.037
    1   AR   Ar  140   4.218   1.203   3.758
    1   AR   Ar  141   3.658   7.097   4.475
    1   AR   Ar  142   4.039   0.482   5.431
    1   AR   Ar  143   5.300   7.040   6.138
    1   AR   Ar  144   5.189   0.454   7.311
    1   AR   Ar  145   2.781   3.068   0.596
    1   AR   Ar  146   3.774   2.655   1.123
    1   AR   Ar  147   5.270   1.943   0.325
    1   AR   Ar  148   5.809   3.589  -1.715
    1   AR   Ar  149   4.533   1.518   0.992
    1   AR   Ar  150   2.845   1.742   2.511
    1   AR   Ar  151   3.300   1.915   3.762
    1   AR   Ar  152   2.775   2.990   1.998
    1   AR   Ar  153   3.242   0.836   3.903
    1   AR   Ar  154   4.013   2.386   4.385
    1   AR   Ar  155   5.559   1.116   5.743
    1   AR   Ar  156   4.227   3.214   3.825
    1   AR   Ar  157   3.788   1.797   5.505
    1   AR   Ar  158   2.995   2.127   6.350
    1   AR   Ar  159   4.596   0.941   6.260
    1   AR   Ar  160   4.409   2.848   5.915
    1   AR   Ar  161   4.603   2.884  -0.342
    1   AR   Ar  162   4.426   4.953   1.020
    1   AR   Ar  163   5.495   3.001   0.234
    1   AR   Ar  164   5.557   4.856   1.213
    1   AR   Ar  165   3.090   3.663   2.694
    1   AR   Ar  166   2.939   4.708   3.015
    1   AR   Ar  167   4.388   2.831   2.699
    1   AR   Ar  168   4.014   3.708   0.703
    1   AR   Ar  169   2.466   2.755   3.245
    1   AR   Ar  170   3.017   4.271   4.115
    1   AR   Ar  171   3.810   3.528   4.772
    1   AR   Ar  172   4.406   4.425   4.248
    1   AR   Ar  173   3.118   2.943   5.394
    1   AR   Ar  174   4.167   4.999   5.889
    1   AR   Ar  175   4.049   3.958   5.744
    1   AR   Ar  176   3.625   4.732   4.971
    1   AR   Ar  177   5.535   5.244  -0.033
    1   AR   Ar  178   3.972   6.840   1.197
    1   AR   Ar  179   3.570   5.446   1.216
    1   AR   Ar  180   4.380   5.046  -0.362
    1   AR   Ar  181   3.011   5.676   2.102
    1   AR   Ar  182   2.413   6.597   2.473
    1   AR   Ar  183   3.467   4.448   2.151
    1   AR   Ar  184   4.005   5.862   2.169
    1   AR   Ar  185   1.536   5.719   3.828
    1   AR   Ar  186   3.426   5.320   3.959
    1   AR   Ar  187   4.598   5.292   3.051
    1   AR   Ar  188   3.354   6.277   2.790
    1   AR   Ar  189   2.269   5.160   5.899
    1   AR   Ar  190   4.379   5.801   6.542
    1   AR   Ar  191   4.968   6.123   5.180
    1   AR   Ar  192   3.854   5.766   4.836
    1   AR   Ar  193   5.949   7.004  -0.009
    1   AR   Ar  194   4.885   0.092  -0.486
    1   AR   Ar  195   5.899   0.947   0.576
    1   AR   Ar  196   6.166   1.404  -0.586
    1   AR   Ar  197   5.045   0.343   0.862
    1   AR   Ar  198   5.701   1.237   1.597
    1   AR   Ar  199   5.478   0.399   2.172
    1   AR   Ar  200   6.534   1.730   1.066
    1   AR   Ar  201   5.214   6.535   2.705
    1   AR   Ar  202   5.452   1.364   3.970
    1   AR   Ar  203   0.111   0.066   4.604
    1   AR   Ar  204   5.957   0.140   3.070
    1   AR   Ar  205   5.903   7.041   4.062
    1   AR   Ar  206   5.050   0.347   5.109
    1   AR   Ar  207   0.195   0.262   5.600
    1   AR   Ar  208   6.381   0.897   3.647
    1   AR   Ar  209   6.817   2.854  -1.768
    1   AR   Ar  210   4.696   2.445   1.662
    1   AR   Ar  211   6.365   2.546   0.015
    1   AR   Ar  212   6.317   3.803  -0.698
    1   AR   Ar  213   3.700   2.279   2.129
    1   AR   Ar  214   4.046   3.312   1.849
    1   AR   Ar  215   5.620   2.221   2.112
    1   AR   Ar  216   6.285   3.135   1.780
    1   AR   Ar  217   5.060   2.458   3.997
    1   AR   Ar  218   5.276   1.943   5.107
    1   AR   Ar  219   5.557   1.225   2.821
    1   AR   Ar  220   6.293   3.354   3.286
    1   AR   Ar  221   6.129   7.079   5.385
    1   AR   Ar  222   5.290   1.917   6.324
    1   AR   Ar  223   6.399   1.253   7.024
    1   AR   Ar  224   5.449   3.090   5.528
    1   AR   Ar  225   5.208   4.219   0.252
    1   AR   Ar  226   4.642   4.460   2.186
    1   AR   Ar  227   6.698   4.249   1.413
    1   AR   Ar  228   6.416   5.216   0.586
    1   AR   Ar  229   6.073   3.676   0.730
    1   AR   Ar  230   4.163   4.335   3.104
    1   AR   Ar  231   6.974   2.584   3.474
    1   AR   Ar  232   5.067   3.965   1.323
    1   AR   Ar  233   5.907   2.758   4.555
    1   AR   Ar  234   6.260   4.522   4.985
    1   AR   Ar  235   6.732   3.482   4.434
    1   AR   Ar  236   5.029   3.813   3.649
    1   AR   Ar  237   4.864   3.351   4.689
    1   AR   Ar  238   4.959   4.248   5.099
    1   AR   Ar  239   6.446   3.711   7.826
    1   AR   Ar  240   6.142   3.817   6.005
    1   AR   Ar  241   6.645   0.584   0.030
    1   AR   Ar  242   4.963   6.143   1.401
    1   AR   Ar  243   5.913   4.600   2.105
    1   AR   Ar  244   6.608   6.323  -0.377
    1   AR   Ar  245   5.117   5.359   2.053
    1   AR   Ar  246   6.112   6.252   2.247
    1   AR   Ar  247   5.317   3.682   2.412
    1   AR   Ar  248   5.986   6.964   1.230
    1   AR   Ar  249   5.544   4.639   3.043
    1   AR   Ar  250   4.688   6.458   4.063
    1   AR   Ar  251   5.152   5.329   4.042
    1   AR   Ar  252   5.761   5.887   3.372
    1   AR   Ar  253   5.700   5.213   5.740
    1   AR   Ar  254   5.382   5.668   6.977
    1   AR   Ar  255   5.478   4.498   6.545
    1   AR   Ar  256   6.145   6.004   4.551
    7.12000  7.12000 12.00000
Argon-slab step 1120
  256
    1   AR   Ar    1   0.896   0.460  -0.897
    1   AR   Ar    2   7.071   0.695   1.089
    1   AR   Ar    3   0.257   7.015   0.530
    1   AR   Ar    4   1.060   0.652   0.164
    1   AR   Ar    5   6.862   6.130   0.972
    1   AR   Ar    6   0.363   0.063   3.103
    1   AR   Ar    7   0.029   6.131   2.094
    1   AR   Ar    8   0.495   7.030   1.701
    1   AR   Ar    9   0.446   0.834   3.744
    1   AR   Ar   10   7.030   1.831   4.499
    1   AR   Ar   11   2.029   6.807   4.346
    1   AR   Ar   12   0.996   1.140   2.889
    1   AR   Ar   13   6.359   0.998   5.146
    1   AR   Ar   14   0.280   1.559   5.828
    1   AR   Ar   15   7.021   5.856   8.720
    1   AR   Ar   16   0.771   0.947   4.898
    1   AR   Ar   17   7.120   1.724   0.035
    1   AR   Ar   18   7.102   3.340   0.096
    1   AR   Ar   19   0.699   1.365   0.855
    1   AR   Ar   20   0.642   3.186  -2.129
    1   AR   Ar   21   6.733   0.189   2.341
    1   AR   Ar   22   6.902   2.140   2.256
    1   AR   Ar   23   0.184   0.980   2.076
    1   AR   Ar   24   7.116   2.844   1.164
    1   AR   Ar   25   0.013   1.542   3.075
    1   AR   Ar   26   6.041   2.079   3.349
    1   AR   Ar   27   1.448   0.812   3.912
    1   AR   Ar   28   0.799   2.610   4.526
    1   AR   Ar   29   6.141   2.281   5.800
    1   AR   Ar   30   6.893   2.900   6.345
    1   AR   Ar   31   0.755   1.270   7.124
    1   AR   Ar   32   1.849   2.567   5.156
    1   AR   Ar   33   1.003   4.000  -1.478
    1   AR   Ar   34   0.879   5.214   1.073
    1   AR   Ar   35   0.479   3.879   1.378
    1   AR   Ar   36   1.983   6.688  -1.727
    1   AR   Ar   37   0.302   3.217   2.207
    1   AR   Ar   38   0.162   5.035   2.160
    1   AR   Ar   39   1.105   3.618   2.840
    1   AR   Ar   40   1.249   4.168   1.976
    1   AR   Ar   41   0.798   2.363   2.865
    1   AR   Ar   42   6.706   5.273   5.476
    1   AR   Ar   43   6.938   2.551   5.285
    1   AR   Ar   44   0.435   3.496   3.690
    1   AR   Ar   45   7.091   3.633   5.575
    1   AR   Ar   46   6.401   5.222   6.777
    1   AR   Ar   47   6.987   4.011   6.830
    1   AR   Ar   48   0.204   6.108   6.896
    1   AR   Ar   49   0.403   4.776  -1.258
    1   AR   Ar   50   6.413   5.443   1.649
    1   AR   Ar   51   1.306   4.878   0.224
    1   AR   Ar   52   0.197   5.498   0.164
    1   AR   Ar   53   6.454   5.379   2.743
    1   AR   Ar   54   6.572   6.432   3.203
    1   AR   Ar   55   0.416   5.599   3.321
    1   AR   Ar   56   1.107   6.153   1.552
    1   AR   Ar   57   7.022   4.112   2.798
    1   AR   Ar   58   0.058   6.052   4.119
    1   AR   Ar   59   1.889   6.050   4.993
    1   AR   Ar   60   0.916   6.535   3.726
    1   AR   Ar   61   6.262   6.207   6.083
    1   AR   Ar   62   0.183   6.330   5.244
    1   AR   Ar   63   1.202   5.022   5.909
    1   AR   Ar   64   1.073   6.793   4.868
    1   AR   Ar   65   2.881   0.493   0.123
    1   AR   Ar   66   1.675   0.606   1.204
    1   AR   Ar   67   3.159   6.339   0.622
    1   AR   Ar   68   3.774   0.973  -0.468
    1   AR   Ar   69   1.509   6.885   0.621
    1   AR   Ar   70   1.416   0.147   2.465
    1   AR   Ar   71   3.254   0.977   1.772
    1   AR   Ar   72   4.000   0.704   0.594
    1   AR   Ar   73   1.893   6.844   3.276
    1   AR   Ar   74   1.937   0.939   4.956
    1   AR   Ar   75   3.099   0.747   5.185
    1   AR   Ar   76   2.658   0.654   2.871
    1   AR   Ar   77   2.286   0.352   5.774
    1   AR   Ar   78   1.259   0.743   5.803
    1   AR   Ar   79   3.995   6.773   6.869
    1   AR   Ar   80   3.026   6.709   5.216
    1   AR   Ar   81   2.054   1.267   0.325
    1   AR   Ar   82   1.351   3.650   0.795
    1   AR   Ar   83   2.693   1.779   1.197
    1   AR   Ar   84   2.037   3.236  -2.035
    1   AR   Ar   85   1.477   2.292   0.823
    1   AR   Ar   86   1.739   2.868   2.509
    1   AR   Ar   87   1.731   1.521   2.061
    1   AR   Ar   88   3.213   3.568   1.351
    1   AR   Ar   89   0.730   2.128   1.627
    1   AR   Ar   90   2.828   1.833   4.937
    1   AR   Ar   91   2.214   2.213   4.167
    1   AR   Ar   92   1.989   1.774   3.203
    1   AR   Ar   93   1.264   1.742   5.588
    1   AR   Ar   94   2.574   1.097   8.650
    1   AR   Ar   95   3.059   0.011   6.393
    1   AR   Ar   96   1.799   1.766   6.708
    1   AR   Ar   97   2.832   3.227  -0.848
    1   AR   Ar   98   2.489   4.624   1.591
    1   AR   Ar   99   3.874   2.798  -1.458
    1   AR   Ar  100   2.291   4.278  -0.632
    1   AR   Ar  101   1.158   3.019   1.641
    1   AR   Ar  102   2.312   3.723   3.509
    1   AR   Ar  103   2.156   3.572   1.355
    1   AR   Ar  104   3.380   3.965  -0.183
    1   AR   Ar  105   1.404   2.964   3.691
    1   AR   Ar  106   2.501   3.223   4.633
    1   AR   Ar  107   2.876   4.069   5.545
    1   AR   Ar  108   3.247   3.049   4.010
    1   AR   Ar  109   1.070   3.833   4.416
    1   AR   Ar  110   1.798   4.549   4.894
    1   AR   Ar  111   3.720   4.920   6.930
    1   AR   Ar  112   1.428   4.046   5.822
    1   AR   Ar  113   2.377   4.283   0.622
    1   AR   Ar  114   2.380   5.478   0.908
    1   AR   Ar  115   3.313   5.043   0.004
    1   AR   Ar  116   3.773   6.977  -0.139
    1   AR   Ar  117   1.343   4.777   3.026
    1   AR   Ar  118   1.345   6.101   2.599
    1   AR   Ar  119   2.161   4.292   2.467
    1   AR   Ar  120   1.613   5.363   1.947
    1   AR   Ar  121   0.050   4.508   3.909
    1   AR   Ar  122   3.028   6.231   4.150
    1   AR   Ar  123   2.393   5.200   4.208
    1   AR   Ar  124   2.094   5.511   2.958
    1   AR   Ar  125   0.576   5.224   4.738
    1   AR   Ar  126   1.057   6.794   6.049
    1   AR   Ar  127   2.277   5.226   7.102
    1   AR   Ar  128   2.131   6.312   6.022
    1   AR   Ar  129   2.609   6.808   1.453
    1   AR   Ar  130   4.171   6.903  -1.302
    1   AR   Ar  131   4.774   6.029   0.315
    1   AR   Ar  132   5.679   2.313  -0.761
    1   AR   Ar  133   3.697   0.128   2.372
    1   AR   Ar  134   4.141   1.378   2.726
    1   AR   Ar  135   4.652   0.386   2.949
    1   AR   Ar  136   4.503   0.808   1.911
    1   AR   Ar  137   3.055   7.022   3.331
    1   AR   Ar  138   4.482   1.310   5.016
    1   AR   Ar  139   5.010   0.347   4.036
    1   AR   Ar  140   4.208   1.185   3.800
    1   AR   Ar  141   3.655   7.060   4.513
    1   AR   Ar  142   4.031   0.479   5.422
    1   AR   Ar  143   5.302   7.027   6.144
    1   AR   Ar  144   5.174   0.478   7.312
    1   AR   Ar  145   2.793   3.117   0.602
    1   AR   Ar  146   3.745   2.660   1.115
    1   AR   Ar  147   5.262   1.942   0.315
    1   AR   Ar  148   5.770   3.574  -1.668
    1   AR   Ar  149   4.538   1.507   0.971
    1   AR   Ar  150   2.857   1.708   2.524
    1   AR   Ar  151   3.343   1.908   3.748
    1   AR   Ar  152   2.781   2.959   2.029
    1   AR   Ar  153   3.251   0.789   3.921
    1   AR   Ar  154   4.019   2.390   4.400
    1   AR   Ar  155   5.563   1.124   5.775
    1   AR   Ar  156   4.230   3.203   3.825
    1   AR   Ar  157   3.773   1.812   5.483
    1   AR   Ar  158   2.980   2.111   6.334
    1   AR   Ar  159   4.584   0.921   6.235
    1   AR   Ar  160   4.404   2.837   5.918
    1   AR   Ar  161   4.607   2.886  -0.336
    1   AR   Ar  162   4.399   4.977   1.029
    1   AR   Ar  163   5.515   2.999   0.214
    1   AR   Ar  164   5.545   4.873   1.218
    1   AR   Ar  165   3.081   3.681   2.695
    1   AR   Ar  166   2.971   4.717   3.008
    1   AR   Ar  167   4.389   2.844   2.717
    1   AR   Ar  168   4.022   3.702   0.665
    1   AR   Ar  169   2.490   2.751   3.213
    1   AR   Ar  170   3.040   4.246   4.144
    1   AR   Ar  171   3.815   3.527   4.805
    1   AR   Ar  172   4.384   4.467   4.229
    1   AR   Ar  173   3.121   2.966   5.374
    1   AR   Ar  174   4.186   4.993   5.895
    1   AR   Ar  175   4.071   3.962   5.757
    1   AR   Ar  176   3.594   4.777   4.966
    1   AR   Ar  177   5.564   5.212  -0.058
    1   AR   Ar  178   3.978   6.863   1.168
    1   AR   Ar  179   3.575   5.464   1.208
    1   AR   Ar  180   4.391   5.007  -0.379
    1   AR   Ar  181   2.999   5.665   2.100
    1   AR   Ar  182   2.413   6.624   2.451
    1   AR   Ar  183   3.472   4.421   2.082
    1   AR   Ar  184   3.998   5.888   2.193
    1   AR   Ar  185   1.545   5.698   3.819
    1   AR   Ar  186   3.408   5.306   3.940
    1   AR   Ar  187   4.579   5.299   3.031
    1   AR   Ar  188   3.351   6.291   2.767
    1   AR   Ar  189   2.286   5.147   5.904
    1   AR   Ar  190   4.323   5.819   6.539
    1   AR   Ar  191   4.985   6.128   5.192
    1   AR   Ar  192   3.876   5.806   4.836
    1   AR   Ar  193   5.968   7.005   0.008
    1   AR   Ar  194   4.925   0.094  -0.486
    1   AR   Ar  195   5.932   0.948   0.586
    1   AR   Ar  196   6.170   1.425  -0.563
    1   AR   Ar  197   5.051   0.369   0.844
    1   AR   Ar  198   5.718   1.218   1.595
    1   AR   Ar  199   5.473   0.396   2.175
    1   AR   Ar  200   6.510   1.740   1.042
    1   AR   Ar  201   5.201   6.536   2.686
    1   AR   Ar  202   5.456   1.390   3.974
    1   AR   Ar  203   0.112   0.062   4.612
    1   AR   Ar  204   5.946   0.142   3.070
    1   AR   Ar  205   5.911   7.039   4.060
    1   AR   Ar  206   5.081   0.344   5.105
    1   AR   Ar  207   0.186   0.291   5.623
    1   AR   Ar  208   6.409   0.930   3.621
    1   AR   Ar  209   6.818   2.860  -1.766
    1   AR   Ar  210   4.681   2.470   1.670
    1   AR   Ar  211   6.384   2.512  -0.006
    1   AR   Ar  212   6.306   3.803  -0.685
    1   AR   Ar  213   3.695   2.276   2.115
    1   AR   Ar  214   4.019   3.306   1.845
    1   AR   Ar  215   5.635   2.214   2.094
    1   AR   Ar  216   6.274   3.150   1.782
    1   AR   Ar  217   5.060   2.502   3.992
    1   AR   Ar  218   5.234   1.981   5.093
    1   AR   Ar  219   5.578   1.191   2.816
    1   AR   Ar  220   6.255   3.376   3.272
    1   AR   Ar  221   6.146   7.076   5.386
    1   AR   Ar  222   5.314   1.899   6.320
    1   AR   Ar  223   6.386   1.216   7.034
    1   AR   Ar  224   5.416   3.105   5.540
    1   AR   Ar  225   5.205   4.215   0.262
    1   AR   Ar  226   4.620   4.498   2.181
    1   AR   Ar  227   6.685   4.270   1.394
    1   AR   Ar  228   6.398   5.225   0.589
    1   AR   Ar  229   6.064   3.680   0.706
    1   AR   Ar  230   4.159   4.357   3.077
    1   AR   Ar  231   6.971   2.576   3.451
    1   AR   Ar  232   5.071   3.983   1.307
    1   AR   Ar  233   5.911   2.756   4.557
    1   AR   Ar  234   6.258   4.514   4.984
    1   AR   Ar  235   6.731   3.467   4.441
    1   AR   Ar  236   5.027   3.804   3.647
    1   AR   Ar  237   4.856   3.379   4.661
    1   AR   Ar  238   4.966   4.225   5.128
    1   AR   Ar  239   6.449   3.686   7.806
    1   AR   Ar  240   6.123   3.835   6.011
    1   AR   Ar  241   6.674   0.560   0.029
    1   AR   Ar  242   4.954   6.144   1.388
    1   AR   Ar  243   5.917   4.601   2.089
    1   AR   Ar  244   6.609   6.315  -0.364
    1   AR   Ar  245   5.111   5.380   2.062
    1   AR   Ar  246   6.104   6.252   2.243
    1   AR   Ar  247   5.340   3.697   2.411
    1   AR   Ar  248   5.977   6.976   1.242
    1   AR   Ar  249   5.568   4.651   3.017
    1   AR   Ar  250   4.741   6.479   4.058
    1   AR   Ar  251   5.133   5.336   4.055
    1   AR   Ar  252   5.753   5.848   3.382
    1   AR   Ar  253   5.716   5.233   5.751
    1   AR   Ar  254   5.360   5.695   6.981
    1   AR   Ar  255   5.484   4.486   6.547
    1   AR   Ar  256   6.131   5.990   4.516
    7.12000  7.12000 12.00000
Argon-slab step 1125
  256
    1   AR   Ar    1   0.902   0.472  -0.895
    1   AR   Ar    2   7.067   0.711   1.101
    1   AR   Ar    3   0.230   7.006   0.557
    1   AR   Ar    4   1.071   0.651   0.169
    1   AR   Ar    5   6.889   6.137   0.974
    1   AR   Ar    6   0.377   0.080   3.110
    1   AR   Ar    7   0.038   6.111   2.093
    1   AR   Ar    8   0.468   7.043   1.701
    1   AR   Ar    9   0.453   0.836   3.746
    1   AR   Ar   10   7.034   1.835   4.505
    1   AR   Ar   11   2.030   6.800   4.353
    1   AR   Ar   12   0.990   1.155   2.859
    1   AR   Ar   13   6.379   1.004   5.194
    1   AR   Ar   14   0.296   1.550   5.834
    1   AR   Ar   15   7.012   5.853   8.695
    1   AR   Ar   16   0.766   0.955   4.875
    1   AR   Ar   17   0.008   1.695   0.030
    1   AR   Ar   18   7.095   3.343   0.115
    1   AR   Ar   19   0.702   1.322   0.844
    1   AR   Ar   20   0.680   3.192  -2.141
    1   AR   Ar   21   6.717   0.165   2.352
    1   AR   Ar   22   6.865   2.164   2.233
    1   AR   Ar   23   0.174   0.987   2.070
    1   AR   Ar   24   7.115   2.865   1.157
    1   AR   Ar   25   0.016   1.532   3.068
    1   AR   Ar   26   6.038   2.085   3.304
    1   AR   Ar   27   1.478   0.808   3.901
    1   AR   Ar   28   0.829   2.597   4.495
    1   AR   Ar   29   6.116   2.248   5.795
    1   AR   Ar   30   6.870   2.910   6.339
    1   AR   Ar   31   0.783   1.278   7.125
    1   AR   Ar   32   1.878   2.576   5.140
    1   AR   Ar   33   0.990   4.015  -1.468
    1   AR   Ar   34   0.874   5.191   1.069
    1   AR   Ar   35   0.442   3.855   1.356
    1   AR   Ar   36   1.993   6.695  -1.732
    1   AR   Ar   37   0.329   3.196   2.199
    1   AR   Ar   38   0.123   5.031   2.183
    1   AR   Ar   39   1.090   3.640   2.828
    1   AR   Ar   40   1.245   4.144   2.000
    1   AR   Ar   41   0.797   2.349   2.875
    1   AR   Ar   42   6.712   5.287   5.467
    1   AR   Ar   43   6.972   2.557   5.272
    1   AR   Ar   44   0.450   3.475   3.677
    1   AR   Ar   45   0.009   3.621   5.559
    1   AR   Ar   46   6.375   5.203   6.761
    1   AR   Ar   47   7.009   4.038   6.834
    1   AR   Ar   48   0.187   6.125   6.886
    1   AR   Ar   49   0.384   4.763  -1.285
    1   AR   Ar   50   6.420   5.457   1.644
    1   AR   Ar   51   1.284   4.863   0.260
    1   AR   Ar   52   0.192   5.487   0.179
    1   AR   Ar   53   6.441   5.394   2.723
    1   AR   Ar   54   6.606   6.446   3.194
    1   AR   Ar   55   0.400   5.590   3.319
    1   AR   Ar   56   1.106   6.168   1.530
    1   AR   Ar   57   7.039   4.092   2.821
    1   AR   Ar   58   0.045   6.046   4.141
    1   AR   Ar   59   1.903   6.047   4.975
    1   AR   Ar   60   0.944   6.577   3.743
    1   AR   Ar   61   6.262   6.231   6.066
    1   AR   Ar   62   0.166   6.312   5.249
    1   AR   Ar   63   1.216   5.038   5.912
    1   AR   Ar   64   1.108   6.768   4.867
    1   AR   Ar   65   2.900   0.496   0.097
    1   AR   Ar   66   1.641   0.610   1.204
    1   AR   Ar   67   3.120   6.360   0.623
    1   AR   Ar   68   3.765   0.984  -0.486
    1   AR   Ar   69   1.467   6.873   0.626
    1   AR   Ar   70   1.384   0.154   2.442
    1   AR   Ar   71   3.244   1.003   1.761
    1   AR   Ar   72   3.997   0.700   0.611
    1   AR   Ar   73   1.909   6.844   3.269
    1   AR   Ar   74   1.906   0.900   4.958
    1   AR   Ar   75   3.099   0.709   5.196
    1   AR   Ar   76   2.652   0.670   2.836
    1   AR   Ar   77   2.299   0.363   5.774
    1   AR   Ar   78   1.289   0.719   5.801
    1   AR   Ar   79   4.013   6.799   6.852
    1   AR   Ar   80   3.033   6.698   5.230
    1   AR   Ar   81   2.048   1.256   0.319
    1   AR   Ar   82   1.311   3.687   0.759
    1   AR   Ar   83   2.665   1.757   1.166
    1   AR   Ar   84   2.033   3.244  -2.086
    1   AR   Ar   85   1.462   2.291   0.791
    1   AR   Ar   86   1.750   2.907   2.491
    1   AR   Ar   87   1.752   1.515   2.074
    1   AR   Ar   88   3.194   3.577   1.385
    1   AR   Ar   89   0.734   2.116   1.622
    1   AR   Ar   90   2.824   1.826   4.963
    1   AR   Ar   91   2.208   2.225   4.199
    1   AR   Ar   92   1.986   1.762   3.205
    1   AR   Ar   93   1.277   1.744   5.571
    1   AR   Ar   94   2.591   1.084   8.632
    1   AR   Ar   95   3.046   7.115   6.394
    1   AR   Ar   96   1.814   1.729   6.703
    1   AR   Ar   97   2.827   3.210  -0.853
    1   AR   Ar   98   2.466   4.586   1.599
    1   AR   Ar   99   3.904   2.789  -1.455
    1   AR   Ar  100   2.273   4.256  -0.640
    1   AR   Ar  101   1.158   3.061   1.606
    1   AR   Ar  102   2.329   3.750   3.491
    1   AR   Ar  103   2.143   3.573   1.333
    1   AR   Ar  104   3.363   3.983  -0.213
    1   AR   Ar  105   1.380   2.973   3.697
    1   AR   Ar  106   2.484   3.240   4.624
    1   AR   Ar  107   2.859   4.056   5.552
    1   AR   Ar  108   3.260   3.034   4.005
    1   AR   Ar  109   1.077   3.823   4.430
    1   AR   Ar  110   1.800   4.573   4.890
    1   AR   Ar  111   3.743   4.914   6.922
    1   AR   Ar  112   1.434   4.069   5.825
    1   AR   Ar  113   2.410   4.285   0.607
    1   AR   Ar  114   2.414   5.455   0.916
    1   AR   Ar  115   3.320   5.028   0.017
    1   AR   Ar  116   3.784   6.975  -0.163
    1   AR   Ar  117   1.333   4.766   3.045
    1   AR   Ar  118   1.348   6.083   2.603
    1   AR   Ar  119   2.177   4.268   2.479
    1   AR   Ar  120   1.636   5.365   1.949
    1   AR   Ar  121   0.030   4.482   3.911
    1   AR   Ar  122   3.050   6.190   4.149
    1   AR   Ar  123   2.393   5.203   4.206
    1   AR   Ar  124   2.119   5.520   2.958
    1   AR   Ar  125   0.561   5.189   4.730
    1   AR   Ar  126   1.032   6.805   6.020
    1   AR   Ar  127   2.273   5.213   7.151
    1   AR   Ar  128   2.160   6.315   6.052
    1   AR   Ar  129   2.620   6.817   1.435
    1   AR   Ar  130   4.200   6.906  -1.345
    1   AR   Ar  131   4.771   6.038   0.315
    1   AR   Ar  132   5.698   2.298  -0.789
    1   AR   Ar  133   3.661   0.128   2.399
    1   AR   Ar  134   4.149   1.386   2.713
    1   AR   Ar  135   4.652   0.387   2.936
    1   AR   Ar  136   4.496   0.797   1.918
    1   AR   Ar  137   3.081   7.022   3.323
    1   AR   Ar  138   4.480   1.321   4.999
    1   AR   Ar  139   5.028   0.348   4.033
    1   AR   Ar  140   4.204   1.168   3.844
    1   AR   Ar  141   3.659   7.026   4.544
    1   AR   Ar  142   4.029   0.469   5.417
    1   AR   Ar  143   5.307   7.007   6.170
    1   AR   Ar  144   5.158   0.502   7.311
    1   AR   Ar  145   2.800   3.160   0.595
    1   AR   Ar  146   3.714   2.660   1.103
    1   AR   Ar  147   5.279   1.950   0.308
    1   AR   Ar  148   5.731   3.558  -1.620
    1   AR   Ar  149   4.545   1.498   0.955
    1   AR   Ar  150   2.869   1.661   2.547
    1   AR   Ar  151   3.381   1.900   3.733
    1   AR   Ar  152   2.783   2.919   2.062
    1   AR   Ar  153   3.255   0.743   3.940
    1   AR   Ar  154   4.025   2.390   4.423
    1   AR   Ar  155   5.567   1.121   5.803
    1   AR   Ar  156   4.235   3.196   3.818
    1   AR   Ar  157   3.750   1.834   5.467
    1   AR   Ar  158   2.979   2.128   6.309
    1   AR   Ar  159   4.573   0.903   6.211
    1   AR   Ar  160   4.398   2.826   5.920
    1   AR   Ar  161   4.610   2.888  -0.331
    1   AR   Ar  162   4.388   4.993   1.036
    1   AR   Ar  163   5.527   2.997   0.193
    1   AR   Ar  164   5.537   4.897   1.209
    1   AR   Ar  165   3.074   3.697   2.701
    1   AR   Ar  166   3.004   4.729   3.004
    1   AR   Ar  167   4.387   2.854   2.719
    1   AR   Ar  168   4.028   3.716   0.634
    1   AR   Ar  169   2.519   2.742   3.181
    1   AR   Ar  170   3.064   4.220   4.174
    1   AR   Ar  171   3.819   3.530   4.837
    1   AR   Ar  172   4.360   4.509   4.209
    1   AR   Ar  173   3.129   2.983   5.361
    1   AR   Ar  174   4.206   4.988   5.899
    1   AR   Ar  175   4.091   3.963   5.771
    1   AR   Ar  176   3.562   4.818   4.960
    1   AR   Ar  177   5.590   5.181  -0.083
    1   AR   Ar  178   3.986   6.885   1.141
    1   AR   Ar  179   3.597   5.494   1.201
    1   AR   Ar  180   4.403   4.968  -0.393
    1   AR   Ar  181   2.973   5.643   2.090
    1   AR   Ar  182   2.414   6.648   2.425
    1   AR   Ar  183   3.480   4.397   2.009
    1   AR   Ar  184   4.012   5.906   2.204
    1   AR   Ar  185   1.550   5.679   3.813
    1   AR   Ar  186   3.396   5.285   3.918
    1   AR   Ar  187   4.562   5.310   3.011
    1   AR   Ar  188   3.347   6.307   2.759
    1   AR   Ar  189   2.304   5.133   5.907
    1   AR   Ar  190   4.268   5.838   6.536
    1   AR   Ar  191   4.972   6.122   5.201
    1   AR   Ar  192   3.899   5.849   4.835
    1   AR   Ar  193   5.971   7.001   0.030
    1   AR   Ar  194   4.964   0.096  -0.484
    1   AR   Ar  195   5.961   0.950   0.597
    1   AR   Ar  196   6.183   1.424  -0.588
    1   AR   Ar  197   5.055   0.396   0.828
    1   AR   Ar  198   5.733   1.202   1.592
    1   AR   Ar  199   5.464   0.389   2.172
    1   AR   Ar  200   6.490   1.752   1.017
    1   AR   Ar  201   5.224   6.528   2.691
    1   AR   Ar  202   5.444   1.428   3.976
    1   AR   Ar  203   0.109   0.060   4.612
    1   AR   Ar  204   5.931   0.146   3.067
    1   AR   Ar  205   5.927   7.031   4.065
    1   AR   Ar  206   5.113   0.341   5.102
    1   AR   Ar  207   0.177   0.322   5.649
    1   AR   Ar  208   6.438   0.964   3.597
    1   AR   Ar  209   6.815   2.866  -1.763
    1   AR   Ar  210   4.665   2.494   1.677
    1   AR   Ar  211   6.408   2.476  -0.024
    1   AR   Ar  212   6.295   3.819  -0.673
    1   AR   Ar  213   3.681   2.276   2.111
    1   AR   Ar  214   4.002   3.307   1.850
    1   AR   Ar  215   5.653   2.207   2.078
    1   AR   Ar  216   6.269   3.167   1.773
    1   AR   Ar  217   5.060   2.544   3.985
    1   AR   Ar  218   5.198   2.027   5.079
    1   AR   Ar  219   5.599   1.160   2.815
    1   AR   Ar  220   6.216   3.399   3.258
    1   AR   Ar  221   6.162   7.071   5.386
    1   AR   Ar  222   5.330   1.889   6.324
    1   AR   Ar  223   6.373   1.180   7.041
    1   AR   Ar  224   5.384   3.119   5.553
    1   AR   Ar  225   5.201   4.211   0.272
    1   AR   Ar  226   4.617   4.487   2.184
    1   AR   Ar  227   6.662   4.296   1.375
    1   AR   Ar  228   6.379   5.231   0.594
    1   AR   Ar  229   6.061   3.689   0.686
    1   AR   Ar  230   4.149   4.372   3.058
    1   AR   Ar  231   6.972   2.570   3.430
    1   AR   Ar  232   5.072   3.995   1.294
    1   AR   Ar  233   5.917   2.754   4.563
    1   AR   Ar  234   6.252   4.499   4.980
    1   AR   Ar  235   6.732   3.453   4.448
    1   AR   Ar  236   5.033   3.798   3.641
    1   AR   Ar  237   4.849   3.393   4.627
    1   AR   Ar  238   4.975   4.215   5.166
    1   AR   Ar  239   6.451   3.694   7.789
    1   AR   Ar  240   6.103   3.850   6.017
    1   AR   Ar  241   6.719   0.544   0.025
    1   AR   Ar  242   4.945   6.148   1.374
    1   AR   Ar  243   5.926   4.600   2.070
    1   AR   Ar  244   6.621   6.308  -0.367
    1   AR   Ar  245   5.109   5.405   2.074
    1   AR   Ar  246   6.094   6.257   2.238
    1   AR   Ar  247   5.363   3.711   2.411
    1   AR   Ar  248   5.969   6.988   1.253
    1   AR   Ar  249   5.586   4.664   3.000
    1   AR   Ar  250   4.793   6.494   4.054
    1   AR   Ar  251   5.107   5.347   4.079
    1   AR   Ar  252   5.739   5.808   3.392
    1   AR   Ar  253   5.726   5.254   5.764
    1   AR   Ar  254   5.339   5.720   6.984
    1   AR   Ar  255   5.488   4.476   6.550
    1   AR   Ar  256   6.117   5.976   4.482
    7.12000  7.12000 12.00000
Argon-slab step 1130
  256
    1   AR   Ar    1   0.908   0.483  -0.893
    1   AR   Ar    2   7.052   0.725   1.113
    1   AR   Ar    3   0.209   6.992   0.582
    1   AR   Ar    4   1.083   0.647   0.173
    1   AR   Ar    5   6.917   6.146   0.978
    1   AR   Ar    6   0.389   0.090   3.106
    1   AR   Ar    7   0.050   6.092   2.093
    1   AR   Ar    8   0.441   7.058   1.700
    1   AR   Ar    9   0.434   0.822   3.761
    1   AR   Ar   10   7.038   1.836   4.508
    1   AR   Ar   11   2.045   6.805   4.358
    1   AR   Ar   12   0.987   1.169   2.827
    1   AR   Ar   13   6.405   1.012   5.237
    1   AR   Ar   14   0.307   1.540   5.840
    1   AR   Ar   15   7.003   5.849   8.669
    1   AR   Ar   16   0.761   0.962   4.851
    1   AR   Ar   17   0.017   1.664   0.027
    1   AR   Ar   18   7.078   3.349   0.141
    1   AR   Ar   19   0.695   1.296   0.860
    1   AR   Ar   20   0.718   3.197  -2.154
    1   AR   Ar   21   6.697   0.136   2.362
    1   AR   Ar   22   6.827   2.190   2.209
    1   AR   Ar   23   0.166   0.986   2.043
    1   AR   Ar   24   7.112   2.862   1.174
    1   AR   Ar   25   0.018   1.525   3.060
    1   AR   Ar   26   6.034   2.090   3.259
    1   AR   Ar   27   1.499   0.832   3.901
    1   AR   Ar   28   0.856   2.582   4.469
    1   AR   Ar   29   6.093   2.217   5.787
    1   AR   Ar   30   6.847   2.921   6.333
    1   AR   Ar   31   0.811   1.287   7.124
    1   AR   Ar   32   1.903   2.583   5.129
    1   AR   Ar   33   0.986   4.019  -1.460
    1   AR   Ar   34   0.860   5.172   1.082
    1   AR   Ar   35   0.416   3.813   1.342
    1   AR   Ar   36   2.002   6.702  -1.736
    1   AR   Ar   37   0.351   3.173   2.195
    1   AR   Ar   38   0.089   5.023   2.204
    1   AR   Ar   39   1.074   3.659   2.827
    1   AR   Ar   40   1.250   4.129   2.003
    1   AR   Ar   41   0.798   2.337   2.884
    1   AR   Ar   42   6.725   5.306   5.460
    1   AR   Ar   43   6.970   2.550   5.250
    1   AR   Ar   44   0.457   3.464   3.657
    1   AR   Ar   45   0.047   3.611   5.542
    1   AR   Ar   46   6.348   5.185   6.744
    1   AR   Ar   47   7.030   4.064   6.836
    1   AR   Ar   48   0.170   6.142   6.875
    1   AR   Ar   49   0.356   4.761  -1.309
    1   AR   Ar   50   6.425   5.468   1.637
    1   AR   Ar   51   1.270   4.842   0.282
    1   AR   Ar   52   0.172   5.472   0.169
    1   AR   Ar   53   6.428   5.408   2.706
    1   AR   Ar   54   6.643   6.459   3.186
    1   AR   Ar   55   0.388   5.576   3.309
    1   AR   Ar   56   1.103   6.186   1.507
    1   AR   Ar   57   7.058   4.072   2.843
    1   AR   Ar   58   0.029   6.045   4.171
    1   AR   Ar   59   1.928   6.026   4.978
    1   AR   Ar   60   0.973   6.619   3.762
    1   AR   Ar   61   6.261   6.253   6.050
    1   AR   Ar   62   0.149   6.293   5.256
    1   AR   Ar   63   1.227   5.070   5.919
    1   AR   Ar   64   1.140   6.745   4.868
    1   AR   Ar   65   2.920   0.499   0.072
    1   AR   Ar   66   1.607   0.617   1.207
    1   AR   Ar   67   3.084   6.380   0.621
    1   AR   Ar   68   3.746   0.991  -0.499
    1   AR   Ar   69   1.458   6.902   0.624
    1   AR   Ar   70   1.351   0.161   2.417
    1   AR   Ar   71   3.236   1.027   1.751
    1   AR   Ar   72   3.990   0.693   0.624
    1   AR   Ar   73   1.924   6.846   3.269
    1   AR   Ar   74   1.871   0.879   4.954
    1   AR   Ar   75   3.091   0.675   5.200
    1   AR   Ar   76   2.642   0.689   2.798
    1   AR   Ar   77   2.309   0.371   5.775
    1   AR   Ar   78   1.314   0.693   5.803
    1   AR   Ar   79   4.031   6.828   6.835
    1   AR   Ar   80   3.030   6.682   5.254
    1   AR   Ar   81   2.041   1.245   0.315
    1   AR   Ar   82   1.268   3.728   0.717
    1   AR   Ar   83   2.637   1.735   1.136
    1   AR   Ar   84   2.027   3.251  -2.136
    1   AR   Ar   85   1.448   2.290   0.761
    1   AR   Ar   86   1.762   2.944   2.471
    1   AR   Ar   87   1.784   1.520   2.087
    1   AR   Ar   88   3.172   3.600   1.420
    1   AR   Ar   89   0.734   2.100   1.620
    1   AR   Ar   90   2.819   1.819   4.989
    1   AR   Ar   91   2.202   2.238   4.225
    1   AR   Ar   92   1.980   1.750   3.206
    1   AR   Ar   93   1.294   1.748   5.551
    1   AR   Ar   94   2.607   1.071   8.615
    1   AR   Ar   95   3.036   7.098   6.395
    1   AR   Ar   96   1.828   1.690   6.696
    1   AR   Ar   97   2.823   3.194  -0.858
    1   AR   Ar   98   2.447   4.554   1.600
    1   AR   Ar   99   3.921   2.781  -1.454
    1   AR   Ar  100   2.255   4.232  -0.645
    1   AR   Ar  101   1.164   3.106   1.568
    1   AR   Ar  102   2.345   3.778   3.475
    1   AR   Ar  103   2.130   3.570   1.320
    1   AR   Ar  104   3.344   3.999  -0.243
    1   AR   Ar  105   1.363   2.981   3.698
    1   AR   Ar  106   2.519   3.250   4.660
    1   AR   Ar  107   2.843   4.043   5.556
    1   AR   Ar  108   3.306   3.051   4.010
    1   AR   Ar  109   1.087   3.814   4.446
    1   AR   Ar  110   1.803   4.596   4.888
    1   AR   Ar  111   3.765   4.908   6.913
    1   AR   Ar  112   1.482   4.074   5.845
    1   AR   Ar  113   2.444   4.287   0.584
    1   AR   Ar  114   2.449   5.433   0.926
    1   AR   Ar  115   3.327   5.014   0.032
    1   AR   Ar  116   3.797   6.973  -0.186
    1   AR   Ar  117   1.322   4.755   3.064
    1   AR   Ar  118   1.345   6.075   2.611
    1   AR   Ar  119   2.190   4.239   2.502
    1   AR   Ar  120   1.664   5.356   1.948
    1   AR   Ar  121   0.012   4.456   3.914
    1   AR   Ar  122   3.066   6.158   4.151
    1   AR   Ar  123   2.393   5.205   4.205
    1   AR   Ar  124   2.154   5.526   2.956
    1   AR   Ar  125   0.545   5.154   4.722
    1   AR   Ar  126   1.040   6.826   6.008
    1   AR   Ar  127   2.268   5.201   7.199
    1   AR   Ar  128   2.190   6.320   6.082
    1   AR   Ar  129   2.632   6.828   1.413
    1   AR   Ar  130   4.228   6.909  -1.385
    1   AR   Ar  131   4.744   6.013   0.281
    1   AR   Ar  132   5.721   2.291  -0.828
    1   AR   Ar  133   3.626   0.130   2.424
    1   AR   Ar  134   4.155   1.397   2.702
    1   AR   Ar  135   4.653   0.388   2.926
    1   AR   Ar  136   4.488   0.784   1.920
    1   AR   Ar  137   3.101   7.030   3.332
    1   AR   Ar  138   4.480   1.326   4.975
    1   AR   Ar  139   5.040   0.363   4.025
    1   AR   Ar  140   4.205   1.151   3.888
    1   AR   Ar  141   3.671   6.996   4.566
    1   AR   Ar  142   4.035   0.451   5.414
    1   AR   Ar  143   5.311   6.987   6.196
    1   AR   Ar  144   5.143   0.526   7.307
    1   AR   Ar  145   2.803   3.197   0.576
    1   AR   Ar  146   3.715   2.663   1.093
    1   AR   Ar  147   5.298   1.960   0.290
    1   AR   Ar  148   5.717   3.547  -1.611
    1   AR   Ar  149   4.554   1.493   0.944
    1   AR   Ar  150   2.881   1.619   2.570
    1   AR   Ar  151   3.416   1.892   3.715
    1   AR   Ar  152   2.782   2.872   2.096
    1   AR   Ar  153   3.256   0.699   3.961
    1   AR   Ar  154   4.033   2.385   4.453
    1   AR   Ar  155   5.570   1.104   5.822
    1   AR   Ar  156   4.239   3.191   3.803
    1   AR   Ar  157   3.724   1.861   5.455
    1   AR   Ar  158   2.978   2.145   6.282
    1   AR   Ar  159   4.564   0.885   6.188
    1   AR   Ar  160   4.390   2.814   5.919
    1   AR   Ar  161   4.608   2.899  -0.313
    1   AR   Ar  162   4.397   4.997   1.040
    1   AR   Ar  163   5.534   2.993   0.168
    1   AR   Ar  164   5.514   4.920   1.186
    1   AR   Ar  165   3.069   3.712   2.710
    1   AR   Ar  166   3.038   4.744   3.002
    1   AR   Ar  167   4.387   2.864   2.725
    1   AR   Ar  168   4.035   3.729   0.604
    1   AR   Ar  169   2.552   2.730   3.152
    1   AR   Ar  170   3.089   4.193   4.203
    1   AR   Ar  171   3.824   3.536   4.863
    1   AR   Ar  172   4.334   4.549   4.189
    1   AR   Ar  173   3.140   2.992   5.358
    1   AR   Ar  174   4.227   4.985   5.900
    1   AR   Ar  175   4.110   3.964   5.781
    1   AR   Ar  176   3.530   4.857   4.955
    1   AR   Ar  177   5.612   5.151  -0.109
    1   AR   Ar  178   3.994   6.905   1.115
    1   AR   Ar  179   3.600   5.536   1.196
    1   AR   Ar  180   4.416   4.929  -0.405
    1   AR   Ar  181   2.997   5.627   2.092
    1   AR   Ar  182   2.414   6.670   2.397
    1   AR   Ar  183   3.491   4.377   1.937
    1   AR   Ar  184   4.045   5.916   2.202
    1   AR   Ar  185   1.549   5.661   3.808
    1   AR   Ar  186   3.392   5.255   3.893
    1   AR   Ar  187   4.549   5.327   2.993
    1   AR   Ar  188   3.339   6.315   2.758
    1   AR   Ar  189   2.322   5.118   5.909
    1   AR   Ar  190   4.216   5.855   6.533
    1   AR   Ar  191   4.987   6.133   5.215
    1   AR   Ar  192   3.923   5.894   4.833
    1   AR   Ar  193   5.963   6.996   0.056
    1   AR   Ar  194   4.988   0.104  -0.490
    1   AR   Ar  195   5.986   0.951   0.606
    1   AR   Ar  196   6.200   1.419  -0.608
    1   AR   Ar  197   5.059   0.422   0.813
    1   AR   Ar  198   5.748   1.189   1.591
    1   AR   Ar  199   5.454   0.372   2.162
    1   AR   Ar  200   6.473   1.768   0.993
    1   AR   Ar  201   5.240   6.520   2.698
    1   AR   Ar  202   5.420   1.434   3.962
    1   AR   Ar  203   0.107   0.058   4.605
    1   AR   Ar  204   5.916   0.151   3.064
    1   AR   Ar  205   5.942   7.029   4.049
    1   AR   Ar  206   5.146   0.338   5.101
    1   AR   Ar  207   0.169   0.353   5.676
    1   AR   Ar  208   6.464   0.996   3.575
    1   AR   Ar  209   6.811   2.872  -1.759
    1   AR   Ar  210   4.652   2.516   1.682
    1   AR   Ar  211   6.435   2.439  -0.040
    1   AR   Ar  212   6.285   3.834  -0.659
    1   AR   Ar  213   3.638   2.292   2.148
    1   AR   Ar  214   3.997   3.313   1.866
    1   AR   Ar  215   5.674   2.200   2.063
    1   AR   Ar  216   6.273   3.189   1.746
    1   AR   Ar  217   5.059   2.582   3.976
    1   AR   Ar  218   5.168   2.078   5.067
    1   AR   Ar  219   5.620   1.136   2.818
    1   AR   Ar  220   6.178   3.423   3.245
    1   AR   Ar  221   6.180   7.067   5.383
    1   AR   Ar  222   5.336   1.892   6.341
    1   AR   Ar  223   6.359   1.143   7.048
    1   AR   Ar  224   5.354   3.133   5.565
    1   AR   Ar  225   5.196   4.209   0.279
    1   AR   Ar  226   4.621   4.464   2.182
    1   AR   Ar  227   6.633   4.327   1.356
    1   AR   Ar  228   6.360   5.235   0.602
    1   AR   Ar  229   6.063   3.703   0.672
    1   AR   Ar  230   4.131   4.380   3.048
    1   AR   Ar  231   6.975   2.564   3.410
    1   AR   Ar  232   5.069   3.999   1.285
    1   AR   Ar  233   5.924   2.751   4.571
    1   AR   Ar  234   6.244   4.479   4.975
    1   AR   Ar  235   6.726   3.434   4.444
    1   AR   Ar  236   5.045   3.797   3.630
    1   AR   Ar  237   4.844   3.398   4.592
    1   AR   Ar  238   4.987   4.215   5.209
    1   AR   Ar  239   6.452   3.712   7.772
    1   AR   Ar  240   6.085   3.861   6.021
    1   AR   Ar  241   6.774   0.535   0.016
    1   AR   Ar  242   4.944   6.158   1.362
    1   AR   Ar  243   5.941   4.596   2.053
    1   AR   Ar  244   6.636   6.298  -0.370
    1   AR   Ar  245   5.111   5.430   2.090
    1   AR   Ar  246   6.086   6.267   2.230
    1   AR   Ar  247   5.386   3.723   2.412
    1   AR   Ar  248   5.962   7.001   1.265
    1   AR   Ar  249   5.599   4.679   2.993
    1   AR   Ar  250   4.844   6.500   4.051
    1   AR   Ar  251   5.078   5.356   4.105
    1   AR   Ar  252   5.724   5.771   3.400
    1   AR   Ar  253   5.731   5.274   5.778
    1   AR   Ar  254   5.318   5.745   6.984
    1   AR   Ar  255   5.489   4.470   6.556
    1   AR   Ar  256   6.100   5.962   4.448
    7.12000  7.12000 12.00000
Argon-slab step 1135
  256
    1   AR   Ar    1   0.914   0.493  -0.892
    1   AR   Ar    2   7.022   0.733   1.119
    1   AR   Ar    3   0.194   6.978   0.605
    1   AR   Ar    4   1.095   0.642   0.172
    1   AR   Ar    5   6.943   6.151   0.984
    1   AR   Ar    6   0.400   0.093   3.092
    1   AR   Ar    7   0.064   6.077   2.096
    1   AR   Ar    8   0.416   7.074   1.698
    1   AR   Ar    9   0.414   0.816   3.786
    1   AR   Ar   10   7.044   1.832   4.507
    1   AR   Ar   11   2.078   6.821   4.365
    1   AR   Ar   12   0.987   1.182   2.795
    1   AR   Ar   13   6.437   1.020   5.276
    1   AR   Ar   14   0.314   1.528   5.844
    1   AR   Ar   15   6.994   5.846   8.644
    1   AR   Ar   16   0.764   0.991   4.836
    1   AR   Ar   17   0.027   1.628   0.026
    1   AR   Ar   18   7.059   3.355   0.168
    1   AR   Ar   19   0.684   1.284   0.893
    1   AR   Ar   20   0.757   3.202  -2.167
    1   AR   Ar   21   6.677   0.106   2.370
    1   AR   Ar   22   6.790   2.217   2.184
    1   AR   Ar   23   0.161   0.986   2.020
    1   AR   Ar   24   0.004   2.824   1.200
    1   AR   Ar   25   0.022   1.525   3.045
    1   AR   Ar   26   6.028   2.093   3.212
    1   AR   Ar   27   1.522   0.855   3.900
    1   AR   Ar   28   0.878   2.564   4.449
    1   AR   Ar   29   6.076   2.189   5.772
    1   AR   Ar   30   6.822   2.932   6.327
    1   AR   Ar   31   0.839   1.297   7.122
    1   AR   Ar   32   1.923   2.588   5.125
    1   AR   Ar   33   0.990   4.014  -1.454
    1   AR   Ar   34   0.837   5.160   1.112
    1   AR   Ar   35   0.395   3.766   1.335
    1   AR   Ar   36   2.011   6.709  -1.739
    1   AR   Ar   37   0.367   3.148   2.196
    1   AR   Ar   38   0.064   5.009   2.221
    1   AR   Ar   39   1.056   3.674   2.840
    1   AR   Ar   40   1.262   4.126   1.985
    1   AR   Ar   41   0.800   2.325   2.892
    1   AR   Ar   42   6.743   5.328   5.452
    1   AR   Ar   43   6.959   2.541   5.227
    1   AR   Ar   44   0.448   3.492   3.620
    1   AR   Ar   45   0.084   3.602   5.524
    1   AR   Ar   46   6.321   5.167   6.725
    1   AR   Ar   47   7.049   4.089   6.837
    1   AR   Ar   48   0.151   6.158   6.862
    1   AR   Ar   49   0.321   4.767  -1.331
    1   AR   Ar   50   6.427   5.477   1.627
    1   AR   Ar   51   1.265   4.813   0.288
    1   AR   Ar   52   0.156   5.459   0.158
    1   AR   Ar   53   6.412   5.420   2.696
    1   AR   Ar   54   6.681   6.470   3.179
    1   AR   Ar   55   0.386   5.564   3.301
    1   AR   Ar   56   1.098   6.206   1.483
    1   AR   Ar   57   7.076   4.052   2.865
    1   AR   Ar   58   0.014   6.047   4.204
    1   AR   Ar   59   1.953   5.995   4.986
    1   AR   Ar   60   1.001   6.659   3.784
    1   AR   Ar   61   6.261   6.271   6.035
    1   AR   Ar   62   0.168   6.289   5.249
    1   AR   Ar   63   1.237   5.108   5.925
    1   AR   Ar   64   1.166   6.724   4.871
    1   AR   Ar   65   2.953   0.494   0.089
    1   AR   Ar   66   1.576   0.613   1.212
    1   AR   Ar   67   3.052   6.397   0.614
    1   AR   Ar   68   3.728   0.997  -0.512
    1   AR   Ar   69   1.448   6.924   0.622
    1   AR   Ar   70   1.318   0.168   2.392
    1   AR   Ar   71   3.230   1.049   1.740
    1   AR   Ar   72   3.979   0.686   0.633
    1   AR   Ar   73   1.936   6.847   3.275
    1   AR   Ar   74   1.836   0.869   4.944
    1   AR   Ar   75   3.078   0.648   5.197
    1   AR   Ar   76   2.626   0.698   2.761
    1   AR   Ar   77   2.315   0.375   5.779
    1   AR   Ar   78   1.333   0.670   5.809
    1   AR   Ar   79   4.050   6.863   6.819
    1   AR   Ar   80   3.019   6.663   5.285
    1   AR   Ar   81   2.033   1.234   0.312
    1   AR   Ar   82   1.225   3.771   0.670
    1   AR   Ar   83   2.607   1.715   1.108
    1   AR   Ar   84   2.021   3.259  -2.186
    1   AR   Ar   85   1.434   2.289   0.732
    1   AR   Ar   86   1.773   2.981   2.450
    1   AR   Ar   87   1.816   1.524   2.100
    1   AR   Ar   88   3.141   3.623   1.448
    1   AR   Ar   89   0.741   2.089   1.634
    1   AR   Ar   90   2.810   1.812   5.015
    1   AR   Ar   91   2.198   2.250   4.241
    1   AR   Ar   92   1.973   1.737   3.207
    1   AR   Ar   93   1.315   1.753   5.529
    1   AR   Ar   94   2.623   1.058   8.598
    1   AR   Ar   95   3.030   7.078   6.396
    1   AR   Ar   96   1.842   1.652   6.687
    1   AR   Ar   97   2.819   3.179  -0.862
    1   AR   Ar   98   2.432   4.528   1.596
    1   AR   Ar   99   3.917   2.776  -1.458
    1   AR   Ar  100   2.239   4.208  -0.649
    1   AR   Ar  101   1.175   3.146   1.530
    1   AR   Ar  102   2.357   3.805   3.462
    1   AR   Ar  103   2.113   3.564   1.313
    1   AR   Ar  104   3.316   3.990  -0.271
    1   AR   Ar  105   1.356   2.989   3.691
    1   AR   Ar  106   2.545   3.271   4.683
    1   AR   Ar  107   2.827   4.032   5.558
    1   AR   Ar  108   3.336   3.065   4.014
    1   AR   Ar  109   1.097   3.805   4.464
    1   AR   Ar  110   1.805   4.620   4.888
    1   AR   Ar  111   3.788   4.901   6.904
    1   AR   Ar  112   1.532   4.074   5.864
    1   AR   Ar  113   2.479   4.290   0.557
    1   AR   Ar  114   2.485   5.411   0.936
    1   AR   Ar  115   3.334   5.002   0.051
    1   AR   Ar  116   3.812   6.972  -0.208
    1   AR   Ar  117   1.311   4.744   3.082
    1   AR   Ar  118   1.335   6.074   2.624
    1   AR   Ar  119   2.196   4.208   2.534
    1   AR   Ar  120   1.695   5.341   1.943
    1   AR   Ar  121   7.113   4.430   3.918
    1   AR   Ar  122   3.077   6.136   4.154
    1   AR   Ar  123   2.395   5.206   4.206
    1   AR   Ar  124   2.196   5.529   2.953
    1   AR   Ar  125   0.530   5.120   4.713
    1   AR   Ar  126   1.048   6.843   5.996
    1   AR   Ar  127   2.264   5.188   7.245
    1   AR   Ar  128   2.219   6.325   6.109
    1   AR   Ar  129   2.641   6.844   1.391
    1   AR   Ar  130   4.257   6.912  -1.424
    1   AR   Ar  131   4.715   5.989   0.246
    1   AR   Ar  132   5.739   2.290  -0.869
    1   AR   Ar  133   3.594   0.139   2.444
    1   AR   Ar  134   4.157   1.409   2.695
    1   AR   Ar  135   4.656   0.389   2.917
    1   AR   Ar  136   4.479   0.770   1.916
    1   AR   Ar  137   3.114   7.046   3.356
    1   AR   Ar  138   4.481   1.325   4.948
    1   AR   Ar  139   5.047   0.391   4.015
    1   AR   Ar  140   4.196   1.139   3.914
    1   AR   Ar  141   3.691   6.969   4.580
    1   AR   Ar  142   4.048   0.428   5.410
    1   AR   Ar  143   5.316   6.969   6.220
    1   AR   Ar  144   5.127   0.550   7.301
    1   AR   Ar  145   2.805   3.231   0.548
    1   AR   Ar  146   3.729   2.669   1.089
    1   AR   Ar  147   5.319   1.967   0.271
    1   AR   Ar  148   5.718   3.539  -1.628
    1   AR   Ar  149   4.567   1.491   0.937
    1   AR   Ar  150   2.895   1.591   2.593
    1   AR   Ar  151   3.448   1.885   3.696
    1   AR   Ar  152   2.777   2.827   2.128
    1   AR   Ar  153   3.254   0.660   3.986
    1   AR   Ar  154   4.044   2.378   4.489
    1   AR   Ar  155   5.573   1.074   5.836
    1   AR   Ar  156   4.247   3.191   3.777
    1   AR   Ar  157   3.702   1.891   5.448
    1   AR   Ar  158   2.976   2.161   6.252
    1   AR   Ar  159   4.558   0.868   6.168
    1   AR   Ar  160   4.380   2.802   5.916
    1   AR   Ar  161   4.604   2.911  -0.295
    1   AR   Ar  162   4.419   4.991   1.041
    1   AR   Ar  163   5.541   2.989   0.142
    1   AR   Ar  164   5.491   4.950   1.157
    1   AR   Ar  165   3.071   3.722   2.717
    1   AR   Ar  166   3.072   4.760   2.999
    1   AR   Ar  167   4.389   2.873   2.735
    1   AR   Ar  168   4.042   3.743   0.576
    1   AR   Ar  169   2.587   2.717   3.127
    1   AR   Ar  170   3.114   4.165   4.233
    1   AR   Ar  171   3.831   3.547   4.882
    1   AR   Ar  172   4.306   4.587   4.170
    1   AR   Ar  173   3.156   2.990   5.369
    1   AR   Ar  174   4.250   4.986   5.898
    1   AR   Ar  175   4.127   3.966   5.786
    1   AR   Ar  176   3.498   4.895   4.952
    1   AR   Ar  177   5.629   5.121  -0.138
    1   AR   Ar  178   3.983   6.925   1.111
    1   AR   Ar  179   3.592   5.586   1.193
    1   AR   Ar  180   4.430   4.889  -0.414
    1   AR   Ar  181   3.015   5.606   2.090
    1   AR   Ar  182   2.414   6.691   2.369
    1   AR   Ar  183   3.507   4.369   1.872
    1   AR   Ar  184   4.090   5.921   2.190
    1   AR   Ar  185   1.543   5.646   3.804
    1   AR   Ar  186   3.396   5.215   3.865
    1   AR   Ar  187   4.536   5.338   2.992
    1   AR   Ar  188   3.331   6.310   2.757
    1   AR   Ar  189   2.333   5.103   5.919
    1   AR   Ar  190   4.165   5.870   6.529
    1   AR   Ar  191   5.003   6.144   5.228
    1   AR   Ar  192   3.946   5.940   4.831
    1   AR   Ar  193   5.949   6.991   0.087
    1   AR   Ar  194   4.989   0.121  -0.509
    1   AR   Ar  195   6.009   0.948   0.609
    1   AR   Ar  196   6.220   1.407  -0.625
    1   AR   Ar  197   5.061   0.447   0.799
    1   AR   Ar  198   5.762   1.178   1.592
    1   AR   Ar  199   5.442   0.345   2.147
    1   AR   Ar  200   6.460   1.789   0.970
    1   AR   Ar  201   5.246   6.513   2.709
    1   AR   Ar  202   5.387   1.419   3.938
    1   AR   Ar  203   0.104   0.055   4.595
    1   AR   Ar  204   5.900   0.155   3.061
    1   AR   Ar  205   5.956   7.030   4.023
    1   AR   Ar  206   5.178   0.335   5.103
    1   AR   Ar  207   0.161   0.386   5.702
    1   AR   Ar  208   6.483   1.023   3.559
    1   AR   Ar  209   6.806   2.879  -1.753
    1   AR   Ar  210   4.641   2.535   1.687
    1   AR   Ar  211   6.461   2.403  -0.054
    1   AR   Ar  212   6.275   3.849  -0.642
    1   AR   Ar  213   3.599   2.305   2.185
    1   AR   Ar  214   4.000   3.324   1.887
    1   AR   Ar  215   5.695   2.192   2.048
    1   AR   Ar  216   6.277   3.212   1.720
    1   AR   Ar  217   5.074   2.598   3.971
    1   AR   Ar  218   5.141   2.134   5.055
    1   AR   Ar  219   5.609   1.132   2.808
    1   AR   Ar  220   6.139   3.446   3.232
    1   AR   Ar  221   6.197   7.065   5.379
    1   AR   Ar  222   5.329   1.905   6.371
    1   AR   Ar  223   6.344   1.107   7.053
    1   AR   Ar  224   5.325   3.146   5.575
    1   AR   Ar  225   5.188   4.207   0.282
    1   AR   Ar  226   4.629   4.442   2.172
    1   AR   Ar  227   6.605   4.360   1.334
    1   AR   Ar  228   6.344   5.238   0.611
    1   AR   Ar  229   6.071   3.721   0.661
    1   AR   Ar  230   4.106   4.382   3.046
    1   AR   Ar  231   6.980   2.561   3.390
    1   AR   Ar  232   5.063   3.998   1.281
    1   AR   Ar  233   5.932   2.746   4.582
    1   AR   Ar  234   6.235   4.457   4.969
    1   AR   Ar  235   6.709   3.411   4.423
    1   AR   Ar  236   5.062   3.801   3.615
    1   AR   Ar  237   4.844   3.401   4.564
    1   AR   Ar  238   5.000   4.220   5.254
    1   AR   Ar  239   6.455   3.730   7.755
    1   AR   Ar  240   6.074   3.868   6.019
    1   AR   Ar  241   6.832   0.532   0.004
    1   AR   Ar  242   4.981   6.178   1.361
    1   AR   Ar  243   5.956   4.589   2.038
    1   AR   Ar  244   6.654   6.285  -0.371
    1   AR   Ar  245   5.117   5.455   2.108
    1   AR   Ar  246   6.081   6.282   2.217
    1   AR   Ar  247   5.409   3.734   2.413
    1   AR   Ar  248   5.956   7.014   1.278
    1   AR   Ar  249   5.607   4.695   2.994
    1   AR   Ar  250   4.894   6.496   4.048
    1   AR   Ar  251   5.100   5.374   4.123
    1   AR   Ar  252   5.710   5.738   3.407
    1   AR   Ar  253   5.731   5.293   5.793
    1   AR   Ar  254   5.298   5.770   6.982
    1   AR   Ar  255   5.485   4.471   6.564
    1   AR   Ar  256   6.110   5.976   4.460
    7.12000  7.12000 12.00000
Argon-slab step 1140
  256
    1   AR   Ar    1   0.919   0.504  -0.890
    1   AR   Ar    2   6.974   0.734   1.114
    1   AR   Ar    3   0.189   6.969   0.625
    1   AR   Ar    4   1.104   0.641   0.169
    1   AR   Ar    5   6.965   6.147   0.994
    1   AR   Ar    6   0.404   0.100   3.080
    1   AR   Ar    7   0.079   6.065   2.101
    1   AR   Ar    8   0.392   7.088   1.697
    1   AR   Ar    9   0.395   0.816   3.817
    1   AR   Ar   10   7.050   1.823   4.500
    1   AR   Ar   11   2.109   6.840   4.369
    1   AR   Ar   12   0.990   1.193   2.764
    1   AR   Ar   13   6.475   1.030   5.312
    1   AR   Ar   14   0.319   1.514   5.848
    1   AR   Ar   15   6.985   5.842   8.618
    1   AR   Ar   16   0.767   1.025   4.823
    1   AR   Ar   17   0.039   1.588   0.026
    1   AR   Ar   18   7.040   3.361   0.196
    1   AR   Ar   19   0.682   1.280   0.925
    1   AR   Ar   20   0.796   3.207  -2.180
    1   AR   Ar   21   6.658   0.076   2.373
    1   AR   Ar   22   6.756   2.244   2.160
    1   AR   Ar   23   0.161   0.993   2.012
    1   AR   Ar   24   0.015   2.778   1.223
    1   AR   Ar   25   0.033   1.534   3.022
    1   AR   Ar   26   6.021   2.096   3.166
    1   AR   Ar   27   1.544   0.878   3.897
    1   AR   Ar   28   0.894   2.542   4.437
    1   AR   Ar   29   6.065   2.162   5.750
    1   AR   Ar   30   6.796   2.944   6.320
    1   AR   Ar   31   0.868   1.306   7.118
    1   AR   Ar   32   1.938   2.594   5.135
    1   AR   Ar   33   1.000   4.003  -1.448
    1   AR   Ar   34   0.808   5.151   1.154
    1   AR   Ar   35   0.377   3.742   1.331
    1   AR   Ar   36   2.020   6.716  -1.743
    1   AR   Ar   37   0.379   3.120   2.202
    1   AR   Ar   38   0.049   4.986   2.235
    1   AR   Ar   39   1.041   3.686   2.858
    1   AR   Ar   40   1.277   4.130   1.956
    1   AR   Ar   41   0.804   2.314   2.898
    1   AR   Ar   42   6.763   5.352   5.443
    1   AR   Ar   43   6.948   2.538   5.208
    1   AR   Ar   44   0.431   3.516   3.591
    1   AR   Ar   45   0.121   3.594   5.504
    1   AR   Ar   46   6.296   5.150   6.705
    1   AR   Ar   47   7.066   4.115   6.836
    1   AR   Ar   48   0.132   6.174   6.847
    1   AR   Ar   49   0.280   4.779  -1.352
    1   AR   Ar   50   6.426   5.482   1.616
    1   AR   Ar   51   1.265   4.781   0.285
    1   AR   Ar   52   0.143   5.445   0.147
    1   AR   Ar   53   6.392   5.433   2.692
    1   AR   Ar   54   6.719   6.479   3.172
    1   AR   Ar   55   0.397   5.554   3.304
    1   AR   Ar   56   1.093   6.226   1.459
    1   AR   Ar   57   7.093   4.033   2.882
    1   AR   Ar   58   0.001   6.051   4.235
    1   AR   Ar   59   1.980   5.959   4.998
    1   AR   Ar   60   1.029   6.697   3.806
    1   AR   Ar   61   6.261   6.285   6.023
    1   AR   Ar   62   0.188   6.285   5.244
    1   AR   Ar   63   1.245   5.147   5.929
    1   AR   Ar   64   1.186   6.706   4.877
    1   AR   Ar   65   2.989   0.486   0.118
    1   AR   Ar   66   1.551   0.591   1.221
    1   AR   Ar   67   3.026   6.408   0.598
    1   AR   Ar   68   3.736   1.006  -0.531
    1   AR   Ar   69   1.439   6.933   0.620
    1   AR   Ar   70   1.309   0.170   2.394
    1   AR   Ar   71   3.230   1.029   1.728
    1   AR   Ar   72   3.965   0.683   0.637
    1   AR   Ar   73   1.948   6.850   3.283
    1   AR   Ar   74   1.805   0.862   4.929
    1   AR   Ar   75   3.065   0.625   5.185
    1   AR   Ar   76   2.602   0.685   2.727
    1   AR   Ar   77   2.315   0.374   5.785
    1   AR   Ar   78   1.340   0.653   5.810
    1   AR   Ar   79   4.061   6.868   6.821
    1   AR   Ar   80   3.003   6.641   5.320
    1   AR   Ar   81   2.018   1.228   0.308
    1   AR   Ar   82   1.185   3.816   0.621
    1   AR   Ar   83   2.577   1.696   1.081
    1   AR   Ar   84   2.013   3.267  -2.234
    1   AR   Ar   85   1.419   2.287   0.705
    1   AR   Ar   86   1.781   3.017   2.429
    1   AR   Ar   87   1.849   1.528   2.112
    1   AR   Ar   88   3.098   3.627   1.465
    1   AR   Ar   89   0.753   2.083   1.659
    1   AR   Ar   90   2.792   1.803   5.037
    1   AR   Ar   91   2.196   2.260   4.244
    1   AR   Ar   92   1.966   1.724   3.208
    1   AR   Ar   93   1.338   1.757   5.506
    1   AR   Ar   94   2.640   1.044   8.580
    1   AR   Ar   95   3.027   7.056   6.399
    1   AR   Ar   96   1.856   1.612   6.676
    1   AR   Ar   97   2.815   3.164  -0.866
    1   AR   Ar   98   2.419   4.507   1.590
    1   AR   Ar   99   3.913   2.771  -1.460
    1   AR   Ar  100   2.224   4.183  -0.651
    1   AR   Ar  101   1.189   3.178   1.493
    1   AR   Ar  102   2.368   3.830   3.459
    1   AR   Ar  103   2.093   3.557   1.307
    1   AR   Ar  104   3.282   3.965  -0.297
    1   AR   Ar  105   1.361   3.000   3.676
    1   AR   Ar  106   2.561   3.303   4.691
    1   AR   Ar  107   2.811   4.022   5.558
    1   AR   Ar  108   3.344   3.076   4.021
    1   AR   Ar  109   1.107   3.796   4.482
    1   AR   Ar  110   1.807   4.644   4.890
    1   AR   Ar  111   3.810   4.894   6.894
    1   AR   Ar  112   1.584   4.073   5.881
    1   AR   Ar  113   2.515   4.294   0.526
    1   AR   Ar  114   2.522   5.389   0.947
    1   AR   Ar  115   3.341   4.993   0.072
    1   AR   Ar  116   3.828   6.971  -0.229
    1   AR   Ar  117   1.301   4.735   3.099
    1   AR   Ar  118   1.322   6.076   2.638
    1   AR   Ar  119   2.195   4.181   2.566
    1   AR   Ar  120   1.727   5.323   1.938
    1   AR   Ar  121   7.094   4.406   3.923
    1   AR   Ar  122   3.083   6.122   4.160
    1   AR   Ar  123   2.400   5.206   4.208
    1   AR   Ar  124   2.242   5.531   2.949
    1   AR   Ar  125   0.515   5.087   4.705
    1   AR   Ar  126   1.053   6.852   5.983
    1   AR   Ar  127   2.259   5.176   7.289
    1   AR   Ar  128   2.249   6.331   6.134
    1   AR   Ar  129   2.648   6.866   1.373
    1   AR   Ar  130   4.286   6.917  -1.461
    1   AR   Ar  131   4.687   5.963   0.213
    1   AR   Ar  132   5.754   2.295  -0.909
    1   AR   Ar  133   3.564   0.154   2.460
    1   AR   Ar  134   4.158   1.423   2.690
    1   AR   Ar  135   4.658   0.390   2.911
    1   AR   Ar  136   4.469   0.755   1.907
    1   AR   Ar  137   3.120   7.061   3.385
    1   AR   Ar  138   4.482   1.320   4.921
    1   AR   Ar  139   5.054   0.415   4.014
    1   AR   Ar  140   4.182   1.130   3.927
    1   AR   Ar  141   3.715   6.945   4.587
    1   AR   Ar  142   4.064   0.400   5.404
    1   AR   Ar  143   5.319   6.951   6.242
    1   AR   Ar  144   5.112   0.574   7.292
    1   AR   Ar  145   2.808   3.263   0.514
    1   AR   Ar  146   3.763   2.682   1.098
    1   AR   Ar  147   5.342   1.972   0.252
    1   AR   Ar  148   5.721   3.530  -1.644
    1   AR   Ar  149   4.582   1.491   0.933
    1   AR   Ar  150   2.915   1.586   2.613
    1   AR   Ar  151   3.478   1.879   3.675
    1   AR   Ar  152   2.763   2.789   2.151
    1   AR   Ar  153   3.265   0.696   3.974
    1   AR   Ar  154   4.056   2.371   4.528
    1   AR   Ar  155   5.575   1.040   5.847
    1   AR   Ar  156   4.264   3.193   3.741
    1   AR   Ar  157   3.689   1.923   5.446
    1   AR   Ar  158   2.974   2.178   6.221
    1   AR   Ar  159   4.556   0.854   6.153
    1   AR   Ar  160   4.386   2.812   5.915
    1   AR   Ar  161   4.595   2.922  -0.279
    1   AR   Ar  162   4.445   4.981   1.043
    1   AR   Ar  163   5.550   2.986   0.115
    1   AR   Ar  164   5.468   4.982   1.127
    1   AR   Ar  165   3.083   3.726   2.721
    1   AR   Ar  166   3.102   4.775   2.991
    1   AR   Ar  167   4.393   2.880   2.749
    1   AR   Ar  168   4.050   3.757   0.549
    1   AR   Ar  169   2.622   2.703   3.110
    1   AR   Ar  170   3.139   4.137   4.261
    1   AR   Ar  171   3.842   3.561   4.893
    1   AR   Ar  172   4.278   4.623   4.150
    1   AR   Ar  173   3.179   2.975   5.397
    1   AR   Ar  174   4.274   4.990   5.894
    1   AR   Ar  175   4.141   3.964   5.796
    1   AR   Ar  176   3.467   4.933   4.948
    1   AR   Ar  177   5.643   5.091  -0.168
    1   AR   Ar  178   3.980   6.933   1.110
    1   AR   Ar  179   3.580   5.639   1.189
    1   AR   Ar  180   4.444   4.849  -0.420
    1   AR   Ar  181   3.027   5.579   2.086
    1   AR   Ar  182   2.412   6.710   2.344
    1   AR   Ar  183   3.536   4.385   1.821
    1   AR   Ar  184   4.139   5.924   2.172
    1   AR   Ar  185   1.531   5.635   3.799
    1   AR   Ar  186   3.408   5.171   3.839
    1   AR   Ar  187   4.524   5.338   3.017
    1   AR   Ar  188   3.324   6.293   2.757
    1   AR   Ar  189   2.339   5.087   5.932
    1   AR   Ar  190   4.124   5.874   6.519
    1   AR   Ar  191   5.020   6.156   5.241
    1   AR   Ar  192   3.971   5.984   4.829
    1   AR   Ar  193   5.944   6.966   0.043
    1   AR   Ar  194   4.990   0.138  -0.527
    1   AR   Ar  195   6.017   0.956   0.611
    1   AR   Ar  196   6.243   1.392  -0.637
    1   AR   Ar  197   5.063   0.471   0.787
    1   AR   Ar  198   5.776   1.169   1.595
    1   AR   Ar  199   5.429   0.313   2.126
    1   AR   Ar  200   6.452   1.817   0.950
    1   AR   Ar  201   5.242   6.505   2.724
    1   AR   Ar  202   5.354   1.407   3.913
    1   AR   Ar  203   0.101   0.053   4.584
    1   AR   Ar  204   5.878   0.157   3.043
    1   AR   Ar  205   5.977   7.025   4.007
    1   AR   Ar  206   5.210   0.331   5.105
    1   AR   Ar  207   0.154   0.417   5.726
    1   AR   Ar  208   6.490   1.042   3.550
    1   AR   Ar  209   6.801   2.886  -1.747
    1   AR   Ar  210   4.634   2.549   1.691
    1   AR   Ar  211   6.484   2.370  -0.066
    1   AR   Ar  212   6.268   3.869  -0.621
    1   AR   Ar  213   3.574   2.309   2.222
    1   AR   Ar  214   4.005   3.342   1.912
    1   AR   Ar  215   5.716   2.186   2.035
    1   AR   Ar  216   6.275   3.237   1.698
    1   AR   Ar  217   5.095   2.603   3.963
    1   AR   Ar  218   5.116   2.193   5.045
    1   AR   Ar  219   5.577   1.138   2.814
    1   AR   Ar  220   6.101   3.469   3.219
    1   AR   Ar  221   6.214   7.065   5.370
    1   AR   Ar  222   5.312   1.920   6.408
    1   AR   Ar  223   6.328   1.071   7.056
    1   AR   Ar  224   5.316   3.143   5.561
    1   AR   Ar  225   5.183   4.207   0.291
    1   AR   Ar  226   4.639   4.423   2.156
    1   AR   Ar  227   6.585   4.394   1.305
    1   AR   Ar  228   6.330   5.241   0.620
    1   AR   Ar  229   6.081   3.739   0.652
    1   AR   Ar  230   4.077   4.379   3.052
    1   AR   Ar  231   6.985   2.560   3.371
    1   AR   Ar  232   5.057   3.992   1.283
    1   AR   Ar  233   5.938   2.739   4.596
    1   AR   Ar  234   6.225   4.433   4.964
    1   AR   Ar  235   6.697   3.390   4.401
    1   AR   Ar  236   5.084   3.810   3.595
    1   AR   Ar  237   4.848   3.407   4.548
    1   AR   Ar  238   5.017   4.227   5.300
    1   AR   Ar  239   6.457   3.749   7.736
    1   AR   Ar  240   6.070   3.869   6.011
    1   AR   Ar  241   6.888   0.535  -0.011
    1   AR   Ar  242   5.018   6.200   1.357
    1   AR   Ar  243   5.966   4.585   2.029
    1   AR   Ar  244   6.674   6.272  -0.371
    1   AR   Ar  245   5.128   5.476   2.127
    1   AR   Ar  246   6.082   6.300   2.198
    1   AR   Ar  247   5.432   3.742   2.414
    1   AR   Ar  248   5.951   7.027   1.289
    1   AR   Ar  249   5.611   4.712   3.001
    1   AR   Ar  250   4.944   6.487   4.046
    1   AR   Ar  251   5.116   5.390   4.147
    1   AR   Ar  252   5.698   5.711   3.409
    1   AR   Ar  253   5.728   5.313   5.807
    1   AR   Ar  254   5.278   5.793   6.977
    1   AR   Ar  255   5.475   4.477   6.576
    1   AR   Ar  256   6.124   5.996   4.484
    7.12000  7.12000 12.00000
Argon-slab step 1145
  256
    1   AR   Ar    1   0.923   0.519  -0.890
    1   AR   Ar    2   6.915   0.730   1.100
    1   AR   Ar    3   0.194   6.969   0.639
    1   AR   Ar    4   1.108   0.646   0.162
    1   AR   Ar    5   6.985   6.141   0.999
    1   AR   Ar    6   0.403   0.122   3.088
    1   AR   Ar    7   0.096   6.056   2.108
    1   AR   Ar    8   0.369   7.100   1.697
    1   AR   Ar    9   0.378   0.820   3.852
    1   AR   Ar   10   7.057   1.807   4.487
    1   AR   Ar   11   2.119   6.850   4.372
    1   AR   Ar   12   1.005   1.199   2.737
    1   AR   Ar   13   6.516   1.042   5.345
    1   AR   Ar   14   0.317   1.474   5.832
    1   AR   Ar   15   6.975   5.839   8.592
    1   AR   Ar   16   0.767   1.059   4.813
    1   AR   Ar   17   0.054   1.545   0.029
    1   AR   Ar   18   7.020   3.368   0.226
    1   AR   Ar   19   0.685   1.281   0.957
    1   AR   Ar   20   0.835   3.211  -2.193
    1   AR   Ar   21   6.642   0.048   2.371
    1   AR   Ar   22   6.726   2.270   2.137
    1   AR   Ar   23   0.165   1.005   2.016
    1   AR   Ar   24   0.025   2.728   1.244
    1   AR   Ar   25   0.025   1.534   2.983
    1   AR   Ar   26   6.014   2.098   3.119
    1   AR   Ar   27   1.565   0.899   3.891
    1   AR   Ar   28   0.905   2.516   4.432
    1   AR   Ar   29   6.057   2.137   5.724
    1   AR   Ar   30   6.769   2.956   6.311
    1   AR   Ar   31   0.896   1.314   7.113
    1   AR   Ar   32   1.947   2.602   5.156
    1   AR   Ar   33   1.012   3.991  -1.441
    1   AR   Ar   34   0.776   5.144   1.200
    1   AR   Ar   35   0.382   3.778   1.343
    1   AR   Ar   36   2.029   6.724  -1.746
    1   AR   Ar   37   0.390   3.090   2.212
    1   AR   Ar   38   0.041   4.957   2.245
    1   AR   Ar   39   1.036   3.699   2.868
    1   AR   Ar   40   1.294   4.138   1.922
    1   AR   Ar   41   0.810   2.304   2.902
    1   AR   Ar   42   6.783   5.375   5.434
    1   AR   Ar   43   6.936   2.541   5.194
    1   AR   Ar   44   0.408   3.529   3.583
    1   AR   Ar   45   0.155   3.587   5.483
    1   AR   Ar   46   6.273   5.134   6.686
    1   AR   Ar   47   7.081   4.140   6.834
    1   AR   Ar   48   0.112   6.190   6.831
    1   AR   Ar   49   0.237   4.792  -1.372
    1   AR   Ar   50   6.435   5.485   1.614
    1   AR   Ar   51   1.269   4.753   0.278
    1   AR   Ar   52   0.132   5.432   0.136
    1   AR   Ar   53   6.371   5.446   2.691
    1   AR   Ar   54   6.755   6.485   3.166
    1   AR   Ar   55   0.408   5.545   3.305
    1   AR   Ar   56   1.087   6.246   1.437
    1   AR   Ar   57   7.105   4.020   2.890
    1   AR   Ar   58   7.114   6.054   4.261
    1   AR   Ar   59   2.008   5.920   5.010
    1   AR   Ar   60   1.055   6.735   3.830
    1   AR   Ar   61   6.263   6.292   6.015
    1   AR   Ar   62   0.208   6.284   5.242
    1   AR   Ar   63   1.253   5.188   5.932
    1   AR   Ar   64   1.203   6.689   4.885
    1   AR   Ar   65   3.023   0.477   0.150
    1   AR   Ar   66   1.526   0.578   1.238
    1   AR   Ar   67   3.017   6.410   0.576
    1   AR   Ar   68   3.744   1.013  -0.549
    1   AR   Ar   69   1.431   6.926   0.616
    1   AR   Ar   70   1.306   0.170   2.403
    1   AR   Ar   71   3.230   1.009   1.716
    1   AR   Ar   72   3.948   0.687   0.634
    1   AR   Ar   73   1.960   6.854   3.291
    1   AR   Ar   74   1.782   0.855   4.910
    1   AR   Ar   75   3.057   0.607   5.165
    1   AR   Ar   76   2.571   0.655   2.694
    1   AR   Ar   77   2.311   0.369   5.795
    1   AR   Ar   78   1.323   0.635   5.786
    1   AR   Ar   79   4.054   6.882   6.810
    1   AR   Ar   80   2.984   6.618   5.355
    1   AR   Ar   81   2.000   1.222   0.305
    1   AR   Ar   82   1.146   3.854   0.573
    1   AR   Ar   83   2.548   1.678   1.058
    1   AR   Ar   84   2.005   3.275  -2.282
    1   AR   Ar   85   1.404   2.284   0.680
    1   AR   Ar   86   1.786   3.055   2.410
    1   AR   Ar   87   1.882   1.532   2.123
    1   AR   Ar   88   3.048   3.614   1.473
    1   AR   Ar   89   0.764   2.077   1.687
    1   AR   Ar   90   2.765   1.794   5.055
    1   AR   Ar   91   2.196   2.267   4.233
    1   AR   Ar   92   1.957   1.712   3.209
    1   AR   Ar   93   1.362   1.760   5.482
    1   AR   Ar   94   2.656   1.031   8.563
    1   AR   Ar   95   3.028   7.033   6.403
    1   AR   Ar   96   1.869   1.573   6.663
    1   AR   Ar   97   2.811   3.149  -0.870
    1   AR   Ar   98   2.427   4.508   1.590
    1   AR   Ar   99   3.909   2.766  -1.461
    1   AR   Ar  100   2.209   4.157  -0.651
    1   AR   Ar  101   1.203   3.192   1.482
    1   AR   Ar  102   2.377   3.849   3.472
    1   AR   Ar  103   2.074   3.551   1.300
    1   AR   Ar  104   3.249   3.940  -0.320
    1   AR   Ar  105   1.373   3.013   3.653
    1   AR   Ar  106   2.586   3.323   4.686
    1   AR   Ar  107   2.796   4.013   5.556
    1   AR   Ar  108   3.337   3.082   4.030
    1   AR   Ar  109   1.118   3.786   4.499
    1   AR   Ar  110   1.807   4.666   4.894
    1   AR   Ar  111   3.831   4.887   6.884
    1   AR   Ar  112   1.637   4.072   5.897
    1   AR   Ar  113   2.544   4.293   0.503
    1   AR   Ar  114   2.559   5.367   0.958
    1   AR   Ar  115   3.349   4.985   0.096
    1   AR   Ar  116   3.846   6.971  -0.248
    1   AR   Ar  117   1.291   4.726   3.114
    1   AR   Ar  118   1.308   6.081   2.654
    1   AR   Ar  119   2.189   4.183   2.562
    1   AR   Ar  120   1.760   5.304   1.931
    1   AR   Ar  121   7.074   4.385   3.930
    1   AR   Ar  122   3.077   6.119   4.154
    1   AR   Ar  123   2.408   5.205   4.210
    1   AR   Ar  124   2.289   5.533   2.945
    1   AR   Ar  125   0.499   5.054   4.696
    1   AR   Ar  126   1.055   6.847   5.973
    1   AR   Ar  127   2.255   5.164   7.332
    1   AR   Ar  128   2.277   6.336   6.157
    1   AR   Ar  129   2.654   6.894   1.359
    1   AR   Ar  130   4.315   6.921  -1.495
    1   AR   Ar  131   4.668   5.947   0.192
    1   AR   Ar  132   5.768   2.303  -0.949
    1   AR   Ar  133   3.537   0.174   2.470
    1   AR   Ar  134   4.157   1.438   2.687
    1   AR   Ar  135   4.662   0.391   2.908
    1   AR   Ar  136   4.457   0.740   1.893
    1   AR   Ar  137   3.119   7.067   3.413
    1   AR   Ar  138   4.484   1.315   4.895
    1   AR   Ar  139   5.063   0.434   4.017
    1   AR   Ar  140   4.177   1.121   3.936
    1   AR   Ar  141   3.738   6.927   4.588
    1   AR   Ar  142   4.081   0.367   5.395
    1   AR   Ar  143   5.323   6.934   6.263
    1   AR   Ar  144   5.096   0.597   7.281
    1   AR   Ar  145   2.814   3.283   0.490
    1   AR   Ar  146   3.793   2.695   1.105
    1   AR   Ar  147   5.367   1.973   0.233
    1   AR   Ar  148   5.725   3.520  -1.659
    1   AR   Ar  149   4.557   1.459   0.897
    1   AR   Ar  150   2.939   1.598   2.634
    1   AR   Ar  151   3.504   1.876   3.652
    1   AR   Ar  152   2.733   2.764   2.155
    1   AR   Ar  153   3.271   0.742   3.973
    1   AR   Ar  154   4.070   2.364   4.566
    1   AR   Ar  155   5.576   1.004   5.860
    1   AR   Ar  156   4.285   3.197   3.698
    1   AR   Ar  157   3.686   1.956   5.447
    1   AR   Ar  158   2.970   2.195   6.188
    1   AR   Ar  159   4.558   0.843   6.144
    1   AR   Ar  160   4.394   2.809   5.895
    1   AR   Ar  161   4.595   2.940  -0.266
    1   AR   Ar  162   4.466   4.970   1.044
    1   AR   Ar  163   5.564   2.987   0.088
    1   AR   Ar  164   5.447   5.015   1.099
    1   AR   Ar  165   3.106   3.725   2.720
    1   AR   Ar  166   3.117   4.785   2.983
    1   AR   Ar  167   4.401   2.885   2.764
    1   AR   Ar  168   4.057   3.770   0.524
    1   AR   Ar  169   2.656   2.688   3.110
    1   AR   Ar  170   3.164   4.111   4.288
    1   AR   Ar  171   3.854   3.578   4.897
    1   AR   Ar  172   4.251   4.657   4.132
    1   AR   Ar  173   3.205   2.950   5.435
    1   AR   Ar  174   4.300   4.998   5.888
    1   AR   Ar  175   4.152   3.957   5.810
    1   AR   Ar  176   3.436   4.970   4.946
    1   AR   Ar  177   5.655   5.061  -0.199
    1   AR   Ar  178   4.008   6.921   1.112
    1   AR   Ar  179   3.570   5.693   1.184
    1   AR   Ar  180   4.458   4.809  -0.424
    1   AR   Ar  181   3.034   5.546   2.081
    1   AR   Ar  182   2.408   6.728   2.325
    1   AR   Ar  183   3.576   4.422   1.781
    1   AR   Ar  184   4.189   5.927   2.152
    1   AR   Ar  185   1.518   5.629   3.797
    1   AR   Ar  186   3.426   5.130   3.821
    1   AR   Ar  187   4.513   5.339   3.045
    1   AR   Ar  188   3.318   6.271   2.760
    1   AR   Ar  189   2.345   5.071   5.944
    1   AR   Ar  190   4.118   5.847   6.491
    1   AR   Ar  191   5.038   6.168   5.253
    1   AR   Ar  192   3.997   6.021   4.828
    1   AR   Ar  193   5.939   6.943   0.001
    1   AR   Ar  194   4.989   0.154  -0.543
    1   AR   Ar  195   6.019   0.963   0.606
    1   AR   Ar  196   6.267   1.374  -0.646
    1   AR   Ar  197   5.073   0.485   0.790
    1   AR   Ar  198   5.788   1.161   1.601
    1   AR   Ar  199   5.414   0.277   2.102
    1   AR   Ar  200   6.447   1.849   0.932
    1   AR   Ar  201   5.229   6.494   2.742
    1   AR   Ar  202   5.324   1.450   3.899
    1   AR   Ar  203   0.098   0.052   4.573
    1   AR   Ar  204   5.852   0.158   3.016
    1   AR   Ar  205   6.002   7.016   4.000
    1   AR   Ar  206   5.239   0.327   5.107
    1   AR   Ar  207   0.139   0.450   5.740
    1   AR   Ar  208   6.484   1.055   3.547
    1   AR   Ar  209   6.796   2.895  -1.741
    1   AR   Ar  210   4.632   2.559   1.696
    1   AR   Ar  211   6.503   2.340  -0.077
    1   AR   Ar  212   6.261   3.888  -0.598
    1   AR   Ar  213   3.573   2.305   2.260
    1   AR   Ar  214   4.009   3.366   1.936
    1   AR   Ar  215   5.733   2.179   2.021
    1   AR   Ar  216   6.267   3.264   1.680
    1   AR   Ar  217   5.118   2.600   3.952
    1   AR   Ar  218   5.090   2.253   5.035
    1   AR   Ar  219   5.544   1.148   2.820
    1   AR   Ar  220   6.088   3.482   3.214
    1   AR   Ar  221   6.232   7.070   5.356
    1   AR   Ar  222   5.290   1.935   6.448
    1   AR   Ar  223   6.310   1.034   7.058
    1   AR   Ar  224   5.312   3.141   5.545
    1   AR   Ar  225   5.191   4.208   0.333
    1   AR   Ar  226   4.648   4.407   2.140
    1   AR   Ar  227   6.575   4.426   1.267
    1   AR   Ar  228   6.320   5.244   0.626
    1   AR   Ar  229   6.092   3.757   0.645
    1   AR   Ar  230   4.048   4.370   3.060
    1   AR   Ar  231   6.989   2.561   3.354
    1   AR   Ar  232   5.050   3.982   1.289
    1   AR   Ar  233   5.942   2.729   4.612
    1   AR   Ar  234   6.215   4.409   4.960
    1   AR   Ar  235   6.691   3.374   4.378
    1   AR   Ar  236   5.109   3.822   3.571
    1   AR   Ar  237   4.855   3.416   4.542
    1   AR   Ar  238   5.038   4.235   5.343
    1   AR   Ar  239   6.459   3.768   7.717
    1   AR   Ar  240   6.070   3.868   5.999
    1   AR   Ar  241   6.942   0.540  -0.029
    1   AR   Ar  242   5.055   6.224   1.353
    1   AR   Ar  243   5.967   4.584   2.028
    1   AR   Ar  244   6.694   6.258  -0.368
    1   AR   Ar  245   5.143   5.495   2.148
    1   AR   Ar  246   6.085   6.322   2.176
    1   AR   Ar  247   5.454   3.747   2.415
    1   AR   Ar  248   5.949   7.044   1.294
    1   AR   Ar  249   5.611   4.727   3.010
    1   AR   Ar  250   4.995   6.474   4.044
    1   AR   Ar  251   5.126   5.402   4.178
    1   AR   Ar  252   5.689   5.692   3.406
    1   AR   Ar  253   5.723   5.332   5.820
    1   AR   Ar  254   5.258   5.817   6.969
    1   AR   Ar  255   5.460   4.487   6.590
    1   AR   Ar  256   6.131   6.017   4.510
    7.12000  7.12000 12.00000
Argon-slab step 1150
  256
    1   AR   Ar    1   0.922   0.550  -0.894
    1   AR   Ar    2   6.852   0.724   1.084
    1   AR   Ar    3   0.208   6.981   0.648
    1   AR   Ar    4   1.106   0.657   0.154
    1   AR   Ar    5   7.004   6.135   0.991
    1   AR   Ar    6   0.403   0.143   3.091
    1   AR   Ar    7   0.114   6.050   2.116
    1   AR   Ar    8   0.350   7.111   1.697
    1   AR   Ar    9   0.363   0.828   3.886
    1   AR   Ar   10   7.066   1.786   4.470
    1   AR   Ar   11   2.132   6.861   4.376
    1   AR   Ar   12   1.027   1.200   2.714
    1   AR   Ar   13   6.554   1.059   5.373
    1   AR   Ar   14   0.315   1.439   5.816
    1   AR   Ar   15   6.966   5.835   8.566
    1   AR   Ar   16   0.764   1.093   4.805
    1   AR   Ar   17   0.072   1.503   0.035
    1   AR   Ar   18   7.001   3.373   0.257
    1   AR   Ar   19   0.684   1.281   0.970
    1   AR   Ar   20   0.874   3.215  -2.206
    1   AR   Ar   21   6.631   0.027   2.364
    1   AR   Ar   22   6.719   2.284   2.129
    1   AR   Ar   23   0.172   1.019   2.025
    1   AR   Ar   24   0.035   2.679   1.261
    1   AR   Ar   25   0.002   1.524   2.941
    1   AR   Ar   26   6.018   2.081   3.087
    1   AR   Ar   27   1.584   0.919   3.880
    1   AR   Ar   28   0.915   2.487   4.432
    1   AR   Ar   29   6.063   2.115   5.715
    1   AR   Ar   30   6.741   2.969   6.301
    1   AR   Ar   31   0.863   1.295   7.120
    1   AR   Ar   32   1.956   2.613   5.184
    1   AR   Ar   33   1.025   3.978  -1.434
    1   AR   Ar   34   0.743   5.137   1.249
    1   AR   Ar   35   0.379   3.820   1.356
    1   AR   Ar   36   2.038   6.732  -1.750
    1   AR   Ar   37   0.399   3.060   2.224
    1   AR   Ar   38   0.037   4.925   2.252
    1   AR   Ar   39   1.041   3.714   2.867
    1   AR   Ar   40   1.311   4.151   1.888
    1   AR   Ar   41   0.815   2.304   2.894
    1   AR   Ar   42   6.801   5.397   5.424
    1   AR   Ar   43   6.924   2.549   5.183
    1   AR   Ar   44   0.387   3.522   3.602
    1   AR   Ar   45   0.190   3.579   5.462
    1   AR   Ar   46   6.256   5.121   6.669
    1   AR   Ar   47   7.095   4.164   6.830
    1   AR   Ar   48   0.091   6.206   6.813
    1   AR   Ar   49   0.194   4.805  -1.391
    1   AR   Ar   50   6.451   5.484   1.620
    1   AR   Ar   51   1.276   4.746   0.264
    1   AR   Ar   52   0.124   5.419   0.127
    1   AR   Ar   53   6.372   5.458   2.706
    1   AR   Ar   54   6.789   6.486   3.163
    1   AR   Ar   55   0.420   5.536   3.304
    1   AR   Ar   56   1.079   6.266   1.417
    1   AR   Ar   57   7.106   4.011   2.904
    1   AR   Ar   58   7.113   6.058   4.280
    1   AR   Ar   59   2.038   5.880   5.023
    1   AR   Ar   60   1.078   6.772   3.852
    1   AR   Ar   61   6.265   6.293   6.011
    1   AR   Ar   62   0.230   6.286   5.247
    1   AR   Ar   63   1.261   5.228   5.933
    1   AR   Ar   64   1.217   6.674   4.895
    1   AR   Ar   65   3.055   0.468   0.181
    1   AR   Ar   66   1.502   0.574   1.261
    1   AR   Ar   67   3.020   6.406   0.549
    1   AR   Ar   68   3.754   1.019  -0.565
    1   AR   Ar   69   1.424   6.905   0.610
    1   AR   Ar   70   1.304   0.169   2.411
    1   AR   Ar   71   3.232   0.987   1.705
    1   AR   Ar   72   3.930   0.692   0.626
    1   AR   Ar   73   1.974   6.857   3.297
    1   AR   Ar   74   1.768   0.848   4.889
    1   AR   Ar   75   3.054   0.591   5.137
    1   AR   Ar   76   2.536   0.618   2.663
    1   AR   Ar   77   2.303   0.361   5.807
    1   AR   Ar   78   1.300   0.634   5.764
    1   AR   Ar   79   4.046   6.906   6.792
    1   AR   Ar   80   2.965   6.595   5.389
    1   AR   Ar   81   1.981   1.215   0.299
    1   AR   Ar   82   1.105   3.873   0.533
    1   AR   Ar   83   2.521   1.662   1.040
    1   AR   Ar   84   1.996   3.284  -2.329
    1   AR   Ar   85   1.390   2.309   0.665
    1   AR   Ar   86   1.787   3.095   2.392
    1   AR   Ar   87   1.916   1.536   2.134
    1   AR   Ar   88   3.006   3.596   1.484
    1   AR   Ar   89   0.777   2.073   1.719
    1   AR   Ar   90   2.732   1.782   5.072
    1   AR   Ar   91   2.198   2.273   4.214
    1   AR   Ar   92   1.949   1.702   3.211
    1   AR   Ar   93   1.384   1.760   5.458
    1   AR   Ar   94   2.672   1.018   8.545
    1   AR   Ar   95   3.035   7.010   6.408
    1   AR   Ar   96   1.883   1.533   6.647
    1   AR   Ar   97   2.806   3.132  -0.875
    1   AR   Ar   98   2.418   4.506   1.589
    1   AR   Ar   99   3.904   2.762  -1.461
    1   AR   Ar  100   2.194   4.131  -0.651
    1   AR   Ar  101   1.200   3.190   1.477
    1   AR   Ar  102   2.386   3.863   3.498
    1   AR   Ar  103   2.060   3.548   1.287
    1   AR   Ar  104   3.217   3.917  -0.341
    1   AR   Ar  105   1.390   3.027   3.626
    1   AR   Ar  106   2.614   3.334   4.679
    1   AR   Ar  107   2.781   4.005   5.552
    1   AR   Ar  108   3.327   3.084   4.036
    1   AR   Ar  109   1.127   3.776   4.516
    1   AR   Ar  110   1.806   4.688   4.901
    1   AR   Ar  111   3.852   4.877   6.874
    1   AR   Ar  112   1.691   4.073   5.911
    1   AR   Ar  113   2.545   4.269   0.512
    1   AR   Ar  114   2.595   5.346   0.969
    1   AR   Ar  115   3.357   4.977   0.123
    1   AR   Ar  116   3.865   6.971  -0.266
    1   AR   Ar  117   1.282   4.720   3.129
    1   AR   Ar  118   1.293   6.086   2.670
    1   AR   Ar  119   2.175   4.189   2.549
    1   AR   Ar  120   1.792   5.285   1.926
    1   AR   Ar  121   7.052   4.368   3.940
    1   AR   Ar  122   3.061   6.122   4.141
    1   AR   Ar  123   2.420   5.205   4.210
    1   AR   Ar  124   2.336   5.535   2.941
    1   AR   Ar  125   0.484   5.022   4.686
    1   AR   Ar  126   1.050   6.848   5.956
    1   AR   Ar  127   2.252   5.151   7.374
    1   AR   Ar  128   2.301   6.338   6.178
    1   AR   Ar  129   2.670   6.915   1.348
    1   AR   Ar  130   4.344   6.926  -1.528
    1   AR   Ar  131   4.662   5.947   0.188
    1   AR   Ar  132   5.781   2.313  -0.987
    1   AR   Ar  133   3.512   0.196   2.476
    1   AR   Ar  134   4.155   1.453   2.686
    1   AR   Ar  135   4.665   0.392   2.907
    1   AR   Ar  136   4.444   0.725   1.876
    1   AR   Ar  137   3.112   7.064   3.439
    1   AR   Ar  138   4.489   1.310   4.876
    1   AR   Ar  139   5.069   0.452   4.020
    1   AR   Ar  140   4.184   1.114   3.940
    1   AR   Ar  141   3.755   6.923   4.580
    1   AR   Ar  142   4.098   0.333   5.383
    1   AR   Ar  143   5.318   6.921   6.267
    1   AR   Ar  144   5.081   0.621   7.267
    1   AR   Ar  145   2.829   3.261   0.511
    1   AR   Ar  146   3.817   2.710   1.109
    1   AR   Ar  147   5.393   1.969   0.215
    1   AR   Ar  148   5.730   3.509  -1.672
    1   AR   Ar  149   4.538   1.432   0.864
    1   AR   Ar  150   2.962   1.615   2.658
    1   AR   Ar  151   3.511   1.865   3.653
    1   AR   Ar  152   2.695   2.748   2.137
    1   AR   Ar  153   3.267   0.794   3.980
    1   AR   Ar  154   4.086   2.361   4.600
    1   AR   Ar  155   5.578   0.970   5.874
    1   AR   Ar  156   4.303   3.205   3.662
    1   AR   Ar  157   3.698   1.977   5.453
    1   AR   Ar  158   2.963   2.211   6.157
    1   AR   Ar  159   4.591   0.839   6.154
    1   AR   Ar  160   4.415   2.821   5.879
    1   AR   Ar  161   4.607   2.969  -0.256
    1   AR   Ar  162   4.475   4.957   1.046
    1   AR   Ar  163   5.585   2.991   0.060
    1   AR   Ar  164   5.435   5.047   1.076
    1   AR   Ar  165   3.136   3.719   2.717
    1   AR   Ar  166   3.086   4.776   3.003
    1   AR   Ar  167   4.411   2.884   2.772
    1   AR   Ar  168   4.064   3.785   0.501
    1   AR   Ar  169   2.688   2.671   3.128
    1   AR   Ar  170   3.189   4.091   4.311
    1   AR   Ar  171   3.867   3.593   4.896
    1   AR   Ar  172   4.244   4.670   4.116
    1   AR   Ar  173   3.232   2.923   5.475
    1   AR   Ar  174   4.328   5.006   5.878
    1   AR   Ar  175   4.160   3.948   5.829
    1   AR   Ar  176   3.405   5.007   4.943
    1   AR   Ar  177   5.665   5.031  -0.231
    1   AR   Ar  178   4.036   6.902   1.118
    1   AR   Ar  179   3.564   5.747   1.177
    1   AR   Ar  180   4.472   4.769  -0.425
    1   AR   Ar  181   3.038   5.509   2.074
    1   AR   Ar  182   2.403   6.744   2.312
    1   AR   Ar  183   3.620   4.467   1.745
    1   AR   Ar  184   4.236   5.932   2.130
    1   AR   Ar  185   1.502   5.626   3.794
    1   AR   Ar  186   3.443   5.101   3.817
    1   AR   Ar  187   4.505   5.341   3.075
    1   AR   Ar  188   3.313   6.247   2.765
    1   AR   Ar  189   2.352   5.054   5.954
    1   AR   Ar  190   4.114   5.823   6.463
    1   AR   Ar  191   5.058   6.181   5.265
    1   AR   Ar  192   4.027   6.042   4.831
    1   AR   Ar  193   5.932   6.923  -0.037
    1   AR   Ar  194   4.986   0.171  -0.558
    1   AR   Ar  195   6.020   0.967   0.593
    1   AR   Ar  196   6.292   1.356  -0.652
    1   AR   Ar  197   5.086   0.491   0.806
    1   AR   Ar  198   5.801   1.153   1.610
    1   AR   Ar  199   5.397   0.242   2.077
    1   AR   Ar  200   6.445   1.885   0.917
    1   AR   Ar  201   5.209   6.481   2.762
    1   AR   Ar  202   5.306   1.482   3.887
    1   AR   Ar  203   0.096   0.049   4.564
    1   AR   Ar  204   5.828   0.160   2.996
    1   AR   Ar  205   6.030   7.005   3.999
    1   AR   Ar  206   5.266   0.321   5.109
    1   AR   Ar  207   0.092   0.488   5.725
    1   AR   Ar  208   6.468   1.061   3.550
    1   AR   Ar  209   6.767   2.871  -1.778
    1   AR   Ar  210   4.636   2.564   1.704
    1   AR   Ar  211   6.519   2.314  -0.088
    1   AR   Ar  212   6.253   3.906  -0.574
    1   AR   Ar  213   3.591   2.297   2.296
    1   AR   Ar  214   4.017   3.395   1.952
    1   AR   Ar  215   5.741   2.173   2.006
    1   AR   Ar  216   6.259   3.291   1.662
    1   AR   Ar  217   5.142   2.591   3.936
    1   AR   Ar  218   5.060   2.308   5.024
    1   AR   Ar  219   5.510   1.159   2.824
    1   AR   Ar  220   6.095   3.489   3.214
    1   AR   Ar  221   6.252   7.079   5.337
    1   AR   Ar  222   5.266   1.949   6.488
    1   AR   Ar  223   6.292   0.998   7.059
    1   AR   Ar  224   5.313   3.143   5.528
    1   AR   Ar  225   5.197   4.212   0.365
    1   AR   Ar  226   4.656   4.397   2.127
    1   AR   Ar  227   6.573   4.438   1.270
    1   AR   Ar  228   6.314   5.249   0.624
    1   AR   Ar  229   6.102   3.772   0.636
    1   AR   Ar  230   4.022   4.357   3.070
    1   AR   Ar  231   6.993   2.565   3.337
    1   AR   Ar  232   5.044   3.967   1.303
    1   AR   Ar  233   5.944   2.716   4.633
    1   AR   Ar  234   6.206   4.385   4.956
    1   AR   Ar  235   6.691   3.362   4.352
    1   AR   Ar  236   5.136   3.839   3.544
    1   AR   Ar  237   4.864   3.427   4.544
    1   AR   Ar  238   5.063   4.245   5.386
    1   AR   Ar  239   6.462   3.787   7.696
    1   AR   Ar  240   6.074   3.864   5.983
    1   AR   Ar  241   6.893   0.540   0.011
    1   AR   Ar  242   5.091   6.249   1.347
    1   AR   Ar  243   5.962   4.587   2.032
    1   AR   Ar  244   6.715   6.244  -0.364
    1   AR   Ar  245   5.165   5.509   2.169
    1   AR   Ar  246   6.086   6.343   2.150
    1   AR   Ar  247   5.472   3.750   2.415
    1   AR   Ar  248   5.951   7.064   1.290
    1   AR   Ar  249   5.607   4.738   3.020
    1   AR   Ar  250   5.046   6.461   4.042
    1   AR   Ar  251   5.130   5.411   4.217
    1   AR   Ar  252   5.681   5.683   3.402
    1   AR   Ar  253   5.714   5.351   5.830
    1   AR   Ar  254   5.239   5.839   6.959
    1   AR   Ar  255   5.438   4.497   6.603
    1   AR   Ar  256   6.130   6.038   4.539
    7.12000  7.12000 12.00000
Argon-slab step 1155
  256
    1   AR   Ar    1   0.920   0.580  -0.899
    1   AR   Ar    2   6.794   0.716   1.073
    1   AR   Ar    3   0.233   7.002   0.652
    1   AR   Ar    4   1.098   0.669   0.147
    1   AR   Ar    5   7.020   6.116   0.989
    1   AR   Ar    6   0.404   0.164   3.091
    1   AR   Ar    7   0.132   6.045   2.126
    1   AR   Ar    8   0.332   0.001   1.698
    1   AR   Ar    9   0.347   0.839   3.918
    1   AR   Ar   10   7.074   1.763   4.450
    1   AR   Ar   11   2.148   6.873   4.380
    1   AR   Ar   12   1.051   1.201   2.693
    1   AR   Ar   13   6.541   1.079   5.368
    1   AR   Ar   14   0.320   1.417   5.801
    1   AR   Ar   15   6.951   5.834   8.552
    1   AR   Ar   16   0.757   1.129   4.802
    1   AR   Ar   17   0.094   1.465   0.043
    1   AR   Ar   18   6.984   3.378   0.289
    1   AR   Ar   19   0.674   1.277   0.957
    1   AR   Ar   20   0.912   3.218  -2.219
    1   AR   Ar   21   6.628   0.016   2.354
    1   AR   Ar   22   6.751   2.276   2.122
    1   AR   Ar   23   0.179   1.033   2.033
    1   AR   Ar   24   0.044   2.633   1.273
    1   AR   Ar   25   7.103   1.520   2.896
    1   AR   Ar   26   6.029   2.050   3.065
    1   AR   Ar   27   1.601   0.938   3.865
    1   AR   Ar   28   0.923   2.458   4.433
    1   AR   Ar   29   6.087   2.095   5.737
    1   AR   Ar   30   6.718   2.978   6.290
    1   AR   Ar   31   0.816   1.269   7.129
    1   AR   Ar   32   1.965   2.626   5.214
    1   AR   Ar   33   1.011   3.996  -1.405
    1   AR   Ar   34   0.709   5.130   1.298
    1   AR   Ar   35   0.372   3.863   1.369
    1   AR   Ar   36   2.046   6.739  -1.753
    1   AR   Ar   37   0.408   3.032   2.237
    1   AR   Ar   38   0.046   4.912   2.236
    1   AR   Ar   39   1.053   3.731   2.858
    1   AR   Ar   40   1.328   4.168   1.853
    1   AR   Ar   41   0.821   2.306   2.882
    1   AR   Ar   42   6.816   5.418   5.414
    1   AR   Ar   43   6.913   2.559   5.173
    1   AR   Ar   44   0.374   3.494   3.644
    1   AR   Ar   45   0.225   3.567   5.443
    1   AR   Ar   46   6.246   5.110   6.656
    1   AR   Ar   47   7.107   4.189   6.825
    1   AR   Ar   48   0.069   6.222   6.793
    1   AR   Ar   49   0.151   4.818  -1.409
    1   AR   Ar   50   6.465   5.482   1.629
    1   AR   Ar   51   1.288   4.767   0.242
    1   AR   Ar   52   0.119   5.405   0.118
    1   AR   Ar   53   6.377   5.470   2.717
    1   AR   Ar   54   6.821   6.483   3.163
    1   AR   Ar   55   0.431   5.527   3.303
    1   AR   Ar   56   1.092   6.270   1.395
    1   AR   Ar   57   7.096   4.009   2.915
    1   AR   Ar   58   0.006   6.042   4.268
    1   AR   Ar   59   2.067   5.841   5.036
    1   AR   Ar   60   1.097   6.809   3.874
    1   AR   Ar   61   6.267   6.290   6.008
    1   AR   Ar   62   0.253   6.292   5.257
    1   AR   Ar   63   1.269   5.268   5.932
    1   AR   Ar   64   1.230   6.658   4.909
    1   AR   Ar   65   3.078   0.457   0.211
    1   AR   Ar   66   1.479   0.574   1.290
    1   AR   Ar   67   3.026   6.400   0.514
    1   AR   Ar   68   3.763   1.023  -0.580
    1   AR   Ar   69   1.417   6.877   0.603
    1   AR   Ar   70   1.304   0.166   2.419
    1   AR   Ar   71   3.234   0.966   1.694
    1   AR   Ar   72   3.911   0.694   0.618
    1   AR   Ar   73   1.970   6.892   3.308
    1   AR   Ar   74   1.764   0.840   4.868
    1   AR   Ar   75   3.053   0.577   5.105
    1   AR   Ar   76   2.498   0.582   2.633
    1   AR   Ar   77   2.293   0.351   5.819
    1   AR   Ar   78   1.291   0.637   5.747
    1   AR   Ar   79   4.041   6.930   6.773
    1   AR   Ar   80   2.956   6.590   5.345
    1   AR   Ar   81   1.960   1.206   0.291
    1   AR   Ar   82   1.060   3.862   0.503
    1   AR   Ar   83   2.497   1.649   1.028
    1   AR   Ar   84   1.986   3.292  -2.376
    1   AR   Ar   85   1.376   2.334   0.653
    1   AR   Ar   86   1.781   3.138   2.377
    1   AR   Ar   87   1.951   1.540   2.142
    1   AR   Ar   88   2.982   3.577   1.501
    1   AR   Ar   89   0.791   2.067   1.755
    1   AR   Ar   90   2.695   1.771   5.088
    1   AR   Ar   91   2.201   2.280   4.190
    1   AR   Ar   92   1.942   1.693   3.213
    1   AR   Ar   93   1.406   1.757   5.435
    1   AR   Ar   94   2.689   1.005   8.527
    1   AR   Ar   95   3.047   6.991   6.415
    1   AR   Ar   96   1.897   1.492   6.630
    1   AR   Ar   97   2.799   3.113  -0.881
    1   AR   Ar   98   2.423   4.481   1.582
    1   AR   Ar   99   3.899   2.759  -1.459
    1   AR   Ar  100   2.170   4.133  -0.645
    1   AR   Ar  101   1.168   3.180   1.468
    1   AR   Ar  102   2.397   3.875   3.532
    1   AR   Ar  103   2.048   3.552   1.267
    1   AR   Ar  104   3.190   3.897  -0.357
    1   AR   Ar  105   1.409   3.040   3.598
    1   AR   Ar  106   2.630   3.343   4.678
    1   AR   Ar  107   2.768   3.998   5.547
    1   AR   Ar  108   3.321   3.078   4.036
    1   AR   Ar  109   1.136   3.766   4.532
    1   AR   Ar  110   1.804   4.708   4.912
    1   AR   Ar  111   3.873   4.865   6.865
    1   AR   Ar  112   1.746   4.076   5.923
    1   AR   Ar  113   2.544   4.249   0.521
    1   AR   Ar  114   2.631   5.327   0.979
    1   AR   Ar  115   3.366   4.968   0.151
    1   AR   Ar  116   3.886   6.972  -0.283
    1   AR   Ar  117   1.274   4.716   3.144
    1   AR   Ar  118   1.279   6.092   2.687
    1   AR   Ar  119   2.158   4.197   2.535
    1   AR   Ar  120   1.822   5.267   1.922
    1   AR   Ar  121   7.027   4.357   3.953
    1   AR   Ar  122   3.045   6.127   4.129
    1   AR   Ar  123   2.434   5.205   4.209
    1   AR   Ar  124   2.381   5.540   2.938
    1   AR   Ar  125   0.469   4.991   4.677
    1   AR   Ar  126   1.040   6.864   5.932
    1   AR   Ar  127   2.248   5.139   7.415
    1   AR   Ar  128   2.319   6.336   6.197
    1   AR   Ar  129   2.686   6.942   1.336
    1   AR   Ar  130   4.373   6.932  -1.559
    1   AR   Ar  131   4.656   5.947   0.185
    1   AR   Ar  132   5.794   2.325  -1.024
    1   AR   Ar  133   3.491   0.218   2.480
    1   AR   Ar  134   4.153   1.466   2.686
    1   AR   Ar  135   4.669   0.393   2.908
    1   AR   Ar  136   4.428   0.710   1.855
    1   AR   Ar  137   3.103   7.056   3.464
    1   AR   Ar  138   4.496   1.307   4.865
    1   AR   Ar  139   5.075   0.468   4.022
    1   AR   Ar  140   4.206   1.108   3.934
    1   AR   Ar  141   3.764   6.936   4.561
    1   AR   Ar  142   4.116   0.300   5.372
    1   AR   Ar  143   5.350   6.912   6.277
    1   AR   Ar  144   5.067   0.644   7.251
    1   AR   Ar  145   2.845   3.235   0.528
    1   AR   Ar  146   3.836   2.727   1.110
    1   AR   Ar  147   5.420   1.961   0.198
    1   AR   Ar  148   5.736   3.498  -1.684
    1   AR   Ar  149   4.526   1.416   0.836
    1   AR   Ar  150   2.979   1.627   2.685
    1   AR   Ar  151   3.511   1.855   3.659
    1   AR   Ar  152   2.659   2.734   2.105
    1   AR   Ar  153   3.249   0.846   3.992
    1   AR   Ar  154   4.102   2.363   4.625
    1   AR   Ar  155   5.586   0.939   5.891
    1   AR   Ar  156   4.315   3.220   3.643
    1   AR   Ar  157   3.725   1.978   5.464
    1   AR   Ar  158   2.951   2.223   6.132
    1   AR   Ar  159   4.629   0.837   6.172
    1   AR   Ar  160   4.433   2.833   5.864
    1   AR   Ar  161   4.614   2.998  -0.246
    1   AR   Ar  162   4.466   4.942   1.047
    1   AR   Ar  163   5.612   2.999   0.034
    1   AR   Ar  164   5.434   5.079   1.059
    1   AR   Ar  165   3.170   3.710   2.710
    1   AR   Ar  166   3.043   4.759   3.003
    1   AR   Ar  167   4.426   2.875   2.764
    1   AR   Ar  168   4.070   3.799   0.478
    1   AR   Ar  169   2.721   2.653   3.157
    1   AR   Ar  170   3.213   4.083   4.329
    1   AR   Ar  171   3.882   3.604   4.894
    1   AR   Ar  172   4.270   4.652   4.107
    1   AR   Ar  173   3.260   2.902   5.511
    1   AR   Ar  174   4.342   4.995   5.895
    1   AR   Ar  175   4.179   3.935   5.845
    1   AR   Ar  176   3.374   5.045   4.940
    1   AR   Ar  177   5.674   5.000  -0.262
    1   AR   Ar  178   4.065   6.878   1.126
    1   AR   Ar  179   3.564   5.800   1.170
    1   AR   Ar  180   4.487   4.728  -0.423
    1   AR   Ar  181   3.046   5.513   2.072
    1   AR   Ar  182   2.395   6.755   2.304
    1   AR   Ar  183   3.663   4.513   1.709
    1   AR   Ar  184   4.277   5.940   2.107
    1   AR   Ar  185   1.485   5.624   3.790
    1   AR   Ar  186   3.455   5.088   3.826
    1   AR   Ar  187   4.497   5.343   3.106
    1   AR   Ar  188   3.309   6.224   2.772
    1   AR   Ar  189   2.360   5.037   5.962
    1   AR   Ar  190   4.109   5.806   6.436
    1   AR   Ar  191   5.080   6.194   5.276
    1   AR   Ar  192   4.062   6.044   4.838
    1   AR   Ar  193   5.926   6.905  -0.073
    1   AR   Ar  194   4.983   0.187  -0.572
    1   AR   Ar  195   6.013   0.971   0.569
    1   AR   Ar  196   6.312   1.336  -0.656
    1   AR   Ar  197   5.098   0.494   0.822
    1   AR   Ar  198   5.814   1.145   1.620
    1   AR   Ar  199   5.365   0.262   2.053
    1   AR   Ar  200   6.444   1.921   0.904
    1   AR   Ar  201   5.185   6.464   2.781
    1   AR   Ar  202   5.327   1.457   3.881
    1   AR   Ar  203   0.093   0.046   4.556
    1   AR   Ar  204   5.805   0.164   2.984
    1   AR   Ar  205   6.060   6.993   3.999
    1   AR   Ar  206   5.289   0.313   5.108
    1   AR   Ar  207   0.063   0.496   5.716
    1   AR   Ar  208   6.444   1.064   3.558
    1   AR   Ar  209   6.738   2.848  -1.815
    1   AR   Ar  210   4.646   2.567   1.715
    1   AR   Ar  211   6.528   2.297  -0.094
    1   AR   Ar  212   6.245   3.923  -0.547
    1   AR   Ar  213   3.622   2.295   2.328
    1   AR   Ar  214   4.057   3.421   1.938
    1   AR   Ar  215   5.739   2.166   1.989
    1   AR   Ar  216   6.252   3.319   1.645
    1   AR   Ar  217   5.166   2.580   3.918
    1   AR   Ar  218   5.028   2.355   5.012
    1   AR   Ar  219   5.474   1.172   2.827
    1   AR   Ar  220   6.107   3.493   3.216
    1   AR   Ar  221   6.273   7.090   5.315
    1   AR   Ar  222   5.247   1.955   6.488
    1   AR   Ar  223   6.273   0.961   7.058
    1   AR   Ar  224   5.323   3.154   5.513
    1   AR   Ar  225   5.200   4.221   0.384
    1   AR   Ar  226   4.669   4.403   2.142
    1   AR   Ar  227   6.581   4.449   1.269
    1   AR   Ar  228   6.314   5.257   0.615
    1   AR   Ar  229   6.111   3.785   0.628
    1   AR   Ar  230   4.001   4.338   3.080
    1   AR   Ar  231   6.994   2.570   3.322
    1   AR   Ar  232   5.040   3.946   1.323
    1   AR   Ar  233   5.945   2.700   4.643
    1   AR   Ar  234   6.196   4.360   4.953
    1   AR   Ar  235   6.695   3.354   4.325
    1   AR   Ar  236   5.160   3.853   3.526
    1   AR   Ar  237   4.876   3.439   4.550
    1   AR   Ar  238   5.087   4.252   5.413
    1   AR   Ar  239   6.464   3.806   7.675
    1   AR   Ar  240   6.086   3.851   5.975
    1   AR   Ar  241   6.839   0.536   0.046
    1   AR   Ar  242   5.102   6.261   1.356
    1   AR   Ar  243   5.951   4.595   2.042
    1   AR   Ar  244   6.737   6.230  -0.359
    1   AR   Ar  245   5.195   5.519   2.191
    1   AR   Ar  246   6.082   6.358   2.121
    1   AR   Ar  247   5.488   3.749   2.413
    1   AR   Ar  248   5.959   7.082   1.279
    1   AR   Ar  249   5.600   4.743   3.030
    1   AR   Ar  250   5.098   6.448   4.040
    1   AR   Ar  251   5.172   5.408   4.229
    1   AR   Ar  252   5.673   5.686   3.394
    1   AR   Ar  253   5.700   5.370   5.834
    1   AR   Ar  254   5.223   5.835   6.962
    1   AR   Ar  255   5.427   4.510   6.603
    1   AR   Ar  256   6.121   6.058   4.570
    7.12000  7.12000 12.00000
Argon-slab step 1160
  256
    1   AR   Ar    1   0.918   0.611  -0.905
    1   AR   Ar    2   6.750   0.707   1.077
    1   AR   Ar    3   0.264   7.027   0.653
    1   AR   Ar    4   1.083   0.681   0.141
    1   AR   Ar    5   7.034   6.091   0.989
    1   AR   Ar    6   0.406   0.186   3.087
    1   AR   Ar    7   0.151   6.041   2.137
    1   AR   Ar    8   0.319   0.009   1.699
    1   AR   Ar    9   0.332   0.852   3.942
    1   AR   Ar   10   7.077   1.768   4.488
    1   AR   Ar   11   2.166   6.886   4.385
    1   AR   Ar   12   1.073   1.202   2.673
    1   AR   Ar   13   6.506   1.116   5.349
    1   AR   Ar   14   0.334   1.415   5.788
    1   AR   Ar   15   6.928   5.838   8.558
    1   AR   Ar   16   0.750   1.164   4.805
    1   AR   Ar   17   0.118   1.434   0.053
    1   AR   Ar   18   6.972   3.379   0.320
    1   AR   Ar   19   0.663   1.273   0.946
    1   AR   Ar   20   0.948   3.221  -2.231
    1   AR   Ar   21   6.632   0.019   2.343
    1   AR   Ar   22   6.786   2.265   2.122
    1   AR   Ar   23   0.188   1.045   2.033
    1   AR   Ar   24   0.047   2.626   1.271
    1   AR   Ar   25   7.084   1.521   2.856
    1   AR   Ar   26   6.043   2.021   3.044
    1   AR   Ar   27   1.613   0.953   3.845
    1   AR   Ar   28   0.931   2.428   4.435
    1   AR   Ar   29   6.109   2.076   5.758
    1   AR   Ar   30   6.719   2.975   6.284
    1   AR   Ar   31   0.769   1.243   7.136
    1   AR   Ar   32   1.976   2.641   5.244
    1   AR   Ar   33   0.990   4.022  -1.371
    1   AR   Ar   34   0.674   5.122   1.347
    1   AR   Ar   35   0.362   3.907   1.382
    1   AR   Ar   36   2.054   6.737  -1.753
    1   AR   Ar   37   0.416   3.008   2.251
    1   AR   Ar   38   0.060   4.903   2.214
    1   AR   Ar   39   1.063   3.747   2.846
    1   AR   Ar   40   1.345   4.187   1.819
    1   AR   Ar   41   0.802   2.293   2.878
    1   AR   Ar   42   6.828   5.436   5.405
    1   AR   Ar   43   6.902   2.571   5.165
    1   AR   Ar   44   0.371   3.454   3.697
    1   AR   Ar   45   0.260   3.555   5.422
    1   AR   Ar   46   6.245   5.102   6.647
    1   AR   Ar   47   7.118   4.213   6.818
    1   AR   Ar   48   0.046   6.238   6.771
    1   AR   Ar   49   0.108   4.829  -1.427
    1   AR   Ar   50   6.475   5.479   1.640
    1   AR   Ar   51   1.305   4.805   0.216
    1   AR   Ar   52   0.117   5.389   0.111
    1   AR   Ar   53   6.389   5.481   2.723
    1   AR   Ar   54   6.851   6.475   3.165
    1   AR   Ar   55   0.439   5.516   3.300
    1   AR   Ar   56   1.118   6.263   1.374
    1   AR   Ar   57   7.079   4.014   2.913
    1   AR   Ar   58   0.021   6.025   4.252
    1   AR   Ar   59   2.097   5.802   5.050
    1   AR   Ar   60   1.112   6.846   3.895
    1   AR   Ar   61   6.271   6.285   6.008
    1   AR   Ar   62   0.277   6.302   5.271
    1   AR   Ar   63   1.278   5.309   5.929
    1   AR   Ar   64   1.243   6.643   4.923
    1   AR   Ar   65   3.083   0.440   0.233
    1   AR   Ar   66   1.455   0.576   1.320
    1   AR   Ar   67   3.039   6.407   0.515
    1   AR   Ar   68   3.774   1.025  -0.592
    1   AR   Ar   69   1.412   6.848   0.593
    1   AR   Ar   70   1.304   0.162   2.425
    1   AR   Ar   71   3.235   0.944   1.684
    1   AR   Ar   72   3.886   0.696   0.607
    1   AR   Ar   73   1.964   6.934   3.317
    1   AR   Ar   74   1.769   0.831   4.848
    1   AR   Ar   75   3.054   0.564   5.070
    1   AR   Ar   76   2.458   0.556   2.607
    1   AR   Ar   77   2.283   0.339   5.832
    1   AR   Ar   78   1.308   0.640   5.736
    1   AR   Ar   79   4.040   6.954   6.753
    1   AR   Ar   80   2.947   6.585   5.297
    1   AR   Ar   81   1.940   1.196   0.280
    1   AR   Ar   82   1.012   3.834   0.479
    1   AR   Ar   83   2.476   1.638   1.023
    1   AR   Ar   84   1.978   3.301  -2.422
    1   AR   Ar   85   1.361   2.358   0.642
    1   AR   Ar   86   1.769   3.183   2.364
    1   AR   Ar   87   1.987   1.543   2.148
    1   AR   Ar   88   2.978   3.560   1.526
    1   AR   Ar   89   0.807   2.060   1.792
    1   AR   Ar   90   2.658   1.758   5.104
    1   AR   Ar   91   2.204   2.287   4.165
    1   AR   Ar   92   1.936   1.687   3.214
    1   AR   Ar   93   1.427   1.752   5.412
    1   AR   Ar   94   2.705   0.992   8.510
    1   AR   Ar   95   3.065   6.977   6.423
    1   AR   Ar   96   1.910   1.451   6.610
    1   AR   Ar   97   2.790   3.090  -0.891
    1   AR   Ar   98   2.432   4.458   1.574
    1   AR   Ar   99   3.893   2.756  -1.456
    1   AR   Ar  100   2.140   4.153  -0.635
    1   AR   Ar  101   1.124   3.160   1.460
    1   AR   Ar  102   2.397   3.878   3.566
    1   AR   Ar  103   2.031   3.557   1.240
    1   AR   Ar  104   3.167   3.883  -0.368
    1   AR   Ar  105   1.431   3.052   3.571
    1   AR   Ar  106   2.633   3.350   4.687
    1   AR   Ar  107   2.756   3.992   5.540
    1   AR   Ar  108   3.323   3.064   4.026
    1   AR   Ar  109   1.145   3.755   4.547
    1   AR   Ar  110   1.800   4.727   4.925
    1   AR   Ar  111   3.893   4.851   6.857
    1   AR   Ar  112   1.799   4.080   5.934
    1   AR   Ar  113   2.544   4.231   0.529
    1   AR   Ar  114   2.665   5.308   0.987
    1   AR   Ar  115   3.368   4.964   0.182
    1   AR   Ar  116   3.907   6.974  -0.299
    1   AR   Ar  117   1.267   4.715   3.158
    1   AR   Ar  118   1.265   6.098   2.704
    1   AR   Ar  119   2.140   4.205   2.525
    1   AR   Ar  120   1.852   5.262   1.914
    1   AR   Ar  121   6.999   4.351   3.968
    1   AR   Ar  122   3.029   6.132   4.118
    1   AR   Ar  123   2.451   5.204   4.205
    1   AR   Ar  124   2.419   5.549   2.936
    1   AR   Ar  125   0.455   4.961   4.667
    1   AR   Ar  126   1.023   6.858   5.913
    1   AR   Ar  127   2.268   5.198   7.411
    1   AR   Ar  128   2.328   6.327   6.213
    1   AR   Ar  129   2.703   6.973   1.324
    1   AR   Ar  130   4.403   6.938  -1.589
    1   AR   Ar  131   4.650   5.946   0.185
    1   AR   Ar  132   5.809   2.337  -1.058
    1   AR   Ar  133   3.472   0.240   2.482
    1   AR   Ar  134   4.152   1.476   2.689
    1   AR   Ar  135   4.672   0.395   2.910
    1   AR   Ar  136   4.409   0.697   1.833
    1   AR   Ar  137   3.091   7.046   3.490
    1   AR   Ar  138   4.508   1.305   4.863
    1   AR   Ar  139   5.081   0.478   4.023
    1   AR   Ar  140   4.237   1.102   3.918
    1   AR   Ar  141   3.764   6.959   4.531
    1   AR   Ar  142   4.137   0.269   5.367
    1   AR   Ar  143   5.380   6.904   6.287
    1   AR   Ar  144   5.052   0.667   7.232
    1   AR   Ar  145   2.862   3.219   0.543
    1   AR   Ar  146   3.848   2.745   1.107
    1   AR   Ar  147   5.425   1.988   0.169
    1   AR   Ar  148   5.743   3.485  -1.694
    1   AR   Ar  149   4.524   1.412   0.812
    1   AR   Ar  150   2.989   1.631   2.715
    1   AR   Ar  151   3.509   1.850   3.663
    1   AR   Ar  152   2.648   2.729   2.095
    1   AR   Ar  153   3.221   0.896   4.007
    1   AR   Ar  154   4.113   2.370   4.637
    1   AR   Ar  155   5.603   0.911   5.909
    1   AR   Ar  156   4.322   3.243   3.645
    1   AR   Ar  157   3.754   1.970   5.480
    1   AR   Ar  158   2.930   2.224   6.117
    1   AR   Ar  159   4.652   0.828   6.192
    1   AR   Ar  160   4.444   2.843   5.850
    1   AR   Ar  161   4.616   3.028  -0.237
    1   AR   Ar  162   4.443   4.925   1.048
    1   AR   Ar  163   5.644   3.009   0.007
    1   AR   Ar  164   5.440   5.112   1.048
    1   AR   Ar  165   3.203   3.698   2.702
    1   AR   Ar  166   2.993   4.735   2.989
    1   AR   Ar  167   4.447   2.858   2.739
    1   AR   Ar  168   4.077   3.815   0.455
    1   AR   Ar  169   2.753   2.634   3.190
    1   AR   Ar  170   3.236   4.091   4.339
    1   AR   Ar  171   3.900   3.610   4.895
    1   AR   Ar  172   4.310   4.626   4.103
    1   AR   Ar  173   3.292   2.897   5.535
    1   AR   Ar  174   4.334   5.001   5.926
    1   AR   Ar  175   4.199   3.921   5.862
    1   AR   Ar  176   3.343   5.082   4.937
    1   AR   Ar  177   5.682   4.968  -0.291
    1   AR   Ar  178   4.094   6.852   1.135
    1   AR   Ar  179   3.571   5.852   1.166
    1   AR   Ar  180   4.502   4.687  -0.419
    1   AR   Ar  181   3.054   5.524   2.068
    1   AR   Ar  182   2.386   6.756   2.299
    1   AR   Ar  183   3.704   4.559   1.674
    1   AR   Ar  184   4.310   5.950   2.083
    1   AR   Ar  185   1.468   5.625   3.785
    1   AR   Ar  186   3.459   5.088   3.840
    1   AR   Ar  187   4.492   5.345   3.136
    1   AR   Ar  188   3.306   6.203   2.782
    1   AR   Ar  189   2.367   5.021   5.969
    1   AR   Ar  190   4.104   5.801   6.413
    1   AR   Ar  191   5.103   6.209   5.287
    1   AR   Ar  192   4.100   6.033   4.849
    1   AR   Ar  193   5.919   6.889  -0.106
    1   AR   Ar  194   4.978   0.204  -0.585
    1   AR   Ar  195   5.993   0.981   0.535
    1   AR   Ar  196   6.317   1.312  -0.664
    1   AR   Ar  197   5.107   0.495   0.841
    1   AR   Ar  198   5.828   1.135   1.631
    1   AR   Ar  199   5.330   0.281   2.029
    1   AR   Ar  200   6.441   1.955   0.893
    1   AR   Ar  201   5.157   6.445   2.800
    1   AR   Ar  202   5.350   1.438   3.876
    1   AR   Ar  203   0.089   0.039   4.551
    1   AR   Ar  204   5.794   0.171   2.969
    1   AR   Ar  205   6.093   6.982   4.001
    1   AR   Ar  206   5.307   0.303   5.105
    1   AR   Ar  207   0.050   0.468   5.714
    1   AR   Ar  208   6.416   1.064   3.567
    1   AR   Ar  209   6.709   2.825  -1.851
    1   AR   Ar  210   4.663   2.566   1.729
    1   AR   Ar  211   6.518   2.307  -0.079
    1   AR   Ar  212   6.235   3.940  -0.519
    1   AR   Ar  213   3.659   2.303   2.355
    1   AR   Ar  214   4.094   3.453   1.923
    1   AR   Ar  215   5.756   2.162   1.976
    1   AR   Ar  216   6.247   3.347   1.629
    1   AR   Ar  217   5.189   2.569   3.898
    1   AR   Ar  218   4.997   2.392   5.000
    1   AR   Ar  219   5.447   1.169   2.810
    1   AR   Ar  220   6.126   3.496   3.222
    1   AR   Ar  221   6.297   7.102   5.290
    1   AR   Ar  222   5.230   1.959   6.476
    1   AR   Ar  223   6.252   0.924   7.056
    1   AR   Ar  224   5.344   3.176   5.502
    1   AR   Ar  225   5.200   4.235   0.390
    1   AR   Ar  226   4.679   4.415   2.165
    1   AR   Ar  227   6.596   4.461   1.266
    1   AR   Ar  228   6.328   5.273   0.603
    1   AR   Ar  229   6.116   3.798   0.621
    1   AR   Ar  230   3.984   4.318   3.090
    1   AR   Ar  231   6.994   2.575   3.306
    1   AR   Ar  232   5.037   3.918   1.348
    1   AR   Ar  233   5.943   2.691   4.651
    1   AR   Ar  234   6.187   4.335   4.950
    1   AR   Ar  235   6.700   3.347   4.300
    1   AR   Ar  236   5.176   3.847   3.549
    1   AR   Ar  237   4.890   3.451   4.557
    1   AR   Ar  238   5.113   4.259   5.436
    1   AR   Ar  239   6.469   3.822   7.656
    1   AR   Ar  240   6.111   3.826   5.980
    1   AR   Ar  241   6.781   0.525   0.073
    1   AR   Ar  242   5.096   6.266   1.374
    1   AR   Ar  243   5.937   4.607   2.053
    1   AR   Ar  244   6.759   6.217  -0.354
    1   AR   Ar  245   5.234   5.524   2.214
    1   AR   Ar  246   6.069   6.364   2.091
    1   AR   Ar  247   5.479   3.713   2.392
    1   AR   Ar  248   5.971   7.099   1.264
    1   AR   Ar  249   5.589   4.741   3.038
    1   AR   Ar  250   5.150   6.439   4.038
    1   AR   Ar  251   5.219   5.399   4.239
    1   AR   Ar  252   5.664   5.702   3.387
    1   AR   Ar  253   5.682   5.389   5.832
    1   AR   Ar  254   5.196   5.848   6.958
    1   AR   Ar  255   5.420   4.525   6.593
    1   AR   Ar  256   6.108   6.079   4.604
    7.12000  7.12000 12.00000
Argon-slab step 1165
  256
    1   AR   Ar    1   0.915   0.642  -0.913
    1   AR   Ar    2   6.719   0.696   1.096
    1   AR   Ar    3   0.300   7.053   0.652
    1   AR   Ar    4   1.061   0.688   0.137
    1   AR   Ar    5   7.050   6.065   0.990
    1   AR   Ar    6   0.410   0.210   3.082
    1   AR   Ar    7   0.170   6.039   2.149
    1   AR   Ar    8   0.311   0.016   1.701
    1   AR   Ar    9   0.314   0.866   3.957
    1   AR   Ar   10   7.076   1.773   4.524
    1   AR   Ar   11   2.186   6.898   4.391
    1   AR   Ar   12   1.095   1.204   2.653
    1   AR   Ar   13   6.465   1.161   5.324
    1   AR   Ar   14   0.352   1.424   5.775
    1   AR   Ar   15   6.905   5.841   8.563
    1   AR   Ar   16   0.747   1.199   4.814
    1   AR   Ar   17   0.142   1.408   0.061
    1   AR   Ar   18   6.967   3.376   0.349
    1   AR   Ar   19   0.651   1.270   0.939
    1   AR   Ar   20   0.980   3.224  -2.242
    1   AR   Ar   21   6.640   0.031   2.334
    1   AR   Ar   22   6.819   2.250   2.130
    1   AR   Ar   23   0.199   1.051   2.021
    1   AR   Ar   24   0.053   2.633   1.259
    1   AR   Ar   25   7.065   1.529   2.828
    1   AR   Ar   26   6.048   1.994   3.049
    1   AR   Ar   27   1.622   0.963   3.822
    1   AR   Ar   28   0.939   2.398   4.436
    1   AR   Ar   29   6.129   2.056   5.763
    1   AR   Ar   30   6.721   2.971   6.277
    1   AR   Ar   31   0.722   1.217   7.142
    1   AR   Ar   32   1.988   2.659   5.272
    1   AR   Ar   33   0.968   4.047  -1.336
    1   AR   Ar   34   0.640   5.115   1.395
    1   AR   Ar   35   0.351   3.950   1.397
    1   AR   Ar   36   2.060   6.721  -1.748
    1   AR   Ar   37   0.422   2.992   2.264
    1   AR   Ar   38   0.073   4.892   2.194
    1   AR   Ar   39   1.068   3.763   2.833
    1   AR   Ar   40   1.354   4.195   1.797
    1   AR   Ar   41   0.780   2.288   2.905
    1   AR   Ar   42   6.836   5.452   5.395
    1   AR   Ar   43   6.893   2.584   5.158
    1   AR   Ar   44   0.378   3.419   3.739
    1   AR   Ar   45   0.293   3.544   5.401
    1   AR   Ar   46   6.254   5.097   6.642
    1   AR   Ar   47   7.094   4.157   6.814
    1   AR   Ar   48   0.023   6.253   6.748
    1   AR   Ar   49   0.066   4.841  -1.444
    1   AR   Ar   50   6.483   5.475   1.651
    1   AR   Ar   51   1.323   4.846   0.191
    1   AR   Ar   52   0.121   5.372   0.103
    1   AR   Ar   53   6.406   5.491   2.725
    1   AR   Ar   54   6.879   6.463   3.168
    1   AR   Ar   55   0.423   5.511   3.307
    1   AR   Ar   56   1.139   6.251   1.360
    1   AR   Ar   57   7.061   4.021   2.907
    1   AR   Ar   58   0.038   6.008   4.233
    1   AR   Ar   59   2.127   5.766   5.066
    1   AR   Ar   60   1.122   6.884   3.915
    1   AR   Ar   61   6.276   6.279   6.007
    1   AR   Ar   62   0.295   6.310   5.276
    1   AR   Ar   63   1.287   5.349   5.924
    1   AR   Ar   64   1.258   6.627   4.936
    1   AR   Ar   65   3.056   0.412   0.241
    1   AR   Ar   66   1.430   0.587   1.329
    1   AR   Ar   67   3.052   6.432   0.513
    1   AR   Ar   68   3.784   1.025  -0.603
    1   AR   Ar   69   1.408   6.822   0.579
    1   AR   Ar   70   1.305   0.157   2.431
    1   AR   Ar   71   3.237   0.923   1.673
    1   AR   Ar   72   3.860   0.706   0.599
    1   AR   Ar   73   1.961   6.976   3.322
    1   AR   Ar   74   1.780   0.820   4.829
    1   AR   Ar   75   3.064   0.547   5.067
    1   AR   Ar   76   2.416   0.546   2.586
    1   AR   Ar   77   2.276   0.325   5.843
    1   AR   Ar   78   1.320   0.661   5.726
    1   AR   Ar   79   4.046   6.977   6.734
    1   AR   Ar   80   2.938   6.580   5.249
    1   AR   Ar   81   1.922   1.187   0.266
    1   AR   Ar   82   0.963   3.801   0.459
    1   AR   Ar   83   2.459   1.629   1.025
    1   AR   Ar   84   1.972   3.311  -2.468
    1   AR   Ar   85   1.346   2.382   0.634
    1   AR   Ar   86   1.757   3.227   2.351
    1   AR   Ar   87   2.024   1.546   2.151
    1   AR   Ar   88   2.990   3.545   1.557
    1   AR   Ar   89   0.825   2.052   1.831
    1   AR   Ar   90   2.621   1.745   5.119
    1   AR   Ar   91   2.205   2.291   4.144
    1   AR   Ar   92   1.933   1.688   3.212
    1   AR   Ar   93   1.447   1.744   5.390
    1   AR   Ar   94   2.721   0.979   8.492
    1   AR   Ar   95   3.085   6.968   6.430
    1   AR   Ar   96   1.922   1.410   6.588
    1   AR   Ar   97   2.779   3.062  -0.903
    1   AR   Ar   98   2.445   4.438   1.565
    1   AR   Ar   99   3.887   2.753  -1.453
    1   AR   Ar  100   2.110   4.173  -0.624
    1   AR   Ar  101   1.075   3.135   1.451
    1   AR   Ar  102   2.381   3.868   3.600
    1   AR   Ar  103   2.007   3.561   1.207
    1   AR   Ar  104   3.148   3.874  -0.373
    1   AR   Ar  105   1.454   3.062   3.545
    1   AR   Ar  106   2.624   3.352   4.703
    1   AR   Ar  107   2.751   3.987   5.531
    1   AR   Ar  108   3.332   3.046   4.010
    1   AR   Ar  109   1.153   3.743   4.561
    1   AR   Ar  110   1.795   4.745   4.940
    1   AR   Ar  111   3.911   4.834   6.853
    1   AR   Ar  112   1.847   4.084   5.946
    1   AR   Ar  113   2.542   4.216   0.536
    1   AR   Ar  114   2.698   5.290   0.995
    1   AR   Ar  115   3.359   4.968   0.217
    1   AR   Ar  116   3.929   6.976  -0.313
    1   AR   Ar  117   1.262   4.718   3.173
    1   AR   Ar  118   1.252   6.105   2.722
    1   AR   Ar  119   2.122   4.212   2.520
    1   AR   Ar  120   1.881   5.266   1.904
    1   AR   Ar  121   6.969   4.348   3.983
    1   AR   Ar  122   3.013   6.138   4.107
    1   AR   Ar  123   2.466   5.203   4.197
    1   AR   Ar  124   2.415   5.573   2.934
    1   AR   Ar  125   0.441   4.932   4.658
    1   AR   Ar  126   0.999   6.836   5.902
    1   AR   Ar  127   2.287   5.257   7.407
    1   AR   Ar  128   2.331   6.312   6.225
    1   AR   Ar  129   2.710   7.001   1.312
    1   AR   Ar  130   4.432   6.944  -1.617
    1   AR   Ar  131   4.644   5.944   0.186
    1   AR   Ar  132   5.824   2.351  -1.090
    1   AR   Ar  133   3.456   0.261   2.484
    1   AR   Ar  134   4.155   1.478   2.695
    1   AR   Ar  135   4.674   0.396   2.914
    1   AR   Ar  136   4.385   0.685   1.808
    1   AR   Ar  137   3.078   7.036   3.516
    1   AR   Ar  138   4.522   1.304   4.871
    1   AR   Ar  139   5.088   0.478   4.024
    1   AR   Ar  140   4.269   1.095   3.893
    1   AR   Ar  141   3.758   6.984   4.492
    1   AR   Ar  142   4.162   0.242   5.367
    1   AR   Ar  143   5.410   6.897   6.294
    1   AR   Ar  144   5.039   0.689   7.211
    1   AR   Ar  145   2.878   3.248   0.561
    1   AR   Ar  146   3.856   2.765   1.102
    1   AR   Ar  147   5.431   2.011   0.141
    1   AR   Ar  148   5.751   3.472  -1.703
    1   AR   Ar  149   4.531   1.420   0.791
    1   AR   Ar  150   2.994   1.630   2.747
    1   AR   Ar  151   3.507   1.851   3.666
    1   AR   Ar  152   2.656   2.727   2.102
    1   AR   Ar  153   3.188   0.942   4.024
    1   AR   Ar  154   4.108   2.383   4.633
    1   AR   Ar  155   5.630   0.885   5.927
    1   AR   Ar  156   4.325   3.269   3.657
    1   AR   Ar  157   3.784   1.954   5.501
    1   AR   Ar  158   2.900   2.213   6.114
    1   AR   Ar  159   4.655   0.807   6.213
    1   AR   Ar  160   4.447   2.850   5.835
    1   AR   Ar  161   4.616   3.059  -0.229
    1   AR   Ar  162   4.417   4.907   1.045
    1   AR   Ar  163   5.681   3.023  -0.020
    1   AR   Ar  164   5.447   5.144   1.044
    1   AR   Ar  165   3.233   3.682   2.692
    1   AR   Ar  166   2.945   4.704   2.972
    1   AR   Ar  167   4.473   2.838   2.709
    1   AR   Ar  168   4.084   3.831   0.434
    1   AR   Ar  169   2.784   2.616   3.223
    1   AR   Ar  170   3.255   4.111   4.340
    1   AR   Ar  171   3.901   3.593   4.904
    1   AR   Ar  172   4.359   4.594   4.102
    1   AR   Ar  173   3.329   2.909   5.546
    1   AR   Ar  174   4.333   4.993   5.944
    1   AR   Ar  175   4.217   3.907   5.881
    1   AR   Ar  176   3.311   5.119   4.934
    1   AR   Ar  177   5.690   4.936  -0.320
    1   AR   Ar  178   4.124   6.826   1.144
    1   AR   Ar  179   3.586   5.899   1.166
    1   AR   Ar  180   4.518   4.646  -0.411
    1   AR   Ar  181   3.061   5.529   2.058
    1   AR   Ar  182   2.375   6.741   2.294
    1   AR   Ar  183   3.738   4.602   1.643
    1   AR   Ar  184   4.337   5.963   2.059
    1   AR   Ar  185   1.452   5.627   3.781
    1   AR   Ar  186   3.460   5.094   3.855
    1   AR   Ar  187   4.487   5.347   3.167
    1   AR   Ar  188   3.306   6.187   2.797
    1   AR   Ar  189   2.376   5.006   5.973
    1   AR   Ar  190   4.096   5.812   6.398
    1   AR   Ar  191   5.129   6.224   5.298
    1   AR   Ar  192   4.138   6.016   4.861
    1   AR   Ar  193   5.911   6.875  -0.137
    1   AR   Ar  194   4.972   0.220  -0.598
    1   AR   Ar  195   5.958   1.000   0.492
    1   AR   Ar  196   6.313   1.307  -0.662
    1   AR   Ar  197   5.113   0.493   0.862
    1   AR   Ar  198   5.835   1.132   1.646
    1   AR   Ar  199   5.297   0.296   2.008
    1   AR   Ar  200   6.436   1.984   0.887
    1   AR   Ar  201   5.128   6.426   2.818
    1   AR   Ar  202   5.375   1.427   3.871
    1   AR   Ar  203   0.085   0.029   4.549
    1   AR   Ar  204   5.791   0.180   2.953
    1   AR   Ar  205   6.127   6.973   4.003
    1   AR   Ar  206   5.321   0.291   5.099
    1   AR   Ar  207   0.044   0.420   5.715
    1   AR   Ar  208   6.385   1.063   3.578
    1   AR   Ar  209   6.678   2.802  -1.885
    1   AR   Ar  210   4.685   2.562   1.744
    1   AR   Ar  211   6.507   2.318  -0.068
    1   AR   Ar  212   6.224   3.956  -0.489
    1   AR   Ar  213   3.693   2.319   2.376
    1   AR   Ar  214   4.128   3.489   1.907
    1   AR   Ar  215   5.785   2.161   1.965
    1   AR   Ar  216   6.242   3.376   1.612
    1   AR   Ar  217   5.211   2.557   3.876
    1   AR   Ar  218   4.979   2.418   4.991
    1   AR   Ar  219   5.419   1.167   2.791
    1   AR   Ar  220   6.148   3.496   3.229
    1   AR   Ar  221   6.322   7.113   5.264
    1   AR   Ar  222   5.212   1.961   6.462
    1   AR   Ar  223   6.229   0.888   7.051
    1   AR   Ar  224   5.376   3.208   5.494
    1   AR   Ar  225   5.197   4.251   0.390
    1   AR   Ar  226   4.689   4.433   2.193
    1   AR   Ar  227   6.613   4.474   1.263
    1   AR   Ar  228   6.345   5.291   0.585
    1   AR   Ar  229   6.114   3.811   0.615
    1   AR   Ar  230   3.971   4.297   3.101
    1   AR   Ar  231   6.990   2.581   3.290
    1   AR   Ar  232   5.031   3.887   1.354
    1   AR   Ar  233   5.945   2.678   4.668
    1   AR   Ar  234   6.179   4.310   4.947
    1   AR   Ar  235   6.698   3.340   4.279
    1   AR   Ar  236   5.192   3.844   3.571
    1   AR   Ar  237   4.907   3.463   4.564
    1   AR   Ar  238   5.142   4.268   5.458
    1   AR   Ar  239   6.473   3.839   7.636
    1   AR   Ar  240   6.136   3.803   5.984
    1   AR   Ar  241   6.723   0.507   0.089
    1   AR   Ar  242   5.092   6.271   1.391
    1   AR   Ar  243   5.922   4.622   2.064
    1   AR   Ar  244   6.780   6.205  -0.347
    1   AR   Ar  245   5.280   5.523   2.238
    1   AR   Ar  246   6.048   6.362   2.060
    1   AR   Ar  247   5.467   3.674   2.371
    1   AR   Ar  248   5.987   7.114   1.247
    1   AR   Ar  249   5.576   4.735   3.047
    1   AR   Ar  250   5.199   6.432   4.036
    1   AR   Ar  251   5.262   5.385   4.256
    1   AR   Ar  252   5.654   5.726   3.380
    1   AR   Ar  253   5.660   5.408   5.826
    1   AR   Ar  254   5.169   5.861   6.952
    1   AR   Ar  255   5.406   4.535   6.580
    1   AR   Ar  256   6.094   6.098   4.640
    7.12000  7.12000 12.00000
Argon-slab step 1170
  256
    1   AR   Ar    1   0.911   0.673  -0.922
    1   AR   Ar    2   6.699   0.690   1.125
    1   AR   Ar    3   0.321   7.052   0.644
    1   AR   Ar    4   1.031   0.689   0.134
    1   AR   Ar    5   7.068   6.041   0.991
    1   AR   Ar    6   0.413   0.235   3.075
    1   AR   Ar    7   0.189   6.038   2.161
    1   AR   Ar    8   0.310   0.021   1.700
    1   AR   Ar    9   0.296   0.881   3.965
    1   AR   Ar   10   7.071   1.778   4.556
    1   AR   Ar   11   2.208   6.912   4.399
    1   AR   Ar   12   1.115   1.207   2.635
    1   AR   Ar   13   6.426   1.203   5.293
    1   AR   Ar   14   0.371   1.437   5.765
    1   AR   Ar   15   6.882   5.845   8.569
    1   AR   Ar   16   0.751   1.229   4.828
    1   AR   Ar   17   0.164   1.386   0.065
    1   AR   Ar   18   6.971   3.368   0.378
    1   AR   Ar   19   0.641   1.267   0.940
    1   AR   Ar   20   1.006   3.227  -2.251
    1   AR   Ar   21   6.649   0.049   2.329
    1   AR   Ar   22   6.850   2.232   2.141
    1   AR   Ar   23   0.213   1.050   1.995
    1   AR   Ar   24   0.063   2.647   1.242
    1   AR   Ar   25   7.044   1.541   2.816
    1   AR   Ar   26   6.047   1.970   3.071
    1   AR   Ar   27   1.626   0.965   3.800
    1   AR   Ar   28   0.947   2.368   4.438
    1   AR   Ar   29   6.108   2.027   5.758
    1   AR   Ar   30   6.723   2.964   6.269
    1   AR   Ar   31   0.676   1.191   7.147
    1   AR   Ar   32   1.979   2.659   5.300
    1   AR   Ar   33   0.964   4.081  -1.339
    1   AR   Ar   34   0.610   5.111   1.435
    1   AR   Ar   35   0.345   3.989   1.414
    1   AR   Ar   36   2.066   6.704  -1.743
    1   AR   Ar   37   0.427   2.984   2.277
    1   AR   Ar   38   0.083   4.877   2.182
    1   AR   Ar   39   1.064   3.781   2.821
    1   AR   Ar   40   1.352   4.185   1.796
    1   AR   Ar   41   0.765   2.277   2.935
    1   AR   Ar   42   6.829   5.465   5.377
    1   AR   Ar   43   6.885   2.601   5.154
    1   AR   Ar   44   0.394   3.419   3.746
    1   AR   Ar   45   0.326   3.532   5.378
    1   AR   Ar   46   6.271   5.095   6.638
    1   AR   Ar   47   7.069   4.102   6.807
    1   AR   Ar   48   7.120   6.268   6.722
    1   AR   Ar   49   0.024   4.851  -1.461
    1   AR   Ar   50   6.487   5.469   1.663
    1   AR   Ar   51   1.312   4.844   0.171
    1   AR   Ar   52   0.132   5.351   0.096
    1   AR   Ar   53   6.435   5.520   2.748
    1   AR   Ar   54   6.905   6.449   3.172
    1   AR   Ar   55   0.398   5.517   3.323
    1   AR   Ar   56   1.133   6.227   1.354
    1   AR   Ar   57   7.044   4.028   2.899
    1   AR   Ar   58   0.055   5.992   4.215
    1   AR   Ar   59   2.158   5.732   5.082
    1   AR   Ar   60   1.134   6.908   3.920
    1   AR   Ar   61   6.282   6.273   6.004
    1   AR   Ar   62   0.286   6.294   5.244
    1   AR   Ar   63   1.289   5.322   5.936
    1   AR   Ar   64   1.277   6.610   4.945
    1   AR   Ar   65   3.001   0.375   0.238
    1   AR   Ar   66   1.429   0.590   1.323
    1   AR   Ar   67   3.063   6.459   0.502
    1   AR   Ar   68   3.793   1.024  -0.602
    1   AR   Ar   69   1.406   6.802   0.559
    1   AR   Ar   70   1.308   0.150   2.436
    1   AR   Ar   71   3.237   0.902   1.660
    1   AR   Ar   72   3.857   0.718   0.601
    1   AR   Ar   73   1.962   7.018   3.323
    1   AR   Ar   74   1.798   0.808   4.810
    1   AR   Ar   75   3.081   0.528   5.084
    1   AR   Ar   76   2.374   0.554   2.569
    1   AR   Ar   77   2.276   0.307   5.844
    1   AR   Ar   78   1.324   0.692   5.719
    1   AR   Ar   79   4.061   7.002   6.716
    1   AR   Ar   80   2.929   6.575   5.200
    1   AR   Ar   81   1.908   1.179   0.251
    1   AR   Ar   82   0.915   3.768   0.440
    1   AR   Ar   83   2.444   1.623   1.032
    1   AR   Ar   84   1.973   3.321  -2.516
    1   AR   Ar   85   1.330   2.404   0.628
    1   AR   Ar   86   1.747   3.264   2.332
    1   AR   Ar   87   2.061   1.548   2.152
    1   AR   Ar   88   3.009   3.533   1.588
    1   AR   Ar   89   0.842   2.041   1.869
    1   AR   Ar   90   2.584   1.732   5.133
    1   AR   Ar   91   2.203   2.292   4.132
    1   AR   Ar   92   1.934   1.697   3.206
    1   AR   Ar   93   1.468   1.735   5.370
    1   AR   Ar   94   2.737   0.966   8.474
    1   AR   Ar   95   3.103   6.963   6.434
    1   AR   Ar   96   1.934   1.367   6.564
    1   AR   Ar   97   2.767   3.032  -0.916
    1   AR   Ar   98   2.460   4.422   1.558
    1   AR   Ar   99   3.881   2.751  -1.448
    1   AR   Ar  100   2.078   4.193  -0.611
    1   AR   Ar  101   1.025   3.107   1.441
    1   AR   Ar  102   2.366   3.857   3.633
    1   AR   Ar  103   1.980   3.560   1.172
    1   AR   Ar  104   3.132   3.868  -0.374
    1   AR   Ar  105   1.478   3.071   3.520
    1   AR   Ar  106   2.611   3.352   4.719
    1   AR   Ar  107   2.756   3.984   5.518
    1   AR   Ar  108   3.344   3.026   3.995
    1   AR   Ar  109   1.161   3.732   4.574
    1   AR   Ar  110   1.790   4.761   4.957
    1   AR   Ar  111   3.926   4.815   6.855
    1   AR   Ar  112   1.886   4.088   5.959
    1   AR   Ar  113   2.540   4.208   0.538
    1   AR   Ar  114   2.730   5.274   1.004
    1   AR   Ar  115   3.354   4.970   0.252
    1   AR   Ar  116   3.951   6.979  -0.325
    1   AR   Ar  117   1.258   4.726   3.188
    1   AR   Ar  118   1.255   6.112   2.729
    1   AR   Ar  119   2.103   4.220   2.522
    1   AR   Ar  120   1.909   5.272   1.896
    1   AR   Ar  121   6.937   4.345   3.997
    1   AR   Ar  122   2.997   6.143   4.099
    1   AR   Ar  123   2.475   5.202   4.180
    1   AR   Ar  124   2.404   5.603   2.934
    1   AR   Ar  125   0.429   4.906   4.650
    1   AR   Ar  126   0.972   6.808   5.899
    1   AR   Ar  127   2.307   5.315   7.401
    1   AR   Ar  128   2.328   6.293   6.233
    1   AR   Ar  129   2.674   7.000   1.305
    1   AR   Ar  130   4.462   6.951  -1.643
    1   AR   Ar  131   4.637   5.942   0.189
    1   AR   Ar  132   5.840   2.365  -1.121
    1   AR   Ar  133   3.443   0.280   2.487
    1   AR   Ar  134   4.161   1.473   2.705
    1   AR   Ar  135   4.674   0.397   2.918
    1   AR   Ar  136   4.353   0.677   1.782
    1   AR   Ar  137   3.070   7.033   3.542
    1   AR   Ar  138   4.539   1.305   4.883
    1   AR   Ar  139   5.103   0.473   4.034
    1   AR   Ar  140   4.298   1.090   3.860
    1   AR   Ar  141   3.748   7.008   4.448
    1   AR   Ar  142   4.188   0.216   5.371
    1   AR   Ar  143   5.438   6.892   6.301
    1   AR   Ar  144   5.028   0.711   7.190
    1   AR   Ar  145   2.897   3.271   0.575
    1   AR   Ar  146   3.861   2.787   1.096
    1   AR   Ar  147   5.437   2.031   0.114
    1   AR   Ar  148   5.760   3.457  -1.711
    1   AR   Ar  149   4.546   1.435   0.774
    1   AR   Ar  150   3.003   1.598   2.724
    1   AR   Ar  151   3.508   1.860   3.668
    1   AR   Ar  152   2.665   2.720   2.111
    1   AR   Ar  153   3.151   0.983   4.042
    1   AR   Ar  154   4.081   2.399   4.613
    1   AR   Ar  155   5.644   0.860   5.941
    1   AR   Ar  156   4.324   3.295   3.672
    1   AR   Ar  157   3.814   1.932   5.527
    1   AR   Ar  158   2.864   2.194   6.116
    1   AR   Ar  159   4.650   0.786   6.233
    1   AR   Ar  160   4.447   2.854   5.821
    1   AR   Ar  161   4.615   3.089  -0.219
    1   AR   Ar  162   4.404   4.896   1.029
    1   AR   Ar  163   5.720   3.041  -0.048
    1   AR   Ar  164   5.452   5.176   1.044
    1   AR   Ar  165   3.261   3.662   2.680
    1   AR   Ar  166   2.915   4.690   2.946
    1   AR   Ar  167   4.507   2.825   2.687
    1   AR   Ar  168   4.090   3.848   0.414
    1   AR   Ar  169   2.813   2.597   3.252
    1   AR   Ar  170   3.271   4.140   4.334
    1   AR   Ar  171   3.891   3.562   4.920
    1   AR   Ar  172   4.411   4.560   4.103
    1   AR   Ar  173   3.368   2.931   5.550
    1   AR   Ar  174   4.341   4.973   5.947
    1   AR   Ar  175   4.234   3.892   5.903
    1   AR   Ar  176   3.279   5.157   4.932
    1   AR   Ar  177   5.686   4.919  -0.324
    1   AR   Ar  178   4.155   6.803   1.154
    1   AR   Ar  179   3.607   5.939   1.173
    1   AR   Ar  180   4.533   4.605  -0.402
    1   AR   Ar  181   3.065   5.527   2.044
    1   AR   Ar  182   2.363   6.710   2.287
    1   AR   Ar  183   3.754   4.639   1.625
    1   AR   Ar  184   4.358   5.975   2.037
    1   AR   Ar  185   1.437   5.631   3.777
    1   AR   Ar  186   3.462   5.102   3.866
    1   AR   Ar  187   4.485   5.348   3.197
    1   AR   Ar  188   3.307   6.176   2.816
    1   AR   Ar  189   2.386   4.995   5.976
    1   AR   Ar  190   4.090   5.841   6.387
    1   AR   Ar  191   5.156   6.242   5.308
    1   AR   Ar  192   4.139   6.018   4.870
    1   AR   Ar  193   5.919   6.881  -0.164
    1   AR   Ar  194   4.969   0.215  -0.595
    1   AR   Ar  195   5.912   1.028   0.448
    1   AR   Ar  196   6.304   1.314  -0.654
    1   AR   Ar  197   5.109   0.471   0.866
    1   AR   Ar  198   5.830   1.137   1.669
    1   AR   Ar  199   5.267   0.305   1.988
    1   AR   Ar  200   6.428   2.008   0.888
    1   AR   Ar  201   5.095   6.412   2.832
    1   AR   Ar  202   5.402   1.424   3.864
    1   AR   Ar  203   0.080   0.017   4.549
    1   AR   Ar  204   5.788   0.186   2.942
    1   AR   Ar  205   6.163   6.967   4.004
    1   AR   Ar  206   5.322   0.281   5.096
    1   AR   Ar  207   0.043   0.368   5.717
    1   AR   Ar  208   6.353   1.059   3.588
    1   AR   Ar  209   6.694   2.791  -1.903
    1   AR   Ar  210   4.710   2.555   1.756
    1   AR   Ar  211   6.498   2.331  -0.064
    1   AR   Ar  212   6.213   3.971  -0.458
    1   AR   Ar  213   3.718   2.341   2.389
    1   AR   Ar  214   4.160   3.527   1.891
    1   AR   Ar  215   5.811   2.160   1.953
    1   AR   Ar  216   6.239   3.404   1.597
    1   AR   Ar  217   5.224   2.542   3.851
    1   AR   Ar  218   4.984   2.437   4.987
    1   AR   Ar  219   5.390   1.166   2.769
    1   AR   Ar  220   6.173   3.495   3.237
    1   AR   Ar  221   6.346   0.001   5.235
    1   AR   Ar  222   5.194   1.962   6.446
    1   AR   Ar  223   6.206   0.850   7.046
    1   AR   Ar  224   5.413   3.243   5.490
    1   AR   Ar  225   5.190   4.270   0.386
    1   AR   Ar  226   4.698   4.454   2.225
    1   AR   Ar  227   6.627   4.491   1.259
    1   AR   Ar  228   6.361   5.309   0.566
    1   AR   Ar  229   6.104   3.827   0.612
    1   AR   Ar  230   3.961   4.278   3.113
    1   AR   Ar  231   6.981   2.589   3.275
    1   AR   Ar  232   5.032   3.879   1.342
    1   AR   Ar  233   5.948   2.664   4.684
    1   AR   Ar  234   6.170   4.284   4.945
    1   AR   Ar  235   6.684   3.331   4.267
    1   AR   Ar  236   5.207   3.843   3.593
    1   AR   Ar  237   4.936   3.443   4.584
    1   AR   Ar  238   5.172   4.279   5.479
    1   AR   Ar  239   6.473   3.858   7.621
    1   AR   Ar  240   6.160   3.784   5.987
    1   AR   Ar  241   6.670   0.481   0.095
    1   AR   Ar  242   5.090   6.278   1.407
    1   AR   Ar  243   5.906   4.637   2.072
    1   AR   Ar  244   6.800   6.196  -0.340
    1   AR   Ar  245   5.330   5.519   2.262
    1   AR   Ar  246   6.023   6.358   2.030
    1   AR   Ar  247   5.454   3.634   2.351
    1   AR   Ar  248   6.001   0.004   1.229
    1   AR   Ar  249   5.561   4.726   3.056
    1   AR   Ar  250   5.246   6.429   4.036
    1   AR   Ar  251   5.302   5.367   4.280
    1   AR   Ar  252   5.645   5.754   3.373
    1   AR   Ar  253   5.635   5.426   5.817
    1   AR   Ar  254   5.141   5.872   6.942
    1   AR   Ar  255   5.385   4.542   6.564
    1   AR   Ar  256   6.079   6.117   4.678
    7.12000  7.12000 12.00000
Argon-slab step 1175
  256
    1   AR   Ar    1   0.907   0.704  -0.933
    1   AR   Ar    2   6.691   0.693   1.156
    1   AR   Ar    3   0.317   7.012   0.627
    1   AR   Ar    4   0.995   0.685   0.134
    1   AR   Ar    5   7.089   6.019   0.992
    1   AR   Ar    6   0.417   0.261   3.067
    1   AR   Ar    7   0.208   6.037   2.174
    1   AR   Ar    8   0.317   0.023   1.697
    1   AR   Ar    9   0.276   0.897   3.967
    1   AR   Ar   10   7.060   1.785   4.583
    1   AR   Ar   11   2.231   6.925   4.407
    1   AR   Ar   12   1.134   1.210   2.618
    1   AR   Ar   13   6.393   1.237   5.257
    1   AR   Ar   14   0.389   1.452   5.757
    1   AR   Ar   15   6.859   5.848   8.574
    1   AR   Ar   16   0.761   1.252   4.840
    1   AR   Ar   17   0.180   1.366   0.062
    1   AR   Ar   18   6.981   3.356   0.405
    1   AR   Ar   19   0.632   1.265   0.951
    1   AR   Ar   20   1.024   3.230  -2.257
    1   AR   Ar   21   6.653   0.070   2.327
    1   AR   Ar   22   6.878   2.218   2.147
    1   AR   Ar   23   0.230   1.046   1.962
    1   AR   Ar   24   0.076   2.664   1.222
    1   AR   Ar   25   7.024   1.548   2.821
    1   AR   Ar   26   6.084   1.948   3.049
    1   AR   Ar   27   1.624   0.958   3.779
    1   AR   Ar   28   0.956   2.338   4.440
    1   AR   Ar   29   6.084   2.007   5.757
    1   AR   Ar   30   6.728   2.954   6.260
    1   AR   Ar   31   0.630   1.165   7.149
    1   AR   Ar   32   1.960   2.652   5.327
    1   AR   Ar   33   0.951   4.059  -1.371
    1   AR   Ar   34   0.593   5.114   1.455
    1   AR   Ar   35   0.346   4.022   1.432
    1   AR   Ar   36   2.072   6.688  -1.738
    1   AR   Ar   37   0.429   2.985   2.292
    1   AR   Ar   38   0.079   4.855   2.191
    1   AR   Ar   39   1.050   3.802   2.812
    1   AR   Ar   40   1.347   4.177   1.793
    1   AR   Ar   41   0.760   2.260   2.968
    1   AR   Ar   42   6.810   5.473   5.353
    1   AR   Ar   43   6.878   2.620   5.154
    1   AR   Ar   44   0.391   3.455   3.766
    1   AR   Ar   45   0.357   3.522   5.355
    1   AR   Ar   46   6.291   5.095   6.634
    1   AR   Ar   47   7.045   4.047   6.796
    1   AR   Ar   48   7.097   6.284   6.696
    1   AR   Ar   49   7.103   4.861  -1.477
    1   AR   Ar   50   6.488   5.465   1.673
    1   AR   Ar   51   1.293   4.830   0.154
    1   AR   Ar   52   0.152   5.328   0.087
    1   AR   Ar   53   6.467   5.548   2.768
    1   AR   Ar   54   6.930   6.436   3.176
    1   AR   Ar   55   0.374   5.521   3.336
    1   AR   Ar   56   1.114   6.197   1.328
    1   AR   Ar   57   7.030   4.035   2.890
    1   AR   Ar   58   0.048   5.991   4.215
    1   AR   Ar   59   2.190   5.704   5.101
    1   AR   Ar   60   1.145   6.923   3.915
    1   AR   Ar   61   6.290   6.266   6.000
    1   AR   Ar   62   0.277   6.282   5.212
    1   AR   Ar   63   1.292   5.294   5.946
    1   AR   Ar   64   1.299   6.592   4.949
    1   AR   Ar   65   2.936   0.335   0.230
    1   AR   Ar   66   1.455   0.604   1.357
    1   AR   Ar   67   3.072   6.486   0.484
    1   AR   Ar   68   3.796   1.022  -0.563
    1   AR   Ar   69   1.407   6.788   0.535
    1   AR   Ar   70   1.311   0.141   2.439
    1   AR   Ar   71   3.236   0.884   1.646
    1   AR   Ar   72   3.860   0.726   0.608
    1   AR   Ar   73   1.966   7.060   3.321
    1   AR   Ar   74   1.820   0.795   4.791
    1   AR   Ar   75   3.098   0.510   5.101
    1   AR   Ar   76   2.392   0.570   2.549
    1   AR   Ar   77   2.282   0.283   5.811
    1   AR   Ar   78   1.321   0.726   5.714
    1   AR   Ar   79   4.087   7.026   6.698
    1   AR   Ar   80   2.920   6.569   5.152
    1   AR   Ar   81   1.899   1.172   0.235
    1   AR   Ar   82   0.867   3.734   0.423
    1   AR   Ar   83   2.431   1.617   1.044
    1   AR   Ar   84   1.982   3.332  -2.565
    1   AR   Ar   85   1.313   2.426   0.623
    1   AR   Ar   86   1.743   3.292   2.307
    1   AR   Ar   87   2.098   1.551   2.149
    1   AR   Ar   88   3.022   3.528   1.607
    1   AR   Ar   89   0.859   2.029   1.905
    1   AR   Ar   90   2.548   1.717   5.147
    1   AR   Ar   91   2.201   2.294   4.122
    1   AR   Ar   92   1.939   1.716   3.195
    1   AR   Ar   93   1.491   1.726   5.352
    1   AR   Ar   94   2.753   0.953   8.456
    1   AR   Ar   95   3.115   6.959   6.434
    1   AR   Ar   96   1.945   1.324   6.538
    1   AR   Ar   97   2.755   3.001  -0.931
    1   AR   Ar   98   2.477   4.408   1.554
    1   AR   Ar   99   3.874   2.749  -1.442
    1   AR   Ar  100   2.047   4.213  -0.597
    1   AR   Ar  101   0.995   3.089   1.438
    1   AR   Ar  102   2.367   3.880   3.636
    1   AR   Ar  103   1.951   3.556   1.137
    1   AR   Ar  104   3.118   3.866  -0.371
    1   AR   Ar  105   1.503   3.077   3.497
    1   AR   Ar  106   2.596   3.348   4.732
    1   AR   Ar  107   2.774   3.983   5.502
    1   AR   Ar  108   3.360   3.009   3.986
    1   AR   Ar  109   1.168   3.720   4.587
    1   AR   Ar  110   1.784   4.772   4.975
    1   AR   Ar  111   3.939   4.794   6.862
    1   AR   Ar  112   1.910   4.090   5.977
    1   AR   Ar  113   2.537   4.208   0.536
    1   AR   Ar  114   2.759   5.262   1.016
    1   AR   Ar  115   3.353   4.969   0.284
    1   AR   Ar  116   3.972   6.984  -0.335
    1   AR   Ar  117   1.255   4.738   3.203
    1   AR   Ar  118   1.283   6.120   2.722
    1   AR   Ar  119   2.083   4.228   2.529
    1   AR   Ar  120   1.926   5.275   1.891
    1   AR   Ar  121   6.904   4.343   4.009
    1   AR   Ar  122   2.983   6.146   4.093
    1   AR   Ar  123   2.479   5.200   4.162
    1   AR   Ar  124   2.388   5.635   2.934
    1   AR   Ar  125   0.419   4.881   4.644
    1   AR   Ar  126   0.943   6.781   5.902
    1   AR   Ar  127   2.327   5.374   7.394
    1   AR   Ar  128   2.322   6.270   6.238
    1   AR   Ar  129   2.638   7.003   1.299
    1   AR   Ar  130   4.492   6.958  -1.667
    1   AR   Ar  131   4.630   5.941   0.194
    1   AR   Ar  132   5.857   2.380  -1.149
    1   AR   Ar  133   3.431   0.296   2.493
    1   AR   Ar  134   4.170   1.462   2.716
    1   AR   Ar  135   4.671   0.397   2.924
    1   AR   Ar  136   4.314   0.671   1.753
    1   AR   Ar  137   3.070   7.039   3.567
    1   AR   Ar  138   4.556   1.305   4.897
    1   AR   Ar  139   5.123   0.460   4.048
    1   AR   Ar  140   4.323   1.087   3.824
    1   AR   Ar  141   3.738   7.032   4.402
    1   AR   Ar  142   4.216   0.191   5.376
    1   AR   Ar  143   5.464   6.888   6.306
    1   AR   Ar  144   5.019   0.732   7.172
    1   AR   Ar  145   2.946   3.271   0.583
    1   AR   Ar  146   3.864   2.811   1.090
    1   AR   Ar  147   5.444   2.047   0.087
    1   AR   Ar  148   5.770   3.442  -1.717
    1   AR   Ar  149   4.567   1.456   0.759
    1   AR   Ar  150   3.012   1.563   2.701
    1   AR   Ar  151   3.516   1.829   3.645
    1   AR   Ar  152   2.674   2.708   2.123
    1   AR   Ar  153   3.112   1.016   4.063
    1   AR   Ar  154   4.042   2.417   4.584
    1   AR   Ar  155   5.633   0.834   5.946
    1   AR   Ar  156   4.320   3.320   3.687
    1   AR   Ar  157   3.845   1.909   5.554
    1   AR   Ar  158   2.826   2.172   6.119
    1   AR   Ar  159   4.665   0.784   6.247
    1   AR   Ar  160   4.446   2.856   5.806
    1   AR   Ar  161   4.614   3.120  -0.210
    1   AR   Ar  162   4.416   4.894   0.988
    1   AR   Ar  163   5.758   3.063  -0.076
    1   AR   Ar  164   5.440   5.200   1.046
    1   AR   Ar  165   3.284   3.637   2.665
    1   AR   Ar  166   2.894   4.681   2.919
    1   AR   Ar  167   4.552   2.821   2.680
    1   AR   Ar  168   4.096   3.867   0.396
    1   AR   Ar  169   2.838   2.576   3.274
    1   AR   Ar  170   3.283   4.172   4.326
    1   AR   Ar  171   3.887   3.530   4.933
    1   AR   Ar  172   4.464   4.524   4.104
    1   AR   Ar  173   3.405   2.955   5.553
    1   AR   Ar  174   4.356   4.948   5.938
    1   AR   Ar  175   4.251   3.879   5.925
    1   AR   Ar  176   3.246   5.194   4.932
    1   AR   Ar  177   5.664   4.925  -0.293
    1   AR   Ar  178   4.188   6.787   1.163
    1   AR   Ar  179   3.631   5.969   1.185
    1   AR   Ar  180   4.554   4.594  -0.391
    1   AR   Ar  181   3.069   5.521   2.026
    1   AR   Ar  182   2.351   6.669   2.280
    1   AR   Ar  183   3.743   4.664   1.631
    1   AR   Ar  184   4.372   5.985   2.020
    1   AR   Ar  185   1.422   5.636   3.774
    1   AR   Ar  186   3.468   5.112   3.873
    1   AR   Ar  187   4.483   5.349   3.226
    1   AR   Ar  188   3.312   6.170   2.838
    1   AR   Ar  189   2.398   4.988   5.977
    1   AR   Ar  190   4.105   5.879   6.370
    1   AR   Ar  191   5.178   6.256   5.312
    1   AR   Ar  192   4.115   6.033   4.876
    1   AR   Ar  193   5.936   6.898  -0.189
    1   AR   Ar  194   4.965   0.211  -0.592
    1   AR   Ar  195   5.861   1.063   0.407
    1   AR   Ar  196   6.295   1.323  -0.642
    1   AR   Ar  197   5.097   0.436   0.859
    1   AR   Ar  198   5.827   1.141   1.688
    1   AR   Ar  199   5.243   0.308   1.970
    1   AR   Ar  200   6.417   2.024   0.895
    1   AR   Ar  201   5.074   6.415   2.831
    1   AR   Ar  202   5.427   1.431   3.857
    1   AR   Ar  203   0.076   0.002   4.549
    1   AR   Ar  204   5.786   0.191   2.934
    1   AR   Ar  205   6.203   6.964   4.003
    1   AR   Ar  206   5.316   0.271   5.096
    1   AR   Ar  207   0.048   0.318   5.720
    1   AR   Ar  208   6.324   1.053   3.597
    1   AR   Ar  209   6.721   2.782  -1.915
    1   AR   Ar  210   4.739   2.544   1.757
    1   AR   Ar  211   6.492   2.343  -0.067
    1   AR   Ar  212   6.202   3.985  -0.428
    1   AR   Ar  213   3.728   2.362   2.395
    1   AR   Ar  214   4.189   3.567   1.877
    1   AR   Ar  215   5.834   2.163   1.942
    1   AR   Ar  216   6.237   3.431   1.582
    1   AR   Ar  217   5.209   2.511   3.819
    1   AR   Ar  218   5.017   2.447   4.978
    1   AR   Ar  219   5.361   1.167   2.746
    1   AR   Ar  220   6.208   3.509   3.257
    1   AR   Ar  221   6.365   0.005   5.203
    1   AR   Ar  222   5.175   1.962   6.428
    1   AR   Ar  223   6.181   0.813   7.038
    1   AR   Ar  224   5.453   3.276   5.488
    1   AR   Ar  225   5.180   4.290   0.381
    1   AR   Ar  226   4.708   4.478   2.258
    1   AR   Ar  227   6.634   4.513   1.254
    1   AR   Ar  228   6.373   5.327   0.547
    1   AR   Ar  229   6.090   3.845   0.611
    1   AR   Ar  230   3.956   4.262   3.128
    1   AR   Ar  231   6.965   2.598   3.261
    1   AR   Ar  232   5.045   3.887   1.338
    1   AR   Ar  233   5.951   2.651   4.699
    1   AR   Ar  234   6.162   4.257   4.941
    1   AR   Ar  235   6.660   3.321   4.262
    1   AR   Ar  236   5.219   3.853   3.610
    1   AR   Ar  237   4.964   3.425   4.601
    1   AR   Ar  238   5.203   4.292   5.500
    1   AR   Ar  239   6.457   3.886   7.627
    1   AR   Ar  240   6.184   3.773   5.991
    1   AR   Ar  241   6.624   0.451   0.095
    1   AR   Ar  242   5.096   6.287   1.418
    1   AR   Ar  243   5.891   4.650   2.077
    1   AR   Ar  244   6.819   6.190  -0.331
    1   AR   Ar  245   5.381   5.515   2.286
    1   AR   Ar  246   5.995   6.353   2.002
    1   AR   Ar  247   5.440   3.593   2.333
    1   AR   Ar  248   6.001   0.018   1.219
    1   AR   Ar  249   5.543   4.717   3.067
    1   AR   Ar  250   5.287   6.430   4.038
    1   AR   Ar  251   5.340   5.346   4.307
    1   AR   Ar  252   5.641   5.778   3.365
    1   AR   Ar  253   5.609   5.440   5.808
    1   AR   Ar  254   5.114   5.884   6.930
    1   AR   Ar  255   5.361   4.548   6.547
    1   AR   Ar  256   6.077   6.133   4.703
    7.12000  7.12000 12.00000
Argon-slab step 1180
  256
    1   AR   Ar    1   0.902   0.735  -0.944
    1   AR   Ar    2   6.696   0.708   1.186
    1   AR   Ar    3   0.313   6.974   0.609
    1   AR   Ar    4   0.970   0.671   0.137
    1   AR   Ar    5   7.113   5.998   0.992
    1   AR   Ar    6   0.420   0.287   3.059
    1   AR   Ar    7   0.228   6.037   2.186
    1   AR   Ar    8   0.332   0.022   1.689
    1   AR   Ar    9   0.256   0.913   3.966
    1   AR   Ar   10   7.044   1.792   4.604
    1   AR   Ar   11   2.253   6.941   4.413
    1   AR   Ar   12   1.143   1.214   2.607
    1   AR   Ar   13   6.366   1.256   5.212
    1   AR   Ar   14   0.403   1.468   5.755
    1   AR   Ar   15   6.835   5.851   8.579
    1   AR   Ar   16   0.777   1.266   4.845
    1   AR   Ar   17   0.188   1.348   0.052
    1   AR   Ar   18   6.991   3.342   0.432
    1   AR   Ar   19   0.627   1.263   0.973
    1   AR   Ar   20   1.034   3.233  -2.259
    1   AR   Ar   21   6.654   0.092   2.328
    1   AR   Ar   22   6.901   2.211   2.143
    1   AR   Ar   23   0.249   1.044   1.928
    1   AR   Ar   24   0.087   2.681   1.202
    1   AR   Ar   25   7.010   1.541   2.842
    1   AR   Ar   26   6.118   1.929   3.028
    1   AR   Ar   27   1.607   0.928   3.768
    1   AR   Ar   28   0.966   2.307   4.442
    1   AR   Ar   29   6.055   2.001   5.763
    1   AR   Ar   30   6.737   2.939   6.251
    1   AR   Ar   31   0.584   1.138   7.151
    1   AR   Ar   32   1.941   2.647   5.353
    1   AR   Ar   33   0.938   4.038  -1.403
    1   AR   Ar   34   0.592   5.126   1.452
    1   AR   Ar   35   0.345   4.047   1.433
    1   AR   Ar   36   2.051   6.699  -1.741
    1   AR   Ar   37   0.431   2.994   2.310
    1   AR   Ar   38   0.061   4.825   2.224
    1   AR   Ar   39   1.026   3.823   2.805
    1   AR   Ar   40   1.339   4.171   1.788
    1   AR   Ar   41   0.763   2.239   3.002
    1   AR   Ar   42   6.786   5.476   5.330
    1   AR   Ar   43   6.875   2.643   5.160
    1   AR   Ar   44   0.398   3.490   3.779
    1   AR   Ar   45   0.388   3.511   5.331
    1   AR   Ar   46   6.314   5.096   6.630
    1   AR   Ar   47   7.023   3.992   6.778
    1   AR   Ar   48   7.075   6.299   6.669
    1   AR   Ar   49   7.062   4.870  -1.492
    1   AR   Ar   50   6.487   5.462   1.684
    1   AR   Ar   51   1.274   4.814   0.137
    1   AR   Ar   52   0.180   5.303   0.078
    1   AR   Ar   53   6.501   5.573   2.784
    1   AR   Ar   54   6.955   6.425   3.180
    1   AR   Ar   55   0.353   5.522   3.345
    1   AR   Ar   56   1.090   6.165   1.300
    1   AR   Ar   57   7.019   4.043   2.881
    1   AR   Ar   58   0.023   5.999   4.228
    1   AR   Ar   59   2.188   5.705   5.126
    1   AR   Ar   60   1.150   6.938   3.912
    1   AR   Ar   61   6.297   6.260   5.991
    1   AR   Ar   62   0.267   6.272   5.218
    1   AR   Ar   63   1.297   5.267   5.954
    1   AR   Ar   64   1.324   6.573   4.949
    1   AR   Ar   65   2.867   0.303   0.220
    1   AR   Ar   66   1.480   0.618   1.392
    1   AR   Ar   67   3.083   6.507   0.463
    1   AR   Ar   68   3.799   1.018  -0.523
    1   AR   Ar   69   1.409   6.778   0.508
    1   AR   Ar   70   1.315   0.131   2.440
    1   AR   Ar   71   3.232   0.867   1.629
    1   AR   Ar   72   3.862   0.730   0.617
    1   AR   Ar   73   1.974   7.101   3.316
    1   AR   Ar   74   1.846   0.781   4.775
    1   AR   Ar   75   3.114   0.495   5.117
    1   AR   Ar   76   2.408   0.578   2.549
    1   AR   Ar   77   2.290   0.258   5.777
    1   AR   Ar   78   1.313   0.760   5.713
    1   AR   Ar   79   4.122   7.051   6.682
    1   AR   Ar   80   2.912   6.560   5.105
    1   AR   Ar   81   1.891   1.166   0.220
    1   AR   Ar   82   0.823   3.701   0.409
    1   AR   Ar   83   2.419   1.612   1.059
    1   AR   Ar   84   1.997   3.344  -2.616
    1   AR   Ar   85   1.296   2.447   0.618
    1   AR   Ar   86   1.743   3.308   2.275
    1   AR   Ar   87   2.133   1.555   2.142
    1   AR   Ar   88   3.041   3.525   1.624
    1   AR   Ar   89   0.876   2.016   1.939
    1   AR   Ar   90   2.514   1.701   5.158
    1   AR   Ar   91   2.198   2.295   4.114
    1   AR   Ar   92   1.947   1.741   3.181
    1   AR   Ar   93   1.516   1.719   5.338
    1   AR   Ar   94   2.769   0.939   8.438
    1   AR   Ar   95   3.122   6.956   6.432
    1   AR   Ar   96   1.956   1.281   6.509
    1   AR   Ar   97   2.743   2.969  -0.946
    1   AR   Ar   98   2.493   4.397   1.554
    1   AR   Ar   99   3.866   2.748  -1.435
    1   AR   Ar  100   2.015   4.232  -0.582
    1   AR   Ar  101   0.998   3.087   1.445
    1   AR   Ar  102   2.368   3.902   3.639
    1   AR   Ar  103   1.922   3.548   1.103
    1   AR   Ar  104   3.105   3.865  -0.367
    1   AR   Ar  105   1.528   3.082   3.474
    1   AR   Ar  106   2.580   3.339   4.738
    1   AR   Ar  107   2.805   3.986   5.485
    1   AR   Ar  108   3.378   2.999   3.986
    1   AR   Ar  109   1.177   3.708   4.599
    1   AR   Ar  110   1.775   4.777   4.992
    1   AR   Ar  111   3.951   4.773   6.873
    1   AR   Ar  112   1.897   4.096   5.984
    1   AR   Ar  113   2.533   4.216   0.528
    1   AR   Ar  114   2.781   5.255   1.035
    1   AR   Ar  115   3.362   4.962   0.309
    1   AR   Ar  116   3.991   6.988  -0.343
    1   AR   Ar  117   1.254   4.752   3.218
    1   AR   Ar  118   1.312   6.128   2.715
    1   AR   Ar  119   2.060   4.239   2.539
    1   AR   Ar  120   1.908   5.262   1.896
    1   AR   Ar  121   6.867   4.341   4.017
    1   AR   Ar  122   2.969   6.147   4.089
    1   AR   Ar  123   2.477   5.196   4.142
    1   AR   Ar  124   2.368   5.668   2.936
    1   AR   Ar  125   0.412   4.860   4.639
    1   AR   Ar  126   0.914   6.755   5.910
    1   AR   Ar  127   2.344   5.419   7.390
    1   AR   Ar  128   2.314   6.246   6.241
    1   AR   Ar  129   2.602   7.009   1.295
    1   AR   Ar  130   4.521   6.966  -1.690
    1   AR   Ar  131   4.622   5.939   0.201
    1   AR   Ar  132   5.875   2.395  -1.175
    1   AR   Ar  133   3.422   0.309   2.502
    1   AR   Ar  134   4.181   1.447   2.729
    1   AR   Ar  135   4.666   0.395   2.930
    1   AR   Ar  136   4.304   0.678   1.727
    1   AR   Ar  137   3.068   7.049   3.588
    1   AR   Ar  138   4.575   1.305   4.911
    1   AR   Ar  139   5.146   0.439   4.060
    1   AR   Ar  140   4.344   1.086   3.786
    1   AR   Ar  141   3.727   7.056   4.358
    1   AR   Ar  142   4.244   0.165   5.382
    1   AR   Ar  143   5.487   6.885   6.310
    1   AR   Ar  144   5.014   0.752   7.163
    1   AR   Ar  145   2.998   3.265   0.589
    1   AR   Ar  146   3.867   2.836   1.084
    1   AR   Ar  147   5.449   2.062   0.062
    1   AR   Ar  148   5.780   3.426  -1.721
    1   AR   Ar  149   4.593   1.480   0.745
    1   AR   Ar  150   3.022   1.528   2.678
    1   AR   Ar  151   3.530   1.806   3.619
    1   AR   Ar  152   2.684   2.691   2.132
    1   AR   Ar  153   3.069   1.041   4.089
    1   AR   Ar  154   4.000   2.435   4.554
    1   AR   Ar  155   5.629   0.810   5.952
    1   AR   Ar  156   4.316   3.345   3.703
    1   AR   Ar  157   3.875   1.885   5.580
    1   AR   Ar  158   2.787   2.150   6.120
    1   AR   Ar  159   4.676   0.785   6.250
    1   AR   Ar  160   4.447   2.855   5.790
    1   AR   Ar  161   4.614   3.151  -0.200
    1   AR   Ar  162   4.439   4.896   0.933
    1   AR   Ar  163   5.791   3.089  -0.105
    1   AR   Ar  164   5.405   5.212   1.047
    1   AR   Ar  165   3.303   3.607   2.649
    1   AR   Ar  166   2.867   4.678   2.903
    1   AR   Ar  167   4.585   2.830   2.693
    1   AR   Ar  168   4.101   3.888   0.380
    1   AR   Ar  169   2.854   2.551   3.283
    1   AR   Ar  170   3.293   4.202   4.316
    1   AR   Ar  171   3.892   3.504   4.936
    1   AR   Ar  172   4.516   4.488   4.104
    1   AR   Ar  173   3.433   2.970   5.564
    1   AR   Ar  174   4.377   4.922   5.922
    1   AR   Ar  175   4.266   3.867   5.947
    1   AR   Ar  176   3.214   5.233   4.934
    1   AR   Ar  177   5.643   4.934  -0.262
    1   AR   Ar  178   4.225   6.783   1.171
    1   AR   Ar  179   3.651   5.986   1.200
    1   AR   Ar  180   4.585   4.627  -0.381
    1   AR   Ar  181   3.071   5.513   2.008
    1   AR   Ar  182   2.337   6.622   2.277
    1   AR   Ar  183   3.715   4.684   1.652
    1   AR   Ar  184   4.377   5.991   2.010
    1   AR   Ar  185   1.409   5.644   3.772
    1   AR   Ar  186   3.481   5.123   3.874
    1   AR   Ar  187   4.484   5.349   3.255
    1   AR   Ar  188   3.318   6.167   2.863
    1   AR   Ar  189   2.413   4.987   5.977
    1   AR   Ar  190   4.119   5.920   6.353
    1   AR   Ar  191   5.176   6.251   5.295
    1   AR   Ar  192   4.090   6.048   4.882
    1   AR   Ar  193   5.948   6.911  -0.213
    1   AR   Ar  194   4.962   0.207  -0.588
    1   AR   Ar  195   5.808   1.102   0.368
    1   AR   Ar  196   6.285   1.333  -0.628
    1   AR   Ar  197   5.081   0.400   0.852
    1   AR   Ar  198   5.826   1.144   1.706
    1   AR   Ar  199   5.224   0.304   1.955
    1   AR   Ar  200   6.402   2.036   0.909
    1   AR   Ar  201   5.072   6.442   2.807
    1   AR   Ar  202   5.446   1.429   3.837
    1   AR   Ar  203   0.075   7.107   4.547
    1   AR   Ar  204   5.782   0.194   2.930
    1   AR   Ar  205   6.193   6.939   4.009
    1   AR   Ar  206   5.307   0.259   5.095
    1   AR   Ar  207   0.060   0.271   5.726
    1   AR   Ar  208   6.303   1.040   3.605
    1   AR   Ar  209   6.747   2.774  -1.927
    1   AR   Ar  210   4.761   2.528   1.749
    1   AR   Ar  211   6.491   2.354  -0.077
    1   AR   Ar  212   6.193   3.999  -0.400
    1   AR   Ar  213   3.726   2.382   2.396
    1   AR   Ar  214   4.215   3.605   1.864
    1   AR   Ar  215   5.855   2.169   1.931
    1   AR   Ar  216   6.238   3.458   1.569
    1   AR   Ar  217   5.209   2.500   3.816
    1   AR   Ar  218   5.015   2.451   4.980
    1   AR   Ar  219   5.333   1.172   2.721
    1   AR   Ar  220   6.245   3.533   3.285
    1   AR   Ar  221   6.376   0.006   5.169
    1   AR   Ar  222   5.157   1.960   6.408
    1   AR   Ar  223   6.154   0.776   7.028
    1   AR   Ar  224   5.493   3.304   5.490
    1   AR   Ar  225   5.168   4.309   0.377
    1   AR   Ar  226   4.719   4.503   2.291
    1   AR   Ar  227   6.631   4.539   1.247
    1   AR   Ar  228   6.379   5.345   0.530
    1   AR   Ar  229   6.073   3.864   0.614
    1   AR   Ar  230   3.955   4.250   3.146
    1   AR   Ar  231   6.943   2.611   3.248
    1   AR   Ar  232   5.060   3.895   1.335
    1   AR   Ar  233   5.957   2.638   4.710
    1   AR   Ar  234   6.155   4.229   4.938
    1   AR   Ar  235   6.627   3.308   4.263
    1   AR   Ar  236   5.228   3.871   3.624
    1   AR   Ar  237   4.989   3.410   4.613
    1   AR   Ar  238   5.232   4.309   5.520
    1   AR   Ar  239   6.439   3.914   7.636
    1   AR   Ar  240   6.208   3.771   5.996
    1   AR   Ar  241   6.633   0.492   0.090
    1   AR   Ar  242   5.111   6.299   1.422
    1   AR   Ar  243   5.880   4.656   2.077
    1   AR   Ar  244   6.836   6.186  -0.322
    1   AR   Ar  245   5.428   5.513   2.310
    1   AR   Ar  246   5.969   6.351   1.977
    1   AR   Ar  247   5.425   3.554   2.317
    1   AR   Ar  248   5.981   0.040   1.222
    1   AR   Ar  249   5.535   4.722   3.076
    1   AR   Ar  250   5.320   6.438   4.046
    1   AR   Ar  251   5.377   5.323   4.336
    1   AR   Ar  252   5.642   5.793   3.356
    1   AR   Ar  253   5.583   5.450   5.799
    1   AR   Ar  254   5.088   5.895   6.915
    1   AR   Ar  255   5.336   4.554   6.529
    1   AR   Ar  256   6.094   6.146   4.706
    7.12000  7.12000 12.00000
Argon-slab step 1185
  256
    1   AR   Ar    1   0.896   0.766  -0.956
    1   AR   Ar    2   6.710   0.732   1.213
    1   AR   Ar    3   0.309   6.937   0.591
    1   AR   Ar    4   1.001   0.638   0.150
    1   AR   Ar    5   0.018   5.979   0.994
    1   AR   Ar    6   0.423   0.314   3.050
    1   AR   Ar    7   0.247   6.036   2.197
    1   AR   Ar    8   0.354   0.016   1.679
    1   AR   Ar    9   0.236   0.929   3.962
    1   AR   Ar   10   7.027   1.799   4.620
    1   AR   Ar   11   2.272   6.958   4.416
    1   AR   Ar   12   1.140   1.218   2.606
    1   AR   Ar   13   6.342   1.262   5.161
    1   AR   Ar   14   0.414   1.485   5.760
    1   AR   Ar   15   6.812   5.855   8.583
    1   AR   Ar   16   0.785   1.256   4.874
    1   AR   Ar   17   0.190   1.335   0.036
    1   AR   Ar   18   6.993   3.327   0.455
    1   AR   Ar   19   0.624   1.262   0.999
    1   AR   Ar   20   1.039   3.236  -2.260
    1   AR   Ar   21   6.652   0.114   2.331
    1   AR   Ar   22   6.922   2.210   2.128
    1   AR   Ar   23   0.268   1.044   1.900
    1   AR   Ar   24   0.098   2.695   1.186
    1   AR   Ar   25   7.011   1.508   2.841
    1   AR   Ar   26   6.140   1.916   3.007
    1   AR   Ar   27   1.584   0.892   3.757
    1   AR   Ar   28   0.976   2.278   4.444
    1   AR   Ar   29   6.022   2.007   5.774
    1   AR   Ar   30   6.748   2.919   6.243
    1   AR   Ar   31   0.539   1.112   7.151
    1   AR   Ar   32   1.925   2.648   5.378
    1   AR   Ar   33   0.926   4.016  -1.435
    1   AR   Ar   34   0.597   5.143   1.438
    1   AR   Ar   35   0.334   4.064   1.405
    1   AR   Ar   36   2.024   6.717  -1.746
    1   AR   Ar   37   0.433   3.009   2.331
    1   AR   Ar   38   0.036   4.795   2.265
    1   AR   Ar   39   0.996   3.844   2.800
    1   AR   Ar   40   1.330   4.168   1.780
    1   AR   Ar   41   0.771   2.216   3.037
    1   AR   Ar   42   6.755   5.472   5.307
    1   AR   Ar   43   6.875   2.669   5.171
    1   AR   Ar   44   0.411   3.526   3.788
    1   AR   Ar   45   0.417   3.502   5.308
    1   AR   Ar   46   6.336   5.097   6.623
    1   AR   Ar   47   7.002   3.938   6.756
    1   AR   Ar   48   7.058   6.315   6.644
    1   AR   Ar   49   7.021   4.878  -1.506
    1   AR   Ar   50   6.484   5.463   1.695
    1   AR   Ar   51   1.281   4.792   0.134
    1   AR   Ar   52   0.215   5.275   0.068
    1   AR   Ar   53   6.534   5.593   2.797
    1   AR   Ar   54   6.978   6.422   3.186
    1   AR   Ar   55   0.334   5.519   3.351
    1   AR   Ar   56   1.064   6.131   1.277
    1   AR   Ar   57   7.014   4.050   2.872
    1   AR   Ar   58   0.019   6.006   4.245
    1   AR   Ar   59   2.179   5.719   5.154
    1   AR   Ar   60   1.151   6.954   3.912
    1   AR   Ar   61   6.303   6.253   5.976
    1   AR   Ar   62   0.258   6.266   5.250
    1   AR   Ar   63   1.303   5.240   5.960
    1   AR   Ar   64   1.338   6.583   4.947
    1   AR   Ar   65   2.796   0.286   0.208
    1   AR   Ar   66   1.504   0.632   1.427
    1   AR   Ar   67   3.090   6.507   0.454
    1   AR   Ar   68   3.803   1.012  -0.480
    1   AR   Ar   69   1.412   6.771   0.479
    1   AR   Ar   70   1.307   0.121   2.430
    1   AR   Ar   71   3.225   0.852   1.609
    1   AR   Ar   72   3.863   0.730   0.625
    1   AR   Ar   73   1.983   0.008   3.316
    1   AR   Ar   74   1.873   0.768   4.761
    1   AR   Ar   75   3.132   0.481   5.131
    1   AR   Ar   76   2.420   0.568   2.576
    1   AR   Ar   77   2.297   0.231   5.742
    1   AR   Ar   78   1.301   0.790   5.713
    1   AR   Ar   79   4.164   7.075   6.665
    1   AR   Ar   80   2.909   6.549   5.064
    1   AR   Ar   81   1.886   1.161   0.205
    1   AR   Ar   82   0.785   3.671   0.398
    1   AR   Ar   83   2.407   1.606   1.076
    1   AR   Ar   84   2.018   3.356  -2.669
    1   AR   Ar   85   1.279   2.468   0.615
    1   AR   Ar   86   1.746   3.313   2.240
    1   AR   Ar   87   2.164   1.559   2.130
    1   AR   Ar   88   3.064   3.522   1.639
    1   AR   Ar   89   0.892   2.005   1.970
    1   AR   Ar   90   2.487   1.683   5.166
    1   AR   Ar   91   2.195   2.298   4.108
    1   AR   Ar   92   1.957   1.770   3.166
    1   AR   Ar   93   1.538   1.713   5.328
    1   AR   Ar   94   2.785   0.926   8.419
    1   AR   Ar   95   3.125   6.953   6.426
    1   AR   Ar   96   1.966   1.238   6.477
    1   AR   Ar   97   2.731   2.937  -0.961
    1   AR   Ar   98   2.506   4.387   1.560
    1   AR   Ar   99   3.858   2.747  -1.426
    1   AR   Ar  100   1.983   4.251  -0.565
    1   AR   Ar  101   1.006   3.088   1.451
    1   AR   Ar  102   2.370   3.925   3.641
    1   AR   Ar  103   1.893   3.538   1.070
    1   AR   Ar  104   3.093   3.864  -0.361
    1   AR   Ar  105   1.553   3.087   3.451
    1   AR   Ar  106   2.564   3.326   4.738
    1   AR   Ar  107   2.842   3.993   5.470
    1   AR   Ar  108   3.393   2.997   3.992
    1   AR   Ar  109   1.181   3.696   4.598
    1   AR   Ar  110   1.765   4.776   5.010
    1   AR   Ar  111   3.962   4.752   6.886
    1   AR   Ar  112   1.872   4.101   5.987
    1   AR   Ar  113   2.530   4.227   0.515
    1   AR   Ar  114   2.795   5.255   1.061
    1   AR   Ar  115   3.380   4.950   0.324
    1   AR   Ar  116   4.007   6.992  -0.348
    1   AR   Ar  117   1.253   4.769   3.233
    1   AR   Ar  118   1.340   6.137   2.708
    1   AR   Ar  119   2.033   4.250   2.551
    1   AR   Ar  120   1.898   5.267   1.923
    1   AR   Ar  121   6.828   4.338   4.022
    1   AR   Ar  122   2.957   6.144   4.087
    1   AR   Ar  123   2.455   5.207   4.132
    1   AR   Ar  124   2.345   5.701   2.938
    1   AR   Ar  125   0.407   4.840   4.636
    1   AR   Ar  126   0.887   6.731   5.922
    1   AR   Ar  127   2.347   5.409   7.403
    1   AR   Ar  128   2.305   6.220   6.240
    1   AR   Ar  129   2.566   7.018   1.290
    1   AR   Ar  130   4.551   6.974  -1.711
    1   AR   Ar  131   4.617   5.940   0.213
    1   AR   Ar  132   5.894   2.412  -1.199
    1   AR   Ar  133   3.417   0.321   2.514
    1   AR   Ar  134   4.193   1.430   2.742
    1   AR   Ar  135   4.657   0.390   2.938
    1   AR   Ar  136   4.295   0.689   1.721
    1   AR   Ar  137   3.069   7.055   3.598
    1   AR   Ar  138   4.594   1.305   4.924
    1   AR   Ar  139   5.162   0.416   4.056
    1   AR   Ar  140   4.364   1.086   3.748
    1   AR   Ar  141   3.722   7.079   4.320
    1   AR   Ar  142   4.271   0.139   5.388
    1   AR   Ar  143   5.508   6.884   6.314
    1   AR   Ar  144   5.016   0.770   7.165
    1   AR   Ar  145   3.049   3.258   0.593
    1   AR   Ar  146   3.871   2.862   1.081
    1   AR   Ar  147   5.453   2.077   0.036
    1   AR   Ar  148   5.791   3.408  -1.725
    1   AR   Ar  149   4.623   1.506   0.732
    1   AR   Ar  150   3.035   1.493   2.657
    1   AR   Ar  151   3.549   1.789   3.590
    1   AR   Ar  152   2.697   2.668   2.134
    1   AR   Ar  153   3.021   1.059   4.118
    1   AR   Ar  154   3.964   2.449   4.529
    1   AR   Ar  155   5.636   0.788   5.957
    1   AR   Ar  156   4.313   3.369   3.720
    1   AR   Ar  157   3.905   1.863   5.606
    1   AR   Ar  158   2.748   2.128   6.121
    1   AR   Ar  159   4.674   0.788   6.240
    1   AR   Ar  160   4.452   2.849   5.774
    1   AR   Ar  161   4.617   3.181  -0.191
    1   AR   Ar  162   4.459   4.897   0.873
    1   AR   Ar  163   5.818   3.116  -0.133
    1   AR   Ar  164   5.377   5.225   1.051
    1   AR   Ar  165   3.319   3.574   2.634
    1   AR   Ar  166   2.841   4.683   2.895
    1   AR   Ar  167   4.593   2.846   2.723
    1   AR   Ar  168   4.103   3.911   0.366
    1   AR   Ar  169   2.863   2.522   3.280
    1   AR   Ar  170   3.302   4.229   4.307
    1   AR   Ar  171   3.909   3.491   4.922
    1   AR   Ar  172   4.564   4.453   4.106
    1   AR   Ar  173   3.444   2.971   5.589
    1   AR   Ar  174   4.400   4.900   5.902
    1   AR   Ar  175   4.281   3.856   5.969
    1   AR   Ar  176   3.181   5.271   4.938
    1   AR   Ar  177   5.626   4.949  -0.234
    1   AR   Ar  178   4.267   6.792   1.177
    1   AR   Ar  179   3.666   5.990   1.215
    1   AR   Ar  180   4.609   4.662  -0.374
    1   AR   Ar  181   3.080   5.517   2.028
    1   AR   Ar  182   2.324   6.609   2.286
    1   AR   Ar  183   3.684   4.701   1.675
    1   AR   Ar  184   4.374   5.992   2.009
    1   AR   Ar  185   1.420   5.650   3.786
    1   AR   Ar  186   3.499   5.138   3.870
    1   AR   Ar  187   4.486   5.347   3.284
    1   AR   Ar  188   3.327   6.171   2.884
    1   AR   Ar  189   2.430   4.992   5.975
    1   AR   Ar  190   4.134   5.961   6.336
    1   AR   Ar  191   5.172   6.251   5.276
    1   AR   Ar  192   4.064   6.064   4.889
    1   AR   Ar  193   5.956   6.920  -0.238
    1   AR   Ar  194   4.962   0.205  -0.585
    1   AR   Ar  195   5.754   1.141   0.333
    1   AR   Ar  196   6.276   1.344  -0.612
    1   AR   Ar  197   5.059   0.367   0.844
    1   AR   Ar  198   5.826   1.145   1.721
    1   AR   Ar  199   5.222   0.277   1.950
    1   AR   Ar  200   6.366   2.057   0.897
    1   AR   Ar  201   5.067   6.474   2.779
    1   AR   Ar  202   5.452   1.432   3.816
    1   AR   Ar  203   0.079   7.091   4.541
    1   AR   Ar  204   5.777   0.196   2.928
    1   AR   Ar  205   6.212   6.895   4.012
    1   AR   Ar  206   5.299   0.246   5.094
    1   AR   Ar  207   0.077   0.226   5.733
    1   AR   Ar  208   6.296   1.018   3.609
    1   AR   Ar  209   6.772   2.766  -1.937
    1   AR   Ar  210   4.777   2.509   1.734
    1   AR   Ar  211   6.497   2.360  -0.092
    1   AR   Ar  212   6.186   4.017  -0.378
    1   AR   Ar  213   3.717   2.401   2.395
    1   AR   Ar  214   4.236   3.641   1.855
    1   AR   Ar  215   5.874   2.178   1.921
    1   AR   Ar  216   6.240   3.484   1.558
    1   AR   Ar  217   5.218   2.501   3.833
    1   AR   Ar  218   4.963   2.451   4.996
    1   AR   Ar  219   5.307   1.180   2.696
    1   AR   Ar  220   6.276   3.553   3.315
    1   AR   Ar  221   6.376   0.005   5.135
    1   AR   Ar  222   5.137   1.957   6.387
    1   AR   Ar  223   6.127   0.738   7.017
    1   AR   Ar  224   5.530   3.322   5.492
    1   AR   Ar  225   5.149   4.330   0.376
    1   AR   Ar  226   4.731   4.530   2.324
    1   AR   Ar  227   6.620   4.568   1.237
    1   AR   Ar  228   6.379   5.362   0.514
    1   AR   Ar  229   6.056   3.884   0.620
    1   AR   Ar  230   3.957   4.242   3.166
    1   AR   Ar  231   6.918   2.627   3.237
    1   AR   Ar  232   5.079   3.905   1.333
    1   AR   Ar  233   5.965   2.624   4.717
    1   AR   Ar  234   6.142   4.210   4.931
    1   AR   Ar  235   6.593   3.295   4.268
    1   AR   Ar  236   5.242   3.885   3.636
    1   AR   Ar  237   5.010   3.401   4.618
    1   AR   Ar  238   5.259   4.329   5.535
    1   AR   Ar  239   6.417   3.942   7.640
    1   AR   Ar  240   6.237   3.782   6.004
    1   AR   Ar  241   6.648   0.534   0.088
    1   AR   Ar  242   5.133   6.312   1.418
    1   AR   Ar  243   5.872   4.651   2.073
    1   AR   Ar  244   6.852   6.184  -0.311
    1   AR   Ar  245   5.469   5.516   2.336
    1   AR   Ar  246   5.967   6.364   1.946
    1   AR   Ar  247   5.408   3.515   2.302
    1   AR   Ar  248   5.956   0.051   1.226
    1   AR   Ar  249   5.526   4.730   3.086
    1   AR   Ar  250   5.342   6.450   4.058
    1   AR   Ar  251   5.414   5.300   4.366
    1   AR   Ar  252   5.647   5.800   3.346
    1   AR   Ar  253   5.559   5.454   5.794
    1   AR   Ar  254   5.062   5.906   6.897
    1   AR   Ar  255   5.310   4.561   6.513
    1   AR   Ar  256   6.114   6.156   4.712
    7.12000  7.12000 12.00000
Argon-slab step 1190
  256
    1   AR   Ar    1   0.886   0.792  -0.963
    1   AR   Ar    2   6.725   0.758   1.234
    1   AR   Ar    3   0.304   6.903   0.572
    1   AR   Ar    4   1.017   0.606   0.165
    1   AR   Ar    5   0.043   5.960   0.996
    1   AR   Ar    6   0.426   0.341   3.040
    1   AR   Ar    7   0.267   6.034   2.206
    1   AR   Ar    8   0.379   0.006   1.666
    1   AR   Ar    9   0.216   0.945   3.959
    1   AR   Ar   10   7.012   1.807   4.629
    1   AR   Ar   11   2.285   6.979   4.411
    1   AR   Ar   12   1.138   1.218   2.608
    1   AR   Ar   13   6.317   1.258   5.108
    1   AR   Ar   14   0.419   1.504   5.774
    1   AR   Ar   15   6.789   5.858   8.588
    1   AR   Ar   16   0.789   1.232   4.895
    1   AR   Ar   17   0.190   1.327   0.018
    1   AR   Ar   18   6.978   3.314   0.472
    1   AR   Ar   19   0.633   1.268   1.009
    1   AR   Ar   20   1.041   3.238  -2.259
    1   AR   Ar   21   6.650   0.136   2.334
    1   AR   Ar   22   6.940   2.210   2.108
    1   AR   Ar   23   0.287   1.047   1.889
    1   AR   Ar   24   0.106   2.701   1.176
    1   AR   Ar   25   7.027   1.462   2.845
    1   AR   Ar   26   6.147   1.908   2.987
    1   AR   Ar   27   1.558   0.858   3.744
    1   AR   Ar   28   0.986   2.248   4.445
    1   AR   Ar   29   5.988   2.020   5.788
    1   AR   Ar   30   6.759   2.906   6.224
    1   AR   Ar   31   0.493   1.085   7.150
    1   AR   Ar   32   1.912   2.655   5.402
    1   AR   Ar   33   0.913   3.995  -1.466
    1   AR   Ar   34   0.603   5.160   1.423
    1   AR   Ar   35   0.330   4.073   1.379
    1   AR   Ar   36   1.997   6.735  -1.751
    1   AR   Ar   37   0.435   3.027   2.355
    1   AR   Ar   38   0.013   4.776   2.298
    1   AR   Ar   39   0.964   3.862   2.794
    1   AR   Ar   40   1.320   4.168   1.768
    1   AR   Ar   41   0.781   2.192   3.074
    1   AR   Ar   42   6.719   5.461   5.284
    1   AR   Ar   43   6.878   2.696   5.186
    1   AR   Ar   44   0.426   3.560   3.794
    1   AR   Ar   45   0.444   3.493   5.286
    1   AR   Ar   46   6.357   5.099   6.615
    1   AR   Ar   47   6.983   3.884   6.732
    1   AR   Ar   48   7.047   6.331   6.621
    1   AR   Ar   49   6.981   4.885  -1.519
    1   AR   Ar   50   6.481   5.469   1.708
    1   AR   Ar   51   1.304   4.764   0.140
    1   AR   Ar   52   0.229   5.272   0.090
    1   AR   Ar   53   6.562   5.607   2.804
    1   AR   Ar   54   7.001   6.429   3.194
    1   AR   Ar   55   0.321   5.509   3.355
    1   AR   Ar   56   1.037   6.097   1.257
    1   AR   Ar   57   7.015   4.048   2.869
    1   AR   Ar   58   0.048   6.008   4.267
    1   AR   Ar   59   2.170   5.729   5.178
    1   AR   Ar   60   1.147   6.960   3.911
    1   AR   Ar   61   6.304   6.245   5.953
    1   AR   Ar   62   0.249   6.264   5.280
    1   AR   Ar   63   1.311   5.214   5.965
    1   AR   Ar   64   1.345   6.611   4.945
    1   AR   Ar   65   2.752   0.283   0.191
    1   AR   Ar   66   1.529   0.646   1.457
    1   AR   Ar   67   3.090   6.486   0.464
    1   AR   Ar   68   3.808   1.005  -0.437
    1   AR   Ar   69   1.417   6.767   0.450
    1   AR   Ar   70   1.295   0.110   2.417
    1   AR   Ar   71   3.215   0.839   1.588
    1   AR   Ar   72   3.862   0.726   0.634
    1   AR   Ar   73   1.974   0.029   3.304
    1   AR   Ar   74   1.902   0.756   4.751
    1   AR   Ar   75   3.150   0.470   5.143
    1   AR   Ar   76   2.430   0.551   2.609
    1   AR   Ar   77   2.302   0.203   5.707
    1   AR   Ar   78   1.287   0.813   5.716
    1   AR   Ar   79   4.207   7.097   6.649
    1   AR   Ar   80   2.912   6.532   5.032
    1   AR   Ar   81   1.885   1.157   0.190
    1   AR   Ar   82   0.763   3.646   0.387
    1   AR   Ar   83   2.396   1.600   1.093
    1   AR   Ar   84   2.040   3.369  -2.722
    1   AR   Ar   85   1.261   2.488   0.611
    1   AR   Ar   86   1.750   3.310   2.204
    1   AR   Ar   87   2.188   1.564   2.115
    1   AR   Ar   88   3.089   3.518   1.648
    1   AR   Ar   89   0.906   1.997   1.996
    1   AR   Ar   90   2.478   1.663   5.168
    1   AR   Ar   91   2.173   2.293   4.110
    1   AR   Ar   92   1.967   1.800   3.152
    1   AR   Ar   93   1.548   1.710   5.324
    1   AR   Ar   94   2.801   0.913   8.401
    1   AR   Ar   95   3.127   6.950   6.418
    1   AR   Ar   96   1.978   1.195   6.443
    1   AR   Ar   97   2.720   2.906  -0.976
    1   AR   Ar   98   2.517   4.378   1.571
    1   AR   Ar   99   3.849   2.747  -1.417
    1   AR   Ar  100   1.952   4.268  -0.548
    1   AR   Ar  101   1.017   3.093   1.458
    1   AR   Ar  102   2.373   3.947   3.643
    1   AR   Ar  103   1.866   3.528   1.037
    1   AR   Ar  104   3.081   3.864  -0.354
    1   AR   Ar  105   1.579   3.091   3.428
    1   AR   Ar  106   2.548   3.309   4.732
    1   AR   Ar  107   2.872   4.004   5.449
    1   AR   Ar  108   3.395   3.011   3.994
    1   AR   Ar  109   1.170   3.686   4.553
    1   AR   Ar  110   1.743   4.774   5.026
    1   AR   Ar  111   3.973   4.732   6.898
    1   AR   Ar  112   1.844   4.104   5.989
    1   AR   Ar  113   2.526   4.239   0.500
    1   AR   Ar  114   2.789   5.241   1.064
    1   AR   Ar  115   3.408   4.933   0.332
    1   AR   Ar  116   4.018   6.996  -0.350
    1   AR   Ar  117   1.253   4.785   3.246
    1   AR   Ar  118   1.351   6.135   2.694
    1   AR   Ar  119   1.998   4.262   2.564
    1   AR   Ar  120   1.889   5.277   1.957
    1   AR   Ar  121   6.786   4.334   4.025
    1   AR   Ar  122   2.946   6.138   4.083
    1   AR   Ar  123   2.425   5.221   4.124
    1   AR   Ar  124   2.321   5.732   2.942
    1   AR   Ar  125   0.404   4.823   4.634
    1   AR   Ar  126   0.867   6.706   5.940
    1   AR   Ar  127   2.350   5.399   7.415
    1   AR   Ar  128   2.295   6.193   6.238
    1   AR   Ar  129   2.529   7.028   1.286
    1   AR   Ar  130   4.581   6.982  -1.731
    1   AR   Ar  131   4.622   5.953   0.237
    1   AR   Ar  132   5.914   2.428  -1.221
    1   AR   Ar  133   3.418   0.330   2.529
    1   AR   Ar  134   4.204   1.412   2.752
    1   AR   Ar  135   4.646   0.383   2.945
    1   AR   Ar  136   4.284   0.701   1.720
    1   AR   Ar  137   3.073   7.049   3.592
    1   AR   Ar  138   4.614   1.304   4.937
    1   AR   Ar  139   5.174   0.393   4.039
    1   AR   Ar  140   4.385   1.085   3.712
    1   AR   Ar  141   3.725   7.102   4.294
    1   AR   Ar  142   4.282   0.125   5.389
    1   AR   Ar  143   5.528   6.882   6.301
    1   AR   Ar  144   5.021   0.788   7.176
    1   AR   Ar  145   3.097   3.253   0.594
    1   AR   Ar  146   3.880   2.888   1.081
    1   AR   Ar  147   5.456   2.097   0.009
    1   AR   Ar  148   5.803   3.391  -1.728
    1   AR   Ar  149   4.656   1.532   0.720
    1   AR   Ar  150   3.054   1.458   2.639
    1   AR   Ar  151   3.572   1.776   3.561
    1   AR   Ar  152   2.707   2.643   2.138
    1   AR   Ar  153   2.971   1.072   4.149
    1   AR   Ar  154   3.939   2.451   4.515
    1   AR   Ar  155   5.652   0.769   5.960
    1   AR   Ar  156   4.313   3.393   3.736
    1   AR   Ar  157   3.910   1.847   5.612
    1   AR   Ar  158   2.709   2.107   6.121
    1   AR   Ar  159   4.661   0.793   6.219
    1   AR   Ar  160   4.459   2.843   5.763
    1   AR   Ar  161   4.622   3.209  -0.183
    1   AR   Ar  162   4.463   4.899   0.815
    1   AR   Ar  163   5.836   3.140  -0.159
    1   AR   Ar  164   5.360   5.242   1.058
    1   AR   Ar  165   3.327   3.547   2.617
    1   AR   Ar  166   2.827   4.694   2.892
    1   AR   Ar  167   4.603   2.867   2.758
    1   AR   Ar  168   4.103   3.937   0.356
    1   AR   Ar  169   2.866   2.492   3.267
    1   AR   Ar  170   3.310   4.250   4.301
    1   AR   Ar  171   3.935   3.488   4.895
    1   AR   Ar  172   4.581   4.457   4.132
    1   AR   Ar  173   3.441   2.963   5.624
    1   AR   Ar  174   4.424   4.883   5.881
    1   AR   Ar  175   4.295   3.847   5.991
    1   AR   Ar  176   3.149   5.310   4.942
    1   AR   Ar  177   5.616   4.972  -0.211
    1   AR   Ar  178   4.271   6.788   1.209
    1   AR   Ar  179   3.674   5.985   1.229
    1   AR   Ar  180   4.623   4.702  -0.376
    1   AR   Ar  181   3.088   5.523   2.052
    1   AR   Ar  182   2.309   6.615   2.320
    1   AR   Ar  183   3.652   4.716   1.697
    1   AR   Ar  184   4.368   5.991   2.014
    1   AR   Ar  185   1.416   5.673   3.801
    1   AR   Ar  186   3.521   5.157   3.862
    1   AR   Ar  187   4.489   5.345   3.311
    1   AR   Ar  188   3.340   6.185   2.898
    1   AR   Ar  189   2.450   5.000   5.971
    1   AR   Ar  190   4.147   6.003   6.317
    1   AR   Ar  191   5.166   6.257   5.254
    1   AR   Ar  192   4.052   6.080   4.890
    1   AR   Ar  193   5.962   6.929  -0.262
    1   AR   Ar  194   4.965   0.204  -0.581
    1   AR   Ar  195   5.701   1.174   0.302
    1   AR   Ar  196   6.268   1.357  -0.595
    1   AR   Ar  197   5.032   0.336   0.834
    1   AR   Ar  198   5.827   1.143   1.734
    1   AR   Ar  199   5.229   0.234   1.954
    1   AR   Ar  200   6.328   2.075   0.888
    1   AR   Ar  201   5.061   6.507   2.748
    1   AR   Ar  202   5.442   1.443   3.797
    1   AR   Ar  203   0.088   7.076   4.531
    1   AR   Ar  204   5.771   0.198   2.930
    1   AR   Ar  205   6.244   6.863   4.009
    1   AR   Ar  206   5.292   0.232   5.094
    1   AR   Ar  207   0.094   0.186   5.742
    1   AR   Ar  208   6.304   0.985   3.609
    1   AR   Ar  209   6.797   2.758  -1.947
    1   AR   Ar  210   4.793   2.490   1.717
    1   AR   Ar  211   6.509   2.363  -0.110
    1   AR   Ar  212   6.183   4.043  -0.364
    1   AR   Ar  213   3.705   2.419   2.394
    1   AR   Ar  214   4.252   3.675   1.849
    1   AR   Ar  215   5.891   2.191   1.911
    1   AR   Ar  216   6.244   3.509   1.551
    1   AR   Ar  217   5.225   2.506   3.850
    1   AR   Ar  218   4.912   2.441   5.009
    1   AR   Ar  219   5.283   1.191   2.671
    1   AR   Ar  220   6.298   3.570   3.346
    1   AR   Ar  221   6.368   0.003   5.103
    1   AR   Ar  222   5.115   1.953   6.365
    1   AR   Ar  223   6.099   0.699   7.004
    1   AR   Ar  224   5.563   3.330   5.492
    1   AR   Ar  225   5.127   4.362   0.370
    1   AR   Ar  226   4.744   4.556   2.357
    1   AR   Ar  227   6.602   4.596   1.223
    1   AR   Ar  228   6.365   5.358   0.550
    1   AR   Ar  229   6.039   3.903   0.631
    1   AR   Ar  230   3.959   4.237   3.187
    1   AR   Ar  231   6.893   2.645   3.226
    1   AR   Ar  232   5.102   3.917   1.329
    1   AR   Ar  233   5.965   2.606   4.722
    1   AR   Ar  234   6.100   4.226   4.918
    1   AR   Ar  235   6.562   3.284   4.275
    1   AR   Ar  236   5.261   3.893   3.646
    1   AR   Ar  237   5.028   3.398   4.615
    1   AR   Ar  238   5.249   4.356   5.552
    1   AR   Ar  239   6.393   3.970   7.634
    1   AR   Ar  240   6.269   3.803   6.016
    1   AR   Ar  241   6.663   0.574   0.088
    1   AR   Ar  242   5.158   6.324   1.404
    1   AR   Ar  243   5.869   4.634   2.063
    1   AR   Ar  244   6.867   6.183  -0.298
    1   AR   Ar  245   5.502   5.528   2.360
    1   AR   Ar  246   5.988   6.389   1.917
    1   AR   Ar  247   5.391   3.477   2.290
    1   AR   Ar  248   5.933   0.057   1.229
    1   AR   Ar  249   5.517   4.739   3.098
    1   AR   Ar  250   5.355   6.465   4.066
    1   AR   Ar  251   5.450   5.278   4.395
    1   AR   Ar  252   5.655   5.802   3.335
    1   AR   Ar  253   5.536   5.453   5.791
    1   AR   Ar  254   5.039   5.917   6.878
    1   AR   Ar  255   5.284   4.571   6.504
    1   AR   Ar  256   6.136   6.160   4.725
    7.12000  7.12000 12.00000
Argon-slab step 1195
  256
    1   AR   Ar    1   0.857   0.796  -0.955
    1   AR   Ar    2   6.737   0.783   1.247
    1   AR   Ar    3   0.298   6.871   0.552
    1   AR   Ar    4   0.987   0.587   0.185
    1   AR   Ar    5   0.063   5.940   0.997
    1   AR   Ar    6   0.428   0.369   3.030
    1   AR   Ar    7   0.287   6.033   2.214
    1   AR   Ar    8   0.406   7.114   1.653
    1   AR   Ar    9   0.207   0.970   3.949
    1   AR   Ar   10   7.003   1.819   4.633
    1   AR   Ar   11   2.292   7.001   4.398
    1   AR   Ar   12   1.138   1.212   2.615
    1   AR   Ar   13   6.287   1.247   5.058
    1   AR   Ar   14   0.420   1.527   5.796
    1   AR   Ar   15   6.765   5.861   8.592
    1   AR   Ar   16   0.789   1.199   4.898
    1   AR   Ar   17   0.195   1.328  -0.003
    1   AR   Ar   18   6.942   3.307   0.479
    1   AR   Ar   19   0.605   1.280   0.999
    1   AR   Ar   20   1.043   3.240  -2.258
    1   AR   Ar   21   6.649   0.159   2.335
    1   AR   Ar   22   6.959   2.209   2.087
    1   AR   Ar   23   0.309   1.051   1.901
    1   AR   Ar   24   0.096   2.702   1.185
    1   AR   Ar   25   7.053   1.409   2.850
    1   AR   Ar   26   6.144   1.904   2.967
    1   AR   Ar   27   1.529   0.830   3.730
    1   AR   Ar   28   0.994   2.213   4.440
    1   AR   Ar   29   5.994   2.040   5.784
    1   AR   Ar   30   6.768   2.906   6.190
    1   AR   Ar   31   0.476   1.075   7.166
    1   AR   Ar   32   1.906   2.661   5.421
    1   AR   Ar   33   0.900   3.974  -1.497
    1   AR   Ar   34   0.606   5.168   1.408
    1   AR   Ar   35   0.331   4.075   1.353
    1   AR   Ar   36   1.970   6.753  -1.756
    1   AR   Ar   37   0.438   3.047   2.381
    1   AR   Ar   38   7.098   4.812   2.287
    1   AR   Ar   39   0.933   3.879   2.789
    1   AR   Ar   40   1.307   4.172   1.754
    1   AR   Ar   41   0.793   2.168   3.111
    1   AR   Ar   42   6.680   5.445   5.261
    1   AR   Ar   43   6.883   2.723   5.203
    1   AR   Ar   44   0.439   3.594   3.797
    1   AR   Ar   45   0.469   3.486   5.266
    1   AR   Ar   46   6.357   5.110   6.613
    1   AR   Ar   47   6.969   3.832   6.711
    1   AR   Ar   48   7.042   6.349   6.603
    1   AR   Ar   49   6.942   4.892  -1.532
    1   AR   Ar   50   6.477   5.481   1.723
    1   AR   Ar   51   1.325   4.737   0.148
    1   AR   Ar   52   0.245   5.268   0.113
    1   AR   Ar   53   6.586   5.586   2.767
    1   AR   Ar   54   7.025   6.448   3.204
    1   AR   Ar   55   0.315   5.494   3.359
    1   AR   Ar   56   1.016   6.069   1.240
    1   AR   Ar   57   7.020   4.031   2.877
    1   AR   Ar   58   0.075   6.011   4.289
    1   AR   Ar   59   2.155   5.711   5.188
    1   AR   Ar   60   1.140   6.953   3.907
    1   AR   Ar   61   6.301   6.236   5.921
    1   AR   Ar   62   0.238   6.264   5.308
    1   AR   Ar   63   1.320   5.188   5.969
    1   AR   Ar   64   1.352   6.638   4.942
    1   AR   Ar   65   2.763   0.275   0.173
    1   AR   Ar   66   1.555   0.661   1.472
    1   AR   Ar   67   3.093   6.459   0.476
    1   AR   Ar   68   3.812   0.997  -0.393
    1   AR   Ar   69   1.423   6.762   0.423
    1   AR   Ar   70   1.285   0.099   2.403
    1   AR   Ar   71   3.202   0.827   1.566
    1   AR   Ar   72   3.863   0.717   0.628
    1   AR   Ar   73   1.952   0.049   3.282
    1   AR   Ar   74   1.929   0.748   4.746
    1   AR   Ar   75   3.171   0.461   5.152
    1   AR   Ar   76   2.439   0.540   2.635
    1   AR   Ar   77   2.303   0.173   5.672
    1   AR   Ar   78   1.297   0.803   5.730
    1   AR   Ar   79   4.250   7.115   6.634
    1   AR   Ar   80   2.923   6.513   5.012
    1   AR   Ar   81   1.888   1.155   0.177
    1   AR   Ar   82   0.757   3.626   0.378
    1   AR   Ar   83   2.386   1.592   1.107
    1   AR   Ar   84   2.063   3.381  -2.775
    1   AR   Ar   85   1.243   2.507   0.607
    1   AR   Ar   86   1.756   3.301   2.169
    1   AR   Ar   87   2.204   1.568   2.099
    1   AR   Ar   88   3.116   3.513   1.648
    1   AR   Ar   89   0.920   1.994   2.017
    1   AR   Ar   90   2.493   1.640   5.164
    1   AR   Ar   91   2.139   2.283   4.118
    1   AR   Ar   92   1.977   1.829   3.138
    1   AR   Ar   93   1.541   1.713   5.325
    1   AR   Ar   94   2.818   0.900   8.383
    1   AR   Ar   95   3.120   6.951   6.412
    1   AR   Ar   96   1.991   1.154   6.408
    1   AR   Ar   97   2.711   2.876  -0.990
    1   AR   Ar   98   2.523   4.370   1.587
    1   AR   Ar   99   3.839   2.747  -1.407
    1   AR   Ar  100   1.924   4.284  -0.530
    1   AR   Ar  101   1.027   3.100   1.467
    1   AR   Ar  102   2.376   3.970   3.645
    1   AR   Ar  103   1.843   3.519   1.003
    1   AR   Ar  104   3.071   3.864  -0.348
    1   AR   Ar  105   1.603   3.095   3.405
    1   AR   Ar  106   2.532   3.290   4.723
    1   AR   Ar  107   2.862   4.020   5.399
    1   AR   Ar  108   3.378   3.042   3.986
    1   AR   Ar  109   1.163   3.676   4.507
    1   AR   Ar  110   1.702   4.774   5.039
    1   AR   Ar  111   3.985   4.711   6.909
    1   AR   Ar  112   1.815   4.107   5.989
    1   AR   Ar  113   2.521   4.253   0.485
    1   AR   Ar  114   2.771   5.218   1.051
    1   AR   Ar  115   3.442   4.913   0.334
    1   AR   Ar  116   4.024   6.998  -0.349
    1   AR   Ar  117   1.253   4.802   3.258
    1   AR   Ar  118   1.335   6.119   2.669
    1   AR   Ar  119   1.957   4.272   2.577
    1   AR   Ar  120   1.882   5.285   1.992
    1   AR   Ar  121   6.742   4.332   4.025
    1   AR   Ar  122   2.937   6.128   4.077
    1   AR   Ar  123   2.393   5.231   4.115
    1   AR   Ar  124   2.299   5.760   2.948
    1   AR   Ar  125   0.403   4.807   4.634
    1   AR   Ar  126   0.859   6.679   5.965
    1   AR   Ar  127   2.356   5.386   7.430
    1   AR   Ar  128   2.299   6.206   6.231
    1   AR   Ar  129   2.493   7.040   1.282
    1   AR   Ar  130   4.611   6.991  -1.749
    1   AR   Ar  131   4.627   5.967   0.262
    1   AR   Ar  132   5.935   2.443  -1.239
    1   AR   Ar  133   3.427   0.337   2.544
    1   AR   Ar  134   4.213   1.396   2.755
    1   AR   Ar  135   4.634   0.375   2.951
    1   AR   Ar  136   4.273   0.714   1.719
    1   AR   Ar  137   3.063   7.047   3.570
    1   AR   Ar  138   4.636   1.301   4.949
    1   AR   Ar  139   5.187   0.372   4.019
    1   AR   Ar  140   4.406   1.084   3.683
    1   AR   Ar  141   3.741   0.006   4.283
    1   AR   Ar  142   4.270   0.127   5.383
    1   AR   Ar  143   5.546   6.879   6.284
    1   AR   Ar  144   5.007   0.805   7.164
    1   AR   Ar  145   3.136   3.253   0.588
    1   AR   Ar  146   3.899   2.910   1.088
    1   AR   Ar  147   5.455   2.125  -0.021
    1   AR   Ar  148   5.816   3.374  -1.730
    1   AR   Ar  149   4.689   1.557   0.709
    1   AR   Ar  150   3.042   1.433   2.623
    1   AR   Ar  151   3.595   1.764   3.534
    1   AR   Ar  152   2.713   2.616   2.142
    1   AR   Ar  153   2.919   1.083   4.181
    1   AR   Ar  154   3.930   2.436   4.516
    1   AR   Ar  155   5.675   0.753   5.962
    1   AR   Ar  156   4.317   3.415   3.754
    1   AR   Ar  157   3.880   1.842   5.589
    1   AR   Ar  158   2.670   2.087   6.121
    1   AR   Ar  159   4.643   0.803   6.189
    1   AR   Ar  160   4.464   2.839   5.762
    1   AR   Ar  161   4.630   3.235  -0.176
    1   AR   Ar  162   4.445   4.907   0.762
    1   AR   Ar  163   5.847   3.157  -0.184
    1   AR   Ar  164   5.354   5.262   1.069
    1   AR   Ar  165   3.305   3.549   2.588
    1   AR   Ar  166   2.823   4.710   2.893
    1   AR   Ar  167   4.614   2.888   2.795
    1   AR   Ar  168   4.100   3.957   0.353
    1   AR   Ar  169   2.864   2.462   3.247
    1   AR   Ar  170   3.301   4.255   4.306
    1   AR   Ar  171   3.965   3.489   4.863
    1   AR   Ar  172   4.592   4.466   4.162
    1   AR   Ar  173   3.430   2.952   5.661
    1   AR   Ar  174   4.445   4.874   5.861
    1   AR   Ar  175   4.309   3.839   6.013
    1   AR   Ar  176   3.108   5.329   4.956
    1   AR   Ar  177   5.616   5.007  -0.194
    1   AR   Ar  178   4.265   6.788   1.247
    1   AR   Ar  179   3.676   5.970   1.240
    1   AR   Ar  180   4.585   4.695  -0.406
    1   AR   Ar  181   3.093   5.531   2.081
    1   AR   Ar  182   2.295   6.622   2.354
    1   AR   Ar  183   3.623   4.727   1.718
    1   AR   Ar  184   4.362   5.987   2.025
    1   AR   Ar  185   1.413   5.700   3.817
    1   AR   Ar  186   3.543   5.181   3.851
    1   AR   Ar  187   4.495   5.342   3.338
    1   AR   Ar  188   3.352   6.200   2.914
    1   AR   Ar  189   2.470   5.010   5.966
    1   AR   Ar  190   4.158   6.045   6.294
    1   AR   Ar  191   5.156   6.256   5.268
    1   AR   Ar  192   4.054   6.090   4.891
    1   AR   Ar  193   5.968   6.936  -0.285
    1   AR   Ar  194   4.989   0.211  -0.565
    1   AR   Ar  195   5.650   1.197   0.277
    1   AR   Ar  196   6.260   1.371  -0.579
    1   AR   Ar  197   5.000   0.309   0.821
    1   AR   Ar  198   5.829   1.138   1.746
    1   AR   Ar  199   5.234   0.190   1.963
    1   AR   Ar  200   6.289   2.091   0.882
    1   AR   Ar  201   5.054   6.539   2.715
    1   AR   Ar  202   5.424   1.457   3.781
    1   AR   Ar  203   0.105   7.062   4.518
    1   AR   Ar  204   5.764   0.201   2.934
    1   AR   Ar  205   6.289   6.843   3.998
    1   AR   Ar  206   5.287   0.217   5.095
    1   AR   Ar  207   0.105   0.152   5.748
    1   AR   Ar  208   6.353   0.964   3.610
    1   AR   Ar  209   6.820   2.751  -1.956
    1   AR   Ar  210   4.808   2.472   1.700
    1   AR   Ar  211   6.508   2.341  -0.115
    1   AR   Ar  212   6.186   4.080  -0.359
    1   AR   Ar  213   3.693   2.435   2.393
    1   AR   Ar  214   4.262   3.706   1.847
    1   AR   Ar  215   5.932   2.172   1.930
    1   AR   Ar  216   6.251   3.532   1.549
    1   AR   Ar  217   5.232   2.513   3.867
    1   AR   Ar  218   4.869   2.419   5.011
    1   AR   Ar  219   5.261   1.204   2.647
    1   AR   Ar  220   6.308   3.583   3.374
    1   AR   Ar  221   6.362   0.005   5.078
    1   AR   Ar  222   5.090   1.947   6.343
    1   AR   Ar  223   6.072   0.661   6.989
    1   AR   Ar  224   5.591   3.330   5.492
    1   AR   Ar  225   5.175   4.365   0.367
    1   AR   Ar  226   4.756   4.583   2.388
    1   AR   Ar  227   6.580   4.620   1.209
    1   AR   Ar  228   6.345   5.351   0.597
    1   AR   Ar  229   6.022   3.922   0.643
    1   AR   Ar  230   3.962   4.236   3.208
    1   AR   Ar  231   6.871   2.664   3.216
    1   AR   Ar  232   5.131   3.931   1.325
    1   AR   Ar  233   5.960   2.592   4.719
    1   AR   Ar  234   6.060   4.241   4.904
    1   AR   Ar  235   6.550   3.285   4.280
    1   AR   Ar  236   5.287   3.893   3.653
    1   AR   Ar  237   5.044   3.399   4.607
    1   AR   Ar  238   5.241   4.378   5.555
    1   AR   Ar  239   6.368   3.998   7.628
    1   AR   Ar  240   6.283   3.824   6.017
    1   AR   Ar  241   6.672   0.606   0.091
    1   AR   Ar  242   5.179   6.334   1.383
    1   AR   Ar  243   5.868   4.609   2.051
    1   AR   Ar  244   6.882   6.183  -0.283
    1   AR   Ar  245   5.530   5.544   2.379
    1   AR   Ar  246   6.019   6.415   1.900
    1   AR   Ar  247   5.374   3.440   2.277
    1   AR   Ar  248   5.917   0.061   1.229
    1   AR   Ar  249   5.510   4.750   3.110
    1   AR   Ar  250   5.352   6.476   4.078
    1   AR   Ar  251   5.486   5.256   4.424
    1   AR   Ar  252   5.665   5.803   3.330
    1   AR   Ar  253   5.515   5.446   5.791
    1   AR   Ar  254   5.018   5.927   6.858
    1   AR   Ar  255   5.260   4.584   6.509
    1   AR   Ar  256   6.158   6.157   4.743
    7.12000  7.12000 12.00000
Argon-slab step 1200
  256
    1   AR   Ar    1   0.828   0.799  -0.945
    1   AR   Ar    2   6.742   0.804   1.251
    1   AR   Ar    3   0.293   6.842   0.531
    1   AR   Ar    4   0.963   0.595   0.173
    1   AR   Ar    5   0.068   5.922   0.996
    1   AR   Ar    6   0.429   0.397   3.020
    1   AR   Ar    7   0.308   6.031   2.219
    1   AR   Ar    8   0.394   7.077   1.673
    1   AR   Ar    9   0.235   1.026   3.915
    1   AR   Ar   10   6.999   1.834   4.633
    1   AR   Ar   11   2.297   7.021   4.376
    1   AR   Ar   12   1.140   1.199   2.627
    1   AR   Ar   13   6.251   1.230   5.010
    1   AR   Ar   14   0.419   1.551   5.821
    1   AR   Ar   15   6.742   5.864   8.597
    1   AR   Ar   16   0.784   1.160   4.889
    1   AR   Ar   17   0.208   1.341  -0.026
    1   AR   Ar   18   6.890   3.306   0.476
    1   AR   Ar   19   0.569   1.293   0.980
    1   AR   Ar   20   1.045   3.241  -2.258
    1   AR   Ar   21   6.649   0.183   2.334
    1   AR   Ar   22   6.979   2.205   2.068
    1   AR   Ar   23   0.335   1.055   1.933
    1   AR   Ar   24   0.074   2.697   1.208
    1   AR   Ar   25   7.085   1.354   2.857
    1   AR   Ar   26   6.136   1.900   2.949
    1   AR   Ar   27   1.495   0.812   3.719
    1   AR   Ar   28   0.998   2.170   4.425
    1   AR   Ar   29   6.011   2.063   5.774
    1   AR   Ar   30   6.777   2.903   6.163
    1   AR   Ar   31   0.477   1.076   7.192
    1   AR   Ar   32   1.919   2.646   5.420
    1   AR   Ar   33   0.886   3.955  -1.525
    1   AR   Ar   34   0.602   5.150   1.393
    1   AR   Ar   35   0.333   4.072   1.327
    1   AR   Ar   36   1.943   6.771  -1.761
    1   AR   Ar   37   0.439   3.066   2.406
    1   AR   Ar   38   7.065   4.863   2.259
    1   AR   Ar   39   0.908   3.897   2.783
    1   AR   Ar   40   1.295   4.179   1.737
    1   AR   Ar   41   0.765   2.200   3.120
    1   AR   Ar   42   6.643   5.421   5.240
    1   AR   Ar   43   6.889   2.747   5.215
    1   AR   Ar   44   0.459   3.605   3.815
    1   AR   Ar   45   0.494   3.481   5.249
    1   AR   Ar   46   6.351   5.124   6.610
    1   AR   Ar   47   6.966   3.781   6.700
    1   AR   Ar   48   7.043   6.368   6.587
    1   AR   Ar   49   6.902   4.899  -1.544
    1   AR   Ar   50   6.473   5.499   1.738
    1   AR   Ar   51   1.341   4.713   0.164
    1   AR   Ar   52   0.262   5.262   0.138
    1   AR   Ar   53   6.609   5.569   2.727
    1   AR   Ar   54   7.048   6.474   3.215
    1   AR   Ar   55   0.316   5.473   3.364
    1   AR   Ar   56   1.008   6.051   1.224
    1   AR   Ar   57   7.031   4.008   2.888
    1   AR   Ar   58   0.102   6.011   4.308
    1   AR   Ar   59   2.138   5.699   5.198
    1   AR   Ar   60   1.135   6.946   3.907
    1   AR   Ar   61   6.294   6.225   5.882
    1   AR   Ar   62   0.221   6.262   5.332
    1   AR   Ar   63   1.331   5.163   5.973
    1   AR   Ar   64   1.359   6.667   4.940
    1   AR   Ar   65   2.791   0.254   0.159
    1   AR   Ar   66   1.580   0.677   1.486
    1   AR   Ar   67   3.098   6.429   0.489
    1   AR   Ar   68   3.813   0.973  -0.372
    1   AR   Ar   69   1.429   6.756   0.398
    1   AR   Ar   70   1.281   0.090   2.393
    1   AR   Ar   71   3.186   0.815   1.545
    1   AR   Ar   72   3.864   0.700   0.599
    1   AR   Ar   73   1.927   0.048   3.271
    1   AR   Ar   74   1.953   0.748   4.746
    1   AR   Ar   75   3.194   0.454   5.159
    1   AR   Ar   76   2.451   0.544   2.646
    1   AR   Ar   77   2.300   0.143   5.637
    1   AR   Ar   78   1.309   0.778   5.745
    1   AR   Ar   79   4.291   0.006   6.621
    1   AR   Ar   80   2.940   6.491   5.005
    1   AR   Ar   81   1.892   1.153   0.166
    1   AR   Ar   82   0.763   3.609   0.371
    1   AR   Ar   83   2.376   1.584   1.114
    1   AR   Ar   84   2.085   3.394  -2.828
    1   AR   Ar   85   1.224   2.526   0.603
    1   AR   Ar   86   1.767   3.289   2.139
    1   AR   Ar   87   2.210   1.572   2.085
    1   AR   Ar   88   3.141   3.505   1.630
    1   AR   Ar   89   0.932   1.999   2.031
    1   AR   Ar   90   2.499   1.621   5.150
    1   AR   Ar   91   2.105   2.274   4.127
    1   AR   Ar   92   1.985   1.857   3.123
    1   AR   Ar   93   1.518   1.717   5.323
    1   AR   Ar   94   2.834   0.887   8.364
    1   AR   Ar   95   3.112   6.954   6.405
    1   AR   Ar   96   2.008   1.114   6.374
    1   AR   Ar   97   2.713   2.852  -0.988
    1   AR   Ar   98   2.525   4.361   1.607
    1   AR   Ar   99   3.829   2.747  -1.396
    1   AR   Ar  100   1.901   4.295  -0.518
    1   AR   Ar  101   1.032   3.107   1.477
    1   AR   Ar  102   2.380   3.992   3.646
    1   AR   Ar  103   1.836   3.503   1.018
    1   AR   Ar  104   3.061   3.863  -0.343
    1   AR   Ar  105   1.628   3.099   3.381
    1   AR   Ar  106   2.515   3.268   4.710
    1   AR   Ar  107   2.854   4.039   5.350
    1   AR   Ar  108   3.349   3.083   3.972
    1   AR   Ar  109   1.164   3.668   4.463
    1   AR   Ar  110   1.661   4.770   5.049
    1   AR   Ar  111   3.999   4.691   6.918
    1   AR   Ar  112   1.786   4.110   5.988
    1   AR   Ar  113   2.516   4.267   0.471
    1   AR   Ar  114   2.751   5.201   1.041
    1   AR   Ar  115   3.479   4.889   0.333
    1   AR   Ar  116   4.026   6.999  -0.344
    1   AR   Ar  117   1.247   4.818   3.266
    1   AR   Ar  118   1.317   6.104   2.645
    1   AR   Ar  119   1.914   4.281   2.591
    1   AR   Ar  120   1.875   5.293   2.027
    1   AR   Ar  121   6.699   4.331   4.024
    1   AR   Ar  122   2.930   6.115   4.064
    1   AR   Ar  123   2.358   5.238   4.105
    1   AR   Ar  124   2.278   5.783   2.958
    1   AR   Ar  125   0.402   4.792   4.633
    1   AR   Ar  126   0.867   6.650   5.999
    1   AR   Ar  127   2.351   5.361   7.451
    1   AR   Ar  128   2.312   6.247   6.219
    1   AR   Ar  129   2.456   7.052   1.278
    1   AR   Ar  130   4.642   7.000  -1.766
    1   AR   Ar  131   4.631   5.979   0.291
    1   AR   Ar  132   5.958   2.456  -1.254
    1   AR   Ar  133   3.445   0.343   2.559
    1   AR   Ar  134   4.219   1.382   2.746
    1   AR   Ar  135   4.621   0.364   2.955
    1   AR   Ar  136   4.264   0.727   1.719
    1   AR   Ar  137   3.044   7.049   3.537
    1   AR   Ar  138   4.658   1.298   4.960
    1   AR   Ar  139   5.201   0.356   3.997
    1   AR   Ar  140   4.428   1.080   3.667
    1   AR   Ar  141   3.765   0.031   4.283
    1   AR   Ar  142   4.254   0.129   5.377
    1   AR   Ar  143   5.559   6.875   6.267
    1   AR   Ar  144   4.987   0.822   7.146
    1   AR   Ar  145   3.163   3.260   0.574
    1   AR   Ar  146   3.929   2.929   1.103
    1   AR   Ar  147   5.452   2.162  -0.053
    1   AR   Ar  148   5.829   3.359  -1.733
    1   AR   Ar  149   4.723   1.580   0.698
    1   AR   Ar  150   3.040   1.410   2.612
    1   AR   Ar  151   3.618   1.753   3.511
    1   AR   Ar  152   2.713   2.590   2.147
    1   AR   Ar  153   2.866   1.093   4.214
    1   AR   Ar  154   3.928   2.412   4.525
    1   AR   Ar  155   5.702   0.742   5.961
    1   AR   Ar  156   4.325   3.435   3.773
    1   AR   Ar  157   3.893   1.852   5.576
    1   AR   Ar  158   2.632   2.067   6.120
    1   AR   Ar  159   4.626   0.821   6.151
    1   AR   Ar  160   4.466   2.840   5.777
    1   AR   Ar  161   4.642   3.259  -0.170
    1   AR   Ar  162   4.415   4.920   0.714
    1   AR   Ar  163   5.853   3.169  -0.207
    1   AR   Ar  164   5.354   5.282   1.084
    1   AR   Ar  165   3.293   3.548   2.577
    1   AR   Ar  166   2.826   4.729   2.895
    1   AR   Ar  167   4.624   2.910   2.833
    1   AR   Ar  168   4.096   3.967   0.361
    1   AR   Ar  169   2.861   2.434   3.225
    1   AR   Ar  170   3.281   4.251   4.320
    1   AR   Ar  171   3.995   3.491   4.831
    1   AR   Ar  172   4.599   4.476   4.193
    1   AR   Ar  173   3.414   2.941   5.697
    1   AR   Ar  174   4.439   4.886   5.887
    1   AR   Ar  175   4.322   3.832   6.035
    1   AR   Ar  176   3.071   5.347   4.969
    1   AR   Ar  177   5.626   5.055  -0.186
    1   AR   Ar  178   4.257   6.797   1.284
    1   AR   Ar  179   3.672   5.946   1.248
    1   AR   Ar  180   4.541   4.689  -0.439
    1   AR   Ar  181   3.093   5.543   2.112
    1   AR   Ar  182   2.281   6.631   2.386
    1   AR   Ar  183   3.596   4.734   1.736
    1   AR   Ar  184   4.358   5.982   2.040
    1   AR   Ar  185   1.390   5.708   3.842
    1   AR   Ar  186   3.564   5.206   3.838
    1   AR   Ar  187   4.503   5.338   3.363
    1   AR   Ar  188   3.365   6.215   2.930
    1   AR   Ar  189   2.490   5.020   5.960
    1   AR   Ar  190   4.144   6.065   6.302
    1   AR   Ar  191   5.144   6.257   5.289
    1   AR   Ar  192   4.032   6.107   4.899
    1   AR   Ar  193   5.975   6.944  -0.307
    1   AR   Ar  194   5.027   0.224  -0.539
    1   AR   Ar  195   5.602   1.209   0.258
    1   AR   Ar  196   6.252   1.387  -0.564
    1   AR   Ar  197   4.965   0.285   0.805
    1   AR   Ar  198   5.831   1.130   1.755
    1   AR   Ar  199   5.234   0.148   1.976
    1   AR   Ar  200   6.250   2.106   0.878
    1   AR   Ar  201   5.049   6.566   2.682
    1   AR   Ar  202   5.405   1.472   3.764
    1   AR   Ar  203   0.128   7.050   4.502
    1   AR   Ar  204   5.761   0.213   2.935
    1   AR   Ar  205   6.341   6.830   3.980
    1   AR   Ar  206   5.283   0.202   5.094
    1   AR   Ar  207   0.062   0.173   5.760
    1   AR   Ar  208   6.399   0.940   3.609
    1   AR   Ar  209   6.842   2.745  -1.964
    1   AR   Ar  210   4.823   2.455   1.684
    1   AR   Ar  211   6.499   2.306  -0.113
    1   AR   Ar  212   6.193   4.126  -0.359
    1   AR   Ar  213   3.686   2.450   2.394
    1   AR   Ar  214   4.285   3.717   1.864
    1   AR   Ar  215   5.974   2.149   1.956
    1   AR   Ar  216   6.260   3.553   1.553
    1   AR   Ar  217   5.237   2.524   3.885
    1   AR   Ar  218   4.837   2.387   4.998
    1   AR   Ar  219   5.242   1.217   2.626
    1   AR   Ar  220   6.304   3.594   3.397
    1   AR   Ar  221   6.385   0.016   5.066
    1   AR   Ar  222   5.061   1.940   6.320
    1   AR   Ar  223   6.072   0.678   6.991
    1   AR   Ar  224   5.614   3.323   5.489
    1   AR   Ar  225   5.217   4.353   0.369
    1   AR   Ar  226   4.766   4.609   2.418
    1   AR   Ar  227   6.561   4.631   1.199
    1   AR   Ar  228   6.323   5.355   0.635
    1   AR   Ar  229   6.009   3.938   0.656
    1   AR   Ar  230   3.963   4.239   3.228
    1   AR   Ar  231   6.851   2.684   3.205
    1   AR   Ar  232   5.163   3.946   1.321
    1   AR   Ar  233   5.948   2.573   4.716
    1   AR   Ar  234   6.022   4.255   4.887
    1   AR   Ar  235   6.548   3.289   4.292
    1   AR   Ar  236   5.315   3.888   3.658
    1   AR   Ar  237   5.059   3.401   4.596
    1   AR   Ar  238   5.239   4.392   5.541
    1   AR   Ar  239   6.342   4.027   7.621
    1   AR   Ar  240   6.267   3.839   6.003
    1   AR   Ar  241   6.672   0.626   0.098
    1   AR   Ar  242   5.195   6.341   1.357
    1   AR   Ar  243   5.868   4.579   2.036
    1   AR   Ar  244   6.896   6.184  -0.266
    1   AR   Ar  245   5.554   5.563   2.387
    1   AR   Ar  246   6.060   6.441   1.894
    1   AR   Ar  247   5.358   3.405   2.265
    1   AR   Ar  248   5.910   0.068   1.221
    1   AR   Ar  249   5.538   4.743   3.093
    1   AR   Ar  250   5.340   6.480   4.094
    1   AR   Ar  251   5.522   5.235   4.453
    1   AR   Ar  252   5.676   5.807   3.333
    1   AR   Ar  253   5.496   5.436   5.793
    1   AR   Ar  254   5.002   5.937   6.838
    1   AR   Ar  255   5.237   4.600   6.528
    1   AR   Ar  256   6.176   6.151   4.764
    7.12000  7.12000 12.00000
Argon-slab step 1205
  256
    1   AR   Ar    1   0.799   0.803  -0.934
    1   AR   Ar    2   6.744   0.823   1.250
    1   AR   Ar    3   0.289   6.817   0.509
    1   AR   Ar    4   0.937   0.601   0.162
    1   AR   Ar    5   0.056   5.906   0.992
    1   AR   Ar    6   0.431   0.423   3.011
    1   AR   Ar    7   0.335   6.027   2.225
    1   AR   Ar    8   0.382   7.040   1.692
    1   AR   Ar    9   0.272   1.083   3.884
    1   AR   Ar   10   7.000   1.850   4.630
    1   AR   Ar   11   2.304   7.033   4.347
    1   AR   Ar   12   1.146   1.180   2.645
    1   AR   Ar   13   6.211   1.209   4.965
    1   AR   Ar   14   0.418   1.575   5.848
    1   AR   Ar   15   6.719   5.867   8.601
    1   AR   Ar   16   0.774   1.117   4.874
    1   AR   Ar   17   0.228   1.366  -0.053
    1   AR   Ar   18   6.852   3.314   0.468
    1   AR   Ar   19   0.537   1.309   0.956
    1   AR   Ar   20   1.048   3.243  -2.266
    1   AR   Ar   21   6.651   0.207   2.332
    1   AR   Ar   22   7.003   2.196   2.059
    1   AR   Ar   23   0.363   1.056   1.973
    1   AR   Ar   24   0.056   2.690   1.232
    1   AR   Ar   25   7.116   1.303   2.867
    1   AR   Ar   26   6.126   1.893   2.936
    1   AR   Ar   27   1.456   0.807   3.712
    1   AR   Ar   28   1.001   2.126   4.409
    1   AR   Ar   29   6.030   2.087   5.761
    1   AR   Ar   30   6.782   2.897   6.149
    1   AR   Ar   31   0.479   1.077   7.216
    1   AR   Ar   32   1.936   2.635   5.419
    1   AR   Ar   33   0.872   3.940  -1.550
    1   AR   Ar   34   0.596   5.120   1.383
    1   AR   Ar   35   0.332   4.066   1.302
    1   AR   Ar   36   1.915   6.789  -1.765
    1   AR   Ar   37   0.439   3.081   2.430
    1   AR   Ar   38   7.046   4.897   2.222
    1   AR   Ar   39   0.892   3.916   2.778
    1   AR   Ar   40   1.283   4.188   1.719
    1   AR   Ar   41   0.728   2.246   3.122
    1   AR   Ar   42   6.610   5.386   5.224
    1   AR   Ar   43   6.893   2.765   5.211
    1   AR   Ar   44   0.481   3.582   3.852
    1   AR   Ar   45   0.519   3.480   5.233
    1   AR   Ar   46   6.343   5.138   6.605
    1   AR   Ar   47   6.971   3.733   6.699
    1   AR   Ar   48   7.047   6.388   6.571
    1   AR   Ar   49   6.863   4.905  -1.556
    1   AR   Ar   50   6.464   5.521   1.741
    1   AR   Ar   51   1.348   4.694   0.192
    1   AR   Ar   52   0.279   5.256   0.165
    1   AR   Ar   53   6.620   5.567   2.704
    1   AR   Ar   54   7.072   6.502   3.225
    1   AR   Ar   55   0.320   5.451   3.370
    1   AR   Ar   56   1.016   6.044   1.212
    1   AR   Ar   57   7.044   3.989   2.894
    1   AR   Ar   58   0.127   6.009   4.324
    1   AR   Ar   59   2.116   5.693   5.207
    1   AR   Ar   60   1.152   6.942   3.918
    1   AR   Ar   61   6.286   6.214   5.837
    1   AR   Ar   62   0.198   6.259   5.352
    1   AR   Ar   63   1.344   5.161   5.980
    1   AR   Ar   64   1.367   6.695   4.940
    1   AR   Ar   65   2.819   0.237   0.144
    1   AR   Ar   66   1.605   0.695   1.500
    1   AR   Ar   67   3.104   6.397   0.503
    1   AR   Ar   68   3.809   0.939  -0.371
    1   AR   Ar   69   1.436   6.750   0.374
    1   AR   Ar   70   1.286   0.083   2.388
    1   AR   Ar   71   3.167   0.803   1.524
    1   AR   Ar   72   3.867   0.679   0.580
    1   AR   Ar   73   1.900   0.028   3.268
    1   AR   Ar   74   1.970   0.758   4.751
    1   AR   Ar   75   3.217   0.448   5.164
    1   AR   Ar   76   2.465   0.559   2.644
    1   AR   Ar   77   2.285   0.139   5.605
    1   AR   Ar   78   1.314   0.744   5.756
    1   AR   Ar   79   4.330   0.009   6.612
    1   AR   Ar   80   2.959   6.470   5.007
    1   AR   Ar   81   1.898   1.151   0.155
    1   AR   Ar   82   0.774   3.594   0.365
    1   AR   Ar   83   2.369   1.574   1.109
    1   AR   Ar   84   2.106   3.406  -2.880
    1   AR   Ar   85   1.205   2.544   0.599
    1   AR   Ar   86   1.784   3.277   2.115
    1   AR   Ar   87   2.205   1.576   2.078
    1   AR   Ar   88   3.165   3.496   1.596
    1   AR   Ar   89   0.944   2.010   2.041
    1   AR   Ar   90   2.476   1.611   5.127
    1   AR   Ar   91   2.075   2.263   4.131
    1   AR   Ar   92   1.989   1.882   3.107
    1   AR   Ar   93   1.470   1.712   5.298
    1   AR   Ar   94   2.850   0.874   8.346
    1   AR   Ar   95   3.106   6.958   6.397
    1   AR   Ar   96   2.032   1.078   6.344
    1   AR   Ar   97   2.735   2.834  -0.963
    1   AR   Ar   98   2.523   4.350   1.630
    1   AR   Ar   99   3.810   2.755  -1.395
    1   AR   Ar  100   1.887   4.300  -0.514
    1   AR   Ar  101   1.024   3.112   1.487
    1   AR   Ar  102   2.383   4.014   3.648
    1   AR   Ar  103   1.837   3.504   1.028
    1   AR   Ar  104   3.054   3.862  -0.339
    1   AR   Ar  105   1.652   3.103   3.357
    1   AR   Ar  106   2.498   3.245   4.694
    1   AR   Ar  107   2.847   4.061   5.303
    1   AR   Ar  108   3.315   3.127   3.956
    1   AR   Ar  109   1.185   3.663   4.429
    1   AR   Ar  110   1.621   4.761   5.057
    1   AR   Ar  111   4.023   4.695   6.915
    1   AR   Ar  112   1.758   4.114   5.985
    1   AR   Ar  113   2.509   4.281   0.459
    1   AR   Ar  114   2.755   5.167   1.042
    1   AR   Ar  115   3.510   4.865   0.328
    1   AR   Ar  116   4.026   6.999  -0.338
    1   AR   Ar  117   1.237   4.834   3.270
    1   AR   Ar  118   1.297   6.088   2.622
    1   AR   Ar  119   1.872   4.290   2.605
    1   AR   Ar  120   1.869   5.300   2.061
    1   AR   Ar  121   6.658   4.334   4.023
    1   AR   Ar  122   2.924   6.101   4.045
    1   AR   Ar  123   2.328   5.240   4.103
    1   AR   Ar  124   2.262   5.800   2.974
    1   AR   Ar  125   0.402   4.778   4.632
    1   AR   Ar  126   0.884   6.622   6.038
    1   AR   Ar  127   2.348   5.350   7.458
    1   AR   Ar  128   2.323   6.285   6.205
    1   AR   Ar  129   2.420   7.065   1.274
    1   AR   Ar  130   4.672   7.009  -1.782
    1   AR   Ar  131   4.636   5.992   0.321
    1   AR   Ar  132   5.981   2.463  -1.263
    1   AR   Ar  133   3.470   0.348   2.574
    1   AR   Ar  134   4.219   1.371   2.723
    1   AR   Ar  135   4.608   0.351   2.955
    1   AR   Ar  136   4.256   0.739   1.720
    1   AR   Ar  137   3.020   7.053   3.500
    1   AR   Ar  138   4.681   1.292   4.971
    1   AR   Ar  139   5.215   0.348   3.972
    1   AR   Ar  140   4.451   1.074   3.665
    1   AR   Ar  141   3.791   0.055   4.286
    1   AR   Ar  142   4.237   0.128   5.371
    1   AR   Ar  143   5.569   6.869   6.252
    1   AR   Ar  144   4.968   0.838   7.130
    1   AR   Ar  145   3.181   3.272   0.554
    1   AR   Ar  146   3.971   2.944   1.125
    1   AR   Ar  147   5.445   2.204  -0.087
    1   AR   Ar  148   5.843   3.348  -1.738
    1   AR   Ar  149   4.754   1.604   0.689
    1   AR   Ar  150   3.049   1.390   2.606
    1   AR   Ar  151   3.639   1.745   3.491
    1   AR   Ar  152   2.705   2.564   2.149
    1   AR   Ar  153   2.813   1.102   4.245
    1   AR   Ar  154   3.924   2.385   4.533
    1   AR   Ar  155   5.730   0.736   5.958
    1   AR   Ar  156   4.336   3.452   3.795
    1   AR   Ar  157   3.907   1.863   5.562
    1   AR   Ar  158   2.594   2.048   6.120
    1   AR   Ar  159   4.622   0.846   6.122
    1   AR   Ar  160   4.466   2.843   5.801
    1   AR   Ar  161   4.644   3.269  -0.161
    1   AR   Ar  162   4.388   4.937   0.671
    1   AR   Ar  163   5.856   3.177  -0.228
    1   AR   Ar  164   5.355   5.302   1.100
    1   AR   Ar  165   3.295   3.545   2.582
    1   AR   Ar  166   2.832   4.750   2.898
    1   AR   Ar  167   4.632   2.930   2.873
    1   AR   Ar  168   4.089   3.977   0.371
    1   AR   Ar  169   2.857   2.409   3.202
    1   AR   Ar  170   3.262   4.245   4.333
    1   AR   Ar  171   4.024   3.494   4.801
    1   AR   Ar  172   4.604   4.487   4.225
    1   AR   Ar  173   3.396   2.930   5.731
    1   AR   Ar  174   4.420   4.910   5.924
    1   AR   Ar  175   4.335   3.828   6.057
    1   AR   Ar  176   3.039   5.362   4.979
    1   AR   Ar  177   5.640   5.113  -0.183
    1   AR   Ar  178   4.246   6.811   1.322
    1   AR   Ar  179   3.664   5.916   1.255
    1   AR   Ar  180   4.497   4.683  -0.470
    1   AR   Ar  181   3.088   5.558   2.146
    1   AR   Ar  182   2.268   6.642   2.413
    1   AR   Ar  183   3.573   4.734   1.750
    1   AR   Ar  184   4.357   5.976   2.058
    1   AR   Ar  185   1.361   5.715   3.870
    1   AR   Ar  186   3.582   5.231   3.827
    1   AR   Ar  187   4.516   5.332   3.386
    1   AR   Ar  188   3.377   6.230   2.947
    1   AR   Ar  189   2.510   5.029   5.954
    1   AR   Ar  190   4.111   6.071   6.328
    1   AR   Ar  191   5.131   6.263   5.307
    1   AR   Ar  192   4.035   6.108   4.892
    1   AR   Ar  193   5.986   6.950  -0.327
    1   AR   Ar  194   5.063   0.239  -0.512
    1   AR   Ar  195   5.558   1.211   0.243
    1   AR   Ar  196   6.245   1.402  -0.552
    1   AR   Ar  197   4.929   0.266   0.788
    1   AR   Ar  198   5.834   1.117   1.761
    1   AR   Ar  199   5.230   0.114   1.988
    1   AR   Ar  200   6.210   2.119   0.878
    1   AR   Ar  201   5.044   6.583   2.653
    1   AR   Ar  202   5.388   1.485   3.747
    1   AR   Ar  203   0.158   7.041   4.486
    1   AR   Ar  204   5.761   0.232   2.934
    1   AR   Ar  205   6.394   6.820   3.958
    1   AR   Ar  206   5.282   0.189   5.094
    1   AR   Ar  207   0.112   0.170   5.752
    1   AR   Ar  208   6.435   0.914   3.605
    1   AR   Ar  209   6.864   2.739  -1.971
    1   AR   Ar  210   4.839   2.438   1.669
    1   AR   Ar  211   6.499   2.279  -0.110
    1   AR   Ar  212   6.202   4.177  -0.362
    1   AR   Ar  213   3.686   2.463   2.397
    1   AR   Ar  214   4.304   3.728   1.883
    1   AR   Ar  215   6.008   2.130   1.977
    1   AR   Ar  216   6.273   3.571   1.564
    1   AR   Ar  217   5.240   2.537   3.903
    1   AR   Ar  218   4.832   2.368   4.994
    1   AR   Ar  219   5.226   1.229   2.606
    1   AR   Ar  220   6.285   3.601   3.411
    1   AR   Ar  221   6.403   0.030   5.058
    1   AR   Ar  222   5.031   1.932   6.296
    1   AR   Ar  223   6.079   0.709   6.997
    1   AR   Ar  224   5.630   3.307   5.481
    1   AR   Ar  225   5.199   4.369   0.340
    1   AR   Ar  226   4.773   4.635   2.443
    1   AR   Ar  227   6.550   4.625   1.202
    1   AR   Ar  228   6.296   5.374   0.658
    1   AR   Ar  229   6.012   3.943   0.669
    1   AR   Ar  230   3.963   4.246   3.245
    1   AR   Ar  231   6.833   2.704   3.194
    1   AR   Ar  232   5.197   3.962   1.321
    1   AR   Ar  233   5.931   2.550   4.716
    1   AR   Ar  234   6.002   4.265   4.874
    1   AR   Ar  235   6.549   3.290   4.303
    1   AR   Ar  236   5.343   3.879   3.664
    1   AR   Ar  237   5.075   3.404   4.584
    1   AR   Ar  238   5.240   4.399   5.518
    1   AR   Ar  239   6.316   4.056   7.614
    1   AR   Ar  240   6.250   3.865   5.985
    1   AR   Ar  241   6.663   0.635   0.109
    1   AR   Ar  242   5.195   6.351   1.354
    1   AR   Ar  243   5.868   4.547   2.022
    1   AR   Ar  244   6.910   6.185  -0.247
    1   AR   Ar  245   5.574   5.580   2.381
    1   AR   Ar  246   6.106   6.467   1.899
    1   AR   Ar  247   5.344   3.372   2.251
    1   AR   Ar  248   5.909   0.079   1.206
    1   AR   Ar  249   5.578   4.732   3.070
    1   AR   Ar  250   5.326   6.478   4.113
    1   AR   Ar  251   5.559   5.214   4.483
    1   AR   Ar  252   5.690   5.813   3.348
    1   AR   Ar  253   5.479   5.421   5.799
    1   AR   Ar  254   4.993   5.945   6.819
    1   AR   Ar  255   5.216   4.618   6.555
    1   AR   Ar  256   6.189   6.148   4.780
    7.12000  7.12000 12.00000
Argon-slab step 1210
  256
    1   AR   Ar    1   0.769   0.807  -0.921
    1   AR   Ar    2   6.743   0.839   1.248
    1   AR   Ar    3   0.285   6.796   0.488
    1   AR   Ar    4   0.911   0.606   0.153
    1   AR   Ar    5   0.032   5.892   0.988
    1   AR   Ar    6   0.438   0.436   3.003
    1   AR   Ar    7   0.381   6.011   2.236
    1   AR   Ar    8   0.370   7.002   1.710
    1   AR   Ar    9   0.318   1.141   3.857
    1   AR   Ar   10   7.003   1.868   4.626
    1   AR   Ar   11   2.312   7.037   4.313
    1   AR   Ar   12   1.158   1.160   2.669
    1   AR   Ar   13   6.168   1.186   4.920
    1   AR   Ar   14   0.416   1.599   5.872
    1   AR   Ar   15   6.697   5.852   8.592
    1   AR   Ar   16   0.769   1.095   4.865
    1   AR   Ar   17   0.248   1.398  -0.085
    1   AR   Ar   18   6.846   3.332   0.458
    1   AR   Ar   19   0.509   1.326   0.932
    1   AR   Ar   20   1.050   3.260  -2.294
    1   AR   Ar   21   6.654   0.234   2.330
    1   AR   Ar   22   7.033   2.179   2.063
    1   AR   Ar   23   0.392   1.053   2.007
    1   AR   Ar   24   0.041   2.687   1.248
    1   AR   Ar   25   0.019   1.267   2.879
    1   AR   Ar   26   6.118   1.881   2.932
    1   AR   Ar   27   1.443   0.807   3.711
    1   AR   Ar   28   0.978   2.129   4.369
    1   AR   Ar   29   6.046   2.088   5.737
    1   AR   Ar   30   6.784   2.889   6.151
    1   AR   Ar   31   0.481   1.078   7.240
    1   AR   Ar   32   1.954   2.628   5.417
    1   AR   Ar   33   0.857   3.931  -1.569
    1   AR   Ar   34   0.590   5.081   1.375
    1   AR   Ar   35   0.330   4.055   1.275
    1   AR   Ar   36   1.888   6.808  -1.769
    1   AR   Ar   37   0.437   3.090   2.451
    1   AR   Ar   38   7.048   4.900   2.176
    1   AR   Ar   39   0.892   3.938   2.774
    1   AR   Ar   40   1.274   4.199   1.701
    1   AR   Ar   41   0.692   2.290   3.125
    1   AR   Ar   42   6.582   5.339   5.211
    1   AR   Ar   43   6.895   2.778   5.188
    1   AR   Ar   44   0.471   3.556   3.862
    1   AR   Ar   45   0.545   3.481   5.219
    1   AR   Ar   46   6.334   5.152   6.598
    1   AR   Ar   47   6.982   3.690   6.706
    1   AR   Ar   48   7.052   6.408   6.555
    1   AR   Ar   49   6.824   4.910  -1.567
    1   AR   Ar   50   6.447   5.548   1.726
    1   AR   Ar   51   1.346   4.680   0.232
    1   AR   Ar   52   0.296   5.247   0.193
    1   AR   Ar   53   6.614   5.586   2.711
    1   AR   Ar   54   7.099   6.530   3.232
    1   AR   Ar   55   0.327   5.428   3.377
    1   AR   Ar   56   1.036   6.044   1.202
    1   AR   Ar   57   7.050   3.975   2.898
    1   AR   Ar   58   0.151   6.003   4.337
    1   AR   Ar   59   2.099   5.703   5.224
    1   AR   Ar   60   1.162   6.933   3.932
    1   AR   Ar   61   6.278   6.203   5.793
    1   AR   Ar   62   0.193   6.266   5.367
    1   AR   Ar   63   1.356   5.163   5.978
    1   AR   Ar   64   1.376   6.723   4.942
    1   AR   Ar   65   2.847   0.224   0.131
    1   AR   Ar   66   1.630   0.714   1.515
    1   AR   Ar   67   3.109   6.364   0.516
    1   AR   Ar   68   3.805   0.910  -0.382
    1   AR   Ar   69   1.443   6.743   0.352
    1   AR   Ar   70   1.295   0.081   2.397
    1   AR   Ar   71   3.147   0.791   1.505
    1   AR   Ar   72   3.871   0.654   0.572
    1   AR   Ar   73   1.876   7.116   3.266
    1   AR   Ar   74   1.990   0.765   4.787
    1   AR   Ar   75   3.239   0.443   5.167
    1   AR   Ar   76   2.471   0.574   2.632
    1   AR   Ar   77   2.263   0.152   5.575
    1   AR   Ar   78   1.310   0.704   5.760
    1   AR   Ar   79   4.368   0.005   6.604
    1   AR   Ar   80   2.979   6.452   5.016
    1   AR   Ar   81   1.904   1.149   0.146
    1   AR   Ar   82   0.787   3.579   0.361
    1   AR   Ar   83   2.364   1.564   1.093
    1   AR   Ar   84   2.127   3.419  -2.932
    1   AR   Ar   85   1.185   2.561   0.594
    1   AR   Ar   86   1.809   3.266   2.099
    1   AR   Ar   87   2.190   1.579   2.079
    1   AR   Ar   88   3.188   3.486   1.554
    1   AR   Ar   89   0.956   2.025   2.048
    1   AR   Ar   90   2.459   1.604   5.104
    1   AR   Ar   91   2.059   2.238   4.108
    1   AR   Ar   92   1.983   1.898   3.093
    1   AR   Ar   93   1.421   1.709   5.277
    1   AR   Ar   94   2.866   0.860   8.327
    1   AR   Ar   95   3.103   6.964   6.387
    1   AR   Ar   96   2.065   1.045   6.318
    1   AR   Ar   97   2.757   2.818  -0.938
    1   AR   Ar   98   2.517   4.337   1.657
    1   AR   Ar   99   3.784   2.768  -1.399
    1   AR   Ar  100   1.882   4.297  -0.521
    1   AR   Ar  101   1.003   3.114   1.496
    1   AR   Ar  102   2.394   4.036   3.637
    1   AR   Ar  103   1.844   3.535   1.011
    1   AR   Ar  104   3.048   3.861  -0.338
    1   AR   Ar  105   1.675   3.107   3.332
    1   AR   Ar  106   2.481   3.221   4.676
    1   AR   Ar  107   2.838   4.084   5.259
    1   AR   Ar  108   3.279   3.172   3.939
    1   AR   Ar  109   1.239   3.662   4.418
    1   AR   Ar  110   1.581   4.749   5.059
    1   AR   Ar  111   4.048   4.699   6.912
    1   AR   Ar  112   1.731   4.118   5.980
    1   AR   Ar  113   2.500   4.295   0.451
    1   AR   Ar  114   2.747   5.144   1.053
    1   AR   Ar  115   3.517   4.839   0.313
    1   AR   Ar  116   4.025   6.997  -0.329
    1   AR   Ar  117   1.227   4.851   3.274
    1   AR   Ar  118   1.278   6.075   2.601
    1   AR   Ar  119   1.836   4.299   2.620
    1   AR   Ar  120   1.863   5.305   2.096
    1   AR   Ar  121   6.620   4.342   4.023
    1   AR   Ar  122   2.921   6.093   4.030
    1   AR   Ar  123   2.316   5.235   4.133
    1   AR   Ar  124   2.248   5.809   2.997
    1   AR   Ar  125   0.401   4.763   4.630
    1   AR   Ar  126   0.908   6.595   6.080
    1   AR   Ar  127   2.346   5.350   7.456
    1   AR   Ar  128   2.332   6.320   6.189
    1   AR   Ar  129   2.384   7.079   1.271
    1   AR   Ar  130   4.702   7.018  -1.797
    1   AR   Ar  131   4.640   6.005   0.354
    1   AR   Ar  132   6.006   2.465  -1.267
    1   AR   Ar  133   3.502   0.352   2.587
    1   AR   Ar  134   4.214   1.361   2.690
    1   AR   Ar  135   4.594   0.339   2.953
    1   AR   Ar  136   4.251   0.750   1.722
    1   AR   Ar  137   2.994   7.061   3.463
    1   AR   Ar  138   4.703   1.284   4.993
    1   AR   Ar  139   5.229   0.348   3.946
    1   AR   Ar  140   4.470   1.067   3.674
    1   AR   Ar  141   3.818   0.078   4.291
    1   AR   Ar  142   4.220   0.126   5.366
    1   AR   Ar  143   5.574   6.862   6.238
    1   AR   Ar  144   4.950   0.853   7.114
    1   AR   Ar  145   3.194   3.286   0.529
    1   AR   Ar  146   4.018   2.957   1.151
    1   AR   Ar  147   5.435   2.247  -0.121
    1   AR   Ar  148   5.856   3.343  -1.745
    1   AR   Ar  149   4.778   1.631   0.685
    1   AR   Ar  150   3.068   1.375   2.603
    1   AR   Ar  151   3.656   1.739   3.476
    1   AR   Ar  152   2.691   2.541   2.148
    1   AR   Ar  153   2.806   1.098   4.270
    1   AR   Ar  154   3.914   2.358   4.539
    1   AR   Ar  155   5.758   0.734   5.951
    1   AR   Ar  156   4.349   3.465   3.815
    1   AR   Ar  157   3.912   1.864   5.552
    1   AR   Ar  158   2.556   2.030   6.119
    1   AR   Ar  159   4.637   0.876   6.115
    1   AR   Ar  160   4.466   2.845   5.828
    1   AR   Ar  161   4.654   3.281  -0.154
    1   AR   Ar  162   4.382   4.962   0.640
    1   AR   Ar  163   5.858   3.186  -0.249
    1   AR   Ar  164   5.354   5.319   1.119
    1   AR   Ar  165   3.299   3.541   2.598
    1   AR   Ar  166   2.840   4.771   2.901
    1   AR   Ar  167   4.637   2.949   2.914
    1   AR   Ar  168   4.080   3.983   0.383
    1   AR   Ar  169   2.858   2.388   3.180
    1   AR   Ar  170   3.245   4.239   4.343
    1   AR   Ar  171   4.049   3.496   4.776
    1   AR   Ar  172   4.608   4.498   4.257
    1   AR   Ar  173   3.376   2.918   5.762
    1   AR   Ar  174   4.398   4.939   5.960
    1   AR   Ar  175   4.348   3.829   6.079
    1   AR   Ar  176   3.017   5.360   4.976
    1   AR   Ar  177   5.655   5.176  -0.184
    1   AR   Ar  178   4.231   6.826   1.362
    1   AR   Ar  179   3.656   5.880   1.261
    1   AR   Ar  180   4.453   4.677  -0.498
    1   AR   Ar  181   3.079   5.576   2.180
    1   AR   Ar  182   2.258   6.657   2.433
    1   AR   Ar  183   3.552   4.731   1.763
    1   AR   Ar  184   4.356   5.968   2.078
    1   AR   Ar  185   1.331   5.726   3.897
    1   AR   Ar  186   3.595   5.255   3.817
    1   AR   Ar  187   4.534   5.326   3.406
    1   AR   Ar  188   3.390   6.243   2.963
    1   AR   Ar  189   2.530   5.037   5.947
    1   AR   Ar  190   4.071   6.077   6.348
    1   AR   Ar  191   5.117   6.271   5.323
    1   AR   Ar  192   4.044   6.106   4.881
    1   AR   Ar  193   6.002   6.955  -0.344
    1   AR   Ar  194   5.094   0.257  -0.486
    1   AR   Ar  195   5.572   1.202   0.249
    1   AR   Ar  196   6.238   1.413  -0.544
    1   AR   Ar  197   4.894   0.249   0.768
    1   AR   Ar  198   5.837   1.099   1.765
    1   AR   Ar  199   5.224   0.100   1.986
    1   AR   Ar  200   6.197   2.118   0.897
    1   AR   Ar  201   5.038   6.578   2.639
    1   AR   Ar  202   5.378   1.497   3.729
    1   AR   Ar  203   0.194   7.037   4.470
    1   AR   Ar  204   5.761   0.252   2.935
    1   AR   Ar  205   6.441   6.813   3.935
    1   AR   Ar  206   5.282   0.177   5.092
    1   AR   Ar  207   0.161   0.169   5.744
    1   AR   Ar  208   6.463   0.885   3.601
    1   AR   Ar  209   6.886   2.733  -1.977
    1   AR   Ar  210   4.854   2.423   1.656
    1   AR   Ar  211   6.515   2.284  -0.096
    1   AR   Ar  212   6.212   4.230  -0.367
    1   AR   Ar  213   3.692   2.476   2.403
    1   AR   Ar  214   4.320   3.737   1.903
    1   AR   Ar  215   6.032   2.116   1.988
    1   AR   Ar  216   6.288   3.586   1.583
    1   AR   Ar  217   5.240   2.554   3.918
    1   AR   Ar  218   4.858   2.379   5.015
    1   AR   Ar  219   5.214   1.239   2.590
    1   AR   Ar  220   6.259   3.604   3.413
    1   AR   Ar  221   6.417   0.045   5.052
    1   AR   Ar  222   5.001   1.923   6.270
    1   AR   Ar  223   6.086   0.740   7.002
    1   AR   Ar  224   5.637   3.282   5.467
    1   AR   Ar  225   5.169   4.377   0.311
    1   AR   Ar  226   4.776   4.660   2.465
    1   AR   Ar  227   6.556   4.611   1.214
    1   AR   Ar  228   6.267   5.408   0.668
    1   AR   Ar  229   6.023   3.942   0.675
    1   AR   Ar  230   3.961   4.258   3.261
    1   AR   Ar  231   6.816   2.711   3.173
    1   AR   Ar  232   5.228   3.979   1.324
    1   AR   Ar  233   5.912   2.524   4.718
    1   AR   Ar  234   5.997   4.271   4.862
    1   AR   Ar  235   6.550   3.287   4.306
    1   AR   Ar  236   5.365   3.872   3.672
    1   AR   Ar  237   5.092   3.407   4.573
    1   AR   Ar  238   5.238   4.402   5.495
    1   AR   Ar  239   6.291   4.085   7.605
    1   AR   Ar  240   6.237   3.902   5.970
    1   AR   Ar  241   6.649   0.638   0.124
    1   AR   Ar  242   5.195   6.359   1.350
    1   AR   Ar  243   5.867   4.516   2.007
    1   AR   Ar  244   6.922   6.186  -0.226
    1   AR   Ar  245   5.589   5.597   2.364
    1   AR   Ar  246   6.152   6.494   1.910
    1   AR   Ar  247   5.333   3.341   2.235
    1   AR   Ar  248   5.913   0.095   1.184
    1   AR   Ar  249   5.624   4.723   3.052
    1   AR   Ar  250   5.312   6.468   4.136
    1   AR   Ar  251   5.595   5.194   4.512
    1   AR   Ar  252   5.705   5.821   3.370
    1   AR   Ar  253   5.484   5.417   5.780
    1   AR   Ar  254   4.990   5.953   6.801
    1   AR   Ar  255   5.198   4.636   6.587
    1   AR   Ar  256   6.193   6.152   4.788
    7.12000  7.12000 12.00000
Argon-slab step 1215
  256
    1   AR   Ar    1   0.739   0.811  -0.908
    1   AR   Ar    2   6.742   0.853   1.245
    1   AR   Ar    3   0.284   6.780   0.470
    1   AR   Ar    4   0.885   0.608   0.146
    1   AR   Ar    5   0.002   5.882   0.986
    1   AR   Ar    6   0.456   0.425   3.000
    1   AR   Ar    7   0.412   5.992   2.240
    1   AR   Ar    8   0.360   6.965   1.728
    1   AR   Ar    9   0.370   1.200   3.835
    1   AR   Ar   10   7.006   1.884   4.622
    1   AR   Ar   11   2.321   7.037   4.278
    1   AR   Ar   12   1.177   1.141   2.697
    1   AR   Ar   13   6.124   1.162   4.875
    1   AR   Ar   14   0.416   1.623   5.895
    1   AR   Ar   15   6.676   5.824   8.575
    1   AR   Ar   16   0.762   1.084   4.858
    1   AR   Ar   17   0.267   1.435  -0.120
    1   AR   Ar   18   6.840   3.349   0.446
    1   AR   Ar   19   0.484   1.345   0.911
    1   AR   Ar   20   1.054   3.272  -2.327
    1   AR   Ar   21   6.660   0.264   2.327
    1   AR   Ar   22   7.066   2.152   2.082
    1   AR   Ar   23   0.423   1.045   2.024
    1   AR   Ar   24   0.027   2.691   1.252
    1   AR   Ar   25   0.024   1.262   2.893
    1   AR   Ar   26   6.111   1.865   2.942
    1   AR   Ar   27   1.436   0.814   3.714
    1   AR   Ar   28   0.953   2.132   4.326
    1   AR   Ar   29   6.061   2.082   5.710
    1   AR   Ar   30   6.781   2.873   6.160
    1   AR   Ar   31   0.482   1.079   7.263
    1   AR   Ar   32   1.972   2.621   5.414
    1   AR   Ar   33   0.839   3.926  -1.582
    1   AR   Ar   34   0.587   5.042   1.367
    1   AR   Ar   35   0.355   4.057   1.271
    1   AR   Ar   36   1.887   6.801  -1.789
    1   AR   Ar   37   0.432   3.094   2.467
    1   AR   Ar   38   7.062   4.884   2.129
    1   AR   Ar   39   0.905   3.961   2.770
    1   AR   Ar   40   1.268   4.212   1.684
    1   AR   Ar   41   0.659   2.331   3.128
    1   AR   Ar   42   6.558   5.282   5.202
    1   AR   Ar   43   6.896   2.787   5.154
    1   AR   Ar   44   0.442   3.528   3.858
    1   AR   Ar   45   0.572   3.485   5.206
    1   AR   Ar   46   6.323   5.166   6.589
    1   AR   Ar   47   6.995   3.656   6.720
    1   AR   Ar   48   7.056   6.429   6.538
    1   AR   Ar   49   6.786   4.915  -1.577
    1   AR   Ar   50   6.424   5.575   1.698
    1   AR   Ar   51   1.338   4.669   0.282
    1   AR   Ar   52   0.313   5.237   0.221
    1   AR   Ar   53   6.601   5.619   2.736
    1   AR   Ar   54   0.012   6.554   3.232
    1   AR   Ar   55   0.333   5.407   3.383
    1   AR   Ar   56   1.060   6.048   1.194
    1   AR   Ar   57   7.046   3.965   2.901
    1   AR   Ar   58   0.174   5.993   4.347
    1   AR   Ar   59   2.078   5.720   5.243
    1   AR   Ar   60   1.168   6.942   3.934
    1   AR   Ar   61   6.271   6.192   5.755
    1   AR   Ar   62   0.190   6.276   5.380
    1   AR   Ar   63   1.368   5.169   5.980
    1   AR   Ar   64   1.385   6.752   4.948
    1   AR   Ar   65   2.876   0.213   0.118
    1   AR   Ar   66   1.653   0.735   1.531
    1   AR   Ar   67   3.113   6.332   0.528
    1   AR   Ar   68   3.800   0.885  -0.402
    1   AR   Ar   69   1.450   6.738   0.332
    1   AR   Ar   70   1.305   0.069   2.417
    1   AR   Ar   71   3.126   0.779   1.487
    1   AR   Ar   72   3.875   0.624   0.577
    1   AR   Ar   73   1.860   7.081   3.265
    1   AR   Ar   74   1.997   0.771   4.822
    1   AR   Ar   75   3.256   0.439   5.169
    1   AR   Ar   76   2.454   0.577   2.611
    1   AR   Ar   77   2.242   0.160   5.547
    1   AR   Ar   78   1.298   0.660   5.757
    1   AR   Ar   79   4.405   7.117   6.597
    1   AR   Ar   80   2.998   6.437   5.029
    1   AR   Ar   81   1.910   1.145   0.138
    1   AR   Ar   82   0.783   3.572   0.382
    1   AR   Ar   83   2.359   1.552   1.069
    1   AR   Ar   84   2.146   3.431  -2.983
    1   AR   Ar   85   1.165   2.578   0.589
    1   AR   Ar   86   1.838   3.257   2.089
    1   AR   Ar   87   2.168   1.579   2.087
    1   AR   Ar   88   3.210   3.478   1.514
    1   AR   Ar   89   0.980   2.033   2.051
    1   AR   Ar   90   2.446   1.604   5.087
    1   AR   Ar   91   2.044   2.214   4.087
    1   AR   Ar   92   1.959   1.887   3.074
    1   AR   Ar   93   1.393   1.709   5.273
    1   AR   Ar   94   2.882   0.847   8.309
    1   AR   Ar   95   3.106   6.974   6.376
    1   AR   Ar   96   2.105   1.016   6.296
    1   AR   Ar   97   2.779   2.803  -0.912
    1   AR   Ar   98   2.507   4.320   1.688
    1   AR   Ar   99   3.759   2.781  -1.405
    1   AR   Ar  100   1.883   4.290  -0.534
    1   AR   Ar  101   0.990   3.113   1.505
    1   AR   Ar  102   2.407   4.045   3.619
    1   AR   Ar  103   1.865   3.575   0.982
    1   AR   Ar  104   3.043   3.861  -0.342
    1   AR   Ar  105   1.698   3.111   3.307
    1   AR   Ar  106   2.463   3.197   4.656
    1   AR   Ar  107   2.827   4.108   5.223
    1   AR   Ar  108   3.244   3.217   3.921
    1   AR   Ar  109   1.314   3.663   4.418
    1   AR   Ar  110   1.543   4.734   5.055
    1   AR   Ar  111   4.072   4.703   6.911
    1   AR   Ar  112   1.705   4.122   5.974
    1   AR   Ar  113   2.489   4.308   0.445
    1   AR   Ar  114   2.741   5.126   1.064
    1   AR   Ar  115   3.495   4.813   0.288
    1   AR   Ar  116   4.026   6.993  -0.317
    1   AR   Ar  117   1.217   4.868   3.280
    1   AR   Ar  118   1.273   6.063   2.588
    1   AR   Ar  119   1.810   4.308   2.633
    1   AR   Ar  120   1.859   5.308   2.129
    1   AR   Ar  121   6.587   4.356   4.023
    1   AR   Ar  122   2.925   6.106   4.047
    1   AR   Ar  123   2.302   5.226   4.161
    1   AR   Ar  124   2.237   5.812   3.027
    1   AR   Ar  125   0.401   4.749   4.628
    1   AR   Ar  126   0.907   6.577   6.096
    1   AR   Ar  127   2.344   5.349   7.453
    1   AR   Ar  128   2.335   6.350   6.169
    1   AR   Ar  129   2.349   7.092   1.267
    1   AR   Ar  130   4.733   7.028  -1.810
    1   AR   Ar  131   4.645   6.019   0.389
    1   AR   Ar  132   6.033   2.459  -1.264
    1   AR   Ar  133   3.538   0.355   2.598
    1   AR   Ar  134   4.202   1.351   2.650
    1   AR   Ar  135   4.579   0.327   2.947
    1   AR   Ar  136   4.247   0.762   1.725
    1   AR   Ar  137   2.965   7.072   3.429
    1   AR   Ar  138   4.725   1.274   5.021
    1   AR   Ar  139   5.245   0.354   3.918
    1   AR   Ar  140   4.482   1.059   3.689
    1   AR   Ar  141   3.844   0.102   4.294
    1   AR   Ar  142   4.206   0.118   5.367
    1   AR   Ar  143   5.575   6.852   6.225
    1   AR   Ar  144   4.933   0.869   7.099
    1   AR   Ar  145   3.206   3.299   0.503
    1   AR   Ar  146   4.068   2.970   1.176
    1   AR   Ar  147   5.422   2.286  -0.154
    1   AR   Ar  148   5.869   3.344  -1.755
    1   AR   Ar  149   4.781   1.641   0.691
    1   AR   Ar  150   3.095   1.369   2.602
    1   AR   Ar  151   3.671   1.735   3.465
    1   AR   Ar  152   2.672   2.519   2.144
    1   AR   Ar  153   2.816   1.091   4.287
    1   AR   Ar  154   3.903   2.332   4.542
    1   AR   Ar  155   5.787   0.735   5.942
    1   AR   Ar  156   4.364   3.475   3.830
    1   AR   Ar  157   3.905   1.847   5.547
    1   AR   Ar  158   2.520   2.012   6.118
    1   AR   Ar  159   4.652   0.909   6.099
    1   AR   Ar  160   4.465   2.844   5.858
    1   AR   Ar  161   4.666   3.291  -0.148
    1   AR   Ar  162   4.400   4.996   0.622
    1   AR   Ar  163   5.863   3.199  -0.269
    1   AR   Ar  164   5.349   5.332   1.141
    1   AR   Ar  165   3.303   3.538   2.618
    1   AR   Ar  166   2.847   4.793   2.905
    1   AR   Ar  167   4.640   2.965   2.955
    1   AR   Ar  168   4.082   3.981   0.371
    1   AR   Ar  169   2.864   2.373   3.162
    1   AR   Ar  170   3.231   4.235   4.345
    1   AR   Ar  171   4.070   3.499   4.760
    1   AR   Ar  172   4.611   4.502   4.272
    1   AR   Ar  173   3.355   2.907   5.791
    1   AR   Ar  174   4.375   4.972   5.991
    1   AR   Ar  175   4.361   3.837   6.102
    1   AR   Ar  176   3.003   5.351   4.967
    1   AR   Ar  177   5.670   5.242  -0.186
    1   AR   Ar  178   4.229   6.841   1.357
    1   AR   Ar  179   3.649   5.839   1.268
    1   AR   Ar  180   4.408   4.671  -0.524
    1   AR   Ar  181   3.067   5.595   2.213
    1   AR   Ar  182   2.254   6.671   2.439
    1   AR   Ar  183   3.534   4.724   1.774
    1   AR   Ar  184   4.350   5.964   2.084
    1   AR   Ar  185   1.301   5.739   3.925
    1   AR   Ar  186   3.602   5.276   3.810
    1   AR   Ar  187   4.559   5.320   3.423
    1   AR   Ar  188   3.400   6.238   2.969
    1   AR   Ar  189   2.549   5.044   5.941
    1   AR   Ar  190   4.028   6.083   6.364
    1   AR   Ar  191   5.103   6.281   5.338
    1   AR   Ar  192   4.052   6.105   4.869
    1   AR   Ar  193   6.026   6.956  -0.359
    1   AR   Ar  194   5.107   0.265  -0.471
    1   AR   Ar  195   5.593   1.187   0.254
    1   AR   Ar  196   6.230   1.420  -0.541
    1   AR   Ar  197   4.863   0.234   0.745
    1   AR   Ar  198   5.841   1.078   1.765
    1   AR   Ar  199   5.214   0.118   1.967
    1   AR   Ar  200   6.200   2.107   0.928
    1   AR   Ar  201   5.030   6.549   2.644
    1   AR   Ar  202   5.377   1.510   3.712
    1   AR   Ar  203   0.235   7.038   4.456
    1   AR   Ar  204   5.759   0.273   2.939
    1   AR   Ar  205   6.478   6.809   3.916
    1   AR   Ar  206   5.284   0.168   5.090
    1   AR   Ar  207   0.210   0.170   5.735
    1   AR   Ar  208   6.484   0.853   3.596
    1   AR   Ar  209   6.906   2.729  -1.983
    1   AR   Ar  210   4.871   2.407   1.643
    1   AR   Ar  211   6.536   2.294  -0.081
    1   AR   Ar  212   6.223   4.284  -0.370
    1   AR   Ar  213   3.704   2.487   2.410
    1   AR   Ar  214   4.335   3.746   1.925
    1   AR   Ar  215   6.045   2.109   1.986
    1   AR   Ar  216   6.307   3.597   1.608
    1   AR   Ar  217   5.237   2.573   3.930
    1   AR   Ar  218   4.889   2.388   5.031
    1   AR   Ar  219   5.207   1.249   2.577
    1   AR   Ar  220   6.237   3.601   3.401
    1   AR   Ar  221   6.430   0.062   5.048
    1   AR   Ar  222   5.008   1.907   6.249
    1   AR   Ar  223   6.093   0.770   7.007
    1   AR   Ar  224   5.639   3.251   5.450
    1   AR   Ar  225   5.138   4.354   0.289
    1   AR   Ar  226   4.775   4.684   2.484
    1   AR   Ar  227   6.609   4.612   1.224
    1   AR   Ar  228   6.241   5.448   0.669
    1   AR   Ar  229   6.035   3.938   0.671
    1   AR   Ar  230   3.957   4.274   3.275
    1   AR   Ar  231   6.799   2.702   3.137
    1   AR   Ar  232   5.254   3.996   1.329
    1   AR   Ar  233   5.896   2.495   4.723
    1   AR   Ar  234   5.998   4.272   4.847
    1   AR   Ar  235   6.554   3.282   4.317
    1   AR   Ar  236   5.372   3.869   3.681
    1   AR   Ar  237   5.111   3.411   4.565
    1   AR   Ar  238   5.229   4.403   5.476
    1   AR   Ar  239   6.266   4.115   7.594
    1   AR   Ar  240   6.227   3.946   5.957
    1   AR   Ar  241   6.635   0.638   0.141
    1   AR   Ar  242   5.187   6.358   1.354
    1   AR   Ar  243   5.866   4.487   1.995
    1   AR   Ar  244   6.932   6.185  -0.206
    1   AR   Ar  245   5.601   5.608   2.345
    1   AR   Ar  246   6.196   6.524   1.927
    1   AR   Ar  247   5.326   3.313   2.217
    1   AR   Ar  248   5.921   0.074   1.185
    1   AR   Ar  249   5.674   4.715   3.037
    1   AR   Ar  250   5.294   6.458   4.138
    1   AR   Ar  251   5.630   5.177   4.542
    1   AR   Ar  252   5.722   5.830   3.396
    1   AR   Ar  253   5.491   5.409   5.763
    1   AR   Ar  254   4.992   5.960   6.782
    1   AR   Ar  255   5.178   4.613   6.593
    1   AR   Ar  256   6.193   6.162   4.784
    7.12000  7.12000 12.00000
Argon-slab step 1220
  256
    1   AR   Ar    1   0.709   0.815  -0.896
    1   AR   Ar    2   6.740   0.865   1.243
    1   AR   Ar    3   0.287   6.770   0.456
    1   AR   Ar    4   0.861   0.607   0.143
    1   AR   Ar    5   7.096   5.876   0.987
    1   AR   Ar    6   0.482   0.392   3.001
    1   AR   Ar    7   0.413   5.970   2.231
    1   AR   Ar    8   0.349   6.928   1.744
    1   AR   Ar    9   0.427   1.259   3.821
    1   AR   Ar   10   7.009   1.896   4.616
    1   AR   Ar   11   2.329   7.035   4.246
    1   AR   Ar   12   1.203   1.126   2.728
    1   AR   Ar   13   6.079   1.139   4.831
    1   AR   Ar   14   0.396   1.643   5.892
    1   AR   Ar   15   6.655   5.795   8.557
    1   AR   Ar   16   0.747   1.064   4.846
    1   AR   Ar   17   0.282   1.475  -0.158
    1   AR   Ar   18   6.837   3.364   0.434
    1   AR   Ar   19   0.462   1.365   0.893
    1   AR   Ar   20   1.060   3.279  -2.366
    1   AR   Ar   21   6.667   0.298   2.325
    1   AR   Ar   22   7.099   2.119   2.114
    1   AR   Ar   23   0.438   1.071   2.035
    1   AR   Ar   24   0.014   2.700   1.248
    1   AR   Ar   25   0.013   1.283   2.906
    1   AR   Ar   26   6.105   1.844   2.963
    1   AR   Ar   27   1.461   0.830   3.708
    1   AR   Ar   28   0.928   2.134   4.283
    1   AR   Ar   29   6.076   2.077   5.682
    1   AR   Ar   30   6.773   2.850   6.168
    1   AR   Ar   31   0.483   1.079   7.285
    1   AR   Ar   32   1.990   2.615   5.411
    1   AR   Ar   33   0.820   3.927  -1.589
    1   AR   Ar   34   0.590   5.011   1.353
    1   AR   Ar   35   0.375   4.048   1.265
    1   AR   Ar   36   1.882   6.809  -1.806
    1   AR   Ar   37   0.425   3.098   2.477
    1   AR   Ar   38   7.078   4.860   2.092
    1   AR   Ar   39   0.920   3.981   2.767
    1   AR   Ar   40   1.269   4.224   1.670
    1   AR   Ar   41   0.631   2.366   3.135
    1   AR   Ar   42   6.536   5.221   5.194
    1   AR   Ar   43   6.897   2.794   5.138
    1   AR   Ar   44   0.443   3.498   3.854
    1   AR   Ar   45   0.599   3.491   5.192
    1   AR   Ar   46   6.310   5.180   6.578
    1   AR   Ar   47   7.010   3.632   6.741
    1   AR   Ar   48   7.058   6.450   6.520
    1   AR   Ar   49   6.747   4.919  -1.587
    1   AR   Ar   50   6.400   5.562   1.685
    1   AR   Ar   51   1.328   4.658   0.337
    1   AR   Ar   52   0.331   5.224   0.248
    1   AR   Ar   53   6.587   5.655   2.766
    1   AR   Ar   54   0.054   6.574   3.223
    1   AR   Ar   55   0.337   5.388   3.391
    1   AR   Ar   56   1.084   6.053   1.188
    1   AR   Ar   57   7.035   3.958   2.903
    1   AR   Ar   58   0.196   5.979   4.354
    1   AR   Ar   59   2.052   5.742   5.261
    1   AR   Ar   60   1.164   6.950   3.939
    1   AR   Ar   61   6.265   6.182   5.731
    1   AR   Ar   62   0.184   6.284   5.392
    1   AR   Ar   63   1.380   5.179   5.985
    1   AR   Ar   64   1.395   6.781   4.958
    1   AR   Ar   65   2.885   0.198   0.104
    1   AR   Ar   66   1.674   0.758   1.549
    1   AR   Ar   67   3.115   6.302   0.538
    1   AR   Ar   68   3.794   0.865  -0.429
    1   AR   Ar   69   1.456   6.733   0.312
    1   AR   Ar   70   1.308   0.047   2.422
    1   AR   Ar   71   3.104   0.767   1.471
    1   AR   Ar   72   3.879   0.593   0.590
    1   AR   Ar   73   1.855   7.045   3.264
    1   AR   Ar   74   1.987   0.776   4.848
    1   AR   Ar   75   3.266   0.438   5.169
    1   AR   Ar   76   2.432   0.579   2.587
    1   AR   Ar   77   2.226   0.159   5.529
    1   AR   Ar   78   1.281   0.614   5.750
    1   AR   Ar   79   4.442   7.107   6.590
    1   AR   Ar   80   2.997   6.407   5.037
    1   AR   Ar   81   1.915   1.140   0.130
    1   AR   Ar   82   0.777   3.567   0.410
    1   AR   Ar   83   2.356   1.539   1.042
    1   AR   Ar   84   2.165   3.443  -3.033
    1   AR   Ar   85   1.145   2.592   0.584
    1   AR   Ar   86   1.870   3.250   2.082
    1   AR   Ar   87   2.143   1.577   2.097
    1   AR   Ar   88   3.229   3.472   1.481
    1   AR   Ar   89   1.008   2.042   2.053
    1   AR   Ar   90   2.438   1.619   5.077
    1   AR   Ar   91   2.041   2.206   4.029
    1   AR   Ar   92   1.929   1.874   3.051
    1   AR   Ar   93   1.397   1.714   5.293
    1   AR   Ar   94   2.898   0.834   8.290
    1   AR   Ar   95   3.116   6.989   6.364
    1   AR   Ar   96   2.149   0.987   6.274
    1   AR   Ar   97   2.801   2.789  -0.885
    1   AR   Ar   98   2.493   4.301   1.722
    1   AR   Ar   99   3.737   2.795  -1.422
    1   AR   Ar  100   1.887   4.280  -0.549
    1   AR   Ar  101   1.034   3.100   1.514
    1   AR   Ar  102   2.405   4.032   3.620
    1   AR   Ar  103   1.885   3.616   0.953
    1   AR   Ar  104   3.039   3.863  -0.351
    1   AR   Ar  105   1.721   3.114   3.282
    1   AR   Ar  106   2.445   3.175   4.635
    1   AR   Ar  107   2.825   4.132   5.221
    1   AR   Ar  108   3.212   3.210   3.913
    1   AR   Ar  109   1.394   3.666   4.420
    1   AR   Ar  110   1.514   4.736   5.042
    1   AR   Ar  111   4.095   4.704   6.916
    1   AR   Ar  112   1.681   4.126   5.967
    1   AR   Ar  113   2.477   4.319   0.440
    1   AR   Ar  114   2.738   5.115   1.075
    1   AR   Ar  115   3.456   4.789   0.258
    1   AR   Ar  116   4.027   6.985  -0.303
    1   AR   Ar  117   1.211   4.885   3.287
    1   AR   Ar  118   1.292   6.057   2.587
    1   AR   Ar  119   1.801   4.319   2.642
    1   AR   Ar  120   1.857   5.308   2.160
    1   AR   Ar  121   6.560   4.374   4.018
    1   AR   Ar  122   2.928   6.118   4.060
    1   AR   Ar  123   2.286   5.216   4.189
    1   AR   Ar  124   2.221   5.823   3.035
    1   AR   Ar  125   0.401   4.735   4.625
    1   AR   Ar  126   0.870   6.574   6.074
    1   AR   Ar  127   2.342   5.348   7.449
    1   AR   Ar  128   2.326   6.360   6.160
    1   AR   Ar  129   2.316   7.103   1.263
    1   AR   Ar  130   4.763   7.038  -1.823
    1   AR   Ar  131   4.651   6.035   0.425
    1   AR   Ar  132   6.061   2.448  -1.255
    1   AR   Ar  133   3.521   0.373   2.562
    1   AR   Ar  134   4.185   1.342   2.607
    1   AR   Ar  135   4.566   0.316   2.939
    1   AR   Ar  136   4.243   0.772   1.728
    1   AR   Ar  137   2.936   7.087   3.395
    1   AR   Ar  138   4.748   1.262   5.049
    1   AR   Ar  139   5.257   0.346   3.914
    1   AR   Ar  140   4.486   1.049   3.706
    1   AR   Ar  141   3.870   0.124   4.297
    1   AR   Ar  142   4.197   0.095   5.393
    1   AR   Ar  143   5.573   6.842   6.212
    1   AR   Ar  144   4.927   0.880   7.090
    1   AR   Ar  145   3.218   3.310   0.476
    1   AR   Ar  146   4.120   2.983   1.199
    1   AR   Ar  147   5.419   2.276  -0.158
    1   AR   Ar  148   5.882   3.350  -1.767
    1   AR   Ar  149   4.757   1.623   0.706
    1   AR   Ar  150   3.127   1.370   2.600
    1   AR   Ar  151   3.685   1.733   3.458
    1   AR   Ar  152   2.652   2.500   2.137
    1   AR   Ar  153   2.833   1.080   4.296
    1   AR   Ar  154   3.891   2.308   4.544
    1   AR   Ar  155   5.815   0.740   5.930
    1   AR   Ar  156   4.380   3.484   3.834
    1   AR   Ar  157   3.898   1.831   5.542
    1   AR   Ar  158   2.485   1.994   6.117
    1   AR   Ar  159   4.667   0.941   6.076
    1   AR   Ar  160   4.464   2.839   5.888
    1   AR   Ar  161   4.689   3.304  -0.137
    1   AR   Ar  162   4.427   5.034   0.612
    1   AR   Ar  163   5.870   3.217  -0.289
    1   AR   Ar  164   5.339   5.340   1.166
    1   AR   Ar  165   3.306   3.535   2.640
    1   AR   Ar  166   2.855   4.813   2.909
    1   AR   Ar  167   4.641   2.980   2.996
    1   AR   Ar  168   4.088   3.974   0.355
    1   AR   Ar  169   2.873   2.362   3.147
    1   AR   Ar  170   3.225   4.235   4.334
    1   AR   Ar  171   4.083   3.501   4.758
    1   AR   Ar  172   4.613   4.496   4.260
    1   AR   Ar  173   3.333   2.895   5.819
    1   AR   Ar  174   4.354   5.010   6.011
    1   AR   Ar  175   4.374   3.851   6.125
    1   AR   Ar  176   2.996   5.339   4.956
    1   AR   Ar  177   5.682   5.307  -0.189
    1   AR   Ar  178   4.236   6.858   1.343
    1   AR   Ar  179   3.645   5.795   1.276
    1   AR   Ar  180   4.363   4.664  -0.547
    1   AR   Ar  181   3.052   5.615   2.243
    1   AR   Ar  182   2.270   6.677   2.416
    1   AR   Ar  183   3.518   4.716   1.784
    1   AR   Ar  184   4.338   5.961   2.079
    1   AR   Ar  185   1.272   5.754   3.954
    1   AR   Ar  186   3.603   5.295   3.804
    1   AR   Ar  187   4.590   5.312   3.438
    1   AR   Ar  188   3.409   6.222   2.972
    1   AR   Ar  189   2.567   5.049   5.934
    1   AR   Ar  190   3.982   6.089   6.378
    1   AR   Ar  191   5.087   6.292   5.352
    1   AR   Ar  192   4.060   6.105   4.858
    1   AR   Ar  193   6.055   6.954  -0.372
    1   AR   Ar  194   5.096   0.254  -0.474
    1   AR   Ar  195   5.617   1.168   0.261
    1   AR   Ar  196   6.223   1.426  -0.542
    1   AR   Ar  197   4.838   0.223   0.720
    1   AR   Ar  198   5.845   1.053   1.764
    1   AR   Ar  199   5.203   0.149   1.942
    1   AR   Ar  200   6.204   2.095   0.958
    1   AR   Ar  201   5.024   6.508   2.658
    1   AR   Ar  202   5.383   1.525   3.694
    1   AR   Ar  203   0.235   7.019   4.435
    1   AR   Ar  204   5.757   0.295   2.943
    1   AR   Ar  205   6.502   6.807   3.905
    1   AR   Ar  206   5.288   0.162   5.086
    1   AR   Ar  207   0.257   0.176   5.724
    1   AR   Ar  208   6.500   0.819   3.594
    1   AR   Ar  209   6.926   2.725  -1.988
    1   AR   Ar  210   4.889   2.390   1.632
    1   AR   Ar  211   6.559   2.310  -0.066
    1   AR   Ar  212   6.233   4.338  -0.373
    1   AR   Ar  213   3.718   2.498   2.418
    1   AR   Ar  214   4.348   3.756   1.949
    1   AR   Ar  215   6.049   2.106   1.976
    1   AR   Ar  216   6.329   3.604   1.637
    1   AR   Ar  217   5.230   2.592   3.937
    1   AR   Ar  218   4.921   2.394   5.046
    1   AR   Ar  219   5.206   1.256   2.567
    1   AR   Ar  220   6.225   3.588   3.377
    1   AR   Ar  221   6.441   0.080   5.045
    1   AR   Ar  222   5.025   1.892   6.229
    1   AR   Ar  223   6.099   0.799   7.012
    1   AR   Ar  224   5.641   3.217   5.435
    1   AR   Ar  225   5.109   4.330   0.264
    1   AR   Ar  226   4.771   4.708   2.501
    1   AR   Ar  227   6.660   4.616   1.231
    1   AR   Ar  228   6.218   5.488   0.665
    1   AR   Ar  229   6.045   3.936   0.659
    1   AR   Ar  230   3.949   4.281   3.282
    1   AR   Ar  231   6.778   2.694   3.102
    1   AR   Ar  232   5.273   4.012   1.336
    1   AR   Ar  233   5.886   2.465   4.728
    1   AR   Ar  234   6.004   4.264   4.834
    1   AR   Ar  235   6.558   3.277   4.330
    1   AR   Ar  236   5.361   3.875   3.694
    1   AR   Ar  237   5.132   3.415   4.563
    1   AR   Ar  238   5.213   4.402   5.462
    1   AR   Ar  239   6.241   4.145   7.581
    1   AR   Ar  240   6.218   3.994   5.945
    1   AR   Ar  241   6.621   0.638   0.160
    1   AR   Ar  242   5.166   6.348   1.372
    1   AR   Ar  243   5.866   4.464   1.988
    1   AR   Ar  244   6.937   6.179  -0.188
    1   AR   Ar  245   5.613   5.597   2.337
    1   AR   Ar  246   6.237   6.557   1.949
    1   AR   Ar  247   5.321   3.286   2.196
    1   AR   Ar  248   5.931   0.057   1.181
    1   AR   Ar  249   5.712   4.757   3.044
    1   AR   Ar  250   5.274   6.449   4.127
    1   AR   Ar  251   5.663   5.165   4.569
    1   AR   Ar  252   5.739   5.837   3.422
    1   AR   Ar  253   5.500   5.399   5.748
    1   AR   Ar  254   4.997   5.966   6.762
    1   AR   Ar  255   5.162   4.621   6.607
    1   AR   Ar  256   6.189   6.166   4.771
    7.12000  7.12000 12.00000
Argon-slab step 1225
  256
    1   AR   Ar    1   0.679   0.818  -0.886
    1   AR   Ar    2   6.737   0.874   1.243
    1   AR   Ar    3   0.298   6.766   0.459
    1   AR   Ar    4   0.847   0.601   0.138
    1   AR   Ar    5   7.078   5.876   0.991
    1   AR   Ar    6   0.510   0.353   3.006
    1   AR   Ar    7   0.393   5.943   2.215
    1   AR   Ar    8   0.339   6.893   1.759
    1   AR   Ar    9   0.487   1.317   3.812
    1   AR   Ar   10   7.012   1.905   4.608
    1   AR   Ar   11   2.335   7.033   4.218
    1   AR   Ar   12   1.233   1.112   2.759
    1   AR   Ar   13   6.033   1.116   4.786
    1   AR   Ar   14   0.363   1.661   5.871
    1   AR   Ar   15   6.635   5.767   8.539
    1   AR   Ar   16   0.728   1.039   4.832
    1   AR   Ar   17   0.293   1.517  -0.197
    1   AR   Ar   18   6.853   3.348   0.409
    1   AR   Ar   19   0.444   1.389   0.876
    1   AR   Ar   20   1.065   3.276  -2.396
    1   AR   Ar   21   6.677   0.339   2.325
    1   AR   Ar   22   0.010   2.084   2.150
    1   AR   Ar   23   0.454   1.093   2.033
    1   AR   Ar   24   0.002   2.711   1.242
    1   AR   Ar   25   7.111   1.317   2.917
    1   AR   Ar   26   6.102   1.819   2.988
    1   AR   Ar   27   1.497   0.849   3.703
    1   AR   Ar   28   0.904   2.137   4.240
    1   AR   Ar   29   6.091   2.070   5.656
    1   AR   Ar   30   6.790   2.861   6.181
    1   AR   Ar   31   0.484   1.080   7.305
    1   AR   Ar   32   2.006   2.610   5.407
    1   AR   Ar   33   0.800   3.930  -1.593
    1   AR   Ar   34   0.603   4.994   1.330
    1   AR   Ar   35   0.388   4.022   1.258
    1   AR   Ar   36   1.870   6.825  -1.820
    1   AR   Ar   37   0.418   3.104   2.477
    1   AR   Ar   38   7.093   4.835   2.076
    1   AR   Ar   39   0.923   3.994   2.765
    1   AR   Ar   40   1.280   4.238   1.661
    1   AR   Ar   41   0.611   2.391   3.147
    1   AR   Ar   42   6.515   5.158   5.187
    1   AR   Ar   43   6.899   2.799   5.141
    1   AR   Ar   44   0.453   3.468   3.850
    1   AR   Ar   45   0.628   3.499   5.178
    1   AR   Ar   46   6.296   5.194   6.565
    1   AR   Ar   47   7.027   3.617   6.768
    1   AR   Ar   48   7.056   6.471   6.501
    1   AR   Ar   49   6.708   4.923  -1.595
    1   AR   Ar   50   6.375   5.537   1.679
    1   AR   Ar   51   1.317   4.646   0.395
    1   AR   Ar   52   0.349   5.209   0.275
    1   AR   Ar   53   6.576   5.691   2.796
    1   AR   Ar   54   0.087   6.579   3.218
    1   AR   Ar   55   0.335   5.374   3.398
    1   AR   Ar   56   1.107   6.059   1.182
    1   AR   Ar   57   7.021   3.956   2.903
    1   AR   Ar   58   0.218   5.961   4.359
    1   AR   Ar   59   2.023   5.765   5.277
    1   AR   Ar   60   1.150   6.955   3.950
    1   AR   Ar   61   6.261   6.172   5.724
    1   AR   Ar   62   0.172   6.288   5.397
    1   AR   Ar   63   1.378   5.157   5.979
    1   AR   Ar   64   1.394   6.783   4.980
    1   AR   Ar   65   2.881   0.182   0.090
    1   AR   Ar   66   1.692   0.783   1.569
    1   AR   Ar   67   3.116   6.275   0.546
    1   AR   Ar   68   3.786   0.850  -0.458
    1   AR   Ar   69   1.462   6.729   0.295
    1   AR   Ar   70   1.307   0.027   2.419
    1   AR   Ar   71   3.082   0.754   1.457
    1   AR   Ar   72   3.878   0.561   0.607
    1   AR   Ar   73   1.860   7.011   3.263
    1   AR   Ar   74   1.960   0.784   4.857
    1   AR   Ar   75   3.268   0.439   5.169
    1   AR   Ar   76   2.406   0.583   2.563
    1   AR   Ar   77   2.218   0.141   5.525
    1   AR   Ar   78   1.260   0.568   5.741
    1   AR   Ar   79   4.480   7.095   6.580
    1   AR   Ar   80   2.974   6.396   5.053
    1   AR   Ar   81   1.919   1.133   0.122
    1   AR   Ar   82   0.773   3.565   0.437
    1   AR   Ar   83   2.353   1.541   1.040
    1   AR   Ar   84   2.183   3.456  -3.083
    1   AR   Ar   85   1.125   2.602   0.579
    1   AR   Ar   86   1.875   3.254   2.085
    1   AR   Ar   87   2.133   1.570   2.094
    1   AR   Ar   88   3.245   3.469   1.456
    1   AR   Ar   89   1.041   2.051   2.055
    1   AR   Ar   90   2.436   1.646   5.074
    1   AR   Ar   91   2.040   2.199   3.976
    1   AR   Ar   92   1.895   1.861   3.029
    1   AR   Ar   93   1.403   1.720   5.316
    1   AR   Ar   94   2.914   0.821   8.271
    1   AR   Ar   95   3.130   7.007   6.351
    1   AR   Ar   96   2.193   0.957   6.251
    1   AR   Ar   97   2.822   2.776  -0.856
    1   AR   Ar   98   2.477   4.279   1.758
    1   AR   Ar   99   3.717   2.809  -1.438
    1   AR   Ar  100   1.892   4.270  -0.563
    1   AR   Ar  101   1.072   3.088   1.522
    1   AR   Ar  102   2.401   4.019   3.620
    1   AR   Ar  103   1.903   3.654   0.927
    1   AR   Ar  104   3.032   3.875  -0.355
    1   AR   Ar  105   1.744   3.118   3.256
    1   AR   Ar  106   2.425   3.155   4.612
    1   AR   Ar  107   2.820   4.155   5.236
    1   AR   Ar  108   3.183   3.170   3.908
    1   AR   Ar  109   1.477   3.669   4.421
    1   AR   Ar  110   1.491   4.750   5.022
    1   AR   Ar  111   4.115   4.701   6.931
    1   AR   Ar  112   1.658   4.129   5.959
    1   AR   Ar  113   2.464   4.330   0.434
    1   AR   Ar  114   2.736   5.109   1.089
    1   AR   Ar  115   3.412   4.768   0.226
    1   AR   Ar  116   4.030   6.973  -0.286
    1   AR   Ar  117   1.212   4.898   3.304
    1   AR   Ar  118   1.327   6.058   2.597
    1   AR   Ar  119   1.816   4.333   2.646
    1   AR   Ar  120   1.858   5.302   2.186
    1   AR   Ar  121   6.539   4.396   4.005
    1   AR   Ar  122   2.930   6.131   4.065
    1   AR   Ar  123   2.268   5.204   4.213
    1   AR   Ar  124   2.210   5.831   3.048
    1   AR   Ar  125   0.400   4.722   4.621
    1   AR   Ar  126   0.849   6.568   6.056
    1   AR   Ar  127   2.340   5.348   7.444
    1   AR   Ar  128   2.301   6.344   6.170
    1   AR   Ar  129   2.286   7.111   1.257
    1   AR   Ar  130   4.794   7.048  -1.835
    1   AR   Ar  131   4.656   6.056   0.461
    1   AR   Ar  132   6.090   2.434  -1.242
    1   AR   Ar  133   3.506   0.389   2.524
    1   AR   Ar  134   4.169   1.342   2.573
    1   AR   Ar  135   4.565   0.321   2.926
    1   AR   Ar  136   4.241   0.781   1.727
    1   AR   Ar  137   2.908   7.102   3.359
    1   AR   Ar  138   4.772   1.250   5.075
    1   AR   Ar  139   5.269   0.329   3.925
    1   AR   Ar  140   4.482   1.038   3.725
    1   AR   Ar  141   3.888   0.111   4.304
    1   AR   Ar  142   4.196   0.068   5.421
    1   AR   Ar  143   5.569   6.833   6.199
    1   AR   Ar  144   4.957   0.874   7.094
    1   AR   Ar  145   3.230   3.316   0.450
    1   AR   Ar  146   4.173   2.996   1.220
    1   AR   Ar  147   5.419   2.252  -0.154
    1   AR   Ar  148   5.896   3.359  -1.780
    1   AR   Ar  149   4.731   1.606   0.723
    1   AR   Ar  150   3.147   1.382   2.600
    1   AR   Ar  151   3.698   1.733   3.455
    1   AR   Ar  152   2.632   2.484   2.126
    1   AR   Ar  153   2.854   1.067   4.298
    1   AR   Ar  154   3.879   2.285   4.545
    1   AR   Ar  155   5.843   0.747   5.916
    1   AR   Ar  156   4.395   3.491   3.827
    1   AR   Ar  157   3.894   1.816   5.538
    1   AR   Ar  158   2.452   1.977   6.116
    1   AR   Ar  159   4.679   0.968   6.049
    1   AR   Ar  160   4.463   2.831   5.918
    1   AR   Ar  161   4.718   3.314  -0.126
    1   AR   Ar  162   4.453   5.072   0.606
    1   AR   Ar  163   5.879   3.240  -0.309
    1   AR   Ar  164   5.325   5.343   1.195
    1   AR   Ar  165   3.310   3.533   2.661
    1   AR   Ar  166   2.861   4.832   2.914
    1   AR   Ar  167   4.648   2.997   2.949
    1   AR   Ar  168   4.090   3.978   0.349
    1   AR   Ar  169   2.870   2.352   3.154
    1   AR   Ar  170   3.224   4.237   4.318
    1   AR   Ar  171   4.089   3.504   4.772
    1   AR   Ar  172   4.615   4.490   4.248
    1   AR   Ar  173   3.312   2.883   5.845
    1   AR   Ar  174   4.336   5.053   6.021
    1   AR   Ar  175   4.388   3.871   6.148
    1   AR   Ar  176   3.004   5.322   4.960
    1   AR   Ar  177   5.690   5.370  -0.196
    1   AR   Ar  178   4.234   6.869   1.335
    1   AR   Ar  179   3.642   5.748   1.285
    1   AR   Ar  180   4.318   4.657  -0.566
    1   AR   Ar  181   3.033   5.632   2.266
    1   AR   Ar  182   2.290   6.679   2.384
    1   AR   Ar  183   3.503   4.707   1.794
    1   AR   Ar  184   4.326   5.956   2.074
    1   AR   Ar  185   1.242   5.772   3.983
    1   AR   Ar  186   3.601   5.312   3.800
    1   AR   Ar  187   4.625   5.305   3.451
    1   AR   Ar  188   3.420   6.208   2.979
    1   AR   Ar  189   2.584   5.053   5.928
    1   AR   Ar  190   3.935   6.096   6.390
    1   AR   Ar  191   5.108   6.292   5.353
    1   AR   Ar  192   4.068   6.106   4.846
    1   AR   Ar  193   6.089   6.951  -0.383
    1   AR   Ar  194   5.097   0.247  -0.455
    1   AR   Ar  195   5.640   1.146   0.271
    1   AR   Ar  196   6.217   1.431  -0.548
    1   AR   Ar  197   4.825   0.214   0.689
    1   AR   Ar  198   5.849   1.027   1.761
    1   AR   Ar  199   5.190   0.184   1.918
    1   AR   Ar  200   6.208   2.081   0.983
    1   AR   Ar  201   5.023   6.466   2.677
    1   AR   Ar  202   5.395   1.541   3.678
    1   AR   Ar  203   0.227   6.999   4.417
    1   AR   Ar  204   5.753   0.316   2.945
    1   AR   Ar  205   6.512   6.808   3.900
    1   AR   Ar  206   5.293   0.161   5.081
    1   AR   Ar  207   0.298   0.188   5.709
    1   AR   Ar  208   6.514   0.783   3.595
    1   AR   Ar  209   6.945   2.722  -1.992
    1   AR   Ar  210   4.910   2.372   1.623
    1   AR   Ar  211   6.583   2.328  -0.049
    1   AR   Ar  212   6.234   4.355  -0.380
    1   AR   Ar  213   3.735   2.509   2.427
    1   AR   Ar  214   4.359   3.767   1.973
    1   AR   Ar  215   6.042   2.109   1.972
    1   AR   Ar  216   6.355   3.606   1.665
    1   AR   Ar  217   5.220   2.611   3.937
    1   AR   Ar  218   4.947   2.400   5.060
    1   AR   Ar  219   5.208   1.263   2.560
    1   AR   Ar  220   6.220   3.568   3.347
    1   AR   Ar  221   6.452   0.097   5.043
    1   AR   Ar  222   5.044   1.882   6.207
    1   AR   Ar  223   6.105   0.829   7.015
    1   AR   Ar  224   5.644   3.182   5.426
    1   AR   Ar  225   5.084   4.304   0.237
    1   AR   Ar  226   4.767   4.732   2.516
    1   AR   Ar  227   6.701   4.622   1.226
    1   AR   Ar  228   6.197   5.527   0.655
    1   AR   Ar  229   6.052   3.937   0.643
    1   AR   Ar  230   3.934   4.274   3.280
    1   AR   Ar  231   6.753   2.687   3.068
    1   AR   Ar  232   5.281   4.024   1.338
    1   AR   Ar  233   5.884   2.434   4.728
    1   AR   Ar  234   6.011   4.243   4.828
    1   AR   Ar  235   6.558   3.277   4.338
    1   AR   Ar  236   5.338   3.891   3.706
    1   AR   Ar  237   5.154   3.420   4.568
    1   AR   Ar  238   5.191   4.400   5.451
    1   AR   Ar  239   6.216   4.174   7.567
    1   AR   Ar  240   6.209   4.043   5.933
    1   AR   Ar  241   6.608   0.638   0.179
    1   AR   Ar  242   5.147   6.343   1.391
    1   AR   Ar  243   5.871   4.451   1.989
    1   AR   Ar  244   6.937   6.166  -0.175
    1   AR   Ar  245   5.617   5.586   2.330
    1   AR   Ar  246   6.259   6.563   1.954
    1   AR   Ar  247   5.319   3.259   2.175
    1   AR   Ar  248   5.941   0.043   1.170
    1   AR   Ar  249   5.751   4.798   3.054
    1   AR   Ar  250   5.253   6.438   4.121
    1   AR   Ar  251   5.690   5.162   4.593
    1   AR   Ar  252   5.756   5.843   3.446
    1   AR   Ar  253   5.510   5.387   5.735
    1   AR   Ar  254   5.004   5.971   6.739
    1   AR   Ar  255   5.148   4.628   6.619
    1   AR   Ar  256   6.180   6.137   4.769
    7.12000  7.12000 12.00000
Argon-slab step 1230
  256
    1   AR   Ar    1   0.649   0.820  -0.880
    1   AR   Ar    2   6.735   0.880   1.243
    1   AR   Ar    3   0.317   6.767   0.482
    1   AR   Ar    4   0.869   0.580   0.123
    1   AR   Ar    5   7.069   5.881   1.000
    1   AR   Ar    6   0.538   0.321   3.012
    1   AR   Ar    7   0.365   5.912   2.195
    1   AR   Ar    8   0.329   6.860   1.773
    1   AR   Ar    9   0.546   1.367   3.802
    1   AR   Ar   10   7.014   1.910   4.599
    1   AR   Ar   11   2.338   7.033   4.199
    1   AR   Ar   12   1.261   1.099   2.782
    1   AR   Ar   13   5.986   1.093   4.741
    1   AR   Ar   14   0.330   1.678   5.847
    1   AR   Ar   15   6.614   5.739   8.521
    1   AR   Ar   16   0.709   1.011   4.818
    1   AR   Ar   17   0.291   1.536  -0.205
    1   AR   Ar   18   6.854   3.356   0.389
    1   AR   Ar   19   0.429   1.414   0.860
    1   AR   Ar   20   1.062   3.238  -2.376
    1   AR   Ar   21   6.689   0.384   2.326
    1   AR   Ar   22   0.037   2.051   2.188
    1   AR   Ar   23   0.471   1.110   2.023
    1   AR   Ar   24   7.110   2.723   1.236
    1   AR   Ar   25   7.086   1.355   2.925
    1   AR   Ar   26   6.103   1.794   3.012
    1   AR   Ar   27   1.535   0.868   3.706
    1   AR   Ar   28   0.884   2.146   4.201
    1   AR   Ar   29   6.108   2.061   5.635
    1   AR   Ar   30   6.823   2.892   6.195
    1   AR   Ar   31   0.484   1.080   7.325
    1   AR   Ar   32   2.005   2.645   5.409
    1   AR   Ar   33   0.778   3.935  -1.595
    1   AR   Ar   34   0.625   4.991   1.300
    1   AR   Ar   35   0.394   3.981   1.252
    1   AR   Ar   36   1.859   6.841  -1.833
    1   AR   Ar   37   0.411   3.114   2.467
    1   AR   Ar   38   7.109   4.811   2.086
    1   AR   Ar   39   0.916   4.002   2.765
    1   AR   Ar   40   1.301   4.251   1.657
    1   AR   Ar   41   0.598   2.405   3.166
    1   AR   Ar   42   6.501   5.096   5.185
    1   AR   Ar   43   6.902   2.801   5.150
    1   AR   Ar   44   0.463   3.437   3.844
    1   AR   Ar   45   0.657   3.507   5.162
    1   AR   Ar   46   6.280   5.208   6.549
    1   AR   Ar   47   7.045   3.612   6.801
    1   AR   Ar   48   7.047   6.492   6.483
    1   AR   Ar   49   6.669   4.926  -1.603
    1   AR   Ar   50   6.354   5.510   1.673
    1   AR   Ar   51   1.306   4.631   0.455
    1   AR   Ar   52   0.366   5.193   0.300
    1   AR   Ar   53   6.568   5.727   2.824
    1   AR   Ar   54   0.118   6.572   3.210
    1   AR   Ar   55   0.325   5.364   3.406
    1   AR   Ar   56   1.128   6.064   1.178
    1   AR   Ar   57   7.010   3.959   2.899
    1   AR   Ar   58   0.237   5.939   4.362
    1   AR   Ar   59   1.994   5.790   5.290
    1   AR   Ar   60   1.131   6.958   3.965
    1   AR   Ar   61   6.260   6.162   5.735
    1   AR   Ar   62   0.151   6.289   5.393
    1   AR   Ar   63   1.371   5.132   5.972
    1   AR   Ar   64   1.386   6.766   5.009
    1   AR   Ar   65   2.878   0.166   0.077
    1   AR   Ar   66   1.706   0.809   1.591
    1   AR   Ar   67   3.116   6.250   0.552
    1   AR   Ar   68   3.778   0.838  -0.487
    1   AR   Ar   69   1.466   6.726   0.278
    1   AR   Ar   70   1.304   0.009   2.408
    1   AR   Ar   71   3.061   0.742   1.444
    1   AR   Ar   72   3.870   0.531   0.625
    1   AR   Ar   73   1.871   6.975   3.261
    1   AR   Ar   74   1.923   0.797   4.851
    1   AR   Ar   75   3.269   0.434   5.176
    1   AR   Ar   76   2.378   0.590   2.538
    1   AR   Ar   77   2.219   0.109   5.532
    1   AR   Ar   78   1.243   0.525   5.731
    1   AR   Ar   79   4.518   7.082   6.569
    1   AR   Ar   80   2.950   6.390   5.076
    1   AR   Ar   81   1.922   1.125   0.114
    1   AR   Ar   82   0.773   3.565   0.459
    1   AR   Ar   83   2.350   1.552   1.053
    1   AR   Ar   84   2.201   3.468  -3.132
    1   AR   Ar   85   1.106   2.607   0.574
    1   AR   Ar   86   1.858   3.245   2.083
    1   AR   Ar   87   2.148   1.557   2.076
    1   AR   Ar   88   3.233   3.460   1.446
    1   AR   Ar   89   1.079   2.061   2.059
    1   AR   Ar   90   2.439   1.681   5.072
    1   AR   Ar   91   2.040   2.194   3.931
    1   AR   Ar   92   1.861   1.851   3.009
    1   AR   Ar   93   1.407   1.725   5.340
    1   AR   Ar   94   2.931   0.807   8.252
    1   AR   Ar   95   3.141   7.010   6.352
    1   AR   Ar   96   2.237   0.925   6.227
    1   AR   Ar   97   2.841   2.764  -0.824
    1   AR   Ar   98   2.460   4.255   1.793
    1   AR   Ar   99   3.699   2.823  -1.456
    1   AR   Ar  100   1.898   4.260  -0.576
    1   AR   Ar  101   1.099   3.077   1.525
    1   AR   Ar  102   2.397   4.006   3.619
    1   AR   Ar  103   1.915   3.687   0.905
    1   AR   Ar  104   3.025   3.892  -0.367
    1   AR   Ar  105   1.767   3.121   3.231
    1   AR   Ar  106   2.405   3.137   4.590
    1   AR   Ar  107   2.810   4.178   5.258
    1   AR   Ar  108   3.159   3.129   3.900
    1   AR   Ar  109   1.505   3.674   4.440
    1   AR   Ar  110   1.470   4.762   4.997
    1   AR   Ar  111   4.132   4.696   6.954
    1   AR   Ar  112   1.636   4.130   5.949
    1   AR   Ar  113   2.451   4.344   0.425
    1   AR   Ar  114   2.735   5.105   1.104
    1   AR   Ar  115   3.369   4.750   0.195
    1   AR   Ar  116   4.034   6.957  -0.265
    1   AR   Ar  117   1.225   4.902   3.335
    1   AR   Ar  118   1.358   6.067   2.612
    1   AR   Ar  119   1.851   4.350   2.649
    1   AR   Ar  120   1.863   5.291   2.207
    1   AR   Ar  121   6.525   4.420   3.983
    1   AR   Ar  122   2.932   6.141   4.065
    1   AR   Ar  123   2.247   5.192   4.235
    1   AR   Ar  124   2.206   5.837   3.069
    1   AR   Ar  125   0.399   4.708   4.616
    1   AR   Ar  126   0.849   6.558   6.046
    1   AR   Ar  127   2.338   5.348   7.438
    1   AR   Ar  128   2.276   6.327   6.179
    1   AR   Ar  129   2.258   7.115   1.251
    1   AR   Ar  130   4.825   7.058  -1.845
    1   AR   Ar  131   4.663   6.084   0.498
    1   AR   Ar  132   6.119   2.420  -1.226
    1   AR   Ar  133   3.492   0.403   2.484
    1   AR   Ar  134   4.171   1.379   2.568
    1   AR   Ar  135   4.585   0.349   2.905
    1   AR   Ar  136   4.236   0.780   1.724
    1   AR   Ar  137   2.885   7.118   3.322
    1   AR   Ar  138   4.797   1.240   5.094
    1   AR   Ar  139   5.282   0.317   3.936
    1   AR   Ar  140   4.474   1.026   3.746
    1   AR   Ar  141   3.904   0.090   4.312
    1   AR   Ar  142   4.200   0.039   5.450
    1   AR   Ar  143   5.562   6.825   6.187
    1   AR   Ar  144   4.988   0.868   7.097
    1   AR   Ar  145   3.244   3.317   0.425
    1   AR   Ar  146   4.225   3.011   1.238
    1   AR   Ar  147   5.406   2.263  -0.126
    1   AR   Ar  148   5.910   3.368  -1.793
    1   AR   Ar  149   4.706   1.587   0.740
    1   AR   Ar  150   3.124   1.423   2.613
    1   AR   Ar  151   3.711   1.735   3.456
    1   AR   Ar  152   2.616   2.470   2.114
    1   AR   Ar  153   2.877   1.051   4.296
    1   AR   Ar  154   3.868   2.263   4.544
    1   AR   Ar  155   5.869   0.754   5.900
    1   AR   Ar  156   4.406   3.495   3.814
    1   AR   Ar  157   3.891   1.801   5.535
    1   AR   Ar  158   2.421   1.960   6.117
    1   AR   Ar  159   4.687   0.983   6.024
    1   AR   Ar  160   4.461   2.821   5.947
    1   AR   Ar  161   4.751   3.320  -0.117
    1   AR   Ar  162   4.475   5.104   0.601
    1   AR   Ar  163   5.889   3.264  -0.328
    1   AR   Ar  164   5.311   5.340   1.227
    1   AR   Ar  165   3.313   3.530   2.683
    1   AR   Ar  166   2.867   4.847   2.922
    1   AR   Ar  167   4.654   3.012   2.900
    1   AR   Ar  168   4.086   4.026   0.370
    1   AR   Ar  169   2.851   2.345   3.179
    1   AR   Ar  170   3.224   4.238   4.324
    1   AR   Ar  171   4.090   3.506   4.797
    1   AR   Ar  172   4.615   4.484   4.238
    1   AR   Ar  173   3.291   2.869   5.869
    1   AR   Ar  174   4.301   5.061   6.035
    1   AR   Ar  175   4.403   3.895   6.170
    1   AR   Ar  176   3.028   5.336   4.965
    1   AR   Ar  177   5.692   5.431  -0.208
    1   AR   Ar  178   4.224   6.875   1.334
    1   AR   Ar  179   3.641   5.698   1.295
    1   AR   Ar  180   4.273   4.649  -0.583
    1   AR   Ar  181   3.010   5.647   2.278
    1   AR   Ar  182   2.314   6.675   2.346
    1   AR   Ar  183   3.489   4.697   1.805
    1   AR   Ar  184   4.314   5.950   2.069
    1   AR   Ar  185   1.214   5.790   4.012
    1   AR   Ar  186   3.597   5.328   3.796
    1   AR   Ar  187   4.664   5.297   3.463
    1   AR   Ar  188   3.435   6.199   2.993
    1   AR   Ar  189   2.598   5.058   5.923
    1   AR   Ar  190   3.889   6.088   6.375
    1   AR   Ar  191   5.129   6.290   5.354
    1   AR   Ar  192   4.075   6.108   4.834
    1   AR   Ar  193   6.124   6.947  -0.393
    1   AR   Ar  194   5.106   0.241  -0.421
    1   AR   Ar  195   5.661   1.123   0.284
    1   AR   Ar  196   6.214   1.437  -0.556
    1   AR   Ar  197   4.826   0.209   0.652
    1   AR   Ar  198   5.853   1.001   1.759
    1   AR   Ar  199   5.175   0.218   1.896
    1   AR   Ar  200   6.214   2.066   0.999
    1   AR   Ar  201   5.025   6.424   2.697
    1   AR   Ar  202   5.408   1.554   3.666
    1   AR   Ar  203   0.224   6.985   4.407
    1   AR   Ar  204   5.748   0.336   2.945
    1   AR   Ar  205   6.506   6.808   3.896
    1   AR   Ar  206   5.299   0.163   5.076
    1   AR   Ar  207   0.327   0.210   5.689
    1   AR   Ar  208   6.527   0.746   3.598
    1   AR   Ar  209   6.964   2.719  -1.995
    1   AR   Ar  210   4.934   2.350   1.616
    1   AR   Ar  211   6.607   2.349  -0.038
    1   AR   Ar  212   6.221   4.317  -0.395
    1   AR   Ar  213   3.752   2.518   2.435
    1   AR   Ar  214   4.360   3.768   1.984
    1   AR   Ar  215   6.032   2.118   1.978
    1   AR   Ar  216   6.384   3.603   1.692
    1   AR   Ar  217   5.207   2.628   3.931
    1   AR   Ar  218   4.964   2.403   5.076
    1   AR   Ar  219   5.212   1.268   2.556
    1   AR   Ar  220   6.213   3.543   3.317
    1   AR   Ar  221   6.462   0.112   5.042
    1   AR   Ar  222   5.067   1.880   6.184
    1   AR   Ar  223   6.109   0.858   7.018
    1   AR   Ar  224   5.651   3.149   5.424
    1   AR   Ar  225   5.064   4.278   0.209
    1   AR   Ar  226   4.763   4.755   2.529
    1   AR   Ar  227   6.727   4.627   1.204
    1   AR   Ar  228   6.176   5.565   0.645
    1   AR   Ar  229   6.056   3.942   0.626
    1   AR   Ar  230   3.918   4.270   3.278
    1   AR   Ar  231   6.723   2.680   3.033
    1   AR   Ar  232   5.277   4.031   1.334
    1   AR   Ar  233   5.895   2.403   4.720
    1   AR   Ar  234   6.017   4.209   4.830
    1   AR   Ar  235   6.554   3.283   4.339
    1   AR   Ar  236   5.315   3.916   3.711
    1   AR   Ar  237   5.175   3.427   4.581
    1   AR   Ar  238   5.165   4.396   5.441
    1   AR   Ar  239   6.192   4.204   7.552
    1   AR   Ar  240   6.200   4.093   5.921
    1   AR   Ar  241   6.598   0.638   0.199
    1   AR   Ar  242   5.130   6.345   1.411
    1   AR   Ar  243   5.881   4.451   2.001
    1   AR   Ar  244   6.931   6.147  -0.167
    1   AR   Ar  245   5.611   5.577   2.325
    1   AR   Ar  246   6.255   6.531   1.933
    1   AR   Ar  247   5.320   3.234   2.152
    1   AR   Ar  248   5.951   0.033   1.155
    1   AR   Ar  249   5.792   4.837   3.066
    1   AR   Ar  250   5.230   6.425   4.121
    1   AR   Ar  251   5.707   5.167   4.610
    1   AR   Ar  252   5.774   5.847   3.470
    1   AR   Ar  253   5.521   5.373   5.723
    1   AR   Ar  254   5.011   5.976   6.714
    1   AR   Ar  255   5.138   4.636   6.629
    1   AR   Ar  256   6.170   6.109   4.748
    7.12000  7.12000 12.00000
Argon-slab step 1235
  256
    1   AR   Ar    1   0.619   0.820  -0.878
    1   AR   Ar    2   6.734   0.884   1.245
    1   AR   Ar    3   0.332   6.769   0.501
    1   AR   Ar    4   0.891   0.559   0.111
    1   AR   Ar    5   7.069   5.891   1.013
    1   AR   Ar    6   0.566   0.302   3.021
    1   AR   Ar    7   0.335   5.875   2.176
    1   AR   Ar    8   0.319   6.832   1.785
    1   AR   Ar    9   0.589   1.396   3.790
    1   AR   Ar   10   7.014   1.911   4.590
    1   AR   Ar   11   2.338   7.034   4.188
    1   AR   Ar   12   1.262   1.101   2.783
    1   AR   Ar   13   5.938   1.072   4.696
    1   AR   Ar   14   0.297   1.696   5.822
    1   AR   Ar   15   6.593   5.710   8.503
    1   AR   Ar   16   0.690   0.983   4.805
    1   AR   Ar   17   0.279   1.540  -0.193
    1   AR   Ar   18   6.842   3.384   0.375
    1   AR   Ar   19   0.417   1.442   0.845
    1   AR   Ar   20   1.060   3.199  -2.357
    1   AR   Ar   21   6.705   0.416   2.315
    1   AR   Ar   22   0.059   2.026   2.221
    1   AR   Ar   23   0.489   1.121   2.010
    1   AR   Ar   24   7.101   2.734   1.232
    1   AR   Ar   25   7.062   1.389   2.937
    1   AR   Ar   26   6.111   1.769   3.028
    1   AR   Ar   27   1.578   0.883   3.719
    1   AR   Ar   28   0.877   2.179   4.174
    1   AR   Ar   29   6.125   2.049   5.622
    1   AR   Ar   30   6.850   2.910   6.199
    1   AR   Ar   31   0.484   1.081   7.345
    1   AR   Ar   32   2.001   2.681   5.412
    1   AR   Ar   33   0.757   3.941  -1.595
    1   AR   Ar   34   0.652   4.997   1.269
    1   AR   Ar   35   0.393   3.936   1.259
    1   AR   Ar   36   1.847   6.857  -1.846
    1   AR   Ar   37   0.404   3.127   2.448
    1   AR   Ar   38   0.007   4.788   2.115
    1   AR   Ar   39   0.907   4.007   2.765
    1   AR   Ar   40   1.329   4.263   1.656
    1   AR   Ar   41   0.601   2.397   3.151
    1   AR   Ar   42   6.498   5.036   5.191
    1   AR   Ar   43   6.907   2.801   5.165
    1   AR   Ar   44   0.473   3.406   3.837
    1   AR   Ar   45   0.686   3.516   5.145
    1   AR   Ar   46   6.263   5.221   6.532
    1   AR   Ar   47   7.066   3.620   6.845
    1   AR   Ar   48   7.032   6.512   6.466
    1   AR   Ar   49   6.650   4.944  -1.617
    1   AR   Ar   50   6.340   5.481   1.668
    1   AR   Ar   51   1.297   4.615   0.517
    1   AR   Ar   52   0.382   5.177   0.322
    1   AR   Ar   53   6.565   5.763   2.848
    1   AR   Ar   54   0.150   6.551   3.202
    1   AR   Ar   55   0.309   5.358   3.413
    1   AR   Ar   56   1.124   6.082   1.173
    1   AR   Ar   57   7.002   3.967   2.893
    1   AR   Ar   58   0.252   5.914   4.365
    1   AR   Ar   59   1.977   5.811   5.301
    1   AR   Ar   60   1.114   6.961   3.978
    1   AR   Ar   61   6.260   6.152   5.757
    1   AR   Ar   62   0.146   6.301   5.379
    1   AR   Ar   63   1.364   5.113   5.967
    1   AR   Ar   64   1.377   6.750   5.039
    1   AR   Ar   65   2.876   0.150   0.066
    1   AR   Ar   66   1.711   0.829   1.610
    1   AR   Ar   67   3.115   6.226   0.557
    1   AR   Ar   68   3.769   0.828  -0.516
    1   AR   Ar   69   1.471   6.723   0.263
    1   AR   Ar   70   1.303   7.112   2.388
    1   AR   Ar   71   3.039   0.731   1.434
    1   AR   Ar   72   3.854   0.505   0.642
    1   AR   Ar   73   1.880   6.939   3.256
    1   AR   Ar   74   1.879   0.811   4.839
    1   AR   Ar   75   3.267   0.428   5.184
    1   AR   Ar   76   2.348   0.600   2.513
    1   AR   Ar   77   2.238   0.121   5.548
    1   AR   Ar   78   1.241   0.488   5.721
    1   AR   Ar   79   4.557   7.069   6.556
    1   AR   Ar   80   2.926   6.389   5.104
    1   AR   Ar   81   1.915   1.122   0.159
    1   AR   Ar   82   0.781   3.566   0.470
    1   AR   Ar   83   2.348   1.564   1.064
    1   AR   Ar   84   2.218   3.479  -3.181
    1   AR   Ar   85   1.088   2.604   0.568
    1   AR   Ar   86   1.855   3.244   2.092
    1   AR   Ar   87   2.165   1.547   2.060
    1   AR   Ar   88   3.180   3.438   1.451
    1   AR   Ar   89   1.114   2.065   2.065
    1   AR   Ar   90   2.446   1.719   5.070
    1   AR   Ar   91   2.041   2.194   3.896
    1   AR   Ar   92   1.829   1.849   2.988
    1   AR   Ar   93   1.408   1.729   5.364
    1   AR   Ar   94   2.947   0.794   8.233
    1   AR   Ar   95   3.151   7.010   6.354
    1   AR   Ar   96   2.267   0.900   6.222
    1   AR   Ar   97   2.859   2.753  -0.791
    1   AR   Ar   98   2.449   4.243   1.808
    1   AR   Ar   99   3.682   2.838  -1.474
    1   AR   Ar  100   1.917   4.272  -0.577
    1   AR   Ar  101   1.109   3.066   1.519
    1   AR   Ar  102   2.393   3.992   3.618
    1   AR   Ar  103   1.918   3.710   0.892
    1   AR   Ar  104   3.016   3.911  -0.389
    1   AR   Ar  105   1.789   3.124   3.205
    1   AR   Ar  106   2.385   3.120   4.568
    1   AR   Ar  107   2.797   4.201   5.285
    1   AR   Ar  108   3.141   3.091   3.888
    1   AR   Ar  109   1.517   3.681   4.463
    1   AR   Ar  110   1.450   4.773   4.967
    1   AR   Ar  111   4.145   4.688   6.985
    1   AR   Ar  112   1.617   4.127   5.937
    1   AR   Ar  113   2.440   4.363   0.410
    1   AR   Ar  114   2.734   5.104   1.121
    1   AR   Ar  115   3.329   4.739   0.163
    1   AR   Ar  116   4.039   6.938  -0.242
    1   AR   Ar  117   1.245   4.904   3.366
    1   AR   Ar  118   1.377   6.084   2.626
    1   AR   Ar  119   1.894   4.365   2.654
    1   AR   Ar  120   1.872   5.276   2.222
    1   AR   Ar  121   6.514   4.445   3.954
    1   AR   Ar  122   2.926   6.144   4.067
    1   AR   Ar  123   2.225   5.180   4.255
    1   AR   Ar  124   2.213   5.841   3.099
    1   AR   Ar  125   0.396   4.696   4.610
    1   AR   Ar  126   0.869   6.545   6.043
    1   AR   Ar  127   2.336   5.347   7.431
    1   AR   Ar  128   2.250   6.309   6.188
    1   AR   Ar  129   2.232   7.116   1.243
    1   AR   Ar  130   4.820   7.064  -1.841
    1   AR   Ar  131   4.670   6.121   0.532
    1   AR   Ar  132   6.149   2.405  -1.208
    1   AR   Ar  133   3.479   0.416   2.444
    1   AR   Ar  134   4.173   1.406   2.567
    1   AR   Ar  135   4.605   0.377   2.881
    1   AR   Ar  136   4.220   0.757   1.726
    1   AR   Ar  137   2.869   0.014   3.282
    1   AR   Ar  138   4.821   1.230   5.110
    1   AR   Ar  139   5.296   0.311   3.947
    1   AR   Ar  140   4.464   1.014   3.767
    1   AR   Ar  141   3.920   0.068   4.320
    1   AR   Ar  142   4.210   0.007   5.481
    1   AR   Ar  143   5.553   6.819   6.176
    1   AR   Ar  144   5.019   0.862   7.099
    1   AR   Ar  145   3.259   3.312   0.402
    1   AR   Ar  146   4.274   3.028   1.252
    1   AR   Ar  147   5.395   2.273  -0.098
    1   AR   Ar  148   5.925   3.377  -1.805
    1   AR   Ar  149   4.682   1.568   0.759
    1   AR   Ar  150   3.096   1.466   2.623
    1   AR   Ar  151   3.706   1.730   3.431
    1   AR   Ar  152   2.604   2.460   2.102
    1   AR   Ar  153   2.900   1.034   4.292
    1   AR   Ar  154   3.858   2.243   4.542
    1   AR   Ar  155   5.894   0.762   5.882
    1   AR   Ar  156   4.410   3.494   3.799
    1   AR   Ar  157   3.889   1.787   5.534
    1   AR   Ar  158   2.391   1.946   6.119
    1   AR   Ar  159   4.689   0.981   6.012
    1   AR   Ar  160   4.459   2.811   5.974
    1   AR   Ar  161   4.785   3.323  -0.109
    1   AR   Ar  162   4.491   5.126   0.596
    1   AR   Ar  163   5.900   3.286  -0.346
    1   AR   Ar  164   5.297   5.332   1.261
    1   AR   Ar  165   3.316   3.527   2.704
    1   AR   Ar  166   2.871   4.858   2.933
    1   AR   Ar  167   4.657   3.025   2.854
    1   AR   Ar  168   4.078   4.071   0.395
    1   AR   Ar  169   2.822   2.342   3.210
    1   AR   Ar  170   3.227   4.241   4.323
    1   AR   Ar  171   4.101   3.507   4.809
    1   AR   Ar  172   4.614   4.480   4.231
    1   AR   Ar  173   3.270   2.854   5.891
    1   AR   Ar  174   4.263   5.064   6.045
    1   AR   Ar  175   4.418   3.920   6.192
    1   AR   Ar  176   3.056   5.372   4.963
    1   AR   Ar  177   5.689   5.490  -0.229
    1   AR   Ar  178   4.206   6.877   1.338
    1   AR   Ar  179   3.649   5.699   1.268
    1   AR   Ar  180   4.227   4.640  -0.597
    1   AR   Ar  181   2.983   5.659   2.279
    1   AR   Ar  182   2.341   6.667   2.306
    1   AR   Ar  183   3.476   4.686   1.817
    1   AR   Ar  184   4.302   5.942   2.065
    1   AR   Ar  185   1.191   5.810   4.039
    1   AR   Ar  186   3.592   5.341   3.791
    1   AR   Ar  187   4.704   5.291   3.476
    1   AR   Ar  188   3.461   6.196   3.012
    1   AR   Ar  189   2.611   5.062   5.918
    1   AR   Ar  190   3.922   6.084   6.350
    1   AR   Ar  191   5.147   6.286   5.353
    1   AR   Ar  192   4.082   6.112   4.821
    1   AR   Ar  193   6.159   6.943  -0.402
    1   AR   Ar  194   5.113   0.236  -0.387
    1   AR   Ar  195   5.677   1.100   0.302
    1   AR   Ar  196   6.213   1.445  -0.565
    1   AR   Ar  197   4.840   0.203   0.613
    1   AR   Ar  198   5.857   0.979   1.756
    1   AR   Ar  199   5.171   0.261   1.900
    1   AR   Ar  200   6.221   2.049   1.005
    1   AR   Ar  201   5.029   6.385   2.718
    1   AR   Ar  202   5.413   1.564   3.663
    1   AR   Ar  203   0.223   6.977   4.406
    1   AR   Ar  204   5.742   0.356   2.943
    1   AR   Ar  205   6.486   6.807   3.892
    1   AR   Ar  206   5.307   0.170   5.069
    1   AR   Ar  207   0.335   0.234   5.663
    1   AR   Ar  208   6.539   0.709   3.603
    1   AR   Ar  209   6.945   2.690  -2.027
    1   AR   Ar  210   4.962   2.324   1.611
    1   AR   Ar  211   6.629   2.378  -0.049
    1   AR   Ar  212   6.233   4.318  -0.411
    1   AR   Ar  213   3.768   2.527   2.444
    1   AR   Ar  214   4.346   3.755   1.974
    1   AR   Ar  215   6.021   2.128   1.992
    1   AR   Ar  216   6.417   3.597   1.717
    1   AR   Ar  217   5.192   2.643   3.921
    1   AR   Ar  218   4.970   2.403   5.094
    1   AR   Ar  219   5.218   1.273   2.554
    1   AR   Ar  220   6.197   3.516   3.292
    1   AR   Ar  221   6.471   0.126   5.041
    1   AR   Ar  222   5.095   1.888   6.160
    1   AR   Ar  223   6.114   0.887   7.020
    1   AR   Ar  224   5.663   3.119   5.431
    1   AR   Ar  225   5.053   4.257   0.180
    1   AR   Ar  226   4.761   4.778   2.541
    1   AR   Ar  227   6.742   4.633   1.167
    1   AR   Ar  228   6.157   5.602   0.637
    1   AR   Ar  229   6.057   3.950   0.610
    1   AR   Ar  230   3.901   4.269   3.275
    1   AR   Ar  231   6.691   2.671   2.998
    1   AR   Ar  232   5.264   4.034   1.324
    1   AR   Ar  233   5.916   2.372   4.698
    1   AR   Ar  234   6.021   4.165   4.837
    1   AR   Ar  235   6.546   3.292   4.334
    1   AR   Ar  236   5.301   3.948   3.708
    1   AR   Ar  237   5.193   3.437   4.599
    1   AR   Ar  238   5.137   4.390   5.432
    1   AR   Ar  239   6.168   4.235   7.534
    1   AR   Ar  240   6.191   4.143   5.909
    1   AR   Ar  241   6.592   0.638   0.217
    1   AR   Ar  242   5.120   6.350   1.427
    1   AR   Ar  243   5.897   4.462   2.022
    1   AR   Ar  244   6.922   6.123  -0.160
    1   AR   Ar  245   5.595   5.569   2.324
    1   AR   Ar  246   6.252   6.498   1.916
    1   AR   Ar  247   5.327   3.211   2.124
    1   AR   Ar  248   5.961   0.025   1.135
    1   AR   Ar  249   5.833   4.873   3.080
    1   AR   Ar  250   5.204   6.409   4.127
    1   AR   Ar  251   5.699   5.193   4.614
    1   AR   Ar  252   5.789   5.847   3.485
    1   AR   Ar  253   5.531   5.357   5.713
    1   AR   Ar  254   5.018   5.980   6.686
    1   AR   Ar  255   5.132   4.645   6.637
    1   AR   Ar  256   6.164   6.141   4.728
    7.12000  7.12000 12.00000
Argon-slab step 1240
  256
    1   AR   Ar    1   0.590   0.819  -0.880
    1   AR   Ar    2   6.737   0.887   1.248
    1   AR   Ar    3   0.321   6.765   0.489
    1   AR   Ar    4   0.913   0.539   0.103
    1   AR   Ar    5   7.075   5.902   1.030
    1   AR   Ar    6   0.588   0.298   3.025
    1   AR   Ar    7   0.304   5.834   2.158
    1   AR   Ar    8   0.308   6.807   1.795
    1   AR   Ar    9   0.600   1.363   3.776
    1   AR   Ar   10   7.013   1.909   4.580
    1   AR   Ar   11   2.336   7.039   4.186
    1   AR   Ar   12   1.223   1.124   2.757
    1   AR   Ar   13   5.888   1.051   4.650
    1   AR   Ar   14   0.263   1.713   5.794
    1   AR   Ar   15   6.572   5.682   8.484
    1   AR   Ar   16   0.672   0.954   4.794
    1   AR   Ar   17   0.264   1.546  -0.181
    1   AR   Ar   18   6.836   3.407   0.358
    1   AR   Ar   19   0.407   1.471   0.833
    1   AR   Ar   20   1.057   3.160  -2.339
    1   AR   Ar   21   6.722   0.445   2.302
    1   AR   Ar   22   0.078   2.019   2.243
    1   AR   Ar   23   0.510   1.126   1.994
    1   AR   Ar   24   7.093   2.746   1.230
    1   AR   Ar   25   7.040   1.410   2.958
    1   AR   Ar   26   6.126   1.748   3.034
    1   AR   Ar   27   1.623   0.897   3.739
    1   AR   Ar   28   0.883   2.241   4.165
    1   AR   Ar   29   6.145   2.034   5.616
    1   AR   Ar   30   6.873   2.919   6.198
    1   AR   Ar   31   0.483   1.081   7.363
    1   AR   Ar   32   1.998   2.707   5.423
    1   AR   Ar   33   0.783   3.927  -1.615
    1   AR   Ar   34   0.680   5.006   1.248
    1   AR   Ar   35   0.382   3.894   1.282
    1   AR   Ar   36   1.836   6.873  -1.860
    1   AR   Ar   37   0.396   3.139   2.422
    1   AR   Ar   38   0.025   4.765   2.150
    1   AR   Ar   39   0.901   4.013   2.764
    1   AR   Ar   40   1.360   4.273   1.658
    1   AR   Ar   41   0.636   2.392   3.201
    1   AR   Ar   42   6.503   4.978   5.204
    1   AR   Ar   43   6.912   2.799   5.181
    1   AR   Ar   44   0.482   3.375   3.829
    1   AR   Ar   45   0.713   3.526   5.128
    1   AR   Ar   46   6.246   5.234   6.514
    1   AR   Ar   47   7.088   3.638   6.896
    1   AR   Ar   48   7.014   6.533   6.449
    1   AR   Ar   49   6.636   4.966  -1.632
    1   AR   Ar   50   6.331   5.447   1.662
    1   AR   Ar   51   1.291   4.594   0.578
    1   AR   Ar   52   0.385   5.159   0.323
    1   AR   Ar   53   6.567   5.797   2.865
    1   AR   Ar   54   0.179   6.519   3.195
    1   AR   Ar   55   0.290   5.354   3.420
    1   AR   Ar   56   1.114   6.103   1.168
    1   AR   Ar   57   6.994   3.980   2.884
    1   AR   Ar   58   0.258   5.901   4.369
    1   AR   Ar   59   2.007   5.822   5.312
    1   AR   Ar   60   1.105   6.964   3.988
    1   AR   Ar   61   6.262   6.140   5.781
    1   AR   Ar   62   0.171   6.291   5.353
    1   AR   Ar   63   1.357   5.102   5.965
    1   AR   Ar   64   1.367   6.733   5.067
    1   AR   Ar   65   2.875   0.135   0.056
    1   AR   Ar   66   1.705   0.838   1.624
    1   AR   Ar   67   3.112   6.206   0.559
    1   AR   Ar   68   3.760   0.819  -0.543
    1   AR   Ar   69   1.475   6.721   0.250
    1   AR   Ar   70   1.304   7.098   2.361
    1   AR   Ar   71   3.018   0.720   1.425
    1   AR   Ar   72   3.833   0.480   0.659
    1   AR   Ar   73   1.882   6.901   3.249
    1   AR   Ar   74   1.834   0.826   4.824
    1   AR   Ar   75   3.262   0.422   5.193
    1   AR   Ar   76   2.316   0.611   2.489
    1   AR   Ar   77   2.264   0.139   5.565
    1   AR   Ar   78   1.261   0.460   5.712
    1   AR   Ar   79   4.587   7.059   6.537
    1   AR   Ar   80   2.901   6.396   5.135
    1   AR   Ar   81   1.906   1.120   0.217
    1   AR   Ar   82   0.798   3.566   0.466
    1   AR   Ar   83   2.347   1.576   1.070
    1   AR   Ar   84   2.234   3.491  -3.230
    1   AR   Ar   85   1.072   2.593   0.562
    1   AR   Ar   86   1.867   3.249   2.113
    1   AR   Ar   87   2.186   1.544   2.055
    1   AR   Ar   88   3.127   3.418   1.461
    1   AR   Ar   89   1.120   2.045   2.079
    1   AR   Ar   90   2.456   1.758   5.065
    1   AR   Ar   91   2.041   2.196   3.874
    1   AR   Ar   92   1.804   1.860   2.966
    1   AR   Ar   93   1.408   1.730   5.388
    1   AR   Ar   94   2.963   0.781   8.213
    1   AR   Ar   95   3.161   7.010   6.354
    1   AR   Ar   96   2.275   0.890   6.249
    1   AR   Ar   97   2.876   2.744  -0.755
    1   AR   Ar   98   2.449   4.248   1.790
    1   AR   Ar   99   3.667   2.853  -1.493
    1   AR   Ar  100   1.946   4.299  -0.571
    1   AR   Ar  101   1.102   3.053   1.504
    1   AR   Ar  102   2.388   3.978   3.617
    1   AR   Ar  103   1.907   3.701   0.859
    1   AR   Ar  104   3.008   3.919  -0.411
    1   AR   Ar  105   1.812   3.126   3.180
    1   AR   Ar  106   2.366   3.104   4.545
    1   AR   Ar  107   2.780   4.217   5.313
    1   AR   Ar  108   3.130   3.055   3.873
    1   AR   Ar  109   1.527   3.692   4.483
    1   AR   Ar  110   1.432   4.782   4.936
    1   AR   Ar  111   4.155   4.678   7.023
    1   AR   Ar  112   1.599   4.118   5.922
    1   AR   Ar  113   2.428   4.388   0.390
    1   AR   Ar  114   2.733   5.105   1.140
    1   AR   Ar  115   3.297   4.739   0.132
    1   AR   Ar  116   4.045   6.918  -0.216
    1   AR   Ar  117   1.270   4.906   3.397
    1   AR   Ar  118   1.349   6.085   2.639
    1   AR   Ar  119   1.937   4.372   2.667
    1   AR   Ar  120   1.885   5.262   2.230
    1   AR   Ar  121   6.505   4.471   3.921
    1   AR   Ar  122   2.907   6.137   4.077
    1   AR   Ar  123   2.204   5.168   4.274
    1   AR   Ar  124   2.230   5.843   3.136
    1   AR   Ar  125   0.393   4.683   4.603
    1   AR   Ar  126   0.902   6.530   6.043
    1   AR   Ar  127   2.335   5.347   7.423
    1   AR   Ar  128   2.225   6.292   6.198
    1   AR   Ar  129   2.207   7.113   1.234
    1   AR   Ar  130   4.791   7.067  -1.828
    1   AR   Ar  131   4.675   6.166   0.562
    1   AR   Ar  132   6.179   2.390  -1.187
    1   AR   Ar  133   3.466   0.429   2.404
    1   AR   Ar  134   4.172   1.387   2.571
    1   AR   Ar  135   4.626   0.405   2.857
    1   AR   Ar  136   4.205   0.735   1.725
    1   AR   Ar  137   2.863   0.030   3.241
    1   AR   Ar  138   4.846   1.223   5.113
    1   AR   Ar  139   5.312   0.309   3.959
    1   AR   Ar  140   4.454   1.002   3.789
    1   AR   Ar  141   3.936   0.046   4.328
    1   AR   Ar  142   4.221   7.094   5.512
    1   AR   Ar  143   5.545   6.818   6.166
    1   AR   Ar  144   5.017   0.862   7.088
    1   AR   Ar  145   3.227   3.306   0.380
    1   AR   Ar  146   4.320   3.044   1.262
    1   AR   Ar  147   5.385   2.282  -0.069
    1   AR   Ar  148   5.941   3.385  -1.816
    1   AR   Ar  149   4.658   1.547   0.778
    1   AR   Ar  150   3.065   1.508   2.630
    1   AR   Ar  151   3.701   1.727   3.414
    1   AR   Ar  152   2.596   2.456   2.092
    1   AR   Ar  153   2.923   1.015   4.288
    1   AR   Ar  154   3.849   2.225   4.538
    1   AR   Ar  155   5.917   0.771   5.862
    1   AR   Ar  156   4.407   3.486   3.785
    1   AR   Ar  157   3.889   1.773   5.533
    1   AR   Ar  158   2.363   1.934   6.121
    1   AR   Ar  159   4.685   0.963   6.020
    1   AR   Ar  160   4.456   2.800   6.001
    1   AR   Ar  161   4.817   3.319  -0.102
    1   AR   Ar  162   4.503   5.141   0.590
    1   AR   Ar  163   5.910   3.307  -0.364
    1   AR   Ar  164   5.285   5.319   1.296
    1   AR   Ar  165   3.318   3.524   2.724
    1   AR   Ar  166   2.875   4.866   2.946
    1   AR   Ar  167   4.655   3.037   2.813
    1   AR   Ar  168   4.071   4.104   0.419
    1   AR   Ar  169   2.793   2.339   3.237
    1   AR   Ar  170   3.233   4.244   4.319
    1   AR   Ar  171   4.129   3.506   4.799
    1   AR   Ar  172   4.607   4.480   4.229
    1   AR   Ar  173   3.249   2.839   5.912
    1   AR   Ar  174   4.229   5.068   6.048
    1   AR   Ar  175   4.433   3.946   6.212
    1   AR   Ar  176   3.086   5.403   4.958
    1   AR   Ar  177   5.680   5.547  -0.259
    1   AR   Ar  178   4.185   6.875   1.344
    1   AR   Ar  179   3.659   5.698   1.243
    1   AR   Ar  180   4.182   4.630  -0.607
    1   AR   Ar  181   2.953   5.672   2.272
    1   AR   Ar  182   2.369   6.657   2.265
    1   AR   Ar  183   3.464   4.675   1.830
    1   AR   Ar  184   4.290   5.934   2.062
    1   AR   Ar  185   1.178   5.828   4.063
    1   AR   Ar  186   3.587   5.351   3.786
    1   AR   Ar  187   4.704   5.291   3.485
    1   AR   Ar  188   3.501   6.196   3.029
    1   AR   Ar  189   2.621   5.069   5.914
    1   AR   Ar  190   3.975   6.085   6.325
    1   AR   Ar  191   5.163   6.280   5.349
    1   AR   Ar  192   4.087   6.116   4.809
    1   AR   Ar  193   6.195   6.938  -0.410
    1   AR   Ar  194   5.122   0.232  -0.356
    1   AR   Ar  195   5.687   1.079   0.323
    1   AR   Ar  196   6.214   1.453  -0.575
    1   AR   Ar  197   4.860   0.197   0.579
    1   AR   Ar  198   5.864   0.963   1.754
    1   AR   Ar  199   5.163   0.297   1.906
    1   AR   Ar  200   6.230   2.029   1.002
    1   AR   Ar  201   5.035   6.350   2.742
    1   AR   Ar  202   5.407   1.569   3.671
    1   AR   Ar  203   0.218   6.974   4.414
    1   AR   Ar  204   5.735   0.376   2.939
    1   AR   Ar  205   6.458   6.802   3.886
    1   AR   Ar  206   5.315   0.180   5.063
    1   AR   Ar  207   0.316   0.255   5.632
    1   AR   Ar  208   6.551   0.675   3.609
    1   AR   Ar  209   6.916   2.655  -2.065
    1   AR   Ar  210   4.991   2.294   1.607
    1   AR   Ar  211   6.649   2.406  -0.060
    1   AR   Ar  212   6.259   4.340  -0.432
    1   AR   Ar  213   3.783   2.534   2.453
    1   AR   Ar  214   4.331   3.746   1.969
    1   AR   Ar  215   6.008   2.139   2.014
    1   AR   Ar  216   6.452   3.588   1.740
    1   AR   Ar  217   5.176   2.656   3.907
    1   AR   Ar  218   4.968   2.401   5.112
    1   AR   Ar  219   5.225   1.278   2.553
    1   AR   Ar  220   6.172   3.490   3.270
    1   AR   Ar  221   6.480   0.138   5.041
    1   AR   Ar  222   5.126   1.904   6.136
    1   AR   Ar  223   6.119   0.902   7.022
    1   AR   Ar  224   5.682   3.089   5.448
    1   AR   Ar  225   5.051   4.241   0.155
    1   AR   Ar  226   4.759   4.799   2.550
    1   AR   Ar  227   6.751   4.639   1.123
    1   AR   Ar  228   6.139   5.640   0.633
    1   AR   Ar  229   6.052   3.962   0.596
    1   AR   Ar  230   3.884   4.272   3.272
    1   AR   Ar  231   6.661   2.659   2.962
    1   AR   Ar  232   5.246   4.035   1.312
    1   AR   Ar  233   5.942   2.343   4.664
    1   AR   Ar  234   6.022   4.115   4.844
    1   AR   Ar  235   6.535   3.305   4.325
    1   AR   Ar  236   5.299   3.983   3.697
    1   AR   Ar  237   5.208   3.450   4.618
    1   AR   Ar  238   5.108   4.383   5.423
    1   AR   Ar  239   6.144   4.265   7.515
    1   AR   Ar  240   6.180   4.194   5.897
    1   AR   Ar  241   6.591   0.635   0.234
    1   AR   Ar  242   5.132   6.348   1.424
    1   AR   Ar  243   5.914   4.479   2.046
    1   AR   Ar  244   6.910   6.096  -0.152
    1   AR   Ar  245   5.572   5.563   2.327
    1   AR   Ar  246   6.249   6.466   1.903
    1   AR   Ar  247   5.341   3.191   2.091
    1   AR   Ar  248   5.969   0.020   1.112
    1   AR   Ar  249   5.875   4.902   3.096
    1   AR   Ar  250   5.176   6.392   4.138
    1   AR   Ar  251   5.679   5.224   4.609
    1   AR   Ar  252   5.798   5.841   3.467
    1   AR   Ar  253   5.541   5.339   5.705
    1   AR   Ar  254   5.024   5.983   6.655
    1   AR   Ar  255   5.132   4.655   6.641
    1   AR   Ar  256   6.159   6.175   4.705
    7.12000  7.12000 12.00000
Argon-slab step 1245
  256
    1   AR   Ar    1   0.560   0.815  -0.885
    1   AR   Ar    2   6.745   0.889   1.251
    1   AR   Ar    3   0.312   6.764   0.478
    1   AR   Ar    4   0.934   0.520   0.097
    1   AR   Ar    5   7.085   5.914   1.050
    1   AR   Ar    6   0.592   0.310   3.008
    1   AR   Ar    7   0.273   5.789   2.141
    1   AR   Ar    8   0.297   6.786   1.803
    1   AR   Ar    9   0.609   1.311   3.752
    1   AR   Ar   10   7.012   1.904   4.569
    1   AR   Ar   11   2.333   7.046   4.190
    1   AR   Ar   12   1.176   1.134   2.728
    1   AR   Ar   13   5.839   1.031   4.605
    1   AR   Ar   14   0.230   1.731   5.764
    1   AR   Ar   15   6.551   5.653   8.466
    1   AR   Ar   16   0.655   0.924   4.783
    1   AR   Ar   17   0.246   1.553  -0.172
    1   AR   Ar   18   6.837   3.425   0.340
    1   AR   Ar   19   0.400   1.501   0.826
    1   AR   Ar   20   1.054   3.120  -2.321
    1   AR   Ar   21   6.740   0.475   2.289
    1   AR   Ar   22   0.094   2.031   2.249
    1   AR   Ar   23   0.517   1.127   1.980
    1   AR   Ar   24   7.086   2.759   1.229
    1   AR   Ar   25   7.029   1.412   2.991
    1   AR   Ar   26   6.137   1.730   3.033
    1   AR   Ar   27   1.670   0.908   3.759
    1   AR   Ar   28   0.897   2.314   4.168
    1   AR   Ar   29   6.159   2.024   5.627
    1   AR   Ar   30   6.894   2.924   6.196
    1   AR   Ar   31   0.483   1.081   7.381
    1   AR   Ar   32   2.006   2.699   5.452
    1   AR   Ar   33   0.821   3.910  -1.638
    1   AR   Ar   34   0.704   5.021   1.247
    1   AR   Ar   35   0.365   3.855   1.320
    1   AR   Ar   36   1.824   6.889  -1.872
    1   AR   Ar   37   0.388   3.149   2.393
    1   AR   Ar   38   0.043   4.741   2.184
    1   AR   Ar   39   0.901   4.021   2.763
    1   AR   Ar   40   1.391   4.282   1.663
    1   AR   Ar   41   0.669   2.387   3.242
    1   AR   Ar   42   6.513   4.924   5.219
    1   AR   Ar   43   6.917   2.796   5.194
    1   AR   Ar   44   0.491   3.343   3.820
    1   AR   Ar   45   0.738   3.535   5.113
    1   AR   Ar   46   6.227   5.246   6.496
    1   AR   Ar   47   7.111   3.662   6.952
    1   AR   Ar   48   6.996   6.556   6.432
    1   AR   Ar   49   6.622   4.987  -1.647
    1   AR   Ar   50   6.328   5.411   1.657
    1   AR   Ar   51   1.292   4.569   0.632
    1   AR   Ar   52   0.377   5.142   0.304
    1   AR   Ar   53   6.577   5.830   2.870
    1   AR   Ar   54   0.207   6.479   3.191
    1   AR   Ar   55   0.269   5.350   3.426
    1   AR   Ar   56   1.101   6.125   1.164
    1   AR   Ar   57   6.984   3.995   2.877
    1   AR   Ar   58   0.250   5.906   4.371
    1   AR   Ar   59   2.034   5.829   5.316
    1   AR   Ar   60   1.105   6.968   3.993
    1   AR   Ar   61   6.264   6.127   5.804
    1   AR   Ar   62   0.192   6.282   5.326
    1   AR   Ar   63   1.349   5.101   5.964
    1   AR   Ar   64   1.357   6.715   5.093
    1   AR   Ar   65   2.876   0.120   0.048
    1   AR   Ar   66   1.685   0.835   1.630
    1   AR   Ar   67   3.106   6.191   0.557
    1   AR   Ar   68   3.751   0.808  -0.568
    1   AR   Ar   69   1.480   6.719   0.238
    1   AR   Ar   70   1.309   7.087   2.328
    1   AR   Ar   71   2.996   0.709   1.417
    1   AR   Ar   72   3.809   0.459   0.674
    1   AR   Ar   73   1.877   6.861   3.238
    1   AR   Ar   74   1.789   0.840   4.808
    1   AR   Ar   75   3.257   0.416   5.201
    1   AR   Ar   76   2.284   0.618   2.468
    1   AR   Ar   77   2.292   0.149   5.576
    1   AR   Ar   78   1.295   0.439   5.705
    1   AR   Ar   79   4.586   7.065   6.500
    1   AR   Ar   80   2.876   6.411   5.168
    1   AR   Ar   81   1.894   1.116   0.274
    1   AR   Ar   82   0.821   3.569   0.450
    1   AR   Ar   83   2.350   1.589   1.069
    1   AR   Ar   84   2.250   3.503  -3.278
    1   AR   Ar   85   1.055   2.574   0.555
    1   AR   Ar   86   1.885   3.259   2.139
    1   AR   Ar   87   2.209   1.549   2.061
    1   AR   Ar   88   3.075   3.398   1.473
    1   AR   Ar   89   1.130   2.026   2.093
    1   AR   Ar   90   2.467   1.795   5.057
    1   AR   Ar   91   2.035   2.201   3.869
    1   AR   Ar   92   1.786   1.884   2.942
    1   AR   Ar   93   1.406   1.731   5.412
    1   AR   Ar   94   2.979   0.767   8.194
    1   AR   Ar   95   3.171   7.010   6.350
    1   AR   Ar   96   2.283   0.880   6.278
    1   AR   Ar   97   2.892   2.736  -0.717
    1   AR   Ar   98   2.451   4.251   1.767
    1   AR   Ar   99   3.653   2.869  -1.512
    1   AR   Ar  100   1.975   4.326  -0.564
    1   AR   Ar  101   1.087   3.041   1.486
    1   AR   Ar  102   2.384   3.964   3.617
    1   AR   Ar  103   1.886   3.670   0.813
    1   AR   Ar  104   2.999   3.925  -0.440
    1   AR   Ar  105   1.834   3.126   3.157
    1   AR   Ar  106   2.348   3.087   4.521
    1   AR   Ar  107   2.761   4.230   5.339
    1   AR   Ar  108   3.126   3.025   3.857
    1   AR   Ar  109   1.535   3.706   4.500
    1   AR   Ar  110   1.407   4.789   4.933
    1   AR   Ar  111   4.161   4.667   7.064
    1   AR   Ar  112   1.585   4.103   5.905
    1   AR   Ar  113   2.409   4.416   0.371
    1   AR   Ar  114   2.731   5.107   1.159
    1   AR   Ar  115   3.278   4.752   0.099
    1   AR   Ar  116   4.051   6.897  -0.188
    1   AR   Ar  117   1.297   4.907   3.428
    1   AR   Ar  118   1.360   6.099   2.648
    1   AR   Ar  119   1.978   4.369   2.689
    1   AR   Ar  120   1.899   5.254   2.231
    1   AR   Ar  121   6.496   4.497   3.888
    1   AR   Ar  122   2.888   6.128   4.086
    1   AR   Ar  123   2.183   5.158   4.291
    1   AR   Ar  124   2.252   5.844   3.176
    1   AR   Ar  125   0.387   4.671   4.594
    1   AR   Ar  126   0.941   6.516   6.047
    1   AR   Ar  127   2.333   5.347   7.415
    1   AR   Ar  128   2.202   6.278   6.211
    1   AR   Ar  129   2.182   7.108   1.224
    1   AR   Ar  130   4.763   7.071  -1.813
    1   AR   Ar  131   4.676   6.213   0.583
    1   AR   Ar  132   6.210   2.378  -1.165
    1   AR   Ar  133   3.451   0.442   2.367
    1   AR   Ar  134   4.171   1.368   2.571
    1   AR   Ar  135   4.645   0.431   2.833
    1   AR   Ar  136   4.190   0.716   1.720
    1   AR   Ar  137   2.864   0.047   3.200
    1   AR   Ar  138   4.875   1.223   5.096
    1   AR   Ar  139   5.330   0.311   3.969
    1   AR   Ar  140   4.443   0.989   3.811
    1   AR   Ar  141   3.952   0.024   4.337
    1   AR   Ar  142   4.235   7.061   5.540
    1   AR   Ar  143   5.539   6.821   6.157
    1   AR   Ar  144   5.007   0.863   7.073
    1   AR   Ar  145   3.198   3.297   0.361
    1   AR   Ar  146   4.365   3.057   1.263
    1   AR   Ar  147   5.378   2.292  -0.040
    1   AR   Ar  148   5.958   3.391  -1.826
    1   AR   Ar  149   4.636   1.525   0.797
    1   AR   Ar  150   3.033   1.546   2.633
    1   AR   Ar  151   3.696   1.728   3.406
    1   AR   Ar  152   2.621   2.455   2.076
    1   AR   Ar  153   2.945   0.997   4.283
    1   AR   Ar  154   3.840   2.208   4.532
    1   AR   Ar  155   5.917   0.766   5.835
    1   AR   Ar  156   4.399   3.473   3.769
    1   AR   Ar  157   3.891   1.758   5.534
    1   AR   Ar  158   2.335   1.926   6.125
    1   AR   Ar  159   4.676   0.936   6.045
    1   AR   Ar  160   4.452   2.790   6.026
    1   AR   Ar  161   4.846   3.303  -0.097
    1   AR   Ar  162   4.512   5.151   0.583
    1   AR   Ar  163   5.922   3.326  -0.380
    1   AR   Ar  164   5.274   5.302   1.333
    1   AR   Ar  165   3.318   3.520   2.744
    1   AR   Ar  166   2.880   4.872   2.962
    1   AR   Ar  167   4.650   3.049   2.778
    1   AR   Ar  168   4.084   4.106   0.413
    1   AR   Ar  169   2.769   2.336   3.252
    1   AR   Ar  170   3.240   4.247   4.312
    1   AR   Ar  171   4.155   3.506   4.792
    1   AR   Ar  172   4.595   4.483   4.233
    1   AR   Ar  173   3.228   2.822   5.932
    1   AR   Ar  174   4.196   5.073   6.047
    1   AR   Ar  175   4.447   3.970   6.231
    1   AR   Ar  176   3.117   5.428   4.952
    1   AR   Ar  177   5.668   5.602  -0.294
    1   AR   Ar  178   4.164   6.868   1.352
    1   AR   Ar  179   3.673   5.692   1.220
    1   AR   Ar  180   4.137   4.620  -0.616
    1   AR   Ar  181   2.923   5.684   2.260
    1   AR   Ar  182   2.396   6.645   2.225
    1   AR   Ar  183   3.454   4.663   1.845
    1   AR   Ar  184   4.279   5.925   2.060
    1   AR   Ar  185   1.180   5.846   4.082
    1   AR   Ar  186   3.583   5.359   3.782
    1   AR   Ar  187   4.705   5.294   3.495
    1   AR   Ar  188   3.525   6.200   3.018
    1   AR   Ar  189   2.630   5.079   5.911
    1   AR   Ar  190   4.027   6.089   6.298
    1   AR   Ar  191   5.178   6.271   5.343
    1   AR   Ar  192   4.092   6.121   4.797
    1   AR   Ar  193   6.231   6.932  -0.417
    1   AR   Ar  194   5.135   0.229  -0.340
    1   AR   Ar  195   5.690   1.060   0.347
    1   AR   Ar  196   6.215   1.463  -0.582
    1   AR   Ar  197   4.879   0.189   0.561
    1   AR   Ar  198   5.875   0.958   1.752
    1   AR   Ar  199   5.147   0.321   1.914
    1   AR   Ar  200   6.240   2.008   0.995
    1   AR   Ar  201   5.041   6.319   2.768
    1   AR   Ar  202   5.392   1.569   3.690
    1   AR   Ar  203   0.207   6.973   4.430
    1   AR   Ar  204   5.729   0.395   2.932
    1   AR   Ar  205   6.424   6.792   3.878
    1   AR   Ar  206   5.319   0.193   5.059
    1   AR   Ar  207   0.307   0.269   5.633
    1   AR   Ar  208   6.565   0.645   3.614
    1   AR   Ar  209   6.890   2.629  -2.095
    1   AR   Ar  210   5.021   2.261   1.603
    1   AR   Ar  211   6.667   2.433  -0.071
    1   AR   Ar  212   6.286   4.364  -0.452
    1   AR   Ar  213   3.794   2.538   2.461
    1   AR   Ar  214   4.316   3.744   1.971
    1   AR   Ar  215   5.996   2.150   2.040
    1   AR   Ar  216   6.426   3.599   1.743
    1   AR   Ar  217   5.160   2.669   3.892
    1   AR   Ar  218   4.962   2.395   5.128
    1   AR   Ar  219   5.234   1.285   2.553
    1   AR   Ar  220   6.141   3.468   3.253
    1   AR   Ar  221   6.487   0.149   5.041
    1   AR   Ar  222   5.159   1.922   6.110
    1   AR   Ar  223   6.137   0.905   7.011
    1   AR   Ar  224   5.708   3.061   5.470
    1   AR   Ar  225   5.052   4.231   0.145
    1   AR   Ar  226   4.758   4.818   2.556
    1   AR   Ar  227   6.759   4.645   1.077
    1   AR   Ar  228   6.122   5.677   0.635
    1   AR   Ar  229   6.038   3.981   0.584
    1   AR   Ar  230   3.866   4.278   3.269
    1   AR   Ar  231   6.636   2.644   2.923
    1   AR   Ar  232   5.225   4.037   1.300
    1   AR   Ar  233   5.969   2.316   4.623
    1   AR   Ar  234   6.021   4.063   4.849
    1   AR   Ar  235   6.523   3.317   4.312
    1   AR   Ar  236   5.304   4.016   3.687
    1   AR   Ar  237   5.219   3.465   4.634
    1   AR   Ar  238   5.079   4.375   5.414
    1   AR   Ar  239   6.120   4.296   7.494
    1   AR   Ar  240   6.167   4.245   5.889
    1   AR   Ar  241   6.598   0.629   0.248
    1   AR   Ar  242   5.154   6.348   1.433
    1   AR   Ar  243   5.932   4.498   2.072
    1   AR   Ar  244   6.897   6.067  -0.143
    1   AR   Ar  245   5.545   5.556   2.331
    1   AR   Ar  246   6.246   6.436   1.893
    1   AR   Ar  247   5.362   3.175   2.052
    1   AR   Ar  248   5.976   0.017   1.087
    1   AR   Ar  249   5.917   4.923   3.111
    1   AR   Ar  250   5.146   6.374   4.152
    1   AR   Ar  251   5.653   5.253   4.600
    1   AR   Ar  252   5.796   5.841   3.461
    1   AR   Ar  253   5.550   5.319   5.698
    1   AR   Ar  254   5.032   5.984   6.623
    1   AR   Ar  255   5.138   4.667   6.642
    1   AR   Ar  256   6.155   6.209   4.682
    7.12000  7.12000 12.00000
Argon-slab step 1250
  256
    1   AR   Ar    1   0.530   0.811  -0.891
    1   AR   Ar    2   6.759   0.890   1.254
    1   AR   Ar    3   0.305   6.765   0.468
    1   AR   Ar    4   0.954   0.504   0.094
    1   AR   Ar    5   7.097   5.926   1.071
    1   AR   Ar    6   0.592   0.326   2.994
    1   AR   Ar    7   0.244   5.744   2.123
    1   AR   Ar    8   0.286   6.769   1.811
    1   AR   Ar    9   0.622   1.258   3.728
    1   AR   Ar   10   7.013   1.898   4.558
    1   AR   Ar   11   2.328   7.056   4.198
    1   AR   Ar   12   1.132   1.136   2.704
    1   AR   Ar   13   5.793   1.013   4.559
    1   AR   Ar   14   0.195   1.749   5.731
    1   AR   Ar   15   6.530   5.624   8.447
    1   AR   Ar   16   0.639   0.893   4.774
    1   AR   Ar   17   0.225   1.561  -0.168
    1   AR   Ar   18   6.846   3.440   0.321
    1   AR   Ar   19   0.385   1.524   0.815
    1   AR   Ar   20   1.051   3.078  -2.304
    1   AR   Ar   21   6.758   0.504   2.278
    1   AR   Ar   22   0.107   2.055   2.246
    1   AR   Ar   23   0.512   1.123   1.961
    1   AR   Ar   24   7.081   2.771   1.228
    1   AR   Ar   25   7.037   1.400   3.028
    1   AR   Ar   26   6.132   1.717   3.028
    1   AR   Ar   27   1.716   0.919   3.776
    1   AR   Ar   28   0.920   2.360   4.171
    1   AR   Ar   29   6.164   2.020   5.659
    1   AR   Ar   30   6.913   2.927   6.200
    1   AR   Ar   31   0.482   1.082   7.398
    1   AR   Ar   32   2.011   2.692   5.483
    1   AR   Ar   33   0.858   3.894  -1.659
    1   AR   Ar   34   0.718   5.043   1.266
    1   AR   Ar   35   0.372   3.846   1.353
    1   AR   Ar   36   1.812   6.906  -1.885
    1   AR   Ar   37   0.379   3.156   2.362
    1   AR   Ar   38   0.061   4.719   2.213
    1   AR   Ar   39   0.906   4.030   2.761
    1   AR   Ar   40   1.421   4.288   1.670
    1   AR   Ar   41   0.697   2.381   3.261
    1   AR   Ar   42   6.528   4.878   5.230
    1   AR   Ar   43   6.921   2.793   5.200
    1   AR   Ar   44   0.500   3.312   3.811
    1   AR   Ar   45   0.757   3.543   5.100
    1   AR   Ar   46   6.210   5.257   6.479
    1   AR   Ar   47   0.013   3.687   7.008
    1   AR   Ar   48   6.979   6.580   6.415
    1   AR   Ar   49   6.607   5.007  -1.660
    1   AR   Ar   50   6.329   5.374   1.653
    1   AR   Ar   51   1.304   4.535   0.674
    1   AR   Ar   52   0.366   5.126   0.279
    1   AR   Ar   53   6.593   5.860   2.865
    1   AR   Ar   54   0.237   6.437   3.189
    1   AR   Ar   55   0.249   5.345   3.432
    1   AR   Ar   56   1.086   6.146   1.160
    1   AR   Ar   57   6.970   4.008   2.872
    1   AR   Ar   58   0.235   5.909   4.383
    1   AR   Ar   59   2.056   5.829   5.313
    1   AR   Ar   60   1.114   6.973   3.994
    1   AR   Ar   61   6.266   6.112   5.823
    1   AR   Ar   62   0.210   6.275   5.302
    1   AR   Ar   63   1.341   5.106   5.963
    1   AR   Ar   64   1.348   6.696   5.113
    1   AR   Ar   65   2.878   0.105   0.042
    1   AR   Ar   66   1.655   0.826   1.630
    1   AR   Ar   67   3.095   6.180   0.550
    1   AR   Ar   68   3.741   0.797  -0.592
    1   AR   Ar   69   1.485   6.716   0.229
    1   AR   Ar   70   1.317   7.081   2.289
    1   AR   Ar   71   2.973   0.700   1.410
    1   AR   Ar   72   3.783   0.440   0.686
    1   AR   Ar   73   1.868   6.822   3.226
    1   AR   Ar   74   1.745   0.854   4.794
    1   AR   Ar   75   3.253   0.409   5.208
    1   AR   Ar   76   2.254   0.620   2.451
    1   AR   Ar   77   2.322   0.151   5.582
    1   AR   Ar   78   1.335   0.424   5.702
    1   AR   Ar   79   4.596   7.060   6.513
    1   AR   Ar   80   2.855   6.434   5.203
    1   AR   Ar   81   1.869   1.114   0.285
    1   AR   Ar   82   0.841   3.567   0.434
    1   AR   Ar   83   2.355   1.604   1.065
    1   AR   Ar   84   2.266   3.514  -3.326
    1   AR   Ar   85   1.038   2.547   0.545
    1   AR   Ar   86   1.905   3.274   2.160
    1   AR   Ar   87   2.226   1.558   2.070
    1   AR   Ar   88   3.023   3.378   1.487
    1   AR   Ar   89   1.144   2.010   2.104
    1   AR   Ar   90   2.479   1.830   5.046
    1   AR   Ar   91   2.018   2.206   3.882
    1   AR   Ar   92   1.772   1.915   2.920
    1   AR   Ar   93   1.403   1.729   5.435
    1   AR   Ar   94   2.996   0.754   8.174
    1   AR   Ar   95   3.181   7.009   6.344
    1   AR   Ar   96   2.291   0.873   6.310
    1   AR   Ar   97   2.908   2.729  -0.677
    1   AR   Ar   98   2.455   4.253   1.741
    1   AR   Ar   99   3.639   2.885  -1.531
    1   AR   Ar  100   2.000   4.352  -0.561
    1   AR   Ar  101   1.069   3.031   1.469
    1   AR   Ar  102   2.382   3.950   3.619
    1   AR   Ar  103   1.862   3.632   0.773
    1   AR   Ar  104   2.988   3.928  -0.476
    1   AR   Ar  105   1.855   3.124   3.140
    1   AR   Ar  106   2.332   3.068   4.498
    1   AR   Ar  107   2.741   4.239   5.362
    1   AR   Ar  108   3.133   3.005   3.844
    1   AR   Ar  109   1.543   3.727   4.513
    1   AR   Ar  110   1.372   4.791   4.975
    1   AR   Ar  111   4.158   4.714   7.094
    1   AR   Ar  112   1.572   4.082   5.885
    1   AR   Ar  113   2.382   4.443   0.358
    1   AR   Ar  114   2.728   5.111   1.178
    1   AR   Ar  115   3.273   4.776   0.066
    1   AR   Ar  116   4.058   6.876  -0.157
    1   AR   Ar  117   1.326   4.909   3.460
    1   AR   Ar  118   1.363   6.104   2.632
    1   AR   Ar  119   1.982   4.370   2.727
    1   AR   Ar  120   1.894   5.258   2.224
    1   AR   Ar  121   6.489   4.520   3.858
    1   AR   Ar  122   2.868   6.120   4.094
    1   AR   Ar  123   2.164   5.149   4.306
    1   AR   Ar  124   2.278   5.842   3.217
    1   AR   Ar  125   0.379   4.659   4.584
    1   AR   Ar  126   0.982   6.502   6.053
    1   AR   Ar  127   2.331   5.348   7.405
    1   AR   Ar  128   2.180   6.268   6.228
    1   AR   Ar  129   2.159   7.101   1.212
    1   AR   Ar  130   4.735   7.074  -1.798
    1   AR   Ar  131   4.670   6.260   0.594
    1   AR   Ar  132   6.240   2.368  -1.143
    1   AR   Ar  133   3.433   0.453   2.334
    1   AR   Ar  134   4.170   1.350   2.569
    1   AR   Ar  135   4.660   0.455   2.812
    1   AR   Ar  136   4.178   0.704   1.711
    1   AR   Ar  137   2.869   0.063   3.160
    1   AR   Ar  138   4.905   1.226   5.071
    1   AR   Ar  139   5.341   0.311   3.981
    1   AR   Ar  140   4.433   0.976   3.833
    1   AR   Ar  141   3.968   0.003   4.347
    1   AR   Ar  142   4.247   7.026   5.563
    1   AR   Ar  143   5.537   6.829   6.148
    1   AR   Ar  144   4.998   0.864   7.058
    1   AR   Ar  145   3.169   3.288   0.345
    1   AR   Ar  146   4.356   3.059   1.275
    1   AR   Ar  147   5.373   2.300  -0.010
    1   AR   Ar  148   5.976   3.397  -1.835
    1   AR   Ar  149   4.615   1.502   0.817
    1   AR   Ar  150   3.007   1.579   2.634
    1   AR   Ar  151   3.678   1.760   3.392
    1   AR   Ar  152   2.670   2.461   2.056
    1   AR   Ar  153   2.965   0.977   4.279
    1   AR   Ar  154   3.831   2.191   4.525
    1   AR   Ar  155   5.901   0.752   5.803
    1   AR   Ar  156   4.389   3.458   3.752
    1   AR   Ar  157   3.894   1.744   5.535
    1   AR   Ar  158   2.307   1.919   6.129
    1   AR   Ar  159   4.666   0.905   6.075
    1   AR   Ar  160   4.447   2.780   6.050
    1   AR   Ar  161   4.872   3.276  -0.094
    1   AR   Ar  162   4.519   5.158   0.576
    1   AR   Ar  163   5.933   3.343  -0.395
    1   AR   Ar  164   5.264   5.281   1.368
    1   AR   Ar  165   3.317   3.514   2.762
    1   AR   Ar  166   2.887   4.876   2.980
    1   AR   Ar  167   4.644   3.062   2.749
    1   AR   Ar  168   4.065   4.095   0.400
    1   AR   Ar  169   2.750   2.332   3.250
    1   AR   Ar  170   3.248   4.250   4.304
    1   AR   Ar  171   4.179   3.506   4.789
    1   AR   Ar  172   4.576   4.488   4.242
    1   AR   Ar  173   3.208   2.804   5.950
    1   AR   Ar  174   4.178   5.069   6.053
    1   AR   Ar  175   4.460   3.992   6.247
    1   AR   Ar  176   3.148   5.449   4.943
    1   AR   Ar  177   5.654   5.657  -0.333
    1   AR   Ar  178   4.144   6.853   1.361
    1   AR   Ar  179   3.692   5.681   1.202
    1   AR   Ar  180   4.092   4.608  -0.622
    1   AR   Ar  181   2.894   5.696   2.245
    1   AR   Ar  182   2.439   6.688   2.221
    1   AR   Ar  183   3.445   4.652   1.862
    1   AR   Ar  184   4.270   5.917   2.060
    1   AR   Ar  185   1.197   5.862   4.097
    1   AR   Ar  186   3.580   5.364   3.777
    1   AR   Ar  187   4.708   5.299   3.508
    1   AR   Ar  188   3.548   6.203   3.007
    1   AR   Ar  189   2.636   5.094   5.911
    1   AR   Ar  190   4.076   6.097   6.270
    1   AR   Ar  191   5.190   6.261   5.333
    1   AR   Ar  192   4.097   6.126   4.786
    1   AR   Ar  193   6.265   6.927  -0.422
    1   AR   Ar  194   5.156   0.227  -0.350
    1   AR   Ar  195   5.685   1.045   0.374
    1   AR   Ar  196   6.218   1.471  -0.587
    1   AR   Ar  197   4.892   0.181   0.571
    1   AR   Ar  198   5.890   0.962   1.751
    1   AR   Ar  199   5.126   0.333   1.920
    1   AR   Ar  200   6.251   1.985   0.985
    1   AR   Ar  201   5.043   6.295   2.797
    1   AR   Ar  202   5.370   1.568   3.714
    1   AR   Ar  203   0.190   6.975   4.451
    1   AR   Ar  204   5.725   0.413   2.925
    1   AR   Ar  205   6.389   6.778   3.866
    1   AR   Ar  206   5.317   0.207   5.060
    1   AR   Ar  207   0.297   0.279   5.641
    1   AR   Ar  208   6.579   0.621   3.619
    1   AR   Ar  209   6.873   2.642  -2.098
    1   AR   Ar  210   5.050   2.224   1.599
    1   AR   Ar  211   6.684   2.458  -0.082
    1   AR   Ar  212   6.312   4.388  -0.471
    1   AR   Ar  213   3.802   2.540   2.469
    1   AR   Ar  214   4.300   3.752   1.984
    1   AR   Ar  215   5.986   2.161   2.069
    1   AR   Ar  216   6.401   3.608   1.745
    1   AR   Ar  217   5.144   2.681   3.876
    1   AR   Ar  218   4.950   2.390   5.142
    1   AR   Ar  219   5.245   1.295   2.553
    1   AR   Ar  220   6.104   3.451   3.239
    1   AR   Ar  221   6.491   0.159   5.041
    1   AR   Ar  222   5.193   1.939   6.083
    1   AR   Ar  223   6.156   0.910   6.994
    1   AR   Ar  224   5.738   3.035   5.495
    1   AR   Ar  225   5.063   4.234   0.137
    1   AR   Ar  226   4.757   4.835   2.559
    1   AR   Ar  227   6.768   4.651   1.031
    1   AR   Ar  228   6.105   5.715   0.639
    1   AR   Ar  229   6.018   4.003   0.575
    1   AR   Ar  230   3.850   4.288   3.267
    1   AR   Ar  231   6.616   2.627   2.882
    1   AR   Ar  232   5.203   4.038   1.289
    1   AR   Ar  233   5.995   2.290   4.579
    1   AR   Ar  234   5.991   4.044   4.858
    1   AR   Ar  235   6.512   3.328   4.297
    1   AR   Ar  236   5.299   4.031   3.706
    1   AR   Ar  237   5.225   3.478   4.648
    1   AR   Ar  238   5.050   4.366   5.403
    1   AR   Ar  239   6.097   4.328   7.472
    1   AR   Ar  240   6.150   4.291   5.889
    1   AR   Ar  241   6.613   0.619   0.258
    1   AR   Ar  242   5.183   6.354   1.454
    1   AR   Ar  243   5.948   4.518   2.098
    1   AR   Ar  244   6.882   6.036  -0.133
    1   AR   Ar  245   5.519   5.549   2.335
    1   AR   Ar  246   6.244   6.407   1.884
    1   AR   Ar  247   5.388   3.161   2.009
    1   AR   Ar  248   5.982   0.015   1.061
    1   AR   Ar  249   5.958   4.932   3.121
    1   AR   Ar  250   5.116   6.354   4.168
    1   AR   Ar  251   5.626   5.280   4.589
    1   AR   Ar  252   5.782   5.851   3.466
    1   AR   Ar  253   5.556   5.298   5.689
    1   AR   Ar  254   5.042   5.982   6.589
    1   AR   Ar  255   5.149   4.682   6.641
    1   AR   Ar  256   6.150   6.243   4.664
    7.12000  7.12000 12.00000
Argon-slab step 1255
  256
    1   AR   Ar    1   0.521   0.817  -0.914
    1   AR   Ar    2   6.779   0.892   1.256
    1   AR   Ar    3   0.298   6.769   0.460
    1   AR   Ar    4   0.970   0.490   0.091
    1   AR   Ar    5   7.109   5.936   1.092
    1   AR   Ar    6   0.587   0.339   2.983
    1   AR   Ar    7   0.245   5.738   2.115
    1   AR   Ar    8   0.274   6.753   1.818
    1   AR   Ar    9   0.641   1.205   3.710
    1   AR   Ar   10   7.015   1.891   4.546
    1   AR   Ar   11   2.320   7.026   4.220
    1   AR   Ar   12   1.099   1.138   2.690
    1   AR   Ar   13   5.773   1.014   4.534
    1   AR   Ar   14   0.160   1.767   5.697
    1   AR   Ar   15   6.509   5.595   8.428
    1   AR   Ar   16   0.662   0.912   4.771
    1   AR   Ar   17   0.201   1.569  -0.173
    1   AR   Ar   18   6.859   3.454   0.303
    1   AR   Ar   19   0.366   1.543   0.807
    1   AR   Ar   20   1.048   3.034  -2.290
    1   AR   Ar   21   6.776   0.533   2.270
    1   AR   Ar   22   0.117   2.067   2.261
    1   AR   Ar   23   0.496   1.115   1.929
    1   AR   Ar   24   7.076   2.784   1.228
    1   AR   Ar   25   7.058   1.380   3.059
    1   AR   Ar   26   6.112   1.706   3.024
    1   AR   Ar   27   1.763   0.930   3.784
    1   AR   Ar   28   0.956   2.366   4.168
    1   AR   Ar   29   6.171   2.016   5.689
    1   AR   Ar   30   6.931   2.931   6.209
    1   AR   Ar   31   0.480   1.082   7.415
    1   AR   Ar   32   2.015   2.690   5.512
    1   AR   Ar   33   0.895   3.880  -1.679
    1   AR   Ar   34   0.722   5.074   1.298
    1   AR   Ar   35   0.376   3.840   1.390
    1   AR   Ar   36   1.800   6.922  -1.898
    1   AR   Ar   37   0.370   3.162   2.329
    1   AR   Ar   38   0.080   4.702   2.234
    1   AR   Ar   39   0.915   4.040   2.759
    1   AR   Ar   40   1.447   4.291   1.683
    1   AR   Ar   41   0.717   2.365   3.261
    1   AR   Ar   42   6.551   4.848   5.228
    1   AR   Ar   43   6.924   2.788   5.198
    1   AR   Ar   44   0.508   3.284   3.802
    1   AR   Ar   45   0.768   3.550   5.093
    1   AR   Ar   46   6.195   5.266   6.467
    1   AR   Ar   47   0.034   3.713   7.064
    1   AR   Ar   48   6.966   6.606   6.398
    1   AR   Ar   49   6.593   5.027  -1.672
    1   AR   Ar   50   6.333   5.341   1.651
    1   AR   Ar   51   1.315   4.540   0.661
    1   AR   Ar   52   0.352   5.111   0.251
    1   AR   Ar   53   6.605   5.886   2.852
    1   AR   Ar   54   0.273   6.399   3.191
    1   AR   Ar   55   0.229   5.339   3.437
    1   AR   Ar   56   1.070   6.169   1.158
    1   AR   Ar   57   6.951   4.014   2.875
    1   AR   Ar   58   0.222   5.909   4.403
    1   AR   Ar   59   2.071   5.820   5.294
    1   AR   Ar   60   1.127   6.980   3.994
    1   AR   Ar   61   6.267   6.097   5.836
    1   AR   Ar   62   0.226   6.274   5.289
    1   AR   Ar   63   1.334   5.118   5.966
    1   AR   Ar   64   1.341   6.674   5.123
    1   AR   Ar   65   2.880   0.091   0.037
    1   AR   Ar   66   1.618   0.816   1.625
    1   AR   Ar   67   3.081   6.173   0.538
    1   AR   Ar   68   3.733   0.784  -0.613
    1   AR   Ar   69   1.494   6.741   0.224
    1   AR   Ar   70   1.325   7.079   2.248
    1   AR   Ar   71   2.949   0.691   1.403
    1   AR   Ar   72   3.756   0.424   0.695
    1   AR   Ar   73   1.857   6.787   3.214
    1   AR   Ar   74   1.704   0.866   4.786
    1   AR   Ar   75   3.254   0.402   5.214
    1   AR   Ar   76   2.226   0.616   2.441
    1   AR   Ar   77   2.349   0.147   5.584
    1   AR   Ar   78   1.372   0.415   5.703
    1   AR   Ar   79   4.613   7.046   6.562
    1   AR   Ar   80   2.842   6.463   5.236
    1   AR   Ar   81   1.838   1.110   0.284
    1   AR   Ar   82   0.843   3.539   0.435
    1   AR   Ar   83   2.358   1.618   1.062
    1   AR   Ar   84   2.281   3.526  -3.373
    1   AR   Ar   85   1.021   2.514   0.534
    1   AR   Ar   86   1.926   3.293   2.171
    1   AR   Ar   87   2.229   1.567   2.071
    1   AR   Ar   88   2.972   3.357   1.501
    1   AR   Ar   89   1.158   1.998   2.110
    1   AR   Ar   90   2.492   1.863   5.032
    1   AR   Ar   91   1.991   2.210   3.909
    1   AR   Ar   92   1.761   1.951   2.903
    1   AR   Ar   93   1.400   1.727   5.458
    1   AR   Ar   94   3.012   0.740   8.155
    1   AR   Ar   95   3.191   7.008   6.335
    1   AR   Ar   96   2.298   0.866   6.345
    1   AR   Ar   97   2.925   2.724  -0.636
    1   AR   Ar   98   2.459   4.253   1.717
    1   AR   Ar   99   3.624   2.901  -1.550
    1   AR   Ar  100   2.021   4.378  -0.565
    1   AR   Ar  101   1.052   3.022   1.455
    1   AR   Ar  102   2.381   3.936   3.624
    1   AR   Ar  103   1.839   3.589   0.738
    1   AR   Ar  104   2.979   3.929  -0.515
    1   AR   Ar  105   1.876   3.118   3.133
    1   AR   Ar  106   2.318   3.046   4.477
    1   AR   Ar  107   2.721   4.251   5.370
    1   AR   Ar  108   3.149   2.996   3.837
    1   AR   Ar  109   1.555   3.753   4.518
    1   AR   Ar  110   1.339   4.791   5.013
    1   AR   Ar  111   4.198   4.654   7.080
    1   AR   Ar  112   1.586   4.088   5.893
    1   AR   Ar  113   2.351   4.469   0.357
    1   AR   Ar  114   2.726   5.118   1.196
    1   AR   Ar  115   3.277   4.808   0.035
    1   AR   Ar  116   4.066   6.857  -0.125
    1   AR   Ar  117   1.356   4.911   3.491
    1   AR   Ar  118   1.362   6.103   2.610
    1   AR   Ar  119   1.961   4.372   2.772
    1   AR   Ar  120   1.885   5.265   2.213
    1   AR   Ar  121   6.486   4.539   3.835
    1   AR   Ar  122   2.851   6.109   4.105
    1   AR   Ar  123   2.147   5.142   4.320
    1   AR   Ar  124   2.304   5.837   3.257
    1   AR   Ar  125   0.369   4.647   4.572
    1   AR   Ar  126   1.022   6.487   6.064
    1   AR   Ar  127   2.330   5.348   7.394
    1   AR   Ar  128   2.160   6.260   6.248
    1   AR   Ar  129   2.135   7.092   1.199
    1   AR   Ar  130   4.706   7.078  -1.782
    1   AR   Ar  131   4.660   6.304   0.598
    1   AR   Ar  132   6.271   2.363  -1.121
    1   AR   Ar  133   3.410   0.463   2.308
    1   AR   Ar  134   4.165   1.335   2.564
    1   AR   Ar  135   4.670   0.474   2.799
    1   AR   Ar  136   4.169   0.700   1.695
    1   AR   Ar  137   2.876   0.078   3.123
    1   AR   Ar  138   4.932   1.232   5.047
    1   AR   Ar  139   5.320   0.298   3.999
    1   AR   Ar  140   4.422   0.963   3.855
    1   AR   Ar  141   3.985   7.103   4.357
    1   AR   Ar  142   4.257   6.990   5.577
    1   AR   Ar  143   5.540   6.842   6.137
    1   AR   Ar  144   4.991   0.864   7.046
    1   AR   Ar  145   3.156   3.279   0.349
    1   AR   Ar  146   4.348   3.055   1.279
    1   AR   Ar  147   5.369   2.301  -0.020
    1   AR   Ar  148   5.982   3.395  -1.856
    1   AR   Ar  149   4.595   1.476   0.838
    1   AR   Ar  150   2.994   1.603   2.637
    1   AR   Ar  151   3.662   1.794   3.386
    1   AR   Ar  152   2.723   2.474   2.039
    1   AR   Ar  153   2.984   0.958   4.273
    1   AR   Ar  154   3.823   2.176   4.517
    1   AR   Ar  155   5.884   0.740   5.771
    1   AR   Ar  156   4.377   3.443   3.733
    1   AR   Ar  157   3.900   1.730   5.537
    1   AR   Ar  158   2.280   1.912   6.134
    1   AR   Ar  159   4.654   0.875   6.099
    1   AR   Ar  160   4.463   2.786   6.072
    1   AR   Ar  161   4.894   3.242  -0.092
    1   AR   Ar  162   4.524   5.163   0.567
    1   AR   Ar  163   5.946   3.358  -0.410
    1   AR   Ar  164   5.253   5.257   1.400
    1   AR   Ar  165   3.313   3.507   2.780
    1   AR   Ar  166   2.895   4.881   2.999
    1   AR   Ar  167   4.640   3.076   2.725
    1   AR   Ar  168   4.036   4.079   0.388
    1   AR   Ar  169   2.735   2.327   3.234
    1   AR   Ar  170   3.257   4.254   4.295
    1   AR   Ar  171   4.200   3.506   4.787
    1   AR   Ar  172   4.552   4.495   4.257
    1   AR   Ar  173   3.187   2.785   5.966
    1   AR   Ar  174   4.179   5.054   6.071
    1   AR   Ar  175   4.470   4.012   6.263
    1   AR   Ar  176   3.179   5.466   4.932
    1   AR   Ar  177   5.641   5.713  -0.372
    1   AR   Ar  178   4.125   6.830   1.372
    1   AR   Ar  179   3.710   5.673   1.192
    1   AR   Ar  180   4.048   4.596  -0.626
    1   AR   Ar  181   2.867   5.707   2.229
    1   AR   Ar  182   2.468   6.724   2.201
    1   AR   Ar  183   3.440   4.642   1.881
    1   AR   Ar  184   4.263   5.908   2.063
    1   AR   Ar  185   1.223   5.877   4.108
    1   AR   Ar  186   3.577   5.367   3.772
    1   AR   Ar  187   4.713   5.307   3.522
    1   AR   Ar  188   3.571   6.207   2.996
    1   AR   Ar  189   2.640   5.115   5.914
    1   AR   Ar  190   4.119   6.110   6.239
    1   AR   Ar  191   5.200   6.249   5.320
    1   AR   Ar  192   4.102   6.131   4.775
    1   AR   Ar  193   6.299   6.922  -0.426
    1   AR   Ar  194   5.182   0.226  -0.377
    1   AR   Ar  195   5.674   1.031   0.402
    1   AR   Ar  196   6.221   1.476  -0.587
    1   AR   Ar  197   4.900   0.175   0.603
    1   AR   Ar  198   5.904   0.973   1.752
    1   AR   Ar  199   5.106   0.336   1.922
    1   AR   Ar  200   6.263   1.961   0.974
    1   AR   Ar  201   5.040   6.279   2.830
    1   AR   Ar  202   5.345   1.565   3.741
    1   AR   Ar  203   0.172   6.979   4.472
    1   AR   Ar  204   5.725   0.429   2.917
    1   AR   Ar  205   6.353   6.763   3.846
    1   AR   Ar  206   5.320   0.210   5.060
    1   AR   Ar  207   0.283   0.286   5.648
    1   AR   Ar  208   6.594   0.604   3.624
    1   AR   Ar  209   6.856   2.655  -2.100
    1   AR   Ar  210   5.076   2.185   1.593
    1   AR   Ar  211   6.670   2.466  -0.096
    1   AR   Ar  212   6.338   4.413  -0.489
    1   AR   Ar  213   3.803   2.537   2.475
    1   AR   Ar  214   4.282   3.769   2.003
    1   AR   Ar  215   5.980   2.172   2.097
    1   AR   Ar  216   6.379   3.617   1.746
    1   AR   Ar  217   5.130   2.693   3.861
    1   AR   Ar  218   4.921   2.392   5.158
    1   AR   Ar  219   5.256   1.309   2.551
    1   AR   Ar  220   6.064   3.437   3.226
    1   AR   Ar  221   6.491   0.169   5.041
    1   AR   Ar  222   5.199   1.935   6.063
    1   AR   Ar  223   6.175   0.915   6.976
    1   AR   Ar  224   5.771   3.009   5.521
    1   AR   Ar  225   5.079   4.247   0.129
    1   AR   Ar  226   4.755   4.849   2.560
    1   AR   Ar  227   6.739   4.684   1.017
    1   AR   Ar  228   6.088   5.754   0.646
    1   AR   Ar  229   5.997   4.026   0.567
    1   AR   Ar  230   3.835   4.302   3.267
    1   AR   Ar  231   6.600   2.611   2.842
    1   AR   Ar  232   5.207   4.035   1.260
    1   AR   Ar  233   6.020   2.265   4.536
    1   AR   Ar  234   5.948   4.052   4.872
    1   AR   Ar  235   6.545   3.325   4.286
    1   AR   Ar  236   5.302   4.046   3.720
    1   AR   Ar  237   5.222   3.482   4.657
    1   AR   Ar  238   5.022   4.357   5.390
    1   AR   Ar  239   6.073   4.359   7.447
    1   AR   Ar  240   6.124   4.327   5.903
    1   AR   Ar  241   6.633   0.608   0.263
    1   AR   Ar  242   5.217   6.362   1.483
    1   AR   Ar  243   5.963   4.536   2.126
    1   AR   Ar  244   6.866   6.003  -0.122
    1   AR   Ar  245   5.500   5.539   2.340
    1   AR   Ar  246   6.243   6.380   1.877
    1   AR   Ar  247   5.416   3.150   1.964
    1   AR   Ar  248   5.988   0.015   1.035
    1   AR   Ar  249   5.943   4.940   3.104
    1   AR   Ar  250   5.084   6.334   4.186
    1   AR   Ar  251   5.598   5.306   4.577
    1   AR   Ar  252   5.762   5.869   3.481
    1   AR   Ar  253   5.557   5.275   5.679
    1   AR   Ar  254   5.057   5.977   6.555
    1   AR   Ar  255   5.165   4.700   6.638
    1   AR   Ar  256   6.144   6.271   4.656
    7.12000  7.12000 12.00000
Argon-slab step 1260
  256
    1   AR   Ar    1   0.512   0.823  -0.936
    1   AR   Ar    2   6.803   0.892   1.257
    1   AR   Ar    3   0.292   6.775   0.452
    1   AR   Ar    4   0.981   0.482   0.088
    1   AR   Ar    5   7.119   5.944   1.112
    1   AR   Ar    6   0.575   0.344   2.976
    1   AR   Ar    7   0.255   5.742   2.110
    1   AR   Ar    8   0.263   6.741   1.825
    1   AR   Ar    9   0.670   1.149   3.702
    1   AR   Ar   10   7.021   1.881   4.534
    1   AR   Ar   11   2.311   7.000   4.244
    1   AR   Ar   12   1.086   1.145   2.682
    1   AR   Ar   13   5.792   1.039   4.540
    1   AR   Ar   14   0.126   1.786   5.661
    1   AR   Ar   15   6.488   5.566   8.408
    1   AR   Ar   16   0.691   0.942   4.772
    1   AR   Ar   17   0.175   1.576  -0.186
    1   AR   Ar   18   6.873   3.469   0.286
    1   AR   Ar   19   0.350   1.564   0.808
    1   AR   Ar   20   1.045   2.988  -2.277
    1   AR   Ar   21   6.792   0.559   2.267
    1   AR   Ar   22   0.125   2.052   2.305
    1   AR   Ar   23   0.474   1.105   1.885
    1   AR   Ar   24   7.075   2.803   1.223
    1   AR   Ar   25   7.079   1.360   3.080
    1   AR   Ar   26   6.086   1.693   3.022
    1   AR   Ar   27   1.809   0.941   3.783
    1   AR   Ar   28   0.998   2.371   4.193
    1   AR   Ar   29   6.183   2.012   5.716
    1   AR   Ar   30   6.948   2.935   6.224
    1   AR   Ar   31   0.478   1.081   7.431
    1   AR   Ar   32   2.017   2.694   5.538
    1   AR   Ar   33   0.931   3.868  -1.697
    1   AR   Ar   34   0.721   5.107   1.337
    1   AR   Ar   35   0.378   3.838   1.427
    1   AR   Ar   36   1.788   6.938  -1.910
    1   AR   Ar   37   0.360   3.167   2.296
    1   AR   Ar   38   0.101   4.692   2.244
    1   AR   Ar   39   0.925   4.049   2.756
    1   AR   Ar   40   1.466   4.289   1.697
    1   AR   Ar   41   0.728   2.336   3.250
    1   AR   Ar   42   6.570   4.842   5.227
    1   AR   Ar   43   6.927   2.782   5.190
    1   AR   Ar   44   0.515   3.258   3.793
    1   AR   Ar   45   0.770   3.556   5.090
    1   AR   Ar   46   6.183   5.272   6.463
    1   AR   Ar   47   0.054   3.739   7.119
    1   AR   Ar   48   6.956   6.635   6.382
    1   AR   Ar   49   6.578   5.047  -1.684
    1   AR   Ar   50   6.336   5.335   1.660
    1   AR   Ar   51   1.326   4.555   0.630
    1   AR   Ar   52   0.337   5.096   0.225
    1   AR   Ar   53   6.610   5.907   2.833
    1   AR   Ar   54   0.318   6.367   3.197
    1   AR   Ar   55   0.211   5.329   3.443
    1   AR   Ar   56   1.053   6.191   1.157
    1   AR   Ar   57   6.967   4.019   2.871
    1   AR   Ar   58   0.204   5.900   4.404
    1   AR   Ar   59   2.079   5.804   5.264
    1   AR   Ar   60   1.141   6.988   3.993
    1   AR   Ar   61   6.265   6.082   5.841
    1   AR   Ar   62   0.241   6.280   5.296
    1   AR   Ar   63   1.328   5.137   5.976
    1   AR   Ar   64   1.336   6.650   5.122
    1   AR   Ar   65   2.884   0.076   0.033
    1   AR   Ar   66   1.575   0.809   1.616
    1   AR   Ar   67   3.065   6.170   0.525
    1   AR   Ar   68   3.724   0.769  -0.633
    1   AR   Ar   69   1.508   6.781   0.224
    1   AR   Ar   70   1.334   7.081   2.204
    1   AR   Ar   71   2.921   0.685   1.394
    1   AR   Ar   72   3.729   0.410   0.702
    1   AR   Ar   73   1.847   6.759   3.203
    1   AR   Ar   74   1.669   0.878   4.784
    1   AR   Ar   75   3.262   0.396   5.217
    1   AR   Ar   76   2.199   0.609   2.436
    1   AR   Ar   77   2.371   0.144   5.588
    1   AR   Ar   78   1.404   0.411   5.708
    1   AR   Ar   79   4.627   7.030   6.617
    1   AR   Ar   80   2.839   6.491   5.265
    1   AR   Ar   81   1.827   1.110   0.280
    1   AR   Ar   82   0.841   3.513   0.436
    1   AR   Ar   83   2.341   1.620   1.073
    1   AR   Ar   84   2.296   3.537  -3.421
    1   AR   Ar   85   1.003   2.475   0.521
    1   AR   Ar   86   1.943   3.319   2.162
    1   AR   Ar   87   2.214   1.575   2.061
    1   AR   Ar   88   2.924   3.337   1.514
    1   AR   Ar   89   1.171   1.991   2.105
    1   AR   Ar   90   2.505   1.894   5.015
    1   AR   Ar   91   1.959   2.211   3.941
    1   AR   Ar   92   1.754   1.990   2.896
    1   AR   Ar   93   1.397   1.723   5.479
    1   AR   Ar   94   3.028   0.727   8.135
    1   AR   Ar   95   3.200   7.006   6.322
    1   AR   Ar   96   2.304   0.858   6.382
    1   AR   Ar   97   2.948   2.729  -0.604
    1   AR   Ar   98   2.465   4.252   1.696
    1   AR   Ar   99   3.610   2.918  -1.567
    1   AR   Ar  100   2.035   4.404  -0.580
    1   AR   Ar  101   1.037   3.013   1.445
    1   AR   Ar  102   2.384   3.921   3.632
    1   AR   Ar  103   1.820   3.545   0.706
    1   AR   Ar  104   2.973   3.928  -0.555
    1   AR   Ar  105   1.895   3.107   3.140
    1   AR   Ar  106   2.304   3.024   4.458
    1   AR   Ar  107   2.700   4.265   5.366
    1   AR   Ar  108   3.171   2.994   3.834
    1   AR   Ar  109   1.572   3.785   4.518
    1   AR   Ar  110   1.309   4.789   5.044
    1   AR   Ar  111   4.235   4.596   7.071
    1   AR   Ar  112   1.608   4.099   5.907
    1   AR   Ar  113   2.323   4.495   0.369
    1   AR   Ar  114   2.724   5.130   1.211
    1   AR   Ar  115   3.282   4.844   0.008
    1   AR   Ar  116   4.073   6.839  -0.093
    1   AR   Ar  117   1.385   4.915   3.523
    1   AR   Ar  118   1.356   6.097   2.588
    1   AR   Ar  119   1.940   4.361   2.764
    1   AR   Ar  120   1.877   5.271   2.199
    1   AR   Ar  121   6.489   4.553   3.820
    1   AR   Ar  122   2.842   6.090   4.128
    1   AR   Ar  123   2.132   5.135   4.333
    1   AR   Ar  124   2.330   5.827   3.293
    1   AR   Ar  125   0.357   4.635   4.558
    1   AR   Ar  126   1.038   6.484   6.052
    1   AR   Ar  127   2.328   5.349   7.382
    1   AR   Ar  128   2.140   6.255   6.269
    1   AR   Ar  129   2.110   7.081   1.185
    1   AR   Ar  130   4.678   7.082  -1.765
    1   AR   Ar  131   4.648   6.339   0.600
    1   AR   Ar  132   6.301   2.362  -1.102
    1   AR   Ar  133   3.383   0.472   2.289
    1   AR   Ar  134   4.158   1.325   2.558
    1   AR   Ar  135   4.672   0.487   2.799
    1   AR   Ar  136   4.163   0.702   1.672
    1   AR   Ar  137   2.882   0.090   3.091
    1   AR   Ar  138   4.952   1.241   5.027
    1   AR   Ar  139   5.297   0.280   4.009
    1   AR   Ar  140   4.410   0.950   3.877
    1   AR   Ar  141   4.001   7.086   4.367
    1   AR   Ar  142   4.267   6.955   5.586
    1   AR   Ar  143   5.547   6.858   6.125
    1   AR   Ar  144   4.987   0.864   7.041
    1   AR   Ar  145   3.143   3.271   0.354
    1   AR   Ar  146   4.342   3.048   1.280
    1   AR   Ar  147   5.367   2.297  -0.040
    1   AR   Ar  148   5.969   3.383  -1.898
    1   AR   Ar  149   4.576   1.448   0.871
    1   AR   Ar  150   2.999   1.613   2.638
    1   AR   Ar  151   3.650   1.830   3.388
    1   AR   Ar  152   2.776   2.490   2.023
    1   AR   Ar  153   3.002   0.939   4.268
    1   AR   Ar  154   3.815   2.161   4.507
    1   AR   Ar  155   5.867   0.732   5.741
    1   AR   Ar  156   4.373   3.444   3.741
    1   AR   Ar  157   3.907   1.716   5.539
    1   AR   Ar  158   2.256   1.903   6.142
    1   AR   Ar  159   4.642   0.848   6.111
    1   AR   Ar  160   4.483   2.797   6.092
    1   AR   Ar  161   4.914   3.208  -0.089
    1   AR   Ar  162   4.543   5.155   0.582
    1   AR   Ar  163   5.960   3.373  -0.423
    1   AR   Ar  164   5.241   5.230   1.425
    1   AR   Ar  165   3.308   3.497   2.796
    1   AR   Ar  166   2.903   4.886   3.018
    1   AR   Ar  167   4.642   3.092   2.704
    1   AR   Ar  168   4.006   4.061   0.377
    1   AR   Ar  169   2.716   2.330   3.213
    1   AR   Ar  170   3.267   4.257   4.285
    1   AR   Ar  171   4.216   3.506   4.789
    1   AR   Ar  172   4.523   4.503   4.275
    1   AR   Ar  173   3.166   2.765   5.981
    1   AR   Ar  174   4.183   5.055   6.087
    1   AR   Ar  175   4.479   4.025   6.275
    1   AR   Ar  176   3.209   5.480   4.922
    1   AR   Ar  177   5.628   5.768  -0.411
    1   AR   Ar  178   4.107   6.802   1.386
    1   AR   Ar  179   3.707   5.687   1.205
    1   AR   Ar  180   4.008   4.581  -0.633
    1   AR   Ar  181   2.843   5.717   2.212
    1   AR   Ar  182   2.489   6.755   2.169
    1   AR   Ar  183   3.437   4.632   1.902
    1   AR   Ar  184   4.260   5.900   2.067
    1   AR   Ar  185   1.250   5.889   4.118
    1   AR   Ar  186   3.575   5.368   3.768
    1   AR   Ar  187   4.719   5.317   3.537
    1   AR   Ar  188   3.592   6.211   2.985
    1   AR   Ar  189   2.647   5.135   5.913
    1   AR   Ar  190   4.152   6.125   6.204
    1   AR   Ar  191   5.209   6.237   5.305
    1   AR   Ar  192   4.107   6.133   4.766
    1   AR   Ar  193   6.331   6.917  -0.429
    1   AR   Ar  194   5.210   0.225  -0.409
    1   AR   Ar  195   5.662   1.019   0.431
    1   AR   Ar  196   6.225   1.478  -0.582
    1   AR   Ar  197   4.907   0.175   0.643
    1   AR   Ar  198   5.916   0.988   1.754
    1   AR   Ar  199   5.092   0.331   1.914
    1   AR   Ar  200   6.274   1.935   0.964
    1   AR   Ar  201   5.030   6.271   2.866
    1   AR   Ar  202   5.318   1.563   3.767
    1   AR   Ar  203   0.155   6.985   4.490
    1   AR   Ar  204   5.729   0.445   2.910
    1   AR   Ar  205   6.320   6.749   3.814
    1   AR   Ar  206   5.347   0.184   5.054
    1   AR   Ar  207   0.269   0.292   5.655
    1   AR   Ar  208   6.611   0.592   3.628
    1   AR   Ar  209   6.839   2.668  -2.101
    1   AR   Ar  210   5.097   2.144   1.585
    1   AR   Ar  211   6.655   2.472  -0.109
    1   AR   Ar  212   6.364   4.438  -0.506
    1   AR   Ar  213   3.799   2.531   2.481
    1   AR   Ar  214   4.262   3.793   2.027
    1   AR   Ar  215   5.976   2.182   2.122
    1   AR   Ar  216   6.360   3.625   1.746
    1   AR   Ar  217   5.118   2.704   3.846
    1   AR   Ar  218   4.892   2.395   5.168
    1   AR   Ar  219   5.266   1.328   2.548
    1   AR   Ar  220   6.023   3.425   3.215
    1   AR   Ar  221   6.486   0.179   5.043
    1   AR   Ar  222   5.217   1.930   6.044
    1   AR   Ar  223   6.194   0.919   6.956
    1   AR   Ar  224   5.804   2.985   5.546
    1   AR   Ar  225   5.093   4.266   0.121
    1   AR   Ar  226   4.750   4.858   2.558
    1   AR   Ar  227   6.715   4.712   0.999
    1   AR   Ar  228   6.070   5.792   0.655
    1   AR   Ar  229   5.979   4.049   0.558
    1   AR   Ar  230   3.821   4.318   3.269
    1   AR   Ar  231   6.587   2.602   2.805
    1   AR   Ar  232   5.228   4.028   1.222
    1   AR   Ar  233   6.040   2.241   4.493
    1   AR   Ar  234   5.921   4.073   4.888
    1   AR   Ar  235   6.588   3.319   4.276
    1   AR   Ar  236   5.310   4.061   3.732
    1   AR   Ar  237   5.206   3.471   4.661
    1   AR   Ar  238   4.994   4.348   5.376
    1   AR   Ar  239   6.050   4.392   7.421
    1   AR   Ar  240   6.087   4.350   5.933
    1   AR   Ar  241   6.656   0.595   0.265
    1   AR   Ar  242   5.252   6.372   1.516
    1   AR   Ar  243   5.973   4.547   2.154
    1   AR   Ar  244   6.849   5.970  -0.110
    1   AR   Ar  245   5.488   5.530   2.345
    1   AR   Ar  246   6.244   6.355   1.870
    1   AR   Ar  247   5.444   3.140   1.919
    1   AR   Ar  248   5.993   0.015   1.010
    1   AR   Ar  249   5.925   4.946   3.092
    1   AR   Ar  250   5.053   6.315   4.206
    1   AR   Ar  251   5.570   5.331   4.564
    1   AR   Ar  252   5.740   5.890   3.501
    1   AR   Ar  253   5.554   5.251   5.664
    1   AR   Ar  254   5.082   5.967   6.522
    1   AR   Ar  255   5.187   4.723   6.633
    1   AR   Ar  256   6.134   6.292   4.662
    7.12000  7.12000 12.00000
Argon-slab step 1265
  256
    1   AR   Ar    1   0.502   0.828  -0.957
    1   AR   Ar    2   6.826   0.890   1.253
    1   AR   Ar    3   0.285   6.781   0.445
    1   AR   Ar    4   0.982   0.485   0.083
    1   AR   Ar    5   0.005   5.950   1.127
    1   AR   Ar    6   0.558   0.340   2.971
    1   AR   Ar    7   0.258   5.740   2.115
    1   AR   Ar    8   0.261   6.768   1.809
    1   AR   Ar    9   0.713   1.092   3.705
    1   AR   Ar   10   7.031   1.869   4.521
    1   AR   Ar   11   2.298   6.976   4.268
    1   AR   Ar   12   1.101   1.163   2.657
    1   AR   Ar   13   5.825   1.064   4.544
    1   AR   Ar   14   0.093   1.805   5.623
    1   AR   Ar   15   6.467   5.536   8.389
    1   AR   Ar   16   0.706   0.973   4.774
    1   AR   Ar   17   0.147   1.583  -0.205
    1   AR   Ar   18   6.887   3.486   0.271
    1   AR   Ar   19   0.337   1.588   0.817
    1   AR   Ar   20   1.042   2.939  -2.265
    1   AR   Ar   21   6.807   0.582   2.269
    1   AR   Ar   22   0.138   2.034   2.341
    1   AR   Ar   23   0.455   1.098   1.837
    1   AR   Ar   24   7.083   2.851   1.196
    1   AR   Ar   25   7.095   1.342   3.089
    1   AR   Ar   26   6.063   1.678   3.028
    1   AR   Ar   27   1.856   0.951   3.774
    1   AR   Ar   28   1.035   2.376   4.235
    1   AR   Ar   29   6.201   2.005   5.739
    1   AR   Ar   30   6.965   2.940   6.241
    1   AR   Ar   31   0.476   1.081   7.447
    1   AR   Ar   32   2.017   2.704   5.561
    1   AR   Ar   33   0.966   3.859  -1.713
    1   AR   Ar   34   0.718   5.140   1.377
    1   AR   Ar   35   0.378   3.840   1.464
    1   AR   Ar   36   1.776   6.955  -1.923
    1   AR   Ar   37   0.349   3.172   2.265
    1   AR   Ar   38   0.127   4.695   2.238
    1   AR   Ar   39   0.935   4.059   2.752
    1   AR   Ar   40   1.482   4.273   1.701
    1   AR   Ar   41   0.734   2.304   3.222
    1   AR   Ar   42   6.574   4.860   5.239
    1   AR   Ar   43   6.928   2.775   5.178
    1   AR   Ar   44   0.521   3.236   3.783
    1   AR   Ar   45   0.766   3.560   5.091
    1   AR   Ar   46   6.174   5.275   6.468
    1   AR   Ar   47   0.078   3.762   7.169
    1   AR   Ar   48   6.950   6.667   6.366
    1   AR   Ar   49   6.563   5.066  -1.694
    1   AR   Ar   50   6.334   5.365   1.685
    1   AR   Ar   51   1.321   4.591   0.621
    1   AR   Ar   52   0.323   5.082   0.201
    1   AR   Ar   53   6.606   5.924   2.812
    1   AR   Ar   54   0.315   6.328   3.181
    1   AR   Ar   55   0.191   5.324   3.450
    1   AR   Ar   56   1.037   6.215   1.157
    1   AR   Ar   57   6.985   4.012   2.877
    1   AR   Ar   58   0.183   5.884   4.391
    1   AR   Ar   59   2.082   5.784   5.231
    1   AR   Ar   60   1.154   6.999   3.994
    1   AR   Ar   61   6.264   6.058   5.832
    1   AR   Ar   62   0.255   6.293   5.319
    1   AR   Ar   63   1.323   5.162   5.995
    1   AR   Ar   64   1.334   6.627   5.107
    1   AR   Ar   65   2.856   0.048   0.033
    1   AR   Ar   66   1.610   0.780   1.603
    1   AR   Ar   67   3.048   6.168   0.510
    1   AR   Ar   68   3.715   0.752  -0.651
    1   AR   Ar   69   1.528   6.811   0.227
    1   AR   Ar   70   1.341   7.083   2.161
    1   AR   Ar   71   2.891   0.680   1.384
    1   AR   Ar   72   3.702   0.396   0.706
    1   AR   Ar   73   1.840   6.738   3.193
    1   AR   Ar   74   1.649   0.887   4.788
    1   AR   Ar   75   3.280   0.392   5.217
    1   AR   Ar   76   2.173   0.601   2.436
    1   AR   Ar   77   2.363   0.142   5.582
    1   AR   Ar   78   1.428   0.411   5.716
    1   AR   Ar   79   4.640   7.012   6.675
    1   AR   Ar   80   2.850   6.507   5.287
    1   AR   Ar   81   1.844   1.116   0.274
    1   AR   Ar   82   0.831   3.492   0.437
    1   AR   Ar   83   2.325   1.623   1.077
    1   AR   Ar   84   2.312   3.549  -3.468
    1   AR   Ar   85   0.984   2.432   0.508
    1   AR   Ar   86   1.953   3.351   2.135
    1   AR   Ar   87   2.187   1.584   2.049
    1   AR   Ar   88   2.879   3.322   1.521
    1   AR   Ar   89   1.178   1.989   2.086
    1   AR   Ar   90   2.519   1.923   4.996
    1   AR   Ar   91   1.933   2.205   3.972
    1   AR   Ar   92   1.751   2.029   2.901
    1   AR   Ar   93   1.407   1.733   5.479
    1   AR   Ar   94   3.044   0.714   8.115
    1   AR   Ar   95   3.211   7.004   6.308
    1   AR   Ar   96   2.311   0.849   6.419
    1   AR   Ar   97   2.982   2.748  -0.585
    1   AR   Ar   98   2.474   4.249   1.677
    1   AR   Ar   99   3.594   2.934  -1.584
    1   AR   Ar  100   2.043   4.429  -0.604
    1   AR   Ar  101   1.025   3.003   1.437
    1   AR   Ar  102   2.389   3.907   3.645
    1   AR   Ar  103   1.808   3.501   0.679
    1   AR   Ar  104   2.970   3.926  -0.593
    1   AR   Ar  105   1.912   3.093   3.156
    1   AR   Ar  106   2.293   3.005   4.442
    1   AR   Ar  107   2.678   4.274   5.358
    1   AR   Ar  108   3.188   2.995   3.836
    1   AR   Ar  109   1.594   3.821   4.512
    1   AR   Ar  110   1.281   4.783   5.065
    1   AR   Ar  111   4.268   4.542   7.069
    1   AR   Ar  112   1.631   4.108   5.918
    1   AR   Ar  113   2.302   4.519   0.390
    1   AR   Ar  114   2.723   5.145   1.225
    1   AR   Ar  115   3.282   4.884  -0.013
    1   AR   Ar  116   4.069   6.854  -0.091
    1   AR   Ar  117   1.385   4.905   3.539
    1   AR   Ar  118   1.346   6.088   2.565
    1   AR   Ar  119   1.921   4.346   2.741
    1   AR   Ar  120   1.858   5.264   2.184
    1   AR   Ar  121   6.498   4.562   3.813
    1   AR   Ar  122   2.836   6.073   4.155
    1   AR   Ar  123   2.117   5.129   4.346
    1   AR   Ar  124   2.331   5.818   3.276
    1   AR   Ar  125   0.343   4.624   4.542
    1   AR   Ar  126   1.046   6.483   6.042
    1   AR   Ar  127   2.327   5.350   7.369
    1   AR   Ar  128   2.120   6.250   6.288
    1   AR   Ar  129   2.086   7.069   1.170
    1   AR   Ar  130   4.650   7.086  -1.747
    1   AR   Ar  131   4.636   6.359   0.602
    1   AR   Ar  132   6.330   2.368  -1.088
    1   AR   Ar  133   3.389   0.463   2.321
    1   AR   Ar  134   4.145   1.322   2.550
    1   AR   Ar  135   4.670   0.493   2.811
    1   AR   Ar  136   4.158   0.710   1.645
    1   AR   Ar  137   2.886   0.098   3.068
    1   AR   Ar  138   4.962   1.253   5.013
    1   AR   Ar  139   5.273   0.259   4.013
    1   AR   Ar  140   4.397   0.936   3.899
    1   AR   Ar  141   4.018   7.073   4.376
    1   AR   Ar  142   4.274   6.921   5.588
    1   AR   Ar  143   5.556   6.877   6.111
    1   AR   Ar  144   4.989   0.865   7.045
    1   AR   Ar  145   3.129   3.265   0.360
    1   AR   Ar  146   4.337   3.038   1.279
    1   AR   Ar  147   5.372   2.286  -0.059
    1   AR   Ar  148   5.956   3.370  -1.939
    1   AR   Ar  149   4.558   1.418   0.911
    1   AR   Ar  150   3.018   1.606   2.633
    1   AR   Ar  151   3.645   1.867   3.396
    1   AR   Ar  152   2.828   2.500   2.014
    1   AR   Ar  153   3.019   0.920   4.262
    1   AR   Ar  154   3.819   2.149   4.527
    1   AR   Ar  155   5.851   0.729   5.717
    1   AR   Ar  156   4.368   3.450   3.754
    1   AR   Ar  157   3.916   1.702   5.541
    1   AR   Ar  158   2.234   1.893   6.152
    1   AR   Ar  159   4.626   0.823   6.110
    1   AR   Ar  160   4.493   2.810   6.111
    1   AR   Ar  161   4.930   3.180  -0.085
    1   AR   Ar  162   4.572   5.164   0.586
    1   AR   Ar  163   5.974   3.386  -0.436
    1   AR   Ar  164   5.227   5.215   1.418
    1   AR   Ar  165   3.301   3.487   2.811
    1   AR   Ar  166   2.911   4.891   3.036
    1   AR   Ar  167   4.648   3.107   2.688
    1   AR   Ar  168   3.976   4.044   0.367
    1   AR   Ar  169   2.692   2.344   3.196
    1   AR   Ar  170   3.277   4.262   4.275
    1   AR   Ar  171   4.222   3.507   4.794
    1   AR   Ar  172   4.491   4.511   4.295
    1   AR   Ar  173   3.145   2.743   5.995
    1   AR   Ar  174   4.188   5.082   6.102
    1   AR   Ar  175   4.487   4.030   6.280
    1   AR   Ar  176   3.237   5.490   4.914
    1   AR   Ar  177   5.629   5.775  -0.440
    1   AR   Ar  178   4.090   6.771   1.401
    1   AR   Ar  179   3.704   5.698   1.217
    1   AR   Ar  180   3.974   4.564  -0.643
    1   AR   Ar  181   2.822   5.726   2.196
    1   AR   Ar  182   2.471   6.762   2.178
    1   AR   Ar  183   3.437   4.624   1.924
    1   AR   Ar  184   4.237   5.936   2.058
    1   AR   Ar  185   1.277   5.897   4.126
    1   AR   Ar  186   3.574   5.367   3.765
    1   AR   Ar  187   4.726   5.329   3.554
    1   AR   Ar  188   3.618   6.217   2.972
    1   AR   Ar  189   2.663   5.132   5.889
    1   AR   Ar  190   4.176   6.140   6.167
    1   AR   Ar  191   5.216   6.223   5.291
    1   AR   Ar  192   4.112   6.132   4.759
    1   AR   Ar  193   6.363   6.911  -0.431
    1   AR   Ar  194   5.239   0.223  -0.442
    1   AR   Ar  195   5.649   1.007   0.462
    1   AR   Ar  196   6.228   1.475  -0.572
    1   AR   Ar  197   4.915   0.186   0.688
    1   AR   Ar  198   5.926   1.004   1.749
    1   AR   Ar  199   5.119   0.349   1.916
    1   AR   Ar  200   6.287   1.909   0.953
    1   AR   Ar  201   5.013   6.271   2.901
    1   AR   Ar  202   5.288   1.562   3.792
    1   AR   Ar  203   0.143   6.992   4.503
    1   AR   Ar  204   5.737   0.458   2.904
    1   AR   Ar  205   6.288   6.737   3.772
    1   AR   Ar  206   5.370   0.153   5.048
    1   AR   Ar  207   0.257   0.296   5.660
    1   AR   Ar  208   6.628   0.584   3.634
    1   AR   Ar  209   6.822   2.682  -2.101
    1   AR   Ar  210   5.114   2.102   1.575
    1   AR   Ar  211   6.639   2.478  -0.118
    1   AR   Ar  212   6.389   4.463  -0.520
    1   AR   Ar  213   3.791   2.521   2.486
    1   AR   Ar  214   4.241   3.821   2.050
    1   AR   Ar  215   5.972   2.190   2.138
    1   AR   Ar  216   6.341   3.629   1.740
    1   AR   Ar  217   5.109   2.712   3.831
    1   AR   Ar  218   4.862   2.400   5.172
    1   AR   Ar  219   5.271   1.349   2.540
    1   AR   Ar  220   5.982   3.414   3.204
    1   AR   Ar  221   6.475   0.190   5.046
    1   AR   Ar  222   5.230   1.922   6.029
    1   AR   Ar  223   6.211   0.923   6.934
    1   AR   Ar  224   5.837   2.964   5.568
    1   AR   Ar  225   5.101   4.288   0.109
    1   AR   Ar  226   4.741   4.863   2.557
    1   AR   Ar  227   6.703   4.724   0.972
    1   AR   Ar  228   6.052   5.830   0.666
    1   AR   Ar  229   5.974   4.070   0.546
    1   AR   Ar  230   3.810   4.336   3.271
    1   AR   Ar  231   6.574   2.603   2.778
    1   AR   Ar  232   5.232   4.027   1.176
    1   AR   Ar  233   6.055   2.220   4.451
    1   AR   Ar  234   5.907   4.103   4.904
    1   AR   Ar  235   6.629   3.314   4.265
    1   AR   Ar  236   5.317   4.080   3.740
    1   AR   Ar  237   5.186   3.448   4.660
    1   AR   Ar  238   4.965   4.339   5.361
    1   AR   Ar  239   6.054   4.411   7.449
    1   AR   Ar  240   6.043   4.364   5.972
    1   AR   Ar  241   6.681   0.581   0.264
    1   AR   Ar  242   5.283   6.382   1.549
    1   AR   Ar  243   5.980   4.549   2.182
    1   AR   Ar  244   6.832   5.936  -0.097
    1   AR   Ar  245   5.486   5.527   2.352
    1   AR   Ar  246   6.248   6.334   1.864
    1   AR   Ar  247   5.468   3.130   1.875
    1   AR   Ar  248   5.997   0.016   0.985
    1   AR   Ar  249   5.905   4.957   3.126
    1   AR   Ar  250   5.021   6.296   4.226
    1   AR   Ar  251   5.541   5.355   4.549
    1   AR   Ar  252   5.721   5.910   3.527
    1   AR   Ar  253   5.546   5.228   5.645
    1   AR   Ar  254   5.117   5.953   6.491
    1   AR   Ar  255   5.214   4.748   6.626
    1   AR   Ar  256   6.123   6.307   4.679
    7.12000  7.12000 12.00000
Argon-slab step 1270
  256
    1   AR   Ar    1   0.493   0.833  -0.977
    1   AR   Ar    2   6.837   0.883   1.240
    1   AR   Ar    3   0.279   6.788   0.438
    1   AR   Ar    4   0.972   0.499   0.076
    1   AR   Ar    5   0.006   5.955   1.138
    1   AR   Ar    6   0.537   0.330   2.965
    1   AR   Ar    7   0.230   5.723   2.147
    1   AR   Ar    8   0.258   6.798   1.794
    1   AR   Ar    9   0.763   1.035   3.716
    1   AR   Ar   10   7.047   1.854   4.508
    1   AR   Ar   11   2.284   6.956   4.293
    1   AR   Ar   12   1.120   1.177   2.638
    1   AR   Ar   13   5.870   1.086   4.547
    1   AR   Ar   14   0.066   1.822   5.585
    1   AR   Ar   15   6.482   5.526   8.387
    1   AR   Ar   16   0.698   1.004   4.778
    1   AR   Ar   17   0.118   1.588  -0.228
    1   AR   Ar   18   6.899   3.503   0.256
    1   AR   Ar   19   0.326   1.614   0.829
    1   AR   Ar   20   1.038   2.889  -2.254
    1   AR   Ar   21   6.816   0.601   2.277
    1   AR   Ar   22   0.156   2.014   2.368
    1   AR   Ar   23   0.440   1.094   1.827
    1   AR   Ar   24   7.090   2.898   1.168
    1   AR   Ar   25   7.099   1.324   3.099
    1   AR   Ar   26   6.050   1.662   3.043
    1   AR   Ar   27   1.864   0.935   3.784
    1   AR   Ar   28   1.053   2.383   4.288
    1   AR   Ar   29   6.206   1.992   5.756
    1   AR   Ar   30   6.980   2.944   6.259
    1   AR   Ar   31   0.473   1.081   7.462
    1   AR   Ar   32   2.015   2.720   5.579
    1   AR   Ar   33   1.002   3.851  -1.728
    1   AR   Ar   34   0.716   5.170   1.415
    1   AR   Ar   35   0.376   3.850   1.498
    1   AR   Ar   36   1.764   6.971  -1.935
    1   AR   Ar   37   0.336   3.173   2.239
    1   AR   Ar   38   0.142   4.708   2.207
    1   AR   Ar   39   0.941   4.066   2.747
    1   AR   Ar   40   1.485   4.257   1.704
    1   AR   Ar   41   0.740   2.270   3.191
    1   AR   Ar   42   6.582   4.884   5.248
    1   AR   Ar   43   6.928   2.767   5.165
    1   AR   Ar   44   0.527   3.215   3.773
    1   AR   Ar   45   0.759   3.563   5.094
    1   AR   Ar   46   6.168   5.282   6.486
    1   AR   Ar   47   0.122   3.769   7.201
    1   AR   Ar   48   6.945   6.700   6.349
    1   AR   Ar   49   6.548   5.085  -1.703
    1   AR   Ar   50   6.335   5.392   1.708
    1   AR   Ar   51   1.313   4.634   0.627
    1   AR   Ar   52   0.309   5.066   0.180
    1   AR   Ar   53   6.588   5.935   2.789
    1   AR   Ar   54   0.308   6.294   3.162
    1   AR   Ar   55   0.171   5.321   3.457
    1   AR   Ar   56   1.023   6.241   1.158
    1   AR   Ar   57   6.996   3.993   2.893
    1   AR   Ar   58   0.161   5.865   4.372
    1   AR   Ar   59   2.082   5.762   5.198
    1   AR   Ar   60   1.167   7.011   3.995
    1   AR   Ar   61   6.263   6.031   5.812
    1   AR   Ar   62   0.268   6.309   5.349
    1   AR   Ar   63   1.320   5.193   6.021
    1   AR   Ar   64   1.336   6.605   5.079
    1   AR   Ar   65   2.829   0.020   0.034
    1   AR   Ar   66   1.606   0.801   1.571
    1   AR   Ar   67   3.030   6.166   0.494
    1   AR   Ar   68   3.707   0.734  -0.667
    1   AR   Ar   69   1.556   6.829   0.234
    1   AR   Ar   70   1.346   7.082   2.120
    1   AR   Ar   71   2.858   0.676   1.374
    1   AR   Ar   72   3.677   0.384   0.708
    1   AR   Ar   73   1.834   6.724   3.184
    1   AR   Ar   74   1.653   0.894   4.794
    1   AR   Ar   75   3.305   0.390   5.215
    1   AR   Ar   76   2.149   0.596   2.443
    1   AR   Ar   77   2.348   0.153   5.581
    1   AR   Ar   78   1.437   0.416   5.728
    1   AR   Ar   79   4.651   6.992   6.732
    1   AR   Ar   80   2.875   6.505   5.302
    1   AR   Ar   81   1.861   1.120   0.268
    1   AR   Ar   82   0.815   3.473   0.437
    1   AR   Ar   83   2.312   1.626   1.071
    1   AR   Ar   84   2.327   3.560  -3.516
    1   AR   Ar   85   0.964   2.387   0.495
    1   AR   Ar   86   1.962   3.384   2.106
    1   AR   Ar   87   2.155   1.593   2.042
    1   AR   Ar   88   2.838   3.319   1.518
    1   AR   Ar   89   1.180   1.994   2.054
    1   AR   Ar   90   2.533   1.951   4.976
    1   AR   Ar   91   1.923   2.186   3.992
    1   AR   Ar   92   1.750   2.068   2.915
    1   AR   Ar   93   1.425   1.752   5.462
    1   AR   Ar   94   3.061   0.700   8.094
    1   AR   Ar   95   3.221   7.002   6.290
    1   AR   Ar   96   2.317   0.838   6.456
    1   AR   Ar   97   3.016   2.767  -0.568
    1   AR   Ar   98   2.487   4.248   1.661
    1   AR   Ar   99   3.600   2.943  -1.579
    1   AR   Ar  100   2.048   4.456  -0.631
    1   AR   Ar  101   1.018   2.993   1.429
    1   AR   Ar  102   2.396   3.894   3.658
    1   AR   Ar  103   1.804   3.458   0.655
    1   AR   Ar  104   2.970   3.921  -0.629
    1   AR   Ar  105   1.927   3.077   3.175
    1   AR   Ar  106   2.285   2.992   4.432
    1   AR   Ar  107   2.656   4.277   5.344
    1   AR   Ar  108   3.209   2.999   3.839
    1   AR   Ar  109   1.618   3.861   4.504
    1   AR   Ar  110   1.275   4.750   5.084
    1   AR   Ar  111   4.296   4.497   7.083
    1   AR   Ar  112   1.655   4.117   5.927
    1   AR   Ar  113   2.291   4.542   0.416
    1   AR   Ar  114   2.722   5.166   1.236
    1   AR   Ar  115   3.274   4.927  -0.025
    1   AR   Ar  116   4.062   6.872  -0.092
    1   AR   Ar  117   1.366   4.886   3.543
    1   AR   Ar  118   1.331   6.076   2.541
    1   AR   Ar  119   1.909   4.329   2.717
    1   AR   Ar  120   1.824   5.238   2.167
    1   AR   Ar  121   6.513   4.566   3.815
    1   AR   Ar  122   2.831   6.057   4.184
    1   AR   Ar  123   2.105   5.123   4.359
    1   AR   Ar  124   2.331   5.804   3.255
    1   AR   Ar  125   0.326   4.609   4.526
    1   AR   Ar  126   1.051   6.481   6.042
    1   AR   Ar  127   2.325   5.351   7.354
    1   AR   Ar  128   2.102   6.245   6.305
    1   AR   Ar  129   2.061   7.055   1.155
    1   AR   Ar  130   4.621   7.090  -1.729
    1   AR   Ar  131   4.627   6.363   0.606
    1   AR   Ar  132   6.343   2.370  -1.068
    1   AR   Ar  133   3.400   0.460   2.344
    1   AR   Ar  134   4.128   1.325   2.542
    1   AR   Ar  135   4.664   0.493   2.831
    1   AR   Ar  136   4.153   0.719   1.617
    1   AR   Ar  137   2.882   0.100   3.060
    1   AR   Ar  138   4.965   1.267   5.004
    1   AR   Ar  139   5.249   0.238   4.012
    1   AR   Ar  140   4.383   0.923   3.920
    1   AR   Ar  141   4.032   7.069   4.383
    1   AR   Ar  142   4.275   6.895   5.577
    1   AR   Ar  143   5.565   6.896   6.096
    1   AR   Ar  144   4.996   0.867   7.056
    1   AR   Ar  145   3.120   3.265   0.368
    1   AR   Ar  146   4.333   3.029   1.278
    1   AR   Ar  147   5.383   2.266  -0.078
    1   AR   Ar  148   5.943   3.357  -1.978
    1   AR   Ar  149   4.540   1.386   0.951
    1   AR   Ar  150   3.043   1.587   2.619
    1   AR   Ar  151   3.644   1.906   3.411
    1   AR   Ar  152   2.875   2.495   2.015
    1   AR   Ar  153   3.035   0.900   4.255
    1   AR   Ar  154   3.826   2.137   4.554
    1   AR   Ar  155   5.850   0.729   5.702
    1   AR   Ar  156   4.360   3.460   3.763
    1   AR   Ar  157   3.927   1.689   5.543
    1   AR   Ar  158   2.216   1.879   6.164
    1   AR   Ar  159   4.609   0.798   6.098
    1   AR   Ar  160   4.465   2.827   6.124
    1   AR   Ar  161   4.941   3.161  -0.081
    1   AR   Ar  162   4.608   5.204   0.563
    1   AR   Ar  163   5.989   3.400  -0.448
    1   AR   Ar  164   5.215   5.208   1.391
    1   AR   Ar  165   3.293   3.475   2.825
    1   AR   Ar  166   2.915   4.896   3.053
    1   AR   Ar  167   4.659   3.121   2.675
    1   AR   Ar  168   3.947   4.026   0.356
    1   AR   Ar  169   2.667   2.367   3.182
    1   AR   Ar  170   3.287   4.266   4.264
    1   AR   Ar  171   4.213   3.509   4.804
    1   AR   Ar  172   4.457   4.518   4.316
    1   AR   Ar  173   3.123   2.720   6.007
    1   AR   Ar  174   4.196   5.107   6.115
    1   AR   Ar  175   4.499   4.023   6.271
    1   AR   Ar  176   3.255   5.488   4.913
    1   AR   Ar  177   5.634   5.770  -0.466
    1   AR   Ar  178   4.072   6.741   1.418
    1   AR   Ar  179   3.701   5.707   1.225
    1   AR   Ar  180   3.949   4.541  -0.659
    1   AR   Ar  181   2.805   5.734   2.181
    1   AR   Ar  182   2.497   6.774   2.193
    1   AR   Ar  183   3.438   4.617   1.949
    1   AR   Ar  184   4.220   5.970   2.054
    1   AR   Ar  185   1.305   5.906   4.134
    1   AR   Ar  186   3.575   5.366   3.762
    1   AR   Ar  187   4.734   5.341   3.571
    1   AR   Ar  188   3.607   6.205   2.950
    1   AR   Ar  189   2.679   5.136   5.869
    1   AR   Ar  190   4.190   6.148   6.135
    1   AR   Ar  191   5.211   6.222   5.249
    1   AR   Ar  192   4.115   6.121   4.766
    1   AR   Ar  193   6.341   6.917  -0.411
    1   AR   Ar  194   5.268   0.222  -0.472
    1   AR   Ar  195   5.636   0.996   0.494
    1   AR   Ar  196   6.230   1.468  -0.557
    1   AR   Ar  197   4.925   0.207   0.735
    1   AR   Ar  198   5.945   1.013   1.713
    1   AR   Ar  199   5.172   0.381   1.922
    1   AR   Ar  200   6.300   1.881   0.943
    1   AR   Ar  201   4.989   6.277   2.934
    1   AR   Ar  202   5.258   1.562   3.815
    1   AR   Ar  203   0.132   6.995   4.512
    1   AR   Ar  204   5.754   0.459   2.898
    1   AR   Ar  205   6.258   6.728   3.726
    1   AR   Ar  206   5.388   0.116   5.039
    1   AR   Ar  207   0.247   0.299   5.663
    1   AR   Ar  208   6.645   0.578   3.641
    1   AR   Ar  209   6.805   2.696  -2.100
    1   AR   Ar  210   5.127   2.059   1.563
    1   AR   Ar  211   6.623   2.484  -0.120
    1   AR   Ar  212   6.415   4.488  -0.533
    1   AR   Ar  213   3.781   2.509   2.491
    1   AR   Ar  214   4.218   3.854   2.073
    1   AR   Ar  215   5.964   2.192   2.142
    1   AR   Ar  216   6.310   3.622   1.713
    1   AR   Ar  217   5.103   2.719   3.816
    1   AR   Ar  218   4.832   2.406   5.171
    1   AR   Ar  219   5.265   1.370   2.525
    1   AR   Ar  220   5.941   3.404   3.193
    1   AR   Ar  221   6.458   0.201   5.051
    1   AR   Ar  222   5.237   1.910   6.016
    1   AR   Ar  223   6.227   0.927   6.910
    1   AR   Ar  224   5.868   2.947   5.588
    1   AR   Ar  225   5.101   4.311   0.092
    1   AR   Ar  226   4.728   4.864   2.555
    1   AR   Ar  227   6.714   4.695   0.933
    1   AR   Ar  228   6.033   5.869   0.680
    1   AR   Ar  229   5.987   4.087   0.527
    1   AR   Ar  230   3.782   4.338   3.262
    1   AR   Ar  231   6.567   2.619   2.766
    1   AR   Ar  232   5.222   4.027   1.138
    1   AR   Ar  233   6.066   2.201   4.410
    1   AR   Ar  234   5.900   4.137   4.919
    1   AR   Ar  235   6.669   3.309   4.254
    1   AR   Ar  236   5.309   4.115   3.741
    1   AR   Ar  237   5.173   3.418   4.655
    1   AR   Ar  238   4.935   4.330   5.345
    1   AR   Ar  239   6.066   4.428   7.489
    1   AR   Ar  240   6.058   4.383   5.971
    1   AR   Ar  241   6.707   0.569   0.260
    1   AR   Ar  242   5.307   6.391   1.580
    1   AR   Ar  243   5.986   4.545   2.208
    1   AR   Ar  244   6.826   5.918  -0.088
    1   AR   Ar  245   5.490   5.532   2.360
    1   AR   Ar  246   6.258   6.324   1.861
    1   AR   Ar  247   5.485   3.118   1.831
    1   AR   Ar  248   6.002   0.017   0.962
    1   AR   Ar  249   5.879   4.971   3.158
    1   AR   Ar  250   5.017   6.297   4.240
    1   AR   Ar  251   5.512   5.378   4.533
    1   AR   Ar  252   5.706   5.924   3.556
    1   AR   Ar  253   5.533   5.208   5.622
    1   AR   Ar  254   5.159   5.936   6.460
    1   AR   Ar  255   5.229   4.744   6.641
    1   AR   Ar  256   6.111   6.320   4.703
    7.12000  7.12000 12.00000
Argon-slab step 1275
  256
    1   AR   Ar    1   0.483   0.837  -0.994
    1   AR   Ar    2   6.836   0.868   1.215
    1   AR   Ar    3   0.272   6.795   0.433
    1   AR   Ar    4   0.954   0.522   0.068
    1   AR   Ar    5   0.000   5.959   1.144
    1   AR   Ar    6   0.516   0.315   2.958
    1   AR   Ar    7   0.206   5.713   2.180
    1   AR   Ar    8   0.256   6.830   1.780
    1   AR   Ar    9   0.818   0.978   3.729
    1   AR   Ar   10   7.066   1.838   4.492
    1   AR   Ar   11   2.267   6.939   4.320
    1   AR   Ar   12   1.142   1.187   2.625
    1   AR   Ar   13   5.921   1.104   4.550
    1   AR   Ar   14   0.048   1.835   5.547
    1   AR   Ar   15   6.498   5.515   8.384
    1   AR   Ar   16   0.670   1.038   4.786
    1   AR   Ar   17   0.092   1.592  -0.250
    1   AR   Ar   18   6.907   3.521   0.241
    1   AR   Ar   19   0.315   1.642   0.842
    1   AR   Ar   20   1.033   2.838  -2.244
    1   AR   Ar   21   6.818   0.615   2.293
    1   AR   Ar   22   0.175   1.992   2.384
    1   AR   Ar   23   0.438   1.098   1.847
    1   AR   Ar   24   7.098   2.923   1.169
    1   AR   Ar   25   7.100   1.306   3.112
    1   AR   Ar   26   6.047   1.647   3.067
    1   AR   Ar   27   1.873   0.918   3.787
    1   AR   Ar   28   1.046   2.395   4.350
    1   AR   Ar   29   6.192   1.969   5.763
    1   AR   Ar   30   6.995   2.948   6.277
    1   AR   Ar   31   0.470   1.080   7.477
    1   AR   Ar   32   2.013   2.740   5.594
    1   AR   Ar   33   1.037   3.844  -1.742
    1   AR   Ar   34   0.717   5.196   1.449
    1   AR   Ar   35   0.374   3.870   1.525
    1   AR   Ar   36   1.752   6.988  -1.947
    1   AR   Ar   37   0.321   3.168   2.221
    1   AR   Ar   38   0.135   4.722   2.149
    1   AR   Ar   39   0.941   4.070   2.741
    1   AR   Ar   40   1.476   4.242   1.706
    1   AR   Ar   41   0.746   2.236   3.163
    1   AR   Ar   42   6.594   4.914   5.253
    1   AR   Ar   43   6.927   2.761   5.150
    1   AR   Ar   44   0.531   3.197   3.762
    1   AR   Ar   45   0.750   3.566   5.096
    1   AR   Ar   46   6.166   5.310   6.522
    1   AR   Ar   47   0.164   3.777   7.232
    1   AR   Ar   48   6.941   6.732   6.332
    1   AR   Ar   49   6.533   5.103  -1.711
    1   AR   Ar   50   6.341   5.400   1.725
    1   AR   Ar   51   1.347   4.646   0.632
    1   AR   Ar   52   0.296   5.049   0.160
    1   AR   Ar   53   6.555   5.942   2.769
    1   AR   Ar   54   0.312   6.272   3.147
    1   AR   Ar   55   0.165   5.305   3.466
    1   AR   Ar   56   1.012   6.268   1.160
    1   AR   Ar   57   7.002   3.969   2.913
    1   AR   Ar   58   0.138   5.847   4.352
    1   AR   Ar   59   2.080   5.742   5.166
    1   AR   Ar   60   1.178   7.026   3.997
    1   AR   Ar   61   6.261   6.010   5.784
    1   AR   Ar   62   0.277   6.325   5.380
    1   AR   Ar   63   1.319   5.229   6.049
    1   AR   Ar   64   1.341   6.586   5.043
    1   AR   Ar   65   2.802   7.114   0.035
    1   AR   Ar   66   1.599   0.830   1.534
    1   AR   Ar   67   3.012   6.164   0.480
    1   AR   Ar   68   3.699   0.715  -0.682
    1   AR   Ar   69   1.589   6.839   0.242
    1   AR   Ar   70   1.349   7.078   2.093
    1   AR   Ar   71   2.823   0.672   1.367
    1   AR   Ar   72   3.652   0.370   0.709
    1   AR   Ar   73   1.830   6.717   3.177
    1   AR   Ar   74   1.676   0.898   4.803
    1   AR   Ar   75   3.333   0.384   5.218
    1   AR   Ar   76   2.126   0.595   2.454
    1   AR   Ar   77   2.335   0.166   5.577
    1   AR   Ar   78   1.427   0.424   5.745
    1   AR   Ar   79   4.662   6.971   6.787
    1   AR   Ar   80   2.910   6.489   5.311
    1   AR   Ar   81   1.869   1.127   0.263
    1   AR   Ar   82   0.794   3.455   0.438
    1   AR   Ar   83   2.302   1.632   1.057
    1   AR   Ar   84   2.342   3.572  -3.563
    1   AR   Ar   85   0.952   2.357   0.481
    1   AR   Ar   86   1.969   3.414   2.078
    1   AR   Ar   87   2.123   1.602   2.046
    1   AR   Ar   88   2.803   3.323   1.502
    1   AR   Ar   89   1.178   2.007   2.012
    1   AR   Ar   90   2.546   1.979   4.955
    1   AR   Ar   91   1.933   2.151   4.000
    1   AR   Ar   92   1.744   2.101   2.930
    1   AR   Ar   93   1.427   1.764   5.431
    1   AR   Ar   94   3.077   0.687   8.074
    1   AR   Ar   95   3.195   7.010   6.273
    1   AR   Ar   96   2.323   0.825   6.491
    1   AR   Ar   97   3.050   2.786  -0.553
    1   AR   Ar   98   2.501   4.251   1.648
    1   AR   Ar   99   3.630   2.948  -1.598
    1   AR   Ar  100   2.050   4.483  -0.660
    1   AR   Ar  101   1.016   2.981   1.422
    1   AR   Ar  102   2.406   3.883   3.673
    1   AR   Ar  103   1.819   3.438   0.667
    1   AR   Ar  104   2.974   3.916  -0.663
    1   AR   Ar  105   1.937   3.066   3.195
    1   AR   Ar  106   2.281   2.987   4.426
    1   AR   Ar  107   2.625   4.279   5.318
    1   AR   Ar  108   3.232   3.005   3.844
    1   AR   Ar  109   1.643   3.902   4.494
    1   AR   Ar  110   1.271   4.717   5.098
    1   AR   Ar  111   4.317   4.461   7.112
    1   AR   Ar  112   1.679   4.125   5.935
    1   AR   Ar  113   2.316   4.575   0.414
    1   AR   Ar  114   2.722   5.190   1.245
    1   AR   Ar  115   3.260   4.961  -0.037
    1   AR   Ar  116   4.053   6.893  -0.096
    1   AR   Ar  117   1.346   4.867   3.548
    1   AR   Ar  118   1.310   6.065   2.517
    1   AR   Ar  119   1.908   4.313   2.695
    1   AR   Ar  120   1.792   5.210   2.147
    1   AR   Ar  121   6.533   4.565   3.823
    1   AR   Ar  122   2.823   6.044   4.209
    1   AR   Ar  123   2.094   5.115   4.369
    1   AR   Ar  124   2.331   5.787   3.233
    1   AR   Ar  125   0.306   4.594   4.510
    1   AR   Ar  126   1.054   6.479   6.051
    1   AR   Ar  127   2.312   5.336   7.337
    1   AR   Ar  128   2.085   6.240   6.318
    1   AR   Ar  129   2.039   7.039   1.141
    1   AR   Ar  130   4.593   7.094  -1.709
    1   AR   Ar  131   4.620   6.356   0.612
    1   AR   Ar  132   6.349   2.375  -1.056
    1   AR   Ar  133   3.420   0.464   2.353
    1   AR   Ar  134   4.109   1.334   2.532
    1   AR   Ar  135   4.657   0.489   2.858
    1   AR   Ar  136   4.147   0.723   1.593
    1   AR   Ar  137   2.869   0.093   3.073
    1   AR   Ar  138   4.963   1.281   4.997
    1   AR   Ar  139   5.227   0.219   4.006
    1   AR   Ar  140   4.368   0.911   3.941
    1   AR   Ar  141   4.037   7.082   4.382
    1   AR   Ar  142   4.281   6.892   5.549
    1   AR   Ar  143   5.575   6.915   6.080
    1   AR   Ar  144   5.006   0.870   7.070
    1   AR   Ar  145   3.122   3.264   0.352
    1   AR   Ar  146   4.330   3.020   1.278
    1   AR   Ar  147   5.402   2.237  -0.097
    1   AR   Ar  148   5.933   3.359  -2.001
    1   AR   Ar  149   4.527   1.356   0.985
    1   AR   Ar  150   3.069   1.561   2.601
    1   AR   Ar  151   3.647   1.946   3.430
    1   AR   Ar  152   2.890   2.477   2.026
    1   AR   Ar  153   3.061   0.898   4.245
    1   AR   Ar  154   3.833   2.126   4.579
    1   AR   Ar  155   5.868   0.730   5.701
    1   AR   Ar  156   4.350   3.473   3.769
    1   AR   Ar  157   3.940   1.675   5.546
    1   AR   Ar  158   2.200   1.865   6.178
    1   AR   Ar  159   4.591   0.773   6.078
    1   AR   Ar  160   4.436   2.844   6.137
    1   AR   Ar  161   4.948   3.153  -0.075
    1   AR   Ar  162   4.641   5.244   0.537
    1   AR   Ar  163   5.979   3.390  -0.470
    1   AR   Ar  164   5.206   5.201   1.367
    1   AR   Ar  165   3.284   3.462   2.838
    1   AR   Ar  166   2.915   4.900   3.066
    1   AR   Ar  167   4.673   3.134   2.666
    1   AR   Ar  168   3.919   4.010   0.345
    1   AR   Ar  169   2.652   2.392   3.171
    1   AR   Ar  170   3.299   4.271   4.252
    1   AR   Ar  171   4.190   3.513   4.820
    1   AR   Ar  172   4.423   4.525   4.336
    1   AR   Ar  173   3.101   2.696   6.018
    1   AR   Ar  174   4.190   5.099   6.115
    1   AR   Ar  175   4.514   4.005   6.247
    1   AR   Ar  176   3.265   5.490   4.909
    1   AR   Ar  177   5.641   5.766  -0.490
    1   AR   Ar  178   4.053   6.720   1.433
    1   AR   Ar  179   3.696   5.713   1.229
    1   AR   Ar  180   3.929   4.515  -0.680
    1   AR   Ar  181   2.790   5.741   2.168
    1   AR   Ar  182   2.535   6.785   2.204
    1   AR   Ar  183   3.441   4.613   1.976
    1   AR   Ar  184   4.210   5.999   2.062
    1   AR   Ar  185   1.333   5.914   4.142
    1   AR   Ar  186   3.578   5.364   3.761
    1   AR   Ar  187   4.743   5.354   3.589
    1   AR   Ar  188   3.596   6.193   2.929
    1   AR   Ar  189   2.695   5.147   5.853
    1   AR   Ar  190   4.199   6.139   6.117
    1   AR   Ar  191   5.203   6.218   5.217
    1   AR   Ar  192   4.137   6.102   4.743
    1   AR   Ar  193   6.318   6.921  -0.391
    1   AR   Ar  194   5.297   0.220  -0.500
    1   AR   Ar  195   5.626   0.986   0.526
    1   AR   Ar  196   6.230   1.458  -0.538
    1   AR   Ar  197   4.933   0.235   0.785
    1   AR   Ar  198   5.963   1.027   1.677
    1   AR   Ar  199   5.222   0.408   1.926
    1   AR   Ar  200   6.313   1.853   0.933
    1   AR   Ar  201   4.957   6.287   2.964
    1   AR   Ar  202   5.226   1.564   3.837
    1   AR   Ar  203   0.105   6.983   4.524
    1   AR   Ar  204   5.794   0.418   2.890
    1   AR   Ar  205   6.234   6.726   3.681
    1   AR   Ar  206   5.400   0.078   5.028
    1   AR   Ar  207   0.240   0.303   5.664
    1   AR   Ar  208   6.661   0.572   3.650
    1   AR   Ar  209   6.790   2.709  -2.099
    1   AR   Ar  210   5.137   2.016   1.549
    1   AR   Ar  211   6.608   2.491  -0.111
    1   AR   Ar  212   6.440   4.512  -0.544
    1   AR   Ar  213   3.796   2.486   2.497
    1   AR   Ar  214   4.203   3.870   2.081
    1   AR   Ar  215   5.951   2.187   2.135
    1   AR   Ar  216   6.299   3.639   1.716
    1   AR   Ar  217   5.100   2.722   3.801
    1   AR   Ar  218   4.801   2.414   5.166
    1   AR   Ar  219   5.248   1.389   2.504
    1   AR   Ar  220   5.901   3.394   3.182
    1   AR   Ar  221   6.439   0.212   5.057
    1   AR   Ar  222   5.237   1.895   6.007
    1   AR   Ar  223   6.242   0.930   6.885
    1   AR   Ar  224   5.897   2.936   5.606
    1   AR   Ar  225   5.093   4.336   0.071
    1   AR   Ar  226   4.711   4.861   2.554
    1   AR   Ar  227   6.729   4.669   0.898
    1   AR   Ar  228   6.012   5.908   0.697
    1   AR   Ar  229   6.013   4.100   0.501
    1   AR   Ar  230   3.745   4.327   3.246
    1   AR   Ar  231   6.567   2.646   2.766
    1   AR   Ar  232   5.201   4.026   1.110
    1   AR   Ar  233   6.072   2.184   4.369
    1   AR   Ar  234   5.894   4.171   4.931
    1   AR   Ar  235   6.707   3.320   4.236
    1   AR   Ar  236   5.301   4.151   3.743
    1   AR   Ar  237   5.173   3.384   4.648
    1   AR   Ar  238   4.905   4.322   5.328
    1   AR   Ar  239   6.077   4.446   7.527
    1   AR   Ar  240   6.087   4.397   5.963
    1   AR   Ar  241   6.733   0.558   0.251
    1   AR   Ar  242   5.319   6.401   1.607
    1   AR   Ar  243   5.990   4.536   2.233
    1   AR   Ar  244   6.838   5.923  -0.085
    1   AR   Ar  245   5.498   5.543   2.368
    1   AR   Ar  246   6.277   6.338   1.860
    1   AR   Ar  247   5.487   3.100   1.790
    1   AR   Ar  248   6.007   0.018   0.939
    1   AR   Ar  249   5.847   4.985   3.187
    1   AR   Ar  250   5.018   6.305   4.249
    1   AR   Ar  251   5.483   5.399   4.516
    1   AR   Ar  252   5.692   5.928   3.586
    1   AR   Ar  253   5.516   5.191   5.597
    1   AR   Ar  254   5.205   5.916   6.428
    1   AR   Ar  255   5.235   4.719   6.670
    1   AR   Ar  256   6.102   6.332   4.728
    7.12000  7.12000 12.00000
Argon-slab step 1280
  256
    1   AR   Ar    1   0.472   0.841  -1.011
    1   AR   Ar    2   6.830   0.858   1.201
    1   AR   Ar    3   0.265   6.802   0.428
    1   AR   Ar    4   0.931   0.549   0.059
    1   AR   Ar    5   7.110   5.961   1.148
    1   AR   Ar    6   0.495   0.297   2.949
    1   AR   Ar    7   0.189   5.714   2.213
    1   AR   Ar    8   0.253   6.863   1.767
    1   AR   Ar    9   0.871   0.924   3.743
    1   AR   Ar   10   7.088   1.821   4.474
    1   AR   Ar   11   2.247   6.925   4.348
    1   AR   Ar   12   1.134   1.175   2.632
    1   AR   Ar   13   5.975   1.119   4.552
    1   AR   Ar   14   0.039   1.843   5.510
    1   AR   Ar   15   6.513   5.504   8.381
    1   AR   Ar   16   0.634   1.071   4.796
    1   AR   Ar   17   0.070   1.595  -0.270
    1   AR   Ar   18   6.910   3.541   0.225
    1   AR   Ar   19   0.302   1.668   0.857
    1   AR   Ar   20   1.028   2.787  -2.233
    1   AR   Ar   21   6.810   0.623   2.314
    1   AR   Ar   22   0.189   1.972   2.388
    1   AR   Ar   23   0.453   1.109   1.868
    1   AR   Ar   24   7.105   2.935   1.188
    1   AR   Ar   25   7.103   1.290   3.124
    1   AR   Ar   26   6.051   1.632   3.097
    1   AR   Ar   27   1.887   0.900   3.786
    1   AR   Ar   28   1.027   2.410   4.416
    1   AR   Ar   29   6.182   1.942   5.769
    1   AR   Ar   30   7.008   2.951   6.293
    1   AR   Ar   31   0.466   1.080   7.491
    1   AR   Ar   32   2.010   2.762   5.607
    1   AR   Ar   33   1.072   3.837  -1.756
    1   AR   Ar   34   0.725   5.221   1.476
    1   AR   Ar   35   0.373   3.899   1.544
    1   AR   Ar   36   1.740   7.005  -1.959
    1   AR   Ar   37   0.304   3.155   2.213
    1   AR   Ar   38   0.123   4.725   2.095
    1   AR   Ar   39   0.933   4.073   2.733
    1   AR   Ar   40   1.457   4.230   1.703
    1   AR   Ar   41   0.753   2.204   3.144
    1   AR   Ar   42   6.609   4.951   5.252
    1   AR   Ar   43   6.925   2.759   5.133
    1   AR   Ar   44   0.523   3.187   3.751
    1   AR   Ar   45   0.740   3.569   5.097
    1   AR   Ar   46   6.163   5.334   6.563
    1   AR   Ar   47   0.154   3.770   7.228
    1   AR   Ar   48   6.934   6.762   6.317
    1   AR   Ar   49   6.517   5.121  -1.718
    1   AR   Ar   50   6.351   5.387   1.737
    1   AR   Ar   51   1.370   4.658   0.640
    1   AR   Ar   52   0.285   5.030   0.142
    1   AR   Ar   53   6.538   5.936   2.780
    1   AR   Ar   54   0.326   6.258   3.134
    1   AR   Ar   55   0.162   5.280   3.473
    1   AR   Ar   56   1.052   6.263   1.147
    1   AR   Ar   57   7.005   3.944   2.935
    1   AR   Ar   58   0.116   5.836   4.335
    1   AR   Ar   59   2.077   5.728   5.139
    1   AR   Ar   60   1.188   7.043   4.001
    1   AR   Ar   61   6.259   5.994   5.751
    1   AR   Ar   62   0.283   6.340   5.409
    1   AR   Ar   63   1.319   5.266   6.078
    1   AR   Ar   64   1.347   6.568   5.003
    1   AR   Ar   65   2.803   7.106   0.033
    1   AR   Ar   66   1.589   0.861   1.494
    1   AR   Ar   67   3.003   6.159   0.468
    1   AR   Ar   68   3.691   0.694  -0.695
    1   AR   Ar   69   1.622   6.844   0.247
    1   AR   Ar   70   1.351   7.072   2.084
    1   AR   Ar   71   2.788   0.669   1.362
    1   AR   Ar   72   3.627   0.357   0.709
    1   AR   Ar   73   1.827   6.715   3.169
    1   AR   Ar   74   1.706   0.900   4.815
    1   AR   Ar   75   3.359   0.366   5.244
    1   AR   Ar   76   2.104   0.598   2.468
    1   AR   Ar   77   2.320   0.168   5.555
    1   AR   Ar   78   1.398   0.437   5.765
    1   AR   Ar   79   4.673   6.949   6.839
    1   AR   Ar   80   2.948   6.466   5.318
    1   AR   Ar   81   1.844   1.154   0.266
    1   AR   Ar   82   0.773   3.439   0.441
    1   AR   Ar   83   2.295   1.639   1.039
    1   AR   Ar   84   2.357   3.583  -3.610
    1   AR   Ar   85   0.951   2.352   0.466
    1   AR   Ar   86   1.971   3.438   2.057
    1   AR   Ar   87   2.096   1.611   2.058
    1   AR   Ar   88   2.776   3.324   1.475
    1   AR   Ar   89   1.172   2.027   1.964
    1   AR   Ar   90   2.558   2.006   4.934
    1   AR   Ar   91   1.952   2.105   4.000
    1   AR   Ar   92   1.731   2.123   2.940
    1   AR   Ar   93   1.423   1.774   5.394
    1   AR   Ar   94   3.093   0.673   8.053
    1   AR   Ar   95   3.169   7.019   6.255
    1   AR   Ar   96   2.329   0.810   6.526
    1   AR   Ar   97   3.084   2.803  -0.543
    1   AR   Ar   98   2.509   4.260   1.643
    1   AR   Ar   99   3.660   2.953  -1.616
    1   AR   Ar  100   2.051   4.511  -0.688
    1   AR   Ar  101   1.019   2.968   1.415
    1   AR   Ar  102   2.418   3.875   3.688
    1   AR   Ar  103   1.825   3.443   0.653
    1   AR   Ar  104   2.961   3.916  -0.693
    1   AR   Ar  105   1.937   3.068   3.217
    1   AR   Ar  106   2.279   2.990   4.425
    1   AR   Ar  107   2.628   4.283   5.330
    1   AR   Ar  108   3.258   3.012   3.850
    1   AR   Ar  109   1.669   3.943   4.484
    1   AR   Ar  110   1.267   4.685   5.110
    1   AR   Ar  111   4.334   4.429   7.151
    1   AR   Ar  112   1.704   4.134   5.941
    1   AR   Ar  113   2.358   4.609   0.404
    1   AR   Ar  114   2.722   5.216   1.252
    1   AR   Ar  115   3.244   4.979  -0.054
    1   AR   Ar  116   4.043   6.916  -0.103
    1   AR   Ar  117   1.326   4.848   3.552
    1   AR   Ar  118   1.287   6.054   2.493
    1   AR   Ar  119   1.918   4.298   2.676
    1   AR   Ar  120   1.762   5.181   2.124
    1   AR   Ar  121   6.537   4.580   3.806
    1   AR   Ar  122   2.812   6.033   4.229
    1   AR   Ar  123   2.084   5.102   4.373
    1   AR   Ar  124   2.330   5.769   3.211
    1   AR   Ar  125   0.287   4.578   4.494
    1   AR   Ar  126   1.059   6.478   6.064
    1   AR   Ar  127   2.296   5.317   7.318
    1   AR   Ar  128   2.070   6.235   6.330
    1   AR   Ar  129   2.019   7.022   1.132
    1   AR   Ar  130   4.565   7.099  -1.688
    1   AR   Ar  131   4.615   6.344   0.619
    1   AR   Ar  132   6.351   2.381  -1.055
    1   AR   Ar  133   3.447   0.472   2.352
    1   AR   Ar  134   4.091   1.345   2.522
    1   AR   Ar  135   4.652   0.482   2.886
    1   AR   Ar  136   4.136   0.714   1.583
    1   AR   Ar  137   2.850   0.083   3.102
    1   AR   Ar  138   4.960   1.295   4.992
    1   AR   Ar  139   5.206   0.201   3.996
    1   AR   Ar  140   4.351   0.899   3.961
    1   AR   Ar  141   4.042   7.097   4.382
    1   AR   Ar  142   4.289   6.909   5.506
    1   AR   Ar  143   5.584   6.930   6.064
    1   AR   Ar  144   5.017   0.873   7.084
    1   AR   Ar  145   3.126   3.259   0.324
    1   AR   Ar  146   4.328   3.011   1.279
    1   AR   Ar  147   5.426   2.202  -0.115
    1   AR   Ar  148   5.923   3.373  -2.011
    1   AR   Ar  149   4.521   1.337   1.004
    1   AR   Ar  150   3.093   1.533   2.582
    1   AR   Ar  151   3.625   1.950   3.449
    1   AR   Ar  152   2.891   2.451   2.040
    1   AR   Ar  153   3.086   0.896   4.235
    1   AR   Ar  154   3.840   2.117   4.601
    1   AR   Ar  155   5.883   0.743   5.706
    1   AR   Ar  156   4.338   3.489   3.772
    1   AR   Ar  157   3.955   1.660   5.551
    1   AR   Ar  158   2.187   1.849   6.193
    1   AR   Ar  159   4.574   0.748   6.054
    1   AR   Ar  160   4.408   2.861   6.147
    1   AR   Ar  161   4.953   3.152  -0.068
    1   AR   Ar  162   4.668   5.284   0.504
    1   AR   Ar  163   5.970   3.381  -0.492
    1   AR   Ar  164   5.204   5.194   1.350
    1   AR   Ar  165   3.272   3.446   2.849
    1   AR   Ar  166   2.909   4.904   3.076
    1   AR   Ar  167   4.690   3.145   2.659
    1   AR   Ar  168   3.892   3.995   0.334
    1   AR   Ar  169   2.657   2.413   3.161
    1   AR   Ar  170   3.310   4.277   4.242
    1   AR   Ar  171   4.159   3.518   4.839
    1   AR   Ar  172   4.388   4.532   4.355
    1   AR   Ar  173   3.078   2.670   6.028
    1   AR   Ar  174   4.182   5.079   6.111
    1   AR   Ar  175   4.529   3.980   6.216
    1   AR   Ar  176   3.265   5.468   4.908
    1   AR   Ar  177   5.650   5.762  -0.512
    1   AR   Ar  178   4.030   6.713   1.439
    1   AR   Ar  179   3.688   5.715   1.227
    1   AR   Ar  180   3.913   4.486  -0.702
    1   AR   Ar  181   2.788   5.733   2.165
    1   AR   Ar  182   2.570   6.793   2.209
    1   AR   Ar  183   3.445   4.613   2.005
    1   AR   Ar  184   4.209   6.017   2.085
    1   AR   Ar  185   1.350   5.904   4.143
    1   AR   Ar  186   3.583   5.362   3.763
    1   AR   Ar  187   4.752   5.365   3.608
    1   AR   Ar  188   3.581   6.181   2.909
    1   AR   Ar  189   2.710   5.165   5.840
    1   AR   Ar  190   4.204   6.116   6.111
    1   AR   Ar  191   5.190   6.206   5.201
    1   AR   Ar  192   4.165   6.078   4.718
    1   AR   Ar  193   6.296   6.924  -0.370
    1   AR   Ar  194   5.325   0.219  -0.527
    1   AR   Ar  195   5.618   0.979   0.558
    1   AR   Ar  196   6.224   1.444  -0.517
    1   AR   Ar  197   4.939   0.262   0.838
    1   AR   Ar  198   5.978   1.050   1.644
    1   AR   Ar  199   5.221   0.397   1.910
    1   AR   Ar  200   6.325   1.825   0.923
    1   AR   Ar  201   4.921   6.299   2.990
    1   AR   Ar  202   5.195   1.567   3.858
    1   AR   Ar  203   0.084   6.970   4.530
    1   AR   Ar  204   5.828   0.384   2.885
    1   AR   Ar  205   6.218   6.735   3.637
    1   AR   Ar  206   5.409   0.043   5.016
    1   AR   Ar  207   0.236   0.310   5.661
    1   AR   Ar  208   6.675   0.563   3.665
    1   AR   Ar  209   6.776   2.722  -2.097
    1   AR   Ar  210   5.142   1.987   1.546
    1   AR   Ar  211   6.595   2.499  -0.088
    1   AR   Ar  212   6.464   4.536  -0.553
    1   AR   Ar  213   3.820   2.461   2.504
    1   AR   Ar  214   4.201   3.859   2.066
    1   AR   Ar  215   5.939   2.177   2.123
    1   AR   Ar  216   6.305   3.675   1.739
    1   AR   Ar  217   5.099   2.722   3.785
    1   AR   Ar  218   4.770   2.422   5.158
    1   AR   Ar  219   5.226   1.405   2.478
    1   AR   Ar  220   5.859   3.385   3.171
    1   AR   Ar  221   6.422   0.222   5.060
    1   AR   Ar  222   5.224   1.877   6.001
    1   AR   Ar  223   6.256   0.933   6.858
    1   AR   Ar  224   5.922   2.929   5.621
    1   AR   Ar  225   5.082   4.361   0.047
    1   AR   Ar  226   4.692   4.856   2.553
    1   AR   Ar  227   6.751   4.648   0.871
    1   AR   Ar  228   6.008   5.906   0.726
    1   AR   Ar  229   6.040   4.107   0.469
    1   AR   Ar  230   3.720   4.320   3.230
    1   AR   Ar  231   6.572   2.679   2.775
    1   AR   Ar  232   5.174   4.024   1.089
    1   AR   Ar  233   6.074   2.169   4.328
    1   AR   Ar  234   5.908   4.179   4.934
    1   AR   Ar  235   6.743   3.343   4.216
    1   AR   Ar  236   5.294   4.187   3.747
    1   AR   Ar  237   5.193   3.384   4.652
    1   AR   Ar  238   4.874   4.315   5.308
    1   AR   Ar  239   6.089   4.465   7.564
    1   AR   Ar  240   6.114   4.403   5.962
    1   AR   Ar  241   6.740   0.549   0.234
    1   AR   Ar  242   5.320   6.411   1.631
    1   AR   Ar  243   5.994   4.526   2.257
    1   AR   Ar  244   6.847   5.930  -0.082
    1   AR   Ar  245   5.507   5.560   2.374
    1   AR   Ar  246   6.304   6.375   1.861
    1   AR   Ar  247   5.476   3.075   1.749
    1   AR   Ar  248   6.014   0.018   0.919
    1   AR   Ar  249   5.812   4.997   3.216
    1   AR   Ar  250   5.016   6.320   4.248
    1   AR   Ar  251   5.456   5.414   4.500
    1   AR   Ar  252   5.679   5.920   3.613
    1   AR   Ar  253   5.498   5.178   5.572
    1   AR   Ar  254   5.253   5.895   6.394
    1   AR   Ar  255   5.245   4.697   6.696
    1   AR   Ar  256   6.097   6.344   4.748
    7.12000  7.12000 12.00000
Argon-slab step 1285
  256
    1   AR   Ar    1   0.462   0.846  -1.025
    1   AR   Ar    2   6.829   0.858   1.210
    1   AR   Ar    3   0.258   6.809   0.425
    1   AR   Ar    4   0.905   0.578   0.051
    1   AR   Ar    5   7.097   5.964   1.149
    1   AR   Ar    6   0.474   0.277   2.939
    1   AR   Ar    7   0.198   5.690   2.200
    1   AR   Ar    8   0.250   6.896   1.755
    1   AR   Ar    9   0.917   0.873   3.756
    1   AR   Ar   10   7.110   1.806   4.449
    1   AR   Ar   11   2.239   6.924   4.355
    1   AR   Ar   12   1.120   1.159   2.650
    1   AR   Ar   13   5.994   1.139   4.561
    1   AR   Ar   14   0.040   1.843   5.478
    1   AR   Ar   15   6.528   5.492   8.377
    1   AR   Ar   16   0.599   1.102   4.809
    1   AR   Ar   17   0.056   1.599  -0.287
    1   AR   Ar   18   6.907   3.561   0.208
    1   AR   Ar   19   0.312   1.672   0.860
    1   AR   Ar   20   1.022   2.737  -2.223
    1   AR   Ar   21   6.796   0.629   2.338
    1   AR   Ar   22   0.193   1.954   2.376
    1   AR   Ar   23   0.477   1.120   1.883
    1   AR   Ar   24   7.108   2.945   1.204
    1   AR   Ar   25   7.111   1.278   3.136
    1   AR   Ar   26   6.057   1.618   3.130
    1   AR   Ar   27   1.908   0.882   3.780
    1   AR   Ar   28   1.004   2.425   4.485
    1   AR   Ar   29   6.179   1.911   5.774
    1   AR   Ar   30   7.021   2.954   6.307
    1   AR   Ar   31   0.462   1.079   7.504
    1   AR   Ar   32   2.011   2.783   5.610
    1   AR   Ar   33   1.108   3.829  -1.770
    1   AR   Ar   34   0.743   5.245   1.493
    1   AR   Ar   35   0.375   3.931   1.552
    1   AR   Ar   36   1.728   7.021  -1.970
    1   AR   Ar   37   0.287   3.136   2.214
    1   AR   Ar   38   0.111   4.698   2.077
    1   AR   Ar   39   0.920   4.073   2.725
    1   AR   Ar   40   1.427   4.223   1.696
    1   AR   Ar   41   0.760   2.176   3.139
    1   AR   Ar   42   6.627   4.994   5.248
    1   AR   Ar   43   6.920   2.762   5.123
    1   AR   Ar   44   0.521   3.176   3.735
    1   AR   Ar   45   0.731   3.573   5.097
    1   AR   Ar   46   6.160   5.356   6.607
    1   AR   Ar   47   0.164   3.791   7.205
    1   AR   Ar   48   6.924   6.789   6.303
    1   AR   Ar   49   6.502   5.138  -1.724
    1   AR   Ar   50   6.363   5.364   1.745
    1   AR   Ar   51   1.385   4.670   0.651
    1   AR   Ar   52   0.277   5.012   0.123
    1   AR   Ar   53   6.514   5.926   2.805
    1   AR   Ar   54   0.345   6.252   3.123
    1   AR   Ar   55   0.153   5.271   3.488
    1   AR   Ar   56   1.105   6.250   1.130
    1   AR   Ar   57   7.004   3.918   2.957
    1   AR   Ar   58   0.094   5.844   4.324
    1   AR   Ar   59   2.074   5.721   5.120
    1   AR   Ar   60   1.197   7.059   4.005
    1   AR   Ar   61   6.256   5.980   5.716
    1   AR   Ar   62   0.283   6.353   5.432
    1   AR   Ar   63   1.322   5.305   6.106
    1   AR   Ar   64   1.354   6.553   4.965
    1   AR   Ar   65   2.822   7.111   0.028
    1   AR   Ar   66   1.578   0.892   1.453
    1   AR   Ar   67   3.022   6.147   0.461
    1   AR   Ar   68   3.683   0.672  -0.707
    1   AR   Ar   69   1.651   6.846   0.242
    1   AR   Ar   70   1.351   7.065   2.075
    1   AR   Ar   71   2.751   0.665   1.360
    1   AR   Ar   72   3.635   0.370   0.735
    1   AR   Ar   73   1.824   6.716   3.162
    1   AR   Ar   74   1.739   0.899   4.828
    1   AR   Ar   75   3.386   0.348   5.268
    1   AR   Ar   76   2.082   0.604   2.484
    1   AR   Ar   77   2.314   0.168   5.530
    1   AR   Ar   78   1.355   0.453   5.787
    1   AR   Ar   79   4.685   6.926   6.889
    1   AR   Ar   80   2.988   6.440   5.322
    1   AR   Ar   81   1.815   1.177   0.266
    1   AR   Ar   82   0.758   3.424   0.447
    1   AR   Ar   83   2.291   1.650   1.024
    1   AR   Ar   84   2.372   3.594  -3.657
    1   AR   Ar   85   0.954   2.350   0.450
    1   AR   Ar   86   1.968   3.451   2.044
    1   AR   Ar   87   2.075   1.619   2.075
    1   AR   Ar   88   2.759   3.318   1.437
    1   AR   Ar   89   1.161   2.049   1.913
    1   AR   Ar   90   2.571   2.033   4.915
    1   AR   Ar   91   1.972   2.053   3.997
    1   AR   Ar   92   1.714   2.134   2.943
    1   AR   Ar   93   1.419   1.785   5.356
    1   AR   Ar   94   3.110   0.660   8.031
    1   AR   Ar   95   3.155   7.030   6.246
    1   AR   Ar   96   2.336   0.794   6.559
    1   AR   Ar   97   3.118   2.815  -0.547
    1   AR   Ar   98   2.505   4.276   1.649
    1   AR   Ar   99   3.690   2.958  -1.633
    1   AR   Ar  100   2.051   4.539  -0.714
    1   AR   Ar  101   1.026   2.958   1.408
    1   AR   Ar  102   2.434   3.870   3.703
    1   AR   Ar  103   1.830   3.456   0.631
    1   AR   Ar  104   2.936   3.918  -0.718
    1   AR   Ar  105   1.927   3.085   3.240
    1   AR   Ar  106   2.278   2.997   4.424
    1   AR   Ar  107   2.629   4.282   5.336
    1   AR   Ar  108   3.285   3.020   3.857
    1   AR   Ar  109   1.695   3.983   4.472
    1   AR   Ar  110   1.263   4.656   5.121
    1   AR   Ar  111   4.348   4.399   7.192
    1   AR   Ar  112   1.729   4.142   5.947
    1   AR   Ar  113   2.399   4.635   0.406
    1   AR   Ar  114   2.722   5.244   1.256
    1   AR   Ar  115   3.228   4.998  -0.070
    1   AR   Ar  116   4.032   6.938  -0.110
    1   AR   Ar  117   1.307   4.830   3.556
    1   AR   Ar  118   1.260   6.043   2.470
    1   AR   Ar  119   1.939   4.284   2.663
    1   AR   Ar  120   1.741   5.160   2.104
    1   AR   Ar  121   6.538   4.595   3.786
    1   AR   Ar  122   2.796   6.027   4.241
    1   AR   Ar  123   2.076   5.080   4.368
    1   AR   Ar  124   2.329   5.752   3.190
    1   AR   Ar  125   0.287   4.594   4.488
    1   AR   Ar  126   1.066   6.479   6.080
    1   AR   Ar  127   2.280   5.299   7.298
    1   AR   Ar  128   2.058   6.228   6.339
    1   AR   Ar  129   2.004   7.007   1.136
    1   AR   Ar  130   4.537   7.104  -1.666
    1   AR   Ar  131   4.613   6.333   0.628
    1   AR   Ar  132   6.352   2.388  -1.063
    1   AR   Ar  133   3.473   0.480   2.348
    1   AR   Ar  134   4.080   1.357   2.512
    1   AR   Ar  135   4.647   0.474   2.916
    1   AR   Ar  136   4.117   0.686   1.592
    1   AR   Ar  137   2.830   0.072   3.142
    1   AR   Ar  138   4.955   1.309   4.988
    1   AR   Ar  139   5.186   0.187   3.981
    1   AR   Ar  140   4.333   0.891   3.981
    1   AR   Ar  141   4.047   7.111   4.384
    1   AR   Ar  142   4.299   6.933   5.456
    1   AR   Ar  143   5.591   6.940   6.050
    1   AR   Ar  144   5.030   0.876   7.098
    1   AR   Ar  145   3.128   3.260   0.308
    1   AR   Ar  146   4.328   3.004   1.282
    1   AR   Ar  147   5.454   2.164  -0.133
    1   AR   Ar  148   5.913   3.388  -2.020
    1   AR   Ar  149   4.526   1.333   1.004
    1   AR   Ar  150   3.109   1.503   2.564
    1   AR   Ar  151   3.599   1.945   3.470
    1   AR   Ar  152   2.888   2.423   2.055
    1   AR   Ar  153   3.110   0.893   4.225
    1   AR   Ar  154   3.846   2.109   4.619
    1   AR   Ar  155   5.893   0.767   5.718
    1   AR   Ar  156   4.324   3.506   3.773
    1   AR   Ar  157   3.972   1.644   5.558
    1   AR   Ar  158   2.198   1.847   6.195
    1   AR   Ar  159   4.559   0.723   6.029
    1   AR   Ar  160   4.383   2.847   6.110
    1   AR   Ar  161   4.956   3.155  -0.059
    1   AR   Ar  162   4.690   5.323   0.464
    1   AR   Ar  163   5.962   3.372  -0.512
    1   AR   Ar  164   5.207   5.186   1.341
    1   AR   Ar  165   3.258   3.428   2.857
    1   AR   Ar  166   2.897   4.908   3.082
    1   AR   Ar  167   4.695   3.146   2.653
    1   AR   Ar  168   3.868   3.983   0.323
    1   AR   Ar  169   2.682   2.428   3.151
    1   AR   Ar  170   3.320   4.282   4.232
    1   AR   Ar  171   4.124   3.523   4.860
    1   AR   Ar  172   4.353   4.540   4.371
    1   AR   Ar  173   3.056   2.644   6.036
    1   AR   Ar  174   4.176   5.053   6.106
    1   AR   Ar  175   4.543   3.953   6.185
    1   AR   Ar  176   3.267   5.432   4.914
    1   AR   Ar  177   5.659   5.759  -0.533
    1   AR   Ar  178   4.005   6.722   1.436
    1   AR   Ar  179   3.680   5.715   1.222
    1   AR   Ar  180   3.901   4.455  -0.726
    1   AR   Ar  181   2.805   5.706   2.180
    1   AR   Ar  182   2.605   6.798   2.209
    1   AR   Ar  183   3.448   4.616   2.035
    1   AR   Ar  184   4.217   6.022   2.119
    1   AR   Ar  185   1.360   5.882   4.139
    1   AR   Ar  186   3.590   5.360   3.766
    1   AR   Ar  187   4.760   5.376   3.626
    1   AR   Ar  188   3.564   6.169   2.893
    1   AR   Ar  189   2.726   5.189   5.831
    1   AR   Ar  190   4.208   6.091   6.110
    1   AR   Ar  191   5.173   6.183   5.207
    1   AR   Ar  192   4.187   6.056   4.703
    1   AR   Ar  193   6.274   6.922  -0.348
    1   AR   Ar  194   5.350   0.218  -0.552
    1   AR   Ar  195   5.616   0.977   0.588
    1   AR   Ar  196   6.210   1.427  -0.495
    1   AR   Ar  197   4.938   0.286   0.893
    1   AR   Ar  198   5.983   1.078   1.616
    1   AR   Ar  199   5.217   0.383   1.895
    1   AR   Ar  200   6.338   1.797   0.912
    1   AR   Ar  201   4.882   6.314   3.015
    1   AR   Ar  202   5.166   1.571   3.879
    1   AR   Ar  203   0.069   6.954   4.531
    1   AR   Ar  204   5.840   0.403   2.881
    1   AR   Ar  205   6.208   6.752   3.594
    1   AR   Ar  206   5.412   0.016   5.003
    1   AR   Ar  207   0.236   0.319   5.654
    1   AR   Ar  208   6.688   0.550   3.684
    1   AR   Ar  209   6.764   2.733  -2.094
    1   AR   Ar  210   5.140   1.979   1.559
    1   AR   Ar  211   6.583   2.509  -0.056
    1   AR   Ar  212   6.489   4.560  -0.560
    1   AR   Ar  213   3.847   2.437   2.513
    1   AR   Ar  214   4.199   3.849   2.049
    1   AR   Ar  215   5.933   2.164   2.113
    1   AR   Ar  216   6.321   3.711   1.759
    1   AR   Ar  217   5.100   2.720   3.767
    1   AR   Ar  218   4.739   2.431   5.149
    1   AR   Ar  219   5.201   1.417   2.451
    1   AR   Ar  220   5.817   3.378   3.161
    1   AR   Ar  221   6.411   0.229   5.060
    1   AR   Ar  222   5.200   1.857   5.996
    1   AR   Ar  223   6.269   0.936   6.830
    1   AR   Ar  224   5.946   2.928   5.635
    1   AR   Ar  225   5.068   4.385   0.021
    1   AR   Ar  226   4.673   4.850   2.553
    1   AR   Ar  227   6.782   4.633   0.853
    1   AR   Ar  228   6.008   5.894   0.759
    1   AR   Ar  229   6.060   4.107   0.430
    1   AR   Ar  230   3.725   4.335   3.216
    1   AR   Ar  231   6.582   2.715   2.786
    1   AR   Ar  232   5.146   4.021   1.071
    1   AR   Ar  233   6.075   2.158   4.286
    1   AR   Ar  234   5.935   4.170   4.931
    1   AR   Ar  235   6.773   3.367   4.197
    1   AR   Ar  236   5.288   4.219   3.751
    1   AR   Ar  237   5.236   3.433   4.673
    1   AR   Ar  238   4.845   4.309   5.284
    1   AR   Ar  239   6.100   4.485   7.599
    1   AR   Ar  240   6.138   4.404   5.968
    1   AR   Ar  241   6.719   0.546   0.207
    1   AR   Ar  242   5.313   6.421   1.651
    1   AR   Ar  243   5.996   4.517   2.284
    1   AR   Ar  244   6.855   5.938  -0.077
    1   AR   Ar  245   5.515   5.580   2.380
    1   AR   Ar  246   6.338   6.424   1.861
    1   AR   Ar  247   5.457   3.049   1.708
    1   AR   Ar  248   6.021   0.016   0.900
    1   AR   Ar  249   5.775   5.006   3.241
    1   AR   Ar  250   5.012   6.344   4.234
    1   AR   Ar  251   5.430   5.422   4.487
    1   AR   Ar  252   5.668   5.904   3.636
    1   AR   Ar  253   5.479   5.166   5.547
    1   AR   Ar  254   5.251   5.924   6.428
    1   AR   Ar  255   5.258   4.676   6.719
    1   AR   Ar  256   6.098   6.355   4.762
    7.12000  7.12000 12.00000
Argon-slab step 1290
  256
    1   AR   Ar    1   0.451   0.850  -1.038
    1   AR   Ar    2   6.840   0.851   1.213
    1   AR   Ar    3   0.252   6.815   0.423
    1   AR   Ar    4   0.876   0.607   0.043
    1   AR   Ar    5   7.083   5.967   1.149
    1   AR   Ar    6   0.487   0.250   2.926
    1   AR   Ar    7   0.207   5.679   2.191
    1   AR   Ar    8   0.247   6.929   1.744
    1   AR   Ar    9   0.945   0.840   3.766
    1   AR   Ar   10   0.005   1.798   4.415
    1   AR   Ar   11   2.249   6.942   4.332
    1   AR   Ar   12   1.123   1.147   2.680
    1   AR   Ar   13   5.989   1.161   4.574
    1   AR   Ar   14   0.040   1.842   5.457
    1   AR   Ar   15   6.536   5.475   8.376
    1   AR   Ar   16   0.571   1.125   4.827
    1   AR   Ar   17   0.051   1.603  -0.299
    1   AR   Ar   18   6.900   3.580   0.189
    1   AR   Ar   19   0.319   1.673   0.867
    1   AR   Ar   20   1.015   2.687  -2.211
    1   AR   Ar   21   6.779   0.637   2.362
    1   AR   Ar   22   0.186   1.942   2.354
    1   AR   Ar   23   0.503   1.126   1.888
    1   AR   Ar   24   7.108   2.954   1.217
    1   AR   Ar   25   0.005   1.271   3.147
    1   AR   Ar   26   6.064   1.603   3.163
    1   AR   Ar   27   1.942   0.863   3.771
    1   AR   Ar   28   0.985   2.438   4.534
    1   AR   Ar   29   6.180   1.878   5.777
    1   AR   Ar   30   7.033   2.956   6.320
    1   AR   Ar   31   0.457   1.078   7.517
    1   AR   Ar   32   2.026   2.790   5.585
    1   AR   Ar   33   1.143   3.821  -1.784
    1   AR   Ar   34   0.771   5.266   1.499
    1   AR   Ar   35   0.381   3.952   1.547
    1   AR   Ar   36   1.725   7.022  -1.976
    1   AR   Ar   37   0.271   3.115   2.220
    1   AR   Ar   38   0.089   4.672   2.072
    1   AR   Ar   39   0.903   4.073   2.714
    1   AR   Ar   40   1.391   4.220   1.683
    1   AR   Ar   41   0.762   2.151   3.148
    1   AR   Ar   42   6.646   5.040   5.240
    1   AR   Ar   43   6.905   2.774   5.146
    1   AR   Ar   44   0.527   3.164   3.715
    1   AR   Ar   45   0.721   3.577   5.095
    1   AR   Ar   46   6.158   5.376   6.650
    1   AR   Ar   47   0.173   3.811   7.181
    1   AR   Ar   48   6.910   6.811   6.294
    1   AR   Ar   49   6.486   5.155  -1.729
    1   AR   Ar   50   6.376   5.340   1.750
    1   AR   Ar   51   1.395   4.680   0.665
    1   AR   Ar   52   0.272   4.994   0.101
    1   AR   Ar   53   6.482   5.914   2.835
    1   AR   Ar   54   0.369   6.250   3.114
    1   AR   Ar   55   0.142   5.271   3.505
    1   AR   Ar   56   1.157   6.239   1.115
    1   AR   Ar   57   7.001   3.892   2.979
    1   AR   Ar   58   0.060   5.850   4.335
    1   AR   Ar   59   2.077   5.717   5.120
    1   AR   Ar   60   1.207   7.067   4.011
    1   AR   Ar   61   6.253   5.966   5.683
    1   AR   Ar   62   0.279   6.364   5.450
    1   AR   Ar   63   1.326   5.345   6.132
    1   AR   Ar   64   1.360   6.540   4.930
    1   AR   Ar   65   2.841   7.118   0.023
    1   AR   Ar   66   1.566   0.923   1.412
    1   AR   Ar   67   3.042   6.133   0.455
    1   AR   Ar   68   3.674   0.650  -0.719
    1   AR   Ar   69   1.674   6.847   0.225
    1   AR   Ar   70   1.350   7.058   2.066
    1   AR   Ar   71   2.715   0.663   1.361
    1   AR   Ar   72   3.650   0.389   0.765
    1   AR   Ar   73   1.820   6.720   3.153
    1   AR   Ar   74   1.772   0.897   4.842
    1   AR   Ar   75   3.412   0.333   5.290
    1   AR   Ar   76   2.063   0.612   2.501
    1   AR   Ar   77   2.311   0.166   5.503
    1   AR   Ar   78   1.308   0.469   5.810
    1   AR   Ar   79   4.697   6.903   6.935
    1   AR   Ar   80   3.027   6.411   5.325
    1   AR   Ar   81   1.783   1.196   0.262
    1   AR   Ar   82   0.747   3.410   0.456
    1   AR   Ar   83   2.291   1.665   1.013
    1   AR   Ar   84   2.387   3.605  -3.704
    1   AR   Ar   85   0.960   2.351   0.432
    1   AR   Ar   86   1.960   3.452   2.038
    1   AR   Ar   87   2.061   1.624   2.095
    1   AR   Ar   88   2.750   3.305   1.392
    1   AR   Ar   89   1.144   2.050   1.892
    1   AR   Ar   90   2.583   2.060   4.896
    1   AR   Ar   91   1.992   2.019   3.987
    1   AR   Ar   92   1.714   2.136   2.929
    1   AR   Ar   93   1.427   1.774   5.371
    1   AR   Ar   94   3.126   0.646   8.010
    1   AR   Ar   95   3.158   7.044   6.250
    1   AR   Ar   96   2.342   0.781   6.585
    1   AR   Ar   97   3.152   2.819  -0.566
    1   AR   Ar   98   2.499   4.300   1.656
    1   AR   Ar   99   3.719   2.964  -1.648
    1   AR   Ar  100   2.064   4.480  -0.694
    1   AR   Ar  101   1.037   2.951   1.400
    1   AR   Ar  102   2.454   3.868   3.716
    1   AR   Ar  103   1.836   3.471   0.612
    1   AR   Ar  104   2.914   3.919  -0.742
    1   AR   Ar  105   1.910   3.112   3.264
    1   AR   Ar  106   2.278   3.005   4.423
    1   AR   Ar  107   2.630   4.279   5.337
    1   AR   Ar  108   3.311   3.028   3.867
    1   AR   Ar  109   1.722   4.020   4.458
    1   AR   Ar  110   1.256   4.632   5.134
    1   AR   Ar  111   4.359   4.368   7.234
    1   AR   Ar  112   1.739   4.173   5.977
    1   AR   Ar  113   2.419   4.642   0.456
    1   AR   Ar  114   2.720   5.270   1.256
    1   AR   Ar  115   3.215   5.020  -0.087
    1   AR   Ar  116   4.022   6.960  -0.117
    1   AR   Ar  117   1.287   4.811   3.560
    1   AR   Ar  118   1.255   6.062   2.469
    1   AR   Ar  119   1.965   4.272   2.655
    1   AR   Ar  120   1.752   5.170   2.106
    1   AR   Ar  121   6.539   4.604   3.770
    1   AR   Ar  122   2.777   6.021   4.248
    1   AR   Ar  123   2.072   5.059   4.356
    1   AR   Ar  124   2.323   5.739   3.170
    1   AR   Ar  125   0.285   4.624   4.486
    1   AR   Ar  126   1.074   6.482   6.098
    1   AR   Ar  127   2.264   5.281   7.276
    1   AR   Ar  128   2.050   6.220   6.346
    1   AR   Ar  129   1.994   6.994   1.153
    1   AR   Ar  130   4.509   7.109  -1.643
    1   AR   Ar  131   4.611   6.327   0.639
    1   AR   Ar  132   6.346   2.408  -1.070
    1   AR   Ar  133   3.494   0.485   2.348
    1   AR   Ar  134   4.083   1.369   2.501
    1   AR   Ar  135   4.645   0.466   2.947
    1   AR   Ar  136   4.098   0.649   1.611
    1   AR   Ar  137   2.810   0.063   3.188
    1   AR   Ar  138   4.951   1.322   4.984
    1   AR   Ar  139   5.168   0.181   3.961
    1   AR   Ar  140   4.314   0.887   3.999
    1   AR   Ar  141   4.051   0.000   4.387
    1   AR   Ar  142   4.313   6.956   5.405
    1   AR   Ar  143   5.601   6.931   6.025
    1   AR   Ar  144   5.044   0.879   7.109
    1   AR   Ar  145   3.125   3.267   0.309
    1   AR   Ar  146   4.329   2.997   1.285
    1   AR   Ar  147   5.484   2.127  -0.150
    1   AR   Ar  148   5.902   3.403  -2.028
    1   AR   Ar  149   4.539   1.339   0.992
    1   AR   Ar  150   3.112   1.475   2.547
    1   AR   Ar  151   3.573   1.939   3.492
    1   AR   Ar  152   2.881   2.397   2.069
    1   AR   Ar  153   3.127   0.887   4.215
    1   AR   Ar  154   3.851   2.102   4.633
    1   AR   Ar  155   5.897   0.802   5.735
    1   AR   Ar  156   4.310   3.526   3.774
    1   AR   Ar  157   3.989   1.650   5.577
    1   AR   Ar  158   2.246   1.864   6.180
    1   AR   Ar  159   4.545   0.698   6.003
    1   AR   Ar  160   4.357   2.832   6.072
    1   AR   Ar  161   4.959   3.160  -0.049
    1   AR   Ar  162   4.709   5.358   0.420
    1   AR   Ar  163   5.955   3.363  -0.531
    1   AR   Ar  164   5.200   5.174   1.334
    1   AR   Ar  165   3.244   3.408   2.863
    1   AR   Ar  166   2.883   4.912   3.082
    1   AR   Ar  167   4.680   3.134   2.647
    1   AR   Ar  168   3.847   3.974   0.311
    1   AR   Ar  169   2.717   2.439   3.140
    1   AR   Ar  170   3.325   4.294   4.221
    1   AR   Ar  171   4.090   3.528   4.881
    1   AR   Ar  172   4.320   4.549   4.384
    1   AR   Ar  173   3.033   2.616   6.043
    1   AR   Ar  174   4.173   5.021   6.101
    1   AR   Ar  175   4.555   3.924   6.160
    1   AR   Ar  176   3.272   5.400   4.916
    1   AR   Ar  177   5.670   5.756  -0.551
    1   AR   Ar  178   3.978   6.739   1.428
    1   AR   Ar  179   3.675   5.714   1.216
    1   AR   Ar  180   3.889   4.424  -0.749
    1   AR   Ar  181   2.823   5.679   2.198
    1   AR   Ar  182   2.637   6.802   2.204
    1   AR   Ar  183   3.451   4.622   2.068
    1   AR   Ar  184   4.232   6.020   2.156
    1   AR   Ar  185   1.369   5.859   4.133
    1   AR   Ar  186   3.599   5.358   3.772
    1   AR   Ar  187   4.764   5.383   3.644
    1   AR   Ar  188   3.541   6.158   2.881
    1   AR   Ar  189   2.741   5.207   5.823
    1   AR   Ar  190   4.212   6.070   6.109
    1   AR   Ar  191   5.151   6.152   5.229
    1   AR   Ar  192   4.200   6.050   4.713
    1   AR   Ar  193   6.255   6.914  -0.326
    1   AR   Ar  194   5.371   0.220  -0.577
    1   AR   Ar  195   5.618   0.981   0.615
    1   AR   Ar  196   6.189   1.409  -0.472
    1   AR   Ar  197   4.930   0.304   0.946
    1   AR   Ar  198   5.973   1.111   1.599
    1   AR   Ar  199   5.211   0.369   1.885
    1   AR   Ar  200   6.349   1.772   0.899
    1   AR   Ar  201   4.843   6.330   3.038
    1   AR   Ar  202   5.138   1.575   3.900
    1   AR   Ar  203   0.059   6.938   4.528
    1   AR   Ar  204   5.852   0.429   2.873
    1   AR   Ar  205   6.200   6.772   3.552
    1   AR   Ar  206   5.409   7.119   4.988
    1   AR   Ar  207   0.239   0.334   5.640
    1   AR   Ar  208   6.699   0.536   3.709
    1   AR   Ar  209   6.754   2.743  -2.090
    1   AR   Ar  210   5.131   1.971   1.563
    1   AR   Ar  211   6.571   2.518  -0.018
    1   AR   Ar  212   6.514   4.583  -0.566
    1   AR   Ar  213   3.875   2.413   2.523
    1   AR   Ar  214   4.227   3.820   2.058
    1   AR   Ar  215   5.936   2.165   2.106
    1   AR   Ar  216   6.342   3.743   1.774
    1   AR   Ar  217   5.102   2.718   3.750
    1   AR   Ar  218   4.710   2.442   5.139
    1   AR   Ar  219   5.176   1.426   2.426
    1   AR   Ar  220   5.774   3.372   3.151
    1   AR   Ar  221   6.407   0.234   5.058
    1   AR   Ar  222   5.167   1.836   5.992
    1   AR   Ar  223   6.281   0.938   6.799
    1   AR   Ar  224   5.949   2.907   5.627
    1   AR   Ar  225   5.054   4.408  -0.005
    1   AR   Ar  226   4.653   4.845   2.553
    1   AR   Ar  227   6.819   4.622   0.846
    1   AR   Ar  228   6.015   5.886   0.763
    1   AR   Ar  229   6.068   4.103   0.388
    1   AR   Ar  230   3.737   4.348   3.202
    1   AR   Ar  231   6.592   2.750   2.799
    1   AR   Ar  232   5.117   4.018   1.054
    1   AR   Ar  233   6.075   2.150   4.244
    1   AR   Ar  234   5.962   4.166   4.927
    1   AR   Ar  235   6.794   3.395   4.181
    1   AR   Ar  236   5.292   4.229   3.753
    1   AR   Ar  237   5.276   3.479   4.693
    1   AR   Ar  238   4.819   4.304   5.255
    1   AR   Ar  239   6.112   4.505   7.633
    1   AR   Ar  240   6.160   4.403   5.978
    1   AR   Ar  241   6.700   0.549   0.180
    1   AR   Ar  242   5.300   6.431   1.669
    1   AR   Ar  243   5.996   4.512   2.314
    1   AR   Ar  244   6.860   5.948  -0.071
    1   AR   Ar  245   5.521   5.602   2.386
    1   AR   Ar  246   6.375   6.477   1.860
    1   AR   Ar  247   5.436   3.023   1.667
    1   AR   Ar  248   6.030   0.013   0.884
    1   AR   Ar  249   5.739   5.003   3.257
    1   AR   Ar  250   5.004   6.374   4.213
    1   AR   Ar  251   5.405   5.420   4.480
    1   AR   Ar  252   5.666   5.893   3.651
    1   AR   Ar  253   5.460   5.155   5.525
    1   AR   Ar  254   5.248   5.953   6.460
    1   AR   Ar  255   5.273   4.658   6.738
    1   AR   Ar  256   6.102   6.366   4.768
    7.12000  7.12000 12.00000
Argon-slab step 1295
  256
    1   AR   Ar    1   0.440   0.854  -1.049
    1   AR   Ar    2   6.859   0.837   1.212
    1   AR   Ar    3   0.246   6.821   0.423
    1   AR   Ar    4   0.846   0.635   0.036
    1   AR   Ar    5   7.069   5.971   1.148
    1   AR   Ar    6   0.509   0.221   2.914
    1   AR   Ar    7   0.211   5.681   2.191
    1   AR   Ar    8   0.246   6.963   1.732
    1   AR   Ar    9   0.941   0.859   3.771
    1   AR   Ar   10   0.011   1.800   4.370
    1   AR   Ar   11   2.258   6.963   4.310
    1   AR   Ar   12   1.133   1.138   2.719
    1   AR   Ar   13   5.984   1.179   4.589
    1   AR   Ar   14   0.016   1.857   5.461
    1   AR   Ar   15   6.533   5.451   8.378
    1   AR   Ar   16   0.553   1.135   4.851
    1   AR   Ar   17   0.055   1.608  -0.304
    1   AR   Ar   18   6.893   3.596   0.167
    1   AR   Ar   19   0.326   1.671   0.875
    1   AR   Ar   20   1.007   2.638  -2.200
    1   AR   Ar   21   6.761   0.645   2.382
    1   AR   Ar   22   0.168   1.939   2.328
    1   AR   Ar   23   0.531   1.123   1.882
    1   AR   Ar   24   7.105   2.961   1.225
    1   AR   Ar   25   0.024   1.267   3.159
    1   AR   Ar   26   6.070   1.588   3.196
    1   AR   Ar   27   1.986   0.842   3.760
    1   AR   Ar   28   0.979   2.443   4.507
    1   AR   Ar   29   6.181   1.842   5.779
    1   AR   Ar   30   7.045   2.959   6.330
    1   AR   Ar   31   0.452   1.077   7.530
    1   AR   Ar   32   2.040   2.798   5.557
    1   AR   Ar   33   1.178   3.812  -1.798
    1   AR   Ar   34   0.809   5.281   1.496
    1   AR   Ar   35   0.393   3.954   1.525
    1   AR   Ar   36   1.737   6.998  -1.974
    1   AR   Ar   37   0.258   3.093   2.229
    1   AR   Ar   38   0.055   4.658   2.083
    1   AR   Ar   39   0.887   4.073   2.702
    1   AR   Ar   40   1.403   4.216   1.690
    1   AR   Ar   41   0.753   2.142   3.145
    1   AR   Ar   42   6.664   5.087   5.230
    1   AR   Ar   43   6.891   2.792   5.165
    1   AR   Ar   44   0.542   3.149   3.690
    1   AR   Ar   45   0.712   3.581   5.091
    1   AR   Ar   46   6.156   5.395   6.692
    1   AR   Ar   47   0.181   3.831   7.156
    1   AR   Ar   48   6.891   6.830   6.288
    1   AR   Ar   49   6.470   5.171  -1.732
    1   AR   Ar   50   6.390   5.317   1.752
    1   AR   Ar   51   1.401   4.690   0.680
    1   AR   Ar   52   0.272   4.977   0.075
    1   AR   Ar   53   6.448   5.901   2.866
    1   AR   Ar   54   0.394   6.251   3.107
    1   AR   Ar   55   0.137   5.270   3.514
    1   AR   Ar   56   1.196   6.232   1.108
    1   AR   Ar   57   6.994   3.865   3.001
    1   AR   Ar   58   0.009   5.849   4.376
    1   AR   Ar   59   2.090   5.713   5.141
    1   AR   Ar   60   1.219   7.060   4.019
    1   AR   Ar   61   6.250   5.952   5.658
    1   AR   Ar   62   0.271   6.373   5.462
    1   AR   Ar   63   1.332   5.384   6.156
    1   AR   Ar   64   1.365   6.531   4.901
    1   AR   Ar   65   2.860   0.007   0.020
    1   AR   Ar   66   1.552   0.947   1.381
    1   AR   Ar   67   3.044   6.119   0.449
    1   AR   Ar   68   3.665   0.629  -0.731
    1   AR   Ar   69   1.694   6.847   0.198
    1   AR   Ar   70   1.347   7.052   2.056
    1   AR   Ar   71   2.679   0.661   1.364
    1   AR   Ar   72   3.659   0.406   0.784
    1   AR   Ar   73   1.816   6.725   3.144
    1   AR   Ar   74   1.800   0.886   4.836
    1   AR   Ar   75   3.435   0.322   5.309
    1   AR   Ar   76   2.045   0.619   2.519
    1   AR   Ar   77   2.309   0.162   5.476
    1   AR   Ar   78   1.260   0.486   5.832
    1   AR   Ar   79   4.710   6.879   6.978
    1   AR   Ar   80   3.066   6.382   5.327
    1   AR   Ar   81   1.748   1.211   0.255
    1   AR   Ar   82   0.741   3.397   0.467
    1   AR   Ar   83   2.294   1.683   1.007
    1   AR   Ar   84   2.402   3.617  -3.751
    1   AR   Ar   85   0.970   2.354   0.413
    1   AR   Ar   86   1.951   3.442   2.035
    1   AR   Ar   87   2.053   1.626   2.114
    1   AR   Ar   88   2.746   3.288   1.343
    1   AR   Ar   89   1.124   2.035   1.892
    1   AR   Ar   90   2.596   2.085   4.881
    1   AR   Ar   91   2.004   2.015   3.972
    1   AR   Ar   92   1.718   2.130   2.921
    1   AR   Ar   93   1.437   1.762   5.383
    1   AR   Ar   94   3.142   0.633   7.988
    1   AR   Ar   95   3.160   7.057   6.255
    1   AR   Ar   96   2.348   0.792   6.592
    1   AR   Ar   97   3.188   2.817  -0.597
    1   AR   Ar   98   2.492   4.326   1.663
    1   AR   Ar   99   3.747   2.969  -1.662
    1   AR   Ar  100   2.072   4.425  -0.672
    1   AR   Ar  101   1.072   2.936   1.381
    1   AR   Ar  102   2.478   3.869   3.727
    1   AR   Ar  103   1.843   3.487   0.595
    1   AR   Ar  104   2.897   3.915  -0.763
    1   AR   Ar  105   1.889   3.141   3.288
    1   AR   Ar  106   2.277   3.015   4.421
    1   AR   Ar  107   2.630   4.273   5.334
    1   AR   Ar  108   3.338   3.036   3.879
    1   AR   Ar  109   1.750   4.053   4.443
    1   AR   Ar  110   1.246   4.613   5.149
    1   AR   Ar  111   4.349   4.339   7.227
    1   AR   Ar  112   1.740   4.218   6.024
    1   AR   Ar  113   2.438   4.643   0.507
    1   AR   Ar  114   2.716   5.297   1.253
    1   AR   Ar  115   3.206   5.042  -0.105
    1   AR   Ar  116   4.012   6.979  -0.122
    1   AR   Ar  117   1.268   4.793   3.564
    1   AR   Ar  118   1.254   6.087   2.473
    1   AR   Ar  119   1.995   4.264   2.654
    1   AR   Ar  120   1.765   5.181   2.107
    1   AR   Ar  121   6.539   4.605   3.759
    1   AR   Ar  122   2.756   6.016   4.252
    1   AR   Ar  123   2.080   5.069   4.343
    1   AR   Ar  124   2.313   5.733   3.152
    1   AR   Ar  125   0.284   4.654   4.483
    1   AR   Ar  126   1.082   6.487   6.116
    1   AR   Ar  127   2.262   5.261   7.268
    1   AR   Ar  128   2.046   6.211   6.353
    1   AR   Ar  129   1.987   6.983   1.182
    1   AR   Ar  130   4.481   7.114  -1.619
    1   AR   Ar  131   4.609   6.330   0.652
    1   AR   Ar  132   6.337   2.435  -1.073
    1   AR   Ar  133   3.502   0.482   2.360
    1   AR   Ar  134   4.100   1.377   2.491
    1   AR   Ar  135   4.651   0.457   2.980
    1   AR   Ar  136   4.093   0.617   1.632
    1   AR   Ar  137   2.791   0.055   3.236
    1   AR   Ar  138   4.946   1.334   4.981
    1   AR   Ar  139   5.154   0.189   3.934
    1   AR   Ar  140   4.296   0.892   4.013
    1   AR   Ar  141   4.053   0.002   4.391
    1   AR   Ar  142   4.332   6.975   5.356
    1   AR   Ar  143   5.612   6.916   5.998
    1   AR   Ar  144   5.063   0.878   7.111
    1   AR   Ar  145   3.116   3.275   0.321
    1   AR   Ar  146   4.330   2.990   1.289
    1   AR   Ar  147   5.514   2.092  -0.166
    1   AR   Ar  148   5.890   3.419  -2.035
    1   AR   Ar  149   4.552   1.345   0.974
    1   AR   Ar  150   3.100   1.448   2.532
    1   AR   Ar  151   3.551   1.931   3.516
    1   AR   Ar  152   2.872   2.373   2.081
    1   AR   Ar  153   3.108   0.865   4.208
    1   AR   Ar  154   3.851   2.095   4.642
    1   AR   Ar  155   5.898   0.841   5.754
    1   AR   Ar  156   4.297   3.547   3.773
    1   AR   Ar  157   4.006   1.670   5.607
    1   AR   Ar  158   2.292   1.880   6.163
    1   AR   Ar  159   4.533   0.675   5.977
    1   AR   Ar  160   4.330   2.816   6.035
    1   AR   Ar  161   4.962   3.167  -0.038
    1   AR   Ar  162   4.728   5.384   0.371
    1   AR   Ar  163   5.949   3.353  -0.549
    1   AR   Ar  164   5.192   5.160   1.332
    1   AR   Ar  165   3.228   3.389   2.866
    1   AR   Ar  166   2.878   4.919   3.070
    1   AR   Ar  167   4.671   3.118   2.645
    1   AR   Ar  168   3.833   3.972   0.298
    1   AR   Ar  169   2.754   2.450   3.130
    1   AR   Ar  170   3.320   4.315   4.210
    1   AR   Ar  171   4.056   3.532   4.902
    1   AR   Ar  172   4.289   4.561   4.392
    1   AR   Ar  173   3.011   2.598   6.040
    1   AR   Ar  174   4.170   4.986   6.096
    1   AR   Ar  175   4.567   3.894   6.141
    1   AR   Ar  176   3.282   5.401   4.890
    1   AR   Ar  177   5.683   5.753  -0.567
    1   AR   Ar  178   3.952   6.756   1.419
    1   AR   Ar  179   3.673   5.712   1.212
    1   AR   Ar  180   3.880   4.392  -0.771
    1   AR   Ar  181   2.842   5.652   2.220
    1   AR   Ar  182   2.669   6.806   2.196
    1   AR   Ar  183   3.453   4.631   2.102
    1   AR   Ar  184   4.255   6.013   2.190
    1   AR   Ar  185   1.377   5.863   4.134
    1   AR   Ar  186   3.609   5.357   3.779
    1   AR   Ar  187   4.761   5.387   3.659
    1   AR   Ar  188   3.512   6.148   2.876
    1   AR   Ar  189   2.756   5.185   5.814
    1   AR   Ar  190   4.217   6.053   6.106
    1   AR   Ar  191   5.127   6.118   5.260
    1   AR   Ar  192   4.205   6.041   4.727
    1   AR   Ar  193   6.239   6.896  -0.303
    1   AR   Ar  194   5.385   0.226  -0.602
    1   AR   Ar  195   5.624   0.991   0.636
    1   AR   Ar  196   6.163   1.386  -0.449
    1   AR   Ar  197   4.913   0.314   0.988
    1   AR   Ar  198   5.951   1.145   1.594
    1   AR   Ar  199   5.209   0.358   1.888
    1   AR   Ar  200   6.361   1.752   0.881
    1   AR   Ar  201   4.803   6.347   3.063
    1   AR   Ar  202   5.113   1.579   3.921
    1   AR   Ar  203   0.053   6.920   4.521
    1   AR   Ar  204   5.861   0.457   2.866
    1   AR   Ar  205   6.203   6.772   3.539
    1   AR   Ar  206   5.399   7.108   4.973
    1   AR   Ar  207   0.243   0.353   5.620
    1   AR   Ar  208   6.710   0.522   3.738
    1   AR   Ar  209   6.746   2.752  -2.086
    1   AR   Ar  210   5.115   1.966   1.559
    1   AR   Ar  211   6.558   2.526   0.023
    1   AR   Ar  212   6.526   4.577  -0.557
    1   AR   Ar  213   3.901   2.392   2.534
    1   AR   Ar  214   4.251   3.797   2.064
    1   AR   Ar  215   5.947   2.186   2.100
    1   AR   Ar  216   6.369   3.767   1.785
    1   AR   Ar  217   5.104   2.716   3.734
    1   AR   Ar  218   4.668   2.438   5.132
    1   AR   Ar  219   5.152   1.429   2.407
    1   AR   Ar  220   5.729   3.369   3.141
    1   AR   Ar  221   6.407   0.241   5.055
    1   AR   Ar  222   5.128   1.813   5.988
    1   AR   Ar  223   6.247   0.943   6.796
    1   AR   Ar  224   5.936   2.874   5.606
    1   AR   Ar  225   5.040   4.429  -0.032
    1   AR   Ar  226   4.633   4.840   2.555
    1   AR   Ar  227   6.856   4.613   0.850
    1   AR   Ar  228   6.024   5.879   0.760
    1   AR   Ar  229   6.063   4.100   0.344
    1   AR   Ar  230   3.755   4.358   3.188
    1   AR   Ar  231   6.603   2.783   2.815
    1   AR   Ar  232   5.109   4.020   1.079
    1   AR   Ar  233   6.074   2.146   4.201
    1   AR   Ar  234   5.994   4.176   4.924
    1   AR   Ar  235   6.804   3.414   4.170
    1   AR   Ar  236   5.292   4.235   3.759
    1   AR   Ar  237   5.308   3.517   4.708
    1   AR   Ar  238   4.798   4.302   5.225
    1   AR   Ar  239   6.123   4.527   7.665
    1   AR   Ar  240   6.180   4.402   5.990
    1   AR   Ar  241   6.678   0.551   0.176
    1   AR   Ar  242   5.286   6.438   1.685
    1   AR   Ar  243   5.993   4.512   2.350
    1   AR   Ar  244   6.863   5.957  -0.063
    1   AR   Ar  245   5.484   5.542   2.400
    1   AR   Ar  246   6.412   6.529   1.858
    1   AR   Ar  247   5.414   3.001   1.626
    1   AR   Ar  248   6.039   0.007   0.869
    1   AR   Ar  249   5.712   4.987   3.271
    1   AR   Ar  250   4.994   6.401   4.193
    1   AR   Ar  251   5.380   5.410   4.483
    1   AR   Ar  252   5.675   5.893   3.656
    1   AR   Ar  253   5.444   5.144   5.505
    1   AR   Ar  254   5.245   5.982   6.489
    1   AR   Ar  255   5.291   4.640   6.755
    1   AR   Ar  256   6.109   6.375   4.762
    7.12000  7.12000 12.00000
Argon-slab step 1300
  256
    1   AR   Ar    1   0.428   0.858  -1.059
    1   AR   Ar    2   6.881   0.816   1.211
    1   AR   Ar    3   0.239   6.828   0.425
    1   AR   Ar    4   0.813   0.663   0.029
    1   AR   Ar    5   7.058   5.974   1.145
    1   AR   Ar    6   0.532   0.193   2.901
    1   AR   Ar    7   0.211   5.690   2.198
    1   AR   Ar    8   0.248   6.998   1.721
    1   AR   Ar    9   0.929   0.889   3.774
    1   AR   Ar   10   0.011   1.811   4.317
    1   AR   Ar   11   2.267   6.987   4.288
    1   AR   Ar   12   1.144   1.132   2.761
    1   AR   Ar   13   5.979   1.192   4.604
    1   AR   Ar   14   0.002   1.856   5.470
    1   AR   Ar   15   6.530   5.427   8.380
    1   AR   Ar   16   0.544   1.136   4.880
    1   AR   Ar   17   0.069   1.617  -0.289
    1   AR   Ar   18   6.891   3.609   0.142
    1   AR   Ar   19   0.332   1.669   0.885
    1   AR   Ar   20   0.999   2.590  -2.188
    1   AR   Ar   21   6.744   0.652   2.397
    1   AR   Ar   22   0.139   1.944   2.302
    1   AR   Ar   23   0.560   1.111   1.870
    1   AR   Ar   24   7.099   2.968   1.229
    1   AR   Ar   25   0.047   1.267   3.171
    1   AR   Ar   26   6.076   1.572   3.228
    1   AR   Ar   27   2.034   0.821   3.746
    1   AR   Ar   28   0.974   2.448   4.479
    1   AR   Ar   29   6.178   1.810   5.784
    1   AR   Ar   30   7.055   2.961   6.339
    1   AR   Ar   31   0.447   1.076   7.542
    1   AR   Ar   32   2.053   2.806   5.528
    1   AR   Ar   33   1.204   3.799  -1.815
    1   AR   Ar   34   0.851   5.291   1.487
    1   AR   Ar   35   0.410   3.940   1.491
    1   AR   Ar   36   1.750   6.974  -1.971
    1   AR   Ar   37   0.253   3.075   2.238
    1   AR   Ar   38   0.014   4.652   2.106
    1   AR   Ar   39   0.872   4.072   2.688
    1   AR   Ar   40   1.446   4.215   1.709
    1   AR   Ar   41   0.735   2.143   3.133
    1   AR   Ar   42   6.683   5.132   5.217
    1   AR   Ar   43   6.878   2.816   5.179
    1   AR   Ar   44   0.563   3.132   3.660
    1   AR   Ar   45   0.703   3.584   5.086
    1   AR   Ar   46   6.153   5.411   6.733
    1   AR   Ar   47   0.188   3.851   7.130
    1   AR   Ar   48   6.867   6.848   6.285
    1   AR   Ar   49   6.454   5.188  -1.734
    1   AR   Ar   50   6.401   5.297   1.752
    1   AR   Ar   51   1.403   4.700   0.696
    1   AR   Ar   52   0.275   4.963   0.045
    1   AR   Ar   53   6.415   5.887   2.896
    1   AR   Ar   54   0.417   6.254   3.102
    1   AR   Ar   55   0.137   5.271   3.517
    1   AR   Ar   56   1.214   6.231   1.113
    1   AR   Ar   57   6.985   3.838   3.023
    1   AR   Ar   58   7.076   5.849   4.421
    1   AR   Ar   59   2.102   5.714   5.165
    1   AR   Ar   60   1.232   7.046   4.026
    1   AR   Ar   61   6.245   5.938   5.643
    1   AR   Ar   62   0.261   6.379   5.468
    1   AR   Ar   63   1.339   5.423   6.178
    1   AR   Ar   64   1.371   6.525   4.883
    1   AR   Ar   65   2.864   0.004   0.011
    1   AR   Ar   66   1.538   0.953   1.388
    1   AR   Ar   67   3.032   6.105   0.444
    1   AR   Ar   68   3.654   0.623  -0.718
    1   AR   Ar   69   1.711   6.847   0.168
    1   AR   Ar   70   1.346   7.041   2.048
    1   AR   Ar   71   2.727   0.640   1.340
    1   AR   Ar   72   3.662   0.423   0.788
    1   AR   Ar   73   1.811   6.732   3.136
    1   AR   Ar   74   1.824   0.871   4.816
    1   AR   Ar   75   3.453   0.315   5.324
    1   AR   Ar   76   2.032   0.624   2.537
    1   AR   Ar   77   2.308   0.156   5.448
    1   AR   Ar   78   1.218   0.504   5.854
    1   AR   Ar   79   4.723   6.856   7.019
    1   AR   Ar   80   3.077   6.382   5.347
    1   AR   Ar   81   1.711   1.225   0.247
    1   AR   Ar   82   0.738   3.388   0.481
    1   AR   Ar   83   2.299   1.703   1.006
    1   AR   Ar   84   2.417   3.628  -3.798
    1   AR   Ar   85   0.981   2.357   0.393
    1   AR   Ar   86   1.943   3.420   2.035
    1   AR   Ar   87   2.051   1.623   2.128
    1   AR   Ar   88   2.743   3.271   1.294
    1   AR   Ar   89   1.115   2.043   1.883
    1   AR   Ar   90   2.611   2.108   4.867
    1   AR   Ar   91   1.982   2.013   3.982
    1   AR   Ar   92   1.697   2.112   2.960
    1   AR   Ar   93   1.447   1.751   5.395
    1   AR   Ar   94   3.147   0.600   7.962
    1   AR   Ar   95   3.160   7.069   6.262
    1   AR   Ar   96   2.354   0.802   6.596
    1   AR   Ar   97   3.224   2.815  -0.634
    1   AR   Ar   98   2.483   4.350   1.676
    1   AR   Ar   99   3.775   2.976  -1.674
    1   AR   Ar  100   2.068   4.378  -0.647
    1   AR   Ar  101   1.113   2.922   1.361
    1   AR   Ar  102   2.508   3.873   3.734
    1   AR   Ar  103   1.852   3.504   0.580
    1   AR   Ar  104   2.893   3.903  -0.784
    1   AR   Ar  105   1.865   3.168   3.310
    1   AR   Ar  106   2.275   3.026   4.418
    1   AR   Ar  107   2.623   4.257   5.348
    1   AR   Ar  108   3.363   3.043   3.894
    1   AR   Ar  109   1.776   4.082   4.428
    1   AR   Ar  110   1.234   4.599   5.165
    1   AR   Ar  111   4.339   4.311   7.218
    1   AR   Ar  112   1.741   4.263   6.070
    1   AR   Ar  113   2.450   4.641   0.545
    1   AR   Ar  114   2.709   5.326   1.249
    1   AR   Ar  115   3.198   5.065  -0.123
    1   AR   Ar  116   4.004   6.994  -0.123
    1   AR   Ar  117   1.249   4.774   3.568
    1   AR   Ar  118   1.253   6.109   2.477
    1   AR   Ar  119   2.026   4.258   2.658
    1   AR   Ar  120   1.780   5.192   2.107
    1   AR   Ar  121   6.535   4.599   3.752
    1   AR   Ar  122   2.732   6.012   4.252
    1   AR   Ar  123   2.091   5.075   4.325
    1   AR   Ar  124   2.309   5.737   3.154
    1   AR   Ar  125   0.284   4.684   4.480
    1   AR   Ar  126   1.088   6.495   6.133
    1   AR   Ar  127   2.263   5.240   7.261
    1   AR   Ar  128   2.049   6.200   6.358
    1   AR   Ar  129   1.982   6.980   1.200
    1   AR   Ar  130   4.453   0.000  -1.593
    1   AR   Ar  131   4.607   6.344   0.670
    1   AR   Ar  132   6.327   2.462  -1.076
    1   AR   Ar  133   3.496   0.472   2.390
    1   AR   Ar  134   4.126   1.381   2.480
    1   AR   Ar  135   4.658   0.449   3.012
    1   AR   Ar  136   4.109   0.598   1.652
    1   AR   Ar  137   2.773   0.048   3.286
    1   AR   Ar  138   4.937   1.341   4.995
    1   AR   Ar  139   5.145   0.216   3.901
    1   AR   Ar  140   4.278   0.905   4.025
    1   AR   Ar  141   4.052   7.116   4.392
    1   AR   Ar  142   4.360   6.985   5.311
    1   AR   Ar  143   5.623   6.899   5.972
    1   AR   Ar  144   5.090   0.873   7.101
    1   AR   Ar  145   3.099   3.282   0.337
    1   AR   Ar  146   4.333   2.984   1.293
    1   AR   Ar  147   5.500   2.087  -0.161
    1   AR   Ar  148   5.877   3.435  -2.041
    1   AR   Ar  149   4.563   1.348   0.952
    1   AR   Ar  150   3.078   1.422   2.520
    1   AR   Ar  151   3.533   1.920   3.542
    1   AR   Ar  152   2.862   2.353   2.089
    1   AR   Ar  153   3.089   0.843   4.201
    1   AR   Ar  154   3.845   2.086   4.643
    1   AR   Ar  155   5.893   0.879   5.773
    1   AR   Ar  156   4.285   3.570   3.773
    1   AR   Ar  157   4.025   1.689   5.638
    1   AR   Ar  158   2.334   1.890   6.145
    1   AR   Ar  159   4.523   0.655   5.952
    1   AR   Ar  160   4.302   2.801   5.999
    1   AR   Ar  161   4.966   3.174  -0.026
    1   AR   Ar  162   4.747   5.402   0.320
    1   AR   Ar  163   5.944   3.345  -0.565
    1   AR   Ar  164   5.186   5.147   1.331
    1   AR   Ar  165   3.214   3.371   2.868
    1   AR   Ar  166   2.876   4.919   3.056
    1   AR   Ar  167   4.669   3.096   2.652
    1   AR   Ar  168   3.826   3.977   0.285
    1   AR   Ar  169   2.765   2.473   3.141
    1   AR   Ar  170   3.310   4.336   4.199
    1   AR   Ar  171   4.023   3.536   4.922
    1   AR   Ar  172   4.261   4.577   4.392
    1   AR   Ar  173   2.988   2.612   6.000
    1   AR   Ar  174   4.170   4.947   6.090
    1   AR   Ar  175   4.577   3.863   6.126
    1   AR   Ar  176   3.294   5.396   4.865
    1   AR   Ar  177   5.696   5.750  -0.581
    1   AR   Ar  178   3.925   6.765   1.412
    1   AR   Ar  179   3.670   5.718   1.213
    1   AR   Ar  180   3.871   4.360  -0.791
    1   AR   Ar  181   2.861   5.625   2.241
    1   AR   Ar  182   2.700   6.809   2.188
    1   AR   Ar  183   3.457   4.640   2.138
    1   AR   Ar  184   4.283   6.003   2.218
    1   AR   Ar  185   1.385   5.871   4.133
    1   AR   Ar  186   3.620   5.355   3.787
    1   AR   Ar  187   4.750   5.389   3.671
    1   AR   Ar  188   3.507   6.140   2.873
    1   AR   Ar  189   2.771   5.168   5.809
    1   AR   Ar  190   4.221   6.041   6.101
    1   AR   Ar  191   5.103   6.087   5.296
    1   AR   Ar  192   4.202   6.028   4.743
    1   AR   Ar  193   6.227   6.868  -0.280
    1   AR   Ar  194   5.393   0.235  -0.628
    1   AR   Ar  195   5.630   1.002   0.650
    1   AR   Ar  196   6.154   1.342  -0.440
    1   AR   Ar  197   4.887   0.317   1.010
    1   AR   Ar  198   5.924   1.177   1.602
    1   AR   Ar  199   5.213   0.352   1.915
    1   AR   Ar  200   6.374   1.738   0.859
    1   AR   Ar  201   4.766   6.364   3.088
    1   AR   Ar  202   5.090   1.585   3.940
    1   AR   Ar  203   0.051   6.903   4.511
    1   AR   Ar  204   5.865   0.485   2.861
    1   AR   Ar  205   6.209   6.765   3.533
    1   AR   Ar  206   5.382   7.104   4.957
    1   AR   Ar  207   0.246   0.374   5.596
    1   AR   Ar  208   6.722   0.510   3.771
    1   AR   Ar  209   6.744   2.754  -2.092
    1   AR   Ar  210   5.096   1.965   1.547
    1   AR   Ar  211   6.546   2.534   0.065
    1   AR   Ar  212   6.535   4.564  -0.543
    1   AR   Ar  213   3.924   2.374   2.545
    1   AR   Ar  214   4.270   3.782   2.063
    1   AR   Ar  215   5.971   2.191   2.100
    1   AR   Ar  216   6.400   3.785   1.791
    1   AR   Ar  217   5.104   2.713   3.719
    1   AR   Ar  218   4.624   2.427   5.126
    1   AR   Ar  219   5.133   1.425   2.395
    1   AR   Ar  220   5.686   3.368   3.130
    1   AR   Ar  221   6.409   0.249   5.054
    1   AR   Ar  222   5.086   1.790   5.983
    1   AR   Ar  223   6.213   0.948   6.792
    1   AR   Ar  224   5.919   2.842   5.584
    1   AR   Ar  225   5.046   4.430  -0.042
    1   AR   Ar  226   4.613   4.835   2.557
    1   AR   Ar  227   6.891   4.601   0.863
    1   AR   Ar  228   6.033   5.872   0.758
    1   AR   Ar  229   6.045   4.102   0.303
    1   AR   Ar  230   3.777   4.366   3.174
    1   AR   Ar  231   6.609   2.813   2.833
    1   AR   Ar  232   5.101   4.022   1.104
    1   AR   Ar  233   6.074   2.147   4.156
    1   AR   Ar  234   6.035   4.196   4.923
    1   AR   Ar  235   6.797   3.392   4.164
    1   AR   Ar  236   5.286   4.232   3.772
    1   AR   Ar  237   5.309   3.525   4.685
    1   AR   Ar  238   4.781   4.302   5.198
    1   AR   Ar  239   6.135   4.550   7.696
    1   AR   Ar  240   6.199   4.403   6.004
    1   AR   Ar  241   6.660   0.549   0.184
    1   AR   Ar  242   5.271   6.442   1.699
    1   AR   Ar  243   5.987   4.517   2.391
    1   AR   Ar  244   6.848   5.951  -0.074
    1   AR   Ar  245   5.418   5.521   2.404
    1   AR   Ar  246   6.446   6.579   1.858
    1   AR   Ar  247   5.391   2.983   1.586
    1   AR   Ar  248   6.048   7.120   0.857
    1   AR   Ar  249   5.688   4.971   3.284
    1   AR   Ar  250   4.980   6.417   4.179
    1   AR   Ar  251   5.356   5.394   4.494
    1   AR   Ar  252   5.692   5.902   3.656
    1   AR   Ar  253   5.435   5.158   5.498
    1   AR   Ar  254   5.242   6.010   6.516
    1   AR   Ar  255   5.310   4.624   6.769
    1   AR   Ar  256   6.116   6.383   4.745
    7.12000  7.12000 12.00000
Argon-slab step 1305
  256
    1   AR   Ar    1   0.416   0.862  -1.067
    1   AR   Ar    2   6.902   0.793   1.210
    1   AR   Ar    3   0.233   6.835   0.429
    1   AR   Ar    4   0.778   0.690   0.024
    1   AR   Ar    5   7.048   5.978   1.142
    1   AR   Ar    6   0.557   0.166   2.887
    1   AR   Ar    7   0.208   5.705   2.208
    1   AR   Ar    8   0.256   7.036   1.708
    1   AR   Ar    9   0.913   0.923   3.779
    1   AR   Ar   10   0.007   1.826   4.260
    1   AR   Ar   11   2.278   7.012   4.268
    1   AR   Ar   12   1.153   1.129   2.803
    1   AR   Ar   13   5.975   1.203   4.621
    1   AR   Ar   14   0.002   1.810   5.494
    1   AR   Ar   15   6.527   5.401   8.381
    1   AR   Ar   16   0.542   1.131   4.909
    1   AR   Ar   17   0.085   1.626  -0.272
    1   AR   Ar   18   6.894   3.617   0.115
    1   AR   Ar   19   0.340   1.667   0.895
    1   AR   Ar   20   0.991   2.543  -2.175
    1   AR   Ar   21   6.734   0.660   2.406
    1   AR   Ar   22   0.103   1.952   2.274
    1   AR   Ar   23   0.590   1.092   1.855
    1   AR   Ar   24   7.092   2.973   1.228
    1   AR   Ar   25   0.072   1.268   3.183
    1   AR   Ar   26   6.081   1.555   3.259
    1   AR   Ar   27   2.083   0.799   3.729
    1   AR   Ar   28   0.969   2.452   4.452
    1   AR   Ar   29   6.171   1.790   5.790
    1   AR   Ar   30   7.065   2.964   6.347
    1   AR   Ar   31   0.442   1.075   7.553
    1   AR   Ar   32   2.063   2.814   5.497
    1   AR   Ar   33   1.232   3.804  -1.807
    1   AR   Ar   34   0.894   5.295   1.475
    1   AR   Ar   35   0.428   3.937   1.465
    1   AR   Ar   36   1.762   6.951  -1.968
    1   AR   Ar   37   0.255   3.060   2.245
    1   AR   Ar   38   7.093   4.644   2.134
    1   AR   Ar   39   0.864   4.060   2.662
    1   AR   Ar   40   1.466   4.219   1.723
    1   AR   Ar   41   0.706   2.145   3.127
    1   AR   Ar   42   6.703   5.171   5.201
    1   AR   Ar   43   6.869   2.845   5.189
    1   AR   Ar   44   0.586   3.114   3.627
    1   AR   Ar   45   0.693   3.588   5.078
    1   AR   Ar   46   6.154   5.426   6.761
    1   AR   Ar   47   0.194   3.871   7.104
    1   AR   Ar   48   6.840   6.864   6.283
    1   AR   Ar   49   6.438   5.204  -1.734
    1   AR   Ar   50   6.408   5.281   1.750
    1   AR   Ar   51   1.401   4.709   0.714
    1   AR   Ar   52   0.282   4.951   0.011
    1   AR   Ar   53   6.386   5.884   2.891
    1   AR   Ar   54   0.438   6.258   3.101
    1   AR   Ar   55   0.143   5.275   3.517
    1   AR   Ar   56   1.230   6.232   1.118
    1   AR   Ar   57   6.997   3.808   3.047
    1   AR   Ar   58   7.023   5.847   4.467
    1   AR   Ar   59   2.114   5.718   5.191
    1   AR   Ar   60   1.243   7.032   4.027
    1   AR   Ar   61   6.237   5.928   5.639
    1   AR   Ar   62   0.248   6.383   5.470
    1   AR   Ar   63   1.317   5.386   6.173
    1   AR   Ar   64   1.377   6.523   4.880
    1   AR   Ar   65   2.856   7.114   0.000
    1   AR   Ar   66   1.525   0.957   1.396
    1   AR   Ar   67   3.020   6.092   0.438
    1   AR   Ar   68   3.640   0.625  -0.702
    1   AR   Ar   69   1.728   6.848   0.137
    1   AR   Ar   70   1.360   7.004   2.047
    1   AR   Ar   71   2.775   0.620   1.317
    1   AR   Ar   72   3.659   0.442   0.780
    1   AR   Ar   73   1.805   6.741   3.128
    1   AR   Ar   74   1.846   0.856   4.794
    1   AR   Ar   75   3.465   0.314   5.335
    1   AR   Ar   76   2.023   0.626   2.556
    1   AR   Ar   77   2.307   0.148   5.423
    1   AR   Ar   78   1.184   0.522   5.875
    1   AR   Ar   79   4.736   6.834   7.058
    1   AR   Ar   80   3.087   6.381   5.367
    1   AR   Ar   81   1.673   1.238   0.239
    1   AR   Ar   82   0.736   3.382   0.495
    1   AR   Ar   83   2.305   1.724   1.008
    1   AR   Ar   84   2.431   3.639  -3.845
    1   AR   Ar   85   0.995   2.359   0.373
    1   AR   Ar   86   1.939   3.386   2.037
    1   AR   Ar   87   2.052   1.616   2.138
    1   AR   Ar   88   2.737   3.255   1.252
    1   AR   Ar   89   1.120   2.070   1.854
    1   AR   Ar   90   2.628   2.130   4.856
    1   AR   Ar   91   1.959   2.010   3.993
    1   AR   Ar   92   1.688   2.095   2.998
    1   AR   Ar   93   1.454   1.755   5.411
    1   AR   Ar   94   3.152   0.568   7.935
    1   AR   Ar   95   3.159   7.079   6.270
    1   AR   Ar   96   2.360   0.811   6.599
    1   AR   Ar   97   3.260   2.813  -0.673
    1   AR   Ar   98   2.474   4.363   1.711
    1   AR   Ar   99   3.802   2.982  -1.686
    1   AR   Ar  100   2.048   4.339  -0.617
    1   AR   Ar  101   1.154   2.914   1.339
    1   AR   Ar  102   2.541   3.876   3.735
    1   AR   Ar  103   1.850   3.517   0.583
    1   AR   Ar  104   2.904   3.881  -0.806
    1   AR   Ar  105   1.838   3.193   3.331
    1   AR   Ar  106   2.273   3.039   4.414
    1   AR   Ar  107   2.615   4.238   5.357
    1   AR   Ar  108   3.386   3.050   3.911
    1   AR   Ar  109   1.798   4.106   4.414
    1   AR   Ar  110   1.221   4.588   5.181
    1   AR   Ar  111   4.328   4.282   7.207
    1   AR   Ar  112   1.743   4.309   6.117
    1   AR   Ar  113   2.433   4.646   0.538
    1   AR   Ar  114   2.699   5.357   1.248
    1   AR   Ar  115   3.192   5.087  -0.141
    1   AR   Ar  116   3.999   7.004  -0.119
    1   AR   Ar  117   1.230   4.755   3.573
    1   AR   Ar  118   1.253   6.123   2.479
    1   AR   Ar  119   2.057   4.255   2.669
    1   AR   Ar  120   1.797   5.203   2.108
    1   AR   Ar  121   6.529   4.586   3.750
    1   AR   Ar  122   2.706   6.009   4.249
    1   AR   Ar  123   2.106   5.081   4.305
    1   AR   Ar  124   2.320   5.751   3.183
    1   AR   Ar  125   0.284   4.714   4.476
    1   AR   Ar  126   1.093   6.503   6.147
    1   AR   Ar  127   2.264   5.220   7.253
    1   AR   Ar  128   2.060   6.189   6.363
    1   AR   Ar  129   1.978   6.993   1.198
    1   AR   Ar  130   4.425   0.006  -1.566
    1   AR   Ar  131   4.604   6.365   0.691
    1   AR   Ar  132   6.317   2.487  -1.077
    1   AR   Ar  133   3.483   0.454   2.426
    1   AR   Ar  134   4.149   1.378   2.470
    1   AR   Ar  135   4.663   0.443   3.038
    1   AR   Ar  136   4.141   0.593   1.675
    1   AR   Ar  137   2.757   0.043   3.335
    1   AR   Ar  138   4.926   1.346   5.014
    1   AR   Ar  139   5.141   0.255   3.867
    1   AR   Ar  140   4.259   0.925   4.034
    1   AR   Ar  141   4.045   7.103   4.383
    1   AR   Ar  142   4.398   6.984   5.277
    1   AR   Ar  143   5.636   6.882   5.946
    1   AR   Ar  144   5.120   0.881   7.085
    1   AR   Ar  145   3.077   3.284   0.348
    1   AR   Ar  146   4.335   2.977   1.297
    1   AR   Ar  147   5.473   2.092  -0.150
    1   AR   Ar  148   5.864   3.452  -2.046
    1   AR   Ar  149   4.570   1.347   0.926
    1   AR   Ar  150   3.059   1.431   2.512
    1   AR   Ar  151   3.519   1.905   3.570
    1   AR   Ar  152   2.852   2.338   2.093
    1   AR   Ar  153   3.070   0.819   4.194
    1   AR   Ar  154   3.827   2.073   4.636
    1   AR   Ar  155   5.881   0.902   5.789
    1   AR   Ar  156   4.276   3.594   3.774
    1   AR   Ar  157   4.043   1.706   5.671
    1   AR   Ar  158   2.344   1.906   6.133
    1   AR   Ar  159   4.515   0.639   5.930
    1   AR   Ar  160   4.270   2.787   5.971
    1   AR   Ar  161   4.970   3.183  -0.013
    1   AR   Ar  162   4.767   5.415   0.266
    1   AR   Ar  163   5.940   3.337  -0.579
    1   AR   Ar  164   5.181   5.136   1.332
    1   AR   Ar  165   3.201   3.359   2.867
    1   AR   Ar  166   2.877   4.911   3.044
    1   AR   Ar  167   4.675   3.068   2.667
    1   AR   Ar  168   3.825   3.989   0.271
    1   AR   Ar  169   2.769   2.496   3.154
    1   AR   Ar  170   3.294   4.356   4.189
    1   AR   Ar  171   3.990   3.539   4.940
    1   AR   Ar  172   4.241   4.591   4.386
    1   AR   Ar  173   2.973   2.608   5.967
    1   AR   Ar  174   4.171   4.907   6.083
    1   AR   Ar  175   4.588   3.833   6.114
    1   AR   Ar  176   3.308   5.387   4.842
    1   AR   Ar  177   5.711   5.747  -0.594
    1   AR   Ar  178   3.898   6.763   1.408
    1   AR   Ar  179   3.661   5.738   1.220
    1   AR   Ar  180   3.863   4.328  -0.810
    1   AR   Ar  181   2.878   5.598   2.260
    1   AR   Ar  182   2.729   6.813   2.181
    1   AR   Ar  183   3.460   4.651   2.173
    1   AR   Ar  184   4.315   5.991   2.238
    1   AR   Ar  185   1.393   5.874   4.122
    1   AR   Ar  186   3.631   5.354   3.795
    1   AR   Ar  187   4.732   5.389   3.677
    1   AR   Ar  188   3.518   6.134   2.873
    1   AR   Ar  189   2.786   5.155   5.808
    1   AR   Ar  190   4.225   6.030   6.093
    1   AR   Ar  191   5.079   6.065   5.332
    1   AR   Ar  192   4.194   6.013   4.760
    1   AR   Ar  193   6.216   6.832  -0.256
    1   AR   Ar  194   5.395   0.247  -0.655
    1   AR   Ar  195   5.635   1.013   0.654
    1   AR   Ar  196   6.150   1.290  -0.433
    1   AR   Ar  197   4.856   0.315   1.013
    1   AR   Ar  198   5.895   1.207   1.622
    1   AR   Ar  199   5.223   0.350   1.960
    1   AR   Ar  200   6.389   1.728   0.832
    1   AR   Ar  201   4.730   6.383   3.116
    1   AR   Ar  202   5.070   1.592   3.958
    1   AR   Ar  203   0.053   6.887   4.499
    1   AR   Ar  204   5.860   0.514   2.860
    1   AR   Ar  205   6.215   6.762   3.528
    1   AR   Ar  206   5.362   7.103   4.940
    1   AR   Ar  207   0.243   0.394   5.569
    1   AR   Ar  208   6.729   0.497   3.786
    1   AR   Ar  209   6.749   2.745  -2.114
    1   AR   Ar  210   5.077   1.970   1.531
    1   AR   Ar  211   6.533   2.541   0.106
    1   AR   Ar  212   6.543   4.551  -0.530
    1   AR   Ar  213   3.941   2.361   2.556
    1   AR   Ar  214   4.284   3.777   2.056
    1   AR   Ar  215   6.007   2.171   2.102
    1   AR   Ar  216   6.436   3.800   1.795
    1   AR   Ar  217   5.103   2.709   3.707
    1   AR   Ar  218   4.596   2.420   5.119
    1   AR   Ar  219   5.122   1.416   2.390
    1   AR   Ar  220   5.644   3.370   3.117
    1   AR   Ar  221   6.412   0.260   5.055
    1   AR   Ar  222   5.045   1.766   5.979
    1   AR   Ar  223   6.212   0.946   6.784
    1   AR   Ar  224   5.898   2.812   5.563
    1   AR   Ar  225   5.066   4.419  -0.041
    1   AR   Ar  226   4.591   4.829   2.560
    1   AR   Ar  227   6.924   4.588   0.882
    1   AR   Ar  228   6.040   5.866   0.756
    1   AR   Ar  229   6.018   4.107   0.265
    1   AR   Ar  230   3.802   4.373   3.162
    1   AR   Ar  231   6.610   2.839   2.857
    1   AR   Ar  232   5.093   4.023   1.128
    1   AR   Ar  233   6.072   2.151   4.111
    1   AR   Ar  234   6.080   4.223   4.922
    1   AR   Ar  235   6.787   3.372   4.159
    1   AR   Ar  236   5.274   4.219   3.795
    1   AR   Ar  237   5.297   3.521   4.649
    1   AR   Ar  238   4.770   4.303   5.175
    1   AR   Ar  239   6.146   4.574   7.725
    1   AR   Ar  240   6.217   4.404   6.017
    1   AR   Ar  241   6.660   0.528   0.178
    1   AR   Ar  242   5.256   6.443   1.711
    1   AR   Ar  243   5.980   4.524   2.432
    1   AR   Ar  244   6.832   5.944  -0.082
    1   AR   Ar  245   5.354   5.503   2.408
    1   AR   Ar  246   6.473   6.626   1.858
    1   AR   Ar  247   5.370   2.968   1.546
    1   AR   Ar  248   6.056   7.110   0.848
    1   AR   Ar  249   5.687   4.960   3.281
    1   AR   Ar  250   4.962   6.423   4.171
    1   AR   Ar  251   5.335   5.376   4.508
    1   AR   Ar  252   5.711   5.914   3.656
    1   AR   Ar  253   5.435   5.182   5.503
    1   AR   Ar  254   5.240   6.036   6.541
    1   AR   Ar  255   5.329   4.609   6.781
    1   AR   Ar  256   6.118   6.387   4.729
    7.12000  7.12000 12.00000
Argon-slab step 1310
  256
    1   AR   Ar    1   0.404   0.866  -1.074
    1   AR   Ar    2   6.919   0.767   1.209
    1   AR   Ar    3   0.226   6.842   0.435
    1   AR   Ar    4   0.738   0.717   0.019
    1   AR   Ar    5   7.041   5.982   1.139
    1   AR   Ar    6   0.582   0.144   2.873
    1   AR   Ar    7   0.204   5.722   2.218
    1   AR   Ar    8   0.273   7.077   1.695
    1   AR   Ar    9   0.907   0.924   3.786
    1   AR   Ar   10   0.003   1.840   4.201
    1   AR   Ar   11   2.288   7.035   4.253
    1   AR   Ar   12   1.161   1.130   2.840
    1   AR   Ar   13   5.971   1.212   4.639
    1   AR   Ar   14   0.010   1.767   5.515
    1   AR   Ar   15   6.523   5.376   8.382
    1   AR   Ar   16   0.545   1.127   4.933
    1   AR   Ar   17   0.101   1.635  -0.252
    1   AR   Ar   18   6.895   3.621   0.110
    1   AR   Ar   19   0.350   1.665   0.907
    1   AR   Ar   20   0.982   2.496  -2.163
    1   AR   Ar   21   6.734   0.669   2.408
    1   AR   Ar   22   0.063   1.961   2.245
    1   AR   Ar   23   0.617   1.071   1.842
    1   AR   Ar   24   7.084   2.977   1.224
    1   AR   Ar   25   0.097   1.270   3.194
    1   AR   Ar   26   6.087   1.535   3.285
    1   AR   Ar   27   2.127   0.780   3.709
    1   AR   Ar   28   0.964   2.456   4.425
    1   AR   Ar   29   6.163   1.796   5.799
    1   AR   Ar   30   7.074   2.966   6.353
    1   AR   Ar   31   0.436   1.074   7.564
    1   AR   Ar   32   2.069   2.823   5.464
    1   AR   Ar   33   1.260   3.809  -1.800
    1   AR   Ar   34   0.935   5.296   1.465
    1   AR   Ar   35   0.448   3.954   1.460
    1   AR   Ar   36   1.774   6.927  -1.965
    1   AR   Ar   37   0.267   3.048   2.249
    1   AR   Ar   38   7.057   4.631   2.167
    1   AR   Ar   39   0.880   4.075   2.646
    1   AR   Ar   40   1.434   4.220   1.713
    1   AR   Ar   41   0.668   2.148   3.124
    1   AR   Ar   42   6.725   5.199   5.183
    1   AR   Ar   43   6.863   2.874   5.197
    1   AR   Ar   44   0.611   3.098   3.593
    1   AR   Ar   45   0.683   3.590   5.070
    1   AR   Ar   46   6.168   5.439   6.743
    1   AR   Ar   47   0.200   3.890   7.077
    1   AR   Ar   48   6.811   6.881   6.281
    1   AR   Ar   49   6.422   5.219  -1.733
    1   AR   Ar   50   6.409   5.271   1.744
    1   AR   Ar   51   1.397   4.716   0.731
    1   AR   Ar   52   0.291   4.939  -0.022
    1   AR   Ar   53   6.362   5.882   2.872
    1   AR   Ar   54   0.455   6.262   3.105
    1   AR   Ar   55   0.152   5.283   3.514
    1   AR   Ar   56   1.245   6.234   1.124
    1   AR   Ar   57   7.013   3.781   3.072
    1   AR   Ar   58   6.971   5.843   4.509
    1   AR   Ar   59   2.110   5.712   5.209
    1   AR   Ar   60   1.249   7.022   4.021
    1   AR   Ar   61   6.225   5.925   5.645
    1   AR   Ar   62   0.235   6.386   5.470
    1   AR   Ar   63   1.296   5.348   6.167
    1   AR   Ar   64   1.384   6.523   4.894
    1   AR   Ar   65   2.850   7.105  -0.010
    1   AR   Ar   66   1.515   0.960   1.403
    1   AR   Ar   67   3.007   6.080   0.431
    1   AR   Ar   68   3.623   0.632  -0.690
    1   AR   Ar   69   1.745   6.849   0.107
    1   AR   Ar   70   1.373   6.979   2.043
    1   AR   Ar   71   2.820   0.602   1.299
    1   AR   Ar   72   3.657   0.462   0.762
    1   AR   Ar   73   1.799   6.752   3.121
    1   AR   Ar   74   1.851   0.847   4.783
    1   AR   Ar   75   3.475   0.317   5.341
    1   AR   Ar   76   2.020   0.623   2.575
    1   AR   Ar   77   2.308   0.136   5.399
    1   AR   Ar   78   1.160   0.541   5.897
    1   AR   Ar   79   4.749   6.814   7.096
    1   AR   Ar   80   3.098   6.380   5.386
    1   AR   Ar   81   1.636   1.252   0.233
    1   AR   Ar   82   0.733   3.380   0.509
    1   AR   Ar   83   2.310   1.745   1.013
    1   AR   Ar   84   2.446   3.650  -3.891
    1   AR   Ar   85   1.009   2.358   0.352
    1   AR   Ar   86   1.938   3.344   2.041
    1   AR   Ar   87   2.053   1.607   2.144
    1   AR   Ar   88   2.725   3.238   1.227
    1   AR   Ar   89   1.122   2.088   1.832
    1   AR   Ar   90   2.646   2.149   4.846
    1   AR   Ar   91   1.938   2.007   4.008
    1   AR   Ar   92   1.687   2.080   3.033
    1   AR   Ar   93   1.460   1.761   5.428
    1   AR   Ar   94   3.157   0.536   7.908
    1   AR   Ar   95   3.160   7.084   6.287
    1   AR   Ar   96   2.367   0.819   6.599
    1   AR   Ar   97   3.297   2.811  -0.711
    1   AR   Ar   98   2.471   4.377   1.742
    1   AR   Ar   99   3.818   3.003  -1.692
    1   AR   Ar  100   2.052   4.308  -0.619
    1   AR   Ar  101   1.197   2.917   1.316
    1   AR   Ar  102   2.574   3.877   3.727
    1   AR   Ar  103   1.848   3.532   0.588
    1   AR   Ar  104   2.924   3.852  -0.829
    1   AR   Ar  105   1.828   3.200   3.328
    1   AR   Ar  106   2.270   3.053   4.407
    1   AR   Ar  107   2.604   4.215   5.362
    1   AR   Ar  108   3.406   3.055   3.931
    1   AR   Ar  109   1.817   4.125   4.403
    1   AR   Ar  110   1.207   4.580   5.198
    1   AR   Ar  111   4.318   4.253   7.195
    1   AR   Ar  112   1.746   4.356   6.163
    1   AR   Ar  113   2.418   4.645   0.528
    1   AR   Ar  114   2.685   5.388   1.247
    1   AR   Ar  115   3.187   5.108  -0.159
    1   AR   Ar  116   3.997   7.007  -0.110
    1   AR   Ar  117   1.232   4.736   3.549
    1   AR   Ar  118   1.254   6.124   2.481
    1   AR   Ar  119   2.086   4.252   2.685
    1   AR   Ar  120   1.815   5.216   2.108
    1   AR   Ar  121   6.523   4.568   3.751
    1   AR   Ar  122   2.679   6.007   4.243
    1   AR   Ar  123   2.123   5.090   4.283
    1   AR   Ar  124   2.327   5.770   3.215
    1   AR   Ar  125   0.285   4.743   4.472
    1   AR   Ar  126   1.101   6.507   6.155
    1   AR   Ar  127   2.265   5.200   7.243
    1   AR   Ar  128   2.075   6.176   6.367
    1   AR   Ar  129   1.977   7.007   1.194
    1   AR   Ar  130   4.397   0.013  -1.537
    1   AR   Ar  131   4.602   6.389   0.714
    1   AR   Ar  132   6.309   2.509  -1.078
    1   AR   Ar  133   3.481   0.434   2.444
    1   AR   Ar  134   4.161   1.365   2.461
    1   AR   Ar  135   4.660   0.441   3.049
    1   AR   Ar  136   4.178   0.599   1.703
    1   AR   Ar  137   2.747   0.038   3.380
    1   AR   Ar  138   4.914   1.349   5.032
    1   AR   Ar  139   5.147   0.299   3.843
    1   AR   Ar  140   4.238   0.949   4.041
    1   AR   Ar  141   4.039   7.094   4.371
    1   AR   Ar  142   4.440   6.973   5.257
    1   AR   Ar  143   5.649   6.865   5.921
    1   AR   Ar  144   5.151   0.891   7.067
    1   AR   Ar  145   3.057   3.285   0.342
    1   AR   Ar  146   4.336   2.970   1.301
    1   AR   Ar  147   5.447   2.099  -0.138
    1   AR   Ar  148   5.851   3.468  -2.050
    1   AR   Ar  149   4.573   1.341   0.896
    1   AR   Ar  150   3.042   1.444   2.508
    1   AR   Ar  151   3.509   1.888   3.598
    1   AR   Ar  152   2.854   2.343   2.086
    1   AR   Ar  153   3.053   0.795   4.187
    1   AR   Ar  154   3.805   2.069   4.627
    1   AR   Ar  155   5.856   0.896   5.800
    1   AR   Ar  156   4.271   3.620   3.775
    1   AR   Ar  157   4.056   1.720   5.704
    1   AR   Ar  158   2.306   1.933   6.130
    1   AR   Ar  159   4.509   0.630   5.911
    1   AR   Ar  160   4.233   2.777   5.951
    1   AR   Ar  161   4.975   3.193   0.002
    1   AR   Ar  162   4.785   5.419   0.245
    1   AR   Ar  163   5.935   3.332  -0.591
    1   AR   Ar  164   5.177   5.125   1.333
    1   AR   Ar  165   3.191   3.354   2.863
    1   AR   Ar  166   2.875   4.912   3.053
    1   AR   Ar  167   4.688   3.039   2.687
    1   AR   Ar  168   3.828   4.004   0.255
    1   AR   Ar  169   2.764   2.513   3.169
    1   AR   Ar  170   3.275   4.378   4.181
    1   AR   Ar  171   3.958   3.542   4.958
    1   AR   Ar  172   4.240   4.583   4.373
    1   AR   Ar  173   3.000   2.622   5.963
    1   AR   Ar  174   4.174   4.866   6.075
    1   AR   Ar  175   4.598   3.803   6.105
    1   AR   Ar  176   3.322   5.374   4.822
    1   AR   Ar  177   5.727   5.745  -0.604
    1   AR   Ar  178   3.870   6.755   1.407
    1   AR   Ar  179   3.657   5.756   1.230
    1   AR   Ar  180   3.858   4.298  -0.828
    1   AR   Ar  181   2.894   5.571   2.274
    1   AR   Ar  182   2.720   6.787   2.170
    1   AR   Ar  183   3.465   4.661   2.206
    1   AR   Ar  184   4.350   5.976   2.251
    1   AR   Ar  185   1.392   5.870   4.116
    1   AR   Ar  186   3.641   5.353   3.801
    1   AR   Ar  187   4.712   5.389   3.680
    1   AR   Ar  188   3.527   6.131   2.880
    1   AR   Ar  189   2.803   5.146   5.810
    1   AR   Ar  190   4.229   6.021   6.083
    1   AR   Ar  191   5.053   6.060   5.368
    1   AR   Ar  192   4.181   5.997   4.776
    1   AR   Ar  193   6.207   6.832  -0.236
    1   AR   Ar  194   5.396   0.261  -0.682
    1   AR   Ar  195   5.637   1.021   0.652
    1   AR   Ar  196   6.147   1.237  -0.425
    1   AR   Ar  197   4.828   0.306   1.005
    1   AR   Ar  198   5.868   1.234   1.649
    1   AR   Ar  199   5.235   0.351   2.012
    1   AR   Ar  200   6.406   1.721   0.805
    1   AR   Ar  201   4.697   6.403   3.145
    1   AR   Ar  202   5.053   1.601   3.974
    1   AR   Ar  203   0.058   6.874   4.486
    1   AR   Ar  204   5.847   0.541   2.864
    1   AR   Ar  205   6.223   6.763   3.521
    1   AR   Ar  206   5.343   7.107   4.919
    1   AR   Ar  207   0.235   0.408   5.543
    1   AR   Ar  208   6.735   0.485   3.791
    1   AR   Ar  209   6.755   2.737  -2.135
    1   AR   Ar  210   5.077   1.948   1.527
    1   AR   Ar  211   6.521   2.544   0.138
    1   AR   Ar  212   6.553   4.538  -0.520
    1   AR   Ar  213   3.946   2.357   2.558
    1   AR   Ar  214   4.296   3.779   2.047
    1   AR   Ar  215   6.045   2.153   2.106
    1   AR   Ar  216   6.474   3.812   1.796
    1   AR   Ar  217   5.099   2.702   3.697
    1   AR   Ar  218   4.587   2.415   5.106
    1   AR   Ar  219   5.127   1.403   2.391
    1   AR   Ar  220   5.606   3.376   3.102
    1   AR   Ar  221   6.413   0.273   5.056
    1   AR   Ar  222   5.008   1.743   5.977
    1   AR   Ar  223   6.220   0.942   6.776
    1   AR   Ar  224   5.871   2.784   5.543
    1   AR   Ar  225   5.081   4.406  -0.040
    1   AR   Ar  226   4.566   4.820   2.564
    1   AR   Ar  227   6.953   4.575   0.903
    1   AR   Ar  228   6.046   5.860   0.755
    1   AR   Ar  229   5.986   4.113   0.233
    1   AR   Ar  230   3.827   4.378   3.152
    1   AR   Ar  231   6.604   2.859   2.886
    1   AR   Ar  232   5.085   4.023   1.152
    1   AR   Ar  233   6.071   2.161   4.069
    1   AR   Ar  234   6.126   4.252   4.920
    1   AR   Ar  235   6.775   3.353   4.154
    1   AR   Ar  236   5.255   4.199   3.823
    1   AR   Ar  237   5.285   3.513   4.613
    1   AR   Ar  238   4.766   4.304   5.160
    1   AR   Ar  239   6.157   4.598   7.752
    1   AR   Ar  240   6.225   4.417   6.018
    1   AR   Ar  241   6.665   0.515   0.172
    1   AR   Ar  242   5.251   6.440   1.714
    1   AR   Ar  243   5.975   4.527   2.467
    1   AR   Ar  244   6.815   5.937  -0.090
    1   AR   Ar  245   5.294   5.491   2.409
    1   AR   Ar  246   6.491   6.669   1.860
    1   AR   Ar  247   5.352   2.959   1.508
    1   AR   Ar  248   6.062   7.097   0.842
    1   AR   Ar  249   5.715   4.956   3.267
    1   AR   Ar  250   4.944   6.425   4.168
    1   AR   Ar  251   5.348   5.402   4.527
    1   AR   Ar  252   5.724   5.922   3.660
    1   AR   Ar  253   5.442   5.189   5.518
    1   AR   Ar  254   5.240   6.060   6.563
    1   AR   Ar  255   5.349   4.594   6.791
    1   AR   Ar  256   6.098   6.378   4.747
    7.12000  7.12000 12.00000
Argon-slab step 1315
  256
    1   AR   Ar    1   0.392   0.871  -1.079
    1   AR   Ar    2   6.931   0.742   1.207
    1   AR   Ar    3   0.219   6.848   0.442
    1   AR   Ar    4   0.696   0.742   0.014
    1   AR   Ar    5   7.036   5.987   1.136
    1   AR   Ar    6   0.608   0.128   2.857
    1   AR   Ar    7   0.200   5.728   2.223
    1   AR   Ar    8   0.300   7.119   1.683
    1   AR   Ar    9   0.899   0.935   3.795
    1   AR   Ar   10   0.001   1.855   4.142
    1   AR   Ar   11   2.296   7.054   4.252
    1   AR   Ar   12   1.181   1.106   2.860
    1   AR   Ar   13   5.966   1.220   4.657
    1   AR   Ar   14   0.021   1.727   5.537
    1   AR   Ar   15   6.521   5.353   8.383
    1   AR   Ar   16   0.556   1.125   4.946
    1   AR   Ar   17   0.122   1.619  -0.274
    1   AR   Ar   18   6.895   3.622   0.109
    1   AR   Ar   19   0.363   1.663   0.919
    1   AR   Ar   20   0.972   2.451  -2.150
    1   AR   Ar   21   6.741   0.679   2.404
    1   AR   Ar   22   0.021   1.969   2.215
    1   AR   Ar   23   0.638   1.055   1.850
    1   AR   Ar   24   7.075   2.979   1.217
    1   AR   Ar   25   0.119   1.271   3.203
    1   AR   Ar   26   6.093   1.509   3.305
    1   AR   Ar   27   2.161   0.770   3.685
    1   AR   Ar   28   0.971   2.449   4.456
    1   AR   Ar   29   6.156   1.819   5.811
    1   AR   Ar   30   7.083   2.969   6.358
    1   AR   Ar   31   0.430   1.073   7.575
    1   AR   Ar   32   2.072   2.832   5.430
    1   AR   Ar   33   1.230   3.798  -1.800
    1   AR   Ar   34   0.971   5.296   1.459
    1   AR   Ar   35   0.469   3.968   1.457
    1   AR   Ar   36   1.786   6.903  -1.962
    1   AR   Ar   37   0.284   3.039   2.252
    1   AR   Ar   38   7.029   4.615   2.205
    1   AR   Ar   39   0.900   4.098   2.634
    1   AR   Ar   40   1.411   4.221   1.676
    1   AR   Ar   41   0.660   2.136   3.123
    1   AR   Ar   42   6.745   5.207   5.175
    1   AR   Ar   43   6.861   2.903   5.203
    1   AR   Ar   44   0.636   3.084   3.559
    1   AR   Ar   45   0.673   3.593   5.060
    1   AR   Ar   46   6.180   5.450   6.724
    1   AR   Ar   47   0.205   3.909   7.049
    1   AR   Ar   48   6.779   6.898   6.278
    1   AR   Ar   49   6.405   5.235  -1.731
    1   AR   Ar   50   6.402   5.266   1.734
    1   AR   Ar   51   1.390   4.720   0.747
    1   AR   Ar   52   0.302   4.929  -0.055
    1   AR   Ar   53   6.344   5.878   2.846
    1   AR   Ar   54   0.468   6.264   3.116
    1   AR   Ar   55   0.162   5.292   3.509
    1   AR   Ar   56   1.258   6.239   1.129
    1   AR   Ar   57   7.021   3.771   3.089
    1   AR   Ar   58   6.926   5.848   4.537
    1   AR   Ar   59   2.084   5.691   5.212
    1   AR   Ar   60   1.252   7.015   4.009
    1   AR   Ar   61   6.214   5.927   5.659
    1   AR   Ar   62   0.221   6.388   5.467
    1   AR   Ar   63   1.276   5.312   6.159
    1   AR   Ar   64   1.393   6.526   4.920
    1   AR   Ar   65   2.845   7.096  -0.018
    1   AR   Ar   66   1.514   0.962   1.406
    1   AR   Ar   67   2.994   6.069   0.423
    1   AR   Ar   68   3.601   0.660  -0.721
    1   AR   Ar   69   1.761   6.851   0.078
    1   AR   Ar   70   1.385   6.970   2.036
    1   AR   Ar   71   2.857   0.586   1.288
    1   AR   Ar   72   3.661   0.482   0.737
    1   AR   Ar   73   1.792   6.766   3.114
    1   AR   Ar   74   1.832   0.849   4.787
    1   AR   Ar   75   3.485   0.322   5.344
    1   AR   Ar   76   2.021   0.616   2.593
    1   AR   Ar   77   2.309   0.122   5.387
    1   AR   Ar   78   1.146   0.561   5.920
    1   AR   Ar   79   4.760   6.798   7.134
    1   AR   Ar   80   3.108   6.378   5.403
    1   AR   Ar   81   1.599   1.267   0.229
    1   AR   Ar   82   0.731   3.382   0.522
    1   AR   Ar   83   2.315   1.764   1.019
    1   AR   Ar   84   2.441   3.648  -3.876
    1   AR   Ar   85   1.024   2.354   0.332
    1   AR   Ar   86   1.939   3.299   2.047
    1   AR   Ar   87   2.052   1.597   2.148
    1   AR   Ar   88   2.703   3.221   1.222
    1   AR   Ar   89   1.123   2.095   1.817
    1   AR   Ar   90   2.667   2.165   4.837
    1   AR   Ar   91   1.917   2.003   4.029
    1   AR   Ar   92   1.692   2.067   3.060
    1   AR   Ar   93   1.466   1.767   5.443
    1   AR   Ar   94   3.162   0.504   7.881
    1   AR   Ar   95   3.176   7.070   6.328
    1   AR   Ar   96   2.373   0.828   6.598
    1   AR   Ar   97   3.334   2.811  -0.749
    1   AR   Ar   98   2.474   4.392   1.768
    1   AR   Ar   99   3.830   3.003  -1.680
    1   AR   Ar  100   2.050   4.268  -0.617
    1   AR   Ar  101   1.241   2.930   1.289
    1   AR   Ar  102   2.601   3.871   3.708
    1   AR   Ar  103   1.847   3.548   0.593
    1   AR   Ar  104   2.948   3.818  -0.851
    1   AR   Ar  105   1.845   3.187   3.312
    1   AR   Ar  106   2.266   3.068   4.397
    1   AR   Ar  107   2.593   4.189   5.363
    1   AR   Ar  108   3.421   3.058   3.951
    1   AR   Ar  109   1.832   4.138   4.394
    1   AR   Ar  110   1.194   4.573   5.215
    1   AR   Ar  111   4.309   4.225   7.180
    1   AR   Ar  112   1.751   4.403   6.208
    1   AR   Ar  113   2.406   4.641   0.517
    1   AR   Ar  114   2.665   5.419   1.246
    1   AR   Ar  115   3.184   5.121  -0.171
    1   AR   Ar  116   3.998   7.004  -0.095
    1   AR   Ar  117   1.238   4.718   3.518
    1   AR   Ar  118   1.255   6.107   2.483
    1   AR   Ar  119   2.112   4.248   2.707
    1   AR   Ar  120   1.836   5.228   2.110
    1   AR   Ar  121   6.519   4.544   3.757
    1   AR   Ar  122   2.652   6.007   4.237
    1   AR   Ar  123   2.144   5.101   4.259
    1   AR   Ar  124   2.330   5.793   3.248
    1   AR   Ar  125   0.287   4.771   4.467
    1   AR   Ar  126   1.106   6.512   6.162
    1   AR   Ar  127   2.267   5.170   7.227
    1   AR   Ar  128   2.095   6.162   6.370
    1   AR   Ar  129   1.981   7.023   1.189
    1   AR   Ar  130   4.377   0.037  -1.562
    1   AR   Ar  131   4.600   6.413   0.736
    1   AR   Ar  132   6.302   2.527  -1.081
    1   AR   Ar  133   3.478   0.414   2.459
    1   AR   Ar  134   4.159   1.347   2.455
    1   AR   Ar  135   4.644   0.443   3.038
    1   AR   Ar  136   4.214   0.611   1.735
    1   AR   Ar  137   2.747   0.030   3.412
    1   AR   Ar  138   4.901   1.347   5.046
    1   AR   Ar  139   5.168   0.341   3.840
    1   AR   Ar  140   4.215   0.975   4.048
    1   AR   Ar  141   4.054   7.116   4.384
    1   AR   Ar  142   4.476   6.952   5.249
    1   AR   Ar  143   5.664   6.849   5.896
    1   AR   Ar  144   5.180   0.900   7.046
    1   AR   Ar  145   3.042   3.286   0.314
    1   AR   Ar  146   4.333   2.962   1.304
    1   AR   Ar  147   5.423   2.106  -0.124
    1   AR   Ar  148   5.839   3.483  -2.052
    1   AR   Ar  149   4.586   1.333   0.897
    1   AR   Ar  150   3.028   1.452   2.510
    1   AR   Ar  151   3.499   1.868   3.625
    1   AR   Ar  152   2.863   2.366   2.070
    1   AR   Ar  153   3.057   0.799   4.185
    1   AR   Ar  154   3.784   2.084   4.624
    1   AR   Ar  155   5.821   0.869   5.807
    1   AR   Ar  156   4.270   3.646   3.776
    1   AR   Ar  157   4.056   1.731   5.734
    1   AR   Ar  158   2.260   1.950   6.128
    1   AR   Ar  159   4.505   0.626   5.895
    1   AR   Ar  160   4.192   2.771   5.941
    1   AR   Ar  161   4.980   3.203   0.018
    1   AR   Ar  162   4.795   5.417   0.226
    1   AR   Ar  163   5.930   3.332  -0.598
    1   AR   Ar  164   5.174   5.117   1.334
    1   AR   Ar  165   3.187   3.360   2.856
    1   AR   Ar  166   2.871   4.917   3.080
    1   AR   Ar  167   4.705   3.012   2.708
    1   AR   Ar  168   3.834   4.022   0.240
    1   AR   Ar  169   2.753   2.522   3.188
    1   AR   Ar  170   3.259   4.406   4.178
    1   AR   Ar  171   3.927   3.544   4.974
    1   AR   Ar  172   4.242   4.580   4.351
    1   AR   Ar  173   3.038   2.643   5.957
    1   AR   Ar  174   4.177   4.825   6.066
    1   AR   Ar  175   4.609   3.775   6.096
    1   AR   Ar  176   3.334   5.357   4.804
    1   AR   Ar  177   5.744   5.743  -0.613
    1   AR   Ar  178   3.841   6.748   1.409
    1   AR   Ar  179   3.659   5.772   1.241
    1   AR   Ar  180   3.857   4.270  -0.844
    1   AR   Ar  181   2.907   5.549   2.283
    1   AR   Ar  182   2.710   6.762   2.159
    1   AR   Ar  183   3.472   4.671   2.234
    1   AR   Ar  184   4.384   5.960   2.257
    1   AR   Ar  185   1.377   5.859   4.122
    1   AR   Ar  186   3.650   5.353   3.805
    1   AR   Ar  187   4.691   5.388   3.679
    1   AR   Ar  188   3.534   6.131   2.893
    1   AR   Ar  189   2.820   5.147   5.792
    1   AR   Ar  190   4.232   6.014   6.072
    1   AR   Ar  191   5.025   6.072   5.402
    1   AR   Ar  192   4.167   5.980   4.792
    1   AR   Ar  193   6.196   6.825  -0.217
    1   AR   Ar  194   5.395   0.277  -0.709
    1   AR   Ar  195   5.637   1.027   0.645
    1   AR   Ar  196   6.143   1.186  -0.417
    1   AR   Ar  197   4.846   0.325   0.984
    1   AR   Ar  198   5.845   1.254   1.676
    1   AR   Ar  199   5.246   0.355   2.065
    1   AR   Ar  200   6.422   1.714   0.778
    1   AR   Ar  201   4.665   6.424   3.174
    1   AR   Ar  202   5.041   1.612   3.990
    1   AR   Ar  203   0.064   6.863   4.472
    1   AR   Ar  204   5.826   0.567   2.875
    1   AR   Ar  205   6.233   6.771   3.513
    1   AR   Ar  206   5.369   0.012   4.922
    1   AR   Ar  207   0.231   0.404   5.530
    1   AR   Ar  208   6.743   0.480   3.797
    1   AR   Ar  209   6.761   2.728  -2.156
    1   AR   Ar  210   5.082   1.924   1.527
    1   AR   Ar  211   6.515   2.529   0.131
    1   AR   Ar  212   6.562   4.527  -0.513
    1   AR   Ar  213   3.932   2.374   2.518
    1   AR   Ar  214   4.305   3.784   2.037
    1   AR   Ar  215   6.084   2.138   2.112
    1   AR   Ar  216   6.512   3.821   1.796
    1   AR   Ar  217   5.093   2.693   3.692
    1   AR   Ar  218   4.596   2.414   5.087
    1   AR   Ar  219   5.147   1.387   2.398
    1   AR   Ar  220   5.573   3.387   3.085
    1   AR   Ar  221   6.413   0.285   5.058
    1   AR   Ar  222   4.983   1.722   5.983
    1   AR   Ar  223   6.231   0.938   6.770
    1   AR   Ar  224   5.840   2.757   5.521
    1   AR   Ar  225   5.086   4.394  -0.042
    1   AR   Ar  226   4.538   4.808   2.567
    1   AR   Ar  227   6.978   4.564   0.924
    1   AR   Ar  228   6.049   5.855   0.754
    1   AR   Ar  229   5.958   4.115   0.210
    1   AR   Ar  230   3.849   4.381   3.147
    1   AR   Ar  231   6.592   2.872   2.918
    1   AR   Ar  232   5.077   4.021   1.175
    1   AR   Ar  233   6.068   2.178   4.034
    1   AR   Ar  234   6.171   4.282   4.916
    1   AR   Ar  235   6.763   3.334   4.149
    1   AR   Ar  236   5.235   4.180   3.851
    1   AR   Ar  237   5.272   3.501   4.578
    1   AR   Ar  238   4.765   4.305   5.152
    1   AR   Ar  239   6.166   4.621   7.776
    1   AR   Ar  240   6.229   4.416   6.008
    1   AR   Ar  241   6.675   0.511   0.167
    1   AR   Ar  242   5.288   6.435   1.684
    1   AR   Ar  243   5.976   4.519   2.482
    1   AR   Ar  244   6.799   5.928  -0.095
    1   AR   Ar  245   5.243   5.485   2.410
    1   AR   Ar  246   6.501   6.708   1.864
    1   AR   Ar  247   5.341   2.953   1.471
    1   AR   Ar  248   6.066   7.083   0.841
    1   AR   Ar  249   5.732   4.966   3.269
    1   AR   Ar  250   4.926   6.426   4.170
    1   AR   Ar  251   5.362   5.428   4.542
    1   AR   Ar  252   5.729   5.924   3.671
    1   AR   Ar  253   5.456   5.177   5.543
    1   AR   Ar  254   5.242   6.080   6.581
    1   AR   Ar  255   5.369   4.580   6.800
    1   AR   Ar  256   6.074   6.372   4.758
    7.12000  7.12000 12.00000
Argon-slab step 1320
  256
    1   AR   Ar    1   0.378   0.876  -1.082
    1   AR   Ar    2   6.937   0.722   1.202
    1   AR   Ar    3   0.212   6.853   0.452
    1   AR   Ar    4   0.650   0.764   0.012
    1   AR   Ar    5   7.035   5.992   1.135
    1   AR   Ar    6   0.635   0.118   2.840
    1   AR   Ar    7   0.199   5.716   2.222
    1   AR   Ar    8   0.337   0.036   1.673
    1   AR   Ar    9   0.892   0.943   3.819
    1   AR   Ar   10   7.119   1.868   4.083
    1   AR   Ar   11   2.296   7.065   4.271
    1   AR   Ar   12   1.200   1.080   2.869
    1   AR   Ar   13   5.961   1.229   4.675
    1   AR   Ar   14   0.033   1.693   5.562
    1   AR   Ar   15   6.521   5.334   8.389
    1   AR   Ar   16   0.578   1.127   4.944
    1   AR   Ar   17   0.142   1.605  -0.293
    1   AR   Ar   18   6.895   3.623   0.109
    1   AR   Ar   19   0.376   1.676   0.917
    1   AR   Ar   20   0.955   2.451  -2.151
    1   AR   Ar   21   6.753   0.690   2.396
    1   AR   Ar   22   7.102   1.975   2.185
    1   AR   Ar   23   0.626   1.038   1.857
    1   AR   Ar   24   7.067   2.980   1.208
    1   AR   Ar   25   0.134   1.268   3.209
    1   AR   Ar   26   6.101   1.478   3.316
    1   AR   Ar   27   2.180   0.775   3.659
    1   AR   Ar   28   0.978   2.441   4.487
    1   AR   Ar   29   6.152   1.839   5.812
    1   AR   Ar   30   7.091   2.972   6.361
    1   AR   Ar   31   0.433   1.058   7.601
    1   AR   Ar   32   2.073   2.843   5.399
    1   AR   Ar   33   1.200   3.783  -1.792
    1   AR   Ar   34   1.000   5.295   1.461
    1   AR   Ar   35   0.486   3.973   1.456
    1   AR   Ar   36   1.798   6.880  -1.958
    1   AR   Ar   37   0.306   3.033   2.254
    1   AR   Ar   38   7.009   4.598   2.249
    1   AR   Ar   39   0.919   4.121   2.622
    1   AR   Ar   40   1.396   4.222   1.644
    1   AR   Ar   41   0.650   2.125   3.120
    1   AR   Ar   42   6.758   5.188   5.190
    1   AR   Ar   43   6.860   2.931   5.208
    1   AR   Ar   44   0.660   3.073   3.526
    1   AR   Ar   45   0.652   3.575   5.055
    1   AR   Ar   46   6.192   5.460   6.703
    1   AR   Ar   47   0.210   3.928   7.020
    1   AR   Ar   48   6.746   6.916   6.273
    1   AR   Ar   49   6.388   5.250  -1.728
    1   AR   Ar   50   6.391   5.267   1.721
    1   AR   Ar   51   1.382   4.720   0.755
    1   AR   Ar   52   0.315   4.919  -0.084
    1   AR   Ar   53   6.329   5.871   2.815
    1   AR   Ar   54   0.475   6.264   3.134
    1   AR   Ar   55   0.173   5.302   3.504
    1   AR   Ar   56   1.270   6.247   1.133
    1   AR   Ar   57   7.018   3.786   3.094
    1   AR   Ar   58   6.892   5.869   4.539
    1   AR   Ar   59   2.056   5.671   5.215
    1   AR   Ar   60   1.251   7.011   3.993
    1   AR   Ar   61   6.205   5.931   5.681
    1   AR   Ar   62   0.205   6.389   5.463
    1   AR   Ar   63   1.254   5.283   6.149
    1   AR   Ar   64   1.402   6.532   4.954
    1   AR   Ar   65   2.841   7.089  -0.025
    1   AR   Ar   66   1.523   0.962   1.405
    1   AR   Ar   67   2.996   6.069   0.442
    1   AR   Ar   68   3.576   0.701  -0.778
    1   AR   Ar   69   1.777   6.853   0.051
    1   AR   Ar   70   1.388   6.996   2.027
    1   AR   Ar   71   2.884   0.570   1.285
    1   AR   Ar   72   3.670   0.493   0.725
    1   AR   Ar   73   1.785   6.781   3.107
    1   AR   Ar   74   1.810   0.853   4.787
    1   AR   Ar   75   3.494   0.327   5.345
    1   AR   Ar   76   2.031   0.602   2.608
    1   AR   Ar   77   2.301   0.116   5.418
    1   AR   Ar   78   1.141   0.583   5.945
    1   AR   Ar   79   4.769   6.786   7.173
    1   AR   Ar   80   3.117   6.374   5.420
    1   AR   Ar   81   1.564   1.284   0.228
    1   AR   Ar   82   0.726   3.388   0.532
    1   AR   Ar   83   2.318   1.784   1.027
    1   AR   Ar   84   2.436   3.646  -3.860
    1   AR   Ar   85   1.038   2.349   0.313
    1   AR   Ar   86   1.941   3.255   2.055
    1   AR   Ar   87   2.054   1.590   2.144
    1   AR   Ar   88   2.673   3.202   1.223
    1   AR   Ar   89   1.120   2.091   1.808
    1   AR   Ar   90   2.690   2.178   4.828
    1   AR   Ar   91   1.900   1.997   4.059
    1   AR   Ar   92   1.698   2.056   3.078
    1   AR   Ar   93   1.470   1.772   5.454
    1   AR   Ar   94   3.167   0.472   7.853
    1   AR   Ar   95   3.190   7.056   6.369
    1   AR   Ar   96   2.380   0.835   6.596
    1   AR   Ar   97   3.371   2.810  -0.783
    1   AR   Ar   98   2.481   4.407   1.787
    1   AR   Ar   99   3.844   2.998  -1.664
    1   AR   Ar  100   2.043   4.230  -0.612
    1   AR   Ar  101   1.287   2.949   1.261
    1   AR   Ar  102   2.621   3.857   3.679
    1   AR   Ar  103   1.846   3.567   0.599
    1   AR   Ar  104   2.970   3.779  -0.873
    1   AR   Ar  105   1.873   3.201   3.305
    1   AR   Ar  106   2.262   3.084   4.384
    1   AR   Ar  107   2.579   4.163   5.361
    1   AR   Ar  108   3.433   3.058   3.973
    1   AR   Ar  109   1.844   4.146   4.387
    1   AR   Ar  110   1.181   4.567   5.232
    1   AR   Ar  111   4.301   4.198   7.164
    1   AR   Ar  112   1.760   4.445   6.252
    1   AR   Ar  113   2.398   4.634   0.505
    1   AR   Ar  114   2.642   5.448   1.247
    1   AR   Ar  115   3.189   5.110  -0.161
    1   AR   Ar  116   3.992   7.018  -0.097
    1   AR   Ar  117   1.246   4.699   3.488
    1   AR   Ar  118   1.252   6.097   2.469
    1   AR   Ar  119   2.134   4.241   2.735
    1   AR   Ar  120   1.858   5.239   2.113
    1   AR   Ar  121   6.518   4.516   3.767
    1   AR   Ar  122   2.628   6.013   4.234
    1   AR   Ar  123   2.167   5.112   4.233
    1   AR   Ar  124   2.330   5.819   3.279
    1   AR   Ar  125   0.292   4.797   4.461
    1   AR   Ar  126   1.109   6.518   6.166
    1   AR   Ar  127   2.267   5.139   7.209
    1   AR   Ar  128   2.118   6.145   6.371
    1   AR   Ar  129   1.989   7.041   1.181
    1   AR   Ar  130   4.388   0.054  -1.545
    1   AR   Ar  131   4.599   6.435   0.759
    1   AR   Ar  132   6.306   2.535  -1.081
    1   AR   Ar  133   3.472   0.394   2.477
    1   AR   Ar  134   4.147   1.328   2.453
    1   AR   Ar  135   4.619   0.449   3.011
    1   AR   Ar  136   4.250   0.622   1.766
    1   AR   Ar  137   2.766   0.014   3.423
    1   AR   Ar  138   4.887   1.341   5.054
    1   AR   Ar  139   5.199   0.381   3.853
    1   AR   Ar  140   4.189   1.003   4.054
    1   AR   Ar  141   4.063   0.016   4.386
    1   AR   Ar  142   4.501   6.923   5.256
    1   AR   Ar  143   5.680   6.833   5.873
    1   AR   Ar  144   5.208   0.909   7.024
    1   AR   Ar  145   3.046   3.268   0.292
    1   AR   Ar  146   4.324   2.954   1.306
    1   AR   Ar  147   5.402   2.114  -0.109
    1   AR   Ar  148   5.828   3.497  -2.054
    1   AR   Ar  149   4.604   1.330   0.900
    1   AR   Ar  150   3.018   1.455   2.517
    1   AR   Ar  151   3.490   1.847   3.649
    1   AR   Ar  152   2.871   2.395   2.052
    1   AR   Ar  153   3.077   0.821   4.188
    1   AR   Ar  154   3.756   2.096   4.619
    1   AR   Ar  155   5.780   0.832   5.809
    1   AR   Ar  156   4.274   3.670   3.779
    1   AR   Ar  157   4.038   1.739   5.758
    1   AR   Ar  158   2.215   1.965   6.127
    1   AR   Ar  159   4.503   0.628   5.882
    1   AR   Ar  160   4.154   2.799   5.944
    1   AR   Ar  161   4.986   3.215   0.035
    1   AR   Ar  162   4.809   5.400   0.238
    1   AR   Ar  163   5.922   3.339  -0.600
    1   AR   Ar  164   5.171   5.110   1.336
    1   AR   Ar  165   3.187   3.374   2.846
    1   AR   Ar  166   2.869   4.915   3.115
    1   AR   Ar  167   4.720   2.986   2.728
    1   AR   Ar  168   3.841   4.041   0.224
    1   AR   Ar  169   2.735   2.524   3.210
    1   AR   Ar  170   3.245   4.439   4.181
    1   AR   Ar  171   3.897   3.546   4.988
    1   AR   Ar  172   4.246   4.582   4.323
    1   AR   Ar  173   3.080   2.665   5.949
    1   AR   Ar  174   4.182   4.784   6.056
    1   AR   Ar  175   4.549   3.779   6.088
    1   AR   Ar  176   3.341   5.337   4.791
    1   AR   Ar  177   5.762   5.741  -0.620
    1   AR   Ar  178   3.813   6.749   1.414
    1   AR   Ar  179   3.664   5.780   1.253
    1   AR   Ar  180   3.862   4.245  -0.860
    1   AR   Ar  181   2.912   5.536   2.297
    1   AR   Ar  182   2.699   6.736   2.149
    1   AR   Ar  183   3.479   4.678   2.255
    1   AR   Ar  184   4.408   5.947   2.256
    1   AR   Ar  185   1.363   5.847   4.124
    1   AR   Ar  186   3.655   5.355   3.804
    1   AR   Ar  187   4.674   5.387   3.675
    1   AR   Ar  188   3.542   6.132   2.909
    1   AR   Ar  189   2.838   5.149   5.775
    1   AR   Ar  190   4.231   6.006   6.062
    1   AR   Ar  191   5.003   6.090   5.433
    1   AR   Ar  192   4.152   5.965   4.806
    1   AR   Ar  193   6.181   6.813  -0.201
    1   AR   Ar  194   5.394   0.293  -0.736
    1   AR   Ar  195   5.636   1.030   0.635
    1   AR   Ar  196   6.137   1.138  -0.410
    1   AR   Ar  197   4.878   0.347   0.958
    1   AR   Ar  198   5.831   1.262   1.698
    1   AR   Ar  199   5.254   0.357   2.111
    1   AR   Ar  200   6.439   1.704   0.753
    1   AR   Ar  201   4.677   6.392   3.185
    1   AR   Ar  202   5.033   1.624   4.004
    1   AR   Ar  203   0.073   6.855   4.458
    1   AR   Ar  204   5.804   0.591   2.894
    1   AR   Ar  205   6.244   6.781   3.503
    1   AR   Ar  206   5.413   0.048   4.924
    1   AR   Ar  207   0.219   0.390   5.522
    1   AR   Ar  208   6.753   0.482   3.805
    1   AR   Ar  209   6.767   2.720  -2.175
    1   AR   Ar  210   5.086   1.909   1.528
    1   AR   Ar  211   6.509   2.518   0.121
    1   AR   Ar  212   6.571   4.517  -0.511
    1   AR   Ar  213   3.910   2.391   2.477
    1   AR   Ar  214   4.315   3.792   2.027
    1   AR   Ar  215   6.121   2.130   2.122
    1   AR   Ar  216   6.549   3.825   1.794
    1   AR   Ar  217   5.084   2.682   3.691
    1   AR   Ar  218   4.618   2.416   5.065
    1   AR   Ar  219   5.174   1.370   2.416
    1   AR   Ar  220   5.549   3.405   3.068
    1   AR   Ar  221   6.411   0.296   5.060
    1   AR   Ar  222   4.978   1.703   5.999
    1   AR   Ar  223   6.244   0.935   6.766
    1   AR   Ar  224   5.805   2.735   5.498
    1   AR   Ar  225   5.093   4.415  -0.049
    1   AR   Ar  226   4.510   4.793   2.566
    1   AR   Ar  227   6.997   4.558   0.941
    1   AR   Ar  228   6.049   5.850   0.753
    1   AR   Ar  229   5.947   4.110   0.199
    1   AR   Ar  230   3.865   4.380   3.154
    1   AR   Ar  231   6.575   2.876   2.950
    1   AR   Ar  232   5.068   4.019   1.197
    1   AR   Ar  233   6.064   2.203   4.007
    1   AR   Ar  234   6.215   4.311   4.909
    1   AR   Ar  235   6.752   3.315   4.142
    1   AR   Ar  236   5.214   4.169   3.872
    1   AR   Ar  237   5.259   3.481   4.551
    1   AR   Ar  238   4.754   4.304   5.147
    1   AR   Ar  239   6.173   4.639   7.794
    1   AR   Ar  240   6.241   4.395   5.995
    1   AR   Ar  241   6.694   0.529   0.166
    1   AR   Ar  242   5.325   6.428   1.654
    1   AR   Ar  243   5.982   4.499   2.475
    1   AR   Ar  244   6.782   5.917  -0.099
    1   AR   Ar  245   5.213   5.482   2.412
    1   AR   Ar  246   6.505   6.744   1.869
    1   AR   Ar  247   5.336   2.949   1.437
    1   AR   Ar  248   6.069   7.067   0.844
    1   AR   Ar  249   5.737   4.989   3.289
    1   AR   Ar  250   4.909   6.427   4.179
    1   AR   Ar  251   5.376   5.454   4.555
    1   AR   Ar  252   5.727   5.922   3.687
    1   AR   Ar  253   5.473   5.153   5.574
    1   AR   Ar  254   5.247   6.094   6.593
    1   AR   Ar  255   5.389   4.567   6.808
    1   AR   Ar  256   6.046   6.369   4.763
    7.12000  7.12000 12.00000
Argon-slab step 1325
  256
    1   AR   Ar    1   0.365   0.880  -1.085
    1   AR   Ar    2   6.934   0.712   1.191
    1   AR   Ar    3   0.208   6.831   0.430
    1   AR   Ar    4   0.606   0.781   0.013
    1   AR   Ar    5   7.037   5.998   1.135
    1   AR   Ar    6   0.664   0.113   2.821
    1   AR   Ar    7   0.197   5.704   2.220
    1   AR   Ar    8   0.382   0.062   1.668
    1   AR   Ar    9   0.886   0.948   3.853
    1   AR   Ar   10   7.119   1.883   4.027
    1   AR   Ar   11   2.289   7.073   4.308
    1   AR   Ar   12   1.214   1.061   2.872
    1   AR   Ar   13   5.955   1.238   4.692
    1   AR   Ar   14   0.044   1.663   5.590
    1   AR   Ar   15   6.526   5.326   8.403
    1   AR   Ar   16   0.610   1.130   4.930
    1   AR   Ar   17   0.156   1.595  -0.311
    1   AR   Ar   18   6.895   3.624   0.108
    1   AR   Ar   19   0.389   1.699   0.907
    1   AR   Ar   20   0.936   2.462  -2.155
    1   AR   Ar   21   6.768   0.701   2.386
    1   AR   Ar   22   7.075   1.977   2.156
    1   AR   Ar   23   0.608   1.025   1.870
    1   AR   Ar   24   7.058   2.981   1.199
    1   AR   Ar   25   0.140   1.259   3.208
    1   AR   Ar   26   6.111   1.444   3.324
    1   AR   Ar   27   2.185   0.793   3.631
    1   AR   Ar   28   0.984   2.434   4.518
    1   AR   Ar   29   6.154   1.851   5.797
    1   AR   Ar   30   7.099   2.975   6.363
    1   AR   Ar   31   0.435   1.043   7.626
    1   AR   Ar   32   2.072   2.853   5.371
    1   AR   Ar   33   1.193   3.798  -1.792
    1   AR   Ar   34   1.020   5.297   1.473
    1   AR   Ar   35   0.493   3.966   1.459
    1   AR   Ar   36   1.810   6.857  -1.955
    1   AR   Ar   37   0.329   3.029   2.258
    1   AR   Ar   38   6.999   4.585   2.297
    1   AR   Ar   39   0.937   4.141   2.609
    1   AR   Ar   40   1.400   4.224   1.620
    1   AR   Ar   41   0.642   2.116   3.114
    1   AR   Ar   42   6.768   5.154   5.222
    1   AR   Ar   43   6.861   2.958   5.214
    1   AR   Ar   44   0.685   3.066   3.494
    1   AR   Ar   45   0.629   3.553   5.050
    1   AR   Ar   46   6.202   5.468   6.681
    1   AR   Ar   47   0.214   3.947   6.991
    1   AR   Ar   48   6.712   6.933   6.267
    1   AR   Ar   49   6.371   5.265  -1.723
    1   AR   Ar   50   6.377   5.269   1.706
    1   AR   Ar   51   1.375   4.715   0.751
    1   AR   Ar   52   0.330   4.911  -0.110
    1   AR   Ar   53   6.316   5.864   2.780
    1   AR   Ar   54   0.479   6.263   3.158
    1   AR   Ar   55   0.182   5.310   3.497
    1   AR   Ar   56   1.272   6.250   1.137
    1   AR   Ar   57   7.018   3.806   3.098
    1   AR   Ar   58   6.871   5.893   4.520
    1   AR   Ar   59   2.029   5.652   5.218
    1   AR   Ar   60   1.247   7.008   3.978
    1   AR   Ar   61   6.196   5.936   5.709
    1   AR   Ar   62   0.189   6.390   5.458
    1   AR   Ar   63   1.228   5.266   6.136
    1   AR   Ar   64   1.411   6.539   4.991
    1   AR   Ar   65   2.851   7.086   0.005
    1   AR   Ar   66   1.539   0.962   1.399
    1   AR   Ar   67   2.999   6.070   0.459
    1   AR   Ar   68   3.551   0.741  -0.835
    1   AR   Ar   69   1.791   6.855   0.026
    1   AR   Ar   70   1.390   7.030   2.017
    1   AR   Ar   71   2.859   0.560   1.310
    1   AR   Ar   72   3.682   0.493   0.734
    1   AR   Ar   73   1.779   6.796   3.100
    1   AR   Ar   74   1.787   0.858   4.786
    1   AR   Ar   75   3.503   0.333   5.345
    1   AR   Ar   76   2.050   0.582   2.618
    1   AR   Ar   77   2.295   0.107   5.449
    1   AR   Ar   78   1.141   0.605   5.970
    1   AR   Ar   79   4.775   6.779   7.215
    1   AR   Ar   80   3.127   6.368   5.435
    1   AR   Ar   81   1.529   1.302   0.229
    1   AR   Ar   82   0.721   3.398   0.539
    1   AR   Ar   83   2.321   1.803   1.038
    1   AR   Ar   84   2.431   3.643  -3.845
    1   AR   Ar   85   1.053   2.342   0.294
    1   AR   Ar   86   1.944   3.212   2.066
    1   AR   Ar   87   2.071   1.591   2.117
    1   AR   Ar   88   2.639   3.184   1.232
    1   AR   Ar   89   1.115   2.083   1.803
    1   AR   Ar   90   2.714   2.190   4.820
    1   AR   Ar   91   1.884   1.991   4.098
    1   AR   Ar   92   1.707   2.045   3.088
    1   AR   Ar   93   1.468   1.776   5.458
    1   AR   Ar   94   3.172   0.439   7.824
    1   AR   Ar   95   3.203   7.041   6.408
    1   AR   Ar   96   2.387   0.843   6.591
    1   AR   Ar   97   3.406   2.805  -0.810
    1   AR   Ar   98   2.491   4.422   1.799
    1   AR   Ar   99   3.864   2.991  -1.655
    1   AR   Ar  100   2.034   4.193  -0.605
    1   AR   Ar  101   1.333   2.970   1.236
    1   AR   Ar  102   2.637   3.839   3.644
    1   AR   Ar  103   1.846   3.589   0.604
    1   AR   Ar  104   2.986   3.738  -0.895
    1   AR   Ar  105   1.902   3.220   3.299
    1   AR   Ar  106   2.259   3.101   4.367
    1   AR   Ar  107   2.565   4.135   5.358
    1   AR   Ar  108   3.441   3.057   3.996
    1   AR   Ar  109   1.853   4.148   4.382
    1   AR   Ar  110   1.170   4.563   5.248
    1   AR   Ar  111   4.293   4.170   7.145
    1   AR   Ar  112   1.777   4.477   6.296
    1   AR   Ar  113   2.393   4.626   0.492
    1   AR   Ar  114   2.614   5.474   1.248
    1   AR   Ar  115   3.196   5.097  -0.151
    1   AR   Ar  116   3.981   7.043  -0.110
    1   AR   Ar  117   1.255   4.683   3.460
    1   AR   Ar  118   1.250   6.079   2.453
    1   AR   Ar  119   2.150   4.231   2.768
    1   AR   Ar  120   1.881   5.250   2.117
    1   AR   Ar  121   6.521   4.486   3.780
    1   AR   Ar  122   2.609   6.025   4.237
    1   AR   Ar  123   2.190   5.121   4.206
    1   AR   Ar  124   2.327   5.846   3.304
    1   AR   Ar  125   0.298   4.821   4.454
    1   AR   Ar  126   1.111   6.525   6.167
    1   AR   Ar  127   2.268   5.110   7.189
    1   AR   Ar  128   2.142   6.128   6.370
    1   AR   Ar  129   2.001   7.060   1.169
    1   AR   Ar  130   4.406   0.069  -1.516
    1   AR   Ar  131   4.599   6.455   0.780
    1   AR   Ar  132   6.322   2.533  -1.076
    1   AR   Ar  133   3.466   0.372   2.496
    1   AR   Ar  134   4.128   1.315   2.459
    1   AR   Ar  135   4.589   0.455   2.978
    1   AR   Ar  136   4.286   0.627   1.789
    1   AR   Ar  137   2.800   7.110   3.416
    1   AR   Ar  138   4.881   1.321   5.065
    1   AR   Ar  139   5.234   0.421   3.872
    1   AR   Ar  140   4.161   1.032   4.060
    1   AR   Ar  141   4.068   0.035   4.380
    1   AR   Ar  142   4.517   6.895   5.270
    1   AR   Ar  143   5.696   6.820   5.852
    1   AR   Ar  144   5.234   0.917   7.000
    1   AR   Ar  145   3.075   3.224   0.295
    1   AR   Ar  146   4.310   2.946   1.308
    1   AR   Ar  147   5.382   2.122  -0.094
    1   AR   Ar  148   5.844   3.498  -2.027
    1   AR   Ar  149   4.613   1.323   0.896
    1   AR   Ar  150   3.011   1.454   2.527
    1   AR   Ar  151   3.480   1.823   3.668
    1   AR   Ar  152   2.877   2.427   2.033
    1   AR   Ar  153   3.124   0.853   4.172
    1   AR   Ar  154   3.725   2.106   4.615
    1   AR   Ar  155   5.735   0.794   5.807
    1   AR   Ar  156   4.280   3.689   3.783
    1   AR   Ar  157   4.003   1.745   5.777
    1   AR   Ar  158   2.174   1.980   6.130
    1   AR   Ar  159   4.502   0.635   5.870
    1   AR   Ar  160   4.120   2.848   5.952
    1   AR   Ar  161   4.993   3.228   0.053
    1   AR   Ar  162   4.824   5.382   0.258
    1   AR   Ar  163   5.923   3.339  -0.595
    1   AR   Ar  164   5.170   5.105   1.338
    1   AR   Ar  165   3.190   3.393   2.834
    1   AR   Ar  166   2.869   4.910   3.157
    1   AR   Ar  167   4.729   2.958   2.744
    1   AR   Ar  168   3.848   4.060   0.209
    1   AR   Ar  169   2.715   2.520   3.233
    1   AR   Ar  170   3.231   4.475   4.189
    1   AR   Ar  171   3.868   3.548   5.002
    1   AR   Ar  172   4.252   4.588   4.290
    1   AR   Ar  173   3.105   2.678   5.939
    1   AR   Ar  174   4.187   4.746   6.046
    1   AR   Ar  175   4.491   3.782   6.080
    1   AR   Ar  176   3.342   5.314   4.782
    1   AR   Ar  177   5.781   5.738  -0.625
    1   AR   Ar  178   3.783   6.761   1.424
    1   AR   Ar  179   3.670   5.779   1.266
    1   AR   Ar  180   3.874   4.223  -0.876
    1   AR   Ar  181   2.906   5.535   2.323
    1   AR   Ar  182   2.686   6.711   2.139
    1   AR   Ar  183   3.487   4.681   2.269
    1   AR   Ar  184   4.410   5.946   2.248
    1   AR   Ar  185   1.349   5.834   4.123
    1   AR   Ar  186   3.657   5.359   3.798
    1   AR   Ar  187   4.663   5.385   3.670
    1   AR   Ar  188   3.549   6.135   2.928
    1   AR   Ar  189   2.857   5.151   5.760
    1   AR   Ar  190   4.223   5.998   6.055
    1   AR   Ar  191   4.997   6.101   5.460
    1   AR   Ar  192   4.139   5.951   4.819
    1   AR   Ar  193   6.164   6.797  -0.186
    1   AR   Ar  194   5.377   0.257  -0.755
    1   AR   Ar  195   5.636   1.031   0.623
    1   AR   Ar  196   6.122   1.102  -0.403
    1   AR   Ar  197   4.913   0.360   0.933
    1   AR   Ar  198   5.833   1.255   1.709
    1   AR   Ar  199   5.256   0.353   2.145
    1   AR   Ar  200   6.456   1.692   0.732
    1   AR   Ar  201   4.689   6.362   3.192
    1   AR   Ar  202   5.030   1.637   4.018
    1   AR   Ar  203   0.084   6.852   4.444
    1   AR   Ar  204   5.785   0.613   2.921
    1   AR   Ar  205   6.254   6.791   3.490
    1   AR   Ar  206   5.438   0.057   4.921
    1   AR   Ar  207   0.202   0.370   5.517
    1   AR   Ar  208   6.766   0.493   3.814
    1   AR   Ar  209   6.773   2.712  -2.193
    1   AR   Ar  210   5.090   1.909   1.533
    1   AR   Ar  211   6.504   2.511   0.107
    1   AR   Ar  212   6.580   4.508  -0.513
    1   AR   Ar  213   3.883   2.407   2.436
    1   AR   Ar  214   4.323   3.801   2.020
    1   AR   Ar  215   6.149   2.130   2.134
    1   AR   Ar  216   6.583   3.823   1.789
    1   AR   Ar  217   5.074   2.670   3.693
    1   AR   Ar  218   4.648   2.419   5.044
    1   AR   Ar  219   5.198   1.355   2.448
    1   AR   Ar  220   5.537   3.430   3.055
    1   AR   Ar  221   6.410   0.306   5.061
    1   AR   Ar  222   4.990   1.685   6.024
    1   AR   Ar  223   6.261   0.931   6.761
    1   AR   Ar  224   5.765   2.719   5.471
    1   AR   Ar  225   5.091   4.437  -0.072
    1   AR   Ar  226   4.498   4.784   2.564
    1   AR   Ar  227   6.985   4.576   0.957
    1   AR   Ar  228   6.046   5.846   0.752
    1   AR   Ar  229   5.954   4.094   0.200
    1   AR   Ar  230   3.869   4.374   3.175
    1   AR   Ar  231   6.555   2.874   2.982
    1   AR   Ar  232   5.060   4.016   1.218
    1   AR   Ar  233   6.059   2.235   3.986
    1   AR   Ar  234   6.257   4.339   4.899
    1   AR   Ar  235   6.740   3.297   4.134
    1   AR   Ar  236   5.194   4.172   3.882
    1   AR   Ar  237   5.246   3.448   4.535
    1   AR   Ar  238   4.748   4.301   5.148
    1   AR   Ar  239   6.174   4.647   7.801
    1   AR   Ar  240   6.265   4.371   6.009
    1   AR   Ar  241   6.717   0.549   0.168
    1   AR   Ar  242   5.363   6.421   1.623
    1   AR   Ar  243   5.989   4.472   2.458
    1   AR   Ar  244   6.767   5.905  -0.101
    1   AR   Ar  245   5.213   5.475   2.417
    1   AR   Ar  246   6.492   6.781   1.855
    1   AR   Ar  247   5.341   2.942   1.408
    1   AR   Ar  248   6.067   7.056   0.845
    1   AR   Ar  249   5.733   5.015   3.316
    1   AR   Ar  250   4.895   6.429   4.195
    1   AR   Ar  251   5.395   5.469   4.553
    1   AR   Ar  252   5.722   5.923   3.706
    1   AR   Ar  253   5.492   5.124   5.608
    1   AR   Ar  254   5.256   6.104   6.599
    1   AR   Ar  255   5.409   4.554   6.814
    1   AR   Ar  256   6.012   6.368   4.764
    7.12000  7.12000 12.00000
Argon-slab step 1330
  256
    1   AR   Ar    1   0.351   0.883  -1.089
    1   AR   Ar    2   6.922   0.709   1.177
    1   AR   Ar    3   0.207   6.791   0.389
    1   AR   Ar    4   0.569   0.787   0.019
    1   AR   Ar    5   7.041   6.005   1.136
    1   AR   Ar    6   0.692   0.114   2.801
    1   AR   Ar    7   0.195   5.691   2.217
    1   AR   Ar    8   0.432   0.072   1.667
    1   AR   Ar    9   0.883   0.952   3.894
    1   AR   Ar   10   7.119   1.899   3.973
    1   AR   Ar   11   2.280   7.079   4.351
    1   AR   Ar   12   1.191   1.070   2.887
    1   AR   Ar   13   5.948   1.247   4.708
    1   AR   Ar   14   0.054   1.636   5.622
    1   AR   Ar   15   6.536   5.328   8.426
    1   AR   Ar   16   0.647   1.133   4.909
    1   AR   Ar   17   0.163   1.598  -0.329
    1   AR   Ar   18   6.894   3.624   0.108
    1   AR   Ar   19   0.404   1.721   0.897
    1   AR   Ar   20   0.917   2.475  -2.159
    1   AR   Ar   21   6.782   0.711   2.375
    1   AR   Ar   22   7.072   1.974   2.128
    1   AR   Ar   23   0.590   1.021   1.888
    1   AR   Ar   24   7.050   2.981   1.189
    1   AR   Ar   25   0.139   1.241   3.201
    1   AR   Ar   26   6.127   1.418   3.333
    1   AR   Ar   27   2.184   0.817   3.608
    1   AR   Ar   28   0.988   2.427   4.549
    1   AR   Ar   29   6.155   1.855   5.783
    1   AR   Ar   30   7.106   2.978   6.364
    1   AR   Ar   31   0.438   1.028   7.651
    1   AR   Ar   32   2.069   2.862   5.346
    1   AR   Ar   33   1.192   3.822  -1.795
    1   AR   Ar   34   1.033   5.302   1.494
    1   AR   Ar   35   0.500   3.953   1.462
    1   AR   Ar   36   1.822   6.833  -1.951
    1   AR   Ar   37   0.352   3.026   2.261
    1   AR   Ar   38   7.000   4.579   2.348
    1   AR   Ar   39   0.953   4.160   2.594
    1   AR   Ar   40   1.425   4.226   1.606
    1   AR   Ar   41   0.635   2.110   3.103
    1   AR   Ar   42   6.779   5.121   5.263
    1   AR   Ar   43   6.859   2.983   5.219
    1   AR   Ar   44   0.710   3.065   3.464
    1   AR   Ar   45   0.607   3.532   5.044
    1   AR   Ar   46   6.212   5.474   6.659
    1   AR   Ar   47   0.217   3.966   6.961
    1   AR   Ar   48   6.708   6.927   6.276
    1   AR   Ar   49   6.353   5.280  -1.717
    1   AR   Ar   50   6.362   5.273   1.692
    1   AR   Ar   51   1.368   4.708   0.732
    1   AR   Ar   52   0.349   4.904  -0.133
    1   AR   Ar   53   6.304   5.855   2.743
    1   AR   Ar   54   0.477   6.247   3.173
    1   AR   Ar   55   0.190   5.317   3.489
    1   AR   Ar   56   1.269   6.250   1.139
    1   AR   Ar   57   7.021   3.827   3.101
    1   AR   Ar   58   6.877   5.873   4.495
    1   AR   Ar   59   2.002   5.632   5.220
    1   AR   Ar   60   1.293   7.042   3.993
    1   AR   Ar   61   6.190   5.939   5.737
    1   AR   Ar   62   0.172   6.389   5.453
    1   AR   Ar   63   1.194   5.262   6.120
    1   AR   Ar   64   1.421   6.548   5.029
    1   AR   Ar   65   2.874   7.113   0.010
    1   AR   Ar   66   1.558   0.960   1.392
    1   AR   Ar   67   3.002   6.074   0.473
    1   AR   Ar   68   3.527   0.779  -0.891
    1   AR   Ar   69   1.822   6.815   0.042
    1   AR   Ar   70   1.393   7.067   2.010
    1   AR   Ar   71   2.819   0.553   1.346
    1   AR   Ar   72   3.702   0.493   0.741
    1   AR   Ar   73   1.773   6.810   3.091
    1   AR   Ar   74   1.763   0.863   4.783
    1   AR   Ar   75   3.513   0.338   5.345
    1   AR   Ar   76   2.079   0.559   2.620
    1   AR   Ar   77   2.289   0.097   5.481
    1   AR   Ar   78   1.134   0.619   5.992
    1   AR   Ar   79   4.756   6.755   7.211
    1   AR   Ar   80   3.137   6.362   5.450
    1   AR   Ar   81   1.495   1.320   0.233
    1   AR   Ar   82   0.714   3.411   0.543
    1   AR   Ar   83   2.321   1.822   1.049
    1   AR   Ar   84   2.426   3.641  -3.829
    1   AR   Ar   85   1.067   2.335   0.277
    1   AR   Ar   86   1.947   3.171   2.082
    1   AR   Ar   87   2.084   1.593   2.090
    1   AR   Ar   88   2.604   3.165   1.247
    1   AR   Ar   89   1.109   2.072   1.799
    1   AR   Ar   90   2.734   2.200   4.812
    1   AR   Ar   91   1.871   1.984   4.140
    1   AR   Ar   92   1.716   2.036   3.091
    1   AR   Ar   93   1.459   1.777   5.454
    1   AR   Ar   94   3.177   0.407   7.794
    1   AR   Ar   95   3.216   7.027   6.445
    1   AR   Ar   96   2.394   0.849   6.585
    1   AR   Ar   97   3.436   2.794  -0.823
    1   AR   Ar   98   2.503   4.438   1.806
    1   AR   Ar   99   3.902   2.977  -1.660
    1   AR   Ar  100   2.026   4.156  -0.596
    1   AR   Ar  101   1.337   2.967   1.216
    1   AR   Ar  102   2.654   3.821   3.610
    1   AR   Ar  103   1.848   3.616   0.605
    1   AR   Ar  104   2.995   3.698  -0.916
    1   AR   Ar  105   1.883   3.198   3.287
    1   AR   Ar  106   2.257   3.117   4.346
    1   AR   Ar  107   2.550   4.108   5.353
    1   AR   Ar  108   3.446   3.054   4.019
    1   AR   Ar  109   1.861   4.148   4.377
    1   AR   Ar  110   1.159   4.559   5.263
    1   AR   Ar  111   4.287   4.144   7.124
    1   AR   Ar  112   1.802   4.499   6.341
    1   AR   Ar  113   2.391   4.616   0.479
    1   AR   Ar  114   2.584   5.498   1.252
    1   AR   Ar  115   3.176   5.096  -0.157
    1   AR   Ar  116   3.971   7.067  -0.125
    1   AR   Ar  117   1.265   4.668   3.435
    1   AR   Ar  118   1.249   6.058   2.435
    1   AR   Ar  119   2.162   4.220   2.801
    1   AR   Ar  120   1.904   5.259   2.123
    1   AR   Ar  121   6.526   4.456   3.796
    1   AR   Ar  122   2.598   6.048   4.251
    1   AR   Ar  123   2.212   5.123   4.176
    1   AR   Ar  124   2.320   5.871   3.318
    1   AR   Ar  125   0.306   4.844   4.446
    1   AR   Ar  126   1.113   6.533   6.167
    1   AR   Ar  127   2.267   5.080   7.167
    1   AR   Ar  128   2.166   6.108   6.367
    1   AR   Ar  129   2.014   7.079   1.155
    1   AR   Ar  130   4.425   0.085  -1.485
    1   AR   Ar  131   4.598   6.473   0.800
    1   AR   Ar  132   6.342   2.526  -1.073
    1   AR   Ar  133   3.458   0.351   2.515
    1   AR   Ar  134   4.104   1.313   2.475
    1   AR   Ar  135   4.557   0.462   2.946
    1   AR   Ar  136   4.322   0.622   1.802
    1   AR   Ar  137   2.841   7.082   3.402
    1   AR   Ar  138   4.875   1.298   5.072
    1   AR   Ar  139   5.269   0.461   3.893
    1   AR   Ar  140   4.137   1.063   4.064
    1   AR   Ar  141   4.070   0.052   4.371
    1   AR   Ar  142   4.518   6.881   5.284
    1   AR   Ar  143   5.710   6.810   5.835
    1   AR   Ar  144   5.256   0.924   6.973
    1   AR   Ar  145   3.105   3.180   0.292
    1   AR   Ar  146   4.298   2.937   1.316
    1   AR   Ar  147   5.365   2.129  -0.077
    1   AR   Ar  148   5.880   3.490  -1.981
    1   AR   Ar  149   4.613   1.316   0.886
    1   AR   Ar  150   3.009   1.453   2.541
    1   AR   Ar  151   3.468   1.799   3.681
    1   AR   Ar  152   2.880   2.461   2.015
    1   AR   Ar  153   3.168   0.884   4.157
    1   AR   Ar  154   3.699   2.116   4.616
    1   AR   Ar  155   5.687   0.756   5.804
    1   AR   Ar  156   4.288   3.695   3.790
    1   AR   Ar  157   3.963   1.752   5.791
    1   AR   Ar  158   2.141   1.997   6.138
    1   AR   Ar  159   4.501   0.645   5.861
    1   AR   Ar  160   4.088   2.890   5.958
    1   AR   Ar  161   5.001   3.242   0.073
    1   AR   Ar  162   4.839   5.369   0.281
    1   AR   Ar  163   5.929   3.336  -0.584
    1   AR   Ar  164   5.169   5.103   1.340
    1   AR   Ar  165   3.183   3.404   2.848
    1   AR   Ar  166   2.869   4.901   3.205
    1   AR   Ar  167   4.728   2.929   2.752
    1   AR   Ar  168   3.856   4.080   0.194
    1   AR   Ar  169   2.695   2.514   3.258
    1   AR   Ar  170   3.214   4.507   4.196
    1   AR   Ar  171   3.841   3.550   5.014
    1   AR   Ar  172   4.260   4.601   4.257
    1   AR   Ar  173   3.075   2.666   5.941
    1   AR   Ar  174   4.191   4.717   6.035
    1   AR   Ar  175   4.438   3.786   6.074
    1   AR   Ar  176   3.336   5.292   4.780
    1   AR   Ar  177   5.800   5.736  -0.628
    1   AR   Ar  178   3.754   6.783   1.438
    1   AR   Ar  179   3.677   5.768   1.279
    1   AR   Ar  180   3.889   4.213  -0.887
    1   AR   Ar  181   2.925   5.530   2.337
    1   AR   Ar  182   2.674   6.686   2.130
    1   AR   Ar  183   3.493   4.682   2.277
    1   AR   Ar  184   4.391   5.955   2.231
    1   AR   Ar  185   1.335   5.822   4.120
    1   AR   Ar  186   3.653   5.367   3.786
    1   AR   Ar  187   4.662   5.383   3.664
    1   AR   Ar  188   3.546   6.138   2.937
    1   AR   Ar  189   2.875   5.142   5.745
    1   AR   Ar  190   4.205   5.989   6.055
    1   AR   Ar  191   5.014   6.094   5.482
    1   AR   Ar  192   4.129   5.940   4.831
    1   AR   Ar  193   6.147   6.781  -0.172
    1   AR   Ar  194   5.368   0.227  -0.769
    1   AR   Ar  195   5.639   1.034   0.609
    1   AR   Ar  196   6.114   1.070  -0.385
    1   AR   Ar  197   4.947   0.363   0.910
    1   AR   Ar  198   5.849   1.233   1.707
    1   AR   Ar  199   5.255   0.340   2.164
    1   AR   Ar  200   6.472   1.675   0.713
    1   AR   Ar  201   4.701   6.333   3.195
    1   AR   Ar  202   5.030   1.650   4.031
    1   AR   Ar  203   0.097   6.854   4.431
    1   AR   Ar  204   5.772   0.623   2.956
    1   AR   Ar  205   6.263   6.801   3.475
    1   AR   Ar  206   5.442   0.053   4.912
    1   AR   Ar  207   0.187   0.346   5.516
    1   AR   Ar  208   6.781   0.510   3.824
    1   AR   Ar  209   6.778   2.704  -2.210
    1   AR   Ar  210   5.093   1.919   1.543
    1   AR   Ar  211   6.498   2.508   0.090
    1   AR   Ar  212   6.587   4.499  -0.520
    1   AR   Ar  213   3.854   2.421   2.395
    1   AR   Ar  214   4.331   3.810   2.015
    1   AR   Ar  215   6.107   2.117   2.161
    1   AR   Ar  216   6.614   3.814   1.779
    1   AR   Ar  217   5.065   2.660   3.700
    1   AR   Ar  218   4.645   2.391   5.046
    1   AR   Ar  219   5.214   1.346   2.492
    1   AR   Ar  220   5.540   3.454   3.058
    1   AR   Ar  221   6.412   0.315   5.060
    1   AR   Ar  222   5.011   1.669   6.055
    1   AR   Ar  223   6.281   0.928   6.755
    1   AR   Ar  224   5.721   2.710   5.440
    1   AR   Ar  225   5.069   4.427  -0.064
    1   AR   Ar  226   4.510   4.782   2.564
    1   AR   Ar  227   6.968   4.599   0.969
    1   AR   Ar  228   6.039   5.843   0.751
    1   AR   Ar  229   5.971   4.072   0.211
    1   AR   Ar  230   3.860   4.365   3.208
    1   AR   Ar  231   6.535   2.867   3.014
    1   AR   Ar  232   5.052   4.012   1.237
    1   AR   Ar  233   6.054   2.271   3.969
    1   AR   Ar  234   6.294   4.361   4.885
    1   AR   Ar  235   6.704   3.282   4.135
    1   AR   Ar  236   5.178   4.188   3.882
    1   AR   Ar  237   5.244   3.409   4.531
    1   AR   Ar  238   4.745   4.298   5.151
    1   AR   Ar  239   6.170   4.645   7.798
    1   AR   Ar  240   6.292   4.344   6.036
    1   AR   Ar  241   6.741   0.566   0.175
    1   AR   Ar  242   5.401   6.413   1.592
    1   AR   Ar  243   5.991   4.444   2.439
    1   AR   Ar  244   6.753   5.892  -0.101
    1   AR   Ar  245   5.226   5.465   2.440
    1   AR   Ar  246   6.469   6.821   1.828
    1   AR   Ar  247   5.360   2.916   1.396
    1   AR   Ar  248   6.080   7.068   0.836
    1   AR   Ar  249   5.725   5.035   3.340
    1   AR   Ar  250   4.883   6.434   4.219
    1   AR   Ar  251   5.421   5.466   4.533
    1   AR   Ar  252   5.716   5.934   3.725
    1   AR   Ar  253   5.510   5.092   5.643
    1   AR   Ar  254   5.267   6.109   6.600
    1   AR   Ar  255   5.429   4.542   6.818
    1   AR   Ar  256   5.976   6.365   4.762
    7.12000  7.12000 12.00000
Argon-slab step 1335
  256
    1   AR   Ar    1   0.337   0.884  -1.093
    1   AR   Ar    2   6.906   0.711   1.164
    1   AR   Ar    3   0.204   6.752   0.348
    1   AR   Ar    4   0.549   0.783   0.030
    1   AR   Ar    5   7.046   6.012   1.138
    1   AR   Ar    6   0.720   0.116   2.782
    1   AR   Ar    7   0.192   5.678   2.214
    1   AR   Ar    8   0.479   0.066   1.665
    1   AR   Ar    9   0.882   0.955   3.936
    1   AR   Ar   10   7.118   1.918   3.925
    1   AR   Ar   11   2.274   7.087   4.397
    1   AR   Ar   12   1.160   1.088   2.903
    1   AR   Ar   13   5.940   1.257   4.724
    1   AR   Ar   14   0.066   1.609   5.654
    1   AR   Ar   15   6.550   5.336   8.456
    1   AR   Ar   16   0.687   1.136   4.888
    1   AR   Ar   17   0.162   1.616  -0.348
    1   AR   Ar   18   6.895   3.621   0.107
    1   AR   Ar   19   0.422   1.740   0.889
    1   AR   Ar   20   0.896   2.488  -2.163
    1   AR   Ar   21   6.795   0.721   2.363
    1   AR   Ar   22   7.086   1.967   2.099
    1   AR   Ar   23   0.574   1.029   1.911
    1   AR   Ar   24   7.042   2.979   1.179
    1   AR   Ar   25   0.134   1.214   3.186
    1   AR   Ar   26   6.152   1.409   3.351
    1   AR   Ar   27   2.181   0.844   3.589
    1   AR   Ar   28   0.991   2.421   4.580
    1   AR   Ar   29   6.154   1.852   5.772
    1   AR   Ar   30   7.114   2.982   6.364
    1   AR   Ar   31   0.440   1.013   7.675
    1   AR   Ar   32   2.065   2.871   5.326
    1   AR   Ar   33   1.191   3.844  -1.797
    1   AR   Ar   34   1.040   5.306   1.522
    1   AR   Ar   35   0.543   3.947   1.457
    1   AR   Ar   36   1.820   6.847  -1.956
    1   AR   Ar   37   0.376   3.024   2.266
    1   AR   Ar   38   7.009   4.564   2.364
    1   AR   Ar   39   0.967   4.174   2.574
    1   AR   Ar   40   1.466   4.227   1.603
    1   AR   Ar   41   0.632   2.106   3.088
    1   AR   Ar   42   6.795   5.098   5.312
    1   AR   Ar   43   6.853   3.005   5.226
    1   AR   Ar   44   0.735   3.069   3.436
    1   AR   Ar   45   0.589   3.514   5.037
    1   AR   Ar   46   6.220   5.477   6.641
    1   AR   Ar   47   0.219   3.985   6.930
    1   AR   Ar   48   6.712   6.914   6.289
    1   AR   Ar   49   6.336   5.295  -1.709
    1   AR   Ar   50   6.346   5.277   1.679
    1   AR   Ar   51   1.358   4.701   0.701
    1   AR   Ar   52   0.369   4.898  -0.152
    1   AR   Ar   53   6.292   5.846   2.707
    1   AR   Ar   54   0.473   6.226   3.181
    1   AR   Ar   55   0.203   5.309   3.512
    1   AR   Ar   56   1.265   6.256   1.141
    1   AR   Ar   57   7.026   3.847   3.103
    1   AR   Ar   58   6.888   5.842   4.469
    1   AR   Ar   59   2.032   5.614   5.240
    1   AR   Ar   60   1.300   7.045   3.997
    1   AR   Ar   61   6.190   5.938   5.760
    1   AR   Ar   62   0.176   6.373   5.434
    1   AR   Ar   63   1.156   5.268   6.102
    1   AR   Ar   64   1.430   6.558   5.067
    1   AR   Ar   65   2.898   0.020   0.016
    1   AR   Ar   66   1.578   0.959   1.384
    1   AR   Ar   67   3.006   6.080   0.486
    1   AR   Ar   68   3.503   0.816  -0.946
    1   AR   Ar   69   1.853   6.776   0.061
    1   AR   Ar   70   1.401   7.105   2.005
    1   AR   Ar   71   2.782   0.550   1.386
    1   AR   Ar   72   3.724   0.496   0.748
    1   AR   Ar   73   1.766   6.821   3.081
    1   AR   Ar   74   1.738   0.869   4.779
    1   AR   Ar   75   3.522   0.342   5.344
    1   AR   Ar   76   2.113   0.537   2.614
    1   AR   Ar   77   2.284   0.086   5.514
    1   AR   Ar   78   1.087   0.601   6.003
    1   AR   Ar   79   4.727   6.731   7.198
    1   AR   Ar   80   3.146   6.355   5.464
    1   AR   Ar   81   1.462   1.339   0.239
    1   AR   Ar   82   0.708   3.426   0.542
    1   AR   Ar   83   2.321   1.841   1.060
    1   AR   Ar   84   2.421   3.639  -3.814
    1   AR   Ar   85   1.079   2.327   0.260
    1   AR   Ar   86   1.950   3.131   2.102
    1   AR   Ar   87   2.094   1.595   2.064
    1   AR   Ar   88   2.569   3.147   1.260
    1   AR   Ar   89   1.101   2.059   1.796
    1   AR   Ar   90   2.744   2.211   4.805
    1   AR   Ar   91   1.860   1.975   4.185
    1   AR   Ar   92   1.727   2.026   3.091
    1   AR   Ar   93   1.442   1.775   5.440
    1   AR   Ar   94   3.181   0.374   7.763
    1   AR   Ar   95   3.215   7.046   6.468
    1   AR   Ar   96   2.401   0.856   6.578
    1   AR   Ar   97   3.458   2.797  -0.769
    1   AR   Ar   98   2.518   4.452   1.811
    1   AR   Ar   99   3.946   2.966  -1.676
    1   AR   Ar  100   2.017   4.119  -0.584
    1   AR   Ar  101   1.330   2.954   1.201
    1   AR   Ar  102   2.674   3.806   3.584
    1   AR   Ar  103   1.851   3.649   0.603
    1   AR   Ar  104   2.997   3.662  -0.937
    1   AR   Ar  105   1.858   3.175   3.272
    1   AR   Ar  106   2.255   3.126   4.342
    1   AR   Ar  107   2.534   4.081   5.346
    1   AR   Ar  108   3.448   3.051   4.041
    1   AR   Ar  109   1.854   4.149   4.376
    1   AR   Ar  110   1.149   4.554   5.277
    1   AR   Ar  111   4.281   4.118   7.102
    1   AR   Ar  112   1.834   4.513   6.385
    1   AR   Ar  113   2.370   4.602   0.515
    1   AR   Ar  114   2.579   5.491   1.277
    1   AR   Ar  115   3.150   5.098  -0.166
    1   AR   Ar  116   3.962   7.089  -0.141
    1   AR   Ar  117   1.288   4.665   3.443
    1   AR   Ar  118   1.247   6.037   2.417
    1   AR   Ar  119   2.168   4.209   2.829
    1   AR   Ar  120   1.926   5.268   2.130
    1   AR   Ar  121   6.530   4.426   3.813
    1   AR   Ar  122   2.593   6.078   4.278
    1   AR   Ar  123   2.234   5.119   4.146
    1   AR   Ar  124   2.311   5.894   3.320
    1   AR   Ar  125   0.315   4.865   4.439
    1   AR   Ar  126   1.110   6.536   6.165
    1   AR   Ar  127   2.267   5.052   7.144
    1   AR   Ar  128   2.191   6.088   6.361
    1   AR   Ar  129   2.025   7.094   1.137
    1   AR   Ar  130   4.443   0.102  -1.453
    1   AR   Ar  131   4.597   6.489   0.820
    1   AR   Ar  132   6.363   2.516  -1.072
    1   AR   Ar  133   3.450   0.329   2.533
    1   AR   Ar  134   4.077   1.320   2.499
    1   AR   Ar  135   4.526   0.467   2.918
    1   AR   Ar  136   4.357   0.611   1.804
    1   AR   Ar  137   2.882   7.053   3.386
    1   AR   Ar  138   4.868   1.274   5.075
    1   AR   Ar  139   5.303   0.501   3.915
    1   AR   Ar  140   4.125   1.096   4.068
    1   AR   Ar  141   4.071   0.067   4.361
    1   AR   Ar  142   4.534   6.884   5.307
    1   AR   Ar  143   5.723   6.807   5.823
    1   AR   Ar  144   5.274   0.931   6.945
    1   AR   Ar  145   3.136   3.138   0.287
    1   AR   Ar  146   4.305   2.929   1.351
    1   AR   Ar  147   5.350   2.137  -0.059
    1   AR   Ar  148   5.916   3.481  -1.934
    1   AR   Ar  149   4.607   1.312   0.871
    1   AR   Ar  150   3.010   1.450   2.558
    1   AR   Ar  151   3.453   1.777   3.683
    1   AR   Ar  152   2.879   2.493   1.997
    1   AR   Ar  153   3.200   0.909   4.145
    1   AR   Ar  154   3.686   2.127   4.620
    1   AR   Ar  155   5.670   0.759   5.794
    1   AR   Ar  156   4.288   3.689   3.792
    1   AR   Ar  157   3.921   1.759   5.803
    1   AR   Ar  158   2.116   2.017   6.152
    1   AR   Ar  159   4.502   0.657   5.853
    1   AR   Ar  160   4.055   2.917   5.960
    1   AR   Ar  161   5.010   3.258   0.094
    1   AR   Ar  162   4.853   5.361   0.307
    1   AR   Ar  163   5.934   3.336  -0.570
    1   AR   Ar  164   5.169   5.103   1.344
    1   AR   Ar  165   3.178   3.411   2.863
    1   AR   Ar  166   2.869   4.893   3.255
    1   AR   Ar  167   4.721   2.898   2.755
    1   AR   Ar  168   3.862   4.100   0.177
    1   AR   Ar  169   2.678   2.506   3.283
    1   AR   Ar  170   3.191   4.526   4.199
    1   AR   Ar  171   3.814   3.552   5.026
    1   AR   Ar  172   4.266   4.618   4.229
    1   AR   Ar  173   3.046   2.662   5.950
    1   AR   Ar  174   4.190   4.707   6.023
    1   AR   Ar  175   4.396   3.787   6.070
    1   AR   Ar  176   3.326   5.277   4.786
    1   AR   Ar  177   5.819   5.733  -0.631
    1   AR   Ar  178   3.724   6.810   1.455
    1   AR   Ar  179   3.683   5.758   1.285
    1   AR   Ar  180   3.895   4.235  -0.884
    1   AR   Ar  181   2.940   5.530   2.347
    1   AR   Ar  182   2.661   6.661   2.122
    1   AR   Ar  183   3.498   4.677   2.282
    1   AR   Ar  184   4.361   5.970   2.209
    1   AR   Ar  185   1.322   5.811   4.118
    1   AR   Ar  186   3.645   5.381   3.770
    1   AR   Ar  187   4.669   5.380   3.655
    1   AR   Ar  188   3.529   6.140   2.930
    1   AR   Ar  189   2.893   5.133   5.733
    1   AR   Ar  190   4.179   5.980   6.059
    1   AR   Ar  191   5.053   6.068   5.501
    1   AR   Ar  192   4.122   5.932   4.843
    1   AR   Ar  193   6.128   6.765  -0.161
    1   AR   Ar  194   5.389   0.219  -0.762
    1   AR   Ar  195   5.648   1.039   0.594
    1   AR   Ar  196   6.099   1.046  -0.383
    1   AR   Ar  197   4.981   0.354   0.890
    1   AR   Ar  198   5.872   1.201   1.699
    1   AR   Ar  199   5.253   0.320   2.171
    1   AR   Ar  200   6.489   1.656   0.697
    1   AR   Ar  201   4.714   6.306   3.194
    1   AR   Ar  202   5.033   1.662   4.045
    1   AR   Ar  203   0.112   6.860   4.418
    1   AR   Ar  204   5.761   0.614   2.993
    1   AR   Ar  205   6.271   6.809   3.458
    1   AR   Ar  206   5.434   0.062   4.898
    1   AR   Ar  207   0.178   0.324   5.517
    1   AR   Ar  208   6.795   0.532   3.837
    1   AR   Ar  209   6.783   2.697  -2.226
    1   AR   Ar  210   5.095   1.933   1.558
    1   AR   Ar  211   6.493   2.509   0.070
    1   AR   Ar  212   6.591   4.491  -0.531
    1   AR   Ar  213   3.827   2.435   2.355
    1   AR   Ar  214   4.338   3.819   2.013
    1   AR   Ar  215   6.051   2.111   2.191
    1   AR   Ar  216   6.642   3.800   1.768
    1   AR   Ar  217   5.055   2.651   3.710
    1   AR   Ar  218   4.635   2.355   5.054
    1   AR   Ar  219   5.223   1.343   2.541
    1   AR   Ar  220   5.553   3.477   3.074
    1   AR   Ar  221   6.413   0.323   5.056
    1   AR   Ar  222   5.035   1.653   6.088
    1   AR   Ar  223   6.273   0.913   6.738
    1   AR   Ar  224   5.674   2.707   5.406
    1   AR   Ar  225   5.036   4.408  -0.050
    1   AR   Ar  226   4.523   4.779   2.560
    1   AR   Ar  227   6.962   4.619   0.950
    1   AR   Ar  228   6.031   5.840   0.750
    1   AR   Ar  229   5.976   4.049   0.218
    1   AR   Ar  230   3.843   4.362   3.233
    1   AR   Ar  231   6.514   2.857   3.047
    1   AR   Ar  232   5.046   4.006   1.254
    1   AR   Ar  233   6.049   2.310   3.954
    1   AR   Ar  234   6.324   4.372   4.866
    1   AR   Ar  235   6.662   3.268   4.137
    1   AR   Ar  236   5.169   4.214   3.877
    1   AR   Ar  237   5.285   3.383   4.544
    1   AR   Ar  238   4.745   4.294   5.155
    1   AR   Ar  239   6.161   4.636   7.787
    1   AR   Ar  240   6.319   4.319   6.062
    1   AR   Ar  241   6.760   0.575   0.187
    1   AR   Ar  242   5.439   6.405   1.561
    1   AR   Ar  243   5.986   4.415   2.422
    1   AR   Ar  244   6.742   5.877  -0.100
    1   AR   Ar  245   5.243   5.440   2.479
    1   AR   Ar  246   6.447   6.859   1.803
    1   AR   Ar  247   5.383   2.894   1.384
    1   AR   Ar  248   6.092   7.080   0.830
    1   AR   Ar  249   5.716   5.043   3.360
    1   AR   Ar  250   4.873   6.439   4.247
    1   AR   Ar  251   5.442   5.454   4.524
    1   AR   Ar  252   5.713   5.961   3.738
    1   AR   Ar  253   5.528   5.060   5.678
    1   AR   Ar  254   5.282   6.109   6.595
    1   AR   Ar  255   5.450   4.532   6.821
    1   AR   Ar  256   5.945   6.356   4.759
    7.12000  7.12000 12.00000
Argon-slab step 1340
  256
    1   AR   Ar    1   0.323   0.884  -1.097
    1   AR   Ar    2   6.889   0.717   1.161
    1   AR   Ar    3   0.201   6.713   0.309
    1   AR   Ar    4   0.555   0.775   0.043
    1   AR   Ar    5   7.052   6.019   1.141
    1   AR   Ar    6   0.743   0.118   2.766
    1   AR   Ar    7   0.189   5.664   2.211
    1   AR   Ar    8   0.513   0.050   1.657
    1   AR   Ar    9   0.878   0.965   3.930
    1   AR   Ar   10   7.116   1.940   3.882
    1   AR   Ar   11   2.269   7.097   4.443
    1   AR   Ar   12   1.132   1.106   2.915
    1   AR   Ar   13   5.948   1.270   4.727
    1   AR   Ar   14   0.080   1.581   5.686
    1   AR   Ar   15   6.565   5.348   8.487
    1   AR   Ar   16   0.724   1.141   4.878
    1   AR   Ar   17   0.154   1.645  -0.366
    1   AR   Ar   18   6.898   3.616   0.106
    1   AR   Ar   19   0.440   1.758   0.883
    1   AR   Ar   20   0.875   2.502  -2.167
    1   AR   Ar   21   6.803   0.728   2.349
    1   AR   Ar   22   7.105   1.959   2.070
    1   AR   Ar   23   0.563   1.048   1.936
    1   AR   Ar   24   7.035   2.976   1.168
    1   AR   Ar   25   0.126   1.182   3.166
    1   AR   Ar   26   6.186   1.416   3.375
    1   AR   Ar   27   2.176   0.873   3.577
    1   AR   Ar   28   0.990   2.415   4.613
    1   AR   Ar   29   6.152   1.846   5.762
    1   AR   Ar   30   0.001   2.986   6.362
    1   AR   Ar   31   0.442   0.998   7.699
    1   AR   Ar   32   2.030   2.894   5.304
    1   AR   Ar   33   1.190   3.866  -1.798
    1   AR   Ar   34   1.043   5.307   1.552
    1   AR   Ar   35   0.576   3.937   1.453
    1   AR   Ar   36   1.814   6.870  -1.963
    1   AR   Ar   37   0.400   3.023   2.270
    1   AR   Ar   38   7.021   4.534   2.324
    1   AR   Ar   39   0.978   4.186   2.552
    1   AR   Ar   40   1.522   4.229   1.605
    1   AR   Ar   41   0.628   2.111   3.068
    1   AR   Ar   42   6.817   5.087   5.370
    1   AR   Ar   43   6.840   3.023   5.234
    1   AR   Ar   44   0.759   3.079   3.410
    1   AR   Ar   45   0.578   3.499   5.027
    1   AR   Ar   46   6.217   5.487   6.655
    1   AR   Ar   47   0.221   4.003   6.897
    1   AR   Ar   48   6.715   6.901   6.300
    1   AR   Ar   49   6.318   5.310  -1.700
    1   AR   Ar   50   6.330   5.280   1.667
    1   AR   Ar   51   1.343   4.694   0.665
    1   AR   Ar   52   0.392   4.893  -0.168
    1   AR   Ar   53   6.280   5.836   2.670
    1   AR   Ar   54   0.470   6.213   3.188
    1   AR   Ar   55   0.214   5.293   3.541
    1   AR   Ar   56   1.261   6.265   1.144
    1   AR   Ar   57   6.993   3.820   3.102
    1   AR   Ar   58   6.897   5.808   4.443
    1   AR   Ar   59   2.058   5.607   5.253
    1   AR   Ar   60   1.277   7.021   4.006
    1   AR   Ar   61   6.194   5.932   5.773
    1   AR   Ar   62   0.185   6.352   5.411
    1   AR   Ar   63   1.136   5.268   6.083
    1   AR   Ar   64   1.440   6.569   5.103
    1   AR   Ar   65   2.922   0.048   0.025
    1   AR   Ar   66   1.596   0.956   1.375
    1   AR   Ar   67   3.009   6.088   0.496
    1   AR   Ar   68   3.481   0.851  -0.999
    1   AR   Ar   69   1.883   6.736   0.081
    1   AR   Ar   70   1.422   0.020   2.003
    1   AR   Ar   71   2.754   0.553   1.432
    1   AR   Ar   72   3.748   0.500   0.758
    1   AR   Ar   73   1.759   6.826   3.070
    1   AR   Ar   74   1.713   0.874   4.773
    1   AR   Ar   75   3.532   0.345   5.343
    1   AR   Ar   76   2.151   0.520   2.598
    1   AR   Ar   77   2.278   0.074   5.546
    1   AR   Ar   78   1.044   0.583   6.014
    1   AR   Ar   79   4.696   6.710   7.187
    1   AR   Ar   80   3.155   6.348   5.478
    1   AR   Ar   81   1.430   1.356   0.247
    1   AR   Ar   82   0.702   3.443   0.538
    1   AR   Ar   83   2.320   1.861   1.070
    1   AR   Ar   84   2.404   3.655  -3.808
    1   AR   Ar   85   1.080   2.312   0.243
    1   AR   Ar   86   1.951   3.092   2.126
    1   AR   Ar   87   2.101   1.599   2.042
    1   AR   Ar   88   2.563   3.159   1.238
    1   AR   Ar   89   1.092   2.045   1.794
    1   AR   Ar   90   2.739   2.224   4.802
    1   AR   Ar   91   1.852   1.965   4.228
    1   AR   Ar   92   1.737   2.016   3.090
    1   AR   Ar   93   1.420   1.771   5.418
    1   AR   Ar   94   3.186   0.342   7.731
    1   AR   Ar   95   3.211   7.073   6.485
    1   AR   Ar   96   2.408   0.861   6.569
    1   AR   Ar   97   3.480   2.797  -0.694
    1   AR   Ar   98   2.534   4.465   1.813
    1   AR   Ar   99   3.993   2.957  -1.696
    1   AR   Ar  100   2.009   4.083  -0.571
    1   AR   Ar  101   1.324   2.938   1.193
    1   AR   Ar  102   2.691   3.795   3.580
    1   AR   Ar  103   1.854   3.684   0.600
    1   AR   Ar  104   2.993   3.634  -0.959
    1   AR   Ar  105   1.822   3.173   3.272
    1   AR   Ar  106   2.254   3.123   4.363
    1   AR   Ar  107   2.518   4.054   5.338
    1   AR   Ar  108   3.447   3.047   4.063
    1   AR   Ar  109   1.842   4.150   4.375
    1   AR   Ar  110   1.140   4.549   5.289
    1   AR   Ar  111   4.276   4.093   7.080
    1   AR   Ar  112   1.866   4.522   6.423
    1   AR   Ar  113   2.355   4.589   0.550
    1   AR   Ar  114   2.572   5.483   1.304
    1   AR   Ar  115   3.124   5.098  -0.174
    1   AR   Ar  116   3.957   7.110  -0.160
    1   AR   Ar  117   1.317   4.671   3.473
    1   AR   Ar  118   1.246   6.019   2.399
    1   AR   Ar  119   2.166   4.200   2.849
    1   AR   Ar  120   1.948   5.275   2.140
    1   AR   Ar  121   6.533   4.399   3.832
    1   AR   Ar  122   2.593   6.112   4.312
    1   AR   Ar  123   2.255   5.112   4.115
    1   AR   Ar  124   2.301   5.916   3.314
    1   AR   Ar  125   0.325   4.883   4.436
    1   AR   Ar  126   1.092   6.526   6.168
    1   AR   Ar  127   2.270   5.028   7.124
    1   AR   Ar  128   2.216   6.068   6.354
    1   AR   Ar  129   2.028   7.101   1.114
    1   AR   Ar  130   4.461   0.119  -1.420
    1   AR   Ar  131   4.595   6.501   0.840
    1   AR   Ar  132   6.386   2.503  -1.072
    1   AR   Ar  133   3.442   0.308   2.549
    1   AR   Ar  134   4.049   1.334   2.526
    1   AR   Ar  135   4.494   0.471   2.894
    1   AR   Ar  136   4.351   0.603   1.813
    1   AR   Ar  137   2.921   7.022   3.371
    1   AR   Ar  138   4.860   1.295   5.073
    1   AR   Ar  139   5.333   0.542   3.942
    1   AR   Ar  140   4.139   1.132   4.072
    1   AR   Ar  141   4.071   0.082   4.350
    1   AR   Ar  142   4.539   6.892   5.327
    1   AR   Ar  143   5.732   6.813   5.815
    1   AR   Ar  144   5.253   0.927   6.957
    1   AR   Ar  145   3.167   3.097   0.281
    1   AR   Ar  146   4.310   2.921   1.386
    1   AR   Ar  147   5.337   2.144  -0.040
    1   AR   Ar  148   5.947   3.489  -1.922
    1   AR   Ar  149   4.596   1.309   0.855
    1   AR   Ar  150   3.012   1.448   2.578
    1   AR   Ar  151   3.434   1.763   3.675
    1   AR   Ar  152   2.871   2.522   1.982
    1   AR   Ar  153   3.206   0.923   4.138
    1   AR   Ar  154   3.690   2.136   4.626
    1   AR   Ar  155   5.673   0.789   5.781
    1   AR   Ar  156   4.276   3.674   3.785
    1   AR   Ar  157   3.881   1.766   5.812
    1   AR   Ar  158   2.098   2.038   6.171
    1   AR   Ar  159   4.503   0.671   5.849
    1   AR   Ar  160   4.017   2.920   5.958
    1   AR   Ar  161   5.019   3.274   0.116
    1   AR   Ar  162   4.867   5.360   0.335
    1   AR   Ar  163   5.938   3.337  -0.556
    1   AR   Ar  164   5.171   5.104   1.350
    1   AR   Ar  165   3.182   3.412   2.865
    1   AR   Ar  166   2.868   4.885   3.301
    1   AR   Ar  167   4.712   2.868   2.753
    1   AR   Ar  168   3.863   4.124   0.154
    1   AR   Ar  169   2.665   2.497   3.309
    1   AR   Ar  170   3.177   4.533   4.197
    1   AR   Ar  171   3.787   3.555   5.037
    1   AR   Ar  172   4.270   4.638   4.207
    1   AR   Ar  173   3.013   2.656   5.956
    1   AR   Ar  174   4.184   4.722   6.009
    1   AR   Ar  175   4.369   3.788   6.068
    1   AR   Ar  176   3.315   5.272   4.802
    1   AR   Ar  177   5.837   5.730  -0.634
    1   AR   Ar  178   3.693   6.839   1.475
    1   AR   Ar  179   3.678   5.765   1.259
    1   AR   Ar  180   3.902   4.258  -0.882
    1   AR   Ar  181   2.951   5.533   2.355
    1   AR   Ar  182   2.647   6.637   2.115
    1   AR   Ar  183   3.505   4.669   2.284
    1   AR   Ar  184   4.328   5.985   2.185
    1   AR   Ar  185   1.309   5.801   4.114
    1   AR   Ar  186   3.615   5.379   3.784
    1   AR   Ar  187   4.683   5.377   3.645
    1   AR   Ar  188   3.513   6.147   2.926
    1   AR   Ar  189   2.910   5.125   5.723
    1   AR   Ar  190   4.150   5.971   6.063
    1   AR   Ar  191   5.101   6.030   5.516
    1   AR   Ar  192   4.118   5.927   4.856
    1   AR   Ar  193   6.111   6.749  -0.152
    1   AR   Ar  194   5.409   0.210  -0.755
    1   AR   Ar  195   5.672   1.049   0.568
    1   AR   Ar  196   6.079   1.028  -0.417
    1   AR   Ar  197   5.011   0.336   0.875
    1   AR   Ar  198   5.899   1.162   1.686
    1   AR   Ar  199   5.258   0.294   2.169
    1   AR   Ar  200   6.507   1.634   0.682
    1   AR   Ar  201   4.727   6.284   3.189
    1   AR   Ar  202   5.040   1.670   4.060
    1   AR   Ar  203   0.129   6.867   4.406
    1   AR   Ar  204   5.752   0.585   3.027
    1   AR   Ar  205   6.279   6.817   3.440
    1   AR   Ar  206   5.416   0.084   4.881
    1   AR   Ar  207   0.171   0.314   5.528
    1   AR   Ar  208   6.809   0.557   3.852
    1   AR   Ar  209   6.789   2.690  -2.241
    1   AR   Ar  210   5.095   1.944   1.577
    1   AR   Ar  211   6.487   2.513   0.048
    1   AR   Ar  212   6.594   4.483  -0.544
    1   AR   Ar  213   3.804   2.448   2.317
    1   AR   Ar  214   4.342   3.827   2.015
    1   AR   Ar  215   5.991   2.108   2.224
    1   AR   Ar  216   6.666   3.784   1.755
    1   AR   Ar  217   5.045   2.647   3.723
    1   AR   Ar  218   4.627   2.321   5.063
    1   AR   Ar  219   5.226   1.348   2.589
    1   AR   Ar  220   5.569   3.502   3.091
    1   AR   Ar  221   6.411   0.330   5.048
    1   AR   Ar  222   5.060   1.637   6.120
    1   AR   Ar  223   6.262   0.895   6.717
    1   AR   Ar  224   5.625   2.706   5.369
    1   AR   Ar  225   5.029   4.409  -0.058
    1   AR   Ar  226   4.532   4.771   2.557
    1   AR   Ar  227   6.964   4.634   0.911
    1   AR   Ar  228   6.020   5.838   0.749
    1   AR   Ar  229   5.976   4.022   0.228
    1   AR   Ar  230   3.830   4.373   3.219
    1   AR   Ar  231   6.495   2.846   3.079
    1   AR   Ar  232   5.041   4.000   1.267
    1   AR   Ar  233   6.046   2.349   3.941
    1   AR   Ar  234   6.345   4.373   4.841
    1   AR   Ar  235   6.621   3.255   4.137
    1   AR   Ar  236   5.167   4.244   3.870
    1   AR   Ar  237   5.326   3.355   4.558
    1   AR   Ar  238   4.746   4.291   5.157
    1   AR   Ar  239   6.151   4.625   7.771
    1   AR   Ar  240   6.345   4.295   6.088
    1   AR   Ar  241   6.760   0.574   0.199
    1   AR   Ar  242   5.477   6.398   1.530
    1   AR   Ar  243   5.975   4.387   2.405
    1   AR   Ar  244   6.734   5.860  -0.097
    1   AR   Ar  245   5.273   5.423   2.516
    1   AR   Ar  246   6.428   6.898   1.779
    1   AR   Ar  247   5.356   2.867   1.388
    1   AR   Ar  248   6.102   7.095   0.827
    1   AR   Ar  249   5.707   5.041   3.377
    1   AR   Ar  250   4.866   6.445   4.279
    1   AR   Ar  251   5.457   5.432   4.527
    1   AR   Ar  252   5.713   6.003   3.742
    1   AR   Ar  253   5.546   5.027   5.713
    1   AR   Ar  254   5.302   6.085   6.587
    1   AR   Ar  255   5.470   4.522   6.823
    1   AR   Ar  256   5.921   6.339   4.755
    7.12000  7.12000 12.00000
Argon-slab step 1345
  256
    1   AR   Ar    1   0.309   0.882  -1.102
    1   AR   Ar    2   6.873   0.724   1.172
    1   AR   Ar    3   0.197   6.677   0.270
    1   AR   Ar    4   0.581   0.766   0.054
    1   AR   Ar    5   7.058   6.027   1.145
    1   AR   Ar    6   0.749   0.116   2.741
    1   AR   Ar    7   0.186   5.650   2.207
    1   AR   Ar    8   0.533   0.029   1.642
    1   AR   Ar    9   0.875   0.974   3.903
    1   AR   Ar   10   7.102   1.912   3.874
    1   AR   Ar   11   2.266   7.110   4.487
    1   AR   Ar   12   1.112   1.126   2.923
    1   AR   Ar   13   5.965   1.285   4.721
    1   AR   Ar   14   0.095   1.551   5.717
    1   AR   Ar   15   6.581   5.360   8.519
    1   AR   Ar   16   0.752   1.148   4.881
    1   AR   Ar   17   0.143   1.679  -0.381
    1   AR   Ar   18   6.904   3.608   0.109
    1   AR   Ar   19   0.459   1.774   0.880
    1   AR   Ar   20   0.852   2.516  -2.171
    1   AR   Ar   21   6.804   0.732   2.334
    1   AR   Ar   22   0.004   1.951   2.042
    1   AR   Ar   23   0.559   1.072   1.960
    1   AR   Ar   24   7.030   2.970   1.156
    1   AR   Ar   25   0.118   1.151   3.142
    1   AR   Ar   26   6.222   1.431   3.403
    1   AR   Ar   27   2.170   0.902   3.569
    1   AR   Ar   28   0.986   2.412   4.646
    1   AR   Ar   29   6.148   1.837   5.751
    1   AR   Ar   30   0.007   2.991   6.360
    1   AR   Ar   31   0.443   0.983   7.723
    1   AR   Ar   32   2.034   2.907   5.299
    1   AR   Ar   33   1.190   3.888  -1.800
    1   AR   Ar   34   1.044   5.305   1.583
    1   AR   Ar   35   0.600   3.925   1.451
    1   AR   Ar   36   1.808   6.893  -1.970
    1   AR   Ar   37   0.423   3.022   2.275
    1   AR   Ar   38   7.040   4.514   2.286
    1   AR   Ar   39   0.989   4.196   2.529
    1   AR   Ar   40   1.586   4.231   1.610
    1   AR   Ar   41   0.618   2.152   3.043
    1   AR   Ar   42   6.842   5.083   5.431
    1   AR   Ar   43   6.819   3.036   5.244
    1   AR   Ar   44   0.780   3.093   3.384
    1   AR   Ar   45   0.574   3.488   5.014
    1   AR   Ar   46   6.211   5.493   6.683
    1   AR   Ar   47   0.212   3.979   6.905
    1   AR   Ar   48   6.717   6.887   6.311
    1   AR   Ar   49   6.300   5.325  -1.689
    1   AR   Ar   50   6.314   5.283   1.656
    1   AR   Ar   51   1.321   4.688   0.627
    1   AR   Ar   52   0.415   4.889  -0.181
    1   AR   Ar   53   6.269   5.827   2.635
    1   AR   Ar   54   0.469   6.206   3.194
    1   AR   Ar   55   0.222   5.275   3.560
    1   AR   Ar   56   1.257   6.278   1.147
    1   AR   Ar   57   6.953   3.778   3.099
    1   AR   Ar   58   6.904   5.776   4.418
    1   AR   Ar   59   2.074   5.637   5.240
    1   AR   Ar   60   1.251   6.998   4.016
    1   AR   Ar   61   6.179   5.925   5.778
    1   AR   Ar   62   0.193   6.329   5.388
    1   AR   Ar   63   1.129   5.263   6.065
    1   AR   Ar   64   1.449   6.581   5.138
    1   AR   Ar   65   2.943   0.076   0.036
    1   AR   Ar   66   1.611   0.953   1.364
    1   AR   Ar   67   3.012   6.099   0.505
    1   AR   Ar   68   3.459   0.875  -1.041
    1   AR   Ar   69   1.913   6.696   0.102
    1   AR   Ar   70   1.458   0.053   2.002
    1   AR   Ar   71   2.737   0.564   1.484
    1   AR   Ar   72   3.772   0.507   0.768
    1   AR   Ar   73   1.750   6.828   3.061
    1   AR   Ar   74   1.693   0.878   4.766
    1   AR   Ar   75   3.541   0.348   5.341
    1   AR   Ar   76   2.194   0.508   2.575
    1   AR   Ar   77   2.273   0.063   5.580
    1   AR   Ar   78   1.005   0.567   6.025
    1   AR   Ar   79   4.663   6.692   7.176
    1   AR   Ar   80   3.164   6.339   5.491
    1   AR   Ar   81   1.401   1.368   0.258
    1   AR   Ar   82   0.699   3.460   0.530
    1   AR   Ar   83   2.318   1.882   1.076
    1   AR   Ar   84   2.383   3.676  -3.806
    1   AR   Ar   85   1.080   2.306   0.226
    1   AR   Ar   86   1.949   3.054   2.153
    1   AR   Ar   87   2.106   1.603   2.028
    1   AR   Ar   88   2.564   3.182   1.204
    1   AR   Ar   89   1.083   2.030   1.793
    1   AR   Ar   90   2.721   2.237   4.801
    1   AR   Ar   91   1.846   1.952   4.270
    1   AR   Ar   92   1.747   2.005   3.088
    1   AR   Ar   93   1.397   1.767   5.394
    1   AR   Ar   94   3.190   0.309   7.697
    1   AR   Ar   95   3.206   7.100   6.500
    1   AR   Ar   96   2.415   0.866   6.559
    1   AR   Ar   97   3.508   2.790  -0.620
    1   AR   Ar   98   2.554   4.475   1.814
    1   AR   Ar   99   4.039   2.948  -1.715
    1   AR   Ar  100   2.001   4.046  -0.556
    1   AR   Ar  101   1.320   2.920   1.188
    1   AR   Ar  102   2.702   3.788   3.601
    1   AR   Ar  103   1.854   3.717   0.595
    1   AR   Ar  104   2.985   3.613  -0.982
    1   AR   Ar  105   1.782   3.186   3.280
    1   AR   Ar  106   2.256   3.122   4.372
    1   AR   Ar  107   2.501   4.028   5.328
    1   AR   Ar  108   3.442   3.042   4.084
    1   AR   Ar  109   1.831   4.150   4.373
    1   AR   Ar  110   1.132   4.542   5.298
    1   AR   Ar  111   4.272   4.070   7.058
    1   AR   Ar  112   1.889   4.519   6.444
    1   AR   Ar  113   2.349   4.579   0.585
    1   AR   Ar  114   2.567   5.475   1.329
    1   AR   Ar  115   3.099   5.097  -0.181
    1   AR   Ar  116   3.956   0.011  -0.180
    1   AR   Ar  117   1.348   4.678   3.504
    1   AR   Ar  118   1.242   6.004   2.381
    1   AR   Ar  119   2.156   4.194   2.859
    1   AR   Ar  120   1.966   5.280   2.154
    1   AR   Ar  121   6.535   4.376   3.847
    1   AR   Ar  122   2.597   6.143   4.349
    1   AR   Ar  123   2.272   5.107   4.086
    1   AR   Ar  124   2.309   5.903   3.333
    1   AR   Ar  125   0.337   4.893   4.443
    1   AR   Ar  126   1.073   6.515   6.170
    1   AR   Ar  127   2.281   5.016   7.119
    1   AR   Ar  128   2.241   6.046   6.343
    1   AR   Ar  129   2.023   7.098   1.087
    1   AR   Ar  130   4.479   0.137  -1.384
    1   AR   Ar  131   4.589   6.510   0.860
    1   AR   Ar  132   6.411   2.488  -1.073
    1   AR   Ar  133   3.434   0.289   2.561
    1   AR   Ar  134   4.023   1.353   2.552
    1   AR   Ar  135   4.465   0.471   2.875
    1   AR   Ar  136   4.316   0.599   1.824
    1   AR   Ar  137   2.956   6.991   3.358
    1   AR   Ar  138   4.852   1.324   5.069
    1   AR   Ar  139   5.360   0.585   3.972
    1   AR   Ar  140   4.174   1.167   4.077
    1   AR   Ar  141   4.070   0.096   4.340
    1   AR   Ar  142   4.552   6.878   5.328
    1   AR   Ar  143   5.738   6.829   5.809
    1   AR   Ar  144   5.227   0.922   6.969
    1   AR   Ar  145   3.197   3.059   0.277
    1   AR   Ar  146   4.313   2.912   1.422
    1   AR   Ar  147   5.325   2.152  -0.020
    1   AR   Ar  148   5.976   3.508  -1.932
    1   AR   Ar  149   4.569   1.306   0.841
    1   AR   Ar  150   3.011   1.445   2.600
    1   AR   Ar  151   3.413   1.761   3.655
    1   AR   Ar  152   2.855   2.547   1.969
    1   AR   Ar  153   3.190   0.920   4.138
    1   AR   Ar  154   3.709   2.143   4.632
    1   AR   Ar  155   5.675   0.819   5.765
    1   AR   Ar  156   4.267   3.649   3.782
    1   AR   Ar  157   3.841   1.774   5.820
    1   AR   Ar  158   2.082   2.060   6.192
    1   AR   Ar  159   4.503   0.688   5.849
    1   AR   Ar  160   3.974   2.898   5.951
    1   AR   Ar  161   5.030   3.290   0.139
    1   AR   Ar  162   4.875   5.361   0.348
    1   AR   Ar  163   5.942   3.337  -0.543
    1   AR   Ar  164   5.174   5.108   1.358
    1   AR   Ar  165   3.210   3.391   2.856
    1   AR   Ar  166   2.861   4.877   3.333
    1   AR   Ar  167   4.702   2.840   2.748
    1   AR   Ar  168   3.888   4.131   0.164
    1   AR   Ar  169   2.654   2.489   3.335
    1   AR   Ar  170   3.180   4.528   4.196
    1   AR   Ar  171   3.783   3.536   5.012
    1   AR   Ar  172   4.268   4.658   4.193
    1   AR   Ar  173   2.975   2.648   5.960
    1   AR   Ar  174   4.173   4.759   5.995
    1   AR   Ar  175   4.356   3.790   6.067
    1   AR   Ar  176   3.303   5.280   4.824
    1   AR   Ar  177   5.853   5.726  -0.637
    1   AR   Ar  178   3.661   6.867   1.498
    1   AR   Ar  179   3.675   5.771   1.236
    1   AR   Ar  180   3.910   4.281  -0.882
    1   AR   Ar  181   2.957   5.537   2.360
    1   AR   Ar  182   2.633   6.614   2.108
    1   AR   Ar  183   3.510   4.657   2.282
    1   AR   Ar  184   4.295   5.999   2.159
    1   AR   Ar  185   1.297   5.791   4.111
    1   AR   Ar  186   3.593   5.399   3.774
    1   AR   Ar  187   4.693   5.392   3.631
    1   AR   Ar  188   3.501   6.158   2.927
    1   AR   Ar  189   2.925   5.115   5.721
    1   AR   Ar  190   4.120   5.962   6.066
    1   AR   Ar  191   5.149   5.986   5.526
    1   AR   Ar  192   4.107   5.926   4.883
    1   AR   Ar  193   6.094   6.732  -0.145
    1   AR   Ar  194   5.428   0.202  -0.747
    1   AR   Ar  195   5.704   1.060   0.537
    1   AR   Ar  196   6.058   1.015  -0.456
    1   AR   Ar  197   5.039   0.314   0.864
    1   AR   Ar  198   5.927   1.152   1.661
    1   AR   Ar  199   5.268   0.263   2.162
    1   AR   Ar  200   6.527   1.615   0.668
    1   AR   Ar  201   4.740   6.268   3.181
    1   AR   Ar  202   5.051   1.676   4.077
    1   AR   Ar  203   0.147   6.873   4.396
    1   AR   Ar  204   5.749   0.546   3.056
    1   AR   Ar  205   6.290   6.828   3.421
    1   AR   Ar  206   5.394   0.114   4.864
    1   AR   Ar  207   0.174   0.323   5.546
    1   AR   Ar  208   6.819   0.581   3.870
    1   AR   Ar  209   6.794   2.684  -2.254
    1   AR   Ar  210   5.091   1.941   1.601
    1   AR   Ar  211   6.482   2.518   0.026
    1   AR   Ar  212   6.595   4.475  -0.558
    1   AR   Ar  213   3.784   2.462   2.290
    1   AR   Ar  214   4.342   3.834   2.022
    1   AR   Ar  215   5.932   2.106   2.258
    1   AR   Ar  216   6.687   3.763   1.739
    1   AR   Ar  217   5.034   2.648   3.737
    1   AR   Ar  218   4.621   2.291   5.073
    1   AR   Ar  219   5.226   1.356   2.635
    1   AR   Ar  220   5.585   3.528   3.109
    1   AR   Ar  221   6.406   0.336   5.037
    1   AR   Ar  222   5.084   1.622   6.150
    1   AR   Ar  223   6.256   0.876   6.692
    1   AR   Ar  224   5.576   2.705   5.332
    1   AR   Ar  225   5.028   4.411  -0.073
    1   AR   Ar  226   4.538   4.758   2.554
    1   AR   Ar  227   6.966   4.650   0.871
    1   AR   Ar  228   6.008   5.837   0.747
    1   AR   Ar  229   5.970   3.999   0.245
    1   AR   Ar  230   3.822   4.394   3.222
    1   AR   Ar  231   6.476   2.833   3.110
    1   AR   Ar  232   5.040   3.994   1.277
    1   AR   Ar  233   6.042   2.385   3.930
    1   AR   Ar  234   6.361   4.366   4.818
    1   AR   Ar  235   6.579   3.244   4.137
    1   AR   Ar  236   5.171   4.273   3.863
    1   AR   Ar  237   5.366   3.328   4.569
    1   AR   Ar  238   4.748   4.286   5.157
    1   AR   Ar  239   6.140   4.613   7.753
    1   AR   Ar  240   6.372   4.272   6.114
    1   AR   Ar  241   6.741   0.565   0.205
    1   AR   Ar  242   5.515   6.390   1.500
    1   AR   Ar  243   5.961   4.360   2.390
    1   AR   Ar  244   6.730   5.841  -0.091
    1   AR   Ar  245   5.308   5.416   2.548
    1   AR   Ar  246   6.419   6.923   1.767
    1   AR   Ar  247   5.324   2.851   1.394
    1   AR   Ar  248   6.110   7.111   0.822
    1   AR   Ar  249   5.705   5.019   3.383
    1   AR   Ar  250   4.860   6.451   4.312
    1   AR   Ar  251   5.467   5.401   4.536
    1   AR   Ar  252   5.712   6.050   3.741
    1   AR   Ar  253   5.564   4.993   5.748
    1   AR   Ar  254   5.313   6.066   6.588
    1   AR   Ar  255   5.492   4.524   6.849
    1   AR   Ar  256   5.904   6.321   4.753
    7.12000  7.12000 12.00000
Argon-slab step 1350
  256
    1   AR   Ar    1   0.295   0.880  -1.105
    1   AR   Ar    2   6.900   0.689   1.161
    1   AR   Ar    3   0.189   6.653   0.249
    1   AR   Ar    4   0.614   0.757   0.065
    1   AR   Ar    5   7.064   6.034   1.150
    1   AR   Ar    6   0.742   0.110   2.711
    1   AR   Ar    7   0.181   5.636   2.204
    1   AR   Ar    8   0.542   0.006   1.622
    1   AR   Ar    9   0.873   0.981   3.874
    1   AR   Ar   10   7.087   1.885   3.869
    1   AR   Ar   11   2.261   0.007   4.530
    1   AR   Ar   12   1.101   1.146   2.922
    1   AR   Ar   13   5.980   1.300   4.713
    1   AR   Ar   14   0.111   1.520   5.748
    1   AR   Ar   15   6.596   5.372   8.551
    1   AR   Ar   16   0.763   1.157   4.892
    1   AR   Ar   17   0.130   1.716  -0.394
    1   AR   Ar   18   6.916   3.596   0.139
    1   AR   Ar   19   0.476   1.786   0.879
    1   AR   Ar   20   0.829   2.531  -2.174
    1   AR   Ar   21   6.794   0.729   2.315
    1   AR   Ar   22   0.020   1.947   2.015
    1   AR   Ar   23   0.564   1.095   1.980
    1   AR   Ar   24   7.027   2.960   1.141
    1   AR   Ar   25   0.111   1.125   3.117
    1   AR   Ar   26   6.257   1.447   3.430
    1   AR   Ar   27   2.163   0.933   3.564
    1   AR   Ar   28   0.977   2.412   4.678
    1   AR   Ar   29   6.143   1.827   5.740
    1   AR   Ar   30   0.014   2.996   6.356
    1   AR   Ar   31   0.445   0.967   7.746
    1   AR   Ar   32   2.060   2.912   5.314
    1   AR   Ar   33   1.189   3.909  -1.801
    1   AR   Ar   34   1.042   5.300   1.607
    1   AR   Ar   35   0.622   3.915   1.453
    1   AR   Ar   36   1.803   6.916  -1.977
    1   AR   Ar   37   0.447   3.023   2.279
    1   AR   Ar   38   7.065   4.503   2.252
    1   AR   Ar   39   0.998   4.206   2.507
    1   AR   Ar   40   1.649   4.233   1.613
    1   AR   Ar   41   0.608   2.186   3.012
    1   AR   Ar   42   6.856   5.080   5.466
    1   AR   Ar   43   6.789   3.045   5.255
    1   AR   Ar   44   0.794   3.113   3.362
    1   AR   Ar   45   0.577   3.482   4.999
    1   AR   Ar   46   6.207   5.493   6.719
    1   AR   Ar   47   0.203   3.954   6.912
    1   AR   Ar   48   6.720   6.875   6.320
    1   AR   Ar   49   6.281   5.339  -1.677
    1   AR   Ar   50   6.298   5.284   1.646
    1   AR   Ar   51   1.293   4.683   0.590
    1   AR   Ar   52   0.439   4.884  -0.192
    1   AR   Ar   53   6.261   5.819   2.601
    1   AR   Ar   54   0.470   6.205   3.199
    1   AR   Ar   55   0.228   5.258   3.565
    1   AR   Ar   56   1.253   6.292   1.151
    1   AR   Ar   57   6.916   3.736   3.093
    1   AR   Ar   58   6.907   5.749   4.394
    1   AR   Ar   59   2.089   5.668   5.227
    1   AR   Ar   60   1.224   6.975   4.028
    1   AR   Ar   61   6.170   5.915   5.774
    1   AR   Ar   62   0.201   6.306   5.366
    1   AR   Ar   63   1.125   5.263   6.049
    1   AR   Ar   64   1.458   6.593   5.171
    1   AR   Ar   65   2.960   0.104   0.049
    1   AR   Ar   66   1.624   0.951   1.353
    1   AR   Ar   67   3.011   6.112   0.510
    1   AR   Ar   68   3.434   0.874  -1.044
    1   AR   Ar   69   1.943   6.654   0.122
    1   AR   Ar   70   1.505   0.083   2.000
    1   AR   Ar   71   2.726   0.580   1.541
    1   AR   Ar   72   3.792   0.505   0.780
    1   AR   Ar   73   1.740   6.825   3.052
    1   AR   Ar   74   1.684   0.878   4.757
    1   AR   Ar   75   3.550   0.349   5.339
    1   AR   Ar   76   2.234   0.506   2.552
    1   AR   Ar   77   2.263   0.059   5.590
    1   AR   Ar   78   0.977   0.554   6.040
    1   AR   Ar   79   4.629   6.675   7.164
    1   AR   Ar   80   3.173   6.330   5.503
    1   AR   Ar   81   1.379   1.372   0.273
    1   AR   Ar   82   0.703   3.476   0.519
    1   AR   Ar   83   2.317   1.907   1.077
    1   AR   Ar   84   2.362   3.696  -3.803
    1   AR   Ar   85   1.077   2.312   0.207
    1   AR   Ar   86   1.943   3.018   2.181
    1   AR   Ar   87   2.110   1.607   2.023
    1   AR   Ar   88   2.562   3.207   1.168
    1   AR   Ar   89   1.076   2.015   1.794
    1   AR   Ar   90   2.698   2.250   4.803
    1   AR   Ar   91   1.840   1.936   4.308
    1   AR   Ar   92   1.755   1.993   3.084
    1   AR   Ar   93   1.378   1.764   5.372
    1   AR   Ar   94   3.195   0.276   7.662
    1   AR   Ar   95   3.200   0.007   6.514
    1   AR   Ar   96   2.422   0.870   6.547
    1   AR   Ar   97   3.543   2.777  -0.556
    1   AR   Ar   98   2.580   4.485   1.816
    1   AR   Ar   99   4.084   2.940  -1.732
    1   AR   Ar  100   1.993   4.009  -0.538
    1   AR   Ar  101   1.318   2.901   1.186
    1   AR   Ar  102   2.711   3.781   3.637
    1   AR   Ar  103   1.843   3.722   0.605
    1   AR   Ar  104   2.974   3.596  -1.005
    1   AR   Ar  105   1.750   3.200   3.288
    1   AR   Ar  106   2.262   3.123   4.367
    1   AR   Ar  107   2.485   4.002   5.317
    1   AR   Ar  108   3.433   3.037   4.103
    1   AR   Ar  109   1.820   4.149   4.373
    1   AR   Ar  110   1.143   4.526   5.316
    1   AR   Ar  111   4.268   4.049   7.040
    1   AR   Ar  112   1.898   4.499   6.438
    1   AR   Ar  113   2.375   4.589   0.566
    1   AR   Ar  114   2.563   5.468   1.349
    1   AR   Ar  115   3.073   5.096  -0.187
    1   AR   Ar  116   3.960   0.030  -0.202
    1   AR   Ar  117   1.380   4.687   3.536
    1   AR   Ar  118   1.252   5.991   2.373
    1   AR   Ar  119   2.141   4.192   2.861
    1   AR   Ar  120   1.980   5.283   2.171
    1   AR   Ar  121   6.537   4.355   3.853
    1   AR   Ar  122   2.602   6.170   4.374
    1   AR   Ar  123   2.282   5.105   4.069
    1   AR   Ar  124   2.318   5.890   3.348
    1   AR   Ar  125   0.353   4.893   4.466
    1   AR   Ar  126   1.054   6.504   6.171
    1   AR   Ar  127   2.307   5.023   7.137
    1   AR   Ar  128   2.265   6.024   6.331
    1   AR   Ar  129   2.014   7.090   1.058
    1   AR   Ar  130   4.496   0.155  -1.348
    1   AR   Ar  131   4.580   6.513   0.881
    1   AR   Ar  132   6.435   2.474  -1.076
    1   AR   Ar  133   3.428   0.272   2.565
    1   AR   Ar  134   4.002   1.376   2.579
    1   AR   Ar  135   4.439   0.467   2.862
    1   AR   Ar  136   4.278   0.596   1.830
    1   AR   Ar  137   2.985   6.958   3.352
    1   AR   Ar  138   4.848   1.342   5.064
    1   AR   Ar  139   5.383   0.633   4.005
    1   AR   Ar  140   4.213   1.200   4.083
    1   AR   Ar  141   4.069   0.110   4.331
    1   AR   Ar  142   4.562   6.856   5.324
    1   AR   Ar  143   5.741   6.854   5.804
    1   AR   Ar  144   5.199   0.916   6.979
    1   AR   Ar  145   3.223   3.025   0.285
    1   AR   Ar  146   4.309   2.903   1.458
    1   AR   Ar  147   5.316   2.159   0.002
    1   AR   Ar  148   6.006   3.526  -1.940
    1   AR   Ar  149   4.533   1.303   0.830
    1   AR   Ar  150   3.004   1.443   2.624
    1   AR   Ar  151   3.388   1.767   3.648
    1   AR   Ar  152   2.831   2.566   1.955
    1   AR   Ar  153   3.164   0.906   4.144
    1   AR   Ar  154   3.731   2.146   4.635
    1   AR   Ar  155   5.676   0.848   5.746
    1   AR   Ar  156   4.261   3.625   3.783
    1   AR   Ar  157   3.835   1.758   5.813
    1   AR   Ar  158   2.066   2.081   6.212
    1   AR   Ar  159   4.504   0.705   5.852
    1   AR   Ar  160   3.931   2.865   5.940
    1   AR   Ar  161   5.040   3.308   0.164
    1   AR   Ar  162   4.862   5.361   0.298
    1   AR   Ar  163   5.946   3.335  -0.533
    1   AR   Ar  164   5.179   5.112   1.369
    1   AR   Ar  165   3.246   3.365   2.837
    1   AR   Ar  166   2.852   4.868   3.339
    1   AR   Ar  167   4.692   2.813   2.739
    1   AR   Ar  168   3.887   4.148   0.158
    1   AR   Ar  169   2.647   2.483   3.363
    1   AR   Ar  170   3.186   4.507   4.201
    1   AR   Ar  171   3.780   3.518   4.987
    1   AR   Ar  172   4.261   4.676   4.187
    1   AR   Ar  173   2.933   2.639   5.962
    1   AR   Ar  174   4.160   4.809   5.979
    1   AR   Ar  175   4.352   3.792   6.064
    1   AR   Ar  176   3.292   5.297   4.842
    1   AR   Ar  177   5.855   5.749  -0.586
    1   AR   Ar  178   3.628   6.892   1.524
    1   AR   Ar  179   3.674   5.776   1.217
    1   AR   Ar  180   3.918   4.305  -0.885
    1   AR   Ar  181   2.960   5.539   2.362
    1   AR   Ar  182   2.620   6.592   2.102
    1   AR   Ar  183   3.515   4.643   2.276
    1   AR   Ar  184   4.263   6.013   2.132
    1   AR   Ar  185   1.286   5.781   4.106
    1   AR   Ar  186   3.577   5.428   3.766
    1   AR   Ar  187   4.704   5.406   3.618
    1   AR   Ar  188   3.494   6.174   2.933
    1   AR   Ar  189   2.935   5.104   5.729
    1   AR   Ar  190   4.091   5.954   6.067
    1   AR   Ar  191   5.193   5.941   5.532
    1   AR   Ar  192   4.096   5.928   4.914
    1   AR   Ar  193   6.078   6.714  -0.140
    1   AR   Ar  194   5.444   0.193  -0.740
    1   AR   Ar  195   5.731   1.069   0.508
    1   AR   Ar  196   6.038   1.005  -0.498
    1   AR   Ar  197   5.068   0.293   0.856
    1   AR   Ar  198   5.954   1.162   1.627
    1   AR   Ar  199   5.281   0.231   2.150
    1   AR   Ar  200   6.554   1.599   0.654
    1   AR   Ar  201   4.754   6.263   3.166
    1   AR   Ar  202   5.070   1.681   4.093
    1   AR   Ar  203   0.166   6.879   4.386
    1   AR   Ar  204   5.750   0.504   3.077
    1   AR   Ar  205   6.306   6.840   3.401
    1   AR   Ar  206   5.370   0.147   4.851
    1   AR   Ar  207   0.195   0.335   5.553
    1   AR   Ar  208   6.825   0.605   3.893
    1   AR   Ar  209   6.800   2.678  -2.265
    1   AR   Ar  210   5.081   1.920   1.628
    1   AR   Ar  211   6.477   2.523   0.005
    1   AR   Ar  212   6.594   4.467  -0.572
    1   AR   Ar  213   3.749   2.485   2.296
    1   AR   Ar  214   4.339   3.840   2.033
    1   AR   Ar  215   5.875   2.106   2.294
    1   AR   Ar  216   6.701   3.737   1.720
    1   AR   Ar  217   5.020   2.655   3.752
    1   AR   Ar  218   4.616   2.271   5.086
    1   AR   Ar  219   5.223   1.366   2.679
    1   AR   Ar  220   5.601   3.553   3.129
    1   AR   Ar  221   6.400   0.356   5.036
    1   AR   Ar  222   5.063   1.577   6.163
    1   AR   Ar  223   6.253   0.857   6.666
    1   AR   Ar  224   5.531   2.698   5.302
    1   AR   Ar  225   5.024   4.411  -0.090
    1   AR   Ar  226   4.544   4.748   2.549
    1   AR   Ar  227   6.969   4.664   0.833
    1   AR   Ar  228   5.996   5.835   0.743
    1   AR   Ar  229   5.960   3.980   0.269
    1   AR   Ar  230   3.810   4.415   3.231
    1   AR   Ar  231   6.460   2.818   3.135
    1   AR   Ar  232   5.066   3.958   1.285
    1   AR   Ar  233   6.035   2.415   3.924
    1   AR   Ar  234   6.373   4.358   4.806
    1   AR   Ar  235   6.541   3.239   4.139
    1   AR   Ar  236   5.178   4.299   3.857
    1   AR   Ar  237   5.405   3.308   4.573
    1   AR   Ar  238   4.751   4.282   5.155
    1   AR   Ar  239   6.129   4.602   7.734
    1   AR   Ar  240   6.399   4.251   6.139
    1   AR   Ar  241   6.712   0.553   0.201
    1   AR   Ar  242   5.549   6.383   1.473
    1   AR   Ar  243   5.946   4.335   2.376
    1   AR   Ar  244   6.730   5.820  -0.083
    1   AR   Ar  245   5.342   5.416   2.573
    1   AR   Ar  246   6.447   6.890   1.786
    1   AR   Ar  247   5.303   2.853   1.396
    1   AR   Ar  248   6.113   0.007   0.818
    1   AR   Ar  249   5.711   4.993   3.389
    1   AR   Ar  250   4.856   6.455   4.343
    1   AR   Ar  251   5.473   5.364   4.548
    1   AR   Ar  252   5.709   6.093   3.736
    1   AR   Ar  253   5.584   4.965   5.726
    1   AR   Ar  254   5.307   6.067   6.602
    1   AR   Ar  255   5.515   4.534   6.889
    1   AR   Ar  256   5.891   6.304   4.754
    7.12000  7.12000 12.00000
Argon-slab step 1355
  256
    1   AR   Ar    1   0.281   0.877  -1.107
    1   AR   Ar    2   6.930   0.656   1.163
    1   AR   Ar    3   0.165   6.671   0.289
    1   AR   Ar    4   0.643   0.743   0.074
    1   AR   Ar    5   7.069   6.042   1.156
    1   AR   Ar    6   0.730   0.105   2.684
    1   AR   Ar    7   0.175   5.622   2.202
    1   AR   Ar    8   0.545   7.102   1.600
    1   AR   Ar    9   0.871   0.984   3.853
    1   AR   Ar   10   7.076   1.861   3.868
    1   AR   Ar   11   2.257   0.028   4.570
    1   AR   Ar   12   1.099   1.156   2.926
    1   AR   Ar   13   5.994   1.316   4.705
    1   AR   Ar   14   0.123   1.476   5.724
    1   AR   Ar   15   6.611   5.383   8.581
    1   AR   Ar   16   0.751   1.163   4.905
    1   AR   Ar   17   0.164   1.711  -0.385
    1   AR   Ar   18   6.926   3.586   0.164
    1   AR   Ar   19   0.492   1.796   0.882
    1   AR   Ar   20   0.805   2.547  -2.177
    1   AR   Ar   21   6.750   0.721   2.307
    1   AR   Ar   22   0.030   1.948   1.988
    1   AR   Ar   23   0.578   1.110   1.998
    1   AR   Ar   24   7.028   2.945   1.123
    1   AR   Ar   25   0.105   1.105   3.092
    1   AR   Ar   26   6.284   1.462   3.456
    1   AR   Ar   27   2.155   0.964   3.560
    1   AR   Ar   28   0.964   2.416   4.708
    1   AR   Ar   29   6.138   1.817   5.729
    1   AR   Ar   30   0.015   2.973   6.353
    1   AR   Ar   31   0.446   0.952   7.768
    1   AR   Ar   32   2.081   2.915   5.339
    1   AR   Ar   33   1.188   3.930  -1.801
    1   AR   Ar   34   1.032   5.293   1.608
    1   AR   Ar   35   0.643   3.906   1.458
    1   AR   Ar   36   1.797   6.939  -1.983
    1   AR   Ar   37   0.472   3.013   2.287
    1   AR   Ar   38   7.084   4.502   2.225
    1   AR   Ar   39   1.009   4.214   2.485
    1   AR   Ar   40   1.702   4.232   1.613
    1   AR   Ar   41   0.616   2.172   3.009
    1   AR   Ar   42   6.863   5.079   5.480
    1   AR   Ar   43   6.755   3.053   5.267
    1   AR   Ar   44   0.790   3.139   3.343
    1   AR   Ar   45   0.585   3.477   4.982
    1   AR   Ar   46   6.204   5.488   6.758
    1   AR   Ar   47   0.193   3.930   6.918
    1   AR   Ar   48   6.724   6.873   6.328
    1   AR   Ar   49   6.263   5.354  -1.663
    1   AR   Ar   50   6.283   5.285   1.637
    1   AR   Ar   51   1.261   4.677   0.555
    1   AR   Ar   52   0.462   4.880  -0.201
    1   AR   Ar   53   6.260   5.816   2.570
    1   AR   Ar   54   0.473   6.208   3.202
    1   AR   Ar   55   0.232   5.239   3.556
    1   AR   Ar   56   1.248   6.308   1.156
    1   AR   Ar   57   6.882   3.697   3.083
    1   AR   Ar   58   6.905   5.728   4.373
    1   AR   Ar   59   2.105   5.699   5.213
    1   AR   Ar   60   1.198   6.953   4.040
    1   AR   Ar   61   6.172   5.903   5.768
    1   AR   Ar   62   0.207   6.283   5.343
    1   AR   Ar   63   1.122   5.266   6.035
    1   AR   Ar   64   1.466   6.604   5.200
    1   AR   Ar   65   2.972   0.131   0.066
    1   AR   Ar   66   1.635   0.949   1.340
    1   AR   Ar   67   3.006   6.128   0.511
    1   AR   Ar   68   3.409   0.872  -1.046
    1   AR   Ar   69   1.974   6.610   0.140
    1   AR   Ar   70   1.552   0.108   1.996
    1   AR   Ar   71   2.717   0.598   1.601
    1   AR   Ar   72   3.798   0.464   0.799
    1   AR   Ar   73   1.730   6.821   3.043
    1   AR   Ar   74   1.689   0.876   4.745
    1   AR   Ar   75   3.559   0.349   5.337
    1   AR   Ar   76   2.246   0.530   2.537
    1   AR   Ar   77   2.288   0.048   5.619
    1   AR   Ar   78   0.969   0.546   6.065
    1   AR   Ar   79   4.594   6.659   7.153
    1   AR   Ar   80   3.180   6.321   5.515
    1   AR   Ar   81   1.366   1.372   0.292
    1   AR   Ar   82   0.716   3.490   0.507
    1   AR   Ar   83   2.315   1.933   1.072
    1   AR   Ar   84   2.342   3.717  -3.800
    1   AR   Ar   85   1.072   2.332   0.187
    1   AR   Ar   86   1.932   2.985   2.210
    1   AR   Ar   87   2.093   1.599   2.035
    1   AR   Ar   88   2.561   3.233   1.133
    1   AR   Ar   89   1.071   2.002   1.795
    1   AR   Ar   90   2.679   2.261   4.807
    1   AR   Ar   91   1.839   1.924   4.340
    1   AR   Ar   92   1.761   1.981   3.080
    1   AR   Ar   93   1.368   1.766   5.359
    1   AR   Ar   94   3.199   0.243   7.626
    1   AR   Ar   95   3.195   0.034   6.525
    1   AR   Ar   96   2.430   0.874   6.534
    1   AR   Ar   97   3.589   2.756  -0.519
    1   AR   Ar   98   2.617   4.494   1.818
    1   AR   Ar   99   4.128   2.933  -1.748
    1   AR   Ar  100   1.986   3.973  -0.519
    1   AR   Ar  101   1.318   2.882   1.186
    1   AR   Ar  102   2.718   3.772   3.675
    1   AR   Ar  103   1.822   3.710   0.622
    1   AR   Ar  104   2.964   3.580  -1.028
    1   AR   Ar  105   1.737   3.215   3.295
    1   AR   Ar  106   2.268   3.127   4.349
    1   AR   Ar  107   2.468   3.976   5.305
    1   AR   Ar  108   3.419   3.030   4.120
    1   AR   Ar  109   1.810   4.147   4.373
    1   AR   Ar  110   1.169   4.502   5.339
    1   AR   Ar  111   4.264   4.030   7.028
    1   AR   Ar  112   1.877   4.491   6.410
    1   AR   Ar  113   2.411   4.606   0.534
    1   AR   Ar  114   2.566   5.488   1.346
    1   AR   Ar  115   3.049   5.093  -0.192
    1   AR   Ar  116   3.970   0.049  -0.226
    1   AR   Ar  117   1.407   4.694   3.555
    1   AR   Ar  118   1.269   5.982   2.375
    1   AR   Ar  119   2.123   4.190   2.858
    1   AR   Ar  120   1.989   5.281   2.194
    1   AR   Ar  121   6.541   4.336   3.844
    1   AR   Ar  122   2.604   6.189   4.343
    1   AR   Ar  123   2.279   5.109   4.069
    1   AR   Ar  124   2.327   5.878   3.359
    1   AR   Ar  125   0.374   4.884   4.503
    1   AR   Ar  126   1.035   6.492   6.171
    1   AR   Ar  127   2.340   5.041   7.167
    1   AR   Ar  128   2.290   6.002   6.316
    1   AR   Ar  129   2.005   7.081   1.031
    1   AR   Ar  130   4.512   0.173  -1.310
    1   AR   Ar  131   4.567   6.511   0.902
    1   AR   Ar  132   6.460   2.459  -1.079
    1   AR   Ar  133   3.423   0.259   2.561
    1   AR   Ar  134   3.989   1.401   2.605
    1   AR   Ar  135   4.418   0.461   2.855
    1   AR   Ar  136   4.273   0.583   1.825
    1   AR   Ar  137   3.004   6.926   3.356
    1   AR   Ar  138   4.850   1.340   5.059
    1   AR   Ar  139   5.403   0.688   4.034
    1   AR   Ar  140   4.245   1.227   4.090
    1   AR   Ar  141   4.068   0.125   4.322
    1   AR   Ar  142   4.567   6.831   5.325
    1   AR   Ar  143   5.742   6.884   5.798
    1   AR   Ar  144   5.204   0.938   6.974
    1   AR   Ar  145   3.239   3.000   0.320
    1   AR   Ar  146   4.297   2.895   1.494
    1   AR   Ar  147   5.308   2.166   0.025
    1   AR   Ar  148   6.037   3.543  -1.948
    1   AR   Ar  149   4.522   1.300   0.821
    1   AR   Ar  150   2.987   1.442   2.649
    1   AR   Ar  151   3.361   1.776   3.651
    1   AR   Ar  152   2.800   2.581   1.940
    1   AR   Ar  153   3.134   0.885   4.153
    1   AR   Ar  154   3.751   2.147   4.636
    1   AR   Ar  155   5.678   0.872   5.724
    1   AR   Ar  156   4.256   3.627   3.799
    1   AR   Ar  157   3.851   1.727   5.795
    1   AR   Ar  158   2.049   2.101   6.231
    1   AR   Ar  159   4.505   0.719   5.857
    1   AR   Ar  160   3.932   2.883   5.931
    1   AR   Ar  161   5.052   3.325   0.190
    1   AR   Ar  162   4.850   5.366   0.250
    1   AR   Ar  163   5.950   3.331  -0.527
    1   AR   Ar  164   5.185   5.118   1.381
    1   AR   Ar  165   3.283   3.338   2.815
    1   AR   Ar  166   2.844   4.856   3.317
    1   AR   Ar  167   4.682   2.788   2.728
    1   AR   Ar  168   3.887   4.163   0.155
    1   AR   Ar  169   2.640   2.481   3.391
    1   AR   Ar  170   3.196   4.477   4.215
    1   AR   Ar  171   3.798   3.535   5.010
    1   AR   Ar  172   4.226   4.658   4.194
    1   AR   Ar  173   2.889   2.630   5.961
    1   AR   Ar  174   4.144   4.811   5.973
    1   AR   Ar  175   4.351   3.794   6.054
    1   AR   Ar  176   3.282   5.318   4.850
    1   AR   Ar  177   5.850   5.769  -0.538
    1   AR   Ar  178   3.593   6.914   1.553
    1   AR   Ar  179   3.677   5.779   1.202
    1   AR   Ar  180   3.926   4.328  -0.889
    1   AR   Ar  181   2.963   5.540   2.362
    1   AR   Ar  182   2.605   6.572   2.096
    1   AR   Ar  183   3.521   4.629   2.266
    1   AR   Ar  184   4.232   6.027   2.106
    1   AR   Ar  185   1.275   5.771   4.101
    1   AR   Ar  186   3.566   5.463   3.760
    1   AR   Ar  187   4.717   5.410   3.609
    1   AR   Ar  188   3.494   6.191   2.940
    1   AR   Ar  189   2.917   5.101   5.730
    1   AR   Ar  190   4.063   5.946   6.067
    1   AR   Ar  191   5.225   5.897   5.533
    1   AR   Ar  192   4.090   5.932   4.947
    1   AR   Ar  193   6.065   6.696  -0.133
    1   AR   Ar  194   5.456   0.181  -0.734
    1   AR   Ar  195   5.748   1.072   0.480
    1   AR   Ar  196   6.021   1.000  -0.541
    1   AR   Ar  197   5.096   0.276   0.850
    1   AR   Ar  198   5.982   1.171   1.593
    1   AR   Ar  199   5.294   0.198   2.136
    1   AR   Ar  200   6.589   1.590   0.640
    1   AR   Ar  201   4.768   6.271   3.144
    1   AR   Ar  202   5.103   1.691   4.109
    1   AR   Ar  203   0.184   6.884   4.378
    1   AR   Ar  204   5.752   0.467   3.090
    1   AR   Ar  205   6.331   6.852   3.381
    1   AR   Ar  206   5.349   0.178   4.849
    1   AR   Ar  207   0.200   0.342   5.549
    1   AR   Ar  208   6.827   0.626   3.922
    1   AR   Ar  209   6.801   2.671  -2.272
    1   AR   Ar  210   5.074   1.922   1.633
    1   AR   Ar  211   6.473   2.528  -0.013
    1   AR   Ar  212   6.592   4.459  -0.584
    1   AR   Ar  213   3.724   2.506   2.308
    1   AR   Ar  214   4.332   3.843   2.048
    1   AR   Ar  215   5.823   2.108   2.332
    1   AR   Ar  216   6.690   3.722   1.724
    1   AR   Ar  217   5.004   2.669   3.766
    1   AR   Ar  218   4.609   2.269   5.102
    1   AR   Ar  219   5.217   1.373   2.723
    1   AR   Ar  220   5.618   3.578   3.150
    1   AR   Ar  221   6.393   0.396   5.052
    1   AR   Ar  222   5.031   1.531   6.170
    1   AR   Ar  223   6.251   0.838   6.639
    1   AR   Ar  224   5.494   2.681   5.287
    1   AR   Ar  225   5.049   4.411  -0.089
    1   AR   Ar  226   4.553   4.741   2.545
    1   AR   Ar  227   6.972   4.678   0.794
    1   AR   Ar  228   5.987   5.830   0.732
    1   AR   Ar  229   5.948   3.966   0.299
    1   AR   Ar  230   3.798   4.434   3.245
    1   AR   Ar  231   6.447   2.802   3.149
    1   AR   Ar  232   5.101   3.915   1.290
    1   AR   Ar  233   6.018   2.428   3.928
    1   AR   Ar  234   6.382   4.349   4.809
    1   AR   Ar  235   6.507   3.245   4.143
    1   AR   Ar  236   5.181   4.316   3.856
    1   AR   Ar  237   5.441   3.300   4.560
    1   AR   Ar  238   4.755   4.279   5.152
    1   AR   Ar  239   6.122   4.592   7.719
    1   AR   Ar  240   6.426   4.230   6.163
    1   AR   Ar  241   6.682   0.541   0.183
    1   AR   Ar  242   5.552   6.354   1.446
    1   AR   Ar  243   5.930   4.311   2.362
    1   AR   Ar  244   6.737   5.796  -0.070
    1   AR   Ar  245   5.367   5.420   2.588
    1   AR   Ar  246   6.477   6.857   1.808
    1   AR   Ar  247   5.294   2.862   1.407
    1   AR   Ar  248   6.113   0.022   0.818
    1   AR   Ar  249   5.708   4.984   3.390
    1   AR   Ar  250   4.853   6.457   4.373
    1   AR   Ar  251   5.477   5.323   4.559
    1   AR   Ar  252   5.701   6.130   3.729
    1   AR   Ar  253   5.605   4.936   5.704
    1   AR   Ar  254   5.301   6.068   6.614
    1   AR   Ar  255   5.536   4.545   6.923
    1   AR   Ar  256   5.882   6.292   4.758
    7.12000  7.12000 12.00000
Argon-slab step 1360
  256
    1   AR   Ar    1   0.258   0.889  -1.109
    1   AR   Ar    2   6.961   0.625   1.172
    1   AR   Ar    3   0.141   6.692   0.330
    1   AR   Ar    4   0.664   0.739   0.074
    1   AR   Ar    5   7.073   6.049   1.164
    1   AR   Ar    6   0.717   0.101   2.660
    1   AR   Ar    7   0.169   5.609   2.200
    1   AR   Ar    8   0.531   7.112   1.611
    1   AR   Ar    9   0.866   0.984   3.846
    1   AR   Ar   10   7.077   1.843   3.874
    1   AR   Ar   11   2.253   0.048   4.605
    1   AR   Ar   12   1.106   1.164   2.908
    1   AR   Ar   13   6.006   1.335   4.696
    1   AR   Ar   14   0.133   1.447   5.693
    1   AR   Ar   15   6.626   5.394   8.611
    1   AR   Ar   16   0.720   1.163   4.913
    1   AR   Ar   17   0.180   1.715  -0.383
    1   AR   Ar   18   6.948   3.583   0.184
    1   AR   Ar   19   0.507   1.804   0.888
    1   AR   Ar   20   0.781   2.563  -2.179
    1   AR   Ar   21   6.663   0.708   2.318
    1   AR   Ar   22   0.031   1.956   1.962
    1   AR   Ar   23   0.586   1.118   2.015
    1   AR   Ar   24   7.032   2.927   1.102
    1   AR   Ar   25   0.102   1.110   3.075
    1   AR   Ar   26   6.296   1.472   3.475
    1   AR   Ar   27   2.146   0.996   3.557
    1   AR   Ar   28   0.946   2.426   4.732
    1   AR   Ar   29   6.133   1.810   5.716
    1   AR   Ar   30   0.014   2.942   6.350
    1   AR   Ar   31   0.447   0.937   7.790
    1   AR   Ar   32   2.095   2.920   5.370
    1   AR   Ar   33   1.187   3.950  -1.802
    1   AR   Ar   34   1.022   5.282   1.605
    1   AR   Ar   35   0.663   3.898   1.467
    1   AR   Ar   36   1.791   6.962  -1.990
    1   AR   Ar   37   0.498   2.998   2.296
    1   AR   Ar   38   7.069   4.515   2.218
    1   AR   Ar   39   1.019   4.222   2.465
    1   AR   Ar   40   1.742   4.228   1.610
    1   AR   Ar   41   0.628   2.142   3.012
    1   AR   Ar   42   6.871   5.079   5.495
    1   AR   Ar   43   6.717   3.059   5.279
    1   AR   Ar   44   0.764   3.168   3.327
    1   AR   Ar   45   0.594   3.474   4.965
    1   AR   Ar   46   6.201   5.480   6.797
    1   AR   Ar   47   0.182   3.907   6.923
    1   AR   Ar   48   6.728   6.871   6.333
    1   AR   Ar   49   6.244   5.368  -1.647
    1   AR   Ar   50   6.266   5.290   1.632
    1   AR   Ar   51   1.229   4.670   0.523
    1   AR   Ar   52   0.468   4.879  -0.207
    1   AR   Ar   53   6.275   5.815   2.550
    1   AR   Ar   54   0.476   6.214   3.205
    1   AR   Ar   55   0.237   5.219   3.539
    1   AR   Ar   56   1.246   6.299   1.171
    1   AR   Ar   57   6.860   3.674   3.077
    1   AR   Ar   58   6.897   5.714   4.355
    1   AR   Ar   59   2.121   5.728   5.199
    1   AR   Ar   60   1.174   6.931   4.052
    1   AR   Ar   61   6.189   5.892   5.763
    1   AR   Ar   62   0.213   6.260   5.321
    1   AR   Ar   63   1.119   5.275   6.023
    1   AR   Ar   64   1.472   6.616   5.225
    1   AR   Ar   65   2.980   0.158   0.085
    1   AR   Ar   66   1.643   0.949   1.325
    1   AR   Ar   67   2.999   6.127   0.493
    1   AR   Ar   68   3.386   0.868  -1.047
    1   AR   Ar   69   2.005   6.562   0.151
    1   AR   Ar   70   1.592   0.125   1.985
    1   AR   Ar   71   2.711   0.615   1.659
    1   AR   Ar   72   3.805   0.425   0.814
    1   AR   Ar   73   1.721   6.816   3.035
    1   AR   Ar   74   1.700   0.873   4.730
    1   AR   Ar   75   3.568   0.348   5.335
    1   AR   Ar   76   2.267   0.560   2.533
    1   AR   Ar   77   2.315   0.038   5.653
    1   AR   Ar   78   0.980   0.543   6.101
    1   AR   Ar   79   4.556   6.645   7.141
    1   AR   Ar   80   3.185   6.311   5.525
    1   AR   Ar   81   1.366   1.372   0.316
    1   AR   Ar   82   0.743   3.502   0.497
    1   AR   Ar   83   2.313   1.962   1.064
    1   AR   Ar   84   2.321   3.738  -3.797
    1   AR   Ar   85   1.066   2.351   0.160
    1   AR   Ar   86   1.938   2.948   2.239
    1   AR   Ar   87   2.071   1.588   2.056
    1   AR   Ar   88   2.561   3.257   1.102
    1   AR   Ar   89   1.072   1.992   1.798
    1   AR   Ar   90   2.669   2.271   4.812
    1   AR   Ar   91   1.851   1.937   4.362
    1   AR   Ar   92   1.767   1.970   3.076
    1   AR   Ar   93   1.372   1.771   5.358
    1   AR   Ar   94   3.203   0.209   7.589
    1   AR   Ar   95   3.188   0.060   6.534
    1   AR   Ar   96   2.437   0.877   6.520
    1   AR   Ar   97   3.645   2.728  -0.506
    1   AR   Ar   98   2.662   4.504   1.821
    1   AR   Ar   99   4.142   2.934  -1.753
    1   AR   Ar  100   1.980   3.937  -0.499
    1   AR   Ar  101   1.317   2.864   1.187
    1   AR   Ar  102   2.720   3.780   3.674
    1   AR   Ar  103   1.795   3.699   0.636
    1   AR   Ar  104   2.955   3.564  -1.049
    1   AR   Ar  105   1.748   3.232   3.302
    1   AR   Ar  106   2.250   3.153   4.335
    1   AR   Ar  107   2.452   3.951   5.291
    1   AR   Ar  108   3.408   3.026   4.134
    1   AR   Ar  109   1.801   4.144   4.375
    1   AR   Ar  110   1.195   4.474   5.357
    1   AR   Ar  111   4.260   4.014   7.023
    1   AR   Ar  112   1.848   4.488   6.374
    1   AR   Ar  113   2.406   4.601   0.526
    1   AR   Ar  114   2.571   5.509   1.339
    1   AR   Ar  115   3.026   5.091  -0.197
    1   AR   Ar  116   3.984   0.068  -0.252
    1   AR   Ar  117   1.418   4.724   3.530
    1   AR   Ar  118   1.282   5.981   2.379
    1   AR   Ar  119   2.104   4.188   2.852
    1   AR   Ar  120   1.984   5.279   2.210
    1   AR   Ar  121   6.546   4.321   3.824
    1   AR   Ar  122   2.611   6.202   4.325
    1   AR   Ar  123   2.269   5.115   4.085
    1   AR   Ar  124   2.337   5.868   3.365
    1   AR   Ar  125   0.398   4.867   4.546
    1   AR   Ar  126   1.015   6.481   6.172
    1   AR   Ar  127   2.375   5.062   7.198
    1   AR   Ar  128   2.315   5.979   6.299
    1   AR   Ar  129   1.999   7.076   1.009
    1   AR   Ar  130   4.527   0.192  -1.271
    1   AR   Ar  131   4.550   6.504   0.926
    1   AR   Ar  132   6.486   2.444  -1.085
    1   AR   Ar  133   3.417   0.250   2.548
    1   AR   Ar  134   3.980   1.424   2.621
    1   AR   Ar  135   4.403   0.452   2.853
    1   AR   Ar  136   4.268   0.571   1.816
    1   AR   Ar  137   3.011   6.901   3.373
    1   AR   Ar  138   4.857   1.319   5.056
    1   AR   Ar  139   5.423   0.750   4.051
    1   AR   Ar  140   4.264   1.246   4.097
    1   AR   Ar  141   4.067   0.140   4.314
    1   AR   Ar  142   4.568   6.806   5.331
    1   AR   Ar  143   5.741   6.914   5.792
    1   AR   Ar  144   5.211   0.955   6.974
    1   AR   Ar  145   3.246   2.983   0.376
    1   AR   Ar  146   4.278   2.886   1.529
    1   AR   Ar  147   5.302   2.174   0.049
    1   AR   Ar  148   6.068   3.559  -1.955
    1   AR   Ar  149   4.528   1.296   0.812
    1   AR   Ar  150   2.961   1.440   2.675
    1   AR   Ar  151   3.338   1.786   3.653
    1   AR   Ar  152   2.770   2.590   1.921
    1   AR   Ar  153   3.104   0.860   4.164
    1   AR   Ar  154   3.766   2.139   4.649
    1   AR   Ar  155   5.679   0.890   5.697
    1   AR   Ar  156   4.253   3.627   3.816
    1   AR   Ar  157   3.868   1.696   5.776
    1   AR   Ar  158   2.068   2.104   6.230
    1   AR   Ar  159   4.506   0.719   5.870
    1   AR   Ar  160   3.944   2.909   5.921
    1   AR   Ar  161   5.063   3.341   0.217
    1   AR   Ar  162   4.837   5.377   0.206
    1   AR   Ar  163   5.937   3.318  -0.512
    1   AR   Ar  164   5.191   5.124   1.393
    1   AR   Ar  165   3.319   3.314   2.795
    1   AR   Ar  166   2.837   4.843   3.277
    1   AR   Ar  167   4.675   2.764   2.716
    1   AR   Ar  168   3.886   4.178   0.154
    1   AR   Ar  169   2.633   2.486   3.420
    1   AR   Ar  170   3.208   4.447   4.236
    1   AR   Ar  171   3.817   3.553   5.033
    1   AR   Ar  172   4.192   4.641   4.205
    1   AR   Ar  173   2.851   2.622   5.958
    1   AR   Ar  174   4.127   4.804   5.968
    1   AR   Ar  175   4.355   3.796   6.036
    1   AR   Ar  176   3.270   5.342   4.846
    1   AR   Ar  177   5.837   5.783  -0.495
    1   AR   Ar  178   3.556   6.929   1.585
    1   AR   Ar  179   3.683   5.781   1.191
    1   AR   Ar  180   3.936   4.328  -0.901
    1   AR   Ar  181   2.967   5.538   2.362
    1   AR   Ar  182   2.591   6.553   2.091
    1   AR   Ar  183   3.529   4.614   2.255
    1   AR   Ar  184   4.202   6.041   2.081
    1   AR   Ar  185   1.264   5.761   4.096
    1   AR   Ar  186   3.557   5.499   3.756
    1   AR   Ar  187   4.731   5.403   3.606
    1   AR   Ar  188   3.504   6.202   2.944
    1   AR   Ar  189   2.878   5.105   5.729
    1   AR   Ar  190   4.085   5.952   6.068
    1   AR   Ar  191   5.240   5.856   5.528
    1   AR   Ar  192   4.087   5.938   4.979
    1   AR   Ar  193   6.056   6.679  -0.124
    1   AR   Ar  194   5.463   0.166  -0.730
    1   AR   Ar  195   5.757   1.072   0.453
    1   AR   Ar  196   6.010   1.002  -0.586
    1   AR   Ar  197   5.123   0.264   0.846
    1   AR   Ar  198   6.010   1.179   1.559
    1   AR   Ar  199   5.309   0.166   2.119
    1   AR   Ar  200   6.630   1.585   0.627
    1   AR   Ar  201   4.782   6.292   3.114
    1   AR   Ar  202   5.149   1.709   4.123
    1   AR   Ar  203   0.200   6.887   4.371
    1   AR   Ar  204   5.750   0.440   3.095
    1   AR   Ar  205   6.369   6.858   3.364
    1   AR   Ar  206   5.330   0.204   4.860
    1   AR   Ar  207   0.189   0.342   5.532
    1   AR   Ar  208   6.827   0.647   3.954
    1   AR   Ar  209   6.789   2.664  -2.263
    1   AR   Ar  210   5.066   1.936   1.623
    1   AR   Ar  211   6.469   2.532  -0.027
    1   AR   Ar  212   6.590   4.450  -0.595
    1   AR   Ar  213   3.713   2.510   2.322
    1   AR   Ar  214   4.323   3.843   2.064
    1   AR   Ar  215   5.823   2.097   2.338
    1   AR   Ar  216   6.670   3.707   1.731
    1   AR   Ar  217   4.985   2.687   3.779
    1   AR   Ar  218   4.600   2.283   5.123
    1   AR   Ar  219   5.207   1.377   2.769
    1   AR   Ar  220   5.602   3.586   3.179
    1   AR   Ar  221   6.386   0.432   5.067
    1   AR   Ar  222   4.997   1.498   6.173
    1   AR   Ar  223   6.251   0.818   6.611
    1   AR   Ar  224   5.498   2.664   5.264
    1   AR   Ar  225   5.091   4.410  -0.078
    1   AR   Ar  226   4.565   4.737   2.542
    1   AR   Ar  227   6.975   4.691   0.756
    1   AR   Ar  228   5.982   5.821   0.712
    1   AR   Ar  229   5.935   3.956   0.334
    1   AR   Ar  230   3.787   4.450   3.261
    1   AR   Ar  231   6.439   2.781   3.147
    1   AR   Ar  232   5.136   3.875   1.294
    1   AR   Ar  233   5.989   2.423   3.944
    1   AR   Ar  234   6.387   4.340   4.826
    1   AR   Ar  235   6.481   3.264   4.152
    1   AR   Ar  236   5.178   4.322   3.864
    1   AR   Ar  237   5.477   3.308   4.531
    1   AR   Ar  238   4.759   4.276   5.146
    1   AR   Ar  239   6.122   4.583   7.712
    1   AR   Ar  240   6.461   4.266   6.176
    1   AR   Ar  241   6.656   0.532   0.153
    1   AR   Ar  242   5.543   6.325   1.428
    1   AR   Ar  243   5.914   4.289   2.349
    1   AR   Ar  244   6.753   5.771  -0.054
    1   AR   Ar  245   5.375   5.427   2.591
    1   AR   Ar  246   6.497   6.835   1.824
    1   AR   Ar  247   5.295   2.873   1.431
    1   AR   Ar  248   6.116   0.030   0.798
    1   AR   Ar  249   5.714   4.970   3.372
    1   AR   Ar  250   4.852   6.456   4.399
    1   AR   Ar  251   5.480   5.279   4.568
    1   AR   Ar  252   5.699   6.164   3.750
    1   AR   Ar  253   5.628   4.903   5.682
    1   AR   Ar  254   5.295   6.069   6.623
    1   AR   Ar  255   5.549   4.556   6.946
    1   AR   Ar  256   5.877   6.283   4.766
    7.12000  7.12000 12.00000
Argon-slab step 1365
  256
    1   AR   Ar    1   0.234   0.905  -1.110
    1   AR   Ar    2   6.991   0.599   1.183
    1   AR   Ar    3   0.136   6.710   0.353
    1   AR   Ar    4   0.676   0.753   0.058
    1   AR   Ar    5   7.076   6.055   1.173
    1   AR   Ar    6   0.703   0.099   2.639
    1   AR   Ar    7   0.163   5.597   2.198
    1   AR   Ar    8   0.518   7.118   1.622
    1   AR   Ar    9   0.859   0.981   3.851
    1   AR   Ar   10   7.094   1.834   3.891
    1   AR   Ar   11   2.254   0.062   4.635
    1   AR   Ar   12   1.125   1.171   2.881
    1   AR   Ar   13   6.020   1.359   4.687
    1   AR   Ar   14   0.130   1.460   5.698
    1   AR   Ar   15   6.640   5.404   8.640
    1   AR   Ar   16   0.682   1.156   4.912
    1   AR   Ar   17   0.168   1.731  -0.393
    1   AR   Ar   18   6.955   3.582   0.198
    1   AR   Ar   19   0.514   1.797   0.884
    1   AR   Ar   20   0.757   2.579  -2.182
    1   AR   Ar   21   6.573   0.693   2.325
    1   AR   Ar   22   0.026   1.971   1.936
    1   AR   Ar   23   0.581   1.117   2.032
    1   AR   Ar   24   7.039   2.905   1.080
    1   AR   Ar   25   0.102   1.148   3.065
    1   AR   Ar   26   6.286   1.473   3.485
    1   AR   Ar   27   2.136   1.029   3.554
    1   AR   Ar   28   0.923   2.442   4.751
    1   AR   Ar   29   6.130   1.808   5.704
    1   AR   Ar   30   0.013   2.912   6.345
    1   AR   Ar   31   0.448   0.921   7.812
    1   AR   Ar   32   2.098   2.928   5.400
    1   AR   Ar   33   1.187   3.970  -1.801
    1   AR   Ar   34   1.012   5.267   1.601
    1   AR   Ar   35   0.683   3.891   1.478
    1   AR   Ar   36   1.785   6.985  -1.996
    1   AR   Ar   37   0.524   2.984   2.301
    1   AR   Ar   38   7.057   4.532   2.214
    1   AR   Ar   39   1.031   4.231   2.446
    1   AR   Ar   40   1.769   4.221   1.603
    1   AR   Ar   41   0.639   2.110   3.012
    1   AR   Ar   42   6.852   5.058   5.511
    1   AR   Ar   43   6.678   3.066   5.289
    1   AR   Ar   44   0.726   3.198   3.313
    1   AR   Ar   45   0.604   3.473   4.947
    1   AR   Ar   46   6.199   5.470   6.836
    1   AR   Ar   47   0.169   3.885   6.928
    1   AR   Ar   48   6.732   6.869   6.337
    1   AR   Ar   49   6.226   5.383  -1.629
    1   AR   Ar   50   6.242   5.314   1.646
    1   AR   Ar   51   1.199   4.661   0.493
    1   AR   Ar   52   0.462   4.882  -0.212
    1   AR   Ar   53   6.313   5.791   2.548
    1   AR   Ar   54   0.481   6.223   3.208
    1   AR   Ar   55   0.242   5.195   3.518
    1   AR   Ar   56   1.231   6.286   1.203
    1   AR   Ar   57   6.845   3.661   3.067
    1   AR   Ar   58   6.887   5.703   4.340
    1   AR   Ar   59   2.138   5.757   5.185
    1   AR   Ar   60   1.157   6.910   4.062
    1   AR   Ar   61   6.183   5.891   5.751
    1   AR   Ar   62   0.218   6.237   5.299
    1   AR   Ar   63   1.117   5.288   6.013
    1   AR   Ar   64   1.478   6.628   5.246
    1   AR   Ar   65   2.985   0.184   0.105
    1   AR   Ar   66   1.649   0.952   1.308
    1   AR   Ar   67   2.990   6.114   0.462
    1   AR   Ar   68   3.363   0.863  -1.047
    1   AR   Ar   69   2.020   6.545   0.167
    1   AR   Ar   70   1.621   0.133   1.969
    1   AR   Ar   71   2.711   0.632   1.706
    1   AR   Ar   72   3.811   0.395   0.826
    1   AR   Ar   73   1.712   6.810   3.027
    1   AR   Ar   74   1.710   0.876   4.715
    1   AR   Ar   75   3.577   0.346   5.333
    1   AR   Ar   76   2.293   0.596   2.550
    1   AR   Ar   77   2.344   0.027   5.691
    1   AR   Ar   78   1.000   0.542   6.141
    1   AR   Ar   79   4.517   6.632   7.129
    1   AR   Ar   80   3.188   6.302   5.535
    1   AR   Ar   81   1.377   1.377   0.346
    1   AR   Ar   82   0.783   3.511   0.488
    1   AR   Ar   83   2.309   1.992   1.057
    1   AR   Ar   84   2.301   3.758  -3.795
    1   AR   Ar   85   1.059   2.359   0.123
    1   AR   Ar   86   1.945   2.914   2.271
    1   AR   Ar   87   2.049   1.578   2.080
    1   AR   Ar   88   2.563   3.280   1.079
    1   AR   Ar   89   1.079   1.987   1.801
    1   AR   Ar   90   2.672   2.280   4.819
    1   AR   Ar   91   1.856   1.946   4.376
    1   AR   Ar   92   1.772   1.961   3.071
    1   AR   Ar   93   1.386   1.777   5.368
    1   AR   Ar   94   3.208   0.177   7.554
    1   AR   Ar   95   3.183   0.084   6.538
    1   AR   Ar   96   2.444   0.881   6.505
    1   AR   Ar   97   3.705   2.700  -0.502
    1   AR   Ar   98   2.705   4.516   1.820
    1   AR   Ar   99   4.134   2.940  -1.749
    1   AR   Ar  100   1.939   3.958  -0.506
    1   AR   Ar  101   1.318   2.845   1.189
    1   AR   Ar  102   2.719   3.790   3.656
    1   AR   Ar  103   1.762   3.693   0.646
    1   AR   Ar  104   2.947   3.549  -1.069
    1   AR   Ar  105   1.771   3.249   3.310
    1   AR   Ar  106   2.248   3.160   4.317
    1   AR   Ar  107   2.436   3.928   5.276
    1   AR   Ar  108   3.403   3.028   4.148
    1   AR   Ar  109   1.793   4.140   4.377
    1   AR   Ar  110   1.222   4.442   5.371
    1   AR   Ar  111   4.255   4.000   7.024
    1   AR   Ar  112   1.820   4.484   6.336
    1   AR   Ar  113   2.389   4.590   0.525
    1   AR   Ar  114   2.577   5.531   1.330
    1   AR   Ar  115   3.005   5.089  -0.202
    1   AR   Ar  116   4.001   0.088  -0.278
    1   AR   Ar  117   1.427   4.778   3.507
    1   AR   Ar  118   1.289   5.988   2.387
    1   AR   Ar  119   2.084   4.186   2.842
    1   AR   Ar  120   1.963   5.279   2.212
    1   AR   Ar  121   6.549   4.310   3.799
    1   AR   Ar  122   2.625   6.201   4.355
    1   AR   Ar  123   2.258   5.122   4.110
    1   AR   Ar  124   2.347   5.860   3.363
    1   AR   Ar  125   0.424   4.848   4.592
    1   AR   Ar  126   0.993   6.469   6.174
    1   AR   Ar  127   2.411   5.084   7.229
    1   AR   Ar  128   2.339   5.956   6.280
    1   AR   Ar  129   1.996   7.075   0.995
    1   AR   Ar  130   4.539   0.211  -1.232
    1   AR   Ar  131   4.530   6.496   0.950
    1   AR   Ar  132   6.512   2.430  -1.093
    1   AR   Ar  133   3.408   0.245   2.532
    1   AR   Ar  134   3.974   1.441   2.622
    1   AR   Ar  135   4.393   0.442   2.856
    1   AR   Ar  136   4.265   0.562   1.805
    1   AR   Ar  137   3.003   6.889   3.403
    1   AR   Ar  138   4.867   1.308   5.037
    1   AR   Ar  139   5.443   0.809   4.057
    1   AR   Ar  140   4.274   1.261   4.104
    1   AR   Ar  141   4.081   0.160   4.300
    1   AR   Ar  142   4.566   6.782   5.345
    1   AR   Ar  143   5.738   6.944   5.786
    1   AR   Ar  144   5.219   0.966   6.980
    1   AR   Ar  145   3.252   2.968   0.439
    1   AR   Ar  146   4.255   2.879   1.562
    1   AR   Ar  147   5.298   2.182   0.074
    1   AR   Ar  148   6.094   3.573  -1.960
    1   AR   Ar  149   4.536   1.292   0.805
    1   AR   Ar  150   2.929   1.438   2.701
    1   AR   Ar  151   3.344   1.785   3.648
    1   AR   Ar  152   2.751   2.590   1.895
    1   AR   Ar  153   3.074   0.832   4.176
    1   AR   Ar  154   3.770   2.127   4.661
    1   AR   Ar  155   5.676   0.902   5.669
    1   AR   Ar  156   4.251   3.627   3.832
    1   AR   Ar  157   3.887   1.665   5.755
    1   AR   Ar  158   2.076   2.100   6.230
    1   AR   Ar  159   4.499   0.704   5.879
    1   AR   Ar  160   3.951   2.922   5.909
    1   AR   Ar  161   5.073   3.355   0.246
    1   AR   Ar  162   4.825   5.392   0.164
    1   AR   Ar  163   5.923   3.304  -0.500
    1   AR   Ar  164   5.197   5.131   1.407
    1   AR   Ar  165   3.351   3.296   2.780
    1   AR   Ar  166   2.829   4.830   3.229
    1   AR   Ar  167   4.669   2.740   2.702
    1   AR   Ar  168   3.885   4.192   0.156
    1   AR   Ar  169   2.624   2.496   3.448
    1   AR   Ar  170   3.215   4.419   4.263
    1   AR   Ar  171   3.836   3.573   5.055
    1   AR   Ar  172   4.167   4.629   4.222
    1   AR   Ar  173   2.841   2.630   5.971
    1   AR   Ar  174   4.109   4.802   5.962
    1   AR   Ar  175   4.365   3.803   6.013
    1   AR   Ar  176   3.257   5.366   4.832
    1   AR   Ar  177   5.813   5.788  -0.458
    1   AR   Ar  178   3.516   6.936   1.619
    1   AR   Ar  179   3.690   5.781   1.182
    1   AR   Ar  180   3.949   4.292  -0.923
    1   AR   Ar  181   2.974   5.536   2.361
    1   AR   Ar  182   2.576   6.535   2.087
    1   AR   Ar  183   3.549   4.601   2.248
    1   AR   Ar  184   4.181   6.055   2.075
    1   AR   Ar  185   1.254   5.751   4.090
    1   AR   Ar  186   3.548   5.534   3.755
    1   AR   Ar  187   4.744   5.390   3.606
    1   AR   Ar  188   3.526   6.203   2.940
    1   AR   Ar  189   2.836   5.105   5.737
    1   AR   Ar  190   4.109   5.959   6.069
    1   AR   Ar  191   5.236   5.819   5.519
    1   AR   Ar  192   4.089   5.944   5.010
    1   AR   Ar  193   6.036   6.671  -0.118
    1   AR   Ar  194   5.464   0.140  -0.730
    1   AR   Ar  195   5.760   1.070   0.428
    1   AR   Ar  196   6.003   1.012  -0.631
    1   AR   Ar  197   5.144   0.256   0.844
    1   AR   Ar  198   6.037   1.187   1.525
    1   AR   Ar  199   5.323   0.133   2.101
    1   AR   Ar  200   6.672   1.581   0.614
    1   AR   Ar  201   4.796   6.319   3.081
    1   AR   Ar  202   5.202   1.739   4.137
    1   AR   Ar  203   0.210   6.889   4.367
    1   AR   Ar  204   5.740   0.424   3.094
    1   AR   Ar  205   6.420   6.857   3.348
    1   AR   Ar  206   5.311   0.227   4.879
    1   AR   Ar  207   0.173   0.339   5.510
    1   AR   Ar  208   6.826   0.668   3.989
    1   AR   Ar  209   6.777   2.658  -2.252
    1   AR   Ar  210   5.053   1.936   1.614
    1   AR   Ar  211   6.468   2.534  -0.036
    1   AR   Ar  212   6.586   4.441  -0.603
    1   AR   Ar  213   3.709   2.498   2.335
    1   AR   Ar  214   4.313   3.839   2.080
    1   AR   Ar  215   5.828   2.090   2.345
    1   AR   Ar  216   6.648   3.690   1.738
    1   AR   Ar  217   4.962   2.710   3.790
    1   AR   Ar  218   4.591   2.303   5.150
    1   AR   Ar  219   5.195   1.377   2.817
    1   AR   Ar  220   5.588   3.592   3.210
    1   AR   Ar  221   6.380   0.464   5.078
    1   AR   Ar  222   4.966   1.489   6.173
    1   AR   Ar  223   6.252   0.797   6.581
    1   AR   Ar  224   5.520   2.644   5.246
    1   AR   Ar  225   5.131   4.407  -0.069
    1   AR   Ar  226   4.578   4.736   2.542
    1   AR   Ar  227   6.979   4.698   0.724
    1   AR   Ar  228   5.982   5.805   0.682
    1   AR   Ar  229   5.927   3.948   0.373
    1   AR   Ar  230   3.779   4.464   3.278
    1   AR   Ar  231   6.431   2.754   3.136
    1   AR   Ar  232   5.171   3.841   1.295
    1   AR   Ar  233   5.952   2.404   3.970
    1   AR   Ar  234   6.390   4.330   4.850
    1   AR   Ar  235   6.462   3.292   4.162
    1   AR   Ar  236   5.168   4.319   3.880
    1   AR   Ar  237   5.510   3.327   4.491
    1   AR   Ar  238   4.788   4.245   5.148
    1   AR   Ar  239   6.135   4.577   7.721
    1   AR   Ar  240   6.496   4.303   6.189
    1   AR   Ar  241   6.639   0.529   0.113
    1   AR   Ar  242   5.532   6.309   1.427
    1   AR   Ar  243   5.899   4.269   2.336
    1   AR   Ar  244   6.743   5.743  -0.092
    1   AR   Ar  245   5.366   5.439   2.580
    1   AR   Ar  246   6.467   6.860   1.816
    1   AR   Ar  247   5.305   2.890   1.454
    1   AR   Ar  248   6.123   0.030   0.773
    1   AR   Ar  249   5.735   4.958   3.360
    1   AR   Ar  250   4.851   6.453   4.419
    1   AR   Ar  251   5.482   5.233   4.576
    1   AR   Ar  252   5.701   6.195   3.786
    1   AR   Ar  253   5.654   4.866   5.661
    1   AR   Ar  254   5.291   6.068   6.629
    1   AR   Ar  255   5.551   4.567   6.952
    1   AR   Ar  256   5.874   6.277   4.778
    7.12000  7.12000 12.00000
Argon-slab step 1370
  256
    1   AR   Ar    1   0.208   0.921  -1.110
    1   AR   Ar    2   7.012   0.582   1.188
    1   AR   Ar    3   0.138   6.721   0.366
    1   AR   Ar    4   0.677   0.760   0.040
    1   AR   Ar    5   7.078   6.059   1.185
    1   AR   Ar    6   0.689   0.098   2.623
    1   AR   Ar    7   0.161   5.586   2.197
    1   AR   Ar    8   0.513   7.116   1.634
    1   AR   Ar    9   0.851   0.977   3.861
    1   AR   Ar   10   0.004   1.831   3.915
    1   AR   Ar   11   2.261   0.067   4.661
    1   AR   Ar   12   1.135   1.179   2.851
    1   AR   Ar   13   6.039   1.390   4.682
    1   AR   Ar   14   0.113   1.482   5.725
    1   AR   Ar   15   6.654   5.413   8.669
    1   AR   Ar   16   0.643   1.145   4.904
    1   AR   Ar   17   0.156   1.748  -0.400
    1   AR   Ar   18   6.952   3.585   0.201
    1   AR   Ar   19   0.521   1.788   0.881
    1   AR   Ar   20   0.733   2.596  -2.184
    1   AR   Ar   21   6.484   0.678   2.332
    1   AR   Ar   22   0.014   1.991   1.910
    1   AR   Ar   23   0.571   1.104   2.043
    1   AR   Ar   24   7.049   2.882   1.058
    1   AR   Ar   25   0.100   1.183   3.054
    1   AR   Ar   26   6.259   1.469   3.489
    1   AR   Ar   27   2.126   1.062   3.552
    1   AR   Ar   28   0.927   2.474   4.740
    1   AR   Ar   29   6.130   1.810   5.691
    1   AR   Ar   30   0.012   2.882   6.340
    1   AR   Ar   31   0.449   0.905   7.833
    1   AR   Ar   32   2.083   2.931   5.415
    1   AR   Ar   33   1.186   3.989  -1.801
    1   AR   Ar   34   1.003   5.250   1.595
    1   AR   Ar   35   0.701   3.884   1.490
    1   AR   Ar   36   1.780   7.009  -2.002
    1   AR   Ar   37   0.549   2.969   2.302
    1   AR   Ar   38   7.045   4.550   2.210
    1   AR   Ar   39   1.042   4.239   2.429
    1   AR   Ar   40   1.788   4.212   1.596
    1   AR   Ar   41   0.650   2.080   3.012
    1   AR   Ar   42   6.816   5.025   5.528
    1   AR   Ar   43   6.638   3.073   5.299
    1   AR   Ar   44   0.685   3.228   3.302
    1   AR   Ar   45   0.613   3.473   4.929
    1   AR   Ar   46   6.197   5.459   6.874
    1   AR   Ar   47   0.157   3.862   6.931
    1   AR   Ar   48   6.735   6.867   6.338
    1   AR   Ar   49   6.207   5.397  -1.611
    1   AR   Ar   50   6.220   5.336   1.656
    1   AR   Ar   51   1.171   4.650   0.469
    1   AR   Ar   52   0.451   4.885  -0.219
    1   AR   Ar   53   6.355   5.774   2.552
    1   AR   Ar   54   0.474   6.248   3.216
    1   AR   Ar   55   0.249   5.170   3.495
    1   AR   Ar   56   1.215   6.273   1.237
    1   AR   Ar   57   6.835   3.654   3.051
    1   AR   Ar   58   6.874   5.695   4.327
    1   AR   Ar   59   2.155   5.785   5.173
    1   AR   Ar   60   1.152   6.878   4.060
    1   AR   Ar   61   6.181   5.893   5.741
    1   AR   Ar   62   0.223   6.214   5.278
    1   AR   Ar   63   1.115   5.305   6.003
    1   AR   Ar   64   1.482   6.642   5.264
    1   AR   Ar   65   2.987   0.209   0.127
    1   AR   Ar   66   1.654   0.957   1.290
    1   AR   Ar   67   2.980   6.102   0.429
    1   AR   Ar   68   3.341   0.857  -1.046
    1   AR   Ar   69   2.035   6.527   0.171
    1   AR   Ar   70   1.643   0.134   1.953
    1   AR   Ar   71   2.720   0.650   1.731
    1   AR   Ar   72   3.807   0.391   0.840
    1   AR   Ar   73   1.704   6.805   3.018
    1   AR   Ar   74   1.714   0.889   4.700
    1   AR   Ar   75   3.585   0.343   5.331
    1   AR   Ar   76   2.292   0.602   2.579
    1   AR   Ar   77   2.375   0.016   5.732
    1   AR   Ar   78   1.022   0.542   6.181
    1   AR   Ar   79   4.476   6.620   7.116
    1   AR   Ar   80   3.188   6.293   5.545
    1   AR   Ar   81   1.398   1.389   0.380
    1   AR   Ar   82   0.824   3.518   0.479
    1   AR   Ar   83   2.302   2.023   1.050
    1   AR   Ar   84   2.280   3.779  -3.792
    1   AR   Ar   85   1.051   2.371   0.088
    1   AR   Ar   86   1.932   2.886   2.312
    1   AR   Ar   87   2.028   1.568   2.105
    1   AR   Ar   88   2.563   3.304   1.067
    1   AR   Ar   89   1.092   1.987   1.806
    1   AR   Ar   90   2.687   2.290   4.830
    1   AR   Ar   91   1.852   1.951   4.382
    1   AR   Ar   92   1.779   1.956   3.066
    1   AR   Ar   93   1.406   1.780   5.384
    1   AR   Ar   94   3.212   0.145   7.525
    1   AR   Ar   95   3.185   0.091   6.539
    1   AR   Ar   96   2.442   0.828   6.479
    1   AR   Ar   97   3.766   2.672  -0.502
    1   AR   Ar   98   2.737   4.528   1.811
    1   AR   Ar   99   4.125   2.948  -1.745
    1   AR   Ar  100   1.898   3.979  -0.511
    1   AR   Ar  101   1.318   2.826   1.192
    1   AR   Ar  102   2.717   3.798   3.629
    1   AR   Ar  103   1.730   3.691   0.652
    1   AR   Ar  104   2.940   3.534  -1.087
    1   AR   Ar  105   1.799   3.265   3.318
    1   AR   Ar  106   2.250   3.171   4.329
    1   AR   Ar  107   2.421   3.907   5.260
    1   AR   Ar  108   3.396   3.029   4.161
    1   AR   Ar  109   1.793   4.146   4.379
    1   AR   Ar  110   1.250   4.409   5.382
    1   AR   Ar  111   4.252   4.014   7.037
    1   AR   Ar  112   1.793   4.481   6.297
    1   AR   Ar  113   2.371   4.578   0.528
    1   AR   Ar  114   2.582   5.553   1.319
    1   AR   Ar  115   2.985   5.087  -0.207
    1   AR   Ar  116   4.019   0.107  -0.302
    1   AR   Ar  117   1.398   4.779   3.445
    1   AR   Ar  118   1.288   6.005   2.396
    1   AR   Ar  119   2.062   4.183   2.829
    1   AR   Ar  120   1.946   5.270   2.214
    1   AR   Ar  121   6.551   4.304   3.775
    1   AR   Ar  122   2.642   6.199   4.384
    1   AR   Ar  123   2.248   5.128   4.139
    1   AR   Ar  124   2.358   5.855   3.356
    1   AR   Ar  125   0.450   4.828   4.639
    1   AR   Ar  126   0.970   6.457   6.176
    1   AR   Ar  127   2.446   5.107   7.258
    1   AR   Ar  128   2.363   5.934   6.260
    1   AR   Ar  129   1.996   7.080   0.991
    1   AR   Ar  130   4.549   0.231  -1.194
    1   AR   Ar  131   4.508   6.486   0.976
    1   AR   Ar  132   6.538   2.415  -1.103
    1   AR   Ar  133   3.396   0.243   2.519
    1   AR   Ar  134   3.972   1.457   2.623
    1   AR   Ar  135   4.388   0.431   2.863
    1   AR   Ar  136   4.264   0.555   1.793
    1   AR   Ar  137   2.985   6.885   3.442
    1   AR   Ar  138   4.929   1.341   5.050
    1   AR   Ar  139   5.464   0.853   4.053
    1   AR   Ar  140   4.281   1.274   4.110
    1   AR   Ar  141   4.117   0.186   4.275
    1   AR   Ar  142   4.563   6.764   5.369
    1   AR   Ar  143   5.736   6.970   5.780
    1   AR   Ar  144   5.230   0.971   6.993
    1   AR   Ar  145   3.258   2.958   0.476
    1   AR   Ar  146   4.234   2.872   1.590
    1   AR   Ar  147   5.295   2.189   0.100
    1   AR   Ar  148   6.096   3.566  -1.997
    1   AR   Ar  149   4.545   1.286   0.798
    1   AR   Ar  150   2.893   1.438   2.729
    1   AR   Ar  151   3.371   1.776   3.639
    1   AR   Ar  152   2.749   2.580   1.862
    1   AR   Ar  153   3.044   0.804   4.189
    1   AR   Ar  154   3.762   2.111   4.665
    1   AR   Ar  155   5.667   0.910   5.642
    1   AR   Ar  156   4.252   3.625   3.848
    1   AR   Ar  157   3.856   1.714   5.760
    1   AR   Ar  158   2.070   2.085   6.233
    1   AR   Ar  159   4.484   0.672   5.881
    1   AR   Ar  160   3.952   2.920   5.895
    1   AR   Ar  161   5.080   3.366   0.276
    1   AR   Ar  162   4.814   5.410   0.124
    1   AR   Ar  163   5.909   3.293  -0.491
    1   AR   Ar  164   5.207   5.131   1.421
    1   AR   Ar  165   3.347   3.305   2.788
    1   AR   Ar  166   2.818   4.821   3.181
    1   AR   Ar  167   4.667   2.718   2.689
    1   AR   Ar  168   3.885   4.206   0.158
    1   AR   Ar  169   2.612   2.512   3.477
    1   AR   Ar  170   3.211   4.393   4.294
    1   AR   Ar  171   3.856   3.594   5.073
    1   AR   Ar  172   4.157   4.623   4.244
    1   AR   Ar  173   2.857   2.646   5.988
    1   AR   Ar  174   4.124   4.818   5.955
    1   AR   Ar  175   4.382   3.816   5.990
    1   AR   Ar  176   3.240   5.390   4.812
    1   AR   Ar  177   5.778   5.778  -0.430
    1   AR   Ar  178   3.497   6.921   1.635
    1   AR   Ar  179   3.658   5.799   1.209
    1   AR   Ar  180   3.962   4.256  -0.945
    1   AR   Ar  181   2.982   5.531   2.360
    1   AR   Ar  182   2.559   6.520   2.084
    1   AR   Ar  183   3.585   4.591   2.250
    1   AR   Ar  184   4.192   6.062   2.134
    1   AR   Ar  185   1.244   5.741   4.084
    1   AR   Ar  186   3.538   5.566   3.756
    1   AR   Ar  187   4.757   5.374   3.608
    1   AR   Ar  188   3.557   6.200   2.930
    1   AR   Ar  189   2.792   5.104   5.750
    1   AR   Ar  190   4.135   5.966   6.072
    1   AR   Ar  191   5.214   5.786   5.507
    1   AR   Ar  192   4.092   5.947   5.036
    1   AR   Ar  193   6.013   6.672  -0.111
    1   AR   Ar  194   5.460   0.085  -0.745
    1   AR   Ar  195   5.759   1.069   0.404
    1   AR   Ar  196   6.000   1.026  -0.676
    1   AR   Ar  197   5.158   0.251   0.843
    1   AR   Ar  198   6.063   1.195   1.489
    1   AR   Ar  199   5.337   0.101   2.081
    1   AR   Ar  200   6.712   1.577   0.600
    1   AR   Ar  201   4.809   6.348   3.046
    1   AR   Ar  202   5.247   1.783   4.150
    1   AR   Ar  203   0.210   6.890   4.367
    1   AR   Ar  204   5.724   0.415   3.089
    1   AR   Ar  205   6.481   6.851   3.335
    1   AR   Ar  206   5.294   0.249   4.901
    1   AR   Ar  207   0.160   0.332   5.488
    1   AR   Ar  208   6.824   0.690   4.025
    1   AR   Ar  209   6.763   2.652  -2.241
    1   AR   Ar  210   5.035   1.926   1.606
    1   AR   Ar  211   6.468   2.533  -0.040
    1   AR   Ar  212   6.582   4.431  -0.609
    1   AR   Ar  213   3.706   2.471   2.349
    1   AR   Ar  214   4.303   3.831   2.096
    1   AR   Ar  215   5.819   2.114   2.312
    1   AR   Ar  216   6.625   3.670   1.744
    1   AR   Ar  217   4.934   2.736   3.799
    1   AR   Ar  218   4.585   2.328   5.183
    1   AR   Ar  219   5.180   1.375   2.866
    1   AR   Ar  220   5.576   3.596   3.240
    1   AR   Ar  221   6.374   0.490   5.083
    1   AR   Ar  222   4.939   1.503   6.170
    1   AR   Ar  223   6.255   0.776   6.551
    1   AR   Ar  224   5.554   2.622   5.233
    1   AR   Ar  225   5.167   4.405  -0.064
    1   AR   Ar  226   4.594   4.738   2.545
    1   AR   Ar  227   6.986   4.682   0.718
    1   AR   Ar  228   5.985   5.787   0.646
    1   AR   Ar  229   5.927   3.940   0.418
    1   AR   Ar  230   3.775   4.475   3.293
    1   AR   Ar  231   6.423   2.719   3.120
    1   AR   Ar  232   5.205   3.824   1.294
    1   AR   Ar  233   5.939   2.419   3.992
    1   AR   Ar  234   6.392   4.319   4.876
    1   AR   Ar  235   6.453   3.322   4.170
    1   AR   Ar  236   5.151   4.311   3.903
    1   AR   Ar  237   5.535   3.353   4.449
    1   AR   Ar  238   4.818   4.215   5.146
    1   AR   Ar  239   6.159   4.571   7.742
    1   AR   Ar  240   6.530   4.338   6.203
    1   AR   Ar  241   6.632   0.533   0.062
    1   AR   Ar  242   5.500   6.313   1.424
    1   AR   Ar  243   5.883   4.250   2.323
    1   AR   Ar  244   6.743   5.714  -0.127
    1   AR   Ar  245   5.347   5.456   2.559
    1   AR   Ar  246   6.438   6.882   1.807
    1   AR   Ar  247   5.324   2.900   1.478
    1   AR   Ar  248   6.131   0.024   0.764
    1   AR   Ar  249   5.766   4.947   3.352
    1   AR   Ar  250   4.852   6.446   4.433
    1   AR   Ar  251   5.483   5.188   4.583
    1   AR   Ar  252   5.700   6.221   3.815
    1   AR   Ar  253   5.684   4.868   5.653
    1   AR   Ar  254   5.288   6.068   6.632
    1   AR   Ar  255   5.542   4.578   6.941
    1   AR   Ar  256   5.872   6.276   4.792
    7.12000  7.12000 12.00000
Argon-slab step 1375
  256
    1   AR   Ar    1   0.182   0.936  -1.108
    1   AR   Ar    2   7.022   0.577   1.185
    1   AR   Ar    3   0.106   6.733   0.402
    1   AR   Ar    4   0.670   0.762   0.020
    1   AR   Ar    5   7.078   6.062   1.199
    1   AR   Ar    6   0.678   0.099   2.615
    1   AR   Ar    7   0.166   5.578   2.194
    1   AR   Ar    8   0.518   7.102   1.646
    1   AR   Ar    9   0.844   0.971   3.872
    1   AR   Ar   10   0.038   1.830   3.943
    1   AR   Ar   11   2.275   0.063   4.683
    1   AR   Ar   12   1.127   1.188   2.826
    1   AR   Ar   13   6.064   1.426   4.680
    1   AR   Ar   14   0.094   1.505   5.756
    1   AR   Ar   15   6.667   5.422   8.696
    1   AR   Ar   16   0.605   1.132   4.892
    1   AR   Ar   17   0.143   1.766  -0.404
    1   AR   Ar   18   6.945   3.596   0.169
    1   AR   Ar   19   0.543   1.779   0.866
    1   AR   Ar   20   0.710   2.613  -2.185
    1   AR   Ar   21   6.398   0.665   2.342
    1   AR   Ar   22   7.119   2.013   1.884
    1   AR   Ar   23   0.555   1.084   2.044
    1   AR   Ar   24   7.061   2.857   1.035
    1   AR   Ar   25   0.094   1.214   3.042
    1   AR   Ar   26   6.224   1.463   3.489
    1   AR   Ar   27   2.115   1.094   3.553
    1   AR   Ar   28   0.929   2.504   4.726
    1   AR   Ar   29   6.133   1.818   5.680
    1   AR   Ar   30   0.011   2.852   6.333
    1   AR   Ar   31   0.450   0.890   7.855
    1   AR   Ar   32   2.056   2.931   5.424
    1   AR   Ar   33   1.185   4.008  -1.800
    1   AR   Ar   34   0.998   5.225   1.589
    1   AR   Ar   35   0.717   3.876   1.500
    1   AR   Ar   36   1.774   7.032  -2.008
    1   AR   Ar   37   0.574   2.953   2.297
    1   AR   Ar   38   7.033   4.568   2.208
    1   AR   Ar   39   1.053   4.249   2.414
    1   AR   Ar   40   1.802   4.204   1.588
    1   AR   Ar   41   0.660   2.058   3.010
    1   AR   Ar   42   6.786   5.001   5.539
    1   AR   Ar   43   6.619   3.069   5.301
    1   AR   Ar   44   0.644   3.259   3.295
    1   AR   Ar   45   0.621   3.477   4.911
    1   AR   Ar   46   6.196   5.447   6.910
    1   AR   Ar   47   0.143   3.840   6.934
    1   AR   Ar   48   6.738   6.864   6.337
    1   AR   Ar   49   6.188   5.411  -1.590
    1   AR   Ar   50   6.200   5.355   1.660
    1   AR   Ar   51   1.147   4.636   0.451
    1   AR   Ar   52   0.436   4.889  -0.230
    1   AR   Ar   53   6.394   5.763   2.567
    1   AR   Ar   54   0.468   6.274   3.225
    1   AR   Ar   55   0.256   5.143   3.471
    1   AR   Ar   56   1.200   6.261   1.272
    1   AR   Ar   57   6.822   3.648   3.036
    1   AR   Ar   58   6.860   5.688   4.315
    1   AR   Ar   59   2.169   5.809   5.164
    1   AR   Ar   60   1.160   6.839   4.048
    1   AR   Ar   61   6.189   5.898   5.736
    1   AR   Ar   62   0.227   6.192   5.257
    1   AR   Ar   63   1.113   5.324   5.992
    1   AR   Ar   64   1.487   6.657   5.278
    1   AR   Ar   65   2.989   0.232   0.150
    1   AR   Ar   66   1.658   0.963   1.276
    1   AR   Ar   67   2.971   6.091   0.395
    1   AR   Ar   68   3.320   0.850  -1.044
    1   AR   Ar   69   2.053   6.522   0.156
    1   AR   Ar   70   1.658   0.129   1.939
    1   AR   Ar   71   2.738   0.668   1.736
    1   AR   Ar   72   3.805   0.388   0.849
    1   AR   Ar   73   1.697   6.800   3.011
    1   AR   Ar   74   1.712   0.912   4.684
    1   AR   Ar   75   3.593   0.339   5.328
    1   AR   Ar   76   2.268   0.585   2.620
    1   AR   Ar   77   2.407   0.003   5.774
    1   AR   Ar   78   1.042   0.540   6.165
    1   AR   Ar   79   4.434   6.609   7.102
    1   AR   Ar   80   3.186   6.285   5.553
    1   AR   Ar   81   1.410   1.396   0.409
    1   AR   Ar   82   0.841   3.518   0.465
    1   AR   Ar   83   2.293   2.052   1.042
    1   AR   Ar   84   2.260   3.799  -3.789
    1   AR   Ar   85   1.041   2.386   0.053
    1   AR   Ar   86   1.906   2.862   2.357
    1   AR   Ar   87   2.008   1.559   2.128
    1   AR   Ar   88   2.557   3.330   1.068
    1   AR   Ar   89   1.106   1.988   1.813
    1   AR   Ar   90   2.708   2.305   4.834
    1   AR   Ar   91   1.842   1.954   4.382
    1   AR   Ar   92   1.787   1.957   3.063
    1   AR   Ar   93   1.428   1.782   5.402
    1   AR   Ar   94   3.218   0.113   7.507
    1   AR   Ar   95   3.190   0.095   6.527
    1   AR   Ar   96   2.435   0.764   6.452
    1   AR   Ar   97   3.817   2.643  -0.500
    1   AR   Ar   98   2.755   4.542   1.796
    1   AR   Ar   99   4.117   2.955  -1.739
    1   AR   Ar  100   1.857   4.001  -0.514
    1   AR   Ar  101   1.319   2.809   1.194
    1   AR   Ar  102   2.715   3.804   3.597
    1   AR   Ar  103   1.718   3.697   0.658
    1   AR   Ar  104   2.930   3.527  -1.102
    1   AR   Ar  105   1.826   3.281   3.328
    1   AR   Ar  106   2.256   3.184   4.360
    1   AR   Ar  107   2.408   3.891   5.243
    1   AR   Ar  108   3.386   3.030   4.174
    1   AR   Ar  109   1.826   4.185   4.382
    1   AR   Ar  110   1.276   4.374   5.389
    1   AR   Ar  111   4.250   4.047   7.059
    1   AR   Ar  112   1.769   4.479   6.260
    1   AR   Ar  113   2.351   4.565   0.533
    1   AR   Ar  114   2.586   5.575   1.309
    1   AR   Ar  115   2.967   5.086  -0.213
    1   AR   Ar  116   4.035   0.127  -0.322
    1   AR   Ar  117   1.358   4.768   3.374
    1   AR   Ar  118   1.281   6.028   2.406
    1   AR   Ar  119   2.041   4.180   2.811
    1   AR   Ar  120   1.934   5.252   2.215
    1   AR   Ar  121   6.552   4.306   3.756
    1   AR   Ar  122   2.663   6.200   4.406
    1   AR   Ar  123   2.240   5.134   4.171
    1   AR   Ar  124   2.369   5.850   3.346
    1   AR   Ar  125   0.475   4.808   4.685
    1   AR   Ar  126   0.959   6.459   6.169
    1   AR   Ar  127   2.480   5.129   7.284
    1   AR   Ar  128   2.386   5.914   6.240
    1   AR   Ar  129   1.998   7.090   0.992
    1   AR   Ar  130   4.556   0.252  -1.162
    1   AR   Ar  131   4.484   6.477   1.002
    1   AR   Ar  132   6.565   2.401  -1.114
    1   AR   Ar  133   3.380   0.245   2.515
    1   AR   Ar  134   3.972   1.470   2.625
    1   AR   Ar  135   4.387   0.421   2.872
    1   AR   Ar  136   4.262   0.549   1.787
    1   AR   Ar  137   2.963   6.884   3.485
    1   AR   Ar  138   4.987   1.372   5.062
    1   AR   Ar  139   5.485   0.877   4.041
    1   AR   Ar  140   4.287   1.287   4.116
    1   AR   Ar  141   4.152   0.212   4.251
    1   AR   Ar  142   4.561   6.754   5.402
    1   AR   Ar  143   5.735   6.992   5.776
    1   AR   Ar  144   5.242   0.971   7.009
    1   AR   Ar  145   3.262   2.955   0.472
    1   AR   Ar  146   4.216   2.868   1.613
    1   AR   Ar  147   5.294   2.198   0.127
    1   AR   Ar  148   6.101   3.550  -2.056
    1   AR   Ar  149   4.556   1.278   0.793
    1   AR   Ar  150   2.859   1.440   2.757
    1   AR   Ar  151   3.400   1.765   3.633
    1   AR   Ar  152   2.758   2.566   1.824
    1   AR   Ar  153   3.015   0.775   4.201
    1   AR   Ar  154   3.746   2.091   4.664
    1   AR   Ar  155   5.652   0.916   5.623
    1   AR   Ar  156   4.253   3.622   3.864
    1   AR   Ar  157   3.825   1.763   5.763
    1   AR   Ar  158   2.057   2.065   6.238
    1   AR   Ar  159   4.466   0.631   5.880
    1   AR   Ar  160   3.949   2.907   5.881
    1   AR   Ar  161   5.083   3.372   0.306
    1   AR   Ar  162   4.803   5.431   0.086
    1   AR   Ar  163   5.894   3.285  -0.482
    1   AR   Ar  164   5.234   5.106   1.440
    1   AR   Ar  165   3.333   3.327   2.804
    1   AR   Ar  166   2.804   4.817   3.134
    1   AR   Ar  167   4.668   2.696   2.675
    1   AR   Ar  168   3.884   4.220   0.162
    1   AR   Ar  169   2.601   2.531   3.505
    1   AR   Ar  170   3.196   4.366   4.330
    1   AR   Ar  171   3.873   3.616   5.086
    1   AR   Ar  172   4.162   4.624   4.272
    1   AR   Ar  173   2.873   2.660   5.991
    1   AR   Ar  174   4.146   4.842   5.947
    1   AR   Ar  175   4.404   3.830   5.970
    1   AR   Ar  176   3.248   5.380   4.824
    1   AR   Ar  177   5.731   5.755  -0.409
    1   AR   Ar  178   3.513   6.876   1.619
    1   AR   Ar  179   3.628   5.824   1.233
    1   AR   Ar  180   3.975   4.218  -0.967
    1   AR   Ar  181   2.991   5.526   2.357
    1   AR   Ar  182   2.542   6.505   2.082
    1   AR   Ar  183   3.599   4.583   2.263
    1   AR   Ar  184   4.197   6.081   2.140
    1   AR   Ar  185   1.234   5.731   4.077
    1   AR   Ar  186   3.528   5.594   3.761
    1   AR   Ar  187   4.769   5.359   3.610
    1   AR   Ar  188   3.589   6.199   2.919
    1   AR   Ar  189   2.748   5.100   5.763
    1   AR   Ar  190   4.144   5.969   6.057
    1   AR   Ar  191   5.179   5.756   5.492
    1   AR   Ar  192   4.095   5.942   5.056
    1   AR   Ar  193   6.000   6.677  -0.099
    1   AR   Ar  194   5.454   0.034  -0.763
    1   AR   Ar  195   5.756   1.068   0.382
    1   AR   Ar  196   5.998   1.043  -0.721
    1   AR   Ar  197   5.162   0.248   0.845
    1   AR   Ar  198   6.089   1.204   1.452
    1   AR   Ar  199   5.351   0.069   2.061
    1   AR   Ar  200   6.743   1.570   0.583
    1   AR   Ar  201   4.822   6.379   3.011
    1   AR   Ar  202   5.272   1.833   4.165
    1   AR   Ar  203   0.199   6.891   4.370
    1   AR   Ar  204   5.706   0.408   3.083
    1   AR   Ar  205   6.526   6.848   3.335
    1   AR   Ar  206   5.275   0.270   4.920
    1   AR   Ar  207   0.155   0.323   5.469
    1   AR   Ar  208   6.821   0.712   4.061
    1   AR   Ar  209   6.748   2.646  -2.228
    1   AR   Ar  210   5.013   1.910   1.599
    1   AR   Ar  211   6.470   2.530  -0.038
    1   AR   Ar  212   6.578   4.421  -0.613
    1   AR   Ar  213   3.699   2.435   2.365
    1   AR   Ar  214   4.294   3.818   2.112
    1   AR   Ar  215   5.813   2.139   2.281
    1   AR   Ar  216   6.602   3.649   1.748
    1   AR   Ar  217   4.903   2.764   3.807
    1   AR   Ar  218   4.580   2.354   5.220
    1   AR   Ar  219   5.165   1.373   2.917
    1   AR   Ar  220   5.566   3.598   3.271
    1   AR   Ar  221   6.370   0.510   5.081
    1   AR   Ar  222   4.916   1.531   6.163
    1   AR   Ar  223   6.257   0.755   6.518
    1   AR   Ar  224   5.594   2.600   5.219
    1   AR   Ar  225   5.197   4.405  -0.062
    1   AR   Ar  226   4.611   4.741   2.551
    1   AR   Ar  227   6.993   4.666   0.713
    1   AR   Ar  228   5.989   5.767   0.610
    1   AR   Ar  229   5.938   3.932   0.468
    1   AR   Ar  230   3.775   4.483   3.308
    1   AR   Ar  231   6.414   2.679   3.101
    1   AR   Ar  232   5.235   3.829   1.290
    1   AR   Ar  233   5.956   2.473   4.004
    1   AR   Ar  234   6.391   4.306   4.900
    1   AR   Ar  235   6.464   3.353   4.173
    1   AR   Ar  236   5.133   4.302   3.931
    1   AR   Ar  237   5.543   3.384   4.411
    1   AR   Ar  238   4.850   4.189   5.138
    1   AR   Ar  239   6.189   4.566   7.769
    1   AR   Ar  240   6.560   4.368   6.223
    1   AR   Ar  241   6.633   0.540   0.007
    1   AR   Ar  242   5.468   6.318   1.424
    1   AR   Ar  243   5.866   4.234   2.312
    1   AR   Ar  244   6.751   5.684  -0.160
    1   AR   Ar  245   5.327   5.477   2.533
    1   AR   Ar  246   6.409   6.902   1.796
    1   AR   Ar  247   5.345   2.900   1.498
    1   AR   Ar  248   6.144   0.015   0.770
    1   AR   Ar  249   5.802   4.936   3.345
    1   AR   Ar  250   4.852   6.438   4.442
    1   AR   Ar  251   5.485   5.143   4.589
    1   AR   Ar  252   5.698   6.245   3.831
    1   AR   Ar  253   5.717   4.876   5.649
    1   AR   Ar  254   5.286   6.066   6.631
    1   AR   Ar  255   5.528   4.588   6.922
    1   AR   Ar  256   5.861   6.285   4.798
    7.12000  7.12000 12.00000
Argon-slab step 1380
  256
    1   AR   Ar    1   0.156   0.950  -1.105
    1   AR   Ar    2   7.021   0.582   1.174
    1   AR   Ar    3   0.073   6.748   0.437
    1   AR   Ar    4   0.658   0.763   0.000
    1   AR   Ar    5   7.077   6.064   1.217
    1   AR   Ar    6   0.643   0.097   2.602
    1   AR   Ar    7   0.183   5.572   2.187
    1   AR   Ar    8   0.531   7.076   1.652
    1   AR   Ar    9   0.837   0.965   3.881
    1   AR   Ar   10   0.073   1.829   3.973
    1   AR   Ar   11   2.293   0.053   4.705
    1   AR   Ar   12   1.135   1.187   2.808
    1   AR   Ar   13   6.096   1.466   4.681
    1   AR   Ar   14   0.073   1.528   5.787
    1   AR   Ar   15   6.683   5.434   8.721
    1   AR   Ar   16   0.568   1.120   4.879
    1   AR   Ar   17   0.129   1.784  -0.405
    1   AR   Ar   18   6.934   3.608   0.137
    1   AR   Ar   19   0.574   1.774   0.853
    1   AR   Ar   20   0.688   2.630  -2.186
    1   AR   Ar   21   6.315   0.656   2.353
    1   AR   Ar   22   7.103   2.036   1.858
    1   AR   Ar   23   0.531   1.059   2.033
    1   AR   Ar   24   7.074   2.832   1.013
    1   AR   Ar   25   0.102   1.211   3.048
    1   AR   Ar   26   6.186   1.459   3.489
    1   AR   Ar   27   2.104   1.125   3.557
    1   AR   Ar   28   0.933   2.529   4.711
    1   AR   Ar   29   6.116   1.794   5.678
    1   AR   Ar   30   0.009   2.823   6.325
    1   AR   Ar   31   0.451   0.874   7.875
    1   AR   Ar   32   2.027   2.935   5.433
    1   AR   Ar   33   1.185   4.027  -1.798
    1   AR   Ar   34   1.010   5.186   1.585
    1   AR   Ar   35   0.732   3.866   1.507
    1   AR   Ar   36   1.768   7.055  -2.015
    1   AR   Ar   37   0.599   2.936   2.288
    1   AR   Ar   38   7.021   4.581   2.206
    1   AR   Ar   39   1.062   4.261   2.402
    1   AR   Ar   40   1.811   4.195   1.580
    1   AR   Ar   41   0.649   2.059   3.023
    1   AR   Ar   42   6.765   4.995   5.539
    1   AR   Ar   43   6.614   3.057   5.298
    1   AR   Ar   44   0.607   3.289   3.291
    1   AR   Ar   45   0.628   3.486   4.895
    1   AR   Ar   46   6.196   5.436   6.944
    1   AR   Ar   47   0.129   3.818   6.936
    1   AR   Ar   48   6.742   6.861   6.334
    1   AR   Ar   49   6.169   5.425  -1.567
    1   AR   Ar   50   6.186   5.373   1.659
    1   AR   Ar   51   1.129   4.619   0.439
    1   AR   Ar   52   0.415   4.893  -0.244
    1   AR   Ar   53   6.424   5.758   2.594
    1   AR   Ar   54   0.462   6.300   3.234
    1   AR   Ar   55   0.263   5.117   3.447
    1   AR   Ar   56   1.212   6.219   1.252
    1   AR   Ar   57   6.787   3.642   3.046
    1   AR   Ar   58   6.854   5.688   4.310
    1   AR   Ar   59   2.178   5.828   5.162
    1   AR   Ar   60   1.175   6.802   4.034
    1   AR   Ar   61   6.200   5.904   5.735
    1   AR   Ar   62   0.231   6.170   5.237
    1   AR   Ar   63   1.111   5.345   5.979
    1   AR   Ar   64   1.491   6.673   5.288
    1   AR   Ar   65   2.988   0.253   0.173
    1   AR   Ar   66   1.664   0.969   1.269
    1   AR   Ar   67   2.965   6.079   0.363
    1   AR   Ar   68   3.301   0.841  -1.040
    1   AR   Ar   69   2.068   6.514   0.135
    1   AR   Ar   70   1.666   0.121   1.929
    1   AR   Ar   71   2.758   0.687   1.732
    1   AR   Ar   72   3.806   0.387   0.853
    1   AR   Ar   73   1.691   6.798   3.004
    1   AR   Ar   74   1.705   0.939   4.667
    1   AR   Ar   75   3.599   0.332   5.323
    1   AR   Ar   76   2.243   0.565   2.672
    1   AR   Ar   77   2.439   7.102   5.810
    1   AR   Ar   78   1.061   0.538   6.134
    1   AR   Ar   79   4.391   6.598   7.086
    1   AR   Ar   80   3.182   6.278   5.561
    1   AR   Ar   81   1.366   1.368   0.418
    1   AR   Ar   82   0.823   3.510   0.442
    1   AR   Ar   83   2.280   2.080   1.034
    1   AR   Ar   84   2.239   3.820  -3.786
    1   AR   Ar   85   1.030   2.402   0.020
    1   AR   Ar   86   1.875   2.836   2.402
    1   AR   Ar   87   1.990   1.547   2.148
    1   AR   Ar   88   2.551   3.359   1.079
    1   AR   Ar   89   1.118   1.989   1.822
    1   AR   Ar   90   2.718   2.332   4.808
    1   AR   Ar   91   1.829   1.956   4.377
    1   AR   Ar   92   1.795   1.966   3.062
    1   AR   Ar   93   1.449   1.783   5.419
    1   AR   Ar   94   3.224   0.081   7.501
    1   AR   Ar   95   3.202   0.092   6.502
    1   AR   Ar   96   2.422   0.711   6.428
    1   AR   Ar   97   3.829   2.604  -0.495
    1   AR   Ar   98   2.761   4.557   1.773
    1   AR   Ar   99   4.107   2.963  -1.731
    1   AR   Ar  100   1.817   4.023  -0.516
    1   AR   Ar  101   1.320   2.793   1.196
    1   AR   Ar  102   2.715   3.809   3.563
    1   AR   Ar  103   1.724   3.683   0.677
    1   AR   Ar  104   2.913   3.533  -1.112
    1   AR   Ar  105   1.849   3.294   3.341
    1   AR   Ar  106   2.262   3.196   4.392
    1   AR   Ar  107   2.397   3.880   5.225
    1   AR   Ar  108   3.374   3.032   4.187
    1   AR   Ar  109   1.856   4.223   4.384
    1   AR   Ar  110   1.300   4.337   5.388
    1   AR   Ar  111   4.249   4.081   7.079
    1   AR   Ar  112   1.761   4.511   6.245
    1   AR   Ar  113   2.331   4.553   0.540
    1   AR   Ar  114   2.587   5.597   1.300
    1   AR   Ar  115   2.950   5.085  -0.217
    1   AR   Ar  116   4.045   0.146  -0.333
    1   AR   Ar  117   1.319   4.759   3.306
    1   AR   Ar  118   1.269   6.055   2.416
    1   AR   Ar  119   2.024   4.178   2.796
    1   AR   Ar  120   1.926   5.229   2.216
    1   AR   Ar  121   6.516   4.320   3.747
    1   AR   Ar  122   2.691   6.205   4.417
    1   AR   Ar  123   2.234   5.142   4.202
    1   AR   Ar  124   2.381   5.847   3.334
    1   AR   Ar  125   0.500   4.788   4.731
    1   AR   Ar  126   0.968   6.480   6.146
    1   AR   Ar  127   2.515   5.152   7.309
    1   AR   Ar  128   2.406   5.901   6.225
    1   AR   Ar  129   2.003   7.102   0.995
    1   AR   Ar  130   4.560   0.277  -1.142
    1   AR   Ar  131   4.459   6.470   1.029
    1   AR   Ar  132   6.592   2.386  -1.125
    1   AR   Ar  133   3.362   0.250   2.515
    1   AR   Ar  134   3.974   1.479   2.629
    1   AR   Ar  135   4.389   0.410   2.883
    1   AR   Ar  136   4.252   0.557   1.796
    1   AR   Ar  137   2.938   6.885   3.528
    1   AR   Ar  138   5.037   1.405   5.068
    1   AR   Ar  139   5.504   0.887   4.025
    1   AR   Ar  140   4.295   1.300   4.122
    1   AR   Ar  141   4.188   0.236   4.229
    1   AR   Ar  142   4.562   6.752   5.442
    1   AR   Ar  143   5.736   6.979   5.760
    1   AR   Ar  144   5.255   0.970   7.025
    1   AR   Ar  145   3.274   2.947   0.462
    1   AR   Ar  146   4.203   2.865   1.629
    1   AR   Ar  147   5.294   2.206   0.155
    1   AR   Ar  148   6.096   3.528  -2.089
    1   AR   Ar  149   4.568   1.269   0.787
    1   AR   Ar  150   2.827   1.445   2.785
    1   AR   Ar  151   3.430   1.756   3.627
    1   AR   Ar  152   2.771   2.552   1.789
    1   AR   Ar  153   2.986   0.746   4.212
    1   AR   Ar  154   3.729   2.071   4.661
    1   AR   Ar  155   5.634   0.920   5.621
    1   AR   Ar  156   4.253   3.621   3.879
    1   AR   Ar  157   3.796   1.812   5.766
    1   AR   Ar  158   2.042   2.042   6.244
    1   AR   Ar  159   4.454   0.598   5.882
    1   AR   Ar  160   3.942   2.889   5.869
    1   AR   Ar  161   5.082   3.373   0.335
    1   AR   Ar  162   4.791   5.451   0.049
    1   AR   Ar  163   5.877   3.280  -0.474
    1   AR   Ar  164   5.256   5.079   1.458
    1   AR   Ar  165   3.317   3.351   2.822
    1   AR   Ar  166   2.788   4.815   3.089
    1   AR   Ar  167   4.673   2.676   2.661
    1   AR   Ar  168   3.884   4.234   0.165
    1   AR   Ar  169   2.592   2.550   3.534
    1   AR   Ar  170   3.173   4.339   4.369
    1   AR   Ar  171   3.889   3.640   5.092
    1   AR   Ar  172   4.176   4.630   4.304
    1   AR   Ar  173   2.876   2.667   5.972
    1   AR   Ar  174   4.168   4.869   5.937
    1   AR   Ar  175   4.427   3.844   5.960
    1   AR   Ar  176   3.252   5.368   4.835
    1   AR   Ar  177   5.680   5.725  -0.396
    1   AR   Ar  178   3.527   6.826   1.603
    1   AR   Ar  179   3.641   5.863   1.206
    1   AR   Ar  180   3.987   4.180  -0.988
    1   AR   Ar  181   3.000   5.520   2.351
    1   AR   Ar  182   2.524   6.492   2.080
    1   AR   Ar  183   3.599   4.577   2.284
    1   AR   Ar  184   4.204   6.104   2.123
    1   AR   Ar  185   1.224   5.720   4.069
    1   AR   Ar  186   3.517   5.617   3.769
    1   AR   Ar  187   4.781   5.343   3.611
    1   AR   Ar  188   3.617   6.203   2.913
    1   AR   Ar  189   2.708   5.088   5.773
    1   AR   Ar  190   4.142   5.971   6.035
    1   AR   Ar  191   5.137   5.730   5.477
    1   AR   Ar  192   4.097   5.930   5.063
    1   AR   Ar  193   6.007   6.665  -0.096
    1   AR   Ar  194   5.450   7.107  -0.784
    1   AR   Ar  195   5.754   1.080   0.355
    1   AR   Ar  196   5.997   1.061  -0.766
    1   AR   Ar  197   5.159   0.246   0.849
    1   AR   Ar  198   6.105   1.214   1.421
    1   AR   Ar  199   5.364   0.039   2.041
    1   AR   Ar  200   6.762   1.560   0.562
    1   AR   Ar  201   4.831   6.390   3.011
    1   AR   Ar  202   5.276   1.881   4.180
    1   AR   Ar  203   0.181   6.892   4.375
    1   AR   Ar  204   5.684   0.400   3.080
    1   AR   Ar  205   6.543   6.855   3.356
    1   AR   Ar  206   5.253   0.290   4.933
    1   AR   Ar  207   0.157   0.310   5.454
    1   AR   Ar  208   6.819   0.736   4.097
    1   AR   Ar  209   6.731   2.640  -2.214
    1   AR   Ar  210   4.992   1.907   1.601
    1   AR   Ar  211   6.475   2.524  -0.033
    1   AR   Ar  212   6.572   4.411  -0.615
    1   AR   Ar  213   3.685   2.395   2.385
    1   AR   Ar  214   4.288   3.800   2.127
    1   AR   Ar  215   5.808   2.165   2.250
    1   AR   Ar  216   6.581   3.626   1.752
    1   AR   Ar  217   4.872   2.793   3.812
    1   AR   Ar  218   4.577   2.382   5.258
    1   AR   Ar  219   5.149   1.372   2.968
    1   AR   Ar  220   5.558   3.597   3.301
    1   AR   Ar  221   6.367   0.523   5.069
    1   AR   Ar  222   4.893   1.566   6.155
    1   AR   Ar  223   6.260   0.733   6.484
    1   AR   Ar  224   5.637   2.580   5.202
    1   AR   Ar  225   5.224   4.407  -0.063
    1   AR   Ar  226   4.628   4.742   2.560
    1   AR   Ar  227   7.000   4.649   0.707
    1   AR   Ar  228   5.994   5.748   0.579
    1   AR   Ar  229   5.957   3.925   0.521
    1   AR   Ar  230   3.777   4.492   3.324
    1   AR   Ar  231   6.407   2.637   3.080
    1   AR   Ar  232   5.263   3.856   1.284
    1   AR   Ar  233   5.985   2.534   4.016
    1   AR   Ar  234   6.387   4.288   4.920
    1   AR   Ar  235   6.497   3.385   4.172
    1   AR   Ar  236   5.114   4.294   3.960
    1   AR   Ar  237   5.529   3.419   4.380
    1   AR   Ar  238   4.887   4.167   5.122
    1   AR   Ar  239   6.220   4.562   7.798
    1   AR   Ar  240   6.584   4.387   6.257
    1   AR   Ar  241   6.638   0.549  -0.050
    1   AR   Ar  242   5.438   6.322   1.425
    1   AR   Ar  243   5.848   4.220   2.302
    1   AR   Ar  244   6.763   5.654  -0.191
    1   AR   Ar  245   5.309   5.503   2.506
    1   AR   Ar  246   6.382   6.916   1.783
    1   AR   Ar  247   5.357   2.902   1.489
    1   AR   Ar  248   6.163   0.007   0.786
    1   AR   Ar  249   5.837   4.927   3.337
    1   AR   Ar  250   4.851   6.429   4.449
    1   AR   Ar  251   5.487   5.098   4.593
    1   AR   Ar  252   5.696   6.266   3.833
    1   AR   Ar  253   5.750   4.881   5.646
    1   AR   Ar  254   5.284   6.065   6.627
    1   AR   Ar  255   5.513   4.598   6.899
    1   AR   Ar  256   5.853   6.293   4.811
    7.12000  7.12000 12.00000
Argon-slab step 1385
  256
    1   AR   Ar    1   0.128   0.964  -1.101
    1   AR   Ar    2   7.009   0.591   1.160
    1   AR   Ar    3   0.039   6.767   0.470
    1   AR   Ar    4   0.638   0.762  -0.021
    1   AR   Ar    5   7.074   6.063   1.237
    1   AR   Ar    6   0.611   0.099   2.607
    1   AR   Ar    7   0.212   5.569   2.177
    1   AR   Ar    8   0.546   7.041   1.647
    1   AR   Ar    9   0.831   0.959   3.886
    1   AR   Ar   10   0.107   1.828   4.004
    1   AR   Ar   11   2.311   0.041   4.726
    1   AR   Ar   12   1.154   1.178   2.795
    1   AR   Ar   13   6.133   1.509   4.680
    1   AR   Ar   14   0.053   1.549   5.818
    1   AR   Ar   15   6.710   5.461   8.735
    1   AR   Ar   16   0.530   1.110   4.868
    1   AR   Ar   17   0.116   1.803  -0.405
    1   AR   Ar   18   6.922   3.620   0.104
    1   AR   Ar   19   0.602   1.779   0.874
    1   AR   Ar   20   0.667   2.648  -2.187
    1   AR   Ar   21   6.275   0.664   2.365
    1   AR   Ar   22   7.106   2.067   1.865
    1   AR   Ar   23   0.500   1.032   2.011
    1   AR   Ar   24   7.089   2.806   0.990
    1   AR   Ar   25   0.118   1.182   3.067
    1   AR   Ar   26   6.152   1.457   3.486
    1   AR   Ar   27   2.093   1.152   3.569
    1   AR   Ar   28   0.939   2.548   4.695
    1   AR   Ar   29   6.098   1.766   5.682
    1   AR   Ar   30   0.006   2.794   6.316
    1   AR   Ar   31   0.452   0.858   7.896
    1   AR   Ar   32   2.017   2.964   5.449
    1   AR   Ar   33   1.184   4.045  -1.796
    1   AR   Ar   34   1.017   5.160   1.598
    1   AR   Ar   35   0.760   3.875   1.507
    1   AR   Ar   36   1.766   7.017  -1.985
    1   AR   Ar   37   0.624   2.919   2.274
    1   AR   Ar   38   7.007   4.589   2.204
    1   AR   Ar   39   1.067   4.275   2.391
    1   AR   Ar   40   1.816   4.187   1.575
    1   AR   Ar   41   0.662   2.082   3.064
    1   AR   Ar   42   6.758   5.007   5.526
    1   AR   Ar   43   6.610   3.047   5.293
    1   AR   Ar   44   0.583   3.320   3.289
    1   AR   Ar   45   0.632   3.502   4.879
    1   AR   Ar   46   6.196   5.424   6.976
    1   AR   Ar   47   0.115   3.796   6.938
    1   AR   Ar   48   6.745   6.858   6.328
    1   AR   Ar   49   6.150   5.438  -1.543
    1   AR   Ar   50   6.181   5.392   1.657
    1   AR   Ar   51   1.114   4.600   0.433
    1   AR   Ar   52   0.391   4.898  -0.263
    1   AR   Ar   53   6.444   5.757   2.631
    1   AR   Ar   54   0.456   6.325   3.244
    1   AR   Ar   55   0.270   5.091   3.422
    1   AR   Ar   56   1.207   6.245   1.253
    1   AR   Ar   57   6.783   3.620   3.041
    1   AR   Ar   58   6.877   5.671   4.327
    1   AR   Ar   59   2.180   5.841   5.168
    1   AR   Ar   60   1.194   6.766   4.020
    1   AR   Ar   61   6.213   5.911   5.737
    1   AR   Ar   62   0.235   6.147   5.218
    1   AR   Ar   63   1.108   5.368   5.965
    1   AR   Ar   64   1.504   6.680   5.309
    1   AR   Ar   65   2.986   0.273   0.195
    1   AR   Ar   66   1.672   0.974   1.273
    1   AR   Ar   67   2.965   6.065   0.331
    1   AR   Ar   68   3.282   0.831  -1.035
    1   AR   Ar   69   2.079   6.507   0.111
    1   AR   Ar   70   1.668   0.110   1.927
    1   AR   Ar   71   2.777   0.705   1.726
    1   AR   Ar   72   3.808   0.387   0.853
    1   AR   Ar   73   1.686   6.797   3.000
    1   AR   Ar   74   1.696   0.965   4.650
    1   AR   Ar   75   3.588   0.338   5.332
    1   AR   Ar   76   2.218   0.544   2.726
    1   AR   Ar   77   2.467   7.064   5.828
    1   AR   Ar   78   1.081   0.535   6.100
    1   AR   Ar   79   4.347   6.587   7.069
    1   AR   Ar   80   3.178   6.271   5.567
    1   AR   Ar   81   1.332   1.344   0.415
    1   AR   Ar   82   0.783   3.497   0.415
    1   AR   Ar   83   2.261   2.105   1.021
    1   AR   Ar   84   2.218   3.841  -3.783
    1   AR   Ar   85   1.019   2.418  -0.011
    1   AR   Ar   86   1.843   2.810   2.441
    1   AR   Ar   87   1.976   1.532   2.162
    1   AR   Ar   88   2.552   3.385   1.100
    1   AR   Ar   89   1.126   1.988   1.833
    1   AR   Ar   90   2.729   2.359   4.785
    1   AR   Ar   91   1.815   1.961   4.369
    1   AR   Ar   92   1.801   1.983   3.065
    1   AR   Ar   93   1.468   1.783   5.432
    1   AR   Ar   94   3.230   0.050   7.504
    1   AR   Ar   95   3.225   0.083   6.468
    1   AR   Ar   96   2.401   0.680   6.415
    1   AR   Ar   97   3.840   2.566  -0.490
    1   AR   Ar   98   2.758   4.574   1.746
    1   AR   Ar   99   4.111   2.960  -1.725
    1   AR   Ar  100   1.776   4.045  -0.515
    1   AR   Ar  101   1.321   2.780   1.196
    1   AR   Ar  102   2.717   3.816   3.532
    1   AR   Ar  103   1.740   3.675   0.692
    1   AR   Ar  104   2.897   3.539  -1.121
    1   AR   Ar  105   1.865   3.305   3.357
    1   AR   Ar  106   2.267   3.208   4.421
    1   AR   Ar  107   2.390   3.874   5.210
    1   AR   Ar  108   3.361   3.035   4.200
    1   AR   Ar  109   1.873   4.249   4.374
    1   AR   Ar  110   1.319   4.298   5.375
    1   AR   Ar  111   4.248   4.116   7.097
    1   AR   Ar  112   1.761   4.544   6.238
    1   AR   Ar  113   2.322   4.545   0.537
    1   AR   Ar  114   2.586   5.618   1.293
    1   AR   Ar  115   2.933   5.083  -0.222
    1   AR   Ar  116   4.045   0.163  -0.327
    1   AR   Ar  117   1.279   4.754   3.243
    1   AR   Ar  118   1.253   6.080   2.422
    1   AR   Ar  119   2.018   4.182   2.811
    1   AR   Ar  120   1.920   5.202   2.217
    1   AR   Ar  121   6.485   4.338   3.747
    1   AR   Ar  122   2.726   6.214   4.418
    1   AR   Ar  123   2.234   5.158   4.232
    1   AR   Ar  124   2.392   5.850   3.328
    1   AR   Ar  125   0.523   4.770   4.776
    1   AR   Ar  126   0.972   6.501   6.126
    1   AR   Ar  127   2.549   5.175   7.333
    1   AR   Ar  128   2.419   5.900   6.218
    1   AR   Ar  129   2.013   7.113   0.994
    1   AR   Ar  130   4.564   0.308  -1.138
    1   AR   Ar  131   4.436   6.468   1.055
    1   AR   Ar  132   6.591   2.385  -1.113
    1   AR   Ar  133   3.344   0.254   2.519
    1   AR   Ar  134   3.981   1.476   2.635
    1   AR   Ar  135   4.393   0.399   2.895
    1   AR   Ar  136   4.239   0.575   1.814
    1   AR   Ar  137   2.912   6.886   3.571
    1   AR   Ar  138   5.071   1.446   5.064
    1   AR   Ar  139   5.519   0.888   4.011
    1   AR   Ar  140   4.306   1.313   4.128
    1   AR   Ar  141   4.225   0.259   4.208
    1   AR   Ar  142   4.567   6.754   5.484
    1   AR   Ar  143   5.738   6.962   5.747
    1   AR   Ar  144   5.269   0.968   7.040
    1   AR   Ar  145   3.289   2.938   0.451
    1   AR   Ar  146   4.194   2.861   1.639
    1   AR   Ar  147   5.295   2.214   0.184
    1   AR   Ar  148   6.085   3.503  -2.103
    1   AR   Ar  149   4.581   1.259   0.782
    1   AR   Ar  150   2.798   1.452   2.813
    1   AR   Ar  151   3.458   1.747   3.622
    1   AR   Ar  152   2.787   2.540   1.760
    1   AR   Ar  153   2.959   0.718   4.223
    1   AR   Ar  154   3.714   2.050   4.657
    1   AR   Ar  155   5.632   0.918   5.644
    1   AR   Ar  156   4.250   3.622   3.895
    1   AR   Ar  157   3.765   1.858   5.769
    1   AR   Ar  158   2.027   2.019   6.252
    1   AR   Ar  159   4.436   0.598   5.884
    1   AR   Ar  160   3.932   2.873   5.861
    1   AR   Ar  161   5.078   3.371   0.363
    1   AR   Ar  162   4.776   5.471   0.017
    1   AR   Ar  163   5.860   3.277  -0.466
    1   AR   Ar  164   5.262   5.056   1.475
    1   AR   Ar  165   3.303   3.375   2.838
    1   AR   Ar  166   2.772   4.815   3.048
    1   AR   Ar  167   4.682   2.656   2.648
    1   AR   Ar  168   3.885   4.248   0.168
    1   AR   Ar  169   2.584   2.567   3.564
    1   AR   Ar  170   3.146   4.311   4.409
    1   AR   Ar  171   3.902   3.664   5.091
    1   AR   Ar  172   4.191   4.641   4.340
    1   AR   Ar  173   2.883   2.673   5.953
    1   AR   Ar  174   4.190   4.900   5.925
    1   AR   Ar  175   4.451   3.855   5.959
    1   AR   Ar  176   3.253   5.353   4.846
    1   AR   Ar  177   5.630   5.692  -0.392
    1   AR   Ar  178   3.539   6.777   1.589
    1   AR   Ar  179   3.651   5.895   1.180
    1   AR   Ar  180   3.975   4.179  -0.984
    1   AR   Ar  181   3.008   5.523   2.349
    1   AR   Ar  182   2.505   6.480   2.079
    1   AR   Ar  183   3.610   4.561   2.271
    1   AR   Ar  184   4.218   6.126   2.097
    1   AR   Ar  185   1.214   5.706   4.061
    1   AR   Ar  186   3.504   5.637   3.780
    1   AR   Ar  187   4.794   5.327   3.613
    1   AR   Ar  188   3.638   6.212   2.912
    1   AR   Ar  189   2.671   5.064   5.777
    1   AR   Ar  190   4.144   5.970   6.023
    1   AR   Ar  191   5.091   5.708   5.460
    1   AR   Ar  192   4.098   5.913   5.054
    1   AR   Ar  193   6.030   6.641  -0.096
    1   AR   Ar  194   5.447   7.064  -0.809
    1   AR   Ar  195   5.756   1.113   0.321
    1   AR   Ar  196   5.999   1.069  -0.805
    1   AR   Ar  197   5.150   0.245   0.855
    1   AR   Ar  198   6.086   1.227   1.421
    1   AR   Ar  199   5.368   0.050   2.071
    1   AR   Ar  200   6.773   1.548   0.539
    1   AR   Ar  201   4.839   6.398   3.020
    1   AR   Ar  202   5.267   1.926   4.193
    1   AR   Ar  203   0.200   6.901   4.386
    1   AR   Ar  204   5.655   0.389   3.083
    1   AR   Ar  205   6.534   6.860   3.341
    1   AR   Ar  206   5.226   0.307   4.936
    1   AR   Ar  207   0.166   0.294   5.443
    1   AR   Ar  208   6.817   0.761   4.132
    1   AR   Ar  209   6.713   2.633  -2.201
    1   AR   Ar  210   4.968   1.901   1.604
    1   AR   Ar  211   6.481   2.516  -0.023
    1   AR   Ar  212   6.566   4.401  -0.615
    1   AR   Ar  213   3.679   2.380   2.391
    1   AR   Ar  214   4.285   3.780   2.144
    1   AR   Ar  215   5.804   2.189   2.222
    1   AR   Ar  216   6.589   3.626   1.774
    1   AR   Ar  217   4.841   2.818   3.815
    1   AR   Ar  218   4.578   2.407   5.291
    1   AR   Ar  219   5.134   1.370   3.020
    1   AR   Ar  220   5.554   3.594   3.329
    1   AR   Ar  221   6.364   0.530   5.052
    1   AR   Ar  222   4.870   1.602   6.145
    1   AR   Ar  223   6.263   0.711   6.449
    1   AR   Ar  224   5.622   2.551   5.189
    1   AR   Ar  225   5.249   4.411  -0.065
    1   AR   Ar  226   4.643   4.741   2.571
    1   AR   Ar  227   7.007   4.631   0.702
    1   AR   Ar  228   5.999   5.729   0.556
    1   AR   Ar  229   5.986   3.918   0.572
    1   AR   Ar  230   3.783   4.512   3.348
    1   AR   Ar  231   6.401   2.593   3.055
    1   AR   Ar  232   5.286   3.897   1.282
    1   AR   Ar  233   6.020   2.593   4.029
    1   AR   Ar  234   6.380   4.264   4.934
    1   AR   Ar  235   6.547   3.418   4.172
    1   AR   Ar  236   5.096   4.290   3.988
    1   AR   Ar  237   5.505   3.455   4.357
    1   AR   Ar  238   4.929   4.149   5.097
    1   AR   Ar  239   6.252   4.560   7.825
    1   AR   Ar  240   6.565   4.367   6.264
    1   AR   Ar  241   6.645   0.557  -0.106
    1   AR   Ar  242   5.412   6.323   1.424
    1   AR   Ar  243   5.830   4.207   2.293
    1   AR   Ar  244   6.775   5.626  -0.221
    1   AR   Ar  245   5.295   5.534   2.478
    1   AR   Ar  246   6.359   6.924   1.771
    1   AR   Ar  247   5.370   2.893   1.482
    1   AR   Ar  248   6.187   0.001   0.807
    1   AR   Ar  249   5.864   4.925   3.325
    1   AR   Ar  250   4.847   6.421   4.455
    1   AR   Ar  251   5.489   5.055   4.597
    1   AR   Ar  252   5.693   6.285   3.820
    1   AR   Ar  253   5.778   4.883   5.645
    1   AR   Ar  254   5.283   6.062   6.620
    1   AR   Ar  255   5.503   4.617   6.889
    1   AR   Ar  256   5.847   6.301   4.832
    7.12000  7.12000 12.00000
Argon-slab step 1390
  256
    1   AR   Ar    1   0.099   0.976  -1.095
    1   AR   Ar    2   6.986   0.599   1.145
    1   AR   Ar    3   0.005   6.789   0.500
    1   AR   Ar    4   0.611   0.757  -0.046
    1   AR   Ar    5   7.086   6.049   1.237
    1   AR   Ar    6   0.581   0.104   2.625
    1   AR   Ar    7   0.248   5.571   2.167
    1   AR   Ar    8   0.562   7.002   1.629
    1   AR   Ar    9   0.828   0.951   3.886
    1   AR   Ar   10   0.140   1.826   4.036
    1   AR   Ar   11   2.328   0.028   4.747
    1   AR   Ar   12   1.179   1.166   2.786
    1   AR   Ar   13   6.171   1.553   4.675
    1   AR   Ar   14   0.063   1.536   5.816
    1   AR   Ar   15   6.737   5.487   8.749
    1   AR   Ar   16   0.493   1.103   4.859
    1   AR   Ar   17   0.105   1.821  -0.403
    1   AR   Ar   18   6.905   3.632   0.070
    1   AR   Ar   19   0.621   1.793   0.912
    1   AR   Ar   20   0.649   2.666  -2.187
    1   AR   Ar   21   6.295   0.693   2.379
    1   AR   Ar   22   7.113   2.099   1.881
    1   AR   Ar   23   0.501   0.997   2.012
    1   AR   Ar   24   7.102   2.811   0.979
    1   AR   Ar   25   0.127   1.150   3.087
    1   AR   Ar   26   6.124   1.462   3.480
    1   AR   Ar   27   2.081   1.175   3.588
    1   AR   Ar   28   0.947   2.560   4.678
    1   AR   Ar   29   6.088   1.750   5.693
    1   AR   Ar   30   0.004   2.766   6.306
    1   AR   Ar   31   0.453   0.842   7.916
    1   AR   Ar   32   2.000   2.985   5.465
    1   AR   Ar   33   1.184   4.062  -1.793
    1   AR   Ar   34   1.015   5.157   1.635
    1   AR   Ar   35   0.794   3.893   1.500
    1   AR   Ar   36   1.764   6.979  -1.956
    1   AR   Ar   37   0.651   2.902   2.258
    1   AR   Ar   38   6.991   4.593   2.203
    1   AR   Ar   39   1.068   4.287   2.375
    1   AR   Ar   40   1.818   4.182   1.575
    1   AR   Ar   41   0.684   2.112   3.111
    1   AR   Ar   42   6.767   5.031   5.506
    1   AR   Ar   43   6.607   3.037   5.287
    1   AR   Ar   44   0.589   3.351   3.287
    1   AR   Ar   45   0.633   3.526   4.864
    1   AR   Ar   46   6.197   5.414   7.007
    1   AR   Ar   47   0.100   3.773   6.939
    1   AR   Ar   48   6.748   6.852   6.319
    1   AR   Ar   49   6.131   5.452  -1.517
    1   AR   Ar   50   6.186   5.415   1.655
    1   AR   Ar   51   1.103   4.578   0.432
    1   AR   Ar   52   0.367   4.899  -0.283
    1   AR   Ar   53   6.458   5.758   2.674
    1   AR   Ar   54   0.451   6.348   3.255
    1   AR   Ar   55   0.275   5.067   3.398
    1   AR   Ar   56   1.197   6.287   1.260
    1   AR   Ar   57   6.779   3.596   3.028
    1   AR   Ar   58   6.900   5.666   4.336
    1   AR   Ar   59   2.177   5.851   5.179
    1   AR   Ar   60   1.216   6.734   4.004
    1   AR   Ar   61   6.225   5.919   5.743
    1   AR   Ar   62   0.238   6.125   5.201
    1   AR   Ar   63   1.106   5.392   5.948
    1   AR   Ar   64   1.523   6.688   5.324
    1   AR   Ar   65   2.981   0.291   0.215
    1   AR   Ar   66   1.682   0.979   1.287
    1   AR   Ar   67   2.970   6.050   0.302
    1   AR   Ar   68   3.265   0.821  -1.029
    1   AR   Ar   69   2.084   6.502   0.084
    1   AR   Ar   70   1.663   0.098   1.934
    1   AR   Ar   71   2.794   0.723   1.719
    1   AR   Ar   72   3.814   0.388   0.852
    1   AR   Ar   73   1.683   6.798   3.001
    1   AR   Ar   74   1.686   0.988   4.634
    1   AR   Ar   75   3.570   0.346   5.343
    1   AR   Ar   76   2.209   0.529   2.759
    1   AR   Ar   77   2.489   7.005   5.826
    1   AR   Ar   78   1.100   0.531   6.065
    1   AR   Ar   79   4.302   6.576   7.050
    1   AR   Ar   80   3.175   6.266   5.571
    1   AR   Ar   81   1.313   1.323   0.400
    1   AR   Ar   82   0.739   3.481   0.389
    1   AR   Ar   83   2.236   2.126   1.004
    1   AR   Ar   84   2.198   3.861  -3.780
    1   AR   Ar   85   1.006   2.434  -0.039
    1   AR   Ar   86   1.811   2.785   2.473
    1   AR   Ar   87   1.968   1.512   2.171
    1   AR   Ar   88   2.569   3.408   1.131
    1   AR   Ar   89   1.128   1.987   1.848
    1   AR   Ar   90   2.739   2.383   4.765
    1   AR   Ar   91   1.801   1.969   4.357
    1   AR   Ar   92   1.805   2.006   3.073
    1   AR   Ar   93   1.483   1.781   5.438
    1   AR   Ar   94   3.237   0.042   7.502
    1   AR   Ar   95   3.262   0.070   6.434
    1   AR   Ar   96   2.372   0.672   6.418
    1   AR   Ar   97   3.852   2.528  -0.485
    1   AR   Ar   98   2.751   4.593   1.714
    1   AR   Ar   99   4.134   2.938  -1.721
    1   AR   Ar  100   1.736   4.067  -0.512
    1   AR   Ar  101   1.321   2.771   1.193
    1   AR   Ar  102   2.722   3.829   3.511
    1   AR   Ar  103   1.743   3.671   0.695
    1   AR   Ar  104   2.883   3.546  -1.130
    1   AR   Ar  105   1.870   3.313   3.378
    1   AR   Ar  106   2.269   3.221   4.443
    1   AR   Ar  107   2.389   3.878   5.198
    1   AR   Ar  108   3.349   3.039   4.213
    1   AR   Ar  109   1.851   4.244   4.327
    1   AR   Ar  110   1.318   4.328   5.382
    1   AR   Ar  111   4.248   4.150   7.114
    1   AR   Ar  112   1.766   4.579   6.240
    1   AR   Ar  113   2.331   4.543   0.517
    1   AR   Ar  114   2.583   5.638   1.286
    1   AR   Ar  115   2.918   5.081  -0.225
    1   AR   Ar  116   4.057   0.153  -0.300
    1   AR   Ar  117   1.241   4.757   3.190
    1   AR   Ar  118   1.255   6.099   2.429
    1   AR   Ar  119   2.014   4.183   2.819
    1   AR   Ar  120   1.915   5.174   2.220
    1   AR   Ar  121   6.465   4.352   3.756
    1   AR   Ar  122   2.766   6.224   4.411
    1   AR   Ar  123   2.238   5.184   4.260
    1   AR   Ar  124   2.401   5.856   3.327
    1   AR   Ar  125   0.545   4.752   4.820
    1   AR   Ar  126   0.970   6.520   6.115
    1   AR   Ar  127   2.583   5.198   7.354
    1   AR   Ar  128   2.428   5.911   6.219
    1   AR   Ar  129   2.027   0.002   0.986
    1   AR   Ar  130   4.570   0.343  -1.149
    1   AR   Ar  131   4.422   6.475   1.078
    1   AR   Ar  132   6.590   2.384  -1.101
    1   AR   Ar  133   3.358   0.240   2.521
    1   AR   Ar  134   3.991   1.460   2.645
    1   AR   Ar  135   4.399   0.388   2.908
    1   AR   Ar  136   4.226   0.592   1.834
    1   AR   Ar  137   2.886   6.887   3.612
    1   AR   Ar  138   5.094   1.492   5.054
    1   AR   Ar  139   5.527   0.883   4.004
    1   AR   Ar  140   4.303   1.317   4.107
    1   AR   Ar  141   4.261   0.278   4.188
    1   AR   Ar  142   4.575   6.759   5.525
    1   AR   Ar  143   5.742   6.943   5.736
    1   AR   Ar  144   5.272   0.963   7.041
    1   AR   Ar  145   3.305   2.928   0.438
    1   AR   Ar  146   4.187   2.857   1.645
    1   AR   Ar  147   5.298   2.223   0.214
    1   AR   Ar  148   6.073   3.479  -2.117
    1   AR   Ar  149   4.595   1.247   0.777
    1   AR   Ar  150   2.773   1.460   2.841
    1   AR   Ar  151   3.485   1.740   3.616
    1   AR   Ar  152   2.806   2.531   1.738
    1   AR   Ar  153   2.933   0.693   4.232
    1   AR   Ar  154   3.702   2.030   4.654
    1   AR   Ar  155   5.627   0.900   5.682
    1   AR   Ar  156   4.241   3.631   3.912
    1   AR   Ar  157   3.734   1.898   5.770
    1   AR   Ar  158   2.016   1.998   6.264
    1   AR   Ar  159   4.423   0.603   5.889
    1   AR   Ar  160   3.915   2.868   5.860
    1   AR   Ar  161   5.073   3.367   0.390
    1   AR   Ar  162   4.747   5.487  -0.008
    1   AR   Ar  163   5.844   3.276  -0.457
    1   AR   Ar  164   5.233   5.059   1.498
    1   AR   Ar  165   3.295   3.396   2.850
    1   AR   Ar  166   2.760   4.817   3.012
    1   AR   Ar  167   4.693   2.636   2.635
    1   AR   Ar  168   3.885   4.262   0.170
    1   AR   Ar  169   2.580   2.582   3.594
    1   AR   Ar  170   3.118   4.283   4.448
    1   AR   Ar  171   3.912   3.688   5.084
    1   AR   Ar  172   4.203   4.655   4.381
    1   AR   Ar  173   2.889   2.683   5.932
    1   AR   Ar  174   4.213   4.930   5.911
    1   AR   Ar  175   4.474   3.863   5.967
    1   AR   Ar  176   3.249   5.334   4.856
    1   AR   Ar  177   5.592   5.660  -0.402
    1   AR   Ar  178   3.545   6.741   1.583
    1   AR   Ar  179   3.665   5.911   1.153
    1   AR   Ar  180   3.956   4.188  -0.974
    1   AR   Ar  181   3.006   5.552   2.368
    1   AR   Ar  182   2.486   6.468   2.079
    1   AR   Ar  183   3.624   4.548   2.263
    1   AR   Ar  184   4.240   6.145   2.067
    1   AR   Ar  185   1.204   5.689   4.052
    1   AR   Ar  186   3.490   5.653   3.794
    1   AR   Ar  187   4.807   5.311   3.613
    1   AR   Ar  188   3.656   6.227   2.916
    1   AR   Ar  189   2.639   5.028   5.774
    1   AR   Ar  190   4.147   5.968   6.025
    1   AR   Ar  191   5.046   5.687   5.444
    1   AR   Ar  192   4.099   5.907   5.054
    1   AR   Ar  193   6.059   6.614  -0.094
    1   AR   Ar  194   5.448   7.021  -0.835
    1   AR   Ar  195   5.755   1.137   0.296
    1   AR   Ar  196   6.014   1.041  -0.822
    1   AR   Ar  197   5.139   0.245   0.863
    1   AR   Ar  198   6.066   1.241   1.420
    1   AR   Ar  199   5.368   0.064   2.103
    1   AR   Ar  200   6.778   1.533   0.516
    1   AR   Ar  201   4.846   6.407   3.030
    1   AR   Ar  202   5.255   1.970   4.202
    1   AR   Ar  203   0.217   6.912   4.397
    1   AR   Ar  204   5.619   0.373   3.093
    1   AR   Ar  205   6.520   6.865   3.317
    1   AR   Ar  206   5.197   0.322   4.933
    1   AR   Ar  207   0.172   0.280   5.438
    1   AR   Ar  208   6.816   0.788   4.162
    1   AR   Ar  209   6.695   2.625  -2.187
    1   AR   Ar  210   4.943   1.894   1.608
    1   AR   Ar  211   6.488   2.507  -0.011
    1   AR   Ar  212   6.569   4.389  -0.611
    1   AR   Ar  213   3.669   2.377   2.395
    1   AR   Ar  214   4.316   3.791   2.141
    1   AR   Ar  215   5.801   2.212   2.194
    1   AR   Ar  216   6.615   3.627   1.792
    1   AR   Ar  217   4.814   2.837   3.815
    1   AR   Ar  218   4.587   2.426   5.315
    1   AR   Ar  219   5.116   1.370   3.072
    1   AR   Ar  220   5.553   3.590   3.350
    1   AR   Ar  221   6.360   0.534   5.033
    1   AR   Ar  222   4.848   1.639   6.134
    1   AR   Ar  223   6.268   0.690   6.415
    1   AR   Ar  224   5.608   2.524   5.171
    1   AR   Ar  225   5.274   4.416  -0.068
    1   AR   Ar  226   4.658   4.737   2.584
    1   AR   Ar  227   7.014   4.613   0.697
    1   AR   Ar  228   6.006   5.711   0.541
    1   AR   Ar  229   6.024   3.912   0.618
    1   AR   Ar  230   3.789   4.532   3.372
    1   AR   Ar  231   6.397   2.549   3.028
    1   AR   Ar  232   5.302   3.945   1.288
    1   AR   Ar  233   6.053   2.644   4.041
    1   AR   Ar  234   6.370   4.236   4.943
    1   AR   Ar  235   6.606   3.455   4.175
    1   AR   Ar  236   5.078   4.293   4.010
    1   AR   Ar  237   5.482   3.486   4.346
    1   AR   Ar  238   4.973   4.134   5.068
    1   AR   Ar  239   6.284   4.558   7.850
    1   AR   Ar  240   6.543   4.342   6.278
    1   AR   Ar  241   6.654   0.565  -0.159
    1   AR   Ar  242   5.390   6.320   1.423
    1   AR   Ar  243   5.810   4.197   2.285
    1   AR   Ar  244   6.782   5.601  -0.251
    1   AR   Ar  245   5.285   5.569   2.450
    1   AR   Ar  246   6.341   6.927   1.765
    1   AR   Ar  247   5.383   2.881   1.476
    1   AR   Ar  248   6.209   7.119   0.822
    1   AR   Ar  249   5.875   4.936   3.302
    1   AR   Ar  250   4.841   6.413   4.461
    1   AR   Ar  251   5.492   5.014   4.602
    1   AR   Ar  252   5.691   6.303   3.800
    1   AR   Ar  253   5.795   4.881   5.647
    1   AR   Ar  254   5.281   6.060   6.610
    1   AR   Ar  255   5.503   4.647   6.900
    1   AR   Ar  256   5.843   6.311   4.857
    7.12000  7.12000 12.00000
Argon-slab step 1395
  256
    1   AR   Ar    1   0.069   0.989  -1.088
    1   AR   Ar    2   6.991   0.576   1.139
    1   AR   Ar    3   7.096   6.813   0.526
    1   AR   Ar    4   0.598   0.749  -0.070
    1   AR   Ar    5   7.099   6.021   1.234
    1   AR   Ar    6   0.553   0.110   2.651
    1   AR   Ar    7   0.284   5.578   2.161
    1   AR   Ar    8   0.573   6.966   1.607
    1   AR   Ar    9   0.828   0.942   3.883
    1   AR   Ar   10   0.171   1.824   4.068
    1   AR   Ar   11   2.342   0.013   4.770
    1   AR   Ar   12   1.206   1.150   2.780
    1   AR   Ar   13   6.209   1.597   4.665
    1   AR   Ar   14   0.082   1.513   5.804
    1   AR   Ar   15   6.763   5.512   8.762
    1   AR   Ar   16   0.455   1.099   4.852
    1   AR   Ar   17   0.096   1.838  -0.402
    1   AR   Ar   18   6.884   3.642   0.035
    1   AR   Ar   19   0.632   1.815   0.956
    1   AR   Ar   20   0.631   2.684  -2.187
    1   AR   Ar   21   6.320   0.726   2.392
    1   AR   Ar   22   0.001   2.129   1.897
    1   AR   Ar   23   0.509   0.961   2.015
    1   AR   Ar   24   7.116   2.837   0.976
    1   AR   Ar   25   0.128   1.121   3.083
    1   AR   Ar   26   6.105   1.474   3.468
    1   AR   Ar   27   2.069   1.194   3.615
    1   AR   Ar   28   0.956   2.567   4.660
    1   AR   Ar   29   6.086   1.745   5.709
    1   AR   Ar   30   0.000   2.737   6.295
    1   AR   Ar   31   0.454   0.826   7.936
    1   AR   Ar   32   1.982   3.004   5.496
    1   AR   Ar   33   1.183   4.080  -1.789
    1   AR   Ar   34   1.016   5.151   1.667
    1   AR   Ar   35   0.824   3.906   1.482
    1   AR   Ar   36   1.761   6.941  -1.927
    1   AR   Ar   37   0.663   2.904   2.218
    1   AR   Ar   38   6.975   4.593   2.203
    1   AR   Ar   39   1.064   4.294   2.351
    1   AR   Ar   40   1.818   4.179   1.579
    1   AR   Ar   41   0.699   2.121   3.099
    1   AR   Ar   42   6.789   5.061   5.482
    1   AR   Ar   43   6.603   3.028   5.279
    1   AR   Ar   44   0.589   3.364   3.317
    1   AR   Ar   45   0.632   3.555   4.850
    1   AR   Ar   46   6.208   5.405   7.023
    1   AR   Ar   47   0.085   3.749   6.941
    1   AR   Ar   48   6.752   6.845   6.308
    1   AR   Ar   49   6.112   5.466  -1.489
    1   AR   Ar   50   6.196   5.440   1.654
    1   AR   Ar   51   1.093   4.554   0.433
    1   AR   Ar   52   0.350   4.893  -0.305
    1   AR   Ar   53   6.469   5.760   2.720
    1   AR   Ar   54   0.445   6.370   3.267
    1   AR   Ar   55   0.273   5.045   3.373
    1   AR   Ar   56   1.192   6.324   1.267
    1   AR   Ar   57   6.798   3.577   3.032
    1   AR   Ar   58   6.923   5.668   4.339
    1   AR   Ar   59   2.173   5.858   5.191
    1   AR   Ar   60   1.239   6.706   3.989
    1   AR   Ar   61   6.237   5.927   5.754
    1   AR   Ar   62   0.243   6.104   5.186
    1   AR   Ar   63   1.103   5.417   5.929
    1   AR   Ar   64   1.547   6.699   5.328
    1   AR   Ar   65   2.974   0.307   0.235
    1   AR   Ar   66   1.692   0.983   1.306
    1   AR   Ar   67   2.982   6.033   0.275
    1   AR   Ar   68   3.248   0.809  -1.021
    1   AR   Ar   69   2.084   6.501   0.057
    1   AR   Ar   70   1.655   0.085   1.946
    1   AR   Ar   71   2.808   0.741   1.712
    1   AR   Ar   72   3.823   0.388   0.851
    1   AR   Ar   73   1.682   6.801   3.007
    1   AR   Ar   74   1.716   1.008   4.621
    1   AR   Ar   75   3.549   0.351   5.351
    1   AR   Ar   76   2.224   0.523   2.762
    1   AR   Ar   77   2.503   6.937   5.811
    1   AR   Ar   78   1.120   0.528   6.028
    1   AR   Ar   79   4.257   6.566   7.028
    1   AR   Ar   80   3.176   6.258   5.569
    1   AR   Ar   81   1.306   1.304   0.376
    1   AR   Ar   82   0.719   3.486   0.386
    1   AR   Ar   83   2.243   2.146   0.992
    1   AR   Ar   84   2.177   3.882  -3.777
    1   AR   Ar   85   0.992   2.449  -0.064
    1   AR   Ar   86   1.792   2.793   2.494
    1   AR   Ar   87   1.966   1.490   2.176
    1   AR   Ar   88   2.597   3.428   1.169
    1   AR   Ar   89   1.126   1.984   1.865
    1   AR   Ar   90   2.746   2.401   4.751
    1   AR   Ar   91   1.788   1.983   4.341
    1   AR   Ar   92   1.806   2.027   3.089
    1   AR   Ar   93   1.493   1.777   5.436
    1   AR   Ar   94   3.246   0.050   7.494
    1   AR   Ar   95   3.309   0.057   6.401
    1   AR   Ar   96   2.340   0.675   6.426
    1   AR   Ar   97   3.863   2.492  -0.480
    1   AR   Ar   98   2.743   4.615   1.682
    1   AR   Ar   99   4.157   2.917  -1.717
    1   AR   Ar  100   1.695   4.089  -0.507
    1   AR   Ar  101   1.321   2.765   1.188
    1   AR   Ar  102   2.729   3.850   3.504
    1   AR   Ar  103   1.733   3.667   0.687
    1   AR   Ar  104   2.869   3.553  -1.137
    1   AR   Ar  105   1.865   3.318   3.402
    1   AR   Ar  106   2.268   3.236   4.455
    1   AR   Ar  107   2.391   3.894   5.192
    1   AR   Ar  108   3.340   3.047   4.224
    1   AR   Ar  109   1.826   4.233   4.279
    1   AR   Ar  110   1.317   4.354   5.382
    1   AR   Ar  111   4.249   4.186   7.130
    1   AR   Ar  112   1.776   4.616   6.251
    1   AR   Ar  113   2.339   4.541   0.500
    1   AR   Ar  114   2.580   5.658   1.281
    1   AR   Ar  115   2.903   5.078  -0.230
    1   AR   Ar  116   4.077   0.124  -0.260
    1   AR   Ar  117   1.209   4.773   3.156
    1   AR   Ar  118   1.266   6.111   2.434
    1   AR   Ar  119   2.008   4.178   2.818
    1   AR   Ar  120   1.913   5.146   2.225
    1   AR   Ar  121   6.458   4.361   3.774
    1   AR   Ar  122   2.808   6.232   4.404
    1   AR   Ar  123   2.247   5.217   4.287
    1   AR   Ar  124   2.410   5.864   3.325
    1   AR   Ar  125   0.563   4.736   4.861
    1   AR   Ar  126   0.983   6.519   6.112
    1   AR   Ar  127   2.616   5.222   7.374
    1   AR   Ar  128   2.432   5.928   6.227
    1   AR   Ar  129   2.045   0.009   0.974
    1   AR   Ar  130   4.575   0.383  -1.168
    1   AR   Ar  131   4.426   6.499   1.092
    1   AR   Ar  132   6.588   2.384  -1.089
    1   AR   Ar  133   3.381   0.222   2.523
    1   AR   Ar  134   4.006   1.435   2.658
    1   AR   Ar  135   4.406   0.377   2.923
    1   AR   Ar  136   4.214   0.609   1.854
    1   AR   Ar  137   2.860   6.890   3.649
    1   AR   Ar  138   5.107   1.520   5.050
    1   AR   Ar  139   5.487   0.878   4.019
    1   AR   Ar  140   4.301   1.320   4.081
    1   AR   Ar  141   4.298   0.293   4.168
    1   AR   Ar  142   4.586   6.764   5.563
    1   AR   Ar  143   5.746   6.922   5.727
    1   AR   Ar  144   5.267   0.956   7.031
    1   AR   Ar  145   3.322   2.919   0.426
    1   AR   Ar  146   4.184   2.853   1.646
    1   AR   Ar  147   5.301   2.232   0.245
    1   AR   Ar  148   6.060   3.457  -2.130
    1   AR   Ar  149   4.611   1.234   0.771
    1   AR   Ar  150   2.754   1.470   2.867
    1   AR   Ar  151   3.508   1.735   3.609
    1   AR   Ar  152   2.829   2.524   1.723
    1   AR   Ar  153   2.911   0.671   4.238
    1   AR   Ar  154   3.696   2.010   4.652
    1   AR   Ar  155   5.609   0.870   5.723
    1   AR   Ar  156   4.224   3.650   3.930
    1   AR   Ar  157   3.700   1.927   5.771
    1   AR   Ar  158   2.010   1.978   6.281
    1   AR   Ar  159   4.421   0.607   5.895
    1   AR   Ar  160   3.893   2.882   5.868
    1   AR   Ar  161   5.057   3.343   0.409
    1   AR   Ar  162   4.699   5.498  -0.022
    1   AR   Ar  163   5.827   3.277  -0.447
    1   AR   Ar  164   5.199   5.059   1.519
    1   AR   Ar  165   3.295   3.412   2.851
    1   AR   Ar  166   2.753   4.820   2.983
    1   AR   Ar  167   4.706   2.616   2.621
    1   AR   Ar  168   3.885   4.276   0.172
    1   AR   Ar  169   2.579   2.593   3.624
    1   AR   Ar  170   3.090   4.254   4.487
    1   AR   Ar  171   3.920   3.707   5.072
    1   AR   Ar  172   4.210   4.673   4.426
    1   AR   Ar  173   2.869   2.677   5.963
    1   AR   Ar  174   4.236   4.958   5.895
    1   AR   Ar  175   4.499   3.871   5.978
    1   AR   Ar  176   3.262   5.315   4.851
    1   AR   Ar  177   5.573   5.631  -0.427
    1   AR   Ar  178   3.541   6.730   1.590
    1   AR   Ar  179   3.683   5.900   1.120
    1   AR   Ar  180   3.937   4.195  -0.962
    1   AR   Ar  181   3.007   5.585   2.380
    1   AR   Ar  182   2.466   6.459   2.079
    1   AR   Ar  183   3.637   4.532   2.256
    1   AR   Ar  184   4.269   6.160   2.039
    1   AR   Ar  185   1.193   5.667   4.042
    1   AR   Ar  186   3.477   5.662   3.810
    1   AR   Ar  187   4.820   5.296   3.614
    1   AR   Ar  188   3.643   6.235   2.904
    1   AR   Ar  189   2.610   4.985   5.765
    1   AR   Ar  190   4.149   5.968   6.046
    1   AR   Ar  191   5.005   5.666   5.429
    1   AR   Ar  192   4.098   5.904   5.046
    1   AR   Ar  193   6.092   6.585  -0.091
    1   AR   Ar  194   5.451   6.978  -0.862
    1   AR   Ar  195   5.744   1.128   0.298
    1   AR   Ar  196   6.027   1.015  -0.841
    1   AR   Ar  197   5.127   0.244   0.872
    1   AR   Ar  198   6.046   1.254   1.418
    1   AR   Ar  199   5.364   0.078   2.133
    1   AR   Ar  200   6.781   1.516   0.495
    1   AR   Ar  201   4.853   6.416   3.040
    1   AR   Ar  202   5.242   2.014   4.202
    1   AR   Ar  203   0.218   6.913   4.404
    1   AR   Ar  204   5.599   0.363   3.096
    1   AR   Ar  205   6.517   6.868   3.291
    1   AR   Ar  206   5.165   0.335   4.924
    1   AR   Ar  207   0.158   0.292   5.450
    1   AR   Ar  208   6.818   0.816   4.185
    1   AR   Ar  209   6.681   2.625  -2.182
    1   AR   Ar  210   4.927   1.887   1.609
    1   AR   Ar  211   6.495   2.499   0.005
    1   AR   Ar  212   6.531   4.389  -0.612
    1   AR   Ar  213   3.652   2.380   2.402
    1   AR   Ar  214   4.350   3.799   2.139
    1   AR   Ar  215   5.800   2.233   2.168
    1   AR   Ar  216   6.656   3.623   1.795
    1   AR   Ar  217   4.792   2.848   3.811
    1   AR   Ar  218   4.602   2.438   5.330
    1   AR   Ar  219   5.097   1.370   3.123
    1   AR   Ar  220   5.555   3.586   3.362
    1   AR   Ar  221   6.351   0.535   5.016
    1   AR   Ar  222   4.839   1.663   6.119
    1   AR   Ar  223   6.278   0.668   6.387
    1   AR   Ar  224   5.596   2.500   5.148
    1   AR   Ar  225   5.299   4.420  -0.070
    1   AR   Ar  226   4.673   4.731   2.599
    1   AR   Ar  227   7.020   4.594   0.693
    1   AR   Ar  228   6.015   5.693   0.534
    1   AR   Ar  229   6.070   3.906   0.657
    1   AR   Ar  230   3.795   4.552   3.397
    1   AR   Ar  231   6.395   2.505   3.001
    1   AR   Ar  232   5.291   3.964   1.290
    1   AR   Ar  233   6.032   2.602   4.030
    1   AR   Ar  234   6.358   4.204   4.950
    1   AR   Ar  235   6.672   3.489   4.183
    1   AR   Ar  236   5.064   4.292   4.013
    1   AR   Ar  237   5.467   3.504   4.352
    1   AR   Ar  238   5.018   4.120   5.038
    1   AR   Ar  239   6.315   4.557   7.874
    1   AR   Ar  240   6.518   4.316   6.294
    1   AR   Ar  241   6.664   0.571  -0.207
    1   AR   Ar  242   5.373   6.315   1.423
    1   AR   Ar  243   5.790   4.188   2.279
    1   AR   Ar  244   6.785   5.587  -0.279
    1   AR   Ar  245   5.279   5.608   2.422
    1   AR   Ar  246   6.354   6.942   1.791
    1   AR   Ar  247   5.396   2.871   1.468
    1   AR   Ar  248   6.220   0.001   0.826
    1   AR   Ar  249   5.870   4.961   3.267
    1   AR   Ar  250   4.834   6.407   4.467
    1   AR   Ar  251   5.498   4.979   4.608
    1   AR   Ar  252   5.689   6.320   3.775
    1   AR   Ar  253   5.801   4.879   5.651
    1   AR   Ar  254   5.280   6.057   6.597
    1   AR   Ar  255   5.501   4.675   6.909
    1   AR   Ar  256   5.839   6.321   4.881
    7.12000  7.12000 12.00000
Argon-slab step 1400
  256
    1   AR   Ar    1   0.043   1.001  -1.082
    1   AR   Ar    2   7.001   0.561   1.136
    1   AR   Ar    3   7.080   6.834   0.545
    1   AR   Ar    4   0.592   0.737  -0.094
    1   AR   Ar    5   7.112   5.993   1.232
    1   AR   Ar    6   0.526   0.118   2.678
    1   AR   Ar    7   0.312   5.593   2.163
    1   AR   Ar    8   0.570   6.944   1.591
    1   AR   Ar    9   0.832   0.932   3.877
    1   AR   Ar   10   0.202   1.823   4.099
    1   AR   Ar   11   2.354   7.116   4.793
    1   AR   Ar   12   1.229   1.137   2.783
    1   AR   Ar   13   6.246   1.642   4.652
    1   AR   Ar   14   0.099   1.489   5.792
    1   AR   Ar   15   6.789   5.537   8.775
    1   AR   Ar   16   0.422   1.098   4.853
    1   AR   Ar   17   0.092   1.853  -0.401
    1   AR   Ar   18   6.860   3.648  -0.000
    1   AR   Ar   19   0.637   1.840   1.001
    1   AR   Ar   20   0.616   2.703  -2.186
    1   AR   Ar   21   6.326   0.743   2.427
    1   AR   Ar   22   0.007   2.157   1.912
    1   AR   Ar   23   0.508   0.954   2.016
    1   AR   Ar   24   0.011   2.862   0.972
    1   AR   Ar   25   0.110   1.114   3.094
    1   AR   Ar   26   6.112   1.469   3.490
    1   AR   Ar   27   2.081   1.165   3.627
    1   AR   Ar   28   0.964   2.571   4.642
    1   AR   Ar   29   6.090   1.748   5.728
    1   AR   Ar   30   7.117   2.708   6.283
    1   AR   Ar   31   0.455   0.810   7.955
    1   AR   Ar   32   1.959   3.018   5.531
    1   AR   Ar   33   1.183   4.097  -1.785
    1   AR   Ar   34   1.025   5.140   1.691
    1   AR   Ar   35   0.845   3.913   1.451
    1   AR   Ar   36   1.759   6.903  -1.897
    1   AR   Ar   37   0.677   2.909   2.179
    1   AR   Ar   38   6.967   4.585   2.202
    1   AR   Ar   39   1.055   4.294   2.319
    1   AR   Ar   40   1.819   4.178   1.586
    1   AR   Ar   41   0.715   2.130   3.086
    1   AR   Ar   42   6.820   5.091   5.456
    1   AR   Ar   43   6.600   3.020   5.270
    1   AR   Ar   44   0.603   3.373   3.350
    1   AR   Ar   45   0.630   3.588   4.837
    1   AR   Ar   46   6.248   5.395   6.982
    1   AR   Ar   47   0.071   3.726   6.942
    1   AR   Ar   48   6.757   6.835   6.295
    1   AR   Ar   49   6.093   5.479  -1.459
    1   AR   Ar   50   6.209   5.465   1.654
    1   AR   Ar   51   1.084   4.529   0.437
    1   AR   Ar   52   0.343   4.876  -0.326
    1   AR   Ar   53   6.478   5.777   2.720
    1   AR   Ar   54   0.440   6.387   3.280
    1   AR   Ar   55   0.262   5.026   3.351
    1   AR   Ar   56   1.202   6.347   1.267
    1   AR   Ar   57   6.803   3.562   3.032
    1   AR   Ar   58   6.945   5.668   4.338
    1   AR   Ar   59   2.170   5.862   5.202
    1   AR   Ar   60   1.262   6.682   3.976
    1   AR   Ar   61   6.250   5.936   5.769
    1   AR   Ar   62   0.249   6.084   5.176
    1   AR   Ar   63   1.100   5.442   5.907
    1   AR   Ar   64   1.574   6.714   5.323
    1   AR   Ar   65   2.963   0.322   0.253
    1   AR   Ar   66   1.707   0.998   1.302
    1   AR   Ar   67   2.997   6.017   0.250
    1   AR   Ar   68   3.231   0.802  -1.013
    1   AR   Ar   69   2.080   6.501   0.029
    1   AR   Ar   70   1.642   0.072   1.962
    1   AR   Ar   71   2.821   0.757   1.705
    1   AR   Ar   72   3.835   0.387   0.851
    1   AR   Ar   73   1.715   6.800   2.980
    1   AR   Ar   74   1.755   1.020   4.612
    1   AR   Ar   75   3.525   0.353   5.357
    1   AR   Ar   76   2.242   0.521   2.763
    1   AR   Ar   77   2.505   6.874   5.795
    1   AR   Ar   78   1.141   0.524   5.990
    1   AR   Ar   79   4.211   6.556   7.005
    1   AR   Ar   80   3.189   6.244   5.561
    1   AR   Ar   81   1.308   1.289   0.351
    1   AR   Ar   82   0.708   3.495   0.392
    1   AR   Ar   83   2.254   2.168   0.983
    1   AR   Ar   84   2.157   3.903  -3.774
    1   AR   Ar   85   0.977   2.464  -0.087
    1   AR   Ar   86   1.792   2.849   2.502
    1   AR   Ar   87   1.973   1.467   2.179
    1   AR   Ar   88   2.631   3.447   1.211
    1   AR   Ar   89   1.121   1.980   1.887
    1   AR   Ar   90   2.748   2.412   4.743
    1   AR   Ar   91   1.779   2.003   4.321
    1   AR   Ar   92   1.805   2.042   3.114
    1   AR   Ar   93   1.498   1.773   5.426
    1   AR   Ar   94   3.255   0.057   7.486
    1   AR   Ar   95   3.362   0.043   6.370
    1   AR   Ar   96   2.345   0.656   6.440
    1   AR   Ar   97   3.875   2.456  -0.475
    1   AR   Ar   98   2.738   4.639   1.649
    1   AR   Ar   99   4.180   2.897  -1.711
    1   AR   Ar  100   1.654   4.112  -0.500
    1   AR   Ar  101   1.320   2.762   1.182
    1   AR   Ar  102   2.734   3.880   3.514
    1   AR   Ar  103   1.716   3.662   0.672
    1   AR   Ar  104   2.856   3.560  -1.144
    1   AR   Ar  105   1.850   3.321   3.430
    1   AR   Ar  106   2.261   3.251   4.457
    1   AR   Ar  107   2.395   3.921   5.194
    1   AR   Ar  108   3.335   3.061   4.234
    1   AR   Ar  109   1.800   4.220   4.230
    1   AR   Ar  110   1.323   4.374   5.381
    1   AR   Ar  111   4.251   4.221   7.143
    1   AR   Ar  112   1.787   4.652   6.269
    1   AR   Ar  113   2.346   4.539   0.485
    1   AR   Ar  114   2.576   5.679   1.277
    1   AR   Ar  115   2.890   5.074  -0.235
    1   AR   Ar  116   4.096   0.095  -0.216
    1   AR   Ar  117   1.188   4.801   3.140
    1   AR   Ar  118   1.272   6.115   2.430
    1   AR   Ar  119   1.998   4.169   2.811
    1   AR   Ar  120   1.913   5.118   2.232
    1   AR   Ar  121   6.456   4.371   3.794
    1   AR   Ar  122   2.850   6.235   4.404
    1   AR   Ar  123   2.279   5.205   4.288
    1   AR   Ar  124   2.419   5.871   3.323
    1   AR   Ar  125   0.572   4.726   4.896
    1   AR   Ar  126   0.987   6.516   6.118
    1   AR   Ar  127   2.650   5.246   7.393
    1   AR   Ar  128   2.433   5.945   6.240
    1   AR   Ar  129   2.065   0.015   0.960
    1   AR   Ar  130   4.579   0.425  -1.189
    1   AR   Ar  131   4.445   6.539   1.095
    1   AR   Ar  132   6.595   2.384  -1.075
    1   AR   Ar  133   3.401   0.207   2.533
    1   AR   Ar  134   4.022   1.405   2.671
    1   AR   Ar  135   4.416   0.365   2.938
    1   AR   Ar  136   4.203   0.625   1.873
    1   AR   Ar  137   2.833   6.897   3.676
    1   AR   Ar  138   5.094   1.482   5.058
    1   AR   Ar  139   5.442   0.870   4.041
    1   AR   Ar  140   4.309   1.324   4.056
    1   AR   Ar  141   4.336   0.303   4.149
    1   AR   Ar  142   4.601   6.768   5.596
    1   AR   Ar  143   5.749   6.903   5.722
    1   AR   Ar  144   5.270   0.945   7.022
    1   AR   Ar  145   3.338   2.910   0.416
    1   AR   Ar  146   4.184   2.849   1.642
    1   AR   Ar  147   5.306   2.241   0.277
    1   AR   Ar  148   6.044   3.438  -2.142
    1   AR   Ar  149   4.624   1.222   0.766
    1   AR   Ar  150   2.740   1.482   2.892
    1   AR   Ar  151   3.524   1.734   3.598
    1   AR   Ar  152   2.850   2.541   1.724
    1   AR   Ar  153   2.892   0.656   4.242
    1   AR   Ar  154   3.694   1.990   4.652
    1   AR   Ar  155   5.573   0.838   5.756
    1   AR   Ar  156   4.198   3.677   3.951
    1   AR   Ar  157   3.665   1.942   5.770
    1   AR   Ar  158   2.008   1.960   6.304
    1   AR   Ar  159   4.435   0.610   5.903
    1   AR   Ar  160   3.870   2.914   5.882
    1   AR   Ar  161   5.026   3.291   0.418
    1   AR   Ar  162   4.636   5.507  -0.028
    1   AR   Ar  163   5.812   3.280  -0.435
    1   AR   Ar  164   5.163   5.058   1.538
    1   AR   Ar  165   3.305   3.420   2.843
    1   AR   Ar  166   2.751   4.824   2.961
    1   AR   Ar  167   4.722   2.595   2.608
    1   AR   Ar  168   3.886   4.291   0.174
    1   AR   Ar  169   2.581   2.599   3.653
    1   AR   Ar  170   3.064   4.226   4.523
    1   AR   Ar  171   3.921   3.706   5.055
    1   AR   Ar  172   4.211   4.693   4.474
    1   AR   Ar  173   2.848   2.670   5.994
    1   AR   Ar  174   4.261   4.981   5.876
    1   AR   Ar  175   4.523   3.879   5.992
    1   AR   Ar  176   3.284   5.295   4.837
    1   AR   Ar  177   5.568   5.603  -0.460
    1   AR   Ar  178   3.527   6.733   1.575
    1   AR   Ar  179   3.687   5.860   1.079
    1   AR   Ar  180   3.917   4.202  -0.950
    1   AR   Ar  181   3.008   5.620   2.386
    1   AR   Ar  182   2.445   6.452   2.079
    1   AR   Ar  183   3.646   4.493   2.238
    1   AR   Ar  184   4.304   6.171   2.018
    1   AR   Ar  185   1.182   5.641   4.032
    1   AR   Ar  186   3.469   5.649   3.827
    1   AR   Ar  187   4.832   5.281   3.614
    1   AR   Ar  188   3.625   6.239   2.913
    1   AR   Ar  189   2.585   4.942   5.751
    1   AR   Ar  190   4.148   5.970   6.080
    1   AR   Ar  191   4.973   5.645   5.416
    1   AR   Ar  192   4.090   5.901   5.027
    1   AR   Ar  193   6.126   6.556  -0.088
    1   AR   Ar  194   5.455   6.936  -0.888
    1   AR   Ar  195   5.735   1.118   0.301
    1   AR   Ar  196   6.035   0.993  -0.863
    1   AR   Ar  197   5.115   0.243   0.882
    1   AR   Ar  198   6.027   1.267   1.416
    1   AR   Ar  199   5.356   0.091   2.159
    1   AR   Ar  200   6.783   1.497   0.477
    1   AR   Ar  201   4.859   6.427   3.049
    1   AR   Ar  202   5.225   2.051   4.197
    1   AR   Ar  203   0.214   6.921   4.428
    1   AR   Ar  204   5.605   0.366   3.089
    1   AR   Ar  205   6.539   6.877   3.274
    1   AR   Ar  206   5.132   0.347   4.914
    1   AR   Ar  207   0.145   0.300   5.465
    1   AR   Ar  208   6.822   0.845   4.195
    1   AR   Ar  209   6.674   2.635  -2.190
    1   AR   Ar  210   4.959   1.882   1.602
    1   AR   Ar  211   6.499   2.494   0.023
    1   AR   Ar  212   6.477   4.395  -0.616
    1   AR   Ar  213   3.631   2.384   2.413
    1   AR   Ar  214   4.385   3.803   2.141
    1   AR   Ar  215   5.799   2.249   2.144
    1   AR   Ar  216   6.697   3.618   1.797
    1   AR   Ar  217   4.774   2.853   3.803
    1   AR   Ar  218   4.616   2.446   5.338
    1   AR   Ar  219   5.089   1.362   3.160
    1   AR   Ar  220   5.560   3.582   3.364
    1   AR   Ar  221   6.334   0.532   5.007
    1   AR   Ar  222   4.851   1.669   6.099
    1   AR   Ar  223   6.298   0.646   6.369
    1   AR   Ar  224   5.592   2.478   5.120
    1   AR   Ar  225   5.325   4.425  -0.071
    1   AR   Ar  226   4.689   4.725   2.615
    1   AR   Ar  227   7.028   4.574   0.688
    1   AR   Ar  228   6.028   5.688   0.529
    1   AR   Ar  229   6.121   3.899   0.691
    1   AR   Ar  230   3.801   4.567   3.420
    1   AR   Ar  231   6.395   2.480   2.971
    1   AR   Ar  232   5.248   3.937   1.276
    1   AR   Ar  233   6.018   2.563   4.017
    1   AR   Ar  234   6.344   4.172   4.955
    1   AR   Ar  235   6.742   3.513   4.195
    1   AR   Ar  236   5.048   4.296   3.993
    1   AR   Ar  237   5.465   3.499   4.372
    1   AR   Ar  238   5.059   4.109   5.017
    1   AR   Ar  239   6.347   4.557   7.897
    1   AR   Ar  240   6.493   4.291   6.309
    1   AR   Ar  241   6.678   0.571  -0.246
    1   AR   Ar  242   5.364   6.309   1.426
    1   AR   Ar  243   5.769   4.181   2.274
    1   AR   Ar  244   6.784   5.590  -0.305
    1   AR   Ar  245   5.275   5.649   2.397
    1   AR   Ar  246   6.371   6.953   1.825
    1   AR   Ar  247   5.400   2.865   1.463
    1   AR   Ar  248   6.211   0.007   0.823
    1   AR   Ar  249   5.855   4.995   3.225
    1   AR   Ar  250   4.827   6.402   4.473
    1   AR   Ar  251   5.508   4.952   4.617
    1   AR   Ar  252   5.687   6.336   3.750
    1   AR   Ar  253   5.799   4.875   5.659
    1   AR   Ar  254   5.278   6.054   6.582
    1   AR   Ar  255   5.495   4.699   6.916
    1   AR   Ar  256   5.834   6.331   4.899
    7.12000  7.12000 12.00000
Argon-slab step 1405
  256
    1   AR   Ar    1   0.038   1.012  -1.085
    1   AR   Ar    2   7.015   0.555   1.137
    1   AR   Ar    3   7.081   6.846   0.555
    1   AR   Ar    4   0.582   0.723  -0.121
    1   AR   Ar    5   0.003   5.965   1.229
    1   AR   Ar    6   0.502   0.127   2.706
    1   AR   Ar    7   0.330   5.614   2.177
    1   AR   Ar    8   0.545   6.942   1.587
    1   AR   Ar    9   0.838   0.921   3.870
    1   AR   Ar   10   0.231   1.824   4.128
    1   AR   Ar   11   2.366   7.098   4.813
    1   AR   Ar   12   1.242   1.129   2.799
    1   AR   Ar   13   6.281   1.687   4.638
    1   AR   Ar   14   0.115   1.466   5.782
    1   AR   Ar   15   6.815   5.561   8.786
    1   AR   Ar   16   0.401   1.099   4.872
    1   AR   Ar   17   0.094   1.865  -0.402
    1   AR   Ar   18   6.838   3.651  -0.036
    1   AR   Ar   19   0.637   1.866   1.041
    1   AR   Ar   20   0.602   2.722  -2.185
    1   AR   Ar   21   6.305   0.735   2.495
    1   AR   Ar   22   0.010   2.181   1.926
    1   AR   Ar   23   0.501   0.967   2.015
    1   AR   Ar   24   0.025   2.887   0.970
    1   AR   Ar   25   0.088   1.112   3.112
    1   AR   Ar   26   6.122   1.466   3.511
    1   AR   Ar   27   2.091   1.127   3.630
    1   AR   Ar   28   0.971   2.576   4.625
    1   AR   Ar   29   6.087   1.749   5.756
    1   AR   Ar   30   7.113   2.680   6.269
    1   AR   Ar   31   0.456   0.800   7.964
    1   AR   Ar   32   1.933   3.030   5.564
    1   AR   Ar   33   1.183   4.113  -1.780
    1   AR   Ar   34   1.043   5.122   1.702
    1   AR   Ar   35   0.856   3.910   1.403
    1   AR   Ar   36   1.735   6.915  -1.862
    1   AR   Ar   37   0.693   2.921   2.141
    1   AR   Ar   38   6.972   4.565   2.200
    1   AR   Ar   39   1.043   4.291   2.291
    1   AR   Ar   40   1.823   4.179   1.595
    1   AR   Ar   41   0.729   2.139   3.072
    1   AR   Ar   42   6.855   5.121   5.428
    1   AR   Ar   43   6.596   3.011   5.259
    1   AR   Ar   44   0.627   3.379   3.387
    1   AR   Ar   45   0.627   3.623   4.823
    1   AR   Ar   46   6.292   5.388   6.941
    1   AR   Ar   47   0.056   3.701   6.942
    1   AR   Ar   48   6.764   6.820   6.279
    1   AR   Ar   49   6.074   5.492  -1.427
    1   AR   Ar   50   6.221   5.491   1.655
    1   AR   Ar   51   1.075   4.505   0.442
    1   AR   Ar   52   0.344   4.849  -0.347
    1   AR   Ar   53   6.488   5.804   2.691
    1   AR   Ar   54   0.435   6.400   3.295
    1   AR   Ar   55   0.235   5.012   3.331
    1   AR   Ar   56   1.233   6.349   1.257
    1   AR   Ar   57   6.796   3.549   3.027
    1   AR   Ar   58   6.965   5.666   4.333
    1   AR   Ar   59   2.169   5.864   5.211
    1   AR   Ar   60   1.287   6.663   3.964
    1   AR   Ar   61   6.262   5.944   5.789
    1   AR   Ar   62   0.258   6.066   5.171
    1   AR   Ar   63   1.098   5.468   5.882
    1   AR   Ar   64   1.595   6.730   5.313
    1   AR   Ar   65   2.951   0.335   0.270
    1   AR   Ar   66   1.723   1.017   1.283
    1   AR   Ar   67   3.014   6.001   0.227
    1   AR   Ar   68   3.214   0.802  -1.004
    1   AR   Ar   69   2.075   6.503   0.002
    1   AR   Ar   70   1.626   0.059   1.978
    1   AR   Ar   71   2.832   0.772   1.699
    1   AR   Ar   72   3.851   0.387   0.853
    1   AR   Ar   73   1.758   6.798   2.952
    1   AR   Ar   74   1.792   1.026   4.608
    1   AR   Ar   75   3.499   0.354   5.359
    1   AR   Ar   76   2.265   0.523   2.761
    1   AR   Ar   77   2.496   6.827   5.785
    1   AR   Ar   78   1.162   0.520   5.949
    1   AR   Ar   79   4.165   6.548   6.981
    1   AR   Ar   80   3.216   6.219   5.546
    1   AR   Ar   81   1.316   1.279   0.327
    1   AR   Ar   82   0.697   3.504   0.398
    1   AR   Ar   83   2.257   2.204   0.993
    1   AR   Ar   84   2.136   3.924  -3.771
    1   AR   Ar   85   0.962   2.479  -0.107
    1   AR   Ar   86   1.792   2.910   2.502
    1   AR   Ar   87   1.987   1.446   2.181
    1   AR   Ar   88   2.664   3.470   1.252
    1   AR   Ar   89   1.116   1.975   1.916
    1   AR   Ar   90   2.745   2.413   4.744
    1   AR   Ar   91   1.790   2.015   4.280
    1   AR   Ar   92   1.803   2.054   3.143
    1   AR   Ar   93   1.500   1.768   5.409
    1   AR   Ar   94   3.264   0.064   7.477
    1   AR   Ar   95   3.417   0.028   6.341
    1   AR   Ar   96   2.359   0.633   6.454
    1   AR   Ar   97   3.888   2.421  -0.471
    1   AR   Ar   98   2.736   4.666   1.616
    1   AR   Ar   99   4.202   2.876  -1.703
    1   AR   Ar  100   1.613   4.134  -0.490
    1   AR   Ar  101   1.317   2.762   1.174
    1   AR   Ar  102   2.738   3.914   3.535
    1   AR   Ar  103   1.699   3.655   0.654
    1   AR   Ar  104   2.844   3.568  -1.150
    1   AR   Ar  105   1.829   3.324   3.462
    1   AR   Ar  106   2.255   3.258   4.458
    1   AR   Ar  107   2.394   3.955   5.208
    1   AR   Ar  108   3.344   3.071   4.241
    1   AR   Ar  109   1.774   4.201   4.231
    1   AR   Ar  110   1.343   4.386   5.384
    1   AR   Ar  111   4.254   4.258   7.155
    1   AR   Ar  112   1.791   4.687   6.296
    1   AR   Ar  113   2.351   4.536   0.475
    1   AR   Ar  114   2.572   5.699   1.273
    1   AR   Ar  115   2.879   5.070  -0.244
    1   AR   Ar  116   4.113   0.067  -0.170
    1   AR   Ar  117   1.183   4.835   3.135
    1   AR   Ar  118   1.273   6.110   2.419
    1   AR   Ar  119   1.984   4.155   2.799
    1   AR   Ar  120   1.917   5.091   2.243
    1   AR   Ar  121   6.452   4.388   3.814
    1   AR   Ar  122   2.889   6.231   4.415
    1   AR   Ar  123   2.318   5.183   4.282
    1   AR   Ar  124   2.429   5.880   3.321
    1   AR   Ar  125   0.567   4.723   4.921
    1   AR   Ar  126   0.985   6.513   6.129
    1   AR   Ar  127   2.683   5.270   7.410
    1   AR   Ar  128   2.432   5.956   6.259
    1   AR   Ar  129   2.087   0.019   0.946
    1   AR   Ar  130   4.582   0.467  -1.210
    1   AR   Ar  131   4.465   6.589   1.087
    1   AR   Ar  132   6.607   2.385  -1.061
    1   AR   Ar  133   3.412   0.207   2.572
    1   AR   Ar  134   4.039   1.373   2.684
    1   AR   Ar  135   4.428   0.355   2.955
    1   AR   Ar  136   4.192   0.641   1.892
    1   AR   Ar  137   2.820   6.893   3.687
    1   AR   Ar  138   5.082   1.440   5.066
    1   AR   Ar  139   5.397   0.862   4.068
    1   AR   Ar  140   4.322   1.337   4.044
    1   AR   Ar  141   4.375   0.307   4.130
    1   AR   Ar  142   4.620   6.769   5.625
    1   AR   Ar  143   5.751   6.889   5.723
    1   AR   Ar  144   5.278   0.932   7.011
    1   AR   Ar  145   3.353   2.901   0.406
    1   AR   Ar  146   4.186   2.845   1.635
    1   AR   Ar  147   5.313   2.248   0.310
    1   AR   Ar  148   6.025   3.424  -2.153
    1   AR   Ar  149   4.628   1.219   0.761
    1   AR   Ar  150   2.733   1.496   2.916
    1   AR   Ar  151   3.532   1.739   3.583
    1   AR   Ar  152   2.871   2.573   1.736
    1   AR   Ar  153   2.878   0.650   4.244
    1   AR   Ar  154   3.696   1.971   4.652
    1   AR   Ar  155   5.577   0.831   5.748
    1   AR   Ar  156   4.167   3.708   3.972
    1   AR   Ar  157   3.628   1.947   5.767
    1   AR   Ar  158   2.021   1.962   6.281
    1   AR   Ar  159   4.449   0.619   5.912
    1   AR   Ar  160   3.849   2.960   5.898
    1   AR   Ar  161   4.995   3.241   0.426
    1   AR   Ar  162   4.570   5.514  -0.031
    1   AR   Ar  163   5.798   3.282  -0.421
    1   AR   Ar  164   5.127   5.054   1.555
    1   AR   Ar  165   3.322   3.423   2.827
    1   AR   Ar  166   2.754   4.828   2.943
    1   AR   Ar  167   4.738   2.575   2.594
    1   AR   Ar  168   3.886   4.305   0.175
    1   AR   Ar  169   2.584   2.601   3.680
    1   AR   Ar  170   3.046   4.201   4.550
    1   AR   Ar  171   3.905   3.703   5.066
    1   AR   Ar  172   4.209   4.716   4.526
    1   AR   Ar  173   2.826   2.662   6.024
    1   AR   Ar  174   4.273   4.987   5.874
    1   AR   Ar  175   4.533   3.886   5.991
    1   AR   Ar  176   3.301   5.271   4.825
    1   AR   Ar  177   5.570   5.576  -0.496
    1   AR   Ar  178   3.517   6.726   1.566
    1   AR   Ar  179   3.687   5.808   1.037
    1   AR   Ar  180   3.901   4.183  -0.973
    1   AR   Ar  181   3.009   5.653   2.383
    1   AR   Ar  182   2.423   6.447   2.080
    1   AR   Ar  183   3.649   4.459   2.223
    1   AR   Ar  184   4.341   6.176   2.007
    1   AR   Ar  185   1.170   5.609   4.021
    1   AR   Ar  186   3.464   5.632   3.841
    1   AR   Ar  187   4.844   5.269   3.614
    1   AR   Ar  188   3.610   6.245   2.939
    1   AR   Ar  189   2.569   4.902   5.729
    1   AR   Ar  190   4.145   5.977   6.119
    1   AR   Ar  191   4.982   5.658   5.390
    1   AR   Ar  192   4.083   5.914   5.007
    1   AR   Ar  193   6.162   6.527  -0.087
    1   AR   Ar  194   5.460   6.893  -0.913
    1   AR   Ar  195   5.725   1.107   0.304
    1   AR   Ar  196   6.036   0.976  -0.892
    1   AR   Ar  197   5.112   0.242   0.893
    1   AR   Ar  198   6.008   1.280   1.413
    1   AR   Ar  199   5.343   0.102   2.176
    1   AR   Ar  200   6.783   1.475   0.463
    1   AR   Ar  201   4.863   6.439   3.057
    1   AR   Ar  202   5.198   2.070   4.193
    1   AR   Ar  203   0.209   6.931   4.451
    1   AR   Ar  204   5.611   0.369   3.092
    1   AR   Ar  205   6.551   6.903   3.271
    1   AR   Ar  206   5.100   0.356   4.905
    1   AR   Ar  207   0.133   0.305   5.483
    1   AR   Ar  208   6.825   0.874   4.190
    1   AR   Ar  209   6.669   2.641  -2.198
    1   AR   Ar  210   4.988   1.877   1.594
    1   AR   Ar  211   6.501   2.491   0.045
    1   AR   Ar  212   6.421   4.405  -0.620
    1   AR   Ar  213   3.610   2.388   2.430
    1   AR   Ar  214   4.381   3.793   2.163
    1   AR   Ar  215   5.803   2.259   2.125
    1   AR   Ar  216   6.739   3.611   1.799
    1   AR   Ar  217   4.757   2.860   3.790
    1   AR   Ar  218   4.624   2.452   5.345
    1   AR   Ar  219   5.099   1.341   3.172
    1   AR   Ar  220   5.568   3.577   3.357
    1   AR   Ar  221   6.310   0.528   5.004
    1   AR   Ar  222   4.863   1.673   6.080
    1   AR   Ar  223   6.329   0.625   6.359
    1   AR   Ar  224   5.597   2.459   5.089
    1   AR   Ar  225   5.353   4.430  -0.072
    1   AR   Ar  226   4.706   4.720   2.634
    1   AR   Ar  227   7.036   4.553   0.683
    1   AR   Ar  228   6.043   5.685   0.527
    1   AR   Ar  229   6.172   3.893   0.726
    1   AR   Ar  230   3.810   4.565   3.438
    1   AR   Ar  231   6.406   2.477   2.959
    1   AR   Ar  232   5.202   3.911   1.266
    1   AR   Ar  233   6.019   2.547   4.007
    1   AR   Ar  234   6.328   4.141   4.961
    1   AR   Ar  235   6.814   3.525   4.210
    1   AR   Ar  236   5.030   4.308   3.957
    1   AR   Ar  237   5.476   3.473   4.397
    1   AR   Ar  238   5.092   4.103   5.011
    1   AR   Ar  239   6.378   4.559   7.918
    1   AR   Ar  240   6.472   4.270   6.317
    1   AR   Ar  241   6.694   0.565  -0.272
    1   AR   Ar  242   5.364   6.300   1.432
    1   AR   Ar  243   5.749   4.175   2.270
    1   AR   Ar  244   6.773   5.602  -0.330
    1   AR   Ar  245   5.274   5.692   2.374
    1   AR   Ar  246   6.390   6.963   1.853
    1   AR   Ar  247   5.377   2.868   1.481
    1   AR   Ar  248   6.178   0.017   0.819
    1   AR   Ar  249   5.836   5.031   3.179
    1   AR   Ar  250   4.821   6.399   4.477
    1   AR   Ar  251   5.523   4.934   4.626
    1   AR   Ar  252   5.695   6.339   3.739
    1   AR   Ar  253   5.794   4.872   5.668
    1   AR   Ar  254   5.276   6.050   6.563
    1   AR   Ar  255   5.485   4.720   6.921
    1   AR   Ar  256   5.838   6.335   4.903
    7.12000  7.12000 12.00000
Argon-slab step 1410
  256
    1   AR   Ar    1   0.034   1.026  -1.091
    1   AR   Ar    2   7.022   0.562   1.140
    1   AR   Ar    3   7.093   6.850   0.557
    1   AR   Ar    4   0.570   0.707  -0.148
    1   AR   Ar    5   0.015   5.939   1.224
    1   AR   Ar    6   0.478   0.140   2.731
    1   AR   Ar    7   0.337   5.625   2.188
    1   AR   Ar    8   0.507   6.949   1.592
    1   AR   Ar    9   0.847   0.909   3.863
    1   AR   Ar   10   0.259   1.829   4.154
    1   AR   Ar   11   2.382   7.082   4.824
    1   AR   Ar   12   1.251   1.119   2.820
    1   AR   Ar   13   6.315   1.731   4.625
    1   AR   Ar   14   0.128   1.444   5.776
    1   AR   Ar   15   6.840   5.585   8.798
    1   AR   Ar   16   0.390   1.100   4.891
    1   AR   Ar   17   0.102   1.873  -0.403
    1   AR   Ar   18   6.819   3.649  -0.072
    1   AR   Ar   19   0.633   1.890   1.072
    1   AR   Ar   20   0.591   2.741  -2.184
    1   AR   Ar   21   6.288   0.732   2.543
    1   AR   Ar   22   0.009   2.201   1.939
    1   AR   Ar   23   0.493   0.982   2.013
    1   AR   Ar   24   0.040   2.911   0.968
    1   AR   Ar   25   0.066   1.112   3.129
    1   AR   Ar   26   6.116   1.479   3.535
    1   AR   Ar   27   2.071   1.119   3.634
    1   AR   Ar   28   0.976   2.581   4.608
    1   AR   Ar   29   6.074   1.748   5.795
    1   AR   Ar   30   7.108   2.651   6.254
    1   AR   Ar   31   0.462   0.813   7.937
    1   AR   Ar   32   1.905   3.040   5.594
    1   AR   Ar   33   1.183   4.129  -1.774
    1   AR   Ar   34   1.065   5.104   1.701
    1   AR   Ar   35   0.858   3.901   1.344
    1   AR   Ar   36   1.706   6.938  -1.825
    1   AR   Ar   37   0.711   2.940   2.105
    1   AR   Ar   38   6.978   4.549   2.200
    1   AR   Ar   39   1.029   4.283   2.273
    1   AR   Ar   40   1.831   4.179   1.604
    1   AR   Ar   41   0.742   2.148   3.057
    1   AR   Ar   42   6.886   5.150   5.401
    1   AR   Ar   43   6.592   3.003   5.247
    1   AR   Ar   44   0.640   3.367   3.388
    1   AR   Ar   45   0.625   3.659   4.809
    1   AR   Ar   46   6.337   5.383   6.897
    1   AR   Ar   47   0.042   3.676   6.943
    1   AR   Ar   48   6.773   6.799   6.262
    1   AR   Ar   49   6.057   5.505  -1.396
    1   AR   Ar   50   6.232   5.517   1.656
    1   AR   Ar   51   1.066   4.483   0.449
    1   AR   Ar   52   0.348   4.815  -0.367
    1   AR   Ar   53   6.485   5.821   2.671
    1   AR   Ar   54   0.430   6.408   3.312
    1   AR   Ar   55   0.196   5.001   3.312
    1   AR   Ar   56   1.278   6.340   1.244
    1   AR   Ar   57   6.783   3.539   3.020
    1   AR   Ar   58   6.983   5.660   4.322
    1   AR   Ar   59   2.170   5.862   5.219
    1   AR   Ar   60   1.311   6.648   3.953
    1   AR   Ar   61   6.275   5.949   5.811
    1   AR   Ar   62   0.271   6.052   5.174
    1   AR   Ar   63   1.096   5.491   5.855
    1   AR   Ar   64   1.602   6.746   5.302
    1   AR   Ar   65   2.937   0.347   0.286
    1   AR   Ar   66   1.738   1.034   1.262
    1   AR   Ar   67   3.032   5.989   0.206
    1   AR   Ar   68   3.196   0.802  -0.995
    1   AR   Ar   69   2.070   6.506  -0.025
    1   AR   Ar   70   1.620   0.033   1.993
    1   AR   Ar   71   2.843   0.779   1.701
    1   AR   Ar   72   3.869   0.387   0.857
    1   AR   Ar   73   1.803   6.795   2.935
    1   AR   Ar   74   1.828   1.026   4.610
    1   AR   Ar   75   3.473   0.354   5.356
    1   AR   Ar   76   2.293   0.531   2.755
    1   AR   Ar   77   2.482   6.798   5.782
    1   AR   Ar   78   1.184   0.516   5.907
    1   AR   Ar   79   4.118   6.543   6.960
    1   AR   Ar   80   3.253   6.186   5.526
    1   AR   Ar   81   1.326   1.274   0.305
    1   AR   Ar   82   0.685   3.510   0.403
    1   AR   Ar   83   2.256   2.239   1.000
    1   AR   Ar   84   2.115   3.944  -3.768
    1   AR   Ar   85   0.946   2.494  -0.124
    1   AR   Ar   86   1.797   2.896   2.478
    1   AR   Ar   87   2.008   1.427   2.181
    1   AR   Ar   88   2.696   3.496   1.291
    1   AR   Ar   89   1.115   1.968   1.953
    1   AR   Ar   90   2.739   2.406   4.752
    1   AR   Ar   91   1.804   2.030   4.237
    1   AR   Ar   92   1.801   2.066   3.172
    1   AR   Ar   93   1.499   1.762   5.387
    1   AR   Ar   94   3.274   0.070   7.467
    1   AR   Ar   95   3.472   0.011   6.315
    1   AR   Ar   96   2.373   0.608   6.467
    1   AR   Ar   97   3.900   2.387  -0.467
    1   AR   Ar   98   2.738   4.693   1.584
    1   AR   Ar   99   4.224   2.856  -1.695
    1   AR   Ar  100   1.571   4.157  -0.480
    1   AR   Ar  101   1.311   2.763   1.167
    1   AR   Ar  102   2.742   3.948   3.562
    1   AR   Ar  103   1.687   3.648   0.636
    1   AR   Ar  104   2.871   3.565  -1.166
    1   AR   Ar  105   1.804   3.327   3.496
    1   AR   Ar  106   2.266   3.232   4.486
    1   AR   Ar  107   2.380   3.987   5.237
    1   AR   Ar  108   3.385   3.051   4.243
    1   AR   Ar  109   1.748   4.183   4.245
    1   AR   Ar  110   1.376   4.391   5.392
    1   AR   Ar  111   4.257   4.294   7.165
    1   AR   Ar  112   1.789   4.720   6.331
    1   AR   Ar  113   2.378   4.532   0.461
    1   AR   Ar  114   2.568   5.720   1.269
    1   AR   Ar  115   2.870   5.064  -0.256
    1   AR   Ar  116   4.131   0.039  -0.125
    1   AR   Ar  117   1.191   4.872   3.133
    1   AR   Ar  118   1.271   6.099   2.402
    1   AR   Ar  119   1.988   4.174   2.796
    1   AR   Ar  120   1.925   5.067   2.256
    1   AR   Ar  121   6.445   4.410   3.831
    1   AR   Ar  122   2.893   6.224   4.414
    1   AR   Ar  123   2.357   5.162   4.275
    1   AR   Ar  124   2.439   5.888   3.319
    1   AR   Ar  125   0.549   4.728   4.934
    1   AR   Ar  126   0.981   6.510   6.142
    1   AR   Ar  127   2.690   5.275   7.405
    1   AR   Ar  128   2.429   5.958   6.284
    1   AR   Ar  129   2.109   0.023   0.934
    1   AR   Ar  130   4.585   0.509  -1.229
    1   AR   Ar  131   4.476   6.640   1.069
    1   AR   Ar  132   6.617   2.388  -1.050
    1   AR   Ar  133   3.420   0.206   2.612
    1   AR   Ar  134   4.057   1.342   2.699
    1   AR   Ar  135   4.443   0.344   2.973
    1   AR   Ar  136   4.183   0.654   1.909
    1   AR   Ar  137   2.809   6.890   3.685
    1   AR   Ar  138   5.068   1.401   5.069
    1   AR   Ar  139   5.354   0.858   4.095
    1   AR   Ar  140   4.336   1.361   4.048
    1   AR   Ar  141   4.412   0.306   4.109
    1   AR   Ar  142   4.640   6.765   5.650
    1   AR   Ar  143   5.751   6.881   5.733
    1   AR   Ar  144   5.287   0.919   6.997
    1   AR   Ar  145   3.368   2.894   0.398
    1   AR   Ar  146   4.190   2.841   1.627
    1   AR   Ar  147   5.302   2.231   0.344
    1   AR   Ar  148   6.001   3.416  -2.163
    1   AR   Ar  149   4.632   1.216   0.757
    1   AR   Ar  150   2.731   1.512   2.936
    1   AR   Ar  151   3.532   1.749   3.566
    1   AR   Ar  152   2.892   2.605   1.751
    1   AR   Ar  153   2.867   0.652   4.245
    1   AR   Ar  154   3.701   1.953   4.654
    1   AR   Ar  155   5.571   0.824   5.737
    1   AR   Ar  156   4.133   3.741   3.996
    1   AR   Ar  157   3.593   1.947   5.762
    1   AR   Ar  158   2.035   1.965   6.262
    1   AR   Ar  159   4.464   0.633   5.922
    1   AR   Ar  160   3.829   3.011   5.914
    1   AR   Ar  161   4.965   3.194   0.435
    1   AR   Ar  162   4.502   5.521  -0.033
    1   AR   Ar  163   5.785   3.286  -0.405
    1   AR   Ar  164   5.091   5.049   1.570
    1   AR   Ar  165   3.341   3.426   2.808
    1   AR   Ar  166   2.762   4.833   2.928
    1   AR   Ar  167   4.755   2.553   2.580
    1   AR   Ar  168   3.887   4.320   0.177
    1   AR   Ar  169   2.589   2.599   3.702
    1   AR   Ar  170   3.041   4.181   4.563
    1   AR   Ar  171   3.880   3.700   5.094
    1   AR   Ar  172   4.207   4.740   4.577
    1   AR   Ar  173   2.804   2.653   6.054
    1   AR   Ar  174   4.267   4.972   5.896
    1   AR   Ar  175   4.534   3.893   5.980
    1   AR   Ar  176   3.312   5.244   4.816
    1   AR   Ar  177   5.572   5.549  -0.529
    1   AR   Ar  178   3.510   6.710   1.560
    1   AR   Ar  179   3.688   5.753   0.996
    1   AR   Ar  180   3.886   4.157  -1.005
    1   AR   Ar  181   3.009   5.681   2.373
    1   AR   Ar  182   2.399   6.447   2.081
    1   AR   Ar  183   3.643   4.433   2.211
    1   AR   Ar  184   4.378   6.179   2.003
    1   AR   Ar  185   1.157   5.575   4.010
    1   AR   Ar  186   3.463   5.610   3.848
    1   AR   Ar  187   4.853   5.262   3.614
    1   AR   Ar  188   3.600   6.257   2.969
    1   AR   Ar  189   2.562   4.867   5.699
    1   AR   Ar  190   4.140   5.983   6.158
    1   AR   Ar  191   5.007   5.678   5.362
    1   AR   Ar  192   4.085   5.917   4.978
    1   AR   Ar  193   6.198   6.501  -0.088
    1   AR   Ar  194   5.466   6.850  -0.937
    1   AR   Ar  195   5.716   1.095   0.308
    1   AR   Ar  196   6.029   0.963  -0.926
    1   AR   Ar  197   5.125   0.241   0.904
    1   AR   Ar  198   5.988   1.291   1.410
    1   AR   Ar  199   5.326   0.109   2.182
    1   AR   Ar  200   6.782   1.450   0.453
    1   AR   Ar  201   4.871   6.442   3.112
    1   AR   Ar  202   5.161   2.070   4.193
    1   AR   Ar  203   0.203   6.941   4.472
    1   AR   Ar  204   5.610   0.369   3.113
    1   AR   Ar  205   6.564   6.929   3.266
    1   AR   Ar  206   5.067   0.360   4.903
    1   AR   Ar  207   0.122   0.305   5.504
    1   AR   Ar  208   6.826   0.899   4.172
    1   AR   Ar  209   6.665   2.640  -2.205
    1   AR   Ar  210   5.013   1.868   1.584
    1   AR   Ar  211   6.501   2.492   0.070
    1   AR   Ar  212   6.362   4.419  -0.624
    1   AR   Ar  213   3.591   2.389   2.452
    1   AR   Ar  214   4.370   3.771   2.188
    1   AR   Ar  215   5.813   2.261   2.114
    1   AR   Ar  216   6.781   3.601   1.799
    1   AR   Ar  217   4.736   2.872   3.771
    1   AR   Ar  218   4.624   2.458   5.350
    1   AR   Ar  219   5.106   1.322   3.183
    1   AR   Ar  220   5.578   3.572   3.346
    1   AR   Ar  221   6.281   0.521   5.005
    1   AR   Ar  222   4.876   1.677   6.063
    1   AR   Ar  223   6.365   0.606   6.355
    1   AR   Ar  224   5.610   2.443   5.056
    1   AR   Ar  225   5.381   4.434  -0.071
    1   AR   Ar  226   4.711   4.716   2.643
    1   AR   Ar  227   7.046   4.533   0.678
    1   AR   Ar  228   6.044   5.653   0.499
    1   AR   Ar  229   6.218   3.886   0.762
    1   AR   Ar  230   3.817   4.564   3.455
    1   AR   Ar  231   6.435   2.460   2.981
    1   AR   Ar  232   5.154   3.888   1.257
    1   AR   Ar  233   6.035   2.559   4.002
    1   AR   Ar  234   6.311   4.111   4.968
    1   AR   Ar  235   6.888   3.530   4.227
    1   AR   Ar  236   5.011   4.319   3.916
    1   AR   Ar  237   5.498   3.430   4.416
    1   AR   Ar  238   5.113   4.104   5.021
    1   AR   Ar  239   6.409   4.561   7.938
    1   AR   Ar  240   6.472   4.262   6.295
    1   AR   Ar  241   6.709   0.551  -0.287
    1   AR   Ar  242   5.371   6.296   1.445
    1   AR   Ar  243   5.728   4.169   2.266
    1   AR   Ar  244   6.780   5.606  -0.340
    1   AR   Ar  245   5.275   5.736   2.354
    1   AR   Ar  246   6.407   6.978   1.835
    1   AR   Ar  247   5.357   2.878   1.489
    1   AR   Ar  248   6.130   0.030   0.816
    1   AR   Ar  249   5.815   5.066   3.132
    1   AR   Ar  250   4.819   6.399   4.479
    1   AR   Ar  251   5.542   4.924   4.632
    1   AR   Ar  252   5.715   6.347   3.744
    1   AR   Ar  253   5.787   4.869   5.678
    1   AR   Ar  254   5.274   6.046   6.542
    1   AR   Ar  255   5.473   4.738   6.925
    1   AR   Ar  256   5.853   6.331   4.890
    7.12000  7.12000 12.00000
Argon-slab step 1415
  256
    1   AR   Ar    1   0.032   1.041  -1.101
    1   AR   Ar    2   7.010   0.567   1.137
    1   AR   Ar    3   7.081   6.830   0.529
    1   AR   Ar    4   0.563   0.692  -0.174
    1   AR   Ar    5   0.026   5.915   1.217
    1   AR   Ar    6   0.455   0.156   2.754
    1   AR   Ar    7   0.338   5.628   2.197
    1   AR   Ar    8   0.467   6.957   1.600
    1   AR   Ar    9   0.857   0.897   3.856
    1   AR   Ar   10   0.287   1.837   4.175
    1   AR   Ar   11   2.406   7.071   4.824
    1   AR   Ar   12   1.257   1.107   2.843
    1   AR   Ar   13   6.346   1.772   4.617
    1   AR   Ar   14   0.136   1.425   5.781
    1   AR   Ar   15   6.865   5.609   8.809
    1   AR   Ar   16   0.389   1.099   4.905
    1   AR   Ar   17   0.115   1.877  -0.403
    1   AR   Ar   18   6.826   3.646  -0.085
    1   AR   Ar   19   0.624   1.913   1.096
    1   AR   Ar   20   0.584   2.761  -2.181
    1   AR   Ar   21   6.274   0.720   2.528
    1   AR   Ar   22   0.004   2.218   1.953
    1   AR   Ar   23   0.485   0.998   2.009
    1   AR   Ar   24   0.053   2.933   0.969
    1   AR   Ar   25   0.042   1.113   3.145
    1   AR   Ar   26   6.111   1.493   3.558
    1   AR   Ar   27   2.049   1.111   3.634
    1   AR   Ar   28   0.980   2.588   4.593
    1   AR   Ar   29   6.063   1.749   5.833
    1   AR   Ar   30   7.103   2.623   6.239
    1   AR   Ar   31   0.466   0.816   7.948
    1   AR   Ar   32   1.876   3.050   5.622
    1   AR   Ar   33   1.183   4.145  -1.767
    1   AR   Ar   34   1.087   5.090   1.688
    1   AR   Ar   35   0.854   3.889   1.285
    1   AR   Ar   36   1.677   6.962  -1.788
    1   AR   Ar   37   0.731   2.966   2.070
    1   AR   Ar   38   6.985   4.536   2.202
    1   AR   Ar   39   1.010   4.270   2.267
    1   AR   Ar   40   1.841   4.179   1.612
    1   AR   Ar   41   0.749   2.160   3.044
    1   AR   Ar   42   6.909   5.179   5.378
    1   AR   Ar   43   6.588   2.995   5.233
    1   AR   Ar   44   0.644   3.342   3.367
    1   AR   Ar   45   0.627   3.693   4.797
    1   AR   Ar   46   6.384   5.379   6.851
    1   AR   Ar   47   0.027   3.650   6.943
    1   AR   Ar   48   6.785   6.773   6.244
    1   AR   Ar   49   6.047   5.517  -1.373
    1   AR   Ar   50   6.241   5.542   1.657
    1   AR   Ar   51   1.057   4.468   0.456
    1   AR   Ar   52   0.354   4.778  -0.387
    1   AR   Ar   53   6.464   5.820   2.667
    1   AR   Ar   54   0.425   6.409   3.332
    1   AR   Ar   55   0.149   4.992   3.294
    1   AR   Ar   56   1.327   6.327   1.230
    1   AR   Ar   57   6.767   3.530   3.012
    1   AR   Ar   58   6.999   5.652   4.305
    1   AR   Ar   59   2.192   5.866   5.206
    1   AR   Ar   60   1.337   6.634   3.943
    1   AR   Ar   61   6.286   5.950   5.835
    1   AR   Ar   62   0.288   6.043   5.183
    1   AR   Ar   63   1.094   5.513   5.825
    1   AR   Ar   64   1.588   6.759   5.293
    1   AR   Ar   65   2.923   0.357   0.301
    1   AR   Ar   66   1.752   1.050   1.241
    1   AR   Ar   67   3.048   5.982   0.186
    1   AR   Ar   68   3.180   0.802  -0.984
    1   AR   Ar   69   2.076   6.498  -0.007
    1   AR   Ar   70   1.618   0.001   2.003
    1   AR   Ar   71   2.858   0.758   1.728
    1   AR   Ar   72   3.887   0.388   0.863
    1   AR   Ar   73   1.846   6.786   2.929
    1   AR   Ar   74   1.861   1.021   4.620
    1   AR   Ar   75   3.446   0.355   5.346
    1   AR   Ar   76   2.326   0.543   2.747
    1   AR   Ar   77   2.473   6.784   5.786
    1   AR   Ar   78   1.206   0.512   5.864
    1   AR   Ar   79   4.073   6.545   6.951
    1   AR   Ar   80   3.290   6.150   5.505
    1   AR   Ar   81   1.338   1.273   0.283
    1   AR   Ar   82   0.669   3.511   0.400
    1   AR   Ar   83   2.248   2.252   1.006
    1   AR   Ar   84   2.094   3.965  -3.765
    1   AR   Ar   85   0.935   2.472  -0.145
    1   AR   Ar   86   1.802   2.865   2.446
    1   AR   Ar   87   2.033   1.412   2.181
    1   AR   Ar   88   2.726   3.529   1.326
    1   AR   Ar   89   1.117   1.960   1.999
    1   AR   Ar   90   2.734   2.387   4.768
    1   AR   Ar   91   1.819   2.046   4.195
    1   AR   Ar   92   1.799   2.076   3.197
    1   AR   Ar   93   1.495   1.757   5.361
    1   AR   Ar   94   3.284   0.076   7.455
    1   AR   Ar   95   3.527   7.111   6.293
    1   AR   Ar   96   2.388   0.582   6.479
    1   AR   Ar   97   3.913   2.353  -0.463
    1   AR   Ar   98   2.743   4.722   1.553
    1   AR   Ar   99   4.246   2.836  -1.686
    1   AR   Ar  100   1.530   4.179  -0.468
    1   AR   Ar  101   1.286   2.766   1.188
    1   AR   Ar  102   2.745   3.981   3.591
    1   AR   Ar  103   1.687   3.634   0.635
    1   AR   Ar  104   2.908   3.560  -1.184
    1   AR   Ar  105   1.777   3.330   3.531
    1   AR   Ar  106   2.272   3.216   4.512
    1   AR   Ar  107   2.354   4.009   5.275
    1   AR   Ar  108   3.428   3.032   4.246
    1   AR   Ar  109   1.723   4.165   4.259
    1   AR   Ar  110   1.417   4.394   5.402
    1   AR   Ar  111   4.262   4.331   7.173
    1   AR   Ar  112   1.781   4.754   6.371
    1   AR   Ar  113   2.400   4.525   0.453
    1   AR   Ar  114   2.564   5.742   1.265
    1   AR   Ar  115   2.865   5.058  -0.274
    1   AR   Ar  116   4.149   0.010  -0.080
    1   AR   Ar  117   1.207   4.911   3.131
    1   AR   Ar  118   1.267   6.085   2.381
    1   AR   Ar  119   1.989   4.185   2.793
    1   AR   Ar  120   1.938   5.049   2.271
    1   AR   Ar  121   6.433   4.429   3.828
    1   AR   Ar  122   2.874   6.214   4.407
    1   AR   Ar  123   2.397   5.141   4.268
    1   AR   Ar  124   2.449   5.896   3.317
    1   AR   Ar  125   0.531   4.734   4.939
    1   AR   Ar  126   0.974   6.511   6.156
    1   AR   Ar  127   2.697   5.280   7.399
    1   AR   Ar  128   2.426   5.947   6.316
    1   AR   Ar  129   2.131   0.025   0.924
    1   AR   Ar  130   4.589   0.550  -1.247
    1   AR   Ar  131   4.477   6.684   1.048
    1   AR   Ar  132   6.622   2.395  -1.043
    1   AR   Ar  133   3.426   0.206   2.650
    1   AR   Ar  134   4.061   1.353   2.721
    1   AR   Ar  135   4.460   0.334   2.991
    1   AR   Ar  136   4.175   0.664   1.922
    1   AR   Ar  137   2.796   6.891   3.672
    1   AR   Ar  138   5.052   1.368   5.065
    1   AR   Ar  139   5.317   0.859   4.116
    1   AR   Ar  140   4.358   1.383   4.054
    1   AR   Ar  141   4.446   0.300   4.084
    1   AR   Ar  142   4.662   6.758   5.672
    1   AR   Ar  143   5.750   6.877   5.749
    1   AR   Ar  144   5.296   0.907   6.980
    1   AR   Ar  145   3.383   2.886   0.392
    1   AR   Ar  146   4.194   2.836   1.618
    1   AR   Ar  147   5.295   2.208   0.378
    1   AR   Ar  148   5.964   3.412  -2.178
    1   AR   Ar  149   4.638   1.214   0.752
    1   AR   Ar  150   2.734   1.531   2.953
    1   AR   Ar  151   3.529   1.764   3.548
    1   AR   Ar  152   2.911   2.634   1.768
    1   AR   Ar  153   2.861   0.661   4.244
    1   AR   Ar  154   3.708   1.937   4.657
    1   AR   Ar  155   5.567   0.822   5.747
    1   AR   Ar  156   4.099   3.773   4.021
    1   AR   Ar  157   3.559   1.947   5.757
    1   AR   Ar  158   2.049   1.965   6.246
    1   AR   Ar  159   4.479   0.651   5.932
    1   AR   Ar  160   3.810   3.046   5.938
    1   AR   Ar  161   4.933   3.152   0.443
    1   AR   Ar  162   4.479   5.516  -0.038
    1   AR   Ar  163   5.773   3.290  -0.388
    1   AR   Ar  164   5.055   5.042   1.584
    1   AR   Ar  165   3.362   3.429   2.788
    1   AR   Ar  166   2.774   4.839   2.917
    1   AR   Ar  167   4.772   2.532   2.566
    1   AR   Ar  168   3.887   4.336   0.178
    1   AR   Ar  169   2.595   2.594   3.719
    1   AR   Ar  170   3.048   4.166   4.564
    1   AR   Ar  171   3.911   3.735   5.051
    1   AR   Ar  172   4.207   4.762   4.629
    1   AR   Ar  173   2.784   2.646   6.082
    1   AR   Ar  174   4.262   4.955   5.915
    1   AR   Ar  175   4.535   3.901   5.970
    1   AR   Ar  176   3.316   5.213   4.812
    1   AR   Ar  177   5.570   5.523  -0.551
    1   AR   Ar  178   3.499   6.695   1.557
    1   AR   Ar  179   3.692   5.698   0.958
    1   AR   Ar  180   3.870   4.130  -1.035
    1   AR   Ar  181   3.010   5.703   2.358
    1   AR   Ar  182   2.374   6.450   2.080
    1   AR   Ar  183   3.642   4.428   2.186
    1   AR   Ar  184   4.412   6.182   2.003
    1   AR   Ar  185   1.144   5.539   3.999
    1   AR   Ar  186   3.467   5.582   3.849
    1   AR   Ar  187   4.860   5.264   3.612
    1   AR   Ar  188   3.593   6.273   3.002
    1   AR   Ar  189   2.563   4.844   5.665
    1   AR   Ar  190   4.135   5.983   6.186
    1   AR   Ar  191   5.038   5.698   5.338
    1   AR   Ar  192   4.085   5.912   4.945
    1   AR   Ar  193   6.234   6.480  -0.092
    1   AR   Ar  194   5.472   6.808  -0.960
    1   AR   Ar  195   5.729   1.098   0.308
    1   AR   Ar  196   6.019   0.953  -0.963
    1   AR   Ar  197   5.140   0.251   0.915
    1   AR   Ar  198   5.970   1.302   1.406
    1   AR   Ar  199   5.305   0.113   2.181
    1   AR   Ar  200   6.781   1.424   0.446
    1   AR   Ar  201   4.876   6.445   3.164
    1   AR   Ar  202   5.122   2.058   4.194
    1   AR   Ar  203   0.198   6.952   4.493
    1   AR   Ar  204   5.597   0.362   3.154
    1   AR   Ar  205   6.577   6.957   3.261
    1   AR   Ar  206   5.035   0.354   4.913
    1   AR   Ar  207   0.110   0.303   5.527
    1   AR   Ar  208   6.824   0.919   4.147
    1   AR   Ar  209   6.662   2.635  -2.212
    1   AR   Ar  210   5.033   1.857   1.574
    1   AR   Ar  211   6.498   2.495   0.097
    1   AR   Ar  212   6.317   4.414  -0.639
    1   AR   Ar  213   3.578   2.388   2.481
    1   AR   Ar  214   4.370   3.740   2.213
    1   AR   Ar  215   5.831   2.256   2.111
    1   AR   Ar  216   6.822   3.588   1.797
    1   AR   Ar  217   4.714   2.891   3.748
    1   AR   Ar  218   4.618   2.463   5.354
    1   AR   Ar  219   5.108   1.306   3.191
    1   AR   Ar  220   5.590   3.566   3.334
    1   AR   Ar  221   6.257   0.499   5.003
    1   AR   Ar  222   4.889   1.680   6.049
    1   AR   Ar  223   6.403   0.594   6.351
    1   AR   Ar  224   5.630   2.428   5.025
    1   AR   Ar  225   5.410   4.438  -0.069
    1   AR   Ar  226   4.696   4.712   2.638
    1   AR   Ar  227   7.059   4.513   0.672
    1   AR   Ar  228   6.044   5.618   0.475
    1   AR   Ar  229   6.260   3.876   0.802
    1   AR   Ar  230   3.823   4.568   3.469
    1   AR   Ar  231   6.466   2.442   3.004
    1   AR   Ar  232   5.107   3.869   1.250
    1   AR   Ar  233   6.057   2.576   3.995
    1   AR   Ar  234   6.293   4.082   4.975
    1   AR   Ar  235   6.959   3.530   4.240
    1   AR   Ar  236   4.995   4.323   3.875
    1   AR   Ar  237   5.525   3.378   4.430
    1   AR   Ar  238   5.098   4.114   5.043
    1   AR   Ar  239   6.440   4.564   7.956
    1   AR   Ar  240   6.464   4.263   6.277
    1   AR   Ar  241   6.717   0.531  -0.292
    1   AR   Ar  242   5.386   6.282   1.448
    1   AR   Ar  243   5.707   4.165   2.262
    1   AR   Ar  244   6.801   5.604  -0.341
    1   AR   Ar  245   5.280   5.778   2.340
    1   AR   Ar  246   6.424   6.992   1.820
    1   AR   Ar  247   5.369   2.893   1.482
    1   AR   Ar  248   6.082   0.044   0.811
    1   AR   Ar  249   5.793   5.101   3.085
    1   AR   Ar  250   4.822   6.404   4.477
    1   AR   Ar  251   5.565   4.924   4.634
    1   AR   Ar  252   5.736   6.354   3.750
    1   AR   Ar  253   5.793   4.868   5.682
    1   AR   Ar  254   5.272   6.041   6.518
    1   AR   Ar  255   5.460   4.755   6.926
    1   AR   Ar  256   5.864   6.321   4.869
    7.12000  7.12000 12.00000
Argon-slab step 1420
  256
    1   AR   Ar    1   0.030   1.058  -1.113
    1   AR   Ar    2   7.003   0.563   1.135
    1   AR   Ar    3   7.071   6.808   0.499
    1   AR   Ar    4   0.565   0.678  -0.198
    1   AR   Ar    5   0.039   5.893   1.207
    1   AR   Ar    6   0.433   0.175   2.774
    1   AR   Ar    7   0.334   5.630   2.210
    1   AR   Ar    8   0.429   6.963   1.612
    1   AR   Ar    9   0.868   0.884   3.851
    1   AR   Ar   10   0.315   1.849   4.192
    1   AR   Ar   11   2.434   7.062   4.814
    1   AR   Ar   12   1.261   1.095   2.867
    1   AR   Ar   13   6.365   1.804   4.625
    1   AR   Ar   14   0.139   1.412   5.800
    1   AR   Ar   15   6.890   5.632   8.819
    1   AR   Ar   16   0.397   1.092   4.907
    1   AR   Ar   17   0.131   1.874  -0.402
    1   AR   Ar   18   6.850   3.643  -0.082
    1   AR   Ar   19   0.630   1.932   1.102
    1   AR   Ar   20   0.579   2.782  -2.179
    1   AR   Ar   21   6.272   0.704   2.507
    1   AR   Ar   22   7.117   2.233   1.968
    1   AR   Ar   23   0.478   1.014   2.006
    1   AR   Ar   24   0.064   2.950   0.973
    1   AR   Ar   25   0.020   1.116   3.159
    1   AR   Ar   26   6.107   1.507   3.581
    1   AR   Ar   27   2.026   1.102   3.629
    1   AR   Ar   28   0.983   2.596   4.578
    1   AR   Ar   29   6.053   1.751   5.870
    1   AR   Ar   30   7.098   2.594   6.222
    1   AR   Ar   31   0.469   0.819   7.959
    1   AR   Ar   32   1.846   3.058   5.647
    1   AR   Ar   33   1.183   4.161  -1.759
    1   AR   Ar   34   1.108   5.081   1.666
    1   AR   Ar   35   0.847   3.877   1.241
    1   AR   Ar   36   1.647   6.986  -1.751
    1   AR   Ar   37   0.750   2.997   2.037
    1   AR   Ar   38   6.994   4.529   2.206
    1   AR   Ar   39   0.997   4.306   2.297
    1   AR   Ar   40   1.852   4.176   1.618
    1   AR   Ar   41   0.753   2.173   3.031
    1   AR   Ar   42   6.915   5.207   5.362
    1   AR   Ar   43   6.550   2.987   5.230
    1   AR   Ar   44   0.651   3.317   3.345
    1   AR   Ar   45   0.642   3.726   4.792
    1   AR   Ar   46   6.429   5.374   6.804
    1   AR   Ar   47   0.012   3.624   6.943
    1   AR   Ar   48   6.800   6.742   6.227
    1   AR   Ar   49   6.048   5.528  -1.367
    1   AR   Ar   50   6.247   5.566   1.658
    1   AR   Ar   51   1.048   4.463   0.461
    1   AR   Ar   52   0.361   4.736  -0.405
    1   AR   Ar   53   6.445   5.821   2.665
    1   AR   Ar   54   0.420   6.405   3.354
    1   AR   Ar   55   0.100   4.985   3.276
    1   AR   Ar   56   1.377   6.313   1.218
    1   AR   Ar   57   6.748   3.523   3.003
    1   AR   Ar   58   7.014   5.641   4.285
    1   AR   Ar   59   2.221   5.869   5.189
    1   AR   Ar   60   1.364   6.622   3.933
    1   AR   Ar   61   6.295   5.947   5.858
    1   AR   Ar   62   0.308   6.037   5.192
    1   AR   Ar   63   1.094   5.530   5.792
    1   AR   Ar   64   1.559   6.769   5.284
    1   AR   Ar   65   2.912   0.368   0.315
    1   AR   Ar   66   1.766   1.064   1.220
    1   AR   Ar   67   3.063   5.978   0.166
    1   AR   Ar   68   3.164   0.801  -0.972
    1   AR   Ar   69   2.091   6.483   0.040
    1   AR   Ar   70   1.608   7.097   2.005
    1   AR   Ar   71   2.872   0.735   1.756
    1   AR   Ar   72   3.906   0.394   0.871
    1   AR   Ar   73   1.889   6.772   2.936
    1   AR   Ar   74   1.892   1.015   4.637
    1   AR   Ar   75   3.419   0.357   5.330
    1   AR   Ar   76   2.362   0.558   2.736
    1   AR   Ar   77   2.486   6.791   5.779
    1   AR   Ar   78   1.227   0.509   5.820
    1   AR   Ar   79   4.029   6.557   6.961
    1   AR   Ar   80   3.294   6.155   5.525
    1   AR   Ar   81   1.348   1.275   0.262
    1   AR   Ar   82   0.651   3.507   0.381
    1   AR   Ar   83   2.230   2.238   1.012
    1   AR   Ar   84   2.079   3.948  -3.761
    1   AR   Ar   85   0.928   2.428  -0.166
    1   AR   Ar   86   1.807   2.834   2.413
    1   AR   Ar   87   2.058   1.399   2.181
    1   AR   Ar   88   2.753   3.569   1.358
    1   AR   Ar   89   1.123   1.952   2.049
    1   AR   Ar   90   2.732   2.358   4.792
    1   AR   Ar   91   1.834   2.060   4.165
    1   AR   Ar   92   1.796   2.086   3.211
    1   AR   Ar   93   1.490   1.751   5.330
    1   AR   Ar   94   3.294   0.082   7.441
    1   AR   Ar   95   3.578   7.090   6.272
    1   AR   Ar   96   2.403   0.556   6.489
    1   AR   Ar   97   3.927   2.320  -0.459
    1   AR   Ar   98   2.755   4.733   1.539
    1   AR   Ar   99   4.267   2.817  -1.675
    1   AR   Ar  100   1.489   4.200  -0.456
    1   AR   Ar  101   1.261   2.771   1.207
    1   AR   Ar  102   2.748   4.011   3.618
    1   AR   Ar  103   1.698   3.616   0.645
    1   AR   Ar  104   2.946   3.554  -1.202
    1   AR   Ar  105   1.749   3.333   3.565
    1   AR   Ar  106   2.272   3.212   4.536
    1   AR   Ar  107   2.323   4.006   5.307
    1   AR   Ar  108   3.453   3.018   4.237
    1   AR   Ar  109   1.698   4.148   4.274
    1   AR   Ar  110   1.453   4.398   5.413
    1   AR   Ar  111   4.267   4.368   7.180
    1   AR   Ar  112   1.772   4.789   6.414
    1   AR   Ar  113   2.419   4.513   0.452
    1   AR   Ar  114   2.561   5.766   1.260
    1   AR   Ar  115   2.863   5.051  -0.298
    1   AR   Ar  116   4.169   7.101  -0.038
    1   AR   Ar  117   1.226   4.949   3.128
    1   AR   Ar  118   1.266   6.069   2.359
    1   AR   Ar  119   1.987   4.185   2.792
    1   AR   Ar  120   1.952   5.039   2.284
    1   AR   Ar  121   6.420   4.448   3.801
    1   AR   Ar  122   2.854   6.197   4.409
    1   AR   Ar  123   2.435   5.120   4.259
    1   AR   Ar  124   2.460   5.903   3.316
    1   AR   Ar  125   0.522   4.740   4.934
    1   AR   Ar  126   0.965   6.514   6.171
    1   AR   Ar  127   2.703   5.285   7.392
    1   AR   Ar  128   2.422   5.925   6.353
    1   AR   Ar  129   2.151   0.026   0.917
    1   AR   Ar  130   4.592   0.590  -1.264
    1   AR   Ar  131   4.466   6.713   1.028
    1   AR   Ar  132   6.625   2.404  -1.039
    1   AR   Ar  133   3.431   0.206   2.687
    1   AR   Ar  134   4.062   1.375   2.745
    1   AR   Ar  135   4.479   0.324   3.008
    1   AR   Ar  136   4.167   0.671   1.933
    1   AR   Ar  137   2.782   6.896   3.649
    1   AR   Ar  138   5.032   1.344   5.053
    1   AR   Ar  139   5.290   0.868   4.131
    1   AR   Ar  140   4.381   1.399   4.059
    1   AR   Ar  141   4.472   0.290   4.054
    1   AR   Ar  142   4.684   6.748   5.692
    1   AR   Ar  143   5.748   6.877   5.767
    1   AR   Ar  144   5.305   0.894   6.960
    1   AR   Ar  145   3.397   2.880   0.387
    1   AR   Ar  146   4.200   2.830   1.609
    1   AR   Ar  147   5.273   2.199   0.362
    1   AR   Ar  148   5.910   3.413  -2.201
    1   AR   Ar  149   4.662   1.210   0.736
    1   AR   Ar  150   2.737   1.552   2.967
    1   AR   Ar  151   3.525   1.784   3.533
    1   AR   Ar  152   2.926   2.660   1.784
    1   AR   Ar  153   2.859   0.677   4.242
    1   AR   Ar  154   3.714   1.923   4.661
    1   AR   Ar  155   5.566   0.822   5.772
    1   AR   Ar  156   4.084   3.794   4.034
    1   AR   Ar  157   3.526   1.946   5.750
    1   AR   Ar  158   2.035   1.967   6.268
    1   AR   Ar  159   4.493   0.670   5.942
    1   AR   Ar  160   3.796   3.017   5.992
    1   AR   Ar  161   4.898   3.117   0.452
    1   AR   Ar  162   4.467   5.509  -0.044
    1   AR   Ar  163   5.761   3.295  -0.369
    1   AR   Ar  164   5.021   5.034   1.598
    1   AR   Ar  165   3.382   3.433   2.769
    1   AR   Ar  166   2.792   4.847   2.908
    1   AR   Ar  167   4.789   2.510   2.550
    1   AR   Ar  168   3.887   4.353   0.178
    1   AR   Ar  169   2.602   2.589   3.723
    1   AR   Ar  170   3.062   4.153   4.561
    1   AR   Ar  171   3.944   3.770   5.011
    1   AR   Ar  172   4.215   4.781   4.678
    1   AR   Ar  173   2.769   2.645   6.108
    1   AR   Ar  174   4.257   4.938   5.931
    1   AR   Ar  175   4.536   3.907   5.960
    1   AR   Ar  176   3.311   5.184   4.814
    1   AR   Ar  177   5.558   5.535  -0.530
    1   AR   Ar  178   3.487   6.680   1.555
    1   AR   Ar  179   3.698   5.643   0.923
    1   AR   Ar  180   3.854   4.103  -1.064
    1   AR   Ar  181   3.012   5.719   2.338
    1   AR   Ar  182   2.368   6.445   2.083
    1   AR   Ar  183   3.634   4.430   2.164
    1   AR   Ar  184   4.439   6.186   2.003
    1   AR   Ar  185   1.129   5.504   3.990
    1   AR   Ar  186   3.473   5.552   3.843
    1   AR   Ar  187   4.863   5.279   3.609
    1   AR   Ar  188   3.589   6.293   3.037
    1   AR   Ar  189   2.572   4.844   5.638
    1   AR   Ar  190   4.132   5.971   6.196
    1   AR   Ar  191   5.072   5.717   5.316
    1   AR   Ar  192   4.084   5.903   4.911
    1   AR   Ar  193   6.269   6.463  -0.098
    1   AR   Ar  194   5.478   6.766  -0.981
    1   AR   Ar  195   5.747   1.103   0.307
    1   AR   Ar  196   6.006   0.944  -1.000
    1   AR   Ar  197   5.151   0.277   0.927
    1   AR   Ar  198   5.953   1.311   1.402
    1   AR   Ar  199   5.283   0.116   2.174
    1   AR   Ar  200   6.779   1.397   0.441
    1   AR   Ar  201   4.878   6.448   3.215
    1   AR   Ar  202   5.087   2.042   4.195
    1   AR   Ar  203   0.201   6.964   4.514
    1   AR   Ar  204   5.578   0.349   3.207
    1   AR   Ar  205   6.591   6.986   3.254
    1   AR   Ar  206   5.003   0.336   4.937
    1   AR   Ar  207   0.098   0.299   5.552
    1   AR   Ar  208   6.819   0.935   4.119
    1   AR   Ar  209   6.659   2.626  -2.218
    1   AR   Ar  210   5.049   1.844   1.561
    1   AR   Ar  211   6.495   2.500   0.125
    1   AR   Ar  212   6.281   4.396  -0.661
    1   AR   Ar  213   3.572   2.383   2.518
    1   AR   Ar  214   4.376   3.702   2.239
    1   AR   Ar  215   5.856   2.247   2.115
    1   AR   Ar  216   6.864   3.571   1.795
    1   AR   Ar  217   4.690   2.914   3.723
    1   AR   Ar  218   4.608   2.468   5.356
    1   AR   Ar  219   5.107   1.294   3.195
    1   AR   Ar  220   5.604   3.570   3.323
    1   AR   Ar  221   6.234   0.477   5.000
    1   AR   Ar  222   4.903   1.682   6.039
    1   AR   Ar  223   6.440   0.587   6.348
    1   AR   Ar  224   5.651   2.416   4.997
    1   AR   Ar  225   5.438   4.441  -0.065
    1   AR   Ar  226   4.682   4.709   2.634
    1   AR   Ar  227   7.078   4.496   0.665
    1   AR   Ar  228   6.043   5.580   0.455
    1   AR   Ar  229   6.296   3.863   0.843
    1   AR   Ar  230   3.827   4.578   3.479
    1   AR   Ar  231   6.499   2.423   3.025
    1   AR   Ar  232   5.059   3.856   1.243
    1   AR   Ar  233   6.081   2.594   3.986
    1   AR   Ar  234   6.274   4.054   4.981
    1   AR   Ar  235   7.018   3.526   4.244
    1   AR   Ar  236   4.983   4.318   3.837
    1   AR   Ar  237   5.552   3.327   4.442
    1   AR   Ar  238   5.078   4.122   5.069
    1   AR   Ar  239   6.470   4.567   7.973
    1   AR   Ar  240   6.455   4.264   6.258
    1   AR   Ar  241   6.713   0.505  -0.291
    1   AR   Ar  242   5.411   6.247   1.432
    1   AR   Ar  243   5.686   4.160   2.258
    1   AR   Ar  244   6.820   5.601  -0.342
    1   AR   Ar  245   5.292   5.816   2.335
    1   AR   Ar  246   6.442   7.004   1.805
    1   AR   Ar  247   5.379   2.909   1.470
    1   AR   Ar  248   6.049   0.055   0.803
    1   AR   Ar  249   5.771   5.132   3.037
    1   AR   Ar  250   4.833   6.414   4.471
    1   AR   Ar  251   5.591   4.929   4.631
    1   AR   Ar  252   5.760   6.362   3.758
    1   AR   Ar  253   5.816   4.869   5.676
    1   AR   Ar  254   5.270   6.037   6.490
    1   AR   Ar  255   5.447   4.772   6.927
    1   AR   Ar  256   5.859   6.295   4.838
    7.12000  7.12000 12.00000
Argon-slab step 1425
  256
    1   AR   Ar    1   0.028   1.076  -1.126
    1   AR   Ar    2   6.993   0.566   1.130
    1   AR   Ar    3   7.062   6.786   0.471
    1   AR   Ar    4   0.575   0.667  -0.220
    1   AR   Ar    5   0.053   5.873   1.195
    1   AR   Ar    6   0.413   0.197   2.791
    1   AR   Ar    7   0.326   5.629   2.225
    1   AR   Ar    8   0.396   6.963   1.627
    1   AR   Ar    9   0.879   0.872   3.848
    1   AR   Ar   10   0.341   1.862   4.204
    1   AR   Ar   11   2.463   7.056   4.799
    1   AR   Ar   12   1.263   1.084   2.888
    1   AR   Ar   13   6.390   1.828   4.634
    1   AR   Ar   14   0.138   1.403   5.830
    1   AR   Ar   15   6.915   5.654   8.829
    1   AR   Ar   16   0.411   1.080   4.900
    1   AR   Ar   17   0.143   1.865  -0.400
    1   AR   Ar   18   6.870   3.640  -0.080
    1   AR   Ar   19   0.659   1.946   1.089
    1   AR   Ar   20   0.583   2.798  -2.171
    1   AR   Ar   21   6.274   0.691   2.483
    1   AR   Ar   22   7.107   2.246   1.983
    1   AR   Ar   23   0.470   1.031   2.003
    1   AR   Ar   24   0.071   2.962   0.982
    1   AR   Ar   25   7.118   1.121   3.167
    1   AR   Ar   26   6.101   1.522   3.603
    1   AR   Ar   27   2.012   1.087   3.625
    1   AR   Ar   28   0.988   2.608   4.564
    1   AR   Ar   29   6.045   1.755   5.905
    1   AR   Ar   30   7.091   2.565   6.204
    1   AR   Ar   31   0.473   0.821   7.969
    1   AR   Ar   32   1.816   3.066   5.670
    1   AR   Ar   33   1.183   4.176  -1.750
    1   AR   Ar   34   1.128   5.077   1.635
    1   AR   Ar   35   0.839   3.867   1.225
    1   AR   Ar   36   1.618   7.010  -1.714
    1   AR   Ar   37   0.766   3.034   2.013
    1   AR   Ar   38   7.003   4.525   2.212
    1   AR   Ar   39   0.983   4.348   2.339
    1   AR   Ar   40   1.853   4.181   1.620
    1   AR   Ar   41   0.753   2.186   3.019
    1   AR   Ar   42   6.902   5.233   5.356
    1   AR   Ar   43   6.506   2.979   5.228
    1   AR   Ar   44   0.658   3.290   3.324
    1   AR   Ar   45   0.678   3.760   4.800
    1   AR   Ar   46   6.474   5.368   6.755
    1   AR   Ar   47   7.116   3.598   6.941
    1   AR   Ar   48   6.819   6.709   6.213
    1   AR   Ar   49   6.058   5.540  -1.374
    1   AR   Ar   50   6.251   5.587   1.657
    1   AR   Ar   51   1.042   4.470   0.463
    1   AR   Ar   52   0.368   4.692  -0.422
    1   AR   Ar   53   6.430   5.828   2.664
    1   AR   Ar   54   0.416   6.398   3.378
    1   AR   Ar   55   0.051   4.979   3.256
    1   AR   Ar   56   1.428   6.300   1.207
    1   AR   Ar   57   6.728   3.517   2.995
    1   AR   Ar   58   7.029   5.630   4.263
    1   AR   Ar   59   2.248   5.870   5.174
    1   AR   Ar   60   1.391   6.610   3.924
    1   AR   Ar   61   6.299   5.937   5.878
    1   AR   Ar   62   0.330   6.027   5.196
    1   AR   Ar   63   1.098   5.546   5.765
    1   AR   Ar   64   1.523   6.776   5.272
    1   AR   Ar   65   2.905   0.380   0.325
    1   AR   Ar   66   1.780   1.077   1.201
    1   AR   Ar   67   3.077   5.978   0.145
    1   AR   Ar   68   3.149   0.799  -0.960
    1   AR   Ar   69   2.106   6.469   0.088
    1   AR   Ar   70   1.589   7.083   2.001
    1   AR   Ar   71   2.887   0.710   1.784
    1   AR   Ar   72   3.922   0.411   0.881
    1   AR   Ar   73   1.928   6.755   2.954
    1   AR   Ar   74   1.921   1.006   4.661
    1   AR   Ar   75   3.390   0.360   5.308
    1   AR   Ar   76   2.400   0.571   2.726
    1   AR   Ar   77   2.504   6.790   5.779
    1   AR   Ar   78   1.247   0.508   5.775
    1   AR   Ar   79   3.992   6.571   6.991
    1   AR   Ar   80   3.287   6.169   5.555
    1   AR   Ar   81   1.358   1.279   0.239
    1   AR   Ar   82   0.635   3.494   0.341
    1   AR   Ar   83   2.210   2.222   1.019
    1   AR   Ar   84   2.064   3.931  -3.757
    1   AR   Ar   85   0.929   2.389  -0.183
    1   AR   Ar   86   1.811   2.803   2.379
    1   AR   Ar   87   2.082   1.390   2.178
    1   AR   Ar   88   2.779   3.615   1.387
    1   AR   Ar   89   1.130   1.943   2.099
    1   AR   Ar   90   2.733   2.321   4.820
    1   AR   Ar   91   1.846   2.071   4.157
    1   AR   Ar   92   1.793   2.096   3.204
    1   AR   Ar   93   1.482   1.747   5.299
    1   AR   Ar   94   3.303   0.088   7.426
    1   AR   Ar   95   3.624   7.074   6.245
    1   AR   Ar   96   2.419   0.529   6.498
    1   AR   Ar   97   3.941   2.287  -0.455
    1   AR   Ar   98   2.771   4.734   1.535
    1   AR   Ar   99   4.287   2.797  -1.664
    1   AR   Ar  100   1.448   4.220  -0.445
    1   AR   Ar  101   1.242   2.777   1.218
    1   AR   Ar  102   2.747   4.038   3.638
    1   AR   Ar  103   1.713   3.597   0.655
    1   AR   Ar  104   2.981   3.547  -1.220
    1   AR   Ar  105   1.723   3.332   3.596
    1   AR   Ar  106   2.268   3.215   4.559
    1   AR   Ar  107   2.300   3.970   5.329
    1   AR   Ar  108   3.449   3.011   4.209
    1   AR   Ar  109   1.675   4.133   4.291
    1   AR   Ar  110   1.474   4.410   5.424
    1   AR   Ar  111   4.274   4.406   7.184
    1   AR   Ar  112   1.763   4.825   6.455
    1   AR   Ar  113   2.433   4.497   0.457
    1   AR   Ar  114   2.557   5.791   1.253
    1   AR   Ar  115   2.863   5.045  -0.327
    1   AR   Ar  116   4.190   7.069   0.001
    1   AR   Ar  117   1.246   4.987   3.121
    1   AR   Ar  118   1.269   6.055   2.337
    1   AR   Ar  119   1.982   4.173   2.797
    1   AR   Ar  120   1.968   5.041   2.293
    1   AR   Ar  121   6.423   4.487   3.796
    1   AR   Ar  122   2.837   6.176   4.412
    1   AR   Ar  123   2.471   5.098   4.248
    1   AR   Ar  124   2.471   5.908   3.315
    1   AR   Ar  125   0.525   4.743   4.921
    1   AR   Ar  126   0.954   6.520   6.185
    1   AR   Ar  127   2.709   5.291   7.383
    1   AR   Ar  128   2.418   5.899   6.390
    1   AR   Ar  129   2.167   0.025   0.917
    1   AR   Ar  130   4.597   0.630  -1.280
    1   AR   Ar  131   4.451   6.722   1.011
    1   AR   Ar  132   6.625   2.416  -1.037
    1   AR   Ar  133   3.434   0.207   2.723
    1   AR   Ar  134   4.068   1.398   2.767
    1   AR   Ar  135   4.498   0.317   3.021
    1   AR   Ar  136   4.160   0.675   1.942
    1   AR   Ar  137   2.767   6.904   3.620
    1   AR   Ar  138   5.011   1.330   5.038
    1   AR   Ar  139   5.278   0.883   4.142
    1   AR   Ar  140   4.392   1.402   4.059
    1   AR   Ar  141   4.490   0.274   4.022
    1   AR   Ar  142   4.704   6.735   5.711
    1   AR   Ar  143   5.748   6.877   5.786
    1   AR   Ar  144   5.315   0.880   6.937
    1   AR   Ar  145   3.411   2.874   0.384
    1   AR   Ar  146   4.205   2.822   1.599
    1   AR   Ar  147   5.255   2.180   0.347
    1   AR   Ar  148   5.855   3.415  -2.224
    1   AR   Ar  149   4.698   1.206   0.710
    1   AR   Ar  150   2.737   1.573   2.977
    1   AR   Ar  151   3.524   1.810   3.528
    1   AR   Ar  152   2.939   2.683   1.798
    1   AR   Ar  153   2.861   0.699   4.237
    1   AR   Ar  154   3.721   1.912   4.666
    1   AR   Ar  155   5.564   0.820   5.801
    1   AR   Ar  156   4.096   3.801   4.020
    1   AR   Ar  157   3.502   1.951   5.753
    1   AR   Ar  158   1.999   1.967   6.314
    1   AR   Ar  159   4.506   0.690   5.950
    1   AR   Ar  160   3.783   2.989   6.043
    1   AR   Ar  161   4.860   3.091   0.462
    1   AR   Ar  162   4.455   5.501  -0.049
    1   AR   Ar  163   5.751   3.300  -0.348
    1   AR   Ar  164   4.986   5.027   1.612
    1   AR   Ar  165   3.359   3.448   2.776
    1   AR   Ar  166   2.815   4.856   2.903
    1   AR   Ar  167   4.806   2.488   2.534
    1   AR   Ar  168   3.886   4.370   0.177
    1   AR   Ar  169   2.605   2.591   3.694
    1   AR   Ar  170   3.078   4.141   4.562
    1   AR   Ar  171   3.977   3.802   4.984
    1   AR   Ar  172   4.203   4.782   4.670
    1   AR   Ar  173   2.758   2.648   6.133
    1   AR   Ar  174   4.250   4.921   5.945
    1   AR   Ar  175   4.537   3.912   5.952
    1   AR   Ar  176   3.304   5.177   4.819
    1   AR   Ar  177   5.538   5.574  -0.479
    1   AR   Ar  178   3.474   6.665   1.554
    1   AR   Ar  179   3.703   5.599   0.904
    1   AR   Ar  180   3.840   4.077  -1.092
    1   AR   Ar  181   3.019   5.729   2.317
    1   AR   Ar  182   2.375   6.436   2.086
    1   AR   Ar  183   3.622   4.435   2.143
    1   AR   Ar  184   4.456   6.196   2.000
    1   AR   Ar  185   1.114   5.471   3.986
    1   AR   Ar  186   3.481   5.520   3.835
    1   AR   Ar  187   4.873   5.283   3.604
    1   AR   Ar  188   3.586   6.314   3.072
    1   AR   Ar  189   2.588   4.871   5.620
    1   AR   Ar  190   4.124   5.921   6.185
    1   AR   Ar  191   5.106   5.734   5.297
    1   AR   Ar  192   4.082   5.891   4.878
    1   AR   Ar  193   6.298   6.451  -0.106
    1   AR   Ar  194   5.485   6.723  -1.001
    1   AR   Ar  195   5.764   1.107   0.306
    1   AR   Ar  196   5.993   0.935  -1.037
    1   AR   Ar  197   5.146   0.318   0.943
    1   AR   Ar  198   5.951   1.327   1.405
    1   AR   Ar  199   5.261   0.117   2.167
    1   AR   Ar  200   6.779   1.369   0.438
    1   AR   Ar  201   4.876   6.418   3.233
    1   AR   Ar  202   5.067   2.034   4.197
    1   AR   Ar  203   0.235   6.976   4.538
    1   AR   Ar  204   5.558   0.331   3.263
    1   AR   Ar  205   6.604   7.015   3.248
    1   AR   Ar  206   4.973   0.306   4.970
    1   AR   Ar  207   0.087   0.295   5.574
    1   AR   Ar  208   6.813   0.945   4.096
    1   AR   Ar  209   6.653   2.615  -2.222
    1   AR   Ar  210   5.059   1.832   1.548
    1   AR   Ar  211   6.491   2.505   0.153
    1   AR   Ar  212   6.250   4.380  -0.685
    1   AR   Ar  213   3.570   2.375   2.560
    1   AR   Ar  214   4.387   3.661   2.266
    1   AR   Ar  215   5.886   2.236   2.124
    1   AR   Ar  216   6.906   3.552   1.792
    1   AR   Ar  217   4.684   2.905   3.710
    1   AR   Ar  218   4.596   2.474   5.356
    1   AR   Ar  219   5.103   1.286   3.195
    1   AR   Ar  220   5.620   3.588   3.318
    1   AR   Ar  221   6.211   0.454   4.996
    1   AR   Ar  222   4.918   1.686   6.032
    1   AR   Ar  223   6.476   0.584   6.344
    1   AR   Ar  224   5.667   2.406   4.977
    1   AR   Ar  225   5.462   4.446  -0.058
    1   AR   Ar  226   4.670   4.706   2.631
    1   AR   Ar  227   7.102   4.481   0.657
    1   AR   Ar  228   6.043   5.540   0.438
    1   AR   Ar  229   6.288   3.872   0.846
    1   AR   Ar  230   3.829   4.596   3.482
    1   AR   Ar  231   6.535   2.404   3.045
    1   AR   Ar  232   5.010   3.850   1.238
    1   AR   Ar  233   6.107   2.610   3.973
    1   AR   Ar  234   6.254   4.027   4.987
    1   AR   Ar  235   7.056   3.516   4.234
    1   AR   Ar  236   4.973   4.304   3.803
    1   AR   Ar  237   5.569   3.290   4.453
    1   AR   Ar  238   5.057   4.129   5.093
    1   AR   Ar  239   6.501   4.571   7.989
    1   AR   Ar  240   6.449   4.265   6.241
    1   AR   Ar  241   6.697   0.476  -0.287
    1   AR   Ar  242   5.437   6.217   1.408
    1   AR   Ar  243   5.664   4.157   2.255
    1   AR   Ar  244   6.838   5.596  -0.344
    1   AR   Ar  245   5.314   5.847   2.341
    1   AR   Ar  246   6.460   7.015   1.792
    1   AR   Ar  247   5.387   2.923   1.456
    1   AR   Ar  248   6.043   0.059   0.790
    1   AR   Ar  249   5.747   5.157   2.992
    1   AR   Ar  250   4.849   6.429   4.460
    1   AR   Ar  251   5.617   4.937   4.623
    1   AR   Ar  252   5.787   6.369   3.766
    1   AR   Ar  253   5.837   4.873   5.669
    1   AR   Ar  254   5.267   6.031   6.460
    1   AR   Ar  255   5.434   4.790   6.925
    1   AR   Ar  256   5.855   6.270   4.808
    7.12000  7.12000 12.00000
Argon-slab step 1430
  256
    1   AR   Ar    1   0.025   1.093  -1.139
    1   AR   Ar    2   6.979   0.574   1.123
    1   AR   Ar    3   7.060   6.767   0.448
    1   AR   Ar    4   0.589   0.657  -0.241
    1   AR   Ar    5   0.069   5.855   1.181
    1   AR   Ar    6   0.395   0.219   2.805
    1   AR   Ar    7   0.314   5.626   2.242
    1   AR   Ar    8   0.368   6.957   1.646
    1   AR   Ar    9   0.888   0.859   3.849
    1   AR   Ar   10   0.339   1.867   4.211
    1   AR   Ar   11   2.487   7.052   4.780
    1   AR   Ar   12   1.263   1.074   2.903
    1   AR   Ar   13   6.424   1.844   4.642
    1   AR   Ar   14   0.133   1.396   5.866
    1   AR   Ar   15   6.940   5.676   8.839
    1   AR   Ar   16   0.429   1.064   4.889
    1   AR   Ar   17   0.144   1.845  -0.398
    1   AR   Ar   18   6.880   3.638  -0.083
    1   AR   Ar   19   0.685   1.955   1.074
    1   AR   Ar   20   0.610   2.795  -2.147
    1   AR   Ar   21   6.275   0.681   2.461
    1   AR   Ar   22   7.098   2.259   1.999
    1   AR   Ar   23   0.462   1.048   2.001
    1   AR   Ar   24   0.076   2.967   0.993
    1   AR   Ar   25   7.100   1.131   3.165
    1   AR   Ar   26   6.093   1.538   3.623
    1   AR   Ar   27   2.005   1.070   3.624
    1   AR   Ar   28   0.994   2.623   4.551
    1   AR   Ar   29   6.040   1.762   5.938
    1   AR   Ar   30   7.084   2.536   6.184
    1   AR   Ar   31   0.449   0.843   7.977
    1   AR   Ar   32   1.785   3.071   5.692
    1   AR   Ar   33   1.182   4.191  -1.740
    1   AR   Ar   34   1.146   5.078   1.599
    1   AR   Ar   35   0.828   3.855   1.231
    1   AR   Ar   36   1.589   7.034  -1.676
    1   AR   Ar   37   0.772   3.076   2.004
    1   AR   Ar   38   7.012   4.524   2.219
    1   AR   Ar   39   0.982   4.339   2.356
    1   AR   Ar   40   1.825   4.223   1.603
    1   AR   Ar   41   0.747   2.200   3.012
    1   AR   Ar   42   6.873   5.251   5.356
    1   AR   Ar   43   6.464   2.972   5.226
    1   AR   Ar   44   0.665   3.263   3.303
    1   AR   Ar   45   0.730   3.788   4.818
    1   AR   Ar   46   6.518   5.360   6.708
    1   AR   Ar   47   7.100   3.572   6.939
    1   AR   Ar   48   6.844   6.679   6.205
    1   AR   Ar   49   6.071   5.552  -1.383
    1   AR   Ar   50   6.254   5.606   1.655
    1   AR   Ar   51   1.039   4.487   0.463
    1   AR   Ar   52   0.374   4.646  -0.437
    1   AR   Ar   53   6.421   5.841   2.665
    1   AR   Ar   54   0.412   6.388   3.402
    1   AR   Ar   55   0.006   4.976   3.233
    1   AR   Ar   56   1.479   6.286   1.198
    1   AR   Ar   57   6.691   3.531   2.996
    1   AR   Ar   58   7.044   5.618   4.239
    1   AR   Ar   59   2.271   5.868   5.165
    1   AR   Ar   60   1.418   6.598   3.916
    1   AR   Ar   61   6.294   5.920   5.890
    1   AR   Ar   62   0.358   6.031   5.198
    1   AR   Ar   63   1.113   5.563   5.772
    1   AR   Ar   64   1.486   6.776   5.256
    1   AR   Ar   65   2.904   0.393   0.332
    1   AR   Ar   66   1.794   1.089   1.182
    1   AR   Ar   67   3.091   5.982   0.126
    1   AR   Ar   68   3.134   0.797  -0.946
    1   AR   Ar   69   2.115   6.466   0.114
    1   AR   Ar   70   1.576   7.074   1.991
    1   AR   Ar   71   2.903   0.684   1.810
    1   AR   Ar   72   3.928   0.440   0.895
    1   AR   Ar   73   1.963   6.739   2.978
    1   AR   Ar   74   1.949   0.996   4.687
    1   AR   Ar   75   3.360   0.363   5.283
    1   AR   Ar   76   2.437   0.580   2.720
    1   AR   Ar   77   2.506   6.772   5.804
    1   AR   Ar   78   1.265   0.511   5.732
    1   AR   Ar   79   3.964   6.576   7.033
    1   AR   Ar   80   3.281   6.181   5.582
    1   AR   Ar   81   1.366   1.285   0.217
    1   AR   Ar   82   0.630   3.477   0.288
    1   AR   Ar   83   2.190   2.207   1.027
    1   AR   Ar   84   2.072   3.922  -3.783
    1   AR   Ar   85   0.942   2.359  -0.194
    1   AR   Ar   86   1.816   2.774   2.344
    1   AR   Ar   87   2.104   1.386   2.174
    1   AR   Ar   88   2.804   3.666   1.413
    1   AR   Ar   89   1.140   1.933   2.144
    1   AR   Ar   90   2.727   2.307   4.831
    1   AR   Ar   91   1.857   2.079   4.173
    1   AR   Ar   92   1.789   2.104   3.175
    1   AR   Ar   93   1.474   1.745   5.267
    1   AR   Ar   94   3.309   0.098   7.411
    1   AR   Ar   95   3.665   7.062   6.209
    1   AR   Ar   96   2.436   0.501   6.506
    1   AR   Ar   97   3.955   2.255  -0.450
    1   AR   Ar   98   2.784   4.739   1.534
    1   AR   Ar   99   4.308   2.779  -1.651
    1   AR   Ar  100   1.410   4.239  -0.439
    1   AR   Ar  101   1.233   2.783   1.217
    1   AR   Ar  102   2.745   4.058   3.632
    1   AR   Ar  103   1.731   3.579   0.664
    1   AR   Ar  104   3.011   3.537  -1.238
    1   AR   Ar  105   1.698   3.329   3.625
    1   AR   Ar  106   2.262   3.222   4.580
    1   AR   Ar  107   2.296   3.913   5.343
    1   AR   Ar  108   3.443   3.002   4.184
    1   AR   Ar  109   1.652   4.121   4.311
    1   AR   Ar  110   1.472   4.434   5.437
    1   AR   Ar  111   4.281   4.444   7.187
    1   AR   Ar  112   1.756   4.862   6.495
    1   AR   Ar  113   2.445   4.479   0.467
    1   AR   Ar  114   2.554   5.815   1.245
    1   AR   Ar  115   2.866   5.038  -0.359
    1   AR   Ar  116   4.211   7.036   0.036
    1   AR   Ar  117   1.255   5.019   3.113
    1   AR   Ar  118   1.276   6.041   2.316
    1   AR   Ar  119   1.977   4.151   2.805
    1   AR   Ar  120   1.984   5.054   2.297
    1   AR   Ar  121   6.423   4.524   3.793
    1   AR   Ar  122   2.826   6.152   4.410
    1   AR   Ar  123   2.491   5.104   4.259
    1   AR   Ar  124   2.484   5.909   3.314
    1   AR   Ar  125   0.535   4.752   4.903
    1   AR   Ar  126   0.942   6.529   6.198
    1   AR   Ar  127   2.715   5.297   7.372
    1   AR   Ar  128   2.414   5.870   6.426
    1   AR   Ar  129   2.178   0.022   0.926
    1   AR   Ar  130   4.601   0.670  -1.294
    1   AR   Ar  131   4.438   6.711   0.997
    1   AR   Ar  132   6.623   2.429  -1.037
    1   AR   Ar  133   3.436   0.209   2.758
    1   AR   Ar  134   4.088   1.429   2.785
    1   AR   Ar  135   4.517   0.312   3.023
    1   AR   Ar  136   4.152   0.678   1.945
    1   AR   Ar  137   2.754   6.916   3.591
    1   AR   Ar  138   4.988   1.325   5.025
    1   AR   Ar  139   5.281   0.901   4.153
    1   AR   Ar  140   4.383   1.385   4.052
    1   AR   Ar  141   4.501   0.252   3.995
    1   AR   Ar  142   4.720   6.720   5.730
    1   AR   Ar  143   5.750   6.878   5.804
    1   AR   Ar  144   5.324   0.867   6.910
    1   AR   Ar  145   3.426   2.870   0.382
    1   AR   Ar  146   4.211   2.814   1.588
    1   AR   Ar  147   5.243   2.152   0.333
    1   AR   Ar  148   5.800   3.416  -2.246
    1   AR   Ar  149   4.711   1.215   0.699
    1   AR   Ar  150   2.733   1.594   2.983
    1   AR   Ar  151   3.532   1.814   3.532
    1   AR   Ar  152   2.949   2.702   1.812
    1   AR   Ar  153   2.867   0.725   4.228
    1   AR   Ar  154   3.727   1.903   4.673
    1   AR   Ar  155   5.561   0.815   5.830
    1   AR   Ar  156   4.110   3.803   3.998
    1   AR   Ar  157   3.504   1.979   5.793
    1   AR   Ar  158   1.959   1.964   6.360
    1   AR   Ar  159   4.516   0.707   5.958
    1   AR   Ar  160   3.773   2.962   6.093
    1   AR   Ar  161   4.818   3.073   0.472
    1   AR   Ar  162   4.442   5.493  -0.052
    1   AR   Ar  163   5.742   3.306  -0.325
    1   AR   Ar  164   4.969   5.034   1.618
    1   AR   Ar  165   3.324   3.466   2.791
    1   AR   Ar  166   2.842   4.864   2.901
    1   AR   Ar  167   4.822   2.467   2.518
    1   AR   Ar  168   3.885   4.388   0.177
    1   AR   Ar  169   2.613   2.595   3.661
    1   AR   Ar  170   3.096   4.131   4.571
    1   AR   Ar  171   4.010   3.830   4.975
    1   AR   Ar  172   4.202   4.780   4.659
    1   AR   Ar  173   2.749   2.655   6.155
    1   AR   Ar  174   4.252   4.911   5.934
    1   AR   Ar  175   4.535   3.911   5.949
    1   AR   Ar  176   3.292   5.179   4.830
    1   AR   Ar  177   5.514   5.613  -0.426
    1   AR   Ar  178   3.459   6.650   1.554
    1   AR   Ar  179   3.692   5.600   0.932
    1   AR   Ar  180   3.832   4.055  -1.117
    1   AR   Ar  181   3.034   5.731   2.297
    1   AR   Ar  182   2.384   6.431   2.090
    1   AR   Ar  183   3.610   4.440   2.124
    1   AR   Ar  184   4.463   6.210   1.994
    1   AR   Ar  185   1.096   5.444   3.990
    1   AR   Ar  186   3.488   5.491   3.825
    1   AR   Ar  187   4.886   5.281   3.598
    1   AR   Ar  188   3.583   6.335   3.108
    1   AR   Ar  189   2.607   4.911   5.604
    1   AR   Ar  190   4.117   5.872   6.171
    1   AR   Ar  191   5.138   5.749   5.282
    1   AR   Ar  192   4.128   5.886   4.895
    1   AR   Ar  193   6.320   6.441  -0.118
    1   AR   Ar  194   5.493   6.680  -1.020
    1   AR   Ar  195   5.779   1.110   0.306
    1   AR   Ar  196   5.980   0.926  -1.072
    1   AR   Ar  197   5.126   0.368   0.965
    1   AR   Ar  198   5.971   1.356   1.418
    1   AR   Ar  199   5.238   0.117   2.158
    1   AR   Ar  200   6.781   1.343   0.435
    1   AR   Ar  201   4.872   6.388   3.249
    1   AR   Ar  202   5.067   2.043   4.200
    1   AR   Ar  203   0.270   6.988   4.561
    1   AR   Ar  204   5.539   0.308   3.320
    1   AR   Ar  205   6.615   7.044   3.242
    1   AR   Ar  206   5.008   0.310   4.937
    1   AR   Ar  207   0.079   0.294   5.593
    1   AR   Ar  208   6.806   0.950   4.084
    1   AR   Ar  209   6.644   2.604  -2.226
    1   AR   Ar  210   5.064   1.823   1.535
    1   AR   Ar  211   6.487   2.511   0.182
    1   AR   Ar  212   6.226   4.364  -0.713
    1   AR   Ar  213   3.572   2.365   2.605
    1   AR   Ar  214   4.401   3.620   2.294
    1   AR   Ar  215   5.918   2.224   2.135
    1   AR   Ar  216   6.947   3.532   1.792
    1   AR   Ar  217   4.690   2.876   3.706
    1   AR   Ar  218   4.582   2.480   5.353
    1   AR   Ar  219   5.096   1.282   3.192
    1   AR   Ar  220   5.638   3.604   3.312
    1   AR   Ar  221   6.188   0.431   4.991
    1   AR   Ar  222   4.933   1.691   6.029
    1   AR   Ar  223   6.511   0.585   6.340
    1   AR   Ar  224   5.673   2.396   4.965
    1   AR   Ar  225   5.481   4.450  -0.044
    1   AR   Ar  226   4.658   4.703   2.629
    1   AR   Ar  227   0.009   4.469   0.649
    1   AR   Ar  228   6.044   5.499   0.427
    1   AR   Ar  229   6.275   3.878   0.850
    1   AR   Ar  230   3.829   4.618   3.480
    1   AR   Ar  231   6.573   2.383   3.060
    1   AR   Ar  232   4.959   3.850   1.233
    1   AR   Ar  233   6.136   2.623   3.957
    1   AR   Ar  234   6.234   4.002   4.993
    1   AR   Ar  235   7.079   3.502   4.212
    1   AR   Ar  236   4.968   4.286   3.771
    1   AR   Ar  237   5.554   3.294   4.451
    1   AR   Ar  238   5.039   4.137   5.112
    1   AR   Ar  239   6.532   4.576   8.005
    1   AR   Ar  240   6.444   4.264   6.226
    1   AR   Ar  241   6.683   0.460  -0.294
    1   AR   Ar  242   5.462   6.192   1.376
    1   AR   Ar  243   5.642   4.153   2.252
    1   AR   Ar  244   6.856   5.586  -0.347
    1   AR   Ar  245   5.345   5.873   2.357
    1   AR   Ar  246   6.474   7.021   1.780
    1   AR   Ar  247   5.360   2.916   1.463
    1   AR   Ar  248   6.060   0.058   0.772
    1   AR   Ar  249   5.737   5.150   2.991
    1   AR   Ar  250   4.868   6.447   4.446
    1   AR   Ar  251   5.644   4.946   4.612
    1   AR   Ar  252   5.817   6.376   3.770
    1   AR   Ar  253   5.856   4.881   5.662
    1   AR   Ar  254   5.265   6.026   6.427
    1   AR   Ar  255   5.422   4.808   6.921
    1   AR   Ar  256   5.857   6.246   4.782
    7.12000  7.12000 12.00000
Argon-slab step 1435
  256
    1   AR   Ar    1   0.021   1.108  -1.153
    1   AR   Ar    2   6.965   0.584   1.115
    1   AR   Ar    3   7.065   6.752   0.433
    1   AR   Ar    4   0.605   0.648  -0.261
    1   AR   Ar    5   0.086   5.838   1.165
    1   AR   Ar    6   0.383   0.242   2.816
    1   AR   Ar    7   0.300   5.620   2.259
    1   AR   Ar    8   0.350   6.948   1.666
    1   AR   Ar    9   0.882   0.853   3.853
    1   AR   Ar   10   0.298   1.860   4.214
    1   AR   Ar   11   2.507   7.048   4.762
    1   AR   Ar   12   1.261   1.065   2.910
    1   AR   Ar   13   6.467   1.852   4.648
    1   AR   Ar   14   0.127   1.389   5.903
    1   AR   Ar   15   6.964   5.698   8.848
    1   AR   Ar   16   0.449   1.045   4.878
    1   AR   Ar   17   0.133   1.818  -0.397
    1   AR   Ar   18   6.872   3.639  -0.092
    1   AR   Ar   19   0.705   1.957   1.058
    1   AR   Ar   20   0.563   2.796  -2.174
    1   AR   Ar   21   6.276   0.672   2.441
    1   AR   Ar   22   7.091   2.273   2.014
    1   AR   Ar   23   0.454   1.065   1.999
    1   AR   Ar   24   0.081   2.966   1.002
    1   AR   Ar   25   7.086   1.146   3.151
    1   AR   Ar   26   6.080   1.557   3.640
    1   AR   Ar   27   2.001   1.053   3.623
    1   AR   Ar   28   1.003   2.642   4.540
    1   AR   Ar   29   6.036   1.769   5.969
    1   AR   Ar   30   7.076   2.506   6.164
    1   AR   Ar   31   0.440   0.833   7.962
    1   AR   Ar   32   1.753   3.073   5.714
    1   AR   Ar   33   1.182   4.206  -1.729
    1   AR   Ar   34   1.163   5.082   1.561
    1   AR   Ar   35   0.815   3.842   1.248
    1   AR   Ar   36   1.560   7.058  -1.639
    1   AR   Ar   37   0.770   3.122   2.013
    1   AR   Ar   38   7.021   4.525   2.226
    1   AR   Ar   39   0.983   4.313   2.364
    1   AR   Ar   40   1.814   4.221   1.616
    1   AR   Ar   41   0.733   2.216   3.014
    1   AR   Ar   42   6.836   5.261   5.357
    1   AR   Ar   43   6.428   2.966   5.224
    1   AR   Ar   44   0.669   3.237   3.280
    1   AR   Ar   45   0.790   3.806   4.838
    1   AR   Ar   46   6.562   5.346   6.664
    1   AR   Ar   47   7.082   3.546   6.935
    1   AR   Ar   48   6.873   6.651   6.203
    1   AR   Ar   49   6.085   5.564  -1.392
    1   AR   Ar   50   6.260   5.619   1.653
    1   AR   Ar   51   1.039   4.510   0.466
    1   AR   Ar   52   0.371   4.632  -0.436
    1   AR   Ar   53   6.416   5.859   2.668
    1   AR   Ar   54   0.408   6.376   3.427
    1   AR   Ar   55   7.088   4.979   3.205
    1   AR   Ar   56   1.531   6.271   1.190
    1   AR   Ar   57   6.652   3.550   3.001
    1   AR   Ar   58   7.059   5.605   4.215
    1   AR   Ar   59   2.286   5.864   5.167
    1   AR   Ar   60   1.446   6.586   3.909
    1   AR   Ar   61   6.277   5.901   5.895
    1   AR   Ar   62   0.390   6.044   5.197
    1   AR   Ar   63   1.131   5.576   5.778
    1   AR   Ar   64   1.452   6.768   5.236
    1   AR   Ar   65   2.910   0.408   0.334
    1   AR   Ar   66   1.809   1.101   1.165
    1   AR   Ar   67   3.105   5.987   0.107
    1   AR   Ar   68   3.120   0.795  -0.931
    1   AR   Ar   69   2.116   6.483   0.106
    1   AR   Ar   70   1.567   7.068   1.978
    1   AR   Ar   71   2.922   0.656   1.831
    1   AR   Ar   72   3.927   0.479   0.910
    1   AR   Ar   73   1.987   6.726   2.999
    1   AR   Ar   74   1.974   0.985   4.716
    1   AR   Ar   75   3.329   0.367   5.256
    1   AR   Ar   76   2.470   0.583   2.721
    1   AR   Ar   77   2.502   6.760   5.832
    1   AR   Ar   78   1.281   0.523   5.692
    1   AR   Ar   79   3.946   6.570   7.078
    1   AR   Ar   80   3.280   6.188   5.606
    1   AR   Ar   81   1.373   1.294   0.193
    1   AR   Ar   82   0.645   3.457   0.235
    1   AR   Ar   83   2.168   2.191   1.037
    1   AR   Ar   84   2.086   3.914  -3.818
    1   AR   Ar   85   0.967   2.337  -0.199
    1   AR   Ar   86   1.821   2.746   2.307
    1   AR   Ar   87   2.121   1.386   2.166
    1   AR   Ar   88   2.828   3.719   1.438
    1   AR   Ar   89   1.152   1.921   2.178
    1   AR   Ar   90   2.700   2.317   4.825
    1   AR   Ar   91   1.866   2.084   4.200
    1   AR   Ar   92   1.783   2.109   3.137
    1   AR   Ar   93   1.458   1.767   5.271
    1   AR   Ar   94   3.306   0.114   7.399
    1   AR   Ar   95   3.704   7.054   6.168
    1   AR   Ar   96   2.453   0.473   6.514
    1   AR   Ar   97   3.952   2.253  -0.449
    1   AR   Ar   98   2.766   4.739   1.537
    1   AR   Ar   99   4.327   2.760  -1.637
    1   AR   Ar  100   1.375   4.254  -0.439
    1   AR   Ar  101   1.237   2.790   1.201
    1   AR   Ar  102   2.741   4.075   3.619
    1   AR   Ar  103   1.749   3.563   0.672
    1   AR   Ar  104   3.030   3.519  -1.258
    1   AR   Ar  105   1.676   3.322   3.651
    1   AR   Ar  106   2.254   3.225   4.594
    1   AR   Ar  107   2.306   3.867   5.353
    1   AR   Ar  108   3.438   2.992   4.161
    1   AR   Ar  109   1.632   4.113   4.333
    1   AR   Ar  110   1.459   4.467   5.451
    1   AR   Ar  111   4.290   4.483   7.188
    1   AR   Ar  112   1.749   4.901   6.533
    1   AR   Ar  113   2.456   4.459   0.479
    1   AR   Ar  114   2.552   5.839   1.234
    1   AR   Ar  115   2.870   5.030  -0.391
    1   AR   Ar  116   4.233   7.003   0.064
    1   AR   Ar  117   1.219   5.034   3.116
    1   AR   Ar  118   1.288   6.027   2.294
    1   AR   Ar  119   1.972   4.125   2.816
    1   AR   Ar  120   2.001   5.073   2.298
    1   AR   Ar  121   6.415   4.556   3.795
    1   AR   Ar  122   2.825   6.128   4.397
    1   AR   Ar  123   2.495   5.128   4.280
    1   AR   Ar  124   2.500   5.903   3.314
    1   AR   Ar  125   0.547   4.772   4.883
    1   AR   Ar  126   0.929   6.540   6.211
    1   AR   Ar  127   2.721   5.303   7.360
    1   AR   Ar  128   2.410   5.839   6.460
    1   AR   Ar  129   2.183   0.018   0.944
    1   AR   Ar  130   4.606   0.709  -1.308
    1   AR   Ar  131   4.429   6.686   0.990
    1   AR   Ar  132   6.620   2.444  -1.036
    1   AR   Ar  133   3.440   0.213   2.791
    1   AR   Ar  134   4.113   1.455   2.798
    1   AR   Ar  135   4.533   0.308   3.009
    1   AR   Ar  136   4.144   0.679   1.950
    1   AR   Ar  137   2.746   6.931   3.567
    1   AR   Ar  138   4.963   1.329   5.016
    1   AR   Ar  139   5.298   0.923   4.159
    1   AR   Ar  140   4.358   1.354   4.039
    1   AR   Ar  141   4.506   0.227   3.979
    1   AR   Ar  142   4.731   6.703   5.749
    1   AR   Ar  143   5.756   6.877   5.821
    1   AR   Ar  144   5.333   0.855   6.882
    1   AR   Ar  145   3.441   2.871   0.381
    1   AR   Ar  146   4.219   2.809   1.582
    1   AR   Ar  147   5.234   2.119   0.319
    1   AR   Ar  148   5.771   3.421  -2.272
    1   AR   Ar  149   4.705   1.240   0.694
    1   AR   Ar  150   2.725   1.614   2.986
    1   AR   Ar  151   3.547   1.781   3.547
    1   AR   Ar  152   2.921   2.732   1.813
    1   AR   Ar  153   2.879   0.754   4.216
    1   AR   Ar  154   3.732   1.897   4.681
    1   AR   Ar  155   5.560   0.809   5.857
    1   AR   Ar  156   4.122   3.796   3.968
    1   AR   Ar  157   3.508   2.004   5.831
    1   AR   Ar  158   1.918   1.960   6.404
    1   AR   Ar  159   4.493   0.720   5.948
    1   AR   Ar  160   3.766   2.938   6.142
    1   AR   Ar  161   4.773   3.060   0.483
    1   AR   Ar  162   4.429   5.484  -0.055
    1   AR   Ar  163   5.734   3.312  -0.300
    1   AR   Ar  164   4.957   5.048   1.624
    1   AR   Ar  165   3.289   3.485   2.806
    1   AR   Ar  166   2.872   4.872   2.901
    1   AR   Ar  167   4.838   2.445   2.501
    1   AR   Ar  168   3.883   4.407   0.175
    1   AR   Ar  169   2.639   2.595   3.661
    1   AR   Ar  170   3.113   4.122   4.585
    1   AR   Ar  171   4.042   3.849   4.981
    1   AR   Ar  172   4.210   4.782   4.642
    1   AR   Ar  173   2.737   2.664   6.176
    1   AR   Ar  174   4.270   4.901   5.905
    1   AR   Ar  175   4.530   3.905   5.953
    1   AR   Ar  176   3.283   5.186   4.851
    1   AR   Ar  177   5.487   5.654  -0.379
    1   AR   Ar  178   3.443   6.635   1.555
    1   AR   Ar  179   3.682   5.602   0.963
    1   AR   Ar  180   3.836   4.040  -1.140
    1   AR   Ar  181   3.059   5.724   2.278
    1   AR   Ar  182   2.404   6.436   2.118
    1   AR   Ar  183   3.601   4.442   2.107
    1   AR   Ar  184   4.462   6.227   1.986
    1   AR   Ar  185   1.075   5.422   4.006
    1   AR   Ar  186   3.492   5.470   3.817
    1   AR   Ar  187   4.895   5.287   3.593
    1   AR   Ar  188   3.581   6.353   3.144
    1   AR   Ar  189   2.624   4.952   5.590
    1   AR   Ar  190   4.112   5.833   6.159
    1   AR   Ar  191   5.166   5.759   5.274
    1   AR   Ar  192   4.182   5.882   4.926
    1   AR   Ar  193   6.328   6.433  -0.136
    1   AR   Ar  194   5.502   6.636  -1.038
    1   AR   Ar  195   5.790   1.110   0.305
    1   AR   Ar  196   5.967   0.917  -1.106
    1   AR   Ar  197   5.106   0.413   0.994
    1   AR   Ar  198   5.998   1.379   1.429
    1   AR   Ar  199   5.228   0.123   2.158
    1   AR   Ar  200   6.786   1.320   0.431
    1   AR   Ar  201   4.866   6.358   3.265
    1   AR   Ar  202   5.082   2.060   4.205
    1   AR   Ar  203   0.305   7.002   4.584
    1   AR   Ar  204   5.524   0.282   3.375
    1   AR   Ar  205   6.622   7.073   3.239
    1   AR   Ar  206   5.043   0.305   4.911
    1   AR   Ar  207   0.076   0.295   5.606
    1   AR   Ar  208   6.798   0.947   4.085
    1   AR   Ar  209   6.635   2.593  -2.229
    1   AR   Ar  210   5.064   1.818   1.524
    1   AR   Ar  211   6.484   2.518   0.210
    1   AR   Ar  212   6.209   4.348  -0.745
    1   AR   Ar  213   3.597   2.376   2.605
    1   AR   Ar  214   4.415   3.579   2.323
    1   AR   Ar  215   5.950   2.211   2.146
    1   AR   Ar  216   6.984   3.517   1.797
    1   AR   Ar  217   4.695   2.850   3.700
    1   AR   Ar  218   4.568   2.485   5.348
    1   AR   Ar  219   5.088   1.280   3.186
    1   AR   Ar  220   5.655   3.602   3.326
    1   AR   Ar  221   6.175   0.410   4.986
    1   AR   Ar  222   4.949   1.697   6.027
    1   AR   Ar  223   6.543   0.588   6.336
    1   AR   Ar  224   5.666   2.385   4.961
    1   AR   Ar  225   5.495   4.456  -0.024
    1   AR   Ar  226   4.646   4.699   2.630
    1   AR   Ar  227   0.035   4.457   0.641
    1   AR   Ar  228   6.049   5.456   0.424
    1   AR   Ar  229   6.260   3.880   0.855
    1   AR   Ar  230   3.830   4.637   3.469
    1   AR   Ar  231   6.615   2.360   3.070
    1   AR   Ar  232   4.907   3.854   1.229
    1   AR   Ar  233   6.166   2.634   3.942
    1   AR   Ar  234   6.214   3.980   4.997
    1   AR   Ar  235   7.095   3.486   4.186
    1   AR   Ar  236   4.968   4.266   3.740
    1   AR   Ar  237   5.533   3.307   4.450
    1   AR   Ar  238   5.028   4.149   5.122
    1   AR   Ar  239   6.562   4.582   8.019
    1   AR   Ar  240   6.443   4.260   6.214
    1   AR   Ar  241   6.680   0.463  -0.318
    1   AR   Ar  242   5.483   6.175   1.338
    1   AR   Ar  243   5.618   4.151   2.250
    1   AR   Ar  244   6.876   5.572  -0.351
    1   AR   Ar  245   5.379   5.898   2.377
    1   AR   Ar  246   6.481   7.023   1.769
    1   AR   Ar  247   5.333   2.906   1.470
    1   AR   Ar  248   6.086   0.053   0.750
    1   AR   Ar  249   5.738   5.120   3.020
    1   AR   Ar  250   4.835   6.454   4.439
    1   AR   Ar  251   5.669   4.956   4.598
    1   AR   Ar  252   5.847   6.384   3.768
    1   AR   Ar  253   5.870   4.893   5.654
    1   AR   Ar  254   5.232   6.025   6.406
    1   AR   Ar  255   5.411   4.803   6.931
    1   AR   Ar  256   5.868   6.226   4.760
    7.12000  7.12000 12.00000
Argon-slab step 1440
  256
    1   AR   Ar    1   0.015   1.120  -1.168
    1   AR   Ar    2   6.952   0.595   1.108
    1   AR   Ar    3   7.066   6.767   0.449
    1   AR   Ar    4   0.621   0.641  -0.281
    1   AR   Ar    5   0.104   5.822   1.150
    1   AR   Ar    6   0.378   0.264   2.822
    1   AR   Ar    7   0.284   5.612   2.277
    1   AR   Ar    8   0.343   6.935   1.688
    1   AR   Ar    9   0.857   0.858   3.861
    1   AR   Ar   10   0.261   1.854   4.211
    1   AR   Ar   11   2.521   7.044   4.744
    1   AR   Ar   12   1.272   1.054   2.894
    1   AR   Ar   13   6.511   1.855   4.656
    1   AR   Ar   14   0.119   1.382   5.939
    1   AR   Ar   15   6.989   5.719   8.857
    1   AR   Ar   16   0.470   1.023   4.868
    1   AR   Ar   17   0.116   1.788  -0.395
    1   AR   Ar   18   6.847   3.643  -0.106
    1   AR   Ar   19   0.719   1.950   1.041
    1   AR   Ar   20   0.519   2.798  -2.202
    1   AR   Ar   21   6.276   0.668   2.424
    1   AR   Ar   22   7.085   2.287   2.030
    1   AR   Ar   23   0.445   1.082   1.998
    1   AR   Ar   24   0.088   2.958   1.004
    1   AR   Ar   25   7.073   1.167   3.130
    1   AR   Ar   26   6.064   1.577   3.656
    1   AR   Ar   27   2.000   1.037   3.625
    1   AR   Ar   28   1.011   2.664   4.528
    1   AR   Ar   29   6.036   1.778   5.999
    1   AR   Ar   30   7.066   2.477   6.142
    1   AR   Ar   31   0.439   0.811   7.941
    1   AR   Ar   32   1.718   3.070   5.735
    1   AR   Ar   33   1.182   4.220  -1.716
    1   AR   Ar   34   1.172   5.086   1.533
    1   AR   Ar   35   0.801   3.831   1.267
    1   AR   Ar   36   1.531   7.082  -1.601
    1   AR   Ar   37   0.771   3.165   2.037
    1   AR   Ar   38   7.029   4.527   2.231
    1   AR   Ar   39   0.979   4.317   2.359
    1   AR   Ar   40   1.802   4.215   1.627
    1   AR   Ar   41   0.711   2.233   3.026
    1   AR   Ar   42   6.800   5.264   5.354
    1   AR   Ar   43   6.402   2.964   5.224
    1   AR   Ar   44   0.646   3.227   3.263
    1   AR   Ar   45   0.850   3.811   4.862
    1   AR   Ar   46   6.608   5.326   6.626
    1   AR   Ar   47   7.060   3.537   6.926
    1   AR   Ar   48   6.895   6.632   6.203
    1   AR   Ar   49   6.099   5.576  -1.397
    1   AR   Ar   50   6.274   5.626   1.650
    1   AR   Ar   51   1.044   4.538   0.476
    1   AR   Ar   52   0.354   4.667  -0.409
    1   AR   Ar   53   6.416   5.880   2.675
    1   AR   Ar   54   0.404   6.363   3.452
    1   AR   Ar   55   7.058   4.988   3.171
    1   AR   Ar   56   1.574   6.252   1.187
    1   AR   Ar   57   6.617   3.569   3.004
    1   AR   Ar   58   7.074   5.591   4.192
    1   AR   Ar   59   2.292   5.858   5.179
    1   AR   Ar   60   1.472   6.573   3.905
    1   AR   Ar   61   6.246   5.887   5.891
    1   AR   Ar   62   0.423   6.062   5.195
    1   AR   Ar   63   1.154   5.585   5.784
    1   AR   Ar   64   1.420   6.751   5.210
    1   AR   Ar   65   2.920   0.424   0.334
    1   AR   Ar   66   1.823   1.111   1.150
    1   AR   Ar   67   3.120   5.992   0.089
    1   AR   Ar   68   3.106   0.792  -0.916
    1   AR   Ar   69   2.116   6.498   0.098
    1   AR   Ar   70   1.556   7.063   1.978
    1   AR   Ar   71   2.945   0.628   1.842
    1   AR   Ar   72   3.922   0.521   0.927
    1   AR   Ar   73   1.993   6.717   3.012
    1   AR   Ar   74   1.996   0.972   4.746
    1   AR   Ar   75   3.301   0.371   5.229
    1   AR   Ar   76   2.495   0.582   2.732
    1   AR   Ar   77   2.490   6.753   5.861
    1   AR   Ar   78   1.294   0.543   5.655
    1   AR   Ar   79   3.938   6.552   7.119
    1   AR   Ar   80   3.285   6.188   5.623
    1   AR   Ar   81   1.378   1.305   0.170
    1   AR   Ar   82   0.677   3.436   0.185
    1   AR   Ar   83   2.147   2.176   1.049
    1   AR   Ar   84   2.093   3.919  -3.837
    1   AR   Ar   85   1.000   2.321  -0.200
    1   AR   Ar   86   1.828   2.723   2.266
    1   AR   Ar   87   2.131   1.389   2.165
    1   AR   Ar   88   2.852   3.769   1.461
    1   AR   Ar   89   1.169   1.905   2.200
    1   AR   Ar   90   2.693   2.323   4.830
    1   AR   Ar   91   1.873   2.086   4.229
    1   AR   Ar   92   1.777   2.112   3.099
    1   AR   Ar   93   1.503   1.768   5.236
    1   AR   Ar   94   3.295   0.141   7.389
    1   AR   Ar   95   3.742   7.045   6.125
    1   AR   Ar   96   2.471   0.446   6.522
    1   AR   Ar   97   3.947   2.268  -0.454
    1   AR   Ar   98   2.717   4.723   1.533
    1   AR   Ar   99   4.347   2.742  -1.622
    1   AR   Ar  100   1.344   4.265  -0.446
    1   AR   Ar  101   1.249   2.800   1.180
    1   AR   Ar  102   2.734   4.091   3.605
    1   AR   Ar  103   1.768   3.549   0.680
    1   AR   Ar  104   3.035   3.492  -1.279
    1   AR   Ar  105   1.656   3.311   3.674
    1   AR   Ar  106   2.234   3.219   4.590
    1   AR   Ar  107   2.326   3.883   5.348
    1   AR   Ar  108   3.435   2.984   4.143
    1   AR   Ar  109   1.617   4.111   4.355
    1   AR   Ar  110   1.443   4.503   5.466
    1   AR   Ar  111   4.299   4.522   7.186
    1   AR   Ar  112   1.743   4.940   6.569
    1   AR   Ar  113   2.465   4.439   0.493
    1   AR   Ar  114   2.552   5.862   1.222
    1   AR   Ar  115   2.874   5.021  -0.423
    1   AR   Ar  116   4.254   6.971   0.082
    1   AR   Ar  117   1.185   5.045   3.108
    1   AR   Ar  118   1.303   6.013   2.273
    1   AR   Ar  119   1.967   4.097   2.828
    1   AR   Ar  120   2.016   5.097   2.298
    1   AR   Ar  121   6.399   4.582   3.805
    1   AR   Ar  122   2.835   6.107   4.371
    1   AR   Ar  123   2.487   5.148   4.292
    1   AR   Ar  124   2.519   5.890   3.315
    1   AR   Ar  125   0.558   4.802   4.862
    1   AR   Ar  126   0.914   6.554   6.222
    1   AR   Ar  127   2.726   5.309   7.348
    1   AR   Ar  128   2.406   5.809   6.491
    1   AR   Ar  129   2.185   0.013   0.970
    1   AR   Ar  130   4.612   0.748  -1.321
    1   AR   Ar  131   4.423   6.653   0.992
    1   AR   Ar  132   6.616   2.459  -1.036
    1   AR   Ar  133   3.448   0.219   2.821
    1   AR   Ar  134   4.143   1.476   2.803
    1   AR   Ar  135   4.547   0.307   2.979
    1   AR   Ar  136   4.137   0.679   1.956
    1   AR   Ar  137   2.749   6.952   3.554
    1   AR   Ar  138   4.935   1.342   5.015
    1   AR   Ar  139   5.327   0.947   4.160
    1   AR   Ar  140   4.331   1.316   4.024
    1   AR   Ar  141   4.508   0.202   3.973
    1   AR   Ar  142   4.737   6.687   5.764
    1   AR   Ar  143   5.767   6.876   5.838
    1   AR   Ar  144   5.342   0.842   6.854
    1   AR   Ar  145   3.457   2.872   0.381
    1   AR   Ar  146   4.230   2.823   1.592
    1   AR   Ar  147   5.228   2.084   0.306
    1   AR   Ar  148   5.760   3.428  -2.302
    1   AR   Ar  149   4.693   1.278   0.683
    1   AR   Ar  150   2.715   1.636   2.987
    1   AR   Ar  151   3.559   1.755   3.573
    1   AR   Ar  152   2.883   2.764   1.812
    1   AR   Ar  153   2.895   0.785   4.201
    1   AR   Ar  154   3.737   1.893   4.692
    1   AR   Ar  155   5.559   0.802   5.879
    1   AR   Ar  156   4.128   3.781   3.937
    1   AR   Ar  157   3.512   2.021   5.864
    1   AR   Ar  158   1.876   1.955   6.446
    1   AR   Ar  159   4.468   0.731   5.936
    1   AR   Ar  160   3.764   2.923   6.191
    1   AR   Ar  161   4.727   3.049   0.494
    1   AR   Ar  162   4.415   5.475  -0.056
    1   AR   Ar  163   5.727   3.313  -0.286
    1   AR   Ar  164   4.917   5.051   1.647
    1   AR   Ar  165   3.254   3.505   2.821
    1   AR   Ar  166   2.903   4.880   2.903
    1   AR   Ar  167   4.853   2.422   2.484
    1   AR   Ar  168   3.881   4.427   0.174
    1   AR   Ar  169   2.673   2.592   3.680
    1   AR   Ar  170   3.129   4.114   4.601
    1   AR   Ar  171   4.070   3.859   4.997
    1   AR   Ar  172   4.224   4.788   4.620
    1   AR   Ar  173   2.722   2.675   6.196
    1   AR   Ar  174   4.289   4.883   5.870
    1   AR   Ar  175   4.520   3.900   5.966
    1   AR   Ar  176   3.285   5.199   4.877
    1   AR   Ar  177   5.457   5.696  -0.339
    1   AR   Ar  178   3.426   6.619   1.557
    1   AR   Ar  179   3.673   5.605   0.995
    1   AR   Ar  180   3.854   4.035  -1.159
    1   AR   Ar  181   3.092   5.709   2.259
    1   AR   Ar  182   2.419   6.448   2.139
    1   AR   Ar  183   3.603   4.424   2.081
    1   AR   Ar  184   4.459   6.246   1.978
    1   AR   Ar  185   1.051   5.406   4.034
    1   AR   Ar  186   3.484   5.461   3.808
    1   AR   Ar  187   4.899   5.299   3.592
    1   AR   Ar  188   3.580   6.367   3.180
    1   AR   Ar  189   2.637   4.990   5.582
    1   AR   Ar  190   4.108   5.808   6.150
    1   AR   Ar  191   5.189   5.762   5.274
    1   AR   Ar  192   4.225   5.872   4.963
    1   AR   Ar  193   6.324   6.424  -0.160
    1   AR   Ar  194   5.512   6.591  -1.054
    1   AR   Ar  195   5.795   1.109   0.305
    1   AR   Ar  196   5.956   0.907  -1.138
    1   AR   Ar  197   5.091   0.445   1.029
    1   AR   Ar  198   6.029   1.399   1.438
    1   AR   Ar  199   5.251   0.153   2.190
    1   AR   Ar  200   6.795   1.303   0.426
    1   AR   Ar  201   4.858   6.330   3.280
    1   AR   Ar  202   5.100   2.074   4.207
    1   AR   Ar  203   0.340   7.016   4.606
    1   AR   Ar  204   5.513   0.252   3.427
    1   AR   Ar  205   6.624   7.101   3.238
    1   AR   Ar  206   5.078   0.290   4.894
    1   AR   Ar  207   0.078   0.298   5.611
    1   AR   Ar  208   6.789   0.938   4.098
    1   AR   Ar  209   6.623   2.582  -2.231
    1   AR   Ar  210   5.060   1.816   1.514
    1   AR   Ar  211   6.481   2.524   0.238
    1   AR   Ar  212   6.197   4.332  -0.780
    1   AR   Ar  213   3.614   2.386   2.575
    1   AR   Ar  214   4.429   3.540   2.353
    1   AR   Ar  215   5.983   2.200   2.159
    1   AR   Ar  216   7.012   3.510   1.809
    1   AR   Ar  217   4.730   2.843   3.723
    1   AR   Ar  218   4.553   2.490   5.342
    1   AR   Ar  219   5.081   1.280   3.179
    1   AR   Ar  220   5.671   3.597   3.340
    1   AR   Ar  221   6.202   0.395   4.981
    1   AR   Ar  222   4.941   1.706   6.032
    1   AR   Ar  223   6.566   0.620   6.339
    1   AR   Ar  224   5.649   2.371   4.964
    1   AR   Ar  225   5.505   4.463   0.001
    1   AR   Ar  226   4.635   4.695   2.632
    1   AR   Ar  227   0.049   4.449   0.636
    1   AR   Ar  228   6.060   5.412   0.429
    1   AR   Ar  229   6.244   3.881   0.860
    1   AR   Ar  230   3.836   4.646   3.450
    1   AR   Ar  231   6.662   2.336   3.074
    1   AR   Ar  232   4.854   3.862   1.227
    1   AR   Ar  233   6.195   2.646   3.931
    1   AR   Ar  234   6.193   3.963   5.001
    1   AR   Ar  235   7.108   3.469   4.158
    1   AR   Ar  236   4.974   4.250   3.711
    1   AR   Ar  237   5.526   3.300   4.446
    1   AR   Ar  238   5.026   4.165   5.124
    1   AR   Ar  239   6.593   4.587   8.033
    1   AR   Ar  240   6.449   4.254   6.208
    1   AR   Ar  241   6.673   0.466  -0.340
    1   AR   Ar  242   5.497   6.163   1.296
    1   AR   Ar  243   5.594   4.148   2.248
    1   AR   Ar  244   6.896   5.555  -0.355
    1   AR   Ar  245   5.414   5.923   2.397
    1   AR   Ar  246   6.459   6.991   1.757
    1   AR   Ar  247   5.308   2.893   1.478
    1   AR   Ar  248   6.113   0.048   0.727
    1   AR   Ar  249   5.741   5.084   3.049
    1   AR   Ar  250   4.809   6.463   4.428
    1   AR   Ar  251   5.694   4.966   4.581
    1   AR   Ar  252   5.877   6.393   3.757
    1   AR   Ar  253   5.878   4.908   5.645
    1   AR   Ar  254   5.201   6.021   6.384
    1   AR   Ar  255   5.402   4.798   6.939
    1   AR   Ar  256   5.888   6.209   4.743
    7.12000  7.12000 12.00000
Argon-slab step 1445
  256
    1   AR   Ar    1   0.008   1.129  -1.186
    1   AR   Ar    2   6.938   0.597   1.110
    1   AR   Ar    3   7.063   6.801   0.486
    1   AR   Ar    4   0.636   0.634  -0.300
    1   AR   Ar    5   0.124   5.807   1.134
    1   AR   Ar    6   0.382   0.285   2.823
    1   AR   Ar    7   0.268   5.603   2.294
    1   AR   Ar    8   0.346   6.921   1.710
    1   AR   Ar    9   0.829   0.862   3.869
    1   AR   Ar   10   0.237   1.850   4.198
    1   AR   Ar   11   2.527   7.038   4.725
    1   AR   Ar   12   1.305   1.039   2.851
    1   AR   Ar   13   6.545   1.856   4.670
    1   AR   Ar   14   0.112   1.376   5.973
    1   AR   Ar   15   7.013   5.740   8.866
    1   AR   Ar   16   0.493   1.001   4.862
    1   AR   Ar   17   0.098   1.761  -0.390
    1   AR   Ar   18   6.815   3.648  -0.121
    1   AR   Ar   19   0.730   1.937   1.023
    1   AR   Ar   20   0.478   2.800  -2.228
    1   AR   Ar   21   6.276   0.672   2.409
    1   AR   Ar   22   7.082   2.301   2.045
    1   AR   Ar   23   0.435   1.098   1.998
    1   AR   Ar   24   0.098   2.944   0.998
    1   AR   Ar   25   7.061   1.193   3.104
    1   AR   Ar   26   6.048   1.599   3.671
    1   AR   Ar   27   2.002   1.046   3.624
    1   AR   Ar   28   1.020   2.688   4.516
    1   AR   Ar   29   6.038   1.788   6.026
    1   AR   Ar   30   7.056   2.447   6.120
    1   AR   Ar   31   0.438   0.790   7.919
    1   AR   Ar   32   1.684   3.065   5.755
    1   AR   Ar   33   1.181   4.235  -1.703
    1   AR   Ar   34   1.171   5.091   1.523
    1   AR   Ar   35   0.788   3.824   1.282
    1   AR   Ar   36   1.502   7.107  -1.562
    1   AR   Ar   37   0.784   3.199   2.073
    1   AR   Ar   38   7.035   4.528   2.234
    1   AR   Ar   39   0.972   4.340   2.344
    1   AR   Ar   40   1.788   4.206   1.639
    1   AR   Ar   41   0.681   2.245   3.044
    1   AR   Ar   42   6.774   5.261   5.344
    1   AR   Ar   43   6.384   2.963   5.226
    1   AR   Ar   44   0.582   3.243   3.254
    1   AR   Ar   45   0.897   3.804   4.893
    1   AR   Ar   46   6.657   5.299   6.595
    1   AR   Ar   47   7.029   3.552   6.911
    1   AR   Ar   48   6.875   6.651   6.194
    1   AR   Ar   49   6.112   5.588  -1.400
    1   AR   Ar   50   6.309   5.624   1.641
    1   AR   Ar   51   1.055   4.568   0.494
    1   AR   Ar   52   0.337   4.700  -0.382
    1   AR   Ar   53   6.420   5.903   2.687
    1   AR   Ar   54   0.400   6.350   3.477
    1   AR   Ar   55   7.034   5.005   3.135
    1   AR   Ar   56   1.579   6.221   1.197
    1   AR   Ar   57   6.592   3.587   3.004
    1   AR   Ar   58   7.089   5.577   4.169
    1   AR   Ar   59   2.291   5.857   5.196
    1   AR   Ar   60   1.497   6.560   3.905
    1   AR   Ar   61   6.202   5.884   5.882
    1   AR   Ar   62   0.454   6.083   5.190
    1   AR   Ar   63   1.180   5.591   5.790
    1   AR   Ar   64   1.388   6.726   5.180
    1   AR   Ar   65   2.933   0.441   0.332
    1   AR   Ar   66   1.838   1.120   1.135
    1   AR   Ar   67   3.136   5.998   0.073
    1   AR   Ar   68   3.092   0.789  -0.899
    1   AR   Ar   69   2.117   6.512   0.091
    1   AR   Ar   70   1.534   7.086   1.996
    1   AR   Ar   71   2.974   0.599   1.845
    1   AR   Ar   72   3.916   0.562   0.942
    1   AR   Ar   73   1.980   6.711   3.016
    1   AR   Ar   74   2.018   0.958   4.776
    1   AR   Ar   75   3.283   0.371   5.198
    1   AR   Ar   76   2.511   0.578   2.753
    1   AR   Ar   77   2.471   6.748   5.888
    1   AR   Ar   78   1.305   0.568   5.620
    1   AR   Ar   79   3.937   6.525   7.155
    1   AR   Ar   80   3.293   6.183   5.635
    1   AR   Ar   81   1.383   1.317   0.147
    1   AR   Ar   82   0.717   3.414   0.140
    1   AR   Ar   83   2.124   2.160   1.062
    1   AR   Ar   84   2.094   3.932  -3.846
    1   AR   Ar   85   1.034   2.307  -0.198
    1   AR   Ar   86   1.836   2.704   2.222
    1   AR   Ar   87   2.129   1.393   2.201
    1   AR   Ar   88   2.877   3.804   1.482
    1   AR   Ar   89   1.185   1.886   2.211
    1   AR   Ar   90   2.702   2.329   4.839
    1   AR   Ar   91   1.878   2.085   4.255
    1   AR   Ar   92   1.771   2.112   3.067
    1   AR   Ar   93   1.546   1.770   5.204
    1   AR   Ar   94   3.276   0.174   7.380
    1   AR   Ar   95   3.779   7.035   6.084
    1   AR   Ar   96   2.490   0.421   6.532
    1   AR   Ar   97   3.948   2.281  -0.463
    1   AR   Ar   98   2.668   4.728   1.530
    1   AR   Ar   99   4.366   2.724  -1.606
    1   AR   Ar  100   1.318   4.272  -0.460
    1   AR   Ar  101   1.263   2.812   1.160
    1   AR   Ar  102   2.728   4.106   3.592
    1   AR   Ar  103   1.788   3.540   0.686
    1   AR   Ar  104   3.031   3.458  -1.301
    1   AR   Ar  105   1.637   3.296   3.695
    1   AR   Ar  106   2.212   3.210   4.580
    1   AR   Ar  107   2.349   3.905   5.347
    1   AR   Ar  108   3.443   2.980   4.132
    1   AR   Ar  109   1.617   4.119   4.371
    1   AR   Ar  110   1.429   4.533   5.487
    1   AR   Ar  111   4.309   4.562   7.183
    1   AR   Ar  112   1.737   4.979   6.603
    1   AR   Ar  113   2.474   4.418   0.508
    1   AR   Ar  114   2.556   5.884   1.209
    1   AR   Ar  115   2.879   5.011  -0.454
    1   AR   Ar  116   4.272   6.945   0.089
    1   AR   Ar  117   1.190   5.054   3.102
    1   AR   Ar  118   1.320   5.999   2.253
    1   AR   Ar  119   1.962   4.070   2.838
    1   AR   Ar  120   2.030   5.122   2.298
    1   AR   Ar  121   6.377   4.603   3.820
    1   AR   Ar  122   2.841   6.090   4.364
    1   AR   Ar  123   2.468   5.160   4.297
    1   AR   Ar  124   2.542   5.871   3.316
    1   AR   Ar  125   0.568   4.838   4.839
    1   AR   Ar  126   0.899   6.569   6.231
    1   AR   Ar  127   2.733   5.313   7.338
    1   AR   Ar  128   2.402   5.782   6.515
    1   AR   Ar  129   2.186   0.008   1.001
    1   AR   Ar  130   4.618   0.787  -1.334
    1   AR   Ar  131   4.419   6.615   1.006
    1   AR   Ar  132   6.613   2.474  -1.035
    1   AR   Ar  133   3.461   0.228   2.849
    1   AR   Ar  134   4.168   1.496   2.803
    1   AR   Ar  135   4.557   0.307   2.941
    1   AR   Ar  136   4.131   0.678   1.966
    1   AR   Ar  137   2.765   6.978   3.554
    1   AR   Ar  138   4.903   1.359   5.019
    1   AR   Ar  139   5.361   0.976   4.157
    1   AR   Ar  140   4.311   1.272   4.011
    1   AR   Ar  141   4.508   0.181   3.972
    1   AR   Ar  142   4.740   6.692   5.773
    1   AR   Ar  143   5.781   6.874   5.853
    1   AR   Ar  144   5.349   0.830   6.833
    1   AR   Ar  145   3.473   2.873   0.382
    1   AR   Ar  146   4.240   2.835   1.600
    1   AR   Ar  147   5.225   2.052   0.292
    1   AR   Ar  148   5.750   3.435  -2.330
    1   AR   Ar  149   4.672   1.321   0.667
    1   AR   Ar  150   2.708   1.657   2.989
    1   AR   Ar  151   3.561   1.738   3.605
    1   AR   Ar  152   2.845   2.793   1.813
    1   AR   Ar  153   2.915   0.817   4.183
    1   AR   Ar  154   3.741   1.891   4.704
    1   AR   Ar  155   5.561   0.795   5.888
    1   AR   Ar  156   4.127   3.759   3.908
    1   AR   Ar  157   3.516   2.028   5.891
    1   AR   Ar  158   1.835   1.951   6.487
    1   AR   Ar  159   4.447   0.728   5.950
    1   AR   Ar  160   3.769   2.918   6.242
    1   AR   Ar  161   4.681   3.037   0.505
    1   AR   Ar  162   4.399   5.466  -0.055
    1   AR   Ar  163   5.727   3.311  -0.277
    1   AR   Ar  164   4.879   5.056   1.670
    1   AR   Ar  165   3.220   3.524   2.834
    1   AR   Ar  166   2.934   4.886   2.904
    1   AR   Ar  167   4.868   2.400   2.467
    1   AR   Ar  168   3.879   4.448   0.173
    1   AR   Ar  169   2.695   2.583   3.692
    1   AR   Ar  170   3.144   4.107   4.616
    1   AR   Ar  171   4.089   3.867   5.015
    1   AR   Ar  172   4.242   4.800   4.592
    1   AR   Ar  173   2.703   2.686   6.215
    1   AR   Ar  174   4.310   4.861   5.828
    1   AR   Ar  175   4.504   3.920   5.982
    1   AR   Ar  176   3.303   5.217   4.903
    1   AR   Ar  177   5.424   5.739  -0.305
    1   AR   Ar  178   3.408   6.605   1.558
    1   AR   Ar  179   3.663   5.608   1.028
    1   AR   Ar  180   3.882   4.035  -1.177
    1   AR   Ar  181   3.131   5.688   2.240
    1   AR   Ar  182   2.434   6.464   2.154
    1   AR   Ar  183   3.617   4.383   2.034
    1   AR   Ar  184   4.455   6.264   1.972
    1   AR   Ar  185   1.027   5.395   4.071
    1   AR   Ar  186   3.459   5.461   3.797
    1   AR   Ar  187   4.897   5.312   3.595
    1   AR   Ar  188   3.580   6.377   3.216
    1   AR   Ar  189   2.642   5.019   5.586
    1   AR   Ar  190   4.141   5.806   6.120
    1   AR   Ar  191   5.209   5.759   5.284
    1   AR   Ar  192   4.254   5.855   5.006
    1   AR   Ar  193   6.313   6.415  -0.188
    1   AR   Ar  194   5.524   6.546  -1.068
    1   AR   Ar  195   5.795   1.105   0.306
    1   AR   Ar  196   5.945   0.898  -1.169
    1   AR   Ar  197   5.082   0.468   1.070
    1   AR   Ar  198   6.053   1.398   1.449
    1   AR   Ar  199   5.213   0.185   2.212
    1   AR   Ar  200   6.807   1.292   0.417
    1   AR   Ar  201   4.854   6.313   3.291
    1   AR   Ar  202   5.119   2.074   4.204
    1   AR   Ar  203   0.377   7.031   4.626
    1   AR   Ar  204   5.504   0.218   3.476
    1   AR   Ar  205   6.620   0.011   3.237
    1   AR   Ar  206   5.108   0.278   4.898
    1   AR   Ar  207   0.086   0.302   5.608
    1   AR   Ar  208   6.781   0.923   4.115
    1   AR   Ar  209   6.605   2.571  -2.231
    1   AR   Ar  210   5.053   1.817   1.507
    1   AR   Ar  211   6.479   2.530   0.265
    1   AR   Ar  212   6.189   4.315  -0.816
    1   AR   Ar  213   3.629   2.398   2.537
    1   AR   Ar  214   4.444   3.503   2.385
    1   AR   Ar  215   6.013   2.190   2.173
    1   AR   Ar  216   7.023   3.513   1.826
    1   AR   Ar  217   4.768   2.849   3.749
    1   AR   Ar  218   4.544   2.503   5.373
    1   AR   Ar  219   5.079   1.280   3.171
    1   AR   Ar  220   5.682   3.589   3.356
    1   AR   Ar  221   6.228   0.381   4.977
    1   AR   Ar  222   4.898   1.718   6.046
    1   AR   Ar  223   6.582   0.653   6.346
    1   AR   Ar  224   5.638   2.352   4.972
    1   AR   Ar  225   5.513   4.471   0.030
    1   AR   Ar  226   4.624   4.689   2.636
    1   AR   Ar  227   0.025   4.455   0.642
    1   AR   Ar  228   6.060   5.436   0.433
    1   AR   Ar  229   6.227   3.881   0.864
    1   AR   Ar  230   3.849   4.641   3.421
    1   AR   Ar  231   6.712   2.310   3.073
    1   AR   Ar  232   4.801   3.872   1.227
    1   AR   Ar  233   6.221   2.661   3.925
    1   AR   Ar  234   6.172   3.952   5.004
    1   AR   Ar  235   7.119   3.451   4.131
    1   AR   Ar  236   4.985   4.241   3.682
    1   AR   Ar  237   5.519   3.289   4.441
    1   AR   Ar  238   5.037   4.186   5.120
    1   AR   Ar  239   6.624   4.593   8.047
    1   AR   Ar  240   6.467   4.246   6.216
    1   AR   Ar  241   6.663   0.468  -0.361
    1   AR   Ar  242   5.504   6.157   1.250
    1   AR   Ar  243   5.569   4.146   2.247
    1   AR   Ar  244   6.915   5.537  -0.359
    1   AR   Ar  245   5.446   5.948   2.417
    1   AR   Ar  246   6.429   6.954   1.746
    1   AR   Ar  247   5.285   2.880   1.487
    1   AR   Ar  248   6.136   0.043   0.702
    1   AR   Ar  249   5.749   5.044   3.075
    1   AR   Ar  250   4.788   6.458   4.405
    1   AR   Ar  251   5.718   4.977   4.564
    1   AR   Ar  252   5.906   6.402   3.738
    1   AR   Ar  253   5.877   4.923   5.635
    1   AR   Ar  254   5.172   6.013   6.365
    1   AR   Ar  255   5.392   4.794   6.945
    1   AR   Ar  256   5.917   6.196   4.729
    7.12000  7.12000 12.00000
Argon-slab step 1450
  256
    1   AR   Ar    1   0.000   1.134  -1.208
    1   AR   Ar    2   6.927   0.594   1.122
    1   AR   Ar    3   7.067   6.833   0.524
    1   AR   Ar    4   0.650   0.629  -0.319
    1   AR   Ar    5   0.145   5.792   1.118
    1   AR   Ar    6   0.395   0.305   2.820
    1   AR   Ar    7   0.255   5.594   2.308
    1   AR   Ar    8   0.353   6.907   1.733
    1   AR   Ar    9   0.802   0.866   3.874
    1   AR   Ar   10   0.237   1.847   4.170
    1   AR   Ar   11   2.524   7.028   4.703
    1   AR   Ar   12   1.334   1.022   2.805
    1   AR   Ar   13   6.557   1.857   4.698
    1   AR   Ar   14   0.107   1.371   6.004
    1   AR   Ar   15   7.010   5.764   8.852
    1   AR   Ar   16   0.515   0.980   4.859
    1   AR   Ar   17   0.083   1.739  -0.384
    1   AR   Ar   18   6.781   3.654  -0.136
    1   AR   Ar   19   0.738   1.919   1.005
    1   AR   Ar   20   0.444   2.804  -2.254
    1   AR   Ar   21   6.276   0.702   2.394
    1   AR   Ar   22   7.084   2.316   2.058
    1   AR   Ar   23   0.424   1.113   1.999
    1   AR   Ar   24   0.112   2.927   0.989
    1   AR   Ar   25   7.052   1.210   3.101
    1   AR   Ar   26   6.033   1.622   3.683
    1   AR   Ar   27   2.006   1.074   3.622
    1   AR   Ar   28   1.027   2.714   4.504
    1   AR   Ar   29   6.041   1.797   6.053
    1   AR   Ar   30   7.043   2.419   6.097
    1   AR   Ar   31   0.437   0.768   7.898
    1   AR   Ar   32   1.651   3.060   5.772
    1   AR   Ar   33   1.180   4.249  -1.688
    1   AR   Ar   34   1.168   5.097   1.513
    1   AR   Ar   35   0.775   3.822   1.289
    1   AR   Ar   36   1.472   0.011  -1.523
    1   AR   Ar   37   0.811   3.222   2.121
    1   AR   Ar   38   7.041   4.527   2.231
    1   AR   Ar   39   0.965   4.360   2.328
    1   AR   Ar   40   1.772   4.192   1.650
    1   AR   Ar   41   0.651   2.253   3.065
    1   AR   Ar   42   6.760   5.256   5.326
    1   AR   Ar   43   6.375   2.963   5.231
    1   AR   Ar   44   0.518   3.264   3.244
    1   AR   Ar   45   0.926   3.785   4.937
    1   AR   Ar   46   6.707   5.269   6.565
    1   AR   Ar   47   6.997   3.567   6.895
    1   AR   Ar   48   6.854   6.666   6.188
    1   AR   Ar   49   6.131   5.566  -1.417
    1   AR   Ar   50   6.345   5.619   1.635
    1   AR   Ar   51   1.068   4.599   0.516
    1   AR   Ar   52   0.322   4.723  -0.355
    1   AR   Ar   53   6.431   5.927   2.704
    1   AR   Ar   54   0.396   6.338   3.502
    1   AR   Ar   55   7.014   5.026   3.102
    1   AR   Ar   56   1.576   6.199   1.209
    1   AR   Ar   57   6.585   3.603   3.003
    1   AR   Ar   58   7.101   5.563   4.148
    1   AR   Ar   59   2.281   5.864   5.213
    1   AR   Ar   60   1.493   6.555   3.898
    1   AR   Ar   61   6.149   5.890   5.874
    1   AR   Ar   62   0.482   6.104   5.185
    1   AR   Ar   63   1.204   5.595   5.802
    1   AR   Ar   64   1.359   6.699   5.150
    1   AR   Ar   65   2.947   0.457   0.329
    1   AR   Ar   66   1.851   1.127   1.123
    1   AR   Ar   67   3.152   6.004   0.059
    1   AR   Ar   68   3.078   0.786  -0.882
    1   AR   Ar   69   2.118   6.526   0.085
    1   AR   Ar   70   1.508   7.118   2.013
    1   AR   Ar   71   3.004   0.568   1.842
    1   AR   Ar   72   3.908   0.600   0.954
    1   AR   Ar   73   1.954   6.708   3.012
    1   AR   Ar   74   1.986   0.919   4.768
    1   AR   Ar   75   3.283   0.364   5.161
    1   AR   Ar   76   2.517   0.574   2.780
    1   AR   Ar   77   2.459   6.738   5.894
    1   AR   Ar   78   1.315   0.596   5.584
    1   AR   Ar   79   3.941   6.504   7.162
    1   AR   Ar   80   3.301   6.174   5.641
    1   AR   Ar   81   1.387   1.330   0.125
    1   AR   Ar   82   0.760   3.393   0.097
    1   AR   Ar   83   2.121   2.157   1.073
    1   AR   Ar   84   2.087   3.947  -3.849
    1   AR   Ar   85   1.068   2.295  -0.194
    1   AR   Ar   86   1.844   2.691   2.173
    1   AR   Ar   87   2.124   1.397   2.229
    1   AR   Ar   88   2.905   3.820   1.500
    1   AR   Ar   89   1.197   1.866   2.212
    1   AR   Ar   90   2.717   2.347   4.835
    1   AR   Ar   91   1.881   2.083   4.273
    1   AR   Ar   92   1.764   2.111   3.042
    1   AR   Ar   93   1.585   1.776   5.176
    1   AR   Ar   94   3.254   0.211   7.371
    1   AR   Ar   95   3.813   7.023   6.045
    1   AR   Ar   96   2.504   0.421   6.530
    1   AR   Ar   97   3.950   2.295  -0.472
    1   AR   Ar   98   2.620   4.759   1.529
    1   AR   Ar   99   4.384   2.707  -1.589
    1   AR   Ar  100   1.294   4.276  -0.479
    1   AR   Ar  101   1.274   2.824   1.144
    1   AR   Ar  102   2.721   4.120   3.585
    1   AR   Ar  103   1.777   3.520   0.661
    1   AR   Ar  104   3.023   3.422  -1.324
    1   AR   Ar  105   1.618   3.278   3.711
    1   AR   Ar  106   2.190   3.202   4.567
    1   AR   Ar  107   2.371   3.930   5.348
    1   AR   Ar  108   3.465   2.983   4.133
    1   AR   Ar  109   1.636   4.138   4.375
    1   AR   Ar  110   1.417   4.529   5.533
    1   AR   Ar  111   4.319   4.602   7.179
    1   AR   Ar  112   1.729   5.016   6.635
    1   AR   Ar  113   2.482   4.398   0.522
    1   AR   Ar  114   2.565   5.903   1.197
    1   AR   Ar  115   2.885   5.001  -0.484
    1   AR   Ar  116   4.287   6.922   0.085
    1   AR   Ar  117   1.204   5.054   3.088
    1   AR   Ar  118   1.320   5.981   2.237
    1   AR   Ar  119   1.956   4.043   2.847
    1   AR   Ar  120   2.043   5.148   2.299
    1   AR   Ar  121   6.354   4.618   3.839
    1   AR   Ar  122   2.838   6.078   4.391
    1   AR   Ar  123   2.442   5.162   4.297
    1   AR   Ar  124   2.543   5.864   3.344
    1   AR   Ar  125   0.576   4.874   4.819
    1   AR   Ar  126   0.883   6.586   6.238
    1   AR   Ar  127   2.742   5.312   7.335
    1   AR   Ar  128   2.398   5.762   6.528
    1   AR   Ar  129   2.188   0.003   1.036
    1   AR   Ar  130   4.625   0.826  -1.346
    1   AR   Ar  131   4.418   6.575   1.027
    1   AR   Ar  132   6.609   2.490  -1.033
    1   AR   Ar  133   3.481   0.240   2.873
    1   AR   Ar  134   4.170   1.524   2.810
    1   AR   Ar  135   4.558   0.310   2.908
    1   AR   Ar  136   4.126   0.677   1.979
    1   AR   Ar  137   2.785   7.007   3.566
    1   AR   Ar  138   4.870   1.378   5.026
    1   AR   Ar  139   5.397   1.005   4.157
    1   AR   Ar  140   4.303   1.220   4.003
    1   AR   Ar  141   4.504   0.169   3.970
    1   AR   Ar  142   4.740   6.705   5.774
    1   AR   Ar  143   5.798   6.871   5.866
    1   AR   Ar  144   5.352   0.819   6.825
    1   AR   Ar  145   3.491   2.875   0.384
    1   AR   Ar  146   4.246   2.844   1.606
    1   AR   Ar  147   5.230   2.031   0.275
    1   AR   Ar  148   5.741   3.440  -2.359
    1   AR   Ar  149   4.643   1.358   0.651
    1   AR   Ar  150   2.706   1.680   2.996
    1   AR   Ar  151   3.550   1.731   3.636
    1   AR   Ar  152   2.808   2.820   1.813
    1   AR   Ar  153   2.938   0.850   4.164
    1   AR   Ar  154   3.743   1.886   4.715
    1   AR   Ar  155   5.566   0.789   5.878
    1   AR   Ar  156   4.122   3.733   3.882
    1   AR   Ar  157   3.518   2.023   5.912
    1   AR   Ar  158   1.803   1.955   6.501
    1   AR   Ar  159   4.430   0.719   5.980
    1   AR   Ar  160   3.778   2.924   6.296
    1   AR   Ar  161   4.634   3.024   0.517
    1   AR   Ar  162   4.382   5.457  -0.052
    1   AR   Ar  163   5.758   3.314  -0.268
    1   AR   Ar  164   4.841   5.062   1.691
    1   AR   Ar  165   3.188   3.543   2.846
    1   AR   Ar  166   2.964   4.892   2.905
    1   AR   Ar  167   4.881   2.378   2.450
    1   AR   Ar  168   3.875   4.470   0.171
    1   AR   Ar  169   2.701   2.565   3.693
    1   AR   Ar  170   3.156   4.101   4.629
    1   AR   Ar  171   4.097   3.876   5.032
    1   AR   Ar  172   4.262   4.815   4.561
    1   AR   Ar  173   2.681   2.697   6.232
    1   AR   Ar  174   4.331   4.846   5.779
    1   AR   Ar  175   4.506   3.912   5.952
    1   AR   Ar  176   3.335   5.241   4.922
    1   AR   Ar  177   5.390   5.784  -0.276
    1   AR   Ar  178   3.391   6.591   1.561
    1   AR   Ar  179   3.653   5.611   1.062
    1   AR   Ar  180   3.895   4.056  -1.210
    1   AR   Ar  181   3.172   5.667   2.220
    1   AR   Ar  182   2.450   6.480   2.161
    1   AR   Ar  183   3.612   4.358   2.023
    1   AR   Ar  184   4.451   6.281   1.971
    1   AR   Ar  185   1.028   5.377   4.088
    1   AR   Ar  186   3.432   5.468   3.790
    1   AR   Ar  187   4.891   5.325   3.602
    1   AR   Ar  188   3.583   6.383   3.252
    1   AR   Ar  189   2.639   5.036   5.605
    1   AR   Ar  190   4.182   5.815   6.087
    1   AR   Ar  191   5.232   5.750   5.301
    1   AR   Ar  192   4.269   5.834   5.051
    1   AR   Ar  193   6.299   6.408  -0.216
    1   AR   Ar  194   5.536   6.501  -1.082
    1   AR   Ar  195   5.791   1.099   0.308
    1   AR   Ar  196   5.934   0.888  -1.199
    1   AR   Ar  197   5.075   0.485   1.113
    1   AR   Ar  198   6.055   1.436   1.440
    1   AR   Ar  199   5.184   0.215   2.225
    1   AR   Ar  200   6.819   1.287   0.407
    1   AR   Ar  201   4.854   6.310   3.292
    1   AR   Ar  202   5.136   2.056   4.196
    1   AR   Ar  203   0.413   7.046   4.645
    1   AR   Ar  204   5.496   0.184   3.520
    1   AR   Ar  205   6.616   0.059   3.227
    1   AR   Ar  206   5.136   0.264   4.910
    1   AR   Ar  207   0.100   0.308   5.598
    1   AR   Ar  208   6.785   0.907   4.108
    1   AR   Ar  209   6.581   2.558  -2.231
    1   AR   Ar  210   5.047   1.819   1.503
    1   AR   Ar  211   6.476   2.536   0.291
    1   AR   Ar  212   6.181   4.299  -0.851
    1   AR   Ar  213   3.643   2.412   2.500
    1   AR   Ar  214   4.461   3.470   2.419
    1   AR   Ar  215   6.040   2.181   2.188
    1   AR   Ar  216   7.016   3.523   1.844
    1   AR   Ar  217   4.775   2.869   3.756
    1   AR   Ar  218   4.534   2.515   5.402
    1   AR   Ar  219   5.084   1.279   3.165
    1   AR   Ar  220   5.685   3.575   3.374
    1   AR   Ar  221   6.255   0.367   4.973
    1   AR   Ar  222   4.856   1.729   6.060
    1   AR   Ar  223   6.577   0.680   6.338
    1   AR   Ar  224   5.663   2.323   4.972
    1   AR   Ar  225   5.522   4.479   0.061
    1   AR   Ar  226   4.614   4.682   2.643
    1   AR   Ar  227   7.119   4.461   0.649
    1   AR   Ar  228   6.065   5.459   0.441
    1   AR   Ar  229   6.211   3.879   0.867
    1   AR   Ar  230   3.868   4.627   3.389
    1   AR   Ar  231   6.764   2.284   3.071
    1   AR   Ar  232   4.748   3.881   1.229
    1   AR   Ar  233   6.247   2.676   3.922
    1   AR   Ar  234   6.150   3.948   5.006
    1   AR   Ar  235   0.009   3.434   4.105
    1   AR   Ar  236   4.998   4.239   3.654
    1   AR   Ar  237   5.510   3.281   4.436
    1   AR   Ar  238   5.059   4.212   5.112
    1   AR   Ar  239   6.654   4.600   8.060
    1   AR   Ar  240   6.486   4.238   6.224
    1   AR   Ar  241   6.653   0.470  -0.380
    1   AR   Ar  242   5.508   6.154   1.204
    1   AR   Ar  243   5.543   4.144   2.246
    1   AR   Ar  244   6.927   5.527  -0.363
    1   AR   Ar  245   5.471   5.972   2.433
    1   AR   Ar  246   6.394   6.914   1.734
    1   AR   Ar  247   5.265   2.868   1.495
    1   AR   Ar  248   6.150   0.040   0.676
    1   AR   Ar  249   5.758   5.004   3.096
    1   AR   Ar  250   4.772   6.437   4.375
    1   AR   Ar  251   5.738   4.989   4.547
    1   AR   Ar  252   5.937   6.408   3.710
    1   AR   Ar  253   5.864   4.932   5.628
    1   AR   Ar  254   5.150   5.998   6.352
    1   AR   Ar  255   5.370   4.789   6.949
    1   AR   Ar  256   5.953   6.186   4.720
    7.12000  7.12000 12.00000
Argon-slab step 1455
  256
    1   AR   Ar    1   7.111   1.135  -1.232
    1   AR   Ar    2   6.917   0.579   1.130
    1   AR   Ar    3   7.082   6.859   0.559
    1   AR   Ar    4   0.646   0.620  -0.310
    1   AR   Ar    5   0.168   5.778   1.102
    1   AR   Ar    6   0.416   0.325   2.813
    1   AR   Ar    7   0.248   5.583   2.318
    1   AR   Ar    8   0.363   6.892   1.756
    1   AR   Ar    9   0.775   0.869   3.873
    1   AR   Ar   10   0.254   1.845   4.128
    1   AR   Ar   11   2.511   7.016   4.678
    1   AR   Ar   12   1.359   1.000   2.762
    1   AR   Ar   13   6.555   1.856   4.736
    1   AR   Ar   14   0.108   1.369   6.030
    1   AR   Ar   15   7.013   5.788   8.823
    1   AR   Ar   16   0.520   0.968   4.868
    1   AR   Ar   17   0.079   1.730  -0.377
    1   AR   Ar   18   6.749   3.661  -0.148
    1   AR   Ar   19   0.753   1.930   1.019
    1   AR   Ar   20   0.417   2.810  -2.280
    1   AR   Ar   21   6.276   0.733   2.378
    1   AR   Ar   22   7.092   2.332   2.069
    1   AR   Ar   23   0.420   1.117   2.003
    1   AR   Ar   24   0.127   2.910   0.978
    1   AR   Ar   25   7.043   1.227   3.103
    1   AR   Ar   26   6.026   1.651   3.690
    1   AR   Ar   27   2.010   1.102   3.623
    1   AR   Ar   28   1.035   2.741   4.491
    1   AR   Ar   29   6.045   1.805   6.077
    1   AR   Ar   30   7.030   2.393   6.072
    1   AR   Ar   31   0.436   0.746   7.876
    1   AR   Ar   32   1.618   3.054   5.788
    1   AR   Ar   33   1.179   4.263  -1.672
    1   AR   Ar   34   1.165   5.106   1.505
    1   AR   Ar   35   0.768   3.806   1.269
    1   AR   Ar   36   1.443   0.036  -1.484
    1   AR   Ar   37   0.848   3.237   2.176
    1   AR   Ar   38   7.043   4.523   2.220
    1   AR   Ar   39   0.958   4.378   2.311
    1   AR   Ar   40   1.766   4.188   1.652
    1   AR   Ar   41   0.629   2.255   3.085
    1   AR   Ar   42   6.757   5.252   5.302
    1   AR   Ar   43   6.375   2.964   5.238
    1   AR   Ar   44   0.459   3.287   3.227
    1   AR   Ar   45   0.942   3.758   4.987
    1   AR   Ar   46   6.757   5.238   6.535
    1   AR   Ar   47   6.967   3.581   6.880
    1   AR   Ar   48   6.853   6.649   6.237
    1   AR   Ar   49   6.153   5.522  -1.442
    1   AR   Ar   50   6.380   5.613   1.630
    1   AR   Ar   51   1.083   4.629   0.540
    1   AR   Ar   52   0.317   4.728  -0.328
    1   AR   Ar   53   6.450   5.952   2.725
    1   AR   Ar   54   0.392   6.326   3.525
    1   AR   Ar   55   6.994   5.051   3.080
    1   AR   Ar   56   1.553   6.213   1.225
    1   AR   Ar   57   6.605   3.592   3.014
    1   AR   Ar   58   7.108   5.548   4.127
    1   AR   Ar   59   2.263   5.881   5.231
    1   AR   Ar   60   1.485   6.549   3.899
    1   AR   Ar   61   6.129   5.896   5.861
    1   AR   Ar   62   0.505   6.122   5.179
    1   AR   Ar   63   1.224   5.595   5.822
    1   AR   Ar   64   1.333   6.672   5.119
    1   AR   Ar   65   2.961   0.473   0.328
    1   AR   Ar   66   1.865   1.132   1.112
    1   AR   Ar   67   3.169   6.009   0.047
    1   AR   Ar   68   3.065   0.783  -0.863
    1   AR   Ar   69   2.120   6.540   0.081
    1   AR   Ar   70   1.483   0.029   2.031
    1   AR   Ar   71   3.036   0.536   1.836
    1   AR   Ar   72   3.900   0.636   0.965
    1   AR   Ar   73   1.963   6.708   3.009
    1   AR   Ar   74   1.955   0.877   4.755
    1   AR   Ar   75   3.291   0.360   5.129
    1   AR   Ar   76   2.515   0.570   2.808
    1   AR   Ar   77   2.460   6.718   5.868
    1   AR   Ar   78   1.324   0.624   5.548
    1   AR   Ar   79   3.948   6.487   7.150
    1   AR   Ar   80   3.308   6.162   5.643
    1   AR   Ar   81   1.391   1.342   0.104
    1   AR   Ar   82   0.802   3.373   0.056
    1   AR   Ar   83   2.132   2.163   1.081
    1   AR   Ar   84   2.067   3.965  -3.842
    1   AR   Ar   85   1.101   2.286  -0.189
    1   AR   Ar   86   1.850   2.682   2.122
    1   AR   Ar   87   2.120   1.400   2.246
    1   AR   Ar   88   2.933   3.822   1.514
    1   AR   Ar   89   1.200   1.849   2.206
    1   AR   Ar   90   2.738   2.363   4.834
    1   AR   Ar   91   1.886   2.082   4.279
    1   AR   Ar   92   1.772   2.110   3.039
    1   AR   Ar   93   1.619   1.784   5.159
    1   AR   Ar   94   3.231   0.248   7.361
    1   AR   Ar   95   3.837   7.009   6.010
    1   AR   Ar   96   2.516   0.431   6.527
    1   AR   Ar   97   3.953   2.309  -0.481
    1   AR   Ar   98   2.576   4.807   1.526
    1   AR   Ar   99   4.402   2.689  -1.571
    1   AR   Ar  100   1.272   4.278  -0.498
    1   AR   Ar  101   1.276   2.825   1.127
    1   AR   Ar  102   2.713   4.133   3.585
    1   AR   Ar  103   1.749   3.499   0.613
    1   AR   Ar  104   3.015   3.385  -1.346
    1   AR   Ar  105   1.597   3.259   3.722
    1   AR   Ar  106   2.168   3.194   4.557
    1   AR   Ar  107   2.390   3.955   5.351
    1   AR   Ar  108   3.494   2.987   4.142
    1   AR   Ar  109   1.668   4.166   4.371
    1   AR   Ar  110   1.407   4.527   5.578
    1   AR   Ar  111   4.328   4.642   7.173
    1   AR   Ar  112   1.717   5.047   6.667
    1   AR   Ar  113   2.490   4.376   0.536
    1   AR   Ar  114   2.579   5.922   1.185
    1   AR   Ar  115   2.891   4.990  -0.511
    1   AR   Ar  116   4.302   6.902   0.075
    1   AR   Ar  117   1.218   5.056   3.072
    1   AR   Ar  118   1.320   5.963   2.224
    1   AR   Ar  119   1.948   4.016   2.853
    1   AR   Ar  120   2.054   5.176   2.303
    1   AR   Ar  121   6.338   4.627   3.858
    1   AR   Ar  122   2.841   6.076   4.414
    1   AR   Ar  123   2.411   5.155   4.296
    1   AR   Ar  124   2.537   5.861   3.377
    1   AR   Ar  125   0.579   4.906   4.807
    1   AR   Ar  126   0.867   6.603   6.242
    1   AR   Ar  127   2.755   5.306   7.340
    1   AR   Ar  128   2.395   5.755   6.527
    1   AR   Ar  129   2.191   7.118   1.073
    1   AR   Ar  130   4.632   0.865  -1.357
    1   AR   Ar  131   4.416   6.537   1.044
    1   AR   Ar  132   6.606   2.505  -1.030
    1   AR   Ar  133   3.508   0.254   2.892
    1   AR   Ar  134   4.168   1.551   2.813
    1   AR   Ar  135   4.541   0.315   2.897
    1   AR   Ar  136   4.123   0.676   1.994
    1   AR   Ar  137   2.805   7.035   3.585
    1   AR   Ar  138   4.836   1.397   5.034
    1   AR   Ar  139   5.429   1.030   4.163
    1   AR   Ar  140   4.306   1.164   3.999
    1   AR   Ar  141   4.503   0.161   3.965
    1   AR   Ar  142   4.742   6.724   5.765
    1   AR   Ar  143   5.816   6.871   5.878
    1   AR   Ar  144   5.351   0.809   6.830
    1   AR   Ar  145   3.510   2.877   0.387
    1   AR   Ar  146   4.245   2.851   1.610
    1   AR   Ar  147   5.244   2.023   0.254
    1   AR   Ar  148   5.732   3.445  -2.387
    1   AR   Ar  149   4.604   1.385   0.637
    1   AR   Ar  150   2.711   1.702   3.006
    1   AR   Ar  151   3.528   1.731   3.665
    1   AR   Ar  152   2.775   2.845   1.814
    1   AR   Ar  153   2.963   0.883   4.145
    1   AR   Ar  154   3.734   1.863   4.718
    1   AR   Ar  155   5.572   0.785   5.852
    1   AR   Ar  156   4.115   3.709   3.858
    1   AR   Ar  157   3.520   2.012   5.927
    1   AR   Ar  158   1.787   1.971   6.476
    1   AR   Ar  159   4.418   0.713   6.009
    1   AR   Ar  160   3.790   2.937   6.350
    1   AR   Ar  161   4.588   3.010   0.529
    1   AR   Ar  162   4.362   5.448  -0.048
    1   AR   Ar  163   5.789   3.318  -0.258
    1   AR   Ar  164   4.805   5.069   1.710
    1   AR   Ar  165   3.158   3.559   2.855
    1   AR   Ar  166   2.991   4.899   2.905
    1   AR   Ar  167   4.895   2.355   2.434
    1   AR   Ar  168   3.871   4.492   0.170
    1   AR   Ar  169   2.694   2.542   3.688
    1   AR   Ar  170   3.167   4.098   4.638
    1   AR   Ar  171   4.104   3.891   5.057
    1   AR   Ar  172   4.285   4.831   4.526
    1   AR   Ar  173   2.658   2.709   6.249
    1   AR   Ar  174   4.349   4.847   5.731
    1   AR   Ar  175   4.512   3.887   5.936
    1   AR   Ar  176   3.372   5.266   4.935
    1   AR   Ar  177   5.353   5.829  -0.249
    1   AR   Ar  178   3.374   6.578   1.563
    1   AR   Ar  179   3.644   5.615   1.096
    1   AR   Ar  180   3.905   4.082  -1.246
    1   AR   Ar  181   3.214   5.647   2.197
    1   AR   Ar  182   2.467   6.496   2.162
    1   AR   Ar  183   3.598   4.346   2.038
    1   AR   Ar  184   4.447   6.295   1.982
    1   AR   Ar  185   1.043   5.364   4.094
    1   AR   Ar  186   3.407   5.475   3.786
    1   AR   Ar  187   4.881   5.325   3.613
    1   AR   Ar  188   3.580   6.368   3.264
    1   AR   Ar  189   2.633   5.041   5.636
    1   AR   Ar  190   4.219   5.827   6.059
    1   AR   Ar  191   5.256   5.739   5.321
    1   AR   Ar  192   4.261   5.829   5.033
    1   AR   Ar  193   6.284   6.403  -0.242
    1   AR   Ar  194   5.549   6.457  -1.096
    1   AR   Ar  195   5.785   1.090   0.311
    1   AR   Ar  196   5.924   0.878  -1.228
    1   AR   Ar  197   5.069   0.501   1.158
    1   AR   Ar  198   6.058   1.470   1.428
    1   AR   Ar  199   5.176   0.241   2.215
    1   AR   Ar  200   6.829   1.284   0.400
    1   AR   Ar  201   4.853   6.313   3.292
    1   AR   Ar  202   5.148   2.027   4.180
    1   AR   Ar  203   0.450   7.062   4.659
    1   AR   Ar  204   5.487   0.153   3.559
    1   AR   Ar  205   6.621   0.070   3.227
    1   AR   Ar  206   5.164   0.249   4.924
    1   AR   Ar  207   0.117   0.315   5.585
    1   AR   Ar  208   6.807   0.893   4.065
    1   AR   Ar  209   6.550   2.545  -2.230
    1   AR   Ar  210   5.040   1.821   1.501
    1   AR   Ar  211   6.473   2.542   0.315
    1   AR   Ar  212   6.174   4.283  -0.885
    1   AR   Ar  213   3.656   2.428   2.463
    1   AR   Ar  214   4.477   3.439   2.456
    1   AR   Ar  215   6.064   2.174   2.206
    1   AR   Ar  216   6.999   3.535   1.862
    1   AR   Ar  217   4.777   2.897   3.756
    1   AR   Ar  218   4.541   2.524   5.414
    1   AR   Ar  219   5.096   1.276   3.161
    1   AR   Ar  220   5.681   3.554   3.395
    1   AR   Ar  221   6.282   0.352   4.970
    1   AR   Ar  222   4.816   1.739   6.076
    1   AR   Ar  223   6.554   0.698   6.323
    1   AR   Ar  224   5.684   2.291   4.981
    1   AR   Ar  225   5.531   4.487   0.092
    1   AR   Ar  226   4.606   4.674   2.652
    1   AR   Ar  227   7.091   4.466   0.658
    1   AR   Ar  228   6.074   5.481   0.454
    1   AR   Ar  229   6.190   3.876   0.867
    1   AR   Ar  230   3.889   4.610   3.356
    1   AR   Ar  231   6.806   2.257   3.071
    1   AR   Ar  232   4.696   3.891   1.233
    1   AR   Ar  233   6.272   2.693   3.922
    1   AR   Ar  234   6.128   3.951   5.008
    1   AR   Ar  235   0.014   3.417   4.086
    1   AR   Ar  236   5.008   4.247   3.630
    1   AR   Ar  237   5.500   3.274   4.432
    1   AR   Ar  238   5.089   4.242   5.102
    1   AR   Ar  239   6.685   4.607   8.073
    1   AR   Ar  240   6.504   4.231   6.230
    1   AR   Ar  241   6.641   0.473  -0.396
    1   AR   Ar  242   5.510   6.152   1.158
    1   AR   Ar  243   5.516   4.143   2.247
    1   AR   Ar  244   6.910   5.520  -0.353
    1   AR   Ar  245   5.486   5.997   2.446
    1   AR   Ar  246   6.356   6.873   1.723
    1   AR   Ar  247   5.251   2.859   1.503
    1   AR   Ar  248   6.149   0.040   0.650
    1   AR   Ar  249   5.765   4.981   3.102
    1   AR   Ar  250   4.765   6.407   4.350
    1   AR   Ar  251   5.753   5.005   4.535
    1   AR   Ar  252   5.969   6.409   3.679
    1   AR   Ar  253   5.842   4.932   5.623
    1   AR   Ar  254   5.139   5.978   6.346
    1   AR   Ar  255   5.340   4.784   6.951
    1   AR   Ar  256   5.992   6.177   4.713
    7.12000  7.12000 12.00000
Argon-slab step 1460
  256
    1   AR   Ar    1   7.100   1.134  -1.257
    1   AR   Ar    2   6.908   0.562   1.144
    1   AR   Ar    3   7.109   6.877   0.591
    1   AR   Ar    4   0.635   0.611  -0.295
    1   AR   Ar    5   0.194   5.765   1.085
    1   AR   Ar    6   0.442   0.344   2.803
    1   AR   Ar    7   0.262   5.559   2.322
    1   AR   Ar    8   0.373   6.876   1.778
    1   AR   Ar    9   0.751   0.872   3.866
    1   AR   Ar   10   0.276   1.844   4.081
    1   AR   Ar   11   2.490   7.004   4.652
    1   AR   Ar   12   1.376   0.970   2.726
    1   AR   Ar   13   6.554   1.851   4.775
    1   AR   Ar   14   0.116   1.370   6.051
    1   AR   Ar   15   7.015   5.812   8.795
    1   AR   Ar   16   0.525   0.963   4.880
    1   AR   Ar   17   0.111   1.742  -0.355
    1   AR   Ar   18   6.724   3.670  -0.158
    1   AR   Ar   19   0.768   1.945   1.040
    1   AR   Ar   20   0.395   2.817  -2.306
    1   AR   Ar   21   6.277   0.764   2.361
    1   AR   Ar   22   7.106   2.348   2.075
    1   AR   Ar   23   0.411   1.084   2.022
    1   AR   Ar   24   0.145   2.893   0.967
    1   AR   Ar   25   7.035   1.244   3.103
    1   AR   Ar   26   6.029   1.686   3.691
    1   AR   Ar   27   2.014   1.132   3.626
    1   AR   Ar   28   1.040   2.767   4.480
    1   AR   Ar   29   6.048   1.812   6.100
    1   AR   Ar   30   7.052   2.389   6.072
    1   AR   Ar   31   0.435   0.724   7.854
    1   AR   Ar   32   1.587   3.049   5.801
    1   AR   Ar   33   1.178   4.277  -1.655
    1   AR   Ar   34   1.161   5.116   1.498
    1   AR   Ar   35   0.766   3.779   1.232
    1   AR   Ar   36   1.413   0.061  -1.444
    1   AR   Ar   37   0.871   3.240   2.200
    1   AR   Ar   38   7.043   4.519   2.204
    1   AR   Ar   39   0.951   4.392   2.294
    1   AR   Ar   40   1.776   4.199   1.641
    1   AR   Ar   41   0.632   2.257   3.108
    1   AR   Ar   42   6.761   5.254   5.289
    1   AR   Ar   43   6.382   2.967   5.247
    1   AR   Ar   44   0.410   3.310   3.199
    1   AR   Ar   45   0.955   3.727   5.039
    1   AR   Ar   46   6.806   5.210   6.504
    1   AR   Ar   47   6.939   3.591   6.868
    1   AR   Ar   48   6.852   6.632   6.286
    1   AR   Ar   49   6.175   5.477  -1.464
    1   AR   Ar   50   6.414   5.607   1.628
    1   AR   Ar   51   1.098   4.656   0.564
    1   AR   Ar   52   0.322   4.715  -0.300
    1   AR   Ar   53   6.458   5.968   2.729
    1   AR   Ar   54   0.390   6.317   3.546
    1   AR   Ar   55   6.970   5.075   3.071
    1   AR   Ar   56   1.528   6.228   1.240
    1   AR   Ar   57   6.628   3.573   3.024
    1   AR   Ar   58   7.112   5.531   4.109
    1   AR   Ar   59   2.237   5.902   5.250
    1   AR   Ar   60   1.477   6.538   3.921
    1   AR   Ar   61   6.122   5.902   5.851
    1   AR   Ar   62   0.519   6.132   5.175
    1   AR   Ar   63   1.245   5.596   5.842
    1   AR   Ar   64   1.320   6.650   5.088
    1   AR   Ar   65   2.975   0.488   0.326
    1   AR   Ar   66   1.877   1.133   1.103
    1   AR   Ar   67   3.186   6.014   0.037
    1   AR   Ar   68   3.052   0.779  -0.843
    1   AR   Ar   69   2.124   6.554   0.079
    1   AR   Ar   70   1.459   0.060   2.049
    1   AR   Ar   71   3.067   0.503   1.828
    1   AR   Ar   72   3.890   0.668   0.973
    1   AR   Ar   73   1.995   6.713   3.007
    1   AR   Ar   74   1.929   0.833   4.738
    1   AR   Ar   75   3.304   0.360   5.100
    1   AR   Ar   76   2.509   0.567   2.835
    1   AR   Ar   77   2.458   6.701   5.842
    1   AR   Ar   78   1.329   0.650   5.516
    1   AR   Ar   79   3.954   6.470   7.135
    1   AR   Ar   80   3.314   6.145   5.640
    1   AR   Ar   81   1.396   1.349   0.087
    1   AR   Ar   82   0.843   3.353   0.018
    1   AR   Ar   83   2.143   2.170   1.091
    1   AR   Ar   84   2.047   3.983  -3.835
    1   AR   Ar   85   1.130   2.281  -0.183
    1   AR   Ar   86   1.846   2.673   2.072
    1   AR   Ar   87   2.122   1.403   2.251
    1   AR   Ar   88   2.954   3.821   1.522
    1   AR   Ar   89   1.194   1.837   2.191
    1   AR   Ar   90   2.763   2.376   4.835
    1   AR   Ar   91   1.892   2.084   4.266
    1   AR   Ar   92   1.787   2.110   3.052
    1   AR   Ar   93   1.647   1.790   5.159
    1   AR   Ar   94   3.209   0.285   7.350
    1   AR   Ar   95   3.844   6.994   5.980
    1   AR   Ar   96   2.529   0.443   6.524
    1   AR   Ar   97   3.955   2.316  -0.481
    1   AR   Ar   98   2.541   4.861   1.519
    1   AR   Ar   99   4.419   2.673  -1.552
    1   AR   Ar  100   1.252   4.278  -0.518
    1   AR   Ar  101   1.260   2.803   1.094
    1   AR   Ar  102   2.705   4.149   3.594
    1   AR   Ar  103   1.729   3.490   0.559
    1   AR   Ar  104   3.012   3.367  -1.374
    1   AR   Ar  105   1.572   3.239   3.724
    1   AR   Ar  106   2.149   3.188   4.550
    1   AR   Ar  107   2.388   3.973   5.358
    1   AR   Ar  108   3.521   2.987   4.158
    1   AR   Ar  109   1.704   4.198   4.365
    1   AR   Ar  110   1.400   4.527   5.624
    1   AR   Ar  111   4.333   4.682   7.166
    1   AR   Ar  112   1.698   5.070   6.698
    1   AR   Ar  113   2.498   4.355   0.549
    1   AR   Ar  114   2.594   5.939   1.173
    1   AR   Ar  115   2.899   4.979  -0.537
    1   AR   Ar  116   4.315   6.884   0.063
    1   AR   Ar  117   1.234   5.060   3.056
    1   AR   Ar  118   1.318   5.946   2.214
    1   AR   Ar  119   1.942   3.998   2.859
    1   AR   Ar  120   2.044   5.190   2.311
    1   AR   Ar  121   6.335   4.625   3.872
    1   AR   Ar  122   2.850   6.080   4.435
    1   AR   Ar  123   2.390   5.138   4.293
    1   AR   Ar  124   2.529   5.858   3.406
    1   AR   Ar  125   0.577   4.929   4.809
    1   AR   Ar  126   0.850   6.621   6.243
    1   AR   Ar  127   2.771   5.296   7.353
    1   AR   Ar  128   2.397   5.760   6.514
    1   AR   Ar  129   2.195   7.113   1.112
    1   AR   Ar  130   4.640   0.904  -1.367
    1   AR   Ar  131   4.414   6.501   1.050
    1   AR   Ar  132   6.603   2.521  -1.026
    1   AR   Ar  133   3.535   0.271   2.908
    1   AR   Ar  134   4.162   1.576   2.813
    1   AR   Ar  135   4.511   0.322   2.909
    1   AR   Ar  136   4.120   0.675   2.011
    1   AR   Ar  137   2.822   7.061   3.611
    1   AR   Ar  138   4.840   1.411   5.010
    1   AR   Ar  139   5.456   1.043   4.178
    1   AR   Ar  140   4.314   1.110   3.998
    1   AR   Ar  141   4.528   0.136   3.966
    1   AR   Ar  142   4.754   6.744   5.748
    1   AR   Ar  143   5.835   6.850   5.882
    1   AR   Ar  144   5.349   0.799   6.842
    1   AR   Ar  145   3.527   2.880   0.391
    1   AR   Ar  146   4.237   2.857   1.611
    1   AR   Ar  147   5.266   2.026   0.229
    1   AR   Ar  148   5.724   3.449  -2.414
    1   AR   Ar  149   4.557   1.403   0.626
    1   AR   Ar  150   2.725   1.723   3.019
    1   AR   Ar  151   3.502   1.738   3.694
    1   AR   Ar  152   2.753   2.866   1.813
    1   AR   Ar  153   2.987   0.916   4.125
    1   AR   Ar  154   3.728   1.841   4.723
    1   AR   Ar  155   5.578   0.784   5.814
    1   AR   Ar  156   4.112   3.693   3.834
    1   AR   Ar  157   3.522   1.998   5.940
    1   AR   Ar  158   1.772   1.987   6.449
    1   AR   Ar  159   4.412   0.713   6.036
    1   AR   Ar  160   3.804   2.953   6.405
    1   AR   Ar  161   4.543   2.996   0.542
    1   AR   Ar  162   4.340   5.440  -0.043
    1   AR   Ar  163   5.814   3.320  -0.248
    1   AR   Ar  164   4.769   5.079   1.725
    1   AR   Ar  165   3.131   3.574   2.859
    1   AR   Ar  166   3.014   4.905   2.902
    1   AR   Ar  167   4.907   2.333   2.420
    1   AR   Ar  168   3.866   4.513   0.169
    1   AR   Ar  169   2.681   2.517   3.680
    1   AR   Ar  170   3.176   4.096   4.643
    1   AR   Ar  171   4.074   3.859   5.038
    1   AR   Ar  172   4.308   4.846   4.489
    1   AR   Ar  173   2.634   2.720   6.263
    1   AR   Ar  174   4.366   4.874   5.714
    1   AR   Ar  175   4.524   3.850   5.936
    1   AR   Ar  176   3.410   5.290   4.946
    1   AR   Ar  177   5.316   5.874  -0.221
    1   AR   Ar  178   3.359   6.568   1.565
    1   AR   Ar  179   3.636   5.619   1.130
    1   AR   Ar  180   3.901   4.066  -1.265
    1   AR   Ar  181   3.256   5.629   2.171
    1   AR   Ar  182   2.487   6.511   2.157
    1   AR   Ar  183   3.590   4.340   2.060
    1   AR   Ar  184   4.445   6.304   2.009
    1   AR   Ar  185   1.068   5.360   4.089
    1   AR   Ar  186   3.387   5.474   3.785
    1   AR   Ar  187   4.873   5.286   3.628
    1   AR   Ar  188   3.576   6.347   3.268
    1   AR   Ar  189   2.626   5.037   5.673
    1   AR   Ar  190   4.243   5.840   6.035
    1   AR   Ar  191   5.275   5.728   5.339
    1   AR   Ar  192   4.246   5.828   4.998
    1   AR   Ar  193   6.270   6.400  -0.267
    1   AR   Ar  194   5.563   6.413  -1.112
    1   AR   Ar  195   5.777   1.079   0.315
    1   AR   Ar  196   5.915   0.868  -1.255
    1   AR   Ar  197   5.065   0.492   1.177
    1   AR   Ar  198   6.063   1.499   1.412
    1   AR   Ar  199   5.188   0.264   2.186
    1   AR   Ar  200   6.835   1.279   0.402
    1   AR   Ar  201   4.852   6.323   3.288
    1   AR   Ar  202   5.154   1.997   4.158
    1   AR   Ar  203   0.485   7.075   4.667
    1   AR   Ar  204   5.474   0.130   3.594
    1   AR   Ar  205   6.626   0.071   3.231
    1   AR   Ar  206   5.191   0.233   4.938
    1   AR   Ar  207   0.122   0.323   5.598
    1   AR   Ar  208   6.838   0.911   4.040
    1   AR   Ar  209   6.512   2.530  -2.227
    1   AR   Ar  210   5.033   1.821   1.499
    1   AR   Ar  211   6.469   2.547   0.337
    1   AR   Ar  212   6.168   4.268  -0.918
    1   AR   Ar  213   3.669   2.446   2.427
    1   AR   Ar  214   4.495   3.411   2.496
    1   AR   Ar  215   6.082   2.168   2.228
    1   AR   Ar  216   6.978   3.545   1.880
    1   AR   Ar  217   4.776   2.924   3.759
    1   AR   Ar  218   4.560   2.532   5.414
    1   AR   Ar  219   5.085   1.270   3.140
    1   AR   Ar  220   5.676   3.527   3.417
    1   AR   Ar  221   6.309   0.339   4.967
    1   AR   Ar  222   4.778   1.747   6.094
    1   AR   Ar  223   6.523   0.710   6.311
    1   AR   Ar  224   5.694   2.258   4.998
    1   AR   Ar  225   5.542   4.495   0.124
    1   AR   Ar  226   4.603   4.664   2.659
    1   AR   Ar  227   7.064   4.471   0.668
    1   AR   Ar  228   6.086   5.502   0.468
    1   AR   Ar  229   6.155   3.872   0.853
    1   AR   Ar  230   3.907   4.591   3.331
    1   AR   Ar  231   6.822   2.234   3.074
    1   AR   Ar  232   4.669   3.894   1.227
    1   AR   Ar  233   6.297   2.710   3.923
    1   AR   Ar  234   6.107   3.961   5.008
    1   AR   Ar  235   0.012   3.402   4.080
    1   AR   Ar  236   5.013   4.261   3.608
    1   AR   Ar  237   5.489   3.268   4.431
    1   AR   Ar  238   5.122   4.275   5.088
    1   AR   Ar  239   6.716   4.614   8.085
    1   AR   Ar  240   6.518   4.227   6.230
    1   AR   Ar  241   6.629   0.476  -0.411
    1   AR   Ar  242   5.512   6.152   1.113
    1   AR   Ar  243   5.488   4.140   2.249
    1   AR   Ar  244   6.880   5.530  -0.344
    1   AR   Ar  245   5.494   6.021   2.456
    1   AR   Ar  246   6.317   6.831   1.713
    1   AR   Ar  247   5.246   2.853   1.510
    1   AR   Ar  248   6.133   0.042   0.623
    1   AR   Ar  249   5.736   4.999   3.081
    1   AR   Ar  250   4.765   6.369   4.328
    1   AR   Ar  251   5.757   5.027   4.533
    1   AR   Ar  252   6.005   6.400   3.645
    1   AR   Ar  253   5.815   4.922   5.622
    1   AR   Ar  254   5.143   5.956   6.349
    1   AR   Ar  255   5.315   4.780   6.950
    1   AR   Ar  256   6.034   6.168   4.708
    7.12000  7.12000 12.00000
Argon-slab step 1465
  256
    1   AR   Ar    1   7.088   1.132  -1.282
    1   AR   Ar    2   6.898   0.552   1.171
    1   AR   Ar    3   0.024   6.885   0.617
    1   AR   Ar    4   0.623   0.602  -0.279
    1   AR   Ar    5   0.222   5.752   1.068
    1   AR   Ar    6   0.433   0.348   2.794
    1   AR   Ar    7   0.283   5.542   2.314
    1   AR   Ar    8   0.383   6.861   1.801
    1   AR   Ar    9   0.733   0.873   3.852
    1   AR   Ar   10   0.294   1.840   4.045
    1   AR   Ar   11   2.461   6.996   4.627
    1   AR   Ar   12   1.385   0.930   2.698
    1   AR   Ar   13   6.564   1.840   4.810
    1   AR   Ar   14   0.130   1.371   6.068
    1   AR   Ar   15   7.018   5.836   8.766
    1   AR   Ar   16   0.528   0.968   4.893
    1   AR   Ar   17   0.150   1.763  -0.344
    1   AR   Ar   18   6.713   3.683  -0.165
    1   AR   Ar   19   0.777   1.949   1.061
    1   AR   Ar   20   0.376   2.825  -2.331
    1   AR   Ar   21   6.278   0.796   2.345
    1   AR   Ar   22   0.007   2.367   2.077
    1   AR   Ar   23   0.400   1.051   2.040
    1   AR   Ar   24   0.165   2.877   0.958
    1   AR   Ar   25   7.030   1.258   3.097
    1   AR   Ar   26   6.043   1.725   3.684
    1   AR   Ar   27   2.016   1.162   3.630
    1   AR   Ar   28   1.044   2.790   4.471
    1   AR   Ar   29   6.052   1.818   6.120
    1   AR   Ar   30   7.073   2.389   6.070
    1   AR   Ar   31   0.434   0.702   7.831
    1   AR   Ar   32   1.556   3.043   5.813
    1   AR   Ar   33   1.177   4.291  -1.638
    1   AR   Ar   34   1.157   5.129   1.495
    1   AR   Ar   35   0.765   3.755   1.195
    1   AR   Ar   36   1.383   0.087  -1.404
    1   AR   Ar   37   0.890   3.239   2.215
    1   AR   Ar   38   7.038   4.517   2.184
    1   AR   Ar   39   0.946   4.404   2.276
    1   AR   Ar   40   1.783   4.204   1.629
    1   AR   Ar   41   0.660   2.272   3.141
    1   AR   Ar   42   6.770   5.264   5.298
    1   AR   Ar   43   6.395   2.971   5.256
    1   AR   Ar   44   0.388   3.326   3.161
    1   AR   Ar   45   0.968   3.696   5.091
    1   AR   Ar   46   6.811   5.202   6.501
    1   AR   Ar   47   6.915   3.595   6.862
    1   AR   Ar   48   6.851   6.614   6.333
    1   AR   Ar   49   6.197   5.432  -1.485
    1   AR   Ar   50   6.445   5.602   1.628
    1   AR   Ar   51   1.113   4.680   0.585
    1   AR   Ar   52   0.326   4.701  -0.312
    1   AR   Ar   53   6.470   5.984   2.729
    1   AR   Ar   54   0.388   6.310   3.565
    1   AR   Ar   55   6.942   5.095   3.077
    1   AR   Ar   56   1.504   6.243   1.251
    1   AR   Ar   57   6.634   3.559   3.029
    1   AR   Ar   58   7.110   5.513   4.093
    1   AR   Ar   59   2.205   5.922   5.265
    1   AR   Ar   60   1.468   6.525   3.950
    1   AR   Ar   61   6.126   5.902   5.845
    1   AR   Ar   62   0.515   6.129   5.172
    1   AR   Ar   63   1.267   5.600   5.859
    1   AR   Ar   64   1.329   6.636   5.059
    1   AR   Ar   65   2.988   0.502   0.326
    1   AR   Ar   66   1.887   1.136   1.099
    1   AR   Ar   67   3.203   6.019   0.029
    1   AR   Ar   68   3.039   0.775  -0.822
    1   AR   Ar   69   2.128   6.568   0.079
    1   AR   Ar   70   1.435   0.090   2.068
    1   AR   Ar   71   3.095   0.468   1.821
    1   AR   Ar   72   3.878   0.696   0.981
    1   AR   Ar   73   2.021   6.720   3.009
    1   AR   Ar   74   1.908   0.790   4.711
    1   AR   Ar   75   3.319   0.360   5.073
    1   AR   Ar   76   2.507   0.563   2.852
    1   AR   Ar   77   2.454   6.690   5.818
    1   AR   Ar   78   1.322   0.634   5.512
    1   AR   Ar   79   3.960   6.454   7.118
    1   AR   Ar   80   3.313   6.129   5.631
    1   AR   Ar   81   1.402   1.350   0.074
    1   AR   Ar   82   0.879   3.334  -0.020
    1   AR   Ar   83   2.154   2.180   1.103
    1   AR   Ar   84   2.028   4.001  -3.829
    1   AR   Ar   85   1.156   2.285  -0.177
    1   AR   Ar   86   1.826   2.662   2.027
    1   AR   Ar   87   2.136   1.409   2.244
    1   AR   Ar   88   2.968   3.818   1.520
    1   AR   Ar   89   1.178   1.831   2.172
    1   AR   Ar   90   2.791   2.388   4.837
    1   AR   Ar   91   1.901   2.090   4.237
    1   AR   Ar   92   1.781   2.091   3.033
    1   AR   Ar   93   1.662   1.803   5.145
    1   AR   Ar   94   3.189   0.320   7.340
    1   AR   Ar   95   3.834   6.977   5.955
    1   AR   Ar   96   2.542   0.455   6.519
    1   AR   Ar   97   3.952   2.294  -0.448
    1   AR   Ar   98   2.516   4.917   1.504
    1   AR   Ar   99   4.436   2.656  -1.531
    1   AR   Ar  100   1.235   4.276  -0.538
    1   AR   Ar  101   1.265   2.801   1.078
    1   AR   Ar  102   2.695   4.167   3.612
    1   AR   Ar  103   1.717   3.491   0.501
    1   AR   Ar  104   3.018   3.379  -1.409
    1   AR   Ar  105   1.546   3.221   3.715
    1   AR   Ar  106   2.132   3.182   4.549
    1   AR   Ar  107   2.378   3.989   5.366
    1   AR   Ar  108   3.527   2.982   4.156
    1   AR   Ar  109   1.742   4.231   4.358
    1   AR   Ar  110   1.394   4.527   5.669
    1   AR   Ar  111   4.330   4.722   7.160
    1   AR   Ar  112   1.674   5.085   6.731
    1   AR   Ar  113   2.505   4.332   0.563
    1   AR   Ar  114   2.607   5.956   1.161
    1   AR   Ar  115   2.907   4.968  -0.561
    1   AR   Ar  116   4.328   6.866   0.049
    1   AR   Ar  117   1.249   5.066   3.040
    1   AR   Ar  118   1.316   5.939   2.210
    1   AR   Ar  119   1.938   3.992   2.868
    1   AR   Ar  120   2.028   5.201   2.325
    1   AR   Ar  121   6.343   4.615   3.876
    1   AR   Ar  122   2.864   6.086   4.454
    1   AR   Ar  123   2.385   5.112   4.289
    1   AR   Ar  124   2.514   5.858   3.432
    1   AR   Ar  125   0.569   4.945   4.824
    1   AR   Ar  126   0.849   6.589   6.247
    1   AR   Ar  127   2.788   5.283   7.369
    1   AR   Ar  128   2.403   5.776   6.492
    1   AR   Ar  129   2.201   7.108   1.152
    1   AR   Ar  130   4.649   0.943  -1.378
    1   AR   Ar  131   4.412   6.468   1.046
    1   AR   Ar  132   6.605   2.498  -1.065
    1   AR   Ar  133   3.552   0.289   2.922
    1   AR   Ar  134   4.153   1.599   2.813
    1   AR   Ar  135   4.489   0.329   2.933
    1   AR   Ar  136   4.119   0.676   2.027
    1   AR   Ar  137   2.826   7.068   3.647
    1   AR   Ar  138   4.843   1.424   4.988
    1   AR   Ar  139   5.480   1.041   4.199
    1   AR   Ar  140   4.322   1.066   3.996
    1   AR   Ar  141   4.546   0.113   3.967
    1   AR   Ar  142   4.779   6.761   5.724
    1   AR   Ar  143   5.852   6.823   5.881
    1   AR   Ar  144   5.346   0.790   6.854
    1   AR   Ar  145   3.539   2.883   0.396
    1   AR   Ar  146   4.223   2.862   1.611
    1   AR   Ar  147   5.292   2.036   0.202
    1   AR   Ar  148   5.716   3.452  -2.441
    1   AR   Ar  149   4.508   1.419   0.616
    1   AR   Ar  150   2.745   1.739   3.029
    1   AR   Ar  151   3.478   1.748   3.722
    1   AR   Ar  152   2.747   2.885   1.810
    1   AR   Ar  153   3.011   0.947   4.107
    1   AR   Ar  154   3.723   1.819   4.730
    1   AR   Ar  155   5.581   0.785   5.770
    1   AR   Ar  156   4.112   3.690   3.808
    1   AR   Ar  157   3.524   1.984   5.950
    1   AR   Ar  158   1.757   2.004   6.421
    1   AR   Ar  159   4.411   0.717   6.062
    1   AR   Ar  160   3.819   2.971   6.458
    1   AR   Ar  161   4.506   2.980   0.556
    1   AR   Ar  162   4.318   5.435  -0.037
    1   AR   Ar  163   5.827   3.318  -0.237
    1   AR   Ar  164   4.734   5.091   1.736
    1   AR   Ar  165   3.106   3.585   2.859
    1   AR   Ar  166   3.033   4.911   2.898
    1   AR   Ar  167   4.919   2.313   2.410
    1   AR   Ar  168   3.858   4.532   0.169
    1   AR   Ar  169   2.705   2.525   3.663
    1   AR   Ar  170   3.179   4.098   4.641
    1   AR   Ar  171   4.047   3.826   5.013
    1   AR   Ar  172   4.332   4.860   4.451
    1   AR   Ar  173   2.611   2.731   6.277
    1   AR   Ar  174   4.384   4.900   5.692
    1   AR   Ar  175   4.521   3.834   5.949
    1   AR   Ar  176   3.438   5.306   4.955
    1   AR   Ar  177   5.279   5.917  -0.192
    1   AR   Ar  178   3.349   6.561   1.567
    1   AR   Ar  179   3.630   5.621   1.162
    1   AR   Ar  180   3.898   4.049  -1.284
    1   AR   Ar  181   3.296   5.612   2.144
    1   AR   Ar  182   2.508   6.525   2.145
    1   AR   Ar  183   3.592   4.342   2.091
    1   AR   Ar  184   4.442   6.311   2.051
    1   AR   Ar  185   1.103   5.364   4.075
    1   AR   Ar  186   3.375   5.463   3.788
    1   AR   Ar  187   4.862   5.251   3.645
    1   AR   Ar  188   3.575   6.330   3.269
    1   AR   Ar  189   2.619   5.031   5.711
    1   AR   Ar  190   4.250   5.855   6.012
    1   AR   Ar  191   5.282   5.721   5.347
    1   AR   Ar  192   4.234   5.830   4.965
    1   AR   Ar  193   6.256   6.400  -0.290
    1   AR   Ar  194   5.578   6.371  -1.128
    1   AR   Ar  195   5.769   1.065   0.321
    1   AR   Ar  196   5.907   0.858  -1.282
    1   AR   Ar  197   5.061   0.468   1.175
    1   AR   Ar  198   6.071   1.524   1.393
    1   AR   Ar  199   5.209   0.284   2.152
    1   AR   Ar  200   6.836   1.270   0.413
    1   AR   Ar  201   4.850   6.336   3.280
    1   AR   Ar  202   5.171   1.996   4.170
    1   AR   Ar  203   0.516   7.088   4.668
    1   AR   Ar  204   5.463   0.112   3.624
    1   AR   Ar  205   6.629   0.073   3.236
    1   AR   Ar  206   5.218   0.217   4.951
    1   AR   Ar  207   0.118   0.328   5.630
    1   AR   Ar  208   6.861   0.926   4.022
    1   AR   Ar  209   6.469   2.515  -2.223
    1   AR   Ar  210   5.024   1.818   1.497
    1   AR   Ar  211   6.463   2.550   0.357
    1   AR   Ar  212   6.161   4.253  -0.949
    1   AR   Ar  213   3.679   2.466   2.393
    1   AR   Ar  214   4.513   3.385   2.538
    1   AR   Ar  215   6.096   2.164   2.251
    1   AR   Ar  216   6.957   3.549   1.896
    1   AR   Ar  217   4.767   2.940   3.790
    1   AR   Ar  218   4.577   2.540   5.411
    1   AR   Ar  219   5.072   1.260   3.118
    1   AR   Ar  220   5.666   3.498   3.429
    1   AR   Ar  221   6.336   0.325   4.964
    1   AR   Ar  222   4.764   1.744   6.098
    1   AR   Ar  223   6.485   0.715   6.302
    1   AR   Ar  224   5.689   2.227   5.021
    1   AR   Ar  225   5.552   4.504   0.155
    1   AR   Ar  226   4.610   4.653   2.660
    1   AR   Ar  227   7.038   4.476   0.681
    1   AR   Ar  228   6.101   5.521   0.482
    1   AR   Ar  229   6.121   3.865   0.839
    1   AR   Ar  230   3.894   4.608   3.301
    1   AR   Ar  231   6.805   2.217   3.080
    1   AR   Ar  232   4.649   3.894   1.221
    1   AR   Ar  233   6.322   2.727   3.926
    1   AR   Ar  234   6.091   3.974   5.008
    1   AR   Ar  235   0.005   3.388   4.088
    1   AR   Ar  236   5.014   4.277   3.588
    1   AR   Ar  237   5.480   3.262   4.437
    1   AR   Ar  238   5.149   4.309   5.073
    1   AR   Ar  239   6.746   4.621   8.097
    1   AR   Ar  240   6.535   4.233   6.222
    1   AR   Ar  241   6.617   0.479  -0.423
    1   AR   Ar  242   5.513   6.154   1.070
    1   AR   Ar  243   5.460   4.138   2.252
    1   AR   Ar  244   6.844   5.547  -0.334
    1   AR   Ar  245   5.493   6.045   2.461
    1   AR   Ar  246   6.278   6.789   1.702
    1   AR   Ar  247   5.248   2.851   1.516
    1   AR   Ar  248   6.109   0.046   0.595
    1   AR   Ar  249   5.702   5.011   3.060
    1   AR   Ar  250   4.775   6.325   4.309
    1   AR   Ar  251   5.750   5.057   4.542
    1   AR   Ar  252   6.022   6.390   3.629
    1   AR   Ar  253   5.788   4.903   5.626
    1   AR   Ar  254   5.164   5.934   6.364
    1   AR   Ar  255   5.297   4.778   6.945
    1   AR   Ar  256   6.077   6.160   4.705
    7.12000  7.12000 12.00000
Argon-slab step 1470
  256
    1   AR   Ar    1   7.076   1.130  -1.305
    1   AR   Ar    2   6.886   0.548   1.208
    1   AR   Ar    3   0.063   6.883   0.638
    1   AR   Ar    4   0.609   0.595  -0.263
    1   AR   Ar    5   0.253   5.740   1.050
    1   AR   Ar    6   0.421   0.342   2.795
    1   AR   Ar    7   0.311   5.530   2.297
    1   AR   Ar    8   0.391   6.845   1.823
    1   AR   Ar    9   0.724   0.872   3.834
    1   AR   Ar   10   0.293   1.820   4.063
    1   AR   Ar   11   2.427   6.990   4.607
    1   AR   Ar   12   1.387   0.888   2.680
    1   AR   Ar   13   6.585   1.823   4.842
    1   AR   Ar   14   0.140   1.355   6.072
    1   AR   Ar   15   7.020   5.859   8.736
    1   AR   Ar   16   0.530   0.982   4.905
    1   AR   Ar   17   0.192   1.788  -0.339
    1   AR   Ar   18   6.720   3.704  -0.168
    1   AR   Ar   19   0.782   1.941   1.082
    1   AR   Ar   20   0.326   2.793  -2.313
    1   AR   Ar   21   6.280   0.827   2.327
    1   AR   Ar   22   0.034   2.386   2.076
    1   AR   Ar   23   0.388   1.022   2.054
    1   AR   Ar   24   0.185   2.862   0.951
    1   AR   Ar   25   7.029   1.264   3.081
    1   AR   Ar   26   6.065   1.763   3.672
    1   AR   Ar   27   2.017   1.192   3.634
    1   AR   Ar   28   1.042   2.809   4.467
    1   AR   Ar   29   6.056   1.822   6.139
    1   AR   Ar   30   7.091   2.394   6.067
    1   AR   Ar   31   0.432   0.680   7.808
    1   AR   Ar   32   1.527   3.037   5.823
    1   AR   Ar   33   1.176   4.305  -1.620
    1   AR   Ar   34   1.153   5.146   1.497
    1   AR   Ar   35   0.764   3.735   1.158
    1   AR   Ar   36   1.355   0.100  -1.404
    1   AR   Ar   37   0.910   3.238   2.227
    1   AR   Ar   38   7.042   4.529   2.179
    1   AR   Ar   39   0.950   4.394   2.287
    1   AR   Ar   40   1.788   4.204   1.616
    1   AR   Ar   41   0.705   2.286   3.172
    1   AR   Ar   42   6.779   5.274   5.305
    1   AR   Ar   43   6.410   2.975   5.266
    1   AR   Ar   44   0.406   3.331   3.122
    1   AR   Ar   45   0.981   3.664   5.140
    1   AR   Ar   46   6.816   5.199   6.497
    1   AR   Ar   47   6.895   3.585   6.864
    1   AR   Ar   48   6.849   6.598   6.380
    1   AR   Ar   49   6.219   5.388  -1.504
    1   AR   Ar   50   6.475   5.598   1.629
    1   AR   Ar   51   1.126   4.698   0.599
    1   AR   Ar   52   0.325   4.691  -0.347
    1   AR   Ar   53   6.488   6.001   2.730
    1   AR   Ar   54   0.388   6.307   3.581
    1   AR   Ar   55   6.911   5.109   3.092
    1   AR   Ar   56   1.480   6.261   1.258
    1   AR   Ar   57   6.607   3.556   3.027
    1   AR   Ar   58   7.104   5.492   4.080
    1   AR   Ar   59   2.168   5.931   5.275
    1   AR   Ar   60   1.460   6.512   3.979
    1   AR   Ar   61   6.138   5.890   5.855
    1   AR   Ar   62   0.507   6.122   5.168
    1   AR   Ar   63   1.289   5.606   5.875
    1   AR   Ar   64   1.360   6.629   5.033
    1   AR   Ar   65   3.000   0.514   0.326
    1   AR   Ar   66   1.894   1.144   1.101
    1   AR   Ar   67   3.221   6.022   0.022
    1   AR   Ar   68   3.026   0.771  -0.800
    1   AR   Ar   69   2.129   6.583   0.083
    1   AR   Ar   70   1.413   0.115   2.084
    1   AR   Ar   71   3.119   0.434   1.815
    1   AR   Ar   72   3.863   0.718   0.989
    1   AR   Ar   73   2.041   6.729   3.014
    1   AR   Ar   74   1.882   0.760   4.686
    1   AR   Ar   75   3.336   0.361   5.046
    1   AR   Ar   76   2.533   0.549   2.840
    1   AR   Ar   77   2.451   6.693   5.801
    1   AR   Ar   78   1.317   0.634   5.502
    1   AR   Ar   79   3.965   6.438   7.099
    1   AR   Ar   80   3.287   6.131   5.612
    1   AR   Ar   81   1.409   1.342   0.064
    1   AR   Ar   82   0.905   3.315  -0.061
    1   AR   Ar   83   2.166   2.190   1.114
    1   AR   Ar   84   2.022   4.007  -3.815
    1   AR   Ar   85   1.180   2.297  -0.172
    1   AR   Ar   86   1.793   2.650   1.987
    1   AR   Ar   87   2.149   1.403   2.237
    1   AR   Ar   88   2.976   3.820   1.510
    1   AR   Ar   89   1.156   1.827   2.150
    1   AR   Ar   90   2.819   2.399   4.840
    1   AR   Ar   91   1.911   2.099   4.195
    1   AR   Ar   92   1.767   2.068   3.007
    1   AR   Ar   93   1.671   1.816   5.136
    1   AR   Ar   94   3.171   0.355   7.331
    1   AR   Ar   95   3.814   6.961   5.933
    1   AR   Ar   96   2.552   0.467   6.511
    1   AR   Ar   97   3.951   2.273  -0.414
    1   AR   Ar   98   2.502   4.974   1.482
    1   AR   Ar   99   4.452   2.639  -1.510
    1   AR   Ar  100   1.223   4.272  -0.556
    1   AR   Ar  101   1.282   2.800   1.070
    1   AR   Ar  102   2.685   4.188   3.636
    1   AR   Ar  103   1.716   3.501   0.446
    1   AR   Ar  104   3.012   3.373  -1.408
    1   AR   Ar  105   1.521   3.207   3.694
    1   AR   Ar  106   2.118   3.179   4.554
    1   AR   Ar  107   2.365   4.004   5.373
    1   AR   Ar  108   3.523   2.970   4.155
    1   AR   Ar  109   1.780   4.262   4.353
    1   AR   Ar  110   1.410   4.531   5.654
    1   AR   Ar  111   4.317   4.761   7.154
    1   AR   Ar  112   1.647   5.097   6.764
    1   AR   Ar  113   2.512   4.310   0.577
    1   AR   Ar  114   2.615   5.973   1.147
    1   AR   Ar  115   2.919   4.996  -0.538
    1   AR   Ar  116   4.338   6.851   0.038
    1   AR   Ar  117   1.264   5.074   3.026
    1   AR   Ar  118   1.315   5.963   2.213
    1   AR   Ar  119   1.932   3.987   2.874
    1   AR   Ar  120   2.022   5.181   2.339
    1   AR   Ar  121   6.357   4.598   3.875
    1   AR   Ar  122   2.881   6.090   4.472
    1   AR   Ar  123   2.381   5.086   4.285
    1   AR   Ar  124   2.494   5.858   3.454
    1   AR   Ar  125   0.559   4.956   4.846
    1   AR   Ar  126   0.848   6.558   6.247
    1   AR   Ar  127   2.806   5.269   7.386
    1   AR   Ar  128   2.412   5.797   6.465
    1   AR   Ar  129   2.208   7.102   1.194
    1   AR   Ar  130   4.658   0.982  -1.387
    1   AR   Ar  131   4.403   6.471   1.055
    1   AR   Ar  132   6.608   2.476  -1.103
    1   AR   Ar  133   3.544   0.306   2.934
    1   AR   Ar  134   4.138   1.621   2.812
    1   AR   Ar  135   4.496   0.329   2.953
    1   AR   Ar  136   4.121   0.679   2.042
    1   AR   Ar  137   2.815   7.047   3.691
    1   AR   Ar  138   4.863   1.425   4.968
    1   AR   Ar  139   5.504   1.025   4.224
    1   AR   Ar  140   4.328   1.036   3.995
    1   AR   Ar  141   4.552   0.085   3.972
    1   AR   Ar  142   4.812   6.776   5.698
    1   AR   Ar  143   5.864   6.813   5.878
    1   AR   Ar  144   5.343   0.781   6.864
    1   AR   Ar  145   3.539   2.885   0.400
    1   AR   Ar  146   4.206   2.869   1.607
    1   AR   Ar  147   5.319   2.049   0.177
    1   AR   Ar  148   5.709   3.454  -2.467
    1   AR   Ar  149   4.461   1.437   0.604
    1   AR   Ar  150   2.768   1.747   3.032
    1   AR   Ar  151   3.464   1.766   3.749
    1   AR   Ar  152   2.754   2.899   1.807
    1   AR   Ar  153   3.030   0.971   4.093
    1   AR   Ar  154   3.721   1.796   4.741
    1   AR   Ar  155   5.582   0.790   5.726
    1   AR   Ar  156   4.112   3.703   3.779
    1   AR   Ar  157   3.528   1.970   5.958
    1   AR   Ar  158   1.741   2.021   6.391
    1   AR   Ar  159   4.414   0.723   6.088
    1   AR   Ar  160   3.834   2.988   6.510
    1   AR   Ar  161   4.482   2.965   0.572
    1   AR   Ar  162   4.296   5.435  -0.030
    1   AR   Ar  163   5.824   3.309  -0.227
    1   AR   Ar  164   4.700   5.106   1.743
    1   AR   Ar  165   3.084   3.595   2.855
    1   AR   Ar  166   3.040   4.920   2.889
    1   AR   Ar  167   4.929   2.293   2.404
    1   AR   Ar  168   3.848   4.547   0.171
    1   AR   Ar  169   2.736   2.547   3.647
    1   AR   Ar  170   3.172   4.104   4.632
    1   AR   Ar  171   4.031   3.790   4.988
    1   AR   Ar  172   4.354   4.869   4.416
    1   AR   Ar  173   2.588   2.742   6.288
    1   AR   Ar  174   4.403   4.921   5.665
    1   AR   Ar  175   4.521   3.817   5.964
    1   AR   Ar  176   3.448   5.308   4.963
    1   AR   Ar  177   5.261   5.933  -0.176
    1   AR   Ar  178   3.348   6.560   1.567
    1   AR   Ar  179   3.636   5.598   1.161
    1   AR   Ar  180   3.894   4.032  -1.302
    1   AR   Ar  181   3.335   5.597   2.120
    1   AR   Ar  182   2.526   6.537   2.131
    1   AR   Ar  183   3.601   4.350   2.129
    1   AR   Ar  184   4.440   6.317   2.100
    1   AR   Ar  185   1.142   5.373   4.055
    1   AR   Ar  186   3.371   5.442   3.796
    1   AR   Ar  187   4.849   5.232   3.661
    1   AR   Ar  188   3.575   6.316   3.266
    1   AR   Ar  189   2.613   5.024   5.749
    1   AR   Ar  190   4.247   5.873   5.992
    1   AR   Ar  191   5.275   5.718   5.344
    1   AR   Ar  192   4.233   5.837   4.939
    1   AR   Ar  193   6.242   6.406  -0.310
    1   AR   Ar  194   5.579   6.351  -1.149
    1   AR   Ar  195   5.774   1.055   0.327
    1   AR   Ar  196   5.899   0.847  -1.307
    1   AR   Ar  197   5.063   0.443   1.174
    1   AR   Ar  198   6.079   1.536   1.380
    1   AR   Ar  199   5.234   0.303   2.126
    1   AR   Ar  200   6.833   1.258   0.429
    1   AR   Ar  201   4.848   6.350   3.268
    1   AR   Ar  202   5.185   2.009   4.185
    1   AR   Ar  203   0.525   7.096   4.665
    1   AR   Ar  204   5.460   0.101   3.649
    1   AR   Ar  205   6.631   0.076   3.242
    1   AR   Ar  206   5.244   0.201   4.958
    1   AR   Ar  207   0.115   0.330   5.663
    1   AR   Ar  208   6.873   0.936   4.016
    1   AR   Ar  209   6.425   2.500  -2.218
    1   AR   Ar  210   5.015   1.810   1.492
    1   AR   Ar  211   6.456   2.553   0.375
    1   AR   Ar  212   6.153   4.239  -0.979
    1   AR   Ar  213   3.686   2.486   2.362
    1   AR   Ar  214   4.524   3.363   2.574
    1   AR   Ar  215   6.105   2.159   2.277
    1   AR   Ar  216   6.936   3.545   1.910
    1   AR   Ar  217   4.757   2.948   3.816
    1   AR   Ar  218   4.594   2.550   5.405
    1   AR   Ar  219   5.066   1.249   3.098
    1   AR   Ar  220   5.649   3.473   3.426
    1   AR   Ar  221   6.362   0.312   4.961
    1   AR   Ar  222   4.785   1.725   6.082
    1   AR   Ar  223   6.444   0.717   6.296
    1   AR   Ar  224   5.672   2.201   5.051
    1   AR   Ar  225   5.544   4.521   0.159
    1   AR   Ar  226   4.629   4.642   2.654
    1   AR   Ar  227   7.013   4.480   0.694
    1   AR   Ar  228   6.118   5.538   0.495
    1   AR   Ar  229   6.087   3.857   0.825
    1   AR   Ar  230   3.871   4.631   3.284
    1   AR   Ar  231   6.773   2.213   3.088
    1   AR   Ar  232   4.630   3.894   1.216
    1   AR   Ar  233   6.345   2.744   3.930
    1   AR   Ar  234   6.068   3.955   4.968
    1   AR   Ar  235   7.116   3.376   4.105
    1   AR   Ar  236   5.015   4.285   3.571
    1   AR   Ar  237   5.475   3.257   4.450
    1   AR   Ar  238   5.163   4.332   5.059
    1   AR   Ar  239   6.777   4.629   8.109
    1   AR   Ar  240   6.578   4.262   6.207
    1   AR   Ar  241   6.604   0.482  -0.434
    1   AR   Ar  242   5.512   6.159   1.029
    1   AR   Ar  243   5.433   4.134   2.255
    1   AR   Ar  244   6.808   5.564  -0.325
    1   AR   Ar  245   5.488   6.070   2.463
    1   AR   Ar  246   6.240   6.747   1.691
    1   AR   Ar  247   5.256   2.853   1.520
    1   AR   Ar  248   6.082   0.048   0.568
    1   AR   Ar  249   5.671   5.024   3.036
    1   AR   Ar  250   4.795   6.278   4.290
    1   AR   Ar  251   5.737   5.094   4.557
    1   AR   Ar  252   6.025   6.377   3.624
    1   AR   Ar  253   5.768   4.877   5.636
    1   AR   Ar  254   5.198   5.913   6.386
    1   AR   Ar  255   5.291   4.777   6.935
    1   AR   Ar  256   6.120   6.151   4.703
    7.12000  7.12000 12.00000
Argon-slab step 1475
  256
    1   AR   Ar    1   7.063   1.127  -1.326
    1   AR   Ar    2   6.871   0.547   1.252
    1   AR   Ar    3   0.103   6.876   0.655
    1   AR   Ar    4   0.594   0.590  -0.247
    1   AR   Ar    5   0.285   5.727   1.033
    1   AR   Ar    6   0.414   0.329   2.801
    1   AR   Ar    7   0.341   5.520   2.276
    1   AR   Ar    8   0.399   6.828   1.845
    1   AR   Ar    9   0.728   0.867   3.810
    1   AR   Ar   10   0.291   1.806   4.082
    1   AR   Ar   11   2.385   6.986   4.597
    1   AR   Ar   12   1.385   0.856   2.675
    1   AR   Ar   13   6.610   1.805   4.875
    1   AR   Ar   14   0.141   1.314   6.058
    1   AR   Ar   15   7.023   5.881   8.706
    1   AR   Ar   16   0.528   1.004   4.916
    1   AR   Ar   17   0.236   1.813  -0.337
    1   AR   Ar   18   6.741   3.731  -0.168
    1   AR   Ar   19   0.781   1.923   1.103
    1   AR   Ar   20   0.277   2.760  -2.295
    1   AR   Ar   21   6.283   0.858   2.310
    1   AR   Ar   22   0.064   2.407   2.074
    1   AR   Ar   23   0.375   0.999   2.063
    1   AR   Ar   24   0.205   2.847   0.944
    1   AR   Ar   25   7.033   1.263   3.059
    1   AR   Ar   26   6.086   1.795   3.660
    1   AR   Ar   27   2.018   1.219   3.637
    1   AR   Ar   28   1.036   2.822   4.471
    1   AR   Ar   29   6.060   1.825   6.155
    1   AR   Ar   30   7.108   2.403   6.063
    1   AR   Ar   31   0.431   0.658   7.785
    1   AR   Ar   32   1.501   3.029   5.833
    1   AR   Ar   33   1.174   4.318  -1.605
    1   AR   Ar   34   1.150   5.167   1.508
    1   AR   Ar   35   0.764   3.719   1.122
    1   AR   Ar   36   1.329   0.106  -1.430
    1   AR   Ar   37   0.926   3.230   2.232
    1   AR   Ar   38   7.050   4.552   2.184
    1   AR   Ar   39   0.957   4.377   2.305
    1   AR   Ar   40   1.791   4.202   1.603
    1   AR   Ar   41   0.753   2.300   3.201
    1   AR   Ar   42   6.788   5.284   5.311
    1   AR   Ar   43   6.427   2.977   5.275
    1   AR   Ar   44   0.446   3.332   3.087
    1   AR   Ar   45   0.994   3.635   5.187
    1   AR   Ar   46   6.822   5.204   6.493
    1   AR   Ar   47   6.875   3.552   6.870
    1   AR   Ar   48   6.848   6.581   6.424
    1   AR   Ar   49   6.241   5.344  -1.520
    1   AR   Ar   50   6.502   5.593   1.633
    1   AR   Ar   51   1.139   4.711   0.606
    1   AR   Ar   52   0.318   4.682  -0.380
    1   AR   Ar   53   6.510   6.020   2.729
    1   AR   Ar   54   0.389   6.308   3.595
    1   AR   Ar   55   6.878   5.120   3.110
    1   AR   Ar   56   1.457   6.279   1.260
    1   AR   Ar   57   6.562   3.558   3.020
    1   AR   Ar   58   7.096   5.468   4.071
    1   AR   Ar   59   2.160   5.960   5.270
    1   AR   Ar   60   1.452   6.499   4.007
    1   AR   Ar   61   6.153   5.864   5.886
    1   AR   Ar   62   0.536   6.138   5.150
    1   AR   Ar   63   1.312   5.613   5.888
    1   AR   Ar   64   1.405   6.625   5.011
    1   AR   Ar   65   3.007   0.502   0.328
    1   AR   Ar   66   1.900   1.149   1.104
    1   AR   Ar   67   3.239   6.026   0.018
    1   AR   Ar   68   3.014   0.773  -0.785
    1   AR   Ar   69   2.113   6.604   0.090
    1   AR   Ar   70   1.393   0.128   2.092
    1   AR   Ar   71   3.138   0.402   1.809
    1   AR   Ar   72   3.845   0.733   1.001
    1   AR   Ar   73   2.055   6.739   3.022
    1   AR   Ar   74   1.826   0.774   4.690
    1   AR   Ar   75   3.353   0.361   5.019
    1   AR   Ar   76   2.554   0.538   2.826
    1   AR   Ar   77   2.447   6.713   5.792
    1   AR   Ar   78   1.311   0.644   5.492
    1   AR   Ar   79   3.970   6.422   7.077
    1   AR   Ar   80   3.260   6.127   5.589
    1   AR   Ar   81   1.418   1.327   0.057
    1   AR   Ar   82   0.917   3.296  -0.106
    1   AR   Ar   83   2.179   2.198   1.124
    1   AR   Ar   84   2.026   4.004  -3.795
    1   AR   Ar   85   1.202   2.314  -0.167
    1   AR   Ar   86   1.754   2.637   1.954
    1   AR   Ar   87   2.157   1.381   2.236
    1   AR   Ar   88   2.982   3.830   1.494
    1   AR   Ar   89   1.129   1.823   2.127
    1   AR   Ar   90   2.847   2.409   4.842
    1   AR   Ar   91   1.922   2.112   4.146
    1   AR   Ar   92   1.755   2.050   2.987
    1   AR   Ar   93   1.679   1.827   5.134
    1   AR   Ar   94   3.157   0.388   7.325
    1   AR   Ar   95   3.790   6.947   5.913
    1   AR   Ar   96   2.560   0.480   6.498
    1   AR   Ar   97   3.955   2.259  -0.398
    1   AR   Ar   98   2.494   5.028   1.454
    1   AR   Ar   99   4.468   2.623  -1.487
    1   AR   Ar  100   1.217   4.264  -0.571
    1   AR   Ar  101   1.300   2.805   1.061
    1   AR   Ar  102   2.681   4.191   3.661
    1   AR   Ar  103   1.728   3.518   0.396
    1   AR   Ar  104   3.005   3.366  -1.407
    1   AR   Ar  105   1.499   3.196   3.660
    1   AR   Ar  106   2.106   3.176   4.560
    1   AR   Ar  107   2.351   4.017   5.379
    1   AR   Ar  108   3.519   2.954   4.160
    1   AR   Ar  109   1.813   4.288   4.348
    1   AR   Ar  110   1.427   4.537   5.639
    1   AR   Ar  111   4.294   4.800   7.150
    1   AR   Ar  112   1.621   5.108   6.797
    1   AR   Ar  113   2.518   4.288   0.591
    1   AR   Ar  114   2.618   5.990   1.130
    1   AR   Ar  115   2.932   5.034  -0.502
    1   AR   Ar  116   4.334   6.845   0.041
    1   AR   Ar  117   1.275   5.083   3.015
    1   AR   Ar  118   1.312   5.989   2.224
    1   AR   Ar  119   1.925   3.982   2.879
    1   AR   Ar  120   2.025   5.142   2.351
    1   AR   Ar  121   6.349   4.599   3.859
    1   AR   Ar  122   2.901   6.092   4.490
    1   AR   Ar  123   2.383   5.066   4.281
    1   AR   Ar  124   2.470   5.860   3.474
    1   AR   Ar  125   0.553   4.965   4.870
    1   AR   Ar  126   0.847   6.527   6.245
    1   AR   Ar  127   2.824   5.255   7.401
    1   AR   Ar  128   2.422   5.820   6.436
    1   AR   Ar  129   2.218   7.096   1.236
    1   AR   Ar  130   4.668   1.022  -1.396
    1   AR   Ar  131   4.394   6.475   1.063
    1   AR   Ar  132   6.611   2.453  -1.139
    1   AR   Ar  133   3.518   0.322   2.946
    1   AR   Ar  134   4.120   1.640   2.812
    1   AR   Ar  135   4.526   0.323   2.969
    1   AR   Ar  136   4.125   0.684   2.055
    1   AR   Ar  137   2.808   7.026   3.728
    1   AR   Ar  138   4.871   1.400   4.961
    1   AR   Ar  139   5.530   1.004   4.248
    1   AR   Ar  140   4.332   1.020   3.994
    1   AR   Ar  141   4.543   0.050   3.983
    1   AR   Ar  142   4.832   6.780   5.675
    1   AR   Ar  143   5.878   6.816   5.877
    1   AR   Ar  144   5.340   0.772   6.871
    1   AR   Ar  145   3.505   2.906   0.402
    1   AR   Ar  146   4.191   2.880   1.597
    1   AR   Ar  147   5.347   2.063   0.153
    1   AR   Ar  148   5.703   3.456  -2.492
    1   AR   Ar  149   4.420   1.460   0.589
    1   AR   Ar  150   2.790   1.748   3.024
    1   AR   Ar  151   3.464   1.796   3.770
    1   AR   Ar  152   2.767   2.905   1.806
    1   AR   Ar  153   3.043   0.981   4.084
    1   AR   Ar  154   3.723   1.772   4.757
    1   AR   Ar  155   5.579   0.799   5.682
    1   AR   Ar  156   4.109   3.729   3.748
    1   AR   Ar  157   3.533   1.957   5.965
    1   AR   Ar  158   1.707   1.980   6.401
    1   AR   Ar  159   4.420   0.728   6.112
    1   AR   Ar  160   3.848   3.004   6.559
    1   AR   Ar  161   4.478   2.950   0.589
    1   AR   Ar  162   4.275   5.441  -0.024
    1   AR   Ar  163   5.808   3.296  -0.217
    1   AR   Ar  164   4.664   5.124   1.745
    1   AR   Ar  165   3.064   3.603   2.848
    1   AR   Ar  166   3.030   4.933   2.874
    1   AR   Ar  167   4.939   2.276   2.403
    1   AR   Ar  168   3.812   4.518   0.135
    1   AR   Ar  169   2.760   2.575   3.633
    1   AR   Ar  170   3.155   4.116   4.617
    1   AR   Ar  171   4.027   3.751   4.965
    1   AR   Ar  172   4.367   4.871   4.393
    1   AR   Ar  173   2.566   2.753   6.298
    1   AR   Ar  174   4.424   4.937   5.634
    1   AR   Ar  175   4.520   3.801   5.980
    1   AR   Ar  176   3.439   5.292   4.971
    1   AR   Ar  177   5.274   5.906  -0.181
    1   AR   Ar  178   3.360   6.560   1.563
    1   AR   Ar  179   3.649   5.568   1.144
    1   AR   Ar  180   3.891   4.015  -1.320
    1   AR   Ar  181   3.371   5.583   2.103
    1   AR   Ar  182   2.538   6.547   2.117
    1   AR   Ar  183   3.615   4.361   2.172
    1   AR   Ar  184   4.436   6.323   2.152
    1   AR   Ar  185   1.184   5.385   4.036
    1   AR   Ar  186   3.373   5.415   3.809
    1   AR   Ar  187   4.838   5.237   3.668
    1   AR   Ar  188   3.592   6.297   3.234
    1   AR   Ar  189   2.607   5.016   5.784
    1   AR   Ar  190   4.240   5.897   5.976
    1   AR   Ar  191   5.264   5.751   5.343
    1   AR   Ar  192   4.240   5.850   4.921
    1   AR   Ar  193   6.226   6.418  -0.326
    1   AR   Ar  194   5.574   6.352  -1.160
    1   AR   Ar  195   5.777   1.044   0.335
    1   AR   Ar  196   5.891   0.837  -1.331
    1   AR   Ar  197   5.051   0.420   1.172
    1   AR   Ar  198   6.081   1.534   1.370
    1   AR   Ar  199   5.263   0.318   2.114
    1   AR   Ar  200   6.830   1.247   0.446
    1   AR   Ar  201   4.844   6.366   3.251
    1   AR   Ar  202   5.192   2.029   4.191
    1   AR   Ar  203   0.518   7.101   4.659
    1   AR   Ar  204   5.460   0.096   3.669
    1   AR   Ar  205   6.630   0.080   3.248
    1   AR   Ar  206   5.271   0.184   4.954
    1   AR   Ar  207   0.113   0.329   5.696
    1   AR   Ar  208   6.869   0.940   4.021
    1   AR   Ar  209   6.378   2.485  -2.213
    1   AR   Ar  210   5.005   1.799   1.483
    1   AR   Ar  211   6.447   2.555   0.392
    1   AR   Ar  212   6.146   4.225  -1.007
    1   AR   Ar  213   3.687   2.504   2.341
    1   AR   Ar  214   4.507   3.354   2.580
    1   AR   Ar  215   6.110   2.155   2.301
    1   AR   Ar  216   6.916   3.534   1.922
    1   AR   Ar  217   4.747   2.945   3.836
    1   AR   Ar  218   4.610   2.560   5.398
    1   AR   Ar  219   5.065   1.237   3.081
    1   AR   Ar  220   5.632   3.446   3.422
    1   AR   Ar  221   6.389   0.299   4.959
    1   AR   Ar  222   4.809   1.707   6.065
    1   AR   Ar  223   6.402   0.716   6.292
    1   AR   Ar  224   5.650   2.177   5.088
    1   AR   Ar  225   5.539   4.522   0.151
    1   AR   Ar  226   4.650   4.632   2.645
    1   AR   Ar  227   6.988   4.485   0.708
    1   AR   Ar  228   6.138   5.551   0.506
    1   AR   Ar  229   6.054   3.847   0.811
    1   AR   Ar  230   3.854   4.648   3.281
    1   AR   Ar  231   6.742   2.224   3.095
    1   AR   Ar  232   4.617   3.894   1.221
    1   AR   Ar  233   6.362   2.758   3.936
    1   AR   Ar  234   6.050   3.987   4.967
    1   AR   Ar  235   7.112   3.369   4.126
    1   AR   Ar  236   5.018   4.279   3.556
    1   AR   Ar  237   5.473   3.251   4.470
    1   AR   Ar  238   5.142   4.335   5.075
    1   AR   Ar  239   6.799   4.635   8.119
    1   AR   Ar  240   6.616   4.292   6.181
    1   AR   Ar  241   6.590   0.486  -0.443
    1   AR   Ar  242   5.494   6.149   1.010
    1   AR   Ar  243   5.409   4.127   2.256
    1   AR   Ar  244   6.774   5.575  -0.318
    1   AR   Ar  245   5.479   6.094   2.462
    1   AR   Ar  246   6.201   6.705   1.681
    1   AR   Ar  247   5.268   2.858   1.523
    1   AR   Ar  248   6.056   0.048   0.541
    1   AR   Ar  249   5.647   5.040   3.030
    1   AR   Ar  250   4.830   6.230   4.269
    1   AR   Ar  251   5.722   5.133   4.572
    1   AR   Ar  252   6.029   6.356   3.619
    1   AR   Ar  253   5.757   4.851   5.656
    1   AR   Ar  254   5.221   5.900   6.382
    1   AR   Ar  255   5.294   4.777   6.922
    1   AR   Ar  256   6.163   6.142   4.704
    7.12000  7.12000 12.00000
Argon-slab step 1480
  256
    1   AR   Ar    1   7.049   1.125  -1.344
    1   AR   Ar    2   6.853   0.547   1.302
    1   AR   Ar    3   0.144   6.865   0.670
    1   AR   Ar    4   0.577   0.585  -0.230
    1   AR   Ar    5   0.318   5.715   1.016
    1   AR   Ar    6   0.411   0.310   2.813
    1   AR   Ar    7   0.372   5.513   2.254
    1   AR   Ar    8   0.406   6.811   1.866
    1   AR   Ar    9   0.745   0.842   3.804
    1   AR   Ar   10   0.291   1.799   4.102
    1   AR   Ar   11   2.336   6.983   4.603
    1   AR   Ar   12   1.374   0.856   2.673
    1   AR   Ar   13   6.622   1.793   4.922
    1   AR   Ar   14   0.143   1.277   6.043
    1   AR   Ar   15   7.025   5.903   8.676
    1   AR   Ar   16   0.522   1.032   4.924
    1   AR   Ar   17   0.225   1.802  -0.349
    1   AR   Ar   18   6.767   3.760  -0.167
    1   AR   Ar   19   0.778   1.898   1.122
    1   AR   Ar   20   0.231   2.729  -2.276
    1   AR   Ar   21   6.286   0.890   2.291
    1   AR   Ar   22   0.097   2.427   2.072
    1   AR   Ar   23   0.362   0.981   2.064
    1   AR   Ar   24   0.224   2.831   0.939
    1   AR   Ar   25   7.041   1.256   3.032
    1   AR   Ar   26   6.097   1.813   3.657
    1   AR   Ar   27   2.020   1.239   3.638
    1   AR   Ar   28   1.025   2.829   4.480
    1   AR   Ar   29   6.047   1.841   6.162
    1   AR   Ar   30   0.003   2.412   6.058
    1   AR   Ar   31   0.429   0.636   7.762
    1   AR   Ar   32   1.479   3.016   5.846
    1   AR   Ar   33   1.178   4.327  -1.597
    1   AR   Ar   34   1.148   5.190   1.527
    1   AR   Ar   35   0.765   3.709   1.088
    1   AR   Ar   36   1.302   0.112  -1.457
    1   AR   Ar   37   0.937   3.214   2.221
    1   AR   Ar   38   7.054   4.576   2.187
    1   AR   Ar   39   0.967   4.357   2.321
    1   AR   Ar   40   1.795   4.199   1.588
    1   AR   Ar   41   0.800   2.314   3.230
    1   AR   Ar   42   6.794   5.292   5.315
    1   AR   Ar   43   6.444   2.977   5.282
    1   AR   Ar   44   0.485   3.334   3.062
    1   AR   Ar   45   1.005   3.611   5.229
    1   AR   Ar   46   6.829   5.221   6.492
    1   AR   Ar   47   6.856   3.516   6.878
    1   AR   Ar   48   6.823   6.590   6.421
    1   AR   Ar   49   6.263   5.299  -1.534
    1   AR   Ar   50   6.529   5.590   1.637
    1   AR   Ar   51   1.151   4.718   0.606
    1   AR   Ar   52   0.303   4.674  -0.409
    1   AR   Ar   53   6.535   6.042   2.725
    1   AR   Ar   54   0.365   6.292   3.616
    1   AR   Ar   55   6.846   5.128   3.126
    1   AR   Ar   56   1.436   6.300   1.255
    1   AR   Ar   57   6.532   3.556   3.020
    1   AR   Ar   58   7.085   5.444   4.069
    1   AR   Ar   59   2.148   5.962   5.266
    1   AR   Ar   60   1.446   6.484   4.028
    1   AR   Ar   61   6.173   5.830   5.918
    1   AR   Ar   62   0.557   6.148   5.134
    1   AR   Ar   63   1.335   5.621   5.899
    1   AR   Ar   64   1.455   6.630   4.996
    1   AR   Ar   65   3.007   0.455   0.332
    1   AR   Ar   66   1.905   1.153   1.109
    1   AR   Ar   67   3.258   6.029   0.016
    1   AR   Ar   68   3.032   0.750  -0.801
    1   AR   Ar   69   2.098   6.625   0.101
    1   AR   Ar   70   1.374   0.117   2.081
    1   AR   Ar   71   3.151   0.374   1.806
    1   AR   Ar   72   3.824   0.743   1.015
    1   AR   Ar   73   2.063   6.748   3.031
    1   AR   Ar   74   1.779   0.792   4.679
    1   AR   Ar   75   3.368   0.361   4.991
    1   AR   Ar   76   2.566   0.532   2.810
    1   AR   Ar   77   2.445   6.752   5.793
    1   AR   Ar   78   1.298   0.649   5.500
    1   AR   Ar   79   3.975   6.406   7.053
    1   AR   Ar   80   3.232   6.117   5.565
    1   AR   Ar   81   1.426   1.308   0.053
    1   AR   Ar   82   0.914   3.280  -0.156
    1   AR   Ar   83   2.196   2.205   1.130
    1   AR   Ar   84   2.030   4.002  -3.776
    1   AR   Ar   85   1.225   2.331  -0.161
    1   AR   Ar   86   1.719   2.625   1.931
    1   AR   Ar   87   2.167   1.361   2.229
    1   AR   Ar   88   2.987   3.848   1.474
    1   AR   Ar   89   1.098   1.817   2.105
    1   AR   Ar   90   2.873   2.418   4.843
    1   AR   Ar   91   1.926   2.128   4.107
    1   AR   Ar   92   1.744   2.051   2.968
    1   AR   Ar   93   1.685   1.837   5.135
    1   AR   Ar   94   3.147   0.419   7.323
    1   AR   Ar   95   3.781   6.937   5.908
    1   AR   Ar   96   2.565   0.492   6.479
    1   AR   Ar   97   3.961   2.247  -0.386
    1   AR   Ar   98   2.491   5.077   1.423
    1   AR   Ar   99   4.483   2.606  -1.464
    1   AR   Ar  100   1.221   4.269  -0.527
    1   AR   Ar  101   1.293   2.775   1.062
    1   AR   Ar  102   2.686   4.167   3.680
    1   AR   Ar  103   1.751   3.540   0.353
    1   AR   Ar  104   2.998   3.359  -1.405
    1   AR   Ar  105   1.484   3.205   3.626
    1   AR   Ar  106   2.094   3.175   4.568
    1   AR   Ar  107   2.336   4.029   5.383
    1   AR   Ar  108   3.522   2.941   4.171
    1   AR   Ar  109   1.835   4.298   4.346
    1   AR   Ar  110   1.444   4.544   5.623
    1   AR   Ar  111   4.266   4.840   7.145
    1   AR   Ar  112   1.596   5.117   6.830
    1   AR   Ar  113   2.524   4.266   0.606
    1   AR   Ar  114   2.617   6.012   1.109
    1   AR   Ar  115   2.946   5.071  -0.465
    1   AR   Ar  116   4.331   6.838   0.044
    1   AR   Ar  117   1.281   5.094   3.009
    1   AR   Ar  118   1.311   6.002   2.244
    1   AR   Ar  119   1.918   3.978   2.882
    1   AR   Ar  120   2.031   5.102   2.362
    1   AR   Ar  121   6.339   4.596   3.844
    1   AR   Ar  122   2.922   6.093   4.507
    1   AR   Ar  123   2.395   5.061   4.278
    1   AR   Ar  124   2.444   5.862   3.494
    1   AR   Ar  125   0.552   4.964   4.889
    1   AR   Ar  126   0.845   6.498   6.241
    1   AR   Ar  127   2.839   5.261   7.397
    1   AR   Ar  128   2.431   5.846   6.408
    1   AR   Ar  129   2.228   7.092   1.277
    1   AR   Ar  130   4.680   1.061  -1.405
    1   AR   Ar  131   4.384   6.478   1.071
    1   AR   Ar  132   6.615   2.430  -1.174
    1   AR   Ar  133   3.494   0.335   2.959
    1   AR   Ar  134   4.099   1.657   2.812
    1   AR   Ar  135   4.564   0.315   2.984
    1   AR   Ar  136   4.134   0.690   2.068
    1   AR   Ar  137   2.810   7.005   3.751
    1   AR   Ar  138   4.867   1.361   4.966
    1   AR   Ar  139   5.545   0.993   4.271
    1   AR   Ar  140   4.334   1.017   3.992
    1   AR   Ar  141   4.519   0.008   4.002
    1   AR   Ar  142   4.829   6.771   5.658
    1   AR   Ar  143   5.890   6.803   5.877
    1   AR   Ar  144   5.338   0.764   6.875
    1   AR   Ar  145   3.448   2.940   0.404
    1   AR   Ar  146   4.182   2.896   1.579
    1   AR   Ar  147   5.374   2.079   0.131
    1   AR   Ar  148   5.697   3.457  -2.517
    1   AR   Ar  149   4.384   1.489   0.570
    1   AR   Ar  150   2.810   1.743   3.009
    1   AR   Ar  151   3.477   1.839   3.787
    1   AR   Ar  152   2.769   2.900   1.805
    1   AR   Ar  153   3.042   0.966   4.068
    1   AR   Ar  154   3.729   1.747   4.780
    1   AR   Ar  155   5.574   0.815   5.642
    1   AR   Ar  156   4.102   3.761   3.717
    1   AR   Ar  157   3.538   1.945   5.971
    1   AR   Ar  158   1.673   1.939   6.410
    1   AR   Ar  159   4.426   0.730   6.135
    1   AR   Ar  160   3.863   3.020   6.607
    1   AR   Ar  161   4.487   2.935   0.605
    1   AR   Ar  162   4.272   5.405  -0.017
    1   AR   Ar  163   5.788   3.280  -0.206
    1   AR   Ar  164   4.628   5.145   1.742
    1   AR   Ar  165   3.045   3.610   2.839
    1   AR   Ar  166   3.001   4.950   2.854
    1   AR   Ar  167   4.948   2.261   2.407
    1   AR   Ar  168   3.784   4.492   0.112
    1   AR   Ar  169   2.775   2.607   3.615
    1   AR   Ar  170   3.131   4.131   4.599
    1   AR   Ar  171   4.032   3.709   4.944
    1   AR   Ar  172   4.367   4.861   4.391
    1   AR   Ar  173   2.545   2.763   6.307
    1   AR   Ar  174   4.445   4.950   5.601
    1   AR   Ar  175   4.521   3.785   5.995
    1   AR   Ar  176   3.419   5.262   4.977
    1   AR   Ar  177   5.286   5.878  -0.184
    1   AR   Ar  178   3.387   6.559   1.554
    1   AR   Ar  179   3.665   5.537   1.117
    1   AR   Ar  180   3.889   3.999  -1.336
    1   AR   Ar  181   3.404   5.570   2.093
    1   AR   Ar  182   2.543   6.556   2.108
    1   AR   Ar  183   3.632   4.374   2.215
    1   AR   Ar  184   4.431   6.328   2.206
    1   AR   Ar  185   1.226   5.398   4.019
    1   AR   Ar  186   3.376   5.385   3.826
    1   AR   Ar  187   4.834   5.266   3.658
    1   AR   Ar  188   3.612   6.278   3.193
    1   AR   Ar  189   2.600   5.008   5.816
    1   AR   Ar  190   4.231   5.925   5.963
    1   AR   Ar  191   5.250   5.793   5.339
    1   AR   Ar  192   4.246   5.864   4.914
    1   AR   Ar  193   6.208   6.439  -0.338
    1   AR   Ar  194   5.591   6.335  -1.150
    1   AR   Ar  195   5.779   1.036   0.342
    1   AR   Ar  196   5.884   0.827  -1.354
    1   AR   Ar  197   5.035   0.399   1.155
    1   AR   Ar  198   6.063   1.552   1.373
    1   AR   Ar  199   5.255   0.350   2.145
    1   AR   Ar  200   6.828   1.237   0.461
    1   AR   Ar  201   4.837   6.382   3.232
    1   AR   Ar  202   5.196   2.051   4.190
    1   AR   Ar  203   0.509   7.106   4.651
    1   AR   Ar  204   5.434   0.095   3.687
    1   AR   Ar  205   6.625   0.084   3.256
    1   AR   Ar  206   5.299   0.167   4.935
    1   AR   Ar  207   0.113   0.322   5.728
    1   AR   Ar  208   6.851   0.937   4.034
    1   AR   Ar  209   6.327   2.469  -2.208
    1   AR   Ar  210   4.994   1.784   1.470
    1   AR   Ar  211   6.436   2.556   0.407
    1   AR   Ar  212   6.139   4.212  -1.034
    1   AR   Ar  213   3.679   2.519   2.331
    1   AR   Ar  214   4.489   3.346   2.587
    1   AR   Ar  215   6.110   2.149   2.320
    1   AR   Ar  216   6.898   3.520   1.933
    1   AR   Ar  217   4.734   2.937   3.852
    1   AR   Ar  218   4.626   2.570   5.388
    1   AR   Ar  219   5.068   1.226   3.067
    1   AR   Ar  220   5.612   3.416   3.417
    1   AR   Ar  221   6.415   0.287   4.956
    1   AR   Ar  222   4.834   1.690   6.048
    1   AR   Ar  223   6.368   0.719   6.294
    1   AR   Ar  224   5.628   2.157   5.131
    1   AR   Ar  225   5.534   4.523   0.142
    1   AR   Ar  226   4.666   4.625   2.638
    1   AR   Ar  227   6.985   4.476   0.685
    1   AR   Ar  228   6.161   5.559   0.517
    1   AR   Ar  229   6.022   3.835   0.798
    1   AR   Ar  230   3.844   4.645   3.290
    1   AR   Ar  231   6.726   2.251   3.096
    1   AR   Ar  232   4.629   3.895   1.257
    1   AR   Ar  233   6.370   2.770   3.944
    1   AR   Ar  234   6.045   4.030   4.975
    1   AR   Ar  235   7.118   3.369   4.149
    1   AR   Ar  236   5.023   4.262   3.545
    1   AR   Ar  237   5.475   3.245   4.496
    1   AR   Ar  238   5.102   4.335   5.085
    1   AR   Ar  239   6.783   4.628   8.127
    1   AR   Ar  240   6.649   4.314   6.147
    1   AR   Ar  241   6.593   0.477  -0.452
    1   AR   Ar  242   5.467   6.138   1.000
    1   AR   Ar  243   5.393   4.114   2.255
    1   AR   Ar  244   6.747   5.580  -0.313
    1   AR   Ar  245   5.472   6.117   2.458
    1   AR   Ar  246   6.164   6.663   1.670
    1   AR   Ar  247   5.282   2.865   1.524
    1   AR   Ar  248   6.031   0.045   0.517
    1   AR   Ar  249   5.657   5.066   3.022
    1   AR   Ar  250   4.880   6.184   4.242
    1   AR   Ar  251   5.706   5.171   4.586
    1   AR   Ar  252   6.033   6.331   3.617
    1   AR   Ar  253   5.753   4.829   5.683
    1   AR   Ar  254   5.234   5.892   6.362
    1   AR   Ar  255   5.304   4.778   6.904
    1   AR   Ar  256   6.206   6.134   4.706
    7.12000  7.12000 12.00000
Argon-slab step 1485
  256
    1   AR   Ar    1   7.034   1.124  -1.361
    1   AR   Ar    2   6.832   0.546   1.352
    1   AR   Ar    3   0.183   6.854   0.686
    1   AR   Ar    4   0.559   0.582  -0.212
    1   AR   Ar    5   0.351   5.703   0.999
    1   AR   Ar    6   0.414   0.285   2.828
    1   AR   Ar    7   0.403   5.510   2.232
    1   AR   Ar    8   0.410   6.792   1.885
    1   AR   Ar    9   0.770   0.804   3.810
    1   AR   Ar   10   0.292   1.798   4.120
    1   AR   Ar   11   2.285   6.982   4.621
    1   AR   Ar   12   1.361   0.875   2.689
    1   AR   Ar   13   6.636   1.780   4.968
    1   AR   Ar   14   0.115   1.268   6.041
    1   AR   Ar   15   7.027   5.924   8.646
    1   AR   Ar   16   0.512   1.063   4.930
    1   AR   Ar   17   0.214   1.790  -0.361
    1   AR   Ar   18   6.781   3.771  -0.166
    1   AR   Ar   19   0.771   1.867   1.139
    1   AR   Ar   20   0.186   2.698  -2.257
    1   AR   Ar   21   6.291   0.921   2.273
    1   AR   Ar   22   0.131   2.448   2.070
    1   AR   Ar   23   0.351   0.969   2.060
    1   AR   Ar   24   0.240   2.813   0.933
    1   AR   Ar   25   7.050   1.249   3.005
    1   AR   Ar   26   6.095   1.815   3.665
    1   AR   Ar   27   2.022   1.251   3.635
    1   AR   Ar   28   1.012   2.832   4.490
    1   AR   Ar   29   6.031   1.859   6.165
    1   AR   Ar   30   0.017   2.422   6.052
    1   AR   Ar   31   0.428   0.614   7.738
    1   AR   Ar   32   1.465   2.994   5.866
    1   AR   Ar   33   1.209   4.317  -1.608
    1   AR   Ar   34   1.148   5.214   1.550
    1   AR   Ar   35   0.767   3.706   1.054
    1   AR   Ar   36   1.274   0.119  -1.482
    1   AR   Ar   37   0.950   3.200   2.195
    1   AR   Ar   38   7.054   4.597   2.190
    1   AR   Ar   39   0.978   4.334   2.335
    1   AR   Ar   40   1.798   4.195   1.573
    1   AR   Ar   41   0.839   2.327   3.260
    1   AR   Ar   42   6.758   5.287   5.318
    1   AR   Ar   43   6.460   2.977   5.288
    1   AR   Ar   44   0.516   3.339   3.053
    1   AR   Ar   45   1.009   3.596   5.262
    1   AR   Ar   46   6.841   5.248   6.496
    1   AR   Ar   47   6.838   3.479   6.886
    1   AR   Ar   48   6.828   6.600   6.412
    1   AR   Ar   49   6.284   5.255  -1.547
    1   AR   Ar   50   6.555   5.586   1.642
    1   AR   Ar   51   1.163   4.721   0.602
    1   AR   Ar   52   0.281   4.669  -0.436
    1   AR   Ar   53   6.561   6.067   2.716
    1   AR   Ar   54   0.335   6.274   3.636
    1   AR   Ar   55   6.817   5.135   3.133
    1   AR   Ar   56   1.414   6.321   1.247
    1   AR   Ar   57   6.532   3.545   3.030
    1   AR   Ar   58   7.074   5.419   4.075
    1   AR   Ar   59   2.124   5.923   5.275
    1   AR   Ar   60   1.440   6.469   4.035
    1   AR   Ar   61   6.194   5.795   5.951
    1   AR   Ar   62   0.573   6.152   5.119
    1   AR   Ar   63   1.358   5.628   5.907
    1   AR   Ar   64   1.499   6.643   4.996
    1   AR   Ar   65   3.006   0.406   0.336
    1   AR   Ar   66   1.909   1.156   1.115
    1   AR   Ar   67   3.278   6.032   0.017
    1   AR   Ar   68   3.050   0.726  -0.817
    1   AR   Ar   69   2.084   6.646   0.113
    1   AR   Ar   70   1.358   0.087   2.056
    1   AR   Ar   71   3.159   0.355   1.807
    1   AR   Ar   72   3.802   0.748   1.030
    1   AR   Ar   73   2.064   6.757   3.040
    1   AR   Ar   74   1.739   0.813   4.650
    1   AR   Ar   75   3.384   0.360   4.962
    1   AR   Ar   76   2.561   0.532   2.791
    1   AR   Ar   77   2.442   6.803   5.796
    1   AR   Ar   78   1.278   0.649   5.524
    1   AR   Ar   79   3.980   6.390   7.026
    1   AR   Ar   80   3.211   6.108   5.545
    1   AR   Ar   81   1.434   1.286   0.050
    1   AR   Ar   82   0.903   3.277  -0.189
    1   AR   Ar   83   2.217   2.209   1.133
    1   AR   Ar   84   2.034   4.000  -3.757
    1   AR   Ar   85   1.249   2.342  -0.153
    1   AR   Ar   86   1.693   2.612   1.924
    1   AR   Ar   87   2.179   1.343   2.216
    1   AR   Ar   88   2.995   3.870   1.455
    1   AR   Ar   89   1.066   1.808   2.089
    1   AR   Ar   90   2.896   2.427   4.845
    1   AR   Ar   91   1.908   2.135   4.110
    1   AR   Ar   92   1.732   2.067   2.937
    1   AR   Ar   93   1.691   1.847   5.137
    1   AR   Ar   94   3.147   0.412   7.334
    1   AR   Ar   95   3.793   6.932   5.922
    1   AR   Ar   96   2.571   0.501   6.456
    1   AR   Ar   97   3.968   2.236  -0.373
    1   AR   Ar   98   2.488   5.116   1.393
    1   AR   Ar   99   4.498   2.590  -1.439
    1   AR   Ar  100   1.232   4.271  -0.480
    1   AR   Ar  101   1.278   2.742   1.054
    1   AR   Ar  102   2.691   4.145   3.694
    1   AR   Ar  103   1.778   3.565   0.315
    1   AR   Ar  104   2.991   3.352  -1.403
    1   AR   Ar  105   1.477   3.240   3.601
    1   AR   Ar  106   2.083   3.174   4.576
    1   AR   Ar  107   2.322   4.038   5.385
    1   AR   Ar  108   3.535   2.932   4.188
    1   AR   Ar  109   1.843   4.289   4.347
    1   AR   Ar  110   1.460   4.554   5.607
    1   AR   Ar  111   4.235   4.881   7.140
    1   AR   Ar  112   1.572   5.127   6.863
    1   AR   Ar  113   2.529   4.247   0.620
    1   AR   Ar  114   2.614   6.042   1.083
    1   AR   Ar  115   2.962   5.108  -0.426
    1   AR   Ar  116   4.330   6.828   0.046
    1   AR   Ar  117   1.270   5.069   3.000
    1   AR   Ar  118   1.316   5.965   2.203
    1   AR   Ar  119   1.910   3.975   2.884
    1   AR   Ar  120   2.042   5.062   2.369
    1   AR   Ar  121   6.325   4.590   3.833
    1   AR   Ar  122   2.944   6.095   4.522
    1   AR   Ar  123   2.422   5.075   4.274
    1   AR   Ar  124   2.419   5.862   3.514
    1   AR   Ar  125   0.558   4.961   4.906
    1   AR   Ar  126   0.842   6.472   6.236
    1   AR   Ar  127   2.852   5.279   7.379
    1   AR   Ar  128   2.438   5.874   6.382
    1   AR   Ar  129   2.237   7.090   1.314
    1   AR   Ar  130   4.691   1.101  -1.413
    1   AR   Ar  131   4.375   6.481   1.081
    1   AR   Ar  132   6.620   2.406  -1.206
    1   AR   Ar  133   3.486   0.345   2.975
    1   AR   Ar  134   4.077   1.672   2.814
    1   AR   Ar  135   4.603   0.304   3.000
    1   AR   Ar  136   4.145   0.697   2.082
    1   AR   Ar  137   2.821   6.984   3.764
    1   AR   Ar  138   4.858   1.321   4.974
    1   AR   Ar  139   5.544   1.000   4.292
    1   AR   Ar  140   4.328   1.019   3.983
    1   AR   Ar  141   4.480   7.083   4.027
    1   AR   Ar  142   4.822   6.758   5.646
    1   AR   Ar  143   5.874   6.789   5.866
    1   AR   Ar  144   5.336   0.756   6.876
    1   AR   Ar  145   3.388   2.974   0.406
    1   AR   Ar  146   4.177   2.917   1.557
    1   AR   Ar  147   5.400   2.096   0.110
    1   AR   Ar  148   5.692   3.430  -2.505
    1   AR   Ar  149   4.352   1.522   0.550
    1   AR   Ar  150   2.829   1.734   2.989
    1   AR   Ar  151   3.498   1.887   3.802
    1   AR   Ar  152   2.738   2.887   1.789
    1   AR   Ar  153   3.029   0.964   4.044
    1   AR   Ar  154   3.738   1.721   4.807
    1   AR   Ar  155   5.568   0.837   5.606
    1   AR   Ar  156   4.096   3.765   3.701
    1   AR   Ar  157   3.545   1.935   5.975
    1   AR   Ar  158   1.639   1.899   6.416
    1   AR   Ar  159   4.432   0.728   6.156
    1   AR   Ar  160   3.877   3.036   6.653
    1   AR   Ar  161   4.503   2.919   0.617
    1   AR   Ar  162   4.270   5.374  -0.010
    1   AR   Ar  163   5.767   3.265  -0.194
    1   AR   Ar  164   4.590   5.169   1.736
    1   AR   Ar  165   3.027   3.617   2.828
    1   AR   Ar  166   2.961   4.970   2.835
    1   AR   Ar  167   4.956   2.249   2.414
    1   AR   Ar  168   3.792   4.469   0.099
    1   AR   Ar  169   2.779   2.641   3.593
    1   AR   Ar  170   3.128   4.145   4.600
    1   AR   Ar  171   4.041   3.666   4.922
    1   AR   Ar  172   4.356   4.842   4.404
    1   AR   Ar  173   2.523   2.773   6.315
    1   AR   Ar  174   4.443   4.951   5.609
    1   AR   Ar  175   4.521   3.769   6.008
    1   AR   Ar  176   3.395   5.224   4.983
    1   AR   Ar  177   5.298   5.850  -0.185
    1   AR   Ar  178   3.426   6.550   1.539
    1   AR   Ar  179   3.684   5.506   1.082
    1   AR   Ar  180   3.887   3.983  -1.352
    1   AR   Ar  181   3.436   5.559   2.090
    1   AR   Ar  182   2.544   6.561   2.104
    1   AR   Ar  183   3.651   4.386   2.257
    1   AR   Ar  184   4.424   6.335   2.259
    1   AR   Ar  185   1.268   5.411   4.006
    1   AR   Ar  186   3.380   5.356   3.847
    1   AR   Ar  187   4.837   5.310   3.634
    1   AR   Ar  188   3.633   6.260   3.152
    1   AR   Ar  189   2.594   4.998   5.845
    1   AR   Ar  190   4.220   5.954   5.955
    1   AR   Ar  191   5.235   5.835   5.330
    1   AR   Ar  192   4.247   5.877   4.913
    1   AR   Ar  193   6.191   6.468  -0.345
    1   AR   Ar  194   5.582   6.325  -1.156
    1   AR   Ar  195   5.777   1.032   0.350
    1   AR   Ar  196   5.878   0.817  -1.375
    1   AR   Ar  197   5.018   0.378   1.129
    1   AR   Ar  198   6.047   1.568   1.374
    1   AR   Ar  199   5.241   0.386   2.191
    1   AR   Ar  200   6.827   1.227   0.477
    1   AR   Ar  201   4.828   6.399   3.212
    1   AR   Ar  202   5.197   2.072   4.186
    1   AR   Ar  203   0.499   7.113   4.641
    1   AR   Ar  204   5.422   0.096   3.699
    1   AR   Ar  205   6.617   0.088   3.266
    1   AR   Ar  206   5.327   0.146   4.903
    1   AR   Ar  207   0.113   0.306   5.756
    1   AR   Ar  208   6.825   0.930   4.051
    1   AR   Ar  209   6.273   2.454  -2.205
    1   AR   Ar  210   4.983   1.768   1.454
    1   AR   Ar  211   6.424   2.557   0.422
    1   AR   Ar  212   6.132   4.199  -1.059
    1   AR   Ar  213   3.665   2.531   2.332
    1   AR   Ar  214   4.472   3.339   2.594
    1   AR   Ar  215   6.103   2.142   2.332
    1   AR   Ar  216   6.882   3.504   1.944
    1   AR   Ar  217   4.717   2.926   3.864
    1   AR   Ar  218   4.640   2.580   5.377
    1   AR   Ar  219   5.075   1.218   3.053
    1   AR   Ar  220   5.587   3.382   3.413
    1   AR   Ar  221   6.441   0.276   4.954
    1   AR   Ar  222   4.863   1.676   6.029
    1   AR   Ar  223   6.362   0.742   6.312
    1   AR   Ar  224   5.606   2.137   5.179
    1   AR   Ar  225   5.538   4.545   0.154
    1   AR   Ar  226   4.671   4.627   2.638
    1   AR   Ar  227   6.995   4.458   0.638
    1   AR   Ar  228   6.180   5.552   0.514
    1   AR   Ar  229   5.992   3.819   0.785
    1   AR   Ar  230   3.835   4.622   3.306
    1   AR   Ar  231   6.733   2.293   3.091
    1   AR   Ar  232   4.642   3.894   1.296
    1   AR   Ar  233   6.367   2.780   3.952
    1   AR   Ar  234   6.050   4.072   4.981
    1   AR   Ar  235   0.013   3.377   4.174
    1   AR   Ar  236   5.029   4.242   3.537
    1   AR   Ar  237   5.481   3.238   4.527
    1   AR   Ar  238   5.049   4.331   5.089
    1   AR   Ar  239   6.768   4.623   8.135
    1   AR   Ar  240   6.679   4.327   6.106
    1   AR   Ar  241   6.608   0.484  -0.458
    1   AR   Ar  242   5.437   6.130   0.991
    1   AR   Ar  243   5.388   4.092   2.248
    1   AR   Ar  244   6.728   5.578  -0.314
    1   AR   Ar  245   5.469   6.139   2.450
    1   AR   Ar  246   6.127   6.624   1.661
    1   AR   Ar  247   5.296   2.873   1.526
    1   AR   Ar  248   6.008   0.037   0.494
    1   AR   Ar  249   5.687   5.097   3.003
    1   AR   Ar  250   4.943   6.138   4.213
    1   AR   Ar  251   5.690   5.208   4.599
    1   AR   Ar  252   6.036   6.303   3.615
    1   AR   Ar  253   5.753   4.812   5.715
    1   AR   Ar  254   5.245   5.885   6.348
    1   AR   Ar  255   5.316   4.779   6.884
    1   AR   Ar  256   6.249   6.126   4.711
    7.12000  7.12000 12.00000
Argon-slab step 1490
  256
    1   AR   Ar    1   7.018   1.122  -1.375
    1   AR   Ar    2   6.808   0.541   1.399
    1   AR   Ar    3   0.222   6.843   0.702
    1   AR   Ar    4   0.540   0.580  -0.194
    1   AR   Ar    5   0.373   5.696   0.981
    1   AR   Ar    6   0.422   0.257   2.846
    1   AR   Ar    7   0.428   5.509   2.214
    1   AR   Ar    8   0.411   6.771   1.903
    1   AR   Ar    9   0.796   0.766   3.815
    1   AR   Ar   10   0.294   1.802   4.138
    1   AR   Ar   11   2.263   6.985   4.630
    1   AR   Ar   12   1.346   0.899   2.713
    1   AR   Ar   13   6.651   1.766   5.014
    1   AR   Ar   14   0.084   1.275   6.048
    1   AR   Ar   15   7.029   5.945   8.615
    1   AR   Ar   16   0.499   1.096   4.934
    1   AR   Ar   17   0.203   1.778  -0.373
    1   AR   Ar   18   6.792   3.775  -0.167
    1   AR   Ar   19   0.758   1.830   1.146
    1   AR   Ar   20   0.144   2.667  -2.237
    1   AR   Ar   21   6.294   0.952   2.255
    1   AR   Ar   22   0.166   2.467   2.068
    1   AR   Ar   23   0.342   0.961   2.053
    1   AR   Ar   24   0.251   2.793   0.929
    1   AR   Ar   25   7.058   1.242   2.982
    1   AR   Ar   26   6.086   1.805   3.678
    1   AR   Ar   27   2.025   1.255   3.626
    1   AR   Ar   28   0.999   2.832   4.501
    1   AR   Ar   29   6.015   1.875   6.166
    1   AR   Ar   30   0.030   2.430   6.044
    1   AR   Ar   31   0.426   0.591   7.713
    1   AR   Ar   32   1.460   2.960   5.896
    1   AR   Ar   33   1.239   4.307  -1.619
    1   AR   Ar   34   1.131   5.216   1.549
    1   AR   Ar   35   0.772   3.707   1.022
    1   AR   Ar   36   1.247   0.126  -1.507
    1   AR   Ar   37   0.961   3.190   2.158
    1   AR   Ar   38   7.050   4.614   2.191
    1   AR   Ar   39   0.989   4.308   2.346
    1   AR   Ar   40   1.795   4.193   1.565
    1   AR   Ar   41   0.867   2.343   3.294
    1   AR   Ar   42   6.764   5.292   5.317
    1   AR   Ar   43   6.476   2.975   5.292
    1   AR   Ar   44   0.538   3.347   3.057
    1   AR   Ar   45   1.007   3.592   5.284
    1   AR   Ar   46   6.857   5.278   6.504
    1   AR   Ar   47   6.837   3.448   6.885
    1   AR   Ar   48   6.835   6.611   6.402
    1   AR   Ar   49   6.305   5.211  -1.557
    1   AR   Ar   50   6.573   5.578   1.641
    1   AR   Ar   51   1.174   4.722   0.597
    1   AR   Ar   52   0.253   4.665  -0.462
    1   AR   Ar   53   6.589   6.095   2.704
    1   AR   Ar   54   0.306   6.262   3.654
    1   AR   Ar   55   6.790   5.142   3.130
    1   AR   Ar   56   1.393   6.344   1.235
    1   AR   Ar   57   6.537   3.534   3.038
    1   AR   Ar   58   7.061   5.393   4.090
    1   AR   Ar   59   2.110   5.875   5.282
    1   AR   Ar   60   1.435   6.453   4.028
    1   AR   Ar   61   6.198   5.793   5.966
    1   AR   Ar   62   0.587   6.151   5.106
    1   AR   Ar   63   1.380   5.631   5.915
    1   AR   Ar   64   1.513   6.657   5.020
    1   AR   Ar   65   3.004   0.355   0.341
    1   AR   Ar   66   1.912   1.157   1.121
    1   AR   Ar   67   3.298   6.038   0.021
    1   AR   Ar   68   3.067   0.702  -0.831
    1   AR   Ar   69   2.072   6.667   0.129
    1   AR   Ar   70   1.347   0.050   2.026
    1   AR   Ar   71   3.161   0.343   1.813
    1   AR   Ar   72   3.781   0.750   1.046
    1   AR   Ar   73   2.060   6.766   3.050
    1   AR   Ar   74   1.701   0.837   4.613
    1   AR   Ar   75   3.398   0.358   4.932
    1   AR   Ar   76   2.548   0.529   2.726
    1   AR   Ar   77   2.437   6.856   5.798
    1   AR   Ar   78   1.255   0.644   5.559
    1   AR   Ar   79   3.985   6.374   6.997
    1   AR   Ar   80   3.219   6.115   5.547
    1   AR   Ar   81   1.440   1.264   0.049
    1   AR   Ar   82   0.889   3.291  -0.197
    1   AR   Ar   83   2.240   2.210   1.131
    1   AR   Ar   84   2.038   3.997  -3.737
    1   AR   Ar   85   1.276   2.345  -0.143
    1   AR   Ar   86   1.679   2.615   1.920
    1   AR   Ar   87   2.193   1.341   2.194
    1   AR   Ar   88   3.004   3.893   1.440
    1   AR   Ar   89   1.035   1.795   2.083
    1   AR   Ar   90   2.915   2.433   4.848
    1   AR   Ar   91   1.889   2.151   4.114
    1   AR   Ar   92   1.731   2.080   2.902
    1   AR   Ar   93   1.696   1.857   5.140
    1   AR   Ar   94   3.152   0.394   7.349
    1   AR   Ar   95   3.803   6.930   5.936
    1   AR   Ar   96   2.578   0.510   6.433
    1   AR   Ar   97   3.976   2.226  -0.359
    1   AR   Ar   98   2.486   5.142   1.366
    1   AR   Ar   99   4.513   2.573  -1.414
    1   AR   Ar  100   1.248   4.272  -0.432
    1   AR   Ar  101   1.262   2.718   1.032
    1   AR   Ar  102   2.693   4.123   3.701
    1   AR   Ar  103   1.803   3.589   0.279
    1   AR   Ar  104   2.983   3.344  -1.400
    1   AR   Ar  105   1.472   3.258   3.617
    1   AR   Ar  106   2.072   3.175   4.584
    1   AR   Ar  107   2.311   4.043   5.383
    1   AR   Ar  108   3.557   2.929   4.208
    1   AR   Ar  109   1.832   4.296   4.394
    1   AR   Ar  110   1.472   4.568   5.592
    1   AR   Ar  111   4.203   4.923   7.133
    1   AR   Ar  112   1.550   5.136   6.894
    1   AR   Ar  113   2.533   4.233   0.631
    1   AR   Ar  114   2.611   6.083   1.052
    1   AR   Ar  115   2.977   5.142  -0.387
    1   AR   Ar  116   4.341   6.805   0.047
    1   AR   Ar  117   1.250   5.038   2.995
    1   AR   Ar  118   1.328   5.936   2.173
    1   AR   Ar  119   1.902   3.973   2.885
    1   AR   Ar  120   2.054   5.022   2.368
    1   AR   Ar  121   6.306   4.580   3.827
    1   AR   Ar  122   2.963   6.098   4.534
    1   AR   Ar  123   2.456   5.100   4.272
    1   AR   Ar  124   2.394   5.862   3.533
    1   AR   Ar  125   0.551   4.951   4.906
    1   AR   Ar  126   0.836   6.449   6.229
    1   AR   Ar  127   2.865   5.297   7.359
    1   AR   Ar  128   2.433   5.886   6.353
    1   AR   Ar  129   2.244   7.094   1.343
    1   AR   Ar  130   4.704   1.142  -1.421
    1   AR   Ar  131   4.369   6.483   1.091
    1   AR   Ar  132   6.627   2.381  -1.235
    1   AR   Ar  133   3.499   0.312   2.999
    1   AR   Ar  134   4.054   1.683   2.818
    1   AR   Ar  135   4.635   0.290   3.019
    1   AR   Ar  136   4.158   0.705   2.096
    1   AR   Ar  137   2.838   6.962   3.770
    1   AR   Ar  138   4.845   1.300   4.990
    1   AR   Ar  139   5.522   1.021   4.308
    1   AR   Ar  140   4.318   1.023   3.968
    1   AR   Ar  141   4.445   7.045   4.054
    1   AR   Ar  142   4.814   6.747   5.636
    1   AR   Ar  143   5.857   6.781   5.853
    1   AR   Ar  144   5.334   0.748   6.874
    1   AR   Ar  145   3.328   3.009   0.409
    1   AR   Ar  146   4.190   2.920   1.574
    1   AR   Ar  147   5.427   2.113   0.091
    1   AR   Ar  148   5.679   3.430  -2.492
    1   AR   Ar  149   4.322   1.558   0.528
    1   AR   Ar  150   2.847   1.724   2.968
    1   AR   Ar  151   3.523   1.936   3.814
    1   AR   Ar  152   2.741   2.903   1.782
    1   AR   Ar  153   3.007   0.985   4.055
    1   AR   Ar  154   3.750   1.693   4.837
    1   AR   Ar  155   5.563   0.864   5.576
    1   AR   Ar  156   4.091   3.744   3.699
    1   AR   Ar  157   3.553   1.928   5.969
    1   AR   Ar  158   1.605   1.860   6.421
    1   AR   Ar  159   4.438   0.722   6.177
    1   AR   Ar  160   3.891   3.051   6.697
    1   AR   Ar  161   4.524   2.902   0.619
    1   AR   Ar  162   4.270   5.348  -0.001
    1   AR   Ar  163   5.746   3.249  -0.182
    1   AR   Ar  164   4.551   5.196   1.727
    1   AR   Ar  165   3.011   3.622   2.816
    1   AR   Ar  166   2.920   4.989   2.820
    1   AR   Ar  167   4.963   2.237   2.423
    1   AR   Ar  168   3.796   4.437   0.078
    1   AR   Ar  169   2.773   2.676   3.566
    1   AR   Ar  170   3.159   4.157   4.628
    1   AR   Ar  171   4.053   3.623   4.899
    1   AR   Ar  172   4.339   4.820   4.421
    1   AR   Ar  173   2.501   2.782   6.321
    1   AR   Ar  174   4.422   4.947   5.647
    1   AR   Ar  175   4.522   3.755   6.020
    1   AR   Ar  176   3.370   5.181   4.987
    1   AR   Ar  177   5.310   5.839  -0.187
    1   AR   Ar  178   3.470   6.535   1.523
    1   AR   Ar  179   3.702   5.476   1.041
    1   AR   Ar  180   3.886   3.966  -1.368
    1   AR   Ar  181   3.469   5.550   2.089
    1   AR   Ar  182   2.510   6.578   2.131
    1   AR   Ar  183   3.672   4.397   2.296
    1   AR   Ar  184   4.411   6.341   2.306
    1   AR   Ar  185   1.309   5.423   3.996
    1   AR   Ar  186   3.374   5.338   3.866
    1   AR   Ar  187   4.840   5.352   3.601
    1   AR   Ar  188   3.653   6.243   3.110
    1   AR   Ar  189   2.600   5.018   5.833
    1   AR   Ar  190   4.208   5.979   5.952
    1   AR   Ar  191   5.222   5.876   5.316
    1   AR   Ar  192   4.243   5.889   4.912
    1   AR   Ar  193   6.176   6.501  -0.347
    1   AR   Ar  194   5.555   6.320  -1.175
    1   AR   Ar  195   5.773   1.032   0.358
    1   AR   Ar  196   5.869   0.816  -1.406
    1   AR   Ar  197   4.999   0.358   1.102
    1   AR   Ar  198   6.033   1.582   1.373
    1   AR   Ar  199   5.226   0.390   2.236
    1   AR   Ar  200   6.828   1.218   0.492
    1   AR   Ar  201   4.831   6.392   3.219
    1   AR   Ar  202   5.199   2.090   4.184
    1   AR   Ar  203   0.488   0.002   4.640
    1   AR   Ar  204   5.419   0.098   3.710
    1   AR   Ar  205   6.604   0.092   3.278
    1   AR   Ar  206   5.356   0.120   4.862
    1   AR   Ar  207   0.115   0.281   5.779
    1   AR   Ar  208   6.795   0.920   4.069
    1   AR   Ar  209   6.215   2.439  -2.204
    1   AR   Ar  210   4.971   1.751   1.437
    1   AR   Ar  211   6.410   2.557   0.436
    1   AR   Ar  212   6.126   4.186  -1.083
    1   AR   Ar  213   3.645   2.541   2.340
    1   AR   Ar  214   4.455   3.334   2.602
    1   AR   Ar  215   6.090   2.133   2.337
    1   AR   Ar  216   6.868   3.487   1.955
    1   AR   Ar  217   4.694   2.916   3.873
    1   AR   Ar  218   4.653   2.591   5.365
    1   AR   Ar  219   5.085   1.214   3.041
    1   AR   Ar  220   5.562   3.345   3.409
    1   AR   Ar  221   6.467   0.264   4.952
    1   AR   Ar  222   4.894   1.665   6.009
    1   AR   Ar  223   6.353   0.762   6.330
    1   AR   Ar  224   5.587   2.116   5.227
    1   AR   Ar  225   5.544   4.572   0.170
    1   AR   Ar  226   4.666   4.636   2.642
    1   AR   Ar  227   7.005   4.442   0.593
    1   AR   Ar  228   6.194   5.541   0.514
    1   AR   Ar  229   5.964   3.802   0.774
    1   AR   Ar  230   3.827   4.605   3.318
    1   AR   Ar  231   6.757   2.343   3.082
    1   AR   Ar  232   4.655   3.894   1.335
    1   AR   Ar  233   6.356   2.787   3.963
    1   AR   Ar  234   6.062   4.112   4.986
    1   AR   Ar  235   0.037   3.390   4.200
    1   AR   Ar  236   5.041   4.236   3.533
    1   AR   Ar  237   5.487   3.230   4.559
    1   AR   Ar  238   4.994   4.322   5.087
    1   AR   Ar  239   6.752   4.617   8.143
    1   AR   Ar  240   6.707   4.334   6.061
    1   AR   Ar  241   6.629   0.500  -0.463
    1   AR   Ar  242   5.403   6.125   0.983
    1   AR   Ar  243   5.394   4.061   2.236
    1   AR   Ar  244   6.715   5.572  -0.323
    1   AR   Ar  245   5.470   6.159   2.439
    1   AR   Ar  246   6.092   6.586   1.652
    1   AR   Ar  247   5.310   2.882   1.527
    1   AR   Ar  248   5.986   0.025   0.475
    1   AR   Ar  249   5.719   5.127   2.983
    1   AR   Ar  250   5.015   6.098   4.189
    1   AR   Ar  251   5.673   5.241   4.611
    1   AR   Ar  252   6.036   6.273   3.615
    1   AR   Ar  253   5.753   4.799   5.750
    1   AR   Ar  254   5.252   5.877   6.342
    1   AR   Ar  255   5.329   4.782   6.861
    1   AR   Ar  256   6.288   6.125   4.721
    7.12000  7.12000 12.00000
Argon-slab step 1495
  256
    1   AR   Ar    1   7.002   1.122  -1.387
    1   AR   Ar    2   6.779   0.532   1.440
    1   AR   Ar    3   0.260   6.833   0.720
    1   AR   Ar    4   0.533   0.606  -0.191
    1   AR   Ar    5   0.378   5.696   0.962
    1   AR   Ar    6   0.434   0.226   2.864
    1   AR   Ar    7   0.441   5.512   2.201
    1   AR   Ar    8   0.407   6.746   1.919
    1   AR   Ar    9   0.822   0.729   3.821
    1   AR   Ar   10   0.297   1.808   4.153
    1   AR   Ar   11   2.285   6.995   4.619
    1   AR   Ar   12   1.330   0.926   2.739
    1   AR   Ar   13   6.665   1.751   5.061
    1   AR   Ar   14   0.070   1.290   6.082
    1   AR   Ar   15   7.031   5.965   8.584
    1   AR   Ar   16   0.489   1.106   4.939
    1   AR   Ar   17   0.193   1.765  -0.384
    1   AR   Ar   18   6.804   3.781  -0.173
    1   AR   Ar   19   0.739   1.787   1.141
    1   AR   Ar   20   0.102   2.636  -2.216
    1   AR   Ar   21   6.297   0.983   2.239
    1   AR   Ar   22   0.199   2.485   2.066
    1   AR   Ar   23   0.339   0.956   2.046
    1   AR   Ar   24   0.254   2.771   0.924
    1   AR   Ar   25   7.067   1.238   2.963
    1   AR   Ar   26   6.076   1.787   3.692
    1   AR   Ar   27   2.027   1.253   3.614
    1   AR   Ar   28   0.985   2.829   4.510
    1   AR   Ar   29   6.001   1.889   6.168
    1   AR   Ar   30   0.042   2.439   6.036
    1   AR   Ar   31   0.424   0.569   7.688
    1   AR   Ar   32   1.460   2.918   5.932
    1   AR   Ar   33   1.269   4.296  -1.628
    1   AR   Ar   34   1.115   5.200   1.532
    1   AR   Ar   35   0.780   3.712   0.990
    1   AR   Ar   36   1.219   0.133  -1.531
    1   AR   Ar   37   0.946   3.177   2.129
    1   AR   Ar   38   7.044   4.625   2.191
    1   AR   Ar   39   0.998   4.278   2.350
    1   AR   Ar   40   1.771   4.195   1.589
    1   AR   Ar   41   0.884   2.360   3.332
    1   AR   Ar   42   6.772   5.292   5.311
    1   AR   Ar   43   6.490   2.973   5.295
    1   AR   Ar   44   0.555   3.358   3.067
    1   AR   Ar   45   1.000   3.597   5.297
    1   AR   Ar   46   6.881   5.307   6.518
    1   AR   Ar   47   6.849   3.421   6.877
    1   AR   Ar   48   6.840   6.620   6.392
    1   AR   Ar   49   6.326   5.168  -1.566
    1   AR   Ar   50   6.580   5.564   1.631
    1   AR   Ar   51   1.184   4.720   0.591
    1   AR   Ar   52   0.224   4.662  -0.488
    1   AR   Ar   53   6.617   6.125   2.690
    1   AR   Ar   54   0.314   6.261   3.637
    1   AR   Ar   55   6.768   5.150   3.119
    1   AR   Ar   56   1.372   6.368   1.218
    1   AR   Ar   57   6.525   3.535   3.063
    1   AR   Ar   58   7.048   5.366   4.113
    1   AR   Ar   59   2.108   5.825   5.282
    1   AR   Ar   60   1.430   6.441   4.015
    1   AR   Ar   61   6.195   5.799   5.977
    1   AR   Ar   62   0.598   6.147   5.094
    1   AR   Ar   63   1.398   5.629   5.926
    1   AR   Ar   64   1.490   6.664   5.069
    1   AR   Ar   65   3.001   0.303   0.347
    1   AR   Ar   66   1.914   1.157   1.128
    1   AR   Ar   67   3.321   6.048   0.029
    1   AR   Ar   68   3.085   0.678  -0.844
    1   AR   Ar   69   2.061   6.688   0.147
    1   AR   Ar   70   1.341   0.015   1.998
    1   AR   Ar   71   3.160   0.336   1.822
    1   AR   Ar   72   3.767   0.753   1.055
    1   AR   Ar   73   2.050   6.774   3.063
    1   AR   Ar   74   1.664   0.861   4.572
    1   AR   Ar   75   3.413   0.354   4.902
    1   AR   Ar   76   2.532   0.524   2.651
    1   AR   Ar   77   2.431   6.902   5.792
    1   AR   Ar   78   1.230   0.638   5.595
    1   AR   Ar   79   3.989   6.358   6.966
    1   AR   Ar   80   3.226   6.121   5.552
    1   AR   Ar   81   1.446   1.242   0.049
    1   AR   Ar   82   0.870   3.309  -0.204
    1   AR   Ar   83   2.263   2.208   1.125
    1   AR   Ar   84   2.042   3.995  -3.718
    1   AR   Ar   85   1.305   2.343  -0.131
    1   AR   Ar   86   1.686   2.620   1.917
    1   AR   Ar   87   2.214   1.396   2.143
    1   AR   Ar   88   3.019   3.915   1.434
    1   AR   Ar   89   1.008   1.779   2.091
    1   AR   Ar   90   2.882   2.448   4.866
    1   AR   Ar   91   1.870   2.173   4.119
    1   AR   Ar   92   1.743   2.089   2.865
    1   AR   Ar   93   1.700   1.868   5.145
    1   AR   Ar   94   3.157   0.375   7.365
    1   AR   Ar   95   3.808   6.929   5.944
    1   AR   Ar   96   2.585   0.524   6.412
    1   AR   Ar   97   3.986   2.216  -0.344
    1   AR   Ar   98   2.486   5.155   1.347
    1   AR   Ar   99   4.527   2.556  -1.387
    1   AR   Ar  100   1.266   4.274  -0.385
    1   AR   Ar  101   1.250   2.699   0.999
    1   AR   Ar  102   2.694   4.104   3.705
    1   AR   Ar  103   1.826   3.610   0.245
    1   AR   Ar  104   2.975   3.335  -1.398
    1   AR   Ar  105   1.460   3.268   3.641
    1   AR   Ar  106   2.061   3.176   4.592
    1   AR   Ar  107   2.307   4.043   5.379
    1   AR   Ar  108   3.584   2.929   4.228
    1   AR   Ar  109   1.814   4.304   4.452
    1   AR   Ar  110   1.478   4.587   5.577
    1   AR   Ar  111   4.171   4.966   7.126
    1   AR   Ar  112   1.529   5.146   6.924
    1   AR   Ar  113   2.536   4.226   0.636
    1   AR   Ar  114   2.609   6.133   1.017
    1   AR   Ar  115   2.992   5.171  -0.348
    1   AR   Ar  116   4.352   6.780   0.047
    1   AR   Ar  117   1.227   5.012   2.996
    1   AR   Ar  118   1.352   5.921   2.159
    1   AR   Ar  119   1.895   3.973   2.885
    1   AR   Ar  120   2.056   4.981   2.356
    1   AR   Ar  121   6.283   4.565   3.827
    1   AR   Ar  122   2.981   6.103   4.542
    1   AR   Ar  123   2.459   5.070   4.290
    1   AR   Ar  124   2.370   5.862   3.553
    1   AR   Ar  125   0.524   4.933   4.882
    1   AR   Ar  126   0.827   6.431   6.222
    1   AR   Ar  127   2.878   5.316   7.337
    1   AR   Ar  128   2.407   5.875   6.319
    1   AR   Ar  129   2.247   7.105   1.360
    1   AR   Ar  130   4.718   1.182  -1.428
    1   AR   Ar  131   4.370   6.484   1.099
    1   AR   Ar  132   6.636   2.356  -1.260
    1   AR   Ar  133   3.520   0.277   3.024
    1   AR   Ar  134   4.033   1.690   2.824
    1   AR   Ar  135   4.655   0.273   3.046
    1   AR   Ar  136   4.173   0.713   2.112
    1   AR   Ar  137   2.859   6.941   3.773
    1   AR   Ar  138   4.820   1.300   4.975
    1   AR   Ar  139   5.509   1.042   4.317
    1   AR   Ar  140   4.309   1.030   3.953
    1   AR   Ar  141   4.457   7.040   4.071
    1   AR   Ar  142   4.804   6.745   5.628
    1   AR   Ar  143   5.841   6.776   5.838
    1   AR   Ar  144   5.333   0.741   6.869
    1   AR   Ar  145   3.270   3.044   0.413
    1   AR   Ar  146   4.209   2.918   1.603
    1   AR   Ar  147   5.452   2.130   0.073
    1   AR   Ar  148   5.655   3.460  -2.471
    1   AR   Ar  149   4.294   1.596   0.505
    1   AR   Ar  150   2.866   1.713   2.948
    1   AR   Ar  151   3.550   1.982   3.825
    1   AR   Ar  152   2.738   2.918   1.785
    1   AR   Ar  153   2.985   1.005   4.064
    1   AR   Ar  154   3.763   1.664   4.869
    1   AR   Ar  155   5.563   0.892   5.550
    1   AR   Ar  156   4.086   3.715   3.701
    1   AR   Ar  157   3.561   1.935   5.923
    1   AR   Ar  158   1.572   1.822   6.424
    1   AR   Ar  159   4.444   0.713   6.196
    1   AR   Ar  160   3.905   3.066   6.740
    1   AR   Ar  161   4.547   2.884   0.615
    1   AR   Ar  162   4.271   5.329   0.007
    1   AR   Ar  163   5.726   3.234  -0.169
    1   AR   Ar  164   4.511   5.224   1.719
    1   AR   Ar  165   2.996   3.626   2.801
    1   AR   Ar  166   2.888   5.008   2.815
    1   AR   Ar  167   4.970   2.227   2.433
    1   AR   Ar  168   3.797   4.400   0.059
    1   AR   Ar  169   2.773   2.665   3.564
    1   AR   Ar  170   3.190   4.169   4.657
    1   AR   Ar  171   4.069   3.580   4.877
    1   AR   Ar  172   4.328   4.803   4.439
    1   AR   Ar  173   2.479   2.790   6.326
    1   AR   Ar  174   4.398   4.947   5.686
    1   AR   Ar  175   4.522   3.741   6.029
    1   AR   Ar  176   3.345   5.137   4.992
    1   AR   Ar  177   5.318   5.832  -0.197
    1   AR   Ar  178   3.508   6.514   1.511
    1   AR   Ar  179   3.720   5.447   0.998
    1   AR   Ar  180   3.886   3.951  -1.382
    1   AR   Ar  181   3.501   5.543   2.088
    1   AR   Ar  182   2.482   6.586   2.165
    1   AR   Ar  183   3.691   4.406   2.331
    1   AR   Ar  184   4.393   6.348   2.343
    1   AR   Ar  185   1.351   5.431   3.989
    1   AR   Ar  186   3.359   5.336   3.878
    1   AR   Ar  187   4.839   5.380   3.557
    1   AR   Ar  188   3.672   6.225   3.069
    1   AR   Ar  189   2.614   5.055   5.793
    1   AR   Ar  190   4.197   5.995   5.954
    1   AR   Ar  191   5.214   5.911   5.297
    1   AR   Ar  192   4.234   5.901   4.908
    1   AR   Ar  193   6.164   6.535  -0.348
    1   AR   Ar  194   5.526   6.314  -1.195
    1   AR   Ar  195   5.767   1.037   0.367
    1   AR   Ar  196   5.859   0.826  -1.450
    1   AR   Ar  197   4.981   0.337   1.075
    1   AR   Ar  198   6.022   1.596   1.370
    1   AR   Ar  199   5.215   0.374   2.272
    1   AR   Ar  200   6.831   1.208   0.507
    1   AR   Ar  201   4.834   6.375   3.211
    1   AR   Ar  202   5.202   2.103   4.185
    1   AR   Ar  203   0.479   7.089   4.623
    1   AR   Ar  204   5.421   0.100   3.720
    1   AR   Ar  205   6.587   0.095   3.292
    1   AR   Ar  206   5.383   0.091   4.817
    1   AR   Ar  207   0.119   0.251   5.798
    1   AR   Ar  208   6.764   0.909   4.088
    1   AR   Ar  209   6.154   2.424  -2.205
    1   AR   Ar  210   4.956   1.734   1.419
    1   AR   Ar  211   6.397   2.557   0.450
    1   AR   Ar  212   6.121   4.172  -1.104
    1   AR   Ar  213   3.620   2.551   2.354
    1   AR   Ar  214   4.439   3.330   2.611
    1   AR   Ar  215   6.073   2.123   2.338
    1   AR   Ar  216   6.856   3.471   1.965
    1   AR   Ar  217   4.667   2.908   3.881
    1   AR   Ar  218   4.663   2.603   5.351
    1   AR   Ar  219   5.097   1.215   3.030
    1   AR   Ar  220   5.536   3.304   3.404
    1   AR   Ar  221   6.493   0.253   4.950
    1   AR   Ar  222   4.927   1.656   5.989
    1   AR   Ar  223   6.341   0.779   6.349
    1   AR   Ar  224   5.569   2.095   5.271
    1   AR   Ar  225   5.550   4.603   0.185
    1   AR   Ar  226   4.657   4.651   2.648
    1   AR   Ar  227   7.018   4.429   0.552
    1   AR   Ar  228   6.203   5.528   0.523
    1   AR   Ar  229   5.954   3.792   0.769
    1   AR   Ar  230   3.818   4.595   3.327
    1   AR   Ar  231   6.791   2.397   3.075
    1   AR   Ar  232   4.669   3.894   1.375
    1   AR   Ar  233   6.341   2.795   3.977
    1   AR   Ar  234   6.076   4.153   4.988
    1   AR   Ar  235   0.065   3.406   4.227
    1   AR   Ar  236   5.073   4.274   3.538
    1   AR   Ar  237   5.495   3.222   4.593
    1   AR   Ar  238   4.944   4.306   5.082
    1   AR   Ar  239   6.737   4.613   8.151
    1   AR   Ar  240   6.735   4.337   6.013
    1   AR   Ar  241   6.646   0.518  -0.466
    1   AR   Ar  242   5.368   6.119   0.973
    1   AR   Ar  243   5.404   4.025   2.222
    1   AR   Ar  244   6.709   5.564  -0.343
    1   AR   Ar  245   5.476   6.176   2.426
    1   AR   Ar  246   6.060   6.552   1.644
    1   AR   Ar  247   5.323   2.891   1.528
    1   AR   Ar  248   5.966   0.009   0.459
    1   AR   Ar  249   5.748   5.157   2.963
    1   AR   Ar  250   5.094   6.070   4.180
    1   AR   Ar  251   5.656   5.269   4.619
    1   AR   Ar  252   6.035   6.242   3.616
    1   AR   Ar  253   5.752   4.790   5.785
    1   AR   Ar  254   5.253   5.870   6.342
    1   AR   Ar  255   5.342   4.786   6.836
    1   AR   Ar  256   6.308   6.150   4.748
    7.12000  7.12000 12.00000
Argon-slab step 1500
  256
    1   AR   Ar    1   6.985   1.122  -1.397
    1   AR   Ar    2   6.746   0.517   1.472
    1   AR   Ar    3   0.297   6.822   0.739
    1   AR   Ar    4   0.529   0.634  -0.186
    1   AR   Ar    5   0.381   5.698   0.943
    1   AR   Ar    6   0.449   0.195   2.883
    1   AR   Ar    7   0.446   5.523   2.165
    1   AR   Ar    8   0.395   6.717   1.934
    1   AR   Ar    9   0.826   0.737   3.800
    1   AR   Ar   10   0.299   1.816   4.165
    1   AR   Ar   11   2.318   7.012   4.606
    1   AR   Ar   12   1.315   0.952   2.766
    1   AR   Ar   13   6.679   1.736   5.108
    1   AR   Ar   14   0.060   1.311   6.112
    1   AR   Ar   15   7.033   5.984   8.553
    1   AR   Ar   16   0.498   1.093   4.936
    1   AR   Ar   17   0.182   1.751  -0.395
    1   AR   Ar   18   6.815   3.781  -0.189
    1   AR   Ar   19   0.715   1.741   1.125
    1   AR   Ar   20   0.061   2.606  -2.194
    1   AR   Ar   21   6.296   1.015   2.227
    1   AR   Ar   22   0.226   2.497   2.064
    1   AR   Ar   23   0.342   0.951   2.039
    1   AR   Ar   24   0.249   2.750   0.919
    1   AR   Ar   25   7.075   1.236   2.952
    1   AR   Ar   26   6.069   1.767   3.704
    1   AR   Ar   27   2.030   1.250   3.596
    1   AR   Ar   28   0.984   2.824   4.494
    1   AR   Ar   29   5.992   1.900   6.175
    1   AR   Ar   30   0.053   2.446   6.027
    1   AR   Ar   31   0.422   0.547   7.663
    1   AR   Ar   32   1.462   2.872   5.969
    1   AR   Ar   33   1.299   4.285  -1.636
    1   AR   Ar   34   1.106   5.171   1.506
    1   AR   Ar   35   0.792   3.712   1.006
    1   AR   Ar   36   1.191   0.140  -1.555
    1   AR   Ar   37   0.912   3.169   2.108
    1   AR   Ar   38   7.034   4.631   2.191
    1   AR   Ar   39   1.003   4.242   2.349
    1   AR   Ar   40   1.748   4.198   1.610
    1   AR   Ar   41   0.895   2.377   3.375
    1   AR   Ar   42   6.779   5.289   5.302
    1   AR   Ar   43   6.503   2.971   5.295
    1   AR   Ar   44   0.566   3.371   3.080
    1   AR   Ar   45   0.992   3.607   5.307
    1   AR   Ar   46   6.910   5.332   6.536
    1   AR   Ar   47   6.861   3.394   6.868
    1   AR   Ar   48   6.843   6.626   6.383
    1   AR   Ar   49   6.348   5.125  -1.574
    1   AR   Ar   50   6.587   5.551   1.622
    1   AR   Ar   51   1.194   4.716   0.585
    1   AR   Ar   52   0.195   4.660  -0.513
    1   AR   Ar   53   6.646   6.156   2.672
    1   AR   Ar   54   0.330   6.265   3.611
    1   AR   Ar   55   6.753   5.160   3.103
    1   AR   Ar   56   1.351   6.393   1.196
    1   AR   Ar   57   6.504   3.545   3.097
    1   AR   Ar   58   7.032   5.340   4.138
    1   AR   Ar   59   2.090   5.800   5.290
    1   AR   Ar   60   1.426   6.437   4.001
    1   AR   Ar   61   6.190   5.808   5.984
    1   AR   Ar   62   0.604   6.135   5.083
    1   AR   Ar   63   1.409   5.621   5.943
    1   AR   Ar   64   1.455   6.671   5.129
    1   AR   Ar   65   2.997   0.250   0.354
    1   AR   Ar   66   1.914   1.156   1.135
    1   AR   Ar   67   3.347   6.065   0.043
    1   AR   Ar   68   3.103   0.653  -0.855
    1   AR   Ar   69   2.051   6.710   0.167
    1   AR   Ar   70   1.342   7.103   1.972
    1   AR   Ar   71   3.159   0.331   1.833
    1   AR   Ar   72   3.777   0.761   1.038
    1   AR   Ar   73   2.034   6.783   3.081
    1   AR   Ar   74   1.626   0.885   4.532
    1   AR   Ar   75   3.427   0.350   4.872
    1   AR   Ar   76   2.513   0.520   2.579
    1   AR   Ar   77   2.422   6.937   5.775
    1   AR   Ar   78   1.206   0.629   5.632
    1   AR   Ar   79   3.993   6.342   6.934
    1   AR   Ar   80   3.229   6.124   5.559
    1   AR   Ar   81   1.452   1.219   0.051
    1   AR   Ar   82   0.846   3.327  -0.208
    1   AR   Ar   83   2.287   2.205   1.118
    1   AR   Ar   84   2.046   3.992  -3.699
    1   AR   Ar   85   1.333   2.339  -0.116
    1   AR   Ar   86   1.710   2.612   1.916
    1   AR   Ar   87   2.234   1.454   2.090
    1   AR   Ar   88   3.033   3.926   1.422
    1   AR   Ar   89   0.987   1.765   2.111
    1   AR   Ar   90   2.847   2.461   4.884
    1   AR   Ar   91   1.850   2.198   4.122
    1   AR   Ar   92   1.761   2.096   2.828
    1   AR   Ar   93   1.704   1.878   5.150
    1   AR   Ar   94   3.164   0.356   7.380
    1   AR   Ar   95   3.804   6.916   5.921
    1   AR   Ar   96   2.588   0.537   6.412
    1   AR   Ar   97   3.996   2.208  -0.329
    1   AR   Ar   98   2.499   5.144   1.352
    1   AR   Ar   99   4.541   2.538  -1.359
    1   AR   Ar  100   1.285   4.278  -0.341
    1   AR   Ar  101   1.246   2.683   0.960
    1   AR   Ar  102   2.694   4.086   3.709
    1   AR   Ar  103   1.844   3.625   0.211
    1   AR   Ar  104   2.966   3.326  -1.394
    1   AR   Ar  105   1.452   3.279   3.666
    1   AR   Ar  106   2.051   3.178   4.600
    1   AR   Ar  107   2.308   4.038   5.373
    1   AR   Ar  108   3.611   2.932   4.248
    1   AR   Ar  109   1.791   4.306   4.511
    1   AR   Ar  110   1.479   4.610   5.562
    1   AR   Ar  111   4.140   5.009   7.116
    1   AR   Ar  112   1.509   5.157   6.952
    1   AR   Ar  113   2.535   4.209   0.652
    1   AR   Ar  114   2.607   6.186   0.981
    1   AR   Ar  115   3.005   5.193  -0.310
    1   AR   Ar  116   4.363   6.755   0.048
    1   AR   Ar  117   1.203   4.993   3.002
    1   AR   Ar  118   1.365   5.936   2.161
    1   AR   Ar  119   1.889   3.973   2.885
    1   AR   Ar  120   2.041   4.940   2.332
    1   AR   Ar  121   6.256   4.547   3.829
    1   AR   Ar  122   2.987   6.107   4.542
    1   AR   Ar  123   2.453   5.028   4.316
    1   AR   Ar  124   2.347   5.862   3.573
    1   AR   Ar  125   0.505   4.912   4.858
    1   AR   Ar  126   0.814   6.417   6.214
    1   AR   Ar  127   2.891   5.335   7.314
    1   AR   Ar  128   2.380   5.872   6.292
    1   AR   Ar  129   2.246   0.004   1.366
    1   AR   Ar  130   4.715   1.173  -1.447
    1   AR   Ar  131   4.358   6.505   1.100
    1   AR   Ar  132   6.646   2.329  -1.283
    1   AR   Ar  133   3.545   0.242   3.048
    1   AR   Ar  134   4.012   1.695   2.832
    1   AR   Ar  135   4.656   0.254   3.083
    1   AR   Ar  136   4.187   0.721   2.128
    1   AR   Ar  137   2.884   6.919   3.772
    1   AR   Ar  138   4.782   1.304   4.962
    1   AR   Ar  139   5.504   1.061   4.317
    1   AR   Ar  140   4.300   1.037   3.938
    1   AR   Ar  141   4.465   7.034   4.091
    1   AR   Ar  142   4.792   6.757   5.621
    1   AR   Ar  143   5.827   6.776   5.822
    1   AR   Ar  144   5.332   0.734   6.862
    1   AR   Ar  145   3.211   3.080   0.418
    1   AR   Ar  146   4.230   2.917   1.631
    1   AR   Ar  147   5.476   2.147   0.057
    1   AR   Ar  148   5.631   3.489  -2.449
    1   AR   Ar  149   4.268   1.633   0.484
    1   AR   Ar  150   2.886   1.702   2.929
    1   AR   Ar  151   3.578   2.022   3.833
    1   AR   Ar  152   2.736   2.935   1.790
    1   AR   Ar  153   2.965   1.025   4.074
    1   AR   Ar  154   3.777   1.634   4.898
    1   AR   Ar  155   5.568   0.916   5.527
    1   AR   Ar  156   4.079   3.685   3.706
    1   AR   Ar  157   3.569   1.942   5.878
    1   AR   Ar  158   1.553   1.833   6.430
    1   AR   Ar  159   4.450   0.702   6.213
    1   AR   Ar  160   3.919   3.080   6.782
    1   AR   Ar  161   4.572   2.864   0.607
    1   AR   Ar  162   4.274   5.314   0.017
    1   AR   Ar  163   5.706   3.219  -0.156
    1   AR   Ar  164   4.472   5.252   1.710
    1   AR   Ar  165   2.982   3.629   2.784
    1   AR   Ar  166   2.875   5.027   2.824
    1   AR   Ar  167   4.975   2.218   2.442
    1   AR   Ar  168   3.795   4.360   0.040
    1   AR   Ar  169   2.773   2.643   3.568
    1   AR   Ar  170   3.219   4.178   4.685
    1   AR   Ar  171   4.090   3.540   4.858
    1   AR   Ar  172   4.347   4.806   4.457
    1   AR   Ar  173   2.458   2.797   6.330
    1   AR   Ar  174   4.373   4.951   5.727
    1   AR   Ar  175   4.523   3.728   6.037
    1   AR   Ar  176   3.324   5.098   4.998
    1   AR   Ar  177   5.326   5.811  -0.211
    1   AR   Ar  178   3.528   6.492   1.507
    1   AR   Ar  179   3.736   5.421   0.954
    1   AR   Ar  180   3.886   3.935  -1.396
    1   AR   Ar  181   3.534   5.536   2.089
    1   AR   Ar  182   2.460   6.587   2.201
    1   AR   Ar  183   3.707   4.413   2.357
    1   AR   Ar  184   4.370   6.356   2.360
    1   AR   Ar  185   1.377   5.430   3.985
    1   AR   Ar  186   3.347   5.337   3.889
    1   AR   Ar  187   4.832   5.393   3.504
    1   AR   Ar  188   3.687   6.207   3.033
    1   AR   Ar  189   2.630   5.081   5.749
    1   AR   Ar  190   4.188   6.000   5.962
    1   AR   Ar  191   5.212   5.939   5.275
    1   AR   Ar  192   4.221   5.911   4.899
    1   AR   Ar  193   6.154   6.567  -0.351
    1   AR   Ar  194   5.497   6.308  -1.216
    1   AR   Ar  195   5.758   1.045   0.375
    1   AR   Ar  196   5.848   0.837  -1.492
    1   AR   Ar  197   4.963   0.317   1.048
    1   AR   Ar  198   6.012   1.610   1.365
    1   AR   Ar  199   5.216   0.359   2.292
    1   AR   Ar  200   6.835   1.199   0.522
    1   AR   Ar  201   4.837   6.363   3.206
    1   AR   Ar  202   5.205   2.112   4.190
    1   AR   Ar  203   0.470   7.049   4.597
    1   AR   Ar  204   5.431   0.100   3.730
    1   AR   Ar  205   6.568   0.098   3.306
    1   AR   Ar  206   5.407   0.060   4.784
    1   AR   Ar  207   0.126   0.223   5.813
    1   AR   Ar  208   6.733   0.898   4.106
    1   AR   Ar  209   6.091   2.409  -2.209
    1   AR   Ar  210   4.941   1.718   1.401
    1   AR   Ar  211   6.383   2.557   0.464
    1   AR   Ar  212   6.116   4.159  -1.124
    1   AR   Ar  213   3.592   2.560   2.374
    1   AR   Ar  214   4.423   3.327   2.621
    1   AR   Ar  215   6.055   2.111   2.338
    1   AR   Ar  216   6.844   3.456   1.976
    1   AR   Ar  217   4.679   2.937   3.864
    1   AR   Ar  218   4.665   2.577   5.333
    1   AR   Ar  219   5.112   1.220   3.019
    1   AR   Ar  220   5.515   3.269   3.393
    1   AR   Ar  221   6.519   0.242   4.949
    1   AR   Ar  222   4.957   1.648   5.973
    1   AR   Ar  223   6.349   0.785   6.337
    1   AR   Ar  224   5.556   2.074   5.305
    1   AR   Ar  225   5.557   4.635   0.198
    1   AR   Ar  226   4.653   4.660   2.655
    1   AR   Ar  227   7.033   4.424   0.519
    1   AR   Ar  228   6.208   5.515   0.540
    1   AR   Ar  229   5.972   3.829   0.795
    1   AR   Ar  230   3.809   4.593   3.336
    1   AR   Ar  231   6.829   2.452   3.068
    1   AR   Ar  232   4.684   3.893   1.416
    1   AR   Ar  233   6.324   2.803   3.992
    1   AR   Ar  234   6.094   4.167   4.994
    1   AR   Ar  235   0.094   3.422   4.253
    1   AR   Ar  236   5.104   4.313   3.546
    1   AR   Ar  237   5.501   3.213   4.627
    1   AR   Ar  238   4.901   4.284   5.078
    1   AR   Ar  239   6.721   4.608   8.158
    1   AR   Ar  240   6.763   4.340   5.964
    1   AR   Ar  241   6.645   0.530  -0.444
    1   AR   Ar  242   5.333   6.112   0.960
    1   AR   Ar  243   5.416   3.986   2.208
    1   AR   Ar  244   6.706   5.555  -0.369
    1   AR   Ar  245   5.484   6.191   2.414
    1   AR   Ar  246   6.033   6.522   1.635
    1   AR   Ar  247   5.337   2.899   1.529
    1   AR   Ar  248   5.946   7.113   0.451
    1   AR   Ar  249   5.772   5.188   2.942
    1   AR   Ar  250   5.178   6.056   4.186
    1   AR   Ar  251   5.643   5.290   4.626
    1   AR   Ar  252   6.033   6.211   3.617
    1   AR   Ar  253   5.749   4.785   5.821
    1   AR   Ar  254   5.247   5.863   6.347
    1   AR   Ar  255   5.354   4.791   6.809
    1   AR   Ar  256   6.328   6.175   4.777
    7.12000  7.12000 12.00000
Argon-slab step 1505
  256
    1   AR   Ar    1   6.967   1.123  -1.406
    1   AR   Ar    2   6.711   0.493   1.493
    1   AR   Ar    3   0.334   6.812   0.760
    1   AR   Ar    4   0.527   0.662  -0.180
    1   AR   Ar    5   0.382   5.700   0.923
    1   AR   Ar    6   0.465   0.164   2.900
    1   AR   Ar    7   0.440   5.538   2.137
    1   AR   Ar    8   0.378   6.685   1.947
    1   AR   Ar    9   0.823   0.758   3.773
    1   AR   Ar   10   0.301   1.825   4.175
    1   AR   Ar   11   2.350   7.030   4.597
    1   AR   Ar   12   1.300   0.978   2.792
    1   AR   Ar   13   6.692   1.721   5.155
    1   AR   Ar   14   0.057   1.336   6.138
    1   AR   Ar   15   7.035   6.004   8.521
    1   AR   Ar   16   0.507   1.077   4.932
    1   AR   Ar   17   0.171   1.736  -0.406
    1   AR   Ar   18   6.822   3.770  -0.212
    1   AR   Ar   19   0.689   1.694   1.104
    1   AR   Ar   20   0.021   2.576  -2.173
    1   AR   Ar   21   6.291   1.050   2.222
    1   AR   Ar   22   0.239   2.497   2.061
    1   AR   Ar   23   0.351   0.945   2.032
    1   AR   Ar   24   0.234   2.730   0.915
    1   AR   Ar   25   7.082   1.237   2.947
    1   AR   Ar   26   6.066   1.745   3.712
    1   AR   Ar   27   2.031   1.247   3.575
    1   AR   Ar   28   0.991   2.815   4.462
    1   AR   Ar   29   5.991   1.908   6.190
    1   AR   Ar   30   0.064   2.453   6.017
    1   AR   Ar   31   0.420   0.524   7.637
    1   AR   Ar   32   1.463   2.825   6.004
    1   AR   Ar   33   1.328   4.275  -1.643
    1   AR   Ar   34   1.097   5.164   1.481
    1   AR   Ar   35   0.806   3.712   1.035
    1   AR   Ar   36   1.162   0.148  -1.579
    1   AR   Ar   37   0.882   3.179   2.085
    1   AR   Ar   38   7.024   4.633   2.189
    1   AR   Ar   39   1.001   4.203   2.344
    1   AR   Ar   40   1.727   4.198   1.627
    1   AR   Ar   41   0.903   2.393   3.418
    1   AR   Ar   42   6.758   5.298   5.315
    1   AR   Ar   43   6.515   2.968   5.293
    1   AR   Ar   44   0.573   3.385   3.094
    1   AR   Ar   45   0.984   3.617   5.315
    1   AR   Ar   46   6.943   5.356   6.555
    1   AR   Ar   47   6.872   3.367   6.857
    1   AR   Ar   48   6.842   6.624   6.378
    1   AR   Ar   49   6.369   5.083  -1.580
    1   AR   Ar   50   6.594   5.537   1.613
    1   AR   Ar   51   1.214   4.745   0.597
    1   AR   Ar   52   0.169   4.658  -0.540
    1   AR   Ar   53   6.676   6.189   2.654
    1   AR   Ar   54   0.325   6.257   3.575
    1   AR   Ar   55   6.750   5.171   3.087
    1   AR   Ar   56   1.330   6.416   1.171
    1   AR   Ar   57   6.485   3.554   3.132
    1   AR   Ar   58   7.012   5.318   4.163
    1   AR   Ar   59   2.063   5.799   5.291
    1   AR   Ar   60   1.422   6.441   3.987
    1   AR   Ar   61   6.186   5.819   5.987
    1   AR   Ar   62   0.604   6.115   5.073
    1   AR   Ar   63   1.406   5.607   5.969
    1   AR   Ar   64   1.423   6.682   5.191
    1   AR   Ar   65   2.994   0.195   0.362
    1   AR   Ar   66   1.911   1.153   1.138
    1   AR   Ar   67   3.378   6.091   0.062
    1   AR   Ar   68   3.121   0.628  -0.866
    1   AR   Ar   69   2.042   6.732   0.189
    1   AR   Ar   70   1.348   7.076   1.953
    1   AR   Ar   71   3.164   0.325   1.841
    1   AR   Ar   72   3.789   0.769   1.020
    1   AR   Ar   73   2.012   6.795   3.107
    1   AR   Ar   74   1.588   0.908   4.494
    1   AR   Ar   75   3.410   0.397   4.891
    1   AR   Ar   76   2.487   0.518   2.515
    1   AR   Ar   77   2.410   6.957   5.745
    1   AR   Ar   78   1.182   0.620   5.668
    1   AR   Ar   79   3.997   6.327   6.904
    1   AR   Ar   80   3.227   6.123   5.565
    1   AR   Ar   81   1.443   1.198   0.063
    1   AR   Ar   82   0.819   3.344  -0.210
    1   AR   Ar   83   2.311   2.201   1.109
    1   AR   Ar   84   2.049   3.990  -3.679
    1   AR   Ar   85   1.353   2.341  -0.106
    1   AR   Ar   86   1.742   2.599   1.914
    1   AR   Ar   87   2.252   1.514   2.039
    1   AR   Ar   88   3.051   3.925   1.414
    1   AR   Ar   89   0.973   1.753   2.137
    1   AR   Ar   90   2.813   2.472   4.902
    1   AR   Ar   91   1.829   2.224   4.123
    1   AR   Ar   92   1.782   2.101   2.795
    1   AR   Ar   93   1.706   1.889   5.157
    1   AR   Ar   94   3.170   0.336   7.394
    1   AR   Ar   95   3.794   6.916   5.901
    1   AR   Ar   96   2.600   0.516   6.375
    1   AR   Ar   97   4.005   2.204  -0.318
    1   AR   Ar   98   2.513   5.120   1.368
    1   AR   Ar   99   4.555   2.520  -1.331
    1   AR   Ar  100   1.300   4.287  -0.305
    1   AR   Ar  101   1.251   2.668   0.920
    1   AR   Ar  102   2.699   4.054   3.661
    1   AR   Ar  103   1.859   3.631   0.180
    1   AR   Ar  104   2.957   3.317  -1.391
    1   AR   Ar  105   1.449   3.291   3.689
    1   AR   Ar  106   2.041   3.182   4.609
    1   AR   Ar  107   2.317   4.028   5.368
    1   AR   Ar  108   3.631   2.934   4.267
    1   AR   Ar  109   1.759   4.302   4.567
    1   AR   Ar  110   1.476   4.637   5.547
    1   AR   Ar  111   4.109   5.054   7.106
    1   AR   Ar  112   1.490   5.168   6.980
    1   AR   Ar  113   2.530   4.198   0.663
    1   AR   Ar  114   2.606   6.238   0.944
    1   AR   Ar  115   3.017   5.206  -0.274
    1   AR   Ar  116   4.374   6.730   0.049
    1   AR   Ar  117   1.179   4.979   3.011
    1   AR   Ar  118   1.353   5.987   2.178
    1   AR   Ar  119   1.884   3.973   2.885
    1   AR   Ar  120   2.012   4.900   2.299
    1   AR   Ar  121   6.226   4.529   3.834
    1   AR   Ar  122   2.950   6.108   4.523
    1   AR   Ar  123   2.450   4.992   4.343
    1   AR   Ar  124   2.326   5.862   3.593
    1   AR   Ar  125   0.494   4.887   4.837
    1   AR   Ar  126   0.799   6.406   6.220
    1   AR   Ar  127   2.904   5.355   7.289
    1   AR   Ar  128   2.354   5.879   6.275
    1   AR   Ar  129   2.243   0.028   1.365
    1   AR   Ar  130   4.708   1.151  -1.468
    1   AR   Ar  131   4.352   6.539   1.089
    1   AR   Ar  132   6.658   2.300  -1.303
    1   AR   Ar  133   3.570   0.209   3.070
    1   AR   Ar  134   3.994   1.696   2.841
    1   AR   Ar  135   4.643   0.238   3.127
    1   AR   Ar  136   4.201   0.730   2.145
    1   AR   Ar  137   2.913   6.895   3.766
    1   AR   Ar  138   4.737   1.312   4.952
    1   AR   Ar  139   5.511   1.073   4.335
    1   AR   Ar  140   4.309   1.055   3.961
    1   AR   Ar  141   4.496   7.044   4.099
    1   AR   Ar  142   4.778   6.783   5.614
    1   AR   Ar  143   5.816   6.780   5.804
    1   AR   Ar  144   5.332   0.728   6.853
    1   AR   Ar  145   3.153   3.116   0.425
    1   AR   Ar  146   4.251   2.917   1.657
    1   AR   Ar  147   5.497   2.163   0.041
    1   AR   Ar  148   5.609   3.511  -2.434
    1   AR   Ar  149   4.241   1.664   0.462
    1   AR   Ar  150   2.905   1.691   2.912
    1   AR   Ar  151   3.609   2.050   3.839
    1   AR   Ar  152   2.736   2.953   1.796
    1   AR   Ar  153   2.973   1.043   4.079
    1   AR   Ar  154   3.788   1.604   4.923
    1   AR   Ar  155   5.579   0.937   5.504
    1   AR   Ar  156   4.067   3.666   3.707
    1   AR   Ar  157   3.578   1.952   5.835
    1   AR   Ar  158   1.538   1.857   6.436
    1   AR   Ar  159   4.455   0.689   6.227
    1   AR   Ar  160   3.934   3.095   6.823
    1   AR   Ar  161   4.599   2.844   0.598
    1   AR   Ar  162   4.279   5.303   0.025
    1   AR   Ar  163   5.686   3.206  -0.142
    1   AR   Ar  164   4.437   5.281   1.703
    1   AR   Ar  165   2.970   3.630   2.764
    1   AR   Ar  166   2.875   5.046   2.843
    1   AR   Ar  167   4.978   2.210   2.452
    1   AR   Ar  168   3.790   4.319   0.022
    1   AR   Ar  169   2.768   2.623   3.570
    1   AR   Ar  170   3.247   4.174   4.707
    1   AR   Ar  171   4.120   3.507   4.846
    1   AR   Ar  172   4.357   4.816   4.466
    1   AR   Ar  173   2.440   2.804   6.335
    1   AR   Ar  174   4.358   4.940   5.760
    1   AR   Ar  175   4.523   3.716   6.042
    1   AR   Ar  176   3.318   5.080   4.994
    1   AR   Ar  177   5.333   5.790  -0.223
    1   AR   Ar  178   3.519   6.467   1.519
    1   AR   Ar  179   3.749   5.396   0.909
    1   AR   Ar  180   3.887   3.920  -1.409
    1   AR   Ar  181   3.555   5.530   2.085
    1   AR   Ar  182   2.451   6.581   2.223
    1   AR   Ar  183   3.717   4.416   2.372
    1   AR   Ar  184   4.350   6.367   2.351
    1   AR   Ar  185   1.380   5.416   3.985
    1   AR   Ar  186   3.337   5.341   3.899
    1   AR   Ar  187   4.822   5.393   3.448
    1   AR   Ar  188   3.689   6.185   3.009
    1   AR   Ar  189   2.647   5.094   5.706
    1   AR   Ar  190   4.184   5.990   5.971
    1   AR   Ar  191   5.216   5.962   5.255
    1   AR   Ar  192   4.206   5.921   4.888
    1   AR   Ar  193   6.148   6.593  -0.362
    1   AR   Ar  194   5.469   6.301  -1.237
    1   AR   Ar  195   5.748   1.056   0.385
    1   AR   Ar  196   5.839   0.849  -1.534
    1   AR   Ar  197   4.945   0.297   1.021
    1   AR   Ar  198   6.005   1.623   1.356
    1   AR   Ar  199   5.227   0.344   2.300
    1   AR   Ar  200   6.841   1.190   0.538
    1   AR   Ar  201   4.846   6.355   3.218
    1   AR   Ar  202   5.208   2.120   4.200
    1   AR   Ar  203   0.461   7.013   4.569
    1   AR   Ar  204   5.450   0.100   3.739
    1   AR   Ar  205   6.553   0.086   3.324
    1   AR   Ar  206   5.414   0.036   4.798
    1   AR   Ar  207   0.132   0.205   5.822
    1   AR   Ar  208   6.703   0.888   4.123
    1   AR   Ar  209   6.026   2.395  -2.213
    1   AR   Ar  210   4.923   1.703   1.383
    1   AR   Ar  211   6.370   2.557   0.480
    1   AR   Ar  212   6.111   4.143  -1.141
    1   AR   Ar  213   3.560   2.571   2.397
    1   AR   Ar  214   4.409   3.325   2.632
    1   AR   Ar  215   6.039   2.101   2.339
    1   AR   Ar  216   6.834   3.442   1.987
    1   AR   Ar  217   4.691   2.955   3.852
    1   AR   Ar  218   4.661   2.553   5.314
    1   AR   Ar  219   5.127   1.228   3.010
    1   AR   Ar  220   5.487   3.253   3.381
    1   AR   Ar  221   6.543   0.230   4.950
    1   AR   Ar  222   4.977   1.639   5.966
    1   AR   Ar  223   6.381   0.795   6.317
    1   AR   Ar  224   5.550   2.057   5.320
    1   AR   Ar  225   5.563   4.670   0.210
    1   AR   Ar  226   4.666   4.633   2.666
    1   AR   Ar  227   7.046   4.426   0.495
    1   AR   Ar  228   6.211   5.502   0.561
    1   AR   Ar  229   5.970   3.837   0.818
    1   AR   Ar  230   3.800   4.595   3.352
    1   AR   Ar  231   6.863   2.453   3.078
    1   AR   Ar  232   4.697   3.893   1.457
    1   AR   Ar  233   6.307   2.811   4.008
    1   AR   Ar  234   6.114   4.165   5.001
    1   AR   Ar  235   0.123   3.440   4.278
    1   AR   Ar  236   5.136   4.351   3.557
    1   AR   Ar  237   5.507   3.204   4.661
    1   AR   Ar  238   4.868   4.255   5.081
    1   AR   Ar  239   6.706   4.604   8.165
    1   AR   Ar  240   6.790   4.344   5.914
    1   AR   Ar  241   6.636   0.542  -0.414
    1   AR   Ar  242   5.298   6.104   0.944
    1   AR   Ar  243   5.429   3.946   2.197
    1   AR   Ar  244   6.704   5.547  -0.400
    1   AR   Ar  245   5.491   6.203   2.405
    1   AR   Ar  246   6.012   6.496   1.621
    1   AR   Ar  247   5.357   2.913   1.531
    1   AR   Ar  248   5.923   7.101   0.453
    1   AR   Ar  249   5.786   5.220   2.920
    1   AR   Ar  250   5.255   6.057   4.196
    1   AR   Ar  251   5.638   5.297   4.633
    1   AR   Ar  252   6.035   6.179   3.615
    1   AR   Ar  253   5.745   4.782   5.853
    1   AR   Ar  254   5.265   5.829   6.354
    1   AR   Ar  255   5.365   4.806   6.815
    1   AR   Ar  256   6.346   6.202   4.805
    7.12000  7.12000 12.00000
Argon-slab step 1510
  256
    1   AR   Ar    1   6.949   1.125  -1.412
    1   AR   Ar    2   6.676   0.462   1.504
    1   AR   Ar    3   0.371   6.804   0.781
    1   AR   Ar    4   0.517   0.715  -0.182
    1   AR   Ar    5   0.353   5.710   0.907
    1   AR   Ar    6   0.482   0.133   2.917
    1   AR   Ar    7   0.423   5.557   2.115
    1   AR   Ar    8   0.356   6.650   1.959
    1   AR   Ar    9   0.817   0.779   3.745
    1   AR   Ar   10   0.301   1.835   4.184
    1   AR   Ar   11   2.376   7.050   4.594
    1   AR   Ar   12   1.286   1.001   2.818
    1   AR   Ar   13   6.704   1.706   5.202
    1   AR   Ar   14   0.065   1.369   6.160
    1   AR   Ar   15   7.037   6.023   8.489
    1   AR   Ar   16   0.514   1.059   4.929
    1   AR   Ar   17   0.160   1.720  -0.416
    1   AR   Ar   18   6.824   3.748  -0.242
    1   AR   Ar   19   0.663   1.647   1.081
    1   AR   Ar   20   7.103   2.547  -2.156
    1   AR   Ar   21   6.282   1.085   2.223
    1   AR   Ar   22   0.232   2.477   2.056
    1   AR   Ar   23   0.362   0.934   2.022
    1   AR   Ar   24   0.215   2.710   0.912
    1   AR   Ar   25   7.089   1.239   2.949
    1   AR   Ar   26   6.068   1.723   3.716
    1   AR   Ar   27   2.032   1.246   3.551
    1   AR   Ar   28   0.994   2.803   4.437
    1   AR   Ar   29   5.998   1.912   6.214
    1   AR   Ar   30   0.074   2.460   6.007
    1   AR   Ar   31   0.417   0.501   7.610
    1   AR   Ar   32   1.457   2.780   6.035
    1   AR   Ar   33   1.352   4.265  -1.649
    1   AR   Ar   34   1.082   5.199   1.467
    1   AR   Ar   35   0.821   3.712   1.064
    1   AR   Ar   36   1.133   0.156  -1.601
    1   AR   Ar   37   0.869   3.208   2.060
    1   AR   Ar   38   7.013   4.630   2.187
    1   AR   Ar   39   0.986   4.189   2.341
    1   AR   Ar   40   1.709   4.193   1.632
    1   AR   Ar   41   0.909   2.406   3.461
    1   AR   Ar   42   6.720   5.313   5.340
    1   AR   Ar   43   6.525   2.964   5.290
    1   AR   Ar   44   0.576   3.401   3.107
    1   AR   Ar   45   0.978   3.628   5.321
    1   AR   Ar   46   6.973   5.374   6.574
    1   AR   Ar   47   6.858   3.353   6.806
    1   AR   Ar   48   6.834   6.614   6.380
    1   AR   Ar   49   6.391   5.044  -1.586
    1   AR   Ar   50   6.602   5.524   1.605
    1   AR   Ar   51   1.234   4.771   0.606
    1   AR   Ar   52   0.145   4.657  -0.569
    1   AR   Ar   53   6.705   6.222   2.634
    1   AR   Ar   54   0.315   6.247   3.535
    1   AR   Ar   55   6.760   5.184   3.074
    1   AR   Ar   56   1.309   6.435   1.140
    1   AR   Ar   57   6.469   3.564   3.166
    1   AR   Ar   58   6.986   5.302   4.182
    1   AR   Ar   59   2.044   5.806   5.269
    1   AR   Ar   60   1.418   6.451   3.976
    1   AR   Ar   61   6.186   5.830   5.986
    1   AR   Ar   62   0.597   6.084   5.065
    1   AR   Ar   63   1.390   5.588   6.004
    1   AR   Ar   64   1.397   6.700   5.255
    1   AR   Ar   65   3.005   0.166   0.339
    1   AR   Ar   66   1.906   1.148   1.138
    1   AR   Ar   67   3.411   6.124   0.087
    1   AR   Ar   68   3.111   0.652  -0.900
    1   AR   Ar   69   2.032   6.755   0.211
    1   AR   Ar   70   1.357   7.055   1.940
    1   AR   Ar   71   3.179   0.317   1.840
    1   AR   Ar   72   3.803   0.775   1.002
    1   AR   Ar   73   1.986   6.810   3.138
    1   AR   Ar   74   1.550   0.930   4.461
    1   AR   Ar   75   3.394   0.444   4.909
    1   AR   Ar   76   2.451   0.521   2.462
    1   AR   Ar   77   2.394   6.957   5.698
    1   AR   Ar   78   1.158   0.610   5.703
    1   AR   Ar   79   3.998   6.315   6.880
    1   AR   Ar   80   3.218   6.119   5.570
    1   AR   Ar   81   1.426   1.178   0.082
    1   AR   Ar   82   0.790   3.359  -0.209
    1   AR   Ar   83   2.335   2.195   1.097
    1   AR   Ar   84   2.053   3.988  -3.660
    1   AR   Ar   85   1.344   2.367  -0.120
    1   AR   Ar   86   1.772   2.587   1.908
    1   AR   Ar   87   2.272   1.575   1.990
    1   AR   Ar   88   3.081   3.921   1.423
    1   AR   Ar   89   0.965   1.745   2.164
    1   AR   Ar   90   2.805   2.457   4.862
    1   AR   Ar   91   1.811   2.249   4.121
    1   AR   Ar   92   1.804   2.103   2.772
    1   AR   Ar   93   1.709   1.901   5.165
    1   AR   Ar   94   3.170   0.325   7.407
    1   AR   Ar   95   3.778   6.928   5.882
    1   AR   Ar   96   2.617   0.510   6.354
    1   AR   Ar   97   4.012   2.209  -0.319
    1   AR   Ar   98   2.529   5.089   1.391
    1   AR   Ar   99   4.568   2.502  -1.301
    1   AR   Ar  100   1.310   4.302  -0.281
    1   AR   Ar  101   1.262   2.654   0.881
    1   AR   Ar  102   2.703   4.026   3.620
    1   AR   Ar  103   1.873   3.624   0.150
    1   AR   Ar  104   2.948   3.307  -1.387
    1   AR   Ar  105   1.451   3.313   3.686
    1   AR   Ar  106   2.031   3.189   4.619
    1   AR   Ar  107   2.333   4.015   5.367
    1   AR   Ar  108   3.636   2.929   4.281
    1   AR   Ar  109   1.717   4.293   4.617
    1   AR   Ar  110   1.471   4.665   5.532
    1   AR   Ar  111   4.079   5.099   7.093
    1   AR   Ar  112   1.472   5.180   7.007
    1   AR   Ar  113   2.513   4.201   0.654
    1   AR   Ar  114   2.607   6.286   0.909
    1   AR   Ar  115   3.015   5.206  -0.258
    1   AR   Ar  116   4.385   6.703   0.049
    1   AR   Ar  117   1.154   4.968   3.022
    1   AR   Ar  118   1.348   6.040   2.198
    1   AR   Ar  119   1.881   3.972   2.886
    1   AR   Ar  120   1.979   4.864   2.270
    1   AR   Ar  121   6.204   4.504   3.830
    1   AR   Ar  122   2.912   6.108   4.506
    1   AR   Ar  123   2.449   4.962   4.369
    1   AR   Ar  124   2.306   5.860   3.614
    1   AR   Ar  125   0.493   4.858   4.821
    1   AR   Ar  126   0.780   6.399   6.228
    1   AR   Ar  127   2.917   5.376   7.262
    1   AR   Ar  128   2.386   5.910   6.269
    1   AR   Ar  129   2.238   0.055   1.359
    1   AR   Ar  130   4.702   1.130  -1.489
    1   AR   Ar  131   4.365   6.573   1.070
    1   AR   Ar  132   6.667   2.268  -1.316
    1   AR   Ar  133   3.596   0.177   3.089
    1   AR   Ar  134   3.980   1.694   2.851
    1   AR   Ar  135   4.621   0.229   3.167
    1   AR   Ar  136   4.215   0.738   2.163
    1   AR   Ar  137   2.944   6.870   3.755
    1   AR   Ar  138   4.697   1.319   4.945
    1   AR   Ar  139   5.523   1.080   4.350
    1   AR   Ar  140   4.319   1.073   3.984
    1   AR   Ar  141   4.446   7.016   4.102
    1   AR   Ar  142   4.763   6.818   5.609
    1   AR   Ar  143   5.806   6.788   5.785
    1   AR   Ar  144   5.335   0.722   6.842
    1   AR   Ar  145   3.121   3.121   0.414
    1   AR   Ar  146   4.273   2.914   1.680
    1   AR   Ar  147   5.515   2.175   0.026
    1   AR   Ar  148   5.586   3.504  -2.452
    1   AR   Ar  149   4.214   1.680   0.441
    1   AR   Ar  150   2.923   1.680   2.897
    1   AR   Ar  151   3.642   2.063   3.840
    1   AR   Ar  152   2.737   2.972   1.802
    1   AR   Ar  153   2.983   1.062   4.083
    1   AR   Ar  154   3.790   1.575   4.936
    1   AR   Ar  155   5.589   0.908   5.521
    1   AR   Ar  156   4.031   3.652   3.707
    1   AR   Ar  157   3.585   1.965   5.800
    1   AR   Ar  158   1.547   1.850   6.442
    1   AR   Ar  159   4.460   0.676   6.239
    1   AR   Ar  160   3.948   3.110   6.862
    1   AR   Ar  161   4.627   2.822   0.588
    1   AR   Ar  162   4.287   5.293   0.030
    1   AR   Ar  163   5.668   3.195  -0.128
    1   AR   Ar  164   4.414   5.306   1.694
    1   AR   Ar  165   2.961   3.629   2.739
    1   AR   Ar  166   2.880   5.066   2.867
    1   AR   Ar  167   4.978   2.203   2.461
    1   AR   Ar  168   3.784   4.277   0.005
    1   AR   Ar  169   2.761   2.606   3.572
    1   AR   Ar  170   3.272   4.152   4.721
    1   AR   Ar  171   4.126   3.513   4.851
    1   AR   Ar  172   4.359   4.834   4.465
    1   AR   Ar  173   2.426   2.810   6.339
    1   AR   Ar  174   4.360   4.906   5.779
    1   AR   Ar  175   4.524   3.704   6.046
    1   AR   Ar  176   3.337   5.093   4.975
    1   AR   Ar  177   5.342   5.769  -0.233
    1   AR   Ar  178   3.486   6.440   1.543
    1   AR   Ar  179   3.755   5.373   0.868
    1   AR   Ar  180   3.889   3.904  -1.422
    1   AR   Ar  181   3.552   5.525   2.078
    1   AR   Ar  182   2.475   6.571   2.198
    1   AR   Ar  183   3.693   4.454   2.365
    1   AR   Ar  184   4.340   6.382   2.316
    1   AR   Ar  185   1.383   5.411   3.992
    1   AR   Ar  186   3.330   5.348   3.908
    1   AR   Ar  187   4.809   5.382   3.395
    1   AR   Ar  188   3.676   6.160   3.001
    1   AR   Ar  189   2.661   5.095   5.671
    1   AR   Ar  190   4.187   5.967   5.978
    1   AR   Ar  191   5.223   5.981   5.239
    1   AR   Ar  192   4.188   5.930   4.874
    1   AR   Ar  193   6.143   6.611  -0.382
    1   AR   Ar  194   5.440   6.294  -1.257
    1   AR   Ar  195   5.738   1.068   0.395
    1   AR   Ar  196   5.829   0.860  -1.575
    1   AR   Ar  197   4.984   0.303   1.006
    1   AR   Ar  198   5.999   1.637   1.344
    1   AR   Ar  199   5.244   0.328   2.302
    1   AR   Ar  200   6.847   1.181   0.554
    1   AR   Ar  201   4.860   6.353   3.238
    1   AR   Ar  202   5.211   2.126   4.214
    1   AR   Ar  203   0.451   6.982   4.538
    1   AR   Ar  204   5.478   0.099   3.748
    1   AR   Ar  205   6.537   0.073   3.342
    1   AR   Ar  206   5.423   0.010   4.813
    1   AR   Ar  207   0.123   0.212   5.831
    1   AR   Ar  208   6.675   0.881   4.139
    1   AR   Ar  209   5.960   2.381  -2.217
    1   AR   Ar  210   4.904   1.688   1.366
    1   AR   Ar  211   6.359   2.558   0.497
    1   AR   Ar  212   6.107   4.126  -1.156
    1   AR   Ar  213   3.526   2.582   2.422
    1   AR   Ar  214   4.395   3.326   2.647
    1   AR   Ar  215   6.024   2.092   2.341
    1   AR   Ar  216   6.823   3.430   1.998
    1   AR   Ar  217   4.700   2.958   3.850
    1   AR   Ar  218   4.651   2.531   5.292
    1   AR   Ar  219   5.142   1.236   3.001
    1   AR   Ar  220   5.463   3.240   3.367
    1   AR   Ar  221   6.566   0.217   4.953
    1   AR   Ar  222   4.982   1.624   5.973
    1   AR   Ar  223   6.408   0.799   6.296
    1   AR   Ar  224   5.557   2.046   5.309
    1   AR   Ar  225   5.558   4.692   0.224
    1   AR   Ar  226   4.683   4.609   2.674
    1   AR   Ar  227   7.044   4.435   0.472
    1   AR   Ar  228   6.213   5.491   0.584
    1   AR   Ar  229   5.963   3.838   0.840
    1   AR   Ar  230   3.792   4.600   3.374
    1   AR   Ar  231   6.899   2.455   3.089
    1   AR   Ar  232   4.708   3.893   1.495
    1   AR   Ar  233   6.290   2.818   4.024
    1   AR   Ar  234   6.068   4.164   5.006
    1   AR   Ar  235   0.151   3.457   4.302
    1   AR   Ar  236   5.169   4.386   3.571
    1   AR   Ar  237   5.511   3.194   4.696
    1   AR   Ar  238   4.846   4.217   5.092
    1   AR   Ar  239   6.691   4.601   8.172
    1   AR   Ar  240   6.818   4.347   5.864
    1   AR   Ar  241   6.622   0.554  -0.384
    1   AR   Ar  242   5.264   6.094   0.926
    1   AR   Ar  243   5.444   3.904   2.189
    1   AR   Ar  244   6.700   5.541  -0.431
    1   AR   Ar  245   5.494   6.211   2.405
    1   AR   Ar  246   6.001   6.477   1.599
    1   AR   Ar  247   5.383   2.930   1.534
    1   AR   Ar  248   5.899   7.093   0.466
    1   AR   Ar  249   5.786   5.252   2.896
    1   AR   Ar  250   5.314   6.075   4.206
    1   AR   Ar  251   5.645   5.281   4.643
    1   AR   Ar  252   6.047   6.148   3.605
    1   AR   Ar  253   5.742   4.781   5.879
    1   AR   Ar  254   5.280   5.789   6.363
    1   AR   Ar  255   5.373   4.821   6.825
    1   AR   Ar  256   6.363   6.229   4.834
    7.12000  7.12000 12.00000
Argon-slab step 1515
  256
    1   AR   Ar    1   6.930   1.127  -1.417
    1   AR   Ar    2   6.641   0.427   1.510
    1   AR   Ar    3   0.404   6.797   0.803
    1   AR   Ar    4   0.516   0.748  -0.179
    1   AR   Ar    5   0.316   5.721   0.891
    1   AR   Ar    6   0.499   0.102   2.932
    1   AR   Ar    7   0.399   5.579   2.103
    1   AR   Ar    8   0.340   6.621   1.973
    1   AR   Ar    9   0.805   0.799   3.718
    1   AR   Ar   10   0.301   1.845   4.193
    1   AR   Ar   11   2.398   7.072   4.595
    1   AR   Ar   12   1.272   1.022   2.842
    1   AR   Ar   13   6.715   1.690   5.250
    1   AR   Ar   14   0.085   1.408   6.178
    1   AR   Ar   15   7.055   6.041   8.471
    1   AR   Ar   16   0.520   1.039   4.925
    1   AR   Ar   17   0.147   1.705  -0.427
    1   AR   Ar   18   6.821   3.719  -0.276
    1   AR   Ar   19   0.637   1.599   1.058
    1   AR   Ar   20   7.070   2.521  -2.149
    1   AR   Ar   21   6.272   1.119   2.230
    1   AR   Ar   22   0.211   2.446   2.051
    1   AR   Ar   23   0.372   0.918   2.011
    1   AR   Ar   24   0.195   2.692   0.911
    1   AR   Ar   25   7.097   1.242   2.956
    1   AR   Ar   26   6.066   1.721   3.729
    1   AR   Ar   27   2.035   1.246   3.525
    1   AR   Ar   28   0.992   2.789   4.421
    1   AR   Ar   29   6.012   1.914   6.243
    1   AR   Ar   30   0.085   2.467   5.997
    1   AR   Ar   31   0.414   0.479   7.583
    1   AR   Ar   32   1.444   2.741   6.058
    1   AR   Ar   33   1.351   4.262  -1.656
    1   AR   Ar   34   1.075   5.234   1.462
    1   AR   Ar   35   0.837   3.713   1.091
    1   AR   Ar   36   1.104   0.164  -1.624
    1   AR   Ar   37   0.871   3.232   2.034
    1   AR   Ar   38   7.002   4.624   2.183
    1   AR   Ar   39   0.956   4.179   2.346
    1   AR   Ar   40   1.691   4.176   1.620
    1   AR   Ar   41   0.937   2.429   3.451
    1   AR   Ar   42   6.688   5.321   5.356
    1   AR   Ar   43   6.534   2.961   5.284
    1   AR   Ar   44   0.574   3.417   3.119
    1   AR   Ar   45   0.973   3.639   5.325
    1   AR   Ar   46   6.982   5.379   6.594
    1   AR   Ar   47   6.844   3.340   6.753
    1   AR   Ar   48   6.821   6.597   6.386
    1   AR   Ar   49   6.415   5.008  -1.591
    1   AR   Ar   50   6.608   5.512   1.599
    1   AR   Ar   51   1.255   4.792   0.610
    1   AR   Ar   52   0.125   4.655  -0.601
    1   AR   Ar   53   6.719   6.249   2.629
    1   AR   Ar   54   0.304   6.237   3.496
    1   AR   Ar   55   6.780   5.197   3.065
    1   AR   Ar   56   1.290   6.448   1.105
    1   AR   Ar   57   6.456   3.575   3.200
    1   AR   Ar   58   6.952   5.292   4.195
    1   AR   Ar   59   2.028   5.819   5.235
    1   AR   Ar   60   1.412   6.467   3.968
    1   AR   Ar   61   6.190   5.845   5.986
    1   AR   Ar   62   0.585   6.046   5.058
    1   AR   Ar   63   1.369   5.568   6.043
    1   AR   Ar   64   1.375   6.721   5.318
    1   AR   Ar   65   3.021   0.144   0.310
    1   AR   Ar   66   1.898   1.139   1.133
    1   AR   Ar   67   3.446   6.161   0.114
    1   AR   Ar   68   3.094   0.688  -0.940
    1   AR   Ar   69   2.017   6.782   0.230
    1   AR   Ar   70   1.366   7.045   1.935
    1   AR   Ar   71   3.206   0.307   1.832
    1   AR   Ar   72   3.817   0.779   0.986
    1   AR   Ar   73   1.959   6.827   3.168
    1   AR   Ar   74   1.515   0.953   4.434
    1   AR   Ar   75   3.378   0.489   4.928
    1   AR   Ar   76   2.404   0.527   2.418
    1   AR   Ar   77   2.375   6.943   5.638
    1   AR   Ar   78   1.136   0.600   5.738
    1   AR   Ar   79   3.997   6.306   6.866
    1   AR   Ar   80   3.204   6.109   5.570
    1   AR   Ar   81   1.432   1.163   0.082
    1   AR   Ar   82   0.761   3.373  -0.206
    1   AR   Ar   83   2.360   2.190   1.082
    1   AR   Ar   84   2.057   3.985  -3.640
    1   AR   Ar   85   1.335   2.392  -0.135
    1   AR   Ar   86   1.797   2.579   1.895
    1   AR   Ar   87   2.294   1.636   1.947
    1   AR   Ar   88   3.117   3.915   1.441
    1   AR   Ar   89   0.962   1.744   2.190
    1   AR   Ar   90   2.798   2.439   4.822
    1   AR   Ar   91   1.796   2.270   4.115
    1   AR   Ar   92   1.804   2.104   2.794
    1   AR   Ar   93   1.710   1.912   5.174
    1   AR   Ar   94   3.160   0.328   7.422
    1   AR   Ar   95   3.758   6.948   5.866
    1   AR   Ar   96   2.639   0.517   6.345
    1   AR   Ar   97   4.014   2.228  -0.337
    1   AR   Ar   98   2.547   5.058   1.412
    1   AR   Ar   99   4.582   2.483  -1.271
    1   AR   Ar  100   1.313   4.324  -0.271
    1   AR   Ar  101   1.277   2.641   0.847
    1   AR   Ar  102   2.707   4.002   3.589
    1   AR   Ar  103   1.887   3.601   0.124
    1   AR   Ar  104   2.939   3.298  -1.383
    1   AR   Ar  105   1.460   3.340   3.675
    1   AR   Ar  106   2.021   3.197   4.630
    1   AR   Ar  107   2.354   4.000   5.371
    1   AR   Ar  108   3.627   2.919   4.293
    1   AR   Ar  109   1.667   4.278   4.655
    1   AR   Ar  110   1.463   4.693   5.521
    1   AR   Ar  111   4.080   5.111   7.092
    1   AR   Ar  112   1.455   5.192   7.033
    1   AR   Ar  113   2.492   4.215   0.639
    1   AR   Ar  114   2.612   6.329   0.878
    1   AR   Ar  115   3.005   5.191  -0.252
    1   AR   Ar  116   4.397   6.676   0.044
    1   AR   Ar  117   1.130   4.960   3.032
    1   AR   Ar  118   1.347   6.090   2.219
    1   AR   Ar  119   1.879   3.970   2.888
    1   AR   Ar  120   1.948   4.842   2.252
    1   AR   Ar  121   6.185   4.478   3.824
    1   AR   Ar  122   2.874   6.106   4.493
    1   AR   Ar  123   2.449   4.936   4.395
    1   AR   Ar  124   2.288   5.858   3.634
    1   AR   Ar  125   0.499   4.824   4.812
    1   AR   Ar  126   0.760   6.395   6.235
    1   AR   Ar  127   2.930   5.397   7.233
    1   AR   Ar  128   2.418   5.944   6.268
    1   AR   Ar  129   2.234   0.086   1.350
    1   AR   Ar  130   4.672   1.119  -1.497
    1   AR   Ar  131   4.378   6.607   1.054
    1   AR   Ar  132   6.671   2.232  -1.318
    1   AR   Ar  133   3.620   0.148   3.102
    1   AR   Ar  134   3.971   1.690   2.861
    1   AR   Ar  135   4.600   0.228   3.199
    1   AR   Ar  136   4.216   0.760   2.185
    1   AR   Ar  137   2.974   6.842   3.742
    1   AR   Ar  138   4.681   1.322   4.943
    1   AR   Ar  139   5.536   1.084   4.365
    1   AR   Ar  140   4.328   1.091   4.003
    1   AR   Ar  141   4.394   6.984   4.113
    1   AR   Ar  142   4.747   6.859   5.605
    1   AR   Ar  143   5.800   6.799   5.765
    1   AR   Ar  144   5.341   0.717   6.831
    1   AR   Ar  145   3.087   3.126   0.405
    1   AR   Ar  146   4.282   2.902   1.692
    1   AR   Ar  147   5.527   2.181   0.011
    1   AR   Ar  148   5.583   3.490  -2.465
    1   AR   Ar  149   4.193   1.684   0.440
    1   AR   Ar  150   2.938   1.669   2.883
    1   AR   Ar  151   3.677   2.060   3.836
    1   AR   Ar  152   2.739   2.992   1.808
    1   AR   Ar  153   2.994   1.081   4.087
    1   AR   Ar  154   3.788   1.570   4.913
    1   AR   Ar  155   5.603   0.876   5.536
    1   AR   Ar  156   3.984   3.675   3.701
    1   AR   Ar  157   3.590   1.985   5.778
    1   AR   Ar  158   1.557   1.837   6.448
    1   AR   Ar  159   4.463   0.661   6.248
    1   AR   Ar  160   3.962   3.124   6.900
    1   AR   Ar  161   4.656   2.800   0.579
    1   AR   Ar  162   4.300   5.284   0.027
    1   AR   Ar  163   5.651   3.189  -0.113
    1   AR   Ar  164   4.407   5.329   1.682
    1   AR   Ar  165   2.955   3.624   2.705
    1   AR   Ar  166   2.886   5.086   2.892
    1   AR   Ar  167   4.974   2.198   2.469
    1   AR   Ar  168   3.776   4.236  -0.011
    1   AR   Ar  169   2.750   2.590   3.573
    1   AR   Ar  170   3.294   4.117   4.729
    1   AR   Ar  171   4.133   3.534   4.869
    1   AR   Ar  172   4.356   4.858   4.457
    1   AR   Ar  173   2.418   2.816   6.345
    1   AR   Ar  174   4.362   4.873   5.798
    1   AR   Ar  175   4.524   3.693   6.048
    1   AR   Ar  176   3.370   5.122   4.949
    1   AR   Ar  177   5.351   5.748  -0.241
    1   AR   Ar  178   3.445   6.413   1.570
    1   AR   Ar  179   3.753   5.353   0.833
    1   AR   Ar  180   3.890   3.888  -1.433
    1   AR   Ar  181   3.535   5.522   2.077
    1   AR   Ar  182   2.483   6.542   2.179
    1   AR   Ar  183   3.659   4.499   2.348
    1   AR   Ar  184   4.338   6.401   2.268
    1   AR   Ar  185   1.384   5.411   4.007
    1   AR   Ar  186   3.324   5.357   3.916
    1   AR   Ar  187   4.794   5.364   3.346
    1   AR   Ar  188   3.653   6.131   3.004
    1   AR   Ar  189   2.667   5.089   5.646
    1   AR   Ar  190   4.196   5.936   5.975
    1   AR   Ar  191   5.232   6.001   5.231
    1   AR   Ar  192   4.168   5.939   4.859
    1   AR   Ar  193   6.150   6.614  -0.395
    1   AR   Ar  194   5.425   6.301  -1.280
    1   AR   Ar  195   5.728   1.081   0.406
    1   AR   Ar  196   5.821   0.873  -1.614
    1   AR   Ar  197   5.025   0.312   0.992
    1   AR   Ar  198   5.994   1.651   1.328
    1   AR   Ar  199   5.263   0.311   2.302
    1   AR   Ar  200   6.854   1.172   0.571
    1   AR   Ar  201   4.875   6.360   3.263
    1   AR   Ar  202   5.213   2.130   4.231
    1   AR   Ar  203   0.442   6.955   4.506
    1   AR   Ar  204   5.510   0.097   3.756
    1   AR   Ar  205   6.521   0.060   3.360
    1   AR   Ar  206   5.432   7.104   4.828
    1   AR   Ar  207   0.119   0.227   5.833
    1   AR   Ar  208   6.648   0.875   4.153
    1   AR   Ar  209   5.895   2.368  -2.221
    1   AR   Ar  210   4.885   1.675   1.349
    1   AR   Ar  211   6.349   2.560   0.516
    1   AR   Ar  212   6.103   4.106  -1.167
    1   AR   Ar  213   3.492   2.594   2.451
    1   AR   Ar  214   4.384   3.329   2.664
    1   AR   Ar  215   6.012   2.087   2.345
    1   AR   Ar  216   6.814   3.418   2.011
    1   AR   Ar  217   4.698   2.946   3.861
    1   AR   Ar  218   4.636   2.512   5.269
    1   AR   Ar  219   5.158   1.243   2.994
    1   AR   Ar  220   5.455   3.235   3.340
    1   AR   Ar  221   6.587   0.203   4.958
    1   AR   Ar  222   4.974   1.605   5.992
    1   AR   Ar  223   6.422   0.794   6.275
    1   AR   Ar  224   5.575   2.039   5.279
    1   AR   Ar  225   5.536   4.693   0.242
    1   AR   Ar  226   4.691   4.596   2.696
    1   AR   Ar  227   7.043   4.448   0.456
    1   AR   Ar  228   6.215   5.480   0.605
    1   AR   Ar  229   5.956   3.836   0.861
    1   AR   Ar  230   3.786   4.607   3.397
    1   AR   Ar  231   6.934   2.456   3.101
    1   AR   Ar  232   4.714   3.893   1.528
    1   AR   Ar  233   6.274   2.824   4.040
    1   AR   Ar  234   6.021   4.164   5.009
    1   AR   Ar  235   0.177   3.475   4.326
    1   AR   Ar  236   5.202   4.418   3.590
    1   AR   Ar  237   5.513   3.184   4.730
    1   AR   Ar  238   4.834   4.177   5.108
    1   AR   Ar  239   6.676   4.598   8.178
    1   AR   Ar  240   6.845   4.351   5.813
    1   AR   Ar  241   6.613   0.564  -0.378
    1   AR   Ar  242   5.234   6.081   0.904
    1   AR   Ar  243   5.465   3.862   2.188
    1   AR   Ar  244   6.693   5.537  -0.462
    1   AR   Ar  245   5.493   6.216   2.412
    1   AR   Ar  246   5.997   6.463   1.569
    1   AR   Ar  247   5.408   2.946   1.536
    1   AR   Ar  248   5.873   7.089   0.487
    1   AR   Ar  249   5.775   5.285   2.872
    1   AR   Ar  250   5.351   6.107   4.219
    1   AR   Ar  251   5.663   5.244   4.658
    1   AR   Ar  252   6.076   6.119   3.579
    1   AR   Ar  253   5.741   4.782   5.898
    1   AR   Ar  254   5.282   5.751   6.374
    1   AR   Ar  255   5.378   4.836   6.840
    1   AR   Ar  256   6.378   6.256   4.862
    7.12000  7.12000 12.00000
Argon-slab step 1520
  256
    1   AR   Ar    1   6.911   1.130  -1.420
    1   AR   Ar    2   6.606   0.388   1.512
    1   AR   Ar    3   0.428   6.797   0.824
    1   AR   Ar    4   0.528   0.752  -0.167
    1   AR   Ar    5   0.277   5.732   0.875
    1   AR   Ar    6   0.514   0.071   2.945
    1   AR   Ar    7   0.370   5.602   2.100
    1   AR   Ar    8   0.348   6.615   1.995
    1   AR   Ar    9   0.784   0.819   3.695
    1   AR   Ar   10   0.300   1.855   4.199
    1   AR   Ar   11   2.416   7.096   4.595
    1   AR   Ar   12   1.261   1.039   2.860
    1   AR   Ar   13   6.724   1.675   5.296
    1   AR   Ar   14   0.113   1.450   6.196
    1   AR   Ar   15   7.097   6.060   8.472
    1   AR   Ar   16   0.523   1.018   4.922
    1   AR   Ar   17   0.133   1.692  -0.437
    1   AR   Ar   18   6.816   3.686  -0.311
    1   AR   Ar   19   0.612   1.553   1.036
    1   AR   Ar   20   7.043   2.500  -2.157
    1   AR   Ar   21   6.263   1.145   2.238
    1   AR   Ar   22   0.184   2.412   2.045
    1   AR   Ar   23   0.381   0.897   1.998
    1   AR   Ar   24   0.178   2.674   0.913
    1   AR   Ar   25   7.105   1.246   2.967
    1   AR   Ar   26   6.064   1.735   3.746
    1   AR   Ar   27   2.041   1.249   3.500
    1   AR   Ar   28   0.983   2.778   4.417
    1   AR   Ar   29   6.029   1.915   6.272
    1   AR   Ar   30   0.095   2.475   5.987
    1   AR   Ar   31   0.411   0.456   7.555
    1   AR   Ar   32   1.423   2.712   6.074
    1   AR   Ar   33   1.350   4.259  -1.663
    1   AR   Ar   34   1.076   5.271   1.466
    1   AR   Ar   35   0.851   3.715   1.114
    1   AR   Ar   36   1.074   0.173  -1.646
    1   AR   Ar   37   0.877   3.250   2.008
    1   AR   Ar   38   6.992   4.615   2.178
    1   AR   Ar   39   0.922   4.176   2.355
    1   AR   Ar   40   1.672   4.145   1.590
    1   AR   Ar   41   0.963   2.447   3.435
    1   AR   Ar   42   6.666   5.319   5.358
    1   AR   Ar   43   6.542   2.957   5.276
    1   AR   Ar   44   0.568   3.434   3.128
    1   AR   Ar   45   0.969   3.650   5.328
    1   AR   Ar   46   6.991   5.384   6.612
    1   AR   Ar   47   6.830   3.326   6.699
    1   AR   Ar   48   6.805   6.578   6.396
    1   AR   Ar   49   6.429   4.988  -1.602
    1   AR   Ar   50   6.612   5.500   1.594
    1   AR   Ar   51   1.278   4.810   0.611
    1   AR   Ar   52   0.107   4.652  -0.633
    1   AR   Ar   53   6.677   6.252   2.683
    1   AR   Ar   54   0.292   6.227   3.458
    1   AR   Ar   55   6.807   5.213   3.059
    1   AR   Ar   56   1.281   6.453   1.070
    1   AR   Ar   57   6.446   3.585   3.233
    1   AR   Ar   58   6.913   5.286   4.205
    1   AR   Ar   59   2.013   5.834   5.196
    1   AR   Ar   60   1.402   6.484   3.965
    1   AR   Ar   61   6.192   5.867   5.992
    1   AR   Ar   62   0.571   6.004   5.052
    1   AR   Ar   63   1.348   5.552   6.082
    1   AR   Ar   64   1.352   6.742   5.381
    1   AR   Ar   65   3.023   0.138   0.271
    1   AR   Ar   66   1.895   1.142   1.116
    1   AR   Ar   67   3.480   6.197   0.143
    1   AR   Ar   68   3.077   0.724  -0.978
    1   AR   Ar   69   1.995   6.814   0.244
    1   AR   Ar   70   1.375   7.048   1.935
    1   AR   Ar   71   3.232   0.292   1.824
    1   AR   Ar   72   3.832   0.782   0.971
    1   AR   Ar   73   1.935   6.847   3.193
    1   AR   Ar   74   1.485   0.976   4.412
    1   AR   Ar   75   3.372   0.514   4.942
    1   AR   Ar   76   2.350   0.535   2.378
    1   AR   Ar   77   2.357   6.923   5.578
    1   AR   Ar   78   1.115   0.590   5.772
    1   AR   Ar   79   3.990   6.299   6.865
    1   AR   Ar   80   3.189   6.097   5.567
    1   AR   Ar   81   1.442   1.150   0.085
    1   AR   Ar   82   0.731   3.386  -0.201
    1   AR   Ar   83   2.385   2.188   1.060
    1   AR   Ar   84   2.061   3.983  -3.621
    1   AR   Ar   85   1.325   2.415  -0.157
    1   AR   Ar   86   1.812   2.575   1.878
    1   AR   Ar   87   2.319   1.692   1.912
    1   AR   Ar   88   3.156   3.912   1.461
    1   AR   Ar   89   0.964   1.748   2.212
    1   AR   Ar   90   2.790   2.420   4.781
    1   AR   Ar   91   1.790   2.285   4.105
    1   AR   Ar   92   1.805   2.102   2.825
    1   AR   Ar   93   1.712   1.925   5.182
    1   AR   Ar   94   3.149   0.330   7.435
    1   AR   Ar   95   3.733   6.973   5.852
    1   AR   Ar   96   2.663   0.527   6.339
    1   AR   Ar   97   4.014   2.257  -0.369
    1   AR   Ar   98   2.567   5.027   1.431
    1   AR   Ar   99   4.596   2.463  -1.241
    1   AR   Ar  100   1.311   4.348  -0.273
    1   AR   Ar  101   1.293   2.630   0.822
    1   AR   Ar  102   2.710   3.984   3.570
    1   AR   Ar  103   1.900   3.565   0.097
    1   AR   Ar  104   2.929   3.288  -1.378
    1   AR   Ar  105   1.475   3.370   3.663
    1   AR   Ar  106   2.011   3.208   4.641
    1   AR   Ar  107   2.378   3.984   5.377
    1   AR   Ar  108   3.608   2.910   4.308
    1   AR   Ar  109   1.614   4.258   4.679
    1   AR   Ar  110   1.455   4.723   5.517
    1   AR   Ar  111   4.103   5.101   7.098
    1   AR   Ar  112   1.420   5.194   7.016
    1   AR   Ar  113   2.474   4.236   0.625
    1   AR   Ar  114   2.625   6.365   0.853
    1   AR   Ar  115   3.005   5.178  -0.236
    1   AR   Ar  116   4.412   6.650   0.034
    1   AR   Ar  117   1.105   4.955   3.042
    1   AR   Ar  118   1.347   6.131   2.243
    1   AR   Ar  119   1.877   3.968   2.888
    1   AR   Ar  120   1.920   4.836   2.250
    1   AR   Ar  121   6.173   4.454   3.821
    1   AR   Ar  122   2.835   6.102   4.487
    1   AR   Ar  123   2.450   4.911   4.421
    1   AR   Ar  124   2.273   5.854   3.652
    1   AR   Ar  125   0.511   4.788   4.808
    1   AR   Ar  126   0.744   6.386   6.211
    1   AR   Ar  127   2.944   5.418   7.203
    1   AR   Ar  128   2.448   5.980   6.270
    1   AR   Ar  129   2.230   0.120   1.339
    1   AR   Ar  130   4.643   1.110  -1.505
    1   AR   Ar  131   4.384   6.640   1.046
    1   AR   Ar  132   6.667   2.191  -1.305
    1   AR   Ar  133   3.639   0.122   3.108
    1   AR   Ar  134   3.969   1.685   2.871
    1   AR   Ar  135   4.589   0.238   3.223
    1   AR   Ar  136   4.209   0.791   2.210
    1   AR   Ar  137   3.001   6.811   3.730
    1   AR   Ar  138   4.697   1.318   4.948
    1   AR   Ar  139   5.550   1.082   4.382
    1   AR   Ar  140   4.321   1.097   4.005
    1   AR   Ar  141   4.341   6.948   4.132
    1   AR   Ar  142   4.732   6.901   5.601
    1   AR   Ar  143   5.798   6.813   5.748
    1   AR   Ar  144   5.350   0.714   6.818
    1   AR   Ar  145   3.053   3.133   0.396
    1   AR   Ar  146   4.272   2.876   1.688
    1   AR   Ar  147   5.534   2.178  -0.004
    1   AR   Ar  148   5.593   3.470  -2.473
    1   AR   Ar  149   4.177   1.679   0.454
    1   AR   Ar  150   2.946   1.659   2.871
    1   AR   Ar  151   3.713   2.043   3.826
    1   AR   Ar  152   2.744   3.012   1.812
    1   AR   Ar  153   2.986   1.083   4.067
    1   AR   Ar  154   3.775   1.584   4.875
    1   AR   Ar  155   5.621   0.851   5.555
    1   AR   Ar  156   3.936   3.698   3.694
    1   AR   Ar  157   3.594   2.012   5.768
    1   AR   Ar  158   1.567   1.815   6.458
    1   AR   Ar  159   4.463   0.644   6.253
    1   AR   Ar  160   3.976   3.139   6.938
    1   AR   Ar  161   4.686   2.775   0.570
    1   AR   Ar  162   4.321   5.275   0.012
    1   AR   Ar  163   5.626   3.181  -0.089
    1   AR   Ar  164   4.414   5.350   1.667
    1   AR   Ar  165   2.953   3.616   2.662
    1   AR   Ar  166   2.891   5.106   2.919
    1   AR   Ar  167   4.965   2.195   2.476
    1   AR   Ar  168   3.768   4.196  -0.027
    1   AR   Ar  169   2.739   2.575   3.574
    1   AR   Ar  170   3.311   4.081   4.732
    1   AR   Ar  171   4.143   3.551   4.892
    1   AR   Ar  172   4.351   4.884   4.446
    1   AR   Ar  173   2.417   2.821   6.351
    1   AR   Ar  174   4.364   4.840   5.816
    1   AR   Ar  175   4.524   3.681   6.050
    1   AR   Ar  176   3.412   5.157   4.921
    1   AR   Ar  177   5.363   5.732  -0.246
    1   AR   Ar  178   3.403   6.388   1.596
    1   AR   Ar  179   3.741   5.335   0.810
    1   AR   Ar  180   3.893   3.873  -1.445
    1   AR   Ar  181   3.505   5.520   2.084
    1   AR   Ar  182   2.486   6.509   2.163
    1   AR   Ar  183   3.625   4.540   2.328
    1   AR   Ar  184   4.340   6.422   2.216
    1   AR   Ar  185   1.385   5.406   4.024
    1   AR   Ar  186   3.318   5.370   3.921
    1   AR   Ar  187   4.779   5.342   3.338
    1   AR   Ar  188   3.627   6.100   3.012
    1   AR   Ar  189   2.667   5.079   5.628
    1   AR   Ar  190   4.211   5.900   5.961
    1   AR   Ar  191   5.240   6.020   5.231
    1   AR   Ar  192   4.149   5.948   4.844
    1   AR   Ar  193   6.164   6.607  -0.401
    1   AR   Ar  194   5.417   6.304  -1.299
    1   AR   Ar  195   5.717   1.094   0.417
    1   AR   Ar  196   5.812   0.886  -1.653
    1   AR   Ar  197   5.063   0.326   0.980
    1   AR   Ar  198   5.991   1.666   1.310
    1   AR   Ar  199   5.282   0.293   2.302
    1   AR   Ar  200   6.859   1.163   0.588
    1   AR   Ar  201   4.892   6.371   3.288
    1   AR   Ar  202   5.230   2.139   4.248
    1   AR   Ar  203   0.433   6.931   4.472
    1   AR   Ar  204   5.542   0.093   3.764
    1   AR   Ar  205   6.508   0.046   3.377
    1   AR   Ar  206   5.442   7.079   4.838
    1   AR   Ar  207   0.119   0.246   5.831
    1   AR   Ar  208   6.622   0.872   4.165
    1   AR   Ar  209   5.831   2.356  -2.224
    1   AR   Ar  210   4.865   1.662   1.333
    1   AR   Ar  211   6.340   2.563   0.537
    1   AR   Ar  212   6.098   4.081  -1.176
    1   AR   Ar  213   3.459   2.606   2.482
    1   AR   Ar  214   4.373   3.334   2.685
    1   AR   Ar  215   6.001   2.091   2.351
    1   AR   Ar  216   6.805   3.408   2.024
    1   AR   Ar  217   4.682   2.929   3.883
    1   AR   Ar  218   4.617   2.493   5.244
    1   AR   Ar  219   5.173   1.250   2.988
    1   AR   Ar  220   5.458   3.235   3.304
    1   AR   Ar  221   6.606   0.188   4.967
    1   AR   Ar  222   4.961   1.586   6.015
    1   AR   Ar  223   6.427   0.783   6.255
    1   AR   Ar  224   5.600   2.033   5.243
    1   AR   Ar  225   5.513   4.695   0.260
    1   AR   Ar  226   4.698   4.578   2.709
    1   AR   Ar  227   7.043   4.464   0.443
    1   AR   Ar  228   6.218   5.472   0.624
    1   AR   Ar  229   5.950   3.834   0.883
    1   AR   Ar  230   3.785   4.613   3.414
    1   AR   Ar  231   6.970   2.457   3.114
    1   AR   Ar  232   4.691   3.872   1.531
    1   AR   Ar  233   6.260   2.830   4.056
    1   AR   Ar  234   5.975   4.164   5.012
    1   AR   Ar  235   0.201   3.494   4.348
    1   AR   Ar  236   5.229   4.446   3.610
    1   AR   Ar  237   5.513   3.173   4.765
    1   AR   Ar  238   4.837   4.144   5.128
    1   AR   Ar  239   6.685   4.632   8.176
    1   AR   Ar  240   6.872   4.354   5.763
    1   AR   Ar  241   6.607   0.573  -0.386
    1   AR   Ar  242   5.208   6.064   0.879
    1   AR   Ar  243   5.492   3.819   2.194
    1   AR   Ar  244   6.683   5.535  -0.491
    1   AR   Ar  245   5.489   6.221   2.424
    1   AR   Ar  246   5.999   6.452   1.533
    1   AR   Ar  247   5.433   2.961   1.539
    1   AR   Ar  248   5.850   7.084   0.511
    1   AR   Ar  249   5.760   5.315   2.847
    1   AR   Ar  250   5.372   6.147   4.234
    1   AR   Ar  251   5.685   5.197   4.673
    1   AR   Ar  252   6.118   6.090   3.543
    1   AR   Ar  253   5.743   4.784   5.907
    1   AR   Ar  254   5.272   5.717   6.385
    1   AR   Ar  255   5.380   4.846   6.864
    1   AR   Ar  256   6.391   6.281   4.890
    7.12000  7.12000 12.00000
Argon-slab step 1525
  256
    1   AR   Ar    1   6.893   1.132  -1.421
    1   AR   Ar    2   6.571   0.349   1.513
    1   AR   Ar    3   0.433   6.806   0.840
    1   AR   Ar    4   0.537   0.752  -0.155
    1   AR   Ar    5   0.238   5.741   0.859
    1   AR   Ar    6   0.524   0.038   2.955
    1   AR   Ar    7   0.340   5.623   2.107
    1   AR   Ar    8   0.355   6.616   2.015
    1   AR   Ar    9   0.752   0.836   3.678
    1   AR   Ar   10   0.298   1.865   4.205
    1   AR   Ar   11   2.463   7.082   4.627
    1   AR   Ar   12   1.254   1.050   2.870
    1   AR   Ar   13   6.731   1.659   5.339
    1   AR   Ar   14   0.146   1.489   6.215
    1   AR   Ar   15   0.020   6.078   8.473
    1   AR   Ar   16   0.508   0.997   4.923
    1   AR   Ar   17   0.117   1.681  -0.447
    1   AR   Ar   18   6.808   3.652  -0.346
    1   AR   Ar   19   0.607   1.543   1.053
    1   AR   Ar   20   7.020   2.483  -2.176
    1   AR   Ar   21   6.256   1.160   2.247
    1   AR   Ar   22   0.171   2.396   2.051
    1   AR   Ar   23   0.378   0.885   1.987
    1   AR   Ar   24   0.165   2.657   0.917
    1   AR   Ar   25   7.110   1.251   2.976
    1   AR   Ar   26   6.067   1.750   3.758
    1   AR   Ar   27   2.050   1.253   3.477
    1   AR   Ar   28   0.966   2.769   4.421
    1   AR   Ar   29   6.047   1.913   6.300
    1   AR   Ar   30   0.111   2.487   5.983
    1   AR   Ar   31   0.408   0.433   7.526
    1   AR   Ar   32   1.394   2.693   6.081
    1   AR   Ar   33   1.349   4.255  -1.668
    1   AR   Ar   34   1.082   5.309   1.476
    1   AR   Ar   35   0.862   3.719   1.127
    1   AR   Ar   36   1.063   0.175  -1.644
    1   AR   Ar   37   0.884   3.255   1.985
    1   AR   Ar   38   6.982   4.603   2.172
    1   AR   Ar   39   0.886   4.182   2.366
    1   AR   Ar   40   1.656   4.108   1.552
    1   AR   Ar   41   0.986   2.461   3.413
    1   AR   Ar   42   6.653   5.308   5.347
    1   AR   Ar   43   6.548   2.953   5.266
    1   AR   Ar   44   0.558   3.451   3.136
    1   AR   Ar   45   0.965   3.660   5.329
    1   AR   Ar   46   7.001   5.389   6.628
    1   AR   Ar   47   6.816   3.312   6.642
    1   AR   Ar   48   6.790   6.560   6.409
    1   AR   Ar   49   6.429   4.992  -1.621
    1   AR   Ar   50   6.610   5.488   1.592
    1   AR   Ar   51   1.303   4.825   0.613
    1   AR   Ar   52   0.091   4.645  -0.667
    1   AR   Ar   53   6.634   6.256   2.729
    1   AR   Ar   54   0.282   6.215   3.422
    1   AR   Ar   55   6.835   5.229   3.054
    1   AR   Ar   56   1.291   6.447   1.040
    1   AR   Ar   57   6.452   3.573   3.245
    1   AR   Ar   58   6.871   5.283   4.214
    1   AR   Ar   59   2.033   5.830   5.209
    1   AR   Ar   60   1.388   6.500   3.970
    1   AR   Ar   61   6.188   5.893   6.002
    1   AR   Ar   62   0.557   5.960   5.047
    1   AR   Ar   63   1.329   5.543   6.114
    1   AR   Ar   64   1.326   6.762   5.439
    1   AR   Ar   65   3.022   0.136   0.232
    1   AR   Ar   66   1.894   1.154   1.093
    1   AR   Ar   67   3.511   6.231   0.173
    1   AR   Ar   68   3.061   0.759  -1.016
    1   AR   Ar   69   1.965   6.852   0.252
    1   AR   Ar   70   1.383   7.069   1.935
    1   AR   Ar   71   3.234   0.259   1.831
    1   AR   Ar   72   3.847   0.783   0.957
    1   AR   Ar   73   1.916   6.870   3.210
    1   AR   Ar   74   1.461   1.001   4.396
    1   AR   Ar   75   3.381   0.509   4.949
    1   AR   Ar   76   2.292   0.545   2.341
    1   AR   Ar   77   2.363   6.928   5.569
    1   AR   Ar   78   1.096   0.583   5.807
    1   AR   Ar   79   3.970   6.285   6.885
    1   AR   Ar   80   3.175   6.084   5.558
    1   AR   Ar   81   1.456   1.141   0.090
    1   AR   Ar   82   0.704   3.400  -0.193
    1   AR   Ar   83   2.411   2.192   1.027
    1   AR   Ar   84   2.065   3.981  -3.601
    1   AR   Ar   85   1.315   2.436  -0.186
    1   AR   Ar   86   1.817   2.577   1.859
    1   AR   Ar   87   2.347   1.738   1.891
    1   AR   Ar   88   3.196   3.912   1.481
    1   AR   Ar   89   0.969   1.759   2.229
    1   AR   Ar   90   2.781   2.397   4.740
    1   AR   Ar   91   1.820   2.282   4.123
    1   AR   Ar   92   1.807   2.098   2.860
    1   AR   Ar   93   1.713   1.939   5.190
    1   AR   Ar   94   3.139   0.331   7.446
    1   AR   Ar   95   3.703   6.999   5.839
    1   AR   Ar   96   2.689   0.537   6.335
    1   AR   Ar   97   4.012   2.282  -0.407
    1   AR   Ar   98   2.590   4.997   1.448
    1   AR   Ar   99   4.613   2.444  -1.212
    1   AR   Ar  100   1.305   4.370  -0.284
    1   AR   Ar  101   1.309   2.621   0.806
    1   AR   Ar  102   2.714   3.969   3.560
    1   AR   Ar  103   1.910   3.522   0.071
    1   AR   Ar  104   2.920   3.279  -1.372
    1   AR   Ar  105   1.494   3.401   3.655
    1   AR   Ar  106   2.001   3.220   4.653
    1   AR   Ar  107   2.403   3.969   5.384
    1   AR   Ar  108   3.585   2.904   4.324
    1   AR   Ar  109   1.604   4.288   4.667
    1   AR   Ar  110   1.445   4.754   5.521
    1   AR   Ar  111   4.083   5.083   7.117
    1   AR   Ar  112   1.385   5.193   7.006
    1   AR   Ar  113   2.458   4.260   0.615
    1   AR   Ar  114   2.644   6.394   0.836
    1   AR   Ar  115   3.016   5.194  -0.227
    1   AR   Ar  116   4.432   6.624   0.017
    1   AR   Ar  117   1.081   4.951   3.054
    1   AR   Ar  118   1.341   6.130   2.237
    1   AR   Ar  119   1.874   3.967   2.886
    1   AR   Ar  120   1.893   4.839   2.257
    1   AR   Ar  121   6.178   4.432   3.822
    1   AR   Ar  122   2.797   6.097   4.490
    1   AR   Ar  123   2.452   4.888   4.447
    1   AR   Ar  124   2.259   5.851   3.665
    1   AR   Ar  125   0.525   4.750   4.806
    1   AR   Ar  126   0.737   6.370   6.171
    1   AR   Ar  127   2.958   5.438   7.173
    1   AR   Ar  128   2.474   6.014   6.274
    1   AR   Ar  129   2.228   0.153   1.326
    1   AR   Ar  130   4.615   1.101  -1.513
    1   AR   Ar  131   4.382   6.675   1.048
    1   AR   Ar  132   6.657   2.146  -1.281
    1   AR   Ar  133   3.648   0.098   3.103
    1   AR   Ar  134   3.976   1.677   2.878
    1   AR   Ar  135   4.581   0.254   3.214
    1   AR   Ar  136   4.202   0.821   2.236
    1   AR   Ar  137   3.021   6.777   3.721
    1   AR   Ar  138   4.731   1.312   4.961
    1   AR   Ar  139   5.564   1.076   4.400
    1   AR   Ar  140   4.308   1.099   3.998
    1   AR   Ar  141   4.288   6.911   4.156
    1   AR   Ar  142   4.717   6.942   5.598
    1   AR   Ar  143   5.801   6.829   5.737
    1   AR   Ar  144   5.362   0.710   6.803
    1   AR   Ar  145   3.018   3.141   0.389
    1   AR   Ar  146   4.262   2.848   1.684
    1   AR   Ar  147   5.536   2.166  -0.019
    1   AR   Ar  148   5.603   3.449  -2.481
    1   AR   Ar  149   4.163   1.672   0.473
    1   AR   Ar  150   2.947   1.648   2.860
    1   AR   Ar  151   3.749   2.018   3.815
    1   AR   Ar  152   2.748   3.030   1.813
    1   AR   Ar  153   2.975   1.081   4.040
    1   AR   Ar  154   3.769   1.598   4.870
    1   AR   Ar  155   5.644   0.836   5.583
    1   AR   Ar  156   3.890   3.709   3.690
    1   AR   Ar  157   3.596   2.043   5.763
    1   AR   Ar  158   1.580   1.781   6.470
    1   AR   Ar  159   4.465   0.635   6.256
    1   AR   Ar  160   3.991   3.154   6.974
    1   AR   Ar  161   4.717   2.750   0.562
    1   AR   Ar  162   4.349   5.266  -0.011
    1   AR   Ar  163   5.595   3.174  -0.057
    1   AR   Ar  164   4.429   5.370   1.651
    1   AR   Ar  165   2.955   3.607   2.613
    1   AR   Ar  166   2.895   5.125   2.947
    1   AR   Ar  167   4.951   2.195   2.482
    1   AR   Ar  168   3.758   4.157  -0.042
    1   AR   Ar  169   2.737   2.565   3.572
    1   AR   Ar  170   3.320   4.049   4.732
    1   AR   Ar  171   4.147   3.552   4.913
    1   AR   Ar  172   4.346   4.910   4.434
    1   AR   Ar  173   2.420   2.826   6.358
    1   AR   Ar  174   4.367   4.806   5.835
    1   AR   Ar  175   4.523   3.670   6.052
    1   AR   Ar  176   3.458   5.192   4.896
    1   AR   Ar  177   5.377   5.744  -0.235
    1   AR   Ar  178   3.363   6.368   1.616
    1   AR   Ar  179   3.720   5.318   0.797
    1   AR   Ar  180   3.895   3.857  -1.455
    1   AR   Ar  181   3.468   5.517   2.095
    1   AR   Ar  182   2.459   6.506   2.160
    1   AR   Ar  183   3.591   4.572   2.309
    1   AR   Ar  184   4.343   6.443   2.164
    1   AR   Ar  185   1.383   5.399   4.044
    1   AR   Ar  186   3.312   5.387   3.922
    1   AR   Ar  187   4.761   5.327   3.344
    1   AR   Ar  188   3.600   6.069   3.022
    1   AR   Ar  189   2.663   5.068   5.613
    1   AR   Ar  190   4.241   5.877   5.937
    1   AR   Ar  191   5.247   6.036   5.239
    1   AR   Ar  192   4.130   5.959   4.829
    1   AR   Ar  193   6.177   6.598  -0.409
    1   AR   Ar  194   5.404   6.285  -1.304
    1   AR   Ar  195   5.714   1.102   0.416
    1   AR   Ar  196   5.804   0.899  -1.692
    1   AR   Ar  197   5.093   0.347   0.975
    1   AR   Ar  198   5.978   1.679   1.275
    1   AR   Ar  199   5.301   0.275   2.302
    1   AR   Ar  200   6.862   1.153   0.603
    1   AR   Ar  201   4.908   6.383   3.315
    1   AR   Ar  202   5.269   2.154   4.260
    1   AR   Ar  203   0.425   6.908   4.438
    1   AR   Ar  204   5.570   0.090   3.773
    1   AR   Ar  205   6.501   0.031   3.392
    1   AR   Ar  206   5.452   7.057   4.842
    1   AR   Ar  207   0.120   0.265   5.826
    1   AR   Ar  208   6.599   0.871   4.175
    1   AR   Ar  209   5.768   2.343  -2.225
    1   AR   Ar  210   4.845   1.649   1.317
    1   AR   Ar  211   6.328   2.567   0.560
    1   AR   Ar  212   6.094   4.054  -1.182
    1   AR   Ar  213   3.428   2.618   2.515
    1   AR   Ar  214   4.363   3.339   2.706
    1   AR   Ar  215   5.992   2.106   2.358
    1   AR   Ar  216   6.796   3.398   2.039
    1   AR   Ar  217   4.658   2.912   3.908
    1   AR   Ar  218   4.599   2.510   5.263
    1   AR   Ar  219   5.188   1.255   2.982
    1   AR   Ar  220   5.464   3.236   3.263
    1   AR   Ar  221   6.623   0.175   4.977
    1   AR   Ar  222   4.947   1.568   6.038
    1   AR   Ar  223   6.427   0.771   6.236
    1   AR   Ar  224   5.580   2.059   5.226
    1   AR   Ar  225   5.490   4.697   0.277
    1   AR   Ar  226   4.702   4.552   2.712
    1   AR   Ar  227   7.044   4.481   0.432
    1   AR   Ar  228   6.219   5.464   0.639
    1   AR   Ar  229   5.943   3.830   0.904
    1   AR   Ar  230   3.786   4.627   3.420
    1   AR   Ar  231   6.957   2.455   3.152
    1   AR   Ar  232   4.665   3.852   1.532
    1   AR   Ar  233   6.246   2.834   4.070
    1   AR   Ar  234   5.930   4.164   5.014
    1   AR   Ar  235   0.223   3.515   4.370
    1   AR   Ar  236   5.242   4.469   3.632
    1   AR   Ar  237   5.509   3.161   4.801
    1   AR   Ar  238   4.860   4.127   5.151
    1   AR   Ar  239   6.700   4.675   8.172
    1   AR   Ar  240   6.899   4.355   5.712
    1   AR   Ar  241   6.599   0.582  -0.394
    1   AR   Ar  242   5.187   6.043   0.851
    1   AR   Ar  243   5.509   3.810   2.182
    1   AR   Ar  244   6.669   5.536  -0.519
    1   AR   Ar  245   5.484   6.230   2.435
    1   AR   Ar  246   6.005   6.443   1.495
    1   AR   Ar  247   5.458   2.974   1.540
    1   AR   Ar  248   5.838   7.074   0.532
    1   AR   Ar  249   5.744   5.341   2.825
    1   AR   Ar  250   5.388   6.189   4.248
    1   AR   Ar  251   5.710   5.148   4.688
    1   AR   Ar  252   6.117   6.078   3.532
    1   AR   Ar  253   5.747   4.788   5.910
    1   AR   Ar  254   5.253   5.690   6.391
    1   AR   Ar  255   5.380   4.850   6.897
    1   AR   Ar  256   6.384   6.288   4.904
    7.12000  7.12000 12.00000
Argon-slab step 1530
  256
    1   AR   Ar    1   6.874   1.130  -1.422
    1   AR   Ar    2   6.536   0.309   1.513
    1   AR   Ar    3   0.417   6.826   0.853
    1   AR   Ar    4   0.542   0.747  -0.143
    1   AR   Ar    5   0.199   5.749   0.842
    1   AR   Ar    6   0.534   0.051   2.945
    1   AR   Ar    7   0.313   5.637   2.125
    1   AR   Ar    8   0.362   6.627   2.032
    1   AR   Ar    9   0.742   0.838   3.678
    1   AR   Ar   10   0.296   1.873   4.209
    1   AR   Ar   11   2.440   7.056   4.636
    1   AR   Ar   12   1.252   1.056   2.869
    1   AR   Ar   13   6.735   1.644   5.378
    1   AR   Ar   14   0.182   1.521   6.238
    1   AR   Ar   15   0.062   6.097   8.474
    1   AR   Ar   16   0.479   0.975   4.927
    1   AR   Ar   17   0.100   1.671  -0.456
    1   AR   Ar   18   6.796   3.619  -0.380
    1   AR   Ar   19   0.617   1.557   1.096
    1   AR   Ar   20   6.998   2.468  -2.200
    1   AR   Ar   21   6.252   1.163   2.254
    1   AR   Ar   22   0.166   2.393   2.064
    1   AR   Ar   23   0.366   0.878   1.977
    1   AR   Ar   24   0.160   2.641   0.924
    1   AR   Ar   25   7.100   1.259   2.976
    1   AR   Ar   26   6.076   1.766   3.765
    1   AR   Ar   27   2.064   1.257   3.458
    1   AR   Ar   28   0.948   2.763   4.432
    1   AR   Ar   29   6.067   1.910   6.324
    1   AR   Ar   30   0.148   2.509   6.004
    1   AR   Ar   31   0.405   0.409   7.496
    1   AR   Ar   32   1.362   2.681   6.083
    1   AR   Ar   33   1.348   4.252  -1.672
    1   AR   Ar   34   1.092   5.349   1.490
    1   AR   Ar   35   0.861   3.724   1.120
    1   AR   Ar   36   1.051   0.178  -1.642
    1   AR   Ar   37   0.891   3.244   1.971
    1   AR   Ar   38   6.973   4.591   2.165
    1   AR   Ar   39   0.849   4.195   2.377
    1   AR   Ar   40   1.651   4.073   1.516
    1   AR   Ar   41   1.004   2.474   3.389
    1   AR   Ar   42   6.644   5.293   5.327
    1   AR   Ar   43   6.553   2.950   5.255
    1   AR   Ar   44   0.545   3.467   3.142
    1   AR   Ar   45   0.961   3.670   5.329
    1   AR   Ar   46   7.010   5.395   6.642
    1   AR   Ar   47   6.802   3.299   6.585
    1   AR   Ar   48   6.781   6.551   6.426
    1   AR   Ar   49   6.430   4.999  -1.618
    1   AR   Ar   50   6.602   5.476   1.591
    1   AR   Ar   51   1.330   4.839   0.618
    1   AR   Ar   52   0.077   4.635  -0.702
    1   AR   Ar   53   6.597   6.263   2.757
    1   AR   Ar   54   0.274   6.203   3.390
    1   AR   Ar   55   6.864   5.247   3.052
    1   AR   Ar   56   1.305   6.442   1.050
    1   AR   Ar   57   6.465   3.554   3.251
    1   AR   Ar   58   6.827   5.281   4.223
    1   AR   Ar   59   2.052   5.828   5.222
    1   AR   Ar   60   1.367   6.514   3.983
    1   AR   Ar   61   6.177   5.914   6.013
    1   AR   Ar   62   0.543   5.914   5.042
    1   AR   Ar   63   1.312   5.546   6.133
    1   AR   Ar   64   1.311   6.780   5.477
    1   AR   Ar   65   3.021   0.134   0.194
    1   AR   Ar   66   1.893   1.166   1.070
    1   AR   Ar   67   3.536   6.262   0.206
    1   AR   Ar   68   3.062   0.771  -1.024
    1   AR   Ar   69   1.930   6.895   0.256
    1   AR   Ar   70   1.367   7.081   1.953
    1   AR   Ar   71   3.237   0.230   1.839
    1   AR   Ar   72   3.862   0.779   0.945
    1   AR   Ar   73   1.903   6.897   3.218
    1   AR   Ar   74   1.442   1.028   4.384
    1   AR   Ar   75   3.390   0.503   4.955
    1   AR   Ar   76   2.233   0.556   2.306
    1   AR   Ar   77   2.382   6.946   5.597
    1   AR   Ar   78   1.081   0.583   5.843
    1   AR   Ar   79   3.950   6.270   6.905
    1   AR   Ar   80   3.166   6.070   5.541
    1   AR   Ar   81   1.473   1.135   0.096
    1   AR   Ar   82   0.680   3.413  -0.183
    1   AR   Ar   83   2.438   2.203   0.981
    1   AR   Ar   84   2.058   3.986  -3.585
    1   AR   Ar   85   1.305   2.455  -0.222
    1   AR   Ar   86   1.810   2.587   1.841
    1   AR   Ar   87   2.380   1.770   1.885
    1   AR   Ar   88   3.237   3.915   1.500
    1   AR   Ar   89   0.975   1.775   2.240
    1   AR   Ar   90   2.769   2.372   4.700
    1   AR   Ar   91   1.862   2.272   4.146
    1   AR   Ar   92   1.814   2.095   2.894
    1   AR   Ar   93   1.713   1.953   5.198
    1   AR   Ar   94   3.129   0.333   7.456
    1   AR   Ar   95   3.670   7.025   5.828
    1   AR   Ar   96   2.716   0.547   6.330
    1   AR   Ar   97   4.006   2.273  -0.450
    1   AR   Ar   98   2.598   4.969   1.476
    1   AR   Ar   99   4.633   2.426  -1.189
    1   AR   Ar  100   1.299   4.388  -0.303
    1   AR   Ar  101   1.325   2.615   0.799
    1   AR   Ar  102   2.720   3.956   3.557
    1   AR   Ar  103   1.918   3.475   0.045
    1   AR   Ar  104   2.911   3.270  -1.366
    1   AR   Ar  105   1.514   3.428   3.652
    1   AR   Ar  106   1.991   3.232   4.665
    1   AR   Ar  107   2.428   3.954   5.390
    1   AR   Ar  108   3.562   2.900   4.340
    1   AR   Ar  109   1.594   4.312   4.643
    1   AR   Ar  110   1.436   4.783   5.528
    1   AR   Ar  111   4.053   5.065   7.138
    1   AR   Ar  112   1.352   5.186   7.014
    1   AR   Ar  113   2.444   4.285   0.606
    1   AR   Ar  114   2.668   6.417   0.823
    1   AR   Ar  115   3.038   5.199  -0.226
    1   AR   Ar  116   4.460   6.600  -0.005
    1   AR   Ar  117   1.057   4.951   3.066
    1   AR   Ar  118   1.332   6.109   2.226
    1   AR   Ar  119   1.871   3.967   2.878
    1   AR   Ar  120   1.866   4.848   2.268
    1   AR   Ar  121   6.202   4.413   3.830
    1   AR   Ar  122   2.764   6.090   4.502
    1   AR   Ar  123   2.455   4.868   4.474
    1   AR   Ar  124   2.246   5.846   3.672
    1   AR   Ar  125   0.540   4.712   4.806
    1   AR   Ar  126   0.721   6.357   6.135
    1   AR   Ar  127   2.971   5.451   7.152
    1   AR   Ar  128   2.493   6.048   6.284
    1   AR   Ar  129   2.228   0.185   1.311
    1   AR   Ar  130   4.587   1.092  -1.520
    1   AR   Ar  131   4.373   6.710   1.056
    1   AR   Ar  132   6.644   2.102  -1.250
    1   AR   Ar  133   3.644   0.078   3.087
    1   AR   Ar  134   3.990   1.669   2.881
    1   AR   Ar  135   4.591   0.277   3.197
    1   AR   Ar  136   4.196   0.849   2.261
    1   AR   Ar  137   3.034   6.738   3.717
    1   AR   Ar  138   4.771   1.305   4.981
    1   AR   Ar  139   5.578   1.066   4.419
    1   AR   Ar  140   4.297   1.098   3.990
    1   AR   Ar  141   4.236   6.873   4.181
    1   AR   Ar  142   4.703   6.981   5.594
    1   AR   Ar  143   5.809   6.847   5.736
    1   AR   Ar  144   5.378   0.708   6.788
    1   AR   Ar  145   2.982   3.151   0.384
    1   AR   Ar  146   4.253   2.819   1.680
    1   AR   Ar  147   5.535   2.145  -0.034
    1   AR   Ar  148   5.619   3.434  -2.490
    1   AR   Ar  149   4.151   1.667   0.492
    1   AR   Ar  150   2.942   1.637   2.850
    1   AR   Ar  151   3.783   1.992   3.807
    1   AR   Ar  152   2.752   3.042   1.806
    1   AR   Ar  153   2.966   1.079   4.013
    1   AR   Ar  154   3.755   1.611   4.857
    1   AR   Ar  155   5.662   0.822   5.606
    1   AR   Ar  156   3.846   3.705   3.690
    1   AR   Ar  157   3.598   2.078   5.764
    1   AR   Ar  158   1.594   1.740   6.484
    1   AR   Ar  159   4.481   0.656   6.259
    1   AR   Ar  160   4.006   3.169   7.009
    1   AR   Ar  161   4.749   2.724   0.556
    1   AR   Ar  162   4.380   5.258  -0.038
    1   AR   Ar  163   5.566   3.176  -0.025
    1   AR   Ar  164   4.445   5.391   1.635
    1   AR   Ar  165   2.959   3.603   2.568
    1   AR   Ar  166   2.896   5.145   2.975
    1   AR   Ar  167   4.933   2.197   2.488
    1   AR   Ar  168   3.756   4.139  -0.049
    1   AR   Ar  169   2.768   2.572   3.560
    1   AR   Ar  170   3.318   4.025   4.726
    1   AR   Ar  171   4.142   3.533   4.895
    1   AR   Ar  172   4.345   4.934   4.418
    1   AR   Ar  173   2.425   2.831   6.364
    1   AR   Ar  174   4.369   4.773   5.854
    1   AR   Ar  175   4.521   3.657   6.054
    1   AR   Ar  176   3.497   5.223   4.881
    1   AR   Ar  177   5.388   5.765  -0.221
    1   AR   Ar  178   3.328   6.355   1.629
    1   AR   Ar  179   3.693   5.301   0.788
    1   AR   Ar  180   3.897   3.840  -1.464
    1   AR   Ar  181   3.429   5.518   2.108
    1   AR   Ar  182   2.430   6.504   2.158
    1   AR   Ar  183   3.561   4.590   2.292
    1   AR   Ar  184   4.345   6.464   2.113
    1   AR   Ar  185   1.380   5.389   4.068
    1   AR   Ar  186   3.305   5.408   3.916
    1   AR   Ar  187   4.740   5.322   3.356
    1   AR   Ar  188   3.590   6.099   3.028
    1   AR   Ar  189   2.657   5.055   5.599
    1   AR   Ar  190   4.293   5.876   5.905
    1   AR   Ar  191   5.254   6.049   5.255
    1   AR   Ar  192   4.116   5.976   4.812
    1   AR   Ar  193   6.190   6.588  -0.416
    1   AR   Ar  194   5.392   6.265  -1.307
    1   AR   Ar  195   5.740   1.089   0.370
    1   AR   Ar  196   5.795   0.913  -1.729
    1   AR   Ar  197   5.107   0.379   0.981
    1   AR   Ar  198   5.961   1.690   1.231
    1   AR   Ar  199   5.320   0.257   2.302
    1   AR   Ar  200   6.860   1.141   0.617
    1   AR   Ar  201   4.923   6.396   3.341
    1   AR   Ar  202   5.304   2.170   4.271
    1   AR   Ar  203   0.416   6.886   4.403
    1   AR   Ar  204   5.590   0.087   3.784
    1   AR   Ar  205   6.502   0.016   3.404
    1   AR   Ar  206   5.460   7.042   4.835
    1   AR   Ar  207   0.122   0.280   5.821
    1   AR   Ar  208   6.579   0.871   4.182
    1   AR   Ar  209   5.706   2.331  -2.226
    1   AR   Ar  210   4.827   1.636   1.303
    1   AR   Ar  211   6.312   2.571   0.583
    1   AR   Ar  212   6.090   4.026  -1.187
    1   AR   Ar  213   3.400   2.628   2.551
    1   AR   Ar  214   4.353   3.345   2.728
    1   AR   Ar  215   5.983   2.133   2.367
    1   AR   Ar  216   6.788   3.389   2.054
    1   AR   Ar  217   4.628   2.899   3.933
    1   AR   Ar  218   4.580   2.527   5.280
    1   AR   Ar  219   5.191   1.258   2.988
    1   AR   Ar  220   5.467   3.237   3.221
    1   AR   Ar  221   6.638   0.165   4.988
    1   AR   Ar  222   4.935   1.553   6.060
    1   AR   Ar  223   6.421   0.780   6.268
    1   AR   Ar  224   5.553   2.090   5.221
    1   AR   Ar  225   5.467   4.700   0.294
    1   AR   Ar  226   4.703   4.517   2.707
    1   AR   Ar  227   7.044   4.499   0.422
    1   AR   Ar  228   6.219   5.458   0.649
    1   AR   Ar  229   5.936   3.825   0.926
    1   AR   Ar  230   3.788   4.654   3.420
    1   AR   Ar  231   6.945   2.452   3.191
    1   AR   Ar  232   4.637   3.832   1.532
    1   AR   Ar  233   6.233   2.838   4.085
    1   AR   Ar  234   5.889   4.162   5.015
    1   AR   Ar  235   0.242   3.537   4.392
    1   AR   Ar  236   5.240   4.488   3.653
    1   AR   Ar  237   5.503   3.148   4.836
    1   AR   Ar  238   4.901   4.125   5.176
    1   AR   Ar  239   6.715   4.719   8.168
    1   AR   Ar  240   6.926   4.354   5.662
    1   AR   Ar  241   6.590   0.592  -0.402
    1   AR   Ar  242   5.169   6.020   0.822
    1   AR   Ar  243   5.500   3.797   2.149
    1   AR   Ar  244   6.651   5.540  -0.545
    1   AR   Ar  245   5.478   6.247   2.443
    1   AR   Ar  246   6.011   6.435   1.456
    1   AR   Ar  247   5.482   2.982   1.538
    1   AR   Ar  248   5.842   7.055   0.544
    1   AR   Ar  249   5.731   5.358   2.805
    1   AR   Ar  250   5.402   6.229   4.259
    1   AR   Ar  251   5.734   5.102   4.702
    1   AR   Ar  252   6.100   6.067   3.539
    1   AR   Ar  253   5.752   4.793   5.908
    1   AR   Ar  254   5.227   5.673   6.392
    1   AR   Ar  255   5.379   4.844   6.938
    1   AR   Ar  256   6.371   6.287   4.915
    7.12000  7.12000 12.00000
Argon-slab step 1535
  256
    1   AR   Ar    1   6.858   1.121  -1.422
    1   AR   Ar    2   6.502   0.270   1.512
    1   AR   Ar    3   0.390   6.853   0.865
    1   AR   Ar    4   0.543   0.740  -0.129
    1   AR   Ar    5   0.163   5.755   0.826
    1   AR   Ar    6   0.536   0.092   2.972
    1   AR   Ar    7   0.290   5.644   2.152
    1   AR   Ar    8   0.344   6.640   2.013
    1   AR   Ar    9   0.720   0.837   3.686
    1   AR   Ar   10   0.294   1.881   4.212
    1   AR   Ar   11   2.422   7.060   4.645
    1   AR   Ar   12   1.255   1.056   2.859
    1   AR   Ar   13   6.734   1.629   5.412
    1   AR   Ar   14   0.178   1.522   6.221
    1   AR   Ar   15   0.105   6.114   8.474
    1   AR   Ar   16   0.488   0.986   4.957
    1   AR   Ar   17   0.082   1.661  -0.463
    1   AR   Ar   18   6.779   3.586  -0.414
    1   AR   Ar   19   0.629   1.574   1.141
    1   AR   Ar   20   6.975   2.453  -2.226
    1   AR   Ar   21   6.250   1.158   2.261
    1   AR   Ar   22   0.157   2.392   2.077
    1   AR   Ar   23   0.353   0.869   1.968
    1   AR   Ar   24   0.161   2.625   0.933
    1   AR   Ar   25   7.090   1.268   2.976
    1   AR   Ar   26   6.093   1.779   3.764
    1   AR   Ar   27   2.082   1.261   3.443
    1   AR   Ar   28   0.931   2.756   4.445
    1   AR   Ar   29   6.087   1.905   6.347
    1   AR   Ar   30   0.185   2.535   6.023
    1   AR   Ar   31   0.401   0.386   7.465
    1   AR   Ar   32   1.327   2.673   6.082
    1   AR   Ar   33   1.346   4.249  -1.675
    1   AR   Ar   34   1.103   5.388   1.506
    1   AR   Ar   35   0.841   3.727   1.091
    1   AR   Ar   36   1.025   0.173  -1.635
    1   AR   Ar   37   0.899   3.221   1.969
    1   AR   Ar   38   6.964   4.577   2.157
    1   AR   Ar   39   0.815   4.210   2.385
    1   AR   Ar   40   1.664   4.046   1.489
    1   AR   Ar   41   1.013   2.482   3.377
    1   AR   Ar   42   6.636   5.279   5.303
    1   AR   Ar   43   6.557   2.946   5.242
    1   AR   Ar   44   0.529   3.482   3.148
    1   AR   Ar   45   0.957   3.681   5.327
    1   AR   Ar   46   7.011   5.386   6.616
    1   AR   Ar   47   6.787   3.286   6.527
    1   AR   Ar   48   6.781   6.553   6.448
    1   AR   Ar   49   6.435   5.010  -1.586
    1   AR   Ar   50   6.588   5.463   1.595
    1   AR   Ar   51   1.358   4.852   0.625
    1   AR   Ar   52   0.067   4.628  -0.739
    1   AR   Ar   53   6.566   6.274   2.759
    1   AR   Ar   54   0.271   6.189   3.363
    1   AR   Ar   55   6.893   5.264   3.051
    1   AR   Ar   56   1.308   6.448   1.116
    1   AR   Ar   57   6.484   3.533   3.254
    1   AR   Ar   58   6.782   5.281   4.231
    1   AR   Ar   59   2.065   5.827   5.236
    1   AR   Ar   60   1.343   6.524   4.002
    1   AR   Ar   61   6.158   5.924   6.018
    1   AR   Ar   62   0.528   5.869   5.037
    1   AR   Ar   63   1.298   5.561   6.138
    1   AR   Ar   64   1.322   6.803   5.459
    1   AR   Ar   65   3.020   0.134   0.156
    1   AR   Ar   66   1.891   1.181   1.050
    1   AR   Ar   67   3.543   6.275   0.207
    1   AR   Ar   68   3.075   0.767  -1.013
    1   AR   Ar   69   1.892   6.942   0.258
    1   AR   Ar   70   1.350   7.100   1.970
    1   AR   Ar   71   3.240   0.207   1.848
    1   AR   Ar   72   3.869   0.771   0.940
    1   AR   Ar   73   1.895   6.927   3.219
    1   AR   Ar   74   1.430   1.057   4.377
    1   AR   Ar   75   3.400   0.498   4.959
    1   AR   Ar   76   2.175   0.568   2.275
    1   AR   Ar   77   2.400   6.959   5.641
    1   AR   Ar   78   1.073   0.591   5.880
    1   AR   Ar   79   3.928   6.256   6.925
    1   AR   Ar   80   3.164   6.056   5.517
    1   AR   Ar   81   1.493   1.130   0.101
    1   AR   Ar   82   0.661   3.426  -0.171
    1   AR   Ar   83   2.465   2.219   0.927
    1   AR   Ar   84   2.036   4.002  -3.574
    1   AR   Ar   85   1.295   2.473  -0.262
    1   AR   Ar   86   1.796   2.612   1.845
    1   AR   Ar   87   2.417   1.789   1.889
    1   AR   Ar   88   3.279   3.922   1.516
    1   AR   Ar   89   0.973   1.799   2.244
    1   AR   Ar   90   2.754   2.343   4.663
    1   AR   Ar   91   1.903   2.259   4.164
    1   AR   Ar   92   1.808   2.108   2.903
    1   AR   Ar   93   1.713   1.968   5.205
    1   AR   Ar   94   3.119   0.334   7.464
    1   AR   Ar   95   3.634   7.050   5.819
    1   AR   Ar   96   2.744   0.557   6.326
    1   AR   Ar   97   3.992   2.261  -0.482
    1   AR   Ar   98   2.585   4.943   1.519
    1   AR   Ar   99   4.663   2.409  -1.175
    1   AR   Ar  100   1.291   4.403  -0.328
    1   AR   Ar  101   1.341   2.610   0.799
    1   AR   Ar  102   2.727   3.945   3.557
    1   AR   Ar  103   1.924   3.428   0.019
    1   AR   Ar  104   2.903   3.261  -1.360
    1   AR   Ar  105   1.532   3.452   3.658
    1   AR   Ar  106   1.979   3.244   4.677
    1   AR   Ar  107   2.451   3.942   5.396
    1   AR   Ar  108   3.539   2.896   4.352
    1   AR   Ar  109   1.582   4.329   4.613
    1   AR   Ar  110   1.428   4.805   5.531
    1   AR   Ar  111   4.023   5.047   7.157
    1   AR   Ar  112   1.319   5.171   7.040
    1   AR   Ar  113   2.429   4.310   0.598
    1   AR   Ar  114   2.690   6.438   0.812
    1   AR   Ar  115   3.061   5.206  -0.226
    1   AR   Ar  116   4.498   6.576  -0.030
    1   AR   Ar  117   1.034   4.954   3.080
    1   AR   Ar  118   1.320   6.104   2.215
    1   AR   Ar  119   1.870   3.970   2.863
    1   AR   Ar  120   1.837   4.859   2.279
    1   AR   Ar  121   6.239   4.395   3.842
    1   AR   Ar  122   2.755   6.071   4.517
    1   AR   Ar  123   2.463   4.851   4.500
    1   AR   Ar  124   2.233   5.842   3.671
    1   AR   Ar  125   0.555   4.674   4.806
    1   AR   Ar  126   0.691   6.345   6.106
    1   AR   Ar  127   2.984   5.464   7.129
    1   AR   Ar  128   2.506   6.081   6.299
    1   AR   Ar  129   2.237   0.189   1.317
    1   AR   Ar  130   4.560   1.085  -1.527
    1   AR   Ar  131   4.368   6.714   1.050
    1   AR   Ar  132   6.625   2.065  -1.218
    1   AR   Ar  133   3.634   0.060   3.061
    1   AR   Ar  134   4.010   1.660   2.879
    1   AR   Ar  135   4.615   0.307   3.183
    1   AR   Ar  136   4.192   0.873   2.284
    1   AR   Ar  137   3.039   6.695   3.718
    1   AR   Ar  138   4.809   1.301   5.005
    1   AR   Ar  139   5.594   1.054   4.436
    1   AR   Ar  140   4.287   1.094   3.980
    1   AR   Ar  141   4.184   6.836   4.205
    1   AR   Ar  142   4.691   7.018   5.589
    1   AR   Ar  143   5.803   6.874   5.733
    1   AR   Ar  144   5.399   0.707   6.771
    1   AR   Ar  145   2.946   3.161   0.379
    1   AR   Ar  146   4.246   2.793   1.680
    1   AR   Ar  147   5.533   2.117  -0.050
    1   AR   Ar  148   5.658   3.446  -2.508
    1   AR   Ar  149   4.139   1.666   0.506
    1   AR   Ar  150   2.932   1.626   2.842
    1   AR   Ar  151   3.812   1.971   3.805
    1   AR   Ar  152   2.751   3.043   1.785
    1   AR   Ar  153   2.960   1.078   3.987
    1   AR   Ar  154   3.740   1.624   4.839
    1   AR   Ar  155   5.674   0.809   5.622
    1   AR   Ar  156   3.803   3.692   3.693
    1   AR   Ar  157   3.600   2.115   5.768
    1   AR   Ar  158   1.608   1.696   6.498
    1   AR   Ar  159   4.490   0.674   6.262
    1   AR   Ar  160   4.021   3.185   7.043
    1   AR   Ar  161   4.779   2.696   0.551
    1   AR   Ar  162   4.413   5.251  -0.065
    1   AR   Ar  163   5.539   3.184   0.007
    1   AR   Ar  164   4.459   5.408   1.619
    1   AR   Ar  165   2.967   3.610   2.535
    1   AR   Ar  166   2.894   5.164   3.002
    1   AR   Ar  167   4.912   2.201   2.492
    1   AR   Ar  168   3.763   4.153  -0.046
    1   AR   Ar  169   2.801   2.579   3.546
    1   AR   Ar  170   3.303   4.010   4.716
    1   AR   Ar  171   4.146   3.504   4.881
    1   AR   Ar  172   4.351   4.954   4.397
    1   AR   Ar  173   2.429   2.836   6.369
    1   AR   Ar  174   4.372   4.742   5.874
    1   AR   Ar  175   4.517   3.643   6.057
    1   AR   Ar  176   3.522   5.243   4.879
    1   AR   Ar  177   5.399   5.786  -0.207
    1   AR   Ar  178   3.297   6.349   1.633
    1   AR   Ar  179   3.664   5.286   0.782
    1   AR   Ar  180   3.899   3.823  -1.473
    1   AR   Ar  181   3.388   5.525   2.123
    1   AR   Ar  182   2.398   6.504   2.157
    1   AR   Ar  183   3.534   4.587   2.280
    1   AR   Ar  184   4.366   6.451   2.111
    1   AR   Ar  185   1.374   5.377   4.095
    1   AR   Ar  186   3.298   5.434   3.905
    1   AR   Ar  187   4.714   5.326   3.370
    1   AR   Ar  188   3.580   6.126   3.034
    1   AR   Ar  189   2.652   5.040   5.585
    1   AR   Ar  190   4.342   5.876   5.871
    1   AR   Ar  191   5.259   6.058   5.278
    1   AR   Ar  192   4.110   6.004   4.795
    1   AR   Ar  193   6.202   6.577  -0.424
    1   AR   Ar  194   5.381   6.245  -1.308
    1   AR   Ar  195   5.767   1.076   0.322
    1   AR   Ar  196   5.786   0.929  -1.766
    1   AR   Ar  197   5.108   0.420   0.996
    1   AR   Ar  198   5.944   1.703   1.189
    1   AR   Ar  199   5.338   0.238   2.302
    1   AR   Ar  200   6.857   1.129   0.629
    1   AR   Ar  201   4.936   6.408   3.366
    1   AR   Ar  202   5.331   2.187   4.276
    1   AR   Ar  203   0.405   6.865   4.368
    1   AR   Ar  204   5.600   0.086   3.797
    1   AR   Ar  205   6.515   0.000   3.414
    1   AR   Ar  206   5.467   7.040   4.824
    1   AR   Ar  207   0.121   0.293   5.818
    1   AR   Ar  208   6.565   0.871   4.187
    1   AR   Ar  209   5.645   2.318  -2.225
    1   AR   Ar  210   4.811   1.624   1.291
    1   AR   Ar  211   6.292   2.575   0.605
    1   AR   Ar  212   6.090   4.009  -1.196
    1   AR   Ar  213   3.375   2.635   2.589
    1   AR   Ar  214   4.345   3.351   2.749
    1   AR   Ar  215   5.976   2.167   2.376
    1   AR   Ar  216   6.781   3.381   2.070
    1   AR   Ar  217   4.596   2.888   3.959
    1   AR   Ar  218   4.577   2.517   5.287
    1   AR   Ar  219   5.209   1.251   3.004
    1   AR   Ar  220   5.466   3.237   3.179
    1   AR   Ar  221   6.649   0.158   4.998
    1   AR   Ar  222   4.926   1.543   6.081
    1   AR   Ar  223   6.417   0.795   6.317
    1   AR   Ar  224   5.532   2.118   5.227
    1   AR   Ar  225   5.444   4.703   0.311
    1   AR   Ar  226   4.703   4.478   2.697
    1   AR   Ar  227   7.044   4.516   0.412
    1   AR   Ar  228   6.216   5.453   0.651
    1   AR   Ar  229   5.929   3.820   0.947
    1   AR   Ar  230   3.794   4.688   3.413
    1   AR   Ar  231   6.933   2.450   3.230
    1   AR   Ar  232   4.608   3.813   1.531
    1   AR   Ar  233   6.222   2.842   4.098
    1   AR   Ar  234   5.861   4.153   5.016
    1   AR   Ar  235   0.259   3.563   4.413
    1   AR   Ar  236   5.240   4.494   3.649
    1   AR   Ar  237   5.494   3.135   4.872
    1   AR   Ar  238   4.942   4.129   5.202
    1   AR   Ar  239   6.730   4.763   8.163
    1   AR   Ar  240   6.953   4.348   5.612
    1   AR   Ar  241   6.580   0.603  -0.408
    1   AR   Ar  242   5.152   5.996   0.793
    1   AR   Ar  243   5.487   3.782   2.121
    1   AR   Ar  244   6.632   5.545  -0.570
    1   AR   Ar  245   5.469   6.273   2.445
    1   AR   Ar  246   6.017   6.427   1.417
    1   AR   Ar  247   5.504   2.984   1.532
    1   AR   Ar  248   5.861   7.029   0.548
    1   AR   Ar  249   5.720   5.364   2.789
    1   AR   Ar  250   5.412   6.261   4.267
    1   AR   Ar  251   5.757   5.066   4.712
    1   AR   Ar  252   6.076   6.052   3.561
    1   AR   Ar  253   5.758   4.799   5.904
    1   AR   Ar  254   5.199   5.661   6.389
    1   AR   Ar  255   5.379   4.831   6.983
    1   AR   Ar  256   6.356   6.281   4.924
    7.12000  7.12000 12.00000
Argon-slab step 1540
  256
    1   AR   Ar    1   6.844   1.102  -1.423
    1   AR   Ar    2   6.465   0.242   1.512
    1   AR   Ar    3   0.358   6.882   0.877
    1   AR   Ar    4   0.542   0.730  -0.115
    1   AR   Ar    5   0.128   5.762   0.811
    1   AR   Ar    6   0.537   0.131   2.996
    1   AR   Ar    7   0.272   5.644   2.186
    1   AR   Ar    8   0.325   6.660   1.992
    1   AR   Ar    9   0.688   0.835   3.700
    1   AR   Ar   10   0.291   1.887   4.214
    1   AR   Ar   11   2.409   7.075   4.649
    1   AR   Ar   12   1.260   1.049   2.845
    1   AR   Ar   13   6.725   1.614   5.438
    1   AR   Ar   14   0.200   1.525   6.210
    1   AR   Ar   15   0.147   6.132   8.474
    1   AR   Ar   16   0.505   1.006   4.993
    1   AR   Ar   17   0.067   1.649  -0.466
    1   AR   Ar   18   6.758   3.555  -0.448
    1   AR   Ar   19   0.643   1.591   1.186
    1   AR   Ar   20   6.952   2.437  -2.251
    1   AR   Ar   21   6.248   1.149   2.265
    1   AR   Ar   22   0.143   2.393   2.089
    1   AR   Ar   23   0.340   0.860   1.960
    1   AR   Ar   24   0.178   2.635   0.940
    1   AR   Ar   25   7.082   1.278   2.977
    1   AR   Ar   26   6.117   1.790   3.757
    1   AR   Ar   27   2.100   1.263   3.432
    1   AR   Ar   28   0.918   2.748   4.459
    1   AR   Ar   29   6.107   1.899   6.366
    1   AR   Ar   30   0.224   2.563   6.037
    1   AR   Ar   31   0.397   0.362   7.434
    1   AR   Ar   32   1.291   2.665   6.078
    1   AR   Ar   33   1.344   4.245  -1.677
    1   AR   Ar   34   1.113   5.424   1.519
    1   AR   Ar   35   0.806   3.728   1.047
    1   AR   Ar   36   0.996   0.166  -1.627
    1   AR   Ar   37   0.906   3.194   1.972
    1   AR   Ar   38   6.952   4.564   2.150
    1   AR   Ar   39   0.783   4.223   2.390
    1   AR   Ar   40   1.692   4.025   1.470
    1   AR   Ar   41   1.009   2.487   3.385
    1   AR   Ar   42   6.630   5.268   5.279
    1   AR   Ar   43   6.561   2.942   5.228
    1   AR   Ar   44   0.513   3.496   3.154
    1   AR   Ar   45   0.958   3.684   5.319
    1   AR   Ar   46   7.013   5.377   6.587
    1   AR   Ar   47   6.770   3.276   6.469
    1   AR   Ar   48   6.788   6.563   6.474
    1   AR   Ar   49   6.440   5.021  -1.552
    1   AR   Ar   50   6.568   5.449   1.603
    1   AR   Ar   51   1.387   4.863   0.634
    1   AR   Ar   52   0.072   4.635  -0.780
    1   AR   Ar   53   6.541   6.289   2.739
    1   AR   Ar   54   0.272   6.175   3.341
    1   AR   Ar   55   6.920   5.280   3.051
    1   AR   Ar   56   1.315   6.451   1.184
    1   AR   Ar   57   6.507   3.511   3.256
    1   AR   Ar   58   6.738   5.284   4.238
    1   AR   Ar   59   2.072   5.829   5.253
    1   AR   Ar   60   1.319   6.532   4.024
    1   AR   Ar   61   6.133   5.924   6.017
    1   AR   Ar   62   0.514   5.823   5.032
    1   AR   Ar   63   1.290   5.584   6.138
    1   AR   Ar   64   1.300   6.818   5.444
    1   AR   Ar   65   3.020   0.135   0.120
    1   AR   Ar   66   1.890   1.199   1.036
    1   AR   Ar   67   3.545   6.280   0.200
    1   AR   Ar   68   3.088   0.762  -1.002
    1   AR   Ar   69   1.854   6.989   0.262
    1   AR   Ar   70   1.331   0.006   1.988
    1   AR   Ar   71   3.242   0.192   1.860
    1   AR   Ar   72   3.835   0.760   0.942
    1   AR   Ar   73   1.889   6.960   3.214
    1   AR   Ar   74   1.423   1.089   4.375
    1   AR   Ar   75   3.409   0.494   4.960
    1   AR   Ar   76   2.118   0.585   2.250
    1   AR   Ar   77   2.420   6.967   5.689
    1   AR   Ar   78   1.072   0.608   5.920
    1   AR   Ar   79   3.906   6.240   6.942
    1   AR   Ar   80   3.167   6.044   5.490
    1   AR   Ar   81   1.513   1.127   0.104
    1   AR   Ar   82   0.647   3.439  -0.155
    1   AR   Ar   83   2.490   2.238   0.871
    1   AR   Ar   84   2.014   4.018  -3.563
    1   AR   Ar   85   1.284   2.492  -0.302
    1   AR   Ar   86   1.777   2.641   1.854
    1   AR   Ar   87   2.447   1.778   1.897
    1   AR   Ar   88   3.321   3.929   1.528
    1   AR   Ar   89   0.961   1.827   2.241
    1   AR   Ar   90   2.744   2.310   4.635
    1   AR   Ar   91   1.932   2.244   4.173
    1   AR   Ar   92   1.811   2.121   2.905
    1   AR   Ar   93   1.713   1.983   5.214
    1   AR   Ar   94   3.099   0.331   7.448
    1   AR   Ar   95   3.597   7.072   5.813
    1   AR   Ar   96   2.705   0.547   6.292
    1   AR   Ar   97   3.968   2.248  -0.503
    1   AR   Ar   98   2.573   4.917   1.562
    1   AR   Ar   99   4.704   2.394  -1.171
    1   AR   Ar  100   1.282   4.415  -0.354
    1   AR   Ar  101   1.356   2.606   0.801
    1   AR   Ar  102   2.734   3.934   3.560
    1   AR   Ar  103   1.929   3.410   0.023
    1   AR   Ar  104   2.894   3.252  -1.353
    1   AR   Ar  105   1.529   3.432   3.654
    1   AR   Ar  106   1.968   3.256   4.689
    1   AR   Ar  107   2.473   3.930   5.401
    1   AR   Ar  108   3.517   2.890   4.359
    1   AR   Ar  109   1.567   4.341   4.579
    1   AR   Ar  110   1.423   4.818   5.529
    1   AR   Ar  111   3.994   5.031   7.175
    1   AR   Ar  112   1.286   5.151   7.077
    1   AR   Ar  113   2.414   4.334   0.591
    1   AR   Ar  114   2.707   6.457   0.800
    1   AR   Ar  115   3.086   5.220  -0.242
    1   AR   Ar  116   4.525   6.549  -0.049
    1   AR   Ar  117   1.011   4.960   3.096
    1   AR   Ar  118   1.308   6.102   2.209
    1   AR   Ar  119   1.874   3.964   2.854
    1   AR   Ar  120   1.805   4.873   2.291
    1   AR   Ar  121   6.281   4.378   3.858
    1   AR   Ar  122   2.756   6.048   4.536
    1   AR   Ar  123   2.476   4.838   4.525
    1   AR   Ar  124   2.219   5.837   3.664
    1   AR   Ar  125   0.568   4.638   4.806
    1   AR   Ar  126   0.682   6.341   6.083
    1   AR   Ar  127   2.998   5.478   7.105
    1   AR   Ar  128   2.514   6.112   6.317
    1   AR   Ar  129   2.246   0.198   1.321
    1   AR   Ar  130   4.535   1.078  -1.534
    1   AR   Ar  131   4.372   6.716   1.053
    1   AR   Ar  132   6.601   2.040  -1.187
    1   AR   Ar  133   3.622   0.048   3.028
    1   AR   Ar  134   4.032   1.655   2.874
    1   AR   Ar  135   4.646   0.338   3.169
    1   AR   Ar  136   4.190   0.888   2.302
    1   AR   Ar  137   3.038   6.653   3.727
    1   AR   Ar  138   4.839   1.298   5.034
    1   AR   Ar  139   5.610   1.040   4.451
    1   AR   Ar  140   4.280   1.082   3.972
    1   AR   Ar  141   4.133   6.806   4.222
    1   AR   Ar  142   4.681   7.050   5.580
    1   AR   Ar  143   5.790   6.906   5.732
    1   AR   Ar  144   5.423   0.706   6.755
    1   AR   Ar  145   2.909   3.173   0.376
    1   AR   Ar  146   4.247   2.787   1.690
    1   AR   Ar  147   5.530   2.087  -0.065
    1   AR   Ar  148   5.696   3.456  -2.525
    1   AR   Ar  149   4.126   1.671   0.515
    1   AR   Ar  150   2.921   1.616   2.835
    1   AR   Ar  151   3.834   1.961   3.810
    1   AR   Ar  152   2.748   3.033   1.749
    1   AR   Ar  153   2.961   1.083   3.964
    1   AR   Ar  154   3.724   1.636   4.818
    1   AR   Ar  155   5.680   0.799   5.632
    1   AR   Ar  156   3.761   3.675   3.696
    1   AR   Ar  157   3.594   2.134   5.758
    1   AR   Ar  158   1.622   1.651   6.510
    1   AR   Ar  159   4.508   0.674   6.247
    1   AR   Ar  160   4.016   3.192   7.040
    1   AR   Ar  161   4.808   2.665   0.550
    1   AR   Ar  162   4.445   5.245  -0.092
    1   AR   Ar  163   5.515   3.197   0.039
    1   AR   Ar  164   4.458   5.401   1.607
    1   AR   Ar  165   2.978   3.631   2.516
    1   AR   Ar  166   2.886   5.181   3.025
    1   AR   Ar  167   4.888   2.208   2.495
    1   AR   Ar  168   3.771   4.160  -0.049
    1   AR   Ar  169   2.833   2.585   3.533
    1   AR   Ar  170   3.280   4.001   4.701
    1   AR   Ar  171   4.163   3.473   4.870
    1   AR   Ar  172   4.365   4.971   4.372
    1   AR   Ar  173   2.434   2.840   6.373
    1   AR   Ar  174   4.375   4.713   5.894
    1   AR   Ar  175   4.513   3.627   6.061
    1   AR   Ar  176   3.529   5.249   4.889
    1   AR   Ar  177   5.411   5.803  -0.197
    1   AR   Ar  178   3.273   6.349   1.628
    1   AR   Ar  179   3.634   5.270   0.778
    1   AR   Ar  180   3.901   3.806  -1.481
    1   AR   Ar  181   3.348   5.535   2.142
    1   AR   Ar  182   2.362   6.506   2.157
    1   AR   Ar  183   3.512   4.569   2.274
    1   AR   Ar  184   4.386   6.438   2.112
    1   AR   Ar  185   1.366   5.363   4.124
    1   AR   Ar  186   3.290   5.466   3.893
    1   AR   Ar  187   4.685   5.336   3.384
    1   AR   Ar  188   3.574   6.147   3.038
    1   AR   Ar  189   2.649   5.023   5.572
    1   AR   Ar  190   4.384   5.879   5.834
    1   AR   Ar  191   5.264   6.063   5.303
    1   AR   Ar  192   4.114   6.039   4.780
    1   AR   Ar  193   6.214   6.567  -0.431
    1   AR   Ar  194   5.371   6.225  -1.307
    1   AR   Ar  195   5.794   1.061   0.274
    1   AR   Ar  196   5.777   0.945  -1.802
    1   AR   Ar  197   5.103   0.466   1.016
    1   AR   Ar  198   5.928   1.716   1.149
    1   AR   Ar  199   5.355   0.221   2.302
    1   AR   Ar  200   6.853   1.116   0.642
    1   AR   Ar  201   4.946   6.420   3.389
    1   AR   Ar  202   5.349   2.205   4.273
    1   AR   Ar  203   0.391   6.846   4.334
    1   AR   Ar  204   5.603   0.100   3.814
    1   AR   Ar  205   6.539   7.105   3.420
    1   AR   Ar  206   5.473   7.058   4.814
    1   AR   Ar  207   0.116   0.302   5.819
    1   AR   Ar  208   6.558   0.869   4.190
    1   AR   Ar  209   5.585   2.305  -2.223
    1   AR   Ar  210   4.799   1.612   1.284
    1   AR   Ar  211   6.268   2.581   0.627
    1   AR   Ar  212   6.108   4.034  -1.225
    1   AR   Ar  213   3.353   2.639   2.628
    1   AR   Ar  214   4.336   3.357   2.770
    1   AR   Ar  215   5.970   2.205   2.386
    1   AR   Ar  216   6.773   3.373   2.087
    1   AR   Ar  217   4.562   2.879   3.983
    1   AR   Ar  218   4.569   2.508   5.292
    1   AR   Ar  219   5.242   1.238   3.021
    1   AR   Ar  220   5.461   3.236   3.137
    1   AR   Ar  221   6.657   0.155   5.004
    1   AR   Ar  222   4.924   1.544   6.098
    1   AR   Ar  223   6.417   0.811   6.369
    1   AR   Ar  224   5.521   2.141   5.249
    1   AR   Ar  225   5.421   4.707   0.328
    1   AR   Ar  226   4.702   4.437   2.684
    1   AR   Ar  227   7.044   4.534   0.401
    1   AR   Ar  228   6.210   5.448   0.645
    1   AR   Ar  229   5.922   3.814   0.968
    1   AR   Ar  230   3.802   4.722   3.402
    1   AR   Ar  231   6.921   2.448   3.269
    1   AR   Ar  232   4.613   3.793   1.528
    1   AR   Ar  233   6.211   2.845   4.111
    1   AR   Ar  234   5.865   4.129   5.016
    1   AR   Ar  235   0.273   3.591   4.434
    1   AR   Ar  236   5.247   4.490   3.630
    1   AR   Ar  237   5.499   3.128   4.869
    1   AR   Ar  238   4.960   4.135   5.231
    1   AR   Ar  239   6.738   4.795   8.165
    1   AR   Ar  240   6.981   4.337   5.563
    1   AR   Ar  241   6.559   0.625  -0.398
    1   AR   Ar  242   5.135   5.972   0.767
    1   AR   Ar  243   5.476   3.775   2.102
    1   AR   Ar  244   6.610   5.551  -0.593
    1   AR   Ar  245   5.461   6.306   2.443
    1   AR   Ar  246   6.024   6.415   1.380
    1   AR   Ar  247   5.526   2.975   1.520
    1   AR   Ar  248   5.883   7.005   0.544
    1   AR   Ar  249   5.711   5.362   2.776
    1   AR   Ar  250   5.416   6.277   4.274
    1   AR   Ar  251   5.776   5.046   4.717
    1   AR   Ar  252   6.052   6.030   3.590
    1   AR   Ar  253   5.764   4.808   5.898
    1   AR   Ar  254   5.171   5.652   6.385
    1   AR   Ar  255   5.379   4.815   7.030
    1   AR   Ar  256   6.338   6.271   4.933
    7.12000  7.12000 12.00000
Argon-slab step 1545
  256
    1   AR   Ar    1   6.817   1.096  -1.425
    1   AR   Ar    2   6.440   0.250   1.515
    1   AR   Ar    3   0.324   6.913   0.890
    1   AR   Ar    4   0.538   0.718  -0.100
    1   AR   Ar    5   0.096   5.769   0.796
    1   AR   Ar    6   0.537   0.164   3.013
    1   AR   Ar    7   0.259   5.643   2.222
    1   AR   Ar    8   0.305   6.685   1.971
    1   AR   Ar    9   0.651   0.837   3.721
    1   AR   Ar   10   0.287   1.891   4.214
    1   AR   Ar   11   2.396   7.090   4.648
    1   AR   Ar   12   1.265   1.038   2.828
    1   AR   Ar   13   6.708   1.600   5.452
    1   AR   Ar   14   0.195   1.519   6.217
    1   AR   Ar   15   0.189   6.149   8.473
    1   AR   Ar   16   0.520   1.025   5.029
    1   AR   Ar   17   0.054   1.634  -0.462
    1   AR   Ar   18   6.735   3.525  -0.481
    1   AR   Ar   19   0.657   1.610   1.231
    1   AR   Ar   20   6.927   2.421  -2.275
    1   AR   Ar   21   6.245   1.139   2.269
    1   AR   Ar   22   0.121   2.397   2.101
    1   AR   Ar   23   0.327   0.849   1.954
    1   AR   Ar   24   0.166   2.614   0.937
    1   AR   Ar   25   7.075   1.289   2.979
    1   AR   Ar   26   6.147   1.798   3.746
    1   AR   Ar   27   2.116   1.263   3.424
    1   AR   Ar   28   0.909   2.739   4.474
    1   AR   Ar   29   6.127   1.892   6.383
    1   AR   Ar   30   0.264   2.587   6.046
    1   AR   Ar   31   0.392   0.338   7.401
    1   AR   Ar   32   1.259   2.658   6.073
    1   AR   Ar   33   1.342   4.242  -1.678
    1   AR   Ar   34   1.121   5.451   1.525
    1   AR   Ar   35   0.766   3.728   0.998
    1   AR   Ar   36   0.966   0.160  -1.618
    1   AR   Ar   37   0.909   3.168   1.978
    1   AR   Ar   38   6.942   4.566   2.154
    1   AR   Ar   39   0.756   4.234   2.392
    1   AR   Ar   40   1.726   4.007   1.454
    1   AR   Ar   41   0.997   2.494   3.396
    1   AR   Ar   42   6.625   5.260   5.260
    1   AR   Ar   43   6.565   2.937   5.215
    1   AR   Ar   44   0.496   3.507   3.161
    1   AR   Ar   45   0.981   3.660   5.290
    1   AR   Ar   46   7.014   5.370   6.556
    1   AR   Ar   47   6.748   3.271   6.412
    1   AR   Ar   48   6.799   6.578   6.502
    1   AR   Ar   49   6.446   5.033  -1.519
    1   AR   Ar   50   6.545   5.435   1.615
    1   AR   Ar   51   1.417   4.872   0.645
    1   AR   Ar   52   0.076   4.641  -0.820
    1   AR   Ar   53   6.516   6.304   2.708
    1   AR   Ar   54   0.278   6.165   3.321
    1   AR   Ar   55   6.943   5.291   3.054
    1   AR   Ar   56   1.323   6.453   1.247
    1   AR   Ar   57   6.531   3.488   3.256
    1   AR   Ar   58   6.696   5.289   4.241
    1   AR   Ar   59   2.071   5.832   5.275
    1   AR   Ar   60   1.299   6.536   4.046
    1   AR   Ar   61   6.106   5.918   6.012
    1   AR   Ar   62   0.499   5.777   5.027
    1   AR   Ar   63   1.291   5.608   6.139
    1   AR   Ar   64   1.284   6.834   5.421
    1   AR   Ar   65   3.018   0.141   0.086
    1   AR   Ar   66   1.895   1.212   1.034
    1   AR   Ar   67   3.526   6.278   0.185
    1   AR   Ar   68   3.101   0.757  -0.989
    1   AR   Ar   69   1.823   7.033   0.266
    1   AR   Ar   70   1.307   0.033   2.006
    1   AR   Ar   71   3.244   0.188   1.875
    1   AR   Ar   72   3.798   0.744   0.945
    1   AR   Ar   73   1.885   6.993   3.207
    1   AR   Ar   74   1.421   1.124   4.375
    1   AR   Ar   75   3.417   0.493   4.955
    1   AR   Ar   76   2.067   0.609   2.234
    1   AR   Ar   77   2.434   6.961   5.728
    1   AR   Ar   78   1.077   0.631   5.962
    1   AR   Ar   79   3.883   6.222   6.958
    1   AR   Ar   80   3.173   6.034   5.465
    1   AR   Ar   81   1.531   1.125   0.100
    1   AR   Ar   82   0.637   3.453  -0.138
    1   AR   Ar   83   2.514   2.257   0.816
    1   AR   Ar   84   1.992   4.034  -3.552
    1   AR   Ar   85   1.272   2.511  -0.343
    1   AR   Ar   86   1.758   2.666   1.864
    1   AR   Ar   87   2.468   1.750   1.903
    1   AR   Ar   88   3.363   3.932   1.530
    1   AR   Ar   89   0.955   1.855   2.236
    1   AR   Ar   90   2.752   2.273   4.624
    1   AR   Ar   91   1.936   2.226   4.165
    1   AR   Ar   92   1.821   2.133   2.902
    1   AR   Ar   93   1.711   2.000   5.222
    1   AR   Ar   94   3.073   0.324   7.415
    1   AR   Ar   95   3.559   7.091   5.812
    1   AR   Ar   96   2.655   0.546   6.262
    1   AR   Ar   97   3.939   2.233  -0.517
    1   AR   Ar   98   2.565   4.890   1.603
    1   AR   Ar   99   4.752   2.380  -1.173
    1   AR   Ar  100   1.272   4.425  -0.382
    1   AR   Ar  101   1.371   2.603   0.805
    1   AR   Ar  102   2.737   3.919   3.567
    1   AR   Ar  103   1.930   3.414   0.047
    1   AR   Ar  104   2.886   3.244  -1.345
    1   AR   Ar  105   1.520   3.399   3.652
    1   AR   Ar  106   1.955   3.268   4.700
    1   AR   Ar  107   2.491   3.920   5.406
    1   AR   Ar  108   3.495   2.883   4.363
    1   AR   Ar  109   1.551   4.348   4.544
    1   AR   Ar  110   1.421   4.823   5.519
    1   AR   Ar  111   3.968   5.014   7.191
    1   AR   Ar  112   1.254   5.130   7.119
    1   AR   Ar  113   2.400   4.357   0.584
    1   AR   Ar  114   2.716   6.478   0.785
    1   AR   Ar  115   3.112   5.234  -0.255
    1   AR   Ar  116   4.490   6.507  -0.044
    1   AR   Ar  117   0.988   4.969   3.114
    1   AR   Ar  118   1.297   6.105   2.216
    1   AR   Ar  119   1.887   3.943   2.857
    1   AR   Ar  120   1.771   4.888   2.302
    1   AR   Ar  121   6.325   4.362   3.875
    1   AR   Ar  122   2.758   6.027   4.556
    1   AR   Ar  123   2.486   4.834   4.547
    1   AR   Ar  124   2.204   5.833   3.653
    1   AR   Ar  125   0.564   4.618   4.800
    1   AR   Ar  126   0.693   6.380   6.072
    1   AR   Ar  127   3.011   5.493   7.080
    1   AR   Ar  128   2.509   6.105   6.324
    1   AR   Ar  129   2.254   0.204   1.318
    1   AR   Ar  130   4.509   1.072  -1.540
    1   AR   Ar  131   4.373   6.717   1.056
    1   AR   Ar  132   6.568   2.028  -1.160
    1   AR   Ar  133   3.611   0.044   2.992
    1   AR   Ar  134   4.041   1.664   2.870
    1   AR   Ar  135   4.678   0.370   3.157
    1   AR   Ar  136   4.192   0.890   2.310
    1   AR   Ar  137   3.031   6.614   3.741
    1   AR   Ar  138   4.861   1.298   5.066
    1   AR   Ar  139   5.624   1.025   4.463
    1   AR   Ar  140   4.279   1.062   3.965
    1   AR   Ar  141   4.099   6.798   4.215
    1   AR   Ar  142   4.666   7.072   5.569
    1   AR   Ar  143   5.782   6.932   5.743
    1   AR   Ar  144   5.448   0.705   6.738
    1   AR   Ar  145   2.874   3.185   0.375
    1   AR   Ar  146   4.248   2.779   1.701
    1   AR   Ar  147   5.526   2.056  -0.080
    1   AR   Ar  148   5.735   3.466  -2.541
    1   AR   Ar  149   4.112   1.681   0.518
    1   AR   Ar  150   2.912   1.606   2.832
    1   AR   Ar  151   3.850   1.964   3.818
    1   AR   Ar  152   2.737   3.034   1.768
    1   AR   Ar  153   2.975   1.111   3.947
    1   AR   Ar  154   3.709   1.646   4.796
    1   AR   Ar  155   5.682   0.795   5.637
    1   AR   Ar  156   3.783   3.695   3.666
    1   AR   Ar  157   3.575   2.125   5.726
    1   AR   Ar  158   1.636   1.606   6.521
    1   AR   Ar  159   4.521   0.663   6.232
    1   AR   Ar  160   4.007   3.196   7.026
    1   AR   Ar  161   4.832   2.630   0.554
    1   AR   Ar  162   4.477   5.239  -0.116
    1   AR   Ar  163   5.496   3.214   0.068
    1   AR   Ar  164   4.447   5.389   1.604
    1   AR   Ar  165   2.990   3.660   2.507
    1   AR   Ar  166   2.873   5.194   3.042
    1   AR   Ar  167   4.863   2.216   2.498
    1   AR   Ar  168   3.780   4.135  -0.075
    1   AR   Ar  169   2.862   2.591   3.523
    1   AR   Ar  170   3.255   3.995   4.682
    1   AR   Ar  171   4.188   3.444   4.864
    1   AR   Ar  172   4.384   4.986   4.345
    1   AR   Ar  173   2.438   2.843   6.375
    1   AR   Ar  174   4.376   4.688   5.916
    1   AR   Ar  175   4.508   3.609   6.065
    1   AR   Ar  176   3.521   5.263   4.895
    1   AR   Ar  177   5.417   5.804  -0.200
    1   AR   Ar  178   3.256   6.352   1.616
    1   AR   Ar  179   3.604   5.256   0.773
    1   AR   Ar  180   3.902   3.789  -1.488
    1   AR   Ar  181   3.309   5.543   2.164
    1   AR   Ar  182   2.324   6.509   2.159
    1   AR   Ar  183   3.495   4.545   2.278
    1   AR   Ar  184   4.405   6.426   2.114
    1   AR   Ar  185   1.357   5.349   4.156
    1   AR   Ar  186   3.287   5.501   3.886
    1   AR   Ar  187   4.656   5.352   3.396
    1   AR   Ar  188   3.560   6.134   3.040
    1   AR   Ar  189   2.648   5.005   5.562
    1   AR   Ar  190   4.412   5.885   5.793
    1   AR   Ar  191   5.271   6.067   5.329
    1   AR   Ar  192   4.125   6.065   4.778
    1   AR   Ar  193   6.224   6.557  -0.438
    1   AR   Ar  194   5.362   6.204  -1.304
    1   AR   Ar  195   5.820   1.044   0.227
    1   AR   Ar  196   5.768   0.962  -1.837
    1   AR   Ar  197   5.096   0.514   1.038
    1   AR   Ar  198   5.911   1.728   1.111
    1   AR   Ar  199   5.353   0.216   2.296
    1   AR   Ar  200   6.849   1.103   0.654
    1   AR   Ar  201   4.951   6.433   3.405
    1   AR   Ar  202   5.358   2.224   4.263
    1   AR   Ar  203   0.372   6.829   4.302
    1   AR   Ar  204   5.601   0.121   3.827
    1   AR   Ar  205   6.569   7.091   3.427
    1   AR   Ar  206   5.476   7.096   4.811
    1   AR   Ar  207   0.107   0.310   5.824
    1   AR   Ar  208   6.562   0.866   4.188
    1   AR   Ar  209   5.526   2.293  -2.220
    1   AR   Ar  210   4.791   1.599   1.282
    1   AR   Ar  211   6.241   2.590   0.649
    1   AR   Ar  212   6.126   4.058  -1.253
    1   AR   Ar  213   3.336   2.642   2.664
    1   AR   Ar  214   4.328   3.362   2.789
    1   AR   Ar  215   5.966   2.245   2.395
    1   AR   Ar  216   6.765   3.367   2.104
    1   AR   Ar  217   4.528   2.871   4.007
    1   AR   Ar  218   4.557   2.500   5.296
    1   AR   Ar  219   5.275   1.227   3.038
    1   AR   Ar  220   5.455   3.234   3.095
    1   AR   Ar  221   6.660   0.152   5.006
    1   AR   Ar  222   4.929   1.558   6.112
    1   AR   Ar  223   6.423   0.827   6.421
    1   AR   Ar  224   5.520   2.156   5.283
    1   AR   Ar  225   5.398   4.712   0.346
    1   AR   Ar  226   4.699   4.395   2.670
    1   AR   Ar  227   7.044   4.553   0.390
    1   AR   Ar  228   6.200   5.445   0.633
    1   AR   Ar  229   5.915   3.809   0.988
    1   AR   Ar  230   3.813   4.751   3.388
    1   AR   Ar  231   6.910   2.445   3.308
    1   AR   Ar  232   4.638   3.773   1.523
    1   AR   Ar  233   6.203   2.850   4.123
    1   AR   Ar  234   5.902   4.092   5.014
    1   AR   Ar  235   0.285   3.621   4.453
    1   AR   Ar  236   5.253   4.484   3.613
    1   AR   Ar  237   5.500   3.124   4.866
    1   AR   Ar  238   4.952   4.142   5.262
    1   AR   Ar  239   6.719   4.775   8.195
    1   AR   Ar  240   7.009   4.321   5.516
    1   AR   Ar  241   6.537   0.635  -0.378
    1   AR   Ar  242   5.117   5.949   0.747
    1   AR   Ar  243   5.469   3.776   2.093
    1   AR   Ar  244   6.586   5.556  -0.614
    1   AR   Ar  245   5.452   6.340   2.439
    1   AR   Ar  246   6.029   6.397   1.347
    1   AR   Ar  247   5.547   2.954   1.502
    1   AR   Ar  248   5.896   7.007   0.522
    1   AR   Ar  249   5.703   5.354   2.766
    1   AR   Ar  250   5.409   6.276   4.286
    1   AR   Ar  251   5.788   5.042   4.714
    1   AR   Ar  252   6.036   6.003   3.615
    1   AR   Ar  253   5.769   4.817   5.892
    1   AR   Ar  254   5.150   5.641   6.386
    1   AR   Ar  255   5.379   4.797   7.076
    1   AR   Ar  256   6.337   6.259   4.956
    7.12000  7.12000 12.00000
Argon-slab step 1550
  256
    1   AR   Ar    1   6.769   1.115  -1.428
    1   AR   Ar    2   6.428   0.275   1.519
    1   AR   Ar    3   0.289   6.944   0.903
    1   AR   Ar    4   0.533   0.706  -0.084
    1   AR   Ar    5   0.066   5.777   0.782
    1   AR   Ar    6   0.536   0.187   3.019
    1   AR   Ar    7   0.252   5.643   2.254
    1   AR   Ar    8   0.285   6.712   1.951
    1   AR   Ar    9   0.612   0.846   3.751
    1   AR   Ar   10   0.282   1.892   4.213
    1   AR   Ar   11   2.380   7.100   4.642
    1   AR   Ar   12   1.267   1.023   2.811
    1   AR   Ar   13   6.681   1.587   5.455
    1   AR   Ar   14   0.189   1.509   6.236
    1   AR   Ar   15   0.199   6.157   8.465
    1   AR   Ar   16   0.533   1.044   5.065
    1   AR   Ar   17   0.046   1.616  -0.452
    1   AR   Ar   18   6.710   3.496  -0.513
    1   AR   Ar   19   0.671   1.630   1.272
    1   AR   Ar   20   6.901   2.405  -2.298
    1   AR   Ar   21   6.241   1.128   2.272
    1   AR   Ar   22   0.092   2.403   2.112
    1   AR   Ar   23   0.314   0.837   1.950
    1   AR   Ar   24   0.158   2.594   0.936
    1   AR   Ar   25   7.069   1.300   2.982
    1   AR   Ar   26   6.179   1.802   3.731
    1   AR   Ar   27   2.125   1.262   3.417
    1   AR   Ar   28   0.903   2.731   4.491
    1   AR   Ar   29   6.147   1.884   6.398
    1   AR   Ar   30   0.253   2.610   6.052
    1   AR   Ar   31   0.387   0.314   7.366
    1   AR   Ar   32   1.236   2.651   6.067
    1   AR   Ar   33   1.339   4.238  -1.678
    1   AR   Ar   34   1.125   5.464   1.521
    1   AR   Ar   35   0.725   3.727   0.947
    1   AR   Ar   36   0.936   0.154  -1.608
    1   AR   Ar   37   0.903   3.148   1.986
    1   AR   Ar   38   6.933   4.591   2.177
    1   AR   Ar   39   0.737   4.241   2.392
    1   AR   Ar   40   1.761   3.989   1.440
    1   AR   Ar   41   0.978   2.499   3.409
    1   AR   Ar   42   6.624   5.256   5.249
    1   AR   Ar   43   6.571   2.921   5.212
    1   AR   Ar   44   0.480   3.517   3.168
    1   AR   Ar   45   1.004   3.637   5.261
    1   AR   Ar   46   7.015   5.365   6.523
    1   AR   Ar   47   6.721   3.273   6.357
    1   AR   Ar   48   6.810   6.595   6.529
    1   AR   Ar   49   6.451   5.046  -1.489
    1   AR   Ar   50   6.521   5.421   1.630
    1   AR   Ar   51   1.446   4.880   0.656
    1   AR   Ar   52   0.081   4.644  -0.858
    1   AR   Ar   53   6.493   6.317   2.671
    1   AR   Ar   54   0.288   6.161   3.303
    1   AR   Ar   55   6.958   5.293   3.063
    1   AR   Ar   56   1.334   6.457   1.302
    1   AR   Ar   57   6.555   3.465   3.254
    1   AR   Ar   58   6.659   5.298   4.237
    1   AR   Ar   59   2.062   5.837   5.300
    1   AR   Ar   60   1.288   6.536   4.067
    1   AR   Ar   61   6.082   5.911   6.006
    1   AR   Ar   62   0.485   5.731   5.022
    1   AR   Ar   63   1.300   5.629   6.144
    1   AR   Ar   64   1.276   6.852   5.388
    1   AR   Ar   65   3.013   0.166   0.065
    1   AR   Ar   66   1.912   1.200   1.055
    1   AR   Ar   67   3.494   6.268   0.162
    1   AR   Ar   68   3.115   0.752  -0.975
    1   AR   Ar   69   1.817   7.059   0.267
    1   AR   Ar   70   1.272   0.060   2.026
    1   AR   Ar   71   3.246   0.195   1.893
    1   AR   Ar   72   3.779   0.733   0.945
    1   AR   Ar   73   1.881   7.026   3.198
    1   AR   Ar   74   1.423   1.162   4.376
    1   AR   Ar   75   3.424   0.495   4.942
    1   AR   Ar   76   2.027   0.643   2.227
    1   AR   Ar   77   2.438   6.925   5.740
    1   AR   Ar   78   1.086   0.657   6.005
    1   AR   Ar   79   3.862   6.208   6.971
    1   AR   Ar   80   3.182   6.031   5.453
    1   AR   Ar   81   1.548   1.122   0.089
    1   AR   Ar   82   0.629   3.467  -0.118
    1   AR   Ar   83   2.535   2.276   0.763
    1   AR   Ar   84   1.970   4.050  -3.542
    1   AR   Ar   85   1.261   2.530  -0.381
    1   AR   Ar   86   1.745   2.684   1.872
    1   AR   Ar   87   2.486   1.722   1.905
    1   AR   Ar   88   3.403   3.927   1.521
    1   AR   Ar   89   0.917   1.844   2.276
    1   AR   Ar   90   2.777   2.231   4.628
    1   AR   Ar   91   1.916   2.229   4.160
    1   AR   Ar   92   1.837   2.145   2.894
    1   AR   Ar   93   1.709   2.016   5.230
    1   AR   Ar   94   3.055   0.331   7.384
    1   AR   Ar   95   3.523   7.105   5.817
    1   AR   Ar   96   2.616   0.575   6.255
    1   AR   Ar   97   3.908   2.217  -0.527
    1   AR   Ar   98   2.562   4.866   1.613
    1   AR   Ar   99   4.803   2.365  -1.177
    1   AR   Ar  100   1.262   4.433  -0.409
    1   AR   Ar  101   1.385   2.601   0.809
    1   AR   Ar  102   2.739   3.902   3.575
    1   AR   Ar  103   1.924   3.419   0.069
    1   AR   Ar  104   2.873   3.255  -1.348
    1   AR   Ar  105   1.510   3.365   3.656
    1   AR   Ar  106   1.942   3.278   4.709
    1   AR   Ar  107   2.507   3.910   5.413
    1   AR   Ar  108   3.477   2.879   4.362
    1   AR   Ar  109   1.536   4.349   4.507
    1   AR   Ar  110   1.421   4.822   5.504
    1   AR   Ar  111   3.944   4.998   7.205
    1   AR   Ar  112   1.221   5.114   7.159
    1   AR   Ar  113   2.386   4.379   0.577
    1   AR   Ar  114   2.715   6.499   0.766
    1   AR   Ar  115   3.140   5.249  -0.266
    1   AR   Ar  116   4.463   6.464  -0.039
    1   AR   Ar  117   0.975   4.974   3.111
    1   AR   Ar  118   1.288   6.114   2.240
    1   AR   Ar  119   1.900   3.925   2.855
    1   AR   Ar  120   1.735   4.904   2.315
    1   AR   Ar  121   6.368   4.344   3.893
    1   AR   Ar  122   2.748   6.013   4.574
    1   AR   Ar  123   2.476   4.851   4.553
    1   AR   Ar  124   2.190   5.830   3.641
    1   AR   Ar  125   0.550   4.612   4.787
    1   AR   Ar  126   0.692   6.425   6.070
    1   AR   Ar  127   3.023   5.508   7.055
    1   AR   Ar  128   2.496   6.071   6.324
    1   AR   Ar  129   2.263   0.207   1.311
    1   AR   Ar  130   4.485   1.067  -1.546
    1   AR   Ar  131   4.373   6.719   1.059
    1   AR   Ar  132   6.528   2.028  -1.137
    1   AR   Ar  133   3.602   0.046   2.954
    1   AR   Ar  134   4.030   1.682   2.830
    1   AR   Ar  135   4.708   0.399   3.147
    1   AR   Ar  136   4.195   0.877   2.307
    1   AR   Ar  137   3.020   6.581   3.760
    1   AR   Ar  138   4.875   1.299   5.101
    1   AR   Ar  139   5.633   1.012   4.475
    1   AR   Ar  140   4.281   1.035   3.959
    1   AR   Ar  141   4.076   6.819   4.180
    1   AR   Ar  142   4.649   7.080   5.550
    1   AR   Ar  143   5.786   6.931   5.756
    1   AR   Ar  144   5.472   0.704   6.723
    1   AR   Ar  145   2.846   3.198   0.376
    1   AR   Ar  146   4.250   2.770   1.713
    1   AR   Ar  147   5.524   2.025  -0.095
    1   AR   Ar  148   5.775   3.476  -2.556
    1   AR   Ar  149   4.094   1.694   0.515
    1   AR   Ar  150   2.907   1.598   2.831
    1   AR   Ar  151   3.860   1.977   3.828
    1   AR   Ar  152   2.727   3.030   1.779
    1   AR   Ar  153   2.996   1.140   3.934
    1   AR   Ar  154   3.694   1.654   4.776
    1   AR   Ar  155   5.681   0.802   5.638
    1   AR   Ar  156   3.805   3.715   3.637
    1   AR   Ar  157   3.556   2.118   5.696
    1   AR   Ar  158   1.648   1.561   6.530
    1   AR   Ar  159   4.524   0.652   6.223
    1   AR   Ar  160   3.997   3.201   7.012
    1   AR   Ar  161   4.851   2.590   0.565
    1   AR   Ar  162   4.503   5.244  -0.131
    1   AR   Ar  163   5.483   3.235   0.095
    1   AR   Ar  164   4.434   5.377   1.601
    1   AR   Ar  165   3.002   3.693   2.508
    1   AR   Ar  166   2.852   5.201   3.052
    1   AR   Ar  167   4.840   2.226   2.500
    1   AR   Ar  168   3.789   4.112  -0.101
    1   AR   Ar  169   2.884   2.595   3.523
    1   AR   Ar  170   3.231   3.991   4.660
    1   AR   Ar  171   4.218   3.419   4.862
    1   AR   Ar  172   4.404   5.000   4.319
    1   AR   Ar  173   2.440   2.846   6.376
    1   AR   Ar  174   4.375   4.669   5.942
    1   AR   Ar  175   4.502   3.589   6.069
    1   AR   Ar  176   3.500   5.296   4.889
    1   AR   Ar  177   5.429   5.804  -0.210
    1   AR   Ar  178   3.246   6.354   1.601
    1   AR   Ar  179   3.574   5.242   0.770
    1   AR   Ar  180   3.904   3.771  -1.495
    1   AR   Ar  181   3.272   5.547   2.189
    1   AR   Ar  182   2.286   6.515   2.160
    1   AR   Ar  183   3.456   4.574   2.285
    1   AR   Ar  184   4.421   6.413   2.119
    1   AR   Ar  185   1.347   5.335   4.189
    1   AR   Ar  186   3.291   5.538   3.884
    1   AR   Ar  187   4.631   5.374   3.403
    1   AR   Ar  188   3.545   6.096   3.038
    1   AR   Ar  189   2.648   4.986   5.556
    1   AR   Ar  190   4.420   5.892   5.751
    1   AR   Ar  191   5.286   6.072   5.349
    1   AR   Ar  192   4.141   6.070   4.792
    1   AR   Ar  193   6.234   6.549  -0.445
    1   AR   Ar  194   5.353   6.183  -1.299
    1   AR   Ar  195   5.840   1.029   0.185
    1   AR   Ar  196   5.761   0.971  -1.867
    1   AR   Ar  197   5.105   0.535   1.070
    1   AR   Ar  198   5.893   1.736   1.076
    1   AR   Ar  199   5.322   0.231   2.283
    1   AR   Ar  200   6.845   1.090   0.667
    1   AR   Ar  201   4.952   6.447   3.415
    1   AR   Ar  202   5.340   2.218   4.255
    1   AR   Ar  203   0.343   6.815   4.271
    1   AR   Ar  204   5.599   0.145   3.832
    1   AR   Ar  205   6.604   7.077   3.435
    1   AR   Ar  206   5.477   0.026   4.816
    1   AR   Ar  207   0.099   0.317   5.835
    1   AR   Ar  208   6.578   0.862   4.183
    1   AR   Ar  209   5.467   2.281  -2.216
    1   AR   Ar  210   4.786   1.587   1.284
    1   AR   Ar  211   6.214   2.603   0.667
    1   AR   Ar  212   6.144   4.081  -1.280
    1   AR   Ar  213   3.363   2.653   2.659
    1   AR   Ar  214   4.320   3.365   2.806
    1   AR   Ar  215   5.964   2.286   2.405
    1   AR   Ar  216   6.757   3.362   2.122
    1   AR   Ar  217   4.494   2.864   4.029
    1   AR   Ar  218   4.539   2.493   5.299
    1   AR   Ar  219   5.311   1.218   3.054
    1   AR   Ar  220   5.447   3.231   3.053
    1   AR   Ar  221   6.657   0.151   5.002
    1   AR   Ar  222   4.941   1.583   6.125
    1   AR   Ar  223   6.422   0.820   6.462
    1   AR   Ar  224   5.527   2.166   5.323
    1   AR   Ar  225   5.374   4.718   0.363
    1   AR   Ar  226   4.695   4.354   2.656
    1   AR   Ar  227   7.045   4.571   0.379
    1   AR   Ar  228   6.186   5.442   0.615
    1   AR   Ar  229   5.909   3.806   1.007
    1   AR   Ar  230   3.823   4.775   3.371
    1   AR   Ar  231   6.901   2.443   3.345
    1   AR   Ar  232   4.657   3.754   1.513
    1   AR   Ar  233   6.175   2.850   4.115
    1   AR   Ar  234   5.958   4.048   5.010
    1   AR   Ar  235   0.295   3.652   4.471
    1   AR   Ar  236   5.260   4.477   3.598
    1   AR   Ar  237   5.495   3.121   4.863
    1   AR   Ar  238   4.936   4.148   5.291
    1   AR   Ar  239   6.699   4.755   8.226
    1   AR   Ar  240   7.034   4.299   5.473
    1   AR   Ar  241   6.521   0.626  -0.345
    1   AR   Ar  242   5.134   5.951   0.736
    1   AR   Ar  243   5.461   3.789   2.062
    1   AR   Ar  244   6.605   5.564  -0.634
    1   AR   Ar  245   5.444   6.369   2.435
    1   AR   Ar  246   6.034   6.374   1.319
    1   AR   Ar  247   5.567   2.924   1.480
    1   AR   Ar  248   5.909   7.011   0.497
    1   AR   Ar  249   5.697   5.344   2.758
    1   AR   Ar  250   5.392   6.265   4.311
    1   AR   Ar  251   5.790   5.045   4.707
    1   AR   Ar  252   6.032   5.971   3.627
    1   AR   Ar  253   5.774   4.827   5.883
    1   AR   Ar  254   5.137   5.625   6.395
    1   AR   Ar  255   5.379   4.780   7.121
    1   AR   Ar  256   6.342   6.268   4.952
    7.12000  7.12000 12.00000
Argon-slab step 1555
  256
    1   AR   Ar    1   6.725   1.123  -1.432
    1   AR   Ar    2   6.418   0.300   1.522
    1   AR   Ar    3   0.254   6.976   0.915
    1   AR   Ar    4   0.526   0.692  -0.066
    1   AR   Ar    5   0.039   5.785   0.770
    1   AR   Ar    6   0.534   0.202   3.016
    1   AR   Ar    7   0.253   5.649   2.276
    1   AR   Ar    8   0.264   6.738   1.934
    1   AR   Ar    9   0.571   0.862   3.790
    1   AR   Ar   10   0.275   1.890   4.210
    1   AR   Ar   11   2.365   7.109   4.634
    1   AR   Ar   12   1.265   1.007   2.799
    1   AR   Ar   13   6.648   1.573   5.450
    1   AR   Ar   14   0.189   1.496   6.260
    1   AR   Ar   15   0.227   6.155   8.462
    1   AR   Ar   16   0.544   1.062   5.101
    1   AR   Ar   17   0.042   1.603  -0.444
    1   AR   Ar   18   6.684   3.467  -0.545
    1   AR   Ar   19   0.685   1.650   1.311
    1   AR   Ar   20   6.874   2.388  -2.319
    1   AR   Ar   21   6.237   1.117   2.274
    1   AR   Ar   22   0.072   2.415   2.122
    1   AR   Ar   23   0.301   0.823   1.948
    1   AR   Ar   24   0.151   2.574   0.937
    1   AR   Ar   25   7.064   1.312   2.985
    1   AR   Ar   26   6.211   1.802   3.716
    1   AR   Ar   27   2.096   1.255   3.401
    1   AR   Ar   28   0.900   2.725   4.508
    1   AR   Ar   29   6.167   1.876   6.411
    1   AR   Ar   30   0.238   2.622   6.052
    1   AR   Ar   31   0.381   0.290   7.330
    1   AR   Ar   32   1.227   2.644   6.061
    1   AR   Ar   33   1.337   4.235  -1.676
    1   AR   Ar   34   1.124   5.465   1.510
    1   AR   Ar   35   0.685   3.726   0.898
    1   AR   Ar   36   0.906   0.148  -1.598
    1   AR   Ar   37   0.882   3.136   1.995
    1   AR   Ar   38   6.918   4.616   2.199
    1   AR   Ar   39   0.725   4.244   2.390
    1   AR   Ar   40   1.796   3.971   1.427
    1   AR   Ar   41   0.954   2.502   3.421
    1   AR   Ar   42   6.627   5.253   5.250
    1   AR   Ar   43   6.577   2.902   5.212
    1   AR   Ar   44   0.468   3.526   3.175
    1   AR   Ar   45   1.029   3.614   5.233
    1   AR   Ar   46   7.016   5.360   6.487
    1   AR   Ar   47   6.684   3.284   6.305
    1   AR   Ar   48   6.821   6.612   6.555
    1   AR   Ar   49   6.454   5.061  -1.468
    1   AR   Ar   50   6.495   5.409   1.647
    1   AR   Ar   51   1.473   4.887   0.667
    1   AR   Ar   52   0.091   4.642  -0.886
    1   AR   Ar   53   6.473   6.328   2.631
    1   AR   Ar   54   0.302   6.165   3.288
    1   AR   Ar   55   6.962   5.284   3.084
    1   AR   Ar   56   1.346   6.466   1.343
    1   AR   Ar   57   6.575   3.442   3.252
    1   AR   Ar   58   6.630   5.312   4.225
    1   AR   Ar   59   2.086   5.842   5.319
    1   AR   Ar   60   1.285   6.534   4.085
    1   AR   Ar   61   6.064   5.901   6.001
    1   AR   Ar   62   0.472   5.686   5.017
    1   AR   Ar   63   1.314   5.647   6.150
    1   AR   Ar   64   1.274   6.874   5.348
    1   AR   Ar   65   3.008   0.191   0.045
    1   AR   Ar   66   1.924   1.191   1.091
    1   AR   Ar   67   3.460   6.255   0.139
    1   AR   Ar   68   3.127   0.746  -0.972
    1   AR   Ar   69   1.812   7.086   0.271
    1   AR   Ar   70   1.227   0.084   2.048
    1   AR   Ar   71   3.248   0.210   1.914
    1   AR   Ar   72   3.772   0.726   0.945
    1   AR   Ar   73   1.876   7.060   3.188
    1   AR   Ar   74   1.426   1.201   4.378
    1   AR   Ar   75   3.430   0.501   4.922
    1   AR   Ar   76   2.003   0.687   2.224
    1   AR   Ar   77   2.436   6.869   5.733
    1   AR   Ar   78   1.098   0.685   6.049
    1   AR   Ar   79   3.844   6.198   6.983
    1   AR   Ar   80   3.193   6.038   5.459
    1   AR   Ar   81   1.563   1.118   0.075
    1   AR   Ar   82   0.623   3.481  -0.099
    1   AR   Ar   83   2.554   2.291   0.714
    1   AR   Ar   84   1.948   4.066  -3.530
    1   AR   Ar   85   1.249   2.549  -0.418
    1   AR   Ar   86   1.762   2.688   1.870
    1   AR   Ar   87   2.501   1.697   1.903
    1   AR   Ar   88   3.392   3.974   1.512
    1   AR   Ar   89   0.885   1.834   2.319
    1   AR   Ar   90   2.806   2.183   4.641
    1   AR   Ar   91   1.882   2.231   4.146
    1   AR   Ar   92   1.855   2.158   2.884
    1   AR   Ar   93   1.707   2.033   5.238
    1   AR   Ar   94   3.048   0.357   7.356
    1   AR   Ar   95   3.512   7.110   5.808
    1   AR   Ar   96   2.581   0.625   6.264
    1   AR   Ar   97   3.877   2.202  -0.537
    1   AR   Ar   98   2.561   4.842   1.615
    1   AR   Ar   99   4.855   2.350  -1.182
    1   AR   Ar  100   1.251   4.440  -0.435
    1   AR   Ar  101   1.399   2.599   0.813
    1   AR   Ar  102   2.740   3.886   3.586
    1   AR   Ar  103   1.908   3.427   0.091
    1   AR   Ar  104   2.852   3.294  -1.369
    1   AR   Ar  105   1.500   3.331   3.664
    1   AR   Ar  106   1.927   3.286   4.717
    1   AR   Ar  107   2.509   3.908   5.420
    1   AR   Ar  108   3.463   2.881   4.360
    1   AR   Ar  109   1.523   4.344   4.470
    1   AR   Ar  110   1.422   4.819   5.484
    1   AR   Ar  111   3.923   4.982   7.218
    1   AR   Ar  112   1.188   5.109   7.196
    1   AR   Ar  113   2.375   4.399   0.571
    1   AR   Ar  114   2.704   6.523   0.746
    1   AR   Ar  115   3.168   5.262  -0.277
    1   AR   Ar  116   4.445   6.422  -0.036
    1   AR   Ar  117   0.977   4.972   3.075
    1   AR   Ar  118   1.279   6.127   2.284
    1   AR   Ar  119   1.914   3.908   2.848
    1   AR   Ar  120   1.697   4.921   2.327
    1   AR   Ar  121   6.410   4.325   3.913
    1   AR   Ar  122   2.729   6.016   4.562
    1   AR   Ar  123   2.484   4.872   4.543
    1   AR   Ar  124   2.174   5.828   3.630
    1   AR   Ar  125   0.543   4.616   4.767
    1   AR   Ar  126   0.678   6.474   6.073
    1   AR   Ar  127   3.034   5.523   7.031
    1   AR   Ar  128   2.481   6.034   6.323
    1   AR   Ar  129   2.272   0.206   1.301
    1   AR   Ar  130   4.462   1.063  -1.551
    1   AR   Ar  131   4.371   6.722   1.062
    1   AR   Ar  132   6.480   2.041  -1.115
    1   AR   Ar  133   3.594   0.050   2.916
    1   AR   Ar  134   4.020   1.706   2.788
    1   AR   Ar  135   4.734   0.421   3.140
    1   AR   Ar  136   4.202   0.851   2.296
    1   AR   Ar  137   3.006   6.557   3.780
    1   AR   Ar  138   4.882   1.301   5.136
    1   AR   Ar  139   5.638   1.004   4.486
    1   AR   Ar  140   4.284   1.004   3.954
    1   AR   Ar  141   4.053   6.854   4.132
    1   AR   Ar  142   4.634   7.077   5.521
    1   AR   Ar  143   5.792   6.899   5.770
    1   AR   Ar  144   5.486   0.703   6.710
    1   AR   Ar  145   2.864   3.203   0.407
    1   AR   Ar  146   4.251   2.760   1.726
    1   AR   Ar  147   5.521   1.997  -0.110
    1   AR   Ar  148   5.814   3.484  -2.570
    1   AR   Ar  149   4.075   1.709   0.508
    1   AR   Ar  150   2.907   1.590   2.835
    1   AR   Ar  151   3.866   1.998   3.832
    1   AR   Ar  152   2.735   3.039   1.784
    1   AR   Ar  153   3.025   1.170   3.925
    1   AR   Ar  154   3.689   1.654   4.763
    1   AR   Ar  155   5.680   0.818   5.637
    1   AR   Ar  156   3.826   3.734   3.613
    1   AR   Ar  157   3.536   2.112   5.669
    1   AR   Ar  158   1.660   1.517   6.536
    1   AR   Ar  159   4.522   0.645   6.223
    1   AR   Ar  160   3.987   3.206   6.997
    1   AR   Ar  161   4.866   2.546   0.581
    1   AR   Ar  162   4.510   5.289  -0.117
    1   AR   Ar  163   5.481   3.256   0.116
    1   AR   Ar  164   4.421   5.366   1.597
    1   AR   Ar  165   3.011   3.723   2.517
    1   AR   Ar  166   2.825   5.202   3.057
    1   AR   Ar  167   4.822   2.240   2.500
    1   AR   Ar  168   3.797   4.090  -0.126
    1   AR   Ar  169   2.898   2.597   3.531
    1   AR   Ar  170   3.210   3.987   4.633
    1   AR   Ar  171   4.250   3.400   4.864
    1   AR   Ar  172   4.424   5.010   4.299
    1   AR   Ar  173   2.446   2.852   6.382
    1   AR   Ar  174   4.370   4.657   5.973
    1   AR   Ar  175   4.494   3.564   6.075
    1   AR   Ar  176   3.498   5.305   4.880
    1   AR   Ar  177   5.456   5.796  -0.210
    1   AR   Ar  178   3.242   6.355   1.585
    1   AR   Ar  179   3.544   5.229   0.767
    1   AR   Ar  180   3.904   3.752  -1.500
    1   AR   Ar  181   3.235   5.555   2.210
    1   AR   Ar  182   2.248   6.523   2.161
    1   AR   Ar  183   3.422   4.605   2.301
    1   AR   Ar  184   4.434   6.401   2.124
    1   AR   Ar  185   1.336   5.325   4.222
    1   AR   Ar  186   3.303   5.572   3.886
    1   AR   Ar  187   4.613   5.404   3.404
    1   AR   Ar  188   3.537   6.056   3.031
    1   AR   Ar  189   2.651   4.969   5.556
    1   AR   Ar  190   4.408   5.897   5.716
    1   AR   Ar  191   5.310   6.078   5.361
    1   AR   Ar  192   4.161   6.069   4.809
    1   AR   Ar  193   6.243   6.542  -0.452
    1   AR   Ar  194   5.354   6.180  -1.308
    1   AR   Ar  195   5.845   1.022   0.157
    1   AR   Ar  196   5.749   0.966  -1.878
    1   AR   Ar  197   5.117   0.548   1.105
    1   AR   Ar  198   5.871   1.737   1.044
    1   AR   Ar  199   5.290   0.256   2.266
    1   AR   Ar  200   6.842   1.076   0.680
    1   AR   Ar  201   4.949   6.463   3.420
    1   AR   Ar  202   5.304   2.193   4.248
    1   AR   Ar  203   0.305   6.803   4.242
    1   AR   Ar  204   5.597   0.169   3.825
    1   AR   Ar  205   6.641   7.064   3.444
    1   AR   Ar  206   5.476   0.079   4.828
    1   AR   Ar  207   0.091   0.324   5.852
    1   AR   Ar  208   6.604   0.856   4.173
    1   AR   Ar  209   5.409   2.269  -2.210
    1   AR   Ar  210   4.785   1.576   1.291
    1   AR   Ar  211   6.189   2.622   0.681
    1   AR   Ar  212   6.160   4.099  -1.306
    1   AR   Ar  213   3.405   2.666   2.637
    1   AR   Ar  214   4.304   3.358   2.798
    1   AR   Ar  215   5.968   2.316   2.412
    1   AR   Ar  216   6.748   3.360   2.141
    1   AR   Ar  217   4.487   2.867   4.047
    1   AR   Ar  218   4.528   2.495   5.299
    1   AR   Ar  219   5.350   1.215   3.070
    1   AR   Ar  220   5.440   3.228   3.011
    1   AR   Ar  221   6.651   0.152   4.993
    1   AR   Ar  222   4.957   1.614   6.138
    1   AR   Ar  223   6.430   0.807   6.497
    1   AR   Ar  224   5.540   2.171   5.367
    1   AR   Ar  225   5.351   4.725   0.381
    1   AR   Ar  226   4.690   4.317   2.640
    1   AR   Ar  227   7.045   4.590   0.367
    1   AR   Ar  228   6.170   5.440   0.594
    1   AR   Ar  229   5.893   3.823   1.025
    1   AR   Ar  230   3.827   4.792   3.351
    1   AR   Ar  231   6.897   2.442   3.379
    1   AR   Ar  232   4.664   3.736   1.496
    1   AR   Ar  233   6.146   2.850   4.099
    1   AR   Ar  234   6.020   4.004   5.007
    1   AR   Ar  235   0.300   3.679   4.485
    1   AR   Ar  236   5.268   4.470   3.583
    1   AR   Ar  237   5.485   3.120   4.862
    1   AR   Ar  238   4.925   4.153   5.311
    1   AR   Ar  239   6.680   4.735   8.256
    1   AR   Ar  240   7.052   4.271   5.438
    1   AR   Ar  241   6.522   0.607  -0.324
    1   AR   Ar  242   5.149   5.953   0.733
    1   AR   Ar  243   5.462   3.807   2.034
    1   AR   Ar  244   6.635   5.574  -0.647
    1   AR   Ar  245   5.439   6.389   2.431
    1   AR   Ar  246   6.039   6.348   1.293
    1   AR   Ar  247   5.583   2.887   1.459
    1   AR   Ar  248   5.921   7.019   0.470
    1   AR   Ar  249   5.697   5.339   2.740
    1   AR   Ar  250   5.369   6.250   4.345
    1   AR   Ar  251   5.780   5.050   4.699
    1   AR   Ar  252   6.036   5.937   3.630
    1   AR   Ar  253   5.779   4.838   5.874
    1   AR   Ar  254   5.127   5.606   6.410
    1   AR   Ar  255   5.378   4.763   7.165
    1   AR   Ar  256   6.344   6.275   4.947
    7.12000  7.12000 12.00000
Argon-slab step 1560
  256
    1   AR   Ar    1   6.709   1.128  -1.429
    1   AR   Ar    2   6.407   0.325   1.525
    1   AR   Ar    3   0.218   7.010   0.924
    1   AR   Ar    4   0.519   0.677  -0.048
    1   AR   Ar    5   0.038   5.784   0.754
    1   AR   Ar    6   0.530   0.212   3.007
    1   AR   Ar    7   0.262   5.660   2.286
    1   AR   Ar    8   0.242   6.763   1.921
    1   AR   Ar    9   0.530   0.882   3.833
    1   AR   Ar   10   0.268   1.886   4.207
    1   AR   Ar   11   2.350   7.117   4.626
    1   AR   Ar   12   1.252   0.989   2.794
    1   AR   Ar   13   6.612   1.558   5.442
    1   AR   Ar   14   0.191   1.481   6.286
    1   AR   Ar   15   0.264   6.152   8.462
    1   AR   Ar   16   0.554   1.081   5.137
    1   AR   Ar   17   0.041   1.593  -0.439
    1   AR   Ar   18   6.659   3.439  -0.576
    1   AR   Ar   19   0.699   1.670   1.345
    1   AR   Ar   20   6.845   2.371  -2.339
    1   AR   Ar   21   6.231   1.106   2.277
    1   AR   Ar   22   0.070   2.435   2.133
    1   AR   Ar   23   0.288   0.808   1.948
    1   AR   Ar   24   0.147   2.555   0.938
    1   AR   Ar   25   7.060   1.325   2.989
    1   AR   Ar   26   6.235   1.793   3.704
    1   AR   Ar   27   2.064   1.245   3.390
    1   AR   Ar   28   0.900   2.719   4.526
    1   AR   Ar   29   6.185   1.868   6.422
    1   AR   Ar   30   0.231   2.621   6.046
    1   AR   Ar   31   0.375   0.265   7.291
    1   AR   Ar   32   1.230   2.636   6.053
    1   AR   Ar   33   1.334   4.231  -1.673
    1   AR   Ar   34   1.116   5.462   1.497
    1   AR   Ar   35   0.646   3.725   0.856
    1   AR   Ar   36   0.875   0.142  -1.588
    1   AR   Ar   37   0.853   3.131   2.006
    1   AR   Ar   38   6.898   4.641   2.221
    1   AR   Ar   39   0.730   4.251   2.384
    1   AR   Ar   40   1.830   3.953   1.415
    1   AR   Ar   41   0.926   2.499   3.432
    1   AR   Ar   42   6.633   5.250   5.260
    1   AR   Ar   43   6.582   2.884   5.212
    1   AR   Ar   44   0.462   3.533   3.183
    1   AR   Ar   45   1.056   3.591   5.208
    1   AR   Ar   46   7.016   5.357   6.450
    1   AR   Ar   47   6.637   3.305   6.254
    1   AR   Ar   48   6.831   6.631   6.579
    1   AR   Ar   49   6.454   5.078  -1.459
    1   AR   Ar   50   6.468   5.400   1.663
    1   AR   Ar   51   1.496   4.894   0.678
    1   AR   Ar   52   0.115   4.623  -0.880
    1   AR   Ar   53   6.456   6.336   2.592
    1   AR   Ar   54   0.320   6.176   3.273
    1   AR   Ar   55   6.955   5.263   3.116
    1   AR   Ar   56   1.360   6.480   1.371
    1   AR   Ar   57   6.587   3.420   3.249
    1   AR   Ar   58   6.611   5.330   4.207
    1   AR   Ar   59   2.102   5.846   5.342
    1   AR   Ar   60   1.288   6.529   4.103
    1   AR   Ar   61   6.057   5.889   6.000
    1   AR   Ar   62   0.461   5.643   5.011
    1   AR   Ar   63   1.331   5.665   6.158
    1   AR   Ar   64   1.277   6.897   5.302
    1   AR   Ar   65   3.003   0.217   0.025
    1   AR   Ar   66   1.930   1.160   1.097
    1   AR   Ar   67   3.426   6.237   0.113
    1   AR   Ar   68   3.137   0.740  -0.975
    1   AR   Ar   69   1.808   7.113   0.276
    1   AR   Ar   70   1.175   0.108   2.073
    1   AR   Ar   71   3.249   0.230   1.933
    1   AR   Ar   72   3.766   0.718   0.947
    1   AR   Ar   73   1.871   7.094   3.177
    1   AR   Ar   74   1.430   1.242   4.380
    1   AR   Ar   75   3.437   0.509   4.896
    1   AR   Ar   76   1.995   0.733   2.218
    1   AR   Ar   77   2.431   6.811   5.719
    1   AR   Ar   78   1.109   0.712   6.092
    1   AR   Ar   79   3.828   6.189   6.993
    1   AR   Ar   80   3.205   6.056   5.479
    1   AR   Ar   81   1.577   1.114   0.060
    1   AR   Ar   82   0.617   3.495  -0.085
    1   AR   Ar   83   2.568   2.299   0.669
    1   AR   Ar   84   1.926   4.082  -3.519
    1   AR   Ar   85   1.237   2.570  -0.452
    1   AR   Ar   86   1.799   2.681   1.860
    1   AR   Ar   87   2.510   1.686   1.897
    1   AR   Ar   88   3.376   4.037   1.490
    1   AR   Ar   89   0.858   1.825   2.365
    1   AR   Ar   90   2.822   2.141   4.660
    1   AR   Ar   91   1.845   2.235   4.127
    1   AR   Ar   92   1.874   2.172   2.872
    1   AR   Ar   93   1.704   2.050   5.245
    1   AR   Ar   94   3.042   0.384   7.328
    1   AR   Ar   95   3.508   7.110   5.799
    1   AR   Ar   96   2.548   0.680   6.275
    1   AR   Ar   97   3.847   2.186  -0.546
    1   AR   Ar   98   2.560   4.817   1.616
    1   AR   Ar   99   4.908   2.334  -1.185
    1   AR   Ar  100   1.239   4.446  -0.460
    1   AR   Ar  101   1.412   2.598   0.817
    1   AR   Ar  102   2.740   3.870   3.598
    1   AR   Ar  103   1.885   3.435   0.111
    1   AR   Ar  104   2.832   3.334  -1.390
    1   AR   Ar  105   1.494   3.302   3.677
    1   AR   Ar  106   1.914   3.292   4.724
    1   AR   Ar  107   2.469   3.937   5.424
    1   AR   Ar  108   3.453   2.891   4.357
    1   AR   Ar  109   1.512   4.330   4.433
    1   AR   Ar  110   1.424   4.814   5.461
    1   AR   Ar  111   3.905   4.964   7.231
    1   AR   Ar  112   1.178   5.102   7.193
    1   AR   Ar  113   2.370   4.415   0.564
    1   AR   Ar  114   2.682   6.547   0.724
    1   AR   Ar  115   3.197   5.275  -0.287
    1   AR   Ar  116   4.434   6.380  -0.033
    1   AR   Ar  117   0.976   4.974   3.046
    1   AR   Ar  118   1.266   6.138   2.342
    1   AR   Ar  119   1.927   3.893   2.839
    1   AR   Ar  120   1.663   4.937   2.336
    1   AR   Ar  121   6.451   4.303   3.933
    1   AR   Ar  122   2.706   6.021   4.548
    1   AR   Ar  123   2.492   4.893   4.526
    1   AR   Ar  124   2.157   5.827   3.619
    1   AR   Ar  125   0.544   4.634   4.739
    1   AR   Ar  126   0.659   6.523   6.079
    1   AR   Ar  127   3.006   5.521   7.034
    1   AR   Ar  128   2.464   5.994   6.322
    1   AR   Ar  129   2.276   0.196   1.297
    1   AR   Ar  130   4.439   1.059  -1.556
    1   AR   Ar  131   4.369   6.725   1.064
    1   AR   Ar  132   6.427   2.065  -1.092
    1   AR   Ar  133   3.588   0.054   2.882
    1   AR   Ar  134   4.002   1.732   2.753
    1   AR   Ar  135   4.752   0.435   3.137
    1   AR   Ar  136   4.210   0.817   2.278
    1   AR   Ar  137   2.992   6.546   3.793
    1   AR   Ar  138   4.872   1.307   5.156
    1   AR   Ar  139   5.642   1.008   4.494
    1   AR   Ar  140   4.287   0.972   3.951
    1   AR   Ar  141   4.029   6.893   4.081
    1   AR   Ar  142   4.621   7.064   5.482
    1   AR   Ar  143   5.801   6.869   5.789
    1   AR   Ar  144   5.487   0.700   6.700
    1   AR   Ar  145   2.889   3.215   0.439
    1   AR   Ar  146   4.252   2.748   1.739
    1   AR   Ar  147   5.519   1.972  -0.126
    1   AR   Ar  148   5.853   3.491  -2.583
    1   AR   Ar  149   4.055   1.725   0.500
    1   AR   Ar  150   2.913   1.585   2.843
    1   AR   Ar  151   3.868   2.013   3.830
    1   AR   Ar  152   2.772   3.069   1.785
    1   AR   Ar  153   3.056   1.200   3.917
    1   AR   Ar  154   3.717   1.647   4.761
    1   AR   Ar  155   5.681   0.837   5.636
    1   AR   Ar  156   3.845   3.753   3.595
    1   AR   Ar  157   3.515   2.110   5.645
    1   AR   Ar  158   1.672   1.473   6.542
    1   AR   Ar  159   4.516   0.644   6.228
    1   AR   Ar  160   3.977   3.211   6.982
    1   AR   Ar  161   4.879   2.498   0.601
    1   AR   Ar  162   4.499   5.314  -0.120
    1   AR   Ar  163   5.504   3.263   0.122
    1   AR   Ar  164   4.406   5.357   1.594
    1   AR   Ar  165   3.022   3.741   2.523
    1   AR   Ar  166   2.791   5.195   3.064
    1   AR   Ar  167   4.812   2.258   2.498
    1   AR   Ar  168   3.805   4.069  -0.151
    1   AR   Ar  169   2.907   2.596   3.542
    1   AR   Ar  170   3.191   3.984   4.603
    1   AR   Ar  171   4.279   3.391   4.872
    1   AR   Ar  172   4.442   5.017   4.289
    1   AR   Ar  173   2.462   2.872   6.408
    1   AR   Ar  174   4.360   4.653   6.010
    1   AR   Ar  175   4.486   3.537   6.080
    1   AR   Ar  176   3.509   5.295   4.869
    1   AR   Ar  177   5.451   5.792  -0.211
    1   AR   Ar  178   3.244   6.355   1.568
    1   AR   Ar  179   3.515   5.217   0.766
    1   AR   Ar  180   3.907   3.739  -1.506
    1   AR   Ar  181   3.197   5.571   2.219
    1   AR   Ar  182   2.214   6.534   2.161
    1   AR   Ar  183   3.398   4.635   2.322
    1   AR   Ar  184   4.443   6.390   2.130
    1   AR   Ar  185   1.324   5.320   4.256
    1   AR   Ar  186   3.323   5.597   3.890
    1   AR   Ar  187   4.606   5.444   3.396
    1   AR   Ar  188   3.536   6.021   3.021
    1   AR   Ar  189   2.655   4.954   5.561
    1   AR   Ar  190   4.386   5.898   5.702
    1   AR   Ar  191   5.336   6.083   5.366
    1   AR   Ar  192   4.182   6.074   4.807
    1   AR   Ar  193   6.250   6.538  -0.459
    1   AR   Ar  194   5.372   6.171  -1.325
    1   AR   Ar  195   5.851   1.034   0.148
    1   AR   Ar  196   5.754   0.974  -1.868
    1   AR   Ar  197   5.131   0.560   1.139
    1   AR   Ar  198   5.848   1.731   1.015
    1   AR   Ar  199   5.258   0.288   2.244
    1   AR   Ar  200   6.839   1.063   0.694
    1   AR   Ar  201   4.944   6.480   3.420
    1   AR   Ar  202   5.266   2.165   4.243
    1   AR   Ar  203   0.260   6.794   4.214
    1   AR   Ar  204   5.596   0.192   3.810
    1   AR   Ar  205   6.678   7.051   3.455
    1   AR   Ar  206   5.473   0.125   4.847
    1   AR   Ar  207   0.084   0.332   5.871
    1   AR   Ar  208   6.636   0.849   4.160
    1   AR   Ar  209   5.352   2.256  -2.204
    1   AR   Ar  210   4.784   1.566   1.300
    1   AR   Ar  211   6.169   2.647   0.687
    1   AR   Ar  212   6.176   4.111  -1.331
    1   AR   Ar  213   3.452   2.679   2.610
    1   AR   Ar  214   4.290   3.345   2.783
    1   AR   Ar  215   5.992   2.304   2.407
    1   AR   Ar  216   6.737   3.362   2.160
    1   AR   Ar  217   4.492   2.863   4.059
    1   AR   Ar  218   4.532   2.506   5.297
    1   AR   Ar  219   5.394   1.218   3.085
    1   AR   Ar  220   5.432   3.224   2.969
    1   AR   Ar  221   6.669   0.151   4.982
    1   AR   Ar  222   4.976   1.648   6.154
    1   AR   Ar  223   6.453   0.794   6.526
    1   AR   Ar  224   5.558   2.173   5.411
    1   AR   Ar  225   5.344   4.710   0.384
    1   AR   Ar  226   4.685   4.283   2.625
    1   AR   Ar  227   7.045   4.610   0.355
    1   AR   Ar  228   6.152   5.438   0.571
    1   AR   Ar  229   5.872   3.852   1.042
    1   AR   Ar  230   3.826   4.801   3.331
    1   AR   Ar  231   6.902   2.444   3.408
    1   AR   Ar  232   4.658   3.717   1.469
    1   AR   Ar  233   6.120   2.852   4.081
    1   AR   Ar  234   6.085   3.964   5.004
    1   AR   Ar  235   0.300   3.699   4.494
    1   AR   Ar  236   5.276   4.464   3.570
    1   AR   Ar  237   5.468   3.118   4.863
    1   AR   Ar  238   4.922   4.156   5.323
    1   AR   Ar  239   6.661   4.716   8.285
    1   AR   Ar  240   7.060   4.234   5.413
    1   AR   Ar  241   6.546   0.575  -0.319
    1   AR   Ar  242   5.161   5.956   0.739
    1   AR   Ar  243   5.478   3.827   2.017
    1   AR   Ar  244   6.667   5.588  -0.648
    1   AR   Ar  245   5.435   6.402   2.428
    1   AR   Ar  246   6.044   6.321   1.270
    1   AR   Ar  247   5.595   2.849   1.444
    1   AR   Ar  248   5.932   7.030   0.444
    1   AR   Ar  249   5.705   5.341   2.709
    1   AR   Ar  250   5.343   6.235   4.382
    1   AR   Ar  251   5.760   5.061   4.693
    1   AR   Ar  252   6.043   5.903   3.626
    1   AR   Ar  253   5.782   4.847   5.862
    1   AR   Ar  254   5.118   5.584   6.428
    1   AR   Ar  255   5.377   4.746   7.206
    1   AR   Ar  256   6.344   6.279   4.940
    7.12000  7.12000 12.00000
Argon-slab step 1565
  256
    1   AR   Ar    1   6.732   1.139  -1.412
    1   AR   Ar    2   6.397   0.348   1.526
    1   AR   Ar    3   0.181   7.046   0.929
    1   AR   Ar    4   0.512   0.661  -0.027
    1   AR   Ar    5   0.044   5.779   0.738
    1   AR   Ar    6   0.527   0.218   2.994
    1   AR   Ar    7   0.274   5.674   2.290
    1   AR   Ar    8   0.216   6.784   1.914
    1   AR   Ar    9   0.491   0.902   3.878
    1   AR   Ar   10   0.260   1.880   4.205
    1   AR   Ar   11   2.335   0.004   4.618
    1   AR   Ar   12   1.228   0.970   2.798
    1   AR   Ar   13   6.575   1.543   5.433
    1   AR   Ar   14   0.194   1.466   6.311
    1   AR   Ar   15   0.302   6.149   8.462
    1   AR   Ar   16   0.563   1.100   5.172
    1   AR   Ar   17   0.038   1.583  -0.432
    1   AR   Ar   18   6.634   3.411  -0.605
    1   AR   Ar   19   0.708   1.680   1.346
    1   AR   Ar   20   6.816   2.354  -2.359
    1   AR   Ar   21   6.225   1.096   2.279
    1   AR   Ar   22   0.062   2.451   2.143
    1   AR   Ar   23   0.274   0.793   1.949
    1   AR   Ar   24   0.143   2.538   0.941
    1   AR   Ar   25   7.058   1.339   2.993
    1   AR   Ar   26   6.250   1.775   3.696
    1   AR   Ar   27   2.033   1.235   3.383
    1   AR   Ar   28   0.901   2.715   4.545
    1   AR   Ar   29   6.203   1.860   6.432
    1   AR   Ar   30   0.223   2.613   6.036
    1   AR   Ar   31   0.368   0.240   7.251
    1   AR   Ar   32   1.243   2.630   6.045
    1   AR   Ar   33   1.330   4.228  -1.669
    1   AR   Ar   34   1.086   5.467   1.483
    1   AR   Ar   35   0.608   3.728   0.831
    1   AR   Ar   36   0.844   0.137  -1.577
    1   AR   Ar   37   0.821   3.130   2.016
    1   AR   Ar   38   6.877   4.657   2.236
    1   AR   Ar   39   0.752   4.266   2.370
    1   AR   Ar   40   1.863   3.934   1.403
    1   AR   Ar   41   0.893   2.488   3.440
    1   AR   Ar   42   6.639   5.246   5.275
    1   AR   Ar   43   6.587   2.865   5.210
    1   AR   Ar   44   0.464   3.539   3.190
    1   AR   Ar   45   1.080   3.572   5.188
    1   AR   Ar   46   7.019   5.375   6.419
    1   AR   Ar   47   6.585   3.331   6.204
    1   AR   Ar   48   6.838   6.650   6.604
    1   AR   Ar   49   6.451   5.095  -1.463
    1   AR   Ar   50   6.440   5.394   1.678
    1   AR   Ar   51   1.511   4.902   0.689
    1   AR   Ar   52   0.141   4.603  -0.872
    1   AR   Ar   53   6.465   6.350   2.588
    1   AR   Ar   54   0.339   6.192   3.259
    1   AR   Ar   55   6.943   5.238   3.154
    1   AR   Ar   56   1.376   6.497   1.392
    1   AR   Ar   57   6.589   3.402   3.246
    1   AR   Ar   58   6.606   5.346   4.191
    1   AR   Ar   59   2.111   5.848   5.365
    1   AR   Ar   60   1.290   6.524   4.108
    1   AR   Ar   61   6.064   5.872   6.008
    1   AR   Ar   62   0.452   5.605   5.006
    1   AR   Ar   63   1.349   5.681   6.166
    1   AR   Ar   64   1.283   6.922   5.253
    1   AR   Ar   65   2.997   0.244   0.007
    1   AR   Ar   66   1.934   1.133   1.104
    1   AR   Ar   67   3.394   6.219   0.086
    1   AR   Ar   68   3.147   0.734  -0.978
    1   AR   Ar   69   1.838   0.024   0.245
    1   AR   Ar   70   1.124   0.134   2.101
    1   AR   Ar   71   3.247   0.255   1.947
    1   AR   Ar   72   3.721   0.692   0.922
    1   AR   Ar   73   1.865   0.008   3.164
    1   AR   Ar   74   1.434   1.284   4.383
    1   AR   Ar   75   3.443   0.519   4.865
    1   AR   Ar   76   2.003   0.778   2.206
    1   AR   Ar   77   2.426   6.761   5.700
    1   AR   Ar   78   1.118   0.736   6.132
    1   AR   Ar   79   3.814   6.181   7.001
    1   AR   Ar   80   3.217   6.077   5.506
    1   AR   Ar   81   1.577   1.121   0.053
    1   AR   Ar   82   0.612   3.505  -0.087
    1   AR   Ar   83   2.578   2.299   0.628
    1   AR   Ar   84   1.904   4.098  -3.508
    1   AR   Ar   85   1.226   2.592  -0.485
    1   AR   Ar   86   1.770   2.708   1.871
    1   AR   Ar   87   2.511   1.726   1.891
    1   AR   Ar   88   3.360   4.096   1.463
    1   AR   Ar   89   0.834   1.819   2.415
    1   AR   Ar   90   2.803   2.145   4.686
    1   AR   Ar   91   1.807   2.240   4.107
    1   AR   Ar   92   1.893   2.187   2.860
    1   AR   Ar   93   1.701   2.068   5.250
    1   AR   Ar   94   3.035   0.410   7.298
    1   AR   Ar   95   3.505   7.108   5.794
    1   AR   Ar   96   2.515   0.735   6.286
    1   AR   Ar   97   3.845   2.191  -0.591
    1   AR   Ar   98   2.559   4.792   1.618
    1   AR   Ar   99   4.961   2.317  -1.187
    1   AR   Ar  100   1.226   4.450  -0.484
    1   AR   Ar  101   1.424   2.598   0.820
    1   AR   Ar  102   2.740   3.854   3.611
    1   AR   Ar  103   1.858   3.445   0.133
    1   AR   Ar  104   2.811   3.374  -1.409
    1   AR   Ar  105   1.491   3.277   3.692
    1   AR   Ar  106   1.905   3.296   4.726
    1   AR   Ar  107   2.427   3.963   5.427
    1   AR   Ar  108   3.449   2.907   4.358
    1   AR   Ar  109   1.505   4.308   4.397
    1   AR   Ar  110   1.427   4.809   5.436
    1   AR   Ar  111   3.889   4.947   7.242
    1   AR   Ar  112   1.183   5.094   7.162
    1   AR   Ar  113   2.373   4.426   0.556
    1   AR   Ar  114   2.653   6.571   0.702
    1   AR   Ar  115   3.216   5.280  -0.290
    1   AR   Ar  116   4.439   6.349  -0.024
    1   AR   Ar  117   0.968   4.984   3.031
    1   AR   Ar  118   1.249   6.147   2.408
    1   AR   Ar  119   1.940   3.878   2.828
    1   AR   Ar  120   1.638   4.953   2.337
    1   AR   Ar  121   6.491   4.280   3.953
    1   AR   Ar  122   2.674   6.023   4.547
    1   AR   Ar  123   2.499   4.916   4.506
    1   AR   Ar  124   2.137   5.829   3.610
    1   AR   Ar  125   0.552   4.663   4.706
    1   AR   Ar  126   0.638   6.572   6.086
    1   AR   Ar  127   2.979   5.514   7.042
    1   AR   Ar  128   2.444   5.952   6.322
    1   AR   Ar  129   2.259   0.163   1.315
    1   AR   Ar  130   4.417   1.057  -1.561
    1   AR   Ar  131   4.366   6.729   1.066
    1   AR   Ar  132   6.371   2.093  -1.068
    1   AR   Ar  133   3.585   0.056   2.854
    1   AR   Ar  134   3.977   1.755   2.723
    1   AR   Ar  135   4.764   0.443   3.138
    1   AR   Ar  136   4.218   0.780   2.256
    1   AR   Ar  137   2.979   6.554   3.792
    1   AR   Ar  138   4.841   1.316   5.153
    1   AR   Ar  139   5.650   1.031   4.496
    1   AR   Ar  140   4.289   0.941   3.950
    1   AR   Ar  141   4.006   6.933   4.028
    1   AR   Ar  142   4.608   7.045   5.439
    1   AR   Ar  143   5.815   6.849   5.812
    1   AR   Ar  144   5.478   0.697   6.691
    1   AR   Ar  145   2.919   3.237   0.469
    1   AR   Ar  146   4.251   2.737   1.752
    1   AR   Ar  147   5.517   1.952  -0.142
    1   AR   Ar  148   5.893   3.498  -2.596
    1   AR   Ar  149   4.035   1.741   0.490
    1   AR   Ar  150   2.921   1.581   2.856
    1   AR   Ar  151   3.857   1.994   3.819
    1   AR   Ar  152   2.810   3.097   1.780
    1   AR   Ar  153   3.089   1.232   3.910
    1   AR   Ar  154   3.728   1.662   4.761
    1   AR   Ar  155   5.686   0.858   5.636
    1   AR   Ar  156   3.860   3.773   3.585
    1   AR   Ar  157   3.493   2.112   5.625
    1   AR   Ar  158   1.687   1.432   6.548
    1   AR   Ar  159   4.509   0.646   6.235
    1   AR   Ar  160   3.967   3.216   6.967
    1   AR   Ar  161   4.893   2.450   0.625
    1   AR   Ar  162   4.475   5.323  -0.135
    1   AR   Ar  163   5.527   3.271   0.127
    1   AR   Ar  164   4.391   5.348   1.590
    1   AR   Ar  165   3.045   3.726   2.501
    1   AR   Ar  166   2.754   5.181   3.074
    1   AR   Ar  167   4.808   2.280   2.504
    1   AR   Ar  168   3.812   4.048  -0.176
    1   AR   Ar  169   2.911   2.593   3.549
    1   AR   Ar  170   3.174   3.981   4.572
    1   AR   Ar  171   4.305   3.394   4.886
    1   AR   Ar  172   4.458   5.021   4.286
    1   AR   Ar  173   2.478   2.891   6.433
    1   AR   Ar  174   4.348   4.654   6.052
    1   AR   Ar  175   4.477   3.509   6.084
    1   AR   Ar  176   3.519   5.274   4.858
    1   AR   Ar  177   5.423   5.791  -0.218
    1   AR   Ar  178   3.250   6.356   1.551
    1   AR   Ar  179   3.486   5.205   0.766
    1   AR   Ar  180   3.885   3.740  -1.514
    1   AR   Ar  181   3.152   5.596   2.213
    1   AR   Ar  182   2.188   6.561   2.161
    1   AR   Ar  183   3.383   4.659   2.348
    1   AR   Ar  184   4.446   6.379   2.136
    1   AR   Ar  185   1.312   5.322   4.289
    1   AR   Ar  186   3.350   5.608   3.898
    1   AR   Ar  187   4.605   5.492   3.380
    1   AR   Ar  188   3.545   5.997   3.012
    1   AR   Ar  189   2.662   4.943   5.569
    1   AR   Ar  190   4.362   5.893   5.717
    1   AR   Ar  191   5.353   6.083   5.366
    1   AR   Ar  192   4.200   6.087   4.778
    1   AR   Ar  193   6.265   6.532  -0.464
    1   AR   Ar  194   5.390   6.161  -1.340
    1   AR   Ar  195   5.860   1.057   0.151
    1   AR   Ar  196   5.757   0.981  -1.875
    1   AR   Ar  197   5.139   0.546   1.143
    1   AR   Ar  198   5.822   1.721   0.988
    1   AR   Ar  199   5.229   0.324   2.218
    1   AR   Ar  200   6.836   1.048   0.709
    1   AR   Ar  201   4.938   6.498   3.419
    1   AR   Ar  202   5.230   2.134   4.240
    1   AR   Ar  203   0.215   6.786   4.188
    1   AR   Ar  204   5.598   0.214   3.790
    1   AR   Ar  205   6.712   7.038   3.464
    1   AR   Ar  206   5.468   0.154   4.873
    1   AR   Ar  207   0.079   0.341   5.893
    1   AR   Ar  208   6.668   0.843   4.145
    1   AR   Ar  209   5.296   2.244  -2.197
    1   AR   Ar  210   4.783   1.558   1.311
    1   AR   Ar  211   6.160   2.672   0.680
    1   AR   Ar  212   6.190   4.117  -1.355
    1   AR   Ar  213   3.497   2.691   2.582
    1   AR   Ar  214   4.279   3.323   2.763
    1   AR   Ar  215   6.017   2.291   2.403
    1   AR   Ar  216   6.724   3.369   2.179
    1   AR   Ar  217   4.505   2.845   4.062
    1   AR   Ar  218   4.534   2.508   5.295
    1   AR   Ar  219   5.436   1.235   3.102
    1   AR   Ar  220   5.424   3.219   2.927
    1   AR   Ar  221   6.704   0.151   4.968
    1   AR   Ar  222   4.996   1.681   6.172
    1   AR   Ar  223   6.487   0.782   6.552
    1   AR   Ar  224   5.567   2.188   5.419
    1   AR   Ar  225   5.347   4.682   0.377
    1   AR   Ar  226   4.680   4.255   2.610
    1   AR   Ar  227   7.046   4.630   0.342
    1   AR   Ar  228   6.133   5.435   0.547
    1   AR   Ar  229   5.851   3.882   1.055
    1   AR   Ar  230   3.822   4.805   3.313
    1   AR   Ar  231   6.919   2.452   3.430
    1   AR   Ar  232   4.643   3.697   1.437
    1   AR   Ar  233   6.097   2.853   4.062
    1   AR   Ar  234   6.151   3.927   5.001
    1   AR   Ar  235   0.294   3.710   4.496
    1   AR   Ar  236   5.284   4.459   3.556
    1   AR   Ar  237   5.446   3.115   4.866
    1   AR   Ar  238   4.926   4.158   5.328
    1   AR   Ar  239   6.642   4.697   8.315
    1   AR   Ar  240   7.062   4.193   5.396
    1   AR   Ar  241   6.586   0.532  -0.325
    1   AR   Ar  242   5.169   5.960   0.752
    1   AR   Ar  243   5.503   3.846   2.010
    1   AR   Ar  244   6.702   5.606  -0.637
    1   AR   Ar  245   5.434   6.411   2.426
    1   AR   Ar  246   6.051   6.296   1.249
    1   AR   Ar  247   5.620   2.863   1.464
    1   AR   Ar  248   5.946   7.037   0.455
    1   AR   Ar  249   5.714   5.344   2.678
    1   AR   Ar  250   5.316   6.221   4.412
    1   AR   Ar  251   5.733   5.075   4.691
    1   AR   Ar  252   6.045   5.877   3.614
    1   AR   Ar  253   5.784   4.856   5.849
    1   AR   Ar  254   5.106   5.566   6.432
    1   AR   Ar  255   5.375   4.730   7.246
    1   AR   Ar  256   6.343   6.279   4.933
    7.12000  7.12000 12.00000
Argon-slab step 1570
  256
    1   AR   Ar    1   6.757   1.147  -1.395
    1   AR   Ar    2   6.388   0.369   1.525
    1   AR   Ar    3   0.144   7.084   0.927
    1   AR   Ar    4   0.506   0.645  -0.005
    1   AR   Ar    5   0.050   5.776   0.724
    1   AR   Ar    6   0.520   0.220   2.983
    1   AR   Ar    7   0.286   5.689   2.290
    1   AR   Ar    8   0.188   6.800   1.914
    1   AR   Ar    9   0.467   0.920   3.917
    1   AR   Ar   10   0.255   1.870   4.199
    1   AR   Ar   11   2.321   0.009   4.610
    1   AR   Ar   12   1.196   0.949   2.809
    1   AR   Ar   13   6.538   1.526   5.422
    1   AR   Ar   14   0.198   1.450   6.333
    1   AR   Ar   15   0.339   6.146   8.461
    1   AR   Ar   16   0.571   1.119   5.206
    1   AR   Ar   17   0.035   1.572  -0.425
    1   AR   Ar   18   6.609   3.383  -0.633
    1   AR   Ar   19   0.717   1.690   1.347
    1   AR   Ar   20   6.785   2.337  -2.377
    1   AR   Ar   21   6.218   1.088   2.283
    1   AR   Ar   22   0.048   2.460   2.153
    1   AR   Ar   23   0.259   0.780   1.950
    1   AR   Ar   24   0.140   2.521   0.944
    1   AR   Ar   25   7.057   1.353   2.998
    1   AR   Ar   26   6.257   1.749   3.691
    1   AR   Ar   27   2.005   1.225   3.380
    1   AR   Ar   28   0.903   2.711   4.564
    1   AR   Ar   29   6.221   1.851   6.439
    1   AR   Ar   30   0.210   2.601   6.024
    1   AR   Ar   31   0.360   0.215   7.207
    1   AR   Ar   32   1.262   2.624   6.037
    1   AR   Ar   33   1.326   4.225  -1.663
    1   AR   Ar   34   1.054   5.472   1.471
    1   AR   Ar   35   0.587   3.705   0.851
    1   AR   Ar   36   0.813   0.133  -1.566
    1   AR   Ar   37   0.790   3.134   2.027
    1   AR   Ar   38   6.863   4.647   2.221
    1   AR   Ar   39   0.775   4.273   2.350
    1   AR   Ar   40   1.896   3.913   1.393
    1   AR   Ar   41   0.858   2.472   3.446
    1   AR   Ar   42   6.642   5.241   5.293
    1   AR   Ar   43   6.591   2.846   5.207
    1   AR   Ar   44   0.476   3.545   3.197
    1   AR   Ar   45   1.096   3.558   5.177
    1   AR   Ar   46   7.022   5.393   6.387
    1   AR   Ar   47   6.530   3.360   6.153
    1   AR   Ar   48   6.842   6.669   6.627
    1   AR   Ar   49   6.448   5.115  -1.475
    1   AR   Ar   50   6.410   5.392   1.691
    1   AR   Ar   51   1.519   4.913   0.700
    1   AR   Ar   52   0.166   4.581  -0.862
    1   AR   Ar   53   6.484   6.364   2.594
    1   AR   Ar   54   0.359   6.209   3.245
    1   AR   Ar   55   6.928   5.211   3.194
    1   AR   Ar   56   1.393   6.515   1.410
    1   AR   Ar   57   6.579   3.389   3.244
    1   AR   Ar   58   6.615   5.355   4.184
    1   AR   Ar   59   2.109   5.843   5.385
    1   AR   Ar   60   1.291   6.519   4.106
    1   AR   Ar   61   6.084   5.849   6.025
    1   AR   Ar   62   0.447   5.579   5.003
    1   AR   Ar   63   1.367   5.698   6.173
    1   AR   Ar   64   1.289   6.946   5.203
    1   AR   Ar   65   2.992   0.269  -0.010
    1   AR   Ar   66   1.936   1.109   1.111
    1   AR   Ar   67   3.365   6.204   0.060
    1   AR   Ar   68   3.158   0.728  -0.982
    1   AR   Ar   69   1.851   0.073   0.207
    1   AR   Ar   70   1.078   0.161   2.129
    1   AR   Ar   71   3.240   0.282   1.950
    1   AR   Ar   72   3.668   0.661   0.892
    1   AR   Ar   73   1.857   0.043   3.150
    1   AR   Ar   74   1.437   1.324   4.386
    1   AR   Ar   75   3.446   0.527   4.872
    1   AR   Ar   76   2.019   0.822   2.189
    1   AR   Ar   77   2.420   6.723   5.678
    1   AR   Ar   78   1.119   0.751   6.166
    1   AR   Ar   79   3.802   6.173   7.008
    1   AR   Ar   80   3.232   6.098   5.532
    1   AR   Ar   81   1.554   1.145   0.059
    1   AR   Ar   82   0.606   3.509  -0.112
    1   AR   Ar   83   2.584   2.291   0.590
    1   AR   Ar   84   1.881   4.115  -3.497
    1   AR   Ar   85   1.214   2.614  -0.515
    1   AR   Ar   86   1.744   2.733   1.881
    1   AR   Ar   87   2.511   1.727   1.917
    1   AR   Ar   88   3.344   4.151   1.432
    1   AR   Ar   89   0.811   1.817   2.465
    1   AR   Ar   90   2.778   2.149   4.711
    1   AR   Ar   91   1.818   2.257   4.114
    1   AR   Ar   92   1.912   2.202   2.848
    1   AR   Ar   93   1.698   2.085   5.251
    1   AR   Ar   94   3.029   0.436   7.266
    1   AR   Ar   95   3.503   7.105   5.791
    1   AR   Ar   96   2.483   0.787   6.297
    1   AR   Ar   97   3.845   2.197  -0.637
    1   AR   Ar   98   2.556   4.770   1.619
    1   AR   Ar   99   5.014   2.300  -1.185
    1   AR   Ar  100   1.213   4.453  -0.507
    1   AR   Ar  101   1.435   2.598   0.823
    1   AR   Ar  102   2.738   3.837   3.621
    1   AR   Ar  103   1.830   3.454   0.155
    1   AR   Ar  104   2.791   3.415  -1.429
    1   AR   Ar  105   1.492   3.257   3.710
    1   AR   Ar  106   1.906   3.293   4.721
    1   AR   Ar  107   2.382   3.983   5.428
    1   AR   Ar  108   3.449   2.927   4.362
    1   AR   Ar  109   1.501   4.280   4.360
    1   AR   Ar  110   1.431   4.804   5.408
    1   AR   Ar  111   3.876   4.930   7.252
    1   AR   Ar  112   1.189   5.087   7.131
    1   AR   Ar  113   2.388   4.432   0.546
    1   AR   Ar  114   2.622   6.593   0.678
    1   AR   Ar  115   3.191   5.262  -0.265
    1   AR   Ar  116   4.482   6.359   0.005
    1   AR   Ar  117   0.949   5.002   3.035
    1   AR   Ar  118   1.229   6.155   2.477
    1   AR   Ar  119   1.951   3.864   2.815
    1   AR   Ar  120   1.625   4.968   2.324
    1   AR   Ar  121   6.532   4.257   3.975
    1   AR   Ar  122   2.638   6.020   4.556
    1   AR   Ar  123   2.504   4.939   4.484
    1   AR   Ar  124   2.137   5.821   3.586
    1   AR   Ar  125   0.562   4.691   4.668
    1   AR   Ar  126   0.621   6.618   6.093
    1   AR   Ar  127   2.999   5.502   7.059
    1   AR   Ar  128   2.422   5.909   6.325
    1   AR   Ar  129   2.241   0.131   1.338
    1   AR   Ar  130   4.395   1.055  -1.565
    1   AR   Ar  131   4.362   6.732   1.068
    1   AR   Ar  132   6.312   2.123  -1.044
    1   AR   Ar  133   3.588   0.054   2.838
    1   AR   Ar  134   3.948   1.773   2.695
    1   AR   Ar  135   4.770   0.446   3.141
    1   AR   Ar  136   4.226   0.743   2.233
    1   AR   Ar  137   2.969   6.577   3.779
    1   AR   Ar  138   4.807   1.326   5.149
    1   AR   Ar  139   5.661   1.070   4.493
    1   AR   Ar  140   4.290   0.911   3.952
    1   AR   Ar  141   3.984   6.973   3.974
    1   AR   Ar  142   4.593   7.023   5.396
    1   AR   Ar  143   5.833   6.842   5.839
    1   AR   Ar  144   5.464   0.693   6.684
    1   AR   Ar  145   2.951   3.268   0.500
    1   AR   Ar  146   4.249   2.726   1.762
    1   AR   Ar  147   5.512   1.941  -0.161
    1   AR   Ar  148   5.875   3.507  -2.591
    1   AR   Ar  149   4.014   1.757   0.481
    1   AR   Ar  150   2.930   1.578   2.871
    1   AR   Ar  151   3.846   1.979   3.799
    1   AR   Ar  152   2.844   3.117   1.765
    1   AR   Ar  153   3.122   1.263   3.904
    1   AR   Ar  154   3.730   1.687   4.768
    1   AR   Ar  155   5.692   0.881   5.639
    1   AR   Ar  156   3.873   3.792   3.580
    1   AR   Ar  157   3.469   2.118   5.613
    1   AR   Ar  158   1.706   1.401   6.557
    1   AR   Ar  159   4.500   0.649   6.240
    1   AR   Ar  160   3.955   3.220   6.954
    1   AR   Ar  161   4.903   2.418   0.650
    1   AR   Ar  162   4.448   5.327  -0.148
    1   AR   Ar  163   5.547   3.282   0.131
    1   AR   Ar  164   4.374   5.340   1.586
    1   AR   Ar  165   3.069   3.711   2.491
    1   AR   Ar  166   2.767   5.205   3.083
    1   AR   Ar  167   4.801   2.301   2.540
    1   AR   Ar  168   3.818   4.029  -0.200
    1   AR   Ar  169   2.911   2.587   3.552
    1   AR   Ar  170   3.159   3.979   4.543
    1   AR   Ar  171   4.326   3.408   4.903
    1   AR   Ar  172   4.474   5.023   4.288
    1   AR   Ar  173   2.494   2.910   6.457
    1   AR   Ar  174   4.334   4.658   6.097
    1   AR   Ar  175   4.470   3.480   6.084
    1   AR   Ar  176   3.527   5.247   4.852
    1   AR   Ar  177   5.401   5.790  -0.232
    1   AR   Ar  178   3.258   6.362   1.531
    1   AR   Ar  179   3.457   5.193   0.768
    1   AR   Ar  180   3.863   3.740  -1.522
    1   AR   Ar  181   3.100   5.626   2.193
    1   AR   Ar  182   2.172   6.591   2.166
    1   AR   Ar  183   3.375   4.679   2.376
    1   AR   Ar  184   4.443   6.368   2.142
    1   AR   Ar  185   1.301   5.330   4.322
    1   AR   Ar  186   3.380   5.609   3.911
    1   AR   Ar  187   4.607   5.542   3.359
    1   AR   Ar  188   3.563   5.983   3.003
    1   AR   Ar  189   2.671   4.939   5.580
    1   AR   Ar  190   4.337   5.884   5.747
    1   AR   Ar  191   5.357   6.077   5.371
    1   AR   Ar  192   4.208   6.101   4.755
    1   AR   Ar  193   6.309   6.514  -0.464
    1   AR   Ar  194   5.410   6.152  -1.352
    1   AR   Ar  195   5.866   1.073   0.160
    1   AR   Ar  196   5.758   0.990  -1.882
    1   AR   Ar  197   5.147   0.531   1.144
    1   AR   Ar  198   5.806   1.685   0.988
    1   AR   Ar  199   5.202   0.362   2.189
    1   AR   Ar  200   6.834   1.034   0.723
    1   AR   Ar  201   4.932   6.519   3.417
    1   AR   Ar  202   5.198   2.098   4.239
    1   AR   Ar  203   0.177   6.776   4.172
    1   AR   Ar  204   5.601   0.234   3.769
    1   AR   Ar  205   6.737   7.028   3.464
    1   AR   Ar  206   5.462   0.168   4.901
    1   AR   Ar  207   0.075   0.353   5.914
    1   AR   Ar  208   6.687   0.837   4.133
    1   AR   Ar  209   5.242   2.231  -2.192
    1   AR   Ar  210   4.781   1.551   1.324
    1   AR   Ar  211   6.163   2.694   0.662
    1   AR   Ar  212   6.204   4.116  -1.378
    1   AR   Ar  213   3.536   2.701   2.553
    1   AR   Ar  214   4.274   3.298   2.739
    1   AR   Ar  215   6.042   2.279   2.399
    1   AR   Ar  216   6.709   3.380   2.196
    1   AR   Ar  217   4.517   2.828   4.059
    1   AR   Ar  218   4.528   2.488   5.291
    1   AR   Ar  219   5.451   1.283   3.128
    1   AR   Ar  220   5.417   3.214   2.886
    1   AR   Ar  221   6.736   0.154   4.954
    1   AR   Ar  222   5.016   1.713   6.191
    1   AR   Ar  223   6.526   0.770   6.578
    1   AR   Ar  224   5.572   2.210   5.403
    1   AR   Ar  225   5.349   4.655   0.370
    1   AR   Ar  226   4.687   4.241   2.593
    1   AR   Ar  227   7.047   4.650   0.328
    1   AR   Ar  228   6.117   5.433   0.524
    1   AR   Ar  229   5.832   3.912   1.062
    1   AR   Ar  230   3.817   4.807   3.296
    1   AR   Ar  231   6.944   2.464   3.447
    1   AR   Ar  232   4.627   3.678   1.403
    1   AR   Ar  233   6.074   2.854   4.043
    1   AR   Ar  234   6.213   3.890   4.995
    1   AR   Ar  235   0.284   3.712   4.492
    1   AR   Ar  236   5.292   4.455   3.544
    1   AR   Ar  237   5.428   3.115   4.867
    1   AR   Ar  238   4.935   4.160   5.329
    1   AR   Ar  239   6.623   4.678   8.344
    1   AR   Ar  240   7.066   4.151   5.387
    1   AR   Ar  241   6.631   0.485  -0.334
    1   AR   Ar  242   5.172   5.964   0.770
    1   AR   Ar  243   5.531   3.865   2.012
    1   AR   Ar  244   6.740   5.623  -0.618
    1   AR   Ar  245   5.434   6.419   2.425
    1   AR   Ar  246   6.060   6.289   1.240
    1   AR   Ar  247   5.636   2.880   1.496
    1   AR   Ar  248   5.960   7.046   0.466
    1   AR   Ar  249   5.724   5.347   2.648
    1   AR   Ar  250   5.288   6.209   4.425
    1   AR   Ar  251   5.700   5.089   4.691
    1   AR   Ar  252   6.036   5.861   3.591
    1   AR   Ar  253   5.784   4.861   5.835
    1   AR   Ar  254   5.088   5.556   6.415
    1   AR   Ar  255   5.373   4.715   7.285
    1   AR   Ar  256   6.342   6.275   4.924
    7.12000  7.12000 12.00000
Argon-slab step 1575
  256
    1   AR   Ar    1   6.781   1.156  -1.376
    1   AR   Ar    2   6.377   0.387   1.521
    1   AR   Ar    3   0.105   0.005   0.920
    1   AR   Ar    4   0.503   0.630   0.019
    1   AR   Ar    5   0.055   5.772   0.711
    1   AR   Ar    6   0.505   0.218   2.977
    1   AR   Ar    7   0.295   5.701   2.288
    1   AR   Ar    8   0.156   6.811   1.920
    1   AR   Ar    9   0.475   0.932   3.947
    1   AR   Ar   10   0.256   1.869   4.173
    1   AR   Ar   11   2.307   0.012   4.601
    1   AR   Ar   12   1.164   0.929   2.824
    1   AR   Ar   13   6.503   1.510   5.411
    1   AR   Ar   14   0.204   1.435   6.354
    1   AR   Ar   15   0.376   6.143   8.460
    1   AR   Ar   16   0.577   1.138   5.240
    1   AR   Ar   17   0.029   1.560  -0.416
    1   AR   Ar   18   6.585   3.355  -0.660
    1   AR   Ar   19   0.727   1.698   1.348
    1   AR   Ar   20   6.753   2.319  -2.394
    1   AR   Ar   21   6.211   1.082   2.289
    1   AR   Ar   22   0.028   2.461   2.163
    1   AR   Ar   23   0.241   0.770   1.953
    1   AR   Ar   24   0.137   2.507   0.947
    1   AR   Ar   25   7.056   1.366   3.003
    1   AR   Ar   26   6.259   1.719   3.689
    1   AR   Ar   27   1.981   1.216   3.381
    1   AR   Ar   28   0.905   2.705   4.581
    1   AR   Ar   29   6.237   1.841   6.445
    1   AR   Ar   30   0.194   2.587   6.012
    1   AR   Ar   31   0.352   0.191   7.161
    1   AR   Ar   32   1.284   2.621   6.031
    1   AR   Ar   33   1.322   4.222  -1.656
    1   AR   Ar   34   1.020   5.478   1.464
    1   AR   Ar   35   0.566   3.683   0.884
    1   AR   Ar   36   0.781   0.128  -1.554
    1   AR   Ar   37   0.760   3.146   2.038
    1   AR   Ar   38   6.850   4.633   2.209
    1   AR   Ar   39   0.797   4.273   2.325
    1   AR   Ar   40   1.928   3.891   1.383
    1   AR   Ar   41   0.825   2.452   3.450
    1   AR   Ar   42   6.643   5.232   5.311
    1   AR   Ar   43   6.594   2.826   5.200
    1   AR   Ar   44   0.492   3.552   3.203
    1   AR   Ar   45   1.099   3.552   5.176
    1   AR   Ar   46   7.025   5.413   6.353
    1   AR   Ar   47   6.475   3.391   6.102
    1   AR   Ar   48   6.841   6.688   6.650
    1   AR   Ar   49   6.444   5.137  -1.490
    1   AR   Ar   50   6.379   5.394   1.702
    1   AR   Ar   51   1.520   4.924   0.711
    1   AR   Ar   52   0.190   4.559  -0.852
    1   AR   Ar   53   6.507   6.376   2.601
    1   AR   Ar   54   0.379   6.227   3.230
    1   AR   Ar   55   6.913   5.184   3.231
    1   AR   Ar   56   1.405   6.507   1.407
    1   AR   Ar   57   6.561   3.382   3.241
    1   AR   Ar   58   6.635   5.358   4.190
    1   AR   Ar   59   2.094   5.824   5.395
    1   AR   Ar   60   1.293   6.513   4.103
    1   AR   Ar   61   6.113   5.826   6.047
    1   AR   Ar   62   0.446   5.573   5.000
    1   AR   Ar   63   1.374   5.716   6.183
    1   AR   Ar   64   1.297   6.970   5.154
    1   AR   Ar   65   2.986   0.294  -0.024
    1   AR   Ar   66   1.938   1.090   1.118
    1   AR   Ar   67   3.340   6.194   0.035
    1   AR   Ar   68   3.170   0.724  -0.986
    1   AR   Ar   69   1.871   0.077   0.180
    1   AR   Ar   70   1.044   0.183   2.152
    1   AR   Ar   71   3.227   0.313   1.940
    1   AR   Ar   72   3.614   0.629   0.863
    1   AR   Ar   73   1.849   0.077   3.135
    1   AR   Ar   74   1.436   1.362   4.390
    1   AR   Ar   75   3.449   0.535   4.886
    1   AR   Ar   76   2.039   0.862   2.171
    1   AR   Ar   77   2.415   6.704   5.658
    1   AR   Ar   78   1.107   0.753   6.192
    1   AR   Ar   79   3.793   6.167   7.012
    1   AR   Ar   80   3.250   6.112   5.558
    1   AR   Ar   81   1.530   1.169   0.066
    1   AR   Ar   82   0.602   3.512  -0.151
    1   AR   Ar   83   2.588   2.280   0.553
    1   AR   Ar   84   1.859   4.131  -3.485
    1   AR   Ar   85   1.202   2.637  -0.544
    1   AR   Ar   86   1.722   2.758   1.891
    1   AR   Ar   87   2.511   1.721   1.949
    1   AR   Ar   88   3.333   4.201   1.399
    1   AR   Ar   89   0.789   1.820   2.514
    1   AR   Ar   90   2.750   2.152   4.734
    1   AR   Ar   91   1.831   2.278   4.118
    1   AR   Ar   92   1.931   2.216   2.838
    1   AR   Ar   93   1.697   2.100   5.248
    1   AR   Ar   94   3.022   0.461   7.233
    1   AR   Ar   95   3.502   7.102   5.790
    1   AR   Ar   96   2.456   0.835   6.304
    1   AR   Ar   97   3.845   2.202  -0.682
    1   AR   Ar   98   2.547   4.752   1.623
    1   AR   Ar   99   5.065   2.281  -1.178
    1   AR   Ar  100   1.200   4.455  -0.529
    1   AR   Ar  101   1.480   2.598   0.814
    1   AR   Ar  102   2.735   3.819   3.627
    1   AR   Ar  103   1.800   3.464   0.179
    1   AR   Ar  104   2.772   3.443  -1.445
    1   AR   Ar  105   1.494   3.242   3.728
    1   AR   Ar  106   1.903   3.306   4.698
    1   AR   Ar  107   2.334   3.998   5.427
    1   AR   Ar  108   3.453   2.948   4.370
    1   AR   Ar  109   1.500   4.249   4.324
    1   AR   Ar  110   1.437   4.800   5.378
    1   AR   Ar  111   3.894   4.932   7.249
    1   AR   Ar  112   1.194   5.081   7.098
    1   AR   Ar  113   2.393   4.450   0.542
    1   AR   Ar  114   2.591   6.609   0.653
    1   AR   Ar  115   3.182   5.248  -0.252
    1   AR   Ar  116   4.525   6.373   0.034
    1   AR   Ar  117   0.921   5.028   3.053
    1   AR   Ar  118   1.209   6.163   2.547
    1   AR   Ar  119   1.988   3.873   2.839
    1   AR   Ar  120   1.624   4.984   2.302
    1   AR   Ar  121   6.573   4.234   3.996
    1   AR   Ar  122   2.604   6.017   4.566
    1   AR   Ar  123   2.509   4.961   4.461
    1   AR   Ar  124   2.146   5.812   3.553
    1   AR   Ar  125   0.570   4.703   4.626
    1   AR   Ar  126   0.610   6.660   6.097
    1   AR   Ar  127   3.030   5.485   7.081
    1   AR   Ar  128   2.401   5.866   6.334
    1   AR   Ar  129   2.196   0.131   1.314
    1   AR   Ar  130   4.374   1.054  -1.569
    1   AR   Ar  131   4.358   6.736   1.071
    1   AR   Ar  132   6.253   2.153  -1.018
    1   AR   Ar  133   3.596   0.048   2.836
    1   AR   Ar  134   3.944   1.786   2.672
    1   AR   Ar  135   4.772   0.447   3.144
    1   AR   Ar  136   4.231   0.707   2.208
    1   AR   Ar  137   2.960   6.607   3.758
    1   AR   Ar  138   4.772   1.337   5.144
    1   AR   Ar  139   5.674   1.118   4.486
    1   AR   Ar  140   4.289   0.885   3.958
    1   AR   Ar  141   3.962   7.012   3.920
    1   AR   Ar  142   4.574   6.998   5.354
    1   AR   Ar  143   5.854   6.846   5.869
    1   AR   Ar  144   5.450   0.690   6.678
    1   AR   Ar  145   2.984   3.304   0.532
    1   AR   Ar  146   4.246   2.714   1.767
    1   AR   Ar  147   5.505   1.941  -0.183
    1   AR   Ar  148   5.857   3.516  -2.585
    1   AR   Ar  149   3.994   1.773   0.471
    1   AR   Ar  150   2.936   1.576   2.889
    1   AR   Ar  151   3.840   1.971   3.773
    1   AR   Ar  152   2.875   3.128   1.736
    1   AR   Ar  153   3.150   1.290   3.900
    1   AR   Ar  154   3.740   1.704   4.770
    1   AR   Ar  155   5.700   0.905   5.643
    1   AR   Ar  156   3.885   3.808   3.579
    1   AR   Ar  157   3.443   2.130   5.610
    1   AR   Ar  158   1.732   1.388   6.576
    1   AR   Ar  159   4.490   0.653   6.243
    1   AR   Ar  160   3.941   3.223   6.943
    1   AR   Ar  161   4.915   2.393   0.677
    1   AR   Ar  162   4.418   5.326  -0.160
    1   AR   Ar  163   5.562   3.298   0.131
    1   AR   Ar  164   4.356   5.332   1.582
    1   AR   Ar  165   3.095   3.702   2.496
    1   AR   Ar  166   2.780   5.222   3.092
    1   AR   Ar  167   4.803   2.325   2.578
    1   AR   Ar  168   3.823   4.010  -0.224
    1   AR   Ar  169   2.908   2.579   3.550
    1   AR   Ar  170   3.159   3.996   4.556
    1   AR   Ar  171   4.343   3.428   4.919
    1   AR   Ar  172   4.489   5.025   4.291
    1   AR   Ar  173   2.509   2.929   6.479
    1   AR   Ar  174   4.320   4.664   6.143
    1   AR   Ar  175   4.464   3.452   6.080
    1   AR   Ar  176   3.535   5.218   4.852
    1   AR   Ar  177   5.383   5.790  -0.251
    1   AR   Ar  178   3.269   6.375   1.506
    1   AR   Ar  179   3.428   5.181   0.774
    1   AR   Ar  180   3.841   3.741  -1.528
    1   AR   Ar  181   3.041   5.657   2.166
    1   AR   Ar  182   2.165   6.585   2.193
    1   AR   Ar  183   3.372   4.695   2.400
    1   AR   Ar  184   4.434   6.358   2.147
    1   AR   Ar  185   1.295   5.343   4.353
    1   AR   Ar  186   3.411   5.605   3.926
    1   AR   Ar  187   4.610   5.590   3.336
    1   AR   Ar  188   3.590   5.977   2.993
    1   AR   Ar  189   2.682   4.944   5.593
    1   AR   Ar  190   4.309   5.876   5.781
    1   AR   Ar  191   5.353   6.064   5.385
    1   AR   Ar  192   4.213   6.116   4.730
    1   AR   Ar  193   6.348   6.502  -0.462
    1   AR   Ar  194   5.430   6.141  -1.363
    1   AR   Ar  195   5.876   1.078   0.170
    1   AR   Ar  196   5.758   1.000  -1.888
    1   AR   Ar  197   5.157   0.515   1.143
    1   AR   Ar  198   5.793   1.646   0.998
    1   AR   Ar  199   5.182   0.398   2.159
    1   AR   Ar  200   6.831   1.019   0.738
    1   AR   Ar  201   4.927   6.543   3.416
    1   AR   Ar  202   5.171   2.056   4.241
    1   AR   Ar  203   0.155   6.758   4.177
    1   AR   Ar  204   5.607   0.253   3.749
    1   AR   Ar  205   6.742   7.026   3.445
    1   AR   Ar  206   5.459   0.172   4.928
    1   AR   Ar  207   0.072   0.368   5.933
    1   AR   Ar  208   6.677   0.828   4.125
    1   AR   Ar  209   5.202   2.228  -2.182
    1   AR   Ar  210   4.776   1.545   1.339
    1   AR   Ar  211   6.175   2.709   0.641
    1   AR   Ar  212   6.212   4.119  -1.399
    1   AR   Ar  213   3.541   2.709   2.534
    1   AR   Ar  214   4.281   3.277   2.717
    1   AR   Ar  215   6.075   2.319   2.387
    1   AR   Ar  216   6.691   3.397   2.211
    1   AR   Ar  217   4.526   2.814   4.051
    1   AR   Ar  218   4.521   2.461   5.288
    1   AR   Ar  219   5.466   1.333   3.153
    1   AR   Ar  220   5.409   3.208   2.844
    1   AR   Ar  221   6.766   0.158   4.943
    1   AR   Ar  222   5.037   1.743   6.210
    1   AR   Ar  223   6.563   0.757   6.605
    1   AR   Ar  224   5.580   2.228   5.387
    1   AR   Ar  225   5.350   4.628   0.362
    1   AR   Ar  226   4.714   4.244   2.574
    1   AR   Ar  227   7.048   4.670   0.314
    1   AR   Ar  228   6.075   5.445   0.514
    1   AR   Ar  229   5.816   3.940   1.059
    1   AR   Ar  230   3.812   4.812   3.282
    1   AR   Ar  231   6.922   2.499   3.441
    1   AR   Ar  232   4.611   3.660   1.369
    1   AR   Ar  233   6.052   2.854   4.024
    1   AR   Ar  234   6.261   3.851   4.984
    1   AR   Ar  235   0.290   3.678   4.483
    1   AR   Ar  236   5.302   4.444   3.551
    1   AR   Ar  237   5.441   3.129   4.860
    1   AR   Ar  238   4.948   4.165   5.330
    1   AR   Ar  239   6.604   4.659   8.373
    1   AR   Ar  240   7.091   4.122   5.345
    1   AR   Ar  241   6.675   0.438  -0.344
    1   AR   Ar  242   5.172   5.967   0.792
    1   AR   Ar  243   5.558   3.883   2.023
    1   AR   Ar  244   6.783   5.633  -0.594
    1   AR   Ar  245   5.438   6.426   2.425
    1   AR   Ar  246   6.065   6.319   1.245
    1   AR   Ar  247   5.645   2.897   1.537
    1   AR   Ar  248   5.975   7.057   0.478
    1   AR   Ar  249   5.735   5.350   2.617
    1   AR   Ar  250   5.260   6.199   4.419
    1   AR   Ar  251   5.666   5.102   4.691
    1   AR   Ar  252   6.018   5.855   3.559
    1   AR   Ar  253   5.782   4.863   5.819
    1   AR   Ar  254   5.072   5.544   6.399
    1   AR   Ar  255   5.370   4.701   7.322
    1   AR   Ar  256   6.339   6.269   4.915
    7.12000  7.12000 12.00000
Argon-slab step 1580
  256
    1   AR   Ar    1   6.805   1.164  -1.356
    1   AR   Ar    2   6.366   0.401   1.515
    1   AR   Ar    3   0.066   0.045   0.910
    1   AR   Ar    4   0.540   0.617   0.024
    1   AR   Ar    5   0.059   5.768   0.700
    1   AR   Ar    6   0.479   0.208   2.981
    1   AR   Ar    7   0.301   5.711   2.285
    1   AR   Ar    8   0.120   6.817   1.929
    1   AR   Ar    9   0.512   0.936   3.968
    1   AR   Ar   10   0.252   1.891   4.150
    1   AR   Ar   11   2.293   0.015   4.593
    1   AR   Ar   12   1.137   0.918   2.842
    1   AR   Ar   13   6.473   1.497   5.398
    1   AR   Ar   14   0.211   1.422   6.371
    1   AR   Ar   15   0.413   6.140   8.459
    1   AR   Ar   16   0.583   1.157   5.273
    1   AR   Ar   17   0.023   1.548  -0.406
    1   AR   Ar   18   6.561   3.326  -0.686
    1   AR   Ar   19   0.739   1.705   1.351
    1   AR   Ar   20   6.721   2.301  -2.410
    1   AR   Ar   21   6.202   1.078   2.298
    1   AR   Ar   22   0.003   2.454   2.174
    1   AR   Ar   23   0.217   0.768   1.954
    1   AR   Ar   24   0.133   2.494   0.951
    1   AR   Ar   25   7.056   1.379   3.010
    1   AR   Ar   26   6.263   1.691   3.691
    1   AR   Ar   27   1.962   1.209   3.384
    1   AR   Ar   28   0.907   2.697   4.596
    1   AR   Ar   29   6.253   1.831   6.448
    1   AR   Ar   30   0.175   2.572   5.999
    1   AR   Ar   31   0.348   0.172   7.116
    1   AR   Ar   32   1.306   2.620   6.028
    1   AR   Ar   33   1.324   4.215  -1.652
    1   AR   Ar   34   0.984   5.484   1.459
    1   AR   Ar   35   0.545   3.662   0.922
    1   AR   Ar   36   0.749   0.124  -1.541
    1   AR   Ar   37   0.732   3.164   2.048
    1   AR   Ar   38   6.841   4.614   2.201
    1   AR   Ar   39   0.818   4.270   2.298
    1   AR   Ar   40   1.960   3.867   1.373
    1   AR   Ar   41   0.799   2.431   3.452
    1   AR   Ar   42   6.641   5.222   5.327
    1   AR   Ar   43   6.596   2.804   5.190
    1   AR   Ar   44   0.511   3.557   3.209
    1   AR   Ar   45   1.091   3.553   5.186
    1   AR   Ar   46   7.036   5.423   6.341
    1   AR   Ar   47   6.419   3.422   6.050
    1   AR   Ar   48   6.831   6.702   6.670
    1   AR   Ar   49   6.440   5.163  -1.506
    1   AR   Ar   50   6.347   5.399   1.710
    1   AR   Ar   51   1.515   4.937   0.723
    1   AR   Ar   52   0.211   4.536  -0.845
    1   AR   Ar   53   6.530   6.385   2.607
    1   AR   Ar   54   0.397   6.244   3.217
    1   AR   Ar   55   6.901   5.157   3.259
    1   AR   Ar   56   1.414   6.492   1.400
    1   AR   Ar   57   6.535   3.390   3.239
    1   AR   Ar   58   6.659   5.359   4.209
    1   AR   Ar   59   2.065   5.790   5.397
    1   AR   Ar   60   1.295   6.506   4.100
    1   AR   Ar   61   6.144   5.806   6.073
    1   AR   Ar   62   0.463   5.580   4.997
    1   AR   Ar   63   1.366   5.736   6.198
    1   AR   Ar   64   1.304   6.994   5.106
    1   AR   Ar   65   2.979   0.317  -0.035
    1   AR   Ar   66   1.937   1.079   1.122
    1   AR   Ar   67   3.321   6.192   0.012
    1   AR   Ar   68   3.176   0.730  -0.986
    1   AR   Ar   69   1.891   0.080   0.168
    1   AR   Ar   70   1.027   0.197   2.162
    1   AR   Ar   71   3.209   0.346   1.921
    1   AR   Ar   72   3.561   0.596   0.835
    1   AR   Ar   73   1.839   0.111   3.118
    1   AR   Ar   74   1.433   1.396   4.395
    1   AR   Ar   75   3.452   0.545   4.896
    1   AR   Ar   76   2.055   0.893   2.159
    1   AR   Ar   77   2.410   6.704   5.640
    1   AR   Ar   78   1.084   0.742   6.210
    1   AR   Ar   79   3.788   6.164   7.015
    1   AR   Ar   80   3.269   6.119   5.580
    1   AR   Ar   81   1.506   1.192   0.073
    1   AR   Ar   82   0.597   3.516  -0.194
    1   AR   Ar   83   2.593   2.272   0.528
    1   AR   Ar   84   1.843   4.140  -3.471
    1   AR   Ar   85   1.190   2.661  -0.571
    1   AR   Ar   86   1.704   2.781   1.901
    1   AR   Ar   87   2.513   1.724   1.976
    1   AR   Ar   88   3.331   4.242   1.362
    1   AR   Ar   89   0.775   1.822   2.552
    1   AR   Ar   90   2.750   2.153   4.751
    1   AR   Ar   91   1.846   2.303   4.120
    1   AR   Ar   92   1.949   2.230   2.829
    1   AR   Ar   93   1.697   2.113   5.239
    1   AR   Ar   94   3.015   0.487   7.200
    1   AR   Ar   95   3.502   7.101   5.793
    1   AR   Ar   96   2.465   0.858   6.315
    1   AR   Ar   97   3.847   2.206  -0.726
    1   AR   Ar   98   2.530   4.742   1.630
    1   AR   Ar   99   5.116   2.263  -1.162
    1   AR   Ar  100   1.189   4.455  -0.548
    1   AR   Ar  101   1.533   2.592   0.807
    1   AR   Ar  102   2.731   3.799   3.629
    1   AR   Ar  103   1.770   3.475   0.203
    1   AR   Ar  104   2.755   3.427  -1.450
    1   AR   Ar  105   1.497   3.229   3.742
    1   AR   Ar  106   1.911   3.317   4.666
    1   AR   Ar  107   2.307   4.002   5.426
    1   AR   Ar  108   3.460   2.970   4.379
    1   AR   Ar  109   1.500   4.216   4.288
    1   AR   Ar  110   1.443   4.797   5.346
    1   AR   Ar  111   3.936   4.947   7.238
    1   AR   Ar  112   1.199   5.074   7.065
    1   AR   Ar  113   2.380   4.491   0.547
    1   AR   Ar  114   2.564   6.619   0.626
    1   AR   Ar  115   3.181   5.234  -0.249
    1   AR   Ar  116   4.540   6.389   0.047
    1   AR   Ar  117   0.889   5.057   3.077
    1   AR   Ar  118   1.192   6.172   2.616
    1   AR   Ar  119   2.033   3.882   2.865
    1   AR   Ar  120   1.628   5.000   2.275
    1   AR   Ar  121   6.614   4.212   4.017
    1   AR   Ar  122   2.575   6.017   4.572
    1   AR   Ar  123   2.512   4.981   4.437
    1   AR   Ar  124   2.146   5.810   3.528
    1   AR   Ar  125   0.574   4.694   4.578
    1   AR   Ar  126   0.616   6.671   6.089
    1   AR   Ar  127   3.038   5.484   7.091
    1   AR   Ar  128   2.386   5.824   6.351
    1   AR   Ar  129   2.145   0.139   1.284
    1   AR   Ar  130   4.353   1.053  -1.572
    1   AR   Ar  131   4.353   6.741   1.076
    1   AR   Ar  132   6.289   2.184  -1.031
    1   AR   Ar  133   3.608   0.037   2.843
    1   AR   Ar  134   3.957   1.793   2.650
    1   AR   Ar  135   4.772   0.481   3.130
    1   AR   Ar  136   4.227   0.676   2.183
    1   AR   Ar  137   2.950   6.639   3.735
    1   AR   Ar  138   4.738   1.349   5.139
    1   AR   Ar  139   5.688   1.167   4.480
    1   AR   Ar  140   4.287   0.866   3.968
    1   AR   Ar  141   3.942   7.047   3.867
    1   AR   Ar  142   4.551   6.971   5.315
    1   AR   Ar  143   5.878   6.856   5.899
    1   AR   Ar  144   5.440   0.688   6.672
    1   AR   Ar  145   3.016   3.343   0.565
    1   AR   Ar  146   4.237   2.708   1.763
    1   AR   Ar  147   5.495   1.950  -0.207
    1   AR   Ar  148   5.840   3.524  -2.578
    1   AR   Ar  149   3.973   1.789   0.462
    1   AR   Ar  150   2.947   1.598   2.890
    1   AR   Ar  151   3.844   1.974   3.740
    1   AR   Ar  152   2.901   3.130   1.694
    1   AR   Ar  153   3.168   1.307   3.900
    1   AR   Ar  154   3.754   1.713   4.766
    1   AR   Ar  155   5.704   0.929   5.651
    1   AR   Ar  156   3.896   3.821   3.580
    1   AR   Ar  157   3.414   2.148   5.617
    1   AR   Ar  158   1.750   1.399   6.606
    1   AR   Ar  159   4.477   0.657   6.242
    1   AR   Ar  160   3.924   3.226   6.936
    1   AR   Ar  161   4.928   2.369   0.705
    1   AR   Ar  162   4.385   5.321  -0.170
    1   AR   Ar  163   5.557   3.337   0.148
    1   AR   Ar  164   4.337   5.326   1.577
    1   AR   Ar  165   3.123   3.698   2.513
    1   AR   Ar  166   2.799   5.230   3.101
    1   AR   Ar  167   4.812   2.350   2.618
    1   AR   Ar  168   3.828   3.991  -0.247
    1   AR   Ar  169   2.902   2.568   3.545
    1   AR   Ar  170   3.160   4.015   4.573
    1   AR   Ar  171   4.355   3.450   4.933
    1   AR   Ar  172   4.505   5.027   4.294
    1   AR   Ar  173   2.516   2.954   6.487
    1   AR   Ar  174   4.306   4.671   6.189
    1   AR   Ar  175   4.461   3.425   6.069
    1   AR   Ar  176   3.543   5.199   4.860
    1   AR   Ar  177   5.372   5.780  -0.260
    1   AR   Ar  178   3.273   6.393   1.487
    1   AR   Ar  179   3.442   5.168   0.776
    1   AR   Ar  180   3.819   3.742  -1.533
    1   AR   Ar  181   2.976   5.684   2.138
    1   AR   Ar  182   2.160   6.580   2.222
    1   AR   Ar  183   3.369   4.709   2.413
    1   AR   Ar  184   4.419   6.348   2.153
    1   AR   Ar  185   1.298   5.363   4.381
    1   AR   Ar  186   3.440   5.602   3.942
    1   AR   Ar  187   4.610   5.630   3.312
    1   AR   Ar  188   3.621   5.975   2.981
    1   AR   Ar  189   2.697   4.955   5.605
    1   AR   Ar  190   4.279   5.868   5.813
    1   AR   Ar  191   5.343   6.047   5.408
    1   AR   Ar  192   4.217   6.131   4.703
    1   AR   Ar  193   6.380   6.501  -0.457
    1   AR   Ar  194   5.452   6.131  -1.372
    1   AR   Ar  195   5.886   1.056   0.162
    1   AR   Ar  196   5.758   1.011  -1.893
    1   AR   Ar  197   5.162   0.511   1.132
    1   AR   Ar  198   5.809   1.634   1.007
    1   AR   Ar  199   5.172   0.430   2.133
    1   AR   Ar  200   6.828   1.006   0.752
    1   AR   Ar  201   4.924   6.574   3.416
    1   AR   Ar  202   5.148   2.011   4.246
    1   AR   Ar  203   0.149   6.732   4.199
    1   AR   Ar  204   5.617   0.272   3.732
    1   AR   Ar  205   6.730   7.032   3.410
    1   AR   Ar  206   5.459   0.172   4.950
    1   AR   Ar  207   0.070   0.388   5.944
    1   AR   Ar  208   6.642   0.816   4.120
    1   AR   Ar  209   5.183   2.239  -2.162
    1   AR   Ar  210   4.770   1.538   1.356
    1   AR   Ar  211   6.195   2.716   0.622
    1   AR   Ar  212   6.201   4.149  -1.419
    1   AR   Ar  213   3.513   2.706   2.526
    1   AR   Ar  214   4.303   3.269   2.699
    1   AR   Ar  215   6.107   2.359   2.376
    1   AR   Ar  216   6.671   3.417   2.222
    1   AR   Ar  217   4.530   2.805   4.040
    1   AR   Ar  218   4.515   2.431   5.285
    1   AR   Ar  219   5.477   1.380   3.175
    1   AR   Ar  220   5.403   3.202   2.805
    1   AR   Ar  221   6.794   0.164   4.935
    1   AR   Ar  222   5.058   1.771   6.228
    1   AR   Ar  223   6.557   0.759   6.633
    1   AR   Ar  224   5.590   2.242   5.371
    1   AR   Ar  225   5.350   4.603   0.354
    1   AR   Ar  226   4.739   4.250   2.557
    1   AR   Ar  227   7.048   4.691   0.300
    1   AR   Ar  228   6.031   5.461   0.508
    1   AR   Ar  229   5.803   3.968   1.048
    1   AR   Ar  230   3.827   4.818   3.284
    1   AR   Ar  231   6.902   2.524   3.434
    1   AR   Ar  232   4.597   3.643   1.335
    1   AR   Ar  233   6.029   2.852   4.006
    1   AR   Ar  234   6.289   3.806   4.963
    1   AR   Ar  235   0.301   3.632   4.467
    1   AR   Ar  236   5.314   4.428   3.571
    1   AR   Ar  237   5.450   3.145   4.853
    1   AR   Ar  238   4.966   4.173   5.331
    1   AR   Ar  239   6.585   4.641   8.402
    1   AR   Ar  240   0.017   4.104   5.307
    1   AR   Ar  241   6.715   0.392  -0.354
    1   AR   Ar  242   5.168   5.970   0.816
    1   AR   Ar  243   5.585   3.898   2.023
    1   AR   Ar  244   6.832   5.630  -0.569
    1   AR   Ar  245   5.444   6.434   2.426
    1   AR   Ar  246   6.071   6.357   1.255
    1   AR   Ar  247   5.652   2.915   1.579
    1   AR   Ar  248   5.990   7.071   0.489
    1   AR   Ar  249   5.746   5.353   2.588
    1   AR   Ar  250   5.233   6.192   4.399
    1   AR   Ar  251   5.631   5.117   4.692
    1   AR   Ar  252   5.995   5.855   3.522
    1   AR   Ar  253   5.776   4.861   5.802
    1   AR   Ar  254   5.059   5.530   6.386
    1   AR   Ar  255   5.367   4.687   7.357
    1   AR   Ar  256   6.336   6.262   4.905
    7.12000  7.12000 12.00000
Argon-slab step 1585
  256
    1   AR   Ar    1   6.828   1.172  -1.338
    1   AR   Ar    2   6.352   0.411   1.508
    1   AR   Ar    3   0.029   0.081   0.898
    1   AR   Ar    4   0.580   0.605   0.031
    1   AR   Ar    5   0.061   5.765   0.689
    1   AR   Ar    6   0.442   0.191   2.994
    1   AR   Ar    7   0.302   5.718   2.281
    1   AR   Ar    8   0.084   6.820   1.939
    1   AR   Ar    9   0.559   0.931   3.984
    1   AR   Ar   10   0.244   1.916   4.133
    1   AR   Ar   11   2.280   0.016   4.583
    1   AR   Ar   12   1.117   0.916   2.864
    1   AR   Ar   13   6.453   1.489   5.381
    1   AR   Ar   14   0.221   1.411   6.386
    1   AR   Ar   15   0.444   6.133   8.463
    1   AR   Ar   16   0.588   1.176   5.306
    1   AR   Ar   17   0.016   1.535  -0.394
    1   AR   Ar   18   6.538   3.297  -0.711
    1   AR   Ar   19   0.751   1.710   1.356
    1   AR   Ar   20   6.687   2.284  -2.426
    1   AR   Ar   21   6.194   1.078   2.309
    1   AR   Ar   22   7.098   2.442   2.183
    1   AR   Ar   23   0.193   0.778   1.940
    1   AR   Ar   24   0.122   2.486   0.955
    1   AR   Ar   25   7.056   1.390   3.018
    1   AR   Ar   26   6.273   1.671   3.698
    1   AR   Ar   27   1.947   1.205   3.390
    1   AR   Ar   28   0.909   2.687   4.608
    1   AR   Ar   29   6.269   1.820   6.449
    1   AR   Ar   30   0.157   2.556   5.986
    1   AR   Ar   31   0.354   0.163   7.074
    1   AR   Ar   32   1.325   2.623   6.029
    1   AR   Ar   33   1.369   4.212  -1.652
    1   AR   Ar   34   0.947   5.492   1.457
    1   AR   Ar   35   0.526   3.640   0.962
    1   AR   Ar   36   0.724   0.125  -1.529
    1   AR   Ar   37   0.704   3.188   2.058
    1   AR   Ar   38   6.833   4.594   2.196
    1   AR   Ar   39   0.837   4.265   2.272
    1   AR   Ar   40   1.990   3.840   1.363
    1   AR   Ar   41   0.781   2.412   3.453
    1   AR   Ar   42   6.640   5.209   5.340
    1   AR   Ar   43   6.597   2.779   5.177
    1   AR   Ar   44   0.531   3.562   3.216
    1   AR   Ar   45   1.076   3.560   5.204
    1   AR   Ar   46   7.058   5.418   6.361
    1   AR   Ar   47   6.364   3.455   5.998
    1   AR   Ar   48   6.810   6.708   6.682
    1   AR   Ar   49   6.448   5.182  -1.513
    1   AR   Ar   50   6.316   5.408   1.714
    1   AR   Ar   51   1.502   4.953   0.735
    1   AR   Ar   52   0.227   4.512  -0.840
    1   AR   Ar   53   6.553   6.390   2.612
    1   AR   Ar   54   0.407   6.262   3.212
    1   AR   Ar   55   6.890   5.129   3.278
    1   AR   Ar   56   1.421   6.476   1.395
    1   AR   Ar   57   6.501   3.415   3.235
    1   AR   Ar   58   6.683   5.361   4.240
    1   AR   Ar   59   2.026   5.746   5.393
    1   AR   Ar   60   1.298   6.499   4.095
    1   AR   Ar   61   6.165   5.798   6.098
    1   AR   Ar   62   0.489   5.601   5.018
    1   AR   Ar   63   1.351   5.755   6.211
    1   AR   Ar   64   1.311   7.017   5.059
    1   AR   Ar   65   2.971   0.338  -0.044
    1   AR   Ar   66   1.932   1.082   1.122
    1   AR   Ar   67   3.305   6.197  -0.008
    1   AR   Ar   68   3.184   0.737  -0.990
    1   AR   Ar   69   1.905   0.090   0.152
    1   AR   Ar   70   1.026   0.199   2.158
    1   AR   Ar   71   3.187   0.379   1.898
    1   AR   Ar   72   3.508   0.563   0.810
    1   AR   Ar   73   1.829   0.144   3.101
    1   AR   Ar   74   1.426   1.427   4.401
    1   AR   Ar   75   3.456   0.556   4.901
    1   AR   Ar   76   2.063   0.907   2.154
    1   AR   Ar   77   2.405   6.714   5.640
    1   AR   Ar   78   1.056   0.726   6.226
    1   AR   Ar   79   3.789   6.165   7.015
    1   AR   Ar   80   3.288   6.118   5.599
    1   AR   Ar   81   1.482   1.216   0.082
    1   AR   Ar   82   0.593   3.521  -0.237
    1   AR   Ar   83   2.609   2.279   0.545
    1   AR   Ar   84   1.853   4.121  -3.447
    1   AR   Ar   85   1.179   2.685  -0.596
    1   AR   Ar   86   1.690   2.803   1.909
    1   AR   Ar   87   2.520   1.743   1.993
    1   AR   Ar   88   3.339   4.275   1.323
    1   AR   Ar   89   0.789   1.806   2.556
    1   AR   Ar   90   2.793   2.148   4.757
    1   AR   Ar   91   1.859   2.319   4.117
    1   AR   Ar   92   1.968   2.243   2.822
    1   AR   Ar   93   1.700   2.124   5.224
    1   AR   Ar   94   3.008   0.512   7.166
    1   AR   Ar   95   3.505   7.103   5.798
    1   AR   Ar   96   2.505   0.861   6.322
    1   AR   Ar   97   3.846   2.253  -0.743
    1   AR   Ar   98   2.504   4.741   1.642
    1   AR   Ar   99   5.166   2.245  -1.140
    1   AR   Ar  100   1.184   4.454  -0.564
    1   AR   Ar  101   1.585   2.586   0.800
    1   AR   Ar  102   2.729   3.777   3.633
    1   AR   Ar  103   1.740   3.488   0.228
    1   AR   Ar  104   2.757   3.415  -1.443
    1   AR   Ar  105   1.496   3.218   3.750
    1   AR   Ar  106   1.930   3.321   4.636
    1   AR   Ar  107   2.293   3.998   5.424
    1   AR   Ar  108   3.468   2.991   4.389
    1   AR   Ar  109   1.501   4.186   4.252
    1   AR   Ar  110   1.450   4.794   5.314
    1   AR   Ar  111   3.981   4.961   7.226
    1   AR   Ar  112   1.204   5.068   7.031
    1   AR   Ar  113   2.379   4.526   0.550
    1   AR   Ar  114   2.542   6.623   0.612
    1   AR   Ar  115   3.179   5.210  -0.249
    1   AR   Ar  116   4.524   6.403   0.042
    1   AR   Ar  117   0.855   5.089   3.103
    1   AR   Ar  118   1.187   6.182   2.679
    1   AR   Ar  119   2.075   3.891   2.887
    1   AR   Ar  120   1.634   5.018   2.248
    1   AR   Ar  121   6.656   4.192   4.037
    1   AR   Ar  122   2.551   6.022   4.571
    1   AR   Ar  123   2.512   4.968   4.476
    1   AR   Ar  124   2.135   5.818   3.511
    1   AR   Ar  125   0.571   4.670   4.526
    1   AR   Ar  126   0.642   6.640   6.061
    1   AR   Ar  127   3.030   5.491   7.094
    1   AR   Ar  128   2.376   5.783   6.373
    1   AR   Ar  129   2.096   0.140   1.262
    1   AR   Ar  130   4.333   1.054  -1.575
    1   AR   Ar  131   4.348   6.746   1.082
    1   AR   Ar  132   6.324   2.216  -1.043
    1   AR   Ar  133   3.622   0.024   2.852
    1   AR   Ar  134   3.971   1.791   2.628
    1   AR   Ar  135   4.770   0.523   3.111
    1   AR   Ar  136   4.211   0.650   2.157
    1   AR   Ar  137   2.939   6.669   3.710
    1   AR   Ar  138   4.739   1.358   5.140
    1   AR   Ar  139   5.703   1.213   4.476
    1   AR   Ar  140   4.276   0.860   3.971
    1   AR   Ar  141   3.921   7.073   3.814
    1   AR   Ar  142   4.523   6.943   5.278
    1   AR   Ar  143   5.903   6.870   5.929
    1   AR   Ar  144   5.431   0.685   6.667
    1   AR   Ar  145   3.047   3.383   0.599
    1   AR   Ar  146   4.228   2.701   1.754
    1   AR   Ar  147   5.485   1.962  -0.229
    1   AR   Ar  148   5.822   3.531  -2.570
    1   AR   Ar  149   3.953   1.805   0.454
    1   AR   Ar  150   2.961   1.635   2.884
    1   AR   Ar  151   3.861   1.990   3.703
    1   AR   Ar  152   2.924   3.130   1.647
    1   AR   Ar  153   3.174   1.311   3.906
    1   AR   Ar  154   3.773   1.719   4.757
    1   AR   Ar  155   5.700   0.950   5.661
    1   AR   Ar  156   3.893   3.821   3.565
    1   AR   Ar  157   3.383   2.169   5.630
    1   AR   Ar  158   1.753   1.430   6.646
    1   AR   Ar  159   4.462   0.661   6.237
    1   AR   Ar  160   3.905   3.228   6.932
    1   AR   Ar  161   4.944   2.348   0.732
    1   AR   Ar  162   4.351   5.315  -0.179
    1   AR   Ar  163   5.544   3.385   0.168
    1   AR   Ar  164   4.350   5.307   1.610
    1   AR   Ar  165   3.151   3.697   2.536
    1   AR   Ar  166   2.824   5.231   3.107
    1   AR   Ar  167   4.828   2.372   2.657
    1   AR   Ar  168   3.832   3.973  -0.271
    1   AR   Ar  169   2.894   2.557   3.539
    1   AR   Ar  170   3.162   4.036   4.592
    1   AR   Ar  171   4.364   3.468   4.944
    1   AR   Ar  172   4.499   5.041   4.298
    1   AR   Ar  173   2.521   2.981   6.490
    1   AR   Ar  174   4.296   4.661   6.188
    1   AR   Ar  175   4.461   3.399   6.053
    1   AR   Ar  176   3.548   5.223   4.879
    1   AR   Ar  177   5.368   5.757  -0.251
    1   AR   Ar  178   3.280   6.418   1.463
    1   AR   Ar  179   3.457   5.155   0.781
    1   AR   Ar  180   3.797   3.743  -1.537
    1   AR   Ar  181   2.908   5.707   2.112
    1   AR   Ar  182   2.156   6.576   2.250
    1   AR   Ar  183   3.360   4.700   2.418
    1   AR   Ar  184   4.401   6.338   2.159
    1   AR   Ar  185   1.310   5.389   4.405
    1   AR   Ar  186   3.469   5.602   3.954
    1   AR   Ar  187   4.609   5.661   3.289
    1   AR   Ar  188   3.652   5.976   2.966
    1   AR   Ar  189   2.714   4.969   5.618
    1   AR   Ar  190   4.246   5.861   5.843
    1   AR   Ar  191   5.331   6.028   5.434
    1   AR   Ar  192   4.216   6.145   4.675
    1   AR   Ar  193   6.404   6.508  -0.450
    1   AR   Ar  194   5.474   6.119  -1.379
    1   AR   Ar  195   5.893   1.006   0.128
    1   AR   Ar  196   5.758   1.024  -1.898
    1   AR   Ar  197   5.147   0.556   1.103
    1   AR   Ar  198   5.802   1.653   0.991
    1   AR   Ar  199   5.178   0.458   2.113
    1   AR   Ar  200   6.817   1.005   0.756
    1   AR   Ar  201   4.923   6.611   3.416
    1   AR   Ar  202   5.126   1.965   4.251
    1   AR   Ar  203   0.151   6.701   4.226
    1   AR   Ar  204   5.631   0.292   3.717
    1   AR   Ar  205   6.704   7.041   3.374
    1   AR   Ar  206   5.465   0.170   4.967
    1   AR   Ar  207   0.068   0.411   5.949
    1   AR   Ar  208   6.601   0.801   4.115
    1   AR   Ar  209   5.166   2.250  -2.151
    1   AR   Ar  210   4.752   1.526   1.370
    1   AR   Ar  211   6.219   2.717   0.607
    1   AR   Ar  212   6.191   4.175  -1.438
    1   AR   Ar  213   3.491   2.683   2.511
    1   AR   Ar  214   4.333   3.270   2.684
    1   AR   Ar  215   6.143   2.360   2.376
    1   AR   Ar  216   6.651   3.439   2.227
    1   AR   Ar  217   4.532   2.800   4.028
    1   AR   Ar  218   4.508   2.400   5.280
    1   AR   Ar  219   5.478   1.424   3.192
    1   AR   Ar  220   5.401   3.196   2.767
    1   AR   Ar  221   6.820   0.171   4.933
    1   AR   Ar  222   5.080   1.796   6.244
    1   AR   Ar  223   6.522   0.768   6.664
    1   AR   Ar  224   5.603   2.252   5.355
    1   AR   Ar  225   5.347   4.581   0.342
    1   AR   Ar  226   4.762   4.259   2.542
    1   AR   Ar  227   7.049   4.712   0.284
    1   AR   Ar  228   5.993   5.475   0.504
    1   AR   Ar  229   5.794   3.992   1.031
    1   AR   Ar  230   3.868   4.823   3.307
    1   AR   Ar  231   6.884   2.535   3.427
    1   AR   Ar  232   4.585   3.626   1.303
    1   AR   Ar  233   6.006   2.847   3.989
    1   AR   Ar  234   6.300   3.759   4.937
    1   AR   Ar  235   0.313   3.580   4.442
    1   AR   Ar  236   5.326   4.413   3.592
    1   AR   Ar  237   5.455   3.162   4.846
    1   AR   Ar  238   4.987   4.185   5.335
    1   AR   Ar  239   6.565   4.623   8.431
    1   AR   Ar  240   0.076   4.096   5.284
    1   AR   Ar  241   6.751   0.350  -0.363
    1   AR   Ar  242   5.160   5.973   0.843
    1   AR   Ar  243   5.614   3.912   2.024
    1   AR   Ar  244   6.885   5.616  -0.544
    1   AR   Ar  245   5.467   6.430   2.439
    1   AR   Ar  246   6.080   6.395   1.269
    1   AR   Ar  247   5.647   2.905   1.608
    1   AR   Ar  248   6.006   7.087   0.498
    1   AR   Ar  249   5.756   5.355   2.560
    1   AR   Ar  250   5.208   6.185   4.373
    1   AR   Ar  251   5.596   5.133   4.693
    1   AR   Ar  252   5.970   5.857   3.485
    1   AR   Ar  253   5.765   4.855   5.784
    1   AR   Ar  254   5.051   5.513   6.375
    1   AR   Ar  255   5.363   4.671   7.368
    1   AR   Ar  256   6.332   6.253   4.895
    7.12000  7.12000 12.00000
Argon-slab step 1590
  256
    1   AR   Ar    1   6.848   1.178  -1.321
    1   AR   Ar    2   6.333   0.418   1.501
    1   AR   Ar    3   0.008   0.091   0.898
    1   AR   Ar    4   0.621   0.594   0.040
    1   AR   Ar    5   0.063   5.762   0.679
    1   AR   Ar    6   0.434   0.191   3.006
    1   AR   Ar    7   0.299   5.724   2.277
    1   AR   Ar    8   0.051   6.822   1.946
    1   AR   Ar    9   0.607   0.922   3.997
    1   AR   Ar   10   0.229   1.936   4.126
    1   AR   Ar   11   2.284   0.015   4.589
    1   AR   Ar   12   1.101   0.919   2.889
    1   AR   Ar   13   6.447   1.491   5.359
    1   AR   Ar   14   0.230   1.403   6.399
    1   AR   Ar   15   0.466   6.123   8.474
    1   AR   Ar   16   0.592   1.196   5.337
    1   AR   Ar   17   0.009   1.522  -0.377
    1   AR   Ar   18   6.514   3.269  -0.735
    1   AR   Ar   19   0.765   1.714   1.363
    1   AR   Ar   20   6.700   2.283  -2.426
    1   AR   Ar   21   6.185   1.080   2.324
    1   AR   Ar   22   7.085   2.427   2.191
    1   AR   Ar   23   0.190   0.815   1.862
    1   AR   Ar   24   0.106   2.481   0.958
    1   AR   Ar   25   7.055   1.399   3.027
    1   AR   Ar   26   6.292   1.661   3.711
    1   AR   Ar   27   1.938   1.205   3.399
    1   AR   Ar   28   0.913   2.673   4.620
    1   AR   Ar   29   6.283   1.809   6.448
    1   AR   Ar   30   0.139   2.539   5.974
    1   AR   Ar   31   0.371   0.166   7.036
    1   AR   Ar   32   1.341   2.629   6.034
    1   AR   Ar   33   1.362   4.213  -1.665
    1   AR   Ar   34   0.908   5.499   1.456
    1   AR   Ar   35   0.507   3.617   1.001
    1   AR   Ar   36   0.711   0.134  -1.516
    1   AR   Ar   37   0.676   3.214   2.068
    1   AR   Ar   38   6.817   4.562   2.193
    1   AR   Ar   39   0.856   4.260   2.245
    1   AR   Ar   40   2.020   3.810   1.353
    1   AR   Ar   41   0.780   2.411   3.488
    1   AR   Ar   42   6.642   5.196   5.348
    1   AR   Ar   43   6.599   2.750   5.161
    1   AR   Ar   44   0.550   3.566   3.222
    1   AR   Ar   45   1.062   3.570   5.225
    1   AR   Ar   46   7.089   5.412   6.382
    1   AR   Ar   47   6.309   3.489   5.946
    1   AR   Ar   48   6.774   6.703   6.685
    1   AR   Ar   49   6.472   5.190  -1.507
    1   AR   Ar   50   6.289   5.420   1.711
    1   AR   Ar   51   1.481   4.970   0.748
    1   AR   Ar   52   0.231   4.488  -0.838
    1   AR   Ar   53   6.572   6.386   2.615
    1   AR   Ar   54   0.398   6.280   3.221
    1   AR   Ar   55   6.879   5.100   3.288
    1   AR   Ar   56   1.426   6.459   1.391
    1   AR   Ar   57   6.490   3.437   3.224
    1   AR   Ar   58   6.706   5.365   4.278
    1   AR   Ar   59   1.981   5.700   5.386
    1   AR   Ar   60   1.302   6.491   4.088
    1   AR   Ar   61   6.161   5.817   6.115
    1   AR   Ar   62   0.513   5.626   5.042
    1   AR   Ar   63   1.330   5.776   6.224
    1   AR   Ar   64   1.316   7.040   5.015
    1   AR   Ar   65   2.960   0.355  -0.053
    1   AR   Ar   66   1.924   1.103   1.116
    1   AR   Ar   67   3.294   6.208  -0.027
    1   AR   Ar   68   3.192   0.746  -0.996
    1   AR   Ar   69   1.894   0.107   0.146
    1   AR   Ar   70   1.035   0.193   2.144
    1   AR   Ar   71   3.161   0.412   1.873
    1   AR   Ar   72   3.459   0.530   0.790
    1   AR   Ar   73   1.819   0.174   3.084
    1   AR   Ar   74   1.418   1.454   4.409
    1   AR   Ar   75   3.461   0.569   4.903
    1   AR   Ar   76   2.063   0.905   2.156
    1   AR   Ar   77   2.399   6.726   5.664
    1   AR   Ar   78   1.029   0.706   6.240
    1   AR   Ar   79   3.794   6.169   7.013
    1   AR   Ar   80   3.299   6.110   5.614
    1   AR   Ar   81   1.459   1.240   0.091
    1   AR   Ar   82   0.587   3.528  -0.279
    1   AR   Ar   83   2.626   2.287   0.563
    1   AR   Ar   84   1.863   4.102  -3.422
    1   AR   Ar   85   1.169   2.708  -0.621
    1   AR   Ar   86   1.679   2.826   1.916
    1   AR   Ar   87   2.530   1.779   1.998
    1   AR   Ar   88   3.352   4.299   1.285
    1   AR   Ar   89   0.803   1.799   2.554
    1   AR   Ar   90   2.832   2.145   4.758
    1   AR   Ar   91   1.857   2.293   4.103
    1   AR   Ar   92   1.986   2.255   2.818
    1   AR   Ar   93   1.705   2.132   5.202
    1   AR   Ar   94   3.004   0.535   7.134
    1   AR   Ar   95   3.508   7.109   5.807
    1   AR   Ar   96   2.550   0.857   6.321
    1   AR   Ar   97   3.846   2.299  -0.759
    1   AR   Ar   98   2.472   4.745   1.656
    1   AR   Ar   99   5.213   2.229  -1.118
    1   AR   Ar  100   1.188   4.452  -0.576
    1   AR   Ar  101   1.635   2.580   0.796
    1   AR   Ar  102   2.734   3.753   3.643
    1   AR   Ar  103   1.710   3.503   0.253
    1   AR   Ar  104   2.784   3.413  -1.416
    1   AR   Ar  105   1.489   3.210   3.745
    1   AR   Ar  106   1.959   3.321   4.613
    1   AR   Ar  107   2.278   3.994   5.421
    1   AR   Ar  108   3.477   3.011   4.398
    1   AR   Ar  109   1.501   4.160   4.215
    1   AR   Ar  110   1.447   4.793   5.301
    1   AR   Ar  111   4.028   4.976   7.213
    1   AR   Ar  112   1.209   5.062   6.998
    1   AR   Ar  113   2.389   4.556   0.550
    1   AR   Ar  114   2.567   6.610   0.616
    1   AR   Ar  115   3.176   5.180  -0.252
    1   AR   Ar  116   4.546   6.405   0.066
    1   AR   Ar  117   0.823   5.123   3.129
    1   AR   Ar  118   1.202   6.191   2.729
    1   AR   Ar  119   2.109   3.902   2.902
    1   AR   Ar  120   1.641   5.038   2.221
    1   AR   Ar  121   6.697   4.177   4.054
    1   AR   Ar  122   2.532   6.031   4.565
    1   AR   Ar  123   2.511   4.952   4.515
    1   AR   Ar  124   2.116   5.834   3.499
    1   AR   Ar  125   0.563   4.641   4.471
    1   AR   Ar  126   0.669   6.608   6.033
    1   AR   Ar  127   3.020   5.491   7.101
    1   AR   Ar  128   2.369   5.745   6.393
    1   AR   Ar  129   2.050   0.131   1.249
    1   AR   Ar  130   4.313   1.055  -1.576
    1   AR   Ar  131   4.342   6.752   1.089
    1   AR   Ar  132   6.359   2.245  -1.054
    1   AR   Ar  133   3.634   0.010   2.854
    1   AR   Ar  134   3.988   1.781   2.605
    1   AR   Ar  135   4.767   0.566   3.089
    1   AR   Ar  136   4.185   0.627   2.131
    1   AR   Ar  137   2.926   6.697   3.685
    1   AR   Ar  138   4.744   1.365   5.140
    1   AR   Ar  139   5.723   1.246   4.480
    1   AR   Ar  140   4.297   0.881   3.984
    1   AR   Ar  141   3.903   7.088   3.769
    1   AR   Ar  142   4.514   6.931   5.255
    1   AR   Ar  143   5.929   6.885   5.959
    1   AR   Ar  144   5.425   0.683   6.663
    1   AR   Ar  145   3.077   3.425   0.632
    1   AR   Ar  146   4.221   2.692   1.743
    1   AR   Ar  147   5.479   1.974  -0.241
    1   AR   Ar  148   5.805   3.538  -2.561
    1   AR   Ar  149   3.934   1.820   0.446
    1   AR   Ar  150   2.975   1.672   2.885
    1   AR   Ar  151   3.886   2.015   3.662
    1   AR   Ar  152   2.946   3.129   1.599
    1   AR   Ar  153   3.172   1.307   3.915
    1   AR   Ar  154   3.795   1.723   4.746
    1   AR   Ar  155   5.684   0.963   5.677
    1   AR   Ar  156   3.882   3.810   3.539
    1   AR   Ar  157   3.355   2.193   5.648
    1   AR   Ar  158   1.749   1.469   6.690
    1   AR   Ar  159   4.446   0.664   6.228
    1   AR   Ar  160   3.884   3.229   6.930
    1   AR   Ar  161   4.961   2.331   0.758
    1   AR   Ar  162   4.332   5.307  -0.189
    1   AR   Ar  163   5.528   3.434   0.185
    1   AR   Ar  164   4.362   5.288   1.642
    1   AR   Ar  165   3.179   3.694   2.563
    1   AR   Ar  166   2.853   5.227   3.114
    1   AR   Ar  167   4.846   2.384   2.696
    1   AR   Ar  168   3.835   3.956  -0.294
    1   AR   Ar  169   2.886   2.545   3.532
    1   AR   Ar  170   3.164   4.059   4.613
    1   AR   Ar  171   4.368   3.483   4.951
    1   AR   Ar  172   4.493   5.056   4.302
    1   AR   Ar  173   2.526   3.007   6.492
    1   AR   Ar  174   4.287   4.650   6.185
    1   AR   Ar  175   4.463   3.374   6.034
    1   AR   Ar  176   3.553   5.245   4.907
    1   AR   Ar  177   5.359   5.753  -0.243
    1   AR   Ar  178   3.289   6.448   1.435
    1   AR   Ar  179   3.472   5.148   0.786
    1   AR   Ar  180   3.777   3.744  -1.541
    1   AR   Ar  181   2.838   5.727   2.090
    1   AR   Ar  182   2.153   6.573   2.277
    1   AR   Ar  183   3.345   4.660   2.422
    1   AR   Ar  184   4.382   6.329   2.165
    1   AR   Ar  185   1.331   5.417   4.425
    1   AR   Ar  186   3.495   5.606   3.962
    1   AR   Ar  187   4.609   5.685   3.265
    1   AR   Ar  188   3.681   5.979   2.948
    1   AR   Ar  189   2.733   4.985   5.630
    1   AR   Ar  190   4.214   5.855   5.870
    1   AR   Ar  191   5.318   6.009   5.460
    1   AR   Ar  192   4.210   6.155   4.646
    1   AR   Ar  193   6.421   6.514  -0.442
    1   AR   Ar  194   5.498   6.107  -1.385
    1   AR   Ar  195   5.901   0.955   0.094
    1   AR   Ar  196   5.759   1.038  -1.902
    1   AR   Ar  197   5.134   0.599   1.065
    1   AR   Ar  198   5.790   1.681   0.969
    1   AR   Ar  199   5.197   0.482   2.099
    1   AR   Ar  200   6.820   1.011   0.751
    1   AR   Ar  201   4.923   6.655   3.415
    1   AR   Ar  202   5.097   1.929   4.254
    1   AR   Ar  203   0.156   6.666   4.251
    1   AR   Ar  204   5.646   0.312   3.704
    1   AR   Ar  205   6.666   7.052   3.347
    1   AR   Ar  206   5.474   0.168   4.980
    1   AR   Ar  207   0.065   0.434   5.951
    1   AR   Ar  208   6.563   0.781   4.109
    1   AR   Ar  209   5.150   2.261  -2.147
    1   AR   Ar  210   4.719   1.509   1.380
    1   AR   Ar  211   6.243   2.716   0.594
    1   AR   Ar  212   6.181   4.196  -1.456
    1   AR   Ar  213   3.461   2.660   2.499
    1   AR   Ar  214   4.361   3.278   2.671
    1   AR   Ar  215   6.149   2.358   2.377
    1   AR   Ar  216   6.643   3.445   2.221
    1   AR   Ar  217   4.533   2.805   4.020
    1   AR   Ar  218   4.500   2.372   5.275
    1   AR   Ar  219   5.468   1.463   3.202
    1   AR   Ar  220   5.405   3.196   2.732
    1   AR   Ar  221   6.842   0.180   4.938
    1   AR   Ar  222   5.097   1.813   6.255
    1   AR   Ar  223   6.485   0.777   6.696
    1   AR   Ar  224   5.617   2.256   5.339
    1   AR   Ar  225   5.340   4.564   0.325
    1   AR   Ar  226   4.782   4.269   2.529
    1   AR   Ar  227   7.050   4.733   0.268
    1   AR   Ar  228   5.967   5.486   0.504
    1   AR   Ar  229   5.789   4.011   1.014
    1   AR   Ar  230   3.913   4.833   3.332
    1   AR   Ar  231   6.867   2.536   3.417
    1   AR   Ar  232   4.575   3.611   1.271
    1   AR   Ar  233   5.981   2.840   3.973
    1   AR   Ar  234   6.307   3.714   4.909
    1   AR   Ar  235   0.320   3.524   4.431
    1   AR   Ar  236   5.337   4.400   3.612
    1   AR   Ar  237   5.454   3.180   4.839
    1   AR   Ar  238   5.013   4.201   5.340
    1   AR   Ar  239   6.546   4.605   8.459
    1   AR   Ar  240   0.138   4.092   5.269
    1   AR   Ar  241   6.787   0.313  -0.372
    1   AR   Ar  242   5.149   5.951   0.892
    1   AR   Ar  243   5.644   3.927   2.030
    1   AR   Ar  244   6.942   5.595  -0.517
    1   AR   Ar  245   5.494   6.425   2.454
    1   AR   Ar  246   6.091   6.432   1.287
    1   AR   Ar  247   5.635   2.879   1.625
    1   AR   Ar  248   6.015   7.090   0.507
    1   AR   Ar  249   5.762   5.355   2.537
    1   AR   Ar  250   5.189   6.178   4.346
    1   AR   Ar  251   5.594   5.140   4.683
    1   AR   Ar  252   5.945   5.861   3.450
    1   AR   Ar  253   5.751   4.846   5.768
    1   AR   Ar  254   5.048   5.494   6.367
    1   AR   Ar  255   5.359   4.651   7.343
    1   AR   Ar  256   6.327   6.244   4.886
    7.12000  7.12000 12.00000
Argon-slab step 1595
  256
    1   AR   Ar    1   6.867   1.183  -1.307
    1   AR   Ar    2   6.310   0.423   1.496
    1   AR   Ar    3   0.010   0.064   0.919
    1   AR   Ar    4   0.660   0.582   0.051
    1   AR   Ar    5   0.062   5.759   0.669
    1   AR   Ar    6   0.445   0.203   3.017
    1   AR   Ar    7   0.292   5.729   2.276
    1   AR   Ar    8   0.022   6.828   1.948
    1   AR   Ar    9   0.653   0.909   4.006
    1   AR   Ar   10   0.242   1.944   4.116
    1   AR   Ar   11   2.321   0.026   4.623
    1   AR   Ar   12   1.088   0.923   2.917
    1   AR   Ar   13   6.453   1.499   5.333
    1   AR   Ar   14   0.238   1.398   6.412
    1   AR   Ar   15   0.460   6.118   8.496
    1   AR   Ar   16   0.596   1.217   5.366
    1   AR   Ar   17   0.001   1.510  -0.356
    1   AR   Ar   18   6.490   3.243  -0.758
    1   AR   Ar   19   0.780   1.716   1.371
    1   AR   Ar   20   6.711   2.282  -2.426
    1   AR   Ar   21   6.175   1.084   2.341
    1   AR   Ar   22   7.090   2.411   2.195
    1   AR   Ar   23   0.186   0.855   1.786
    1   AR   Ar   24   0.090   2.476   0.962
    1   AR   Ar   25   7.056   1.406   3.036
    1   AR   Ar   26   6.318   1.663   3.726
    1   AR   Ar   27   1.936   1.210   3.410
    1   AR   Ar   28   0.927   2.650   4.631
    1   AR   Ar   29   6.296   1.799   6.445
    1   AR   Ar   30   0.122   2.520   5.962
    1   AR   Ar   31   0.397   0.176   7.000
    1   AR   Ar   32   1.355   2.638   6.042
    1   AR   Ar   33   1.354   4.213  -1.678
    1   AR   Ar   34   0.869   5.506   1.455
    1   AR   Ar   35   0.488   3.593   1.041
    1   AR   Ar   36   0.696   0.143  -1.503
    1   AR   Ar   37   0.646   3.240   2.078
    1   AR   Ar   38   6.796   4.525   2.192
    1   AR   Ar   39   0.874   4.257   2.220
    1   AR   Ar   40   2.050   3.778   1.341
    1   AR   Ar   41   0.783   2.421   3.511
    1   AR   Ar   42   6.646   5.183   5.355
    1   AR   Ar   43   6.595   2.745   5.157
    1   AR   Ar   44   0.567   3.569   3.228
    1   AR   Ar   45   1.051   3.580   5.247
    1   AR   Ar   46   0.004   5.405   6.403
    1   AR   Ar   47   6.255   3.521   5.895
    1   AR   Ar   48   6.731   6.692   6.681
    1   AR   Ar   49   6.497   5.203  -1.500
    1   AR   Ar   50   6.269   5.433   1.698
    1   AR   Ar   51   1.456   4.988   0.761
    1   AR   Ar   52   0.224   4.465  -0.839
    1   AR   Ar   53   6.585   6.370   2.616
    1   AR   Ar   54   0.368   6.296   3.244
    1   AR   Ar   55   6.867   5.070   3.293
    1   AR   Ar   56   1.426   6.446   1.384
    1   AR   Ar   57   6.495   3.459   3.210
    1   AR   Ar   58   6.729   5.370   4.319
    1   AR   Ar   59   1.935   5.657   5.377
    1   AR   Ar   60   1.305   6.481   4.078
    1   AR   Ar   61   6.154   5.838   6.133
    1   AR   Ar   62   0.534   5.653   5.068
    1   AR   Ar   63   1.305   5.796   6.234
    1   AR   Ar   64   1.318   7.063   4.974
    1   AR   Ar   65   2.958   0.352  -0.062
    1   AR   Ar   66   1.914   1.137   1.107
    1   AR   Ar   67   3.287   6.221  -0.046
    1   AR   Ar   68   3.203   0.757  -1.005
    1   AR   Ar   69   1.868   0.127   0.145
    1   AR   Ar   70   1.050   0.182   2.125
    1   AR   Ar   71   3.163   0.440   1.909
    1   AR   Ar   72   3.415   0.498   0.780
    1   AR   Ar   73   1.809   0.199   3.066
    1   AR   Ar   74   1.405   1.474   4.420
    1   AR   Ar   75   3.467   0.583   4.902
    1   AR   Ar   76   2.058   0.893   2.164
    1   AR   Ar   77   2.392   6.739   5.688
    1   AR   Ar   78   1.007   0.685   6.256
    1   AR   Ar   79   3.804   6.176   7.008
    1   AR   Ar   80   3.298   6.099   5.624
    1   AR   Ar   81   1.439   1.265   0.102
    1   AR   Ar   82   0.579   3.538  -0.319
    1   AR   Ar   83   2.646   2.295   0.581
    1   AR   Ar   84   1.872   4.083  -3.397
    1   AR   Ar   85   1.161   2.730  -0.645
    1   AR   Ar   86   1.669   2.848   1.923
    1   AR   Ar   87   2.541   1.824   1.992
    1   AR   Ar   88   3.365   4.311   1.252
    1   AR   Ar   89   0.817   1.803   2.547
    1   AR   Ar   90   2.864   2.143   4.753
    1   AR   Ar   91   1.860   2.273   4.085
    1   AR   Ar   92   2.003   2.266   2.817
    1   AR   Ar   93   1.726   2.139   5.178
    1   AR   Ar   94   3.006   0.553   7.113
    1   AR   Ar   95   3.513   7.117   5.819
    1   AR   Ar   96   2.592   0.856   6.308
    1   AR   Ar   97   3.846   2.344  -0.775
    1   AR   Ar   98   2.443   4.751   1.671
    1   AR   Ar   99   5.255   2.218  -1.111
    1   AR   Ar  100   1.202   4.448  -0.583
    1   AR   Ar  101   1.681   2.572   0.794
    1   AR   Ar  102   2.746   3.726   3.664
    1   AR   Ar  103   1.679   3.520   0.277
    1   AR   Ar  104   2.809   3.409  -1.389
    1   AR   Ar  105   1.476   3.202   3.729
    1   AR   Ar  106   1.993   3.325   4.595
    1   AR   Ar  107   2.262   3.991   5.416
    1   AR   Ar  108   3.487   3.030   4.406
    1   AR   Ar  109   1.501   4.140   4.180
    1   AR   Ar  110   1.436   4.790   5.300
    1   AR   Ar  111   4.075   4.992   7.200
    1   AR   Ar  112   1.213   5.054   6.966
    1   AR   Ar  113   2.407   4.581   0.551
    1   AR   Ar  114   2.595   6.593   0.622
    1   AR   Ar  115   3.173   5.146  -0.256
    1   AR   Ar  116   4.567   6.407   0.089
    1   AR   Ar  117   0.792   5.157   3.153
    1   AR   Ar  118   1.238   6.199   2.767
    1   AR   Ar  119   2.135   3.914   2.906
    1   AR   Ar  120   1.644   5.060   2.197
    1   AR   Ar  121   6.739   4.165   4.067
    1   AR   Ar  122   2.516   6.043   4.556
    1   AR   Ar  123   2.508   4.936   4.554
    1   AR   Ar  124   2.093   5.854   3.490
    1   AR   Ar  125   0.554   4.613   4.415
    1   AR   Ar  126   0.694   6.578   6.004
    1   AR   Ar  127   3.014   5.486   7.116
    1   AR   Ar  128   2.359   5.710   6.406
    1   AR   Ar  129   2.031   0.123   1.242
    1   AR   Ar  130   4.292   1.057  -1.578
    1   AR   Ar  131   4.336   6.759   1.098
    1   AR   Ar  132   6.393   2.272  -1.065
    1   AR   Ar  133   3.641   7.116   2.838
    1   AR   Ar  134   4.008   1.764   2.580
    1   AR   Ar  135   4.763   0.608   3.066
    1   AR   Ar  136   4.156   0.606   2.104
    1   AR   Ar  137   2.910   6.723   3.659
    1   AR   Ar  138   4.751   1.367   5.142
    1   AR   Ar  139   5.749   1.265   4.496
    1   AR   Ar  140   4.313   0.895   3.996
    1   AR   Ar  141   3.903   7.102   3.780
    1   AR   Ar  142   4.534   6.943   5.250
    1   AR   Ar  143   5.955   6.903   5.987
    1   AR   Ar  144   5.418   0.680   6.661
    1   AR   Ar  145   3.107   3.470   0.658
    1   AR   Ar  146   4.215   2.681   1.731
    1   AR   Ar  147   5.480   1.980  -0.230
    1   AR   Ar  148   5.788   3.545  -2.551
    1   AR   Ar  149   3.915   1.836   0.438
    1   AR   Ar  150   2.990   1.706   2.896
    1   AR   Ar  151   3.914   2.042   3.620
    1   AR   Ar  152   2.967   3.126   1.558
    1   AR   Ar  153   3.166   1.300   3.926
    1   AR   Ar  154   3.820   1.724   4.732
    1   AR   Ar  155   5.670   0.980   5.684
    1   AR   Ar  156   3.870   3.794   3.514
    1   AR   Ar  157   3.329   2.217   5.670
    1   AR   Ar  158   1.742   1.510   6.733
    1   AR   Ar  159   4.428   0.668   6.216
    1   AR   Ar  160   3.861   3.231   6.929
    1   AR   Ar  161   4.978   2.318   0.783
    1   AR   Ar  162   4.364   5.317  -0.201
    1   AR   Ar  163   5.509   3.481   0.200
    1   AR   Ar  164   4.373   5.270   1.675
    1   AR   Ar  165   3.205   3.681   2.593
    1   AR   Ar  166   2.883   5.223   3.123
    1   AR   Ar  167   4.864   2.382   2.735
    1   AR   Ar  168   3.837   3.939  -0.316
    1   AR   Ar  169   2.876   2.535   3.527
    1   AR   Ar  170   3.167   4.083   4.635
    1   AR   Ar  171   4.369   3.494   4.955
    1   AR   Ar  172   4.488   5.072   4.305
    1   AR   Ar  173   2.531   3.033   6.492
    1   AR   Ar  174   4.278   4.640   6.181
    1   AR   Ar  175   4.467   3.349   6.012
    1   AR   Ar  176   3.559   5.265   4.942
    1   AR   Ar  177   5.361   5.774  -0.248
    1   AR   Ar  178   3.300   6.479   1.408
    1   AR   Ar  179   3.489   5.150   0.787
    1   AR   Ar  180   3.760   3.746  -1.543
    1   AR   Ar  181   2.768   5.743   2.069
    1   AR   Ar  182   2.150   6.571   2.304
    1   AR   Ar  183   3.334   4.633   2.417
    1   AR   Ar  184   4.363   6.321   2.171
    1   AR   Ar  185   1.358   5.446   4.441
    1   AR   Ar  186   3.520   5.614   3.965
    1   AR   Ar  187   4.614   5.702   3.244
    1   AR   Ar  188   3.704   5.984   2.929
    1   AR   Ar  189   2.753   5.001   5.642
    1   AR   Ar  190   4.191   5.848   5.897
    1   AR   Ar  191   5.304   5.992   5.482
    1   AR   Ar  192   4.196   6.160   4.617
    1   AR   Ar  193   6.432   6.512  -0.432
    1   AR   Ar  194   5.523   6.095  -1.389
    1   AR   Ar  195   5.910   0.906   0.060
    1   AR   Ar  196   5.759   1.054  -1.904
    1   AR   Ar  197   5.123   0.640   1.023
    1   AR   Ar  198   5.786   1.703   0.963
    1   AR   Ar  199   5.225   0.504   2.087
    1   AR   Ar  200   6.831   1.025   0.738
    1   AR   Ar  201   4.923   6.703   3.414
    1   AR   Ar  202   5.055   1.906   4.252
    1   AR   Ar  203   0.164   6.627   4.272
    1   AR   Ar  204   5.663   0.334   3.692
    1   AR   Ar  205   6.617   7.066   3.332
    1   AR   Ar  206   5.486   0.165   4.991
    1   AR   Ar  207   0.057   0.453   5.951
    1   AR   Ar  208   6.532   0.753   4.102
    1   AR   Ar  209   5.135   2.271  -2.148
    1   AR   Ar  210   4.684   1.493   1.393
    1   AR   Ar  211   6.264   2.713   0.581
    1   AR   Ar  212   6.169   4.213  -1.473
    1   AR   Ar  213   3.426   2.638   2.489
    1   AR   Ar  214   4.381   3.292   2.658
    1   AR   Ar  215   6.109   2.366   2.376
    1   AR   Ar  216   6.644   3.440   2.206
    1   AR   Ar  217   4.534   2.818   4.016
    1   AR   Ar  218   4.493   2.349   5.270
    1   AR   Ar  219   5.447   1.500   3.207
    1   AR   Ar  220   5.420   3.202   2.701
    1   AR   Ar  221   6.858   0.172   4.955
    1   AR   Ar  222   5.095   1.797   6.254
    1   AR   Ar  223   6.449   0.783   6.729
    1   AR   Ar  224   5.630   2.257   5.324
    1   AR   Ar  225   5.328   4.554   0.300
    1   AR   Ar  226   4.799   4.282   2.519
    1   AR   Ar  227   7.051   4.754   0.251
    1   AR   Ar  228   5.968   5.497   0.517
    1   AR   Ar  229   5.792   4.027   1.004
    1   AR   Ar  230   3.958   4.846   3.357
    1   AR   Ar  231   6.850   2.530   3.403
    1   AR   Ar  232   4.568   3.596   1.240
    1   AR   Ar  233   5.981   2.828   3.981
    1   AR   Ar  234   6.317   3.676   4.879
    1   AR   Ar  235   0.323   3.467   4.429
    1   AR   Ar  236   5.347   4.386   3.632
    1   AR   Ar  237   5.444   3.195   4.833
    1   AR   Ar  238   5.039   4.219   5.345
    1   AR   Ar  239   6.526   4.587   8.487
    1   AR   Ar  240   0.196   4.093   5.262
    1   AR   Ar  241   6.824   0.289  -0.378
    1   AR   Ar  242   5.132   5.931   0.944
    1   AR   Ar  243   5.678   3.945   2.038
    1   AR   Ar  244   6.999   5.569  -0.489
    1   AR   Ar  245   5.520   6.421   2.470
    1   AR   Ar  246   6.104   6.465   1.310
    1   AR   Ar  247   5.620   2.854   1.640
    1   AR   Ar  248   6.014   7.070   0.515
    1   AR   Ar  249   5.763   5.368   2.548
    1   AR   Ar  250   5.176   6.170   4.317
    1   AR   Ar  251   5.586   5.113   4.688
    1   AR   Ar  252   5.921   5.868   3.418
    1   AR   Ar  253   5.734   4.838   5.752
    1   AR   Ar  254   5.047   5.471   6.363
    1   AR   Ar  255   5.354   4.631   7.316
    1   AR   Ar  256   6.321   6.235   4.878
    7.12000  7.12000 12.00000
Argon-slab step 1600
  256
    1   AR   Ar    1   6.883   1.187  -1.296
    1   AR   Ar    2   6.284   0.427   1.492
    1   AR   Ar    3   0.015   0.031   0.937
    1   AR   Ar    4   0.695   0.568   0.063
    1   AR   Ar    5   0.061   5.758   0.660
    1   AR   Ar    6   0.450   0.208   3.027
    1   AR   Ar    7   0.283   5.734   2.279
    1   AR   Ar    8   0.001   6.840   1.943
    1   AR   Ar    9   0.693   0.892   4.012
    1   AR   Ar   10   0.216   1.928   4.101
    1   AR   Ar   11   2.361   0.037   4.655
    1   AR   Ar   12   1.079   0.933   2.944
    1   AR   Ar   13   6.468   1.512   5.304
    1   AR   Ar   14   0.244   1.396   6.426
    1   AR   Ar   15   0.455   6.119   8.519
    1   AR   Ar   16   0.600   1.238   5.392
    1   AR   Ar   17   7.114   1.497  -0.329
    1   AR   Ar   18   6.467   3.224  -0.778
    1   AR   Ar   19   0.796   1.718   1.381
    1   AR   Ar   20   6.722   2.282  -2.424
    1   AR   Ar   21   6.167   1.090   2.360
    1   AR   Ar   22   7.103   2.394   2.198
    1   AR   Ar   23   0.181   0.893   1.710
    1   AR   Ar   24   0.079   2.471   0.969
    1   AR   Ar   25   7.059   1.412   3.044
    1   AR   Ar   26   6.345   1.676   3.741
    1   AR   Ar   27   1.939   1.221   3.425
    1   AR   Ar   28   0.955   2.614   4.644
    1   AR   Ar   29   6.308   1.790   6.437
    1   AR   Ar   30   0.120   2.520   5.963
    1   AR   Ar   31   0.425   0.189   6.965
    1   AR   Ar   32   1.368   2.648   6.051
    1   AR   Ar   33   1.345   4.214  -1.690
    1   AR   Ar   34   0.830   5.513   1.454
    1   AR   Ar   35   0.470   3.570   1.079
    1   AR   Ar   36   0.678   0.153  -1.492
    1   AR   Ar   37   0.617   3.264   2.089
    1   AR   Ar   38   6.776   4.489   2.193
    1   AR   Ar   39   0.891   4.257   2.196
    1   AR   Ar   40   2.080   3.746   1.328
    1   AR   Ar   41   0.761   2.458   3.518
    1   AR   Ar   42   6.680   5.197   5.356
    1   AR   Ar   43   6.590   2.753   5.161
    1   AR   Ar   44   0.603   3.575   3.198
    1   AR   Ar   45   1.052   3.586   5.269
    1   AR   Ar   46   0.019   5.438   6.400
    1   AR   Ar   47   6.199   3.553   5.848
    1   AR   Ar   48   6.695   6.688   6.678
    1   AR   Ar   49   6.524   5.221  -1.491
    1   AR   Ar   50   6.258   5.410   1.761
    1   AR   Ar   51   1.430   5.004   0.773
    1   AR   Ar   52   0.208   4.442  -0.841
    1   AR   Ar   53   6.591   6.340   2.619
    1   AR   Ar   54   0.329   6.310   3.274
    1   AR   Ar   55   6.852   5.041   3.296
    1   AR   Ar   56   1.420   6.456   1.357
    1   AR   Ar   57   6.496   3.488   3.201
    1   AR   Ar   58   6.752   5.374   4.359
    1   AR   Ar   59   1.893   5.622   5.367
    1   AR   Ar   60   1.309   6.471   4.065
    1   AR   Ar   61   6.143   5.855   6.143
    1   AR   Ar   62   0.552   5.680   5.096
    1   AR   Ar   63   1.281   5.814   6.244
    1   AR   Ar   64   1.317   7.087   4.936
    1   AR   Ar   65   2.956   0.334  -0.079
    1   AR   Ar   66   1.905   1.171   1.097
    1   AR   Ar   67   3.265   6.243  -0.080
    1   AR   Ar   68   3.215   0.769  -1.017
    1   AR   Ar   69   1.840   0.149   0.145
    1   AR   Ar   70   1.067   0.169   2.104
    1   AR   Ar   71   3.157   0.467   1.943
    1   AR   Ar   72   3.378   0.466   0.786
    1   AR   Ar   73   1.825   0.204   3.055
    1   AR   Ar   74   1.388   1.485   4.435
    1   AR   Ar   75   3.474   0.599   4.897
    1   AR   Ar   76   2.050   0.877   2.174
    1   AR   Ar   77   2.384   6.750   5.712
    1   AR   Ar   78   0.993   0.664   6.271
    1   AR   Ar   79   3.816   6.183   7.001
    1   AR   Ar   80   3.280   6.089   5.628
    1   AR   Ar   81   1.421   1.293   0.113
    1   AR   Ar   82   0.570   3.552  -0.356
    1   AR   Ar   83   2.673   2.302   0.600
    1   AR   Ar   84   1.882   4.064  -3.372
    1   AR   Ar   85   1.140   2.729  -0.675
    1   AR   Ar   86   1.661   2.870   1.928
    1   AR   Ar   87   2.550   1.872   1.978
    1   AR   Ar   88   3.377   4.310   1.229
    1   AR   Ar   89   0.830   1.817   2.535
    1   AR   Ar   90   2.889   2.142   4.741
    1   AR   Ar   91   1.872   2.263   4.061
    1   AR   Ar   92   2.018   2.277   2.820
    1   AR   Ar   93   1.770   2.145   5.154
    1   AR   Ar   94   3.017   0.565   7.108
    1   AR   Ar   95   3.519   0.008   5.832
    1   AR   Ar   96   2.625   0.861   6.276
    1   AR   Ar   97   3.847   2.390  -0.790
    1   AR   Ar   98   2.420   4.754   1.681
    1   AR   Ar   99   5.291   2.213  -1.125
    1   AR   Ar  100   1.224   4.444  -0.588
    1   AR   Ar  101   1.722   2.564   0.794
    1   AR   Ar  102   2.765   3.695   3.693
    1   AR   Ar  103   1.648   3.540   0.301
    1   AR   Ar  104   2.799   3.432  -1.377
    1   AR   Ar  105   1.462   3.192   3.706
    1   AR   Ar  106   2.031   3.329   4.579
    1   AR   Ar  107   2.246   3.989   5.411
    1   AR   Ar  108   3.497   3.047   4.413
    1   AR   Ar  109   1.499   4.128   4.145
    1   AR   Ar  110   1.419   4.778   5.299
    1   AR   Ar  111   4.123   5.009   7.186
    1   AR   Ar  112   1.217   5.044   6.935
    1   AR   Ar  113   2.430   4.604   0.551
    1   AR   Ar  114   2.621   6.577   0.629
    1   AR   Ar  115   3.170   5.110  -0.260
    1   AR   Ar  116   4.586   6.410   0.113
    1   AR   Ar  117   0.765   5.192   3.177
    1   AR   Ar  118   1.282   6.206   2.800
    1   AR   Ar  119   2.153   3.929   2.901
    1   AR   Ar  120   1.641   5.087   2.179
    1   AR   Ar  121   6.779   4.158   4.075
    1   AR   Ar  122   2.501   6.056   4.545
    1   AR   Ar  123   2.502   4.928   4.591
    1   AR   Ar  124   2.073   5.874   3.479
    1   AR   Ar  125   0.546   4.589   4.358
    1   AR   Ar  126   0.713   6.554   5.974
    1   AR   Ar  127   2.997   5.493   7.121
    1   AR   Ar  128   2.344   5.679   6.410
    1   AR   Ar  129   2.031   0.120   1.240
    1   AR   Ar  130   4.272   1.060  -1.578
    1   AR   Ar  131   4.371   6.763   1.122
    1   AR   Ar  132   6.427   2.291  -1.078
    1   AR   Ar  133   3.645   7.100   2.809
    1   AR   Ar  134   3.992   1.785   2.602
    1   AR   Ar  135   4.758   0.650   3.041
    1   AR   Ar  136   4.131   0.587   2.076
    1   AR   Ar  137   2.892   6.746   3.633
    1   AR   Ar  138   4.763   1.361   5.144
    1   AR   Ar  139   5.739   1.260   4.502
    1   AR   Ar  140   4.305   0.858   3.986
    1   AR   Ar  141   3.910   7.111   3.814
    1   AR   Ar  142   4.551   6.955   5.249
    1   AR   Ar  143   5.978   6.924   6.012
    1   AR   Ar  144   5.408   0.676   6.661
    1   AR   Ar  145   3.137   3.518   0.669
    1   AR   Ar  146   4.211   2.668   1.718
    1   AR   Ar  147   5.489   1.979  -0.193
    1   AR   Ar  148   5.772   3.552  -2.539
    1   AR   Ar  149   3.897   1.852   0.432
    1   AR   Ar  150   3.006   1.736   2.912
    1   AR   Ar  151   3.941   2.070   3.580
    1   AR   Ar  152   2.985   3.117   1.532
    1   AR   Ar  153   3.173   1.294   3.926
    1   AR   Ar  154   3.846   1.723   4.714
    1   AR   Ar  155   5.658   0.999   5.686
    1   AR   Ar  156   3.858   3.775   3.491
    1   AR   Ar  157   3.307   2.242   5.695
    1   AR   Ar  158   1.735   1.551   6.775
    1   AR   Ar  159   4.410   0.672   6.201
    1   AR   Ar  160   3.852   3.242   6.921
    1   AR   Ar  161   4.992   2.311   0.805
    1   AR   Ar  162   4.395   5.326  -0.211
    1   AR   Ar  163   5.489   3.521   0.209
    1   AR   Ar  164   4.384   5.253   1.707
    1   AR   Ar  165   3.229   3.657   2.625
    1   AR   Ar  166   2.912   5.221   3.136
    1   AR   Ar  167   4.873   2.371   2.768
    1   AR   Ar  168   3.839   3.923  -0.338
    1   AR   Ar  169   2.867   2.527   3.525
    1   AR   Ar  170   3.171   4.106   4.657
    1   AR   Ar  171   4.365   3.496   4.945
    1   AR   Ar  172   4.484   5.090   4.308
    1   AR   Ar  173   2.524   3.011   6.487
    1   AR   Ar  174   4.271   4.630   6.175
    1   AR   Ar  175   4.471   3.337   6.007
    1   AR   Ar  176   3.565   5.283   4.980
    1   AR   Ar  177   5.375   5.796  -0.266
    1   AR   Ar  178   3.313   6.512   1.383
    1   AR   Ar  179   3.508   5.167   0.781
    1   AR   Ar  180   3.748   3.749  -1.545
    1   AR   Ar  181   2.700   5.757   2.049
    1   AR   Ar  182   2.145   6.573   2.330
    1   AR   Ar  183   3.325   4.636   2.397
    1   AR   Ar  184   4.346   6.315   2.177
    1   AR   Ar  185   1.388   5.474   4.453
    1   AR   Ar  186   3.542   5.626   3.964
    1   AR   Ar  187   4.627   5.716   3.226
    1   AR   Ar  188   3.689   5.992   2.903
    1   AR   Ar  189   2.774   5.016   5.654
    1   AR   Ar  190   4.180   5.838   5.925
    1   AR   Ar  191   5.290   5.976   5.498
    1   AR   Ar  192   4.177   6.164   4.588
    1   AR   Ar  193   6.435   6.498  -0.422
    1   AR   Ar  194   5.548   6.082  -1.391
    1   AR   Ar  195   5.919   0.859   0.026
    1   AR   Ar  196   5.760   1.071  -1.905
    1   AR   Ar  197   5.117   0.675   0.976
    1   AR   Ar  198   5.812   1.703   1.018
    1   AR   Ar  199   5.256   0.525   2.075
    1   AR   Ar  200   6.839   1.047   0.723
    1   AR   Ar  201   4.923   6.752   3.412
    1   AR   Ar  202   5.046   1.932   4.265
    1   AR   Ar  203   0.173   6.586   4.292
    1   AR   Ar  204   5.675   0.356   3.681
    1   AR   Ar  205   6.566   7.084   3.325
    1   AR   Ar  206   5.503   0.162   4.999
    1   AR   Ar  207   0.043   0.468   5.949
    1   AR   Ar  208   6.513   0.717   4.096
    1   AR   Ar  209   5.118   2.280  -2.141
    1   AR   Ar  210   4.645   1.480   1.410
    1   AR   Ar  211   6.280   2.710   0.567
    1   AR   Ar  212   6.158   4.224  -1.489
    1   AR   Ar  213   3.388   2.617   2.480
    1   AR   Ar  214   4.394   3.309   2.644
    1   AR   Ar  215   6.063   2.371   2.385
    1   AR   Ar  216   6.645   3.432   2.184
    1   AR   Ar  217   4.535   2.833   4.012
    1   AR   Ar  218   4.487   2.331   5.259
    1   AR   Ar  219   5.435   1.538   3.231
    1   AR   Ar  220   5.445   3.213   2.674
    1   AR   Ar  221   6.871   0.160   4.977
    1   AR   Ar  222   5.093   1.781   6.250
    1   AR   Ar  223   6.417   0.786   6.761
    1   AR   Ar  224   5.642   2.254   5.309
    1   AR   Ar  225   5.310   4.552   0.268
    1   AR   Ar  226   4.814   4.297   2.510
    1   AR   Ar  227   7.051   4.774   0.235
    1   AR   Ar  228   5.989   5.507   0.540
    1   AR   Ar  229   5.801   4.040   1.004
    1   AR   Ar  230   4.003   4.858   3.379
    1   AR   Ar  231   6.831   2.520   3.367
    1   AR   Ar  232   4.562   3.582   1.209
    1   AR   Ar  233   5.999   2.813   4.004
    1   AR   Ar  234   6.332   3.649   4.845
    1   AR   Ar  235   0.326   3.408   4.423
    1   AR   Ar  236   5.357   4.374   3.652
    1   AR   Ar  237   5.424   3.208   4.827
    1   AR   Ar  238   5.063   4.234   5.348
    1   AR   Ar  239   6.507   4.569   8.515
    1   AR   Ar  240   0.242   4.101   5.258
    1   AR   Ar  241   6.866   0.278  -0.383
    1   AR   Ar  242   5.124   5.894   0.948
    1   AR   Ar  243   5.714   3.965   2.044
    1   AR   Ar  244   7.056   5.543  -0.462
    1   AR   Ar  245   5.543   6.418   2.485
    1   AR   Ar  246   6.118   6.493   1.341
    1   AR   Ar  247   5.601   2.834   1.647
    1   AR   Ar  248   6.013   7.053   0.517
    1   AR   Ar  249   5.757   5.378   2.571
    1   AR   Ar  250   5.170   6.161   4.289
    1   AR   Ar  251   5.579   5.087   4.692
    1   AR   Ar  252   5.897   5.879   3.393
    1   AR   Ar  253   5.720   4.833   5.741
    1   AR   Ar  254   5.050   5.445   6.363
    1   AR   Ar  255   5.348   4.613   7.288
    1   AR   Ar  256   6.313   6.226   4.871
    7.12000  7.12000 12.00000
Argon-slab step 1605
  256
    1   AR   Ar    1   6.898   1.190  -1.289
    1   AR   Ar    2   6.256   0.433   1.488
    1   AR   Ar    3   0.020   7.116   0.951
    1   AR   Ar    4   0.727   0.550   0.076
    1   AR   Ar    5   0.058   5.759   0.653
    1   AR   Ar    6   0.432   0.210   3.041
    1   AR   Ar    7   0.271   5.739   2.288
    1   AR   Ar    8   7.105   6.856   1.936
    1   AR   Ar    9   0.726   0.869   4.014
    1   AR   Ar   10   0.164   1.894   4.085
    1   AR   Ar   11   2.373   0.037   4.659
    1   AR   Ar   12   1.076   0.950   2.970
    1   AR   Ar   13   6.488   1.527   5.274
    1   AR   Ar   14   0.248   1.399   6.441
    1   AR   Ar   15   0.456   6.141   8.544
    1   AR   Ar   16   0.595   1.236   5.420
    1   AR   Ar   17   0.001   1.469  -0.325
    1   AR   Ar   18   6.445   3.219  -0.793
    1   AR   Ar   19   0.814   1.721   1.390
    1   AR   Ar   20   6.732   2.281  -2.422
    1   AR   Ar   21   6.159   1.098   2.381
    1   AR   Ar   22   7.118   2.376   2.201
    1   AR   Ar   23   0.176   0.930   1.638
    1   AR   Ar   24   0.071   2.466   0.980
    1   AR   Ar   25   7.066   1.416   3.050
    1   AR   Ar   26   6.368   1.692   3.758
    1   AR   Ar   27   1.947   1.236   3.443
    1   AR   Ar   28   0.976   2.616   4.646
    1   AR   Ar   29   6.319   1.783   6.427
    1   AR   Ar   30   0.140   2.549   5.982
    1   AR   Ar   31   0.448   0.199   6.934
    1   AR   Ar   32   1.381   2.659   6.059
    1   AR   Ar   33   1.337   4.214  -1.701
    1   AR   Ar   34   0.792   5.520   1.450
    1   AR   Ar   35   0.452   3.546   1.116
    1   AR   Ar   36   0.646   0.162  -1.488
    1   AR   Ar   37   0.587   3.284   2.103
    1   AR   Ar   38   6.756   4.456   2.194
    1   AR   Ar   39   0.909   4.261   2.172
    1   AR   Ar   40   2.111   3.714   1.315
    1   AR   Ar   41   0.750   2.502   3.512
    1   AR   Ar   42   6.702   5.208   5.354
    1   AR   Ar   43   6.586   2.750   5.164
    1   AR   Ar   44   0.589   3.560   3.209
    1   AR   Ar   45   1.071   3.582   5.288
    1   AR   Ar   46   0.035   5.471   6.395
    1   AR   Ar   47   6.143   3.585   5.805
    1   AR   Ar   48   6.670   6.690   6.679
    1   AR   Ar   49   6.552   5.241  -1.481
    1   AR   Ar   50   6.260   5.390   1.806
    1   AR   Ar   51   1.406   5.018   0.784
    1   AR   Ar   52   0.186   4.423  -0.846
    1   AR   Ar   53   6.590   6.301   2.625
    1   AR   Ar   54   0.289   6.319   3.303
    1   AR   Ar   55   6.833   5.011   3.298
    1   AR   Ar   56   1.409   6.460   1.333
    1   AR   Ar   57   6.495   3.521   3.196
    1   AR   Ar   58   6.777   5.379   4.391
    1   AR   Ar   59   1.861   5.603   5.360
    1   AR   Ar   60   1.313   6.462   4.048
    1   AR   Ar   61   6.124   5.864   6.143
    1   AR   Ar   62   0.570   5.707   5.125
    1   AR   Ar   63   1.264   5.823   6.254
    1   AR   Ar   64   1.314   7.111   4.902
    1   AR   Ar   65   2.947   0.311  -0.106
    1   AR   Ar   66   1.901   1.180   1.088
    1   AR   Ar   67   3.248   6.263  -0.117
    1   AR   Ar   68   3.228   0.782  -1.031
    1   AR   Ar   69   1.812   0.173   0.146
    1   AR   Ar   70   1.085   0.155   2.082
    1   AR   Ar   71   3.138   0.492   1.975
    1   AR   Ar   72   3.347   0.434   0.807
    1   AR   Ar   73   1.828   0.198   3.075
    1   AR   Ar   74   1.368   1.491   4.455
    1   AR   Ar   75   3.482   0.615   4.891
    1   AR   Ar   76   2.042   0.861   2.186
    1   AR   Ar   77   2.377   6.760   5.734
    1   AR   Ar   78   0.992   0.646   6.282
    1   AR   Ar   79   3.830   6.190   6.992
    1   AR   Ar   80   3.247   6.081   5.629
    1   AR   Ar   81   1.407   1.325   0.125
    1   AR   Ar   82   0.559   3.566  -0.391
    1   AR   Ar   83   2.698   2.306   0.618
    1   AR   Ar   84   1.850   4.056  -3.346
    1   AR   Ar   85   1.111   2.711  -0.709
    1   AR   Ar   86   1.654   2.891   1.933
    1   AR   Ar   87   2.559   1.921   1.958
    1   AR   Ar   88   3.389   4.304   1.221
    1   AR   Ar   89   0.844   1.838   2.519
    1   AR   Ar   90   2.908   2.143   4.724
    1   AR   Ar   91   1.890   2.260   4.032
    1   AR   Ar   92   2.032   2.289   2.825
    1   AR   Ar   93   1.817   2.152   5.132
    1   AR   Ar   94   2.991   0.581   7.131
    1   AR   Ar   95   3.525   0.019   5.846
    1   AR   Ar   96   2.651   0.870   6.228
    1   AR   Ar   97   3.848   2.436  -0.805
    1   AR   Ar   98   2.408   4.753   1.684
    1   AR   Ar   99   5.324   2.212  -1.148
    1   AR   Ar  100   1.249   4.439  -0.590
    1   AR   Ar  101   1.754   2.558   0.799
    1   AR   Ar  102   2.786   3.662   3.727
    1   AR   Ar  103   1.615   3.561   0.324
    1   AR   Ar  104   2.776   3.460  -1.367
    1   AR   Ar  105   1.451   3.182   3.679
    1   AR   Ar  106   2.072   3.329   4.565
    1   AR   Ar  107   2.230   3.989   5.405
    1   AR   Ar  108   3.505   3.064   4.418
    1   AR   Ar  109   1.498   4.121   4.112
    1   AR   Ar  110   1.382   4.780   5.338
    1   AR   Ar  111   4.171   5.029   7.171
    1   AR   Ar  112   1.221   5.032   6.906
    1   AR   Ar  113   2.455   4.625   0.552
    1   AR   Ar  114   2.640   6.563   0.637
    1   AR   Ar  115   3.168   5.074  -0.263
    1   AR   Ar  116   4.603   6.413   0.137
    1   AR   Ar  117   0.741   5.229   3.200
    1   AR   Ar  118   1.323   6.212   2.832
    1   AR   Ar  119   2.168   3.945   2.891
    1   AR   Ar  120   1.627   5.119   2.167
    1   AR   Ar  121   6.816   4.154   4.076
    1   AR   Ar  122   2.494   6.061   4.526
    1   AR   Ar  123   2.494   4.952   4.616
    1   AR   Ar  124   2.072   5.886   3.458
    1   AR   Ar  125   0.543   4.570   4.301
    1   AR   Ar  126   0.722   6.544   5.938
    1   AR   Ar  127   2.977   5.508   7.125
    1   AR   Ar  128   2.322   5.651   6.405
    1   AR   Ar  129   2.037   0.123   1.239
    1   AR   Ar  130   4.252   1.063  -1.578
    1   AR   Ar  131   4.417   6.767   1.150
    1   AR   Ar  132   6.460   2.296  -1.095
    1   AR   Ar  133   3.647   7.083   2.777
    1   AR   Ar  134   3.982   1.799   2.616
    1   AR   Ar  135   4.752   0.693   3.016
    1   AR   Ar  136   4.120   0.572   2.048
    1   AR   Ar  137   2.872   6.767   3.607
    1   AR   Ar  138   4.778   1.347   5.147
    1   AR   Ar  139   5.720   1.244   4.511
    1   AR   Ar  140   4.302   0.838   3.981
    1   AR   Ar  141   3.913   7.104   3.850
    1   AR   Ar  142   4.564   6.967   5.249
    1   AR   Ar  143   5.995   6.950   6.029
    1   AR   Ar  144   5.392   0.671   6.661
    1   AR   Ar  145   3.166   3.566   0.658
    1   AR   Ar  146   4.207   2.653   1.707
    1   AR   Ar  147   5.493   1.988  -0.209
    1   AR   Ar  148   5.775   3.542  -2.535
    1   AR   Ar  149   3.880   1.869   0.426
    1   AR   Ar  150   3.018   1.756   2.930
    1   AR   Ar  151   3.966   2.097   3.546
    1   AR   Ar  152   3.000   3.101   1.523
    1   AR   Ar  153   3.201   1.289   3.911
    1   AR   Ar  154   3.867   1.731   4.685
    1   AR   Ar  155   5.644   1.017   5.687
    1   AR   Ar  156   3.852   3.776   3.485
    1   AR   Ar  157   3.287   2.268   5.722
    1   AR   Ar  158   1.727   1.591   6.816
    1   AR   Ar  159   4.391   0.676   6.184
    1   AR   Ar  160   3.862   3.269   6.904
    1   AR   Ar  161   5.004   2.308   0.827
    1   AR   Ar  162   4.424   5.334  -0.220
    1   AR   Ar  163   5.467   3.551   0.211
    1   AR   Ar  164   4.394   5.235   1.740
    1   AR   Ar  165   3.252   3.627   2.657
    1   AR   Ar  166   2.931   5.213   3.118
    1   AR   Ar  167   4.858   2.365   2.777
    1   AR   Ar  168   3.840   3.907  -0.360
    1   AR   Ar  169   2.857   2.527   3.529
    1   AR   Ar  170   3.177   4.128   4.680
    1   AR   Ar  171   4.356   3.488   4.916
    1   AR   Ar  172   4.481   5.109   4.313
    1   AR   Ar  173   2.500   3.026   6.512
    1   AR   Ar  174   4.265   4.620   6.166
    1   AR   Ar  175   4.476   3.324   6.002
    1   AR   Ar  176   3.572   5.299   5.017
    1   AR   Ar  177   5.391   5.819  -0.287
    1   AR   Ar  178   3.330   6.545   1.363
    1   AR   Ar  179   3.529   5.198   0.771
    1   AR   Ar  180   3.744   3.755  -1.548
    1   AR   Ar  181   2.637   5.765   2.029
    1   AR   Ar  182   2.142   6.555   2.318
    1   AR   Ar  183   3.320   4.644   2.371
    1   AR   Ar  184   4.332   6.311   2.179
    1   AR   Ar  185   1.419   5.499   4.461
    1   AR   Ar  186   3.560   5.638   3.960
    1   AR   Ar  187   4.648   5.730   3.209
    1   AR   Ar  188   3.659   5.999   2.878
    1   AR   Ar  189   2.795   5.031   5.667
    1   AR   Ar  190   4.179   5.825   5.956
    1   AR   Ar  191   5.275   5.963   5.509
    1   AR   Ar  192   4.155   6.169   4.564
    1   AR   Ar  193   6.433   6.474  -0.411
    1   AR   Ar  194   5.575   6.068  -1.392
    1   AR   Ar  195   5.930   0.817  -0.008
    1   AR   Ar  196   5.761   1.089  -1.906
    1   AR   Ar  197   5.114   0.706   0.927
    1   AR   Ar  198   5.842   1.700   1.073
    1   AR   Ar  199   5.288   0.546   2.063
    1   AR   Ar  200   6.847   1.070   0.706
    1   AR   Ar  201   4.921   6.800   3.407
    1   AR   Ar  202   5.058   1.963   4.263
    1   AR   Ar  203   0.182   6.543   4.312
    1   AR   Ar  204   5.676   0.380   3.668
    1   AR   Ar  205   6.517   7.102   3.320
    1   AR   Ar  206   5.525   0.160   5.004
    1   AR   Ar  207   0.022   0.478   5.948
    1   AR   Ar  208   6.507   0.680   4.093
    1   AR   Ar  209   5.100   2.287  -2.131
    1   AR   Ar  210   4.604   1.470   1.432
    1   AR   Ar  211   6.289   2.709   0.552
    1   AR   Ar  212   6.146   4.232  -1.505
    1   AR   Ar  213   3.349   2.600   2.469
    1   AR   Ar  214   4.401   3.326   2.629
    1   AR   Ar  215   6.020   2.368   2.405
    1   AR   Ar  216   6.647   3.419   2.157
    1   AR   Ar  217   4.537   2.853   4.009
    1   AR   Ar  218   4.491   2.309   5.222
    1   AR   Ar  219   5.423   1.574   3.259
    1   AR   Ar  220   5.475   3.227   2.651
    1   AR   Ar  221   6.881   0.148   4.999
    1   AR   Ar  222   5.092   1.763   6.244
    1   AR   Ar  223   6.394   0.785   6.792
    1   AR   Ar  224   5.651   2.247   5.294
    1   AR   Ar  225   5.289   4.559   0.231
    1   AR   Ar  226   4.828   4.314   2.504
    1   AR   Ar  227   7.051   4.787   0.220
    1   AR   Ar  228   6.018   5.515   0.564
    1   AR   Ar  229   5.817   4.054   1.013
    1   AR   Ar  230   4.047   4.869   3.397
    1   AR   Ar  231   6.813   2.509   3.326
    1   AR   Ar  232   4.557   3.569   1.178
    1   AR   Ar  233   6.016   2.798   4.027
    1   AR   Ar  234   6.350   3.634   4.804
    1   AR   Ar  235   0.326   3.351   4.414
    1   AR   Ar  236   5.359   4.366   3.670
    1   AR   Ar  237   5.404   3.211   4.856
    1   AR   Ar  238   5.076   4.239   5.345
    1   AR   Ar  239   6.487   4.552   8.542
    1   AR   Ar  240   0.270   4.119   5.256
    1   AR   Ar  241   6.909   0.278  -0.386
    1   AR   Ar  242   5.112   5.859   0.954
    1   AR   Ar  243   5.753   3.989   2.050
    1   AR   Ar  244   7.113   5.519  -0.438
    1   AR   Ar  245   5.562   6.419   2.499
    1   AR   Ar  246   6.133   6.512   1.380
    1   AR   Ar  247   5.603   2.870   1.624
    1   AR   Ar  248   6.012   7.039   0.513
    1   AR   Ar  249   5.739   5.377   2.599
    1   AR   Ar  250   5.169   6.151   4.261
    1   AR   Ar  251   5.573   5.063   4.694
    1   AR   Ar  252   5.875   5.899   3.382
    1   AR   Ar  253   5.716   4.838   5.738
    1   AR   Ar  254   5.053   5.415   6.369
    1   AR   Ar  255   5.341   4.595   7.259
    1   AR   Ar  256   6.304   6.218   4.865
    7.12000  7.12000 12.00000
Argon-slab step 1610
  256
    1   AR   Ar    1   6.910   1.190  -1.287
    1   AR   Ar    2   6.229   0.443   1.484
    1   AR   Ar    3   0.024   7.083   0.958
    1   AR   Ar    4   0.755   0.530   0.092
    1   AR   Ar    5   0.053   5.763   0.647
    1   AR   Ar    6   0.400   0.210   3.057
    1   AR   Ar    7   0.258   5.744   2.303
    1   AR   Ar    8   7.093   6.874   1.931
    1   AR   Ar    9   0.750   0.840   4.011
    1   AR   Ar   10   0.121   1.856   4.078
    1   AR   Ar   11   2.412   0.053   4.650
    1   AR   Ar   12   1.078   0.972   2.993
    1   AR   Ar   13   6.513   1.543   5.243
    1   AR   Ar   14   0.250   1.404   6.457
    1   AR   Ar   15   0.457   6.162   8.569
    1   AR   Ar   16   0.591   1.227   5.440
    1   AR   Ar   17   0.012   1.437  -0.321
    1   AR   Ar   18   6.422   3.229  -0.803
    1   AR   Ar   19   0.835   1.727   1.398
    1   AR   Ar   20   6.741   2.280  -2.417
    1   AR   Ar   21   6.153   1.108   2.404
    1   AR   Ar   22   0.013   2.354   2.208
    1   AR   Ar   23   0.170   0.961   1.571
    1   AR   Ar   24   0.068   2.459   0.994
    1   AR   Ar   25   7.077   1.418   3.052
    1   AR   Ar   26   6.375   1.706   3.777
    1   AR   Ar   27   1.960   1.255   3.463
    1   AR   Ar   28   0.984   2.618   4.658
    1   AR   Ar   29   6.329   1.778   6.412
    1   AR   Ar   30   0.161   2.575   6.001
    1   AR   Ar   31   0.460   0.201   6.915
    1   AR   Ar   32   1.393   2.669   6.066
    1   AR   Ar   33   1.329   4.218  -1.706
    1   AR   Ar   34   0.756   5.527   1.445
    1   AR   Ar   35   0.441   3.531   1.146
    1   AR   Ar   36   0.612   0.172  -1.484
    1   AR   Ar   37   0.560   3.297   2.122
    1   AR   Ar   38   6.737   4.427   2.197
    1   AR   Ar   39   0.927   4.270   2.150
    1   AR   Ar   40   2.142   3.682   1.301
    1   AR   Ar   41   0.737   2.541   3.500
    1   AR   Ar   42   6.677   5.209   5.328
    1   AR   Ar   43   6.587   2.736   5.169
    1   AR   Ar   44   0.558   3.541   3.232
    1   AR   Ar   45   1.105   3.568   5.307
    1   AR   Ar   46   0.053   5.506   6.388
    1   AR   Ar   47   6.084   3.617   5.767
    1   AR   Ar   48   6.656   6.688   6.689
    1   AR   Ar   49   6.581   5.262  -1.468
    1   AR   Ar   50   6.275   5.373   1.831
    1   AR   Ar   51   1.386   5.029   0.792
    1   AR   Ar   52   0.161   4.407  -0.852
    1   AR   Ar   53   6.610   6.310   2.615
    1   AR   Ar   54   0.251   6.324   3.331
    1   AR   Ar   55   6.811   4.982   3.300
    1   AR   Ar   56   1.394   6.458   1.311
    1   AR   Ar   57   6.493   3.557   3.193
    1   AR   Ar   58   6.805   5.385   4.408
    1   AR   Ar   59   1.845   5.604   5.359
    1   AR   Ar   60   1.316   6.454   4.028
    1   AR   Ar   61   6.108   5.870   6.143
    1   AR   Ar   62   0.587   5.735   5.155
    1   AR   Ar   63   1.256   5.821   6.265
    1   AR   Ar   64   1.308   0.016   4.870
    1   AR   Ar   65   2.932   0.284  -0.139
    1   AR   Ar   66   1.879   1.168   1.060
    1   AR   Ar   67   3.237   6.281  -0.159
    1   AR   Ar   68   3.243   0.789  -1.050
    1   AR   Ar   69   1.785   0.198   0.147
    1   AR   Ar   70   1.083   0.181   2.056
    1   AR   Ar   71   3.106   0.516   2.004
    1   AR   Ar   72   3.320   0.402   0.838
    1   AR   Ar   73   1.821   0.181   3.092
    1   AR   Ar   74   1.355   1.490   4.432
    1   AR   Ar   75   3.490   0.631   4.883
    1   AR   Ar   76   2.033   0.844   2.198
    1   AR   Ar   77   2.368   6.770   5.756
    1   AR   Ar   78   1.007   0.635   6.281
    1   AR   Ar   79   3.844   6.197   6.981
    1   AR   Ar   80   3.207   6.077   5.629
    1   AR   Ar   81   1.396   1.360   0.137
    1   AR   Ar   82   0.548   3.579  -0.422
    1   AR   Ar   83   2.698   2.307   0.635
    1   AR   Ar   84   1.808   4.050  -3.319
    1   AR   Ar   85   1.083   2.691  -0.743
    1   AR   Ar   86   1.646   2.912   1.938
    1   AR   Ar   87   2.568   1.971   1.935
    1   AR   Ar   88   3.403   4.306   1.229
    1   AR   Ar   89   0.860   1.864   2.503
    1   AR   Ar   90   2.922   2.146   4.702
    1   AR   Ar   91   1.905   2.268   4.022
    1   AR   Ar   92   2.043   2.300   2.833
    1   AR   Ar   93   1.867   2.162   5.114
    1   AR   Ar   94   2.968   0.594   7.161
    1   AR   Ar   95   3.531   0.030   5.859
    1   AR   Ar   96   2.674   0.881   6.172
    1   AR   Ar   97   3.850   2.481  -0.819
    1   AR   Ar   98   2.405   4.745   1.682
    1   AR   Ar   99   5.358   2.213  -1.177
    1   AR   Ar  100   1.275   4.434  -0.590
    1   AR   Ar  101   1.775   2.555   0.807
    1   AR   Ar  102   2.808   3.628   3.763
    1   AR   Ar  103   1.582   3.584   0.347
    1   AR   Ar  104   2.748   3.487  -1.356
    1   AR   Ar  105   1.449   3.175   3.653
    1   AR   Ar  106   2.114   3.325   4.552
    1   AR   Ar  107   2.214   3.992   5.399
    1   AR   Ar  108   3.512   3.078   4.420
    1   AR   Ar  109   1.498   4.120   4.081
    1   AR   Ar  110   1.334   4.765   5.375
    1   AR   Ar  111   4.219   5.050   7.157
    1   AR   Ar  112   1.225   5.016   6.880
    1   AR   Ar  113   2.481   4.645   0.555
    1   AR   Ar  114   2.648   6.553   0.643
    1   AR   Ar  115   3.188   5.044  -0.278
    1   AR   Ar  116   4.619   6.417   0.160
    1   AR   Ar  117   0.721   5.268   3.223
    1   AR   Ar  118   1.354   6.219   2.863
    1   AR   Ar  119   2.181   3.961   2.880
    1   AR   Ar  120   1.604   5.158   2.161
    1   AR   Ar  121   6.841   4.149   4.067
    1   AR   Ar  122   2.489   6.065   4.504
    1   AR   Ar  123   2.483   4.976   4.641
    1   AR   Ar  124   2.075   5.923   3.458
    1   AR   Ar  125   0.552   4.561   4.248
    1   AR   Ar  126   0.719   6.551   5.895
    1   AR   Ar  127   2.966   5.521   7.136
    1   AR   Ar  128   2.292   5.626   6.390
    1   AR   Ar  129   2.053   0.126   1.291
    1   AR   Ar  130   4.231   1.066  -1.578
    1   AR   Ar  131   4.463   6.773   1.181
    1   AR   Ar  132   6.493   2.284  -1.116
    1   AR   Ar  133   3.650   7.064   2.746
    1   AR   Ar  134   3.980   1.803   2.614
    1   AR   Ar  135   4.745   0.736   2.989
    1   AR   Ar  136   4.122   0.558   2.018
    1   AR   Ar  137   2.851   6.786   3.581
    1   AR   Ar  138   4.795   1.324   5.150
    1   AR   Ar  139   5.702   1.223   4.524
    1   AR   Ar  140   4.308   0.841   3.983
    1   AR   Ar  141   3.907   7.076   3.885
    1   AR   Ar  142   4.571   6.977   5.251
    1   AR   Ar  143   6.002   6.982   6.034
    1   AR   Ar  144   5.370   0.665   6.661
    1   AR   Ar  145   3.191   3.603   0.626
    1   AR   Ar  146   4.253   2.644   1.738
    1   AR   Ar  147   5.494   2.003  -0.255
    1   AR   Ar  148   5.785   3.526  -2.527
    1   AR   Ar  149   3.863   1.886   0.421
    1   AR   Ar  150   3.023   1.761   2.947
    1   AR   Ar  151   3.968   2.121   3.540
    1   AR   Ar  152   3.015   3.079   1.523
    1   AR   Ar  153   3.229   1.285   3.897
    1   AR   Ar  154   3.886   1.737   4.647
    1   AR   Ar  155   5.665   1.031   5.674
    1   AR   Ar  156   3.852   3.790   3.493
    1   AR   Ar  157   3.268   2.294   5.750
    1   AR   Ar  158   1.719   1.630   6.855
    1   AR   Ar  159   4.373   0.681   6.164
    1   AR   Ar  160   3.871   3.295   6.887
    1   AR   Ar  161   5.011   2.298   0.816
    1   AR   Ar  162   4.450   5.342  -0.227
    1   AR   Ar  163   5.444   3.571   0.207
    1   AR   Ar  164   4.403   5.218   1.773
    1   AR   Ar  165   3.285   3.596   2.615
    1   AR   Ar  166   2.946   5.195   3.088
    1   AR   Ar  167   4.843   2.358   2.786
    1   AR   Ar  168   3.840   3.892  -0.382
    1   AR   Ar  169   2.848   2.535   3.541
    1   AR   Ar  170   3.183   4.148   4.703
    1   AR   Ar  171   4.350   3.477   4.891
    1   AR   Ar  172   4.481   5.150   4.310
    1   AR   Ar  173   2.476   3.040   6.535
    1   AR   Ar  174   4.259   4.610   6.156
    1   AR   Ar  175   4.483   3.311   5.994
    1   AR   Ar  176   3.584   5.313   5.050
    1   AR   Ar  177   5.409   5.841  -0.308
    1   AR   Ar  178   3.310   6.549   1.360
    1   AR   Ar  179   3.551   5.237   0.757
    1   AR   Ar  180   3.744   3.763  -1.550
    1   AR   Ar  181   2.582   5.762   2.006
    1   AR   Ar  182   2.134   6.545   2.296
    1   AR   Ar  183   3.308   4.643   2.369
    1   AR   Ar  184   4.317   6.310   2.181
    1   AR   Ar  185   1.448   5.520   4.461
    1   AR   Ar  186   3.571   5.647   3.950
    1   AR   Ar  187   4.656   5.736   3.200
    1   AR   Ar  188   3.641   5.991   2.867
    1   AR   Ar  189   2.813   5.043   5.680
    1   AR   Ar  190   4.201   5.836   5.961
    1   AR   Ar  191   5.260   5.952   5.513
    1   AR   Ar  192   4.136   6.179   4.545
    1   AR   Ar  193   6.428   6.445  -0.399
    1   AR   Ar  194   5.603   6.053  -1.391
    1   AR   Ar  195   5.939   0.790  -0.031
    1   AR   Ar  196   5.763   1.109  -1.905
    1   AR   Ar  197   5.116   0.734   0.877
    1   AR   Ar  198   5.873   1.695   1.129
    1   AR   Ar  199   5.318   0.564   2.049
    1   AR   Ar  200   6.852   1.093   0.684
    1   AR   Ar  201   4.917   6.846   3.401
    1   AR   Ar  202   5.066   1.979   4.244
    1   AR   Ar  203   0.192   6.500   4.335
    1   AR   Ar  204   5.657   0.407   3.654
    1   AR   Ar  205   6.476   7.114   3.310
    1   AR   Ar  206   5.552   0.159   5.007
    1   AR   Ar  207   7.115   0.486   5.949
    1   AR   Ar  208   6.515   0.646   4.099
    1   AR   Ar  209   5.104   2.268  -2.127
    1   AR   Ar  210   4.561   1.462   1.457
    1   AR   Ar  211   6.292   2.708   0.535
    1   AR   Ar  212   6.135   4.238  -1.520
    1   AR   Ar  213   3.310   2.589   2.456
    1   AR   Ar  214   4.401   3.339   2.621
    1   AR   Ar  215   5.982   2.358   2.431
    1   AR   Ar  216   6.648   3.400   2.128
    1   AR   Ar  217   4.540   2.877   4.007
    1   AR   Ar  218   4.498   2.302   5.189
    1   AR   Ar  219   5.411   1.608   3.288
    1   AR   Ar  220   5.504   3.241   2.636
    1   AR   Ar  221   6.889   0.136   5.019
    1   AR   Ar  222   5.091   1.745   6.237
    1   AR   Ar  223   6.379   0.782   6.821
    1   AR   Ar  224   5.657   2.236   5.279
    1   AR   Ar  225   5.264   4.575   0.194
    1   AR   Ar  226   4.840   4.333   2.498
    1   AR   Ar  227   7.050   4.790   0.214
    1   AR   Ar  228   6.052   5.522   0.588
    1   AR   Ar  229   5.836   4.071   1.027
    1   AR   Ar  230   4.087   4.875   3.409
    1   AR   Ar  231   6.796   2.502   3.279
    1   AR   Ar  232   4.554   3.555   1.148
    1   AR   Ar  233   6.034   2.781   4.051
    1   AR   Ar  234   6.368   3.629   4.757
    1   AR   Ar  235   0.323   3.299   4.403
    1   AR   Ar  236   5.349   4.364   3.686
    1   AR   Ar  237   5.399   3.225   4.831
    1   AR   Ar  238   5.078   4.233   5.335
    1   AR   Ar  239   6.467   4.534   8.570
    1   AR   Ar  240   0.282   4.147   5.253
    1   AR   Ar  241   6.953   0.283  -0.388
    1   AR   Ar  242   5.098   5.826   0.963
    1   AR   Ar  243   5.793   4.020   2.054
    1   AR   Ar  244   0.049   5.504  -0.423
    1   AR   Ar  245   5.576   6.425   2.510
    1   AR   Ar  246   6.149   6.524   1.425
    1   AR   Ar  247   5.592   2.924   1.584
    1   AR   Ar  248   6.012   7.025   0.506
    1   AR   Ar  249   5.705   5.361   2.630
    1   AR   Ar  250   5.172   6.139   4.234
    1   AR   Ar  251   5.570   5.044   4.696
    1   AR   Ar  252   5.857   5.930   3.393
    1   AR   Ar  253   5.726   4.854   5.742
    1   AR   Ar  254   5.058   5.382   6.381
    1   AR   Ar  255   5.333   4.578   7.228
    1   AR   Ar  256   6.294   6.211   4.861
    7.12000  7.12000 12.00000
Argon-slab step 1615
  256
    1   AR   Ar    1   6.921   1.189  -1.289
    1   AR   Ar    2   6.205   0.457   1.478
    1   AR   Ar    3   0.028   7.053   0.955
    1   AR   Ar    4   0.780   0.509   0.109
    1   AR   Ar    5   0.047   5.770   0.642
    1   AR   Ar    6   0.365   0.209   3.071
    1   AR   Ar    7   0.249   5.746   2.321
    1   AR   Ar    8   7.084   6.896   1.931
    1   AR   Ar    9   0.766   0.802   4.003
    1   AR   Ar   10   0.107   1.823   4.085
    1   AR   Ar   11   2.452   0.068   4.641
    1   AR   Ar   12   1.080   0.995   3.014
    1   AR   Ar   13   6.540   1.559   5.212
    1   AR   Ar   14   0.251   1.411   6.475
    1   AR   Ar   15   0.458   6.183   8.594
    1   AR   Ar   16   0.604   1.252   5.431
    1   AR   Ar   17   0.025   1.406  -0.312
    1   AR   Ar   18   6.399   3.249  -0.809
    1   AR   Ar   19   0.860   1.737   1.405
    1   AR   Ar   20   6.749   2.279  -2.412
    1   AR   Ar   21   6.149   1.120   2.429
    1   AR   Ar   22   0.028   2.328   2.219
    1   AR   Ar   23   0.165   0.986   1.515
    1   AR   Ar   24   0.070   2.451   1.011
    1   AR   Ar   25   7.091   1.419   3.052
    1   AR   Ar   26   6.349   1.713   3.791
    1   AR   Ar   27   1.978   1.277   3.484
    1   AR   Ar   28   0.977   2.621   4.684
    1   AR   Ar   29   6.337   1.773   6.394
    1   AR   Ar   30   0.183   2.600   6.020
    1   AR   Ar   31   0.456   0.192   6.912
    1   AR   Ar   32   1.405   2.679   6.072
    1   AR   Ar   33   1.322   4.229  -1.704
    1   AR   Ar   34   0.722   5.534   1.438
    1   AR   Ar   35   0.460   3.544   1.160
    1   AR   Ar   36   0.577   0.183  -1.478
    1   AR   Ar   37   0.536   3.304   2.148
    1   AR   Ar   38   6.732   4.408   2.204
    1   AR   Ar   39   0.947   4.282   2.127
    1   AR   Ar   40   2.167   3.662   1.284
    1   AR   Ar   41   0.715   2.565   3.486
    1   AR   Ar   42   6.650   5.206   5.325
    1   AR   Ar   43   6.590   2.717   5.174
    1   AR   Ar   44   0.523   3.527   3.253
    1   AR   Ar   45   1.148   3.548   5.324
    1   AR   Ar   46   0.068   5.553   6.391
    1   AR   Ar   47   6.023   3.649   5.730
    1   AR   Ar   48   6.605   6.677   6.681
    1   AR   Ar   49   6.609   5.284  -1.454
    1   AR   Ar   50   6.298   5.357   1.845
    1   AR   Ar   51   1.369   5.055   0.809
    1   AR   Ar   52   0.131   4.399  -0.862
    1   AR   Ar   53   6.627   6.330   2.604
    1   AR   Ar   54   0.216   6.324   3.355
    1   AR   Ar   55   6.786   4.952   3.301
    1   AR   Ar   56   1.375   6.452   1.290
    1   AR   Ar   57   6.491   3.593   3.191
    1   AR   Ar   58   6.837   5.392   4.400
    1   AR   Ar   59   1.842   5.618   5.369
    1   AR   Ar   60   1.317   6.450   4.004
    1   AR   Ar   61   6.093   5.875   6.143
    1   AR   Ar   62   0.604   5.761   5.184
    1   AR   Ar   63   1.252   5.815   6.277
    1   AR   Ar   64   1.302   0.041   4.839
    1   AR   Ar   65   2.915   0.256  -0.172
    1   AR   Ar   66   1.858   1.159   1.036
    1   AR   Ar   67   3.230   6.297  -0.203
    1   AR   Ar   68   3.260   0.763  -1.084
    1   AR   Ar   69   1.760   0.222   0.151
    1   AR   Ar   70   1.065   0.233   2.029
    1   AR   Ar   71   3.065   0.540   2.030
    1   AR   Ar   72   3.293   0.370   0.873
    1   AR   Ar   73   1.814   0.161   3.108
    1   AR   Ar   74   1.347   1.493   4.404
    1   AR   Ar   75   3.500   0.647   4.873
    1   AR   Ar   76   2.023   0.827   2.210
    1   AR   Ar   77   2.359   6.780   5.777
    1   AR   Ar   78   1.040   0.635   6.263
    1   AR   Ar   79   3.859   6.203   6.969
    1   AR   Ar   80   3.163   6.077   5.631
    1   AR   Ar   81   1.385   1.399   0.148
    1   AR   Ar   82   0.540   3.587  -0.449
    1   AR   Ar   83   2.713   2.304   0.651
    1   AR   Ar   84   1.766   4.044  -3.293
    1   AR   Ar   85   1.060   2.687  -0.731
    1   AR   Ar   86   1.639   2.931   1.943
    1   AR   Ar   87   2.576   2.020   1.910
    1   AR   Ar   88   3.420   4.322   1.254
    1   AR   Ar   89   0.881   1.891   2.488
    1   AR   Ar   90   2.935   2.136   4.669
    1   AR   Ar   91   1.909   2.286   4.045
    1   AR   Ar   92   2.053   2.312   2.842
    1   AR   Ar   93   1.918   2.173   5.098
    1   AR   Ar   94   2.947   0.606   7.192
    1   AR   Ar   95   3.535   0.041   5.872
    1   AR   Ar   96   2.696   0.892   6.112
    1   AR   Ar   97   3.852   2.528  -0.833
    1   AR   Ar   98   2.408   4.733   1.675
    1   AR   Ar   99   5.393   2.217  -1.213
    1   AR   Ar  100   1.301   4.428  -0.590
    1   AR   Ar  101   1.781   2.555   0.820
    1   AR   Ar  102   2.828   3.594   3.798
    1   AR   Ar  103   1.548   3.607   0.368
    1   AR   Ar  104   2.716   3.513  -1.344
    1   AR   Ar  105   1.463   3.175   3.628
    1   AR   Ar  106   2.155   3.318   4.539
    1   AR   Ar  107   2.185   3.996   5.376
    1   AR   Ar  108   3.518   3.088   4.415
    1   AR   Ar  109   1.500   4.121   4.052
    1   AR   Ar  110   1.279   4.738   5.411
    1   AR   Ar  111   4.268   5.072   7.141
    1   AR   Ar  112   1.228   4.994   6.856
    1   AR   Ar  113   2.493   4.664   0.558
    1   AR   Ar  114   2.643   6.545   0.642
    1   AR   Ar  115   3.196   5.020  -0.299
    1   AR   Ar  116   4.622   6.435   0.156
    1   AR   Ar  117   0.704   5.307   3.247
    1   AR   Ar  118   1.369   6.228   2.890
    1   AR   Ar  119   2.195   3.977   2.869
    1   AR   Ar  120   1.576   5.202   2.158
    1   AR   Ar  121   6.851   4.142   4.045
    1   AR   Ar  122   2.484   6.069   4.482
    1   AR   Ar  123   2.470   5.001   4.665
    1   AR   Ar  124   2.090   5.955   3.465
    1   AR   Ar  125   0.581   4.564   4.199
    1   AR   Ar  126   0.707   6.570   5.847
    1   AR   Ar  127   2.961   5.532   7.153
    1   AR   Ar  128   2.259   5.604   6.370
    1   AR   Ar  129   2.074   0.133   1.344
    1   AR   Ar  130   4.211   1.071  -1.577
    1   AR   Ar  131   4.509   6.780   1.212
    1   AR   Ar  132   6.526   2.261  -1.140
    1   AR   Ar  133   3.653   7.045   2.720
    1   AR   Ar  134   3.985   1.797   2.596
    1   AR   Ar  135   4.753   0.732   2.983
    1   AR   Ar  136   4.133   0.545   1.986
    1   AR   Ar  137   2.830   6.805   3.554
    1   AR   Ar  138   4.812   1.295   5.152
    1   AR   Ar  139   5.686   1.199   4.539
    1   AR   Ar  140   4.320   0.859   3.988
    1   AR   Ar  141   3.896   7.034   3.918
    1   AR   Ar  142   4.560   6.979   5.258
    1   AR   Ar  143   5.996   7.022   6.025
    1   AR   Ar  144   5.344   0.658   6.659
    1   AR   Ar  145   3.211   3.626   0.576
    1   AR   Ar  146   4.281   2.621   1.731
    1   AR   Ar  147   5.499   2.013  -0.279
    1   AR   Ar  148   5.796   3.510  -2.518
    1   AR   Ar  149   3.847   1.904   0.418
    1   AR   Ar  150   3.020   1.750   2.964
    1   AR   Ar  151   3.938   2.139   3.571
    1   AR   Ar  152   3.030   3.055   1.527
    1   AR   Ar  153   3.214   1.298   3.890
    1   AR   Ar  154   3.903   1.736   4.602
    1   AR   Ar  155   5.691   1.044   5.661
    1   AR   Ar  156   3.855   3.803   3.504
    1   AR   Ar  157   3.251   2.321   5.778
    1   AR   Ar  158   1.711   1.669   6.892
    1   AR   Ar  159   4.357   0.686   6.142
    1   AR   Ar  160   3.879   3.322   6.870
    1   AR   Ar  161   5.018   2.289   0.805
    1   AR   Ar  162   4.475   5.349  -0.232
    1   AR   Ar  163   5.420   3.580   0.201
    1   AR   Ar  164   4.413   5.202   1.806
    1   AR   Ar  165   3.315   3.570   2.572
    1   AR   Ar  166   2.961   5.171   3.076
    1   AR   Ar  167   4.831   2.353   2.795
    1   AR   Ar  168   3.838   3.877  -0.403
    1   AR   Ar  169   2.839   2.552   3.561
    1   AR   Ar  170   3.191   4.168   4.726
    1   AR   Ar  171   4.354   3.451   4.878
    1   AR   Ar  172   4.486   5.205   4.306
    1   AR   Ar  173   2.452   3.054   6.557
    1   AR   Ar  174   4.255   4.600   6.143
    1   AR   Ar  175   4.491   3.300   5.984
    1   AR   Ar  176   3.601   5.325   5.076
    1   AR   Ar  177   5.431   5.863  -0.328
    1   AR   Ar  178   3.299   6.553   1.369
    1   AR   Ar  179   3.567   5.273   0.750
    1   AR   Ar  180   3.748   3.771  -1.551
    1   AR   Ar  181   2.539   5.741   1.976
    1   AR   Ar  182   2.121   6.558   2.278
    1   AR   Ar  183   3.296   4.630   2.376
    1   AR   Ar  184   4.284   6.312   2.194
    1   AR   Ar  185   1.474   5.534   4.451
    1   AR   Ar  186   3.570   5.652   3.932
    1   AR   Ar  187   4.643   5.732   3.200
    1   AR   Ar  188   3.646   5.961   2.875
    1   AR   Ar  189   2.829   5.052   5.695
    1   AR   Ar  190   4.228   5.852   5.960
    1   AR   Ar  191   5.243   5.944   5.510
    1   AR   Ar  192   4.123   6.198   4.537
    1   AR   Ar  193   6.422   6.413  -0.386
    1   AR   Ar  194   5.632   6.039  -1.390
    1   AR   Ar  195   5.923   0.762  -0.028
    1   AR   Ar  196   5.725   1.087  -1.895
    1   AR   Ar  197   5.120   0.760   0.827
    1   AR   Ar  198   5.905   1.689   1.185
    1   AR   Ar  199   5.343   0.582   2.034
    1   AR   Ar  200   6.851   1.112   0.660
    1   AR   Ar  201   4.909   6.887   3.394
    1   AR   Ar  202   5.070   1.999   4.225
    1   AR   Ar  203   0.202   6.456   4.365
    1   AR   Ar  204   5.621   0.442   3.642
    1   AR   Ar  205   6.451   7.115   3.294
    1   AR   Ar  206   5.583   0.158   5.008
    1   AR   Ar  207   7.085   0.493   5.955
    1   AR   Ar  208   6.535   0.618   4.113
    1   AR   Ar  209   5.122   2.230  -2.133
    1   AR   Ar  210   4.517   1.457   1.483
    1   AR   Ar  211   6.288   2.708   0.516
    1   AR   Ar  212   6.124   4.243  -1.535
    1   AR   Ar  213   3.273   2.582   2.440
    1   AR   Ar  214   4.386   3.335   2.638
    1   AR   Ar  215   5.947   2.342   2.458
    1   AR   Ar  216   6.645   3.372   2.097
    1   AR   Ar  217   4.545   2.904   4.004
    1   AR   Ar  218   4.511   2.308   5.162
    1   AR   Ar  219   5.400   1.640   3.315
    1   AR   Ar  220   5.531   3.256   2.626
    1   AR   Ar  221   6.894   0.122   5.034
    1   AR   Ar  222   5.090   1.727   6.228
    1   AR   Ar  223   6.371   0.777   6.850
    1   AR   Ar  224   5.659   2.222   5.263
    1   AR   Ar  225   5.239   4.599   0.156
    1   AR   Ar  226   4.852   4.355   2.495
    1   AR   Ar  227   7.046   4.777   0.218
    1   AR   Ar  228   6.089   5.528   0.611
    1   AR   Ar  229   5.858   4.090   1.040
    1   AR   Ar  230   4.124   4.877   3.414
    1   AR   Ar  231   6.781   2.499   3.229
    1   AR   Ar  232   4.552   3.542   1.117
    1   AR   Ar  233   6.052   2.764   4.076
    1   AR   Ar  234   6.382   3.626   4.712
    1   AR   Ar  235   0.312   3.255   4.387
    1   AR   Ar  236   5.338   4.364   3.701
    1   AR   Ar  237   5.397   3.239   4.790
    1   AR   Ar  238   5.071   4.218   5.320
    1   AR   Ar  239   6.447   4.517   8.597
    1   AR   Ar  240   0.286   4.180   5.247
    1   AR   Ar  241   6.995   0.290  -0.391
    1   AR   Ar  242   5.081   5.793   0.973
    1   AR   Ar  243   5.829   4.054   2.058
    1   AR   Ar  244   0.105   5.501  -0.420
    1   AR   Ar  245   5.583   6.435   2.518
    1   AR   Ar  246   6.166   6.529   1.473
    1   AR   Ar  247   5.578   2.947   1.563
    1   AR   Ar  248   6.012   7.008   0.499
    1   AR   Ar  249   5.660   5.331   2.658
    1   AR   Ar  250   5.175   6.126   4.208
    1   AR   Ar  251   5.579   5.038   4.698
    1   AR   Ar  252   5.844   5.970   3.420
    1   AR   Ar  253   5.745   4.877   5.753
    1   AR   Ar  254   5.063   5.347   6.397
    1   AR   Ar  255   5.324   4.563   7.195
    1   AR   Ar  256   6.281   6.207   4.859
    7.12000  7.12000 12.00000
Argon-slab step 1620
  256
    1   AR   Ar    1   6.929   1.186  -1.297
    1   AR   Ar    2   6.186   0.475   1.468
    1   AR   Ar    3   0.031   7.026   0.940
    1   AR   Ar    4   0.798   0.489   0.128
    1   AR   Ar    5   0.040   5.780   0.638
    1   AR   Ar    6   0.330   0.210   3.083
    1   AR   Ar    7   0.245   5.742   2.342
    1   AR   Ar    8   7.082   6.923   1.937
    1   AR   Ar    9   0.772   0.755   3.993
    1   AR   Ar   10   0.123   1.793   4.101
    1   AR   Ar   11   2.493   0.083   4.632
    1   AR   Ar   12   1.083   1.017   3.030
    1   AR   Ar   13   6.570   1.574   5.181
    1   AR   Ar   14   0.252   1.418   6.494
    1   AR   Ar   15   0.458   6.205   8.619
    1   AR   Ar   16   0.616   1.277   5.419
    1   AR   Ar   17   0.040   1.377  -0.299
    1   AR   Ar   18   6.376   3.274  -0.813
    1   AR   Ar   19   0.889   1.751   1.410
    1   AR   Ar   20   6.756   2.277  -2.405
    1   AR   Ar   21   6.149   1.135   2.456
    1   AR   Ar   22   0.033   2.305   2.226
    1   AR   Ar   23   0.163   1.004   1.477
    1   AR   Ar   24   0.073   2.441   1.032
    1   AR   Ar   25   7.107   1.419   3.050
    1   AR   Ar   26   6.294   1.713   3.799
    1   AR   Ar   27   1.999   1.301   3.507
    1   AR   Ar   28   0.982   2.613   4.714
    1   AR   Ar   29   6.343   1.769   6.372
    1   AR   Ar   30   0.206   2.624   6.038
    1   AR   Ar   31   0.442   0.176   6.916
    1   AR   Ar   32   1.417   2.689   6.076
    1   AR   Ar   33   1.315   4.240  -1.700
    1   AR   Ar   34   0.688   5.543   1.433
    1   AR   Ar   35   0.479   3.558   1.168
    1   AR   Ar   36   0.541   0.195  -1.471
    1   AR   Ar   37   0.520   3.307   2.181
    1   AR   Ar   38   6.744   4.393   2.219
    1   AR   Ar   39   0.946   4.288   2.106
    1   AR   Ar   40   2.182   3.655   1.263
    1   AR   Ar   41   0.685   2.571   3.473
    1   AR   Ar   42   6.623   5.201   5.338
    1   AR   Ar   43   6.597   2.695   5.179
    1   AR   Ar   44   0.482   3.522   3.274
    1   AR   Ar   45   1.175   3.542   5.340
    1   AR   Ar   46   0.080   5.609   6.399
    1   AR   Ar   47   5.961   3.681   5.693
    1   AR   Ar   48   6.568   6.661   6.685
    1   AR   Ar   49   6.638   5.306  -1.438
    1   AR   Ar   50   6.314   5.349   1.814
    1   AR   Ar   51   1.375   5.070   0.831
    1   AR   Ar   52   0.097   4.400  -0.876
    1   AR   Ar   53   6.629   6.345   2.601
    1   AR   Ar   54   0.185   6.319   3.377
    1   AR   Ar   55   6.760   4.924   3.301
    1   AR   Ar   56   1.355   6.444   1.271
    1   AR   Ar   57   6.487   3.628   3.187
    1   AR   Ar   58   6.875   5.402   4.372
    1   AR   Ar   59   1.845   5.638   5.385
    1   AR   Ar   60   1.315   6.452   3.978
    1   AR   Ar   61   6.081   5.879   6.142
    1   AR   Ar   62   0.621   5.783   5.211
    1   AR   Ar   63   1.245   5.811   6.284
    1   AR   Ar   64   1.294   0.067   4.809
    1   AR   Ar   65   2.897   0.227  -0.204
    1   AR   Ar   66   1.838   1.149   1.016
    1   AR   Ar   67   3.225   6.311  -0.248
    1   AR   Ar   68   3.276   0.738  -1.117
    1   AR   Ar   69   1.743   0.246   0.157
    1   AR   Ar   70   1.048   0.284   2.002
    1   AR   Ar   71   3.022   0.562   2.055
    1   AR   Ar   72   3.266   0.340   0.908
    1   AR   Ar   73   1.807   0.140   3.125
    1   AR   Ar   74   1.342   1.502   4.381
    1   AR   Ar   75   3.511   0.664   4.862
    1   AR   Ar   76   2.012   0.812   2.223
    1   AR   Ar   77   2.350   6.790   5.797
    1   AR   Ar   78   1.081   0.640   6.235
    1   AR   Ar   79   3.874   6.209   6.955
    1   AR   Ar   80   3.118   6.080   5.634
    1   AR   Ar   81   1.386   1.429   0.153
    1   AR   Ar   82   0.535   3.589  -0.471
    1   AR   Ar   83   2.716   2.333   0.667
    1   AR   Ar   84   1.724   4.039  -3.266
    1   AR   Ar   85   1.034   2.689  -0.697
    1   AR   Ar   86   1.631   2.950   1.948
    1   AR   Ar   87   2.580   2.066   1.882
    1   AR   Ar   88   3.438   4.344   1.289
    1   AR   Ar   89   0.910   1.917   2.476
    1   AR   Ar   90   2.948   2.120   4.627
    1   AR   Ar   91   1.916   2.308   4.063
    1   AR   Ar   92   2.057   2.314   2.863
    1   AR   Ar   93   1.969   2.185   5.085
    1   AR   Ar   94   2.925   0.618   7.222
    1   AR   Ar   95   3.538   0.049   5.884
    1   AR   Ar   96   2.718   0.902   6.051
    1   AR   Ar   97   3.854   2.575  -0.847
    1   AR   Ar   98   2.412   4.715   1.666
    1   AR   Ar   99   5.431   2.225  -1.249
    1   AR   Ar  100   1.325   4.421  -0.588
    1   AR   Ar  101   1.772   2.560   0.837
    1   AR   Ar  102   2.847   3.565   3.827
    1   AR   Ar  103   1.513   3.630   0.390
    1   AR   Ar  104   2.684   3.539  -1.331
    1   AR   Ar  105   1.471   3.183   3.619
    1   AR   Ar  106   2.193   3.307   4.528
    1   AR   Ar  107   2.156   4.003   5.353
    1   AR   Ar  108   3.507   3.069   4.430
    1   AR   Ar  109   1.508   4.124   4.025
    1   AR   Ar  110   1.221   4.708   5.446
    1   AR   Ar  111   4.316   5.096   7.125
    1   AR   Ar  112   1.232   4.967   6.836
    1   AR   Ar  113   2.483   4.680   0.561
    1   AR   Ar  114   2.626   6.539   0.633
    1   AR   Ar  115   3.181   5.003  -0.326
    1   AR   Ar  116   4.661   6.421   0.143
    1   AR   Ar  117   0.688   5.347   3.271
    1   AR   Ar  118   1.364   6.239   2.908
    1   AR   Ar  119   2.209   3.992   2.857
    1   AR   Ar  120   1.545   5.248   2.157
    1   AR   Ar  121   6.853   4.137   4.010
    1   AR   Ar  122   2.480   6.075   4.462
    1   AR   Ar  123   2.457   5.025   4.689
    1   AR   Ar  124   2.120   5.980   3.480
    1   AR   Ar  125   0.620   4.579   4.155
    1   AR   Ar  126   0.690   6.598   5.799
    1   AR   Ar  127   2.971   5.530   7.150
    1   AR   Ar  128   2.226   5.584   6.351
    1   AR   Ar  129   2.097   0.140   1.397
    1   AR   Ar  130   4.192   1.075  -1.576
    1   AR   Ar  131   4.554   6.788   1.244
    1   AR   Ar  132   6.559   2.234  -1.166
    1   AR   Ar  133   3.655   7.025   2.697
    1   AR   Ar  134   3.993   1.785   2.569
    1   AR   Ar  135   4.759   0.730   2.975
    1   AR   Ar  136   4.149   0.533   1.953
    1   AR   Ar  137   2.809   6.822   3.528
    1   AR   Ar  138   4.826   1.265   5.153
    1   AR   Ar  139   5.673   1.173   4.554
    1   AR   Ar  140   4.335   0.883   3.995
    1   AR   Ar  141   3.882   6.990   3.949
    1   AR   Ar  142   4.542   6.979   5.267
    1   AR   Ar  143   5.980   7.071   6.003
    1   AR   Ar  144   5.315   0.651   6.656
    1   AR   Ar  145   3.228   3.641   0.520
    1   AR   Ar  146   4.287   2.587   1.694
    1   AR   Ar  147   5.507   2.020  -0.284
    1   AR   Ar  148   5.806   3.493  -2.507
    1   AR   Ar  149   3.832   1.922   0.415
    1   AR   Ar  150   3.011   1.729   2.978
    1   AR   Ar  151   3.906   2.158   3.605
    1   AR   Ar  152   3.045   3.031   1.530
    1   AR   Ar  153   3.187   1.314   3.888
    1   AR   Ar  154   3.920   1.729   4.554
    1   AR   Ar  155   5.720   1.054   5.650
    1   AR   Ar  156   3.860   3.816   3.517
    1   AR   Ar  157   3.233   2.348   5.804
    1   AR   Ar  158   1.702   1.708   6.927
    1   AR   Ar  159   4.341   0.683   6.125
    1   AR   Ar  160   3.886   3.349   6.854
    1   AR   Ar  161   5.024   2.281   0.795
    1   AR   Ar  162   4.498   5.355  -0.235
    1   AR   Ar  163   5.396   3.582   0.195
    1   AR   Ar  164   4.404   5.198   1.836
    1   AR   Ar  165   3.344   3.551   2.530
    1   AR   Ar  166   2.966   5.159   3.082
    1   AR   Ar  167   4.821   2.353   2.803
    1   AR   Ar  168   3.837   3.862  -0.423
    1   AR   Ar  169   2.833   2.573   3.585
    1   AR   Ar  170   3.198   4.186   4.749
    1   AR   Ar  171   4.361   3.429   4.871
    1   AR   Ar  172   4.496   5.260   4.308
    1   AR   Ar  173   2.427   3.068   6.578
    1   AR   Ar  174   4.274   4.603   6.139
    1   AR   Ar  175   4.483   3.296   5.972
    1   AR   Ar  176   3.624   5.334   5.095
    1   AR   Ar  177   5.455   5.884  -0.345
    1   AR   Ar  178   3.298   6.554   1.392
    1   AR   Ar  179   3.595   5.304   0.771
    1   AR   Ar  180   3.754   3.778  -1.552
    1   AR   Ar  181   2.510   5.734   1.955
    1   AR   Ar  182   2.104   6.589   2.261
    1   AR   Ar  183   3.294   4.606   2.366
    1   AR   Ar  184   4.259   6.317   2.200
    1   AR   Ar  185   1.495   5.543   4.433
    1   AR   Ar  186   3.561   5.652   3.908
    1   AR   Ar  187   4.637   5.733   3.200
    1   AR   Ar  188   3.644   5.929   2.888
    1   AR   Ar  189   2.838   5.065   5.707
    1   AR   Ar  190   4.252   5.869   5.956
    1   AR   Ar  191   5.226   5.936   5.503
    1   AR   Ar  192   4.122   6.209   4.540
    1   AR   Ar  193   6.416   6.380  -0.372
    1   AR   Ar  194   5.662   6.023  -1.388
    1   AR   Ar  195   5.903   0.737  -0.028
    1   AR   Ar  196   5.677   1.057  -1.882
    1   AR   Ar  197   5.126   0.785   0.779
    1   AR   Ar  198   5.938   1.682   1.241
    1   AR   Ar  199   5.360   0.597   2.019
    1   AR   Ar  200   6.839   1.121   0.648
    1   AR   Ar  201   4.896   6.919   3.385
    1   AR   Ar  202   5.071   2.021   4.212
    1   AR   Ar  203   0.212   6.413   4.401
    1   AR   Ar  204   5.579   0.487   3.633
    1   AR   Ar  205   6.452   7.100   3.282
    1   AR   Ar  206   5.616   0.157   5.007
    1   AR   Ar  207   7.053   0.501   5.969
    1   AR   Ar  208   6.560   0.596   4.132
    1   AR   Ar  209   5.135   2.192  -2.157
    1   AR   Ar  210   4.474   1.453   1.510
    1   AR   Ar  211   6.280   2.709   0.496
    1   AR   Ar  212   6.114   4.247  -1.549
    1   AR   Ar  213   3.240   2.574   2.425
    1   AR   Ar  214   4.371   3.330   2.654
    1   AR   Ar  215   5.917   2.319   2.484
    1   AR   Ar  216   6.635   3.338   2.065
    1   AR   Ar  217   4.550   2.933   3.998
    1   AR   Ar  218   4.528   2.324   5.139
    1   AR   Ar  219   5.391   1.666   3.339
    1   AR   Ar  220   5.547   3.259   2.628
    1   AR   Ar  221   6.897   0.105   5.044
    1   AR   Ar  222   5.088   1.709   6.218
    1   AR   Ar  223   6.367   0.770   6.877
    1   AR   Ar  224   5.656   2.206   5.247
    1   AR   Ar  225   5.214   4.629   0.120
    1   AR   Ar  226   4.864   4.377   2.492
    1   AR   Ar  227   7.042   4.761   0.217
    1   AR   Ar  228   6.105   5.531   0.635
    1   AR   Ar  229   5.880   4.109   1.048
    1   AR   Ar  230   4.156   4.870   3.411
    1   AR   Ar  231   6.766   2.498   3.178
    1   AR   Ar  232   4.551   3.528   1.087
    1   AR   Ar  233   6.071   2.745   4.099
    1   AR   Ar  234   6.390   3.619   4.676
    1   AR   Ar  235   0.289   3.223   4.366
    1   AR   Ar  236   5.326   4.364   3.716
    1   AR   Ar  237   5.392   3.252   4.751
    1   AR   Ar  238   5.061   4.200   5.303
    1   AR   Ar  239   6.427   4.499   8.625
    1   AR   Ar  240   0.286   4.215   5.240
    1   AR   Ar  241   7.034   0.297  -0.393
    1   AR   Ar  242   5.064   5.760   0.982
    1   AR   Ar  243   5.852   4.090   2.064
    1   AR   Ar  244   0.163   5.508  -0.428
    1   AR   Ar  245   5.586   6.449   2.522
    1   AR   Ar  246   6.182   6.529   1.522
    1   AR   Ar  247   5.563   2.948   1.557
    1   AR   Ar  248   6.014   6.986   0.495
    1   AR   Ar  249   5.611   5.296   2.684
    1   AR   Ar  250   5.177   6.114   4.186
    1   AR   Ar  251   5.589   5.033   4.697
    1   AR   Ar  252   5.836   6.015   3.454
    1   AR   Ar  253   5.766   4.900   5.765
    1   AR   Ar  254   5.068   5.312   6.417
    1   AR   Ar  255   5.314   4.548   7.161
    1   AR   Ar  256   6.267   6.203   4.859
    7.12000  7.12000 12.00000
Argon-slab step 1625
  256
    1   AR   Ar    1   6.931   1.191  -1.290
    1   AR   Ar    2   6.177   0.495   1.452
    1   AR   Ar    3   0.034   7.001   0.916
    1   AR   Ar    4   0.803   0.474   0.150
    1   AR   Ar    5   0.032   5.794   0.632
    1   AR   Ar    6   0.300   0.213   3.093
    1   AR   Ar    7   0.248   5.732   2.364
    1   AR   Ar    8   7.087   6.958   1.945
    1   AR   Ar    9   0.773   0.701   3.983
    1   AR   Ar   10   0.150   1.764   4.122
    1   AR   Ar   11   2.534   0.098   4.622
    1   AR   Ar   12   1.086   1.039   3.042
    1   AR   Ar   13   6.602   1.589   5.149
    1   AR   Ar   14   0.254   1.425   6.512
    1   AR   Ar   15   0.459   6.226   8.643
    1   AR   Ar   16   0.627   1.302   5.406
    1   AR   Ar   17   0.057   1.350  -0.287
    1   AR   Ar   18   6.352   3.299  -0.817
    1   AR   Ar   19   0.922   1.768   1.412
    1   AR   Ar   20   6.763   2.276  -2.396
    1   AR   Ar   21   6.151   1.152   2.485
    1   AR   Ar   22   0.028   2.284   2.227
    1   AR   Ar   23   0.169   1.013   1.459
    1   AR   Ar   24   0.077   2.432   1.055
    1   AR   Ar   25   7.112   1.413   3.050
    1   AR   Ar   26   6.269   1.720   3.808
    1   AR   Ar   27   2.023   1.325   3.528
    1   AR   Ar   28   0.996   2.596   4.746
    1   AR   Ar   29   6.347   1.764   6.348
    1   AR   Ar   30   0.229   2.646   6.056
    1   AR   Ar   31   0.425   0.158   6.922
    1   AR   Ar   32   1.430   2.699   6.079
    1   AR   Ar   33   1.308   4.250  -1.697
    1   AR   Ar   34   0.670   5.543   1.425
    1   AR   Ar   35   0.497   3.573   1.174
    1   AR   Ar   36   0.504   0.208  -1.463
    1   AR   Ar   37   0.511   3.305   2.220
    1   AR   Ar   38   6.770   4.383   2.239
    1   AR   Ar   39   0.916   4.282   2.086
    1   AR   Ar   40   2.198   3.650   1.242
    1   AR   Ar   41   0.652   2.561   3.461
    1   AR   Ar   42   6.602   5.199   5.355
    1   AR   Ar   43   6.605   2.673   5.184
    1   AR   Ar   44   0.494   3.527   3.285
    1   AR   Ar   45   1.173   3.558   5.356
    1   AR   Ar   46   0.094   5.666   6.404
    1   AR   Ar   47   5.898   3.713   5.655
    1   AR   Ar   48   6.541   6.644   6.698
    1   AR   Ar   49   6.666   5.327  -1.419
    1   AR   Ar   50   6.329   5.343   1.773
    1   AR   Ar   51   1.400   5.058   0.846
    1   AR   Ar   52   0.059   4.408  -0.892
    1   AR   Ar   53   6.617   6.346   2.608
    1   AR   Ar   54   0.178   6.311   3.368
    1   AR   Ar   55   6.733   4.898   3.299
    1   AR   Ar   56   1.335   6.436   1.253
    1   AR   Ar   57   6.482   3.661   3.178
    1   AR   Ar   58   6.916   5.411   4.336
    1   AR   Ar   59   1.847   5.628   5.378
    1   AR   Ar   60   1.309   6.459   3.951
    1   AR   Ar   61   6.069   5.883   6.141
    1   AR   Ar   62   0.638   5.796   5.234
    1   AR   Ar   63   1.230   5.815   6.286
    1   AR   Ar   64   1.286   0.093   4.779
    1   AR   Ar   65   2.878   0.198  -0.233
    1   AR   Ar   66   1.821   1.137   1.004
    1   AR   Ar   67   3.221   6.323  -0.293
    1   AR   Ar   68   3.292   0.712  -1.151
    1   AR   Ar   69   1.742   0.267   0.166
    1   AR   Ar   70   1.036   0.279   1.995
    1   AR   Ar   71   2.981   0.584   2.078
    1   AR   Ar   72   3.237   0.314   0.942
    1   AR   Ar   73   1.799   0.119   3.143
    1   AR   Ar   74   1.337   1.513   4.364
    1   AR   Ar   75   3.523   0.680   4.851
    1   AR   Ar   76   1.997   0.800   2.240
    1   AR   Ar   77   2.338   6.801   5.817
    1   AR   Ar   78   1.124   0.648   6.203
    1   AR   Ar   79   3.889   6.213   6.941
    1   AR   Ar   80   3.073   6.087   5.638
    1   AR   Ar   81   1.392   1.453   0.150
    1   AR   Ar   82   0.532   3.588  -0.488
    1   AR   Ar   83   2.712   2.352   0.690
    1   AR   Ar   84   1.710   4.034  -3.240
    1   AR   Ar   85   1.009   2.688  -0.663
    1   AR   Ar   86   1.624   2.967   1.954
    1   AR   Ar   87   2.577   2.107   1.848
    1   AR   Ar   88   3.457   4.367   1.325
    1   AR   Ar   89   0.949   1.942   2.469
    1   AR   Ar   90   2.958   2.105   4.585
    1   AR   Ar   91   1.923   2.331   4.076
    1   AR   Ar   92   2.058   2.309   2.891
    1   AR   Ar   93   2.009   2.196   5.079
    1   AR   Ar   94   2.903   0.630   7.251
    1   AR   Ar   95   3.537   0.055   5.894
    1   AR   Ar   96   2.741   0.911   5.991
    1   AR   Ar   97   3.856   2.622  -0.860
    1   AR   Ar   98   2.416   4.695   1.658
    1   AR   Ar   99   5.476   2.236  -1.277
    1   AR   Ar  100   1.349   4.413  -0.585
    1   AR   Ar  101   1.752   2.567   0.858
    1   AR   Ar  102   2.867   3.548   3.846
    1   AR   Ar  103   1.476   3.654   0.410
    1   AR   Ar  104   2.651   3.565  -1.317
    1   AR   Ar  105   1.460   3.197   3.631
    1   AR   Ar  106   2.223   3.291   4.523
    1   AR   Ar  107   2.129   4.014   5.331
    1   AR   Ar  108   3.489   3.039   4.458
    1   AR   Ar  109   1.524   4.128   4.000
    1   AR   Ar  110   1.229   4.717   5.474
    1   AR   Ar  111   4.361   5.120   7.111
    1   AR   Ar  112   1.236   4.933   6.819
    1   AR   Ar  113   2.474   4.695   0.565
    1   AR   Ar  114   2.604   6.535   0.621
    1   AR   Ar  115   3.166   4.986  -0.352
    1   AR   Ar  116   4.707   6.397   0.133
    1   AR   Ar  117   0.674   5.387   3.296
    1   AR   Ar  118   1.350   6.250   2.906
    1   AR   Ar  119   2.225   4.007   2.846
    1   AR   Ar  120   1.502   5.281   2.177
    1   AR   Ar  121   6.859   4.138   3.967
    1   AR   Ar  122   2.478   6.083   4.445
    1   AR   Ar  123   2.443   5.046   4.713
    1   AR   Ar  124   2.160   5.999   3.498
    1   AR   Ar  125   0.660   4.602   4.113
    1   AR   Ar  126   0.672   6.636   5.755
    1   AR   Ar  127   2.986   5.525   7.143
    1   AR   Ar  128   2.199   5.566   6.338
    1   AR   Ar  129   2.122   0.146   1.447
    1   AR   Ar  130   4.175   1.081  -1.576
    1   AR   Ar  131   4.599   6.798   1.276
    1   AR   Ar  132   6.592   2.206  -1.191
    1   AR   Ar  133   3.656   7.006   2.677
    1   AR   Ar  134   4.000   1.768   2.539
    1   AR   Ar  135   4.763   0.735   2.963
    1   AR   Ar  136   4.167   0.518   1.921
    1   AR   Ar  137   2.789   6.840   3.502
    1   AR   Ar  138   4.833   1.234   5.154
    1   AR   Ar  139   5.665   1.146   4.565
    1   AR   Ar  140   4.350   0.908   4.002
    1   AR   Ar  141   3.865   6.950   3.974
    1   AR   Ar  142   4.525   6.979   5.277
    1   AR   Ar  143   5.957   0.005   5.974
    1   AR   Ar  144   5.286   0.644   6.650
    1   AR   Ar  145   3.243   3.655   0.462
    1   AR   Ar  146   4.294   2.553   1.659
    1   AR   Ar  147   5.518   2.024  -0.276
    1   AR   Ar  148   5.817   3.476  -2.496
    1   AR   Ar  149   3.817   1.941   0.414
    1   AR   Ar  150   2.998   1.704   2.988
    1   AR   Ar  151   3.873   2.178   3.636
    1   AR   Ar  152   3.032   3.026   1.530
    1   AR   Ar  153   3.160   1.326   3.891
    1   AR   Ar  154   3.939   1.718   4.509
    1   AR   Ar  155   5.754   1.062   5.642
    1   AR   Ar  156   3.865   3.827   3.530
    1   AR   Ar  157   3.215   2.375   5.828
    1   AR   Ar  158   1.693   1.747   6.962
    1   AR   Ar  159   4.326   0.667   6.119
    1   AR   Ar  160   3.891   3.377   6.839
    1   AR   Ar  161   5.030   2.272   0.785
    1   AR   Ar  162   4.518   5.363  -0.238
    1   AR   Ar  163   5.373   3.581   0.189
    1   AR   Ar  164   4.367   5.215   1.861
    1   AR   Ar  165   3.370   3.542   2.490
    1   AR   Ar  166   2.961   5.155   3.102
    1   AR   Ar  167   4.813   2.358   2.812
    1   AR   Ar  168   3.834   3.847  -0.443
    1   AR   Ar  169   2.829   2.591   3.609
    1   AR   Ar  170   3.206   4.204   4.772
    1   AR   Ar  171   4.387   3.421   4.879
    1   AR   Ar  172   4.510   5.312   4.314
    1   AR   Ar  173   2.403   3.080   6.597
    1   AR   Ar  174   4.308   4.615   6.141
    1   AR   Ar  175   4.451   3.303   5.958
    1   AR   Ar  176   3.653   5.342   5.107
    1   AR   Ar  177   5.479   5.903  -0.360
    1   AR   Ar  178   3.302   6.551   1.425
    1   AR   Ar  179   3.622   5.336   0.792
    1   AR   Ar  180   3.759   3.786  -1.552
    1   AR   Ar  181   2.497   5.760   1.950
    1   AR   Ar  182   2.085   6.630   2.246
    1   AR   Ar  183   3.298   4.573   2.342
    1   AR   Ar  184   4.242   6.323   2.200
    1   AR   Ar  185   1.462   5.546   4.442
    1   AR   Ar  186   3.541   5.658   3.907
    1   AR   Ar  187   4.638   5.742   3.200
    1   AR   Ar  188   3.636   5.896   2.904
    1   AR   Ar  189   2.839   5.085   5.714
    1   AR   Ar  190   4.272   5.886   5.952
    1   AR   Ar  191   5.218   5.897   5.489
    1   AR   Ar  192   4.144   6.170   4.557
    1   AR   Ar  193   6.412   6.347  -0.357
    1   AR   Ar  194   5.694   6.008  -1.387
    1   AR   Ar  195   5.884   0.717  -0.031
    1   AR   Ar  196   5.629   1.027  -1.867
    1   AR   Ar  197   5.133   0.810   0.733
    1   AR   Ar  198   5.970   1.674   1.298
    1   AR   Ar  199   5.366   0.612   2.008
    1   AR   Ar  200   6.813   1.129   0.621
    1   AR   Ar  201   4.878   6.937   3.376
    1   AR   Ar  202   5.069   2.045   4.209
    1   AR   Ar  203   0.223   6.372   4.442
    1   AR   Ar  204   5.542   0.540   3.629
    1   AR   Ar  205   6.450   7.085   3.271
    1   AR   Ar  206   5.649   0.155   5.003
    1   AR   Ar  207   7.021   0.511   5.987
    1   AR   Ar  208   6.586   0.577   4.152
    1   AR   Ar  209   5.142   2.153  -2.201
    1   AR   Ar  210   4.438   1.465   1.517
    1   AR   Ar  211   6.268   2.710   0.477
    1   AR   Ar  212   6.105   4.250  -1.563
    1   AR   Ar  213   3.215   2.561   2.418
    1   AR   Ar  214   4.358   3.325   2.671
    1   AR   Ar  215   5.889   2.290   2.509
    1   AR   Ar  216   6.618   3.299   2.033
    1   AR   Ar  217   4.557   2.961   3.987
    1   AR   Ar  218   4.549   2.345   5.118
    1   AR   Ar  219   5.382   1.684   3.352
    1   AR   Ar  220   5.550   3.243   2.639
    1   AR   Ar  221   6.898   0.085   5.049
    1   AR   Ar  222   5.086   1.692   6.206
    1   AR   Ar  223   6.389   0.812   6.875
    1   AR   Ar  224   5.650   2.186   5.230
    1   AR   Ar  225   5.190   4.661   0.085
    1   AR   Ar  226   4.875   4.399   2.491
    1   AR   Ar  227   7.046   4.766   0.171
    1   AR   Ar  228   6.089   5.527   0.663
    1   AR   Ar  229   5.903   4.128   1.050
    1   AR   Ar  230   4.183   4.856   3.405
    1   AR   Ar  231   6.748   2.500   3.131
    1   AR   Ar  232   4.551   3.513   1.057
    1   AR   Ar  233   6.091   2.724   4.120
    1   AR   Ar  234   6.393   3.606   4.651
    1   AR   Ar  235   0.257   3.199   4.340
    1   AR   Ar  236   5.326   4.370   3.741
    1   AR   Ar  237   5.388   3.263   4.713
    1   AR   Ar  238   5.050   4.182   5.285
    1   AR   Ar  239   6.407   4.482   8.652
    1   AR   Ar  240   0.284   4.249   5.229
    1   AR   Ar  241   7.067   0.303  -0.398
    1   AR   Ar  242   5.046   5.727   0.992
    1   AR   Ar  243   5.856   4.122   2.072
    1   AR   Ar  244   0.222   5.520  -0.442
    1   AR   Ar  245   5.585   6.464   2.524
    1   AR   Ar  246   6.196   6.524   1.571
    1   AR   Ar  247   5.573   2.957   1.561
    1   AR   Ar  248   6.017   6.960   0.494
    1   AR   Ar  249   5.597   5.273   2.671
    1   AR   Ar  250   5.171   6.103   4.173
    1   AR   Ar  251   5.610   5.015   4.718
    1   AR   Ar  252   5.837   6.059   3.482
    1   AR   Ar  253   5.782   4.918   5.781
    1   AR   Ar  254   5.074   5.280   6.437
    1   AR   Ar  255   5.303   4.532   7.126
    1   AR   Ar  256   6.252   6.200   4.859
    7.12000  7.12000 12.00000
Argon-slab step 1630
  256
    1   AR   Ar    1   6.923   1.206  -1.260
    1   AR   Ar    2   6.178   0.515   1.428
    1   AR   Ar    3   0.035   6.977   0.886
    1   AR   Ar    4   0.793   0.465   0.176
    1   AR   Ar    5   0.022   5.810   0.625
    1   AR   Ar    6   0.276   0.220   3.101
    1   AR   Ar    7   0.256   5.718   2.386
    1   AR   Ar    8   7.093   6.939   1.961
    1   AR   Ar    9   0.787   0.667   3.985
    1   AR   Ar   10   0.181   1.735   4.145
    1   AR   Ar   11   2.575   0.111   4.613
    1   AR   Ar   12   1.090   1.060   3.051
    1   AR   Ar   13   6.634   1.601   5.115
    1   AR   Ar   14   0.251   1.427   6.522
    1   AR   Ar   15   0.459   6.247   8.668
    1   AR   Ar   16   0.637   1.327   5.393
    1   AR   Ar   17   0.080   1.329  -0.278
    1   AR   Ar   18   6.329   3.325  -0.821
    1   AR   Ar   19   0.957   1.786   1.413
    1   AR   Ar   20   6.768   2.275  -2.386
    1   AR   Ar   21   6.161   1.172   2.495
    1   AR   Ar   22   0.020   2.264   2.219
    1   AR   Ar   23   0.180   1.018   1.457
    1   AR   Ar   24   0.081   2.422   1.079
    1   AR   Ar   25   7.115   1.406   3.051
    1   AR   Ar   26   6.258   1.727   3.820
    1   AR   Ar   27   2.037   1.333   3.534
    1   AR   Ar   28   1.014   2.576   4.779
    1   AR   Ar   29   6.351   1.761   6.319
    1   AR   Ar   30   0.253   2.666   6.072
    1   AR   Ar   31   0.405   0.140   6.927
    1   AR   Ar   32   1.442   2.707   6.080
    1   AR   Ar   33   1.300   4.260  -1.692
    1   AR   Ar   34   0.663   5.536   1.416
    1   AR   Ar   35   0.516   3.587   1.178
    1   AR   Ar   36   0.466   0.222  -1.452
    1   AR   Ar   37   0.506   3.301   2.261
    1   AR   Ar   38   6.813   4.378   2.262
    1   AR   Ar   39   0.886   4.278   2.065
    1   AR   Ar   40   2.170   3.692   1.230
    1   AR   Ar   41   0.619   2.537   3.450
    1   AR   Ar   42   6.595   5.202   5.365
    1   AR   Ar   43   6.615   2.654   5.187
    1   AR   Ar   44   0.517   3.542   3.294
    1   AR   Ar   45   1.170   3.572   5.370
    1   AR   Ar   46   0.108   5.711   6.408
    1   AR   Ar   47   5.840   3.743   5.618
    1   AR   Ar   48   6.518   6.628   6.713
    1   AR   Ar   49   6.693   5.342  -1.408
    1   AR   Ar   50   6.345   5.338   1.733
    1   AR   Ar   51   1.427   5.045   0.860
    1   AR   Ar   52   0.018   4.421  -0.912
    1   AR   Ar   53   6.596   6.342   2.614
    1   AR   Ar   54   0.174   6.302   3.362
    1   AR   Ar   55   6.706   4.877   3.291
    1   AR   Ar   56   1.316   6.428   1.236
    1   AR   Ar   57   6.472   3.688   3.160
    1   AR   Ar   58   6.956   5.417   4.297
    1   AR   Ar   59   1.849   5.623   5.373
    1   AR   Ar   60   1.301   6.471   3.925
    1   AR   Ar   61   6.059   5.886   6.138
    1   AR   Ar   62   0.657   5.797   5.253
    1   AR   Ar   63   1.205   5.825   6.283
    1   AR   Ar   64   1.277   0.118   4.751
    1   AR   Ar   65   2.857   0.173  -0.260
    1   AR   Ar   66   1.808   1.122   0.999
    1   AR   Ar   67   3.220   6.331  -0.338
    1   AR   Ar   68   3.304   0.685  -1.182
    1   AR   Ar   69   1.760   0.284   0.178
    1   AR   Ar   70   1.024   0.273   1.989
    1   AR   Ar   71   2.946   0.603   2.100
    1   AR   Ar   72   3.207   0.295   0.973
    1   AR   Ar   73   1.790   0.098   3.161
    1   AR   Ar   74   1.330   1.525   4.349
    1   AR   Ar   75   3.535   0.696   4.839
    1   AR   Ar   76   1.974   0.793   2.261
    1   AR   Ar   77   2.323   6.815   5.836
    1   AR   Ar   78   1.166   0.656   6.170
    1   AR   Ar   79   3.903   6.216   6.925
    1   AR   Ar   80   3.032   6.097   5.642
    1   AR   Ar   81   1.394   1.480   0.142
    1   AR   Ar   82   0.529   3.587  -0.501
    1   AR   Ar   83   2.689   2.359   0.723
    1   AR   Ar   84   1.703   4.029  -3.215
    1   AR   Ar   85   0.986   2.684  -0.629
    1   AR   Ar   86   1.616   2.984   1.960
    1   AR   Ar   87   2.593   2.138   1.846
    1   AR   Ar   88   3.475   4.388   1.359
    1   AR   Ar   89   0.995   1.967   2.466
    1   AR   Ar   90   2.965   2.093   4.543
    1   AR   Ar   91   1.930   2.356   4.081
    1   AR   Ar   92   2.057   2.305   2.918
    1   AR   Ar   93   2.010   2.197   5.084
    1   AR   Ar   94   2.882   0.642   7.278
    1   AR   Ar   95   3.531   0.055   5.901
    1   AR   Ar   96   2.765   0.919   5.930
    1   AR   Ar   97   3.859   2.671  -0.872
    1   AR   Ar   98   2.419   4.674   1.650
    1   AR   Ar   99   5.526   2.248  -1.298
    1   AR   Ar  100   1.371   4.405  -0.581
    1   AR   Ar  101   1.721   2.577   0.882
    1   AR   Ar  102   2.892   3.550   3.852
    1   AR   Ar  103   1.438   3.678   0.430
    1   AR   Ar  104   2.620   3.591  -1.303
    1   AR   Ar  105   1.454   3.205   3.641
    1   AR   Ar  106   2.243   3.270   4.528
    1   AR   Ar  107   2.105   4.028   5.308
    1   AR   Ar  108   3.474   3.006   4.487
    1   AR   Ar  109   1.550   4.134   3.978
    1   AR   Ar  110   1.281   4.754   5.496
    1   AR   Ar  111   4.397   5.145   7.104
    1   AR   Ar  112   1.223   4.915   6.809
    1   AR   Ar  113   2.466   4.709   0.568
    1   AR   Ar  114   2.578   6.532   0.608
    1   AR   Ar  115   3.152   4.969  -0.376
    1   AR   Ar  116   4.750   6.375   0.128
    1   AR   Ar  117   0.662   5.423   3.324
    1   AR   Ar  118   1.337   6.254   2.879
    1   AR   Ar  119   2.241   4.022   2.835
    1   AR   Ar  120   1.456   5.311   2.202
    1   AR   Ar  121   6.872   4.144   3.927
    1   AR   Ar  122   2.487   6.083   4.457
    1   AR   Ar  123   2.430   5.064   4.733
    1   AR   Ar  124   2.202   6.012   3.509
    1   AR   Ar  125   0.694   4.633   4.075
    1   AR   Ar  126   0.653   6.685   5.716
    1   AR   Ar  127   3.003   5.520   7.134
    1   AR   Ar  128   2.177   5.548   6.334
    1   AR   Ar  129   2.149   0.152   1.487
    1   AR   Ar  130   4.161   1.089  -1.577
    1   AR   Ar  131   4.644   6.807   1.307
    1   AR   Ar  132   6.625   2.180  -1.215
    1   AR   Ar  133   3.652   6.992   2.662
    1   AR   Ar  134   4.005   1.750   2.507
    1   AR   Ar  135   4.772   0.736   2.950
    1   AR   Ar  136   4.183   0.501   1.890
    1   AR   Ar  137   2.772   6.860   3.477
    1   AR   Ar  138   4.832   1.205   5.157
    1   AR   Ar  139   5.661   1.122   4.572
    1   AR   Ar  140   4.369   0.929   4.008
    1   AR   Ar  141   3.846   6.916   3.994
    1   AR   Ar  142   4.507   6.979   5.286
    1   AR   Ar  143   5.935   0.059   5.946
    1   AR   Ar  144   5.259   0.638   6.643
    1   AR   Ar  145   3.256   3.669   0.407
    1   AR   Ar  146   4.301   2.520   1.625
    1   AR   Ar  147   5.529   2.027  -0.260
    1   AR   Ar  148   5.817   3.474  -2.496
    1   AR   Ar  149   3.802   1.961   0.414
    1   AR   Ar  150   2.981   1.680   2.991
    1   AR   Ar  151   3.839   2.203   3.655
    1   AR   Ar  152   3.011   3.036   1.521
    1   AR   Ar  153   3.161   1.282   3.911
    1   AR   Ar  154   3.961   1.704   4.475
    1   AR   Ar  155   5.793   1.070   5.637
    1   AR   Ar  156   3.871   3.836   3.544
    1   AR   Ar  157   3.197   2.403   5.851
    1   AR   Ar  158   1.683   1.786   6.994
    1   AR   Ar  159   4.316   0.655   6.111
    1   AR   Ar  160   3.888   3.380   6.845
    1   AR   Ar  161   5.036   2.262   0.771
    1   AR   Ar  162   4.533   5.375  -0.242
    1   AR   Ar  163   5.351   3.577   0.185
    1   AR   Ar  164   4.330   5.232   1.886
    1   AR   Ar  165   3.379   3.528   2.482
    1   AR   Ar  166   2.949   5.151   3.129
    1   AR   Ar  167   4.805   2.367   2.820
    1   AR   Ar  168   3.832   3.832  -0.464
    1   AR   Ar  169   2.829   2.599   3.629
    1   AR   Ar  170   3.212   4.221   4.795
    1   AR   Ar  171   4.408   3.417   4.892
    1   AR   Ar  172   4.530   5.344   4.317
    1   AR   Ar  173   2.379   3.092   6.615
    1   AR   Ar  174   4.341   4.624   6.140
    1   AR   Ar  175   4.422   3.311   5.941
    1   AR   Ar  176   3.685   5.350   5.117
    1   AR   Ar  177   5.503   5.917  -0.372
    1   AR   Ar  178   3.309   6.541   1.465
    1   AR   Ar  179   3.650   5.368   0.812
    1   AR   Ar  180   3.765   3.792  -1.551
    1   AR   Ar  181   2.488   5.780   1.944
    1   AR   Ar  182   2.064   6.676   2.236
    1   AR   Ar  183   3.304   4.541   2.316
    1   AR   Ar  184   4.232   6.327   2.192
    1   AR   Ar  185   1.425   5.546   4.445
    1   AR   Ar  186   3.516   5.663   3.913
    1   AR   Ar  187   4.645   5.757   3.200
    1   AR   Ar  188   3.628   5.883   2.875
    1   AR   Ar  189   2.841   5.096   5.720
    1   AR   Ar  190   4.288   5.902   5.946
    1   AR   Ar  191   5.212   5.858   5.471
    1   AR   Ar  192   4.164   6.146   4.587
    1   AR   Ar  193   6.414   6.316  -0.342
    1   AR   Ar  194   5.728   5.992  -1.388
    1   AR   Ar  195   5.869   0.703  -0.037
    1   AR   Ar  196   5.581   1.000  -1.852
    1   AR   Ar  197   5.140   0.836   0.691
    1   AR   Ar  198   6.003   1.665   1.354
    1   AR   Ar  199   5.359   0.626   2.001
    1   AR   Ar  200   6.775   1.136   0.588
    1   AR   Ar  201   4.855   6.942   3.368
    1   AR   Ar  202   5.065   2.072   4.217
    1   AR   Ar  203   0.235   6.335   4.482
    1   AR   Ar  204   5.512   0.598   3.629
    1   AR   Ar  205   6.439   7.072   3.264
    1   AR   Ar  206   5.681   0.152   4.994
    1   AR   Ar  207   6.990   0.522   6.009
    1   AR   Ar  208   6.617   0.574   4.162
    1   AR   Ar  209   5.127   2.150  -2.188
    1   AR   Ar  210   4.407   1.488   1.509
    1   AR   Ar  211   6.255   2.710   0.457
    1   AR   Ar  212   6.097   4.254  -1.576
    1   AR   Ar  213   3.202   2.546   2.426
    1   AR   Ar  214   4.351   3.320   2.687
    1   AR   Ar  215   5.864   2.254   2.531
    1   AR   Ar  216   6.595   3.259   2.001
    1   AR   Ar  217   4.563   2.987   3.970
    1   AR   Ar  218   4.570   2.368   5.099
    1   AR   Ar  219   5.371   1.692   3.352
    1   AR   Ar  220   5.549   3.229   2.644
    1   AR   Ar  221   6.899   0.061   5.053
    1   AR   Ar  222   5.084   1.675   6.194
    1   AR   Ar  223   6.411   0.852   6.871
    1   AR   Ar  224   5.642   2.165   5.211
    1   AR   Ar  225   5.171   4.691   0.053
    1   AR   Ar  226   4.885   4.421   2.492
    1   AR   Ar  227   7.048   4.766   0.130
    1   AR   Ar  228   6.072   5.525   0.690
    1   AR   Ar  229   5.926   4.147   1.047
    1   AR   Ar  230   4.206   4.837   3.396
    1   AR   Ar  231   6.731   2.508   3.098
    1   AR   Ar  232   4.551   3.498   1.027
    1   AR   Ar  233   6.113   2.702   4.141
    1   AR   Ar  234   6.392   3.590   4.636
    1   AR   Ar  235   0.222   3.177   4.312
    1   AR   Ar  236   5.343   4.385   3.782
    1   AR   Ar  237   5.385   3.272   4.677
    1   AR   Ar  238   5.029   4.198   5.318
    1   AR   Ar  239   6.387   4.464   8.679
    1   AR   Ar  240   0.279   4.283   5.215
    1   AR   Ar  241   7.095   0.305  -0.404
    1   AR   Ar  242   5.027   5.695   1.002
    1   AR   Ar  243   5.845   4.151   2.082
    1   AR   Ar  244   0.281   5.537  -0.460
    1   AR   Ar  245   5.570   6.426   2.524
    1   AR   Ar  246   6.208   6.516   1.617
    1   AR   Ar  247   5.587   2.968   1.561
    1   AR   Ar  248   6.020   6.929   0.498
    1   AR   Ar  249   5.593   5.254   2.649
    1   AR   Ar  250   5.157   6.097   4.173
    1   AR   Ar  251   5.633   4.994   4.743
    1   AR   Ar  252   5.852   6.102   3.499
    1   AR   Ar  253   5.786   4.927   5.801
    1   AR   Ar  254   5.086   5.257   6.450
    1   AR   Ar  255   5.294   4.514   7.093
    1   AR   Ar  256   6.236   6.197   4.860
    7.12000  7.12000 12.00000
Argon-slab step 1635
  256
    1   AR   Ar    1   6.915   1.213  -1.234
    1   AR   Ar    2   6.188   0.535   1.399
    1   AR   Ar    3   0.035   6.954   0.855
    1   AR   Ar    4   0.775   0.461   0.208
    1   AR   Ar    5   0.009   5.827   0.615
    1   AR   Ar    6   0.260   0.232   3.104
    1   AR   Ar    7   0.266   5.702   2.406
    1   AR   Ar    8   7.107   6.927   1.976
    1   AR   Ar    9   0.823   0.666   3.999
    1   AR   Ar   10   0.213   1.707   4.168
    1   AR   Ar   11   2.616   0.124   4.603
    1   AR   Ar   12   1.094   1.079   3.058
    1   AR   Ar   13   6.665   1.609   5.081
    1   AR   Ar   14   0.225   1.413   6.500
    1   AR   Ar   15   0.460   6.269   8.692
    1   AR   Ar   16   0.646   1.353   5.379
    1   AR   Ar   17   0.104   1.305  -0.273
    1   AR   Ar   18   6.307   3.351  -0.825
    1   AR   Ar   19   0.993   1.805   1.411
    1   AR   Ar   20   6.773   2.273  -2.374
    1   AR   Ar   21   6.175   1.192   2.491
    1   AR   Ar   22   0.011   2.243   2.202
    1   AR   Ar   23   0.191   0.995   1.402
    1   AR   Ar   24   0.119   2.438   1.076
    1   AR   Ar   25   0.002   1.411   3.071
    1   AR   Ar   26   6.254   1.728   3.834
    1   AR   Ar   27   2.033   1.315   3.518
    1   AR   Ar   28   1.033   2.555   4.812
    1   AR   Ar   29   6.352   1.759   6.287
    1   AR   Ar   30   0.277   2.686   6.087
    1   AR   Ar   31   0.384   0.123   6.929
    1   AR   Ar   32   1.454   2.716   6.080
    1   AR   Ar   33   1.293   4.270  -1.687
    1   AR   Ar   34   0.657   5.529   1.409
    1   AR   Ar   35   0.495   3.620   1.198
    1   AR   Ar   36   0.427   0.237  -1.441
    1   AR   Ar   37   0.502   3.292   2.301
    1   AR   Ar   38   6.865   4.375   2.288
    1   AR   Ar   39   0.895   4.265   2.067
    1   AR   Ar   40   2.142   3.734   1.217
    1   AR   Ar   41   0.588   2.504   3.441
    1   AR   Ar   42   6.606   5.212   5.365
    1   AR   Ar   43   6.626   2.638   5.190
    1   AR   Ar   44   0.534   3.566   3.303
    1   AR   Ar   45   1.162   3.584   5.384
    1   AR   Ar   46   0.126   5.699   6.410
    1   AR   Ar   47   5.793   3.766   5.583
    1   AR   Ar   48   6.500   6.616   6.730
    1   AR   Ar   49   6.715   5.336  -1.427
    1   AR   Ar   50   6.361   5.333   1.695
    1   AR   Ar   51   1.457   5.029   0.873
    1   AR   Ar   52   0.018   4.426  -0.910
    1   AR   Ar   53   6.569   6.328   2.616
    1   AR   Ar   54   0.170   6.299   3.362
    1   AR   Ar   55   6.677   4.867   3.275
    1   AR   Ar   56   1.298   6.422   1.221
    1   AR   Ar   57   6.458   3.708   3.129
    1   AR   Ar   58   6.995   5.417   4.257
    1   AR   Ar   59   1.852   5.625   5.369
    1   AR   Ar   60   1.290   6.486   3.900
    1   AR   Ar   61   6.050   5.890   6.133
    1   AR   Ar   62   0.677   5.785   5.272
    1   AR   Ar   63   1.174   5.841   6.277
    1   AR   Ar   64   1.270   0.141   4.725
    1   AR   Ar   65   2.837   0.157  -0.283
    1   AR   Ar   66   1.796   1.105   1.002
    1   AR   Ar   67   3.220   6.334  -0.382
    1   AR   Ar   68   3.311   0.656  -1.211
    1   AR   Ar   69   1.792   0.300   0.191
    1   AR   Ar   70   1.012   0.266   1.984
    1   AR   Ar   71   2.921   0.620   2.120
    1   AR   Ar   72   3.175   0.283   1.001
    1   AR   Ar   73   1.779   0.080   3.180
    1   AR   Ar   74   1.320   1.537   4.337
    1   AR   Ar   75   3.549   0.712   4.826
    1   AR   Ar   76   1.941   0.791   2.290
    1   AR   Ar   77   2.305   6.833   5.855
    1   AR   Ar   78   1.206   0.663   6.136
    1   AR   Ar   79   3.917   6.219   6.909
    1   AR   Ar   80   2.996   6.109   5.643
    1   AR   Ar   81   1.392   1.509   0.129
    1   AR   Ar   82   0.525   3.591  -0.512
    1   AR   Ar   83   2.675   2.364   0.755
    1   AR   Ar   84   1.697   4.024  -3.189
    1   AR   Ar   85   0.966   2.673  -0.596
    1   AR   Ar   86   1.608   2.999   1.966
    1   AR   Ar   87   2.610   2.151   1.855
    1   AR   Ar   88   3.477   4.422   1.372
    1   AR   Ar   89   1.044   1.993   2.466
    1   AR   Ar   90   2.969   2.079   4.506
    1   AR   Ar   91   1.934   2.378   4.081
    1   AR   Ar   92   2.055   2.301   2.944
    1   AR   Ar   93   2.012   2.197   5.096
    1   AR   Ar   94   2.860   0.654   7.304
    1   AR   Ar   95   3.518   0.050   5.905
    1   AR   Ar   96   2.789   0.925   5.868
    1   AR   Ar   97   3.861   2.722  -0.884
    1   AR   Ar   98   2.421   4.654   1.644
    1   AR   Ar   99   5.581   2.263  -1.310
    1   AR   Ar  100   1.392   4.396  -0.576
    1   AR   Ar  101   1.682   2.589   0.909
    1   AR   Ar  102   2.921   3.573   3.847
    1   AR   Ar  103   1.399   3.702   0.449
    1   AR   Ar  104   2.588   3.618  -1.288
    1   AR   Ar  105   1.450   3.204   3.648
    1   AR   Ar  106   2.254   3.244   4.543
    1   AR   Ar  107   2.085   4.045   5.284
    1   AR   Ar  108   3.465   2.972   4.519
    1   AR   Ar  109   1.561   4.139   3.978
    1   AR   Ar  110   1.330   4.789   5.519
    1   AR   Ar  111   4.417   5.169   7.110
    1   AR   Ar  112   1.207   4.907   6.813
    1   AR   Ar  113   2.460   4.722   0.571
    1   AR   Ar  114   2.552   6.531   0.595
    1   AR   Ar  115   3.139   4.951  -0.398
    1   AR   Ar  116   4.788   6.357   0.128
    1   AR   Ar  117   0.655   5.453   3.353
    1   AR   Ar  118   1.319   6.256   2.851
    1   AR   Ar  119   2.259   4.037   2.824
    1   AR   Ar  120   1.410   5.342   2.226
    1   AR   Ar  121   6.873   4.150   3.903
    1   AR   Ar  122   2.478   6.069   4.486
    1   AR   Ar  123   2.420   5.075   4.750
    1   AR   Ar  124   2.239   6.019   3.510
    1   AR   Ar  125   0.719   4.669   4.039
    1   AR   Ar  126   0.634   6.743   5.681
    1   AR   Ar  127   3.020   5.516   7.124
    1   AR   Ar  128   2.161   5.532   6.340
    1   AR   Ar  129   2.178   0.165   1.506
    1   AR   Ar  130   4.154   1.099  -1.581
    1   AR   Ar  131   4.691   6.816   1.336
    1   AR   Ar  132   6.655   2.160  -1.239
    1   AR   Ar  133   3.643   6.984   2.652
    1   AR   Ar  134   4.008   1.729   2.476
    1   AR   Ar  135   4.787   0.726   2.936
    1   AR   Ar  136   4.199   0.483   1.860
    1   AR   Ar  137   2.760   6.884   3.452
    1   AR   Ar  138   4.824   1.177   5.161
    1   AR   Ar  139   5.663   1.103   4.572
    1   AR   Ar  140   4.392   0.942   4.009
    1   AR   Ar  141   3.825   6.887   4.011
    1   AR   Ar  142   4.489   6.979   5.295
    1   AR   Ar  143   5.917   0.111   5.930
    1   AR   Ar  144   5.235   0.633   6.635
    1   AR   Ar  145   3.267   3.683   0.356
    1   AR   Ar  146   4.307   2.492   1.593
    1   AR   Ar  147   5.542   2.029  -0.241
    1   AR   Ar  148   5.800   3.493  -2.517
    1   AR   Ar  149   3.788   1.982   0.415
    1   AR   Ar  150   2.962   1.655   2.988
    1   AR   Ar  151   3.804   2.235   3.660
    1   AR   Ar  152   2.990   3.055   1.508
    1   AR   Ar  153   3.162   1.231   3.934
    1   AR   Ar  154   3.954   1.682   4.466
    1   AR   Ar  155   5.833   1.078   5.634
    1   AR   Ar  156   3.877   3.843   3.559
    1   AR   Ar  157   3.178   2.431   5.873
    1   AR   Ar  158   1.673   1.826   7.026
    1   AR   Ar  159   4.311   0.649   6.102
    1   AR   Ar  160   3.873   3.347   6.880
    1   AR   Ar  161   5.042   2.247   0.741
    1   AR   Ar  162   4.538   5.395  -0.248
    1   AR   Ar  163   5.329   3.572   0.182
    1   AR   Ar  164   4.292   5.250   1.912
    1   AR   Ar  165   3.379   3.515   2.482
    1   AR   Ar  166   2.933   5.144   3.158
    1   AR   Ar  167   4.796   2.380   2.827
    1   AR   Ar  168   3.831   3.818  -0.485
    1   AR   Ar  169   2.830   2.598   3.642
    1   AR   Ar  170   3.219   4.238   4.817
    1   AR   Ar  171   4.420   3.418   4.908
    1   AR   Ar  172   4.558   5.337   4.313
    1   AR   Ar  173   2.354   3.103   6.632
    1   AR   Ar  174   4.370   4.630   6.136
    1   AR   Ar  175   4.396   3.319   5.922
    1   AR   Ar  176   3.718   5.356   5.124
    1   AR   Ar  177   5.523   5.922  -0.382
    1   AR   Ar  178   3.318   6.524   1.512
    1   AR   Ar  179   3.677   5.400   0.832
    1   AR   Ar  180   3.769   3.798  -1.551
    1   AR   Ar  181   2.481   5.796   1.935
    1   AR   Ar  182   2.041   6.717   2.241
    1   AR   Ar  183   3.310   4.516   2.301
    1   AR   Ar  184   4.233   6.327   2.177
    1   AR   Ar  185   1.386   5.542   4.443
    1   AR   Ar  186   3.490   5.668   3.921
    1   AR   Ar  187   4.658   5.778   3.200
    1   AR   Ar  188   3.617   5.874   2.837
    1   AR   Ar  189   2.845   5.097   5.723
    1   AR   Ar  190   4.300   5.918   5.941
    1   AR   Ar  191   5.209   5.818   5.447
    1   AR   Ar  192   4.174   6.150   4.634
    1   AR   Ar  193   6.427   6.287  -0.326
    1   AR   Ar  194   5.764   5.977  -1.392
    1   AR   Ar  195   5.858   0.691  -0.047
    1   AR   Ar  196   5.533   0.975  -1.836
    1   AR   Ar  197   5.145   0.862   0.654
    1   AR   Ar  198   6.035   1.657   1.412
    1   AR   Ar  199   5.344   0.641   1.997
    1   AR   Ar  200   6.727   1.139   0.560
    1   AR   Ar  201   4.830   6.935   3.362
    1   AR   Ar  202   5.061   2.100   4.232
    1   AR   Ar  203   0.248   6.307   4.520
    1   AR   Ar  204   5.491   0.658   3.634
    1   AR   Ar  205   6.418   7.065   3.266
    1   AR   Ar  206   5.711   0.147   4.974
    1   AR   Ar  207   6.959   0.533   6.032
    1   AR   Ar  208   6.656   0.589   4.160
    1   AR   Ar  209   5.105   2.140  -2.195
    1   AR   Ar  210   4.378   1.508   1.499
    1   AR   Ar  211   6.240   2.710   0.438
    1   AR   Ar  212   6.086   4.243  -1.590
    1   AR   Ar  213   3.207   2.535   2.455
    1   AR   Ar  214   4.337   3.306   2.694
    1   AR   Ar  215   5.840   2.213   2.551
    1   AR   Ar  216   6.569   3.219   1.969
    1   AR   Ar  217   4.569   3.013   3.947
    1   AR   Ar  218   4.590   2.392   5.083
    1   AR   Ar  219   5.358   1.691   3.341
    1   AR   Ar  220   5.546   3.220   2.651
    1   AR   Ar  221   6.899   0.035   5.058
    1   AR   Ar  222   5.082   1.657   6.179
    1   AR   Ar  223   6.433   0.889   6.867
    1   AR   Ar  224   5.633   2.141   5.192
    1   AR   Ar  225   5.161   4.712   0.027
    1   AR   Ar  226   4.892   4.442   2.494
    1   AR   Ar  227   7.048   4.763   0.092
    1   AR   Ar  228   6.056   5.523   0.714
    1   AR   Ar  229   5.948   4.166   1.039
    1   AR   Ar  230   4.227   4.816   3.386
    1   AR   Ar  231   6.721   2.530   3.099
    1   AR   Ar  232   4.552   3.482   0.998
    1   AR   Ar  233   6.134   2.679   4.160
    1   AR   Ar  234   6.390   3.576   4.626
    1   AR   Ar  235   0.187   3.155   4.283
    1   AR   Ar  236   5.359   4.400   3.823
    1   AR   Ar  237   5.385   3.279   4.641
    1   AR   Ar  238   4.995   4.230   5.359
    1   AR   Ar  239   6.367   4.447   8.706
    1   AR   Ar  240   0.273   4.318   5.199
    1   AR   Ar  241   7.115   0.302  -0.414
    1   AR   Ar  242   5.007   5.663   1.011
    1   AR   Ar  243   5.827   4.177   2.096
    1   AR   Ar  244   0.340   5.556  -0.482
    1   AR   Ar  245   5.549   6.390   2.523
    1   AR   Ar  246   6.217   6.507   1.659
    1   AR   Ar  247   5.594   2.982   1.533
    1   AR   Ar  248   6.025   6.895   0.506
    1   AR   Ar  249   5.590   5.237   2.628
    1   AR   Ar  250   5.140   6.099   4.184
    1   AR   Ar  251   5.655   4.975   4.766
    1   AR   Ar  252   5.880   6.145   3.505
    1   AR   Ar  253   5.778   4.924   5.825
    1   AR   Ar  254   5.110   5.250   6.449
    1   AR   Ar  255   5.286   4.489   7.064
    1   AR   Ar  256   6.220   6.193   4.861
    7.12000  7.12000 12.00000
Argon-slab step 1640
  256
    1   AR   Ar    1   6.909   1.206  -1.215
    1   AR   Ar    2   6.203   0.553   1.366
    1   AR   Ar    3   0.034   6.932   0.823
    1   AR   Ar    4   0.756   0.461   0.245
    1   AR   Ar    5   7.115   5.846   0.603
    1   AR   Ar    6   0.253   0.239   3.115
    1   AR   Ar    7   0.278   5.684   2.424
    1   AR   Ar    8   0.008   6.920   1.990
    1   AR   Ar    9   0.852   0.666   4.007
    1   AR   Ar   10   0.246   1.678   4.191
    1   AR   Ar   11   2.656   0.135   4.592
    1   AR   Ar   12   1.097   1.097   3.061
    1   AR   Ar   13   6.696   1.612   5.046
    1   AR   Ar   14   0.202   1.400   6.478
    1   AR   Ar   15   0.461   6.290   8.717
    1   AR   Ar   16   0.654   1.378   5.365
    1   AR   Ar   17   0.113   1.251  -0.268
    1   AR   Ar   18   6.284   3.376  -0.828
    1   AR   Ar   19   1.030   1.824   1.408
    1   AR   Ar   20   6.777   2.272  -2.362
    1   AR   Ar   21   6.190   1.211   2.488
    1   AR   Ar   22   0.003   2.219   2.180
    1   AR   Ar   23   0.204   0.970   1.353
    1   AR   Ar   24   0.157   2.438   1.095
    1   AR   Ar   25   0.018   1.435   3.119
    1   AR   Ar   26   6.257   1.722   3.848
    1   AR   Ar   27   2.031   1.297   3.501
    1   AR   Ar   28   1.051   2.535   4.843
    1   AR   Ar   29   6.353   1.762   6.251
    1   AR   Ar   30   0.301   2.703   6.100
    1   AR   Ar   31   0.370   0.125   6.924
    1   AR   Ar   32   1.466   2.723   6.079
    1   AR   Ar   33   1.285   4.280  -1.682
    1   AR   Ar   34   0.651   5.522   1.404
    1   AR   Ar   35   0.474   3.651   1.218
    1   AR   Ar   36   0.387   0.252  -1.429
    1   AR   Ar   37   0.498   3.279   2.338
    1   AR   Ar   38   6.919   4.372   2.313
    1   AR   Ar   39   0.914   4.250   2.075
    1   AR   Ar   40   2.115   3.772   1.205
    1   AR   Ar   41   0.561   2.469   3.432
    1   AR   Ar   42   6.627   5.226   5.360
    1   AR   Ar   43   6.638   2.626   5.193
    1   AR   Ar   44   0.547   3.596   3.315
    1   AR   Ar   45   1.151   3.594   5.397
    1   AR   Ar   46   0.139   5.688   6.411
    1   AR   Ar   47   5.765   3.779   5.553
    1   AR   Ar   48   6.484   6.608   6.747
    1   AR   Ar   49   6.737   5.330  -1.445
    1   AR   Ar   50   6.379   5.328   1.663
    1   AR   Ar   51   1.486   5.013   0.888
    1   AR   Ar   52   0.026   4.430  -0.907
    1   AR   Ar   53   6.543   6.303   2.617
    1   AR   Ar   54   0.164   6.311   3.368
    1   AR   Ar   55   6.646   4.867   3.250
    1   AR   Ar   56   1.280   6.418   1.207
    1   AR   Ar   57   6.439   3.722   3.088
    1   AR   Ar   58   7.023   5.411   4.221
    1   AR   Ar   59   1.856   5.643   5.367
    1   AR   Ar   60   1.281   6.501   3.883
    1   AR   Ar   61   6.040   5.894   6.127
    1   AR   Ar   62   0.701   5.764   5.295
    1   AR   Ar   63   1.141   5.859   6.267
    1   AR   Ar   64   1.266   0.158   4.707
    1   AR   Ar   65   2.814   0.146  -0.304
    1   AR   Ar   66   1.786   1.086   1.009
    1   AR   Ar   67   3.223   6.330  -0.425
    1   AR   Ar   68   3.324   0.648  -1.227
    1   AR   Ar   69   1.830   0.314   0.205
    1   AR   Ar   70   1.001   0.259   1.978
    1   AR   Ar   71   2.907   0.635   2.140
    1   AR   Ar   72   3.143   0.275   1.027
    1   AR   Ar   73   1.765   0.065   3.199
    1   AR   Ar   74   1.310   1.550   4.326
    1   AR   Ar   75   3.565   0.726   4.816
    1   AR   Ar   76   1.899   0.795   2.325
    1   AR   Ar   77   2.284   6.854   5.874
    1   AR   Ar   78   1.243   0.670   6.102
    1   AR   Ar   79   3.930   6.222   6.894
    1   AR   Ar   80   2.965   6.121   5.642
    1   AR   Ar   81   1.387   1.539   0.113
    1   AR   Ar   82   0.521   3.599  -0.521
    1   AR   Ar   83   2.666   2.366   0.784
    1   AR   Ar   84   1.690   4.019  -3.163
    1   AR   Ar   85   0.948   2.657  -0.561
    1   AR   Ar   86   1.609   3.004   1.963
    1   AR   Ar   87   2.603   2.148   1.847
    1   AR   Ar   88   3.473   4.464   1.359
    1   AR   Ar   89   1.095   2.021   2.468
    1   AR   Ar   90   2.968   2.062   4.476
    1   AR   Ar   91   1.933   2.394   4.077
    1   AR   Ar   92   2.051   2.297   2.968
    1   AR   Ar   93   2.015   2.197   5.113
    1   AR   Ar   94   2.838   0.666   7.328
    1   AR   Ar   95   3.499   0.040   5.906
    1   AR   Ar   96   2.814   0.930   5.806
    1   AR   Ar   97   3.863   2.773  -0.896
    1   AR   Ar   98   2.422   4.638   1.643
    1   AR   Ar   99   5.639   2.278  -1.315
    1   AR   Ar  100   1.411   4.386  -0.569
    1   AR   Ar  101   1.652   2.580   0.903
    1   AR   Ar  102   2.947   3.608   3.839
    1   AR   Ar  103   1.358   3.726   0.467
    1   AR   Ar  104   2.558   3.646  -1.273
    1   AR   Ar  105   1.448   3.194   3.652
    1   AR   Ar  106   2.262   3.219   4.563
    1   AR   Ar  107   2.072   4.066   5.259
    1   AR   Ar  108   3.460   2.941   4.552
    1   AR   Ar  109   1.583   4.146   3.981
    1   AR   Ar  110   1.373   4.817   5.544
    1   AR   Ar  111   4.422   5.193   7.128
    1   AR   Ar  112   1.191   4.899   6.816
    1   AR   Ar  113   2.456   4.733   0.572
    1   AR   Ar  114   2.526   6.531   0.583
    1   AR   Ar  115   3.127   4.933  -0.419
    1   AR   Ar  116   4.813   6.361   0.139
    1   AR   Ar  117   0.657   5.472   3.384
    1   AR   Ar  118   1.297   6.256   2.823
    1   AR   Ar  119   2.278   4.051   2.812
    1   AR   Ar  120   1.363   5.372   2.250
    1   AR   Ar  121   6.865   4.130   3.911
    1   AR   Ar  122   2.471   6.062   4.522
    1   AR   Ar  123   2.412   5.076   4.761
    1   AR   Ar  124   2.271   6.018   3.503
    1   AR   Ar  125   0.745   4.663   4.065
    1   AR   Ar  126   0.614   6.805   5.648
    1   AR   Ar  127   3.037   5.512   7.112
    1   AR   Ar  128   2.146   5.517   6.355
    1   AR   Ar  129   2.209   0.188   1.499
    1   AR   Ar  130   4.152   1.113  -1.586
    1   AR   Ar  131   4.741   6.824   1.362
    1   AR   Ar  132   6.683   2.154  -1.262
    1   AR   Ar  133   3.629   6.982   2.646
    1   AR   Ar  134   4.009   1.709   2.446
    1   AR   Ar  135   4.793   0.726   2.912
    1   AR   Ar  136   4.213   0.465   1.833
    1   AR   Ar  137   2.756   6.913   3.427
    1   AR   Ar  138   4.811   1.150   5.168
    1   AR   Ar  139   5.657   1.093   4.566
    1   AR   Ar  140   4.423   0.944   4.003
    1   AR   Ar  141   3.802   6.863   4.023
    1   AR   Ar  142   4.472   6.980   5.304
    1   AR   Ar  143   5.904   0.154   5.928
    1   AR   Ar  144   5.214   0.628   6.627
    1   AR   Ar  145   3.274   3.696   0.312
    1   AR   Ar  146   4.312   2.477   1.564
    1   AR   Ar  147   5.556   2.031  -0.220
    1   AR   Ar  148   5.784   3.513  -2.536
    1   AR   Ar  149   3.775   2.004   0.418
    1   AR   Ar  150   2.944   1.630   2.984
    1   AR   Ar  151   3.770   2.272   3.655
    1   AR   Ar  152   2.971   3.079   1.494
    1   AR   Ar  153   3.162   1.176   3.954
    1   AR   Ar  154   3.928   1.662   4.477
    1   AR   Ar  155   5.874   1.091   5.629
    1   AR   Ar  156   3.887   3.847   3.573
    1   AR   Ar  157   3.159   2.460   5.894
    1   AR   Ar  158   1.663   1.865   7.056
    1   AR   Ar  159   4.312   0.648   6.092
    1   AR   Ar  160   3.859   3.314   6.915
    1   AR   Ar  161   5.051   2.240   0.730
    1   AR   Ar  162   4.530   5.425  -0.260
    1   AR   Ar  163   5.308   3.567   0.180
    1   AR   Ar  164   4.254   5.266   1.938
    1   AR   Ar  165   3.372   3.509   2.483
    1   AR   Ar  166   2.913   5.134   3.188
    1   AR   Ar  167   4.786   2.393   2.833
    1   AR   Ar  168   3.833   3.805  -0.510
    1   AR   Ar  169   2.830   2.600   3.641
    1   AR   Ar  170   3.224   4.255   4.838
    1   AR   Ar  171   4.424   3.424   4.920
    1   AR   Ar  172   4.579   5.329   4.324
    1   AR   Ar  173   2.331   3.114   6.648
    1   AR   Ar  174   4.393   4.633   6.130
    1   AR   Ar  175   4.370   3.326   5.908
    1   AR   Ar  176   3.749   5.358   5.133
    1   AR   Ar  177   5.536   5.917  -0.392
    1   AR   Ar  178   3.326   6.503   1.563
    1   AR   Ar  179   3.705   5.433   0.853
    1   AR   Ar  180   3.760   3.792  -1.552
    1   AR   Ar  181   2.483   5.798   1.915
    1   AR   Ar  182   2.048   6.704   2.277
    1   AR   Ar  183   3.311   4.500   2.309
    1   AR   Ar  184   4.244   6.326   2.155
    1   AR   Ar  185   1.370   5.528   4.418
    1   AR   Ar  186   3.464   5.673   3.930
    1   AR   Ar  187   4.664   5.799   3.197
    1   AR   Ar  188   3.603   5.865   2.801
    1   AR   Ar  189   2.852   5.089   5.725
    1   AR   Ar  190   4.309   5.933   5.936
    1   AR   Ar  191   5.209   5.778   5.418
    1   AR   Ar  192   4.176   6.157   4.672
    1   AR   Ar  193   6.454   6.263  -0.308
    1   AR   Ar  194   5.801   5.961  -1.398
    1   AR   Ar  195   5.853   0.679  -0.062
    1   AR   Ar  196   5.484   0.951  -1.820
    1   AR   Ar  197   5.146   0.890   0.625
    1   AR   Ar  198   6.068   1.649   1.469
    1   AR   Ar  199   5.325   0.655   1.994
    1   AR   Ar  200   6.731   1.125   0.565
    1   AR   Ar  201   4.805   6.918   3.360
    1   AR   Ar  202   5.059   2.126   4.247
    1   AR   Ar  203   0.263   6.291   4.555
    1   AR   Ar  204   5.479   0.715   3.645
    1   AR   Ar  205   6.388   7.065   3.274
    1   AR   Ar  206   5.738   0.139   4.942
    1   AR   Ar  207   6.929   0.543   6.050
    1   AR   Ar  208   6.694   0.607   4.157
    1   AR   Ar  209   5.081   2.127  -2.210
    1   AR   Ar  210   4.352   1.518   1.485
    1   AR   Ar  211   6.223   2.710   0.421
    1   AR   Ar  212   6.072   4.222  -1.605
    1   AR   Ar  213   3.233   2.529   2.504
    1   AR   Ar  214   4.330   3.294   2.703
    1   AR   Ar  215   5.816   2.183   2.565
    1   AR   Ar  216   6.542   3.179   1.940
    1   AR   Ar  217   4.573   3.038   3.920
    1   AR   Ar  218   4.605   2.416   5.073
    1   AR   Ar  219   5.343   1.683   3.327
    1   AR   Ar  220   5.526   3.235   2.654
    1   AR   Ar  221   6.897   0.009   5.063
    1   AR   Ar  222   5.079   1.640   6.163
    1   AR   Ar  223   6.452   0.922   6.866
    1   AR   Ar  224   5.626   2.115   5.172
    1   AR   Ar  225   5.164   4.722   0.006
    1   AR   Ar  226   4.893   4.462   2.499
    1   AR   Ar  227   7.046   4.760   0.060
    1   AR   Ar  228   6.038   5.522   0.733
    1   AR   Ar  229   5.971   4.185   1.028
    1   AR   Ar  230   4.248   4.798   3.375
    1   AR   Ar  231   6.707   2.555   3.105
    1   AR   Ar  232   4.554   3.465   0.970
    1   AR   Ar  233   6.156   2.658   4.178
    1   AR   Ar  234   6.388   3.565   4.622
    1   AR   Ar  235   0.154   3.131   4.253
    1   AR   Ar  236   5.375   4.415   3.864
    1   AR   Ar  237   5.387   3.284   4.605
    1   AR   Ar  238   4.946   4.272   5.394
    1   AR   Ar  239   6.347   4.430   8.733
    1   AR   Ar  240   0.268   4.353   5.181
    1   AR   Ar  241   0.006   0.290  -0.428
    1   AR   Ar  242   4.986   5.632   1.021
    1   AR   Ar  243   5.811   4.202   2.111
    1   AR   Ar  244   0.399   5.578  -0.504
    1   AR   Ar  245   5.544   6.384   2.515
    1   AR   Ar  246   6.220   6.496   1.692
    1   AR   Ar  247   5.600   2.995   1.503
    1   AR   Ar  248   6.030   6.860   0.516
    1   AR   Ar  249   5.589   5.222   2.607
    1   AR   Ar  250   5.129   6.115   4.197
    1   AR   Ar  251   5.677   4.957   4.787
    1   AR   Ar  252   5.885   6.180   3.512
    1   AR   Ar  253   5.770   4.907   5.844
    1   AR   Ar  254   5.139   5.263   6.441
    1   AR   Ar  255   5.280   4.456   7.039
    1   AR   Ar  256   6.204   6.189   4.863
    7.12000  7.12000 12.00000
Argon-slab step 1645
  256
    1   AR   Ar    1   6.902   1.184  -1.204
    1   AR   Ar    2   6.219   0.570   1.333
    1   AR   Ar    3   0.032   6.912   0.793
    1   AR   Ar    4   0.740   0.463   0.288
    1   AR   Ar    5   7.098   5.864   0.590
    1   AR   Ar    6   0.253   0.246   3.129
    1   AR   Ar    7   0.289   5.667   2.440
    1   AR   Ar    8   0.032   6.916   2.004
    1   AR   Ar    9   0.869   0.673   4.001
    1   AR   Ar   10   0.278   1.649   4.213
    1   AR   Ar   11   2.697   0.145   4.581
    1   AR   Ar   12   1.098   1.115   3.063
    1   AR   Ar   13   6.725   1.608   5.011
    1   AR   Ar   14   0.187   1.390   6.456
    1   AR   Ar   15   0.456   6.320   8.751
    1   AR   Ar   16   0.662   1.403   5.349
    1   AR   Ar   17   0.133   1.212  -0.264
    1   AR   Ar   18   6.262   3.401  -0.831
    1   AR   Ar   19   1.066   1.842   1.403
    1   AR   Ar   20   6.780   2.271  -2.349
    1   AR   Ar   21   6.206   1.226   2.486
    1   AR   Ar   22   7.116   2.195   2.158
    1   AR   Ar   23   0.223   0.943   1.311
    1   AR   Ar   24   0.175   2.420   1.098
    1   AR   Ar   25   0.033   1.459   3.167
    1   AR   Ar   26   6.264   1.706   3.861
    1   AR   Ar   27   2.033   1.280   3.487
    1   AR   Ar   28   1.065   2.516   4.872
    1   AR   Ar   29   6.352   1.771   6.213
    1   AR   Ar   30   0.326   2.720   6.112
    1   AR   Ar   31   0.360   0.140   6.911
    1   AR   Ar   32   1.476   2.729   6.075
    1   AR   Ar   33   1.276   4.289  -1.676
    1   AR   Ar   34   0.644   5.514   1.400
    1   AR   Ar   35   0.471   3.661   1.241
    1   AR   Ar   36   0.348   0.268  -1.418
    1   AR   Ar   37   0.492   3.263   2.370
    1   AR   Ar   38   6.975   4.367   2.338
    1   AR   Ar   39   0.934   4.237   2.083
    1   AR   Ar   40   2.088   3.804   1.192
    1   AR   Ar   41   0.540   2.431   3.424
    1   AR   Ar   42   6.653   5.244   5.352
    1   AR   Ar   43   6.651   2.620   5.196
    1   AR   Ar   44   0.556   3.630   3.331
    1   AR   Ar   45   1.135   3.602   5.409
    1   AR   Ar   46   0.146   5.676   6.410
    1   AR   Ar   47   5.750   3.783   5.525
    1   AR   Ar   48   6.471   6.604   6.765
    1   AR   Ar   49   6.758   5.324  -1.462
    1   AR   Ar   50   6.400   5.321   1.639
    1   AR   Ar   51   1.514   4.996   0.905
    1   AR   Ar   52   0.033   4.435  -0.910
    1   AR   Ar   53   6.524   6.269   2.623
    1   AR   Ar   54   0.158   6.309   3.383
    1   AR   Ar   55   6.613   4.875   3.221
    1   AR   Ar   56   1.264   6.415   1.195
    1   AR   Ar   57   6.418   3.731   3.040
    1   AR   Ar   58   7.023   5.411   4.213
    1   AR   Ar   59   1.862   5.670   5.361
    1   AR   Ar   60   1.287   6.513   3.894
    1   AR   Ar   61   6.032   5.898   6.117
    1   AR   Ar   62   0.728   5.760   5.323
    1   AR   Ar   63   1.112   5.881   6.256
    1   AR   Ar   64   1.270   0.165   4.704
    1   AR   Ar   65   2.789   0.140  -0.323
    1   AR   Ar   66   1.776   1.067   1.018
    1   AR   Ar   67   3.227   6.322  -0.467
    1   AR   Ar   68   3.308   0.656  -1.207
    1   AR   Ar   69   1.870   0.328   0.221
    1   AR   Ar   70   0.992   0.252   1.973
    1   AR   Ar   71   2.900   0.651   2.162
    1   AR   Ar   72   3.113   0.270   1.050
    1   AR   Ar   73   1.748   0.054   3.219
    1   AR   Ar   74   1.309   1.552   4.319
    1   AR   Ar   75   3.580   0.752   4.801
    1   AR   Ar   76   1.853   0.801   2.364
    1   AR   Ar   77   2.258   6.880   5.893
    1   AR   Ar   78   1.279   0.676   6.067
    1   AR   Ar   79   3.944   6.220   6.881
    1   AR   Ar   80   2.938   6.133   5.639
    1   AR   Ar   81   1.381   1.568   0.098
    1   AR   Ar   82   0.516   3.609  -0.527
    1   AR   Ar   83   2.660   2.366   0.810
    1   AR   Ar   84   1.683   4.015  -3.136
    1   AR   Ar   85   0.932   2.636  -0.526
    1   AR   Ar   86   1.622   2.994   1.947
    1   AR   Ar   87   2.586   2.137   1.834
    1   AR   Ar   88   3.471   4.505   1.327
    1   AR   Ar   89   1.144   2.051   2.472
    1   AR   Ar   90   2.959   2.038   4.453
    1   AR   Ar   91   1.928   2.399   4.071
    1   AR   Ar   92   2.046   2.293   2.991
    1   AR   Ar   93   2.020   2.196   5.133
    1   AR   Ar   94   2.816   0.678   7.352
    1   AR   Ar   95   3.475   0.025   5.905
    1   AR   Ar   96   2.839   0.935   5.742
    1   AR   Ar   97   3.865   2.825  -0.908
    1   AR   Ar   98   2.424   4.628   1.646
    1   AR   Ar   99   5.695   2.295  -1.319
    1   AR   Ar  100   1.430   4.375  -0.561
    1   AR   Ar  101   1.629   2.558   0.876
    1   AR   Ar  102   2.967   3.648   3.831
    1   AR   Ar  103   1.314   3.750   0.482
    1   AR   Ar  104   2.529   3.674  -1.257
    1   AR   Ar  105   1.447   3.179   3.654
    1   AR   Ar  106   2.270   3.198   4.587
    1   AR   Ar  107   2.064   4.088   5.231
    1   AR   Ar  108   3.461   2.915   4.585
    1   AR   Ar  109   1.617   4.154   3.987
    1   AR   Ar  110   1.406   4.836   5.571
    1   AR   Ar  111   4.419   5.217   7.153
    1   AR   Ar  112   1.176   4.891   6.818
    1   AR   Ar  113   2.456   4.742   0.571
    1   AR   Ar  114   2.500   6.532   0.572
    1   AR   Ar  115   3.115   4.914  -0.439
    1   AR   Ar  116   4.821   6.392   0.162
    1   AR   Ar  117   0.668   5.480   3.416
    1   AR   Ar  118   1.269   6.256   2.798
    1   AR   Ar  119   2.299   4.065   2.801
    1   AR   Ar  120   1.318   5.399   2.272
    1   AR   Ar  121   6.851   4.125   3.928
    1   AR   Ar  122   2.467   6.062   4.561
    1   AR   Ar  123   2.408   5.065   4.765
    1   AR   Ar  124   2.297   6.013   3.492
    1   AR   Ar  125   0.763   4.649   4.109
    1   AR   Ar  126   0.595   6.868   5.617
    1   AR   Ar  127   3.055   5.508   7.098
    1   AR   Ar  128   2.131   5.502   6.376
    1   AR   Ar  129   2.236   0.213   1.481
    1   AR   Ar  130   4.172   1.116  -1.622
    1   AR   Ar  131   4.796   6.830   1.385
    1   AR   Ar  132   6.711   2.162  -1.284
    1   AR   Ar  133   3.610   6.984   2.643
    1   AR   Ar  134   4.008   1.688   2.422
    1   AR   Ar  135   4.791   0.731   2.880
    1   AR   Ar  136   4.224   0.450   1.809
    1   AR   Ar  137   2.758   6.946   3.404
    1   AR   Ar  138   4.794   1.124   5.175
    1   AR   Ar  139   5.648   1.094   4.558
    1   AR   Ar  140   4.460   0.938   3.992
    1   AR   Ar  141   3.794   6.843   4.012
    1   AR   Ar  142   4.456   6.982   5.314
    1   AR   Ar  143   5.894   0.184   5.939
    1   AR   Ar  144   5.197   0.624   6.620
    1   AR   Ar  145   3.274   3.709   0.278
    1   AR   Ar  146   4.316   2.479   1.538
    1   AR   Ar  147   5.571   2.032  -0.199
    1   AR   Ar  148   5.768   3.532  -2.554
    1   AR   Ar  149   3.766   2.020   0.425
    1   AR   Ar  150   2.926   1.604   2.980
    1   AR   Ar  151   3.746   2.308   3.645
    1   AR   Ar  152   2.955   3.109   1.482
    1   AR   Ar  153   3.159   1.117   3.969
    1   AR   Ar  154   3.907   1.650   4.499
    1   AR   Ar  155   5.913   1.111   5.619
    1   AR   Ar  156   3.893   3.848   3.574
    1   AR   Ar  157   3.140   2.489   5.913
    1   AR   Ar  158   1.653   1.906   7.084
    1   AR   Ar  159   4.314   0.650   6.080
    1   AR   Ar  160   3.858   3.287   6.949
    1   AR   Ar  161   5.060   2.235   0.722
    1   AR   Ar  162   4.517   5.448  -0.276
    1   AR   Ar  163   5.289   3.562   0.178
    1   AR   Ar  164   4.214   5.281   1.964
    1   AR   Ar  165   3.358   3.508   2.484
    1   AR   Ar  166   2.891   5.121   3.215
    1   AR   Ar  167   4.774   2.406   2.839
    1   AR   Ar  168   3.841   3.794  -0.537
    1   AR   Ar  169   2.825   2.607   3.628
    1   AR   Ar  170   3.229   4.272   4.859
    1   AR   Ar  171   4.420   3.437   4.924
    1   AR   Ar  172   4.592   5.317   4.346
    1   AR   Ar  173   2.308   3.124   6.663
    1   AR   Ar  174   4.406   4.638   6.132
    1   AR   Ar  175   4.345   3.334   5.902
    1   AR   Ar  176   3.778   5.355   5.143
    1   AR   Ar  177   5.535   5.912  -0.402
    1   AR   Ar  178   3.334   6.479   1.616
    1   AR   Ar  179   3.734   5.467   0.874
    1   AR   Ar  180   3.751   3.784  -1.557
    1   AR   Ar  181   2.487   5.797   1.893
    1   AR   Ar  182   2.064   6.678   2.322
    1   AR   Ar  183   3.310   4.493   2.334
    1   AR   Ar  184   4.263   6.324   2.129
    1   AR   Ar  185   1.353   5.514   4.392
    1   AR   Ar  186   3.439   5.681   3.942
    1   AR   Ar  187   4.642   5.815   3.182
    1   AR   Ar  188   3.586   5.853   2.769
    1   AR   Ar  189   2.861   5.074   5.727
    1   AR   Ar  190   4.314   5.948   5.929
    1   AR   Ar  191   5.210   5.737   5.386
    1   AR   Ar  192   4.174   6.152   4.685
    1   AR   Ar  193   6.494   6.242  -0.290
    1   AR   Ar  194   5.841   5.946  -1.407
    1   AR   Ar  195   5.856   0.667  -0.083
    1   AR   Ar  196   5.512   0.945  -1.776
    1   AR   Ar  197   5.149   0.879   0.637
    1   AR   Ar  198   6.073   1.644   1.517
    1   AR   Ar  199   5.305   0.670   1.989
    1   AR   Ar  200   6.722   1.110   0.574
    1   AR   Ar  201   4.780   6.895   3.360
    1   AR   Ar  202   5.062   2.147   4.254
    1   AR   Ar  203   0.278   6.286   4.584
    1   AR   Ar  204   5.470   0.711   3.647
    1   AR   Ar  205   6.347   7.080   3.275
    1   AR   Ar  206   5.764   0.126   4.902
    1   AR   Ar  207   6.901   0.547   6.059
    1   AR   Ar  208   6.732   0.627   4.153
    1   AR   Ar  209   5.055   2.112  -2.226
    1   AR   Ar  210   4.330   1.508   1.464
    1   AR   Ar  211   6.206   2.710   0.404
    1   AR   Ar  212   6.060   4.202  -1.619
    1   AR   Ar  213   3.255   2.538   2.532
    1   AR   Ar  214   4.328   3.285   2.713
    1   AR   Ar  215   5.782   2.199   2.573
    1   AR   Ar  216   6.519   3.140   1.913
    1   AR   Ar  217   4.576   3.062   3.889
    1   AR   Ar  218   4.614   2.440   5.072
    1   AR   Ar  219   5.326   1.671   3.314
    1   AR   Ar  220   5.506   3.251   2.656
    1   AR   Ar  221   6.892   7.103   5.069
    1   AR   Ar  222   5.078   1.622   6.146
    1   AR   Ar  223   6.466   0.952   6.872
    1   AR   Ar  224   5.622   2.087   5.153
    1   AR   Ar  225   5.176   4.723  -0.009
    1   AR   Ar  226   4.886   4.479   2.506
    1   AR   Ar  227   7.044   4.758   0.033
    1   AR   Ar  228   6.018   5.524   0.744
    1   AR   Ar  229   5.993   4.203   1.017
    1   AR   Ar  230   4.269   4.784   3.363
    1   AR   Ar  231   6.687   2.582   3.113
    1   AR   Ar  232   4.555   3.446   0.942
    1   AR   Ar  233   6.176   2.640   4.196
    1   AR   Ar  234   6.386   3.558   4.625
    1   AR   Ar  235   0.123   3.104   4.223
    1   AR   Ar  236   5.390   4.430   3.904
    1   AR   Ar  237   5.390   3.287   4.568
    1   AR   Ar  238   4.914   4.285   5.413
    1   AR   Ar  239   6.327   4.413   8.759
    1   AR   Ar  240   0.263   4.389   5.162
    1   AR   Ar  241   0.009   0.265  -0.445
    1   AR   Ar  242   4.962   5.601   1.031
    1   AR   Ar  243   5.801   4.225   2.126
    1   AR   Ar  244   0.456   5.599  -0.527
    1   AR   Ar  245   5.524   6.362   2.514
    1   AR   Ar  246   6.219   6.486   1.712
    1   AR   Ar  247   5.602   3.008   1.473
    1   AR   Ar  248   6.035   6.824   0.528
    1   AR   Ar  249   5.592   5.211   2.588
    1   AR   Ar  250   5.124   6.144   4.213
    1   AR   Ar  251   5.697   4.962   4.788
    1   AR   Ar  252   5.848   6.205   3.525
    1   AR   Ar  253   5.774   4.876   5.851
    1   AR   Ar  254   5.160   5.297   6.438
    1   AR   Ar  255   5.274   4.418   7.017
    1   AR   Ar  256   6.187   6.184   4.864
    7.12000  7.12000 12.00000
Argon-slab step 1650
  256
    1   AR   Ar    1   6.894   1.153  -1.198
    1   AR   Ar    2   6.237   0.578   1.305
    1   AR   Ar    3   0.029   6.895   0.764
    1   AR   Ar    4   0.727   0.467   0.334
    1   AR   Ar    5   7.081   5.880   0.575
    1   AR   Ar    6   0.254   0.255   3.142
    1   AR   Ar    7   0.297   5.649   2.454
    1   AR   Ar    8   0.057   6.913   2.018
    1   AR   Ar    9   0.874   0.685   3.980
    1   AR   Ar   10   0.308   1.622   4.233
    1   AR   Ar   11   2.737   0.154   4.569
    1   AR   Ar   12   1.094   1.132   3.062
    1   AR   Ar   13   6.750   1.599   4.978
    1   AR   Ar   14   0.181   1.387   6.433
    1   AR   Ar   15   0.449   6.357   8.792
    1   AR   Ar   16   0.669   1.429   5.333
    1   AR   Ar   17   0.164   1.191  -0.256
    1   AR   Ar   18   6.240   3.425  -0.834
    1   AR   Ar   19   1.100   1.856   1.400
    1   AR   Ar   20   6.776   2.262  -2.369
    1   AR   Ar   21   6.223   1.238   2.487
    1   AR   Ar   22   7.109   2.169   2.137
    1   AR   Ar   23   0.251   0.912   1.280
    1   AR   Ar   24   0.165   2.374   1.076
    1   AR   Ar   25   0.046   1.483   3.214
    1   AR   Ar   26   6.274   1.680   3.871
    1   AR   Ar   27   2.036   1.262   3.475
    1   AR   Ar   28   1.075   2.499   4.900
    1   AR   Ar   29   6.300   1.792   6.209
    1   AR   Ar   30   0.351   2.735   6.122
    1   AR   Ar   31   0.350   0.156   6.898
    1   AR   Ar   32   1.486   2.735   6.069
    1   AR   Ar   33   1.268   4.297  -1.669
    1   AR   Ar   34   0.637   5.505   1.396
    1   AR   Ar   35   0.493   3.638   1.265
    1   AR   Ar   36   0.311   0.284  -1.412
    1   AR   Ar   37   0.485   3.242   2.398
    1   AR   Ar   38   7.030   4.362   2.360
    1   AR   Ar   39   0.955   4.226   2.090
    1   AR   Ar   40   2.060   3.828   1.177
    1   AR   Ar   41   0.524   2.394   3.417
    1   AR   Ar   42   6.681   5.263   5.342
    1   AR   Ar   43   6.663   2.619   5.201
    1   AR   Ar   44   0.558   3.663   3.348
    1   AR   Ar   45   1.118   3.608   5.420
    1   AR   Ar   46   0.143   5.664   6.409
    1   AR   Ar   47   5.766   3.781   5.490
    1   AR   Ar   48   6.461   6.603   6.783
    1   AR   Ar   49   6.780   5.316  -1.477
    1   AR   Ar   50   6.426   5.313   1.627
    1   AR   Ar   51   1.538   4.979   0.925
    1   AR   Ar   52   0.039   4.441  -0.924
    1   AR   Ar   53   6.514   6.229   2.639
    1   AR   Ar   54   0.146   6.309   3.400
    1   AR   Ar   55   6.579   4.886   3.191
    1   AR   Ar   56   1.248   6.413   1.184
    1   AR   Ar   57   6.397   3.739   2.990
    1   AR   Ar   58   7.020   5.406   4.204
    1   AR   Ar   59   1.870   5.701   5.348
    1   AR   Ar   60   1.290   6.523   3.907
    1   AR   Ar   61   6.024   5.901   6.105
    1   AR   Ar   62   0.756   5.787   5.354
    1   AR   Ar   63   1.095   5.905   6.248
    1   AR   Ar   64   1.283   0.160   4.716
    1   AR   Ar   65   2.785   0.143  -0.340
    1   AR   Ar   66   1.765   1.049   1.029
    1   AR   Ar   67   3.233   6.309  -0.509
    1   AR   Ar   68   3.289   0.663  -1.185
    1   AR   Ar   69   1.910   0.341   0.239
    1   AR   Ar   70   0.999   0.240   1.974
    1   AR   Ar   71   2.898   0.667   2.187
    1   AR   Ar   72   3.096   0.267   1.067
    1   AR   Ar   73   1.728   0.049   3.237
    1   AR   Ar   74   1.322   1.535   4.315
    1   AR   Ar   75   3.598   0.770   4.795
    1   AR   Ar   76   1.843   0.825   2.368
    1   AR   Ar   77   2.231   6.908   5.912
    1   AR   Ar   78   1.313   0.682   6.031
    1   AR   Ar   79   3.966   6.201   6.876
    1   AR   Ar   80   2.914   6.143   5.633
    1   AR   Ar   81   1.373   1.598   0.083
    1   AR   Ar   82   0.514   3.619  -0.530
    1   AR   Ar   83   2.658   2.363   0.830
    1   AR   Ar   84   1.676   4.010  -3.109
    1   AR   Ar   85   0.917   2.612  -0.490
    1   AR   Ar   86   1.635   2.984   1.930
    1   AR   Ar   87   2.564   2.122   1.824
    1   AR   Ar   88   3.470   4.544   1.289
    1   AR   Ar   89   1.191   2.082   2.476
    1   AR   Ar   90   2.941   2.011   4.437
    1   AR   Ar   91   1.919   2.391   4.066
    1   AR   Ar   92   2.041   2.290   3.011
    1   AR   Ar   93   2.030   2.194   5.154
    1   AR   Ar   94   2.794   0.690   7.375
    1   AR   Ar   95   3.449   0.007   5.902
    1   AR   Ar   96   2.865   0.939   5.677
    1   AR   Ar   97   3.868   2.872  -0.922
    1   AR   Ar   98   2.427   4.627   1.657
    1   AR   Ar   99   5.747   2.312  -1.323
    1   AR   Ar  100   1.448   4.363  -0.551
    1   AR   Ar  101   1.605   2.539   0.848
    1   AR   Ar  102   2.974   3.687   3.827
    1   AR   Ar  103   1.268   3.775   0.494
    1   AR   Ar  104   2.562   3.659  -1.220
    1   AR   Ar  105   1.444   3.164   3.652
    1   AR   Ar  106   2.282   3.182   4.614
    1   AR   Ar  107   2.055   4.111   5.215
    1   AR   Ar  108   3.461   2.951   4.542
    1   AR   Ar  109   1.661   4.160   3.993
    1   AR   Ar  110   1.430   4.845   5.602
    1   AR   Ar  111   4.412   5.240   7.179
    1   AR   Ar  112   1.162   4.884   6.816
    1   AR   Ar  113   2.462   4.749   0.567
    1   AR   Ar  114   2.475   6.535   0.562
    1   AR   Ar  115   3.103   4.894  -0.456
    1   AR   Ar  116   4.827   6.428   0.191
    1   AR   Ar  117   0.688   5.477   3.450
    1   AR   Ar  118   1.235   6.260   2.781
    1   AR   Ar  119   2.321   4.079   2.790
    1   AR   Ar  120   1.276   5.419   2.289
    1   AR   Ar  121   6.845   4.139   3.937
    1   AR   Ar  122   2.464   6.069   4.599
    1   AR   Ar  123   2.406   5.043   4.763
    1   AR   Ar  124   2.320   6.005   3.478
    1   AR   Ar  125   0.769   4.637   4.155
    1   AR   Ar  126   0.583   6.930   5.590
    1   AR   Ar  127   3.073   5.504   7.082
    1   AR   Ar  128   2.117   5.487   6.400
    1   AR   Ar  129   2.247   0.233   1.465
    1   AR   Ar  130   4.195   1.121  -1.659
    1   AR   Ar  131   4.817   6.826   1.381
    1   AR   Ar  132   6.743   2.178  -1.304
    1   AR   Ar  133   3.591   6.988   2.642
    1   AR   Ar  134   4.005   1.669   2.403
    1   AR   Ar  135   4.782   0.740   2.848
    1   AR   Ar  136   4.230   0.437   1.790
    1   AR   Ar  137   2.765   6.983   3.380
    1   AR   Ar  138   4.775   1.099   5.183
    1   AR   Ar  139   5.642   1.104   4.553
    1   AR   Ar  140   4.499   0.930   3.980
    1   AR   Ar  141   3.795   6.828   3.986
    1   AR   Ar  142   4.440   6.985   5.324
    1   AR   Ar  143   5.885   0.200   5.956
    1   AR   Ar  144   5.184   0.621   6.615
    1   AR   Ar  145   3.269   3.722   0.254
    1   AR   Ar  146   4.320   2.497   1.514
    1   AR   Ar  147   5.587   2.032  -0.180
    1   AR   Ar  148   5.752   3.551  -2.571
    1   AR   Ar  149   3.780   2.027   0.443
    1   AR   Ar  150   2.909   1.578   2.975
    1   AR   Ar  151   3.738   2.339   3.633
    1   AR   Ar  152   2.940   3.143   1.473
    1   AR   Ar  153   3.151   1.057   3.972
    1   AR   Ar  154   3.895   1.650   4.523
    1   AR   Ar  155   5.948   1.134   5.598
    1   AR   Ar  156   3.869   3.847   3.529
    1   AR   Ar  157   3.120   2.518   5.932
    1   AR   Ar  158   1.643   1.946   7.112
    1   AR   Ar  159   4.314   0.659   6.064
    1   AR   Ar  160   3.880   3.269   6.979
    1   AR   Ar  161   5.069   2.230   0.716
    1   AR   Ar  162   4.504   5.453  -0.297
    1   AR   Ar  163   5.273   3.556   0.175
    1   AR   Ar  164   4.180   5.275   1.971
    1   AR   Ar  165   3.340   3.514   2.486
    1   AR   Ar  166   2.869   5.105   3.241
    1   AR   Ar  167   4.760   2.412   2.845
    1   AR   Ar  168   3.854   3.790  -0.565
    1   AR   Ar  169   2.812   2.624   3.608
    1   AR   Ar  170   3.233   4.288   4.880
    1   AR   Ar  171   4.412   3.457   4.915
    1   AR   Ar  172   4.603   5.286   4.366
    1   AR   Ar  173   2.286   3.134   6.677
    1   AR   Ar  174   4.404   4.650   6.150
    1   AR   Ar  175   4.319   3.341   5.907
    1   AR   Ar  176   3.802   5.345   5.158
    1   AR   Ar  177   5.493   5.941  -0.412
    1   AR   Ar  178   3.341   6.456   1.669
    1   AR   Ar  179   3.763   5.502   0.895
    1   AR   Ar  180   3.739   3.776  -1.566
    1   AR   Ar  181   2.490   5.794   1.872
    1   AR   Ar  182   2.085   6.656   2.365
    1   AR   Ar  183   3.308   4.498   2.365
    1   AR   Ar  184   4.288   6.323   2.105
    1   AR   Ar  185   1.337   5.500   4.365
    1   AR   Ar  186   3.419   5.687   3.945
    1   AR   Ar  187   4.621   5.830   3.166
    1   AR   Ar  188   3.567   5.839   2.739
    1   AR   Ar  189   2.872   5.057   5.728
    1   AR   Ar  190   4.320   5.962   5.920
    1   AR   Ar  191   5.211   5.697   5.350
    1   AR   Ar  192   4.170   6.158   4.703
    1   AR   Ar  193   6.541   6.223  -0.271
    1   AR   Ar  194   5.881   5.931  -1.418
    1   AR   Ar  195   5.864   0.654  -0.106
    1   AR   Ar  196   5.540   0.941  -1.731
    1   AR   Ar  197   5.149   0.870   0.656
    1   AR   Ar  198   6.074   1.644   1.550
    1   AR   Ar  199   5.289   0.684   1.978
    1   AR   Ar  200   6.700   1.097   0.578
    1   AR   Ar  201   4.756   6.871   3.362
    1   AR   Ar  202   5.070   2.163   4.248
    1   AR   Ar  203   0.295   6.290   4.609
    1   AR   Ar  204   5.465   0.684   3.644
    1   AR   Ar  205   6.301   7.107   3.271
    1   AR   Ar  206   5.789   0.109   4.860
    1   AR   Ar  207   6.875   0.542   6.058
    1   AR   Ar  208   6.769   0.649   4.148
    1   AR   Ar  209   5.030   2.097  -2.242
    1   AR   Ar  210   4.311   1.483   1.436
    1   AR   Ar  211   6.187   2.710   0.389
    1   AR   Ar  212   6.048   4.181  -1.633
    1   AR   Ar  213   3.263   2.564   2.518
    1   AR   Ar  214   4.328   3.284   2.724
    1   AR   Ar  215   5.754   2.219   2.575
    1   AR   Ar  216   6.501   3.102   1.891
    1   AR   Ar  217   4.577   3.085   3.857
    1   AR   Ar  218   4.615   2.463   5.083
    1   AR   Ar  219   5.307   1.656   3.305
    1   AR   Ar  220   5.485   3.267   2.657
    1   AR   Ar  221   6.879   7.081   5.071
    1   AR   Ar  222   5.076   1.605   6.126
    1   AR   Ar  223   6.473   0.980   6.885
    1   AR   Ar  224   5.623   2.058   5.135
    1   AR   Ar  225   5.194   4.719  -0.021
    1   AR   Ar  226   4.869   4.492   2.515
    1   AR   Ar  227   7.040   4.760   0.016
    1   AR   Ar  228   5.996   5.528   0.743
    1   AR   Ar  229   6.014   4.222   1.005
    1   AR   Ar  230   4.291   4.775   3.350
    1   AR   Ar  231   6.662   2.610   3.120
    1   AR   Ar  232   4.554   3.427   0.917
    1   AR   Ar  233   6.195   2.625   4.215
    1   AR   Ar  234   6.384   3.555   4.636
    1   AR   Ar  235   0.094   3.075   4.191
    1   AR   Ar  236   5.404   4.444   3.942
    1   AR   Ar  237   5.392   3.288   4.532
    1   AR   Ar  238   4.900   4.273   5.412
    1   AR   Ar  239   6.307   4.395   8.786
    1   AR   Ar  240   0.259   4.425   5.140
    1   AR   Ar  241   0.022   0.241  -0.453
    1   AR   Ar  242   4.937   5.571   1.041
    1   AR   Ar  243   5.798   4.245   2.139
    1   AR   Ar  244   0.510   5.619  -0.549
    1   AR   Ar  245   5.493   6.341   2.513
    1   AR   Ar  246   6.213   6.478   1.716
    1   AR   Ar  247   5.599   3.020   1.439
    1   AR   Ar  248   6.040   6.788   0.542
    1   AR   Ar  249   5.600   5.207   2.569
    1   AR   Ar  250   5.122   6.182   4.234
    1   AR   Ar  251   5.718   4.982   4.776
    1   AR   Ar  252   5.816   6.226   3.533
    1   AR   Ar  253   5.792   4.831   5.846
    1   AR   Ar  254   5.171   5.347   6.444
    1   AR   Ar  255   5.268   4.379   6.994
    1   AR   Ar  256   6.171   6.178   4.865
    7.12000  7.12000 12.00000
Argon-slab step 1655
  256
    1   AR   Ar    1   6.880   1.120  -1.197
    1   AR   Ar    2   6.260   0.566   1.300
    1   AR   Ar    3   0.023   6.883   0.738
    1   AR   Ar    4   0.717   0.474   0.382
    1   AR   Ar    5   7.064   5.890   0.562
    1   AR   Ar    6   0.258   0.265   3.155
    1   AR   Ar    7   0.298   5.633   2.468
    1   AR   Ar    8   0.079   6.908   2.033
    1   AR   Ar    9   0.870   0.695   3.950
    1   AR   Ar   10   0.308   1.614   4.238
    1   AR   Ar   11   2.776   0.161   4.556
    1   AR   Ar   12   1.085   1.150   3.058
    1   AR   Ar   13   6.766   1.585   4.949
    1   AR   Ar   14   0.183   1.391   6.409
    1   AR   Ar   15   0.442   6.393   8.833
    1   AR   Ar   16   0.677   1.454   5.317
    1   AR   Ar   17   0.203   1.184  -0.246
    1   AR   Ar   18   6.219   3.448  -0.836
    1   AR   Ar   19   1.130   1.866   1.401
    1   AR   Ar   20   6.766   2.248  -2.411
    1   AR   Ar   21   6.242   1.247   2.494
    1   AR   Ar   22   7.102   2.144   2.118
    1   AR   Ar   23   0.287   0.878   1.258
    1   AR   Ar   24   0.155   2.330   1.053
    1   AR   Ar   25   0.056   1.503   3.257
    1   AR   Ar   26   6.285   1.648   3.878
    1   AR   Ar   27   2.041   1.244   3.466
    1   AR   Ar   28   1.080   2.483   4.926
    1   AR   Ar   29   6.252   1.826   6.212
    1   AR   Ar   30   0.375   2.749   6.129
    1   AR   Ar   31   0.338   0.172   6.883
    1   AR   Ar   32   1.495   2.739   6.061
    1   AR   Ar   33   1.259   4.306  -1.662
    1   AR   Ar   34   0.620   5.523   1.403
    1   AR   Ar   35   0.508   3.660   1.269
    1   AR   Ar   36   0.278   0.297  -1.414
    1   AR   Ar   37   0.476   3.219   2.421
    1   AR   Ar   38   7.085   4.357   2.380
    1   AR   Ar   39   0.979   4.215   2.097
    1   AR   Ar   40   2.031   3.845   1.160
    1   AR   Ar   41   0.515   2.359   3.411
    1   AR   Ar   42   6.709   5.285   5.331
    1   AR   Ar   43   6.669   2.611   5.206
    1   AR   Ar   44   0.552   3.691   3.364
    1   AR   Ar   45   1.099   3.614   5.431
    1   AR   Ar   46   0.130   5.649   6.408
    1   AR   Ar   47   5.819   3.774   5.446
    1   AR   Ar   48   6.452   6.606   6.800
    1   AR   Ar   49   6.802   5.309  -1.491
    1   AR   Ar   50   6.455   5.302   1.623
    1   AR   Ar   51   1.555   4.962   0.948
    1   AR   Ar   52   0.043   4.449  -0.949
    1   AR   Ar   53   6.510   6.184   2.662
    1   AR   Ar   54   0.146   6.317   3.415
    1   AR   Ar   55   6.544   4.900   3.161
    1   AR   Ar   56   1.232   6.413   1.173
    1   AR   Ar   57   6.377   3.747   2.941
    1   AR   Ar   58   7.015   5.397   4.194
    1   AR   Ar   59   1.877   5.742   5.339
    1   AR   Ar   60   1.290   6.527   3.922
    1   AR   Ar   61   6.018   5.905   6.088
    1   AR   Ar   62   0.781   5.806   5.372
    1   AR   Ar   63   1.094   5.934   6.254
    1   AR   Ar   64   1.299   0.150   4.739
    1   AR   Ar   65   2.814   0.158  -0.355
    1   AR   Ar   66   1.751   1.036   1.040
    1   AR   Ar   67   3.241   6.294  -0.550
    1   AR   Ar   68   3.270   0.669  -1.163
    1   AR   Ar   69   1.947   0.354   0.258
    1   AR   Ar   70   0.999   0.243   1.941
    1   AR   Ar   71   2.899   0.683   2.213
    1   AR   Ar   72   3.103   0.264   1.073
    1   AR   Ar   73   1.706   0.050   3.254
    1   AR   Ar   74   1.343   1.522   4.315
    1   AR   Ar   75   3.619   0.769   4.806
    1   AR   Ar   76   1.833   0.849   2.371
    1   AR   Ar   77   2.208   6.935   5.928
    1   AR   Ar   78   1.345   0.687   5.994
    1   AR   Ar   79   3.983   6.194   6.874
    1   AR   Ar   80   2.935   6.127   5.655
    1   AR   Ar   81   1.364   1.628   0.070
    1   AR   Ar   82   0.514   3.627  -0.530
    1   AR   Ar   83   2.657   2.359   0.842
    1   AR   Ar   84   1.669   4.006  -3.082
    1   AR   Ar   85   0.903   2.586  -0.453
    1   AR   Ar   86   1.643   2.991   1.934
    1   AR   Ar   87   2.547   2.143   1.785
    1   AR   Ar   88   3.469   4.581   1.249
    1   AR   Ar   89   1.232   2.113   2.478
    1   AR   Ar   90   2.916   1.982   4.424
    1   AR   Ar   91   1.909   2.372   4.066
    1   AR   Ar   92   2.037   2.287   3.028
    1   AR   Ar   93   2.045   2.191   5.177
    1   AR   Ar   94   2.772   0.702   7.398
    1   AR   Ar   95   3.422   7.107   5.898
    1   AR   Ar   96   2.890   0.942   5.611
    1   AR   Ar   97   3.870   2.908  -0.940
    1   AR   Ar   98   2.443   4.627   1.661
    1   AR   Ar   99   5.790   2.330  -1.326
    1   AR   Ar  100   1.464   4.351  -0.541
    1   AR   Ar  101   1.581   2.527   0.817
    1   AR   Ar  102   2.961   3.723   3.829
    1   AR   Ar  103   1.219   3.799   0.503
    1   AR   Ar  104   2.597   3.645  -1.183
    1   AR   Ar  105   1.441   3.155   3.640
    1   AR   Ar  106   2.295   3.169   4.642
    1   AR   Ar  107   2.041   4.133   5.215
    1   AR   Ar  108   3.463   2.989   4.498
    1   AR   Ar  109   1.680   4.164   3.995
    1   AR   Ar  110   1.446   4.850   5.638
    1   AR   Ar  111   4.403   5.261   7.205
    1   AR   Ar  112   1.148   4.879   6.813
    1   AR   Ar  113   2.475   4.753   0.560
    1   AR   Ar  114   2.450   6.539   0.553
    1   AR   Ar  115   3.102   4.878  -0.468
    1   AR   Ar  116   4.831   6.465   0.226
    1   AR   Ar  117   0.716   5.466   3.484
    1   AR   Ar  118   1.194   6.275   2.775
    1   AR   Ar  119   2.344   4.093   2.779
    1   AR   Ar  120   1.242   5.424   2.298
    1   AR   Ar  121   6.846   4.177   3.932
    1   AR   Ar  122   2.465   6.084   4.631
    1   AR   Ar  123   2.405   5.014   4.757
    1   AR   Ar  124   2.340   5.998   3.465
    1   AR   Ar  125   0.768   4.624   4.201
    1   AR   Ar  126   0.581   6.989   5.570
    1   AR   Ar  127   3.092   5.500   7.065
    1   AR   Ar  128   2.102   5.473   6.424
    1   AR   Ar  129   2.234   0.247   1.460
    1   AR   Ar  130   4.220   1.126  -1.696
    1   AR   Ar  131   4.836   6.818   1.366
    1   AR   Ar  132   6.782   2.198  -1.321
    1   AR   Ar  133   3.572   6.992   2.640
    1   AR   Ar  134   4.000   1.651   2.390
    1   AR   Ar  135   4.757   0.717   2.841
    1   AR   Ar  136   4.231   0.427   1.774
    1   AR   Ar  137   2.775   7.021   3.358
    1   AR   Ar  138   4.755   1.074   5.189
    1   AR   Ar  139   5.638   1.120   4.551
    1   AR   Ar  140   4.509   0.923   3.969
    1   AR   Ar  141   3.794   6.814   3.957
    1   AR   Ar  142   4.425   6.989   5.334
    1   AR   Ar  143   5.875   0.205   5.976
    1   AR   Ar  144   5.175   0.619   6.614
    1   AR   Ar  145   3.258   3.736   0.237
    1   AR   Ar  146   4.324   2.522   1.492
    1   AR   Ar  147   5.604   2.029  -0.165
    1   AR   Ar  148   5.736   3.570  -2.587
    1   AR   Ar  149   3.795   2.036   0.462
    1   AR   Ar  150   2.896   1.554   2.968
    1   AR   Ar  151   3.745   2.366   3.620
    1   AR   Ar  152   2.926   3.180   1.467
    1   AR   Ar  153   3.136   1.000   3.963
    1   AR   Ar  154   3.896   1.666   4.545
    1   AR   Ar  155   5.978   1.151   5.564
    1   AR   Ar  156   3.860   3.845   3.479
    1   AR   Ar  157   3.099   2.549   5.949
    1   AR   Ar  158   1.633   1.988   7.137
    1   AR   Ar  159   4.309   0.680   6.041
    1   AR   Ar  160   3.901   3.250   7.009
    1   AR   Ar  161   5.076   2.226   0.713
    1   AR   Ar  162   4.488   5.460  -0.318
    1   AR   Ar  163   5.262   3.550   0.170
    1   AR   Ar  164   4.150   5.253   1.966
    1   AR   Ar  165   3.319   3.531   2.489
    1   AR   Ar  166   2.846   5.085   3.265
    1   AR   Ar  167   4.746   2.411   2.854
    1   AR   Ar  168   3.872   3.799  -0.586
    1   AR   Ar  169   2.809   2.636   3.616
    1   AR   Ar  170   3.237   4.305   4.900
    1   AR   Ar  171   4.401   3.482   4.896
    1   AR   Ar  172   4.616   5.247   4.384
    1   AR   Ar  173   2.266   3.143   6.692
    1   AR   Ar  174   4.393   4.668   6.181
    1   AR   Ar  175   4.293   3.347   5.921
    1   AR   Ar  176   3.822   5.327   5.176
    1   AR   Ar  177   5.505   5.920  -0.444
    1   AR   Ar  178   3.351   6.434   1.650
    1   AR   Ar  179   3.794   5.540   0.917
    1   AR   Ar  180   3.726   3.768  -1.583
    1   AR   Ar  181   2.494   5.788   1.849
    1   AR   Ar  182   2.134   6.654   2.389
    1   AR   Ar  183   3.305   4.514   2.398
    1   AR   Ar  184   4.315   6.322   2.085
    1   AR   Ar  185   1.323   5.489   4.341
    1   AR   Ar  186   3.405   5.692   3.935
    1   AR   Ar  187   4.600   5.843   3.150
    1   AR   Ar  188   3.546   5.825   2.710
    1   AR   Ar  189   2.883   5.038   5.730
    1   AR   Ar  190   4.325   5.975   5.908
    1   AR   Ar  191   5.210   5.659   5.314
    1   AR   Ar  192   4.165   6.172   4.720
    1   AR   Ar  193   6.589   6.205  -0.254
    1   AR   Ar  194   5.921   5.916  -1.430
    1   AR   Ar  195   5.876   0.641  -0.129
    1   AR   Ar  196   5.568   0.938  -1.686
    1   AR   Ar  197   5.148   0.862   0.678
    1   AR   Ar  198   6.095   1.650   1.569
    1   AR   Ar  199   5.277   0.699   1.961
    1   AR   Ar  200   6.670   1.089   0.573
    1   AR   Ar  201   4.733   6.848   3.364
    1   AR   Ar  202   5.082   2.175   4.231
    1   AR   Ar  203   0.310   6.298   4.628
    1   AR   Ar  204   5.466   0.649   3.639
    1   AR   Ar  205   6.257   0.018   3.265
    1   AR   Ar  206   5.781   0.125   4.860
    1   AR   Ar  207   6.851   0.531   6.048
    1   AR   Ar  208   6.806   0.672   4.143
    1   AR   Ar  209   5.005   2.081  -2.257
    1   AR   Ar  210   4.294   1.451   1.402
    1   AR   Ar  211   6.169   2.713   0.376
    1   AR   Ar  212   6.038   4.162  -1.647
    1   AR   Ar  213   3.272   2.570   2.506
    1   AR   Ar  214   4.327   3.293   2.733
    1   AR   Ar  215   5.733   2.242   2.570
    1   AR   Ar  216   6.490   3.066   1.875
    1   AR   Ar  217   4.577   3.105   3.823
    1   AR   Ar  218   4.611   2.485   5.102
    1   AR   Ar  219   5.287   1.638   3.299
    1   AR   Ar  220   5.462   3.285   2.657
    1   AR   Ar  221   6.858   0.004   5.069
    1   AR   Ar  222   5.076   1.588   6.105
    1   AR   Ar  223   6.471   1.006   6.906
    1   AR   Ar  224   5.627   2.029   5.120
    1   AR   Ar  225   5.215   4.714  -0.031
    1   AR   Ar  226   4.844   4.501   2.523
    1   AR   Ar  227   7.035   4.766   0.007
    1   AR   Ar  228   5.970   5.536   0.733
    1   AR   Ar  229   6.036   4.241   0.994
    1   AR   Ar  230   4.313   4.773   3.339
    1   AR   Ar  231   6.634   2.639   3.127
    1   AR   Ar  232   4.552   3.405   0.895
    1   AR   Ar  233   6.212   2.612   4.233
    1   AR   Ar  234   6.383   3.555   4.654
    1   AR   Ar  235   0.069   3.060   4.186
    1   AR   Ar  236   5.417   4.455   3.977
    1   AR   Ar  237   5.391   3.288   4.497
    1   AR   Ar  238   4.888   4.261   5.397
    1   AR   Ar  239   6.287   4.378   8.813
    1   AR   Ar  240   0.256   4.461   5.118
    1   AR   Ar  241   0.051   0.228  -0.443
    1   AR   Ar  242   4.910   5.542   1.051
    1   AR   Ar  243   5.802   4.261   2.149
    1   AR   Ar  244   0.563   5.639  -0.571
    1   AR   Ar  245   5.454   6.322   2.511
    1   AR   Ar  246   6.204   6.472   1.709
    1   AR   Ar  247   5.587   3.031   1.402
    1   AR   Ar  248   6.044   6.752   0.557
    1   AR   Ar  249   5.613   5.211   2.553
    1   AR   Ar  250   5.103   6.210   4.247
    1   AR   Ar  251   5.741   5.002   4.765
    1   AR   Ar  252   5.790   6.243   3.536
    1   AR   Ar  253   5.813   4.783   5.837
    1   AR   Ar  254   5.176   5.403   6.453
    1   AR   Ar  255   5.261   4.340   6.970
    1   AR   Ar  256   6.150   6.176   4.853
    7.12000  7.12000 12.00000
Argon-slab step 1660
  256
    1   AR   Ar    1   6.860   1.094  -1.195
    1   AR   Ar    2   6.277   0.545   1.303
    1   AR   Ar    3   0.016   6.877   0.715
    1   AR   Ar    4   0.713   0.481   0.429
    1   AR   Ar    5   7.050   5.888   0.557
    1   AR   Ar    6   0.261   0.276   3.167
    1   AR   Ar    7   0.287   5.620   2.484
    1   AR   Ar    8   0.096   6.900   2.048
    1   AR   Ar    9   0.861   0.699   3.921
    1   AR   Ar   10   0.273   1.638   4.221
    1   AR   Ar   11   2.813   0.164   4.543
    1   AR   Ar   12   1.072   1.171   3.050
    1   AR   Ar   13   6.771   1.569   4.929
    1   AR   Ar   14   0.191   1.399   6.384
    1   AR   Ar   15   0.434   6.429   8.875
    1   AR   Ar   16   0.685   1.479   5.300
    1   AR   Ar   17   0.246   1.190  -0.232
    1   AR   Ar   18   6.198   3.470  -0.837
    1   AR   Ar   19   1.154   1.868   1.409
    1   AR   Ar   20   6.755   2.234  -2.454
    1   AR   Ar   21   6.261   1.253   2.508
    1   AR   Ar   22   7.094   2.117   2.102
    1   AR   Ar   23   0.325   0.845   1.242
    1   AR   Ar   24   0.144   2.285   1.029
    1   AR   Ar   25   0.058   1.510   3.291
    1   AR   Ar   26   6.297   1.611   3.882
    1   AR   Ar   27   2.047   1.224   3.462
    1   AR   Ar   28   1.081   2.469   4.951
    1   AR   Ar   29   6.209   1.870   6.222
    1   AR   Ar   30   0.400   2.762   6.135
    1   AR   Ar   31   0.326   0.188   6.866
    1   AR   Ar   32   1.503   2.741   6.050
    1   AR   Ar   33   1.250   4.314  -1.653
    1   AR   Ar   34   0.600   5.548   1.412
    1   AR   Ar   35   0.519   3.691   1.271
    1   AR   Ar   36   0.252   0.302  -1.427
    1   AR   Ar   37   0.466   3.193   2.442
    1   AR   Ar   38   0.019   4.351   2.400
    1   AR   Ar   39   1.006   4.204   2.105
    1   AR   Ar   40   2.002   3.857   1.143
    1   AR   Ar   41   0.516   2.337   3.407
    1   AR   Ar   42   6.737   5.309   5.321
    1   AR   Ar   43   6.664   2.593   5.213
    1   AR   Ar   44   0.543   3.722   3.382
    1   AR   Ar   45   1.079   3.618   5.441
    1   AR   Ar   46   0.110   5.633   6.406
    1   AR   Ar   47   5.868   3.766   5.409
    1   AR   Ar   48   6.445   6.611   6.817
    1   AR   Ar   49   6.826   5.301  -1.505
    1   AR   Ar   50   6.487   5.292   1.625
    1   AR   Ar   51   1.567   4.946   0.976
    1   AR   Ar   52   0.047   4.456  -0.981
    1   AR   Ar   53   6.506   6.138   2.688
    1   AR   Ar   54   0.136   6.352   3.421
    1   AR   Ar   55   6.509   4.916   3.131
    1   AR   Ar   56   1.217   6.415   1.164
    1   AR   Ar   57   6.361   3.754   2.894
    1   AR   Ar   58   7.008   5.385   4.185
    1   AR   Ar   59   1.878   5.785   5.341
    1   AR   Ar   60   1.285   6.527   3.940
    1   AR   Ar   61   6.002   5.905   6.073
    1   AR   Ar   62   0.801   5.821   5.386
    1   AR   Ar   63   1.109   5.968   6.281
    1   AR   Ar   64   1.317   0.138   4.764
    1   AR   Ar   65   2.842   0.172  -0.366
    1   AR   Ar   66   1.733   1.030   1.050
    1   AR   Ar   67   3.248   6.278  -0.590
    1   AR   Ar   68   3.253   0.677  -1.144
    1   AR   Ar   69   1.982   0.366   0.277
    1   AR   Ar   70   0.996   0.254   1.896
    1   AR   Ar   71   2.902   0.699   2.239
    1   AR   Ar   72   3.129   0.262   1.070
    1   AR   Ar   73   1.684   0.058   3.266
    1   AR   Ar   74   1.368   1.529   4.315
    1   AR   Ar   75   3.645   0.752   4.829
    1   AR   Ar   76   1.825   0.872   2.374
    1   AR   Ar   77   2.212   6.948   5.930
    1   AR   Ar   78   1.376   0.692   5.956
    1   AR   Ar   79   3.988   6.193   6.892
    1   AR   Ar   80   2.968   6.104   5.685
    1   AR   Ar   81   1.354   1.656   0.059
    1   AR   Ar   82   0.516   3.632  -0.528
    1   AR   Ar   83   2.659   2.356   0.838
    1   AR   Ar   84   1.662   4.001  -3.054
    1   AR   Ar   85   0.889   2.559  -0.414
    1   AR   Ar   86   1.643   3.024   1.969
    1   AR   Ar   87   2.527   2.168   1.754
    1   AR   Ar   88   3.467   4.616   1.210
    1   AR   Ar   89   1.262   2.141   2.475
    1   AR   Ar   90   2.887   1.954   4.413
    1   AR   Ar   91   1.900   2.345   4.073
    1   AR   Ar   92   2.039   2.284   3.044
    1   AR   Ar   93   2.064   2.187   5.200
    1   AR   Ar   94   2.750   0.713   7.420
    1   AR   Ar   95   3.396   7.087   5.892
    1   AR   Ar   96   2.915   0.945   5.545
    1   AR   Ar   97   3.872   2.925  -0.963
    1   AR   Ar   98   2.478   4.625   1.653
    1   AR   Ar   99   5.824   2.349  -1.329
    1   AR   Ar  100   1.480   4.337  -0.530
    1   AR   Ar  101   1.561   2.522   0.780
    1   AR   Ar  102   2.933   3.759   3.836
    1   AR   Ar  103   1.171   3.824   0.507
    1   AR   Ar  104   2.632   3.631  -1.145
    1   AR   Ar  105   1.446   3.163   3.602
    1   AR   Ar  106   2.310   3.158   4.670
    1   AR   Ar  107   2.030   4.149   5.213
    1   AR   Ar  108   3.465   3.026   4.454
    1   AR   Ar  109   1.657   4.165   3.991
    1   AR   Ar  110   1.457   4.856   5.677
    1   AR   Ar  111   4.394   5.281   7.231
    1   AR   Ar  112   1.134   4.875   6.807
    1   AR   Ar  113   2.496   4.755   0.550
    1   AR   Ar  114   2.427   6.543   0.546
    1   AR   Ar  115   3.117   4.867  -0.470
    1   AR   Ar  116   4.834   6.502   0.263
    1   AR   Ar  117   0.746   5.451   3.514
    1   AR   Ar  118   1.149   6.302   2.777
    1   AR   Ar  119   2.368   4.107   2.768
    1   AR   Ar  120   1.223   5.413   2.298
    1   AR   Ar  121   6.848   4.217   3.925
    1   AR   Ar  122   2.475   6.105   4.652
    1   AR   Ar  123   2.404   4.987   4.746
    1   AR   Ar  124   2.359   5.994   3.453
    1   AR   Ar  125   0.761   4.609   4.245
    1   AR   Ar  126   0.588   7.045   5.556
    1   AR   Ar  127   3.112   5.497   7.046
    1   AR   Ar  128   2.087   5.458   6.446
    1   AR   Ar  129   2.202   0.253   1.467
    1   AR   Ar  130   4.245   1.132  -1.733
    1   AR   Ar  131   4.863   6.810   1.344
    1   AR   Ar  132   6.830   2.218  -1.336
    1   AR   Ar  133   3.556   6.996   2.637
    1   AR   Ar  134   3.994   1.633   2.381
    1   AR   Ar  135   4.728   0.695   2.838
    1   AR   Ar  136   4.227   0.419   1.762
    1   AR   Ar  137   2.786   7.059   3.338
    1   AR   Ar  138   4.737   1.050   5.190
    1   AR   Ar  139   5.633   1.140   4.548
    1   AR   Ar  140   4.476   0.921   3.962
    1   AR   Ar  141   3.790   6.803   3.927
    1   AR   Ar  142   4.412   6.995   5.344
    1   AR   Ar  143   5.864   0.202   5.993
    1   AR   Ar  144   5.167   0.618   6.617
    1   AR   Ar  145   3.257   3.758   0.235
    1   AR   Ar  146   4.326   2.548   1.472
    1   AR   Ar  147   5.621   2.023  -0.157
    1   AR   Ar  148   5.721   3.589  -2.602
    1   AR   Ar  149   3.811   2.045   0.483
    1   AR   Ar  150   2.887   1.533   2.959
    1   AR   Ar  151   3.767   2.387   3.606
    1   AR   Ar  152   2.912   3.219   1.464
    1   AR   Ar  153   3.117   0.945   3.943
    1   AR   Ar  154   3.906   1.696   4.564
    1   AR   Ar  155   6.005   1.157   5.524
    1   AR   Ar  156   3.860   3.845   3.426
    1   AR   Ar  157   3.077   2.580   5.966
    1   AR   Ar  158   1.623   2.030   7.162
    1   AR   Ar  159   4.299   0.701   6.020
    1   AR   Ar  160   3.919   3.229   7.041
    1   AR   Ar  161   5.081   2.223   0.715
    1   AR   Ar  162   4.470   5.470  -0.338
    1   AR   Ar  163   5.255   3.545   0.162
    1   AR   Ar  164   4.120   5.229   1.960
    1   AR   Ar  165   3.296   3.556   2.493
    1   AR   Ar  166   2.823   5.061   3.286
    1   AR   Ar  167   4.730   2.401   2.864
    1   AR   Ar  168   3.894   3.827  -0.596
    1   AR   Ar  169   2.806   2.646   3.613
    1   AR   Ar  170   3.241   4.320   4.920
    1   AR   Ar  171   4.386   3.510   4.869
    1   AR   Ar  172   4.630   5.205   4.402
    1   AR   Ar  173   2.247   3.152   6.707
    1   AR   Ar  174   4.379   4.690   6.217
    1   AR   Ar  175   4.267   3.354   5.937
    1   AR   Ar  176   3.839   5.303   5.196
    1   AR   Ar  177   5.531   5.885  -0.479
    1   AR   Ar  178   3.360   6.414   1.631
    1   AR   Ar  179   3.825   5.580   0.938
    1   AR   Ar  180   3.711   3.761  -1.608
    1   AR   Ar  181   2.497   5.779   1.827
    1   AR   Ar  182   2.200   6.666   2.402
    1   AR   Ar  183   3.305   4.544   2.429
    1   AR   Ar  184   4.343   6.320   2.072
    1   AR   Ar  185   1.315   5.482   4.322
    1   AR   Ar  186   3.393   5.699   3.926
    1   AR   Ar  187   4.580   5.852   3.133
    1   AR   Ar  188   3.523   5.811   2.682
    1   AR   Ar  189   2.893   5.018   5.732
    1   AR   Ar  190   4.331   5.988   5.892
    1   AR   Ar  191   5.196   5.630   5.295
    1   AR   Ar  192   4.159   6.189   4.738
    1   AR   Ar  193   6.632   6.190  -0.246
    1   AR   Ar  194   5.961   5.902  -1.443
    1   AR   Ar  195   5.890   0.627  -0.152
    1   AR   Ar  196   5.595   0.936  -1.641
    1   AR   Ar  197   5.148   0.854   0.703
    1   AR   Ar  198   6.115   1.659   1.582
    1   AR   Ar  199   5.285   0.713   1.960
    1   AR   Ar  200   6.639   1.088   0.558
    1   AR   Ar  201   4.712   6.830   3.367
    1   AR   Ar  202   5.095   2.186   4.209
    1   AR   Ar  203   0.324   6.311   4.640
    1   AR   Ar  204   5.471   0.610   3.632
    1   AR   Ar  205   6.216   0.051   3.258
    1   AR   Ar  206   5.764   0.149   4.872
    1   AR   Ar  207   6.830   0.518   6.032
    1   AR   Ar  208   6.842   0.696   4.137
    1   AR   Ar  209   5.002   2.094  -2.276
    1   AR   Ar  210   4.280   1.416   1.363
    1   AR   Ar  211   6.152   2.719   0.367
    1   AR   Ar  212   6.028   4.143  -1.660
    1   AR   Ar  213   3.280   2.557   2.496
    1   AR   Ar  214   4.321   3.277   2.735
    1   AR   Ar  215   5.718   2.265   2.561
    1   AR   Ar  216   6.485   3.029   1.863
    1   AR   Ar  217   4.576   3.124   3.789
    1   AR   Ar  218   4.605   2.504   5.124
    1   AR   Ar  219   5.267   1.615   3.297
    1   AR   Ar  220   5.438   3.303   2.656
    1   AR   Ar  221   6.825   0.049   5.062
    1   AR   Ar  222   5.077   1.572   6.082
    1   AR   Ar  223   6.465   1.029   6.930
    1   AR   Ar  224   5.633   2.005   5.106
    1   AR   Ar  225   5.248   4.715  -0.038
    1   AR   Ar  226   4.838   4.495   2.520
    1   AR   Ar  227   7.019   4.761   0.011
    1   AR   Ar  228   5.944   5.546   0.719
    1   AR   Ar  229   6.030   4.263   1.003
    1   AR   Ar  230   4.332   4.776   3.334
    1   AR   Ar  231   6.606   2.668   3.134
    1   AR   Ar  232   4.546   3.384   0.877
    1   AR   Ar  233   6.225   2.597   4.250
    1   AR   Ar  234   6.382   3.556   4.664
    1   AR   Ar  235   0.048   3.056   4.198
    1   AR   Ar  236   5.426   4.462   4.006
    1   AR   Ar  237   5.387   3.287   4.463
    1   AR   Ar  238   4.879   4.252   5.376
    1   AR   Ar  239   6.267   4.361   8.840
    1   AR   Ar  240   0.253   4.496   5.097
    1   AR   Ar  241   0.075   0.203  -0.426
    1   AR   Ar  242   4.883   5.514   1.061
    1   AR   Ar  243   5.811   4.273   2.156
    1   AR   Ar  244   0.613   5.657  -0.592
    1   AR   Ar  245   5.410   6.303   2.508
    1   AR   Ar  246   6.195   6.467   1.695
    1   AR   Ar  247   5.585   3.025   1.373
    1   AR   Ar  248   6.048   6.716   0.573
    1   AR   Ar  249   5.603   5.204   2.551
    1   AR   Ar  250   5.060   6.218   4.245
    1   AR   Ar  251   5.771   5.021   4.754
    1   AR   Ar  252   5.771   6.257   3.534
    1   AR   Ar  253   5.811   4.782   5.821
    1   AR   Ar  254   5.178   5.458   6.463
    1   AR   Ar  255   5.252   4.303   6.943
    1   AR   Ar  256   6.123   6.181   4.821
    7.12000  7.12000 12.00000
Argon-slab step 1665
  256
    1   AR   Ar    1   6.829   1.080  -1.190
    1   AR   Ar    2   6.291   0.517   1.315
    1   AR   Ar    3   0.007   6.879   0.695
    1   AR   Ar    4   0.721   0.484   0.463
    1   AR   Ar    5   7.040   5.878   0.563
    1   AR   Ar    6   0.262   0.288   3.175
    1   AR   Ar    7   0.263   5.607   2.503
    1   AR   Ar    8   0.109   6.889   2.065
    1   AR   Ar    9   0.850   0.699   3.898
    1   AR   Ar   10   0.258   1.667   4.205
    1   AR   Ar   11   2.847   0.160   4.533
    1   AR   Ar   12   1.057   1.195   3.038
    1   AR   Ar   13   6.759   1.549   4.924
    1   AR   Ar   14   0.202   1.411   6.356
    1   AR   Ar   15   0.427   6.466   8.916
    1   AR   Ar   16   0.694   1.503   5.283
    1   AR   Ar   17   0.292   1.205  -0.219
    1   AR   Ar   18   6.178   3.490  -0.836
    1   AR   Ar   19   1.172   1.864   1.423
    1   AR   Ar   20   6.744   2.220  -2.496
    1   AR   Ar   21   6.278   1.260   2.535
    1   AR   Ar   22   7.087   2.090   2.089
    1   AR   Ar   23   0.344   0.829   1.232
    1   AR   Ar   24   0.132   2.240   1.005
    1   AR   Ar   25   0.047   1.495   3.302
    1   AR   Ar   26   6.308   1.575   3.884
    1   AR   Ar   27   2.050   1.203   3.461
    1   AR   Ar   28   1.079   2.456   4.973
    1   AR   Ar   29   6.168   1.918   6.235
    1   AR   Ar   30   0.424   2.774   6.139
    1   AR   Ar   31   0.314   0.205   6.849
    1   AR   Ar   32   1.510   2.742   6.037
    1   AR   Ar   33   1.240   4.322  -1.644
    1   AR   Ar   34   0.578   5.571   1.420
    1   AR   Ar   35   0.524   3.721   1.279
    1   AR   Ar   36   0.236   0.295  -1.449
    1   AR   Ar   37   0.455   3.166   2.460
    1   AR   Ar   38   0.034   4.348   2.413
    1   AR   Ar   39   1.039   4.193   2.111
    1   AR   Ar   40   1.974   3.865   1.126
    1   AR   Ar   41   0.529   2.334   3.404
    1   AR   Ar   42   6.765   5.331   5.310
    1   AR   Ar   43   6.661   2.577   5.222
    1   AR   Ar   44   0.534   3.754   3.400
    1   AR   Ar   45   1.058   3.623   5.451
    1   AR   Ar   46   0.135   5.607   6.372
    1   AR   Ar   47   5.899   3.765   5.397
    1   AR   Ar   48   6.439   6.617   6.831
    1   AR   Ar   49   6.851   5.294  -1.519
    1   AR   Ar   50   6.520   5.281   1.630
    1   AR   Ar   51   1.575   4.929   1.006
    1   AR   Ar   52   0.051   4.462  -1.016
    1   AR   Ar   53   6.498   6.092   2.714
    1   AR   Ar   54   0.127   6.387   3.428
    1   AR   Ar   55   6.475   4.933   3.100
    1   AR   Ar   56   1.202   6.418   1.155
    1   AR   Ar   57   6.349   3.760   2.850
    1   AR   Ar   58   7.000   5.373   4.177
    1   AR   Ar   59   1.871   5.824   5.355
    1   AR   Ar   60   1.277   6.521   3.961
    1   AR   Ar   61   5.974   5.901   6.062
    1   AR   Ar   62   0.816   5.833   5.402
    1   AR   Ar   63   1.144   5.998   6.264
    1   AR   Ar   64   1.336   0.127   4.791
    1   AR   Ar   65   2.868   0.181  -0.372
    1   AR   Ar   66   1.709   1.032   1.059
    1   AR   Ar   67   3.256   6.261  -0.630
    1   AR   Ar   68   3.240   0.689  -1.130
    1   AR   Ar   69   2.017   0.378   0.296
    1   AR   Ar   70   1.000   0.266   1.850
    1   AR   Ar   71   2.906   0.713   2.265
    1   AR   Ar   72   3.164   0.259   1.065
    1   AR   Ar   73   1.664   0.073   3.274
    1   AR   Ar   74   1.386   1.555   4.315
    1   AR   Ar   75   3.643   0.755   4.825
    1   AR   Ar   76   1.819   0.894   2.375
    1   AR   Ar   77   2.216   6.961   5.930
    1   AR   Ar   78   1.406   0.696   5.916
    1   AR   Ar   79   3.991   6.194   6.909
    1   AR   Ar   80   3.001   6.080   5.713
    1   AR   Ar   81   1.343   1.684   0.051
    1   AR   Ar   82   0.521   3.636  -0.524
    1   AR   Ar   83   2.662   2.364   0.816
    1   AR   Ar   84   1.655   3.997  -3.026
    1   AR   Ar   85   0.876   2.554  -0.389
    1   AR   Ar   86   1.644   3.059   2.002
    1   AR   Ar   87   2.501   2.190   1.748
    1   AR   Ar   88   3.465   4.648   1.171
    1   AR   Ar   89   1.279   2.165   2.466
    1   AR   Ar   90   2.855   1.925   4.403
    1   AR   Ar   91   1.893   2.320   4.083
    1   AR   Ar   92   2.048   2.281   3.062
    1   AR   Ar   93   2.086   2.182   5.223
    1   AR   Ar   94   2.728   0.725   7.441
    1   AR   Ar   95   3.370   7.068   5.886
    1   AR   Ar   96   2.937   0.947   5.480
    1   AR   Ar   97   3.873   2.927  -0.990
    1   AR   Ar   98   2.514   4.626   1.648
    1   AR   Ar   99   5.851   2.369  -1.332
    1   AR   Ar  100   1.495   4.324  -0.518
    1   AR   Ar  101   1.544   2.525   0.737
    1   AR   Ar  102   2.897   3.794   3.846
    1   AR   Ar  103   1.124   3.851   0.502
    1   AR   Ar  104   2.669   3.618  -1.106
    1   AR   Ar  105   1.451   3.171   3.563
    1   AR   Ar  106   2.326   3.149   4.697
    1   AR   Ar  107   2.017   4.154   5.204
    1   AR   Ar  108   3.467   3.062   4.410
    1   AR   Ar  109   1.640   4.165   3.987
    1   AR   Ar  110   1.462   4.866   5.719
    1   AR   Ar  111   4.385   5.296   7.257
    1   AR   Ar  112   1.137   4.868   6.793
    1   AR   Ar  113   2.521   4.754   0.538
    1   AR   Ar  114   2.404   6.547   0.540
    1   AR   Ar  115   3.132   4.856  -0.471
    1   AR   Ar  116   4.839   6.537   0.300
    1   AR   Ar  117   0.771   5.437   3.532
    1   AR   Ar  118   1.104   6.337   2.784
    1   AR   Ar  119   2.390   4.120   2.758
    1   AR   Ar  120   1.218   5.392   2.293
    1   AR   Ar  121   6.850   4.258   3.919
    1   AR   Ar  122   2.498   6.126   4.659
    1   AR   Ar  123   2.387   4.979   4.746
    1   AR   Ar  124   2.375   5.994   3.441
    1   AR   Ar  125   0.751   4.593   4.281
    1   AR   Ar  126   0.601   7.100   5.546
    1   AR   Ar  127   3.132   5.496   7.026
    1   AR   Ar  128   2.074   5.443   6.467
    1   AR   Ar  129   2.164   0.250   1.481
    1   AR   Ar  130   4.271   1.138  -1.770
    1   AR   Ar  131   4.896   6.803   1.316
    1   AR   Ar  132   6.885   2.237  -1.350
    1   AR   Ar  133   3.544   6.998   2.630
    1   AR   Ar  134   3.988   1.616   2.374
    1   AR   Ar  135   4.694   0.673   2.837
    1   AR   Ar  136   4.219   0.410   1.754
    1   AR   Ar  137   2.799   7.065   3.332
    1   AR   Ar  138   4.722   1.030   5.180
    1   AR   Ar  139   5.626   1.159   4.540
    1   AR   Ar  140   4.441   0.920   3.955
    1   AR   Ar  141   3.784   6.794   3.895
    1   AR   Ar  142   4.399   7.004   5.354
    1   AR   Ar  143   5.852   0.192   6.008
    1   AR   Ar  144   5.158   0.619   6.625
    1   AR   Ar  145   3.261   3.786   0.243
    1   AR   Ar  146   4.328   2.571   1.455
    1   AR   Ar  147   5.638   2.011  -0.155
    1   AR   Ar  148   5.705   3.607  -2.617
    1   AR   Ar  149   3.828   2.055   0.507
    1   AR   Ar  150   2.883   1.515   2.949
    1   AR   Ar  151   3.799   2.405   3.590
    1   AR   Ar  152   2.897   3.260   1.461
    1   AR   Ar  153   3.098   0.896   3.915
    1   AR   Ar  154   3.921   1.732   4.580
    1   AR   Ar  155   6.032   1.151   5.486
    1   AR   Ar  156   3.860   3.847   3.376
    1   AR   Ar  157   3.055   2.612   5.982
    1   AR   Ar  158   1.613   2.074   7.185
    1   AR   Ar  159   4.282   0.720   6.005
    1   AR   Ar  160   3.918   3.196   7.085
    1   AR   Ar  161   5.085   2.221   0.721
    1   AR   Ar  162   4.452   5.480  -0.356
    1   AR   Ar  163   5.255   3.540   0.149
    1   AR   Ar  164   4.091   5.205   1.955
    1   AR   Ar  165   3.272   3.579   2.498
    1   AR   Ar  166   2.801   5.032   3.306
    1   AR   Ar  167   4.714   2.382   2.877
    1   AR   Ar  168   3.919   3.871  -0.597
    1   AR   Ar  169   2.794   2.658   3.567
    1   AR   Ar  170   3.247   4.334   4.939
    1   AR   Ar  171   4.367   3.536   4.837
    1   AR   Ar  172   4.641   5.175   4.405
    1   AR   Ar  173   2.230   3.161   6.722
    1   AR   Ar  174   4.363   4.715   6.254
    1   AR   Ar  175   4.234   3.354   5.955
    1   AR   Ar  176   3.854   5.274   5.218
    1   AR   Ar  177   5.556   5.850  -0.508
    1   AR   Ar  178   3.369   6.394   1.612
    1   AR   Ar  179   3.847   5.614   0.949
    1   AR   Ar  180   3.694   3.755  -1.638
    1   AR   Ar  181   2.500   5.768   1.805
    1   AR   Ar  182   2.267   6.679   2.415
    1   AR   Ar  183   3.307   4.586   2.459
    1   AR   Ar  184   4.369   6.315   2.065
    1   AR   Ar  185   1.316   5.479   4.316
    1   AR   Ar  186   3.383   5.708   3.919
    1   AR   Ar  187   4.558   5.855   3.114
    1   AR   Ar  188   3.499   5.797   2.656
    1   AR   Ar  189   2.902   4.998   5.735
    1   AR   Ar  190   4.338   6.001   5.875
    1   AR   Ar  191   5.169   5.610   5.288
    1   AR   Ar  192   4.148   6.203   4.755
    1   AR   Ar  193   6.666   6.181  -0.255
    1   AR   Ar  194   6.000   5.891  -1.457
    1   AR   Ar  195   5.905   0.613  -0.175
    1   AR   Ar  196   5.623   0.936  -1.594
    1   AR   Ar  197   5.149   0.846   0.730
    1   AR   Ar  198   6.135   1.671   1.589
    1   AR   Ar  199   5.306   0.727   1.969
    1   AR   Ar  200   6.610   1.093   0.535
    1   AR   Ar  201   4.694   6.818   3.370
    1   AR   Ar  202   5.108   2.197   4.184
    1   AR   Ar  203   0.335   6.329   4.646
    1   AR   Ar  204   5.470   0.572   3.629
    1   AR   Ar  205   6.185   0.081   3.246
    1   AR   Ar  206   5.745   0.171   4.884
    1   AR   Ar  207   6.814   0.505   6.014
    1   AR   Ar  208   6.878   0.718   4.131
    1   AR   Ar  209   4.999   2.105  -2.295
    1   AR   Ar  210   4.268   1.383   1.322
    1   AR   Ar  211   6.137   2.729   0.363
    1   AR   Ar  212   6.019   4.126  -1.675
    1   AR   Ar  213   3.289   2.534   2.488
    1   AR   Ar  214   4.314   3.269   2.729
    1   AR   Ar  215   5.696   2.259   2.559
    1   AR   Ar  216   6.485   2.994   1.856
    1   AR   Ar  217   4.575   3.141   3.755
    1   AR   Ar  218   4.599   2.520   5.148
    1   AR   Ar  219   5.249   1.589   3.297
    1   AR   Ar  220   5.410   3.320   2.654
    1   AR   Ar  221   6.788   0.095   5.050
    1   AR   Ar  222   5.080   1.556   6.058
    1   AR   Ar  223   6.457   1.051   6.955
    1   AR   Ar  224   5.639   1.990   5.095
    1   AR   Ar  225   5.296   4.729  -0.043
    1   AR   Ar  226   4.837   4.481   2.509
    1   AR   Ar  227   6.986   4.735   0.026
    1   AR   Ar  228   5.917   5.557   0.701
    1   AR   Ar  229   6.007   4.288   1.026
    1   AR   Ar  230   4.348   4.787   3.337
    1   AR   Ar  231   6.577   2.697   3.141
    1   AR   Ar  232   4.537   3.363   0.861
    1   AR   Ar  233   6.234   2.579   4.264
    1   AR   Ar  234   6.367   3.552   4.639
    1   AR   Ar  235   0.034   3.050   4.207
    1   AR   Ar  236   5.432   4.462   4.027
    1   AR   Ar  237   5.382   3.285   4.430
    1   AR   Ar  238   4.874   4.248   5.355
    1   AR   Ar  239   6.247   4.344   8.866
    1   AR   Ar  240   0.246   4.527   5.083
    1   AR   Ar  241   0.102   0.198  -0.395
    1   AR   Ar  242   4.857   5.488   1.071
    1   AR   Ar  243   5.822   4.282   2.158
    1   AR   Ar  244   0.661   5.675  -0.612
    1   AR   Ar  245   5.366   6.286   2.504
    1   AR   Ar  246   6.186   6.463   1.679
    1   AR   Ar  247   5.601   2.995   1.358
    1   AR   Ar  248   6.050   6.680   0.589
    1   AR   Ar  249   5.576   5.195   2.561
    1   AR   Ar  250   5.017   6.226   4.247
    1   AR   Ar  251   5.811   5.041   4.745
    1   AR   Ar  252   5.740   6.266   3.533
    1   AR   Ar  253   5.793   4.813   5.802
    1   AR   Ar  254   5.174   5.510   6.475
    1   AR   Ar  255   5.242   4.268   6.915
    1   AR   Ar  256   6.097   6.184   4.789
    7.12000  7.12000 12.00000
Argon-slab step 1670
  256
    1   AR   Ar    1   6.791   1.077  -1.180
    1   AR   Ar    2   6.302   0.484   1.332
    1   AR   Ar    3   7.116   6.886   0.678
    1   AR   Ar    4   0.748   0.476   0.471
    1   AR   Ar    5   7.024   5.884   0.565
    1   AR   Ar    6   0.260   0.301   3.177
    1   AR   Ar    7   0.233   5.594   2.523
    1   AR   Ar    8   0.053   6.878   2.047
    1   AR   Ar    9   0.842   0.697   3.885
    1   AR   Ar   10   0.263   1.704   4.198
    1   AR   Ar   11   2.874   0.145   4.528
    1   AR   Ar   12   1.041   1.224   3.021
    1   AR   Ar   13   6.739   1.529   4.929
    1   AR   Ar   14   0.212   1.423   6.326
    1   AR   Ar   15   0.419   6.502   8.957
    1   AR   Ar   16   0.703   1.524   5.267
    1   AR   Ar   17   0.339   1.225  -0.205
    1   AR   Ar   18   6.158   3.507  -0.832
    1   AR   Ar   19   1.178   1.858   1.430
    1   AR   Ar   20   6.732   2.206  -2.537
    1   AR   Ar   21   6.285   1.279   2.591
    1   AR   Ar   22   7.080   2.063   2.079
    1   AR   Ar   23   0.337   0.836   1.242
    1   AR   Ar   24   0.121   2.195   0.981
    1   AR   Ar   25   0.023   1.461   3.286
    1   AR   Ar   26   6.316   1.542   3.883
    1   AR   Ar   27   2.050   1.179   3.464
    1   AR   Ar   28   1.075   2.446   4.995
    1   AR   Ar   29   6.127   1.966   6.246
    1   AR   Ar   30   0.448   2.786   6.141
    1   AR   Ar   31   0.301   0.221   6.831
    1   AR   Ar   32   1.517   2.742   6.021
    1   AR   Ar   33   1.229   4.330  -1.634
    1   AR   Ar   34   0.554   5.593   1.429
    1   AR   Ar   35   0.523   3.747   1.297
    1   AR   Ar   36   0.227   0.278  -1.477
    1   AR   Ar   37   0.444   3.138   2.478
    1   AR   Ar   38   7.116   4.348   2.414
    1   AR   Ar   39   1.076   4.181   2.118
    1   AR   Ar   40   1.947   3.872   1.111
    1   AR   Ar   41   0.557   2.347   3.410
    1   AR   Ar   42   6.802   5.332   5.298
    1   AR   Ar   43   6.658   2.562   5.235
    1   AR   Ar   44   0.524   3.787   3.418
    1   AR   Ar   45   1.037   3.627   5.460
    1   AR   Ar   46   0.158   5.580   6.336
    1   AR   Ar   47   5.909   3.772   5.416
    1   AR   Ar   48   6.433   6.625   6.843
    1   AR   Ar   49   6.849   5.296  -1.532
    1   AR   Ar   50   6.554   5.271   1.636
    1   AR   Ar   51   1.580   4.912   1.040
    1   AR   Ar   52   0.056   4.466  -1.051
    1   AR   Ar   53   6.485   6.047   2.740
    1   AR   Ar   54   0.119   6.419   3.438
    1   AR   Ar   55   6.443   4.950   3.070
    1   AR   Ar   56   1.188   6.425   1.147
    1   AR   Ar   57   6.345   3.764   2.814
    1   AR   Ar   58   6.991   5.360   4.169
    1   AR   Ar   59   1.860   5.859   5.378
    1   AR   Ar   60   1.266   6.512   3.984
    1   AR   Ar   61   5.958   5.902   6.043
    1   AR   Ar   62   0.821   5.837   5.397
    1   AR   Ar   63   1.191   6.031   6.256
    1   AR   Ar   64   1.356   0.116   4.816
    1   AR   Ar   65   2.889   0.183  -0.367
    1   AR   Ar   66   1.680   1.041   1.066
    1   AR   Ar   67   3.264   6.243  -0.668
    1   AR   Ar   68   3.231   0.707  -1.126
    1   AR   Ar   69   2.049   0.391   0.313
    1   AR   Ar   70   1.010   0.279   1.805
    1   AR   Ar   71   2.911   0.723   2.289
    1   AR   Ar   72   3.199   0.256   1.059
    1   AR   Ar   73   1.645   0.092   3.278
    1   AR   Ar   74   1.391   1.564   4.322
    1   AR   Ar   75   3.647   0.759   4.809
    1   AR   Ar   76   1.815   0.916   2.374
    1   AR   Ar   77   2.209   6.961   5.943
    1   AR   Ar   78   1.435   0.699   5.875
    1   AR   Ar   79   3.994   6.199   6.924
    1   AR   Ar   80   3.033   6.055   5.741
    1   AR   Ar   81   1.332   1.708   0.044
    1   AR   Ar   82   0.474   3.664  -0.553
    1   AR   Ar   83   2.665   2.386   0.786
    1   AR   Ar   84   1.648   3.993  -2.997
    1   AR   Ar   85   0.865   2.582  -0.385
    1   AR   Ar   86   1.645   3.096   2.033
    1   AR   Ar   87   2.471   2.208   1.762
    1   AR   Ar   88   3.463   4.677   1.133
    1   AR   Ar   89   1.283   2.187   2.450
    1   AR   Ar   90   2.824   1.896   4.393
    1   AR   Ar   91   1.896   2.314   4.093
    1   AR   Ar   92   2.057   2.273   3.074
    1   AR   Ar   93   2.109   2.176   5.245
    1   AR   Ar   94   2.706   0.737   7.462
    1   AR   Ar   95   3.346   7.051   5.878
    1   AR   Ar   96   2.949   0.952   5.423
    1   AR   Ar   97   3.874   2.921  -1.019
    1   AR   Ar   98   2.543   4.619   1.644
    1   AR   Ar   99   5.873   2.390  -1.335
    1   AR   Ar  100   1.508   4.309  -0.505
    1   AR   Ar  101   1.530   2.533   0.692
    1   AR   Ar  102   2.857   3.831   3.855
    1   AR   Ar  103   1.082   3.879   0.485
    1   AR   Ar  104   2.708   3.606  -1.065
    1   AR   Ar  105   1.457   3.176   3.522
    1   AR   Ar  106   2.342   3.139   4.723
    1   AR   Ar  107   1.997   4.147   5.186
    1   AR   Ar  108   3.470   3.097   4.367
    1   AR   Ar  109   1.629   4.164   3.982
    1   AR   Ar  110   1.465   4.879   5.761
    1   AR   Ar  111   4.378   5.308   7.283
    1   AR   Ar  112   1.163   4.854   6.767
    1   AR   Ar  113   2.532   4.746   0.524
    1   AR   Ar  114   2.384   6.549   0.537
    1   AR   Ar  115   3.147   4.843  -0.471
    1   AR   Ar  116   4.845   6.569   0.335
    1   AR   Ar  117   0.784   5.423   3.532
    1   AR   Ar  118   1.057   6.374   2.792
    1   AR   Ar  119   2.409   4.134   2.749
    1   AR   Ar  120   1.223   5.368   2.285
    1   AR   Ar  121   6.851   4.299   3.914
    1   AR   Ar  122   2.509   6.106   4.666
    1   AR   Ar  123   2.405   5.000   4.750
    1   AR   Ar  124   2.390   5.999   3.430
    1   AR   Ar  125   0.747   4.578   4.299
    1   AR   Ar  126   0.614   0.033   5.539
    1   AR   Ar  127   3.150   5.506   7.006
    1   AR   Ar  128   2.062   5.429   6.486
    1   AR   Ar  129   2.129   0.239   1.501
    1   AR   Ar  130   4.289   1.142  -1.802
    1   AR   Ar  131   4.856   6.806   1.334
    1   AR   Ar  132   6.943   2.255  -1.364
    1   AR   Ar  133   3.537   6.998   2.620
    1   AR   Ar  134   3.981   1.598   2.372
    1   AR   Ar  135   4.658   0.653   2.837
    1   AR   Ar  136   4.210   0.399   1.749
    1   AR   Ar  137   2.812   7.050   3.339
    1   AR   Ar  138   4.712   1.012   5.158
    1   AR   Ar  139   5.613   1.173   4.524
    1   AR   Ar  140   4.407   0.918   3.949
    1   AR   Ar  141   3.774   6.785   3.865
    1   AR   Ar  142   4.388   7.016   5.365
    1   AR   Ar  143   5.837   0.176   6.018
    1   AR   Ar  144   5.148   0.622   6.637
    1   AR   Ar  145   3.264   3.816   0.254
    1   AR   Ar  146   4.327   2.587   1.445
    1   AR   Ar  147   5.653   1.993  -0.159
    1   AR   Ar  148   5.690   3.625  -2.631
    1   AR   Ar  149   3.846   2.066   0.532
    1   AR   Ar  150   2.885   1.503   2.938
    1   AR   Ar  151   3.835   2.420   3.573
    1   AR   Ar  152   2.883   3.300   1.460
    1   AR   Ar  153   3.081   0.856   3.879
    1   AR   Ar  154   3.940   1.773   4.594
    1   AR   Ar  155   6.056   1.133   5.460
    1   AR   Ar  156   3.852   3.857   3.335
    1   AR   Ar  157   3.032   2.644   5.998
    1   AR   Ar  158   1.603   2.118   7.206
    1   AR   Ar  159   4.256   0.737   5.999
    1   AR   Ar  160   3.918   3.164   7.127
    1   AR   Ar  161   5.087   2.220   0.729
    1   AR   Ar  162   4.434   5.491  -0.373
    1   AR   Ar  163   5.259   3.536   0.133
    1   AR   Ar  164   4.063   5.180   1.950
    1   AR   Ar  165   3.249   3.596   2.502
    1   AR   Ar  166   2.779   5.000   3.326
    1   AR   Ar  167   4.696   2.355   2.892
    1   AR   Ar  168   3.945   3.921  -0.595
    1   AR   Ar  169   2.789   2.679   3.526
    1   AR   Ar  170   3.253   4.345   4.956
    1   AR   Ar  171   4.345   3.560   4.800
    1   AR   Ar  172   4.650   5.164   4.387
    1   AR   Ar  173   2.214   3.170   6.737
    1   AR   Ar  174   4.371   4.731   6.255
    1   AR   Ar  175   4.191   3.344   5.971
    1   AR   Ar  176   3.868   5.244   5.239
    1   AR   Ar  177   5.579   5.815  -0.532
    1   AR   Ar  178   3.378   6.376   1.594
    1   AR   Ar  179   3.841   5.601   0.935
    1   AR   Ar  180   3.675   3.751  -1.672
    1   AR   Ar  181   2.502   5.756   1.783
    1   AR   Ar  182   2.334   6.693   2.429
    1   AR   Ar  183   3.312   4.637   2.487
    1   AR   Ar  184   4.391   6.307   2.063
    1   AR   Ar  185   1.332   5.480   4.328
    1   AR   Ar  186   3.375   5.719   3.914
    1   AR   Ar  187   4.535   5.849   3.094
    1   AR   Ar  188   3.473   5.785   2.630
    1   AR   Ar  189   2.909   4.977   5.739
    1   AR   Ar  190   4.343   6.014   5.858
    1   AR   Ar  191   5.138   5.594   5.285
    1   AR   Ar  192   4.129   6.213   4.774
    1   AR   Ar  193   6.691   6.181  -0.284
    1   AR   Ar  194   5.993   5.883  -1.482
    1   AR   Ar  195   5.921   0.598  -0.196
    1   AR   Ar  196   5.651   0.937  -1.547
    1   AR   Ar  197   5.151   0.838   0.759
    1   AR   Ar  198   6.155   1.685   1.592
    1   AR   Ar  199   5.329   0.741   1.976
    1   AR   Ar  200   6.583   1.101   0.508
    1   AR   Ar  201   4.681   6.815   3.372
    1   AR   Ar  202   5.119   2.209   4.157
    1   AR   Ar  203   0.344   6.349   4.646
    1   AR   Ar  204   5.453   0.544   3.636
    1   AR   Ar  205   6.174   0.101   3.224
    1   AR   Ar  206   5.724   0.190   4.896
    1   AR   Ar  207   6.803   0.495   5.998
    1   AR   Ar  208   6.913   0.737   4.124
    1   AR   Ar  209   4.996   2.116  -2.312
    1   AR   Ar  210   4.257   1.353   1.279
    1   AR   Ar  211   6.124   2.745   0.363
    1   AR   Ar  212   6.010   4.111  -1.691
    1   AR   Ar  213   3.298   2.506   2.481
    1   AR   Ar  214   4.305   3.263   2.710
    1   AR   Ar  215   5.697   2.241   2.561
    1   AR   Ar  216   6.492   2.958   1.855
    1   AR   Ar  217   4.574   3.156   3.723
    1   AR   Ar  218   4.588   2.525   5.165
    1   AR   Ar  219   5.233   1.558   3.299
    1   AR   Ar  220   5.381   3.337   2.651
    1   AR   Ar  221   6.750   0.139   5.034
    1   AR   Ar  222   5.084   1.542   6.033
    1   AR   Ar  223   6.448   1.071   6.977
    1   AR   Ar  224   5.644   1.990   5.087
    1   AR   Ar  225   5.323   4.745  -0.035
    1   AR   Ar  226   4.832   4.460   2.493
    1   AR   Ar  227   6.939   4.745   0.028
    1   AR   Ar  228   5.892   5.568   0.683
    1   AR   Ar  229   5.983   4.314   1.049
    1   AR   Ar  230   4.360   4.802   3.346
    1   AR   Ar  231   6.555   2.721   3.147
    1   AR   Ar  232   4.526   3.346   0.845
    1   AR   Ar  233   6.236   2.555   4.274
    1   AR   Ar  234   6.371   3.546   4.586
    1   AR   Ar  235   0.029   3.043   4.213
    1   AR   Ar  236   5.435   4.455   4.041
    1   AR   Ar  237   5.374   3.283   4.398
    1   AR   Ar  238   4.866   4.264   5.372
    1   AR   Ar  239   6.226   4.327   8.893
    1   AR   Ar  240   0.231   4.553   5.086
    1   AR   Ar  241   0.131   0.208  -0.357
    1   AR   Ar  242   4.836   5.461   1.083
    1   AR   Ar  243   5.835   4.289   2.152
    1   AR   Ar  244   0.686   5.685  -0.626
    1   AR   Ar  245   5.323   6.271   2.499
    1   AR   Ar  246   6.177   6.458   1.663
    1   AR   Ar  247   5.603   2.971   1.339
    1   AR   Ar  248   6.052   6.644   0.605
    1   AR   Ar  249   5.552   5.196   2.572
    1   AR   Ar  250   4.976   6.233   4.251
    1   AR   Ar  251   5.858   5.063   4.738
    1   AR   Ar  252   5.702   6.272   3.532
    1   AR   Ar  253   5.774   4.845   5.784
    1   AR   Ar  254   5.158   5.555   6.490
    1   AR   Ar  255   5.231   4.235   6.884
    1   AR   Ar  256   6.078   6.184   4.763
    7.12000  7.12000 12.00000
Argon-slab step 1675
  256
    1   AR   Ar    1   6.747   1.080  -1.166
    1   AR   Ar    2   6.312   0.450   1.351
    1   AR   Ar    3   7.104   6.900   0.664
    1   AR   Ar    4   0.791   0.462   0.461
    1   AR   Ar    5   7.012   5.877   0.584
    1   AR   Ar    6   0.254   0.313   3.171
    1   AR   Ar    7   0.206   5.578   2.543
    1   AR   Ar    8   7.118   6.866   2.030
    1   AR   Ar    9   0.841   0.696   3.883
    1   AR   Ar   10   0.280   1.748   4.201
    1   AR   Ar   11   2.896   0.116   4.529
    1   AR   Ar   12   1.024   1.257   3.002
    1   AR   Ar   13   6.726   1.514   4.929
    1   AR   Ar   14   0.222   1.435   6.296
    1   AR   Ar   15   0.412   6.538   8.998
    1   AR   Ar   16   0.709   1.540   5.251
    1   AR   Ar   17   0.385   1.249  -0.192
    1   AR   Ar   18   6.139   3.523  -0.825
    1   AR   Ar   19   1.174   1.854   1.431
    1   AR   Ar   20   6.720   2.193  -2.577
    1   AR   Ar   21   6.294   1.291   2.597
    1   AR   Ar   22   7.074   2.035   2.072
    1   AR   Ar   23   0.315   0.855   1.269
    1   AR   Ar   24   0.110   2.149   0.957
    1   AR   Ar   25   7.118   1.420   3.251
    1   AR   Ar   26   6.318   1.515   3.879
    1   AR   Ar   27   2.047   1.155   3.471
    1   AR   Ar   28   1.072   2.442   5.013
    1   AR   Ar   29   6.088   2.013   6.255
    1   AR   Ar   30   0.469   2.796   6.140
    1   AR   Ar   31   0.288   0.238   6.812
    1   AR   Ar   32   1.526   2.741   6.004
    1   AR   Ar   33   1.218   4.337  -1.622
    1   AR   Ar   34   0.529   5.614   1.438
    1   AR   Ar   35   0.515   3.772   1.323
    1   AR   Ar   36   0.221   0.255  -1.506
    1   AR   Ar   37   0.432   3.110   2.496
    1   AR   Ar   38   7.080   4.349   2.414
    1   AR   Ar   39   1.114   4.170   2.126
    1   AR   Ar   40   1.922   3.876   1.097
    1   AR   Ar   41   0.592   2.366   3.415
    1   AR   Ar   42   6.818   5.319   5.277
    1   AR   Ar   43   6.657   2.548   5.250
    1   AR   Ar   44   0.516   3.818   3.436
    1   AR   Ar   45   1.016   3.630   5.468
    1   AR   Ar   46   0.181   5.554   6.299
    1   AR   Ar   47   5.911   3.783   5.447
    1   AR   Ar   48   6.428   6.633   6.854
    1   AR   Ar   49   6.840   5.302  -1.546
    1   AR   Ar   50   6.556   5.249   1.653
    1   AR   Ar   51   1.583   4.896   1.075
    1   AR   Ar   52   0.061   4.467  -1.085
    1   AR   Ar   53   6.495   6.012   2.753
    1   AR   Ar   54   0.113   6.446   3.450
    1   AR   Ar   55   6.413   4.966   3.041
    1   AR   Ar   56   1.174   6.434   1.139
    1   AR   Ar   57   6.347   3.760   2.788
    1   AR   Ar   58   6.983   5.349   4.163
    1   AR   Ar   59   1.848   5.891   5.409
    1   AR   Ar   60   1.253   6.501   4.006
    1   AR   Ar   61   5.953   5.909   6.016
    1   AR   Ar   62   0.815   5.832   5.376
    1   AR   Ar   63   1.246   6.068   6.266
    1   AR   Ar   64   1.379   0.106   4.838
    1   AR   Ar   65   2.907   0.178  -0.351
    1   AR   Ar   66   1.647   1.053   1.070
    1   AR   Ar   67   3.272   6.226  -0.706
    1   AR   Ar   68   3.228   0.732  -1.132
    1   AR   Ar   69   2.081   0.406   0.330
    1   AR   Ar   70   1.024   0.289   1.762
    1   AR   Ar   71   2.915   0.727   2.307
    1   AR   Ar   72   3.208   0.247   1.086
    1   AR   Ar   73   1.627   0.114   3.279
    1   AR   Ar   74   1.381   1.549   4.336
    1   AR   Ar   75   3.673   0.760   4.782
    1   AR   Ar   76   1.813   0.936   2.371
    1   AR   Ar   77   2.201   6.959   5.954
    1   AR   Ar   78   1.464   0.703   5.833
    1   AR   Ar   79   3.995   6.208   6.935
    1   AR   Ar   80   3.064   6.027   5.767
    1   AR   Ar   81   1.320   1.727   0.039
    1   AR   Ar   82   0.431   3.688  -0.579
    1   AR   Ar   83   2.669   2.410   0.748
    1   AR   Ar   84   1.640   3.989  -2.967
    1   AR   Ar   85   0.851   2.600  -0.407
    1   AR   Ar   86   1.648   3.135   2.063
    1   AR   Ar   87   2.438   2.225   1.784
    1   AR   Ar   88   3.461   4.699   1.095
    1   AR   Ar   89   1.278   2.206   2.432
    1   AR   Ar   90   2.796   1.866   4.382
    1   AR   Ar   91   1.911   2.333   4.101
    1   AR   Ar   92   2.058   2.256   3.077
    1   AR   Ar   93   2.134   2.170   5.267
    1   AR   Ar   94   2.684   0.749   7.483
    1   AR   Ar   95   3.325   7.038   5.869
    1   AR   Ar   96   2.944   0.960   5.380
    1   AR   Ar   97   3.875   2.913  -1.046
    1   AR   Ar   98   2.563   4.597   1.637
    1   AR   Ar   99   5.894   2.410  -1.337
    1   AR   Ar  100   1.521   4.294  -0.492
    1   AR   Ar  101   1.516   2.546   0.646
    1   AR   Ar  102   2.814   3.868   3.864
    1   AR   Ar  103   1.044   3.909   0.459
    1   AR   Ar  104   2.748   3.595  -1.024
    1   AR   Ar  105   1.462   3.180   3.480
    1   AR   Ar  106   2.359   3.131   4.747
    1   AR   Ar  107   1.977   4.135   5.168
    1   AR   Ar  108   3.471   3.130   4.323
    1   AR   Ar  109   1.624   4.161   3.976
    1   AR   Ar  110   1.466   4.895   5.799
    1   AR   Ar  111   4.372   5.315   7.308
    1   AR   Ar  112   1.167   4.845   6.755
    1   AR   Ar  113   2.517   4.726   0.507
    1   AR   Ar  114   2.382   6.524   0.530
    1   AR   Ar  115   3.164   4.828  -0.470
    1   AR   Ar  116   4.840   6.594   0.362
    1   AR   Ar  117   0.788   5.409   3.517
    1   AR   Ar  118   1.010   6.412   2.802
    1   AR   Ar  119   2.421   4.148   2.742
    1   AR   Ar  120   1.231   5.343   2.278
    1   AR   Ar  121   6.850   4.341   3.909
    1   AR   Ar  122   2.505   6.078   4.671
    1   AR   Ar  123   2.436   5.026   4.748
    1   AR   Ar  124   2.403   6.006   3.419
    1   AR   Ar  125   0.751   4.565   4.297
    1   AR   Ar  126   0.624   0.085   5.536
    1   AR   Ar  127   3.168   5.516   6.985
    1   AR   Ar  128   2.054   5.415   6.503
    1   AR   Ar  129   2.098   0.221   1.523
    1   AR   Ar  130   4.271   1.142  -1.818
    1   AR   Ar  131   4.823   6.812   1.349
    1   AR   Ar  132   7.004   2.272  -1.377
    1   AR   Ar  133   3.537   6.995   2.605
    1   AR   Ar  134   3.975   1.576   2.375
    1   AR   Ar  135   4.620   0.633   2.837
    1   AR   Ar  136   4.197   0.389   1.748
    1   AR   Ar  137   2.820   7.036   3.352
    1   AR   Ar  138   4.708   0.997   5.125
    1   AR   Ar  139   5.595   1.180   4.501
    1   AR   Ar  140   4.374   0.917   3.944
    1   AR   Ar  141   3.759   6.777   3.837
    1   AR   Ar  142   4.378   7.031   5.377
    1   AR   Ar  143   5.820   0.156   6.025
    1   AR   Ar  144   5.136   0.627   6.652
    1   AR   Ar  145   3.265   3.846   0.266
    1   AR   Ar  146   4.324   2.593   1.443
    1   AR   Ar  147   5.667   1.970  -0.168
    1   AR   Ar  148   5.675   3.642  -2.645
    1   AR   Ar  149   3.863   2.078   0.557
    1   AR   Ar  150   2.889   1.499   2.929
    1   AR   Ar  151   3.870   2.431   3.555
    1   AR   Ar  152   2.867   3.341   1.460
    1   AR   Ar  153   3.066   0.826   3.834
    1   AR   Ar  154   3.960   1.815   4.607
    1   AR   Ar  155   6.068   1.100   5.453
    1   AR   Ar  156   3.837   3.876   3.304
    1   AR   Ar  157   3.009   2.677   6.012
    1   AR   Ar  158   1.594   2.163   7.227
    1   AR   Ar  159   4.225   0.753   6.001
    1   AR   Ar  160   3.918   3.132   7.168
    1   AR   Ar  161   5.087   2.218   0.738
    1   AR   Ar  162   4.417   5.502  -0.388
    1   AR   Ar  163   5.269   3.533   0.115
    1   AR   Ar  164   4.038   5.157   1.944
    1   AR   Ar  165   3.227   3.606   2.503
    1   AR   Ar  166   2.757   4.967   3.347
    1   AR   Ar  167   4.677   2.324   2.908
    1   AR   Ar  168   3.969   3.905  -0.626
    1   AR   Ar  169   2.800   2.710   3.496
    1   AR   Ar  170   3.229   4.344   4.953
    1   AR   Ar  171   4.322   3.582   4.761
    1   AR   Ar  172   4.658   5.154   4.370
    1   AR   Ar  173   2.199   3.178   6.753
    1   AR   Ar  174   4.379   4.750   6.255
    1   AR   Ar  175   4.149   3.334   5.986
    1   AR   Ar  176   3.863   5.215   5.276
    1   AR   Ar  177   5.601   5.778  -0.549
    1   AR   Ar  178   3.388   6.359   1.577
    1   AR   Ar  179   3.830   5.596   0.920
    1   AR   Ar  180   3.656   3.748  -1.706
    1   AR   Ar  181   2.503   5.742   1.761
    1   AR   Ar  182   2.401   6.708   2.442
    1   AR   Ar  183   3.346   4.621   2.492
    1   AR   Ar  184   4.405   6.305   2.068
    1   AR   Ar  185   1.358   5.482   4.357
    1   AR   Ar  186   3.368   5.731   3.909
    1   AR   Ar  187   4.510   5.837   3.073
    1   AR   Ar  188   3.446   5.774   2.605
    1   AR   Ar  189   2.914   4.958   5.746
    1   AR   Ar  190   4.346   6.028   5.843
    1   AR   Ar  191   5.105   5.579   5.282
    1   AR   Ar  192   4.116   6.228   4.726
    1   AR   Ar  193   6.706   6.188  -0.317
    1   AR   Ar  194   5.984   5.877  -1.511
    1   AR   Ar  195   5.937   0.583  -0.218
    1   AR   Ar  196   5.680   0.939  -1.499
    1   AR   Ar  197   5.154   0.830   0.789
    1   AR   Ar  198   6.173   1.699   1.593
    1   AR   Ar  199   5.353   0.755   1.981
    1   AR   Ar  200   6.559   1.111   0.481
    1   AR   Ar  201   4.674   6.819   3.373
    1   AR   Ar  202   5.130   2.221   4.131
    1   AR   Ar  203   0.349   6.372   4.642
    1   AR   Ar  204   5.417   0.527   3.655
    1   AR   Ar  205   6.182   0.109   3.194
    1   AR   Ar  206   5.697   0.207   4.907
    1   AR   Ar  207   6.798   0.491   5.985
    1   AR   Ar  208   6.948   0.751   4.118
    1   AR   Ar  209   4.994   2.127  -2.328
    1   AR   Ar  210   4.248   1.325   1.236
    1   AR   Ar  211   6.113   2.764   0.366
    1   AR   Ar  212   6.002   4.098  -1.707
    1   AR   Ar  213   3.307   2.477   2.476
    1   AR   Ar  214   4.298   3.257   2.677
    1   AR   Ar  215   5.713   2.216   2.567
    1   AR   Ar  216   6.508   2.933   1.851
    1   AR   Ar  217   4.573   3.168   3.697
    1   AR   Ar  218   4.571   2.514   5.172
    1   AR   Ar  219   5.219   1.523   3.301
    1   AR   Ar  220   5.351   3.353   2.647
    1   AR   Ar  221   6.715   0.181   5.015
    1   AR   Ar  222   5.090   1.528   6.006
    1   AR   Ar  223   6.446   1.066   6.965
    1   AR   Ar  224   5.648   2.003   5.084
    1   AR   Ar  225   5.335   4.763  -0.020
    1   AR   Ar  226   4.853   4.472   2.486
    1   AR   Ar  227   6.891   4.755   0.031
    1   AR   Ar  228   5.867   5.578   0.664
    1   AR   Ar  229   5.959   4.340   1.072
    1   AR   Ar  230   4.371   4.820   3.359
    1   AR   Ar  231   6.555   2.733   3.149
    1   AR   Ar  232   4.515   3.336   0.825
    1   AR   Ar  233   6.225   2.533   4.281
    1   AR   Ar  234   6.380   3.545   4.524
    1   AR   Ar  235   0.036   3.032   4.213
    1   AR   Ar  236   5.434   4.443   4.050
    1   AR   Ar  237   5.366   3.281   4.370
    1   AR   Ar  238   4.859   4.287   5.399
    1   AR   Ar  239   6.206   4.310   8.920
    1   AR   Ar  240   0.211   4.565   5.106
    1   AR   Ar  241   0.156   0.214  -0.320
    1   AR   Ar  242   4.823   5.435   1.096
    1   AR   Ar  243   5.847   4.299   2.137
    1   AR   Ar  244   0.681   5.684  -0.632
    1   AR   Ar  245   5.286   6.258   2.494
    1   AR   Ar  246   6.169   6.452   1.648
    1   AR   Ar  247   5.588   2.957   1.318
    1   AR   Ar  248   6.052   6.610   0.619
    1   AR   Ar  249   5.527   5.206   2.585
    1   AR   Ar  250   4.942   6.240   4.254
    1   AR   Ar  251   5.911   5.088   4.731
    1   AR   Ar  252   5.668   6.278   3.529
    1   AR   Ar  253   5.754   4.876   5.768
    1   AR   Ar  254   5.130   5.595   6.510
    1   AR   Ar  255   5.219   4.204   6.852
    1   AR   Ar  256   6.090   6.173   4.759
    7.12000  7.12000 12.00000
Argon-slab step 1680
  256
    1   AR   Ar    1   6.704   1.085  -1.150
    1   AR   Ar    2   6.323   0.414   1.369
    1   AR   Ar    3   7.091   6.918   0.654
    1   AR   Ar    4   0.843   0.446   0.449
    1   AR   Ar    5   7.001   5.860   0.611
    1   AR   Ar    6   0.242   0.327   3.157
    1   AR   Ar    7   0.194   5.553   2.560
    1   AR   Ar    8   7.063   6.854   2.013
    1   AR   Ar    9   0.849   0.696   3.890
    1   AR   Ar   10   0.302   1.793   4.205
    1   AR   Ar   11   2.912   0.078   4.535
    1   AR   Ar   12   1.007   1.292   2.983
    1   AR   Ar   13   6.722   1.499   4.920
    1   AR   Ar   14   0.232   1.446   6.264
    1   AR   Ar   15   0.404   6.575   9.039
    1   AR   Ar   16   0.699   1.550   5.255
    1   AR   Ar   17   0.429   1.276  -0.178
    1   AR   Ar   18   6.120   3.536  -0.815
    1   AR   Ar   19   1.177   1.846   1.423
    1   AR   Ar   20   6.708   2.179  -2.615
    1   AR   Ar   21   6.300   1.301   2.604
    1   AR   Ar   22   7.071   2.006   2.068
    1   AR   Ar   23   0.286   0.881   1.300
    1   AR   Ar   24   0.115   2.134   0.951
    1   AR   Ar   25   7.096   1.377   3.211
    1   AR   Ar   26   6.316   1.496   3.872
    1   AR   Ar   27   2.046   1.141   3.473
    1   AR   Ar   28   1.073   2.447   5.028
    1   AR   Ar   29   6.049   2.058   6.262
    1   AR   Ar   30   0.489   2.806   6.138
    1   AR   Ar   31   0.276   0.255   6.795
    1   AR   Ar   32   1.536   2.740   5.986
    1   AR   Ar   33   1.206   4.345  -1.610
    1   AR   Ar   34   0.518   5.619   1.432
    1   AR   Ar   35   0.502   3.765   1.333
    1   AR   Ar   36   0.216   0.231  -1.534
    1   AR   Ar   37   0.417   3.101   2.506
    1   AR   Ar   38   7.051   4.356   2.410
    1   AR   Ar   39   1.153   4.160   2.135
    1   AR   Ar   40   1.898   3.878   1.085
    1   AR   Ar   41   0.628   2.389   3.418
    1   AR   Ar   42   6.816   5.334   5.262
    1   AR   Ar   43   6.657   2.536   5.267
    1   AR   Ar   44   0.509   3.848   3.451
    1   AR   Ar   45   0.995   3.634   5.476
    1   AR   Ar   46   0.197   5.593   6.341
    1   AR   Ar   47   5.911   3.796   5.479
    1   AR   Ar   48   6.423   6.643   6.861
    1   AR   Ar   49   6.834   5.312  -1.562
    1   AR   Ar   50   6.562   5.230   1.672
    1   AR   Ar   51   1.585   4.881   1.112
    1   AR   Ar   52   0.058   4.477  -1.079
    1   AR   Ar   53   6.509   5.991   2.760
    1   AR   Ar   54   0.106   6.468   3.465
    1   AR   Ar   55   6.389   4.980   3.016
    1   AR   Ar   56   1.161   6.445   1.130
    1   AR   Ar   57   6.352   3.746   2.773
    1   AR   Ar   58   6.975   5.342   4.157
    1   AR   Ar   59   1.838   5.920   5.444
    1   AR   Ar   60   1.239   6.490   4.026
    1   AR   Ar   61   5.956   5.921   5.984
    1   AR   Ar   62   0.805   5.820   5.351
    1   AR   Ar   63   1.300   6.109   6.283
    1   AR   Ar   64   1.406   0.097   4.857
    1   AR   Ar   65   2.922   0.166  -0.329
    1   AR   Ar   66   1.616   1.060   1.070
    1   AR   Ar   67   3.280   6.209  -0.742
    1   AR   Ar   68   3.229   0.761  -1.144
    1   AR   Ar   69   2.077   0.384   0.334
    1   AR   Ar   70   1.042   0.297   1.721
    1   AR   Ar   71   2.920   0.722   2.318
    1   AR   Ar   72   3.208   0.236   1.122
    1   AR   Ar   73   1.610   0.138   3.279
    1   AR   Ar   74   1.362   1.522   4.354
    1   AR   Ar   75   3.715   0.757   4.746
    1   AR   Ar   76   1.812   0.956   2.367
    1   AR   Ar   77   2.193   6.956   5.964
    1   AR   Ar   78   1.493   0.708   5.790
    1   AR   Ar   79   3.996   6.222   6.943
    1   AR   Ar   80   3.094   5.997   5.792
    1   AR   Ar   81   1.313   1.737   0.038
    1   AR   Ar   82   0.392   3.706  -0.598
    1   AR   Ar   83   2.674   2.434   0.709
    1   AR   Ar   84   1.625   3.990  -2.952
    1   AR   Ar   85   0.836   2.618  -0.428
    1   AR   Ar   86   1.652   3.176   2.092
    1   AR   Ar   87   2.403   2.243   1.811
    1   AR   Ar   88   3.463   4.702   1.064
    1   AR   Ar   89   1.266   2.223   2.413
    1   AR   Ar   90   2.771   1.833   4.371
    1   AR   Ar   91   1.921   2.332   4.116
    1   AR   Ar   92   2.052   2.230   3.073
    1   AR   Ar   93   2.159   2.162   5.287
    1   AR   Ar   94   2.661   0.761   7.503
    1   AR   Ar   95   3.305   7.029   5.859
    1   AR   Ar   96   2.927   0.949   5.389
    1   AR   Ar   97   3.876   2.903  -1.073
    1   AR   Ar   98   2.581   4.575   1.633
    1   AR   Ar   99   5.915   2.430  -1.338
    1   AR   Ar  100   1.534   4.279  -0.479
    1   AR   Ar  101   1.503   2.564   0.603
    1   AR   Ar  102   2.771   3.906   3.871
    1   AR   Ar  103   1.009   3.940   0.425
    1   AR   Ar  104   2.790   3.584  -0.982
    1   AR   Ar  105   1.468   3.182   3.437
    1   AR   Ar  106   2.377   3.123   4.770
    1   AR   Ar  107   1.957   4.122   5.148
    1   AR   Ar  108   3.471   3.161   4.278
    1   AR   Ar  109   1.627   4.156   3.969
    1   AR   Ar  110   1.471   4.882   5.778
    1   AR   Ar  111   4.367   5.318   7.333
    1   AR   Ar  112   1.163   4.837   6.752
    1   AR   Ar  113   2.503   4.704   0.489
    1   AR   Ar  114   2.392   6.479   0.522
    1   AR   Ar  115   3.181   4.812  -0.467
    1   AR   Ar  116   4.819   6.608   0.377
    1   AR   Ar  117   0.787   5.397   3.496
    1   AR   Ar  118   0.962   6.450   2.811
    1   AR   Ar  119   2.422   4.164   2.736
    1   AR   Ar  120   1.242   5.318   2.270
    1   AR   Ar  121   6.845   4.381   3.904
    1   AR   Ar  122   2.507   6.056   4.669
    1   AR   Ar  123   2.465   5.052   4.745
    1   AR   Ar  124   2.416   6.014   3.408
    1   AR   Ar  125   0.757   4.555   4.283
    1   AR   Ar  126   0.628   0.135   5.535
    1   AR   Ar  127   3.185   5.524   6.961
    1   AR   Ar  128   2.052   5.402   6.521
    1   AR   Ar  129   2.069   0.200   1.547
    1   AR   Ar  130   4.272   1.158  -1.825
    1   AR   Ar  131   4.803   6.824   1.358
    1   AR   Ar  132   7.064   2.289  -1.390
    1   AR   Ar  133   3.541   6.990   2.586
    1   AR   Ar  134   3.969   1.554   2.378
    1   AR   Ar  135   4.582   0.615   2.837
    1   AR   Ar  136   4.180   0.380   1.752
    1   AR   Ar  137   2.824   7.022   3.368
    1   AR   Ar  138   4.706   0.983   5.086
    1   AR   Ar  139   5.570   1.183   4.474
    1   AR   Ar  140   4.342   0.916   3.937
    1   AR   Ar  141   3.740   6.770   3.811
    1   AR   Ar  142   4.370   7.047   5.387
    1   AR   Ar  143   5.802   0.132   6.029
    1   AR   Ar  144   5.122   0.634   6.668
    1   AR   Ar  145   3.266   3.878   0.279
    1   AR   Ar  146   4.318   2.589   1.451
    1   AR   Ar  147   5.681   1.944  -0.179
    1   AR   Ar  148   5.660   3.658  -2.660
    1   AR   Ar  149   3.881   2.092   0.583
    1   AR   Ar  150   2.869   1.498   2.917
    1   AR   Ar  151   3.898   2.439   3.538
    1   AR   Ar  152   2.851   3.381   1.460
    1   AR   Ar  153   3.055   0.805   3.784
    1   AR   Ar  154   3.980   1.857   4.618
    1   AR   Ar  155   6.062   1.053   5.465
    1   AR   Ar  156   3.817   3.901   3.284
    1   AR   Ar  157   2.984   2.711   6.026
    1   AR   Ar  158   1.585   2.209   7.245
    1   AR   Ar  159   4.190   0.770   6.008
    1   AR   Ar  160   3.918   3.100   7.207
    1   AR   Ar  161   5.086   2.215   0.746
    1   AR   Ar  162   4.401   5.513  -0.402
    1   AR   Ar  163   5.281   3.530   0.095
    1   AR   Ar  164   4.019   5.138   1.935
    1   AR   Ar  165   3.210   3.603   2.499
    1   AR   Ar  166   2.737   4.934   3.371
    1   AR   Ar  167   4.657   2.325   2.900
    1   AR   Ar  168   3.990   3.873  -0.664
    1   AR   Ar  169   2.824   2.750   3.474
    1   AR   Ar  170   3.207   4.338   4.946
    1   AR   Ar  171   4.301   3.604   4.722
    1   AR   Ar  172   4.665   5.145   4.354
    1   AR   Ar  173   2.184   3.186   6.768
    1   AR   Ar  174   4.387   4.771   6.255
    1   AR   Ar  175   4.106   3.325   5.999
    1   AR   Ar  176   3.860   5.187   5.311
    1   AR   Ar  177   5.612   5.772  -0.544
    1   AR   Ar  178   3.399   6.344   1.563
    1   AR   Ar  179   3.819   5.604   0.900
    1   AR   Ar  180   3.636   3.746  -1.740
    1   AR   Ar  181   2.505   5.728   1.741
    1   AR   Ar  182   2.467   6.722   2.453
    1   AR   Ar  183   3.381   4.610   2.498
    1   AR   Ar  184   4.404   6.311   2.081
    1   AR   Ar  185   1.390   5.485   4.394
    1   AR   Ar  186   3.362   5.743   3.905
    1   AR   Ar  187   4.483   5.822   3.053
    1   AR   Ar  188   3.418   5.764   2.583
    1   AR   Ar  189   2.915   4.940   5.757
    1   AR   Ar  190   4.346   6.044   5.831
    1   AR   Ar  191   5.073   5.566   5.277
    1   AR   Ar  192   4.083   6.238   4.688
    1   AR   Ar  193   6.705   6.205  -0.309
    1   AR   Ar  194   5.973   5.875  -1.543
    1   AR   Ar  195   5.953   0.567  -0.240
    1   AR   Ar  196   5.709   0.941  -1.451
    1   AR   Ar  197   5.159   0.820   0.821
    1   AR   Ar  198   6.190   1.713   1.591
    1   AR   Ar  199   5.377   0.770   1.984
    1   AR   Ar  200   6.537   1.123   0.456
    1   AR   Ar  201   4.673   6.826   3.371
    1   AR   Ar  202   5.150   2.228   4.130
    1   AR   Ar  203   0.352   6.398   4.633
    1   AR   Ar  204   5.371   0.513   3.679
    1   AR   Ar  205   6.191   0.109   3.178
    1   AR   Ar  206   5.664   0.222   4.918
    1   AR   Ar  207   6.796   0.490   5.976
    1   AR   Ar  208   6.982   0.760   4.114
    1   AR   Ar  209   4.993   2.137  -2.342
    1   AR   Ar  210   4.239   1.299   1.194
    1   AR   Ar  211   6.103   2.786   0.370
    1   AR   Ar  212   6.010   4.082  -1.727
    1   AR   Ar  213   3.317   2.449   2.472
    1   AR   Ar  214   4.289   3.247   2.633
    1   AR   Ar  215   5.730   2.193   2.572
    1   AR   Ar  216   6.528   2.912   1.849
    1   AR   Ar  217   4.572   3.178   3.680
    1   AR   Ar  218   4.556   2.505   5.178
    1   AR   Ar  219   5.184   1.528   3.301
    1   AR   Ar  220   5.323   3.368   2.644
    1   AR   Ar  221   6.685   0.221   4.991
    1   AR   Ar  222   5.098   1.515   5.978
    1   AR   Ar  223   6.443   1.059   6.951
    1   AR   Ar  224   5.652   2.025   5.085
    1   AR   Ar  225   5.347   4.783  -0.004
    1   AR   Ar  226   4.865   4.475   2.477
    1   AR   Ar  227   6.844   4.767   0.032
    1   AR   Ar  228   5.873   5.569   0.652
    1   AR   Ar  229   5.935   4.368   1.091
    1   AR   Ar  230   4.380   4.837   3.375
    1   AR   Ar  231   6.556   2.743   3.151
    1   AR   Ar  232   4.505   3.334   0.799
    1   AR   Ar  233   6.180   2.537   4.286
    1   AR   Ar  234   6.383   3.554   4.466
    1   AR   Ar  235   0.056   3.015   4.208
    1   AR   Ar  236   5.433   4.427   4.057
    1   AR   Ar  237   5.357   3.279   4.344
    1   AR   Ar  238   4.854   4.311   5.424
    1   AR   Ar  239   6.186   4.292   8.946
    1   AR   Ar  240   0.200   4.551   5.133
    1   AR   Ar  241   0.176   0.217  -0.288
    1   AR   Ar  242   4.815   5.409   1.111
    1   AR   Ar  243   5.855   4.313   2.114
    1   AR   Ar  244   0.707   5.671  -0.649
    1   AR   Ar  245   5.265   6.247   2.493
    1   AR   Ar  246   6.159   6.444   1.637
    1   AR   Ar  247   5.596   2.956   1.326
    1   AR   Ar  248   6.052   6.580   0.628
    1   AR   Ar  249   5.503   5.227   2.597
    1   AR   Ar  250   4.924   6.246   4.252
    1   AR   Ar  251   5.909   5.110   4.731
    1   AR   Ar  252   5.638   6.283   3.521
    1   AR   Ar  253   5.733   4.887   5.758
    1   AR   Ar  254   5.095   5.631   6.533
    1   AR   Ar  255   5.240   4.221   6.880
    1   AR   Ar  256   6.102   6.162   4.755
    7.12000  7.12000 12.00000
Argon-slab step 1685
  256
    1   AR   Ar    1   6.664   1.091  -1.130
    1   AR   Ar    2   6.334   0.379   1.387
    1   AR   Ar    3   7.078   6.939   0.648
    1   AR   Ar    4   0.902   0.432   0.444
    1   AR   Ar    5   6.988   5.840   0.642
    1   AR   Ar    6   0.229   0.340   3.134
    1   AR   Ar    7   0.203   5.516   2.570
    1   AR   Ar    8   7.012   6.844   1.998
    1   AR   Ar    9   0.866   0.698   3.899
    1   AR   Ar   10   0.325   1.838   4.211
    1   AR   Ar   11   2.928   0.035   4.543
    1   AR   Ar   12   0.991   1.327   2.965
    1   AR   Ar   13   6.721   1.474   4.907
    1   AR   Ar   14   0.236   1.468   6.252
    1   AR   Ar   15   0.397   6.611   9.079
    1   AR   Ar   16   0.669   1.538   5.254
    1   AR   Ar   17   0.465   1.300  -0.166
    1   AR   Ar   18   6.102   3.547  -0.802
    1   AR   Ar   19   1.192   1.836   1.401
    1   AR   Ar   20   6.696   2.168  -2.634
    1   AR   Ar   21   6.300   1.307   2.606
    1   AR   Ar   22   7.073   1.977   2.067
    1   AR   Ar   23   0.253   0.909   1.330
    1   AR   Ar   24   0.122   2.155   0.953
    1   AR   Ar   25   7.084   1.337   3.172
    1   AR   Ar   26   6.311   1.484   3.860
    1   AR   Ar   27   2.063   1.170   3.456
    1   AR   Ar   28   1.076   2.460   5.040
    1   AR   Ar   29   6.011   2.101   6.266
    1   AR   Ar   30   0.506   2.815   6.135
    1   AR   Ar   31   0.265   0.271   6.779
    1   AR   Ar   32   1.548   2.740   5.967
    1   AR   Ar   33   1.192   4.352  -1.596
    1   AR   Ar   34   0.517   5.614   1.418
    1   AR   Ar   35   0.487   3.758   1.348
    1   AR   Ar   36   0.211   0.207  -1.561
    1   AR   Ar   37   0.398   3.121   2.503
    1   AR   Ar   38   7.030   4.367   2.402
    1   AR   Ar   39   1.193   4.151   2.144
    1   AR   Ar   40   1.874   3.876   1.074
    1   AR   Ar   41   0.665   2.413   3.416
    1   AR   Ar   42   6.801   5.373   5.253
    1   AR   Ar   43   6.658   2.524   5.285
    1   AR   Ar   44   0.505   3.874   3.464
    1   AR   Ar   45   0.973   3.636   5.483
    1   AR   Ar   46   0.213   5.632   6.381
    1   AR   Ar   47   5.909   3.809   5.510
    1   AR   Ar   48   6.418   6.654   6.867
    1   AR   Ar   49   6.830   5.323  -1.581
    1   AR   Ar   50   6.567   5.211   1.691
    1   AR   Ar   51   1.591   4.874   1.151
    1   AR   Ar   52   0.049   4.497  -1.068
    1   AR   Ar   53   6.498   5.986   2.771
    1   AR   Ar   54   0.098   6.484   3.483
    1   AR   Ar   55   6.372   4.988   2.994
    1   AR   Ar   56   1.149   6.459   1.122
    1   AR   Ar   57   6.356   3.722   2.769
    1   AR   Ar   58   6.969   5.344   4.155
    1   AR   Ar   59   1.833   5.947   5.476
    1   AR   Ar   60   1.226   6.480   4.044
    1   AR   Ar   61   5.962   5.935   5.949
    1   AR   Ar   62   0.791   5.804   5.329
    1   AR   Ar   63   1.349   6.152   6.307
    1   AR   Ar   64   1.436   0.087   4.872
    1   AR   Ar   65   2.938   0.151  -0.303
    1   AR   Ar   66   1.590   1.054   1.064
    1   AR   Ar   67   3.288   6.191  -0.777
    1   AR   Ar   68   3.230   0.792  -1.159
    1   AR   Ar   69   2.072   0.362   0.339
    1   AR   Ar   70   1.058   0.304   1.682
    1   AR   Ar   71   2.924   0.706   2.321
    1   AR   Ar   72   3.207   0.225   1.158
    1   AR   Ar   73   1.594   0.162   3.277
    1   AR   Ar   74   1.346   1.502   4.384
    1   AR   Ar   75   3.758   0.753   4.711
    1   AR   Ar   76   1.813   0.976   2.361
    1   AR   Ar   77   2.185   6.952   5.972
    1   AR   Ar   78   1.523   0.715   5.746
    1   AR   Ar   79   3.998   6.239   6.948
    1   AR   Ar   80   3.124   5.966   5.816
    1   AR   Ar   81   1.314   1.735   0.041
    1   AR   Ar   82   0.360   3.710  -0.609
    1   AR   Ar   83   2.679   2.459   0.671
    1   AR   Ar   84   1.605   3.996  -2.946
    1   AR   Ar   85   0.820   2.637  -0.448
    1   AR   Ar   86   1.658   3.218   2.121
    1   AR   Ar   87   2.366   2.261   1.838
    1   AR   Ar   88   3.485   4.661   1.057
    1   AR   Ar   89   1.249   2.240   2.393
    1   AR   Ar   90   2.753   1.797   4.361
    1   AR   Ar   91   1.916   2.292   4.144
    1   AR   Ar   92   2.043   2.200   3.065
    1   AR   Ar   93   2.184   2.154   5.306
    1   AR   Ar   94   2.639   0.772   7.523
    1   AR   Ar   95   3.288   7.023   5.847
    1   AR   Ar   96   2.905   0.933   5.411
    1   AR   Ar   97   3.876   2.891  -1.100
    1   AR   Ar   98   2.597   4.552   1.632
    1   AR   Ar   99   5.936   2.451  -1.339
    1   AR   Ar  100   1.546   4.263  -0.467
    1   AR   Ar  101   1.492   2.587   0.565
    1   AR   Ar  102   2.726   3.945   3.878
    1   AR   Ar  103   0.974   3.971   0.390
    1   AR   Ar  104   2.834   3.574  -0.939
    1   AR   Ar  105   1.473   3.183   3.393
    1   AR   Ar  106   2.395   3.116   4.792
    1   AR   Ar  107   1.939   4.108   5.127
    1   AR   Ar  108   3.469   3.191   4.232
    1   AR   Ar  109   1.637   4.149   3.960
    1   AR   Ar  110   1.478   4.864   5.737
    1   AR   Ar  111   4.363   5.318   7.357
    1   AR   Ar  112   1.155   4.829   6.755
    1   AR   Ar  113   2.489   4.682   0.472
    1   AR   Ar  114   2.403   6.435   0.516
    1   AR   Ar  115   3.182   4.761  -0.478
    1   AR   Ar  116   4.799   6.619   0.384
    1   AR   Ar  117   0.750   5.410   3.505
    1   AR   Ar  118   0.915   6.486   2.819
    1   AR   Ar  119   2.413   4.182   2.731
    1   AR   Ar  120   1.252   5.293   2.262
    1   AR   Ar  121   6.836   4.414   3.898
    1   AR   Ar  122   2.514   6.043   4.662
    1   AR   Ar  123   2.489   5.073   4.741
    1   AR   Ar  124   2.428   6.023   3.397
    1   AR   Ar  125   0.759   4.549   4.266
    1   AR   Ar  126   0.626   0.183   5.536
    1   AR   Ar  127   3.201   5.531   6.936
    1   AR   Ar  128   2.056   5.389   6.538
    1   AR   Ar  129   2.046   0.176   1.570
    1   AR   Ar  130   4.273   1.175  -1.833
    1   AR   Ar  131   4.795   6.839   1.361
    1   AR   Ar  132   0.003   2.305  -1.402
    1   AR   Ar  133   3.551   6.983   2.566
    1   AR   Ar  134   3.963   1.530   2.381
    1   AR   Ar  135   4.542   0.600   2.834
    1   AR   Ar  136   4.157   0.375   1.763
    1   AR   Ar  137   2.823   7.008   3.388
    1   AR   Ar  138   4.707   0.969   5.046
    1   AR   Ar  139   5.541   1.185   4.449
    1   AR   Ar  140   4.314   0.916   3.927
    1   AR   Ar  141   3.720   6.764   3.787
    1   AR   Ar  142   4.362   7.063   5.394
    1   AR   Ar  143   5.783   0.104   6.032
    1   AR   Ar  144   5.110   0.641   6.679
    1   AR   Ar  145   3.266   3.910   0.291
    1   AR   Ar  146   4.311   2.579   1.468
    1   AR   Ar  147   5.696   1.917  -0.191
    1   AR   Ar  148   5.644   3.674  -2.676
    1   AR   Ar  149   3.898   2.108   0.607
    1   AR   Ar  150   2.858   1.504   2.916
    1   AR   Ar  151   3.914   2.441   3.526
    1   AR   Ar  152   2.834   3.422   1.459
    1   AR   Ar  153   3.048   0.828   3.799
    1   AR   Ar  154   3.997   1.895   4.624
    1   AR   Ar  155   6.042   1.003   5.487
    1   AR   Ar  156   3.795   3.930   3.271
    1   AR   Ar  157   2.958   2.745   6.040
    1   AR   Ar  158   1.576   2.256   7.262
    1   AR   Ar  159   4.153   0.788   6.017
    1   AR   Ar  160   3.917   3.069   7.246
    1   AR   Ar  161   5.085   2.211   0.754
    1   AR   Ar  162   4.385   5.523  -0.414
    1   AR   Ar  163   5.296   3.527   0.074
    1   AR   Ar  164   4.007   5.123   1.921
    1   AR   Ar  165   3.197   3.587   2.491
    1   AR   Ar  166   2.718   4.905   3.398
    1   AR   Ar  167   4.641   2.347   2.872
    1   AR   Ar  168   4.011   3.845  -0.700
    1   AR   Ar  169   2.853   2.793   3.456
    1   AR   Ar  170   3.188   4.326   4.937
    1   AR   Ar  171   4.284   3.628   4.685
    1   AR   Ar  172   4.671   5.138   4.342
    1   AR   Ar  173   2.170   3.192   6.782
    1   AR   Ar  174   4.395   4.795   6.257
    1   AR   Ar  175   4.064   3.316   6.012
    1   AR   Ar  176   3.859   5.160   5.344
    1   AR   Ar  177   5.620   5.772  -0.530
    1   AR   Ar  178   3.409   6.331   1.551
    1   AR   Ar  179   3.809   5.622   0.877
    1   AR   Ar  180   3.616   3.745  -1.773
    1   AR   Ar  181   2.506   5.713   1.721
    1   AR   Ar  182   2.531   6.734   2.458
    1   AR   Ar  183   3.412   4.601   2.509
    1   AR   Ar  184   4.377   6.310   2.096
    1   AR   Ar  185   1.425   5.486   4.436
    1   AR   Ar  186   3.356   5.754   3.901
    1   AR   Ar  187   4.453   5.806   3.035
    1   AR   Ar  188   3.388   5.757   2.561
    1   AR   Ar  189   2.912   4.922   5.771
    1   AR   Ar  190   4.340   6.060   5.821
    1   AR   Ar  191   5.048   5.554   5.274
    1   AR   Ar  192   4.029   6.246   4.663
    1   AR   Ar  193   6.702   6.224  -0.305
    1   AR   Ar  194   5.958   5.876  -1.575
    1   AR   Ar  195   5.968   0.551  -0.264
    1   AR   Ar  196   5.733   0.943  -1.402
    1   AR   Ar  197   5.165   0.810   0.853
    1   AR   Ar  198   6.169   1.720   1.578
    1   AR   Ar  199   5.401   0.785   1.988
    1   AR   Ar  200   6.518   1.135   0.433
    1   AR   Ar  201   4.675   6.834   3.367
    1   AR   Ar  202   5.176   2.231   4.145
    1   AR   Ar  203   0.349   6.428   4.621
    1   AR   Ar  204   5.321   0.498   3.705
    1   AR   Ar  205   6.205   0.108   3.159
    1   AR   Ar  206   5.623   0.232   4.928
    1   AR   Ar  207   6.805   0.509   5.979
    1   AR   Ar  208   7.012   0.764   4.113
    1   AR   Ar  209   4.992   2.147  -2.356
    1   AR   Ar  210   4.232   1.274   1.154
    1   AR   Ar  211   6.087   2.782   0.396
    1   AR   Ar  212   6.021   4.068  -1.748
    1   AR   Ar  213   3.328   2.422   2.469
    1   AR   Ar  214   4.274   3.239   2.584
    1   AR   Ar  215   5.747   2.173   2.576
    1   AR   Ar  216   6.549   2.891   1.848
    1   AR   Ar  217   4.572   3.191   3.661
    1   AR   Ar  218   4.546   2.499   5.185
    1   AR   Ar  219   5.146   1.538   3.302
    1   AR   Ar  220   5.298   3.383   2.640
    1   AR   Ar  221   6.660   0.258   4.964
    1   AR   Ar  222   5.106   1.501   5.947
    1   AR   Ar  223   6.441   1.052   6.933
    1   AR   Ar  224   5.655   2.048   5.091
    1   AR   Ar  225   5.359   4.802   0.013
    1   AR   Ar  226   4.868   4.470   2.467
    1   AR   Ar  227   6.796   4.780   0.034
    1   AR   Ar  228   5.880   5.554   0.639
    1   AR   Ar  229   5.933   4.372   1.081
    1   AR   Ar  230   4.387   4.852   3.390
    1   AR   Ar  231   6.558   2.751   3.154
    1   AR   Ar  232   4.495   3.337   0.769
    1   AR   Ar  233   6.147   2.533   4.288
    1   AR   Ar  234   6.382   3.573   4.416
    1   AR   Ar  235   0.086   2.991   4.199
    1   AR   Ar  236   5.432   4.408   4.063
    1   AR   Ar  237   5.374   3.270   4.323
    1   AR   Ar  238   4.849   4.335   5.446
    1   AR   Ar  239   6.166   4.275   8.973
    1   AR   Ar  240   0.200   4.515   5.161
    1   AR   Ar  241   0.190   0.219  -0.264
    1   AR   Ar  242   4.812   5.383   1.128
    1   AR   Ar  243   5.863   4.332   2.090
    1   AR   Ar  244   0.704   5.664  -0.649
    1   AR   Ar  245   5.264   6.241   2.497
    1   AR   Ar  246   6.149   6.433   1.631
    1   AR   Ar  247   5.619   2.965   1.354
    1   AR   Ar  248   6.051   6.556   0.631
    1   AR   Ar  249   5.479   5.256   2.609
    1   AR   Ar  250   4.922   6.251   4.246
    1   AR   Ar  251   5.907   5.131   4.729
    1   AR   Ar  252   5.614   6.288   3.510
    1   AR   Ar  253   5.713   4.869   5.756
    1   AR   Ar  254   5.058   5.665   6.555
    1   AR   Ar  255   5.241   4.237   6.889
    1   AR   Ar  256   6.114   6.153   4.752
    7.12000  7.12000 12.00000
Argon-slab step 1690
  256
    1   AR   Ar    1   6.638   1.100  -1.105
    1   AR   Ar    2   6.345   0.346   1.404
    1   AR   Ar    3   7.064   6.958   0.650
    1   AR   Ar    4   0.964   0.419   0.443
    1   AR   Ar    5   6.971   5.818   0.673
    1   AR   Ar    6   0.211   0.325   3.107
    1   AR   Ar    7   0.225   5.471   2.576
    1   AR   Ar    8   6.967   6.835   1.986
    1   AR   Ar    9   0.893   0.698   3.909
    1   AR   Ar   10   0.346   1.881   4.217
    1   AR   Ar   11   2.943   7.110   4.553
    1   AR   Ar   12   0.979   1.363   2.949
    1   AR   Ar   13   6.721   1.453   4.891
    1   AR   Ar   14   0.237   1.498   6.254
    1   AR   Ar   15   0.389   6.647   9.120
    1   AR   Ar   16   0.638   1.521   5.254
    1   AR   Ar   17   0.487   1.319  -0.155
    1   AR   Ar   18   6.085   3.558  -0.787
    1   AR   Ar   19   1.195   1.847   1.387
    1   AR   Ar   20   6.686   2.162  -2.627
    1   AR   Ar   21   6.289   1.307   2.601
    1   AR   Ar   22   7.080   1.946   2.070
    1   AR   Ar   23   0.217   0.940   1.357
    1   AR   Ar   24   0.130   2.176   0.956
    1   AR   Ar   25   7.084   1.304   3.141
    1   AR   Ar   26   6.304   1.479   3.845
    1   AR   Ar   27   2.073   1.196   3.443
    1   AR   Ar   28   1.087   2.479   5.044
    1   AR   Ar   29   5.975   2.142   6.268
    1   AR   Ar   30   0.521   2.823   6.129
    1   AR   Ar   31   0.257   0.286   6.766
    1   AR   Ar   32   1.564   2.740   5.950
    1   AR   Ar   33   1.178   4.359  -1.580
    1   AR   Ar   34   0.518   5.607   1.410
    1   AR   Ar   35   0.473   3.750   1.364
    1   AR   Ar   36   0.206   0.184  -1.586
    1   AR   Ar   37   0.379   3.141   2.500
    1   AR   Ar   38   7.017   4.384   2.390
    1   AR   Ar   39   1.231   4.145   2.153
    1   AR   Ar   40   1.852   3.870   1.064
    1   AR   Ar   41   0.704   2.438   3.409
    1   AR   Ar   42   6.783   5.422   5.247
    1   AR   Ar   43   6.659   2.512   5.303
    1   AR   Ar   44   0.502   3.897   3.473
    1   AR   Ar   45   0.952   3.639   5.489
    1   AR   Ar   46   0.231   5.672   6.419
    1   AR   Ar   47   5.907   3.822   5.539
    1   AR   Ar   48   6.414   6.665   6.870
    1   AR   Ar   49   6.829   5.336  -1.600
    1   AR   Ar   50   6.573   5.193   1.712
    1   AR   Ar   51   1.623   4.892   1.191
    1   AR   Ar   52   0.037   4.528  -1.063
    1   AR   Ar   53   6.473   5.995   2.782
    1   AR   Ar   54   0.087   6.496   3.505
    1   AR   Ar   55   6.360   4.989   2.978
    1   AR   Ar   56   1.137   6.475   1.113
    1   AR   Ar   57   6.358   3.692   2.770
    1   AR   Ar   58   6.964   5.361   4.156
    1   AR   Ar   59   1.837   5.939   5.468
    1   AR   Ar   60   1.214   6.471   4.057
    1   AR   Ar   61   5.968   5.950   5.912
    1   AR   Ar   62   0.777   5.784   5.310
    1   AR   Ar   63   1.390   6.198   6.338
    1   AR   Ar   64   1.469   0.075   4.883
    1   AR   Ar   65   2.953   0.135  -0.277
    1   AR   Ar   66   1.574   1.028   1.049
    1   AR   Ar   67   3.296   6.174  -0.811
    1   AR   Ar   68   3.233   0.823  -1.175
    1   AR   Ar   69   2.066   0.341   0.346
    1   AR   Ar   70   1.066   0.310   1.646
    1   AR   Ar   71   2.927   0.682   2.318
    1   AR   Ar   72   3.205   0.215   1.196
    1   AR   Ar   73   1.579   0.186   3.275
    1   AR   Ar   74   1.336   1.495   4.433
    1   AR   Ar   75   3.789   0.744   4.687
    1   AR   Ar   76   1.816   0.996   2.354
    1   AR   Ar   77   2.176   6.945   5.978
    1   AR   Ar   78   1.554   0.725   5.704
    1   AR   Ar   79   4.002   6.259   6.949
    1   AR   Ar   80   3.154   5.934   5.840
    1   AR   Ar   81   1.327   1.733   0.046
    1   AR   Ar   82   0.334   3.700  -0.610
    1   AR   Ar   83   2.683   2.486   0.635
    1   AR   Ar   84   1.584   4.002  -2.939
    1   AR   Ar   85   0.803   2.657  -0.468
    1   AR   Ar   86   1.666   3.256   2.149
    1   AR   Ar   87   2.328   2.280   1.867
    1   AR   Ar   88   3.514   4.625   1.072
    1   AR   Ar   89   1.228   2.257   2.374
    1   AR   Ar   90   2.743   1.756   4.352
    1   AR   Ar   91   1.907   2.265   4.169
    1   AR   Ar   92   2.035   2.171   3.057
    1   AR   Ar   93   2.209   2.145   5.323
    1   AR   Ar   94   2.617   0.784   7.543
    1   AR   Ar   95   3.273   7.020   5.833
    1   AR   Ar   96   2.883   0.916   5.432
    1   AR   Ar   97   3.874   2.875  -1.128
    1   AR   Ar   98   2.611   4.529   1.633
    1   AR   Ar   99   5.958   2.470  -1.339
    1   AR   Ar  100   1.558   4.248  -0.456
    1   AR   Ar  101   1.481   2.616   0.531
    1   AR   Ar  102   2.683   3.980   3.885
    1   AR   Ar  103   0.939   4.002   0.355
    1   AR   Ar  104   2.880   3.565  -0.894
    1   AR   Ar  105   1.469   3.196   3.392
    1   AR   Ar  106   2.414   3.109   4.812
    1   AR   Ar  107   1.923   4.095   5.103
    1   AR   Ar  108   3.464   3.219   4.185
    1   AR   Ar  109   1.654   4.139   3.950
    1   AR   Ar  110   1.483   4.848   5.693
    1   AR   Ar  111   4.359   5.315   7.380
    1   AR   Ar  112   1.145   4.821   6.758
    1   AR   Ar  113   2.475   4.659   0.456
    1   AR   Ar  114   2.415   6.391   0.512
    1   AR   Ar  115   3.180   4.700  -0.492
    1   AR   Ar  116   4.780   6.626   0.382
    1   AR   Ar  117   0.705   5.430   3.523
    1   AR   Ar  118   0.869   6.523   2.826
    1   AR   Ar  119   2.395   4.199   2.724
    1   AR   Ar  120   1.263   5.268   2.253
    1   AR   Ar  121   6.822   4.435   3.888
    1   AR   Ar  122   2.523   6.047   4.650
    1   AR   Ar  123   2.506   5.082   4.738
    1   AR   Ar  124   2.438   6.029   3.386
    1   AR   Ar  125   0.758   4.548   4.251
    1   AR   Ar  126   0.620   0.230   5.538
    1   AR   Ar  127   3.215   5.537   6.908
    1   AR   Ar  128   2.064   5.377   6.553
    1   AR   Ar  129   2.034   0.151   1.592
    1   AR   Ar  130   4.274   1.192  -1.840
    1   AR   Ar  131   4.799   6.856   1.363
    1   AR   Ar  132   0.062   2.320  -1.414
    1   AR   Ar  133   3.566   6.974   2.546
    1   AR   Ar  134   3.957   1.504   2.385
    1   AR   Ar  135   4.546   0.597   2.831
    1   AR   Ar  136   4.128   0.376   1.779
    1   AR   Ar  137   2.817   6.998   3.411
    1   AR   Ar  138   4.711   0.957   5.008
    1   AR   Ar  139   5.510   1.191   4.427
    1   AR   Ar  140   4.294   0.920   3.905
    1   AR   Ar  141   3.703   6.761   3.765
    1   AR   Ar  142   4.345   7.056   5.382
    1   AR   Ar  143   5.766   0.074   6.034
    1   AR   Ar  144   5.114   0.647   6.663
    1   AR   Ar  145   3.267   3.941   0.303
    1   AR   Ar  146   4.305   2.567   1.491
    1   AR   Ar  147   5.711   1.888  -0.203
    1   AR   Ar  148   5.628   3.688  -2.692
    1   AR   Ar  149   3.913   2.127   0.628
    1   AR   Ar  150   2.877   1.499   2.935
    1   AR   Ar  151   3.914   2.436   3.521
    1   AR   Ar  152   2.816   3.463   1.459
    1   AR   Ar  153   3.045   0.854   3.815
    1   AR   Ar  154   4.008   1.924   4.622
    1   AR   Ar  155   6.014   0.957   5.513
    1   AR   Ar  156   3.774   3.958   3.264
    1   AR   Ar  157   2.932   2.779   6.052
    1   AR   Ar  158   1.567   2.304   7.278
    1   AR   Ar  159   4.116   0.807   6.026
    1   AR   Ar  160   3.917   3.037   7.283
    1   AR   Ar  161   5.081   2.205   0.756
    1   AR   Ar  162   4.370   5.534  -0.425
    1   AR   Ar  163   5.313   3.525   0.052
    1   AR   Ar  164   4.004   5.117   1.900
    1   AR   Ar  165   3.186   3.559   2.479
    1   AR   Ar  166   2.701   4.881   3.427
    1   AR   Ar  167   4.635   2.363   2.836
    1   AR   Ar  168   4.030   3.821  -0.733
    1   AR   Ar  169   2.881   2.838   3.436
    1   AR   Ar  170   3.173   4.309   4.924
    1   AR   Ar  171   4.272   3.654   4.650
    1   AR   Ar  172   4.661   5.144   4.320
    1   AR   Ar  173   2.156   3.198   6.796
    1   AR   Ar  174   4.401   4.823   6.263
    1   AR   Ar  175   4.022   3.307   6.024
    1   AR   Ar  176   3.862   5.135   5.375
    1   AR   Ar  177   5.628   5.772  -0.514
    1   AR   Ar  178   3.392   6.333   1.538
    1   AR   Ar  179   3.799   5.645   0.852
    1   AR   Ar  180   3.596   3.744  -1.806
    1   AR   Ar  181   2.507   5.697   1.701
    1   AR   Ar  182   2.591   6.743   2.456
    1   AR   Ar  183   3.437   4.592   2.526
    1   AR   Ar  184   4.331   6.306   2.111
    1   AR   Ar  185   1.460   5.486   4.478
    1   AR   Ar  186   3.351   5.763   3.897
    1   AR   Ar  187   4.421   5.794   3.017
    1   AR   Ar  188   3.358   5.752   2.541
    1   AR   Ar  189   2.904   4.904   5.789
    1   AR   Ar  190   4.328   6.079   5.815
    1   AR   Ar  191   5.052   5.546   5.285
    1   AR   Ar  192   3.964   6.251   4.647
    1   AR   Ar  193   6.698   6.245  -0.302
    1   AR   Ar  194   5.947   5.859  -1.567
    1   AR   Ar  195   5.983   0.533  -0.289
    1   AR   Ar  196   5.745   0.944  -1.357
    1   AR   Ar  197   5.163   0.813   0.872
    1   AR   Ar  198   6.138   1.724   1.561
    1   AR   Ar  199   5.424   0.799   1.992
    1   AR   Ar  200   6.501   1.148   0.413
    1   AR   Ar  201   4.679   6.839   3.361
    1   AR   Ar  202   5.193   2.231   4.158
    1   AR   Ar  203   0.331   6.450   4.622
    1   AR   Ar  204   5.272   0.482   3.729
    1   AR   Ar  205   6.221   0.107   3.139
    1   AR   Ar  206   5.575   0.237   4.935
    1   AR   Ar  207   6.814   0.530   5.981
    1   AR   Ar  208   7.038   0.768   4.112
    1   AR   Ar  209   4.991   2.156  -2.369
    1   AR   Ar  210   4.225   1.249   1.117
    1   AR   Ar  211   6.071   2.787   0.383
    1   AR   Ar  212   6.034   4.055  -1.768
    1   AR   Ar  213   3.339   2.398   2.467
    1   AR   Ar  214   4.259   3.233   2.561
    1   AR   Ar  215   5.762   2.159   2.579
    1   AR   Ar  216   6.571   2.871   1.851
    1   AR   Ar  217   4.574   3.210   3.642
    1   AR   Ar  218   4.550   2.486   5.181
    1   AR   Ar  219   5.110   1.544   3.304
    1   AR   Ar  220   5.278   3.398   2.637
    1   AR   Ar  221   6.663   0.275   4.940
    1   AR   Ar  222   5.114   1.489   5.920
    1   AR   Ar  223   6.448   1.045   6.919
    1   AR   Ar  224   5.658   2.071   5.102
    1   AR   Ar  225   5.371   4.821   0.031
    1   AR   Ar  226   4.864   4.457   2.456
    1   AR   Ar  227   6.747   4.794   0.035
    1   AR   Ar  228   5.838   5.570   0.646
    1   AR   Ar  229   5.938   4.373   1.057
    1   AR   Ar  230   4.392   4.860   3.402
    1   AR   Ar  231   6.563   2.756   3.159
    1   AR   Ar  232   4.485   3.340   0.739
    1   AR   Ar  233   6.158   2.509   4.284
    1   AR   Ar  234   6.390   3.601   4.390
    1   AR   Ar  235   0.120   2.964   4.189
    1   AR   Ar  236   5.432   4.387   4.067
    1   AR   Ar  237   5.405   3.259   4.307
    1   AR   Ar  238   4.844   4.357   5.462
    1   AR   Ar  239   6.146   4.258   8.999
    1   AR   Ar  240   0.203   4.472   5.190
    1   AR   Ar  241   0.171   0.229  -0.282
    1   AR   Ar  242   4.812   5.357   1.145
    1   AR   Ar  243   5.870   4.352   2.070
    1   AR   Ar  244   0.680   5.661  -0.638
    1   AR   Ar  245   5.276   6.243   2.503
    1   AR   Ar  246   6.133   6.416   1.631
    1   AR   Ar  247   5.639   2.975   1.383
    1   AR   Ar  248   6.050   6.541   0.626
    1   AR   Ar  249   5.455   5.288   2.620
    1   AR   Ar  250   4.927   6.255   4.241
    1   AR   Ar  251   5.903   5.148   4.723
    1   AR   Ar  252   5.597   6.293   3.495
    1   AR   Ar  253   5.695   4.852   5.757
    1   AR   Ar  254   5.028   5.684   6.576
    1   AR   Ar  255   5.221   4.246   6.874
    1   AR   Ar  256   6.126   6.148   4.749
    7.12000  7.12000 12.00000
Argon-slab step 1695
  256
    1   AR   Ar    1   6.662   1.122  -1.084
    1   AR   Ar    2   6.354   0.315   1.417
    1   AR   Ar    3   7.051   6.977   0.656
    1   AR   Ar    4   1.024   0.405   0.444
    1   AR   Ar    5   6.949   5.798   0.701
    1   AR   Ar    6   0.194   0.300   3.077
    1   AR   Ar    7   0.248   5.425   2.578
    1   AR   Ar    8   6.933   6.828   1.980
    1   AR   Ar    9   0.926   0.696   3.916
    1   AR   Ar   10   0.364   1.921   4.225
    1   AR   Ar   11   2.959   7.065   4.562
    1   AR   Ar   12   0.970   1.398   2.935
    1   AR   Ar   13   6.721   1.433   4.876
    1   AR   Ar   14   0.237   1.527   6.256
    1   AR   Ar   15   0.382   6.684   9.161
    1   AR   Ar   16   0.606   1.501   5.254
    1   AR   Ar   17   0.491   1.328  -0.148
    1   AR   Ar   18   6.068   3.567  -0.771
    1   AR   Ar   19   1.190   1.873   1.377
    1   AR   Ar   20   6.676   2.156  -2.619
    1   AR   Ar   21   6.267   1.299   2.586
    1   AR   Ar   22   7.089   1.915   2.075
    1   AR   Ar   23   0.181   0.972   1.383
    1   AR   Ar   24   0.137   2.194   0.959
    1   AR   Ar   25   7.095   1.279   3.121
    1   AR   Ar   26   6.297   1.479   3.827
    1   AR   Ar   27   2.050   1.210   3.429
    1   AR   Ar   28   1.123   2.507   5.035
    1   AR   Ar   29   5.960   2.146   6.264
    1   AR   Ar   30   0.532   2.829   6.123
    1   AR   Ar   31   0.253   0.299   6.761
    1   AR   Ar   32   1.583   2.742   5.935
    1   AR   Ar   33   1.163   4.366  -1.564
    1   AR   Ar   34   0.523   5.597   1.408
    1   AR   Ar   35   0.460   3.767   1.384
    1   AR   Ar   36   0.199   0.161  -1.609
    1   AR   Ar   37   0.360   3.161   2.498
    1   AR   Ar   38   7.009   4.403   2.375
    1   AR   Ar   39   1.264   4.151   2.161
    1   AR   Ar   40   1.829   3.861   1.054
    1   AR   Ar   41   0.743   2.463   3.397
    1   AR   Ar   42   6.767   5.473   5.244
    1   AR   Ar   43   6.662   2.500   5.320
    1   AR   Ar   44   0.526   3.908   3.503
    1   AR   Ar   45   0.932   3.642   5.495
    1   AR   Ar   46   0.245   5.705   6.445
    1   AR   Ar   47   5.905   3.833   5.566
    1   AR   Ar   48   6.410   6.678   6.870
    1   AR   Ar   49   6.830   5.350  -1.622
    1   AR   Ar   50   6.577   5.175   1.733
    1   AR   Ar   51   1.653   4.913   1.232
    1   AR   Ar   52   0.023   4.564  -1.058
    1   AR   Ar   53   6.442   6.013   2.793
    1   AR   Ar   54   0.101   6.484   3.512
    1   AR   Ar   55   6.353   4.983   2.966
    1   AR   Ar   56   1.126   6.492   1.103
    1   AR   Ar   57   6.356   3.662   2.773
    1   AR   Ar   58   6.960   5.393   4.163
    1   AR   Ar   59   1.846   5.927   5.456
    1   AR   Ar   60   1.204   6.463   4.067
    1   AR   Ar   61   5.974   5.966   5.874
    1   AR   Ar   62   0.762   5.760   5.293
    1   AR   Ar   63   1.426   6.247   6.374
    1   AR   Ar   64   1.503   0.061   4.890
    1   AR   Ar   65   2.969   0.117  -0.251
    1   AR   Ar   66   1.569   0.991   1.029
    1   AR   Ar   67   3.302   6.175  -0.836
    1   AR   Ar   68   3.236   0.855  -1.190
    1   AR   Ar   69   2.060   0.319   0.354
    1   AR   Ar   70   1.061   0.318   1.613
    1   AR   Ar   71   2.931   0.654   2.310
    1   AR   Ar   72   3.201   0.206   1.233
    1   AR   Ar   73   1.566   0.209   3.270
    1   AR   Ar   74   1.325   1.482   4.484
    1   AR   Ar   75   3.794   0.726   4.676
    1   AR   Ar   76   1.819   1.015   2.347
    1   AR   Ar   77   2.166   6.938   5.983
    1   AR   Ar   78   1.541   0.678   5.739
    1   AR   Ar   79   4.008   6.280   6.948
    1   AR   Ar   80   3.184   5.903   5.863
    1   AR   Ar   81   1.355   1.733   0.054
    1   AR   Ar   82   0.312   3.680  -0.605
    1   AR   Ar   83   2.687   2.513   0.600
    1   AR   Ar   84   1.564   4.007  -2.931
    1   AR   Ar   85   0.787   2.675  -0.487
    1   AR   Ar   86   1.681   3.285   2.177
    1   AR   Ar   87   2.288   2.299   1.897
    1   AR   Ar   88   3.549   4.597   1.103
    1   AR   Ar   89   1.204   2.277   2.354
    1   AR   Ar   90   2.732   1.762   4.359
    1   AR   Ar   91   1.894   2.252   4.188
    1   AR   Ar   92   2.026   2.146   3.049
    1   AR   Ar   93   2.234   2.134   5.337
    1   AR   Ar   94   2.594   0.796   7.562
    1   AR   Ar   95   3.259   7.019   5.818
    1   AR   Ar   96   2.861   0.898   5.452
    1   AR   Ar   97   3.872   2.856  -1.158
    1   AR   Ar   98   2.623   4.506   1.636
    1   AR   Ar   99   5.980   2.490  -1.339
    1   AR   Ar  100   1.573   4.234  -0.448
    1   AR   Ar  101   1.471   2.651   0.500
    1   AR   Ar  102   2.644   4.007   3.896
    1   AR   Ar  103   0.903   4.032   0.323
    1   AR   Ar  104   2.886   3.574  -0.872
    1   AR   Ar  105   1.464   3.213   3.400
    1   AR   Ar  106   2.433   3.103   4.831
    1   AR   Ar  107   1.909   4.080   5.075
    1   AR   Ar  108   3.458   3.247   4.140
    1   AR   Ar  109   1.671   4.128   3.938
    1   AR   Ar  110   1.488   4.836   5.648
    1   AR   Ar  111   4.355   5.311   7.402
    1   AR   Ar  112   1.134   4.813   6.761
    1   AR   Ar  113   2.460   4.637   0.442
    1   AR   Ar  114   2.428   6.348   0.508
    1   AR   Ar  115   3.178   4.639  -0.506
    1   AR   Ar  116   4.762   6.631   0.374
    1   AR   Ar  117   0.663   5.451   3.543
    1   AR   Ar  118   0.826   6.558   2.829
    1   AR   Ar  119   2.372   4.213   2.714
    1   AR   Ar  120   1.274   5.243   2.244
    1   AR   Ar  121   6.808   4.446   3.881
    1   AR   Ar  122   2.534   6.066   4.636
    1   AR   Ar  123   2.502   5.078   4.745
    1   AR   Ar  124   2.446   6.033   3.374
    1   AR   Ar  125   0.753   4.554   4.240
    1   AR   Ar  126   0.610   0.275   5.539
    1   AR   Ar  127   3.228   5.540   6.878
    1   AR   Ar  128   2.075   5.364   6.566
    1   AR   Ar  129   2.035   0.134   1.613
    1   AR   Ar  130   4.276   1.210  -1.847
    1   AR   Ar  131   4.811   6.873   1.367
    1   AR   Ar  132   0.107   2.323  -1.424
    1   AR   Ar  133   3.591   6.964   2.530
    1   AR   Ar  134   3.932   1.497   2.395
    1   AR   Ar  135   4.549   0.597   2.825
    1   AR   Ar  136   4.096   0.381   1.799
    1   AR   Ar  137   2.801   6.995   3.435
    1   AR   Ar  138   4.718   0.945   4.976
    1   AR   Ar  139   5.482   1.203   4.408
    1   AR   Ar  140   4.286   0.928   3.864
    1   AR   Ar  141   3.696   6.758   3.745
    1   AR   Ar  142   4.322   7.049   5.365
    1   AR   Ar  143   5.750   0.040   6.036
    1   AR   Ar  144   5.118   0.654   6.646
    1   AR   Ar  145   3.268   3.967   0.313
    1   AR   Ar  146   4.299   2.556   1.520
    1   AR   Ar  147   5.718   1.864  -0.213
    1   AR   Ar  148   5.611   3.702  -2.710
    1   AR   Ar  149   3.927   2.148   0.644
    1   AR   Ar  150   2.904   1.502   2.952
    1   AR   Ar  151   3.891   2.403   3.534
    1   AR   Ar  152   2.798   3.502   1.457
    1   AR   Ar  153   3.044   0.880   3.832
    1   AR   Ar  154   4.009   1.940   4.606
    1   AR   Ar  155   5.980   0.922   5.540
    1   AR   Ar  156   3.755   3.983   3.264
    1   AR   Ar  157   2.902   2.812   6.068
    1   AR   Ar  158   1.559   2.352   7.292
    1   AR   Ar  159   4.080   0.826   6.033
    1   AR   Ar  160   3.916   3.006   7.318
    1   AR   Ar  161   5.071   2.200   0.742
    1   AR   Ar  162   4.356   5.545  -0.434
    1   AR   Ar  163   5.331   3.525   0.030
    1   AR   Ar  164   4.008   5.118   1.874
    1   AR   Ar  165   3.175   3.525   2.465
    1   AR   Ar  166   2.688   4.869   3.456
    1   AR   Ar  167   4.640   2.371   2.796
    1   AR   Ar  168   4.048   3.801  -0.764
    1   AR   Ar  169   2.905   2.881   3.411
    1   AR   Ar  170   3.160   4.286   4.911
    1   AR   Ar  171   4.265   3.682   4.618
    1   AR   Ar  172   4.643   5.161   4.299
    1   AR   Ar  173   2.141   3.204   6.810
    1   AR   Ar  174   4.406   4.853   6.274
    1   AR   Ar  175   3.980   3.298   6.035
    1   AR   Ar  176   3.867   5.111   5.403
    1   AR   Ar  177   5.637   5.773  -0.495
    1   AR   Ar  178   3.356   6.346   1.525
    1   AR   Ar  179   3.790   5.667   0.824
    1   AR   Ar  180   3.575   3.743  -1.837
    1   AR   Ar  181   2.508   5.680   1.682
    1   AR   Ar  182   2.641   6.747   2.445
    1   AR   Ar  183   3.455   4.584   2.546
    1   AR   Ar  184   4.277   6.301   2.124
    1   AR   Ar  185   1.496   5.485   4.521
    1   AR   Ar  186   3.346   5.768   3.893
    1   AR   Ar  187   4.409   5.830   3.023
    1   AR   Ar  188   3.327   5.749   2.521
    1   AR   Ar  189   2.892   4.884   5.809
    1   AR   Ar  190   4.312   6.096   5.811
    1   AR   Ar  191   5.057   5.539   5.294
    1   AR   Ar  192   3.896   6.255   4.638
    1   AR   Ar  193   6.693   6.266  -0.299
    1   AR   Ar  194   5.935   5.830  -1.532
    1   AR   Ar  195   5.999   0.514  -0.316
    1   AR   Ar  196   5.733   0.941  -1.317
    1   AR   Ar  197   5.150   0.836   0.870
    1   AR   Ar  198   6.105   1.728   1.544
    1   AR   Ar  199   5.448   0.814   1.995
    1   AR   Ar  200   6.486   1.163   0.396
    1   AR   Ar  201   4.680   6.838   3.353
    1   AR   Ar  202   5.201   2.228   4.169
    1   AR   Ar  203   0.291   6.461   4.643
    1   AR   Ar  204   5.226   0.464   3.751
    1   AR   Ar  205   6.237   0.106   3.120
    1   AR   Ar  206   5.523   0.236   4.939
    1   AR   Ar  207   6.820   0.552   5.980
    1   AR   Ar  208   7.058   0.771   4.109
    1   AR   Ar  209   4.990   2.166  -2.380
    1   AR   Ar  210   4.209   1.235   1.095
    1   AR   Ar  211   6.056   2.798   0.345
    1   AR   Ar  212   6.049   4.043  -1.787
    1   AR   Ar  213   3.349   2.376   2.466
    1   AR   Ar  214   4.246   3.234   2.579
    1   AR   Ar  215   5.772   2.154   2.581
    1   AR   Ar  216   6.596   2.852   1.856
    1   AR   Ar  217   4.579   3.233   3.621
    1   AR   Ar  218   4.513   2.515   5.164
    1   AR   Ar  219   5.076   1.546   3.308
    1   AR   Ar  220   5.262   3.412   2.634
    1   AR   Ar  221   6.683   0.277   4.920
    1   AR   Ar  222   5.121   1.482   5.908
    1   AR   Ar  223   6.488   1.043   6.928
    1   AR   Ar  224   5.661   2.090   5.118
    1   AR   Ar  225   5.383   4.838   0.049
    1   AR   Ar  226   4.859   4.438   2.455
    1   AR   Ar  227   6.698   4.808   0.037
    1   AR   Ar  228   5.795   5.577   0.655
    1   AR   Ar  229   5.943   4.374   1.025
    1   AR   Ar  230   4.395   4.859   3.408
    1   AR   Ar  231   6.569   2.755   3.166
    1   AR   Ar  232   4.474   3.344   0.708
    1   AR   Ar  233   6.181   2.485   4.278
    1   AR   Ar  234   6.398   3.630   4.366
    1   AR   Ar  235   0.154   2.936   4.178
    1   AR   Ar  236   5.431   4.364   4.071
    1   AR   Ar  237   5.433   3.250   4.293
    1   AR   Ar  238   4.837   4.374   5.471
    1   AR   Ar  239   6.125   4.241   9.026
    1   AR   Ar  240   0.211   4.434   5.201
    1   AR   Ar  241   0.142   0.243  -0.314
    1   AR   Ar  242   4.814   5.332   1.162
    1   AR   Ar  243   5.878   4.374   2.057
    1   AR   Ar  244   0.654   5.656  -0.626
    1   AR   Ar  245   5.280   6.286   2.524
    1   AR   Ar  246   6.109   6.392   1.635
    1   AR   Ar  247   5.654   2.985   1.412
    1   AR   Ar  248   6.050   6.537   0.614
    1   AR   Ar  249   5.430   5.314   2.631
    1   AR   Ar  250   4.931   6.258   4.244
    1   AR   Ar  251   5.898   5.158   4.714
    1   AR   Ar  252   5.589   6.297   3.477
    1   AR   Ar  253   5.682   4.838   5.763
    1   AR   Ar  254   5.030   5.647   6.595
    1   AR   Ar  255   5.201   4.255   6.857
    1   AR   Ar  256   6.138   6.151   4.745
    7.12000  7.12000 12.00000
Argon-slab step 1700
  256
    1   AR   Ar    1   6.707   1.149  -1.061
    1   AR   Ar    2   6.357   0.292   1.425
    1   AR   Ar    3   7.038   6.995   0.666
    1   AR   Ar    4   1.071   0.384   0.439
    1   AR   Ar    5   6.920   5.780   0.723
    1   AR   Ar    6   0.180   0.272   3.044
    1   AR   Ar    7   0.270   5.380   2.576
    1   AR   Ar    8   6.913   6.820   1.982
    1   AR   Ar    9   0.962   0.694   3.923
    1   AR   Ar   10   0.381   1.954   4.235
    1   AR   Ar   11   2.976   7.021   4.573
    1   AR   Ar   12   0.967   1.433   2.922
    1   AR   Ar   13   6.716   1.415   4.861
    1   AR   Ar   14   0.223   1.543   6.246
    1   AR   Ar   15   0.374   6.720   9.202
    1   AR   Ar   16   0.574   1.480   5.254
    1   AR   Ar   17   0.480   1.331  -0.142
    1   AR   Ar   18   6.053   3.576  -0.756
    1   AR   Ar   19   1.184   1.894   1.374
    1   AR   Ar   20   6.666   2.150  -2.609
    1   AR   Ar   21   6.241   1.280   2.565
    1   AR   Ar   22   7.099   1.881   2.081
    1   AR   Ar   23   0.144   1.004   1.408
    1   AR   Ar   24   0.145   2.212   0.963
    1   AR   Ar   25   7.110   1.262   3.109
    1   AR   Ar   26   6.291   1.481   3.806
    1   AR   Ar   27   2.004   1.212   3.419
    1   AR   Ar   28   1.157   2.533   5.020
    1   AR   Ar   29   5.961   2.124   6.255
    1   AR   Ar   30   0.542   2.834   6.116
    1   AR   Ar   31   0.255   0.310   6.762
    1   AR   Ar   32   1.605   2.747   5.924
    1   AR   Ar   33   1.147   4.372  -1.546
    1   AR   Ar   34   0.531   5.597   1.420
    1   AR   Ar   35   0.458   3.774   1.387
    1   AR   Ar   36   0.192   0.139  -1.631
    1   AR   Ar   37   0.342   3.182   2.497
    1   AR   Ar   38   7.006   4.420   2.357
    1   AR   Ar   39   1.289   4.170   2.169
    1   AR   Ar   40   1.806   3.851   1.044
    1   AR   Ar   41   0.781   2.485   3.382
    1   AR   Ar   42   6.755   5.522   5.245
    1   AR   Ar   43   6.667   2.487   5.337
    1   AR   Ar   44   0.550   3.911   3.526
    1   AR   Ar   45   0.914   3.644   5.499
    1   AR   Ar   46   0.254   5.732   6.455
    1   AR   Ar   47   5.903   3.841   5.590
    1   AR   Ar   48   6.406   6.692   6.868
    1   AR   Ar   49   6.836   5.366  -1.647
    1   AR   Ar   50   6.582   5.161   1.754
    1   AR   Ar   51   1.683   4.934   1.275
    1   AR   Ar   52   0.009   4.599  -1.052
    1   AR   Ar   53   6.422   6.027   2.773
    1   AR   Ar   54   0.125   6.454   3.513
    1   AR   Ar   55   6.349   4.974   2.957
    1   AR   Ar   56   1.115   6.509   1.091
    1   AR   Ar   57   6.353   3.637   2.774
    1   AR   Ar   58   6.954   5.435   4.176
    1   AR   Ar   59   1.849   5.911   5.441
    1   AR   Ar   60   1.195   6.455   4.074
    1   AR   Ar   61   5.979   5.982   5.836
    1   AR   Ar   62   0.739   5.791   5.318
    1   AR   Ar   63   1.458   6.295   6.412
    1   AR   Ar   64   1.536   0.044   4.894
    1   AR   Ar   65   2.986   0.098  -0.225
    1   AR   Ar   66   1.573   0.961   1.012
    1   AR   Ar   67   3.307   6.189  -0.856
    1   AR   Ar   68   3.239   0.886  -1.205
    1   AR   Ar   69   2.059   0.295   0.363
    1   AR   Ar   70   1.041   0.325   1.584
    1   AR   Ar   71   2.942   0.650   2.308
    1   AR   Ar   72   3.193   0.204   1.264
    1   AR   Ar   73   1.556   0.229   3.261
    1   AR   Ar   74   1.313   1.464   4.538
    1   AR   Ar   75   3.764   0.691   4.665
    1   AR   Ar   76   1.824   1.034   2.338
    1   AR   Ar   77   2.157   6.930   5.985
    1   AR   Ar   78   1.531   0.637   5.776
    1   AR   Ar   79   4.016   6.302   6.944
    1   AR   Ar   80   3.214   5.876   5.883
    1   AR   Ar   81   1.395   1.734   0.064
    1   AR   Ar   82   0.292   3.657  -0.598
    1   AR   Ar   83   2.691   2.540   0.566
    1   AR   Ar   84   1.543   4.013  -2.924
    1   AR   Ar   85   0.775   2.679  -0.501
    1   AR   Ar   86   1.707   3.284   2.189
    1   AR   Ar   87   2.248   2.319   1.929
    1   AR   Ar   88   3.584   4.568   1.133
    1   AR   Ar   89   1.179   2.299   2.337
    1   AR   Ar   90   2.731   1.762   4.368
    1   AR   Ar   91   1.876   2.253   4.202
    1   AR   Ar   92   2.017   2.129   3.039
    1   AR   Ar   93   2.260   2.121   5.349
    1   AR   Ar   94   2.572   0.807   7.582
    1   AR   Ar   95   3.248   7.017   5.801
    1   AR   Ar   96   2.840   0.879   5.470
    1   AR   Ar   97   3.868   2.834  -1.189
    1   AR   Ar   98   2.633   4.488   1.642
    1   AR   Ar   99   6.003   2.510  -1.338
    1   AR   Ar  100   1.590   4.220  -0.442
    1   AR   Ar  101   1.462   2.680   0.475
    1   AR   Ar  102   2.620   4.017   3.914
    1   AR   Ar  103   0.864   4.061   0.295
    1   AR   Ar  104   2.867   3.595  -0.865
    1   AR   Ar  105   1.462   3.230   3.407
    1   AR   Ar  106   2.452   3.097   4.848
    1   AR   Ar  107   1.897   4.062   5.044
    1   AR   Ar  108   3.456   3.279   4.101
    1   AR   Ar  109   1.678   4.120   3.927
    1   AR   Ar  110   1.491   4.830   5.606
    1   AR   Ar  111   4.349   5.307   7.423
    1   AR   Ar  112   1.122   4.807   6.763
    1   AR   Ar  113   2.443   4.616   0.429
    1   AR   Ar  114   2.442   6.306   0.507
    1   AR   Ar  115   3.177   4.578  -0.522
    1   AR   Ar  116   4.749   6.634   0.368
    1   AR   Ar  117   0.626   5.474   3.563
    1   AR   Ar  118   0.791   6.593   2.826
    1   AR   Ar  119   2.360   4.200   2.705
    1   AR   Ar  120   1.285   5.219   2.234
    1   AR   Ar  121   6.813   4.447   3.899
    1   AR   Ar  122   2.545   6.096   4.618
    1   AR   Ar  123   2.495   5.067   4.753
    1   AR   Ar  124   2.451   6.031   3.361
    1   AR   Ar  125   0.748   4.568   4.236
    1   AR   Ar  126   0.598   0.318   5.537
    1   AR   Ar  127   3.240   5.541   6.848
    1   AR   Ar  128   2.089   5.351   6.577
    1   AR   Ar  129   2.050   0.159   1.634
    1   AR   Ar  130   4.277   1.228  -1.853
    1   AR   Ar  131   4.828   6.890   1.376
    1   AR   Ar  132   0.132   2.307  -1.430
    1   AR   Ar  133   3.625   6.956   2.522
    1   AR   Ar  134   3.903   1.492   2.406
    1   AR   Ar  135   4.551   0.602   2.815
    1   AR   Ar  136   4.065   0.390   1.820
    1   AR   Ar  137   2.775   7.002   3.459
    1   AR   Ar  138   4.719   0.952   4.996
    1   AR   Ar  139   5.462   1.220   4.389
    1   AR   Ar  140   4.283   0.941   3.810
    1   AR   Ar  141   3.691   6.764   3.752
    1   AR   Ar  142   4.289   7.041   5.340
    1   AR   Ar  143   5.735   0.000   6.038
    1   AR   Ar  144   5.121   0.662   6.630
    1   AR   Ar  145   3.271   3.988   0.321
    1   AR   Ar  146   4.296   2.546   1.555
    1   AR   Ar  147   5.693   1.857  -0.217
    1   AR   Ar  148   5.593   3.715  -2.729
    1   AR   Ar  149   3.937   2.171   0.656
    1   AR   Ar  150   2.937   1.508   2.967
    1   AR   Ar  151   3.865   2.369   3.549
    1   AR   Ar  152   2.780   3.535   1.452
    1   AR   Ar  153   3.046   0.904   3.849
    1   AR   Ar  154   3.998   1.940   4.575
    1   AR   Ar  155   5.945   0.898   5.564
    1   AR   Ar  156   3.740   3.999   3.276
    1   AR   Ar  157   2.866   2.841   6.090
    1   AR   Ar  158   1.540   2.376   7.303
    1   AR   Ar  159   4.044   0.844   6.038
    1   AR   Ar  160   3.916   2.976   7.353
    1   AR   Ar  161   5.061   2.196   0.728
    1   AR   Ar  162   4.341   5.556  -0.443
    1   AR   Ar  163   5.347   3.526   0.008
    1   AR   Ar  164   4.018   5.126   1.848
    1   AR   Ar  165   3.165   3.489   2.453
    1   AR   Ar  166   2.678   4.876   3.482
    1   AR   Ar  167   4.653   2.368   2.755
    1   AR   Ar  168   4.064   3.775  -0.774
    1   AR   Ar  169   2.920   2.919   3.376
    1   AR   Ar  170   3.150   4.260   4.896
    1   AR   Ar  171   4.262   3.712   4.588
    1   AR   Ar  172   4.629   5.183   4.292
    1   AR   Ar  173   2.127   3.209   6.822
    1   AR   Ar  174   4.409   4.885   6.290
    1   AR   Ar  175   3.940   3.288   6.031
    1   AR   Ar  176   3.873   5.088   5.427
    1   AR   Ar  177   5.645   5.774  -0.472
    1   AR   Ar  178   3.320   6.357   1.516
    1   AR   Ar  179   3.782   5.689   0.796
    1   AR   Ar  180   3.555   3.741  -1.866
    1   AR   Ar  181   2.508   5.662   1.664
    1   AR   Ar  182   2.677   6.744   2.428
    1   AR   Ar  183   3.465   4.583   2.560
    1   AR   Ar  184   4.223   6.294   2.130
    1   AR   Ar  185   1.530   5.481   4.563
    1   AR   Ar  186   3.340   5.768   3.886
    1   AR   Ar  187   4.397   5.865   3.033
    1   AR   Ar  188   3.297   5.747   2.503
    1   AR   Ar  189   2.877   4.863   5.830
    1   AR   Ar  190   4.294   6.111   5.809
    1   AR   Ar  191   5.059   5.532   5.301
    1   AR   Ar  192   3.831   6.258   4.637
    1   AR   Ar  193   6.688   6.287  -0.295
    1   AR   Ar  194   5.919   5.805  -1.497
    1   AR   Ar  195   6.015   0.495  -0.342
    1   AR   Ar  196   5.706   0.937  -1.281
    1   AR   Ar  197   5.140   0.857   0.868
    1   AR   Ar  198   6.073   1.732   1.526
    1   AR   Ar  199   5.471   0.829   1.998
    1   AR   Ar  200   6.477   1.184   0.391
    1   AR   Ar  201   4.677   6.829   3.340
    1   AR   Ar  202   5.198   2.221   4.175
    1   AR   Ar  203   0.247   6.474   4.664
    1   AR   Ar  204   5.186   0.446   3.772
    1   AR   Ar  205   6.252   0.103   3.100
    1   AR   Ar  206   5.468   0.229   4.938
    1   AR   Ar  207   6.821   0.576   5.975
    1   AR   Ar  208   7.075   0.776   4.102
    1   AR   Ar  209   5.016   2.188  -2.394
    1   AR   Ar  210   4.192   1.221   1.076
    1   AR   Ar  211   6.041   2.806   0.309
    1   AR   Ar  212   6.065   4.032  -1.803
    1   AR   Ar  213   3.360   2.360   2.466
    1   AR   Ar  214   4.221   3.246   2.593
    1   AR   Ar  215   5.776   2.160   2.583
    1   AR   Ar  216   6.623   2.833   1.863
    1   AR   Ar  217   4.583   3.257   3.600
    1   AR   Ar  218   4.490   2.558   5.161
    1   AR   Ar  219   5.043   1.544   3.312
    1   AR   Ar  220   5.252   3.426   2.632
    1   AR   Ar  221   6.701   0.276   4.905
    1   AR   Ar  222   5.123   1.488   5.919
    1   AR   Ar  223   6.528   1.040   6.936
    1   AR   Ar  224   5.663   2.106   5.137
    1   AR   Ar  225   5.393   4.852   0.065
    1   AR   Ar  226   4.860   4.412   2.466
    1   AR   Ar  227   6.648   4.824   0.039
    1   AR   Ar  228   5.753   5.578   0.667
    1   AR   Ar  229   5.948   4.377   0.987
    1   AR   Ar  230   4.407   4.862   3.388
    1   AR   Ar  231   6.578   2.747   3.176
    1   AR   Ar  232   4.463   3.346   0.678
    1   AR   Ar  233   6.215   2.462   4.271
    1   AR   Ar  234   6.409   3.656   4.345
    1   AR   Ar  235   0.186   2.914   4.167
    1   AR   Ar  236   5.431   4.341   4.075
    1   AR   Ar  237   5.456   3.245   4.281
    1   AR   Ar  238   4.821   4.386   5.470
    1   AR   Ar  239   6.105   4.224   9.052
    1   AR   Ar  240   0.223   4.409   5.187
    1   AR   Ar  241   0.113   0.258  -0.347
    1   AR   Ar  242   4.817   5.306   1.179
    1   AR   Ar  243   5.887   4.396   2.050
    1   AR   Ar  244   0.627   5.651  -0.615
    1   AR   Ar  245   5.282   6.342   2.535
    1   AR   Ar  246   6.077   6.360   1.640
    1   AR   Ar  247   5.665   2.995   1.440
    1   AR   Ar  248   6.051   6.544   0.596
    1   AR   Ar  249   5.405   5.334   2.643
    1   AR   Ar  250   4.931   6.260   4.253
    1   AR   Ar  251   5.889   5.162   4.703
    1   AR   Ar  252   5.591   6.300   3.462
    1   AR   Ar  253   5.676   4.830   5.775
    1   AR   Ar  254   5.034   5.612   6.611
    1   AR   Ar  255   5.180   4.267   6.838
    1   AR   Ar  256   6.150   6.162   4.740
    7.12000  7.12000 12.00000
Argon-slab step 1705
  256
    1   AR   Ar    1   6.757   1.177  -1.034
    1   AR   Ar    2   6.352   0.278   1.427
    1   AR   Ar    3   7.027   7.013   0.677
    1   AR   Ar    4   1.095   0.353   0.423
    1   AR   Ar    5   6.885   5.763   0.742
    1   AR   Ar    6   0.168   0.245   3.012
    1   AR   Ar    7   0.288   5.338   2.573
    1   AR   Ar    8   6.908   6.809   1.995
    1   AR   Ar    9   0.997   0.694   3.932
    1   AR   Ar   10   0.399   1.972   4.246
    1   AR   Ar   11   2.997   6.984   4.583
    1   AR   Ar   12   0.972   1.467   2.911
    1   AR   Ar   13   6.706   1.399   4.848
    1   AR   Ar   14   0.199   1.551   6.229
    1   AR   Ar   15   0.367   6.756   9.243
    1   AR   Ar   16   0.542   1.458   5.256
    1   AR   Ar   17   0.462   1.331  -0.137
    1   AR   Ar   18   6.042   3.585  -0.743
    1   AR   Ar   19   1.187   1.874   1.395
    1   AR   Ar   20   6.655   2.144  -2.598
    1   AR   Ar   21   6.217   1.253   2.544
    1   AR   Ar   22   7.111   1.847   2.089
    1   AR   Ar   23   0.106   1.037   1.432
    1   AR   Ar   24   0.152   2.228   0.969
    1   AR   Ar   25   0.002   1.253   3.100
    1   AR   Ar   26   6.285   1.485   3.781
    1   AR   Ar   27   1.957   1.205   3.415
    1   AR   Ar   28   1.188   2.557   5.001
    1   AR   Ar   29   5.963   2.102   6.244
    1   AR   Ar   30   0.550   2.836   6.109
    1   AR   Ar   31   0.262   0.318   6.770
    1   AR   Ar   32   1.628   2.765   5.924
    1   AR   Ar   33   1.130   4.379  -1.526
    1   AR   Ar   34   0.534   5.639   1.463
    1   AR   Ar   35   0.462   3.762   1.380
    1   AR   Ar   36   0.183   0.117  -1.651
    1   AR   Ar   37   0.325   3.203   2.497
    1   AR   Ar   38   7.007   4.428   2.339
    1   AR   Ar   39   1.308   4.199   2.175
    1   AR   Ar   40   1.781   3.841   1.035
    1   AR   Ar   41   0.816   2.501   3.363
    1   AR   Ar   42   6.751   5.566   5.250
    1   AR   Ar   43   6.673   2.474   5.353
    1   AR   Ar   44   0.573   3.903   3.538
    1   AR   Ar   45   0.899   3.645   5.502
    1   AR   Ar   46   0.253   5.748   6.438
    1   AR   Ar   47   5.902   3.844   5.612
    1   AR   Ar   48   6.403   6.707   6.865
    1   AR   Ar   49   6.844   5.386  -1.676
    1   AR   Ar   50   6.586   5.153   1.772
    1   AR   Ar   51   1.714   4.956   1.316
    1   AR   Ar   52   7.119   4.607  -1.038
    1   AR   Ar   53   6.405   6.042   2.743
    1   AR   Ar   54   0.137   6.419   3.529
    1   AR   Ar   55   6.346   4.963   2.951
    1   AR   Ar   56   1.104   6.526   1.079
    1   AR   Ar   57   6.348   3.620   2.772
    1   AR   Ar   58   6.941   5.482   4.194
    1   AR   Ar   59   1.823   5.883   5.425
    1   AR   Ar   60   1.186   6.448   4.080
    1   AR   Ar   61   5.982   5.999   5.799
    1   AR   Ar   62   0.715   5.823   5.346
    1   AR   Ar   63   1.486   6.339   6.451
    1   AR   Ar   64   1.570   0.025   4.896
    1   AR   Ar   65   3.003   0.079  -0.198
    1   AR   Ar   66   1.591   0.948   1.003
    1   AR   Ar   67   3.312   6.203  -0.873
    1   AR   Ar   68   3.244   0.916  -1.220
    1   AR   Ar   69   2.069   0.267   0.372
    1   AR   Ar   70   1.011   0.332   1.561
    1   AR   Ar   71   2.959   0.662   2.309
    1   AR   Ar   72   3.181   0.221   1.267
    1   AR   Ar   73   1.551   0.244   3.246
    1   AR   Ar   74   1.311   1.458   4.552
    1   AR   Ar   75   3.728   0.653   4.659
    1   AR   Ar   76   1.828   1.054   2.329
    1   AR   Ar   77   2.153   6.921   5.985
    1   AR   Ar   78   1.526   0.603   5.816
    1   AR   Ar   79   4.024   6.323   6.938
    1   AR   Ar   80   3.244   5.853   5.896
    1   AR   Ar   81   1.441   1.732   0.075
    1   AR   Ar   82   0.272   3.633  -0.590
    1   AR   Ar   83   2.694   2.569   0.534
    1   AR   Ar   84   1.522   4.019  -2.915
    1   AR   Ar   85   0.770   2.662  -0.508
    1   AR   Ar   86   1.726   3.303   2.173
    1   AR   Ar   87   2.228   2.331   1.948
    1   AR   Ar   88   3.617   4.538   1.159
    1   AR   Ar   89   1.153   2.324   2.322
    1   AR   Ar   90   2.738   1.761   4.379
    1   AR   Ar   91   1.853   2.264   4.212
    1   AR   Ar   92   2.008   2.123   3.025
    1   AR   Ar   93   2.286   2.107   5.359
    1   AR   Ar   94   2.549   0.819   7.600
    1   AR   Ar   95   3.239   7.015   5.782
    1   AR   Ar   96   2.818   0.860   5.487
    1   AR   Ar   97   3.862   2.810  -1.221
    1   AR   Ar   98   2.614   4.517   1.631
    1   AR   Ar   99   6.027   2.529  -1.336
    1   AR   Ar  100   1.610   4.207  -0.439
    1   AR   Ar  101   1.451   2.667   0.456
    1   AR   Ar  102   2.617   4.007   3.940
    1   AR   Ar  103   0.823   4.088   0.270
    1   AR   Ar  104   2.849   3.614  -0.857
    1   AR   Ar  105   1.466   3.250   3.412
    1   AR   Ar  106   2.471   3.092   4.864
    1   AR   Ar  107   1.888   4.052   5.017
    1   AR   Ar  108   3.459   3.314   4.072
    1   AR   Ar  109   1.664   4.117   3.918
    1   AR   Ar  110   1.492   4.828   5.565
    1   AR   Ar  111   4.343   5.302   7.441
    1   AR   Ar  112   1.110   4.801   6.762
    1   AR   Ar  113   2.423   4.596   0.418
    1   AR   Ar  114   2.456   6.265   0.507
    1   AR   Ar  115   3.175   4.522  -0.540
    1   AR   Ar  116   4.739   6.637   0.365
    1   AR   Ar  117   0.598   5.497   3.581
    1   AR   Ar  118   0.784   6.611   2.823
    1   AR   Ar  119   2.369   4.147   2.700
    1   AR   Ar  120   1.298   5.200   2.226
    1   AR   Ar  121   6.819   4.454   3.912
    1   AR   Ar  122   2.539   6.132   4.635
    1   AR   Ar  123   2.488   5.051   4.761
    1   AR   Ar  124   2.453   6.025   3.346
    1   AR   Ar  125   0.744   4.591   4.241
    1   AR   Ar  126   0.583   0.358   5.530
    1   AR   Ar  127   3.253   5.538   6.823
    1   AR   Ar  128   2.103   5.339   6.584
    1   AR   Ar  129   2.071   0.182   1.654
    1   AR   Ar  130   4.279   1.246  -1.859
    1   AR   Ar  131   4.847   6.907   1.388
    1   AR   Ar  132   0.156   2.290  -1.436
    1   AR   Ar  133   3.661   6.953   2.531
    1   AR   Ar  134   3.878   1.481   2.418
    1   AR   Ar  135   4.547   0.598   2.828
    1   AR   Ar  136   4.039   0.406   1.837
    1   AR   Ar  137   2.740   7.018   3.482
    1   AR   Ar  138   4.713   0.964   5.034
    1   AR   Ar  139   5.449   1.242   4.371
    1   AR   Ar  140   4.277   0.959   3.755
    1   AR   Ar  141   3.694   6.775   3.764
    1   AR   Ar  142   4.257   7.038   5.313
    1   AR   Ar  143   5.721   7.076   6.041
    1   AR   Ar  144   5.123   0.670   6.613
    1   AR   Ar  145   3.276   4.000   0.331
    1   AR   Ar  146   4.294   2.537   1.595
    1   AR   Ar  147   5.683   1.870  -0.225
    1   AR   Ar  148   5.583   3.725  -2.747
    1   AR   Ar  149   3.946   2.195   0.663
    1   AR   Ar  150   2.961   1.514   2.977
    1   AR   Ar  151   3.840   2.333   3.562
    1   AR   Ar  152   2.764   3.558   1.444
    1   AR   Ar  153   3.060   0.852   3.835
    1   AR   Ar  154   3.980   1.930   4.534
    1   AR   Ar  155   5.909   0.883   5.586
    1   AR   Ar  156   3.728   4.003   3.302
    1   AR   Ar  157   2.830   2.870   6.110
    1   AR   Ar  158   1.519   2.394   7.312
    1   AR   Ar  159   4.009   0.861   6.040
    1   AR   Ar  160   3.915   2.945   7.386
    1   AR   Ar  161   5.053   2.191   0.715
    1   AR   Ar  162   4.327   5.568  -0.449
    1   AR   Ar  163   5.358   3.530  -0.010
    1   AR   Ar  164   4.030   5.142   1.829
    1   AR   Ar  165   3.154   3.452   2.441
    1   AR   Ar  166   2.670   4.900   3.502
    1   AR   Ar  167   4.669   2.357   2.714
    1   AR   Ar  168   4.040   3.757  -0.749
    1   AR   Ar  169   2.925   2.952   3.330
    1   AR   Ar  170   3.143   4.230   4.882
    1   AR   Ar  171   4.252   3.714   4.570
    1   AR   Ar  172   4.625   5.206   4.304
    1   AR   Ar  173   2.111   3.214   6.835
    1   AR   Ar  174   4.403   4.900   6.286
    1   AR   Ar  175   3.902   3.276   6.016
    1   AR   Ar  176   3.878   5.068   5.446
    1   AR   Ar  177   5.654   5.776  -0.446
    1   AR   Ar  178   3.284   6.363   1.511
    1   AR   Ar  179   3.775   5.709   0.767
    1   AR   Ar  180   3.534   3.739  -1.893
    1   AR   Ar  181   2.508   5.643   1.645
    1   AR   Ar  182   2.699   6.734   2.407
    1   AR   Ar  183   3.467   4.590   2.564
    1   AR   Ar  184   4.179   6.279   2.124
    1   AR   Ar  185   1.539   5.480   4.575
    1   AR   Ar  186   3.332   5.762   3.875
    1   AR   Ar  187   4.384   5.896   3.048
    1   AR   Ar  188   3.266   5.746   2.485
    1   AR   Ar  189   2.853   4.850   5.853
    1   AR   Ar  190   4.274   6.122   5.810
    1   AR   Ar  191   5.058   5.528   5.306
    1   AR   Ar  192   3.769   6.261   4.646
    1   AR   Ar  193   6.684   6.308  -0.291
    1   AR   Ar  194   5.899   5.782  -1.462
    1   AR   Ar  195   6.033   0.474  -0.367
    1   AR   Ar  196   5.674   0.932  -1.246
    1   AR   Ar  197   5.136   0.876   0.866
    1   AR   Ar  198   6.041   1.736   1.507
    1   AR   Ar  199   5.490   0.841   2.000
    1   AR   Ar  200   6.471   1.207   0.391
    1   AR   Ar  201   4.669   6.815   3.325
    1   AR   Ar  202   5.189   2.215   4.180
    1   AR   Ar  203   0.201   6.488   4.684
    1   AR   Ar  204   5.155   0.429   3.794
    1   AR   Ar  205   6.264   0.100   3.080
    1   AR   Ar  206   5.415   0.214   4.934
    1   AR   Ar  207   6.808   0.566   5.968
    1   AR   Ar  208   7.091   0.782   4.088
    1   AR   Ar  209   5.049   2.213  -2.408
    1   AR   Ar  210   4.171   1.207   1.060
    1   AR   Ar  211   6.029   2.812   0.274
    1   AR   Ar  212   6.082   4.022  -1.817
    1   AR   Ar  213   3.368   2.351   2.466
    1   AR   Ar  214   4.187   3.267   2.603
    1   AR   Ar  215   5.776   2.175   2.585
    1   AR   Ar  216   6.650   2.814   1.872
    1   AR   Ar  217   4.587   3.280   3.581
    1   AR   Ar  218   4.475   2.610   5.165
    1   AR   Ar  219   5.013   1.541   3.317
    1   AR   Ar  220   5.246   3.437   2.630
    1   AR   Ar  221   6.715   0.271   4.896
    1   AR   Ar  222   5.122   1.495   5.929
    1   AR   Ar  223   6.567   1.038   6.942
    1   AR   Ar  224   5.664   2.120   5.158
    1   AR   Ar  225   5.401   4.858   0.078
    1   AR   Ar  226   4.858   4.387   2.477
    1   AR   Ar  227   6.597   4.841   0.041
    1   AR   Ar  228   5.714   5.577   0.684
    1   AR   Ar  229   5.953   4.382   0.946
    1   AR   Ar  230   4.417   4.860   3.357
    1   AR   Ar  231   6.590   2.730   3.191
    1   AR   Ar  232   4.452   3.346   0.648
    1   AR   Ar  233   6.255   2.440   4.263
    1   AR   Ar  234   6.418   3.674   4.329
    1   AR   Ar  235   0.214   2.906   4.157
    1   AR   Ar  236   5.431   4.318   4.078
    1   AR   Ar  237   5.475   3.240   4.270
    1   AR   Ar  238   4.788   4.391   5.451
    1   AR   Ar  239   6.085   4.207   9.079
    1   AR   Ar  240   0.234   4.387   5.172
    1   AR   Ar  241   0.082   0.274  -0.382
    1   AR   Ar  242   4.822   5.282   1.194
    1   AR   Ar  243   5.895   4.417   2.047
    1   AR   Ar  244   0.597   5.646  -0.603
    1   AR   Ar  245   5.281   6.405   2.531
    1   AR   Ar  246   6.038   6.323   1.647
    1   AR   Ar  247   5.665   3.004   1.460
    1   AR   Ar  248   6.053   6.559   0.575
    1   AR   Ar  249   5.389   5.355   2.653
    1   AR   Ar  250   4.927   6.262   4.268
    1   AR   Ar  251   5.880   5.160   4.690
    1   AR   Ar  252   5.602   6.301   3.457
    1   AR   Ar  253   5.677   4.830   5.791
    1   AR   Ar  254   5.043   5.582   6.627
    1   AR   Ar  255   5.159   4.279   6.817
    1   AR   Ar  256   6.158   6.183   4.730
    7.12000  7.12000 12.00000
Argon-slab step 1710
  256
    1   AR   Ar    1   6.808   1.205  -1.006
    1   AR   Ar    2   6.339   0.272   1.422
    1   AR   Ar    3   7.020   7.031   0.688
    1   AR   Ar    4   1.095   0.312   0.399
    1   AR   Ar    5   6.846   5.748   0.759
    1   AR   Ar    6   0.155   0.224   2.980
    1   AR   Ar    7   0.305   5.304   2.570
    1   AR   Ar    8   6.912   6.792   2.017
    1   AR   Ar    9   1.028   0.694   3.944
    1   AR   Ar   10   0.418   1.970   4.258
    1   AR   Ar   11   3.021   6.962   4.595
    1   AR   Ar   12   0.984   1.500   2.901
    1   AR   Ar   13   6.689   1.386   4.836
    1   AR   Ar   14   0.173   1.559   6.215
    1   AR   Ar   15   0.359   6.793   9.284
    1   AR   Ar   16   0.512   1.437   5.257
    1   AR   Ar   17   0.440   1.329  -0.131
    1   AR   Ar   18   6.038   3.593  -0.737
    1   AR   Ar   19   1.188   1.854   1.413
    1   AR   Ar   20   6.644   2.138  -2.585
    1   AR   Ar   21   6.201   1.230   2.533
    1   AR   Ar   22   0.003   1.816   2.100
    1   AR   Ar   23   0.069   1.066   1.452
    1   AR   Ar   24   0.158   2.243   0.976
    1   AR   Ar   25   0.009   1.249   3.094
    1   AR   Ar   26   6.281   1.488   3.754
    1   AR   Ar   27   1.910   1.191   3.418
    1   AR   Ar   28   1.215   2.581   4.980
    1   AR   Ar   29   5.967   2.079   6.232
    1   AR   Ar   30   0.556   2.835   6.101
    1   AR   Ar   31   0.273   0.324   6.781
    1   AR   Ar   32   1.651   2.792   5.931
    1   AR   Ar   33   1.114   4.397  -1.518
    1   AR   Ar   34   0.538   5.680   1.509
    1   AR   Ar   35   0.466   3.750   1.375
    1   AR   Ar   36   0.174   0.096  -1.669
    1   AR   Ar   37   0.309   3.225   2.499
    1   AR   Ar   38   7.012   4.423   2.321
    1   AR   Ar   39   1.308   4.210   2.169
    1   AR   Ar   40   1.756   3.831   1.027
    1   AR   Ar   41   0.844   2.508   3.342
    1   AR   Ar   42   6.756   5.603   5.259
    1   AR   Ar   43   6.681   2.459   5.368
    1   AR   Ar   44   0.594   3.888   3.543
    1   AR   Ar   45   0.888   3.646   5.504
    1   AR   Ar   46   0.253   5.765   6.420
    1   AR   Ar   47   5.901   3.843   5.631
    1   AR   Ar   48   6.400   6.722   6.859
    1   AR   Ar   49   6.855   5.406  -1.708
    1   AR   Ar   50   6.588   5.154   1.786
    1   AR   Ar   51   1.742   4.976   1.351
    1   AR   Ar   52   7.112   4.580  -1.015
    1   AR   Ar   53   6.389   6.058   2.712
    1   AR   Ar   54   0.135   6.384   3.556
    1   AR   Ar   55   6.343   4.952   2.948
    1   AR   Ar   56   1.094   6.540   1.064
    1   AR   Ar   57   6.342   3.609   2.766
    1   AR   Ar   58   6.919   5.531   4.219
    1   AR   Ar   59   1.802   5.862   5.421
    1   AR   Ar   60   1.175   6.440   4.085
    1   AR   Ar   61   5.980   6.016   5.765
    1   AR   Ar   62   0.693   5.852   5.375
    1   AR   Ar   63   1.507   6.377   6.493
    1   AR   Ar   64   1.574   0.013   4.890
    1   AR   Ar   65   3.020   0.058  -0.172
    1   AR   Ar   66   1.620   0.953   1.003
    1   AR   Ar   67   3.317   6.217  -0.890
    1   AR   Ar   68   3.249   0.947  -1.235
    1   AR   Ar   69   2.095   0.235   0.379
    1   AR   Ar   70   0.973   0.338   1.544
    1   AR   Ar   71   2.976   0.674   2.310
    1   AR   Ar   72   3.164   0.245   1.268
    1   AR   Ar   73   1.551   0.250   3.222
    1   AR   Ar   74   1.316   1.462   4.541
    1   AR   Ar   75   3.723   0.650   4.651
    1   AR   Ar   76   1.834   1.074   2.318
    1   AR   Ar   77   2.158   6.914   5.978
    1   AR   Ar   78   1.524   0.575   5.857
    1   AR   Ar   79   4.034   6.342   6.931
    1   AR   Ar   80   3.271   5.837   5.896
    1   AR   Ar   81   1.487   1.723   0.085
    1   AR   Ar   82   0.251   3.611  -0.583
    1   AR   Ar   83   2.697   2.598   0.503
    1   AR   Ar   84   1.501   4.026  -2.906
    1   AR   Ar   85   0.766   2.642  -0.515
    1   AR   Ar   86   1.742   3.312   2.157
    1   AR   Ar   87   2.238   2.330   1.948
    1   AR   Ar   88   3.646   4.503   1.181
    1   AR   Ar   89   1.127   2.355   2.309
    1   AR   Ar   90   2.750   1.757   4.390
    1   AR   Ar   91   1.829   2.282   4.216
    1   AR   Ar   92   1.997   2.126   3.009
    1   AR   Ar   93   2.251   2.103   5.384
    1   AR   Ar   94   2.527   0.830   7.619
    1   AR   Ar   95   3.231   7.011   5.762
    1   AR   Ar   96   2.797   0.841   5.502
    1   AR   Ar   97   3.856   2.785  -1.255
    1   AR   Ar   98   2.597   4.554   1.624
    1   AR   Ar   99   6.052   2.549  -1.334
    1   AR   Ar  100   1.632   4.194  -0.438
    1   AR   Ar  101   1.441   2.661   0.441
    1   AR   Ar  102   2.632   3.985   3.969
    1   AR   Ar  103   0.780   4.116   0.249
    1   AR   Ar  104   2.844   3.615  -0.845
    1   AR   Ar  105   1.468   3.249   3.408
    1   AR   Ar  106   2.490   3.087   4.879
    1   AR   Ar  107   1.877   4.079   5.014
    1   AR   Ar  108   3.464   3.349   4.052
    1   AR   Ar  109   1.634   4.122   3.910
    1   AR   Ar  110   1.490   4.831   5.527
    1   AR   Ar  111   4.336   5.303   7.449
    1   AR   Ar  112   1.099   4.796   6.760
    1   AR   Ar  113   2.399   4.578   0.408
    1   AR   Ar  114   2.471   6.225   0.509
    1   AR   Ar  115   3.176   4.475  -0.560
    1   AR   Ar  116   4.730   6.637   0.360
    1   AR   Ar  117   0.582   5.516   3.595
    1   AR   Ar  118   0.815   6.603   2.825
    1   AR   Ar  119   2.376   4.094   2.696
    1   AR   Ar  120   1.309   5.191   2.222
    1   AR   Ar  121   6.838   4.461   3.924
    1   AR   Ar  122   2.514   6.130   4.626
    1   AR   Ar  123   2.480   5.035   4.769
    1   AR   Ar  124   2.453   6.017   3.330
    1   AR   Ar  125   0.743   4.624   4.253
    1   AR   Ar  126   0.567   0.395   5.517
    1   AR   Ar  127   3.265   5.530   6.810
    1   AR   Ar  128   2.117   5.328   6.589
    1   AR   Ar  129   2.096   0.205   1.674
    1   AR   Ar  130   4.281   1.265  -1.865
    1   AR   Ar  131   4.868   6.925   1.404
    1   AR   Ar  132   0.178   2.273  -1.441
    1   AR   Ar  133   3.689   6.961   2.563
    1   AR   Ar  134   3.860   1.463   2.428
    1   AR   Ar  135   4.540   0.589   2.850
    1   AR   Ar  136   4.021   0.431   1.847
    1   AR   Ar  137   2.700   7.036   3.502
    1   AR   Ar  138   4.700   0.979   5.075
    1   AR   Ar  139   5.478   1.254   4.378
    1   AR   Ar  140   4.261   0.978   3.707
    1   AR   Ar  141   3.701   6.790   3.772
    1   AR   Ar  142   4.225   7.040   5.283
    1   AR   Ar  143   5.708   7.029   6.043
    1   AR   Ar  144   5.124   0.677   6.596
    1   AR   Ar  145   3.283   4.004   0.343
    1   AR   Ar  146   4.295   2.530   1.639
    1   AR   Ar  147   5.697   1.913  -0.239
    1   AR   Ar  148   5.602   3.730  -2.758
    1   AR   Ar  149   3.953   2.220   0.668
    1   AR   Ar  150   2.944   1.513   2.971
    1   AR   Ar  151   3.814   2.299   3.571
    1   AR   Ar  152   2.749   3.569   1.431
    1   AR   Ar  153   3.074   0.801   3.822
    1   AR   Ar  154   3.962   1.914   4.493
    1   AR   Ar  155   5.872   0.875   5.603
    1   AR   Ar  156   3.718   3.998   3.337
    1   AR   Ar  157   2.793   2.898   6.127
    1   AR   Ar  158   1.498   2.412   7.320
    1   AR   Ar  159   3.976   0.877   6.040
    1   AR   Ar  160   3.914   2.915   7.418
    1   AR   Ar  161   5.046   2.188   0.703
    1   AR   Ar  162   4.314   5.579  -0.454
    1   AR   Ar  163   5.358   3.539  -0.024
    1   AR   Ar  164   4.033   5.153   1.817
    1   AR   Ar  165   3.143   3.418   2.427
    1   AR   Ar  166   2.663   4.933   3.516
    1   AR   Ar  167   4.685   2.344   2.673
    1   AR   Ar  168   4.006   3.746  -0.723
    1   AR   Ar  169   2.921   2.979   3.277
    1   AR   Ar  170   3.138   4.197   4.868
    1   AR   Ar  171   4.269   3.707   4.545
    1   AR   Ar  172   4.606   5.235   4.334
    1   AR   Ar  173   2.095   3.220   6.848
    1   AR   Ar  174   4.388   4.891   6.250
    1   AR   Ar  175   3.864   3.264   6.001
    1   AR   Ar  176   3.880   5.050   5.455
    1   AR   Ar  177   5.663   5.780  -0.415
    1   AR   Ar  178   3.251   6.364   1.509
    1   AR   Ar  179   3.769   5.727   0.740
    1   AR   Ar  180   3.514   3.736  -1.918
    1   AR   Ar  181   2.507   5.623   1.628
    1   AR   Ar  182   2.710   6.720   2.384
    1   AR   Ar  183   3.464   4.605   2.559
    1   AR   Ar  184   4.148   6.249   2.102
    1   AR   Ar  185   1.529   5.486   4.567
    1   AR   Ar  186   3.314   5.743   3.910
    1   AR   Ar  187   4.369   5.918   3.066
    1   AR   Ar  188   3.236   5.745   2.469
    1   AR   Ar  189   2.857   4.885   5.860
    1   AR   Ar  190   4.256   6.130   5.814
    1   AR   Ar  191   5.054   5.526   5.311
    1   AR   Ar  192   3.792   6.248   4.684
    1   AR   Ar  193   6.707   6.331  -0.274
    1   AR   Ar  194   5.877   5.760  -1.430
    1   AR   Ar  195   6.021   0.503  -0.350
    1   AR   Ar  196   5.642   0.930  -1.213
    1   AR   Ar  197   5.137   0.893   0.865
    1   AR   Ar  198   6.010   1.741   1.490
    1   AR   Ar  199   5.496   0.855   1.985
    1   AR   Ar  200   6.465   1.229   0.391
    1   AR   Ar  201   4.658   6.800   3.308
    1   AR   Ar  202   5.174   2.212   4.182
    1   AR   Ar  203   0.154   6.501   4.701
    1   AR   Ar  204   5.133   0.413   3.819
    1   AR   Ar  205   6.257   0.096   3.063
    1   AR   Ar  206   5.363   0.194   4.926
    1   AR   Ar  207   6.789   0.558   5.960
    1   AR   Ar  208   7.108   0.789   4.069
    1   AR   Ar  209   5.083   2.238  -2.421
    1   AR   Ar  210   4.147   1.194   1.046
    1   AR   Ar  211   6.020   2.813   0.242
    1   AR   Ar  212   6.100   4.012  -1.830
    1   AR   Ar  213   3.375   2.351   2.465
    1   AR   Ar  214   4.150   3.290   2.611
    1   AR   Ar  215   5.774   2.196   2.587
    1   AR   Ar  216   6.677   2.794   1.882
    1   AR   Ar  217   4.592   3.278   3.561
    1   AR   Ar  218   4.463   2.664   5.170
    1   AR   Ar  219   4.988   1.537   3.321
    1   AR   Ar  220   5.244   3.443   2.629
    1   AR   Ar  221   6.726   0.264   4.891
    1   AR   Ar  222   5.117   1.504   5.937
    1   AR   Ar  223   6.605   1.036   6.946
    1   AR   Ar  224   5.664   2.131   5.179
    1   AR   Ar  225   5.405   4.855   0.085
    1   AR   Ar  226   4.852   4.366   2.487
    1   AR   Ar  227   6.545   4.859   0.043
    1   AR   Ar  228   5.681   5.580   0.708
    1   AR   Ar  229   5.959   4.388   0.904
    1   AR   Ar  230   4.425   4.855   3.322
    1   AR   Ar  231   6.605   2.706   3.209
    1   AR   Ar  232   4.440   3.346   0.620
    1   AR   Ar  233   6.298   2.420   4.257
    1   AR   Ar  234   6.426   3.681   4.320
    1   AR   Ar  235   0.236   2.919   4.146
    1   AR   Ar  236   5.429   4.296   4.081
    1   AR   Ar  237   5.490   3.235   4.259
    1   AR   Ar  238   4.754   4.393   5.427
    1   AR   Ar  239   6.065   4.190   9.105
    1   AR   Ar  240   0.241   4.368   5.155
    1   AR   Ar  241   0.050   0.290  -0.416
    1   AR   Ar  242   4.829   5.257   1.207
    1   AR   Ar  243   5.901   4.435   2.047
    1   AR   Ar  244   0.565   5.639  -0.591
    1   AR   Ar  245   5.276   6.473   2.513
    1   AR   Ar  246   5.996   6.282   1.653
    1   AR   Ar  247   5.635   3.013   1.458
    1   AR   Ar  248   6.053   6.577   0.554
    1   AR   Ar  249   5.419   5.393   2.652
    1   AR   Ar  250   4.921   6.265   4.286
    1   AR   Ar  251   5.870   5.155   4.676
    1   AR   Ar  252   5.621   6.301   3.461
    1   AR   Ar  253   5.681   4.836   5.812
    1   AR   Ar  254   5.058   5.560   6.643
    1   AR   Ar  255   5.138   4.294   6.794
    1   AR   Ar  256   6.162   6.213   4.714
    7.12000  7.12000 12.00000
Argon-slab step 1715
  256
    1   AR   Ar    1   6.857   1.232  -0.977
    1   AR   Ar    2   6.340   0.257   1.404
    1   AR   Ar    3   7.017   7.048   0.697
    1   AR   Ar    4   1.081   0.270   0.371
    1   AR   Ar    5   6.804   5.734   0.776
    1   AR   Ar    6   0.143   0.207   2.949
    1   AR   Ar    7   0.322   5.277   2.568
    1   AR   Ar    8   6.921   6.771   2.044
    1   AR   Ar    9   1.054   0.694   3.958
    1   AR   Ar   10   0.437   1.952   4.272
    1   AR   Ar   11   3.049   6.954   4.607
    1   AR   Ar   12   1.000   1.531   2.892
    1   AR   Ar   13   6.667   1.376   4.827
    1   AR   Ar   14   0.144   1.567   6.205
    1   AR   Ar   15   0.352   6.829   9.324
    1   AR   Ar   16   0.487   1.417   5.255
    1   AR   Ar   17   0.419   1.327  -0.124
    1   AR   Ar   18   6.043   3.602  -0.739
    1   AR   Ar   19   1.188   1.832   1.426
    1   AR   Ar   20   6.633   2.133  -2.571
    1   AR   Ar   21   6.196   1.219   2.539
    1   AR   Ar   22   0.016   1.792   2.119
    1   AR   Ar   23   0.033   1.087   1.465
    1   AR   Ar   24   0.165   2.257   0.984
    1   AR   Ar   25   0.012   1.248   3.089
    1   AR   Ar   26   6.279   1.491   3.722
    1   AR   Ar   27   1.867   1.179   3.427
    1   AR   Ar   28   1.237   2.605   4.961
    1   AR   Ar   29   5.974   2.055   6.220
    1   AR   Ar   30   0.545   2.830   6.095
    1   AR   Ar   31   0.287   0.328   6.793
    1   AR   Ar   32   1.674   2.822   5.939
    1   AR   Ar   33   1.108   4.415  -1.517
    1   AR   Ar   34   0.542   5.721   1.557
    1   AR   Ar   35   0.472   3.738   1.371
    1   AR   Ar   36   0.165   0.076  -1.686
    1   AR   Ar   37   0.296   3.247   2.504
    1   AR   Ar   38   7.019   4.400   2.305
    1   AR   Ar   39   1.295   4.203   2.154
    1   AR   Ar   40   1.729   3.823   1.020
    1   AR   Ar   41   0.853   2.501   3.293
    1   AR   Ar   42   6.769   5.632   5.272
    1   AR   Ar   43   6.692   2.444   5.383
    1   AR   Ar   44   0.613   3.868   3.544
    1   AR   Ar   45   0.884   3.644   5.506
    1   AR   Ar   46   0.253   5.782   6.400
    1   AR   Ar   47   5.900   3.837   5.649
    1   AR   Ar   48   6.399   6.739   6.852
    1   AR   Ar   49   6.868   5.427  -1.739
    1   AR   Ar   50   6.591   5.168   1.793
    1   AR   Ar   51   1.771   4.993   1.364
    1   AR   Ar   52   7.105   4.553  -0.991
    1   AR   Ar   53   6.373   6.074   2.680
    1   AR   Ar   54   0.122   6.360   3.587
    1   AR   Ar   55   6.342   4.941   2.947
    1   AR   Ar   56   1.084   6.551   1.048
    1   AR   Ar   57   6.336   3.603   2.758
    1   AR   Ar   58   6.892   5.579   4.247
    1   AR   Ar   59   1.788   5.848   5.433
    1   AR   Ar   60   1.164   6.433   4.089
    1   AR   Ar   61   5.972   6.034   5.735
    1   AR   Ar   62   0.694   5.863   5.377
    1   AR   Ar   63   1.520   6.407   6.539
    1   AR   Ar   64   1.559   0.006   4.878
    1   AR   Ar   65   3.038   0.036  -0.146
    1   AR   Ar   66   1.653   0.965   1.005
    1   AR   Ar   67   3.329   6.231  -0.907
    1   AR   Ar   68   3.254   0.977  -1.249
    1   AR   Ar   69   2.129   0.200   0.388
    1   AR   Ar   70   0.932   0.345   1.531
    1   AR   Ar   71   2.993   0.685   2.309
    1   AR   Ar   72   3.143   0.272   1.267
    1   AR   Ar   73   1.554   0.244   3.199
    1   AR   Ar   74   1.324   1.465   4.536
    1   AR   Ar   75   3.734   0.636   4.656
    1   AR   Ar   76   1.840   1.095   2.307
    1   AR   Ar   77   2.175   6.906   5.965
    1   AR   Ar   78   1.522   0.553   5.899
    1   AR   Ar   79   4.045   6.361   6.922
    1   AR   Ar   80   3.294   5.832   5.879
    1   AR   Ar   81   1.533   1.706   0.094
    1   AR   Ar   82   0.265   3.633  -0.581
    1   AR   Ar   83   2.691   2.610   0.492
    1   AR   Ar   84   1.480   4.032  -2.897
    1   AR   Ar   85   0.762   2.621  -0.520
    1   AR   Ar   86   1.734   3.307   2.134
    1   AR   Ar   87   2.249   2.330   1.948
    1   AR   Ar   88   3.671   4.463   1.199
    1   AR   Ar   89   1.101   2.391   2.298
    1   AR   Ar   90   2.763   1.752   4.401
    1   AR   Ar   91   1.819   2.298   4.209
    1   AR   Ar   92   1.987   2.136   2.992
    1   AR   Ar   93   2.216   2.098   5.407
    1   AR   Ar   94   2.504   0.842   7.637
    1   AR   Ar   95   3.226   7.005   5.741
    1   AR   Ar   96   2.774   0.823   5.516
    1   AR   Ar   97   3.849   2.760  -1.289
    1   AR   Ar   98   2.588   4.590   1.623
    1   AR   Ar   99   6.078   2.568  -1.331
    1   AR   Ar  100   1.655   4.180  -0.436
    1   AR   Ar  101   1.430   2.664   0.430
    1   AR   Ar  102   2.652   3.960   3.997
    1   AR   Ar  103   0.738   4.143   0.230
    1   AR   Ar  104   2.856   3.583  -0.829
    1   AR   Ar  105   1.476   3.237   3.398
    1   AR   Ar  106   2.509   3.082   4.894
    1   AR   Ar  107   1.871   4.096   5.005
    1   AR   Ar  108   3.467   3.374   4.042
    1   AR   Ar  109   1.598   4.133   3.904
    1   AR   Ar  110   1.483   4.843   5.495
    1   AR   Ar  111   4.329   5.326   7.416
    1   AR   Ar  112   1.088   4.792   6.756
    1   AR   Ar  113   2.373   4.560   0.401
    1   AR   Ar  114   2.488   6.186   0.512
    1   AR   Ar  115   3.181   4.447  -0.580
    1   AR   Ar  116   4.721   6.636   0.354
    1   AR   Ar  117   0.581   5.523   3.606
    1   AR   Ar  118   0.809   6.581   2.827
    1   AR   Ar  119   2.382   4.043   2.693
    1   AR   Ar  120   1.319   5.197   2.227
    1   AR   Ar  121   6.865   4.480   3.929
    1   AR   Ar  122   2.481   6.117   4.616
    1   AR   Ar  123   2.473   5.019   4.778
    1   AR   Ar  124   2.452   6.007   3.312
    1   AR   Ar  125   0.744   4.663   4.269
    1   AR   Ar  126   0.552   0.427   5.499
    1   AR   Ar  127   3.278   5.515   6.811
    1   AR   Ar  128   2.132   5.318   6.593
    1   AR   Ar  129   2.082   0.153   1.649
    1   AR   Ar  130   4.253   1.256  -1.924
    1   AR   Ar  131   4.890   6.943   1.423
    1   AR   Ar  132   0.199   2.256  -1.445
    1   AR   Ar  133   3.710   6.975   2.615
    1   AR   Ar  134   3.849   1.437   2.438
    1   AR   Ar  135   4.536   0.579   2.857
    1   AR   Ar  136   4.010   0.463   1.852
    1   AR   Ar  137   2.655   7.052   3.519
    1   AR   Ar  138   4.683   0.996   5.117
    1   AR   Ar  139   5.532   1.257   4.405
    1   AR   Ar  140   4.229   1.000   3.675
    1   AR   Ar  141   3.711   6.806   3.777
    1   AR   Ar  142   4.195   7.045   5.253
    1   AR   Ar  143   5.694   6.982   6.044
    1   AR   Ar  144   5.127   0.683   6.579
    1   AR   Ar  145   3.292   4.000   0.356
    1   AR   Ar  146   4.296   2.523   1.686
    1   AR   Ar  147   5.710   1.954  -0.255
    1   AR   Ar  148   5.621   3.735  -2.770
    1   AR   Ar  149   3.958   2.247   0.670
    1   AR   Ar  150   2.923   1.512   2.968
    1   AR   Ar  151   3.788   2.269   3.570
    1   AR   Ar  152   2.754   3.564   1.394
    1   AR   Ar  153   3.091   0.756   3.808
    1   AR   Ar  154   3.950   1.898   4.468
    1   AR   Ar  155   5.835   0.869   5.616
    1   AR   Ar  156   3.716   3.997   3.335
    1   AR   Ar  157   2.773   2.908   6.118
    1   AR   Ar  158   1.476   2.430   7.327
    1   AR   Ar  159   3.943   0.892   6.038
    1   AR   Ar  160   3.910   2.892   7.440
    1   AR   Ar  161   5.041   2.184   0.692
    1   AR   Ar  162   4.301   5.591  -0.458
    1   AR   Ar  163   5.346   3.552  -0.029
    1   AR   Ar  164   4.019   5.156   1.809
    1   AR   Ar  165   3.132   3.391   2.401
    1   AR   Ar  166   2.657   4.968   3.530
    1   AR   Ar  167   4.682   2.342   2.647
    1   AR   Ar  168   3.971   3.735  -0.695
    1   AR   Ar  169   2.910   2.998   3.232
    1   AR   Ar  170   3.135   4.163   4.857
    1   AR   Ar  171   4.292   3.704   4.524
    1   AR   Ar  172   4.587   5.263   4.366
    1   AR   Ar  173   2.077   3.227   6.862
    1   AR   Ar  174   4.377   4.879   6.233
    1   AR   Ar  175   3.826   3.253   5.985
    1   AR   Ar  176   3.872   5.036   5.445
    1   AR   Ar  177   5.672   5.785  -0.378
    1   AR   Ar  178   3.219   6.363   1.506
    1   AR   Ar  179   3.764   5.745   0.714
    1   AR   Ar  180   3.493   3.732  -1.940
    1   AR   Ar  181   2.507   5.607   1.611
    1   AR   Ar  182   2.716   6.704   2.362
    1   AR   Ar  183   3.435   4.576   2.556
    1   AR   Ar  184   4.129   6.209   2.068
    1   AR   Ar  185   1.519   5.521   4.568
    1   AR   Ar  186   3.295   5.723   3.942
    1   AR   Ar  187   4.351   5.925   3.066
    1   AR   Ar  188   3.208   5.743   2.454
    1   AR   Ar  189   2.868   4.925   5.861
    1   AR   Ar  190   4.242   6.134   5.818
    1   AR   Ar  191   5.048   5.525   5.315
    1   AR   Ar  192   3.819   6.232   4.728
    1   AR   Ar  193   6.731   6.353  -0.258
    1   AR   Ar  194   5.855   5.738  -1.401
    1   AR   Ar  195   6.016   0.495  -0.347
    1   AR   Ar  196   5.608   0.931  -1.184
    1   AR   Ar  197   5.143   0.910   0.864
    1   AR   Ar  198   5.980   1.746   1.472
    1   AR   Ar  199   5.486   0.867   1.954
    1   AR   Ar  200   6.460   1.252   0.392
    1   AR   Ar  201   4.648   6.794   3.296
    1   AR   Ar  202   5.156   2.213   4.183
    1   AR   Ar  203   0.135   6.495   4.712
    1   AR   Ar  204   5.117   0.399   3.847
    1   AR   Ar  205   6.225   0.089   3.051
    1   AR   Ar  206   5.314   0.169   4.918
    1   AR   Ar  207   6.765   0.550   5.953
    1   AR   Ar  208   0.004   0.796   4.047
    1   AR   Ar  209   5.116   2.263  -2.434
    1   AR   Ar  210   4.120   1.182   1.034
    1   AR   Ar  211   6.015   2.812   0.214
    1   AR   Ar  212   6.119   4.002  -1.839
    1   AR   Ar  213   3.380   2.359   2.464
    1   AR   Ar  214   4.114   3.313   2.615
    1   AR   Ar  215   5.772   2.221   2.589
    1   AR   Ar  216   6.702   2.774   1.891
    1   AR   Ar  217   4.602   3.277   3.564
    1   AR   Ar  218   4.452   2.720   5.173
    1   AR   Ar  219   4.972   1.537   3.322
    1   AR   Ar  220   5.246   3.442   2.629
    1   AR   Ar  221   6.718   0.289   4.873
    1   AR   Ar  222   5.101   1.507   5.901
    1   AR   Ar  223   6.641   1.035   6.950
    1   AR   Ar  224   5.663   2.141   5.197
    1   AR   Ar  225   5.391   4.843   0.087
    1   AR   Ar  226   4.844   4.350   2.493
    1   AR   Ar  227   6.492   4.879   0.045
    1   AR   Ar  228   5.655   5.591   0.737
    1   AR   Ar  229   5.965   4.394   0.863
    1   AR   Ar  230   4.432   4.851   3.288
    1   AR   Ar  231   6.623   2.677   3.228
    1   AR   Ar  232   4.428   3.344   0.591
    1   AR   Ar  233   6.342   2.402   4.253
    1   AR   Ar  234   6.430   3.675   4.318
    1   AR   Ar  235   0.254   2.948   4.133
    1   AR   Ar  236   5.428   4.276   4.084
    1   AR   Ar  237   5.501   3.227   4.249
    1   AR   Ar  238   4.723   4.392   5.398
    1   AR   Ar  239   6.044   4.172   9.132
    1   AR   Ar  240   0.244   4.353   5.138
    1   AR   Ar  241   0.018   0.307  -0.448
    1   AR   Ar  242   4.839   5.233   1.217
    1   AR   Ar  243   5.902   4.449   2.050
    1   AR   Ar  244   0.531   5.632  -0.579
    1   AR   Ar  245   5.270   6.541   2.487
    1   AR   Ar  246   5.954   6.240   1.658
    1   AR   Ar  247   5.604   3.021   1.455
    1   AR   Ar  248   6.052   6.597   0.533
    1   AR   Ar  249   5.447   5.432   2.650
    1   AR   Ar  250   4.913   6.271   4.306
    1   AR   Ar  251   5.860   5.148   4.662
    1   AR   Ar  252   5.643   6.299   3.470
    1   AR   Ar  253   5.686   4.847   5.835
    1   AR   Ar  254   5.077   5.541   6.658
    1   AR   Ar  255   5.117   4.309   6.770
    1   AR   Ar  256   6.160   6.251   4.693
    7.12000  7.12000 12.00000
Argon-slab step 1720
  256
    1   AR   Ar    1   6.905   1.260  -0.949
    1   AR   Ar    2   6.334   0.245   1.387
    1   AR   Ar    3   7.020   7.065   0.702
    1   AR   Ar    4   1.061   0.229   0.342
    1   AR   Ar    5   6.761   5.721   0.793
    1   AR   Ar    6   0.129   0.194   2.920
    1   AR   Ar    7   0.337   5.259   2.569
    1   AR   Ar    8   6.933   6.749   2.071
    1   AR   Ar    9   1.075   0.688   3.973
    1   AR   Ar   10   0.453   1.930   4.285
    1   AR   Ar   11   3.077   6.953   4.620
    1   AR   Ar   12   1.018   1.558   2.883
    1   AR   Ar   13   6.648   1.371   4.826
    1   AR   Ar   14   0.112   1.575   6.199
    1   AR   Ar   15   0.344   6.865   9.365
    1   AR   Ar   16   0.466   1.402   5.247
    1   AR   Ar   17   0.397   1.325  -0.116
    1   AR   Ar   18   6.057   3.611  -0.748
    1   AR   Ar   19   1.188   1.810   1.437
    1   AR   Ar   20   6.622   2.128  -2.555
    1   AR   Ar   21   6.200   1.210   2.552
    1   AR   Ar   22   0.029   1.782   2.151
    1   AR   Ar   23   7.116   1.095   1.464
    1   AR   Ar   24   0.172   2.269   0.994
    1   AR   Ar   25   0.014   1.251   3.083
    1   AR   Ar   26   6.278   1.493   3.686
    1   AR   Ar   27   1.829   1.171   3.439
    1   AR   Ar   28   1.252   2.632   4.947
    1   AR   Ar   29   5.985   2.031   6.210
    1   AR   Ar   30   0.528   2.821   6.091
    1   AR   Ar   31   0.304   0.324   6.803
    1   AR   Ar   32   1.692   2.842   5.954
    1   AR   Ar   33   1.108   4.427  -1.515
    1   AR   Ar   34   0.545   5.761   1.606
    1   AR   Ar   35   0.479   3.726   1.369
    1   AR   Ar   36   0.155   0.056  -1.701
    1   AR   Ar   37   0.286   3.272   2.511
    1   AR   Ar   38   7.029   4.364   2.289
    1   AR   Ar   39   1.277   4.194   2.139
    1   AR   Ar   40   1.702   3.815   1.013
    1   AR   Ar   41   0.849   2.485   3.242
    1   AR   Ar   42   6.789   5.654   5.287
    1   AR   Ar   43   6.705   2.427   5.397
    1   AR   Ar   44   0.627   3.847   3.542
    1   AR   Ar   45   0.886   3.640   5.507
    1   AR   Ar   46   0.253   5.799   6.379
    1   AR   Ar   47   5.896   3.823   5.683
    1   AR   Ar   48   6.399   6.756   6.843
    1   AR   Ar   49   6.881   5.447  -1.768
    1   AR   Ar   50   6.593   5.193   1.795
    1   AR   Ar   51   1.786   5.003   1.374
    1   AR   Ar   52   7.097   4.530  -0.969
    1   AR   Ar   53   6.359   6.089   2.649
    1   AR   Ar   54   0.096   6.365   3.588
    1   AR   Ar   55   6.343   4.930   2.948
    1   AR   Ar   56   1.053   6.541   1.066
    1   AR   Ar   57   6.331   3.599   2.748
    1   AR   Ar   58   6.860   5.624   4.273
    1   AR   Ar   59   1.781   5.844   5.463
    1   AR   Ar   60   1.150   6.428   4.092
    1   AR   Ar   61   5.958   6.049   5.709
    1   AR   Ar   62   0.712   5.861   5.362
    1   AR   Ar   63   1.528   6.432   6.588
    1   AR   Ar   64   1.544   7.118   4.867
    1   AR   Ar   65   3.058   0.013  -0.120
    1   AR   Ar   66   1.688   0.978   1.008
    1   AR   Ar   67   3.350   6.243  -0.927
    1   AR   Ar   68   3.260   1.007  -1.264
    1   AR   Ar   69   2.166   0.163   0.399
    1   AR   Ar   70   0.889   0.356   1.521
    1   AR   Ar   71   3.009   0.693   2.307
    1   AR   Ar   72   3.120   0.301   1.263
    1   AR   Ar   73   1.553   0.212   3.211
    1   AR   Ar   74   1.335   1.469   4.539
    1   AR   Ar   75   3.745   0.618   4.664
    1   AR   Ar   76   1.846   1.116   2.296
    1   AR   Ar   77   2.188   6.898   5.940
    1   AR   Ar   78   1.517   0.538   5.940
    1   AR   Ar   79   4.040   6.352   6.903
    1   AR   Ar   80   3.311   5.838   5.850
    1   AR   Ar   81   1.578   1.682   0.102
    1   AR   Ar   82   0.280   3.627  -0.603
    1   AR   Ar   83   2.679   2.609   0.495
    1   AR   Ar   84   1.498   4.037  -2.901
    1   AR   Ar   85   0.758   2.599  -0.524
    1   AR   Ar   86   1.731   3.294   2.110
    1   AR   Ar   87   2.259   2.329   1.948
    1   AR   Ar   88   3.693   4.417   1.215
    1   AR   Ar   89   1.076   2.432   2.284
    1   AR   Ar   90   2.778   1.746   4.412
    1   AR   Ar   91   1.829   2.308   4.187
    1   AR   Ar   92   1.975   2.149   2.975
    1   AR   Ar   93   2.184   2.091   5.425
    1   AR   Ar   94   2.481   0.854   7.655
    1   AR   Ar   95   3.224   6.995   5.720
    1   AR   Ar   96   2.751   0.806   5.527
    1   AR   Ar   97   3.842   2.737  -1.323
    1   AR   Ar   98   2.601   4.611   1.630
    1   AR   Ar   99   6.104   2.588  -1.327
    1   AR   Ar  100   1.678   4.167  -0.435
    1   AR   Ar  101   1.418   2.673   0.422
    1   AR   Ar  102   2.662   3.936   4.017
    1   AR   Ar  103   0.697   4.170   0.213
    1   AR   Ar  104   2.862   3.533  -0.816
    1   AR   Ar  105   1.496   3.232   3.386
    1   AR   Ar  106   2.527   3.079   4.907
    1   AR   Ar  107   1.872   4.101   4.987
    1   AR   Ar  108   3.464   3.378   4.026
    1   AR   Ar  109   1.584   4.132   3.903
    1   AR   Ar  110   1.469   4.863   5.470
    1   AR   Ar  111   4.320   5.349   7.382
    1   AR   Ar  112   1.084   4.788   6.758
    1   AR   Ar  113   2.350   4.562   0.398
    1   AR   Ar  114   2.505   6.148   0.518
    1   AR   Ar  115   3.191   4.440  -0.596
    1   AR   Ar  116   4.713   6.633   0.349
    1   AR   Ar  117   0.594   5.513   3.615
    1   AR   Ar  118   0.811   6.552   2.826
    1   AR   Ar  119   2.385   3.996   2.691
    1   AR   Ar  120   1.327   5.215   2.240
    1   AR   Ar  121   6.894   4.507   3.930
    1   AR   Ar  122   2.445   6.099   4.605
    1   AR   Ar  123   2.465   5.004   4.786
    1   AR   Ar  124   2.450   5.998   3.294
    1   AR   Ar  125   0.748   4.705   4.286
    1   AR   Ar  126   0.540   0.452   5.478
    1   AR   Ar  127   3.289   5.501   6.825
    1   AR   Ar  128   2.145   5.309   6.594
    1   AR   Ar  129   2.067   0.102   1.622
    1   AR   Ar  130   4.225   1.246  -1.982
    1   AR   Ar  131   4.912   6.962   1.444
    1   AR   Ar  132   0.218   2.238  -1.448
    1   AR   Ar  133   3.728   6.989   2.677
    1   AR   Ar  134   3.843   1.406   2.448
    1   AR   Ar  135   4.536   0.570   2.847
    1   AR   Ar  136   4.004   0.498   1.854
    1   AR   Ar  137   2.674   7.060   3.524
    1   AR   Ar  138   4.683   0.997   5.125
    1   AR   Ar  139   5.585   1.256   4.437
    1   AR   Ar  140   4.180   1.023   3.661
    1   AR   Ar  141   3.719   6.822   3.783
    1   AR   Ar  142   4.172   7.053   5.225
    1   AR   Ar  143   5.679   6.940   6.045
    1   AR   Ar  144   5.129   0.687   6.562
    1   AR   Ar  145   3.301   3.990   0.369
    1   AR   Ar  146   4.295   2.517   1.730
    1   AR   Ar  147   5.723   1.988  -0.272
    1   AR   Ar  148   5.640   3.738  -2.782
    1   AR   Ar  149   3.972   2.244   0.677
    1   AR   Ar  150   2.899   1.512   2.970
    1   AR   Ar  151   3.774   2.258   3.558
    1   AR   Ar  152   2.760   3.557   1.355
    1   AR   Ar  153   3.106   0.741   3.808
    1   AR   Ar  154   3.958   1.897   4.489
    1   AR   Ar  155   5.800   0.862   5.623
    1   AR   Ar  156   3.746   4.026   3.293
    1   AR   Ar  157   2.754   2.917   6.106
    1   AR   Ar  158   1.454   2.448   7.334
    1   AR   Ar  159   3.912   0.905   6.033
    1   AR   Ar  160   3.903   2.890   7.434
    1   AR   Ar  161   5.039   2.181   0.682
    1   AR   Ar  162   4.287   5.604  -0.461
    1   AR   Ar  163   5.323   3.570  -0.028
    1   AR   Ar  164   4.003   5.166   1.813
    1   AR   Ar  165   3.123   3.374   2.352
    1   AR   Ar  166   2.650   5.000   3.542
    1   AR   Ar  167   4.665   2.348   2.634
    1   AR   Ar  168   3.942   3.699  -0.664
    1   AR   Ar  169   2.891   3.006   3.205
    1   AR   Ar  170   3.138   4.129   4.854
    1   AR   Ar  171   4.322   3.705   4.507
    1   AR   Ar  172   4.566   5.287   4.397
    1   AR   Ar  173   2.058   3.236   6.878
    1   AR   Ar  174   4.373   4.868   6.236
    1   AR   Ar  175   3.789   3.242   5.968
    1   AR   Ar  176   3.853   5.027   5.414
    1   AR   Ar  177   5.682   5.791  -0.336
    1   AR   Ar  178   3.190   6.361   1.500
    1   AR   Ar  179   3.760   5.762   0.689
    1   AR   Ar  180   3.473   3.728  -1.959
    1   AR   Ar  181   2.513   5.602   1.597
    1   AR   Ar  182   2.717   6.689   2.343
    1   AR   Ar  183   3.402   4.550   2.547
    1   AR   Ar  184   4.115   6.167   2.029
    1   AR   Ar  185   1.503   5.548   4.552
    1   AR   Ar  186   3.285   5.710   3.974
    1   AR   Ar  187   4.331   5.917   3.036
    1   AR   Ar  188   3.181   5.739   2.441
    1   AR   Ar  189   2.873   4.956   5.860
    1   AR   Ar  190   4.238   6.139   5.823
    1   AR   Ar  191   5.038   5.526   5.320
    1   AR   Ar  192   3.848   6.211   4.773
    1   AR   Ar  193   6.728   6.364  -0.283
    1   AR   Ar  194   5.833   5.717  -1.375
    1   AR   Ar  195   6.019   0.434  -0.366
    1   AR   Ar  196   5.589   0.912  -1.166
    1   AR   Ar  197   5.152   0.926   0.864
    1   AR   Ar  198   5.951   1.752   1.455
    1   AR   Ar  199   5.466   0.873   1.915
    1   AR   Ar  200   6.455   1.274   0.393
    1   AR   Ar  201   4.644   6.800   3.291
    1   AR   Ar  202   5.154   2.219   4.193
    1   AR   Ar  203   0.125   6.485   4.720
    1   AR   Ar  204   5.105   0.387   3.877
    1   AR   Ar  205   6.189   0.082   3.039
    1   AR   Ar  206   5.266   0.140   4.909
    1   AR   Ar  207   6.738   0.542   5.948
    1   AR   Ar  208   0.020   0.804   4.023
    1   AR   Ar  209   5.136   2.281  -2.439
    1   AR   Ar  210   4.091   1.172   1.023
    1   AR   Ar  211   6.016   2.811   0.190
    1   AR   Ar  212   6.140   3.993  -1.847
    1   AR   Ar  213   3.389   2.350   2.466
    1   AR   Ar  214   4.085   3.334   2.618
    1   AR   Ar  215   5.771   2.247   2.590
    1   AR   Ar  216   6.722   2.752   1.898
    1   AR   Ar  217   4.615   3.289   3.583
    1   AR   Ar  218   4.442   2.775   5.175
    1   AR   Ar  219   4.967   1.542   3.318
    1   AR   Ar  220   5.251   3.431   2.630
    1   AR   Ar  221   6.707   0.313   4.859
    1   AR   Ar  222   5.080   1.517   5.869
    1   AR   Ar  223   6.673   1.035   6.953
    1   AR   Ar  224   5.660   2.149   5.211
    1   AR   Ar  225   5.364   4.826   0.084
    1   AR   Ar  226   4.833   4.340   2.494
    1   AR   Ar  227   6.455   4.900   0.041
    1   AR   Ar  228   5.638   5.608   0.766
    1   AR   Ar  229   5.971   4.400   0.826
    1   AR   Ar  230   4.437   4.849   3.258
    1   AR   Ar  231   6.642   2.646   3.247
    1   AR   Ar  232   4.415   3.341   0.563
    1   AR   Ar  233   6.386   2.386   4.252
    1   AR   Ar  234   6.435   3.662   4.320
    1   AR   Ar  235   0.270   2.984   4.120
    1   AR   Ar  236   5.425   4.259   4.087
    1   AR   Ar  237   5.508   3.216   4.239
    1   AR   Ar  238   4.696   4.387   5.363
    1   AR   Ar  239   6.024   4.155   9.158
    1   AR   Ar  240   0.251   4.358   5.143
    1   AR   Ar  241   7.105   0.323  -0.480
    1   AR   Ar  242   4.849   5.206   1.226
    1   AR   Ar  243   5.900   4.458   2.054
    1   AR   Ar  244   0.496   5.624  -0.567
    1   AR   Ar  245   5.264   6.610   2.457
    1   AR   Ar  246   5.939   6.261   1.641
    1   AR   Ar  247   5.573   3.027   1.453
    1   AR   Ar  248   6.056   6.617   0.522
    1   AR   Ar  249   5.472   5.471   2.647
    1   AR   Ar  250   4.906   6.280   4.326
    1   AR   Ar  251   5.852   5.143   4.649
    1   AR   Ar  252   5.665   6.297   3.481
    1   AR   Ar  253   5.690   4.862   5.859
    1   AR   Ar  254   5.099   5.525   6.671
    1   AR   Ar  255   5.097   4.325   6.744
    1   AR   Ar  256   6.154   6.293   4.667
    7.12000  7.12000 12.00000
Argon-slab step 1725
  256
    1   AR   Ar    1   6.948   1.289  -0.925
    1   AR   Ar    2   6.322   0.237   1.374
    1   AR   Ar    3   7.030   7.080   0.703
    1   AR   Ar    4   1.039   0.191   0.314
    1   AR   Ar    5   6.717   5.709   0.811
    1   AR   Ar    6   0.115   0.186   2.893
    1   AR   Ar    7   0.349   5.245   2.574
    1   AR   Ar    8   6.947   6.727   2.094
    1   AR   Ar    9   1.088   0.676   3.990
    1   AR   Ar   10   0.464   1.908   4.295
    1   AR   Ar   11   3.101   6.952   4.633
    1   AR   Ar   12   1.036   1.577   2.871
    1   AR   Ar   13   6.625   1.377   4.807
    1   AR   Ar   14   0.078   1.586   6.196
    1   AR   Ar   15   0.329   6.887   9.356
    1   AR   Ar   16   0.450   1.400   5.234
    1   AR   Ar   17   0.379   1.324  -0.101
    1   AR   Ar   18   6.075   3.620  -0.761
    1   AR   Ar   19   1.185   1.788   1.448
    1   AR   Ar   20   6.610   2.124  -2.538
    1   AR   Ar   21   6.199   1.207   2.570
    1   AR   Ar   22   0.043   1.784   2.192
    1   AR   Ar   23   7.077   1.092   1.452
    1   AR   Ar   24   0.179   2.279   1.005
    1   AR   Ar   25   0.017   1.256   3.077
    1   AR   Ar   26   6.278   1.495   3.648
    1   AR   Ar   27   1.800   1.169   3.454
    1   AR   Ar   28   1.262   2.660   4.939
    1   AR   Ar   29   5.998   2.004   6.201
    1   AR   Ar   30   0.519   2.832   6.084
    1   AR   Ar   31   0.323   0.294   6.807
    1   AR   Ar   32   1.693   2.817   5.990
    1   AR   Ar   33   1.106   4.438  -1.511
    1   AR   Ar   34   0.545   5.800   1.656
    1   AR   Ar   35   0.486   3.714   1.368
    1   AR   Ar   36   0.144   0.037  -1.715
    1   AR   Ar   37   0.278   3.298   2.521
    1   AR   Ar   38   7.038   4.319   2.272
    1   AR   Ar   39   1.254   4.187   2.122
    1   AR   Ar   40   1.674   3.808   1.008
    1   AR   Ar   41   0.833   2.470   3.206
    1   AR   Ar   42   6.813   5.671   5.307
    1   AR   Ar   43   6.719   2.408   5.411
    1   AR   Ar   44   0.638   3.826   3.538
    1   AR   Ar   45   0.894   3.633   5.507
    1   AR   Ar   46   0.253   5.816   6.358
    1   AR   Ar   47   5.891   3.807   5.720
    1   AR   Ar   48   6.401   6.774   6.834
    1   AR   Ar   49   6.894   5.466  -1.796
    1   AR   Ar   50   6.589   5.183   1.772
    1   AR   Ar   51   1.762   5.011   1.377
    1   AR   Ar   52   7.086   4.514  -0.948
    1   AR   Ar   53   6.345   6.102   2.620
    1   AR   Ar   54   0.064   6.388   3.569
    1   AR   Ar   55   6.347   4.920   2.950
    1   AR   Ar   56   1.017   6.524   1.091
    1   AR   Ar   57   6.326   3.595   2.738
    1   AR   Ar   58   6.829   5.661   4.291
    1   AR   Ar   59   1.781   5.848   5.503
    1   AR   Ar   60   1.143   6.431   4.087
    1   AR   Ar   61   5.940   6.056   5.683
    1   AR   Ar   62   0.733   5.857   5.347
    1   AR   Ar   63   1.532   6.454   6.638
    1   AR   Ar   64   1.529   7.111   4.857
    1   AR   Ar   65   3.082   7.108  -0.096
    1   AR   Ar   66   1.675   1.015   0.978
    1   AR   Ar   67   3.372   6.256  -0.945
    1   AR   Ar   68   3.267   1.037  -1.278
    1   AR   Ar   69   2.201   0.126   0.414
    1   AR   Ar   70   0.845   0.370   1.512
    1   AR   Ar   71   3.024   0.698   2.305
    1   AR   Ar   72   3.095   0.331   1.259
    1   AR   Ar   73   1.555   0.172   3.217
    1   AR   Ar   74   1.353   1.474   4.549
    1   AR   Ar   75   3.754   0.612   4.665
    1   AR   Ar   76   1.859   1.129   2.289
    1   AR   Ar   77   2.197   6.887   5.906
    1   AR   Ar   78   1.509   0.528   5.981
    1   AR   Ar   79   4.032   6.336   6.882
    1   AR   Ar   80   3.318   5.855   5.816
    1   AR   Ar   81   1.622   1.655   0.109
    1   AR   Ar   82   0.296   3.615  -0.624
    1   AR   Ar   83   2.666   2.609   0.499
    1   AR   Ar   84   1.505   4.033  -2.898
    1   AR   Ar   85   0.755   2.576  -0.526
    1   AR   Ar   86   1.735   3.300   2.097
    1   AR   Ar   87   2.270   2.328   1.948
    1   AR   Ar   88   3.713   4.367   1.232
    1   AR   Ar   89   1.053   2.475   2.259
    1   AR   Ar   90   2.792   1.740   4.422
    1   AR   Ar   91   1.845   2.320   4.157
    1   AR   Ar   92   1.961   2.165   2.959
    1   AR   Ar   93   2.152   2.081   5.440
    1   AR   Ar   94   2.459   0.865   7.673
    1   AR   Ar   95   3.225   6.983   5.699
    1   AR   Ar   96   2.725   0.801   5.541
    1   AR   Ar   97   3.834   2.716  -1.356
    1   AR   Ar   98   2.638   4.610   1.645
    1   AR   Ar   99   6.131   2.607  -1.322
    1   AR   Ar  100   1.701   4.153  -0.433
    1   AR   Ar  101   1.406   2.685   0.417
    1   AR   Ar  102   2.655   3.917   4.026
    1   AR   Ar  103   0.718   4.183   0.214
    1   AR   Ar  104   2.863   3.472  -0.807
    1   AR   Ar  105   1.524   3.228   3.372
    1   AR   Ar  106   2.544   3.075   4.921
    1   AR   Ar  107   1.853   4.085   4.984
    1   AR   Ar  108   3.468   3.360   4.020
    1   AR   Ar  109   1.601   4.111   3.908
    1   AR   Ar  110   1.448   4.888   5.450
    1   AR   Ar  111   4.310   5.371   7.348
    1   AR   Ar  112   1.051   4.795   6.763
    1   AR   Ar  113   2.329   4.577   0.400
    1   AR   Ar  114   2.513   6.135   0.516
    1   AR   Ar  115   3.187   4.435  -0.603
    1   AR   Ar  116   4.707   6.629   0.344
    1   AR   Ar  117   0.615   5.495   3.623
    1   AR   Ar  118   0.828   6.544   2.838
    1   AR   Ar  119   2.380   4.020   2.682
    1   AR   Ar  120   1.335   5.241   2.261
    1   AR   Ar  121   6.923   4.540   3.928
    1   AR   Ar  122   2.408   6.080   4.594
    1   AR   Ar  123   2.458   4.989   4.794
    1   AR   Ar  124   2.447   5.994   3.274
    1   AR   Ar  125   0.756   4.749   4.304
    1   AR   Ar  126   0.531   0.463   5.457
    1   AR   Ar  127   3.285   5.503   6.849
    1   AR   Ar  128   2.157   5.301   6.595
    1   AR   Ar  129   2.052   0.051   1.595
    1   AR   Ar  130   4.196   1.237  -2.039
    1   AR   Ar  131   4.935   6.981   1.464
    1   AR   Ar  132   0.236   2.220  -1.451
    1   AR   Ar  133   3.745   7.001   2.741
    1   AR   Ar  134   3.842   1.373   2.459
    1   AR   Ar  135   4.541   0.565   2.824
    1   AR   Ar  136   4.001   0.531   1.856
    1   AR   Ar  137   2.673   7.060   3.518
    1   AR   Ar  138   4.678   0.994   5.125
    1   AR   Ar  139   5.636   1.252   4.473
    1   AR   Ar  140   4.161   1.020   3.641
    1   AR   Ar  141   3.728   6.839   3.789
    1   AR   Ar  142   4.158   7.060   5.206
    1   AR   Ar  143   5.660   6.908   6.047
    1   AR   Ar  144   5.136   0.689   6.561
    1   AR   Ar  145   3.308   3.975   0.379
    1   AR   Ar  146   4.291   2.514   1.764
    1   AR   Ar  147   5.732   2.012  -0.296
    1   AR   Ar  148   5.633   3.736  -2.764
    1   AR   Ar  149   3.987   2.236   0.685
    1   AR   Ar  150   2.872   1.514   2.976
    1   AR   Ar  151   3.753   2.270   3.552
    1   AR   Ar  152   2.764   3.550   1.314
    1   AR   Ar  153   3.118   0.769   3.828
    1   AR   Ar  154   3.959   1.894   4.503
    1   AR   Ar  155   5.768   0.853   5.626
    1   AR   Ar  156   3.780   4.053   3.260
    1   AR   Ar  157   2.735   2.925   6.092
    1   AR   Ar  158   1.431   2.465   7.339
    1   AR   Ar  159   3.881   0.917   6.025
    1   AR   Ar  160   3.900   2.871   7.446
    1   AR   Ar  161   5.040   2.179   0.673
    1   AR   Ar  162   4.274   5.617  -0.461
    1   AR   Ar  163   5.295   3.591  -0.023
    1   AR   Ar  164   3.984   5.177   1.825
    1   AR   Ar  165   3.112   3.366   2.283
    1   AR   Ar  166   2.642   5.024   3.554
    1   AR   Ar  167   4.651   2.354   2.632
    1   AR   Ar  168   3.919   3.644  -0.629
    1   AR   Ar  169   2.865   3.007   3.195
    1   AR   Ar  170   3.147   4.097   4.862
    1   AR   Ar  171   4.356   3.708   4.495
    1   AR   Ar  172   4.543   5.298   4.412
    1   AR   Ar  173   2.039   3.247   6.896
    1   AR   Ar  174   4.355   4.848   6.245
    1   AR   Ar  175   3.791   3.241   5.978
    1   AR   Ar  176   3.828   5.022   5.370
    1   AR   Ar  177   5.696   5.793  -0.297
    1   AR   Ar  178   3.168   6.362   1.487
    1   AR   Ar  179   3.756   5.780   0.665
    1   AR   Ar  180   3.452   3.723  -1.977
    1   AR   Ar  181   2.526   5.612   1.587
    1   AR   Ar  182   2.714   6.679   2.329
    1   AR   Ar  183   3.364   4.533   2.526
    1   AR   Ar  184   4.103   6.133   1.989
    1   AR   Ar  185   1.483   5.568   4.529
    1   AR   Ar  186   3.304   5.731   4.005
    1   AR   Ar  187   4.305   5.899   3.011
    1   AR   Ar  188   3.156   5.733   2.430
    1   AR   Ar  189   2.873   4.976   5.859
    1   AR   Ar  190   4.248   6.146   5.828
    1   AR   Ar  191   5.027   5.529   5.327
    1   AR   Ar  192   3.875   6.181   4.816
    1   AR   Ar  193   6.719   6.373  -0.319
    1   AR   Ar  194   5.813   5.694  -1.351
    1   AR   Ar  195   6.025   0.406  -0.361
    1   AR   Ar  196   5.579   0.881  -1.158
    1   AR   Ar  197   5.189   0.931   0.838
    1   AR   Ar  198   5.924   1.759   1.438
    1   AR   Ar  199   5.441   0.874   1.875
    1   AR   Ar  200   6.451   1.296   0.395
    1   AR   Ar  201   4.646   6.808   3.292
    1   AR   Ar  202   5.150   2.224   4.204
    1   AR   Ar  203   0.118   6.480   4.727
    1   AR   Ar  204   5.094   0.380   3.907
    1   AR   Ar  205   6.180   0.063   3.050
    1   AR   Ar  206   5.221   0.108   4.901
    1   AR   Ar  207   6.710   0.534   5.947
    1   AR   Ar  208   0.035   0.811   4.000
    1   AR   Ar  209   5.101   2.275  -2.422
    1   AR   Ar  210   4.062   1.162   1.012
    1   AR   Ar  211   6.021   2.818   0.172
    1   AR   Ar  212   6.161   3.983  -1.852
    1   AR   Ar  213   3.403   2.313   2.472
    1   AR   Ar  214   4.067   3.349   2.619
    1   AR   Ar  215   5.771   2.273   2.591
    1   AR   Ar  216   6.740   2.730   1.905
    1   AR   Ar  217   4.627   3.298   3.598
    1   AR   Ar  218   4.433   2.829   5.175
    1   AR   Ar  219   4.969   1.551   3.313
    1   AR   Ar  220   5.258   3.411   2.631
    1   AR   Ar  221   6.694   0.334   4.846
    1   AR   Ar  222   5.058   1.540   5.860
    1   AR   Ar  223   6.701   1.037   6.957
    1   AR   Ar  224   5.657   2.157   5.219
    1   AR   Ar  225   5.332   4.808   0.078
    1   AR   Ar  226   4.822   4.333   2.487
    1   AR   Ar  227   6.475   4.923   0.019
    1   AR   Ar  228   5.631   5.630   0.793
    1   AR   Ar  229   5.977   4.404   0.795
    1   AR   Ar  230   4.439   4.853   3.235
    1   AR   Ar  231   6.664   2.615   3.264
    1   AR   Ar  232   4.401   3.337   0.536
    1   AR   Ar  233   6.429   2.371   4.257
    1   AR   Ar  234   6.443   3.646   4.324
    1   AR   Ar  235   0.285   3.020   4.106
    1   AR   Ar  236   5.421   4.244   4.089
    1   AR   Ar  237   5.512   3.202   4.230
    1   AR   Ar  238   4.674   4.381   5.325
    1   AR   Ar  239   6.004   4.138   9.184
    1   AR   Ar  240   0.246   4.357   5.154
    1   AR   Ar  241   7.073   0.336  -0.509
    1   AR   Ar  242   4.855   5.176   1.236
    1   AR   Ar  243   5.893   4.464   2.059
    1   AR   Ar  244   0.458   5.615  -0.555
    1   AR   Ar  245   5.260   6.678   2.425
    1   AR   Ar  246   5.931   6.298   1.617
    1   AR   Ar  247   5.542   3.032   1.451
    1   AR   Ar  248   6.089   6.636   0.543
    1   AR   Ar  249   5.492   5.511   2.643
    1   AR   Ar  250   4.900   6.293   4.348
    1   AR   Ar  251   5.844   5.138   4.637
    1   AR   Ar  252   5.687   6.295   3.494
    1   AR   Ar  253   5.693   4.879   5.884
    1   AR   Ar  254   5.123   5.510   6.681
    1   AR   Ar  255   5.080   4.341   6.720
    1   AR   Ar  256   6.144   6.338   4.640
    7.12000  7.12000 12.00000
Argon-slab step 1730
  256
    1   AR   Ar    1   6.984   1.322  -0.911
    1   AR   Ar    2   6.304   0.231   1.368
    1   AR   Ar    3   7.045   7.085   0.688
    1   AR   Ar    4   1.016   0.154   0.286
    1   AR   Ar    5   6.674   5.699   0.827
    1   AR   Ar    6   0.102   0.184   2.872
    1   AR   Ar    7   0.355   5.233   2.581
    1   AR   Ar    8   6.964   6.705   2.109
    1   AR   Ar    9   1.095   0.656   4.010
    1   AR   Ar   10   0.468   1.889   4.299
    1   AR   Ar   11   3.118   6.947   4.647
    1   AR   Ar   12   1.054   1.583   2.852
    1   AR   Ar   13   6.600   1.391   4.784
    1   AR   Ar   14   0.043   1.597   6.192
    1   AR   Ar   15   0.314   6.909   9.346
    1   AR   Ar   16   0.438   1.412   5.217
    1   AR   Ar   17   0.368   1.323  -0.077
    1   AR   Ar   18   6.083   3.598  -0.770
    1   AR   Ar   19   1.180   1.768   1.460
    1   AR   Ar   20   6.598   2.120  -2.520
    1   AR   Ar   21   6.193   1.207   2.587
    1   AR   Ar   22   0.061   1.794   2.235
    1   AR   Ar   23   7.038   1.085   1.433
    1   AR   Ar   24   0.187   2.288   1.018
    1   AR   Ar   25   0.022   1.261   3.070
    1   AR   Ar   26   6.277   1.497   3.609
    1   AR   Ar   27   1.779   1.174   3.469
    1   AR   Ar   28   1.271   2.654   4.940
    1   AR   Ar   29   6.015   1.976   6.195
    1   AR   Ar   30   0.521   2.874   6.074
    1   AR   Ar   31   0.343   0.262   6.808
    1   AR   Ar   32   1.686   2.794   6.026
    1   AR   Ar   33   1.101   4.451  -1.517
    1   AR   Ar   34   0.542   5.836   1.709
    1   AR   Ar   35   0.495   3.702   1.368
    1   AR   Ar   36   0.133   0.018  -1.727
    1   AR   Ar   37   0.274   3.323   2.534
    1   AR   Ar   38   7.047   4.271   2.255
    1   AR   Ar   39   1.228   4.184   2.104
    1   AR   Ar   40   1.647   3.802   1.004
    1   AR   Ar   41   0.806   2.464   3.190
    1   AR   Ar   42   6.838   5.684   5.332
    1   AR   Ar   43   6.736   2.388   5.423
    1   AR   Ar   44   0.646   3.808   3.530
    1   AR   Ar   45   0.909   3.625   5.507
    1   AR   Ar   46   0.254   5.834   6.335
    1   AR   Ar   47   5.885   3.790   5.757
    1   AR   Ar   48   6.404   6.794   6.823
    1   AR   Ar   49   6.907   5.484  -1.823
    1   AR   Ar   50   6.587   5.178   1.748
    1   AR   Ar   51   1.723   5.014   1.366
    1   AR   Ar   52   7.073   4.505  -0.930
    1   AR   Ar   53   6.332   6.113   2.595
    1   AR   Ar   54   0.027   6.415   3.549
    1   AR   Ar   55   6.354   4.909   2.953
    1   AR   Ar   56   0.983   6.509   1.113
    1   AR   Ar   57   6.323   3.592   2.728
    1   AR   Ar   58   6.798   5.685   4.299
    1   AR   Ar   59   1.788   5.860   5.547
    1   AR   Ar   60   1.145   6.450   4.071
    1   AR   Ar   61   5.922   6.050   5.655
    1   AR   Ar   62   0.755   5.853   5.331
    1   AR   Ar   63   1.534   6.474   6.688
    1   AR   Ar   64   1.514   7.104   4.848
    1   AR   Ar   65   3.111   7.081  -0.074
    1   AR   Ar   66   1.664   1.046   0.949
    1   AR   Ar   67   3.394   6.269  -0.961
    1   AR   Ar   68   3.275   1.067  -1.293
    1   AR   Ar   69   2.230   0.090   0.434
    1   AR   Ar   70   0.800   0.386   1.503
    1   AR   Ar   71   3.035   0.699   2.303
    1   AR   Ar   72   3.069   0.360   1.253
    1   AR   Ar   73   1.558   0.127   3.218
    1   AR   Ar   74   1.376   1.481   4.566
    1   AR   Ar   75   3.760   0.627   4.655
    1   AR   Ar   76   1.881   1.129   2.289
    1   AR   Ar   77   2.209   6.873   5.870
    1   AR   Ar   78   1.498   0.522   6.021
    1   AR   Ar   79   4.024   6.321   6.860
    1   AR   Ar   80   3.316   5.881   5.781
    1   AR   Ar   81   1.665   1.628   0.116
    1   AR   Ar   82   0.314   3.596  -0.643
    1   AR   Ar   83   2.653   2.611   0.504
    1   AR   Ar   84   1.497   4.016  -2.882
    1   AR   Ar   85   0.751   2.553  -0.528
    1   AR   Ar   86   1.746   3.307   2.086
    1   AR   Ar   87   2.281   2.327   1.947
    1   AR   Ar   88   3.734   4.316   1.252
    1   AR   Ar   89   1.032   2.520   2.221
    1   AR   Ar   90   2.807   1.734   4.431
    1   AR   Ar   91   1.865   2.333   4.120
    1   AR   Ar   92   1.947   2.182   2.946
    1   AR   Ar   93   2.124   2.068   5.449
    1   AR   Ar   94   2.436   0.877   7.690
    1   AR   Ar   95   3.229   6.969   5.680
    1   AR   Ar   96   2.683   0.801   5.561
    1   AR   Ar   97   3.825   2.696  -1.389
    1   AR   Ar   98   2.686   4.597   1.663
    1   AR   Ar   99   6.158   2.626  -1.317
    1   AR   Ar  100   1.723   4.138  -0.431
    1   AR   Ar  101   1.393   2.699   0.413
    1   AR   Ar  102   2.633   3.903   4.025
    1   AR   Ar  103   0.754   4.192   0.221
    1   AR   Ar  104   2.863   3.407  -0.798
    1   AR   Ar  105   1.558   3.222   3.355
    1   AR   Ar  106   2.560   3.072   4.934
    1   AR   Ar  107   1.831   4.060   4.982
    1   AR   Ar  108   3.484   3.324   4.026
    1   AR   Ar  109   1.619   4.095   3.916
    1   AR   Ar  110   1.421   4.913   5.433
    1   AR   Ar  111   4.298   5.392   7.313
    1   AR   Ar  112   1.018   4.803   6.768
    1   AR   Ar  113   2.309   4.592   0.404
    1   AR   Ar  114   2.505   6.156   0.503
    1   AR   Ar  115   3.181   4.437  -0.598
    1   AR   Ar  116   4.700   6.624   0.341
    1   AR   Ar  117   0.637   5.479   3.627
    1   AR   Ar  118   0.856   6.547   2.857
    1   AR   Ar  119   2.397   4.051   2.681
    1   AR   Ar  120   1.345   5.272   2.288
    1   AR   Ar  121   6.949   4.573   3.923
    1   AR   Ar  122   2.374   6.063   4.582
    1   AR   Ar  123   2.450   4.975   4.802
    1   AR   Ar  124   2.446   5.974   3.236
    1   AR   Ar  125   0.769   4.789   4.327
    1   AR   Ar  126   0.522   0.464   5.444
    1   AR   Ar  127   3.281   5.504   6.873
    1   AR   Ar  128   2.168   5.295   6.594
    1   AR   Ar  129   2.032   0.047   1.625
    1   AR   Ar  130   4.168   1.229  -2.096
    1   AR   Ar  131   4.957   7.001   1.482
    1   AR   Ar  132   0.251   2.202  -1.454
    1   AR   Ar  133   3.756   7.011   2.800
    1   AR   Ar  134   3.846   1.342   2.473
    1   AR   Ar  135   4.552   0.566   2.792
    1   AR   Ar  136   4.001   0.520   1.861
    1   AR   Ar  137   2.652   7.061   3.503
    1   AR   Ar  138   4.664   1.001   5.115
    1   AR   Ar  139   5.681   1.247   4.510
    1   AR   Ar  140   4.144   1.012   3.625
    1   AR   Ar  141   3.736   6.854   3.799
    1   AR   Ar  142   4.158   7.061   5.200
    1   AR   Ar  143   5.635   6.893   6.053
    1   AR   Ar  144   5.161   0.702   6.570
    1   AR   Ar  145   3.313   3.957   0.384
    1   AR   Ar  146   4.279   2.514   1.779
    1   AR   Ar  147   5.738   2.023  -0.325
    1   AR   Ar  148   5.618   3.732  -2.739
    1   AR   Ar  149   3.999   2.229   0.693
    1   AR   Ar  150   2.844   1.517   2.985
    1   AR   Ar  151   3.729   2.287   3.544
    1   AR   Ar  152   2.767   3.544   1.269
    1   AR   Ar  153   3.132   0.806   3.850
    1   AR   Ar  154   3.948   1.894   4.501
    1   AR   Ar  155   5.737   0.840   5.624
    1   AR   Ar  156   3.815   4.076   3.245
    1   AR   Ar  157   2.719   2.933   6.077
    1   AR   Ar  158   1.408   2.481   7.345
    1   AR   Ar  159   3.851   0.927   6.015
    1   AR   Ar  160   3.894   2.849   7.458
    1   AR   Ar  161   5.046   2.176   0.665
    1   AR   Ar  162   4.262   5.631  -0.461
    1   AR   Ar  163   5.273   3.607  -0.024
    1   AR   Ar  164   3.960   5.178   1.840
    1   AR   Ar  165   3.100   3.360   2.206
    1   AR   Ar  166   2.634   5.040   3.567
    1   AR   Ar  167   4.643   2.357   2.651
    1   AR   Ar  168   3.898   3.589  -0.593
    1   AR   Ar  169   2.836   3.004   3.191
    1   AR   Ar  170   3.163   4.067   4.881
    1   AR   Ar  171   4.390   3.716   4.488
    1   AR   Ar  172   4.517   5.303   4.422
    1   AR   Ar  173   2.022   3.260   6.915
    1   AR   Ar  174   4.323   4.827   6.251
    1   AR   Ar  175   3.810   3.278   5.956
    1   AR   Ar  176   3.801   5.020   5.318
    1   AR   Ar  177   5.724   5.768  -0.285
    1   AR   Ar  178   3.156   6.368   1.466
    1   AR   Ar  179   3.752   5.797   0.643
    1   AR   Ar  180   3.432   3.718  -1.992
    1   AR   Ar  181   2.537   5.629   1.577
    1   AR   Ar  182   2.708   6.674   2.323
    1   AR   Ar  183   3.319   4.523   2.493
    1   AR   Ar  184   4.096   6.114   1.949
    1   AR   Ar  185   1.461   5.581   4.504
    1   AR   Ar  186   3.323   5.754   4.035
    1   AR   Ar  187   4.311   5.923   3.004
    1   AR   Ar  188   3.136   5.722   2.423
    1   AR   Ar  189   2.873   4.965   5.850
    1   AR   Ar  190   4.273   6.155   5.834
    1   AR   Ar  191   5.015   5.532   5.335
    1   AR   Ar  192   3.900   6.144   4.855
    1   AR   Ar  193   6.711   6.381  -0.354
    1   AR   Ar  194   5.794   5.672  -1.329
    1   AR   Ar  195   6.032   0.430  -0.324
    1   AR   Ar  196   5.567   0.853  -1.152
    1   AR   Ar  197   5.227   0.936   0.811
    1   AR   Ar  198   5.897   1.766   1.421
    1   AR   Ar  199   5.414   0.873   1.837
    1   AR   Ar  200   6.446   1.317   0.398
    1   AR   Ar  201   4.654   6.812   3.299
    1   AR   Ar  202   5.154   2.208   4.223
    1   AR   Ar  203   0.114   6.483   4.735
    1   AR   Ar  204   5.084   0.378   3.936
    1   AR   Ar  205   6.175   0.041   3.067
    1   AR   Ar  206   5.180   0.074   4.899
    1   AR   Ar  207   6.686   0.546   5.960
    1   AR   Ar  208   0.049   0.817   3.981
    1   AR   Ar  209   5.065   2.270  -2.404
    1   AR   Ar  210   4.033   1.155   0.999
    1   AR   Ar  211   6.031   2.836   0.163
    1   AR   Ar  212   6.184   3.974  -1.855
    1   AR   Ar  213   3.388   2.327   2.433
    1   AR   Ar  214   4.058   3.356   2.615
    1   AR   Ar  215   5.773   2.300   2.592
    1   AR   Ar  216   6.754   2.708   1.910
    1   AR   Ar  217   4.625   3.275   3.599
    1   AR   Ar  218   4.425   2.882   5.173
    1   AR   Ar  219   4.978   1.562   3.305
    1   AR   Ar  220   5.254   3.386   2.635
    1   AR   Ar  221   6.679   0.351   4.836
    1   AR   Ar  222   5.038   1.577   5.880
    1   AR   Ar  223   6.726   1.040   6.962
    1   AR   Ar  224   5.654   2.166   5.221
    1   AR   Ar  225   5.298   4.790   0.070
    1   AR   Ar  226   4.812   4.325   2.470
    1   AR   Ar  227   6.497   4.949  -0.006
    1   AR   Ar  228   5.629   5.654   0.816
    1   AR   Ar  229   5.984   4.407   0.770
    1   AR   Ar  230   4.440   4.865   3.222
    1   AR   Ar  231   6.687   2.584   3.276
    1   AR   Ar  232   4.385   3.332   0.510
    1   AR   Ar  233   6.443   2.374   4.262
    1   AR   Ar  234   6.464   3.635   4.322
    1   AR   Ar  235   0.299   3.052   4.094
    1   AR   Ar  236   5.400   4.218   4.095
    1   AR   Ar  237   5.514   3.185   4.222
    1   AR   Ar  238   4.655   4.373   5.285
    1   AR   Ar  239   5.984   4.121   9.211
    1   AR   Ar  240   0.223   4.338   5.168
    1   AR   Ar  241   7.045   0.345  -0.536
    1   AR   Ar  242   4.857   5.141   1.249
    1   AR   Ar  243   5.883   4.467   2.065
    1   AR   Ar  244   0.419   5.605  -0.543
    1   AR   Ar  245   5.258   6.745   2.397
    1   AR   Ar  246   5.924   6.335   1.592
    1   AR   Ar  247   5.531   3.057   1.448
    1   AR   Ar  248   6.119   6.653   0.564
    1   AR   Ar  249   5.503   5.543   2.637
    1   AR   Ar  250   4.895   6.310   4.368
    1   AR   Ar  251   5.837   5.136   4.625
    1   AR   Ar  252   5.707   6.292   3.506
    1   AR   Ar  253   5.702   4.894   5.895
    1   AR   Ar  254   5.149   5.496   6.687
    1   AR   Ar  255   5.070   4.353   6.698
    1   AR   Ar  256   6.127   6.388   4.614
    7.12000  7.12000 12.00000
Argon-slab step 1735
  256
    1   AR   Ar    1   7.010   1.357  -0.909
    1   AR   Ar    2   6.282   0.229   1.365
    1   AR   Ar    3   7.055   7.072   0.691
    1   AR   Ar    4   0.993   0.119   0.260
    1   AR   Ar    5   6.635   5.692   0.842
    1   AR   Ar    6   0.092   0.189   2.857
    1   AR   Ar    7   0.355   5.221   2.591
    1   AR   Ar    8   6.986   6.684   2.112
    1   AR   Ar    9   1.096   0.629   4.033
    1   AR   Ar   10   0.467   1.875   4.297
    1   AR   Ar   11   3.130   6.937   4.658
    1   AR   Ar   12   1.070   1.577   2.826
    1   AR   Ar   13   6.589   1.411   4.765
    1   AR   Ar   14   0.023   1.609   6.185
    1   AR   Ar   15   0.300   6.932   9.337
    1   AR   Ar   16   0.427   1.435   5.200
    1   AR   Ar   17   0.365   1.321  -0.039
    1   AR   Ar   18   6.079   3.534  -0.770
    1   AR   Ar   19   1.171   1.753   1.476
    1   AR   Ar   20   6.586   2.116  -2.499
    1   AR   Ar   21   6.185   1.205   2.600
    1   AR   Ar   22   0.080   1.809   2.272
    1   AR   Ar   23   6.998   1.077   1.413
    1   AR   Ar   24   0.195   2.296   1.032
    1   AR   Ar   25   0.032   1.265   3.066
    1   AR   Ar   26   6.283   1.491   3.587
    1   AR   Ar   27   1.768   1.182   3.483
    1   AR   Ar   28   1.279   2.640   4.944
    1   AR   Ar   29   6.034   1.945   6.191
    1   AR   Ar   30   0.521   2.910   6.067
    1   AR   Ar   31   0.364   0.229   6.808
    1   AR   Ar   32   1.671   2.775   6.061
    1   AR   Ar   33   1.091   4.467  -1.540
    1   AR   Ar   34   0.533   5.868   1.766
    1   AR   Ar   35   0.504   3.689   1.370
    1   AR   Ar   36   0.122   7.119  -1.737
    1   AR   Ar   37   0.274   3.345   2.549
    1   AR   Ar   38   7.056   4.227   2.236
    1   AR   Ar   39   1.199   4.186   2.087
    1   AR   Ar   40   1.619   3.797   1.001
    1   AR   Ar   41   0.771   2.470   3.189
    1   AR   Ar   42   6.862   5.693   5.361
    1   AR   Ar   43   6.753   2.366   5.434
    1   AR   Ar   44   0.649   3.782   3.538
    1   AR   Ar   45   0.930   3.619   5.503
    1   AR   Ar   46   0.254   5.852   6.312
    1   AR   Ar   47   5.878   3.773   5.792
    1   AR   Ar   48   6.410   6.814   6.812
    1   AR   Ar   49   6.919   5.502  -1.847
    1   AR   Ar   50   6.586   5.176   1.728
    1   AR   Ar   51   1.682   5.013   1.350
    1   AR   Ar   52   7.057   4.503  -0.913
    1   AR   Ar   53   6.320   6.121   2.576
    1   AR   Ar   54   7.108   6.443   3.530
    1   AR   Ar   55   6.364   4.898   2.956
    1   AR   Ar   56   0.954   6.500   1.129
    1   AR   Ar   57   6.320   3.588   2.719
    1   AR   Ar   58   6.769   5.698   4.296
    1   AR   Ar   59   1.800   5.869   5.582
    1   AR   Ar   60   1.142   6.473   4.050
    1   AR   Ar   61   5.905   6.033   5.621
    1   AR   Ar   62   0.780   5.847   5.314
    1   AR   Ar   63   1.537   6.494   6.736
    1   AR   Ar   64   1.500   7.098   4.843
    1   AR   Ar   65   3.144   7.052  -0.054
    1   AR   Ar   66   1.656   1.064   0.922
    1   AR   Ar   67   3.416   6.282  -0.976
    1   AR   Ar   68   3.284   1.097  -1.308
    1   AR   Ar   69   2.253   0.056   0.460
    1   AR   Ar   70   0.756   0.403   1.494
    1   AR   Ar   71   3.042   0.696   2.301
    1   AR   Ar   72   3.042   0.388   1.246
    1   AR   Ar   73   1.565   0.082   3.218
    1   AR   Ar   74   1.405   1.489   4.588
    1   AR   Ar   75   3.763   0.657   4.638
    1   AR   Ar   76   1.904   1.130   2.289
    1   AR   Ar   77   2.218   6.855   5.833
    1   AR   Ar   78   1.485   0.517   6.061
    1   AR   Ar   79   4.015   6.307   6.837
    1   AR   Ar   80   3.306   5.910   5.745
    1   AR   Ar   81   1.707   1.606   0.117
    1   AR   Ar   82   0.334   3.571  -0.661
    1   AR   Ar   83   2.639   2.614   0.510
    1   AR   Ar   84   1.489   3.999  -2.866
    1   AR   Ar   85   0.748   2.529  -0.528
    1   AR   Ar   86   1.762   3.310   2.075
    1   AR   Ar   87   2.293   2.326   1.944
    1   AR   Ar   88   3.755   4.265   1.277
    1   AR   Ar   89   1.012   2.564   2.175
    1   AR   Ar   90   2.822   1.727   4.440
    1   AR   Ar   91   1.873   2.333   4.101
    1   AR   Ar   92   1.933   2.201   2.935
    1   AR   Ar   93   2.098   2.052   5.453
    1   AR   Ar   94   2.413   0.888   7.707
    1   AR   Ar   95   3.236   6.954   5.665
    1   AR   Ar   96   2.641   0.801   5.579
    1   AR   Ar   97   3.816   2.677  -1.422
    1   AR   Ar   98   2.733   4.579   1.678
    1   AR   Ar   99   6.187   2.644  -1.312
    1   AR   Ar  100   1.745   4.123  -0.429
    1   AR   Ar  101   1.381   2.713   0.410
    1   AR   Ar  102   2.607   3.890   4.017
    1   AR   Ar  103   0.792   4.201   0.228
    1   AR   Ar  104   2.860   3.340  -0.789
    1   AR   Ar  105   1.594   3.211   3.335
    1   AR   Ar  106   2.575   3.069   4.946
    1   AR   Ar  107   1.812   4.030   4.980
    1   AR   Ar  108   3.504   3.283   4.033
    1   AR   Ar  109   1.634   4.085   3.925
    1   AR   Ar  110   1.391   4.935   5.416
    1   AR   Ar  111   4.285   5.411   7.279
    1   AR   Ar  112   0.986   4.811   6.770
    1   AR   Ar  113   2.290   4.605   0.410
    1   AR   Ar  114   2.499   6.177   0.491
    1   AR   Ar  115   3.175   4.440  -0.593
    1   AR   Ar  116   4.695   6.617   0.339
    1   AR   Ar  117   0.657   5.472   3.625
    1   AR   Ar  118   0.883   6.546   2.874
    1   AR   Ar  119   2.410   4.081   2.682
    1   AR   Ar  120   1.358   5.305   2.318
    1   AR   Ar  121   6.973   4.607   3.917
    1   AR   Ar  122   2.343   6.049   4.570
    1   AR   Ar  123   2.441   4.961   4.808
    1   AR   Ar  124   2.445   5.957   3.193
    1   AR   Ar  125   0.787   4.821   4.358
    1   AR   Ar  126   0.519   0.455   5.423
    1   AR   Ar  127   3.276   5.505   6.894
    1   AR   Ar  128   2.177   5.290   6.594
    1   AR   Ar  129   2.011   0.044   1.654
    1   AR   Ar  130   4.139   1.220  -2.153
    1   AR   Ar  131   4.972   7.024   1.484
    1   AR   Ar  132   0.266   2.184  -1.458
    1   AR   Ar  133   3.761   7.020   2.849
    1   AR   Ar  134   3.852   1.317   2.491
    1   AR   Ar  135   4.570   0.574   2.753
    1   AR   Ar  136   4.004   0.478   1.865
    1   AR   Ar  137   2.629   7.060   3.486
    1   AR   Ar  138   4.653   1.018   5.097
    1   AR   Ar  139   5.708   1.238   4.544
    1   AR   Ar  140   4.125   1.004   3.615
    1   AR   Ar  141   3.742   6.869   3.817
    1   AR   Ar  142   4.168   7.055   5.205
    1   AR   Ar  143   5.605   6.892   6.063
    1   AR   Ar  144   5.187   0.715   6.577
    1   AR   Ar  145   3.316   3.936   0.385
    1   AR   Ar  146   4.259   2.518   1.776
    1   AR   Ar  147   5.742   2.025  -0.360
    1   AR   Ar  148   5.603   3.727  -2.715
    1   AR   Ar  149   4.005   2.227   0.701
    1   AR   Ar  150   2.815   1.521   2.995
    1   AR   Ar  151   3.704   2.304   3.532
    1   AR   Ar  152   2.766   3.540   1.218
    1   AR   Ar  153   3.142   0.846   3.869
    1   AR   Ar  154   3.938   1.892   4.501
    1   AR   Ar  155   5.707   0.827   5.617
    1   AR   Ar  156   3.823   4.075   3.256
    1   AR   Ar  157   2.706   2.942   6.060
    1   AR   Ar  158   1.403   2.485   7.350
    1   AR   Ar  159   3.822   0.936   6.002
    1   AR   Ar  160   3.888   2.828   7.469
    1   AR   Ar  161   5.056   2.173   0.658
    1   AR   Ar  162   4.249   5.645  -0.459
    1   AR   Ar  163   5.265   3.612  -0.033
    1   AR   Ar  164   3.931   5.160   1.856
    1   AR   Ar  165   3.086   3.355   2.133
    1   AR   Ar  166   2.627   5.046   3.582
    1   AR   Ar  167   4.641   2.359   2.687
    1   AR   Ar  168   3.879   3.532  -0.556
    1   AR   Ar  169   2.805   3.001   3.189
    1   AR   Ar  170   3.182   4.039   4.905
    1   AR   Ar  171   4.423   3.728   4.484
    1   AR   Ar  172   4.489   5.305   4.430
    1   AR   Ar  173   2.007   3.275   6.936
    1   AR   Ar  174   4.284   4.814   6.253
    1   AR   Ar  175   3.829   3.326   5.925
    1   AR   Ar  176   3.775   5.019   5.263
    1   AR   Ar  177   5.754   5.744  -0.269
    1   AR   Ar  178   3.155   6.385   1.436
    1   AR   Ar  179   3.748   5.815   0.622
    1   AR   Ar  180   3.412   3.711  -2.006
    1   AR   Ar  181   2.539   5.640   1.566
    1   AR   Ar  182   2.699   6.675   2.325
    1   AR   Ar  183   3.277   4.518   2.457
    1   AR   Ar  184   4.092   6.118   1.912
    1   AR   Ar  185   1.439   5.587   4.482
    1   AR   Ar  186   3.343   5.779   4.065
    1   AR   Ar  187   4.313   5.939   2.995
    1   AR   Ar  188   3.122   5.707   2.419
    1   AR   Ar  189   2.874   4.935   5.836
    1   AR   Ar  190   4.308   6.166   5.842
    1   AR   Ar  191   5.002   5.535   5.344
    1   AR   Ar  192   3.923   6.100   4.889
    1   AR   Ar  193   6.701   6.389  -0.387
    1   AR   Ar  194   5.777   5.648  -1.310
    1   AR   Ar  195   6.038   0.453  -0.281
    1   AR   Ar  196   5.554   0.828  -1.150
    1   AR   Ar  197   5.265   0.941   0.781
    1   AR   Ar  198   5.872   1.774   1.404
    1   AR   Ar  199   5.387   0.870   1.803
    1   AR   Ar  200   6.441   1.337   0.400
    1   AR   Ar  201   4.670   6.814   3.310
    1   AR   Ar  202   5.156   2.189   4.241
    1   AR   Ar  203   0.115   6.495   4.744
    1   AR   Ar  204   5.075   0.382   3.962
    1   AR   Ar  205   6.170   0.020   3.083
    1   AR   Ar  206   5.143   0.038   4.904
    1   AR   Ar  207   6.664   0.562   5.978
    1   AR   Ar  208   0.061   0.822   3.968
    1   AR   Ar  209   5.030   2.264  -2.385
    1   AR   Ar  210   4.006   1.147   0.986
    1   AR   Ar  211   6.045   2.861   0.159
    1   AR   Ar  212   6.208   3.965  -1.854
    1   AR   Ar  213   3.373   2.342   2.396
    1   AR   Ar  214   4.057   3.354   2.606
    1   AR   Ar  215   5.775   2.327   2.592
    1   AR   Ar  216   6.765   2.688   1.916
    1   AR   Ar  217   4.608   3.275   3.616
    1   AR   Ar  218   4.419   2.932   5.168
    1   AR   Ar  219   4.991   1.572   3.298
    1   AR   Ar  220   5.249   3.357   2.640
    1   AR   Ar  221   6.662   0.363   4.827
    1   AR   Ar  222   5.015   1.617   5.905
    1   AR   Ar  223   6.747   1.041   6.968
    1   AR   Ar  224   5.657   2.164   5.233
    1   AR   Ar  225   5.262   4.775   0.061
    1   AR   Ar  226   4.818   4.332   2.447
    1   AR   Ar  227   6.518   4.977  -0.032
    1   AR   Ar  228   5.628   5.679   0.835
    1   AR   Ar  229   5.991   4.409   0.749
    1   AR   Ar  230   4.418   4.895   3.206
    1   AR   Ar  231   6.713   2.554   3.283
    1   AR   Ar  232   4.366   3.327   0.485
    1   AR   Ar  233   6.410   2.362   4.259
    1   AR   Ar  234   6.501   3.632   4.308
    1   AR   Ar  235   0.309   3.076   4.086
    1   AR   Ar  236   5.368   4.187   4.103
    1   AR   Ar  237   5.516   3.167   4.215
    1   AR   Ar  238   4.641   4.368   5.246
    1   AR   Ar  239   5.964   4.104   9.237
    1   AR   Ar  240   0.197   4.322   5.180
    1   AR   Ar  241   7.021   0.351  -0.561
    1   AR   Ar  242   4.856   5.104   1.263
    1   AR   Ar  243   5.871   4.467   2.071
    1   AR   Ar  244   0.377   5.594  -0.531
    1   AR   Ar  245   5.260   6.809   2.379
    1   AR   Ar  246   5.919   6.371   1.570
    1   AR   Ar  247   5.520   3.081   1.446
    1   AR   Ar  248   6.143   6.667   0.581
    1   AR   Ar  249   5.492   5.545   2.624
    1   AR   Ar  250   4.890   6.328   4.387
    1   AR   Ar  251   5.829   5.134   4.615
    1   AR   Ar  252   5.726   6.289   3.520
    1   AR   Ar  253   5.722   4.907   5.884
    1   AR   Ar  254   5.176   5.482   6.689
    1   AR   Ar  255   5.070   4.362   6.687
    1   AR   Ar  256   6.106   6.442   4.590
    7.12000  7.12000 12.00000
Argon-slab step 1740
  256
    1   AR   Ar    1   7.012   1.377  -0.921
    1   AR   Ar    2   6.258   0.232   1.368
    1   AR   Ar    3   7.058   7.064   0.711
    1   AR   Ar    4   0.969   0.085   0.236
    1   AR   Ar    5   6.604   5.690   0.852
    1   AR   Ar    6   0.084   0.201   2.849
    1   AR   Ar    7   0.386   5.226   2.615
    1   AR   Ar    8   7.012   6.665   2.101
    1   AR   Ar    9   1.094   0.598   4.059
    1   AR   Ar   10   0.462   1.867   4.285
    1   AR   Ar   11   3.136   6.925   4.664
    1   AR   Ar   12   1.083   1.565   2.794
    1   AR   Ar   13   6.607   1.441   4.754
    1   AR   Ar   14   0.065   1.613   6.177
    1   AR   Ar   15   0.285   6.954   9.328
    1   AR   Ar   16   0.431   1.447   5.196
    1   AR   Ar   17   0.367   1.319   0.009
    1   AR   Ar   18   6.107   3.527  -0.771
    1   AR   Ar   19   1.160   1.749   1.501
    1   AR   Ar   20   6.574   2.113  -2.478
    1   AR   Ar   21   6.176   1.203   2.607
    1   AR   Ar   22   0.097   1.809   2.270
    1   AR   Ar   23   6.956   1.070   1.392
    1   AR   Ar   24   0.204   2.302   1.046
    1   AR   Ar   25   0.046   1.263   3.069
    1   AR   Ar   26   6.303   1.471   3.592
    1   AR   Ar   27   1.765   1.192   3.497
    1   AR   Ar   28   1.285   2.626   4.949
    1   AR   Ar   29   6.056   1.911   6.189
    1   AR   Ar   30   0.538   2.931   6.061
    1   AR   Ar   31   0.384   0.196   6.805
    1   AR   Ar   32   1.649   2.757   6.095
    1   AR   Ar   33   1.080   4.482  -1.562
    1   AR   Ar   34   0.519   5.893   1.828
    1   AR   Ar   35   0.514   3.676   1.373
    1   AR   Ar   36   0.110   7.101  -1.746
    1   AR   Ar   37   0.279   3.357   2.569
    1   AR   Ar   38   7.061   4.194   2.213
    1   AR   Ar   39   1.167   4.192   2.070
    1   AR   Ar   40   1.592   3.793   0.999
    1   AR   Ar   41   0.732   2.483   3.196
    1   AR   Ar   42   6.884   5.698   5.390
    1   AR   Ar   43   6.781   2.341   5.432
    1   AR   Ar   44   0.654   3.761   3.546
    1   AR   Ar   45   0.957   3.618   5.494
    1   AR   Ar   46   0.256   5.870   6.290
    1   AR   Ar   47   5.870   3.757   5.827
    1   AR   Ar   48   6.416   6.836   6.799
    1   AR   Ar   49   6.931   5.520  -1.870
    1   AR   Ar   50   6.587   5.173   1.713
    1   AR   Ar   51   1.641   5.007   1.331
    1   AR   Ar   52   7.040   4.505  -0.897
    1   AR   Ar   53   6.308   6.126   2.562
    1   AR   Ar   54   7.069   6.471   3.512
    1   AR   Ar   55   6.375   4.888   2.959
    1   AR   Ar   56   0.929   6.498   1.139
    1   AR   Ar   57   6.316   3.582   2.710
    1   AR   Ar   58   6.740   5.702   4.286
    1   AR   Ar   59   1.811   5.848   5.568
    1   AR   Ar   60   1.137   6.500   4.025
    1   AR   Ar   61   5.888   6.010   5.586
    1   AR   Ar   62   0.804   5.842   5.296
    1   AR   Ar   63   1.540   6.514   6.781
    1   AR   Ar   64   1.487   7.092   4.840
    1   AR   Ar   65   3.182   7.021  -0.035
    1   AR   Ar   66   1.651   1.066   0.905
    1   AR   Ar   67   3.439   6.295  -0.989
    1   AR   Ar   68   3.293   1.127  -1.324
    1   AR   Ar   69   2.270   0.029   0.489
    1   AR   Ar   70   0.713   0.421   1.484
    1   AR   Ar   71   3.043   0.689   2.300
    1   AR   Ar   72   3.039   0.403   1.250
    1   AR   Ar   73   1.577   0.041   3.220
    1   AR   Ar   74   1.437   1.497   4.613
    1   AR   Ar   75   3.768   0.695   4.621
    1   AR   Ar   76   1.928   1.130   2.289
    1   AR   Ar   77   2.224   6.837   5.794
    1   AR   Ar   78   1.471   0.511   6.100
    1   AR   Ar   79   4.005   6.297   6.814
    1   AR   Ar   80   3.291   5.937   5.710
    1   AR   Ar   81   1.748   1.593   0.106
    1   AR   Ar   82   0.355   3.543  -0.678
    1   AR   Ar   83   2.625   2.617   0.516
    1   AR   Ar   84   1.465   3.996  -2.833
    1   AR   Ar   85   0.734   2.494  -0.530
    1   AR   Ar   86   1.784   3.311   2.064
    1   AR   Ar   87   2.305   2.325   1.940
    1   AR   Ar   88   3.776   4.213   1.305
    1   AR   Ar   89   0.991   2.608   2.127
    1   AR   Ar   90   2.835   1.722   4.449
    1   AR   Ar   91   1.871   2.324   4.094
    1   AR   Ar   92   1.918   2.222   2.927
    1   AR   Ar   93   2.074   2.032   5.452
    1   AR   Ar   94   2.390   0.899   7.724
    1   AR   Ar   95   3.247   6.944   5.658
    1   AR   Ar   96   2.598   0.800   5.596
    1   AR   Ar   97   3.806   2.660  -1.454
    1   AR   Ar   98   2.767   4.560   1.674
    1   AR   Ar   99   6.216   2.659  -1.308
    1   AR   Ar  100   1.766   4.107  -0.427
    1   AR   Ar  101   1.363   2.696   0.430
    1   AR   Ar  102   2.588   3.876   4.009
    1   AR   Ar  103   0.829   4.209   0.236
    1   AR   Ar  104   2.856   3.274  -0.780
    1   AR   Ar  105   1.632   3.198   3.312
    1   AR   Ar  106   2.588   3.067   4.956
    1   AR   Ar  107   1.795   3.998   4.978
    1   AR   Ar  108   3.525   3.242   4.041
    1   AR   Ar  109   1.639   4.081   3.934
    1   AR   Ar  110   1.358   4.952   5.398
    1   AR   Ar  111   4.273   5.424   7.247
    1   AR   Ar  112   0.954   4.821   6.771
    1   AR   Ar  113   2.271   4.617   0.418
    1   AR   Ar  114   2.498   6.179   0.477
    1   AR   Ar  115   3.168   4.442  -0.587
    1   AR   Ar  116   4.690   6.609   0.338
    1   AR   Ar  117   0.675   5.473   3.616
    1   AR   Ar  118   0.865   6.540   2.910
    1   AR   Ar  119   2.414   4.105   2.686
    1   AR   Ar  120   1.366   5.336   2.336
    1   AR   Ar  121   6.994   4.641   3.909
    1   AR   Ar  122   2.319   6.040   4.559
    1   AR   Ar  123   2.436   4.957   4.814
    1   AR   Ar  124   2.440   5.950   3.149
    1   AR   Ar  125   0.804   4.840   4.400
    1   AR   Ar  126   0.518   0.436   5.399
    1   AR   Ar  127   3.269   5.504   6.912
    1   AR   Ar  128   2.184   5.286   6.592
    1   AR   Ar  129   1.989   0.042   1.680
    1   AR   Ar  130   4.110   1.213  -2.208
    1   AR   Ar  131   4.960   7.045   1.444
    1   AR   Ar  132   0.285   2.182  -1.455
    1   AR   Ar  133   3.759   7.030   2.882
    1   AR   Ar  134   3.860   1.298   2.514
    1   AR   Ar  135   4.595   0.583   2.712
    1   AR   Ar  136   4.009   0.431   1.866
    1   AR   Ar  137   2.609   7.057   3.469
    1   AR   Ar  138   4.685   1.005   5.075
    1   AR   Ar  139   5.703   1.222   4.571
    1   AR   Ar  140   4.108   0.997   3.606
    1   AR   Ar  141   3.749   6.883   3.848
    1   AR   Ar  142   4.181   7.049   5.216
    1   AR   Ar  143   5.573   6.898   6.074
    1   AR   Ar  144   5.213   0.727   6.584
    1   AR   Ar  145   3.318   3.913   0.381
    1   AR   Ar  146   4.237   2.524   1.763
    1   AR   Ar  147   5.745   2.022  -0.397
    1   AR   Ar  148   5.587   3.722  -2.692
    1   AR   Ar  149   4.004   2.231   0.707
    1   AR   Ar  150   2.786   1.525   3.007
    1   AR   Ar  151   3.678   2.322   3.515
    1   AR   Ar  152   2.759   3.537   1.157
    1   AR   Ar  153   3.143   0.886   3.882
    1   AR   Ar  154   3.930   1.887   4.502
    1   AR   Ar  155   5.675   0.814   5.606
    1   AR   Ar  156   3.820   4.068   3.278
    1   AR   Ar  157   2.696   2.951   6.042
    1   AR   Ar  158   1.425   2.470   7.358
    1   AR   Ar  159   3.815   0.927   6.002
    1   AR   Ar  160   3.882   2.806   7.479
    1   AR   Ar  161   5.072   2.171   0.651
    1   AR   Ar  162   4.236   5.660  -0.455
    1   AR   Ar  163   5.258   3.619  -0.043
    1   AR   Ar  164   3.914   5.130   1.855
    1   AR   Ar  165   3.074   3.350   2.070
    1   AR   Ar  166   2.621   5.043   3.601
    1   AR   Ar  167   4.639   2.362   2.732
    1   AR   Ar  168   3.870   3.483  -0.533
    1   AR   Ar  169   2.774   2.997   3.186
    1   AR   Ar  170   3.203   4.011   4.932
    1   AR   Ar  171   4.453   3.742   4.481
    1   AR   Ar  172   4.461   5.303   4.435
    1   AR   Ar  173   1.993   3.292   6.956
    1   AR   Ar  174   4.238   4.806   6.251
    1   AR   Ar  175   3.844   3.376   5.896
    1   AR   Ar  176   3.750   5.020   5.206
    1   AR   Ar  177   5.784   5.722  -0.248
    1   AR   Ar  178   3.165   6.413   1.400
    1   AR   Ar  179   3.745   5.833   0.601
    1   AR   Ar  180   3.392   3.704  -2.017
    1   AR   Ar  181   2.531   5.643   1.554
    1   AR   Ar  182   2.689   6.680   2.331
    1   AR   Ar  183   3.257   4.516   2.436
    1   AR   Ar  184   4.093   6.138   1.876
    1   AR   Ar  185   1.419   5.591   4.462
    1   AR   Ar  186   3.361   5.803   4.093
    1   AR   Ar  187   4.311   5.950   2.982
    1   AR   Ar  188   3.114   5.689   2.417
    1   AR   Ar  189   2.874   4.903   5.822
    1   AR   Ar  190   4.350   6.179   5.853
    1   AR   Ar  191   4.987   5.536   5.351
    1   AR   Ar  192   3.944   6.055   4.919
    1   AR   Ar  193   6.693   6.394  -0.408
    1   AR   Ar  194   5.761   5.624  -1.294
    1   AR   Ar  195   6.025   0.452  -0.251
    1   AR   Ar  196   5.541   0.804  -1.149
    1   AR   Ar  197   5.304   0.948   0.746
    1   AR   Ar  198   5.848   1.783   1.386
    1   AR   Ar  199   5.361   0.865   1.776
    1   AR   Ar  200   6.435   1.357   0.404
    1   AR   Ar  201   4.694   6.817   3.326
    1   AR   Ar  202   5.157   2.165   4.259
    1   AR   Ar  203   0.115   6.517   4.751
    1   AR   Ar  204   5.067   0.393   3.982
    1   AR   Ar  205   6.164   0.002   3.097
    1   AR   Ar  206   5.117   0.006   4.921
    1   AR   Ar  207   6.644   0.576   5.997
    1   AR   Ar  208   0.069   0.824   3.961
    1   AR   Ar  209   4.995   2.258  -2.366
    1   AR   Ar  210   3.978   1.139   0.974
    1   AR   Ar  211   6.060   2.891   0.159
    1   AR   Ar  212   6.233   3.955  -1.851
    1   AR   Ar  213   3.358   2.357   2.361
    1   AR   Ar  214   4.060   3.343   2.592
    1   AR   Ar  215   5.779   2.353   2.592
    1   AR   Ar  216   6.773   2.672   1.922
    1   AR   Ar  217   4.577   3.267   3.619
    1   AR   Ar  218   4.417   2.977   5.161
    1   AR   Ar  219   5.006   1.581   3.291
    1   AR   Ar  220   5.244   3.325   2.644
    1   AR   Ar  221   6.663   0.381   4.824
    1   AR   Ar  222   4.991   1.658   5.933
    1   AR   Ar  223   6.766   1.040   6.977
    1   AR   Ar  224   5.670   2.146   5.264
    1   AR   Ar  225   5.226   4.760   0.051
    1   AR   Ar  226   4.834   4.350   2.420
    1   AR   Ar  227   6.540   5.006  -0.059
    1   AR   Ar  228   5.621   5.703   0.850
    1   AR   Ar  229   5.999   4.410   0.731
    1   AR   Ar  230   4.398   4.933   3.194
    1   AR   Ar  231   6.741   2.524   3.285
    1   AR   Ar  232   4.356   3.321   0.461
    1   AR   Ar  233   6.376   2.352   4.261
    1   AR   Ar  234   6.539   3.629   4.294
    1   AR   Ar  235   0.313   3.082   4.090
    1   AR   Ar  236   5.336   4.161   4.110
    1   AR   Ar  237   5.519   3.146   4.209
    1   AR   Ar  238   4.630   4.367   5.213
    1   AR   Ar  239   5.944   4.089   9.258
    1   AR   Ar  240   0.170   4.308   5.189
    1   AR   Ar  241   7.003   0.353  -0.585
    1   AR   Ar  242   4.854   5.064   1.278
    1   AR   Ar  243   5.857   4.465   2.078
    1   AR   Ar  244   0.334   5.582  -0.519
    1   AR   Ar  245   5.268   6.868   2.377
    1   AR   Ar  246   5.913   6.406   1.554
    1   AR   Ar  247   5.509   3.103   1.444
    1   AR   Ar  248   6.158   6.677   0.591
    1   AR   Ar  249   5.473   5.543   2.611
    1   AR   Ar  250   4.885   6.340   4.401
    1   AR   Ar  251   5.822   5.134   4.606
    1   AR   Ar  252   5.742   6.283   3.536
    1   AR   Ar  253   5.742   4.920   5.872
    1   AR   Ar  254   5.204   5.470   6.688
    1   AR   Ar  255   5.082   4.374   6.713
    1   AR   Ar  256   6.080   6.499   4.567
    7.12000  7.12000 12.00000
Argon-slab step 1745
  256
    1   AR   Ar    1   6.987   1.372  -0.941
    1   AR   Ar    2   6.233   0.244   1.375
    1   AR   Ar    3   7.057   7.070   0.719
    1   AR   Ar    4   0.952   0.061   0.209
    1   AR   Ar    5   6.586   5.692   0.854
    1   AR   Ar    6   0.079   0.219   2.846
    1   AR   Ar    7   0.419   5.231   2.645
    1   AR   Ar    8   7.040   6.652   2.081
    1   AR   Ar    9   1.092   0.565   4.086
    1   AR   Ar   10   0.456   1.863   4.264
    1   AR   Ar   11   3.137   6.910   4.667
    1   AR   Ar   12   1.092   1.553   2.758
    1   AR   Ar   13   6.644   1.477   4.747
    1   AR   Ar   14   0.106   1.617   6.168
    1   AR   Ar   15   0.270   6.976   9.318
    1   AR   Ar   16   0.458   1.439   5.212
    1   AR   Ar   17   0.371   1.317   0.062
    1   AR   Ar   18   6.136   3.525  -0.770
    1   AR   Ar   19   1.152   1.758   1.535
    1   AR   Ar   20   6.562   2.110  -2.454
    1   AR   Ar   21   6.164   1.199   2.607
    1   AR   Ar   22   0.118   1.815   2.257
    1   AR   Ar   23   6.915   1.066   1.370
    1   AR   Ar   24   0.215   2.306   1.061
    1   AR   Ar   25   0.064   1.258   3.074
    1   AR   Ar   26   6.319   1.454   3.605
    1   AR   Ar   27   1.767   1.204   3.512
    1   AR   Ar   28   1.289   2.613   4.956
    1   AR   Ar   29   6.080   1.874   6.191
    1   AR   Ar   30   0.564   2.939   6.057
    1   AR   Ar   31   0.404   0.163   6.799
    1   AR   Ar   32   1.622   2.741   6.128
    1   AR   Ar   33   1.082   4.472  -1.559
    1   AR   Ar   34   0.505   5.911   1.892
    1   AR   Ar   35   0.523   3.661   1.376
    1   AR   Ar   36   0.097   7.082  -1.753
    1   AR   Ar   37   0.291   3.355   2.594
    1   AR   Ar   38   7.062   4.177   2.184
    1   AR   Ar   39   1.160   4.192   2.069
    1   AR   Ar   40   1.565   3.788   0.997
    1   AR   Ar   41   0.692   2.498   3.204
    1   AR   Ar   42   6.903   5.701   5.414
    1   AR   Ar   43   6.824   2.311   5.411
    1   AR   Ar   44   0.657   3.740   3.530
    1   AR   Ar   45   0.990   3.623   5.479
    1   AR   Ar   46   0.260   5.890   6.271
    1   AR   Ar   47   5.861   3.743   5.862
    1   AR   Ar   48   6.424   6.859   6.785
    1   AR   Ar   49   6.943   5.537  -1.891
    1   AR   Ar   50   6.589   5.169   1.706
    1   AR   Ar   51   1.600   5.000   1.311
    1   AR   Ar   52   7.023   4.509  -0.882
    1   AR   Ar   53   6.295   6.130   2.553
    1   AR   Ar   54   7.028   6.497   3.496
    1   AR   Ar   55   6.387   4.879   2.961
    1   AR   Ar   56   0.908   6.502   1.143
    1   AR   Ar   57   6.313   3.576   2.702
    1   AR   Ar   58   6.713   5.702   4.274
    1   AR   Ar   59   1.830   5.831   5.556
    1   AR   Ar   60   1.128   6.528   3.996
    1   AR   Ar   61   5.872   5.987   5.550
    1   AR   Ar   62   0.825   5.840   5.277
    1   AR   Ar   63   1.542   6.533   6.824
    1   AR   Ar   64   1.475   7.085   4.842
    1   AR   Ar   65   3.212   6.999  -0.014
    1   AR   Ar   66   1.647   1.052   0.901
    1   AR   Ar   67   3.462   6.308  -1.001
    1   AR   Ar   68   3.303   1.158  -1.340
    1   AR   Ar   69   2.281   0.013   0.523
    1   AR   Ar   70   0.670   0.438   1.474
    1   AR   Ar   71   3.040   0.678   2.302
    1   AR   Ar   72   3.043   0.415   1.256
    1   AR   Ar   73   1.595   0.008   3.224
    1   AR   Ar   74   1.470   1.504   4.640
    1   AR   Ar   75   3.778   0.732   4.610
    1   AR   Ar   76   1.955   1.131   2.288
    1   AR   Ar   77   2.226   6.818   5.756
    1   AR   Ar   78   1.456   0.505   6.137
    1   AR   Ar   79   3.992   6.296   6.792
    1   AR   Ar   80   3.272   5.955   5.680
    1   AR   Ar   81   1.791   1.591   0.081
    1   AR   Ar   82   0.377   3.513  -0.693
    1   AR   Ar   83   2.610   2.621   0.522
    1   AR   Ar   84   1.431   4.002  -2.788
    1   AR   Ar   85   0.714   2.453  -0.531
    1   AR   Ar   86   1.809   3.314   2.054
    1   AR   Ar   87   2.318   2.324   1.934
    1   AR   Ar   88   3.798   4.159   1.335
    1   AR   Ar   89   0.967   2.650   2.080
    1   AR   Ar   90   2.853   1.742   4.441
    1   AR   Ar   91   1.872   2.317   4.083
    1   AR   Ar   92   1.930   2.229   2.940
    1   AR   Ar   93   2.053   2.011   5.449
    1   AR   Ar   94   2.367   0.911   7.740
    1   AR   Ar   95   3.260   6.942   5.660
    1   AR   Ar   96   2.556   0.798   5.613
    1   AR   Ar   97   3.795   2.644  -1.486
    1   AR   Ar   98   2.776   4.542   1.633
    1   AR   Ar   99   6.247   2.668  -1.306
    1   AR   Ar  100   1.787   4.091  -0.425
    1   AR   Ar  101   1.343   2.672   0.456
    1   AR   Ar  102   2.583   3.859   4.001
    1   AR   Ar  103   0.867   4.216   0.243
    1   AR   Ar  104   2.850   3.209  -0.771
    1   AR   Ar  105   1.670   3.185   3.287
    1   AR   Ar  106   2.600   3.064   4.964
    1   AR   Ar  107   1.783   3.968   4.975
    1   AR   Ar  108   3.546   3.203   4.049
    1   AR   Ar  109   1.635   4.083   3.941
    1   AR   Ar  110   1.333   4.952   5.409
    1   AR   Ar  111   4.264   5.429   7.219
    1   AR   Ar  112   0.924   4.832   6.770
    1   AR   Ar  113   2.254   4.629   0.429
    1   AR   Ar  114   2.501   6.171   0.463
    1   AR   Ar  115   3.160   4.443  -0.581
    1   AR   Ar  116   4.686   6.600   0.338
    1   AR   Ar  117   0.675   5.473   3.633
    1   AR   Ar  118   0.829   6.527   2.947
    1   AR   Ar  119   2.404   4.121   2.694
    1   AR   Ar  120   1.349   5.355   2.298
    1   AR   Ar  121   7.013   4.674   3.900
    1   AR   Ar  122   2.309   6.036   4.559
    1   AR   Ar  123   2.430   4.995   4.814
    1   AR   Ar  124   2.431   5.949   3.109
    1   AR   Ar  125   0.816   4.841   4.447
    1   AR   Ar  126   0.517   0.412   5.375
    1   AR   Ar  127   3.268   5.508   6.929
    1   AR   Ar  128   2.190   5.284   6.589
    1   AR   Ar  129   1.966   0.043   1.705
    1   AR   Ar  130   4.081   1.206  -2.263
    1   AR   Ar  131   4.945   7.067   1.394
    1   AR   Ar  132   0.312   2.201  -1.444
    1   AR   Ar  133   3.752   7.042   2.899
    1   AR   Ar  134   3.869   1.287   2.538
    1   AR   Ar  135   4.627   0.593   2.675
    1   AR   Ar  136   4.012   0.381   1.862
    1   AR   Ar  137   2.592   7.053   3.452
    1   AR   Ar  138   4.718   0.993   5.052
    1   AR   Ar  139   5.675   1.200   4.592
    1   AR   Ar  140   4.098   0.990   3.595
    1   AR   Ar  141   3.759   6.895   3.889
    1   AR   Ar  142   4.188   7.042   5.229
    1   AR   Ar  143   5.538   6.907   6.084
    1   AR   Ar  144   5.239   0.740   6.591
    1   AR   Ar  145   3.322   3.891   0.371
    1   AR   Ar  146   4.216   2.531   1.747
    1   AR   Ar  147   5.748   2.017  -0.434
    1   AR   Ar  148   5.570   3.715  -2.670
    1   AR   Ar  149   4.001   2.237   0.714
    1   AR   Ar  150   2.758   1.530   3.018
    1   AR   Ar  151   3.653   2.338   3.496
    1   AR   Ar  152   2.744   3.536   1.090
    1   AR   Ar  153   3.130   0.924   3.886
    1   AR   Ar  154   3.923   1.881   4.502
    1   AR   Ar  155   5.643   0.802   5.593
    1   AR   Ar  156   3.813   4.061   3.305
    1   AR   Ar  157   2.689   2.960   6.025
    1   AR   Ar  158   1.446   2.454   7.364
    1   AR   Ar  159   3.818   0.911   6.001
    1   AR   Ar  160   3.876   2.784   7.489
    1   AR   Ar  161   5.090   2.169   0.645
    1   AR   Ar  162   4.224   5.675  -0.450
    1   AR   Ar  163   5.251   3.627  -0.053
    1   AR   Ar  164   3.919   5.098   1.829
    1   AR   Ar  165   3.064   3.345   2.019
    1   AR   Ar  166   2.616   5.035   3.624
    1   AR   Ar  167   4.636   2.369   2.777
    1   AR   Ar  168   3.889   3.459  -0.568
    1   AR   Ar  169   2.742   2.994   3.181
    1   AR   Ar  170   3.225   3.985   4.959
    1   AR   Ar  171   4.474   3.755   4.475
    1   AR   Ar  172   4.436   5.297   4.435
    1   AR   Ar  173   1.981   3.312   6.977
    1   AR   Ar  174   4.189   4.803   6.245
    1   AR   Ar  175   3.854   3.431   5.871
    1   AR   Ar  176   3.724   5.021   5.149
    1   AR   Ar  177   5.812   5.703  -0.223
    1   AR   Ar  178   3.164   6.423   1.390
    1   AR   Ar  179   3.741   5.853   0.582
    1   AR   Ar  180   3.372   3.695  -2.028
    1   AR   Ar  181   2.516   5.640   1.536
    1   AR   Ar  182   2.680   6.686   2.341
    1   AR   Ar  183   3.272   4.518   2.448
    1   AR   Ar  184   4.095   6.164   1.842
    1   AR   Ar  185   1.404   5.599   4.442
    1   AR   Ar  186   3.377   5.827   4.118
    1   AR   Ar  187   4.308   5.954   2.969
    1   AR   Ar  188   3.114   5.669   2.414
    1   AR   Ar  189   2.858   4.876   5.810
    1   AR   Ar  190   4.394   6.193   5.867
    1   AR   Ar  191   4.971   5.533   5.356
    1   AR   Ar  192   3.964   6.015   4.945
    1   AR   Ar  193   6.695   6.389  -0.378
    1   AR   Ar  194   5.746   5.600  -1.281
    1   AR   Ar  195   6.002   0.444  -0.252
    1   AR   Ar  196   5.527   0.782  -1.149
    1   AR   Ar  197   5.343   0.954   0.708
    1   AR   Ar  198   5.825   1.792   1.369
    1   AR   Ar  199   5.335   0.860   1.756
    1   AR   Ar  200   6.428   1.376   0.407
    1   AR   Ar  201   4.724   6.821   3.343
    1   AR   Ar  202   5.156   2.138   4.277
    1   AR   Ar  203   0.095   6.548   4.753
    1   AR   Ar  204   5.059   0.411   4.000
    1   AR   Ar  205   6.161   0.001   3.084
    1   AR   Ar  206   5.109   7.105   4.949
    1   AR   Ar  207   6.626   0.591   6.015
    1   AR   Ar  208   0.075   0.823   3.964
    1   AR   Ar  209   4.959   2.251  -2.346
    1   AR   Ar  210   3.952   1.131   0.963
    1   AR   Ar  211   6.076   2.921   0.160
    1   AR   Ar  212   6.260   3.946  -1.846
    1   AR   Ar  213   3.342   2.370   2.330
    1   AR   Ar  214   4.065   3.328   2.574
    1   AR   Ar  215   5.784   2.378   2.593
    1   AR   Ar  216   6.777   2.660   1.928
    1   AR   Ar  217   4.548   3.253   3.611
    1   AR   Ar  218   4.418   3.014   5.151
    1   AR   Ar  219   5.025   1.584   3.287
    1   AR   Ar  220   5.237   3.294   2.649
    1   AR   Ar  221   6.690   0.410   4.829
    1   AR   Ar  222   4.966   1.697   5.961
    1   AR   Ar  223   6.783   1.039   6.987
    1   AR   Ar  224   5.682   2.130   5.288
    1   AR   Ar  225   5.212   4.727   0.062
    1   AR   Ar  226   4.850   4.361   2.415
    1   AR   Ar  227   6.563   5.034  -0.085
    1   AR   Ar  228   5.601   5.724   0.862
    1   AR   Ar  229   6.007   4.412   0.715
    1   AR   Ar  230   4.380   4.972   3.185
    1   AR   Ar  231   6.770   2.494   3.282
    1   AR   Ar  232   4.385   3.320   0.440
    1   AR   Ar  233   6.340   2.344   4.266
    1   AR   Ar  234   6.575   3.627   4.280
    1   AR   Ar  235   0.308   3.064   4.110
    1   AR   Ar  236   5.305   4.142   4.116
    1   AR   Ar  237   5.525   3.124   4.205
    1   AR   Ar  238   4.622   4.375   5.191
    1   AR   Ar  239   5.928   4.083   9.255
    1   AR   Ar  240   0.142   4.296   5.197
    1   AR   Ar  241   6.990   0.354  -0.609
    1   AR   Ar  242   4.852   5.023   1.294
    1   AR   Ar  243   5.843   4.461   2.084
    1   AR   Ar  244   0.347   5.583  -0.517
    1   AR   Ar  245   5.281   6.925   2.384
    1   AR   Ar  246   5.906   6.437   1.547
    1   AR   Ar  247   5.499   3.124   1.443
    1   AR   Ar  248   6.161   6.676   0.592
    1   AR   Ar  249   5.484   5.531   2.613
    1   AR   Ar  250   4.876   6.341   4.407
    1   AR   Ar  251   5.813   5.135   4.599
    1   AR   Ar  252   5.755   6.274   3.552
    1   AR   Ar  253   5.760   4.931   5.859
    1   AR   Ar  254   5.231   5.458   6.683
    1   AR   Ar  255   5.096   4.385   6.738
    1   AR   Ar  256   6.054   6.559   4.545
    7.12000  7.12000 12.00000
Argon-slab step 1750
  256
    1   AR   Ar    1   6.960   1.368  -0.961
    1   AR   Ar    2   6.209   0.266   1.384
    1   AR   Ar    3   7.068   7.081   0.729
    1   AR   Ar    4   0.963   0.073   0.166
    1   AR   Ar    5   6.579   5.699   0.848
    1   AR   Ar    6   0.076   0.240   2.844
    1   AR   Ar    7   0.439   5.229   2.679
    1   AR   Ar    8   7.059   6.654   2.058
    1   AR   Ar    9   1.089   0.533   4.110
    1   AR   Ar   10   0.449   1.863   4.236
    1   AR   Ar   11   3.131   6.894   4.668
    1   AR   Ar   12   1.097   1.542   2.720
    1   AR   Ar   13   6.685   1.511   4.740
    1   AR   Ar   14   0.114   1.612   6.155
    1   AR   Ar   15   0.255   6.998   9.309
    1   AR   Ar   16   0.490   1.431   5.227
    1   AR   Ar   17   0.383   1.300   0.085
    1   AR   Ar   18   6.165   3.530  -0.765
    1   AR   Ar   19   1.142   1.765   1.571
    1   AR   Ar   20   6.550   2.108  -2.429
    1   AR   Ar   21   6.152   1.194   2.602
    1   AR   Ar   22   0.142   1.823   2.235
    1   AR   Ar   23   6.874   1.066   1.350
    1   AR   Ar   24   0.227   2.309   1.076
    1   AR   Ar   25   0.086   1.255   3.078
    1   AR   Ar   26   6.331   1.438   3.625
    1   AR   Ar   27   1.772   1.217   3.527
    1   AR   Ar   28   1.291   2.601   4.963
    1   AR   Ar   29   6.108   1.833   6.197
    1   AR   Ar   30   0.583   2.938   6.059
    1   AR   Ar   31   0.424   0.129   6.792
    1   AR   Ar   32   1.597   2.747   6.107
    1   AR   Ar   33   1.085   4.454  -1.548
    1   AR   Ar   34   0.499   5.917   1.951
    1   AR   Ar   35   0.540   3.676   1.347
    1   AR   Ar   36   0.084   7.064  -1.759
    1   AR   Ar   37   0.307   3.341   2.622
    1   AR   Ar   38   7.058   4.173   2.150
    1   AR   Ar   39   1.170   4.190   2.081
    1   AR   Ar   40   1.541   3.785   0.996
    1   AR   Ar   41   0.657   2.513   3.213
    1   AR   Ar   42   6.915   5.700   5.429
    1   AR   Ar   43   6.852   2.285   5.392
    1   AR   Ar   44   0.659   3.721   3.498
    1   AR   Ar   45   1.020   3.632   5.462
    1   AR   Ar   46   0.270   5.912   6.260
    1   AR   Ar   47   5.852   3.729   5.896
    1   AR   Ar   48   6.433   6.883   6.769
    1   AR   Ar   49   6.954   5.554  -1.910
    1   AR   Ar   50   6.590   5.162   1.706
    1   AR   Ar   51   1.560   4.990   1.289
    1   AR   Ar   52   7.007   4.512  -0.870
    1   AR   Ar   53   6.285   6.136   2.547
    1   AR   Ar   54   6.984   6.521   3.482
    1   AR   Ar   55   6.381   4.852   2.950
    1   AR   Ar   56   0.887   6.510   1.143
    1   AR   Ar   57   6.309   3.568   2.694
    1   AR   Ar   58   6.686   5.702   4.260
    1   AR   Ar   59   1.856   5.817   5.545
    1   AR   Ar   60   1.116   6.556   3.968
    1   AR   Ar   61   5.859   5.968   5.513
    1   AR   Ar   62   0.841   5.844   5.258
    1   AR   Ar   63   1.545   6.553   6.865
    1   AR   Ar   64   1.465   7.076   4.850
    1   AR   Ar   65   3.204   7.022   0.014
    1   AR   Ar   66   1.641   1.029   0.907
    1   AR   Ar   67   3.484   6.322  -1.011
    1   AR   Ar   68   3.313   1.189  -1.356
    1   AR   Ar   69   2.287   0.009   0.559
    1   AR   Ar   70   0.629   0.454   1.464
    1   AR   Ar   71   3.033   0.665   2.305
    1   AR   Ar   72   3.046   0.425   1.261
    1   AR   Ar   73   1.614   7.101   3.228
    1   AR   Ar   74   1.501   1.508   4.667
    1   AR   Ar   75   3.793   0.767   4.608
    1   AR   Ar   76   1.984   1.131   2.287
    1   AR   Ar   77   2.224   6.801   5.717
    1   AR   Ar   78   1.424   0.530   6.144
    1   AR   Ar   79   3.974   6.303   6.770
    1   AR   Ar   80   3.248   5.960   5.655
    1   AR   Ar   81   1.834   1.597   0.048
    1   AR   Ar   82   0.399   3.485  -0.708
    1   AR   Ar   83   2.594   2.625   0.528
    1   AR   Ar   84   1.396   4.008  -2.742
    1   AR   Ar   85   0.698   2.425  -0.529
    1   AR   Ar   86   1.838   3.317   2.045
    1   AR   Ar   87   2.329   2.324   1.927
    1   AR   Ar   88   3.819   4.102   1.365
    1   AR   Ar   89   0.941   2.692   2.034
    1   AR   Ar   90   2.872   1.782   4.424
    1   AR   Ar   91   1.875   2.312   4.069
    1   AR   Ar   92   1.949   2.230   2.957
    1   AR   Ar   93   2.034   1.989   5.443
    1   AR   Ar   94   2.343   0.922   7.757
    1   AR   Ar   95   3.274   6.952   5.673
    1   AR   Ar   96   2.514   0.796   5.628
    1   AR   Ar   97   3.785   2.629  -1.517
    1   AR   Ar   98   2.773   4.525   1.573
    1   AR   Ar   99   6.280   2.671  -1.308
    1   AR   Ar  100   1.808   4.074  -0.423
    1   AR   Ar  101   1.324   2.647   0.482
    1   AR   Ar  102   2.593   3.837   3.993
    1   AR   Ar  103   0.905   4.222   0.251
    1   AR   Ar  104   2.844   3.145  -0.761
    1   AR   Ar  105   1.705   3.174   3.263
    1   AR   Ar  106   2.611   3.060   4.969
    1   AR   Ar  107   1.780   3.941   4.971
    1   AR   Ar  108   3.565   3.169   4.062
    1   AR   Ar  109   1.635   4.090   3.951
    1   AR   Ar  110   1.309   4.942   5.420
    1   AR   Ar  111   4.262   5.426   7.193
    1   AR   Ar  112   0.894   4.843   6.768
    1   AR   Ar  113   2.238   4.639   0.441
    1   AR   Ar  114   2.508   6.152   0.451
    1   AR   Ar  115   3.152   4.442  -0.575
    1   AR   Ar  116   4.689   6.581   0.325
    1   AR   Ar  117   0.674   5.479   3.648
    1   AR   Ar  118   0.789   6.507   2.979
    1   AR   Ar  119   2.383   4.131   2.706
    1   AR   Ar  120   1.342   5.376   2.259
    1   AR   Ar  121   7.032   4.706   3.891
    1   AR   Ar  122   2.316   6.038   4.578
    1   AR   Ar  123   2.424   5.031   4.812
    1   AR   Ar  124   2.417   5.952   3.073
    1   AR   Ar  125   0.817   4.825   4.499
    1   AR   Ar  126   0.518   0.384   5.352
    1   AR   Ar  127   3.268   5.515   6.943
    1   AR   Ar  128   2.195   5.283   6.586
    1   AR   Ar  129   1.942   0.046   1.727
    1   AR   Ar  130   4.052   1.200  -2.317
    1   AR   Ar  131   4.928   7.087   1.339
    1   AR   Ar  132   0.337   2.222  -1.439
    1   AR   Ar  133   3.742   7.056   2.905
    1   AR   Ar  134   3.876   1.282   2.563
    1   AR   Ar  135   4.664   0.604   2.642
    1   AR   Ar  136   4.014   0.329   1.855
    1   AR   Ar  137   2.584   7.049   3.437
    1   AR   Ar  138   4.748   0.982   5.030
    1   AR   Ar  139   5.642   1.177   4.609
    1   AR   Ar  140   4.096   0.983   3.581
    1   AR   Ar  141   3.776   6.906   3.933
    1   AR   Ar  142   4.183   7.037   5.244
    1   AR   Ar  143   5.503   6.917   6.093
    1   AR   Ar  144   5.265   0.753   6.598
    1   AR   Ar  145   3.332   3.873   0.352
    1   AR   Ar  146   4.197   2.540   1.730
    1   AR   Ar  147   5.751   2.011  -0.471
    1   AR   Ar  148   5.553   3.709  -2.648
    1   AR   Ar  149   3.997   2.244   0.720
    1   AR   Ar  150   2.744   1.503   3.017
    1   AR   Ar  151   3.629   2.348   3.472
    1   AR   Ar  152   2.718   3.535   1.024
    1   AR   Ar  153   3.105   0.957   3.881
    1   AR   Ar  154   3.920   1.874   4.502
    1   AR   Ar  155   5.613   0.791   5.579
    1   AR   Ar  156   3.804   4.052   3.336
    1   AR   Ar  157   2.682   2.970   6.010
    1   AR   Ar  158   1.467   2.437   7.370
    1   AR   Ar  159   3.822   0.893   5.996
    1   AR   Ar  160   3.869   2.763   7.498
    1   AR   Ar  161   5.110   2.168   0.637
    1   AR   Ar  162   4.212   5.691  -0.443
    1   AR   Ar  163   5.248   3.636  -0.065
    1   AR   Ar  164   3.917   5.080   1.816
    1   AR   Ar  165   3.056   3.343   1.977
    1   AR   Ar  166   2.611   5.023   3.648
    1   AR   Ar  167   4.628   2.381   2.820
    1   AR   Ar  168   3.909   3.436  -0.603
    1   AR   Ar  169   2.747   3.000   3.189
    1   AR   Ar  170   3.248   3.959   4.986
    1   AR   Ar  171   4.480   3.762   4.459
    1   AR   Ar  172   4.417   5.284   4.426
    1   AR   Ar  173   1.971   3.333   6.996
    1   AR   Ar  174   4.141   4.801   6.238
    1   AR   Ar  175   3.858   3.490   5.851
    1   AR   Ar  176   3.692   5.018   5.125
    1   AR   Ar  177   5.835   5.688  -0.195
    1   AR   Ar  178   3.156   6.423   1.397
    1   AR   Ar  179   3.737   5.873   0.563
    1   AR   Ar  180   3.352   3.686  -2.036
    1   AR   Ar  181   2.497   5.632   1.515
    1   AR   Ar  182   2.674   6.694   2.352
    1   AR   Ar  183   3.310   4.523   2.477
    1   AR   Ar  184   4.100   6.194   1.809
    1   AR   Ar  185   1.399   5.616   4.422
    1   AR   Ar  186   3.389   5.850   4.139
    1   AR   Ar  187   4.322   5.930   2.981
    1   AR   Ar  188   3.122   5.645   2.407
    1   AR   Ar  189   2.819   4.857   5.801
    1   AR   Ar  190   4.439   6.210   5.883
    1   AR   Ar  191   4.953   5.522   5.356
    1   AR   Ar  192   3.986   5.986   4.969
    1   AR   Ar  193   6.695   6.384  -0.346
    1   AR   Ar  194   5.732   5.575  -1.269
    1   AR   Ar  195   5.981   0.441  -0.264
    1   AR   Ar  196   5.518   0.770  -1.150
    1   AR   Ar  197   5.384   0.962   0.666
    1   AR   Ar  198   5.805   1.800   1.352
    1   AR   Ar  199   5.311   0.856   1.742
    1   AR   Ar  200   6.419   1.395   0.411
    1   AR   Ar  201   4.756   6.824   3.359
    1   AR   Ar  202   5.153   2.108   4.295
    1   AR   Ar  203   0.077   6.580   4.754
    1   AR   Ar  204   5.052   0.435   4.018
    1   AR   Ar  205   6.159   0.013   3.052
    1   AR   Ar  206   5.123   7.095   4.987
    1   AR   Ar  207   6.610   0.604   6.030
    1   AR   Ar  208   0.079   0.819   3.976
    1   AR   Ar  209   4.924   2.245  -2.325
    1   AR   Ar  210   3.925   1.122   0.953
    1   AR   Ar  211   6.092   2.949   0.162
    1   AR   Ar  212   6.288   3.936  -1.838
    1   AR   Ar  213   3.327   2.379   2.304
    1   AR   Ar  214   4.048   3.317   2.560
    1   AR   Ar  215   5.770   2.359   2.575
    1   AR   Ar  216   6.778   2.655   1.934
    1   AR   Ar  217   4.521   3.234   3.594
    1   AR   Ar  218   4.425   3.042   5.139
    1   AR   Ar  219   5.047   1.581   3.287
    1   AR   Ar  220   5.227   3.265   2.653
    1   AR   Ar  221   6.714   0.437   4.836
    1   AR   Ar  222   4.940   1.734   5.989
    1   AR   Ar  223   6.800   1.036   6.998
    1   AR   Ar  224   5.694   2.115   5.302
    1   AR   Ar  225   5.198   4.697   0.072
    1   AR   Ar  226   4.866   4.364   2.446
    1   AR   Ar  227   6.590   5.060  -0.107
    1   AR   Ar  228   5.567   5.742   0.870
    1   AR   Ar  229   6.016   4.415   0.700
    1   AR   Ar  230   4.362   5.004   3.178
    1   AR   Ar  231   6.796   2.465   3.278
    1   AR   Ar  232   4.409   3.317   0.422
    1   AR   Ar  233   6.302   2.340   4.272
    1   AR   Ar  234   6.607   3.629   4.267
    1   AR   Ar  235   0.299   3.027   4.142
    1   AR   Ar  236   5.285   4.132   4.116
    1   AR   Ar  237   5.531   3.101   4.200
    1   AR   Ar  238   4.618   4.397   5.183
    1   AR   Ar  239   5.912   4.076   9.252
    1   AR   Ar  240   0.114   4.285   5.203
    1   AR   Ar  241   6.980   0.353  -0.632
    1   AR   Ar  242   4.851   4.981   1.310
    1   AR   Ar  243   5.827   4.437   2.091
    1   AR   Ar  244   0.358   5.582  -0.514
    1   AR   Ar  245   5.297   6.979   2.393
    1   AR   Ar  246   5.927   6.458   1.562
    1   AR   Ar  247   5.487   3.144   1.442
    1   AR   Ar  248   6.150   6.654   0.590
    1   AR   Ar  249   5.512   5.508   2.627
    1   AR   Ar  250   4.863   6.329   4.402
    1   AR   Ar  251   5.802   5.137   4.593
    1   AR   Ar  252   5.766   6.261   3.568
    1   AR   Ar  253   5.779   4.942   5.845
    1   AR   Ar  254   5.257   5.449   6.676
    1   AR   Ar  255   5.111   4.395   6.762
    1   AR   Ar  256   6.027   6.619   4.526
    7.12000  7.12000 12.00000
Argon-slab step 1755
  256
    1   AR   Ar    1   6.931   1.366  -0.979
    1   AR   Ar    2   6.184   0.297   1.392
    1   AR   Ar    3   7.079   7.087   0.741
    1   AR   Ar    4   0.974   0.085   0.125
    1   AR   Ar    5   6.580   5.709   0.834
    1   AR   Ar    6   0.075   0.261   2.842
    1   AR   Ar    7   0.449   5.218   2.719
    1   AR   Ar    8   7.062   6.680   2.033
    1   AR   Ar    9   1.086   0.507   4.129
    1   AR   Ar   10   0.443   1.864   4.205
    1   AR   Ar   11   3.115   6.876   4.673
    1   AR   Ar   12   1.100   1.533   2.683
    1   AR   Ar   13   6.723   1.538   4.732
    1   AR   Ar   14   0.099   1.611   6.165
    1   AR   Ar   15   0.240   7.020   9.299
    1   AR   Ar   16   0.527   1.425   5.238
    1   AR   Ar   17   0.404   1.262   0.063
    1   AR   Ar   18   6.194   3.542  -0.758
    1   AR   Ar   19   1.133   1.771   1.607
    1   AR   Ar   20   6.538   2.106  -2.402
    1   AR   Ar   21   6.139   1.189   2.594
    1   AR   Ar   22   0.170   1.829   2.211
    1   AR   Ar   23   6.834   1.070   1.330
    1   AR   Ar   24   0.241   2.311   1.091
    1   AR   Ar   25   0.110   1.256   3.079
    1   AR   Ar   26   6.340   1.425   3.651
    1   AR   Ar   27   1.785   1.225   3.541
    1   AR   Ar   28   1.304   2.590   4.956
    1   AR   Ar   29   6.139   1.788   6.207
    1   AR   Ar   30   0.594   2.932   6.063
    1   AR   Ar   31   0.443   0.097   6.783
    1   AR   Ar   32   1.575   2.754   6.085
    1   AR   Ar   33   1.088   4.436  -1.538
    1   AR   Ar   34   0.506   5.906   2.001
    1   AR   Ar   35   0.557   3.697   1.311
    1   AR   Ar   36   0.070   7.046  -1.764
    1   AR   Ar   37   0.303   3.347   2.600
    1   AR   Ar   38   7.052   4.177   2.114
    1   AR   Ar   39   1.180   4.189   2.093
    1   AR   Ar   40   1.522   3.780   0.997
    1   AR   Ar   41   0.637   2.527   3.220
    1   AR   Ar   42   6.919   5.695   5.432
    1   AR   Ar   43   6.857   2.269   5.393
    1   AR   Ar   44   0.666   3.709   3.466
    1   AR   Ar   45   1.037   3.640   5.450
    1   AR   Ar   46   0.287   5.937   6.260
    1   AR   Ar   47   5.842   3.716   5.929
    1   AR   Ar   48   6.442   6.908   6.753
    1   AR   Ar   49   6.964   5.571  -1.928
    1   AR   Ar   50   6.585   5.155   1.701
    1   AR   Ar   51   1.521   4.977   1.266
    1   AR   Ar   52   6.993   4.511  -0.863
    1   AR   Ar   53   6.281   6.145   2.543
    1   AR   Ar   54   6.937   6.542   3.472
    1   AR   Ar   55   6.363   4.812   2.932
    1   AR   Ar   56   0.867   6.520   1.143
    1   AR   Ar   57   6.304   3.559   2.686
    1   AR   Ar   58   6.660   5.703   4.246
    1   AR   Ar   59   1.887   5.804   5.535
    1   AR   Ar   60   1.094   6.564   3.946
    1   AR   Ar   61   5.850   5.954   5.475
    1   AR   Ar   62   0.850   5.855   5.240
    1   AR   Ar   63   1.547   6.574   6.904
    1   AR   Ar   64   1.459   7.062   4.865
    1   AR   Ar   65   3.198   7.043   0.042
    1   AR   Ar   66   1.634   1.001   0.916
    1   AR   Ar   67   3.507   6.336  -1.020
    1   AR   Ar   68   3.325   1.220  -1.373
    1   AR   Ar   69   2.288   0.013   0.599
    1   AR   Ar   70   0.591   0.469   1.454
    1   AR   Ar   71   3.024   0.651   2.311
    1   AR   Ar   72   3.049   0.434   1.265
    1   AR   Ar   73   1.628   7.080   3.227
    1   AR   Ar   74   1.529   1.509   4.692
    1   AR   Ar   75   3.810   0.798   4.610
    1   AR   Ar   76   2.014   1.132   2.285
    1   AR   Ar   77   2.220   6.785   5.677
    1   AR   Ar   78   1.388   0.562   6.142
    1   AR   Ar   79   3.951   6.318   6.751
    1   AR   Ar   80   3.217   5.954   5.636
    1   AR   Ar   81   1.876   1.606   0.012
    1   AR   Ar   82   0.420   3.457  -0.724
    1   AR   Ar   83   2.577   2.625   0.533
    1   AR   Ar   84   1.361   4.015  -2.696
    1   AR   Ar   85   0.687   2.419  -0.521
    1   AR   Ar   86   1.869   3.321   2.036
    1   AR   Ar   87   2.339   2.323   1.920
    1   AR   Ar   88   3.839   4.044   1.396
    1   AR   Ar   89   0.914   2.735   1.990
    1   AR   Ar   90   2.885   1.828   4.409
    1   AR   Ar   91   1.880   2.308   4.053
    1   AR   Ar   92   1.968   2.226   2.972
    1   AR   Ar   93   2.055   1.982   5.447
    1   AR   Ar   94   2.320   0.934   7.773
    1   AR   Ar   95   3.285   6.973   5.695
    1   AR   Ar   96   2.472   0.792   5.643
    1   AR   Ar   97   3.773   2.612  -1.529
    1   AR   Ar   98   2.767   4.507   1.508
    1   AR   Ar   99   6.314   2.668  -1.313
    1   AR   Ar  100   1.829   4.056  -0.420
    1   AR   Ar  101   1.304   2.622   0.510
    1   AR   Ar  102   2.614   3.813   3.987
    1   AR   Ar  103   0.942   4.229   0.257
    1   AR   Ar  104   2.838   3.081  -0.751
    1   AR   Ar  105   1.735   3.170   3.241
    1   AR   Ar  106   2.619   3.057   4.968
    1   AR   Ar  107   1.796   3.920   4.959
    1   AR   Ar  108   3.581   3.141   4.080
    1   AR   Ar  109   1.624   4.101   3.957
    1   AR   Ar  110   1.287   4.922   5.433
    1   AR   Ar  111   4.268   5.417   7.171
    1   AR   Ar  112   0.865   4.855   6.764
    1   AR   Ar  113   2.222   4.639   0.451
    1   AR   Ar  114   2.518   6.125   0.439
    1   AR   Ar  115   3.144   4.441  -0.569
    1   AR   Ar  116   4.698   6.556   0.302
    1   AR   Ar  117   0.672   5.489   3.666
    1   AR   Ar  118   0.746   6.483   3.003
    1   AR   Ar  119   2.357   4.137   2.719
    1   AR   Ar  120   1.345   5.396   2.220
    1   AR   Ar  121   7.050   4.737   3.880
    1   AR   Ar  122   2.330   6.048   4.595
    1   AR   Ar  123   2.416   5.063   4.811
    1   AR   Ar  124   2.396   5.957   3.044
    1   AR   Ar  125   0.796   4.832   4.521
    1   AR   Ar  126   0.521   0.353   5.331
    1   AR   Ar  127   3.261   5.519   6.954
    1   AR   Ar  128   2.198   5.283   6.581
    1   AR   Ar  129   1.918   0.051   1.746
    1   AR   Ar  130   4.023   1.195  -2.370
    1   AR   Ar  131   4.912   7.103   1.282
    1   AR   Ar  132   0.356   2.242  -1.442
    1   AR   Ar  133   3.732   7.072   2.906
    1   AR   Ar  134   3.881   1.282   2.587
    1   AR   Ar  135   4.701   0.619   2.615
    1   AR   Ar  136   4.014   0.276   1.847
    1   AR   Ar  137   2.588   7.045   3.424
    1   AR   Ar  138   4.769   0.973   5.011
    1   AR   Ar  139   5.618   1.157   4.619
    1   AR   Ar  140   4.099   0.975   3.567
    1   AR   Ar  141   3.803   6.918   3.972
    1   AR   Ar  142   4.171   7.034   5.257
    1   AR   Ar  143   5.468   6.925   6.099
    1   AR   Ar  144   5.280   0.760   6.603
    1   AR   Ar  145   3.353   3.859   0.323
    1   AR   Ar  146   4.181   2.550   1.715
    1   AR   Ar  147   5.756   2.005  -0.506
    1   AR   Ar  148   5.535   3.701  -2.626
    1   AR   Ar  149   3.991   2.250   0.724
    1   AR   Ar  150   2.733   1.477   3.015
    1   AR   Ar  151   3.606   2.352   3.442
    1   AR   Ar  152   2.680   3.534   0.967
    1   AR   Ar  153   3.072   0.984   3.868
    1   AR   Ar  154   3.921   1.868   4.501
    1   AR   Ar  155   5.586   0.779   5.569
    1   AR   Ar  156   3.795   4.044   3.368
    1   AR   Ar  157   2.676   2.980   5.997
    1   AR   Ar  158   1.488   2.420   7.374
    1   AR   Ar  159   3.827   0.874   5.989
    1   AR   Ar  160   3.863   2.742   7.508
    1   AR   Ar  161   5.130   2.168   0.628
    1   AR   Ar  162   4.202   5.707  -0.435
    1   AR   Ar  163   5.251   3.646  -0.079
    1   AR   Ar  164   3.903   5.081   1.820
    1   AR   Ar  165   3.048   3.343   1.940
    1   AR   Ar  166   2.607   5.010   3.673
    1   AR   Ar  167   4.615   2.397   2.861
    1   AR   Ar  168   3.929   3.414  -0.638
    1   AR   Ar  169   2.764   3.009   3.198
    1   AR   Ar  170   3.272   3.934   5.012
    1   AR   Ar  171   4.464   3.762   4.439
    1   AR   Ar  172   4.406   5.263   4.407
    1   AR   Ar  173   1.961   3.354   7.015
    1   AR   Ar  174   4.092   4.801   6.229
    1   AR   Ar  175   3.858   3.554   5.835
    1   AR   Ar  176   3.650   5.008   5.148
    1   AR   Ar  177   5.850   5.681  -0.166
    1   AR   Ar  178   3.158   6.428   1.407
    1   AR   Ar  179   3.733   5.895   0.546
    1   AR   Ar  180   3.332   3.676  -2.044
    1   AR   Ar  181   2.467   5.628   1.513
    1   AR   Ar  182   2.670   6.704   2.363
    1   AR   Ar  183   3.353   4.527   2.510
    1   AR   Ar  184   4.108   6.223   1.779
    1   AR   Ar  185   1.401   5.638   4.399
    1   AR   Ar  186   3.399   5.873   4.156
    1   AR   Ar  187   4.334   5.924   2.988
    1   AR   Ar  188   3.137   5.620   2.396
    1   AR   Ar  189   2.783   4.839   5.792
    1   AR   Ar  190   4.487   6.231   5.899
    1   AR   Ar  191   4.933   5.504   5.351
    1   AR   Ar  192   4.011   5.971   4.993
    1   AR   Ar  193   6.696   6.380  -0.314
    1   AR   Ar  194   5.720   5.550  -1.257
    1   AR   Ar  195   5.961   0.438  -0.269
    1   AR   Ar  196   5.523   0.796  -1.155
    1   AR   Ar  197   5.426   0.968   0.624
    1   AR   Ar  198   5.787   1.807   1.338
    1   AR   Ar  199   5.288   0.854   1.732
    1   AR   Ar  200   6.408   1.414   0.413
    1   AR   Ar  201   4.788   6.826   3.373
    1   AR   Ar  202   5.148   2.077   4.313
    1   AR   Ar  203   0.060   6.612   4.755
    1   AR   Ar  204   5.060   0.424   4.017
    1   AR   Ar  205   6.156   0.028   3.020
    1   AR   Ar  206   5.154   7.091   5.029
    1   AR   Ar  207   6.595   0.618   6.043
    1   AR   Ar  208   0.081   0.811   3.994
    1   AR   Ar  209   4.888   2.238  -2.304
    1   AR   Ar  210   3.900   1.111   0.945
    1   AR   Ar  211   6.107   2.976   0.166
    1   AR   Ar  212   6.316   3.926  -1.828
    1   AR   Ar  213   3.312   2.385   2.284
    1   AR   Ar  214   4.033   3.308   2.534
    1   AR   Ar  215   5.759   2.337   2.557
    1   AR   Ar  216   6.774   2.658   1.941
    1   AR   Ar  217   4.498   3.210   3.570
    1   AR   Ar  218   4.435   3.058   5.127
    1   AR   Ar  219   5.072   1.571   3.290
    1   AR   Ar  220   5.216   3.240   2.657
    1   AR   Ar  221   6.739   0.441   4.817
    1   AR   Ar  222   4.905   1.745   5.999
    1   AR   Ar  223   6.787   1.024   7.008
    1   AR   Ar  224   5.706   2.100   5.309
    1   AR   Ar  225   5.183   4.671   0.083
    1   AR   Ar  226   4.877   4.366   2.477
    1   AR   Ar  227   6.622   5.081  -0.123
    1   AR   Ar  228   5.525   5.757   0.878
    1   AR   Ar  229   6.026   4.419   0.687
    1   AR   Ar  230   4.371   5.030   3.190
    1   AR   Ar  231   6.809   2.434   3.272
    1   AR   Ar  232   4.428   3.311   0.408
    1   AR   Ar  233   6.264   2.339   4.277
    1   AR   Ar  234   6.634   3.634   4.253
    1   AR   Ar  235   0.292   2.979   4.178
    1   AR   Ar  236   5.282   4.133   4.109
    1   AR   Ar  237   5.523   3.110   4.192
    1   AR   Ar  238   4.617   4.430   5.187
    1   AR   Ar  239   5.897   4.070   9.249
    1   AR   Ar  240   0.087   4.275   5.208
    1   AR   Ar  241   6.972   0.349  -0.654
    1   AR   Ar  242   4.853   4.937   1.325
    1   AR   Ar  243   5.814   4.407   2.094
    1   AR   Ar  244   0.352   5.579  -0.511
    1   AR   Ar  245   5.319   7.026   2.399
    1   AR   Ar  246   5.951   6.470   1.591
    1   AR   Ar  247   5.476   3.163   1.442
    1   AR   Ar  248   6.133   6.633   0.579
    1   AR   Ar  249   5.531   5.480   2.641
    1   AR   Ar  250   4.849   6.310   4.391
    1   AR   Ar  251   5.790   5.138   4.589
    1   AR   Ar  252   5.776   6.246   3.582
    1   AR   Ar  253   5.797   4.950   5.831
    1   AR   Ar  254   5.283   5.444   6.667
    1   AR   Ar  255   5.126   4.403   6.785
    1   AR   Ar  256   6.001   6.680   4.510
    7.12000  7.12000 12.00000
Argon-slab step 1760
  256
    1   AR   Ar    1   6.901   1.355  -0.997
    1   AR   Ar    2   6.157   0.332   1.400
    1   AR   Ar    3   7.076   7.068   0.765
    1   AR   Ar    4   0.984   0.097   0.096
    1   AR   Ar    5   6.585   5.720   0.817
    1   AR   Ar    6   0.067   0.277   2.835
    1   AR   Ar    7   0.450   5.196   2.760
    1   AR   Ar    8   7.053   6.723   2.007
    1   AR   Ar    9   1.081   0.487   4.142
    1   AR   Ar   10   0.441   1.867   4.171
    1   AR   Ar   11   3.091   6.857   4.684
    1   AR   Ar   12   1.086   1.524   2.682
    1   AR   Ar   13   6.755   1.552   4.720
    1   AR   Ar   14   0.084   1.608   6.178
    1   AR   Ar   15   0.226   7.042   9.290
    1   AR   Ar   16   0.568   1.419   5.246
    1   AR   Ar   17   0.425   1.238   0.045
    1   AR   Ar   18   6.224   3.558  -0.749
    1   AR   Ar   19   1.124   1.774   1.641
    1   AR   Ar   20   6.548   2.106  -2.376
    1   AR   Ar   21   6.127   1.183   2.585
    1   AR   Ar   22   0.201   1.832   2.183
    1   AR   Ar   23   6.798   1.081   1.311
    1   AR   Ar   24   0.257   2.311   1.107
    1   AR   Ar   25   0.152   1.252   3.075
    1   AR   Ar   26   6.346   1.412   3.679
    1   AR   Ar   27   1.825   1.215   3.548
    1   AR   Ar   28   1.317   2.580   4.945
    1   AR   Ar   29   6.170   1.739   6.219
    1   AR   Ar   30   0.593   2.923   6.068
    1   AR   Ar   31   0.462   0.064   6.772
    1   AR   Ar   32   1.564   2.760   6.063
    1   AR   Ar   33   1.089   4.421  -1.518
    1   AR   Ar   34   0.518   5.890   2.042
    1   AR   Ar   35   0.567   3.716   1.278
    1   AR   Ar   36   0.056   7.028  -1.767
    1   AR   Ar   37   0.297   3.349   2.574
    1   AR   Ar   38   7.044   4.186   2.076
    1   AR   Ar   39   1.189   4.189   2.106
    1   AR   Ar   40   1.513   3.775   1.000
    1   AR   Ar   41   0.649   2.486   3.228
    1   AR   Ar   42   6.916   5.687   5.423
    1   AR   Ar   43   6.863   2.280   5.382
    1   AR   Ar   44   0.677   3.702   3.441
    1   AR   Ar   45   1.038   3.643   5.448
    1   AR   Ar   46   0.310   5.966   6.268
    1   AR   Ar   47   5.830   3.721   5.975
    1   AR   Ar   48   6.428   6.915   6.742
    1   AR   Ar   49   6.975   5.587  -1.944
    1   AR   Ar   50   6.586   5.138   1.686
    1   AR   Ar   51   1.484   4.962   1.241
    1   AR   Ar   52   6.982   4.505  -0.862
    1   AR   Ar   53   6.284   6.157   2.542
    1   AR   Ar   54   6.887   6.560   3.466
    1   AR   Ar   55   6.348   4.773   2.913
    1   AR   Ar   56   0.847   6.532   1.143
    1   AR   Ar   57   6.301   3.549   2.678
    1   AR   Ar   58   6.636   5.707   4.231
    1   AR   Ar   59   1.919   5.787   5.527
    1   AR   Ar   60   1.067   6.559   3.935
    1   AR   Ar   61   5.844   5.946   5.436
    1   AR   Ar   62   0.854   5.870   5.224
    1   AR   Ar   63   1.551   6.589   6.929
    1   AR   Ar   64   1.457   7.042   4.889
    1   AR   Ar   65   3.194   7.062   0.070
    1   AR   Ar   66   1.627   0.972   0.926
    1   AR   Ar   67   3.529   6.351  -1.028
    1   AR   Ar   68   3.337   1.251  -1.391
    1   AR   Ar   69   2.286   0.021   0.642
    1   AR   Ar   70   0.555   0.484   1.446
    1   AR   Ar   71   3.016   0.635   2.319
    1   AR   Ar   72   3.052   0.442   1.268
    1   AR   Ar   73   1.632   7.064   3.221
    1   AR   Ar   74   1.553   1.506   4.713
    1   AR   Ar   75   3.826   0.824   4.614
    1   AR   Ar   76   2.044   1.132   2.280
    1   AR   Ar   77   2.216   6.772   5.637
    1   AR   Ar   78   1.351   0.593   6.139
    1   AR   Ar   79   3.924   6.338   6.734
    1   AR   Ar   80   3.181   5.941   5.619
    1   AR   Ar   81   1.918   1.616  -0.023
    1   AR   Ar   82   0.439   3.431  -0.739
    1   AR   Ar   83   2.559   2.619   0.534
    1   AR   Ar   84   1.326   4.022  -2.648
    1   AR   Ar   85   0.680   2.413  -0.502
    1   AR   Ar   86   1.901   3.326   2.028
    1   AR   Ar   87   2.344   2.321   1.911
    1   AR   Ar   88   3.857   3.984   1.428
    1   AR   Ar   89   0.887   2.778   1.945
    1   AR   Ar   90   2.902   1.873   4.414
    1   AR   Ar   91   1.885   2.305   4.036
    1   AR   Ar   92   1.986   2.215   2.984
    1   AR   Ar   93   2.080   1.977   5.453
    1   AR   Ar   94   2.296   0.945   7.789
    1   AR   Ar   95   3.289   7.001   5.727
    1   AR   Ar   96   2.430   0.788   5.658
    1   AR   Ar   97   3.760   2.592  -1.528
    1   AR   Ar   98   2.762   4.490   1.445
    1   AR   Ar   99   6.350   2.662  -1.320
    1   AR   Ar  100   1.851   4.038  -0.418
    1   AR   Ar  101   1.285   2.597   0.539
    1   AR   Ar  102   2.640   3.787   3.981
    1   AR   Ar  103   0.976   4.238   0.261
    1   AR   Ar  104   2.833   3.019  -0.740
    1   AR   Ar  105   1.758   3.175   3.220
    1   AR   Ar  106   2.626   3.052   4.961
    1   AR   Ar  107   1.832   3.906   4.940
    1   AR   Ar  108   3.592   3.119   4.105
    1   AR   Ar  109   1.607   4.115   3.958
    1   AR   Ar  110   1.268   4.898   5.449
    1   AR   Ar  111   4.279   5.402   7.150
    1   AR   Ar  112   0.836   4.869   6.758
    1   AR   Ar  113   2.204   4.608   0.442
    1   AR   Ar  114   2.531   6.095   0.428
    1   AR   Ar  115   3.135   4.438  -0.563
    1   AR   Ar  116   4.707   6.530   0.280
    1   AR   Ar  117   0.669   5.505   3.688
    1   AR   Ar  118   0.721   6.465   3.018
    1   AR   Ar  119   2.329   4.141   2.733
    1   AR   Ar  120   1.359   5.414   2.184
    1   AR   Ar  121   7.066   4.764   3.869
    1   AR   Ar  122   2.349   6.068   4.610
    1   AR   Ar  123   2.421   5.063   4.828
    1   AR   Ar  124   2.372   5.962   3.020
    1   AR   Ar  125   0.760   4.855   4.523
    1   AR   Ar  126   0.527   0.320   5.312
    1   AR   Ar  127   3.249   5.523   6.963
    1   AR   Ar  128   2.201   5.285   6.576
    1   AR   Ar  129   1.893   0.058   1.764
    1   AR   Ar  130   3.994   1.190  -2.422
    1   AR   Ar  131   4.881   7.092   1.253
    1   AR   Ar  132   0.371   2.261  -1.455
    1   AR   Ar  133   3.723   7.089   2.905
    1   AR   Ar  134   3.882   1.286   2.609
    1   AR   Ar  135   4.729   0.644   2.595
    1   AR   Ar  136   4.011   0.223   1.839
    1   AR   Ar  137   2.593   7.057   3.412
    1   AR   Ar  138   4.766   0.964   4.997
    1   AR   Ar  139   5.626   1.169   4.635
    1   AR   Ar  140   4.106   0.965   3.555
    1   AR   Ar  141   3.840   6.932   4.004
    1   AR   Ar  142   4.161   7.034   5.265
    1   AR   Ar  143   5.433   6.931   6.105
    1   AR   Ar  144   5.249   0.737   6.601
    1   AR   Ar  145   3.382   3.847   0.287
    1   AR   Ar  146   4.170   2.562   1.702
    1   AR   Ar  147   5.763   1.999  -0.540
    1   AR   Ar  148   5.518   3.694  -2.603
    1   AR   Ar  149   3.985   2.257   0.725
    1   AR   Ar  150   2.725   1.454   3.010
    1   AR   Ar  151   3.585   2.349   3.408
    1   AR   Ar  152   2.633   3.536   0.919
    1   AR   Ar  153   3.038   1.003   3.854
    1   AR   Ar  154   3.928   1.863   4.498
    1   AR   Ar  155   5.568   0.768   5.568
    1   AR   Ar  156   3.786   4.034   3.403
    1   AR   Ar  157   2.669   2.990   5.989
    1   AR   Ar  158   1.508   2.402   7.378
    1   AR   Ar  159   3.832   0.853   5.979
    1   AR   Ar  160   3.856   2.720   7.517
    1   AR   Ar  161   5.147   2.170   0.616
    1   AR   Ar  162   4.195   5.682  -0.422
    1   AR   Ar  163   5.260   3.653  -0.098
    1   AR   Ar  164   3.890   5.085   1.822
    1   AR   Ar  165   3.039   3.348   1.906
    1   AR   Ar  166   2.603   4.997   3.699
    1   AR   Ar  167   4.623   2.421   2.872
    1   AR   Ar  168   3.948   3.392  -0.671
    1   AR   Ar  169   2.785   3.017   3.206
    1   AR   Ar  170   3.295   3.911   5.035
    1   AR   Ar  171   4.429   3.761   4.415
    1   AR   Ar  172   4.415   5.253   4.389
    1   AR   Ar  173   1.952   3.376   7.031
    1   AR   Ar  174   4.044   4.802   6.218
    1   AR   Ar  175   3.856   3.620   5.822
    1   AR   Ar  176   3.605   4.995   5.172
    1   AR   Ar  177   5.853   5.683  -0.136
    1   AR   Ar  178   3.191   6.444   1.437
    1   AR   Ar  179   3.728   5.918   0.531
    1   AR   Ar  180   3.313   3.664  -2.049
    1   AR   Ar  181   2.429   5.626   1.522
    1   AR   Ar  182   2.669   6.715   2.372
    1   AR   Ar  183   3.396   4.529   2.544
    1   AR   Ar  184   4.120   6.252   1.750
    1   AR   Ar  185   1.415   5.655   4.371
    1   AR   Ar  186   3.405   5.894   4.172
    1   AR   Ar  187   4.319   5.913   3.001
    1   AR   Ar  188   3.145   5.596   2.388
    1   AR   Ar  189   2.747   4.821   5.784
    1   AR   Ar  190   4.538   6.256   5.915
    1   AR   Ar  191   4.912   5.477   5.342
    1   AR   Ar  192   4.036   5.968   5.020
    1   AR   Ar  193   6.671   6.403  -0.316
    1   AR   Ar  194   5.708   5.524  -1.246
    1   AR   Ar  195   5.942   0.434  -0.270
    1   AR   Ar  196   5.528   0.824  -1.161
    1   AR   Ar  197   5.468   0.975   0.583
    1   AR   Ar  198   5.774   1.812   1.328
    1   AR   Ar  199   5.266   0.856   1.723
    1   AR   Ar  200   6.397   1.434   0.413
    1   AR   Ar  201   4.818   6.823   3.382
    1   AR   Ar  202   5.142   2.046   4.331
    1   AR   Ar  203   0.045   6.639   4.754
    1   AR   Ar  204   5.068   0.420   4.021
    1   AR   Ar  205   6.154   0.044   2.990
    1   AR   Ar  206   5.192   7.087   5.071
    1   AR   Ar  207   6.580   0.632   6.052
    1   AR   Ar  208   0.085   0.804   4.011
    1   AR   Ar  209   4.851   2.232  -2.283
    1   AR   Ar  210   3.875   1.101   0.938
    1   AR   Ar  211   6.121   3.001   0.171
    1   AR   Ar  212   6.345   3.916  -1.817
    1   AR   Ar  213   3.299   2.388   2.271
    1   AR   Ar  214   4.032   3.299   2.504
    1   AR   Ar  215   5.750   2.311   2.538
    1   AR   Ar  216   6.766   2.667   1.949
    1   AR   Ar  217   4.478   3.184   3.541
    1   AR   Ar  218   4.447   3.064   5.120
    1   AR   Ar  219   5.100   1.557   3.295
    1   AR   Ar  220   5.205   3.222   2.660
    1   AR   Ar  221   6.756   0.441   4.796
    1   AR   Ar  222   4.858   1.718   5.981
    1   AR   Ar  223   6.790   1.015   7.023
    1   AR   Ar  224   5.718   2.084   5.309
    1   AR   Ar  225   5.166   4.651   0.094
    1   AR   Ar  226   4.880   4.367   2.511
    1   AR   Ar  227   6.657   5.097  -0.130
    1   AR   Ar  228   5.478   5.772   0.885
    1   AR   Ar  229   6.038   4.424   0.676
    1   AR   Ar  230   4.388   5.022   3.214
    1   AR   Ar  231   6.803   2.401   3.267
    1   AR   Ar  232   4.439   3.303   0.399
    1   AR   Ar  233   6.225   2.341   4.281
    1   AR   Ar  234   6.656   3.643   4.239
    1   AR   Ar  235   0.290   2.924   4.215
    1   AR   Ar  236   5.295   4.147   4.095
    1   AR   Ar  237   5.504   3.139   4.183
    1   AR   Ar  238   4.617   4.468   5.197
    1   AR   Ar  239   5.881   4.064   9.245
    1   AR   Ar  240   0.060   4.264   5.212
    1   AR   Ar  241   6.966   0.342  -0.675
    1   AR   Ar  242   4.857   4.894   1.340
    1   AR   Ar  243   5.807   4.377   2.094
    1   AR   Ar  244   0.323   5.575  -0.507
    1   AR   Ar  245   5.349   7.059   2.398
    1   AR   Ar  246   5.972   6.472   1.623
    1   AR   Ar  247   5.465   3.181   1.443
    1   AR   Ar  248   6.111   6.614   0.563
    1   AR   Ar  249   5.543   5.446   2.655
    1   AR   Ar  250   4.835   6.290   4.378
    1   AR   Ar  251   5.776   5.141   4.586
    1   AR   Ar  252   5.784   6.229   3.592
    1   AR   Ar  253   5.814   4.955   5.815
    1   AR   Ar  254   5.295   5.437   6.654
    1   AR   Ar  255   5.139   4.410   6.805
    1   AR   Ar  256   5.979   6.742   4.496
    7.12000  7.12000 12.00000
Argon-slab step 1765
  256
    1   AR   Ar    1   6.867   1.331  -1.014
    1   AR   Ar    2   6.125   0.364   1.406
    1   AR   Ar    3   7.070   7.049   0.787
    1   AR   Ar    4   0.995   0.109   0.076
    1   AR   Ar    5   6.591   5.731   0.796
    1   AR   Ar    6   0.025   0.279   2.806
    1   AR   Ar    7   0.447   5.164   2.801
    1   AR   Ar    8   7.040   6.773   1.978
    1   AR   Ar    9   1.076   0.474   4.151
    1   AR   Ar   10   0.443   1.869   4.133
    1   AR   Ar   11   3.063   6.838   4.700
    1   AR   Ar   12   1.072   1.516   2.692
    1   AR   Ar   13   6.781   1.554   4.705
    1   AR   Ar   14   0.072   1.605   6.193
    1   AR   Ar   15   0.211   7.064   9.280
    1   AR   Ar   16   0.611   1.413   5.251
    1   AR   Ar   17   0.447   1.268   0.043
    1   AR   Ar   18   6.254   3.578  -0.739
    1   AR   Ar   19   1.118   1.775   1.671
    1   AR   Ar   20   6.564   2.107  -2.349
    1   AR   Ar   21   6.131   1.169   2.600
    1   AR   Ar   22   0.230   1.834   2.156
    1   AR   Ar   23   6.769   1.102   1.296
    1   AR   Ar   24   0.273   2.311   1.122
    1   AR   Ar   25   0.195   1.253   3.073
    1   AR   Ar   26   6.351   1.399   3.707
    1   AR   Ar   27   1.864   1.205   3.555
    1   AR   Ar   28   1.329   2.572   4.934
    1   AR   Ar   29   6.197   1.688   6.232
    1   AR   Ar   30   0.579   2.912   6.075
    1   AR   Ar   31   0.488   0.042   6.770
    1   AR   Ar   32   1.596   2.739   6.080
    1   AR   Ar   33   1.102   4.410  -1.497
    1   AR   Ar   34   0.522   5.881   2.074
    1   AR   Ar   35   0.567   3.734   1.249
    1   AR   Ar   36   0.042   7.009  -1.769
    1   AR   Ar   37   0.286   3.347   2.546
    1   AR   Ar   38   7.034   4.199   2.037
    1   AR   Ar   39   1.198   4.189   2.118
    1   AR   Ar   40   1.520   3.769   1.005
    1   AR   Ar   41   0.678   2.447   3.235
    1   AR   Ar   42   6.910   5.677   5.408
    1   AR   Ar   43   6.869   2.299   5.377
    1   AR   Ar   44   0.690   3.696   3.422
    1   AR   Ar   45   1.029   3.645   5.450
    1   AR   Ar   46   0.336   5.996   6.281
    1   AR   Ar   47   5.818   3.728   6.021
    1   AR   Ar   48   6.399   6.909   6.736
    1   AR   Ar   49   6.985   5.604  -1.959
    1   AR   Ar   50   6.585   5.123   1.676
    1   AR   Ar   51   1.447   4.944   1.214
    1   AR   Ar   52   6.975   4.492  -0.869
    1   AR   Ar   53   6.292   6.170   2.547
    1   AR   Ar   54   6.836   6.576   3.465
    1   AR   Ar   55   6.337   4.733   2.897
    1   AR   Ar   56   0.827   6.544   1.144
    1   AR   Ar   57   6.297   3.538   2.670
    1   AR   Ar   58   6.613   5.714   4.217
    1   AR   Ar   59   1.951   5.765   5.522
    1   AR   Ar   60   1.039   6.553   3.938
    1   AR   Ar   61   5.813   5.978   5.407
    1   AR   Ar   62   0.856   5.889   5.209
    1   AR   Ar   63   1.565   6.579   6.909
    1   AR   Ar   64   1.459   7.016   4.917
    1   AR   Ar   65   3.191   7.079   0.100
    1   AR   Ar   66   1.619   0.941   0.938
    1   AR   Ar   67   3.551   6.366  -1.035
    1   AR   Ar   68   3.349   1.284  -1.410
    1   AR   Ar   69   2.279   0.029   0.686
    1   AR   Ar   70   0.524   0.499   1.440
    1   AR   Ar   71   3.008   0.619   2.329
    1   AR   Ar   72   3.060   0.433   1.280
    1   AR   Ar   73   1.627   7.050   3.209
    1   AR   Ar   74   1.574   1.498   4.729
    1   AR   Ar   75   3.836   0.845   4.617
    1   AR   Ar   76   2.070   1.131   2.274
    1   AR   Ar   77   2.215   6.763   5.597
    1   AR   Ar   78   1.314   0.622   6.135
    1   AR   Ar   79   3.894   6.361   6.719
    1   AR   Ar   80   3.140   5.926   5.603
    1   AR   Ar   81   1.959   1.628  -0.057
    1   AR   Ar   82   0.458   3.408  -0.755
    1   AR   Ar   83   2.539   2.604   0.532
    1   AR   Ar   84   1.290   4.029  -2.599
    1   AR   Ar   85   0.674   2.406  -0.474
    1   AR   Ar   86   1.933   3.331   2.019
    1   AR   Ar   87   2.343   2.319   1.900
    1   AR   Ar   88   3.875   3.925   1.460
    1   AR   Ar   89   0.861   2.820   1.899
    1   AR   Ar   90   2.926   1.912   4.449
    1   AR   Ar   91   1.892   2.303   4.021
    1   AR   Ar   92   2.004   2.199   2.990
    1   AR   Ar   93   2.110   1.975   5.462
    1   AR   Ar   94   2.272   0.957   7.804
    1   AR   Ar   95   3.285   7.030   5.766
    1   AR   Ar   96   2.387   0.783   5.671
    1   AR   Ar   97   3.747   2.574  -1.527
    1   AR   Ar   98   2.756   4.472   1.383
    1   AR   Ar   99   6.387   2.652  -1.328
    1   AR   Ar  100   1.872   4.019  -0.416
    1   AR   Ar  101   1.293   2.613   0.577
    1   AR   Ar  102   2.669   3.761   3.976
    1   AR   Ar  103   1.008   4.249   0.261
    1   AR   Ar  104   2.830   2.958  -0.728
    1   AR   Ar  105   1.775   3.188   3.202
    1   AR   Ar  106   2.631   3.046   4.947
    1   AR   Ar  107   1.883   3.896   4.917
    1   AR   Ar  108   3.599   3.100   4.135
    1   AR   Ar  109   1.587   4.131   3.953
    1   AR   Ar  110   1.251   4.871   5.467
    1   AR   Ar  111   4.295   5.386   7.129
    1   AR   Ar  112   0.807   4.883   6.751
    1   AR   Ar  113   2.187   4.575   0.434
    1   AR   Ar  114   2.546   6.063   0.419
    1   AR   Ar  115   3.133   4.437  -0.557
    1   AR   Ar  116   4.716   6.502   0.260
    1   AR   Ar  117   0.664   5.529   3.711
    1   AR   Ar  118   0.719   6.458   3.022
    1   AR   Ar  119   2.302   4.143   2.747
    1   AR   Ar  120   1.387   5.426   2.152
    1   AR   Ar  121   7.055   4.770   3.882
    1   AR   Ar  122   2.371   6.095   4.623
    1   AR   Ar  123   2.424   5.059   4.842
    1   AR   Ar  124   2.343   5.965   3.002
    1   AR   Ar  125   0.723   4.875   4.528
    1   AR   Ar  126   0.537   0.288   5.296
    1   AR   Ar  127   3.233   5.525   6.969
    1   AR   Ar  128   2.202   5.289   6.572
    1   AR   Ar  129   1.869   0.066   1.781
    1   AR   Ar  130   3.965   1.186  -2.473
    1   AR   Ar  131   4.852   7.079   1.224
    1   AR   Ar  132   0.382   2.279  -1.474
    1   AR   Ar  133   3.711   7.102   2.904
    1   AR   Ar  134   3.880   1.294   2.625
    1   AR   Ar  135   4.715   0.653   2.579
    1   AR   Ar  136   4.007   0.172   1.831
    1   AR   Ar  137   2.604   7.080   3.401
    1   AR   Ar  138   4.742   0.955   4.988
    1   AR   Ar  139   5.659   1.193   4.643
    1   AR   Ar  140   4.116   0.953   3.548
    1   AR   Ar  141   3.880   6.948   4.026
    1   AR   Ar  142   4.157   7.036   5.265
    1   AR   Ar  143   5.400   6.934   6.110
    1   AR   Ar  144   5.219   0.717   6.601
    1   AR   Ar  145   3.416   3.835   0.251
    1   AR   Ar  146   4.162   2.576   1.691
    1   AR   Ar  147   5.770   1.993  -0.573
    1   AR   Ar  148   5.501   3.686  -2.579
    1   AR   Ar  149   3.979   2.263   0.723
    1   AR   Ar  150   2.708   1.449   3.007
    1   AR   Ar  151   3.566   2.340   3.370
    1   AR   Ar  152   2.581   3.546   0.876
    1   AR   Ar  153   3.006   1.015   3.843
    1   AR   Ar  154   3.941   1.862   4.493
    1   AR   Ar  155   5.560   0.760   5.580
    1   AR   Ar  156   3.777   4.022   3.439
    1   AR   Ar  157   2.662   3.000   5.985
    1   AR   Ar  158   1.528   2.384   7.380
    1   AR   Ar  159   3.839   0.832   5.967
    1   AR   Ar  160   3.850   2.699   7.525
    1   AR   Ar  161   5.160   2.176   0.598
    1   AR   Ar  162   4.189   5.657  -0.408
    1   AR   Ar  163   5.275   3.657  -0.120
    1   AR   Ar  164   3.880   5.091   1.820
    1   AR   Ar  165   3.030   3.355   1.873
    1   AR   Ar  166   2.586   5.006   3.715
    1   AR   Ar  167   4.625   2.435   2.879
    1   AR   Ar  168   3.966   3.370  -0.704
    1   AR   Ar  169   2.809   3.026   3.211
    1   AR   Ar  170   3.314   3.892   5.051
    1   AR   Ar  171   4.384   3.765   4.388
    1   AR   Ar  172   4.434   5.250   4.372
    1   AR   Ar  173   1.942   3.397   7.045
    1   AR   Ar  174   3.996   4.804   6.206
    1   AR   Ar  175   3.858   3.687   5.816
    1   AR   Ar  176   3.563   4.981   5.194
    1   AR   Ar  177   5.848   5.690  -0.105
    1   AR   Ar  178   3.151   6.435   1.460
    1   AR   Ar  179   3.721   5.942   0.518
    1   AR   Ar  180   3.293   3.652  -2.054
    1   AR   Ar  181   2.391   5.624   1.531
    1   AR   Ar  182   2.671   6.728   2.379
    1   AR   Ar  183   3.436   4.529   2.578
    1   AR   Ar  184   4.139   6.278   1.725
    1   AR   Ar  185   1.442   5.663   4.339
    1   AR   Ar  186   3.410   5.915   4.185
    1   AR   Ar  187   4.294   5.927   3.010
    1   AR   Ar  188   3.147   5.586   2.390
    1   AR   Ar  189   2.713   4.801   5.778
    1   AR   Ar  190   4.592   6.283   5.932
    1   AR   Ar  191   4.894   5.448   5.332
    1   AR   Ar  192   4.059   5.971   5.047
    1   AR   Ar  193   6.690   6.404  -0.321
    1   AR   Ar  194   5.698   5.498  -1.233
    1   AR   Ar  195   5.924   0.428  -0.266
    1   AR   Ar  196   5.533   0.854  -1.170
    1   AR   Ar  197   5.507   0.980   0.545
    1   AR   Ar  198   5.767   1.813   1.324
    1   AR   Ar  199   5.247   0.860   1.713
    1   AR   Ar  200   6.388   1.456   0.408
    1   AR   Ar  201   4.845   6.813   3.384
    1   AR   Ar  202   5.133   2.017   4.347
    1   AR   Ar  203   0.055   6.640   4.750
    1   AR   Ar  204   5.079   0.422   4.033
    1   AR   Ar  205   6.155   0.064   2.964
    1   AR   Ar  206   5.227   7.078   5.110
    1   AR   Ar  207   6.597   0.642   6.022
    1   AR   Ar  208   0.092   0.799   4.021
    1   AR   Ar  209   4.823   2.229  -2.263
    1   AR   Ar  210   3.851   1.090   0.933
    1   AR   Ar  211   6.135   3.024   0.177
    1   AR   Ar  212   6.374   3.905  -1.805
    1   AR   Ar  213   3.290   2.388   2.265
    1   AR   Ar  214   4.029   3.291   2.475
    1   AR   Ar  215   5.743   2.284   2.520
    1   AR   Ar  216   6.754   2.682   1.958
    1   AR   Ar  217   4.461   3.159   3.512
    1   AR   Ar  218   4.460   3.060   5.117
    1   AR   Ar  219   5.129   1.539   3.300
    1   AR   Ar  220   5.196   3.212   2.661
    1   AR   Ar  221   6.749   0.452   4.805
    1   AR   Ar  222   4.812   1.688   5.962
    1   AR   Ar  223   6.814   1.014   7.041
    1   AR   Ar  224   5.729   2.069   5.307
    1   AR   Ar  225   5.148   4.639   0.106
    1   AR   Ar  226   4.877   4.366   2.546
    1   AR   Ar  227   6.689   5.108  -0.125
    1   AR   Ar  228   5.429   5.785   0.894
    1   AR   Ar  229   6.051   4.429   0.666
    1   AR   Ar  230   4.406   4.978   3.248
    1   AR   Ar  231   6.781   2.366   3.262
    1   AR   Ar  232   4.445   3.292   0.393
    1   AR   Ar  233   6.188   2.345   4.284
    1   AR   Ar  234   6.674   3.655   4.225
    1   AR   Ar  235   0.289   2.868   4.252
    1   AR   Ar  236   5.307   4.158   4.095
    1   AR   Ar  237   5.484   3.164   4.174
    1   AR   Ar  238   4.615   4.504   5.208
    1   AR   Ar  239   5.865   4.058   9.242
    1   AR   Ar  240   0.034   4.254   5.215
    1   AR   Ar  241   6.961   0.333  -0.694
    1   AR   Ar  242   4.863   4.849   1.355
    1   AR   Ar  243   5.804   4.352   2.096
    1   AR   Ar  244   0.302   5.576  -0.508
    1   AR   Ar  245   5.385   7.077   2.386
    1   AR   Ar  246   5.990   6.470   1.653
    1   AR   Ar  247   5.454   3.199   1.444
    1   AR   Ar  248   6.085   6.600   0.545
    1   AR   Ar  249   5.549   5.409   2.670
    1   AR   Ar  250   4.823   6.272   4.363
    1   AR   Ar  251   5.760   5.143   4.585
    1   AR   Ar  252   5.792   6.211   3.600
    1   AR   Ar  253   5.838   4.945   5.810
    1   AR   Ar  254   5.288   5.428   6.636
    1   AR   Ar  255   5.151   4.414   6.824
    1   AR   Ar  256   5.960   6.802   4.482
    7.12000  7.12000 12.00000
Argon-slab step 1770
  256
    1   AR   Ar    1   6.832   1.311  -1.031
    1   AR   Ar    2   6.087   0.387   1.411
    1   AR   Ar    3   7.059   7.029   0.806
    1   AR   Ar    4   1.003   0.121   0.058
    1   AR   Ar    5   6.599   5.741   0.774
    1   AR   Ar    6   7.109   0.279   2.778
    1   AR   Ar    7   0.441   5.125   2.837
    1   AR   Ar    8   7.025   6.823   1.944
    1   AR   Ar    9   1.073   0.466   4.156
    1   AR   Ar   10   0.451   1.864   4.091
    1   AR   Ar   11   3.038   6.824   4.718
    1   AR   Ar   12   1.073   1.510   2.704
    1   AR   Ar   13   6.800   1.548   4.691
    1   AR   Ar   14   0.070   1.601   6.207
    1   AR   Ar   15   0.196   7.086   9.271
    1   AR   Ar   16   0.631   1.413   5.263
    1   AR   Ar   17   0.469   1.299   0.041
    1   AR   Ar   18   6.285   3.599  -0.731
    1   AR   Ar   19   1.121   1.775   1.694
    1   AR   Ar   20   6.566   2.110  -2.377
    1   AR   Ar   21   6.148   1.149   2.633
    1   AR   Ar   22   0.251   1.836   2.130
    1   AR   Ar   23   6.748   1.132   1.283
    1   AR   Ar   24   0.290   2.309   1.136
    1   AR   Ar   25   0.228   1.259   3.077
    1   AR   Ar   26   6.354   1.387   3.733
    1   AR   Ar   27   1.898   1.194   3.565
    1   AR   Ar   28   1.338   2.565   4.924
    1   AR   Ar   29   6.215   1.637   6.244
    1   AR   Ar   30   0.559   2.899   6.081
    1   AR   Ar   31   0.520   0.028   6.774
    1   AR   Ar   32   1.634   2.727   6.091
    1   AR   Ar   33   1.135   4.398  -1.481
    1   AR   Ar   34   0.514   5.882   2.100
    1   AR   Ar   35   0.557   3.750   1.224
    1   AR   Ar   36   0.036   6.992  -1.767
    1   AR   Ar   37   0.274   3.337   2.537
    1   AR   Ar   38   7.023   4.213   2.000
    1   AR   Ar   39   1.212   4.193   2.131
    1   AR   Ar   40   1.542   3.760   1.012
    1   AR   Ar   41   0.715   2.409   3.239
    1   AR   Ar   42   6.901   5.665   5.390
    1   AR   Ar   43   6.877   2.323   5.377
    1   AR   Ar   44   0.706   3.692   3.408
    1   AR   Ar   45   1.018   3.647   5.452
    1   AR   Ar   46   0.365   6.028   6.295
    1   AR   Ar   47   5.805   3.736   6.066
    1   AR   Ar   48   6.370   6.905   6.729
    1   AR   Ar   49   6.995   5.620  -1.972
    1   AR   Ar   50   6.583   5.118   1.678
    1   AR   Ar   51   1.437   4.933   1.213
    1   AR   Ar   52   6.970   4.473  -0.883
    1   AR   Ar   53   6.305   6.181   2.563
    1   AR   Ar   54   6.794   6.581   3.465
    1   AR   Ar   55   6.352   4.722   2.887
    1   AR   Ar   56   0.808   6.556   1.146
    1   AR   Ar   57   6.294   3.526   2.662
    1   AR   Ar   58   6.591   5.724   4.204
    1   AR   Ar   59   1.980   5.737   5.519
    1   AR   Ar   60   1.012   6.547   3.956
    1   AR   Ar   61   5.783   6.013   5.377
    1   AR   Ar   62   0.857   5.910   5.194
    1   AR   Ar   63   1.579   6.570   6.887
    1   AR   Ar   64   1.461   6.986   4.946
    1   AR   Ar   65   3.190   7.095   0.130
    1   AR   Ar   66   1.610   0.911   0.950
    1   AR   Ar   67   3.573   6.381  -1.041
    1   AR   Ar   68   3.363   1.317  -1.429
    1   AR   Ar   69   2.269   0.037   0.731
    1   AR   Ar   70   0.496   0.516   1.437
    1   AR   Ar   71   3.003   0.604   2.342
    1   AR   Ar   72   3.072   0.413   1.297
    1   AR   Ar   73   1.615   7.039   3.198
    1   AR   Ar   74   1.592   1.486   4.739
    1   AR   Ar   75   3.833   0.857   4.617
    1   AR   Ar   76   2.090   1.131   2.262
    1   AR   Ar   77   2.217   6.756   5.559
    1   AR   Ar   78   1.276   0.651   6.128
    1   AR   Ar   79   3.875   6.368   6.719
    1   AR   Ar   80   3.095   5.910   5.588
    1   AR   Ar   81   2.000   1.640  -0.089
    1   AR   Ar   82   0.475   3.388  -0.772
    1   AR   Ar   83   2.519   2.581   0.526
    1   AR   Ar   84   1.255   4.037  -2.550
    1   AR   Ar   85   0.671   2.395  -0.441
    1   AR   Ar   86   1.964   3.337   2.011
    1   AR   Ar   87   2.335   2.315   1.888
    1   AR   Ar   88   3.893   3.866   1.493
    1   AR   Ar   89   0.841   2.859   1.849
    1   AR   Ar   90   2.943   1.953   4.483
    1   AR   Ar   91   1.899   2.301   4.008
    1   AR   Ar   92   2.018   2.182   2.990
    1   AR   Ar   93   2.144   1.976   5.474
    1   AR   Ar   94   2.248   0.968   7.819
    1   AR   Ar   95   3.274   7.059   5.810
    1   AR   Ar   96   2.344   0.778   5.683
    1   AR   Ar   97   3.733   2.556  -1.525
    1   AR   Ar   98   2.752   4.457   1.324
    1   AR   Ar   99   6.426   2.642  -1.336
    1   AR   Ar  100   1.894   3.998  -0.416
    1   AR   Ar  101   1.301   2.630   0.616
    1   AR   Ar  102   2.697   3.737   3.973
    1   AR   Ar  103   1.037   4.263   0.259
    1   AR   Ar  104   2.827   2.898  -0.716
    1   AR   Ar  105   1.787   3.207   3.184
    1   AR   Ar  106   2.634   3.038   4.927
    1   AR   Ar  107   1.940   3.886   4.897
    1   AR   Ar  108   3.607   3.093   4.158
    1   AR   Ar  109   1.566   4.148   3.943
    1   AR   Ar  110   1.236   4.842   5.486
    1   AR   Ar  111   4.312   5.370   7.107
    1   AR   Ar  112   0.780   4.898   6.742
    1   AR   Ar  113   2.170   4.542   0.429
    1   AR   Ar  114   2.558   6.054   0.417
    1   AR   Ar  115   3.144   4.438  -0.552
    1   AR   Ar  116   4.726   6.472   0.239
    1   AR   Ar  117   0.656   5.559   3.734
    1   AR   Ar  118   0.712   6.448   3.012
    1   AR   Ar  119   2.276   4.144   2.762
    1   AR   Ar  120   1.427   5.433   2.125
    1   AR   Ar  121   7.034   4.767   3.897
    1   AR   Ar  122   2.392   6.122   4.633
    1   AR   Ar  123   2.425   5.053   4.849
    1   AR   Ar  124   2.312   5.965   2.988
    1   AR   Ar  125   0.690   4.891   4.539
    1   AR   Ar  126   0.550   0.258   5.284
    1   AR   Ar  127   3.216   5.527   6.972
    1   AR   Ar  128   2.201   5.294   6.567
    1   AR   Ar  129   1.844   0.076   1.796
    1   AR   Ar  130   3.936   1.183  -2.523
    1   AR   Ar  131   4.851   7.068   1.216
    1   AR   Ar  132   0.389   2.297  -1.496
    1   AR   Ar  133   3.690   7.103   2.905
    1   AR   Ar  134   3.873   1.307   2.636
    1   AR   Ar  135   4.674   0.650   2.567
    1   AR   Ar  136   3.998   0.128   1.827
    1   AR   Ar  137   2.626   7.104   3.394
    1   AR   Ar  138   4.717   0.947   4.984
    1   AR   Ar  139   5.705   1.215   4.645
    1   AR   Ar  140   4.128   0.937   3.547
    1   AR   Ar  141   3.906   6.969   4.018
    1   AR   Ar  142   4.168   7.058   5.279
    1   AR   Ar  143   5.371   6.933   6.120
    1   AR   Ar  144   5.187   0.700   6.602
    1   AR   Ar  145   3.453   3.820   0.216
    1   AR   Ar  146   4.158   2.592   1.682
    1   AR   Ar  147   5.779   1.987  -0.604
    1   AR   Ar  148   5.485   3.678  -2.555
    1   AR   Ar  149   3.973   2.268   0.716
    1   AR   Ar  150   2.679   1.468   3.006
    1   AR   Ar  151   3.579   2.356   3.370
    1   AR   Ar  152   2.527   3.563   0.837
    1   AR   Ar  153   2.979   1.019   3.841
    1   AR   Ar  154   3.963   1.865   4.487
    1   AR   Ar  155   5.561   0.762   5.602
    1   AR   Ar  156   3.768   4.008   3.479
    1   AR   Ar  157   2.662   3.008   5.985
    1   AR   Ar  158   1.536   2.402   7.361
    1   AR   Ar  159   3.848   0.811   5.953
    1   AR   Ar  160   3.843   2.678   7.534
    1   AR   Ar  161   5.182   2.177   0.603
    1   AR   Ar  162   4.185   5.632  -0.395
    1   AR   Ar  163   5.294   3.656  -0.146
    1   AR   Ar  164   3.874   5.097   1.814
    1   AR   Ar  165   3.021   3.363   1.841
    1   AR   Ar  166   2.560   5.023   3.710
    1   AR   Ar  167   4.623   2.428   2.879
    1   AR   Ar  168   3.983   3.349  -0.735
    1   AR   Ar  169   2.833   3.036   3.213
    1   AR   Ar  170   3.323   3.877   5.050
    1   AR   Ar  171   4.337   3.776   4.359
    1   AR   Ar  172   4.453   5.243   4.351
    1   AR   Ar  173   1.933   3.417   7.058
    1   AR   Ar  174   3.949   4.806   6.192
    1   AR   Ar  175   3.870   3.752   5.825
    1   AR   Ar  176   3.524   4.968   5.213
    1   AR   Ar  177   5.838   5.700  -0.075
    1   AR   Ar  178   3.107   6.428   1.479
    1   AR   Ar  179   3.739   5.923   0.518
    1   AR   Ar  180   3.275   3.639  -2.057
    1   AR   Ar  181   2.352   5.621   1.540
    1   AR   Ar  182   2.675   6.741   2.384
    1   AR   Ar  183   3.474   4.526   2.612
    1   AR   Ar  184   4.164   6.296   1.700
    1   AR   Ar  185   1.453   5.685   4.336
    1   AR   Ar  186   3.415   5.934   4.198
    1   AR   Ar  187   4.267   5.955   3.015
    1   AR   Ar  188   3.195   5.600   2.380
    1   AR   Ar  189   2.680   4.778   5.779
    1   AR   Ar  190   4.583   6.283   5.898
    1   AR   Ar  191   4.905   5.430   5.339
    1   AR   Ar  192   4.076   5.978   5.075
    1   AR   Ar  193   6.721   6.399  -0.326
    1   AR   Ar  194   5.689   5.472  -1.219
    1   AR   Ar  195   5.912   0.436  -0.259
    1   AR   Ar  196   5.538   0.886  -1.179
    1   AR   Ar  197   5.539   0.982   0.511
    1   AR   Ar  198   5.765   1.810   1.326
    1   AR   Ar  199   5.228   0.868   1.700
    1   AR   Ar  200   6.384   1.484   0.397
    1   AR   Ar  201   4.870   6.800   3.379
    1   AR   Ar  202   5.119   1.993   4.361
    1   AR   Ar  203   0.100   6.607   4.743
    1   AR   Ar  204   5.090   0.431   4.050
    1   AR   Ar  205   6.159   0.086   2.948
    1   AR   Ar  206   5.253   7.061   5.142
    1   AR   Ar  207   6.605   0.659   6.004
    1   AR   Ar  208   0.104   0.799   4.020
    1   AR   Ar  209   4.828   2.241  -2.252
    1   AR   Ar  210   3.829   1.080   0.928
    1   AR   Ar  211   6.148   3.045   0.185
    1   AR   Ar  212   6.394   3.891  -1.791
    1   AR   Ar  213   3.286   2.386   2.266
    1   AR   Ar  214   4.024   3.286   2.448
    1   AR   Ar  215   5.737   2.254   2.501
    1   AR   Ar  216   6.739   2.699   1.967
    1   AR   Ar  217   4.444   3.144   3.489
    1   AR   Ar  218   4.473   3.052   5.116
    1   AR   Ar  219   5.158   1.520   3.306
    1   AR   Ar  220   5.193   3.214   2.659
    1   AR   Ar  221   6.724   0.469   4.838
    1   AR   Ar  222   4.780   1.682   5.987
    1   AR   Ar  223   6.838   1.011   7.060
    1   AR   Ar  224   5.716   2.069   5.301
    1   AR   Ar  225   5.128   4.636   0.119
    1   AR   Ar  226   4.870   4.363   2.579
    1   AR   Ar  227   6.704   5.109  -0.104
    1   AR   Ar  228   5.380   5.798   0.905
    1   AR   Ar  229   6.066   4.436   0.656
    1   AR   Ar  230   4.423   4.922   3.288
    1   AR   Ar  231   6.752   2.329   3.258
    1   AR   Ar  232   4.447   3.280   0.391
    1   AR   Ar  233   6.152   2.348   4.287
    1   AR   Ar  234   6.692   3.669   4.211
    1   AR   Ar  235   0.289   2.817   4.289
    1   AR   Ar  236   5.307   4.161   4.119
    1   AR   Ar  237   5.463   3.182   4.164
    1   AR   Ar  238   4.610   4.529   5.219
    1   AR   Ar  239   5.849   4.051   9.239
    1   AR   Ar  240   0.010   4.245   5.216
    1   AR   Ar  241   6.958   0.339  -0.707
    1   AR   Ar  242   4.870   4.804   1.370
    1   AR   Ar  243   5.801   4.335   2.104
    1   AR   Ar  244   0.292   5.552  -0.516
    1   AR   Ar  245   5.416   7.084   2.361
    1   AR   Ar  246   6.002   6.478   1.659
    1   AR   Ar  247   5.442   3.216   1.447
    1   AR   Ar  248   6.055   6.592   0.528
    1   AR   Ar  249   5.551   5.371   2.684
    1   AR   Ar  250   4.813   6.255   4.349
    1   AR   Ar  251   5.741   5.145   4.585
    1   AR   Ar  252   5.799   6.191   3.605
    1   AR   Ar  253   5.866   4.927   5.811
    1   AR   Ar  254   5.253   5.428   6.588
    1   AR   Ar  255   5.147   4.400   6.838
    1   AR   Ar  256   5.975   6.811   4.441
    7.12000  7.12000 12.00000
Argon-slab step 1775
  256
    1   AR   Ar    1   6.796   1.297  -1.048
    1   AR   Ar    2   6.050   0.402   1.416
    1   AR   Ar    3   7.042   7.008   0.821
    1   AR   Ar    4   1.032   0.109   0.072
    1   AR   Ar    5   6.608   5.750   0.754
    1   AR   Ar    6   7.086   0.283   2.752
    1   AR   Ar    7   0.432   5.079   2.870
    1   AR   Ar    8   7.009   6.869   1.904
    1   AR   Ar    9   1.074   0.461   4.161
    1   AR   Ar   10   0.465   1.847   4.047
    1   AR   Ar   11   3.028   6.826   4.739
    1   AR   Ar   12   1.095   1.507   2.714
    1   AR   Ar   13   6.815   1.538   4.679
    1   AR   Ar   14   0.083   1.597   6.219
    1   AR   Ar   15   0.181   7.108   9.261
    1   AR   Ar   16   0.616   1.422   5.284
    1   AR   Ar   17   0.489   1.329   0.040
    1   AR   Ar   18   6.306   3.616  -0.732
    1   AR   Ar   19   1.138   1.775   1.706
    1   AR   Ar   20   6.560   2.115  -2.441
    1   AR   Ar   21   6.164   1.130   2.664
    1   AR   Ar   22   0.257   1.839   2.110
    1   AR   Ar   23   6.734   1.167   1.276
    1   AR   Ar   24   0.306   2.305   1.147
    1   AR   Ar   25   0.244   1.266   3.088
    1   AR   Ar   26   6.356   1.374   3.757
    1   AR   Ar   27   1.924   1.181   3.580
    1   AR   Ar   28   1.347   2.560   4.916
    1   AR   Ar   29   6.217   1.586   6.256
    1   AR   Ar   30   0.536   2.884   6.087
    1   AR   Ar   31   0.551   0.013   6.777
    1   AR   Ar   32   1.678   2.756   6.080
    1   AR   Ar   33   1.168   4.385  -1.464
    1   AR   Ar   34   0.499   5.887   2.122
    1   AR   Ar   35   0.539   3.766   1.201
    1   AR   Ar   36   0.067   6.981  -1.757
    1   AR   Ar   37   0.262   3.319   2.559
    1   AR   Ar   38   7.013   4.226   1.964
    1   AR   Ar   39   1.249   4.213   2.144
    1   AR   Ar   40   1.567   3.751   1.023
    1   AR   Ar   41   0.755   2.374   3.240
    1   AR   Ar   42   6.892   5.654   5.370
    1   AR   Ar   43   6.885   2.349   5.378
    1   AR   Ar   44   0.723   3.688   3.398
    1   AR   Ar   45   1.006   3.650   5.453
    1   AR   Ar   46   0.394   6.060   6.308
    1   AR   Ar   47   5.791   3.745   6.112
    1   AR   Ar   48   6.342   6.902   6.721
    1   AR   Ar   49   7.004   5.637  -1.985
    1   AR   Ar   50   6.579   5.115   1.682
    1   AR   Ar   51   1.445   4.925   1.227
    1   AR   Ar   52   6.967   4.452  -0.900
    1   AR   Ar   53   6.322   6.188   2.586
    1   AR   Ar   54   6.781   6.553   3.457
    1   AR   Ar   55   6.375   4.722   2.887
    1   AR   Ar   56   0.792   6.567   1.151
    1   AR   Ar   57   6.292   3.514   2.654
    1   AR   Ar   58   6.572   5.736   4.192
    1   AR   Ar   59   2.004   5.706   5.521
    1   AR   Ar   60   0.985   6.544   3.986
    1   AR   Ar   61   5.755   6.051   5.347
    1   AR   Ar   62   0.850   5.918   5.179
    1   AR   Ar   63   1.591   6.560   6.863
    1   AR   Ar   64   1.459   6.953   4.970
    1   AR   Ar   65   3.189   7.109   0.161
    1   AR   Ar   66   1.601   0.880   0.963
    1   AR   Ar   67   3.595   6.396  -1.045
    1   AR   Ar   68   3.346   1.308  -1.445
    1   AR   Ar   69   2.257   0.046   0.764
    1   AR   Ar   70   0.474   0.535   1.438
    1   AR   Ar   71   3.002   0.592   2.357
    1   AR   Ar   72   3.085   0.392   1.315
    1   AR   Ar   73   1.604   7.028   3.206
    1   AR   Ar   74   1.608   1.471   4.744
    1   AR   Ar   75   3.813   0.860   4.611
    1   AR   Ar   76   2.102   1.130   2.245
    1   AR   Ar   77   2.229   6.751   5.526
    1   AR   Ar   78   1.238   0.679   6.120
    1   AR   Ar   79   3.876   6.349   6.740
    1   AR   Ar   80   3.050   5.896   5.572
    1   AR   Ar   81   2.039   1.653  -0.120
    1   AR   Ar   82   0.478   3.375  -0.800
    1   AR   Ar   83   2.497   2.553   0.519
    1   AR   Ar   84   1.219   4.044  -2.500
    1   AR   Ar   85   0.668   2.382  -0.405
    1   AR   Ar   86   1.992   3.343   2.004
    1   AR   Ar   87   2.322   2.310   1.874
    1   AR   Ar   88   3.913   3.809   1.524
    1   AR   Ar   89   0.826   2.897   1.797
    1   AR   Ar   90   2.952   1.995   4.517
    1   AR   Ar   91   1.906   2.300   3.999
    1   AR   Ar   92   2.023   2.173   2.984
    1   AR   Ar   93   2.136   2.009   5.469
    1   AR   Ar   94   2.224   0.980   7.834
    1   AR   Ar   95   3.257   7.083   5.854
    1   AR   Ar   96   2.301   0.772   5.694
    1   AR   Ar   97   3.719   2.538  -1.523
    1   AR   Ar   98   2.750   4.444   1.271
    1   AR   Ar   99   6.464   2.632  -1.344
    1   AR   Ar  100   1.884   3.984  -0.415
    1   AR   Ar  101   1.310   2.647   0.657
    1   AR   Ar  102   2.724   3.716   3.974
    1   AR   Ar  103   1.064   4.279   0.254
    1   AR   Ar  104   2.826   2.838  -0.702
    1   AR   Ar  105   1.783   3.224   3.179
    1   AR   Ar  106   2.637   3.028   4.902
    1   AR   Ar  107   1.999   3.878   4.878
    1   AR   Ar  108   3.611   3.091   4.176
    1   AR   Ar  109   1.545   4.167   3.931
    1   AR   Ar  110   1.223   4.814   5.505
    1   AR   Ar  111   4.328   5.353   7.085
    1   AR   Ar  112   0.753   4.914   6.732
    1   AR   Ar  113   2.153   4.512   0.426
    1   AR   Ar  114   2.570   6.051   0.419
    1   AR   Ar  115   3.152   4.442  -0.550
    1   AR   Ar  116   4.736   6.442   0.220
    1   AR   Ar  117   0.641   5.592   3.756
    1   AR   Ar  118   0.701   6.437   2.992
    1   AR   Ar  119   2.250   4.144   2.777
    1   AR   Ar  120   1.472   5.439   2.103
    1   AR   Ar  121   7.007   4.761   3.906
    1   AR   Ar  122   2.401   6.137   4.638
    1   AR   Ar  123   2.426   5.047   4.846
    1   AR   Ar  124   2.278   5.964   2.976
    1   AR   Ar  125   0.662   4.906   4.557
    1   AR   Ar  126   0.564   0.233   5.276
    1   AR   Ar  127   3.198   5.528   6.974
    1   AR   Ar  128   2.198   5.301   6.563
    1   AR   Ar  129   1.820   0.086   1.811
    1   AR   Ar  130   3.907   1.181  -2.572
    1   AR   Ar  131   4.850   7.096   1.206
    1   AR   Ar  132   0.395   2.314  -1.518
    1   AR   Ar  133   3.672   7.103   2.907
    1   AR   Ar  134   3.898   1.323   2.629
    1   AR   Ar  135   4.672   0.689   2.519
    1   AR   Ar  136   3.985   0.100   1.826
    1   AR   Ar  137   2.655   0.010   3.390
    1   AR   Ar  138   4.704   0.941   4.987
    1   AR   Ar  139   5.758   1.231   4.645
    1   AR   Ar  140   4.143   0.917   3.552
    1   AR   Ar  141   3.927   6.965   4.008
    1   AR   Ar  142   4.180   7.083   5.288
    1   AR   Ar  143   5.348   6.926   6.137
    1   AR   Ar  144   5.155   0.689   6.606
    1   AR   Ar  145   3.467   3.849   0.226
    1   AR   Ar  146   4.158   2.608   1.675
    1   AR   Ar  147   5.789   1.979  -0.635
    1   AR   Ar  148   5.473   3.695  -2.534
    1   AR   Ar  149   3.966   2.271   0.705
    1   AR   Ar  150   2.673   1.487   2.997
    1   AR   Ar  151   3.605   2.373   3.378
    1   AR   Ar  152   2.480   3.579   0.797
    1   AR   Ar  153   2.956   1.018   3.847
    1   AR   Ar  154   3.992   1.874   4.478
    1   AR   Ar  155   5.569   0.773   5.631
    1   AR   Ar  156   3.758   3.993   3.518
    1   AR   Ar  157   2.690   3.005   5.990
    1   AR   Ar  158   1.521   2.434   7.333
    1   AR   Ar  159   3.861   0.792   5.937
    1   AR   Ar  160   3.836   2.656   7.542
    1   AR   Ar  161   5.202   2.181   0.608
    1   AR   Ar  162   4.182   5.607  -0.384
    1   AR   Ar  163   5.316   3.650  -0.174
    1   AR   Ar  164   3.873   5.102   1.802
    1   AR   Ar  165   3.007   3.365   1.821
    1   AR   Ar  166   2.548   5.035   3.718
    1   AR   Ar  167   4.620   2.426   2.873
    1   AR   Ar  168   3.999   3.327  -0.765
    1   AR   Ar  169   2.858   3.047   3.210
    1   AR   Ar  170   3.322   3.866   5.032
    1   AR   Ar  171   4.293   3.794   4.334
    1   AR   Ar  172   4.471   5.234   4.331
    1   AR   Ar  173   1.923   3.436   7.069
    1   AR   Ar  174   3.903   4.810   6.179
    1   AR   Ar  175   3.893   3.815   5.847
    1   AR   Ar  176   3.490   4.956   5.226
    1   AR   Ar  177   5.835   5.729  -0.072
    1   AR   Ar  178   3.064   6.420   1.495
    1   AR   Ar  179   3.756   5.905   0.523
    1   AR   Ar  180   3.256   3.625  -2.059
    1   AR   Ar  181   2.314   5.617   1.549
    1   AR   Ar  182   2.678   6.753   2.388
    1   AR   Ar  183   3.510   4.522   2.645
    1   AR   Ar  184   4.192   6.299   1.674
    1   AR   Ar  185   1.465   5.709   4.343
    1   AR   Ar  186   3.420   5.952   4.211
    1   AR   Ar  187   4.238   5.985   3.018
    1   AR   Ar  188   3.238   5.619   2.373
    1   AR   Ar  189   2.648   4.752   5.787
    1   AR   Ar  190   4.577   6.284   5.871
    1   AR   Ar  191   4.932   5.428   5.353
    1   AR   Ar  192   4.083   5.986   5.096
    1   AR   Ar  193   6.751   6.393  -0.330
    1   AR   Ar  194   5.680   5.446  -1.204
    1   AR   Ar  195   5.907   0.463  -0.252
    1   AR   Ar  196   5.544   0.919  -1.188
    1   AR   Ar  197   5.559   0.983   0.488
    1   AR   Ar  198   5.770   1.804   1.335
    1   AR   Ar  199   5.208   0.880   1.686
    1   AR   Ar  200   6.384   1.501   0.390
    1   AR   Ar  201   4.893   6.784   3.369
    1   AR   Ar  202   5.099   1.974   4.373
    1   AR   Ar  203   0.081   6.599   4.746
    1   AR   Ar  204   5.102   0.444   4.072
    1   AR   Ar  205   6.164   0.112   2.945
    1   AR   Ar  206   5.272   7.037   5.160
    1   AR   Ar  207   6.602   0.685   6.006
    1   AR   Ar  208   0.095   0.785   4.004
    1   AR   Ar  209   4.832   2.254  -2.239
    1   AR   Ar  210   3.808   1.071   0.923
    1   AR   Ar  211   6.161   3.064   0.195
    1   AR   Ar  212   6.399   3.873  -1.777
    1   AR   Ar  213   3.286   2.383   2.272
    1   AR   Ar  214   4.018   3.284   2.426
    1   AR   Ar  215   5.732   2.224   2.483
    1   AR   Ar  216   6.723   2.716   1.976
    1   AR   Ar  217   4.426   3.142   3.478
    1   AR   Ar  218   4.487   3.042   5.117
    1   AR   Ar  219   5.189   1.500   3.311
    1   AR   Ar  220   5.195   3.226   2.654
    1   AR   Ar  221   6.690   0.485   4.877
    1   AR   Ar  222   4.749   1.673   6.009
    1   AR   Ar  223   6.856   0.993   7.064
    1   AR   Ar  224   5.697   2.071   5.299
    1   AR   Ar  225   5.107   4.639   0.135
    1   AR   Ar  226   4.863   4.354   2.608
    1   AR   Ar  227   6.697   5.096  -0.067
    1   AR   Ar  228   5.330   5.811   0.917
    1   AR   Ar  229   6.080   4.443   0.648
    1   AR   Ar  230   4.437   4.868   3.334
    1   AR   Ar  231   6.723   2.293   3.252
    1   AR   Ar  232   4.447   3.266   0.390
    1   AR   Ar  233   6.119   2.351   4.290
    1   AR   Ar  234   6.709   3.683   4.196
    1   AR   Ar  235   0.287   2.775   4.328
    1   AR   Ar  236   5.306   4.177   4.143
    1   AR   Ar  237   5.442   3.189   4.155
    1   AR   Ar  238   4.595   4.536   5.217
    1   AR   Ar  239   5.833   4.045   9.236
    1   AR   Ar  240   7.106   4.236   5.217
    1   AR   Ar  241   6.957   0.351  -0.714
    1   AR   Ar  242   4.879   4.758   1.386
    1   AR   Ar  243   5.798   4.317   2.105
    1   AR   Ar  244   0.301   5.517  -0.537
    1   AR   Ar  245   5.435   7.084   2.323
    1   AR   Ar  246   6.009   6.491   1.646
    1   AR   Ar  247   5.430   3.232   1.450
    1   AR   Ar  248   6.022   6.590   0.511
    1   AR   Ar  249   5.551   5.391   2.689
    1   AR   Ar  250   4.794   6.286   4.338
    1   AR   Ar  251   5.720   5.148   4.587
    1   AR   Ar  252   5.816   6.194   3.608
    1   AR   Ar  253   5.893   4.910   5.810
    1   AR   Ar  254   5.212   5.433   6.529
    1   AR   Ar  255   5.152   4.399   6.846
    1   AR   Ar  256   5.994   6.819   4.399
    7.12000  7.12000 12.00000
Argon-slab step 1780
  256
    1   AR   Ar    1   6.758   1.291  -1.067
    1   AR   Ar    2   6.016   0.412   1.417
    1   AR   Ar    3   7.017   6.988   0.831
    1   AR   Ar    4   1.064   0.091   0.096
    1   AR   Ar    5   6.617   5.760   0.738
    1   AR   Ar    6   7.081   0.294   2.730
    1   AR   Ar    7   0.421   5.031   2.900
    1   AR   Ar    8   6.991   6.909   1.890
    1   AR   Ar    9   1.078   0.460   4.167
    1   AR   Ar   10   0.480   1.815   4.004
    1   AR   Ar   11   3.037   6.849   4.765
    1   AR   Ar   12   1.137   1.506   2.721
    1   AR   Ar   13   6.828   1.529   4.673
    1   AR   Ar   14   0.108   1.594   6.229
    1   AR   Ar   15   0.166   0.011   9.252
    1   AR   Ar   16   0.601   1.430   5.303
    1   AR   Ar   17   0.509   1.358   0.039
    1   AR   Ar   18   6.309   3.626  -0.747
    1   AR   Ar   19   1.171   1.775   1.709
    1   AR   Ar   20   6.554   2.120  -2.503
    1   AR   Ar   21   6.181   1.114   2.695
    1   AR   Ar   22   0.247   1.843   2.098
    1   AR   Ar   23   6.720   1.174   1.271
    1   AR   Ar   24   0.323   2.290   1.158
    1   AR   Ar   25   0.242   1.273   3.104
    1   AR   Ar   26   6.355   1.362   3.776
    1   AR   Ar   27   1.940   1.165   3.600
    1   AR   Ar   28   1.355   2.556   4.908
    1   AR   Ar   29   6.204   1.541   6.269
    1   AR   Ar   30   0.513   2.867   6.092
    1   AR   Ar   31   0.581   7.118   6.778
    1   AR   Ar   32   1.716   2.786   6.070
    1   AR   Ar   33   1.200   4.372  -1.444
    1   AR   Ar   34   0.480   5.893   2.141
    1   AR   Ar   35   0.518   3.782   1.178
    1   AR   Ar   36   0.098   6.968  -1.746
    1   AR   Ar   37   0.247   3.302   2.581
    1   AR   Ar   38   7.003   4.234   1.932
    1   AR   Ar   39   1.285   4.233   2.157
    1   AR   Ar   40   1.578   3.744   1.042
    1   AR   Ar   41   0.797   2.347   3.234
    1   AR   Ar   42   6.882   5.643   5.348
    1   AR   Ar   43   6.893   2.376   5.380
    1   AR   Ar   44   0.742   3.685   3.393
    1   AR   Ar   45   0.996   3.653   5.453
    1   AR   Ar   46   0.424   6.093   6.319
    1   AR   Ar   47   5.777   3.756   6.156
    1   AR   Ar   48   6.315   6.900   6.711
    1   AR   Ar   49   7.014   5.654  -1.996
    1   AR   Ar   50   6.572   5.117   1.685
    1   AR   Ar   51   1.453   4.912   1.235
    1   AR   Ar   52   6.966   4.431  -0.918
    1   AR   Ar   53   6.340   6.193   2.610
    1   AR   Ar   54   6.778   6.526   3.454
    1   AR   Ar   55   6.387   4.734   2.915
    1   AR   Ar   56   0.780   6.577   1.158
    1   AR   Ar   57   6.290   3.502   2.646
    1   AR   Ar   58   6.556   5.749   4.183
    1   AR   Ar   59   2.021   5.674   5.527
    1   AR   Ar   60   0.957   6.547   4.020
    1   AR   Ar   61   5.730   6.091   5.316
    1   AR   Ar   62   0.833   5.908   5.163
    1   AR   Ar   63   1.603   6.551   6.837
    1   AR   Ar   64   1.450   6.919   4.983
    1   AR   Ar   65   3.190   0.002   0.195
    1   AR   Ar   66   1.595   0.886   0.983
    1   AR   Ar   67   3.618   6.411  -1.048
    1   AR   Ar   68   3.330   1.299  -1.461
    1   AR   Ar   69   2.244   0.071   0.752
    1   AR   Ar   70   0.457   0.556   1.440
    1   AR   Ar   71   3.004   0.587   2.374
    1   AR   Ar   72   3.112   0.379   1.316
    1   AR   Ar   73   1.593   7.018   3.213
    1   AR   Ar   74   1.623   1.454   4.745
    1   AR   Ar   75   3.776   0.855   4.601
    1   AR   Ar   76   2.105   1.129   2.222
    1   AR   Ar   77   2.253   6.744   5.504
    1   AR   Ar   78   1.224   0.666   6.109
    1   AR   Ar   79   3.877   6.330   6.760
    1   AR   Ar   80   3.006   5.883   5.556
    1   AR   Ar   81   2.079   1.667  -0.149
    1   AR   Ar   82   0.471   3.362  -0.826
    1   AR   Ar   83   2.475   2.523   0.512
    1   AR   Ar   84   1.184   4.052  -2.451
    1   AR   Ar   85   0.665   2.367  -0.367
    1   AR   Ar   86   2.014   3.351   1.997
    1   AR   Ar   87   2.305   2.304   1.859
    1   AR   Ar   88   3.935   3.755   1.551
    1   AR   Ar   89   0.819   2.935   1.746
    1   AR   Ar   90   2.957   2.039   4.549
    1   AR   Ar   91   1.914   2.300   3.994
    1   AR   Ar   92   2.012   2.180   2.971
    1   AR   Ar   93   2.103   2.063   5.450
    1   AR   Ar   94   2.200   0.992   7.849
    1   AR   Ar   95   3.261   7.103   5.872
    1   AR   Ar   96   2.271   0.759   5.695
    1   AR   Ar   97   3.704   2.520  -1.521
    1   AR   Ar   98   2.753   4.435   1.225
    1   AR   Ar   99   6.503   2.622  -1.351
    1   AR   Ar  100   1.852   3.973  -0.417
    1   AR   Ar  101   1.318   2.665   0.699
    1   AR   Ar  102   2.749   3.700   3.979
    1   AR   Ar  103   1.089   4.297   0.249
    1   AR   Ar  104   2.826   2.779  -0.688
    1   AR   Ar  105   1.775   3.240   3.178
    1   AR   Ar  106   2.641   3.014   4.874
    1   AR   Ar  107   2.058   3.873   4.861
    1   AR   Ar  108   3.606   3.081   4.197
    1   AR   Ar  109   1.526   4.187   3.918
    1   AR   Ar  110   1.211   4.787   5.524
    1   AR   Ar  111   4.341   5.336   7.063
    1   AR   Ar  112   0.726   4.931   6.719
    1   AR   Ar  113   2.135   4.487   0.423
    1   AR   Ar  114   2.574   6.067   0.384
    1   AR   Ar  115   3.158   4.447  -0.551
    1   AR   Ar  116   4.747   6.411   0.201
    1   AR   Ar  117   0.618   5.626   3.773
    1   AR   Ar  118   0.687   6.427   2.970
    1   AR   Ar  119   2.225   4.145   2.792
    1   AR   Ar  120   1.514   5.445   2.093
    1   AR   Ar  121   6.975   4.753   3.911
    1   AR   Ar  122   2.395   6.134   4.639
    1   AR   Ar  123   2.426   5.038   4.833
    1   AR   Ar  124   2.244   5.961   2.966
    1   AR   Ar  125   0.638   4.921   4.581
    1   AR   Ar  126   0.575   0.215   5.272
    1   AR   Ar  127   3.181   5.527   6.975
    1   AR   Ar  128   2.193   5.311   6.560
    1   AR   Ar  129   1.797   0.098   1.826
    1   AR   Ar  130   3.878   1.179  -2.619
    1   AR   Ar  131   4.852   0.001   1.195
    1   AR   Ar  132   0.408   2.320  -1.509
    1   AR   Ar  133   3.692   0.007   2.902
    1   AR   Ar  134   3.924   1.345   2.616
    1   AR   Ar  135   4.700   0.698   2.515
    1   AR   Ar  136   3.974   0.083   1.819
    1   AR   Ar  137   2.686   0.038   3.387
    1   AR   Ar  138   4.706   0.937   4.996
    1   AR   Ar  139   5.814   1.240   4.645
    1   AR   Ar  140   4.159   0.895   3.562
    1   AR   Ar  141   3.927   6.974   4.006
    1   AR   Ar  142   4.193   7.109   5.292
    1   AR   Ar  143   5.330   6.915   6.164
    1   AR   Ar  144   5.120   0.685   6.614
    1   AR   Ar  145   3.482   3.873   0.240
    1   AR   Ar  146   4.161   2.622   1.666
    1   AR   Ar  147   5.801   1.971  -0.664
    1   AR   Ar  148   5.465   3.750  -2.519
    1   AR   Ar  149   3.959   2.273   0.691
    1   AR   Ar  150   2.694   1.499   2.981
    1   AR   Ar  151   3.635   2.383   3.387
    1   AR   Ar  152   2.453   3.585   0.751
    1   AR   Ar  153   2.939   1.014   3.860
    1   AR   Ar  154   4.026   1.887   4.467
    1   AR   Ar  155   5.580   0.791   5.660
    1   AR   Ar  156   3.741   3.978   3.551
    1   AR   Ar  157   2.720   3.004   5.994
    1   AR   Ar  158   1.506   2.466   7.303
    1   AR   Ar  159   3.878   0.779   5.921
    1   AR   Ar  160   3.829   2.635   7.550
    1   AR   Ar  161   5.217   2.189   0.606
    1   AR   Ar  162   4.180   5.586  -0.379
    1   AR   Ar  163   5.339   3.643  -0.204
    1   AR   Ar  164   3.879   5.102   1.783
    1   AR   Ar  165   2.989   3.357   1.817
    1   AR   Ar  166   2.556   5.039   3.745
    1   AR   Ar  167   4.619   2.420   2.861
    1   AR   Ar  168   4.013   3.307  -0.793
    1   AR   Ar  169   2.880   3.058   3.201
    1   AR   Ar  170   3.315   3.856   5.003
    1   AR   Ar  171   4.261   3.820   4.321
    1   AR   Ar  172   4.489   5.225   4.314
    1   AR   Ar  173   1.914   3.455   7.078
    1   AR   Ar  174   3.858   4.819   6.170
    1   AR   Ar  175   3.923   3.874   5.876
    1   AR   Ar  176   3.460   4.945   5.232
    1   AR   Ar  177   5.835   5.770  -0.089
    1   AR   Ar  178   3.023   6.411   1.505
    1   AR   Ar  179   3.770   5.890   0.532
    1   AR   Ar  180   3.259   3.616  -2.071
    1   AR   Ar  181   2.283   5.614   1.554
    1   AR   Ar  182   2.679   6.761   2.393
    1   AR   Ar  183   3.546   4.518   2.676
    1   AR   Ar  184   4.224   6.281   1.645
    1   AR   Ar  185   1.469   5.730   4.351
    1   AR   Ar  186   3.426   5.968   4.222
    1   AR   Ar  187   4.208   6.015   3.022
    1   AR   Ar  188   3.275   5.645   2.371
    1   AR   Ar  189   2.615   4.721   5.802
    1   AR   Ar  190   4.578   6.287   5.858
    1   AR   Ar  191   4.935   5.411   5.344
    1   AR   Ar  192   4.076   5.989   5.105
    1   AR   Ar  193   6.780   6.388  -0.332
    1   AR   Ar  194   5.673   5.420  -1.187
    1   AR   Ar  195   5.909   0.481  -0.255
    1   AR   Ar  196   5.551   0.953  -1.196
    1   AR   Ar  197   5.561   0.987   0.480
    1   AR   Ar  198   5.782   1.792   1.352
    1   AR   Ar  199   5.185   0.899   1.668
    1   AR   Ar  200   6.384   1.502   0.393
    1   AR   Ar  201   4.917   6.770   3.357
    1   AR   Ar  202   5.109   1.993   4.402
    1   AR   Ar  203   0.060   6.588   4.745
    1   AR   Ar  204   5.114   0.457   4.095
    1   AR   Ar  205   6.152   0.125   2.955
    1   AR   Ar  206   5.267   7.037   5.170
    1   AR   Ar  207   6.603   0.702   6.005
    1   AR   Ar  208   0.089   0.766   3.987
    1   AR   Ar  209   4.835   2.266  -2.227
    1   AR   Ar  210   3.790   1.063   0.919
    1   AR   Ar  211   6.174   3.081   0.207
    1   AR   Ar  212   6.404   3.854  -1.764
    1   AR   Ar  213   3.289   2.380   2.284
    1   AR   Ar  214   4.012   3.285   2.414
    1   AR   Ar  215   5.728   2.194   2.465
    1   AR   Ar  216   6.704   2.732   1.984
    1   AR   Ar  217   4.407   3.153   3.477
    1   AR   Ar  218   4.499   3.031   5.116
    1   AR   Ar  219   5.219   1.479   3.317
    1   AR   Ar  220   5.202   3.237   2.656
    1   AR   Ar  221   6.653   0.499   4.918
    1   AR   Ar  222   4.719   1.662   6.030
    1   AR   Ar  223   6.873   0.975   7.068
    1   AR   Ar  224   5.680   2.074   5.299
    1   AR   Ar  225   5.086   4.646   0.152
    1   AR   Ar  226   4.857   4.339   2.629
    1   AR   Ar  227   6.677   5.073  -0.022
    1   AR   Ar  228   5.281   5.823   0.931
    1   AR   Ar  229   6.095   4.450   0.639
    1   AR   Ar  230   4.445   4.819   3.387
    1   AR   Ar  231   6.694   2.256   3.246
    1   AR   Ar  232   4.447   3.252   0.390
    1   AR   Ar  233   6.090   2.353   4.293
    1   AR   Ar  234   6.726   3.698   4.181
    1   AR   Ar  235   0.268   2.729   4.326
    1   AR   Ar  236   5.303   4.204   4.166
    1   AR   Ar  237   5.419   3.187   4.146
    1   AR   Ar  238   4.570   4.527   5.198
    1   AR   Ar  239   5.818   4.039   9.233
    1   AR   Ar  240   7.082   4.228   5.216
    1   AR   Ar  241   6.956   0.357  -0.719
    1   AR   Ar  242   4.888   4.712   1.402
    1   AR   Ar  243   5.795   4.299   2.102
    1   AR   Ar  244   0.324   5.491  -0.567
    1   AR   Ar  245   5.442   7.082   2.274
    1   AR   Ar  246   6.014   6.510   1.664
    1   AR   Ar  247   5.418   3.248   1.454
    1   AR   Ar  248   6.011   6.579   0.494
    1   AR   Ar  249   5.548   5.424   2.692
    1   AR   Ar  250   4.774   6.329   4.329
    1   AR   Ar  251   5.698   5.151   4.590
    1   AR   Ar  252   5.829   6.198   3.604
    1   AR   Ar  253   5.919   4.892   5.807
    1   AR   Ar  254   5.172   5.440   6.465
    1   AR   Ar  255   5.164   4.399   6.867
    1   AR   Ar  256   6.015   6.830   4.360
    7.12000  7.12000 12.00000
Argon-slab step 1785
  256
    1   AR   Ar    1   6.764   1.294  -1.058
    1   AR   Ar    2   5.989   0.417   1.416
    1   AR   Ar    3   6.984   6.968   0.835
    1   AR   Ar    4   1.096   0.074   0.121
    1   AR   Ar    5   6.628   5.772   0.726
    1   AR   Ar    6   7.093   0.312   2.714
    1   AR   Ar    7   0.410   4.982   2.927
    1   AR   Ar    8   6.970   6.941   1.889
    1   AR   Ar    9   1.086   0.462   4.173
    1   AR   Ar   10   0.497   1.767   3.967
    1   AR   Ar   11   3.045   6.870   4.771
    1   AR   Ar   12   1.191   1.502   2.726
    1   AR   Ar   13   6.853   1.518   4.670
    1   AR   Ar   14   0.139   1.594   6.239
    1   AR   Ar   15   0.155   0.029   9.244
    1   AR   Ar   16   0.589   1.436   5.319
    1   AR   Ar   17   0.518   1.344   0.059
    1   AR   Ar   18   6.312   3.631  -0.759
    1   AR   Ar   19   1.198   1.776   1.707
    1   AR   Ar   20   6.547   2.126  -2.563
    1   AR   Ar   21   6.199   1.104   2.723
    1   AR   Ar   22   0.229   1.845   2.095
    1   AR   Ar   23   6.709   1.173   1.275
    1   AR   Ar   24   0.356   2.240   1.182
    1   AR   Ar   25   0.231   1.282   3.118
    1   AR   Ar   26   6.352   1.350   3.785
    1   AR   Ar   27   1.946   1.148   3.622
    1   AR   Ar   28   1.358   2.554   4.900
    1   AR   Ar   29   6.177   1.511   6.285
    1   AR   Ar   30   0.491   2.849   6.097
    1   AR   Ar   31   0.610   7.105   6.778
    1   AR   Ar   32   1.746   2.819   6.064
    1   AR   Ar   33   1.231   4.359  -1.420
    1   AR   Ar   34   0.457   5.895   2.152
    1   AR   Ar   35   0.496   3.801   1.154
    1   AR   Ar   36   0.128   6.956  -1.733
    1   AR   Ar   37   0.231   3.283   2.601
    1   AR   Ar   38   6.995   4.236   1.905
    1   AR   Ar   39   1.320   4.252   2.169
    1   AR   Ar   40   1.566   3.741   1.072
    1   AR   Ar   41   0.841   2.329   3.221
    1   AR   Ar   42   6.871   5.631   5.326
    1   AR   Ar   43   6.902   2.401   5.381
    1   AR   Ar   44   0.761   3.683   3.391
    1   AR   Ar   45   0.986   3.657   5.452
    1   AR   Ar   46   0.455   6.125   6.329
    1   AR   Ar   47   5.762   3.768   6.200
    1   AR   Ar   48   6.288   6.900   6.700
    1   AR   Ar   49   7.024   5.671  -2.006
    1   AR   Ar   50   6.560   5.126   1.687
    1   AR   Ar   51   1.462   4.892   1.237
    1   AR   Ar   52   6.968   4.412  -0.937
    1   AR   Ar   53   6.358   6.196   2.629
    1   AR   Ar   54   6.787   6.504   3.458
    1   AR   Ar   55   6.401   4.747   2.943
    1   AR   Ar   56   0.772   6.586   1.169
    1   AR   Ar   57   6.287   3.489   2.640
    1   AR   Ar   58   6.545   5.760   4.179
    1   AR   Ar   59   2.025   5.641   5.537
    1   AR   Ar   60   0.928   6.559   4.055
    1   AR   Ar   61   5.709   6.131   5.284
    1   AR   Ar   62   0.814   5.898   5.150
    1   AR   Ar   63   1.615   6.542   6.810
    1   AR   Ar   64   1.436   6.882   4.985
    1   AR   Ar   65   3.191   0.013   0.229
    1   AR   Ar   66   1.589   0.902   1.006
    1   AR   Ar   67   3.641   6.425  -1.049
    1   AR   Ar   68   3.315   1.292  -1.478
    1   AR   Ar   69   2.231   0.091   0.739
    1   AR   Ar   70   0.444   0.579   1.443
    1   AR   Ar   71   3.009   0.592   2.391
    1   AR   Ar   72   3.137   0.366   1.312
    1   AR   Ar   73   1.583   7.008   3.219
    1   AR   Ar   74   1.635   1.434   4.743
    1   AR   Ar   75   3.733   0.847   4.588
    1   AR   Ar   76   2.102   1.129   2.195
    1   AR   Ar   77   2.288   6.737   5.493
    1   AR   Ar   78   1.226   0.627   6.096
    1   AR   Ar   79   3.879   6.312   6.777
    1   AR   Ar   80   2.970   5.873   5.539
    1   AR   Ar   81   2.118   1.681  -0.178
    1   AR   Ar   82   0.464   3.333  -0.808
    1   AR   Ar   83   2.452   2.492   0.504
    1   AR   Ar   84   1.148   4.058  -2.404
    1   AR   Ar   85   0.662   2.353  -0.329
    1   AR   Ar   86   2.023   3.360   1.993
    1   AR   Ar   87   2.286   2.296   1.844
    1   AR   Ar   88   3.959   3.710   1.566
    1   AR   Ar   89   0.818   2.975   1.700
    1   AR   Ar   90   2.960   2.081   4.579
    1   AR   Ar   91   1.923   2.299   3.994
    1   AR   Ar   92   1.989   2.198   2.952
    1   AR   Ar   93   2.077   2.114   5.431
    1   AR   Ar   94   2.175   1.004   7.863
    1   AR   Ar   95   3.277   7.116   5.871
    1   AR   Ar   96   2.263   0.735   5.680
    1   AR   Ar   97   3.689   2.501  -1.520
    1   AR   Ar   98   2.761   4.431   1.189
    1   AR   Ar   99   6.539   2.614  -1.357
    1   AR   Ar  100   1.822   3.958  -0.424
    1   AR   Ar  101   1.326   2.683   0.742
    1   AR   Ar  102   2.771   3.690   3.989
    1   AR   Ar  103   1.110   4.315   0.245
    1   AR   Ar  104   2.827   2.721  -0.673
    1   AR   Ar  105   1.765   3.255   3.178
    1   AR   Ar  106   2.644   2.996   4.847
    1   AR   Ar  107   2.115   3.872   4.846
    1   AR   Ar  108   3.594   3.062   4.219
    1   AR   Ar  109   1.510   4.208   3.905
    1   AR   Ar  110   1.199   4.761   5.543
    1   AR   Ar  111   4.350   5.318   7.043
    1   AR   Ar  112   0.700   4.949   6.705
    1   AR   Ar  113   2.113   4.473   0.417
    1   AR   Ar  114   2.578   6.088   0.341
    1   AR   Ar  115   3.162   4.455  -0.556
    1   AR   Ar  116   4.767   6.397   0.201
    1   AR   Ar  117   0.588   5.656   3.787
    1   AR   Ar  118   0.672   6.422   2.954
    1   AR   Ar  119   2.201   4.146   2.808
    1   AR   Ar  120   1.538   5.451   2.102
    1   AR   Ar  121   6.968   4.764   3.939
    1   AR   Ar  122   2.380   6.120   4.634
    1   AR   Ar  123   2.426   5.028   4.813
    1   AR   Ar  124   2.209   5.957   2.956
    1   AR   Ar  125   0.618   4.936   4.608
    1   AR   Ar  126   0.582   0.202   5.271
    1   AR   Ar  127   3.165   5.525   6.974
    1   AR   Ar  128   2.186   5.323   6.558
    1   AR   Ar  129   1.774   0.109   1.840
    1   AR   Ar  130   3.849   1.178  -2.666
    1   AR   Ar  131   4.856   0.024   1.182
    1   AR   Ar  132   0.425   2.323  -1.491
    1   AR   Ar  133   3.717   0.032   2.911
    1   AR   Ar  134   3.944   1.373   2.602
    1   AR   Ar  135   4.726   0.702   2.521
    1   AR   Ar  136   3.972   0.070   1.799
    1   AR   Ar  137   2.717   0.066   3.387
    1   AR   Ar  138   4.714   0.936   5.008
    1   AR   Ar  139   5.865   1.243   4.649
    1   AR   Ar  140   4.177   0.872   3.572
    1   AR   Ar  141   3.928   6.983   4.025
    1   AR   Ar  142   4.205   0.013   5.292
    1   AR   Ar  143   5.318   6.899   6.196
    1   AR   Ar  144   5.083   0.686   6.625
    1   AR   Ar  145   3.495   3.885   0.255
    1   AR   Ar  146   4.167   2.634   1.654
    1   AR   Ar  147   5.814   1.962  -0.693
    1   AR   Ar  148   5.458   3.805  -2.502
    1   AR   Ar  149   3.944   2.264   0.687
    1   AR   Ar  150   2.735   1.504   2.962
    1   AR   Ar  151   3.647   2.389   3.395
    1   AR   Ar  152   2.452   3.576   0.697
    1   AR   Ar  153   2.928   1.007   3.878
    1   AR   Ar  154   4.061   1.902   4.454
    1   AR   Ar  155   5.592   0.814   5.688
    1   AR   Ar  156   3.709   3.967   3.566
    1   AR   Ar  157   2.755   3.004   5.997
    1   AR   Ar  158   1.491   2.497   7.272
    1   AR   Ar  159   3.901   0.774   5.905
    1   AR   Ar  160   3.822   2.614   7.558
    1   AR   Ar  161   5.228   2.199   0.598
    1   AR   Ar  162   4.176   5.585  -0.387
    1   AR   Ar  163   5.360   3.635  -0.233
    1   AR   Ar  164   3.890   5.098   1.758
    1   AR   Ar  165   2.980   3.348   1.811
    1   AR   Ar  166   2.564   5.043   3.772
    1   AR   Ar  167   4.618   2.398   2.839
    1   AR   Ar  168   4.027   3.287  -0.819
    1   AR   Ar  169   2.899   3.067   3.185
    1   AR   Ar  170   3.307   3.848   4.972
    1   AR   Ar  171   4.249   3.850   4.332
    1   AR   Ar  172   4.507   5.219   4.305
    1   AR   Ar  173   1.905   3.474   7.085
    1   AR   Ar  174   3.815   4.839   6.167
    1   AR   Ar  175   3.954   3.922   5.902
    1   AR   Ar  176   3.434   4.936   5.230
    1   AR   Ar  177   5.832   5.805  -0.109
    1   AR   Ar  178   2.988   6.400   1.508
    1   AR   Ar  179   3.782   5.878   0.546
    1   AR   Ar  180   3.275   3.610  -2.088
    1   AR   Ar  181   2.269   5.614   1.547
    1   AR   Ar  182   2.675   6.763   2.401
    1   AR   Ar  183   3.581   4.515   2.704
    1   AR   Ar  184   4.259   6.247   1.613
    1   AR   Ar  185   1.467   5.733   4.373
    1   AR   Ar  186   3.432   5.983   4.234
    1   AR   Ar  187   4.177   6.044   3.025
    1   AR   Ar  188   3.306   5.677   2.375
    1   AR   Ar  189   2.581   4.686   5.820
    1   AR   Ar  190   4.586   6.292   5.861
    1   AR   Ar  191   4.937   5.398   5.331
    1   AR   Ar  192   4.056   5.987   5.097
    1   AR   Ar  193   6.808   6.382  -0.333
    1   AR   Ar  194   5.666   5.394  -1.169
    1   AR   Ar  195   5.911   0.460  -0.298
    1   AR   Ar  196   5.560   0.989  -1.205
    1   AR   Ar  197   5.545   0.992   0.491
    1   AR   Ar  198   5.799   1.778   1.375
    1   AR   Ar  199   5.160   0.927   1.645
    1   AR   Ar  200   6.385   1.514   0.384
    1   AR   Ar  201   4.941   6.759   3.342
    1   AR   Ar  202   5.107   2.008   4.423
    1   AR   Ar  203   0.037   6.574   4.740
    1   AR   Ar  204   5.127   0.470   4.119
    1   AR   Ar  205   6.120   0.116   2.978
    1   AR   Ar  206   5.273   7.035   5.176
    1   AR   Ar  207   6.612   0.704   6.000
    1   AR   Ar  208   0.082   0.742   3.974
    1   AR   Ar  209   4.838   2.279  -2.213
    1   AR   Ar  210   3.775   1.057   0.914
    1   AR   Ar  211   6.187   3.096   0.220
    1   AR   Ar  212   6.410   3.836  -1.753
    1   AR   Ar  213   3.292   2.376   2.299
    1   AR   Ar  214   3.993   3.277   2.434
    1   AR   Ar  215   5.724   2.164   2.447
    1   AR   Ar  216   6.695   2.748   1.986
    1   AR   Ar  217   4.389   3.173   3.483
    1   AR   Ar  218   4.512   3.021   5.113
    1   AR   Ar  219   5.250   1.457   3.324
    1   AR   Ar  220   5.213   3.243   2.674
    1   AR   Ar  221   6.615   0.512   4.959
    1   AR   Ar  222   4.691   1.648   6.048
    1   AR   Ar  223   6.889   0.955   7.071
    1   AR   Ar  224   5.664   2.076   5.303
    1   AR   Ar  225   5.064   4.656   0.170
    1   AR   Ar  226   4.855   4.317   2.641
    1   AR   Ar  227   6.653   5.043   0.021
    1   AR   Ar  228   5.233   5.834   0.946
    1   AR   Ar  229   6.108   4.457   0.633
    1   AR   Ar  230   4.449   4.773   3.441
    1   AR   Ar  231   6.667   2.219   3.240
    1   AR   Ar  232   4.446   3.238   0.391
    1   AR   Ar  233   6.067   2.353   4.295
    1   AR   Ar  234   6.743   3.711   4.166
    1   AR   Ar  235   0.242   2.688   4.315
    1   AR   Ar  236   5.298   4.238   4.189
    1   AR   Ar  237   5.394   3.180   4.136
    1   AR   Ar  238   4.538   4.503   5.175
    1   AR   Ar  239   5.802   4.032   9.230
    1   AR   Ar  240   7.060   4.220   5.213
    1   AR   Ar  241   6.957   0.356  -0.720
    1   AR   Ar  242   4.898   4.666   1.418
    1   AR   Ar  243   5.793   4.281   2.095
    1   AR   Ar  244   0.350   5.466  -0.601
    1   AR   Ar  245   5.443   0.002   2.309
    1   AR   Ar  246   6.019   6.522   1.675
    1   AR   Ar  247   5.406   3.264   1.459
    1   AR   Ar  248   6.004   6.573   0.482
    1   AR   Ar  249   5.545   5.457   2.695
    1   AR   Ar  250   4.756   6.373   4.323
    1   AR   Ar  251   5.675   5.156   4.593
    1   AR   Ar  252   5.830   6.197   3.593
    1   AR   Ar  253   5.944   4.876   5.802
    1   AR   Ar  254   5.136   5.450   6.396
    1   AR   Ar  255   5.157   4.407   6.842
    1   AR   Ar  256   6.037   6.845   4.333
    7.12000  7.12000 12.00000
Argon-slab step 1790
  256
    1   AR   Ar    1   6.778   1.306  -1.043
    1   AR   Ar    2   5.969   0.417   1.410
    1   AR   Ar    3   6.946   6.950   0.835
    1   AR   Ar    4   1.127   0.057   0.149
    1   AR   Ar    5   6.635   5.777   0.734
    1   AR   Ar    6   7.111   0.337   2.712
    1   AR   Ar    7   0.398   4.932   2.954
    1   AR   Ar    8   6.948   6.962   1.879
    1   AR   Ar    9   1.097   0.469   4.181
    1   AR   Ar   10   0.517   1.712   3.941
    1   AR   Ar   11   3.052   6.886   4.761
    1   AR   Ar   12   1.205   1.474   2.751
    1   AR   Ar   13   6.899   1.504   4.667
    1   AR   Ar   14   0.169   1.595   6.252
    1   AR   Ar   15   0.156   0.034   9.243
    1   AR   Ar   16   0.580   1.442   5.332
    1   AR   Ar   17   0.526   1.327   0.080
    1   AR   Ar   18   6.313   3.632  -0.764
    1   AR   Ar   19   1.170   1.781   1.713
    1   AR   Ar   20   6.546   2.164  -2.572
    1   AR   Ar   21   6.217   1.100   2.748
    1   AR   Ar   22   0.231   1.858   2.129
    1   AR   Ar   23   6.715   1.177   1.257
    1   AR   Ar   24   0.385   2.188   1.194
    1   AR   Ar   25   0.214   1.292   3.123
    1   AR   Ar   26   6.349   1.339   3.782
    1   AR   Ar   27   1.945   1.133   3.642
    1   AR   Ar   28   1.355   2.557   4.888
    1   AR   Ar   29   6.140   1.496   6.306
    1   AR   Ar   30   0.496   2.848   6.091
    1   AR   Ar   31   0.639   7.092   6.778
    1   AR   Ar   32   1.756   2.849   6.074
    1   AR   Ar   33   1.263   4.348  -1.390
    1   AR   Ar   34   0.430   5.890   2.152
    1   AR   Ar   35   0.474   3.821   1.126
    1   AR   Ar   36   0.157   6.943  -1.720
    1   AR   Ar   37   0.217   3.265   2.619
    1   AR   Ar   38   6.989   4.231   1.884
    1   AR   Ar   39   1.354   4.270   2.179
    1   AR   Ar   40   1.541   3.741   1.108
    1   AR   Ar   41   0.886   2.323   3.202
    1   AR   Ar   42   6.858   5.619   5.302
    1   AR   Ar   43   6.910   2.424   5.381
    1   AR   Ar   44   0.767   3.709   3.395
    1   AR   Ar   45   0.978   3.659   5.449
    1   AR   Ar   46   0.487   6.155   6.337
    1   AR   Ar   47   5.748   3.780   6.242
    1   AR   Ar   48   6.263   6.902   6.688
    1   AR   Ar   49   7.027   5.692  -2.014
    1   AR   Ar   50   6.545   5.142   1.689
    1   AR   Ar   51   1.470   4.868   1.234
    1   AR   Ar   52   6.973   4.397  -0.956
    1   AR   Ar   53   6.372   6.194   2.639
    1   AR   Ar   54   6.811   6.490   3.472
    1   AR   Ar   55   6.416   4.759   2.969
    1   AR   Ar   56   0.768   6.594   1.182
    1   AR   Ar   57   6.285   3.478   2.635
    1   AR   Ar   58   6.538   5.768   4.181
    1   AR   Ar   59   2.010   5.608   5.549
    1   AR   Ar   60   0.897   6.579   4.092
    1   AR   Ar   61   5.707   6.153   5.270
    1   AR   Ar   62   0.794   5.890   5.141
    1   AR   Ar   63   1.625   6.532   6.781
    1   AR   Ar   64   1.421   6.842   4.981
    1   AR   Ar   65   3.193   0.024   0.265
    1   AR   Ar   66   1.581   0.920   1.031
    1   AR   Ar   67   3.658   6.407  -1.049
    1   AR   Ar   68   3.301   1.286  -1.496
    1   AR   Ar   69   2.217   0.109   0.727
    1   AR   Ar   70   0.436   0.603   1.446
    1   AR   Ar   71   3.017   0.606   2.406
    1   AR   Ar   72   3.152   0.351   1.307
    1   AR   Ar   73   1.573   6.999   3.226
    1   AR   Ar   74   1.645   1.412   4.738
    1   AR   Ar   75   3.734   0.875   4.607
    1   AR   Ar   76   2.096   1.130   2.165
    1   AR   Ar   77   2.306   6.740   5.485
    1   AR   Ar   78   1.229   0.608   6.082
    1   AR   Ar   79   3.883   6.295   6.792
    1   AR   Ar   80   2.951   5.866   5.523
    1   AR   Ar   81   2.156   1.696  -0.206
    1   AR   Ar   82   0.456   3.306  -0.791
    1   AR   Ar   83   2.430   2.462   0.498
    1   AR   Ar   84   1.143   4.066  -2.381
    1   AR   Ar   85   0.659   2.346  -0.291
    1   AR   Ar   86   2.018   3.368   1.994
    1   AR   Ar   87   2.265   2.287   1.829
    1   AR   Ar   88   3.984   3.674   1.566
    1   AR   Ar   89   0.823   3.017   1.662
    1   AR   Ar   90   2.965   2.114   4.605
    1   AR   Ar   91   1.932   2.299   3.996
    1   AR   Ar   92   1.962   2.221   2.929
    1   AR   Ar   93   2.103   2.103   5.424
    1   AR   Ar   94   2.151   1.016   7.878
    1   AR   Ar   95   3.279   0.001   5.880
    1   AR   Ar   96   2.254   0.711   5.664
    1   AR   Ar   97   3.673   2.483  -1.518
    1   AR   Ar   98   2.776   4.430   1.162
    1   AR   Ar   99   6.550   2.622  -1.370
    1   AR   Ar  100   1.793   3.938  -0.438
    1   AR   Ar  101   1.335   2.701   0.785
    1   AR   Ar  102   2.787   3.685   4.002
    1   AR   Ar  103   1.121   4.334   0.243
    1   AR   Ar  104   2.829   2.663  -0.657
    1   AR   Ar  105   1.754   3.268   3.179
    1   AR   Ar  106   2.645   2.979   4.822
    1   AR   Ar  107   2.168   3.877   4.831
    1   AR   Ar  108   3.585   3.048   4.225
    1   AR   Ar  109   1.498   4.232   3.894
    1   AR   Ar  110   1.190   4.736   5.562
    1   AR   Ar  111   4.354   5.299   7.025
    1   AR   Ar  112   0.674   4.968   6.690
    1   AR   Ar  113   2.091   4.471   0.408
    1   AR   Ar  114   2.582   6.111   0.300
    1   AR   Ar  115   3.164   4.465  -0.562
    1   AR   Ar  116   4.789   6.389   0.204
    1   AR   Ar  117   0.550   5.679   3.798
    1   AR   Ar  118   0.659   6.423   2.947
    1   AR   Ar  119   2.181   4.149   2.825
    1   AR   Ar  120   1.539   5.454   2.134
    1   AR   Ar  121   6.978   4.788   3.980
    1   AR   Ar  122   2.366   6.102   4.626
    1   AR   Ar  123   2.426   5.014   4.791
    1   AR   Ar  124   2.173   5.952   2.947
    1   AR   Ar  125   0.601   4.951   4.640
    1   AR   Ar  126   0.548   0.211   5.261
    1   AR   Ar  127   3.151   5.521   6.973
    1   AR   Ar  128   2.176   5.337   6.558
    1   AR   Ar  129   1.751   0.121   1.854
    1   AR   Ar  130   3.819   1.178  -2.711
    1   AR   Ar  131   4.863   0.044   1.168
    1   AR   Ar  132   0.443   2.326  -1.473
    1   AR   Ar  133   3.745   0.055   2.922
    1   AR   Ar  134   3.933   1.383   2.592
    1   AR   Ar  135   4.747   0.703   2.538
    1   AR   Ar  136   3.972   0.063   1.787
    1   AR   Ar  137   2.741   0.072   3.404
    1   AR   Ar  138   4.725   0.937   5.022
    1   AR   Ar  139   5.892   1.238   4.660
    1   AR   Ar  140   4.195   0.849   3.583
    1   AR   Ar  141   3.929   6.993   4.044
    1   AR   Ar  142   4.217   0.033   5.285
    1   AR   Ar  143   5.318   6.903   6.196
    1   AR   Ar  144   5.045   0.692   6.637
    1   AR   Ar  145   3.498   3.865   0.255
    1   AR   Ar  146   4.176   2.643   1.641
    1   AR   Ar  147   5.828   1.953  -0.720
    1   AR   Ar  148   5.451   3.859  -2.485
    1   AR   Ar  149   3.924   2.247   0.689
    1   AR   Ar  150   2.785   1.510   2.941
    1   AR   Ar  151   3.631   2.392   3.405
    1   AR   Ar  152   2.467   3.552   0.638
    1   AR   Ar  153   2.924   1.000   3.900
    1   AR   Ar  154   4.088   1.917   4.439
    1   AR   Ar  155   5.604   0.837   5.713
    1   AR   Ar  156   3.663   3.957   3.564
    1   AR   Ar  157   2.795   3.006   5.998
    1   AR   Ar  158   1.476   2.527   7.240
    1   AR   Ar  159   3.931   0.784   5.889
    1   AR   Ar  160   3.815   2.593   7.566
    1   AR   Ar  161   5.202   2.184   0.607
    1   AR   Ar  162   4.174   5.585  -0.398
    1   AR   Ar  163   5.379   3.628  -0.261
    1   AR   Ar  164   3.905   5.090   1.730
    1   AR   Ar  165   2.983   3.338   1.803
    1   AR   Ar  166   2.572   5.047   3.795
    1   AR   Ar  167   4.615   2.368   2.815
    1   AR   Ar  168   4.040   3.267  -0.843
    1   AR   Ar  169   2.917   3.077   3.162
    1   AR   Ar  170   3.299   3.841   4.940
    1   AR   Ar  171   4.255   3.882   4.363
    1   AR   Ar  172   4.526   5.221   4.310
    1   AR   Ar  173   1.897   3.494   7.091
    1   AR   Ar  174   3.771   4.877   6.175
    1   AR   Ar  175   3.988   3.955   5.922
    1   AR   Ar  176   3.414   4.925   5.223
    1   AR   Ar  177   5.827   5.830  -0.136
    1   AR   Ar  178   2.957   6.389   1.504
    1   AR   Ar  179   3.793   5.867   0.565
    1   AR   Ar  180   3.292   3.603  -2.104
    1   AR   Ar  181   2.278   5.617   1.523
    1   AR   Ar  182   2.669   6.760   2.413
    1   AR   Ar  183   3.616   4.514   2.727
    1   AR   Ar  184   4.295   6.204   1.579
    1   AR   Ar  185   1.468   5.729   4.393
    1   AR   Ar  186   3.438   5.996   4.243
    1   AR   Ar  187   4.144   6.073   3.028
    1   AR   Ar  188   3.332   5.713   2.381
    1   AR   Ar  189   2.549   4.649   5.837
    1   AR   Ar  190   4.598   6.297   5.873
    1   AR   Ar  191   4.941   5.393   5.320
    1   AR   Ar  192   4.027   5.980   5.079
    1   AR   Ar  193   6.836   6.376  -0.332
    1   AR   Ar  194   5.660   5.367  -1.150
    1   AR   Ar  195   5.917   0.436  -0.344
    1   AR   Ar  196   5.570   1.026  -1.213
    1   AR   Ar  197   5.518   0.996   0.511
    1   AR   Ar  198   5.817   1.762   1.399
    1   AR   Ar  199   5.129   0.945   1.615
    1   AR   Ar  200   6.398   1.522   0.355
    1   AR   Ar  201   4.964   6.752   3.325
    1   AR   Ar  202   5.092   2.016   4.431
    1   AR   Ar  203   0.011   6.560   4.732
    1   AR   Ar  204   5.140   0.482   4.142
    1   AR   Ar  205   6.095   0.102   3.019
    1   AR   Ar  206   5.280   7.036   5.176
    1   AR   Ar  207   6.632   0.689   5.993
    1   AR   Ar  208   0.045   0.712   3.938
    1   AR   Ar  209   4.841   2.291  -2.200
    1   AR   Ar  210   3.764   1.055   0.907
    1   AR   Ar  211   6.200   3.110   0.234
    1   AR   Ar  212   6.416   3.819  -1.748
    1   AR   Ar  213   3.296   2.373   2.316
    1   AR   Ar  214   3.965   3.261   2.484
    1   AR   Ar  215   5.721   2.134   2.431
    1   AR   Ar  216   6.726   2.772   1.968
    1   AR   Ar  217   4.375   3.195   3.491
    1   AR   Ar  218   4.523   3.012   5.108
    1   AR   Ar  219   5.281   1.435   3.330
    1   AR   Ar  220   5.225   3.251   2.690
    1   AR   Ar  221   6.577   0.521   4.997
    1   AR   Ar  222   4.665   1.633   6.065
    1   AR   Ar  223   6.905   0.933   7.072
    1   AR   Ar  224   5.650   2.078   5.312
    1   AR   Ar  225   5.043   4.666   0.190
    1   AR   Ar  226   4.853   4.292   2.646
    1   AR   Ar  227   6.634   5.014   0.053
    1   AR   Ar  228   5.188   5.843   0.964
    1   AR   Ar  229   6.116   4.460   0.633
    1   AR   Ar  230   4.448   4.724   3.489
    1   AR   Ar  231   6.642   2.183   3.232
    1   AR   Ar  232   4.445   3.224   0.393
    1   AR   Ar  233   6.052   2.352   4.296
    1   AR   Ar  234   6.761   3.724   4.151
    1   AR   Ar  235   0.259   2.688   4.319
    1   AR   Ar  236   5.291   4.273   4.211
    1   AR   Ar  237   5.367   3.170   4.125
    1   AR   Ar  238   4.537   4.459   5.128
    1   AR   Ar  239   5.786   4.026   9.227
    1   AR   Ar  240   7.038   4.213   5.210
    1   AR   Ar  241   6.959   0.348  -0.718
    1   AR   Ar  242   4.909   4.619   1.434
    1   AR   Ar  243   5.792   4.265   2.086
    1   AR   Ar  244   0.376   5.442  -0.635
    1   AR   Ar  245   5.433   0.038   2.332
    1   AR   Ar  246   6.024   6.528   1.680
    1   AR   Ar  247   5.393   3.280   1.465
    1   AR   Ar  248   5.995   6.581   0.477
    1   AR   Ar  249   5.541   5.489   2.698
    1   AR   Ar  250   4.740   6.415   4.320
    1   AR   Ar  251   5.655   5.163   4.596
    1   AR   Ar  252   5.836   6.203   3.597
    1   AR   Ar  253   5.968   4.861   5.796
    1   AR   Ar  254   5.104   5.460   6.324
    1   AR   Ar  255   5.149   4.418   6.817
    1   AR   Ar  256   6.049   6.858   4.337
    7.12000  7.12000 12.00000
Argon-slab step 1795
  256
    1   AR   Ar    1   6.791   1.324  -1.029
    1   AR   Ar    2   5.954   0.416   1.402
    1   AR   Ar    3   6.906   6.934   0.831
    1   AR   Ar    4   1.158   0.041   0.179
    1   AR   Ar    5   6.639   5.778   0.757
    1   AR   Ar    6   0.013   0.367   2.720
    1   AR   Ar    7   0.398   4.901   2.964
    1   AR   Ar    8   6.924   6.976   1.865
    1   AR   Ar    9   1.096   0.463   4.193
    1   AR   Ar   10   0.542   1.659   3.930
    1   AR   Ar   11   3.065   6.906   4.751
    1   AR   Ar   12   1.212   1.434   2.780
    1   AR   Ar   13   6.944   1.493   4.666
    1   AR   Ar   14   0.196   1.597   6.269
    1   AR   Ar   15   0.156   0.039   9.243
    1   AR   Ar   16   0.576   1.446   5.340
    1   AR   Ar   17   0.521   1.338   0.063
    1   AR   Ar   18   6.313   3.626  -0.761
    1   AR   Ar   19   1.153   1.785   1.718
    1   AR   Ar   20   6.544   2.202  -2.579
    1   AR   Ar   21   6.236   1.100   2.769
    1   AR   Ar   22   0.234   1.872   2.182
    1   AR   Ar   23   6.709   1.193   1.251
    1   AR   Ar   24   0.408   2.138   1.192
    1   AR   Ar   25   0.192   1.302   3.109
    1   AR   Ar   26   6.345   1.328   3.771
    1   AR   Ar   27   1.937   1.119   3.660
    1   AR   Ar   28   1.346   2.562   4.874
    1   AR   Ar   29   6.101   1.493   6.332
    1   AR   Ar   30   0.508   2.850   6.083
    1   AR   Ar   31   0.667   7.084   6.779
    1   AR   Ar   32   1.744   2.867   6.103
    1   AR   Ar   33   1.294   4.336  -1.354
    1   AR   Ar   34   0.403   5.897   2.158
    1   AR   Ar   35   0.451   3.845   1.093
    1   AR   Ar   36   0.186   6.930  -1.705
    1   AR   Ar   37   0.207   3.246   2.638
    1   AR   Ar   38   6.982   4.222   1.868
    1   AR   Ar   39   1.385   4.288   2.187
    1   AR   Ar   40   1.515   3.743   1.145
    1   AR   Ar   41   0.929   2.327   3.183
    1   AR   Ar   42   6.845   5.606   5.276
    1   AR   Ar   43   6.917   2.444   5.379
    1   AR   Ar   44   0.730   3.732   3.384
    1   AR   Ar   45   0.969   3.660   5.446
    1   AR   Ar   46   0.518   6.182   6.342
    1   AR   Ar   47   5.737   3.791   6.282
    1   AR   Ar   48   6.241   6.905   6.675
    1   AR   Ar   49   7.006   5.726  -2.023
    1   AR   Ar   50   6.526   5.162   1.691
    1   AR   Ar   51   1.478   4.842   1.230
    1   AR   Ar   52   6.982   4.387  -0.975
    1   AR   Ar   53   6.385   6.190   2.638
    1   AR   Ar   54   6.847   6.485   3.494
    1   AR   Ar   55   6.431   4.772   2.995
    1   AR   Ar   56   0.765   6.603   1.197
    1   AR   Ar   57   6.281   3.469   2.633
    1   AR   Ar   58   6.536   5.772   4.190
    1   AR   Ar   59   1.978   5.574   5.560
    1   AR   Ar   60   0.866   6.601   4.126
    1   AR   Ar   61   5.731   6.147   5.282
    1   AR   Ar   62   0.772   5.885   5.137
    1   AR   Ar   63   1.635   6.521   6.750
    1   AR   Ar   64   1.423   6.808   4.986
    1   AR   Ar   65   3.197   0.033   0.300
    1   AR   Ar   66   1.570   0.939   1.057
    1   AR   Ar   67   3.674   6.380  -1.048
    1   AR   Ar   68   3.286   1.281  -1.514
    1   AR   Ar   69   2.203   0.125   0.716
    1   AR   Ar   70   0.435   0.626   1.449
    1   AR   Ar   71   3.014   0.619   2.418
    1   AR   Ar   72   3.154   0.334   1.303
    1   AR   Ar   73   1.565   6.990   3.234
    1   AR   Ar   74   1.654   1.390   4.731
    1   AR   Ar   75   3.735   0.901   4.628
    1   AR   Ar   76   2.087   1.132   2.134
    1   AR   Ar   77   2.292   6.758   5.478
    1   AR   Ar   78   1.233   0.604   6.067
    1   AR   Ar   79   3.888   6.280   6.804
    1   AR   Ar   80   2.946   5.863   5.507
    1   AR   Ar   81   2.173   1.703  -0.214
    1   AR   Ar   82   0.447   3.280  -0.775
    1   AR   Ar   83   2.407   2.433   0.493
    1   AR   Ar   84   1.145   4.074  -2.366
    1   AR   Ar   85   0.654   2.369  -0.252
    1   AR   Ar   86   2.000   3.377   1.998
    1   AR   Ar   87   2.243   2.278   1.814
    1   AR   Ar   88   4.004   3.682   1.596
    1   AR   Ar   89   0.831   3.058   1.632
    1   AR   Ar   90   2.977   2.125   4.625
    1   AR   Ar   91   1.942   2.298   3.999
    1   AR   Ar   92   1.937   2.245   2.904
    1   AR   Ar   93   2.140   2.101   5.422
    1   AR   Ar   94   2.126   1.028   7.892
    1   AR   Ar   95   3.260   7.110   5.883
    1   AR   Ar   96   2.246   0.688   5.646
    1   AR   Ar   97   3.657   2.463  -1.517
    1   AR   Ar   98   2.795   4.430   1.142
    1   AR   Ar   99   6.558   2.632  -1.381
    1   AR   Ar  100   1.777   3.921  -0.438
    1   AR   Ar  101   1.334   2.732   0.785
    1   AR   Ar  102   2.774   3.697   4.008
    1   AR   Ar  103   1.119   4.353   0.244
    1   AR   Ar  104   2.831   2.604  -0.640
    1   AR   Ar  105   1.743   3.278   3.181
    1   AR   Ar  106   2.639   2.976   4.803
    1   AR   Ar  107   2.215   3.890   4.820
    1   AR   Ar  108   3.585   3.045   4.203
    1   AR   Ar  109   1.503   4.237   3.895
    1   AR   Ar  110   1.181   4.714   5.580
    1   AR   Ar  111   4.354   5.279   7.009
    1   AR   Ar  112   0.650   4.987   6.672
    1   AR   Ar  113   2.081   4.474   0.392
    1   AR   Ar  114   2.588   6.134   0.261
    1   AR   Ar  115   3.165   4.475  -0.570
    1   AR   Ar  116   4.809   6.384   0.203
    1   AR   Ar  117   0.507   5.695   3.806
    1   AR   Ar  118   0.656   6.450   2.930
    1   AR   Ar  119   2.165   4.154   2.843
    1   AR   Ar  120   1.526   5.455   2.179
    1   AR   Ar  121   6.982   4.810   4.015
    1   AR   Ar  122   2.357   6.085   4.616
    1   AR   Ar  123   2.425   4.997   4.774
    1   AR   Ar  124   2.165   5.945   2.938
    1   AR   Ar  125   0.590   4.966   4.676
    1   AR   Ar  126   0.510   0.224   5.252
    1   AR   Ar  127   3.138   5.516   6.970
    1   AR   Ar  128   2.164   5.352   6.561
    1   AR   Ar  129   1.730   0.131   1.868
    1   AR   Ar  130   3.790   1.178  -2.756
    1   AR   Ar  131   4.872   0.059   1.151
    1   AR   Ar  132   0.463   2.328  -1.452
    1   AR   Ar  133   3.778   0.076   2.933
    1   AR   Ar  134   3.913   1.391   2.584
    1   AR   Ar  135   4.757   0.711   2.563
    1   AR   Ar  136   3.978   0.058   1.783
    1   AR   Ar  137   2.762   0.071   3.426
    1   AR   Ar  138   4.739   0.942   5.038
    1   AR   Ar  139   5.898   1.231   4.678
    1   AR   Ar  140   4.214   0.827   3.593
    1   AR   Ar  141   3.925   7.007   4.061
    1   AR   Ar  142   4.228   0.044   5.271
    1   AR   Ar  143   5.327   6.921   6.177
    1   AR   Ar  144   5.005   0.702   6.651
    1   AR   Ar  145   3.501   3.844   0.257
    1   AR   Ar  146   4.186   2.648   1.630
    1   AR   Ar  147   5.845   1.945  -0.746
    1   AR   Ar  148   5.446   3.913  -2.467
    1   AR   Ar  149   3.905   2.229   0.689
    1   AR   Ar  150   2.836   1.517   2.921
    1   AR   Ar  151   3.618   2.387   3.413
    1   AR   Ar  152   2.486   3.520   0.579
    1   AR   Ar  153   2.927   0.994   3.924
    1   AR   Ar  154   4.090   1.928   4.416
    1   AR   Ar  155   5.626   0.839   5.716
    1   AR   Ar  156   3.613   3.947   3.557
    1   AR   Ar  157   2.798   2.952   5.985
    1   AR   Ar  158   1.459   2.555   7.207
    1   AR   Ar  159   3.971   0.817   5.866
    1   AR   Ar  160   3.808   2.572   7.574
    1   AR   Ar  161   5.176   2.170   0.614
    1   AR   Ar  162   4.173   5.583  -0.409
    1   AR   Ar  163   5.394   3.622  -0.288
    1   AR   Ar  164   3.921   5.081   1.700
    1   AR   Ar  165   2.997   3.327   1.793
    1   AR   Ar  166   2.569   5.056   3.818
    1   AR   Ar  167   4.611   2.335   2.789
    1   AR   Ar  168   4.053   3.249  -0.866
    1   AR   Ar  169   2.914   3.088   3.163
    1   AR   Ar  170   3.293   3.836   4.911
    1   AR   Ar  171   4.265   3.907   4.393
    1   AR   Ar  172   4.546   5.232   4.330
    1   AR   Ar  173   1.890   3.516   7.094
    1   AR   Ar  174   3.727   4.928   6.191
    1   AR   Ar  175   4.024   3.974   5.938
    1   AR   Ar  176   3.406   4.905   5.219
    1   AR   Ar  177   5.820   5.845  -0.169
    1   AR   Ar  178   2.933   6.380   1.495
    1   AR   Ar  179   3.803   5.858   0.586
    1   AR   Ar  180   3.309   3.595  -2.119
    1   AR   Ar  181   2.297   5.618   1.489
    1   AR   Ar  182   2.659   6.755   2.428
    1   AR   Ar  183   3.652   4.518   2.742
    1   AR   Ar  184   4.326   6.163   1.554
    1   AR   Ar  185   1.468   5.718   4.408
    1   AR   Ar  186   3.441   6.009   4.247
    1   AR   Ar  187   4.112   6.102   3.033
    1   AR   Ar  188   3.355   5.752   2.387
    1   AR   Ar  189   2.530   4.631   5.841
    1   AR   Ar  190   4.604   6.299   5.885
    1   AR   Ar  191   4.943   5.391   5.306
    1   AR   Ar  192   3.997   5.972   5.063
    1   AR   Ar  193   6.863   6.370  -0.329
    1   AR   Ar  194   5.655   5.340  -1.129
    1   AR   Ar  195   5.924   0.410  -0.390
    1   AR   Ar  196   5.580   1.061  -1.221
    1   AR   Ar  197   5.487   0.999   0.535
    1   AR   Ar  198   5.837   1.746   1.424
    1   AR   Ar  199   5.091   0.946   1.581
    1   AR   Ar  200   6.413   1.535   0.318
    1   AR   Ar  201   4.987   6.749   3.306
    1   AR   Ar  202   5.077   2.021   4.437
    1   AR   Ar  203   7.102   6.545   4.723
    1   AR   Ar  204   5.154   0.493   4.164
    1   AR   Ar  205   6.081   0.085   3.076
    1   AR   Ar  206   5.283   7.049   5.167
    1   AR   Ar  207   6.660   0.666   5.989
    1   AR   Ar  208   0.002   0.675   3.900
    1   AR   Ar  209   4.843   2.303  -2.185
    1   AR   Ar  210   3.758   1.057   0.898
    1   AR   Ar  211   6.214   3.124   0.249
    1   AR   Ar  212   6.422   3.801  -1.751
    1   AR   Ar  213   3.300   2.368   2.335
    1   AR   Ar  214   3.937   3.244   2.545
    1   AR   Ar  215   5.718   2.105   2.416
    1   AR   Ar  216   6.754   2.790   1.944
    1   AR   Ar  217   4.366   3.216   3.499
    1   AR   Ar  218   4.534   3.003   5.101
    1   AR   Ar  219   5.301   1.428   3.315
    1   AR   Ar  220   5.236   3.260   2.705
    1   AR   Ar  221   6.540   0.525   5.028
    1   AR   Ar  222   4.640   1.615   6.080
    1   AR   Ar  223   6.921   0.911   7.072
    1   AR   Ar  224   5.639   2.080   5.326
    1   AR   Ar  225   5.023   4.678   0.210
    1   AR   Ar  226   4.852   4.264   2.647
    1   AR   Ar  227   6.626   4.993   0.067
    1   AR   Ar  228   5.146   5.849   0.987
    1   AR   Ar  229   6.112   4.450   0.646
    1   AR   Ar  230   4.445   4.667   3.527
    1   AR   Ar  231   6.618   2.150   3.221
    1   AR   Ar  232   4.446   3.210   0.395
    1   AR   Ar  233   6.046   2.349   4.297
    1   AR   Ar  234   6.779   3.735   4.136
    1   AR   Ar  235   0.275   2.689   4.323
    1   AR   Ar  236   5.280   4.306   4.231
    1   AR   Ar  237   5.337   3.160   4.114
    1   AR   Ar  238   4.537   4.418   5.089
    1   AR   Ar  239   5.770   4.020   9.224
    1   AR   Ar  240   7.018   4.208   5.206
    1   AR   Ar  241   6.962   0.334  -0.716
    1   AR   Ar  242   4.920   4.572   1.451
    1   AR   Ar  243   5.791   4.250   2.075
    1   AR   Ar  244   0.401   5.416  -0.669
    1   AR   Ar  245   5.419   0.064   2.337
    1   AR   Ar  246   6.025   6.528   1.681
    1   AR   Ar  247   5.379   3.296   1.472
    1   AR   Ar  248   5.984   6.601   0.479
    1   AR   Ar  249   5.536   5.520   2.701
    1   AR   Ar  250   4.730   6.453   4.322
    1   AR   Ar  251   5.639   5.174   4.599
    1   AR   Ar  252   5.843   6.215   3.608
    1   AR   Ar  253   5.990   4.846   5.789
    1   AR   Ar  254   5.077   5.470   6.255
    1   AR   Ar  255   5.138   4.433   6.792
    1   AR   Ar  256   6.063   6.876   4.347
    7.12000  7.12000 12.00000
Argon-slab step 1800
  256
    1   AR   Ar    1   6.802   1.346  -1.015
    1   AR   Ar    2   5.943   0.414   1.392
    1   AR   Ar    3   6.868   6.919   0.823
    1   AR   Ar    4   1.188   0.026   0.212
    1   AR   Ar    5   6.644   5.782   0.782
    1   AR   Ar    6   0.034   0.394   2.733
    1   AR   Ar    7   0.415   4.899   2.950
    1   AR   Ar    8   6.904   6.988   1.852
    1   AR   Ar    9   1.092   0.472   4.200
    1   AR   Ar   10   0.566   1.640   3.932
    1   AR   Ar   11   3.081   6.929   4.741
    1   AR   Ar   12   1.215   1.398   2.802
    1   AR   Ar   13   6.982   1.484   4.663
    1   AR   Ar   14   0.220   1.600   6.291
    1   AR   Ar   15   0.157   0.044   9.242
    1   AR   Ar   16   0.582   1.447   5.345
    1   AR   Ar   17   0.515   1.347   0.046
    1   AR   Ar   18   6.314   3.614  -0.753
    1   AR   Ar   19   1.152   1.783   1.729
    1   AR   Ar   20   6.542   2.241  -2.585
    1   AR   Ar   21   6.255   1.101   2.784
    1   AR   Ar   22   0.241   1.878   2.199
    1   AR   Ar   23   6.700   1.197   1.269
    1   AR   Ar   24   0.420   2.093   1.178
    1   AR   Ar   25   0.163   1.313   3.080
    1   AR   Ar   26   6.338   1.318   3.760
    1   AR   Ar   27   1.923   1.106   3.676
    1   AR   Ar   28   1.334   2.569   4.861
    1   AR   Ar   29   6.063   1.496   6.362
    1   AR   Ar   30   0.523   2.852   6.076
    1   AR   Ar   31   0.695   7.083   6.782
    1   AR   Ar   32   1.727   2.887   6.133
    1   AR   Ar   33   1.324   4.326  -1.315
    1   AR   Ar   34   0.374   5.910   2.164
    1   AR   Ar   35   0.427   3.873   1.054
    1   AR   Ar   36   0.214   6.916  -1.689
    1   AR   Ar   37   0.202   3.228   2.659
    1   AR   Ar   38   7.003   4.254   1.859
    1   AR   Ar   39   1.410   4.306   2.192
    1   AR   Ar   40   1.491   3.748   1.178
    1   AR   Ar   41   0.967   2.339   3.166
    1   AR   Ar   42   6.830   5.591   5.250
    1   AR   Ar   43   6.923   2.461   5.374
    1   AR   Ar   44   0.682   3.753   3.371
    1   AR   Ar   45   0.961   3.659   5.442
    1   AR   Ar   46   0.509   6.182   6.331
    1   AR   Ar   47   5.729   3.798   6.317
    1   AR   Ar   48   6.223   6.909   6.664
    1   AR   Ar   49   6.985   5.760  -2.030
    1   AR   Ar   50   6.495   5.156   1.695
    1   AR   Ar   51   1.486   4.816   1.225
    1   AR   Ar   52   6.996   4.380  -0.993
    1   AR   Ar   53   6.398   6.184   2.632
    1   AR   Ar   54   6.891   6.486   3.522
    1   AR   Ar   55   6.444   4.784   3.019
    1   AR   Ar   56   0.763   6.612   1.214
    1   AR   Ar   57   6.279   3.460   2.631
    1   AR   Ar   58   6.537   5.771   4.208
    1   AR   Ar   59   1.935   5.541   5.568
    1   AR   Ar   60   0.833   6.621   4.157
    1   AR   Ar   61   5.753   6.137   5.292
    1   AR   Ar   62   0.749   5.884   5.139
    1   AR   Ar   63   1.646   6.510   6.717
    1   AR   Ar   64   1.432   6.777   4.996
    1   AR   Ar   65   3.203   0.039   0.332
    1   AR   Ar   66   1.557   0.959   1.084
    1   AR   Ar   67   3.690   6.352  -1.045
    1   AR   Ar   68   3.273   1.277  -1.532
    1   AR   Ar   69   2.188   0.139   0.707
    1   AR   Ar   70   0.438   0.647   1.453
    1   AR   Ar   71   2.996   0.625   2.426
    1   AR   Ar   72   3.142   0.317   1.300
    1   AR   Ar   73   1.559   6.983   3.242
    1   AR   Ar   74   1.661   1.367   4.723
    1   AR   Ar   75   3.737   0.925   4.650
    1   AR   Ar   76   2.078   1.138   2.103
    1   AR   Ar   77   2.283   6.772   5.476
    1   AR   Ar   78   1.235   0.599   6.051
    1   AR   Ar   79   3.894   6.264   6.814
    1   AR   Ar   80   2.951   5.861   5.492
    1   AR   Ar   81   2.158   1.699  -0.194
    1   AR   Ar   82   0.435   3.257  -0.761
    1   AR   Ar   83   2.386   2.406   0.491
    1   AR   Ar   84   1.146   4.081  -2.354
    1   AR   Ar   85   0.650   2.391  -0.213
    1   AR   Ar   86   1.977   3.383   2.008
    1   AR   Ar   87   2.222   2.270   1.800
    1   AR   Ar   88   4.025   3.706   1.631
    1   AR   Ar   89   0.838   3.095   1.611
    1   AR   Ar   90   2.974   2.134   4.629
    1   AR   Ar   91   1.954   2.296   4.002
    1   AR   Ar   92   1.917   2.267   2.875
    1   AR   Ar   93   2.181   2.106   5.422
    1   AR   Ar   94   2.101   1.040   7.906
    1   AR   Ar   95   3.241   7.103   5.878
    1   AR   Ar   96   2.239   0.666   5.627
    1   AR   Ar   97   3.640   2.443  -1.517
    1   AR   Ar   98   2.818   4.429   1.126
    1   AR   Ar   99   6.564   2.643  -1.392
    1   AR   Ar  100   1.782   3.909  -0.416
    1   AR   Ar  101   1.333   2.764   0.771
    1   AR   Ar  102   2.744   3.713   4.008
    1   AR   Ar  103   1.101   4.371   0.247
    1   AR   Ar  104   2.833   2.546  -0.622
    1   AR   Ar  105   1.729   3.283   3.186
    1   AR   Ar  106   2.623   2.990   4.792
    1   AR   Ar  107   2.227   3.915   4.810
    1   AR   Ar  108   3.587   3.041   4.188
    1   AR   Ar  109   1.507   4.234   3.872
    1   AR   Ar  110   1.173   4.694   5.599
    1   AR   Ar  111   4.353   5.259   6.995
    1   AR   Ar  112   0.656   4.958   6.694
    1   AR   Ar  113   2.105   4.464   0.357
    1   AR   Ar  114   2.595   6.159   0.224
    1   AR   Ar  115   3.165   4.485  -0.578
    1   AR   Ar  116   4.827   6.382   0.197
    1   AR   Ar  117   0.461   5.708   3.812
    1   AR   Ar  118   0.657   6.488   2.918
    1   AR   Ar  119   2.157   4.162   2.864
    1   AR   Ar  120   1.509   5.455   2.226
    1   AR   Ar  121   6.979   4.830   4.043
    1   AR   Ar  122   2.358   6.072   4.607
    1   AR   Ar  123   2.421   4.979   4.772
    1   AR   Ar  124   2.175   5.936   2.930
    1   AR   Ar  125   0.586   4.981   4.716
    1   AR   Ar  126   0.506   0.228   5.234
    1   AR   Ar  127   3.127   5.511   6.967
    1   AR   Ar  128   2.163   5.367   6.561
    1   AR   Ar  129   1.709   0.141   1.881
    1   AR   Ar  130   3.760   1.178  -2.799
    1   AR   Ar  131   4.881   0.065   1.131
    1   AR   Ar  132   0.484   2.330  -1.431
    1   AR   Ar  133   3.812   0.095   2.945
    1   AR   Ar  134   3.922   1.358   2.584
    1   AR   Ar  135   4.752   0.730   2.597
    1   AR   Ar  136   3.991   0.051   1.786
    1   AR   Ar  137   2.783   0.068   3.447
    1   AR   Ar  138   4.755   0.938   5.083
    1   AR   Ar  139   5.894   1.226   4.700
    1   AR   Ar  140   4.234   0.807   3.603
    1   AR   Ar  141   3.917   7.024   4.078
    1   AR   Ar  142   4.238   0.045   5.251
    1   AR   Ar  143   5.340   6.943   6.162
    1   AR   Ar  144   4.965   0.713   6.663
    1   AR   Ar  145   3.504   3.821   0.261
    1   AR   Ar  146   4.199   2.651   1.621
    1   AR   Ar  147   5.864   1.941  -0.769
    1   AR   Ar  148   5.441   3.967  -2.448
    1   AR   Ar  149   3.885   2.211   0.688
    1   AR   Ar  150   2.872   1.524   2.903
    1   AR   Ar  151   3.610   2.373   3.419
    1   AR   Ar  152   2.506   3.485   0.521
    1   AR   Ar  153   2.935   0.991   3.950
    1   AR   Ar  154   4.081   1.939   4.391
    1   AR   Ar  155   5.644   0.837   5.714
    1   AR   Ar  156   3.569   3.935   3.550
    1   AR   Ar  157   2.803   2.899   5.969
    1   AR   Ar  158   1.442   2.580   7.173
    1   AR   Ar  159   3.946   0.825   5.870
    1   AR   Ar  160   3.801   2.551   7.581
    1   AR   Ar  161   5.211   2.155   0.589
    1   AR   Ar  162   4.202   5.582  -0.394
    1   AR   Ar  163   5.403   3.617  -0.311
    1   AR   Ar  164   3.938   5.072   1.670
    1   AR   Ar  165   3.017   3.315   1.782
    1   AR   Ar  166   2.558   5.067   3.830
    1   AR   Ar  167   4.605   2.302   2.763
    1   AR   Ar  168   4.066   3.231  -0.886
    1   AR   Ar  169   2.898   3.102   3.179
    1   AR   Ar  170   3.291   3.833   4.886
    1   AR   Ar  171   4.263   3.905   4.389
    1   AR   Ar  172   4.566   5.251   4.358
    1   AR   Ar  173   1.883   3.539   7.096
    1   AR   Ar  174   3.682   4.985   6.212
    1   AR   Ar  175   4.059   3.989   5.951
    1   AR   Ar  176   3.400   4.885   5.208
    1   AR   Ar  177   5.811   5.854  -0.203
    1   AR   Ar  178   2.918   6.378   1.480
    1   AR   Ar  179   3.813   5.851   0.610
    1   AR   Ar  180   3.327   3.587  -2.134
    1   AR   Ar  181   2.313   5.611   1.451
    1   AR   Ar  182   2.649   6.749   2.445
    1   AR   Ar  183   3.688   4.527   2.748
    1   AR   Ar  184   4.325   6.163   1.564
    1   AR   Ar  185   1.461   5.699   4.419
    1   AR   Ar  186   3.437   6.020   4.242
    1   AR   Ar  187   4.082   6.134   3.040
    1   AR   Ar  188   3.375   5.791   2.392
    1   AR   Ar  189   2.532   4.643   5.824
    1   AR   Ar  190   4.602   6.301   5.892
    1   AR   Ar  191   4.938   5.391   5.281
    1   AR   Ar  192   3.972   5.963   5.054
    1   AR   Ar  193   6.888   6.363  -0.325
    1   AR   Ar  194   5.650   5.313  -1.109
    1   AR   Ar  195   5.931   0.384  -0.433
    1   AR   Ar  196   5.556   1.053  -1.198
    1   AR   Ar  197   5.455   1.001   0.560
    1   AR   Ar  198   5.855   1.731   1.445
    1   AR   Ar  199   5.050   0.957   1.550
    1   AR   Ar  200   6.427   1.551   0.276
    1   AR   Ar  201   5.007   6.751   3.285
    1   AR   Ar  202   5.067   2.025   4.440
    1   AR   Ar  203   7.071   6.531   4.713
    1   AR   Ar  204   5.169   0.502   4.183
    1   AR   Ar  205   6.074   0.067   3.144
    1   AR   Ar  206   5.284   7.069   5.150
    1   AR   Ar  207   6.694   0.642   5.998
    1   AR   Ar  208   7.081   0.628   3.869
    1   AR   Ar  209   4.845   2.316  -2.170
    1   AR   Ar  210   3.756   1.063   0.888
    1   AR   Ar  211   6.228   3.137   0.265
    1   AR   Ar  212   6.430   3.785  -1.762
    1   AR   Ar  213   3.304   2.363   2.353
    1   AR   Ar  214   3.906   3.226   2.608
    1   AR   Ar  215   5.715   2.076   2.405
    1   AR   Ar  216   6.779   2.804   1.913
    1   AR   Ar  217   4.363   3.236   3.509
    1   AR   Ar  218   4.544   2.995   5.091
    1   AR   Ar  219   5.313   1.430   3.285
    1   AR   Ar  220   5.245   3.266   2.719
    1   AR   Ar  221   6.499   0.522   5.032
    1   AR   Ar  222   4.619   1.599   6.093
    1   AR   Ar  223   6.936   0.888   7.069
    1   AR   Ar  224   5.629   2.080   5.343
    1   AR   Ar  225   5.003   4.689   0.231
    1   AR   Ar  226   4.849   4.236   2.644
    1   AR   Ar  227   6.630   4.984   0.062
    1   AR   Ar  228   5.112   5.850   1.014
    1   AR   Ar  229   6.093   4.426   0.674
    1   AR   Ar  230   4.440   4.605   3.559
    1   AR   Ar  231   6.596   2.122   3.207
    1   AR   Ar  232   4.446   3.196   0.398
    1   AR   Ar  233   6.047   2.345   4.296
    1   AR   Ar  234   6.796   3.730   4.129
    1   AR   Ar  235   0.291   2.690   4.328
    1   AR   Ar  236   5.266   4.333   4.248
    1   AR   Ar  237   5.304   3.151   4.103
    1   AR   Ar  238   4.550   4.404   5.086
    1   AR   Ar  239   5.754   4.014   9.221
    1   AR   Ar  240   6.998   4.203   5.200
    1   AR   Ar  241   6.962   0.313  -0.724
    1   AR   Ar  242   4.931   4.524   1.467
    1   AR   Ar  243   5.792   4.236   2.064
    1   AR   Ar  244   0.424   5.390  -0.702
    1   AR   Ar  245   5.411   0.076   2.329
    1   AR   Ar  246   6.020   6.521   1.678
    1   AR   Ar  247   5.365   3.312   1.480
    1   AR   Ar  248   5.969   6.628   0.486
    1   AR   Ar  249   5.534   5.550   2.693
    1   AR   Ar  250   4.726   6.488   4.328
    1   AR   Ar  251   5.632   5.192   4.601
    1   AR   Ar  252   5.841   6.223   3.612
    1   AR   Ar  253   6.011   4.832   5.780
    1   AR   Ar  254   5.058   5.477   6.205
    1   AR   Ar  255   5.122   4.453   6.769
    1   AR   Ar  256   6.078   6.898   4.360
    7.12000  7.12000 12.00000
Argon-slab step 1805
  256
    1   AR   Ar    1   6.813   1.371  -1.000
    1   AR   Ar    2   5.936   0.412   1.380
    1   AR   Ar    3   6.837   6.907   0.814
    1   AR   Ar    4   1.217   0.012   0.246
    1   AR   Ar    5   6.647   5.789   0.807
    1   AR   Ar    6   0.054   0.411   2.745
    1   AR   Ar    7   0.433   4.897   2.935
    1   AR   Ar    8   6.888   7.000   1.843
    1   AR   Ar    9   1.089   0.491   4.206
    1   AR   Ar   10   0.598   1.623   3.939
    1   AR   Ar   11   3.097   6.952   4.732
    1   AR   Ar   12   1.212   1.373   2.818
    1   AR   Ar   13   7.009   1.476   4.657
    1   AR   Ar   14   0.241   1.604   6.317
    1   AR   Ar   15   0.158   0.050   9.241
    1   AR   Ar   16   0.598   1.447   5.352
    1   AR   Ar   17   0.507   1.355   0.031
    1   AR   Ar   18   6.321   3.599  -0.741
    1   AR   Ar   19   1.169   1.776   1.748
    1   AR   Ar   20   6.540   2.280  -2.590
    1   AR   Ar   21   6.247   1.099   2.792
    1   AR   Ar   22   0.240   1.850   2.184
    1   AR   Ar   23   6.732   1.195   1.292
    1   AR   Ar   24   0.420   2.054   1.151
    1   AR   Ar   25   0.134   1.329   3.048
    1   AR   Ar   26   6.328   1.308   3.757
    1   AR   Ar   27   1.906   1.094   3.689
    1   AR   Ar   28   1.328   2.567   4.866
    1   AR   Ar   29   6.029   1.504   6.395
    1   AR   Ar   30   0.541   2.853   6.069
    1   AR   Ar   31   0.722   7.087   6.787
    1   AR   Ar   32   1.708   2.908   6.161
    1   AR   Ar   33   1.353   4.316  -1.274
    1   AR   Ar   34   0.341   5.915   2.161
    1   AR   Ar   35   0.402   3.902   1.010
    1   AR   Ar   36   0.242   6.901  -1.673
    1   AR   Ar   37   0.200   3.207   2.677
    1   AR   Ar   38   7.024   4.283   1.856
    1   AR   Ar   39   1.428   4.324   2.193
    1   AR   Ar   40   1.472   3.760   1.204
    1   AR   Ar   41   0.993   2.356   3.153
    1   AR   Ar   42   6.813   5.574   5.225
    1   AR   Ar   43   6.929   2.476   5.367
    1   AR   Ar   44   0.637   3.779   3.362
    1   AR   Ar   45   0.953   3.655   5.436
    1   AR   Ar   46   0.500   6.177   6.317
    1   AR   Ar   47   5.727   3.800   6.347
    1   AR   Ar   48   6.211   6.915   6.654
    1   AR   Ar   49   6.965   5.795  -2.036
    1   AR   Ar   50   6.444   5.108   1.702
    1   AR   Ar   51   1.494   4.793   1.221
    1   AR   Ar   52   7.012   4.376  -1.012
    1   AR   Ar   53   6.413   6.180   2.624
    1   AR   Ar   54   6.937   6.495   3.551
    1   AR   Ar   55   6.456   4.796   3.042
    1   AR   Ar   56   0.760   6.623   1.232
    1   AR   Ar   57   6.277   3.453   2.631
    1   AR   Ar   58   6.538   5.767   4.229
    1   AR   Ar   59   1.887   5.511   5.571
    1   AR   Ar   60   0.800   6.636   4.184
    1   AR   Ar   61   5.754   6.131   5.293
    1   AR   Ar   62   0.725   5.892   5.147
    1   AR   Ar   63   1.656   6.497   6.682
    1   AR   Ar   64   1.432   6.747   5.002
    1   AR   Ar   65   3.211   0.043   0.357
    1   AR   Ar   66   1.544   0.979   1.113
    1   AR   Ar   67   3.686   6.347  -1.046
    1   AR   Ar   68   3.260   1.275  -1.551
    1   AR   Ar   69   2.173   0.151   0.699
    1   AR   Ar   70   0.448   0.667   1.456
    1   AR   Ar   71   2.979   0.628   2.431
    1   AR   Ar   72   3.120   0.303   1.305
    1   AR   Ar   73   1.555   6.976   3.251
    1   AR   Ar   74   1.667   1.345   4.716
    1   AR   Ar   75   3.740   0.946   4.673
    1   AR   Ar   76   2.068   1.146   2.072
    1   AR   Ar   77   2.285   6.779   5.482
    1   AR   Ar   78   1.236   0.595   6.034
    1   AR   Ar   79   3.901   6.250   6.822
    1   AR   Ar   80   2.958   5.860   5.477
    1   AR   Ar   81   2.141   1.689  -0.179
    1   AR   Ar   82   0.422   3.237  -0.749
    1   AR   Ar   83   2.366   2.385   0.495
    1   AR   Ar   84   1.147   4.087  -2.343
    1   AR   Ar   85   0.647   2.412  -0.171
    1   AR   Ar   86   1.953   3.386   2.024
    1   AR   Ar   87   2.200   2.261   1.785
    1   AR   Ar   88   4.047   3.734   1.665
    1   AR   Ar   89   0.840   3.125   1.601
    1   AR   Ar   90   2.974   2.125   4.625
    1   AR   Ar   91   1.967   2.293   4.005
    1   AR   Ar   92   1.909   2.287   2.843
    1   AR   Ar   93   2.223   2.112   5.422
    1   AR   Ar   94   2.076   1.052   7.919
    1   AR   Ar   95   3.215   7.112   5.873
    1   AR   Ar   96   2.232   0.650   5.607
    1   AR   Ar   97   3.640   2.425  -1.519
    1   AR   Ar   98   2.843   4.427   1.113
    1   AR   Ar   99   6.568   2.655  -1.402
    1   AR   Ar  100   1.786   3.890  -0.399
    1   AR   Ar  101   1.333   2.792   0.752
    1   AR   Ar  102   2.765   3.722   4.009
    1   AR   Ar  103   1.074   4.389   0.252
    1   AR   Ar  104   2.837   2.488  -0.604
    1   AR   Ar  105   1.714   3.286   3.193
    1   AR   Ar  106   2.598   3.018   4.786
    1   AR   Ar  107   2.209   3.951   4.805
    1   AR   Ar  108   3.586   3.038   4.179
    1   AR   Ar  109   1.510   4.233   3.841
    1   AR   Ar  110   1.167   4.678   5.619
    1   AR   Ar  111   4.352   5.239   6.983
    1   AR   Ar  112   0.663   4.930   6.715
    1   AR   Ar  113   2.137   4.462   0.328
    1   AR   Ar  114   2.603   6.185   0.190
    1   AR   Ar  115   3.165   4.495  -0.584
    1   AR   Ar  116   4.843   6.384   0.187
    1   AR   Ar  117   0.416   5.717   3.818
    1   AR   Ar  118   0.660   6.532   2.913
    1   AR   Ar  119   2.156   4.173   2.890
    1   AR   Ar  120   1.490   5.454   2.273
    1   AR   Ar  121   6.970   4.845   4.065
    1   AR   Ar  122   2.369   6.063   4.599
    1   AR   Ar  123   2.413   4.960   4.788
    1   AR   Ar  124   2.185   5.927   2.925
    1   AR   Ar  125   0.586   4.991   4.758
    1   AR   Ar  126   0.510   0.232   5.213
    1   AR   Ar  127   3.117   5.505   6.966
    1   AR   Ar  128   2.163   5.381   6.562
    1   AR   Ar  129   1.687   0.149   1.893
    1   AR   Ar  130   3.730   1.178  -2.842
    1   AR   Ar  131   4.890   0.062   1.107
    1   AR   Ar  132   0.505   2.331  -1.408
    1   AR   Ar  133   3.846   0.113   2.954
    1   AR   Ar  134   3.955   1.343   2.605
    1   AR   Ar  135   4.740   0.757   2.637
    1   AR   Ar  136   4.009   0.045   1.794
    1   AR   Ar  137   2.804   0.064   3.469
    1   AR   Ar  138   4.773   0.940   5.127
    1   AR   Ar  139   5.879   1.229   4.720
    1   AR   Ar  140   4.256   0.792   3.614
    1   AR   Ar  141   3.903   7.046   4.091
    1   AR   Ar  142   4.243   0.056   5.273
    1   AR   Ar  143   5.353   6.967   6.149
    1   AR   Ar  144   4.925   0.725   6.674
    1   AR   Ar  145   3.509   3.799   0.266
    1   AR   Ar  146   4.212   2.654   1.616
    1   AR   Ar  147   5.886   1.940  -0.789
    1   AR   Ar  148   5.437   4.021  -2.428
    1   AR   Ar  149   3.864   2.192   0.685
    1   AR   Ar  150   2.882   1.531   2.887
    1   AR   Ar  151   3.605   2.352   3.420
    1   AR   Ar  152   2.524   3.450   0.464
    1   AR   Ar  153   2.945   0.989   3.976
    1   AR   Ar  154   4.061   1.950   4.365
    1   AR   Ar  155   5.659   0.831   5.708
    1   AR   Ar  156   3.537   3.924   3.539
    1   AR   Ar  157   2.809   2.846   5.951
    1   AR   Ar  158   1.423   2.603   7.138
    1   AR   Ar  159   3.912   0.823   5.876
    1   AR   Ar  160   3.793   2.529   7.588
    1   AR   Ar  161   5.246   2.139   0.565
    1   AR   Ar  162   4.232   5.580  -0.377
    1   AR   Ar  163   5.404   3.612  -0.330
    1   AR   Ar  164   3.954   5.063   1.641
    1   AR   Ar  165   3.038   3.302   1.771
    1   AR   Ar  166   2.550   5.080   3.823
    1   AR   Ar  167   4.599   2.269   2.737
    1   AR   Ar  168   4.091   3.222  -0.893
    1   AR   Ar  169   2.879   3.115   3.190
    1   AR   Ar  170   3.293   3.833   4.866
    1   AR   Ar  171   4.246   3.876   4.349
    1   AR   Ar  172   4.581   5.273   4.381
    1   AR   Ar  173   1.878   3.565   7.097
    1   AR   Ar  174   3.638   5.044   6.232
    1   AR   Ar  175   4.095   4.002   5.964
    1   AR   Ar  176   3.398   4.865   5.194
    1   AR   Ar  177   5.804   5.862  -0.237
    1   AR   Ar  178   2.914   6.386   1.464
    1   AR   Ar  179   3.823   5.844   0.635
    1   AR   Ar  180   3.345   3.577  -2.147
    1   AR   Ar  181   2.321   5.592   1.414
    1   AR   Ar  182   2.664   6.755   2.440
    1   AR   Ar  183   3.726   4.540   2.745
    1   AR   Ar  184   4.311   6.162   1.574
    1   AR   Ar  185   1.451   5.677   4.428
    1   AR   Ar  186   3.426   6.030   4.224
    1   AR   Ar  187   4.056   6.167   3.053
    1   AR   Ar  188   3.389   5.828   2.390
    1   AR   Ar  189   2.535   4.655   5.807
    1   AR   Ar  190   4.590   6.307   5.894
    1   AR   Ar  191   4.925   5.393   5.245
    1   AR   Ar  192   3.956   5.954   5.057
    1   AR   Ar  193   6.913   6.356  -0.318
    1   AR   Ar  194   5.646   5.284  -1.090
    1   AR   Ar  195   5.938   0.358  -0.473
    1   AR   Ar  196   5.530   1.041  -1.177
    1   AR   Ar  197   5.425   1.003   0.584
    1   AR   Ar  198   5.869   1.716   1.462
    1   AR   Ar  199   5.007   0.976   1.525
    1   AR   Ar  200   6.441   1.566   0.232
    1   AR   Ar  201   5.024   6.757   3.262
    1   AR   Ar  202   5.063   2.028   4.442
    1   AR   Ar  203   7.038   6.519   4.705
    1   AR   Ar  204   5.184   0.509   4.200
    1   AR   Ar  205   6.067   0.057   3.167
    1   AR   Ar  206   5.286   7.092   5.126
    1   AR   Ar  207   6.732   0.619   6.017
    1   AR   Ar  208   7.044   0.574   3.840
    1   AR   Ar  209   4.846   2.329  -2.154
    1   AR   Ar  210   3.756   1.070   0.878
    1   AR   Ar  211   6.242   3.150   0.281
    1   AR   Ar  212   6.437   3.768  -1.777
    1   AR   Ar  213   3.307   2.359   2.371
    1   AR   Ar  214   3.872   3.209   2.665
    1   AR   Ar  215   5.711   2.050   2.401
    1   AR   Ar  216   6.801   2.813   1.876
    1   AR   Ar  217   4.368   3.255   3.522
    1   AR   Ar  218   4.554   2.987   5.079
    1   AR   Ar  219   5.325   1.432   3.256
    1   AR   Ar  220   5.238   3.260   2.721
    1   AR   Ar  221   6.460   0.511   5.018
    1   AR   Ar  222   4.602   1.584   6.105
    1   AR   Ar  223   6.951   0.865   7.066
    1   AR   Ar  224   5.621   2.080   5.363
    1   AR   Ar  225   4.990   4.707   0.247
    1   AR   Ar  226   4.843   4.210   2.639
    1   AR   Ar  227   6.642   4.981   0.047
    1   AR   Ar  228   5.086   5.845   1.042
    1   AR   Ar  229   6.067   4.395   0.711
    1   AR   Ar  230   4.434   4.540   3.588
    1   AR   Ar  231   6.575   2.102   3.189
    1   AR   Ar  232   4.447   3.181   0.402
    1   AR   Ar  233   6.054   2.340   4.295
    1   AR   Ar  234   6.811   3.703   4.134
    1   AR   Ar  235   0.298   2.694   4.335
    1   AR   Ar  236   5.249   4.352   4.261
    1   AR   Ar  237   5.270   3.143   4.092
    1   AR   Ar  238   4.578   4.416   5.118
    1   AR   Ar  239   5.738   4.007   9.218
    1   AR   Ar  240   6.978   4.199   5.194
    1   AR   Ar  241   6.965   0.292  -0.731
    1   AR   Ar  242   4.936   4.518   1.484
    1   AR   Ar  243   5.794   4.224   2.051
    1   AR   Ar  244   0.445   5.364  -0.735
    1   AR   Ar  245   5.413   0.076   2.312
    1   AR   Ar  246   6.009   6.508   1.671
    1   AR   Ar  247   5.350   3.330   1.489
    1   AR   Ar  248   5.945   6.655   0.494
    1   AR   Ar  249   5.535   5.580   2.668
    1   AR   Ar  250   4.729   6.517   4.338
    1   AR   Ar  251   5.638   5.217   4.600
    1   AR   Ar  252   5.835   6.227   3.611
    1   AR   Ar  253   6.030   4.820   5.770
    1   AR   Ar  254   5.048   5.477   6.183
    1   AR   Ar  255   5.100   4.481   6.749
    1   AR   Ar  256   6.093   6.922   4.376
    7.12000  7.12000 12.00000
Argon-slab step 1810
  256
    1   AR   Ar    1   6.823   1.396  -0.983
    1   AR   Ar    2   5.933   0.420   1.364
    1   AR   Ar    3   6.818   6.899   0.805
    1   AR   Ar    4   1.244   7.117   0.280
    1   AR   Ar    5   6.649   5.798   0.833
    1   AR   Ar    6   0.072   0.414   2.754
    1   AR   Ar    7   0.453   4.895   2.921
    1   AR   Ar    8   6.877   7.014   1.840
    1   AR   Ar    9   1.087   0.515   4.213
    1   AR   Ar   10   0.637   1.607   3.945
    1   AR   Ar   11   3.109   6.976   4.728
    1   AR   Ar   12   1.209   1.346   2.833
    1   AR   Ar   13   7.022   1.467   4.648
    1   AR   Ar   14   0.259   1.609   6.345
    1   AR   Ar   15   0.159   0.055   9.240
    1   AR   Ar   16   0.623   1.445   5.361
    1   AR   Ar   17   0.498   1.361   0.017
    1   AR   Ar   18   6.335   3.581  -0.730
    1   AR   Ar   19   1.198   1.768   1.772
    1   AR   Ar   20   6.538   2.320  -2.592
    1   AR   Ar   21   6.229   1.073   2.811
    1   AR   Ar   22   0.234   1.824   2.170
    1   AR   Ar   23   6.772   1.194   1.313
    1   AR   Ar   24   0.413   2.018   1.116
    1   AR   Ar   25   0.136   1.339   3.091
    1   AR   Ar   26   6.313   1.298   3.768
    1   AR   Ar   27   1.888   1.083   3.699
    1   AR   Ar   28   1.326   2.558   4.883
    1   AR   Ar   29   5.997   1.513   6.431
    1   AR   Ar   30   0.560   2.853   6.063
    1   AR   Ar   31   0.737   7.104   6.776
    1   AR   Ar   32   1.688   2.929   6.185
    1   AR   Ar   33   1.380   4.307  -1.234
    1   AR   Ar   34   0.311   5.912   2.147
    1   AR   Ar   35   0.378   3.931   0.962
    1   AR   Ar   36   0.269   6.885  -1.656
    1   AR   Ar   37   0.199   3.180   2.692
    1   AR   Ar   38   7.035   4.302   1.860
    1   AR   Ar   39   1.441   4.344   2.191
    1   AR   Ar   40   1.461   3.780   1.219
    1   AR   Ar   41   1.002   2.378   3.145
    1   AR   Ar   42   6.795   5.555   5.202
    1   AR   Ar   43   6.933   2.488   5.358
    1   AR   Ar   44   0.596   3.810   3.361
    1   AR   Ar   45   0.946   3.649   5.429
    1   AR   Ar   46   0.488   6.164   6.310
    1   AR   Ar   47   5.730   3.798   6.372
    1   AR   Ar   48   6.209   6.922   6.649
    1   AR   Ar   49   6.945   5.830  -2.041
    1   AR   Ar   50   6.388   5.066   1.709
    1   AR   Ar   51   1.495   4.780   1.250
    1   AR   Ar   52   7.025   4.373  -1.027
    1   AR   Ar   53   6.430   6.177   2.617
    1   AR   Ar   54   6.958   6.506   3.580
    1   AR   Ar   55   6.467   4.809   3.064
    1   AR   Ar   56   0.756   6.636   1.251
    1   AR   Ar   57   6.276   3.450   2.637
    1   AR   Ar   58   6.542   5.767   4.234
    1   AR   Ar   59   1.836   5.485   5.567
    1   AR   Ar   60   0.767   6.647   4.204
    1   AR   Ar   61   5.755   6.124   5.295
    1   AR   Ar   62   0.702   5.911   5.163
    1   AR   Ar   63   1.666   6.484   6.645
    1   AR   Ar   64   1.432   6.735   5.026
    1   AR   Ar   65   3.221   0.042   0.372
    1   AR   Ar   66   1.563   0.981   1.128
    1   AR   Ar   67   3.672   6.354  -1.034
    1   AR   Ar   68   3.247   1.273  -1.571
    1   AR   Ar   69   2.159   0.162   0.694
    1   AR   Ar   70   0.467   0.682   1.462
    1   AR   Ar   71   2.967   0.628   2.432
    1   AR   Ar   72   3.093   0.293   1.321
    1   AR   Ar   73   1.554   6.971   3.262
    1   AR   Ar   74   1.673   1.324   4.710
    1   AR   Ar   75   3.746   0.964   4.699
    1   AR   Ar   76   2.059   1.157   2.044
    1   AR   Ar   77   2.296   6.775   5.492
    1   AR   Ar   78   1.259   0.593   6.049
    1   AR   Ar   79   3.910   6.236   6.828
    1   AR   Ar   80   2.965   5.858   5.464
    1   AR   Ar   81   2.122   1.673  -0.171
    1   AR   Ar   82   0.405   3.223  -0.741
    1   AR   Ar   83   2.348   2.369   0.507
    1   AR   Ar   84   1.148   4.094  -2.331
    1   AR   Ar   85   0.645   2.430  -0.126
    1   AR   Ar   86   1.932   3.385   2.045
    1   AR   Ar   87   2.179   2.253   1.770
    1   AR   Ar   88   4.071   3.764   1.700
    1   AR   Ar   89   0.831   3.146   1.604
    1   AR   Ar   90   2.981   2.103   4.617
    1   AR   Ar   91   1.980   2.291   4.007
    1   AR   Ar   92   1.918   2.303   2.806
    1   AR   Ar   93   2.262   2.116   5.420
    1   AR   Ar   94   2.051   1.065   7.933
    1   AR   Ar   95   3.202   7.111   5.872
    1   AR   Ar   96   2.226   0.644   5.586
    1   AR   Ar   97   3.644   2.409  -1.522
    1   AR   Ar   98   2.869   4.425   1.103
    1   AR   Ar   99   6.573   2.667  -1.411
    1   AR   Ar  100   1.788   3.861  -0.388
    1   AR   Ar  101   1.336   2.816   0.730
    1   AR   Ar  102   2.765   3.727   4.017
    1   AR   Ar  103   1.044   4.406   0.258
    1   AR   Ar  104   2.840   2.430  -0.585
    1   AR   Ar  105   1.697   3.286   3.203
    1   AR   Ar  106   2.576   3.021   4.784
    1   AR   Ar  107   2.179   3.992   4.809
    1   AR   Ar  108   3.583   3.033   4.178
    1   AR   Ar  109   1.517   4.232   3.811
    1   AR   Ar  110   1.163   4.664   5.640
    1   AR   Ar  111   4.351   5.220   6.972
    1   AR   Ar  112   0.616   4.886   6.723
    1   AR   Ar  113   2.173   4.467   0.305
    1   AR   Ar  114   2.627   6.200   0.180
    1   AR   Ar  115   3.158   4.486  -0.574
    1   AR   Ar  116   4.858   6.387   0.174
    1   AR   Ar  117   0.377   5.720   3.825
    1   AR   Ar  118   0.664   6.578   2.911
    1   AR   Ar  119   2.163   4.186   2.919
    1   AR   Ar  120   1.468   5.452   2.318
    1   AR   Ar  121   6.958   4.853   4.082
    1   AR   Ar  122   2.385   6.058   4.592
    1   AR   Ar  123   2.402   4.945   4.814
    1   AR   Ar  124   2.197   5.918   2.922
    1   AR   Ar  125   0.588   4.993   4.798
    1   AR   Ar  126   0.513   0.236   5.192
    1   AR   Ar  127   3.107   5.503   6.972
    1   AR   Ar  128   2.161   5.394   6.566
    1   AR   Ar  129   1.666   0.156   1.905
    1   AR   Ar  130   3.701   1.179  -2.883
    1   AR   Ar  131   4.900   0.050   1.079
    1   AR   Ar  132   0.526   2.332  -1.384
    1   AR   Ar  133   3.877   0.129   2.960
    1   AR   Ar  134   3.977   1.336   2.627
    1   AR   Ar  135   4.733   0.779   2.678
    1   AR   Ar  136   4.030   0.041   1.807
    1   AR   Ar  137   2.825   0.057   3.489
    1   AR   Ar  138   4.792   0.947   5.170
    1   AR   Ar  139   5.853   1.243   4.736
    1   AR   Ar  140   4.280   0.784   3.629
    1   AR   Ar  141   3.885   7.070   4.101
    1   AR   Ar  142   4.245   0.063   5.302
    1   AR   Ar  143   5.361   6.994   6.135
    1   AR   Ar  144   4.891   0.731   6.682
    1   AR   Ar  145   3.515   3.778   0.270
    1   AR   Ar  146   4.226   2.656   1.612
    1   AR   Ar  147   5.909   1.944  -0.806
    1   AR   Ar  148   5.434   4.074  -2.408
    1   AR   Ar  149   3.845   2.173   0.682
    1   AR   Ar  150   2.889   1.542   2.877
    1   AR   Ar  151   3.601   2.326   3.417
    1   AR   Ar  152   2.539   3.415   0.409
    1   AR   Ar  153   2.956   0.991   4.001
    1   AR   Ar  154   4.033   1.962   4.337
    1   AR   Ar  155   5.670   0.849   5.694
    1   AR   Ar  156   3.528   3.918   3.515
    1   AR   Ar  157   2.815   2.795   5.932
    1   AR   Ar  158   1.401   2.623   7.106
    1   AR   Ar  159   3.911   0.802   5.865
    1   AR   Ar  160   3.786   2.508   7.595
    1   AR   Ar  161   5.282   2.124   0.541
    1   AR   Ar  162   4.221   5.587  -0.374
    1   AR   Ar  163   5.397   3.608  -0.344
    1   AR   Ar  164   3.970   5.053   1.611
    1   AR   Ar  165   3.059   3.288   1.761
    1   AR   Ar  166   2.544   5.095   3.803
    1   AR   Ar  167   4.592   2.236   2.712
    1   AR   Ar  168   4.135   3.223  -0.881
    1   AR   Ar  169   2.859   3.125   3.195
    1   AR   Ar  170   3.301   3.835   4.854
    1   AR   Ar  171   4.227   3.840   4.308
    1   AR   Ar  172   4.582   5.293   4.379
    1   AR   Ar  173   1.874   3.593   7.096
    1   AR   Ar  174   3.596   5.099   6.244
    1   AR   Ar  175   4.128   4.016   5.978
    1   AR   Ar  176   3.401   4.846   5.178
    1   AR   Ar  177   5.802   5.893  -0.244
    1   AR   Ar  178   2.917   6.401   1.445
    1   AR   Ar  179   3.833   5.838   0.661
    1   AR   Ar  180   3.363   3.567  -2.159
    1   AR   Ar  181   2.322   5.564   1.376
    1   AR   Ar  182   2.678   6.761   2.435
    1   AR   Ar  183   3.766   4.557   2.735
    1   AR   Ar  184   4.289   6.163   1.591
    1   AR   Ar  185   1.445   5.654   4.449
    1   AR   Ar  186   3.410   6.040   4.196
    1   AR   Ar  187   4.037   6.204   3.073
    1   AR   Ar  188   3.397   5.862   2.382
    1   AR   Ar  189   2.537   4.665   5.791
    1   AR   Ar  190   4.571   6.320   5.890
    1   AR   Ar  191   4.910   5.403   5.223
    1   AR   Ar  192   3.946   5.945   5.068
    1   AR   Ar  193   6.935   6.348  -0.310
    1   AR   Ar  194   5.641   5.252  -1.073
    1   AR   Ar  195   5.944   0.342  -0.495
    1   AR   Ar  196   5.504   1.028  -1.159
    1   AR   Ar  197   5.399   1.005   0.603
    1   AR   Ar  198   5.878   1.700   1.472
    1   AR   Ar  199   4.962   1.002   1.510
    1   AR   Ar  200   6.455   1.582   0.188
    1   AR   Ar  201   5.035   6.766   3.239
    1   AR   Ar  202   5.063   2.029   4.443
    1   AR   Ar  203   7.005   6.513   4.701
    1   AR   Ar  204   5.186   0.522   4.208
    1   AR   Ar  205   6.081   0.052   3.196
    1   AR   Ar  206   5.290   7.115   5.098
    1   AR   Ar  207   6.771   0.597   6.039
    1   AR   Ar  208   7.011   0.515   3.815
    1   AR   Ar  209   4.846   2.341  -2.138
    1   AR   Ar  210   3.758   1.077   0.867
    1   AR   Ar  211   6.255   3.163   0.298
    1   AR   Ar  212   6.444   3.751  -1.795
    1   AR   Ar  213   3.310   2.354   2.385
    1   AR   Ar  214   3.835   3.195   2.714
    1   AR   Ar  215   5.707   2.027   2.405
    1   AR   Ar  216   6.821   2.820   1.835
    1   AR   Ar  217   4.383   3.270   3.536
    1   AR   Ar  218   4.564   2.979   5.063
    1   AR   Ar  219   5.335   1.435   3.231
    1   AR   Ar  220   5.220   3.241   2.714
    1   AR   Ar  221   6.433   0.491   5.008
    1   AR   Ar  222   4.588   1.572   6.115
    1   AR   Ar  223   6.965   0.840   7.061
    1   AR   Ar  224   5.613   2.078   5.385
    1   AR   Ar  225   4.984   4.734   0.254
    1   AR   Ar  226   4.835   4.187   2.632
    1   AR   Ar  227   6.656   4.980   0.027
    1   AR   Ar  228   5.071   5.835   1.067
    1   AR   Ar  229   6.038   4.362   0.752
    1   AR   Ar  230   4.430   4.562   3.602
    1   AR   Ar  231   6.553   2.091   3.166
    1   AR   Ar  232   4.445   3.162   0.420
    1   AR   Ar  233   6.065   2.334   4.293
    1   AR   Ar  234   6.826   3.676   4.139
    1   AR   Ar  235   0.295   2.704   4.347
    1   AR   Ar  236   5.231   4.362   4.271
    1   AR   Ar  237   5.263   3.125   4.111
    1   AR   Ar  238   4.608   4.433   5.159
    1   AR   Ar  239   5.723   4.001   9.215
    1   AR   Ar  240   6.960   4.197   5.186
    1   AR   Ar  241   6.970   0.269  -0.738
    1   AR   Ar  242   4.951   4.512   1.525
    1   AR   Ar  243   5.799   4.212   2.039
    1   AR   Ar  244   0.465   5.336  -0.767
    1   AR   Ar  245   5.403   0.065   2.337
    1   AR   Ar  246   5.993   6.489   1.660
    1   AR   Ar  247   5.333   3.347   1.499
    1   AR   Ar  248   5.909   6.680   0.499
    1   AR   Ar  249   5.536   5.609   2.644
    1   AR   Ar  250   4.739   6.541   4.351
    1   AR   Ar  251   5.659   5.247   4.593
    1   AR   Ar  252   5.829   6.226   3.608
    1   AR   Ar  253   6.049   4.808   5.758
    1   AR   Ar  254   5.047   5.471   6.186
    1   AR   Ar  255   5.100   4.498   6.768
    1   AR   Ar  256   6.106   6.943   4.386
    7.12000  7.12000 12.00000
Argon-slab step 1815
  256
    1   AR   Ar    1   6.834   1.421  -0.965
    1   AR   Ar    2   5.943   0.459   1.335
    1   AR   Ar    3   6.812   6.894   0.805
    1   AR   Ar    4   1.263   7.102   0.314
    1   AR   Ar    5   6.650   5.807   0.859
    1   AR   Ar    6   0.089   0.405   2.757
    1   AR   Ar    7   0.445   4.896   2.917
    1   AR   Ar    8   6.873   7.025   1.835
    1   AR   Ar    9   1.084   0.544   4.220
    1   AR   Ar   10   0.684   1.594   3.953
    1   AR   Ar   11   3.115   6.999   4.729
    1   AR   Ar   12   1.205   1.319   2.839
    1   AR   Ar   13   7.025   1.457   4.637
    1   AR   Ar   14   0.276   1.614   6.374
    1   AR   Ar   15   0.160   0.060   9.239
    1   AR   Ar   16   0.655   1.441   5.372
    1   AR   Ar   17   0.489   1.367   0.004
    1   AR   Ar   18   6.356   3.561  -0.721
    1   AR   Ar   19   1.231   1.760   1.798
    1   AR   Ar   20   6.536   2.360  -2.593
    1   AR   Ar   21   6.213   1.063   2.823
    1   AR   Ar   22   0.214   1.804   2.154
    1   AR   Ar   23   6.803   1.199   1.331
    1   AR   Ar   24   0.404   1.984   1.077
    1   AR   Ar   25   0.140   1.354   3.136
    1   AR   Ar   26   6.297   1.288   3.793
    1   AR   Ar   27   1.871   1.072   3.705
    1   AR   Ar   28   1.323   2.549   4.902
    1   AR   Ar   29   5.967   1.524   6.468
    1   AR   Ar   30   0.580   2.851   6.059
    1   AR   Ar   31   0.743   0.008   6.755
    1   AR   Ar   32   1.671   2.953   6.200
    1   AR   Ar   33   1.404   4.300  -1.197
    1   AR   Ar   34   0.307   5.887   2.105
    1   AR   Ar   35   0.353   3.960   0.914
    1   AR   Ar   36   0.295   6.869  -1.638
    1   AR   Ar   37   0.198   3.148   2.703
    1   AR   Ar   38   7.034   4.308   1.870
    1   AR   Ar   39   1.448   4.362   2.192
    1   AR   Ar   40   1.460   3.804   1.222
    1   AR   Ar   41   0.997   2.401   3.143
    1   AR   Ar   42   6.776   5.533   5.184
    1   AR   Ar   43   6.907   2.485   5.325
    1   AR   Ar   44   0.559   3.847   3.365
    1   AR   Ar   45   0.935   3.652   5.453
    1   AR   Ar   46   0.471   6.141   6.315
    1   AR   Ar   47   5.736   3.792   6.395
    1   AR   Ar   48   6.216   6.930   6.647
    1   AR   Ar   49   6.925   5.866  -2.044
    1   AR   Ar   50   6.329   5.032   1.715
    1   AR   Ar   51   1.498   4.777   1.277
    1   AR   Ar   52   7.026   4.370  -1.036
    1   AR   Ar   53   6.443   6.183   2.615
    1   AR   Ar   54   6.943   6.521   3.605
    1   AR   Ar   55   6.477   4.822   3.084
    1   AR   Ar   56   0.751   6.650   1.270
    1   AR   Ar   57   6.272   3.465   2.665
    1   AR   Ar   58   6.542   5.762   4.227
    1   AR   Ar   59   1.785   5.464   5.559
    1   AR   Ar   60   0.737   6.655   4.220
    1   AR   Ar   61   5.756   6.117   5.295
    1   AR   Ar   62   0.681   5.941   5.184
    1   AR   Ar   63   1.677   6.470   6.606
    1   AR   Ar   64   1.429   6.735   5.059
    1   AR   Ar   65   3.233   0.038   0.377
    1   AR   Ar   66   1.602   0.971   1.132
    1   AR   Ar   67   3.662   6.356  -0.998
    1   AR   Ar   68   3.235   1.273  -1.590
    1   AR   Ar   69   2.153   0.173   0.693
    1   AR   Ar   70   0.499   0.689   1.470
    1   AR   Ar   71   2.958   0.627   2.432
    1   AR   Ar   72   3.064   0.291   1.348
    1   AR   Ar   73   1.558   6.968   3.276
    1   AR   Ar   74   1.678   1.306   4.708
    1   AR   Ar   75   3.754   0.980   4.727
    1   AR   Ar   76   2.054   1.166   2.029
    1   AR   Ar   77   2.315   6.759   5.506
    1   AR   Ar   78   1.281   0.592   6.063
    1   AR   Ar   79   3.879   6.202   6.837
    1   AR   Ar   80   2.970   5.854   5.455
    1   AR   Ar   81   2.099   1.649  -0.168
    1   AR   Ar   82   0.386   3.215  -0.735
    1   AR   Ar   83   2.333   2.358   0.527
    1   AR   Ar   84   1.148   4.100  -2.319
    1   AR   Ar   85   0.644   2.445  -0.078
    1   AR   Ar   86   1.915   3.379   2.071
    1   AR   Ar   87   2.160   2.247   1.752
    1   AR   Ar   88   4.096   3.796   1.736
    1   AR   Ar   89   0.844   3.169   1.623
    1   AR   Ar   90   2.990   2.075   4.604
    1   AR   Ar   91   1.994   2.287   4.009
    1   AR   Ar   92   1.911   2.300   2.800
    1   AR   Ar   93   2.294   2.116   5.414
    1   AR   Ar   94   2.013   1.088   7.947
    1   AR   Ar   95   3.209   7.099   5.877
    1   AR   Ar   96   2.222   0.647   5.563
    1   AR   Ar   97   3.649   2.392  -1.525
    1   AR   Ar   98   2.897   4.421   1.095
    1   AR   Ar   99   6.577   2.680  -1.420
    1   AR   Ar  100   1.789   3.825  -0.380
    1   AR   Ar  101   1.339   2.839   0.705
    1   AR   Ar  102   2.757   3.697   4.027
    1   AR   Ar  103   1.015   4.424   0.263
    1   AR   Ar  104   2.845   2.373  -0.565
    1   AR   Ar  105   1.678   3.284   3.213
    1   AR   Ar  106   2.557   3.005   4.785
    1   AR   Ar  107   2.140   4.025   4.819
    1   AR   Ar  108   3.575   3.024   4.180
    1   AR   Ar  109   1.525   4.232   3.783
    1   AR   Ar  110   1.158   4.651   5.663
    1   AR   Ar  111   4.348   5.203   6.965
    1   AR   Ar  112   0.555   4.838   6.726
    1   AR   Ar  113   2.211   4.478   0.288
    1   AR   Ar  114   2.674   6.200   0.204
    1   AR   Ar  115   3.147   4.465  -0.552
    1   AR   Ar  116   4.842   6.374   0.193
    1   AR   Ar  117   0.350   5.715   3.833
    1   AR   Ar  118   0.665   6.624   2.909
    1   AR   Ar  119   2.177   4.200   2.951
    1   AR   Ar  120   1.443   5.448   2.360
    1   AR   Ar  121   6.944   4.851   4.097
    1   AR   Ar  122   2.403   6.056   4.585
    1   AR   Ar  123   2.391   4.946   4.838
    1   AR   Ar  124   2.210   5.910   2.922
    1   AR   Ar  125   0.590   4.987   4.835
    1   AR   Ar  126   0.516   0.241   5.170
    1   AR   Ar  127   3.092   5.508   6.991
    1   AR   Ar  128   2.155   5.408   6.569
    1   AR   Ar  129   1.645   0.161   1.916
    1   AR   Ar  130   3.671   1.180  -2.924
    1   AR   Ar  131   4.911   0.033   1.051
    1   AR   Ar  132   0.546   2.332  -1.358
    1   AR   Ar  133   3.905   0.143   2.961
    1   AR   Ar  134   3.976   1.344   2.649
    1   AR   Ar  135   4.744   0.786   2.716
    1   AR   Ar  136   4.050   0.040   1.822
    1   AR   Ar  137   2.847   0.049   3.509
    1   AR   Ar  138   4.807   0.960   5.209
    1   AR   Ar  139   5.821   1.266   4.745
    1   AR   Ar  140   4.306   0.785   3.648
    1   AR   Ar  141   3.870   7.094   4.107
    1   AR   Ar  142   4.246   0.058   5.323
    1   AR   Ar  143   5.362   7.022   6.119
    1   AR   Ar  144   4.879   0.712   6.679
    1   AR   Ar  145   3.519   3.761   0.271
    1   AR   Ar  146   4.240   2.660   1.611
    1   AR   Ar  147   5.933   1.951  -0.821
    1   AR   Ar  148   5.431   4.127  -2.386
    1   AR   Ar  149   3.825   2.156   0.678
    1   AR   Ar  150   2.892   1.555   2.873
    1   AR   Ar  151   3.599   2.297   3.411
    1   AR   Ar  152   2.550   3.382   0.354
    1   AR   Ar  153   2.967   0.995   4.024
    1   AR   Ar  154   4.003   1.973   4.310
    1   AR   Ar  155   5.682   0.883   5.678
    1   AR   Ar  156   3.539   3.917   3.477
    1   AR   Ar  157   2.825   2.750   5.916
    1   AR   Ar  158   1.377   2.639   7.079
    1   AR   Ar  159   3.906   0.789   5.859
    1   AR   Ar  160   3.778   2.518   7.586
    1   AR   Ar  161   5.318   2.109   0.518
    1   AR   Ar  162   4.183   5.599  -0.378
    1   AR   Ar  163   5.393   3.591  -0.336
    1   AR   Ar  164   3.985   5.044   1.582
    1   AR   Ar  165   3.080   3.274   1.751
    1   AR   Ar  166   2.537   5.110   3.778
    1   AR   Ar  167   4.585   2.206   2.687
    1   AR   Ar  168   4.178   3.224  -0.868
    1   AR   Ar  169   2.836   3.130   3.195
    1   AR   Ar  170   3.313   3.838   4.850
    1   AR   Ar  171   4.209   3.812   4.285
    1   AR   Ar  172   4.568   5.309   4.340
    1   AR   Ar  173   1.871   3.622   7.094
    1   AR   Ar  174   3.560   5.148   6.239
    1   AR   Ar  175   4.160   4.029   5.994
    1   AR   Ar  176   3.408   4.831   5.161
    1   AR   Ar  177   5.805   5.941  -0.234
    1   AR   Ar  178   2.925   6.415   1.426
    1   AR   Ar  179   3.843   5.832   0.686
    1   AR   Ar  180   3.382   3.556  -2.170
    1   AR   Ar  181   2.313   5.553   1.355
    1   AR   Ar  182   2.691   6.763   2.431
    1   AR   Ar  183   3.806   4.575   2.720
    1   AR   Ar  184   4.260   6.166   1.614
    1   AR   Ar  185   1.436   5.628   4.469
    1   AR   Ar  186   3.392   6.051   4.163
    1   AR   Ar  187   4.025   6.242   3.100
    1   AR   Ar  188   3.399   5.894   2.365
    1   AR   Ar  189   2.540   4.673   5.782
    1   AR   Ar  190   4.548   6.336   5.884
    1   AR   Ar  191   4.901   5.425   5.231
    1   AR   Ar  192   3.942   5.936   5.083
    1   AR   Ar  193   6.957   6.340  -0.300
    1   AR   Ar  194   5.636   5.218  -1.057
    1   AR   Ar  195   5.950   0.343  -0.492
    1   AR   Ar  196   5.476   1.015  -1.144
    1   AR   Ar  197   5.377   1.007   0.614
    1   AR   Ar  198   5.886   1.682   1.470
    1   AR   Ar  199   4.913   1.032   1.506
    1   AR   Ar  200   6.468   1.596   0.144
    1   AR   Ar  201   5.039   6.779   3.217
    1   AR   Ar  202   5.064   2.030   4.444
    1   AR   Ar  203   6.975   6.513   4.706
    1   AR   Ar  204   5.167   0.545   4.205
    1   AR   Ar  205   6.099   0.049   3.227
    1   AR   Ar  206   5.268   7.120   5.084
    1   AR   Ar  207   6.810   0.576   6.059
    1   AR   Ar  208   6.979   0.453   3.793
    1   AR   Ar  209   4.847   2.354  -2.121
    1   AR   Ar  210   3.761   1.083   0.858
    1   AR   Ar  211   6.268   3.177   0.316
    1   AR   Ar  212   6.465   3.749  -1.807
    1   AR   Ar  213   3.312   2.360   2.376
    1   AR   Ar  214   3.796   3.183   2.754
    1   AR   Ar  215   5.701   2.008   2.416
    1   AR   Ar  216   6.841   2.824   1.791
    1   AR   Ar  217   4.408   3.277   3.542
    1   AR   Ar  218   4.574   2.972   5.045
    1   AR   Ar  219   5.343   1.441   3.210
    1   AR   Ar  220   5.201   3.216   2.707
    1   AR   Ar  221   6.419   0.473   5.008
    1   AR   Ar  222   4.577   1.564   6.122
    1   AR   Ar  223   6.980   0.816   7.058
    1   AR   Ar  224   5.606   2.076   5.408
    1   AR   Ar  225   4.979   4.762   0.262
    1   AR   Ar  226   4.823   4.169   2.623
    1   AR   Ar  227   6.646   4.987   0.036
    1   AR   Ar  228   5.065   5.820   1.088
    1   AR   Ar  229   6.008   4.329   0.794
    1   AR   Ar  230   4.427   4.608   3.608
    1   AR   Ar  231   6.530   2.090   3.140
    1   AR   Ar  232   4.451   3.168   0.435
    1   AR   Ar  233   6.081   2.326   4.292
    1   AR   Ar  234   6.842   3.650   4.144
    1   AR   Ar  235   0.291   2.713   4.358
    1   AR   Ar  236   5.213   4.368   4.281
    1   AR   Ar  237   5.257   3.108   4.132
    1   AR   Ar  238   4.638   4.447   5.197
    1   AR   Ar  239   5.707   3.995   9.211
    1   AR   Ar  240   6.942   4.196   5.178
    1   AR   Ar  241   6.977   0.248  -0.745
    1   AR   Ar  242   4.964   4.507   1.563
    1   AR   Ar  243   5.807   4.198   2.030
    1   AR   Ar  244   0.483   5.309  -0.799
    1   AR   Ar  245   5.394   0.050   2.368
    1   AR   Ar  246   5.973   6.467   1.647
    1   AR   Ar  247   5.316   3.366   1.510
    1   AR   Ar  248   5.861   6.704   0.502
    1   AR   Ar  249   5.534   5.637   2.619
    1   AR   Ar  250   4.753   6.562   4.365
    1   AR   Ar  251   5.691   5.280   4.582
    1   AR   Ar  252   5.824   6.221   3.606
    1   AR   Ar  253   6.066   4.797   5.745
    1   AR   Ar  254   5.053   5.460   6.204
    1   AR   Ar  255   5.107   4.502   6.795
    1   AR   Ar  256   6.110   6.955   4.384
    7.12000  7.12000 12.00000
Argon-slab step 1820
  256
    1   AR   Ar    1   6.848   1.445  -0.947
    1   AR   Ar    2   5.954   0.496   1.308
    1   AR   Ar    3   6.816   6.892   0.813
    1   AR   Ar    4   1.271   7.086   0.344
    1   AR   Ar    5   6.650   5.817   0.885
    1   AR   Ar    6   0.105   0.393   2.757
    1   AR   Ar    7   0.432   4.897   2.915
    1   AR   Ar    8   6.886   7.025   1.812
    1   AR   Ar    9   1.092   0.557   4.220
    1   AR   Ar   10   0.740   1.582   3.964
    1   AR   Ar   11   3.121   7.017   4.738
    1   AR   Ar   12   1.195   1.295   2.807
    1   AR   Ar   13   7.021   1.446   4.626
    1   AR   Ar   14   0.292   1.619   6.404
    1   AR   Ar   15   0.160   0.065   9.238
    1   AR   Ar   16   0.691   1.437   5.383
    1   AR   Ar   17   0.490   1.377  -0.011
    1   AR   Ar   18   6.381   3.541  -0.712
    1   AR   Ar   19   1.258   1.754   1.824
    1   AR   Ar   20   6.534   2.401  -2.593
    1   AR   Ar   21   6.201   1.049   2.822
    1   AR   Ar   22   0.186   1.785   2.139
    1   AR   Ar   23   6.824   1.209   1.347
    1   AR   Ar   24   0.395   1.951   1.036
    1   AR   Ar   25   0.142   1.369   3.181
    1   AR   Ar   26   6.281   1.278   3.827
    1   AR   Ar   27   1.847   1.068   3.736
    1   AR   Ar   28   1.321   2.539   4.921
    1   AR   Ar   29   5.938   1.535   6.505
    1   AR   Ar   30   0.600   2.846   6.055
    1   AR   Ar   31   0.725   0.027   6.751
    1   AR   Ar   32   1.659   2.981   6.200
    1   AR   Ar   33   1.425   4.296  -1.164
    1   AR   Ar   34   0.302   5.862   2.063
    1   AR   Ar   35   0.326   3.985   0.869
    1   AR   Ar   36   0.308   6.854  -1.624
    1   AR   Ar   37   0.197   3.111   2.711
    1   AR   Ar   38   7.036   4.309   1.884
    1   AR   Ar   39   1.451   4.376   2.199
    1   AR   Ar   40   1.466   3.826   1.213
    1   AR   Ar   41   0.978   2.424   3.146
    1   AR   Ar   42   6.757   5.507   5.172
    1   AR   Ar   43   6.880   2.481   5.291
    1   AR   Ar   44   0.523   3.888   3.373
    1   AR   Ar   45   0.924   3.657   5.483
    1   AR   Ar   46   0.455   6.118   6.319
    1   AR   Ar   47   5.746   3.784   6.414
    1   AR   Ar   48   6.231   6.938   6.649
    1   AR   Ar   49   6.905   5.902  -2.047
    1   AR   Ar   50   6.267   5.007   1.719
    1   AR   Ar   51   1.501   4.793   1.295
    1   AR   Ar   52   7.027   4.367  -1.043
    1   AR   Ar   53   6.423   6.216   2.627
    1   AR   Ar   54   6.920   6.545   3.624
    1   AR   Ar   55   6.486   4.836   3.103
    1   AR   Ar   56   0.745   6.666   1.291
    1   AR   Ar   57   6.269   3.480   2.693
    1   AR   Ar   58   6.530   5.759   4.214
    1   AR   Ar   59   1.736   5.451   5.549
    1   AR   Ar   60   0.712   6.662   4.232
    1   AR   Ar   61   5.759   6.112   5.296
    1   AR   Ar   62   0.661   5.962   5.212
    1   AR   Ar   63   1.687   6.456   6.564
    1   AR   Ar   64   1.419   6.735   5.088
    1   AR   Ar   65   3.231   0.031   0.369
    1   AR   Ar   66   1.637   0.961   1.131
    1   AR   Ar   67   3.648   6.363  -0.965
    1   AR   Ar   68   3.224   1.274  -1.610
    1   AR   Ar   69   2.159   0.184   0.697
    1   AR   Ar   70   0.545   0.689   1.481
    1   AR   Ar   71   2.952   0.627   2.429
    1   AR   Ar   72   3.033   0.299   1.382
    1   AR   Ar   73   1.568   6.968   3.291
    1   AR   Ar   74   1.682   1.292   4.710
    1   AR   Ar   75   3.754   0.983   4.763
    1   AR   Ar   76   2.056   1.161   2.058
    1   AR   Ar   77   2.339   6.732   5.523
    1   AR   Ar   78   1.301   0.592   6.073
    1   AR   Ar   79   3.850   6.169   6.844
    1   AR   Ar   80   2.973   5.848   5.449
    1   AR   Ar   81   2.075   1.621  -0.169
    1   AR   Ar   82   0.364   3.211  -0.731
    1   AR   Ar   83   2.319   2.349   0.552
    1   AR   Ar   84   1.149   4.107  -2.306
    1   AR   Ar   85   0.643   2.458  -0.028
    1   AR   Ar   86   1.899   3.370   2.101
    1   AR   Ar   87   2.144   2.244   1.732
    1   AR   Ar   88   4.122   3.828   1.773
    1   AR   Ar   89   0.846   3.183   1.652
    1   AR   Ar   90   3.000   2.043   4.588
    1   AR   Ar   91   1.994   2.273   4.053
    1   AR   Ar   92   1.898   2.282   2.815
    1   AR   Ar   93   2.313   2.104   5.400
    1   AR   Ar   94   1.975   1.110   7.961
    1   AR   Ar   95   3.220   7.086   5.882
    1   AR   Ar   96   2.219   0.657   5.539
    1   AR   Ar   97   3.653   2.375  -1.528
    1   AR   Ar   98   2.901   4.404   1.101
    1   AR   Ar   99   6.583   2.692  -1.428
    1   AR   Ar  100   1.790   3.781  -0.369
    1   AR   Ar  101   1.343   2.860   0.680
    1   AR   Ar  102   2.733   3.671   4.038
    1   AR   Ar  103   0.990   4.443   0.266
    1   AR   Ar  104   2.850   2.316  -0.545
    1   AR   Ar  105   1.658   3.282   3.224
    1   AR   Ar  106   2.535   2.989   4.789
    1   AR   Ar  107   2.104   4.040   4.827
    1   AR   Ar  108   3.563   3.008   4.185
    1   AR   Ar  109   1.532   4.232   3.758
    1   AR   Ar  110   1.154   4.638   5.689
    1   AR   Ar  111   4.341   5.188   6.960
    1   AR   Ar  112   0.495   4.791   6.728
    1   AR   Ar  113   2.249   4.492   0.274
    1   AR   Ar  114   2.722   6.200   0.231
    1   AR   Ar  115   3.136   4.442  -0.528
    1   AR   Ar  116   4.825   6.360   0.211
    1   AR   Ar  117   0.339   5.701   3.840
    1   AR   Ar  118   0.662   6.666   2.904
    1   AR   Ar  119   2.195   4.215   2.982
    1   AR   Ar  120   1.415   5.444   2.400
    1   AR   Ar  121   6.931   4.837   4.111
    1   AR   Ar  122   2.420   6.055   4.577
    1   AR   Ar  123   2.383   4.968   4.852
    1   AR   Ar  124   2.226   5.902   2.925
    1   AR   Ar  125   0.591   4.976   4.869
    1   AR   Ar  126   0.517   0.246   5.147
    1   AR   Ar  127   3.075   5.512   7.016
    1   AR   Ar  128   2.146   5.422   6.570
    1   AR   Ar  129   1.623   0.164   1.927
    1   AR   Ar  130   3.641   1.181  -2.964
    1   AR   Ar  131   4.923   0.014   1.023
    1   AR   Ar  132   0.565   2.330  -1.332
    1   AR   Ar  133   3.926   0.144   2.959
    1   AR   Ar  134   3.954   1.361   2.670
    1   AR   Ar  135   4.770   0.778   2.748
    1   AR   Ar  136   4.070   0.045   1.839
    1   AR   Ar  137   2.870   0.040   3.528
    1   AR   Ar  138   4.814   0.979   5.242
    1   AR   Ar  139   5.786   1.295   4.748
    1   AR   Ar  140   4.332   0.796   3.673
    1   AR   Ar  141   3.859   7.116   4.106
    1   AR   Ar  142   4.247   0.040   5.332
    1   AR   Ar  143   5.357   7.050   6.100
    1   AR   Ar  144   4.868   0.691   6.675
    1   AR   Ar  145   3.506   3.758   0.257
    1   AR   Ar  146   4.253   2.664   1.611
    1   AR   Ar  147   5.937   1.959  -0.816
    1   AR   Ar  148   5.430   4.179  -2.364
    1   AR   Ar  149   3.812   2.138   0.669
    1   AR   Ar  150   2.892   1.570   2.875
    1   AR   Ar  151   3.596   2.267   3.400
    1   AR   Ar  152   2.576   3.368   0.336
    1   AR   Ar  153   2.976   1.000   4.046
    1   AR   Ar  154   3.975   1.984   4.285
    1   AR   Ar  155   5.700   0.913   5.672
    1   AR   Ar  156   3.558   3.921   3.434
    1   AR   Ar  157   2.835   2.723   5.910
    1   AR   Ar  158   1.347   2.651   7.064
    1   AR   Ar  159   3.896   0.788   5.861
    1   AR   Ar  160   3.770   2.528   7.577
    1   AR   Ar  161   5.354   2.095   0.495
    1   AR   Ar  162   4.153   5.612  -0.382
    1   AR   Ar  163   5.398   3.554  -0.299
    1   AR   Ar  164   4.000   5.036   1.553
    1   AR   Ar  165   3.101   3.259   1.742
    1   AR   Ar  166   2.531   5.125   3.753
    1   AR   Ar  167   4.578   2.179   2.663
    1   AR   Ar  168   4.195   3.211  -0.857
    1   AR   Ar  169   2.810   3.129   3.189
    1   AR   Ar  170   3.327   3.841   4.855
    1   AR   Ar  171   4.202   3.799   4.276
    1   AR   Ar  172   4.547   5.328   4.287
    1   AR   Ar  173   1.868   3.652   7.092
    1   AR   Ar  174   3.534   5.189   6.215
    1   AR   Ar  175   4.188   4.042   6.015
    1   AR   Ar  176   3.421   4.819   5.145
    1   AR   Ar  177   5.810   5.987  -0.223
    1   AR   Ar  178   2.935   6.424   1.405
    1   AR   Ar  179   3.839   5.841   0.702
    1   AR   Ar  180   3.401   3.544  -2.180
    1   AR   Ar  181   2.302   5.544   1.339
    1   AR   Ar  182   2.703   6.761   2.427
    1   AR   Ar  183   3.846   4.596   2.699
    1   AR   Ar  184   4.227   6.167   1.641
    1   AR   Ar  185   1.426   5.602   4.488
    1   AR   Ar  186   3.375   6.061   4.128
    1   AR   Ar  187   4.016   6.279   3.134
    1   AR   Ar  188   3.397   5.924   2.343
    1   AR   Ar  189   2.544   4.678   5.782
    1   AR   Ar  190   4.525   6.352   5.878
    1   AR   Ar  191   4.896   5.457   5.250
    1   AR   Ar  192   3.941   5.927   5.096
    1   AR   Ar  193   6.976   6.330  -0.289
    1   AR   Ar  194   5.632   5.184  -1.041
    1   AR   Ar  195   5.955   0.342  -0.485
    1   AR   Ar  196   5.447   1.004  -1.130
    1   AR   Ar  197   5.359   1.009   0.617
    1   AR   Ar  198   5.893   1.661   1.459
    1   AR   Ar  199   4.880   1.049   1.504
    1   AR   Ar  200   6.479   1.599   0.120
    1   AR   Ar  201   5.035   6.792   3.203
    1   AR   Ar  202   5.065   2.029   4.445
    1   AR   Ar  203   6.948   6.520   4.721
    1   AR   Ar  204   5.151   0.568   4.199
    1   AR   Ar  205   6.117   0.048   3.257
    1   AR   Ar  206   5.233   0.001   5.069
    1   AR   Ar  207   6.849   0.554   6.074
    1   AR   Ar  208   6.949   0.393   3.775
    1   AR   Ar  209   4.846   2.367  -2.103
    1   AR   Ar  210   3.764   1.086   0.850
    1   AR   Ar  211   6.281   3.190   0.334
    1   AR   Ar  212   6.495   3.756  -1.815
    1   AR   Ar  213   3.313   2.381   2.334
    1   AR   Ar  214   3.759   3.173   2.783
    1   AR   Ar  215   5.695   1.994   2.429
    1   AR   Ar  216   6.860   2.828   1.746
    1   AR   Ar  217   4.444   3.269   3.530
    1   AR   Ar  218   4.582   2.964   5.025
    1   AR   Ar  219   5.342   1.449   3.200
    1   AR   Ar  220   5.182   3.191   2.700
    1   AR   Ar  221   6.418   0.466   5.023
    1   AR   Ar  222   4.568   1.559   6.128
    1   AR   Ar  223   6.996   0.791   7.056
    1   AR   Ar  224   5.599   2.074   5.433
    1   AR   Ar  225   4.975   4.790   0.271
    1   AR   Ar  226   4.810   4.154   2.614
    1   AR   Ar  227   6.621   5.000   0.064
    1   AR   Ar  228   5.069   5.817   1.103
    1   AR   Ar  229   5.978   4.295   0.837
    1   AR   Ar  230   4.422   4.649   3.608
    1   AR   Ar  231   6.505   2.094   3.113
    1   AR   Ar  232   4.460   3.179   0.449
    1   AR   Ar  233   6.100   2.318   4.290
    1   AR   Ar  234   6.859   3.625   4.149
    1   AR   Ar  235   0.289   2.720   4.369
    1   AR   Ar  236   5.196   4.370   4.290
    1   AR   Ar  237   5.253   3.090   4.154
    1   AR   Ar  238   4.667   4.458   5.230
    1   AR   Ar  239   5.691   3.989   9.208
    1   AR   Ar  240   6.925   4.197   5.168
    1   AR   Ar  241   6.987   0.228  -0.751
    1   AR   Ar  242   4.971   4.503   1.596
    1   AR   Ar  243   5.819   4.180   2.024
    1   AR   Ar  244   0.501   5.281  -0.830
    1   AR   Ar  245   5.391   0.037   2.387
    1   AR   Ar  246   5.957   6.450   1.629
    1   AR   Ar  247   5.296   3.384   1.521
    1   AR   Ar  248   5.806   6.729   0.507
    1   AR   Ar  249   5.531   5.664   2.594
    1   AR   Ar  250   4.767   6.579   4.377
    1   AR   Ar  251   5.725   5.310   4.570
    1   AR   Ar  252   5.820   6.212   3.604
    1   AR   Ar  253   6.081   4.787   5.731
    1   AR   Ar  254   5.064   5.448   6.232
    1   AR   Ar  255   5.113   4.507   6.823
    1   AR   Ar  256   6.102   6.953   4.362
    7.12000  7.12000 12.00000
Argon-slab step 1825
  256
    1   AR   Ar    1   6.866   1.468  -0.928
    1   AR   Ar    2   5.967   0.530   1.285
    1   AR   Ar    3   6.822   6.891   0.816
    1   AR   Ar    4   1.267   7.067   0.371
    1   AR   Ar    5   6.648   5.826   0.912
    1   AR   Ar    6   0.116   0.383   2.752
    1   AR   Ar    7   0.421   4.900   2.912
    1   AR   Ar    8   6.899   7.026   1.798
    1   AR   Ar    9   1.096   0.563   4.218
    1   AR   Ar   10   0.803   1.574   3.981
    1   AR   Ar   11   3.154   7.017   4.748
    1   AR   Ar   12   1.184   1.271   2.777
    1   AR   Ar   13   7.014   1.435   4.615
    1   AR   Ar   14   0.307   1.623   6.432
    1   AR   Ar   15   0.161   0.070   9.237
    1   AR   Ar   16   0.728   1.432   5.393
    1   AR   Ar   17   0.489   1.386  -0.026
    1   AR   Ar   18   6.409   3.519  -0.705
    1   AR   Ar   19   1.274   1.749   1.848
    1   AR   Ar   20   6.532   2.442  -2.591
    1   AR   Ar   21   6.195   1.031   2.813
    1   AR   Ar   22   0.158   1.768   2.125
    1   AR   Ar   23   6.837   1.219   1.360
    1   AR   Ar   24   0.389   1.920   0.994
    1   AR   Ar   25   0.141   1.381   3.221
    1   AR   Ar   26   6.267   1.269   3.863
    1   AR   Ar   27   1.823   1.069   3.777
    1   AR   Ar   28   1.318   2.529   4.941
    1   AR   Ar   29   5.909   1.546   6.543
    1   AR   Ar   30   0.617   2.836   6.052
    1   AR   Ar   31   0.703   0.044   6.748
    1   AR   Ar   32   1.654   3.014   6.186
    1   AR   Ar   33   1.442   4.296  -1.136
    1   AR   Ar   34   0.296   5.838   2.021
    1   AR   Ar   35   0.294   4.006   0.829
    1   AR   Ar   36   0.272   6.847  -1.624
    1   AR   Ar   37   0.197   3.072   2.717
    1   AR   Ar   38   7.040   4.306   1.899
    1   AR   Ar   39   1.452   4.385   2.215
    1   AR   Ar   40   1.478   3.841   1.197
    1   AR   Ar   41   0.948   2.446   3.153
    1   AR   Ar   42   6.740   5.479   5.166
    1   AR   Ar   43   6.853   2.474   5.258
    1   AR   Ar   44   0.488   3.929   3.382
    1   AR   Ar   45   0.913   3.658   5.508
    1   AR   Ar   46   0.439   6.095   6.322
    1   AR   Ar   47   5.758   3.774   6.430
    1   AR   Ar   48   6.249   6.946   6.653
    1   AR   Ar   49   6.886   5.939  -2.049
    1   AR   Ar   50   6.207   4.996   1.718
    1   AR   Ar   51   1.505   4.827   1.306
    1   AR   Ar   52   7.028   4.363  -1.050
    1   AR   Ar   53   6.407   6.245   2.637
    1   AR   Ar   54   6.895   6.560   3.638
    1   AR   Ar   55   6.493   4.851   3.121
    1   AR   Ar   56   0.738   6.682   1.313
    1   AR   Ar   57   6.267   3.493   2.722
    1   AR   Ar   58   6.514   5.761   4.194
    1   AR   Ar   59   1.690   5.447   5.537
    1   AR   Ar   60   0.692   6.670   4.242
    1   AR   Ar   61   5.762   6.110   5.297
    1   AR   Ar   62   0.645   5.966   5.247
    1   AR   Ar   63   1.696   6.442   6.520
    1   AR   Ar   64   1.405   6.735   5.114
    1   AR   Ar   65   3.206   0.022   0.346
    1   AR   Ar   66   1.666   0.953   1.128
    1   AR   Ar   67   3.629   6.376  -0.937
    1   AR   Ar   68   3.212   1.275  -1.629
    1   AR   Ar   69   2.180   0.193   0.705
    1   AR   Ar   70   0.601   0.684   1.495
    1   AR   Ar   71   2.950   0.629   2.428
    1   AR   Ar   72   3.004   0.317   1.419
    1   AR   Ar   73   1.583   6.970   3.310
    1   AR   Ar   74   1.699   1.261   4.742
    1   AR   Ar   75   3.754   0.981   4.800
    1   AR   Ar   76   2.065   1.155   2.093
    1   AR   Ar   77   2.362   6.700   5.540
    1   AR   Ar   78   1.320   0.592   6.081
    1   AR   Ar   79   3.825   6.139   6.848
    1   AR   Ar   80   2.973   5.839   5.447
    1   AR   Ar   81   2.049   1.590  -0.172
    1   AR   Ar   82   0.340   3.211  -0.729
    1   AR   Ar   83   2.306   2.341   0.580
    1   AR   Ar   84   1.149   4.114  -2.292
    1   AR   Ar   85   0.641   2.469   0.023
    1   AR   Ar   86   1.885   3.359   2.133
    1   AR   Ar   87   2.136   2.246   1.712
    1   AR   Ar   88   4.147   3.859   1.811
    1   AR   Ar   89   0.841   3.189   1.686
    1   AR   Ar   90   3.006   2.009   4.571
    1   AR   Ar   91   1.994   2.258   4.096
    1   AR   Ar   92   1.897   2.262   2.826
    1   AR   Ar   93   2.319   2.079   5.377
    1   AR   Ar   94   1.937   1.133   7.974
    1   AR   Ar   95   3.237   7.072   5.888
    1   AR   Ar   96   2.218   0.670   5.512
    1   AR   Ar   97   3.657   2.359  -1.530
    1   AR   Ar   98   2.889   4.379   1.119
    1   AR   Ar   99   6.589   2.704  -1.435
    1   AR   Ar  100   1.791   3.732  -0.352
    1   AR   Ar  101   1.348   2.883   0.657
    1   AR   Ar  102   2.701   3.652   4.046
    1   AR   Ar  103   0.973   4.465   0.264
    1   AR   Ar  104   2.856   2.261  -0.524
    1   AR   Ar  105   1.639   3.279   3.236
    1   AR   Ar  106   2.512   2.972   4.795
    1   AR   Ar  107   2.101   4.042   4.818
    1   AR   Ar  108   3.548   2.988   4.189
    1   AR   Ar  109   1.536   4.234   3.740
    1   AR   Ar  110   1.149   4.623   5.720
    1   AR   Ar  111   4.330   5.175   6.957
    1   AR   Ar  112   0.435   4.745   6.728
    1   AR   Ar  113   2.286   4.508   0.261
    1   AR   Ar  114   2.753   6.198   0.260
    1   AR   Ar  115   3.123   4.420  -0.503
    1   AR   Ar  116   4.850   6.379   0.229
    1   AR   Ar  117   0.341   5.685   3.845
    1   AR   Ar  118   0.657   6.701   2.899
    1   AR   Ar  119   2.220   4.228   3.010
    1   AR   Ar  120   1.384   5.439   2.439
    1   AR   Ar  121   6.917   4.818   4.117
    1   AR   Ar  122   2.433   6.056   4.569
    1   AR   Ar  123   2.379   5.010   4.854
    1   AR   Ar  124   2.244   5.896   2.929
    1   AR   Ar  125   0.590   4.964   4.899
    1   AR   Ar  126   0.516   0.253   5.125
    1   AR   Ar  127   3.051   5.518   7.054
    1   AR   Ar  128   2.145   5.422   6.573
    1   AR   Ar  129   1.601   0.167   1.938
    1   AR   Ar  130   3.610   1.182  -3.004
    1   AR   Ar  131   4.934   7.115   0.997
    1   AR   Ar  132   0.583   2.328  -1.305
    1   AR   Ar  133   3.943   0.141   2.953
    1   AR   Ar  134   3.922   1.379   2.691
    1   AR   Ar  135   4.799   0.762   2.771
    1   AR   Ar  136   4.088   0.055   1.857
    1   AR   Ar  137   2.894   0.029   3.545
    1   AR   Ar  138   4.795   0.989   5.257
    1   AR   Ar  139   5.752   1.325   4.744
    1   AR   Ar  140   4.348   0.790   3.664
    1   AR   Ar  141   3.857   0.017   4.097
    1   AR   Ar  142   4.243   0.017   5.329
    1   AR   Ar  143   5.349   7.078   6.080
    1   AR   Ar  144   4.857   0.671   6.671
    1   AR   Ar  145   3.510   3.748   0.255
    1   AR   Ar  146   4.266   2.670   1.612
    1   AR   Ar  147   5.912   1.964  -0.780
    1   AR   Ar  148   5.425   4.223  -2.349
    1   AR   Ar  149   3.805   2.139   0.669
    1   AR   Ar  150   2.888   1.587   2.880
    1   AR   Ar  151   3.595   2.267   3.430
    1   AR   Ar  152   2.599   3.360   0.327
    1   AR   Ar  153   2.984   1.007   4.066
    1   AR   Ar  154   3.965   1.982   4.267
    1   AR   Ar  155   5.720   0.927   5.663
    1   AR   Ar  156   3.575   3.928   3.397
    1   AR   Ar  157   2.823   2.737   5.923
    1   AR   Ar  158   1.313   2.657   7.060
    1   AR   Ar  159   3.882   0.796   5.869
    1   AR   Ar  160   3.761   2.537   7.568
    1   AR   Ar  161   5.392   2.082   0.473
    1   AR   Ar  162   4.157   5.633  -0.388
    1   AR   Ar  163   5.400   3.516  -0.259
    1   AR   Ar  164   4.014   5.028   1.525
    1   AR   Ar  165   3.122   3.246   1.732
    1   AR   Ar  166   2.523   5.141   3.727
    1   AR   Ar  167   4.574   2.158   2.640
    1   AR   Ar  168   4.201   3.188  -0.833
    1   AR   Ar  169   2.779   3.122   3.179
    1   AR   Ar  170   3.339   3.840   4.865
    1   AR   Ar  171   4.228   3.788   4.247
    1   AR   Ar  172   4.526   5.359   4.242
    1   AR   Ar  173   1.864   3.682   7.088
    1   AR   Ar  174   3.513   5.226   6.177
    1   AR   Ar  175   4.212   4.053   6.042
    1   AR   Ar  176   3.437   4.815   5.129
    1   AR   Ar  177   5.815   6.030  -0.215
    1   AR   Ar  178   2.947   6.425   1.383
    1   AR   Ar  179   3.827   5.860   0.712
    1   AR   Ar  180   3.421   3.535  -2.193
    1   AR   Ar  181   2.290   5.535   1.323
    1   AR   Ar  182   2.713   6.756   2.424
    1   AR   Ar  183   3.884   4.620   2.673
    1   AR   Ar  184   4.194   6.165   1.670
    1   AR   Ar  185   1.416   5.576   4.506
    1   AR   Ar  186   3.383   6.038   4.137
    1   AR   Ar  187   4.010   6.309   3.172
    1   AR   Ar  188   3.393   5.953   2.319
    1   AR   Ar  189   2.549   4.682   5.793
    1   AR   Ar  190   4.505   6.363   5.877
    1   AR   Ar  191   4.892   5.494   5.266
    1   AR   Ar  192   3.941   5.920   5.105
    1   AR   Ar  193   6.995   6.320  -0.276
    1   AR   Ar  194   5.628   5.149  -1.023
    1   AR   Ar  195   5.961   0.338  -0.474
    1   AR   Ar  196   5.417   0.995  -1.118
    1   AR   Ar  197   5.345   1.011   0.609
    1   AR   Ar  198   5.896   1.639   1.444
    1   AR   Ar  199   4.921   1.016   1.487
    1   AR   Ar  200   6.489   1.598   0.101
    1   AR   Ar  201   5.021   6.802   3.205
    1   AR   Ar  202   5.076   2.022   4.440
    1   AR   Ar  203   6.925   6.530   4.747
    1   AR   Ar  204   5.143   0.590   4.194
    1   AR   Ar  205   6.132   0.049   3.284
    1   AR   Ar  206   5.212   0.004   5.059
    1   AR   Ar  207   6.888   0.532   6.081
    1   AR   Ar  208   6.923   0.349   3.768
    1   AR   Ar  209   4.846   2.380  -2.084
    1   AR   Ar  210   3.767   1.085   0.843
    1   AR   Ar  211   6.293   3.204   0.353
    1   AR   Ar  212   6.524   3.763  -1.824
    1   AR   Ar  213   3.312   2.396   2.287
    1   AR   Ar  214   3.727   3.164   2.803
    1   AR   Ar  215   5.689   1.986   2.439
    1   AR   Ar  216   6.880   2.831   1.701
    1   AR   Ar  217   4.486   3.247   3.500
    1   AR   Ar  218   4.590   2.957   5.003
    1   AR   Ar  219   5.332   1.462   3.206
    1   AR   Ar  220   5.162   3.183   2.689
    1   AR   Ar  221   6.426   0.467   5.048
    1   AR   Ar  222   4.563   1.559   6.133
    1   AR   Ar  223   7.012   0.767   7.060
    1   AR   Ar  224   5.591   2.072   5.460
    1   AR   Ar  225   4.972   4.819   0.281
    1   AR   Ar  226   4.803   4.178   2.591
    1   AR   Ar  227   6.604   5.014   0.090
    1   AR   Ar  228   5.080   5.822   1.115
    1   AR   Ar  229   5.947   4.262   0.881
    1   AR   Ar  230   4.415   4.679   3.595
    1   AR   Ar  231   6.480   2.101   3.088
    1   AR   Ar  232   4.470   3.190   0.463
    1   AR   Ar  233   6.122   2.308   4.288
    1   AR   Ar  234   6.874   3.602   4.153
    1   AR   Ar  235   0.288   2.724   4.378
    1   AR   Ar  236   5.180   4.371   4.300
    1   AR   Ar  237   5.262   3.080   4.176
    1   AR   Ar  238   4.697   4.467   5.257
    1   AR   Ar  239   5.680   3.986   9.211
    1   AR   Ar  240   6.910   4.199   5.165
    1   AR   Ar  241   7.002   0.212  -0.760
    1   AR   Ar  242   4.974   4.504   1.623
    1   AR   Ar  243   5.833   4.152   2.026
    1   AR   Ar  244   0.518   5.253  -0.860
    1   AR   Ar  245   5.399   0.027   2.388
    1   AR   Ar  246   5.965   6.457   1.597
    1   AR   Ar  247   5.275   3.401   1.533
    1   AR   Ar  248   5.752   6.757   0.515
    1   AR   Ar  249   5.526   5.689   2.568
    1   AR   Ar  250   4.777   6.589   4.383
    1   AR   Ar  251   5.751   5.335   4.560
    1   AR   Ar  252   5.814   6.199   3.602
    1   AR   Ar  253   6.095   4.778   5.716
    1   AR   Ar  254   5.078   5.436   6.266
    1   AR   Ar  255   5.119   4.511   6.850
    1   AR   Ar  256   6.082   6.942   4.327
    7.12000  7.12000 12.00000
Argon-slab step 1830
  256
    1   AR   Ar    1   6.884   1.490  -0.909
    1   AR   Ar    2   5.983   0.559   1.264
    1   AR   Ar    3   6.827   6.891   0.809
    1   AR   Ar    4   1.253   7.047   0.397
    1   AR   Ar    5   6.644   5.835   0.939
    1   AR   Ar    6   0.115   0.381   2.737
    1   AR   Ar    7   0.412   4.905   2.908
    1   AR   Ar    8   6.896   7.012   1.832
    1   AR   Ar    9   1.091   0.560   4.221
    1   AR   Ar   10   0.870   1.569   4.001
    1   AR   Ar   11   3.174   7.014   4.770
    1   AR   Ar   12   1.173   1.247   2.751
    1   AR   Ar   13   7.007   1.424   4.606
    1   AR   Ar   14   0.322   1.627   6.460
    1   AR   Ar   15   0.144   0.078   9.220
    1   AR   Ar   16   0.766   1.426   5.402
    1   AR   Ar   17   0.488   1.393  -0.040
    1   AR   Ar   18   6.436   3.498  -0.698
    1   AR   Ar   19   1.277   1.746   1.869
    1   AR   Ar   20   6.530   2.484  -2.588
    1   AR   Ar   21   6.193   1.011   2.799
    1   AR   Ar   22   0.131   1.753   2.116
    1   AR   Ar   23   6.846   1.224   1.371
    1   AR   Ar   24   0.387   1.892   0.952
    1   AR   Ar   25   0.137   1.392   3.258
    1   AR   Ar   26   6.253   1.258   3.892
    1   AR   Ar   27   1.810   1.074   3.801
    1   AR   Ar   28   1.316   2.518   4.962
    1   AR   Ar   29   5.880   1.557   6.580
    1   AR   Ar   30   0.641   2.829   6.048
    1   AR   Ar   31   0.680   0.060   6.746
    1   AR   Ar   32   1.655   3.050   6.162
    1   AR   Ar   33   1.456   4.299  -1.113
    1   AR   Ar   34   0.289   5.815   1.981
    1   AR   Ar   35   0.268   4.018   0.846
    1   AR   Ar   36   0.236   6.838  -1.625
    1   AR   Ar   37   0.195   3.033   2.722
    1   AR   Ar   38   7.044   4.303   1.916
    1   AR   Ar   39   1.451   4.389   2.237
    1   AR   Ar   40   1.455   3.854   1.236
    1   AR   Ar   41   0.911   2.465   3.163
    1   AR   Ar   42   6.723   5.450   5.161
    1   AR   Ar   43   6.825   2.466   5.226
    1   AR   Ar   44   0.454   3.970   3.391
    1   AR   Ar   45   0.932   3.659   5.509
    1   AR   Ar   46   0.425   6.073   6.325
    1   AR   Ar   47   5.772   3.763   6.445
    1   AR   Ar   48   6.270   6.955   6.657
    1   AR   Ar   49   6.867   5.975  -2.050
    1   AR   Ar   50   6.152   5.000   1.712
    1   AR   Ar   51   1.507   4.872   1.310
    1   AR   Ar   52   7.006   4.354  -1.045
    1   AR   Ar   53   6.398   6.244   2.635
    1   AR   Ar   54   6.870   6.542   3.643
    1   AR   Ar   55   6.498   4.865   3.137
    1   AR   Ar   56   0.731   6.700   1.336
    1   AR   Ar   57   6.273   3.515   2.737
    1   AR   Ar   58   6.507   5.772   4.167
    1   AR   Ar   59   1.648   5.453   5.526
    1   AR   Ar   60   0.677   6.678   4.249
    1   AR   Ar   61   5.767   6.112   5.298
    1   AR   Ar   62   0.628   5.972   5.282
    1   AR   Ar   63   1.704   6.429   6.473
    1   AR   Ar   64   1.390   6.735   5.138
    1   AR   Ar   65   3.199   7.120   0.354
    1   AR   Ar   66   1.640   0.944   1.130
    1   AR   Ar   67   3.608   6.392  -0.908
    1   AR   Ar   68   3.201   1.278  -1.649
    1   AR   Ar   69   2.212   0.198   0.714
    1   AR   Ar   70   0.661   0.677   1.510
    1   AR   Ar   71   2.952   0.635   2.429
    1   AR   Ar   72   2.975   0.341   1.455
    1   AR   Ar   73   1.601   6.975   3.330
    1   AR   Ar   74   1.715   1.237   4.785
    1   AR   Ar   75   3.756   0.979   4.838
    1   AR   Ar   76   2.080   1.148   2.133
    1   AR   Ar   77   2.380   6.665   5.555
    1   AR   Ar   78   1.336   0.593   6.087
    1   AR   Ar   79   3.805   6.115   6.847
    1   AR   Ar   80   2.969   5.827   5.448
    1   AR   Ar   81   2.021   1.558  -0.174
    1   AR   Ar   82   0.315   3.213  -0.727
    1   AR   Ar   83   2.294   2.332   0.609
    1   AR   Ar   84   1.149   4.120  -2.277
    1   AR   Ar   85   0.636   2.478   0.071
    1   AR   Ar   86   1.872   3.346   2.166
    1   AR   Ar   87   2.135   2.252   1.691
    1   AR   Ar   88   4.169   3.886   1.848
    1   AR   Ar   89   0.833   3.192   1.723
    1   AR   Ar   90   3.007   1.976   4.552
    1   AR   Ar   91   1.994   2.242   4.139
    1   AR   Ar   92   1.903   2.254   2.824
    1   AR   Ar   93   2.315   2.045   5.348
    1   AR   Ar   94   1.898   1.156   7.988
    1   AR   Ar   95   3.258   7.058   5.895
    1   AR   Ar   96   2.220   0.683   5.483
    1   AR   Ar   97   3.662   2.344  -1.531
    1   AR   Ar   98   2.879   4.353   1.138
    1   AR   Ar   99   6.596   2.715  -1.442
    1   AR   Ar  100   1.794   3.680  -0.331
    1   AR   Ar  101   1.356   2.908   0.637
    1   AR   Ar  102   2.667   3.639   4.050
    1   AR   Ar  103   0.963   4.491   0.256
    1   AR   Ar  104   2.863   2.206  -0.502
    1   AR   Ar  105   1.622   3.277   3.247
    1   AR   Ar  106   2.527   3.007   4.855
    1   AR   Ar  107   2.094   4.037   4.812
    1   AR   Ar  108   3.553   2.984   4.199
    1   AR   Ar  109   1.535   4.238   3.730
    1   AR   Ar  110   1.143   4.608   5.756
    1   AR   Ar  111   4.312   5.163   6.955
    1   AR   Ar  112   0.376   4.699   6.727
    1   AR   Ar  113   2.320   4.523   0.246
    1   AR   Ar  114   2.755   6.193   0.293
    1   AR   Ar  115   3.109   4.398  -0.479
    1   AR   Ar  116   4.866   6.393   0.242
    1   AR   Ar  117   0.353   5.667   3.848
    1   AR   Ar  118   0.655   6.722   2.895
    1   AR   Ar  119   2.253   4.240   3.032
    1   AR   Ar  120   1.351   5.436   2.477
    1   AR   Ar  121   6.899   4.813   4.089
    1   AR   Ar  122   2.441   6.060   4.561
    1   AR   Ar  123   2.376   5.061   4.847
    1   AR   Ar  124   2.263   5.890   2.935
    1   AR   Ar  125   0.587   4.950   4.925
    1   AR   Ar  126   0.513   0.261   5.103
    1   AR   Ar  127   3.025   5.521   7.100
    1   AR   Ar  128   2.141   5.421   6.572
    1   AR   Ar  129   1.578   0.169   1.948
    1   AR   Ar  130   3.580   1.184  -3.043
    1   AR   Ar  131   4.939   7.099   0.979
    1   AR   Ar  132   0.599   2.324  -1.278
    1   AR   Ar  133   3.954   0.148   2.943
    1   AR   Ar  134   3.885   1.392   2.713
    1   AR   Ar  135   4.825   0.739   2.781
    1   AR   Ar  136   4.107   0.071   1.876
    1   AR   Ar  137   2.918   0.017   3.561
    1   AR   Ar  138   4.760   0.994   5.258
    1   AR   Ar  139   5.722   1.350   4.737
    1   AR   Ar  140   4.350   0.778   3.632
    1   AR   Ar  141   3.865   0.034   4.081
    1   AR   Ar  142   4.230   7.118   5.316
    1   AR   Ar  143   5.342   7.103   6.060
    1   AR   Ar  144   4.846   0.652   6.667
    1   AR   Ar  145   3.524   3.742   0.254
    1   AR   Ar  146   4.279   2.677   1.615
    1   AR   Ar  147   5.885   1.972  -0.744
    1   AR   Ar  148   5.404   4.237  -2.365
    1   AR   Ar  149   3.795   2.149   0.676
    1   AR   Ar  150   2.879   1.606   2.888
    1   AR   Ar  151   3.605   2.304   3.449
    1   AR   Ar  152   2.612   3.349   0.320
    1   AR   Ar  153   2.991   1.014   4.084
    1   AR   Ar  154   4.001   1.939   4.267
    1   AR   Ar  155   5.735   0.921   5.643
    1   AR   Ar  156   3.588   3.943   3.369
    1   AR   Ar  157   2.822   2.757   5.934
    1   AR   Ar  158   1.275   2.660   7.063
    1   AR   Ar  159   3.865   0.808   5.882
    1   AR   Ar  160   3.753   2.547   7.559
    1   AR   Ar  161   5.420   2.079   0.480
    1   AR   Ar  162   4.163   5.653  -0.390
    1   AR   Ar  163   5.400   3.479  -0.218
    1   AR   Ar  164   4.027   5.020   1.497
    1   AR   Ar  165   3.142   3.238   1.720
    1   AR   Ar  166   2.515   5.156   3.703
    1   AR   Ar  167   4.573   2.143   2.616
    1   AR   Ar  168   4.210   3.164  -0.797
    1   AR   Ar  169   2.743   3.110   3.164
    1   AR   Ar  170   3.351   3.833   4.876
    1   AR   Ar  171   4.252   3.791   4.235
    1   AR   Ar  172   4.508   5.408   4.213
    1   AR   Ar  173   1.860   3.711   7.084
    1   AR   Ar  174   3.496   5.262   6.134
    1   AR   Ar  175   4.232   4.063   6.074
    1   AR   Ar  176   3.456   4.818   5.116
    1   AR   Ar  177   5.822   6.068  -0.209
    1   AR   Ar  178   2.960   6.420   1.359
    1   AR   Ar  179   3.814   5.879   0.720
    1   AR   Ar  180   3.444   3.539  -2.222
    1   AR   Ar  181   2.282   5.526   1.307
    1   AR   Ar  182   2.720   6.749   2.421
    1   AR   Ar  183   3.882   4.636   2.648
    1   AR   Ar  184   4.163   6.161   1.698
    1   AR   Ar  185   1.405   5.552   4.522
    1   AR   Ar  186   3.395   6.015   4.145
    1   AR   Ar  187   4.014   6.327   3.199
    1   AR   Ar  188   3.389   5.978   2.297
    1   AR   Ar  189   2.538   4.696   5.793
    1   AR   Ar  190   4.489   6.365   5.885
    1   AR   Ar  191   4.888   5.533   5.277
    1   AR   Ar  192   3.943   5.913   5.109
    1   AR   Ar  193   7.011   6.309  -0.262
    1   AR   Ar  194   5.624   5.115  -1.004
    1   AR   Ar  195   5.967   0.334  -0.459
    1   AR   Ar  196   5.387   0.987  -1.106
    1   AR   Ar  197   5.335   1.013   0.586
    1   AR   Ar  198   5.895   1.619   1.427
    1   AR   Ar  199   4.956   0.983   1.485
    1   AR   Ar  200   6.499   1.597   0.085
    1   AR   Ar  201   4.999   6.808   3.222
    1   AR   Ar  202   5.099   2.012   4.425
    1   AR   Ar  203   6.904   6.542   4.780
    1   AR   Ar  204   5.146   0.610   4.193
    1   AR   Ar  205   6.127   0.056   3.283
    1   AR   Ar  206   5.202   0.010   5.059
    1   AR   Ar  207   6.927   0.510   6.081
    1   AR   Ar  208   6.911   0.347   3.776
    1   AR   Ar  209   4.844   2.393  -2.064
    1   AR   Ar  210   3.770   1.080   0.838
    1   AR   Ar  211   6.306   3.217   0.373
    1   AR   Ar  212   6.553   3.769  -1.832
    1   AR   Ar  213   3.310   2.402   2.241
    1   AR   Ar  214   3.704   3.150   2.810
    1   AR   Ar  215   5.681   1.983   2.440
    1   AR   Ar  216   6.900   2.833   1.656
    1   AR   Ar  217   4.532   3.215   3.457
    1   AR   Ar  218   4.595   2.949   4.980
    1   AR   Ar  219   5.314   1.466   3.207
    1   AR   Ar  220   5.144   3.173   2.675
    1   AR   Ar  221   6.440   0.470   5.074
    1   AR   Ar  222   4.560   1.562   6.139
    1   AR   Ar  223   7.028   0.745   7.069
    1   AR   Ar  224   5.583   2.072   5.488
    1   AR   Ar  225   4.969   4.849   0.292
    1   AR   Ar  226   4.801   4.200   2.575
    1   AR   Ar  227   6.624   5.029   0.106
    1   AR   Ar  228   5.093   5.826   1.128
    1   AR   Ar  229   5.915   4.228   0.926
    1   AR   Ar  230   4.405   4.691   3.566
    1   AR   Ar  231   6.458   2.111   3.065
    1   AR   Ar  232   4.480   3.201   0.478
    1   AR   Ar  233   6.145   2.298   4.287
    1   AR   Ar  234   6.888   3.583   4.157
    1   AR   Ar  235   0.291   2.724   4.386
    1   AR   Ar  236   5.166   4.371   4.309
    1   AR   Ar  237   5.318   3.102   4.186
    1   AR   Ar  238   4.727   4.477   5.278
    1   AR   Ar  239   5.683   3.986   9.236
    1   AR   Ar  240   6.906   4.204   5.188
    1   AR   Ar  241   7.035   0.210  -0.778
    1   AR   Ar  242   4.975   4.510   1.641
    1   AR   Ar  243   5.848   4.113   2.035
    1   AR   Ar  244   0.535   5.226  -0.889
    1   AR   Ar  245   5.419   0.019   2.370
    1   AR   Ar  246   5.972   6.465   1.566
    1   AR   Ar  247   5.250   3.418   1.543
    1   AR   Ar  248   5.712   6.788   0.525
    1   AR   Ar  249   5.519   5.714   2.542
    1   AR   Ar  250   4.780   6.589   4.377
    1   AR   Ar  251   5.757   5.348   4.558
    1   AR   Ar  252   5.804   6.186   3.596
    1   AR   Ar  253   6.107   4.769   5.700
    1   AR   Ar  254   5.096   5.425   6.303
    1   AR   Ar  255   5.127   4.514   6.876
    1   AR   Ar  256   6.071   6.927   4.345
    7.12000  7.12000 12.00000
Argon-slab step 1835
  256
    1   AR   Ar    1   6.905   1.513  -0.892
    1   AR   Ar    2   6.000   0.580   1.246
    1   AR   Ar    3   6.830   6.891   0.797
    1   AR   Ar    4   1.244   7.032   0.422
    1   AR   Ar    5   6.640   5.842   0.966
    1   AR   Ar    6   0.101   0.393   2.714
    1   AR   Ar    7   0.405   4.913   2.901
    1   AR   Ar    8   6.893   6.998   1.871
    1   AR   Ar    9   1.076   0.547   4.228
    1   AR   Ar   10   0.939   1.569   4.023
    1   AR   Ar   11   3.185   7.009   4.800
    1   AR   Ar   12   1.176   1.221   2.748
    1   AR   Ar   13   7.001   1.414   4.598
    1   AR   Ar   14   0.337   1.630   6.486
    1   AR   Ar   15   0.116   0.089   9.192
    1   AR   Ar   16   0.804   1.420   5.409
    1   AR   Ar   17   0.486   1.400  -0.055
    1   AR   Ar   18   6.457   3.478  -0.690
    1   AR   Ar   19   1.269   1.745   1.884
    1   AR   Ar   20   6.528   2.527  -2.583
    1   AR   Ar   21   6.201   1.001   2.791
    1   AR   Ar   22   0.110   1.743   2.115
    1   AR   Ar   23   6.853   1.219   1.376
    1   AR   Ar   24   0.388   1.885   0.964
    1   AR   Ar   25   0.131   1.401   3.294
    1   AR   Ar   26   6.242   1.245   3.911
    1   AR   Ar   27   1.809   1.085   3.809
    1   AR   Ar   28   1.313   2.507   4.984
    1   AR   Ar   29   5.851   1.566   6.615
    1   AR   Ar   30   0.669   2.820   6.043
    1   AR   Ar   31   0.656   0.073   6.742
    1   AR   Ar   32   1.662   3.089   6.134
    1   AR   Ar   33   1.467   4.304  -1.092
    1   AR   Ar   34   0.282   5.793   1.941
    1   AR   Ar   35   0.247   4.025   0.899
    1   AR   Ar   36   0.224   6.837  -1.624
    1   AR   Ar   37   0.188   2.999   2.723
    1   AR   Ar   38   7.048   4.298   1.933
    1   AR   Ar   39   1.450   4.389   2.264
    1   AR   Ar   40   1.435   3.864   1.272
    1   AR   Ar   41   0.877   2.477   3.178
    1   AR   Ar   42   6.709   5.422   5.157
    1   AR   Ar   43   6.796   2.456   5.195
    1   AR   Ar   44   0.421   4.008   3.401
    1   AR   Ar   45   0.952   3.652   5.501
    1   AR   Ar   46   0.411   6.051   6.330
    1   AR   Ar   47   5.786   3.753   6.457
    1   AR   Ar   48   6.284   6.969   6.655
    1   AR   Ar   49   6.847   6.010  -2.051
    1   AR   Ar   50   6.099   5.015   1.704
    1   AR   Ar   51   1.504   4.921   1.312
    1   AR   Ar   52   6.970   4.342  -1.030
    1   AR   Ar   53   6.395   6.247   2.633
    1   AR   Ar   54   6.851   6.502   3.638
    1   AR   Ar   55   6.501   4.865   3.163
    1   AR   Ar   56   0.724   6.717   1.359
    1   AR   Ar   57   6.287   3.539   2.746
    1   AR   Ar   58   6.513   5.785   4.141
    1   AR   Ar   59   1.610   5.468   5.519
    1   AR   Ar   60   0.664   6.683   4.253
    1   AR   Ar   61   5.775   6.119   5.300
    1   AR   Ar   62   0.612   5.978   5.313
    1   AR   Ar   63   1.711   6.417   6.424
    1   AR   Ar   64   1.369   6.711   5.149
    1   AR   Ar   65   3.218   7.078   0.406
    1   AR   Ar   66   1.612   0.939   1.132
    1   AR   Ar   67   3.586   6.409  -0.879
    1   AR   Ar   68   3.191   1.281  -1.669
    1   AR   Ar   69   2.248   0.199   0.722
    1   AR   Ar   70   0.719   0.671   1.527
    1   AR   Ar   71   2.960   0.644   2.439
    1   AR   Ar   72   2.949   0.367   1.487
    1   AR   Ar   73   1.622   6.980   3.352
    1   AR   Ar   74   1.727   1.221   4.832
    1   AR   Ar   75   3.758   0.975   4.872
    1   AR   Ar   76   2.098   1.141   2.173
    1   AR   Ar   77   2.390   6.631   5.569
    1   AR   Ar   78   1.334   0.602   6.085
    1   AR   Ar   79   3.791   6.096   6.843
    1   AR   Ar   80   2.963   5.812   5.449
    1   AR   Ar   81   1.993   1.526  -0.175
    1   AR   Ar   82   0.294   3.216  -0.724
    1   AR   Ar   83   2.282   2.322   0.637
    1   AR   Ar   84   1.134   4.114  -2.264
    1   AR   Ar   85   0.626   2.485   0.113
    1   AR   Ar   86   1.858   3.332   2.188
    1   AR   Ar   87   2.140   2.263   1.671
    1   AR   Ar   88   4.153   3.911   1.868
    1   AR   Ar   89   0.822   3.191   1.762
    1   AR   Ar   90   3.006   1.945   4.534
    1   AR   Ar   91   2.005   2.242   4.147
    1   AR   Ar   92   1.914   2.267   2.807
    1   AR   Ar   93   2.306   2.007   5.318
    1   AR   Ar   94   1.860   1.179   8.001
    1   AR   Ar   95   3.284   7.043   5.903
    1   AR   Ar   96   2.228   0.691   5.457
    1   AR   Ar   97   3.667   2.329  -1.532
    1   AR   Ar   98   2.871   4.326   1.159
    1   AR   Ar   99   6.605   2.724  -1.448
    1   AR   Ar  100   1.789   3.678  -0.368
    1   AR   Ar  101   1.369   2.936   0.622
    1   AR   Ar  102   2.635   3.630   4.048
    1   AR   Ar  103   0.960   4.519   0.246
    1   AR   Ar  104   2.875   2.181  -0.486
    1   AR   Ar  105   1.605   3.275   3.258
    1   AR   Ar  106   2.543   3.039   4.918
    1   AR   Ar  107   2.083   4.032   4.810
    1   AR   Ar  108   3.573   2.993   4.216
    1   AR   Ar  109   1.528   4.244   3.727
    1   AR   Ar  110   1.137   4.594   5.799
    1   AR   Ar  111   4.297   5.156   6.954
    1   AR   Ar  112   0.347   4.660   6.731
    1   AR   Ar  113   2.351   4.538   0.232
    1   AR   Ar  114   2.756   6.183   0.326
    1   AR   Ar  115   3.095   4.376  -0.456
    1   AR   Ar  116   4.868   6.397   0.246
    1   AR   Ar  117   0.373   5.650   3.850
    1   AR   Ar  118   0.659   6.728   2.894
    1   AR   Ar  119   2.293   4.250   3.048
    1   AR   Ar  120   1.317   5.433   2.514
    1   AR   Ar  121   6.884   4.800   4.066
    1   AR   Ar  122   2.444   6.069   4.551
    1   AR   Ar  123   2.374   5.112   4.835
    1   AR   Ar  124   2.283   5.885   2.940
    1   AR   Ar  125   0.582   4.936   4.948
    1   AR   Ar  126   0.508   0.270   5.083
    1   AR   Ar  127   2.998   5.521   7.150
    1   AR   Ar  128   2.134   5.419   6.566
    1   AR   Ar  129   1.556   0.171   1.959
    1   AR   Ar  130   3.571   1.174  -3.061
    1   AR   Ar  131   4.927   7.095   0.978
    1   AR   Ar  132   0.614   2.319  -1.249
    1   AR   Ar  133   3.958   0.164   2.925
    1   AR   Ar  134   3.848   1.399   2.735
    1   AR   Ar  135   4.850   0.711   2.773
    1   AR   Ar  136   4.125   0.092   1.893
    1   AR   Ar  137   2.941   0.004   3.576
    1   AR   Ar  138   4.723   0.998   5.255
    1   AR   Ar  139   5.701   1.365   4.734
    1   AR   Ar  140   4.344   0.782   3.606
    1   AR   Ar  141   3.880   0.041   4.059
    1   AR   Ar  142   4.197   0.001   5.299
    1   AR   Ar  143   5.337   0.003   6.043
    1   AR   Ar  144   4.833   0.636   6.665
    1   AR   Ar  145   3.547   3.739   0.255
    1   AR   Ar  146   4.291   2.686   1.618
    1   AR   Ar  147   5.899   1.966  -0.738
    1   AR   Ar  148   5.384   4.250  -2.380
    1   AR   Ar  149   3.785   2.162   0.683
    1   AR   Ar  150   2.866   1.627   2.898
    1   AR   Ar  151   3.609   2.340   3.450
    1   AR   Ar  152   2.616   3.335   0.315
    1   AR   Ar  153   2.997   1.018   4.099
    1   AR   Ar  154   4.040   1.900   4.276
    1   AR   Ar  155   5.702   0.937   5.631
    1   AR   Ar  156   3.598   3.965   3.353
    1   AR   Ar  157   2.845   2.768   5.919
    1   AR   Ar  158   1.235   2.663   7.068
    1   AR   Ar  159   3.848   0.823   5.898
    1   AR   Ar  160   3.744   2.556   7.549
    1   AR   Ar  161   5.449   2.077   0.486
    1   AR   Ar  162   4.170   5.671  -0.389
    1   AR   Ar  163   5.400   3.442  -0.176
    1   AR   Ar  164   4.039   5.014   1.469
    1   AR   Ar  165   3.161   3.238   1.704
    1   AR   Ar  166   2.507   5.169   3.681
    1   AR   Ar  167   4.571   2.145   2.625
    1   AR   Ar  168   4.219   3.141  -0.760
    1   AR   Ar  169   2.702   3.095   3.147
    1   AR   Ar  170   3.361   3.820   4.888
    1   AR   Ar  171   4.276   3.799   4.231
    1   AR   Ar  172   4.492   5.470   4.197
    1   AR   Ar  173   1.856   3.739   7.078
    1   AR   Ar  174   3.483   5.295   6.093
    1   AR   Ar  175   4.250   4.073   6.111
    1   AR   Ar  176   3.476   4.829   5.103
    1   AR   Ar  177   5.832   6.102  -0.206
    1   AR   Ar  178   2.974   6.412   1.334
    1   AR   Ar  179   3.802   5.899   0.726
    1   AR   Ar  180   3.467   3.542  -2.250
    1   AR   Ar  181   2.280   5.523   1.291
    1   AR   Ar  182   2.723   6.743   2.418
    1   AR   Ar  183   3.850   4.650   2.622
    1   AR   Ar  184   4.136   6.185   1.707
    1   AR   Ar  185   1.393   5.529   4.533
    1   AR   Ar  186   3.411   5.993   4.151
    1   AR   Ar  187   4.024   6.344   3.215
    1   AR   Ar  188   3.380   5.997   2.280
    1   AR   Ar  189   2.528   4.710   5.797
    1   AR   Ar  190   4.479   6.358   5.903
    1   AR   Ar  191   4.886   5.571   5.284
    1   AR   Ar  192   3.942   5.908   5.109
    1   AR   Ar  193   7.027   6.298  -0.247
    1   AR   Ar  194   5.622   5.081  -0.984
    1   AR   Ar  195   5.973   0.328  -0.441
    1   AR   Ar  196   5.357   0.981  -1.095
    1   AR   Ar  197   5.330   1.015   0.548
    1   AR   Ar  198   5.889   1.601   1.410
    1   AR   Ar  199   4.984   0.948   1.498
    1   AR   Ar  200   6.508   1.596   0.073
    1   AR   Ar  201   4.972   6.813   3.248
    1   AR   Ar  202   5.109   2.013   4.404
    1   AR   Ar  203   6.886   6.552   4.819
    1   AR   Ar  204   5.159   0.629   4.195
    1   AR   Ar  205   6.101   0.072   3.250
    1   AR   Ar  206   5.188   0.004   5.072
    1   AR   Ar  207   6.941   0.509   6.128
    1   AR   Ar  208   6.913   0.379   3.799
    1   AR   Ar  209   4.830   2.383  -2.081
    1   AR   Ar  210   3.774   1.056   0.860
    1   AR   Ar  211   6.319   3.231   0.395
    1   AR   Ar  212   6.580   3.774  -1.841
    1   AR   Ar  213   3.312   2.407   2.220
    1   AR   Ar  214   3.690   3.132   2.807
    1   AR   Ar  215   5.671   1.985   2.428
    1   AR   Ar  216   6.909   2.850   1.631
    1   AR   Ar  217   4.572   3.179   3.418
    1   AR   Ar  218   4.599   2.940   4.957
    1   AR   Ar  219   5.295   1.473   3.219
    1   AR   Ar  220   5.133   3.160   2.652
    1   AR   Ar  221   6.460   0.472   5.096
    1   AR   Ar  222   4.560   1.570   6.145
    1   AR   Ar  223   7.043   0.725   7.085
    1   AR   Ar  224   5.574   2.072   5.518
    1   AR   Ar  225   4.966   4.879   0.304
    1   AR   Ar  226   4.808   4.219   2.573
    1   AR   Ar  227   6.643   5.045   0.123
    1   AR   Ar  228   5.107   5.829   1.143
    1   AR   Ar  229   5.883   4.194   0.969
    1   AR   Ar  230   4.394   4.691   3.528
    1   AR   Ar  231   6.442   2.122   3.048
    1   AR   Ar  232   4.491   3.210   0.494
    1   AR   Ar  233   6.171   2.288   4.286
    1   AR   Ar  234   6.898   3.568   4.160
    1   AR   Ar  235   0.299   2.719   4.393
    1   AR   Ar  236   5.154   4.373   4.316
    1   AR   Ar  237   5.374   3.123   4.195
    1   AR   Ar  238   4.759   4.488   5.296
    1   AR   Ar  239   5.667   3.940   9.264
    1   AR   Ar  240   6.903   4.209   5.210
    1   AR   Ar  241   7.067   0.211  -0.792
    1   AR   Ar  242   4.979   4.504   1.654
    1   AR   Ar  243   5.863   4.068   2.047
    1   AR   Ar  244   0.553   5.199  -0.917
    1   AR   Ar  245   5.447   0.010   2.342
    1   AR   Ar  246   5.978   6.469   1.537
    1   AR   Ar  247   5.222   3.431   1.552
    1   AR   Ar  248   5.703   6.822   0.533
    1   AR   Ar  249   5.511   5.734   2.518
    1   AR   Ar  250   4.777   6.579   4.358
    1   AR   Ar  251   5.745   5.348   4.565
    1   AR   Ar  252   5.786   6.173   3.585
    1   AR   Ar  253   6.115   4.759   5.686
    1   AR   Ar  254   5.116   5.417   6.338
    1   AR   Ar  255   5.136   4.513   6.903
    1   AR   Ar  256   6.052   6.913   4.360
    7.12000  7.12000 12.00000
Argon-slab step 1840
  256
    1   AR   Ar    1   6.926   1.535  -0.879
    1   AR   Ar    2   6.018   0.592   1.229
    1   AR   Ar    3   6.834   6.894   0.784
    1   AR   Ar    4   1.266   7.036   0.444
    1   AR   Ar    5   6.637   5.846   0.993
    1   AR   Ar    6   0.079   0.419   2.693
    1   AR   Ar    7   0.401   4.926   2.891
    1   AR   Ar    8   6.888   6.983   1.909
    1   AR   Ar    9   1.056   0.528   4.236
    1   AR   Ar   10   1.001   1.577   4.048
    1   AR   Ar   11   3.193   7.002   4.833
    1   AR   Ar   12   1.202   1.196   2.774
    1   AR   Ar   13   7.000   1.403   4.593
    1   AR   Ar   14   0.353   1.633   6.511
    1   AR   Ar   15   0.087   0.100   9.165
    1   AR   Ar   16   0.840   1.413   5.417
    1   AR   Ar   17   0.485   1.407  -0.068
    1   AR   Ar   18   6.468   3.460  -0.680
    1   AR   Ar   19   1.254   1.746   1.893
    1   AR   Ar   20   6.526   2.570  -2.577
    1   AR   Ar   21   6.236   1.035   2.810
    1   AR   Ar   22   0.094   1.741   2.125
    1   AR   Ar   23   6.856   1.201   1.374
    1   AR   Ar   24   0.394   1.893   1.013
    1   AR   Ar   25   0.136   1.394   3.306
    1   AR   Ar   26   6.232   1.229   3.917
    1   AR   Ar   27   1.823   1.098   3.806
    1   AR   Ar   28   1.310   2.496   5.008
    1   AR   Ar   29   5.832   1.574   6.621
    1   AR   Ar   30   0.690   2.804   6.039
    1   AR   Ar   31   0.635   0.081   6.736
    1   AR   Ar   32   1.673   3.088   6.137
    1   AR   Ar   33   1.474   4.315  -1.077
    1   AR   Ar   34   0.274   5.772   1.901
    1   AR   Ar   35   0.225   4.029   0.954
    1   AR   Ar   36   0.249   6.840  -1.618
    1   AR   Ar   37   0.171   2.972   2.717
    1   AR   Ar   38   7.051   4.294   1.952
    1   AR   Ar   39   1.448   4.386   2.292
    1   AR   Ar   40   1.417   3.874   1.304
    1   AR   Ar   41   0.851   2.479   3.200
    1   AR   Ar   42   6.699   5.397   5.149
    1   AR   Ar   43   6.765   2.444   5.167
    1   AR   Ar   44   0.389   4.042   3.412
    1   AR   Ar   45   0.970   3.641   5.487
    1   AR   Ar   46   0.397   6.031   6.338
    1   AR   Ar   47   5.801   3.742   6.469
    1   AR   Ar   48   6.267   7.003   6.632
    1   AR   Ar   49   6.826   6.042  -2.052
    1   AR   Ar   50   6.048   5.036   1.694
    1   AR   Ar   51   1.478   4.956   1.314
    1   AR   Ar   52   6.935   4.333  -1.014
    1   AR   Ar   53   6.396   6.254   2.632
    1   AR   Ar   54   6.842   6.476   3.617
    1   AR   Ar   55   6.500   4.855   3.187
    1   AR   Ar   56   0.716   6.733   1.383
    1   AR   Ar   57   6.307   3.556   2.765
    1   AR   Ar   58   6.522   5.783   4.129
    1   AR   Ar   59   1.576   5.488   5.520
    1   AR   Ar   60   0.652   6.686   4.255
    1   AR   Ar   61   5.786   6.131   5.302
    1   AR   Ar   62   0.595   5.983   5.338
    1   AR   Ar   63   1.715   6.406   6.373
    1   AR   Ar   64   1.340   6.739   5.154
    1   AR   Ar   65   3.245   7.043   0.459
    1   AR   Ar   66   1.589   0.939   1.133
    1   AR   Ar   67   3.562   6.428  -0.851
    1   AR   Ar   68   3.181   1.286  -1.689
    1   AR   Ar   69   2.282   0.198   0.730
    1   AR   Ar   70   0.768   0.665   1.547
    1   AR   Ar   71   2.974   0.655   2.461
    1   AR   Ar   72   2.925   0.391   1.512
    1   AR   Ar   73   1.643   6.987   3.375
    1   AR   Ar   74   1.742   1.235   4.849
    1   AR   Ar   75   3.757   0.970   4.900
    1   AR   Ar   76   2.114   1.135   2.212
    1   AR   Ar   77   2.393   6.602   5.582
    1   AR   Ar   78   1.326   0.612   6.080
    1   AR   Ar   79   3.781   6.082   6.834
    1   AR   Ar   80   2.950   5.797   5.443
    1   AR   Ar   81   1.977   1.521  -0.168
    1   AR   Ar   82   0.282   3.217  -0.721
    1   AR   Ar   83   2.273   2.311   0.660
    1   AR   Ar   84   1.097   4.088  -2.255
    1   AR   Ar   85   0.609   2.491   0.149
    1   AR   Ar   86   1.842   3.319   2.193
    1   AR   Ar   87   2.150   2.276   1.655
    1   AR   Ar   88   4.122   3.930   1.880
    1   AR   Ar   89   0.808   3.187   1.804
    1   AR   Ar   90   3.005   1.920   4.515
    1   AR   Ar   91   2.017   2.242   4.155
    1   AR   Ar   92   1.921   2.278   2.785
    1   AR   Ar   93   2.294   1.971   5.290
    1   AR   Ar   94   1.821   1.202   8.014
    1   AR   Ar   95   3.312   7.026   5.912
    1   AR   Ar   96   2.247   0.688   5.442
    1   AR   Ar   97   3.672   2.314  -1.532
    1   AR   Ar   98   2.863   4.297   1.181
    1   AR   Ar   99   6.614   2.731  -1.454
    1   AR   Ar  100   1.788   3.672  -0.398
    1   AR   Ar  101   1.387   2.970   0.612
    1   AR   Ar  102   2.606   3.623   4.040
    1   AR   Ar  103   0.959   4.547   0.235
    1   AR   Ar  104   2.895   2.198  -0.479
    1   AR   Ar  105   1.590   3.272   3.269
    1   AR   Ar  106   2.551   3.043   4.948
    1   AR   Ar  107   2.069   4.031   4.813
    1   AR   Ar  108   3.592   3.004   4.238
    1   AR   Ar  109   1.517   4.251   3.730
    1   AR   Ar  110   1.132   4.584   5.847
    1   AR   Ar  111   4.289   5.156   6.951
    1   AR   Ar  112   0.362   4.633   6.746
    1   AR   Ar  113   2.376   4.552   0.222
    1   AR   Ar  114   2.752   6.165   0.356
    1   AR   Ar  115   3.084   4.355  -0.438
    1   AR   Ar  116   4.856   6.391   0.241
    1   AR   Ar  117   0.401   5.633   3.851
    1   AR   Ar  118   0.670   6.722   2.894
    1   AR   Ar  119   2.337   4.258   3.060
    1   AR   Ar  120   1.283   5.432   2.552
    1   AR   Ar  121   6.874   4.777   4.058
    1   AR   Ar  122   2.443   6.088   4.538
    1   AR   Ar  123   2.373   5.154   4.821
    1   AR   Ar  124   2.301   5.883   2.943
    1   AR   Ar  125   0.575   4.922   4.968
    1   AR   Ar  126   0.499   0.280   5.066
    1   AR   Ar  127   2.970   5.517   7.202
    1   AR   Ar  128   2.124   5.416   6.557
    1   AR   Ar  129   1.536   0.172   1.972
    1   AR   Ar  130   3.567   1.161  -3.074
    1   AR   Ar  131   4.892   7.103   0.997
    1   AR   Ar  132   0.627   2.312  -1.220
    1   AR   Ar  133   3.953   0.185   2.902
    1   AR   Ar  134   3.814   1.401   2.758
    1   AR   Ar  135   4.875   0.679   2.750
    1   AR   Ar  136   4.144   0.116   1.908
    1   AR   Ar  137   2.963   7.111   3.588
    1   AR   Ar  138   4.690   1.002   5.249
    1   AR   Ar  139   5.694   1.365   4.739
    1   AR   Ar  140   4.335   0.805   3.591
    1   AR   Ar  141   3.907   0.023   4.031
    1   AR   Ar  142   4.152   0.019   5.281
    1   AR   Ar  143   5.337   0.018   6.035
    1   AR   Ar  144   4.817   0.623   6.664
    1   AR   Ar  145   3.576   3.737   0.258
    1   AR   Ar  146   4.292   2.697   1.621
    1   AR   Ar  147   5.921   1.958  -0.740
    1   AR   Ar  148   5.364   4.263  -2.395
    1   AR   Ar  149   3.774   2.176   0.691
    1   AR   Ar  150   2.846   1.652   2.911
    1   AR   Ar  151   3.610   2.368   3.443
    1   AR   Ar  152   2.613   3.320   0.311
    1   AR   Ar  153   3.002   1.017   4.109
    1   AR   Ar  154   4.057   1.894   4.287
    1   AR   Ar  155   5.657   0.958   5.631
    1   AR   Ar  156   3.603   3.988   3.345
    1   AR   Ar  157   2.867   2.779   5.905
    1   AR   Ar  158   1.195   2.666   7.071
    1   AR   Ar  159   3.803   0.799   5.906
    1   AR   Ar  160   3.736   2.566   7.539
    1   AR   Ar  161   5.479   2.077   0.491
    1   AR   Ar  162   4.180   5.687  -0.385
    1   AR   Ar  163   5.399   3.404  -0.134
    1   AR   Ar  164   4.050   5.009   1.442
    1   AR   Ar  165   3.179   3.247   1.682
    1   AR   Ar  166   2.500   5.181   3.664
    1   AR   Ar  167   4.570   2.154   2.642
    1   AR   Ar  168   4.229   3.117  -0.722
    1   AR   Ar  169   2.659   3.077   3.128
    1   AR   Ar  170   3.370   3.805   4.899
    1   AR   Ar  171   4.298   3.809   4.229
    1   AR   Ar  172   4.477   5.536   4.186
    1   AR   Ar  173   1.851   3.767   7.072
    1   AR   Ar  174   3.479   5.321   6.063
    1   AR   Ar  175   4.267   4.082   6.150
    1   AR   Ar  176   3.497   4.845   5.090
    1   AR   Ar  177   5.843   6.133  -0.205
    1   AR   Ar  178   2.990   6.404   1.313
    1   AR   Ar  179   3.789   5.918   0.730
    1   AR   Ar  180   3.490   3.544  -2.277
    1   AR   Ar  181   2.289   5.526   1.274
    1   AR   Ar  182   2.721   6.742   2.416
    1   AR   Ar  183   3.815   4.669   2.591
    1   AR   Ar  184   4.121   6.216   1.704
    1   AR   Ar  185   1.379   5.509   4.537
    1   AR   Ar  186   3.431   5.972   4.156
    1   AR   Ar  187   4.022   6.350   3.249
    1   AR   Ar  188   3.364   6.006   2.272
    1   AR   Ar  189   2.519   4.724   5.802
    1   AR   Ar  190   4.471   6.348   5.928
    1   AR   Ar  191   4.891   5.599   5.289
    1   AR   Ar  192   3.938   5.905   5.105
    1   AR   Ar  193   7.041   6.287  -0.230
    1   AR   Ar  194   5.619   5.047  -0.963
    1   AR   Ar  195   5.980   0.322  -0.421
    1   AR   Ar  196   5.325   0.978  -1.086
    1   AR   Ar  197   5.326   1.015   0.500
    1   AR   Ar  198   5.879   1.589   1.392
    1   AR   Ar  199   5.009   0.913   1.519
    1   AR   Ar  200   6.516   1.594   0.067
    1   AR   Ar  201   4.946   6.822   3.276
    1   AR   Ar  202   5.103   2.033   4.374
    1   AR   Ar  203   6.872   6.561   4.862
    1   AR   Ar  204   5.176   0.644   4.197
    1   AR   Ar  205   6.068   0.083   3.215
    1   AR   Ar  206   5.185   0.003   5.082
    1   AR   Ar  207   6.950   0.513   6.173
    1   AR   Ar  208   6.922   0.421   3.829
    1   AR   Ar  209   4.813   2.368  -2.105
    1   AR   Ar  210   3.779   1.026   0.888
    1   AR   Ar  211   6.332   3.245   0.418
    1   AR   Ar  212   6.606   3.778  -1.851
    1   AR   Ar  213   3.318   2.413   2.238
    1   AR   Ar  214   3.684   3.118   2.796
    1   AR   Ar  215   5.655   1.989   2.405
    1   AR   Ar  216   6.902   2.889   1.635
    1   AR   Ar  217   4.567   3.173   3.413
    1   AR   Ar  218   4.602   2.931   4.932
    1   AR   Ar  219   5.279   1.486   3.245
    1   AR   Ar  220   5.134   3.146   2.610
    1   AR   Ar  221   6.483   0.474   5.115
    1   AR   Ar  222   4.560   1.568   6.148
    1   AR   Ar  223   7.056   0.711   7.113
    1   AR   Ar  224   5.564   2.073   5.549
    1   AR   Ar  225   4.964   4.911   0.318
    1   AR   Ar  226   4.820   4.234   2.589
    1   AR   Ar  227   6.662   5.062   0.139
    1   AR   Ar  228   5.120   5.832   1.158
    1   AR   Ar  229   5.851   4.160   1.012
    1   AR   Ar  230   4.385   4.686   3.489
    1   AR   Ar  231   6.460   2.125   3.063
    1   AR   Ar  232   4.502   3.219   0.512
    1   AR   Ar  233   6.197   2.278   4.284
    1   AR   Ar  234   6.905   3.559   4.164
    1   AR   Ar  235   0.313   2.708   4.397
    1   AR   Ar  236   5.146   4.376   4.321
    1   AR   Ar  237   5.431   3.145   4.205
    1   AR   Ar  238   4.791   4.501   5.312
    1   AR   Ar  239   5.652   3.893   9.293
    1   AR   Ar  240   6.902   4.214   5.230
    1   AR   Ar  241   7.096   0.216  -0.797
    1   AR   Ar  242   4.990   4.501   1.653
    1   AR   Ar  243   5.875   4.030   2.056
    1   AR   Ar  244   0.570   5.171  -0.944
    1   AR   Ar  245   5.481   7.116   2.306
    1   AR   Ar  246   5.985   6.457   1.522
    1   AR   Ar  247   5.189   3.442   1.558
    1   AR   Ar  248   5.729   6.857   0.534
    1   AR   Ar  249   5.512   5.747   2.504
    1   AR   Ar  250   4.769   6.561   4.332
    1   AR   Ar  251   5.720   5.341   4.575
    1   AR   Ar  252   5.761   6.163   3.569
    1   AR   Ar  253   6.117   4.748   5.674
    1   AR   Ar  254   5.138   5.411   6.369
    1   AR   Ar  255   5.134   4.507   6.916
    1   AR   Ar  256   6.026   6.900   4.372
    7.12000  7.12000 12.00000
Argon-slab step 1845
  256
    1   AR   Ar    1   6.949   1.558  -0.872
    1   AR   Ar    2   6.036   0.593   1.212
    1   AR   Ar    3   6.836   6.897   0.771
    1   AR   Ar    4   1.259   7.029   0.431
    1   AR   Ar    5   6.638   5.843   1.017
    1   AR   Ar    6   0.056   0.455   2.677
    1   AR   Ar    7   0.398   4.943   2.878
    1   AR   Ar    8   6.881   6.964   1.941
    1   AR   Ar    9   1.037   0.509   4.243
    1   AR   Ar   10   1.052   1.595   4.075
    1   AR   Ar   11   3.196   6.994   4.865
    1   AR   Ar   12   1.225   1.168   2.805
    1   AR   Ar   13   7.001   1.394   4.591
    1   AR   Ar   14   0.369   1.634   6.534
    1   AR   Ar   15   0.059   0.110   9.137
    1   AR   Ar   16   0.875   1.406   5.423
    1   AR   Ar   17   0.485   1.413  -0.080
    1   AR   Ar   18   6.466   3.443  -0.667
    1   AR   Ar   19   1.236   1.749   1.899
    1   AR   Ar   20   6.524   2.613  -2.571
    1   AR   Ar   21   6.271   1.072   2.826
    1   AR   Ar   22   0.082   1.744   2.145
    1   AR   Ar   23   6.857   1.173   1.367
    1   AR   Ar   24   0.403   1.903   1.063
    1   AR   Ar   25   0.154   1.398   3.301
    1   AR   Ar   26   6.222   1.212   3.909
    1   AR   Ar   27   1.851   1.106   3.793
    1   AR   Ar   28   1.306   2.484   5.032
    1   AR   Ar   29   5.815   1.581   6.617
    1   AR   Ar   30   0.705   2.783   6.036
    1   AR   Ar   31   0.619   0.082   6.729
    1   AR   Ar   32   1.689   3.081   6.142
    1   AR   Ar   33   1.477   4.334  -1.070
    1   AR   Ar   34   0.265   5.751   1.863
    1   AR   Ar   35   0.205   4.032   1.007
    1   AR   Ar   36   0.280   6.819  -1.611
    1   AR   Ar   37   0.141   2.954   2.703
    1   AR   Ar   38   7.052   4.290   1.975
    1   AR   Ar   39   1.445   4.382   2.322
    1   AR   Ar   40   1.401   3.886   1.333
    1   AR   Ar   41   0.835   2.469   3.230
    1   AR   Ar   42   6.692   5.377   5.137
    1   AR   Ar   43   6.767   2.452   5.156
    1   AR   Ar   44   0.357   4.072   3.424
    1   AR   Ar   45   0.989   3.628   5.467
    1   AR   Ar   46   0.383   6.011   6.351
    1   AR   Ar   47   5.816   3.732   6.479
    1   AR   Ar   48   6.256   7.005   6.622
    1   AR   Ar   49   6.804   6.071  -2.054
    1   AR   Ar   50   5.996   5.060   1.683
    1   AR   Ar   51   1.424   4.972   1.321
    1   AR   Ar   52   6.903   4.328  -0.996
    1   AR   Ar   53   6.385   6.283   2.653
    1   AR   Ar   54   6.847   6.477   3.577
    1   AR   Ar   55   6.488   4.847   3.191
    1   AR   Ar   56   0.707   6.746   1.408
    1   AR   Ar   57   6.338   3.562   2.799
    1   AR   Ar   58   6.524   5.757   4.139
    1   AR   Ar   59   1.547   5.511   5.528
    1   AR   Ar   60   0.638   6.684   4.256
    1   AR   Ar   61   5.802   6.148   5.305
    1   AR   Ar   62   0.583   5.994   5.340
    1   AR   Ar   63   1.725   6.395   6.331
    1   AR   Ar   64   1.314   6.766   5.158
    1   AR   Ar   65   3.246   7.013   0.469
    1   AR   Ar   66   1.587   0.947   1.121
    1   AR   Ar   67   3.544   6.439  -0.831
    1   AR   Ar   68   3.171   1.291  -1.709
    1   AR   Ar   69   2.310   0.195   0.735
    1   AR   Ar   70   0.792   0.663   1.574
    1   AR   Ar   71   2.997   0.668   2.497
    1   AR   Ar   72   2.904   0.414   1.529
    1   AR   Ar   73   1.666   6.994   3.398
    1   AR   Ar   74   1.752   1.269   4.836
    1   AR   Ar   75   3.746   0.965   4.917
    1   AR   Ar   76   2.127   1.133   2.247
    1   AR   Ar   77   2.389   6.582   5.592
    1   AR   Ar   78   1.318   0.621   6.073
    1   AR   Ar   79   3.772   6.072   6.822
    1   AR   Ar   80   2.929   5.786   5.423
    1   AR   Ar   81   1.971   1.534  -0.157
    1   AR   Ar   82   0.286   3.216  -0.719
    1   AR   Ar   83   2.265   2.299   0.674
    1   AR   Ar   84   1.059   4.062  -2.245
    1   AR   Ar   85   0.588   2.495   0.180
    1   AR   Ar   86   1.828   3.304   2.199
    1   AR   Ar   87   2.160   2.290   1.650
    1   AR   Ar   88   4.086   3.942   1.888
    1   AR   Ar   89   0.794   3.182   1.847
    1   AR   Ar   90   3.006   1.907   4.499
    1   AR   Ar   91   2.027   2.241   4.162
    1   AR   Ar   92   1.911   2.286   2.748
    1   AR   Ar   93   2.283   1.940   5.266
    1   AR   Ar   94   1.782   1.226   8.027
    1   AR   Ar   95   3.329   7.005   5.916
    1   AR   Ar   96   2.261   0.691   5.476
    1   AR   Ar   97   3.693   2.306  -1.502
    1   AR   Ar   98   2.856   4.267   1.204
    1   AR   Ar   99   6.625   2.735  -1.460
    1   AR   Ar  100   1.789   3.658  -0.418
    1   AR   Ar  101   1.410   3.007   0.605
    1   AR   Ar  102   2.580   3.616   4.027
    1   AR   Ar  103   0.959   4.573   0.224
    1   AR   Ar  104   2.915   2.215  -0.471
    1   AR   Ar  105   1.576   3.270   3.281
    1   AR   Ar  106   2.542   3.028   4.957
    1   AR   Ar  107   2.052   4.034   4.821
    1   AR   Ar  108   3.608   3.015   4.262
    1   AR   Ar  109   1.504   4.260   3.735
    1   AR   Ar  110   1.127   4.577   5.898
    1   AR   Ar  111   4.278   5.155   6.948
    1   AR   Ar  112   0.378   4.607   6.759
    1   AR   Ar  113   2.391   4.567   0.219
    1   AR   Ar  114   2.743   6.140   0.380
    1   AR   Ar  115   3.079   4.332  -0.430
    1   AR   Ar  116   4.838   6.378   0.231
    1   AR   Ar  117   0.433   5.615   3.851
    1   AR   Ar  118   0.681   6.710   2.896
    1   AR   Ar  119   2.384   4.264   3.070
    1   AR   Ar  120   1.259   5.433   2.588
    1   AR   Ar  121   6.874   4.749   4.072
    1   AR   Ar  122   2.439   6.122   4.521
    1   AR   Ar  123   2.372   5.181   4.808
    1   AR   Ar  124   2.319   5.884   2.943
    1   AR   Ar  125   0.568   4.908   4.988
    1   AR   Ar  126   0.487   0.289   5.055
    1   AR   Ar  127   2.943   5.512   7.254
    1   AR   Ar  128   2.113   5.413   6.545
    1   AR   Ar  129   1.523   0.169   1.988
    1   AR   Ar  130   3.563   1.148  -3.087
    1   AR   Ar  131   4.902   7.078   1.026
    1   AR   Ar  132   0.639   2.305  -1.190
    1   AR   Ar  133   3.939   0.206   2.878
    1   AR   Ar  134   3.786   1.399   2.781
    1   AR   Ar  135   4.900   0.649   2.719
    1   AR   Ar  136   4.164   0.146   1.917
    1   AR   Ar  137   2.981   7.097   3.598
    1   AR   Ar  138   4.665   1.006   5.242
    1   AR   Ar  139   5.719   1.360   4.739
    1   AR   Ar  140   4.326   0.843   3.582
    1   AR   Ar  141   3.934   7.119   4.009
    1   AR   Ar  142   4.134   0.029   5.269
    1   AR   Ar  143   5.341   0.028   6.037
    1   AR   Ar  144   4.797   0.615   6.665
    1   AR   Ar  145   3.610   3.735   0.264
    1   AR   Ar  146   4.254   2.712   1.621
    1   AR   Ar  147   5.942   1.951  -0.743
    1   AR   Ar  148   5.345   4.275  -2.409
    1   AR   Ar  149   3.762   2.188   0.699
    1   AR   Ar  150   2.818   1.679   2.927
    1   AR   Ar  151   3.609   2.384   3.434
    1   AR   Ar  152   2.606   3.305   0.307
    1   AR   Ar  153   3.006   1.005   4.114
    1   AR   Ar  154   4.074   1.887   4.300
    1   AR   Ar  155   5.615   0.974   5.645
    1   AR   Ar  156   3.604   4.010   3.345
    1   AR   Ar  157   2.890   2.790   5.894
    1   AR   Ar  158   1.155   2.670   7.074
    1   AR   Ar  159   3.755   0.772   5.918
    1   AR   Ar  160   3.731   2.564   7.526
    1   AR   Ar  161   5.511   2.080   0.495
    1   AR   Ar  162   4.192   5.701  -0.378
    1   AR   Ar  163   5.398   3.367  -0.093
    1   AR   Ar  164   4.060   5.005   1.416
    1   AR   Ar  165   3.196   3.264   1.656
    1   AR   Ar  166   2.493   5.190   3.652
    1   AR   Ar  167   4.568   2.166   2.660
    1   AR   Ar  168   4.237   3.093  -0.682
    1   AR   Ar  169   2.617   3.057   3.107
    1   AR   Ar  170   3.378   3.789   4.911
    1   AR   Ar  171   4.318   3.793   4.238
    1   AR   Ar  172   4.460   5.526   4.164
    1   AR   Ar  173   1.845   3.793   7.063
    1   AR   Ar  174   3.489   5.335   6.051
    1   AR   Ar  175   4.265   4.061   6.166
    1   AR   Ar  176   3.518   4.864   5.076
    1   AR   Ar  177   5.857   6.160  -0.207
    1   AR   Ar  178   3.007   6.399   1.300
    1   AR   Ar  179   3.778   5.937   0.732
    1   AR   Ar  180   3.514   3.546  -2.304
    1   AR   Ar  181   2.302   5.528   1.270
    1   AR   Ar  182   2.711   6.750   2.414
    1   AR   Ar  183   3.779   4.693   2.554
    1   AR   Ar  184   4.119   6.247   1.691
    1   AR   Ar  185   1.364   5.491   4.531
    1   AR   Ar  186   3.451   5.952   4.159
    1   AR   Ar  187   4.020   6.336   3.272
    1   AR   Ar  188   3.343   6.003   2.274
    1   AR   Ar  189   2.510   4.738   5.806
    1   AR   Ar  190   4.465   6.338   5.957
    1   AR   Ar  191   4.910   5.597   5.295
    1   AR   Ar  192   3.930   5.906   5.099
    1   AR   Ar  193   7.053   6.276  -0.213
    1   AR   Ar  194   5.618   5.013  -0.940
    1   AR   Ar  195   5.988   0.316  -0.399
    1   AR   Ar  196   5.290   0.978  -1.081
    1   AR   Ar  197   5.323   1.012   0.450
    1   AR   Ar  198   5.866   1.584   1.376
    1   AR   Ar  199   5.032   0.878   1.546
    1   AR   Ar  200   6.522   1.592   0.070
    1   AR   Ar  201   4.924   6.834   3.305
    1   AR   Ar  202   5.088   2.065   4.337
    1   AR   Ar  203   6.860   6.567   4.908
    1   AR   Ar  204   5.195   0.656   4.199
    1   AR   Ar  205   6.034   0.092   3.182
    1   AR   Ar  206   5.186   0.005   5.079
    1   AR   Ar  207   6.958   0.519   6.198
    1   AR   Ar  208   6.934   0.463   3.860
    1   AR   Ar  209   4.794   2.353  -2.129
    1   AR   Ar  210   3.784   0.995   0.918
    1   AR   Ar  211   6.337   3.264   0.416
    1   AR   Ar  212   6.632   3.779  -1.862
    1   AR   Ar  213   3.319   2.401   2.252
    1   AR   Ar  214   3.687   3.119   2.782
    1   AR   Ar  215   5.672   2.009   2.376
    1   AR   Ar  216   6.893   2.928   1.638
    1   AR   Ar  217   4.545   3.173   3.423
    1   AR   Ar  218   4.609   2.928   4.917
    1   AR   Ar  219   5.264   1.500   3.279
    1   AR   Ar  220   5.144   3.131   2.557
    1   AR   Ar  221   6.507   0.476   5.133
    1   AR   Ar  222   4.557   1.550   6.145
    1   AR   Ar  223   7.065   0.704   7.158
    1   AR   Ar  224   5.554   2.073   5.579
    1   AR   Ar  225   4.962   4.944   0.333
    1   AR   Ar  226   4.835   4.245   2.618
    1   AR   Ar  227   6.681   5.079   0.155
    1   AR   Ar  228   5.133   5.834   1.174
    1   AR   Ar  229   5.819   4.126   1.049
    1   AR   Ar  230   4.380   4.682   3.454
    1   AR   Ar  231   6.499   2.124   3.097
    1   AR   Ar  232   4.514   3.226   0.531
    1   AR   Ar  233   6.224   2.268   4.280
    1   AR   Ar  234   6.907   3.554   4.167
    1   AR   Ar  235   0.332   2.692   4.400
    1   AR   Ar  236   5.142   4.383   4.324
    1   AR   Ar  237   5.487   3.167   4.213
    1   AR   Ar  238   4.823   4.515   5.329
    1   AR   Ar  239   5.645   3.856   9.315
    1   AR   Ar  240   6.904   4.217   5.247
    1   AR   Ar  241   0.001   0.227  -0.793
    1   AR   Ar  242   5.004   4.505   1.640
    1   AR   Ar  243   5.882   4.001   2.057
    1   AR   Ar  244   0.588   5.143  -0.971
    1   AR   Ar  245   5.518   7.098   2.266
    1   AR   Ar  246   5.989   6.449   1.510
    1   AR   Ar  247   5.152   3.448   1.561
    1   AR   Ar  248   5.772   6.894   0.533
    1   AR   Ar  249   5.509   5.757   2.489
    1   AR   Ar  250   4.760   6.541   4.304
    1   AR   Ar  251   5.690   5.329   4.587
    1   AR   Ar  252   5.731   6.154   3.550
    1   AR   Ar  253   6.111   4.735   5.667
    1   AR   Ar  254   5.162   5.409   6.396
    1   AR   Ar  255   5.121   4.487   6.908
    1   AR   Ar  256   5.997   6.889   4.379
    7.12000  7.12000 12.00000
Argon-slab step 1850
  256
    1   AR   Ar    1   6.972   1.581  -0.873
    1   AR   Ar    2   6.051   0.581   1.194
    1   AR   Ar    3   6.840   6.902   0.759
    1   AR   Ar    4   1.245   7.018   0.412
    1   AR   Ar    5   6.654   5.818   1.034
    1   AR   Ar    6   0.035   0.497   2.667
    1   AR   Ar    7   0.392   4.963   2.863
    1   AR   Ar    8   6.870   6.940   1.966
    1   AR   Ar    9   1.024   0.497   4.243
    1   AR   Ar   10   1.070   1.604   4.069
    1   AR   Ar   11   3.195   6.984   4.891
    1   AR   Ar   12   1.245   1.140   2.840
    1   AR   Ar   13   7.006   1.385   4.590
    1   AR   Ar   14   0.385   1.634   6.556
    1   AR   Ar   15   0.030   0.121   9.109
    1   AR   Ar   16   0.907   1.400   5.430
    1   AR   Ar   17   0.489   1.418  -0.087
    1   AR   Ar   18   6.445   3.429  -0.651
    1   AR   Ar   19   1.223   1.765   1.900
    1   AR   Ar   20   6.522   2.658  -2.563
    1   AR   Ar   21   6.306   1.111   2.840
    1   AR   Ar   22   0.072   1.751   2.171
    1   AR   Ar   23   6.861   1.141   1.357
    1   AR   Ar   24   0.383   1.919   1.078
    1   AR   Ar   25   0.174   1.401   3.297
    1   AR   Ar   26   6.213   1.195   3.889
    1   AR   Ar   27   1.893   1.108   3.774
    1   AR   Ar   28   1.303   2.472   5.057
    1   AR   Ar   29   5.798   1.586   6.612
    1   AR   Ar   30   0.715   2.756   6.033
    1   AR   Ar   31   0.611   0.076   6.719
    1   AR   Ar   32   1.711   3.081   6.136
    1   AR   Ar   33   1.474   4.361  -1.069
    1   AR   Ar   34   0.256   5.732   1.826
    1   AR   Ar   35   0.186   4.033   1.056
    1   AR   Ar   36   0.315   6.796  -1.608
    1   AR   Ar   37   0.105   2.939   2.685
    1   AR   Ar   38   7.052   4.286   2.003
    1   AR   Ar   39   1.442   4.376   2.353
    1   AR   Ar   40   1.385   3.898   1.360
    1   AR   Ar   41   0.826   2.452   3.266
    1   AR   Ar   42   6.690   5.362   5.123
    1   AR   Ar   43   6.776   2.463   5.153
    1   AR   Ar   44   0.327   4.098   3.437
    1   AR   Ar   45   1.008   3.614   5.442
    1   AR   Ar   46   0.369   5.992   6.369
    1   AR   Ar   47   5.831   3.723   6.488
    1   AR   Ar   48   6.248   6.985   6.620
    1   AR   Ar   49   6.780   6.099  -2.057
    1   AR   Ar   50   5.945   5.085   1.672
    1   AR   Ar   51   1.366   4.986   1.328
    1   AR   Ar   52   6.892   4.352  -0.996
    1   AR   Ar   53   6.376   6.314   2.672
    1   AR   Ar   54   6.859   6.494   3.530
    1   AR   Ar   55   6.469   4.841   3.180
    1   AR   Ar   56   0.698   6.757   1.431
    1   AR   Ar   57   6.375   3.562   2.845
    1   AR   Ar   58   6.522   5.723   4.159
    1   AR   Ar   59   1.522   5.536   5.544
    1   AR   Ar   60   0.622   6.675   4.255
    1   AR   Ar   61   5.821   6.168   5.306
    1   AR   Ar   62   0.580   6.016   5.312
    1   AR   Ar   63   1.761   6.385   6.327
    1   AR   Ar   64   1.294   6.792   5.163
    1   AR   Ar   65   3.235   6.990   0.447
    1   AR   Ar   66   1.618   0.968   1.081
    1   AR   Ar   67   3.552   6.410  -0.845
    1   AR   Ar   68   3.162   1.297  -1.729
    1   AR   Ar   69   2.329   0.192   0.738
    1   AR   Ar   70   0.788   0.666   1.605
    1   AR   Ar   71   3.026   0.680   2.544
    1   AR   Ar   72   2.887   0.434   1.544
    1   AR   Ar   73   1.676   7.013   3.424
    1   AR   Ar   74   1.748   1.295   4.809
    1   AR   Ar   75   3.721   0.962   4.922
    1   AR   Ar   76   2.135   1.134   2.278
    1   AR   Ar   77   2.380   6.574   5.596
    1   AR   Ar   78   1.310   0.630   6.064
    1   AR   Ar   79   3.763   6.066   6.808
    1   AR   Ar   80   2.905   5.776   5.391
    1   AR   Ar   81   1.964   1.548  -0.144
    1   AR   Ar   82   0.305   3.211  -0.716
    1   AR   Ar   83   2.259   2.287   0.675
    1   AR   Ar   84   1.021   4.036  -2.234
    1   AR   Ar   85   0.564   2.500   0.207
    1   AR   Ar   86   1.821   3.296   2.185
    1   AR   Ar   87   2.170   2.305   1.659
    1   AR   Ar   88   4.050   3.950   1.894
    1   AR   Ar   89   0.780   3.175   1.891
    1   AR   Ar   90   3.008   1.906   4.486
    1   AR   Ar   91   2.036   2.241   4.170
    1   AR   Ar   92   1.898   2.292   2.711
    1   AR   Ar   93   2.281   1.924   5.254
    1   AR   Ar   94   1.743   1.249   8.040
    1   AR   Ar   95   3.326   6.988   5.916
    1   AR   Ar   96   2.277   0.693   5.524
    1   AR   Ar   97   3.718   2.299  -1.463
    1   AR   Ar   98   2.849   4.237   1.226
    1   AR   Ar   99   6.637   2.737  -1.465
    1   AR   Ar  100   1.795   3.637  -0.428
    1   AR   Ar  101   1.436   3.047   0.600
    1   AR   Ar  102   2.557   3.608   4.011
    1   AR   Ar  103   0.959   4.599   0.213
    1   AR   Ar  104   2.934   2.233  -0.461
    1   AR   Ar  105   1.561   3.268   3.292
    1   AR   Ar  106   2.531   3.012   4.960
    1   AR   Ar  107   2.084   4.049   4.824
    1   AR   Ar  108   3.624   3.023   4.286
    1   AR   Ar  109   1.490   4.270   3.742
    1   AR   Ar  110   1.124   4.572   5.951
    1   AR   Ar  111   4.264   5.151   6.945
    1   AR   Ar  112   0.394   4.581   6.771
    1   AR   Ar  113   2.395   4.585   0.227
    1   AR   Ar  114   2.727   6.105   0.393
    1   AR   Ar  115   3.083   4.306  -0.432
    1   AR   Ar  116   4.819   6.363   0.219
    1   AR   Ar  117   0.467   5.598   3.852
    1   AR   Ar  118   0.693   6.698   2.898
    1   AR   Ar  119   2.431   4.267   3.080
    1   AR   Ar  120   1.273   5.433   2.620
    1   AR   Ar  121   6.881   4.717   4.103
    1   AR   Ar  122   2.434   6.168   4.501
    1   AR   Ar  123   2.368   5.193   4.794
    1   AR   Ar  124   2.334   5.890   2.937
    1   AR   Ar  125   0.561   4.896   5.006
    1   AR   Ar  126   0.495   0.297   5.079
    1   AR   Ar  127   2.915   5.506   7.306
    1   AR   Ar  128   2.107   5.413   6.546
    1   AR   Ar  129   1.522   0.160   2.012
    1   AR   Ar  130   3.559   1.135  -3.099
    1   AR   Ar  131   4.907   7.053   1.061
    1   AR   Ar  132   0.650   2.297  -1.159
    1   AR   Ar  133   3.918   0.225   2.862
    1   AR   Ar  134   3.765   1.395   2.803
    1   AR   Ar  135   4.925   0.623   2.686
    1   AR   Ar  136   4.188   0.179   1.915
    1   AR   Ar  137   2.997   7.082   3.605
    1   AR   Ar  138   4.651   1.010   5.235
    1   AR   Ar  139   5.762   1.358   4.738
    1   AR   Ar  140   4.319   0.892   3.578
    1   AR   Ar  141   3.960   7.093   3.993
    1   AR   Ar  142   4.163   0.026   5.271
    1   AR   Ar  143   5.349   0.031   6.050
    1   AR   Ar  144   4.775   0.610   6.668
    1   AR   Ar  145   3.643   3.732   0.271
    1   AR   Ar  146   4.226   2.726   1.623
    1   AR   Ar  147   5.960   1.946  -0.748
    1   AR   Ar  148   5.326   4.287  -2.422
    1   AR   Ar  149   3.743   2.181   0.707
    1   AR   Ar  150   2.784   1.708   2.946
    1   AR   Ar  151   3.607   2.389   3.428
    1   AR   Ar  152   2.598   3.291   0.304
    1   AR   Ar  153   3.010   0.981   4.112
    1   AR   Ar  154   4.087   1.877   4.312
    1   AR   Ar  155   5.576   0.986   5.671
    1   AR   Ar  156   3.600   4.027   3.348
    1   AR   Ar  157   2.913   2.799   5.886
    1   AR   Ar  158   1.116   2.674   7.076
    1   AR   Ar  159   3.713   0.756   5.937
    1   AR   Ar  160   3.715   2.554   7.519
    1   AR   Ar  161   5.543   2.086   0.497
    1   AR   Ar  162   4.205   5.714  -0.368
    1   AR   Ar  163   5.397   3.329  -0.053
    1   AR   Ar  164   4.070   5.002   1.389
    1   AR   Ar  165   3.213   3.282   1.629
    1   AR   Ar  166   2.487   5.193   3.649
    1   AR   Ar  167   4.565   2.180   2.679
    1   AR   Ar  168   4.246   3.069  -0.641
    1   AR   Ar  169   2.577   3.037   3.084
    1   AR   Ar  170   3.384   3.776   4.925
    1   AR   Ar  171   4.336   3.763   4.255
    1   AR   Ar  172   4.445   5.495   4.140
    1   AR   Ar  173   1.838   3.819   7.054
    1   AR   Ar  174   3.511   5.340   6.054
    1   AR   Ar  175   4.263   4.041   6.183
    1   AR   Ar  176   3.539   4.884   5.061
    1   AR   Ar  177   5.870   6.180  -0.213
    1   AR   Ar  178   3.025   6.398   1.300
    1   AR   Ar  179   3.769   5.955   0.730
    1   AR   Ar  180   3.538   3.547  -2.331
    1   AR   Ar  181   2.315   5.527   1.274
    1   AR   Ar  182   2.694   6.767   2.413
    1   AR   Ar  183   3.748   4.710   2.526
    1   AR   Ar  184   4.126   6.277   1.674
    1   AR   Ar  185   1.367   5.448   4.511
    1   AR   Ar  186   3.470   5.934   4.160
    1   AR   Ar  187   4.043   6.305   3.264
    1   AR   Ar  188   3.323   5.988   2.281
    1   AR   Ar  189   2.501   4.751   5.807
    1   AR   Ar  190   4.459   6.329   5.988
    1   AR   Ar  191   4.929   5.593   5.301
    1   AR   Ar  192   3.923   5.909   5.093
    1   AR   Ar  193   7.064   6.266  -0.194
    1   AR   Ar  194   5.617   4.979  -0.916
    1   AR   Ar  195   5.996   0.310  -0.377
    1   AR   Ar  196   5.256   0.979  -1.075
    1   AR   Ar  197   5.322   1.007   0.401
    1   AR   Ar  198   5.852   1.584   1.361
    1   AR   Ar  199   5.053   0.844   1.576
    1   AR   Ar  200   6.526   1.588   0.081
    1   AR   Ar  201   4.905   6.853   3.331
    1   AR   Ar  202   5.076   2.102   4.297
    1   AR   Ar  203   6.849   6.571   4.953
    1   AR   Ar  204   5.213   0.665   4.197
    1   AR   Ar  205   6.001   0.099   3.155
    1   AR   Ar  206   5.187   0.007   5.064
    1   AR   Ar  207   6.966   0.527   6.204
    1   AR   Ar  208   6.949   0.501   3.892
    1   AR   Ar  209   4.775   2.339  -2.152
    1   AR   Ar  210   3.789   0.962   0.949
    1   AR   Ar  211   6.343   3.282   0.416
    1   AR   Ar  212   6.642   3.781  -1.866
    1   AR   Ar  213   3.315   2.373   2.259
    1   AR   Ar  214   3.697   3.139   2.765
    1   AR   Ar  215   5.688   2.031   2.347
    1   AR   Ar  216   6.883   2.967   1.642
    1   AR   Ar  217   4.523   3.172   3.435
    1   AR   Ar  218   4.624   2.932   4.918
    1   AR   Ar  219   5.250   1.515   3.316
    1   AR   Ar  220   5.156   3.116   2.504
    1   AR   Ar  221   6.529   0.479   5.149
    1   AR   Ar  222   4.556   1.533   6.142
    1   AR   Ar  223   7.071   0.704   7.218
    1   AR   Ar  224   5.557   2.053   5.595
    1   AR   Ar  225   4.960   4.978   0.350
    1   AR   Ar  226   4.851   4.276   2.584
    1   AR   Ar  227   6.688   5.094   0.170
    1   AR   Ar  228   5.146   5.836   1.191
    1   AR   Ar  229   5.789   4.093   1.078
    1   AR   Ar  230   4.377   4.682   3.423
    1   AR   Ar  231   6.539   2.123   3.132
    1   AR   Ar  232   4.527   3.231   0.552
    1   AR   Ar  233   6.249   2.256   4.272
    1   AR   Ar  234   6.905   3.551   4.171
    1   AR   Ar  235   0.356   2.672   4.401
    1   AR   Ar  236   5.145   4.394   4.324
    1   AR   Ar  237   5.542   3.188   4.221
    1   AR   Ar  238   4.854   4.529   5.348
    1   AR   Ar  239   5.672   3.856   9.312
    1   AR   Ar  240   6.909   4.217   5.261
    1   AR   Ar  241   0.023   0.242  -0.781
    1   AR   Ar  242   5.018   4.514   1.621
    1   AR   Ar  243   5.886   3.980   2.057
    1   AR   Ar  244   0.605   5.114  -0.997
    1   AR   Ar  245   5.559   7.075   2.220
    1   AR   Ar  246   5.989   6.444   1.503
    1   AR   Ar  247   5.109   3.451   1.559
    1   AR   Ar  248   5.819   6.932   0.531
    1   AR   Ar  249   5.503   5.766   2.473
    1   AR   Ar  250   4.753   6.519   4.279
    1   AR   Ar  251   5.660   5.323   4.600
    1   AR   Ar  252   5.699   6.146   3.531
    1   AR   Ar  253   6.095   4.720   5.665
    1   AR   Ar  254   5.187   5.410   6.418
    1   AR   Ar  255   5.127   4.449   6.900
    1   AR   Ar  256   5.965   6.878   4.382
    7.12000  7.12000 12.00000
Argon-slab step 1855
  256
    1   AR   Ar    1   6.993   1.604  -0.881
    1   AR   Ar    2   6.059   0.560   1.177
    1   AR   Ar    3   6.846   6.907   0.750
    1   AR   Ar    4   1.231   7.009   0.393
    1   AR   Ar    5   6.671   5.790   1.047
    1   AR   Ar    6   0.027   0.516   2.655
    1   AR   Ar    7   0.382   4.983   2.847
    1   AR   Ar    8   6.859   6.914   1.984
    1   AR   Ar    9   1.018   0.492   4.237
    1   AR   Ar   10   1.071   1.614   4.054
    1   AR   Ar   11   3.191   6.972   4.910
    1   AR   Ar   12   1.261   1.111   2.877
    1   AR   Ar   13   7.012   1.377   4.591
    1   AR   Ar   14   0.406   1.628   6.558
    1   AR   Ar   15   0.002   0.132   9.081
    1   AR   Ar   16   0.935   1.396   5.436
    1   AR   Ar   17   0.497   1.422  -0.089
    1   AR   Ar   18   6.414   3.416  -0.635
    1   AR   Ar   19   1.219   1.799   1.897
    1   AR   Ar   20   6.520   2.703  -2.555
    1   AR   Ar   21   6.339   1.151   2.851
    1   AR   Ar   22   0.064   1.760   2.201
    1   AR   Ar   23   6.871   1.108   1.349
    1   AR   Ar   24   0.356   1.936   1.086
    1   AR   Ar   25   0.196   1.404   3.295
    1   AR   Ar   26   6.200   1.188   3.871
    1   AR   Ar   27   1.943   1.106   3.748
    1   AR   Ar   28   1.299   2.459   5.081
    1   AR   Ar   29   5.780   1.591   6.605
    1   AR   Ar   30   0.722   2.726   6.029
    1   AR   Ar   31   0.609   0.064   6.709
    1   AR   Ar   32   1.736   3.081   6.129
    1   AR   Ar   33   1.468   4.393  -1.073
    1   AR   Ar   34   0.248   5.712   1.792
    1   AR   Ar   35   0.169   4.031   1.099
    1   AR   Ar   36   0.353   6.773  -1.606
    1   AR   Ar   37   0.066   2.925   2.667
    1   AR   Ar   38   7.048   4.284   2.040
    1   AR   Ar   39   1.439   4.369   2.386
    1   AR   Ar   40   1.370   3.910   1.383
    1   AR   Ar   41   0.820   2.430   3.304
    1   AR   Ar   42   6.692   5.351   5.108
    1   AR   Ar   43   6.785   2.474   5.155
    1   AR   Ar   44   0.298   4.121   3.447
    1   AR   Ar   45   1.028   3.601   5.415
    1   AR   Ar   46   0.355   5.974   6.388
    1   AR   Ar   47   5.847   3.714   6.496
    1   AR   Ar   48   6.241   6.964   6.619
    1   AR   Ar   49   6.754   6.125  -2.061
    1   AR   Ar   50   5.895   5.111   1.661
    1   AR   Ar   51   1.306   5.000   1.335
    1   AR   Ar   52   6.881   4.379  -0.994
    1   AR   Ar   53   6.364   6.344   2.682
    1   AR   Ar   54   6.876   6.516   3.490
    1   AR   Ar   55   6.446   4.836   3.162
    1   AR   Ar   56   0.688   6.763   1.454
    1   AR   Ar   57   6.414   3.562   2.896
    1   AR   Ar   58   6.521   5.691   4.176
    1   AR   Ar   59   1.500   5.562   5.563
    1   AR   Ar   60   0.603   6.660   4.253
    1   AR   Ar   61   5.842   6.191   5.308
    1   AR   Ar   62   0.576   6.036   5.281
    1   AR   Ar   63   1.786   6.374   6.331
    1   AR   Ar   64   1.281   6.815   5.170
    1   AR   Ar   65   3.237   6.971   0.422
    1   AR   Ar   66   1.654   0.991   1.039
    1   AR   Ar   67   3.558   6.383  -0.858
    1   AR   Ar   68   3.153   1.303  -1.750
    1   AR   Ar   69   2.336   0.187   0.737
    1   AR   Ar   70   0.768   0.679   1.636
    1   AR   Ar   71   3.056   0.691   2.595
    1   AR   Ar   72   2.873   0.455   1.561
    1   AR   Ar   73   1.667   7.046   3.456
    1   AR   Ar   74   1.731   1.303   4.769
    1   AR   Ar   75   3.684   0.960   4.918
    1   AR   Ar   76   2.141   1.137   2.304
    1   AR   Ar   77   2.370   6.580   5.591
    1   AR   Ar   78   1.301   0.637   6.054
    1   AR   Ar   79   3.752   6.064   6.793
    1   AR   Ar   80   2.887   5.765   5.359
    1   AR   Ar   81   1.957   1.563  -0.130
    1   AR   Ar   82   0.309   3.182  -0.705
    1   AR   Ar   83   2.254   2.275   0.663
    1   AR   Ar   84   0.983   4.011  -2.221
    1   AR   Ar   85   0.539   2.502   0.232
    1   AR   Ar   86   1.826   3.295   2.142
    1   AR   Ar   87   2.180   2.321   1.679
    1   AR   Ar   88   4.017   3.953   1.896
    1   AR   Ar   89   0.767   3.169   1.934
    1   AR   Ar   90   3.014   1.915   4.475
    1   AR   Ar   91   2.043   2.240   4.176
    1   AR   Ar   92   1.882   2.297   2.675
    1   AR   Ar   93   2.293   1.926   5.256
    1   AR   Ar   94   1.704   1.272   8.053
    1   AR   Ar   95   3.329   6.956   5.940
    1   AR   Ar   96   2.296   0.692   5.572
    1   AR   Ar   97   3.742   2.293  -1.424
    1   AR   Ar   98   2.842   4.208   1.247
    1   AR   Ar   99   6.650   2.737  -1.468
    1   AR   Ar  100   1.803   3.612  -0.432
    1   AR   Ar  101   1.463   3.088   0.596
    1   AR   Ar  102   2.537   3.600   3.992
    1   AR   Ar  103   0.960   4.624   0.203
    1   AR   Ar  104   2.949   2.237  -0.457
    1   AR   Ar  105   1.545   3.267   3.304
    1   AR   Ar  106   2.517   2.996   4.957
    1   AR   Ar  107   2.126   4.069   4.829
    1   AR   Ar  108   3.636   3.022   4.306
    1   AR   Ar  109   1.478   4.281   3.749
    1   AR   Ar  110   1.122   4.569   6.004
    1   AR   Ar  111   4.250   5.145   6.942
    1   AR   Ar  112   0.410   4.555   6.783
    1   AR   Ar  113   2.390   4.605   0.243
    1   AR   Ar  114   2.705   6.063   0.398
    1   AR   Ar  115   3.092   4.277  -0.442
    1   AR   Ar  116   4.801   6.348   0.210
    1   AR   Ar  117   0.500   5.580   3.852
    1   AR   Ar  118   0.703   6.686   2.900
    1   AR   Ar  119   2.478   4.267   3.089
    1   AR   Ar  120   1.291   5.437   2.652
    1   AR   Ar  121   6.891   4.685   4.144
    1   AR   Ar  122   2.428   6.221   4.477
    1   AR   Ar  123   2.361   5.190   4.777
    1   AR   Ar  124   2.348   5.901   2.926
    1   AR   Ar  125   0.557   4.885   5.023
    1   AR   Ar  126   0.499   0.312   5.116
    1   AR   Ar  127   2.889   5.499   7.357
    1   AR   Ar  128   2.107   5.416   6.557
    1   AR   Ar  129   1.531   0.144   2.041
    1   AR   Ar  130   3.554   1.123  -3.110
    1   AR   Ar  131   4.891   7.037   1.078
    1   AR   Ar  132   0.661   2.287  -1.128
    1   AR   Ar  133   3.895   0.241   2.857
    1   AR   Ar  134   3.750   1.392   2.824
    1   AR   Ar  135   4.949   0.602   2.655
    1   AR   Ar  136   4.214   0.215   1.902
    1   AR   Ar  137   3.008   7.066   3.609
    1   AR   Ar  138   4.675   1.033   5.250
    1   AR   Ar  139   5.803   1.362   4.746
    1   AR   Ar  140   4.313   0.944   3.577
    1   AR   Ar  141   3.950   7.107   3.971
    1   AR   Ar  142   4.183   0.015   5.274
    1   AR   Ar  143   5.359   0.027   6.068
    1   AR   Ar  144   4.749   0.608   6.674
    1   AR   Ar  145   3.675   3.730   0.280
    1   AR   Ar  146   4.242   2.732   1.634
    1   AR   Ar  147   5.976   1.942  -0.753
    1   AR   Ar  148   5.308   4.300  -2.435
    1   AR   Ar  149   3.732   2.174   0.718
    1   AR   Ar  150   2.747   1.739   2.969
    1   AR   Ar  151   3.603   2.385   3.425
    1   AR   Ar  152   2.590   3.278   0.301
    1   AR   Ar  153   3.013   0.947   4.104
    1   AR   Ar  154   4.095   1.866   4.325
    1   AR   Ar  155   5.542   0.996   5.704
    1   AR   Ar  156   3.599   4.035   3.351
    1   AR   Ar  157   2.938   2.807   5.883
    1   AR   Ar  158   1.077   2.678   7.076
    1   AR   Ar  159   3.678   0.755   5.962
    1   AR   Ar  160   3.698   2.544   7.511
    1   AR   Ar  161   5.574   2.095   0.495
    1   AR   Ar  162   4.218   5.724  -0.357
    1   AR   Ar  163   5.395   3.292  -0.016
    1   AR   Ar  164   4.078   5.001   1.363
    1   AR   Ar  165   3.230   3.298   1.602
    1   AR   Ar  166   2.483   5.193   3.653
    1   AR   Ar  167   4.561   2.195   2.698
    1   AR   Ar  168   4.250   3.055  -0.654
    1   AR   Ar  169   2.568   3.022   3.064
    1   AR   Ar  170   3.387   3.768   4.943
    1   AR   Ar  171   4.350   3.738   4.275
    1   AR   Ar  172   4.431   5.463   4.118
    1   AR   Ar  173   1.830   3.845   7.043
    1   AR   Ar  174   3.540   5.341   6.063
    1   AR   Ar  175   4.262   4.023   6.199
    1   AR   Ar  176   3.559   4.903   5.045
    1   AR   Ar  177   5.877   6.180  -0.232
    1   AR   Ar  178   3.042   6.403   1.315
    1   AR   Ar  179   3.765   5.970   0.723
    1   AR   Ar  180   3.562   3.548  -2.357
    1   AR   Ar  181   2.330   5.525   1.278
    1   AR   Ar  182   2.672   6.792   2.412
    1   AR   Ar  183   3.744   4.690   2.543
    1   AR   Ar  184   4.137   6.306   1.654
    1   AR   Ar  185   1.368   5.406   4.488
    1   AR   Ar  186   3.485   5.918   4.158
    1   AR   Ar  187   4.061   6.271   3.255
    1   AR   Ar  188   3.305   5.966   2.291
    1   AR   Ar  189   2.494   4.765   5.806
    1   AR   Ar  190   4.453   6.321   6.017
    1   AR   Ar  191   4.945   5.584   5.308
    1   AR   Ar  192   3.918   5.916   5.091
    1   AR   Ar  193   7.073   6.255  -0.175
    1   AR   Ar  194   5.617   4.946  -0.891
    1   AR   Ar  195   6.006   0.307  -0.357
    1   AR   Ar  196   5.224   0.980  -1.068
    1   AR   Ar  197   5.322   0.999   0.352
    1   AR   Ar  198   5.838   1.587   1.349
    1   AR   Ar  199   5.075   0.812   1.607
    1   AR   Ar  200   6.528   1.584   0.098
    1   AR   Ar  201   4.891   6.879   3.351
    1   AR   Ar  202   5.071   2.140   4.257
    1   AR   Ar  203   6.863   6.530   4.986
    1   AR   Ar  204   5.228   0.670   4.191
    1   AR   Ar  205   5.970   0.107   3.133
    1   AR   Ar  206   5.190   0.011   5.043
    1   AR   Ar  207   6.972   0.539   6.199
    1   AR   Ar  208   6.970   0.532   3.924
    1   AR   Ar  209   4.764   2.318  -2.102
    1   AR   Ar  210   3.794   0.929   0.982
    1   AR   Ar  211   6.353   3.300   0.421
    1   AR   Ar  212   6.643   3.782  -1.865
    1   AR   Ar  213   3.307   2.337   2.261
    1   AR   Ar  214   3.711   3.173   2.744
    1   AR   Ar  215   5.703   2.052   2.321
    1   AR   Ar  216   6.870   3.005   1.643
    1   AR   Ar  217   4.502   3.166   3.446
    1   AR   Ar  218   4.638   2.936   4.918
    1   AR   Ar  219   5.237   1.529   3.353
    1   AR   Ar  220   5.169   3.099   2.459
    1   AR   Ar  221   6.549   0.483   5.164
    1   AR   Ar  222   4.555   1.519   6.141
    1   AR   Ar  223   7.077   0.711   7.270
    1   AR   Ar  224   5.557   2.028   5.595
    1   AR   Ar  225   4.958   5.013   0.368
    1   AR   Ar  226   4.867   4.308   2.538
    1   AR   Ar  227   6.676   5.105   0.181
    1   AR   Ar  228   5.156   5.837   1.207
    1   AR   Ar  229   5.765   4.061   1.090
    1   AR   Ar  230   4.379   4.685   3.398
    1   AR   Ar  231   6.576   2.126   3.168
    1   AR   Ar  232   4.540   3.234   0.578
    1   AR   Ar  233   6.272   2.244   4.260
    1   AR   Ar  234   6.901   3.550   4.177
    1   AR   Ar  235   0.384   2.649   4.398
    1   AR   Ar  236   5.151   4.407   4.322
    1   AR   Ar  237   5.596   3.210   4.229
    1   AR   Ar  238   4.885   4.542   5.369
    1   AR   Ar  239   5.700   3.857   9.309
    1   AR   Ar  240   6.916   4.214   5.273
    1   AR   Ar  241   0.042   0.260  -0.765
    1   AR   Ar  242   5.029   4.529   1.596
    1   AR   Ar  243   5.890   3.962   2.064
    1   AR   Ar  244   0.622   5.084  -1.021
    1   AR   Ar  245   5.594   7.064   2.186
    1   AR   Ar  246   5.988   6.441   1.496
    1   AR   Ar  247   5.061   3.451   1.549
    1   AR   Ar  248   5.862   6.967   0.529
    1   AR   Ar  249   5.492   5.770   2.464
    1   AR   Ar  250   4.750   6.492   4.261
    1   AR   Ar  251   5.641   5.353   4.615
    1   AR   Ar  252   5.669   6.137   3.514
    1   AR   Ar  253   6.071   4.706   5.667
    1   AR   Ar  254   5.212   5.413   6.436
    1   AR   Ar  255   5.132   4.410   6.892
    1   AR   Ar  256   5.935   6.867   4.382
    7.12000  7.12000 12.00000
Argon-slab step 1860
  256
    1   AR   Ar    1   7.011   1.628  -0.895
    1   AR   Ar    2   6.063   0.539   1.166
    1   AR   Ar    3   6.860   6.912   0.744
    1   AR   Ar    4   1.217   7.001   0.377
    1   AR   Ar    5   6.685   5.762   1.054
    1   AR   Ar    6   0.030   0.518   2.641
    1   AR   Ar    7   0.369   5.005   2.829
    1   AR   Ar    8   6.848   6.887   1.994
    1   AR   Ar    9   1.015   0.493   4.226
    1   AR   Ar   10   1.065   1.629   4.035
    1   AR   Ar   11   3.185   6.960   4.923
    1   AR   Ar   12   1.272   1.083   2.916
    1   AR   Ar   13   7.000   1.387   4.593
    1   AR   Ar   14   0.432   1.612   6.530
    1   AR   Ar   15   7.093   0.142   9.053
    1   AR   Ar   16   0.958   1.396   5.441
    1   AR   Ar   17   0.509   1.426  -0.086
    1   AR   Ar   18   6.379   3.404  -0.620
    1   AR   Ar   19   1.215   1.832   1.894
    1   AR   Ar   20   6.518   2.748  -2.547
    1   AR   Ar   21   6.367   1.190   2.855
    1   AR   Ar   22   0.055   1.768   2.232
    1   AR   Ar   23   6.888   1.078   1.343
    1   AR   Ar   24   0.331   1.952   1.097
    1   AR   Ar   25   0.222   1.405   3.295
    1   AR   Ar   26   6.182   1.194   3.867
    1   AR   Ar   27   1.998   1.102   3.719
    1   AR   Ar   28   1.297   2.445   5.105
    1   AR   Ar   29   5.761   1.594   6.598
    1   AR   Ar   30   0.726   2.694   6.024
    1   AR   Ar   31   0.612   0.048   6.700
    1   AR   Ar   32   1.763   3.081   6.122
    1   AR   Ar   33   1.462   4.425  -1.078
    1   AR   Ar   34   0.244   5.693   1.764
    1   AR   Ar   35   0.156   4.026   1.134
    1   AR   Ar   36   0.392   6.750  -1.604
    1   AR   Ar   37   0.029   2.905   2.651
    1   AR   Ar   38   7.042   4.282   2.086
    1   AR   Ar   39   1.435   4.361   2.420
    1   AR   Ar   40   1.354   3.923   1.404
    1   AR   Ar   41   0.813   2.406   3.342
    1   AR   Ar   42   6.696   5.339   5.099
    1   AR   Ar   43   6.793   2.484   5.162
    1   AR   Ar   44   0.273   4.139   3.454
    1   AR   Ar   45   1.048   3.588   5.387
    1   AR   Ar   46   0.342   5.956   6.405
    1   AR   Ar   47   5.863   3.705   6.502
    1   AR   Ar   48   6.236   6.942   6.620
    1   AR   Ar   49   6.727   6.149  -2.064
    1   AR   Ar   50   5.849   5.139   1.650
    1   AR   Ar   51   1.254   5.011   1.343
    1   AR   Ar   52   6.871   4.406  -0.989
    1   AR   Ar   53   6.345   6.367   2.682
    1   AR   Ar   54   6.900   6.543   3.464
    1   AR   Ar   55   6.423   4.831   3.143
    1   AR   Ar   56   0.678   6.767   1.476
    1   AR   Ar   57   6.452   3.564   2.951
    1   AR   Ar   58   6.521   5.667   4.185
    1   AR   Ar   59   1.482   5.587   5.584
    1   AR   Ar   60   0.581   6.641   4.251
    1   AR   Ar   61   5.864   6.216   5.309
    1   AR   Ar   62   0.578   6.022   5.274
    1   AR   Ar   63   1.798   6.364   6.346
    1   AR   Ar   64   1.279   6.835   5.176
    1   AR   Ar   65   3.248   6.953   0.395
    1   AR   Ar   66   1.691   1.016   0.999
    1   AR   Ar   67   3.563   6.358  -0.872
    1   AR   Ar   68   3.145   1.311  -1.770
    1   AR   Ar   69   2.334   0.182   0.734
    1   AR   Ar   70   0.741   0.701   1.666
    1   AR   Ar   71   3.073   0.702   2.646
    1   AR   Ar   72   2.863   0.476   1.583
    1   AR   Ar   73   1.658   7.081   3.488
    1   AR   Ar   74   1.710   1.299   4.725
    1   AR   Ar   75   3.645   0.957   4.912
    1   AR   Ar   76   2.137   1.136   2.323
    1   AR   Ar   77   2.363   6.599   5.574
    1   AR   Ar   78   1.300   0.654   6.057
    1   AR   Ar   79   3.738   6.067   6.781
    1   AR   Ar   80   2.878   5.756   5.332
    1   AR   Ar   81   1.950   1.577  -0.116
    1   AR   Ar   82   0.316   3.155  -0.693
    1   AR   Ar   83   2.250   2.262   0.645
    1   AR   Ar   84   0.944   3.985  -2.207
    1   AR   Ar   85   0.514   2.491   0.257
    1   AR   Ar   86   1.833   3.295   2.101
    1   AR   Ar   87   2.191   2.334   1.704
    1   AR   Ar   88   4.007   3.955   1.887
    1   AR   Ar   89   0.758   3.163   1.975
    1   AR   Ar   90   3.022   1.928   4.464
    1   AR   Ar   91   2.047   2.240   4.181
    1   AR   Ar   92   1.861   2.301   2.643
    1   AR   Ar   93   2.312   1.940   5.268
    1   AR   Ar   94   1.665   1.295   8.065
    1   AR   Ar   95   3.330   6.912   5.968
    1   AR   Ar   96   2.316   0.690   5.618
    1   AR   Ar   97   3.767   2.287  -1.384
    1   AR   Ar   98   2.835   4.181   1.266
    1   AR   Ar   99   6.664   2.736  -1.469
    1   AR   Ar  100   1.811   3.585  -0.433
    1   AR   Ar  101   1.490   3.129   0.591
    1   AR   Ar  102   2.519   3.589   3.970
    1   AR   Ar  103   0.961   4.649   0.194
    1   AR   Ar  104   2.956   2.221  -0.462
    1   AR   Ar  105   1.530   3.266   3.315
    1   AR   Ar  106   2.501   2.980   4.948
    1   AR   Ar  107   2.154   4.076   4.828
    1   AR   Ar  108   3.645   3.010   4.322
    1   AR   Ar  109   1.466   4.294   3.756
    1   AR   Ar  110   1.123   4.567   6.053
    1   AR   Ar  111   4.236   5.136   6.937
    1   AR   Ar  112   0.425   4.559   6.797
    1   AR   Ar  113   2.382   4.625   0.264
    1   AR   Ar  114   2.680   6.018   0.398
    1   AR   Ar  115   3.103   4.247  -0.456
    1   AR   Ar  116   4.788   6.335   0.205
    1   AR   Ar  117   0.531   5.562   3.852
    1   AR   Ar  118   0.714   6.674   2.902
    1   AR   Ar  119   2.524   4.264   3.096
    1   AR   Ar  120   1.314   5.444   2.682
    1   AR   Ar  121   6.902   4.653   4.190
    1   AR   Ar  122   2.422   6.276   4.452
    1   AR   Ar  123   2.363   5.178   4.763
    1   AR   Ar  124   2.360   5.915   2.912
    1   AR   Ar  125   0.556   4.877   5.040
    1   AR   Ar  126   0.495   0.333   5.158
    1   AR   Ar  127   2.864   5.493   7.406
    1   AR   Ar  128   2.106   5.415   6.569
    1   AR   Ar  129   1.548   0.127   2.075
    1   AR   Ar  130   3.550   1.110  -3.120
    1   AR   Ar  131   4.846   7.032   1.065
    1   AR   Ar  132   0.627   2.297  -1.150
    1   AR   Ar  133   3.878   0.249   2.864
    1   AR   Ar  134   3.739   1.397   2.845
    1   AR   Ar  135   4.969   0.585   2.629
    1   AR   Ar  136   4.241   0.254   1.883
    1   AR   Ar  137   3.012   7.049   3.610
    1   AR   Ar  138   4.701   1.059   5.260
    1   AR   Ar  139   5.840   1.370   4.766
    1   AR   Ar  140   4.311   0.995   3.581
    1   AR   Ar  141   3.938   7.108   3.962
    1   AR   Ar  142   4.193   7.119   5.278
    1   AR   Ar  143   5.365   0.022   6.080
    1   AR   Ar  144   4.722   0.607   6.680
    1   AR   Ar  145   3.703   3.728   0.290
    1   AR   Ar  146   4.257   2.738   1.646
    1   AR   Ar  147   5.989   1.940  -0.760
    1   AR   Ar  148   5.290   4.311  -2.448
    1   AR   Ar  149   3.754   2.160   0.741
    1   AR   Ar  150   2.709   1.769   2.995
    1   AR   Ar  151   3.599   2.378   3.422
    1   AR   Ar  152   2.583   3.266   0.299
    1   AR   Ar  153   3.015   0.909   4.092
    1   AR   Ar  154   4.097   1.852   4.336
    1   AR   Ar  155   5.520   1.000   5.745
    1   AR   Ar  156   3.627   4.024   3.345
    1   AR   Ar  157   2.962   2.814   5.883
    1   AR   Ar  158   1.038   2.682   7.076
    1   AR   Ar  159   3.662   0.801   5.966
    1   AR   Ar  160   3.681   2.533   7.502
    1   AR   Ar  161   5.604   2.097   0.488
    1   AR   Ar  162   4.230   5.728  -0.352
    1   AR   Ar  163   5.394   3.254   0.019
    1   AR   Ar  164   4.085   5.001   1.337
    1   AR   Ar  165   3.247   3.309   1.576
    1   AR   Ar  166   2.488   5.185   3.672
    1   AR   Ar  167   4.555   2.210   2.717
    1   AR   Ar  168   4.253   3.043  -0.680
    1   AR   Ar  169   2.563   3.007   3.043
    1   AR   Ar  170   3.376   3.761   4.949
    1   AR   Ar  171   4.365   3.722   4.298
    1   AR   Ar  172   4.421   5.431   4.100
    1   AR   Ar  173   1.822   3.870   7.030
    1   AR   Ar  174   3.570   5.338   6.072
    1   AR   Ar  175   4.262   4.006   6.215
    1   AR   Ar  176   3.578   4.921   5.027
    1   AR   Ar  177   5.885   6.180  -0.250
    1   AR   Ar  178   3.057   6.412   1.339
    1   AR   Ar  179   3.765   5.982   0.710
    1   AR   Ar  180   3.586   3.549  -2.382
    1   AR   Ar  181   2.345   5.522   1.283
    1   AR   Ar  182   2.650   6.822   2.409
    1   AR   Ar  183   3.737   4.676   2.558
    1   AR   Ar  184   4.151   6.333   1.636
    1   AR   Ar  185   1.368   5.366   4.463
    1   AR   Ar  186   3.493   5.904   4.153
    1   AR   Ar  187   4.074   6.233   3.246
    1   AR   Ar  188   3.289   5.940   2.302
    1   AR   Ar  189   2.478   4.761   5.800
    1   AR   Ar  190   4.448   6.314   6.044
    1   AR   Ar  191   4.953   5.558   5.321
    1   AR   Ar  192   3.917   5.926   5.092
    1   AR   Ar  193   7.081   6.246  -0.155
    1   AR   Ar  194   5.617   4.912  -0.864
    1   AR   Ar  195   6.017   0.308  -0.344
    1   AR   Ar  196   5.193   0.982  -1.059
    1   AR   Ar  197   5.305   0.992   0.351
    1   AR   Ar  198   5.836   1.568   1.363
    1   AR   Ar  199   5.096   0.790   1.631
    1   AR   Ar  200   6.531   1.579   0.119
    1   AR   Ar  201   4.882   6.913   3.363
    1   AR   Ar  202   5.073   2.181   4.216
    1   AR   Ar  203   6.850   6.502   5.003
    1   AR   Ar  204   5.242   0.674   4.182
    1   AR   Ar  205   5.940   0.118   3.120
    1   AR   Ar  206   5.193   0.016   5.022
    1   AR   Ar  207   6.972   0.549   6.188
    1   AR   Ar  208   6.997   0.555   3.956
    1   AR   Ar  209   4.752   2.298  -2.051
    1   AR   Ar  210   3.799   0.894   1.015
    1   AR   Ar  211   6.365   3.318   0.430
    1   AR   Ar  212   6.643   3.782  -1.865
    1   AR   Ar  213   3.298   2.299   2.262
    1   AR   Ar  214   3.726   3.210   2.717
    1   AR   Ar  215   5.718   2.073   2.297
    1   AR   Ar  216   6.855   3.045   1.643
    1   AR   Ar  217   4.484   3.157   3.453
    1   AR   Ar  218   4.653   2.938   4.918
    1   AR   Ar  219   5.226   1.541   3.389
    1   AR   Ar  220   5.183   3.079   2.426
    1   AR   Ar  221   6.565   0.489   5.177
    1   AR   Ar  222   4.556   1.508   6.143
    1   AR   Ar  223   7.094   0.729   7.267
    1   AR   Ar  224   5.547   2.012   5.589
    1   AR   Ar  225   4.958   5.020   0.383
    1   AR   Ar  226   4.883   4.335   2.502
    1   AR   Ar  227   6.665   5.116   0.192
    1   AR   Ar  228   5.173   5.840   1.207
    1   AR   Ar  229   5.748   4.030   1.084
    1   AR   Ar  230   4.387   4.690   3.376
    1   AR   Ar  231   6.612   2.134   3.204
    1   AR   Ar  232   4.552   3.234   0.607
    1   AR   Ar  233   6.294   2.231   4.246
    1   AR   Ar  234   6.917   3.557   4.186
    1   AR   Ar  235   0.414   2.624   4.393
    1   AR   Ar  236   5.159   4.422   4.319
    1   AR   Ar  237   5.648   3.231   4.237
    1   AR   Ar  238   4.915   4.552   5.391
    1   AR   Ar  239   5.727   3.857   9.306
    1   AR   Ar  240   6.923   4.207   5.283
    1   AR   Ar  241   0.060   0.279  -0.746
    1   AR   Ar  242   5.033   4.551   1.563
    1   AR   Ar  243   5.895   3.944   2.081
    1   AR   Ar  244   0.639   5.055  -1.045
    1   AR   Ar  245   5.610   7.103   2.212
    1   AR   Ar  246   5.988   6.437   1.488
    1   AR   Ar  247   5.049   3.494   1.549
    1   AR   Ar  248   5.893   6.990   0.524
    1   AR   Ar  249   5.476   5.758   2.495
    1   AR   Ar  250   4.748   6.482   4.269
    1   AR   Ar  251   5.625   5.380   4.626
    1   AR   Ar  252   5.639   6.129   3.499
    1   AR   Ar  253   6.040   4.691   5.671
    1   AR   Ar  254   5.236   5.417   6.451
    1   AR   Ar  255   5.135   4.372   6.884
    1   AR   Ar  256   5.910   6.854   4.378
    7.12000  7.12000 12.00000
Argon-slab step 1865
  256
    1   AR   Ar    1   7.024   1.648  -0.910
    1   AR   Ar    2   6.064   0.527   1.171
    1   AR   Ar    3   6.883   6.915   0.743
    1   AR   Ar    4   1.203   6.993   0.363
    1   AR   Ar    5   6.692   5.736   1.052
    1   AR   Ar    6   0.036   0.521   2.630
    1   AR   Ar    7   0.354   5.026   2.811
    1   AR   Ar    8   6.839   6.863   1.995
    1   AR   Ar    9   1.015   0.498   4.215
    1   AR   Ar   10   1.053   1.645   4.013
    1   AR   Ar   11   3.178   6.948   4.930
    1   AR   Ar   12   1.279   1.055   2.955
    1   AR   Ar   13   7.008   1.389   4.592
    1   AR   Ar   14   0.459   1.595   6.501
    1   AR   Ar   15   7.065   0.153   9.024
    1   AR   Ar   16   0.975   1.400   5.444
    1   AR   Ar   17   0.523   1.429  -0.079
    1   AR   Ar   18   6.355   3.394  -0.625
    1   AR   Ar   19   1.209   1.863   1.891
    1   AR   Ar   20   6.516   2.795  -2.539
    1   AR   Ar   21   6.390   1.226   2.852
    1   AR   Ar   22   0.047   1.759   2.262
    1   AR   Ar   23   6.910   1.051   1.339
    1   AR   Ar   24   0.305   1.967   1.115
    1   AR   Ar   25   0.253   1.403   3.298
    1   AR   Ar   26   6.165   1.199   3.854
    1   AR   Ar   27   2.053   1.097   3.688
    1   AR   Ar   28   1.296   2.431   5.128
    1   AR   Ar   29   5.741   1.598   6.593
    1   AR   Ar   30   0.729   2.660   6.018
    1   AR   Ar   31   0.617   0.027   6.691
    1   AR   Ar   32   1.790   3.082   6.113
    1   AR   Ar   33   1.458   4.454  -1.083
    1   AR   Ar   34   0.241   5.699   1.750
    1   AR   Ar   35   0.145   4.019   1.162
    1   AR   Ar   36   0.432   6.727  -1.601
    1   AR   Ar   37   7.116   2.879   2.639
    1   AR   Ar   38   7.034   4.282   2.141
    1   AR   Ar   39   1.431   4.353   2.455
    1   AR   Ar   40   1.336   3.936   1.422
    1   AR   Ar   41   0.805   2.383   3.378
    1   AR   Ar   42   6.702   5.327   5.099
    1   AR   Ar   43   6.802   2.493   5.170
    1   AR   Ar   44   0.252   4.156   3.454
    1   AR   Ar   45   1.068   3.575   5.358
    1   AR   Ar   46   0.330   5.939   6.421
    1   AR   Ar   47   5.882   3.696   6.505
    1   AR   Ar   48   6.234   6.920   6.621
    1   AR   Ar   49   6.699   6.172  -2.068
    1   AR   Ar   50   5.812   5.169   1.640
    1   AR   Ar   51   1.236   5.009   1.348
    1   AR   Ar   52   6.860   4.432  -0.984
    1   AR   Ar   53   6.316   6.382   2.674
    1   AR   Ar   54   6.931   6.572   3.451
    1   AR   Ar   55   6.400   4.825   3.124
    1   AR   Ar   56   0.668   6.768   1.496
    1   AR   Ar   57   6.485   3.573   3.009
    1   AR   Ar   58   6.523   5.651   4.179
    1   AR   Ar   59   1.468   5.611   5.605
    1   AR   Ar   60   0.559   6.619   4.250
    1   AR   Ar   61   5.889   6.230   5.325
    1   AR   Ar   62   0.594   5.976   5.256
    1   AR   Ar   63   1.800   6.357   6.368
    1   AR   Ar   64   1.286   6.849   5.183
    1   AR   Ar   65   3.265   6.934   0.367
    1   AR   Ar   66   1.703   1.028   0.974
    1   AR   Ar   67   3.566   6.335  -0.886
    1   AR   Ar   68   3.137   1.319  -1.790
    1   AR   Ar   69   2.325   0.175   0.730
    1   AR   Ar   70   0.713   0.726   1.698
    1   AR   Ar   71   3.063   0.715   2.691
    1   AR   Ar   72   2.856   0.497   1.607
    1   AR   Ar   73   1.650   7.116   3.518
    1   AR   Ar   74   1.695   1.287   4.685
    1   AR   Ar   75   3.609   0.954   4.905
    1   AR   Ar   76   2.128   1.153   2.337
    1   AR   Ar   77   2.358   6.625   5.547
    1   AR   Ar   78   1.305   0.675   6.070
    1   AR   Ar   79   3.721   6.075   6.773
    1   AR   Ar   80   2.882   5.753   5.315
    1   AR   Ar   81   1.942   1.590  -0.103
    1   AR   Ar   82   0.321   3.132  -0.677
    1   AR   Ar   83   2.247   2.251   0.627
    1   AR   Ar   84   0.905   3.960  -2.191
    1   AR   Ar   85   0.490   2.485   0.275
    1   AR   Ar   86   1.843   3.293   2.065
    1   AR   Ar   87   2.205   2.341   1.726
    1   AR   Ar   88   4.001   3.954   1.871
    1   AR   Ar   89   0.753   3.158   2.013
    1   AR   Ar   90   3.033   1.943   4.452
    1   AR   Ar   91   2.049   2.241   4.186
    1   AR   Ar   92   1.833   2.304   2.621
    1   AR   Ar   93   2.315   1.951   5.289
    1   AR   Ar   94   1.625   1.318   8.077
    1   AR   Ar   95   3.332   6.863   5.998
    1   AR   Ar   96   2.295   0.693   5.616
    1   AR   Ar   97   3.792   2.280  -1.344
    1   AR   Ar   98   2.824   4.161   1.282
    1   AR   Ar   99   6.680   2.733  -1.467
    1   AR   Ar  100   1.814   3.564  -0.429
    1   AR   Ar  101   1.518   3.170   0.587
    1   AR   Ar  102   2.503   3.577   3.947
    1   AR   Ar  103   0.962   4.673   0.184
    1   AR   Ar  104   2.963   2.205  -0.465
    1   AR   Ar  105   1.520   3.256   3.319
    1   AR   Ar  106   2.484   2.965   4.935
    1   AR   Ar  107   2.158   4.063   4.817
    1   AR   Ar  108   3.650   2.987   4.334
    1   AR   Ar  109   1.455   4.308   3.763
    1   AR   Ar  110   1.130   4.565   6.096
    1   AR   Ar  111   4.225   5.124   6.931
    1   AR   Ar  112   0.437   4.608   6.818
    1   AR   Ar  113   2.372   4.644   0.286
    1   AR   Ar  114   2.654   5.972   0.394
    1   AR   Ar  115   3.113   4.216  -0.470
    1   AR   Ar  116   4.781   6.328   0.207
    1   AR   Ar  117   0.557   5.545   3.850
    1   AR   Ar  118   0.724   6.663   2.902
    1   AR   Ar  119   2.570   4.259   3.103
    1   AR   Ar  120   1.339   5.453   2.713
    1   AR   Ar  121   6.910   4.626   4.242
    1   AR   Ar  122   2.457   6.273   4.471
    1   AR   Ar  123   2.382   5.154   4.756
    1   AR   Ar  124   2.371   5.931   2.897
    1   AR   Ar  125   0.560   4.872   5.055
    1   AR   Ar  126   0.484   0.359   5.201
    1   AR   Ar  127   2.840   5.487   7.453
    1   AR   Ar  128   2.107   5.409   6.581
    1   AR   Ar  129   1.566   0.109   2.110
    1   AR   Ar  130   3.545   1.098  -3.130
    1   AR   Ar  131   4.804   7.026   1.050
    1   AR   Ar  132   0.606   2.305  -1.149
    1   AR   Ar  133   3.880   0.246   2.880
    1   AR   Ar  134   3.735   1.412   2.863
    1   AR   Ar  135   4.978   0.580   2.617
    1   AR   Ar  136   4.265   0.291   1.861
    1   AR   Ar  137   3.006   7.030   3.605
    1   AR   Ar  138   4.712   1.082   5.251
    1   AR   Ar  139   5.873   1.379   4.798
    1   AR   Ar  140   4.299   0.980   3.602
    1   AR   Ar  141   3.934   7.111   3.958
    1   AR   Ar  142   4.195   7.109   5.279
    1   AR   Ar  143   5.359   0.028   6.068
    1   AR   Ar  144   4.693   0.606   6.687
    1   AR   Ar  145   3.727   3.727   0.301
    1   AR   Ar  146   4.271   2.745   1.659
    1   AR   Ar  147   6.000   1.939  -0.766
    1   AR   Ar  148   5.273   4.323  -2.460
    1   AR   Ar  149   3.766   2.147   0.761
    1   AR   Ar  150   2.673   1.799   3.026
    1   AR   Ar  151   3.595   2.368   3.418
    1   AR   Ar  152   2.577   3.256   0.298
    1   AR   Ar  153   3.016   0.870   4.075
    1   AR   Ar  154   4.096   1.836   4.348
    1   AR   Ar  155   5.514   0.997   5.777
    1   AR   Ar  156   3.649   4.007   3.348
    1   AR   Ar  157   2.988   2.821   5.884
    1   AR   Ar  158   1.001   2.687   7.075
    1   AR   Ar  159   3.652   0.858   5.966
    1   AR   Ar  160   3.665   2.523   7.494
    1   AR   Ar  161   5.613   2.089   0.492
    1   AR   Ar  162   4.239   5.717  -0.372
    1   AR   Ar  163   5.395   3.216   0.049
    1   AR   Ar  164   4.092   5.003   1.311
    1   AR   Ar  165   3.252   3.302   1.576
    1   AR   Ar  166   2.495   5.176   3.697
    1   AR   Ar  167   4.547   2.226   2.738
    1   AR   Ar  168   4.256   3.031  -0.704
    1   AR   Ar  169   2.562   2.992   3.021
    1   AR   Ar  170   3.353   3.758   4.949
    1   AR   Ar  171   4.381   3.716   4.322
    1   AR   Ar  172   4.416   5.400   4.086
    1   AR   Ar  173   1.813   3.894   7.016
    1   AR   Ar  174   3.600   5.332   6.076
    1   AR   Ar  175   4.262   3.991   6.231
    1   AR   Ar  176   3.595   4.937   5.009
    1   AR   Ar  177   5.893   6.179  -0.266
    1   AR   Ar  178   3.068   6.426   1.367
    1   AR   Ar  179   3.769   5.991   0.692
    1   AR   Ar  180   3.611   3.549  -2.407
    1   AR   Ar  181   2.350   5.512   1.246
    1   AR   Ar  182   2.627   6.855   2.406
    1   AR   Ar  183   3.727   4.679   2.565
    1   AR   Ar  184   4.166   6.359   1.619
    1   AR   Ar  185   1.369   5.325   4.438
    1   AR   Ar  186   3.478   5.894   4.123
    1   AR   Ar  187   4.086   6.194   3.237
    1   AR   Ar  188   3.286   5.953   2.304
    1   AR   Ar  189   2.460   4.754   5.792
    1   AR   Ar  190   4.446   6.306   6.068
    1   AR   Ar  191   4.953   5.542   5.342
    1   AR   Ar  192   3.920   5.942   5.098
    1   AR   Ar  193   7.088   6.236  -0.134
    1   AR   Ar  194   5.619   4.879  -0.837
    1   AR   Ar  195   6.030   0.315  -0.341
    1   AR   Ar  196   5.163   0.984  -1.048
    1   AR   Ar  197   5.289   0.984   0.352
    1   AR   Ar  198   5.837   1.547   1.376
    1   AR   Ar  199   5.114   0.801   1.622
    1   AR   Ar  200   6.533   1.572   0.143
    1   AR   Ar  201   4.875   6.954   3.370
    1   AR   Ar  202   5.081   2.224   4.177
    1   AR   Ar  203   6.800   6.490   4.999
    1   AR   Ar  204   5.254   0.677   4.169
    1   AR   Ar  205   5.915   0.135   3.123
    1   AR   Ar  206   5.195   0.024   5.006
    1   AR   Ar  207   6.968   0.554   6.171
    1   AR   Ar  208   7.026   0.570   3.986
    1   AR   Ar  209   4.740   2.278  -1.999
    1   AR   Ar  210   3.804   0.858   1.050
    1   AR   Ar  211   6.381   3.335   0.444
    1   AR   Ar  212   6.643   3.781  -1.864
    1   AR   Ar  213   3.290   2.262   2.262
    1   AR   Ar  214   3.740   3.245   2.683
    1   AR   Ar  215   5.732   2.087   2.265
    1   AR   Ar  216   6.837   3.085   1.639
    1   AR   Ar  217   4.467   3.143   3.457
    1   AR   Ar  218   4.668   2.936   4.919
    1   AR   Ar  219   5.216   1.552   3.422
    1   AR   Ar  220   5.198   3.054   2.406
    1   AR   Ar  221   6.576   0.494   5.187
    1   AR   Ar  222   4.556   1.503   6.150
    1   AR   Ar  223   7.112   0.749   7.264
    1   AR   Ar  224   5.535   2.002   5.582
    1   AR   Ar  225   4.958   5.008   0.398
    1   AR   Ar  226   4.898   4.356   2.477
    1   AR   Ar  227   6.653   5.127   0.201
    1   AR   Ar  228   5.197   5.846   1.182
    1   AR   Ar  229   5.744   4.001   1.062
    1   AR   Ar  230   4.402   4.698   3.358
    1   AR   Ar  231   6.645   2.148   3.241
    1   AR   Ar  232   4.564   3.230   0.641
    1   AR   Ar  233   6.315   2.219   4.230
    1   AR   Ar  234   6.931   3.561   4.198
    1   AR   Ar  235   0.446   2.598   4.387
    1   AR   Ar  236   5.169   4.439   4.314
    1   AR   Ar  237   5.699   3.251   4.245
    1   AR   Ar  238   4.945   4.555   5.414
    1   AR   Ar  239   5.754   3.857   9.303
    1   AR   Ar  240   6.929   4.197   5.293
    1   AR   Ar  241   0.078   0.298  -0.725
    1   AR   Ar  242   5.029   4.577   1.518
    1   AR   Ar  243   5.902   3.928   2.106
    1   AR   Ar  244   0.651   5.029  -1.068
    1   AR   Ar  245   5.607   7.117   2.228
    1   AR   Ar  246   5.991   6.435   1.480
    1   AR   Ar  247   5.029   3.535   1.544
    1   AR   Ar  248   5.907   6.989   0.513
    1   AR   Ar  249   5.457   5.745   2.522
    1   AR   Ar  250   4.746   6.481   4.294
    1   AR   Ar  251   5.614   5.404   4.630
    1   AR   Ar  252   5.611   6.122   3.488
    1   AR   Ar  253   6.006   4.677   5.676
    1   AR   Ar  254   5.259   5.421   6.464
    1   AR   Ar  255   5.135   4.336   6.876
    1   AR   Ar  256   5.891   6.839   4.366
    7.12000  7.12000 12.00000
Argon-slab step 1870
  256
    1   AR   Ar    1   7.032   1.661  -0.924
    1   AR   Ar    2   6.063   0.523   1.192
    1   AR   Ar    3   6.913   6.918   0.745
    1   AR   Ar    4   1.188   6.986   0.350
    1   AR   Ar    5   6.688   5.717   1.032
    1   AR   Ar    6   0.046   0.525   2.620
    1   AR   Ar    7   0.338   5.050   2.792
    1   AR   Ar    8   6.836   6.845   1.987
    1   AR   Ar    9   1.013   0.507   4.204
    1   AR   Ar   10   1.037   1.658   3.990
    1   AR   Ar   11   3.174   6.937   4.934
    1   AR   Ar   12   1.281   1.027   2.994
    1   AR   Ar   13   7.005   1.363   4.607
    1   AR   Ar   14   0.487   1.577   6.471
    1   AR   Ar   15   7.037   0.164   8.996
    1   AR   Ar   16   0.987   1.409   5.445
    1   AR   Ar   17   0.539   1.431  -0.070
    1   AR   Ar   18   6.348   3.384  -0.657
    1   AR   Ar   19   1.200   1.891   1.886
    1   AR   Ar   20   6.514   2.843  -2.532
    1   AR   Ar   21   6.409   1.259   2.843
    1   AR   Ar   22   0.040   1.723   2.289
    1   AR   Ar   23   6.933   1.028   1.336
    1   AR   Ar   24   0.279   1.978   1.140
    1   AR   Ar   25   0.290   1.421   3.286
    1   AR   Ar   26   6.149   1.204   3.835
    1   AR   Ar   27   2.108   1.094   3.655
    1   AR   Ar   28   1.298   2.417   5.148
    1   AR   Ar   29   5.722   1.603   6.590
    1   AR   Ar   30   0.731   2.627   6.010
    1   AR   Ar   31   0.625   0.005   6.682
    1   AR   Ar   32   1.817   3.082   6.104
    1   AR   Ar   33   1.464   4.476  -1.087
    1   AR   Ar   34   0.242   5.724   1.751
    1   AR   Ar   35   0.135   4.010   1.186
    1   AR   Ar   36   0.471   6.705  -1.597
    1   AR   Ar   37   7.086   2.846   2.629
    1   AR   Ar   38   7.023   4.280   2.200
    1   AR   Ar   39   1.427   4.343   2.491
    1   AR   Ar   40   1.315   3.949   1.437
    1   AR   Ar   41   0.796   2.366   3.405
    1   AR   Ar   42   6.709   5.313   5.110
    1   AR   Ar   43   6.811   2.501   5.179
    1   AR   Ar   44   0.235   4.171   3.447
    1   AR   Ar   45   1.088   3.562   5.329
    1   AR   Ar   46   0.319   5.922   6.436
    1   AR   Ar   47   5.903   3.685   6.507
    1   AR   Ar   48   6.236   6.899   6.623
    1   AR   Ar   49   6.671   6.196  -2.072
    1   AR   Ar   50   5.789   5.201   1.633
    1   AR   Ar   51   1.217   5.009   1.354
    1   AR   Ar   52   6.847   4.457  -0.976
    1   AR   Ar   53   6.278   6.387   2.666
    1   AR   Ar   54   6.963   6.604   3.445
    1   AR   Ar   55   6.379   4.818   3.105
    1   AR   Ar   56   0.659   6.769   1.516
    1   AR   Ar   57   6.513   3.588   3.070
    1   AR   Ar   58   6.527   5.642   4.162
    1   AR   Ar   59   1.462   5.631   5.627
    1   AR   Ar   60   0.536   6.597   4.251
    1   AR   Ar   61   5.914   6.224   5.368
    1   AR   Ar   62   0.604   5.931   5.235
    1   AR   Ar   63   1.797   6.356   6.392
    1   AR   Ar   64   1.292   6.851   5.177
    1   AR   Ar   65   3.284   6.915   0.339
    1   AR   Ar   66   1.698   1.032   0.960
    1   AR   Ar   67   3.573   6.308  -0.890
    1   AR   Ar   68   3.131   1.329  -1.810
    1   AR   Ar   69   2.315   0.166   0.725
    1   AR   Ar   70   0.690   0.752   1.731
    1   AR   Ar   71   3.030   0.728   2.733
    1   AR   Ar   72   2.848   0.518   1.633
    1   AR   Ar   73   1.643   0.031   3.546
    1   AR   Ar   74   1.688   1.272   4.650
    1   AR   Ar   75   3.576   0.951   4.901
    1   AR   Ar   76   2.119   1.170   2.348
    1   AR   Ar   77   2.351   6.655   5.517
    1   AR   Ar   78   1.310   0.689   6.087
    1   AR   Ar   79   3.700   6.097   6.790
    1   AR   Ar   80   2.896   5.758   5.310
    1   AR   Ar   81   1.932   1.600  -0.092
    1   AR   Ar   82   0.322   3.119  -0.656
    1   AR   Ar   83   2.246   2.242   0.611
    1   AR   Ar   84   0.866   3.935  -2.174
    1   AR   Ar   85   0.468   2.485   0.285
    1   AR   Ar   86   1.855   3.290   2.033
    1   AR   Ar   87   2.227   2.347   1.735
    1   AR   Ar   88   4.001   3.953   1.851
    1   AR   Ar   89   0.753   3.156   2.047
    1   AR   Ar   90   3.045   1.958   4.439
    1   AR   Ar   91   2.047   2.241   4.188
    1   AR   Ar   92   1.796   2.308   2.616
    1   AR   Ar   93   2.288   1.954   5.319
    1   AR   Ar   94   1.585   1.342   8.089
    1   AR   Ar   95   3.338   6.842   6.012
    1   AR   Ar   96   2.248   0.700   5.580
    1   AR   Ar   97   3.816   2.272  -1.305
    1   AR   Ar   98   2.815   4.143   1.268
    1   AR   Ar   99   6.696   2.728  -1.462
    1   AR   Ar  100   1.794   3.566  -0.414
    1   AR   Ar  101   1.544   3.211   0.585
    1   AR   Ar  102   2.488   3.562   3.923
    1   AR   Ar  103   0.964   4.696   0.175
    1   AR   Ar  104   2.969   2.190  -0.468
    1   AR   Ar  105   1.534   3.211   3.301
    1   AR   Ar  106   2.467   2.952   4.920
    1   AR   Ar  107   2.162   4.051   4.808
    1   AR   Ar  108   3.653   2.955   4.342
    1   AR   Ar  109   1.445   4.322   3.770
    1   AR   Ar  110   1.144   4.563   6.131
    1   AR   Ar  111   4.216   5.110   6.926
    1   AR   Ar  112   0.444   4.658   6.844
    1   AR   Ar  113   2.362   4.664   0.310
    1   AR   Ar  114   2.632   5.930   0.385
    1   AR   Ar  115   3.122   4.184  -0.485
    1   AR   Ar  116   4.779   6.325   0.216
    1   AR   Ar  117   0.578   5.528   3.845
    1   AR   Ar  118   0.737   6.654   2.901
    1   AR   Ar  119   2.615   4.254   3.107
    1   AR   Ar  120   1.366   5.462   2.744
    1   AR   Ar  121   6.916   4.603   4.297
    1   AR   Ar  122   2.490   6.269   4.487
    1   AR   Ar  123   2.393   5.120   4.742
    1   AR   Ar  124   2.381   5.945   2.884
    1   AR   Ar  125   0.570   4.869   5.069
    1   AR   Ar  126   0.472   0.388   5.243
    1   AR   Ar  127   2.817   5.482   7.499
    1   AR   Ar  128   2.102   5.408   6.579
    1   AR   Ar  129   1.585   0.092   2.146
    1   AR   Ar  130   3.541   1.086  -3.139
    1   AR   Ar  131   4.767   7.018   1.033
    1   AR   Ar  132   0.600   2.311  -1.138
    1   AR   Ar  133   3.897   0.232   2.901
    1   AR   Ar  134   3.736   1.439   2.880
    1   AR   Ar  135   4.970   0.592   2.622
    1   AR   Ar  136   4.291   0.323   1.840
    1   AR   Ar  137   2.991   7.007   3.595
    1   AR   Ar  138   4.708   1.101   5.222
    1   AR   Ar  139   5.904   1.388   4.836
    1   AR   Ar  140   4.289   0.961   3.628
    1   AR   Ar  141   3.938   7.115   3.960
    1   AR   Ar  142   4.184   7.106   5.276
    1   AR   Ar  143   5.350   0.027   6.057
    1   AR   Ar  144   4.664   0.603   6.694
    1   AR   Ar  145   3.746   3.727   0.311
    1   AR   Ar  146   4.283   2.752   1.675
    1   AR   Ar  147   6.010   1.939  -0.771
    1   AR   Ar  148   5.255   4.334  -2.472
    1   AR   Ar  149   3.734   2.136   0.763
    1   AR   Ar  150   2.639   1.827   3.061
    1   AR   Ar  151   3.590   2.359   3.414
    1   AR   Ar  152   2.583   3.252   0.288
    1   AR   Ar  153   3.018   0.832   4.054
    1   AR   Ar  154   4.095   1.820   4.358
    1   AR   Ar  155   5.517   0.980   5.747
    1   AR   Ar  156   3.665   3.987   3.360
    1   AR   Ar  157   3.012   2.828   5.885
    1   AR   Ar  158   0.974   2.696   7.079
    1   AR   Ar  159   3.643   0.913   5.967
    1   AR   Ar  160   3.648   2.512   7.485
    1   AR   Ar  161   5.594   2.074   0.514
    1   AR   Ar  162   4.247   5.699  -0.393
    1   AR   Ar  163   5.401   3.177   0.075
    1   AR   Ar  164   4.100   5.007   1.295
    1   AR   Ar  165   3.238   3.269   1.614
    1   AR   Ar  166   2.501   5.167   3.720
    1   AR   Ar  167   4.533   2.209   2.725
    1   AR   Ar  168   4.259   3.020  -0.725
    1   AR   Ar  169   2.565   2.977   2.998
    1   AR   Ar  170   3.327   3.758   4.952
    1   AR   Ar  171   4.395   3.721   4.345
    1   AR   Ar  172   4.413   5.374   4.080
    1   AR   Ar  173   1.803   3.919   6.999
    1   AR   Ar  174   3.628   5.323   6.075
    1   AR   Ar  175   4.262   3.978   6.246
    1   AR   Ar  176   3.612   4.951   4.989
    1   AR   Ar  177   5.901   6.179  -0.282
    1   AR   Ar  178   3.076   6.443   1.395
    1   AR   Ar  179   3.795   6.001   0.674
    1   AR   Ar  180   3.636   3.549  -2.432
    1   AR   Ar  181   2.354   5.497   1.216
    1   AR   Ar  182   2.604   6.890   2.403
    1   AR   Ar  183   3.711   4.718   2.548
    1   AR   Ar  184   4.181   6.383   1.604
    1   AR   Ar  185   1.373   5.285   4.417
    1   AR   Ar  186   3.459   5.887   4.094
    1   AR   Ar  187   4.097   6.156   3.229
    1   AR   Ar  188   3.286   5.965   2.307
    1   AR   Ar  189   2.443   4.746   5.781
    1   AR   Ar  190   4.447   6.299   6.087
    1   AR   Ar  191   4.943   5.541   5.372
    1   AR   Ar  192   3.927   5.962   5.106
    1   AR   Ar  193   7.093   6.226  -0.113
    1   AR   Ar  194   5.621   4.845  -0.808
    1   AR   Ar  195   6.031   0.304  -0.340
    1   AR   Ar  196   5.134   0.986  -1.036
    1   AR   Ar  197   5.276   0.974   0.354
    1   AR   Ar  198   5.840   1.526   1.389
    1   AR   Ar  199   5.136   0.815   1.607
    1   AR   Ar  200   6.525   1.586   0.159
    1   AR   Ar  201   4.868   6.996   3.376
    1   AR   Ar  202   5.092   2.271   4.142
    1   AR   Ar  203   6.758   6.482   4.989
    1   AR   Ar  204   5.264   0.681   4.155
    1   AR   Ar  205   5.897   0.157   3.147
    1   AR   Ar  206   5.196   0.035   4.998
    1   AR   Ar  207   6.964   0.560   6.155
    1   AR   Ar  208   7.058   0.577   4.011
    1   AR   Ar  209   4.727   2.258  -1.946
    1   AR   Ar  210   3.808   0.822   1.084
    1   AR   Ar  211   6.400   3.352   0.463
    1   AR   Ar  212   6.650   3.786  -1.863
    1   AR   Ar  213   3.283   2.227   2.262
    1   AR   Ar  214   3.753   3.273   2.643
    1   AR   Ar  215   5.746   2.098   2.230
    1   AR   Ar  216   6.817   3.127   1.632
    1   AR   Ar  217   4.453   3.126   3.459
    1   AR   Ar  218   4.685   2.930   4.922
    1   AR   Ar  219   5.218   1.549   3.429
    1   AR   Ar  220   5.213   3.027   2.393
    1   AR   Ar  221   6.580   0.500   5.193
    1   AR   Ar  222   4.556   1.504   6.163
    1   AR   Ar  223   0.009   0.769   7.260
    1   AR   Ar  224   5.522   1.999   5.574
    1   AR   Ar  225   4.959   4.997   0.415
    1   AR   Ar  226   4.911   4.373   2.460
    1   AR   Ar  227   6.641   5.137   0.206
    1   AR   Ar  228   5.212   5.854   1.152
    1   AR   Ar  229   5.753   3.976   1.028
    1   AR   Ar  230   4.424   4.704   3.340
    1   AR   Ar  231   6.677   2.167   3.277
    1   AR   Ar  232   4.575   3.230   0.674
    1   AR   Ar  233   6.335   2.209   4.218
    1   AR   Ar  234   6.942   3.559   4.212
    1   AR   Ar  235   0.478   2.571   4.380
    1   AR   Ar  236   5.179   4.458   4.308
    1   AR   Ar  237   5.749   3.271   4.252
    1   AR   Ar  238   4.973   4.547   5.439
    1   AR   Ar  239   5.781   3.858   9.300
    1   AR   Ar  240   6.933   4.183   5.302
    1   AR   Ar  241   0.094   0.318  -0.704
    1   AR   Ar  242   5.015   4.605   1.465
    1   AR   Ar  243   5.909   3.912   2.133
    1   AR   Ar  244   0.656   5.010  -1.091
    1   AR   Ar  245   5.613   7.113   2.215
    1   AR   Ar  246   5.995   6.436   1.473
    1   AR   Ar  247   4.998   3.572   1.540
    1   AR   Ar  248   5.904   6.964   0.496
    1   AR   Ar  249   5.437   5.730   2.546
    1   AR   Ar  250   4.743   6.476   4.322
    1   AR   Ar  251   5.608   5.426   4.626
    1   AR   Ar  252   5.583   6.117   3.482
    1   AR   Ar  253   5.970   4.665   5.682
    1   AR   Ar  254   5.281   5.424   6.475
    1   AR   Ar  255   5.132   4.304   6.867
    1   AR   Ar  256   5.880   6.821   4.346
    7.12000  7.12000 12.00000
Argon-slab step 1875
  256
    1   AR   Ar    1   7.065   1.666  -0.937
    1   AR   Ar    2   6.057   0.507   1.158
    1   AR   Ar    3   6.947   6.920   0.751
    1   AR   Ar    4   1.175   6.979   0.364
    1   AR   Ar    5   6.678   5.708   0.994
    1   AR   Ar    6   0.058   0.529   2.612
    1   AR   Ar    7   0.323   5.075   2.775
    1   AR   Ar    8   6.837   6.831   1.971
    1   AR   Ar    9   1.029   0.502   4.178
    1   AR   Ar   10   1.024   1.657   3.979
    1   AR   Ar   11   3.173   6.929   4.934
    1   AR   Ar   12   1.277   1.020   2.978
    1   AR   Ar   13   7.003   1.348   4.629
    1   AR   Ar   14   0.515   1.557   6.440
    1   AR   Ar   15   7.008   0.175   8.967
    1   AR   Ar   16   0.994   1.423   5.442
    1   AR   Ar   17   0.555   1.433  -0.059
    1   AR   Ar   18   6.341   3.375  -0.688
    1   AR   Ar   19   1.186   1.916   1.878
    1   AR   Ar   20   6.512   2.891  -2.525
    1   AR   Ar   21   6.422   1.287   2.829
    1   AR   Ar   22   0.036   1.690   2.310
    1   AR   Ar   23   6.952   1.009   1.332
    1   AR   Ar   24   0.252   1.986   1.173
    1   AR   Ar   25   0.329   1.447   3.265
    1   AR   Ar   26   6.131   1.213   3.810
    1   AR   Ar   27   2.159   1.091   3.622
    1   AR   Ar   28   1.292   2.407   5.153
    1   AR   Ar   29   5.702   1.608   6.588
    1   AR   Ar   30   0.736   2.605   6.017
    1   AR   Ar   31   0.633   7.102   6.671
    1   AR   Ar   32   1.844   3.081   6.093
    1   AR   Ar   33   1.482   4.488  -1.090
    1   AR   Ar   34   0.252   5.748   1.763
    1   AR   Ar   35   0.127   4.001   1.208
    1   AR   Ar   36   0.528   6.693  -1.620
    1   AR   Ar   37   7.058   2.811   2.618
    1   AR   Ar   38   7.010   4.275   2.261
    1   AR   Ar   39   1.422   4.333   2.527
    1   AR   Ar   40   1.292   3.963   1.449
    1   AR   Ar   41   0.781   2.367   3.413
    1   AR   Ar   42   6.720   5.324   5.123
    1   AR   Ar   43   6.820   2.508   5.188
    1   AR   Ar   44   0.222   4.187   3.435
    1   AR   Ar   45   1.109   3.549   5.301
    1   AR   Ar   46   0.308   5.905   6.448
    1   AR   Ar   47   5.925   3.673   6.506
    1   AR   Ar   48   6.240   6.877   6.624
    1   AR   Ar   49   6.644   6.219  -2.075
    1   AR   Ar   50   5.781   5.233   1.632
    1   AR   Ar   51   1.198   5.010   1.360
    1   AR   Ar   52   6.833   4.480  -0.968
    1   AR   Ar   53   6.235   6.386   2.663
    1   AR   Ar   54   6.965   6.638   3.439
    1   AR   Ar   55   6.359   4.810   3.086
    1   AR   Ar   56   0.653   6.770   1.535
    1   AR   Ar   57   6.538   3.606   3.133
    1   AR   Ar   58   6.534   5.639   4.140
    1   AR   Ar   59   1.467   5.646   5.653
    1   AR   Ar   60   0.515   6.576   4.255
    1   AR   Ar   61   5.921   6.213   5.417
    1   AR   Ar   62   0.605   5.892   5.209
    1   AR   Ar   63   1.790   6.362   6.416
    1   AR   Ar   64   1.295   6.845   5.162
    1   AR   Ar   65   3.262   6.924   0.364
    1   AR   Ar   66   1.692   1.038   0.947
    1   AR   Ar   67   3.576   6.285  -0.894
    1   AR   Ar   68   3.125   1.339  -1.830
    1   AR   Ar   69   2.304   0.155   0.721
    1   AR   Ar   70   0.675   0.777   1.770
    1   AR   Ar   71   2.986   0.741   2.774
    1   AR   Ar   72   2.842   0.539   1.660
    1   AR   Ar   73   1.641   0.063   3.569
    1   AR   Ar   74   1.687   1.252   4.621
    1   AR   Ar   75   3.548   0.948   4.898
    1   AR   Ar   76   2.110   1.187   2.356
    1   AR   Ar   77   2.340   6.687   5.488
    1   AR   Ar   78   1.313   0.699   6.108
    1   AR   Ar   79   3.676   6.128   6.824
    1   AR   Ar   80   2.917   5.768   5.315
    1   AR   Ar   81   1.919   1.605  -0.087
    1   AR   Ar   82   0.319   3.150  -0.708
    1   AR   Ar   83   2.245   2.235   0.608
    1   AR   Ar   84   0.825   3.911  -2.156
    1   AR   Ar   85   0.446   2.489   0.288
    1   AR   Ar   86   1.870   3.288   2.005
    1   AR   Ar   87   2.257   2.350   1.732
    1   AR   Ar   88   4.018   3.950   1.867
    1   AR   Ar   89   0.757   3.154   2.078
    1   AR   Ar   90   3.057   1.972   4.426
    1   AR   Ar   91   2.042   2.242   4.189
    1   AR   Ar   92   1.753   2.313   2.625
    1   AR   Ar   93   2.264   1.948   5.328
    1   AR   Ar   94   1.545   1.365   8.101
    1   AR   Ar   95   3.347   6.841   6.013
    1   AR   Ar   96   2.204   0.707   5.541
    1   AR   Ar   97   3.836   2.260  -1.268
    1   AR   Ar   98   2.804   4.127   1.246
    1   AR   Ar   99   6.714   2.722  -1.456
    1   AR   Ar  100   1.774   3.570  -0.400
    1   AR   Ar  101   1.569   3.250   0.584
    1   AR   Ar  102   2.465   3.558   3.905
    1   AR   Ar  103   0.966   4.718   0.167
    1   AR   Ar  104   2.975   2.175  -0.469
    1   AR   Ar  105   1.548   3.167   3.282
    1   AR   Ar  106   2.450   2.940   4.904
    1   AR   Ar  107   2.164   4.040   4.803
    1   AR   Ar  108   3.654   2.920   4.348
    1   AR   Ar  109   1.437   4.337   3.777
    1   AR   Ar  110   1.166   4.561   6.158
    1   AR   Ar  111   4.210   5.096   6.921
    1   AR   Ar  112   0.444   4.710   6.876
    1   AR   Ar  113   2.351   4.682   0.334
    1   AR   Ar  114   2.615   5.896   0.365
    1   AR   Ar  115   3.123   4.152  -0.496
    1   AR   Ar  116   4.783   6.324   0.227
    1   AR   Ar  117   0.590   5.513   3.835
    1   AR   Ar  118   0.752   6.645   2.898
    1   AR   Ar  119   2.659   4.248   3.110
    1   AR   Ar  120   1.392   5.472   2.775
    1   AR   Ar  121   6.921   4.587   4.352
    1   AR   Ar  122   2.519   6.264   4.499
    1   AR   Ar  123   2.399   5.080   4.726
    1   AR   Ar  124   2.388   5.959   2.874
    1   AR   Ar  125   0.574   4.860   5.097
    1   AR   Ar  126   0.465   0.420   5.285
    1   AR   Ar  127   2.794   5.476   7.543
    1   AR   Ar  128   2.094   5.407   6.568
    1   AR   Ar  129   1.602   0.076   2.183
    1   AR   Ar  130   3.536   1.074  -3.148
    1   AR   Ar  131   4.736   7.013   1.010
    1   AR   Ar  132   0.610   2.318  -1.136
    1   AR   Ar  133   3.921   0.214   2.922
    1   AR   Ar  134   3.741   1.469   2.895
    1   AR   Ar  135   4.952   0.618   2.638
    1   AR   Ar  136   4.308   0.350   1.828
    1   AR   Ar  137   2.970   6.980   3.580
    1   AR   Ar  138   4.693   1.120   5.179
    1   AR   Ar  139   5.935   1.394   4.871
    1   AR   Ar  140   4.283   0.942   3.657
    1   AR   Ar  141   3.945   7.118   3.968
    1   AR   Ar  142   4.172   7.103   5.274
    1   AR   Ar  143   5.339   0.019   6.046
    1   AR   Ar  144   4.635   0.599   6.701
    1   AR   Ar  145   3.748   3.728   0.318
    1   AR   Ar  146   4.294   2.760   1.692
    1   AR   Ar  147   6.017   1.940  -0.776
    1   AR   Ar  148   5.238   4.345  -2.483
    1   AR   Ar  149   3.703   2.126   0.766
    1   AR   Ar  150   2.607   1.856   3.097
    1   AR   Ar  151   3.585   2.352   3.410
    1   AR   Ar  152   2.607   3.258   0.263
    1   AR   Ar  153   3.022   0.795   4.030
    1   AR   Ar  154   4.096   1.803   4.368
    1   AR   Ar  155   5.533   0.960   5.724
    1   AR   Ar  156   3.679   3.966   3.379
    1   AR   Ar  157   3.035   2.834   5.885
    1   AR   Ar  158   0.988   2.702   7.087
    1   AR   Ar  159   3.635   0.966   5.968
    1   AR   Ar  160   3.631   2.502   7.476
    1   AR   Ar  161   5.583   2.076   0.528
    1   AR   Ar  162   4.254   5.674  -0.414
    1   AR   Ar  163   5.410   3.137   0.098
    1   AR   Ar  164   4.104   5.016   1.286
    1   AR   Ar  165   3.224   3.229   1.654
    1   AR   Ar  166   2.508   5.160   3.740
    1   AR   Ar  167   4.518   2.193   2.714
    1   AR   Ar  168   4.265   3.012  -0.743
    1   AR   Ar  169   2.570   2.961   2.973
    1   AR   Ar  170   3.300   3.761   4.955
    1   AR   Ar  171   4.408   3.732   4.366
    1   AR   Ar  172   4.412   5.355   4.082
    1   AR   Ar  173   1.792   3.944   6.981
    1   AR   Ar  174   3.655   5.313   6.067
    1   AR   Ar  175   4.263   3.967   6.259
    1   AR   Ar  176   3.628   4.962   4.968
    1   AR   Ar  177   5.909   6.178  -0.283
    1   AR   Ar  178   3.082   6.463   1.420
    1   AR   Ar  179   3.852   6.013   0.660
    1   AR   Ar  180   3.661   3.548  -2.457
    1   AR   Ar  181   2.355   5.475   1.199
    1   AR   Ar  182   2.583   6.925   2.400
    1   AR   Ar  183   3.693   4.759   2.529
    1   AR   Ar  184   4.194   6.402   1.594
    1   AR   Ar  185   1.387   5.272   4.400
    1   AR   Ar  186   3.438   5.881   4.065
    1   AR   Ar  187   4.108   6.120   3.221
    1   AR   Ar  188   3.289   5.976   2.312
    1   AR   Ar  189   2.425   4.739   5.769
    1   AR   Ar  190   4.450   6.293   6.102
    1   AR   Ar  191   4.927   5.551   5.407
    1   AR   Ar  192   3.937   5.986   5.114
    1   AR   Ar  193   7.096   6.217  -0.091
    1   AR   Ar  194   5.613   4.833  -0.809
    1   AR   Ar  195   6.025   0.284  -0.345
    1   AR   Ar  196   5.107   0.989  -1.023
    1   AR   Ar  197   5.265   0.964   0.358
    1   AR   Ar  198   5.849   1.507   1.397
    1   AR   Ar  199   5.138   0.811   1.608
    1   AR   Ar  200   6.510   1.613   0.169
    1   AR   Ar  201   4.862   7.037   3.383
    1   AR   Ar  202   5.103   2.323   4.110
    1   AR   Ar  203   6.732   6.480   4.970
    1   AR   Ar  204   5.273   0.684   4.139
    1   AR   Ar  205   5.903   0.159   3.151
    1   AR   Ar  206   5.194   0.051   4.998
    1   AR   Ar  207   6.961   0.568   6.142
    1   AR   Ar  208   7.089   0.574   4.029
    1   AR   Ar  209   4.714   2.239  -1.893
    1   AR   Ar  210   3.811   0.788   1.114
    1   AR   Ar  211   6.423   3.366   0.481
    1   AR   Ar  212   6.667   3.801  -1.860
    1   AR   Ar  213   3.275   2.195   2.261
    1   AR   Ar  214   3.764   3.293   2.599
    1   AR   Ar  215   5.760   2.110   2.202
    1   AR   Ar  216   6.795   3.168   1.624
    1   AR   Ar  217   4.454   3.120   3.452
    1   AR   Ar  218   4.703   2.919   4.929
    1   AR   Ar  219   5.220   1.542   3.430
    1   AR   Ar  220   5.215   3.004   2.382
    1   AR   Ar  221   6.574   0.505   5.194
    1   AR   Ar  222   4.558   1.509   6.178
    1   AR   Ar  223   0.026   0.789   7.254
    1   AR   Ar  224   5.505   2.003   5.567
    1   AR   Ar  225   4.959   4.988   0.432
    1   AR   Ar  226   4.925   4.387   2.444
    1   AR   Ar  227   6.627   5.144   0.202
    1   AR   Ar  228   5.216   5.865   1.116
    1   AR   Ar  229   5.768   3.955   0.988
    1   AR   Ar  230   4.449   4.708   3.319
    1   AR   Ar  231   6.708   2.186   3.310
    1   AR   Ar  232   4.589   3.250   0.687
    1   AR   Ar  233   6.351   2.200   4.213
    1   AR   Ar  234   6.953   3.552   4.228
    1   AR   Ar  235   0.507   2.544   4.377
    1   AR   Ar  236   5.190   4.478   4.302
    1   AR   Ar  237   5.737   3.263   4.244
    1   AR   Ar  238   4.995   4.529   5.463
    1   AR   Ar  239   5.808   3.858   9.297
    1   AR   Ar  240   6.934   4.167   5.312
    1   AR   Ar  241   0.109   0.338  -0.681
    1   AR   Ar  242   4.999   4.631   1.407
    1   AR   Ar  243   5.917   3.896   2.161
    1   AR   Ar  244   0.647   5.000  -1.112
    1   AR   Ar  245   5.626   7.098   2.183
    1   AR   Ar  246   6.002   6.438   1.466
    1   AR   Ar  247   4.961   3.607   1.542
    1   AR   Ar  248   5.891   6.920   0.485
    1   AR   Ar  249   5.414   5.713   2.563
    1   AR   Ar  250   4.741   6.466   4.350
    1   AR   Ar  251   5.605   5.447   4.617
    1   AR   Ar  252   5.556   6.114   3.484
    1   AR   Ar  253   5.939   4.653   5.689
    1   AR   Ar  254   5.302   5.427   6.483
    1   AR   Ar  255   5.127   4.275   6.858
    1   AR   Ar  256   5.875   6.800   4.319
    7.12000  7.12000 12.00000
Argon-slab step 1880
  256
    1   AR   Ar    1   7.083   1.657  -0.945
    1   AR   Ar    2   6.040   0.490   1.145
    1   AR   Ar    3   6.981   6.923   0.760
    1   AR   Ar    4   1.161   6.972   0.396
    1   AR   Ar    5   6.666   5.710   0.965
    1   AR   Ar    6   0.070   0.532   2.607
    1   AR   Ar    7   0.310   5.105   2.760
    1   AR   Ar    8   6.839   6.821   1.952
    1   AR   Ar    9   1.034   0.506   4.163
    1   AR   Ar   10   1.017   1.638   3.983
    1   AR   Ar   11   3.180   6.925   4.930
    1   AR   Ar   12   1.270   1.011   2.962
    1   AR   Ar   13   7.003   1.345   4.658
    1   AR   Ar   14   0.542   1.537   6.409
    1   AR   Ar   15   6.980   0.186   8.938
    1   AR   Ar   16   0.998   1.438   5.436
    1   AR   Ar   17   0.571   1.435  -0.047
    1   AR   Ar   18   6.333   3.368  -0.718
    1   AR   Ar   19   1.169   1.938   1.866
    1   AR   Ar   20   6.510   2.939  -2.517
    1   AR   Ar   21   6.424   1.308   2.815
    1   AR   Ar   22   0.041   1.663   2.319
    1   AR   Ar   23   6.961   0.993   1.323
    1   AR   Ar   24   0.224   1.993   1.210
    1   AR   Ar   25   0.363   1.465   3.246
    1   AR   Ar   26   6.120   1.220   3.790
    1   AR   Ar   27   2.199   1.087   3.586
    1   AR   Ar   28   1.275   2.404   5.137
    1   AR   Ar   29   5.682   1.612   6.586
    1   AR   Ar   30   0.747   2.600   6.047
    1   AR   Ar   31   0.641   7.078   6.660
    1   AR   Ar   32   1.869   3.081   6.080
    1   AR   Ar   33   1.504   4.494  -1.089
    1   AR   Ar   34   0.265   5.773   1.779
    1   AR   Ar   35   0.122   3.996   1.227
    1   AR   Ar   36   0.584   6.681  -1.642
    1   AR   Ar   37   7.062   2.792   2.599
    1   AR   Ar   38   6.996   4.267   2.322
    1   AR   Ar   39   1.416   4.322   2.565
    1   AR   Ar   40   1.266   3.976   1.459
    1   AR   Ar   41   0.763   2.390   3.397
    1   AR   Ar   42   6.730   5.341   5.140
    1   AR   Ar   43   6.830   2.515   5.197
    1   AR   Ar   44   0.222   4.197   3.437
    1   AR   Ar   45   1.130   3.536   5.273
    1   AR   Ar   46   0.308   5.884   6.463
    1   AR   Ar   47   5.938   3.663   6.511
    1   AR   Ar   48   6.245   6.856   6.624
    1   AR   Ar   49   6.618   6.243  -2.077
    1   AR   Ar   50   5.786   5.262   1.638
    1   AR   Ar   51   1.179   5.015   1.367
    1   AR   Ar   52   6.816   4.502  -0.958
    1   AR   Ar   53   6.192   6.379   2.663
    1   AR   Ar   54   6.924   6.676   3.427
    1   AR   Ar   55   6.340   4.802   3.068
    1   AR   Ar   56   0.651   6.771   1.552
    1   AR   Ar   57   6.559   3.624   3.195
    1   AR   Ar   58   6.552   5.641   4.131
    1   AR   Ar   59   1.480   5.658   5.681
    1   AR   Ar   60   0.495   6.555   4.262
    1   AR   Ar   61   5.912   6.198   5.474
    1   AR   Ar   62   0.597   5.860   5.178
    1   AR   Ar   63   1.780   6.375   6.438
    1   AR   Ar   64   1.298   6.839   5.146
    1   AR   Ar   65   3.232   6.939   0.403
    1   AR   Ar   66   1.680   1.044   0.932
    1   AR   Ar   67   3.577   6.264  -0.900
    1   AR   Ar   68   3.112   1.386  -1.797
    1   AR   Ar   69   2.298   0.150   0.716
    1   AR   Ar   70   0.674   0.801   1.814
    1   AR   Ar   71   2.939   0.753   2.819
    1   AR   Ar   72   2.835   0.561   1.685
    1   AR   Ar   73   1.649   0.089   3.580
    1   AR   Ar   74   1.694   1.231   4.598
    1   AR   Ar   75   3.523   0.944   4.898
    1   AR   Ar   76   2.101   1.207   2.360
    1   AR   Ar   77   2.325   6.718   5.463
    1   AR   Ar   78   1.314   0.704   6.132
    1   AR   Ar   79   3.650   6.158   6.859
    1   AR   Ar   80   2.940   5.778   5.326
    1   AR   Ar   81   1.903   1.603  -0.089
    1   AR   Ar   82   0.312   3.193  -0.752
    1   AR   Ar   83   2.244   2.228   0.621
    1   AR   Ar   84   0.784   3.886  -2.135
    1   AR   Ar   85   0.425   2.495   0.286
    1   AR   Ar   86   1.887   3.286   1.982
    1   AR   Ar   87   2.291   2.351   1.724
    1   AR   Ar   88   4.036   3.954   1.877
    1   AR   Ar   89   0.765   3.155   2.107
    1   AR   Ar   90   3.065   1.985   4.413
    1   AR   Ar   91   2.034   2.241   4.187
    1   AR   Ar   92   1.709   2.319   2.644
    1   AR   Ar   93   2.244   1.930   5.303
    1   AR   Ar   94   1.505   1.388   8.112
    1   AR   Ar   95   3.358   6.839   6.014
    1   AR   Ar   96   2.161   0.714   5.499
    1   AR   Ar   97   3.851   2.243  -1.233
    1   AR   Ar   98   2.794   4.114   1.222
    1   AR   Ar   99   6.732   2.714  -1.448
    1   AR   Ar  100   1.754   3.575  -0.389
    1   AR   Ar  101   1.591   3.288   0.588
    1   AR   Ar  102   2.438   3.559   3.891
    1   AR   Ar  103   0.968   4.740   0.158
    1   AR   Ar  104   2.947   2.170  -0.493
    1   AR   Ar  105   1.562   3.124   3.264
    1   AR   Ar  106   2.434   2.930   4.888
    1   AR   Ar  107   2.165   4.027   4.799
    1   AR   Ar  108   3.656   2.884   4.354
    1   AR   Ar  109   1.429   4.351   3.782
    1   AR   Ar  110   1.192   4.559   6.179
    1   AR   Ar  111   4.207   5.080   6.918
    1   AR   Ar  112   0.442   4.763   6.910
    1   AR   Ar  113   2.341   4.700   0.359
    1   AR   Ar  114   2.604   5.869   0.332
    1   AR   Ar  115   3.094   4.116  -0.497
    1   AR   Ar  116   4.791   6.324   0.235
    1   AR   Ar  117   0.595   5.499   3.821
    1   AR   Ar  118   0.770   6.637   2.893
    1   AR   Ar  119   2.702   4.242   3.110
    1   AR   Ar  120   1.406   5.486   2.797
    1   AR   Ar  121   6.926   4.576   4.403
    1   AR   Ar  122   2.542   6.257   4.503
    1   AR   Ar  123   2.402   5.052   4.728
    1   AR   Ar  124   2.374   5.968   2.879
    1   AR   Ar  125   0.583   4.848   5.123
    1   AR   Ar  126   0.464   0.451   5.324
    1   AR   Ar  127   2.776   5.474   7.576
    1   AR   Ar  128   2.089   5.399   6.559
    1   AR   Ar  129   1.614   0.064   2.219
    1   AR   Ar  130   3.531   1.062  -3.156
    1   AR   Ar  131   4.714   7.014   0.981
    1   AR   Ar  132   0.638   2.328  -1.142
    1   AR   Ar  133   3.944   0.195   2.940
    1   AR   Ar  134   3.747   1.494   2.909
    1   AR   Ar  135   4.932   0.652   2.659
    1   AR   Ar  136   4.316   0.366   1.835
    1   AR   Ar  137   2.945   6.948   3.562
    1   AR   Ar  138   4.671   1.137   5.130
    1   AR   Ar  139   5.969   1.398   4.899
    1   AR   Ar  140   4.278   0.910   3.650
    1   AR   Ar  141   3.951   7.118   3.982
    1   AR   Ar  142   4.160   7.101   5.272
    1   AR   Ar  143   5.326   0.003   6.039
    1   AR   Ar  144   4.606   0.592   6.708
    1   AR   Ar  145   3.697   3.727   0.314
    1   AR   Ar  146   4.303   2.767   1.710
    1   AR   Ar  147   6.024   1.942  -0.780
    1   AR   Ar  148   5.222   4.356  -2.494
    1   AR   Ar  149   3.671   2.116   0.769
    1   AR   Ar  150   2.580   1.886   3.133
    1   AR   Ar  151   3.579   2.349   3.408
    1   AR   Ar  152   2.634   3.265   0.240
    1   AR   Ar  153   3.034   0.758   4.007
    1   AR   Ar  154   4.101   1.787   4.377
    1   AR   Ar  155   5.555   0.938   5.704
    1   AR   Ar  156   3.691   3.945   3.402
    1   AR   Ar  157   3.058   2.841   5.883
    1   AR   Ar  158   1.004   2.703   7.090
    1   AR   Ar  159   3.627   1.017   5.970
    1   AR   Ar  160   3.615   2.491   7.466
    1   AR   Ar  161   5.576   2.090   0.537
    1   AR   Ar  162   4.264   5.644  -0.433
    1   AR   Ar  163   5.426   3.097   0.117
    1   AR   Ar  164   4.098   5.029   1.275
    1   AR   Ar  165   3.209   3.184   1.694
    1   AR   Ar  166   2.515   5.155   3.750
    1   AR   Ar  167   4.503   2.179   2.702
    1   AR   Ar  168   4.273   3.010  -0.756
    1   AR   Ar  169   2.580   2.946   2.947
    1   AR   Ar  170   3.272   3.765   4.958
    1   AR   Ar  171   4.417   3.749   4.385
    1   AR   Ar  172   4.412   5.342   4.094
    1   AR   Ar  173   1.780   3.968   6.961
    1   AR   Ar  174   3.681   5.305   6.053
    1   AR   Ar  175   4.264   3.957   6.272
    1   AR   Ar  176   3.642   4.972   4.947
    1   AR   Ar  177   5.917   6.175  -0.263
    1   AR   Ar  178   3.086   6.486   1.440
    1   AR   Ar  179   3.907   6.023   0.644
    1   AR   Ar  180   3.687   3.547  -2.481
    1   AR   Ar  181   2.351   5.447   1.195
    1   AR   Ar  182   2.567   6.957   2.398
    1   AR   Ar  183   3.675   4.801   2.509
    1   AR   Ar  184   4.204   6.416   1.590
    1   AR   Ar  185   1.417   5.278   4.389
    1   AR   Ar  186   3.416   5.875   4.038
    1   AR   Ar  187   4.121   6.085   3.213
    1   AR   Ar  188   3.296   5.985   2.320
    1   AR   Ar  189   2.408   4.731   5.755
    1   AR   Ar  190   4.454   6.288   6.115
    1   AR   Ar  191   4.909   5.567   5.444
    1   AR   Ar  192   3.950   6.014   5.121
    1   AR   Ar  193   7.098   6.206  -0.068
    1   AR   Ar  194   5.604   4.825  -0.816
    1   AR   Ar  195   6.028   0.283  -0.369
    1   AR   Ar  196   5.080   0.993  -1.008
    1   AR   Ar  197   5.256   0.952   0.363
    1   AR   Ar  198   5.865   1.489   1.399
    1   AR   Ar  199   5.140   0.804   1.610
    1   AR   Ar  200   6.498   1.639   0.179
    1   AR   Ar  201   4.856   7.073   3.395
    1   AR   Ar  202   5.113   2.376   4.080
    1   AR   Ar  203   6.723   6.482   4.943
    1   AR   Ar  204   5.280   0.686   4.122
    1   AR   Ar  205   5.912   0.165   3.164
    1   AR   Ar  206   5.193   0.070   5.001
    1   AR   Ar  207   6.959   0.577   6.136
    1   AR   Ar  208   7.119   0.560   4.039
    1   AR   Ar  209   4.702   2.219  -1.840
    1   AR   Ar  210   3.805   0.759   1.132
    1   AR   Ar  211   6.453   3.377   0.497
    1   AR   Ar  212   6.684   3.815  -1.855
    1   AR   Ar  213   3.267   2.167   2.260
    1   AR   Ar  214   3.775   3.304   2.557
    1   AR   Ar  215   5.776   2.124   2.180
    1   AR   Ar  216   6.770   3.207   1.618
    1   AR   Ar  217   4.465   3.123   3.439
    1   AR   Ar  218   4.722   2.904   4.937
    1   AR   Ar  219   5.218   1.533   3.425
    1   AR   Ar  220   5.213   2.984   2.373
    1   AR   Ar  221   6.558   0.510   5.187
    1   AR   Ar  222   4.562   1.518   6.191
    1   AR   Ar  223   0.037   0.804   7.258
    1   AR   Ar  224   5.485   2.013   5.563
    1   AR   Ar  225   4.974   4.970   0.431
    1   AR   Ar  226   4.939   4.399   2.427
    1   AR   Ar  227   6.612   5.145   0.184
    1   AR   Ar  228   5.209   5.881   1.074
    1   AR   Ar  229   5.783   3.939   0.950
    1   AR   Ar  230   4.475   4.707   3.296
    1   AR   Ar  231   6.741   2.204   3.337
    1   AR   Ar  232   4.598   3.265   0.699
    1   AR   Ar  233   6.361   2.194   4.224
    1   AR   Ar  234   6.962   3.539   4.244
    1   AR   Ar  235   0.533   2.519   4.379
    1   AR   Ar  236   5.201   4.498   4.296
    1   AR   Ar  237   5.710   3.247   4.232
    1   AR   Ar  238   5.003   4.504   5.484
    1   AR   Ar  239   5.836   3.859   9.294
    1   AR   Ar  240   6.933   4.148   5.325
    1   AR   Ar  241   0.124   0.357  -0.657
    1   AR   Ar  242   4.988   4.650   1.352
    1   AR   Ar  243   5.935   3.900   2.186
    1   AR   Ar  244   0.628   4.997  -1.134
    1   AR   Ar  245   5.638   7.083   2.143
    1   AR   Ar  246   6.008   6.432   1.466
    1   AR   Ar  247   4.928   3.640   1.554
    1   AR   Ar  248   5.871   6.862   0.482
    1   AR   Ar  249   5.388   5.692   2.573
    1   AR   Ar  250   4.737   6.453   4.378
    1   AR   Ar  251   5.602   5.469   4.607
    1   AR   Ar  252   5.530   6.116   3.495
    1   AR   Ar  253   5.921   4.645   5.698
    1   AR   Ar  254   5.321   5.428   6.490
    1   AR   Ar  255   5.119   4.250   6.850
    1   AR   Ar  256   5.873   6.776   4.288
    7.12000  7.12000 12.00000
Argon-slab step 1885
  256
    1   AR   Ar    1   7.085   1.649  -0.942
    1   AR   Ar    2   6.025   0.471   1.134
    1   AR   Ar    3   7.013   6.927   0.771
    1   AR   Ar    4   1.147   6.965   0.430
    1   AR   Ar    5   6.652   5.723   0.948
    1   AR   Ar    6   0.080   0.534   2.607
    1   AR   Ar    7   0.300   5.137   2.746
    1   AR   Ar    8   6.840   6.815   1.936
    1   AR   Ar    9   1.026   0.519   4.163
    1   AR   Ar   10   1.020   1.623   3.992
    1   AR   Ar   11   3.186   6.929   4.944
    1   AR   Ar   12   1.261   1.000   2.948
    1   AR   Ar   13   7.006   1.350   4.689
    1   AR   Ar   14   0.569   1.515   6.379
    1   AR   Ar   15   6.952   0.197   8.909
    1   AR   Ar   16   1.002   1.452   5.427
    1   AR   Ar   17   0.587   1.436  -0.034
    1   AR   Ar   18   6.324   3.362  -0.745
    1   AR   Ar   19   1.145   1.954   1.856
    1   AR   Ar   20   6.507   2.988  -2.510
    1   AR   Ar   21   6.410   1.320   2.805
    1   AR   Ar   22   0.043   1.646   2.338
    1   AR   Ar   23   6.961   0.979   1.309
    1   AR   Ar   24   0.197   2.000   1.250
    1   AR   Ar   25   0.390   1.470   3.229
    1   AR   Ar   26   6.116   1.224   3.776
    1   AR   Ar   27   2.225   1.080   3.552
    1   AR   Ar   28   1.262   2.404   5.118
    1   AR   Ar   29   5.664   1.612   6.580
    1   AR   Ar   30   0.757   2.596   6.075
    1   AR   Ar   31   0.649   7.055   6.647
    1   AR   Ar   32   1.894   3.080   6.066
    1   AR   Ar   33   1.535   4.494  -1.076
    1   AR   Ar   34   0.264   5.777   1.756
    1   AR   Ar   35   0.121   3.999   1.243
    1   AR   Ar   36   0.580   6.691  -1.686
    1   AR   Ar   37   7.073   2.779   2.575
    1   AR   Ar   38   6.980   4.253   2.380
    1   AR   Ar   39   1.410   4.311   2.602
    1   AR   Ar   40   1.239   3.986   1.469
    1   AR   Ar   41   0.755   2.390   3.388
    1   AR   Ar   42   6.738   5.360   5.160
    1   AR   Ar   43   6.841   2.521   5.204
    1   AR   Ar   44   0.226   4.192   3.461
    1   AR   Ar   45   1.139   3.522   5.255
    1   AR   Ar   46   0.344   5.840   6.488
    1   AR   Ar   47   5.945   3.653   6.519
    1   AR   Ar   48   6.251   6.836   6.623
    1   AR   Ar   49   6.592   6.267  -2.079
    1   AR   Ar   50   5.798   5.289   1.648
    1   AR   Ar   51   1.159   5.023   1.373
    1   AR   Ar   52   6.788   4.550  -0.967
    1   AR   Ar   53   6.153   6.368   2.664
    1   AR   Ar   54   6.880   6.716   3.416
    1   AR   Ar   55   6.321   4.793   3.049
    1   AR   Ar   56   0.656   6.796   1.586
    1   AR   Ar   57   6.571   3.636   3.254
    1   AR   Ar   58   6.572   5.645   4.118
    1   AR   Ar   59   1.497   5.667   5.708
    1   AR   Ar   60   0.477   6.535   4.270
    1   AR   Ar   61   5.895   6.181   5.534
    1   AR   Ar   62   0.585   5.838   5.144
    1   AR   Ar   63   1.768   6.395   6.458
    1   AR   Ar   64   1.290   6.836   5.136
    1   AR   Ar   65   3.206   6.951   0.442
    1   AR   Ar   66   1.648   1.045   0.904
    1   AR   Ar   67   3.575   6.247  -0.907
    1   AR   Ar   68   3.099   1.434  -1.764
    1   AR   Ar   69   2.311   0.176   0.704
    1   AR   Ar   70   0.688   0.823   1.861
    1   AR   Ar   71   2.896   0.765   2.866
    1   AR   Ar   72   2.828   0.585   1.709
    1   AR   Ar   73   1.674   0.103   3.575
    1   AR   Ar   74   1.709   1.207   4.581
    1   AR   Ar   75   3.501   0.940   4.900
    1   AR   Ar   76   2.071   1.208   2.378
    1   AR   Ar   77   2.306   6.748   5.443
    1   AR   Ar   78   1.312   0.707   6.158
    1   AR   Ar   79   3.623   6.187   6.893
    1   AR   Ar   80   2.934   5.767   5.355
    1   AR   Ar   81   1.883   1.595  -0.095
    1   AR   Ar   82   0.302   3.245  -0.792
    1   AR   Ar   83   2.246   2.227   0.640
    1   AR   Ar   84   0.741   3.862  -2.114
    1   AR   Ar   85   0.404   2.504   0.282
    1   AR   Ar   86   1.904   3.285   1.962
    1   AR   Ar   87   2.291   2.355   1.745
    1   AR   Ar   88   4.050   3.971   1.880
    1   AR   Ar   89   0.777   3.157   2.133
    1   AR   Ar   90   3.071   1.997   4.400
    1   AR   Ar   91   2.023   2.238   4.182
    1   AR   Ar   92   1.666   2.322   2.665
    1   AR   Ar   93   2.224   1.910   5.278
    1   AR   Ar   94   1.464   1.412   8.123
    1   AR   Ar   95   3.369   6.836   6.013
    1   AR   Ar   96   2.121   0.722   5.454
    1   AR   Ar   97   3.858   2.217  -1.200
    1   AR   Ar   98   2.783   4.099   1.198
    1   AR   Ar   99   6.751   2.703  -1.442
    1   AR   Ar  100   1.734   3.584  -0.383
    1   AR   Ar  101   1.613   3.324   0.598
    1   AR   Ar  102   2.411   3.557   3.876
    1   AR   Ar  103   0.972   4.762   0.150
    1   AR   Ar  104   2.918   2.166  -0.515
    1   AR   Ar  105   1.574   3.088   3.250
    1   AR   Ar  106   2.419   2.922   4.874
    1   AR   Ar  107   2.163   4.014   4.799
    1   AR   Ar  108   3.650   2.886   4.334
    1   AR   Ar  109   1.432   4.345   3.769
    1   AR   Ar  110   1.222   4.558   6.197
    1   AR   Ar  111   4.207   5.064   6.918
    1   AR   Ar  112   0.438   4.817   6.945
    1   AR   Ar  113   2.330   4.717   0.383
    1   AR   Ar  114   2.598   5.847   0.291
    1   AR   Ar  115   3.062   4.081  -0.498
    1   AR   Ar  116   4.806   6.324   0.234
    1   AR   Ar  117   0.592   5.490   3.809
    1   AR   Ar  118   0.789   6.630   2.886
    1   AR   Ar  119   2.743   4.238   3.107
    1   AR   Ar  120   1.372   5.520   2.780
    1   AR   Ar  121   6.929   4.572   4.447
    1   AR   Ar  122   2.558   6.247   4.500
    1   AR   Ar  123   2.403   5.044   4.754
    1   AR   Ar  124   2.361   5.978   2.887
    1   AR   Ar  125   0.597   4.831   5.150
    1   AR   Ar  126   0.472   0.483   5.359
    1   AR   Ar  127   2.772   5.484   7.571
    1   AR   Ar  128   2.097   5.383   6.540
    1   AR   Ar  129   1.618   0.053   2.226
    1   AR   Ar  130   3.526   1.051  -3.163
    1   AR   Ar  131   4.699   7.024   0.949
    1   AR   Ar  132   0.679   2.341  -1.155
    1   AR   Ar  133   3.961   0.175   2.951
    1   AR   Ar  134   3.758   1.511   2.915
    1   AR   Ar  135   4.907   0.680   2.684
    1   AR   Ar  136   4.316   0.364   1.864
    1   AR   Ar  137   2.920   6.911   3.541
    1   AR   Ar  138   4.648   1.154   5.078
    1   AR   Ar  139   6.003   1.401   4.918
    1   AR   Ar  140   4.277   0.874   3.621
    1   AR   Ar  141   3.954   7.113   4.003
    1   AR   Ar  142   4.150   7.101   5.271
    1   AR   Ar  143   5.310   7.100   6.036
    1   AR   Ar  144   4.609   0.600   6.742
    1   AR   Ar  145   3.645   3.726   0.311
    1   AR   Ar  146   4.309   2.774   1.730
    1   AR   Ar  147   6.030   1.945  -0.785
    1   AR   Ar  148   5.205   4.367  -2.505
    1   AR   Ar  149   3.652   2.082   0.791
    1   AR   Ar  150   2.559   1.922   3.166
    1   AR   Ar  151   3.571   2.353   3.408
    1   AR   Ar  152   2.662   3.272   0.216
    1   AR   Ar  153   3.054   0.722   3.985
    1   AR   Ar  154   4.110   1.771   4.384
    1   AR   Ar  155   5.576   0.917   5.689
    1   AR   Ar  156   3.705   3.925   3.429
    1   AR   Ar  157   3.078   2.848   5.879
    1   AR   Ar  158   1.021   2.704   7.094
    1   AR   Ar  159   3.620   1.065   5.972
    1   AR   Ar  160   3.598   2.481   7.456
    1   AR   Ar  161   5.567   2.104   0.545
    1   AR   Ar  162   4.276   5.610  -0.448
    1   AR   Ar  163   5.446   3.057   0.132
    1   AR   Ar  164   4.078   5.029   1.262
    1   AR   Ar  165   3.191   3.137   1.731
    1   AR   Ar  166   2.517   5.150   3.748
    1   AR   Ar  167   4.490   2.168   2.691
    1   AR   Ar  168   4.285   3.016  -0.763
    1   AR   Ar  169   2.592   2.933   2.918
    1   AR   Ar  170   3.243   3.769   4.961
    1   AR   Ar  171   4.423   3.767   4.401
    1   AR   Ar  172   4.413   5.335   4.112
    1   AR   Ar  173   1.768   3.993   6.939
    1   AR   Ar  174   3.704   5.300   6.035
    1   AR   Ar  175   4.263   3.948   6.282
    1   AR   Ar  176   3.657   4.982   4.924
    1   AR   Ar  177   5.924   6.167  -0.247
    1   AR   Ar  178   3.089   6.512   1.455
    1   AR   Ar  179   3.955   6.030   0.630
    1   AR   Ar  180   3.712   3.547  -2.505
    1   AR   Ar  181   2.345   5.413   1.202
    1   AR   Ar  182   2.561   6.983   2.401
    1   AR   Ar  183   3.656   4.843   2.490
    1   AR   Ar  184   4.209   6.422   1.594
    1   AR   Ar  185   1.449   5.284   4.382
    1   AR   Ar  186   3.396   5.869   4.012
    1   AR   Ar  187   4.134   6.051   3.206
    1   AR   Ar  188   3.307   5.992   2.332
    1   AR   Ar  189   2.398   4.736   5.761
    1   AR   Ar  190   4.458   6.283   6.126
    1   AR   Ar  191   4.891   5.585   5.481
    1   AR   Ar  192   3.965   6.043   5.127
    1   AR   Ar  193   7.099   6.196  -0.045
    1   AR   Ar  194   5.596   4.818  -0.822
    1   AR   Ar  195   6.059   0.324  -0.421
    1   AR   Ar  196   5.055   0.997  -0.992
    1   AR   Ar  197   5.250   0.939   0.371
    1   AR   Ar  198   5.887   1.473   1.395
    1   AR   Ar  199   5.151   0.802   1.606
    1   AR   Ar  200   6.488   1.664   0.191
    1   AR   Ar  201   4.854   7.103   3.414
    1   AR   Ar  202   5.123   2.427   4.050
    1   AR   Ar  203   6.721   6.487   4.911
    1   AR   Ar  204   5.285   0.686   4.107
    1   AR   Ar  205   5.922   0.174   3.181
    1   AR   Ar  206   5.193   0.092   5.005
    1   AR   Ar  207   6.956   0.587   6.139
    1   AR   Ar  208   0.025   0.539   4.043
    1   AR   Ar  209   4.694   2.199  -1.788
    1   AR   Ar  210   3.790   0.738   1.135
    1   AR   Ar  211   6.454   3.383   0.510
    1   AR   Ar  212   6.703   3.829  -1.849
    1   AR   Ar  213   3.258   2.142   2.258
    1   AR   Ar  214   3.784   3.302   2.527
    1   AR   Ar  215   5.793   2.139   2.165
    1   AR   Ar  216   6.740   3.238   1.615
    1   AR   Ar  217   4.477   3.123   3.426
    1   AR   Ar  218   4.732   2.890   4.939
    1   AR   Ar  219   5.210   1.525   3.416
    1   AR   Ar  220   5.208   2.968   2.366
    1   AR   Ar  221   6.533   0.512   5.175
    1   AR   Ar  222   4.570   1.529   6.203
    1   AR   Ar  223   0.049   0.819   7.260
    1   AR   Ar  224   5.460   2.028   5.561
    1   AR   Ar  225   5.013   4.942   0.397
    1   AR   Ar  226   4.955   4.408   2.405
    1   AR   Ar  227   6.595   5.137   0.152
    1   AR   Ar  228   5.197   5.897   1.031
    1   AR   Ar  229   5.790   3.931   0.918
    1   AR   Ar  230   4.487   4.731   3.302
    1   AR   Ar  231   6.775   2.218   3.356
    1   AR   Ar  232   4.600   3.277   0.705
    1   AR   Ar  233   6.364   2.188   4.250
    1   AR   Ar  234   6.971   3.520   4.261
    1   AR   Ar  235   0.554   2.495   4.387
    1   AR   Ar  236   5.212   4.519   4.289
    1   AR   Ar  237   5.684   3.233   4.219
    1   AR   Ar  238   4.991   4.473   5.500
    1   AR   Ar  239   5.863   3.859   9.291
    1   AR   Ar  240   6.929   4.125   5.345
    1   AR   Ar  241   0.148   0.364  -0.663
    1   AR   Ar  242   4.990   4.662   1.310
    1   AR   Ar  243   5.941   3.898   2.183
    1   AR   Ar  244   0.604   4.999  -1.155
    1   AR   Ar  245   5.644   7.075   2.103
    1   AR   Ar  246   6.013   6.416   1.469
    1   AR   Ar  247   4.918   3.665   1.564
    1   AR   Ar  248   5.846   6.799   0.485
    1   AR   Ar  249   5.358   5.667   2.578
    1   AR   Ar  250   4.734   6.438   4.404
    1   AR   Ar  251   5.600   5.493   4.597
    1   AR   Ar  252   5.503   6.119   3.512
    1   AR   Ar  253   5.924   4.641   5.712
    1   AR   Ar  254   5.339   5.429   6.495
    1   AR   Ar  255   5.111   4.228   6.841
    1   AR   Ar  256   5.870   6.744   4.279
    7.12000  7.12000 12.00000
Argon-slab step 1890
  256
    1   AR   Ar    1   7.074   1.655  -0.928
    1   AR   Ar    2   6.013   0.449   1.123
    1   AR   Ar    3   7.043   6.931   0.784
    1   AR   Ar    4   1.133   6.959   0.465
    1   AR   Ar    5   6.639   5.743   0.938
    1   AR   Ar    6   0.085   0.533   2.614
    1   AR   Ar    7   0.290   5.173   2.735
    1   AR   Ar    8   6.836   6.812   1.924
    1   AR   Ar    9   1.013   0.537   4.174
    1   AR   Ar   10   1.045   1.645   3.991
    1   AR   Ar   11   3.185   6.943   4.984
    1   AR   Ar   12   1.250   0.984   2.937
    1   AR   Ar   13   7.016   1.360   4.721
    1   AR   Ar   14   0.594   1.492   6.352
    1   AR   Ar   15   6.928   0.209   8.886
    1   AR   Ar   16   1.005   1.464   5.414
    1   AR   Ar   17   0.602   1.437  -0.020
    1   AR   Ar   18   6.313   3.360  -0.770
    1   AR   Ar   19   1.116   1.962   1.850
    1   AR   Ar   20   6.505   3.036  -2.503
    1   AR   Ar   21   6.378   1.324   2.802
    1   AR   Ar   22   0.066   1.661   2.329
    1   AR   Ar   23   6.959   0.974   1.298
    1   AR   Ar   24   0.169   2.009   1.290
    1   AR   Ar   25   0.409   1.462   3.218
    1   AR   Ar   26   6.121   1.227   3.770
    1   AR   Ar   27   2.232   1.069   3.525
    1   AR   Ar   28   1.255   2.408   5.101
    1   AR   Ar   29   5.660   1.599   6.559
    1   AR   Ar   30   0.767   2.592   6.099
    1   AR   Ar   31   0.656   7.031   6.633
    1   AR   Ar   32   1.918   3.079   6.050
    1   AR   Ar   33   1.568   4.491  -1.061
    1   AR   Ar   34   0.263   5.780   1.734
    1   AR   Ar   35   0.127   4.011   1.256
    1   AR   Ar   36   0.560   6.705  -1.735
    1   AR   Ar   37   7.081   2.767   2.548
    1   AR   Ar   38   6.965   4.234   2.437
    1   AR   Ar   39   1.403   4.299   2.640
    1   AR   Ar   40   1.212   3.993   1.478
    1   AR   Ar   41   0.748   2.403   3.368
    1   AR   Ar   42   6.735   5.370   5.171
    1   AR   Ar   43   6.853   2.525   5.211
    1   AR   Ar   44   0.241   4.190   3.466
    1   AR   Ar   45   1.138   3.507   5.243
    1   AR   Ar   46   0.381   5.797   6.511
    1   AR   Ar   47   5.953   3.642   6.525
    1   AR   Ar   48   6.258   6.816   6.619
    1   AR   Ar   49   6.567   6.291  -2.080
    1   AR   Ar   50   5.815   5.315   1.659
    1   AR   Ar   51   1.139   5.035   1.379
    1   AR   Ar   52   6.756   4.596  -0.974
    1   AR   Ar   53   6.118   6.354   2.666
    1   AR   Ar   54   6.872   6.720   3.414
    1   AR   Ar   55   6.303   4.785   3.032
    1   AR   Ar   56   0.670   6.822   1.619
    1   AR   Ar   57   6.571   3.640   3.307
    1   AR   Ar   58   6.592   5.650   4.103
    1   AR   Ar   59   1.513   5.674   5.731
    1   AR   Ar   60   0.461   6.517   4.278
    1   AR   Ar   61   5.875   6.163   5.594
    1   AR   Ar   62   0.573   5.825   5.109
    1   AR   Ar   63   1.752   6.412   6.470
    1   AR   Ar   64   1.266   6.834   5.135
    1   AR   Ar   65   3.191   6.958   0.479
    1   AR   Ar   66   1.614   1.047   0.878
    1   AR   Ar   67   3.570   6.231  -0.913
    1   AR   Ar   68   3.088   1.482  -1.731
    1   AR   Ar   69   2.315   0.205   0.697
    1   AR   Ar   70   0.713   0.848   1.906
    1   AR   Ar   71   2.862   0.774   2.909
    1   AR   Ar   72   2.856   0.566   1.728
    1   AR   Ar   73   1.711   0.111   3.558
    1   AR   Ar   74   1.732   1.182   4.569
    1   AR   Ar   75   3.482   0.936   4.903
    1   AR   Ar   76   2.045   1.213   2.391
    1   AR   Ar   77   2.286   6.775   5.428
    1   AR   Ar   78   1.307   0.708   6.185
    1   AR   Ar   79   3.596   6.213   6.927
    1   AR   Ar   80   2.920   5.752   5.391
    1   AR   Ar   81   1.861   1.585  -0.105
    1   AR   Ar   82   0.292   3.300  -0.830
    1   AR   Ar   83   2.250   2.230   0.662
    1   AR   Ar   84   0.698   3.838  -2.091
    1   AR   Ar   85   0.382   2.513   0.276
    1   AR   Ar   86   1.920   3.288   1.945
    1   AR   Ar   87   2.269   2.360   1.786
    1   AR   Ar   88   4.057   4.003   1.875
    1   AR   Ar   89   0.797   3.162   2.156
    1   AR   Ar   90   3.072   2.005   4.386
    1   AR   Ar   91   2.008   2.233   4.174
    1   AR   Ar   92   1.626   2.313   2.680
    1   AR   Ar   93   2.204   1.890   5.253
    1   AR   Ar   94   1.423   1.435   8.134
    1   AR   Ar   95   3.380   6.831   6.012
    1   AR   Ar   96   2.082   0.729   5.408
    1   AR   Ar   97   3.855   2.184  -1.168
    1   AR   Ar   98   2.772   4.084   1.173
    1   AR   Ar   99   6.771   2.689  -1.438
    1   AR   Ar  100   1.716   3.594  -0.382
    1   AR   Ar  101   1.634   3.358   0.616
    1   AR   Ar  102   2.385   3.552   3.861
    1   AR   Ar  103   0.975   4.783   0.141
    1   AR   Ar  104   2.888   2.162  -0.537
    1   AR   Ar  105   1.581   3.070   3.240
    1   AR   Ar  106   2.406   2.917   4.861
    1   AR   Ar  107   2.159   4.000   4.801
    1   AR   Ar  108   3.639   2.917   4.297
    1   AR   Ar  109   1.452   4.308   3.730
    1   AR   Ar  110   1.233   4.568   6.196
    1   AR   Ar  111   4.211   5.046   6.918
    1   AR   Ar  112   0.434   4.871   6.980
    1   AR   Ar  113   2.319   4.732   0.405
    1   AR   Ar  114   2.594   5.828   0.246
    1   AR   Ar  115   3.028   4.046  -0.500
    1   AR   Ar  116   4.828   6.327   0.212
    1   AR   Ar  117   0.581   5.502   3.815
    1   AR   Ar  118   0.808   6.624   2.880
    1   AR   Ar  119   2.783   4.235   3.102
    1   AR   Ar  120   1.337   5.552   2.764
    1   AR   Ar  121   6.932   4.574   4.480
    1   AR   Ar  122   2.565   6.236   4.492
    1   AR   Ar  123   2.406   5.038   4.785
    1   AR   Ar  124   2.351   5.977   2.897
    1   AR   Ar  125   0.616   4.808   5.177
    1   AR   Ar  126   0.487   0.513   5.387
    1   AR   Ar  127   2.769   5.494   7.564
    1   AR   Ar  128   2.116   5.364   6.519
    1   AR   Ar  129   1.608   0.047   2.224
    1   AR   Ar  130   3.520   1.039  -3.170
    1   AR   Ar  131   4.689   7.044   0.917
    1   AR   Ar  132   0.694   2.334  -1.172
    1   AR   Ar  133   3.969   0.152   2.954
    1   AR   Ar  134   3.783   1.526   2.895
    1   AR   Ar  135   4.875   0.695   2.714
    1   AR   Ar  136   4.311   0.351   1.908
    1   AR   Ar  137   2.894   6.870   3.517
    1   AR   Ar  138   4.633   1.169   5.043
    1   AR   Ar  139   6.036   1.406   4.928
    1   AR   Ar  140   4.280   0.850   3.596
    1   AR   Ar  141   3.951   7.101   4.031
    1   AR   Ar  142   4.144   7.104   5.272
    1   AR   Ar  143   5.293   7.072   6.038
    1   AR   Ar  144   4.613   0.607   6.774
    1   AR   Ar  145   3.596   3.725   0.312
    1   AR   Ar  146   4.315   2.780   1.748
    1   AR   Ar  147   6.035   1.949  -0.788
    1   AR   Ar  148   5.189   4.378  -2.516
    1   AR   Ar  149   3.636   2.042   0.819
    1   AR   Ar  150   2.543   1.963   3.195
    1   AR   Ar  151   3.562   2.366   3.411
    1   AR   Ar  152   2.689   3.278   0.194
    1   AR   Ar  153   3.082   0.686   3.966
    1   AR   Ar  154   4.120   1.755   4.388
    1   AR   Ar  155   5.596   0.895   5.679
    1   AR   Ar  156   3.720   3.904   3.458
    1   AR   Ar  157   3.097   2.856   5.874
    1   AR   Ar  158   1.039   2.706   7.100
    1   AR   Ar  159   3.612   1.111   5.974
    1   AR   Ar  160   3.582   2.470   7.446
    1   AR   Ar  161   5.559   2.115   0.555
    1   AR   Ar  162   4.291   5.574  -0.460
    1   AR   Ar  163   5.470   3.020   0.143
    1   AR   Ar  164   4.076   5.011   1.251
    1   AR   Ar  165   3.208   3.130   1.736
    1   AR   Ar  166   2.492   5.139   3.737
    1   AR   Ar  167   4.483   2.164   2.679
    1   AR   Ar  168   4.302   3.028  -0.766
    1   AR   Ar  169   2.608   2.923   2.887
    1   AR   Ar  170   3.255   3.797   4.963
    1   AR   Ar  171   4.428   3.786   4.415
    1   AR   Ar  172   4.413   5.334   4.137
    1   AR   Ar  173   1.756   4.016   6.917
    1   AR   Ar  174   3.727   5.297   6.012
    1   AR   Ar  175   4.260   3.940   6.290
    1   AR   Ar  176   3.670   4.992   4.901
    1   AR   Ar  177   5.934   6.148  -0.242
    1   AR   Ar  178   3.090   6.540   1.467
    1   AR   Ar  179   3.992   6.033   0.619
    1   AR   Ar  180   3.739   3.546  -2.528
    1   AR   Ar  181   2.337   5.379   1.215
    1   AR   Ar  182   2.566   7.001   2.409
    1   AR   Ar  183   3.639   4.884   2.472
    1   AR   Ar  184   4.211   6.424   1.605
    1   AR   Ar  185   1.481   5.290   4.377
    1   AR   Ar  186   3.379   5.862   3.986
    1   AR   Ar  187   4.149   6.019   3.199
    1   AR   Ar  188   3.320   5.998   2.347
    1   AR   Ar  189   2.394   4.747   5.779
    1   AR   Ar  190   4.448   6.264   6.131
    1   AR   Ar  191   4.875   5.600   5.514
    1   AR   Ar  192   3.978   6.073   5.131
    1   AR   Ar  193   7.098   6.185  -0.022
    1   AR   Ar  194   5.612   4.807  -0.821
    1   AR   Ar  195   6.089   0.367  -0.471
    1   AR   Ar  196   5.025   1.015  -0.988
    1   AR   Ar  197   5.245   0.926   0.380
    1   AR   Ar  198   5.902   1.451   1.403
    1   AR   Ar  199   5.166   0.803   1.601
    1   AR   Ar  200   6.481   1.687   0.202
    1   AR   Ar  201   4.850   0.000   3.436
    1   AR   Ar  202   5.126   2.468   4.016
    1   AR   Ar  203   6.722   6.492   4.879
    1   AR   Ar  204   5.286   0.686   4.089
    1   AR   Ar  205   5.931   0.186   3.199
    1   AR   Ar  206   5.194   0.115   5.008
    1   AR   Ar  207   6.950   0.598   6.151
    1   AR   Ar  208   0.042   0.516   4.043
    1   AR   Ar  209   4.690   2.179  -1.739
    1   AR   Ar  210   3.766   0.722   1.127
    1   AR   Ar  211   6.447   3.378   0.518
    1   AR   Ar  212   6.722   3.842  -1.840
    1   AR   Ar  213   3.248   2.121   2.256
    1   AR   Ar  214   3.793   3.300   2.510
    1   AR   Ar  215   5.814   2.153   2.155
    1   AR   Ar  216   6.704   3.261   1.617
    1   AR   Ar  217   4.487   3.123   3.413
    1   AR   Ar  218   4.726   2.879   4.931
    1   AR   Ar  219   5.196   1.518   3.402
    1   AR   Ar  220   5.200   2.957   2.362
    1   AR   Ar  221   6.505   0.509   5.161
    1   AR   Ar  222   4.580   1.542   6.212
    1   AR   Ar  223   0.061   0.834   7.260
    1   AR   Ar  224   5.433   2.044   5.559
    1   AR   Ar  225   5.051   4.921   0.344
    1   AR   Ar  226   4.972   4.418   2.381
    1   AR   Ar  227   6.577   5.122   0.109
    1   AR   Ar  228   5.184   5.910   0.995
    1   AR   Ar  229   5.781   3.936   0.895
    1   AR   Ar  230   4.494   4.757   3.311
    1   AR   Ar  231   6.811   2.230   3.371
    1   AR   Ar  232   4.596   3.285   0.706
    1   AR   Ar  233   6.362   2.184   4.287
    1   AR   Ar  234   6.981   3.498   4.280
    1   AR   Ar  235   0.566   2.474   4.397
    1   AR   Ar  236   5.223   4.540   4.283
    1   AR   Ar  237   5.665   3.228   4.209
    1   AR   Ar  238   4.962   4.439   5.513
    1   AR   Ar  239   5.890   3.859   9.288
    1   AR   Ar  240   6.924   4.097   5.372
    1   AR   Ar  241   0.174   0.367  -0.676
    1   AR   Ar  242   5.002   4.666   1.287
    1   AR   Ar  243   5.947   3.896   2.180
    1   AR   Ar  244   0.580   5.003  -1.177
    1   AR   Ar  245   5.644   7.079   2.069
    1   AR   Ar  246   6.026   6.413   1.447
    1   AR   Ar  247   4.964   3.664   1.541
    1   AR   Ar  248   5.818   6.744   0.497
    1   AR   Ar  249   5.326   5.639   2.580
    1   AR   Ar  250   4.731   6.420   4.429
    1   AR   Ar  251   5.596   5.519   4.589
    1   AR   Ar  252   5.474   6.123   3.532
    1   AR   Ar  253   5.926   4.665   5.695
    1   AR   Ar  254   5.356   5.429   6.499
    1   AR   Ar  255   5.104   4.211   6.833
    1   AR   Ar  256   5.865   6.701   4.306
    7.12000  7.12000 12.00000
Argon-slab step 1895
  256
    1   AR   Ar    1   7.061   1.658  -0.911
    1   AR   Ar    2   6.005   0.422   1.110
    1   AR   Ar    3   7.071   6.935   0.799
    1   AR   Ar    4   1.117   6.954   0.502
    1   AR   Ar    5   6.648   5.760   0.948
    1   AR   Ar    6   0.084   0.529   2.629
    1   AR   Ar    7   0.289   5.185   2.748
    1   AR   Ar    8   6.828   6.812   1.918
    1   AR   Ar    9   1.006   0.556   4.187
    1   AR   Ar   10   1.073   1.663   3.992
    1   AR   Ar   11   3.186   6.959   5.016
    1   AR   Ar   12   1.237   0.962   2.930
    1   AR   Ar   13   7.037   1.372   4.751
    1   AR   Ar   14   0.614   1.470   6.330
    1   AR   Ar   15   6.921   0.226   8.888
    1   AR   Ar   16   1.011   1.471   5.395
    1   AR   Ar   17   0.618   1.439  -0.006
    1   AR   Ar   18   6.301   3.359  -0.791
    1   AR   Ar   19   1.084   1.968   1.842
    1   AR   Ar   20   6.503   3.082  -2.496
    1   AR   Ar   21   6.339   1.325   2.795
    1   AR   Ar   22   0.094   1.682   2.302
    1   AR   Ar   23   6.945   0.972   1.301
    1   AR   Ar   24   0.141   2.018   1.329
    1   AR   Ar   25   0.421   1.445   3.217
    1   AR   Ar   26   6.133   1.229   3.773
    1   AR   Ar   27   2.209   1.065   3.520
    1   AR   Ar   28   1.257   2.415   5.095
    1   AR   Ar   29   5.655   1.585   6.537
    1   AR   Ar   30   0.776   2.587   6.118
    1   AR   Ar   31   0.662   7.008   6.618
    1   AR   Ar   32   1.941   3.077   6.032
    1   AR   Ar   33   1.601   4.489  -1.046
    1   AR   Ar   34   0.263   5.783   1.714
    1   AR   Ar   35   0.138   4.031   1.265
    1   AR   Ar   36   0.538   6.720  -1.783
    1   AR   Ar   37   7.083   2.755   2.520
    1   AR   Ar   38   6.952   4.211   2.488
    1   AR   Ar   39   1.395   4.286   2.675
    1   AR   Ar   40   1.196   3.990   1.489
    1   AR   Ar   41   0.743   2.427   3.341
    1   AR   Ar   42   6.701   5.344   5.139
    1   AR   Ar   43   6.867   2.530   5.217
    1   AR   Ar   44   0.257   4.193   3.449
    1   AR   Ar   45   1.138   3.492   5.232
    1   AR   Ar   46   0.419   5.760   6.530
    1   AR   Ar   47   5.963   3.632   6.529
    1   AR   Ar   48   6.265   6.797   6.614
    1   AR   Ar   49   6.543   6.315  -2.080
    1   AR   Ar   50   5.834   5.340   1.670
    1   AR   Ar   51   1.126   5.041   1.385
    1   AR   Ar   52   6.720   4.639  -0.979
    1   AR   Ar   53   6.086   6.338   2.669
    1   AR   Ar   54   6.872   6.715   3.415
    1   AR   Ar   55   6.283   4.778   3.017
    1   AR   Ar   56   0.693   6.850   1.649
    1   AR   Ar   57   6.558   3.636   3.356
    1   AR   Ar   58   6.614   5.657   4.088
    1   AR   Ar   59   1.516   5.664   5.746
    1   AR   Ar   60   0.447   6.501   4.282
    1   AR   Ar   61   5.854   6.145   5.654
    1   AR   Ar   62   0.564   5.819   5.073
    1   AR   Ar   63   1.720   6.401   6.451
    1   AR   Ar   64   1.242   6.817   5.140
    1   AR   Ar   65   3.191   6.960   0.512
    1   AR   Ar   66   1.580   1.050   0.853
    1   AR   Ar   67   3.564   6.216  -0.920
    1   AR   Ar   68   3.077   1.532  -1.696
    1   AR   Ar   69   2.306   0.238   0.695
    1   AR   Ar   70   0.748   0.875   1.945
    1   AR   Ar   71   2.854   0.774   2.932
    1   AR   Ar   72   2.893   0.542   1.743
    1   AR   Ar   73   1.753   0.115   3.535
    1   AR   Ar   74   1.761   1.160   4.554
    1   AR   Ar   75   3.465   0.932   4.907
    1   AR   Ar   76   2.026   1.222   2.396
    1   AR   Ar   77   2.266   6.798   5.415
    1   AR   Ar   78   1.303   0.706   6.211
    1   AR   Ar   79   3.569   6.238   6.959
    1   AR   Ar   80   2.908   5.740   5.430
    1   AR   Ar   81   1.838   1.574  -0.116
    1   AR   Ar   82   0.283   3.359  -0.867
    1   AR   Ar   83   2.255   2.236   0.685
    1   AR   Ar   84   0.654   3.814  -2.066
    1   AR   Ar   85   0.359   2.522   0.269
    1   AR   Ar   86   1.935   3.298   1.931
    1   AR   Ar   87   2.249   2.357   1.827
    1   AR   Ar   88   4.065   4.024   1.863
    1   AR   Ar   89   0.825   3.170   2.176
    1   AR   Ar   90   3.070   2.012   4.373
    1   AR   Ar   91   1.990   2.226   4.162
    1   AR   Ar   92   1.590   2.285   2.685
    1   AR   Ar   93   2.186   1.869   5.228
    1   AR   Ar   94   1.382   1.459   8.144
    1   AR   Ar   95   3.383   6.805   6.002
    1   AR   Ar   96   2.046   0.735   5.367
    1   AR   Ar   97   3.863   2.186  -1.179
    1   AR   Ar   98   2.763   4.066   1.148
    1   AR   Ar   99   6.790   2.671  -1.437
    1   AR   Ar  100   1.698   3.606  -0.386
    1   AR   Ar  101   1.655   3.391   0.640
    1   AR   Ar  102   2.399   3.541   3.866
    1   AR   Ar  103   0.980   4.803   0.133
    1   AR   Ar  104   2.859   2.158  -0.557
    1   AR   Ar  105   1.574   3.082   3.223
    1   AR   Ar  106   2.396   2.915   4.851
    1   AR   Ar  107   2.153   3.986   4.806
    1   AR   Ar  108   3.636   2.934   4.275
    1   AR   Ar  109   1.473   4.272   3.692
    1   AR   Ar  110   1.244   4.566   6.190
    1   AR   Ar  111   4.217   5.029   6.920
    1   AR   Ar  112   0.431   4.921   7.016
    1   AR   Ar  113   2.306   4.743   0.422
    1   AR   Ar  114   2.591   5.810   0.202
    1   AR   Ar  115   2.990   4.014  -0.505
    1   AR   Ar  116   4.857   6.338   0.162
    1   AR   Ar  117   0.568   5.513   3.819
    1   AR   Ar  118   0.820   6.623   2.878
    1   AR   Ar  119   2.820   4.232   3.096
    1   AR   Ar  120   1.300   5.584   2.747
    1   AR   Ar  121   6.935   4.579   4.503
    1   AR   Ar  122   2.566   6.224   4.483
    1   AR   Ar  123   2.413   5.034   4.814
    1   AR   Ar  124   2.345   5.968   2.908
    1   AR   Ar  125   0.638   4.779   5.204
    1   AR   Ar  126   0.490   0.540   5.414
    1   AR   Ar  127   2.767   5.505   7.555
    1   AR   Ar  128   2.135   5.349   6.508
    1   AR   Ar  129   1.587   0.044   2.221
    1   AR   Ar  130   3.515   1.028  -3.176
    1   AR   Ar  131   4.682   7.072   0.888
    1   AR   Ar  132   0.695   2.308  -1.188
    1   AR   Ar  133   3.964   0.122   2.947
    1   AR   Ar  134   3.801   1.519   2.879
    1   AR   Ar  135   4.848   0.718   2.740
    1   AR   Ar  136   4.301   0.330   1.957
    1   AR   Ar  137   2.867   6.826   3.492
    1   AR   Ar  138   4.626   1.180   5.024
    1   AR   Ar  139   6.060   1.417   4.933
    1   AR   Ar  140   4.283   0.842   3.578
    1   AR   Ar  141   3.944   7.083   4.065
    1   AR   Ar  142   4.147   7.111   5.273
    1   AR   Ar  143   5.274   7.040   6.043
    1   AR   Ar  144   4.617   0.612   6.805
    1   AR   Ar  145   3.556   3.725   0.318
    1   AR   Ar  146   4.319   2.785   1.763
    1   AR   Ar  147   6.039   1.954  -0.792
    1   AR   Ar  148   5.173   4.388  -2.526
    1   AR   Ar  149   3.620   2.003   0.847
    1   AR   Ar  150   2.530   2.004   3.223
    1   AR   Ar  151   3.551   2.384   3.414
    1   AR   Ar  152   2.708   3.280   0.172
    1   AR   Ar  153   3.114   0.650   3.948
    1   AR   Ar  154   4.128   1.745   4.386
    1   AR   Ar  155   5.611   0.874   5.674
    1   AR   Ar  156   3.738   3.882   3.488
    1   AR   Ar  157   3.115   2.864   5.866
    1   AR   Ar  158   1.058   2.708   7.108
    1   AR   Ar  159   3.605   1.156   5.976
    1   AR   Ar  160   3.565   2.459   7.435
    1   AR   Ar  161   5.549   2.117   0.570
    1   AR   Ar  162   4.308   5.537  -0.470
    1   AR   Ar  163   5.495   2.993   0.149
    1   AR   Ar  164   4.083   4.992   1.241
    1   AR   Ar  165   3.228   3.130   1.725
    1   AR   Ar  166   2.468   5.129   3.723
    1   AR   Ar  167   4.480   2.183   2.670
    1   AR   Ar  168   4.320   3.044  -0.766
    1   AR   Ar  169   2.626   2.921   2.852
    1   AR   Ar  170   3.276   3.831   4.965
    1   AR   Ar  171   4.430   3.806   4.428
    1   AR   Ar  172   4.414   5.339   4.169
    1   AR   Ar  173   1.746   4.038   6.896
    1   AR   Ar  174   3.716   5.304   5.986
    1   AR   Ar  175   4.254   3.932   6.295
    1   AR   Ar  176   3.682   5.003   4.879
    1   AR   Ar  177   5.946   6.116  -0.250
    1   AR   Ar  178   3.091   6.571   1.477
    1   AR   Ar  179   4.017   6.031   0.614
    1   AR   Ar  180   3.765   3.545  -2.552
    1   AR   Ar  181   2.330   5.347   1.233
    1   AR   Ar  182   2.581   7.009   2.425
    1   AR   Ar  183   3.622   4.924   2.454
    1   AR   Ar  184   4.211   6.422   1.620
    1   AR   Ar  185   1.510   5.297   4.373
    1   AR   Ar  186   3.367   5.854   3.959
    1   AR   Ar  187   4.164   5.987   3.192
    1   AR   Ar  188   3.335   6.004   2.365
    1   AR   Ar  189   2.391   4.752   5.794
    1   AR   Ar  190   4.432   6.250   6.141
    1   AR   Ar  191   4.864   5.608   5.540
    1   AR   Ar  192   3.987   6.099   5.135
    1   AR   Ar  193   7.096   6.173   0.002
    1   AR   Ar  194   5.615   4.776  -0.818
    1   AR   Ar  195   6.104   0.388  -0.522
    1   AR   Ar  196   4.992   1.043  -0.990
    1   AR   Ar  197   5.241   0.912   0.390
    1   AR   Ar  198   5.922   1.433   1.410
    1   AR   Ar  199   5.175   0.804   1.595
    1   AR   Ar  200   6.468   1.685   0.216
    1   AR   Ar  201   4.822   7.116   3.454
    1   AR   Ar  202   5.118   2.490   3.978
    1   AR   Ar  203   6.722   6.496   4.851
    1   AR   Ar  204   5.283   0.687   4.070
    1   AR   Ar  205   5.940   0.199   3.219
    1   AR   Ar  206   5.196   0.139   5.007
    1   AR   Ar  207   6.924   0.568   6.175
    1   AR   Ar  208   0.046   0.491   4.041
    1   AR   Ar  209   4.694   2.159  -1.694
    1   AR   Ar  210   3.758   0.727   1.133
    1   AR   Ar  211   6.457   3.359   0.515
    1   AR   Ar  212   6.742   3.856  -1.827
    1   AR   Ar  213   3.235   2.105   2.252
    1   AR   Ar  214   3.806   3.332   2.489
    1   AR   Ar  215   5.838   2.167   2.149
    1   AR   Ar  216   6.662   3.276   1.623
    1   AR   Ar  217   4.498   3.121   3.400
    1   AR   Ar  218   4.721   2.867   4.922
    1   AR   Ar  219   5.178   1.514   3.385
    1   AR   Ar  220   5.190   2.951   2.359
    1   AR   Ar  221   6.478   0.500   5.144
    1   AR   Ar  222   4.593   1.556   6.218
    1   AR   Ar  223   0.074   0.848   7.257
    1   AR   Ar  224   5.403   2.060   5.557
    1   AR   Ar  225   5.091   4.905   0.277
    1   AR   Ar  226   4.989   4.428   2.356
    1   AR   Ar  227   6.558   5.105   0.062
    1   AR   Ar  228   5.176   5.913   0.974
    1   AR   Ar  229   5.757   3.954   0.882
    1   AR   Ar  230   4.502   4.779   3.315
    1   AR   Ar  231   6.843   2.239   3.386
    1   AR   Ar  232   4.585   3.290   0.699
    1   AR   Ar  233   6.358   2.183   4.328
    1   AR   Ar  234   6.991   3.473   4.303
    1   AR   Ar  235   0.566   2.457   4.404
    1   AR   Ar  236   5.233   4.560   4.276
    1   AR   Ar  237   5.665   3.247   4.200
    1   AR   Ar  238   4.924   4.405   5.524
    1   AR   Ar  239   5.917   3.860   9.285
    1   AR   Ar  240   6.918   4.065   5.405
    1   AR   Ar  241   0.199   0.371  -0.688
    1   AR   Ar  242   5.023   4.667   1.276
    1   AR   Ar  243   5.952   3.894   2.175
    1   AR   Ar  244   0.559   5.008  -1.199
    1   AR   Ar  245   5.638   7.091   2.041
    1   AR   Ar  246   6.039   6.403   1.423
    1   AR   Ar  247   5.020   3.661   1.528
    1   AR   Ar  248   5.787   6.701   0.519
    1   AR   Ar  249   5.290   5.608   2.581
    1   AR   Ar  250   4.730   6.402   4.452
    1   AR   Ar  251   5.592   5.549   4.581
    1   AR   Ar  252   5.443   6.126   3.553
    1   AR   Ar  253   5.937   4.691   5.680
    1   AR   Ar  254   5.371   5.428   6.501
    1   AR   Ar  255   5.097   4.198   6.827
    1   AR   Ar  256   5.858   6.660   4.334
    7.12000  7.12000 12.00000
Argon-slab step 1900
  256
    1   AR   Ar    1   7.046   1.657  -0.891
    1   AR   Ar    2   6.002   0.392   1.096
    1   AR   Ar    3   7.097   6.940   0.815
    1   AR   Ar    4   1.137   6.960   0.522
    1   AR   Ar    5   6.664   5.772   0.950
    1   AR   Ar    6   0.079   0.521   2.649
    1   AR   Ar    7   0.286   5.197   2.761
    1   AR   Ar    8   6.818   6.815   1.917
    1   AR   Ar    9   1.015   0.575   4.195
    1   AR   Ar   10   1.102   1.679   3.993
    1   AR   Ar   11   3.185   6.976   5.035
    1   AR   Ar   12   1.223   0.931   2.928
    1   AR   Ar   13   7.070   1.384   4.778
    1   AR   Ar   14   0.628   1.450   6.315
    1   AR   Ar   15   6.936   0.230   8.893
    1   AR   Ar   16   1.007   1.480   5.378
    1   AR   Ar   17   0.633   1.440   0.009
    1   AR   Ar   18   6.286   3.361  -0.811
    1   AR   Ar   19   1.053   1.973   1.833
    1   AR   Ar   20   6.479   3.119  -2.523
    1   AR   Ar   21   6.300   1.325   2.782
    1   AR   Ar   22   0.120   1.705   2.271
    1   AR   Ar   23   6.932   0.968   1.304
    1   AR   Ar   24   0.110   2.031   1.362
    1   AR   Ar   25   0.423   1.423   3.224
    1   AR   Ar   26   6.148   1.230   3.785
    1   AR   Ar   27   2.158   1.072   3.540
    1   AR   Ar   28   1.270   2.425   5.099
    1   AR   Ar   29   5.649   1.597   6.554
    1   AR   Ar   30   0.785   2.581   6.129
    1   AR   Ar   31   0.668   6.984   6.601
    1   AR   Ar   32   1.963   3.076   6.012
    1   AR   Ar   33   1.633   4.486  -1.030
    1   AR   Ar   34   0.260   5.789   1.698
    1   AR   Ar   35   0.150   4.055   1.272
    1   AR   Ar   36   0.516   6.734  -1.831
    1   AR   Ar   37   7.081   2.743   2.492
    1   AR   Ar   38   6.944   4.183   2.532
    1   AR   Ar   39   1.386   4.273   2.703
    1   AR   Ar   40   1.198   3.973   1.502
    1   AR   Ar   41   0.739   2.456   3.311
    1   AR   Ar   42   6.663   5.322   5.112
    1   AR   Ar   43   6.882   2.534   5.223
    1   AR   Ar   44   0.240   4.219   3.465
    1   AR   Ar   45   1.139   3.479   5.222
    1   AR   Ar   46   0.459   5.738   6.539
    1   AR   Ar   47   5.974   3.621   6.531
    1   AR   Ar   48   6.272   6.778   6.606
    1   AR   Ar   49   6.520   6.340  -2.080
    1   AR   Ar   50   5.854   5.365   1.681
    1   AR   Ar   51   1.124   5.035   1.393
    1   AR   Ar   52   6.682   4.680  -0.984
    1   AR   Ar   53   6.057   6.322   2.671
    1   AR   Ar   54   6.880   6.714   3.395
    1   AR   Ar   55   6.259   4.775   3.005
    1   AR   Ar   56   0.721   6.878   1.678
    1   AR   Ar   57   6.576   3.632   3.355
    1   AR   Ar   58   6.635   5.665   4.072
    1   AR   Ar   59   1.513   5.647   5.751
    1   AR   Ar   60   0.438   6.489   4.280
    1   AR   Ar   61   5.833   6.126   5.712
    1   AR   Ar   62   0.555   5.815   5.038
    1   AR   Ar   63   1.688   6.395   6.433
    1   AR   Ar   64   1.216   6.800   5.144
    1   AR   Ar   65   3.203   6.958   0.541
    1   AR   Ar   66   1.544   1.054   0.828
    1   AR   Ar   67   3.558   6.202  -0.926
    1   AR   Ar   68   3.067   1.582  -1.661
    1   AR   Ar   69   2.287   0.276   0.696
    1   AR   Ar   70   0.788   0.903   1.980
    1   AR   Ar   71   2.873   0.765   2.930
    1   AR   Ar   72   2.932   0.524   1.752
    1   AR   Ar   73   1.795   0.115   3.510
    1   AR   Ar   74   1.790   1.144   4.528
    1   AR   Ar   75   3.450   0.929   4.913
    1   AR   Ar   76   2.025   1.220   2.406
    1   AR   Ar   77   2.267   6.811   5.390
    1   AR   Ar   78   1.301   0.701   6.235
    1   AR   Ar   79   3.563   6.247   6.944
    1   AR   Ar   80   2.896   5.730   5.469
    1   AR   Ar   81   1.815   1.564  -0.127
    1   AR   Ar   82   0.276   3.418  -0.903
    1   AR   Ar   83   2.261   2.242   0.709
    1   AR   Ar   84   0.612   3.789  -2.040
    1   AR   Ar   85   0.334   2.530   0.263
    1   AR   Ar   86   1.947   3.316   1.919
    1   AR   Ar   87   2.233   2.345   1.867
    1   AR   Ar   88   4.083   4.023   1.843
    1   AR   Ar   89   0.859   3.180   2.194
    1   AR   Ar   90   3.064   2.017   4.359
    1   AR   Ar   91   1.971   2.217   4.149
    1   AR   Ar   92   1.556   2.242   2.683
    1   AR   Ar   93   2.170   1.849   5.204
    1   AR   Ar   94   1.341   1.483   8.154
    1   AR   Ar   95   3.382   6.763   5.990
    1   AR   Ar   96   2.021   0.719   5.351
    1   AR   Ar   97   3.857   2.181  -1.195
    1   AR   Ar   98   2.768   4.066   1.148
    1   AR   Ar   99   6.810   2.652  -1.438
    1   AR   Ar  100   1.682   3.619  -0.392
    1   AR   Ar  101   1.678   3.423   0.668
    1   AR   Ar  102   2.413   3.528   3.870
    1   AR   Ar  103   0.985   4.823   0.125
    1   AR   Ar  104   2.829   2.154  -0.577
    1   AR   Ar  105   1.568   3.112   3.215
    1   AR   Ar  106   2.387   2.913   4.844
    1   AR   Ar  107   2.144   3.972   4.813
    1   AR   Ar  108   3.644   2.930   4.273
    1   AR   Ar  109   1.495   4.235   3.662
    1   AR   Ar  110   1.254   4.564   6.177
    1   AR   Ar  111   4.224   5.011   6.921
    1   AR   Ar  112   0.429   4.955   7.059
    1   AR   Ar  113   2.293   4.749   0.432
    1   AR   Ar  114   2.589   5.794   0.158
    1   AR   Ar  115   2.951   3.986  -0.516
    1   AR   Ar  116   4.887   6.354   0.092
    1   AR   Ar  117   0.555   5.523   3.824
    1   AR   Ar  118   0.808   6.642   2.899
    1   AR   Ar  119   2.854   4.231   3.087
    1   AR   Ar  120   1.264   5.616   2.732
    1   AR   Ar  121   6.929   4.567   4.477
    1   AR   Ar  122   2.562   6.213   4.476
    1   AR   Ar  123   2.424   5.031   4.838
    1   AR   Ar  124   2.340   5.961   2.920
    1   AR   Ar  125   0.662   4.748   5.233
    1   AR   Ar  126   0.487   0.565   5.439
    1   AR   Ar  127   2.764   5.515   7.545
    1   AR   Ar  128   2.152   5.342   6.513
    1   AR   Ar  129   1.560   0.044   2.219
    1   AR   Ar  130   3.510   1.017  -3.182
    1   AR   Ar  131   4.675   7.103   0.862
    1   AR   Ar  132   0.699   2.285  -1.205
    1   AR   Ar  133   3.946   0.086   2.934
    1   AR   Ar  134   3.811   1.496   2.867
    1   AR   Ar  135   4.830   0.746   2.757
    1   AR   Ar  136   4.288   0.307   2.002
    1   AR   Ar  137   2.842   6.781   3.467
    1   AR   Ar  138   4.627   1.183   5.014
    1   AR   Ar  139   6.073   1.430   4.936
    1   AR   Ar  140   4.281   0.849   3.573
    1   AR   Ar  141   3.934   7.061   4.103
    1   AR   Ar  142   4.158   0.005   5.277
    1   AR   Ar  143   5.255   7.005   6.051
    1   AR   Ar  144   4.622   0.617   6.834
    1   AR   Ar  145   3.532   3.732   0.331
    1   AR   Ar  146   4.323   2.789   1.774
    1   AR   Ar  147   6.041   1.960  -0.794
    1   AR   Ar  148   5.156   4.398  -2.536
    1   AR   Ar  149   3.603   1.964   0.877
    1   AR   Ar  150   2.518   2.038   3.253
    1   AR   Ar  151   3.540   2.403   3.412
    1   AR   Ar  152   2.711   3.271   0.151
    1   AR   Ar  153   3.129   0.646   3.953
    1   AR   Ar  154   4.132   1.741   4.373
    1   AR   Ar  155   5.623   0.853   5.674
    1   AR   Ar  156   3.757   3.860   3.521
    1   AR   Ar  157   3.132   2.872   5.857
    1   AR   Ar  158   1.082   2.711   7.082
    1   AR   Ar  159   3.597   1.199   5.977
    1   AR   Ar  160   3.548   2.449   7.424
    1   AR   Ar  161   5.539   2.105   0.592
    1   AR   Ar  162   4.327   5.500  -0.477
    1   AR   Ar  163   5.519   2.981   0.162
    1   AR   Ar  164   4.081   4.977   1.231
    1   AR   Ar  165   3.239   3.127   1.704
    1   AR   Ar  166   2.443   5.119   3.709
    1   AR   Ar  167   4.475   2.232   2.667
    1   AR   Ar  168   4.340   3.062  -0.764
    1   AR   Ar  169   2.645   2.928   2.811
    1   AR   Ar  170   3.297   3.865   4.966
    1   AR   Ar  171   4.425   3.812   4.431
    1   AR   Ar  172   4.415   5.350   4.206
    1   AR   Ar  173   1.740   4.056   6.879
    1   AR   Ar  174   3.698   5.314   5.959
    1   AR   Ar  175   4.243   3.925   6.298
    1   AR   Ar  176   3.692   5.013   4.858
    1   AR   Ar  177   5.957   6.084  -0.260
    1   AR   Ar  178   3.090   6.601   1.490
    1   AR   Ar  179   4.022   6.043   0.608
    1   AR   Ar  180   3.792   3.544  -2.575
    1   AR   Ar  181   2.322   5.319   1.258
    1   AR   Ar  182   2.598   7.006   2.448
    1   AR   Ar  183   3.607   4.964   2.437
    1   AR   Ar  184   4.211   6.418   1.636
    1   AR   Ar  185   1.536   5.305   4.367
    1   AR   Ar  186   3.359   5.843   3.931
    1   AR   Ar  187   4.181   5.957   3.186
    1   AR   Ar  188   3.351   6.011   2.384
    1   AR   Ar  189   2.392   4.744   5.802
    1   AR   Ar  190   4.411   6.246   6.158
    1   AR   Ar  191   4.859   5.607   5.556
    1   AR   Ar  192   3.991   6.121   5.138
    1   AR   Ar  193   7.091   6.169   0.021
    1   AR   Ar  194   5.617   4.745  -0.814
    1   AR   Ar  195   6.094   0.377  -0.572
    1   AR   Ar  196   4.960   1.072  -0.992
    1   AR   Ar  197   5.240   0.897   0.402
    1   AR   Ar  198   5.950   1.422   1.413
    1   AR   Ar  199   5.173   0.803   1.591
    1   AR   Ar  200   6.451   1.665   0.231
    1   AR   Ar  201   4.805   7.096   3.476
    1   AR   Ar  202   5.101   2.493   3.936
    1   AR   Ar  203   6.715   6.507   4.838
    1   AR   Ar  204   5.281   0.687   4.057
    1   AR   Ar  205   5.948   0.213   3.239
    1   AR   Ar  206   5.198   0.162   5.004
    1   AR   Ar  207   6.896   0.539   6.203
    1   AR   Ar  208   0.062   0.478   4.046
    1   AR   Ar  209   4.709   2.139  -1.655
    1   AR   Ar  210   3.750   0.733   1.138
    1   AR   Ar  211   6.478   3.333   0.509
    1   AR   Ar  212   6.760   3.872  -1.810
    1   AR   Ar  213   3.221   2.093   2.246
    1   AR   Ar  214   3.819   3.357   2.494
    1   AR   Ar  215   5.865   2.179   2.144
    1   AR   Ar  216   6.652   3.281   1.629
    1   AR   Ar  217   4.506   3.119   3.384
    1   AR   Ar  218   4.715   2.854   4.914
    1   AR   Ar  219   5.157   1.513   3.367
    1   AR   Ar  220   5.180   2.951   2.360
    1   AR   Ar  221   6.453   0.484   5.127
    1   AR   Ar  222   4.608   1.570   6.223
    1   AR   Ar  223   0.088   0.862   7.253
    1   AR   Ar  224   5.373   2.075   5.554
    1   AR   Ar  225   5.131   4.892   0.206
    1   AR   Ar  226   5.006   4.438   2.332
    1   AR   Ar  227   6.538   5.088   0.013
    1   AR   Ar  228   5.170   5.908   0.966
    1   AR   Ar  229   5.729   3.981   0.869
    1   AR   Ar  230   4.509   4.799   3.314
    1   AR   Ar  231   6.870   2.245   3.403
    1   AR   Ar  232   4.570   3.292   0.687
    1   AR   Ar  233   6.353   2.188   4.365
    1   AR   Ar  234   7.003   3.446   4.328
    1   AR   Ar  235   0.552   2.444   4.405
    1   AR   Ar  236   5.235   4.544   4.278
    1   AR   Ar  237   5.678   3.283   4.194
    1   AR   Ar  238   4.883   4.371   5.533
    1   AR   Ar  239   5.944   3.860   9.282
    1   AR   Ar  240   6.912   4.032   5.441
    1   AR   Ar  241   0.206   0.368  -0.696
    1   AR   Ar  242   5.053   4.669   1.272
    1   AR   Ar  243   5.955   3.892   2.171
    1   AR   Ar  244   0.541   5.012  -1.220
    1   AR   Ar  245   5.629   7.108   2.021
    1   AR   Ar  246   6.049   6.388   1.407
    1   AR   Ar  247   5.076   3.654   1.527
    1   AR   Ar  248   5.753   6.670   0.539
    1   AR   Ar  249   5.252   5.575   2.582
    1   AR   Ar  250   4.733   6.384   4.473
    1   AR   Ar  251   5.588   5.580   4.575
    1   AR   Ar  252   5.409   6.127   3.572
    1   AR   Ar  253   5.950   4.720   5.665
    1   AR   Ar  254   5.386   5.426   6.501
    1   AR   Ar  255   5.093   4.189   6.822
    1   AR   Ar  256   5.848   6.623   4.360
    7.12000  7.12000 12.00000
Argon-slab step 1905
  256
    1   AR   Ar    1   7.031   1.654  -0.869
    1   AR   Ar    2   6.004   0.361   1.080
    1   AR   Ar    3   0.001   6.945   0.834
    1   AR   Ar    4   1.179   6.974   0.531
    1   AR   Ar    5   6.668   5.780   0.922
    1   AR   Ar    6   0.071   0.513   2.672
    1   AR   Ar    7   0.281   5.208   2.775
    1   AR   Ar    8   6.817   6.830   1.926
    1   AR   Ar    9   1.035   0.593   4.203
    1   AR   Ar   10   1.128   1.690   3.990
    1   AR   Ar   11   3.186   6.994   5.038
    1   AR   Ar   12   1.213   0.892   2.931
    1   AR   Ar   13   7.112   1.397   4.803
    1   AR   Ar   14   0.641   1.440   6.312
    1   AR   Ar   15   6.951   0.235   8.897
    1   AR   Ar   16   0.988   1.493   5.364
    1   AR   Ar   17   0.647   1.442   0.023
    1   AR   Ar   18   6.271   3.364  -0.829
    1   AR   Ar   19   1.025   1.978   1.819
    1   AR   Ar   20   6.455   3.156  -2.549
    1   AR   Ar   21   6.263   1.326   2.762
    1   AR   Ar   22   0.142   1.720   2.255
    1   AR   Ar   23   6.936   0.979   1.286
    1   AR   Ar   24   0.076   2.052   1.377
    1   AR   Ar   25   0.415   1.402   3.237
    1   AR   Ar   26   6.168   1.233   3.804
    1   AR   Ar   27   2.098   1.087   3.566
    1   AR   Ar   28   1.291   2.429   5.087
    1   AR   Ar   29   5.644   1.615   6.580
    1   AR   Ar   30   0.792   2.573   6.130
    1   AR   Ar   31   0.678   6.984   6.604
    1   AR   Ar   32   1.983   3.074   5.990
    1   AR   Ar   33   1.664   4.485  -1.014
    1   AR   Ar   34   0.257   5.797   1.687
    1   AR   Ar   35   0.162   4.082   1.279
    1   AR   Ar   36   0.493   6.749  -1.879
    1   AR   Ar   37   7.075   2.732   2.464
    1   AR   Ar   38   6.940   4.153   2.563
    1   AR   Ar   39   1.374   4.259   2.712
    1   AR   Ar   40   1.202   3.956   1.516
    1   AR   Ar   41   0.739   2.488   3.280
    1   AR   Ar   42   6.633   5.307   5.091
    1   AR   Ar   43   6.887   2.547   5.244
    1   AR   Ar   44   0.235   4.254   3.487
    1   AR   Ar   45   1.140   3.467   5.211
    1   AR   Ar   46   0.500   5.738   6.533
    1   AR   Ar   47   5.986   3.611   6.532
    1   AR   Ar   48   6.279   6.760   6.597
    1   AR   Ar   49   6.516   6.374  -2.067
    1   AR   Ar   50   5.874   5.387   1.693
    1   AR   Ar   51   1.122   5.032   1.400
    1   AR   Ar   52   6.643   4.718  -0.989
    1   AR   Ar   53   6.029   6.307   2.673
    1   AR   Ar   54   6.893   6.716   3.360
    1   AR   Ar   55   6.244   4.792   2.984
    1   AR   Ar   56   0.747   6.907   1.704
    1   AR   Ar   57   6.593   3.622   3.343
    1   AR   Ar   58   6.655   5.676   4.055
    1   AR   Ar   59   1.506   5.626   5.748
    1   AR   Ar   60   0.434   6.484   4.270
    1   AR   Ar   61   5.814   6.107   5.767
    1   AR   Ar   62   0.549   5.808   5.007
    1   AR   Ar   63   1.656   6.392   6.417
    1   AR   Ar   64   1.187   6.784   5.148
    1   AR   Ar   65   3.222   6.954   0.564
    1   AR   Ar   66   1.506   1.059   0.805
    1   AR   Ar   67   3.552   6.188  -0.930
    1   AR   Ar   68   3.056   1.632  -1.625
    1   AR   Ar   69   2.264   0.315   0.700
    1   AR   Ar   70   0.830   0.931   2.007
    1   AR   Ar   71   2.900   0.749   2.918
    1   AR   Ar   72   2.970   0.512   1.758
    1   AR   Ar   73   1.809   0.114   3.500
    1   AR   Ar   74   1.821   1.137   4.490
    1   AR   Ar   75   3.437   0.927   4.919
    1   AR   Ar   76   2.030   1.221   2.411
    1   AR   Ar   77   2.302   6.813   5.362
    1   AR   Ar   78   1.304   0.690   6.257
    1   AR   Ar   79   3.557   6.255   6.929
    1   AR   Ar   80   2.881   5.727   5.508
    1   AR   Ar   81   1.792   1.554  -0.137
    1   AR   Ar   82   0.269   3.478  -0.941
    1   AR   Ar   83   2.267   2.250   0.732
    1   AR   Ar   84   0.579   3.764  -2.015
    1   AR   Ar   85   0.309   2.538   0.256
    1   AR   Ar   86   1.959   3.339   1.909
    1   AR   Ar   87   2.220   2.325   1.905
    1   AR   Ar   88   4.105   4.033   1.812
    1   AR   Ar   89   0.896   3.191   2.214
    1   AR   Ar   90   3.056   2.020   4.345
    1   AR   Ar   91   1.953   2.210   4.136
    1   AR   Ar   92   1.527   2.194   2.682
    1   AR   Ar   93   2.155   1.831   5.181
    1   AR   Ar   94   1.299   1.506   8.163
    1   AR   Ar   95   3.382   6.717   5.984
    1   AR   Ar   96   2.003   0.687   5.358
    1   AR   Ar   97   3.837   2.173  -1.209
    1   AR   Ar   98   2.784   4.077   1.164
    1   AR   Ar   99   6.828   2.632  -1.440
    1   AR   Ar  100   1.667   3.632  -0.397
    1   AR   Ar  101   1.702   3.454   0.699
    1   AR   Ar  102   2.428   3.513   3.871
    1   AR   Ar  103   0.991   4.842   0.118
    1   AR   Ar  104   2.799   2.151  -0.597
    1   AR   Ar  105   1.566   3.151   3.210
    1   AR   Ar  106   2.379   2.911   4.838
    1   AR   Ar  107   2.135   3.960   4.822
    1   AR   Ar  108   3.654   2.933   4.276
    1   AR   Ar  109   1.520   4.198   3.650
    1   AR   Ar  110   1.259   4.569   6.156
    1   AR   Ar  111   4.233   4.994   6.919
    1   AR   Ar  112   0.428   4.968   7.116
    1   AR   Ar  113   2.278   4.748   0.434
    1   AR   Ar  114   2.588   5.777   0.116
    1   AR   Ar  115   2.910   3.964  -0.533
    1   AR   Ar  116   4.914   6.371   0.011
    1   AR   Ar  117   0.543   5.530   3.827
    1   AR   Ar  118   0.795   6.662   2.919
    1   AR   Ar  119   2.887   4.229   3.077
    1   AR   Ar  120   1.230   5.649   2.717
    1   AR   Ar  121   6.933   4.559   4.455
    1   AR   Ar  122   2.554   6.202   4.471
    1   AR   Ar  123   2.438   5.029   4.854
    1   AR   Ar  124   2.334   5.954   2.933
    1   AR   Ar  125   0.686   4.716   5.260
    1   AR   Ar  126   0.484   0.587   5.461
    1   AR   Ar  127   2.762   5.526   7.532
    1   AR   Ar  128   2.167   5.346   6.535
    1   AR   Ar  129   1.536   0.048   2.220
    1   AR   Ar  130   3.504   1.006  -3.188
    1   AR   Ar  131   4.670   0.015   0.838
    1   AR   Ar  132   0.706   2.266  -1.222
    1   AR   Ar  133   3.916   0.046   2.923
    1   AR   Ar  134   3.818   1.463   2.857
    1   AR   Ar  135   4.821   0.774   2.763
    1   AR   Ar  136   4.274   0.283   2.038
    1   AR   Ar  137   2.819   6.736   3.444
    1   AR   Ar  138   4.613   1.198   5.016
    1   AR   Ar  139   6.074   1.440   4.943
    1   AR   Ar  140   4.271   0.865   3.583
    1   AR   Ar  141   3.931   7.027   4.132
    1   AR   Ar  142   4.178   0.026   5.282
    1   AR   Ar  143   5.234   6.970   6.061
    1   AR   Ar  144   4.642   0.607   6.817
    1   AR   Ar  145   3.527   3.747   0.352
    1   AR   Ar  146   4.306   2.778   1.796
    1   AR   Ar  147   6.041   1.968  -0.796
    1   AR   Ar  148   5.149   4.397  -2.532
    1   AR   Ar  149   3.585   1.926   0.907
    1   AR   Ar  150   2.506   2.064   3.283
    1   AR   Ar  151   3.531   2.421   3.404
    1   AR   Ar  152   2.693   3.246   0.134
    1   AR   Ar  153   3.129   0.662   3.972
    1   AR   Ar  154   4.128   1.752   4.378
    1   AR   Ar  155   5.631   0.835   5.681
    1   AR   Ar  156   3.776   3.839   3.555
    1   AR   Ar  157   3.147   2.881   5.846
    1   AR   Ar  158   1.108   2.716   7.063
    1   AR   Ar  159   3.590   1.241   5.978
    1   AR   Ar  160   3.532   2.438   7.412
    1   AR   Ar  161   5.528   2.081   0.621
    1   AR   Ar  162   4.346   5.463  -0.482
    1   AR   Ar  163   5.541   2.983   0.178
    1   AR   Ar  164   4.073   4.965   1.222
    1   AR   Ar  165   3.219   3.129   1.700
    1   AR   Ar  166   2.418   5.110   3.694
    1   AR   Ar  167   4.473   2.283   2.667
    1   AR   Ar  168   4.361   3.081  -0.762
    1   AR   Ar  169   2.667   2.944   2.767
    1   AR   Ar  170   3.318   3.898   4.965
    1   AR   Ar  171   4.418   3.814   4.431
    1   AR   Ar  172   4.421   5.365   4.242
    1   AR   Ar  173   1.739   4.068   6.868
    1   AR   Ar  174   3.686   5.323   5.934
    1   AR   Ar  175   4.228   3.916   6.298
    1   AR   Ar  176   3.697   5.023   4.841
    1   AR   Ar  177   5.953   6.079  -0.241
    1   AR   Ar  178   3.090   6.629   1.507
    1   AR   Ar  179   4.023   6.057   0.603
    1   AR   Ar  180   3.815   3.536  -2.598
    1   AR   Ar  181   2.300   5.319   1.280
    1   AR   Ar  182   2.612   6.993   2.474
    1   AR   Ar  183   3.593   5.001   2.421
    1   AR   Ar  184   4.211   6.411   1.652
    1   AR   Ar  185   1.557   5.314   4.360
    1   AR   Ar  186   3.356   5.832   3.901
    1   AR   Ar  187   4.200   5.926   3.181
    1   AR   Ar  188   3.367   6.020   2.405
    1   AR   Ar  189   2.397   4.722   5.802
    1   AR   Ar  190   4.401   6.262   6.181
    1   AR   Ar  191   4.859   5.595   5.563
    1   AR   Ar  192   3.986   6.135   5.143
    1   AR   Ar  193   7.082   6.177   0.033
    1   AR   Ar  194   5.619   4.715  -0.809
    1   AR   Ar  195   6.118   0.380  -0.583
    1   AR   Ar  196   4.928   1.102  -0.993
    1   AR   Ar  197   5.239   0.882   0.415
    1   AR   Ar  198   5.985   1.415   1.412
    1   AR   Ar  199   5.160   0.803   1.587
    1   AR   Ar  200   6.437   1.645   0.246
    1   AR   Ar  201   4.797   7.063   3.501
    1   AR   Ar  202   5.082   2.485   3.895
    1   AR   Ar  203   6.705   6.521   4.838
    1   AR   Ar  204   5.278   0.689   4.047
    1   AR   Ar  205   5.955   0.228   3.259
    1   AR   Ar  206   5.201   0.183   4.998
    1   AR   Ar  207   6.865   0.510   6.234
    1   AR   Ar  208   0.059   0.464   4.045
    1   AR   Ar  209   4.739   2.118  -1.623
    1   AR   Ar  210   3.744   0.739   1.141
    1   AR   Ar  211   6.503   3.304   0.501
    1   AR   Ar  212   6.769   3.888  -1.786
    1   AR   Ar  213   3.205   2.084   2.240
    1   AR   Ar  214   3.784   3.360   2.513
    1   AR   Ar  215   5.895   2.191   2.142
    1   AR   Ar  216   6.649   3.282   1.635
    1   AR   Ar  217   4.512   3.119   3.366
    1   AR   Ar  218   4.709   2.840   4.906
    1   AR   Ar  219   5.138   1.518   3.351
    1   AR   Ar  220   5.172   2.957   2.363
    1   AR   Ar  221   6.432   0.462   5.108
    1   AR   Ar  222   4.622   1.583   6.226
    1   AR   Ar  223   0.103   0.875   7.247
    1   AR   Ar  224   5.342   2.089   5.549
    1   AR   Ar  225   5.172   4.880   0.134
    1   AR   Ar  226   5.022   4.450   2.310
    1   AR   Ar  227   6.517   5.073  -0.034
    1   AR   Ar  228   5.162   5.896   0.965
    1   AR   Ar  229   5.709   4.011   0.848
    1   AR   Ar  230   4.516   4.817   3.310
    1   AR   Ar  231   6.889   2.249   3.422
    1   AR   Ar  232   4.553   3.293   0.672
    1   AR   Ar  233   6.350   2.200   4.394
    1   AR   Ar  234   7.015   3.418   4.355
    1   AR   Ar  235   0.527   2.435   4.402
    1   AR   Ar  236   5.237   4.528   4.279
    1   AR   Ar  237   5.695   3.325   4.191
    1   AR   Ar  238   4.842   4.339   5.541
    1   AR   Ar  239   5.972   3.860   9.279
    1   AR   Ar  240   6.905   3.999   5.477
    1   AR   Ar  241   0.200   0.359  -0.683
    1   AR   Ar  242   5.087   4.675   1.268
    1   AR   Ar  243   5.956   3.890   2.167
    1   AR   Ar  244   0.526   5.017  -1.242
    1   AR   Ar  245   5.617   0.003   2.018
    1   AR   Ar  246   6.056   6.372   1.408
    1   AR   Ar  247   5.125   3.641   1.537
    1   AR   Ar  248   5.718   6.651   0.548
    1   AR   Ar  249   5.213   5.541   2.585
    1   AR   Ar  250   4.739   6.368   4.491
    1   AR   Ar  251   5.584   5.611   4.571
    1   AR   Ar  252   5.391   6.116   3.589
    1   AR   Ar  253   5.961   4.748   5.651
    1   AR   Ar  254   5.401   5.423   6.501
    1   AR   Ar  255   5.092   4.184   6.819
    1   AR   Ar  256   5.832   6.591   4.385
    7.12000  7.12000 12.00000
Argon-slab step 1910
  256
    1   AR   Ar    1   7.017   1.647  -0.844
    1   AR   Ar    2   6.011   0.358   1.104
    1   AR   Ar    3   0.024   6.950   0.854
    1   AR   Ar    4   1.221   6.989   0.542
    1   AR   Ar    5   6.676   5.780   0.887
    1   AR   Ar    6   0.062   0.503   2.696
    1   AR   Ar    7   0.271   5.216   2.789
    1   AR   Ar    8   6.827   6.859   1.948
    1   AR   Ar    9   1.057   0.607   4.210
    1   AR   Ar   10   1.143   1.696   3.982
    1   AR   Ar   11   3.198   7.016   5.023
    1   AR   Ar   12   1.208   0.845   2.943
    1   AR   Ar   13   0.039   1.410   4.826
    1   AR   Ar   14   0.659   1.441   6.324
    1   AR   Ar   15   6.965   0.239   8.901
    1   AR   Ar   16   0.973   1.505   5.343
    1   AR   Ar   17   0.657   1.431   0.036
    1   AR   Ar   18   6.256   3.368  -0.846
    1   AR   Ar   19   1.004   1.984   1.800
    1   AR   Ar   20   6.432   3.192  -2.575
    1   AR   Ar   21   6.226   1.326   2.739
    1   AR   Ar   22   0.157   1.722   2.264
    1   AR   Ar   23   6.953   0.998   1.254
    1   AR   Ar   24   0.036   2.083   1.366
    1   AR   Ar   25   0.398   1.384   3.254
    1   AR   Ar   26   6.189   1.236   3.827
    1   AR   Ar   27   2.044   1.109   3.575
    1   AR   Ar   28   1.318   2.422   5.045
    1   AR   Ar   29   5.640   1.631   6.605
    1   AR   Ar   30   0.797   2.564   6.119
    1   AR   Ar   31   0.694   7.017   6.636
    1   AR   Ar   32   2.003   3.072   5.966
    1   AR   Ar   33   1.693   4.487  -0.999
    1   AR   Ar   34   0.258   5.806   1.679
    1   AR   Ar   35   0.173   4.110   1.285
    1   AR   Ar   36   0.469   6.763  -1.926
    1   AR   Ar   37   7.068   2.723   2.437
    1   AR   Ar   38   6.941   4.122   2.579
    1   AR   Ar   39   1.357   4.246   2.699
    1   AR   Ar   40   1.205   3.941   1.530
    1   AR   Ar   41   0.739   2.521   3.250
    1   AR   Ar   42   6.636   5.304   5.083
    1   AR   Ar   43   6.885   2.568   5.276
    1   AR   Ar   44   0.246   4.283   3.512
    1   AR   Ar   45   1.141   3.459   5.202
    1   AR   Ar   46   0.545   5.753   6.514
    1   AR   Ar   47   5.999   3.601   6.532
    1   AR   Ar   48   6.285   6.741   6.587
    1   AR   Ar   49   6.524   6.413  -2.044
    1   AR   Ar   50   5.893   5.405   1.705
    1   AR   Ar   51   1.120   5.029   1.407
    1   AR   Ar   52   6.608   4.753  -1.001
    1   AR   Ar   53   6.002   6.292   2.674
    1   AR   Ar   54   6.898   6.706   3.350
    1   AR   Ar   55   6.234   4.824   2.957
    1   AR   Ar   56   0.763   6.931   1.722
    1   AR   Ar   57   6.599   3.601   3.335
    1   AR   Ar   58   6.670   5.688   4.039
    1   AR   Ar   59   1.496   5.602   5.739
    1   AR   Ar   60   0.434   6.488   4.251
    1   AR   Ar   61   5.796   6.088   5.819
    1   AR   Ar   62   0.543   5.795   4.981
    1   AR   Ar   63   1.625   6.394   6.403
    1   AR   Ar   64   1.158   6.768   5.153
    1   AR   Ar   65   3.245   6.953   0.580
    1   AR   Ar   66   1.465   1.065   0.783
    1   AR   Ar   67   3.547   6.173  -0.933
    1   AR   Ar   68   3.041   1.681  -1.591
    1   AR   Ar   69   2.241   0.352   0.705
    1   AR   Ar   70   0.870   0.957   2.025
    1   AR   Ar   71   2.913   0.714   2.897
    1   AR   Ar   72   2.957   0.529   1.784
    1   AR   Ar   73   1.805   0.110   3.498
    1   AR   Ar   74   1.855   1.135   4.464
    1   AR   Ar   75   3.427   0.927   4.929
    1   AR   Ar   76   2.040   1.224   2.413
    1   AR   Ar   77   2.321   6.805   5.342
    1   AR   Ar   78   1.313   0.673   6.276
    1   AR   Ar   79   3.551   6.260   6.915
    1   AR   Ar   80   2.859   5.732   5.543
    1   AR   Ar   81   1.793   1.550  -0.144
    1   AR   Ar   82   0.262   3.537  -0.978
    1   AR   Ar   83   2.273   2.258   0.756
    1   AR   Ar   84   0.561   3.736  -1.993
    1   AR   Ar   85   0.281   2.545   0.250
    1   AR   Ar   86   1.958   3.362   1.897
    1   AR   Ar   87   2.207   2.303   1.940
    1   AR   Ar   88   4.128   4.045   1.776
    1   AR   Ar   89   0.935   3.199   2.235
    1   AR   Ar   90   3.045   2.021   4.331
    1   AR   Ar   91   1.940   2.210   4.128
    1   AR   Ar   92   1.502   2.183   2.685
    1   AR   Ar   93   2.145   1.814   5.161
    1   AR   Ar   94   1.257   1.530   8.172
    1   AR   Ar   95   3.386   6.680   5.982
    1   AR   Ar   96   1.986   0.654   5.374
    1   AR   Ar   97   3.810   2.169  -1.217
    1   AR   Ar   98   2.800   4.087   1.180
    1   AR   Ar   99   6.845   2.612  -1.442
    1   AR   Ar  100   1.653   3.642  -0.401
    1   AR   Ar  101   1.729   3.485   0.731
    1   AR   Ar  102   2.445   3.497   3.871
    1   AR   Ar  103   0.997   4.858   0.118
    1   AR   Ar  104   2.770   2.147  -0.616
    1   AR   Ar  105   1.566   3.191   3.204
    1   AR   Ar  106   2.373   2.909   4.834
    1   AR   Ar  107   2.124   3.950   4.833
    1   AR   Ar  108   3.666   2.940   4.285
    1   AR   Ar  109   1.549   4.161   3.661
    1   AR   Ar  110   1.262   4.581   6.129
    1   AR   Ar  111   4.242   4.976   6.916
    1   AR   Ar  112   0.426   4.967   7.182
    1   AR   Ar  113   2.262   4.742   0.430
    1   AR   Ar  114   2.588   5.761   0.075
    1   AR   Ar  115   2.901   3.954  -0.551
    1   AR   Ar  116   4.933   6.386  -0.075
    1   AR   Ar  117   0.536   5.534   3.828
    1   AR   Ar  118   0.782   6.683   2.939
    1   AR   Ar  119   2.907   4.228   3.065
    1   AR   Ar  120   1.199   5.682   2.701
    1   AR   Ar  121   6.939   4.548   4.431
    1   AR   Ar  122   2.538   6.207   4.476
    1   AR   Ar  123   2.456   5.029   4.860
    1   AR   Ar  124   2.328   5.945   2.943
    1   AR   Ar  125   0.708   4.685   5.285
    1   AR   Ar  126   0.482   0.606   5.481
    1   AR   Ar  127   2.760   5.538   7.518
    1   AR   Ar  128   2.180   5.356   6.566
    1   AR   Ar  129   1.523   0.058   2.230
    1   AR   Ar  130   3.474   0.996  -3.200
    1   AR   Ar  131   4.665   0.046   0.816
    1   AR   Ar  132   0.715   2.248  -1.238
    1   AR   Ar  133   3.877   0.003   2.922
    1   AR   Ar  134   3.822   1.427   2.848
    1   AR   Ar  135   4.819   0.797   2.758
    1   AR   Ar  136   4.268   0.268   2.049
    1   AR   Ar  137   2.801   6.693   3.429
    1   AR   Ar  138   4.621   1.205   5.027
    1   AR   Ar  139   6.067   1.445   4.954
    1   AR   Ar  140   4.254   0.882   3.606
    1   AR   Ar  141   3.930   6.987   4.156
    1   AR   Ar  142   4.163   0.022   5.293
    1   AR   Ar  143   5.213   6.937   6.071
    1   AR   Ar  144   4.667   0.596   6.803
    1   AR   Ar  145   3.531   3.767   0.377
    1   AR   Ar  146   4.273   2.758   1.821
    1   AR   Ar  147   6.036   1.978  -0.797
    1   AR   Ar  148   5.145   4.393  -2.524
    1   AR   Ar  149   3.566   1.888   0.940
    1   AR   Ar  150   2.496   2.085   3.309
    1   AR   Ar  151   3.522   2.437   3.388
    1   AR   Ar  152   2.664   3.209   0.121
    1   AR   Ar  153   3.128   0.677   3.986
    1   AR   Ar  154   4.117   1.776   4.389
    1   AR   Ar  155   5.637   0.820   5.694
    1   AR   Ar  156   3.792   3.819   3.589
    1   AR   Ar  157   3.162   2.891   5.833
    1   AR   Ar  158   1.138   2.722   7.052
    1   AR   Ar  159   3.584   1.283   5.978
    1   AR   Ar  160   3.516   2.428   7.400
    1   AR   Ar  161   5.516   2.048   0.655
    1   AR   Ar  162   4.367   5.427  -0.485
    1   AR   Ar  163   5.562   2.993   0.189
    1   AR   Ar  164   4.062   4.955   1.212
    1   AR   Ar  165   3.193   3.133   1.695
    1   AR   Ar  166   2.393   5.101   3.680
    1   AR   Ar  167   4.468   2.327   2.675
    1   AR   Ar  168   4.381   3.099  -0.758
    1   AR   Ar  169   2.689   2.964   2.720
    1   AR   Ar  170   3.338   3.932   4.963
    1   AR   Ar  171   4.410   3.815   4.432
    1   AR   Ar  172   4.433   5.384   4.273
    1   AR   Ar  173   1.743   4.076   6.863
    1   AR   Ar  174   3.683   5.330   5.913
    1   AR   Ar  175   4.208   3.907   6.297
    1   AR   Ar  176   3.684   5.006   4.850
    1   AR   Ar  177   5.955   6.070  -0.255
    1   AR   Ar  178   3.090   6.651   1.531
    1   AR   Ar  179   4.023   6.071   0.599
    1   AR   Ar  180   3.824   3.501  -2.619
    1   AR   Ar  181   2.274   5.327   1.305
    1   AR   Ar  182   2.623   6.972   2.497
    1   AR   Ar  183   3.582   5.032   2.405
    1   AR   Ar  184   4.210   6.403   1.668
    1   AR   Ar  185   1.574   5.324   4.353
    1   AR   Ar  186   3.355   5.819   3.871
    1   AR   Ar  187   4.220   5.897   3.175
    1   AR   Ar  188   3.382   6.035   2.427
    1   AR   Ar  189   2.403   4.690   5.803
    1   AR   Ar  190   4.413   6.300   6.205
    1   AR   Ar  191   4.862   5.579   5.563
    1   AR   Ar  192   3.975   6.143   5.150
    1   AR   Ar  193   7.074   6.186   0.042
    1   AR   Ar  194   5.619   4.684  -0.805
    1   AR   Ar  195   6.142   0.383  -0.593
    1   AR   Ar  196   4.898   1.134  -0.994
    1   AR   Ar  197   5.241   0.868   0.430
    1   AR   Ar  198   6.021   1.411   1.410
    1   AR   Ar  199   5.139   0.805   1.582
    1   AR   Ar  200   6.426   1.623   0.261
    1   AR   Ar  201   4.793   7.024   3.525
    1   AR   Ar  202   5.066   2.469   3.858
    1   AR   Ar  203   6.701   6.534   4.848
    1   AR   Ar  204   5.276   0.692   4.040
    1   AR   Ar  205   5.960   0.243   3.278
    1   AR   Ar  206   5.203   0.200   4.989
    1   AR   Ar  207   6.834   0.481   6.265
    1   AR   Ar  208   0.034   0.448   4.023
    1   AR   Ar  209   4.736   2.120  -1.616
    1   AR   Ar  210   3.744   0.746   1.140
    1   AR   Ar  211   6.521   3.272   0.485
    1   AR   Ar  212   6.761   3.907  -1.757
    1   AR   Ar  213   3.191   2.078   2.235
    1   AR   Ar  214   3.748   3.360   2.546
    1   AR   Ar  215   5.928   2.205   2.141
    1   AR   Ar  216   6.647   3.281   1.639
    1   AR   Ar  217   4.515   3.109   3.358
    1   AR   Ar  218   4.703   2.825   4.896
    1   AR   Ar  219   5.121   1.530   3.338
    1   AR   Ar  220   5.169   2.969   2.369
    1   AR   Ar  221   6.415   0.436   5.088
    1   AR   Ar  222   4.636   1.594   6.227
    1   AR   Ar  223   0.119   0.888   7.239
    1   AR   Ar  224   5.311   2.102   5.543
    1   AR   Ar  225   5.211   4.870   0.067
    1   AR   Ar  226   5.038   4.461   2.290
    1   AR   Ar  227   6.494   5.062  -0.075
    1   AR   Ar  228   5.150   5.879   0.967
    1   AR   Ar  229   5.702   4.040   0.813
    1   AR   Ar  230   4.524   4.834   3.304
    1   AR   Ar  231   6.900   2.251   3.443
    1   AR   Ar  232   4.536   3.295   0.658
    1   AR   Ar  233   6.350   2.224   4.414
    1   AR   Ar  234   7.027   3.389   4.383
    1   AR   Ar  235   0.494   2.428   4.396
    1   AR   Ar  236   5.239   4.513   4.281
    1   AR   Ar  237   5.715   3.359   4.185
    1   AR   Ar  238   4.840   4.325   5.549
    1   AR   Ar  239   5.999   3.861   9.276
    1   AR   Ar  240   6.899   3.966   5.511
    1   AR   Ar  241   0.193   0.350  -0.657
    1   AR   Ar  242   5.117   4.689   1.267
    1   AR   Ar  243   5.957   3.891   2.168
    1   AR   Ar  244   0.513   5.021  -1.264
    1   AR   Ar  245   5.606   0.014   2.024
    1   AR   Ar  246   6.059   6.360   1.426
    1   AR   Ar  247   5.165   3.620   1.556
    1   AR   Ar  248   5.684   6.645   0.549
    1   AR   Ar  249   5.172   5.506   2.588
    1   AR   Ar  250   4.751   6.355   4.506
    1   AR   Ar  251   5.578   5.636   4.569
    1   AR   Ar  252   5.383   6.095   3.603
    1   AR   Ar  253   5.969   4.775   5.639
    1   AR   Ar  254   5.413   5.419   6.502
    1   AR   Ar  255   5.093   4.181   6.816
    1   AR   Ar  256   5.810   6.570   4.407
    7.12000  7.12000 12.00000
Argon-slab step 1915
  256
    1   AR   Ar    1   7.021   1.649  -0.833
    1   AR   Ar    2   6.022   0.357   1.127
    1   AR   Ar    3   0.046   6.955   0.875
    1   AR   Ar    4   1.261   7.005   0.554
    1   AR   Ar    5   6.682   5.774   0.850
    1   AR   Ar    6   0.053   0.493   2.720
    1   AR   Ar    7   0.257   5.222   2.804
    1   AR   Ar    8   6.837   6.889   1.971
    1   AR   Ar    9   1.073   0.616   4.214
    1   AR   Ar   10   1.140   1.693   3.968
    1   AR   Ar   11   3.219   7.039   4.994
    1   AR   Ar   12   1.207   0.793   2.967
    1   AR   Ar   13   0.084   1.424   4.847
    1   AR   Ar   14   0.669   1.447   6.341
    1   AR   Ar   15   6.980   0.244   8.905
    1   AR   Ar   16   0.964   1.516   5.318
    1   AR   Ar   17   0.666   1.420   0.048
    1   AR   Ar   18   6.241   3.372  -0.861
    1   AR   Ar   19   0.991   1.995   1.773
    1   AR   Ar   20   6.409   3.227  -2.599
    1   AR   Ar   21   6.194   1.333   2.723
    1   AR   Ar   22   0.166   1.713   2.291
    1   AR   Ar   23   6.975   1.015   1.221
    1   AR   Ar   24   7.112   2.120   1.340
    1   AR   Ar   25   0.387   1.374   3.274
    1   AR   Ar   26   6.214   1.239   3.851
    1   AR   Ar   27   2.002   1.136   3.545
    1   AR   Ar   28   1.346   2.420   5.003
    1   AR   Ar   29   5.637   1.647   6.629
    1   AR   Ar   30   0.800   2.553   6.097
    1   AR   Ar   31   0.731   7.021   6.635
    1   AR   Ar   32   2.021   3.071   5.940
    1   AR   Ar   33   1.723   4.492  -0.986
    1   AR   Ar   34   0.260   5.817   1.675
    1   AR   Ar   35   0.182   4.139   1.292
    1   AR   Ar   36   0.444   6.778  -1.972
    1   AR   Ar   37   7.061   2.716   2.412
    1   AR   Ar   38   6.949   4.096   2.579
    1   AR   Ar   39   1.337   4.232   2.673
    1   AR   Ar   40   1.204   3.932   1.543
    1   AR   Ar   41   0.739   2.557   3.223
    1   AR   Ar   42   6.642   5.308   5.073
    1   AR   Ar   43   6.885   2.588   5.309
    1   AR   Ar   44   0.278   4.264   3.522
    1   AR   Ar   45   1.141   3.453   5.193
    1   AR   Ar   46   0.592   5.772   6.490
    1   AR   Ar   47   6.012   3.591   6.530
    1   AR   Ar   48   6.290   6.721   6.576
    1   AR   Ar   49   6.532   6.453  -2.022
    1   AR   Ar   50   5.911   5.415   1.720
    1   AR   Ar   51   1.117   5.028   1.414
    1   AR   Ar   52   6.581   4.782  -1.025
    1   AR   Ar   53   5.977   6.278   2.674
    1   AR   Ar   54   6.895   6.688   3.355
    1   AR   Ar   55   6.223   4.858   2.931
    1   AR   Ar   56   0.775   6.947   1.737
    1   AR   Ar   57   6.596   3.569   3.337
    1   AR   Ar   58   6.678   5.702   4.024
    1   AR   Ar   59   1.485   5.574   5.724
    1   AR   Ar   60   0.433   6.500   4.245
    1   AR   Ar   61   5.783   6.070   5.865
    1   AR   Ar   62   0.569   5.800   4.965
    1   AR   Ar   63   1.595   6.398   6.390
    1   AR   Ar   64   1.128   6.753   5.157
    1   AR   Ar   65   3.249   6.951   0.586
    1   AR   Ar   66   1.421   1.073   0.764
    1   AR   Ar   67   3.541   6.157  -0.935
    1   AR   Ar   68   3.017   1.722  -1.562
    1   AR   Ar   69   2.221   0.388   0.711
    1   AR   Ar   70   0.907   0.980   2.032
    1   AR   Ar   71   2.930   0.689   2.880
    1   AR   Ar   72   2.942   0.553   1.811
    1   AR   Ar   73   1.800   0.100   3.496
    1   AR   Ar   74   1.891   1.134   4.475
    1   AR   Ar   75   3.421   0.931   4.944
    1   AR   Ar   76   2.052   1.229   2.413
    1   AR   Ar   77   2.323   6.788   5.331
    1   AR   Ar   78   1.327   0.653   6.292
    1   AR   Ar   79   3.546   6.262   6.904
    1   AR   Ar   80   2.828   5.744   5.575
    1   AR   Ar   81   1.810   1.551  -0.150
    1   AR   Ar   82   0.256   3.595  -1.011
    1   AR   Ar   83   2.279   2.267   0.779
    1   AR   Ar   84   0.560   3.705  -1.976
    1   AR   Ar   85   0.253   2.550   0.243
    1   AR   Ar   86   1.954   3.381   1.885
    1   AR   Ar   87   2.195   2.281   1.971
    1   AR   Ar   88   4.152   4.056   1.740
    1   AR   Ar   89   0.973   3.205   2.260
    1   AR   Ar   90   3.031   2.021   4.318
    1   AR   Ar   91   1.937   2.220   4.129
    1   AR   Ar   92   1.483   2.179   2.691
    1   AR   Ar   93   2.141   1.799   5.146
    1   AR   Ar   94   1.215   1.554   8.180
    1   AR   Ar   95   3.403   6.686   5.976
    1   AR   Ar   96   1.966   0.625   5.393
    1   AR   Ar   97   3.786   2.171  -1.215
    1   AR   Ar   98   2.815   4.096   1.196
    1   AR   Ar   99   6.860   2.595  -1.445
    1   AR   Ar  100   1.640   3.649  -0.401
    1   AR   Ar  101   1.759   3.515   0.760
    1   AR   Ar  102   2.463   3.480   3.869
    1   AR   Ar  103   1.002   4.861   0.150
    1   AR   Ar  104   2.740   2.145  -0.633
    1   AR   Ar  105   1.569   3.231   3.197
    1   AR   Ar  106   2.368   2.904   4.832
    1   AR   Ar  107   2.113   3.943   4.844
    1   AR   Ar  108   3.679   2.950   4.298
    1   AR   Ar  109   1.581   4.125   3.686
    1   AR   Ar  110   1.266   4.596   6.103
    1   AR   Ar  111   4.252   4.959   6.910
    1   AR   Ar  112   0.425   4.961   7.249
    1   AR   Ar  113   2.245   4.733   0.422
    1   AR   Ar  114   2.589   5.746   0.034
    1   AR   Ar  115   2.892   3.948  -0.572
    1   AR   Ar  116   4.944   6.398  -0.164
    1   AR   Ar  117   0.535   5.532   3.828
    1   AR   Ar  118   0.770   6.707   2.959
    1   AR   Ar  119   2.881   4.227   3.045
    1   AR   Ar  120   1.172   5.717   2.686
    1   AR   Ar  121   6.946   4.536   4.408
    1   AR   Ar  122   2.523   6.210   4.481
    1   AR   Ar  123   2.474   5.026   4.868
    1   AR   Ar  124   2.318   5.931   2.950
    1   AR   Ar  125   0.726   4.654   5.303
    1   AR   Ar  126   0.478   0.619   5.501
    1   AR   Ar  127   2.758   5.550   7.503
    1   AR   Ar  128   2.193   5.370   6.600
    1   AR   Ar  129   1.531   0.074   2.254
    1   AR   Ar  130   3.428   0.988  -3.216
    1   AR   Ar  131   4.638   0.034   0.794
    1   AR   Ar  132   0.726   2.231  -1.253
    1   AR   Ar  133   3.832   7.077   2.931
    1   AR   Ar  134   3.825   1.393   2.835
    1   AR   Ar  135   4.826   0.824   2.734
    1   AR   Ar  136   4.288   0.282   2.002
    1   AR   Ar  137   2.790   6.655   3.430
    1   AR   Ar  138   4.650   1.196   5.047
    1   AR   Ar  139   6.056   1.443   4.970
    1   AR   Ar  140   4.234   0.896   3.639
    1   AR   Ar  141   3.926   6.947   4.179
    1   AR   Ar  142   4.157   0.023   5.307
    1   AR   Ar  143   5.194   6.910   6.079
    1   AR   Ar  144   4.693   0.584   6.788
    1   AR   Ar  145   3.537   3.791   0.392
    1   AR   Ar  146   4.236   2.744   1.831
    1   AR   Ar  147   6.028   1.991  -0.797
    1   AR   Ar  148   5.140   4.389  -2.515
    1   AR   Ar  149   3.547   1.851   0.974
    1   AR   Ar  150   2.490   2.103   3.326
    1   AR   Ar  151   3.515   2.451   3.367
    1   AR   Ar  152   2.662   3.207   0.132
    1   AR   Ar  153   3.124   0.691   3.995
    1   AR   Ar  154   4.101   1.807   4.391
    1   AR   Ar  155   5.640   0.808   5.716
    1   AR   Ar  156   3.803   3.801   3.621
    1   AR   Ar  157   3.175   2.901   5.819
    1   AR   Ar  158   1.171   2.730   7.049
    1   AR   Ar  159   3.578   1.324   5.976
    1   AR   Ar  160   3.505   2.430   7.403
    1   AR   Ar  161   5.503   2.014   0.691
    1   AR   Ar  162   4.388   5.392  -0.487
    1   AR   Ar  163   5.579   3.007   0.197
    1   AR   Ar  164   4.050   4.948   1.201
    1   AR   Ar  165   3.164   3.136   1.688
    1   AR   Ar  166   2.385   5.096   3.683
    1   AR   Ar  167   4.459   2.355   2.697
    1   AR   Ar  168   4.402   3.116  -0.755
    1   AR   Ar  169   2.710   2.987   2.672
    1   AR   Ar  170   3.357   3.964   4.961
    1   AR   Ar  171   4.403   3.816   4.437
    1   AR   Ar  172   4.450   5.403   4.301
    1   AR   Ar  173   1.751   4.080   6.861
    1   AR   Ar  174   3.691   5.334   5.897
    1   AR   Ar  175   4.184   3.897   6.297
    1   AR   Ar  176   3.664   4.980   4.869
    1   AR   Ar  177   5.962   6.056  -0.280
    1   AR   Ar  178   3.090   6.666   1.561
    1   AR   Ar  179   4.025   6.086   0.595
    1   AR   Ar  180   3.833   3.466  -2.641
    1   AR   Ar  181   2.249   5.337   1.333
    1   AR   Ar  182   2.626   6.942   2.510
    1   AR   Ar  183   3.573   5.057   2.389
    1   AR   Ar  184   4.210   6.393   1.682
    1   AR   Ar  185   1.586   5.335   4.347
    1   AR   Ar  186   3.355   5.805   3.840
    1   AR   Ar  187   4.242   5.869   3.171
    1   AR   Ar  188   3.396   6.059   2.451
    1   AR   Ar  189   2.409   4.652   5.807
    1   AR   Ar  190   4.420   6.335   6.229
    1   AR   Ar  191   4.864   5.559   5.558
    1   AR   Ar  192   3.957   6.144   5.158
    1   AR   Ar  193   7.067   6.197   0.046
    1   AR   Ar  194   5.618   4.650  -0.811
    1   AR   Ar  195   6.167   0.386  -0.613
    1   AR   Ar  196   4.868   1.166  -0.994
    1   AR   Ar  197   5.245   0.855   0.444
    1   AR   Ar  198   6.054   1.410   1.407
    1   AR   Ar  199   5.112   0.812   1.574
    1   AR   Ar  200   6.417   1.600   0.276
    1   AR   Ar  201   4.790   6.982   3.546
    1   AR   Ar  202   5.057   2.446   3.829
    1   AR   Ar  203   6.704   6.544   4.863
    1   AR   Ar  204   5.274   0.697   4.034
    1   AR   Ar  205   5.966   0.257   3.296
    1   AR   Ar  206   5.203   0.214   4.978
    1   AR   Ar  207   6.804   0.455   6.294
    1   AR   Ar  208   0.005   0.432   4.001
    1   AR   Ar  209   4.740   2.121  -1.611
    1   AR   Ar  210   3.748   0.751   1.137
    1   AR   Ar  211   6.535   3.238   0.464
    1   AR   Ar  212   6.735   3.929  -1.724
    1   AR   Ar  213   3.180   2.072   2.231
    1   AR   Ar  214   3.714   3.360   2.585
    1   AR   Ar  215   5.962   2.219   2.140
    1   AR   Ar  216   6.650   3.288   1.639
    1   AR   Ar  217   4.510   3.102   3.357
    1   AR   Ar  218   4.696   2.809   4.884
    1   AR   Ar  219   5.110   1.551   3.332
    1   AR   Ar  220   5.175   2.987   2.377
    1   AR   Ar  221   6.401   0.409   5.066
    1   AR   Ar  222   4.648   1.604   6.227
    1   AR   Ar  223   0.103   0.865   7.223
    1   AR   Ar  224   5.282   2.113   5.535
    1   AR   Ar  225   5.246   4.864   0.015
    1   AR   Ar  226   5.052   4.473   2.273
    1   AR   Ar  227   6.486   5.054  -0.069
    1   AR   Ar  228   5.141   5.875   0.979
    1   AR   Ar  229   5.707   4.064   0.766
    1   AR   Ar  230   4.531   4.850   3.298
    1   AR   Ar  231   6.902   2.251   3.466
    1   AR   Ar  232   4.519   3.297   0.645
    1   AR   Ar  233   6.352   2.256   4.425
    1   AR   Ar  234   7.039   3.360   4.411
    1   AR   Ar  235   0.456   2.421   4.388
    1   AR   Ar  236   5.241   4.500   4.283
    1   AR   Ar  237   5.736   3.353   4.167
    1   AR   Ar  238   4.842   4.318   5.548
    1   AR   Ar  239   6.026   3.861   9.273
    1   AR   Ar  240   6.892   3.934   5.544
    1   AR   Ar  241   0.185   0.342  -0.630
    1   AR   Ar  242   5.142   4.713   1.267
    1   AR   Ar  243   5.958   3.894   2.179
    1   AR   Ar  244   0.501   5.023  -1.285
    1   AR   Ar  245   5.596   0.021   2.037
    1   AR   Ar  246   6.060   6.355   1.454
    1   AR   Ar  247   5.196   3.596   1.575
    1   AR   Ar  248   5.652   6.650   0.546
    1   AR   Ar  249   5.132   5.473   2.593
    1   AR   Ar  250   4.766   6.347   4.519
    1   AR   Ar  251   5.570   5.645   4.572
    1   AR   Ar  252   5.372   6.071   3.611
    1   AR   Ar  253   5.970   4.798   5.630
    1   AR   Ar  254   5.423   5.410   6.506
    1   AR   Ar  255   5.095   4.181   6.813
    1   AR   Ar  256   5.786   6.567   4.426
    7.12000  7.12000 12.00000
Argon-slab step 1920
  256
    1   AR   Ar    1   7.035   1.657  -0.830
    1   AR   Ar    2   6.036   0.355   1.148
    1   AR   Ar    3   0.066   6.959   0.897
    1   AR   Ar    4   1.299   7.021   0.568
    1   AR   Ar    5   6.684   5.760   0.819
    1   AR   Ar    6   0.046   0.483   2.744
    1   AR   Ar    7   0.239   5.225   2.818
    1   AR   Ar    8   6.845   6.919   1.996
    1   AR   Ar    9   1.082   0.619   4.216
    1   AR   Ar   10   1.125   1.684   3.951
    1   AR   Ar   11   3.217   7.028   4.994
    1   AR   Ar   12   1.204   0.739   2.997
    1   AR   Ar   13   0.119   1.437   4.860
    1   AR   Ar   14   0.675   1.456   6.360
    1   AR   Ar   15   6.995   0.248   8.909
    1   AR   Ar   16   0.966   1.527   5.294
    1   AR   Ar   17   0.673   1.410   0.060
    1   AR   Ar   18   6.227   3.375  -0.877
    1   AR   Ar   19   0.985   2.012   1.741
    1   AR   Ar   20   6.387   3.264  -2.622
    1   AR   Ar   21   6.167   1.351   2.718
    1   AR   Ar   22   0.167   1.698   2.324
    1   AR   Ar   23   7.004   1.027   1.188
    1   AR   Ar   24   7.064   2.161   1.311
    1   AR   Ar   25   0.412   1.386   3.291
    1   AR   Ar   26   6.239   1.244   3.875
    1   AR   Ar   27   1.980   1.165   3.502
    1   AR   Ar   28   1.372   2.425   4.961
    1   AR   Ar   29   5.636   1.661   6.652
    1   AR   Ar   30   0.802   2.541   6.068
    1   AR   Ar   31   0.761   7.022   6.635
    1   AR   Ar   32   2.037   3.069   5.912
    1   AR   Ar   33   1.752   4.502  -0.974
    1   AR   Ar   34   0.263   5.829   1.673
    1   AR   Ar   35   0.190   4.169   1.299
    1   AR   Ar   36   0.421   6.793  -2.018
    1   AR   Ar   37   7.055   2.712   2.391
    1   AR   Ar   38   6.963   4.076   2.566
    1   AR   Ar   39   1.316   4.218   2.641
    1   AR   Ar   40   1.196   3.933   1.553
    1   AR   Ar   41   0.732   2.595   3.202
    1   AR   Ar   42   6.652   5.319   5.061
    1   AR   Ar   43   6.887   2.609   5.341
    1   AR   Ar   44   0.317   4.247   3.530
    1   AR   Ar   45   1.142   3.448   5.186
    1   AR   Ar   46   0.641   5.792   6.464
    1   AR   Ar   47   6.025   3.589   6.529
    1   AR   Ar   48   6.304   6.715   6.556
    1   AR   Ar   49   6.539   6.492  -1.998
    1   AR   Ar   50   5.927   5.415   1.739
    1   AR   Ar   51   1.114   5.026   1.421
    1   AR   Ar   52   6.564   4.809  -1.061
    1   AR   Ar   53   5.952   6.265   2.674
    1   AR   Ar   54   6.889   6.668   3.361
    1   AR   Ar   55   6.211   4.892   2.904
    1   AR   Ar   56   0.779   6.955   1.745
    1   AR   Ar   57   6.588   3.529   3.347
    1   AR   Ar   58   6.679   5.719   4.011
    1   AR   Ar   59   1.475   5.546   5.705
    1   AR   Ar   60   0.428   6.521   4.262
    1   AR   Ar   61   5.776   6.057   5.899
    1   AR   Ar   62   0.604   5.804   4.955
    1   AR   Ar   63   1.565   6.403   6.377
    1   AR   Ar   64   1.100   6.739   5.163
    1   AR   Ar   65   3.220   6.947   0.581
    1   AR   Ar   66   1.374   1.082   0.747
    1   AR   Ar   67   3.531   6.161  -0.897
    1   AR   Ar   68   2.977   1.753  -1.543
    1   AR   Ar   69   2.206   0.422   0.718
    1   AR   Ar   70   0.942   1.000   2.030
    1   AR   Ar   71   2.950   0.673   2.870
    1   AR   Ar   72   2.926   0.581   1.836
    1   AR   Ar   73   1.797   0.085   3.493
    1   AR   Ar   74   1.927   1.129   4.506
    1   AR   Ar   75   3.412   0.934   4.974
    1   AR   Ar   76   2.065   1.234   2.413
    1   AR   Ar   77   2.314   6.762   5.328
    1   AR   Ar   78   1.348   0.633   6.305
    1   AR   Ar   79   3.540   6.260   6.897
    1   AR   Ar   80   2.792   5.762   5.605
    1   AR   Ar   81   1.828   1.552  -0.155
    1   AR   Ar   82   0.252   3.650  -1.032
    1   AR   Ar   83   2.285   2.276   0.803
    1   AR   Ar   84   0.569   3.672  -1.967
    1   AR   Ar   85   0.225   2.553   0.237
    1   AR   Ar   86   1.935   3.385   1.871
    1   AR   Ar   87   2.183   2.260   1.996
    1   AR   Ar   88   4.184   4.058   1.709
    1   AR   Ar   89   1.007   3.206   2.288
    1   AR   Ar   90   3.015   2.021   4.304
    1   AR   Ar   91   1.940   2.239   4.138
    1   AR   Ar   92   1.469   2.170   2.700
    1   AR   Ar   93   2.145   1.791   5.141
    1   AR   Ar   94   1.172   1.577   8.188
    1   AR   Ar   95   3.417   6.693   5.967
    1   AR   Ar   96   1.972   0.624   5.420
    1   AR   Ar   97   3.773   2.184  -1.203
    1   AR   Ar   98   2.829   4.104   1.212
    1   AR   Ar   99   6.873   2.580  -1.447
    1   AR   Ar  100   1.652   3.642  -0.395
    1   AR   Ar  101   1.792   3.543   0.787
    1   AR   Ar  102   2.483   3.462   3.866
    1   AR   Ar  103   1.008   4.864   0.183
    1   AR   Ar  104   2.709   2.144  -0.647
    1   AR   Ar  105   1.576   3.264   3.185
    1   AR   Ar  106   2.365   2.898   4.832
    1   AR   Ar  107   2.102   3.938   4.855
    1   AR   Ar  108   3.678   2.947   4.291
    1   AR   Ar  109   1.613   4.096   3.719
    1   AR   Ar  110   1.282   4.605   6.077
    1   AR   Ar  111   4.262   4.943   6.901
    1   AR   Ar  112   0.424   4.956   7.316
    1   AR   Ar  113   2.226   4.721   0.413
    1   AR   Ar  114   2.590   5.730  -0.005
    1   AR   Ar  115   2.882   3.944  -0.594
    1   AR   Ar  116   4.943   6.406  -0.174
    1   AR   Ar  117   0.543   5.527   3.825
    1   AR   Ar  118   0.760   6.733   2.978
    1   AR   Ar  119   2.855   4.225   3.026
    1   AR   Ar  120   1.148   5.753   2.670
    1   AR   Ar  121   6.951   4.524   4.388
    1   AR   Ar  122   2.508   6.210   4.482
    1   AR   Ar  123   2.492   5.023   4.876
    1   AR   Ar  124   2.303   5.909   2.952
    1   AR   Ar  125   0.733   4.626   5.305
    1   AR   Ar  126   0.468   0.603   5.504
    1   AR   Ar  127   2.759   5.562   7.488
    1   AR   Ar  128   2.203   5.384   6.632
    1   AR   Ar  129   1.558   0.094   2.291
    1   AR   Ar  130   3.382   0.981  -3.231
    1   AR   Ar  131   4.611   0.020   0.775
    1   AR   Ar  132   0.740   2.214  -1.267
    1   AR   Ar  133   3.784   7.030   2.942
    1   AR   Ar  134   3.826   1.362   2.820
    1   AR   Ar  135   4.835   0.846   2.700
    1   AR   Ar  136   4.306   0.295   1.953
    1   AR   Ar  137   2.789   6.622   3.448
    1   AR   Ar  138   4.681   1.184   5.070
    1   AR   Ar  139   6.043   1.438   4.986
    1   AR   Ar  140   4.213   0.906   3.679
    1   AR   Ar  141   3.921   6.908   4.203
    1   AR   Ar  142   4.162   0.032   5.323
    1   AR   Ar  143   5.186   6.895   6.079
    1   AR   Ar  144   4.719   0.573   6.769
    1   AR   Ar  145   3.563   3.804   0.390
    1   AR   Ar  146   4.212   2.727   1.823
    1   AR   Ar  147   6.016   2.005  -0.795
    1   AR   Ar  148   5.136   4.385  -2.507
    1   AR   Ar  149   3.527   1.814   1.009
    1   AR   Ar  150   2.489   2.118   3.331
    1   AR   Ar  151   3.510   2.465   3.343
    1   AR   Ar  152   2.665   3.212   0.152
    1   AR   Ar  153   3.119   0.702   3.998
    1   AR   Ar  154   4.104   1.831   4.416
    1   AR   Ar  155   5.637   0.802   5.717
    1   AR   Ar  156   3.805   3.789   3.648
    1   AR   Ar  157   3.187   2.911   5.803
    1   AR   Ar  158   1.207   2.739   7.049
    1   AR   Ar  159   3.573   1.365   5.975
    1   AR   Ar  160   3.499   2.441   7.415
    1   AR   Ar  161   5.488   1.979   0.727
    1   AR   Ar  162   4.409   5.359  -0.487
    1   AR   Ar  163   5.590   3.020   0.203
    1   AR   Ar  164   4.038   4.945   1.189
    1   AR   Ar  165   3.133   3.137   1.678
    1   AR   Ar  166   2.400   5.100   3.710
    1   AR   Ar  167   4.445   2.364   2.730
    1   AR   Ar  168   4.422   3.132  -0.751
    1   AR   Ar  169   2.728   3.010   2.628
    1   AR   Ar  170   3.375   3.993   4.958
    1   AR   Ar  171   4.400   3.817   4.447
    1   AR   Ar  172   4.467   5.419   4.325
    1   AR   Ar  173   1.762   4.081   6.862
    1   AR   Ar  174   3.708   5.336   5.886
    1   AR   Ar  175   4.197   3.877   6.309
    1   AR   Ar  176   3.641   4.958   4.888
    1   AR   Ar  177   5.971   6.039  -0.305
    1   AR   Ar  178   3.092   6.678   1.595
    1   AR   Ar  179   4.028   6.101   0.591
    1   AR   Ar  180   3.843   3.431  -2.662
    1   AR   Ar  181   2.223   5.347   1.362
    1   AR   Ar  182   2.623   6.905   2.509
    1   AR   Ar  183   3.567   5.075   2.374
    1   AR   Ar  184   4.210   6.380   1.695
    1   AR   Ar  185   1.594   5.348   4.341
    1   AR   Ar  186   3.356   5.790   3.811
    1   AR   Ar  187   4.263   5.844   3.167
    1   AR   Ar  188   3.408   6.090   2.476
    1   AR   Ar  189   2.413   4.611   5.816
    1   AR   Ar  190   4.415   6.361   6.253
    1   AR   Ar  191   4.864   5.539   5.551
    1   AR   Ar  192   3.934   6.138   5.167
    1   AR   Ar  193   7.063   6.214   0.039
    1   AR   Ar  194   5.620   4.608  -0.842
    1   AR   Ar  195   6.193   0.390  -0.635
    1   AR   Ar  196   4.838   1.199  -0.993
    1   AR   Ar  197   5.251   0.843   0.459
    1   AR   Ar  198   6.084   1.410   1.406
    1   AR   Ar  199   5.084   0.824   1.563
    1   AR   Ar  200   6.410   1.577   0.291
    1   AR   Ar  201   4.789   6.941   3.566
    1   AR   Ar  202   5.054   2.419   3.811
    1   AR   Ar  203   6.711   6.550   4.883
    1   AR   Ar  204   5.271   0.704   4.028
    1   AR   Ar  205   5.972   0.271   3.314
    1   AR   Ar  206   5.203   0.224   4.966
    1   AR   Ar  207   6.814   0.454   6.281
    1   AR   Ar  208   7.093   0.417   3.980
    1   AR   Ar  209   4.748   2.122  -1.608
    1   AR   Ar  210   3.754   0.756   1.132
    1   AR   Ar  211   6.555   3.206   0.446
    1   AR   Ar  212   6.696   3.955  -1.693
    1   AR   Ar  213   3.173   2.067   2.229
    1   AR   Ar  214   3.683   3.360   2.626
    1   AR   Ar  215   5.997   2.236   2.139
    1   AR   Ar  216   6.660   3.309   1.634
    1   AR   Ar  217   4.495   3.125   3.353
    1   AR   Ar  218   4.689   2.794   4.871
    1   AR   Ar  219   5.102   1.576   3.329
    1   AR   Ar  220   5.186   3.006   2.390
    1   AR   Ar  221   6.387   0.383   5.042
    1   AR   Ar  222   4.657   1.611   6.226
    1   AR   Ar  223   0.087   0.842   7.206
    1   AR   Ar  224   5.254   2.123   5.526
    1   AR   Ar  225   5.270   4.866  -0.008
    1   AR   Ar  226   5.064   4.481   2.261
    1   AR   Ar  227   6.486   5.050  -0.030
    1   AR   Ar  228   5.138   5.894   1.006
    1   AR   Ar  229   5.720   4.081   0.712
    1   AR   Ar  230   4.537   4.854   3.301
    1   AR   Ar  231   6.900   2.251   3.489
    1   AR   Ar  232   4.503   3.299   0.633
    1   AR   Ar  233   6.357   2.293   4.431
    1   AR   Ar  234   7.049   3.332   4.439
    1   AR   Ar  235   0.416   2.413   4.380
    1   AR   Ar  236   5.244   4.489   4.285
    1   AR   Ar  237   5.757   3.346   4.150
    1   AR   Ar  238   4.832   4.310   5.541
    1   AR   Ar  239   6.053   3.861   9.270
    1   AR   Ar  240   6.886   3.903   5.575
    1   AR   Ar  241   0.176   0.334  -0.602
    1   AR   Ar  242   5.144   4.730   1.273
    1   AR   Ar  243   5.962   3.899   2.195
    1   AR   Ar  244   0.490   5.024  -1.306
    1   AR   Ar  245   5.586   0.025   2.055
    1   AR   Ar  246   6.063   6.362   1.484
    1   AR   Ar  247   5.219   3.574   1.585
    1   AR   Ar  248   5.624   6.662   0.542
    1   AR   Ar  249   5.093   5.444   2.598
    1   AR   Ar  250   4.782   6.347   4.533
    1   AR   Ar  251   5.560   5.633   4.582
    1   AR   Ar  252   5.359   6.044   3.614
    1   AR   Ar  253   5.965   4.819   5.626
    1   AR   Ar  254   5.427   5.392   6.516
    1   AR   Ar  255   5.099   4.183   6.809
    1   AR   Ar  256   5.768   6.595   4.433
    7.12000  7.12000 12.00000
Argon-slab step 1925
  256
    1   AR   Ar    1   7.056   1.659  -0.834
    1   AR   Ar    2   6.053   0.353   1.167
    1   AR   Ar    3   0.085   6.964   0.920
    1   AR   Ar    4   1.334   7.037   0.583
    1   AR   Ar    5   6.680   5.741   0.798
    1   AR   Ar    6   0.040   0.476   2.771
    1   AR   Ar    7   0.217   5.225   2.831
    1   AR   Ar    8   6.852   6.948   2.020
    1   AR   Ar    9   1.087   0.620   4.217
    1   AR   Ar   10   1.106   1.674   3.937
    1   AR   Ar   11   3.208   7.008   4.996
    1   AR   Ar   12   1.191   0.690   3.030
    1   AR   Ar   13   0.135   1.448   4.863
    1   AR   Ar   14   0.678   1.465   6.379
    1   AR   Ar   15   7.010   0.253   8.913
    1   AR   Ar   16   0.987   1.538   5.279
    1   AR   Ar   17   0.674   1.402   0.068
    1   AR   Ar   18   6.213   3.379  -0.890
    1   AR   Ar   19   0.982   2.033   1.706
    1   AR   Ar   20   6.365   3.301  -2.642
    1   AR   Ar   21   6.142   1.366   2.714
    1   AR   Ar   22   0.164   1.679   2.356
    1   AR   Ar   23   7.039   1.037   1.155
    1   AR   Ar   24   7.014   2.201   1.281
    1   AR   Ar   25   0.432   1.397   3.308
    1   AR   Ar   26   6.266   1.249   3.899
    1   AR   Ar   27   2.015   1.188   3.513
    1   AR   Ar   28   1.389   2.437   4.922
    1   AR   Ar   29   5.636   1.675   6.673
    1   AR   Ar   30   0.804   2.528   6.034
    1   AR   Ar   31   0.781   7.018   6.639
    1   AR   Ar   32   2.034   3.090   5.906
    1   AR   Ar   33   1.781   4.515  -0.964
    1   AR   Ar   34   0.266   5.842   1.673
    1   AR   Ar   35   0.196   4.199   1.306
    1   AR   Ar   36   0.401   6.809  -2.063
    1   AR   Ar   37   7.049   2.709   2.374
    1   AR   Ar   38   6.980   4.058   2.547
    1   AR   Ar   39   1.293   4.204   2.609
    1   AR   Ar   40   1.178   3.945   1.560
    1   AR   Ar   41   0.718   2.637   3.186
    1   AR   Ar   42   6.666   5.335   5.046
    1   AR   Ar   43   6.892   2.630   5.373
    1   AR   Ar   44   0.360   4.229   3.533
    1   AR   Ar   45   1.142   3.446   5.179
    1   AR   Ar   46   0.690   5.812   6.438
    1   AR   Ar   47   6.037   3.612   6.536
    1   AR   Ar   48   6.316   6.708   6.537
    1   AR   Ar   49   6.542   6.530  -1.974
    1   AR   Ar   50   5.941   5.403   1.762
    1   AR   Ar   51   1.110   5.025   1.427
    1   AR   Ar   52   6.558   4.839  -1.100
    1   AR   Ar   53   5.927   6.251   2.673
    1   AR   Ar   54   6.880   6.647   3.366
    1   AR   Ar   55   6.199   4.927   2.877
    1   AR   Ar   56   0.774   6.959   1.746
    1   AR   Ar   57   6.578   3.485   3.363
    1   AR   Ar   58   6.673   5.739   4.000
    1   AR   Ar   59   1.466   5.522   5.682
    1   AR   Ar   60   0.425   6.548   4.272
    1   AR   Ar   61   5.768   6.088   5.901
    1   AR   Ar   62   0.639   5.800   4.950
    1   AR   Ar   63   1.540   6.407   6.362
    1   AR   Ar   64   1.073   6.727   5.169
    1   AR   Ar   65   3.193   6.943   0.575
    1   AR   Ar   66   1.328   1.090   0.736
    1   AR   Ar   67   3.521   6.164  -0.857
    1   AR   Ar   68   2.925   1.774  -1.537
    1   AR   Ar   69   2.196   0.457   0.727
    1   AR   Ar   70   0.975   1.017   2.025
    1   AR   Ar   71   2.971   0.663   2.869
    1   AR   Ar   72   2.908   0.612   1.858
    1   AR   Ar   73   1.802   0.048   3.501
    1   AR   Ar   74   1.962   1.111   4.528
    1   AR   Ar   75   3.401   0.935   5.013
    1   AR   Ar   76   2.077   1.237   2.412
    1   AR   Ar   77   2.296   6.733   5.333
    1   AR   Ar   78   1.374   0.618   6.314
    1   AR   Ar   79   3.533   6.254   6.894
    1   AR   Ar   80   2.764   5.779   5.622
    1   AR   Ar   81   1.869   1.567  -0.154
    1   AR   Ar   82   0.250   3.701  -1.036
    1   AR   Ar   83   2.291   2.286   0.827
    1   AR   Ar   84   0.584   3.639  -1.969
    1   AR   Ar   85   0.199   2.552   0.229
    1   AR   Ar   86   1.916   3.374   1.858
    1   AR   Ar   87   2.172   2.242   2.013
    1   AR   Ar   88   4.248   4.039   1.689
    1   AR   Ar   89   1.029   3.221   2.282
    1   AR   Ar   90   2.998   2.020   4.292
    1   AR   Ar   91   1.945   2.261   4.151
    1   AR   Ar   92   1.458   2.155   2.712
    1   AR   Ar   93   2.160   1.796   5.155
    1   AR   Ar   94   1.129   1.601   8.195
    1   AR   Ar   95   3.428   6.699   5.957
    1   AR   Ar   96   1.981   0.616   5.415
    1   AR   Ar   97   3.772   2.205  -1.183
    1   AR   Ar   98   2.842   4.112   1.228
    1   AR   Ar   99   6.883   2.567  -1.449
    1   AR   Ar  100   1.672   3.631  -0.385
    1   AR   Ar  101   1.829   3.572   0.811
    1   AR   Ar  102   2.505   3.441   3.863
    1   AR   Ar  103   1.016   4.866   0.216
    1   AR   Ar  104   2.676   2.147  -0.653
    1   AR   Ar  105   1.586   3.288   3.169
    1   AR   Ar  106   2.365   2.891   4.834
    1   AR   Ar  107   2.091   3.936   4.867
    1   AR   Ar  108   3.666   2.935   4.272
    1   AR   Ar  109   1.646   4.079   3.760
    1   AR   Ar  110   1.313   4.605   6.063
    1   AR   Ar  111   4.273   4.927   6.890
    1   AR   Ar  112   0.443   4.976   7.342
    1   AR   Ar  113   2.208   4.707   0.404
    1   AR   Ar  114   2.592   5.714  -0.045
    1   AR   Ar  115   2.871   3.942  -0.617
    1   AR   Ar  116   4.934   6.410  -0.165
    1   AR   Ar  117   0.557   5.520   3.823
    1   AR   Ar  118   0.752   6.761   2.996
    1   AR   Ar  119   2.830   4.222   3.007
    1   AR   Ar  120   1.136   5.774   2.667
    1   AR   Ar  121   6.954   4.512   4.373
    1   AR   Ar  122   2.496   6.205   4.480
    1   AR   Ar  123   2.511   5.021   4.878
    1   AR   Ar  124   2.284   5.881   2.948
    1   AR   Ar  125   0.727   4.598   5.288
    1   AR   Ar  126   0.458   0.578   5.503
    1   AR   Ar  127   2.762   5.576   7.475
    1   AR   Ar  128   2.210   5.398   6.657
    1   AR   Ar  129   1.584   0.105   2.314
    1   AR   Ar  130   3.335   0.973  -3.246
    1   AR   Ar  131   4.582   0.004   0.758
    1   AR   Ar  132   0.756   2.198  -1.280
    1   AR   Ar  133   3.737   6.984   2.955
    1   AR   Ar  134   3.839   1.364   2.806
    1   AR   Ar  135   4.835   0.867   2.726
    1   AR   Ar  136   4.318   0.305   1.907
    1   AR   Ar  137   2.787   6.588   3.462
    1   AR   Ar  138   4.713   1.172   5.094
    1   AR   Ar  139   6.029   1.434   5.001
    1   AR   Ar  140   4.194   0.914   3.723
    1   AR   Ar  141   3.913   6.869   4.224
    1   AR   Ar  142   4.178   0.045   5.342
    1   AR   Ar  143   5.196   6.897   6.050
    1   AR   Ar  144   4.735   0.567   6.756
    1   AR   Ar  145   3.603   3.809   0.380
    1   AR   Ar  146   4.196   2.708   1.804
    1   AR   Ar  147   6.003   2.020  -0.793
    1   AR   Ar  148   5.132   4.380  -2.498
    1   AR   Ar  149   3.506   1.780   1.046
    1   AR   Ar  150   2.493   2.133   3.323
    1   AR   Ar  151   3.532   2.474   3.347
    1   AR   Ar  152   2.666   3.214   0.173
    1   AR   Ar  153   3.116   0.691   4.010
    1   AR   Ar  154   4.121   1.849   4.456
    1   AR   Ar  155   5.626   0.803   5.686
    1   AR   Ar  156   3.794   3.784   3.668
    1   AR   Ar  157   3.199   2.922   5.785
    1   AR   Ar  158   1.216   2.740   7.040
    1   AR   Ar  159   3.569   1.405   5.972
    1   AR   Ar  160   3.493   2.453   7.427
    1   AR   Ar  161   5.493   1.976   0.743
    1   AR   Ar  162   4.430   5.327  -0.487
    1   AR   Ar  163   5.594   3.037   0.206
    1   AR   Ar  164   4.025   4.947   1.176
    1   AR   Ar  165   3.104   3.138   1.664
    1   AR   Ar  166   2.417   5.103   3.736
    1   AR   Ar  167   4.429   2.357   2.765
    1   AR   Ar  168   4.443   3.147  -0.747
    1   AR   Ar  169   2.737   3.031   2.590
    1   AR   Ar  170   3.389   4.011   4.954
    1   AR   Ar  171   4.402   3.817   4.466
    1   AR   Ar  172   4.483   5.427   4.347
    1   AR   Ar  173   1.774   4.082   6.864
    1   AR   Ar  174   3.728   5.338   5.879
    1   AR   Ar  175   4.208   3.857   6.321
    1   AR   Ar  176   3.620   4.944   4.905
    1   AR   Ar  177   5.981   6.021  -0.330
    1   AR   Ar  178   3.078   6.677   1.619
    1   AR   Ar  179   4.032   6.116   0.587
    1   AR   Ar  180   3.852   3.396  -2.682
    1   AR   Ar  181   2.197   5.356   1.390
    1   AR   Ar  182   2.614   6.864   2.500
    1   AR   Ar  183   3.562   5.088   2.358
    1   AR   Ar  184   4.209   6.366   1.706
    1   AR   Ar  185   1.599   5.362   4.338
    1   AR   Ar  186   3.358   5.774   3.783
    1   AR   Ar  187   4.283   5.827   3.164
    1   AR   Ar  188   3.418   6.126   2.503
    1   AR   Ar  189   2.417   4.569   5.830
    1   AR   Ar  190   4.397   6.374   6.279
    1   AR   Ar  191   4.863   5.519   5.542
    1   AR   Ar  192   3.910   6.129   5.174
    1   AR   Ar  193   7.064   6.236   0.022
    1   AR   Ar  194   5.622   4.555  -0.893
    1   AR   Ar  195   6.218   0.394  -0.655
    1   AR   Ar  196   4.809   1.232  -0.992
    1   AR   Ar  197   5.260   0.832   0.474
    1   AR   Ar  198   6.109   1.413   1.408
    1   AR   Ar  199   5.060   0.840   1.549
    1   AR   Ar  200   6.405   1.554   0.305
    1   AR   Ar  201   4.787   6.902   3.584
    1   AR   Ar  202   5.054   2.401   3.805
    1   AR   Ar  203   6.722   6.547   4.905
    1   AR   Ar  204   5.268   0.713   4.022
    1   AR   Ar  205   5.979   0.284   3.330
    1   AR   Ar  206   5.200   0.229   4.955
    1   AR   Ar  207   6.825   0.457   6.264
    1   AR   Ar  208   7.062   0.405   3.958
    1   AR   Ar  209   4.744   2.115  -1.606
    1   AR   Ar  210   3.761   0.758   1.127
    1   AR   Ar  211   6.578   3.178   0.432
    1   AR   Ar  212   6.647   3.982  -1.671
    1   AR   Ar  213   3.177   2.049   2.232
    1   AR   Ar  214   3.658   3.362   2.667
    1   AR   Ar  215   6.034   2.256   2.136
    1   AR   Ar  216   6.670   3.331   1.624
    1   AR   Ar  217   4.481   3.157   3.351
    1   AR   Ar  218   4.680   2.778   4.854
    1   AR   Ar  219   5.098   1.595   3.325
    1   AR   Ar  220   5.200   3.022   2.412
    1   AR   Ar  221   6.373   0.363   5.018
    1   AR   Ar  222   4.662   1.615   6.225
    1   AR   Ar  223   0.074   0.819   7.189
    1   AR   Ar  224   5.230   2.132   5.514
    1   AR   Ar  225   5.285   4.876  -0.005
    1   AR   Ar  226   5.074   4.483   2.253
    1   AR   Ar  227   6.485   5.046   0.012
    1   AR   Ar  228   5.132   5.908   1.036
    1   AR   Ar  229   5.736   4.095   0.655
    1   AR   Ar  230   4.539   4.840   3.317
    1   AR   Ar  231   6.894   2.250   3.511
    1   AR   Ar  232   4.490   3.301   0.623
    1   AR   Ar  233   6.361   2.332   4.436
    1   AR   Ar  234   7.057   3.308   4.467
    1   AR   Ar  235   0.378   2.401   4.372
    1   AR   Ar  236   5.247   4.479   4.287
    1   AR   Ar  237   5.778   3.338   4.132
    1   AR   Ar  238   4.823   4.304   5.532
    1   AR   Ar  239   6.080   3.862   9.267
    1   AR   Ar  240   6.880   3.873   5.604
    1   AR   Ar  241   0.168   0.327  -0.573
    1   AR   Ar  242   5.119   4.731   1.283
    1   AR   Ar  243   5.971   3.907   2.216
    1   AR   Ar  244   0.480   5.024  -1.326
    1   AR   Ar  245   5.575   0.028   2.078
    1   AR   Ar  246   6.067   6.378   1.512
    1   AR   Ar  247   5.221   3.557   1.585
    1   AR   Ar  248   5.603   6.682   0.539
    1   AR   Ar  249   5.058   5.422   2.603
    1   AR   Ar  250   4.794   6.356   4.551
    1   AR   Ar  251   5.551   5.606   4.596
    1   AR   Ar  252   5.346   6.014   3.612
    1   AR   Ar  253   5.933   4.812   5.635
    1   AR   Ar  254   5.425   5.364   6.535
    1   AR   Ar  255   5.104   4.187   6.805
    1   AR   Ar  256   5.759   6.648   4.426
    7.12000  7.12000 12.00000
Argon-slab step 1930
  256
    1   AR   Ar    1   7.077   1.659  -0.835
    1   AR   Ar    2   6.071   0.351   1.186
    1   AR   Ar    3   0.101   6.969   0.942
    1   AR   Ar    4   1.351   7.043   0.583
    1   AR   Ar    5   6.671   5.719   0.788
    1   AR   Ar    6   0.035   0.473   2.801
    1   AR   Ar    7   0.192   5.223   2.844
    1   AR   Ar    8   6.855   6.974   2.041
    1   AR   Ar    9   1.088   0.618   4.216
    1   AR   Ar   10   1.098   1.668   3.934
    1   AR   Ar   11   3.198   6.987   4.991
    1   AR   Ar   12   1.170   0.650   3.066
    1   AR   Ar   13   0.131   1.457   4.856
    1   AR   Ar   14   0.680   1.474   6.397
    1   AR   Ar   15   7.025   0.258   8.917
    1   AR   Ar   16   1.029   1.549   5.273
    1   AR   Ar   17   0.667   1.399   0.068
    1   AR   Ar   18   6.199   3.381  -0.902
    1   AR   Ar   19   1.010   2.022   1.677
    1   AR   Ar   20   6.345   3.338  -2.662
    1   AR   Ar   21   6.117   1.378   2.713
    1   AR   Ar   22   0.158   1.658   2.385
    1   AR   Ar   23   7.079   1.045   1.120
    1   AR   Ar   24   6.963   2.242   1.253
    1   AR   Ar   25   0.439   1.400   3.319
    1   AR   Ar   26   6.294   1.254   3.923
    1   AR   Ar   27   2.051   1.211   3.520
    1   AR   Ar   28   1.392   2.455   4.894
    1   AR   Ar   29   5.637   1.688   6.694
    1   AR   Ar   30   0.807   2.515   5.997
    1   AR   Ar   31   0.787   7.010   6.647
    1   AR   Ar   32   2.025   3.116   5.903
    1   AR   Ar   33   1.811   4.530  -0.953
    1   AR   Ar   34   0.269   5.857   1.674
    1   AR   Ar   35   0.198   4.231   1.314
    1   AR   Ar   36   0.387   6.827  -2.109
    1   AR   Ar   37   7.045   2.707   2.360
    1   AR   Ar   38   7.001   4.042   2.525
    1   AR   Ar   39   1.271   4.193   2.580
    1   AR   Ar   40   1.152   3.967   1.561
    1   AR   Ar   41   0.698   2.682   3.175
    1   AR   Ar   42   6.682   5.355   5.029
    1   AR   Ar   43   6.898   2.650   5.405
    1   AR   Ar   44   0.407   4.210   3.532
    1   AR   Ar   45   1.141   3.444   5.173
    1   AR   Ar   46   0.736   5.829   6.412
    1   AR   Ar   47   6.050   3.636   6.541
    1   AR   Ar   48   6.327   6.700   6.521
    1   AR   Ar   49   6.539   6.566  -1.949
    1   AR   Ar   50   5.953   5.385   1.787
    1   AR   Ar   51   1.105   5.025   1.434
    1   AR   Ar   52   6.559   4.875  -1.137
    1   AR   Ar   53   5.904   6.237   2.672
    1   AR   Ar   54   6.867   6.624   3.371
    1   AR   Ar   55   6.186   4.961   2.848
    1   AR   Ar   56   0.767   6.963   1.747
    1   AR   Ar   57   6.569   3.439   3.379
    1   AR   Ar   58   6.662   5.760   3.991
    1   AR   Ar   59   1.461   5.505   5.655
    1   AR   Ar   60   0.424   6.579   4.275
    1   AR   Ar   61   5.764   6.114   5.893
    1   AR   Ar   62   0.672   5.787   4.947
    1   AR   Ar   63   1.525   6.410   6.342
    1   AR   Ar   64   1.048   6.719   5.178
    1   AR   Ar   65   3.188   6.928   0.569
    1   AR   Ar   66   1.289   1.096   0.734
    1   AR   Ar   67   3.511   6.166  -0.815
    1   AR   Ar   68   2.907   1.772  -1.539
    1   AR   Ar   69   2.193   0.493   0.737
    1   AR   Ar   70   1.009   1.031   2.019
    1   AR   Ar   71   2.992   0.657   2.877
    1   AR   Ar   72   2.924   0.613   1.862
    1   AR   Ar   73   1.814   0.005   3.511
    1   AR   Ar   74   1.995   1.082   4.535
    1   AR   Ar   75   3.391   0.939   5.052
    1   AR   Ar   76   2.081   1.231   2.421
    1   AR   Ar   77   2.270   6.702   5.345
    1   AR   Ar   78   1.406   0.611   6.318
    1   AR   Ar   79   3.525   6.244   6.895
    1   AR   Ar   80   2.755   5.794   5.619
    1   AR   Ar   81   1.914   1.585  -0.149
    1   AR   Ar   82   0.250   3.749  -1.023
    1   AR   Ar   83   2.297   2.297   0.852
    1   AR   Ar   84   0.600   3.606  -1.981
    1   AR   Ar   85   0.181   2.541   0.219
    1   AR   Ar   86   1.918   3.356   1.848
    1   AR   Ar   87   2.163   2.228   2.023
    1   AR   Ar   88   4.311   4.018   1.671
    1   AR   Ar   89   1.036   3.232   2.270
    1   AR   Ar   90   2.982   2.018   4.280
    1   AR   Ar   91   1.954   2.278   4.152
    1   AR   Ar   92   1.448   2.134   2.727
    1   AR   Ar   93   2.184   1.814   5.184
    1   AR   Ar   94   1.086   1.625   8.202
    1   AR   Ar   95   3.431   6.700   5.984
    1   AR   Ar   96   1.989   0.631   5.436
    1   AR   Ar   97   3.775   2.230  -1.158
    1   AR   Ar   98   2.854   4.120   1.243
    1   AR   Ar   99   6.890   2.558  -1.450
    1   AR   Ar  100   1.693   3.617  -0.372
    1   AR   Ar  101   1.867   3.600   0.830
    1   AR   Ar  102   2.522   3.426   3.856
    1   AR   Ar  103   1.024   4.867   0.251
    1   AR   Ar  104   2.642   2.155  -0.649
    1   AR   Ar  105   1.600   3.302   3.148
    1   AR   Ar  106   2.371   2.888   4.841
    1   AR   Ar  107   2.080   3.937   4.878
    1   AR   Ar  108   3.655   2.922   4.258
    1   AR   Ar  109   1.678   4.072   3.807
    1   AR   Ar  110   1.351   4.600   6.063
    1   AR   Ar  111   4.284   4.911   6.877
    1   AR   Ar  112   0.475   5.015   7.341
    1   AR   Ar  113   2.188   4.692   0.396
    1   AR   Ar  114   2.594   5.698  -0.083
    1   AR   Ar  115   2.859   3.941  -0.638
    1   AR   Ar  116   4.919   6.412  -0.160
    1   AR   Ar  117   0.576   5.511   3.820
    1   AR   Ar  118   0.746   6.791   3.014
    1   AR   Ar  119   2.805   4.217   2.989
    1   AR   Ar  120   1.139   5.773   2.683
    1   AR   Ar  121   6.956   4.502   4.361
    1   AR   Ar  122   2.485   6.195   4.472
    1   AR   Ar  123   2.530   5.019   4.877
    1   AR   Ar  124   2.261   5.849   2.939
    1   AR   Ar  125   0.710   4.572   5.256
    1   AR   Ar  126   0.450   0.551   5.501
    1   AR   Ar  127   2.775   5.553   7.499
    1   AR   Ar  128   2.226   5.373   6.645
    1   AR   Ar  129   1.607   0.106   2.325
    1   AR   Ar  130   3.289   0.965  -3.262
    1   AR   Ar  131   4.554   7.107   0.744
    1   AR   Ar  132   0.759   2.197  -1.303
    1   AR   Ar  133   3.693   6.945   2.971
    1   AR   Ar  134   3.851   1.367   2.792
    1   AR   Ar  135   4.832   0.876   2.744
    1   AR   Ar  136   4.321   0.307   1.868
    1   AR   Ar  137   2.778   6.548   3.457
    1   AR   Ar  138   4.740   1.171   5.102
    1   AR   Ar  139   6.019   1.434   5.011
    1   AR   Ar  140   4.176   0.920   3.768
    1   AR   Ar  141   3.903   6.831   4.243
    1   AR   Ar  142   4.200   0.061   5.362
    1   AR   Ar  143   5.211   6.914   6.017
    1   AR   Ar  144   4.736   0.568   6.752
    1   AR   Ar  145   3.638   3.815   0.371
    1   AR   Ar  146   4.178   2.691   1.783
    1   AR   Ar  147   5.991   2.037  -0.789
    1   AR   Ar  148   5.128   4.375  -2.489
    1   AR   Ar  149   3.483   1.750   1.084
    1   AR   Ar  150   2.502   2.149   3.304
    1   AR   Ar  151   3.559   2.466   3.358
    1   AR   Ar  152   2.667   3.216   0.196
    1   AR   Ar  153   3.128   0.695   4.017
    1   AR   Ar  154   4.133   1.871   4.484
    1   AR   Ar  155   5.614   0.803   5.666
    1   AR   Ar  156   3.768   3.791   3.685
    1   AR   Ar  157   3.210   2.934   5.766
    1   AR   Ar  158   1.220   2.741   7.028
    1   AR   Ar  159   3.566   1.447   5.970
    1   AR   Ar  160   3.487   2.464   7.439
    1   AR   Ar  161   5.504   1.983   0.753
    1   AR   Ar  162   4.449   5.298  -0.487
    1   AR   Ar  163   5.591   3.055   0.208
    1   AR   Ar  164   4.012   4.950   1.162
    1   AR   Ar  165   3.078   3.137   1.642
    1   AR   Ar  166   2.439   5.104   3.760
    1   AR   Ar  167   4.413   2.338   2.798
    1   AR   Ar  168   4.449   3.170  -0.760
    1   AR   Ar  169   2.739   3.044   2.568
    1   AR   Ar  170   3.398   4.012   4.951
    1   AR   Ar  171   4.408   3.816   4.492
    1   AR   Ar  172   4.495   5.428   4.365
    1   AR   Ar  173   1.788   4.082   6.865
    1   AR   Ar  174   3.751   5.340   5.876
    1   AR   Ar  175   4.217   3.836   6.331
    1   AR   Ar  176   3.604   4.949   4.918
    1   AR   Ar  177   5.992   6.002  -0.353
    1   AR   Ar  178   3.056   6.670   1.632
    1   AR   Ar  179   4.038   6.132   0.584
    1   AR   Ar  180   3.862   3.361  -2.703
    1   AR   Ar  181   2.171   5.365   1.418
    1   AR   Ar  182   2.598   6.825   2.491
    1   AR   Ar  183   3.560   5.097   2.342
    1   AR   Ar  184   4.209   6.350   1.717
    1   AR   Ar  185   1.599   5.378   4.338
    1   AR   Ar  186   3.363   5.755   3.757
    1   AR   Ar  187   4.299   5.817   3.163
    1   AR   Ar  188   3.426   6.158   2.530
    1   AR   Ar  189   2.419   4.526   5.846
    1   AR   Ar  190   4.371   6.379   6.304
    1   AR   Ar  191   4.861   5.498   5.532
    1   AR   Ar  192   3.886   6.117   5.179
    1   AR   Ar  193   7.068   6.264  -0.002
    1   AR   Ar  194   5.620   4.497  -0.950
    1   AR   Ar  195   6.241   0.398  -0.675
    1   AR   Ar  196   4.780   1.265  -0.990
    1   AR   Ar  197   5.271   0.822   0.489
    1   AR   Ar  198   6.132   1.417   1.413
    1   AR   Ar  199   5.046   0.865   1.530
    1   AR   Ar  200   6.411   1.550   0.326
    1   AR   Ar  201   4.784   6.867   3.600
    1   AR   Ar  202   5.054   2.404   3.815
    1   AR   Ar  203   6.733   6.535   4.928
    1   AR   Ar  204   5.263   0.724   4.014
    1   AR   Ar  205   5.988   0.296   3.345
    1   AR   Ar  206   5.195   0.231   4.943
    1   AR   Ar  207   6.837   0.463   6.244
    1   AR   Ar  208   7.031   0.395   3.937
    1   AR   Ar  209   4.731   2.103  -1.605
    1   AR   Ar  210   3.767   0.756   1.120
    1   AR   Ar  211   6.598   3.159   0.422
    1   AR   Ar  212   6.593   4.008  -1.658
    1   AR   Ar  213   3.192   2.012   2.242
    1   AR   Ar  214   3.646   3.368   2.707
    1   AR   Ar  215   6.071   2.278   2.132
    1   AR   Ar  216   6.679   3.353   1.611
    1   AR   Ar  217   4.476   3.191   3.351
    1   AR   Ar  218   4.670   2.764   4.835
    1   AR   Ar  219   5.099   1.600   3.316
    1   AR   Ar  220   5.207   3.013   2.425
    1   AR   Ar  221   6.357   0.351   4.994
    1   AR   Ar  222   4.671   1.613   6.226
    1   AR   Ar  223   0.063   0.797   7.173
    1   AR   Ar  224   5.209   2.139   5.501
    1   AR   Ar  225   5.299   4.890   0.009
    1   AR   Ar  226   5.084   4.476   2.252
    1   AR   Ar  227   6.481   5.041   0.051
    1   AR   Ar  228   5.122   5.918   1.068
    1   AR   Ar  229   5.753   4.106   0.598
    1   AR   Ar  230   4.542   4.819   3.338
    1   AR   Ar  231   6.885   2.248   3.529
    1   AR   Ar  232   4.481   3.303   0.615
    1   AR   Ar  233   6.365   2.371   4.442
    1   AR   Ar  234   7.061   3.292   4.495
    1   AR   Ar  235   0.345   2.383   4.365
    1   AR   Ar  236   5.250   4.472   4.289
    1   AR   Ar  237   5.799   3.329   4.114
    1   AR   Ar  238   4.815   4.300   5.522
    1   AR   Ar  239   6.107   3.862   9.264
    1   AR   Ar  240   6.874   3.842   5.632
    1   AR   Ar  241   0.162   0.321  -0.543
    1   AR   Ar  242   5.093   4.734   1.285
    1   AR   Ar  243   5.982   3.915   2.240
    1   AR   Ar  244   0.471   5.023  -1.346
    1   AR   Ar  245   5.563   0.032   2.105
    1   AR   Ar  246   6.072   6.400   1.537
    1   AR   Ar  247   5.216   3.546   1.572
    1   AR   Ar  248   5.589   6.707   0.539
    1   AR   Ar  249   5.029   5.409   2.606
    1   AR   Ar  250   4.803   6.373   4.573
    1   AR   Ar  251   5.545   5.575   4.613
    1   AR   Ar  252   5.332   5.980   3.609
    1   AR   Ar  253   5.899   4.806   5.646
    1   AR   Ar  254   5.420   5.330   6.556
    1   AR   Ar  255   5.113   4.189   6.802
    1   AR   Ar  256   5.758   6.703   4.414
    7.12000  7.12000 12.00000
Argon-slab step 1935
  256
    1   AR   Ar    1   7.095   1.657  -0.832
    1   AR   Ar    2   6.090   0.349   1.203
    1   AR   Ar    3   0.113   6.973   0.962
    1   AR   Ar    4   1.345   7.035   0.561
    1   AR   Ar    5   6.660   5.700   0.787
    1   AR   Ar    6   0.032   0.475   2.835
    1   AR   Ar    7   0.166   5.219   2.856
    1   AR   Ar    8   6.854   6.997   2.059
    1   AR   Ar    9   1.085   0.614   4.214
    1   AR   Ar   10   1.107   1.670   3.949
    1   AR   Ar   11   3.187   6.968   4.983
    1   AR   Ar   12   1.143   0.620   3.104
    1   AR   Ar   13   0.114   1.463   4.843
    1   AR   Ar   14   0.681   1.481   6.414
    1   AR   Ar   15   7.040   0.263   8.920
    1   AR   Ar   16   1.080   1.556   5.272
    1   AR   Ar   17   0.645   1.402   0.054
    1   AR   Ar   18   6.185   3.382  -0.910
    1   AR   Ar   19   1.045   2.007   1.649
    1   AR   Ar   20   6.324   3.376  -2.679
    1   AR   Ar   21   6.092   1.387   2.713
    1   AR   Ar   22   0.149   1.639   2.405
    1   AR   Ar   23   0.002   1.051   1.085
    1   AR   Ar   24   6.930   2.253   1.237
    1   AR   Ar   25   0.430   1.395   3.321
    1   AR   Ar   26   6.323   1.261   3.946
    1   AR   Ar   27   2.087   1.232   3.522
    1   AR   Ar   28   1.379   2.479   4.882
    1   AR   Ar   29   5.640   1.699   6.713
    1   AR   Ar   30   0.810   2.503   5.957
    1   AR   Ar   31   0.779   7.002   6.659
    1   AR   Ar   32   2.015   3.143   5.899
    1   AR   Ar   33   1.841   4.546  -0.942
    1   AR   Ar   34   0.272   5.873   1.675
    1   AR   Ar   35   0.194   4.264   1.321
    1   AR   Ar   36   0.379   6.846  -2.155
    1   AR   Ar   37   7.043   2.706   2.349
    1   AR   Ar   38   7.025   4.025   2.503
    1   AR   Ar   39   1.250   4.187   2.555
    1   AR   Ar   40   1.127   3.992   1.556
    1   AR   Ar   41   0.673   2.727   3.168
    1   AR   Ar   42   6.697   5.375   5.013
    1   AR   Ar   43   6.905   2.670   5.435
    1   AR   Ar   44   0.456   4.190   3.527
    1   AR   Ar   45   1.138   3.445   5.168
    1   AR   Ar   46   0.770   5.838   6.386
    1   AR   Ar   47   6.063   3.660   6.545
    1   AR   Ar   48   6.349   6.690   6.497
    1   AR   Ar   49   6.530   6.600  -1.923
    1   AR   Ar   50   5.963   5.363   1.814
    1   AR   Ar   51   1.099   5.027   1.440
    1   AR   Ar   52   6.562   4.918  -1.170
    1   AR   Ar   53   5.881   6.223   2.670
    1   AR   Ar   54   6.852   6.600   3.373
    1   AR   Ar   55   6.173   4.996   2.818
    1   AR   Ar   56   0.761   6.967   1.749
    1   AR   Ar   57   6.563   3.392   3.394
    1   AR   Ar   58   6.649   5.781   3.983
    1   AR   Ar   59   1.459   5.497   5.622
    1   AR   Ar   60   0.432   6.609   4.259
    1   AR   Ar   61   5.766   6.126   5.877
    1   AR   Ar   62   0.703   5.768   4.943
    1   AR   Ar   63   1.528   6.415   6.317
    1   AR   Ar   64   1.027   6.717   5.189
    1   AR   Ar   65   3.197   6.904   0.564
    1   AR   Ar   66   1.259   1.097   0.747
    1   AR   Ar   67   3.502   6.168  -0.772
    1   AR   Ar   68   2.944   1.744  -1.543
    1   AR   Ar   69   2.197   0.531   0.749
    1   AR   Ar   70   1.042   1.041   2.014
    1   AR   Ar   71   3.011   0.653   2.893
    1   AR   Ar   72   2.947   0.606   1.858
    1   AR   Ar   73   1.830   7.079   3.524
    1   AR   Ar   74   2.027   1.051   4.533
    1   AR   Ar   75   3.383   0.943   5.089
    1   AR   Ar   76   2.075   1.210   2.441
    1   AR   Ar   77   2.237   6.672   5.364
    1   AR   Ar   78   1.440   0.609   6.321
    1   AR   Ar   79   3.513   6.230   6.904
    1   AR   Ar   80   2.747   5.807   5.617
    1   AR   Ar   81   1.956   1.600  -0.141
    1   AR   Ar   82   0.250   3.798  -1.002
    1   AR   Ar   83   2.304   2.309   0.878
    1   AR   Ar   84   0.618   3.571  -1.996
    1   AR   Ar   85   0.177   2.516   0.205
    1   AR   Ar   86   1.936   3.334   1.839
    1   AR   Ar   87   2.159   2.218   2.027
    1   AR   Ar   88   4.365   3.996   1.652
    1   AR   Ar   89   1.028   3.232   2.262
    1   AR   Ar   90   2.968   2.014   4.270
    1   AR   Ar   91   1.969   2.289   4.135
    1   AR   Ar   92   1.435   2.110   2.747
    1   AR   Ar   93   2.212   1.838   5.220
    1   AR   Ar   94   1.043   1.648   8.209
    1   AR   Ar   95   3.429   6.703   6.006
    1   AR   Ar   96   1.996   0.649   5.465
    1   AR   Ar   97   3.778   2.257  -1.130
    1   AR   Ar   98   2.864   4.129   1.255
    1   AR   Ar   99   6.894   2.552  -1.451
    1   AR   Ar  100   1.715   3.604  -0.357
    1   AR   Ar  101   1.907   3.630   0.845
    1   AR   Ar  102   2.513   3.435   3.839
    1   AR   Ar  103   1.033   4.868   0.286
    1   AR   Ar  104   2.609   2.169  -0.639
    1   AR   Ar  105   1.619   3.309   3.126
    1   AR   Ar  106   2.374   2.888   4.847
    1   AR   Ar  107   2.071   3.939   4.890
    1   AR   Ar  108   3.644   2.910   4.253
    1   AR   Ar  109   1.709   4.074   3.859
    1   AR   Ar  110   1.364   4.612   6.071
    1   AR   Ar  111   4.294   4.897   6.862
    1   AR   Ar  112   0.481   5.010   7.333
    1   AR   Ar  113   2.168   4.676   0.388
    1   AR   Ar  114   2.597   5.682  -0.121
    1   AR   Ar  115   2.860   3.933  -0.644
    1   AR   Ar  116   4.898   6.410  -0.159
    1   AR   Ar  117   0.597   5.503   3.819
    1   AR   Ar  118   0.743   6.819   3.031
    1   AR   Ar  119   2.780   4.210   2.972
    1   AR   Ar  120   1.143   5.772   2.699
    1   AR   Ar  121   6.956   4.493   4.353
    1   AR   Ar  122   2.476   6.181   4.461
    1   AR   Ar  123   2.547   5.018   4.874
    1   AR   Ar  124   2.235   5.811   2.928
    1   AR   Ar  125   0.690   4.545   5.219
    1   AR   Ar  126   0.445   0.526   5.497
    1   AR   Ar  127   2.792   5.532   7.526
    1   AR   Ar  128   2.238   5.348   6.626
    1   AR   Ar  129   1.635   0.105   2.334
    1   AR   Ar  130   3.242   0.957  -3.277
    1   AR   Ar  131   4.525   7.089   0.731
    1   AR   Ar  132   0.754   2.208  -1.331
    1   AR   Ar  133   3.658   6.927   3.001
    1   AR   Ar  134   3.864   1.370   2.779
    1   AR   Ar  135   4.826   0.869   2.751
    1   AR   Ar  136   4.316   0.299   1.838
    1   AR   Ar  137   2.771   6.516   3.460
    1   AR   Ar  138   4.749   1.206   5.073
    1   AR   Ar  139   6.011   1.440   5.013
    1   AR   Ar  140   4.160   0.926   3.813
    1   AR   Ar  141   3.893   6.794   4.259
    1   AR   Ar  142   4.224   0.077   5.381
    1   AR   Ar  143   5.223   6.944   5.984
    1   AR   Ar  144   4.737   0.569   6.745
    1   AR   Ar  145   3.667   3.826   0.361
    1   AR   Ar  146   4.159   2.677   1.762
    1   AR   Ar  147   5.979   2.053  -0.785
    1   AR   Ar  148   5.124   4.370  -2.479
    1   AR   Ar  149   3.458   1.725   1.124
    1   AR   Ar  150   2.513   2.166   3.275
    1   AR   Ar  151   3.582   2.455   3.366
    1   AR   Ar  152   2.668   3.217   0.219
    1   AR   Ar  153   3.144   0.696   4.018
    1   AR   Ar  154   4.125   1.903   4.464
    1   AR   Ar  155   5.599   0.802   5.659
    1   AR   Ar  156   3.729   3.808   3.701
    1   AR   Ar  157   3.219   2.946   5.745
    1   AR   Ar  158   1.224   2.741   7.015
    1   AR   Ar  159   3.565   1.489   5.970
    1   AR   Ar  160   3.481   2.475   7.450
    1   AR   Ar  161   5.522   1.992   0.756
    1   AR   Ar  162   4.468   5.271  -0.487
    1   AR   Ar  163   5.584   3.072   0.208
    1   AR   Ar  164   3.998   4.956   1.148
    1   AR   Ar  165   3.055   3.136   1.611
    1   AR   Ar  166   2.462   5.104   3.783
    1   AR   Ar  167   4.401   2.313   2.825
    1   AR   Ar  168   4.434   3.205  -0.801
    1   AR   Ar  169   2.757   3.046   2.587
    1   AR   Ar  170   3.401   3.993   4.948
    1   AR   Ar  171   4.416   3.815   4.522
    1   AR   Ar  172   4.503   5.422   4.382
    1   AR   Ar  173   1.803   4.080   6.868
    1   AR   Ar  174   3.775   5.342   5.880
    1   AR   Ar  175   4.224   3.816   6.341
    1   AR   Ar  176   3.594   4.971   4.927
    1   AR   Ar  177   6.003   5.982  -0.374
    1   AR   Ar  178   3.041   6.660   1.634
    1   AR   Ar  179   4.045   6.147   0.581
    1   AR   Ar  180   3.873   3.326  -2.723
    1   AR   Ar  181   2.150   5.380   1.440
    1   AR   Ar  182   2.576   6.791   2.488
    1   AR   Ar  183   3.558   5.105   2.327
    1   AR   Ar  184   4.202   6.339   1.714
    1   AR   Ar  185   1.596   5.395   4.340
    1   AR   Ar  186   3.370   5.734   3.734
    1   AR   Ar  187   4.308   5.816   3.168
    1   AR   Ar  188   3.427   6.166   2.546
    1   AR   Ar  189   2.423   4.483   5.861
    1   AR   Ar  190   4.348   6.379   6.327
    1   AR   Ar  191   4.858   5.479   5.521
    1   AR   Ar  192   3.864   6.106   5.180
    1   AR   Ar  193   7.069   6.287  -0.015
    1   AR   Ar  194   5.614   4.435  -1.008
    1   AR   Ar  195   6.261   0.403  -0.694
    1   AR   Ar  196   4.752   1.294  -0.984
    1   AR   Ar  197   5.285   0.812   0.502
    1   AR   Ar  198   6.153   1.422   1.421
    1   AR   Ar  199   5.043   0.897   1.508
    1   AR   Ar  200   6.430   1.574   0.353
    1   AR   Ar  201   4.780   6.836   3.615
    1   AR   Ar  202   5.063   2.429   3.841
    1   AR   Ar  203   6.746   6.515   4.953
    1   AR   Ar  204   5.258   0.736   4.006
    1   AR   Ar  205   5.992   0.305   3.360
    1   AR   Ar  206   5.184   0.229   4.933
    1   AR   Ar  207   6.829   0.426   6.232
    1   AR   Ar  208   7.000   0.387   3.918
    1   AR   Ar  209   4.720   2.095  -1.607
    1   AR   Ar  210   3.773   0.751   1.110
    1   AR   Ar  211   6.608   3.153   0.419
    1   AR   Ar  212   6.583   3.994  -1.644
    1   AR   Ar  213   3.208   1.978   2.252
    1   AR   Ar  214   3.646   3.378   2.744
    1   AR   Ar  215   6.108   2.303   2.126
    1   AR   Ar  216   6.687   3.375   1.595
    1   AR   Ar  217   4.480   3.224   3.353
    1   AR   Ar  218   4.659   2.752   4.813
    1   AR   Ar  219   5.106   1.599   3.306
    1   AR   Ar  220   5.214   3.001   2.445
    1   AR   Ar  221   6.338   0.346   4.969
    1   AR   Ar  222   4.688   1.603   6.229
    1   AR   Ar  223   0.054   0.775   7.159
    1   AR   Ar  224   5.192   2.145   5.485
    1   AR   Ar  225   5.315   4.905   0.025
    1   AR   Ar  226   5.093   4.461   2.258
    1   AR   Ar  227   6.475   5.031   0.086
    1   AR   Ar  228   5.111   5.926   1.102
    1   AR   Ar  229   5.771   4.116   0.542
    1   AR   Ar  230   4.544   4.792   3.361
    1   AR   Ar  231   6.872   2.245   3.539
    1   AR   Ar  232   4.479   3.301   0.611
    1   AR   Ar  233   6.367   2.410   4.450
    1   AR   Ar  234   7.060   3.284   4.523
    1   AR   Ar  235   0.322   2.360   4.361
    1   AR   Ar  236   5.253   4.466   4.292
    1   AR   Ar  237   5.817   3.320   4.099
    1   AR   Ar  238   4.807   4.298   5.511
    1   AR   Ar  239   6.135   3.862   9.261
    1   AR   Ar  240   6.869   3.811   5.659
    1   AR   Ar  241   0.159   0.315  -0.511
    1   AR   Ar  242   5.069   4.740   1.278
    1   AR   Ar  243   5.993   3.923   2.266
    1   AR   Ar  244   0.464   5.020  -1.367
    1   AR   Ar  245   5.588   0.057   2.111
    1   AR   Ar  246   6.079   6.423   1.559
    1   AR   Ar  247   5.215   3.537   1.549
    1   AR   Ar  248   5.582   6.736   0.543
    1   AR   Ar  249   5.009   5.404   2.605
    1   AR   Ar  250   4.809   6.393   4.600
    1   AR   Ar  251   5.542   5.542   4.633
    1   AR   Ar  252   5.321   5.942   3.606
    1   AR   Ar  253   5.863   4.800   5.656
    1   AR   Ar  254   5.412   5.294   6.577
    1   AR   Ar  255   5.125   4.192   6.799
    1   AR   Ar  256   5.767   6.756   4.395
    7.12000  7.12000 12.00000
Argon-slab step 1940
  256
    1   AR   Ar    1   7.086   1.668  -0.839
    1   AR   Ar    2   6.111   0.348   1.220
    1   AR   Ar    3   0.121   6.977   0.976
    1   AR   Ar    4   1.336   7.027   0.539
    1   AR   Ar    5   6.649   5.690   0.797
    1   AR   Ar    6   0.014   0.486   2.845
    1   AR   Ar    7   0.140   5.215   2.866
    1   AR   Ar    8   6.850   7.016   2.074
    1   AR   Ar    9   1.081   0.608   4.212
    1   AR   Ar   10   1.128   1.678   3.975
    1   AR   Ar   11   3.172   6.951   4.976
    1   AR   Ar   12   1.116   0.603   3.142
    1   AR   Ar   13   0.094   1.464   4.829
    1   AR   Ar   14   0.682   1.486   6.429
    1   AR   Ar   15   7.055   0.271   8.930
    1   AR   Ar   16   1.133   1.560   5.274
    1   AR   Ar   17   0.613   1.410   0.031
    1   AR   Ar   18   6.170   3.379  -0.914
    1   AR   Ar   19   1.080   1.997   1.621
    1   AR   Ar   20   6.304   3.415  -2.695
    1   AR   Ar   21   6.069   1.395   2.715
    1   AR   Ar   22   0.136   1.621   2.415
    1   AR   Ar   23   0.047   1.058   1.050
    1   AR   Ar   24   6.923   2.221   1.241
    1   AR   Ar   25   0.410   1.384   3.323
    1   AR   Ar   26   6.351   1.268   3.969
    1   AR   Ar   27   2.111   1.239   3.536
    1   AR   Ar   28   1.361   2.492   4.887
    1   AR   Ar   29   5.643   1.711   6.732
    1   AR   Ar   30   0.815   2.491   5.914
    1   AR   Ar   31   0.761   6.997   6.674
    1   AR   Ar   32   2.004   3.171   5.893
    1   AR   Ar   33   1.872   4.561  -0.930
    1   AR   Ar   34   0.274   5.890   1.677
    1   AR   Ar   35   0.182   4.302   1.326
    1   AR   Ar   36   0.377   6.867  -2.203
    1   AR   Ar   37   7.046   2.707   2.341
    1   AR   Ar   38   7.050   4.010   2.489
    1   AR   Ar   39   1.229   4.187   2.538
    1   AR   Ar   40   1.109   4.014   1.545
    1   AR   Ar   41   0.646   2.772   3.163
    1   AR   Ar   42   6.713   5.396   4.998
    1   AR   Ar   43   6.914   2.689   5.464
    1   AR   Ar   44   0.455   4.212   3.528
    1   AR   Ar   45   1.133   3.450   5.166
    1   AR   Ar   46   0.789   5.835   6.362
    1   AR   Ar   47   6.063   3.674   6.548
    1   AR   Ar   48   6.373   6.677   6.475
    1   AR   Ar   49   6.516   6.634  -1.894
    1   AR   Ar   50   5.986   5.343   1.823
    1   AR   Ar   51   1.091   5.032   1.447
    1   AR   Ar   52   6.563   4.965  -1.199
    1   AR   Ar   53   5.859   6.208   2.669
    1   AR   Ar   54   6.835   6.579   3.371
    1   AR   Ar   55   6.159   5.030   2.789
    1   AR   Ar   56   0.760   6.970   1.756
    1   AR   Ar   57   6.582   3.369   3.360
    1   AR   Ar   58   6.634   5.799   3.978
    1   AR   Ar   59   1.464   5.496   5.586
    1   AR   Ar   60   0.452   6.634   4.222
    1   AR   Ar   61   5.769   6.124   5.853
    1   AR   Ar   62   0.728   5.744   4.936
    1   AR   Ar   63   1.554   6.428   6.285
    1   AR   Ar   64   1.009   6.719   5.204
    1   AR   Ar   65   3.208   6.881   0.559
    1   AR   Ar   66   1.238   1.093   0.772
    1   AR   Ar   67   3.493   6.168  -0.727
    1   AR   Ar   68   2.980   1.713  -1.552
    1   AR   Ar   69   2.205   0.571   0.763
    1   AR   Ar   70   1.075   1.045   2.012
    1   AR   Ar   71   3.028   0.651   2.914
    1   AR   Ar   72   2.969   0.600   1.850
    1   AR   Ar   73   1.865   7.066   3.530
    1   AR   Ar   74   2.060   1.021   4.528
    1   AR   Ar   75   3.334   0.936   5.104
    1   AR   Ar   76   2.070   1.187   2.462
    1   AR   Ar   77   2.198   6.646   5.386
    1   AR   Ar   78   1.472   0.610   6.326
    1   AR   Ar   79   3.497   6.211   6.920
    1   AR   Ar   80   2.743   5.816   5.616
    1   AR   Ar   81   1.989   1.604  -0.133
    1   AR   Ar   82   0.253   3.845  -0.977
    1   AR   Ar   83   2.312   2.321   0.904
    1   AR   Ar   84   0.609   3.568  -1.983
    1   AR   Ar   85   0.186   2.476   0.185
    1   AR   Ar   86   1.948   3.345   1.832
    1   AR   Ar   87   2.157   2.210   2.026
    1   AR   Ar   88   4.402   3.979   1.633
    1   AR   Ar   89   1.008   3.220   2.256
    1   AR   Ar   90   2.959   2.006   4.294
    1   AR   Ar   91   1.945   2.310   4.136
    1   AR   Ar   92   1.420   2.084   2.771
    1   AR   Ar   93   2.240   1.864   5.256
    1   AR   Ar   94   1.035   1.649   8.211
    1   AR   Ar   95   3.420   6.710   6.022
    1   AR   Ar   96   2.005   0.665   5.494
    1   AR   Ar   97   3.782   2.286  -1.100
    1   AR   Ar   98   2.874   4.139   1.267
    1   AR   Ar   99   6.894   2.549  -1.452
    1   AR   Ar  100   1.739   3.590  -0.340
    1   AR   Ar  101   1.946   3.662   0.857
    1   AR   Ar  102   2.510   3.439   3.821
    1   AR   Ar  103   1.043   4.868   0.322
    1   AR   Ar  104   2.609   2.164  -0.628
    1   AR   Ar  105   1.641   3.313   3.103
    1   AR   Ar  106   2.349   2.892   4.839
    1   AR   Ar  107   2.064   3.943   4.902
    1   AR   Ar  108   3.634   2.901   4.258
    1   AR   Ar  109   1.735   4.083   3.911
    1   AR   Ar  110   1.369   4.623   6.082
    1   AR   Ar  111   4.304   4.884   6.844
    1   AR   Ar  112   0.487   5.005   7.324
    1   AR   Ar  113   2.149   4.659   0.380
    1   AR   Ar  114   2.601   5.665  -0.159
    1   AR   Ar  115   2.869   3.919  -0.640
    1   AR   Ar  116   4.874   6.405  -0.159
    1   AR   Ar  117   0.618   5.495   3.819
    1   AR   Ar  118   0.738   6.838   3.047
    1   AR   Ar  119   2.755   4.202   2.956
    1   AR   Ar  120   1.145   5.772   2.716
    1   AR   Ar  121   6.955   4.484   4.346
    1   AR   Ar  122   2.480   6.126   4.470
    1   AR   Ar  123   2.560   5.016   4.871
    1   AR   Ar  124   2.224   5.783   2.945
    1   AR   Ar  125   0.669   4.519   5.180
    1   AR   Ar  126   0.444   0.501   5.490
    1   AR   Ar  127   2.810   5.511   7.553
    1   AR   Ar  128   2.248   5.322   6.603
    1   AR   Ar  129   1.663   0.106   2.342
    1   AR   Ar  130   3.196   0.949  -3.292
    1   AR   Ar  131   4.498   7.073   0.721
    1   AR   Ar  132   0.754   2.218  -1.360
    1   AR   Ar  133   3.637   6.940   3.050
    1   AR   Ar  134   3.878   1.370   2.770
    1   AR   Ar  135   4.815   0.846   2.746
    1   AR   Ar  136   4.307   0.283   1.818
    1   AR   Ar  137   2.766   6.490   3.469
    1   AR   Ar  138   4.757   1.241   5.044
    1   AR   Ar  139   6.008   1.452   5.009
    1   AR   Ar  140   4.147   0.933   3.857
    1   AR   Ar  141   3.883   6.757   4.269
    1   AR   Ar  142   4.248   0.092   5.400
    1   AR   Ar  143   5.228   6.985   5.950
    1   AR   Ar  144   4.738   0.570   6.736
    1   AR   Ar  145   3.687   3.842   0.349
    1   AR   Ar  146   4.140   2.663   1.742
    1   AR   Ar  147   5.968   2.071  -0.780
    1   AR   Ar  148   5.120   4.364  -2.469
    1   AR   Ar  149   3.429   1.706   1.166
    1   AR   Ar  150   2.527   2.185   3.239
    1   AR   Ar  151   3.594   2.442   3.371
    1   AR   Ar  152   2.671   3.217   0.241
    1   AR   Ar  153   3.157   0.696   4.019
    1   AR   Ar  154   4.116   1.933   4.442
    1   AR   Ar  155   5.583   0.800   5.666
    1   AR   Ar  156   3.682   3.833   3.720
    1   AR   Ar  157   3.228   2.958   5.722
    1   AR   Ar  158   1.228   2.741   7.001
    1   AR   Ar  159   3.564   1.533   5.971
    1   AR   Ar  160   3.475   2.486   7.461
    1   AR   Ar  161   5.538   2.002   0.760
    1   AR   Ar  162   4.483   5.246  -0.487
    1   AR   Ar  163   5.573   3.087   0.208
    1   AR   Ar  164   3.983   4.961   1.134
    1   AR   Ar  165   3.035   3.131   1.576
    1   AR   Ar  166   2.487   5.103   3.805
    1   AR   Ar  167   4.397   2.284   2.846
    1   AR   Ar  168   4.420   3.239  -0.842
    1   AR   Ar  169   2.756   3.040   2.610
    1   AR   Ar  170   3.401   3.963   4.944
    1   AR   Ar  171   4.424   3.812   4.553
    1   AR   Ar  172   4.509   5.412   4.396
    1   AR   Ar  173   1.820   4.077   6.872
    1   AR   Ar  174   3.800   5.343   5.892
    1   AR   Ar  175   4.228   3.796   6.350
    1   AR   Ar  176   3.589   5.004   4.932
    1   AR   Ar  177   6.006   5.963  -0.384
    1   AR   Ar  178   3.033   6.648   1.625
    1   AR   Ar  179   4.051   6.160   0.578
    1   AR   Ar  180   3.883   3.291  -2.743
    1   AR   Ar  181   2.143   5.426   1.439
    1   AR   Ar  182   2.548   6.761   2.492
    1   AR   Ar  183   3.558   5.112   2.312
    1   AR   Ar  184   4.186   6.338   1.690
    1   AR   Ar  185   1.593   5.413   4.345
    1   AR   Ar  186   3.381   5.709   3.712
    1   AR   Ar  187   4.272   5.820   3.149
    1   AR   Ar  188   3.421   6.142   2.545
    1   AR   Ar  189   2.427   4.441   5.876
    1   AR   Ar  190   4.335   6.377   6.345
    1   AR   Ar  191   4.854   5.460   5.510
    1   AR   Ar  192   3.842   6.097   5.179
    1   AR   Ar  193   7.066   6.300  -0.007
    1   AR   Ar  194   5.608   4.372  -1.064
    1   AR   Ar  195   6.276   0.408  -0.713
    1   AR   Ar  196   4.724   1.319  -0.974
    1   AR   Ar  197   5.301   0.800   0.513
    1   AR   Ar  198   6.173   1.426   1.432
    1   AR   Ar  199   5.047   0.935   1.488
    1   AR   Ar  200   6.452   1.599   0.379
    1   AR   Ar  201   4.776   6.811   3.628
    1   AR   Ar  202   5.072   2.464   3.874
    1   AR   Ar  203   6.758   6.489   4.979
    1   AR   Ar  204   5.253   0.751   3.997
    1   AR   Ar  205   5.976   0.302   3.376
    1   AR   Ar  206   5.173   0.225   4.939
    1   AR   Ar  207   6.822   0.394   6.216
    1   AR   Ar  208   6.970   0.382   3.901
    1   AR   Ar  209   4.711   2.093  -1.614
    1   AR   Ar  210   3.777   0.742   1.095
    1   AR   Ar  211   6.608   3.159   0.421
    1   AR   Ar  212   6.584   3.969  -1.636
    1   AR   Ar  213   3.222   1.948   2.261
    1   AR   Ar  214   3.660   3.393   2.777
    1   AR   Ar  215   6.142   2.328   2.118
    1   AR   Ar  216   6.695   3.398   1.577
    1   AR   Ar  217   4.492   3.255   3.357
    1   AR   Ar  218   4.646   2.744   4.789
    1   AR   Ar  219   5.120   1.602   3.301
    1   AR   Ar  220   5.221   2.987   2.469
    1   AR   Ar  221   6.320   0.347   4.944
    1   AR   Ar  222   4.701   1.590   6.233
    1   AR   Ar  223   0.047   0.755   7.147
    1   AR   Ar  224   5.179   2.150   5.469
    1   AR   Ar  225   5.333   4.924   0.043
    1   AR   Ar  226   5.102   4.439   2.270
    1   AR   Ar  227   6.466   5.013   0.110
    1   AR   Ar  228   5.099   5.932   1.137
    1   AR   Ar  229   5.791   4.123   0.489
    1   AR   Ar  230   4.546   4.762   3.387
    1   AR   Ar  231   6.855   2.241   3.539
    1   AR   Ar  232   4.486   3.294   0.610
    1   AR   Ar  233   6.366   2.447   4.460
    1   AR   Ar  234   7.057   3.284   4.551
    1   AR   Ar  235   0.304   2.321   4.354
    1   AR   Ar  236   5.256   4.463   4.294
    1   AR   Ar  237   5.831   3.310   4.087
    1   AR   Ar  238   4.799   4.297   5.499
    1   AR   Ar  239   6.162   3.863   9.258
    1   AR   Ar  240   6.864   3.780   5.684
    1   AR   Ar  241   0.160   0.309  -0.477
    1   AR   Ar  242   5.048   4.748   1.264
    1   AR   Ar  243   6.005   3.929   2.292
    1   AR   Ar  244   0.460   5.016  -1.387
    1   AR   Ar  245   5.611   0.085   2.120
    1   AR   Ar  246   6.087   6.442   1.577
    1   AR   Ar  247   5.229   3.523   1.520
    1   AR   Ar  248   5.579   6.768   0.549
    1   AR   Ar  249   4.999   5.403   2.599
    1   AR   Ar  250   4.815   6.412   4.631
    1   AR   Ar  251   5.543   5.511   4.653
    1   AR   Ar  252   5.311   5.901   3.604
    1   AR   Ar  253   5.826   4.795   5.665
    1   AR   Ar  254   5.402   5.257   6.597
    1   AR   Ar  255   5.139   4.196   6.795
    1   AR   Ar  256   5.785   6.801   4.367
    7.12000  7.12000 12.00000
Argon-slab step 1945
  256
    1   AR   Ar    1   7.067   1.681  -0.847
    1   AR   Ar    2   6.135   0.349   1.234
    1   AR   Ar    3   0.121   6.981   0.985
    1   AR   Ar    4   1.325   7.020   0.519
    1   AR   Ar    5   6.639   5.689   0.819
    1   AR   Ar    6   7.104   0.476   2.863
    1   AR   Ar    7   0.114   5.210   2.876
    1   AR   Ar    8   6.842   7.032   2.084
    1   AR   Ar    9   1.075   0.601   4.213
    1   AR   Ar   10   1.153   1.686   4.006
    1   AR   Ar   11   3.154   6.935   4.971
    1   AR   Ar   12   1.106   0.601   3.176
    1   AR   Ar   13   0.070   1.457   4.819
    1   AR   Ar   14   0.683   1.490   6.443
    1   AR   Ar   15   7.070   0.283   8.950
    1   AR   Ar   16   1.186   1.558   5.276
    1   AR   Ar   17   0.576   1.420   0.004
    1   AR   Ar   18   6.153   3.372  -0.913
    1   AR   Ar   19   1.115   1.992   1.592
    1   AR   Ar   20   6.284   3.454  -2.709
    1   AR   Ar   21   6.046   1.401   2.718
    1   AR   Ar   22   0.120   1.606   2.412
    1   AR   Ar   23   0.094   1.064   1.016
    1   AR   Ar   24   6.917   2.190   1.246
    1   AR   Ar   25   0.391   1.360   3.338
    1   AR   Ar   26   6.378   1.276   3.990
    1   AR   Ar   27   2.119   1.225   3.568
    1   AR   Ar   28   1.364   2.475   4.908
    1   AR   Ar   29   5.648   1.721   6.750
    1   AR   Ar   30   0.821   2.479   5.870
    1   AR   Ar   31   0.737   6.992   6.689
    1   AR   Ar   32   1.992   3.199   5.886
    1   AR   Ar   33   1.902   4.576  -0.916
    1   AR   Ar   34   0.276   5.908   1.680
    1   AR   Ar   35   0.161   4.342   1.331
    1   AR   Ar   36   0.377   6.889  -2.251
    1   AR   Ar   37   7.057   2.711   2.335
    1   AR   Ar   38   7.072   4.000   2.503
    1   AR   Ar   39   1.209   4.194   2.529
    1   AR   Ar   40   1.099   4.027   1.529
    1   AR   Ar   41   0.618   2.817   3.162
    1   AR   Ar   42   6.728   5.415   4.982
    1   AR   Ar   43   6.923   2.706   5.492
    1   AR   Ar   44   0.456   4.234   3.525
    1   AR   Ar   45   1.125   3.459   5.165
    1   AR   Ar   46   0.794   5.822   6.340
    1   AR   Ar   47   6.055   3.681   6.551
    1   AR   Ar   48   6.394   6.658   6.459
    1   AR   Ar   49   6.498   6.666  -1.864
    1   AR   Ar   50   6.017   5.326   1.816
    1   AR   Ar   51   1.082   5.043   1.453
    1   AR   Ar   52   6.559   5.013  -1.225
    1   AR   Ar   53   5.838   6.193   2.667
    1   AR   Ar   54   6.817   6.562   3.363
    1   AR   Ar   55   6.144   5.063   2.765
    1   AR   Ar   56   0.758   6.994   1.777
    1   AR   Ar   57   6.607   3.346   3.323
    1   AR   Ar   58   6.617   5.813   3.977
    1   AR   Ar   59   1.478   5.500   5.548
    1   AR   Ar   60   0.473   6.658   4.183
    1   AR   Ar   61   5.772   6.112   5.824
    1   AR   Ar   62   0.745   5.718   4.923
    1   AR   Ar   63   1.596   6.448   6.249
    1   AR   Ar   64   0.993   6.723   5.220
    1   AR   Ar   65   3.219   6.859   0.555
    1   AR   Ar   66   1.219   1.087   0.803
    1   AR   Ar   67   3.485   6.169  -0.680
    1   AR   Ar   68   3.016   1.681  -1.562
    1   AR   Ar   69   2.215   0.610   0.778
    1   AR   Ar   70   1.106   1.044   2.012
    1   AR   Ar   71   3.041   0.653   2.936
    1   AR   Ar   72   2.991   0.595   1.841
    1   AR   Ar   73   1.900   7.054   3.536
    1   AR   Ar   74   2.093   0.993   4.524
    1   AR   Ar   75   3.275   0.927   5.113
    1   AR   Ar   76   2.067   1.169   2.479
    1   AR   Ar   77   2.153   6.626   5.408
    1   AR   Ar   78   1.498   0.611   6.338
    1   AR   Ar   79   3.492   6.194   6.926
    1   AR   Ar   80   2.743   5.821   5.617
    1   AR   Ar   81   2.000   1.576  -0.144
    1   AR   Ar   82   0.257   3.893  -0.948
    1   AR   Ar   83   2.319   2.334   0.930
    1   AR   Ar   84   0.599   3.565  -1.969
    1   AR   Ar   85   0.199   2.429   0.163
    1   AR   Ar   86   1.961   3.362   1.829
    1   AR   Ar   87   2.158   2.205   2.023
    1   AR   Ar   88   4.412   3.976   1.622
    1   AR   Ar   89   0.981   3.202   2.248
    1   AR   Ar   90   2.952   1.995   4.327
    1   AR   Ar   91   1.918   2.329   4.128
    1   AR   Ar   92   1.403   2.056   2.797
    1   AR   Ar   93   2.269   1.889   5.292
    1   AR   Ar   94   1.026   1.665   8.219
    1   AR   Ar   95   3.406   6.720   6.031
    1   AR   Ar   96   2.021   0.680   5.517
    1   AR   Ar   97   3.786   2.317  -1.068
    1   AR   Ar   98   2.884   4.152   1.277
    1   AR   Ar   99   6.889   2.551  -1.452
    1   AR   Ar  100   1.764   3.578  -0.322
    1   AR   Ar  101   1.983   3.697   0.865
    1   AR   Ar  102   2.514   3.437   3.803
    1   AR   Ar  103   1.052   4.867   0.359
    1   AR   Ar  104   2.619   2.170  -0.624
    1   AR   Ar  105   1.666   3.315   3.082
    1   AR   Ar  106   2.331   2.903   4.837
    1   AR   Ar  107   2.046   3.934   4.942
    1   AR   Ar  108   3.625   2.898   4.272
    1   AR   Ar  109   1.755   4.097   3.961
    1   AR   Ar  110   1.371   4.630   6.095
    1   AR   Ar  111   4.314   4.872   6.824
    1   AR   Ar  112   0.495   5.001   7.313
    1   AR   Ar  113   2.129   4.641   0.372
    1   AR   Ar  114   2.605   5.647  -0.196
    1   AR   Ar  115   2.878   3.906  -0.633
    1   AR   Ar  116   4.848   6.398  -0.160
    1   AR   Ar  117   0.635   5.498   3.813
    1   AR   Ar  118   0.730   6.840   3.062
    1   AR   Ar  119   2.731   4.192   2.942
    1   AR   Ar  120   1.146   5.772   2.732
    1   AR   Ar  121   6.954   4.476   4.342
    1   AR   Ar  122   2.485   6.069   4.478
    1   AR   Ar  123   2.567   5.014   4.870
    1   AR   Ar  124   2.222   5.761   2.982
    1   AR   Ar  125   0.648   4.495   5.140
    1   AR   Ar  126   0.446   0.479   5.480
    1   AR   Ar  127   2.828   5.490   7.580
    1   AR   Ar  128   2.257   5.296   6.576
    1   AR   Ar  129   1.685   0.110   2.349
    1   AR   Ar  130   3.149   0.942  -3.307
    1   AR   Ar  131   4.473   7.062   0.713
    1   AR   Ar  132   0.758   2.228  -1.387
    1   AR   Ar  133   3.624   6.965   3.109
    1   AR   Ar  134   3.894   1.364   2.764
    1   AR   Ar  135   4.803   0.811   2.735
    1   AR   Ar  136   4.299   0.261   1.806
    1   AR   Ar  137   2.762   6.470   3.483
    1   AR   Ar  138   4.764   1.274   5.014
    1   AR   Ar  139   6.006   1.469   4.999
    1   AR   Ar  140   4.140   0.940   3.899
    1   AR   Ar  141   3.873   6.720   4.273
    1   AR   Ar  142   4.266   0.106   5.420
    1   AR   Ar  143   5.229   7.026   5.920
    1   AR   Ar  144   4.740   0.570   6.725
    1   AR   Ar  145   3.683   3.828   0.359
    1   AR   Ar  146   4.119   2.651   1.724
    1   AR   Ar  147   5.945   2.092  -0.778
    1   AR   Ar  148   5.107   4.376  -2.470
    1   AR   Ar  149   3.399   1.694   1.209
    1   AR   Ar  150   2.542   2.205   3.200
    1   AR   Ar  151   3.594   2.426   3.376
    1   AR   Ar  152   2.676   3.216   0.263
    1   AR   Ar  153   3.163   0.695   4.022
    1   AR   Ar  154   4.103   1.957   4.416
    1   AR   Ar  155   5.569   0.802   5.681
    1   AR   Ar  156   3.631   3.864   3.742
    1   AR   Ar  157   3.236   2.972   5.697
    1   AR   Ar  158   1.233   2.741   6.985
    1   AR   Ar  159   3.565   1.578   5.972
    1   AR   Ar  160   3.469   2.497   7.472
    1   AR   Ar  161   5.553   2.014   0.763
    1   AR   Ar  162   4.497   5.224  -0.489
    1   AR   Ar  163   5.558   3.102   0.206
    1   AR   Ar  164   3.968   4.967   1.121
    1   AR   Ar  165   3.015   3.124   1.539
    1   AR   Ar  166   2.512   5.100   3.824
    1   AR   Ar  167   4.406   2.257   2.857
    1   AR   Ar  168   4.405   3.272  -0.882
    1   AR   Ar  169   2.742   3.030   2.633
    1   AR   Ar  170   3.398   3.929   4.940
    1   AR   Ar  171   4.432   3.808   4.583
    1   AR   Ar  172   4.511   5.400   4.409
    1   AR   Ar  173   1.839   4.074   6.875
    1   AR   Ar  174   3.826   5.344   5.911
    1   AR   Ar  175   4.232   3.776   6.357
    1   AR   Ar  176   3.590   5.040   4.932
    1   AR   Ar  177   5.997   5.945  -0.378
    1   AR   Ar  178   3.032   6.635   1.608
    1   AR   Ar  179   4.056   6.166   0.575
    1   AR   Ar  180   3.894   3.256  -2.763
    1   AR   Ar  181   2.137   5.471   1.438
    1   AR   Ar  182   2.543   6.749   2.481
    1   AR   Ar  183   3.560   5.116   2.296
    1   AR   Ar  184   4.170   6.335   1.666
    1   AR   Ar  185   1.590   5.430   4.352
    1   AR   Ar  186   3.395   5.681   3.695
    1   AR   Ar  187   4.231   5.829   3.136
    1   AR   Ar  188   3.410   6.105   2.537
    1   AR   Ar  189   2.431   4.399   5.890
    1   AR   Ar  190   4.322   6.364   6.359
    1   AR   Ar  191   4.850   5.441   5.500
    1   AR   Ar  192   3.822   6.090   5.174
    1   AR   Ar  193   7.063   6.314   0.001
    1   AR   Ar  194   5.602   4.308  -1.119
    1   AR   Ar  195   6.287   0.414  -0.732
    1   AR   Ar  196   4.696   1.338  -0.957
    1   AR   Ar  197   5.315   0.821   0.513
    1   AR   Ar  198   6.194   1.424   1.438
    1   AR   Ar  199   5.054   0.975   1.473
    1   AR   Ar  200   6.477   1.624   0.403
    1   AR   Ar  201   4.771   6.789   3.639
    1   AR   Ar  202   5.081   2.501   3.906
    1   AR   Ar  203   6.771   6.463   5.004
    1   AR   Ar  204   5.236   0.765   3.977
    1   AR   Ar  205   5.962   0.298   3.389
    1   AR   Ar  206   5.162   0.223   4.953
    1   AR   Ar  207   6.816   0.371   6.196
    1   AR   Ar  208   6.942   0.378   3.888
    1   AR   Ar  209   4.704   2.098  -1.626
    1   AR   Ar  210   3.780   0.730   1.074
    1   AR   Ar  211   6.603   3.172   0.427
    1   AR   Ar  212   6.583   3.947  -1.637
    1   AR   Ar  213   3.230   1.923   2.268
    1   AR   Ar  214   3.681   3.411   2.805
    1   AR   Ar  215   6.169   2.351   2.108
    1   AR   Ar  216   6.701   3.419   1.558
    1   AR   Ar  217   4.511   3.283   3.364
    1   AR   Ar  218   4.633   2.744   4.768
    1   AR   Ar  219   5.137   1.602   3.307
    1   AR   Ar  220   5.228   2.972   2.495
    1   AR   Ar  221   6.304   0.355   4.921
    1   AR   Ar  222   4.711   1.574   6.235
    1   AR   Ar  223   0.043   0.735   7.136
    1   AR   Ar  224   5.170   2.154   5.454
    1   AR   Ar  225   5.351   4.946   0.059
    1   AR   Ar  226   5.110   4.415   2.285
    1   AR   Ar  227   6.454   4.986   0.125
    1   AR   Ar  228   5.087   5.939   1.171
    1   AR   Ar  229   5.813   4.126   0.439
    1   AR   Ar  230   4.548   4.731   3.414
    1   AR   Ar  231   6.833   2.235   3.528
    1   AR   Ar  232   4.502   3.284   0.614
    1   AR   Ar  233   6.362   2.482   4.474
    1   AR   Ar  234   7.054   3.290   4.578
    1   AR   Ar  235   0.295   2.277   4.345
    1   AR   Ar  236   5.262   4.459   4.308
    1   AR   Ar  237   5.841   3.302   4.077
    1   AR   Ar  238   4.792   4.299   5.488
    1   AR   Ar  239   6.189   3.863   9.255
    1   AR   Ar  240   6.860   3.750   5.707
    1   AR   Ar  241   0.166   0.303  -0.441
    1   AR   Ar  242   5.046   4.750   1.249
    1   AR   Ar  243   6.018   3.933   2.318
    1   AR   Ar  244   0.461   5.011  -1.408
    1   AR   Ar  245   5.631   0.115   2.134
    1   AR   Ar  246   6.095   6.457   1.592
    1   AR   Ar  247   5.261   3.501   1.486
    1   AR   Ar  248   5.579   6.800   0.558
    1   AR   Ar  249   4.988   5.444   2.614
    1   AR   Ar  250   4.821   6.428   4.665
    1   AR   Ar  251   5.547   5.480   4.674
    1   AR   Ar  252   5.303   5.856   3.604
    1   AR   Ar  253   5.788   4.792   5.673
    1   AR   Ar  254   5.392   5.222   6.614
    1   AR   Ar  255   5.154   4.200   6.791
    1   AR   Ar  256   5.809   6.838   4.328
    7.12000  7.12000 12.00000
Argon-slab step 1950
  256
    1   AR   Ar    1   7.048   1.693  -0.852
    1   AR   Ar    2   6.160   0.353   1.245
    1   AR   Ar    3   0.117   6.984   0.989
    1   AR   Ar    4   1.313   7.014   0.501
    1   AR   Ar    5   6.630   5.695   0.849
    1   AR   Ar    6   7.075   0.472   2.883
    1   AR   Ar    7   0.088   5.204   2.886
    1   AR   Ar    8   6.832   7.043   2.087
    1   AR   Ar    9   1.067   0.592   4.217
    1   AR   Ar   10   1.175   1.689   4.038
    1   AR   Ar   11   3.130   6.920   4.970
    1   AR   Ar   12   1.144   0.603   3.199
    1   AR   Ar   13   0.043   1.436   4.815
    1   AR   Ar   14   0.685   1.492   6.456
    1   AR   Ar   15   7.086   0.295   8.970
    1   AR   Ar   16   1.237   1.547   5.281
    1   AR   Ar   17   0.537   1.428  -0.023
    1   AR   Ar   18   6.135   3.359  -0.906
    1   AR   Ar   19   1.149   1.991   1.562
    1   AR   Ar   20   6.265   3.494  -2.722
    1   AR   Ar   21   6.026   1.405   2.721
    1   AR   Ar   22   0.100   1.594   2.398
    1   AR   Ar   23   0.140   1.069   0.983
    1   AR   Ar   24   6.912   2.161   1.251
    1   AR   Ar   25   0.372   1.337   3.363
    1   AR   Ar   26   6.405   1.286   4.011
    1   AR   Ar   27   2.126   1.214   3.589
    1   AR   Ar   28   1.362   2.490   4.906
    1   AR   Ar   29   5.654   1.731   6.767
    1   AR   Ar   30   0.828   2.468   5.826
    1   AR   Ar   31   0.717   6.985   6.698
    1   AR   Ar   32   1.980   3.228   5.877
    1   AR   Ar   33   1.934   4.591  -0.899
    1   AR   Ar   34   0.292   5.891   1.645
    1   AR   Ar   35   0.132   4.386   1.334
    1   AR   Ar   36   0.378   6.910  -2.298
    1   AR   Ar   37   7.070   2.711   2.332
    1   AR   Ar   38   7.098   3.990   2.518
    1   AR   Ar   39   1.190   4.205   2.528
    1   AR   Ar   40   1.099   4.034   1.519
    1   AR   Ar   41   0.590   2.860   3.166
    1   AR   Ar   42   6.731   5.435   4.997
    1   AR   Ar   43   6.932   2.719   5.517
    1   AR   Ar   44   0.460   4.255   3.519
    1   AR   Ar   45   1.114   3.469   5.166
    1   AR   Ar   46   0.793   5.806   6.319
    1   AR   Ar   47   6.049   3.688   6.551
    1   AR   Ar   48   6.398   6.641   6.442
    1   AR   Ar   49   6.480   6.699  -1.832
    1   AR   Ar   50   6.044   5.312   1.798
    1   AR   Ar   51   1.073   5.060   1.461
    1   AR   Ar   52   6.550   5.060  -1.248
    1   AR   Ar   53   5.818   6.178   2.665
    1   AR   Ar   54   6.801   6.554   3.346
    1   AR   Ar   55   6.128   5.092   2.751
    1   AR   Ar   56   0.762   7.018   1.804
    1   AR   Ar   57   6.634   3.322   3.283
    1   AR   Ar   58   6.598   5.818   3.983
    1   AR   Ar   59   1.505   5.507   5.514
    1   AR   Ar   60   0.494   6.680   4.146
    1   AR   Ar   61   5.771   6.103   5.796
    1   AR   Ar   62   0.766   5.716   4.910
    1   AR   Ar   63   1.602   6.456   6.237
    1   AR   Ar   64   0.977   6.714   5.230
    1   AR   Ar   65   3.230   6.839   0.550
    1   AR   Ar   66   1.201   1.082   0.836
    1   AR   Ar   67   3.478   6.169  -0.632
    1   AR   Ar   68   3.052   1.649  -1.572
    1   AR   Ar   69   2.226   0.649   0.793
    1   AR   Ar   70   1.134   1.038   2.015
    1   AR   Ar   71   3.047   0.660   2.957
    1   AR   Ar   72   3.012   0.591   1.832
    1   AR   Ar   73   1.932   7.045   3.541
    1   AR   Ar   74   2.126   0.965   4.528
    1   AR   Ar   75   3.216   0.918   5.120
    1   AR   Ar   76   2.071   1.176   2.489
    1   AR   Ar   77   2.108   6.612   5.422
    1   AR   Ar   78   1.514   0.611   6.362
    1   AR   Ar   79   3.503   6.185   6.914
    1   AR   Ar   80   2.747   5.820   5.618
    1   AR   Ar   81   2.003   1.541  -0.147
    1   AR   Ar   82   0.263   3.941  -0.917
    1   AR   Ar   83   2.327   2.348   0.957
    1   AR   Ar   84   0.587   3.561  -1.955
    1   AR   Ar   85   0.213   2.380   0.141
    1   AR   Ar   86   1.975   3.378   1.833
    1   AR   Ar   87   2.161   2.201   2.021
    1   AR   Ar   88   4.403   3.982   1.616
    1   AR   Ar   89   0.950   3.179   2.236
    1   AR   Ar   90   2.944   1.984   4.359
    1   AR   Ar   91   1.902   2.346   4.100
    1   AR   Ar   92   1.385   2.027   2.825
    1   AR   Ar   93   2.297   1.914   5.325
    1   AR   Ar   94   1.017   1.681   8.226
    1   AR   Ar   95   3.387   6.733   6.033
    1   AR   Ar   96   2.043   0.695   5.531
    1   AR   Ar   97   3.789   2.347  -1.034
    1   AR   Ar   98   2.895   4.167   1.285
    1   AR   Ar   99   6.878   2.557  -1.453
    1   AR   Ar  100   1.771   3.597  -0.290
    1   AR   Ar  101   2.015   3.734   0.870
    1   AR   Ar  102   2.524   3.429   3.785
    1   AR   Ar  103   1.063   4.868   0.386
    1   AR   Ar  104   2.638   2.184  -0.626
    1   AR   Ar  105   1.692   3.316   3.061
    1   AR   Ar  106   2.321   2.918   4.841
    1   AR   Ar  107   2.028   3.924   4.993
    1   AR   Ar  108   3.614   2.901   4.292
    1   AR   Ar  109   1.768   4.118   4.007
    1   AR   Ar  110   1.392   4.603   6.042
    1   AR   Ar  111   4.322   4.862   6.803
    1   AR   Ar  112   0.503   4.998   7.302
    1   AR   Ar  113   2.112   4.624   0.363
    1   AR   Ar  114   2.608   5.628  -0.232
    1   AR   Ar  115   2.885   3.892  -0.625
    1   AR   Ar  116   4.823   6.390  -0.161
    1   AR   Ar  117   0.648   5.516   3.797
    1   AR   Ar  118   0.717   6.826   3.075
    1   AR   Ar  119   2.707   4.181   2.928
    1   AR   Ar  120   1.144   5.773   2.749
    1   AR   Ar  121   6.951   4.470   4.341
    1   AR   Ar  122   2.492   6.012   4.486
    1   AR   Ar  123   2.568   5.010   4.872
    1   AR   Ar  124   2.219   5.736   3.016
    1   AR   Ar  125   0.627   4.471   5.100
    1   AR   Ar  126   0.446   0.458   5.470
    1   AR   Ar  127   2.847   5.470   7.606
    1   AR   Ar  128   2.256   5.301   6.567
    1   AR   Ar  129   1.697   0.111   2.356
    1   AR   Ar  130   3.103   0.934  -3.322
    1   AR   Ar  131   4.454   7.058   0.707
    1   AR   Ar  132   0.755   2.240  -1.409
    1   AR   Ar  133   3.619   6.988   3.172
    1   AR   Ar  134   3.912   1.349   2.765
    1   AR   Ar  135   4.792   0.770   2.720
    1   AR   Ar  136   4.294   0.238   1.801
    1   AR   Ar  137   2.761   6.454   3.502
    1   AR   Ar  138   4.792   1.280   5.012
    1   AR   Ar  139   6.005   1.488   4.987
    1   AR   Ar  140   4.140   0.949   3.939
    1   AR   Ar  141   3.865   6.682   4.272
    1   AR   Ar  142   4.278   0.118   5.442
    1   AR   Ar  143   5.225   7.055   5.900
    1   AR   Ar  144   4.743   0.571   6.712
    1   AR   Ar  145   3.672   3.819   0.368
    1   AR   Ar  146   4.098   2.639   1.706
    1   AR   Ar  147   5.902   2.118  -0.780
    1   AR   Ar  148   5.077   4.416  -2.488
    1   AR   Ar  149   3.366   1.685   1.254
    1   AR   Ar  150   2.553   2.218   3.163
    1   AR   Ar  151   3.583   2.409   3.382
    1   AR   Ar  152   2.684   3.214   0.282
    1   AR   Ar  153   3.162   0.691   4.026
    1   AR   Ar  154   4.088   1.974   4.387
    1   AR   Ar  155   5.559   0.818   5.702
    1   AR   Ar  156   3.580   3.897   3.769
    1   AR   Ar  157   3.242   2.985   5.671
    1   AR   Ar  158   1.237   2.741   6.967
    1   AR   Ar  159   3.567   1.624   5.973
    1   AR   Ar  160   3.463   2.508   7.481
    1   AR   Ar  161   5.565   2.027   0.767
    1   AR   Ar  162   4.508   5.204  -0.490
    1   AR   Ar  163   5.542   3.114   0.205
    1   AR   Ar  164   3.952   4.973   1.109
    1   AR   Ar  165   2.995   3.112   1.502
    1   AR   Ar  166   2.535   5.095   3.840
    1   AR   Ar  167   4.427   2.233   2.861
    1   AR   Ar  168   4.391   3.304  -0.921
    1   AR   Ar  169   2.723   3.023   2.652
    1   AR   Ar  170   3.393   3.894   4.936
    1   AR   Ar  171   4.438   3.804   4.610
    1   AR   Ar  172   4.547   5.390   4.406
    1   AR   Ar  173   1.859   4.069   6.879
    1   AR   Ar  174   3.851   5.345   5.935
    1   AR   Ar  175   4.236   3.758   6.364
    1   AR   Ar  176   3.595   5.074   4.930
    1   AR   Ar  177   5.987   5.926  -0.371
    1   AR   Ar  178   3.036   6.619   1.585
    1   AR   Ar  179   4.058   6.161   0.571
    1   AR   Ar  180   3.905   3.221  -2.782
    1   AR   Ar  181   2.131   5.516   1.437
    1   AR   Ar  182   2.575   6.762   2.447
    1   AR   Ar  183   3.563   5.115   2.280
    1   AR   Ar  184   4.159   6.321   1.635
    1   AR   Ar  185   1.589   5.446   4.358
    1   AR   Ar  186   3.408   5.651   3.682
    1   AR   Ar  187   4.192   5.843   3.126
    1   AR   Ar  188   3.395   6.070   2.527
    1   AR   Ar  189   2.436   4.357   5.904
    1   AR   Ar  190   4.307   6.339   6.365
    1   AR   Ar  191   4.845   5.424   5.491
    1   AR   Ar  192   3.804   6.085   5.168
    1   AR   Ar  193   7.058   6.329   0.009
    1   AR   Ar  194   5.597   4.246  -1.174
    1   AR   Ar  195   6.297   0.419  -0.712
    1   AR   Ar  196   4.668   1.353  -0.936
    1   AR   Ar  197   5.329   0.862   0.504
    1   AR   Ar  198   6.213   1.418   1.442
    1   AR   Ar  199   5.061   1.017   1.466
    1   AR   Ar  200   6.504   1.649   0.423
    1   AR   Ar  201   4.765   6.771   3.649
    1   AR   Ar  202   5.093   2.537   3.930
    1   AR   Ar  203   6.785   6.440   5.029
    1   AR   Ar  204   5.242   0.798   3.995
    1   AR   Ar  205   5.950   0.293   3.398
    1   AR   Ar  206   5.153   0.228   4.957
    1   AR   Ar  207   6.814   0.360   6.171
    1   AR   Ar  208   6.915   0.374   3.880
    1   AR   Ar  209   4.697   2.109  -1.643
    1   AR   Ar  210   3.780   0.717   1.047
    1   AR   Ar  211   6.597   3.186   0.435
    1   AR   Ar  212   6.584   3.928  -1.644
    1   AR   Ar  213   3.232   1.906   2.272
    1   AR   Ar  214   3.699   3.430   2.824
    1   AR   Ar  215   6.185   2.369   2.094
    1   AR   Ar  216   6.707   3.440   1.540
    1   AR   Ar  217   4.497   3.271   3.331
    1   AR   Ar  218   4.617   2.753   4.754
    1   AR   Ar  219   5.173   1.592   3.301
    1   AR   Ar  220   5.235   2.959   2.520
    1   AR   Ar  221   6.293   0.370   4.903
    1   AR   Ar  222   4.724   1.543   6.229
    1   AR   Ar  223   0.040   0.716   7.125
    1   AR   Ar  224   5.165   2.158   5.439
    1   AR   Ar  225   5.368   4.974   0.076
    1   AR   Ar  226   5.117   4.393   2.302
    1   AR   Ar  227   6.441   4.954   0.133
    1   AR   Ar  228   5.076   5.942   1.197
    1   AR   Ar  229   5.839   4.124   0.394
    1   AR   Ar  230   4.550   4.701   3.442
    1   AR   Ar  231   6.806   2.228   3.508
    1   AR   Ar  232   4.523   3.274   0.619
    1   AR   Ar  233   6.356   2.511   4.490
    1   AR   Ar  234   7.051   3.300   4.605
    1   AR   Ar  235   0.297   2.246   4.336
    1   AR   Ar  236   5.270   4.454   4.338
    1   AR   Ar  237   5.849   3.296   4.067
    1   AR   Ar  238   4.784   4.302   5.477
    1   AR   Ar  239   6.216   3.863   9.252
    1   AR   Ar  240   6.856   3.723   5.730
    1   AR   Ar  241   0.175   0.297  -0.402
    1   AR   Ar  242   5.071   4.740   1.237
    1   AR   Ar  243   6.033   3.933   2.344
    1   AR   Ar  244   0.465   5.004  -1.429
    1   AR   Ar  245   5.648   0.148   2.153
    1   AR   Ar  246   6.102   6.465   1.603
    1   AR   Ar  247   5.307   3.473   1.450
    1   AR   Ar  248   5.578   6.831   0.568
    1   AR   Ar  249   4.986   5.482   2.622
    1   AR   Ar  250   4.827   6.435   4.701
    1   AR   Ar  251   5.556   5.451   4.695
    1   AR   Ar  252   5.295   5.810   3.605
    1   AR   Ar  253   5.750   4.789   5.680
    1   AR   Ar  254   5.380   5.190   6.630
    1   AR   Ar  255   5.168   4.202   6.786
    1   AR   Ar  256   5.831   6.865   4.280
    7.12000  7.12000 12.00000
Argon-slab step 1955
  256
    1   AR   Ar    1   7.026   1.704  -0.857
    1   AR   Ar    2   6.188   0.358   1.254
    1   AR   Ar    3   0.109   6.988   0.989
    1   AR   Ar    4   1.300   7.010   0.483
    1   AR   Ar    5   6.620   5.705   0.882
    1   AR   Ar    6   7.048   0.474   2.904
    1   AR   Ar    7   0.064   5.198   2.896
    1   AR   Ar    8   6.819   7.049   2.085
    1   AR   Ar    9   1.059   0.583   4.228
    1   AR   Ar   10   1.190   1.682   4.070
    1   AR   Ar   11   3.102   6.907   4.970
    1   AR   Ar   12   1.187   0.615   3.216
    1   AR   Ar   13   0.012   1.403   4.819
    1   AR   Ar   14   0.687   1.494   6.467
    1   AR   Ar   15   7.101   0.308   8.989
    1   AR   Ar   16   1.286   1.528   5.287
    1   AR   Ar   17   0.502   1.428  -0.049
    1   AR   Ar   18   6.123   3.346  -0.887
    1   AR   Ar   19   1.183   1.992   1.531
    1   AR   Ar   20   6.245   3.534  -2.733
    1   AR   Ar   21   6.010   1.407   2.721
    1   AR   Ar   22   0.079   1.582   2.380
    1   AR   Ar   23   0.184   1.074   0.951
    1   AR   Ar   24   6.913   2.137   1.258
    1   AR   Ar   25   0.353   1.314   3.396
    1   AR   Ar   26   6.430   1.298   4.028
    1   AR   Ar   27   2.133   1.208   3.595
    1   AR   Ar   28   1.352   2.507   4.909
    1   AR   Ar   29   5.661   1.740   6.784
    1   AR   Ar   30   0.836   2.457   5.784
    1   AR   Ar   31   0.715   6.967   6.690
    1   AR   Ar   32   1.967   3.257   5.867
    1   AR   Ar   33   1.961   4.600  -0.878
    1   AR   Ar   34   0.311   5.866   1.602
    1   AR   Ar   35   0.100   4.433   1.338
    1   AR   Ar   36   0.379   6.932  -2.346
    1   AR   Ar   37   7.062   2.681   2.329
    1   AR   Ar   38   0.007   3.979   2.531
    1   AR   Ar   39   1.170   4.217   2.533
    1   AR   Ar   40   1.106   4.039   1.524
    1   AR   Ar   41   0.589   2.855   3.136
    1   AR   Ar   42   6.720   5.448   4.996
    1   AR   Ar   43   6.941   2.726   5.541
    1   AR   Ar   44   0.465   4.276   3.509
    1   AR   Ar   45   1.097   3.480   5.169
    1   AR   Ar   46   0.790   5.787   6.297
    1   AR   Ar   47   6.045   3.693   6.549
    1   AR   Ar   48   6.387   6.622   6.421
    1   AR   Ar   49   6.462   6.731  -1.800
    1   AR   Ar   50   6.069   5.302   1.768
    1   AR   Ar   51   1.063   5.083   1.470
    1   AR   Ar   52   6.537   5.105  -1.270
    1   AR   Ar   53   5.819   6.162   2.666
    1   AR   Ar   54   6.785   6.553   3.321
    1   AR   Ar   55   6.111   5.118   2.749
    1   AR   Ar   56   0.769   7.043   1.834
    1   AR   Ar   57   6.662   3.298   3.243
    1   AR   Ar   58   6.577   5.817   3.996
    1   AR   Ar   59   1.544   5.515   5.486
    1   AR   Ar   60   0.515   6.701   4.110
    1   AR   Ar   61   5.760   6.122   5.787
    1   AR   Ar   62   0.783   5.730   4.895
    1   AR   Ar   63   1.580   6.454   6.249
    1   AR   Ar   64   0.962   6.700   5.238
    1   AR   Ar   65   3.242   6.822   0.545
    1   AR   Ar   66   1.185   1.076   0.870
    1   AR   Ar   67   3.469   6.171  -0.613
    1   AR   Ar   68   3.088   1.618  -1.581
    1   AR   Ar   69   2.238   0.688   0.809
    1   AR   Ar   70   1.159   1.028   2.018
    1   AR   Ar   71   3.046   0.674   2.974
    1   AR   Ar   72   3.032   0.588   1.824
    1   AR   Ar   73   1.959   7.041   3.546
    1   AR   Ar   74   2.160   0.936   4.544
    1   AR   Ar   75   3.156   0.909   5.127
    1   AR   Ar   76   2.079   1.183   2.500
    1   AR   Ar   77   2.069   6.604   5.422
    1   AR   Ar   78   1.523   0.609   6.394
    1   AR   Ar   79   3.505   6.170   6.910
    1   AR   Ar   80   2.756   5.816   5.620
    1   AR   Ar   81   2.001   1.500  -0.145
    1   AR   Ar   82   0.270   3.990  -0.886
    1   AR   Ar   83   2.336   2.363   0.983
    1   AR   Ar   84   0.574   3.557  -1.939
    1   AR   Ar   85   0.224   2.336   0.120
    1   AR   Ar   86   1.990   3.390   1.844
    1   AR   Ar   87   2.164   2.199   2.022
    1   AR   Ar   88   4.387   3.988   1.609
    1   AR   Ar   89   0.921   3.157   2.221
    1   AR   Ar   90   2.936   1.971   4.390
    1   AR   Ar   91   1.901   2.371   4.059
    1   AR   Ar   92   1.369   2.029   2.828
    1   AR   Ar   93   2.326   1.937   5.357
    1   AR   Ar   94   1.008   1.698   8.233
    1   AR   Ar   95   3.365   6.748   6.029
    1   AR   Ar   96   2.072   0.709   5.538
    1   AR   Ar   97   3.791   2.377  -1.000
    1   AR   Ar   98   2.907   4.183   1.294
    1   AR   Ar   99   6.863   2.567  -1.454
    1   AR   Ar  100   1.781   3.618  -0.258
    1   AR   Ar  101   2.042   3.769   0.874
    1   AR   Ar  102   2.539   3.417   3.766
    1   AR   Ar  103   1.075   4.883   0.371
    1   AR   Ar  104   2.662   2.203  -0.631
    1   AR   Ar  105   1.719   3.317   3.039
    1   AR   Ar  106   2.318   2.936   4.847
    1   AR   Ar  107   2.015   3.918   5.045
    1   AR   Ar  108   3.600   2.912   4.316
    1   AR   Ar  109   1.778   4.142   4.049
    1   AR   Ar  110   1.411   4.575   5.989
    1   AR   Ar  111   4.329   4.852   6.781
    1   AR   Ar  112   0.511   4.994   7.289
    1   AR   Ar  113   2.097   4.611   0.351
    1   AR   Ar  114   2.611   5.608  -0.267
    1   AR   Ar  115   2.891   3.879  -0.615
    1   AR   Ar  116   4.799   6.381  -0.162
    1   AR   Ar  117   0.658   5.536   3.780
    1   AR   Ar  118   0.702   6.803   3.085
    1   AR   Ar  119   2.683   4.168   2.915
    1   AR   Ar  120   1.141   5.775   2.766
    1   AR   Ar  121   6.945   4.464   4.341
    1   AR   Ar  122   2.502   5.958   4.496
    1   AR   Ar  123   2.568   4.994   4.875
    1   AR   Ar  124   2.219   5.717   3.030
    1   AR   Ar  125   0.609   4.448   5.070
    1   AR   Ar  126   0.441   0.440   5.462
    1   AR   Ar  127   2.866   5.450   7.629
    1   AR   Ar  128   2.241   5.307   6.561
    1   AR   Ar  129   1.698   0.091   2.366
    1   AR   Ar  130   3.056   0.927  -3.337
    1   AR   Ar  131   4.441   7.064   0.704
    1   AR   Ar  132   0.748   2.253  -1.427
    1   AR   Ar  133   3.623   7.005   3.237
    1   AR   Ar  134   3.930   1.328   2.770
    1   AR   Ar  135   4.784   0.725   2.705
    1   AR   Ar  136   4.291   0.215   1.801
    1   AR   Ar  137   2.766   6.441   3.524
    1   AR   Ar  138   4.819   1.282   5.007
    1   AR   Ar  139   6.004   1.509   4.975
    1   AR   Ar  140   4.146   0.960   3.978
    1   AR   Ar  141   3.856   6.645   4.265
    1   AR   Ar  142   4.279   0.128   5.466
    1   AR   Ar  143   5.217   7.065   5.894
    1   AR   Ar  144   4.746   0.569   6.697
    1   AR   Ar  145   3.657   3.812   0.377
    1   AR   Ar  146   4.076   2.628   1.690
    1   AR   Ar  147   5.860   2.145  -0.782
    1   AR   Ar  148   5.047   4.456  -2.504
    1   AR   Ar  149   3.331   1.678   1.296
    1   AR   Ar  150   2.558   2.217   3.135
    1   AR   Ar  151   3.567   2.392   3.389
    1   AR   Ar  152   2.697   3.209   0.300
    1   AR   Ar  153   3.153   0.685   4.032
    1   AR   Ar  154   4.071   1.981   4.354
    1   AR   Ar  155   5.555   0.851   5.724
    1   AR   Ar  156   3.528   3.931   3.798
    1   AR   Ar  157   3.247   2.999   5.643
    1   AR   Ar  158   1.213   2.707   6.996
    1   AR   Ar  159   3.569   1.670   5.972
    1   AR   Ar  160   3.459   2.518   7.486
    1   AR   Ar  161   5.576   2.040   0.772
    1   AR   Ar  162   4.516   5.185  -0.493
    1   AR   Ar  163   5.524   3.123   0.202
    1   AR   Ar  164   3.937   4.978   1.097
    1   AR   Ar  165   2.976   3.099   1.465
    1   AR   Ar  166   2.555   5.087   3.853
    1   AR   Ar  167   4.457   2.214   2.860
    1   AR   Ar  168   4.392   3.312  -0.919
    1   AR   Ar  169   2.706   3.029   2.662
    1   AR   Ar  170   3.386   3.859   4.931
    1   AR   Ar  171   4.441   3.799   4.633
    1   AR   Ar  172   4.579   5.379   4.401
    1   AR   Ar  173   1.879   4.064   6.881
    1   AR   Ar  174   3.875   5.346   5.963
    1   AR   Ar  175   4.239   3.740   6.369
    1   AR   Ar  176   3.604   5.106   4.925
    1   AR   Ar  177   5.978   5.906  -0.361
    1   AR   Ar  178   3.046   6.602   1.553
    1   AR   Ar  179   4.056   6.144   0.566
    1   AR   Ar  180   3.917   3.186  -2.801
    1   AR   Ar  181   2.125   5.561   1.436
    1   AR   Ar  182   2.609   6.773   2.424
    1   AR   Ar  183   3.569   5.106   2.261
    1   AR   Ar  184   4.150   6.299   1.600
    1   AR   Ar  185   1.593   5.458   4.362
    1   AR   Ar  186   3.415   5.618   3.678
    1   AR   Ar  187   4.163   5.862   3.118
    1   AR   Ar  188   3.379   6.051   2.520
    1   AR   Ar  189   2.443   4.315   5.916
    1   AR   Ar  190   4.306   6.314   6.363
    1   AR   Ar  191   4.838   5.409   5.483
    1   AR   Ar  192   3.788   6.083   5.163
    1   AR   Ar  193   7.053   6.345   0.018
    1   AR   Ar  194   5.592   4.186  -1.229
    1   AR   Ar  195   6.304   0.425  -0.681
    1   AR   Ar  196   4.640   1.364  -0.911
    1   AR   Ar  197   5.346   0.902   0.489
    1   AR   Ar  198   6.227   1.422   1.438
    1   AR   Ar  199   5.067   1.059   1.467
    1   AR   Ar  200   6.533   1.671   0.437
    1   AR   Ar  201   4.761   6.755   3.658
    1   AR   Ar  202   5.111   2.567   3.942
    1   AR   Ar  203   6.789   6.436   5.057
    1   AR   Ar  204   5.237   0.809   3.994
    1   AR   Ar  205   5.941   0.289   3.400
    1   AR   Ar  206   5.151   0.243   4.946
    1   AR   Ar  207   6.814   0.361   6.143
    1   AR   Ar  208   6.891   0.368   3.881
    1   AR   Ar  209   4.690   2.124  -1.663
    1   AR   Ar  210   3.777   0.704   1.016
    1   AR   Ar  211   6.592   3.201   0.444
    1   AR   Ar  212   6.586   3.912  -1.656
    1   AR   Ar  213   3.228   1.894   2.277
    1   AR   Ar  214   3.702   3.451   2.831
    1   AR   Ar  215   6.188   2.383   2.077
    1   AR   Ar  216   6.711   3.459   1.522
    1   AR   Ar  217   4.498   3.254   3.309
    1   AR   Ar  218   4.598   2.770   4.753
    1   AR   Ar  219   5.212   1.587   3.289
    1   AR   Ar  220   5.243   2.929   2.543
    1   AR   Ar  221   6.287   0.393   4.891
    1   AR   Ar  222   4.742   1.491   6.210
    1   AR   Ar  223   0.039   0.697   7.115
    1   AR   Ar  224   5.164   2.164   5.426
    1   AR   Ar  225   5.383   5.008   0.093
    1   AR   Ar  226   5.120   4.375   2.321
    1   AR   Ar  227   6.430   4.922   0.138
    1   AR   Ar  228   5.068   5.928   1.190
    1   AR   Ar  229   5.866   4.115   0.353
    1   AR   Ar  230   4.552   4.672   3.470
    1   AR   Ar  231   6.776   2.221   3.481
    1   AR   Ar  232   4.547   3.280   0.619
    1   AR   Ar  233   6.350   2.532   4.508
    1   AR   Ar  234   7.051   3.314   4.630
    1   AR   Ar  235   0.306   2.227   4.324
    1   AR   Ar  236   5.277   4.449   4.368
    1   AR   Ar  237   5.849   3.300   4.057
    1   AR   Ar  238   4.775   4.307   5.469
    1   AR   Ar  239   6.243   3.864   9.249
    1   AR   Ar  240   6.872   3.721   5.705
    1   AR   Ar  241   0.188   0.291  -0.361
    1   AR   Ar  242   5.086   4.722   1.233
    1   AR   Ar  243   6.053   3.930   2.369
    1   AR   Ar  244   0.472   4.996  -1.450
    1   AR   Ar  245   5.663   0.183   2.175
    1   AR   Ar  246   6.108   6.467   1.612
    1   AR   Ar  247   5.356   3.444   1.413
    1   AR   Ar  248   5.560   6.824   0.570
    1   AR   Ar  249   4.995   5.504   2.621
    1   AR   Ar  250   4.832   6.434   4.737
    1   AR   Ar  251   5.570   5.425   4.716
    1   AR   Ar  252   5.288   5.764   3.610
    1   AR   Ar  253   5.713   4.786   5.685
    1   AR   Ar  254   5.369   5.165   6.643
    1   AR   Ar  255   5.180   4.199   6.782
    1   AR   Ar  256   5.850   6.882   4.227
    7.12000  7.12000 12.00000
Argon-slab step 1960
  256
    1   AR   Ar    1   7.001   1.715  -0.862
    1   AR   Ar    2   6.217   0.366   1.259
    1   AR   Ar    3   0.098   6.991   0.988
    1   AR   Ar    4   1.286   7.008   0.467
    1   AR   Ar    5   6.609   5.717   0.914
    1   AR   Ar    6   7.023   0.480   2.920
    1   AR   Ar    7   0.041   5.192   2.905
    1   AR   Ar    8   6.807   7.054   2.080
    1   AR   Ar    9   1.050   0.574   4.245
    1   AR   Ar   10   1.198   1.666   4.101
    1   AR   Ar   11   3.071   6.895   4.970
    1   AR   Ar   12   1.232   0.632   3.226
    1   AR   Ar   13   7.102   1.362   4.828
    1   AR   Ar   14   0.690   1.495   6.477
    1   AR   Ar   15   7.116   0.320   9.008
    1   AR   Ar   16   1.334   1.505   5.293
    1   AR   Ar   17   0.490   1.409  -0.063
    1   AR   Ar   18   6.113   3.327  -0.864
    1   AR   Ar   19   1.217   1.996   1.501
    1   AR   Ar   20   6.226   3.575  -2.743
    1   AR   Ar   21   6.004   1.407   2.716
    1   AR   Ar   22   0.057   1.571   2.359
    1   AR   Ar   23   0.218   1.078   0.922
    1   AR   Ar   24   6.922   2.123   1.270
    1   AR   Ar   25   0.335   1.294   3.432
    1   AR   Ar   26   6.453   1.312   4.041
    1   AR   Ar   27   2.140   1.205   3.591
    1   AR   Ar   28   1.342   2.523   4.909
    1   AR   Ar   29   5.667   1.749   6.799
    1   AR   Ar   30   0.843   2.445   5.748
    1   AR   Ar   31   0.719   6.959   6.690
    1   AR   Ar   32   1.954   3.284   5.860
    1   AR   Ar   33   1.970   4.589  -0.842
    1   AR   Ar   34   0.329   5.844   1.559
    1   AR   Ar   35   0.068   4.481   1.342
    1   AR   Ar   36   0.379   6.954  -2.393
    1   AR   Ar   37   7.067   2.658   2.328
    1   AR   Ar   38   0.039   3.968   2.542
    1   AR   Ar   39   1.151   4.230   2.543
    1   AR   Ar   40   1.114   4.038   1.523
    1   AR   Ar   41   0.587   2.848   3.116
    1   AR   Ar   42   6.708   5.448   4.995
    1   AR   Ar   43   6.948   2.725   5.562
    1   AR   Ar   44   0.473   4.296   3.497
    1   AR   Ar   45   1.075   3.491   5.174
    1   AR   Ar   46   0.783   5.766   6.274
    1   AR   Ar   47   6.047   3.697   6.545
    1   AR   Ar   48   6.377   6.599   6.405
    1   AR   Ar   49   6.445   6.764  -1.767
    1   AR   Ar   50   6.092   5.294   1.729
    1   AR   Ar   51   1.053   5.108   1.480
    1   AR   Ar   52   6.537   5.111  -1.252
    1   AR   Ar   53   5.898   6.135   2.678
    1   AR   Ar   54   6.768   6.556   3.291
    1   AR   Ar   55   6.093   5.140   2.757
    1   AR   Ar   56   0.776   7.069   1.866
    1   AR   Ar   57   6.691   3.274   3.204
    1   AR   Ar   58   6.554   5.813   4.011
    1   AR   Ar   59   1.596   5.523   5.465
    1   AR   Ar   60   0.535   6.720   4.078
    1   AR   Ar   61   5.744   6.136   5.772
    1   AR   Ar   62   0.781   5.745   4.875
    1   AR   Ar   63   1.554   6.453   6.272
    1   AR   Ar   64   0.950   6.685   5.246
    1   AR   Ar   65   3.253   6.807   0.537
    1   AR   Ar   66   1.178   1.069   0.903
    1   AR   Ar   67   3.460   6.177  -0.640
    1   AR   Ar   68   3.125   1.588  -1.589
    1   AR   Ar   69   2.250   0.727   0.826
    1   AR   Ar   70   1.189   1.032   2.027
    1   AR   Ar   71   3.038   0.694   2.986
    1   AR   Ar   72   3.051   0.585   1.817
    1   AR   Ar   73   1.980   7.042   3.550
    1   AR   Ar   74   2.194   0.907   4.564
    1   AR   Ar   75   3.096   0.902   5.135
    1   AR   Ar   76   2.090   1.189   2.512
    1   AR   Ar   77   2.036   6.600   5.407
    1   AR   Ar   78   1.526   0.606   6.430
    1   AR   Ar   79   3.496   6.150   6.916
    1   AR   Ar   80   2.767   5.811   5.623
    1   AR   Ar   81   1.998   1.459  -0.140
    1   AR   Ar   82   0.276   4.039  -0.855
    1   AR   Ar   83   2.344   2.377   1.007
    1   AR   Ar   84   0.559   3.553  -1.921
    1   AR   Ar   85   0.229   2.309   0.103
    1   AR   Ar   86   2.000   3.396   1.851
    1   AR   Ar   87   2.167   2.198   2.026
    1   AR   Ar   88   4.369   3.991   1.601
    1   AR   Ar   89   0.894   3.136   2.200
    1   AR   Ar   90   2.927   1.958   4.420
    1   AR   Ar   91   1.917   2.355   4.033
    1   AR   Ar   92   1.355   2.039   2.824
    1   AR   Ar   93   2.355   1.960   5.388
    1   AR   Ar   94   0.999   1.714   8.239
    1   AR   Ar   95   3.342   6.764   6.022
    1   AR   Ar   96   2.104   0.723   5.544
    1   AR   Ar   97   3.792   2.405  -0.966
    1   AR   Ar   98   2.922   4.202   1.303
    1   AR   Ar   99   6.844   2.582  -1.456
    1   AR   Ar  100   1.791   3.640  -0.225
    1   AR   Ar  101   2.063   3.796   0.882
    1   AR   Ar  102   2.556   3.402   3.748
    1   AR   Ar  103   1.086   4.898   0.357
    1   AR   Ar  104   2.689   2.223  -0.636
    1   AR   Ar  105   1.744   3.317   3.017
    1   AR   Ar  106   2.322   2.954   4.853
    1   AR   Ar  107   2.007   3.919   5.095
    1   AR   Ar  108   3.584   2.928   4.342
    1   AR   Ar  109   1.786   4.169   4.088
    1   AR   Ar  110   1.428   4.546   5.935
    1   AR   Ar  111   4.335   4.842   6.760
    1   AR   Ar  112   0.520   4.991   7.275
    1   AR   Ar  113   2.087   4.605   0.332
    1   AR   Ar  114   2.612   5.586  -0.302
    1   AR   Ar  115   2.896   3.865  -0.603
    1   AR   Ar  116   4.776   6.371  -0.163
    1   AR   Ar  117   0.667   5.556   3.764
    1   AR   Ar  118   0.688   6.778   3.090
    1   AR   Ar  119   2.659   4.154   2.904
    1   AR   Ar  120   1.136   5.776   2.782
    1   AR   Ar  121   6.937   4.459   4.342
    1   AR   Ar  122   2.516   5.912   4.507
    1   AR   Ar  123   2.572   4.959   4.878
    1   AR   Ar  124   2.219   5.698   3.037
    1   AR   Ar  125   0.597   4.427   5.078
    1   AR   Ar  126   0.439   0.427   5.450
    1   AR   Ar  127   2.885   5.430   7.651
    1   AR   Ar  128   2.225   5.312   6.553
    1   AR   Ar  129   1.693   0.076   2.377
    1   AR   Ar  130   3.026   0.950  -3.357
    1   AR   Ar  131   4.428   7.067   0.703
    1   AR   Ar  132   0.743   2.266  -1.444
    1   AR   Ar  133   3.632   7.016   3.302
    1   AR   Ar  134   3.946   1.301   2.779
    1   AR   Ar  135   4.788   0.747   2.710
    1   AR   Ar  136   4.290   0.194   1.804
    1   AR   Ar  137   2.778   6.427   3.548
    1   AR   Ar  138   4.843   1.281   5.000
    1   AR   Ar  139   6.001   1.530   4.964
    1   AR   Ar  140   4.158   0.970   4.016
    1   AR   Ar  141   3.847   6.608   4.254
    1   AR   Ar  142   4.271   0.137   5.491
    1   AR   Ar  143   5.208   7.059   5.900
    1   AR   Ar  144   4.750   0.564   6.682
    1   AR   Ar  145   3.638   3.807   0.387
    1   AR   Ar  146   4.053   2.617   1.675
    1   AR   Ar  147   5.820   2.173  -0.783
    1   AR   Ar  148   5.018   4.495  -2.521
    1   AR   Ar  149   3.296   1.670   1.332
    1   AR   Ar  150   2.556   2.195   3.117
    1   AR   Ar  151   3.551   2.375   3.395
    1   AR   Ar  152   2.712   3.203   0.316
    1   AR   Ar  153   3.138   0.676   4.041
    1   AR   Ar  154   4.054   1.982   4.319
    1   AR   Ar  155   5.557   0.898   5.746
    1   AR   Ar  156   3.477   3.966   3.828
    1   AR   Ar  157   3.286   3.031   5.661
    1   AR   Ar  158   1.189   2.673   7.022
    1   AR   Ar  159   3.572   1.715   5.970
    1   AR   Ar  160   3.452   2.528   7.522
    1   AR   Ar  161   5.586   2.055   0.778
    1   AR   Ar  162   4.523   5.169  -0.496
    1   AR   Ar  163   5.507   3.129   0.199
    1   AR   Ar  164   3.922   4.984   1.086
    1   AR   Ar  165   2.959   3.084   1.430
    1   AR   Ar  166   2.570   5.074   3.862
    1   AR   Ar  167   4.490   2.200   2.857
    1   AR   Ar  168   4.398   3.313  -0.906
    1   AR   Ar  169   2.691   3.051   2.660
    1   AR   Ar  170   3.367   3.875   4.966
    1   AR   Ar  171   4.442   3.794   4.650
    1   AR   Ar  172   4.605   5.368   4.394
    1   AR   Ar  173   1.900   4.059   6.881
    1   AR   Ar  174   3.896   5.349   5.991
    1   AR   Ar  175   4.242   3.723   6.373
    1   AR   Ar  176   3.616   5.132   4.917
    1   AR   Ar  177   5.969   5.886  -0.350
    1   AR   Ar  178   3.061   6.581   1.515
    1   AR   Ar  179   4.042   6.107   0.579
    1   AR   Ar  180   3.928   3.151  -2.820
    1   AR   Ar  181   2.119   5.605   1.435
    1   AR   Ar  182   2.644   6.787   2.414
    1   AR   Ar  183   3.577   5.088   2.240
    1   AR   Ar  184   4.138   6.277   1.569
    1   AR   Ar  185   1.602   5.466   4.362
    1   AR   Ar  186   3.416   5.583   3.685
    1   AR   Ar  187   4.150   5.886   3.109
    1   AR   Ar  188   3.374   6.066   2.523
    1   AR   Ar  189   2.453   4.275   5.931
    1   AR   Ar  190   4.317   6.291   6.351
    1   AR   Ar  191   4.830   5.396   5.476
    1   AR   Ar  192   3.775   6.086   5.162
    1   AR   Ar  193   7.046   6.362   0.028
    1   AR   Ar  194   5.585   4.129  -1.285
    1   AR   Ar  195   6.308   0.430  -0.651
    1   AR   Ar  196   4.611   1.376  -0.884
    1   AR   Ar  197   5.367   0.939   0.470
    1   AR   Ar  198   6.235   1.431   1.430
    1   AR   Ar  199   5.073   1.100   1.474
    1   AR   Ar  200   6.560   1.690   0.443
    1   AR   Ar  201   4.779   6.773   3.645
    1   AR   Ar  202   5.132   2.589   3.943
    1   AR   Ar  203   6.786   6.449   5.089
    1   AR   Ar  204   5.220   0.787   3.962
    1   AR   Ar  205   5.933   0.291   3.387
    1   AR   Ar  206   5.156   0.267   4.923
    1   AR   Ar  207   6.813   0.370   6.114
    1   AR   Ar  208   6.869   0.360   3.893
    1   AR   Ar  209   4.677   2.137  -1.679
    1   AR   Ar  210   3.791   0.699   0.987
    1   AR   Ar  211   6.588   3.214   0.452
    1   AR   Ar  212   6.590   3.897  -1.671
    1   AR   Ar  213   3.218   1.889   2.289
    1   AR   Ar  214   3.687   3.475   2.826
    1   AR   Ar  215   6.172   2.390   2.054
    1   AR   Ar  216   6.715   3.477   1.507
    1   AR   Ar  217   4.516   3.234   3.301
    1   AR   Ar  218   4.574   2.792   4.765
    1   AR   Ar  219   5.244   1.587   3.283
    1   AR   Ar  220   5.255   2.876   2.563
    1   AR   Ar  221   6.284   0.421   4.883
    1   AR   Ar  222   4.758   1.441   6.187
    1   AR   Ar  223   0.039   0.678   7.105
    1   AR   Ar  224   5.167   2.170   5.415
    1   AR   Ar  225   5.396   5.045   0.111
    1   AR   Ar  226   5.120   4.359   2.341
    1   AR   Ar  227   6.428   4.897   0.139
    1   AR   Ar  228   5.062   5.913   1.181
    1   AR   Ar  229   5.890   4.099   0.316
    1   AR   Ar  230   4.555   4.644   3.498
    1   AR   Ar  231   6.746   2.213   3.451
    1   AR   Ar  232   4.572   3.285   0.622
    1   AR   Ar  233   6.345   2.544   4.529
    1   AR   Ar  234   7.054   3.331   4.654
    1   AR   Ar  235   0.317   2.218   4.311
    1   AR   Ar  236   5.284   4.444   4.398
    1   AR   Ar  237   5.830   3.322   4.051
    1   AR   Ar  238   4.766   4.314   5.465
    1   AR   Ar  239   6.271   3.864   9.246
    1   AR   Ar  240   6.888   3.727   5.680
    1   AR   Ar  241   0.203   0.286  -0.317
    1   AR   Ar  242   5.096   4.700   1.235
    1   AR   Ar  243   6.075   3.924   2.394
    1   AR   Ar  244   0.481   4.986  -1.471
    1   AR   Ar  245   5.678   0.218   2.200
    1   AR   Ar  246   6.087   6.457   1.580
    1   AR   Ar  247   5.407   3.415   1.376
    1   AR   Ar  248   5.537   6.806   0.571
    1   AR   Ar  249   5.031   5.479   2.600
    1   AR   Ar  250   4.835   6.423   4.772
    1   AR   Ar  251   5.591   5.403   4.737
    1   AR   Ar  252   5.281   5.717   3.617
    1   AR   Ar  253   5.678   4.784   5.689
    1   AR   Ar  254   5.360   5.152   6.653
    1   AR   Ar  255   5.164   4.208   6.795
    1   AR   Ar  256   5.864   6.887   4.179
    7.12000  7.12000 12.00000
Argon-slab step 1965
  256
    1   AR   Ar    1   6.975   1.725  -0.866
    1   AR   Ar    2   6.246   0.373   1.261
    1   AR   Ar    3   0.087   6.995   0.987
    1   AR   Ar    4   1.270   7.007   0.453
    1   AR   Ar    5   6.598   5.730   0.942
    1   AR   Ar    6   7.000   0.490   2.928
    1   AR   Ar    7   0.020   5.186   2.915
    1   AR   Ar    8   6.795   7.056   2.072
    1   AR   Ar    9   1.039   0.565   4.267
    1   AR   Ar   10   1.202   1.641   4.133
    1   AR   Ar   11   3.038   6.884   4.969
    1   AR   Ar   12   1.276   0.651   3.230
    1   AR   Ar   13   7.090   1.334   4.803
    1   AR   Ar   14   0.695   1.499   6.482
    1   AR   Ar   15   0.012   0.333   9.028
    1   AR   Ar   16   1.382   1.480   5.298
    1   AR   Ar   17   0.510   1.369  -0.062
    1   AR   Ar   18   6.104   3.304  -0.838
    1   AR   Ar   19   1.249   2.001   1.472
    1   AR   Ar   20   6.207   3.616  -2.751
    1   AR   Ar   21   6.013   1.403   2.700
    1   AR   Ar   22   0.034   1.558   2.338
    1   AR   Ar   23   0.232   1.082   0.897
    1   AR   Ar   24   6.944   2.121   1.287
    1   AR   Ar   25   0.317   1.277   3.471
    1   AR   Ar   26   6.470   1.326   4.045
    1   AR   Ar   27   2.147   1.204   3.581
    1   AR   Ar   28   1.337   2.536   4.898
    1   AR   Ar   29   5.673   1.756   6.813
    1   AR   Ar   30   0.845   2.432   5.724
    1   AR   Ar   31   0.732   6.965   6.701
    1   AR   Ar   32   1.939   3.304   5.861
    1   AR   Ar   33   1.979   4.579  -0.803
    1   AR   Ar   34   0.345   5.827   1.519
    1   AR   Ar   35   0.035   4.530   1.347
    1   AR   Ar   36   0.378   6.975  -2.440
    1   AR   Ar   37   7.069   2.684   2.316
    1   AR   Ar   38   0.062   3.953   2.549
    1   AR   Ar   39   1.131   4.242   2.558
    1   AR   Ar   40   1.122   4.034   1.517
    1   AR   Ar   41   0.587   2.839   3.107
    1   AR   Ar   42   6.696   5.439   4.996
    1   AR   Ar   43   6.955   2.715   5.581
    1   AR   Ar   44   0.482   4.316   3.485
    1   AR   Ar   45   1.047   3.500   5.181
    1   AR   Ar   46   0.774   5.741   6.250
    1   AR   Ar   47   6.051   3.699   6.539
    1   AR   Ar   48   6.369   6.576   6.395
    1   AR   Ar   49   6.428   6.798  -1.733
    1   AR   Ar   50   6.112   5.286   1.688
    1   AR   Ar   51   1.048   5.131   1.490
    1   AR   Ar   52   6.535   5.115  -1.232
    1   AR   Ar   53   5.957   6.121   2.688
    1   AR   Ar   54   6.750   6.561   3.259
    1   AR   Ar   55   6.073   5.153   2.770
    1   AR   Ar   56   0.781   7.094   1.898
    1   AR   Ar   57   6.717   3.250   3.166
    1   AR   Ar   58   6.529   5.807   4.026
    1   AR   Ar   59   1.653   5.532   5.448
    1   AR   Ar   60   0.553   6.736   4.057
    1   AR   Ar   61   5.736   6.115   5.791
    1   AR   Ar   62   0.766   5.758   4.855
    1   AR   Ar   63   1.529   6.451   6.300
    1   AR   Ar   64   0.942   6.669   5.256
    1   AR   Ar   65   3.265   6.797   0.523
    1   AR   Ar   66   1.189   1.062   0.935
    1   AR   Ar   67   3.452   6.183  -0.665
    1   AR   Ar   68   3.137   1.580  -1.593
    1   AR   Ar   69   2.263   0.766   0.844
    1   AR   Ar   70   1.222   1.046   2.039
    1   AR   Ar   71   3.026   0.717   2.995
    1   AR   Ar   72   3.070   0.582   1.811
    1   AR   Ar   73   1.996   7.048   3.554
    1   AR   Ar   74   2.225   0.878   4.581
    1   AR   Ar   75   3.040   0.896   5.143
    1   AR   Ar   76   2.106   1.197   2.526
    1   AR   Ar   77   2.008   6.597   5.383
    1   AR   Ar   78   1.527   0.602   6.466
    1   AR   Ar   79   3.492   6.133   6.912
    1   AR   Ar   80   2.779   5.805   5.625
    1   AR   Ar   81   1.994   1.417  -0.134
    1   AR   Ar   82   0.280   4.087  -0.826
    1   AR   Ar   83   2.349   2.388   1.026
    1   AR   Ar   84   0.542   3.549  -1.902
    1   AR   Ar   85   0.229   2.304   0.089
    1   AR   Ar   86   1.994   3.378   1.829
    1   AR   Ar   87   2.171   2.198   2.034
    1   AR   Ar   88   4.363   4.027   1.584
    1   AR   Ar   89   0.874   3.119   2.172
    1   AR   Ar   90   2.917   1.945   4.449
    1   AR   Ar   91   1.942   2.345   4.001
    1   AR   Ar   92   1.366   2.027   2.824
    1   AR   Ar   93   2.383   1.983   5.417
    1   AR   Ar   94   0.990   1.730   8.245
    1   AR   Ar   95   3.319   6.779   6.013
    1   AR   Ar   96   2.134   0.735   5.557
    1   AR   Ar   97   3.793   2.432  -0.933
    1   AR   Ar   98   2.942   4.222   1.313
    1   AR   Ar   99   6.821   2.602  -1.458
    1   AR   Ar  100   1.803   3.663  -0.190
    1   AR   Ar  101   2.078   3.813   0.895
    1   AR   Ar  102   2.564   3.385   3.734
    1   AR   Ar  103   1.092   4.914   0.343
    1   AR   Ar  104   2.716   2.244  -0.641
    1   AR   Ar  105   1.765   3.317   2.994
    1   AR   Ar  106   2.330   2.970   4.858
    1   AR   Ar  107   2.000   3.931   5.134
    1   AR   Ar  108   3.564   2.949   4.368
    1   AR   Ar  109   1.802   4.182   4.116
    1   AR   Ar  110   1.444   4.516   5.881
    1   AR   Ar  111   4.339   4.830   6.742
    1   AR   Ar  112   0.530   4.989   7.260
    1   AR   Ar  113   2.083   4.598   0.318
    1   AR   Ar  114   2.611   5.562  -0.335
    1   AR   Ar  115   2.900   3.852  -0.589
    1   AR   Ar  116   4.755   6.360  -0.164
    1   AR   Ar  117   0.674   5.576   3.749
    1   AR   Ar  118   0.677   6.754   3.085
    1   AR   Ar  119   2.635   4.139   2.893
    1   AR   Ar  120   1.130   5.778   2.798
    1   AR   Ar  121   6.926   4.455   4.343
    1   AR   Ar  122   2.536   5.876   4.519
    1   AR   Ar  123   2.573   4.916   4.889
    1   AR   Ar  124   2.219   5.679   3.041
    1   AR   Ar  125   0.585   4.409   5.087
    1   AR   Ar  126   0.441   0.421   5.432
    1   AR   Ar  127   2.904   5.411   7.671
    1   AR   Ar  128   2.209   5.318   6.542
    1   AR   Ar  129   1.687   0.063   2.391
    1   AR   Ar  130   3.008   0.995  -3.380
    1   AR   Ar  131   4.412   7.061   0.699
    1   AR   Ar  132   0.739   2.279  -1.460
    1   AR   Ar  133   3.646   7.026   3.365
    1   AR   Ar  134   3.956   1.275   2.791
    1   AR   Ar  135   4.800   0.764   2.715
    1   AR   Ar  136   4.290   0.174   1.809
    1   AR   Ar  137   2.784   6.421   3.562
    1   AR   Ar  138   4.864   1.279   4.989
    1   AR   Ar  139   5.996   1.552   4.954
    1   AR   Ar  140   4.171   0.979   4.052
    1   AR   Ar  141   3.840   6.570   4.241
    1   AR   Ar  142   4.256   0.145   5.515
    1   AR   Ar  143   5.201   7.046   5.913
    1   AR   Ar  144   4.753   0.551   6.670
    1   AR   Ar  145   3.622   3.799   0.402
    1   AR   Ar  146   4.029   2.607   1.661
    1   AR   Ar  147   5.780   2.201  -0.784
    1   AR   Ar  148   4.990   4.534  -2.536
    1   AR   Ar  149   3.261   1.660   1.357
    1   AR   Ar  150   2.546   2.161   3.106
    1   AR   Ar  151   3.536   2.360   3.401
    1   AR   Ar  152   2.729   3.194   0.329
    1   AR   Ar  153   3.145   0.681   4.074
    1   AR   Ar  154   4.038   1.980   4.284
    1   AR   Ar  155   5.563   0.947   5.768
    1   AR   Ar  156   3.428   4.001   3.858
    1   AR   Ar  157   3.323   3.061   5.678
    1   AR   Ar  158   1.165   2.639   7.048
    1   AR   Ar  159   3.575   1.761   5.966
    1   AR   Ar  160   3.445   2.538   7.558
    1   AR   Ar  161   5.596   2.070   0.785
    1   AR   Ar  162   4.528   5.153  -0.499
    1   AR   Ar  163   5.493   3.130   0.193
    1   AR   Ar  164   3.908   4.990   1.077
    1   AR   Ar  165   2.945   3.073   1.397
    1   AR   Ar  166   2.578   5.053   3.865
    1   AR   Ar  167   4.520   2.188   2.854
    1   AR   Ar  168   4.405   3.315  -0.893
    1   AR   Ar  169   2.683   3.083   2.649
    1   AR   Ar  170   3.347   3.892   5.000
    1   AR   Ar  171   4.437   3.792   4.659
    1   AR   Ar  172   4.626   5.357   4.386
    1   AR   Ar  173   1.920   4.055   6.880
    1   AR   Ar  174   3.911   5.355   6.014
    1   AR   Ar  175   4.245   3.708   6.375
    1   AR   Ar  176   3.629   5.149   4.907
    1   AR   Ar  177   5.960   5.866  -0.338
    1   AR   Ar  178   3.080   6.559   1.477
    1   AR   Ar  179   4.026   6.062   0.586
    1   AR   Ar  180   3.940   3.116  -2.838
    1   AR   Ar  181   2.113   5.649   1.434
    1   AR   Ar  182   2.677   6.805   2.413
    1   AR   Ar  183   3.588   5.065   2.218
    1   AR   Ar  184   4.125   6.254   1.547
    1   AR   Ar  185   1.614   5.468   4.356
    1   AR   Ar  186   3.416   5.547   3.699
    1   AR   Ar  187   4.156   5.913   3.101
    1   AR   Ar  188   3.361   6.084   2.522
    1   AR   Ar  189   2.470   4.239   5.951
    1   AR   Ar  190   4.337   6.270   6.331
    1   AR   Ar  191   4.820   5.388   5.471
    1   AR   Ar  192   3.765   6.096   5.166
    1   AR   Ar  193   7.038   6.378   0.039
    1   AR   Ar  194   5.594   4.147  -1.313
    1   AR   Ar  195   6.312   0.436  -0.621
    1   AR   Ar  196   4.583   1.387  -0.856
    1   AR   Ar  197   5.389   0.976   0.450
    1   AR   Ar  198   6.234   1.431   1.428
    1   AR   Ar  199   5.069   1.142   1.478
    1   AR   Ar  200   6.583   1.703   0.439
    1   AR   Ar  201   4.812   6.814   3.619
    1   AR   Ar  202   5.153   2.604   3.936
    1   AR   Ar  203   6.785   6.472   5.121
    1   AR   Ar  204   5.201   0.763   3.935
    1   AR   Ar  205   5.928   0.304   3.352
    1   AR   Ar  206   5.165   0.296   4.893
    1   AR   Ar  207   6.799   0.386   6.092
    1   AR   Ar  208   6.874   0.330   3.892
    1   AR   Ar  209   4.675   2.143  -1.680
    1   AR   Ar  210   3.801   0.698   0.958
    1   AR   Ar  211   6.583   3.226   0.459
    1   AR   Ar  212   6.572   3.893  -1.684
    1   AR   Ar  213   3.206   1.888   2.311
    1   AR   Ar  214   3.661   3.502   2.814
    1   AR   Ar  215   6.143   2.393   2.028
    1   AR   Ar  216   6.719   3.494   1.495
    1   AR   Ar  217   4.543   3.211   3.300
    1   AR   Ar  218   4.549   2.812   4.783
    1   AR   Ar  219   5.265   1.592   3.286
    1   AR   Ar  220   5.270   2.824   2.581
    1   AR   Ar  221   6.283   0.452   4.878
    1   AR   Ar  222   4.772   1.400   6.159
    1   AR   Ar  223   0.040   0.660   7.094
    1   AR   Ar  224   5.172   2.180   5.407
    1   AR   Ar  225   5.405   5.084   0.132
    1   AR   Ar  226   5.116   4.346   2.358
    1   AR   Ar  227   6.433   4.875   0.134
    1   AR   Ar  228   5.059   5.898   1.171
    1   AR   Ar  229   5.909   4.072   0.283
    1   AR   Ar  230   4.557   4.617   3.526
    1   AR   Ar  231   6.715   2.204   3.419
    1   AR   Ar  232   4.593   3.291   0.628
    1   AR   Ar  233   6.341   2.551   4.551
    1   AR   Ar  234   7.060   3.350   4.677
    1   AR   Ar  235   0.328   2.213   4.297
    1   AR   Ar  236   5.291   4.438   4.427
    1   AR   Ar  237   5.813   3.353   4.044
    1   AR   Ar  238   4.756   4.322   5.466
    1   AR   Ar  239   6.298   3.865   9.243
    1   AR   Ar  240   6.905   3.742   5.655
    1   AR   Ar  241   0.220   0.282  -0.271
    1   AR   Ar  242   5.107   4.679   1.236
    1   AR   Ar  243   6.100   3.916   2.419
    1   AR   Ar  244   0.490   4.974  -1.491
    1   AR   Ar  245   5.692   0.254   2.227
    1   AR   Ar  246   6.063   6.445   1.547
    1   AR   Ar  247   5.459   3.388   1.340
    1   AR   Ar  248   5.515   6.789   0.574
    1   AR   Ar  249   5.066   5.452   2.577
    1   AR   Ar  250   4.837   6.406   4.808
    1   AR   Ar  251   5.579   5.392   4.748
    1   AR   Ar  252   5.277   5.672   3.626
    1   AR   Ar  253   5.649   4.782   5.693
    1   AR   Ar  254   5.355   5.154   6.661
    1   AR   Ar  255   5.131   4.216   6.820
    1   AR   Ar  256   5.876   6.876   4.147
    7.12000  7.12000 12.00000
Argon-slab step 1970
  256
    1   AR   Ar    1   6.947   1.734  -0.869
    1   AR   Ar    2   6.273   0.382   1.260
    1   AR   Ar    3   0.077   6.998   0.985
    1   AR   Ar    4   1.253   7.008   0.439
    1   AR   Ar    5   6.590   5.746   0.957
    1   AR   Ar    6   6.978   0.501   2.925
    1   AR   Ar    7   0.002   5.180   2.924
    1   AR   Ar    8   6.784   7.054   2.063
    1   AR   Ar    9   1.029   0.557   4.291
    1   AR   Ar   10   1.206   1.612   4.164
    1   AR   Ar   11   3.011   6.873   4.963
    1   AR   Ar   12   1.317   0.674   3.230
    1   AR   Ar   13   7.051   1.322   4.792
    1   AR   Ar   14   0.711   1.519   6.471
    1   AR   Ar   15   0.027   0.346   9.047
    1   AR   Ar   16   1.427   1.456   5.302
    1   AR   Ar   17   0.535   1.318  -0.064
    1   AR   Ar   18   6.096   3.280  -0.810
    1   AR   Ar   19   1.281   2.008   1.444
    1   AR   Ar   20   6.188   3.658  -2.758
    1   AR   Ar   21   6.036   1.395   2.674
    1   AR   Ar   22   0.011   1.546   2.318
    1   AR   Ar   23   0.233   1.088   0.897
    1   AR   Ar   24   6.975   2.129   1.309
    1   AR   Ar   25   0.302   1.262   3.513
    1   AR   Ar   26   6.478   1.340   4.035
    1   AR   Ar   27   2.155   1.206   3.573
    1   AR   Ar   28   1.339   2.546   4.871
    1   AR   Ar   29   5.678   1.763   6.825
    1   AR   Ar   30   0.843   2.416   5.715
    1   AR   Ar   31   0.740   6.973   6.712
    1   AR   Ar   32   1.922   3.311   5.875
    1   AR   Ar   33   1.989   4.568  -0.764
    1   AR   Ar   34   0.354   5.819   1.482
    1   AR   Ar   35   0.003   4.580   1.352
    1   AR   Ar   36   0.377   6.996  -2.486
    1   AR   Ar   37   7.070   2.710   2.300
    1   AR   Ar   38   0.040   3.930   2.543
    1   AR   Ar   39   1.112   4.254   2.575
    1   AR   Ar   40   1.143   4.041   1.515
    1   AR   Ar   41   0.590   2.828   3.109
    1   AR   Ar   42   6.685   5.425   4.999
    1   AR   Ar   43   6.959   2.701   5.598
    1   AR   Ar   44   0.496   4.324   3.484
    1   AR   Ar   45   1.017   3.506   5.190
    1   AR   Ar   46   0.768   5.722   6.232
    1   AR   Ar   47   6.057   3.701   6.531
    1   AR   Ar   48   6.368   6.557   6.391
    1   AR   Ar   49   6.412   6.831  -1.699
    1   AR   Ar   50   6.126   5.273   1.654
    1   AR   Ar   51   1.050   5.146   1.500
    1   AR   Ar   52   6.532   5.117  -1.210
    1   AR   Ar   53   5.939   6.139   2.684
    1   AR   Ar   54   6.731   6.567   3.228
    1   AR   Ar   55   6.055   5.152   2.787
    1   AR   Ar   56   0.781   7.120   1.928
    1   AR   Ar   57   6.738   3.226   3.131
    1   AR   Ar   58   6.504   5.803   4.038
    1   AR   Ar   59   1.687   5.509   5.436
    1   AR   Ar   60   0.570   6.748   4.050
    1   AR   Ar   61   5.730   6.093   5.799
    1   AR   Ar   62   0.742   5.767   4.834
    1   AR   Ar   63   1.510   6.449   6.328
    1   AR   Ar   64   0.936   6.655   5.267
    1   AR   Ar   65   3.279   6.791   0.502
    1   AR   Ar   66   1.218   1.052   0.964
    1   AR   Ar   67   3.449   6.186  -0.689
    1   AR   Ar   68   3.133   1.589  -1.593
    1   AR   Ar   69   2.276   0.805   0.862
    1   AR   Ar   70   1.248   1.058   2.050
    1   AR   Ar   71   3.011   0.741   3.001
    1   AR   Ar   72   3.089   0.580   1.806
    1   AR   Ar   73   2.006   7.060   3.558
    1   AR   Ar   74   2.244   0.851   4.583
    1   AR   Ar   75   3.002   0.892   5.155
    1   AR   Ar   76   2.128   1.204   2.540
    1   AR   Ar   77   1.993   6.603   5.377
    1   AR   Ar   78   1.526   0.598   6.502
    1   AR   Ar   79   3.487   6.115   6.907
    1   AR   Ar   80   2.791   5.798   5.626
    1   AR   Ar   81   1.990   1.375  -0.126
    1   AR   Ar   82   0.284   4.136  -0.797
    1   AR   Ar   83   2.346   2.390   1.037
    1   AR   Ar   84   0.524   3.545  -1.881
    1   AR   Ar   85   0.227   2.313   0.075
    1   AR   Ar   86   1.987   3.358   1.812
    1   AR   Ar   87   2.176   2.200   2.047
    1   AR   Ar   88   4.354   4.050   1.565
    1   AR   Ar   89   0.861   3.107   2.138
    1   AR   Ar   90   2.907   1.931   4.476
    1   AR   Ar   91   1.955   2.337   3.984
    1   AR   Ar   92   1.385   2.008   2.827
    1   AR   Ar   93   2.411   2.004   5.446
    1   AR   Ar   94   0.981   1.746   8.250
    1   AR   Ar   95   3.298   6.793   6.003
    1   AR   Ar   96   2.158   0.742   5.583
    1   AR   Ar   97   3.794   2.456  -0.900
    1   AR   Ar   98   2.965   4.243   1.324
    1   AR   Ar   99   6.803   2.618  -1.463
    1   AR   Ar  100   1.816   3.686  -0.156
    1   AR   Ar  101   2.089   3.820   0.913
    1   AR   Ar  102   2.556   3.367   3.727
    1   AR   Ar  103   1.091   4.913   0.341
    1   AR   Ar  104   2.743   2.265  -0.646
    1   AR   Ar  105   1.776   3.318   2.973
    1   AR   Ar  106   2.346   2.981   4.865
    1   AR   Ar  107   1.993   3.955   5.151
    1   AR   Ar  108   3.564   2.963   4.363
    1   AR   Ar  109   1.829   4.173   4.128
    1   AR   Ar  110   1.456   4.487   5.827
    1   AR   Ar  111   4.339   4.818   6.729
    1   AR   Ar  112   0.540   4.987   7.244
    1   AR   Ar  113   2.085   4.600   0.300
    1   AR   Ar  114   2.610   5.535  -0.367
    1   AR   Ar  115   2.903   3.838  -0.574
    1   AR   Ar  116   4.735   6.348  -0.165
    1   AR   Ar  117   0.679   5.598   3.735
    1   AR   Ar  118   0.669   6.734   3.066
    1   AR   Ar  119   2.611   4.126   2.884
    1   AR   Ar  120   1.123   5.780   2.812
    1   AR   Ar  121   6.923   4.465   4.349
    1   AR   Ar  122   2.563   5.852   4.533
    1   AR   Ar  123   2.559   4.868   4.913
    1   AR   Ar  124   2.218   5.660   3.045
    1   AR   Ar  125   0.572   4.397   5.096
    1   AR   Ar  126   0.447   0.421   5.409
    1   AR   Ar  127   2.923   5.392   7.690
    1   AR   Ar  128   2.192   5.322   6.530
    1   AR   Ar  129   1.682   0.052   2.408
    1   AR   Ar  130   2.989   1.039  -3.404
    1   AR   Ar  131   4.427   7.064   0.671
    1   AR   Ar  132   0.736   2.291  -1.475
    1   AR   Ar  133   3.661   7.040   3.420
    1   AR   Ar  134   3.957   1.252   2.805
    1   AR   Ar  135   4.822   0.775   2.720
    1   AR   Ar  136   4.290   0.157   1.814
    1   AR   Ar  137   2.794   6.425   3.550
    1   AR   Ar  138   4.882   1.277   4.975
    1   AR   Ar  139   5.988   1.575   4.947
    1   AR   Ar  140   4.185   0.983   4.086
    1   AR   Ar  141   3.834   6.530   4.232
    1   AR   Ar  142   4.238   0.153   5.538
    1   AR   Ar  143   5.196   7.030   5.927
    1   AR   Ar  144   4.757   0.530   6.663
    1   AR   Ar  145   3.609   3.789   0.420
    1   AR   Ar  146   4.004   2.596   1.647
    1   AR   Ar  147   5.742   2.230  -0.784
    1   AR   Ar  148   4.962   4.572  -2.551
    1   AR   Ar  149   3.226   1.647   1.370
    1   AR   Ar  150   2.531   2.122   3.097
    1   AR   Ar  151   3.523   2.345   3.406
    1   AR   Ar  152   2.745   3.184   0.341
    1   AR   Ar  153   3.151   0.684   4.106
    1   AR   Ar  154   4.026   1.985   4.270
    1   AR   Ar  155   5.580   0.991   5.786
    1   AR   Ar  156   3.382   4.037   3.889
    1   AR   Ar  157   3.359   3.090   5.695
    1   AR   Ar  158   1.141   2.604   7.072
    1   AR   Ar  159   3.577   1.806   5.961
    1   AR   Ar  160   3.466   2.529   7.552
    1   AR   Ar  161   5.605   2.087   0.792
    1   AR   Ar  162   4.532   5.139  -0.502
    1   AR   Ar  163   5.485   3.125   0.183
    1   AR   Ar  164   3.895   4.995   1.068
    1   AR   Ar  165   2.941   3.070   1.371
    1   AR   Ar  166   2.577   5.024   3.864
    1   AR   Ar  167   4.544   2.175   2.852
    1   AR   Ar  168   4.414   3.318  -0.879
    1   AR   Ar  169   2.681   3.114   2.633
    1   AR   Ar  170   3.326   3.911   5.032
    1   AR   Ar  171   4.427   3.796   4.661
    1   AR   Ar  172   4.637   5.346   4.378
    1   AR   Ar  173   1.939   4.052   6.874
    1   AR   Ar  174   3.917   5.364   6.030
    1   AR   Ar  175   4.248   3.693   6.376
    1   AR   Ar  176   3.641   5.157   4.893
    1   AR   Ar  177   5.953   5.847  -0.325
    1   AR   Ar  178   3.097   6.533   1.445
    1   AR   Ar  179   4.010   6.011   0.582
    1   AR   Ar  180   3.952   3.081  -2.856
    1   AR   Ar  181   2.103   5.683   1.430
    1   AR   Ar  182   2.704   6.830   2.416
    1   AR   Ar  183   3.599   5.017   2.220
    1   AR   Ar  184   4.111   6.233   1.538
    1   AR   Ar  185   1.627   5.465   4.346
    1   AR   Ar  186   3.425   5.563   3.715
    1   AR   Ar  187   4.176   5.942   3.096
    1   AR   Ar  188   3.347   6.100   2.518
    1   AR   Ar  189   2.496   4.208   5.977
    1   AR   Ar  190   4.363   6.253   6.307
    1   AR   Ar  191   4.806   5.385   5.468
    1   AR   Ar  192   3.759   6.115   5.178
    1   AR   Ar  193   7.059   6.364   0.028
    1   AR   Ar  194   5.601   4.166  -1.341
    1   AR   Ar  195   6.315   0.442  -0.590
    1   AR   Ar  196   4.555   1.400  -0.828
    1   AR   Ar  197   5.385   0.992   0.445
    1   AR   Ar  198   6.226   1.426   1.430
    1   AR   Ar  199   5.053   1.185   1.472
    1   AR   Ar  200   6.600   1.711   0.427
    1   AR   Ar  201   4.845   6.855   3.594
    1   AR   Ar  202   5.166   2.618   3.943
    1   AR   Ar  203   6.783   6.500   5.153
    1   AR   Ar  204   5.184   0.739   3.909
    1   AR   Ar  205   5.924   0.296   3.317
    1   AR   Ar  206   5.177   0.321   4.863
    1   AR   Ar  207   6.768   0.409   6.077
    1   AR   Ar  208   6.880   0.298   3.903
    1   AR   Ar  209   4.682   2.154  -1.679
    1   AR   Ar  210   3.808   0.713   0.951
    1   AR   Ar  211   6.579   3.235   0.465
    1   AR   Ar  212   6.558   3.888  -1.696
    1   AR   Ar  213   3.193   1.891   2.344
    1   AR   Ar  214   3.632   3.531   2.802
    1   AR   Ar  215   6.106   2.394   2.000
    1   AR   Ar  216   6.722   3.511   1.487
    1   AR   Ar  217   4.571   3.189   3.302
    1   AR   Ar  218   4.524   2.823   4.805
    1   AR   Ar  219   5.275   1.600   3.301
    1   AR   Ar  220   5.291   2.777   2.596
    1   AR   Ar  221   6.286   0.482   4.873
    1   AR   Ar  222   4.777   1.374   6.129
    1   AR   Ar  223   0.042   0.642   7.083
    1   AR   Ar  224   5.179   2.191   5.401
    1   AR   Ar  225   5.411   5.122   0.156
    1   AR   Ar  226   5.109   4.332   2.363
    1   AR   Ar  227   6.440   4.837   0.111
    1   AR   Ar  228   5.058   5.882   1.160
    1   AR   Ar  229   5.919   4.037   0.254
    1   AR   Ar  230   4.559   4.590   3.554
    1   AR   Ar  231   6.685   2.193   3.387
    1   AR   Ar  232   4.607   3.299   0.638
    1   AR   Ar  233   6.338   2.554   4.572
    1   AR   Ar  234   7.068   3.369   4.696
    1   AR   Ar  235   0.337   2.212   4.283
    1   AR   Ar  236   5.297   4.429   4.455
    1   AR   Ar  237   5.802   3.392   4.036
    1   AR   Ar  238   4.742   4.330   5.471
    1   AR   Ar  239   6.325   3.865   9.240
    1   AR   Ar  240   6.921   3.763   5.633
    1   AR   Ar  241   0.238   0.278  -0.222
    1   AR   Ar  242   5.121   4.661   1.236
    1   AR   Ar  243   6.125   3.907   2.442
    1   AR   Ar  244   0.499   4.962  -1.512
    1   AR   Ar  245   5.707   0.290   2.254
    1   AR   Ar  246   6.037   6.431   1.515
    1   AR   Ar  247   5.511   3.361   1.305
    1   AR   Ar  248   5.493   6.771   0.577
    1   AR   Ar  249   5.098   5.425   2.551
    1   AR   Ar  250   4.839   6.386   4.843
    1   AR   Ar  251   5.566   5.389   4.758
    1   AR   Ar  252   5.264   5.653   3.628
    1   AR   Ar  253   5.627   4.780   5.696
    1   AR   Ar  254   5.340   5.139   6.648
    1   AR   Ar  255   5.100   4.205   6.847
    1   AR   Ar  256   5.886   6.854   4.128
    7.12000  7.12000 12.00000
Argon-slab step 1975
  256
    1   AR   Ar    1   6.920   1.742  -0.869
    1   AR   Ar    2   6.297   0.390   1.256
    1   AR   Ar    3   0.068   7.002   0.984
    1   AR   Ar    4   1.243   7.011   0.429
    1   AR   Ar    5   6.589   5.741   0.955
    1   AR   Ar    6   6.957   0.515   2.915
    1   AR   Ar    7   7.106   5.174   2.934
    1   AR   Ar    8   6.773   7.050   2.056
    1   AR   Ar    9   1.019   0.549   4.318
    1   AR   Ar   10   1.210   1.579   4.195
    1   AR   Ar   11   3.020   6.861   4.942
    1   AR   Ar   12   1.326   0.691   3.226
    1   AR   Ar   13   7.027   1.309   4.798
    1   AR   Ar   14   0.726   1.538   6.458
    1   AR   Ar   15   0.043   0.359   9.066
    1   AR   Ar   16   1.470   1.433   5.303
    1   AR   Ar   17   0.563   1.265  -0.071
    1   AR   Ar   18   6.089   3.258  -0.780
    1   AR   Ar   19   1.295   2.022   1.426
    1   AR   Ar   20   6.169   3.700  -2.764
    1   AR   Ar   21   6.067   1.384   2.642
    1   AR   Ar   22   7.109   1.544   2.306
    1   AR   Ar   23   0.235   1.101   0.932
    1   AR   Ar   24   7.012   2.142   1.334
    1   AR   Ar   25   0.283   1.256   3.530
    1   AR   Ar   26   6.471   1.353   4.006
    1   AR   Ar   27   2.165   1.210   3.570
    1   AR   Ar   28   1.347   2.555   4.834
    1   AR   Ar   29   5.682   1.768   6.835
    1   AR   Ar   30   0.839   2.398   5.715
    1   AR   Ar   31   0.741   6.985   6.725
    1   AR   Ar   32   1.902   3.305   5.899
    1   AR   Ar   33   1.975   4.570  -0.768
    1   AR   Ar   34   0.356   5.824   1.448
    1   AR   Ar   35   7.091   4.632   1.359
    1   AR   Ar   36   0.375   7.017  -2.531
    1   AR   Ar   37   7.065   2.731   2.280
    1   AR   Ar   38   0.021   3.923   2.528
    1   AR   Ar   39   1.093   4.265   2.593
    1   AR   Ar   40   1.173   4.056   1.514
    1   AR   Ar   41   0.595   2.809   3.115
    1   AR   Ar   42   6.685   5.403   4.992
    1   AR   Ar   43   6.960   2.684   5.612
    1   AR   Ar   44   0.514   4.324   3.493
    1   AR   Ar   45   0.989   3.504   5.201
    1   AR   Ar   46   0.786   5.736   6.244
    1   AR   Ar   47   6.062   3.705   6.521
    1   AR   Ar   48   6.375   6.543   6.393
    1   AR   Ar   49   6.397   6.865  -1.664
    1   AR   Ar   50   6.130   5.251   1.634
    1   AR   Ar   51   1.064   5.149   1.510
    1   AR   Ar   52   6.528   5.118  -1.188
    1   AR   Ar   53   5.917   6.166   2.678
    1   AR   Ar   54   6.714   6.574   3.199
    1   AR   Ar   55   6.057   5.157   2.809
    1   AR   Ar   56   0.787   0.014   1.958
    1   AR   Ar   57   6.751   3.204   3.105
    1   AR   Ar   58   6.478   5.800   4.047
    1   AR   Ar   59   1.722   5.486   5.425
    1   AR   Ar   60   0.585   6.756   4.055
    1   AR   Ar   61   5.726   6.085   5.779
    1   AR   Ar   62   0.713   5.769   4.812
    1   AR   Ar   63   1.500   6.446   6.354
    1   AR   Ar   64   0.932   6.641   5.282
    1   AR   Ar   65   3.294   6.790   0.471
    1   AR   Ar   66   1.258   1.040   0.992
    1   AR   Ar   67   3.455   6.172  -0.711
    1   AR   Ar   68   3.129   1.598  -1.593
    1   AR   Ar   69   2.292   0.845   0.882
    1   AR   Ar   70   1.268   1.069   2.061
    1   AR   Ar   71   2.995   0.764   3.006
    1   AR   Ar   72   3.108   0.578   1.802
    1   AR   Ar   73   2.013   7.075   3.562
    1   AR   Ar   74   2.237   0.856   4.546
    1   AR   Ar   75   2.998   0.894   5.172
    1   AR   Ar   76   2.156   1.212   2.552
    1   AR   Ar   77   1.993   6.618   5.403
    1   AR   Ar   78   1.524   0.595   6.537
    1   AR   Ar   79   3.480   6.095   6.901
    1   AR   Ar   80   2.803   5.790   5.632
    1   AR   Ar   81   1.985   1.334  -0.117
    1   AR   Ar   82   0.286   4.184  -0.769
    1   AR   Ar   83   2.332   2.381   1.039
    1   AR   Ar   84   0.505   3.540  -1.858
    1   AR   Ar   85   0.228   2.329   0.061
    1   AR   Ar   86   1.977   3.333   1.803
    1   AR   Ar   87   2.180   2.202   2.064
    1   AR   Ar   88   4.353   4.040   1.550
    1   AR   Ar   89   0.857   3.100   2.099
    1   AR   Ar   90   2.896   1.917   4.501
    1   AR   Ar   91   1.946   2.329   3.989
    1   AR   Ar   92   1.403   1.989   2.830
    1   AR   Ar   93   2.438   2.025   5.474
    1   AR   Ar   94   0.972   1.763   8.255
    1   AR   Ar   95   3.277   6.805   5.993
    1   AR   Ar   96   2.165   0.743   5.625
    1   AR   Ar   97   3.794   2.477  -0.868
    1   AR   Ar   98   2.992   4.265   1.336
    1   AR   Ar   99   6.817   2.607  -1.477
    1   AR   Ar  100   1.828   3.705  -0.122
    1   AR   Ar  101   2.097   3.820   0.932
    1   AR   Ar  102   2.548   3.346   3.721
    1   AR   Ar  103   1.079   4.888   0.355
    1   AR   Ar  104   2.769   2.286  -0.650
    1   AR   Ar  105   1.775   3.321   2.954
    1   AR   Ar  106   2.375   2.979   4.882
    1   AR   Ar  107   1.989   3.984   5.147
    1   AR   Ar  108   3.580   2.957   4.354
    1   AR   Ar  109   1.856   4.164   4.137
    1   AR   Ar  110   1.464   4.461   5.778
    1   AR   Ar  111   4.332   4.805   6.723
    1   AR   Ar  112   0.551   4.986   7.226
    1   AR   Ar  113   2.093   4.612   0.279
    1   AR   Ar  114   2.607   5.507  -0.398
    1   AR   Ar  115   2.905   3.825  -0.556
    1   AR   Ar  116   4.717   6.335  -0.165
    1   AR   Ar  117   0.681   5.619   3.725
    1   AR   Ar  118   0.669   6.701   3.072
    1   AR   Ar  119   2.588   4.115   2.877
    1   AR   Ar  120   1.119   5.780   2.821
    1   AR   Ar  121   6.934   4.494   4.362
    1   AR   Ar  122   2.596   5.835   4.549
    1   AR   Ar  123   2.542   4.818   4.943
    1   AR   Ar  124   2.218   5.641   3.048
    1   AR   Ar  125   0.557   4.393   5.106
    1   AR   Ar  126   0.452   0.426   5.383
    1   AR   Ar  127   2.942   5.373   7.707
    1   AR   Ar  128   2.175   5.327   6.515
    1   AR   Ar  129   1.682   0.042   2.429
    1   AR   Ar  130   2.971   1.084  -3.427
    1   AR   Ar  131   4.444   7.062   0.644
    1   AR   Ar  132   0.732   2.304  -1.490
    1   AR   Ar  133   3.675   7.061   3.462
    1   AR   Ar  134   3.949   1.234   2.822
    1   AR   Ar  135   4.854   0.780   2.725
    1   AR   Ar  136   4.290   0.141   1.820
    1   AR   Ar  137   2.831   6.422   3.523
    1   AR   Ar  138   4.895   1.280   4.959
    1   AR   Ar  139   5.978   1.597   4.941
    1   AR   Ar  140   4.198   0.984   4.120
    1   AR   Ar  141   3.817   6.491   4.255
    1   AR   Ar  142   4.217   0.160   5.560
    1   AR   Ar  143   5.194   7.012   5.939
    1   AR   Ar  144   4.759   0.503   6.660
    1   AR   Ar  145   3.597   3.781   0.440
    1   AR   Ar  146   3.977   2.586   1.635
    1   AR   Ar  147   5.714   2.251  -0.782
    1   AR   Ar  148   4.948   4.575  -2.555
    1   AR   Ar  149   3.190   1.632   1.375
    1   AR   Ar  150   2.510   2.083   3.091
    1   AR   Ar  151   3.512   2.333   3.408
    1   AR   Ar  152   2.759   3.172   0.348
    1   AR   Ar  153   3.159   0.685   4.135
    1   AR   Ar  154   4.018   2.000   4.290
    1   AR   Ar  155   5.596   1.016   5.797
    1   AR   Ar  156   3.336   4.075   3.920
    1   AR   Ar  157   3.395   3.117   5.712
    1   AR   Ar  158   1.117   2.568   7.094
    1   AR   Ar  159   3.580   1.851   5.954
    1   AR   Ar  160   3.487   2.520   7.547
    1   AR   Ar  161   5.614   2.104   0.799
    1   AR   Ar  162   4.536   5.127  -0.504
    1   AR   Ar  163   5.481   3.110   0.168
    1   AR   Ar  164   3.883   5.000   1.060
    1   AR   Ar  165   2.950   3.080   1.355
    1   AR   Ar  166   2.571   4.987   3.861
    1   AR   Ar  167   4.556   2.159   2.851
    1   AR   Ar  168   4.445   3.340  -0.874
    1   AR   Ar  169   2.688   3.135   2.610
    1   AR   Ar  170   3.335   3.914   5.027
    1   AR   Ar  171   4.411   3.808   4.654
    1   AR   Ar  172   4.635   5.333   4.371
    1   AR   Ar  173   1.954   4.056   6.854
    1   AR   Ar  174   3.912   5.377   6.035
    1   AR   Ar  175   4.250   3.679   6.375
    1   AR   Ar  176   3.653   5.156   4.876
    1   AR   Ar  177   5.950   5.833  -0.314
    1   AR   Ar  178   3.112   6.506   1.422
    1   AR   Ar  179   3.994   5.954   0.568
    1   AR   Ar  180   3.964   3.046  -2.874
    1   AR   Ar  181   2.079   5.679   1.411
    1   AR   Ar  182   2.724   6.866   2.422
    1   AR   Ar  183   3.610   4.952   2.238
    1   AR   Ar  184   4.099   6.214   1.541
    1   AR   Ar  185   1.638   5.459   4.332
    1   AR   Ar  186   3.439   5.580   3.734
    1   AR   Ar  187   4.205   5.971   3.093
    1   AR   Ar  188   3.334   6.113   2.512
    1   AR   Ar  189   2.531   4.182   6.007
    1   AR   Ar  190   4.393   6.241   6.280
    1   AR   Ar  191   4.788   5.390   5.465
    1   AR   Ar  192   3.756   6.138   5.198
    1   AR   Ar  193   7.078   6.350   0.018
    1   AR   Ar  194   5.606   4.187  -1.367
    1   AR   Ar  195   6.318   0.449  -0.559
    1   AR   Ar  196   4.527   1.414  -0.800
    1   AR   Ar  197   5.340   0.976   0.465
    1   AR   Ar  198   6.215   1.418   1.434
    1   AR   Ar  199   5.037   1.227   1.468
    1   AR   Ar  200   6.611   1.714   0.412
    1   AR   Ar  201   4.878   6.895   3.569
    1   AR   Ar  202   5.170   2.634   3.974
    1   AR   Ar  203   6.783   6.531   5.184
    1   AR   Ar  204   5.168   0.716   3.884
    1   AR   Ar  205   5.922   0.288   3.275
    1   AR   Ar  206   5.192   0.338   4.836
    1   AR   Ar  207   6.733   0.433   6.062
    1   AR   Ar  208   6.883   0.267   3.925
    1   AR   Ar  209   4.688   2.165  -1.676
    1   AR   Ar  210   3.813   0.740   0.960
    1   AR   Ar  211   6.571   3.235   0.470
    1   AR   Ar  212   6.547   3.883  -1.708
    1   AR   Ar  213   3.184   1.896   2.383
    1   AR   Ar  214   3.605   3.560   2.792
    1   AR   Ar  215   6.069   2.393   1.969
    1   AR   Ar  216   6.724   3.527   1.483
    1   AR   Ar  217   4.595   3.170   3.304
    1   AR   Ar  218   4.501   2.824   4.829
    1   AR   Ar  219   5.283   1.611   3.322
    1   AR   Ar  220   5.320   2.737   2.610
    1   AR   Ar  221   6.304   0.501   4.863
    1   AR   Ar  222   4.764   1.364   6.099
    1   AR   Ar  223   0.046   0.625   7.072
    1   AR   Ar  224   5.189   2.203   5.397
    1   AR   Ar  225   5.412   5.157   0.185
    1   AR   Ar  226   5.102   4.319   2.367
    1   AR   Ar  227   6.459   4.815   0.086
    1   AR   Ar  228   5.059   5.864   1.146
    1   AR   Ar  229   5.920   3.997   0.227
    1   AR   Ar  230   4.562   4.563   3.582
    1   AR   Ar  231   6.656   2.181   3.353
    1   AR   Ar  232   4.614   3.309   0.653
    1   AR   Ar  233   6.335   2.555   4.592
    1   AR   Ar  234   7.079   3.387   4.710
    1   AR   Ar  235   0.343   2.213   4.268
    1   AR   Ar  236   5.302   4.417   4.483
    1   AR   Ar  237   5.789   3.426   4.026
    1   AR   Ar  238   4.751   4.329   5.471
    1   AR   Ar  239   6.352   3.865   9.237
    1   AR   Ar  240   6.937   3.789   5.615
    1   AR   Ar  241   0.256   0.274  -0.172
    1   AR   Ar  242   5.140   4.647   1.235
    1   AR   Ar  243   6.147   3.897   2.465
    1   AR   Ar  244   0.508   4.949  -1.532
    1   AR   Ar  245   5.723   0.326   2.279
    1   AR   Ar  246   6.008   6.420   1.486
    1   AR   Ar  247   5.566   3.335   1.269
    1   AR   Ar  248   5.472   6.754   0.581
    1   AR   Ar  249   5.123   5.400   2.522
    1   AR   Ar  250   4.841   6.365   4.879
    1   AR   Ar  251   5.566   5.392   4.768
    1   AR   Ar  252   5.249   5.652   3.624
    1   AR   Ar  253   5.602   4.802   5.716
    1   AR   Ar  254   5.326   5.129   6.628
    1   AR   Ar  255   5.077   4.176   6.877
    1   AR   Ar  256   5.892   6.830   4.117
    7.12000  7.12000 12.00000
Argon-slab step 1980
  256
    1   AR   Ar    1   6.893   1.749  -0.865
    1   AR   Ar    2   6.316   0.398   1.248
    1   AR   Ar    3   0.065   7.009   0.982
    1   AR   Ar    4   1.247   7.016   0.423
    1   AR   Ar    5   6.595   5.725   0.932
    1   AR   Ar    6   6.938   0.529   2.907
    1   AR   Ar    7   7.093   5.169   2.944
    1   AR   Ar    8   6.761   7.039   2.053
    1   AR   Ar    9   1.009   0.543   4.346
    1   AR   Ar   10   1.216   1.547   4.225
    1   AR   Ar   11   3.026   6.852   4.918
    1   AR   Ar   12   1.292   0.698   3.218
    1   AR   Ar   13   7.027   1.316   4.834
    1   AR   Ar   14   0.743   1.557   6.445
    1   AR   Ar   15   0.058   0.372   9.084
    1   AR   Ar   16   1.509   1.414   5.302
    1   AR   Ar   17   0.592   1.217  -0.078
    1   AR   Ar   18   6.083   3.238  -0.751
    1   AR   Ar   19   1.284   2.045   1.422
    1   AR   Ar   20   6.149   3.742  -2.769
    1   AR   Ar   21   6.099   1.371   2.609
    1   AR   Ar   22   7.096   1.584   2.329
    1   AR   Ar   23   0.230   1.112   0.970
    1   AR   Ar   24   7.050   2.156   1.360
    1   AR   Ar   25   0.260   1.259   3.506
    1   AR   Ar   26   6.452   1.363   3.964
    1   AR   Ar   27   2.174   1.214   3.559
    1   AR   Ar   28   1.357   2.562   4.794
    1   AR   Ar   29   5.686   1.772   6.843
    1   AR   Ar   30   0.837   2.378   5.720
    1   AR   Ar   31   0.734   7.000   6.738
    1   AR   Ar   32   1.880   3.294   5.928
    1   AR   Ar   33   1.955   4.576  -0.784
    1   AR   Ar   34   0.352   5.838   1.426
    1   AR   Ar   35   7.060   4.684   1.366
    1   AR   Ar   36   0.372   7.038  -2.576
    1   AR   Ar   37   7.053   2.744   2.252
    1   AR   Ar   38   0.017   3.921   2.507
    1   AR   Ar   39   1.077   4.276   2.609
    1   AR   Ar   40   1.202   4.069   1.513
    1   AR   Ar   41   0.601   2.780   3.121
    1   AR   Ar   42   6.687   5.381   4.989
    1   AR   Ar   43   6.957   2.667   5.625
    1   AR   Ar   44   0.530   4.324   3.503
    1   AR   Ar   45   0.964   3.493   5.215
    1   AR   Ar   46   0.800   5.744   6.253
    1   AR   Ar   47   6.068   3.708   6.510
    1   AR   Ar   48   6.388   6.525   6.399
    1   AR   Ar   49   6.383   6.899  -1.628
    1   AR   Ar   50   6.123   5.219   1.630
    1   AR   Ar   51   1.087   5.143   1.521
    1   AR   Ar   52   6.525   5.118  -1.163
    1   AR   Ar   53   5.891   6.199   2.669
    1   AR   Ar   54   6.699   6.582   3.172
    1   AR   Ar   55   6.065   5.164   2.836
    1   AR   Ar   56   0.793   0.021   1.985
    1   AR   Ar   57   6.754   3.183   3.092
    1   AR   Ar   58   6.451   5.799   4.052
    1   AR   Ar   59   1.757   5.465   5.415
    1   AR   Ar   60   0.601   6.757   4.073
    1   AR   Ar   61   5.715   6.070   5.750
    1   AR   Ar   62   0.680   5.766   4.788
    1   AR   Ar   63   1.502   6.442   6.376
    1   AR   Ar   64   0.930   6.629   5.299
    1   AR   Ar   65   3.312   6.792   0.433
    1   AR   Ar   66   1.301   1.025   1.016
    1   AR   Ar   67   3.463   6.158  -0.731
    1   AR   Ar   68   3.126   1.609  -1.591
    1   AR   Ar   69   2.311   0.884   0.902
    1   AR   Ar   70   1.282   1.080   2.073
    1   AR   Ar   71   2.980   0.783   3.012
    1   AR   Ar   72   3.127   0.577   1.799
    1   AR   Ar   73   2.019   7.093   3.566
    1   AR   Ar   74   2.214   0.861   4.505
    1   AR   Ar   75   3.020   0.901   5.190
    1   AR   Ar   76   2.186   1.219   2.558
    1   AR   Ar   77   1.997   6.633   5.427
    1   AR   Ar   78   1.522   0.592   6.570
    1   AR   Ar   79   3.472   6.074   6.894
    1   AR   Ar   80   2.814   5.780   5.642
    1   AR   Ar   81   1.980   1.293  -0.107
    1   AR   Ar   82   0.286   4.231  -0.742
    1   AR   Ar   83   2.311   2.363   1.035
    1   AR   Ar   84   0.484   3.535  -1.834
    1   AR   Ar   85   0.231   2.349   0.045
    1   AR   Ar   86   1.965   3.303   1.801
    1   AR   Ar   87   2.184   2.207   2.082
    1   AR   Ar   88   4.352   4.034   1.544
    1   AR   Ar   89   0.853   3.100   2.098
    1   AR   Ar   90   2.886   1.902   4.524
    1   AR   Ar   91   1.940   2.323   3.991
    1   AR   Ar   92   1.410   1.984   2.822
    1   AR   Ar   93   2.464   2.045   5.503
    1   AR   Ar   94   0.962   1.779   8.259
    1   AR   Ar   95   3.249   6.793   5.992
    1   AR   Ar   96   2.160   0.737   5.679
    1   AR   Ar   97   3.796   2.496  -0.838
    1   AR   Ar   98   3.021   4.286   1.348
    1   AR   Ar   99   6.827   2.601  -1.491
    1   AR   Ar  100   1.840   3.718  -0.090
    1   AR   Ar  101   2.107   3.819   0.948
    1   AR   Ar  102   2.541   3.323   3.717
    1   AR   Ar  103   1.065   4.863   0.370
    1   AR   Ar  104   2.792   2.306  -0.653
    1   AR   Ar  105   1.762   3.324   2.936
    1   AR   Ar  106   2.406   2.978   4.899
    1   AR   Ar  107   1.993   3.999   5.123
    1   AR   Ar  108   3.594   2.930   4.368
    1   AR   Ar  109   1.884   4.157   4.142
    1   AR   Ar  110   1.460   4.447   5.745
    1   AR   Ar  111   4.318   4.792   6.722
    1   AR   Ar  112   0.534   5.024   7.207
    1   AR   Ar  113   2.107   4.633   0.259
    1   AR   Ar  114   2.604   5.478  -0.429
    1   AR   Ar  115   2.906   3.812  -0.537
    1   AR   Ar  116   4.699   6.320  -0.165
    1   AR   Ar  117   0.679   5.639   3.720
    1   AR   Ar  118   0.671   6.672   3.067
    1   AR   Ar  119   2.564   4.111   2.872
    1   AR   Ar  120   1.117   5.779   2.823
    1   AR   Ar  121   6.942   4.524   4.372
    1   AR   Ar  122   2.633   5.822   4.566
    1   AR   Ar  123   2.529   4.772   4.973
    1   AR   Ar  124   2.218   5.623   3.050
    1   AR   Ar  125   0.541   4.400   5.115
    1   AR   Ar  126   0.456   0.437   5.355
    1   AR   Ar  127   2.961   5.355   7.722
    1   AR   Ar  128   2.157   5.330   6.498
    1   AR   Ar  129   1.688   0.033   2.454
    1   AR   Ar  130   2.952   1.128  -3.451
    1   AR   Ar  131   4.460   7.057   0.617
    1   AR   Ar  132   0.729   2.317  -1.504
    1   AR   Ar  133   3.691   7.091   3.494
    1   AR   Ar  134   3.936   1.218   2.840
    1   AR   Ar  135   4.904   0.776   2.744
    1   AR   Ar  136   4.289   0.127   1.826
    1   AR   Ar  137   2.869   6.418   3.496
    1   AR   Ar  138   4.904   1.290   4.943
    1   AR   Ar  139   5.968   1.617   4.935
    1   AR   Ar  140   4.208   0.982   4.152
    1   AR   Ar  141   3.805   6.448   4.279
    1   AR   Ar  142   4.196   0.167   5.580
    1   AR   Ar  143   5.196   6.993   5.947
    1   AR   Ar  144   4.764   0.490   6.625
    1   AR   Ar  145   3.588   3.776   0.462
    1   AR   Ar  146   3.949   2.575   1.623
    1   AR   Ar  147   5.724   2.238  -0.773
    1   AR   Ar  148   4.942   4.554  -2.552
    1   AR   Ar  149   3.152   1.617   1.377
    1   AR   Ar  150   2.483   2.050   3.091
    1   AR   Ar  151   3.500   2.322   3.408
    1   AR   Ar  152   2.763   3.147   0.373
    1   AR   Ar  153   3.163   0.686   4.149
    1   AR   Ar  154   4.013   2.013   4.311
    1   AR   Ar  155   5.605   1.018   5.801
    1   AR   Ar  156   3.292   4.114   3.950
    1   AR   Ar  157   3.431   3.140   5.730
    1   AR   Ar  158   1.092   2.531   7.116
    1   AR   Ar  159   3.582   1.897   5.945
    1   AR   Ar  160   3.507   2.511   7.541
    1   AR   Ar  161   5.624   2.123   0.807
    1   AR   Ar  162   4.539   5.115  -0.505
    1   AR   Ar  163   5.479   3.083   0.149
    1   AR   Ar  164   3.871   5.003   1.055
    1   AR   Ar  165   2.968   3.098   1.350
    1   AR   Ar  166   2.563   4.947   3.858
    1   AR   Ar  167   4.553   2.139   2.850
    1   AR   Ar  168   4.478   3.362  -0.869
    1   AR   Ar  169   2.702   3.144   2.581
    1   AR   Ar  170   3.343   3.920   5.019
    1   AR   Ar  171   4.391   3.825   4.640
    1   AR   Ar  172   4.621   5.320   4.366
    1   AR   Ar  173   1.971   4.050   6.842
    1   AR   Ar  174   3.895   5.392   6.031
    1   AR   Ar  175   4.251   3.666   6.372
    1   AR   Ar  176   3.663   5.152   4.859
    1   AR   Ar  177   5.953   5.825  -0.306
    1   AR   Ar  178   3.122   6.478   1.407
    1   AR   Ar  179   3.978   5.898   0.546
    1   AR   Ar  180   3.976   3.010  -2.891
    1   AR   Ar  181   2.055   5.675   1.392
    1   AR   Ar  182   2.735   6.913   2.428
    1   AR   Ar  183   3.625   4.929   2.257
    1   AR   Ar  184   4.090   6.194   1.551
    1   AR   Ar  185   1.649   5.449   4.316
    1   AR   Ar  186   3.454   5.596   3.755
    1   AR   Ar  187   4.238   6.002   3.091
    1   AR   Ar  188   3.323   6.124   2.506
    1   AR   Ar  189   2.572   4.160   6.036
    1   AR   Ar  190   4.427   6.234   6.252
    1   AR   Ar  191   4.767   5.400   5.464
    1   AR   Ar  192   3.765   6.155   5.211
    1   AR   Ar  193   7.095   6.335   0.010
    1   AR   Ar  194   5.608   4.208  -1.392
    1   AR   Ar  195   6.322   0.455  -0.528
    1   AR   Ar  196   4.498   1.430  -0.772
    1   AR   Ar  197   5.304   0.963   0.476
    1   AR   Ar  198   6.203   1.412   1.441
    1   AR   Ar  199   5.014   1.226   1.438
    1   AR   Ar  200   6.616   1.713   0.398
    1   AR   Ar  201   4.909   6.929   3.543
    1   AR   Ar  202   5.172   2.640   4.007
    1   AR   Ar  203   6.782   6.562   5.215
    1   AR   Ar  204   5.157   0.698   3.857
    1   AR   Ar  205   5.923   0.283   3.234
    1   AR   Ar  206   5.210   0.343   4.814
    1   AR   Ar  207   6.697   0.458   6.047
    1   AR   Ar  208   6.883   0.239   3.950
    1   AR   Ar  209   4.694   2.177  -1.672
    1   AR   Ar  210   3.817   0.768   0.969
    1   AR   Ar  211   6.550   3.204   0.473
    1   AR   Ar  212   6.540   3.876  -1.720
    1   AR   Ar  213   3.181   1.899   2.419
    1   AR   Ar  214   3.583   3.592   2.783
    1   AR   Ar  215   6.035   2.390   1.936
    1   AR   Ar  216   6.727   3.543   1.483
    1   AR   Ar  217   4.615   3.155   3.305
    1   AR   Ar  218   4.480   2.817   4.857
    1   AR   Ar  219   5.294   1.623   3.347
    1   AR   Ar  220   5.343   2.710   2.628
    1   AR   Ar  221   6.321   0.519   4.853
    1   AR   Ar  222   4.732   1.367   6.072
    1   AR   Ar  223   0.049   0.610   7.060
    1   AR   Ar  224   5.199   2.216   5.395
    1   AR   Ar  225   5.407   5.185   0.222
    1   AR   Ar  226   5.095   4.305   2.371
    1   AR   Ar  227   6.485   4.803   0.060
    1   AR   Ar  228   5.061   5.845   1.132
    1   AR   Ar  229   5.916   3.960   0.203
    1   AR   Ar  230   4.567   4.544   3.601
    1   AR   Ar  231   6.628   2.166   3.318
    1   AR   Ar  232   4.617   3.299   0.659
    1   AR   Ar  233   6.333   2.557   4.611
    1   AR   Ar  234   7.092   3.401   4.715
    1   AR   Ar  235   0.346   2.215   4.253
    1   AR   Ar  236   5.307   4.403   4.509
    1   AR   Ar  237   5.770   3.451   4.012
    1   AR   Ar  238   4.750   4.310   5.484
    1   AR   Ar  239   6.379   3.866   9.234
    1   AR   Ar  240   6.951   3.818   5.606
    1   AR   Ar  241   0.273   0.267  -0.120
    1   AR   Ar  242   5.162   4.636   1.232
    1   AR   Ar  243   6.159   3.886   2.485
    1   AR   Ar  244   0.516   4.936  -1.553
    1   AR   Ar  245   5.740   0.361   2.295
    1   AR   Ar  246   5.978   6.411   1.461
    1   AR   Ar  247   5.621   3.309   1.234
    1   AR   Ar  248   5.454   6.735   0.584
    1   AR   Ar  249   5.140   5.378   2.491
    1   AR   Ar  250   4.842   6.344   4.916
    1   AR   Ar  251   5.575   5.400   4.779
    1   AR   Ar  252   5.237   5.666   3.616
    1   AR   Ar  253   5.596   4.819   5.721
    1   AR   Ar  254   5.313   5.131   6.613
    1   AR   Ar  255   5.062   4.133   6.910
    1   AR   Ar  256   5.892   6.812   4.111
    7.12000  7.12000 12.00000
Argon-slab step 1985
  256
    1   AR   Ar    1   6.867   1.753  -0.858
    1   AR   Ar    2   6.329   0.406   1.238
    1   AR   Ar    3   0.065   7.014   0.978
    1   AR   Ar    4   1.248   7.022   0.418
    1   AR   Ar    5   6.602   5.713   0.893
    1   AR   Ar    6   6.931   0.537   2.920
    1   AR   Ar    7   7.086   5.163   2.954
    1   AR   Ar    8   6.750   7.025   2.054
    1   AR   Ar    9   0.988   0.513   4.359
    1   AR   Ar   10   1.223   1.517   4.254
    1   AR   Ar   11   3.028   6.845   4.893
    1   AR   Ar   12   1.254   0.708   3.209
    1   AR   Ar   13   7.040   1.338   4.885
    1   AR   Ar   14   0.760   1.574   6.433
    1   AR   Ar   15   0.061   0.385   9.072
    1   AR   Ar   16   1.543   1.401   5.298
    1   AR   Ar   17   0.624   1.179  -0.084
    1   AR   Ar   18   6.079   3.222  -0.722
    1   AR   Ar   19   1.273   2.068   1.420
    1   AR   Ar   20   6.130   3.785  -2.773
    1   AR   Ar   21   6.129   1.358   2.577
    1   AR   Ar   22   7.087   1.625   2.352
    1   AR   Ar   23   0.221   1.122   1.010
    1   AR   Ar   24   7.088   2.170   1.382
    1   AR   Ar   25   0.244   1.265   3.483
    1   AR   Ar   26   6.424   1.370   3.922
    1   AR   Ar   27   2.176   1.214   3.535
    1   AR   Ar   28   1.365   2.569   4.758
    1   AR   Ar   29   5.688   1.775   6.850
    1   AR   Ar   30   0.841   2.359   5.723
    1   AR   Ar   31   0.722   7.015   6.752
    1   AR   Ar   32   1.857   3.282   5.956
    1   AR   Ar   33   1.935   4.581  -0.803
    1   AR   Ar   34   0.349   5.859   1.447
    1   AR   Ar   35   7.030   4.736   1.373
    1   AR   Ar   36   0.369   7.059  -2.621
    1   AR   Ar   37   7.033   2.751   2.219
    1   AR   Ar   38   0.029   3.925   2.482
    1   AR   Ar   39   1.062   4.285   2.622
    1   AR   Ar   40   1.229   4.082   1.512
    1   AR   Ar   41   0.610   2.748   3.128
    1   AR   Ar   42   6.689   5.359   4.989
    1   AR   Ar   43   6.951   2.652   5.635
    1   AR   Ar   44   0.544   4.324   3.516
    1   AR   Ar   45   0.943   3.476   5.231
    1   AR   Ar   46   0.807   5.746   6.259
    1   AR   Ar   47   6.073   3.713   6.498
    1   AR   Ar   48   6.407   6.497   6.407
    1   AR   Ar   49   6.369   6.934  -1.592
    1   AR   Ar   50   6.107   5.182   1.635
    1   AR   Ar   51   1.095   5.136   1.533
    1   AR   Ar   52   6.522   5.115  -1.138
    1   AR   Ar   53   5.883   6.198   2.670
    1   AR   Ar   54   6.687   6.592   3.149
    1   AR   Ar   55   6.063   5.188   2.867
    1   AR   Ar   56   0.790   0.029   2.010
    1   AR   Ar   57   6.748   3.166   3.091
    1   AR   Ar   58   6.422   5.801   4.053
    1   AR   Ar   59   1.792   5.445   5.406
    1   AR   Ar   60   0.617   6.751   4.098
    1   AR   Ar   61   5.701   6.050   5.717
    1   AR   Ar   62   0.645   5.759   4.764
    1   AR   Ar   63   1.516   6.441   6.396
    1   AR   Ar   64   0.928   6.617   5.319
    1   AR   Ar   65   3.332   6.795   0.391
    1   AR   Ar   66   1.339   1.010   1.037
    1   AR   Ar   67   3.471   6.144  -0.748
    1   AR   Ar   68   3.124   1.621  -1.588
    1   AR   Ar   69   2.336   0.923   0.924
    1   AR   Ar   70   1.292   1.090   2.086
    1   AR   Ar   71   2.976   0.794   3.012
    1   AR   Ar   72   3.145   0.576   1.797
    1   AR   Ar   73   2.025   7.113   3.571
    1   AR   Ar   74   2.182   0.864   4.472
    1   AR   Ar   75   3.054   0.910   5.207
    1   AR   Ar   76   2.213   1.224   2.551
    1   AR   Ar   77   2.005   6.648   5.450
    1   AR   Ar   78   1.519   0.589   6.602
    1   AR   Ar   79   3.464   6.053   6.885
    1   AR   Ar   80   2.825   5.771   5.654
    1   AR   Ar   81   1.974   1.253  -0.095
    1   AR   Ar   82   0.285   4.278  -0.714
    1   AR   Ar   83   2.286   2.341   1.028
    1   AR   Ar   84   0.463   3.530  -1.809
    1   AR   Ar   85   0.237   2.371   0.028
    1   AR   Ar   86   1.951   3.268   1.806
    1   AR   Ar   87   2.181   2.211   2.095
    1   AR   Ar   88   4.347   4.026   1.538
    1   AR   Ar   89   0.852   3.104   2.122
    1   AR   Ar   90   2.882   1.886   4.537
    1   AR   Ar   91   1.939   2.316   3.989
    1   AR   Ar   92   1.397   1.998   2.799
    1   AR   Ar   93   2.490   2.064   5.533
    1   AR   Ar   94   0.953   1.796   8.262
    1   AR   Ar   95   3.232   6.788   5.989
    1   AR   Ar   96   2.152   0.723   5.738
    1   AR   Ar   97   3.803   2.515  -0.808
    1   AR   Ar   98   3.051   4.306   1.361
    1   AR   Ar   99   6.835   2.600  -1.506
    1   AR   Ar  100   1.851   3.724  -0.061
    1   AR   Ar  101   2.118   3.820   0.960
    1   AR   Ar  102   2.536   3.298   3.714
    1   AR   Ar  103   1.049   4.838   0.387
    1   AR   Ar  104   2.812   2.326  -0.655
    1   AR   Ar  105   1.741   3.328   2.920
    1   AR   Ar  106   2.438   2.976   4.913
    1   AR   Ar  107   2.002   3.981   5.090
    1   AR   Ar  108   3.598   2.913   4.379
    1   AR   Ar  109   1.910   4.151   4.138
    1   AR   Ar  110   1.441   4.445   5.731
    1   AR   Ar  111   4.300   4.779   6.723
    1   AR   Ar  112   0.517   5.063   7.186
    1   AR   Ar  113   2.126   4.661   0.243
    1   AR   Ar  114   2.601   5.447  -0.459
    1   AR   Ar  115   2.906   3.800  -0.516
    1   AR   Ar  116   4.682   6.304  -0.165
    1   AR   Ar  117   0.673   5.659   3.720
    1   AR   Ar  118   0.671   6.649   3.055
    1   AR   Ar  119   2.539   4.113   2.871
    1   AR   Ar  120   1.121   5.774   2.816
    1   AR   Ar  121   6.948   4.554   4.379
    1   AR   Ar  122   2.673   5.811   4.582
    1   AR   Ar  123   2.528   4.744   4.999
    1   AR   Ar  124   2.218   5.605   3.053
    1   AR   Ar  125   0.527   4.417   5.123
    1   AR   Ar  126   0.457   0.451   5.326
    1   AR   Ar  127   2.981   5.337   7.736
    1   AR   Ar  128   2.152   5.337   6.490
    1   AR   Ar  129   1.707   0.021   2.464
    1   AR   Ar  130   2.934   1.173  -3.474
    1   AR   Ar  131   4.472   7.053   0.593
    1   AR   Ar  132   0.710   2.317  -1.534
    1   AR   Ar  133   3.708   0.007   3.519
    1   AR   Ar  134   3.923   1.204   2.859
    1   AR   Ar  135   4.963   0.767   2.775
    1   AR   Ar  136   4.289   0.114   1.831
    1   AR   Ar  137   2.905   6.414   3.470
    1   AR   Ar  138   4.910   1.307   4.927
    1   AR   Ar  139   5.957   1.634   4.928
    1   AR   Ar  140   4.215   0.977   4.184
    1   AR   Ar  141   3.795   6.406   4.295
    1   AR   Ar  142   4.175   0.172   5.599
    1   AR   Ar  143   5.200   6.972   5.949
    1   AR   Ar  144   4.767   0.482   6.587
    1   AR   Ar  145   3.581   3.774   0.485
    1   AR   Ar  146   3.920   2.565   1.612
    1   AR   Ar  147   5.734   2.223  -0.763
    1   AR   Ar  148   4.937   4.533  -2.548
    1   AR   Ar  149   3.114   1.603   1.378
    1   AR   Ar  150   2.452   2.030   3.101
    1   AR   Ar  151   3.490   2.311   3.408
    1   AR   Ar  152   2.761   3.121   0.388
    1   AR   Ar  153   3.144   0.692   4.114
    1   AR   Ar  154   4.011   2.020   4.333
    1   AR   Ar  155   5.626   1.013   5.800
    1   AR   Ar  156   3.248   4.152   3.980
    1   AR   Ar  157   3.466   3.162   5.748
    1   AR   Ar  158   1.067   2.493   7.137
    1   AR   Ar  159   3.584   1.942   5.934
    1   AR   Ar  160   3.528   2.502   7.534
    1   AR   Ar  161   5.635   2.142   0.815
    1   AR   Ar  162   4.543   5.105  -0.505
    1   AR   Ar  163   5.476   3.042   0.126
    1   AR   Ar  164   3.860   5.001   1.053
    1   AR   Ar  165   2.991   3.121   1.356
    1   AR   Ar  166   2.556   4.908   3.854
    1   AR   Ar  167   4.539   2.116   2.850
    1   AR   Ar  168   4.512   3.385  -0.863
    1   AR   Ar  169   2.716   3.139   2.547
    1   AR   Ar  170   3.349   3.928   5.010
    1   AR   Ar  171   4.367   3.845   4.619
    1   AR   Ar  172   4.601   5.306   4.364
    1   AR   Ar  173   1.978   4.027   6.856
    1   AR   Ar  174   3.866   5.407   6.021
    1   AR   Ar  175   4.251   3.653   6.366
    1   AR   Ar  176   3.671   5.145   4.841
    1   AR   Ar  177   5.962   5.824  -0.303
    1   AR   Ar  178   3.125   6.451   1.396
    1   AR   Ar  179   3.963   5.845   0.519
    1   AR   Ar  180   3.989   2.975  -2.908
    1   AR   Ar  181   2.032   5.671   1.373
    1   AR   Ar  182   2.741   6.969   2.436
    1   AR   Ar  183   3.605   4.904   2.253
    1   AR   Ar  184   4.091   6.192   1.568
    1   AR   Ar  185   1.643   5.446   4.298
    1   AR   Ar  186   3.471   5.606   3.777
    1   AR   Ar  187   4.274   6.033   3.092
    1   AR   Ar  188   3.318   6.125   2.501
    1   AR   Ar  189   2.619   4.140   6.058
    1   AR   Ar  190   4.463   6.233   6.222
    1   AR   Ar  191   4.743   5.414   5.462
    1   AR   Ar  192   3.792   6.157   5.217
    1   AR   Ar  193   7.111   6.319   0.004
    1   AR   Ar  194   5.607   4.231  -1.414
    1   AR   Ar  195   6.326   0.461  -0.496
    1   AR   Ar  196   4.470   1.447  -0.744
    1   AR   Ar  197   5.296   0.962   0.453
    1   AR   Ar  198   6.190   1.409   1.449
    1   AR   Ar  199   4.989   1.216   1.406
    1   AR   Ar  200   6.617   1.709   0.384
    1   AR   Ar  201   4.936   6.949   3.512
    1   AR   Ar  202   5.172   2.634   4.042
    1   AR   Ar  203   6.782   6.595   5.246
    1   AR   Ar  204   5.153   0.694   3.831
    1   AR   Ar  205   5.929   0.277   3.208
    1   AR   Ar  206   5.224   0.336   4.800
    1   AR   Ar  207   6.692   0.468   6.047
    1   AR   Ar  208   6.881   0.215   3.976
    1   AR   Ar  209   4.699   2.189  -1.666
    1   AR   Ar  210   3.821   0.795   0.979
    1   AR   Ar  211   6.531   3.168   0.476
    1   AR   Ar  212   6.537   3.867  -1.731
    1   AR   Ar  213   3.187   1.901   2.447
    1   AR   Ar  214   3.565   3.613   2.763
    1   AR   Ar  215   6.011   2.383   1.909
    1   AR   Ar  216   6.730   3.560   1.486
    1   AR   Ar  217   4.631   3.144   3.305
    1   AR   Ar  218   4.465   2.807   4.890
    1   AR   Ar  219   5.310   1.635   3.375
    1   AR   Ar  220   5.351   2.700   2.654
    1   AR   Ar  221   6.336   0.535   4.845
    1   AR   Ar  222   4.688   1.380   6.046
    1   AR   Ar  223   0.050   0.597   7.048
    1   AR   Ar  224   5.210   2.230   5.395
    1   AR   Ar  225   5.397   5.207   0.265
    1   AR   Ar  226   5.088   4.289   2.375
    1   AR   Ar  227   6.513   4.797   0.032
    1   AR   Ar  228   5.063   5.824   1.117
    1   AR   Ar  229   5.910   3.935   0.179
    1   AR   Ar  230   4.573   4.549   3.597
    1   AR   Ar  231   6.601   2.150   3.281
    1   AR   Ar  232   4.618   3.258   0.646
    1   AR   Ar  233   6.333   2.560   4.628
    1   AR   Ar  234   7.107   3.411   4.710
    1   AR   Ar  235   0.347   2.218   4.238
    1   AR   Ar  236   5.312   4.389   4.535
    1   AR   Ar  237   5.774   3.468   4.014
    1   AR   Ar  238   4.743   4.290   5.501
    1   AR   Ar  239   6.407   3.866   9.231
    1   AR   Ar  240   6.960   3.849   5.608
    1   AR   Ar  241   0.287   0.253  -0.066
    1   AR   Ar  242   5.188   4.627   1.228
    1   AR   Ar  243   6.157   3.875   2.504
    1   AR   Ar  244   0.523   4.922  -1.573
    1   AR   Ar  245   5.758   0.396   2.289
    1   AR   Ar  246   5.948   6.404   1.441
    1   AR   Ar  247   5.678   3.282   1.199
    1   AR   Ar  248   5.439   6.717   0.585
    1   AR   Ar  249   5.149   5.359   2.457
    1   AR   Ar  250   4.844   6.323   4.952
    1   AR   Ar  251   5.591   5.412   4.790
    1   AR   Ar  252   5.226   5.725   3.607
    1   AR   Ar  253   5.625   4.803   5.685
    1   AR   Ar  254   5.299   5.140   6.604
    1   AR   Ar  255   5.054   4.084   6.944
    1   AR   Ar  256   5.892   6.792   4.108
    7.12000  7.12000 12.00000
Argon-slab step 1990
  256
    1   AR   Ar    1   6.841   1.757  -0.847
    1   AR   Ar    2   6.337   0.413   1.224
    1   AR   Ar    3   0.071   7.015   0.975
    1   AR   Ar    4   1.248   7.030   0.415
    1   AR   Ar    5   6.608   5.702   0.847
    1   AR   Ar    6   6.923   0.542   2.927
    1   AR   Ar    7   7.086   5.158   2.965
    1   AR   Ar    8   6.740   7.007   2.056
    1   AR   Ar    9   0.962   0.474   4.363
    1   AR   Ar   10   1.231   1.491   4.280
    1   AR   Ar   11   3.027   6.842   4.869
    1   AR   Ar   12   1.214   0.719   3.200
    1   AR   Ar   13   7.055   1.362   4.934
    1   AR   Ar   14   0.777   1.587   6.422
    1   AR   Ar   15   0.039   0.374   9.083
    1   AR   Ar   16   1.572   1.394   5.290
    1   AR   Ar   17   0.659   1.153  -0.089
    1   AR   Ar   18   6.079   3.210  -0.696
    1   AR   Ar   19   1.260   2.092   1.420
    1   AR   Ar   20   6.109   3.828  -2.777
    1   AR   Ar   21   6.153   1.344   2.548
    1   AR   Ar   22   7.083   1.668   2.374
    1   AR   Ar   23   0.212   1.131   1.050
    1   AR   Ar   24   0.006   2.180   1.398
    1   AR   Ar   25   0.233   1.274   3.466
    1   AR   Ar   26   6.391   1.372   3.884
    1   AR   Ar   27   2.170   1.205   3.525
    1   AR   Ar   28   1.366   2.577   4.729
    1   AR   Ar   29   5.690   1.777   6.854
    1   AR   Ar   30   0.863   2.343   5.718
    1   AR   Ar   31   0.710   7.025   6.764
    1   AR   Ar   32   1.833   3.270   5.983
    1   AR   Ar   33   1.915   4.586  -0.822
    1   AR   Ar   34   0.346   5.884   1.469
    1   AR   Ar   35   7.003   4.788   1.380
    1   AR   Ar   36   0.366   7.080  -2.665
    1   AR   Ar   37   7.008   2.755   2.186
    1   AR   Ar   38   0.054   3.931   2.455
    1   AR   Ar   39   1.051   4.294   2.630
    1   AR   Ar   40   1.254   4.092   1.512
    1   AR   Ar   41   0.606   2.751   3.168
    1   AR   Ar   42   6.691   5.340   4.995
    1   AR   Ar   43   6.943   2.639   5.642
    1   AR   Ar   44   0.555   4.324   3.533
    1   AR   Ar   45   0.925   3.454   5.249
    1   AR   Ar   46   0.810   5.742   6.263
    1   AR   Ar   47   6.092   3.712   6.485
    1   AR   Ar   48   6.427   6.471   6.413
    1   AR   Ar   49   6.355   6.969  -1.554
    1   AR   Ar   50   6.085   5.144   1.646
    1   AR   Ar   51   1.076   5.133   1.545
    1   AR   Ar   52   6.519   5.111  -1.111
    1   AR   Ar   53   5.885   6.177   2.675
    1   AR   Ar   54   6.680   6.604   3.130
    1   AR   Ar   55   6.063   5.208   2.901
    1   AR   Ar   56   0.781   0.037   2.031
    1   AR   Ar   57   6.737   3.155   3.099
    1   AR   Ar   58   6.394   5.803   4.051
    1   AR   Ar   59   1.825   5.428   5.396
    1   AR   Ar   60   0.631   6.731   4.124
    1   AR   Ar   61   5.686   6.026   5.682
    1   AR   Ar   62   0.609   5.750   4.743
    1   AR   Ar   63   1.539   6.444   6.416
    1   AR   Ar   64   0.927   6.605   5.340
    1   AR   Ar   65   3.354   6.799   0.349
    1   AR   Ar   66   1.369   0.994   1.055
    1   AR   Ar   67   3.481   6.130  -0.764
    1   AR   Ar   68   3.122   1.634  -1.584
    1   AR   Ar   69   2.370   0.962   0.946
    1   AR   Ar   70   1.298   1.100   2.101
    1   AR   Ar   71   3.001   0.787   2.982
    1   AR   Ar   72   3.163   0.572   1.797
    1   AR   Ar   73   2.032   0.014   3.576
    1   AR   Ar   74   2.145   0.866   4.449
    1   AR   Ar   75   3.090   0.920   5.222
    1   AR   Ar   76   2.235   1.226   2.524
    1   AR   Ar   77   2.017   6.662   5.471
    1   AR   Ar   78   1.517   0.588   6.634
    1   AR   Ar   79   3.456   6.030   6.874
    1   AR   Ar   80   2.828   5.740   5.627
    1   AR   Ar   81   1.968   1.212  -0.082
    1   AR   Ar   82   0.283   4.325  -0.686
    1   AR   Ar   83   2.262   2.320   1.020
    1   AR   Ar   84   0.441   3.524  -1.782
    1   AR   Ar   85   0.244   2.394   0.010
    1   AR   Ar   86   1.935   3.230   1.815
    1   AR   Ar   87   2.153   2.207   2.088
    1   AR   Ar   88   4.340   4.018   1.531
    1   AR   Ar   89   0.860   3.113   2.145
    1   AR   Ar   90   2.877   1.875   4.541
    1   AR   Ar   91   1.945   2.307   3.980
    1   AR   Ar   92   1.383   2.012   2.777
    1   AR   Ar   93   2.498   2.061   5.542
    1   AR   Ar   94   0.942   1.791   8.277
    1   AR   Ar   95   3.208   6.775   5.984
    1   AR   Ar   96   2.147   0.704   5.798
    1   AR   Ar   97   3.787   2.504  -0.815
    1   AR   Ar   98   3.074   4.287   1.359
    1   AR   Ar   99   6.836   2.603  -1.521
    1   AR   Ar  100   1.860   3.725  -0.036
    1   AR   Ar  101   2.133   3.823   0.970
    1   AR   Ar  102   2.531   3.273   3.711
    1   AR   Ar  103   1.037   4.839   0.412
    1   AR   Ar  104   2.825   2.345  -0.655
    1   AR   Ar  105   1.715   3.330   2.904
    1   AR   Ar  106   2.461   2.976   4.921
    1   AR   Ar  107   2.005   3.929   5.064
    1   AR   Ar  108   3.589   2.909   4.388
    1   AR   Ar  109   1.932   4.144   4.120
    1   AR   Ar  110   1.414   4.450   5.730
    1   AR   Ar  111   4.279   4.764   6.725
    1   AR   Ar  112   0.501   5.102   7.165
    1   AR   Ar  113   2.148   4.695   0.231
    1   AR   Ar  114   2.598   5.416  -0.488
    1   AR   Ar  115   2.906   3.787  -0.494
    1   AR   Ar  116   4.666   6.286  -0.166
    1   AR   Ar  117   0.662   5.678   3.723
    1   AR   Ar  118   0.669   6.633   3.041
    1   AR   Ar  119   2.514   4.119   2.872
    1   AR   Ar  120   1.131   5.763   2.800
    1   AR   Ar  121   6.951   4.580   4.380
    1   AR   Ar  122   2.715   5.799   4.596
    1   AR   Ar  123   2.547   4.741   5.009
    1   AR   Ar  124   2.220   5.588   3.056
    1   AR   Ar  125   0.519   4.442   5.130
    1   AR   Ar  126   0.457   0.467   5.297
    1   AR   Ar  127   3.000   5.320   7.749
    1   AR   Ar  128   2.149   5.345   6.483
    1   AR   Ar  129   1.730   0.010   2.474
    1   AR   Ar  130   2.915   1.218  -3.497
    1   AR   Ar  131   4.478   7.050   0.572
    1   AR   Ar  132   0.684   2.308  -1.575
    1   AR   Ar  133   3.729   0.044   3.540
    1   AR   Ar  134   3.913   1.190   2.880
    1   AR   Ar  135   5.010   0.763   2.800
    1   AR   Ar  136   4.287   0.104   1.836
    1   AR   Ar  137   2.936   6.414   3.444
    1   AR   Ar  138   4.915   1.328   4.912
    1   AR   Ar  139   5.947   1.645   4.921
    1   AR   Ar  140   4.218   0.970   4.215
    1   AR   Ar  141   3.791   6.373   4.296
    1   AR   Ar  142   4.155   0.177   5.616
    1   AR   Ar  143   5.198   6.971   5.958
    1   AR   Ar  144   4.766   0.478   6.555
    1   AR   Ar  145   3.577   3.774   0.510
    1   AR   Ar  146   3.891   2.553   1.602
    1   AR   Ar  147   5.743   2.206  -0.753
    1   AR   Ar  148   4.933   4.511  -2.544
    1   AR   Ar  149   3.075   1.590   1.379
    1   AR   Ar  150   2.424   2.033   3.115
    1   AR   Ar  151   3.513   2.298   3.415
    1   AR   Ar  152   2.754   3.093   0.392
    1   AR   Ar  153   3.127   0.699   4.079
    1   AR   Ar  154   4.015   2.015   4.353
    1   AR   Ar  155   5.651   1.005   5.797
    1   AR   Ar  156   3.208   4.187   4.007
    1   AR   Ar  157   3.480   3.180   5.763
    1   AR   Ar  158   1.042   2.454   7.157
    1   AR   Ar  159   3.615   1.963   5.947
    1   AR   Ar  160   3.549   2.494   7.527
    1   AR   Ar  161   5.646   2.162   0.824
    1   AR   Ar  162   4.543   5.096  -0.499
    1   AR   Ar  163   5.472   3.001   0.106
    1   AR   Ar  164   3.849   4.992   1.057
    1   AR   Ar  165   3.016   3.145   1.373
    1   AR   Ar  166   2.548   4.877   3.849
    1   AR   Ar  167   4.516   2.090   2.849
    1   AR   Ar  168   4.547   3.408  -0.856
    1   AR   Ar  169   2.726   3.122   2.509
    1   AR   Ar  170   3.352   3.938   5.003
    1   AR   Ar  171   4.341   3.865   4.594
    1   AR   Ar  172   4.579   5.294   4.363
    1   AR   Ar  173   1.982   4.003   6.873
    1   AR   Ar  174   3.829   5.420   6.009
    1   AR   Ar  175   4.250   3.641   6.359
    1   AR   Ar  176   3.674   5.137   4.825
    1   AR   Ar  177   5.977   5.827  -0.302
    1   AR   Ar  178   3.121   6.426   1.386
    1   AR   Ar  179   3.949   5.799   0.488
    1   AR   Ar  180   4.002   2.939  -2.924
    1   AR   Ar  181   2.010   5.668   1.354
    1   AR   Ar  182   2.749   6.966   2.464
    1   AR   Ar  183   3.586   4.878   2.248
    1   AR   Ar  184   4.095   6.188   1.582
    1   AR   Ar  185   1.616   5.453   4.278
    1   AR   Ar  186   3.488   5.604   3.797
    1   AR   Ar  187   4.309   6.065   3.093
    1   AR   Ar  188   3.319   6.120   2.495
    1   AR   Ar  189   2.669   4.121   6.073
    1   AR   Ar  190   4.500   6.234   6.191
    1   AR   Ar  191   4.720   5.426   5.462
    1   AR   Ar  192   3.820   6.155   5.244
    1   AR   Ar  193   0.006   6.302  -0.000
    1   AR   Ar  194   5.604   4.254  -1.435
    1   AR   Ar  195   6.339   0.460  -0.491
    1   AR   Ar  196   4.442   1.466  -0.717
    1   AR   Ar  197   5.291   0.959   0.427
    1   AR   Ar  198   6.179   1.409   1.458
    1   AR   Ar  199   4.963   1.205   1.380
    1   AR   Ar  200   6.616   1.703   0.372
    1   AR   Ar  201   4.957   6.947   3.473
    1   AR   Ar  202   5.171   2.621   4.080
    1   AR   Ar  203   6.782   6.628   5.276
    1   AR   Ar  204   5.158   0.709   3.812
    1   AR   Ar  205   5.940   0.288   3.195
    1   AR   Ar  206   5.215   0.319   4.803
    1   AR   Ar  207   6.709   0.470   6.056
    1   AR   Ar  208   6.876   0.194   4.001
    1   AR   Ar  209   4.704   2.202  -1.658
    1   AR   Ar  210   3.826   0.822   0.988
    1   AR   Ar  211   6.516   3.125   0.480
    1   AR   Ar  212   6.537   3.858  -1.741
    1   AR   Ar  213   3.211   1.864   2.440
    1   AR   Ar  214   3.551   3.619   2.725
    1   AR   Ar  215   6.002   2.370   1.895
    1   AR   Ar  216   6.733   3.577   1.491
    1   AR   Ar  217   4.642   3.135   3.304
    1   AR   Ar  218   4.455   2.798   4.927
    1   AR   Ar  219   5.329   1.649   3.403
    1   AR   Ar  220   5.364   2.693   2.681
    1   AR   Ar  221   6.348   0.551   4.838
    1   AR   Ar  222   4.638   1.397   6.018
    1   AR   Ar  223   0.047   0.589   7.037
    1   AR   Ar  224   5.221   2.244   5.397
    1   AR   Ar  225   5.383   5.223   0.313
    1   AR   Ar  226   5.081   4.273   2.378
    1   AR   Ar  227   6.544   4.794   0.004
    1   AR   Ar  228   5.064   5.802   1.103
    1   AR   Ar  229   5.903   3.921   0.155
    1   AR   Ar  230   4.574   4.547   3.604
    1   AR   Ar  231   6.575   2.135   3.240
    1   AR   Ar  232   4.614   3.219   0.637
    1   AR   Ar  233   6.340   2.559   4.636
    1   AR   Ar  234   0.002   3.417   4.698
    1   AR   Ar  235   0.347   2.221   4.222
    1   AR   Ar  236   5.317   4.375   4.560
    1   AR   Ar  237   5.787   3.478   4.018
    1   AR   Ar  238   4.732   4.269   5.520
    1   AR   Ar  239   6.434   3.866   9.227
    1   AR   Ar  240   6.964   3.879   5.620
    1   AR   Ar  241   0.297   0.229  -0.012
    1   AR   Ar  242   5.214   4.620   1.224
    1   AR   Ar  243   6.143   3.865   2.522
    1   AR   Ar  244   0.530   4.908  -1.594
    1   AR   Ar  245   5.779   0.428   2.252
    1   AR   Ar  246   5.921   6.397   1.425
    1   AR   Ar  247   5.699   3.281   1.177
    1   AR   Ar  248   5.428   6.698   0.583
    1   AR   Ar  249   5.152   5.344   2.420
    1   AR   Ar  250   4.848   6.307   4.986
    1   AR   Ar  251   5.602   5.422   4.797
    1   AR   Ar  252   5.219   5.785   3.597
    1   AR   Ar  253   5.659   4.786   5.646
    1   AR   Ar  254   5.285   5.152   6.598
    1   AR   Ar  255   5.050   4.034   6.978
    1   AR   Ar  256   5.892   6.771   4.106
    7.12000  7.12000 12.00000
Argon-slab step 1995
  256
    1   AR   Ar    1   6.815   1.760  -0.834
    1   AR   Ar    2   6.340   0.420   1.209
    1   AR   Ar    3   0.080   7.012   0.973
    1   AR   Ar    4   1.248   7.039   0.413
    1   AR   Ar    5   6.611   5.692   0.797
    1   AR   Ar    6   6.914   0.544   2.929
    1   AR   Ar    7   7.093   5.151   2.977
    1   AR   Ar    8   6.731   6.987   2.061
    1   AR   Ar    9   0.944   0.452   4.370
    1   AR   Ar   10   1.238   1.468   4.302
    1   AR   Ar   11   3.024   6.841   4.846
    1   AR   Ar   12   1.173   0.730   3.192
    1   AR   Ar   13   7.071   1.388   4.982
    1   AR   Ar   14   0.794   1.597   6.413
    1   AR   Ar   15   0.016   0.362   9.093
    1   AR   Ar   16   1.598   1.391   5.281
    1   AR   Ar   17   0.697   1.137  -0.093
    1   AR   Ar   18   6.085   3.201  -0.674
    1   AR   Ar   19   1.246   2.116   1.422
    1   AR   Ar   20   6.127   3.809  -2.781
    1   AR   Ar   21   6.170   1.332   2.526
    1   AR   Ar   22   7.088   1.711   2.395
    1   AR   Ar   23   0.202   1.139   1.090
    1   AR   Ar   24   0.044   2.182   1.403
    1   AR   Ar   25   0.254   1.301   3.478
    1   AR   Ar   26   6.375   1.375   3.883
    1   AR   Ar   27   2.157   1.184   3.521
    1   AR   Ar   28   1.362   2.565   4.726
    1   AR   Ar   29   5.691   1.778   6.857
    1   AR   Ar   30   0.887   2.331   5.708
    1   AR   Ar   31   0.702   7.026   6.772
    1   AR   Ar   32   1.809   3.258   6.008
    1   AR   Ar   33   1.895   4.590  -0.843
    1   AR   Ar   34   0.341   5.913   1.493
    1   AR   Ar   35   6.983   4.837   1.385
    1   AR   Ar   36   0.362   7.101  -2.709
    1   AR   Ar   37   7.003   2.758   2.173
    1   AR   Ar   38   0.083   3.937   2.426
    1   AR   Ar   39   1.044   4.302   2.633
    1   AR   Ar   40   1.278   4.099   1.514
    1   AR   Ar   41   0.604   2.753   3.207
    1   AR   Ar   42   6.692   5.327   5.007
    1   AR   Ar   43   6.922   2.635   5.658
    1   AR   Ar   44   0.563   4.325   3.554
    1   AR   Ar   45   0.911   3.431   5.269
    1   AR   Ar   46   0.809   5.735   6.265
    1   AR   Ar   47   6.114   3.709   6.471
    1   AR   Ar   48   6.448   6.446   6.419
    1   AR   Ar   49   6.341   7.004  -1.516
    1   AR   Ar   50   6.056   5.110   1.661
    1   AR   Ar   51   1.056   5.128   1.558
    1   AR   Ar   52   6.488   5.114  -1.093
    1   AR   Ar   53   5.880   6.161   2.674
    1   AR   Ar   54   6.679   6.616   3.116
    1   AR   Ar   55   6.061   5.219   2.938
    1   AR   Ar   56   0.767   0.046   2.051
    1   AR   Ar   57   6.723   3.148   3.112
    1   AR   Ar   58   6.365   5.804   4.047
    1   AR   Ar   59   1.855   5.413   5.387
    1   AR   Ar   60   0.641   6.692   4.148
    1   AR   Ar   61   5.671   6.002   5.648
    1   AR   Ar   62   0.572   5.739   4.727
    1   AR   Ar   63   1.568   6.449   6.436
    1   AR   Ar   64   0.925   6.592   5.362
    1   AR   Ar   65   3.379   6.803   0.307
    1   AR   Ar   66   1.390   0.978   1.070
    1   AR   Ar   67   3.491   6.115  -0.778
    1   AR   Ar   68   3.121   1.648  -1.578
    1   AR   Ar   69   2.409   0.998   0.966
    1   AR   Ar   70   1.300   1.110   2.118
    1   AR   Ar   71   3.027   0.771   2.957
    1   AR   Ar   72   3.175   0.551   1.807
    1   AR   Ar   73   2.040   0.038   3.580
    1   AR   Ar   74   2.110   0.869   4.441
    1   AR   Ar   75   3.126   0.930   5.236
    1   AR   Ar   76   2.253   1.225   2.482
    1   AR   Ar   77   2.032   6.676   5.491
    1   AR   Ar   78   1.519   0.591   6.603
    1   AR   Ar   79   3.449   6.007   6.861
    1   AR   Ar   80   2.831   5.706   5.594
    1   AR   Ar   81   1.960   1.172  -0.068
    1   AR   Ar   82   0.279   4.372  -0.658
    1   AR   Ar   83   2.238   2.298   1.012
    1   AR   Ar   84   0.420   3.517  -1.754
    1   AR   Ar   85   0.251   2.417  -0.008
    1   AR   Ar   86   1.916   3.190   1.824
    1   AR   Ar   87   2.127   2.203   2.078
    1   AR   Ar   88   4.331   4.009   1.524
    1   AR   Ar   89   0.872   3.124   2.168
    1   AR   Ar   90   2.873   1.863   4.543
    1   AR   Ar   91   1.956   2.296   3.966
    1   AR   Ar   92   1.366   2.024   2.757
    1   AR   Ar   93   2.479   2.032   5.525
    1   AR   Ar   94   0.928   1.753   8.311
    1   AR   Ar   95   3.185   6.761   5.977
    1   AR   Ar   96   2.147   0.680   5.857
    1   AR   Ar   97   3.782   2.495  -0.823
    1   AR   Ar   98   3.091   4.241   1.347
    1   AR   Ar   99   6.830   2.612  -1.536
    1   AR   Ar  100   1.868   3.722  -0.015
    1   AR   Ar  101   2.152   3.827   0.980
    1   AR   Ar  102   2.527   3.247   3.707
    1   AR   Ar  103   1.026   4.845   0.440
    1   AR   Ar  104   2.826   2.362  -0.652
    1   AR   Ar  105   1.689   3.332   2.888
    1   AR   Ar  106   2.441   2.975   4.906
    1   AR   Ar  107   2.004   3.860   5.052
    1   AR   Ar  108   3.568   2.918   4.394
    1   AR   Ar  109   1.949   4.133   4.090
    1   AR   Ar  110   1.387   4.457   5.734
    1   AR   Ar  111   4.257   4.748   6.727
    1   AR   Ar  112   0.485   5.142   7.143
    1   AR   Ar  113   2.172   4.732   0.222
    1   AR   Ar  114   2.595   5.385  -0.517
    1   AR   Ar  115   2.905   3.775  -0.469
    1   AR   Ar  116   4.652   6.265  -0.167
    1   AR   Ar  117   0.649   5.696   3.723
    1   AR   Ar  118   0.665   6.626   3.028
    1   AR   Ar  119   2.489   4.126   2.875
    1   AR   Ar  120   1.146   5.745   2.779
    1   AR   Ar  121   6.953   4.602   4.372
    1   AR   Ar  122   2.757   5.788   4.606
    1   AR   Ar  123   2.576   4.750   5.014
    1   AR   Ar  124   2.222   5.573   3.060
    1   AR   Ar  125   0.518   4.473   5.134
    1   AR   Ar  126   0.454   0.482   5.271
    1   AR   Ar  127   3.020   5.303   7.760
    1   AR   Ar  128   2.145   5.352   6.475
    1   AR   Ar  129   1.750   0.001   2.486
    1   AR   Ar  130   2.897   1.262  -3.520
    1   AR   Ar  131   4.476   7.042   0.571
    1   AR   Ar  132   0.664   2.301  -1.614
    1   AR   Ar  133   3.754   0.081   3.558
    1   AR   Ar  134   3.913   1.176   2.902
    1   AR   Ar  135   5.027   0.766   2.789
    1   AR   Ar  136   4.290   0.078   1.853
    1   AR   Ar  137   2.965   6.417   3.421
    1   AR   Ar  138   4.949   1.293   4.911
    1   AR   Ar  139   5.939   1.650   4.913
    1   AR   Ar  140   4.217   0.960   4.243
    1   AR   Ar  141   3.794   6.354   4.291
    1   AR   Ar  142   4.136   0.180   5.633
    1   AR   Ar  143   5.205   6.963   5.954
    1   AR   Ar  144   4.759   0.483   6.533
    1   AR   Ar  145   3.574   3.774   0.536
    1   AR   Ar  146   3.862   2.541   1.592
    1   AR   Ar  147   5.753   2.187  -0.741
    1   AR   Ar  148   4.930   4.488  -2.539
    1   AR   Ar  149   3.038   1.582   1.383
    1   AR   Ar  150   2.405   2.047   3.120
    1   AR   Ar  151   3.545   2.285   3.424
    1   AR   Ar  152   2.744   3.064   0.388
    1   AR   Ar  153   3.109   0.709   4.046
    1   AR   Ar  154   4.023   2.000   4.373
    1   AR   Ar  155   5.677   0.995   5.794
    1   AR   Ar  156   3.178   4.211   4.034
    1   AR   Ar  157   3.517   3.189   5.784
    1   AR   Ar  158   1.017   2.414   7.176
    1   AR   Ar  159   3.663   1.967   5.975
    1   AR   Ar  160   3.570   2.485   7.520
    1   AR   Ar  161   5.662   2.167   0.842
    1   AR   Ar  162   4.536   5.089  -0.485
    1   AR   Ar  163   5.469   3.003   0.105
    1   AR   Ar  164   3.840   4.975   1.068
    1   AR   Ar  165   3.040   3.171   1.397
    1   AR   Ar  166   2.535   4.892   3.833
    1   AR   Ar  167   4.490   2.065   2.849
    1   AR   Ar  168   4.583   3.429  -0.848
    1   AR   Ar  169   2.730   3.095   2.471
    1   AR   Ar  170   3.353   3.947   5.000
    1   AR   Ar  171   4.314   3.884   4.566
    1   AR   Ar  172   4.561   5.285   4.362
    1   AR   Ar  173   1.984   3.980   6.889
    1   AR   Ar  174   3.788   5.432   5.997
    1   AR   Ar  175   4.250   3.630   6.351
    1   AR   Ar  176   3.672   5.128   4.812
    1   AR   Ar  177   5.994   5.831  -0.303
    1   AR   Ar  178   3.112   6.404   1.376
    1   AR   Ar  179   3.936   5.764   0.452
    1   AR   Ar  180   4.015   2.904  -2.941
    1   AR   Ar  181   1.990   5.665   1.335
    1   AR   Ar  182   2.758   6.965   2.493
    1   AR   Ar  183   3.567   4.852   2.242
    1   AR   Ar  184   4.099   6.160   1.587
    1   AR   Ar  185   1.590   5.459   4.259
    1   AR   Ar  186   3.502   5.585   3.809
    1   AR   Ar  187   4.343   6.098   3.094
    1   AR   Ar  188   3.324   6.108   2.487
    1   AR   Ar  189   2.719   4.103   6.083
    1   AR   Ar  190   4.536   6.234   6.160
    1   AR   Ar  191   4.698   5.430   5.463
    1   AR   Ar  192   3.846   6.151   5.285
    1   AR   Ar  193   0.019   6.284  -0.003
    1   AR   Ar  194   5.598   4.278  -1.455
    1   AR   Ar  195   6.365   0.451  -0.528
    1   AR   Ar  196   4.414   1.486  -0.690
    1   AR   Ar  197   5.288   0.955   0.397
    1   AR   Ar  198   6.169   1.412   1.465
    1   AR   Ar  199   4.937   1.196   1.359
    1   AR   Ar  200   6.613   1.697   0.361
    1   AR   Ar  201   4.973   6.928   3.429
    1   AR   Ar  202   5.169   2.603   4.120
    1   AR   Ar  203   6.782   6.662   5.306
    1   AR   Ar  204   5.170   0.737   3.805
    1   AR   Ar  205   5.954   0.308   3.191
    1   AR   Ar  206   5.207   0.297   4.809
    1   AR   Ar  207   6.724   0.470   6.063
    1   AR   Ar  208   6.871   0.174   4.022
    1   AR   Ar  209   4.709   2.214  -1.648
    1   AR   Ar  210   3.834   0.849   0.997
    1   AR   Ar  211   6.503   3.079   0.483
    1   AR   Ar  212   6.538   3.847  -1.750
    1   AR   Ar  213   3.238   1.817   2.423
    1   AR   Ar  214   3.548   3.631   2.690
    1   AR   Ar  215   6.004   2.365   1.878
    1   AR   Ar  216   6.735   3.594   1.496
    1   AR   Ar  217   4.649   3.130   3.304
    1   AR   Ar  218   4.448   2.791   4.968
    1   AR   Ar  219   5.353   1.667   3.432
    1   AR   Ar  220   5.382   2.687   2.708
    1   AR   Ar  221   6.357   0.566   4.834
    1   AR   Ar  222   4.589   1.417   5.987
    1   AR   Ar  223   0.039   0.589   7.030
    1   AR   Ar  224   5.233   2.259   5.402
    1   AR   Ar  225   5.369   5.235   0.358
    1   AR   Ar  226   5.074   4.254   2.381
    1   AR   Ar  227   6.574   4.794  -0.024
    1   AR   Ar  228   5.062   5.782   1.093
    1   AR   Ar  229   5.897   3.915   0.132
    1   AR   Ar  230   4.575   4.544   3.610
    1   AR   Ar  231   6.550   2.121   3.195
    1   AR   Ar  232   4.606   3.181   0.632
    1   AR   Ar  233   6.372   2.532   4.619
    1   AR   Ar  234   0.016   3.420   4.681
    1   AR   Ar  235   0.346   2.223   4.206
    1   AR   Ar  236   5.321   4.362   4.586
    1   AR   Ar  237   5.804   3.483   4.020
    1   AR   Ar  238   4.719   4.250   5.541
    1   AR   Ar  239   6.461   3.867   9.224
    1   AR   Ar  240   6.962   3.905   5.639
    1   AR   Ar  241   0.301   0.198   0.041
    1   AR   Ar  242   5.240   4.613   1.221
    1   AR   Ar  243   6.124   3.854   2.538
    1   AR   Ar  244   0.535   4.894  -1.614
    1   AR   Ar  245   5.803   0.455   2.192
    1   AR   Ar  246   5.899   6.389   1.417
    1   AR   Ar  247   5.680   3.329   1.156
    1   AR   Ar  248   5.423   6.679   0.575
    1   AR   Ar  249   5.151   5.332   2.381
    1   AR   Ar  250   4.853   6.298   5.016
    1   AR   Ar  251   5.586   5.408   4.795
    1   AR   Ar  252   5.215   5.846   3.587
    1   AR   Ar  253   5.696   4.770   5.606
    1   AR   Ar  254   5.271   5.166   6.591
    1   AR   Ar  255   5.049   3.984   7.012
    1   AR   Ar  256   5.890   6.753   4.104
    7.12000  7.12000 12.00000
Argon-slab step 2000
  256
    1   AR   Ar    1   6.789   1.762  -0.818
    1   AR   Ar    2   6.339   0.426   1.192
    1   AR   Ar    3   0.092   7.004   0.979
    1   AR   Ar    4   1.249   7.048   0.413
    1   AR   Ar    5   6.612   5.682   0.747
    1   AR   Ar    6   6.910   0.546   2.928
    1   AR   Ar    7   7.105   5.144   2.990
    1   AR   Ar    8   6.723   6.965   2.065
    1   AR   Ar    9   0.934   0.445   4.375
    1   AR   Ar   10   1.243   1.450   4.319
    1   AR   Ar   11   3.020   6.841   4.824
    1   AR   Ar   12   1.133   0.741   3.184
    1   AR   Ar   13   7.087   1.418   5.028
    1   AR   Ar   14   0.811   1.600   6.408
    1   AR   Ar   15   7.113   0.350   9.103
    1   AR   Ar   16   1.623   1.390   5.275
    1   AR   Ar   17   0.737   1.127  -0.095
    1   AR   Ar   18   6.096   3.196  -0.659
    1   AR   Ar   19   1.230   2.138   1.426
    1   AR   Ar   20   6.144   3.790  -2.785
    1   AR   Ar   21   6.180   1.322   2.510
    1   AR   Ar   22   7.104   1.753   2.414
    1   AR   Ar   23   0.192   1.145   1.130
    1   AR   Ar   24   0.082   2.178   1.395
    1   AR   Ar   25   0.287   1.335   3.498
    1   AR   Ar   26   6.371   1.379   3.907
    1   AR   Ar   27   2.159   1.158   3.514
    1   AR   Ar   28   1.353   2.554   4.729
    1   AR   Ar   29   5.692   1.779   6.858
    1   AR   Ar   30   0.913   2.323   5.693
    1   AR   Ar   31   0.699   7.019   6.775
    1   AR   Ar   32   1.786   3.248   6.030
    1   AR   Ar   33   1.874   4.593  -0.862
    1   AR   Ar   34   0.333   5.944   1.517
    1   AR   Ar   35   6.972   4.882   1.389
    1   AR   Ar   36   0.358   0.002  -2.753
    1   AR   Ar   37   7.010   2.766   2.178
    1   AR   Ar   38   0.112   3.942   2.398
    1   AR   Ar   39   1.044   4.311   2.632
    1   AR   Ar   40   1.299   4.103   1.518
    1   AR   Ar   41   0.564   2.746   3.196
    1   AR   Ar   42   6.690   5.321   5.026
    1   AR   Ar   43   6.899   2.633   5.675
    1   AR   Ar   44   0.569   4.327   3.578
    1   AR   Ar   45   0.898   3.408   5.292
    1   AR   Ar   46   0.808   5.734   6.246
    1   AR   Ar   47   6.136   3.707   6.456
    1   AR   Ar   48   6.469   6.422   6.422
    1   AR   Ar   49   6.328   7.039  -1.477
    1   AR   Ar   50   6.021   5.081   1.680
    1   AR   Ar   51   1.036   5.124   1.572
    1   AR   Ar   52   6.458   5.116  -1.075
    1   AR   Ar   53   5.867   6.153   2.669
    1   AR   Ar   54   6.683   6.629   3.106
    1   AR   Ar   55   6.058   5.221   2.979
    1   AR   Ar   56   0.750   0.057   2.070
    1   AR   Ar   57   6.708   3.146   3.128
    1   AR   Ar   58   6.338   5.804   4.041
    1   AR   Ar   59   1.879   5.401   5.378
    1   AR   Ar   60   0.645   6.635   4.169
    1   AR   Ar   61   5.657   5.978   5.618
    1   AR   Ar   62   0.575   5.760   4.730
    1   AR   Ar   63   1.599   6.456   6.456
    1   AR   Ar   64   0.922   6.579   5.385
    1   AR   Ar   65   3.404   6.805   0.265
    1   AR   Ar   66   1.404   0.963   1.082
    1   AR   Ar   67   3.502   6.100  -0.789
    1   AR   Ar   68   3.120   1.663  -1.571
    1   AR   Ar   69   2.439   1.020   0.977
    1   AR   Ar   70   1.296   1.120   2.136
    1   AR   Ar   71   3.046   0.747   2.936
    1   AR   Ar   72   3.186   0.532   1.817
    1   AR   Ar   73   2.050   0.016   3.588
    1   AR   Ar   74   2.093   0.890   4.455
    1   AR   Ar   75   3.161   0.940   5.249
    1   AR   Ar   76   2.270   1.223   2.432
    1   AR   Ar   77   2.050   6.689   5.509
    1   AR   Ar   78   1.511   0.594   6.582
    1   AR   Ar   79   3.440   5.984   6.847
    1   AR   Ar   80   2.838   5.673   5.572
    1   AR   Ar   81   1.951   1.132  -0.052
    1   AR   Ar   82   0.274   4.419  -0.631
    1   AR   Ar   83   2.216   2.277   1.003
    1   AR   Ar   84   0.402   3.509  -1.725
    1   AR   Ar   85   0.256   2.439  -0.027
    1   AR   Ar   86   1.889   3.190   1.824
    1   AR   Ar   87   2.107   2.198   2.067
    1   AR   Ar   88   4.320   4.000   1.516
    1   AR   Ar   89   0.887   3.136   2.190
    1   AR   Ar   90   2.868   1.851   4.541
    1   AR   Ar   91   1.968   2.284   3.955
    1   AR   Ar   92   1.345   2.036   2.740
    1   AR   Ar   93   2.456   2.026   5.532
    1   AR   Ar   94   0.915   1.715   8.344
    1   AR   Ar   95   3.161   6.746   5.970
    1   AR   Ar   96   2.158   0.656   5.903
    1   AR   Ar   97   3.792   2.487  -0.834
    1   AR   Ar   98   3.107   4.198   1.339
    1   AR   Ar   99   6.816   2.625  -1.549
    1   AR   Ar  100   1.875   3.719   0.002
    1   AR   Ar  101   2.175   3.832   0.990
    1   AR   Ar  102   2.525   3.220   3.704
    1   AR   Ar  103   1.023   4.855   0.455
    1   AR   Ar  104   2.814   2.378  -0.646
    1   AR   Ar  105   1.662   3.332   2.874
    1   AR   Ar  106   2.426   2.966   4.889
    1   AR   Ar  107   1.997   3.862   5.030
    1   AR   Ar  108   3.541   2.935   4.393
    1   AR   Ar  109   1.959   4.118   4.053
    1   AR   Ar  110   1.363   4.463   5.741
    1   AR   Ar  111   4.234   4.732   6.728
    1   AR   Ar  112   0.472   5.167   7.136
    1   AR   Ar  113   2.197   4.768   0.217
    1   AR   Ar  114   2.595   5.355  -0.547
    1   AR   Ar  115   2.903   3.764  -0.444
    1   AR   Ar  116   4.640   6.243  -0.170
    1   AR   Ar  117   0.663   5.714   3.714
    1   AR   Ar  118   0.658   6.624   3.016
    1   AR   Ar  119   2.465   4.134   2.881
    1   AR   Ar  120   1.162   5.723   2.754
    1   AR   Ar  121   6.954   4.618   4.354
    1   AR   Ar  122   2.789   5.783   4.611
    1   AR   Ar  123   2.611   4.760   5.015
    1   AR   Ar  124   2.246   5.567   3.061
    1   AR   Ar  125   0.521   4.508   5.137
    1   AR   Ar  126   0.448   0.496   5.249
    1   AR   Ar  127   3.040   5.287   7.770
    1   AR   Ar  128   2.142   5.360   6.465
    1   AR   Ar  129   1.766   7.114   2.500
    1   AR   Ar  130   2.879   1.307  -3.543
    1   AR   Ar  131   4.469   7.024   0.599
    1   AR   Ar  132   0.655   2.308  -1.645
    1   AR   Ar  133   3.783   0.115   3.572
    1   AR   Ar  134   3.928   1.163   2.926
    1   AR   Ar  135   5.039   0.772   2.776
    1   AR   Ar  136   4.292   0.050   1.872
    1   AR   Ar  137   2.961   6.415   3.442
    1   AR   Ar  138   4.989   1.248   4.916
    1   AR   Ar  139   5.935   1.648   4.904
    1   AR   Ar  140   4.211   0.946   4.269
    1   AR   Ar  141   3.806   6.351   4.288
    1   AR   Ar  142   4.117   0.182   5.649
    1   AR   Ar  143   5.225   6.952   5.936
    1   AR   Ar  144   4.744   0.498   6.519
    1   AR   Ar  145   3.573   3.773   0.561
    1   AR   Ar  146   3.834   2.526   1.584
    1   AR   Ar  147   5.761   2.166  -0.730
    1   AR   Ar  148   4.928   4.465  -2.533
    1   AR   Ar  149   3.016   1.589   1.397
    1   AR   Ar  150   2.405   2.030   3.098
    1   AR   Ar  151   3.574   2.271   3.432
    1   AR   Ar  152   2.733   3.035   0.380
    1   AR   Ar  153   3.087   0.722   4.017
    1   AR   Ar  154   4.033   1.979   4.393
    1   AR   Ar  155   5.701   0.984   5.789
    1   AR   Ar  156   3.160   4.222   4.059
    1   AR   Ar  157   3.550   3.193   5.805
    1   AR   Ar  158   0.992   2.374   7.195
    1   AR   Ar  159   3.709   1.973   6.001
    1   AR   Ar  160   3.591   2.476   7.512
    1   AR   Ar  161   5.685   2.149   0.873
    1   AR   Ar  162   4.547   5.080  -0.464
    1   AR   Ar  163   5.462   2.995   0.105
    1   AR   Ar  164   3.831   4.951   1.085
    1   AR   Ar  165   3.061   3.197   1.423
    1   AR   Ar  166   2.515   4.935   3.811
    1   AR   Ar  167   4.463   2.041   2.849
    1   AR   Ar  168   4.620   3.449  -0.840
    1   AR   Ar  169   2.728   3.062   2.434
    1   AR   Ar  170   3.352   3.955   5.005
    1   AR   Ar  171   4.289   3.902   4.536
    1   AR   Ar  172   4.549   5.280   4.359
    1   AR   Ar  173   1.986   3.958   6.905
    1   AR   Ar  174   3.744   5.436   5.990
    1   AR   Ar  175   4.253   3.623   6.346
    1   AR   Ar  176   3.662   5.117   4.803
    1   AR   Ar  177   6.013   5.837  -0.302
    1   AR   Ar  178   3.100   6.382   1.367
    1   AR   Ar  179   3.946   5.757   0.428
    1   AR   Ar  180   3.972   2.920  -2.916
    1   AR   Ar  181   1.971   5.662   1.316
    1   AR   Ar  182   2.768   6.965   2.523
    1   AR   Ar  183   3.547   4.826   2.235
    1   AR   Ar  184   4.107   6.130   1.592
    1   AR   Ar  185   1.566   5.464   4.240
    1   AR   Ar  186   3.512   5.546   3.810
    1   AR   Ar  187   4.369   6.131   3.093
    1   AR   Ar  188   3.334   6.090   2.476
    1   AR   Ar  189   2.770   4.084   6.089
    1   AR   Ar  190   4.566   6.231   6.131
    1   AR   Ar  191   4.677   5.421   5.468
    1   AR   Ar  192   3.870   6.150   5.328
    1   AR   Ar  193   0.031   6.264  -0.005
    1   AR   Ar  194   5.592   4.303  -1.474
    1   AR   Ar  195   6.391   0.441  -0.564
    1   AR   Ar  196   4.386   1.508  -0.663
    1   AR   Ar  197   5.287   0.950   0.365
    1   AR   Ar  198   6.159   1.415   1.471
    1   AR   Ar  199   4.910   1.186   1.341
    1   AR   Ar  200   6.610   1.690   0.352
    1   AR   Ar  201   4.988   6.905   3.382
    1   AR   Ar  202   5.166   2.581   4.160
    1   AR   Ar  203   6.762   6.638   5.291
    1   AR   Ar  204   5.183   0.766   3.808
    1   AR   Ar  205   5.964   0.326   3.196
    1   AR   Ar  206   5.200   0.270   4.816
    1   AR   Ar  207   6.739   0.470   6.065
    1   AR   Ar  208   6.867   0.155   4.039
    1   AR   Ar  209   4.712   2.227  -1.635
    1   AR   Ar  210   3.842   0.874   1.006
    1   AR   Ar  211   6.479   3.050   0.471
    1   AR   Ar  212   6.538   3.836  -1.757
    1   AR   Ar  213   3.263   1.774   2.405
    1   AR   Ar  214   3.551   3.648   2.657
    1   AR   Ar  215   6.020   2.373   1.857
    1   AR   Ar  216   6.737   3.612   1.501
    1   AR   Ar  217   4.652   3.126   3.307
    1   AR   Ar  218   4.440   2.788   5.009
    1   AR   Ar  219   5.367   1.688   3.443
    1   AR   Ar  220   5.404   2.680   2.735
    1   AR   Ar  221   6.363   0.582   4.834
    1   AR   Ar  222   4.542   1.435   5.954
    1   AR   Ar  223   0.023   0.599   7.027
    1   AR   Ar  224   5.245   2.272   5.409
    1   AR   Ar  225   5.362   5.237   0.389
    1   AR   Ar  226   5.067   4.235   2.383
    1   AR   Ar  227   6.603   4.796  -0.050
    1   AR   Ar  228   5.051   5.769   1.096
    1   AR   Ar  229   5.892   3.918   0.111
    1   AR   Ar  230   4.576   4.539   3.615
    1   AR   Ar  231   6.524   2.110   3.151
    1   AR   Ar  232   4.593   3.146   0.631
    1   AR   Ar  233   6.407   2.509   4.598
    1   AR   Ar  234   0.029   3.423   4.661
    1   AR   Ar  235   0.345   2.226   4.190
    1   AR   Ar  236   5.325   4.350   4.611
    1   AR   Ar  237   5.821   3.489   4.021
    1   AR   Ar  238   4.705   4.232   5.562
    1   AR   Ar  239   6.488   3.867   9.221
    1   AR   Ar  240   6.954   3.927   5.662
    1   AR   Ar  241   0.302   0.169   0.086
    1   AR   Ar  242   5.227   4.623   1.239
    1   AR   Ar  243   6.104   3.844   2.553
    1   AR   Ar  244   0.539   4.878  -1.634
    1   AR   Ar  245   5.827   0.475   2.119
    1   AR   Ar  246   5.884   6.379   1.416
    1   AR   Ar  247   5.660   3.378   1.136
    1   AR   Ar  248   5.421   6.660   0.560
    1   AR   Ar  249   5.149   5.323   2.340
    1   AR   Ar  250   4.862   6.300   5.038
    1   AR   Ar  251   5.569   5.397   4.786
    1   AR   Ar  252   5.217   5.905   3.580
    1   AR   Ar  253   5.692   4.809   5.607
    1   AR   Ar  254   5.256   5.179   6.582
    1   AR   Ar  255   5.049   3.935   7.045
    1   AR   Ar  256   5.886   6.736   4.102
    7.12000  7.12000 12.00000
Argon-slab step 2005
  256
    1   AR   Ar    1   6.765   1.765  -0.801
    1   AR   Ar    2   6.337   0.430   1.172
    1   AR   Ar    3   0.103   6.987   1.004
    1   AR   Ar    4   1.255   7.058   0.415
    1   AR   Ar    5   6.610   5.672   0.697
    1   AR   Ar    6   6.892   0.562   2.898
    1   AR   Ar    7   0.002   5.137   3.002
    1   AR   Ar    8   6.732   6.954   2.064
    1   AR   Ar    9   0.932   0.446   4.373
    1   AR   Ar   10   1.241   1.439   4.329
    1   AR   Ar   11   3.014   6.844   4.804
    1   AR   Ar   12   1.095   0.750   3.175
    1   AR   Ar   13   7.101   1.450   5.072
    1   AR   Ar   14   0.828   1.597   6.407
    1   AR   Ar   15   7.091   0.338   9.113
    1   AR   Ar   16   1.646   1.390   5.274
    1   AR   Ar   17   0.778   1.120  -0.096
    1   AR   Ar   18   6.114   3.193  -0.652
    1   AR   Ar   19   1.211   2.159   1.431
    1   AR   Ar   20   6.161   3.772  -2.789
    1   AR   Ar   21   6.187   1.315   2.504
    1   AR   Ar   22   0.011   1.790   2.426
    1   AR   Ar   23   0.181   1.148   1.169
    1   AR   Ar   24   0.121   2.169   1.379
    1   AR   Ar   25   0.319   1.372   3.518
    1   AR   Ar   26   6.366   1.380   3.933
    1   AR   Ar   27   2.171   1.129   3.500
    1   AR   Ar   28   1.341   2.544   4.736
    1   AR   Ar   29   5.692   1.778   6.857
    1   AR   Ar   30   0.939   2.319   5.674
    1   AR   Ar   31   0.700   7.004   6.775
    1   AR   Ar   32   1.762   3.238   6.050
    1   AR   Ar   33   1.853   4.594  -0.880
    1   AR   Ar   34   0.324   5.978   1.541
    1   AR   Ar   35   6.970   4.925   1.393
    1   AR   Ar   36   0.354   0.023  -2.797
    1   AR   Ar   37   7.013   2.781   2.190
    1   AR   Ar   38   0.137   3.944   2.371
    1   AR   Ar   39   1.049   4.322   2.629
    1   AR   Ar   40   1.318   4.105   1.524
    1   AR   Ar   41   0.526   2.737   3.183
    1   AR   Ar   42   6.685   5.320   5.050
    1   AR   Ar   43   6.877   2.632   5.689
    1   AR   Ar   44   0.574   4.329   3.604
    1   AR   Ar   45   0.888   3.387   5.316
    1   AR   Ar   46   0.808   5.733   6.225
    1   AR   Ar   47   6.157   3.706   6.440
    1   AR   Ar   48   6.489   6.400   6.423
    1   AR   Ar   49   6.315   7.072  -1.441
    1   AR   Ar   50   5.984   5.058   1.704
    1   AR   Ar   51   1.015   5.121   1.587
    1   AR   Ar   52   6.428   5.116  -1.058
    1   AR   Ar   53   5.849   6.154   2.658
    1   AR   Ar   54   6.689   6.641   3.102
    1   AR   Ar   55   6.053   5.216   3.024
    1   AR   Ar   56   0.731   0.068   2.088
    1   AR   Ar   57   6.690   3.149   3.147
    1   AR   Ar   58   6.314   5.799   4.033
    1   AR   Ar   59   1.892   5.391   5.367
    1   AR   Ar   60   0.646   6.577   4.188
    1   AR   Ar   61   5.648   5.955   5.596
    1   AR   Ar   62   0.575   5.775   4.743
    1   AR   Ar   63   1.631   6.463   6.476
    1   AR   Ar   64   0.920   6.566   5.408
    1   AR   Ar   65   3.431   6.806   0.225
    1   AR   Ar   66   1.414   0.947   1.092
    1   AR   Ar   67   3.514   6.084  -0.798
    1   AR   Ar   68   3.121   1.680  -1.563
    1   AR   Ar   69   2.448   1.018   0.970
    1   AR   Ar   70   1.286   1.129   2.153
    1   AR   Ar   71   3.055   0.721   2.917
    1   AR   Ar   72   3.198   0.514   1.828
    1   AR   Ar   73   2.060   7.105   3.597
    1   AR   Ar   74   2.081   0.904   4.481
    1   AR   Ar   75   3.195   0.950   5.260
    1   AR   Ar   76   2.290   1.217   2.380
    1   AR   Ar   77   2.070   6.702   5.525
    1   AR   Ar   78   1.486   0.596   6.579
    1   AR   Ar   79   3.432   5.962   6.834
    1   AR   Ar   80   2.847   5.644   5.566
    1   AR   Ar   81   1.941   1.091  -0.035
    1   AR   Ar   82   0.272   4.464  -0.606
    1   AR   Ar   83   2.216   2.266   0.986
    1   AR   Ar   84   0.387   3.499  -1.695
    1   AR   Ar   85   0.260   2.461  -0.045
    1   AR   Ar   86   1.858   3.217   1.817
    1   AR   Ar   87   2.092   2.192   2.054
    1   AR   Ar   88   4.307   3.991   1.508
    1   AR   Ar   89   0.899   3.147   2.211
    1   AR   Ar   90   2.864   1.838   4.537
    1   AR   Ar   91   1.979   2.272   3.948
    1   AR   Ar   92   1.319   2.049   2.727
    1   AR   Ar   93   2.433   2.022   5.539
    1   AR   Ar   94   0.901   1.678   8.376
    1   AR   Ar   95   3.136   6.729   5.961
    1   AR   Ar   96   2.188   0.632   5.930
    1   AR   Ar   97   3.818   2.442  -0.806
    1   AR   Ar   98   3.121   4.168   1.341
    1   AR   Ar   99   6.793   2.642  -1.560
    1   AR   Ar  100   1.881   3.715   0.015
    1   AR   Ar  101   2.201   3.835   1.001
    1   AR   Ar  102   2.523   3.194   3.699
    1   AR   Ar  103   1.007   4.888   0.463
    1   AR   Ar  104   2.794   2.393  -0.638
    1   AR   Ar  105   1.637   3.332   2.865
    1   AR   Ar  106   2.416   2.949   4.869
    1   AR   Ar  107   1.974   3.864   5.005
    1   AR   Ar  108   3.513   2.960   4.367
    1   AR   Ar  109   1.966   4.099   4.010
    1   AR   Ar  110   1.343   4.468   5.751
    1   AR   Ar  111   4.212   4.715   6.727
    1   AR   Ar  112   0.465   5.170   7.153
    1   AR   Ar  113   2.219   4.801   0.216
    1   AR   Ar  114   2.597   5.329  -0.579
    1   AR   Ar  115   2.902   3.752  -0.417
    1   AR   Ar  116   4.631   6.221  -0.174
    1   AR   Ar  117   0.717   5.730   3.694
    1   AR   Ar  118   0.651   6.625   3.006
    1   AR   Ar  119   2.460   4.119   2.847
    1   AR   Ar  120   1.159   5.701   2.732
    1   AR   Ar  121   6.954   4.630   4.328
    1   AR   Ar  122   2.785   5.807   4.620
    1   AR   Ar  123   2.647   4.767   5.014
    1   AR   Ar  124   2.285   5.571   3.056
    1   AR   Ar  125   0.527   4.546   5.136
    1   AR   Ar  126   0.438   0.508   5.236
    1   AR   Ar  127   3.061   5.271   7.778
    1   AR   Ar  128   2.138   5.367   6.454
    1   AR   Ar  129   1.774   7.111   2.514
    1   AR   Ar  130   2.860   1.352  -3.566
    1   AR   Ar  131   4.455   7.008   0.630
    1   AR   Ar  132   0.653   2.316  -1.669
    1   AR   Ar  133   3.817   0.145   3.583
    1   AR   Ar  134   3.955   1.149   2.954
    1   AR   Ar  135   5.054   0.762   2.761
    1   AR   Ar  136   4.295   0.024   1.890
    1   AR   Ar  137   2.934   6.394   3.449
    1   AR   Ar  138   5.024   1.210   4.922
    1   AR   Ar  139   5.935   1.642   4.894
    1   AR   Ar  140   4.176   0.932   4.262
    1   AR   Ar  141   3.823   6.358   4.287
    1   AR   Ar  142   4.099   0.183   5.663
    1   AR   Ar  143   5.255   6.943   5.910
    1   AR   Ar  144   4.727   0.518   6.509
    1   AR   Ar  145   3.576   3.769   0.579
    1   AR   Ar  146   3.809   2.509   1.578
    1   AR   Ar  147   5.769   2.146  -0.717
    1   AR   Ar  148   4.927   4.441  -2.526
    1   AR   Ar  149   3.019   1.621   1.428
    1   AR   Ar  150   2.414   2.022   3.067
    1   AR   Ar  151   3.566   2.252   3.442
    1   AR   Ar  152   2.721   3.006   0.372
    1   AR   Ar  153   3.062   0.739   3.992
    1   AR   Ar  154   4.045   1.959   4.413
    1   AR   Ar  155   5.724   0.973   5.783
    1   AR   Ar  156   3.146   4.228   4.078
    1   AR   Ar  157   3.548   3.193   5.831
    1   AR   Ar  158   0.967   2.334   7.213
    1   AR   Ar  159   3.745   1.986   6.026
    1   AR   Ar  160   3.612   2.468   7.503
    1   AR   Ar  161   5.706   2.134   0.899
    1   AR   Ar  162   4.587   5.068  -0.435
    1   AR   Ar  163   5.451   2.977   0.106
    1   AR   Ar  164   3.824   4.926   1.105
    1   AR   Ar  165   3.078   3.217   1.449
    1   AR   Ar  166   2.494   4.987   3.792
    1   AR   Ar  167   4.440   2.022   2.848
    1   AR   Ar  168   4.657   3.469  -0.831
    1   AR   Ar  169   2.724   3.023   2.402
    1   AR   Ar  170   3.349   3.959   5.020
    1   AR   Ar  171   4.266   3.921   4.503
    1   AR   Ar  172   4.544   5.281   4.356
    1   AR   Ar  173   1.987   3.936   6.919
    1   AR   Ar  174   3.703   5.429   5.991
    1   AR   Ar  175   4.263   3.620   6.347
    1   AR   Ar  176   3.645   5.104   4.801
    1   AR   Ar  177   6.034   5.838  -0.297
    1   AR   Ar  178   3.085   6.362   1.357
    1   AR   Ar  179   3.959   5.759   0.409
    1   AR   Ar  180   3.929   2.936  -2.890
    1   AR   Ar  181   1.952   5.659   1.296
    1   AR   Ar  182   2.782   6.962   2.552
    1   AR   Ar  183   3.529   4.799   2.227
    1   AR   Ar  184   4.117   6.097   1.597
    1   AR   Ar  185   1.545   5.468   4.223
    1   AR   Ar  186   3.518   5.495   3.804
    1   AR   Ar  187   4.383   6.162   3.087
    1   AR   Ar  188   3.348   6.068   2.463
    1   AR   Ar  189   2.820   4.066   6.092
    1   AR   Ar  190   4.556   6.229   6.109
    1   AR   Ar  191   4.658   5.399   5.475
    1   AR   Ar  192   3.888   6.158   5.362
    1   AR   Ar  193   0.042   6.242  -0.007
    1   AR   Ar  194   5.585   4.328  -1.493
    1   AR   Ar  195   6.419   0.434  -0.595
    1   AR   Ar  196   4.381   1.544  -0.626
    1   AR   Ar  197   5.287   0.965   0.359
    1   AR   Ar  198   6.152   1.417   1.473
    1   AR   Ar  199   4.884   1.177   1.326
    1   AR   Ar  200   6.603   1.685   0.348
    1   AR   Ar  201   5.006   6.889   3.336
    1   AR   Ar  202   5.161   2.565   4.195
    1   AR   Ar  203   6.737   6.601   5.265
    1   AR   Ar  204   5.197   0.790   3.820
    1   AR   Ar  205   5.969   0.343   3.204
    1   AR   Ar  206   5.195   0.234   4.823
    1   AR   Ar  207   6.752   0.468   6.062
    1   AR   Ar  208   6.865   0.135   4.051
    1   AR   Ar  209   4.715   2.241  -1.621
    1   AR   Ar  210   3.852   0.899   1.015
    1   AR   Ar  211   6.448   3.033   0.449
    1   AR   Ar  212   6.536   3.826  -1.763
    1   AR   Ar  213   3.285   1.733   2.389
    1   AR   Ar  214   3.556   3.641   2.646
    1   AR   Ar  215   6.039   2.384   1.841
    1   AR   Ar  216   6.736   3.629   1.505
    1   AR   Ar  217   4.651   3.124   3.312
    1   AR   Ar  218   4.429   2.789   5.051
    1   AR   Ar  219   5.365   1.709   3.431
    1   AR   Ar  220   5.430   2.671   2.761
    1   AR   Ar  221   6.365   0.600   4.839
    1   AR   Ar  222   4.507   1.448   5.919
    1   AR   Ar  223   0.004   0.615   7.028
    1   AR   Ar  224   5.259   2.283   5.419
    1   AR   Ar  225   5.363   5.226   0.397
    1   AR   Ar  226   5.060   4.214   2.385
    1   AR   Ar  227   6.629   4.800  -0.071
    1   AR   Ar  228   5.030   5.769   1.120
    1   AR   Ar  229   5.888   3.930   0.091
    1   AR   Ar  230   4.577   4.531   3.618
    1   AR   Ar  231   6.493   2.102   3.112
    1   AR   Ar  232   4.576   3.112   0.634
    1   AR   Ar  233   6.445   2.490   4.576
    1   AR   Ar  234   0.040   3.426   4.640
    1   AR   Ar  235   0.343   2.227   4.175
    1   AR   Ar  236   5.327   4.337   4.636
    1   AR   Ar  237   5.839   3.495   4.023
    1   AR   Ar  238   4.690   4.216   5.582
    1   AR   Ar  239   6.515   3.867   9.218
    1   AR   Ar  240   6.945   3.947   5.686
    1   AR   Ar  241   0.301   0.147   0.113
    1   AR   Ar  242   5.199   4.633   1.262
    1   AR   Ar  243   6.083   3.833   2.566
    1   AR   Ar  244   0.542   4.861  -1.653
    1   AR   Ar  245   5.834   0.483   2.065
    1   AR   Ar  246   5.875   6.369   1.424
    1   AR   Ar  247   5.639   3.426   1.117
    1   AR   Ar  248   5.422   6.640   0.538
    1   AR   Ar  249   5.145   5.316   2.299
    1   AR   Ar  250   4.873   6.314   5.051
    1   AR   Ar  251   5.552   5.388   4.765
    1   AR   Ar  252   5.229   5.957   3.579
    1   AR   Ar  253   5.670   4.807   5.610
    1   AR   Ar  254   5.240   5.194   6.570
    1   AR   Ar  255   5.049   3.888   7.077
    1   AR   Ar  256   5.883   6.725   4.090
    7.12000  7.12000 12.00000
Argon-slab step 2010
  256
    1   AR   Ar    1   6.743   1.768  -0.782
    1   AR   Ar    2   6.336   0.431   1.146
    1   AR   Ar    3   0.113   6.963   1.048
    1   AR   Ar    4   1.264   7.068   0.421
    1   AR   Ar    5   6.605   5.662   0.649
    1   AR   Ar    6   6.879   0.585   2.859
    1   AR   Ar    7   0.022   5.130   3.014
    1   AR   Ar    8   6.767   6.958   2.053
    1   AR   Ar    9   0.934   0.447   4.363
    1   AR   Ar   10   1.232   1.438   4.331
    1   AR   Ar   11   3.010   6.852   4.791
    1   AR   Ar   12   1.060   0.756   3.167
    1   AR   Ar   13   7.114   1.487   5.114
    1   AR   Ar   14   0.844   1.589   6.407
    1   AR   Ar   15   7.068   0.327   9.122
    1   AR   Ar   16   1.665   1.391   5.281
    1   AR   Ar   17   0.818   1.113  -0.096
    1   AR   Ar   18   6.136   3.189  -0.650
    1   AR   Ar   19   1.192   2.180   1.439
    1   AR   Ar   20   6.176   3.753  -2.792
    1   AR   Ar   21   6.191   1.312   2.504
    1   AR   Ar   22   0.049   1.819   2.433
    1   AR   Ar   23   0.191   1.146   1.128
    1   AR   Ar   24   0.157   2.161   1.360
    1   AR   Ar   25   0.348   1.410   3.537
    1   AR   Ar   26   6.361   1.378   3.958
    1   AR   Ar   27   2.180   1.096   3.480
    1   AR   Ar   28   1.329   2.535   4.741
    1   AR   Ar   29   5.692   1.777   6.855
    1   AR   Ar   30   0.964   2.318   5.655
    1   AR   Ar   31   0.704   6.982   6.762
    1   AR   Ar   32   1.739   3.228   6.068
    1   AR   Ar   33   1.831   4.593  -0.897
    1   AR   Ar   34   0.313   6.012   1.564
    1   AR   Ar   35   6.972   4.965   1.396
    1   AR   Ar   36   0.350   0.044  -2.840
    1   AR   Ar   37   7.014   2.804   2.204
    1   AR   Ar   38   0.156   3.945   2.346
    1   AR   Ar   39   1.062   4.334   2.625
    1   AR   Ar   40   1.335   4.106   1.532
    1   AR   Ar   41   0.492   2.726   3.169
    1   AR   Ar   42   6.678   5.324   5.079
    1   AR   Ar   43   6.856   2.632   5.701
    1   AR   Ar   44   0.579   4.335   3.617
    1   AR   Ar   45   0.878   3.367   5.341
    1   AR   Ar   46   0.809   5.733   6.202
    1   AR   Ar   47   6.177   3.705   6.423
    1   AR   Ar   48   6.492   6.389   6.436
    1   AR   Ar   49   6.317   7.086  -1.434
    1   AR   Ar   50   5.953   5.040   1.733
    1   AR   Ar   51   0.992   5.119   1.604
    1   AR   Ar   52   6.398   5.116  -1.044
    1   AR   Ar   53   5.828   6.160   2.644
    1   AR   Ar   54   6.695   6.651   3.101
    1   AR   Ar   55   6.047   5.205   3.070
    1   AR   Ar   56   0.712   0.082   2.105
    1   AR   Ar   57   6.669   3.156   3.168
    1   AR   Ar   58   6.292   5.789   4.025
    1   AR   Ar   59   1.894   5.382   5.355
    1   AR   Ar   60   0.645   6.538   4.205
    1   AR   Ar   61   5.646   5.934   5.585
    1   AR   Ar   62   0.574   5.776   4.766
    1   AR   Ar   63   1.663   6.469   6.496
    1   AR   Ar   64   0.917   6.555   5.432
    1   AR   Ar   65   3.459   6.806   0.185
    1   AR   Ar   66   1.418   0.932   1.100
    1   AR   Ar   67   3.526   6.068  -0.804
    1   AR   Ar   68   3.122   1.698  -1.553
    1   AR   Ar   69   2.447   1.002   0.953
    1   AR   Ar   70   1.270   1.137   2.169
    1   AR   Ar   71   3.060   0.699   2.903
    1   AR   Ar   72   3.210   0.498   1.837
    1   AR   Ar   73   2.071   7.075   3.607
    1   AR   Ar   74   2.078   0.909   4.512
    1   AR   Ar   75   3.229   0.959   5.269
    1   AR   Ar   76   2.313   1.207   2.326
    1   AR   Ar   77   2.092   6.713   5.539
    1   AR   Ar   78   1.450   0.589   6.582
    1   AR   Ar   79   3.421   5.942   6.823
    1   AR   Ar   80   2.855   5.621   5.575
    1   AR   Ar   81   1.930   1.051  -0.016
    1   AR   Ar   82   0.278   4.506  -0.588
    1   AR   Ar   83   2.230   2.261   0.963
    1   AR   Ar   84   0.377   3.488  -1.664
    1   AR   Ar   85   0.263   2.481  -0.063
    1   AR   Ar   86   1.831   3.243   1.806
    1   AR   Ar   87   2.082   2.188   2.037
    1   AR   Ar   88   4.293   3.981   1.500
    1   AR   Ar   89   0.930   3.151   2.197
    1   AR   Ar   90   2.862   1.824   4.539
    1   AR   Ar   91   1.989   2.258   3.946
    1   AR   Ar   92   1.291   2.061   2.718
    1   AR   Ar   93   2.414   2.020   5.547
    1   AR   Ar   94   0.888   1.640   8.407
    1   AR   Ar   95   3.136   6.723   5.963
    1   AR   Ar   96   2.234   0.609   5.941
    1   AR   Ar   97   3.850   2.391  -0.768
    1   AR   Ar   98   3.127   4.162   1.347
    1   AR   Ar   99   6.765   2.662  -1.569
    1   AR   Ar  100   1.892   3.691   0.010
    1   AR   Ar  101   2.227   3.838   1.011
    1   AR   Ar  102   2.524   3.167   3.694
    1   AR   Ar  103   0.989   4.926   0.470
    1   AR   Ar  104   2.769   2.409  -0.629
    1   AR   Ar  105   1.620   3.333   2.863
    1   AR   Ar  106   2.408   2.926   4.847
    1   AR   Ar  107   1.948   3.870   4.988
    1   AR   Ar  108   3.483   2.987   4.341
    1   AR   Ar  109   1.972   4.080   3.961
    1   AR   Ar  110   1.329   4.473   5.763
    1   AR   Ar  111   4.191   4.697   6.724
    1   AR   Ar  112   0.459   5.172   7.169
    1   AR   Ar  113   2.238   4.829   0.220
    1   AR   Ar  114   2.603   5.306  -0.615
    1   AR   Ar  115   2.900   3.742  -0.390
    1   AR   Ar  116   4.628   6.203  -0.183
    1   AR   Ar  117   0.764   5.736   3.663
    1   AR   Ar  118   0.665   6.637   3.006
    1   AR   Ar  119   2.455   4.102   2.814
    1   AR   Ar  120   1.151   5.677   2.709
    1   AR   Ar  121   6.953   4.638   4.298
    1   AR   Ar  122   2.780   5.833   4.611
    1   AR   Ar  123   2.683   4.769   5.009
    1   AR   Ar  124   2.320   5.587   3.037
    1   AR   Ar  125   0.530   4.586   5.131
    1   AR   Ar  126   0.423   0.517   5.232
    1   AR   Ar  127   3.081   5.255   7.785
    1   AR   Ar  128   2.135   5.376   6.441
    1   AR   Ar  129   1.776   7.110   2.529
    1   AR   Ar  130   2.852   1.383  -3.567
    1   AR   Ar  131   4.437   6.994   0.663
    1   AR   Ar  132   0.661   2.335  -1.670
    1   AR   Ar  133   3.848   0.151   3.581
    1   AR   Ar  134   3.990   1.129   2.986
    1   AR   Ar  135   5.079   0.728   2.746
    1   AR   Ar  136   4.297   7.119   1.909
    1   AR   Ar  137   2.905   6.369   3.453
    1   AR   Ar  138   5.050   1.180   4.930
    1   AR   Ar  139   5.941   1.634   4.886
    1   AR   Ar  140   4.141   0.915   4.255
    1   AR   Ar  141   3.837   6.372   4.289
    1   AR   Ar  142   4.091   0.190   5.656
    1   AR   Ar  143   5.291   6.938   5.879
    1   AR   Ar  144   4.712   0.531   6.503
    1   AR   Ar  145   3.587   3.758   0.586
    1   AR   Ar  146   3.787   2.486   1.572
    1   AR   Ar  147   5.774   2.126  -0.703
    1   AR   Ar  148   4.922   4.431  -2.535
    1   AR   Ar  149   3.034   1.668   1.464
    1   AR   Ar  150   2.430   2.021   3.030
    1   AR   Ar  151   3.532   2.228   3.454
    1   AR   Ar  152   2.710   2.979   0.365
    1   AR   Ar  153   3.037   0.758   3.972
    1   AR   Ar  154   4.057   1.942   4.434
    1   AR   Ar  155   5.746   0.960   5.776
    1   AR   Ar  156   3.134   4.234   4.091
    1   AR   Ar  157   3.536   3.187   5.848
    1   AR   Ar  158   0.942   2.293   7.233
    1   AR   Ar  159   3.758   2.016   6.053
    1   AR   Ar  160   3.633   2.459   7.493
    1   AR   Ar  161   5.724   2.123   0.916
    1   AR   Ar  162   4.626   5.058  -0.404
    1   AR   Ar  163   5.437   2.953   0.107
    1   AR   Ar  164   3.820   4.903   1.125
    1   AR   Ar  165   3.090   3.222   1.472
    1   AR   Ar  166   2.477   5.035   3.787
    1   AR   Ar  167   4.422   2.010   2.846
    1   AR   Ar  168   4.696   3.487  -0.820
    1   AR   Ar  169   2.718   2.982   2.377
    1   AR   Ar  170   3.346   3.960   5.045
    1   AR   Ar  171   4.245   3.939   4.471
    1   AR   Ar  172   4.544   5.285   4.352
    1   AR   Ar  173   1.988   3.914   6.932
    1   AR   Ar  174   3.673   5.406   6.003
    1   AR   Ar  175   4.281   3.622   6.352
    1   AR   Ar  176   3.625   5.090   4.804
    1   AR   Ar  177   6.056   5.834  -0.286
    1   AR   Ar  178   3.070   6.343   1.347
    1   AR   Ar  179   3.968   5.758   0.395
    1   AR   Ar  180   3.887   2.952  -2.865
    1   AR   Ar  181   1.933   5.656   1.276
    1   AR   Ar  182   2.796   6.951   2.577
    1   AR   Ar  183   3.510   4.771   2.219
    1   AR   Ar  184   4.126   6.062   1.602
    1   AR   Ar  185   1.531   5.471   4.210
    1   AR   Ar  186   3.524   5.440   3.794
    1   AR   Ar  187   4.381   6.186   3.074
    1   AR   Ar  188   3.364   6.043   2.450
    1   AR   Ar  189   2.869   4.047   6.093
    1   AR   Ar  190   4.546   6.227   6.097
    1   AR   Ar  191   4.676   5.388   5.487
    1   AR   Ar  192   3.902   6.169   5.376
    1   AR   Ar  193   0.053   6.220  -0.010
    1   AR   Ar  194   5.578   4.353  -1.511
    1   AR   Ar  195   6.449   0.435  -0.612
    1   AR   Ar  196   4.382   1.563  -0.604
    1   AR   Ar  197   5.289   0.986   0.358
    1   AR   Ar  198   6.149   1.413   1.474
    1   AR   Ar  199   4.859   1.167   1.314
    1   AR   Ar  200   6.585   1.691   0.362
    1   AR   Ar  201   5.028   6.892   3.290
    1   AR   Ar  202   5.141   2.575   4.203
    1   AR   Ar  203   6.712   6.565   5.238
    1   AR   Ar  204   5.211   0.808   3.839
    1   AR   Ar  205   5.966   0.359   3.215
    1   AR   Ar  206   5.194   0.189   4.829
    1   AR   Ar  207   6.763   0.464   6.053
    1   AR   Ar  208   6.866   0.115   4.059
    1   AR   Ar  209   4.718   2.254  -1.605
    1   AR   Ar  210   3.861   0.923   1.024
    1   AR   Ar  211   6.420   3.014   0.429
    1   AR   Ar  212   6.529   3.817  -1.766
    1   AR   Ar  213   3.308   1.696   2.380
    1   AR   Ar  214   3.561   3.617   2.649
    1   AR   Ar  215   6.061   2.401   1.832
    1   AR   Ar  216   6.733   3.645   1.506
    1   AR   Ar  217   4.648   3.122   3.319
    1   AR   Ar  218   4.413   2.793   5.091
    1   AR   Ar  219   5.366   1.737   3.415
    1   AR   Ar  220   5.460   2.659   2.787
    1   AR   Ar  221   6.364   0.619   4.846
    1   AR   Ar  222   4.494   1.444   5.879
    1   AR   Ar  223   7.093   0.631   7.003
    1   AR   Ar  224   5.275   2.292   5.430
    1   AR   Ar  225   5.373   5.207   0.389
    1   AR   Ar  226   5.052   4.194   2.386
    1   AR   Ar  227   6.645   4.808  -0.083
    1   AR   Ar  228   5.003   5.778   1.157
    1   AR   Ar  229   5.886   3.946   0.074
    1   AR   Ar  230   4.575   4.522   3.623
    1   AR   Ar  231   6.456   2.100   3.083
    1   AR   Ar  232   4.554   3.080   0.640
    1   AR   Ar  233   6.484   2.474   4.551
    1   AR   Ar  234   0.050   3.429   4.619
    1   AR   Ar  235   0.341   2.230   4.162
    1   AR   Ar  236   5.313   4.331   4.659
    1   AR   Ar  237   5.854   3.491   4.038
    1   AR   Ar  238   4.676   4.203   5.600
    1   AR   Ar  239   6.543   3.868   9.215
    1   AR   Ar  240   6.935   3.964   5.709
    1   AR   Ar  241   0.297   0.135   0.119
    1   AR   Ar  242   5.163   4.637   1.284
    1   AR   Ar  243   6.063   3.823   2.577
    1   AR   Ar  244   0.553   4.851  -1.627
    1   AR   Ar  245   5.817   0.481   2.047
    1   AR   Ar  246   5.873   6.356   1.436
    1   AR   Ar  247   5.618   3.474   1.099
    1   AR   Ar  248   5.427   6.620   0.511
    1   AR   Ar  249   5.139   5.311   2.258
    1   AR   Ar  250   4.882   6.334   5.055
    1   AR   Ar  251   5.534   5.381   4.734
    1   AR   Ar  252   5.252   5.994   3.587
    1   AR   Ar  253   5.644   4.793   5.615
    1   AR   Ar  254   5.222   5.208   6.556
    1   AR   Ar  255   5.051   3.841   7.107
    1   AR   Ar  256   5.881   6.720   4.063
    7.12000  7.12000 12.00000
Argon-slab step 2015
  256
    1   AR   Ar    1   6.735   1.762  -0.782
    1   AR   Ar    2   6.350   0.424   1.128
    1   AR   Ar    3   0.122   6.936   1.101
    1   AR   Ar    4   1.279   7.068   0.417
    1   AR   Ar    5   6.597   5.651   0.605
    1   AR   Ar    6   6.877   0.610   2.819
    1   AR   Ar    7   0.035   5.135   3.015
    1   AR   Ar    8   6.799   6.961   2.041
    1   AR   Ar    9   0.939   0.445   4.345
    1   AR   Ar   10   1.215   1.447   4.327
    1   AR   Ar   11   3.014   6.869   4.802
    1   AR   Ar   12   1.029   0.757   3.159
    1   AR   Ar   13   7.094   1.466   5.123
    1   AR   Ar   14   0.860   1.577   6.408
    1   AR   Ar   15   7.046   0.316   9.132
    1   AR   Ar   16   1.674   1.392   5.298
    1   AR   Ar   17   0.857   1.106  -0.093
    1   AR   Ar   18   6.161   3.185  -0.653
    1   AR   Ar   19   1.176   2.200   1.448
    1   AR   Ar   20   6.191   3.736  -2.796
    1   AR   Ar   21   6.206   1.306   2.498
    1   AR   Ar   22   0.077   1.829   2.410
    1   AR   Ar   23   0.201   1.139   1.085
    1   AR   Ar   24   0.187   2.157   1.340
    1   AR   Ar   25   0.374   1.446   3.555
    1   AR   Ar   26   6.358   1.375   3.979
    1   AR   Ar   27   2.184   1.064   3.456
    1   AR   Ar   28   1.319   2.527   4.741
    1   AR   Ar   29   5.692   1.775   6.851
    1   AR   Ar   30   0.987   2.316   5.640
    1   AR   Ar   31   0.707   6.957   6.748
    1   AR   Ar   32   1.716   3.219   6.083
    1   AR   Ar   33   1.807   4.591  -0.912
    1   AR   Ar   34   0.301   6.047   1.589
    1   AR   Ar   35   6.978   5.004   1.400
    1   AR   Ar   36   0.346   0.064  -2.884
    1   AR   Ar   37   7.013   2.833   2.218
    1   AR   Ar   38   0.172   3.945   2.324
    1   AR   Ar   39   1.081   4.349   2.621
    1   AR   Ar   40   1.346   4.110   1.540
    1   AR   Ar   41   0.462   2.712   3.154
    1   AR   Ar   42   6.689   5.338   5.085
    1   AR   Ar   43   6.836   2.631   5.711
    1   AR   Ar   44   0.586   4.347   3.611
    1   AR   Ar   45   0.869   3.349   5.367
    1   AR   Ar   46   0.811   5.733   6.179
    1   AR   Ar   47   6.194   3.704   6.408
    1   AR   Ar   48   6.475   6.377   6.461
    1   AR   Ar   49   6.344   7.072  -1.468
    1   AR   Ar   50   5.936   5.025   1.762
    1   AR   Ar   51   0.968   5.118   1.622
    1   AR   Ar   52   6.368   5.115  -1.034
    1   AR   Ar   53   5.805   6.168   2.628
    1   AR   Ar   54   6.701   6.659   3.103
    1   AR   Ar   55   6.038   5.193   3.117
    1   AR   Ar   56   0.693   0.099   2.120
    1   AR   Ar   57   6.645   3.165   3.191
    1   AR   Ar   58   6.275   5.773   4.016
    1   AR   Ar   59   1.886   5.387   5.357
    1   AR   Ar   60   0.644   6.528   4.216
    1   AR   Ar   61   5.651   5.913   5.583
    1   AR   Ar   62   0.569   5.757   4.803
    1   AR   Ar   63   1.694   6.475   6.516
    1   AR   Ar   64   0.916   6.546   5.457
    1   AR   Ar   65   3.487   6.804   0.146
    1   AR   Ar   66   1.417   0.916   1.107
    1   AR   Ar   67   3.539   6.051  -0.808
    1   AR   Ar   68   3.124   1.717  -1.541
    1   AR   Ar   69   2.446   0.981   0.934
    1   AR   Ar   70   1.252   1.144   2.183
    1   AR   Ar   71   3.066   0.690   2.895
    1   AR   Ar   72   3.222   0.485   1.845
    1   AR   Ar   73   2.083   7.048   3.616
    1   AR   Ar   74   2.084   0.905   4.540
    1   AR   Ar   75   3.263   0.969   5.278
    1   AR   Ar   76   2.338   1.193   2.270
    1   AR   Ar   77   2.115   6.723   5.550
    1   AR   Ar   78   1.428   0.550   6.563
    1   AR   Ar   79   3.413   5.924   6.823
    1   AR   Ar   80   2.852   5.608   5.588
    1   AR   Ar   81   1.918   1.010   0.004
    1   AR   Ar   82   0.285   4.531  -0.583
    1   AR   Ar   83   2.243   2.254   0.942
    1   AR   Ar   84   0.373   3.476  -1.632
    1   AR   Ar   85   0.263   2.501  -0.081
    1   AR   Ar   86   1.816   3.264   1.791
    1   AR   Ar   87   2.073   2.185   2.017
    1   AR   Ar   88   4.289   3.973   1.509
    1   AR   Ar   89   0.941   3.149   2.179
    1   AR   Ar   90   2.868   1.810   4.575
    1   AR   Ar   91   1.998   2.243   3.946
    1   AR   Ar   92   1.260   2.076   2.712
    1   AR   Ar   93   2.376   2.024   5.507
    1   AR   Ar   94   0.874   1.603   8.438
    1   AR   Ar   95   3.143   6.718   5.968
    1   AR   Ar   96   2.288   0.587   5.945
    1   AR   Ar   97   3.878   2.349  -0.733
    1   AR   Ar   98   3.125   4.184   1.354
    1   AR   Ar   99   6.734   2.682  -1.576
    1   AR   Ar  100   1.900   3.667   0.003
    1   AR   Ar  101   2.252   3.838   1.018
    1   AR   Ar  102   2.525   3.142   3.687
    1   AR   Ar  103   0.970   4.963   0.478
    1   AR   Ar  104   2.744   2.425  -0.619
    1   AR   Ar  105   1.613   3.336   2.873
    1   AR   Ar  106   2.402   2.901   4.823
    1   AR   Ar  107   1.936   3.875   4.998
    1   AR   Ar  108   3.452   3.014   4.316
    1   AR   Ar  109   1.978   4.062   3.909
    1   AR   Ar  110   1.321   4.476   5.779
    1   AR   Ar  111   4.171   4.680   6.719
    1   AR   Ar  112   0.452   5.176   7.184
    1   AR   Ar  113   2.255   4.852   0.229
    1   AR   Ar  114   2.613   5.287  -0.655
    1   AR   Ar  115   2.889   3.732  -0.398
    1   AR   Ar  116   4.633   6.189  -0.198
    1   AR   Ar  117   0.800   5.733   3.621
    1   AR   Ar  118   0.679   6.650   3.009
    1   AR   Ar  119   2.451   4.085   2.782
    1   AR   Ar  120   1.145   5.651   2.680
    1   AR   Ar  121   6.949   4.648   4.268
    1   AR   Ar  122   2.774   5.858   4.589
    1   AR   Ar  123   2.711   4.767   5.001
    1   AR   Ar  124   2.348   5.616   2.998
    1   AR   Ar  125   0.530   4.626   5.123
    1   AR   Ar  126   0.404   0.522   5.234
    1   AR   Ar  127   3.102   5.240   7.791
    1   AR   Ar  128   2.132   5.384   6.428
    1   AR   Ar  129   1.771   7.112   2.544
    1   AR   Ar  130   2.859   1.394  -3.537
    1   AR   Ar  131   4.417   6.979   0.698
    1   AR   Ar  132   0.669   2.353  -1.670
    1   AR   Ar  133   3.879   0.149   3.573
    1   AR   Ar  134   4.026   1.100   3.023
    1   AR   Ar  135   5.098   0.697   2.731
    1   AR   Ar  136   4.298   7.096   1.927
    1   AR   Ar  137   2.880   6.343   3.462
    1   AR   Ar  138   5.066   1.155   4.938
    1   AR   Ar  139   5.954   1.628   4.879
    1   AR   Ar  140   4.107   0.896   4.249
    1   AR   Ar  141   3.848   6.388   4.291
    1   AR   Ar  142   4.098   0.176   5.628
    1   AR   Ar  143   5.330   6.936   5.848
    1   AR   Ar  144   4.712   0.509   6.507
    1   AR   Ar  145   3.603   3.741   0.583
    1   AR   Ar  146   3.756   2.502   1.605
    1   AR   Ar  147   5.775   2.108  -0.687
    1   AR   Ar  148   4.913   4.429  -2.555
    1   AR   Ar  149   3.046   1.718   1.485
    1   AR   Ar  150   2.449   2.022   2.990
    1   AR   Ar  151   3.496   2.204   3.466
    1   AR   Ar  152   2.702   2.954   0.358
    1   AR   Ar  153   3.014   0.776   3.956
    1   AR   Ar  154   4.068   1.928   4.456
    1   AR   Ar  155   5.767   0.947   5.769
    1   AR   Ar  156   3.121   4.239   4.098
    1   AR   Ar  157   3.517   3.176   5.859
    1   AR   Ar  158   0.945   2.297   7.225
    1   AR   Ar  159   3.753   2.060   6.082
    1   AR   Ar  160   3.654   2.451   7.483
    1   AR   Ar  161   5.734   2.118   0.920
    1   AR   Ar  162   4.665   5.048  -0.372
    1   AR   Ar  163   5.420   2.925   0.107
    1   AR   Ar  164   3.820   4.883   1.145
    1   AR   Ar  165   3.097   3.212   1.489
    1   AR   Ar  166   2.464   5.070   3.801
    1   AR   Ar  167   4.410   2.008   2.841
    1   AR   Ar  168   4.735   3.504  -0.809
    1   AR   Ar  169   2.713   2.950   2.362
    1   AR   Ar  170   3.342   3.960   5.063
    1   AR   Ar  171   4.231   3.960   4.443
    1   AR   Ar  172   4.545   5.294   4.348
    1   AR   Ar  173   1.990   3.893   6.942
    1   AR   Ar  174   3.663   5.368   6.021
    1   AR   Ar  175   4.301   3.624   6.358
    1   AR   Ar  176   3.608   5.077   4.811
    1   AR   Ar  177   6.077   5.831  -0.274
    1   AR   Ar  178   3.056   6.325   1.338
    1   AR   Ar  179   3.969   5.753   0.389
    1   AR   Ar  180   3.844   2.968  -2.839
    1   AR   Ar  181   1.915   5.652   1.256
    1   AR   Ar  182   2.808   6.925   2.596
    1   AR   Ar  183   3.492   4.743   2.211
    1   AR   Ar  184   4.123   6.049   1.614
    1   AR   Ar  185   1.529   5.469   4.205
    1   AR   Ar  186   3.528   5.384   3.782
    1   AR   Ar  187   4.364   6.202   3.055
    1   AR   Ar  188   3.382   6.017   2.438
    1   AR   Ar  189   2.918   4.030   6.093
    1   AR   Ar  190   4.543   6.225   6.099
    1   AR   Ar  191   4.694   5.369   5.496
    1   AR   Ar  192   3.920   6.163   5.349
    1   AR   Ar  193   0.067   6.226  -0.016
    1   AR   Ar  194   5.571   4.378  -1.528
    1   AR   Ar  195   6.483   0.445  -0.610
    1   AR   Ar  196   4.374   1.538  -0.614
    1   AR   Ar  197   5.292   1.006   0.355
    1   AR   Ar  198   6.150   1.404   1.474
    1   AR   Ar  199   4.837   1.158   1.305
    1   AR   Ar  200   6.567   1.697   0.376
    1   AR   Ar  201   5.055   6.919   3.244
    1   AR   Ar  202   5.127   2.587   4.207
    1   AR   Ar  203   6.687   6.529   5.211
    1   AR   Ar  204   5.222   0.821   3.863
    1   AR   Ar  205   5.960   0.372   3.229
    1   AR   Ar  206   5.195   0.141   4.832
    1   AR   Ar  207   6.771   0.458   6.036
    1   AR   Ar  208   6.869   0.094   4.065
    1   AR   Ar  209   4.719   2.268  -1.586
    1   AR   Ar  210   3.867   0.945   1.033
    1   AR   Ar  211   6.400   2.999   0.423
    1   AR   Ar  212   6.518   3.809  -1.768
    1   AR   Ar  213   3.335   1.661   2.390
    1   AR   Ar  214   3.567   3.594   2.651
    1   AR   Ar  215   6.072   2.402   1.829
    1   AR   Ar  216   6.727   3.659   1.505
    1   AR   Ar  217   4.643   3.121   3.328
    1   AR   Ar  218   4.393   2.799   5.129
    1   AR   Ar  219   5.369   1.769   3.397
    1   AR   Ar  220   5.493   2.648   2.812
    1   AR   Ar  221   6.363   0.638   4.857
    1   AR   Ar  222   4.501   1.426   5.834
    1   AR   Ar  223   7.062   0.648   6.976
    1   AR   Ar  224   5.292   2.298   5.442
    1   AR   Ar  225   5.386   5.186   0.376
    1   AR   Ar  226   5.043   4.175   2.385
    1   AR   Ar  227   6.645   4.822  -0.079
    1   AR   Ar  228   4.976   5.786   1.195
    1   AR   Ar  229   5.883   3.966   0.059
    1   AR   Ar  230   4.564   4.518   3.641
    1   AR   Ar  231   6.415   2.105   3.063
    1   AR   Ar  232   4.528   3.050   0.650
    1   AR   Ar  233   6.524   2.461   4.526
    1   AR   Ar  234   0.059   3.432   4.597
    1   AR   Ar  235   0.331   2.213   4.160
    1   AR   Ar  236   5.292   4.325   4.681
    1   AR   Ar  237   5.865   3.481   4.063
    1   AR   Ar  238   4.662   4.194   5.613
    1   AR   Ar  239   6.570   3.868   9.212
    1   AR   Ar  240   6.927   3.981   5.729
    1   AR   Ar  241   0.291   0.131   0.114
    1   AR   Ar  242   5.118   4.637   1.302
    1   AR   Ar  243   6.044   3.813   2.587
    1   AR   Ar  244   0.563   4.839  -1.600
    1   AR   Ar  245   5.798   0.472   2.028
    1   AR   Ar  246   5.872   6.324   1.475
    1   AR   Ar  247   5.597   3.523   1.080
    1   AR   Ar  248   5.432   6.598   0.481
    1   AR   Ar  249   5.126   5.309   2.222
    1   AR   Ar  250   4.888   6.355   5.051
    1   AR   Ar  251   5.517   5.374   4.697
    1   AR   Ar  252   5.282   6.014   3.602
    1   AR   Ar  253   5.618   4.779   5.622
    1   AR   Ar  254   5.203   5.223   6.540
    1   AR   Ar  255   5.052   3.796   7.136
    1   AR   Ar  256   5.876   6.723   4.037
    7.12000  7.12000 12.00000
Argon-slab step 2020
  256
    1   AR   Ar    1   6.734   1.753  -0.786
    1   AR   Ar    2   6.368   0.412   1.111
    1   AR   Ar    3   0.133   6.912   1.151
    1   AR   Ar    4   1.296   7.065   0.412
    1   AR   Ar    5   6.586   5.639   0.571
    1   AR   Ar    6   6.885   0.633   2.780
    1   AR   Ar    7   0.043   5.149   3.008
    1   AR   Ar    8   6.823   6.963   2.031
    1   AR   Ar    9   0.947   0.440   4.323
    1   AR   Ar   10   1.196   1.462   4.320
    1   AR   Ar   11   3.009   6.865   4.778
    1   AR   Ar   12   1.001   0.753   3.150
    1   AR   Ar   13   7.073   1.450   5.129
    1   AR   Ar   14   0.876   1.561   6.408
    1   AR   Ar   15   7.024   0.304   9.142
    1   AR   Ar   16   1.666   1.388   5.321
    1   AR   Ar   17   0.894   1.099  -0.089
    1   AR   Ar   18   6.188   3.181  -0.658
    1   AR   Ar   19   1.169   2.220   1.458
    1   AR   Ar   20   6.205   3.718  -2.801
    1   AR   Ar   21   6.219   1.300   2.491
    1   AR   Ar   22   0.078   1.817   2.349
    1   AR   Ar   23   0.211   1.127   1.042
    1   AR   Ar   24   0.204   2.155   1.320
    1   AR   Ar   25   0.395   1.475   3.563
    1   AR   Ar   26   6.374   1.359   3.999
    1   AR   Ar   27   2.177   1.064   3.480
    1   AR   Ar   28   1.314   2.521   4.730
    1   AR   Ar   29   5.691   1.773   6.846
    1   AR   Ar   30   1.007   2.310   5.636
    1   AR   Ar   31   0.742   6.974   6.744
    1   AR   Ar   32   1.693   3.209   6.096
    1   AR   Ar   33   1.784   4.587  -0.926
    1   AR   Ar   34   0.289   6.076   1.617
    1   AR   Ar   35   6.985   5.042   1.404
    1   AR   Ar   36   0.342   0.085  -2.927
    1   AR   Ar   37   7.011   2.865   2.230
    1   AR   Ar   38   0.185   3.944   2.304
    1   AR   Ar   39   1.069   4.355   2.608
    1   AR   Ar   40   1.352   4.120   1.547
    1   AR   Ar   41   0.435   2.695   3.139
    1   AR   Ar   42   6.708   5.321   5.070
    1   AR   Ar   43   6.818   2.631   5.719
    1   AR   Ar   44   0.576   4.327   3.622
    1   AR   Ar   45   0.860   3.335   5.392
    1   AR   Ar   46   0.814   5.732   6.155
    1   AR   Ar   47   6.207   3.702   6.395
    1   AR   Ar   48   6.457   6.366   6.483
    1   AR   Ar   49   6.369   7.054  -1.511
    1   AR   Ar   50   5.936   5.009   1.788
    1   AR   Ar   51   0.944   5.119   1.641
    1   AR   Ar   52   6.338   5.113  -1.029
    1   AR   Ar   53   5.782   6.178   2.612
    1   AR   Ar   54   6.704   6.660   3.117
    1   AR   Ar   55   6.029   5.181   3.163
    1   AR   Ar   56   0.665   0.086   2.160
    1   AR   Ar   57   6.617   3.176   3.217
    1   AR   Ar   58   6.271   5.767   4.010
    1   AR   Ar   59   1.868   5.413   5.381
    1   AR   Ar   60   0.642   6.537   4.222
    1   AR   Ar   61   5.661   5.891   5.587
    1   AR   Ar   62   0.563   5.724   4.848
    1   AR   Ar   63   1.724   6.481   6.536
    1   AR   Ar   64   0.915   6.540   5.482
    1   AR   Ar   65   3.516   6.800   0.107
    1   AR   Ar   66   1.412   0.901   1.114
    1   AR   Ar   67   3.553   6.034  -0.809
    1   AR   Ar   68   3.126   1.737  -1.529
    1   AR   Ar   69   2.450   0.961   0.918
    1   AR   Ar   70   1.233   1.151   2.195
    1   AR   Ar   71   3.073   0.694   2.892
    1   AR   Ar   72   3.235   0.473   1.851
    1   AR   Ar   73   2.080   7.066   3.583
    1   AR   Ar   74   2.098   0.893   4.561
    1   AR   Ar   75   3.296   0.978   5.285
    1   AR   Ar   76   2.364   1.176   2.214
    1   AR   Ar   77   2.138   6.729   5.558
    1   AR   Ar   78   1.407   0.516   6.544
    1   AR   Ar   79   3.417   5.904   6.857
    1   AR   Ar   80   2.839   5.606   5.601
    1   AR   Ar   81   1.906   0.969   0.024
    1   AR   Ar   82   0.248   4.506  -0.599
    1   AR   Ar   83   2.252   2.243   0.925
    1   AR   Ar   84   0.373   3.463  -1.599
    1   AR   Ar   85   0.260   2.519  -0.098
    1   AR   Ar   86   1.822   3.276   1.772
    1   AR   Ar   87   2.065   2.183   1.994
    1   AR   Ar   88   4.294   3.965   1.518
    1   AR   Ar   89   0.930   3.143   2.158
    1   AR   Ar   90   2.862   1.795   4.592
    1   AR   Ar   91   2.006   2.224   3.947
    1   AR   Ar   92   1.228   2.092   2.707
    1   AR   Ar   93   2.343   2.040   5.459
    1   AR   Ar   94   0.860   1.566   8.467
    1   AR   Ar   95   3.150   6.712   5.972
    1   AR   Ar   96   2.344   0.567   5.946
    1   AR   Ar   97   3.897   2.324  -0.701
    1   AR   Ar   98   3.122   4.219   1.370
    1   AR   Ar   99   6.701   2.702  -1.582
    1   AR   Ar  100   1.908   3.645  -0.004
    1   AR   Ar  101   2.272   3.836   1.018
    1   AR   Ar  102   2.529   3.117   3.678
    1   AR   Ar  103   0.952   5.001   0.486
    1   AR   Ar  104   2.719   2.441  -0.610
    1   AR   Ar  105   1.615   3.340   2.892
    1   AR   Ar  106   2.400   2.850   4.823
    1   AR   Ar  107   1.933   3.880   5.024
    1   AR   Ar  108   3.423   3.041   4.292
    1   AR   Ar  109   1.984   4.045   3.855
    1   AR   Ar  110   1.317   4.478   5.798
    1   AR   Ar  111   4.152   4.662   6.714
    1   AR   Ar  112   0.446   5.180   7.198
    1   AR   Ar  113   2.270   4.872   0.242
    1   AR   Ar  114   2.625   5.270  -0.697
    1   AR   Ar  115   2.878   3.723  -0.416
    1   AR   Ar  116   4.645   6.180  -0.218
    1   AR   Ar  117   0.821   5.727   3.573
    1   AR   Ar  118   0.695   6.662   3.014
    1   AR   Ar  119   2.447   4.066   2.751
    1   AR   Ar  120   1.141   5.624   2.642
    1   AR   Ar  121   6.942   4.658   4.239
    1   AR   Ar  122   2.767   5.881   4.560
    1   AR   Ar  123   2.719   4.759   4.992
    1   AR   Ar  124   2.372   5.648   2.943
    1   AR   Ar  125   0.527   4.667   5.112
    1   AR   Ar  126   0.385   0.524   5.238
    1   AR   Ar  127   3.123   5.225   7.795
    1   AR   Ar  128   2.126   5.383   6.418
    1   AR   Ar  129   1.762   7.116   2.560
    1   AR   Ar  130   2.865   1.404  -3.507
    1   AR   Ar  131   4.397   6.965   0.735
    1   AR   Ar  132   0.663   2.339  -1.677
    1   AR   Ar  133   3.909   0.141   3.561
    1   AR   Ar  134   4.063   1.064   3.064
    1   AR   Ar  135   5.109   0.675   2.716
    1   AR   Ar  136   4.300   7.075   1.945
    1   AR   Ar  137   2.862   6.319   3.479
    1   AR   Ar  138   5.075   1.132   4.945
    1   AR   Ar  139   5.970   1.628   4.878
    1   AR   Ar  140   4.075   0.877   4.245
    1   AR   Ar  141   3.858   6.410   4.278
    1   AR   Ar  142   4.109   0.156   5.612
    1   AR   Ar  143   5.371   6.937   5.818
    1   AR   Ar  144   4.713   0.488   6.510
    1   AR   Ar  145   3.622   3.720   0.574
    1   AR   Ar  146   3.737   2.508   1.640
    1   AR   Ar  147   5.770   2.093  -0.670
    1   AR   Ar  148   4.906   4.426  -2.574
    1   AR   Ar  149   3.050   1.767   1.488
    1   AR   Ar  150   2.471   2.025   2.953
    1   AR   Ar  151   3.459   2.179   3.479
    1   AR   Ar  152   2.696   2.935   0.350
    1   AR   Ar  153   2.998   0.793   3.948
    1   AR   Ar  154   4.080   1.918   4.477
    1   AR   Ar  155   5.788   0.933   5.762
    1   AR   Ar  156   3.108   4.246   4.100
    1   AR   Ar  157   3.496   3.160   5.865
    1   AR   Ar  158   0.955   2.312   7.211
    1   AR   Ar  159   3.742   2.111   6.112
    1   AR   Ar  160   3.676   2.443   7.472
    1   AR   Ar  161   5.736   2.120   0.911
    1   AR   Ar  162   4.701   5.039  -0.343
    1   AR   Ar  163   5.401   2.896   0.103
    1   AR   Ar  164   3.827   4.871   1.162
    1   AR   Ar  165   3.098   3.202   1.495
    1   AR   Ar  166   2.453   5.098   3.829
    1   AR   Ar  167   4.402   2.015   2.836
    1   AR   Ar  168   4.777   3.520  -0.797
    1   AR   Ar  169   2.718   2.960   2.363
    1   AR   Ar  170   3.338   3.960   5.062
    1   AR   Ar  171   4.241   3.991   4.435
    1   AR   Ar  172   4.543   5.307   4.345
    1   AR   Ar  173   1.992   3.873   6.952
    1   AR   Ar  174   3.675   5.319   6.043
    1   AR   Ar  175   4.289   3.604   6.308
    1   AR   Ar  176   3.605   5.070   4.818
    1   AR   Ar  177   6.096   5.829  -0.264
    1   AR   Ar  178   3.042   6.307   1.330
    1   AR   Ar  179   3.965   5.744   0.395
    1   AR   Ar  180   3.802   2.983  -2.813
    1   AR   Ar  181   1.897   5.647   1.236
    1   AR   Ar  182   2.818   6.887   2.609
    1   AR   Ar  183   3.485   4.725   2.216
    1   AR   Ar  184   4.106   6.050   1.634
    1   AR   Ar  185   1.537   5.464   4.211
    1   AR   Ar  186   3.533   5.330   3.768
    1   AR   Ar  187   4.339   6.214   3.034
    1   AR   Ar  188   3.399   5.989   2.427
    1   AR   Ar  189   2.964   4.016   6.093
    1   AR   Ar  190   4.555   6.232   6.060
    1   AR   Ar  191   4.710   5.346   5.504
    1   AR   Ar  192   3.923   6.156   5.311
    1   AR   Ar  193   0.083   6.232  -0.024
    1   AR   Ar  194   5.564   4.403  -1.545
    1   AR   Ar  195   6.519   0.462  -0.598
    1   AR   Ar  196   4.377   1.497  -0.621
    1   AR   Ar  197   5.297   1.026   0.352
    1   AR   Ar  198   6.157   1.388   1.474
    1   AR   Ar  199   4.841   1.160   1.340
    1   AR   Ar  200   6.551   1.703   0.391
    1   AR   Ar  201   5.083   6.954   3.198
    1   AR   Ar  202   5.119   2.602   4.205
    1   AR   Ar  203   6.663   6.494   5.182
    1   AR   Ar  204   5.232   0.832   3.890
    1   AR   Ar  205   5.956   0.384   3.245
    1   AR   Ar  206   5.196   0.107   4.831
    1   AR   Ar  207   6.777   0.450   6.010
    1   AR   Ar  208   6.874   0.074   4.069
    1   AR   Ar  209   4.721   2.282  -1.566
    1   AR   Ar  210   3.868   0.966   1.042
    1   AR   Ar  211   6.395   3.006   0.469
    1   AR   Ar  212   6.503   3.803  -1.767
    1   AR   Ar  213   3.369   1.627   2.421
    1   AR   Ar  214   3.572   3.572   2.653
    1   AR   Ar  215   6.066   2.380   1.831
    1   AR   Ar  216   6.717   3.672   1.499
    1   AR   Ar  217   4.636   3.121   3.338
    1   AR   Ar  218   4.370   2.807   5.167
    1   AR   Ar  219   5.372   1.799   3.380
    1   AR   Ar  220   5.527   2.639   2.835
    1   AR   Ar  221   6.361   0.654   4.868
    1   AR   Ar  222   4.515   1.402   5.786
    1   AR   Ar  223   7.034   0.667   6.957
    1   AR   Ar  224   5.310   2.303   5.453
    1   AR   Ar  225   5.404   5.167   0.364
    1   AR   Ar  226   5.032   4.156   2.384
    1   AR   Ar  227   6.629   4.840  -0.061
    1   AR   Ar  228   4.959   5.791   1.227
    1   AR   Ar  229   5.880   3.987   0.044
    1   AR   Ar  230   4.554   4.514   3.653
    1   AR   Ar  231   6.376   2.116   3.051
    1   AR   Ar  232   4.499   3.021   0.663
    1   AR   Ar  233   6.558   2.451   4.502
    1   AR   Ar  234   0.067   3.435   4.576
    1   AR   Ar  235   0.318   2.189   4.172
    1   AR   Ar  236   5.267   4.317   4.691
    1   AR   Ar  237   5.877   3.470   4.087
    1   AR   Ar  238   4.651   4.192   5.618
    1   AR   Ar  239   6.597   3.868   9.209
    1   AR   Ar  240   6.923   3.999   5.745
    1   AR   Ar  241   0.305   0.131   0.107
    1   AR   Ar  242   5.115   4.667   1.291
    1   AR   Ar  243   6.026   3.803   2.595
    1   AR   Ar  244   0.573   4.826  -1.574
    1   AR   Ar  245   5.782   0.457   2.006
    1   AR   Ar  246   5.873   6.292   1.515
    1   AR   Ar  247   5.576   3.571   1.062
    1   AR   Ar  248   5.439   6.575   0.451
    1   AR   Ar  249   5.101   5.313   2.193
    1   AR   Ar  250   4.902   6.362   5.046
    1   AR   Ar  251   5.504   5.369   4.658
    1   AR   Ar  252   5.311   6.019   3.620
    1   AR   Ar  253   5.595   4.764   5.629
    1   AR   Ar  254   5.183   5.239   6.522
    1   AR   Ar  255   5.054   3.752   7.165
    1   AR   Ar  256   5.872   6.735   4.015
    7.12000  7.12000 12.00000
Argon-slab step 2025
  256
    1   AR   Ar    1   6.739   1.743  -0.790
    1   AR   Ar    2   6.388   0.400   1.090
    1   AR   Ar    3   0.150   6.902   1.181
    1   AR   Ar    4   1.316   7.064   0.408
    1   AR   Ar    5   6.577   5.629   0.554
    1   AR   Ar    6   6.905   0.650   2.745
    1   AR   Ar    7   0.052   5.162   3.001
    1   AR   Ar    8   6.820   6.960   2.032
    1   AR   Ar    9   0.954   0.435   4.298
    1   AR   Ar   10   1.177   1.482   4.312
    1   AR   Ar   11   3.002   6.860   4.748
    1   AR   Ar   12   0.977   0.743   3.142
    1   AR   Ar   13   7.050   1.441   5.135
    1   AR   Ar   14   0.892   1.542   6.408
    1   AR   Ar   15   7.001   0.293   9.151
    1   AR   Ar   16   1.638   1.373   5.348
    1   AR   Ar   17   0.924   1.092  -0.084
    1   AR   Ar   18   6.216   3.175  -0.664
    1   AR   Ar   19   1.173   2.241   1.471
    1   AR   Ar   20   6.218   3.700  -2.806
    1   AR   Ar   21   6.221   1.296   2.484
    1   AR   Ar   22   0.082   1.803   2.290
    1   AR   Ar   23   0.220   1.112   0.999
    1   AR   Ar   24   0.206   2.156   1.298
    1   AR   Ar   25   0.413   1.488   3.555
    1   AR   Ar   26   6.404   1.334   4.012
    1   AR   Ar   27   2.159   1.078   3.510
    1   AR   Ar   28   1.311   2.517   4.707
    1   AR   Ar   29   5.691   1.770   6.839
    1   AR   Ar   30   1.023   2.300   5.643
    1   AR   Ar   31   0.762   6.977   6.744
    1   AR   Ar   32   1.670   3.200   6.107
    1   AR   Ar   33   1.759   4.583  -0.938
    1   AR   Ar   34   0.280   6.092   1.653
    1   AR   Ar   35   6.993   5.079   1.409
    1   AR   Ar   36   0.337   0.106  -2.970
    1   AR   Ar   37   7.005   2.898   2.240
    1   AR   Ar   38   0.195   3.943   2.288
    1   AR   Ar   39   1.063   4.364   2.597
    1   AR   Ar   40   1.353   4.137   1.553
    1   AR   Ar   41   0.411   2.677   3.125
    1   AR   Ar   42   6.723   5.304   5.056
    1   AR   Ar   43   6.800   2.631   5.725
    1   AR   Ar   44   0.570   4.306   3.630
    1   AR   Ar   45   0.849   3.325   5.415
    1   AR   Ar   46   0.818   5.729   6.134
    1   AR   Ar   47   6.215   3.698   6.386
    1   AR   Ar   48   6.439   6.356   6.503
    1   AR   Ar   49   6.394   7.034  -1.556
    1   AR   Ar   50   5.952   4.992   1.811
    1   AR   Ar   51   0.942   5.109   1.635
    1   AR   Ar   52   6.307   5.109  -1.028
    1   AR   Ar   53   5.759   6.189   2.597
    1   AR   Ar   54   6.704   6.658   3.137
    1   AR   Ar   55   6.016   5.201   3.175
    1   AR   Ar   56   0.642   0.072   2.202
    1   AR   Ar   57   6.588   3.187   3.245
    1   AR   Ar   58   6.286   5.780   4.010
    1   AR   Ar   59   1.842   5.437   5.400
    1   AR   Ar   60   0.640   6.551   4.227
    1   AR   Ar   61   5.676   5.869   5.595
    1   AR   Ar   62   0.558   5.687   4.895
    1   AR   Ar   63   1.753   6.486   6.555
    1   AR   Ar   64   0.914   6.538   5.506
    1   AR   Ar   65   3.544   6.794   0.068
    1   AR   Ar   66   1.403   0.887   1.120
    1   AR   Ar   67   3.567   6.016  -0.808
    1   AR   Ar   68   3.132   1.735  -1.505
    1   AR   Ar   69   2.459   0.942   0.906
    1   AR   Ar   70   1.214   1.158   2.203
    1   AR   Ar   71   3.082   0.703   2.893
    1   AR   Ar   72   3.247   0.463   1.855
    1   AR   Ar   73   2.077   7.086   3.552
    1   AR   Ar   74   2.117   0.877   4.578
    1   AR   Ar   75   3.329   0.986   5.290
    1   AR   Ar   76   2.390   1.156   2.158
    1   AR   Ar   77   2.142   6.724   5.588
    1   AR   Ar   78   1.399   0.495   6.520
    1   AR   Ar   79   3.421   5.886   6.894
    1   AR   Ar   80   2.825   5.613   5.612
    1   AR   Ar   81   1.898   0.927   0.043
    1   AR   Ar   82   0.221   4.475  -0.622
    1   AR   Ar   83   2.256   2.227   0.912
    1   AR   Ar   84   0.376   3.450  -1.564
    1   AR   Ar   85   0.255   2.536  -0.116
    1   AR   Ar   86   1.844   3.278   1.753
    1   AR   Ar   87   2.059   2.181   1.970
    1   AR   Ar   88   4.310   3.960   1.480
    1   AR   Ar   89   0.904   3.133   2.139
    1   AR   Ar   90   2.852   1.778   4.593
    1   AR   Ar   91   2.014   2.202   3.949
    1   AR   Ar   92   1.206   2.107   2.703
    1   AR   Ar   93   2.322   2.067   5.421
    1   AR   Ar   94   0.847   1.529   8.497
    1   AR   Ar   95   3.162   6.708   5.981
    1   AR   Ar   96   2.402   0.549   5.946
    1   AR   Ar   97   3.905   2.315  -0.671
    1   AR   Ar   98   3.085   4.230   1.383
    1   AR   Ar   99   6.678   2.717  -1.585
    1   AR   Ar  100   1.912   3.624  -0.010
    1   AR   Ar  101   2.287   3.832   1.012
    1   AR   Ar  102   2.533   3.092   3.667
    1   AR   Ar  103   0.933   5.038   0.495
    1   AR   Ar  104   2.695   2.457  -0.601
    1   AR   Ar  105   1.622   3.344   2.916
    1   AR   Ar  106   2.398   2.799   4.825
    1   AR   Ar  107   1.931   3.884   5.050
    1   AR   Ar  108   3.395   3.068   4.270
    1   AR   Ar  109   1.990   4.028   3.801
    1   AR   Ar  110   1.316   4.479   5.818
    1   AR   Ar  111   4.135   4.643   6.709
    1   AR   Ar  112   0.441   5.184   7.211
    1   AR   Ar  113   2.283   4.890   0.257
    1   AR   Ar  114   2.639   5.254  -0.740
    1   AR   Ar  115   2.869   3.714  -0.433
    1   AR   Ar  116   4.662   6.174  -0.242
    1   AR   Ar  117   0.831   5.722   3.528
    1   AR   Ar  118   0.711   6.672   3.026
    1   AR   Ar  119   2.444   4.047   2.719
    1   AR   Ar  120   1.141   5.595   2.594
    1   AR   Ar  121   6.931   4.670   4.211
    1   AR   Ar  122   2.761   5.898   4.529
    1   AR   Ar  123   2.703   4.748   4.985
    1   AR   Ar  124   2.389   5.676   2.878
    1   AR   Ar  125   0.522   4.707   5.100
    1   AR   Ar  126   0.369   0.520   5.243
    1   AR   Ar  127   3.145   5.211   7.798
    1   AR   Ar  128   2.114   5.368   6.414
    1   AR   Ar  129   1.750   0.002   2.574
    1   AR   Ar  130   2.872   1.415  -3.477
    1   AR   Ar  131   4.384   6.955   0.763
    1   AR   Ar  132   0.636   2.351  -1.665
    1   AR   Ar  133   3.937   0.126   3.544
    1   AR   Ar  134   4.102   1.027   3.106
    1   AR   Ar  135   5.112   0.673   2.699
    1   AR   Ar  136   4.301   7.055   1.964
    1   AR   Ar  137   2.853   6.299   3.507
    1   AR   Ar  138   5.078   1.110   4.949
    1   AR   Ar  139   5.985   1.634   4.884
    1   AR   Ar  140   4.046   0.861   4.246
    1   AR   Ar  141   3.867   6.441   4.243
    1   AR   Ar  142   4.133   0.116   5.643
    1   AR   Ar  143   5.413   6.940   5.793
    1   AR   Ar  144   4.714   0.466   6.511
    1   AR   Ar  145   3.640   3.697   0.565
    1   AR   Ar  146   3.747   2.488   1.640
    1   AR   Ar  147   5.760   2.082  -0.651
    1   AR   Ar  148   4.900   4.423  -2.592
    1   AR   Ar  149   3.046   1.812   1.482
    1   AR   Ar  150   2.493   2.027   2.918
    1   AR   Ar  151   3.422   2.153   3.493
    1   AR   Ar  152   2.696   2.924   0.341
    1   AR   Ar  153   2.994   0.805   3.947
    1   AR   Ar  154   4.091   1.911   4.500
    1   AR   Ar  155   5.807   0.919   5.756
    1   AR   Ar  156   3.094   4.253   4.097
    1   AR   Ar  157   3.471   3.137   5.865
    1   AR   Ar  158   0.965   2.327   7.197
    1   AR   Ar  159   3.730   2.162   6.141
    1   AR   Ar  160   3.697   2.435   7.459
    1   AR   Ar  161   5.730   2.127   0.892
    1   AR   Ar  162   4.731   5.030  -0.318
    1   AR   Ar  163   5.382   2.867   0.098
    1   AR   Ar  164   3.843   4.870   1.175
    1   AR   Ar  165   3.089   3.204   1.486
    1   AR   Ar  166   2.446   5.122   3.859
    1   AR   Ar  167   4.396   2.027   2.829
    1   AR   Ar  168   4.819   3.536  -0.783
    1   AR   Ar  169   2.717   2.967   2.377
    1   AR   Ar  170   3.340   3.953   5.066
    1   AR   Ar  171   4.247   4.017   4.436
    1   AR   Ar  172   4.536   5.322   4.342
    1   AR   Ar  173   1.995   3.853   6.960
    1   AR   Ar  174   3.697   5.266   6.063
    1   AR   Ar  175   4.270   3.574   6.254
    1   AR   Ar  176   3.620   5.069   4.824
    1   AR   Ar  177   6.107   5.831  -0.262
    1   AR   Ar  178   3.030   6.288   1.322
    1   AR   Ar  179   3.965   5.736   0.416
    1   AR   Ar  180   3.760   2.999  -2.786
    1   AR   Ar  181   1.878   5.642   1.216
    1   AR   Ar  182   2.826   6.843   2.617
    1   AR   Ar  183   3.497   4.725   2.244
    1   AR   Ar  184   4.107   6.063   1.617
    1   AR   Ar  185   1.551   5.457   4.227
    1   AR   Ar  186   3.538   5.276   3.754
    1   AR   Ar  187   4.312   6.224   3.014
    1   AR   Ar  188   3.415   5.959   2.417
    1   AR   Ar  189   3.007   4.006   6.094
    1   AR   Ar  190   4.568   6.246   6.039
    1   AR   Ar  191   4.723   5.321   5.509
    1   AR   Ar  192   3.911   6.146   5.265
    1   AR   Ar  193   0.099   6.237  -0.034
    1   AR   Ar  194   5.557   4.427  -1.562
    1   AR   Ar  195   6.557   0.481  -0.583
    1   AR   Ar  196   4.390   1.440  -0.628
    1   AR   Ar  197   5.304   1.047   0.348
    1   AR   Ar  198   6.166   1.366   1.472
    1   AR   Ar  199   4.855   1.164   1.389
    1   AR   Ar  200   6.538   1.709   0.405
    1   AR   Ar  201   5.108   6.978   3.161
    1   AR   Ar  202   5.112   2.616   4.205
    1   AR   Ar  203   6.638   6.458   5.153
    1   AR   Ar  204   5.241   0.842   3.917
    1   AR   Ar  205   5.961   0.398   3.261
    1   AR   Ar  206   5.184   0.118   4.826
    1   AR   Ar  207   6.778   0.439   5.976
    1   AR   Ar  208   6.879   0.055   4.073
    1   AR   Ar  209   4.722   2.295  -1.543
    1   AR   Ar  210   3.888   0.962   1.056
    1   AR   Ar  211   6.396   3.010   0.472
    1   AR   Ar  212   6.486   3.797  -1.764
    1   AR   Ar  213   3.407   1.594   2.460
    1   AR   Ar  214   3.578   3.551   2.653
    1   AR   Ar  215   6.064   2.362   1.843
    1   AR   Ar  216   6.702   3.683   1.490
    1   AR   Ar  217   4.629   3.120   3.347
    1   AR   Ar  218   4.346   2.816   5.204
    1   AR   Ar  219   5.375   1.823   3.367
    1   AR   Ar  220   5.538   2.652   2.844
    1   AR   Ar  221   6.359   0.665   4.879
    1   AR   Ar  222   4.528   1.378   5.740
    1   AR   Ar  223   7.009   0.688   6.945
    1   AR   Ar  224   5.327   2.305   5.465
    1   AR   Ar  225   5.426   5.158   0.355
    1   AR   Ar  226   5.019   4.140   2.381
    1   AR   Ar  227   6.602   4.858  -0.034
    1   AR   Ar  228   4.953   5.792   1.251
    1   AR   Ar  229   5.876   4.008   0.030
    1   AR   Ar  230   4.547   4.513   3.654
    1   AR   Ar  231   6.345   2.131   3.046
    1   AR   Ar  232   4.484   3.009   0.653
    1   AR   Ar  233   6.554   2.441   4.489
    1   AR   Ar  234   0.075   3.438   4.554
    1   AR   Ar  235   0.316   2.181   4.196
    1   AR   Ar  236   5.239   4.307   4.692
    1   AR   Ar  237   5.889   3.458   4.111
    1   AR   Ar  238   4.642   4.200   5.613
    1   AR   Ar  239   6.624   3.869   9.206
    1   AR   Ar  240   6.926   4.018   5.754
    1   AR   Ar  241   0.352   0.135   0.104
    1   AR   Ar  242   5.119   4.702   1.270
    1   AR   Ar  243   6.010   3.794   2.601
    1   AR   Ar  244   0.582   4.813  -1.548
    1   AR   Ar  245   5.771   0.438   1.979
    1   AR   Ar  246   5.877   6.262   1.555
    1   AR   Ar  247   5.555   3.619   1.044
    1   AR   Ar  248   5.445   6.554   0.436
    1   AR   Ar  249   5.064   5.321   2.172
    1   AR   Ar  250   4.917   6.344   5.040
    1   AR   Ar  251   5.497   5.366   4.621
    1   AR   Ar  252   5.332   6.012   3.636
    1   AR   Ar  253   5.575   4.748   5.637
    1   AR   Ar  254   5.160   5.256   6.503
    1   AR   Ar  255   5.056   3.709   7.192
    1   AR   Ar  256   5.872   6.759   3.997
    7.12000  7.12000 12.00000
Argon-slab step 2030
  256
    1   AR   Ar    1   6.748   1.733  -0.792
    1   AR   Ar    2   6.408   0.386   1.068
    1   AR   Ar    3   0.173   6.910   1.184
    1   AR   Ar    4   1.340   7.064   0.407
    1   AR   Ar    5   6.574   5.627   0.564
    1   AR   Ar    6   6.937   0.658   2.715
    1   AR   Ar    7   0.061   5.174   2.994
    1   AR   Ar    8   6.788   6.954   2.044
    1   AR   Ar    9   0.963   0.431   4.271
    1   AR   Ar   10   1.161   1.503   4.304
    1   AR   Ar   11   2.997   6.862   4.734
    1   AR   Ar   12   0.956   0.726   3.134
    1   AR   Ar   13   7.026   1.439   5.139
    1   AR   Ar   14   0.904   1.522   6.437
    1   AR   Ar   15   6.979   0.282   9.161
    1   AR   Ar   16   1.597   1.350   5.378
    1   AR   Ar   17   0.943   1.086  -0.077
    1   AR   Ar   18   6.243   3.170  -0.670
    1   AR   Ar   19   1.184   2.263   1.485
    1   AR   Ar   20   6.197   3.689  -2.789
    1   AR   Ar   21   6.213   1.295   2.477
    1   AR   Ar   22   0.077   1.800   2.270
    1   AR   Ar   23   0.229   1.094   0.955
    1   AR   Ar   24   0.194   2.158   1.272
    1   AR   Ar   25   0.421   1.489   3.538
    1   AR   Ar   26   6.438   1.308   4.018
    1   AR   Ar   27   2.128   1.096   3.532
    1   AR   Ar   28   1.311   2.516   4.678
    1   AR   Ar   29   5.687   1.764   6.836
    1   AR   Ar   30   1.037   2.287   5.658
    1   AR   Ar   31   0.760   6.959   6.749
    1   AR   Ar   32   1.649   3.190   6.117
    1   AR   Ar   33   1.734   4.579  -0.949
    1   AR   Ar   34   0.275   6.087   1.702
    1   AR   Ar   35   7.000   5.115   1.414
    1   AR   Ar   36   0.333   0.127  -3.014
    1   AR   Ar   37   7.008   2.921   2.212
    1   AR   Ar   38   0.200   3.942   2.274
    1   AR   Ar   39   1.070   4.344   2.601
    1   AR   Ar   40   1.350   4.158   1.557
    1   AR   Ar   41   0.388   2.657   3.113
    1   AR   Ar   42   6.732   5.289   5.044
    1   AR   Ar   43   6.782   2.631   5.729
    1   AR   Ar   44   0.568   4.283   3.634
    1   AR   Ar   45   0.837   3.318   5.436
    1   AR   Ar   46   0.823   5.721   6.114
    1   AR   Ar   47   6.215   3.691   6.382
    1   AR   Ar   48   6.420   6.347   6.521
    1   AR   Ar   49   6.420   7.014  -1.600
    1   AR   Ar   50   5.978   4.974   1.834
    1   AR   Ar   51   0.945   5.098   1.623
    1   AR   Ar   52   6.277   5.103  -1.030
    1   AR   Ar   53   5.735   6.200   2.586
    1   AR   Ar   54   6.696   6.660   3.157
    1   AR   Ar   55   6.002   5.228   3.177
    1   AR   Ar   56   0.630   0.070   2.234
    1   AR   Ar   57   6.558   3.198   3.276
    1   AR   Ar   58   6.308   5.793   4.014
    1   AR   Ar   59   1.808   5.462   5.414
    1   AR   Ar   60   0.611   6.550   4.231
    1   AR   Ar   61   5.694   5.846   5.606
    1   AR   Ar   62   0.558   5.660   4.940
    1   AR   Ar   63   1.781   6.490   6.573
    1   AR   Ar   64   0.916   6.542   5.526
    1   AR   Ar   65   3.565   6.816   0.067
    1   AR   Ar   66   1.391   0.872   1.126
    1   AR   Ar   67   3.582   5.999  -0.805
    1   AR   Ar   68   3.135   1.729  -1.482
    1   AR   Ar   69   2.474   0.924   0.901
    1   AR   Ar   70   1.196   1.164   2.208
    1   AR   Ar   71   3.088   0.713   2.897
    1   AR   Ar   72   3.260   0.452   1.857
    1   AR   Ar   73   2.076   7.108   3.525
    1   AR   Ar   74   2.136   0.858   4.593
    1   AR   Ar   75   3.363   0.994   5.295
    1   AR   Ar   76   2.414   1.136   2.101
    1   AR   Ar   77   2.140   6.712   5.619
    1   AR   Ar   78   1.413   0.496   6.486
    1   AR   Ar   79   3.424   5.869   6.930
    1   AR   Ar   80   2.815   5.626   5.623
    1   AR   Ar   81   1.896   0.883   0.060
    1   AR   Ar   82   0.198   4.440  -0.647
    1   AR   Ar   83   2.254   2.205   0.903
    1   AR   Ar   84   0.380   3.438  -1.529
    1   AR   Ar   85   0.248   2.553  -0.133
    1   AR   Ar   86   1.873   3.269   1.739
    1   AR   Ar   87   2.056   2.180   1.948
    1   AR   Ar   88   4.325   3.953   1.442
    1   AR   Ar   89   0.875   3.121   2.120
    1   AR   Ar   90   2.845   1.759   4.588
    1   AR   Ar   91   2.023   2.175   3.949
    1   AR   Ar   92   1.224   2.110   2.701
    1   AR   Ar   93   2.306   2.086   5.404
    1   AR   Ar   94   0.833   1.492   8.525
    1   AR   Ar   95   3.171   6.720   5.988
    1   AR   Ar   96   2.461   0.535   5.946
    1   AR   Ar   97   3.907   2.316  -0.643
    1   AR   Ar   98   3.036   4.232   1.399
    1   AR   Ar   99   6.696   2.717  -1.584
    1   AR   Ar  100   1.913   3.604  -0.016
    1   AR   Ar  101   2.291   3.822   0.993
    1   AR   Ar  102   2.537   3.068   3.652
    1   AR   Ar  103   0.929   5.043   0.479
    1   AR   Ar  104   2.672   2.472  -0.596
    1   AR   Ar  105   1.630   3.347   2.941
    1   AR   Ar  106   2.400   2.769   4.810
    1   AR   Ar  107   1.926   3.908   5.054
    1   AR   Ar  108   3.389   3.066   4.260
    1   AR   Ar  109   1.996   4.014   3.748
    1   AR   Ar  110   1.316   4.480   5.838
    1   AR   Ar  111   4.124   4.616   6.709
    1   AR   Ar  112   0.436   5.189   7.222
    1   AR   Ar  113   2.295   4.906   0.272
    1   AR   Ar  114   2.654   5.238  -0.782
    1   AR   Ar  115   2.864   3.705  -0.450
    1   AR   Ar  116   4.679   6.169  -0.267
    1   AR   Ar  117   0.828   5.704   3.518
    1   AR   Ar  118   0.728   6.677   3.049
    1   AR   Ar  119   2.443   4.027   2.688
    1   AR   Ar  120   1.144   5.566   2.537
    1   AR   Ar  121   6.932   4.665   4.197
    1   AR   Ar  122   2.754   5.909   4.500
    1   AR   Ar  123   2.669   4.738   4.978
    1   AR   Ar  124   2.402   5.699   2.808
    1   AR   Ar  125   0.517   4.735   5.089
    1   AR   Ar  126   0.359   0.510   5.243
    1   AR   Ar  127   3.167   5.196   7.799
    1   AR   Ar  128   2.102   5.353   6.413
    1   AR   Ar  129   1.734   0.010   2.584
    1   AR   Ar  130   2.879   1.426  -3.446
    1   AR   Ar  131   4.398   6.967   0.746
    1   AR   Ar  132   0.603   2.370  -1.647
    1   AR   Ar  133   3.963   0.101   3.524
    1   AR   Ar  134   4.142   0.994   3.147
    1   AR   Ar  135   5.106   0.698   2.672
    1   AR   Ar  136   4.303   7.037   1.985
    1   AR   Ar  137   2.850   6.282   3.544
    1   AR   Ar  138   5.082   1.094   4.948
    1   AR   Ar  139   5.998   1.645   4.896
    1   AR   Ar  140   4.020   0.839   4.271
    1   AR   Ar  141   3.862   6.464   4.232
    1   AR   Ar  142   4.157   0.075   5.672
    1   AR   Ar  143   5.458   6.943   5.773
    1   AR   Ar  144   4.716   0.445   6.510
    1   AR   Ar  145   3.656   3.675   0.556
    1   AR   Ar  146   3.782   2.457   1.617
    1   AR   Ar  147   5.747   2.073  -0.630
    1   AR   Ar  148   4.894   4.420  -2.609
    1   AR   Ar  149   3.034   1.848   1.473
    1   AR   Ar  150   2.514   2.028   2.886
    1   AR   Ar  151   3.385   2.127   3.507
    1   AR   Ar  152   2.701   2.922   0.332
    1   AR   Ar  153   3.001   0.814   3.954
    1   AR   Ar  154   4.102   1.905   4.523
    1   AR   Ar  155   5.823   0.906   5.752
    1   AR   Ar  156   3.082   4.259   4.089
    1   AR   Ar  157   3.440   3.106   5.857
    1   AR   Ar  158   0.975   2.343   7.183
    1   AR   Ar  159   3.714   2.172   6.142
    1   AR   Ar  160   3.669   2.428   7.454
    1   AR   Ar  161   5.717   2.137   0.868
    1   AR   Ar  162   4.750   5.019  -0.303
    1   AR   Ar  163   5.364   2.839   0.091
    1   AR   Ar  164   3.866   4.876   1.187
    1   AR   Ar  165   3.075   3.213   1.466
    1   AR   Ar  166   2.442   5.143   3.887
    1   AR   Ar  167   4.390   2.041   2.823
    1   AR   Ar  168   4.863   3.551  -0.769
    1   AR   Ar  169   2.712   2.970   2.401
    1   AR   Ar  170   3.347   3.940   5.073
    1   AR   Ar  171   4.245   4.034   4.450
    1   AR   Ar  172   4.522   5.341   4.338
    1   AR   Ar  173   1.998   3.834   6.966
    1   AR   Ar  174   3.721   5.217   6.073
    1   AR   Ar  175   4.253   3.539   6.215
    1   AR   Ar  176   3.644   5.071   4.832
    1   AR   Ar  177   6.109   5.839  -0.272
    1   AR   Ar  178   3.019   6.270   1.315
    1   AR   Ar  179   3.964   5.727   0.440
    1   AR   Ar  180   3.718   3.014  -2.759
    1   AR   Ar  181   1.859   5.635   1.195
    1   AR   Ar  182   2.832   6.798   2.621
    1   AR   Ar  183   3.509   4.726   2.274
    1   AR   Ar  184   4.094   6.079   1.603
    1   AR   Ar  185   1.563   5.451   4.249
    1   AR   Ar  186   3.543   5.245   3.742
    1   AR   Ar  187   4.285   6.234   2.993
    1   AR   Ar  188   3.429   5.928   2.410
    1   AR   Ar  189   3.047   4.004   6.098
    1   AR   Ar  190   4.577   6.268   6.013
    1   AR   Ar  191   4.730   5.296   5.509
    1   AR   Ar  192   3.890   6.133   5.217
    1   AR   Ar  193   0.116   6.240  -0.046
    1   AR   Ar  194   5.550   4.450  -1.578
    1   AR   Ar  195   6.595   0.500  -0.566
    1   AR   Ar  196   4.409   1.376  -0.633
    1   AR   Ar  197   5.312   1.069   0.345
    1   AR   Ar  198   6.178   1.344   1.464
    1   AR   Ar  199   4.875   1.168   1.439
    1   AR   Ar  200   6.529   1.713   0.416
    1   AR   Ar  201   5.127   6.976   3.136
    1   AR   Ar  202   5.105   2.628   4.206
    1   AR   Ar  203   6.613   6.424   5.124
    1   AR   Ar  204   5.234   0.830   3.924
    1   AR   Ar  205   5.975   0.417   3.277
    1   AR   Ar  206   5.179   0.142   4.811
    1   AR   Ar  207   6.762   0.456   5.945
    1   AR   Ar  208   6.885   0.040   4.079
    1   AR   Ar  209   4.722   2.309  -1.518
    1   AR   Ar  210   3.909   0.951   1.072
    1   AR   Ar  211   6.397   3.013   0.464
    1   AR   Ar  212   6.468   3.793  -1.758
    1   AR   Ar  213   3.396   1.623   2.476
    1   AR   Ar  214   3.584   3.532   2.654
    1   AR   Ar  215   6.048   2.373   1.850
    1   AR   Ar  216   6.683   3.693   1.478
    1   AR   Ar  217   4.621   3.119   3.355
    1   AR   Ar  218   4.320   2.826   5.241
    1   AR   Ar  219   5.374   1.836   3.361
    1   AR   Ar  220   5.530   2.691   2.838
    1   AR   Ar  221   6.357   0.669   4.889
    1   AR   Ar  222   4.535   1.356   5.701
    1   AR   Ar  223   6.984   0.699   6.939
    1   AR   Ar  224   5.344   2.307   5.475
    1   AR   Ar  225   5.441   5.189   0.343
    1   AR   Ar  226   5.005   4.125   2.377
    1   AR   Ar  227   6.570   4.864  -0.011
    1   AR   Ar  228   4.962   5.790   1.261
    1   AR   Ar  229   5.871   4.029   0.017
    1   AR   Ar  230   4.545   4.518   3.643
    1   AR   Ar  231   6.330   2.145   3.046
    1   AR   Ar  232   4.446   3.027   0.686
    1   AR   Ar  233   6.534   2.438   4.480
    1   AR   Ar  234   0.083   3.440   4.532
    1   AR   Ar  235   0.328   2.177   4.215
    1   AR   Ar  236   5.231   4.305   4.690
    1   AR   Ar  237   5.901   3.446   4.135
    1   AR   Ar  238   4.636   4.217   5.598
    1   AR   Ar  239   6.651   3.869   9.203
    1   AR   Ar  240   6.936   4.041   5.755
    1   AR   Ar  241   0.394   0.143   0.100
    1   AR   Ar  242   5.118   4.734   1.248
    1   AR   Ar  243   5.995   3.784   2.605
    1   AR   Ar  244   0.593   4.800  -1.524
    1   AR   Ar  245   5.765   0.414   1.947
    1   AR   Ar  246   5.884   6.232   1.591
    1   AR   Ar  247   5.534   3.666   1.025
    1   AR   Ar  248   5.448   6.542   0.476
    1   AR   Ar  249   5.020   5.332   2.159
    1   AR   Ar  250   4.927   6.306   5.032
    1   AR   Ar  251   5.498   5.364   4.587
    1   AR   Ar  252   5.344   5.996   3.647
    1   AR   Ar  253   5.562   4.731   5.644
    1   AR   Ar  254   5.137   5.274   6.484
    1   AR   Ar  255   5.056   3.666   7.217
    1   AR   Ar  256   5.876   6.792   3.986
    7.12000  7.12000 12.00000
Argon-slab step 2035
  256
    1   AR   Ar    1   6.759   1.723  -0.794
    1   AR   Ar    2   6.428   0.371   1.044
    1   AR   Ar    3   0.201   6.930   1.169
    1   AR   Ar    4   1.370   7.064   0.409
    1   AR   Ar    5   6.587   5.634   0.588
    1   AR   Ar    6   6.978   0.661   2.690
    1   AR   Ar    7   0.064   5.184   2.988
    1   AR   Ar    8   6.741   6.944   2.063
    1   AR   Ar    9   0.973   0.429   4.244
    1   AR   Ar   10   1.149   1.523   4.298
    1   AR   Ar   11   2.993   6.873   4.744
    1   AR   Ar   12   0.938   0.701   3.127
    1   AR   Ar   13   7.003   1.444   5.142
    1   AR   Ar   14   0.915   1.500   6.466
    1   AR   Ar   15   6.958   0.272   9.170
    1   AR   Ar   16   1.549   1.323   5.408
    1   AR   Ar   17   0.949   1.083  -0.071
    1   AR   Ar   18   6.269   3.163  -0.674
    1   AR   Ar   19   1.193   2.286   1.495
    1   AR   Ar   20   6.161   3.676  -2.781
    1   AR   Ar   21   6.194   1.297   2.473
    1   AR   Ar   22   0.064   1.807   2.276
    1   AR   Ar   23   0.238   1.074   0.911
    1   AR   Ar   24   0.174   2.161   1.243
    1   AR   Ar   25   0.411   1.489   3.533
    1   AR   Ar   26   6.475   1.282   4.017
    1   AR   Ar   27   2.094   1.108   3.547
    1   AR   Ar   28   1.311   2.517   4.648
    1   AR   Ar   29   5.673   1.751   6.852
    1   AR   Ar   30   1.052   2.271   5.676
    1   AR   Ar   31   0.747   6.949   6.768
    1   AR   Ar   32   1.629   3.180   6.127
    1   AR   Ar   33   1.709   4.573  -0.958
    1   AR   Ar   34   0.273   6.070   1.760
    1   AR   Ar   35   7.006   5.126   1.416
    1   AR   Ar   36   0.328   0.148  -3.057
    1   AR   Ar   37   7.004   2.937   2.174
    1   AR   Ar   38   0.201   3.943   2.261
    1   AR   Ar   39   1.085   4.319   2.612
    1   AR   Ar   40   1.347   4.177   1.560
    1   AR   Ar   41   0.365   2.635   3.104
    1   AR   Ar   42   6.730   5.274   5.034
    1   AR   Ar   43   6.766   2.631   5.732
    1   AR   Ar   44   0.572   4.258   3.633
    1   AR   Ar   45   0.822   3.315   5.454
    1   AR   Ar   46   0.829   5.707   6.098
    1   AR   Ar   47   6.210   3.681   6.381
    1   AR   Ar   48   6.402   6.338   6.536
    1   AR   Ar   49   6.445   6.995  -1.644
    1   AR   Ar   50   6.007   4.957   1.859
    1   AR   Ar   51   0.946   5.092   1.608
    1   AR   Ar   52   6.248   5.095  -1.034
    1   AR   Ar   53   5.711   6.210   2.585
    1   AR   Ar   54   6.656   6.685   3.179
    1   AR   Ar   55   5.988   5.253   3.175
    1   AR   Ar   56   0.625   0.078   2.253
    1   AR   Ar   57   6.531   3.207   3.308
    1   AR   Ar   58   6.333   5.821   4.006
    1   AR   Ar   59   1.768   5.486   5.423
    1   AR   Ar   60   0.583   6.545   4.235
    1   AR   Ar   61   5.714   5.822   5.617
    1   AR   Ar   62   0.565   5.663   4.979
    1   AR   Ar   63   1.807   6.492   6.594
    1   AR   Ar   64   0.890   6.568   5.523
    1   AR   Ar   65   3.572   6.881   0.121
    1   AR   Ar   66   1.378   0.858   1.132
    1   AR   Ar   67   3.585   5.991  -0.797
    1   AR   Ar   68   3.136   1.720  -1.458
    1   AR   Ar   69   2.493   0.908   0.903
    1   AR   Ar   70   1.178   1.170   2.208
    1   AR   Ar   71   3.084   0.722   2.888
    1   AR   Ar   72   3.274   0.442   1.859
    1   AR   Ar   73   2.079   0.009   3.508
    1   AR   Ar   74   2.156   0.838   4.608
    1   AR   Ar   75   3.396   1.002   5.298
    1   AR   Ar   76   2.438   1.116   2.045
    1   AR   Ar   77   2.137   6.696   5.644
    1   AR   Ar   78   1.440   0.509   6.446
    1   AR   Ar   79   3.426   5.852   6.964
    1   AR   Ar   80   2.810   5.642   5.633
    1   AR   Ar   81   1.901   0.836   0.074
    1   AR   Ar   82   0.173   4.402  -0.668
    1   AR   Ar   83   2.245   2.181   0.893
    1   AR   Ar   84   0.377   3.431  -1.503
    1   AR   Ar   85   0.238   2.568  -0.150
    1   AR   Ar   86   1.904   3.254   1.730
    1   AR   Ar   87   2.062   2.179   1.931
    1   AR   Ar   88   4.341   3.942   1.406
    1   AR   Ar   89   0.854   3.108   2.102
    1   AR   Ar   90   2.841   1.738   4.577
    1   AR   Ar   91   2.006   2.201   3.890
    1   AR   Ar   92   1.243   2.115   2.699
    1   AR   Ar   93   2.287   2.081   5.418
    1   AR   Ar   94   0.818   1.455   8.554
    1   AR   Ar   95   3.162   6.745   5.980
    1   AR   Ar   96   2.520   0.524   5.946
    1   AR   Ar   97   3.897   2.336  -0.652
    1   AR   Ar   98   3.004   4.247   1.425
    1   AR   Ar   99   6.711   2.715  -1.582
    1   AR   Ar  100   1.911   3.585  -0.021
    1   AR   Ar  101   2.278   3.806   0.959
    1   AR   Ar  102   2.539   3.045   3.632
    1   AR   Ar  103   0.929   5.039   0.458
    1   AR   Ar  104   2.650   2.485  -0.595
    1   AR   Ar  105   1.637   3.348   2.965
    1   AR   Ar  106   2.406   2.772   4.767
    1   AR   Ar  107   1.919   3.945   5.044
    1   AR   Ar  108   3.414   3.018   4.268
    1   AR   Ar  109   2.003   4.001   3.696
    1   AR   Ar  110   1.317   4.481   5.858
    1   AR   Ar  111   4.120   4.578   6.718
    1   AR   Ar  112   0.431   5.195   7.232
    1   AR   Ar  113   2.275   4.897   0.266
    1   AR   Ar  114   2.669   5.222  -0.824
    1   AR   Ar  115   2.861   3.697  -0.468
    1   AR   Ar  116   4.693   6.168  -0.283
    1   AR   Ar  117   0.816   5.675   3.541
    1   AR   Ar  118   0.747   6.675   3.086
    1   AR   Ar  119   2.442   4.007   2.656
    1   AR   Ar  120   1.148   5.538   2.479
    1   AR   Ar  121   6.954   4.633   4.203
    1   AR   Ar  122   2.749   5.912   4.478
    1   AR   Ar  123   2.628   4.730   4.973
    1   AR   Ar  124   2.413   5.719   2.735
    1   AR   Ar  125   0.513   4.734   5.082
    1   AR   Ar  126   0.345   0.475   5.242
    1   AR   Ar  127   3.188   5.182   7.800
    1   AR   Ar  128   2.113   5.352   6.426
    1   AR   Ar  129   1.714   0.020   2.585
    1   AR   Ar  130   2.886   1.437  -3.416
    1   AR   Ar  131   4.413   6.978   0.732
    1   AR   Ar  132   0.571   2.388  -1.628
    1   AR   Ar  133   3.986   0.066   3.502
    1   AR   Ar  134   4.185   0.973   3.185
    1   AR   Ar  135   5.095   0.742   2.641
    1   AR   Ar  136   4.305   7.023   2.007
    1   AR   Ar  137   2.852   6.268   3.582
    1   AR   Ar  138   5.092   1.090   4.936
    1   AR   Ar  139   6.005   1.660   4.912
    1   AR   Ar  140   4.037   0.823   4.263
    1   AR   Ar  141   3.837   6.477   4.259
    1   AR   Ar  142   4.180   0.036   5.696
    1   AR   Ar  143   5.503   6.947   5.756
    1   AR   Ar  144   4.721   0.424   6.508
    1   AR   Ar  145   3.666   3.657   0.547
    1   AR   Ar  146   3.830   2.431   1.599
    1   AR   Ar  147   5.755   2.066  -0.609
    1   AR   Ar  148   4.893   4.423  -2.619
    1   AR   Ar  149   3.014   1.872   1.464
    1   AR   Ar  150   2.531   2.028   2.859
    1   AR   Ar  151   3.351   2.108   3.520
    1   AR   Ar  152   2.710   2.927   0.327
    1   AR   Ar  153   3.016   0.820   3.965
    1   AR   Ar  154   4.113   1.901   4.546
    1   AR   Ar  155   5.833   0.895   5.750
    1   AR   Ar  156   3.070   4.265   4.079
    1   AR   Ar  157   3.399   3.071   5.839
    1   AR   Ar  158   0.986   2.358   7.168
    1   AR   Ar  159   3.699   2.167   6.136
    1   AR   Ar  160   3.640   2.421   7.448
    1   AR   Ar  161   5.698   2.149   0.844
    1   AR   Ar  162   4.756   5.005  -0.299
    1   AR   Ar  163   5.347   2.813   0.082
    1   AR   Ar  164   3.891   4.887   1.197
    1   AR   Ar  165   3.060   3.218   1.440
    1   AR   Ar  166   2.446   5.157   3.908
    1   AR   Ar  167   4.384   2.056   2.818
    1   AR   Ar  168   4.909   3.565  -0.753
    1   AR   Ar  169   2.703   2.973   2.429
    1   AR   Ar  170   3.357   3.922   5.081
    1   AR   Ar  171   4.236   4.047   4.472
    1   AR   Ar  172   4.504   5.363   4.333
    1   AR   Ar  173   2.001   3.816   6.971
    1   AR   Ar  174   3.738   5.179   6.070
    1   AR   Ar  175   4.241   3.502   6.187
    1   AR   Ar  176   3.669   5.074   4.843
    1   AR   Ar  177   6.104   5.852  -0.292
    1   AR   Ar  178   3.008   6.252   1.310
    1   AR   Ar  179   3.963   5.719   0.466
    1   AR   Ar  180   3.676   3.030  -2.732
    1   AR   Ar  181   1.840   5.628   1.175
    1   AR   Ar  182   2.837   6.757   2.624
    1   AR   Ar  183   3.521   4.726   2.304
    1   AR   Ar  184   4.069   6.095   1.590
    1   AR   Ar  185   1.568   5.448   4.277
    1   AR   Ar  186   3.557   5.252   3.721
    1   AR   Ar  187   4.260   6.245   2.975
    1   AR   Ar  188   3.442   5.894   2.403
    1   AR   Ar  189   3.084   4.011   6.105
    1   AR   Ar  190   4.590   6.285   5.984
    1   AR   Ar  191   4.728   5.277   5.503
    1   AR   Ar  192   3.864   6.116   5.173
    1   AR   Ar  193   0.132   6.242  -0.057
    1   AR   Ar  194   5.543   4.473  -1.594
    1   AR   Ar  195   6.623   0.514  -0.544
    1   AR   Ar  196   4.430   1.310  -0.639
    1   AR   Ar  197   5.321   1.092   0.344
    1   AR   Ar  198   6.190   1.323   1.450
    1   AR   Ar  199   4.900   1.173   1.491
    1   AR   Ar  200   6.525   1.716   0.424
    1   AR   Ar  201   5.142   6.955   3.120
    1   AR   Ar  202   5.099   2.638   4.208
    1   AR   Ar  203   6.588   6.390   5.093
    1   AR   Ar  204   5.226   0.818   3.929
    1   AR   Ar  205   5.999   0.442   3.289
    1   AR   Ar  206   5.176   0.157   4.789
    1   AR   Ar  207   6.741   0.469   5.917
    1   AR   Ar  208   6.889   0.029   4.086
    1   AR   Ar  209   4.723   2.322  -1.492
    1   AR   Ar  210   3.926   0.939   1.087
    1   AR   Ar  211   6.395   3.026   0.458
    1   AR   Ar  212   6.449   3.789  -1.748
    1   AR   Ar  213   3.377   1.668   2.484
    1   AR   Ar  214   3.592   3.514   2.654
    1   AR   Ar  215   6.059   2.367   1.843
    1   AR   Ar  216   6.661   3.702   1.462
    1   AR   Ar  217   4.612   3.119   3.363
    1   AR   Ar  218   4.295   2.835   5.277
    1   AR   Ar  219   5.370   1.841   3.359
    1   AR   Ar  220   5.514   2.742   2.826
    1   AR   Ar  221   6.356   0.662   4.895
    1   AR   Ar  222   4.533   1.338   5.674
    1   AR   Ar  223   6.954   0.667   6.941
    1   AR   Ar  224   5.359   2.307   5.485
    1   AR   Ar  225   5.472   5.226   0.343
    1   AR   Ar  226   4.988   4.111   2.372
    1   AR   Ar  227   6.537   4.857   0.004
    1   AR   Ar  228   4.981   5.789   1.257
    1   AR   Ar  229   5.865   4.048   0.003
    1   AR   Ar  230   4.546   4.528   3.621
    1   AR   Ar  231   6.330   2.157   3.050
    1   AR   Ar  232   4.465   3.057   0.703
    1   AR   Ar  233   6.505   2.441   4.472
    1   AR   Ar  234   0.090   3.443   4.509
    1   AR   Ar  235   0.351   2.169   4.216
    1   AR   Ar  236   5.252   4.313   4.685
    1   AR   Ar  237   5.914   3.433   4.159
    1   AR   Ar  238   4.630   4.240   5.576
    1   AR   Ar  239   6.679   3.869   9.200
    1   AR   Ar  240   6.947   4.055   5.767
    1   AR   Ar  241   0.429   0.155   0.096
    1   AR   Ar  242   5.114   4.760   1.227
    1   AR   Ar  243   5.981   3.775   2.606
    1   AR   Ar  244   0.606   4.787  -1.505
    1   AR   Ar  245   5.762   0.388   1.914
    1   AR   Ar  246   5.894   6.203   1.618
    1   AR   Ar  247   5.530   3.682   1.002
    1   AR   Ar  248   5.451   6.528   0.517
    1   AR   Ar  249   4.975   5.341   2.155
    1   AR   Ar  250   4.937   6.262   5.018
    1   AR   Ar  251   5.505   5.363   4.558
    1   AR   Ar  252   5.347   5.976   3.655
    1   AR   Ar  253   5.558   4.712   5.650
    1   AR   Ar  254   5.112   5.292   6.467
    1   AR   Ar  255   5.057   3.624   7.240
    1   AR   Ar  256   5.880   6.828   3.981
    7.12000  7.12000 12.00000
Argon-slab step 2040
  256
    1   AR   Ar    1   6.772   1.714  -0.795
    1   AR   Ar    2   6.447   0.354   1.018
    1   AR   Ar    3   0.233   6.953   1.150
    1   AR   Ar    4   1.405   7.062   0.414
    1   AR   Ar    5   6.618   5.646   0.609
    1   AR   Ar    6   7.021   0.665   2.669
    1   AR   Ar    7   0.044   5.191   2.988
    1   AR   Ar    8   6.687   6.933   2.083
    1   AR   Ar    9   0.982   0.429   4.216
    1   AR   Ar   10   1.145   1.536   4.294
    1   AR   Ar   11   3.011   6.885   4.767
    1   AR   Ar   12   0.923   0.671   3.121
    1   AR   Ar   13   6.986   1.454   5.146
    1   AR   Ar   14   0.927   1.476   6.493
    1   AR   Ar   15   6.936   0.261   9.179
    1   AR   Ar   16   1.499   1.293   5.439
    1   AR   Ar   17   0.946   1.083  -0.064
    1   AR   Ar   18   6.295   3.157  -0.678
    1   AR   Ar   19   1.194   2.308   1.501
    1   AR   Ar   20   6.124   3.664  -2.775
    1   AR   Ar   21   6.170   1.298   2.472
    1   AR   Ar   22   0.057   1.805   2.265
    1   AR   Ar   23   0.247   1.054   0.867
    1   AR   Ar   24   0.148   2.164   1.213
    1   AR   Ar   25   0.394   1.487   3.511
    1   AR   Ar   26   6.512   1.256   4.013
    1   AR   Ar   27   2.076   1.121   3.552
    1   AR   Ar   28   1.311   2.521   4.619
    1   AR   Ar   29   5.659   1.737   6.866
    1   AR   Ar   30   1.066   2.255   5.694
    1   AR   Ar   31   0.729   6.940   6.790
    1   AR   Ar   32   1.612   3.169   6.137
    1   AR   Ar   33   1.684   4.568  -0.967
    1   AR   Ar   34   0.272   6.051   1.821
    1   AR   Ar   35   7.011   5.118   1.416
    1   AR   Ar   36   0.323   0.168  -3.099
    1   AR   Ar   37   6.987   2.947   2.137
    1   AR   Ar   38   0.198   3.947   2.249
    1   AR   Ar   39   1.106   4.296   2.626
    1   AR   Ar   40   1.348   4.186   1.562
    1   AR   Ar   41   0.341   2.613   3.096
    1   AR   Ar   42   6.719   5.261   5.025
    1   AR   Ar   43   6.749   2.631   5.732
    1   AR   Ar   44   0.582   4.230   3.627
    1   AR   Ar   45   0.805   3.313   5.470
    1   AR   Ar   46   0.836   5.689   6.084
    1   AR   Ar   47   6.201   3.670   6.383
    1   AR   Ar   48   6.382   6.330   6.549
    1   AR   Ar   49   6.471   6.975  -1.686
    1   AR   Ar   50   6.036   4.940   1.884
    1   AR   Ar   51   0.943   5.089   1.587
    1   AR   Ar   52   6.220   5.085  -1.038
    1   AR   Ar   53   5.685   6.220   2.595
    1   AR   Ar   54   6.617   6.707   3.197
    1   AR   Ar   55   5.984   5.276   3.167
    1   AR   Ar   56   0.623   0.092   2.261
    1   AR   Ar   57   6.506   3.214   3.340
    1   AR   Ar   58   6.362   5.853   3.997
    1   AR   Ar   59   1.725   5.511   5.428
    1   AR   Ar   60   0.559   6.535   4.240
    1   AR   Ar   61   5.735   5.799   5.629
    1   AR   Ar   62   0.579   5.695   5.014
    1   AR   Ar   63   1.831   6.494   6.618
    1   AR   Ar   64   0.865   6.600   5.518
    1   AR   Ar   65   3.577   6.943   0.174
    1   AR   Ar   66   1.364   0.845   1.136
    1   AR   Ar   67   3.572   6.000  -0.784
    1   AR   Ar   68   3.139   1.712  -1.433
    1   AR   Ar   69   2.517   0.894   0.912
    1   AR   Ar   70   1.161   1.176   2.205
    1   AR   Ar   71   3.079   0.730   2.881
    1   AR   Ar   72   3.289   0.430   1.860
    1   AR   Ar   73   2.087   0.031   3.501
    1   AR   Ar   74   2.173   0.818   4.625
    1   AR   Ar   75   3.431   1.009   5.299
    1   AR   Ar   76   2.459   1.097   1.990
    1   AR   Ar   77   2.134   6.678   5.661
    1   AR   Ar   78   1.473   0.526   6.402
    1   AR   Ar   79   3.416   5.848   6.987
    1   AR   Ar   80   2.809   5.660   5.641
    1   AR   Ar   81   1.914   0.787   0.087
    1   AR   Ar   82   0.144   4.361  -0.685
    1   AR   Ar   83   2.228   2.157   0.878
    1   AR   Ar   84   0.363   3.413  -1.525
    1   AR   Ar   85   0.226   2.583  -0.167
    1   AR   Ar   86   1.934   3.234   1.726
    1   AR   Ar   87   2.077   2.175   1.921
    1   AR   Ar   88   4.312   3.921   1.416
    1   AR   Ar   89   0.846   3.098   2.086
    1   AR   Ar   90   2.840   1.717   4.563
    1   AR   Ar   91   1.989   2.220   3.830
    1   AR   Ar   92   1.274   2.130   2.699
    1   AR   Ar   93   2.264   2.062   5.449
    1   AR   Ar   94   0.804   1.418   8.582
    1   AR   Ar   95   3.155   6.768   5.971
    1   AR   Ar   96   2.579   0.516   5.944
    1   AR   Ar   97   3.887   2.356  -0.661
    1   AR   Ar   98   2.986   4.275   1.459
    1   AR   Ar   99   6.719   2.712  -1.580
    1   AR   Ar  100   1.906   3.566  -0.027
    1   AR   Ar  101   2.250   3.803   0.916
    1   AR   Ar  102   2.544   3.025   3.609
    1   AR   Ar  103   0.928   5.036   0.439
    1   AR   Ar  104   2.629   2.497  -0.599
    1   AR   Ar  105   1.641   3.344   2.984
    1   AR   Ar  106   2.415   2.793   4.709
    1   AR   Ar  107   1.910   3.979   5.033
    1   AR   Ar  108   3.441   2.971   4.278
    1   AR   Ar  109   2.010   3.993   3.647
    1   AR   Ar  110   1.319   4.483   5.878
    1   AR   Ar  111   4.125   4.529   6.738
    1   AR   Ar  112   0.427   5.201   7.241
    1   AR   Ar  113   2.247   4.874   0.245
    1   AR   Ar  114   2.684   5.206  -0.865
    1   AR   Ar  115   2.861   3.689  -0.485
    1   AR   Ar  116   4.701   6.175  -0.285
    1   AR   Ar  117   0.805   5.646   3.565
    1   AR   Ar  118   0.766   6.669   3.133
    1   AR   Ar  119   2.443   3.988   2.622
    1   AR   Ar  120   1.153   5.514   2.430
    1   AR   Ar  121   6.970   4.603   4.211
    1   AR   Ar  122   2.744   5.911   4.479
    1   AR   Ar  123   2.587   4.728   4.967
    1   AR   Ar  124   2.421   5.738   2.662
    1   AR   Ar  125   0.511   4.703   5.079
    1   AR   Ar  126   0.337   0.431   5.232
    1   AR   Ar  127   3.210   5.167   7.801
    1   AR   Ar  128   2.138   5.359   6.439
    1   AR   Ar  129   1.690   0.031   2.578
    1   AR   Ar  130   2.893   1.447  -3.385
    1   AR   Ar  131   4.432   6.988   0.722
    1   AR   Ar  132   0.543   2.402  -1.609
    1   AR   Ar  133   4.006   0.021   3.480
    1   AR   Ar  134   4.229   0.965   3.218
    1   AR   Ar  135   5.084   0.795   2.609
    1   AR   Ar  136   4.309   7.013   2.031
    1   AR   Ar  137   2.858   6.259   3.608
    1   AR   Ar  138   5.108   1.104   4.916
    1   AR   Ar  139   6.006   1.674   4.931
    1   AR   Ar  140   4.057   0.808   4.259
    1   AR   Ar  141   3.814   6.490   4.274
    1   AR   Ar  142   4.198   0.003   5.712
    1   AR   Ar  143   5.549   6.949   5.740
    1   AR   Ar  144   4.728   0.404   6.506
    1   AR   Ar  145   3.649   3.664   0.570
    1   AR   Ar  146   3.887   2.411   1.582
    1   AR   Ar  147   5.778   2.061  -0.588
    1   AR   Ar  148   4.894   4.377  -2.631
    1   AR   Ar  149   2.993   1.889   1.458
    1   AR   Ar  150   2.540   2.028   2.845
    1   AR   Ar  151   3.328   2.120   3.522
    1   AR   Ar  152   2.723   2.937   0.327
    1   AR   Ar  153   3.034   0.825   3.976
    1   AR   Ar  154   4.123   1.897   4.569
    1   AR   Ar  155   5.834   0.888   5.751
    1   AR   Ar  156   3.059   4.270   4.068
    1   AR   Ar  157   3.357   3.039   5.829
    1   AR   Ar  158   0.996   2.375   7.153
    1   AR   Ar  159   3.688   2.152   6.132
    1   AR   Ar  160   3.612   2.414   7.441
    1   AR   Ar  161   5.674   2.162   0.822
    1   AR   Ar  162   4.754   4.990  -0.302
    1   AR   Ar  163   5.331   2.791   0.072
    1   AR   Ar  164   3.916   4.901   1.209
    1   AR   Ar  165   3.045   3.218   1.413
    1   AR   Ar  166   2.455   5.160   3.919
    1   AR   Ar  167   4.378   2.072   2.813
    1   AR   Ar  168   4.957   3.579  -0.737
    1   AR   Ar  169   2.692   2.974   2.458
    1   AR   Ar  170   3.367   3.903   5.088
    1   AR   Ar  171   4.223   4.056   4.499
    1   AR   Ar  172   4.485   5.389   4.326
    1   AR   Ar  173   2.005   3.798   6.976
    1   AR   Ar  174   3.750   5.153   6.052
    1   AR   Ar  175   4.234   3.465   6.164
    1   AR   Ar  176   3.689   5.074   4.857
    1   AR   Ar  177   6.094   5.863  -0.308
    1   AR   Ar  178   2.998   6.234   1.305
    1   AR   Ar  179   3.963   5.713   0.492
    1   AR   Ar  180   3.635   3.045  -2.705
    1   AR   Ar  181   1.821   5.619   1.154
    1   AR   Ar  182   2.841   6.719   2.625
    1   AR   Ar  183   3.534   4.726   2.334
    1   AR   Ar  184   4.041   6.110   1.575
    1   AR   Ar  185   1.566   5.448   4.312
    1   AR   Ar  186   3.571   5.261   3.701
    1   AR   Ar  187   4.237   6.257   2.957
    1   AR   Ar  188   3.452   5.858   2.397
    1   AR   Ar  189   3.119   4.024   6.115
    1   AR   Ar  190   4.606   6.294   5.963
    1   AR   Ar  191   4.718   5.265   5.489
    1   AR   Ar  192   3.835   6.094   5.141
    1   AR   Ar  193   0.146   6.243  -0.068
    1   AR   Ar  194   5.536   4.494  -1.611
    1   AR   Ar  195   6.611   0.506  -0.501
    1   AR   Ar  196   4.451   1.245  -0.644
    1   AR   Ar  197   5.330   1.117   0.344
    1   AR   Ar  198   6.203   1.304   1.430
    1   AR   Ar  199   4.928   1.176   1.544
    1   AR   Ar  200   6.526   1.716   0.430
    1   AR   Ar  201   5.153   6.929   3.109
    1   AR   Ar  202   5.093   2.647   4.211
    1   AR   Ar  203   6.562   6.357   5.061
    1   AR   Ar  204   5.216   0.807   3.929
    1   AR   Ar  205   6.027   0.474   3.295
    1   AR   Ar  206   5.176   0.152   4.762
    1   AR   Ar  207   6.718   0.478   5.894
    1   AR   Ar  208   6.892   0.025   4.096
    1   AR   Ar  209   4.723   2.336  -1.463
    1   AR   Ar  210   3.942   0.925   1.103
    1   AR   Ar  211   6.400   3.060   0.433
    1   AR   Ar  212   6.426   3.796  -1.752
    1   AR   Ar  213   3.368   1.711   2.486
    1   AR   Ar  214   3.601   3.497   2.654
    1   AR   Ar  215   6.081   2.352   1.836
    1   AR   Ar  216   6.635   3.710   1.444
    1   AR   Ar  217   4.601   3.120   3.370
    1   AR   Ar  218   4.315   2.826   5.260
    1   AR   Ar  219   5.363   1.841   3.361
    1   AR   Ar  220   5.495   2.798   2.811
    1   AR   Ar  221   6.355   0.646   4.896
    1   AR   Ar  222   4.519   1.325   5.662
    1   AR   Ar  223   6.925   0.636   6.945
    1   AR   Ar  224   5.381   2.315   5.495
    1   AR   Ar  225   5.513   5.266   0.349
    1   AR   Ar  226   4.969   4.100   2.365
    1   AR   Ar  227   6.505   4.840   0.011
    1   AR   Ar  228   5.003   5.792   1.241
    1   AR   Ar  229   5.856   4.063  -0.012
    1   AR   Ar  230   4.549   4.541   3.594
    1   AR   Ar  231   6.339   2.170   3.056
    1   AR   Ar  232   4.504   3.086   0.719
    1   AR   Ar  233   6.474   2.450   4.463
    1   AR   Ar  234   0.097   3.445   4.487
    1   AR   Ar  235   0.372   2.175   4.227
    1   AR   Ar  236   5.274   4.321   4.677
    1   AR   Ar  237   5.925   3.420   4.185
    1   AR   Ar  238   4.618   4.262   5.552
    1   AR   Ar  239   6.706   3.870   9.197
    1   AR   Ar  240   6.958   4.065   5.785
    1   AR   Ar  241   0.455   0.170   0.091
    1   AR   Ar  242   5.109   4.780   1.206
    1   AR   Ar  243   5.969   3.767   2.605
    1   AR   Ar  244   0.620   4.789  -1.499
    1   AR   Ar  245   5.761   0.360   1.879
    1   AR   Ar  246   5.909   6.175   1.634
    1   AR   Ar  247   5.538   3.676   0.976
    1   AR   Ar  248   5.455   6.512   0.559
    1   AR   Ar  249   4.930   5.347   2.160
    1   AR   Ar  250   4.947   6.215   4.997
    1   AR   Ar  251   5.518   5.363   4.534
    1   AR   Ar  252   5.344   5.955   3.662
    1   AR   Ar  253   5.564   4.690   5.658
    1   AR   Ar  254   5.087   5.311   6.453
    1   AR   Ar  255   5.056   3.582   7.262
    1   AR   Ar  256   5.882   6.862   3.983
    7.12000  7.12000 12.00000
Argon-slab step 2045
  256
    1   AR   Ar    1   6.788   1.705  -0.795
    1   AR   Ar    2   6.466   0.338   0.990
    1   AR   Ar    3   0.269   6.975   1.131
    1   AR   Ar    4   1.442   7.057   0.424
    1   AR   Ar    5   6.649   5.666   0.635
    1   AR   Ar    6   7.058   0.674   2.654
    1   AR   Ar    7   0.022   5.197   2.987
    1   AR   Ar    8   6.632   6.919   2.102
    1   AR   Ar    9   0.992   0.429   4.188
    1   AR   Ar   10   1.150   1.537   4.299
    1   AR   Ar   11   3.040   6.898   4.802
    1   AR   Ar   12   0.912   0.639   3.117
    1   AR   Ar   13   6.975   1.465   5.151
    1   AR   Ar   14   0.937   1.452   6.519
    1   AR   Ar   15   6.914   0.251   9.188
    1   AR   Ar   16   1.448   1.260   5.469
    1   AR   Ar   17   0.938   1.088  -0.057
    1   AR   Ar   18   6.320   3.152  -0.680
    1   AR   Ar   19   1.187   2.328   1.501
    1   AR   Ar   20   6.085   3.651  -2.769
    1   AR   Ar   21   6.143   1.298   2.474
    1   AR   Ar   22   0.049   1.804   2.256
    1   AR   Ar   23   0.255   1.032   0.823
    1   AR   Ar   24   0.121   2.167   1.183
    1   AR   Ar   25   0.375   1.481   3.479
    1   AR   Ar   26   6.550   1.230   4.008
    1   AR   Ar   27   2.088   1.139   3.545
    1   AR   Ar   28   1.313   2.530   4.595
    1   AR   Ar   29   5.645   1.723   6.879
    1   AR   Ar   30   1.080   2.240   5.713
    1   AR   Ar   31   0.711   6.931   6.811
    1   AR   Ar   32   1.596   3.157   6.147
    1   AR   Ar   33   1.675   4.575  -0.966
    1   AR   Ar   34   0.272   6.033   1.884
    1   AR   Ar   35   7.016   5.106   1.419
    1   AR   Ar   36   0.319   0.189  -3.142
    1   AR   Ar   37   6.957   2.950   2.101
    1   AR   Ar   38   0.192   3.954   2.237
    1   AR   Ar   39   1.131   4.275   2.642
    1   AR   Ar   40   1.354   4.185   1.564
    1   AR   Ar   41   0.317   2.589   3.088
    1   AR   Ar   42   6.710   5.259   5.014
    1   AR   Ar   43   6.733   2.631   5.731
    1   AR   Ar   44   0.598   4.199   3.615
    1   AR   Ar   45   0.785   3.313   5.481
    1   AR   Ar   46   0.843   5.668   6.072
    1   AR   Ar   47   6.188   3.656   6.386
    1   AR   Ar   48   6.362   6.323   6.560
    1   AR   Ar   49   6.497   6.956  -1.728
    1   AR   Ar   50   6.062   4.924   1.910
    1   AR   Ar   51   0.932   5.089   1.552
    1   AR   Ar   52   6.194   5.074  -1.042
    1   AR   Ar   53   5.661   6.226   2.614
    1   AR   Ar   54   6.578   6.725   3.209
    1   AR   Ar   55   5.995   5.297   3.151
    1   AR   Ar   56   0.626   0.102   2.259
    1   AR   Ar   57   6.486   3.219   3.371
    1   AR   Ar   58   6.395   5.887   3.991
    1   AR   Ar   59   1.681   5.536   5.432
    1   AR   Ar   60   0.540   6.518   4.248
    1   AR   Ar   61   5.757   5.775   5.641
    1   AR   Ar   62   0.595   5.738   5.045
    1   AR   Ar   63   1.830   6.516   6.572
    1   AR   Ar   64   0.855   6.612   5.535
    1   AR   Ar   65   3.576   7.004   0.224
    1   AR   Ar   66   1.350   0.831   1.140
    1   AR   Ar   67   3.560   6.008  -0.769
    1   AR   Ar   68   3.141   1.706  -1.406
    1   AR   Ar   69   2.544   0.882   0.926
    1   AR   Ar   70   1.144   1.181   2.199
    1   AR   Ar   71   3.073   0.737   2.875
    1   AR   Ar   72   3.305   0.416   1.859
    1   AR   Ar   73   2.099   0.052   3.501
    1   AR   Ar   74   2.189   0.797   4.643
    1   AR   Ar   75   3.465   1.016   5.299
    1   AR   Ar   76   2.478   1.080   1.938
    1   AR   Ar   77   2.134   6.673   5.645
    1   AR   Ar   78   1.508   0.542   6.355
    1   AR   Ar   79   3.399   5.854   7.001
    1   AR   Ar   80   2.810   5.680   5.646
    1   AR   Ar   81   1.930   0.740   0.095
    1   AR   Ar   82   0.113   4.318  -0.699
    1   AR   Ar   83   2.203   2.134   0.857
    1   AR   Ar   84   0.355   3.398  -1.547
    1   AR   Ar   85   0.211   2.597  -0.184
    1   AR   Ar   86   1.961   3.213   1.725
    1   AR   Ar   87   2.100   2.170   1.917
    1   AR   Ar   88   4.283   3.900   1.427
    1   AR   Ar   89   0.849   3.090   2.073
    1   AR   Ar   90   2.838   1.697   4.548
    1   AR   Ar   91   1.968   2.231   3.771
    1   AR   Ar   92   1.308   2.148   2.699
    1   AR   Ar   93   2.240   2.042   5.482
    1   AR   Ar   94   0.790   1.380   8.610
    1   AR   Ar   95   3.153   6.785   5.960
    1   AR   Ar   96   2.635   0.513   5.941
    1   AR   Ar   97   3.876   2.376  -0.670
    1   AR   Ar   98   2.972   4.306   1.497
    1   AR   Ar   99   6.715   2.709  -1.577
    1   AR   Ar  100   1.896   3.547  -0.037
    1   AR   Ar  101   2.211   3.826   0.874
    1   AR   Ar  102   2.555   3.011   3.582
    1   AR   Ar  103   0.928   5.033   0.420
    1   AR   Ar  104   2.609   2.506  -0.607
    1   AR   Ar  105   1.641   3.331   2.995
    1   AR   Ar  106   2.425   2.817   4.648
    1   AR   Ar  107   1.897   4.006   5.024
    1   AR   Ar  108   3.469   2.925   4.290
    1   AR   Ar  109   2.021   3.993   3.606
    1   AR   Ar  110   1.321   4.486   5.896
    1   AR   Ar  111   4.134   4.472   6.763
    1   AR   Ar  112   0.438   5.193   7.256
    1   AR   Ar  113   2.269   4.869   0.222
    1   AR   Ar  114   2.699   5.189  -0.905
    1   AR   Ar  115   2.863   3.681  -0.503
    1   AR   Ar  116   4.707   6.178  -0.287
    1   AR   Ar  117   0.795   5.619   3.591
    1   AR   Ar  118   0.786   6.661   3.183
    1   AR   Ar  119   2.445   3.972   2.587
    1   AR   Ar  120   1.161   5.497   2.396
    1   AR   Ar  121   6.980   4.576   4.222
    1   AR   Ar  122   2.742   5.906   4.509
    1   AR   Ar  123   2.551   4.733   4.961
    1   AR   Ar  124   2.427   5.755   2.590
    1   AR   Ar  125   0.512   4.659   5.078
    1   AR   Ar  126   0.337   0.387   5.214
    1   AR   Ar  127   3.232   5.151   7.802
    1   AR   Ar  128   2.162   5.366   6.452
    1   AR   Ar  129   1.664   0.043   2.562
    1   AR   Ar  130   2.902   1.442  -3.365
    1   AR   Ar  131   4.456   6.983   0.715
    1   AR   Ar  132   0.526   2.407  -1.590
    1   AR   Ar  133   4.024   7.093   3.458
    1   AR   Ar  134   4.272   0.966   3.248
    1   AR   Ar  135   5.074   0.848   2.578
    1   AR   Ar  136   4.313   7.006   2.058
    1   AR   Ar  137   2.868   6.258   3.613
    1   AR   Ar  138   5.130   1.132   4.891
    1   AR   Ar  139   6.002   1.684   4.949
    1   AR   Ar  140   4.070   0.811   4.258
    1   AR   Ar  141   3.794   6.504   4.269
    1   AR   Ar  142   4.200   7.119   5.709
    1   AR   Ar  143   5.595   6.949   5.725
    1   AR   Ar  144   4.739   0.386   6.505
    1   AR   Ar  145   3.655   3.680   0.584
    1   AR   Ar  146   3.946   2.394   1.567
    1   AR   Ar  147   5.800   2.056  -0.565
    1   AR   Ar  148   4.897   4.331  -2.642
    1   AR   Ar  149   2.977   1.900   1.455
    1   AR   Ar  150   2.550   2.034   2.867
    1   AR   Ar  151   3.307   2.131   3.528
    1   AR   Ar  152   2.740   2.952   0.334
    1   AR   Ar  153   3.053   0.827   3.986
    1   AR   Ar  154   4.133   1.893   4.593
    1   AR   Ar  155   5.821   0.890   5.754
    1   AR   Ar  156   3.050   4.273   4.057
    1   AR   Ar  157   3.341   3.028   5.874
    1   AR   Ar  158   1.007   2.391   7.137
    1   AR   Ar  159   3.682   2.129   6.130
    1   AR   Ar  160   3.584   2.408   7.432
    1   AR   Ar  161   5.653   2.172   0.815
    1   AR   Ar  162   4.749   4.973  -0.307
    1   AR   Ar  163   5.314   2.773   0.058
    1   AR   Ar  164   3.942   4.915   1.222
    1   AR   Ar  165   3.031   3.213   1.387
    1   AR   Ar  166   2.466   5.152   3.919
    1   AR   Ar  167   4.373   2.087   2.809
    1   AR   Ar  168   5.006   3.593  -0.719
    1   AR   Ar  169   2.668   2.972   2.440
    1   AR   Ar  170   3.376   3.884   5.095
    1   AR   Ar  171   4.210   4.066   4.526
    1   AR   Ar  172   4.471   5.418   4.316
    1   AR   Ar  173   2.009   3.780   6.979
    1   AR   Ar  174   3.758   5.133   6.026
    1   AR   Ar  175   4.229   3.432   6.145
    1   AR   Ar  176   3.702   5.068   4.875
    1   AR   Ar  177   6.097   5.855  -0.302
    1   AR   Ar  178   2.987   6.216   1.300
    1   AR   Ar  179   3.965   5.709   0.518
    1   AR   Ar  180   3.593   3.060  -2.678
    1   AR   Ar  181   1.803   5.610   1.132
    1   AR   Ar  182   2.846   6.686   2.625
    1   AR   Ar  183   3.548   4.725   2.363
    1   AR   Ar  184   4.013   6.123   1.555
    1   AR   Ar  185   1.558   5.449   4.352
    1   AR   Ar  186   3.585   5.271   3.681
    1   AR   Ar  187   4.218   6.267   2.939
    1   AR   Ar  188   3.459   5.818   2.391
    1   AR   Ar  189   3.154   4.041   6.128
    1   AR   Ar  190   4.629   6.285   5.952
    1   AR   Ar  191   4.703   5.263   5.467
    1   AR   Ar  192   3.807   6.065   5.130
    1   AR   Ar  193   0.160   6.243  -0.078
    1   AR   Ar  194   5.527   4.513  -1.628
    1   AR   Ar  195   6.600   0.498  -0.458
    1   AR   Ar  196   4.474   1.182  -0.649
    1   AR   Ar  197   5.341   1.143   0.345
    1   AR   Ar  198   6.215   1.288   1.407
    1   AR   Ar  199   4.958   1.180   1.598
    1   AR   Ar  200   6.499   1.729   0.431
    1   AR   Ar  201   5.159   6.908   3.101
    1   AR   Ar  202   5.088   2.653   4.216
    1   AR   Ar  203   6.537   6.325   5.027
    1   AR   Ar  204   5.206   0.796   3.922
    1   AR   Ar  205   6.058   0.514   3.294
    1   AR   Ar  206   5.168   0.156   4.771
    1   AR   Ar  207   6.698   0.482   5.880
    1   AR   Ar  208   6.893   0.030   4.110
    1   AR   Ar  209   4.723   2.349  -1.433
    1   AR   Ar  210   3.957   0.911   1.118
    1   AR   Ar  211   6.404   3.093   0.409
    1   AR   Ar  212   6.404   3.803  -1.752
    1   AR   Ar  213   3.377   1.748   2.480
    1   AR   Ar  214   3.612   3.482   2.653
    1   AR   Ar  215   6.105   2.336   1.831
    1   AR   Ar  216   6.572   3.696   1.439
    1   AR   Ar  217   4.589   3.121   3.376
    1   AR   Ar  218   4.335   2.817   5.242
    1   AR   Ar  219   5.354   1.838   3.364
    1   AR   Ar  220   5.476   2.855   2.796
    1   AR   Ar  221   6.353   0.624   4.890
    1   AR   Ar  222   4.496   1.315   5.660
    1   AR   Ar  223   6.917   0.655   6.938
    1   AR   Ar  224   5.406   2.328   5.505
    1   AR   Ar  225   5.557   5.308   0.360
    1   AR   Ar  226   4.948   4.090   2.358
    1   AR   Ar  227   6.478   4.822   0.014
    1   AR   Ar  228   5.024   5.802   1.218
    1   AR   Ar  229   5.842   4.073  -0.028
    1   AR   Ar  230   4.552   4.554   3.566
    1   AR   Ar  231   6.353   2.182   3.063
    1   AR   Ar  232   4.546   3.113   0.735
    1   AR   Ar  233   6.444   2.463   4.450
    1   AR   Ar  234   0.103   3.447   4.464
    1   AR   Ar  235   0.391   2.181   4.227
    1   AR   Ar  236   5.295   4.328   4.667
    1   AR   Ar  237   5.934   3.408   4.213
    1   AR   Ar  238   4.613   4.270   5.533
    1   AR   Ar  239   6.733   3.870   9.194
    1   AR   Ar  240   6.973   4.077   5.799
    1   AR   Ar  241   0.474   0.185   0.087
    1   AR   Ar  242   5.103   4.791   1.188
    1   AR   Ar  243   5.959   3.760   2.601
    1   AR   Ar  244   0.636   4.795  -1.499
    1   AR   Ar  245   5.760   0.332   1.845
    1   AR   Ar  246   5.930   6.147   1.638
    1   AR   Ar  247   5.545   3.670   0.950
    1   AR   Ar  248   5.459   6.496   0.600
    1   AR   Ar  249   4.884   5.351   2.170
    1   AR   Ar  250   4.958   6.170   4.970
    1   AR   Ar  251   5.535   5.363   4.513
    1   AR   Ar  252   5.335   5.938   3.668
    1   AR   Ar  253   5.579   4.668   5.666
    1   AR   Ar  254   5.071   5.295   6.449
    1   AR   Ar  255   5.055   3.540   7.282
    1   AR   Ar  256   5.879   6.893   3.991
    7.12000  7.12000 12.00000
Argon-slab step 2050
  256
    1   AR   Ar    1   6.805   1.697  -0.795
    1   AR   Ar    2   6.483   0.320   0.961
    1   AR   Ar    3   0.308   6.997   1.114
    1   AR   Ar    4   1.475   7.043   0.438
    1   AR   Ar    5   6.677   5.691   0.660
    1   AR   Ar    6   7.085   0.692   2.645
    1   AR   Ar    7   7.119   5.201   2.984
    1   AR   Ar    8   6.580   6.903   2.122
    1   AR   Ar    9   1.002   0.430   4.161
    1   AR   Ar   10   1.164   1.521   4.314
    1   AR   Ar   11   3.063   6.916   4.842
    1   AR   Ar   12   0.904   0.607   3.117
    1   AR   Ar   13   6.972   1.476   5.156
    1   AR   Ar   14   0.948   1.429   6.543
    1   AR   Ar   15   6.893   0.241   9.197
    1   AR   Ar   16   1.397   1.225   5.497
    1   AR   Ar   17   0.930   1.098  -0.049
    1   AR   Ar   18   6.344   3.147  -0.681
    1   AR   Ar   19   1.177   2.343   1.495
    1   AR   Ar   20   6.066   3.638  -2.772
    1   AR   Ar   21   6.125   1.272   2.459
    1   AR   Ar   22   0.041   1.802   2.248
    1   AR   Ar   23   0.262   1.011   0.781
    1   AR   Ar   24   0.113   2.155   1.172
    1   AR   Ar   25   0.355   1.473   3.441
    1   AR   Ar   26   6.587   1.207   4.002
    1   AR   Ar   27   2.098   1.158   3.537
    1   AR   Ar   28   1.318   2.544   4.575
    1   AR   Ar   29   5.630   1.709   6.891
    1   AR   Ar   30   1.094   2.227   5.731
    1   AR   Ar   31   0.693   6.921   6.829
    1   AR   Ar   32   1.609   3.147   6.143
    1   AR   Ar   33   1.692   4.599  -0.953
    1   AR   Ar   34   0.271   6.016   1.948
    1   AR   Ar   35   7.019   5.091   1.424
    1   AR   Ar   36   0.311   0.191  -3.170
    1   AR   Ar   37   6.922   2.949   2.069
    1   AR   Ar   38   0.185   3.965   2.226
    1   AR   Ar   39   1.158   4.255   2.658
    1   AR   Ar   40   1.364   4.174   1.566
    1   AR   Ar   41   0.293   2.565   3.079
    1   AR   Ar   42   6.708   5.274   5.000
    1   AR   Ar   43   6.717   2.630   5.727
    1   AR   Ar   44   0.618   4.166   3.601
    1   AR   Ar   45   0.762   3.314   5.490
    1   AR   Ar   46   0.850   5.646   6.066
    1   AR   Ar   47   6.172   3.642   6.390
    1   AR   Ar   48   6.342   6.316   6.569
    1   AR   Ar   49   6.523   6.938  -1.769
    1   AR   Ar   50   6.086   4.908   1.936
    1   AR   Ar   51   0.911   5.083   1.517
    1   AR   Ar   52   6.171   5.062  -1.043
    1   AR   Ar   53   5.646   6.221   2.630
    1   AR   Ar   54   6.542   6.738   3.216
    1   AR   Ar   55   6.009   5.315   3.133
    1   AR   Ar   56   0.639   0.115   2.249
    1   AR   Ar   57   6.471   3.221   3.398
    1   AR   Ar   58   6.430   5.921   3.985
    1   AR   Ar   59   1.640   5.560   5.436
    1   AR   Ar   60   0.527   6.495   4.258
    1   AR   Ar   61   5.778   5.752   5.652
    1   AR   Ar   62   0.611   5.778   5.070
    1   AR   Ar   63   1.825   6.537   6.535
    1   AR   Ar   64   0.851   6.622   5.559
    1   AR   Ar   65   3.569   7.064   0.271
    1   AR   Ar   66   1.336   0.818   1.143
    1   AR   Ar   67   3.548   6.016  -0.752
    1   AR   Ar   68   3.145   1.700  -1.378
    1   AR   Ar   69   2.574   0.870   0.940
    1   AR   Ar   70   1.127   1.186   2.192
    1   AR   Ar   71   3.066   0.744   2.872
    1   AR   Ar   72   3.323   0.400   1.858
    1   AR   Ar   73   2.113   0.072   3.507
    1   AR   Ar   74   2.201   0.786   4.654
    1   AR   Ar   75   3.499   1.022   5.297
    1   AR   Ar   76   2.493   1.066   1.894
    1   AR   Ar   77   2.136   6.673   5.611
    1   AR   Ar   78   1.544   0.555   6.307
    1   AR   Ar   79   3.381   5.859   7.011
    1   AR   Ar   80   2.813   5.701   5.649
    1   AR   Ar   81   1.951   0.700   0.098
    1   AR   Ar   82   0.079   4.273  -0.712
    1   AR   Ar   83   2.170   2.113   0.830
    1   AR   Ar   84   0.349   3.396  -1.568
    1   AR   Ar   85   0.193   2.610  -0.202
    1   AR   Ar   86   1.983   3.194   1.724
    1   AR   Ar   87   2.124   2.163   1.920
    1   AR   Ar   88   4.314   3.920   1.486
    1   AR   Ar   89   0.845   3.046   2.099
    1   AR   Ar   90   2.837   1.682   4.534
    1   AR   Ar   91   1.940   2.234   3.714
    1   AR   Ar   92   1.342   2.167   2.700
    1   AR   Ar   93   2.216   2.022   5.514
    1   AR   Ar   94   0.775   1.343   8.638
    1   AR   Ar   95   3.159   6.792   5.949
    1   AR   Ar   96   2.685   0.520   5.937
    1   AR   Ar   97   3.888   2.393  -0.703
    1   AR   Ar   98   2.959   4.338   1.535
    1   AR   Ar   99   6.693   2.706  -1.574
    1   AR   Ar  100   1.882   3.526  -0.055
    1   AR   Ar  101   2.176   3.852   0.839
    1   AR   Ar  102   2.573   3.005   3.551
    1   AR   Ar  103   0.928   5.030   0.402
    1   AR   Ar  104   2.589   2.515  -0.619
    1   AR   Ar  105   1.636   3.306   2.996
    1   AR   Ar  106   2.435   2.840   4.587
    1   AR   Ar  107   1.874   4.023   5.014
    1   AR   Ar  108   3.499   2.879   4.302
    1   AR   Ar  109   2.037   4.003   3.575
    1   AR   Ar  110   1.323   4.489   5.914
    1   AR   Ar  111   4.144   4.414   6.787
    1   AR   Ar  112   0.469   5.165   7.282
    1   AR   Ar  113   2.291   4.863   0.199
    1   AR   Ar  114   2.713   5.172  -0.943
    1   AR   Ar  115   2.866   3.673  -0.520
    1   AR   Ar  116   4.705   6.172  -0.291
    1   AR   Ar  117   0.785   5.592   3.617
    1   AR   Ar  118   0.805   6.653   3.234
    1   AR   Ar  119   2.450   3.964   2.559
    1   AR   Ar  120   1.169   5.482   2.391
    1   AR   Ar  121   6.984   4.550   4.233
    1   AR   Ar  122   2.740   5.900   4.562
    1   AR   Ar  123   2.525   4.751   4.956
    1   AR   Ar  124   2.427   5.765   2.520
    1   AR   Ar  125   0.515   4.613   5.079
    1   AR   Ar  126   0.341   0.344   5.189
    1   AR   Ar  127   3.254   5.134   7.803
    1   AR   Ar  128   2.184   5.374   6.466
    1   AR   Ar  129   1.638   0.055   2.543
    1   AR   Ar  130   2.915   1.444  -3.366
    1   AR   Ar  131   4.487   6.968   0.711
    1   AR   Ar  132   0.522   2.400  -1.570
    1   AR   Ar  133   4.040   7.054   3.438
    1   AR   Ar  134   4.314   0.974   3.274
    1   AR   Ar  135   5.069   0.899   2.551
    1   AR   Ar  136   4.319   7.002   2.087
    1   AR   Ar  137   2.881   6.262   3.604
    1   AR   Ar  138   5.150   1.171   4.866
    1   AR   Ar  139   5.996   1.692   4.967
    1   AR   Ar  140   4.071   0.840   4.260
    1   AR   Ar  141   3.779   6.518   4.249
    1   AR   Ar  142   4.188   0.017   5.691
    1   AR   Ar  143   5.641   6.947   5.709
    1   AR   Ar  144   4.752   0.370   6.506
    1   AR   Ar  145   3.708   3.697   0.572
    1   AR   Ar  146   4.006   2.378   1.553
    1   AR   Ar  147   5.821   2.051  -0.543
    1   AR   Ar  148   4.901   4.284  -2.652
    1   AR   Ar  149   2.973   1.909   1.454
    1   AR   Ar  150   2.536   2.040   2.896
    1   AR   Ar  151   3.292   2.142   3.540
    1   AR   Ar  152   2.757   2.968   0.344
    1   AR   Ar  153   3.071   0.826   3.994
    1   AR   Ar  154   4.143   1.889   4.617
    1   AR   Ar  155   5.792   0.901   5.757
    1   AR   Ar  156   3.044   4.274   4.047
    1   AR   Ar  157   3.315   3.020   5.912
    1   AR   Ar  158   1.019   2.408   7.119
    1   AR   Ar  159   3.680   2.096   6.129
    1   AR   Ar  160   3.556   2.401   7.422
    1   AR   Ar  161   5.649   2.174   0.858
    1   AR   Ar  162   4.724   4.953  -0.292
    1   AR   Ar  163   5.297   2.762   0.040
    1   AR   Ar  164   3.968   4.930   1.239
    1   AR   Ar  165   3.017   3.207   1.361
    1   AR   Ar  166   2.477   5.137   3.911
    1   AR   Ar  167   4.368   2.103   2.806
    1   AR   Ar  168   5.057   3.606  -0.700
    1   AR   Ar  169   2.649   2.968   2.423
    1   AR   Ar  170   3.382   3.863   5.102
    1   AR   Ar  171   4.201   4.078   4.549
    1   AR   Ar  172   4.460   5.449   4.302
    1   AR   Ar  173   2.014   3.763   6.981
    1   AR   Ar  174   3.765   5.115   5.997
    1   AR   Ar  175   4.230   3.402   6.129
    1   AR   Ar  176   3.708   5.054   4.896
    1   AR   Ar  177   6.139   5.856  -0.312
    1   AR   Ar  178   2.975   6.198   1.297
    1   AR   Ar  179   3.969   5.709   0.541
    1   AR   Ar  180   3.552   3.075  -2.650
    1   AR   Ar  181   1.784   5.601   1.111
    1   AR   Ar  182   2.853   6.664   2.625
    1   AR   Ar  183   3.562   4.723   2.393
    1   AR   Ar  184   3.990   6.133   1.533
    1   AR   Ar  185   1.548   5.451   4.394
    1   AR   Ar  186   3.597   5.282   3.661
    1   AR   Ar  187   4.205   6.269   2.919
    1   AR   Ar  188   3.466   5.776   2.385
    1   AR   Ar  189   3.189   4.063   6.143
    1   AR   Ar  190   4.659   6.261   5.948
    1   AR   Ar  191   4.685   5.269   5.440
    1   AR   Ar  192   3.779   6.032   5.136
    1   AR   Ar  193   0.174   6.243  -0.087
    1   AR   Ar  194   5.515   4.529  -1.648
    1   AR   Ar  195   6.590   0.491  -0.414
    1   AR   Ar  196   4.496   1.120  -0.653
    1   AR   Ar  197   5.353   1.169   0.347
    1   AR   Ar  198   6.227   1.275   1.383
    1   AR   Ar  199   4.970   1.187   1.616
    1   AR   Ar  200   6.455   1.749   0.428
    1   AR   Ar  201   5.158   6.886   3.100
    1   AR   Ar  202   5.083   2.658   4.223
    1   AR   Ar  203   6.511   6.297   4.993
    1   AR   Ar  204   5.196   0.784   3.908
    1   AR   Ar  205   6.088   0.559   3.289
    1   AR   Ar  206   5.157   0.153   4.790
    1   AR   Ar  207   6.686   0.479   5.873
    1   AR   Ar  208   6.891   0.043   4.126
    1   AR   Ar  209   4.724   2.358  -1.406
    1   AR   Ar  210   3.972   0.897   1.133
    1   AR   Ar  211   6.406   3.125   0.386
    1   AR   Ar  212   6.383   3.810  -1.749
    1   AR   Ar  213   3.401   1.778   2.465
    1   AR   Ar  214   3.622   3.468   2.653
    1   AR   Ar  215   6.129   2.319   1.828
    1   AR   Ar  216   6.508   3.683   1.434
    1   AR   Ar  217   4.574   3.123   3.380
    1   AR   Ar  218   4.354   2.808   5.222
    1   AR   Ar  219   5.345   1.834   3.366
    1   AR   Ar  220   5.456   2.908   2.781
    1   AR   Ar  221   6.348   0.598   4.879
    1   AR   Ar  222   4.468   1.306   5.664
    1   AR   Ar  223   6.911   0.664   6.937
    1   AR   Ar  224   5.429   2.343   5.516
    1   AR   Ar  225   5.598   5.348   0.374
    1   AR   Ar  226   4.926   4.081   2.349
    1   AR   Ar  227   6.458   4.812   0.016
    1   AR   Ar  228   5.039   5.815   1.195
    1   AR   Ar  229   5.820   4.072  -0.045
    1   AR   Ar  230   4.556   4.568   3.538
    1   AR   Ar  231   6.370   2.195   3.069
    1   AR   Ar  232   4.589   3.138   0.753
    1   AR   Ar  233   6.417   2.480   4.434
    1   AR   Ar  234   0.109   3.449   4.441
    1   AR   Ar  235   0.400   2.196   4.230
    1   AR   Ar  236   5.317   4.333   4.656
    1   AR   Ar  237   5.940   3.399   4.247
    1   AR   Ar  238   4.611   4.264   5.518
    1   AR   Ar  239   6.760   3.871   9.191
    1   AR   Ar  240   6.990   4.089   5.810
    1   AR   Ar  241   0.487   0.196   0.082
    1   AR   Ar  242   5.097   4.793   1.171
    1   AR   Ar  243   5.952   3.757   2.594
    1   AR   Ar  244   0.652   4.801  -1.500
    1   AR   Ar  245   5.755   0.306   1.812
    1   AR   Ar  246   5.956   6.119   1.636
    1   AR   Ar  247   5.552   3.663   0.925
    1   AR   Ar  248   5.468   6.482   0.638
    1   AR   Ar  249   4.838   5.355   2.182
    1   AR   Ar  250   4.970   6.128   4.937
    1   AR   Ar  251   5.556   5.362   4.498
    1   AR   Ar  252   5.322   5.925   3.672
    1   AR   Ar  253   5.598   4.647   5.675
    1   AR   Ar  254   5.054   5.279   6.447
    1   AR   Ar  255   5.054   3.499   7.301
    1   AR   Ar  256   5.870   6.919   4.005
    7.12000  7.12000 12.00000
Argon-slab step 2055
  256
    1   AR   Ar    1   6.825   1.690  -0.793
    1   AR   Ar    2   6.497   0.302   0.930
    1   AR   Ar    3   0.349   7.017   1.099
    1   AR   Ar    4   1.502   7.025   0.450
    1   AR   Ar    5   6.702   5.720   0.683
    1   AR   Ar    6   7.097   0.719   2.642
    1   AR   Ar    7   7.096   5.204   2.980
    1   AR   Ar    8   6.534   6.885   2.142
    1   AR   Ar    9   1.011   0.429   4.136
    1   AR   Ar   10   1.185   1.499   4.330
    1   AR   Ar   11   3.080   6.940   4.887
    1   AR   Ar   12   0.926   0.622   3.130
    1   AR   Ar   13   6.976   1.486   5.162
    1   AR   Ar   14   0.957   1.407   6.567
    1   AR   Ar   15   6.872   0.231   9.205
    1   AR   Ar   16   1.345   1.190   5.520
    1   AR   Ar   17   0.926   1.114  -0.044
    1   AR   Ar   18   6.366   3.144  -0.682
    1   AR   Ar   19   1.170   2.348   1.481
    1   AR   Ar   20   6.075   3.623  -2.787
    1   AR   Ar   21   6.114   1.229   2.432
    1   AR   Ar   22   0.033   1.801   2.241
    1   AR   Ar   23   0.266   0.990   0.742
    1   AR   Ar   24   0.110   2.140   1.167
    1   AR   Ar   25   0.334   1.465   3.400
    1   AR   Ar   26   6.610   1.196   3.998
    1   AR   Ar   27   2.109   1.179   3.530
    1   AR   Ar   28   1.327   2.561   4.558
    1   AR   Ar   29   5.616   1.693   6.901
    1   AR   Ar   30   1.108   2.215   5.748
    1   AR   Ar   31   0.676   6.912   6.846
    1   AR   Ar   32   1.639   3.139   6.131
    1   AR   Ar   33   1.709   4.624  -0.939
    1   AR   Ar   34   0.271   6.000   2.012
    1   AR   Ar   35   7.018   5.073   1.432
    1   AR   Ar   36   0.299   0.166  -3.177
    1   AR   Ar   37   6.888   2.946   2.040
    1   AR   Ar   38   0.177   3.976   2.215
    1   AR   Ar   39   1.188   4.236   2.673
    1   AR   Ar   40   1.378   4.155   1.568
    1   AR   Ar   41   0.269   2.541   3.070
    1   AR   Ar   42   6.706   5.286   4.986
    1   AR   Ar   43   6.700   2.630   5.722
    1   AR   Ar   44   0.639   4.131   3.586
    1   AR   Ar   45   0.738   3.316   5.497
    1   AR   Ar   46   0.854   5.623   6.069
    1   AR   Ar   47   6.156   3.627   6.393
    1   AR   Ar   48   6.321   6.309   6.575
    1   AR   Ar   49   6.549   6.919  -1.809
    1   AR   Ar   50   6.091   4.874   1.959
    1   AR   Ar   51   0.885   5.067   1.495
    1   AR   Ar   52   6.158   5.049  -1.026
    1   AR   Ar   53   5.657   6.193   2.630
    1   AR   Ar   54   6.508   6.745   3.218
    1   AR   Ar   55   6.023   5.331   3.113
    1   AR   Ar   56   0.657   0.118   2.227
    1   AR   Ar   57   6.460   3.223   3.421
    1   AR   Ar   58   6.466   5.955   3.979
    1   AR   Ar   59   1.615   5.578   5.433
    1   AR   Ar   60   0.518   6.469   4.270
    1   AR   Ar   61   5.797   5.730   5.662
    1   AR   Ar   62   0.620   5.810   5.079
    1   AR   Ar   63   1.814   6.556   6.508
    1   AR   Ar   64   0.852   6.637   5.589
    1   AR   Ar   65   3.557   0.005   0.317
    1   AR   Ar   66   1.323   0.805   1.144
    1   AR   Ar   67   3.536   6.023  -0.734
    1   AR   Ar   68   3.149   1.696  -1.350
    1   AR   Ar   69   2.607   0.856   0.942
    1   AR   Ar   70   1.109   1.191   2.185
    1   AR   Ar   71   3.059   0.751   2.870
    1   AR   Ar   72   3.342   0.380   1.857
    1   AR   Ar   73   2.130   0.092   3.514
    1   AR   Ar   74   2.204   0.813   4.633
    1   AR   Ar   75   3.532   1.028   5.292
    1   AR   Ar   76   2.503   1.055   1.867
    1   AR   Ar   77   2.141   6.672   5.563
    1   AR   Ar   78   1.581   0.563   6.259
    1   AR   Ar   79   3.363   5.866   7.018
    1   AR   Ar   80   2.817   5.723   5.650
    1   AR   Ar   81   1.978   0.672   0.095
    1   AR   Ar   82   0.043   4.227  -0.724
    1   AR   Ar   83   2.134   2.092   0.801
    1   AR   Ar   84   0.343   3.406  -1.588
    1   AR   Ar   85   0.173   2.623  -0.220
    1   AR   Ar   86   1.995   3.180   1.715
    1   AR   Ar   87   2.142   2.154   1.926
    1   AR   Ar   88   4.343   3.939   1.543
    1   AR   Ar   89   0.843   3.011   2.135
    1   AR   Ar   90   2.835   1.672   4.520
    1   AR   Ar   91   1.906   2.232   3.662
    1   AR   Ar   92   1.376   2.188   2.702
    1   AR   Ar   93   2.191   2.002   5.545
    1   AR   Ar   94   0.760   1.305   8.666
    1   AR   Ar   95   3.173   6.783   5.939
    1   AR   Ar   96   2.727   0.539   5.930
    1   AR   Ar   97   3.897   2.411  -0.735
    1   AR   Ar   98   2.946   4.369   1.573
    1   AR   Ar   99   6.659   2.701  -1.572
    1   AR   Ar  100   1.865   3.503  -0.081
    1   AR   Ar  101   2.195   3.879   0.858
    1   AR   Ar  102   2.596   3.005   3.515
    1   AR   Ar  103   0.929   5.027   0.385
    1   AR   Ar  104   2.570   2.524  -0.631
    1   AR   Ar  105   1.626   3.271   2.989
    1   AR   Ar  106   2.427   2.860   4.578
    1   AR   Ar  107   1.889   4.039   5.028
    1   AR   Ar  108   3.530   2.834   4.316
    1   AR   Ar  109   2.057   4.022   3.552
    1   AR   Ar  110   1.325   4.493   5.931
    1   AR   Ar  111   4.155   4.354   6.810
    1   AR   Ar  112   0.501   5.137   7.306
    1   AR   Ar  113   2.312   4.855   0.176
    1   AR   Ar  114   2.727   5.154  -0.980
    1   AR   Ar  115   2.869   3.666  -0.537
    1   AR   Ar  116   4.704   6.164  -0.293
    1   AR   Ar  117   0.775   5.565   3.643
    1   AR   Ar  118   0.824   6.646   3.282
    1   AR   Ar  119   2.468   3.976   2.563
    1   AR   Ar  120   1.173   5.464   2.416
    1   AR   Ar  121   6.986   4.525   4.243
    1   AR   Ar  122   2.741   5.894   4.622
    1   AR   Ar  123   2.510   4.781   4.949
    1   AR   Ar  124   2.419   5.768   2.449
    1   AR   Ar  125   0.521   4.567   5.081
    1   AR   Ar  126   0.346   0.304   5.157
    1   AR   Ar  127   3.275   5.115   7.805
    1   AR   Ar  128   2.190   5.400   6.494
    1   AR   Ar  129   1.616   0.066   2.522
    1   AR   Ar  130   2.928   1.454  -3.369
    1   AR   Ar  131   4.523   6.951   0.712
    1   AR   Ar  132   0.527   2.382  -1.548
    1   AR   Ar  133   4.054   7.036   3.422
    1   AR   Ar  134   4.354   0.985   3.297
    1   AR   Ar  135   5.057   0.890   2.597
    1   AR   Ar  136   4.319   6.977   2.091
    1   AR   Ar  137   2.896   6.266   3.593
    1   AR   Ar  138   5.163   1.213   4.842
    1   AR   Ar  139   5.994   1.698   4.982
    1   AR   Ar  140   4.076   0.868   4.270
    1   AR   Ar  141   3.768   6.527   4.224
    1   AR   Ar  142   4.172   0.039   5.666
    1   AR   Ar  143   5.687   6.942   5.693
    1   AR   Ar  144   4.769   0.354   6.506
    1   AR   Ar  145   3.756   3.716   0.561
    1   AR   Ar  146   3.992   2.377   1.560
    1   AR   Ar  147   5.843   2.046  -0.520
    1   AR   Ar  148   4.906   4.237  -2.661
    1   AR   Ar  149   2.980   1.917   1.450
    1   AR   Ar  150   2.514   2.044   2.893
    1   AR   Ar  151   3.282   2.152   3.557
    1   AR   Ar  152   2.776   2.985   0.356
    1   AR   Ar  153   3.087   0.821   3.997
    1   AR   Ar  154   4.153   1.885   4.642
    1   AR   Ar  155   5.752   0.918   5.759
    1   AR   Ar  156   3.018   4.291   4.057
    1   AR   Ar  157   3.282   3.015   5.944
    1   AR   Ar  158   1.030   2.425   7.099
    1   AR   Ar  159   3.682   2.057   6.129
    1   AR   Ar  160   3.529   2.395   7.411
    1   AR   Ar  161   5.639   2.178   0.905
    1   AR   Ar  162   4.686   4.929  -0.261
    1   AR   Ar  163   5.282   2.754   0.021
    1   AR   Ar  164   3.994   4.943   1.260
    1   AR   Ar  165   3.004   3.199   1.339
    1   AR   Ar  166   2.486   5.123   3.898
    1   AR   Ar  167   4.365   2.119   2.805
    1   AR   Ar  168   5.109   3.619  -0.682
    1   AR   Ar  169   2.638   2.958   2.412
    1   AR   Ar  170   3.382   3.840   5.112
    1   AR   Ar  171   4.196   4.091   4.565
    1   AR   Ar  172   4.452   5.481   4.286
    1   AR   Ar  173   2.019   3.747   6.982
    1   AR   Ar  174   3.770   5.098   5.968
    1   AR   Ar  175   4.236   3.376   6.115
    1   AR   Ar  176   3.708   5.030   4.916
    1   AR   Ar  177   6.185   5.863  -0.326
    1   AR   Ar  178   2.959   6.180   1.293
    1   AR   Ar  179   3.974   5.712   0.560
    1   AR   Ar  180   3.510   3.090  -2.622
    1   AR   Ar  181   1.767   5.591   1.089
    1   AR   Ar  182   2.864   6.653   2.623
    1   AR   Ar  183   3.577   4.717   2.423
    1   AR   Ar  184   3.973   6.144   1.511
    1   AR   Ar  185   1.537   5.454   4.435
    1   AR   Ar  186   3.607   5.293   3.642
    1   AR   Ar  187   4.199   6.256   2.890
    1   AR   Ar  188   3.472   5.733   2.378
    1   AR   Ar  189   3.225   4.087   6.160
    1   AR   Ar  190   4.691   6.233   5.947
    1   AR   Ar  191   4.667   5.280   5.409
    1   AR   Ar  192   3.753   6.003   5.152
    1   AR   Ar  193   0.186   6.243  -0.096
    1   AR   Ar  194   5.501   4.542  -1.669
    1   AR   Ar  195   6.580   0.484  -0.369
    1   AR   Ar  196   4.519   1.059  -0.657
    1   AR   Ar  197   5.365   1.197   0.350
    1   AR   Ar  198   6.239   1.263   1.359
    1   AR   Ar  199   4.953   1.201   1.579
    1   AR   Ar  200   6.419   1.767   0.420
    1   AR   Ar  201   5.145   6.874   3.109
    1   AR   Ar  202   5.080   2.661   4.231
    1   AR   Ar  203   6.485   6.276   4.959
    1   AR   Ar  204   5.187   0.771   3.888
    1   AR   Ar  205   6.117   0.608   3.282
    1   AR   Ar  206   5.146   0.143   4.809
    1   AR   Ar  207   6.681   0.472   5.871
    1   AR   Ar  208   6.889   0.062   4.143
    1   AR   Ar  209   4.727   2.359  -1.385
    1   AR   Ar  210   3.988   0.882   1.148
    1   AR   Ar  211   6.407   3.155   0.365
    1   AR   Ar  212   6.363   3.817  -1.742
    1   AR   Ar  213   3.432   1.804   2.445
    1   AR   Ar  214   3.633   3.455   2.652
    1   AR   Ar  215   6.152   2.299   1.825
    1   AR   Ar  216   6.443   3.672   1.427
    1   AR   Ar  217   4.557   3.126   3.385
    1   AR   Ar  218   4.373   2.798   5.201
    1   AR   Ar  219   5.334   1.830   3.369
    1   AR   Ar  220   5.434   2.950   2.768
    1   AR   Ar  221   6.341   0.570   4.865
    1   AR   Ar  222   4.436   1.348   5.671
    1   AR   Ar  223   6.905   0.671   6.938
    1   AR   Ar  224   5.447   2.362   5.529
    1   AR   Ar  225   5.635   5.385   0.393
    1   AR   Ar  226   4.904   4.074   2.343
    1   AR   Ar  227   6.450   4.810   0.019
    1   AR   Ar  228   5.041   5.823   1.180
    1   AR   Ar  229   5.790   4.061  -0.065
    1   AR   Ar  230   4.558   4.582   3.510
    1   AR   Ar  231   6.387   2.206   3.075
    1   AR   Ar  232   4.634   3.161   0.773
    1   AR   Ar  233   6.395   2.497   4.416
    1   AR   Ar  234   0.115   3.449   4.418
    1   AR   Ar  235   0.399   2.206   4.213
    1   AR   Ar  236   5.336   4.337   4.644
    1   AR   Ar  237   5.941   3.394   4.286
    1   AR   Ar  238   4.605   4.251   5.507
    1   AR   Ar  239   6.787   3.871   9.188
    1   AR   Ar  240   7.009   4.101   5.820
    1   AR   Ar  241   0.483   0.192   0.075
    1   AR   Ar  242   5.090   4.788   1.156
    1   AR   Ar  243   5.952   3.762   2.583
    1   AR   Ar  244   0.669   4.806  -1.500
    1   AR   Ar  245   5.745   0.283   1.778
    1   AR   Ar  246   5.985   6.091   1.630
    1   AR   Ar  247   5.556   3.656   0.900
    1   AR   Ar  248   5.486   6.478   0.665
    1   AR   Ar  249   4.858   5.375   2.199
    1   AR   Ar  250   4.984   6.095   4.903
    1   AR   Ar  251   5.581   5.359   4.487
    1   AR   Ar  252   5.306   5.918   3.673
    1   AR   Ar  253   5.620   4.626   5.685
    1   AR   Ar  254   5.037   5.263   6.444
    1   AR   Ar  255   5.052   3.458   7.319
    1   AR   Ar  256   5.863   6.901   4.017
    7.12000  7.12000 12.00000
Argon-slab step 2060
  256
    1   AR   Ar    1   6.846   1.684  -0.791
    1   AR   Ar    2   6.511   0.284   0.899
    1   AR   Ar    3   0.393   7.036   1.087
    1   AR   Ar    4   1.521   7.023   0.428
    1   AR   Ar    5   6.724   5.752   0.704
    1   AR   Ar    6   7.100   0.752   2.642
    1   AR   Ar    7   7.075   5.207   2.975
    1   AR   Ar    8   6.496   6.865   2.164
    1   AR   Ar    9   1.020   0.426   4.116
    1   AR   Ar   10   1.208   1.474   4.344
    1   AR   Ar   11   3.095   6.966   4.934
    1   AR   Ar   12   0.957   0.650   3.144
    1   AR   Ar   13   6.979   1.502   5.181
    1   AR   Ar   14   0.965   1.386   6.591
    1   AR   Ar   15   6.851   0.221   9.214
    1   AR   Ar   16   1.292   1.159   5.534
    1   AR   Ar   17   0.927   1.135  -0.041
    1   AR   Ar   18   6.385   3.143  -0.682
    1   AR   Ar   19   1.166   2.346   1.461
    1   AR   Ar   20   6.084   3.609  -2.802
    1   AR   Ar   21   6.103   1.189   2.404
    1   AR   Ar   22   0.024   1.800   2.235
    1   AR   Ar   23   0.266   0.971   0.709
    1   AR   Ar   24   0.104   2.123   1.162
    1   AR   Ar   25   0.322   1.462   3.372
    1   AR   Ar   26   6.581   1.236   3.995
    1   AR   Ar   27   2.119   1.199   3.522
    1   AR   Ar   28   1.339   2.580   4.545
    1   AR   Ar   29   5.602   1.678   6.909
    1   AR   Ar   30   1.120   2.206   5.765
    1   AR   Ar   31   0.659   6.904   6.860
    1   AR   Ar   32   1.670   3.130   6.117
    1   AR   Ar   33   1.726   4.648  -0.923
    1   AR   Ar   34   0.269   5.984   2.076
    1   AR   Ar   35   7.008   5.052   1.442
    1   AR   Ar   36   0.287   0.141  -3.184
    1   AR   Ar   37   6.859   2.944   2.017
    1   AR   Ar   38   0.169   3.988   2.203
    1   AR   Ar   39   1.218   4.218   2.686
    1   AR   Ar   40   1.394   4.132   1.572
    1   AR   Ar   41   0.249   2.519   3.060
    1   AR   Ar   42   6.704   5.291   4.972
    1   AR   Ar   43   6.684   2.629   5.716
    1   AR   Ar   44   0.660   4.096   3.571
    1   AR   Ar   45   0.713   3.319   5.502
    1   AR   Ar   46   0.850   5.598   6.084
    1   AR   Ar   47   6.143   3.616   6.396
    1   AR   Ar   48   6.299   6.304   6.579
    1   AR   Ar   49   6.575   6.900  -1.850
    1   AR   Ar   50   6.094   4.840   1.983
    1   AR   Ar   51   0.866   5.054   1.472
    1   AR   Ar   52   6.163   5.039  -0.990
    1   AR   Ar   53   5.674   6.159   2.624
    1   AR   Ar   54   6.478   6.750   3.215
    1   AR   Ar   55   6.039   5.345   3.094
    1   AR   Ar   56   0.650   0.116   2.209
    1   AR   Ar   57   6.453   3.224   3.439
    1   AR   Ar   58   6.502   5.986   3.968
    1   AR   Ar   59   1.615   5.562   5.454
    1   AR   Ar   60   0.509   6.442   4.284
    1   AR   Ar   61   5.814   5.708   5.671
    1   AR   Ar   62   0.615   5.828   5.053
    1   AR   Ar   63   1.800   6.573   6.488
    1   AR   Ar   64   0.859   6.656   5.626
    1   AR   Ar   65   3.543   0.065   0.363
    1   AR   Ar   66   1.310   0.791   1.145
    1   AR   Ar   67   3.526   6.030  -0.714
    1   AR   Ar   68   3.153   1.693  -1.320
    1   AR   Ar   69   2.644   0.839   0.927
    1   AR   Ar   70   1.091   1.197   2.179
    1   AR   Ar   71   3.051   0.759   2.868
    1   AR   Ar   72   3.361   0.359   1.856
    1   AR   Ar   73   2.147   0.111   3.522
    1   AR   Ar   74   2.205   0.838   4.612
    1   AR   Ar   75   3.559   1.031   5.283
    1   AR   Ar   76   2.508   1.050   1.863
    1   AR   Ar   77   2.168   6.650   5.538
    1   AR   Ar   78   1.622   0.562   6.219
    1   AR   Ar   79   3.345   5.872   7.022
    1   AR   Ar   80   2.825   5.740   5.656
    1   AR   Ar   81   2.020   0.676   0.097
    1   AR   Ar   82   0.005   4.180  -0.737
    1   AR   Ar   83   2.097   2.073   0.771
    1   AR   Ar   84   0.343   3.405  -1.586
    1   AR   Ar   85   0.151   2.635  -0.240
    1   AR   Ar   86   1.995   3.172   1.698
    1   AR   Ar   87   2.151   2.143   1.934
    1   AR   Ar   88   4.322   3.925   1.580
    1   AR   Ar   89   0.839   2.985   2.180
    1   AR   Ar   90   2.853   1.657   4.523
    1   AR   Ar   91   1.863   2.230   3.620
    1   AR   Ar   92   1.409   2.209   2.703
    1   AR   Ar   93   2.167   1.982   5.573
    1   AR   Ar   94   0.745   1.267   8.694
    1   AR   Ar   95   3.194   6.761   5.930
    1   AR   Ar   96   2.761   0.569   5.922
    1   AR   Ar   97   3.904   2.428  -0.765
    1   AR   Ar   98   2.934   4.398   1.611
    1   AR   Ar   99   6.621   2.695  -1.574
    1   AR   Ar  100   1.847   3.478  -0.109
    1   AR   Ar  101   2.229   3.906   0.892
    1   AR   Ar  102   2.623   3.010   3.478
    1   AR   Ar  103   0.929   5.025   0.368
    1   AR   Ar  104   2.552   2.533  -0.644
    1   AR   Ar  105   1.615   3.230   2.977
    1   AR   Ar  106   2.407   2.877   4.602
    1   AR   Ar  107   1.894   4.043   5.043
    1   AR   Ar  108   3.562   2.792   4.333
    1   AR   Ar  109   2.078   4.045   3.533
    1   AR   Ar  110   1.327   4.498   5.946
    1   AR   Ar  111   4.138   4.347   6.810
    1   AR   Ar  112   0.534   5.109   7.330
    1   AR   Ar  113   2.332   4.847   0.153
    1   AR   Ar  114   2.722   5.148  -0.971
    1   AR   Ar  115   2.873   3.658  -0.552
    1   AR   Ar  116   4.702   6.156  -0.292
    1   AR   Ar  117   0.765   5.538   3.670
    1   AR   Ar  118   0.783   6.662   3.278
    1   AR   Ar  119   2.486   3.990   2.566
    1   AR   Ar  120   1.178   5.446   2.446
    1   AR   Ar  121   6.984   4.500   4.251
    1   AR   Ar  122   2.741   5.888   4.681
    1   AR   Ar  123   2.506   4.826   4.943
    1   AR   Ar  124   2.405   5.763   2.378
    1   AR   Ar  125   0.530   4.522   5.083
    1   AR   Ar  126   0.350   0.267   5.120
    1   AR   Ar  127   3.297   5.096   7.807
    1   AR   Ar  128   2.185   5.439   6.531
    1   AR   Ar  129   1.603   0.077   2.503
    1   AR   Ar  130   2.941   1.464  -3.372
    1   AR   Ar  131   4.559   6.932   0.715
    1   AR   Ar  132   0.537   2.359  -1.525
    1   AR   Ar  133   4.066   7.041   3.409
    1   AR   Ar  134   4.356   0.988   3.302
    1   AR   Ar  135   5.053   0.877   2.641
    1   AR   Ar  136   4.321   6.954   2.096
    1   AR   Ar  137   2.911   6.269   3.584
    1   AR   Ar  138   5.163   1.251   4.818
    1   AR   Ar  139   6.002   1.706   4.995
    1   AR   Ar  140   4.086   0.892   4.288
    1   AR   Ar  141   3.761   6.542   4.267
    1   AR   Ar  142   4.154   0.063   5.637
    1   AR   Ar  143   5.734   6.934   5.678
    1   AR   Ar  144   4.787   0.339   6.506
    1   AR   Ar  145   3.800   3.736   0.550
    1   AR   Ar  146   3.977   2.378   1.567
    1   AR   Ar  147   5.866   2.040  -0.497
    1   AR   Ar  148   4.904   4.200  -2.659
    1   AR   Ar  149   2.997   1.925   1.441
    1   AR   Ar  150   2.490   2.042   2.887
    1   AR   Ar  151   3.278   2.158   3.576
    1   AR   Ar  152   2.793   3.001   0.365
    1   AR   Ar  153   3.100   0.811   3.995
    1   AR   Ar  154   4.162   1.880   4.666
    1   AR   Ar  155   5.718   0.934   5.758
    1   AR   Ar  156   2.992   4.305   4.075
    1   AR   Ar  157   3.243   3.010   5.974
    1   AR   Ar  158   1.043   2.442   7.078
    1   AR   Ar  159   3.680   2.021   6.127
    1   AR   Ar  160   3.501   2.389   7.398
    1   AR   Ar  161   5.621   2.185   0.954
    1   AR   Ar  162   4.650   4.907  -0.228
    1   AR   Ar  163   5.267   2.749   0.002
    1   AR   Ar  164   4.020   4.955   1.285
    1   AR   Ar  165   2.995   3.193   1.321
    1   AR   Ar  166   2.490   5.116   3.881
    1   AR   Ar  167   4.366   2.136   2.805
    1   AR   Ar  168   5.156   3.628  -0.668
    1   AR   Ar  169   2.640   2.947   2.409
    1   AR   Ar  170   3.376   3.817   5.124
    1   AR   Ar  171   4.196   4.106   4.573
    1   AR   Ar  172   4.443   5.510   4.266
    1   AR   Ar  173   2.024   3.731   6.982
    1   AR   Ar  174   3.775   5.080   5.943
    1   AR   Ar  175   4.246   3.354   6.103
    1   AR   Ar  176   3.704   4.996   4.931
    1   AR   Ar  177   6.234   5.873  -0.341
    1   AR   Ar  178   2.940   6.161   1.291
    1   AR   Ar  179   3.981   5.718   0.572
    1   AR   Ar  180   3.469   3.104  -2.594
    1   AR   Ar  181   1.750   5.580   1.066
    1   AR   Ar  182   2.879   6.653   2.618
    1   AR   Ar  183   3.594   4.704   2.453
    1   AR   Ar  184   3.962   6.154   1.491
    1   AR   Ar  185   1.527   5.455   4.470
    1   AR   Ar  186   3.616   5.304   3.622
    1   AR   Ar  187   4.200   6.226   2.853
    1   AR   Ar  188   3.476   5.694   2.369
    1   AR   Ar  189   3.263   4.114   6.178
    1   AR   Ar  190   4.724   6.204   5.946
    1   AR   Ar  191   4.651   5.289   5.379
    1   AR   Ar  192   3.729   5.982   5.174
    1   AR   Ar  193   0.198   6.242  -0.105
    1   AR   Ar  194   5.484   4.553  -1.693
    1   AR   Ar  195   6.572   0.479  -0.321
    1   AR   Ar  196   4.542   0.999  -0.659
    1   AR   Ar  197   5.380   1.227   0.354
    1   AR   Ar  198   6.250   1.252   1.335
    1   AR   Ar  199   4.939   1.215   1.540
    1   AR   Ar  200   6.389   1.782   0.406
    1   AR   Ar  201   5.126   6.875   3.125
    1   AR   Ar  202   5.076   2.661   4.241
    1   AR   Ar  203   6.457   6.265   4.929
    1   AR   Ar  204   5.181   0.755   3.866
    1   AR   Ar  205   6.128   0.649   3.290
    1   AR   Ar  206   5.134   0.131   4.828
    1   AR   Ar  207   6.678   0.462   5.872
    1   AR   Ar  208   6.889   0.083   4.157
    1   AR   Ar  209   4.734   2.360  -1.365
    1   AR   Ar  210   4.003   0.874   1.160
    1   AR   Ar  211   6.407   3.184   0.348
    1   AR   Ar  212   6.345   3.823  -1.732
    1   AR   Ar  213   3.462   1.828   2.423
    1   AR   Ar  214   3.643   3.442   2.651
    1   AR   Ar  215   6.170   2.272   1.824
    1   AR   Ar  216   6.381   3.664   1.423
    1   AR   Ar  217   4.536   3.110   3.387
    1   AR   Ar  218   4.391   2.789   5.179
    1   AR   Ar  219   5.324   1.824   3.372
    1   AR   Ar  220   5.416   2.943   2.757
    1   AR   Ar  221   6.328   0.544   4.852
    1   AR   Ar  222   4.408   1.404   5.679
    1   AR   Ar  223   6.901   0.677   6.938
    1   AR   Ar  224   5.462   2.383   5.545
    1   AR   Ar  225   5.667   5.420   0.416
    1   AR   Ar  226   4.897   4.056   2.348
    1   AR   Ar  227   6.449   4.814   0.021
    1   AR   Ar  228   5.028   5.819   1.179
    1   AR   Ar  229   5.759   4.047  -0.082
    1   AR   Ar  230   4.560   4.597   3.484
    1   AR   Ar  231   6.402   2.213   3.078
    1   AR   Ar  232   4.676   3.181   0.794
    1   AR   Ar  233   6.402   2.508   4.409
    1   AR   Ar  234   0.128   3.437   4.454
    1   AR   Ar  235   0.392   2.212   4.184
    1   AR   Ar  236   5.354   4.339   4.631
    1   AR   Ar  237   5.936   3.396   4.329
    1   AR   Ar  238   4.597   4.235   5.499
    1   AR   Ar  239   6.815   3.871   9.185
    1   AR   Ar  240   7.014   4.099   5.813
    1   AR   Ar  241   0.476   0.183   0.065
    1   AR   Ar  242   5.085   4.776   1.143
    1   AR   Ar  243   5.960   3.778   2.568
    1   AR   Ar  244   0.665   4.809  -1.477
    1   AR   Ar  245   5.729   0.265   1.742
    1   AR   Ar  246   6.016   6.061   1.621
    1   AR   Ar  247   5.557   3.650   0.875
    1   AR   Ar  248   5.517   6.490   0.680
    1   AR   Ar  249   4.878   5.396   2.217
    1   AR   Ar  250   5.001   6.076   4.869
    1   AR   Ar  251   5.612   5.352   4.481
    1   AR   Ar  252   5.287   5.915   3.672
    1   AR   Ar  253   5.638   4.606   5.697
    1   AR   Ar  254   5.019   5.247   6.440
    1   AR   Ar  255   5.050   3.418   7.335
    1   AR   Ar  256   5.855   6.855   4.028
    7.12000  7.12000 12.00000
Argon-slab step 2065
  256
    1   AR   Ar    1   6.868   1.678  -0.788
    1   AR   Ar    2   6.522   0.265   0.866
    1   AR   Ar    3   0.438   7.054   1.078
    1   AR   Ar    4   1.532   7.010   0.413
    1   AR   Ar    5   6.745   5.786   0.723
    1   AR   Ar    6   7.097   0.787   2.643
    1   AR   Ar    7   7.057   5.210   2.968
    1   AR   Ar    8   6.464   6.844   2.188
    1   AR   Ar    9   1.029   0.418   4.105
    1   AR   Ar   10   1.233   1.450   4.359
    1   AR   Ar   11   3.105   6.997   4.978
    1   AR   Ar   12   0.990   0.680   3.151
    1   AR   Ar   13   6.989   1.516   5.199
    1   AR   Ar   14   0.993   1.390   6.624
    1   AR   Ar   15   6.830   0.212   9.222
    1   AR   Ar   16   1.234   1.138   5.534
    1   AR   Ar   17   0.935   1.159  -0.042
    1   AR   Ar   18   6.402   3.145  -0.682
    1   AR   Ar   19   1.172   2.343   1.447
    1   AR   Ar   20   6.099   3.603  -2.786
    1   AR   Ar   21   6.093   1.152   2.374
    1   AR   Ar   22   0.015   1.799   2.229
    1   AR   Ar   23   0.258   0.956   0.685
    1   AR   Ar   24   0.094   2.124   1.153
    1   AR   Ar   25   0.314   1.465   3.354
    1   AR   Ar   26   6.553   1.279   3.998
    1   AR   Ar   27   2.130   1.219   3.515
    1   AR   Ar   28   1.352   2.600   4.533
    1   AR   Ar   29   5.594   1.664   6.896
    1   AR   Ar   30   1.131   2.199   5.782
    1   AR   Ar   31   0.643   6.896   6.872
    1   AR   Ar   32   1.701   3.121   6.102
    1   AR   Ar   33   1.743   4.671  -0.906
    1   AR   Ar   34   0.266   5.969   2.140
    1   AR   Ar   35   6.986   5.030   1.454
    1   AR   Ar   36   0.275   0.116  -3.190
    1   AR   Ar   37   6.842   2.947   1.999
    1   AR   Ar   38   0.162   4.000   2.192
    1   AR   Ar   39   1.251   4.200   2.696
    1   AR   Ar   40   1.410   4.107   1.577
    1   AR   Ar   41   0.237   2.501   3.050
    1   AR   Ar   42   6.703   5.290   4.959
    1   AR   Ar   43   6.666   2.628   5.707
    1   AR   Ar   44   0.680   4.061   3.559
    1   AR   Ar   45   0.688   3.322   5.507
    1   AR   Ar   46   0.840   5.574   6.108
    1   AR   Ar   47   6.147   3.617   6.399
    1   AR   Ar   48   6.277   6.298   6.581
    1   AR   Ar   49   6.602   6.882  -1.890
    1   AR   Ar   50   6.095   4.807   2.007
    1   AR   Ar   51   0.858   5.043   1.449
    1   AR   Ar   52   6.181   5.032  -0.947
    1   AR   Ar   53   5.690   6.128   2.614
    1   AR   Ar   54   6.451   6.753   3.209
    1   AR   Ar   55   6.055   5.352   3.079
    1   AR   Ar   56   0.603   0.112   2.203
    1   AR   Ar   57   6.450   3.225   3.455
    1   AR   Ar   58   6.539   6.012   3.950
    1   AR   Ar   59   1.626   5.548   5.479
    1   AR   Ar   60   0.501   6.440   4.267
    1   AR   Ar   61   5.829   5.688   5.679
    1   AR   Ar   62   0.609   5.835   5.030
    1   AR   Ar   63   1.783   6.589   6.472
    1   AR   Ar   64   0.872   6.675   5.670
    1   AR   Ar   65   3.527   0.126   0.410
    1   AR   Ar   66   1.297   0.777   1.144
    1   AR   Ar   67   3.516   6.036  -0.693
    1   AR   Ar   68   3.158   1.691  -1.288
    1   AR   Ar   69   2.686   0.819   0.899
    1   AR   Ar   70   1.072   1.203   2.173
    1   AR   Ar   71   3.042   0.768   2.867
    1   AR   Ar   72   3.379   0.335   1.857
    1   AR   Ar   73   2.165   0.129   3.529
    1   AR   Ar   74   2.202   0.860   4.593
    1   AR   Ar   75   3.580   1.032   5.270
    1   AR   Ar   76   2.509   1.049   1.877
    1   AR   Ar   77   2.197   6.628   5.507
    1   AR   Ar   78   1.628   0.563   6.198
    1   AR   Ar   79   3.326   5.878   7.023
    1   AR   Ar   80   2.838   5.747   5.674
    1   AR   Ar   81   2.071   0.704   0.101
    1   AR   Ar   82   7.085   4.133  -0.751
    1   AR   Ar   83   2.060   2.053   0.743
    1   AR   Ar   84   0.346   3.396  -1.569
    1   AR   Ar   85   0.127   2.646  -0.259
    1   AR   Ar   86   1.983   3.168   1.673
    1   AR   Ar   87   2.151   2.130   1.937
    1   AR   Ar   88   4.280   3.900   1.602
    1   AR   Ar   89   0.833   2.965   2.230
    1   AR   Ar   90   2.871   1.642   4.531
    1   AR   Ar   91   1.815   2.233   3.594
    1   AR   Ar   92   1.435   2.227   2.699
    1   AR   Ar   93   2.143   1.962   5.600
    1   AR   Ar   94   0.730   1.229   8.721
    1   AR   Ar   95   3.219   6.730   5.927
    1   AR   Ar   96   2.791   0.604   5.912
    1   AR   Ar   97   3.905   2.445  -0.792
    1   AR   Ar   98   2.923   4.427   1.648
    1   AR   Ar   99   6.592   2.695  -1.569
    1   AR   Ar  100   1.831   3.454  -0.137
    1   AR   Ar  101   2.264   3.934   0.924
    1   AR   Ar  102   2.649   3.017   3.442
    1   AR   Ar  103   0.930   5.023   0.351
    1   AR   Ar  104   2.535   2.543  -0.656
    1   AR   Ar  105   1.605   3.189   2.965
    1   AR   Ar  106   2.389   2.893   4.625
    1   AR   Ar  107   1.893   4.038   5.059
    1   AR   Ar  108   3.595   2.754   4.355
    1   AR   Ar  109   2.097   4.068   3.518
    1   AR   Ar  110   1.329   4.503   5.961
    1   AR   Ar  111   4.122   4.341   6.809
    1   AR   Ar  112   0.566   5.082   7.352
    1   AR   Ar  113   2.351   4.837   0.130
    1   AR   Ar  114   2.729   5.124  -0.981
    1   AR   Ar  115   2.863   3.659  -0.525
    1   AR   Ar  116   4.700   6.146  -0.289
    1   AR   Ar  117   0.754   5.511   3.695
    1   AR   Ar  118   0.742   6.679   3.271
    1   AR   Ar  119   2.504   4.006   2.565
    1   AR   Ar  120   1.183   5.428   2.478
    1   AR   Ar  121   6.981   4.476   4.257
    1   AR   Ar  122   2.741   5.885   4.728
    1   AR   Ar  123   2.509   4.879   4.938
    1   AR   Ar  124   2.386   5.754   2.305
    1   AR   Ar  125   0.543   4.480   5.086
    1   AR   Ar  126   0.350   0.235   5.079
    1   AR   Ar  127   3.319   5.076   7.808
    1   AR   Ar  128   2.180   5.479   6.567
    1   AR   Ar  129   1.601   0.088   2.487
    1   AR   Ar  130   2.954   1.475  -3.375
    1   AR   Ar  131   4.592   6.914   0.720
    1   AR   Ar  132   0.564   2.345  -1.507
    1   AR   Ar  133   4.078   7.057   3.399
    1   AR   Ar  134   4.343   0.996   3.309
    1   AR   Ar  135   5.062   0.862   2.674
    1   AR   Ar  136   4.325   6.936   2.101
    1   AR   Ar  137   2.927   6.269   3.578
    1   AR   Ar  138   5.148   1.283   4.793
    1   AR   Ar  139   6.019   1.717   5.007
    1   AR   Ar  140   4.100   0.913   4.312
    1   AR   Ar  141   3.756   6.553   4.310
    1   AR   Ar  142   4.138   0.087   5.605
    1   AR   Ar  143   5.782   6.925   5.663
    1   AR   Ar  144   4.807   0.325   6.503
    1   AR   Ar  145   3.842   3.758   0.540
    1   AR   Ar  146   3.963   2.379   1.575
    1   AR   Ar  147   5.888   2.034  -0.476
    1   AR   Ar  148   4.892   4.180  -2.640
    1   AR   Ar  149   3.020   1.931   1.427
    1   AR   Ar  150   2.473   2.033   2.877
    1   AR   Ar  151   3.275   2.159   3.592
    1   AR   Ar  152   2.807   3.016   0.365
    1   AR   Ar  153   3.111   0.795   3.989
    1   AR   Ar  154   4.171   1.875   4.690
    1   AR   Ar  155   5.728   0.935   5.741
    1   AR   Ar  156   2.977   4.307   4.097
    1   AR   Ar  157   3.238   3.024   5.960
    1   AR   Ar  158   1.055   2.458   7.055
    1   AR   Ar  159   3.672   1.990   6.125
    1   AR   Ar  160   3.474   2.383   7.384
    1   AR   Ar  161   5.597   2.193   1.001
    1   AR   Ar  162   4.615   4.885  -0.193
    1   AR   Ar  163   5.254   2.746  -0.015
    1   AR   Ar  164   4.044   4.965   1.314
    1   AR   Ar  165   2.990   3.188   1.314
    1   AR   Ar  166   2.487   5.122   3.861
    1   AR   Ar  167   4.372   2.154   2.808
    1   AR   Ar  168   5.186   3.625  -0.672
    1   AR   Ar  169   2.651   2.935   2.412
    1   AR   Ar  170   3.366   3.791   5.138
    1   AR   Ar  171   4.199   4.121   4.570
    1   AR   Ar  172   4.436   5.515   4.284
    1   AR   Ar  173   2.029   3.715   6.982
    1   AR   Ar  174   3.778   5.064   5.925
    1   AR   Ar  175   4.257   3.334   6.092
    1   AR   Ar  176   3.695   4.954   4.938
    1   AR   Ar  177   6.285   5.888  -0.355
    1   AR   Ar  178   2.918   6.142   1.289
    1   AR   Ar  179   3.989   5.725   0.576
    1   AR   Ar  180   3.428   3.119  -2.566
    1   AR   Ar  181   1.732   5.571   1.043
    1   AR   Ar  182   2.898   6.660   2.611
    1   AR   Ar  183   3.613   4.682   2.484
    1   AR   Ar  184   3.955   6.166   1.477
    1   AR   Ar  185   1.520   5.451   4.508
    1   AR   Ar  186   3.623   5.316   3.600
    1   AR   Ar  187   4.208   6.188   2.817
    1   AR   Ar  188   3.476   5.661   2.356
    1   AR   Ar  189   3.300   4.140   6.195
    1   AR   Ar  190   4.758   6.178   5.945
    1   AR   Ar  191   4.635   5.292   5.350
    1   AR   Ar  192   3.711   5.967   5.198
    1   AR   Ar  193   0.209   6.242  -0.112
    1   AR   Ar  194   5.467   4.561  -1.717
    1   AR   Ar  195   6.564   0.475  -0.272
    1   AR   Ar  196   4.565   0.940  -0.661
    1   AR   Ar  197   5.395   1.257   0.359
    1   AR   Ar  198   6.261   1.242   1.312
    1   AR   Ar  199   4.929   1.231   1.501
    1   AR   Ar  200   6.367   1.795   0.389
    1   AR   Ar  201   5.104   6.881   3.144
    1   AR   Ar  202   5.074   2.660   4.252
    1   AR   Ar  203   6.426   6.267   4.906
    1   AR   Ar  204   5.180   0.736   3.844
    1   AR   Ar  205   6.114   0.676   3.323
    1   AR   Ar  206   5.121   0.119   4.846
    1   AR   Ar  207   6.678   0.452   5.873
    1   AR   Ar  208   6.892   0.103   4.164
    1   AR   Ar  209   4.759   2.365  -1.396
    1   AR   Ar  210   4.018   0.874   1.168
    1   AR   Ar  211   6.407   3.212   0.336
    1   AR   Ar  212   6.327   3.828  -1.720
    1   AR   Ar  213   3.487   1.849   2.400
    1   AR   Ar  214   3.639   3.432   2.649
    1   AR   Ar  215   6.183   2.236   1.826
    1   AR   Ar  216   6.360   3.652   1.413
    1   AR   Ar  217   4.512   3.089   3.389
    1   AR   Ar  218   4.410   2.781   5.157
    1   AR   Ar  219   5.314   1.818   3.374
    1   AR   Ar  220   5.401   2.903   2.748
    1   AR   Ar  221   6.309   0.521   4.844
    1   AR   Ar  222   4.390   1.460   5.688
    1   AR   Ar  223   6.898   0.683   6.938
    1   AR   Ar  224   5.473   2.408   5.562
    1   AR   Ar  225   5.696   5.454   0.441
    1   AR   Ar  226   4.913   4.021   2.367
    1   AR   Ar  227   6.455   4.821   0.026
    1   AR   Ar  228   5.003   5.808   1.188
    1   AR   Ar  229   5.745   4.043  -0.085
    1   AR   Ar  230   4.562   4.613   3.458
    1   AR   Ar  231   6.409   2.215   3.081
    1   AR   Ar  232   4.711   3.196   0.817
    1   AR   Ar  233   6.432   2.513   4.409
    1   AR   Ar  234   0.140   3.424   4.489
    1   AR   Ar  235   0.381   2.218   4.153
    1   AR   Ar  236   5.370   4.339   4.620
    1   AR   Ar  237   5.926   3.407   4.375
    1   AR   Ar  238   4.590   4.218   5.499
    1   AR   Ar  239   6.842   3.872   9.182
    1   AR   Ar  240   7.015   4.093   5.804
    1   AR   Ar  241   0.470   0.170   0.052
    1   AR   Ar  242   5.095   4.776   1.125
    1   AR   Ar  243   5.974   3.801   2.551
    1   AR   Ar  244   0.647   4.810  -1.438
    1   AR   Ar  245   5.707   0.251   1.705
    1   AR   Ar  246   6.049   6.029   1.608
    1   AR   Ar  247   5.556   3.648   0.846
    1   AR   Ar  248   5.561   6.512   0.685
    1   AR   Ar  249   4.898   5.416   2.233
    1   AR   Ar  250   5.025   6.076   4.839
    1   AR   Ar  251   5.650   5.343   4.476
    1   AR   Ar  252   5.267   5.916   3.668
    1   AR   Ar  253   5.635   4.581   5.719
    1   AR   Ar  254   5.001   5.229   6.435
    1   AR   Ar  255   5.047   3.378   7.350
    1   AR   Ar  256   5.843   6.811   4.043
    7.12000  7.12000 12.00000
Argon-slab step 2070
  256
    1   AR   Ar    1   6.892   1.674  -0.784
    1   AR   Ar    2   6.533   0.244   0.833
    1   AR   Ar    3   0.485   7.071   1.073
    1   AR   Ar    4   1.537   6.993   0.400
    1   AR   Ar    5   6.763   5.821   0.741
    1   AR   Ar    6   7.088   0.822   2.646
    1   AR   Ar    7   7.046   5.213   2.960
    1   AR   Ar    8   6.438   6.823   2.208
    1   AR   Ar    9   1.037   0.405   4.105
    1   AR   Ar   10   1.259   1.428   4.373
    1   AR   Ar   11   3.113   7.033   5.015
    1   AR   Ar   12   1.024   0.711   3.148
    1   AR   Ar   13   7.007   1.528   5.219
    1   AR   Ar   14   1.025   1.401   6.658
    1   AR   Ar   15   6.810   0.203   9.231
    1   AR   Ar   16   1.168   1.126   5.519
    1   AR   Ar   17   0.948   1.184  -0.047
    1   AR   Ar   18   6.415   3.153  -0.683
    1   AR   Ar   19   1.189   2.345   1.448
    1   AR   Ar   20   6.110   3.607  -2.763
    1   AR   Ar   21   6.082   1.118   2.342
    1   AR   Ar   22   0.006   1.799   2.224
    1   AR   Ar   23   0.243   0.944   0.670
    1   AR   Ar   24   0.081   2.123   1.144
    1   AR   Ar   25   0.307   1.471   3.338
    1   AR   Ar   26   6.528   1.328   4.009
    1   AR   Ar   27   2.142   1.236   3.509
    1   AR   Ar   28   1.363   2.620   4.523
    1   AR   Ar   29   5.585   1.651   6.882
    1   AR   Ar   30   1.137   2.194   5.800
    1   AR   Ar   31   0.627   6.888   6.882
    1   AR   Ar   32   1.731   3.111   6.086
    1   AR   Ar   33   1.758   4.694  -0.888
    1   AR   Ar   34   0.261   5.954   2.203
    1   AR   Ar   35   6.955   5.007   1.466
    1   AR   Ar   36   0.262   0.090  -3.196
    1   AR   Ar   37   6.835   2.955   1.988
    1   AR   Ar   38   0.154   4.013   2.180
    1   AR   Ar   39   1.286   4.184   2.701
    1   AR   Ar   40   1.426   4.082   1.585
    1   AR   Ar   41   0.235   2.488   3.039
    1   AR   Ar   42   6.704   5.282   4.947
    1   AR   Ar   43   6.648   2.627   5.696
    1   AR   Ar   44   0.697   4.024   3.551
    1   AR   Ar   45   0.664   3.325   5.511
    1   AR   Ar   46   0.824   5.550   6.137
    1   AR   Ar   47   6.150   3.619   6.401
    1   AR   Ar   48   6.275   6.272   6.578
    1   AR   Ar   49   6.629   6.863  -1.930
    1   AR   Ar   50   6.094   4.773   2.033
    1   AR   Ar   51   0.860   5.032   1.429
    1   AR   Ar   52   6.197   5.022  -0.910
    1   AR   Ar   53   5.688   6.124   2.615
    1   AR   Ar   54   6.426   6.756   3.203
    1   AR   Ar   55   6.069   5.349   3.071
    1   AR   Ar   56   0.556   0.104   2.194
    1   AR   Ar   57   6.448   3.226   3.468
    1   AR   Ar   58   6.580   6.031   3.925
    1   AR   Ar   59   1.647   5.535   5.513
    1   AR   Ar   60   0.491   6.449   4.237
    1   AR   Ar   61   5.842   5.668   5.685
    1   AR   Ar   62   0.607   5.832   5.019
    1   AR   Ar   63   1.764   6.603   6.458
    1   AR   Ar   64   0.889   6.691   5.717
    1   AR   Ar   65   3.512   0.186   0.459
    1   AR   Ar   66   1.283   0.763   1.142
    1   AR   Ar   67   3.506   6.042  -0.671
    1   AR   Ar   68   3.163   1.691  -1.257
    1   AR   Ar   69   2.734   0.799   0.871
    1   AR   Ar   70   1.052   1.211   2.167
    1   AR   Ar   71   3.033   0.776   2.866
    1   AR   Ar   72   3.395   0.311   1.858
    1   AR   Ar   73   2.183   0.147   3.537
    1   AR   Ar   74   2.193   0.878   4.574
    1   AR   Ar   75   3.594   1.029   5.252
    1   AR   Ar   76   2.509   1.049   1.899
    1   AR   Ar   77   2.226   6.606   5.472
    1   AR   Ar   78   1.614   0.562   6.194
    1   AR   Ar   79   3.317   5.880   7.015
    1   AR   Ar   80   2.847   5.747   5.713
    1   AR   Ar   81   2.120   0.737   0.097
    1   AR   Ar   82   7.043   4.086  -0.766
    1   AR   Ar   83   2.024   2.034   0.717
    1   AR   Ar   84   0.348   3.390  -1.550
    1   AR   Ar   85   0.104   2.655  -0.278
    1   AR   Ar   86   1.964   3.165   1.646
    1   AR   Ar   87   2.145   2.114   1.931
    1   AR   Ar   88   4.231   3.874   1.615
    1   AR   Ar   89   0.824   2.949   2.279
    1   AR   Ar   90   2.891   1.623   4.543
    1   AR   Ar   91   1.766   2.241   3.590
    1   AR   Ar   92   1.451   2.235   2.681
    1   AR   Ar   93   2.123   1.941   5.625
    1   AR   Ar   94   0.714   1.191   8.749
    1   AR   Ar   95   3.245   6.694   5.935
    1   AR   Ar   96   2.820   0.638   5.901
    1   AR   Ar   97   3.902   2.463  -0.816
    1   AR   Ar   98   2.913   4.455   1.684
    1   AR   Ar   99   6.579   2.704  -1.555
    1   AR   Ar  100   1.816   3.430  -0.165
    1   AR   Ar  101   2.301   3.961   0.953
    1   AR   Ar  102   2.661   3.030   3.421
    1   AR   Ar  103   0.932   5.022   0.334
    1   AR   Ar  104   2.519   2.554  -0.667
    1   AR   Ar  105   1.600   3.154   2.954
    1   AR   Ar  106   2.374   2.909   4.647
    1   AR   Ar  107   1.889   4.031   5.076
    1   AR   Ar  108   3.629   2.721   4.381
    1   AR   Ar  109   2.112   4.092   3.506
    1   AR   Ar  110   1.331   4.509   5.974
    1   AR   Ar  111   4.110   4.335   6.807
    1   AR   Ar  112   0.599   5.055   7.373
    1   AR   Ar  113   2.369   4.827   0.107
    1   AR   Ar  114   2.744   5.089  -1.003
    1   AR   Ar  115   2.853   3.660  -0.498
    1   AR   Ar  116   4.698   6.135  -0.283
    1   AR   Ar  117   0.731   5.498   3.703
    1   AR   Ar  118   0.701   6.699   3.260
    1   AR   Ar  119   2.522   4.020   2.561
    1   AR   Ar  120   1.188   5.409   2.510
    1   AR   Ar  121   6.977   4.453   4.260
    1   AR   Ar  122   2.739   5.888   4.755
    1   AR   Ar  123   2.513   4.932   4.934
    1   AR   Ar  124   2.366   5.743   2.231
    1   AR   Ar  125   0.561   4.439   5.087
    1   AR   Ar  126   0.349   0.206   5.034
    1   AR   Ar  127   3.340   5.056   7.809
    1   AR   Ar  128   2.204   5.475   6.560
    1   AR   Ar  129   1.605   0.098   2.472
    1   AR   Ar  130   2.996   1.461  -3.399
    1   AR   Ar  131   4.622   6.895   0.726
    1   AR   Ar  132   0.614   2.348  -1.495
    1   AR   Ar  133   4.085   7.083   3.388
    1   AR   Ar  134   4.314   1.010   3.319
    1   AR   Ar  135   5.084   0.844   2.697
    1   AR   Ar  136   4.331   6.923   2.106
    1   AR   Ar  137   2.944   6.267   3.577
    1   AR   Ar  138   5.115   1.289   4.780
    1   AR   Ar  139   6.040   1.730   5.018
    1   AR   Ar  140   4.117   0.929   4.340
    1   AR   Ar  141   3.754   6.561   4.348
    1   AR   Ar  142   4.122   0.111   5.571
    1   AR   Ar  143   5.830   6.914   5.648
    1   AR   Ar  144   4.827   0.310   6.499
    1   AR   Ar  145   3.880   3.780   0.530
    1   AR   Ar  146   3.953   2.384   1.583
    1   AR   Ar  147   5.908   2.030  -0.461
    1   AR   Ar  148   4.882   4.150  -2.632
    1   AR   Ar  149   3.044   1.936   1.407
    1   AR   Ar  150   2.467   2.016   2.869
    1   AR   Ar  151   3.273   2.153   3.604
    1   AR   Ar  152   2.818   3.029   0.354
    1   AR   Ar  153   3.121   0.774   3.978
    1   AR   Ar  154   4.179   1.871   4.714
    1   AR   Ar  155   5.734   0.936   5.723
    1   AR   Ar  156   2.971   4.297   4.124
    1   AR   Ar  157   3.231   3.037   5.944
    1   AR   Ar  158   1.069   2.475   7.030
    1   AR   Ar  159   3.657   1.965   6.127
    1   AR   Ar  160   3.447   2.377   7.369
    1   AR   Ar  161   5.567   2.203   1.042
    1   AR   Ar  162   4.586   4.863  -0.165
    1   AR   Ar  163   5.242   2.745  -0.031
    1   AR   Ar  164   4.067   4.975   1.348
    1   AR   Ar  165   2.991   3.185   1.321
    1   AR   Ar  166   2.478   5.141   3.837
    1   AR   Ar  167   4.383   2.173   2.813
    1   AR   Ar  168   5.193   3.604  -0.702
    1   AR   Ar  169   2.669   2.927   2.413
    1   AR   Ar  170   3.355   3.766   5.152
    1   AR   Ar  171   4.203   4.133   4.557
    1   AR   Ar  172   4.422   5.513   4.297
    1   AR   Ar  173   2.034   3.700   6.981
    1   AR   Ar  174   3.782   5.049   5.918
    1   AR   Ar  175   4.268   3.316   6.083
    1   AR   Ar  176   3.681   4.911   4.934
    1   AR   Ar  177   6.338   5.906  -0.368
    1   AR   Ar  178   2.893   6.123   1.287
    1   AR   Ar  179   4.000   5.730   0.569
    1   AR   Ar  180   3.387   3.133  -2.537
    1   AR   Ar  181   1.705   5.570   1.017
    1   AR   Ar  182   2.919   6.671   2.600
    1   AR   Ar  183   3.635   4.649   2.517
    1   AR   Ar  184   3.951   6.179   1.469
    1   AR   Ar  185   1.520   5.439   4.552
    1   AR   Ar  186   3.627   5.327   3.578
    1   AR   Ar  187   4.188   6.161   2.802
    1   AR   Ar  188   3.471   5.633   2.339
    1   AR   Ar  189   3.294   4.112   6.181
    1   AR   Ar  190   4.791   6.155   5.942
    1   AR   Ar  191   4.622   5.290   5.322
    1   AR   Ar  192   3.701   5.957   5.222
    1   AR   Ar  193   0.220   6.241  -0.119
    1   AR   Ar  194   5.450   4.569  -1.740
    1   AR   Ar  195   6.556   0.472  -0.221
    1   AR   Ar  196   4.589   0.881  -0.663
    1   AR   Ar  197   5.410   1.287   0.365
    1   AR   Ar  198   6.261   1.200   1.308
    1   AR   Ar  199   4.925   1.248   1.464
    1   AR   Ar  200   6.352   1.806   0.376
    1   AR   Ar  201   5.084   6.890   3.163
    1   AR   Ar  202   5.087   2.617   4.238
    1   AR   Ar  203   6.391   6.279   4.892
    1   AR   Ar  204   5.181   0.715   3.826
    1   AR   Ar  205   6.097   0.696   3.351
    1   AR   Ar  206   5.109   0.109   4.864
    1   AR   Ar  207   6.680   0.440   5.874
    1   AR   Ar  208   6.901   0.118   4.161
    1   AR   Ar  209   4.790   2.372  -1.440
    1   AR   Ar  210   4.028   0.873   1.173
    1   AR   Ar  211   6.407   3.239   0.330
    1   AR   Ar  212   6.311   3.833  -1.705
    1   AR   Ar  213   3.503   1.872   2.387
    1   AR   Ar  214   3.612   3.427   2.647
    1   AR   Ar  215   6.193   2.224   1.818
    1   AR   Ar  216   6.398   3.634   1.393
    1   AR   Ar  217   4.487   3.070   3.391
    1   AR   Ar  218   4.429   2.776   5.137
    1   AR   Ar  219   5.305   1.811   3.376
    1   AR   Ar  220   5.386   2.861   2.739
    1   AR   Ar  221   6.281   0.503   4.842
    1   AR   Ar  222   4.389   1.513   5.694
    1   AR   Ar  223   6.896   0.688   6.938
    1   AR   Ar  224   5.481   2.435   5.580
    1   AR   Ar  225   5.724   5.486   0.466
    1   AR   Ar  226   4.933   3.988   2.394
    1   AR   Ar  227   6.466   4.827   0.035
    1   AR   Ar  228   4.972   5.798   1.200
    1   AR   Ar  229   5.756   4.058  -0.068
    1   AR   Ar  230   4.563   4.629   3.433
    1   AR   Ar  231   6.405   2.210   3.082
    1   AR   Ar  232   4.712   3.198   0.794
    1   AR   Ar  233   6.451   2.511   4.409
    1   AR   Ar  234   0.152   3.409   4.525
    1   AR   Ar  235   0.369   2.224   4.124
    1   AR   Ar  236   5.382   4.336   4.609
    1   AR   Ar  237   5.943   3.411   4.373
    1   AR   Ar  238   4.584   4.202   5.505
    1   AR   Ar  239   6.869   3.872   9.179
    1   AR   Ar  240   7.012   4.085   5.796
    1   AR   Ar  241   0.464   0.153   0.034
    1   AR   Ar  242   5.117   4.780   1.105
    1   AR   Ar  243   5.992   3.816   2.535
    1   AR   Ar  244   0.629   4.810  -1.397
    1   AR   Ar  245   5.681   0.239   1.665
    1   AR   Ar  246   6.073   6.007   1.603
    1   AR   Ar  247   5.558   3.653   0.817
    1   AR   Ar  248   5.612   6.537   0.689
    1   AR   Ar  249   4.917   5.436   2.250
    1   AR   Ar  250   5.057   6.093   4.814
    1   AR   Ar  251   5.692   5.333   4.472
    1   AR   Ar  252   5.247   5.919   3.662
    1   AR   Ar  253   5.631   4.557   5.740
    1   AR   Ar  254   4.982   5.210   6.428
    1   AR   Ar  255   5.044   3.338   7.364
    1   AR   Ar  256   5.825   6.771   4.064
    7.12000  7.12000 12.00000
Argon-slab step 2075
  256
    1   AR   Ar    1   6.925   1.652  -0.753
    1   AR   Ar    2   6.543   0.221   0.803
    1   AR   Ar    3   0.532   7.086   1.071
    1   AR   Ar    4   1.540   6.976   0.390
    1   AR   Ar    5   6.781   5.856   0.759
    1   AR   Ar    6   7.074   0.851   2.646
    1   AR   Ar    7   7.045   5.213   2.951
    1   AR   Ar    8   6.415   6.804   2.220
    1   AR   Ar    9   1.045   0.388   4.112
    1   AR   Ar   10   1.265   1.432   4.395
    1   AR   Ar   11   3.117   7.076   5.044
    1   AR   Ar   12   1.058   0.743   3.138
    1   AR   Ar   13   7.031   1.537   5.238
    1   AR   Ar   14   1.057   1.412   6.691
    1   AR   Ar   15   6.789   0.194   9.239
    1   AR   Ar   16   1.096   1.121   5.494
    1   AR   Ar   17   0.965   1.210  -0.055
    1   AR   Ar   18   6.408   3.151  -0.691
    1   AR   Ar   19   1.201   2.365   1.448
    1   AR   Ar   20   6.100   3.643  -2.740
    1   AR   Ar   21   6.070   1.085   2.312
    1   AR   Ar   22   7.118   1.800   2.217
    1   AR   Ar   23   0.223   0.937   0.661
    1   AR   Ar   24   0.083   2.145   1.145
    1   AR   Ar   25   0.300   1.481   3.328
    1   AR   Ar   26   6.507   1.382   4.025
    1   AR   Ar   27   2.152   1.251   3.504
    1   AR   Ar   28   1.370   2.639   4.515
    1   AR   Ar   29   5.577   1.636   6.866
    1   AR   Ar   30   1.139   2.191   5.818
    1   AR   Ar   31   0.612   6.881   6.890
    1   AR   Ar   32   1.760   3.101   6.067
    1   AR   Ar   33   1.771   4.715  -0.869
    1   AR   Ar   34   0.256   5.940   2.266
    1   AR   Ar   35   6.920   4.984   1.479
    1   AR   Ar   36   0.250   0.065  -3.202
    1   AR   Ar   37   6.841   2.965   1.987
    1   AR   Ar   38   0.147   4.025   2.168
    1   AR   Ar   39   1.324   4.169   2.703
    1   AR   Ar   40   1.440   4.058   1.594
    1   AR   Ar   41   0.242   2.480   3.029
    1   AR   Ar   42   6.707   5.272   4.935
    1   AR   Ar   43   6.630   2.626   5.684
    1   AR   Ar   44   0.712   3.987   3.545
    1   AR   Ar   45   0.646   3.328   5.512
    1   AR   Ar   46   0.804   5.526   6.168
    1   AR   Ar   47   6.152   3.620   6.401
    1   AR   Ar   48   6.279   6.267   6.557
    1   AR   Ar   49   6.656   6.845  -1.970
    1   AR   Ar   50   6.089   4.742   2.060
    1   AR   Ar   51   0.865   5.021   1.411
    1   AR   Ar   52   6.211   5.008  -0.884
    1   AR   Ar   53   5.680   6.132   2.612
    1   AR   Ar   54   6.403   6.762   3.201
    1   AR   Ar   55   6.077   5.338   3.072
    1   AR   Ar   56   0.509   0.093   2.183
    1   AR   Ar   57   6.448   3.227   3.479
    1   AR   Ar   58   6.624   6.041   3.896
    1   AR   Ar   59   1.676   5.524   5.559
    1   AR   Ar   60   0.480   6.462   4.207
    1   AR   Ar   61   5.854   5.649   5.689
    1   AR   Ar   62   0.619   5.821   5.028
    1   AR   Ar   63   1.743   6.617   6.443
    1   AR   Ar   64   0.907   6.706   5.766
    1   AR   Ar   65   3.500   0.244   0.508
    1   AR   Ar   66   1.270   0.748   1.140
    1   AR   Ar   67   3.498   6.046  -0.647
    1   AR   Ar   68   3.168   1.691  -1.224
    1   AR   Ar   69   2.788   0.782   0.854
    1   AR   Ar   70   1.032   1.219   2.162
    1   AR   Ar   71   3.023   0.785   2.865
    1   AR   Ar   72   3.409   0.286   1.859
    1   AR   Ar   73   2.202   0.165   3.543
    1   AR   Ar   74   2.181   0.891   4.557
    1   AR   Ar   75   3.602   1.026   5.233
    1   AR   Ar   76   2.507   1.051   1.924
    1   AR   Ar   77   2.252   6.584   5.436
    1   AR   Ar   78   1.606   0.553   6.198
    1   AR   Ar   79   3.288   5.893   7.006
    1   AR   Ar   80   2.850   5.739   5.769
    1   AR   Ar   81   2.161   0.771   0.086
    1   AR   Ar   82   6.999   4.040  -0.780
    1   AR   Ar   83   1.989   2.015   0.692
    1   AR   Ar   84   0.351   3.382  -1.532
    1   AR   Ar   85   0.082   2.662  -0.296
    1   AR   Ar   86   1.943   3.160   1.620
    1   AR   Ar   87   2.136   2.098   1.912
    1   AR   Ar   88   4.179   3.848   1.627
    1   AR   Ar   89   0.811   2.939   2.323
    1   AR   Ar   90   2.915   1.613   4.558
    1   AR   Ar   91   1.719   2.250   3.607
    1   AR   Ar   92   1.454   2.226   2.646
    1   AR   Ar   93   2.106   1.919   5.648
    1   AR   Ar   94   0.698   1.152   8.777
    1   AR   Ar   95   3.273   6.657   5.955
    1   AR   Ar   96   2.847   0.672   5.888
    1   AR   Ar   97   3.898   2.481  -0.840
    1   AR   Ar   98   2.907   4.486   1.719
    1   AR   Ar   99   6.569   2.708  -1.549
    1   AR   Ar  100   1.803   3.407  -0.191
    1   AR   Ar  101   2.337   3.987   0.979
    1   AR   Ar  102   2.652   3.049   3.423
    1   AR   Ar  103   0.933   5.021   0.316
    1   AR   Ar  104   2.503   2.565  -0.677
    1   AR   Ar  105   1.602   3.135   2.950
    1   AR   Ar  106   2.362   2.926   4.669
    1   AR   Ar  107   1.885   4.022   5.092
    1   AR   Ar  108   3.663   2.694   4.410
    1   AR   Ar  109   2.124   4.114   3.498
    1   AR   Ar  110   1.333   4.516   5.986
    1   AR   Ar  111   4.101   4.330   6.806
    1   AR   Ar  112   0.633   5.028   7.393
    1   AR   Ar  113   2.387   4.815   0.083
    1   AR   Ar  114   2.761   5.055  -1.023
    1   AR   Ar  115   2.843   3.664  -0.473
    1   AR   Ar  116   4.705   6.126  -0.279
    1   AR   Ar  117   0.701   5.493   3.700
    1   AR   Ar  118   0.660   6.720   3.244
    1   AR   Ar  119   2.542   4.031   2.556
    1   AR   Ar  120   1.193   5.389   2.543
    1   AR   Ar  121   6.971   4.429   4.262
    1   AR   Ar  122   2.736   5.903   4.764
    1   AR   Ar  123   2.516   4.978   4.934
    1   AR   Ar  124   2.345   5.732   2.157
    1   AR   Ar  125   0.583   4.400   5.086
    1   AR   Ar  126   0.348   0.179   4.992
    1   AR   Ar  127   3.363   5.036   7.808
    1   AR   Ar  128   2.227   5.473   6.552
    1   AR   Ar  129   1.611   0.109   2.457
    1   AR   Ar  130   3.039   1.447  -3.422
    1   AR   Ar  131   4.647   6.875   0.734
    1   AR   Ar  132   0.662   2.350  -1.483
    1   AR   Ar  133   4.085   7.113   3.378
    1   AR   Ar  134   4.286   1.027   3.323
    1   AR   Ar  135   5.100   0.854   2.679
    1   AR   Ar  136   4.341   6.936   2.075
    1   AR   Ar  137   2.961   6.263   3.580
    1   AR   Ar  138   5.064   1.261   4.789
    1   AR   Ar  139   6.049   1.741   5.022
    1   AR   Ar  140   4.137   0.937   4.367
    1   AR   Ar  141   3.756   6.567   4.382
    1   AR   Ar  142   4.109   0.135   5.535
    1   AR   Ar  143   5.876   6.900   5.632
    1   AR   Ar  144   4.828   0.311   6.475
    1   AR   Ar  145   3.914   3.804   0.521
    1   AR   Ar  146   3.948   2.393   1.590
    1   AR   Ar  147   5.922   2.029  -0.460
    1   AR   Ar  148   4.857   4.134  -2.632
    1   AR   Ar  149   3.061   1.938   1.387
    1   AR   Ar  150   2.471   2.012   2.842
    1   AR   Ar  151   3.270   2.142   3.611
    1   AR   Ar  152   2.826   3.038   0.336
    1   AR   Ar  153   3.130   0.749   3.964
    1   AR   Ar  154   4.186   1.868   4.735
    1   AR   Ar  155   5.738   0.938   5.705
    1   AR   Ar  156   2.972   4.282   4.156
    1   AR   Ar  157   3.223   3.047   5.929
    1   AR   Ar  158   1.083   2.492   7.003
    1   AR   Ar  159   3.628   1.949   6.136
    1   AR   Ar  160   3.420   2.371   7.352
    1   AR   Ar  161   5.530   2.212   1.076
    1   AR   Ar  162   4.577   4.835  -0.169
    1   AR   Ar  163   5.254   2.738  -0.040
    1   AR   Ar  164   4.088   4.985   1.384
    1   AR   Ar  165   2.996   3.182   1.339
    1   AR   Ar  166   2.494   5.162   3.823
    1   AR   Ar  167   4.399   2.192   2.820
    1   AR   Ar  168   5.188   3.573  -0.747
    1   AR   Ar  169   2.688   2.921   2.407
    1   AR   Ar  170   3.345   3.742   5.163
    1   AR   Ar  171   4.190   4.152   4.534
    1   AR   Ar  172   4.402   5.505   4.304
    1   AR   Ar  173   2.039   3.685   6.979
    1   AR   Ar  174   3.785   5.037   5.921
    1   AR   Ar  175   4.279   3.300   6.074
    1   AR   Ar  176   3.658   4.870   4.923
    1   AR   Ar  177   6.389   5.927  -0.377
    1   AR   Ar  178   2.905   6.104   1.276
    1   AR   Ar  179   4.011   5.734   0.554
    1   AR   Ar  180   3.346   3.148  -2.509
    1   AR   Ar  181   1.681   5.569   0.990
    1   AR   Ar  182   2.940   6.684   2.586
    1   AR   Ar  183   3.635   4.680   2.502
    1   AR   Ar  184   3.948   6.193   1.469
    1   AR   Ar  185   1.520   5.425   4.580
    1   AR   Ar  186   3.631   5.338   3.554
    1   AR   Ar  187   4.166   6.138   2.799
    1   AR   Ar  188   3.459   5.611   2.316
    1   AR   Ar  189   3.276   4.071   6.158
    1   AR   Ar  190   4.825   6.135   5.938
    1   AR   Ar  191   4.612   5.284   5.296
    1   AR   Ar  192   3.701   5.949   5.246
    1   AR   Ar  193   0.232   6.238  -0.125
    1   AR   Ar  194   5.433   4.577  -1.762
    1   AR   Ar  195   6.549   0.470  -0.172
    1   AR   Ar  196   4.613   0.824  -0.663
    1   AR   Ar  197   5.425   1.317   0.371
    1   AR   Ar  198   6.262   1.160   1.300
    1   AR   Ar  199   4.935   1.245   1.459
    1   AR   Ar  200   6.348   1.816   0.374
    1   AR   Ar  201   5.069   6.900   3.180
    1   AR   Ar  202   5.101   2.573   4.224
    1   AR   Ar  203   6.355   6.298   4.883
    1   AR   Ar  204   5.181   0.692   3.812
    1   AR   Ar  205   6.081   0.711   3.373
    1   AR   Ar  206   5.096   0.099   4.880
    1   AR   Ar  207   6.685   0.428   5.874
    1   AR   Ar  208   6.910   0.131   4.147
    1   AR   Ar  209   4.823   2.378  -1.484
    1   AR   Ar  210   4.032   0.870   1.177
    1   AR   Ar  211   6.408   3.264   0.328
    1   AR   Ar  212   6.295   3.837  -1.687
    1   AR   Ar  213   3.509   1.897   2.391
    1   AR   Ar  214   3.605   3.415   2.639
    1   AR   Ar  215   6.202   2.252   1.795
    1   AR   Ar  216   6.438   3.623   1.372
    1   AR   Ar  217   4.462   3.052   3.394
    1   AR   Ar  218   4.450   2.775   5.119
    1   AR   Ar  219   5.296   1.803   3.379
    1   AR   Ar  220   5.372   2.817   2.731
    1   AR   Ar  221   6.254   0.492   4.852
    1   AR   Ar  222   4.407   1.559   5.696
    1   AR   Ar  223   6.894   0.693   6.937
    1   AR   Ar  224   5.488   2.464   5.598
    1   AR   Ar  225   5.751   5.518   0.492
    1   AR   Ar  226   4.944   3.974   2.416
    1   AR   Ar  227   6.471   4.826   0.064
    1   AR   Ar  228   4.938   5.794   1.214
    1   AR   Ar  229   5.779   4.084  -0.048
    1   AR   Ar  230   4.563   4.646   3.408
    1   AR   Ar  231   6.390   2.200   3.083
    1   AR   Ar  232   4.693   3.190   0.761
    1   AR   Ar  233   6.451   2.503   4.410
    1   AR   Ar  234   0.163   3.394   4.559
    1   AR   Ar  235   0.357   2.231   4.095
    1   AR   Ar  236   5.392   4.332   4.601
    1   AR   Ar  237   5.957   3.419   4.374
    1   AR   Ar  238   4.578   4.187   5.516
    1   AR   Ar  239   6.896   3.872   9.176
    1   AR   Ar  240   7.007   4.076   5.791
    1   AR   Ar  241   0.460   0.136   0.012
    1   AR   Ar  242   5.141   4.779   1.084
    1   AR   Ar  243   6.015   3.816   2.524
    1   AR   Ar  244   0.611   4.809  -1.355
    1   AR   Ar  245   5.654   0.230   1.624
    1   AR   Ar  246   6.083   6.000   1.609
    1   AR   Ar  247   5.566   3.663   0.795
    1   AR   Ar  248   5.654   6.557   0.689
    1   AR   Ar  249   4.934   5.455   2.266
    1   AR   Ar  250   5.094   6.121   4.793
    1   AR   Ar  251   5.738   5.324   4.469
    1   AR   Ar  252   5.227   5.921   3.655
    1   AR   Ar  253   5.628   4.533   5.760
    1   AR   Ar  254   4.962   5.189   6.419
    1   AR   Ar  255   5.040   3.299   7.376
    1   AR   Ar  256   5.803   6.734   4.088
    7.12000  7.12000 12.00000
Argon-slab step 2080
  256
    1   AR   Ar    1   6.961   1.626  -0.714
    1   AR   Ar    2   6.559   0.214   0.835
    1   AR   Ar    3   0.578   7.099   1.069
    1   AR   Ar    4   1.542   6.960   0.380
    1   AR   Ar    5   6.798   5.892   0.775
    1   AR   Ar    6   7.056   0.872   2.644
    1   AR   Ar    7   7.056   5.209   2.941
    1   AR   Ar    8   6.397   6.789   2.220
    1   AR   Ar    9   1.052   0.367   4.123
    1   AR   Ar   10   1.265   1.444   4.418
    1   AR   Ar   11   3.109   7.090   5.043
    1   AR   Ar   12   1.094   0.776   3.125
    1   AR   Ar   13   7.062   1.544   5.258
    1   AR   Ar   14   1.089   1.423   6.721
    1   AR   Ar   15   6.770   0.185   9.247
    1   AR   Ar   16   1.022   1.119   5.465
    1   AR   Ar   17   0.984   1.235  -0.062
    1   AR   Ar   18   6.395   3.150  -0.699
    1   AR   Ar   19   1.211   2.383   1.449
    1   AR   Ar   20   6.090   3.680  -2.718
    1   AR   Ar   21   6.060   1.054   2.285
    1   AR   Ar   22   7.109   1.804   2.210
    1   AR   Ar   23   0.200   0.935   0.655
    1   AR   Ar   24   0.119   2.160   1.149
    1   AR   Ar   25   0.296   1.486   3.326
    1   AR   Ar   26   6.488   1.441   4.046
    1   AR   Ar   27   2.163   1.264   3.501
    1   AR   Ar   28   1.370   2.652   4.509
    1   AR   Ar   29   5.569   1.622   6.849
    1   AR   Ar   30   1.133   2.190   5.837
    1   AR   Ar   31   0.598   6.874   6.895
    1   AR   Ar   32   1.789   3.090   6.048
    1   AR   Ar   33   1.780   4.735  -0.848
    1   AR   Ar   34   0.250   5.930   2.326
    1   AR   Ar   35   6.885   4.963   1.491
    1   AR   Ar   36   0.237   0.039  -3.207
    1   AR   Ar   37   6.839   2.979   1.985
    1   AR   Ar   38   0.139   4.038   2.156
    1   AR   Ar   39   1.362   4.154   2.701
    1   AR   Ar   40   1.450   4.039   1.604
    1   AR   Ar   41   0.253   2.477   3.022
    1   AR   Ar   42   6.712   5.261   4.924
    1   AR   Ar   43   6.620   2.625   5.695
    1   AR   Ar   44   0.725   3.948   3.543
    1   AR   Ar   45   0.648   3.336   5.502
    1   AR   Ar   46   0.784   5.504   6.199
    1   AR   Ar   47   6.155   3.622   6.400
    1   AR   Ar   48   6.283   6.263   6.535
    1   AR   Ar   49   6.683   6.826  -2.010
    1   AR   Ar   50   6.081   4.714   2.087
    1   AR   Ar   51   0.872   5.010   1.397
    1   AR   Ar   52   6.202   5.005  -0.878
    1   AR   Ar   53   5.670   6.125   2.618
    1   AR   Ar   54   6.379   6.772   3.207
    1   AR   Ar   55   6.077   5.322   3.079
    1   AR   Ar   56   0.465   0.079   2.171
    1   AR   Ar   57   6.452   3.227   3.486
    1   AR   Ar   58   6.670   6.045   3.867
    1   AR   Ar   59   1.710   5.515   5.613
    1   AR   Ar   60   0.470   6.474   4.181
    1   AR   Ar   61   5.863   5.631   5.692
    1   AR   Ar   62   0.630   5.808   5.042
    1   AR   Ar   63   1.724   6.627   6.430
    1   AR   Ar   64   0.925   6.720   5.814
    1   AR   Ar   65   3.504   0.286   0.547
    1   AR   Ar   66   1.280   0.746   1.130
    1   AR   Ar   67   3.490   6.050  -0.622
    1   AR   Ar   68   3.173   1.693  -1.190
    1   AR   Ar   69   2.831   0.780   0.855
    1   AR   Ar   70   1.012   1.228   2.156
    1   AR   Ar   71   3.014   0.794   2.864
    1   AR   Ar   72   3.420   0.262   1.860
    1   AR   Ar   73   2.221   0.183   3.550
    1   AR   Ar   74   2.193   0.906   4.536
    1   AR   Ar   75   3.606   1.024   5.215
    1   AR   Ar   76   2.506   1.054   1.948
    1   AR   Ar   77   2.275   6.563   5.403
    1   AR   Ar   78   1.601   0.541   6.203
    1   AR   Ar   79   3.249   5.909   6.998
    1   AR   Ar   80   2.851   5.723   5.829
    1   AR   Ar   81   2.194   0.805   0.067
    1   AR   Ar   82   6.954   3.996  -0.794
    1   AR   Ar   83   1.955   1.996   0.669
    1   AR   Ar   84   0.371   3.359  -1.518
    1   AR   Ar   85   0.082   2.646  -0.317
    1   AR   Ar   86   1.924   3.151   1.596
    1   AR   Ar   87   2.129   2.082   1.878
    1   AR   Ar   88   4.126   3.822   1.638
    1   AR   Ar   89   0.793   2.937   2.356
    1   AR   Ar   90   2.942   1.609   4.573
    1   AR   Ar   91   1.675   2.260   3.632
    1   AR   Ar   92   1.448   2.197   2.603
    1   AR   Ar   93   2.096   1.894   5.668
    1   AR   Ar   94   0.682   1.113   8.804
    1   AR   Ar   95   3.303   6.622   5.982
    1   AR   Ar   96   2.871   0.703   5.877
    1   AR   Ar   97   3.893   2.499  -0.862
    1   AR   Ar   98   2.904   4.520   1.749
    1   AR   Ar   99   6.593   2.705  -1.549
    1   AR   Ar  100   1.791   3.383  -0.216
    1   AR   Ar  101   2.372   4.012   0.999
    1   AR   Ar  102   2.643   3.070   3.430
    1   AR   Ar  103   0.935   5.020   0.297
    1   AR   Ar  104   2.488   2.577  -0.686
    1   AR   Ar  105   1.613   3.132   2.953
    1   AR   Ar  106   2.340   2.945   4.680
    1   AR   Ar  107   1.880   4.013   5.109
    1   AR   Ar  108   3.685   2.693   4.424
    1   AR   Ar  109   2.132   4.135   3.493
    1   AR   Ar  110   1.334   4.522   5.996
    1   AR   Ar  111   4.094   4.326   6.803
    1   AR   Ar  112   0.666   5.001   7.412
    1   AR   Ar  113   2.404   4.802   0.060
    1   AR   Ar  114   2.781   5.021  -1.043
    1   AR   Ar  115   2.834   3.672  -0.451
    1   AR   Ar  116   4.705   6.107  -0.298
    1   AR   Ar  117   0.671   5.489   3.696
    1   AR   Ar  118   0.619   6.745   3.220
    1   AR   Ar  119   2.560   4.037   2.551
    1   AR   Ar  120   1.197   5.368   2.575
    1   AR   Ar  121   6.966   4.405   4.262
    1   AR   Ar  122   2.736   5.932   4.760
    1   AR   Ar  123   2.512   4.947   4.961
    1   AR   Ar  124   2.324   5.721   2.083
    1   AR   Ar  125   0.609   4.363   5.083
    1   AR   Ar  126   0.350   0.153   4.956
    1   AR   Ar  127   3.385   5.016   7.807
    1   AR   Ar  128   2.247   5.470   6.548
    1   AR   Ar  129   1.618   0.119   2.442
    1   AR   Ar  130   3.081   1.434  -3.446
    1   AR   Ar  131   4.668   6.856   0.743
    1   AR   Ar  132   0.708   2.350  -1.469
    1   AR   Ar  133   4.079   0.022   3.369
    1   AR   Ar  134   4.297   1.038   3.299
    1   AR   Ar  135   5.118   0.863   2.661
    1   AR   Ar  136   4.356   6.953   2.046
    1   AR   Ar  137   2.980   6.259   3.584
    1   AR   Ar  138   5.018   1.231   4.799
    1   AR   Ar  139   6.039   1.751   5.020
    1   AR   Ar  140   4.159   0.934   4.388
    1   AR   Ar  141   3.759   6.573   4.411
    1   AR   Ar  142   4.114   0.138   5.518
    1   AR   Ar  143   5.919   6.886   5.617
    1   AR   Ar  144   4.815   0.322   6.439
    1   AR   Ar  145   3.943   3.832   0.510
    1   AR   Ar  146   3.952   2.409   1.596
    1   AR   Ar  147   5.909   2.032  -0.468
    1   AR   Ar  148   4.829   4.122  -2.633
    1   AR   Ar  149   3.063   1.936   1.372
    1   AR   Ar  150   2.482   2.032   2.789
    1   AR   Ar  151   3.260   2.137   3.633
    1   AR   Ar  152   2.832   3.044   0.317
    1   AR   Ar  153   3.139   0.722   3.950
    1   AR   Ar  154   4.190   1.866   4.754
    1   AR   Ar  155   5.738   0.940   5.688
    1   AR   Ar  156   2.976   4.265   4.190
    1   AR   Ar  157   3.213   3.050   5.915
    1   AR   Ar  158   1.097   2.509   6.974
    1   AR   Ar  159   3.609   1.935   6.132
    1   AR   Ar  160   3.393   2.365   7.334
    1   AR   Ar  161   5.484   2.222   1.099
    1   AR   Ar  162   4.569   4.809  -0.171
    1   AR   Ar  163   5.274   2.732  -0.047
    1   AR   Ar  164   4.110   4.996   1.423
    1   AR   Ar  165   3.005   3.180   1.364
    1   AR   Ar  166   2.551   5.180   3.824
    1   AR   Ar  167   4.418   2.208   2.827
    1   AR   Ar  168   5.183   3.541  -0.795
    1   AR   Ar  169   2.707   2.917   2.392
    1   AR   Ar  170   3.335   3.720   5.167
    1   AR   Ar  171   4.180   4.163   4.501
    1   AR   Ar  172   4.386   5.491   4.303
    1   AR   Ar  173   2.045   3.671   6.976
    1   AR   Ar  174   3.789   5.025   5.932
    1   AR   Ar  175   4.290   3.284   6.066
    1   AR   Ar  176   3.626   4.839   4.910
    1   AR   Ar  177   6.437   5.948  -0.384
    1   AR   Ar  178   2.916   6.085   1.264
    1   AR   Ar  179   4.017   5.725   0.567
    1   AR   Ar  180   3.306   3.162  -2.480
    1   AR   Ar  181   1.659   5.568   0.964
    1   AR   Ar  182   2.963   6.697   2.570
    1   AR   Ar  183   3.640   4.694   2.492
    1   AR   Ar  184   3.945   6.208   1.472
    1   AR   Ar  185   1.521   5.409   4.598
    1   AR   Ar  186   3.633   5.349   3.529
    1   AR   Ar  187   4.150   6.119   2.801
    1   AR   Ar  188   3.437   5.602   2.285
    1   AR   Ar  189   3.257   4.033   6.138
    1   AR   Ar  190   4.858   6.119   5.932
    1   AR   Ar  191   4.600   5.268   5.318
    1   AR   Ar  192   3.709   5.941   5.268
    1   AR   Ar  193   0.247   6.234  -0.130
    1   AR   Ar  194   5.418   4.583  -1.783
    1   AR   Ar  195   6.542   0.472  -0.128
    1   AR   Ar  196   4.638   0.766  -0.662
    1   AR   Ar  197   5.437   1.346   0.379
    1   AR   Ar  198   6.264   1.122   1.288
    1   AR   Ar  199   4.956   1.229   1.475
    1   AR   Ar  200   6.356   1.823   0.390
    1   AR   Ar  201   5.059   6.909   3.196
    1   AR   Ar  202   5.116   2.527   4.210
    1   AR   Ar  203   6.319   6.317   4.877
    1   AR   Ar  204   5.174   0.667   3.804
    1   AR   Ar  205   6.071   0.722   3.388
    1   AR   Ar  206   5.083   0.092   4.896
    1   AR   Ar  207   6.694   0.417   5.874
    1   AR   Ar  208   6.917   0.141   4.122
    1   AR   Ar  209   4.857   2.385  -1.526
    1   AR   Ar  210   4.032   0.865   1.180
    1   AR   Ar  211   6.413   3.285   0.330
    1   AR   Ar  212   6.281   3.841  -1.665
    1   AR   Ar  213   3.507   1.918   2.397
    1   AR   Ar  214   3.627   3.392   2.623
    1   AR   Ar  215   6.210   2.269   1.775
    1   AR   Ar  216   6.476   3.621   1.348
    1   AR   Ar  217   4.436   3.037   3.401
    1   AR   Ar  218   4.474   2.780   5.106
    1   AR   Ar  219   5.287   1.793   3.381
    1   AR   Ar  220   5.360   2.774   2.723
    1   AR   Ar  221   6.258   0.490   4.887
    1   AR   Ar  222   4.441   1.598   5.695
    1   AR   Ar  223   6.893   0.698   6.935
    1   AR   Ar  224   5.493   2.493   5.615
    1   AR   Ar  225   5.777   5.547   0.517
    1   AR   Ar  226   4.939   3.989   2.427
    1   AR   Ar  227   6.477   4.823   0.109
    1   AR   Ar  228   4.914   5.791   1.228
    1   AR   Ar  229   5.803   4.116  -0.041
    1   AR   Ar  230   4.548   4.648   3.440
    1   AR   Ar  231   6.368   2.186   3.083
    1   AR   Ar  232   4.668   3.173   0.731
    1   AR   Ar  233   6.453   2.494   4.410
    1   AR   Ar  234   0.172   3.377   4.591
    1   AR   Ar  235   0.346   2.238   4.069
    1   AR   Ar  236   5.399   4.327   4.594
    1   AR   Ar  237   5.955   3.433   4.384
    1   AR   Ar  238   4.573   4.175   5.530
    1   AR   Ar  239   6.924   3.873   9.173
    1   AR   Ar  240   6.998   4.066   5.787
    1   AR   Ar  241   0.459   0.121  -0.011
    1   AR   Ar  242   5.166   4.772   1.063
    1   AR   Ar  243   6.040   3.811   2.515
    1   AR   Ar  244   0.592   4.806  -1.312
    1   AR   Ar  245   5.626   0.221   1.583
    1   AR   Ar  246   6.092   5.990   1.613
    1   AR   Ar  247   5.574   3.674   0.788
    1   AR   Ar  248   5.644   6.552   0.681
    1   AR   Ar  249   4.950   5.471   2.281
    1   AR   Ar  250   5.135   6.154   4.775
    1   AR   Ar  251   5.785   5.319   4.464
    1   AR   Ar  252   5.221   5.928   3.635
    1   AR   Ar  253   5.624   4.510   5.779
    1   AR   Ar  254   4.942   5.165   6.408
    1   AR   Ar  255   5.043   3.288   7.399
    1   AR   Ar  256   5.778   6.701   4.113
    7.12000  7.12000 12.00000
Argon-slab step 2085
  256
    1   AR   Ar    1   6.996   1.600  -0.673
    1   AR   Ar    2   6.573   0.200   0.875
    1   AR   Ar    3   0.620   7.109   1.067
    1   AR   Ar    4   1.542   6.946   0.371
    1   AR   Ar    5   6.816   5.927   0.791
    1   AR   Ar    6   7.034   0.881   2.638
    1   AR   Ar    7   7.073   5.196   2.936
    1   AR   Ar    8   6.382   6.780   2.209
    1   AR   Ar    9   1.039   0.364   4.127
    1   AR   Ar   10   1.263   1.459   4.439
    1   AR   Ar   11   3.093   7.087   5.025
    1   AR   Ar   12   1.130   0.808   3.113
    1   AR   Ar   13   7.084   1.545   5.277
    1   AR   Ar   14   1.117   1.411   6.741
    1   AR   Ar   15   6.750   0.177   9.254
    1   AR   Ar   16   0.948   1.117   5.436
    1   AR   Ar   17   1.003   1.260  -0.069
    1   AR   Ar   18   6.369   3.151  -0.700
    1   AR   Ar   19   1.216   2.399   1.451
    1   AR   Ar   20   6.078   3.717  -2.696
    1   AR   Ar   21   6.051   1.025   2.262
    1   AR   Ar   22   7.101   1.812   2.200
    1   AR   Ar   23   0.177   0.936   0.650
    1   AR   Ar   24   0.160   2.168   1.153
    1   AR   Ar   25   0.294   1.494   3.332
    1   AR   Ar   26   6.470   1.501   4.068
    1   AR   Ar   27   2.173   1.278   3.498
    1   AR   Ar   28   1.353   2.642   4.505
    1   AR   Ar   29   5.560   1.606   6.830
    1   AR   Ar   30   1.121   2.192   5.857
    1   AR   Ar   31   0.583   6.868   6.900
    1   AR   Ar   32   1.817   3.080   6.027
    1   AR   Ar   33   1.786   4.753  -0.827
    1   AR   Ar   34   0.246   5.928   2.380
    1   AR   Ar   35   6.853   4.943   1.499
    1   AR   Ar   36   0.224   0.013  -3.212
    1   AR   Ar   37   6.847   2.994   1.996
    1   AR   Ar   38   0.131   4.051   2.144
    1   AR   Ar   39   1.401   4.142   2.696
    1   AR   Ar   40   1.456   4.028   1.616
    1   AR   Ar   41   0.259   2.473   3.023
    1   AR   Ar   42   6.722   5.250   4.915
    1   AR   Ar   43   6.616   2.624   5.721
    1   AR   Ar   44   0.717   3.963   3.533
    1   AR   Ar   45   0.654   3.341   5.497
    1   AR   Ar   46   0.763   5.482   6.230
    1   AR   Ar   47   6.156   3.623   6.397
    1   AR   Ar   48   6.287   6.259   6.511
    1   AR   Ar   49   6.710   6.808  -2.050
    1   AR   Ar   50   6.069   4.695   2.112
    1   AR   Ar   51   0.876   4.997   1.386
    1   AR   Ar   52   6.164   5.018  -0.892
    1   AR   Ar   53   5.660   6.109   2.633
    1   AR   Ar   54   6.355   6.786   3.220
    1   AR   Ar   55   6.068   5.301   3.092
    1   AR   Ar   56   0.421   0.064   2.160
    1   AR   Ar   57   6.457   3.225   3.490
    1   AR   Ar   58   6.715   6.043   3.840
    1   AR   Ar   59   1.745   5.509   5.668
    1   AR   Ar   60   0.462   6.483   4.163
    1   AR   Ar   61   5.871   5.613   5.691
    1   AR   Ar   62   0.640   5.796   5.057
    1   AR   Ar   63   1.722   6.628   6.416
    1   AR   Ar   64   0.937   6.734   5.857
    1   AR   Ar   65   3.548   0.289   0.563
    1   AR   Ar   66   1.310   0.770   1.112
    1   AR   Ar   67   3.483   6.053  -0.597
    1   AR   Ar   68   3.178   1.695  -1.156
    1   AR   Ar   69   2.837   0.809   0.884
    1   AR   Ar   70   0.990   1.238   2.148
    1   AR   Ar   71   3.006   0.803   2.864
    1   AR   Ar   72   3.426   0.240   1.859
    1   AR   Ar   73   2.240   0.200   3.555
    1   AR   Ar   74   2.205   0.918   4.511
    1   AR   Ar   75   3.607   1.025   5.201
    1   AR   Ar   76   2.505   1.057   1.972
    1   AR   Ar   77   2.291   6.545   5.377
    1   AR   Ar   78   1.595   0.531   6.208
    1   AR   Ar   79   3.209   5.924   6.988
    1   AR   Ar   80   2.856   5.703   5.879
    1   AR   Ar   81   2.220   0.840   0.044
    1   AR   Ar   82   6.912   3.959  -0.807
    1   AR   Ar   83   1.923   1.976   0.648
    1   AR   Ar   84   0.388   3.338  -1.504
    1   AR   Ar   85   0.108   2.600  -0.343
    1   AR   Ar   86   1.910   3.136   1.574
    1   AR   Ar   87   2.124   2.065   1.827
    1   AR   Ar   88   4.072   3.797   1.649
    1   AR   Ar   89   0.776   2.947   2.374
    1   AR   Ar   90   2.967   1.609   4.584
    1   AR   Ar   91   1.635   2.265   3.653
    1   AR   Ar   92   1.435   2.157   2.562
    1   AR   Ar   93   2.091   1.868   5.687
    1   AR   Ar   94   0.665   1.074   8.832
    1   AR   Ar   95   3.334   6.592   6.014
    1   AR   Ar   96   2.892   0.733   5.867
    1   AR   Ar   97   3.888   2.517  -0.885
    1   AR   Ar   98   2.905   4.560   1.772
    1   AR   Ar   99   6.633   2.713  -1.534
    1   AR   Ar  100   1.779   3.359  -0.240
    1   AR   Ar  101   2.407   4.036   1.016
    1   AR   Ar  102   2.632   3.091   3.440
    1   AR   Ar  103   0.937   5.019   0.278
    1   AR   Ar  104   2.483   2.586  -0.682
    1   AR   Ar  105   1.631   3.136   2.961
    1   AR   Ar  106   2.301   2.968   4.673
    1   AR   Ar  107   1.878   4.006   5.128
    1   AR   Ar  108   3.693   2.704   4.432
    1   AR   Ar  109   2.139   4.155   3.492
    1   AR   Ar  110   1.336   4.528   6.006
    1   AR   Ar  111   4.088   4.323   6.799
    1   AR   Ar  112   0.700   4.975   7.429
    1   AR   Ar  113   2.422   4.788   0.037
    1   AR   Ar  114   2.804   4.988  -1.062
    1   AR   Ar  115   2.824   3.687  -0.438
    1   AR   Ar  116   4.706   6.088  -0.315
    1   AR   Ar  117   0.657   5.499   3.695
    1   AR   Ar  118   0.579   6.772   3.188
    1   AR   Ar  119   2.564   4.036   2.544
    1   AR   Ar  120   1.201   5.346   2.607
    1   AR   Ar  121   6.960   4.381   4.261
    1   AR   Ar  122   2.742   5.963   4.747
    1   AR   Ar  123   2.504   4.896   4.996
    1   AR   Ar  124   2.302   5.708   2.011
    1   AR   Ar  125   0.638   4.327   5.077
    1   AR   Ar  126   0.356   0.128   4.929
    1   AR   Ar  127   3.407   4.996   7.803
    1   AR   Ar  128   2.258   5.463   6.556
    1   AR   Ar  129   1.626   0.131   2.427
    1   AR   Ar  130   3.123   1.420  -3.469
    1   AR   Ar  131   4.682   6.837   0.755
    1   AR   Ar  132   0.754   2.348  -1.453
    1   AR   Ar  133   4.066   0.048   3.363
    1   AR   Ar  134   4.304   1.055   3.276
    1   AR   Ar  135   5.133   0.870   2.642
    1   AR   Ar  136   4.377   6.972   2.022
    1   AR   Ar  137   2.999   6.255   3.591
    1   AR   Ar  138   4.986   1.202   4.813
    1   AR   Ar  139   6.026   1.758   5.018
    1   AR   Ar  140   4.178   0.917   4.394
    1   AR   Ar  141   3.766   6.577   4.436
    1   AR   Ar  142   4.126   0.135   5.504
    1   AR   Ar  143   5.954   6.871   5.607
    1   AR   Ar  144   4.804   0.333   6.400
    1   AR   Ar  145   3.965   3.866   0.498
    1   AR   Ar  146   3.966   2.412   1.615
    1   AR   Ar  147   5.880   2.035  -0.484
    1   AR   Ar  148   4.802   4.109  -2.634
    1   AR   Ar  149   3.061   1.931   1.356
    1   AR   Ar  150   2.497   2.042   2.753
    1   AR   Ar  151   3.247   2.130   3.657
    1   AR   Ar  152   2.837   3.042   0.306
    1   AR   Ar  153   3.159   0.744   3.951
    1   AR   Ar  154   4.191   1.867   4.767
    1   AR   Ar  155   5.735   0.942   5.673
    1   AR   Ar  156   2.982   4.246   4.226
    1   AR   Ar  157   3.202   3.040   5.905
    1   AR   Ar  158   1.113   2.527   6.943
    1   AR   Ar  159   3.588   1.924   6.126
    1   AR   Ar  160   3.366   2.360   7.314
    1   AR   Ar  161   5.431   2.230   1.114
    1   AR   Ar  162   4.575   4.808  -0.164
    1   AR   Ar  163   5.294   2.727  -0.051
    1   AR   Ar  164   4.131   5.008   1.463
    1   AR   Ar  165   3.017   3.177   1.392
    1   AR   Ar  166   2.608   5.200   3.826
    1   AR   Ar  167   4.439   2.217   2.830
    1   AR   Ar  168   5.179   3.509  -0.843
    1   AR   Ar  169   2.725   2.919   2.370
    1   AR   Ar  170   3.328   3.702   5.159
    1   AR   Ar  171   4.180   4.163   4.461
    1   AR   Ar  172   4.394   5.454   4.284
    1   AR   Ar  173   2.050   3.656   6.972
    1   AR   Ar  174   3.790   5.013   5.948
    1   AR   Ar  175   4.300   3.268   6.060
    1   AR   Ar  176   3.636   4.831   4.904
    1   AR   Ar  177   6.477   5.967  -0.390
    1   AR   Ar  178   2.927   6.066   1.251
    1   AR   Ar  179   4.019   5.707   0.599
    1   AR   Ar  180   3.265   3.176  -2.451
    1   AR   Ar  181   1.640   5.569   0.936
    1   AR   Ar  182   2.986   6.709   2.555
    1   AR   Ar  183   3.653   4.687   2.488
    1   AR   Ar  184   3.942   6.222   1.478
    1   AR   Ar  185   1.523   5.391   4.610
    1   AR   Ar  186   3.635   5.360   3.503
    1   AR   Ar  187   4.147   6.108   2.810
    1   AR   Ar  188   3.406   5.609   2.246
    1   AR   Ar  189   3.239   4.006   6.124
    1   AR   Ar  190   4.848   6.124   5.916
    1   AR   Ar  191   4.589   5.247   5.367
    1   AR   Ar  192   3.722   5.932   5.288
    1   AR   Ar  193   0.269   6.228  -0.132
    1   AR   Ar  194   5.404   4.589  -1.804
    1   AR   Ar  195   6.518   0.475  -0.141
    1   AR   Ar  196   4.663   0.709  -0.661
    1   AR   Ar  197   5.446   1.372   0.387
    1   AR   Ar  198   6.266   1.089   1.271
    1   AR   Ar  199   4.984   1.215   1.492
    1   AR   Ar  200   6.375   1.831   0.416
    1   AR   Ar  201   5.056   6.917   3.208
    1   AR   Ar  202   5.131   2.482   4.197
    1   AR   Ar  203   6.290   6.330   4.872
    1   AR   Ar  204   5.159   0.643   3.804
    1   AR   Ar  205   6.071   0.731   3.395
    1   AR   Ar  206   5.072   0.088   4.912
    1   AR   Ar  207   6.707   0.407   5.875
    1   AR   Ar  208   6.919   0.148   4.096
    1   AR   Ar  209   4.891   2.393  -1.567
    1   AR   Ar  210   4.005   0.871   1.161
    1   AR   Ar  211   6.421   3.303   0.331
    1   AR   Ar  212   6.267   3.843  -1.640
    1   AR   Ar  213   3.500   1.936   2.406
    1   AR   Ar  214   3.651   3.370   2.607
    1   AR   Ar  215   6.216   2.279   1.749
    1   AR   Ar  216   6.510   3.630   1.319
    1   AR   Ar  217   4.410   3.029   3.412
    1   AR   Ar  218   4.503   2.791   5.097
    1   AR   Ar  219   5.280   1.782   3.384
    1   AR   Ar  220   5.349   2.731   2.716
    1   AR   Ar  221   6.260   0.488   4.918
    1   AR   Ar  222   4.473   1.624   5.687
    1   AR   Ar  223   6.893   0.702   6.933
    1   AR   Ar  224   5.497   2.522   5.632
    1   AR   Ar  225   5.786   5.554   0.530
    1   AR   Ar  226   4.933   4.004   2.439
    1   AR   Ar  227   6.493   4.827   0.160
    1   AR   Ar  228   4.928   5.781   1.247
    1   AR   Ar  229   5.823   4.148  -0.052
    1   AR   Ar  230   4.529   4.647   3.486
    1   AR   Ar  231   6.343   2.168   3.084
    1   AR   Ar  232   4.645   3.149   0.706
    1   AR   Ar  233   6.454   2.494   4.398
    1   AR   Ar  234   0.178   3.360   4.617
    1   AR   Ar  235   0.337   2.247   4.047
    1   AR   Ar  236   5.403   4.323   4.589
    1   AR   Ar  237   5.935   3.451   4.406
    1   AR   Ar  238   4.566   4.165   5.543
    1   AR   Ar  239   6.951   3.873   9.170
    1   AR   Ar  240   6.986   4.056   5.785
    1   AR   Ar  241   0.460   0.110  -0.034
    1   AR   Ar  242   5.192   4.762   1.042
    1   AR   Ar  243   6.067   3.796   2.509
    1   AR   Ar  244   0.573   4.802  -1.267
    1   AR   Ar  245   5.598   0.212   1.542
    1   AR   Ar  246   6.099   5.976   1.614
    1   AR   Ar  247   5.574   3.680   0.796
    1   AR   Ar  248   5.641   6.549   0.674
    1   AR   Ar  249   4.961   5.483   2.295
    1   AR   Ar  250   5.175   6.184   4.760
    1   AR   Ar  251   5.828   5.317   4.456
    1   AR   Ar  252   5.235   5.940   3.597
    1   AR   Ar  253   5.619   4.487   5.796
    1   AR   Ar  254   4.921   5.139   6.397
    1   AR   Ar  255   5.046   3.276   7.421
    1   AR   Ar  256   5.751   6.677   4.132
    7.12000  7.12000 12.00000
Argon-slab step 2090
  256
    1   AR   Ar    1   7.030   1.573  -0.632
    1   AR   Ar    2   6.588   0.175   0.918
    1   AR   Ar    3   0.659   7.115   1.065
    1   AR   Ar    4   1.540   6.933   0.362
    1   AR   Ar    5   6.833   5.963   0.805
    1   AR   Ar    6   7.010   0.880   2.629
    1   AR   Ar    7   7.090   5.169   2.938
    1   AR   Ar    8   6.372   6.777   2.192
    1   AR   Ar    9   1.015   0.374   4.125
    1   AR   Ar   10   1.261   1.475   4.458
    1   AR   Ar   11   3.078   7.090   5.008
    1   AR   Ar   12   1.166   0.840   3.104
    1   AR   Ar   13   7.065   1.528   5.292
    1   AR   Ar   14   1.142   1.383   6.754
    1   AR   Ar   15   6.731   0.169   9.262
    1   AR   Ar   16   0.874   1.113   5.408
    1   AR   Ar   17   1.022   1.283  -0.074
    1   AR   Ar   18   6.328   3.148  -0.692
    1   AR   Ar   19   1.213   2.411   1.451
    1   AR   Ar   20   6.065   3.753  -2.674
    1   AR   Ar   21   6.044   0.999   2.244
    1   AR   Ar   22   7.094   1.824   2.189
    1   AR   Ar   23   0.168   0.940   0.635
    1   AR   Ar   24   0.199   2.176   1.157
    1   AR   Ar   25   0.295   1.499   3.343
    1   AR   Ar   26   6.455   1.557   4.087
    1   AR   Ar   27   2.183   1.294   3.494
    1   AR   Ar   28   1.324   2.635   4.514
    1   AR   Ar   29   5.552   1.591   6.809
    1   AR   Ar   30   1.104   2.195   5.877
    1   AR   Ar   31   0.569   6.862   6.903
    1   AR   Ar   32   1.845   3.069   6.004
    1   AR   Ar   33   1.788   4.771  -0.806
    1   AR   Ar   34   0.247   5.941   2.424
    1   AR   Ar   35   6.825   4.926   1.505
    1   AR   Ar   36   0.210   7.107  -3.216
    1   AR   Ar   37   6.868   3.010   2.019
    1   AR   Ar   38   0.123   4.064   2.132
    1   AR   Ar   39   1.439   4.132   2.690
    1   AR   Ar   40   1.457   4.024   1.627
    1   AR   Ar   41   0.256   2.467   3.033
    1   AR   Ar   42   6.739   5.240   4.911
    1   AR   Ar   43   6.613   2.623   5.746
    1   AR   Ar   44   0.708   3.978   3.525
    1   AR   Ar   45   0.667   3.343   5.501
    1   AR   Ar   46   0.743   5.461   6.261
    1   AR   Ar   47   6.157   3.624   6.393
    1   AR   Ar   48   6.290   6.257   6.486
    1   AR   Ar   49   6.738   6.790  -2.091
    1   AR   Ar   50   6.053   4.687   2.136
    1   AR   Ar   51   0.878   4.982   1.378
    1   AR   Ar   52   6.125   5.028  -0.907
    1   AR   Ar   53   5.653   6.106   2.647
    1   AR   Ar   54   6.329   6.803   3.238
    1   AR   Ar   55   6.057   5.277   3.109
    1   AR   Ar   56   0.379   0.048   2.149
    1   AR   Ar   57   6.465   3.223   3.492
    1   AR   Ar   58   6.757   6.033   3.815
    1   AR   Ar   59   1.779   5.504   5.719
    1   AR   Ar   60   0.463   6.487   4.153
    1   AR   Ar   61   5.878   5.596   5.689
    1   AR   Ar   62   0.647   5.784   5.074
    1   AR   Ar   63   1.748   6.615   6.403
    1   AR   Ar   64   0.936   6.750   5.888
    1   AR   Ar   65   3.605   0.261   0.555
    1   AR   Ar   66   1.321   0.809   1.099
    1   AR   Ar   67   3.514   6.081  -0.582
    1   AR   Ar   68   3.182   1.698  -1.122
    1   AR   Ar   69   2.821   0.857   0.929
    1   AR   Ar   70   0.967   1.248   2.138
    1   AR   Ar   71   2.999   0.810   2.866
    1   AR   Ar   72   3.429   0.222   1.854
    1   AR   Ar   73   2.264   0.183   3.567
    1   AR   Ar   74   2.214   0.925   4.487
    1   AR   Ar   75   3.606   1.029   5.193
    1   AR   Ar   76   2.503   1.060   1.993
    1   AR   Ar   77   2.292   6.528   5.364
    1   AR   Ar   78   1.589   0.523   6.211
    1   AR   Ar   79   3.176   5.940   6.982
    1   AR   Ar   80   2.846   5.710   5.859
    1   AR   Ar   81   2.243   0.875   0.019
    1   AR   Ar   82   6.878   3.935  -0.818
    1   AR   Ar   83   1.890   1.956   0.627
    1   AR   Ar   84   0.405   3.321  -1.488
    1   AR   Ar   85   0.135   2.556  -0.368
    1   AR   Ar   86   1.905   3.118   1.554
    1   AR   Ar   87   2.121   2.049   1.764
    1   AR   Ar   88   4.016   3.772   1.659
    1   AR   Ar   89   0.766   2.970   2.374
    1   AR   Ar   90   2.968   1.606   4.576
    1   AR   Ar   91   1.601   2.264   3.661
    1   AR   Ar   92   1.417   2.113   2.525
    1   AR   Ar   93   2.090   1.839   5.703
    1   AR   Ar   94   0.648   1.034   8.860
    1   AR   Ar   95   3.367   6.571   6.048
    1   AR   Ar   96   2.884   0.732   5.881
    1   AR   Ar   97   3.883   2.536  -0.908
    1   AR   Ar   98   2.910   4.608   1.787
    1   AR   Ar   99   6.677   2.719  -1.522
    1   AR   Ar  100   1.769   3.335  -0.264
    1   AR   Ar  101   2.440   4.056   1.030
    1   AR   Ar  102   2.621   3.111   3.451
    1   AR   Ar  103   0.938   5.019   0.257
    1   AR   Ar  104   2.493   2.589  -0.660
    1   AR   Ar  105   1.652   3.141   2.971
    1   AR   Ar  106   2.269   2.993   4.667
    1   AR   Ar  107   1.885   4.007   5.158
    1   AR   Ar  108   3.688   2.721   4.439
    1   AR   Ar  109   2.144   4.175   3.495
    1   AR   Ar  110   1.338   4.534   6.015
    1   AR   Ar  111   4.082   4.319   6.794
    1   AR   Ar  112   0.735   4.949   7.446
    1   AR   Ar  113   2.441   4.773   0.017
    1   AR   Ar  114   2.829   4.955  -1.080
    1   AR   Ar  115   2.814   3.712  -0.433
    1   AR   Ar  116   4.705   6.068  -0.329
    1   AR   Ar  117   0.649   5.511   3.695
    1   AR   Ar  118   0.538   6.802   3.152
    1   AR   Ar  119   2.545   4.026   2.532
    1   AR   Ar  120   1.204   5.322   2.639
    1   AR   Ar  121   6.954   4.356   4.260
    1   AR   Ar  122   2.756   5.984   4.724
    1   AR   Ar  123   2.498   4.846   5.032
    1   AR   Ar  124   2.274   5.695   1.957
    1   AR   Ar  125   0.669   4.295   5.070
    1   AR   Ar  126   0.364   0.103   4.913
    1   AR   Ar  127   3.430   4.977   7.799
    1   AR   Ar  128   2.254   5.450   6.588
    1   AR   Ar  129   1.634   0.142   2.411
    1   AR   Ar  130   3.165   1.407  -3.493
    1   AR   Ar  131   4.681   6.847   0.752
    1   AR   Ar  132   0.799   2.344  -1.436
    1   AR   Ar  133   4.045   0.071   3.357
    1   AR   Ar  134   4.321   1.052   3.279
    1   AR   Ar  135   5.143   0.874   2.627
    1   AR   Ar  136   4.406   6.995   2.002
    1   AR   Ar  137   3.019   6.252   3.598
    1   AR   Ar  138   4.976   1.177   4.836
    1   AR   Ar  139   6.010   1.764   5.018
    1   AR   Ar  140   4.184   0.886   4.380
    1   AR   Ar  141   3.777   6.580   4.455
    1   AR   Ar  142   4.138   0.130   5.490
    1   AR   Ar  143   5.967   6.862   5.610
    1   AR   Ar  144   4.793   0.344   6.358
    1   AR   Ar  145   3.981   3.906   0.485
    1   AR   Ar  146   3.989   2.409   1.642
    1   AR   Ar  147   5.856   2.035  -0.507
    1   AR   Ar  148   4.776   4.096  -2.634
    1   AR   Ar  149   3.058   1.924   1.339
    1   AR   Ar  150   2.513   2.041   2.732
    1   AR   Ar  151   3.234   2.122   3.676
    1   AR   Ar  152   2.841   3.033   0.304
    1   AR   Ar  153   3.180   0.765   3.953
    1   AR   Ar  154   4.186   1.870   4.771
    1   AR   Ar  155   5.727   0.945   5.662
    1   AR   Ar  156   2.990   4.225   4.262
    1   AR   Ar  157   3.189   3.012   5.898
    1   AR   Ar  158   1.129   2.545   6.911
    1   AR   Ar  159   3.561   1.915   6.122
    1   AR   Ar  160   3.340   2.354   7.293
    1   AR   Ar  161   5.373   2.239   1.123
    1   AR   Ar  162   4.583   4.807  -0.155
    1   AR   Ar  163   5.311   2.729  -0.051
    1   AR   Ar  164   4.151   5.019   1.506
    1   AR   Ar  165   3.032   3.175   1.418
    1   AR   Ar  166   2.663   5.220   3.830
    1   AR   Ar  167   4.457   2.217   2.829
    1   AR   Ar  168   5.177   3.478  -0.891
    1   AR   Ar  169   2.742   2.929   2.344
    1   AR   Ar  170   3.324   3.689   5.137
    1   AR   Ar  171   4.188   4.152   4.413
    1   AR   Ar  172   4.404   5.417   4.267
    1   AR   Ar  173   2.055   3.642   6.967
    1   AR   Ar  174   3.786   4.999   5.971
    1   AR   Ar  175   4.308   3.252   6.055
    1   AR   Ar  176   3.649   4.837   4.904
    1   AR   Ar  177   6.479   5.968  -0.396
    1   AR   Ar  178   2.938   6.047   1.236
    1   AR   Ar  179   4.021   5.687   0.624
    1   AR   Ar  180   3.225   3.190  -2.421
    1   AR   Ar  181   1.624   5.572   0.908
    1   AR   Ar  182   3.009   6.719   2.542
    1   AR   Ar  183   3.672   4.668   2.490
    1   AR   Ar  184   3.939   6.236   1.489
    1   AR   Ar  185   1.527   5.373   4.620
    1   AR   Ar  186   3.638   5.369   3.474
    1   AR   Ar  187   4.174   6.121   2.837
    1   AR   Ar  188   3.371   5.628   2.201
    1   AR   Ar  189   3.221   3.992   6.118
    1   AR   Ar  190   4.839   6.132   5.899
    1   AR   Ar  191   4.584   5.226   5.410
    1   AR   Ar  192   3.738   5.920   5.305
    1   AR   Ar  193   0.301   6.219  -0.130
    1   AR   Ar  194   5.397   4.584  -1.811
    1   AR   Ar  195   6.495   0.480  -0.156
    1   AR   Ar  196   4.688   0.652  -0.658
    1   AR   Ar  197   5.452   1.397   0.396
    1   AR   Ar  198   6.267   1.064   1.249
    1   AR   Ar  199   4.998   1.195   1.499
    1   AR   Ar  200   6.402   1.840   0.446
    1   AR   Ar  201   5.058   6.923   3.215
    1   AR   Ar  202   5.146   2.436   4.186
    1   AR   Ar  203   6.274   6.330   4.865
    1   AR   Ar  204   5.136   0.621   3.811
    1   AR   Ar  205   6.077   0.741   3.398
    1   AR   Ar  206   5.062   0.088   4.928
    1   AR   Ar  207   6.727   0.400   5.877
    1   AR   Ar  208   6.913   0.158   4.059
    1   AR   Ar  209   4.925   2.401  -1.607
    1   AR   Ar  210   4.007   0.872   1.148
    1   AR   Ar  211   6.433   3.317   0.330
    1   AR   Ar  212   6.252   3.845  -1.615
    1   AR   Ar  213   3.488   1.951   2.418
    1   AR   Ar  214   3.676   3.349   2.591
    1   AR   Ar  215   6.221   2.278   1.724
    1   AR   Ar  216   6.543   3.649   1.289
    1   AR   Ar  217   4.384   3.028   3.429
    1   AR   Ar  218   4.537   2.806   5.091
    1   AR   Ar  219   5.274   1.767   3.386
    1   AR   Ar  220   5.351   2.702   2.719
    1   AR   Ar  221   6.264   0.487   4.939
    1   AR   Ar  222   4.459   1.612   5.653
    1   AR   Ar  223   6.894   0.706   6.931
    1   AR   Ar  224   5.499   2.551   5.649
    1   AR   Ar  225   5.784   5.545   0.535
    1   AR   Ar  226   4.926   4.019   2.451
    1   AR   Ar  227   6.521   4.840   0.215
    1   AR   Ar  228   4.944   5.775   1.266
    1   AR   Ar  229   5.836   4.175  -0.076
    1   AR   Ar  230   4.510   4.646   3.531
    1   AR   Ar  231   6.317   2.153   3.090
    1   AR   Ar  232   4.624   3.118   0.684
    1   AR   Ar  233   6.449   2.513   4.373
    1   AR   Ar  234   0.179   3.342   4.634
    1   AR   Ar  235   0.329   2.257   4.031
    1   AR   Ar  236   5.401   4.323   4.587
    1   AR   Ar  237   5.916   3.466   4.428
    1   AR   Ar  238   4.558   4.156   5.555
    1   AR   Ar  239   6.978   3.874   9.166
    1   AR   Ar  240   6.973   4.046   5.781
    1   AR   Ar  241   0.458   0.103  -0.042
    1   AR   Ar  242   5.205   4.755   1.025
    1   AR   Ar  243   6.094   3.767   2.508
    1   AR   Ar  244   0.554   4.798  -1.222
    1   AR   Ar  245   5.570   0.202   1.500
    1   AR   Ar  246   6.103   5.958   1.612
    1   AR   Ar  247   5.569   3.685   0.814
    1   AR   Ar  248   5.638   6.565   0.691
    1   AR   Ar  249   4.966   5.489   2.307
    1   AR   Ar  250   5.207   6.201   4.754
    1   AR   Ar  251   5.864   5.319   4.444
    1   AR   Ar  252   5.246   5.947   3.561
    1   AR   Ar  253   5.615   4.464   5.812
    1   AR   Ar  254   4.899   5.110   6.385
    1   AR   Ar  255   5.048   3.265   7.442
    1   AR   Ar  256   5.727   6.668   4.135
    7.12000  7.12000 12.00000
Argon-slab step 2095
  256
    1   AR   Ar    1   7.063   1.543  -0.590
    1   AR   Ar    2   6.605   0.140   0.959
    1   AR   Ar    3   0.695   7.119   1.062
    1   AR   Ar    4   1.538   6.922   0.355
    1   AR   Ar    5   6.850   5.998   0.818
    1   AR   Ar    6   6.985   0.873   2.621
    1   AR   Ar    7   7.078   5.138   2.953
    1   AR   Ar    8   6.364   6.779   2.173
    1   AR   Ar    9   0.992   0.385   4.120
    1   AR   Ar   10   1.258   1.493   4.474
    1   AR   Ar   11   3.065   7.099   4.992
    1   AR   Ar   12   1.202   0.873   3.097
    1   AR   Ar   13   7.039   1.512   5.305
    1   AR   Ar   14   1.167   1.357   6.764
    1   AR   Ar   15   6.714   0.163   9.274
    1   AR   Ar   16   0.807   1.107   5.383
    1   AR   Ar   17   1.021   1.298  -0.088
    1   AR   Ar   18   6.273   3.135  -0.678
    1   AR   Ar   19   1.199   2.418   1.450
    1   AR   Ar   20   6.051   3.791  -2.653
    1   AR   Ar   21   6.033   0.983   2.237
    1   AR   Ar   22   7.088   1.839   2.177
    1   AR   Ar   23   0.178   0.947   0.601
    1   AR   Ar   24   0.234   2.183   1.160
    1   AR   Ar   25   0.308   1.478   3.307
    1   AR   Ar   26   6.442   1.603   4.099
    1   AR   Ar   27   2.193   1.311   3.487
    1   AR   Ar   28   1.283   2.633   4.537
    1   AR   Ar   29   5.544   1.575   6.786
    1   AR   Ar   30   1.084   2.198   5.895
    1   AR   Ar   31   0.555   6.857   6.906
    1   AR   Ar   32   1.873   3.058   5.980
    1   AR   Ar   33   1.785   4.787  -0.787
    1   AR   Ar   34   0.251   5.968   2.460
    1   AR   Ar   35   6.801   4.934   1.509
    1   AR   Ar   36   0.196   7.081  -3.219
    1   AR   Ar   37   6.893   3.025   2.048
    1   AR   Ar   38   0.115   4.077   2.120
    1   AR   Ar   39   1.426   4.130   2.691
    1   AR   Ar   40   1.461   4.001   1.638
    1   AR   Ar   41   0.244   2.462   3.046
    1   AR   Ar   42   6.765   5.230   4.911
    1   AR   Ar   43   6.610   2.622   5.769
    1   AR   Ar   44   0.698   3.992   3.516
    1   AR   Ar   45   0.687   3.340   5.516
    1   AR   Ar   46   0.724   5.441   6.290
    1   AR   Ar   47   6.159   3.624   6.391
    1   AR   Ar   48   6.294   6.255   6.460
    1   AR   Ar   49   6.767   6.772  -2.132
    1   AR   Ar   50   6.031   4.688   2.159
    1   AR   Ar   51   0.877   4.965   1.374
    1   AR   Ar   52   6.118   5.019  -0.927
    1   AR   Ar   53   5.655   6.115   2.657
    1   AR   Ar   54   6.302   6.821   3.256
    1   AR   Ar   55   6.044   5.251   3.129
    1   AR   Ar   56   0.336   0.031   2.135
    1   AR   Ar   57   6.474   3.219   3.492
    1   AR   Ar   58   6.791   6.017   3.788
    1   AR   Ar   59   1.807   5.502   5.759
    1   AR   Ar   60   0.472   6.491   4.149
    1   AR   Ar   61   5.882   5.579   5.683
    1   AR   Ar   62   0.653   5.773   5.092
    1   AR   Ar   63   1.788   6.595   6.398
    1   AR   Ar   64   0.922   6.767   5.908
    1   AR   Ar   65   3.656   0.213   0.530
    1   AR   Ar   66   1.335   0.852   1.085
    1   AR   Ar   67   3.546   6.108  -0.567
    1   AR   Ar   68   3.185   1.701  -1.086
    1   AR   Ar   69   2.818   0.883   0.938
    1   AR   Ar   70   0.941   1.256   2.124
    1   AR   Ar   71   2.995   0.817   2.871
    1   AR   Ar   72   3.419   0.215   1.856
    1   AR   Ar   73   2.289   0.167   3.578
    1   AR   Ar   74   2.219   0.925   4.465
    1   AR   Ar   75   3.604   1.035   5.189
    1   AR   Ar   76   2.500   1.064   2.011
    1   AR   Ar   77   2.289   6.496   5.366
    1   AR   Ar   78   1.582   0.518   6.212
    1   AR   Ar   79   3.173   5.952   6.982
    1   AR   Ar   80   2.842   5.714   5.826
    1   AR   Ar   81   2.263   0.911  -0.006
    1   AR   Ar   82   6.857   3.926  -0.824
    1   AR   Ar   83   1.858   1.935   0.608
    1   AR   Ar   84   0.423   3.310  -1.472
    1   AR   Ar   85   0.161   2.515  -0.394
    1   AR   Ar   86   1.912   3.101   1.535
    1   AR   Ar   87   2.122   2.036   1.700
    1   AR   Ar   88   3.961   3.748   1.668
    1   AR   Ar   89   0.764   3.002   2.363
    1   AR   Ar   90   2.971   1.610   4.570
    1   AR   Ar   91   1.570   2.256   3.655
    1   AR   Ar   92   1.397   2.072   2.494
    1   AR   Ar   93   2.092   1.810   5.719
    1   AR   Ar   94   0.631   0.994   8.888
    1   AR   Ar   95   3.402   6.556   6.083
    1   AR   Ar   96   2.872   0.730   5.897
    1   AR   Ar   97   3.879   2.556  -0.930
    1   AR   Ar   98   2.917   4.663   1.796
    1   AR   Ar   99   6.722   2.719  -1.517
    1   AR   Ar  100   1.759   3.311  -0.287
    1   AR   Ar  101   2.471   4.075   1.040
    1   AR   Ar  102   2.612   3.131   3.463
    1   AR   Ar  103   0.964   5.018   0.235
    1   AR   Ar  104   2.503   2.592  -0.638
    1   AR   Ar  105   1.689   3.112   2.962
    1   AR   Ar  106   2.244   3.022   4.662
    1   AR   Ar  107   1.889   4.004   5.189
    1   AR   Ar  108   3.680   2.744   4.445
    1   AR   Ar  109   2.149   4.195   3.503
    1   AR   Ar  110   1.340   4.551   6.045
    1   AR   Ar  111   4.077   4.316   6.787
    1   AR   Ar  112   0.745   4.945   7.455
    1   AR   Ar  113   2.461   4.757  -0.000
    1   AR   Ar  114   2.855   4.922  -1.097
    1   AR   Ar  115   2.804   3.744  -0.435
    1   AR   Ar  116   4.704   6.047  -0.341
    1   AR   Ar  117   0.642   5.524   3.696
    1   AR   Ar  118   0.497   6.832   3.115
    1   AR   Ar  119   2.525   4.010   2.523
    1   AR   Ar  120   1.206   5.298   2.671
    1   AR   Ar  121   6.948   4.331   4.258
    1   AR   Ar  122   2.780   5.994   4.688
    1   AR   Ar  123   2.515   4.821   5.021
    1   AR   Ar  124   2.230   5.685   1.963
    1   AR   Ar  125   0.701   4.267   5.060
    1   AR   Ar  126   0.372   0.080   4.908
    1   AR   Ar  127   3.452   4.958   7.792
    1   AR   Ar  128   2.244   5.432   6.640
    1   AR   Ar  129   1.639   0.170   2.406
    1   AR   Ar  130   3.208   1.394  -3.516
    1   AR   Ar  131   4.670   6.865   0.747
    1   AR   Ar  132   0.843   2.337  -1.417
    1   AR   Ar  133   4.020   0.088   3.353
    1   AR   Ar  134   4.344   1.040   3.301
    1   AR   Ar  135   5.144   0.875   2.615
    1   AR   Ar  136   4.442   7.020   1.986
    1   AR   Ar  137   3.039   6.251   3.606
    1   AR   Ar  138   4.986   1.155   4.866
    1   AR   Ar  139   5.991   1.770   5.020
    1   AR   Ar  140   4.181   0.844   4.351
    1   AR   Ar  141   3.792   6.582   4.470
    1   AR   Ar  142   4.148   0.123   5.475
    1   AR   Ar  143   5.958   6.845   5.614
    1   AR   Ar  144   4.783   0.355   6.315
    1   AR   Ar  145   3.994   3.950   0.472
    1   AR   Ar  146   4.015   2.410   1.666
    1   AR   Ar  147   5.838   2.028  -0.534
    1   AR   Ar  148   4.751   4.083  -2.634
    1   AR   Ar  149   3.056   1.916   1.321
    1   AR   Ar  150   2.522   2.032   2.722
    1   AR   Ar  151   3.219   2.114   3.690
    1   AR   Ar  152   2.844   3.018   0.310
    1   AR   Ar  153   3.202   0.783   3.953
    1   AR   Ar  154   4.174   1.878   4.757
    1   AR   Ar  155   5.714   0.949   5.658
    1   AR   Ar  156   2.997   4.204   4.296
    1   AR   Ar  157   3.175   2.971   5.892
    1   AR   Ar  158   1.136   2.559   6.878
    1   AR   Ar  159   3.532   1.907   6.117
    1   AR   Ar  160   3.313   2.349   7.271
    1   AR   Ar  161   5.311   2.248   1.128
    1   AR   Ar  162   4.591   4.808  -0.144
    1   AR   Ar  163   5.326   2.738  -0.046
    1   AR   Ar  164   4.171   5.030   1.550
    1   AR   Ar  165   3.039   3.178   1.427
    1   AR   Ar  166   2.714   5.239   3.837
    1   AR   Ar  167   4.470   2.209   2.824
    1   AR   Ar  168   5.177   3.446  -0.939
    1   AR   Ar  169   2.754   2.944   2.322
    1   AR   Ar  170   3.322   3.677   5.106
    1   AR   Ar  171   4.201   4.133   4.365
    1   AR   Ar  172   4.414   5.384   4.254
    1   AR   Ar  173   2.061   3.627   6.961
    1   AR   Ar  174   3.775   4.984   5.998
    1   AR   Ar  175   4.343   3.240   6.060
    1   AR   Ar  176   3.657   4.850   4.908
    1   AR   Ar  177   6.475   5.965  -0.405
    1   AR   Ar  178   2.949   6.029   1.218
    1   AR   Ar  179   4.025   5.665   0.644
    1   AR   Ar  180   3.185   3.203  -2.391
    1   AR   Ar  181   1.612   5.577   0.881
    1   AR   Ar  182   3.030   6.724   2.534
    1   AR   Ar  183   3.693   4.661   2.491
    1   AR   Ar  184   3.938   6.250   1.502
    1   AR   Ar  185   1.534   5.352   4.629
    1   AR   Ar  186   3.645   5.377   3.443
    1   AR   Ar  187   4.181   6.120   2.824
    1   AR   Ar  188   3.334   5.649   2.157
    1   AR   Ar  189   3.204   3.988   6.117
    1   AR   Ar  190   4.831   6.144   5.881
    1   AR   Ar  191   4.601   5.224   5.452
    1   AR   Ar  192   3.757   5.906   5.321
    1   AR   Ar  193   0.340   6.206  -0.126
    1   AR   Ar  194   5.402   4.564  -1.799
    1   AR   Ar  195   6.473   0.487  -0.170
    1   AR   Ar  196   4.713   0.595  -0.655
    1   AR   Ar  197   5.456   1.419   0.405
    1   AR   Ar  198   6.266   1.048   1.223
    1   AR   Ar  199   5.010   1.174   1.505
    1   AR   Ar  200   6.420   1.815   0.414
    1   AR   Ar  201   5.062   6.925   3.216
    1   AR   Ar  202   5.161   2.393   4.178
    1   AR   Ar  203   6.274   6.315   4.855
    1   AR   Ar  204   5.112   0.603   3.827
    1   AR   Ar  205   6.089   0.752   3.397
    1   AR   Ar  206   5.053   0.093   4.943
    1   AR   Ar  207   6.752   0.396   5.882
    1   AR   Ar  208   6.900   0.172   4.018
    1   AR   Ar  209   4.958   2.411  -1.644
    1   AR   Ar  210   4.050   0.861   1.140
    1   AR   Ar  211   6.446   3.327   0.325
    1   AR   Ar  212   6.238   3.847  -1.601
    1   AR   Ar  213   3.477   1.963   2.433
    1   AR   Ar  214   3.703   3.328   2.577
    1   AR   Ar  215   6.224   2.273   1.700
    1   AR   Ar  216   6.574   3.675   1.262
    1   AR   Ar  217   4.358   3.033   3.451
    1   AR   Ar  218   4.532   2.802   5.119
    1   AR   Ar  219   5.270   1.747   3.386
    1   AR   Ar  220   5.371   2.694   2.738
    1   AR   Ar  221   6.286   0.477   4.940
    1   AR   Ar  222   4.453   1.595   5.637
    1   AR   Ar  223   6.896   0.696   6.919
    1   AR   Ar  224   5.500   2.580   5.665
    1   AR   Ar  225   5.783   5.533   0.539
    1   AR   Ar  226   4.917   4.031   2.466
    1   AR   Ar  227   6.557   4.859   0.271
    1   AR   Ar  228   4.961   5.772   1.282
    1   AR   Ar  229   5.843   4.197  -0.107
    1   AR   Ar  230   4.492   4.645   3.572
    1   AR   Ar  231   6.294   2.149   3.121
    1   AR   Ar  232   4.605   3.084   0.665
    1   AR   Ar  233   6.444   2.542   4.349
    1   AR   Ar  234   0.174   3.324   4.641
    1   AR   Ar  235   0.323   2.270   4.025
    1   AR   Ar  236   5.394   4.329   4.587
    1   AR   Ar  237   5.901   3.475   4.451
    1   AR   Ar  238   4.548   4.150   5.565
    1   AR   Ar  239   7.005   3.874   9.163
    1   AR   Ar  240   6.959   4.036   5.777
    1   AR   Ar  241   0.442   0.091   0.012
    1   AR   Ar  242   5.161   4.762   1.024
    1   AR   Ar  243   6.123   3.727   2.510
    1   AR   Ar  244   0.553   4.782  -1.199
    1   AR   Ar  245   5.541   0.193   1.461
    1   AR   Ar  246   6.104   5.936   1.608
    1   AR   Ar  247   5.559   3.690   0.835
    1   AR   Ar  248   5.645   6.580   0.709
    1   AR   Ar  249   4.961   5.485   2.316
    1   AR   Ar  250   5.221   6.199   4.767
    1   AR   Ar  251   5.891   5.325   4.427
    1   AR   Ar  252   5.253   5.946   3.532
    1   AR   Ar  253   5.611   4.442   5.827
    1   AR   Ar  254   4.877   5.081   6.377
    1   AR   Ar  255   5.051   3.255   7.462
    1   AR   Ar  256   5.712   6.683   4.110
    7.12000  7.12000 12.00000
Argon-slab step 2100
  256
    1   AR   Ar    1   7.094   1.506  -0.547
    1   AR   Ar    2   6.625   0.095   0.998
    1   AR   Ar    3   0.728   0.001   1.060
    1   AR   Ar    4   1.534   6.914   0.352
    1   AR   Ar    5   6.867   6.032   0.830
    1   AR   Ar    6   6.962   0.859   2.613
    1   AR   Ar    7   7.026   5.114   2.980
    1   AR   Ar    8   6.358   6.787   2.153
    1   AR   Ar    9   0.970   0.398   4.111
    1   AR   Ar   10   1.255   1.512   4.487
    1   AR   Ar   11   3.051   7.113   4.977
    1   AR   Ar   12   1.239   0.905   3.094
    1   AR   Ar   13   7.001   1.502   5.317
    1   AR   Ar   14   1.190   1.333   6.774
    1   AR   Ar   15   6.704   0.159   9.307
    1   AR   Ar   16   0.753   1.093   5.360
    1   AR   Ar   17   1.007   1.307  -0.107
    1   AR   Ar   18   6.207   3.115  -0.662
    1   AR   Ar   19   1.177   2.419   1.449
    1   AR   Ar   20   6.036   3.828  -2.634
    1   AR   Ar   21   6.030   0.968   2.226
    1   AR   Ar   22   7.082   1.855   2.167
    1   AR   Ar   23   0.187   0.956   0.570
    1   AR   Ar   24   0.264   2.189   1.162
    1   AR   Ar   25   0.323   1.453   3.276
    1   AR   Ar   26   6.431   1.632   4.104
    1   AR   Ar   27   2.203   1.329   3.479
    1   AR   Ar   28   1.235   2.633   4.568
    1   AR   Ar   29   5.535   1.558   6.761
    1   AR   Ar   30   1.063   2.200   5.908
    1   AR   Ar   31   0.540   6.854   6.910
    1   AR   Ar   32   1.900   3.046   5.955
    1   AR   Ar   33   1.779   4.804  -0.771
    1   AR   Ar   34   0.256   6.001   2.491
    1   AR   Ar   35   6.780   4.951   1.511
    1   AR   Ar   36   0.182   7.055  -3.222
    1   AR   Ar   37   6.917   3.038   2.080
    1   AR   Ar   38   0.106   4.091   2.110
    1   AR   Ar   39   1.410   4.130   2.693
    1   AR   Ar   40   1.461   3.985   1.648
    1   AR   Ar   41   0.220   2.457   3.042
    1   AR   Ar   42   6.799   5.221   4.916
    1   AR   Ar   43   6.608   2.622   5.790
    1   AR   Ar   44   0.688   4.005   3.509
    1   AR   Ar   45   0.712   3.332   5.539
    1   AR   Ar   46   0.706   5.422   6.319
    1   AR   Ar   47   6.156   3.568   6.384
    1   AR   Ar   48   6.299   6.253   6.435
    1   AR   Ar   49   6.798   6.757  -2.159
    1   AR   Ar   50   6.005   4.694   2.182
    1   AR   Ar   51   0.874   4.947   1.371
    1   AR   Ar   52   6.112   5.008  -0.946
    1   AR   Ar   53   5.668   6.135   2.657
    1   AR   Ar   54   6.276   6.839   3.270
    1   AR   Ar   55   6.028   5.223   3.153
    1   AR   Ar   56   0.294   0.015   2.118
    1   AR   Ar   57   6.490   3.195   3.495
    1   AR   Ar   58   6.815   5.996   3.759
    1   AR   Ar   59   1.826   5.501   5.786
    1   AR   Ar   60   0.490   6.496   4.148
    1   AR   Ar   61   5.885   5.562   5.675
    1   AR   Ar   62   0.658   5.764   5.112
    1   AR   Ar   63   1.836   6.570   6.396
    1   AR   Ar   64   0.902   6.785   5.921
    1   AR   Ar   65   3.700   0.153   0.496
    1   AR   Ar   66   1.349   0.897   1.071
    1   AR   Ar   67   3.579   6.135  -0.550
    1   AR   Ar   68   3.188   1.705  -1.051
    1   AR   Ar   69   2.820   0.902   0.939
    1   AR   Ar   70   0.918   1.261   2.110
    1   AR   Ar   71   2.995   0.822   2.880
    1   AR   Ar   72   3.390   0.217   1.866
    1   AR   Ar   73   2.314   0.152   3.588
    1   AR   Ar   74   2.254   0.927   4.460
    1   AR   Ar   75   3.603   1.039   5.188
    1   AR   Ar   76   2.494   1.069   2.025
    1   AR   Ar   77   2.304   6.468   5.385
    1   AR   Ar   78   1.575   0.514   6.211
    1   AR   Ar   79   3.177   5.959   6.980
    1   AR   Ar   80   2.842   5.714   5.791
    1   AR   Ar   81   2.282   0.948  -0.031
    1   AR   Ar   82   6.846   3.926  -0.824
    1   AR   Ar   83   1.827   1.912   0.590
    1   AR   Ar   84   0.445   3.305  -1.454
    1   AR   Ar   85   0.188   2.482  -0.419
    1   AR   Ar   86   1.931   3.086   1.519
    1   AR   Ar   87   2.130   2.039   1.649
    1   AR   Ar   88   3.908   3.728   1.673
    1   AR   Ar   89   0.771   3.038   2.347
    1   AR   Ar   90   2.977   1.620   4.568
    1   AR   Ar   91   1.543   2.244   3.639
    1   AR   Ar   92   1.380   2.038   2.470
    1   AR   Ar   93   2.094   1.780   5.734
    1   AR   Ar   94   0.612   0.954   8.916
    1   AR   Ar   95   3.437   6.547   6.117
    1   AR   Ar   96   2.859   0.727   5.913
    1   AR   Ar   97   3.876   2.576  -0.953
    1   AR   Ar   98   2.923   4.722   1.802
    1   AR   Ar   99   6.762   2.714  -1.514
    1   AR   Ar  100   1.749   3.289  -0.308
    1   AR   Ar  101   2.501   4.090   1.049
    1   AR   Ar  102   2.606   3.151   3.476
    1   AR   Ar  103   0.990   5.016   0.210
    1   AR   Ar  104   2.515   2.594  -0.616
    1   AR   Ar  105   1.724   3.082   2.951
    1   AR   Ar  106   2.224   3.052   4.657
    1   AR   Ar  107   1.891   3.997   5.220
    1   AR   Ar  108   3.677   2.771   4.452
    1   AR   Ar  109   2.155   4.215   3.514
    1   AR   Ar  110   1.341   4.565   6.072
    1   AR   Ar  111   4.073   4.311   6.779
    1   AR   Ar  112   0.752   4.964   7.468
    1   AR   Ar  113   2.485   4.740  -0.014
    1   AR   Ar  114   2.881   4.889  -1.112
    1   AR   Ar  115   2.793   3.779  -0.439
    1   AR   Ar  116   4.696   6.033  -0.351
    1   AR   Ar  117   0.637   5.536   3.697
    1   AR   Ar  118   0.454   6.864   3.083
    1   AR   Ar  119   2.505   3.990   2.513
    1   AR   Ar  120   1.206   5.273   2.703
    1   AR   Ar  121   6.943   4.306   4.256
    1   AR   Ar  122   2.813   5.995   4.643
    1   AR   Ar  123   2.534   4.802   5.011
    1   AR   Ar  124   2.185   5.673   1.970
    1   AR   Ar  125   0.733   4.244   5.048
    1   AR   Ar  126   0.378   0.059   4.911
    1   AR   Ar  127   3.475   4.939   7.784
    1   AR   Ar  128   2.237   5.413   6.704
    1   AR   Ar  129   1.645   0.198   2.400
    1   AR   Ar  130   3.250   1.380  -3.539
    1   AR   Ar  131   4.651   6.884   0.745
    1   AR   Ar  132   0.886   2.328  -1.397
    1   AR   Ar  133   3.989   0.098   3.351
    1   AR   Ar  134   4.364   1.040   3.319
    1   AR   Ar  135   5.124   0.886   2.625
    1   AR   Ar  136   4.483   7.048   1.972
    1   AR   Ar  137   3.060   6.255   3.614
    1   AR   Ar  138   5.007   1.136   4.895
    1   AR   Ar  139   5.970   1.778   5.025
    1   AR   Ar  140   4.174   0.795   4.316
    1   AR   Ar  141   3.810   6.581   4.481
    1   AR   Ar  142   4.153   0.115   5.459
    1   AR   Ar  143   5.940   6.833   5.628
    1   AR   Ar  144   4.776   0.367   6.271
    1   AR   Ar  145   4.006   3.996   0.460
    1   AR   Ar  146   4.043   2.414   1.688
    1   AR   Ar  147   5.827   2.015  -0.566
    1   AR   Ar  148   4.727   4.069  -2.634
    1   AR   Ar  149   3.061   1.908   1.301
    1   AR   Ar  150   2.521   2.017   2.718
    1   AR   Ar  151   3.205   2.105   3.698
    1   AR   Ar  152   2.847   3.002   0.321
    1   AR   Ar  153   3.223   0.799   3.951
    1   AR   Ar  154   4.157   1.886   4.726
    1   AR   Ar  155   5.698   0.953   5.659
    1   AR   Ar  156   3.002   4.184   4.322
    1   AR   Ar  157   3.160   2.924   5.887
    1   AR   Ar  158   1.100   2.553   6.847
    1   AR   Ar  159   3.501   1.899   6.112
    1   AR   Ar  160   3.287   2.344   7.246
    1   AR   Ar  161   5.253   2.266   1.140
    1   AR   Ar  162   4.581   4.814  -0.123
    1   AR   Ar  163   5.340   2.754  -0.037
    1   AR   Ar  164   4.190   5.041   1.594
    1   AR   Ar  165   3.034   3.191   1.408
    1   AR   Ar  166   2.759   5.254   3.848
    1   AR   Ar  167   4.478   2.194   2.816
    1   AR   Ar  168   5.179   3.414  -0.986
    1   AR   Ar  169   2.759   2.957   2.311
    1   AR   Ar  170   3.325   3.663   5.076
    1   AR   Ar  171   4.211   4.105   4.327
    1   AR   Ar  172   4.424   5.357   4.248
    1   AR   Ar  173   2.066   3.612   6.953
    1   AR   Ar  174   3.758   4.969   6.027
    1   AR   Ar  175   4.377   3.232   6.074
    1   AR   Ar  176   3.663   4.866   4.914
    1   AR   Ar  177   6.467   5.960  -0.413
    1   AR   Ar  178   2.924   6.025   1.187
    1   AR   Ar  179   4.049   5.674   0.637
    1   AR   Ar  180   3.145   3.217  -2.361
    1   AR   Ar  181   1.604   5.584   0.854
    1   AR   Ar  182   3.047   6.722   2.534
    1   AR   Ar  183   3.714   4.676   2.488
    1   AR   Ar  184   3.938   6.266   1.517
    1   AR   Ar  185   1.543   5.331   4.638
    1   AR   Ar  186   3.658   5.385   3.409
    1   AR   Ar  187   4.176   6.111   2.784
    1   AR   Ar  188   3.298   5.671   2.115
    1   AR   Ar  189   3.188   3.990   6.120
    1   AR   Ar  190   4.823   6.159   5.863
    1   AR   Ar  191   4.620   5.223   5.473
    1   AR   Ar  192   3.778   5.891   5.333
    1   AR   Ar  193   0.381   6.186  -0.121
    1   AR   Ar  194   5.406   4.542  -1.787
    1   AR   Ar  195   6.453   0.494  -0.182
    1   AR   Ar  196   4.738   0.538  -0.650
    1   AR   Ar  197   5.456   1.440   0.415
    1   AR   Ar  198   6.263   1.041   1.196
    1   AR   Ar  199   5.026   1.154   1.511
    1   AR   Ar  200   6.443   1.793   0.381
    1   AR   Ar  201   5.067   6.922   3.213
    1   AR   Ar  202   5.175   2.353   4.175
    1   AR   Ar  203   6.287   6.290   4.840
    1   AR   Ar  204   5.092   0.588   3.851
    1   AR   Ar  205   6.101   0.766   3.395
    1   AR   Ar  206   5.049   0.100   4.957
    1   AR   Ar  207   6.780   0.392   5.888
    1   AR   Ar  208   6.885   0.187   3.974
    1   AR   Ar  209   4.992   2.421  -1.680
    1   AR   Ar  210   4.096   0.860   1.143
    1   AR   Ar  211   6.460   3.334   0.315
    1   AR   Ar  212   6.244   3.851  -1.631
    1   AR   Ar  213   3.470   1.973   2.447
    1   AR   Ar  214   3.731   3.306   2.567
    1   AR   Ar  215   6.226   2.265   1.674
    1   AR   Ar  216   6.607   3.706   1.242
    1   AR   Ar  217   4.331   3.040   3.477
    1   AR   Ar  218   4.519   2.794   5.154
    1   AR   Ar  219   5.269   1.722   3.382
    1   AR   Ar  220   5.372   2.688   2.743
    1   AR   Ar  221   6.321   0.463   4.927
    1   AR   Ar  222   4.453   1.576   5.639
    1   AR   Ar  223   6.919   0.715   6.884
    1   AR   Ar  224   5.501   2.608   5.679
    1   AR   Ar  225   5.781   5.522   0.544
    1   AR   Ar  226   4.899   4.028   2.489
    1   AR   Ar  227   6.598   4.880   0.329
    1   AR   Ar  228   4.978   5.774   1.298
    1   AR   Ar  229   5.847   4.215  -0.141
    1   AR   Ar  230   4.479   4.644   3.596
    1   AR   Ar  231   6.272   2.145   3.152
    1   AR   Ar  232   4.586   3.049   0.649
    1   AR   Ar  233   6.439   2.584   4.331
    1   AR   Ar  234   0.165   3.304   4.642
    1   AR   Ar  235   0.335   2.283   4.049
    1   AR   Ar  236   5.381   4.343   4.589
    1   AR   Ar  237   5.890   3.477   4.472
    1   AR   Ar  238   4.538   4.146   5.574
    1   AR   Ar  239   7.033   3.875   9.160
    1   AR   Ar  240   6.946   4.027   5.770
    1   AR   Ar  241   0.426   0.086   0.065
    1   AR   Ar  242   5.117   4.766   1.024
    1   AR   Ar  243   6.153   3.681   2.514
    1   AR   Ar  244   0.555   4.767  -1.206
    1   AR   Ar  245   5.513   0.186   1.425
    1   AR   Ar  246   6.101   5.909   1.602
    1   AR   Ar  247   5.546   3.694   0.856
    1   AR   Ar  248   5.661   6.592   0.725
    1   AR   Ar  249   4.950   5.474   2.323
    1   AR   Ar  250   5.222   6.179   4.795
    1   AR   Ar  251   5.910   5.333   4.405
    1   AR   Ar  252   5.252   5.936   3.515
    1   AR   Ar  253   5.606   4.420   5.839
    1   AR   Ar  254   4.876   5.060   6.384
    1   AR   Ar  255   5.053   3.244   7.481
    1   AR   Ar  256   5.704   6.716   4.069
    7.12000  7.12000 12.00000
Argon-slab step 2105
  256
    1   AR   Ar    1   0.001   1.460  -0.503
    1   AR   Ar    2   6.647   0.045   1.037
    1   AR   Ar    3   0.738   0.008   1.062
    1   AR   Ar    4   1.527   6.918   0.371
    1   AR   Ar    5   6.883   6.067   0.840
    1   AR   Ar    6   6.941   0.840   2.604
    1   AR   Ar    7   6.980   5.087   3.006
    1   AR   Ar    8   6.354   6.798   2.132
    1   AR   Ar    9   0.951   0.414   4.099
    1   AR   Ar   10   1.252   1.531   4.499
    1   AR   Ar   11   3.038   0.011   4.964
    1   AR   Ar   12   1.276   0.938   3.093
    1   AR   Ar   13   6.946   1.498   5.328
    1   AR   Ar   14   1.213   1.312   6.783
    1   AR   Ar   15   6.694   0.156   9.339
    1   AR   Ar   16   0.714   1.070   5.340
    1   AR   Ar   17   0.993   1.316  -0.125
    1   AR   Ar   18   6.138   3.091  -0.649
    1   AR   Ar   19   1.157   2.419   1.451
    1   AR   Ar   20   6.017   3.866  -2.619
    1   AR   Ar   21   6.030   0.955   2.210
    1   AR   Ar   22   7.079   1.871   2.158
    1   AR   Ar   23   0.194   0.969   0.541
    1   AR   Ar   24   0.280   2.190   1.160
    1   AR   Ar   25   0.340   1.430   3.250
    1   AR   Ar   26   6.422   1.647   4.102
    1   AR   Ar   27   2.214   1.348   3.470
    1   AR   Ar   28   1.184   2.634   4.605
    1   AR   Ar   29   5.527   1.541   6.735
    1   AR   Ar   30   1.041   2.198   5.912
    1   AR   Ar   31   0.524   6.851   6.915
    1   AR   Ar   32   1.927   3.034   5.929
    1   AR   Ar   33   1.769   4.820  -0.757
    1   AR   Ar   34   0.261   6.036   2.521
    1   AR   Ar   35   6.761   4.969   1.510
    1   AR   Ar   36   0.167   7.028  -3.223
    1   AR   Ar   37   6.935   3.048   2.111
    1   AR   Ar   38   0.099   4.106   2.100
    1   AR   Ar   39   1.394   4.130   2.695
    1   AR   Ar   40   1.460   3.973   1.657
    1   AR   Ar   41   0.192   2.455   3.032
    1   AR   Ar   42   6.836   5.212   4.924
    1   AR   Ar   43   6.606   2.621   5.809
    1   AR   Ar   44   0.676   4.019   3.502
    1   AR   Ar   45   0.732   3.320   5.568
    1   AR   Ar   46   0.688   5.405   6.347
    1   AR   Ar   47   6.151   3.498   6.373
    1   AR   Ar   48   6.305   6.250   6.411
    1   AR   Ar   49   6.800   6.761  -2.165
    1   AR   Ar   50   5.977   4.701   2.205
    1   AR   Ar   51   0.870   4.928   1.369
    1   AR   Ar   52   6.106   4.994  -0.964
    1   AR   Ar   53   5.688   6.161   2.645
    1   AR   Ar   54   6.255   6.855   3.271
    1   AR   Ar   55   6.007   5.197   3.179
    1   AR   Ar   56   0.252   7.120   2.092
    1   AR   Ar   57   6.508   3.173   3.494
    1   AR   Ar   58   6.829   5.973   3.727
    1   AR   Ar   59   1.837   5.502   5.805
    1   AR   Ar   60   0.514   6.501   4.148
    1   AR   Ar   61   5.885   5.546   5.664
    1   AR   Ar   62   0.662   5.755   5.131
    1   AR   Ar   63   1.886   6.543   6.396
    1   AR   Ar   64   0.879   6.803   5.928
    1   AR   Ar   65   3.739   0.090   0.460
    1   AR   Ar   66   1.364   0.945   1.055
    1   AR   Ar   67   3.612   6.161  -0.533
    1   AR   Ar   68   3.189   1.710  -1.014
    1   AR   Ar   69   2.822   0.919   0.941
    1   AR   Ar   70   0.914   1.267   2.102
    1   AR   Ar   71   2.999   0.824   2.894
    1   AR   Ar   72   3.367   0.230   1.865
    1   AR   Ar   73   2.339   0.139   3.598
    1   AR   Ar   74   2.291   0.925   4.461
    1   AR   Ar   75   3.601   1.043   5.189
    1   AR   Ar   76   2.485   1.075   2.034
    1   AR   Ar   77   2.310   6.448   5.408
    1   AR   Ar   78   1.595   0.477   6.209
    1   AR   Ar   79   3.185   5.962   6.976
    1   AR   Ar   80   2.847   5.706   5.759
    1   AR   Ar   81   2.298   0.985  -0.055
    1   AR   Ar   82   6.842   3.930  -0.817
    1   AR   Ar   83   1.795   1.891   0.580
    1   AR   Ar   84   0.472   3.309  -1.435
    1   AR   Ar   85   0.214   2.458  -0.445
    1   AR   Ar   86   1.959   3.072   1.502
    1   AR   Ar   87   2.133   2.041   1.603
    1   AR   Ar   88   3.859   3.713   1.670
    1   AR   Ar   89   0.787   3.077   2.330
    1   AR   Ar   90   2.986   1.638   4.572
    1   AR   Ar   91   1.516   2.228   3.620
    1   AR   Ar   92   1.371   2.017   2.454
    1   AR   Ar   93   2.097   1.750   5.748
    1   AR   Ar   94   0.594   0.912   8.944
    1   AR   Ar   95   3.473   6.543   6.150
    1   AR   Ar   96   2.861   0.736   5.951
    1   AR   Ar   97   3.873   2.597  -0.975
    1   AR   Ar   98   2.928   4.780   1.805
    1   AR   Ar   99   6.796   2.703  -1.510
    1   AR   Ar  100   1.740   3.267  -0.329
    1   AR   Ar  101   2.529   4.104   1.056
    1   AR   Ar  102   2.621   3.159   3.496
    1   AR   Ar  103   1.013   5.012   0.184
    1   AR   Ar  104   2.529   2.594  -0.597
    1   AR   Ar  105   1.756   3.051   2.934
    1   AR   Ar  106   2.231   3.027   4.643
    1   AR   Ar  107   1.890   3.987   5.252
    1   AR   Ar  108   3.702   2.802   4.465
    1   AR   Ar  109   2.161   4.234   3.527
    1   AR   Ar  110   1.340   4.570   6.086
    1   AR   Ar  111   4.071   4.304   6.773
    1   AR   Ar  112   0.760   4.985   7.479
    1   AR   Ar  113   2.511   4.724  -0.023
    1   AR   Ar  114   2.906   4.855  -1.125
    1   AR   Ar  115   2.782   3.813  -0.445
    1   AR   Ar  116   4.664   6.022  -0.395
    1   AR   Ar  117   0.636   5.544   3.698
    1   AR   Ar  118   0.412   6.897   3.060
    1   AR   Ar  119   2.485   3.970   2.502
    1   AR   Ar  120   1.206   5.248   2.734
    1   AR   Ar  121   6.937   4.280   4.255
    1   AR   Ar  122   2.816   5.991   4.618
    1   AR   Ar  123   2.550   4.787   5.002
    1   AR   Ar  124   2.140   5.660   1.976
    1   AR   Ar  125   0.765   4.226   5.034
    1   AR   Ar  126   0.380   0.041   4.923
    1   AR   Ar  127   3.498   4.920   7.775
    1   AR   Ar  128   2.232   5.389   6.742
    1   AR   Ar  129   1.651   0.227   2.393
    1   AR   Ar  130   3.292   1.367  -3.563
    1   AR   Ar  131   4.632   6.902   0.746
    1   AR   Ar  132   0.929   2.318  -1.375
    1   AR   Ar  133   3.955   0.101   3.349
    1   AR   Ar  134   4.377   1.052   3.332
    1   AR   Ar  135   5.094   0.897   2.641
    1   AR   Ar  136   4.526   7.078   1.960
    1   AR   Ar  137   3.082   6.264   3.620
    1   AR   Ar  138   5.030   1.121   4.917
    1   AR   Ar  139   5.946   1.789   5.033
    1   AR   Ar  140   4.192   0.811   4.326
    1   AR   Ar  141   3.832   6.581   4.489
    1   AR   Ar  142   4.151   0.104   5.441
    1   AR   Ar  143   5.915   6.826   5.643
    1   AR   Ar  144   4.771   0.380   6.227
    1   AR   Ar  145   4.039   4.020   0.454
    1   AR   Ar  146   4.073   2.422   1.707
    1   AR   Ar  147   5.819   2.000  -0.599
    1   AR   Ar  148   4.705   4.055  -2.632
    1   AR   Ar  149   3.064   1.905   1.306
    1   AR   Ar  150   2.508   2.002   2.718
    1   AR   Ar  151   3.191   2.099   3.699
    1   AR   Ar  152   2.850   2.985   0.336
    1   AR   Ar  153   3.239   0.813   3.946
    1   AR   Ar  154   4.138   1.891   4.686
    1   AR   Ar  155   5.683   0.955   5.665
    1   AR   Ar  156   3.005   4.170   4.332
    1   AR   Ar  157   3.146   2.877   5.882
    1   AR   Ar  158   1.066   2.551   6.823
    1   AR   Ar  159   3.469   1.890   6.106
    1   AR   Ar  160   3.261   2.338   7.220
    1   AR   Ar  161   5.216   2.286   1.159
    1   AR   Ar  162   4.567   4.823  -0.098
    1   AR   Ar  163   5.354   2.773  -0.025
    1   AR   Ar  164   4.191   5.053   1.609
    1   AR   Ar  165   3.033   3.204   1.375
    1   AR   Ar  166   2.797   5.264   3.864
    1   AR   Ar  167   4.479   2.176   2.807
    1   AR   Ar  168   5.182   3.382  -1.034
    1   AR   Ar  169   2.758   2.966   2.313
    1   AR   Ar  170   3.333   3.642   5.057
    1   AR   Ar  171   4.215   4.063   4.308
    1   AR   Ar  172   4.435   5.343   4.255
    1   AR   Ar  173   2.071   3.596   6.944
    1   AR   Ar  174   3.738   4.956   6.055
    1   AR   Ar  175   4.382   3.227   6.064
    1   AR   Ar  176   3.669   4.881   4.921
    1   AR   Ar  177   6.458   5.955  -0.418
    1   AR   Ar  178   2.890   6.024   1.151
    1   AR   Ar  179   4.079   5.690   0.623
    1   AR   Ar  180   3.105   3.231  -2.331
    1   AR   Ar  181   1.598   5.594   0.830
    1   AR   Ar  182   3.060   6.710   2.546
    1   AR   Ar  183   3.737   4.689   2.489
    1   AR   Ar  184   3.926   6.257   1.489
    1   AR   Ar  185   1.565   5.317   4.614
    1   AR   Ar  186   3.679   5.391   3.372
    1   AR   Ar  187   4.170   6.105   2.744
    1   AR   Ar  188   3.264   5.692   2.080
    1   AR   Ar  189   3.172   3.993   6.122
    1   AR   Ar  190   4.817   6.180   5.845
    1   AR   Ar  191   4.638   5.223   5.471
    1   AR   Ar  192   3.802   5.877   5.344
    1   AR   Ar  193   0.420   6.172  -0.123
    1   AR   Ar  194   5.411   4.520  -1.774
    1   AR   Ar  195   6.441   0.499  -0.194
    1   AR   Ar  196   4.763   0.481  -0.645
    1   AR   Ar  197   5.454   1.459   0.426
    1   AR   Ar  198   6.258   1.040   1.167
    1   AR   Ar  199   5.046   1.136   1.518
    1   AR   Ar  200   6.471   1.771   0.349
    1   AR   Ar  201   5.071   6.910   3.218
    1   AR   Ar  202   5.189   2.317   4.179
    1   AR   Ar  203   6.308   6.261   4.822
    1   AR   Ar  204   5.120   0.591   3.837
    1   AR   Ar  205   6.108   0.777   3.397
    1   AR   Ar  206   5.050   0.105   4.969
    1   AR   Ar  207   6.810   0.388   5.891
    1   AR   Ar  208   6.873   0.204   3.933
    1   AR   Ar  209   5.026   2.433  -1.715
    1   AR   Ar  210   4.121   0.861   1.141
    1   AR   Ar  211   6.474   3.339   0.300
    1   AR   Ar  212   6.247   3.852  -1.659
    1   AR   Ar  213   3.469   1.981   2.461
    1   AR   Ar  214   3.759   3.280   2.565
    1   AR   Ar  215   6.228   2.257   1.648
    1   AR   Ar  216   6.640   3.742   1.230
    1   AR   Ar  217   4.305   3.048   3.505
    1   AR   Ar  218   4.508   2.784   5.184
    1   AR   Ar  219   5.270   1.690   3.376
    1   AR   Ar  220   5.342   2.683   2.727
    1   AR   Ar  221   6.355   0.449   4.908
    1   AR   Ar  222   4.454   1.555   5.652
    1   AR   Ar  223   6.943   0.734   6.851
    1   AR   Ar  224   5.500   2.637   5.694
    1   AR   Ar  225   5.778   5.512   0.548
    1   AR   Ar  226   4.881   4.026   2.513
    1   AR   Ar  227   6.641   4.901   0.387
    1   AR   Ar  228   4.995   5.782   1.311
    1   AR   Ar  229   5.851   4.232  -0.176
    1   AR   Ar  230   4.473   4.645   3.589
    1   AR   Ar  231   6.251   2.141   3.182
    1   AR   Ar  232   4.565   3.014   0.636
    1   AR   Ar  233   6.433   2.634   4.320
    1   AR   Ar  234   0.154   3.283   4.639
    1   AR   Ar  235   0.347   2.294   4.078
    1   AR   Ar  236   5.362   4.366   4.594
    1   AR   Ar  237   5.882   3.474   4.492
    1   AR   Ar  238   4.526   4.145   5.580
    1   AR   Ar  239   7.060   3.875   9.157
    1   AR   Ar  240   6.934   4.018   5.761
    1   AR   Ar  241   0.410   0.081   0.113
    1   AR   Ar  242   5.074   4.766   1.022
    1   AR   Ar  243   6.183   3.634   2.518
    1   AR   Ar  244   0.549   4.756  -1.210
    1   AR   Ar  245   5.508   0.184   1.418
    1   AR   Ar  246   6.096   5.880   1.596
    1   AR   Ar  247   5.533   3.698   0.877
    1   AR   Ar  248   5.681   6.598   0.737
    1   AR   Ar  249   4.936   5.458   2.331
    1   AR   Ar  250   5.217   6.152   4.828
    1   AR   Ar  251   5.924   5.343   4.379
    1   AR   Ar  252   5.244   5.917   3.512
    1   AR   Ar  253   5.602   4.399   5.850
    1   AR   Ar  254   4.902   5.053   6.410
    1   AR   Ar  255   5.054   3.234   7.499
    1   AR   Ar  256   5.693   6.756   4.033
    7.12000  7.12000 12.00000
Argon-slab step 2110
  256
    1   AR   Ar    1   0.018   1.452  -0.475
    1   AR   Ar    2   6.670   7.113   1.075
    1   AR   Ar    3   0.734   0.020   1.072
    1   AR   Ar    4   1.520   6.922   0.388
    1   AR   Ar    5   6.897   6.102   0.849
    1   AR   Ar    6   6.925   0.817   2.596
    1   AR   Ar    7   6.944   5.058   3.030
    1   AR   Ar    8   6.350   6.813   2.110
    1   AR   Ar    9   0.932   0.431   4.085
    1   AR   Ar   10   1.250   1.550   4.508
    1   AR   Ar   11   3.026   0.031   4.951
    1   AR   Ar   12   1.314   0.973   3.094
    1   AR   Ar   13   6.880   1.499   5.338
    1   AR   Ar   14   1.235   1.293   6.791
    1   AR   Ar   15   6.685   0.153   9.372
    1   AR   Ar   16   0.686   1.041   5.320
    1   AR   Ar   17   0.983   1.324  -0.141
    1   AR   Ar   18   6.073   3.066  -0.643
    1   AR   Ar   19   1.151   2.421   1.460
    1   AR   Ar   20   5.995   3.905  -2.615
    1   AR   Ar   21   6.025   0.943   2.190
    1   AR   Ar   22   7.076   1.885   2.151
    1   AR   Ar   23   0.197   0.989   0.518
    1   AR   Ar   24   0.275   2.186   1.151
    1   AR   Ar   25   0.359   1.409   3.230
    1   AR   Ar   26   6.415   1.651   4.097
    1   AR   Ar   27   2.224   1.364   3.465
    1   AR   Ar   28   1.135   2.639   4.645
    1   AR   Ar   29   5.518   1.524   6.706
    1   AR   Ar   30   1.019   2.192   5.901
    1   AR   Ar   31   0.507   6.848   6.922
    1   AR   Ar   32   1.953   3.022   5.902
    1   AR   Ar   33   1.740   4.819  -0.736
    1   AR   Ar   34   0.264   6.065   2.549
    1   AR   Ar   35   6.744   4.987   1.508
    1   AR   Ar   36   0.159   7.012  -3.231
    1   AR   Ar   37   6.946   3.052   2.138
    1   AR   Ar   38   0.092   4.123   2.091
    1   AR   Ar   39   1.377   4.129   2.700
    1   AR   Ar   40   1.457   3.965   1.664
    1   AR   Ar   41   0.164   2.457   3.020
    1   AR   Ar   42   6.875   5.203   4.932
    1   AR   Ar   43   6.605   2.620   5.826
    1   AR   Ar   44   0.663   4.032   3.496
    1   AR   Ar   45   0.723   3.308   5.602
    1   AR   Ar   46   0.671   5.389   6.374
    1   AR   Ar   47   6.145   3.428   6.362
    1   AR   Ar   48   6.314   6.246   6.390
    1   AR   Ar   49   6.782   6.774  -2.173
    1   AR   Ar   50   5.947   4.709   2.228
    1   AR   Ar   51   0.865   4.908   1.369
    1   AR   Ar   52   6.101   4.980  -0.982
    1   AR   Ar   53   5.712   6.187   2.627
    1   AR   Ar   54   6.243   6.868   3.251
    1   AR   Ar   55   5.976   5.173   3.208
    1   AR   Ar   56   0.211   7.106   2.057
    1   AR   Ar   57   6.527   3.158   3.484
    1   AR   Ar   58   6.833   5.951   3.695
    1   AR   Ar   59   1.841   5.503   5.816
    1   AR   Ar   60   0.540   6.505   4.146
    1   AR   Ar   61   5.884   5.529   5.650
    1   AR   Ar   62   0.667   5.748   5.152
    1   AR   Ar   63   1.937   6.513   6.396
    1   AR   Ar   64   0.857   6.819   5.930
    1   AR   Ar   65   3.765   0.030   0.421
    1   AR   Ar   66   1.379   0.993   1.040
    1   AR   Ar   67   3.643   6.187  -0.514
    1   AR   Ar   68   3.191   1.714  -0.977
    1   AR   Ar   69   2.824   0.936   0.944
    1   AR   Ar   70   0.899   1.254   2.085
    1   AR   Ar   71   3.005   0.825   2.910
    1   AR   Ar   72   3.349   0.252   1.854
    1   AR   Ar   73   2.367   0.127   3.607
    1   AR   Ar   74   2.321   0.916   4.463
    1   AR   Ar   75   3.599   1.045   5.192
    1   AR   Ar   76   2.474   1.083   2.039
    1   AR   Ar   77   2.306   6.439   5.429
    1   AR   Ar   78   1.615   0.440   6.206
    1   AR   Ar   79   3.191   5.962   6.973
    1   AR   Ar   80   2.862   5.688   5.733
    1   AR   Ar   81   2.314   1.024  -0.078
    1   AR   Ar   82   6.840   3.936  -0.805
    1   AR   Ar   83   1.778   1.885   0.611
    1   AR   Ar   84   0.506   3.318  -1.414
    1   AR   Ar   85   0.240   2.440  -0.471
    1   AR   Ar   86   1.975   3.077   1.494
    1   AR   Ar   87   2.129   2.041   1.564
    1   AR   Ar   88   3.816   3.708   1.661
    1   AR   Ar   89   0.815   3.117   2.315
    1   AR   Ar   90   2.998   1.662   4.584
    1   AR   Ar   91   1.488   2.211   3.599
    1   AR   Ar   92   1.373   2.016   2.450
    1   AR   Ar   93   2.100   1.720   5.763
    1   AR   Ar   94   0.574   0.871   8.972
    1   AR   Ar   95   3.510   6.541   6.179
    1   AR   Ar   96   2.866   0.748   5.993
    1   AR   Ar   97   3.870   2.618  -0.997
    1   AR   Ar   98   2.929   4.833   1.806
    1   AR   Ar   99   6.823   2.688  -1.506
    1   AR   Ar  100   1.730   3.247  -0.349
    1   AR   Ar  101   2.555   4.117   1.061
    1   AR   Ar  102   2.664   3.152   3.524
    1   AR   Ar  103   1.028   4.993   0.176
    1   AR   Ar  104   2.544   2.593  -0.580
    1   AR   Ar  105   1.786   3.021   2.913
    1   AR   Ar  106   2.236   3.010   4.639
    1   AR   Ar  107   1.888   3.975   5.285
    1   AR   Ar  108   3.723   2.836   4.474
    1   AR   Ar  109   2.167   4.254   3.541
    1   AR   Ar  110   1.340   4.573   6.098
    1   AR   Ar  111   4.070   4.293   6.769
    1   AR   Ar  112   0.767   5.005   7.489
    1   AR   Ar  113   2.540   4.694  -0.008
    1   AR   Ar  114   2.931   4.820  -1.137
    1   AR   Ar  115   2.771   3.831  -0.449
    1   AR   Ar  116   4.633   6.009  -0.437
    1   AR   Ar  117   0.640   5.547   3.697
    1   AR   Ar  118   0.371   6.933   3.049
    1   AR   Ar  119   2.465   3.950   2.490
    1   AR   Ar  120   1.204   5.222   2.765
    1   AR   Ar  121   6.931   4.255   4.253
    1   AR   Ar  122   2.800   5.985   4.611
    1   AR   Ar  123   2.548   4.765   4.989
    1   AR   Ar  124   2.095   5.646   1.982
    1   AR   Ar  125   0.797   4.211   5.018
    1   AR   Ar  126   0.379   0.026   4.941
    1   AR   Ar  127   3.520   4.902   7.763
    1   AR   Ar  128   2.228   5.361   6.734
    1   AR   Ar  129   1.658   0.255   2.385
    1   AR   Ar  130   3.334   1.354  -3.586
    1   AR   Ar  131   4.623   6.916   0.753
    1   AR   Ar  132   0.971   2.307  -1.352
    1   AR   Ar  133   3.919   0.100   3.348
    1   AR   Ar  134   4.375   1.069   3.341
    1   AR   Ar  135   5.066   0.904   2.654
    1   AR   Ar  136   4.569   7.109   1.947
    1   AR   Ar  137   3.106   6.278   3.623
    1   AR   Ar  138   5.052   1.112   4.929
    1   AR   Ar  139   5.919   1.802   5.040
    1   AR   Ar  140   4.208   0.815   4.332
    1   AR   Ar  141   3.855   6.580   4.496
    1   AR   Ar  142   4.139   0.091   5.423
    1   AR   Ar  143   5.887   6.822   5.656
    1   AR   Ar  144   4.770   0.395   6.183
    1   AR   Ar  145   4.087   4.028   0.453
    1   AR   Ar  146   4.104   2.432   1.725
    1   AR   Ar  147   5.813   1.983  -0.633
    1   AR   Ar  148   4.684   4.042  -2.630
    1   AR   Ar  149   3.064   1.912   1.349
    1   AR   Ar  150   2.484   1.988   2.718
    1   AR   Ar  151   3.178   2.095   3.691
    1   AR   Ar  152   2.852   2.970   0.352
    1   AR   Ar  153   3.253   0.824   3.939
    1   AR   Ar  154   4.120   1.890   4.644
    1   AR   Ar  155   5.672   0.952   5.679
    1   AR   Ar  156   3.003   4.163   4.321
    1   AR   Ar  157   3.130   2.832   5.875
    1   AR   Ar  158   1.034   2.553   6.811
    1   AR   Ar  159   3.438   1.877   6.099
    1   AR   Ar  160   3.235   2.333   7.193
    1   AR   Ar  161   5.204   2.313   1.159
    1   AR   Ar  162   4.555   4.834  -0.072
    1   AR   Ar  163   5.367   2.792  -0.011
    1   AR   Ar  164   4.178   5.066   1.603
    1   AR   Ar  165   3.031   3.214   1.335
    1   AR   Ar  166   2.828   5.266   3.882
    1   AR   Ar  167   4.473   2.153   2.798
    1   AR   Ar  168   5.185   3.351  -1.082
    1   AR   Ar  169   2.754   2.970   2.321
    1   AR   Ar  170   3.349   3.612   5.054
    1   AR   Ar  171   4.213   4.010   4.305
    1   AR   Ar  172   4.445   5.343   4.275
    1   AR   Ar  173   2.076   3.581   6.932
    1   AR   Ar  174   3.716   4.948   6.078
    1   AR   Ar  175   4.378   3.226   6.058
    1   AR   Ar  176   3.674   4.895   4.928
    1   AR   Ar  177   6.448   5.948  -0.421
    1   AR   Ar  178   2.855   6.023   1.114
    1   AR   Ar  179   4.110   5.704   0.605
    1   AR   Ar  180   3.066   3.244  -2.300
    1   AR   Ar  181   1.594   5.593   0.836
    1   AR   Ar  182   3.071   6.690   2.568
    1   AR   Ar  183   3.761   4.701   2.494
    1   AR   Ar  184   3.916   6.252   1.463
    1   AR   Ar  185   1.597   5.306   4.569
    1   AR   Ar  186   3.705   5.396   3.332
    1   AR   Ar  187   4.164   6.103   2.701
    1   AR   Ar  188   3.234   5.718   2.052
    1   AR   Ar  189   3.156   3.997   6.124
    1   AR   Ar  190   4.811   6.205   5.828
    1   AR   Ar  191   4.656   5.220   5.454
    1   AR   Ar  192   3.827   5.865   5.352
    1   AR   Ar  193   0.443   6.191  -0.157
    1   AR   Ar  194   5.415   4.497  -1.762
    1   AR   Ar  195   6.442   0.501  -0.207
    1   AR   Ar  196   4.789   0.424  -0.638
    1   AR   Ar  197   5.451   1.477   0.437
    1   AR   Ar  198   6.256   1.044   1.141
    1   AR   Ar  199   5.072   1.122   1.528
    1   AR   Ar  200   6.502   1.751   0.316
    1   AR   Ar  201   5.071   6.896   3.212
    1   AR   Ar  202   5.203   2.284   4.188
    1   AR   Ar  203   6.332   6.231   4.802
    1   AR   Ar  204   5.155   0.597   3.831
    1   AR   Ar  205   6.099   0.774   3.412
    1   AR   Ar  206   5.059   0.105   4.977
    1   AR   Ar  207   6.840   0.382   5.889
    1   AR   Ar  208   6.865   0.223   3.896
    1   AR   Ar  209   5.060   2.445  -1.747
    1   AR   Ar  210   4.110   0.862   1.129
    1   AR   Ar  211   6.487   3.343   0.284
    1   AR   Ar  212   6.251   3.851  -1.677
    1   AR   Ar  213   3.474   1.987   2.474
    1   AR   Ar  214   3.787   3.250   2.571
    1   AR   Ar  215   6.228   2.249   1.620
    1   AR   Ar  216   6.673   3.780   1.224
    1   AR   Ar  217   4.280   3.055   3.534
    1   AR   Ar  218   4.500   2.771   5.206
    1   AR   Ar  219   5.273   1.653   3.366
    1   AR   Ar  220   5.320   2.683   2.712
    1   AR   Ar  221   6.388   0.435   4.888
    1   AR   Ar  222   4.454   1.537   5.671
    1   AR   Ar  223   6.969   0.755   6.822
    1   AR   Ar  224   5.499   2.665   5.708
    1   AR   Ar  225   5.775   5.503   0.553
    1   AR   Ar  226   4.867   4.025   2.533
    1   AR   Ar  227   6.685   4.921   0.444
    1   AR   Ar  228   5.011   5.796   1.324
    1   AR   Ar  229   5.855   4.248  -0.211
    1   AR   Ar  230   4.474   4.644   3.556
    1   AR   Ar  231   6.249   2.134   3.200
    1   AR   Ar  232   4.541   2.982   0.626
    1   AR   Ar  233   6.429   2.678   4.318
    1   AR   Ar  234   0.144   3.263   4.635
    1   AR   Ar  235   0.356   2.302   4.106
    1   AR   Ar  236   5.339   4.393   4.600
    1   AR   Ar  237   5.874   3.472   4.514
    1   AR   Ar  238   4.513   4.147   5.585
    1   AR   Ar  239   7.087   3.876   9.153
    1   AR   Ar  240   6.922   4.009   5.750
    1   AR   Ar  241   0.392   0.075   0.152
    1   AR   Ar  242   5.031   4.764   1.019
    1   AR   Ar  243   6.197   3.615   2.521
    1   AR   Ar  244   0.554   4.769  -1.204
    1   AR   Ar  245   5.519   0.189   1.435
    1   AR   Ar  246   6.089   5.851   1.589
    1   AR   Ar  247   5.520   3.701   0.897
    1   AR   Ar  248   5.706   6.596   0.744
    1   AR   Ar  249   4.924   5.472   2.351
    1   AR   Ar  250   5.211   6.123   4.861
    1   AR   Ar  251   5.935   5.354   4.350
    1   AR   Ar  252   5.230   5.891   3.518
    1   AR   Ar  253   5.598   4.379   5.859
    1   AR   Ar  254   4.888   5.062   6.409
    1   AR   Ar  255   5.056   3.223   7.516
    1   AR   Ar  256   5.675   6.795   4.019
    7.12000  7.12000 12.00000
Argon-slab step 2115
  256
    1   AR   Ar    1   0.018   1.502  -0.473
    1   AR   Ar    2   6.694   7.065   1.114
    1   AR   Ar    3   0.729   0.028   1.088
    1   AR   Ar    4   1.514   6.926   0.405
    1   AR   Ar    5   6.912   6.132   0.856
    1   AR   Ar    6   6.915   0.789   2.590
    1   AR   Ar    7   6.920   5.027   3.050
    1   AR   Ar    8   6.343   6.831   2.087
    1   AR   Ar    9   0.912   0.451   4.068
    1   AR   Ar   10   1.249   1.567   4.516
    1   AR   Ar   11   3.014   0.053   4.938
    1   AR   Ar   12   1.350   1.007   3.095
    1   AR   Ar   13   6.811   1.500   5.349
    1   AR   Ar   14   1.256   1.275   6.798
    1   AR   Ar   15   6.677   0.151   9.404
    1   AR   Ar   16   0.663   1.009   5.302
    1   AR   Ar   17   0.980   1.333  -0.154
    1   AR   Ar   18   6.021   3.044  -0.646
    1   AR   Ar   19   1.157   2.427   1.474
    1   AR   Ar   20   5.968   3.945  -2.624
    1   AR   Ar   21   6.012   0.931   2.167
    1   AR   Ar   22   7.075   1.896   2.145
    1   AR   Ar   23   0.197   1.015   0.500
    1   AR   Ar   24   0.251   2.177   1.134
    1   AR   Ar   25   0.379   1.392   3.214
    1   AR   Ar   26   6.411   1.648   4.094
    1   AR   Ar   27   2.236   1.377   3.466
    1   AR   Ar   28   1.126   2.635   4.654
    1   AR   Ar   29   5.509   1.506   6.675
    1   AR   Ar   30   0.998   2.180   5.876
    1   AR   Ar   31   0.488   6.847   6.931
    1   AR   Ar   32   1.978   3.009   5.874
    1   AR   Ar   33   1.699   4.806  -0.711
    1   AR   Ar   34   0.265   6.086   2.574
    1   AR   Ar   35   6.729   5.005   1.508
    1   AR   Ar   36   0.155   7.002  -3.242
    1   AR   Ar   37   6.953   3.050   2.160
    1   AR   Ar   38   0.087   4.140   2.085
    1   AR   Ar   39   1.362   4.127   2.706
    1   AR   Ar   40   1.453   3.959   1.670
    1   AR   Ar   41   0.138   2.463   3.010
    1   AR   Ar   42   6.890   5.173   4.926
    1   AR   Ar   43   6.607   2.617   5.840
    1   AR   Ar   44   0.648   4.045   3.491
    1   AR   Ar   45   0.715   3.295   5.638
    1   AR   Ar   46   0.678   5.404   6.371
    1   AR   Ar   47   6.138   3.360   6.350
    1   AR   Ar   48   6.325   6.239   6.371
    1   AR   Ar   49   6.764   6.788  -2.181
    1   AR   Ar   50   5.916   4.718   2.249
    1   AR   Ar   51   0.858   4.888   1.368
    1   AR   Ar   52   6.097   4.965  -1.000
    1   AR   Ar   53   5.734   6.209   2.607
    1   AR   Ar   54   6.241   6.876   3.210
    1   AR   Ar   55   5.935   5.152   3.240
    1   AR   Ar   56   0.201   7.096   2.045
    1   AR   Ar   57   6.549   3.151   3.461
    1   AR   Ar   58   6.827   5.933   3.662
    1   AR   Ar   59   1.837   5.506   5.819
    1   AR   Ar   60   0.566   6.510   4.141
    1   AR   Ar   61   5.880   5.513   5.634
    1   AR   Ar   62   0.673   5.742   5.172
    1   AR   Ar   63   1.985   6.481   6.399
    1   AR   Ar   64   0.835   6.835   5.929
    1   AR   Ar   65   3.772   7.094   0.374
    1   AR   Ar   66   1.393   1.040   1.025
    1   AR   Ar   67   3.667   6.215  -0.493
    1   AR   Ar   68   3.191   1.720  -0.939
    1   AR   Ar   69   2.825   0.951   0.948
    1   AR   Ar   70   0.892   1.236   2.117
    1   AR   Ar   71   3.014   0.825   2.925
    1   AR   Ar   72   3.333   0.278   1.838
    1   AR   Ar   73   2.395   0.117   3.616
    1   AR   Ar   74   2.344   0.900   4.466
    1   AR   Ar   75   3.598   1.044   5.196
    1   AR   Ar   76   2.461   1.093   2.041
    1   AR   Ar   77   2.297   6.441   5.444
    1   AR   Ar   78   1.636   0.403   6.202
    1   AR   Ar   79   3.195   5.957   6.973
    1   AR   Ar   80   2.885   5.659   5.712
    1   AR   Ar   81   2.328   1.063  -0.099
    1   AR   Ar   82   6.839   3.941  -0.791
    1   AR   Ar   83   1.782   1.891   0.647
    1   AR   Ar   84   0.542   3.332  -1.391
    1   AR   Ar   85   0.268   2.431  -0.497
    1   AR   Ar   86   1.983   3.093   1.491
    1   AR   Ar   87   2.115   2.040   1.536
    1   AR   Ar   88   3.784   3.712   1.651
    1   AR   Ar   89   0.842   3.143   2.301
    1   AR   Ar   90   3.011   1.691   4.602
    1   AR   Ar   91   1.459   2.193   3.579
    1   AR   Ar   92   1.384   2.028   2.454
    1   AR   Ar   93   2.103   1.689   5.777
    1   AR   Ar   94   0.554   0.829   9.001
    1   AR   Ar   95   3.548   6.543   6.202
    1   AR   Ar   96   2.871   0.759   6.034
    1   AR   Ar   97   3.867   2.640  -1.019
    1   AR   Ar   98   2.925   4.870   1.802
    1   AR   Ar   99   6.844   2.670  -1.499
    1   AR   Ar  100   1.719   3.229  -0.368
    1   AR   Ar  101   2.579   4.130   1.066
    1   AR   Ar  102   2.709   3.145   3.553
    1   AR   Ar  103   1.039   4.969   0.170
    1   AR   Ar  104   2.560   2.589  -0.566
    1   AR   Ar  105   1.814   2.992   2.889
    1   AR   Ar  106   2.240   3.007   4.637
    1   AR   Ar  107   1.884   3.961   5.318
    1   AR   Ar  108   3.742   2.871   4.479
    1   AR   Ar  109   2.174   4.273   3.556
    1   AR   Ar  110   1.341   4.573   6.109
    1   AR   Ar  111   4.073   4.278   6.768
    1   AR   Ar  112   0.775   5.026   7.497
    1   AR   Ar  113   2.557   4.683  -0.009
    1   AR   Ar  114   2.954   4.784  -1.147
    1   AR   Ar  115   2.762   3.821  -0.452
    1   AR   Ar  116   4.612   5.994  -0.476
    1   AR   Ar  117   0.651   5.545   3.695
    1   AR   Ar  118   0.330   6.977   3.050
    1   AR   Ar  119   2.444   3.934   2.478
    1   AR   Ar  120   1.200   5.206   2.788
    1   AR   Ar  121   6.925   4.230   4.251
    1   AR   Ar  122   2.785   5.982   4.610
    1   AR   Ar  123   2.544   4.752   4.980
    1   AR   Ar  124   2.051   5.631   1.987
    1   AR   Ar  125   0.827   4.197   5.001
    1   AR   Ar  126   0.374   0.013   4.964
    1   AR   Ar  127   3.543   4.884   7.750
    1   AR   Ar  128   2.227   5.332   6.732
    1   AR   Ar  129   1.666   0.284   2.375
    1   AR   Ar  130   3.373   1.344  -3.601
    1   AR   Ar  131   4.634   6.923   0.770
    1   AR   Ar  132   1.012   2.296  -1.327
    1   AR   Ar  133   3.902   0.092   3.367
    1   AR   Ar  134   4.346   1.067   3.343
    1   AR   Ar  135   5.043   0.905   2.659
    1   AR   Ar  136   4.611   0.020   1.935
    1   AR   Ar  137   3.131   6.297   3.625
    1   AR   Ar  138   5.048   1.085   4.924
    1   AR   Ar  139   5.888   1.819   5.048
    1   AR   Ar  140   4.225   0.814   4.340
    1   AR   Ar  141   3.878   6.579   4.501
    1   AR   Ar  142   4.119   0.075   5.402
    1   AR   Ar  143   5.854   6.822   5.664
    1   AR   Ar  144   4.773   0.412   6.140
    1   AR   Ar  145   4.134   4.035   0.455
    1   AR   Ar  146   4.114   2.412   1.705
    1   AR   Ar  147   5.808   1.966  -0.666
    1   AR   Ar  148   4.664   4.028  -2.626
    1   AR   Ar  149   3.081   1.919   1.390
    1   AR   Ar  150   2.455   1.980   2.714
    1   AR   Ar  151   3.167   2.095   3.675
    1   AR   Ar  152   2.853   2.955   0.366
    1   AR   Ar  153   3.265   0.835   3.931
    1   AR   Ar  154   4.104   1.885   4.601
    1   AR   Ar  155   5.668   0.946   5.702
    1   AR   Ar  156   3.001   4.159   4.295
    1   AR   Ar  157   3.113   2.794   5.867
    1   AR   Ar  158   1.002   2.560   6.810
    1   AR   Ar  159   3.408   1.859   6.093
    1   AR   Ar  160   3.209   2.328   7.163
    1   AR   Ar  161   5.189   2.351   1.144
    1   AR   Ar  162   4.544   4.848  -0.045
    1   AR   Ar  163   5.368   2.810   0.001
    1   AR   Ar  164   4.164   5.082   1.594
    1   AR   Ar  165   3.024   3.216   1.294
    1   AR   Ar  166   2.856   5.261   3.900
    1   AR   Ar  167   4.461   2.126   2.791
    1   AR   Ar  168   5.185   3.322  -1.131
    1   AR   Ar  169   2.750   2.969   2.331
    1   AR   Ar  170   3.369   3.579   5.064
    1   AR   Ar  171   4.208   3.951   4.309
    1   AR   Ar  172   4.457   5.350   4.302
    1   AR   Ar  173   2.081   3.565   6.919
    1   AR   Ar  174   3.692   4.946   6.094
    1   AR   Ar  175   4.371   3.228   6.066
    1   AR   Ar  176   3.679   4.906   4.935
    1   AR   Ar  177   6.438   5.940  -0.422
    1   AR   Ar  178   2.819   6.023   1.074
    1   AR   Ar  179   4.143   5.716   0.583
    1   AR   Ar  180   3.027   3.258  -2.268
    1   AR   Ar  181   1.593   5.590   0.853
    1   AR   Ar  182   3.081   6.667   2.595
    1   AR   Ar  183   3.772   4.688   2.510
    1   AR   Ar  184   3.909   6.251   1.440
    1   AR   Ar  185   1.630   5.296   4.525
    1   AR   Ar  186   3.734   5.400   3.293
    1   AR   Ar  187   4.156   6.106   2.658
    1   AR   Ar  188   3.210   5.755   2.033
    1   AR   Ar  189   3.140   3.999   6.124
    1   AR   Ar  190   4.805   6.233   5.815
    1   AR   Ar  191   4.674   5.216   5.424
    1   AR   Ar  192   3.853   5.857   5.359
    1   AR   Ar  193   0.465   6.207  -0.190
    1   AR   Ar  194   5.418   4.475  -1.750
    1   AR   Ar  195   6.445   0.503  -0.218
    1   AR   Ar  196   4.814   0.366  -0.631
    1   AR   Ar  197   5.447   1.496   0.449
    1   AR   Ar  198   6.266   1.057   1.133
    1   AR   Ar  199   5.098   1.112   1.538
    1   AR   Ar  200   6.532   1.734   0.286
    1   AR   Ar  201   5.065   6.883   3.197
    1   AR   Ar  202   5.217   2.254   4.202
    1   AR   Ar  203   6.357   6.205   4.783
    1   AR   Ar  204   5.190   0.606   3.832
    1   AR   Ar  205   6.089   0.776   3.424
    1   AR   Ar  206   5.073   0.097   4.983
    1   AR   Ar  207   6.870   0.373   5.879
    1   AR   Ar  208   6.864   0.243   3.866
    1   AR   Ar  209   5.094   2.458  -1.779
    1   AR   Ar  210   4.097   0.861   1.117
    1   AR   Ar  211   6.499   3.367   0.304
    1   AR   Ar  212   6.259   3.847  -1.681
    1   AR   Ar  213   3.481   1.993   2.487
    1   AR   Ar  214   3.816   3.216   2.581
    1   AR   Ar  215   6.228   2.241   1.591
    1   AR   Ar  216   6.705   3.820   1.221
    1   AR   Ar  217   4.255   3.062   3.564
    1   AR   Ar  218   4.495   2.751   5.216
    1   AR   Ar  219   5.280   1.616   3.356
    1   AR   Ar  220   5.322   2.695   2.705
    1   AR   Ar  221   6.420   0.421   4.867
    1   AR   Ar  222   4.453   1.519   5.692
    1   AR   Ar  223   6.997   0.778   6.812
    1   AR   Ar  224   5.498   2.693   5.721
    1   AR   Ar  225   5.772   5.494   0.558
    1   AR   Ar  226   4.869   4.032   2.538
    1   AR   Ar  227   6.730   4.940   0.499
    1   AR   Ar  228   5.026   5.813   1.335
    1   AR   Ar  229   5.860   4.261  -0.244
    1   AR   Ar  230   4.477   4.642   3.509
    1   AR   Ar  231   6.250   2.128   3.211
    1   AR   Ar  232   4.514   2.951   0.618
    1   AR   Ar  233   6.425   2.697   4.327
    1   AR   Ar  234   0.134   3.244   4.631
    1   AR   Ar  235   0.356   2.302   4.126
    1   AR   Ar  236   5.313   4.424   4.607
    1   AR   Ar  237   5.861   3.477   4.537
    1   AR   Ar  238   4.502   4.154   5.588
    1   AR   Ar  239   7.115   3.876   9.150
    1   AR   Ar  240   6.911   3.999   5.737
    1   AR   Ar  241   0.371   0.065   0.178
    1   AR   Ar  242   5.054   4.752   0.988
    1   AR   Ar  243   6.178   3.655   2.533
    1   AR   Ar  244   0.565   4.798  -1.191
    1   AR   Ar  245   5.532   0.195   1.457
    1   AR   Ar  246   6.081   5.822   1.583
    1   AR   Ar  247   5.507   3.704   0.915
    1   AR   Ar  248   5.733   6.588   0.747
    1   AR   Ar  249   4.915   5.504   2.380
    1   AR   Ar  250   5.207   6.091   4.890
    1   AR   Ar  251   5.943   5.363   4.320
    1   AR   Ar  252   5.214   5.863   3.528
    1   AR   Ar  253   5.593   4.358   5.867
    1   AR   Ar  254   4.844   5.091   6.389
    1   AR   Ar  255   5.058   3.214   7.532
    1   AR   Ar  256   5.651   6.831   4.028
    7.12000  7.12000 12.00000
Argon-slab step 2120
  256
    1   AR   Ar    1   0.011   1.525  -0.473
    1   AR   Ar    2   6.715   7.030   1.152
    1   AR   Ar    3   0.721   0.021   1.091
    1   AR   Ar    4   1.495   6.927   0.403
    1   AR   Ar    5   6.928   6.152   0.860
    1   AR   Ar    6   6.909   0.760   2.588
    1   AR   Ar    7   6.904   4.995   3.069
    1   AR   Ar    8   6.333   6.852   2.063
    1   AR   Ar    9   0.893   0.472   4.051
    1   AR   Ar   10   1.247   1.582   4.522
    1   AR   Ar   11   3.020   0.083   4.930
    1   AR   Ar   12   1.385   1.040   3.097
    1   AR   Ar   13   6.746   1.499   5.361
    1   AR   Ar   14   1.276   1.259   6.803
    1   AR   Ar   15   6.670   0.149   9.435
    1   AR   Ar   16   0.641   0.977   5.285
    1   AR   Ar   17   0.984   1.342  -0.165
    1   AR   Ar   18   5.994   3.027  -0.661
    1   AR   Ar   19   1.165   2.435   1.491
    1   AR   Ar   20   5.936   3.986  -2.643
    1   AR   Ar   21   5.994   0.919   2.143
    1   AR   Ar   22   7.076   1.903   2.140
    1   AR   Ar   23   0.196   1.045   0.489
    1   AR   Ar   24   0.217   2.164   1.114
    1   AR   Ar   25   0.370   1.379   3.209
    1   AR   Ar   26   6.407   1.641   4.096
    1   AR   Ar   27   2.250   1.385   3.479
    1   AR   Ar   28   1.125   2.627   4.684
    1   AR   Ar   29   5.500   1.488   6.642
    1   AR   Ar   30   0.984   2.175   5.850
    1   AR   Ar   31   0.468   6.847   6.941
    1   AR   Ar   32   2.003   2.995   5.846
    1   AR   Ar   33   1.669   4.788  -0.696
    1   AR   Ar   34   0.265   6.100   2.598
    1   AR   Ar   35   6.716   5.019   1.515
    1   AR   Ar   36   0.151   6.992  -3.253
    1   AR   Ar   37   6.934   3.051   2.196
    1   AR   Ar   38   0.084   4.160   2.083
    1   AR   Ar   39   1.347   4.123   2.713
    1   AR   Ar   40   1.447   3.956   1.675
    1   AR   Ar   41   0.116   2.469   3.003
    1   AR   Ar   42   6.899   5.173   4.943
    1   AR   Ar   43   6.612   2.608   5.849
    1   AR   Ar   44   0.635   4.057   3.498
    1   AR   Ar   45   0.708   3.280   5.673
    1   AR   Ar   46   0.700   5.441   6.348
    1   AR   Ar   47   6.126   3.298   6.341
    1   AR   Ar   48   6.339   6.230   6.356
    1   AR   Ar   49   6.746   6.801  -2.191
    1   AR   Ar   50   5.885   4.726   2.269
    1   AR   Ar   51   0.882   4.867   1.394
    1   AR   Ar   52   6.094   4.950  -1.019
    1   AR   Ar   53   5.735   6.225   2.587
    1   AR   Ar   54   6.246   6.885   3.167
    1   AR   Ar   55   5.888   5.131   3.273
    1   AR   Ar   56   0.235   7.091   2.071
    1   AR   Ar   57   6.572   3.152   3.428
    1   AR   Ar   58   6.813   5.919   3.629
    1   AR   Ar   59   1.827   5.509   5.813
    1   AR   Ar   60   0.591   6.514   4.135
    1   AR   Ar   61   5.875   5.497   5.616
    1   AR   Ar   62   0.681   5.736   5.193
    1   AR   Ar   63   2.032   6.448   6.410
    1   AR   Ar   64   0.813   6.849   5.924
    1   AR   Ar   65   3.762   7.041   0.321
    1   AR   Ar   66   1.402   1.079   1.014
    1   AR   Ar   67   3.676   6.247  -0.472
    1   AR   Ar   68   3.185   1.718  -0.908
    1   AR   Ar   69   2.827   0.965   0.952
    1   AR   Ar   70   0.879   1.209   2.144
    1   AR   Ar   71   3.024   0.824   2.937
    1   AR   Ar   72   3.318   0.306   1.821
    1   AR   Ar   73   2.425   0.108   3.624
    1   AR   Ar   74   2.363   0.882   4.470
    1   AR   Ar   75   3.595   1.043   5.202
    1   AR   Ar   76   2.447   1.102   2.042
    1   AR   Ar   77   2.285   6.449   5.450
    1   AR   Ar   78   1.658   0.368   6.197
    1   AR   Ar   79   3.197   5.948   6.974
    1   AR   Ar   80   2.913   5.624   5.694
    1   AR   Ar   81   2.341   1.104  -0.119
    1   AR   Ar   82   6.839   3.947  -0.774
    1   AR   Ar   83   1.784   1.901   0.663
    1   AR   Ar   84   0.580   3.348  -1.366
    1   AR   Ar   85   0.299   2.439  -0.524
    1   AR   Ar   86   1.994   3.110   1.488
    1   AR   Ar   87   2.100   2.039   1.531
    1   AR   Ar   88   3.763   3.727   1.642
    1   AR   Ar   89   0.838   3.117   2.290
    1   AR   Ar   90   2.990   1.745   4.597
    1   AR   Ar   91   1.430   2.174   3.559
    1   AR   Ar   92   1.400   2.050   2.463
    1   AR   Ar   93   2.106   1.659   5.790
    1   AR   Ar   94   0.533   0.786   9.029
    1   AR   Ar   95   3.587   6.547   6.219
    1   AR   Ar   96   2.876   0.771   6.073
    1   AR   Ar   97   3.864   2.662  -1.041
    1   AR   Ar   98   2.915   4.890   1.793
    1   AR   Ar   99   6.863   2.651  -1.491
    1   AR   Ar  100   1.708   3.212  -0.386
    1   AR   Ar  101   2.593   4.142   1.059
    1   AR   Ar  102   2.755   3.139   3.582
    1   AR   Ar  103   1.048   4.944   0.165
    1   AR   Ar  104   2.577   2.583  -0.556
    1   AR   Ar  105   1.842   2.963   2.864
    1   AR   Ar  106   2.245   3.005   4.636
    1   AR   Ar  107   1.880   3.946   5.351
    1   AR   Ar  108   3.760   2.901   4.476
    1   AR   Ar  109   2.166   4.269   3.567
    1   AR   Ar  110   1.342   4.572   6.119
    1   AR   Ar  111   4.078   4.259   6.769
    1   AR   Ar  112   0.784   5.047   7.504
    1   AR   Ar  113   2.567   4.686  -0.007
    1   AR   Ar  114   2.976   4.748  -1.155
    1   AR   Ar  115   2.755   3.800  -0.459
    1   AR   Ar  116   4.605   5.975  -0.512
    1   AR   Ar  117   0.667   5.538   3.693
    1   AR   Ar  118   0.290   7.025   3.061
    1   AR   Ar  119   2.421   3.923   2.465
    1   AR   Ar  120   1.184   5.213   2.768
    1   AR   Ar  121   6.919   4.205   4.250
    1   AR   Ar  122   2.772   5.982   4.614
    1   AR   Ar  123   2.538   4.745   4.977
    1   AR   Ar  124   2.023   5.599   1.981
    1   AR   Ar  125   0.857   4.184   4.984
    1   AR   Ar  126   0.368   0.005   4.980
    1   AR   Ar  127   3.566   4.866   7.736
    1   AR   Ar  128   2.230   5.303   6.736
    1   AR   Ar  129   1.675   0.312   2.364
    1   AR   Ar  130   3.398   1.348  -3.584
    1   AR   Ar  131   4.661   6.926   0.796
    1   AR   Ar  132   1.052   2.285  -1.302
    1   AR   Ar  133   3.884   0.081   3.387
    1   AR   Ar  134   4.307   1.071   3.347
    1   AR   Ar  135   5.026   0.899   2.652
    1   AR   Ar  136   4.649   0.051   1.925
    1   AR   Ar  137   3.159   6.317   3.627
    1   AR   Ar  138   5.043   1.070   4.911
    1   AR   Ar  139   5.852   1.840   5.053
    1   AR   Ar  140   4.242   0.807   4.352
    1   AR   Ar  141   3.902   6.577   4.506
    1   AR   Ar  142   4.092   0.057   5.380
    1   AR   Ar  143   5.819   6.825   5.666
    1   AR   Ar  144   4.779   0.429   6.097
    1   AR   Ar  145   4.179   4.038   0.461
    1   AR   Ar  146   4.119   2.386   1.676
    1   AR   Ar  147   5.804   1.948  -0.697
    1   AR   Ar  148   4.646   4.015  -2.621
    1   AR   Ar  149   3.109   1.926   1.431
    1   AR   Ar  150   2.426   1.978   2.703
    1   AR   Ar  151   3.157   2.096   3.653
    1   AR   Ar  152   2.852   2.938   0.370
    1   AR   Ar  153   3.276   0.846   3.925
    1   AR   Ar  154   4.091   1.877   4.558
    1   AR   Ar  155   5.671   0.936   5.730
    1   AR   Ar  156   3.001   4.154   4.259
    1   AR   Ar  157   3.100   2.770   5.858
    1   AR   Ar  158   0.971   2.570   6.816
    1   AR   Ar  159   3.380   1.831   6.086
    1   AR   Ar  160   3.183   2.323   7.132
    1   AR   Ar  161   5.177   2.386   1.131
    1   AR   Ar  162   4.536   4.866  -0.020
    1   AR   Ar  163   5.345   2.824   0.013
    1   AR   Ar  164   4.150   5.100   1.584
    1   AR   Ar  165   3.012   3.210   1.263
    1   AR   Ar  166   2.882   5.248   3.916
    1   AR   Ar  167   4.448   2.097   2.787
    1   AR   Ar  168   5.179   3.297  -1.183
    1   AR   Ar  169   2.749   2.960   2.340
    1   AR   Ar  170   3.386   3.551   5.086
    1   AR   Ar  171   4.201   3.893   4.317
    1   AR   Ar  172   4.469   5.360   4.332
    1   AR   Ar  173   2.086   3.549   6.904
    1   AR   Ar  174   3.668   4.949   6.105
    1   AR   Ar  175   4.361   3.234   6.086
    1   AR   Ar  176   3.682   4.913   4.941
    1   AR   Ar  177   6.429   5.932  -0.421
    1   AR   Ar  178   2.783   6.022   1.034
    1   AR   Ar  179   4.178   5.726   0.559
    1   AR   Ar  180   2.988   3.271  -2.236
    1   AR   Ar  181   1.593   5.589   0.871
    1   AR   Ar  182   3.092   6.645   2.623
    1   AR   Ar  183   3.773   4.664   2.505
    1   AR   Ar  184   3.911   6.293   1.430
    1   AR   Ar  185   1.662   5.286   4.482
    1   AR   Ar  186   3.755   5.415   3.277
    1   AR   Ar  187   4.143   6.118   2.613
    1   AR   Ar  188   3.192   5.805   2.024
    1   AR   Ar  189   3.125   4.000   6.123
    1   AR   Ar  190   4.811   6.228   5.806
    1   AR   Ar  191   4.702   5.230   5.419
    1   AR   Ar  192   3.880   5.855   5.365
    1   AR   Ar  193   0.487   6.219  -0.223
    1   AR   Ar  194   5.417   4.453  -1.738
    1   AR   Ar  195   6.449   0.507  -0.226
    1   AR   Ar  196   4.839   0.308  -0.622
    1   AR   Ar  197   5.443   1.514   0.462
    1   AR   Ar  198   6.276   1.070   1.124
    1   AR   Ar  199   5.123   1.109   1.549
    1   AR   Ar  200   6.563   1.705   0.308
    1   AR   Ar  201   5.054   6.871   3.172
    1   AR   Ar  202   5.193   2.283   4.194
    1   AR   Ar  203   6.384   6.182   4.764
    1   AR   Ar  204   5.217   0.619   3.839
    1   AR   Ar  205   6.084   0.786   3.429
    1   AR   Ar  206   5.091   0.078   4.987
    1   AR   Ar  207   6.899   0.361   5.864
    1   AR   Ar  208   6.870   0.264   3.842
    1   AR   Ar  209   5.129   2.470  -1.810
    1   AR   Ar  210   4.084   0.858   1.105
    1   AR   Ar  211   6.510   3.396   0.330
    1   AR   Ar  212   6.272   3.838  -1.673
    1   AR   Ar  213   3.484   1.998   2.498
    1   AR   Ar  214   3.844   3.179   2.593
    1   AR   Ar  215   6.226   2.232   1.560
    1   AR   Ar  216   6.735   3.861   1.219
    1   AR   Ar  217   4.232   3.068   3.592
    1   AR   Ar  218   4.493   2.723   5.216
    1   AR   Ar  219   5.290   1.582   3.348
    1   AR   Ar  220   5.332   2.712   2.701
    1   AR   Ar  221   6.450   0.407   4.846
    1   AR   Ar  222   4.453   1.503   5.715
    1   AR   Ar  223   7.027   0.803   6.810
    1   AR   Ar  224   5.496   2.721   5.733
    1   AR   Ar  225   5.768   5.485   0.561
    1   AR   Ar  226   4.870   4.040   2.544
    1   AR   Ar  227   6.776   4.959   0.545
    1   AR   Ar  228   5.039   5.832   1.345
    1   AR   Ar  229   5.864   4.270  -0.274
    1   AR   Ar  230   4.483   4.637   3.458
    1   AR   Ar  231   6.234   2.128   3.203
    1   AR   Ar  232   4.483   2.924   0.610
    1   AR   Ar  233   6.419   2.688   4.339
    1   AR   Ar  234   0.129   3.228   4.631
    1   AR   Ar  235   0.344   2.292   4.133
    1   AR   Ar  236   5.284   4.457   4.615
    1   AR   Ar  237   5.843   3.490   4.562
    1   AR   Ar  238   4.502   4.169   5.590
    1   AR   Ar  239   0.022   3.877   9.147
    1   AR   Ar  240   6.901   3.988   5.722
    1   AR   Ar  241   0.344   0.053   0.190
    1   AR   Ar  242   5.077   4.739   0.957
    1   AR   Ar  243   6.157   3.697   2.546
    1   AR   Ar  244   0.576   4.809  -1.203
    1   AR   Ar  245   5.554   0.179   1.483
    1   AR   Ar  246   6.072   5.797   1.578
    1   AR   Ar  247   5.494   3.706   0.932
    1   AR   Ar  248   5.761   6.576   0.747
    1   AR   Ar  249   4.912   5.529   2.407
    1   AR   Ar  250   5.212   6.063   4.909
    1   AR   Ar  251   5.950   5.371   4.289
    1   AR   Ar  252   5.195   5.835   3.541
    1   AR   Ar  253   5.588   4.338   5.873
    1   AR   Ar  254   4.802   5.117   6.380
    1   AR   Ar  255   5.059   3.204   7.548
    1   AR   Ar  256   5.630   6.860   4.052
    7.12000  7.12000 12.00000
Argon-slab step 2125
  256
    1   AR   Ar    1   7.115   1.504  -0.462
    1   AR   Ar    2   6.734   7.019   1.188
    1   AR   Ar    3   0.716   0.015   1.107
    1   AR   Ar    4   1.491   6.943   0.396
    1   AR   Ar    5   6.948   6.150   0.856
    1   AR   Ar    6   6.903   0.732   2.587
    1   AR   Ar    7   6.894   4.961   3.085
    1   AR   Ar    8   6.323   6.874   2.045
    1   AR   Ar    9   0.872   0.495   4.033
    1   AR   Ar   10   1.246   1.595   4.527
    1   AR   Ar   11   3.038   0.116   4.927
    1   AR   Ar   12   1.415   1.073   3.099
    1   AR   Ar   13   6.688   1.495   5.375
    1   AR   Ar   14   1.296   1.244   6.806
    1   AR   Ar   15   6.669   0.153   9.461
    1   AR   Ar   16   0.619   0.948   5.269
    1   AR   Ar   17   0.994   1.351  -0.175
    1   AR   Ar   18   5.989   3.015  -0.687
    1   AR   Ar   19   1.168   2.438   1.502
    1   AR   Ar   20   5.902   4.028  -2.666
    1   AR   Ar   21   5.981   0.906   2.141
    1   AR   Ar   22   7.077   1.907   2.135
    1   AR   Ar   23   0.197   1.072   0.484
    1   AR   Ar   24   0.179   2.149   1.091
    1   AR   Ar   25   0.320   1.368   3.219
    1   AR   Ar   26   6.405   1.628   4.101
    1   AR   Ar   27   2.271   1.383   3.476
    1   AR   Ar   28   1.128   2.624   4.725
    1   AR   Ar   29   5.490   1.470   6.610
    1   AR   Ar   30   0.991   2.165   5.844
    1   AR   Ar   31   0.447   6.847   6.951
    1   AR   Ar   32   2.027   2.979   5.818
    1   AR   Ar   33   1.656   4.761  -0.698
    1   AR   Ar   34   0.262   6.109   2.620
    1   AR   Ar   35   6.707   5.029   1.537
    1   AR   Ar   36   0.147   6.982  -3.263
    1   AR   Ar   37   6.894   3.054   2.239
    1   AR   Ar   38   0.084   4.180   2.087
    1   AR   Ar   39   1.334   4.119   2.721
    1   AR   Ar   40   1.439   3.956   1.679
    1   AR   Ar   41   0.102   2.472   3.001
    1   AR   Ar   42   6.919   5.193   4.948
    1   AR   Ar   43   6.625   2.589   5.848
    1   AR   Ar   44   0.619   4.068   3.506
    1   AR   Ar   45   0.702   3.264   5.707
    1   AR   Ar   46   0.723   5.478   6.325
    1   AR   Ar   47   6.110   3.249   6.340
    1   AR   Ar   48   6.356   6.219   6.342
    1   AR   Ar   49   6.729   6.815  -2.201
    1   AR   Ar   50   5.854   4.736   2.287
    1   AR   Ar   51   0.905   4.846   1.420
    1   AR   Ar   52   6.094   4.938  -1.041
    1   AR   Ar   53   5.725   6.231   2.567
    1   AR   Ar   54   6.261   6.903   3.142
    1   AR   Ar   55   5.841   5.107   3.302
    1   AR   Ar   56   0.273   7.085   2.086
    1   AR   Ar   57   6.595   3.159   3.394
    1   AR   Ar   58   6.795   5.910   3.597
    1   AR   Ar   59   1.813   5.514   5.801
    1   AR   Ar   60   0.599   6.534   4.123
    1   AR   Ar   61   5.868   5.481   5.596
    1   AR   Ar   62   0.692   5.733   5.214
    1   AR   Ar   63   2.060   6.420   6.434
    1   AR   Ar   64   0.791   6.862   5.919
    1   AR   Ar   65   3.747   6.988   0.268
    1   AR   Ar   66   1.405   1.106   1.008
    1   AR   Ar   67   3.670   6.282  -0.448
    1   AR   Ar   68   3.157   1.686  -0.908
    1   AR   Ar   69   2.828   0.980   0.957
    1   AR   Ar   70   0.862   1.178   2.169
    1   AR   Ar   71   3.034   0.822   2.942
    1   AR   Ar   72   3.304   0.335   1.804
    1   AR   Ar   73   2.457   0.101   3.632
    1   AR   Ar   74   2.395   0.874   4.479
    1   AR   Ar   75   3.592   1.041   5.208
    1   AR   Ar   76   2.433   1.112   2.042
    1   AR   Ar   77   2.277   6.437   5.488
    1   AR   Ar   78   1.681   0.334   6.191
    1   AR   Ar   79   3.196   5.935   6.977
    1   AR   Ar   80   2.939   5.586   5.677
    1   AR   Ar   81   2.354   1.145  -0.138
    1   AR   Ar   82   6.838   3.951  -0.755
    1   AR   Ar   83   1.782   1.919   0.646
    1   AR   Ar   84   0.618   3.365  -1.339
    1   AR   Ar   85   0.334   2.466  -0.550
    1   AR   Ar   86   2.007   3.124   1.486
    1   AR   Ar   87   2.095   2.038   1.555
    1   AR   Ar   88   3.751   3.749   1.638
    1   AR   Ar   89   0.841   3.092   2.281
    1   AR   Ar   90   2.969   1.799   4.598
    1   AR   Ar   91   1.399   2.154   3.539
    1   AR   Ar   92   1.415   2.073   2.474
    1   AR   Ar   93   2.109   1.629   5.804
    1   AR   Ar   94   0.512   0.743   9.058
    1   AR   Ar   95   3.628   6.553   6.230
    1   AR   Ar   96   2.880   0.784   6.111
    1   AR   Ar   97   3.863   2.681  -1.035
    1   AR   Ar   98   2.902   4.898   1.782
    1   AR   Ar   99   6.881   2.633  -1.481
    1   AR   Ar  100   1.697   3.195  -0.405
    1   AR   Ar  101   2.573   4.142   1.011
    1   AR   Ar  102   2.800   3.133   3.610
    1   AR   Ar  103   1.055   4.919   0.161
    1   AR   Ar  104   2.594   2.575  -0.551
    1   AR   Ar  105   1.860   2.957   2.871
    1   AR   Ar  106   2.250   3.003   4.636
    1   AR   Ar  107   1.877   3.931   5.384
    1   AR   Ar  108   3.776   2.918   4.466
    1   AR   Ar  109   2.110   4.265   3.592
    1   AR   Ar  110   1.344   4.570   6.129
    1   AR   Ar  111   4.085   4.236   6.771
    1   AR   Ar  112   0.792   5.068   7.510
    1   AR   Ar  113   2.575   4.695  -0.002
    1   AR   Ar  114   2.997   4.711  -1.161
    1   AR   Ar  115   2.748   3.772  -0.470
    1   AR   Ar  116   4.614   5.951  -0.548
    1   AR   Ar  117   0.686   5.528   3.690
    1   AR   Ar  118   0.255   7.075   3.081
    1   AR   Ar  119   2.396   3.916   2.452
    1   AR   Ar  120   1.165   5.197   2.727
    1   AR   Ar  121   6.912   4.182   4.248
    1   AR   Ar  122   2.760   5.985   4.623
    1   AR   Ar  123   2.532   4.744   4.976
    1   AR   Ar  124   1.995   5.565   1.974
    1   AR   Ar  125   0.884   4.172   4.967
    1   AR   Ar  126   0.365   0.008   4.961
    1   AR   Ar  127   3.589   4.848   7.719
    1   AR   Ar  128   2.236   5.273   6.742
    1   AR   Ar  129   1.684   0.341   2.351
    1   AR   Ar  130   3.422   1.352  -3.566
    1   AR   Ar  131   4.695   6.927   0.826
    1   AR   Ar  132   1.092   2.275  -1.276
    1   AR   Ar  133   3.871   0.072   3.402
    1   AR   Ar  134   4.261   1.080   3.353
    1   AR   Ar  135   5.012   0.885   2.638
    1   AR   Ar  136   4.681   0.080   1.917
    1   AR   Ar  137   3.187   6.337   3.632
    1   AR   Ar  138   5.040   1.067   4.897
    1   AR   Ar  139   5.807   1.865   5.056
    1   AR   Ar  140   4.256   0.795   4.364
    1   AR   Ar  141   3.894   6.587   4.497
    1   AR   Ar  142   4.077   0.042   5.362
    1   AR   Ar  143   5.784   6.829   5.666
    1   AR   Ar  144   4.786   0.448   6.054
    1   AR   Ar  145   4.223   4.036   0.471
    1   AR   Ar  146   4.125   2.361   1.647
    1   AR   Ar  147   5.800   1.930  -0.727
    1   AR   Ar  148   4.630   4.001  -2.616
    1   AR   Ar  149   3.149   1.936   1.457
    1   AR   Ar  150   2.399   1.982   2.685
    1   AR   Ar  151   3.149   2.098   3.623
    1   AR   Ar  152   2.847   2.917   0.358
    1   AR   Ar  153   3.288   0.859   3.924
    1   AR   Ar  154   4.079   1.867   4.516
    1   AR   Ar  155   5.679   0.925   5.758
    1   AR   Ar  156   3.005   4.146   4.221
    1   AR   Ar  157   3.106   2.777   5.854
    1   AR   Ar  158   0.941   2.582   6.824
    1   AR   Ar  159   3.354   1.795   6.080
    1   AR   Ar  160   3.157   2.319   7.099
    1   AR   Ar  161   5.170   2.418   1.121
    1   AR   Ar  162   4.531   4.889   0.002
    1   AR   Ar  163   5.313   2.834   0.038
    1   AR   Ar  164   4.137   5.121   1.572
    1   AR   Ar  165   3.001   3.200   1.251
    1   AR   Ar  166   2.907   5.228   3.930
    1   AR   Ar  167   4.441   2.068   2.784
    1   AR   Ar  168   5.167   3.278  -1.237
    1   AR   Ar  169   2.750   2.949   2.342
    1   AR   Ar  170   3.399   3.535   5.119
    1   AR   Ar  171   4.195   3.837   4.326
    1   AR   Ar  172   4.482   5.372   4.361
    1   AR   Ar  173   2.092   3.533   6.887
    1   AR   Ar  174   3.690   4.921   6.116
    1   AR   Ar  175   4.349   3.242   6.113
    1   AR   Ar  176   3.679   4.930   4.938
    1   AR   Ar  177   6.420   5.923  -0.418
    1   AR   Ar  178   2.747   6.020   0.994
    1   AR   Ar  179   4.214   5.737   0.534
    1   AR   Ar  180   2.949   3.285  -2.204
    1   AR   Ar  181   1.594   5.588   0.890
    1   AR   Ar  182   3.103   6.629   2.653
    1   AR   Ar  183   3.779   4.646   2.485
    1   AR   Ar  184   3.916   6.337   1.422
    1   AR   Ar  185   1.696   5.275   4.439
    1   AR   Ar  186   3.776   5.430   3.276
    1   AR   Ar  187   4.123   6.141   2.568
    1   AR   Ar  188   3.178   5.862   2.018
    1   AR   Ar  189   3.108   4.000   6.121
    1   AR   Ar  190   4.814   6.227   5.806
    1   AR   Ar  191   4.733   5.240   5.398
    1   AR   Ar  192   3.905   5.859   5.370
    1   AR   Ar  193   0.503   6.219  -0.252
    1   AR   Ar  194   5.414   4.431  -1.727
    1   AR   Ar  195   6.455   0.512  -0.232
    1   AR   Ar  196   4.864   0.248  -0.612
    1   AR   Ar  197   5.441   1.533   0.475
    1   AR   Ar  198   6.287   1.082   1.114
    1   AR   Ar  199   5.144   1.112   1.558
    1   AR   Ar  200   6.581   1.685   0.337
    1   AR   Ar  201   5.041   6.860   3.144
    1   AR   Ar  202   5.169   2.312   4.188
    1   AR   Ar  203   6.412   6.164   4.748
    1   AR   Ar  204   5.226   0.638   3.851
    1   AR   Ar  205   6.087   0.803   3.425
    1   AR   Ar  206   5.104   0.068   4.967
    1   AR   Ar  207   6.929   0.348   5.844
    1   AR   Ar  208   6.879   0.286   3.829
    1   AR   Ar  209   5.163   2.479  -1.843
    1   AR   Ar  210   4.070   0.853   1.094
    1   AR   Ar  211   6.518   3.423   0.349
    1   AR   Ar  212   6.289   3.825  -1.671
    1   AR   Ar  213   3.480   2.002   2.508
    1   AR   Ar  214   3.852   3.154   2.572
    1   AR   Ar  215   6.224   2.224   1.529
    1   AR   Ar  216   6.763   3.904   1.219
    1   AR   Ar  217   4.213   3.073   3.614
    1   AR   Ar  218   4.494   2.692   5.211
    1   AR   Ar  219   5.303   1.555   3.344
    1   AR   Ar  220   5.345   2.729   2.697
    1   AR   Ar  221   6.477   0.394   4.825
    1   AR   Ar  222   4.452   1.488   5.737
    1   AR   Ar  223   7.058   0.829   6.810
    1   AR   Ar  224   5.490   2.746   5.742
    1   AR   Ar  225   5.767   5.476   0.564
    1   AR   Ar  226   4.871   4.048   2.550
    1   AR   Ar  227   6.822   4.977   0.576
    1   AR   Ar  228   5.047   5.853   1.353
    1   AR   Ar  229   5.868   4.275  -0.300
    1   AR   Ar  230   4.490   4.632   3.408
    1   AR   Ar  231   6.211   2.129   3.188
    1   AR   Ar  232   4.445   2.902   0.602
    1   AR   Ar  233   6.411   2.668   4.354
    1   AR   Ar  234   0.127   3.216   4.633
    1   AR   Ar  235   0.326   2.276   4.134
    1   AR   Ar  236   5.254   4.492   4.624
    1   AR   Ar  237   5.822   3.508   4.590
    1   AR   Ar  238   4.500   4.187   5.592
    1   AR   Ar  239   0.049   3.878   9.143
    1   AR   Ar  240   6.890   3.976   5.706
    1   AR   Ar  241   0.310   0.041   0.191
    1   AR   Ar  242   5.099   4.727   0.927
    1   AR   Ar  243   6.135   3.740   2.559
    1   AR   Ar  244   0.587   4.819  -1.212
    1   AR   Ar  245   5.580   0.161   1.476
    1   AR   Ar  246   6.060   5.779   1.575
    1   AR   Ar  247   5.482   3.707   0.947
    1   AR   Ar  248   5.791   6.561   0.747
    1   AR   Ar  249   4.909   5.538   2.404
    1   AR   Ar  250   5.249   6.047   4.907
    1   AR   Ar  251   5.954   5.376   4.261
    1   AR   Ar  252   5.172   5.811   3.556
    1   AR   Ar  253   5.567   4.305   5.867
    1   AR   Ar  254   4.760   5.141   6.383
    1   AR   Ar  255   5.060   3.194   7.562
    1   AR   Ar  256   5.627   6.866   4.074
    7.12000  7.12000 12.00000
Argon-slab step 2130
  256
    1   AR   Ar    1   0.006   1.545  -0.492
    1   AR   Ar    2   6.755   7.031   1.214
    1   AR   Ar    3   0.714   0.011   1.132
    1   AR   Ar    4   1.500   6.969   0.388
    1   AR   Ar    5   6.972   6.129   0.844
    1   AR   Ar    6   6.895   0.706   2.588
    1   AR   Ar    7   6.885   4.925   3.100
    1   AR   Ar    8   6.311   6.895   2.043
    1   AR   Ar    9   0.850   0.520   4.014
    1   AR   Ar   10   1.246   1.604   4.530
    1   AR   Ar   11   3.056   0.148   4.923
    1   AR   Ar   12   1.435   1.104   3.098
    1   AR   Ar   13   6.637   1.486   5.391
    1   AR   Ar   14   1.313   1.238   6.810
    1   AR   Ar   15   6.696   0.177   9.462
    1   AR   Ar   16   0.599   0.924   5.255
    1   AR   Ar   17   1.010   1.361  -0.184
    1   AR   Ar   18   5.997   3.005  -0.717
    1   AR   Ar   19   1.169   2.440   1.526
    1   AR   Ar   20   5.866   4.069  -2.689
    1   AR   Ar   21   5.974   0.891   2.156
    1   AR   Ar   22   7.078   1.907   2.130
    1   AR   Ar   23   0.209   1.088   0.487
    1   AR   Ar   24   0.140   2.133   1.066
    1   AR   Ar   25   0.271   1.360   3.233
    1   AR   Ar   26   6.403   1.612   4.109
    1   AR   Ar   27   2.302   1.376   3.466
    1   AR   Ar   28   1.133   2.625   4.770
    1   AR   Ar   29   5.479   1.456   6.580
    1   AR   Ar   30   0.998   2.153   5.834
    1   AR   Ar   31   0.425   6.848   6.961
    1   AR   Ar   32   2.049   2.960   5.790
    1   AR   Ar   33   1.644   4.733  -0.702
    1   AR   Ar   34   0.259   6.113   2.643
    1   AR   Ar   35   6.703   5.031   1.574
    1   AR   Ar   36   0.142   6.972  -3.272
    1   AR   Ar   37   6.851   3.060   2.275
    1   AR   Ar   38   0.089   4.203   2.098
    1   AR   Ar   39   1.323   4.112   2.730
    1   AR   Ar   40   1.430   3.959   1.683
    1   AR   Ar   41   0.098   2.468   3.005
    1   AR   Ar   42   6.927   5.214   4.941
    1   AR   Ar   43   6.647   2.558   5.838
    1   AR   Ar   44   0.602   4.080   3.515
    1   AR   Ar   45   0.696   3.249   5.740
    1   AR   Ar   46   0.747   5.517   6.301
    1   AR   Ar   47   6.091   3.217   6.352
    1   AR   Ar   48   6.373   6.207   6.327
    1   AR   Ar   49   6.712   6.829  -2.211
    1   AR   Ar   50   5.822   4.749   2.302
    1   AR   Ar   51   0.925   4.827   1.446
    1   AR   Ar   52   6.096   4.930  -1.066
    1   AR   Ar   53   5.711   6.230   2.547
    1   AR   Ar   54   6.276   6.920   3.118
    1   AR   Ar   55   5.797   5.076   3.321
    1   AR   Ar   56   0.313   7.077   2.090
    1   AR   Ar   57   6.614   3.171   3.363
    1   AR   Ar   58   6.773   5.903   3.566
    1   AR   Ar   59   1.797   5.517   5.785
    1   AR   Ar   60   0.595   6.562   4.106
    1   AR   Ar   61   5.861   5.465   5.575
    1   AR   Ar   62   0.704   5.731   5.235
    1   AR   Ar   63   2.059   6.399   6.476
    1   AR   Ar   64   0.770   6.874   5.913
    1   AR   Ar   65   3.733   6.943   0.222
    1   AR   Ar   66   1.400   1.119   1.010
    1   AR   Ar   67   3.655   6.312  -0.431
    1   AR   Ar   68   3.129   1.654  -0.908
    1   AR   Ar   69   2.828   0.995   0.963
    1   AR   Ar   70   0.844   1.146   2.192
    1   AR   Ar   71   3.041   0.816   2.938
    1   AR   Ar   72   3.290   0.364   1.788
    1   AR   Ar   73   2.490   0.095   3.639
    1   AR   Ar   74   2.433   0.873   4.492
    1   AR   Ar   75   3.587   1.040   5.214
    1   AR   Ar   76   2.420   1.122   2.040
    1   AR   Ar   77   2.274   6.422   5.522
    1   AR   Ar   78   1.706   0.301   6.185
    1   AR   Ar   79   3.194   5.920   6.980
    1   AR   Ar   80   2.962   5.547   5.662
    1   AR   Ar   81   2.366   1.189  -0.155
    1   AR   Ar   82   6.839   3.956  -0.735
    1   AR   Ar   83   1.782   1.949   0.606
    1   AR   Ar   84   0.656   3.380  -1.311
    1   AR   Ar   85   0.371   2.501  -0.575
    1   AR   Ar   86   2.019   3.135   1.486
    1   AR   Ar   87   2.100   2.036   1.597
    1   AR   Ar   88   3.745   3.777   1.637
    1   AR   Ar   89   0.846   3.069   2.275
    1   AR   Ar   90   2.947   1.851   4.603
    1   AR   Ar   91   1.368   2.133   3.522
    1   AR   Ar   92   1.422   2.094   2.482
    1   AR   Ar   93   2.112   1.600   5.818
    1   AR   Ar   94   0.489   0.710   9.089
    1   AR   Ar   95   3.671   6.560   6.237
    1   AR   Ar   96   2.884   0.795   6.146
    1   AR   Ar   97   3.862   2.701  -1.028
    1   AR   Ar   98   2.888   4.900   1.771
    1   AR   Ar   99   6.881   2.627  -1.455
    1   AR   Ar  100   1.685   3.179  -0.423
    1   AR   Ar  101   2.552   4.142   0.963
    1   AR   Ar  102   2.845   3.128   3.637
    1   AR   Ar  103   1.059   4.895   0.160
    1   AR   Ar  104   2.609   2.564  -0.554
    1   AR   Ar  105   1.871   2.967   2.901
    1   AR   Ar  106   2.264   3.017   4.631
    1   AR   Ar  107   1.874   3.917   5.415
    1   AR   Ar  108   3.784   2.917   4.460
    1   AR   Ar  109   2.054   4.261   3.615
    1   AR   Ar  110   1.346   4.567   6.139
    1   AR   Ar  111   4.094   4.210   6.776
    1   AR   Ar  112   0.801   5.090   7.514
    1   AR   Ar  113   2.582   4.707   0.005
    1   AR   Ar  114   3.018   4.673  -1.166
    1   AR   Ar  115   2.742   3.739  -0.481
    1   AR   Ar  116   4.632   5.924  -0.582
    1   AR   Ar  117   0.705   5.515   3.687
    1   AR   Ar  118   0.268   7.020   3.106
    1   AR   Ar  119   2.370   3.914   2.438
    1   AR   Ar  120   1.146   5.182   2.684
    1   AR   Ar  121   6.904   4.159   4.247
    1   AR   Ar  122   2.750   5.991   4.636
    1   AR   Ar  123   2.526   4.745   4.977
    1   AR   Ar  124   1.968   5.532   1.966
    1   AR   Ar  125   0.896   4.151   4.968
    1   AR   Ar  126   0.360   0.006   4.940
    1   AR   Ar  127   3.613   4.830   7.701
    1   AR   Ar  128   2.243   5.243   6.750
    1   AR   Ar  129   1.692   0.370   2.337
    1   AR   Ar  130   3.447   1.357  -3.549
    1   AR   Ar  131   4.730   6.927   0.858
    1   AR   Ar  132   1.132   2.265  -1.251
    1   AR   Ar  133   3.877   0.077   3.394
    1   AR   Ar  134   4.214   1.092   3.358
    1   AR   Ar  135   4.998   0.865   2.618
    1   AR   Ar  136   4.704   0.108   1.914
    1   AR   Ar  137   3.217   6.355   3.642
    1   AR   Ar  138   5.045   1.077   4.886
    1   AR   Ar  139   5.755   1.893   5.056
    1   AR   Ar  140   4.262   0.776   4.375
    1   AR   Ar  141   3.877   6.599   4.484
    1   AR   Ar  142   4.084   0.031   5.352
    1   AR   Ar  143   5.751   6.833   5.666
    1   AR   Ar  144   4.793   0.465   6.011
    1   AR   Ar  145   4.199   4.033   0.494
    1   AR   Ar  146   4.132   2.338   1.619
    1   AR   Ar  147   5.797   1.913  -0.755
    1   AR   Ar  148   4.615   3.988  -2.609
    1   AR   Ar  149   3.213   1.959   1.421
    1   AR   Ar  150   2.380   1.991   2.664
    1   AR   Ar  151   3.143   2.100   3.589
    1   AR   Ar  152   2.841   2.893   0.333
    1   AR   Ar  153   3.302   0.873   3.928
    1   AR   Ar  154   4.068   1.855   4.473
    1   AR   Ar  155   5.692   0.910   5.780
    1   AR   Ar  156   3.011   4.135   4.183
    1   AR   Ar  157   3.113   2.789   5.850
    1   AR   Ar  158   0.959   2.616   6.821
    1   AR   Ar  159   3.330   1.755   6.074
    1   AR   Ar  160   3.130   2.314   7.064
    1   AR   Ar  161   5.168   2.447   1.115
    1   AR   Ar  162   4.530   4.916   0.019
    1   AR   Ar  163   5.280   2.842   0.067
    1   AR   Ar  164   4.124   5.144   1.559
    1   AR   Ar  165   2.994   3.190   1.257
    1   AR   Ar  166   2.933   5.205   3.942
    1   AR   Ar  167   4.442   2.039   2.785
    1   AR   Ar  168   5.152   3.270  -1.287
    1   AR   Ar  169   2.740   2.943   2.327
    1   AR   Ar  170   3.406   3.530   5.162
    1   AR   Ar  171   4.195   3.805   4.331
    1   AR   Ar  172   4.496   5.384   4.387
    1   AR   Ar  173   2.097   3.516   6.867
    1   AR   Ar  174   3.712   4.898   6.123
    1   AR   Ar  175   4.336   3.251   6.142
    1   AR   Ar  176   3.668   4.964   4.924
    1   AR   Ar  177   6.412   5.912  -0.412
    1   AR   Ar  178   2.711   6.018   0.955
    1   AR   Ar  179   4.250   5.752   0.511
    1   AR   Ar  180   2.911   3.298  -2.171
    1   AR   Ar  181   1.596   5.588   0.910
    1   AR   Ar  182   3.113   6.624   2.684
    1   AR   Ar  183   3.785   4.626   2.464
    1   AR   Ar  184   3.943   6.342   1.426
    1   AR   Ar  185   1.729   5.265   4.397
    1   AR   Ar  186   3.796   5.446   3.277
    1   AR   Ar  187   4.098   6.171   2.522
    1   AR   Ar  188   3.164   5.913   2.010
    1   AR   Ar  189   3.113   3.991   6.115
    1   AR   Ar  190   4.815   6.231   5.813
    1   AR   Ar  191   4.766   5.246   5.368
    1   AR   Ar  192   3.930   5.869   5.373
    1   AR   Ar  193   0.494   6.184  -0.263
    1   AR   Ar  194   5.412   4.424  -1.709
    1   AR   Ar  195   6.462   0.519  -0.235
    1   AR   Ar  196   4.889   0.188  -0.600
    1   AR   Ar  197   5.440   1.553   0.488
    1   AR   Ar  198   6.305   1.075   1.092
    1   AR   Ar  199   5.160   1.119   1.563
    1   AR   Ar  200   6.581   1.682   0.370
    1   AR   Ar  201   5.025   6.851   3.114
    1   AR   Ar  202   5.145   2.340   4.182
    1   AR   Ar  203   6.441   6.152   4.734
    1   AR   Ar  204   5.218   0.659   3.869
    1   AR   Ar  205   6.100   0.825   3.412
    1   AR   Ar  206   5.110   0.063   4.932
    1   AR   Ar  207   6.957   0.335   5.824
    1   AR   Ar  208   6.886   0.313   3.832
    1   AR   Ar  209   5.199   2.481  -1.880
    1   AR   Ar  210   4.056   0.847   1.085
    1   AR   Ar  211   6.551   3.386   0.378
    1   AR   Ar  212   6.317   3.810  -1.708
    1   AR   Ar  213   3.468   2.007   2.517
    1   AR   Ar  214   3.847   3.135   2.530
    1   AR   Ar  215   6.222   2.214   1.496
    1   AR   Ar  216   6.788   3.949   1.217
    1   AR   Ar  217   4.202   3.076   3.619
    1   AR   Ar  218   4.496   2.657   5.204
    1   AR   Ar  219   5.316   1.535   3.345
    1   AR   Ar  220   5.358   2.746   2.694
    1   AR   Ar  221   6.490   0.379   4.808
    1   AR   Ar  222   4.453   1.474   5.759
    1   AR   Ar  223   7.087   0.852   6.812
    1   AR   Ar  224   5.479   2.766   5.744
    1   AR   Ar  225   5.765   5.453   0.548
    1   AR   Ar  226   4.872   4.056   2.555
    1   AR   Ar  227   6.869   4.995   0.592
    1   AR   Ar  228   5.051   5.876   1.360
    1   AR   Ar  229   5.870   4.275  -0.320
    1   AR   Ar  230   4.499   4.627   3.359
    1   AR   Ar  231   6.189   2.132   3.171
    1   AR   Ar  232   4.397   2.884   0.595
    1   AR   Ar  233   6.400   2.643   4.368
    1   AR   Ar  234   0.130   3.208   4.639
    1   AR   Ar  235   0.306   2.256   4.131
    1   AR   Ar  236   5.222   4.529   4.634
    1   AR   Ar  237   5.799   3.529   4.619
    1   AR   Ar  238   4.497   4.206   5.592
    1   AR   Ar  239   0.040   3.874   9.169
    1   AR   Ar  240   6.879   3.964   5.688
    1   AR   Ar  241   0.273   0.030   0.186
    1   AR   Ar  242   5.118   4.716   0.899
    1   AR   Ar  243   6.112   3.782   2.572
    1   AR   Ar  244   0.598   4.828  -1.221
    1   AR   Ar  245   5.609   0.148   1.455
    1   AR   Ar  246   6.046   5.771   1.574
    1   AR   Ar  247   5.471   3.706   0.961
    1   AR   Ar  248   5.822   6.543   0.745
    1   AR   Ar  249   4.908   5.536   2.381
    1   AR   Ar  250   5.290   6.033   4.896
    1   AR   Ar  251   5.957   5.381   4.240
    1   AR   Ar  252   5.142   5.793   3.573
    1   AR   Ar  253   5.546   4.272   5.859
    1   AR   Ar  254   4.719   5.162   6.396
    1   AR   Ar  255   5.062   3.185   7.576
    1   AR   Ar  256   5.648   6.845   4.083
    7.12000  7.12000 12.00000
Argon-slab step 2135
  256
    1   AR   Ar    1   7.104   1.571  -0.508
    1   AR   Ar    2   6.781   7.057   1.223
    1   AR   Ar    3   0.716   0.008   1.156
    1   AR   Ar    4   1.509   6.994   0.380
    1   AR   Ar    5   6.996   6.099   0.829
    1   AR   Ar    6   6.886   0.680   2.588
    1   AR   Ar    7   6.879   4.887   3.114
    1   AR   Ar    8   6.301   6.912   2.063
    1   AR   Ar    9   0.829   0.547   3.995
    1   AR   Ar   10   1.245   1.609   4.533
    1   AR   Ar   11   3.077   0.175   4.920
    1   AR   Ar   12   1.443   1.132   3.094
    1   AR   Ar   13   6.634   1.470   5.388
    1   AR   Ar   14   1.324   1.246   6.817
    1   AR   Ar   15   6.722   0.201   9.463
    1   AR   Ar   16   0.580   0.910   5.242
    1   AR   Ar   17   1.029   1.372  -0.191
    1   AR   Ar   18   6.011   2.997  -0.746
    1   AR   Ar   19   1.165   2.448   1.549
    1   AR   Ar   20   5.829   4.111  -2.712
    1   AR   Ar   21   5.968   0.876   2.173
    1   AR   Ar   22   7.081   1.905   2.124
    1   AR   Ar   23   0.233   1.093   0.495
    1   AR   Ar   24   0.109   2.129   1.053
    1   AR   Ar   25   0.225   1.355   3.249
    1   AR   Ar   26   6.402   1.593   4.118
    1   AR   Ar   27   2.343   1.369   3.469
    1   AR   Ar   28   1.139   2.631   4.817
    1   AR   Ar   29   5.465   1.447   6.557
    1   AR   Ar   30   1.006   2.140   5.821
    1   AR   Ar   31   0.403   6.850   6.970
    1   AR   Ar   32   2.026   2.966   5.775
    1   AR   Ar   33   1.636   4.704  -0.708
    1   AR   Ar   34   0.255   6.110   2.663
    1   AR   Ar   35   6.705   5.026   1.621
    1   AR   Ar   36   0.137   6.962  -3.280
    1   AR   Ar   37   6.813   3.065   2.289
    1   AR   Ar   38   0.097   4.226   2.118
    1   AR   Ar   39   1.312   4.103   2.738
    1   AR   Ar   40   1.422   3.960   1.688
    1   AR   Ar   41   0.098   2.438   3.012
    1   AR   Ar   42   6.919   5.234   4.916
    1   AR   Ar   43   6.674   2.522   5.821
    1   AR   Ar   44   0.583   4.092   3.525
    1   AR   Ar   45   0.690   3.233   5.771
    1   AR   Ar   46   0.772   5.555   6.279
    1   AR   Ar   47   6.077   3.199   6.377
    1   AR   Ar   48   6.392   6.196   6.311
    1   AR   Ar   49   6.695   6.843  -2.222
    1   AR   Ar   50   5.789   4.767   2.313
    1   AR   Ar   51   0.942   4.813   1.472
    1   AR   Ar   52   6.103   4.926  -1.094
    1   AR   Ar   53   5.693   6.223   2.528
    1   AR   Ar   54   6.292   6.937   3.096
    1   AR   Ar   55   5.755   5.036   3.328
    1   AR   Ar   56   0.354   7.068   2.091
    1   AR   Ar   57   6.628   3.192   3.337
    1   AR   Ar   58   6.783   5.891   3.584
    1   AR   Ar   59   1.779   5.519   5.768
    1   AR   Ar   60   0.590   6.586   4.085
    1   AR   Ar   61   5.856   5.448   5.555
    1   AR   Ar   62   0.719   5.730   5.255
    1   AR   Ar   63   2.056   6.376   6.531
    1   AR   Ar   64   0.750   6.885   5.906
    1   AR   Ar   65   3.725   6.927   0.211
    1   AR   Ar   66   1.391   1.123   1.016
    1   AR   Ar   67   3.635   6.312  -0.443
    1   AR   Ar   68   3.109   1.631  -0.910
    1   AR   Ar   69   2.828   1.011   0.969
    1   AR   Ar   70   0.824   1.113   2.214
    1   AR   Ar   71   3.045   0.804   2.923
    1   AR   Ar   72   3.277   0.392   1.773
    1   AR   Ar   73   2.525   0.091   3.647
    1   AR   Ar   74   2.465   0.876   4.505
    1   AR   Ar   75   3.583   1.041   5.218
    1   AR   Ar   76   2.409   1.129   2.038
    1   AR   Ar   77   2.275   6.411   5.542
    1   AR   Ar   78   1.719   0.287   6.184
    1   AR   Ar   79   3.190   5.902   6.982
    1   AR   Ar   80   2.982   5.508   5.648
    1   AR   Ar   81   2.378   1.233  -0.171
    1   AR   Ar   82   6.854   3.962  -0.718
    1   AR   Ar   83   1.785   1.987   0.558
    1   AR   Ar   84   0.692   3.395  -1.282
    1   AR   Ar   85   0.407   2.541  -0.596
    1   AR   Ar   86   2.026   3.143   1.488
    1   AR   Ar   87   2.112   2.033   1.642
    1   AR   Ar   88   3.743   3.809   1.637
    1   AR   Ar   89   0.819   3.079   2.272
    1   AR   Ar   90   2.926   1.904   4.610
    1   AR   Ar   91   1.337   2.112   3.508
    1   AR   Ar   92   1.415   2.114   2.487
    1   AR   Ar   93   2.116   1.570   5.831
    1   AR   Ar   94   0.467   0.718   9.126
    1   AR   Ar   95   3.714   6.567   6.242
    1   AR   Ar   96   2.886   0.803   6.180
    1   AR   Ar   97   3.860   2.720  -1.021
    1   AR   Ar   98   2.912   4.901   1.760
    1   AR   Ar   99   6.875   2.626  -1.424
    1   AR   Ar  100   1.674   3.163  -0.442
    1   AR   Ar  101   2.530   4.142   0.917
    1   AR   Ar  102   2.890   3.126   3.664
    1   AR   Ar  103   1.061   4.872   0.162
    1   AR   Ar  104   2.621   2.549  -0.571
    1   AR   Ar  105   1.879   2.981   2.933
    1   AR   Ar  106   2.280   3.035   4.626
    1   AR   Ar  107   1.872   3.906   5.444
    1   AR   Ar  108   3.778   2.898   4.465
    1   AR   Ar  109   1.998   4.258   3.638
    1   AR   Ar  110   1.349   4.565   6.144
    1   AR   Ar  111   4.106   4.181   6.782
    1   AR   Ar  112   0.810   5.112   7.517
    1   AR   Ar  113   2.584   4.716   0.008
    1   AR   Ar  114   3.037   4.634  -1.169
    1   AR   Ar  115   2.734   3.704  -0.493
    1   AR   Ar  116   4.652   5.896  -0.615
    1   AR   Ar  117   0.723   5.502   3.684
    1   AR   Ar  118   0.290   6.964   3.133
    1   AR   Ar  119   2.342   3.914   2.423
    1   AR   Ar  120   1.124   5.168   2.641
    1   AR   Ar  121   6.895   4.139   4.247
    1   AR   Ar  122   2.741   6.008   4.630
    1   AR   Ar  123   2.521   4.747   4.979
    1   AR   Ar  124   1.942   5.497   1.957
    1   AR   Ar  125   0.885   4.117   4.996
    1   AR   Ar  126   0.353   7.116   4.917
    1   AR   Ar  127   3.636   4.812   7.681
    1   AR   Ar  128   2.251   5.214   6.756
    1   AR   Ar  129   1.701   0.397   2.338
    1   AR   Ar  130   3.471   1.361  -3.532
    1   AR   Ar  131   4.765   6.925   0.889
    1   AR   Ar  132   1.175   2.255  -1.226
    1   AR   Ar  133   3.884   0.081   3.385
    1   AR   Ar  134   4.167   1.108   3.361
    1   AR   Ar  135   4.982   0.842   2.600
    1   AR   Ar  136   4.721   0.133   1.913
    1   AR   Ar  137   3.247   6.369   3.662
    1   AR   Ar  138   5.058   1.097   4.882
    1   AR   Ar  139   5.700   1.925   5.055
    1   AR   Ar  140   4.259   0.749   4.383
    1   AR   Ar  141   3.861   6.609   4.468
    1   AR   Ar  142   4.090   0.020   5.343
    1   AR   Ar  143   5.720   6.837   5.666
    1   AR   Ar  144   4.798   0.479   5.969
    1   AR   Ar  145   4.158   4.028   0.520
    1   AR   Ar  146   4.147   2.319   1.593
    1   AR   Ar  147   5.795   1.896  -0.781
    1   AR   Ar  148   4.618   3.964  -2.618
    1   AR   Ar  149   3.269   1.979   1.384
    1   AR   Ar  150   2.373   2.002   2.643
    1   AR   Ar  151   3.139   2.099   3.552
    1   AR   Ar  152   2.834   2.870   0.309
    1   AR   Ar  153   3.317   0.890   3.936
    1   AR   Ar  154   4.058   1.843   4.431
    1   AR   Ar  155   5.713   0.892   5.789
    1   AR   Ar  156   3.019   4.122   4.146
    1   AR   Ar  157   3.120   2.800   5.848
    1   AR   Ar  158   0.977   2.650   6.818
    1   AR   Ar  159   3.307   1.716   6.066
    1   AR   Ar  160   3.104   2.310   7.027
    1   AR   Ar  161   5.170   2.474   1.113
    1   AR   Ar  162   4.532   4.940   0.029
    1   AR   Ar  163   5.251   2.849   0.096
    1   AR   Ar  164   4.111   5.169   1.546
    1   AR   Ar  165   2.995   3.178   1.274
    1   AR   Ar  166   2.959   5.181   3.954
    1   AR   Ar  167   4.450   2.012   2.788
    1   AR   Ar  168   5.134   3.272  -1.333
    1   AR   Ar  169   2.737   2.933   2.308
    1   AR   Ar  170   3.412   3.533   5.207
    1   AR   Ar  171   4.206   3.808   4.335
    1   AR   Ar  172   4.509   5.399   4.407
    1   AR   Ar  173   2.103   3.500   6.845
    1   AR   Ar  174   3.732   4.880   6.123
    1   AR   Ar  175   4.322   3.261   6.171
    1   AR   Ar  176   3.654   4.994   4.909
    1   AR   Ar  177   6.403   5.901  -0.404
    1   AR   Ar  178   2.675   6.015   0.917
    1   AR   Ar  179   4.285   5.774   0.492
    1   AR   Ar  180   2.872   3.311  -2.137
    1   AR   Ar  181   1.598   5.587   0.930
    1   AR   Ar  182   3.122   6.633   2.715
    1   AR   Ar  183   3.779   4.640   2.465
    1   AR   Ar  184   3.978   6.337   1.432
    1   AR   Ar  185   1.763   5.255   4.356
    1   AR   Ar  186   3.817   5.464   3.279
    1   AR   Ar  187   4.072   6.206   2.477
    1   AR   Ar  188   3.150   5.955   1.993
    1   AR   Ar  189   3.123   3.979   6.109
    1   AR   Ar  190   4.818   6.238   5.824
    1   AR   Ar  191   4.802   5.245   5.339
    1   AR   Ar  192   3.952   5.884   5.376
    1   AR   Ar  193   0.484   6.147  -0.273
    1   AR   Ar  194   5.415   4.439  -1.683
    1   AR   Ar  195   6.476   0.522  -0.232
    1   AR   Ar  196   4.913   0.127  -0.588
    1   AR   Ar  197   5.440   1.572   0.503
    1   AR   Ar  198   6.321   1.056   1.076
    1   AR   Ar  199   5.172   1.129   1.564
    1   AR   Ar  200   6.565   1.698   0.395
    1   AR   Ar  201   5.009   6.844   3.085
    1   AR   Ar  202   5.149   2.365   4.199
    1   AR   Ar  203   6.470   6.147   4.721
    1   AR   Ar  204   5.201   0.677   3.891
    1   AR   Ar  205   6.118   0.851   3.391
    1   AR   Ar  206   5.112   0.053   4.895
    1   AR   Ar  207   6.982   0.322   5.806
    1   AR   Ar  208   6.892   0.344   3.848
    1   AR   Ar  209   5.235   2.474  -1.923
    1   AR   Ar  210   4.043   0.840   1.076
    1   AR   Ar  211   6.582   3.347   0.401
    1   AR   Ar  212   6.346   3.794  -1.743
    1   AR   Ar  213   3.447   2.011   2.524
    1   AR   Ar  214   3.842   3.115   2.488
    1   AR   Ar  215   6.219   2.204   1.463
    1   AR   Ar  216   6.810   3.995   1.213
    1   AR   Ar  217   4.200   3.077   3.601
    1   AR   Ar  218   4.502   2.635   5.213
    1   AR   Ar  219   5.327   1.525   3.345
    1   AR   Ar  220   5.371   2.764   2.692
    1   AR   Ar  221   6.460   0.364   4.808
    1   AR   Ar  222   4.454   1.461   5.780
    1   AR   Ar  223   7.093   0.844   6.825
    1   AR   Ar  224   5.458   2.780   5.736
    1   AR   Ar  225   5.766   5.428   0.526
    1   AR   Ar  226   4.871   4.067   2.561
    1   AR   Ar  227   6.917   5.012   0.597
    1   AR   Ar  228   5.047   5.900   1.364
    1   AR   Ar  229   5.873   4.278  -0.330
    1   AR   Ar  230   4.507   4.624   3.313
    1   AR   Ar  231   6.201   2.141   3.164
    1   AR   Ar  232   4.340   2.869   0.588
    1   AR   Ar  233   6.387   2.617   4.381
    1   AR   Ar  234   0.131   3.199   4.653
    1   AR   Ar  235   0.285   2.234   4.126
    1   AR   Ar  236   5.189   4.566   4.645
    1   AR   Ar  237   5.776   3.550   4.648
    1   AR   Ar  238   4.477   4.213   5.594
    1   AR   Ar  239   0.030   3.871   9.194
    1   AR   Ar  240   6.868   3.950   5.669
    1   AR   Ar  241   0.233   0.019   0.179
    1   AR   Ar  242   5.133   4.704   0.875
    1   AR   Ar  243   6.088   3.823   2.587
    1   AR   Ar  244   0.609   4.836  -1.227
    1   AR   Ar  245   5.637   0.141   1.427
    1   AR   Ar  246   6.030   5.771   1.575
    1   AR   Ar  247   5.461   3.701   0.974
    1   AR   Ar  248   5.822   6.543   0.738
    1   AR   Ar  249   4.908   5.528   2.359
    1   AR   Ar  250   5.332   6.023   4.878
    1   AR   Ar  251   5.960   5.386   4.230
    1   AR   Ar  252   5.107   5.783   3.590
    1   AR   Ar  253   5.526   4.240   5.850
    1   AR   Ar  254   4.679   5.184   6.412
    1   AR   Ar  255   5.063   3.176   7.588
    1   AR   Ar  256   5.673   6.819   4.092
    7.12000  7.12000 12.00000
Argon-slab step 2140
  256
    1   AR   Ar    1   7.073   1.593  -0.521
    1   AR   Ar    2   6.809   7.089   1.220
    1   AR   Ar    3   0.723   0.007   1.173
    1   AR   Ar    4   1.516   7.021   0.372
    1   AR   Ar    5   7.020   6.066   0.811
    1   AR   Ar    6   6.880   0.653   2.591
    1   AR   Ar    7   6.877   4.857   3.130
    1   AR   Ar    8   6.296   6.926   2.096
    1   AR   Ar    9   0.807   0.576   3.976
    1   AR   Ar   10   1.243   1.611   4.534
    1   AR   Ar   11   3.099   0.194   4.916
    1   AR   Ar   12   1.443   1.157   3.089
    1   AR   Ar   13   6.641   1.455   5.377
    1   AR   Ar   14   1.335   1.254   6.822
    1   AR   Ar   15   6.746   0.223   9.465
    1   AR   Ar   16   0.564   0.906   5.232
    1   AR   Ar   17   1.051   1.384  -0.198
    1   AR   Ar   18   6.027   2.990  -0.775
    1   AR   Ar   19   1.158   2.454   1.563
    1   AR   Ar   20   5.818   4.085  -2.726
    1   AR   Ar   21   5.971   0.865   2.195
    1   AR   Ar   22   7.083   1.899   2.116
    1   AR   Ar   23   0.241   1.093   0.483
    1   AR   Ar   24   0.092   2.145   1.057
    1   AR   Ar   25   0.181   1.351   3.267
    1   AR   Ar   26   6.401   1.572   4.129
    1   AR   Ar   27   2.388   1.362   3.481
    1   AR   Ar   28   1.144   2.640   4.865
    1   AR   Ar   29   5.446   1.446   6.542
    1   AR   Ar   30   1.016   2.126   5.808
    1   AR   Ar   31   0.380   6.852   6.978
    1   AR   Ar   32   1.991   2.972   5.765
    1   AR   Ar   33   1.629   4.674  -0.716
    1   AR   Ar   34   0.250   6.093   2.677
    1   AR   Ar   35   6.710   5.017   1.673
    1   AR   Ar   36   0.131   6.952  -3.287
    1   AR   Ar   37   6.785   3.067   2.273
    1   AR   Ar   38   0.110   4.249   2.147
    1   AR   Ar   39   1.301   4.092   2.747
    1   AR   Ar   40   1.415   3.956   1.694
    1   AR   Ar   41   0.106   2.398   3.022
    1   AR   Ar   42   6.911   5.250   4.890
    1   AR   Ar   43   6.702   2.485   5.801
    1   AR   Ar   44   0.563   4.104   3.535
    1   AR   Ar   45   0.685   3.217   5.800
    1   AR   Ar   46   0.798   5.594   6.262
    1   AR   Ar   47   6.068   3.190   6.410
    1   AR   Ar   48   6.410   6.184   6.294
    1   AR   Ar   49   6.679   6.857  -2.234
    1   AR   Ar   50   5.755   4.790   2.319
    1   AR   Ar   51   0.954   4.807   1.497
    1   AR   Ar   52   6.116   4.927  -1.122
    1   AR   Ar   53   5.674   6.212   2.512
    1   AR   Ar   54   6.308   6.953   3.078
    1   AR   Ar   55   5.715   4.989   3.325
    1   AR   Ar   56   0.394   7.059   2.095
    1   AR   Ar   57   6.637   3.217   3.318
    1   AR   Ar   58   6.799   5.878   3.615
    1   AR   Ar   59   1.765   5.497   5.757
    1   AR   Ar   60   0.585   6.605   4.060
    1   AR   Ar   61   5.853   5.429   5.538
    1   AR   Ar   62   0.736   5.732   5.270
    1   AR   Ar   63   2.051   6.351   6.593
    1   AR   Ar   64   0.734   6.893   5.901
    1   AR   Ar   65   3.722   6.945   0.236
    1   AR   Ar   66   1.380   1.125   1.024
    1   AR   Ar   67   3.610   6.279  -0.489
    1   AR   Ar   68   3.119   1.642  -0.923
    1   AR   Ar   69   2.835   1.030   0.976
    1   AR   Ar   70   0.802   1.082   2.234
    1   AR   Ar   71   3.051   0.790   2.904
    1   AR   Ar   72   3.264   0.420   1.760
    1   AR   Ar   73   2.579   0.079   3.627
    1   AR   Ar   74   2.489   0.883   4.519
    1   AR   Ar   75   3.579   1.045   5.222
    1   AR   Ar   76   2.401   1.132   2.036
    1   AR   Ar   77   2.279   6.404   5.555
    1   AR   Ar   78   1.716   0.299   6.194
    1   AR   Ar   79   3.185   5.883   6.982
    1   AR   Ar   80   2.998   5.470   5.635
    1   AR   Ar   81   2.388   1.279  -0.185
    1   AR   Ar   82   6.874   3.968  -0.702
    1   AR   Ar   83   1.789   2.028   0.508
    1   AR   Ar   84   0.727   3.410  -1.251
    1   AR   Ar   85   0.443   2.585  -0.611
    1   AR   Ar   86   2.026   3.147   1.492
    1   AR   Ar   87   2.128   2.034   1.680
    1   AR   Ar   88   3.743   3.845   1.637
    1   AR   Ar   89   0.772   3.095   2.258
    1   AR   Ar   90   2.905   1.956   4.619
    1   AR   Ar   91   1.304   2.094   3.502
    1   AR   Ar   92   1.395   2.131   2.489
    1   AR   Ar   93   2.120   1.542   5.844
    1   AR   Ar   94   0.446   0.727   9.162
    1   AR   Ar   95   3.757   6.574   6.245
    1   AR   Ar   96   2.885   0.804   6.213
    1   AR   Ar   97   3.857   2.739  -1.013
    1   AR   Ar   98   2.936   4.901   1.749
    1   AR   Ar   99   6.868   2.625  -1.394
    1   AR   Ar  100   1.662   3.147  -0.461
    1   AR   Ar  101   2.508   4.140   0.873
    1   AR   Ar  102   2.935   3.125   3.690
    1   AR   Ar  103   1.062   4.850   0.168
    1   AR   Ar  104   2.628   2.529  -0.604
    1   AR   Ar  105   1.886   2.997   2.966
    1   AR   Ar  106   2.296   3.053   4.622
    1   AR   Ar  107   1.871   3.902   5.470
    1   AR   Ar  108   3.761   2.868   4.479
    1   AR   Ar  109   1.942   4.254   3.661
    1   AR   Ar  110   1.356   4.568   6.131
    1   AR   Ar  111   4.119   4.149   6.790
    1   AR   Ar  112   0.820   5.135   7.518
    1   AR   Ar  113   2.569   4.710  -0.006
    1   AR   Ar  114   3.056   4.594  -1.170
    1   AR   Ar  115   2.726   3.669  -0.504
    1   AR   Ar  116   4.673   5.868  -0.646
    1   AR   Ar  117   0.741   5.489   3.680
    1   AR   Ar  118   0.314   6.918   3.163
    1   AR   Ar  119   2.314   3.916   2.408
    1   AR   Ar  120   1.101   5.155   2.598
    1   AR   Ar  121   6.883   4.120   4.247
    1   AR   Ar  122   2.746   6.024   4.657
    1   AR   Ar  123   2.517   4.749   4.981
    1   AR   Ar  124   1.917   5.462   1.949
    1   AR   Ar  125   0.863   4.104   5.023
    1   AR   Ar  126   0.343   7.100   4.892
    1   AR   Ar  127   3.654   4.797   7.659
    1   AR   Ar  128   2.259   5.186   6.761
    1   AR   Ar  129   1.702   0.415   2.352
    1   AR   Ar  130   3.496   1.365  -3.514
    1   AR   Ar  131   4.797   6.923   0.918
    1   AR   Ar  132   1.221   2.245  -1.203
    1   AR   Ar  133   3.890   0.089   3.382
    1   AR   Ar  134   4.124   1.127   3.362
    1   AR   Ar  135   4.966   0.821   2.587
    1   AR   Ar  136   4.730   0.153   1.912
    1   AR   Ar  137   3.276   6.377   3.690
    1   AR   Ar  138   5.062   1.116   4.883
    1   AR   Ar  139   5.658   1.950   5.053
    1   AR   Ar  140   4.250   0.716   4.390
    1   AR   Ar  141   3.847   6.618   4.453
    1   AR   Ar  142   4.096   0.009   5.335
    1   AR   Ar  143   5.694   6.840   5.668
    1   AR   Ar  144   4.802   0.489   5.928
    1   AR   Ar  145   4.117   4.023   0.549
    1   AR   Ar  146   4.177   2.307   1.573
    1   AR   Ar  147   5.793   1.880  -0.807
    1   AR   Ar  148   4.625   3.942  -2.628
    1   AR   Ar  149   3.306   1.993   1.344
    1   AR   Ar  150   2.378   2.013   2.629
    1   AR   Ar  151   3.138   2.097   3.516
    1   AR   Ar  152   2.831   2.853   0.298
    1   AR   Ar  153   3.332   0.907   3.947
    1   AR   Ar  154   4.050   1.849   4.392
    1   AR   Ar  155   5.744   0.868   5.784
    1   AR   Ar  156   3.029   4.108   4.111
    1   AR   Ar  157   3.126   2.806   5.850
    1   AR   Ar  158   0.995   2.685   6.813
    1   AR   Ar  159   3.287   1.683   6.056
    1   AR   Ar  160   3.077   2.307   6.988
    1   AR   Ar  161   5.175   2.499   1.114
    1   AR   Ar  162   4.536   4.955   0.032
    1   AR   Ar  163   5.227   2.857   0.121
    1   AR   Ar  164   4.100   5.195   1.532
    1   AR   Ar  165   3.005   3.165   1.292
    1   AR   Ar  166   2.985   5.158   3.966
    1   AR   Ar  167   4.464   1.985   2.792
    1   AR   Ar  168   5.104   3.276  -1.336
    1   AR   Ar  169   2.738   2.922   2.288
    1   AR   Ar  170   3.420   3.543   5.246
    1   AR   Ar  171   4.220   3.822   4.345
    1   AR   Ar  172   4.519   5.417   4.416
    1   AR   Ar  173   2.109   3.483   6.820
    1   AR   Ar  174   3.748   4.866   6.118
    1   AR   Ar  175   4.307   3.270   6.198
    1   AR   Ar  176   3.638   5.019   4.893
    1   AR   Ar  177   6.395   5.889  -0.395
    1   AR   Ar  178   2.640   6.011   0.880
    1   AR   Ar  179   4.317   5.808   0.480
    1   AR   Ar  180   2.834   3.325  -2.102
    1   AR   Ar  181   1.599   5.587   0.948
    1   AR   Ar  182   3.123   6.648   2.733
    1   AR   Ar  183   3.765   4.678   2.480
    1   AR   Ar  184   4.014   6.333   1.434
    1   AR   Ar  185   1.797   5.245   4.314
    1   AR   Ar  186   3.837   5.482   3.280
    1   AR   Ar  187   4.050   6.242   2.435
    1   AR   Ar  188   3.133   5.988   1.968
    1   AR   Ar  189   3.130   3.967   6.106
    1   AR   Ar  190   4.822   6.248   5.837
    1   AR   Ar  191   4.838   5.240   5.323
    1   AR   Ar  192   3.972   5.903   5.377
    1   AR   Ar  193   0.473   6.109  -0.282
    1   AR   Ar  194   5.415   4.449  -1.660
    1   AR   Ar  195   6.513   0.503  -0.208
    1   AR   Ar  196   4.922   0.079  -0.569
    1   AR   Ar  197   5.441   1.592   0.518
    1   AR   Ar  198   6.333   1.026   1.072
    1   AR   Ar  199   5.181   1.141   1.560
    1   AR   Ar  200   6.539   1.730   0.406
    1   AR   Ar  201   4.991   6.839   3.056
    1   AR   Ar  202   5.159   2.387   4.221
    1   AR   Ar  203   6.499   6.151   4.710
    1   AR   Ar  204   5.184   0.676   3.900
    1   AR   Ar  205   6.137   0.877   3.365
    1   AR   Ar  206   5.109   0.043   4.859
    1   AR   Ar  207   7.001   0.312   5.789
    1   AR   Ar  208   6.898   0.377   3.869
    1   AR   Ar  209   5.273   2.460  -1.970
    1   AR   Ar  210   4.031   0.832   1.068
    1   AR   Ar  211   6.610   3.306   0.421
    1   AR   Ar  212   6.374   3.776  -1.775
    1   AR   Ar  213   3.424   2.015   2.527
    1   AR   Ar  214   3.837   3.093   2.446
    1   AR   Ar  215   6.215   2.192   1.429
    1   AR   Ar  216   6.829   4.041   1.205
    1   AR   Ar  217   4.204   3.076   3.566
    1   AR   Ar  218   4.495   2.630   5.224
    1   AR   Ar  219   5.335   1.524   3.345
    1   AR   Ar  220   5.385   2.781   2.689
    1   AR   Ar  221   6.427   0.379   4.830
    1   AR   Ar  222   4.454   1.451   5.799
    1   AR   Ar  223   7.099   0.835   6.837
    1   AR   Ar  224   5.430   2.788   5.719
    1   AR   Ar  225   5.771   5.408   0.503
    1   AR   Ar  226   4.864   4.089   2.579
    1   AR   Ar  227   6.966   5.029   0.599
    1   AR   Ar  228   5.037   5.926   1.363
    1   AR   Ar  229   5.884   4.310  -0.320
    1   AR   Ar  230   4.515   4.627   3.277
    1   AR   Ar  231   6.221   2.151   3.161
    1   AR   Ar  232   4.276   2.856   0.583
    1   AR   Ar  233   6.371   2.593   4.394
    1   AR   Ar  234   0.116   3.185   4.689
    1   AR   Ar  235   0.265   2.210   4.119
    1   AR   Ar  236   5.159   4.601   4.654
    1   AR   Ar  237   5.754   3.571   4.678
    1   AR   Ar  238   4.434   4.201   5.598
    1   AR   Ar  239   0.021   3.868   9.220
    1   AR   Ar  240   6.858   3.935   5.648
    1   AR   Ar  241   0.193   0.007   0.173
    1   AR   Ar  242   5.145   4.692   0.855
    1   AR   Ar  243   6.065   3.859   2.603
    1   AR   Ar  244   0.619   4.842  -1.233
    1   AR   Ar  245   5.661   0.143   1.394
    1   AR   Ar  246   6.017   5.778   1.577
    1   AR   Ar  247   5.452   3.693   0.986
    1   AR   Ar  248   5.805   6.551   0.723
    1   AR   Ar  249   4.910   5.512   2.350
    1   AR   Ar  250   5.373   6.020   4.853
    1   AR   Ar  251   5.963   5.392   4.229
    1   AR   Ar  252   5.069   5.779   3.608
    1   AR   Ar  253   5.507   4.209   5.840
    1   AR   Ar  254   4.643   5.206   6.429
    1   AR   Ar  255   5.064   3.167   7.600
    1   AR   Ar  256   5.665   6.808   4.093
    7.12000  7.12000 12.00000
Argon-slab step 2145
  256
    1   AR   Ar    1   7.043   1.614  -0.535
    1   AR   Ar    2   6.824   7.079   1.230
    1   AR   Ar    3   0.739   0.008   1.178
    1   AR   Ar    4   1.522   7.048   0.365
    1   AR   Ar    5   7.043   6.037   0.794
    1   AR   Ar    6   6.889   0.604   2.583
    1   AR   Ar    7   6.895   4.863   3.158
    1   AR   Ar    8   6.297   6.938   2.124
    1   AR   Ar    9   0.788   0.607   3.956
    1   AR   Ar   10   1.241   1.611   4.534
    1   AR   Ar   11   3.124   0.201   4.913
    1   AR   Ar   12   1.442   1.179   3.083
    1   AR   Ar   13   6.633   1.451   5.355
    1   AR   Ar   14   1.346   1.262   6.824
    1   AR   Ar   15   6.763   0.241   9.469
    1   AR   Ar   16   0.552   0.910   5.223
    1   AR   Ar   17   1.074   1.398  -0.205
    1   AR   Ar   18   6.043   2.984  -0.802
    1   AR   Ar   19   1.148   2.459   1.564
    1   AR   Ar   20   5.806   4.060  -2.738
    1   AR   Ar   21   5.982   0.863   2.220
    1   AR   Ar   22   7.085   1.891   2.108
    1   AR   Ar   23   0.235   1.092   0.457
    1   AR   Ar   24   0.081   2.162   1.063
    1   AR   Ar   25   0.137   1.347   3.289
    1   AR   Ar   26   6.401   1.549   4.140
    1   AR   Ar   27   2.433   1.354   3.498
    1   AR   Ar   28   1.150   2.652   4.911
    1   AR   Ar   29   5.424   1.450   6.533
    1   AR   Ar   30   1.026   2.111   5.796
    1   AR   Ar   31   0.358   6.854   6.984
    1   AR   Ar   32   1.958   2.965   5.758
    1   AR   Ar   33   1.625   4.643  -0.725
    1   AR   Ar   34   0.243   6.059   2.681
    1   AR   Ar   35   6.717   5.009   1.724
    1   AR   Ar   36   0.125   6.941  -3.294
    1   AR   Ar   37   6.773   3.046   2.280
    1   AR   Ar   38   0.128   4.268   2.182
    1   AR   Ar   39   1.288   4.080   2.757
    1   AR   Ar   40   1.412   3.945   1.703
    1   AR   Ar   41   0.122   2.359   3.034
    1   AR   Ar   42   6.906   5.258   4.865
    1   AR   Ar   43   6.730   2.448   5.779
    1   AR   Ar   44   0.543   4.117   3.544
    1   AR   Ar   45   0.683   3.191   5.822
    1   AR   Ar   46   0.825   5.632   6.254
    1   AR   Ar   47   6.064   3.183   6.446
    1   AR   Ar   48   6.429   6.173   6.275
    1   AR   Ar   49   6.663   6.871  -2.247
    1   AR   Ar   50   5.720   4.818   2.317
    1   AR   Ar   51   0.960   4.811   1.519
    1   AR   Ar   52   6.136   4.935  -1.148
    1   AR   Ar   53   5.665   6.215   2.545
    1   AR   Ar   54   6.323   6.968   3.075
    1   AR   Ar   55   5.674   4.938   3.320
    1   AR   Ar   56   0.409   7.060   2.098
    1   AR   Ar   57   6.644   3.245   3.303
    1   AR   Ar   58   6.814   5.867   3.646
    1   AR   Ar   59   1.763   5.491   5.749
    1   AR   Ar   60   0.585   6.614   4.038
    1   AR   Ar   61   5.857   5.408   5.519
    1   AR   Ar   62   0.752   5.736   5.277
    1   AR   Ar   63   2.046   6.325   6.656
    1   AR   Ar   64   0.724   6.896   5.896
    1   AR   Ar   65   3.723   6.971   0.275
    1   AR   Ar   66   1.368   1.127   1.033
    1   AR   Ar   67   3.585   6.235  -0.545
    1   AR   Ar   68   3.131   1.652  -0.938
    1   AR   Ar   69   2.853   1.054   0.983
    1   AR   Ar   70   0.789   1.056   2.245
    1   AR   Ar   71   3.060   0.775   2.880
    1   AR   Ar   72   3.251   0.446   1.750
    1   AR   Ar   73   2.638   0.067   3.602
    1   AR   Ar   74   2.502   0.897   4.532
    1   AR   Ar   75   3.578   1.054   5.226
    1   AR   Ar   76   2.397   1.130   2.036
    1   AR   Ar   77   2.286   6.400   5.566
    1   AR   Ar   78   1.714   0.308   6.200
    1   AR   Ar   79   3.179   5.862   6.980
    1   AR   Ar   80   3.011   5.435   5.624
    1   AR   Ar   81   2.397   1.326  -0.197
    1   AR   Ar   82   6.893   3.974  -0.687
    1   AR   Ar   83   1.793   2.069   0.458
    1   AR   Ar   84   0.733   3.413  -1.224
    1   AR   Ar   85   0.477   2.630  -0.619
    1   AR   Ar   86   2.019   3.148   1.497
    1   AR   Ar   87   2.142   2.041   1.701
    1   AR   Ar   88   3.738   3.871   1.636
    1   AR   Ar   89   0.725   3.115   2.250
    1   AR   Ar   90   2.885   2.007   4.627
    1   AR   Ar   91   1.270   2.079   3.503
    1   AR   Ar   92   1.366   2.145   2.490
    1   AR   Ar   93   2.123   1.513   5.858
    1   AR   Ar   94   0.432   0.739   9.195
    1   AR   Ar   95   3.800   6.579   6.247
    1   AR   Ar   96   2.899   0.816   6.229
    1   AR   Ar   97   3.856   2.727  -1.023
    1   AR   Ar   98   2.961   4.899   1.737
    1   AR   Ar   99   6.859   2.626  -1.366
    1   AR   Ar  100   1.651   3.130  -0.480
    1   AR   Ar  101   2.485   4.135   0.834
    1   AR   Ar  102   2.980   3.124   3.716
    1   AR   Ar  103   1.060   4.829   0.177
    1   AR   Ar  104   2.631   2.506  -0.649
    1   AR   Ar  105   1.892   3.013   3.000
    1   AR   Ar  106   2.314   3.071   4.620
    1   AR   Ar  107   1.870   3.908   5.490
    1   AR   Ar  108   3.737   2.835   4.495
    1   AR   Ar  109   1.887   4.250   3.684
    1   AR   Ar  110   1.361   4.572   6.120
    1   AR   Ar  111   4.133   4.117   6.800
    1   AR   Ar  112   0.830   5.157   7.518
    1   AR   Ar  113   2.555   4.705  -0.023
    1   AR   Ar  114   3.073   4.554  -1.170
    1   AR   Ar  115   2.722   3.666  -0.498
    1   AR   Ar  116   4.694   5.840  -0.676
    1   AR   Ar  117   0.758   5.475   3.676
    1   AR   Ar  118   0.337   6.893   3.190
    1   AR   Ar  119   2.286   3.918   2.391
    1   AR   Ar  120   1.098   5.127   2.576
    1   AR   Ar  121   6.870   4.102   4.248
    1   AR   Ar  122   2.753   6.039   4.683
    1   AR   Ar  123   2.514   4.750   4.983
    1   AR   Ar  124   1.895   5.426   1.942
    1   AR   Ar  125   0.824   4.121   5.046
    1   AR   Ar  126   0.329   7.081   4.869
    1   AR   Ar  127   3.649   4.788   7.639
    1   AR   Ar  128   2.267   5.158   6.763
    1   AR   Ar  129   1.663   0.409   2.330
    1   AR   Ar  130   3.521   1.369  -3.497
    1   AR   Ar  131   4.810   6.912   0.909
    1   AR   Ar  132   1.270   2.235  -1.181
    1   AR   Ar  133   3.897   0.119   3.400
    1   AR   Ar  134   4.088   1.150   3.358
    1   AR   Ar  135   4.952   0.809   2.587
    1   AR   Ar  136   4.734   0.163   1.906
    1   AR   Ar  137   3.299   6.376   3.716
    1   AR   Ar  138   5.048   1.128   4.888
    1   AR   Ar  139   5.673   1.947   5.053
    1   AR   Ar  140   4.238   0.678   4.399
    1   AR   Ar  141   3.841   6.629   4.445
    1   AR   Ar  142   4.102   7.118   5.327
    1   AR   Ar  143   5.671   6.844   5.670
    1   AR   Ar  144   4.806   0.493   5.889
    1   AR   Ar  145   4.077   4.017   0.579
    1   AR   Ar  146   4.225   2.302   1.560
    1   AR   Ar  147   5.793   1.865  -0.831
    1   AR   Ar  148   4.622   3.939  -2.630
    1   AR   Ar  149   3.323   2.002   1.301
    1   AR   Ar  150   2.391   2.021   2.632
    1   AR   Ar  151   3.139   2.094   3.484
    1   AR   Ar  152   2.829   2.838   0.297
    1   AR   Ar  153   3.341   0.925   3.959
    1   AR   Ar  154   4.044   1.865   4.355
    1   AR   Ar  155   5.783   0.840   5.769
    1   AR   Ar  156   3.039   4.092   4.080
    1   AR   Ar  157   3.108   2.819   5.824
    1   AR   Ar  158   1.015   2.720   6.807
    1   AR   Ar  159   3.274   1.665   6.044
    1   AR   Ar  160   3.050   2.304   6.947
    1   AR   Ar  161   5.181   2.524   1.119
    1   AR   Ar  162   4.542   4.962   0.028
    1   AR   Ar  163   5.208   2.866   0.141
    1   AR   Ar  164   4.088   5.223   1.518
    1   AR   Ar  165   3.024   3.152   1.309
    1   AR   Ar  166   3.010   5.137   3.979
    1   AR   Ar  167   4.479   1.961   2.795
    1   AR   Ar  168   5.058   3.273  -1.282
    1   AR   Ar  169   2.742   2.912   2.269
    1   AR   Ar  170   3.435   3.559   5.271
    1   AR   Ar  171   4.235   3.841   4.357
    1   AR   Ar  172   4.521   5.439   4.414
    1   AR   Ar  173   2.115   3.466   6.794
    1   AR   Ar  174   3.756   4.853   6.107
    1   AR   Ar  175   4.292   3.278   6.222
    1   AR   Ar  176   3.621   5.039   4.877
    1   AR   Ar  177   6.388   5.876  -0.383
    1   AR   Ar  178   2.606   6.006   0.845
    1   AR   Ar  179   4.347   5.853   0.474
    1   AR   Ar  180   2.804   3.340  -2.070
    1   AR   Ar  181   1.599   5.585   0.963
    1   AR   Ar  182   3.100   6.646   2.699
    1   AR   Ar  183   3.752   4.716   2.494
    1   AR   Ar  184   4.050   6.331   1.427
    1   AR   Ar  185   1.831   5.235   4.272
    1   AR   Ar  186   3.859   5.503   3.282
    1   AR   Ar  187   4.035   6.276   2.404
    1   AR   Ar  188   3.113   6.013   1.936
    1   AR   Ar  189   3.135   3.958   6.110
    1   AR   Ar  190   4.828   6.259   5.852
    1   AR   Ar  191   4.870   5.238   5.330
    1   AR   Ar  192   3.987   5.924   5.376
    1   AR   Ar  193   0.461   6.071  -0.290
    1   AR   Ar  194   5.409   4.453  -1.642
    1   AR   Ar  195   6.544   0.490  -0.185
    1   AR   Ar  196   4.907   0.048  -0.540
    1   AR   Ar  197   5.443   1.612   0.534
    1   AR   Ar  198   6.342   0.988   1.077
    1   AR   Ar  199   5.187   1.155   1.553
    1   AR   Ar  200   6.508   1.770   0.407
    1   AR   Ar  201   4.972   6.836   3.029
    1   AR   Ar  202   5.167   2.411   4.242
    1   AR   Ar  203   6.526   6.166   4.698
    1   AR   Ar  204   5.169   0.667   3.904
    1   AR   Ar  205   6.167   0.887   3.377
    1   AR   Ar  206   5.100   0.035   4.827
    1   AR   Ar  207   7.010   0.305   5.776
    1   AR   Ar  208   6.904   0.408   3.892
    1   AR   Ar  209   5.312   2.443  -2.019
    1   AR   Ar  210   4.019   0.823   1.061
    1   AR   Ar  211   6.639   3.286   0.427
    1   AR   Ar  212   6.386   3.767  -1.806
    1   AR   Ar  213   3.404   2.019   2.523
    1   AR   Ar  214   3.833   3.069   2.406
    1   AR   Ar  215   6.208   2.180   1.396
    1   AR   Ar  216   6.847   4.086   1.194
    1   AR   Ar  217   4.209   3.074   3.524
    1   AR   Ar  218   4.484   2.628   5.233
    1   AR   Ar  219   5.339   1.532   3.343
    1   AR   Ar  220   5.398   2.798   2.687
    1   AR   Ar  221   6.429   0.380   4.841
    1   AR   Ar  222   4.454   1.447   5.816
    1   AR   Ar  223   7.107   0.825   6.847
    1   AR   Ar  224   5.400   2.796   5.699
    1   AR   Ar  225   5.781   5.394   0.477
    1   AR   Ar  226   4.900   4.086   2.593
    1   AR   Ar  227   7.014   5.043   0.599
    1   AR   Ar  228   5.021   5.953   1.360
    1   AR   Ar  229   5.894   4.339  -0.305
    1   AR   Ar  230   4.516   4.644   3.259
    1   AR   Ar  231   6.239   2.160   3.159
    1   AR   Ar  232   4.208   2.845   0.580
    1   AR   Ar  233   6.352   2.571   4.407
    1   AR   Ar  234   0.102   3.171   4.727
    1   AR   Ar  235   0.246   2.185   4.112
    1   AR   Ar  236   5.134   4.624   4.654
    1   AR   Ar  237   5.732   3.592   4.709
    1   AR   Ar  238   4.390   4.190   5.600
    1   AR   Ar  239   0.013   3.870   9.234
    1   AR   Ar  240   6.847   3.918   5.626
    1   AR   Ar  241   0.160   7.111   0.171
    1   AR   Ar  242   5.152   4.677   0.840
    1   AR   Ar  243   6.044   3.891   2.621
    1   AR   Ar  244   0.629   4.848  -1.237
    1   AR   Ar  245   5.684   0.156   1.363
    1   AR   Ar  246   6.007   5.787   1.578
    1   AR   Ar  247   5.448   3.700   0.990
    1   AR   Ar  248   5.791   6.549   0.702
    1   AR   Ar  249   4.911   5.486   2.358
    1   AR   Ar  250   5.411   6.025   4.825
    1   AR   Ar  251   5.967   5.396   4.232
    1   AR   Ar  252   5.031   5.779   3.622
    1   AR   Ar  253   5.461   4.209   5.847
    1   AR   Ar  254   4.613   5.230   6.446
    1   AR   Ar  255   5.064   3.158   7.611
    1   AR   Ar  256   5.653   6.799   4.085
    7.12000  7.12000 12.00000
Argon-slab step 2150
  256
    1   AR   Ar    1   7.013   1.635  -0.548
    1   AR   Ar    2   6.833   7.060   1.241
    1   AR   Ar    3   0.763   0.012   1.169
    1   AR   Ar    4   1.527   7.075   0.359
    1   AR   Ar    5   7.065   6.017   0.778
    1   AR   Ar    6   6.907   0.554   2.576
    1   AR   Ar    7   6.912   4.869   3.186
    1   AR   Ar    8   6.301   6.948   2.136
    1   AR   Ar    9   0.774   0.640   3.937
    1   AR   Ar   10   1.238   1.610   4.534
    1   AR   Ar   11   3.149   0.198   4.910
    1   AR   Ar   12   1.440   1.196   3.075
    1   AR   Ar   13   6.626   1.445   5.331
    1   AR   Ar   14   1.357   1.270   6.825
    1   AR   Ar   15   6.768   0.252   9.478
    1   AR   Ar   16   0.541   0.922   5.213
    1   AR   Ar   17   1.098   1.413  -0.211
    1   AR   Ar   18   6.058   2.981  -0.827
    1   AR   Ar   19   1.136   2.463   1.554
    1   AR   Ar   20   5.793   4.034  -2.749
    1   AR   Ar   21   5.988   0.862   2.244
    1   AR   Ar   22   7.086   1.881   2.099
    1   AR   Ar   23   0.230   1.090   0.433
    1   AR   Ar   24   0.078   2.180   1.069
    1   AR   Ar   25   0.094   1.340   3.312
    1   AR   Ar   26   6.402   1.525   4.155
    1   AR   Ar   27   2.435   1.358   3.503
    1   AR   Ar   28   1.156   2.667   4.955
    1   AR   Ar   29   5.399   1.457   6.525
    1   AR   Ar   30   1.027   2.103   5.810
    1   AR   Ar   31   0.335   6.857   6.988
    1   AR   Ar   32   1.924   2.945   5.754
    1   AR   Ar   33   1.622   4.610  -0.736
    1   AR   Ar   34   0.235   6.013   2.679
    1   AR   Ar   35   6.721   5.005   1.774
    1   AR   Ar   36   0.116   6.949  -3.282
    1   AR   Ar   37   6.771   3.008   2.301
    1   AR   Ar   38   0.151   4.283   2.224
    1   AR   Ar   39   1.274   4.065   2.767
    1   AR   Ar   40   1.409   3.929   1.713
    1   AR   Ar   41   0.146   2.327   3.045
    1   AR   Ar   42   6.904   5.256   4.840
    1   AR   Ar   43   6.758   2.414   5.756
    1   AR   Ar   44   0.524   4.131   3.551
    1   AR   Ar   45   0.683   3.159   5.837
    1   AR   Ar   46   0.851   5.669   6.259
    1   AR   Ar   47   6.060   3.178   6.483
    1   AR   Ar   48   6.448   6.163   6.254
    1   AR   Ar   49   6.648   6.885  -2.260
    1   AR   Ar   50   5.688   4.850   2.304
    1   AR   Ar   51   0.960   4.825   1.540
    1   AR   Ar   52   6.165   4.947  -1.171
    1   AR   Ar   53   5.658   6.213   2.579
    1   AR   Ar   54   6.338   6.981   3.095
    1   AR   Ar   55   5.632   4.886   3.319
    1   AR   Ar   56   0.408   7.066   2.103
    1   AR   Ar   57   6.651   3.274   3.293
    1   AR   Ar   58   6.830   5.858   3.678
    1   AR   Ar   59   1.763   5.485   5.740
    1   AR   Ar   60   0.594   6.606   4.037
    1   AR   Ar   61   5.870   5.386   5.490
    1   AR   Ar   62   0.767   5.742   5.270
    1   AR   Ar   63   2.041   6.297   6.718
    1   AR   Ar   64   0.723   6.893   5.893
    1   AR   Ar   65   3.727   6.998   0.316
    1   AR   Ar   66   1.356   1.129   1.042
    1   AR   Ar   67   3.561   6.190  -0.600
    1   AR   Ar   68   3.147   1.659  -0.954
    1   AR   Ar   69   2.869   1.080   0.989
    1   AR   Ar   70   0.818   1.055   2.217
    1   AR   Ar   71   3.071   0.750   2.868
    1   AR   Ar   72   3.240   0.469   1.744
    1   AR   Ar   73   2.696   0.059   3.578
    1   AR   Ar   74   2.506   0.917   4.546
    1   AR   Ar   75   3.580   1.067   5.228
    1   AR   Ar   76   2.398   1.120   2.037
    1   AR   Ar   77   2.293   6.399   5.579
    1   AR   Ar   78   1.711   0.301   6.195
    1   AR   Ar   79   3.173   5.841   6.976
    1   AR   Ar   80   3.019   5.405   5.617
    1   AR   Ar   81   2.405   1.374  -0.207
    1   AR   Ar   82   6.912   3.978  -0.673
    1   AR   Ar   83   1.799   2.111   0.409
    1   AR   Ar   84   0.736   3.423  -1.186
    1   AR   Ar   85   0.510   2.671  -0.619
    1   AR   Ar   86   2.010   3.145   1.502
    1   AR   Ar   87   2.152   2.056   1.702
    1   AR   Ar   88   3.727   3.891   1.635
    1   AR   Ar   89   0.678   3.139   2.246
    1   AR   Ar   90   2.867   2.059   4.634
    1   AR   Ar   91   1.245   2.117   3.475
    1   AR   Ar   92   1.334   2.158   2.491
    1   AR   Ar   93   2.125   1.486   5.870
    1   AR   Ar   94   0.431   0.760   9.225
    1   AR   Ar   95   3.843   6.584   6.249
    1   AR   Ar   96   2.910   0.811   6.243
    1   AR   Ar   97   3.856   2.694  -1.045
    1   AR   Ar   98   2.984   4.897   1.724
    1   AR   Ar   99   6.850   2.626  -1.342
    1   AR   Ar  100   1.639   3.111  -0.500
    1   AR   Ar  101   2.463   4.126   0.801
    1   AR   Ar  102   3.025   3.120   3.738
    1   AR   Ar  103   1.057   4.809   0.189
    1   AR   Ar  104   2.629   2.486  -0.698
    1   AR   Ar  105   1.897   3.029   3.034
    1   AR   Ar  106   2.332   3.089   4.619
    1   AR   Ar  107   1.871   3.923   5.505
    1   AR   Ar  108   3.708   2.807   4.511
    1   AR   Ar  109   1.832   4.246   3.707
    1   AR   Ar  110   1.364   4.577   6.111
    1   AR   Ar  111   4.146   4.089   6.812
    1   AR   Ar  112   0.840   5.180   7.516
    1   AR   Ar  113   2.540   4.702  -0.046
    1   AR   Ar  114   3.072   4.555  -1.211
    1   AR   Ar  115   2.717   3.663  -0.491
    1   AR   Ar  116   4.714   5.813  -0.703
    1   AR   Ar  117   0.774   5.461   3.671
    1   AR   Ar  118   0.351   6.889   3.194
    1   AR   Ar  119   2.261   3.920   2.373
    1   AR   Ar  120   1.096   5.097   2.562
    1   AR   Ar  121   6.853   4.085   4.251
    1   AR   Ar  122   2.764   6.052   4.707
    1   AR   Ar  123   2.510   4.749   4.983
    1   AR   Ar  124   1.878   5.389   1.937
    1   AR   Ar  125   0.784   4.136   5.071
    1   AR   Ar  126   0.312   7.062   4.851
    1   AR   Ar  127   3.645   4.780   7.617
    1   AR   Ar  128   2.275   5.131   6.763
    1   AR   Ar  129   1.624   0.401   2.308
    1   AR   Ar  130   3.534   1.390  -3.492
    1   AR   Ar  131   4.789   6.940   0.918
    1   AR   Ar  132   1.322   2.224  -1.159
    1   AR   Ar  133   3.904   0.147   3.417
    1   AR   Ar  134   4.088   1.157   3.349
    1   AR   Ar  135   4.940   0.809   2.602
    1   AR   Ar  136   4.736   0.167   1.889
    1   AR   Ar  137   3.309   6.364   3.726
    1   AR   Ar  138   5.034   1.140   4.896
    1   AR   Ar  139   5.692   1.944   5.055
    1   AR   Ar  140   4.224   0.636   4.410
    1   AR   Ar  141   3.849   6.644   4.453
    1   AR   Ar  142   4.106   7.106   5.319
    1   AR   Ar  143   5.653   6.849   5.672
    1   AR   Ar  144   4.812   0.492   5.852
    1   AR   Ar  145   4.038   4.011   0.610
    1   AR   Ar  146   4.283   2.300   1.553
    1   AR   Ar  147   5.793   1.850  -0.855
    1   AR   Ar  148   4.620   3.936  -2.631
    1   AR   Ar  149   3.327   2.008   1.256
    1   AR   Ar  150   2.403   2.026   2.656
    1   AR   Ar  151   3.144   2.094   3.462
    1   AR   Ar  152   2.827   2.826   0.301
    1   AR   Ar  153   3.344   0.942   3.974
    1   AR   Ar  154   4.039   1.874   4.318
    1   AR   Ar  155   5.827   0.811   5.747
    1   AR   Ar  156   3.050   4.077   4.052
    1   AR   Ar  157   3.080   2.825   5.797
    1   AR   Ar  158   1.035   2.755   6.798
    1   AR   Ar  159   3.268   1.671   6.028
    1   AR   Ar  160   3.022   2.301   6.905
    1   AR   Ar  161   5.188   2.537   1.130
    1   AR   Ar  162   4.549   4.963   0.020
    1   AR   Ar  163   5.191   2.876   0.157
    1   AR   Ar  164   4.078   5.251   1.505
    1   AR   Ar  165   3.050   3.138   1.321
    1   AR   Ar  166   3.034   5.122   3.992
    1   AR   Ar  167   4.496   1.939   2.796
    1   AR   Ar  168   5.012   3.270  -1.228
    1   AR   Ar  169   2.747   2.903   2.253
    1   AR   Ar  170   3.459   3.580   5.276
    1   AR   Ar  171   4.249   3.861   4.371
    1   AR   Ar  172   4.513   5.463   4.409
    1   AR   Ar  173   2.121   3.448   6.764
    1   AR   Ar  174   3.755   4.840   6.094
    1   AR   Ar  175   4.277   3.280   6.241
    1   AR   Ar  176   3.606   5.055   4.860
    1   AR   Ar  177   6.381   5.863  -0.370
    1   AR   Ar  178   2.574   6.001   0.811
    1   AR   Ar  179   4.376   5.905   0.470
    1   AR   Ar  180   2.802   3.362  -2.050
    1   AR   Ar  181   1.596   5.583   0.973
    1   AR   Ar  182   3.075   6.654   2.674
    1   AR   Ar  183   3.739   4.754   2.506
    1   AR   Ar  184   4.082   6.333   1.408
    1   AR   Ar  185   1.865   5.225   4.229
    1   AR   Ar  186   3.881   5.525   3.284
    1   AR   Ar  187   4.027   6.309   2.387
    1   AR   Ar  188   3.091   6.030   1.893
    1   AR   Ar  189   3.135   3.953   6.126
    1   AR   Ar  190   4.836   6.270   5.868
    1   AR   Ar  191   4.891   5.245   5.361
    1   AR   Ar  192   3.999   5.943   5.370
    1   AR   Ar  193   0.448   6.032  -0.295
    1   AR   Ar  194   5.397   4.451  -1.628
    1   AR   Ar  195   6.560   0.489  -0.167
    1   AR   Ar  196   4.892   0.017  -0.511
    1   AR   Ar  197   5.445   1.632   0.551
    1   AR   Ar  198   6.351   0.948   1.085
    1   AR   Ar  199   5.192   1.170   1.543
    1   AR   Ar  200   6.474   1.812   0.401
    1   AR   Ar  201   4.963   6.854   3.005
    1   AR   Ar  202   5.174   2.434   4.261
    1   AR   Ar  203   6.550   6.195   4.687
    1   AR   Ar  204   5.146   0.663   3.908
    1   AR   Ar  205   6.191   0.894   3.386
    1   AR   Ar  206   5.083   0.030   4.801
    1   AR   Ar  207   7.007   0.303   5.767
    1   AR   Ar  208   6.910   0.436   3.916
    1   AR   Ar  209   5.351   2.427  -2.067
    1   AR   Ar  210   4.009   0.814   1.054
    1   AR   Ar  211   6.667   3.280   0.424
    1   AR   Ar  212   6.376   3.770  -1.835
    1   AR   Ar  213   3.391   2.021   2.509
    1   AR   Ar  214   3.829   3.044   2.365
    1   AR   Ar  215   6.217   2.188   1.377
    1   AR   Ar  216   6.865   4.130   1.182
    1   AR   Ar  217   4.214   3.070   3.482
    1   AR   Ar  218   4.471   2.625   5.241
    1   AR   Ar  219   5.342   1.545   3.340
    1   AR   Ar  220   5.412   2.815   2.686
    1   AR   Ar  221   6.426   0.382   4.853
    1   AR   Ar  222   4.452   1.449   5.831
    1   AR   Ar  223   7.115   0.815   6.855
    1   AR   Ar  224   5.373   2.805   5.679
    1   AR   Ar  225   5.795   5.385   0.450
    1   AR   Ar  226   4.954   4.067   2.593
    1   AR   Ar  227   7.062   5.050   0.598
    1   AR   Ar  228   5.004   5.978   1.355
    1   AR   Ar  229   5.903   4.367  -0.287
    1   AR   Ar  230   4.512   4.674   3.259
    1   AR   Ar  231   6.264   2.148   3.134
    1   AR   Ar  232   4.138   2.834   0.578
    1   AR   Ar  233   6.332   2.552   4.421
    1   AR   Ar  234   0.090   3.157   4.768
    1   AR   Ar  235   0.209   2.188   4.041
    1   AR   Ar  236   5.118   4.631   4.640
    1   AR   Ar  237   5.710   3.612   4.741
    1   AR   Ar  238   4.346   4.177   5.599
    1   AR   Ar  239   0.013   3.891   9.206
    1   AR   Ar  240   6.837   3.900   5.602
    1   AR   Ar  241   0.142   7.083   0.179
    1   AR   Ar  242   5.155   4.664   0.829
    1   AR   Ar  243   6.025   3.919   2.640
    1   AR   Ar  244   0.638   4.853  -1.240
    1   AR   Ar  245   5.706   0.180   1.339
    1   AR   Ar  246   6.001   5.798   1.579
    1   AR   Ar  247   5.457   3.703   0.959
    1   AR   Ar  248   5.781   6.537   0.674
    1   AR   Ar  249   4.906   5.461   2.369
    1   AR   Ar  250   5.443   6.038   4.797
    1   AR   Ar  251   5.960   5.444   4.225
    1   AR   Ar  252   4.998   5.783   3.628
    1   AR   Ar  253   5.415   4.211   5.852
    1   AR   Ar  254   4.592   5.258   6.465
    1   AR   Ar  255   5.065   3.149   7.621
    1   AR   Ar  256   5.650   6.786   4.068
    7.12000  7.12000 12.00000
Argon-slab step 2155
  256
    1   AR   Ar    1   6.983   1.656  -0.562
    1   AR   Ar    2   6.839   7.041   1.247
    1   AR   Ar    3   0.793   0.017   1.151
    1   AR   Ar    4   1.532   7.103   0.352
    1   AR   Ar    5   7.085   6.010   0.764
    1   AR   Ar    6   6.929   0.515   2.577
    1   AR   Ar    7   6.929   4.874   3.212
    1   AR   Ar    8   6.304   6.952   2.131
    1   AR   Ar    9   0.768   0.675   3.918
    1   AR   Ar   10   1.234   1.609   4.533
    1   AR   Ar   11   3.172   0.187   4.905
    1   AR   Ar   12   1.441   1.207   3.067
    1   AR   Ar   13   6.621   1.436   5.304
    1   AR   Ar   14   1.369   1.278   6.823
    1   AR   Ar   15   6.761   0.261   9.471
    1   AR   Ar   16   0.547   0.919   5.219
    1   AR   Ar   17   1.121   1.429  -0.217
    1   AR   Ar   18   6.066   2.982  -0.848
    1   AR   Ar   19   1.122   2.467   1.533
    1   AR   Ar   20   5.777   4.018  -2.756
    1   AR   Ar   21   5.990   0.864   2.266
    1   AR   Ar   22   7.087   1.869   2.090
    1   AR   Ar   23   0.223   1.087   0.410
    1   AR   Ar   24   0.058   2.196   1.032
    1   AR   Ar   25   0.052   1.328   3.337
    1   AR   Ar   26   6.404   1.502   4.173
    1   AR   Ar   27   2.409   1.368   3.501
    1   AR   Ar   28   1.153   2.683   4.971
    1   AR   Ar   29   5.374   1.464   6.516
    1   AR   Ar   30   1.023   2.097   5.843
    1   AR   Ar   31   0.342   6.849   7.022
    1   AR   Ar   32   1.890   2.917   5.752
    1   AR   Ar   33   1.624   4.570  -0.715
    1   AR   Ar   34   0.226   5.960   2.675
    1   AR   Ar   35   6.722   5.009   1.822
    1   AR   Ar   36   0.106   6.970  -3.256
    1   AR   Ar   37   6.763   2.969   2.318
    1   AR   Ar   38   0.120   4.294   2.238
    1   AR   Ar   39   1.259   4.048   2.778
    1   AR   Ar   40   1.402   3.913   1.724
    1   AR   Ar   41   0.178   2.303   3.047
    1   AR   Ar   42   6.904   5.248   4.816
    1   AR   Ar   43   6.787   2.383   5.732
    1   AR   Ar   44   0.507   4.144   3.558
    1   AR   Ar   45   0.683   3.129   5.850
    1   AR   Ar   46   0.877   5.707   6.277
    1   AR   Ar   47   6.057   3.173   6.518
    1   AR   Ar   48   6.467   6.153   6.232
    1   AR   Ar   49   6.635   6.886  -2.254
    1   AR   Ar   50   5.664   4.880   2.283
    1   AR   Ar   51   0.955   4.843   1.556
    1   AR   Ar   52   6.199   4.963  -1.191
    1   AR   Ar   53   5.685   6.211   2.590
    1   AR   Ar   54   6.350   6.989   3.137
    1   AR   Ar   55   5.590   4.834   3.324
    1   AR   Ar   56   0.411   7.065   2.112
    1   AR   Ar   57   6.659   3.304   3.290
    1   AR   Ar   58   6.846   5.851   3.710
    1   AR   Ar   59   1.768   5.478   5.729
    1   AR   Ar   60   0.615   6.579   4.056
    1   AR   Ar   61   5.885   5.396   5.479
    1   AR   Ar   62   0.780   5.749   5.253
    1   AR   Ar   63   2.036   6.268   6.777
    1   AR   Ar   64   0.731   6.885   5.892
    1   AR   Ar   65   3.731   7.023   0.358
    1   AR   Ar   66   1.343   1.131   1.051
    1   AR   Ar   67   3.539   6.145  -0.654
    1   AR   Ar   68   3.168   1.661  -0.972
    1   AR   Ar   69   2.882   1.108   0.991
    1   AR   Ar   70   0.841   1.058   2.188
    1   AR   Ar   71   3.084   0.713   2.875
    1   AR   Ar   72   3.230   0.488   1.744
    1   AR   Ar   73   2.752   0.055   3.557
    1   AR   Ar   74   2.502   0.942   4.563
    1   AR   Ar   75   3.585   1.084   5.228
    1   AR   Ar   76   2.393   1.106   2.040
    1   AR   Ar   77   2.300   6.401   5.595
    1   AR   Ar   78   1.709   0.294   6.190
    1   AR   Ar   79   3.167   5.819   6.970
    1   AR   Ar   80   3.022   5.383   5.616
    1   AR   Ar   81   2.411   1.423  -0.215
    1   AR   Ar   82   6.930   3.982  -0.661
    1   AR   Ar   83   1.805   2.153   0.361
    1   AR   Ar   84   0.742   3.445  -1.156
    1   AR   Ar   85   0.538   2.699  -0.604
    1   AR   Ar   86   2.002   3.137   1.505
    1   AR   Ar   87   2.159   2.077   1.689
    1   AR   Ar   88   3.718   3.913   1.637
    1   AR   Ar   89   0.637   3.165   2.244
    1   AR   Ar   90   2.850   2.109   4.641
    1   AR   Ar   91   1.217   2.159   3.461
    1   AR   Ar   92   1.302   2.168   2.489
    1   AR   Ar   93   2.126   1.459   5.883
    1   AR   Ar   94   0.443   0.790   9.249
    1   AR   Ar   95   3.884   6.589   6.252
    1   AR   Ar   96   2.913   0.787   6.260
    1   AR   Ar   97   3.855   2.660  -1.067
    1   AR   Ar   98   3.007   4.895   1.710
    1   AR   Ar   99   6.846   2.624  -1.321
    1   AR   Ar  100   1.629   3.093  -0.520
    1   AR   Ar  101   2.440   4.112   0.774
    1   AR   Ar  102   3.068   3.110   3.757
    1   AR   Ar  103   1.054   4.790   0.202
    1   AR   Ar  104   2.622   2.472  -0.746
    1   AR   Ar  105   1.903   3.045   3.066
    1   AR   Ar  106   2.350   3.108   4.620
    1   AR   Ar  107   1.875   3.941   5.513
    1   AR   Ar  108   3.677   2.787   4.527
    1   AR   Ar  109   1.779   4.240   3.731
    1   AR   Ar  110   1.363   4.583   6.106
    1   AR   Ar  111   4.158   4.070   6.829
    1   AR   Ar  112   0.851   5.204   7.514
    1   AR   Ar  113   2.525   4.702  -0.073
    1   AR   Ar  114   3.069   4.556  -1.250
    1   AR   Ar  115   2.710   3.660  -0.485
    1   AR   Ar  116   4.734   5.787  -0.729
    1   AR   Ar  117   0.789   5.446   3.664
    1   AR   Ar  118   0.356   6.903   3.170
    1   AR   Ar  119   2.239   3.922   2.355
    1   AR   Ar  120   1.090   5.067   2.553
    1   AR   Ar  121   6.835   4.068   4.257
    1   AR   Ar  122   2.778   6.063   4.728
    1   AR   Ar  123   2.506   4.745   4.981
    1   AR   Ar  124   1.866   5.351   1.935
    1   AR   Ar  125   0.743   4.151   5.096
    1   AR   Ar  126   0.291   7.047   4.842
    1   AR   Ar  127   3.641   4.772   7.593
    1   AR   Ar  128   2.282   5.105   6.761
    1   AR   Ar  129   1.594   0.392   2.293
    1   AR   Ar  130   3.551   1.418  -3.491
    1   AR   Ar  131   4.766   6.969   0.918
    1   AR   Ar  132   1.375   2.213  -1.137
    1   AR   Ar  133   3.913   0.167   3.429
    1   AR   Ar  134   4.100   1.148   3.339
    1   AR   Ar  135   4.930   0.817   2.628
    1   AR   Ar  136   4.738   0.172   1.866
    1   AR   Ar  137   3.309   6.341   3.720
    1   AR   Ar  138   5.019   1.151   4.906
    1   AR   Ar  139   5.712   1.942   5.059
    1   AR   Ar  140   4.208   0.591   4.424
    1   AR   Ar  141   3.871   6.662   4.471
    1   AR   Ar  142   4.110   7.093   5.315
    1   AR   Ar  143   5.643   6.856   5.672
    1   AR   Ar  144   4.824   0.488   5.817
    1   AR   Ar  145   4.000   4.006   0.639
    1   AR   Ar  146   4.338   2.298   1.552
    1   AR   Ar  147   5.795   1.838  -0.877
    1   AR   Ar  148   4.620   3.934  -2.631
    1   AR   Ar  149   3.327   2.016   1.211
    1   AR   Ar  150   2.407   2.027   2.695
    1   AR   Ar  151   3.153   2.095   3.453
    1   AR   Ar  152   2.825   2.813   0.308
    1   AR   Ar  153   3.340   0.959   3.991
    1   AR   Ar  154   4.036   1.874   4.279
    1   AR   Ar  155   5.874   0.783   5.723
    1   AR   Ar  156   3.061   4.067   4.029
    1   AR   Ar  157   3.047   2.823   5.776
    1   AR   Ar  158   1.057   2.790   6.789
    1   AR   Ar  159   3.270   1.697   6.008
    1   AR   Ar  160   2.994   2.300   6.861
    1   AR   Ar  161   5.198   2.505   1.153
    1   AR   Ar  162   4.555   4.962   0.009
    1   AR   Ar  163   5.175   2.889   0.168
    1   AR   Ar  164   4.068   5.279   1.492
    1   AR   Ar  165   3.081   3.124   1.325
    1   AR   Ar  166   3.055   5.111   4.002
    1   AR   Ar  167   4.512   1.922   2.794
    1   AR   Ar  168   4.967   3.266  -1.173
    1   AR   Ar  169   2.752   2.896   2.244
    1   AR   Ar  170   3.491   3.605   5.263
    1   AR   Ar  171   4.261   3.881   4.385
    1   AR   Ar  172   4.495   5.487   4.411
    1   AR   Ar  173   2.127   3.431   6.733
    1   AR   Ar  174   3.747   4.829   6.080
    1   AR   Ar  175   4.262   3.275   6.253
    1   AR   Ar  176   3.597   5.066   4.842
    1   AR   Ar  177   6.375   5.849  -0.356
    1   AR   Ar  178   2.544   5.997   0.779
    1   AR   Ar  179   4.405   5.959   0.465
    1   AR   Ar  180   2.801   3.384  -2.029
    1   AR   Ar  181   1.599   5.585   0.988
    1   AR   Ar  182   3.048   6.671   2.656
    1   AR   Ar  183   3.726   4.791   2.517
    1   AR   Ar  184   4.101   6.341   1.380
    1   AR   Ar  185   1.900   5.217   4.187
    1   AR   Ar  186   3.877   5.545   3.294
    1   AR   Ar  187   4.023   6.341   2.383
    1   AR   Ar  188   3.069   6.039   1.842
    1   AR   Ar  189   3.131   3.952   6.153
    1   AR   Ar  190   4.844   6.278   5.886
    1   AR   Ar  191   4.899   5.258   5.406
    1   AR   Ar  192   4.006   5.976   5.342
    1   AR   Ar  193   0.434   5.993  -0.299
    1   AR   Ar  194   5.381   4.444  -1.618
    1   AR   Ar  195   6.558   0.503  -0.156
    1   AR   Ar  196   4.876   7.104  -0.479
    1   AR   Ar  197   5.445   1.651   0.569
    1   AR   Ar  198   6.363   0.912   1.093
    1   AR   Ar  199   5.196   1.185   1.533
    1   AR   Ar  200   6.440   1.854   0.390
    1   AR   Ar  201   4.954   6.879   2.983
    1   AR   Ar  202   5.179   2.458   4.278
    1   AR   Ar  203   6.573   6.234   4.676
    1   AR   Ar  204   5.127   0.658   3.909
    1   AR   Ar  205   6.204   0.898   3.390
    1   AR   Ar  206   5.060   0.028   4.784
    1   AR   Ar  207   6.992   0.305   5.761
    1   AR   Ar  208   6.915   0.458   3.942
    1   AR   Ar  209   5.391   2.411  -2.113
    1   AR   Ar  210   4.001   0.804   1.048
    1   AR   Ar  211   6.695   3.273   0.421
    1   AR   Ar  212   6.365   3.772  -1.862
    1   AR   Ar  213   3.391   2.020   2.480
    1   AR   Ar  214   3.826   3.018   2.325
    1   AR   Ar  215   6.233   2.210   1.369
    1   AR   Ar  216   6.882   4.170   1.168
    1   AR   Ar  217   4.217   3.065   3.439
    1   AR   Ar  218   4.473   2.613   5.255
    1   AR   Ar  219   5.344   1.562   3.338
    1   AR   Ar  220   5.426   2.833   2.685
    1   AR   Ar  221   6.419   0.384   4.866
    1   AR   Ar  222   4.448   1.457   5.845
    1   AR   Ar  223   0.003   0.803   6.862
    1   AR   Ar  224   5.351   2.816   5.661
    1   AR   Ar  225   5.808   5.372   0.437
    1   AR   Ar  226   5.009   4.042   2.588
    1   AR   Ar  227   7.110   5.046   0.594
    1   AR   Ar  228   4.995   5.999   1.351
    1   AR   Ar  229   5.911   4.394  -0.268
    1   AR   Ar  230   4.507   4.709   3.267
    1   AR   Ar  231   6.287   2.130   3.104
    1   AR   Ar  232   4.067   2.823   0.578
    1   AR   Ar  233   6.312   2.536   4.433
    1   AR   Ar  234   0.079   3.143   4.809
    1   AR   Ar  235   0.174   2.189   3.981
    1   AR   Ar  236   5.108   4.626   4.615
    1   AR   Ar  237   5.688   3.631   4.774
    1   AR   Ar  238   4.306   4.162   5.593
    1   AR   Ar  239   0.012   3.913   9.177
    1   AR   Ar  240   6.828   3.880   5.576
    1   AR   Ar  241   0.144   7.040   0.197
    1   AR   Ar  242   5.153   4.654   0.823
    1   AR   Ar  243   6.010   3.943   2.660
    1   AR   Ar  244   0.646   4.857  -1.241
    1   AR   Ar  245   5.725   0.206   1.320
    1   AR   Ar  246   5.999   5.810   1.580
    1   AR   Ar  247   5.447   3.699   0.941
    1   AR   Ar  248   5.774   6.517   0.642
    1   AR   Ar  249   4.889   5.456   2.382
    1   AR   Ar  250   5.462   6.063   4.778
    1   AR   Ar  251   5.958   5.481   4.210
    1   AR   Ar  252   4.973   5.793   3.622
    1   AR   Ar  253   5.370   4.212   5.856
    1   AR   Ar  254   4.576   5.289   6.486
    1   AR   Ar  255   5.066   3.141   7.630
    1   AR   Ar  256   5.653   6.770   4.041
    7.12000  7.12000 12.00000
Argon-slab step 2160
  256
    1   AR   Ar    1   6.954   1.678  -0.575
    1   AR   Ar    2   6.850   7.030   1.257
    1   AR   Ar    3   0.824   0.024   1.129
    1   AR   Ar    4   1.536   0.011   0.346
    1   AR   Ar    5   7.099   6.011   0.750
    1   AR   Ar    6   6.945   0.497   2.589
    1   AR   Ar    7   6.944   4.881   3.236
    1   AR   Ar    8   6.304   6.951   2.119
    1   AR   Ar    9   0.770   0.713   3.899
    1   AR   Ar   10   1.229   1.608   4.532
    1   AR   Ar   11   3.190   0.173   4.898
    1   AR   Ar   12   1.441   1.216   3.058
    1   AR   Ar   13   6.618   1.422   5.275
    1   AR   Ar   14   1.380   1.285   6.819
    1   AR   Ar   15   6.746   0.276   9.438
    1   AR   Ar   16   0.563   0.907   5.235
    1   AR   Ar   17   1.147   1.449  -0.225
    1   AR   Ar   18   6.062   2.988  -0.861
    1   AR   Ar   19   1.105   2.472   1.506
    1   AR   Ar   20   5.757   4.019  -2.759
    1   AR   Ar   21   5.989   0.868   2.288
    1   AR   Ar   22   7.088   1.856   2.081
    1   AR   Ar   23   0.220   1.080   0.395
    1   AR   Ar   24   0.050   2.213   0.994
    1   AR   Ar   25   0.011   1.312   3.360
    1   AR   Ar   26   6.408   1.481   4.198
    1   AR   Ar   27   2.381   1.373   3.504
    1   AR   Ar   28   1.137   2.696   4.949
    1   AR   Ar   29   5.348   1.470   6.504
    1   AR   Ar   30   1.020   2.087   5.878
    1   AR   Ar   31   0.350   6.840   7.055
    1   AR   Ar   32   1.856   2.885   5.751
    1   AR   Ar   33   1.628   4.525  -0.675
    1   AR   Ar   34   0.216   5.905   2.670
    1   AR   Ar   35   6.730   5.018   1.859
    1   AR   Ar   36   0.096   6.990  -3.230
    1   AR   Ar   37   6.758   2.941   2.323
    1   AR   Ar   38   0.082   4.295   2.251
    1   AR   Ar   39   1.241   4.027   2.790
    1   AR   Ar   40   1.390   3.899   1.734
    1   AR   Ar   41   0.218   2.291   3.022
    1   AR   Ar   42   6.905   5.243   4.799
    1   AR   Ar   43   6.816   2.357   5.709
    1   AR   Ar   44   0.493   4.157   3.563
    1   AR   Ar   45   0.680   3.102   5.860
    1   AR   Ar   46   0.903   5.745   6.301
    1   AR   Ar   47   6.053   3.168   6.551
    1   AR   Ar   48   6.485   6.145   6.207
    1   AR   Ar   49   6.626   6.868  -2.218
    1   AR   Ar   50   5.653   4.904   2.254
    1   AR   Ar   51   0.946   4.863   1.567
    1   AR   Ar   52   6.237   4.979  -1.209
    1   AR   Ar   53   5.712   6.205   2.601
    1   AR   Ar   54   6.360   6.993   3.190
    1   AR   Ar   55   5.548   4.783   3.333
    1   AR   Ar   56   0.426   7.051   2.113
    1   AR   Ar   57   6.667   3.334   3.292
    1   AR   Ar   58   6.864   5.845   3.739
    1   AR   Ar   59   1.777   5.471   5.716
    1   AR   Ar   60   0.644   6.539   4.075
    1   AR   Ar   61   5.904   5.428   5.479
    1   AR   Ar   62   0.792   5.758   5.230
    1   AR   Ar   63   2.031   6.238   6.835
    1   AR   Ar   64   0.749   6.876   5.893
    1   AR   Ar   65   3.738   7.048   0.402
    1   AR   Ar   66   1.352   1.129   1.053
    1   AR   Ar   67   3.522   6.134  -0.678
    1   AR   Ar   68   3.195   1.663  -0.990
    1   AR   Ar   69   2.891   1.134   0.989
    1   AR   Ar   70   0.856   1.065   2.156
    1   AR   Ar   71   3.101   0.682   2.876
    1   AR   Ar   72   3.222   0.503   1.748
    1   AR   Ar   73   2.801   0.053   3.544
    1   AR   Ar   74   2.510   0.949   4.572
    1   AR   Ar   75   3.594   1.101   5.224
    1   AR   Ar   76   2.365   1.087   2.047
    1   AR   Ar   77   2.307   6.405   5.615
    1   AR   Ar   78   1.707   0.288   6.184
    1   AR   Ar   79   3.162   5.868   6.969
    1   AR   Ar   80   3.018   5.371   5.621
    1   AR   Ar   81   2.416   1.473  -0.222
    1   AR   Ar   82   6.948   3.984  -0.648
    1   AR   Ar   83   1.810   2.196   0.313
    1   AR   Ar   84   0.752   3.485  -1.139
    1   AR   Ar   85   0.559   2.705  -0.579
    1   AR   Ar   86   1.998   3.125   1.505
    1   AR   Ar   87   2.166   2.099   1.670
    1   AR   Ar   88   3.708   3.938   1.645
    1   AR   Ar   89   0.602   3.193   2.243
    1   AR   Ar   90   2.833   2.156   4.646
    1   AR   Ar   91   1.188   2.204   3.462
    1   AR   Ar   92   1.300   2.157   2.472
    1   AR   Ar   93   2.127   1.433   5.895
    1   AR   Ar   94   0.465   0.826   9.271
    1   AR   Ar   95   3.923   6.593   6.256
    1   AR   Ar   96   2.914   0.755   6.278
    1   AR   Ar   97   3.866   2.647  -1.060
    1   AR   Ar   98   3.028   4.892   1.695
    1   AR   Ar   99   6.851   2.617  -1.308
    1   AR   Ar  100   1.619   3.074  -0.539
    1   AR   Ar  101   2.418   4.094   0.752
    1   AR   Ar  102   3.108   3.094   3.769
    1   AR   Ar  103   1.049   4.773   0.217
    1   AR   Ar  104   2.609   2.466  -0.791
    1   AR   Ar  105   1.909   3.061   3.096
    1   AR   Ar  106   2.369   3.128   4.622
    1   AR   Ar  107   1.883   3.958   5.517
    1   AR   Ar  108   3.646   2.774   4.548
    1   AR   Ar  109   1.726   4.233   3.754
    1   AR   Ar  110   1.358   4.593   6.106
    1   AR   Ar  111   4.168   4.061   6.850
    1   AR   Ar  112   0.862   5.228   7.509
    1   AR   Ar  113   2.511   4.705  -0.105
    1   AR   Ar  114   3.066   4.555  -1.288
    1   AR   Ar  115   2.704   3.655  -0.478
    1   AR   Ar  116   4.754   5.761  -0.754
    1   AR   Ar  117   0.804   5.432   3.658
    1   AR   Ar  118   0.356   6.923   3.136
    1   AR   Ar  119   2.221   3.922   2.338
    1   AR   Ar  120   1.078   5.039   2.552
    1   AR   Ar  121   6.813   4.051   4.264
    1   AR   Ar  122   2.790   6.074   4.756
    1   AR   Ar  123   2.500   4.738   4.977
    1   AR   Ar  124   1.862   5.312   1.937
    1   AR   Ar  125   0.702   4.164   5.121
    1   AR   Ar  126   0.265   7.038   4.843
    1   AR   Ar  127   3.636   4.765   7.567
    1   AR   Ar  128   2.290   5.080   6.757
    1   AR   Ar  129   1.600   0.386   2.308
    1   AR   Ar  130   3.567   1.446  -3.491
    1   AR   Ar  131   4.745   6.999   0.906
    1   AR   Ar  132   1.429   2.201  -1.113
    1   AR   Ar  133   3.926   0.177   3.432
    1   AR   Ar  134   4.116   1.145   3.328
    1   AR   Ar  135   4.921   0.830   2.659
    1   AR   Ar  136   4.739   0.173   1.847
    1   AR   Ar  137   3.305   6.309   3.708
    1   AR   Ar  138   5.003   1.160   4.917
    1   AR   Ar  139   5.732   1.938   5.067
    1   AR   Ar  140   4.192   0.548   4.439
    1   AR   Ar  141   3.899   6.673   4.483
    1   AR   Ar  142   4.116   7.083   5.321
    1   AR   Ar  143   5.639   6.864   5.668
    1   AR   Ar  144   4.841   0.482   5.784
    1   AR   Ar  145   3.964   4.001   0.664
    1   AR   Ar  146   4.379   2.293   1.560
    1   AR   Ar  147   5.799   1.826  -0.899
    1   AR   Ar  148   4.621   3.931  -2.631
    1   AR   Ar  149   3.325   2.029   1.215
    1   AR   Ar  150   2.399   2.026   2.738
    1   AR   Ar  151   3.166   2.097   3.454
    1   AR   Ar  152   2.823   2.800   0.314
    1   AR   Ar  153   3.333   0.976   4.007
    1   AR   Ar  154   4.036   1.865   4.238
    1   AR   Ar  155   5.919   0.757   5.699
    1   AR   Ar  156   3.073   4.062   4.010
    1   AR   Ar  157   3.013   2.817   5.756
    1   AR   Ar  158   1.082   2.823   6.780
    1   AR   Ar  159   3.274   1.733   5.986
    1   AR   Ar  160   2.965   2.300   6.817
    1   AR   Ar  161   5.222   2.478   1.174
    1   AR   Ar  162   4.559   4.960  -0.004
    1   AR   Ar  163   5.160   2.902   0.176
    1   AR   Ar  164   4.059   5.305   1.480
    1   AR   Ar  165   3.115   3.110   1.321
    1   AR   Ar  166   3.072   5.106   4.004
    1   AR   Ar  167   4.528   1.911   2.787
    1   AR   Ar  168   4.922   3.263  -1.119
    1   AR   Ar  169   2.753   2.891   2.243
    1   AR   Ar  170   3.525   3.630   5.240
    1   AR   Ar  171   4.273   3.901   4.401
    1   AR   Ar  172   4.469   5.509   4.424
    1   AR   Ar  173   2.134   3.413   6.699
    1   AR   Ar  174   3.734   4.821   6.071
    1   AR   Ar  175   4.248   3.259   6.256
    1   AR   Ar  176   3.596   5.074   4.828
    1   AR   Ar  177   6.370   5.835  -0.341
    1   AR   Ar  178   2.517   5.993   0.746
    1   AR   Ar  179   4.434   6.013   0.454
    1   AR   Ar  180   2.800   3.406  -2.006
    1   AR   Ar  181   1.602   5.591   1.004
    1   AR   Ar  182   3.020   6.692   2.642
    1   AR   Ar  183   3.715   4.829   2.525
    1   AR   Ar  184   4.097   6.357   1.350
    1   AR   Ar  185   1.934   5.210   4.145
    1   AR   Ar  186   3.867   5.565   3.306
    1   AR   Ar  187   4.023   6.371   2.389
    1   AR   Ar  188   3.048   6.045   1.786
    1   AR   Ar  189   3.124   3.951   6.186
    1   AR   Ar  190   4.851   6.283   5.905
    1   AR   Ar  191   4.895   5.272   5.456
    1   AR   Ar  192   4.011   6.006   5.312
    1   AR   Ar  193   0.418   5.953  -0.301
    1   AR   Ar  194   5.364   4.434  -1.609
    1   AR   Ar  195   6.545   0.527  -0.149
    1   AR   Ar  196   4.860   7.070  -0.447
    1   AR   Ar  197   5.442   1.668   0.586
    1   AR   Ar  198   6.384   0.889   1.097
    1   AR   Ar  199   5.200   1.199   1.523
    1   AR   Ar  200   6.409   1.894   0.373
    1   AR   Ar  201   4.944   6.905   2.963
    1   AR   Ar  202   5.182   2.482   4.295
    1   AR   Ar  203   6.595   6.280   4.668
    1   AR   Ar  204   5.127   0.657   3.914
    1   AR   Ar  205   6.207   0.901   3.383
    1   AR   Ar  206   5.036   0.026   4.773
    1   AR   Ar  207   6.970   0.311   5.759
    1   AR   Ar  208   6.918   0.472   3.971
    1   AR   Ar  209   5.431   2.397  -2.158
    1   AR   Ar  210   3.994   0.794   1.041
    1   AR   Ar  211   6.722   3.266   0.417
    1   AR   Ar  212   6.353   3.775  -1.885
    1   AR   Ar  213   3.401   2.017   2.441
    1   AR   Ar  214   3.825   2.991   2.284
    1   AR   Ar  215   6.242   2.232   1.368
    1   AR   Ar  216   6.899   4.208   1.155
    1   AR   Ar  217   4.220   3.060   3.397
    1   AR   Ar  218   4.465   2.597   5.264
    1   AR   Ar  219   5.342   1.558   3.325
    1   AR   Ar  220   5.441   2.850   2.685
    1   AR   Ar  221   6.408   0.386   4.879
    1   AR   Ar  222   4.442   1.470   5.858
    1   AR   Ar  223   0.012   0.791   6.866
    1   AR   Ar  224   5.340   2.830   5.647
    1   AR   Ar  225   5.818   5.351   0.447
    1   AR   Ar  226   5.056   4.016   2.581
    1   AR   Ar  227   0.038   5.030   0.587
    1   AR   Ar  228   5.003   6.011   1.349
    1   AR   Ar  229   5.919   4.422  -0.247
    1   AR   Ar  230   4.503   4.744   3.278
    1   AR   Ar  231   6.307   2.110   3.075
    1   AR   Ar  232   3.996   2.813   0.578
    1   AR   Ar  233   6.294   2.525   4.444
    1   AR   Ar  234   0.069   3.127   4.852
    1   AR   Ar  235   0.138   2.189   3.948
    1   AR   Ar  236   5.100   4.617   4.587
    1   AR   Ar  237   5.666   3.650   4.808
    1   AR   Ar  238   4.274   4.145   5.583
    1   AR   Ar  239   0.012   3.935   9.149
    1   AR   Ar  240   6.818   3.860   5.549
    1   AR   Ar  241   0.156   6.989   0.221
    1   AR   Ar  242   5.148   4.649   0.819
    1   AR   Ar  243   6.009   3.962   2.672
    1   AR   Ar  244   0.654   4.860  -1.241
    1   AR   Ar  245   5.734   0.226   1.306
    1   AR   Ar  246   5.999   5.822   1.581
    1   AR   Ar  247   5.408   3.686   0.944
    1   AR   Ar  248   5.767   6.494   0.609
    1   AR   Ar  249   4.857   5.464   2.398
    1   AR   Ar  250   5.460   6.057   4.773
    1   AR   Ar  251   5.964   5.503   4.182
    1   AR   Ar  252   4.956   5.807   3.602
    1   AR   Ar  253   5.325   4.213   5.859
    1   AR   Ar  254   4.564   5.322   6.506
    1   AR   Ar  255   5.066   3.133   7.637
    1   AR   Ar  256   5.662   6.754   4.006
    7.12000  7.12000 12.00000
Argon-slab step 2165
  256
    1   AR   Ar    1   6.925   1.701  -0.587
    1   AR   Ar    2   6.872   7.030   1.272
    1   AR   Ar    3   0.855   0.033   1.107
    1   AR   Ar    4   1.542   0.040   0.338
    1   AR   Ar    5   7.090   5.999   0.731
    1   AR   Ar    6   6.966   0.502   2.583
    1   AR   Ar    7   6.956   4.890   3.258
    1   AR   Ar    8   6.300   6.947   2.109
    1   AR   Ar    9   0.776   0.733   3.881
    1   AR   Ar   10   1.223   1.607   4.529
    1   AR   Ar   11   3.201   0.160   4.890
    1   AR   Ar   12   1.438   1.224   3.049
    1   AR   Ar   13   6.578   1.410   5.256
    1   AR   Ar   14   1.392   1.293   6.812
    1   AR   Ar   15   6.726   0.286   9.405
    1   AR   Ar   16   0.581   0.897   5.249
    1   AR   Ar   17   1.177   1.476  -0.243
    1   AR   Ar   18   6.048   2.999  -0.868
    1   AR   Ar   19   1.087   2.478   1.475
    1   AR   Ar   20   5.736   4.020  -2.761
    1   AR   Ar   21   6.013   0.844   2.278
    1   AR   Ar   22   7.088   1.842   2.070
    1   AR   Ar   23   0.223   1.066   0.394
    1   AR   Ar   24   0.051   2.233   0.977
    1   AR   Ar   25   7.098   1.296   3.379
    1   AR   Ar   26   6.412   1.462   4.226
    1   AR   Ar   27   2.355   1.370   3.515
    1   AR   Ar   28   1.120   2.708   4.925
    1   AR   Ar   29   5.323   1.476   6.491
    1   AR   Ar   30   1.018   2.075   5.914
    1   AR   Ar   31   0.359   6.831   7.085
    1   AR   Ar   32   1.822   2.852   5.751
    1   AR   Ar   33   1.631   4.478  -0.637
    1   AR   Ar   34   0.205   5.849   2.665
    1   AR   Ar   35   6.737   5.041   1.883
    1   AR   Ar   36   0.085   7.010  -3.203
    1   AR   Ar   37   6.782   2.970   2.294
    1   AR   Ar   38   0.058   4.277   2.276
    1   AR   Ar   39   1.222   4.002   2.802
    1   AR   Ar   40   1.368   3.890   1.741
    1   AR   Ar   41   0.263   2.286   2.968
    1   AR   Ar   42   6.908   5.262   4.811
    1   AR   Ar   43   6.846   2.335   5.685
    1   AR   Ar   44   0.483   4.167   3.568
    1   AR   Ar   45   0.674   3.079   5.865
    1   AR   Ar   46   0.929   5.784   6.328
    1   AR   Ar   47   6.049   3.163   6.583
    1   AR   Ar   48   6.504   6.137   6.180
    1   AR   Ar   49   6.613   6.855  -2.218
    1   AR   Ar   50   5.652   4.924   2.221
    1   AR   Ar   51   0.931   4.882   1.569
    1   AR   Ar   52   6.275   4.995  -1.226
    1   AR   Ar   53   5.738   6.196   2.614
    1   AR   Ar   54   6.369   6.991   3.246
    1   AR   Ar   55   5.510   4.732   3.343
    1   AR   Ar   56   0.455   7.024   2.101
    1   AR   Ar   57   6.676   3.364   3.298
    1   AR   Ar   58   6.886   5.842   3.766
    1   AR   Ar   59   1.790   5.465   5.701
    1   AR   Ar   60   0.676   6.492   4.090
    1   AR   Ar   61   5.931   5.460   5.481
    1   AR   Ar   62   0.803   5.767   5.204
    1   AR   Ar   63   2.039   6.228   6.865
    1   AR   Ar   64   0.768   6.866   5.894
    1   AR   Ar   65   3.745   7.070   0.447
    1   AR   Ar   66   1.374   1.123   1.048
    1   AR   Ar   67   3.513   6.176  -0.659
    1   AR   Ar   68   3.227   1.688  -0.997
    1   AR   Ar   69   2.895   1.159   0.982
    1   AR   Ar   70   0.851   1.077   2.133
    1   AR   Ar   71   3.123   0.665   2.865
    1   AR   Ar   72   3.217   0.513   1.757
    1   AR   Ar   73   2.842   0.050   3.547
    1   AR   Ar   74   2.516   0.953   4.584
    1   AR   Ar   75   3.604   1.118   5.216
    1   AR   Ar   76   2.338   1.071   2.056
    1   AR   Ar   77   2.313   6.412   5.640
    1   AR   Ar   78   1.706   0.282   6.179
    1   AR   Ar   79   3.156   5.916   6.966
    1   AR   Ar   80   3.006   5.368   5.630
    1   AR   Ar   81   2.421   1.523  -0.228
    1   AR   Ar   82   6.965   3.987  -0.636
    1   AR   Ar   83   1.815   2.215   0.278
    1   AR   Ar   84   0.765   3.536  -1.129
    1   AR   Ar   85   0.562   2.683  -0.560
    1   AR   Ar   86   1.998   3.111   1.503
    1   AR   Ar   87   2.174   2.118   1.649
    1   AR   Ar   88   3.697   3.966   1.660
    1   AR   Ar   89   0.579   3.223   2.242
    1   AR   Ar   90   2.813   2.197   4.652
    1   AR   Ar   91   1.159   2.249   3.475
    1   AR   Ar   92   1.306   2.139   2.448
    1   AR   Ar   93   2.126   1.408   5.907
    1   AR   Ar   94   0.493   0.866   9.292
    1   AR   Ar   95   3.958   6.597   6.264
    1   AR   Ar   96   2.914   0.720   6.296
    1   AR   Ar   97   3.879   2.639  -1.047
    1   AR   Ar   98   3.048   4.890   1.678
    1   AR   Ar   99   6.867   2.606  -1.299
    1   AR   Ar  100   1.612   3.057  -0.556
    1   AR   Ar  101   2.396   4.072   0.734
    1   AR   Ar  102   3.144   3.073   3.772
    1   AR   Ar  103   1.045   4.756   0.234
    1   AR   Ar  104   2.590   2.467  -0.834
    1   AR   Ar  105   1.916   3.071   3.119
    1   AR   Ar  106   2.388   3.150   4.626
    1   AR   Ar  107   1.895   3.970   5.515
    1   AR   Ar  108   3.623   2.766   4.575
    1   AR   Ar  109   1.672   4.225   3.777
    1   AR   Ar  110   1.348   4.604   6.112
    1   AR   Ar  111   4.177   4.061   6.874
    1   AR   Ar  112   0.874   5.252   7.504
    1   AR   Ar  113   2.499   4.710  -0.137
    1   AR   Ar  114   3.062   4.553  -1.325
    1   AR   Ar  115   2.695   3.650  -0.471
    1   AR   Ar  116   4.773   5.737  -0.777
    1   AR   Ar  117   0.817   5.416   3.650
    1   AR   Ar  118   0.357   6.942   3.108
    1   AR   Ar  119   2.209   3.921   2.323
    1   AR   Ar  120   1.061   5.013   2.562
    1   AR   Ar  121   6.790   4.035   4.273
    1   AR   Ar  122   2.796   6.088   4.797
    1   AR   Ar  123   2.494   4.729   4.970
    1   AR   Ar  124   1.868   5.283   1.946
    1   AR   Ar  125   0.661   4.177   5.147
    1   AR   Ar  126   0.237   7.033   4.851
    1   AR   Ar  127   3.632   4.758   7.539
    1   AR   Ar  128   2.297   5.055   6.750
    1   AR   Ar  129   1.608   0.374   2.323
    1   AR   Ar  130   3.581   1.468  -3.487
    1   AR   Ar  131   4.729   7.031   0.879
    1   AR   Ar  132   1.483   2.187  -1.089
    1   AR   Ar  133   3.938   0.174   3.436
    1   AR   Ar  134   4.133   1.150   3.319
    1   AR   Ar  135   4.913   0.844   2.692
    1   AR   Ar  136   4.738   0.176   1.837
    1   AR   Ar  137   3.299   6.276   3.697
    1   AR   Ar  138   4.986   1.169   4.927
    1   AR   Ar  139   5.747   1.934   5.079
    1   AR   Ar  140   4.175   0.512   4.452
    1   AR   Ar  141   3.927   6.671   4.477
    1   AR   Ar  142   4.123   7.078   5.344
    1   AR   Ar  143   5.644   6.873   5.661
    1   AR   Ar  144   4.863   0.479   5.755
    1   AR   Ar  145   3.930   3.996   0.683
    1   AR   Ar  146   4.397   2.282   1.578
    1   AR   Ar  147   5.804   1.817  -0.919
    1   AR   Ar  148   4.623   3.928  -2.629
    1   AR   Ar  149   3.324   2.048   1.233
    1   AR   Ar  150   2.384   2.028   2.776
    1   AR   Ar  151   3.184   2.096   3.462
    1   AR   Ar  152   2.833   2.800   0.319
    1   AR   Ar  153   3.330   0.995   4.018
    1   AR   Ar  154   4.037   1.852   4.195
    1   AR   Ar  155   5.900   0.753   5.721
    1   AR   Ar  156   3.084   4.063   3.997
    1   AR   Ar  157   2.977   2.810   5.736
    1   AR   Ar  158   1.102   2.849   6.773
    1   AR   Ar  159   3.279   1.772   5.963
    1   AR   Ar  160   2.934   2.302   6.773
    1   AR   Ar  161   5.263   2.461   1.190
    1   AR   Ar  162   4.563   4.960  -0.017
    1   AR   Ar  163   5.145   2.914   0.182
    1   AR   Ar  164   4.050   5.329   1.470
    1   AR   Ar  165   3.152   3.097   1.312
    1   AR   Ar  166   3.081   5.108   3.996
    1   AR   Ar  167   4.542   1.907   2.775
    1   AR   Ar  168   4.879   3.259  -1.065
    1   AR   Ar  169   2.752   2.886   2.248
    1   AR   Ar  170   3.547   3.647   5.208
    1   AR   Ar  171   4.282   3.921   4.417
    1   AR   Ar  172   4.460   5.534   4.444
    1   AR   Ar  173   2.140   3.396   6.664
    1   AR   Ar  174   3.721   4.816   6.069
    1   AR   Ar  175   4.234   3.235   6.252
    1   AR   Ar  176   3.603   5.077   4.824
    1   AR   Ar  177   6.367   5.821  -0.326
    1   AR   Ar  178   2.495   5.991   0.713
    1   AR   Ar  179   4.459   6.050   0.440
    1   AR   Ar  180   2.799   3.429  -1.982
    1   AR   Ar  181   1.602   5.595   1.009
    1   AR   Ar  182   2.994   6.714   2.627
    1   AR   Ar  183   3.707   4.858   2.532
    1   AR   Ar  184   4.071   6.380   1.325
    1   AR   Ar  185   1.969   5.206   4.104
    1   AR   Ar  186   3.860   5.585   3.316
    1   AR   Ar  187   4.026   6.400   2.399
    1   AR   Ar  188   3.029   6.048   1.727
    1   AR   Ar  189   3.115   3.948   6.219
    1   AR   Ar  190   4.857   6.284   5.923
    1   AR   Ar  191   4.883   5.284   5.504
    1   AR   Ar  192   4.012   6.032   5.282
    1   AR   Ar  193   0.380   5.952  -0.321
    1   AR   Ar  194   5.347   4.421  -1.600
    1   AR   Ar  195   6.530   0.554  -0.142
    1   AR   Ar  196   4.843   7.034  -0.412
    1   AR   Ar  197   5.435   1.680   0.600
    1   AR   Ar  198   6.419   0.883   1.097
    1   AR   Ar  199   5.222   1.219   1.510
    1   AR   Ar  200   6.381   1.933   0.350
    1   AR   Ar  201   4.932   6.931   2.944
    1   AR   Ar  202   5.183   2.506   4.311
    1   AR   Ar  203   6.615   6.330   4.662
    1   AR   Ar  204   5.133   0.658   3.916
    1   AR   Ar  205   6.196   0.901   3.367
    1   AR   Ar  206   5.014   0.022   4.765
    1   AR   Ar  207   6.944   0.317   5.763
    1   AR   Ar  208   6.919   0.478   4.002
    1   AR   Ar  209   5.472   2.383  -2.201
    1   AR   Ar  210   3.990   0.784   1.036
    1   AR   Ar  211   6.749   3.258   0.413
    1   AR   Ar  212   6.342   3.777  -1.905
    1   AR   Ar  213   3.415   2.011   2.396
    1   AR   Ar  214   3.786   3.000   2.319
    1   AR   Ar  215   6.243   2.254   1.373
    1   AR   Ar  216   6.916   4.240   1.144
    1   AR   Ar  217   4.245   3.054   3.356
    1   AR   Ar  218   4.446   2.578   5.268
    1   AR   Ar  219   5.344   1.557   3.316
    1   AR   Ar  220   5.456   2.867   2.685
    1   AR   Ar  221   6.393   0.385   4.887
    1   AR   Ar  222   4.435   1.486   5.870
    1   AR   Ar  223   0.027   0.776   6.865
    1   AR   Ar  224   5.341   2.849   5.638
    1   AR   Ar  225   5.829   5.333   0.457
    1   AR   Ar  226   5.084   3.992   2.572
    1   AR   Ar  227   0.087   5.009   0.576
    1   AR   Ar  228   5.024   6.019   1.349
    1   AR   Ar  229   5.927   4.450  -0.226
    1   AR   Ar  230   4.500   4.776   3.291
    1   AR   Ar  231   6.324   2.089   3.047
    1   AR   Ar  232   3.924   2.803   0.581
    1   AR   Ar  233   6.279   2.519   4.452
    1   AR   Ar  234   0.059   3.110   4.893
    1   AR   Ar  235   0.100   2.187   3.944
    1   AR   Ar  236   5.093   4.609   4.559
    1   AR   Ar  237   5.645   3.668   4.842
    1   AR   Ar  238   4.260   4.130   5.572
    1   AR   Ar  239   0.012   3.957   9.120
    1   AR   Ar  240   6.821   3.843   5.550
    1   AR   Ar  241   0.172   6.935   0.248
    1   AR   Ar  242   5.139   4.650   0.818
    1   AR   Ar  243   6.042   3.964   2.649
    1   AR   Ar  244   0.662   4.862  -1.239
    1   AR   Ar  245   5.727   0.232   1.296
    1   AR   Ar  246   6.004   5.834   1.582
    1   AR   Ar  247   5.373   3.664   0.947
    1   AR   Ar  248   5.761   6.470   0.576
    1   AR   Ar  249   4.814   5.480   2.417
    1   AR   Ar  250   5.441   6.052   4.782
    1   AR   Ar  251   5.960   5.514   4.143
    1   AR   Ar  252   4.945   5.825   3.573
    1   AR   Ar  253   5.280   4.215   5.860
    1   AR   Ar  254   4.553   5.356   6.527
    1   AR   Ar  255   5.067   3.125   7.644
    1   AR   Ar  256   5.673   6.738   3.968
    7.12000  7.12000 12.00000
Argon-slab step 2170
  256
    1   AR   Ar    1   6.897   1.724  -0.599
    1   AR   Ar    2   6.896   7.029   1.281
    1   AR   Ar    3   0.883   0.043   1.089
    1   AR   Ar    4   1.550   0.070   0.327
    1   AR   Ar    5   7.077   5.993   0.715
    1   AR   Ar    6   6.980   0.525   2.582
    1   AR   Ar    7   6.964   4.902   3.276
    1   AR   Ar    8   6.295   6.938   2.102
    1   AR   Ar    9   0.771   0.681   3.868
    1   AR   Ar   10   1.217   1.606   4.526
    1   AR   Ar   11   3.205   0.147   4.881
    1   AR   Ar   12   1.433   1.232   3.039
    1   AR   Ar   13   6.538   1.392   5.244
    1   AR   Ar   14   1.403   1.301   6.804
    1   AR   Ar   15   6.703   0.296   9.373
    1   AR   Ar   16   0.598   0.889   5.262
    1   AR   Ar   17   1.206   1.503  -0.260
    1   AR   Ar   18   6.026   3.015  -0.871
    1   AR   Ar   19   1.067   2.484   1.441
    1   AR   Ar   20   5.714   4.021  -2.764
    1   AR   Ar   21   6.033   0.824   2.266
    1   AR   Ar   22   7.087   1.826   2.057
    1   AR   Ar   23   0.227   1.053   0.393
    1   AR   Ar   24   0.061   2.255   0.971
    1   AR   Ar   25   0.012   1.326   3.388
    1   AR   Ar   26   6.414   1.443   4.253
    1   AR   Ar   27   2.333   1.360   3.536
    1   AR   Ar   28   1.105   2.718   4.911
    1   AR   Ar   29   5.300   1.481   6.476
    1   AR   Ar   30   1.018   2.060   5.949
    1   AR   Ar   31   0.368   6.822   7.113
    1   AR   Ar   32   1.789   2.818   5.751
    1   AR   Ar   33   1.630   4.428  -0.603
    1   AR   Ar   34   0.194   5.792   2.662
    1   AR   Ar   35   6.736   5.078   1.902
    1   AR   Ar   36   0.074   7.030  -3.176
    1   AR   Ar   37   6.785   2.992   2.265
    1   AR   Ar   38   0.043   4.245   2.309
    1   AR   Ar   39   1.203   3.973   2.815
    1   AR   Ar   40   1.339   3.883   1.745
    1   AR   Ar   41   0.309   2.287   2.902
    1   AR   Ar   42   6.910   5.281   4.821
    1   AR   Ar   43   6.877   2.317   5.661
    1   AR   Ar   44   0.477   4.173   3.575
    1   AR   Ar   45   0.665   3.061   5.865
    1   AR   Ar   46   0.955   5.823   6.356
    1   AR   Ar   47   6.044   3.158   6.612
    1   AR   Ar   48   6.522   6.131   6.152
    1   AR   Ar   49   6.601   6.843  -2.218
    1   AR   Ar   50   5.657   4.942   2.187
    1   AR   Ar   51   0.912   4.900   1.562
    1   AR   Ar   52   6.314   5.010  -1.240
    1   AR   Ar   53   5.761   6.186   2.628
    1   AR   Ar   54   6.380   6.986   3.297
    1   AR   Ar   55   5.479   4.683   3.353
    1   AR   Ar   56   0.493   6.990   2.079
    1   AR   Ar   57   6.688   3.393   3.306
    1   AR   Ar   58   6.912   5.841   3.789
    1   AR   Ar   59   1.805   5.459   5.686
    1   AR   Ar   60   0.708   6.441   4.101
    1   AR   Ar   61   5.962   5.490   5.483
    1   AR   Ar   62   0.814   5.777   5.178
    1   AR   Ar   63   2.064   6.247   6.855
    1   AR   Ar   64   0.786   6.854   5.894
    1   AR   Ar   65   3.760   7.095   0.475
    1   AR   Ar   66   1.396   1.118   1.045
    1   AR   Ar   67   3.506   6.218  -0.638
    1   AR   Ar   68   3.251   1.695  -0.999
    1   AR   Ar   69   2.895   1.180   0.973
    1   AR   Ar   70   0.786   1.089   2.147
    1   AR   Ar   71   3.150   0.664   2.842
    1   AR   Ar   72   3.209   0.527   1.778
    1   AR   Ar   73   2.874   0.044   3.567
    1   AR   Ar   74   2.513   0.958   4.602
    1   AR   Ar   75   3.642   1.113   5.207
    1   AR   Ar   76   2.320   1.060   2.065
    1   AR   Ar   77   2.317   6.422   5.671
    1   AR   Ar   78   1.707   0.277   6.173
    1   AR   Ar   79   3.150   5.963   6.960
    1   AR   Ar   80   2.987   5.374   5.640
    1   AR   Ar   81   2.427   1.571  -0.236
    1   AR   Ar   82   6.981   3.989  -0.624
    1   AR   Ar   83   1.815   2.199   0.261
    1   AR   Ar   84   0.778   3.592  -1.120
    1   AR   Ar   85   0.564   2.657  -0.537
    1   AR   Ar   86   2.002   3.114   1.500
    1   AR   Ar   87   2.184   2.131   1.630
    1   AR   Ar   88   3.680   3.978   1.665
    1   AR   Ar   89   0.578   3.258   2.240
    1   AR   Ar   90   2.787   2.227   4.658
    1   AR   Ar   91   1.135   2.293   3.496
    1   AR   Ar   92   1.312   2.120   2.421
    1   AR   Ar   93   2.126   1.384   5.919
    1   AR   Ar   94   0.523   0.907   9.312
    1   AR   Ar   95   3.967   6.613   6.249
    1   AR   Ar   96   2.915   0.686   6.311
    1   AR   Ar   97   3.892   2.635  -1.039
    1   AR   Ar   98   3.064   4.887   1.660
    1   AR   Ar   99   6.889   2.591  -1.294
    1   AR   Ar  100   1.621   3.050  -0.566
    1   AR   Ar  101   2.374   4.049   0.718
    1   AR   Ar  102   3.174   3.055   3.766
    1   AR   Ar  103   1.045   4.739   0.251
    1   AR   Ar  104   2.603   2.474  -0.857
    1   AR   Ar  105   1.929   3.067   3.116
    1   AR   Ar  106   2.406   3.176   4.631
    1   AR   Ar  107   1.910   3.978   5.511
    1   AR   Ar  108   3.613   2.761   4.611
    1   AR   Ar  109   1.619   4.214   3.800
    1   AR   Ar  110   1.333   4.617   6.122
    1   AR   Ar  111   4.186   4.065   6.899
    1   AR   Ar  112   0.887   5.277   7.497
    1   AR   Ar  113   2.491   4.717  -0.168
    1   AR   Ar  114   3.056   4.550  -1.360
    1   AR   Ar  115   2.686   3.644  -0.464
    1   AR   Ar  116   4.792   5.713  -0.799
    1   AR   Ar  117   0.829   5.399   3.641
    1   AR   Ar  118   0.361   6.954   3.093
    1   AR   Ar  119   2.203   3.919   2.310
    1   AR   Ar  120   1.040   4.990   2.582
    1   AR   Ar  121   6.766   4.018   4.285
    1   AR   Ar  122   2.809   6.100   4.832
    1   AR   Ar  123   2.488   4.719   4.960
    1   AR   Ar  124   1.890   5.299   1.966
    1   AR   Ar  125   0.622   4.188   5.173
    1   AR   Ar  126   0.213   7.032   4.863
    1   AR   Ar  127   3.627   4.752   7.510
    1   AR   Ar  128   2.305   5.032   6.741
    1   AR   Ar  129   1.616   0.357   2.339
    1   AR   Ar  130   3.584   1.465  -3.473
    1   AR   Ar  131   4.720   7.064   0.840
    1   AR   Ar  132   1.537   2.169  -1.066
    1   AR   Ar  133   3.948   0.161   3.440
    1   AR   Ar  134   4.148   1.159   3.313
    1   AR   Ar  135   4.908   0.857   2.719
    1   AR   Ar  136   4.737   0.179   1.836
    1   AR   Ar  137   3.285   6.248   3.694
    1   AR   Ar  138   4.968   1.177   4.936
    1   AR   Ar  139   5.750   1.930   5.096
    1   AR   Ar  140   4.157   0.492   4.462
    1   AR   Ar  141   3.954   6.670   4.464
    1   AR   Ar  142   4.127   7.075   5.377
    1   AR   Ar  143   5.655   6.878   5.650
    1   AR   Ar  144   4.890   0.481   5.732
    1   AR   Ar  145   3.898   3.991   0.694
    1   AR   Ar  146   4.398   2.268   1.604
    1   AR   Ar  147   5.811   1.809  -0.939
    1   AR   Ar  148   4.625   3.925  -2.627
    1   AR   Ar  149   3.326   2.071   1.253
    1   AR   Ar  150   2.363   2.036   2.804
    1   AR   Ar  151   3.184   2.099   3.453
    1   AR   Ar  152   2.828   2.815   0.334
    1   AR   Ar  153   3.332   1.015   4.023
    1   AR   Ar  154   4.040   1.847   4.165
    1   AR   Ar  155   5.879   0.754   5.747
    1   AR   Ar  156   3.095   4.066   3.987
    1   AR   Ar  157   2.941   2.804   5.715
    1   AR   Ar  158   1.118   2.862   6.770
    1   AR   Ar  159   3.284   1.809   5.937
    1   AR   Ar  160   2.901   2.308   6.733
    1   AR   Ar  161   5.288   2.459   1.219
    1   AR   Ar  162   4.565   4.961  -0.031
    1   AR   Ar  163   5.129   2.926   0.187
    1   AR   Ar  164   4.043   5.351   1.460
    1   AR   Ar  165   3.188   3.087   1.301
    1   AR   Ar  166   3.083   5.114   3.977
    1   AR   Ar  167   4.553   1.911   2.755
    1   AR   Ar  168   4.837   3.255  -1.010
    1   AR   Ar  169   2.745   2.882   2.257
    1   AR   Ar  170   3.564   3.625   5.200
    1   AR   Ar  171   4.289   3.938   4.432
    1   AR   Ar  172   4.467   5.562   4.467
    1   AR   Ar  173   2.148   3.378   6.627
    1   AR   Ar  174   3.710   4.815   6.073
    1   AR   Ar  175   4.220   3.208   6.242
    1   AR   Ar  176   3.608   5.104   4.811
    1   AR   Ar  177   6.366   5.807  -0.311
    1   AR   Ar  178   2.480   5.991   0.679
    1   AR   Ar  179   4.462   6.025   0.442
    1   AR   Ar  180   2.798   3.452  -1.957
    1   AR   Ar  181   1.606   5.595   0.994
    1   AR   Ar  182   2.968   6.735   2.608
    1   AR   Ar  183   3.710   4.859   2.536
    1   AR   Ar  184   4.032   6.408   1.306
    1   AR   Ar  185   2.004   5.203   4.064
    1   AR   Ar  186   3.861   5.599   3.321
    1   AR   Ar  187   4.030   6.429   2.411
    1   AR   Ar  188   3.011   6.050   1.669
    1   AR   Ar  189   3.105   3.943   6.252
    1   AR   Ar  190   4.866   6.280   5.940
    1   AR   Ar  191   4.868   5.294   5.548
    1   AR   Ar  192   4.012   6.051   5.257
    1   AR   Ar  193   0.340   5.950  -0.340
    1   AR   Ar  194   5.331   4.407  -1.592
    1   AR   Ar  195   6.514   0.582  -0.134
    1   AR   Ar  196   4.825   6.997  -0.375
    1   AR   Ar  197   5.425   1.685   0.607
    1   AR   Ar  198   6.465   0.890   1.093
    1   AR   Ar  199   5.270   1.245   1.491
    1   AR   Ar  200   6.358   1.971   0.323
    1   AR   Ar  201   4.920   6.953   2.927
    1   AR   Ar  202   5.183   2.530   4.328
    1   AR   Ar  203   6.629   6.379   4.657
    1   AR   Ar  204   5.139   0.658   3.915
    1   AR   Ar  205   6.173   0.899   3.347
    1   AR   Ar  206   4.999   0.012   4.760
    1   AR   Ar  207   6.918   0.323   5.772
    1   AR   Ar  208   6.917   0.478   4.033
    1   AR   Ar  209   5.513   2.370  -2.243
    1   AR   Ar  210   3.988   0.778   1.033
    1   AR   Ar  211   6.776   3.249   0.409
    1   AR   Ar  212   6.331   3.778  -1.921
    1   AR   Ar  213   3.430   2.000   2.350
    1   AR   Ar  214   3.752   3.010   2.352
    1   AR   Ar  215   6.244   2.274   1.384
    1   AR   Ar  216   6.930   4.264   1.138
    1   AR   Ar  217   4.303   3.049   3.314
    1   AR   Ar  218   4.420   2.557   5.269
    1   AR   Ar  219   5.351   1.558   3.313
    1   AR   Ar  220   5.472   2.884   2.685
    1   AR   Ar  221   6.372   0.383   4.890
    1   AR   Ar  222   4.426   1.503   5.879
    1   AR   Ar  223   0.051   0.755   6.856
    1   AR   Ar  224   5.349   2.870   5.631
    1   AR   Ar  225   5.845   5.326   0.449
    1   AR   Ar  226   5.093   3.968   2.563
    1   AR   Ar  227   0.121   4.989   0.558
    1   AR   Ar  228   5.046   6.024   1.350
    1   AR   Ar  229   5.936   4.478  -0.205
    1   AR   Ar  230   4.494   4.805   3.304
    1   AR   Ar  231   6.340   2.067   3.020
    1   AR   Ar  232   3.889   2.800   0.577
    1   AR   Ar  233   6.270   2.519   4.457
    1   AR   Ar  234   0.051   3.090   4.931
    1   AR   Ar  235   0.061   2.186   3.954
    1   AR   Ar  236   5.088   4.603   4.531
    1   AR   Ar  237   5.624   3.684   4.877
    1   AR   Ar  238   4.270   4.125   5.567
    1   AR   Ar  239   0.011   3.979   9.092
    1   AR   Ar  240   6.827   3.809   5.550
    1   AR   Ar  241   0.188   6.884   0.273
    1   AR   Ar  242   5.127   4.653   0.820
    1   AR   Ar  243   6.095   3.967   2.626
    1   AR   Ar  244   0.669   4.862  -1.236
    1   AR   Ar  245   5.708   0.227   1.289
    1   AR   Ar  246   6.014   5.846   1.583
    1   AR   Ar  247   5.338   3.636   0.952
    1   AR   Ar  248   5.754   6.445   0.544
    1   AR   Ar  249   4.764   5.500   2.437
    1   AR   Ar  250   5.411   6.058   4.798
    1   AR   Ar  251   5.948   5.520   4.097
    1   AR   Ar  252   4.938   5.844   3.540
    1   AR   Ar  253   5.238   4.217   5.860
    1   AR   Ar  254   4.541   5.390   6.549
    1   AR   Ar  255   5.067   3.118   7.650
    1   AR   Ar  256   5.682   6.722   3.931
    7.12000  7.12000 12.00000
Argon-slab step 2175
  256
    1   AR   Ar    1   6.870   1.747  -0.609
    1   AR   Ar    2   6.908   7.031   1.273
    1   AR   Ar    3   0.906   0.055   1.075
    1   AR   Ar    4   1.562   0.100   0.311
    1   AR   Ar    5   7.060   5.987   0.703
    1   AR   Ar    6   6.989   0.558   2.579
    1   AR   Ar    7   6.973   4.912   3.287
    1   AR   Ar    8   6.288   6.926   2.100
    1   AR   Ar    9   0.774   0.630   3.854
    1   AR   Ar   10   1.210   1.605   4.522
    1   AR   Ar   11   3.204   0.135   4.872
    1   AR   Ar   12   1.412   1.224   3.018
    1   AR   Ar   13   6.505   1.403   5.229
    1   AR   Ar   14   1.415   1.309   6.794
    1   AR   Ar   15   6.681   0.305   9.341
    1   AR   Ar   16   0.616   0.881   5.274
    1   AR   Ar   17   1.234   1.529  -0.277
    1   AR   Ar   18   6.001   3.032  -0.872
    1   AR   Ar   19   1.047   2.490   1.407
    1   AR   Ar   20   5.691   4.023  -2.767
    1   AR   Ar   21   6.048   0.807   2.252
    1   AR   Ar   22   7.083   1.808   2.039
    1   AR   Ar   23   0.231   1.041   0.393
    1   AR   Ar   24   0.077   2.276   0.965
    1   AR   Ar   25   0.064   1.363   3.391
    1   AR   Ar   26   6.414   1.425   4.272
    1   AR   Ar   27   2.316   1.342   3.566
    1   AR   Ar   28   1.091   2.724   4.905
    1   AR   Ar   29   5.279   1.485   6.460
    1   AR   Ar   30   1.017   2.042   5.983
    1   AR   Ar   31   0.377   6.812   7.139
    1   AR   Ar   32   1.758   2.786   5.751
    1   AR   Ar   33   1.622   4.374  -0.574
    1   AR   Ar   34   0.183   5.736   2.659
    1   AR   Ar   35   6.735   5.121   1.918
    1   AR   Ar   36   0.063   7.050  -3.148
    1   AR   Ar   37   6.765   3.007   2.236
    1   AR   Ar   38   0.033   4.208   2.346
    1   AR   Ar   39   1.185   3.941   2.827
    1   AR   Ar   40   1.303   3.880   1.746
    1   AR   Ar   41   0.352   2.291   2.834
    1   AR   Ar   42   6.912   5.300   4.831
    1   AR   Ar   43   6.909   2.301   5.637
    1   AR   Ar   44   0.476   4.175   3.584
    1   AR   Ar   45   0.652   3.046   5.859
    1   AR   Ar   46   0.983   5.862   6.384
    1   AR   Ar   47   6.039   3.153   6.641
    1   AR   Ar   48   6.542   6.127   6.123
    1   AR   Ar   49   6.589   6.831  -2.218
    1   AR   Ar   50   5.663   4.959   2.154
    1   AR   Ar   51   0.891   4.917   1.550
    1   AR   Ar   52   6.352   5.023  -1.254
    1   AR   Ar   53   5.783   6.173   2.645
    1   AR   Ar   54   6.384   6.980   3.318
    1   AR   Ar   55   5.460   4.633   3.365
    1   AR   Ar   56   0.535   6.953   2.052
    1   AR   Ar   57   6.701   3.421   3.316
    1   AR   Ar   58   6.940   5.843   3.810
    1   AR   Ar   59   1.823   5.455   5.668
    1   AR   Ar   60   0.740   6.390   4.111
    1   AR   Ar   61   5.995   5.519   5.486
    1   AR   Ar   62   0.823   5.788   5.151
    1   AR   Ar   63   2.089   6.266   6.843
    1   AR   Ar   64   0.803   6.842   5.894
    1   AR   Ar   65   3.782   0.005   0.475
    1   AR   Ar   66   1.404   1.107   1.045
    1   AR   Ar   67   3.499   6.260  -0.616
    1   AR   Ar   68   3.257   1.679  -0.992
    1   AR   Ar   69   2.892   1.192   0.966
    1   AR   Ar   70   0.722   1.101   2.162
    1   AR   Ar   71   3.181   0.673   2.814
    1   AR   Ar   72   3.202   0.540   1.799
    1   AR   Ar   73   2.899   0.041   3.599
    1   AR   Ar   74   2.503   0.965   4.624
    1   AR   Ar   75   3.651   1.115   5.213
    1   AR   Ar   76   2.338   1.055   2.074
    1   AR   Ar   77   2.319   6.434   5.707
    1   AR   Ar   78   1.711   0.282   6.185
    1   AR   Ar   79   3.144   6.009   6.953
    1   AR   Ar   80   2.962   5.386   5.652
    1   AR   Ar   81   2.436   1.606  -0.241
    1   AR   Ar   82   6.996   3.991  -0.612
    1   AR   Ar   83   1.813   2.191   0.250
    1   AR   Ar   84   0.792   3.648  -1.112
    1   AR   Ar   85   0.567   2.629  -0.513
    1   AR   Ar   86   2.010   3.143   1.500
    1   AR   Ar   87   2.195   2.135   1.612
    1   AR   Ar   88   3.658   3.980   1.668
    1   AR   Ar   89   0.597   3.297   2.239
    1   AR   Ar   90   2.755   2.244   4.664
    1   AR   Ar   91   1.110   2.306   3.522
    1   AR   Ar   92   1.320   2.102   2.394
    1   AR   Ar   93   2.125   1.361   5.930
    1   AR   Ar   94   0.553   0.948   9.333
    1   AR   Ar   95   3.963   6.629   6.238
    1   AR   Ar   96   2.915   0.651   6.325
    1   AR   Ar   97   3.910   2.643  -1.057
    1   AR   Ar   98   3.068   4.891   1.623
    1   AR   Ar   99   6.914   2.577  -1.291
    1   AR   Ar  100   1.653   3.058  -0.568
    1   AR   Ar  101   2.364   4.093   0.755
    1   AR   Ar  102   3.199   3.042   3.752
    1   AR   Ar  103   1.050   4.721   0.268
    1   AR   Ar  104   2.620   2.487  -0.874
    1   AR   Ar  105   1.953   3.088   3.127
    1   AR   Ar  106   2.423   3.209   4.637
    1   AR   Ar  107   1.926   3.981   5.507
    1   AR   Ar  108   3.615   2.759   4.651
    1   AR   Ar  109   1.565   4.202   3.823
    1   AR   Ar  110   1.316   4.631   6.134
    1   AR   Ar  111   4.194   4.070   6.921
    1   AR   Ar  112   0.899   5.303   7.488
    1   AR   Ar  113   2.491   4.727  -0.196
    1   AR   Ar  114   3.050   4.546  -1.394
    1   AR   Ar  115   2.676   3.638  -0.456
    1   AR   Ar  116   4.811   5.691  -0.820
    1   AR   Ar  117   0.841   5.381   3.632
    1   AR   Ar  118   0.369   6.960   3.090
    1   AR   Ar  119   2.202   3.917   2.300
    1   AR   Ar  120   1.016   4.968   2.607
    1   AR   Ar  121   6.742   4.001   4.297
    1   AR   Ar  122   2.826   6.109   4.860
    1   AR   Ar  123   2.482   4.709   4.948
    1   AR   Ar  124   1.914   5.313   1.988
    1   AR   Ar  125   0.585   4.200   5.197
    1   AR   Ar  126   0.201   7.038   4.879
    1   AR   Ar  127   3.620   4.748   7.480
    1   AR   Ar  128   2.312   5.010   6.730
    1   AR   Ar  129   1.633   0.365   2.351
    1   AR   Ar  130   3.587   1.463  -3.458
    1   AR   Ar  131   4.718   7.095   0.796
    1   AR   Ar  132   1.590   2.146  -1.045
    1   AR   Ar  133   3.959   0.141   3.446
    1   AR   Ar  134   4.157   1.171   3.315
    1   AR   Ar  135   4.906   0.867   2.738
    1   AR   Ar  136   4.748   0.182   1.847
    1   AR   Ar  137   3.260   6.230   3.701
    1   AR   Ar  138   4.949   1.185   4.942
    1   AR   Ar  139   5.736   1.932   5.114
    1   AR   Ar  140   4.141   0.494   4.468
    1   AR   Ar  141   3.978   6.661   4.444
    1   AR   Ar  142   4.127   7.078   5.409
    1   AR   Ar  143   5.673   6.878   5.634
    1   AR   Ar  144   4.916   0.487   5.716
    1   AR   Ar  145   3.868   3.985   0.695
    1   AR   Ar  146   4.387   2.252   1.636
    1   AR   Ar  147   5.819   1.802  -0.958
    1   AR   Ar  148   4.630   3.916  -2.620
    1   AR   Ar  149   3.329   2.094   1.274
    1   AR   Ar  150   2.339   2.048   2.823
    1   AR   Ar  151   3.156   2.107   3.417
    1   AR   Ar  152   2.795   2.848   0.364
    1   AR   Ar  153   3.338   1.035   4.022
    1   AR   Ar  154   4.012   1.847   4.169
    1   AR   Ar  155   5.860   0.763   5.777
    1   AR   Ar  156   3.099   4.067   3.982
    1   AR   Ar  157   2.905   2.802   5.693
    1   AR   Ar  158   1.136   2.873   6.769
    1   AR   Ar  159   3.292   1.842   5.907
    1   AR   Ar  160   2.864   2.318   6.696
    1   AR   Ar  161   5.294   2.472   1.258
    1   AR   Ar  162   4.567   4.962  -0.045
    1   AR   Ar  163   5.114   2.936   0.190
    1   AR   Ar  164   4.056   5.372   1.474
    1   AR   Ar  165   3.215   3.096   1.308
    1   AR   Ar  166   3.080   5.125   3.948
    1   AR   Ar  167   4.562   1.924   2.728
    1   AR   Ar  168   4.797   3.251  -0.955
    1   AR   Ar  169   2.731   2.877   2.268
    1   AR   Ar  170   3.559   3.593   5.186
    1   AR   Ar  171   4.293   3.954   4.447
    1   AR   Ar  172   4.478   5.589   4.485
    1   AR   Ar  173   2.156   3.361   6.588
    1   AR   Ar  174   3.702   4.814   6.082
    1   AR   Ar  175   4.205   3.180   6.229
    1   AR   Ar  176   3.611   5.147   4.795
    1   AR   Ar  177   6.366   5.795  -0.298
    1   AR   Ar  178   2.472   5.994   0.643
    1   AR   Ar  179   4.466   5.999   0.438
    1   AR   Ar  180   2.798   3.475  -1.929
    1   AR   Ar  181   1.602   5.592   0.979
    1   AR   Ar  182   2.943   6.754   2.587
    1   AR   Ar  183   3.714   4.861   2.538
    1   AR   Ar  184   4.016   6.421   1.309
    1   AR   Ar  185   2.037   5.202   4.025
    1   AR   Ar  186   3.874   5.603   3.316
    1   AR   Ar  187   4.034   6.457   2.424
    1   AR   Ar  188   2.994   6.051   1.611
    1   AR   Ar  189   3.096   3.935   6.284
    1   AR   Ar  190   4.878   6.274   5.954
    1   AR   Ar  191   4.852   5.301   5.587
    1   AR   Ar  192   4.008   6.062   5.242
    1   AR   Ar  193   0.302   5.947  -0.358
    1   AR   Ar  194   5.316   4.392  -1.585
    1   AR   Ar  195   6.524   0.592  -0.114
    1   AR   Ar  196   4.807   6.958  -0.335
    1   AR   Ar  197   5.412   1.684   0.602
    1   AR   Ar  198   6.514   0.904   1.088
    1   AR   Ar  199   5.317   1.267   1.482
    1   AR   Ar  200   6.340   2.011   0.292
    1   AR   Ar  201   4.910   6.972   2.912
    1   AR   Ar  202   5.180   2.554   4.346
    1   AR   Ar  203   6.631   6.421   4.652
    1   AR   Ar  204   5.145   0.659   3.912
    1   AR   Ar  205   6.146   0.896   3.327
    1   AR   Ar  206   4.991   7.117   4.756
    1   AR   Ar  207   6.892   0.328   5.787
    1   AR   Ar  208   6.911   0.476   4.060
    1   AR   Ar  209   5.521   2.365  -2.246
    1   AR   Ar  210   3.989   0.779   1.036
    1   AR   Ar  211   6.802   3.240   0.404
    1   AR   Ar  212   6.321   3.779  -1.934
    1   AR   Ar  213   3.445   1.986   2.304
    1   AR   Ar  214   3.725   3.023   2.384
    1   AR   Ar  215   6.250   2.291   1.400
    1   AR   Ar  216   6.940   4.277   1.142
    1   AR   Ar  217   4.361   3.042   3.273
    1   AR   Ar  218   4.456   2.566   5.294
    1   AR   Ar  219   5.361   1.565   3.316
    1   AR   Ar  220   5.489   2.900   2.685
    1   AR   Ar  221   6.343   0.378   4.892
    1   AR   Ar  222   4.414   1.521   5.885
    1   AR   Ar  223   0.075   0.733   6.844
    1   AR   Ar  224   5.362   2.894   5.626
    1   AR   Ar  225   5.865   5.332   0.416
    1   AR   Ar  226   5.092   3.946   2.554
    1   AR   Ar  227   0.093   4.979   0.530
    1   AR   Ar  228   5.063   6.031   1.352
    1   AR   Ar  229   5.945   4.504  -0.185
    1   AR   Ar  230   4.483   4.829   3.318
    1   AR   Ar  231   6.357   2.045   2.993
    1   AR   Ar  232   3.882   2.800   0.568
    1   AR   Ar  233   6.265   2.525   4.458
    1   AR   Ar  234   0.045   3.065   4.963
    1   AR   Ar  235   0.024   2.190   3.968
    1   AR   Ar  236   5.085   4.602   4.504
    1   AR   Ar  237   5.603   3.700   4.913
    1   AR   Ar  238   4.296   4.131   5.567
    1   AR   Ar  239   0.011   4.001   9.063
    1   AR   Ar  240   6.828   3.779   5.555
    1   AR   Ar  241   0.205   6.840   0.295
    1   AR   Ar  242   5.112   4.659   0.825
    1   AR   Ar  243   6.156   3.971   2.603
    1   AR   Ar  244   0.676   4.861  -1.230
    1   AR   Ar  245   5.686   0.218   1.282
    1   AR   Ar  246   6.032   5.859   1.585
    1   AR   Ar  247   5.305   3.606   0.960
    1   AR   Ar  248   5.747   6.420   0.514
    1   AR   Ar  249   4.712   5.522   2.458
    1   AR   Ar  250   5.376   6.069   4.816
    1   AR   Ar  251   5.951   5.493   4.082
    1   AR   Ar  252   4.933   5.864   3.505
    1   AR   Ar  253   5.202   4.220   5.861
    1   AR   Ar  254   4.553   5.404   6.551
    1   AR   Ar  255   5.067   3.111   7.654
    1   AR   Ar  256   5.680   6.701   3.904
    7.12000  7.12000 12.00000
Argon-slab step 2180
  256
    1   AR   Ar    1   6.845   1.768  -0.618
    1   AR   Ar    2   6.900   7.037   1.244
    1   AR   Ar    3   0.925   0.068   1.066
    1   AR   Ar    4   1.578   0.132   0.290
    1   AR   Ar    5   7.037   5.974   0.698
    1   AR   Ar    6   6.998   0.596   2.576
    1   AR   Ar    7   6.997   4.908   3.279
    1   AR   Ar    8   6.282   6.911   2.101
    1   AR   Ar    9   0.783   0.580   3.838
    1   AR   Ar   10   1.202   1.605   4.518
    1   AR   Ar   11   3.200   0.123   4.863
    1   AR   Ar   12   1.388   1.217   2.997
    1   AR   Ar   13   6.492   1.408   5.231
    1   AR   Ar   14   1.425   1.317   6.782
    1   AR   Ar   15   6.659   0.315   9.309
    1   AR   Ar   16   0.633   0.874   5.286
    1   AR   Ar   17   1.256   1.549  -0.293
    1   AR   Ar   18   5.975   3.049  -0.872
    1   AR   Ar   19   1.029   2.497   1.373
    1   AR   Ar   20   5.669   4.026  -2.771
    1   AR   Ar   21   6.055   0.796   2.235
    1   AR   Ar   22   7.072   1.789   2.015
    1   AR   Ar   23   0.239   1.030   0.395
    1   AR   Ar   24   0.095   2.296   0.956
    1   AR   Ar   25   0.117   1.394   3.389
    1   AR   Ar   26   6.410   1.407   4.273
    1   AR   Ar   27   2.302   1.321   3.602
    1   AR   Ar   28   1.078   2.730   4.896
    1   AR   Ar   29   5.261   1.489   6.445
    1   AR   Ar   30   1.016   2.020   6.017
    1   AR   Ar   31   0.387   6.802   7.163
    1   AR   Ar   32   1.730   2.760   5.752
    1   AR   Ar   33   1.608   4.315  -0.550
    1   AR   Ar   34   0.173   5.681   2.657
    1   AR   Ar   35   6.735   5.162   1.934
    1   AR   Ar   36   0.051   7.070  -3.121
    1   AR   Ar   37   6.735   3.018   2.208
    1   AR   Ar   38   0.027   4.172   2.384
    1   AR   Ar   39   1.170   3.908   2.839
    1   AR   Ar   40   1.266   3.882   1.743
    1   AR   Ar   41   0.392   2.300   2.770
    1   AR   Ar   42   6.914   5.320   4.839
    1   AR   Ar   43   6.941   2.285   5.615
    1   AR   Ar   44   0.476   4.190   3.583
    1   AR   Ar   45   0.666   3.051   5.860
    1   AR   Ar   46   1.012   5.900   6.412
    1   AR   Ar   47   6.032   3.147   6.668
    1   AR   Ar   48   6.556   6.124   6.136
    1   AR   Ar   49   6.576   6.819  -2.218
    1   AR   Ar   50   5.667   4.975   2.122
    1   AR   Ar   51   0.867   4.933   1.535
    1   AR   Ar   52   6.391   5.035  -1.265
    1   AR   Ar   53   5.801   6.158   2.664
    1   AR   Ar   54   6.390   6.976   3.311
    1   AR   Ar   55   5.450   4.583   3.376
    1   AR   Ar   56   0.577   6.917   2.024
    1   AR   Ar   57   6.718   3.446   3.327
    1   AR   Ar   58   6.929   5.851   3.822
    1   AR   Ar   59   1.842   5.450   5.651
    1   AR   Ar   60   0.769   6.340   4.121
    1   AR   Ar   61   6.026   5.544   5.485
    1   AR   Ar   62   0.832   5.800   5.125
    1   AR   Ar   63   2.096   6.290   6.827
    1   AR   Ar   64   0.818   6.830   5.892
    1   AR   Ar   65   3.792   0.022   0.463
    1   AR   Ar   66   1.409   1.095   1.045
    1   AR   Ar   67   3.494   6.302  -0.593
    1   AR   Ar   68   3.267   1.659  -0.986
    1   AR   Ar   69   2.892   1.179   0.970
    1   AR   Ar   70   0.662   1.110   2.176
    1   AR   Ar   71   3.213   0.688   2.790
    1   AR   Ar   72   3.200   0.549   1.815
    1   AR   Ar   73   2.919   0.045   3.637
    1   AR   Ar   74   2.490   0.973   4.650
    1   AR   Ar   75   3.645   1.114   5.237
    1   AR   Ar   76   2.335   1.060   2.074
    1   AR   Ar   77   2.320   6.448   5.748
    1   AR   Ar   78   1.722   0.300   6.224
    1   AR   Ar   79   3.140   6.054   6.944
    1   AR   Ar   80   2.933   5.402   5.665
    1   AR   Ar   81   2.451   1.622  -0.244
    1   AR   Ar   82   7.009   3.994  -0.599
    1   AR   Ar   83   1.806   2.196   0.248
    1   AR   Ar   84   0.806   3.704  -1.102
    1   AR   Ar   85   0.571   2.600  -0.488
    1   AR   Ar   86   2.020   3.174   1.496
    1   AR   Ar   87   2.209   2.133   1.595
    1   AR   Ar   88   3.636   3.983   1.683
    1   AR   Ar   89   0.623   3.331   2.238
    1   AR   Ar   90   2.739   2.251   4.664
    1   AR   Ar   91   1.118   2.288   3.536
    1   AR   Ar   92   1.328   2.084   2.366
    1   AR   Ar   93   2.125   1.339   5.941
    1   AR   Ar   94   0.582   0.989   9.353
    1   AR   Ar   95   3.949   6.637   6.246
    1   AR   Ar   96   2.922   0.634   6.314
    1   AR   Ar   97   3.925   2.649  -1.075
    1   AR   Ar   98   3.069   4.896   1.587
    1   AR   Ar   99   6.938   2.563  -1.289
    1   AR   Ar  100   1.685   3.070  -0.567
    1   AR   Ar  101   2.354   4.137   0.793
    1   AR   Ar  102   3.223   3.037   3.737
    1   AR   Ar  103   1.061   4.703   0.286
    1   AR   Ar  104   2.636   2.507  -0.890
    1   AR   Ar  105   1.976   3.109   3.137
    1   AR   Ar  106   2.439   3.248   4.644
    1   AR   Ar  107   1.943   3.981   5.503
    1   AR   Ar  108   3.613   2.777   4.688
    1   AR   Ar  109   1.513   4.191   3.847
    1   AR   Ar  110   1.298   4.644   6.147
    1   AR   Ar  111   4.205   4.074   6.938
    1   AR   Ar  112   0.913   5.329   7.478
    1   AR   Ar  113   2.497   4.739  -0.220
    1   AR   Ar  114   3.042   4.530  -1.408
    1   AR   Ar  115   2.665   3.630  -0.449
    1   AR   Ar  116   4.831   5.671  -0.839
    1   AR   Ar  117   0.852   5.362   3.624
    1   AR   Ar  118   0.380   6.960   3.096
    1   AR   Ar  119   2.203   3.914   2.292
    1   AR   Ar  120   0.990   4.947   2.635
    1   AR   Ar  121   6.717   3.983   4.311
    1   AR   Ar  122   2.848   6.117   4.882
    1   AR   Ar  123   2.478   4.699   4.934
    1   AR   Ar  124   1.939   5.326   2.011
    1   AR   Ar  125   0.553   4.212   5.220
    1   AR   Ar  126   0.207   7.055   4.900
    1   AR   Ar  127   3.615   4.753   7.458
    1   AR   Ar  128   2.320   4.989   6.716
    1   AR   Ar  129   1.649   0.376   2.363
    1   AR   Ar  130   3.590   1.469  -3.432
    1   AR   Ar  131   4.729   0.003   0.752
    1   AR   Ar  132   1.643   2.121  -1.027
    1   AR   Ar  133   3.986   0.134   3.469
    1   AR   Ar  134   4.157   1.185   3.324
    1   AR   Ar  135   4.911   0.872   2.746
    1   AR   Ar  136   4.766   0.184   1.863
    1   AR   Ar  137   3.226   6.218   3.717
    1   AR   Ar  138   4.930   1.194   4.945
    1   AR   Ar  139   5.698   1.945   5.134
    1   AR   Ar  140   4.127   0.516   4.471
    1   AR   Ar  141   4.000   6.638   4.411
    1   AR   Ar  142   4.125   7.089   5.427
    1   AR   Ar  143   5.696   6.872   5.615
    1   AR   Ar  144   4.935   0.495   5.705
    1   AR   Ar  145   3.841   3.979   0.687
    1   AR   Ar  146   4.367   2.234   1.671
    1   AR   Ar  147   5.827   1.798  -0.976
    1   AR   Ar  148   4.635   3.897  -2.606
    1   AR   Ar  149   3.325   2.111   1.251
    1   AR   Ar  150   2.309   2.061   2.833
    1   AR   Ar  151   3.136   2.104   3.381
    1   AR   Ar  152   2.784   2.861   0.383
    1   AR   Ar  153   3.344   1.054   4.017
    1   AR   Ar  154   4.018   1.841   4.167
    1   AR   Ar  155   5.844   0.768   5.785
    1   AR   Ar  156   3.074   4.056   3.990
    1   AR   Ar  157   2.867   2.804   5.668
    1   AR   Ar  158   1.157   2.884   6.771
    1   AR   Ar  159   3.302   1.870   5.872
    1   AR   Ar  160   2.823   2.332   6.664
    1   AR   Ar  161   5.294   2.492   1.295
    1   AR   Ar  162   4.569   4.963  -0.060
    1   AR   Ar  163   5.097   2.941   0.189
    1   AR   Ar  164   4.082   5.392   1.504
    1   AR   Ar  165   3.236   3.116   1.324
    1   AR   Ar  166   3.077   5.139   3.912
    1   AR   Ar  167   4.569   1.942   2.698
    1   AR   Ar  168   4.759   3.248  -0.898
    1   AR   Ar  169   2.712   2.873   2.279
    1   AR   Ar  170   3.543   3.563   5.174
    1   AR   Ar  171   4.292   3.966   4.461
    1   AR   Ar  172   4.496   5.614   4.494
    1   AR   Ar  173   2.166   3.348   6.576
    1   AR   Ar  174   3.698   4.815   6.095
    1   AR   Ar  175   4.190   3.153   6.214
    1   AR   Ar  176   3.614   5.185   4.789
    1   AR   Ar  177   6.387   5.789  -0.298
    1   AR   Ar  178   2.469   5.999   0.604
    1   AR   Ar  179   4.471   5.973   0.431
    1   AR   Ar  180   2.798   3.498  -1.901
    1   AR   Ar  181   1.591   5.586   0.965
    1   AR   Ar  182   2.920   6.772   2.565
    1   AR   Ar  183   3.719   4.861   2.538
    1   AR   Ar  184   4.016   6.426   1.325
    1   AR   Ar  185   2.067   5.201   3.986
    1   AR   Ar  186   3.893   5.607   3.305
    1   AR   Ar  187   4.039   6.485   2.439
    1   AR   Ar  188   2.979   6.052   1.555
    1   AR   Ar  189   3.086   3.926   6.315
    1   AR   Ar  190   4.894   6.270   5.966
    1   AR   Ar  191   4.837   5.302   5.614
    1   AR   Ar  192   4.001   6.067   5.240
    1   AR   Ar  193   0.265   5.943  -0.376
    1   AR   Ar  194   5.302   4.376  -1.577
    1   AR   Ar  195   6.552   0.589  -0.087
    1   AR   Ar  196   4.789   6.918  -0.294
    1   AR   Ar  197   5.397   1.684   0.583
    1   AR   Ar  198   6.562   0.921   1.083
    1   AR   Ar  199   5.363   1.282   1.486
    1   AR   Ar  200   6.326   2.053   0.262
    1   AR   Ar  201   4.901   6.984   2.899
    1   AR   Ar  202   5.175   2.577   4.364
    1   AR   Ar  203   6.615   6.451   4.642
    1   AR   Ar  204   5.150   0.659   3.906
    1   AR   Ar  205   6.123   0.891   3.307
    1   AR   Ar  206   4.989   7.098   4.754
    1   AR   Ar  207   6.868   0.334   5.806
    1   AR   Ar  208   6.903   0.472   4.081
    1   AR   Ar  209   5.507   2.366  -2.223
    1   AR   Ar  210   3.994   0.791   1.048
    1   AR   Ar  211   6.828   3.230   0.399
    1   AR   Ar  212   6.310   3.780  -1.943
    1   AR   Ar  213   3.459   1.970   2.263
    1   AR   Ar  214   3.704   3.038   2.415
    1   AR   Ar  215   6.265   2.305   1.421
    1   AR   Ar  216   6.946   4.279   1.156
    1   AR   Ar  217   4.420   3.035   3.233
    1   AR   Ar  218   4.486   2.571   5.317
    1   AR   Ar  219   5.374   1.579   3.324
    1   AR   Ar  220   5.506   2.916   2.686
    1   AR   Ar  221   6.330   0.367   4.908
    1   AR   Ar  222   4.400   1.541   5.889
    1   AR   Ar  223   0.099   0.711   6.832
    1   AR   Ar  224   5.339   2.882   5.624
    1   AR   Ar  225   5.880   5.338   0.396
    1   AR   Ar  226   5.092   3.920   2.533
    1   AR   Ar  227   0.083   4.993   0.512
    1   AR   Ar  228   5.071   6.011   1.355
    1   AR   Ar  229   5.955   4.527  -0.170
    1   AR   Ar  230   4.472   4.845   3.334
    1   AR   Ar  231   6.374   2.022   2.966
    1   AR   Ar  232   3.880   2.800   0.557
    1   AR   Ar  233   6.262   2.535   4.458
    1   AR   Ar  234   0.042   3.035   4.982
    1   AR   Ar  235   7.110   2.201   3.984
    1   AR   Ar  236   5.087   4.607   4.477
    1   AR   Ar  237   5.583   3.716   4.948
    1   AR   Ar  238   4.314   4.139   5.563
    1   AR   Ar  239   0.010   4.023   9.035
    1   AR   Ar  240   6.821   3.754   5.568
    1   AR   Ar  241   0.225   6.808   0.310
    1   AR   Ar  242   5.097   4.665   0.832
    1   AR   Ar  243   6.215   3.976   2.578
    1   AR   Ar  244   0.683   4.859  -1.223
    1   AR   Ar  245   5.664   0.207   1.275
    1   AR   Ar  246   6.055   5.872   1.586
    1   AR   Ar  247   5.273   3.576   0.971
    1   AR   Ar  248   5.740   6.396   0.485
    1   AR   Ar  249   4.660   5.544   2.479
    1   AR   Ar  250   5.341   6.083   4.835
    1   AR   Ar  251   5.952   5.466   4.067
    1   AR   Ar  252   4.921   5.858   3.498
    1   AR   Ar  253   5.185   4.224   5.868
    1   AR   Ar  254   4.578   5.404   6.544
    1   AR   Ar  255   5.067   3.105   7.658
    1   AR   Ar  256   5.663   6.674   3.888
    7.12000  7.12000 12.00000
Argon-slab step 2185
  256
    1   AR   Ar    1   6.823   1.785  -0.625
    1   AR   Ar    2   6.892   7.042   1.215
    1   AR   Ar    3   0.939   0.083   1.060
    1   AR   Ar    4   1.599   0.165   0.264
    1   AR   Ar    5   7.006   5.956   0.702
    1   AR   Ar    6   7.004   0.631   2.577
    1   AR   Ar    7   7.012   4.908   3.268
    1   AR   Ar    8   6.278   6.894   2.102
    1   AR   Ar    9   0.788   0.546   3.840
    1   AR   Ar   10   1.193   1.604   4.512
    1   AR   Ar   11   3.193   0.111   4.853
    1   AR   Ar   12   1.364   1.211   2.979
    1   AR   Ar   13   6.504   1.424   5.241
    1   AR   Ar   14   1.436   1.323   6.771
    1   AR   Ar   15   6.638   0.325   9.277
    1   AR   Ar   16   0.649   0.868   5.298
    1   AR   Ar   17   1.270   1.560  -0.306
    1   AR   Ar   18   5.949   3.065  -0.872
    1   AR   Ar   19   1.016   2.504   1.342
    1   AR   Ar   20   5.670   4.032  -2.791
    1   AR   Ar   21   6.056   0.790   2.215
    1   AR   Ar   22   7.050   1.774   1.984
    1   AR   Ar   23   0.254   1.022   0.397
    1   AR   Ar   24   0.112   2.314   0.945
    1   AR   Ar   25   0.170   1.418   3.381
    1   AR   Ar   26   6.403   1.389   4.256
    1   AR   Ar   27   2.289   1.298   3.639
    1   AR   Ar   28   1.064   2.733   4.886
    1   AR   Ar   29   5.249   1.491   6.431
    1   AR   Ar   30   1.014   1.997   6.050
    1   AR   Ar   31   0.398   6.790   7.186
    1   AR   Ar   32   1.710   2.754   5.759
    1   AR   Ar   33   1.592   4.252  -0.528
    1   AR   Ar   34   0.165   5.634   2.656
    1   AR   Ar   35   6.738   5.199   1.949
    1   AR   Ar   36   0.040   7.090  -3.093
    1   AR   Ar   37   6.701   3.027   2.182
    1   AR   Ar   38   0.037   4.143   2.420
    1   AR   Ar   39   1.162   3.878   2.856
    1   AR   Ar   40   1.235   3.894   1.733
    1   AR   Ar   41   0.429   2.314   2.710
    1   AR   Ar   42   6.917   5.341   4.846
    1   AR   Ar   43   6.973   2.265   5.599
    1   AR   Ar   44   0.480   4.207   3.579
    1   AR   Ar   45   0.685   3.061   5.861
    1   AR   Ar   46   1.042   5.937   6.440
    1   AR   Ar   47   6.025   3.142   6.693
    1   AR   Ar   48   6.573   6.132   6.141
    1   AR   Ar   49   6.564   6.806  -2.218
    1   AR   Ar   50   5.670   4.991   2.091
    1   AR   Ar   51   0.841   4.948   1.519
    1   AR   Ar   52   6.429   5.046  -1.275
    1   AR   Ar   53   5.817   6.140   2.686
    1   AR   Ar   54   6.407   6.974   3.293
    1   AR   Ar   55   5.449   4.533   3.388
    1   AR   Ar   56   0.611   6.875   2.007
    1   AR   Ar   57   6.737   3.470   3.339
    1   AR   Ar   58   6.921   5.859   3.831
    1   AR   Ar   59   1.860   5.446   5.633
    1   AR   Ar   60   0.797   6.292   4.132
    1   AR   Ar   61   6.052   5.566   5.480
    1   AR   Ar   62   0.841   5.812   5.099
    1   AR   Ar   63   2.077   6.321   6.809
    1   AR   Ar   64   0.831   6.820   5.889
    1   AR   Ar   65   3.787   0.030   0.441
    1   AR   Ar   66   1.414   1.084   1.047
    1   AR   Ar   67   3.490   6.343  -0.568
    1   AR   Ar   68   3.279   1.639  -0.979
    1   AR   Ar   69   2.889   1.166   0.974
    1   AR   Ar   70   0.615   1.116   2.189
    1   AR   Ar   71   3.222   0.704   2.801
    1   AR   Ar   72   3.202   0.552   1.816
    1   AR   Ar   73   2.936   0.059   3.676
    1   AR   Ar   74   2.476   0.981   4.679
    1   AR   Ar   75   3.646   1.097   5.206
    1   AR   Ar   76   2.316   1.081   2.054
    1   AR   Ar   77   2.320   6.464   5.792
    1   AR   Ar   78   1.734   0.319   6.262
    1   AR   Ar   79   3.129   6.085   6.947
    1   AR   Ar   80   2.904   5.420   5.679
    1   AR   Ar   81   2.470   1.633  -0.251
    1   AR   Ar   82   7.020   3.998  -0.585
    1   AR   Ar   83   1.798   2.212   0.255
    1   AR   Ar   84   0.823   3.758  -1.092
    1   AR   Ar   85   0.576   2.572  -0.462
    1   AR   Ar   86   2.030   3.206   1.490
    1   AR   Ar   87   2.223   2.128   1.578
    1   AR   Ar   88   3.635   3.993   1.693
    1   AR   Ar   89   0.640   3.347   2.238
    1   AR   Ar   90   2.737   2.250   4.670
    1   AR   Ar   91   1.151   2.261   3.541
    1   AR   Ar   92   1.340   2.067   2.335
    1   AR   Ar   93   2.126   1.318   5.950
    1   AR   Ar   94   0.610   1.029   9.373
    1   AR   Ar   95   3.928   6.635   6.273
    1   AR   Ar   96   2.932   0.626   6.287
    1   AR   Ar   97   3.935   2.653  -1.092
    1   AR   Ar   98   3.068   4.902   1.550
    1   AR   Ar   99   6.961   2.554  -1.290
    1   AR   Ar  100   1.717   3.084  -0.564
    1   AR   Ar  101   2.345   4.179   0.832
    1   AR   Ar  102   3.247   3.038   3.722
    1   AR   Ar  103   1.075   4.685   0.306
    1   AR   Ar  104   2.651   2.531  -0.904
    1   AR   Ar  105   2.000   3.130   3.146
    1   AR   Ar  106   2.457   3.292   4.652
    1   AR   Ar  107   1.959   3.977   5.501
    1   AR   Ar  108   3.616   2.777   4.709
    1   AR   Ar  109   1.463   4.180   3.872
    1   AR   Ar  110   1.279   4.657   6.161
    1   AR   Ar  111   4.217   4.075   6.951
    1   AR   Ar  112   0.926   5.356   7.466
    1   AR   Ar  113   2.507   4.751  -0.243
    1   AR   Ar  114   3.015   4.549  -1.375
    1   AR   Ar  115   2.652   3.623  -0.442
    1   AR   Ar  116   4.851   5.651  -0.859
    1   AR   Ar  117   0.862   5.342   3.616
    1   AR   Ar  118   0.391   6.956   3.106
    1   AR   Ar  119   2.205   3.912   2.284
    1   AR   Ar  120   0.964   4.925   2.661
    1   AR   Ar  121   6.693   3.966   4.326
    1   AR   Ar  122   2.873   6.125   4.900
    1   AR   Ar  123   2.477   4.692   4.917
    1   AR   Ar  124   1.956   5.323   2.013
    1   AR   Ar  125   0.525   4.227   5.240
    1   AR   Ar  126   0.228   7.080   4.925
    1   AR   Ar  127   3.600   4.749   7.446
    1   AR   Ar  128   2.334   4.954   6.702
    1   AR   Ar  129   1.658   0.381   2.375
    1   AR   Ar  130   3.592   1.488  -3.387
    1   AR   Ar  131   4.752   0.030   0.715
    1   AR   Ar  132   1.698   2.098  -1.015
    1   AR   Ar  133   4.024   0.137   3.503
    1   AR   Ar  134   4.151   1.200   3.338
    1   AR   Ar  135   4.922   0.876   2.745
    1   AR   Ar  136   4.782   0.185   1.878
    1   AR   Ar  137   3.188   6.205   3.739
    1   AR   Ar  138   4.908   1.205   4.943
    1   AR   Ar  139   5.645   1.967   5.154
    1   AR   Ar  140   4.117   0.548   4.474
    1   AR   Ar  141   4.022   6.611   4.371
    1   AR   Ar  142   4.121   7.110   5.426
    1   AR   Ar  143   5.722   6.861   5.593
    1   AR   Ar  144   4.937   0.501   5.700
    1   AR   Ar  145   3.815   3.972   0.672
    1   AR   Ar  146   4.364   2.227   1.686
    1   AR   Ar  147   5.835   1.795  -0.994
    1   AR   Ar  148   4.639   3.878  -2.591
    1   AR   Ar  149   3.318   2.124   1.216
    1   AR   Ar  150   2.270   2.073   2.836
    1   AR   Ar  151   3.143   2.112   3.386
    1   AR   Ar  152   2.808   2.843   0.388
    1   AR   Ar  153   3.346   1.070   4.010
    1   AR   Ar  154   4.025   1.839   4.167
    1   AR   Ar  155   5.837   0.765   5.758
    1   AR   Ar  156   3.076   4.049   4.012
    1   AR   Ar  157   2.828   2.810   5.640
    1   AR   Ar  158   1.177   2.891   6.773
    1   AR   Ar  159   3.315   1.895   5.835
    1   AR   Ar  160   2.778   2.348   6.635
    1   AR   Ar  161   5.290   2.516   1.330
    1   AR   Ar  162   4.570   4.963  -0.073
    1   AR   Ar  163   5.080   2.942   0.184
    1   AR   Ar  164   4.109   5.409   1.535
    1   AR   Ar  165   3.252   3.139   1.343
    1   AR   Ar  166   3.078   5.154   3.873
    1   AR   Ar  167   4.576   1.964   2.666
    1   AR   Ar  168   4.726   3.247  -0.841
    1   AR   Ar  169   2.687   2.868   2.289
    1   AR   Ar  170   3.519   3.560   5.179
    1   AR   Ar  171   4.285   3.974   4.474
    1   AR   Ar  172   4.519   5.634   4.493
    1   AR   Ar  173   2.177   3.336   6.571
    1   AR   Ar  174   3.695   4.817   6.111
    1   AR   Ar  175   4.174   3.127   6.197
    1   AR   Ar  176   3.613   5.219   4.789
    1   AR   Ar  177   6.433   5.789  -0.316
    1   AR   Ar  178   2.470   6.005   0.562
    1   AR   Ar  179   4.478   5.948   0.423
    1   AR   Ar  180   2.776   3.520  -1.877
    1   AR   Ar  181   1.576   5.577   0.952
    1   AR   Ar  182   2.897   6.788   2.554
    1   AR   Ar  183   3.723   4.861   2.535
    1   AR   Ar  184   4.016   6.436   1.341
    1   AR   Ar  185   2.089   5.201   3.949
    1   AR   Ar  186   3.907   5.621   3.289
    1   AR   Ar  187   4.043   6.512   2.454
    1   AR   Ar  188   2.966   6.052   1.502
    1   AR   Ar  189   3.078   3.917   6.344
    1   AR   Ar  190   4.911   6.269   5.976
    1   AR   Ar  191   4.825   5.296   5.622
    1   AR   Ar  192   3.990   6.070   5.253
    1   AR   Ar  193   0.237   5.938  -0.394
    1   AR   Ar  194   5.331   4.381  -1.545
    1   AR   Ar  195   6.577   0.585  -0.059
    1   AR   Ar  196   4.770   6.874  -0.253
    1   AR   Ar  197   5.380   1.687   0.554
    1   AR   Ar  198   6.606   0.941   1.082
    1   AR   Ar  199   5.408   1.294   1.501
    1   AR   Ar  200   6.314   2.097   0.234
    1   AR   Ar  201   4.895   6.989   2.889
    1   AR   Ar  202   5.168   2.600   4.383
    1   AR   Ar  203   6.585   6.470   4.630
    1   AR   Ar  204   5.155   0.659   3.899
    1   AR   Ar  205   6.106   0.881   3.290
    1   AR   Ar  206   4.991   7.078   4.750
    1   AR   Ar  207   6.846   0.339   5.828
    1   AR   Ar  208   6.895   0.469   4.095
    1   AR   Ar  209   5.493   2.367  -2.199
    1   AR   Ar  210   4.001   0.813   1.069
    1   AR   Ar  211   6.854   3.220   0.394
    1   AR   Ar  212   6.300   3.781  -1.949
    1   AR   Ar  213   3.472   1.952   2.228
    1   AR   Ar  214   3.690   3.054   2.446
    1   AR   Ar  215   6.287   2.316   1.443
    1   AR   Ar  216   6.946   4.283   1.160
    1   AR   Ar  217   4.480   3.027   3.194
    1   AR   Ar  218   4.494   2.566   5.329
    1   AR   Ar  219   5.385   1.603   3.338
    1   AR   Ar  220   5.525   2.930   2.687
    1   AR   Ar  221   6.298   0.390   4.936
    1   AR   Ar  222   4.382   1.560   5.888
    1   AR   Ar  223   0.124   0.690   6.817
    1   AR   Ar  224   5.333   2.877   5.629
    1   AR   Ar  225   5.887   5.345   0.394
    1   AR   Ar  226   5.079   3.895   2.532
    1   AR   Ar  227   0.073   5.005   0.484
    1   AR   Ar  228   5.071   5.974   1.359
    1   AR   Ar  229   5.967   4.541  -0.161
    1   AR   Ar  230   4.467   4.847   3.352
    1   AR   Ar  231   6.393   2.000   2.939
    1   AR   Ar  232   3.881   2.799   0.544
    1   AR   Ar  233   6.257   2.548   4.460
    1   AR   Ar  234   0.042   3.003   4.987
    1   AR   Ar  235   7.080   2.216   4.001
    1   AR   Ar  236   5.093   4.618   4.450
    1   AR   Ar  237   5.563   3.731   4.982
    1   AR   Ar  238   4.307   4.146   5.550
    1   AR   Ar  239   0.010   4.045   9.006
    1   AR   Ar  240   6.805   3.734   5.588
    1   AR   Ar  241   0.250   6.791   0.316
    1   AR   Ar  242   5.083   4.673   0.841
    1   AR   Ar  243   6.255   3.981   2.555
    1   AR   Ar  244   0.689   4.855  -1.213
    1   AR   Ar  245   5.645   0.196   1.268
    1   AR   Ar  246   6.083   5.890   1.585
    1   AR   Ar  247   5.242   3.549   0.987
    1   AR   Ar  248   5.732   6.374   0.457
    1   AR   Ar  249   4.608   5.567   2.497
    1   AR   Ar  250   5.310   6.099   4.856
    1   AR   Ar  251   5.950   5.438   4.053
    1   AR   Ar  252   4.910   5.847   3.498
    1   AR   Ar  253   5.198   4.232   5.886
    1   AR   Ar  254   4.597   5.404   6.553
    1   AR   Ar  255   5.068   3.098   7.660
    1   AR   Ar  256   5.644   6.650   3.884
    7.12000  7.12000 12.00000
Argon-slab step 2190
  256
    1   AR   Ar    1   6.806   1.797  -0.628
    1   AR   Ar    2   6.884   7.045   1.189
    1   AR   Ar    3   0.950   0.098   1.057
    1   AR   Ar    4   1.621   0.199   0.236
    1   AR   Ar    5   6.966   5.938   0.713
    1   AR   Ar    6   6.999   0.657   2.587
    1   AR   Ar    7   7.012   4.910   3.259
    1   AR   Ar    8   6.275   6.876   2.104
    1   AR   Ar    9   0.786   0.537   3.867
    1   AR   Ar   10   1.184   1.604   4.506
    1   AR   Ar   11   3.186   0.098   4.842
    1   AR   Ar   12   1.339   1.206   2.964
    1   AR   Ar   13   6.524   1.438   5.257
    1   AR   Ar   14   1.433   1.330   6.749
    1   AR   Ar   15   6.617   0.335   9.245
    1   AR   Ar   16   0.665   0.864   5.311
    1   AR   Ar   17   1.275   1.560  -0.314
    1   AR   Ar   18   5.948   3.066  -0.871
    1   AR   Ar   19   1.011   2.514   1.315
    1   AR   Ar   20   5.693   4.021  -2.802
    1   AR   Ar   21   6.054   0.783   2.190
    1   AR   Ar   22   7.016   1.765   1.947
    1   AR   Ar   23   0.278   1.017   0.399
    1   AR   Ar   24   0.117   2.316   0.928
    1   AR   Ar   25   0.181   1.418   3.386
    1   AR   Ar   26   6.392   1.374   4.227
    1   AR   Ar   27   2.278   1.276   3.676
    1   AR   Ar   28   1.053   2.735   4.873
    1   AR   Ar   29   5.242   1.493   6.417
    1   AR   Ar   30   1.009   1.973   6.081
    1   AR   Ar   31   0.410   6.778   7.206
    1   AR   Ar   32   1.694   2.749   5.765
    1   AR   Ar   33   1.577   4.187  -0.507
    1   AR   Ar   34   0.165   5.602   2.656
    1   AR   Ar   35   6.741   5.224   1.958
    1   AR   Ar   36   0.030   7.105  -3.066
    1   AR   Ar   37   6.668   3.035   2.157
    1   AR   Ar   38   0.076   4.126   2.453
    1   AR   Ar   39   1.187   3.856   2.858
    1   AR   Ar   40   1.214   3.920   1.711
    1   AR   Ar   41   0.459   2.332   2.655
    1   AR   Ar   42   6.920   5.362   4.851
    1   AR   Ar   43   7.006   2.239   5.593
    1   AR   Ar   44   0.485   4.215   3.579
    1   AR   Ar   45   0.700   3.074   5.860
    1   AR   Ar   46   1.074   5.971   6.468
    1   AR   Ar   47   6.017   3.136   6.717
    1   AR   Ar   48   6.590   6.157   6.131
    1   AR   Ar   49   6.551   6.793  -2.217
    1   AR   Ar   50   5.674   4.964   2.084
    1   AR   Ar   51   0.817   4.956   1.516
    1   AR   Ar   52   6.467   5.056  -1.282
    1   AR   Ar   53   5.830   6.121   2.710
    1   AR   Ar   54   6.430   6.972   3.271
    1   AR   Ar   55   5.423   4.544   3.418
    1   AR   Ar   56   0.612   6.813   2.024
    1   AR   Ar   57   6.759   3.492   3.352
    1   AR   Ar   58   6.915   5.869   3.837
    1   AR   Ar   59   1.874   5.442   5.615
    1   AR   Ar   60   0.823   6.247   4.142
    1   AR   Ar   61   6.073   5.586   5.471
    1   AR   Ar   62   0.849   5.824   5.076
    1   AR   Ar   63   2.054   6.352   6.792
    1   AR   Ar   64   0.843   6.813   5.885
    1   AR   Ar   65   3.773   0.031   0.412
    1   AR   Ar   66   1.414   1.061   1.045
    1   AR   Ar   67   3.487   6.379  -0.543
    1   AR   Ar   68   3.292   1.619  -0.974
    1   AR   Ar   69   2.885   1.152   0.978
    1   AR   Ar   70   0.595   1.121   2.196
    1   AR   Ar   71   3.216   0.721   2.838
    1   AR   Ar   72   3.207   0.549   1.805
    1   AR   Ar   73   2.951   0.082   3.715
    1   AR   Ar   74   2.463   0.991   4.709
    1   AR   Ar   75   3.646   1.080   5.176
    1   AR   Ar   76   2.300   1.110   2.034
    1   AR   Ar   77   2.320   6.480   5.833
    1   AR   Ar   78   1.746   0.336   6.301
    1   AR   Ar   79   3.107   6.098   6.968
    1   AR   Ar   80   2.878   5.436   5.696
    1   AR   Ar   81   2.492   1.640  -0.259
    1   AR   Ar   82   7.029   4.003  -0.570
    1   AR   Ar   83   1.789   2.239   0.270
    1   AR   Ar   84   0.839   3.810  -1.083
    1   AR   Ar   85   0.583   2.543  -0.435
    1   AR   Ar   86   2.041   3.236   1.481
    1   AR   Ar   87   2.237   2.121   1.562
    1   AR   Ar   88   3.643   4.011   1.708
    1   AR   Ar   89   0.641   3.336   2.237
    1   AR   Ar   90   2.732   2.242   4.684
    1   AR   Ar   91   1.185   2.233   3.545
    1   AR   Ar   92   1.355   2.050   2.299
    1   AR   Ar   93   2.128   1.299   5.956
    1   AR   Ar   94   0.631   1.048   9.379
    1   AR   Ar   95   3.903   6.627   6.308
    1   AR   Ar   96   2.943   0.619   6.258
    1   AR   Ar   97   3.939   2.653  -1.111
    1   AR   Ar   98   3.066   4.909   1.513
    1   AR   Ar   99   6.983   2.549  -1.293
    1   AR   Ar  100   1.747   3.099  -0.560
    1   AR   Ar  101   2.336   4.221   0.871
    1   AR   Ar  102   3.271   3.048   3.710
    1   AR   Ar  103   1.090   4.668   0.328
    1   AR   Ar  104   2.670   2.559  -0.916
    1   AR   Ar  105   2.023   3.151   3.155
    1   AR   Ar  106   2.475   3.338   4.661
    1   AR   Ar  107   1.974   3.970   5.501
    1   AR   Ar  108   3.627   2.747   4.713
    1   AR   Ar  109   1.420   4.170   3.898
    1   AR   Ar  110   1.261   4.671   6.174
    1   AR   Ar  111   4.231   4.074   6.959
    1   AR   Ar  112   0.941   5.384   7.453
    1   AR   Ar  113   2.518   4.764  -0.264
    1   AR   Ar  114   2.980   4.559  -1.357
    1   AR   Ar  115   2.641   3.617  -0.434
    1   AR   Ar  116   4.872   5.633  -0.877
    1   AR   Ar  117   0.872   5.320   3.611
    1   AR   Ar  118   0.402   6.951   3.118
    1   AR   Ar  119   2.208   3.910   2.278
    1   AR   Ar  120   0.939   4.900   2.683
    1   AR   Ar  121   6.670   3.949   4.343
    1   AR   Ar  122   2.900   6.135   4.913
    1   AR   Ar  123   2.479   4.687   4.897
    1   AR   Ar  124   1.970   5.316   2.011
    1   AR   Ar  125   0.501   4.242   5.259
    1   AR   Ar  126   0.255   7.105   4.952
    1   AR   Ar  127   3.577   4.738   7.436
    1   AR   Ar  128   2.353   4.910   6.687
    1   AR   Ar  129   1.663   0.380   2.388
    1   AR   Ar  130   3.593   1.506  -3.342
    1   AR   Ar  131   4.782   0.056   0.689
    1   AR   Ar  132   1.756   2.078  -1.010
    1   AR   Ar  133   4.060   0.139   3.534
    1   AR   Ar  134   4.144   1.216   3.352
    1   AR   Ar  135   4.937   0.882   2.738
    1   AR   Ar  136   4.794   0.186   1.892
    1   AR   Ar  137   3.149   6.190   3.765
    1   AR   Ar  138   4.886   1.217   4.936
    1   AR   Ar  139   5.586   1.990   5.174
    1   AR   Ar  140   4.115   0.581   4.475
    1   AR   Ar  141   4.044   6.582   4.327
    1   AR   Ar  142   4.112   0.014   5.412
    1   AR   Ar  143   5.751   6.845   5.569
    1   AR   Ar  144   4.920   0.503   5.700
    1   AR   Ar  145   3.789   3.964   0.653
    1   AR   Ar  146   4.371   2.228   1.683
    1   AR   Ar  147   5.840   1.794  -1.013
    1   AR   Ar  148   4.640   3.858  -2.574
    1   AR   Ar  149   3.311   2.133   1.176
    1   AR   Ar  150   2.250   2.073   2.847
    1   AR   Ar  151   3.155   2.109   3.390
    1   AR   Ar  152   2.829   2.823   0.391
    1   AR   Ar  153   3.340   1.085   4.001
    1   AR   Ar  154   4.035   1.842   4.172
    1   AR   Ar  155   5.849   0.776   5.740
    1   AR   Ar  156   3.095   4.046   4.046
    1   AR   Ar  157   2.788   2.820   5.612
    1   AR   Ar  158   1.180   2.885   6.775
    1   AR   Ar  159   3.329   1.918   5.796
    1   AR   Ar  160   2.732   2.365   6.607
    1   AR   Ar  161   5.279   2.540   1.329
    1   AR   Ar  162   4.571   4.963  -0.086
    1   AR   Ar  163   5.061   2.938   0.175
    1   AR   Ar  164   4.135   5.422   1.566
    1   AR   Ar  165   3.263   3.161   1.363
    1   AR   Ar  166   3.088   5.165   3.831
    1   AR   Ar  167   4.583   1.986   2.638
    1   AR   Ar  168   4.700   3.251  -0.782
    1   AR   Ar  169   2.660   2.864   2.298
    1   AR   Ar  170   3.488   3.586   5.202
    1   AR   Ar  171   4.274   3.979   4.485
    1   AR   Ar  172   4.539   5.646   4.483
    1   AR   Ar  173   2.188   3.324   6.564
    1   AR   Ar  174   3.693   4.820   6.128
    1   AR   Ar  175   4.156   3.103   6.180
    1   AR   Ar  176   3.603   5.228   4.789
    1   AR   Ar  177   6.456   5.788  -0.338
    1   AR   Ar  178   2.473   6.012   0.518
    1   AR   Ar  179   4.485   5.925   0.415
    1   AR   Ar  180   2.742   3.543  -1.862
    1   AR   Ar  181   1.555   5.568   0.938
    1   AR   Ar  182   2.873   6.799   2.591
    1   AR   Ar  183   3.727   4.861   2.529
    1   AR   Ar  184   4.017   6.451   1.356
    1   AR   Ar  185   2.100   5.200   3.912
    1   AR   Ar  186   3.908   5.650   3.272
    1   AR   Ar  187   4.044   6.539   2.469
    1   AR   Ar  188   2.976   6.053   1.526
    1   AR   Ar  189   3.071   3.907   6.372
    1   AR   Ar  190   4.928   6.273   5.984
    1   AR   Ar  191   4.816   5.285   5.610
    1   AR   Ar  192   3.978   6.074   5.277
    1   AR   Ar  193   0.237   5.941  -0.393
    1   AR   Ar  194   5.389   4.401  -1.496
    1   AR   Ar  195   6.597   0.578  -0.033
    1   AR   Ar  196   4.750   6.827  -0.219
    1   AR   Ar  197   5.362   1.692   0.521
    1   AR   Ar  198   6.645   0.963   1.084
    1   AR   Ar  199   5.452   1.304   1.522
    1   AR   Ar  200   6.303   2.144   0.209
    1   AR   Ar  201   4.893   6.986   2.885
    1   AR   Ar  202   5.159   2.624   4.402
    1   AR   Ar  203   6.547   6.486   4.617
    1   AR   Ar  204   5.159   0.659   3.892
    1   AR   Ar  205   6.103   0.857   3.284
    1   AR   Ar  206   4.992   7.061   4.746
    1   AR   Ar  207   6.826   0.343   5.852
    1   AR   Ar  208   6.885   0.463   4.102
    1   AR   Ar  209   5.480   2.368  -2.174
    1   AR   Ar  210   4.010   0.839   1.094
    1   AR   Ar  211   6.879   3.209   0.388
    1   AR   Ar  212   6.291   3.781  -1.952
    1   AR   Ar  213   3.483   1.932   2.199
    1   AR   Ar  214   3.680   3.070   2.475
    1   AR   Ar  215   6.311   2.326   1.465
    1   AR   Ar  216   6.943   4.287   1.158
    1   AR   Ar  217   4.541   3.018   3.156
    1   AR   Ar  218   4.462   2.542   5.313
    1   AR   Ar  219   5.394   1.633   3.354
    1   AR   Ar  220   5.545   2.942   2.687
    1   AR   Ar  221   6.264   0.411   4.956
    1   AR   Ar  222   4.361   1.580   5.883
    1   AR   Ar  223   0.150   0.668   6.802
    1   AR   Ar  224   5.348   2.881   5.642
    1   AR   Ar  225   5.888   5.355   0.408
    1   AR   Ar  226   5.064   3.873   2.531
    1   AR   Ar  227   0.064   4.992   0.438
    1   AR   Ar  228   5.068   5.937   1.363
    1   AR   Ar  229   5.980   4.544  -0.159
    1   AR   Ar  230   4.468   4.833   3.373
    1   AR   Ar  231   6.413   1.977   2.912
    1   AR   Ar  232   3.886   2.798   0.531
    1   AR   Ar  233   6.247   2.564   4.466
    1   AR   Ar  234   0.044   2.977   4.976
    1   AR   Ar  235   7.059   2.233   4.017
    1   AR   Ar  236   5.102   4.634   4.424
    1   AR   Ar  237   5.543   3.746   5.014
    1   AR   Ar  238   4.284   4.151   5.531
    1   AR   Ar  239   0.010   4.067   8.977
    1   AR   Ar  240   6.782   3.716   5.614
    1   AR   Ar  241   0.280   6.784   0.314
    1   AR   Ar  242   5.069   4.681   0.852
    1   AR   Ar  243   6.261   3.987   2.540
    1   AR   Ar  244   0.694   4.852  -1.202
    1   AR   Ar  245   5.633   0.185   1.260
    1   AR   Ar  246   6.111   5.912   1.582
    1   AR   Ar  247   5.212   3.528   1.008
    1   AR   Ar  248   5.722   6.357   0.432
    1   AR   Ar  249   4.561   5.589   2.512
    1   AR   Ar  250   5.317   6.123   4.848
    1   AR   Ar  251   5.946   5.411   4.040
    1   AR   Ar  252   4.905   5.838   3.500
    1   AR   Ar  253   5.230   4.241   5.911
    1   AR   Ar  254   4.610   5.405   6.577
    1   AR   Ar  255   5.033   3.100   7.652
    1   AR   Ar  256   5.650   6.654   3.891
    7.12000  7.12000 12.00000
Argon-slab step 2195
  256
    1   AR   Ar    1   6.818   1.809  -0.624
    1   AR   Ar    2   6.874   7.047   1.165
    1   AR   Ar    3   0.958   0.113   1.056
    1   AR   Ar    4   1.644   0.234   0.207
    1   AR   Ar    5   6.920   5.922   0.729
    1   AR   Ar    6   6.977   0.669   2.611
    1   AR   Ar    7   6.995   4.906   3.257
    1   AR   Ar    8   6.285   6.845   2.099
    1   AR   Ar    9   0.787   0.530   3.895
    1   AR   Ar   10   1.174   1.603   4.500
    1   AR   Ar   11   3.177   0.085   4.830
    1   AR   Ar   12   1.314   1.203   2.955
    1   AR   Ar   13   6.543   1.444   5.272
    1   AR   Ar   14   1.428   1.333   6.731
    1   AR   Ar   15   6.598   0.347   9.213
    1   AR   Ar   16   0.682   0.864   5.326
    1   AR   Ar   17   1.272   1.551  -0.316
    1   AR   Ar   18   5.964   3.056  -0.870
    1   AR   Ar   19   1.017   2.526   1.294
    1   AR   Ar   20   5.716   4.010  -2.813
    1   AR   Ar   21   6.061   0.754   2.160
    1   AR   Ar   22   6.976   1.760   1.909
    1   AR   Ar   23   0.315   1.015   0.402
    1   AR   Ar   24   0.105   2.294   0.904
    1   AR   Ar   25   0.164   1.403   3.400
    1   AR   Ar   26   6.377   1.362   4.195
    1   AR   Ar   27   2.266   1.254   3.710
    1   AR   Ar   28   1.045   2.734   4.858
    1   AR   Ar   29   5.239   1.494   6.403
    1   AR   Ar   30   1.001   1.953   6.106
    1   AR   Ar   31   0.423   6.765   7.225
    1   AR   Ar   32   1.684   2.744   5.771
    1   AR   Ar   33   1.569   4.126  -0.483
    1   AR   Ar   34   0.172   5.573   2.687
    1   AR   Ar   35   6.741   5.235   1.957
    1   AR   Ar   36   0.022   7.101  -3.039
    1   AR   Ar   37   6.636   3.045   2.135
    1   AR   Ar   38   0.101   4.118   2.480
    1   AR   Ar   39   1.221   3.839   2.866
    1   AR   Ar   40   1.202   3.956   1.683
    1   AR   Ar   41   0.482   2.352   2.606
    1   AR   Ar   42   6.924   5.384   4.854
    1   AR   Ar   43   7.042   2.212   5.599
    1   AR   Ar   44   0.487   4.212   3.581
    1   AR   Ar   45   0.710   3.089   5.856
    1   AR   Ar   46   1.106   6.001   6.498
    1   AR   Ar   47   6.007   3.131   6.740
    1   AR   Ar   48   6.606   6.178   6.123
    1   AR   Ar   49   6.538   6.780  -2.214
    1   AR   Ar   50   5.676   4.938   2.077
    1   AR   Ar   51   0.804   4.955   1.521
    1   AR   Ar   52   6.485   5.056  -1.292
    1   AR   Ar   53   5.842   6.099   2.737
    1   AR   Ar   54   6.456   6.967   3.245
    1   AR   Ar   55   5.401   4.569   3.449
    1   AR   Ar   56   0.611   6.751   2.042
    1   AR   Ar   57   6.782   3.512   3.363
    1   AR   Ar   58   6.912   5.877   3.840
    1   AR   Ar   59   1.880   5.438   5.597
    1   AR   Ar   60   0.804   6.242   4.136
    1   AR   Ar   61   6.087   5.602   5.456
    1   AR   Ar   62   0.875   5.829   5.090
    1   AR   Ar   63   2.029   6.382   6.783
    1   AR   Ar   64   0.853   6.809   5.878
    1   AR   Ar   65   3.755   0.029   0.382
    1   AR   Ar   66   1.409   1.021   1.039
    1   AR   Ar   67   3.453   6.398  -0.562
    1   AR   Ar   68   3.306   1.600  -0.969
    1   AR   Ar   69   2.880   1.140   0.981
    1   AR   Ar   70   0.603   1.132   2.195
    1   AR   Ar   71   3.211   0.741   2.881
    1   AR   Ar   72   3.214   0.544   1.793
    1   AR   Ar   73   2.966   0.109   3.755
    1   AR   Ar   74   2.451   1.000   4.741
    1   AR   Ar   75   3.627   1.061   5.182
    1   AR   Ar   76   2.287   1.144   2.013
    1   AR   Ar   77   2.324   6.497   5.865
    1   AR   Ar   78   1.757   0.350   6.339
    1   AR   Ar   79   3.085   6.109   6.988
    1   AR   Ar   80   2.860   5.451   5.717
    1   AR   Ar   81   2.514   1.647  -0.266
    1   AR   Ar   82   7.036   4.008  -0.553
    1   AR   Ar   83   1.782   2.271   0.289
    1   AR   Ar   84   0.851   3.854  -1.078
    1   AR   Ar   85   0.586   2.534  -0.432
    1   AR   Ar   86   2.053   3.264   1.468
    1   AR   Ar   87   2.228   2.131   1.601
    1   AR   Ar   88   3.656   4.036   1.731
    1   AR   Ar   89   0.630   3.299   2.233
    1   AR   Ar   90   2.724   2.230   4.696
    1   AR   Ar   91   1.219   2.203   3.547
    1   AR   Ar   92   1.374   2.032   2.257
    1   AR   Ar   93   2.133   1.283   5.959
    1   AR   Ar   94   0.650   1.067   9.385
    1   AR   Ar   95   3.877   6.616   6.346
    1   AR   Ar   96   2.952   0.610   6.230
    1   AR   Ar   97   3.937   2.649  -1.130
    1   AR   Ar   98   3.063   4.918   1.476
    1   AR   Ar   99   7.005   2.550  -1.300
    1   AR   Ar  100   1.767   3.110  -0.559
    1   AR   Ar  101   2.331   4.222   0.879
    1   AR   Ar  102   3.275   3.052   3.696
    1   AR   Ar  103   1.106   4.651   0.352
    1   AR   Ar  104   2.693   2.590  -0.926
    1   AR   Ar  105   2.004   3.144   3.167
    1   AR   Ar  106   2.494   3.384   4.670
    1   AR   Ar  107   1.989   3.960   5.504
    1   AR   Ar  108   3.641   2.708   4.708
    1   AR   Ar  109   1.388   4.161   3.929
    1   AR   Ar  110   1.245   4.684   6.187
    1   AR   Ar  111   4.247   4.070   6.962
    1   AR   Ar  112   0.955   5.412   7.438
    1   AR   Ar  113   2.529   4.776  -0.285
    1   AR   Ar  114   2.932   4.559  -1.365
    1   AR   Ar  115   2.633   3.613  -0.427
    1   AR   Ar  116   4.893   5.616  -0.896
    1   AR   Ar  117   0.880   5.299   3.611
    1   AR   Ar  118   0.413   6.945   3.130
    1   AR   Ar  119   2.210   3.909   2.275
    1   AR   Ar  120   0.915   4.869   2.699
    1   AR   Ar  121   6.669   3.935   4.347
    1   AR   Ar  122   2.929   6.145   4.923
    1   AR   Ar  123   2.483   4.685   4.876
    1   AR   Ar  124   1.983   5.308   2.006
    1   AR   Ar  125   0.480   4.259   5.276
    1   AR   Ar  126   0.282   0.005   4.977
    1   AR   Ar  127   3.551   4.730   7.426
    1   AR   Ar  128   2.371   4.867   6.669
    1   AR   Ar  129   1.664   0.374   2.400
    1   AR   Ar  130   3.595   1.525  -3.297
    1   AR   Ar  131   4.799   0.044   0.688
    1   AR   Ar  132   1.814   2.063  -1.012
    1   AR   Ar  133   4.096   0.141   3.558
    1   AR   Ar  134   4.138   1.232   3.362
    1   AR   Ar  135   4.955   0.892   2.728
    1   AR   Ar  136   4.803   0.187   1.903
    1   AR   Ar  137   3.110   6.178   3.793
    1   AR   Ar  138   4.862   1.229   4.927
    1   AR   Ar  139   5.529   2.009   5.193
    1   AR   Ar  140   4.111   0.562   4.494
    1   AR   Ar  141   4.064   6.554   4.285
    1   AR   Ar  142   4.109   0.013   5.398
    1   AR   Ar  143   5.773   6.846   5.554
    1   AR   Ar  144   4.896   0.503   5.705
    1   AR   Ar  145   3.763   3.955   0.633
    1   AR   Ar  146   4.371   2.230   1.672
    1   AR   Ar  147   5.843   1.795  -1.033
    1   AR   Ar  148   4.641   3.838  -2.557
    1   AR   Ar  149   3.303   2.139   1.135
    1   AR   Ar  150   2.234   2.067   2.861
    1   AR   Ar  151   3.169   2.094   3.392
    1   AR   Ar  152   2.845   2.804   0.394
    1   AR   Ar  153   3.327   1.098   3.993
    1   AR   Ar  154   4.047   1.850   4.182
    1   AR   Ar  155   5.865   0.801   5.739
    1   AR   Ar  156   3.115   4.046   4.082
    1   AR   Ar  157   2.747   2.835   5.584
    1   AR   Ar  158   1.186   2.878   6.779
    1   AR   Ar  159   3.342   1.941   5.756
    1   AR   Ar  160   2.684   2.382   6.579
    1   AR   Ar  161   5.282   2.535   1.349
    1   AR   Ar  162   4.572   4.960  -0.099
    1   AR   Ar  163   5.043   2.929   0.165
    1   AR   Ar  164   4.157   5.432   1.594
    1   AR   Ar  165   3.268   3.178   1.381
    1   AR   Ar  166   3.109   5.170   3.789
    1   AR   Ar  167   4.591   2.007   2.618
    1   AR   Ar  168   4.678   3.259  -0.723
    1   AR   Ar  169   2.633   2.860   2.304
    1   AR   Ar  170   3.449   3.623   5.232
    1   AR   Ar  171   4.260   3.981   4.494
    1   AR   Ar  172   4.552   5.649   4.467
    1   AR   Ar  173   2.199   3.312   6.555
    1   AR   Ar  174   3.692   4.824   6.147
    1   AR   Ar  175   4.138   3.082   6.162
    1   AR   Ar  176   3.584   5.201   4.786
    1   AR   Ar  177   6.452   5.796  -0.309
    1   AR   Ar  178   2.476   6.019   0.473
    1   AR   Ar  179   4.492   5.904   0.408
    1   AR   Ar  180   2.713   3.569  -1.852
    1   AR   Ar  181   1.522   5.568   0.917
    1   AR   Ar  182   2.851   6.810   2.628
    1   AR   Ar  183   3.730   4.860   2.521
    1   AR   Ar  184   4.017   6.451   1.356
    1   AR   Ar  185   2.122   5.200   3.907
    1   AR   Ar  186   3.897   5.688   3.260
    1   AR   Ar  187   4.041   6.566   2.483
    1   AR   Ar  188   2.991   6.052   1.569
    1   AR   Ar  189   3.066   3.899   6.398
    1   AR   Ar  190   4.944   6.280   5.990
    1   AR   Ar  191   4.808   5.269   5.583
    1   AR   Ar  192   3.966   6.079   5.307
    1   AR   Ar  193   0.260   5.943  -0.426
    1   AR   Ar  194   5.448   4.420  -1.448
    1   AR   Ar  195   6.611   0.568  -0.009
    1   AR   Ar  196   4.729   6.773  -0.197
    1   AR   Ar  197   5.344   1.698   0.487
    1   AR   Ar  198   6.677   0.987   1.093
    1   AR   Ar  199   5.494   1.316   1.542
    1   AR   Ar  200   6.292   2.193   0.188
    1   AR   Ar  201   4.896   6.977   2.887
    1   AR   Ar  202   5.147   2.648   4.421
    1   AR   Ar  203   6.506   6.503   4.607
    1   AR   Ar  204   5.164   0.639   3.892
    1   AR   Ar  205   6.101   0.833   3.279
    1   AR   Ar  206   4.991   7.053   4.740
    1   AR   Ar  207   6.809   0.346   5.876
    1   AR   Ar  208   6.876   0.455   4.105
    1   AR   Ar  209   5.468   2.370  -2.147
    1   AR   Ar  210   4.020   0.867   1.121
    1   AR   Ar  211   6.904   3.199   0.381
    1   AR   Ar  212   6.281   3.780  -1.951
    1   AR   Ar  213   3.491   1.912   2.176
    1   AR   Ar  214   3.672   3.085   2.503
    1   AR   Ar  215   6.329   2.335   1.482
    1   AR   Ar  216   6.948   4.291   1.172
    1   AR   Ar  217   4.601   3.008   3.119
    1   AR   Ar  218   4.424   2.513   5.295
    1   AR   Ar  219   5.402   1.668   3.372
    1   AR   Ar  220   5.555   2.926   2.665
    1   AR   Ar  221   6.236   0.425   4.957
    1   AR   Ar  222   4.337   1.600   5.875
    1   AR   Ar  223   0.177   0.647   6.786
    1   AR   Ar  224   5.369   2.893   5.662
    1   AR   Ar  225   5.869   5.376   0.441
    1   AR   Ar  226   5.049   3.854   2.530
    1   AR   Ar  227   0.069   4.981   0.399
    1   AR   Ar  228   5.064   5.902   1.366
    1   AR   Ar  229   5.995   4.540  -0.165
    1   AR   Ar  230   4.466   4.813   3.396
    1   AR   Ar  231   6.434   1.953   2.885
    1   AR   Ar  232   3.897   2.798   0.509
    1   AR   Ar  233   6.228   2.584   4.479
    1   AR   Ar  234   0.045   2.962   4.953
    1   AR   Ar  235   7.049   2.249   4.028
    1   AR   Ar  236   5.112   4.654   4.401
    1   AR   Ar  237   5.524   3.760   5.043
    1   AR   Ar  238   4.261   4.158   5.512
    1   AR   Ar  239   0.010   4.089   8.949
    1   AR   Ar  240   6.754   3.699   5.642
    1   AR   Ar  241   0.313   6.782   0.308
    1   AR   Ar  242   5.056   4.690   0.863
    1   AR   Ar  243   6.235   4.013   2.554
    1   AR   Ar  244   0.698   4.850  -1.190
    1   AR   Ar  245   5.629   0.175   1.254
    1   AR   Ar  246   6.132   5.918   1.605
    1   AR   Ar  247   5.182   3.513   1.032
    1   AR   Ar  248   5.710   6.347   0.408
    1   AR   Ar  249   4.524   5.611   2.521
    1   AR   Ar  250   5.356   6.149   4.822
    1   AR   Ar  251   5.939   5.384   4.027
    1   AR   Ar  252   4.906   5.833   3.503
    1   AR   Ar  253   5.266   4.253   5.940
    1   AR   Ar  254   4.619   5.405   6.612
    1   AR   Ar  255   4.999   3.101   7.642
    1   AR   Ar  256   5.652   6.657   3.899
    7.12000  7.12000 12.00000
Argon-slab step 2200
  256
    1   AR   Ar    1   6.858   1.809  -0.600
    1   AR   Ar    2   6.863   7.048   1.144
    1   AR   Ar    3   0.961   0.122   1.057
    1   AR   Ar    4   1.667   0.271   0.177
    1   AR   Ar    5   6.871   5.911   0.747
    1   AR   Ar    6   6.949   0.678   2.636
    1   AR   Ar    7   6.957   4.888   3.270
    1   AR   Ar    8   6.304   6.808   2.091
    1   AR   Ar    9   0.791   0.525   3.922
    1   AR   Ar   10   1.164   1.602   4.493
    1   AR   Ar   11   3.170   0.073   4.817
    1   AR   Ar   12   1.291   1.203   2.952
    1   AR   Ar   13   6.557   1.441   5.281
    1   AR   Ar   14   1.426   1.327   6.724
    1   AR   Ar   15   6.579   0.358   9.181
    1   AR   Ar   16   0.702   0.871   5.344
    1   AR   Ar   17   1.264   1.538  -0.314
    1   AR   Ar   18   5.967   3.055  -0.859
    1   AR   Ar   19   1.031   2.540   1.277
    1   AR   Ar   20   5.738   4.001  -2.827
    1   AR   Ar   21   6.066   0.724   2.131
    1   AR   Ar   22   6.947   1.743   1.886
    1   AR   Ar   23   0.362   1.016   0.404
    1   AR   Ar   24   0.088   2.268   0.877
    1   AR   Ar   25   0.149   1.386   3.412
    1   AR   Ar   26   6.360   1.354   4.163
    1   AR   Ar   27   2.254   1.234   3.741
    1   AR   Ar   28   1.042   2.731   4.842
    1   AR   Ar   29   5.239   1.494   6.388
    1   AR   Ar   30   0.985   1.942   6.121
    1   AR   Ar   31   0.436   6.751   7.242
    1   AR   Ar   32   1.677   2.738   5.776
    1   AR   Ar   33   1.573   4.074  -0.449
    1   AR   Ar   34   0.195   5.577   2.710
    1   AR   Ar   35   6.743   5.230   1.951
    1   AR   Ar   36   0.015   7.098  -3.013
    1   AR   Ar   37   6.608   3.058   2.121
    1   AR   Ar   38   0.112   4.117   2.504
    1   AR   Ar   39   1.259   3.826   2.876
    1   AR   Ar   40   1.194   3.995   1.652
    1   AR   Ar   41   0.497   2.367   2.563
    1   AR   Ar   42   6.931   5.406   4.854
    1   AR   Ar   43   7.086   2.190   5.616
    1   AR   Ar   44   0.482   4.201   3.581
    1   AR   Ar   45   0.714   3.106   5.851
    1   AR   Ar   46   1.136   6.027   6.527
    1   AR   Ar   47   5.997   3.125   6.762
    1   AR   Ar   48   6.600   6.172   6.114
    1   AR   Ar   49   6.528   6.782  -2.205
    1   AR   Ar   50   5.678   4.911   2.071
    1   AR   Ar   51   0.808   4.941   1.537
    1   AR   Ar   52   6.474   5.042  -1.307
    1   AR   Ar   53   5.851   6.076   2.765
    1   AR   Ar   54   6.483   6.960   3.218
    1   AR   Ar   55   5.397   4.588   3.470
    1   AR   Ar   56   0.610   6.691   2.059
    1   AR   Ar   57   6.806   3.530   3.372
    1   AR   Ar   58   6.910   5.886   3.840
    1   AR   Ar   59   1.875   5.435   5.578
    1   AR   Ar   60   0.783   6.240   4.128
    1   AR   Ar   61   6.094   5.617   5.438
    1   AR   Ar   62   0.896   5.824   5.121
    1   AR   Ar   63   2.003   6.412   6.789
    1   AR   Ar   64   0.862   6.809   5.870
    1   AR   Ar   65   3.737   0.026   0.352
    1   AR   Ar   66   1.406   0.990   1.034
    1   AR   Ar   67   3.420   6.417  -0.578
    1   AR   Ar   68   3.294   1.578  -1.017
    1   AR   Ar   69   2.872   1.128   0.982
    1   AR   Ar   70   0.624   1.133   2.198
    1   AR   Ar   71   3.206   0.762   2.924
    1   AR   Ar   72   3.221   0.536   1.783
    1   AR   Ar   73   2.980   0.138   3.794
    1   AR   Ar   74   2.441   1.010   4.775
    1   AR   Ar   75   3.603   1.047   5.196
    1   AR   Ar   76   2.274   1.180   1.992
    1   AR   Ar   77   2.333   6.508   5.877
    1   AR   Ar   78   1.769   0.361   6.377
    1   AR   Ar   79   3.063   6.120   7.006
    1   AR   Ar   80   2.844   5.455   5.736
    1   AR   Ar   81   2.534   1.655  -0.270
    1   AR   Ar   82   7.042   4.014  -0.535
    1   AR   Ar   83   1.776   2.306   0.309
    1   AR   Ar   84   0.855   3.886  -1.081
    1   AR   Ar   85   0.588   2.538  -0.443
    1   AR   Ar   86   2.064   3.288   1.451
    1   AR   Ar   87   2.221   2.142   1.637
    1   AR   Ar   88   3.671   4.068   1.758
    1   AR   Ar   89   0.618   3.254   2.223
    1   AR   Ar   90   2.712   2.213   4.706
    1   AR   Ar   91   1.252   2.173   3.548
    1   AR   Ar   92   1.397   2.011   2.211
    1   AR   Ar   93   2.140   1.271   5.957
    1   AR   Ar   94   0.669   1.085   9.391
    1   AR   Ar   95   3.851   6.604   6.382
    1   AR   Ar   96   2.953   0.599   6.209
    1   AR   Ar   97   3.931   2.642  -1.151
    1   AR   Ar   98   3.059   4.927   1.440
    1   AR   Ar   99   7.026   2.557  -1.310
    1   AR   Ar  100   1.760   3.106  -0.573
    1   AR   Ar  101   2.328   4.197   0.868
    1   AR   Ar  102   3.264   3.053   3.683
    1   AR   Ar  103   1.122   4.635   0.378
    1   AR   Ar  104   2.722   2.624  -0.935
    1   AR   Ar  105   1.959   3.118   3.182
    1   AR   Ar  106   2.513   3.430   4.678
    1   AR   Ar  107   2.003   3.948   5.510
    1   AR   Ar  108   3.650   2.673   4.697
    1   AR   Ar  109   1.373   4.151   3.966
    1   AR   Ar  110   1.229   4.698   6.199
    1   AR   Ar  111   4.265   4.065   6.962
    1   AR   Ar  112   0.970   5.441   7.423
    1   AR   Ar  113   2.539   4.786  -0.305
    1   AR   Ar  114   2.884   4.559  -1.371
    1   AR   Ar  115   2.630   3.614  -0.418
    1   AR   Ar  116   4.915   5.600  -0.914
    1   AR   Ar  117   0.888   5.279   3.617
    1   AR   Ar  118   0.424   6.938   3.143
    1   AR   Ar  119   2.212   3.911   2.273
    1   AR   Ar  120   0.895   4.830   2.707
    1   AR   Ar  121   6.683   3.924   4.342
    1   AR   Ar  122   2.957   6.156   4.930
    1   AR   Ar  123   2.489   4.684   4.853
    1   AR   Ar  124   1.996   5.299   2.001
    1   AR   Ar  125   0.478   4.251   5.298
    1   AR   Ar  126   0.304   0.018   4.999
    1   AR   Ar  127   3.523   4.723   7.414
    1   AR   Ar  128   2.391   4.823   6.649
    1   AR   Ar  129   1.663   0.364   2.412
    1   AR   Ar  130   3.597   1.543  -3.252
    1   AR   Ar  131   4.805   0.037   0.694
    1   AR   Ar  132   1.872   2.049  -1.018
    1   AR   Ar  133   4.112   0.153   3.567
    1   AR   Ar  134   4.135   1.246   3.366
    1   AR   Ar  135   4.975   0.905   2.717
    1   AR   Ar  136   4.808   0.188   1.910
    1   AR   Ar  137   3.071   6.173   3.822
    1   AR   Ar  138   4.836   1.242   4.915
    1   AR   Ar  139   5.475   2.022   5.212
    1   AR   Ar  140   4.151   0.561   4.466
    1   AR   Ar  141   4.082   6.525   4.248
    1   AR   Ar  142   4.104   7.113   5.384
    1   AR   Ar  143   5.782   6.875   5.553
    1   AR   Ar  144   4.876   0.508   5.716
    1   AR   Ar  145   3.737   3.945   0.612
    1   AR   Ar  146   4.364   2.233   1.653
    1   AR   Ar  147   5.843   1.798  -1.053
    1   AR   Ar  148   4.643   3.819  -2.539
    1   AR   Ar  149   3.295   2.143   1.094
    1   AR   Ar  150   2.216   2.058   2.878
    1   AR   Ar  151   3.184   2.071   3.393
    1   AR   Ar  152   2.857   2.785   0.395
    1   AR   Ar  153   3.322   1.102   3.995
    1   AR   Ar  154   4.061   1.861   4.197
    1   AR   Ar  155   5.873   0.840   5.759
    1   AR   Ar  156   3.136   4.050   4.119
    1   AR   Ar  157   2.708   2.852   5.556
    1   AR   Ar  158   1.193   2.870   6.784
    1   AR   Ar  159   3.353   1.966   5.715
    1   AR   Ar  160   2.637   2.395   6.550
    1   AR   Ar  161   5.290   2.527   1.367
    1   AR   Ar  162   4.574   4.955  -0.111
    1   AR   Ar  163   5.028   2.915   0.160
    1   AR   Ar  164   4.174   5.434   1.617
    1   AR   Ar  165   3.301   3.157   1.374
    1   AR   Ar  166   3.140   5.165   3.747
    1   AR   Ar  167   4.601   2.025   2.608
    1   AR   Ar  168   4.657   3.271  -0.668
    1   AR   Ar  169   2.609   2.858   2.309
    1   AR   Ar  170   3.405   3.659   5.261
    1   AR   Ar  171   4.245   3.982   4.498
    1   AR   Ar  172   4.561   5.643   4.452
    1   AR   Ar  173   2.205   3.303   6.545
    1   AR   Ar  174   3.690   4.829   6.167
    1   AR   Ar  175   4.122   3.061   6.150
    1   AR   Ar  176   3.563   5.173   4.784
    1   AR   Ar  177   6.427   5.804  -0.268
    1   AR   Ar  178   2.481   6.026   0.428
    1   AR   Ar  179   4.500   5.884   0.404
    1   AR   Ar  180   2.684   3.593  -1.840
    1   AR   Ar  181   1.493   5.569   0.898
    1   AR   Ar  182   2.830   6.822   2.665
    1   AR   Ar  183   3.732   4.858   2.513
    1   AR   Ar  184   4.015   6.443   1.346
    1   AR   Ar  185   2.139   5.201   3.911
    1   AR   Ar  186   3.870   5.658   3.261
    1   AR   Ar  187   4.032   6.593   2.496
    1   AR   Ar  188   3.008   6.052   1.614
    1   AR   Ar  189   3.065   3.892   6.422
    1   AR   Ar  190   4.958   6.288   5.994
    1   AR   Ar  191   4.800   5.252   5.551
    1   AR   Ar  192   3.956   6.083   5.338
    1   AR   Ar  193   0.302   5.946  -0.469
    1   AR   Ar  194   5.508   4.438  -1.398
    1   AR   Ar  195   6.621   0.555   0.015
    1   AR   Ar  196   4.724   6.785  -0.177
    1   AR   Ar  197   5.325   1.706   0.455
    1   AR   Ar  198   6.703   1.014   1.106
    1   AR   Ar  199   5.532   1.332   1.558
    1   AR   Ar  200   6.279   2.245   0.172
    1   AR   Ar  201   4.906   6.963   2.897
    1   AR   Ar  202   5.133   2.673   4.440
    1   AR   Ar  203   6.464   6.520   4.598
    1   AR   Ar  204   5.166   0.602   3.892
    1   AR   Ar  205   6.099   0.811   3.273
    1   AR   Ar  206   4.987   7.058   4.733
    1   AR   Ar  207   6.795   0.346   5.900
    1   AR   Ar  208   6.866   0.442   4.105
    1   AR   Ar  209   5.456   2.372  -2.119
    1   AR   Ar  210   4.031   0.894   1.149
    1   AR   Ar  211   6.929   3.189   0.373
    1   AR   Ar  212   6.273   3.779  -1.947
    1   AR   Ar  213   3.495   1.891   2.156
    1   AR   Ar  214   3.665   3.099   2.531
    1   AR   Ar  215   6.332   2.348   1.488
    1   AR   Ar  216   6.970   4.299   1.193
    1   AR   Ar  217   4.659   2.999   3.084
    1   AR   Ar  218   4.394   2.480   5.278
    1   AR   Ar  219   5.409   1.703   3.391
    1   AR   Ar  220   5.570   2.907   2.641
    1   AR   Ar  221   6.218   0.433   4.934
    1   AR   Ar  222   4.314   1.617   5.864
    1   AR   Ar  223   0.206   0.626   6.770
    1   AR   Ar  224   5.391   2.910   5.686
    1   AR   Ar  225   5.850   5.387   0.482
    1   AR   Ar  226   5.033   3.838   2.529
    1   AR   Ar  227   0.092   4.976   0.383
    1   AR   Ar  228   5.063   5.869   1.368
    1   AR   Ar  229   6.011   4.533  -0.173
    1   AR   Ar  230   4.449   4.794   3.419
    1   AR   Ar  231   6.455   1.929   2.858
    1   AR   Ar  232   3.916   2.797   0.461
    1   AR   Ar  233   6.202   2.607   4.498
    1   AR   Ar  234   0.040   2.964   4.940
    1   AR   Ar  235   7.048   2.263   4.035
    1   AR   Ar  236   5.120   4.676   4.388
    1   AR   Ar  237   5.506   3.774   5.067
    1   AR   Ar  238   4.244   4.170   5.500
    1   AR   Ar  239   0.009   4.111   8.920
    1   AR   Ar  240   6.725   3.680   5.671
    1   AR   Ar  241   0.347   6.782   0.297
    1   AR   Ar  242   5.043   4.700   0.876
    1   AR   Ar  243   6.197   4.038   2.569
    1   AR   Ar  244   0.699   4.856  -1.176
    1   AR   Ar  245   5.636   0.165   1.250
    1   AR   Ar  246   6.143   5.925   1.629
    1   AR   Ar  247   5.151   3.506   1.058
    1   AR   Ar  248   5.696   6.349   0.386
    1   AR   Ar  249   4.501   5.631   2.523
    1   AR   Ar  250   5.405   6.164   4.800
    1   AR   Ar  251   5.932   5.359   4.016
    1   AR   Ar  252   4.915   5.831   3.505
    1   AR   Ar  253   5.302   4.266   5.971
    1   AR   Ar  254   4.627   5.404   6.648
    1   AR   Ar  255   4.965   3.104   7.631
    1   AR   Ar  256   5.653   6.660   3.907
    7.12000  7.12000 12.00000
Argon-slab step 2205
  256
    1   AR   Ar    1   6.875   1.811  -0.593
    1   AR   Ar    2   6.851   7.049   1.124
    1   AR   Ar    3   0.956   0.119   1.060
    1   AR   Ar    4   1.689   0.308   0.149
    1   AR   Ar    5   6.819   5.902   0.766
    1   AR   Ar    6   6.925   0.692   2.654
    1   AR   Ar    7   6.905   4.862   3.292
    1   AR   Ar    8   6.326   6.778   2.086
    1   AR   Ar    9   0.796   0.522   3.949
    1   AR   Ar   10   1.154   1.600   4.487
    1   AR   Ar   11   3.163   0.063   4.807
    1   AR   Ar   12   1.273   1.206   2.958
    1   AR   Ar   13   6.577   1.396   5.290
    1   AR   Ar   14   1.428   1.313   6.729
    1   AR   Ar   15   6.571   0.356   9.171
    1   AR   Ar   16   0.724   0.886   5.366
    1   AR   Ar   17   1.254   1.536  -0.314
    1   AR   Ar   18   5.967   3.056  -0.847
    1   AR   Ar   19   1.047   2.555   1.262
    1   AR   Ar   20   5.758   3.992  -2.842
    1   AR   Ar   21   6.071   0.691   2.106
    1   AR   Ar   22   6.952   1.702   1.909
    1   AR   Ar   23   0.415   1.019   0.405
    1   AR   Ar   24   0.071   2.239   0.849
    1   AR   Ar   25   0.134   1.368   3.425
    1   AR   Ar   26   6.340   1.351   4.132
    1   AR   Ar   27   2.268   1.225   3.761
    1   AR   Ar   28   1.044   2.726   4.826
    1   AR   Ar   29   5.240   1.495   6.372
    1   AR   Ar   30   0.962   1.941   6.124
    1   AR   Ar   31   0.451   6.735   7.257
    1   AR   Ar   32   1.674   2.730   5.780
    1   AR   Ar   33   1.587   4.035  -0.405
    1   AR   Ar   34   0.225   5.604   2.727
    1   AR   Ar   35   6.751   5.210   1.943
    1   AR   Ar   36   0.009   7.096  -2.989
    1   AR   Ar   37   6.584   3.080   2.114
    1   AR   Ar   38   0.125   4.118   2.527
    1   AR   Ar   39   1.294   3.815   2.885
    1   AR   Ar   40   1.188   4.030   1.623
    1   AR   Ar   41   0.503   2.364   2.529
    1   AR   Ar   42   6.942   5.428   4.852
    1   AR   Ar   43   7.108   2.188   5.642
    1   AR   Ar   44   0.470   4.186   3.580
    1   AR   Ar   45   0.711   3.125   5.842
    1   AR   Ar   46   1.156   6.047   6.551
    1   AR   Ar   47   5.986   3.120   6.782
    1   AR   Ar   48   6.599   6.172   6.108
    1   AR   Ar   49   6.519   6.795  -2.191
    1   AR   Ar   50   5.678   4.887   2.064
    1   AR   Ar   51   0.809   4.932   1.554
    1   AR   Ar   52   6.464   5.027  -1.319
    1   AR   Ar   53   5.860   6.053   2.794
    1   AR   Ar   54   6.508   6.949   3.191
    1   AR   Ar   55   5.413   4.602   3.472
    1   AR   Ar   56   0.605   6.648   2.078
    1   AR   Ar   57   6.828   3.545   3.377
    1   AR   Ar   58   6.908   5.894   3.836
    1   AR   Ar   59   1.857   5.431   5.558
    1   AR   Ar   60   0.761   6.242   4.118
    1   AR   Ar   61   6.093   5.630   5.417
    1   AR   Ar   62   0.876   5.794   5.173
    1   AR   Ar   63   2.026   6.419   6.782
    1   AR   Ar   64   0.872   6.811   5.861
    1   AR   Ar   65   3.720   0.022   0.324
    1   AR   Ar   66   1.411   0.972   1.028
    1   AR   Ar   67   3.405   6.416  -0.581
    1   AR   Ar   68   3.284   1.557  -1.065
    1   AR   Ar   69   2.863   1.119   0.982
    1   AR   Ar   70   0.642   1.117   2.214
    1   AR   Ar   71   3.202   0.785   2.967
    1   AR   Ar   72   3.229   0.525   1.778
    1   AR   Ar   73   2.994   0.165   3.829
    1   AR   Ar   74   2.434   1.021   4.811
    1   AR   Ar   75   3.576   1.034   5.212
    1   AR   Ar   76   2.263   1.212   1.974
    1   AR   Ar   77   2.348   6.508   5.866
    1   AR   Ar   78   1.781   0.367   6.414
    1   AR   Ar   79   3.041   6.129   7.022
    1   AR   Ar   80   2.843   5.466   5.761
    1   AR   Ar   81   2.552   1.664  -0.271
    1   AR   Ar   82   7.046   4.022  -0.516
    1   AR   Ar   83   1.771   2.341   0.330
    1   AR   Ar   84   0.900   3.900  -1.110
    1   AR   Ar   85   0.591   2.542  -0.453
    1   AR   Ar   86   2.074   3.309   1.430
    1   AR   Ar   87   2.220   2.158   1.665
    1   AR   Ar   88   3.689   4.100   1.786
    1   AR   Ar   89   0.608   3.246   2.228
    1   AR   Ar   90   2.698   2.193   4.713
    1   AR   Ar   91   1.287   2.157   3.548
    1   AR   Ar   92   1.416   1.987   2.166
    1   AR   Ar   93   2.118   1.270   5.945
    1   AR   Ar   94   0.694   1.096   9.399
    1   AR   Ar   95   3.825   6.591   6.417
    1   AR   Ar   96   2.954   0.586   6.187
    1   AR   Ar   97   3.921   2.633  -1.171
    1   AR   Ar   98   3.056   4.937   1.404
    1   AR   Ar   99   7.046   2.567  -1.323
    1   AR   Ar  100   1.749   3.088  -0.588
    1   AR   Ar  101   2.325   4.172   0.855
    1   AR   Ar  102   3.253   3.058   3.671
    1   AR   Ar  103   1.140   4.618   0.406
    1   AR   Ar  104   2.755   2.661  -0.942
    1   AR   Ar  105   1.917   3.089   3.199
    1   AR   Ar  106   2.500   3.443   4.674
    1   AR   Ar  107   2.017   3.935   5.518
    1   AR   Ar  108   3.646   2.647   4.679
    1   AR   Ar  109   1.373   4.142   4.008
    1   AR   Ar  110   1.220   4.710   6.210
    1   AR   Ar  111   4.282   4.059   6.958
    1   AR   Ar  112   0.986   5.469   7.408
    1   AR   Ar  113   2.549   4.795  -0.325
    1   AR   Ar  114   2.836   4.558  -1.375
    1   AR   Ar  115   2.634   3.618  -0.407
    1   AR   Ar  116   4.939   5.585  -0.931
    1   AR   Ar  117   0.873   5.264   3.610
    1   AR   Ar  118   0.436   6.931   3.156
    1   AR   Ar  119   2.215   3.915   2.274
    1   AR   Ar  120   0.880   4.786   2.708
    1   AR   Ar  121   6.696   3.915   4.342
    1   AR   Ar  122   2.985   6.166   4.936
    1   AR   Ar  123   2.497   4.684   4.830
    1   AR   Ar  124   2.009   5.288   1.994
    1   AR   Ar  125   0.487   4.227   5.323
    1   AR   Ar  126   0.321   0.023   5.015
    1   AR   Ar  127   3.494   4.718   7.400
    1   AR   Ar  128   2.411   4.781   6.627
    1   AR   Ar  129   1.662   0.352   2.423
    1   AR   Ar  130   3.598   1.562  -3.206
    1   AR   Ar  131   4.805   0.036   0.718
    1   AR   Ar  132   1.925   2.035  -1.025
    1   AR   Ar  133   4.110   0.171   3.577
    1   AR   Ar  134   4.137   1.258   3.364
    1   AR   Ar  135   4.997   0.920   2.707
    1   AR   Ar  136   4.810   0.190   1.914
    1   AR   Ar  137   3.032   6.174   3.852
    1   AR   Ar  138   4.809   1.253   4.902
    1   AR   Ar  139   5.425   2.027   5.230
    1   AR   Ar  140   4.192   0.562   4.443
    1   AR   Ar  141   4.097   6.495   4.216
    1   AR   Ar  142   4.091   7.089   5.368
    1   AR   Ar  143   5.789   6.900   5.556
    1   AR   Ar  144   4.861   0.513   5.732
    1   AR   Ar  145   3.710   3.934   0.593
    1   AR   Ar  146   4.349   2.237   1.626
    1   AR   Ar  147   5.843   1.803  -1.073
    1   AR   Ar  148   4.645   3.799  -2.520
    1   AR   Ar  149   3.277   2.139   1.075
    1   AR   Ar  150   2.199   2.044   2.897
    1   AR   Ar  151   3.197   2.051   3.394
    1   AR   Ar  152   2.863   2.768   0.392
    1   AR   Ar  153   3.335   1.097   4.013
    1   AR   Ar  154   4.078   1.872   4.215
    1   AR   Ar  155   5.873   0.883   5.791
    1   AR   Ar  156   3.161   4.057   4.156
    1   AR   Ar  157   2.671   2.872   5.532
    1   AR   Ar  158   1.171   2.919   6.760
    1   AR   Ar  159   3.360   1.994   5.672
    1   AR   Ar  160   2.593   2.399   6.520
    1   AR   Ar  161   5.304   2.516   1.384
    1   AR   Ar  162   4.576   4.947  -0.123
    1   AR   Ar  163   5.019   2.893   0.166
    1   AR   Ar  164   4.180   5.429   1.629
    1   AR   Ar  165   3.333   3.137   1.367
    1   AR   Ar  166   3.171   5.147   3.709
    1   AR   Ar  167   4.614   2.039   2.606
    1   AR   Ar  168   4.632   3.291  -0.625
    1   AR   Ar  169   2.587   2.859   2.314
    1   AR   Ar  170   3.365   3.692   5.286
    1   AR   Ar  171   4.228   3.982   4.496
    1   AR   Ar  172   4.568   5.630   4.442
    1   AR   Ar  173   2.206   3.301   6.535
    1   AR   Ar  174   3.688   4.835   6.188
    1   AR   Ar  175   4.131   3.055   6.154
    1   AR   Ar  176   3.548   5.151   4.785
    1   AR   Ar  177   6.398   5.812  -0.229
    1   AR   Ar  178   2.493   6.016   0.445
    1   AR   Ar  179   4.509   5.867   0.402
    1   AR   Ar  180   2.655   3.616  -1.827
    1   AR   Ar  181   1.479   5.574   0.890
    1   AR   Ar  182   2.811   6.835   2.702
    1   AR   Ar  183   3.733   4.856   2.504
    1   AR   Ar  184   4.015   6.438   1.335
    1   AR   Ar  185   2.148   5.201   3.916
    1   AR   Ar  186   3.839   5.637   3.270
    1   AR   Ar  187   4.018   6.620   2.507
    1   AR   Ar  188   3.016   6.067   1.612
    1   AR   Ar  189   3.067   3.888   6.443
    1   AR   Ar  190   4.970   6.297   5.996
    1   AR   Ar  191   4.790   5.235   5.517
    1   AR   Ar  192   3.947   6.082   5.371
    1   AR   Ar  193   0.351   5.948  -0.512
    1   AR   Ar  194   5.568   4.456  -1.348
    1   AR   Ar  195   6.629   0.540   0.040
    1   AR   Ar  196   4.718   6.788  -0.176
    1   AR   Ar  197   5.306   1.715   0.423
    1   AR   Ar  198   6.725   1.040   1.122
    1   AR   Ar  199   5.564   1.356   1.568
    1   AR   Ar  200   6.265   2.299   0.157
    1   AR   Ar  201   4.924   6.947   2.912
    1   AR   Ar  202   5.144   2.653   4.436
    1   AR   Ar  203   6.422   6.538   4.593
    1   AR   Ar  204   5.164   0.565   3.888
    1   AR   Ar  205   6.093   0.793   3.266
    1   AR   Ar  206   4.979   7.071   4.727
    1   AR   Ar  207   6.782   0.343   5.919
    1   AR   Ar  208   6.857   0.426   4.102
    1   AR   Ar  209   5.450   2.368  -2.107
    1   AR   Ar  210   4.043   0.921   1.176
    1   AR   Ar  211   6.954   3.181   0.364
    1   AR   Ar  212   6.266   3.778  -1.938
    1   AR   Ar  213   3.496   1.870   2.140
    1   AR   Ar  214   3.658   3.113   2.558
    1   AR   Ar  215   6.319   2.366   1.478
    1   AR   Ar  216   7.014   4.315   1.218
    1   AR   Ar  217   4.626   2.965   3.110
    1   AR   Ar  218   4.378   2.444   5.269
    1   AR   Ar  219   5.416   1.739   3.411
    1   AR   Ar  220   5.584   2.886   2.617
    1   AR   Ar  221   6.204   0.440   4.897
    1   AR   Ar  222   4.294   1.629   5.854
    1   AR   Ar  223   0.237   0.606   6.755
    1   AR   Ar  224   5.411   2.933   5.715
    1   AR   Ar  225   5.831   5.385   0.530
    1   AR   Ar  226   5.033   3.834   2.498
    1   AR   Ar  227   0.111   4.971   0.394
    1   AR   Ar  228   5.077   5.852   1.377
    1   AR   Ar  229   6.021   4.523  -0.183
    1   AR   Ar  230   4.419   4.776   3.443
    1   AR   Ar  231   6.475   1.904   2.832
    1   AR   Ar  232   3.936   2.805   0.418
    1   AR   Ar  233   6.172   2.631   4.520
    1   AR   Ar  234   0.028   2.986   4.952
    1   AR   Ar  235   7.052   2.276   4.040
    1   AR   Ar  236   5.122   4.697   4.395
    1   AR   Ar  237   5.490   3.791   5.071
    1   AR   Ar  238   4.234   4.185   5.496
    1   AR   Ar  239   0.009   4.133   8.891
    1   AR   Ar  240   6.694   3.660   5.699
    1   AR   Ar  241   0.380   6.781   0.285
    1   AR   Ar  242   5.030   4.712   0.890
    1   AR   Ar  243   6.155   4.064   2.584
    1   AR   Ar  244   0.698   4.872  -1.162
    1   AR   Ar  245   5.653   0.155   1.249
    1   AR   Ar  246   6.144   5.936   1.643
    1   AR   Ar  247   5.119   3.504   1.083
    1   AR   Ar  248   5.677   6.366   0.364
    1   AR   Ar  249   4.495   5.653   2.524
    1   AR   Ar  250   5.459   6.168   4.782
    1   AR   Ar  251   5.924   5.338   4.005
    1   AR   Ar  252   4.928   5.831   3.504
    1   AR   Ar  253   5.336   4.280   6.005
    1   AR   Ar  254   4.632   5.403   6.684
    1   AR   Ar  255   4.930   3.107   7.619
    1   AR   Ar  256   5.652   6.665   3.910
    7.12000  7.12000 12.00000
Argon-slab step 2210
  256
    1   AR   Ar    1   6.871   1.819  -0.601
    1   AR   Ar    2   6.838   7.049   1.106
    1   AR   Ar    3   0.944   0.103   1.066
    1   AR   Ar    4   1.710   0.346   0.121
    1   AR   Ar    5   6.768   5.897   0.788
    1   AR   Ar    6   6.907   0.704   2.673
    1   AR   Ar    7   6.844   4.838   3.315
    1   AR   Ar    8   6.352   6.761   2.089
    1   AR   Ar    9   0.781   0.541   3.938
    1   AR   Ar   10   1.142   1.597   4.481
    1   AR   Ar   11   3.160   0.057   4.805
    1   AR   Ar   12   1.262   1.212   2.977
    1   AR   Ar   13   6.600   1.349   5.292
    1   AR   Ar   14   1.427   1.308   6.721
    1   AR   Ar   15   6.565   0.354   9.161
    1   AR   Ar   16   0.734   0.899   5.373
    1   AR   Ar   17   1.244   1.554  -0.322
    1   AR   Ar   18   5.967   3.055  -0.833
    1   AR   Ar   19   1.066   2.570   1.248
    1   AR   Ar   20   5.776   3.983  -2.859
    1   AR   Ar   21   6.078   0.672   2.086
    1   AR   Ar   22   6.961   1.659   1.934
    1   AR   Ar   23   0.472   1.021   0.407
    1   AR   Ar   24   0.053   2.206   0.820
    1   AR   Ar   25   0.121   1.349   3.438
    1   AR   Ar   26   6.320   1.352   4.103
    1   AR   Ar   27   2.300   1.223   3.772
    1   AR   Ar   28   1.048   2.720   4.809
    1   AR   Ar   29   5.240   1.497   6.357
    1   AR   Ar   30   0.934   1.949   6.119
    1   AR   Ar   31   0.466   6.719   7.270
    1   AR   Ar   32   1.670   2.719   5.783
    1   AR   Ar   33   1.608   4.010  -0.350
    1   AR   Ar   34   0.257   5.641   2.743
    1   AR   Ar   35   6.766   5.180   1.936
    1   AR   Ar   36   0.006   7.094  -2.968
    1   AR   Ar   37   6.564   3.109   2.116
    1   AR   Ar   38   0.132   4.125   2.544
    1   AR   Ar   39   1.324   3.809   2.891
    1   AR   Ar   40   1.189   4.053   1.596
    1   AR   Ar   41   0.504   2.335   2.506
    1   AR   Ar   42   6.952   5.437   4.855
    1   AR   Ar   43   7.088   2.210   5.675
    1   AR   Ar   44   0.461   4.171   3.578
    1   AR   Ar   45   0.702   3.145   5.830
    1   AR   Ar   46   1.164   6.062   6.570
    1   AR   Ar   47   5.978   3.116   6.795
    1   AR   Ar   48   6.601   6.178   6.106
    1   AR   Ar   49   6.508   6.806  -2.173
    1   AR   Ar   50   5.676   4.864   2.057
    1   AR   Ar   51   0.803   4.936   1.570
    1   AR   Ar   52   6.456   5.013  -1.329
    1   AR   Ar   53   5.868   6.029   2.825
    1   AR   Ar   54   6.531   6.933   3.165
    1   AR   Ar   55   5.441   4.610   3.457
    1   AR   Ar   56   0.597   6.655   2.077
    1   AR   Ar   57   6.845   3.554   3.376
    1   AR   Ar   58   6.904   5.901   3.829
    1   AR   Ar   59   1.832   5.427   5.536
    1   AR   Ar   60   0.739   6.246   4.110
    1   AR   Ar   61   6.086   5.638   5.394
    1   AR   Ar   62   0.856   5.764   5.225
    1   AR   Ar   63   2.068   6.425   6.783
    1   AR   Ar   64   0.882   6.815   5.854
    1   AR   Ar   65   3.704   0.016   0.296
    1   AR   Ar   66   1.423   0.971   1.023
    1   AR   Ar   67   3.424   6.412  -0.572
    1   AR   Ar   68   3.273   1.539  -1.114
    1   AR   Ar   69   2.852   1.112   0.981
    1   AR   Ar   70   0.659   1.099   2.218
    1   AR   Ar   71   3.197   0.808   3.007
    1   AR   Ar   72   3.236   0.513   1.777
    1   AR   Ar   73   3.004   0.186   3.854
    1   AR   Ar   74   2.429   1.031   4.849
    1   AR   Ar   75   3.549   1.020   5.226
    1   AR   Ar   76   2.252   1.235   1.959
    1   AR   Ar   77   2.368   6.509   5.840
    1   AR   Ar   78   1.792   0.367   6.450
    1   AR   Ar   79   3.020   6.137   7.037
    1   AR   Ar   80   2.852   5.477   5.788
    1   AR   Ar   81   2.571   1.674  -0.266
    1   AR   Ar   82   7.049   4.030  -0.497
    1   AR   Ar   83   1.758   2.364   0.343
    1   AR   Ar   84   0.939   3.902  -1.145
    1   AR   Ar   85   0.595   2.547  -0.460
    1   AR   Ar   86   2.084   3.323   1.407
    1   AR   Ar   87   2.232   2.184   1.675
    1   AR   Ar   88   3.706   4.129   1.811
    1   AR   Ar   89   0.603   3.265   2.229
    1   AR   Ar   90   2.681   2.168   4.719
    1   AR   Ar   91   1.322   2.160   3.550
    1   AR   Ar   92   1.421   1.959   2.128
    1   AR   Ar   93   2.103   1.276   5.928
    1   AR   Ar   94   0.744   1.083   9.414
    1   AR   Ar   95   3.801   6.579   6.448
    1   AR   Ar   96   2.956   0.573   6.163
    1   AR   Ar   97   3.910   2.624  -1.191
    1   AR   Ar   98   3.052   4.948   1.369
    1   AR   Ar   99   7.065   2.579  -1.336
    1   AR   Ar  100   1.737   3.053  -0.606
    1   AR   Ar  101   2.323   4.149   0.842
    1   AR   Ar  102   3.243   3.067   3.660
    1   AR   Ar  103   1.159   4.601   0.437
    1   AR   Ar  104   2.792   2.698  -0.948
    1   AR   Ar  105   1.909   3.081   3.210
    1   AR   Ar  106   2.484   3.455   4.668
    1   AR   Ar  107   2.031   3.921   5.529
    1   AR   Ar  108   3.625   2.634   4.654
    1   AR   Ar  109   1.382   4.133   4.054
    1   AR   Ar  110   1.216   4.719   6.221
    1   AR   Ar  111   4.299   4.053   6.953
    1   AR   Ar  112   1.007   5.471   7.389
    1   AR   Ar  113   2.557   4.802  -0.342
    1   AR   Ar  114   2.788   4.559  -1.378
    1   AR   Ar  115   2.640   3.625  -0.395
    1   AR   Ar  116   4.963   5.571  -0.948
    1   AR   Ar  117   0.858   5.250   3.609
    1   AR   Ar  118   0.451   6.925   3.170
    1   AR   Ar  119   2.217   3.922   2.278
    1   AR   Ar  120   0.870   4.742   2.703
    1   AR   Ar  121   6.711   3.906   4.345
    1   AR   Ar  122   3.010   6.171   4.942
    1   AR   Ar  123   2.507   4.684   4.808
    1   AR   Ar  124   2.022   5.277   1.985
    1   AR   Ar  125   0.497   4.202   5.348
    1   AR   Ar  126   0.331   0.023   5.025
    1   AR   Ar  127   3.465   4.713   7.384
    1   AR   Ar  128   2.431   4.739   6.603
    1   AR   Ar  129   1.661   0.339   2.432
    1   AR   Ar  130   3.600   1.581  -3.161
    1   AR   Ar  131   4.800   0.039   0.754
    1   AR   Ar  132   1.973   2.021  -1.035
    1   AR   Ar  133   4.104   0.186   3.564
    1   AR   Ar  134   4.142   1.270   3.358
    1   AR   Ar  135   5.021   0.936   2.699
    1   AR   Ar  136   4.810   0.191   1.915
    1   AR   Ar  137   2.993   6.179   3.882
    1   AR   Ar  138   4.782   1.265   4.889
    1   AR   Ar  139   5.379   2.027   5.250
    1   AR   Ar  140   4.228   0.571   4.433
    1   AR   Ar  141   4.107   6.468   4.188
    1   AR   Ar  142   4.073   7.067   5.350
    1   AR   Ar  143   5.795   6.921   5.561
    1   AR   Ar  144   4.847   0.516   5.751
    1   AR   Ar  145   3.683   3.922   0.574
    1   AR   Ar  146   4.328   2.242   1.594
    1   AR   Ar  147   5.844   1.810  -1.092
    1   AR   Ar  148   4.648   3.779  -2.501
    1   AR   Ar  149   3.255   2.125   1.074
    1   AR   Ar  150   2.182   2.028   2.917
    1   AR   Ar  151   3.196   2.062   3.397
    1   AR   Ar  152   2.864   2.756   0.384
    1   AR   Ar  153   3.347   1.098   4.038
    1   AR   Ar  154   4.100   1.878   4.233
    1   AR   Ar  155   5.866   0.924   5.827
    1   AR   Ar  156   3.187   4.069   4.193
    1   AR   Ar  157   2.639   2.893   5.512
    1   AR   Ar  158   1.150   2.966   6.738
    1   AR   Ar  159   3.360   2.027   5.627
    1   AR   Ar  160   2.553   2.391   6.489
    1   AR   Ar  161   5.318   2.504   1.400
    1   AR   Ar  162   4.569   4.986  -0.136
    1   AR   Ar  163   5.018   2.862   0.187
    1   AR   Ar  164   4.176   5.415   1.630
    1   AR   Ar  165   3.364   3.120   1.361
    1   AR   Ar  166   3.188   5.109   3.684
    1   AR   Ar  167   4.627   2.048   2.607
    1   AR   Ar  168   4.619   3.292  -0.606
    1   AR   Ar  169   2.569   2.865   2.322
    1   AR   Ar  170   3.359   3.719   5.299
    1   AR   Ar  171   4.211   3.981   4.488
    1   AR   Ar  172   4.573   5.609   4.439
    1   AR   Ar  173   2.200   3.310   6.523
    1   AR   Ar  174   3.686   4.841   6.210
    1   AR   Ar  175   4.161   3.082   6.145
    1   AR   Ar  176   3.553   5.154   4.796
    1   AR   Ar  177   6.372   5.819  -0.196
    1   AR   Ar  178   2.506   6.006   0.462
    1   AR   Ar  179   4.518   5.853   0.404
    1   AR   Ar  180   2.624   3.636  -1.813
    1   AR   Ar  181   1.466   5.578   0.882
    1   AR   Ar  182   2.794   6.848   2.740
    1   AR   Ar  183   3.734   4.857   2.498
    1   AR   Ar  184   4.018   6.437   1.322
    1   AR   Ar  185   2.153   5.202   3.922
    1   AR   Ar  186   3.820   5.635   3.275
    1   AR   Ar  187   3.999   6.648   2.517
    1   AR   Ar  188   3.020   6.094   1.581
    1   AR   Ar  189   3.078   3.913   6.456
    1   AR   Ar  190   4.981   6.305   5.995
    1   AR   Ar  191   4.781   5.218   5.481
    1   AR   Ar  192   3.941   6.074   5.403
    1   AR   Ar  193   0.400   5.949  -0.554
    1   AR   Ar  194   5.626   4.473  -1.297
    1   AR   Ar  195   6.637   0.524   0.066
    1   AR   Ar  196   4.709   6.784  -0.190
    1   AR   Ar  197   5.289   1.725   0.394
    1   AR   Ar  198   6.744   1.066   1.138
    1   AR   Ar  199   5.592   1.387   1.571
    1   AR   Ar  200   6.249   2.354   0.145
    1   AR   Ar  201   4.947   6.930   2.933
    1   AR   Ar  202   5.154   2.623   4.424
    1   AR   Ar  203   6.389   6.555   4.591
    1   AR   Ar  204   5.164   0.530   3.881
    1   AR   Ar  205   6.082   0.776   3.260
    1   AR   Ar  206   4.973   7.085   4.724
    1   AR   Ar  207   6.770   0.338   5.934
    1   AR   Ar  208   6.851   0.406   4.093
    1   AR   Ar  209   5.449   2.359  -2.105
    1   AR   Ar  210   4.057   0.948   1.202
    1   AR   Ar  211   6.978   3.173   0.353
    1   AR   Ar  212   6.260   3.775  -1.925
    1   AR   Ar  213   3.494   1.847   2.127
    1   AR   Ar  214   3.650   3.125   2.584
    1   AR   Ar  215   6.301   2.380   1.459
    1   AR   Ar  216   7.045   4.335   1.224
    1   AR   Ar  217   4.592   2.934   3.138
    1   AR   Ar  218   4.377   2.411   5.264
    1   AR   Ar  219   5.423   1.774   3.430
    1   AR   Ar  220   5.572   2.868   2.606
    1   AR   Ar  221   6.190   0.449   4.855
    1   AR   Ar  222   4.279   1.631   5.847
    1   AR   Ar  223   0.272   0.587   6.741
    1   AR   Ar  224   5.431   2.959   5.747
    1   AR   Ar  225   5.810   5.373   0.584
    1   AR   Ar  226   5.033   3.831   2.467
    1   AR   Ar  227   0.114   4.999   0.411
    1   AR   Ar  228   5.098   5.841   1.385
    1   AR   Ar  229   6.003   4.505  -0.194
    1   AR   Ar  230   4.383   4.759   3.468
    1   AR   Ar  231   6.494   1.879   2.808
    1   AR   Ar  232   3.955   2.826   0.387
    1   AR   Ar  233   6.145   2.655   4.545
    1   AR   Ar  234   0.014   3.012   4.962
    1   AR   Ar  235   7.058   2.287   4.044
    1   AR   Ar  236   5.121   4.713   4.421
    1   AR   Ar  237   5.475   3.811   5.060
    1   AR   Ar  238   4.231   4.206   5.499
    1   AR   Ar  239   0.006   4.147   8.875
    1   AR   Ar  240   6.662   3.639   5.727
    1   AR   Ar  241   0.411   6.779   0.270
    1   AR   Ar  242   5.016   4.724   0.904
    1   AR   Ar  243   6.112   4.088   2.601
    1   AR   Ar  244   0.693   4.899  -1.147
    1   AR   Ar  245   5.680   0.146   1.250
    1   AR   Ar  246   6.134   5.940   1.647
    1   AR   Ar  247   5.086   3.507   1.109
    1   AR   Ar  248   5.679   6.354   0.366
    1   AR   Ar  249   4.503   5.677   2.529
    1   AR   Ar  250   5.508   6.164   4.768
    1   AR   Ar  251   5.919   5.322   3.997
    1   AR   Ar  252   4.945   5.833   3.500
    1   AR   Ar  253   5.368   4.295   6.041
    1   AR   Ar  254   4.637   5.402   6.717
    1   AR   Ar  255   4.912   3.103   7.602
    1   AR   Ar  256   5.649   6.672   3.903
    7.12000  7.12000 12.00000
Argon-slab step 2215
  256
    1   AR   Ar    1   6.867   1.826  -0.607
    1   AR   Ar    2   6.823   7.039   1.067
    1   AR   Ar    3   0.926   0.079   1.074
    1   AR   Ar    4   1.721   0.357   0.106
    1   AR   Ar    5   6.719   5.893   0.810
    1   AR   Ar    6   6.898   0.713   2.691
    1   AR   Ar    7   6.778   4.816   3.337
    1   AR   Ar    8   6.384   6.759   2.100
    1   AR   Ar    9   0.761   0.568   3.917
    1   AR   Ar   10   1.131   1.592   4.476
    1   AR   Ar   11   3.159   0.056   4.815
    1   AR   Ar   12   1.261   1.220   3.007
    1   AR   Ar   13   6.629   1.305   5.288
    1   AR   Ar   14   1.408   1.327   6.741
    1   AR   Ar   15   6.558   0.353   9.150
    1   AR   Ar   16   0.724   0.905   5.357
    1   AR   Ar   17   1.234   1.573  -0.328
    1   AR   Ar   18   5.968   3.054  -0.820
    1   AR   Ar   19   1.085   2.586   1.236
    1   AR   Ar   20   5.792   3.974  -2.877
    1   AR   Ar   21   6.091   0.677   2.070
    1   AR   Ar   22   6.971   1.619   1.958
    1   AR   Ar   23   0.530   1.024   0.409
    1   AR   Ar   24   0.028   2.191   0.813
    1   AR   Ar   25   0.110   1.331   3.453
    1   AR   Ar   26   6.299   1.357   4.078
    1   AR   Ar   27   2.330   1.223   3.781
    1   AR   Ar   28   1.053   2.712   4.793
    1   AR   Ar   29   5.235   1.505   6.345
    1   AR   Ar   30   0.903   1.962   6.109
    1   AR   Ar   31   0.483   6.702   7.282
    1   AR   Ar   32   1.664   2.706   5.786
    1   AR   Ar   33   1.626   3.992  -0.328
    1   AR   Ar   34   0.287   5.680   2.760
    1   AR   Ar   35   6.784   5.145   1.931
    1   AR   Ar   36   0.004   7.094  -2.950
    1   AR   Ar   37   6.547   3.144   2.124
    1   AR   Ar   38   0.124   4.146   2.546
    1   AR   Ar   39   1.345   3.810   2.895
    1   AR   Ar   40   1.197   4.059   1.570
    1   AR   Ar   41   0.500   2.291   2.489
    1   AR   Ar   42   6.960   5.428   4.869
    1   AR   Ar   43   7.068   2.234   5.710
    1   AR   Ar   44   0.468   4.153   3.565
    1   AR   Ar   45   0.688   3.168   5.813
    1   AR   Ar   46   1.164   6.075   6.581
    1   AR   Ar   47   5.984   3.118   6.785
    1   AR   Ar   48   6.606   6.189   6.105
    1   AR   Ar   49   6.495   6.816  -2.153
    1   AR   Ar   50   5.672   4.846   2.047
    1   AR   Ar   51   0.790   4.955   1.585
    1   AR   Ar   52   6.459   5.005  -1.339
    1   AR   Ar   53   5.861   6.014   2.818
    1   AR   Ar   54   6.549   6.913   3.142
    1   AR   Ar   55   5.470   4.613   3.430
    1   AR   Ar   56   0.589   6.659   2.068
    1   AR   Ar   57   6.852   3.552   3.367
    1   AR   Ar   58   6.918   5.890   3.845
    1   AR   Ar   59   1.807   5.421   5.516
    1   AR   Ar   60   0.719   6.251   4.103
    1   AR   Ar   61   6.077   5.641   5.375
    1   AR   Ar   62   0.834   5.736   5.277
    1   AR   Ar   63   2.109   6.434   6.795
    1   AR   Ar   64   0.891   6.815   5.856
    1   AR   Ar   65   3.708   0.045   0.271
    1   AR   Ar   66   1.441   0.981   1.019
    1   AR   Ar   67   3.447   6.415  -0.565
    1   AR   Ar   68   3.262   1.522  -1.163
    1   AR   Ar   69   2.840   1.106   0.978
    1   AR   Ar   70   0.674   1.078   2.212
    1   AR   Ar   71   3.192   0.833   3.044
    1   AR   Ar   72   3.244   0.499   1.780
    1   AR   Ar   73   3.008   0.197   3.863
    1   AR   Ar   74   2.427   1.041   4.888
    1   AR   Ar   75   3.523   1.006   5.239
    1   AR   Ar   76   2.242   1.248   1.949
    1   AR   Ar   77   2.391   6.510   5.805
    1   AR   Ar   78   1.805   0.361   6.485
    1   AR   Ar   79   3.011   6.140   7.048
    1   AR   Ar   80   2.864   5.486   5.815
    1   AR   Ar   81   2.591   1.684  -0.256
    1   AR   Ar   82   7.053   4.038  -0.478
    1   AR   Ar   83   1.734   2.367   0.345
    1   AR   Ar   84   0.977   3.897  -1.182
    1   AR   Ar   85   0.601   2.552  -0.465
    1   AR   Ar   86   2.091   3.330   1.385
    1   AR   Ar   87   2.258   2.218   1.665
    1   AR   Ar   88   3.724   4.150   1.829
    1   AR   Ar   89   0.602   3.295   2.223
    1   AR   Ar   90   2.701   2.167   4.738
    1   AR   Ar   91   1.355   2.164   3.551
    1   AR   Ar   92   1.410   1.925   2.099
    1   AR   Ar   93   2.090   1.284   5.907
    1   AR   Ar   94   0.793   1.069   9.429
    1   AR   Ar   95   3.778   6.566   6.475
    1   AR   Ar   96   2.958   0.558   6.137
    1   AR   Ar   97   3.898   2.614  -1.210
    1   AR   Ar   98   3.048   4.958   1.334
    1   AR   Ar   99   7.086   2.585  -1.339
    1   AR   Ar  100   1.743   3.030  -0.590
    1   AR   Ar  101   2.322   4.131   0.825
    1   AR   Ar  102   3.232   3.079   3.651
    1   AR   Ar  103   1.177   4.583   0.469
    1   AR   Ar  104   2.831   2.736  -0.954
    1   AR   Ar  105   1.954   3.107   3.214
    1   AR   Ar  106   2.466   3.466   4.656
    1   AR   Ar  107   2.045   3.906   5.542
    1   AR   Ar  108   3.592   2.636   4.628
    1   AR   Ar  109   1.388   4.121   4.073
    1   AR   Ar  110   1.215   4.726   6.233
    1   AR   Ar  111   4.316   4.047   6.945
    1   AR   Ar  112   1.037   5.433   7.365
    1   AR   Ar  113   2.564   4.808  -0.358
    1   AR   Ar  114   2.741   4.563  -1.378
    1   AR   Ar  115   2.649   3.634  -0.382
    1   AR   Ar  116   4.989   5.557  -0.965
    1   AR   Ar  117   0.841   5.237   3.611
    1   AR   Ar  118   0.467   6.920   3.177
    1   AR   Ar  119   2.220   3.930   2.281
    1   AR   Ar  120   0.871   4.706   2.695
    1   AR   Ar  121   6.721   3.905   4.382
    1   AR   Ar  122   3.032   6.172   4.949
    1   AR   Ar  123   2.517   4.683   4.788
    1   AR   Ar  124   2.035   5.264   1.975
    1   AR   Ar  125   0.507   4.176   5.373
    1   AR   Ar  126   0.336   0.019   5.029
    1   AR   Ar  127   3.435   4.707   7.365
    1   AR   Ar  128   2.428   4.739   6.593
    1   AR   Ar  129   1.660   0.327   2.440
    1   AR   Ar  130   3.602   1.599  -3.116
    1   AR   Ar  131   4.787   0.042   0.794
    1   AR   Ar  132   2.018   2.008  -1.048
    1   AR   Ar  133   4.095   0.195   3.531
    1   AR   Ar  134   4.151   1.282   3.348
    1   AR   Ar  135   5.046   0.953   2.692
    1   AR   Ar  136   4.808   0.192   1.914
    1   AR   Ar  137   2.956   6.184   3.910
    1   AR   Ar  138   4.757   1.280   4.879
    1   AR   Ar  139   5.339   2.024   5.274
    1   AR   Ar  140   4.256   0.584   4.430
    1   AR   Ar  141   4.112   6.446   4.160
    1   AR   Ar  142   4.053   7.050   5.331
    1   AR   Ar  143   5.800   6.938   5.568
    1   AR   Ar  144   4.835   0.522   5.770
    1   AR   Ar  145   3.655   3.910   0.557
    1   AR   Ar  146   4.319   2.247   1.565
    1   AR   Ar  147   5.846   1.819  -1.111
    1   AR   Ar  148   4.652   3.759  -2.481
    1   AR   Ar  149   3.236   2.105   1.076
    1   AR   Ar  150   2.167   2.009   2.936
    1   AR   Ar  151   3.195   2.068   3.401
    1   AR   Ar  152   2.858   2.749   0.371
    1   AR   Ar  153   3.361   1.108   4.070
    1   AR   Ar  154   4.128   1.877   4.249
    1   AR   Ar  155   5.858   0.957   5.862
    1   AR   Ar  156   3.215   4.083   4.227
    1   AR   Ar  157   2.615   2.914   5.495
    1   AR   Ar  158   1.132   3.012   6.719
    1   AR   Ar  159   3.374   2.080   5.629
    1   AR   Ar  160   2.517   2.370   6.455
    1   AR   Ar  161   5.326   2.491   1.414
    1   AR   Ar  162   4.562   5.019  -0.151
    1   AR   Ar  163   5.025   2.825   0.218
    1   AR   Ar  164   4.164   5.394   1.622
    1   AR   Ar  165   3.394   3.106   1.358
    1   AR   Ar  166   3.184   5.048   3.675
    1   AR   Ar  167   4.632   2.056   2.618
    1   AR   Ar  168   4.612   3.281  -0.602
    1   AR   Ar  169   2.556   2.876   2.335
    1   AR   Ar  170   3.348   3.744   5.311
    1   AR   Ar  171   4.196   3.979   4.476
    1   AR   Ar  172   4.568   5.621   4.429
    1   AR   Ar  173   2.202   3.309   6.529
    1   AR   Ar  174   3.684   4.848   6.233
    1   AR   Ar  175   4.166   3.096   6.124
    1   AR   Ar  176   3.558   5.157   4.807
    1   AR   Ar  177   6.350   5.823  -0.168
    1   AR   Ar  178   2.520   5.995   0.480
    1   AR   Ar  179   4.528   5.845   0.410
    1   AR   Ar  180   2.594   3.650  -1.800
    1   AR   Ar  181   1.453   5.582   0.875
    1   AR   Ar  182   2.778   6.863   2.778
    1   AR   Ar  183   3.725   4.852   2.501
    1   AR   Ar  184   4.024   6.439   1.309
    1   AR   Ar  185   2.155   5.203   3.927
    1   AR   Ar  186   3.821   5.660   3.269
    1   AR   Ar  187   3.977   6.675   2.527
    1   AR   Ar  188   3.023   6.119   1.550
    1   AR   Ar  189   3.094   3.944   6.465
    1   AR   Ar  190   4.990   6.313   5.992
    1   AR   Ar  191   4.771   5.202   5.446
    1   AR   Ar  192   3.938   6.055   5.438
    1   AR   Ar  193   0.448   5.948  -0.595
    1   AR   Ar  194   5.674   4.483  -1.245
    1   AR   Ar  195   6.645   0.508   0.094
    1   AR   Ar  196   4.700   6.777  -0.209
    1   AR   Ar  197   5.272   1.736   0.366
    1   AR   Ar  198   6.760   1.087   1.149
    1   AR   Ar  199   5.615   1.424   1.571
    1   AR   Ar  200   6.233   2.409   0.132
    1   AR   Ar  201   4.974   6.912   2.957
    1   AR   Ar  202   5.154   2.594   4.408
    1   AR   Ar  203   6.373   6.576   4.591
    1   AR   Ar  204   5.164   0.501   3.869
    1   AR   Ar  205   6.063   0.761   3.255
    1   AR   Ar  206   4.973   7.093   4.728
    1   AR   Ar  207   6.770   0.358   5.950
    1   AR   Ar  208   6.846   0.400   4.069
    1   AR   Ar  209   5.456   2.356  -2.100
    1   AR   Ar  210   4.071   0.976   1.229
    1   AR   Ar  211   7.003   3.167   0.341
    1   AR   Ar  212   6.260   3.779  -1.911
    1   AR   Ar  213   3.489   1.824   2.115
    1   AR   Ar  214   3.643   3.136   2.608
    1   AR   Ar  215   6.290   2.387   1.435
    1   AR   Ar  216   7.057   4.362   1.199
    1   AR   Ar  217   4.558   2.907   3.170
    1   AR   Ar  218   4.384   2.386   5.257
    1   AR   Ar  219   5.430   1.807   3.449
    1   AR   Ar  220   5.561   2.849   2.594
    1   AR   Ar  221   6.171   0.462   4.816
    1   AR   Ar  222   4.269   1.620   5.849
    1   AR   Ar  223   0.310   0.569   6.729
    1   AR   Ar  224   5.449   2.987   5.781
    1   AR   Ar  225   5.789   5.354   0.641
    1   AR   Ar  226   5.032   3.828   2.436
    1   AR   Ar  227   0.117   5.028   0.426
    1   AR   Ar  228   5.121   5.831   1.392
    1   AR   Ar  229   5.985   4.488  -0.205
    1   AR   Ar  230   4.345   4.741   3.495
    1   AR   Ar  231   6.508   1.855   2.790
    1   AR   Ar  232   3.972   2.847   0.356
    1   AR   Ar  233   6.127   2.679   4.572
    1   AR   Ar  234   7.118   3.039   4.969
    1   AR   Ar  235   7.066   2.298   4.048
    1   AR   Ar  236   5.116   4.727   4.454
    1   AR   Ar  237   5.460   3.830   5.047
    1   AR   Ar  238   4.236   4.229   5.507
    1   AR   Ar  239   7.110   4.128   8.908
    1   AR   Ar  240   6.630   3.618   5.754
    1   AR   Ar  241   0.440   6.776   0.253
    1   AR   Ar  242   5.001   4.736   0.920
    1   AR   Ar  243   6.073   4.109   2.621
    1   AR   Ar  244   0.686   4.931  -1.130
    1   AR   Ar  245   5.715   0.135   1.253
    1   AR   Ar  246   6.124   5.915   1.641
    1   AR   Ar  247   5.051   3.512   1.134
    1   AR   Ar  248   5.676   6.353   0.371
    1   AR   Ar  249   4.522   5.703   2.537
    1   AR   Ar  250   5.538   6.152   4.756
    1   AR   Ar  251   5.919   5.314   3.993
    1   AR   Ar  252   4.965   5.836   3.494
    1   AR   Ar  253   5.398   4.311   6.076
    1   AR   Ar  254   4.640   5.399   6.748
    1   AR   Ar  255   4.918   3.090   7.579
    1   AR   Ar  256   5.643   6.683   3.884
    7.12000  7.12000 12.00000
Argon-slab step 2220
  256
    1   AR   Ar    1   6.863   1.832  -0.610
    1   AR   Ar    2   6.808   7.028   1.030
    1   AR   Ar    3   0.906   0.053   1.086
    1   AR   Ar    4   1.726   0.349   0.099
    1   AR   Ar    5   6.685   5.872   0.800
    1   AR   Ar    6   6.899   0.720   2.705
    1   AR   Ar    7   6.711   4.796   3.358
    1   AR   Ar    8   6.418   6.765   2.113
    1   AR   Ar    9   0.754   0.572   3.904
    1   AR   Ar   10   1.118   1.587   4.470
    1   AR   Ar   11   3.159   0.059   4.836
    1   AR   Ar   12   1.264   1.230   3.045
    1   AR   Ar   13   6.664   1.264   5.280
    1   AR   Ar   14   1.379   1.357   6.790
    1   AR   Ar   15   6.552   0.352   9.140
    1   AR   Ar   16   0.716   0.917   5.343
    1   AR   Ar   17   1.224   1.592  -0.334
    1   AR   Ar   18   5.970   3.052  -0.806
    1   AR   Ar   19   1.104   2.601   1.225
    1   AR   Ar   20   5.806   3.966  -2.894
    1   AR   Ar   21   6.102   0.681   2.058
    1   AR   Ar   22   6.982   1.584   1.976
    1   AR   Ar   23   0.587   1.026   0.411
    1   AR   Ar   24   0.008   2.186   0.817
    1   AR   Ar   25   0.101   1.315   3.470
    1   AR   Ar   26   6.278   1.365   4.056
    1   AR   Ar   27   2.360   1.223   3.788
    1   AR   Ar   28   1.059   2.703   4.777
    1   AR   Ar   29   5.217   1.524   6.340
    1   AR   Ar   30   0.889   1.970   6.102
    1   AR   Ar   31   0.500   6.685   7.292
    1   AR   Ar   32   1.653   2.690   5.789
    1   AR   Ar   33   1.636   3.975  -0.358
    1   AR   Ar   34   0.317   5.719   2.777
    1   AR   Ar   35   6.805   5.107   1.928
    1   AR   Ar   36   0.005   7.094  -2.933
    1   AR   Ar   37   6.532   3.182   2.135
    1   AR   Ar   38   0.093   4.158   2.542
    1   AR   Ar   39   1.321   3.805   2.893
    1   AR   Ar   40   1.210   4.054   1.546
    1   AR   Ar   41   0.500   2.255   2.479
    1   AR   Ar   42   6.970   5.417   4.881
    1   AR   Ar   43   7.048   2.259   5.743
    1   AR   Ar   44   0.486   4.143   3.556
    1   AR   Ar   45   0.670   3.190   5.790
    1   AR   Ar   46   1.162   6.088   6.586
    1   AR   Ar   47   5.990   3.119   6.773
    1   AR   Ar   48   6.612   6.202   6.105
    1   AR   Ar   49   6.480   6.826  -2.130
    1   AR   Ar   50   5.665   4.835   2.033
    1   AR   Ar   51   0.772   4.987   1.601
    1   AR   Ar   52   6.482   5.009  -1.349
    1   AR   Ar   53   5.844   6.005   2.786
    1   AR   Ar   54   6.562   6.891   3.122
    1   AR   Ar   55   5.496   4.611   3.396
    1   AR   Ar   56   0.580   6.664   2.060
    1   AR   Ar   57   6.847   3.540   3.354
    1   AR   Ar   58   6.939   5.866   3.873
    1   AR   Ar   59   1.784   5.415   5.496
    1   AR   Ar   60   0.703   6.260   4.098
    1   AR   Ar   61   6.071   5.635   5.366
    1   AR   Ar   62   0.809   5.710   5.328
    1   AR   Ar   63   2.141   6.449   6.808
    1   AR   Ar   64   0.899   6.810   5.870
    1   AR   Ar   65   3.713   0.072   0.248
    1   AR   Ar   66   1.463   0.996   1.016
    1   AR   Ar   67   3.470   6.418  -0.556
    1   AR   Ar   68   3.250   1.508  -1.212
    1   AR   Ar   69   2.827   1.099   0.974
    1   AR   Ar   70   0.690   1.053   2.198
    1   AR   Ar   71   3.187   0.859   3.076
    1   AR   Ar   72   3.251   0.484   1.786
    1   AR   Ar   73   3.007   0.201   3.858
    1   AR   Ar   74   2.426   1.052   4.925
    1   AR   Ar   75   3.499   0.993   5.251
    1   AR   Ar   76   2.230   1.252   1.947
    1   AR   Ar   77   2.416   6.513   5.765
    1   AR   Ar   78   1.818   0.353   6.517
    1   AR   Ar   79   3.026   6.136   7.054
    1   AR   Ar   80   2.878   5.496   5.843
    1   AR   Ar   81   2.614   1.695  -0.241
    1   AR   Ar   82   7.057   4.047  -0.458
    1   AR   Ar   83   1.712   2.370   0.346
    1   AR   Ar   84   0.990   3.898  -1.196
    1   AR   Ar   85   0.609   2.557  -0.467
    1   AR   Ar   86   2.097   3.328   1.367
    1   AR   Ar   87   2.290   2.256   1.639
    1   AR   Ar   88   3.741   4.159   1.835
    1   AR   Ar   89   0.604   3.325   2.213
    1   AR   Ar   90   2.742   2.177   4.765
    1   AR   Ar   91   1.384   2.170   3.556
    1   AR   Ar   92   1.392   1.888   2.073
    1   AR   Ar   93   2.079   1.294   5.884
    1   AR   Ar   94   0.842   1.055   9.444
    1   AR   Ar   95   3.810   6.621   6.471
    1   AR   Ar   96   2.958   0.542   6.109
    1   AR   Ar   97   3.887   2.603  -1.229
    1   AR   Ar   98   3.035   4.964   1.359
    1   AR   Ar   99   7.116   2.561  -1.295
    1   AR   Ar  100   1.751   2.998  -0.576
    1   AR   Ar  101   2.336   4.117   0.826
    1   AR   Ar  102   3.221   3.095   3.643
    1   AR   Ar  103   1.194   4.566   0.505
    1   AR   Ar  104   2.870   2.772  -0.958
    1   AR   Ar  105   2.006   3.123   3.223
    1   AR   Ar  106   2.446   3.479   4.637
    1   AR   Ar  107   2.059   3.893   5.558
    1   AR   Ar  108   3.558   2.650   4.603
    1   AR   Ar  109   1.399   4.109   4.093
    1   AR   Ar  110   1.217   4.721   6.247
    1   AR   Ar  111   4.331   4.041   6.935
    1   AR   Ar  112   1.068   5.421   7.360
    1   AR   Ar  113   2.569   4.814  -0.370
    1   AR   Ar  114   2.706   4.571  -1.378
    1   AR   Ar  115   2.659   3.645  -0.367
    1   AR   Ar  116   5.017   5.544  -0.983
    1   AR   Ar  117   0.828   5.225   3.613
    1   AR   Ar  118   0.484   6.916   3.180
    1   AR   Ar  119   2.224   3.939   2.284
    1   AR   Ar  120   0.888   4.687   2.686
    1   AR   Ar  121   6.726   3.914   4.464
    1   AR   Ar  122   3.051   6.166   4.958
    1   AR   Ar  123   2.506   4.710   4.781
    1   AR   Ar  124   2.047   5.250   1.964
    1   AR   Ar  125   0.516   4.150   5.397
    1   AR   Ar  126   0.333   0.010   5.026
    1   AR   Ar  127   3.405   4.701   7.343
    1   AR   Ar  128   2.413   4.740   6.601
    1   AR   Ar  129   1.658   0.316   2.448
    1   AR   Ar  130   3.604   1.618  -3.070
    1   AR   Ar  131   4.771   0.044   0.835
    1   AR   Ar  132   2.059   1.996  -1.064
    1   AR   Ar  133   4.084   0.204   3.495
    1   AR   Ar  134   4.135   1.303   3.351
    1   AR   Ar  135   5.072   0.971   2.687
    1   AR   Ar  136   4.805   0.192   1.914
    1   AR   Ar  137   2.920   6.190   3.933
    1   AR   Ar  138   4.738   1.301   4.876
    1   AR   Ar  139   5.310   2.019   5.303
    1   AR   Ar  140   4.277   0.593   4.406
    1   AR   Ar  141   4.111   6.435   4.131
    1   AR   Ar  142   4.036   7.040   5.313
    1   AR   Ar  143   5.805   6.955   5.576
    1   AR   Ar  144   4.830   0.554   5.790
    1   AR   Ar  145   3.625   3.897   0.541
    1   AR   Ar  146   4.367   2.253   1.565
    1   AR   Ar  147   5.848   1.830  -1.129
    1   AR   Ar  148   4.658   3.739  -2.462
    1   AR   Ar  149   3.220   2.080   1.082
    1   AR   Ar  150   2.156   1.988   2.950
    1   AR   Ar  151   3.196   2.067   3.403
    1   AR   Ar  152   2.864   2.764   0.365
    1   AR   Ar  153   3.379   1.126   4.108
    1   AR   Ar  154   4.160   1.871   4.261
    1   AR   Ar  155   5.857   0.977   5.888
    1   AR   Ar  156   3.240   4.099   4.259
    1   AR   Ar  157   2.598   2.934   5.484
    1   AR   Ar  158   1.117   3.055   6.705
    1   AR   Ar  159   3.384   2.136   5.629
    1   AR   Ar  160   2.483   2.338   6.419
    1   AR   Ar  161   5.322   2.480   1.428
    1   AR   Ar  162   4.556   5.043  -0.168
    1   AR   Ar  163   5.038   2.786   0.255
    1   AR   Ar  164   4.148   5.370   1.608
    1   AR   Ar  165   3.424   3.094   1.356
    1   AR   Ar  166   3.171   4.976   3.675
    1   AR   Ar  167   4.597   2.066   2.664
    1   AR   Ar  168   4.603   3.272  -0.602
    1   AR   Ar  169   2.549   2.895   2.355
    1   AR   Ar  170   3.333   3.766   5.322
    1   AR   Ar  171   4.188   3.977   4.464
    1   AR   Ar  172   4.565   5.624   4.426
    1   AR   Ar  173   2.207   3.326   6.524
    1   AR   Ar  174   3.683   4.856   6.256
    1   AR   Ar  175   4.153   3.100   6.093
    1   AR   Ar  176   3.564   5.160   4.818
    1   AR   Ar  177   6.333   5.822  -0.150
    1   AR   Ar  178   2.533   5.984   0.499
    1   AR   Ar  179   4.539   5.845   0.424
    1   AR   Ar  180   2.562   3.657  -1.787
    1   AR   Ar  181   1.440   5.585   0.869
    1   AR   Ar  182   2.764   6.879   2.817
    1   AR   Ar  183   3.717   4.858   2.515
    1   AR   Ar  184   4.032   6.443   1.295
    1   AR   Ar  185   2.158   5.200   3.931
    1   AR   Ar  186   3.828   5.698   3.263
    1   AR   Ar  187   3.997   6.690   2.514
    1   AR   Ar  188   3.025   6.142   1.519
    1   AR   Ar  189   3.115   3.973   6.471
    1   AR   Ar  190   4.997   6.320   5.987
    1   AR   Ar  191   4.761   5.187   5.411
    1   AR   Ar  192   3.939   6.027   5.474
    1   AR   Ar  193   0.494   5.947  -0.634
    1   AR   Ar  194   5.695   4.477  -1.206
    1   AR   Ar  195   6.654   0.492   0.125
    1   AR   Ar  196   4.702   6.761  -0.221
    1   AR   Ar  197   5.256   1.749   0.340
    1   AR   Ar  198   6.773   1.102   1.151
    1   AR   Ar  199   5.637   1.466   1.567
    1   AR   Ar  200   6.223   2.450   0.124
    1   AR   Ar  201   5.002   6.894   2.982
    1   AR   Ar  202   5.140   2.565   4.388
    1   AR   Ar  203   6.383   6.601   4.591
    1   AR   Ar  204   5.165   0.477   3.851
    1   AR   Ar  205   6.037   0.746   3.251
    1   AR   Ar  206   4.980   7.092   4.740
    1   AR   Ar  207   6.773   0.383   5.963
    1   AR   Ar  208   6.843   0.403   4.034
    1   AR   Ar  209   5.473   2.363  -2.091
    1   AR   Ar  210   4.085   1.004   1.256
    1   AR   Ar  211   7.028   3.162   0.327
    1   AR   Ar  212   6.266   3.791  -1.897
    1   AR   Ar  213   3.481   1.800   2.107
    1   AR   Ar  214   3.640   3.119   2.602
    1   AR   Ar  215   6.293   2.389   1.411
    1   AR   Ar  216   7.065   4.379   1.179
    1   AR   Ar  217   4.524   2.886   3.207
    1   AR   Ar  218   4.392   2.374   5.243
    1   AR   Ar  219   5.436   1.840   3.468
    1   AR   Ar  220   5.546   2.834   2.589
    1   AR   Ar  221   6.145   0.478   4.780
    1   AR   Ar  222   4.261   1.594   5.858
    1   AR   Ar  223   0.352   0.551   6.718
    1   AR   Ar  224   5.468   3.017   5.814
    1   AR   Ar  225   5.771   5.332   0.699
    1   AR   Ar  226   5.030   3.827   2.405
    1   AR   Ar  227   0.121   5.058   0.436
    1   AR   Ar  228   5.141   5.823   1.397
    1   AR   Ar  229   5.968   4.473  -0.215
    1   AR   Ar  230   4.349   4.720   3.504
    1   AR   Ar  231   6.516   1.834   2.784
    1   AR   Ar  232   3.981   2.866   0.335
    1   AR   Ar  233   6.119   2.704   4.602
    1   AR   Ar  234   7.102   3.066   4.973
    1   AR   Ar  235   7.074   2.309   4.052
    1   AR   Ar  236   5.111   4.738   4.489
    1   AR   Ar  237   5.445   3.849   5.034
    1   AR   Ar  238   4.246   4.255   5.520
    1   AR   Ar  239   7.095   4.110   8.941
    1   AR   Ar  240   6.597   3.597   5.782
    1   AR   Ar  241   0.466   6.772   0.234
    1   AR   Ar  242   4.981   4.746   0.938
    1   AR   Ar  243   6.040   4.124   2.645
    1   AR   Ar  244   0.677   4.964  -1.111
    1   AR   Ar  245   5.753   0.122   1.255
    1   AR   Ar  246   6.113   5.879   1.633
    1   AR   Ar  247   5.016   3.518   1.160
    1   AR   Ar  248   5.666   6.359   0.381
    1   AR   Ar  249   4.547   5.731   2.541
    1   AR   Ar  250   5.539   6.136   4.742
    1   AR   Ar  251   5.923   5.315   3.993
    1   AR   Ar  252   4.987   5.841   3.487
    1   AR   Ar  253   5.427   4.326   6.110
    1   AR   Ar  254   4.642   5.396   6.777
    1   AR   Ar  255   4.924   3.078   7.555
    1   AR   Ar  256   5.635   6.694   3.856
    7.12000  7.12000 12.00000
Argon-slab step 2225
  256
    1   AR   Ar    1   6.858   1.834  -0.609
    1   AR   Ar    2   6.795   7.017   0.995
    1   AR   Ar    3   0.887   0.030   1.102
    1   AR   Ar    4   1.729   0.343   0.093
    1   AR   Ar    5   6.659   5.856   0.793
    1   AR   Ar    6   6.921   0.716   2.702
    1   AR   Ar    7   6.719   4.771   3.348
    1   AR   Ar    8   6.454   6.773   2.123
    1   AR   Ar    9   0.765   0.541   3.903
    1   AR   Ar   10   1.105   1.581   4.465
    1   AR   Ar   11   3.153   0.067   4.861
    1   AR   Ar   12   1.270   1.239   3.087
    1   AR   Ar   13   6.703   1.225   5.269
    1   AR   Ar   14   1.351   1.383   6.841
    1   AR   Ar   15   6.547   0.350   9.130
    1   AR   Ar   16   0.709   0.933   5.332
    1   AR   Ar   17   1.213   1.612  -0.343
    1   AR   Ar   18   5.972   3.050  -0.793
    1   AR   Ar   19   1.123   2.618   1.216
    1   AR   Ar   20   5.820   3.957  -2.912
    1   AR   Ar   21   6.107   0.683   2.063
    1   AR   Ar   22   6.995   1.553   1.988
    1   AR   Ar   23   0.640   1.028   0.413
    1   AR   Ar   24   0.016   2.210   0.846
    1   AR   Ar   25   0.095   1.304   3.491
    1   AR   Ar   26   6.258   1.376   4.038
    1   AR   Ar   27   2.388   1.225   3.794
    1   AR   Ar   28   1.064   2.695   4.763
    1   AR   Ar   29   5.187   1.554   6.345
    1   AR   Ar   30   0.900   1.965   6.102
    1   AR   Ar   31   0.518   6.667   7.301
    1   AR   Ar   32   1.643   2.662   5.828
    1   AR   Ar   33   1.646   3.968  -0.384
    1   AR   Ar   34   0.344   5.759   2.794
    1   AR   Ar   35   6.804   5.085   1.927
    1   AR   Ar   36   0.007   7.095  -2.919
    1   AR   Ar   37   6.518   3.221   2.148
    1   AR   Ar   38   0.045   4.166   2.534
    1   AR   Ar   39   1.294   3.785   2.888
    1   AR   Ar   40   1.226   4.043   1.522
    1   AR   Ar   41   0.525   2.265   2.485
    1   AR   Ar   42   6.983   5.407   4.889
    1   AR   Ar   43   7.025   2.285   5.775
    1   AR   Ar   44   0.510   4.140   3.550
    1   AR   Ar   45   0.651   3.209   5.764
    1   AR   Ar   46   1.159   6.102   6.588
    1   AR   Ar   47   5.996   3.122   6.762
    1   AR   Ar   48   6.638   6.217   6.123
    1   AR   Ar   49   6.464   6.834  -2.106
    1   AR   Ar   50   5.663   4.831   2.019
    1   AR   Ar   51   0.758   5.013   1.603
    1   AR   Ar   52   6.520   5.022  -1.359
    1   AR   Ar   53   5.826   5.997   2.755
    1   AR   Ar   54   6.571   6.867   3.109
    1   AR   Ar   55   5.497   4.617   3.389
    1   AR   Ar   56   0.570   6.669   2.052
    1   AR   Ar   57   6.831   3.521   3.338
    1   AR   Ar   58   6.950   5.838   3.896
    1   AR   Ar   59   1.788   5.391   5.488
    1   AR   Ar   60   0.689   6.270   4.094
    1   AR   Ar   61   6.070   5.621   5.367
    1   AR   Ar   62   0.801   5.675   5.347
    1   AR   Ar   63   2.161   6.469   6.819
    1   AR   Ar   64   0.907   6.807   5.885
    1   AR   Ar   65   3.736   0.087   0.200
    1   AR   Ar   66   1.488   1.013   1.016
    1   AR   Ar   67   3.494   6.421  -0.546
    1   AR   Ar   68   3.238   1.496  -1.259
    1   AR   Ar   69   2.812   1.092   0.970
    1   AR   Ar   70   0.710   1.022   2.182
    1   AR   Ar   71   3.181   0.888   3.102
    1   AR   Ar   72   3.258   0.469   1.795
    1   AR   Ar   73   3.002   0.199   3.846
    1   AR   Ar   74   2.429   1.061   4.958
    1   AR   Ar   75   3.477   0.982   5.261
    1   AR   Ar   76   2.209   1.254   1.970
    1   AR   Ar   77   2.441   6.517   5.725
    1   AR   Ar   78   1.832   0.344   6.548
    1   AR   Ar   79   3.054   6.126   7.062
    1   AR   Ar   80   2.893   5.505   5.871
    1   AR   Ar   81   2.638   1.706  -0.222
    1   AR   Ar   82   7.061   4.057  -0.439
    1   AR   Ar   83   1.692   2.373   0.346
    1   AR   Ar   84   0.966   3.912  -1.176
    1   AR   Ar   85   0.621   2.563  -0.463
    1   AR   Ar   86   2.100   3.315   1.355
    1   AR   Ar   87   2.322   2.290   1.604
    1   AR   Ar   88   3.759   4.158   1.830
    1   AR   Ar   89   0.608   3.352   2.201
    1   AR   Ar   90   2.764   2.174   4.792
    1   AR   Ar   91   1.405   2.180   3.567
    1   AR   Ar   92   1.400   1.891   2.063
    1   AR   Ar   93   2.066   1.306   5.866
    1   AR   Ar   94   0.891   1.041   9.459
    1   AR   Ar   95   3.842   6.676   6.463
    1   AR   Ar   96   2.958   0.525   6.080
    1   AR   Ar   97   3.877   2.593  -1.247
    1   AR   Ar   98   3.023   4.970   1.385
    1   AR   Ar   99   0.024   2.542  -1.258
    1   AR   Ar  100   1.760   2.957  -0.564
    1   AR   Ar  101   2.362   4.111   0.835
    1   AR   Ar  102   3.209   3.115   3.637
    1   AR   Ar  103   1.184   4.582   0.520
    1   AR   Ar  104   2.905   2.807  -0.962
    1   AR   Ar  105   2.061   3.135   3.237
    1   AR   Ar  106   2.425   3.493   4.612
    1   AR   Ar  107   2.074   3.881   5.575
    1   AR   Ar  108   3.536   2.678   4.576
    1   AR   Ar  109   1.412   4.098   4.113
    1   AR   Ar  110   1.220   4.716   6.261
    1   AR   Ar  111   4.346   4.036   6.923
    1   AR   Ar  112   1.099   5.427   7.370
    1   AR   Ar  113   2.574   4.818  -0.377
    1   AR   Ar  114   2.718   4.577  -1.377
    1   AR   Ar  115   2.670   3.657  -0.350
    1   AR   Ar  116   5.047   5.532  -1.001
    1   AR   Ar  117   0.831   5.216   3.602
    1   AR   Ar  118   0.504   6.911   3.181
    1   AR   Ar  119   2.227   3.950   2.287
    1   AR   Ar  120   0.916   4.685   2.675
    1   AR   Ar  121   6.730   3.926   4.543
    1   AR   Ar  122   3.068   6.155   4.968
    1   AR   Ar  123   2.490   4.743   4.782
    1   AR   Ar  124   2.059   5.235   1.951
    1   AR   Ar  125   0.524   4.126   5.419
    1   AR   Ar  126   0.326   7.117   5.019
    1   AR   Ar  127   3.375   4.695   7.319
    1   AR   Ar  128   2.396   4.744   6.608
    1   AR   Ar  129   1.656   0.307   2.456
    1   AR   Ar  130   3.605   1.636  -3.025
    1   AR   Ar  131   4.751   0.046   0.874
    1   AR   Ar  132   2.097   1.987  -1.081
    1   AR   Ar  133   4.073   0.219   3.485
    1   AR   Ar  134   4.147   1.313   3.343
    1   AR   Ar  135   5.099   0.988   2.682
    1   AR   Ar  136   4.802   0.192   1.914
    1   AR   Ar  137   2.886   6.194   3.951
    1   AR   Ar  138   4.727   1.323   4.883
    1   AR   Ar  139   5.296   2.013   5.338
    1   AR   Ar  140   4.280   0.599   4.381
    1   AR   Ar  141   4.103   6.435   4.099
    1   AR   Ar  142   4.026   7.034   5.298
    1   AR   Ar  143   5.809   6.970   5.583
    1   AR   Ar  144   4.851   0.592   5.764
    1   AR   Ar  145   3.594   3.884   0.526
    1   AR   Ar  146   4.402   2.256   1.565
    1   AR   Ar  147   5.850   1.843  -1.147
    1   AR   Ar  148   4.665   3.719  -2.442
    1   AR   Ar  149   3.206   2.053   1.088
    1   AR   Ar  150   2.153   1.965   2.957
    1   AR   Ar  151   3.197   2.063   3.405
    1   AR   Ar  152   2.867   2.781   0.357
    1   AR   Ar  153   3.397   1.150   4.150
    1   AR   Ar  154   4.192   1.868   4.270
    1   AR   Ar  155   5.865   0.984   5.904
    1   AR   Ar  156   3.253   4.114   4.289
    1   AR   Ar  157   2.588   2.955   5.479
    1   AR   Ar  158   1.105   3.097   6.695
    1   AR   Ar  159   3.391   2.194   5.630
    1   AR   Ar  160   2.452   2.300   6.382
    1   AR   Ar  161   5.315   2.475   1.440
    1   AR   Ar  162   4.551   5.057  -0.187
    1   AR   Ar  163   5.055   2.747   0.294
    1   AR   Ar  164   4.131   5.345   1.591
    1   AR   Ar  165   3.454   3.085   1.355
    1   AR   Ar  166   3.159   4.905   3.674
    1   AR   Ar  167   4.564   2.066   2.704
    1   AR   Ar  168   4.593   3.263  -0.603
    1   AR   Ar  169   2.547   2.918   2.379
    1   AR   Ar  170   3.314   3.788   5.332
    1   AR   Ar  171   4.194   3.974   4.454
    1   AR   Ar  172   4.565   5.618   4.430
    1   AR   Ar  173   2.211   3.352   6.514
    1   AR   Ar  174   3.683   4.866   6.278
    1   AR   Ar  175   4.140   3.105   6.061
    1   AR   Ar  176   3.570   5.161   4.829
    1   AR   Ar  177   6.320   5.815  -0.142
    1   AR   Ar  178   2.547   5.971   0.519
    1   AR   Ar  179   4.552   5.853   0.445
    1   AR   Ar  180   2.528   3.657  -1.776
    1   AR   Ar  181   1.437   5.599   0.868
    1   AR   Ar  182   2.752   6.896   2.856
    1   AR   Ar  183   3.708   4.875   2.540
    1   AR   Ar  184   4.044   6.449   1.281
    1   AR   Ar  185   2.145   5.212   3.939
    1   AR   Ar  186   3.833   5.660   3.272
    1   AR   Ar  187   4.026   6.702   2.495
    1   AR   Ar  188   3.026   6.165   1.489
    1   AR   Ar  189   3.138   3.997   6.476
    1   AR   Ar  190   5.022   6.295   5.989
    1   AR   Ar  191   4.751   5.175   5.379
    1   AR   Ar  192   3.944   5.992   5.514
    1   AR   Ar  193   0.540   5.947  -0.671
    1   AR   Ar  194   5.670   4.451  -1.226
    1   AR   Ar  195   6.664   0.476   0.156
    1   AR   Ar  196   4.719   6.735  -0.220
    1   AR   Ar  197   5.242   1.760   0.316
    1   AR   Ar  198   6.783   1.109   1.141
    1   AR   Ar  199   5.657   1.509   1.561
    1   AR   Ar  200   6.224   2.471   0.122
    1   AR   Ar  201   5.030   6.875   3.006
    1   AR   Ar  202   5.117   2.534   4.365
    1   AR   Ar  203   6.410   6.630   4.591
    1   AR   Ar  204   5.165   0.463   3.827
    1   AR   Ar  205   6.005   0.729   3.246
    1   AR   Ar  206   4.995   7.083   4.759
    1   AR   Ar  207   6.774   0.405   5.971
    1   AR   Ar  208   6.840   0.403   3.994
    1   AR   Ar  209   5.490   2.369  -2.081
    1   AR   Ar  210   4.095   1.020   1.274
    1   AR   Ar  211   7.055   3.158   0.313
    1   AR   Ar  212   6.272   3.803  -1.881
    1   AR   Ar  213   3.474   1.776   2.100
    1   AR   Ar  214   3.669   3.103   2.613
    1   AR   Ar  215   6.308   2.388   1.389
    1   AR   Ar  216   7.068   4.382   1.164
    1   AR   Ar  217   4.491   2.873   3.251
    1   AR   Ar  218   4.391   2.374   5.222
    1   AR   Ar  219   5.442   1.872   3.485
    1   AR   Ar  220   5.523   2.826   2.596
    1   AR   Ar  221   6.122   0.482   4.747
    1   AR   Ar  222   4.260   1.578   5.838
    1   AR   Ar  223   0.398   0.534   6.709
    1   AR   Ar  224   5.485   3.046   5.846
    1   AR   Ar  225   5.758   5.310   0.754
    1   AR   Ar  226   5.026   3.825   2.373
    1   AR   Ar  227   0.129   5.090   0.440
    1   AR   Ar  228   5.149   5.815   1.402
    1   AR   Ar  229   5.953   4.459  -0.219
    1   AR   Ar  230   4.380   4.699   3.502
    1   AR   Ar  231   6.514   1.816   2.792
    1   AR   Ar  232   3.962   2.872   0.345
    1   AR   Ar  233   6.134   2.720   4.615
    1   AR   Ar  234   7.086   3.087   4.982
    1   AR   Ar  235   7.082   2.319   4.056
    1   AR   Ar  236   5.107   4.746   4.522
    1   AR   Ar  237   5.429   3.867   5.022
    1   AR   Ar  238   4.257   4.262   5.528
    1   AR   Ar  239   7.111   4.097   8.942
    1   AR   Ar  240   6.563   3.575   5.809
    1   AR   Ar  241   0.490   6.766   0.211
    1   AR   Ar  242   4.955   4.754   0.958
    1   AR   Ar  243   6.015   4.132   2.672
    1   AR   Ar  244   0.667   4.997  -1.092
    1   AR   Ar  245   5.792   0.106   1.255
    1   AR   Ar  246   6.103   5.841   1.633
    1   AR   Ar  247   4.979   3.524   1.186
    1   AR   Ar  248   5.650   6.372   0.397
    1   AR   Ar  249   4.577   5.759   2.540
    1   AR   Ar  250   5.515   6.119   4.720
    1   AR   Ar  251   5.930   5.324   3.998
    1   AR   Ar  252   4.998   5.852   3.479
    1   AR   Ar  253   5.414   4.329   6.139
    1   AR   Ar  254   4.643   5.393   6.803
    1   AR   Ar  255   4.930   3.067   7.529
    1   AR   Ar  256   5.630   6.702   3.823
    7.12000  7.12000 12.00000
Argon-slab step 2230
  256
    1   AR   Ar    1   6.850   1.831  -0.600
    1   AR   Ar    2   6.785   7.001   0.965
    1   AR   Ar    3   0.868   0.009   1.119
    1   AR   Ar    4   1.730   0.338   0.089
    1   AR   Ar    5   6.655   5.862   0.788
    1   AR   Ar    6   6.950   0.707   2.694
    1   AR   Ar    7   6.745   4.744   3.331
    1   AR   Ar    8   6.490   6.779   2.122
    1   AR   Ar    9   0.780   0.513   3.905
    1   AR   Ar   10   1.092   1.575   4.458
    1   AR   Ar   11   3.138   0.077   4.884
    1   AR   Ar   12   1.276   1.247   3.128
    1   AR   Ar   13   6.744   1.189   5.256
    1   AR   Ar   14   1.326   1.407   6.893
    1   AR   Ar   15   6.541   0.349   9.120
    1   AR   Ar   16   0.702   0.952   5.322
    1   AR   Ar   17   1.204   1.632  -0.352
    1   AR   Ar   18   5.979   3.039  -0.785
    1   AR   Ar   19   1.141   2.635   1.210
    1   AR   Ar   20   5.833   3.948  -2.929
    1   AR   Ar   21   6.113   0.669   2.056
    1   AR   Ar   22   7.010   1.529   1.996
    1   AR   Ar   23   0.689   1.028   0.414
    1   AR   Ar   24   0.030   2.230   0.870
    1   AR   Ar   25   0.091   1.297   3.514
    1   AR   Ar   26   6.239   1.389   4.024
    1   AR   Ar   27   2.413   1.228   3.800
    1   AR   Ar   28   1.068   2.686   4.749
    1   AR   Ar   29   5.151   1.591   6.355
    1   AR   Ar   30   0.909   1.962   6.100
    1   AR   Ar   31   0.537   6.650   7.309
    1   AR   Ar   32   1.645   2.638   5.861
    1   AR   Ar   33   1.657   3.967  -0.405
    1   AR   Ar   34   0.370   5.800   2.809
    1   AR   Ar   35   6.771   5.086   1.928
    1   AR   Ar   36   0.009   7.096  -2.906
    1   AR   Ar   37   6.506   3.260   2.162
    1   AR   Ar   38   7.110   4.175   2.523
    1   AR   Ar   39   1.277   3.750   2.881
    1   AR   Ar   40   1.244   4.031   1.500
    1   AR   Ar   41   0.547   2.275   2.494
    1   AR   Ar   42   6.996   5.395   4.896
    1   AR   Ar   43   7.002   2.312   5.805
    1   AR   Ar   44   0.534   4.141   3.545
    1   AR   Ar   45   0.633   3.215   5.741
    1   AR   Ar   46   1.157   6.114   6.588
    1   AR   Ar   47   6.003   3.125   6.752
    1   AR   Ar   48   6.680   6.233   6.133
    1   AR   Ar   49   6.449   6.847  -2.087
    1   AR   Ar   50   5.690   4.835   2.020
    1   AR   Ar   51   0.771   4.999   1.550
    1   AR   Ar   52   6.564   5.038  -1.370
    1   AR   Ar   53   5.809   5.990   2.723
    1   AR   Ar   54   6.577   6.843   3.106
    1   AR   Ar   55   5.491   4.624   3.397
    1   AR   Ar   56   0.557   6.675   2.046
    1   AR   Ar   57   6.811   3.499   3.321
    1   AR   Ar   58   6.949   5.805   3.914
    1   AR   Ar   59   1.802   5.361   5.482
    1   AR   Ar   60   0.664   6.271   4.082
    1   AR   Ar   61   6.071   5.602   5.378
    1   AR   Ar   62   0.786   5.656   5.355
    1   AR   Ar   63   2.132   6.467   6.824
    1   AR   Ar   64   0.914   6.809   5.898
    1   AR   Ar   65   3.746   0.091   0.205
    1   AR   Ar   66   1.517   1.031   1.019
    1   AR   Ar   67   3.520   6.423  -0.535
    1   AR   Ar   68   3.224   1.486  -1.305
    1   AR   Ar   69   2.813   1.083   0.993
    1   AR   Ar   70   0.712   1.002   2.180
    1   AR   Ar   71   3.175   0.919   3.122
    1   AR   Ar   72   3.266   0.454   1.805
    1   AR   Ar   73   2.996   0.193   3.834
    1   AR   Ar   74   2.435   1.068   4.982
    1   AR   Ar   75   3.461   0.976   5.270
    1   AR   Ar   76   2.192   1.252   1.994
    1   AR   Ar   77   2.464   6.523   5.688
    1   AR   Ar   78   1.844   0.337   6.577
    1   AR   Ar   79   3.092   6.110   7.072
    1   AR   Ar   80   2.907   5.515   5.897
    1   AR   Ar   81   2.663   1.718  -0.198
    1   AR   Ar   82   7.065   4.067  -0.419
    1   AR   Ar   83   1.674   2.373   0.346
    1   AR   Ar   84   0.958   3.919  -1.163
    1   AR   Ar   85   0.639   2.569  -0.450
    1   AR   Ar   86   2.099   3.293   1.349
    1   AR   Ar   87   2.350   2.321   1.565
    1   AR   Ar   88   3.777   4.150   1.819
    1   AR   Ar   89   0.612   3.375   2.186
    1   AR   Ar   90   2.766   2.155   4.819
    1   AR   Ar   91   1.422   2.177   3.573
    1   AR   Ar   92   1.426   1.921   2.062
    1   AR   Ar   93   2.050   1.321   5.855
    1   AR   Ar   94   0.940   1.027   9.474
    1   AR   Ar   95   3.875   6.731   6.452
    1   AR   Ar   96   2.956   0.506   6.051
    1   AR   Ar   97   3.872   2.581  -1.266
    1   AR   Ar   98   3.011   4.975   1.412
    1   AR   Ar   99   0.047   2.529  -1.234
    1   AR   Ar  100   1.770   2.911  -0.554
    1   AR   Ar  101   2.391   4.115   0.838
    1   AR   Ar  102   3.195   3.137   3.631
    1   AR   Ar  103   1.167   4.606   0.531
    1   AR   Ar  104   2.935   2.841  -0.964
    1   AR   Ar  105   2.114   3.146   3.258
    1   AR   Ar  106   2.404   3.509   4.582
    1   AR   Ar  107   2.087   3.873   5.593
    1   AR   Ar  108   3.532   2.720   4.546
    1   AR   Ar  109   1.429   4.086   4.134
    1   AR   Ar  110   1.224   4.712   6.273
    1   AR   Ar  111   4.359   4.031   6.909
    1   AR   Ar  112   1.130   5.430   7.381
    1   AR   Ar  113   2.577   4.822  -0.378
    1   AR   Ar  114   2.732   4.587  -1.378
    1   AR   Ar  115   2.683   3.670  -0.332
    1   AR   Ar  116   5.079   5.521  -1.020
    1   AR   Ar  117   0.833   5.207   3.594
    1   AR   Ar  118   0.524   6.906   3.181
    1   AR   Ar  119   2.229   3.963   2.288
    1   AR   Ar  120   0.945   4.694   2.659
    1   AR   Ar  121   6.731   3.944   4.620
    1   AR   Ar  122   3.086   6.139   4.979
    1   AR   Ar  123   2.477   4.773   4.788
    1   AR   Ar  124   2.070   5.219   1.937
    1   AR   Ar  125   0.530   4.113   5.436
    1   AR   Ar  126   0.296   7.098   5.013
    1   AR   Ar  127   3.345   4.690   7.294
    1   AR   Ar  128   2.377   4.750   6.613
    1   AR   Ar  129   1.652   0.299   2.464
    1   AR   Ar  130   3.607   1.655  -2.979
    1   AR   Ar  131   4.732   0.046   0.908
    1   AR   Ar  132   2.134   1.978  -1.100
    1   AR   Ar  133   4.060   0.231   3.465
    1   AR   Ar  134   4.178   1.316   3.330
    1   AR   Ar  135   5.125   1.006   2.679
    1   AR   Ar  136   4.800   0.192   1.918
    1   AR   Ar  137   2.853   6.198   3.964
    1   AR   Ar  138   4.724   1.340   4.899
    1   AR   Ar  139   5.299   2.008   5.378
    1   AR   Ar  140   4.274   0.603   4.359
    1   AR   Ar  141   4.089   6.445   4.065
    1   AR   Ar  142   4.025   7.029   5.287
    1   AR   Ar  143   5.814   6.985   5.589
    1   AR   Ar  144   4.871   0.629   5.735
    1   AR   Ar  145   3.562   3.871   0.512
    1   AR   Ar  146   4.413   2.253   1.568
    1   AR   Ar  147   5.854   1.857  -1.163
    1   AR   Ar  148   4.673   3.699  -2.422
    1   AR   Ar  149   3.198   2.028   1.093
    1   AR   Ar  150   2.158   1.939   2.955
    1   AR   Ar  151   3.199   2.054   3.408
    1   AR   Ar  152   2.868   2.799   0.349
    1   AR   Ar  153   3.415   1.176   4.195
    1   AR   Ar  154   4.210   1.867   4.271
    1   AR   Ar  155   5.880   0.985   5.914
    1   AR   Ar  156   3.252   4.126   4.320
    1   AR   Ar  157   2.583   2.974   5.478
    1   AR   Ar  158   1.095   3.139   6.688
    1   AR   Ar  159   3.399   2.252   5.633
    1   AR   Ar  160   2.424   2.258   6.346
    1   AR   Ar  161   5.318   2.482   1.449
    1   AR   Ar  162   4.545   5.065  -0.208
    1   AR   Ar  163   5.072   2.718   0.335
    1   AR   Ar  164   4.114   5.319   1.574
    1   AR   Ar  165   3.484   3.077   1.355
    1   AR   Ar  166   3.148   4.839   3.670
    1   AR   Ar  167   4.534   2.056   2.734
    1   AR   Ar  168   4.583   3.254  -0.604
    1   AR   Ar  169   2.551   2.941   2.400
    1   AR   Ar  170   3.294   3.808   5.343
    1   AR   Ar  171   4.216   3.969   4.447
    1   AR   Ar  172   4.564   5.607   4.435
    1   AR   Ar  173   2.215   3.378   6.504
    1   AR   Ar  174   3.687   4.879   6.299
    1   AR   Ar  175   4.126   3.112   6.028
    1   AR   Ar  176   3.578   5.161   4.840
    1   AR   Ar  177   6.314   5.815  -0.157
    1   AR   Ar  178   2.560   5.958   0.538
    1   AR   Ar  179   4.566   5.867   0.473
    1   AR   Ar  180   2.494   3.650  -1.765
    1   AR   Ar  181   1.446   5.629   0.873
    1   AR   Ar  182   2.740   6.914   2.894
    1   AR   Ar  183   3.700   4.898   2.570
    1   AR   Ar  184   4.058   6.453   1.269
    1   AR   Ar  185   2.129   5.227   3.943
    1   AR   Ar  186   3.838   5.625   3.286
    1   AR   Ar  187   4.055   6.715   2.477
    1   AR   Ar  188   3.027   6.186   1.461
    1   AR   Ar  189   3.161   4.016   6.480
    1   AR   Ar  190   5.046   6.270   5.988
    1   AR   Ar  191   4.741   5.168   5.354
    1   AR   Ar  192   3.952   5.954   5.555
    1   AR   Ar  193   0.584   5.949  -0.705
    1   AR   Ar  194   5.639   4.421  -1.249
    1   AR   Ar  195   6.675   0.464   0.183
    1   AR   Ar  196   4.737   6.709  -0.217
    1   AR   Ar  197   5.230   1.763   0.294
    1   AR   Ar  198   6.789   1.110   1.120
    1   AR   Ar  199   5.679   1.548   1.555
    1   AR   Ar  200   6.225   2.490   0.121
    1   AR   Ar  201   5.028   6.866   3.026
    1   AR   Ar  202   5.091   2.503   4.341
    1   AR   Ar  203   6.444   6.654   4.591
    1   AR   Ar  204   5.161   0.459   3.803
    1   AR   Ar  205   5.975   0.712   3.239
    1   AR   Ar  206   5.014   7.070   4.782
    1   AR   Ar  207   6.775   0.424   5.976
    1   AR   Ar  208   6.842   0.406   3.961
    1   AR   Ar  209   5.508   2.377  -2.071
    1   AR   Ar  210   4.086   0.988   1.259
    1   AR   Ar  211   7.083   3.156   0.298
    1   AR   Ar  212   6.279   3.815  -1.865
    1   AR   Ar  213   3.466   1.751   2.095
    1   AR   Ar  214   3.695   3.085   2.620
    1   AR   Ar  215   6.326   2.388   1.370
    1   AR   Ar  216   7.071   4.380   1.152
    1   AR   Ar  217   4.458   2.871   3.305
    1   AR   Ar  218   4.381   2.384   5.196
    1   AR   Ar  219   5.446   1.903   3.501
    1   AR   Ar  220   5.500   2.816   2.602
    1   AR   Ar  221   6.106   0.466   4.717
    1   AR   Ar  222   4.257   1.555   5.822
    1   AR   Ar  223   0.448   0.516   6.700
    1   AR   Ar  224   5.500   3.076   5.873
    1   AR   Ar  225   5.754   5.288   0.801
    1   AR   Ar  226   5.021   3.823   2.340
    1   AR   Ar  227   0.140   5.122   0.439
    1   AR   Ar  228   5.142   5.811   1.408
    1   AR   Ar  229   5.940   4.446  -0.220
    1   AR   Ar  230   4.411   4.680   3.502
    1   AR   Ar  231   6.504   1.801   2.814
    1   AR   Ar  232   3.944   2.878   0.355
    1   AR   Ar  233   6.172   2.720   4.598
    1   AR   Ar  234   7.070   3.099   4.993
    1   AR   Ar  235   7.090   2.329   4.061
    1   AR   Ar  236   5.127   4.740   4.489
    1   AR   Ar  237   5.415   3.882   5.012
    1   AR   Ar  238   4.268   4.255   5.535
    1   AR   Ar  239   0.007   4.083   8.944
    1   AR   Ar  240   6.529   3.553   5.835
    1   AR   Ar  241   0.511   6.759   0.185
    1   AR   Ar  242   4.921   4.757   0.981
    1   AR   Ar  243   6.000   4.132   2.698
    1   AR   Ar  244   0.656   5.025  -1.074
    1   AR   Ar  245   5.827   0.088   1.254
    1   AR   Ar  246   6.100   5.807   1.642
    1   AR   Ar  247   4.942   3.531   1.212
    1   AR   Ar  248   5.629   6.388   0.419
    1   AR   Ar  249   4.609   5.786   2.531
    1   AR   Ar  250   5.480   6.105   4.694
    1   AR   Ar  251   5.939   5.338   4.006
    1   AR   Ar  252   5.003   5.864   3.470
    1   AR   Ar  253   5.414   4.314   6.152
    1   AR   Ar  254   4.643   5.389   6.827
    1   AR   Ar  255   4.936   3.056   7.502
    1   AR   Ar  256   5.634   6.701   3.792
    7.12000  7.12000 12.00000
Argon-slab step 2235
  256
    1   AR   Ar    1   6.839   1.822  -0.583
    1   AR   Ar    2   6.784   6.976   0.945
    1   AR   Ar    3   0.850   7.111   1.136
    1   AR   Ar    4   1.744   0.326   0.085
    1   AR   Ar    5   6.658   5.879   0.788
    1   AR   Ar    6   6.979   0.692   2.688
    1   AR   Ar    7   6.762   4.745   3.331
    1   AR   Ar    8   6.519   6.784   2.114
    1   AR   Ar    9   0.798   0.487   3.909
    1   AR   Ar   10   1.078   1.568   4.451
    1   AR   Ar   11   3.112   0.089   4.902
    1   AR   Ar   12   1.281   1.250   3.167
    1   AR   Ar   13   6.786   1.156   5.240
    1   AR   Ar   14   1.302   1.428   6.945
    1   AR   Ar   15   6.536   0.348   9.110
    1   AR   Ar   16   0.710   0.970   5.320
    1   AR   Ar   17   1.196   1.652  -0.361
    1   AR   Ar   18   5.994   3.016  -0.787
    1   AR   Ar   19   1.154   2.644   1.222
    1   AR   Ar   20   5.845   3.939  -2.944
    1   AR   Ar   21   6.122   0.655   2.043
    1   AR   Ar   22   7.021   1.514   2.000
    1   AR   Ar   23   0.732   1.026   0.413
    1   AR   Ar   24   0.014   2.257   0.873
    1   AR   Ar   25   0.091   1.295   3.538
    1   AR   Ar   26   6.189   1.396   4.029
    1   AR   Ar   27   2.435   1.232   3.807
    1   AR   Ar   28   1.072   2.678   4.736
    1   AR   Ar   29   5.115   1.630   6.370
    1   AR   Ar   30   0.914   1.956   6.095
    1   AR   Ar   31   0.555   6.633   7.316
    1   AR   Ar   32   1.645   2.624   5.884
    1   AR   Ar   33   1.669   3.969  -0.422
    1   AR   Ar   34   0.368   5.772   2.825
    1   AR   Ar   35   6.742   5.084   1.931
    1   AR   Ar   36   0.013   7.098  -2.893
    1   AR   Ar   37   6.493   3.300   2.177
    1   AR   Ar   38   7.055   4.184   2.509
    1   AR   Ar   39   1.266   3.712   2.877
    1   AR   Ar   40   1.263   4.017   1.479
    1   AR   Ar   41   0.566   2.287   2.505
    1   AR   Ar   42   7.009   5.382   4.901
    1   AR   Ar   43   6.979   2.340   5.835
    1   AR   Ar   44   0.556   4.142   3.540
    1   AR   Ar   45   0.621   3.202   5.726
    1   AR   Ar   46   1.156   6.121   6.587
    1   AR   Ar   47   6.012   3.128   6.748
    1   AR   Ar   48   6.722   6.252   6.142
    1   AR   Ar   49   6.444   6.877  -2.098
    1   AR   Ar   50   5.713   4.843   2.017
    1   AR   Ar   51   0.791   4.992   1.549
    1   AR   Ar   52   6.609   5.053  -1.378
    1   AR   Ar   53   5.792   5.983   2.692
    1   AR   Ar   54   6.581   6.818   3.115
    1   AR   Ar   55   5.480   4.634   3.409
    1   AR   Ar   56   0.543   6.681   2.042
    1   AR   Ar   57   6.789   3.475   3.304
    1   AR   Ar   58   6.934   5.766   3.926
    1   AR   Ar   59   1.819   5.331   5.479
    1   AR   Ar   60   0.651   6.280   4.073
    1   AR   Ar   61   6.072   5.582   5.391
    1   AR   Ar   62   0.768   5.650   5.357
    1   AR   Ar   63   2.102   6.465   6.828
    1   AR   Ar   64   0.919   6.816   5.906
    1   AR   Ar   65   3.747   0.088   0.248
    1   AR   Ar   66   1.552   1.050   1.027
    1   AR   Ar   67   3.546   6.424  -0.524
    1   AR   Ar   68   3.209   1.478  -1.350
    1   AR   Ar   69   2.822   1.070   1.033
    1   AR   Ar   70   0.686   0.998   2.200
    1   AR   Ar   71   3.171   0.953   3.136
    1   AR   Ar   72   3.274   0.438   1.816
    1   AR   Ar   73   2.991   0.185   3.827
    1   AR   Ar   74   2.445   1.073   4.995
    1   AR   Ar   75   3.452   0.977   5.278
    1   AR   Ar   76   2.181   1.246   2.017
    1   AR   Ar   77   2.483   6.533   5.656
    1   AR   Ar   78   1.855   0.332   6.603
    1   AR   Ar   79   3.118   6.087   7.059
    1   AR   Ar   80   2.921   5.524   5.923
    1   AR   Ar   81   2.689   1.732  -0.173
    1   AR   Ar   82   7.069   4.078  -0.401
    1   AR   Ar   83   1.659   2.372   0.346
    1   AR   Ar   84   0.959   3.912  -1.155
    1   AR   Ar   85   0.665   2.577  -0.425
    1   AR   Ar   86   2.095   3.269   1.346
    1   AR   Ar   87   2.374   2.345   1.528
    1   AR   Ar   88   3.795   4.139   1.804
    1   AR   Ar   89   0.617   3.391   2.170
    1   AR   Ar   90   2.757   2.126   4.843
    1   AR   Ar   91   1.439   2.154   3.571
    1   AR   Ar   92   1.450   1.954   2.061
    1   AR   Ar   93   2.041   1.326   5.878
    1   AR   Ar   94   0.988   1.013   9.489
    1   AR   Ar   95   3.907   6.785   6.439
    1   AR   Ar   96   2.950   0.484   6.023
    1   AR   Ar   97   3.873   2.567  -1.286
    1   AR   Ar   98   3.001   4.981   1.438
    1   AR   Ar   99   0.065   2.523  -1.226
    1   AR   Ar  100   1.781   2.865  -0.548
    1   AR   Ar  101   2.423   4.125   0.836
    1   AR   Ar  102   3.181   3.162   3.623
    1   AR   Ar  103   1.149   4.629   0.542
    1   AR   Ar  104   2.958   2.875  -0.964
    1   AR   Ar  105   2.163   3.159   3.292
    1   AR   Ar  106   2.381   3.525   4.549
    1   AR   Ar  107   2.097   3.872   5.608
    1   AR   Ar  108   3.537   2.769   4.515
    1   AR   Ar  109   1.448   4.075   4.156
    1   AR   Ar  110   1.230   4.708   6.285
    1   AR   Ar  111   4.363   4.032   6.893
    1   AR   Ar  112   1.162   5.431   7.394
    1   AR   Ar  113   2.578   4.826  -0.374
    1   AR   Ar  114   2.741   4.588  -1.367
    1   AR   Ar  115   2.697   3.685  -0.312
    1   AR   Ar  116   5.113   5.509  -1.040
    1   AR   Ar  117   0.828   5.201   3.602
    1   AR   Ar  118   0.544   6.900   3.179
    1   AR   Ar  119   2.230   3.977   2.288
    1   AR   Ar  120   0.973   4.708   2.640
    1   AR   Ar  121   6.728   3.972   4.691
    1   AR   Ar  122   3.106   6.119   4.987
    1   AR   Ar  123   2.467   4.799   4.800
    1   AR   Ar  124   2.079   5.201   1.922
    1   AR   Ar  125   0.533   4.120   5.446
    1   AR   Ar  126   0.251   7.074   5.007
    1   AR   Ar  127   3.315   4.685   7.271
    1   AR   Ar  128   2.358   4.757   6.617
    1   AR   Ar  129   1.648   0.292   2.472
    1   AR   Ar  130   3.609   1.674  -2.932
    1   AR   Ar  131   4.715   0.047   0.933
    1   AR   Ar  132   2.171   1.971  -1.119
    1   AR   Ar  133   4.045   0.238   3.434
    1   AR   Ar  134   4.208   1.313   3.322
    1   AR   Ar  135   5.149   1.024   2.675
    1   AR   Ar  136   4.799   0.193   1.928
    1   AR   Ar  137   2.821   6.202   3.973
    1   AR   Ar  138   4.729   1.346   4.922
    1   AR   Ar  139   5.316   2.006   5.422
    1   AR   Ar  140   4.265   0.606   4.346
    1   AR   Ar  141   4.074   6.458   4.030
    1   AR   Ar  142   4.035   7.023   5.281
    1   AR   Ar  143   5.820   6.999   5.595
    1   AR   Ar  144   4.891   0.664   5.705
    1   AR   Ar  145   3.527   3.860   0.499
    1   AR   Ar  146   4.397   2.244   1.575
    1   AR   Ar  147   5.858   1.873  -1.177
    1   AR   Ar  148   4.682   3.679  -2.402
    1   AR   Ar  149   3.198   2.006   1.092
    1   AR   Ar  150   2.173   1.912   2.944
    1   AR   Ar  151   3.203   2.045   3.411
    1   AR   Ar  152   2.865   2.818   0.340
    1   AR   Ar  153   3.384   1.176   4.177
    1   AR   Ar  154   4.209   1.867   4.262
    1   AR   Ar  155   5.896   0.985   5.920
    1   AR   Ar  156   3.244   4.131   4.353
    1   AR   Ar  157   2.582   2.990   5.480
    1   AR   Ar  158   1.086   3.179   6.682
    1   AR   Ar  159   3.408   2.310   5.639
    1   AR   Ar  160   2.405   2.213   6.314
    1   AR   Ar  161   5.336   2.503   1.454
    1   AR   Ar  162   4.539   5.069  -0.228
    1   AR   Ar  163   5.087   2.705   0.377
    1   AR   Ar  164   4.097   5.294   1.557
    1   AR   Ar  165   3.512   3.068   1.356
    1   AR   Ar  166   3.136   4.786   3.656
    1   AR   Ar  167   4.506   2.044   2.753
    1   AR   Ar  168   4.573   3.244  -0.603
    1   AR   Ar  169   2.563   2.961   2.414
    1   AR   Ar  170   3.272   3.828   5.355
    1   AR   Ar  171   4.251   3.964   4.442
    1   AR   Ar  172   4.559   5.597   4.438
    1   AR   Ar  173   2.214   3.397   6.503
    1   AR   Ar  174   3.709   4.876   6.286
    1   AR   Ar  175   4.112   3.120   5.993
    1   AR   Ar  176   3.586   5.159   4.850
    1   AR   Ar  177   6.307   5.812  -0.181
    1   AR   Ar  178   2.571   5.943   0.555
    1   AR   Ar  179   4.581   5.883   0.503
    1   AR   Ar  180   2.459   3.639  -1.753
    1   AR   Ar  181   1.459   5.658   0.877
    1   AR   Ar  182   2.730   6.932   2.930
    1   AR   Ar  183   3.691   4.919   2.598
    1   AR   Ar  184   4.072   6.457   1.259
    1   AR   Ar  185   2.111   5.245   3.942
    1   AR   Ar  186   3.843   5.596   3.305
    1   AR   Ar  187   4.081   6.729   2.459
    1   AR   Ar  188   3.028   6.206   1.437
    1   AR   Ar  189   3.184   4.027   6.481
    1   AR   Ar  190   5.068   6.244   5.986
    1   AR   Ar  191   4.733   5.164   5.336
    1   AR   Ar  192   3.922   5.925   5.558
    1   AR   Ar  193   0.626   5.961  -0.734
    1   AR   Ar  194   5.606   4.393  -1.271
    1   AR   Ar  195   6.685   0.460   0.202
    1   AR   Ar  196   4.753   6.683  -0.213
    1   AR   Ar  197   5.223   1.751   0.272
    1   AR   Ar  198   6.792   1.106   1.091
    1   AR   Ar  199   5.702   1.578   1.550
    1   AR   Ar  200   6.224   2.507   0.121
    1   AR   Ar  201   5.000   6.865   3.035
    1   AR   Ar  202   5.064   2.472   4.318
    1   AR   Ar  203   6.481   6.669   4.589
    1   AR   Ar  204   5.150   0.465   3.782
    1   AR   Ar  205   5.952   0.693   3.229
    1   AR   Ar  206   5.035   7.057   4.805
    1   AR   Ar  207   6.777   0.437   5.980
    1   AR   Ar  208   6.846   0.410   3.934
    1   AR   Ar  209   5.526   2.385  -2.060
    1   AR   Ar  210   4.076   0.956   1.245
    1   AR   Ar  211   7.111   3.155   0.281
    1   AR   Ar  212   6.286   3.826  -1.849
    1   AR   Ar  213   3.458   1.725   2.092
    1   AR   Ar  214   3.719   3.068   2.623
    1   AR   Ar  215   6.340   2.391   1.359
    1   AR   Ar  216   7.074   4.374   1.142
    1   AR   Ar  217   4.428   2.876   3.369
    1   AR   Ar  218   4.369   2.405   5.177
    1   AR   Ar  219   5.449   1.934   3.514
    1   AR   Ar  220   5.477   2.806   2.608
    1   AR   Ar  221   6.083   0.459   4.688
    1   AR   Ar  222   4.249   1.530   5.806
    1   AR   Ar  223   0.501   0.498   6.691
    1   AR   Ar  224   5.510   3.106   5.892
    1   AR   Ar  225   5.759   5.263   0.838
    1   AR   Ar  226   5.014   3.821   2.306
    1   AR   Ar  227   0.157   5.152   0.433
    1   AR   Ar  228   5.117   5.812   1.417
    1   AR   Ar  229   5.928   4.434  -0.218
    1   AR   Ar  230   4.440   4.661   3.503
    1   AR   Ar  231   6.487   1.787   2.843
    1   AR   Ar  232   3.928   2.881   0.366
    1   AR   Ar  233   6.208   2.719   4.582
    1   AR   Ar  234   7.059   3.100   5.005
    1   AR   Ar  235   7.098   2.338   4.066
    1   AR   Ar  236   5.153   4.730   4.435
    1   AR   Ar  237   5.400   3.894   5.005
    1   AR   Ar  238   4.278   4.244   5.542
    1   AR   Ar  239   0.022   4.070   8.946
    1   AR   Ar  240   6.495   3.530   5.861
    1   AR   Ar  241   0.530   6.752   0.158
    1   AR   Ar  242   4.879   4.757   1.006
    1   AR   Ar  243   5.995   4.123   2.722
    1   AR   Ar  244   0.645   5.043  -1.058
    1   AR   Ar  245   5.855   0.067   1.250
    1   AR   Ar  246   6.099   5.777   1.648
    1   AR   Ar  247   4.904   3.537   1.238
    1   AR   Ar  248   5.605   6.404   0.445
    1   AR   Ar  249   4.620   5.763   2.528
    1   AR   Ar  250   5.443   6.091   4.665
    1   AR   Ar  251   5.950   5.356   4.016
    1   AR   Ar  252   5.008   5.874   3.467
    1   AR   Ar  253   5.413   4.298   6.163
    1   AR   Ar  254   4.637   5.389   6.849
    1   AR   Ar  255   4.942   3.046   7.473
    1   AR   Ar  256   5.650   6.692   3.769
    7.12000  7.12000 12.00000
Argon-slab step 2240
  256
    1   AR   Ar    1   6.826   1.809  -0.561
    1   AR   Ar    2   6.794   6.938   0.938
    1   AR   Ar    3   0.833   7.098   1.151
    1   AR   Ar    4   1.729   0.322   0.078
    1   AR   Ar    5   6.663   5.903   0.791
    1   AR   Ar    6   7.002   0.671   2.688
    1   AR   Ar    7   6.772   4.766   3.342
    1   AR   Ar    8   6.526   6.789   2.115
    1   AR   Ar    9   0.817   0.464   3.916
    1   AR   Ar   10   1.063   1.560   4.443
    1   AR   Ar   11   3.084   0.097   4.916
    1   AR   Ar   12   1.284   1.245   3.202
    1   AR   Ar   13   6.825   1.127   5.219
    1   AR   Ar   14   1.280   1.448   6.997
    1   AR   Ar   15   6.529   0.336   9.123
    1   AR   Ar   16   0.740   0.984   5.326
    1   AR   Ar   17   1.190   1.672  -0.370
    1   AR   Ar   18   6.009   2.993  -0.792
    1   AR   Ar   19   1.165   2.653   1.241
    1   AR   Ar   20   5.857   3.929  -2.958
    1   AR   Ar   21   6.130   0.648   2.033
    1   AR   Ar   22   7.020   1.512   2.001
    1   AR   Ar   23   0.768   1.023   0.409
    1   AR   Ar   24   0.000   2.270   0.863
    1   AR   Ar   25   0.094   1.298   3.562
    1   AR   Ar   26   6.141   1.401   4.038
    1   AR   Ar   27   2.447   1.239   3.815
    1   AR   Ar   28   1.075   2.670   4.724
    1   AR   Ar   29   5.129   1.656   6.388
    1   AR   Ar   30   0.913   1.947   6.089
    1   AR   Ar   31   0.573   6.616   7.323
    1   AR   Ar   32   1.632   2.613   5.894
    1   AR   Ar   33   1.685   3.974  -0.433
    1   AR   Ar   34   0.364   5.745   2.840
    1   AR   Ar   35   6.725   5.075   1.938
    1   AR   Ar   36   0.017   7.100  -2.882
    1   AR   Ar   37   6.481   3.336   2.192
    1   AR   Ar   38   7.005   4.193   2.491
    1   AR   Ar   39   1.263   3.673   2.878
    1   AR   Ar   40   1.283   4.003   1.459
    1   AR   Ar   41   0.581   2.298   2.519
    1   AR   Ar   42   7.017   5.366   4.905
    1   AR   Ar   43   6.955   2.369   5.863
    1   AR   Ar   44   0.575   4.144   3.536
    1   AR   Ar   45   0.617   3.171   5.721
    1   AR   Ar   46   1.154   6.121   6.588
    1   AR   Ar   47   6.026   3.132   6.754
    1   AR   Ar   48   6.764   6.271   6.149
    1   AR   Ar   49   6.438   6.906  -2.108
    1   AR   Ar   50   5.730   4.853   2.012
    1   AR   Ar   51   0.812   4.989   1.562
    1   AR   Ar   52   6.654   5.066  -1.386
    1   AR   Ar   53   5.775   5.978   2.661
    1   AR   Ar   54   6.583   6.794   3.134
    1   AR   Ar   55   5.467   4.647   3.422
    1   AR   Ar   56   0.526   6.686   2.042
    1   AR   Ar   57   6.766   3.452   3.288
    1   AR   Ar   58   6.912   5.724   3.931
    1   AR   Ar   59   1.837   5.301   5.478
    1   AR   Ar   60   0.646   6.294   4.068
    1   AR   Ar   61   6.071   5.563   5.406
    1   AR   Ar   62   0.755   5.646   5.362
    1   AR   Ar   63   2.078   6.460   6.832
    1   AR   Ar   64   0.920   6.831   5.909
    1   AR   Ar   65   3.749   0.084   0.292
    1   AR   Ar   66   1.591   1.069   1.039
    1   AR   Ar   67   3.573   6.425  -0.511
    1   AR   Ar   68   3.194   1.472  -1.395
    1   AR   Ar   69   2.828   1.052   1.073
    1   AR   Ar   70   0.684   0.988   2.219
    1   AR   Ar   71   3.171   0.987   3.142
    1   AR   Ar   72   3.282   0.422   1.830
    1   AR   Ar   73   2.988   0.179   3.829
    1   AR   Ar   74   2.458   1.074   4.997
    1   AR   Ar   75   3.452   0.985   5.284
    1   AR   Ar   76   2.175   1.235   2.040
    1   AR   Ar   77   2.498   6.547   5.632
    1   AR   Ar   78   1.864   0.332   6.627
    1   AR   Ar   79   3.141   6.061   7.039
    1   AR   Ar   80   2.933   5.533   5.949
    1   AR   Ar   81   2.715   1.747  -0.146
    1   AR   Ar   82   7.074   4.090  -0.382
    1   AR   Ar   83   1.646   2.367   0.348
    1   AR   Ar   84   0.953   3.865  -1.149
    1   AR   Ar   85   0.696   2.587  -0.391
    1   AR   Ar   86   2.087   3.254   1.342
    1   AR   Ar   87   2.392   2.360   1.497
    1   AR   Ar   88   3.814   4.128   1.789
    1   AR   Ar   89   0.629   3.389   2.159
    1   AR   Ar   90   2.744   2.093   4.863
    1   AR   Ar   91   1.449   2.143   3.579
    1   AR   Ar   92   1.471   1.977   2.062
    1   AR   Ar   93   2.029   1.328   5.913
    1   AR   Ar   94   1.037   0.998   9.503
    1   AR   Ar   95   3.938   6.837   6.424
    1   AR   Ar   96   2.941   0.459   5.998
    1   AR   Ar   97   3.885   2.563  -1.289
    1   AR   Ar   98   2.993   4.985   1.463
    1   AR   Ar   99   0.078   2.523  -1.229
    1   AR   Ar  100   1.795   2.822  -0.545
    1   AR   Ar  101   2.456   4.139   0.831
    1   AR   Ar  102   3.168   3.188   3.612
    1   AR   Ar  103   1.132   4.651   0.552
    1   AR   Ar  104   2.973   2.909  -0.962
    1   AR   Ar  105   2.204   3.173   3.335
    1   AR   Ar  106   2.359   3.540   4.515
    1   AR   Ar  107   2.105   3.881   5.619
    1   AR   Ar  108   3.546   2.818   4.489
    1   AR   Ar  109   1.469   4.064   4.178
    1   AR   Ar  110   1.236   4.705   6.295
    1   AR   Ar  111   4.332   4.050   6.879
    1   AR   Ar  112   1.193   5.431   7.407
    1   AR   Ar  113   2.578   4.830  -0.365
    1   AR   Ar  114   2.748   4.582  -1.351
    1   AR   Ar  115   2.712   3.701  -0.290
    1   AR   Ar  116   5.148   5.498  -1.059
    1   AR   Ar  117   0.823   5.195   3.613
    1   AR   Ar  118   0.563   6.894   3.172
    1   AR   Ar  119   2.231   3.979   2.282
    1   AR   Ar  120   0.989   4.719   2.626
    1   AR   Ar  121   6.721   4.012   4.759
    1   AR   Ar  122   3.127   6.097   4.987
    1   AR   Ar  123   2.461   4.820   4.817
    1   AR   Ar  124   2.085   5.183   1.907
    1   AR   Ar  125   0.534   4.143   5.451
    1   AR   Ar  126   0.208   7.053   5.001
    1   AR   Ar  127   3.285   4.683   7.252
    1   AR   Ar  128   2.339   4.764   6.619
    1   AR   Ar  129   1.643   0.288   2.480
    1   AR   Ar  130   3.611   1.693  -2.886
    1   AR   Ar  131   4.727   0.077   0.931
    1   AR   Ar  132   2.208   1.965  -1.137
    1   AR   Ar  133   4.028   0.244   3.394
    1   AR   Ar  134   4.234   1.299   3.323
    1   AR   Ar  135   5.169   1.044   2.669
    1   AR   Ar  136   4.801   0.197   1.945
    1   AR   Ar  137   2.789   6.205   3.979
    1   AR   Ar  138   4.753   1.347   4.915
    1   AR   Ar  139   5.340   2.010   5.465
    1   AR   Ar  140   4.253   0.608   4.340
    1   AR   Ar  141   4.058   6.473   3.996
    1   AR   Ar  142   4.050   7.016   5.277
    1   AR   Ar  143   5.827   7.013   5.600
    1   AR   Ar  144   4.910   0.695   5.676
    1   AR   Ar  145   3.489   3.849   0.487
    1   AR   Ar  146   4.367   2.232   1.583
    1   AR   Ar  147   5.844   1.861  -1.221
    1   AR   Ar  148   4.692   3.659  -2.382
    1   AR   Ar  149   3.211   1.989   1.085
    1   AR   Ar  150   2.197   1.883   2.927
    1   AR   Ar  151   3.207   2.034   3.414
    1   AR   Ar  152   2.859   2.836   0.334
    1   AR   Ar  153   3.357   1.176   4.162
    1   AR   Ar  154   4.200   1.872   4.243
    1   AR   Ar  155   5.909   0.987   5.925
    1   AR   Ar  156   3.237   4.134   4.375
    1   AR   Ar  157   2.584   3.001   5.482
    1   AR   Ar  158   1.080   3.220   6.677
    1   AR   Ar  159   3.419   2.366   5.649
    1   AR   Ar  160   2.400   2.164   6.289
    1   AR   Ar  161   5.357   2.538   1.458
    1   AR   Ar  162   4.533   5.072  -0.247
    1   AR   Ar  163   5.100   2.709   0.420
    1   AR   Ar  164   4.079   5.270   1.541
    1   AR   Ar  165   3.540   3.060   1.359
    1   AR   Ar  166   3.123   4.746   3.629
    1   AR   Ar  167   4.484   2.040   2.760
    1   AR   Ar  168   4.562   3.233  -0.602
    1   AR   Ar  169   2.581   2.976   2.417
    1   AR   Ar  170   3.250   3.847   5.370
    1   AR   Ar  171   4.292   3.957   4.439
    1   AR   Ar  172   4.547   5.588   4.439
    1   AR   Ar  173   2.194   3.388   6.529
    1   AR   Ar  174   3.745   4.865   6.249
    1   AR   Ar  175   4.098   3.130   5.959
    1   AR   Ar  176   3.595   5.153   4.860
    1   AR   Ar  177   6.300   5.807  -0.209
    1   AR   Ar  178   2.580   5.925   0.568
    1   AR   Ar  179   4.595   5.898   0.532
    1   AR   Ar  180   2.423   3.624  -1.741
    1   AR   Ar  181   1.479   5.682   0.877
    1   AR   Ar  182   2.718   6.948   2.958
    1   AR   Ar  183   3.682   4.933   2.619
    1   AR   Ar  184   4.083   6.456   1.253
    1   AR   Ar  185   2.090   5.264   3.937
    1   AR   Ar  186   3.851   5.576   3.334
    1   AR   Ar  187   4.104   6.741   2.442
    1   AR   Ar  188   3.031   6.227   1.418
    1   AR   Ar  189   3.203   4.028   6.477
    1   AR   Ar  190   5.088   6.218   5.982
    1   AR   Ar  191   4.726   5.162   5.326
    1   AR   Ar  192   3.888   5.898   5.556
    1   AR   Ar  193   0.668   5.987  -0.756
    1   AR   Ar  194   5.571   4.366  -1.293
    1   AR   Ar  195   6.695   0.466   0.207
    1   AR   Ar  196   4.768   6.657  -0.208
    1   AR   Ar  197   5.219   1.725   0.250
    1   AR   Ar  198   6.794   1.099   1.057
    1   AR   Ar  199   5.728   1.596   1.547
    1   AR   Ar  200   6.224   2.521   0.125
    1   AR   Ar  201   4.967   6.865   3.033
    1   AR   Ar  202   5.039   2.446   4.298
    1   AR   Ar  203   6.519   6.673   4.585
    1   AR   Ar  204   5.131   0.477   3.767
    1   AR   Ar  205   5.941   0.672   3.215
    1   AR   Ar  206   5.056   7.048   4.827
    1   AR   Ar  207   6.784   0.442   5.985
    1   AR   Ar  208   6.820   0.409   3.936
    1   AR   Ar  209   5.543   2.396  -2.050
    1   AR   Ar  210   4.066   0.925   1.232
    1   AR   Ar  211   0.020   3.156   0.264
    1   AR   Ar  212   6.295   3.836  -1.833
    1   AR   Ar  213   3.451   1.699   2.092
    1   AR   Ar  214   3.740   3.050   2.623
    1   AR   Ar  215   6.341   2.398   1.361
    1   AR   Ar  216   7.078   4.365   1.134
    1   AR   Ar  217   4.400   2.882   3.438
    1   AR   Ar  218   4.362   2.434   5.172
    1   AR   Ar  219   5.449   1.963   3.519
    1   AR   Ar  220   5.453   2.795   2.613
    1   AR   Ar  221   6.054   0.461   4.661
    1   AR   Ar  222   4.234   1.506   5.794
    1   AR   Ar  223   0.556   0.480   6.682
    1   AR   Ar  224   5.512   3.134   5.901
    1   AR   Ar  225   5.770   5.235   0.865
    1   AR   Ar  226   5.007   3.820   2.274
    1   AR   Ar  227   0.177   5.178   0.423
    1   AR   Ar  228   5.082   5.816   1.431
    1   AR   Ar  229   5.917   4.423  -0.215
    1   AR   Ar  230   4.464   4.644   3.505
    1   AR   Ar  231   6.467   1.774   2.878
    1   AR   Ar  232   3.916   2.882   0.375
    1   AR   Ar  233   6.237   2.716   4.564
    1   AR   Ar  234   7.052   3.091   5.015
    1   AR   Ar  235   7.108   2.346   4.071
    1   AR   Ar  236   5.179   4.720   4.380
    1   AR   Ar  237   5.387   3.903   5.002
    1   AR   Ar  238   4.289   4.230   5.551
    1   AR   Ar  239   0.038   4.057   8.947
    1   AR   Ar  240   6.464   3.509   5.884
    1   AR   Ar  241   0.547   6.745   0.131
    1   AR   Ar  242   4.833   4.754   1.031
    1   AR   Ar  243   6.023   4.084   2.693
    1   AR   Ar  244   0.633   5.045  -1.046
    1   AR   Ar  245   5.872   0.045   1.245
    1   AR   Ar  246   6.096   5.760   1.651
    1   AR   Ar  247   4.864   3.542   1.264
    1   AR   Ar  248   5.582   6.420   0.475
    1   AR   Ar  249   4.629   5.739   2.517
    1   AR   Ar  250   5.409   6.078   4.637
    1   AR   Ar  251   5.961   5.377   4.028
    1   AR   Ar  252   5.015   5.881   3.472
    1   AR   Ar  253   5.411   4.281   6.172
    1   AR   Ar  254   4.616   5.412   6.867
    1   AR   Ar  255   4.949   3.037   7.443
    1   AR   Ar  256   5.678   6.678   3.754
    7.12000  7.12000 12.00000
Argon-slab step 2245
  256
    1   AR   Ar    1   6.824   1.768  -0.554
    1   AR   Ar    2   6.795   6.935   0.935
    1   AR   Ar    3   0.817   7.088   1.161
    1   AR   Ar    4   1.704   0.322   0.071
    1   AR   Ar    5   6.667   5.929   0.795
    1   AR   Ar    6   7.014   0.643   2.696
    1   AR   Ar    7   6.780   4.789   3.356
    1   AR   Ar    8   6.533   6.791   2.109
    1   AR   Ar    9   0.837   0.445   3.925
    1   AR   Ar   10   1.047   1.551   4.433
    1   AR   Ar   11   3.078   0.102   4.927
    1   AR   Ar   12   1.297   1.246   3.229
    1   AR   Ar   13   6.861   1.102   5.192
    1   AR   Ar   14   1.258   1.465   7.048
    1   AR   Ar   15   6.523   0.324   9.135
    1   AR   Ar   16   0.774   0.996   5.335
    1   AR   Ar   17   1.188   1.689  -0.380
    1   AR   Ar   18   6.024   2.971  -0.800
    1   AR   Ar   19   1.174   2.663   1.263
    1   AR   Ar   20   5.869   3.920  -2.971
    1   AR   Ar   21   6.138   0.647   2.029
    1   AR   Ar   22   7.006   1.521   1.997
    1   AR   Ar   23   0.800   1.018   0.405
    1   AR   Ar   24   7.118   2.272   0.840
    1   AR   Ar   25   0.099   1.305   3.586
    1   AR   Ar   26   6.117   1.404   4.047
    1   AR   Ar   27   2.440   1.248   3.823
    1   AR   Ar   28   1.077   2.661   4.713
    1   AR   Ar   29   5.154   1.677   6.414
    1   AR   Ar   30   0.904   1.932   6.083
    1   AR   Ar   31   0.571   6.599   7.339
    1   AR   Ar   32   1.605   2.583   5.885
    1   AR   Ar   33   1.703   3.980  -0.440
    1   AR   Ar   34   0.356   5.720   2.853
    1   AR   Ar   35   6.723   5.058   1.949
    1   AR   Ar   36   0.024   7.102  -2.872
    1   AR   Ar   37   6.471   3.362   2.200
    1   AR   Ar   38   6.968   4.204   2.470
    1   AR   Ar   39   1.267   3.635   2.883
    1   AR   Ar   40   1.304   3.988   1.440
    1   AR   Ar   41   0.593   2.309   2.534
    1   AR   Ar   42   7.021   5.347   4.907
    1   AR   Ar   43   6.931   2.398   5.891
    1   AR   Ar   44   0.590   4.145   3.531
    1   AR   Ar   45   0.621   3.132   5.724
    1   AR   Ar   46   1.148   6.112   6.587
    1   AR   Ar   47   6.043   3.134   6.772
    1   AR   Ar   48   6.785   6.288   6.157
    1   AR   Ar   49   6.430   6.935  -2.115
    1   AR   Ar   50   5.738   4.860   2.007
    1   AR   Ar   51   0.831   4.988   1.574
    1   AR   Ar   52   6.698   5.079  -1.391
    1   AR   Ar   53   5.757   5.973   2.631
    1   AR   Ar   54   6.586   6.769   3.158
    1   AR   Ar   55   5.465   4.660   3.425
    1   AR   Ar   56   0.501   6.708   2.064
    1   AR   Ar   57   6.744   3.430   3.271
    1   AR   Ar   58   6.892   5.685   3.930
    1   AR   Ar   59   1.853   5.273   5.482
    1   AR   Ar   60   0.643   6.310   4.064
    1   AR   Ar   61   6.069   5.545   5.420
    1   AR   Ar   62   0.748   5.645   5.372
    1   AR   Ar   63   2.061   6.452   6.838
    1   AR   Ar   64   0.920   6.851   5.906
    1   AR   Ar   65   3.753   0.079   0.339
    1   AR   Ar   66   1.635   1.089   1.054
    1   AR   Ar   67   3.601   6.426  -0.498
    1   AR   Ar   68   3.178   1.467  -1.438
    1   AR   Ar   69   2.819   1.034   1.099
    1   AR   Ar   70   0.707   0.972   2.237
    1   AR   Ar   71   3.175   1.019   3.138
    1   AR   Ar   72   3.291   0.405   1.846
    1   AR   Ar   73   2.995   0.176   3.829
    1   AR   Ar   74   2.468   1.072   4.994
    1   AR   Ar   75   3.461   1.000   5.286
    1   AR   Ar   76   2.174   1.220   2.061
    1   AR   Ar   77   2.507   6.564   5.614
    1   AR   Ar   78   1.871   0.337   6.648
    1   AR   Ar   79   3.165   6.035   7.017
    1   AR   Ar   80   2.943   5.543   5.974
    1   AR   Ar   81   2.687   1.770  -0.156
    1   AR   Ar   82   7.079   4.103  -0.363
    1   AR   Ar   83   1.636   2.358   0.355
    1   AR   Ar   84   0.943   3.817  -1.145
    1   AR   Ar   85   0.727   2.601  -0.354
    1   AR   Ar   86   2.075   3.256   1.337
    1   AR   Ar   87   2.407   2.359   1.473
    1   AR   Ar   88   3.834   4.117   1.772
    1   AR   Ar   89   0.634   3.385   2.142
    1   AR   Ar   90   2.731   2.061   4.881
    1   AR   Ar   91   1.457   2.145   3.594
    1   AR   Ar   92   1.482   1.956   2.075
    1   AR   Ar   93   2.010   1.320   5.947
    1   AR   Ar   94   1.085   0.984   9.518
    1   AR   Ar   95   3.969   6.889   6.406
    1   AR   Ar   96   2.928   0.429   5.976
    1   AR   Ar   97   3.911   2.575  -1.267
    1   AR   Ar   98   2.990   4.988   1.485
    1   AR   Ar   99   0.090   2.526  -1.236
    1   AR   Ar  100   1.811   2.782  -0.548
    1   AR   Ar  101   2.488   4.153   0.826
    1   AR   Ar  102   3.162   3.217   3.600
    1   AR   Ar  103   1.125   4.665   0.561
    1   AR   Ar  104   2.982   2.942  -0.959
    1   AR   Ar  105   2.232   3.189   3.384
    1   AR   Ar  106   2.337   3.554   4.483
    1   AR   Ar  107   2.109   3.900   5.626
    1   AR   Ar  108   3.557   2.866   4.468
    1   AR   Ar  109   1.490   4.054   4.200
    1   AR   Ar  110   1.243   4.702   6.304
    1   AR   Ar  111   4.304   4.067   6.902
    1   AR   Ar  112   1.214   5.424   7.394
    1   AR   Ar  113   2.576   4.833  -0.349
    1   AR   Ar  114   2.756   4.575  -1.338
    1   AR   Ar  115   2.727   3.720  -0.268
    1   AR   Ar  116   5.185   5.486  -1.078
    1   AR   Ar  117   0.819   5.189   3.628
    1   AR   Ar  118   0.580   6.886   3.160
    1   AR   Ar  119   2.231   3.973   2.270
    1   AR   Ar  120   0.960   4.708   2.642
    1   AR   Ar  121   6.710   4.058   4.826
    1   AR   Ar  122   3.141   6.077   4.975
    1   AR   Ar  123   2.462   4.837   4.832
    1   AR   Ar  124   2.085   5.165   1.894
    1   AR   Ar  125   0.534   4.173   5.453
    1   AR   Ar  126   0.175   7.038   5.002
    1   AR   Ar  127   3.256   4.686   7.236
    1   AR   Ar  128   2.320   4.771   6.620
    1   AR   Ar  129   1.637   0.285   2.488
    1   AR   Ar  130   3.612   1.712  -2.839
    1   AR   Ar  131   4.750   0.115   0.915
    1   AR   Ar  132   2.224   1.972  -1.162
    1   AR   Ar  133   4.010   0.248   3.350
    1   AR   Ar  134   4.256   1.272   3.334
    1   AR   Ar  135   5.183   1.067   2.660
    1   AR   Ar  136   4.807   0.204   1.965
    1   AR   Ar  137   2.759   6.208   3.983
    1   AR   Ar  138   4.784   1.348   4.894
    1   AR   Ar  139   5.368   2.018   5.503
    1   AR   Ar  140   4.240   0.609   4.340
    1   AR   Ar  141   4.042   6.488   3.963
    1   AR   Ar  142   4.045   7.006   5.266
    1   AR   Ar  143   5.835   7.027   5.605
    1   AR   Ar  144   4.922   0.717   5.676
    1   AR   Ar  145   3.496   3.844   0.468
    1   AR   Ar  146   4.331   2.219   1.592
    1   AR   Ar  147   5.828   1.841  -1.268
    1   AR   Ar  148   4.704   3.638  -2.361
    1   AR   Ar  149   3.236   1.976   1.071
    1   AR   Ar  150   2.226   1.853   2.905
    1   AR   Ar  151   3.214   2.026   3.419
    1   AR   Ar  152   2.850   2.852   0.329
    1   AR   Ar  153   3.343   1.177   4.155
    1   AR   Ar  154   4.180   1.877   4.218
    1   AR   Ar  155   5.920   0.993   5.927
    1   AR   Ar  156   3.233   4.129   4.406
    1   AR   Ar  157   2.588   3.006   5.484
    1   AR   Ar  158   1.075   3.260   6.673
    1   AR   Ar  159   3.428   2.420   5.659
    1   AR   Ar  160   2.413   2.120   6.273
    1   AR   Ar  161   5.370   2.583   1.464
    1   AR   Ar  162   4.528   5.075  -0.264
    1   AR   Ar  163   5.111   2.723   0.464
    1   AR   Ar  164   4.059   5.250   1.528
    1   AR   Ar  165   3.560   3.052   1.355
    1   AR   Ar  166   3.109   4.716   3.592
    1   AR   Ar  167   4.467   2.048   2.755
    1   AR   Ar  168   4.552   3.221  -0.599
    1   AR   Ar  169   2.602   2.986   2.413
    1   AR   Ar  170   3.229   3.866   5.389
    1   AR   Ar  171   4.336   3.951   4.436
    1   AR   Ar  172   4.527   5.576   4.448
    1   AR   Ar  173   2.176   3.376   6.557
    1   AR   Ar  174   3.784   4.860   6.210
    1   AR   Ar  175   4.084   3.145   5.925
    1   AR   Ar  176   3.604   5.141   4.868
    1   AR   Ar  177   6.289   5.768  -0.203
    1   AR   Ar  178   2.586   5.904   0.574
    1   AR   Ar  179   4.606   5.912   0.554
    1   AR   Ar  180   2.387   3.608  -1.727
    1   AR   Ar  181   1.499   5.706   0.877
    1   AR   Ar  182   2.703   6.982   2.955
    1   AR   Ar  183   3.670   4.933   2.643
    1   AR   Ar  184   4.091   6.454   1.253
    1   AR   Ar  185   2.069   5.284   3.930
    1   AR   Ar  186   3.863   5.566   3.375
    1   AR   Ar  187   4.121   6.750   2.424
    1   AR   Ar  188   3.038   6.249   1.406
    1   AR   Ar  189   3.208   4.013   6.463
    1   AR   Ar  190   5.108   6.190   5.975
    1   AR   Ar  191   4.724   5.158   5.331
    1   AR   Ar  192   3.870   5.870   5.565
    1   AR   Ar  193   0.709   6.025  -0.774
    1   AR   Ar  194   5.533   4.343  -1.312
    1   AR   Ar  195   6.704   0.480   0.201
    1   AR   Ar  196   4.781   6.632  -0.205
    1   AR   Ar  197   5.217   1.690   0.228
    1   AR   Ar  198   6.795   1.093   1.024
    1   AR   Ar  199   5.753   1.602   1.546
    1   AR   Ar  200   6.223   2.533   0.133
    1   AR   Ar  201   4.933   6.865   3.026
    1   AR   Ar  202   5.016   2.426   4.287
    1   AR   Ar  203   6.548   6.664   4.574
    1   AR   Ar  204   5.106   0.492   3.759
    1   AR   Ar  205   5.945   0.651   3.199
    1   AR   Ar  206   5.075   7.041   4.848
    1   AR   Ar  207   6.795   0.440   5.993
    1   AR   Ar  208   6.794   0.404   3.937
    1   AR   Ar  209   5.559   2.410  -2.044
    1   AR   Ar  210   4.055   0.905   1.231
    1   AR   Ar  211   0.048   3.159   0.245
    1   AR   Ar  212   6.268   3.855  -1.816
    1   AR   Ar  213   3.449   1.692   2.098
    1   AR   Ar  214   3.759   3.031   2.620
    1   AR   Ar  215   6.331   2.413   1.376
    1   AR   Ar  216   7.082   4.357   1.126
    1   AR   Ar  217   4.372   2.888   3.512
    1   AR   Ar  218   4.357   2.463   5.165
    1   AR   Ar  219   5.449   1.989   3.514
    1   AR   Ar  220   5.429   2.784   2.618
    1   AR   Ar  221   6.019   0.468   4.637
    1   AR   Ar  222   4.216   1.487   5.785
    1   AR   Ar  223   0.573   0.455   6.692
    1   AR   Ar  224   5.502   3.160   5.900
    1   AR   Ar  225   5.781   5.203   0.883
    1   AR   Ar  226   5.000   3.819   2.244
    1   AR   Ar  227   0.200   5.202   0.410
    1   AR   Ar  228   5.044   5.822   1.451
    1   AR   Ar  229   5.908   4.413  -0.213
    1   AR   Ar  230   4.479   4.629   3.508
    1   AR   Ar  231   6.461   1.781   2.865
    1   AR   Ar  232   3.910   2.880   0.383
    1   AR   Ar  233   6.255   2.710   4.543
    1   AR   Ar  234   7.047   3.077   5.022
    1   AR   Ar  235   7.120   2.352   4.075
    1   AR   Ar  236   5.201   4.711   4.333
    1   AR   Ar  237   5.373   3.909   5.002
    1   AR   Ar  238   4.299   4.212   5.560
    1   AR   Ar  239   0.054   4.044   8.949
    1   AR   Ar  240   6.441   3.492   5.902
    1   AR   Ar  241   0.564   6.738   0.105
    1   AR   Ar  242   4.788   4.748   1.056
    1   AR   Ar  243   6.041   4.050   2.671
    1   AR   Ar  244   0.620   5.034  -1.037
    1   AR   Ar  245   5.889   0.051   1.230
    1   AR   Ar  246   6.091   5.763   1.659
    1   AR   Ar  247   4.822   3.546   1.286
    1   AR   Ar  248   5.561   6.434   0.507
    1   AR   Ar  249   4.637   5.715   2.502
    1   AR   Ar  250   5.382   6.066   4.611
    1   AR   Ar  251   5.968   5.397   4.039
    1   AR   Ar  252   5.030   5.897   3.456
    1   AR   Ar  253   5.407   4.263   6.180
    1   AR   Ar  254   4.593   5.434   6.884
    1   AR   Ar  255   4.956   3.029   7.411
    1   AR   Ar  256   5.713   6.662   3.744
    7.12000  7.12000 12.00000
Argon-slab step 2250
  256
    1   AR   Ar    1   6.821   1.727  -0.544
    1   AR   Ar    2   6.797   6.958   0.934
    1   AR   Ar    3   0.807   7.087   1.164
    1   AR   Ar    4   1.678   0.322   0.065
    1   AR   Ar    5   6.669   5.952   0.798
    1   AR   Ar    6   7.016   0.610   2.712
    1   AR   Ar    7   6.788   4.811   3.369
    1   AR   Ar    8   6.540   6.789   2.099
    1   AR   Ar    9   0.856   0.428   3.937
    1   AR   Ar   10   1.031   1.543   4.421
    1   AR   Ar   11   3.069   0.105   4.933
    1   AR   Ar   12   1.307   1.234   3.250
    1   AR   Ar   13   6.892   1.078   5.161
    1   AR   Ar   14   1.237   1.482   7.096
    1   AR   Ar   15   6.516   0.311   9.148
    1   AR   Ar   16   0.810   1.007   5.346
    1   AR   Ar   17   1.189   1.700  -0.392
    1   AR   Ar   18   6.039   2.950  -0.812
    1   AR   Ar   19   1.180   2.674   1.288
    1   AR   Ar   20   5.867   3.899  -2.953
    1   AR   Ar   21   6.146   0.654   2.029
    1   AR   Ar   22   6.987   1.534   1.989
    1   AR   Ar   23   0.828   1.012   0.400
    1   AR   Ar   24   7.090   2.291   0.849
    1   AR   Ar   25   0.107   1.314   3.609
    1   AR   Ar   26   6.110   1.390   4.053
    1   AR   Ar   27   2.414   1.260   3.829
    1   AR   Ar   28   1.078   2.653   4.703
    1   AR   Ar   29   5.176   1.694   6.447
    1   AR   Ar   30   0.886   1.908   6.079
    1   AR   Ar   31   0.556   6.580   7.325
    1   AR   Ar   32   1.582   2.567   5.870
    1   AR   Ar   33   1.723   3.986  -0.444
    1   AR   Ar   34   0.346   5.697   2.864
    1   AR   Ar   35   6.737   5.040   1.960
    1   AR   Ar   36   0.015   7.099  -2.856
    1   AR   Ar   37   6.468   3.365   2.193
    1   AR   Ar   38   6.953   4.218   2.449
    1   AR   Ar   39   1.280   3.599   2.893
    1   AR   Ar   40   1.323   3.974   1.423
    1   AR   Ar   41   0.611   2.308   2.552
    1   AR   Ar   42   7.018   5.323   4.909
    1   AR   Ar   43   6.907   2.426   5.919
    1   AR   Ar   44   0.601   4.145   3.526
    1   AR   Ar   45   0.633   3.091   5.733
    1   AR   Ar   46   1.137   6.097   6.582
    1   AR   Ar   47   6.059   3.134   6.799
    1   AR   Ar   48   6.773   6.299   6.170
    1   AR   Ar   49   6.421   6.963  -2.120
    1   AR   Ar   50   5.735   4.863   2.003
    1   AR   Ar   51   0.850   4.987   1.586
    1   AR   Ar   52   6.740   5.090  -1.396
    1   AR   Ar   53   5.739   5.970   2.605
    1   AR   Ar   54   6.591   6.744   3.184
    1   AR   Ar   55   5.477   4.676   3.405
    1   AR   Ar   56   0.474   6.734   2.095
    1   AR   Ar   57   6.723   3.408   3.256
    1   AR   Ar   58   6.886   5.653   3.924
    1   AR   Ar   59   1.863   5.251   5.494
    1   AR   Ar   60   0.640   6.326   4.063
    1   AR   Ar   61   6.064   5.529   5.434
    1   AR   Ar   62   0.748   5.647   5.386
    1   AR   Ar   63   2.053   6.443   6.845
    1   AR   Ar   64   0.917   6.876   5.900
    1   AR   Ar   65   3.759   0.073   0.387
    1   AR   Ar   66   1.681   1.109   1.072
    1   AR   Ar   67   3.593   6.433  -0.493
    1   AR   Ar   68   3.164   1.463  -1.481
    1   AR   Ar   69   2.800   1.017   1.116
    1   AR   Ar   70   0.747   0.957   2.252
    1   AR   Ar   71   3.181   1.046   3.124
    1   AR   Ar   72   3.291   0.405   1.863
    1   AR   Ar   73   3.008   0.177   3.838
    1   AR   Ar   74   2.474   1.064   4.989
    1   AR   Ar   75   3.475   1.018   5.283
    1   AR   Ar   76   2.179   1.197   2.079
    1   AR   Ar   77   2.513   6.584   5.601
    1   AR   Ar   78   1.877   0.347   6.666
    1   AR   Ar   79   3.181   6.041   6.995
    1   AR   Ar   80   2.949   5.551   5.999
    1   AR   Ar   81   2.660   1.794  -0.166
    1   AR   Ar   82   7.083   4.117  -0.345
    1   AR   Ar   83   1.627   2.346   0.368
    1   AR   Ar   84   0.929   3.769  -1.142
    1   AR   Ar   85   0.758   2.618  -0.316
    1   AR   Ar   86   2.060   3.272   1.329
    1   AR   Ar   87   2.418   2.344   1.456
    1   AR   Ar   88   3.854   4.106   1.755
    1   AR   Ar   89   0.634   3.380   2.118
    1   AR   Ar   90   2.720   2.032   4.898
    1   AR   Ar   91   1.466   2.161   3.615
    1   AR   Ar   92   1.489   1.939   2.087
    1   AR   Ar   93   1.981   1.295   5.976
    1   AR   Ar   94   1.133   0.970   9.533
    1   AR   Ar   95   3.999   6.940   6.386
    1   AR   Ar   96   2.913   0.398   5.956
    1   AR   Ar   97   3.939   2.585  -1.246
    1   AR   Ar   98   2.996   4.990   1.506
    1   AR   Ar   99   0.100   2.530  -1.244
    1   AR   Ar  100   1.830   2.747  -0.557
    1   AR   Ar  101   2.520   4.168   0.821
    1   AR   Ar  102   3.174   3.249   3.586
    1   AR   Ar  103   1.151   4.653   0.564
    1   AR   Ar  104   2.987   2.974  -0.953
    1   AR   Ar  105   2.240   3.202   3.419
    1   AR   Ar  106   2.321   3.563   4.453
    1   AR   Ar  107   2.110   3.926   5.632
    1   AR   Ar  108   3.571   2.911   4.453
    1   AR   Ar  109   1.507   4.048   4.219
    1   AR   Ar  110   1.250   4.700   6.312
    1   AR   Ar  111   4.276   4.084   6.934
    1   AR   Ar  112   1.233   5.414   7.374
    1   AR   Ar  113   2.573   4.837  -0.327
    1   AR   Ar  114   2.765   4.566  -1.328
    1   AR   Ar  115   2.741   3.741  -0.247
    1   AR   Ar  116   5.223   5.473  -1.096
    1   AR   Ar  117   0.815   5.184   3.647
    1   AR   Ar  118   0.595   6.878   3.145
    1   AR   Ar  119   2.228   3.970   2.257
    1   AR   Ar  120   0.931   4.697   2.658
    1   AR   Ar  121   6.698   4.107   4.893
    1   AR   Ar  122   3.145   6.061   4.950
    1   AR   Ar  123   2.471   4.846   4.842
    1   AR   Ar  124   2.076   5.147   1.882
    1   AR   Ar  125   0.534   4.206   5.454
    1   AR   Ar  126   0.163   7.035   5.014
    1   AR   Ar  127   3.229   4.694   7.223
    1   AR   Ar  128   2.316   4.802   6.601
    1   AR   Ar  129   1.630   0.283   2.498
    1   AR   Ar  130   3.614   1.731  -2.791
    1   AR   Ar  131   4.775   0.151   0.895
    1   AR   Ar  132   2.207   1.997  -1.197
    1   AR   Ar  133   4.010   0.250   3.309
    1   AR   Ar  134   4.276   1.238   3.353
    1   AR   Ar  135   5.193   1.091   2.648
    1   AR   Ar  136   4.831   0.213   1.986
    1   AR   Ar  137   2.729   6.212   3.985
    1   AR   Ar  138   4.818   1.352   4.867
    1   AR   Ar  139   5.399   2.030   5.533
    1   AR   Ar  140   4.223   0.609   4.343
    1   AR   Ar  141   4.026   6.504   3.933
    1   AR   Ar  142   4.008   6.989   5.242
    1   AR   Ar  143   5.845   7.040   5.610
    1   AR   Ar  144   4.930   0.731   5.696
    1   AR   Ar  145   3.534   3.843   0.445
    1   AR   Ar  146   4.294   2.207   1.601
    1   AR   Ar  147   5.815   1.817  -1.306
    1   AR   Ar  148   4.717   3.618  -2.340
    1   AR   Ar  149   3.272   1.966   1.052
    1   AR   Ar  150   2.257   1.826   2.884
    1   AR   Ar  151   3.188   2.051   3.429
    1   AR   Ar  152   2.854   2.808   0.290
    1   AR   Ar  153   3.343   1.177   4.159
    1   AR   Ar  154   4.151   1.882   4.192
    1   AR   Ar  155   5.929   1.002   5.927
    1   AR   Ar  156   3.232   4.121   4.435
    1   AR   Ar  157   2.590   3.007   5.484
    1   AR   Ar  158   1.071   3.300   6.669
    1   AR   Ar  159   3.434   2.464   5.670
    1   AR   Ar  160   2.441   2.091   6.266
    1   AR   Ar  161   5.370   2.632   1.476
    1   AR   Ar  162   4.524   5.079  -0.279
    1   AR   Ar  163   5.119   2.740   0.505
    1   AR   Ar  164   4.033   5.235   1.519
    1   AR   Ar  165   3.592   3.066   1.332
    1   AR   Ar  166   3.117   4.699   3.578
    1   AR   Ar  167   4.453   2.066   2.744
    1   AR   Ar  168   4.541   3.209  -0.595
    1   AR   Ar  169   2.627   2.993   2.407
    1   AR   Ar  170   3.209   3.884   5.412
    1   AR   Ar  171   4.379   3.945   4.433
    1   AR   Ar  172   4.496   5.565   4.446
    1   AR   Ar  173   2.159   3.363   6.584
    1   AR   Ar  174   3.825   4.859   6.172
    1   AR   Ar  175   4.074   3.169   5.895
    1   AR   Ar  176   3.613   5.121   4.874
    1   AR   Ar  177   6.277   5.708  -0.175
    1   AR   Ar  178   2.588   5.879   0.574
    1   AR   Ar  179   4.602   5.936   0.554
    1   AR   Ar  180   2.350   3.590  -1.711
    1   AR   Ar  181   1.515   5.730   0.876
    1   AR   Ar  182   2.686   7.019   2.934
    1   AR   Ar  183   3.658   4.923   2.666
    1   AR   Ar  184   4.097   6.455   1.258
    1   AR   Ar  185   2.048   5.304   3.922
    1   AR   Ar  186   3.879   5.564   3.426
    1   AR   Ar  187   4.125   6.753   2.406
    1   AR   Ar  188   3.047   6.276   1.414
    1   AR   Ar  189   3.195   3.983   6.434
    1   AR   Ar  190   5.127   6.162   5.967
    1   AR   Ar  191   4.725   5.152   5.353
    1   AR   Ar  192   3.869   5.842   5.587
    1   AR   Ar  193   0.750   6.067  -0.789
    1   AR   Ar  194   5.491   4.323  -1.326
    1   AR   Ar  195   6.712   0.496   0.184
    1   AR   Ar  196   4.792   6.610  -0.202
    1   AR   Ar  197   5.216   1.655   0.206
    1   AR   Ar  198   6.795   1.089   0.995
    1   AR   Ar  199   5.776   1.599   1.547
    1   AR   Ar  200   6.224   2.542   0.145
    1   AR   Ar  201   4.904   6.866   3.018
    1   AR   Ar  202   4.997   2.415   4.286
    1   AR   Ar  203   6.555   6.640   4.551
    1   AR   Ar  204   5.091   0.481   3.772
    1   AR   Ar  205   5.960   0.627   3.183
    1   AR   Ar  206   5.092   7.039   4.866
    1   AR   Ar  207   6.811   0.431   6.003
    1   AR   Ar  208   6.771   0.398   3.936
    1   AR   Ar  209   5.572   2.431  -2.045
    1   AR   Ar  210   4.042   0.894   1.240
    1   AR   Ar  211   0.074   3.164   0.227
    1   AR   Ar  212   6.235   3.873  -1.802
    1   AR   Ar  213   3.456   1.715   2.115
    1   AR   Ar  214   3.777   3.011   2.615
    1   AR   Ar  215   6.323   2.434   1.401
    1   AR   Ar  216   7.087   4.348   1.120
    1   AR   Ar  217   4.344   2.893   3.588
    1   AR   Ar  218   4.355   2.489   5.155
    1   AR   Ar  219   5.449   2.012   3.495
    1   AR   Ar  220   5.405   2.772   2.623
    1   AR   Ar  221   6.001   0.478   4.613
    1   AR   Ar  222   4.210   1.480   5.785
    1   AR   Ar  223   0.581   0.429   6.708
    1   AR   Ar  224   5.478   3.183   5.893
    1   AR   Ar  225   5.791   5.167   0.893
    1   AR   Ar  226   4.995   3.822   2.221
    1   AR   Ar  227   0.224   5.225   0.396
    1   AR   Ar  228   5.007   5.828   1.478
    1   AR   Ar  229   5.906   4.406  -0.206
    1   AR   Ar  230   4.482   4.614   3.512
    1   AR   Ar  231   6.452   1.786   2.856
    1   AR   Ar  232   3.910   2.874   0.387
    1   AR   Ar  233   6.266   2.704   4.521
    1   AR   Ar  234   7.057   3.068   5.023
    1   AR   Ar  235   0.015   2.357   4.078
    1   AR   Ar  236   5.214   4.706   4.308
    1   AR   Ar  237   5.360   3.912   5.006
    1   AR   Ar  238   4.310   4.190   5.567
    1   AR   Ar  239   0.070   4.031   8.950
    1   AR   Ar  240   6.431   3.479   5.913
    1   AR   Ar  241   0.580   6.731   0.079
    1   AR   Ar  242   4.749   4.738   1.077
    1   AR   Ar  243   5.975   4.047   2.711
    1   AR   Ar  244   0.608   5.016  -1.028
    1   AR   Ar  245   5.900   0.078   1.210
    1   AR   Ar  246   6.084   5.783   1.668
    1   AR   Ar  247   4.777   3.548   1.301
    1   AR   Ar  248   5.542   6.445   0.541
    1   AR   Ar  249   4.643   5.689   2.484
    1   AR   Ar  250   5.362   6.057   4.589
    1   AR   Ar  251   5.964   5.416   4.051
    1   AR   Ar  252   5.051   5.917   3.429
    1   AR   Ar  253   5.402   4.243   6.186
    1   AR   Ar  254   4.569   5.455   6.899
    1   AR   Ar  255   4.964   3.021   7.377
    1   AR   Ar  256   5.749   6.649   3.738
    7.12000  7.12000 12.00000
Argon-slab step 2255
  256
    1   AR   Ar    1   6.818   1.688  -0.534
    1   AR   Ar    2   6.816   6.977   0.938
    1   AR   Ar    3   0.817   7.107   1.157
    1   AR   Ar    4   1.651   0.323   0.061
    1   AR   Ar    5   6.670   5.972   0.802
    1   AR   Ar    6   7.014   0.573   2.731
    1   AR   Ar    7   6.795   4.828   3.377
    1   AR   Ar    8   6.544   6.786   2.088
    1   AR   Ar    9   0.873   0.414   3.951
    1   AR   Ar   10   1.024   1.559   4.403
    1   AR   Ar   11   3.054   0.107   4.934
    1   AR   Ar   12   1.316   1.215   3.268
    1   AR   Ar   13   6.920   1.056   5.126
    1   AR   Ar   14   1.216   1.498   7.143
    1   AR   Ar   15   6.510   0.299   9.161
    1   AR   Ar   16   0.849   1.016   5.359
    1   AR   Ar   17   1.193   1.707  -0.405
    1   AR   Ar   18   6.054   2.930  -0.827
    1   AR   Ar   19   1.183   2.684   1.315
    1   AR   Ar   20   5.855   3.879  -2.916
    1   AR   Ar   21   6.153   0.666   2.033
    1   AR   Ar   22   6.968   1.548   1.979
    1   AR   Ar   23   0.853   1.004   0.395
    1   AR   Ar   24   7.068   2.310   0.859
    1   AR   Ar   25   0.115   1.325   3.631
    1   AR   Ar   26   6.095   1.365   4.055
    1   AR   Ar   27   2.374   1.273   3.833
    1   AR   Ar   28   1.078   2.645   4.694
    1   AR   Ar   29   5.196   1.707   6.487
    1   AR   Ar   30   0.858   1.875   6.076
    1   AR   Ar   31   0.542   6.558   7.318
    1   AR   Ar   32   1.600   2.575   5.866
    1   AR   Ar   33   1.742   3.994  -0.448
    1   AR   Ar   34   0.333   5.677   2.872
    1   AR   Ar   35   6.758   5.032   1.966
    1   AR   Ar   36   0.006   7.095  -2.840
    1   AR   Ar   37   6.467   3.352   2.177
    1   AR   Ar   38   6.953   4.227   2.435
    1   AR   Ar   39   1.275   3.590   2.887
    1   AR   Ar   40   1.339   3.964   1.408
    1   AR   Ar   41   0.627   2.303   2.571
    1   AR   Ar   42   7.011   5.297   4.911
    1   AR   Ar   43   6.882   2.454   5.947
    1   AR   Ar   44   0.608   4.143   3.523
    1   AR   Ar   45   0.651   3.051   5.745
    1   AR   Ar   46   1.122   6.078   6.572
    1   AR   Ar   47   6.073   3.131   6.832
    1   AR   Ar   48   6.761   6.312   6.181
    1   AR   Ar   49   6.407   6.991  -2.122
    1   AR   Ar   50   5.722   4.862   2.001
    1   AR   Ar   51   0.846   4.997   1.584
    1   AR   Ar   52   6.778   5.101  -1.401
    1   AR   Ar   53   5.720   5.969   2.584
    1   AR   Ar   54   6.602   6.719   3.207
    1   AR   Ar   55   5.496   4.703   3.373
    1   AR   Ar   56   0.447   6.759   2.128
    1   AR   Ar   57   6.704   3.386   3.241
    1   AR   Ar   58   6.897   5.635   3.915
    1   AR   Ar   59   1.865   5.233   5.517
    1   AR   Ar   60   0.636   6.342   4.063
    1   AR   Ar   61   6.057   5.514   5.446
    1   AR   Ar   62   0.753   5.651   5.404
    1   AR   Ar   63   2.052   6.432   6.853
    1   AR   Ar   64   0.913   6.902   5.892
    1   AR   Ar   65   3.765   0.066   0.437
    1   AR   Ar   66   1.728   1.131   1.090
    1   AR   Ar   67   3.562   6.442  -0.494
    1   AR   Ar   68   3.149   1.461  -1.524
    1   AR   Ar   69   2.780   0.999   1.132
    1   AR   Ar   70   0.794   0.943   2.265
    1   AR   Ar   71   3.189   1.069   3.103
    1   AR   Ar   72   3.288   0.409   1.882
    1   AR   Ar   73   3.025   0.181   3.857
    1   AR   Ar   74   2.476   1.047   4.982
    1   AR   Ar   75   3.490   1.036   5.276
    1   AR   Ar   76   2.191   1.166   2.093
    1   AR   Ar   77   2.515   6.601   5.592
    1   AR   Ar   78   1.881   0.360   6.683
    1   AR   Ar   79   3.194   6.069   6.972
    1   AR   Ar   80   2.952   5.558   6.025
    1   AR   Ar   81   2.632   1.817  -0.178
    1   AR   Ar   82   7.089   4.132  -0.328
    1   AR   Ar   83   1.620   2.332   0.385
    1   AR   Ar   84   0.913   3.721  -1.139
    1   AR   Ar   85   0.788   2.640  -0.280
    1   AR   Ar   86   2.050   3.294   1.320
    1   AR   Ar   87   2.427   2.323   1.443
    1   AR   Ar   88   3.874   4.096   1.737
    1   AR   Ar   89   0.629   3.374   2.091
    1   AR   Ar   90   2.713   2.012   4.913
    1   AR   Ar   91   1.477   2.184   3.638
    1   AR   Ar   92   1.494   1.926   2.097
    1   AR   Ar   93   1.941   1.256   5.999
    1   AR   Ar   94   1.181   0.955   9.547
    1   AR   Ar   95   4.028   6.989   6.365
    1   AR   Ar   96   2.908   0.373   5.940
    1   AR   Ar   97   3.968   2.594  -1.226
    1   AR   Ar   98   3.016   4.990   1.530
    1   AR   Ar   99   0.111   2.537  -1.253
    1   AR   Ar  100   1.851   2.717  -0.568
    1   AR   Ar  101   2.552   4.183   0.815
    1   AR   Ar  102   3.206   3.285   3.570
    1   AR   Ar  103   1.179   4.641   0.566
    1   AR   Ar  104   2.988   3.005  -0.948
    1   AR   Ar  105   2.228   3.213   3.434
    1   AR   Ar  106   2.316   3.564   4.430
    1   AR   Ar  107   2.109   3.957   5.637
    1   AR   Ar  108   3.585   2.932   4.466
    1   AR   Ar  109   1.511   4.050   4.235
    1   AR   Ar  110   1.258   4.697   6.319
    1   AR   Ar  111   4.280   4.072   6.944
    1   AR   Ar  112   1.252   5.403   7.355
    1   AR   Ar  113   2.569   4.841  -0.301
    1   AR   Ar  114   2.773   4.555  -1.319
    1   AR   Ar  115   2.754   3.763  -0.227
    1   AR   Ar  116   5.233   5.450  -1.095
    1   AR   Ar  117   0.813   5.180   3.670
    1   AR   Ar  118   0.609   6.872   3.128
    1   AR   Ar  119   2.223   3.969   2.243
    1   AR   Ar  120   0.914   4.684   2.668
    1   AR   Ar  121   6.685   4.157   4.959
    1   AR   Ar  122   3.143   6.048   4.917
    1   AR   Ar  123   2.490   4.849   4.844
    1   AR   Ar  124   2.059   5.128   1.873
    1   AR   Ar  125   0.534   4.238   5.456
    1   AR   Ar  126   0.163   7.047   5.032
    1   AR   Ar  127   3.203   4.703   7.210
    1   AR   Ar  128   2.316   4.839   6.576
    1   AR   Ar  129   1.622   0.282   2.508
    1   AR   Ar  130   3.615   1.750  -2.742
    1   AR   Ar  131   4.801   0.185   0.873
    1   AR   Ar  132   2.192   2.022  -1.232
    1   AR   Ar  133   4.025   0.258   3.285
    1   AR   Ar  134   4.297   1.204   3.373
    1   AR   Ar  135   5.201   1.118   2.636
    1   AR   Ar  136   4.868   0.225   2.005
    1   AR   Ar  137   2.700   6.216   3.985
    1   AR   Ar  138   4.853   1.358   4.836
    1   AR   Ar  139   5.431   2.046   5.552
    1   AR   Ar  140   4.204   0.607   4.348
    1   AR   Ar  141   4.012   6.519   3.905
    1   AR   Ar  142   3.977   6.971   5.220
    1   AR   Ar  143   5.857   7.053   5.616
    1   AR   Ar  144   4.940   0.738   5.717
    1   AR   Ar  145   3.572   3.845   0.426
    1   AR   Ar  146   4.258   2.195   1.609
    1   AR   Ar  147   5.838   1.801  -1.320
    1   AR   Ar  148   4.731   3.597  -2.318
    1   AR   Ar  149   3.316   1.957   1.028
    1   AR   Ar  150   2.280   1.803   2.878
    1   AR   Ar  151   3.155   2.086   3.441
    1   AR   Ar  152   2.859   2.749   0.243
    1   AR   Ar  153   3.352   1.178   4.170
    1   AR   Ar  154   4.114   1.886   4.165
    1   AR   Ar  155   5.938   1.015   5.926
    1   AR   Ar  156   3.234   4.113   4.460
    1   AR   Ar  157   2.587   3.007   5.483
    1   AR   Ar  158   1.068   3.340   6.667
    1   AR   Ar  159   3.433   2.495   5.678
    1   AR   Ar  160   2.481   2.077   6.264
    1   AR   Ar  161   5.358   2.683   1.497
    1   AR   Ar  162   4.520   5.083  -0.294
    1   AR   Ar  163   5.125   2.759   0.538
    1   AR   Ar  164   4.001   5.230   1.518
    1   AR   Ar  165   3.622   3.080   1.316
    1   AR   Ar  166   3.140   4.690   3.582
    1   AR   Ar  167   4.439   2.087   2.730
    1   AR   Ar  168   4.531   3.197  -0.588
    1   AR   Ar  169   2.652   2.996   2.399
    1   AR   Ar  170   3.191   3.901   5.436
    1   AR   Ar  171   4.421   3.939   4.431
    1   AR   Ar  172   4.457   5.553   4.434
    1   AR   Ar  173   2.143   3.350   6.610
    1   AR   Ar  174   3.863   4.863   6.137
    1   AR   Ar  175   4.072   3.206   5.870
    1   AR   Ar  176   3.621   5.093   4.879
    1   AR   Ar  177   6.264   5.646  -0.146
    1   AR   Ar  178   2.588   5.851   0.571
    1   AR   Ar  179   4.596   5.952   0.547
    1   AR   Ar  180   2.314   3.572  -1.693
    1   AR   Ar  181   1.524   5.752   0.874
    1   AR   Ar  182   2.666   7.055   2.904
    1   AR   Ar  183   3.647   4.908   2.682
    1   AR   Ar  184   4.101   6.461   1.269
    1   AR   Ar  185   2.026   5.323   3.913
    1   AR   Ar  186   3.896   5.566   3.481
    1   AR   Ar  187   4.116   6.749   2.384
    1   AR   Ar  188   3.057   6.304   1.427
    1   AR   Ar  189   3.181   3.950   6.409
    1   AR   Ar  190   5.144   6.134   5.956
    1   AR   Ar  191   4.729   5.144   5.380
    1   AR   Ar  192   3.883   5.816   5.618
    1   AR   Ar  193   0.791   6.110  -0.804
    1   AR   Ar  194   5.454   4.312  -1.337
    1   AR   Ar  195   6.720   0.514   0.154
    1   AR   Ar  196   4.797   6.595  -0.193
    1   AR   Ar  197   5.216   1.620   0.185
    1   AR   Ar  198   6.796   1.089   0.973
    1   AR   Ar  199   5.796   1.588   1.549
    1   AR   Ar  200   6.225   2.549   0.161
    1   AR   Ar  201   4.884   6.868   3.012
    1   AR   Ar  202   4.984   2.411   4.295
    1   AR   Ar  203   6.543   6.604   4.516
    1   AR   Ar  204   5.140   0.485   3.739
    1   AR   Ar  205   5.982   0.601   3.167
    1   AR   Ar  206   5.104   7.040   4.882
    1   AR   Ar  207   6.830   0.418   6.013
    1   AR   Ar  208   6.751   0.392   3.932
    1   AR   Ar  209   5.583   2.459  -2.053
    1   AR   Ar  210   4.037   0.890   1.240
    1   AR   Ar  211   0.061   3.189   0.220
    1   AR   Ar  212   6.210   3.886  -1.792
    1   AR   Ar  213   3.456   1.717   2.118
    1   AR   Ar  214   3.794   2.991   2.608
    1   AR   Ar  215   6.317   2.462   1.436
    1   AR   Ar  216   7.094   4.340   1.114
    1   AR   Ar  217   4.314   2.897   3.662
    1   AR   Ar  218   4.357   2.511   5.142
    1   AR   Ar  219   5.435   2.025   3.473
    1   AR   Ar  220   5.380   2.761   2.627
    1   AR   Ar  221   6.009   0.487   4.594
    1   AR   Ar  222   4.256   1.502   5.809
    1   AR   Ar  223   0.590   0.404   6.724
    1   AR   Ar  224   5.443   3.201   5.883
    1   AR   Ar  225   5.799   5.129   0.899
    1   AR   Ar  226   4.992   3.827   2.210
    1   AR   Ar  227   0.248   5.246   0.381
    1   AR   Ar  228   4.974   5.834   1.510
    1   AR   Ar  229   5.935   4.405  -0.183
    1   AR   Ar  230   4.473   4.600   3.516
    1   AR   Ar  231   6.441   1.791   2.851
    1   AR   Ar  232   3.916   2.863   0.385
    1   AR   Ar  233   6.282   2.701   4.502
    1   AR   Ar  234   7.070   3.062   5.019
    1   AR   Ar  235   0.036   2.360   4.078
    1   AR   Ar  236   5.218   4.703   4.310
    1   AR   Ar  237   5.346   3.915   5.012
    1   AR   Ar  238   4.323   4.162   5.570
    1   AR   Ar  239   0.086   4.018   8.952
    1   AR   Ar  240   6.433   3.472   5.917
    1   AR   Ar  241   0.595   6.727   0.057
    1   AR   Ar  242   4.710   4.725   1.060
    1   AR   Ar  243   5.900   4.051   2.758
    1   AR   Ar  244   0.597   4.995  -1.017
    1   AR   Ar  245   5.895   0.107   1.193
    1   AR   Ar  246   6.078   5.814   1.673
    1   AR   Ar  247   4.728   3.546   1.303
    1   AR   Ar  248   5.543   6.444   0.524
    1   AR   Ar  249   4.646   5.663   2.465
    1   AR   Ar  250   5.348   6.051   4.571
    1   AR   Ar  251   5.947   5.429   4.062
    1   AR   Ar  252   5.069   5.931   3.409
    1   AR   Ar  253   5.395   4.224   6.191
    1   AR   Ar  254   4.543   5.476   6.911
    1   AR   Ar  255   4.972   3.014   7.342
    1   AR   Ar  256   5.781   6.638   3.737
    7.12000  7.12000 12.00000
Argon-slab step 2260
  256
    1   AR   Ar    1   6.815   1.651  -0.523
    1   AR   Ar    2   6.849   6.995   0.945
    1   AR   Ar    3   0.856   0.010   1.144
    1   AR   Ar    4   1.623   0.324   0.058
    1   AR   Ar    5   6.671   5.987   0.805
    1   AR   Ar    6   7.011   0.536   2.752
    1   AR   Ar    7   6.800   4.832   3.377
    1   AR   Ar    8   6.541   6.781   2.076
    1   AR   Ar    9   0.882   0.398   3.939
    1   AR   Ar   10   1.019   1.580   4.384
    1   AR   Ar   11   3.034   0.110   4.926
    1   AR   Ar   12   1.325   1.193   3.283
    1   AR   Ar   13   6.944   1.032   5.088
    1   AR   Ar   14   1.196   1.512   7.187
    1   AR   Ar   15   6.504   0.286   9.173
    1   AR   Ar   16   0.890   1.024   5.374
    1   AR   Ar   17   1.201   1.708  -0.420
    1   AR   Ar   18   6.069   2.910  -0.844
    1   AR   Ar   19   1.183   2.694   1.343
    1   AR   Ar   20   5.841   3.858  -2.878
    1   AR   Ar   21   6.162   0.683   2.041
    1   AR   Ar   22   6.949   1.562   1.966
    1   AR   Ar   23   0.877   0.997   0.392
    1   AR   Ar   24   7.062   2.324   0.858
    1   AR   Ar   25   0.125   1.335   3.651
    1   AR   Ar   26   6.081   1.343   4.054
    1   AR   Ar   27   2.330   1.288   3.837
    1   AR   Ar   28   1.078   2.637   4.685
    1   AR   Ar   29   5.214   1.717   6.531
    1   AR   Ar   30   0.828   1.840   6.074
    1   AR   Ar   31   0.528   6.536   7.311
    1   AR   Ar   32   1.644   2.596   5.872
    1   AR   Ar   33   1.761   4.002  -0.451
    1   AR   Ar   34   0.317   5.658   2.879
    1   AR   Ar   35   6.780   5.041   1.962
    1   AR   Ar   36   0.001   7.098  -2.839
    1   AR   Ar   37   6.465   3.331   2.156
    1   AR   Ar   38   6.961   4.222   2.433
    1   AR   Ar   39   1.268   3.589   2.878
    1   AR   Ar   40   1.345   3.962   1.396
    1   AR   Ar   41   0.642   2.299   2.592
    1   AR   Ar   42   7.002   5.268   4.912
    1   AR   Ar   43   6.856   2.480   5.974
    1   AR   Ar   44   0.612   4.138   3.522
    1   AR   Ar   45   0.673   3.010   5.760
    1   AR   Ar   46   1.103   6.058   6.555
    1   AR   Ar   47   6.084   3.127   6.868
    1   AR   Ar   48   6.751   6.327   6.190
    1   AR   Ar   49   6.390   7.018  -2.119
    1   AR   Ar   50   5.704   4.859   2.000
    1   AR   Ar   51   0.809   5.022   1.563
    1   AR   Ar   52   6.810   5.112  -1.407
    1   AR   Ar   53   5.699   5.971   2.571
    1   AR   Ar   54   6.625   6.694   3.222
    1   AR   Ar   55   5.517   4.741   3.334
    1   AR   Ar   56   0.424   6.783   2.156
    1   AR   Ar   57   6.685   3.366   3.227
    1   AR   Ar   58   6.922   5.635   3.909
    1   AR   Ar   59   1.861   5.220   5.549
    1   AR   Ar   60   0.630   6.358   4.065
    1   AR   Ar   61   6.049   5.501   5.458
    1   AR   Ar   62   0.762   5.657   5.424
    1   AR   Ar   63   2.057   6.420   6.862
    1   AR   Ar   64   0.909   6.929   5.881
    1   AR   Ar   65   3.773   0.058   0.487
    1   AR   Ar   66   1.771   1.153   1.108
    1   AR   Ar   67   3.532   6.453  -0.492
    1   AR   Ar   68   3.134   1.460  -1.566
    1   AR   Ar   69   2.763   0.982   1.149
    1   AR   Ar   70   0.841   0.931   2.277
    1   AR   Ar   71   3.197   1.089   3.079
    1   AR   Ar   72   3.286   0.411   1.904
    1   AR   Ar   73   3.045   0.186   3.877
    1   AR   Ar   74   2.488   1.009   4.962
    1   AR   Ar   75   3.507   1.054   5.266
    1   AR   Ar   76   2.206   1.126   2.103
    1   AR   Ar   77   2.513   6.613   5.586
    1   AR   Ar   78   1.883   0.374   6.697
    1   AR   Ar   79   3.206   6.097   6.948
    1   AR   Ar   80   2.951   5.564   6.049
    1   AR   Ar   81   2.607   1.827  -0.201
    1   AR   Ar   82   7.094   4.150  -0.311
    1   AR   Ar   83   1.616   2.317   0.406
    1   AR   Ar   84   0.897   3.673  -1.135
    1   AR   Ar   85   0.817   2.664  -0.246
    1   AR   Ar   86   2.051   3.310   1.310
    1   AR   Ar   87   2.434   2.299   1.433
    1   AR   Ar   88   3.895   4.087   1.720
    1   AR   Ar   89   0.622   3.368   2.060
    1   AR   Ar   90   2.709   2.002   4.927
    1   AR   Ar   91   1.488   2.211   3.662
    1   AR   Ar   92   1.498   1.915   2.106
    1   AR   Ar   93   1.897   1.211   6.019
    1   AR   Ar   94   1.229   0.941   9.562
    1   AR   Ar   95   4.056   7.038   6.341
    1   AR   Ar   96   2.921   0.362   5.930
    1   AR   Ar   97   3.996   2.599  -1.209
    1   AR   Ar   98   3.033   4.987   1.553
    1   AR   Ar   99   0.123   2.554  -1.269
    1   AR   Ar  100   1.873   2.694  -0.578
    1   AR   Ar  101   2.583   4.199   0.810
    1   AR   Ar  102   3.248   3.323   3.551
    1   AR   Ar  103   1.207   4.629   0.568
    1   AR   Ar  104   2.987   3.034  -0.941
    1   AR   Ar  105   2.203   3.222   3.445
    1   AR   Ar  106   2.328   3.555   4.414
    1   AR   Ar  107   2.108   3.991   5.643
    1   AR   Ar  108   3.595   2.918   4.514
    1   AR   Ar  109   1.500   4.061   4.246
    1   AR   Ar  110   1.265   4.695   6.325
    1   AR   Ar  111   4.292   4.052   6.948
    1   AR   Ar  112   1.267   5.390   7.342
    1   AR   Ar  113   2.563   4.846  -0.272
    1   AR   Ar  114   2.782   4.543  -1.311
    1   AR   Ar  115   2.766   3.784  -0.208
    1   AR   Ar  116   5.243   5.427  -1.094
    1   AR   Ar  117   0.812   5.177   3.697
    1   AR   Ar  118   0.622   6.866   3.114
    1   AR   Ar  119   2.239   3.951   2.211
    1   AR   Ar  120   0.917   4.685   2.672
    1   AR   Ar  121   6.670   4.207   5.025
    1   AR   Ar  122   3.140   6.037   4.885
    1   AR   Ar  123   2.516   4.846   4.840
    1   AR   Ar  124   2.035   5.110   1.864
    1   AR   Ar  125   0.536   4.270   5.459
    1   AR   Ar  126   0.155   7.055   5.032
    1   AR   Ar  127   3.179   4.714   7.197
    1   AR   Ar  128   2.316   4.875   6.549
    1   AR   Ar  129   1.664   0.288   2.552
    1   AR   Ar  130   3.617   1.769  -2.693
    1   AR   Ar  131   4.829   0.216   0.851
    1   AR   Ar  132   2.179   2.043  -1.271
    1   AR   Ar  133   4.042   0.266   3.271
    1   AR   Ar  134   4.322   1.180   3.395
    1   AR   Ar  135   5.207   1.146   2.623
    1   AR   Ar  136   4.910   0.240   2.021
    1   AR   Ar  137   2.671   6.222   3.981
    1   AR   Ar  138   4.887   1.366   4.805
    1   AR   Ar  139   5.464   2.064   5.566
    1   AR   Ar  140   4.187   0.601   4.356
    1   AR   Ar  141   3.998   6.537   3.881
    1   AR   Ar  142   3.955   6.950   5.200
    1   AR   Ar  143   5.872   7.065   5.624
    1   AR   Ar  144   4.950   0.738   5.737
    1   AR   Ar  145   3.611   3.850   0.410
    1   AR   Ar  146   4.224   2.186   1.616
    1   AR   Ar  147   5.886   1.789  -1.318
    1   AR   Ar  148   4.726   3.575  -2.313
    1   AR   Ar  149   3.363   1.948   1.002
    1   AR   Ar  150   2.288   1.786   2.892
    1   AR   Ar  151   3.125   2.125   3.456
    1   AR   Ar  152   2.863   2.694   0.200
    1   AR   Ar  153   3.359   1.178   4.184
    1   AR   Ar  154   4.074   1.891   4.140
    1   AR   Ar  155   5.948   1.029   5.924
    1   AR   Ar  156   3.240   4.105   4.478
    1   AR   Ar  157   2.577   3.008   5.481
    1   AR   Ar  158   1.065   3.381   6.666
    1   AR   Ar  159   3.427   2.510   5.686
    1   AR   Ar  160   2.525   2.069   6.262
    1   AR   Ar  161   5.336   2.736   1.531
    1   AR   Ar  162   4.517   5.088  -0.307
    1   AR   Ar  163   5.128   2.778   0.560
    1   AR   Ar  164   3.967   5.234   1.524
    1   AR   Ar  165   3.648   3.096   1.308
    1   AR   Ar  166   3.162   4.683   3.587
    1   AR   Ar  167   4.426   2.109   2.717
    1   AR   Ar  168   4.524   3.187  -0.578
    1   AR   Ar  169   2.679   2.995   2.392
    1   AR   Ar  170   3.176   3.917   5.453
    1   AR   Ar  171   4.460   3.932   4.430
    1   AR   Ar  172   4.416   5.542   4.419
    1   AR   Ar  173   2.131   3.337   6.633
    1   AR   Ar  174   3.898   4.871   6.106
    1   AR   Ar  175   4.076   3.253   5.853
    1   AR   Ar  176   3.627   5.059   4.885
    1   AR   Ar  177   6.249   5.583  -0.118
    1   AR   Ar  178   2.589   5.821   0.566
    1   AR   Ar  179   4.588   5.956   0.538
    1   AR   Ar  180   2.277   3.554  -1.673
    1   AR   Ar  181   1.532   5.772   0.872
    1   AR   Ar  182   2.647   7.091   2.871
    1   AR   Ar  183   3.638   4.893   2.691
    1   AR   Ar  184   4.103   6.471   1.286
    1   AR   Ar  185   2.004   5.340   3.905
    1   AR   Ar  186   3.915   5.566   3.536
    1   AR   Ar  187   4.095   6.740   2.356
    1   AR   Ar  188   3.066   6.333   1.442
    1   AR   Ar  189   3.167   3.918   6.397
    1   AR   Ar  190   5.162   6.105   5.942
    1   AR   Ar  191   4.734   5.137   5.408
    1   AR   Ar  192   3.903   5.794   5.651
    1   AR   Ar  193   0.831   6.152  -0.820
    1   AR   Ar  194   5.457   4.324  -1.348
    1   AR   Ar  195   6.728   0.531   0.114
    1   AR   Ar  196   4.800   6.590  -0.185
    1   AR   Ar  197   5.223   1.596   0.175
    1   AR   Ar  198   6.797   1.095   0.958
    1   AR   Ar  199   5.813   1.573   1.553
    1   AR   Ar  200   6.225   2.555   0.178
    1   AR   Ar  201   4.875   6.872   3.009
    1   AR   Ar  202   4.976   2.410   4.312
    1   AR   Ar  203   6.525   6.561   4.477
    1   AR   Ar  204   5.185   0.491   3.712
    1   AR   Ar  205   6.010   0.574   3.149
    1   AR   Ar  206   5.112   7.043   4.896
    1   AR   Ar  207   6.851   0.401   6.023
    1   AR   Ar  208   6.740   0.384   3.923
    1   AR   Ar  209   5.592   2.493  -2.066
    1   AR   Ar  210   4.065   0.914   1.201
    1   AR   Ar  211   0.044   3.216   0.214
    1   AR   Ar  212   6.196   3.892  -1.789
    1   AR   Ar  213   3.452   1.713   2.120
    1   AR   Ar  214   3.811   2.969   2.602
    1   AR   Ar  215   6.311   2.495   1.481
    1   AR   Ar  216   7.101   4.333   1.108
    1   AR   Ar  217   4.281   2.903   3.732
    1   AR   Ar  218   4.361   2.529   5.127
    1   AR   Ar  219   5.396   2.025   3.455
    1   AR   Ar  220   5.356   2.750   2.630
    1   AR   Ar  221   6.010   0.493   4.583
    1   AR   Ar  222   4.302   1.532   5.833
    1   AR   Ar  223   0.600   0.379   6.739
    1   AR   Ar  224   5.402   3.214   5.871
    1   AR   Ar  225   5.807   5.091   0.903
    1   AR   Ar  226   4.991   3.836   2.209
    1   AR   Ar  227   0.273   5.266   0.366
    1   AR   Ar  228   4.946   5.838   1.540
    1   AR   Ar  229   5.964   4.406  -0.161
    1   AR   Ar  230   4.459   4.586   3.520
    1   AR   Ar  231   6.427   1.795   2.849
    1   AR   Ar  232   3.930   2.845   0.375
    1   AR   Ar  233   6.286   2.698   4.481
    1   AR   Ar  234   7.086   3.060   5.014
    1   AR   Ar  235   0.062   2.360   4.077
    1   AR   Ar  236   5.220   4.703   4.341
    1   AR   Ar  237   5.334   3.916   5.023
    1   AR   Ar  238   4.341   4.134   5.567
    1   AR   Ar  239   0.076   4.010   8.946
    1   AR   Ar  240   6.442   3.469   5.915
    1   AR   Ar  241   0.609   6.724   0.038
    1   AR   Ar  242   4.673   4.709   1.017
    1   AR   Ar  243   5.830   4.047   2.799
    1   AR   Ar  244   0.592   4.972  -1.002
    1   AR   Ar  245   5.891   0.108   1.201
    1   AR   Ar  246   6.076   5.848   1.670
    1   AR   Ar  247   4.673   3.541   1.293
    1   AR   Ar  248   5.550   6.440   0.511
    1   AR   Ar  249   4.645   5.635   2.450
    1   AR   Ar  250   5.333   6.051   4.558
    1   AR   Ar  251   5.926   5.438   4.071
    1   AR   Ar  252   5.085   5.938   3.397
    1   AR   Ar  253   5.387   4.206   6.194
    1   AR   Ar  254   4.517   5.496   6.921
    1   AR   Ar  255   4.980   3.008   7.305
    1   AR   Ar  256   5.803   6.630   3.743
    7.12000  7.12000 12.00000
Argon-slab step 2265
  256
    1   AR   Ar    1   6.812   1.614  -0.511
    1   AR   Ar    2   6.889   7.015   0.954
    1   AR   Ar    3   0.855   0.017   1.127
    1   AR   Ar    4   1.618   0.364   0.036
    1   AR   Ar    5   6.671   5.999   0.807
    1   AR   Ar    6   7.009   0.498   2.773
    1   AR   Ar    7   6.803   4.823   3.367
    1   AR   Ar    8   6.533   6.779   2.068
    1   AR   Ar    9   0.883   0.415   3.950
    1   AR   Ar   10   1.012   1.598   4.365
    1   AR   Ar   11   3.010   0.113   4.912
    1   AR   Ar   12   1.306   1.177   3.273
    1   AR   Ar   13   6.967   1.008   5.048
    1   AR   Ar   14   1.217   1.523   7.192
    1   AR   Ar   15   6.497   0.274   9.186
    1   AR   Ar   16   0.931   1.029   5.388
    1   AR   Ar   17   1.209   1.705  -0.421
    1   AR   Ar   18   6.085   2.890  -0.864
    1   AR   Ar   19   1.180   2.703   1.373
    1   AR   Ar   20   5.827   3.837  -2.838
    1   AR   Ar   21   6.171   0.702   2.053
    1   AR   Ar   22   6.932   1.574   1.951
    1   AR   Ar   23   0.897   0.991   0.391
    1   AR   Ar   24   7.066   2.335   0.850
    1   AR   Ar   25   0.135   1.345   3.671
    1   AR   Ar   26   6.069   1.328   4.047
    1   AR   Ar   27   2.284   1.301   3.842
    1   AR   Ar   28   1.077   2.630   4.677
    1   AR   Ar   29   5.231   1.727   6.576
    1   AR   Ar   30   0.797   1.807   6.074
    1   AR   Ar   31   0.512   6.515   7.305
    1   AR   Ar   32   1.689   2.617   5.878
    1   AR   Ar   33   1.776   4.010  -0.455
    1   AR   Ar   34   0.299   5.640   2.884
    1   AR   Ar   35   6.801   5.066   1.949
    1   AR   Ar   36   0.004   0.009  -2.881
    1   AR   Ar   37   6.461   3.310   2.135
    1   AR   Ar   38   6.976   4.203   2.442
    1   AR   Ar   39   1.265   3.587   2.869
    1   AR   Ar   40   1.339   3.972   1.388
    1   AR   Ar   41   0.648   2.295   2.609
    1   AR   Ar   42   6.992   5.239   4.914
    1   AR   Ar   43   6.831   2.505   6.002
    1   AR   Ar   44   0.612   4.131   3.523
    1   AR   Ar   45   0.695   2.970   5.774
    1   AR   Ar   46   1.082   6.037   6.531
    1   AR   Ar   47   6.094   3.122   6.904
    1   AR   Ar   48   6.740   6.343   6.198
    1   AR   Ar   49   6.369   7.044  -2.112
    1   AR   Ar   50   5.683   4.856   2.001
    1   AR   Ar   51   0.771   5.047   1.541
    1   AR   Ar   52   6.832   5.123  -1.415
    1   AR   Ar   53   5.677   5.975   2.565
    1   AR   Ar   54   6.659   6.667   3.228
    1   AR   Ar   55   5.531   4.803   3.306
    1   AR   Ar   56   0.406   6.808   2.172
    1   AR   Ar   57   6.667   3.346   3.214
    1   AR   Ar   58   6.929   5.627   3.910
    1   AR   Ar   59   1.855   5.208   5.584
    1   AR   Ar   60   0.623   6.373   4.069
    1   AR   Ar   61   6.040   5.488   5.468
    1   AR   Ar   62   0.772   5.663   5.446
    1   AR   Ar   63   2.064   6.407   6.870
    1   AR   Ar   64   0.904   6.956   5.870
    1   AR   Ar   65   3.780   0.050   0.538
    1   AR   Ar   66   1.804   1.179   1.125
    1   AR   Ar   67   3.504   6.463  -0.489
    1   AR   Ar   68   3.119   1.461  -1.609
    1   AR   Ar   69   2.755   0.966   1.164
    1   AR   Ar   70   0.888   0.921   2.289
    1   AR   Ar   71   3.205   1.107   3.055
    1   AR   Ar   72   3.285   0.413   1.929
    1   AR   Ar   73   3.067   0.192   3.895
    1   AR   Ar   74   2.494   0.968   4.943
    1   AR   Ar   75   3.527   1.072   5.255
    1   AR   Ar   76   2.225   1.083   2.110
    1   AR   Ar   77   2.507   6.617   5.581
    1   AR   Ar   78   1.885   0.388   6.712
    1   AR   Ar   79   3.218   6.124   6.925
    1   AR   Ar   80   2.949   5.570   6.069
    1   AR   Ar   81   2.577   1.827  -0.230
    1   AR   Ar   82   7.100   4.170  -0.296
    1   AR   Ar   83   1.614   2.300   0.430
    1   AR   Ar   84   0.881   3.624  -1.129
    1   AR   Ar   85   0.844   2.691  -0.213
    1   AR   Ar   86   2.067   3.317   1.298
    1   AR   Ar   87   2.439   2.272   1.424
    1   AR   Ar   88   3.912   4.083   1.704
    1   AR   Ar   89   0.614   3.365   2.039
    1   AR   Ar   90   2.708   1.997   4.941
    1   AR   Ar   91   1.492   2.233   3.690
    1   AR   Ar   92   1.503   1.904   2.113
    1   AR   Ar   93   1.852   1.166   6.037
    1   AR   Ar   94   1.276   0.926   9.577
    1   AR   Ar   95   4.084   7.087   6.315
    1   AR   Ar   96   2.936   0.357   5.925
    1   AR   Ar   97   4.018   2.600  -1.197
    1   AR   Ar   98   3.043   4.964   1.571
    1   AR   Ar   99   0.135   2.571  -1.283
    1   AR   Ar  100   1.894   2.678  -0.581
    1   AR   Ar  101   2.613   4.214   0.805
    1   AR   Ar  102   3.293   3.362   3.533
    1   AR   Ar  103   1.235   4.619   0.568
    1   AR   Ar  104   2.985   3.060  -0.935
    1   AR   Ar  105   2.173   3.228   3.449
    1   AR   Ar  106   2.351   3.540   4.407
    1   AR   Ar  107   2.106   4.010   5.648
    1   AR   Ar  108   3.599   2.904   4.566
    1   AR   Ar  109   1.479   4.080   4.254
    1   AR   Ar  110   1.270   4.692   6.330
    1   AR   Ar  111   4.302   4.033   6.948
    1   AR   Ar  112   1.263   5.381   7.348
    1   AR   Ar  113   2.557   4.851  -0.241
    1   AR   Ar  114   2.783   4.544  -1.314
    1   AR   Ar  115   2.778   3.804  -0.189
    1   AR   Ar  116   5.255   5.402  -1.091
    1   AR   Ar  117   0.812   5.176   3.726
    1   AR   Ar  118   0.637   6.862   3.111
    1   AR   Ar  119   2.258   3.932   2.174
    1   AR   Ar  120   0.922   4.697   2.674
    1   AR   Ar  121   6.652   4.255   5.092
    1   AR   Ar  122   3.140   6.026   4.856
    1   AR   Ar  123   2.546   4.842   4.833
    1   AR   Ar  124   2.006   5.090   1.855
    1   AR   Ar  125   0.543   4.287   5.460
    1   AR   Ar  126   0.154   7.028   5.031
    1   AR   Ar  127   3.157   4.725   7.181
    1   AR   Ar  128   2.314   4.909   6.522
    1   AR   Ar  129   1.704   0.294   2.597
    1   AR   Ar  130   3.617   1.787  -2.642
    1   AR   Ar  131   4.857   0.244   0.828
    1   AR   Ar  132   2.170   2.058  -1.314
    1   AR   Ar  133   4.047   0.265   3.255
    1   AR   Ar  134   4.353   1.171   3.416
    1   AR   Ar  135   5.213   1.175   2.612
    1   AR   Ar  136   4.954   0.257   2.034
    1   AR   Ar  137   2.642   6.229   3.973
    1   AR   Ar  138   4.902   1.371   4.787
    1   AR   Ar  139   5.496   2.083   5.575
    1   AR   Ar  140   4.174   0.591   4.364
    1   AR   Ar  141   3.985   6.556   3.862
    1   AR   Ar  142   3.942   6.927   5.191
    1   AR   Ar  143   5.891   7.077   5.632
    1   AR   Ar  144   4.963   0.729   5.761
    1   AR   Ar  145   3.629   3.844   0.404
    1   AR   Ar  146   4.196   2.179   1.621
    1   AR   Ar  147   5.936   1.778  -1.313
    1   AR   Ar  148   4.692   3.551  -2.333
    1   AR   Ar  149   3.410   1.940   0.974
    1   AR   Ar  150   2.295   1.772   2.906
    1   AR   Ar  151   3.098   2.165   3.473
    1   AR   Ar  152   2.868   2.650   0.161
    1   AR   Ar  153   3.357   1.178   4.198
    1   AR   Ar  154   4.035   1.902   4.116
    1   AR   Ar  155   5.960   1.046   5.920
    1   AR   Ar  156   3.251   4.096   4.487
    1   AR   Ar  157   2.562   3.012   5.476
    1   AR   Ar  158   1.062   3.423   6.667
    1   AR   Ar  159   3.421   2.514   5.692
    1   AR   Ar  160   2.572   2.063   6.259
    1   AR   Ar  161   5.309   2.787   1.577
    1   AR   Ar  162   4.514   5.094  -0.318
    1   AR   Ar  163   5.128   2.797   0.572
    1   AR   Ar  164   3.947   5.248   1.533
    1   AR   Ar  165   3.654   3.062   1.319
    1   AR   Ar  166   3.182   4.675   3.596
    1   AR   Ar  167   4.414   2.127   2.706
    1   AR   Ar  168   4.514   3.188  -0.563
    1   AR   Ar  169   2.692   3.008   2.384
    1   AR   Ar  170   3.163   3.933   5.455
    1   AR   Ar  171   4.493   3.923   4.427
    1   AR   Ar  172   4.392   5.532   4.414
    1   AR   Ar  173   2.121   3.323   6.654
    1   AR   Ar  174   3.927   4.877   6.083
    1   AR   Ar  175   4.080   3.291   5.844
    1   AR   Ar  176   3.632   5.021   4.893
    1   AR   Ar  177   6.234   5.518  -0.090
    1   AR   Ar  178   2.591   5.790   0.561
    1   AR   Ar  179   4.577   5.948   0.533
    1   AR   Ar  180   2.240   3.536  -1.650
    1   AR   Ar  181   1.538   5.790   0.872
    1   AR   Ar  182   2.630   0.008   2.837
    1   AR   Ar  183   3.632   4.878   2.695
    1   AR   Ar  184   4.106   6.485   1.305
    1   AR   Ar  185   1.981   5.356   3.898
    1   AR   Ar  186   3.930   5.562   3.583
    1   AR   Ar  187   4.069   6.729   2.326
    1   AR   Ar  188   3.074   6.361   1.458
    1   AR   Ar  189   3.153   3.886   6.408
    1   AR   Ar  190   5.178   6.076   5.927
    1   AR   Ar  191   4.743   5.129   5.435
    1   AR   Ar  192   3.926   5.781   5.682
    1   AR   Ar  193   0.872   6.190  -0.837
    1   AR   Ar  194   5.447   4.343  -1.351
    1   AR   Ar  195   6.723   0.541   0.073
    1   AR   Ar  196   4.800   6.593  -0.187
    1   AR   Ar  197   5.233   1.580   0.173
    1   AR   Ar  198   6.798   1.103   0.951
    1   AR   Ar  199   5.829   1.556   1.556
    1   AR   Ar  200   6.226   2.560   0.198
    1   AR   Ar  201   4.875   6.874   3.006
    1   AR   Ar  202   4.977   2.409   4.333
    1   AR   Ar  203   6.507   6.515   4.440
    1   AR   Ar  204   5.167   0.499   3.723
    1   AR   Ar  205   6.026   0.553   3.142
    1   AR   Ar  206   5.116   7.049   4.907
    1   AR   Ar  207   6.873   0.383   6.031
    1   AR   Ar  208   6.739   0.376   3.908
    1   AR   Ar  209   5.600   2.531  -2.079
    1   AR   Ar  210   4.091   0.940   1.163
    1   AR   Ar  211   0.025   3.243   0.211
    1   AR   Ar  212   6.196   3.890  -1.793
    1   AR   Ar  213   3.444   1.707   2.125
    1   AR   Ar  214   3.826   2.950   2.594
    1   AR   Ar  215   6.306   2.528   1.531
    1   AR   Ar  216   7.110   4.327   1.103
    1   AR   Ar  217   4.248   2.911   3.796
    1   AR   Ar  218   4.367   2.544   5.116
    1   AR   Ar  219   5.358   2.021   3.432
    1   AR   Ar  220   5.343   2.740   2.628
    1   AR   Ar  221   6.002   0.491   4.584
    1   AR   Ar  222   4.347   1.568   5.857
    1   AR   Ar  223   0.611   0.356   6.755
    1   AR   Ar  224   5.357   3.222   5.859
    1   AR   Ar  225   5.816   5.055   0.906
    1   AR   Ar  226   4.989   3.846   2.212
    1   AR   Ar  227   0.297   5.285   0.351
    1   AR   Ar  228   4.926   5.844   1.559
    1   AR   Ar  229   5.994   4.407  -0.138
    1   AR   Ar  230   4.441   4.574   3.524
    1   AR   Ar  231   6.411   1.798   2.851
    1   AR   Ar  232   3.948   2.823   0.358
    1   AR   Ar  233   6.280   2.693   4.459
    1   AR   Ar  234   7.102   3.060   5.008
    1   AR   Ar  235   0.093   2.360   4.075
    1   AR   Ar  236   5.219   4.706   4.374
    1   AR   Ar  237   5.324   3.915   5.038
    1   AR   Ar  238   4.366   4.117   5.555
    1   AR   Ar  239   0.059   4.003   8.938
    1   AR   Ar  240   6.454   3.469   5.910
    1   AR   Ar  241   0.622   6.723   0.023
    1   AR   Ar  242   4.641   4.689   0.972
    1   AR   Ar  243   5.774   4.021   2.824
    1   AR   Ar  244   0.596   4.947  -0.981
    1   AR   Ar  245   5.890   0.090   1.226
    1   AR   Ar  246   6.076   5.883   1.657
    1   AR   Ar  247   4.618   3.533   1.273
    1   AR   Ar  248   5.562   6.435   0.502
    1   AR   Ar  249   4.638   5.604   2.447
    1   AR   Ar  250   5.314   6.057   4.552
    1   AR   Ar  251   5.910   5.442   4.073
    1   AR   Ar  252   5.095   5.937   3.393
    1   AR   Ar  253   5.380   4.196   6.195
    1   AR   Ar  254   4.489   5.516   6.929
    1   AR   Ar  255   4.989   3.003   7.266
    1   AR   Ar  256   5.812   6.625   3.753
    7.12000  7.12000 12.00000
Argon-slab step 2270
  256
    1   AR   Ar    1   6.809   1.579  -0.499
    1   AR   Ar    2   6.932   7.038   0.965
    1   AR   Ar    3   0.841   0.020   1.110
    1   AR   Ar    4   1.617   0.401   0.013
    1   AR   Ar    5   6.723   5.998   0.821
    1   AR   Ar    6   7.011   0.463   2.794
    1   AR   Ar    7   6.803   4.803   3.350
    1   AR   Ar    8   6.526   6.792   2.077
    1   AR   Ar    9   0.881   0.433   3.961
    1   AR   Ar   10   1.003   1.611   4.347
    1   AR   Ar   11   3.048   0.116   4.895
    1   AR   Ar   12   1.270   1.167   3.248
    1   AR   Ar   13   6.989   0.983   5.008
    1   AR   Ar   14   1.225   1.531   7.215
    1   AR   Ar   15   6.491   0.262   9.198
    1   AR   Ar   16   0.973   1.030   5.399
    1   AR   Ar   17   1.219   1.699  -0.420
    1   AR   Ar   18   6.101   2.869  -0.885
    1   AR   Ar   19   1.178   2.710   1.403
    1   AR   Ar   20   5.812   3.815  -2.798
    1   AR   Ar   21   6.181   0.720   2.067
    1   AR   Ar   22   6.916   1.586   1.934
    1   AR   Ar   23   0.911   0.988   0.394
    1   AR   Ar   24   7.075   2.342   0.842
    1   AR   Ar   25   0.145   1.352   3.690
    1   AR   Ar   26   6.058   1.320   4.034
    1   AR   Ar   27   2.240   1.314   3.851
    1   AR   Ar   28   1.075   2.625   4.671
    1   AR   Ar   29   5.248   1.735   6.620
    1   AR   Ar   30   0.767   1.777   6.075
    1   AR   Ar   31   0.497   6.494   7.299
    1   AR   Ar   32   1.731   2.635   5.885
    1   AR   Ar   33   1.790   4.017  -0.459
    1   AR   Ar   34   0.280   5.624   2.887
    1   AR   Ar   35   6.819   5.067   1.957
    1   AR   Ar   36   0.008   0.040  -2.925
    1   AR   Ar   37   6.457   3.296   2.120
    1   AR   Ar   38   6.994   4.178   2.455
    1   AR   Ar   39   1.265   3.586   2.859
    1   AR   Ar   40   1.323   3.989   1.385
    1   AR   Ar   41   0.628   2.292   2.603
    1   AR   Ar   42   6.983   5.212   4.916
    1   AR   Ar   43   6.806   2.525   6.029
    1   AR   Ar   44   0.609   4.123   3.527
    1   AR   Ar   45   0.717   2.930   5.788
    1   AR   Ar   46   1.062   6.016   6.503
    1   AR   Ar   47   6.103   3.117   6.938
    1   AR   Ar   48   6.730   6.359   6.204
    1   AR   Ar   49   6.347   7.070  -2.104
    1   AR   Ar   50   5.661   4.853   2.004
    1   AR   Ar   51   0.734   5.070   1.519
    1   AR   Ar   52   6.845   5.135  -1.427
    1   AR   Ar   53   5.656   5.981   2.563
    1   AR   Ar   54   6.702   6.638   3.229
    1   AR   Ar   55   5.539   4.885   3.287
    1   AR   Ar   56   0.393   6.833   2.173
    1   AR   Ar   57   6.650   3.327   3.201
    1   AR   Ar   58   6.923   5.618   3.919
    1   AR   Ar   59   1.849   5.198   5.618
    1   AR   Ar   60   0.614   6.388   4.074
    1   AR   Ar   61   6.029   5.476   5.476
    1   AR   Ar   62   0.783   5.670   5.469
    1   AR   Ar   63   2.073   6.393   6.876
    1   AR   Ar   64   0.900   6.982   5.857
    1   AR   Ar   65   3.787   0.041   0.588
    1   AR   Ar   66   1.822   1.209   1.139
    1   AR   Ar   67   3.476   6.473  -0.485
    1   AR   Ar   68   3.104   1.462  -1.651
    1   AR   Ar   69   2.762   0.948   1.179
    1   AR   Ar   70   0.923   0.916   2.294
    1   AR   Ar   71   3.213   1.124   3.031
    1   AR   Ar   72   3.286   0.414   1.955
    1   AR   Ar   73   3.090   0.198   3.905
    1   AR   Ar   74   2.480   0.960   4.918
    1   AR   Ar   75   3.549   1.089   5.246
    1   AR   Ar   76   2.247   1.038   2.118
    1   AR   Ar   77   2.496   6.611   5.578
    1   AR   Ar   78   1.884   0.381   6.713
    1   AR   Ar   79   3.231   6.153   6.902
    1   AR   Ar   80   2.948   5.578   6.083
    1   AR   Ar   81   2.540   1.811  -0.266
    1   AR   Ar   82   7.106   4.194  -0.281
    1   AR   Ar   83   1.616   2.282   0.456
    1   AR   Ar   84   0.864   3.574  -1.121
    1   AR   Ar   85   0.870   2.720  -0.182
    1   AR   Ar   86   2.094   3.316   1.283
    1   AR   Ar   87   2.443   2.245   1.415
    1   AR   Ar   88   3.921   4.086   1.693
    1   AR   Ar   89   0.614   3.373   2.057
    1   AR   Ar   90   2.710   1.997   4.954
    1   AR   Ar   91   1.494   2.242   3.693
    1   AR   Ar   92   1.510   1.892   2.119
    1   AR   Ar   93   1.806   1.126   6.050
    1   AR   Ar   94   1.324   0.912   9.591
    1   AR   Ar   95   4.112   0.016   6.288
    1   AR   Ar   96   2.953   0.358   5.926
    1   AR   Ar   97   4.035   2.595  -1.190
    1   AR   Ar   98   3.040   4.912   1.585
    1   AR   Ar   99   0.146   2.589  -1.294
    1   AR   Ar  100   1.914   2.669  -0.577
    1   AR   Ar  101   2.620   4.224   0.811
    1   AR   Ar  102   3.336   3.401   3.515
    1   AR   Ar  103   1.262   4.611   0.565
    1   AR   Ar  104   2.982   3.084  -0.929
    1   AR   Ar  105   2.167   3.215   3.466
    1   AR   Ar  106   2.378   3.523   4.408
    1   AR   Ar  107   2.106   4.005   5.649
    1   AR   Ar  108   3.591   2.894   4.621
    1   AR   Ar  109   1.454   4.102   4.261
    1   AR   Ar  110   1.273   4.688   6.336
    1   AR   Ar  111   4.313   4.014   6.946
    1   AR   Ar  112   1.260   5.371   7.355
    1   AR   Ar  113   2.550   4.857  -0.208
    1   AR   Ar  114   2.779   4.555  -1.322
    1   AR   Ar  115   2.789   3.820  -0.172
    1   AR   Ar  116   5.267   5.379  -1.088
    1   AR   Ar  117   0.812   5.175   3.756
    1   AR   Ar  118   0.656   6.860   3.121
    1   AR   Ar  119   2.275   3.917   2.136
    1   AR   Ar  120   0.927   4.709   2.673
    1   AR   Ar  121   6.631   4.300   5.158
    1   AR   Ar  122   3.144   6.014   4.831
    1   AR   Ar  123   2.575   4.836   4.825
    1   AR   Ar  124   1.974   5.069   1.845
    1   AR   Ar  125   0.537   4.293   5.480
    1   AR   Ar  126   0.153   7.003   5.029
    1   AR   Ar  127   3.135   4.733   7.163
    1   AR   Ar  128   2.311   4.939   6.497
    1   AR   Ar  129   1.733   0.301   2.642
    1   AR   Ar  130   3.615   1.792  -2.635
    1   AR   Ar  131   4.856   0.242   0.819
    1   AR   Ar  132   2.164   2.068  -1.363
    1   AR   Ar  133   4.040   0.258   3.237
    1   AR   Ar  134   4.389   1.177   3.438
    1   AR   Ar  135   5.220   1.205   2.602
    1   AR   Ar  136   4.998   0.273   2.046
    1   AR   Ar  137   2.623   6.239   3.964
    1   AR   Ar  138   4.911   1.373   4.774
    1   AR   Ar  139   5.526   2.102   5.582
    1   AR   Ar  140   4.165   0.576   4.374
    1   AR   Ar  141   3.972   6.577   3.849
    1   AR   Ar  142   3.940   6.906   5.218
    1   AR   Ar  143   5.911   7.088   5.641
    1   AR   Ar  144   4.977   0.712   5.785
    1   AR   Ar  145   3.645   3.835   0.403
    1   AR   Ar  146   4.176   2.177   1.626
    1   AR   Ar  147   5.987   1.767  -1.306
    1   AR   Ar  148   4.660   3.527  -2.352
    1   AR   Ar  149   3.455   1.931   0.944
    1   AR   Ar  150   2.299   1.761   2.919
    1   AR   Ar  151   3.074   2.207   3.492
    1   AR   Ar  152   2.877   2.624   0.131
    1   AR   Ar  153   3.343   1.177   4.209
    1   AR   Ar  154   4.002   1.920   4.095
    1   AR   Ar  155   5.974   1.065   5.916
    1   AR   Ar  156   3.267   4.085   4.485
    1   AR   Ar  157   2.545   3.021   5.468
    1   AR   Ar  158   1.057   3.466   6.667
    1   AR   Ar  159   3.417   2.510   5.698
    1   AR   Ar  160   2.585   2.067   6.263
    1   AR   Ar  161   5.279   2.838   1.626
    1   AR   Ar  162   4.512   5.100  -0.327
    1   AR   Ar  163   5.126   2.816   0.577
    1   AR   Ar  164   3.946   5.272   1.545
    1   AR   Ar  165   3.656   3.029   1.334
    1   AR   Ar  166   3.200   4.668   3.610
    1   AR   Ar  167   4.407   2.138   2.697
    1   AR   Ar  168   4.507   3.195  -0.541
    1   AR   Ar  169   2.697   3.026   2.375
    1   AR   Ar  170   3.153   3.949   5.446
    1   AR   Ar  171   4.518   3.912   4.423
    1   AR   Ar  172   4.427   5.528   4.453
    1   AR   Ar  173   2.123   3.314   6.668
    1   AR   Ar  174   3.951   4.876   6.069
    1   AR   Ar  175   4.075   3.304   5.848
    1   AR   Ar  176   3.636   4.980   4.906
    1   AR   Ar  177   6.219   5.453  -0.061
    1   AR   Ar  178   2.594   5.758   0.557
    1   AR   Ar  179   4.564   5.930   0.533
    1   AR   Ar  180   2.203   3.518  -1.625
    1   AR   Ar  181   1.530   5.794   0.884
    1   AR   Ar  182   2.625   0.045   2.806
    1   AR   Ar  183   3.631   4.864   2.692
    1   AR   Ar  184   4.111   6.501   1.324
    1   AR   Ar  185   1.958   5.370   3.891
    1   AR   Ar  186   3.936   5.555   3.610
    1   AR   Ar  187   4.040   6.717   2.297
    1   AR   Ar  188   3.080   6.389   1.475
    1   AR   Ar  189   3.138   3.853   6.439
    1   AR   Ar  190   5.193   6.048   5.911
    1   AR   Ar  191   4.755   5.122   5.458
    1   AR   Ar  192   3.927   5.782   5.705
    1   AR   Ar  193   0.913   6.226  -0.858
    1   AR   Ar  194   5.426   4.367  -1.346
    1   AR   Ar  195   6.715   0.549   0.031
    1   AR   Ar  196   4.798   6.603  -0.199
    1   AR   Ar  197   5.245   1.565   0.171
    1   AR   Ar  198   6.799   1.113   0.947
    1   AR   Ar  199   5.837   1.552   1.557
    1   AR   Ar  200   6.225   2.564   0.217
    1   AR   Ar  201   4.885   6.874   3.000
    1   AR   Ar  202   4.986   2.406   4.354
    1   AR   Ar  203   6.497   6.468   4.410
    1   AR   Ar  204   5.147   0.507   3.740
    1   AR   Ar  205   6.016   0.538   3.154
    1   AR   Ar  206   5.115   7.058   4.917
    1   AR   Ar  207   6.897   0.364   6.037
    1   AR   Ar  208   6.747   0.367   3.891
    1   AR   Ar  209   5.608   2.569  -2.092
    1   AR   Ar  210   4.115   0.967   1.127
    1   AR   Ar  211   0.004   3.269   0.209
    1   AR   Ar  212   6.210   3.880  -1.797
    1   AR   Ar  213   3.430   1.698   2.133
    1   AR   Ar  214   3.837   2.935   2.585
    1   AR   Ar  215   6.302   2.553   1.578
    1   AR   Ar  216   7.120   4.321   1.098
    1   AR   Ar  217   4.218   2.922   3.849
    1   AR   Ar  218   4.374   2.555   5.115
    1   AR   Ar  219   5.321   2.013   3.408
    1   AR   Ar  220   5.372   2.732   2.605
    1   AR   Ar  221   5.988   0.482   4.595
    1   AR   Ar  222   4.390   1.608   5.879
    1   AR   Ar  223   0.623   0.334   6.772
    1   AR   Ar  224   5.349   3.258   5.881
    1   AR   Ar  225   5.826   5.022   0.910
    1   AR   Ar  226   4.983   3.856   2.213
    1   AR   Ar  227   0.317   5.289   0.337
    1   AR   Ar  228   4.914   5.853   1.564
    1   AR   Ar  229   6.024   4.410  -0.116
    1   AR   Ar  230   4.424   4.563   3.528
    1   AR   Ar  231   6.392   1.800   2.856
    1   AR   Ar  232   3.970   2.797   0.338
    1   AR   Ar  233   6.269   2.687   4.436
    1   AR   Ar  234   7.118   3.063   5.001
    1   AR   Ar  235   0.127   2.359   4.072
    1   AR   Ar  236   5.216   4.713   4.407
    1   AR   Ar  237   5.320   3.912   5.058
    1   AR   Ar  238   4.404   4.126   5.528
    1   AR   Ar  239   0.042   3.996   8.930
    1   AR   Ar  240   6.464   3.474   5.903
    1   AR   Ar  241   0.624   6.728   0.001
    1   AR   Ar  242   4.612   4.668   0.925
    1   AR   Ar  243   5.733   3.977   2.842
    1   AR   Ar  244   0.608   4.920  -0.955
    1   AR   Ar  245   5.885   0.071   1.252
    1   AR   Ar  246   6.076   5.916   1.636
    1   AR   Ar  247   4.568   3.520   1.244
    1   AR   Ar  248   5.578   6.428   0.498
    1   AR   Ar  249   4.625   5.568   2.460
    1   AR   Ar  250   5.289   6.070   4.554
    1   AR   Ar  251   5.902   5.443   4.070
    1   AR   Ar  252   5.100   5.928   3.399
    1   AR   Ar  253   5.379   4.213   6.187
    1   AR   Ar  254   4.460   5.535   6.934
    1   AR   Ar  255   4.999   2.998   7.225
    1   AR   Ar  256   5.804   6.624   3.760
    7.12000  7.12000 12.00000
Argon-slab step 2275
  256
    1   AR   Ar    1   6.805   1.546  -0.485
    1   AR   Ar    2   6.963   7.051   0.961
    1   AR   Ar    3   0.830   0.025   1.092
    1   AR   Ar    4   1.623   0.431  -0.013
    1   AR   Ar    5   6.776   5.996   0.833
    1   AR   Ar    6   7.015   0.430   2.813
    1   AR   Ar    7   6.803   4.775   3.327
    1   AR   Ar    8   6.510   6.805   2.087
    1   AR   Ar    9   0.877   0.452   3.974
    1   AR   Ar   10   0.991   1.618   4.332
    1   AR   Ar   11   3.084   0.116   4.881
    1   AR   Ar   12   1.236   1.163   3.231
    1   AR   Ar   13   7.010   0.957   4.966
    1   AR   Ar   14   1.232   1.537   7.235
    1   AR   Ar   15   6.485   0.250   9.211
    1   AR   Ar   16   1.012   1.026   5.404
    1   AR   Ar   17   1.230   1.694  -0.419
    1   AR   Ar   18   6.118   2.848  -0.906
    1   AR   Ar   19   1.175   2.717   1.433
    1   AR   Ar   20   5.795   3.793  -2.758
    1   AR   Ar   21   6.193   0.736   2.085
    1   AR   Ar   22   6.915   1.597   1.934
    1   AR   Ar   23   0.917   0.991   0.401
    1   AR   Ar   24   7.087   2.348   0.834
    1   AR   Ar   25   0.155   1.356   3.706
    1   AR   Ar   26   6.047   1.319   4.015
    1   AR   Ar   27   2.196   1.325   3.864
    1   AR   Ar   28   1.073   2.622   4.667
    1   AR   Ar   29   5.265   1.744   6.663
    1   AR   Ar   30   0.736   1.752   6.080
    1   AR   Ar   31   0.481   6.473   7.293
    1   AR   Ar   32   1.765   2.648   5.896
    1   AR   Ar   33   1.801   4.025  -0.465
    1   AR   Ar   34   0.259   5.610   2.890
    1   AR   Ar   35   6.834   5.052   1.981
    1   AR   Ar   36   0.012   0.070  -2.968
    1   AR   Ar   37   6.457   3.305   2.121
    1   AR   Ar   38   7.014   4.150   2.472
    1   AR   Ar   39   1.262   3.594   2.858
    1   AR   Ar   40   1.304   3.991   1.370
    1   AR   Ar   41   0.606   2.289   2.598
    1   AR   Ar   42   6.978   5.193   4.917
    1   AR   Ar   43   6.783   2.539   6.057
    1   AR   Ar   44   0.602   4.114   3.530
    1   AR   Ar   45   0.737   2.889   5.801
    1   AR   Ar   46   1.043   5.996   6.471
    1   AR   Ar   47   6.111   3.111   6.970
    1   AR   Ar   48   6.721   6.377   6.208
    1   AR   Ar   49   6.324   7.097  -2.096
    1   AR   Ar   50   5.638   4.851   2.008
    1   AR   Ar   51   0.699   5.093   1.496
    1   AR   Ar   52   6.853   5.148  -1.440
    1   AR   Ar   53   5.638   5.988   2.560
    1   AR   Ar   54   6.748   6.606   3.227
    1   AR   Ar   55   5.542   4.970   3.265
    1   AR   Ar   56   0.388   6.858   2.162
    1   AR   Ar   57   6.633   3.309   3.189
    1   AR   Ar   58   6.922   5.616   3.929
    1   AR   Ar   59   1.842   5.191   5.645
    1   AR   Ar   60   0.602   6.402   4.082
    1   AR   Ar   61   6.018   5.464   5.482
    1   AR   Ar   62   0.793   5.676   5.491
    1   AR   Ar   63   2.082   6.379   6.882
    1   AR   Ar   64   0.895   7.007   5.843
    1   AR   Ar   65   3.792   0.034   0.636
    1   AR   Ar   66   1.824   1.245   1.152
    1   AR   Ar   67   3.450   6.483  -0.478
    1   AR   Ar   68   3.093   1.461  -1.682
    1   AR   Ar   69   2.785   0.929   1.192
    1   AR   Ar   70   0.941   0.920   2.287
    1   AR   Ar   71   3.221   1.138   3.010
    1   AR   Ar   72   3.299   0.418   1.955
    1   AR   Ar   73   3.115   0.216   3.884
    1   AR   Ar   74   2.451   0.976   4.891
    1   AR   Ar   75   3.572   1.106   5.238
    1   AR   Ar   76   2.254   1.034   2.117
    1   AR   Ar   77   2.484   6.601   5.575
    1   AR   Ar   78   1.872   0.351   6.698
    1   AR   Ar   79   3.246   6.184   6.881
    1   AR   Ar   80   2.950   5.589   6.089
    1   AR   Ar   81   2.496   1.781  -0.309
    1   AR   Ar   82   7.114   4.223  -0.269
    1   AR   Ar   83   1.621   2.262   0.483
    1   AR   Ar   84   0.848   3.524  -1.111
    1   AR   Ar   85   0.895   2.751  -0.153
    1   AR   Ar   86   2.126   3.308   1.265
    1   AR   Ar   87   2.446   2.216   1.407
    1   AR   Ar   88   3.920   4.099   1.689
    1   AR   Ar   89   0.610   3.382   2.074
    1   AR   Ar   90   2.713   1.999   4.968
    1   AR   Ar   91   1.491   2.229   3.663
    1   AR   Ar   92   1.519   1.879   2.123
    1   AR   Ar   93   1.762   1.095   6.059
    1   AR   Ar   94   1.372   0.897   9.606
    1   AR   Ar   95   4.138   0.064   6.259
    1   AR   Ar   96   2.973   0.364   5.929
    1   AR   Ar   97   4.047   2.585  -1.189
    1   AR   Ar   98   3.025   4.854   1.601
    1   AR   Ar   99   0.157   2.607  -1.303
    1   AR   Ar  100   1.934   2.666  -0.568
    1   AR   Ar  101   2.621   4.237   0.818
    1   AR   Ar  102   3.376   3.441   3.498
    1   AR   Ar  103   1.289   4.607   0.559
    1   AR   Ar  104   2.979   3.106  -0.923
    1   AR   Ar  105   2.166   3.194   3.479
    1   AR   Ar  106   2.407   3.506   4.417
    1   AR   Ar  107   2.104   4.001   5.653
    1   AR   Ar  108   3.566   2.889   4.678
    1   AR   Ar  109   1.429   4.125   4.268
    1   AR   Ar  110   1.274   4.682   6.343
    1   AR   Ar  111   4.310   4.002   6.938
    1   AR   Ar  112   1.258   5.361   7.360
    1   AR   Ar  113   2.542   4.865  -0.174
    1   AR   Ar  114   2.774   4.564  -1.328
    1   AR   Ar  115   2.798   3.833  -0.158
    1   AR   Ar  116   5.280   5.358  -1.083
    1   AR   Ar  117   0.813   5.174   3.787
    1   AR   Ar  118   0.674   6.865   3.125
    1   AR   Ar  119   2.281   3.909   2.104
    1   AR   Ar  120   0.930   4.721   2.670
    1   AR   Ar  121   6.604   4.337   5.225
    1   AR   Ar  122   3.151   6.002   4.812
    1   AR   Ar  123   2.602   4.831   4.817
    1   AR   Ar  124   1.940   5.046   1.834
    1   AR   Ar  125   0.521   4.305   5.514
    1   AR   Ar  126   0.151   6.977   5.026
    1   AR   Ar  127   3.106   4.725   7.136
    1   AR   Ar  128   2.303   4.960   6.481
    1   AR   Ar  129   1.736   0.312   2.686
    1   AR   Ar  130   3.611   1.787  -2.656
    1   AR   Ar  131   4.835   0.238   0.813
    1   AR   Ar  132   2.161   2.075  -1.415
    1   AR   Ar  133   4.028   0.265   3.226
    1   AR   Ar  134   4.426   1.193   3.460
    1   AR   Ar  135   5.228   1.235   2.593
    1   AR   Ar  136   5.043   0.289   2.055
    1   AR   Ar  137   2.621   6.248   3.954
    1   AR   Ar  138   4.920   1.375   4.760
    1   AR   Ar  139   5.556   2.121   5.588
    1   AR   Ar  140   4.161   0.557   4.384
    1   AR   Ar  141   3.960   6.595   3.842
    1   AR   Ar  142   3.946   6.881   5.247
    1   AR   Ar  143   5.933   7.099   5.650
    1   AR   Ar  144   4.968   0.709   5.791
    1   AR   Ar  145   3.665   3.826   0.407
    1   AR   Ar  146   4.169   2.176   1.631
    1   AR   Ar  147   6.039   1.758  -1.299
    1   AR   Ar  148   4.629   3.502  -2.370
    1   AR   Ar  149   3.494   1.922   0.911
    1   AR   Ar  150   2.301   1.753   2.927
    1   AR   Ar  151   3.054   2.239   3.510
    1   AR   Ar  152   2.892   2.614   0.109
    1   AR   Ar  153   3.319   1.175   4.218
    1   AR   Ar  154   3.973   1.943   4.075
    1   AR   Ar  155   5.981   1.069   5.915
    1   AR   Ar  156   3.323   4.077   4.438
    1   AR   Ar  157   2.533   3.035   5.454
    1   AR   Ar  158   1.053   3.511   6.667
    1   AR   Ar  159   3.415   2.501   5.703
    1   AR   Ar  160   2.589   2.072   6.268
    1   AR   Ar  161   5.247   2.889   1.669
    1   AR   Ar  162   4.510   5.106  -0.335
    1   AR   Ar  163   5.124   2.834   0.578
    1   AR   Ar  164   3.960   5.302   1.557
    1   AR   Ar  165   3.649   2.998   1.350
    1   AR   Ar  166   3.216   4.662   3.626
    1   AR   Ar  167   4.406   2.139   2.692
    1   AR   Ar  168   4.506   3.209  -0.513
    1   AR   Ar  169   2.705   3.037   2.369
    1   AR   Ar  170   3.146   3.965   5.439
    1   AR   Ar  171   4.535   3.898   4.416
    1   AR   Ar  172   4.466   5.522   4.502
    1   AR   Ar  173   2.138   3.311   6.674
    1   AR   Ar  174   3.968   4.864   6.066
    1   AR   Ar  175   4.063   3.299   5.863
    1   AR   Ar  176   3.642   4.940   4.922
    1   AR   Ar  177   6.204   5.391  -0.031
    1   AR   Ar  178   2.598   5.724   0.553
    1   AR   Ar  179   4.550   5.907   0.536
    1   AR   Ar  180   2.165   3.500  -1.598
    1   AR   Ar  181   1.504   5.776   0.915
    1   AR   Ar  182   2.645   0.076   2.780
    1   AR   Ar  183   3.633   4.852   2.683
    1   AR   Ar  184   4.120   6.516   1.337
    1   AR   Ar  185   1.933   5.371   3.866
    1   AR   Ar  186   3.934   5.545   3.624
    1   AR   Ar  187   4.010   6.707   2.278
    1   AR   Ar  188   3.084   6.417   1.492
    1   AR   Ar  189   3.124   3.820   6.479
    1   AR   Ar  190   5.207   6.020   5.893
    1   AR   Ar  191   4.774   5.116   5.477
    1   AR   Ar  192   3.913   5.799   5.718
    1   AR   Ar  193   0.955   6.258  -0.882
    1   AR   Ar  194   5.405   4.382  -1.345
    1   AR   Ar  195   6.708   0.555  -0.012
    1   AR   Ar  196   4.795   6.619  -0.216
    1   AR   Ar  197   5.257   1.551   0.171
    1   AR   Ar  198   6.799   1.124   0.945
    1   AR   Ar  199   5.822   1.592   1.553
    1   AR   Ar  200   6.223   2.548   0.216
    1   AR   Ar  201   4.901   6.871   2.993
    1   AR   Ar  202   5.005   2.401   4.368
    1   AR   Ar  203   6.498   6.419   4.394
    1   AR   Ar  204   5.126   0.514   3.762
    1   AR   Ar  205   6.005   0.524   3.164
    1   AR   Ar  206   5.110   7.068   4.925
    1   AR   Ar  207   6.921   0.344   6.041
    1   AR   Ar  208   6.761   0.358   3.875
    1   AR   Ar  209   5.617   2.609  -2.103
    1   AR   Ar  210   4.114   0.981   1.105
    1   AR   Ar  211   7.103   3.292   0.210
    1   AR   Ar  212   6.244   3.860  -1.782
    1   AR   Ar  213   3.410   1.686   2.142
    1   AR   Ar  214   3.841   2.930   2.574
    1   AR   Ar  215   6.295   2.553   1.608
    1   AR   Ar  216   7.117   4.331   1.084
    1   AR   Ar  217   4.195   2.937   3.893
    1   AR   Ar  218   4.386   2.562   5.127
    1   AR   Ar  219   5.284   2.001   3.383
    1   AR   Ar  220   5.403   2.724   2.593
    1   AR   Ar  221   5.972   0.466   4.613
    1   AR   Ar  222   4.433   1.651   5.899
    1   AR   Ar  223   0.629   0.345   6.802
    1   AR   Ar  224   5.339   3.282   5.903
    1   AR   Ar  225   5.845   4.999   0.919
    1   AR   Ar  226   4.967   3.863   2.206
    1   AR   Ar  227   0.331   5.271   0.325
    1   AR   Ar  228   4.911   5.863   1.559
    1   AR   Ar  229   6.053   4.410  -0.094
    1   AR   Ar  230   4.406   4.553   3.532
    1   AR   Ar  231   6.372   1.801   2.862
    1   AR   Ar  232   3.993   2.770   0.317
    1   AR   Ar  233   6.255   2.680   4.412
    1   AR   Ar  234   0.015   3.066   4.995
    1   AR   Ar  235   0.163   2.359   4.070
    1   AR   Ar  236   5.211   4.725   4.438
    1   AR   Ar  237   5.324   3.907   5.082
    1   AR   Ar  238   4.448   4.154   5.490
    1   AR   Ar  239   0.025   3.990   8.922
    1   AR   Ar  240   6.471   3.485   5.894
    1   AR   Ar  241   0.619   6.736  -0.024
    1   AR   Ar  242   4.584   4.647   0.879
    1   AR   Ar  243   5.704   3.928   2.863
    1   AR   Ar  244   0.625   4.891  -0.924
    1   AR   Ar  245   5.880   0.051   1.277
    1   AR   Ar  246   6.075   5.946   1.611
    1   AR   Ar  247   4.530   3.502   1.205
    1   AR   Ar  248   5.597   6.419   0.497
    1   AR   Ar  249   4.606   5.527   2.485
    1   AR   Ar  250   5.265   6.089   4.560
    1   AR   Ar  251   5.900   5.443   4.066
    1   AR   Ar  252   5.097   5.914   3.415
    1   AR   Ar  253   5.376   4.224   6.189
    1   AR   Ar  254   4.429   5.553   6.937
    1   AR   Ar  255   5.008   2.993   7.183
    1   AR   Ar  256   5.783   6.631   3.757
    7.12000  7.12000 12.00000
Argon-slab step 2280
  256
    1   AR   Ar    1   6.802   1.514  -0.471
    1   AR   Ar    2   6.972   7.049   0.935
    1   AR   Ar    3   0.829   0.031   1.075
    1   AR   Ar    4   1.635   0.455  -0.043
    1   AR   Ar    5   6.830   5.992   0.842
    1   AR   Ar    6   7.020   0.403   2.831
    1   AR   Ar    7   6.801   4.744   3.303
    1   AR   Ar    8   6.485   6.818   2.099
    1   AR   Ar    9   0.870   0.470   3.988
    1   AR   Ar   10   1.013   1.608   4.338
    1   AR   Ar   11   3.076   0.145   4.838
    1   AR   Ar   12   1.203   1.174   3.241
    1   AR   Ar   13   7.031   0.930   4.923
    1   AR   Ar   14   1.239   1.542   7.253
    1   AR   Ar   15   6.490   0.233   9.209
    1   AR   Ar   16   1.044   1.017   5.398
    1   AR   Ar   17   1.243   1.690  -0.417
    1   AR   Ar   18   6.135   2.826  -0.928
    1   AR   Ar   19   1.173   2.722   1.462
    1   AR   Ar   20   5.776   3.770  -2.719
    1   AR   Ar   21   6.208   0.724   2.086
    1   AR   Ar   22   6.925   1.608   1.946
    1   AR   Ar   23   0.915   1.000   0.415
    1   AR   Ar   24   7.101   2.353   0.827
    1   AR   Ar   25   0.162   1.356   3.720
    1   AR   Ar   26   6.037   1.320   3.992
    1   AR   Ar   27   2.153   1.335   3.881
    1   AR   Ar   28   1.076   2.645   4.674
    1   AR   Ar   29   5.283   1.752   6.704
    1   AR   Ar   30   0.705   1.731   6.089
    1   AR   Ar   31   0.482   6.459   7.285
    1   AR   Ar   32   1.786   2.654   5.913
    1   AR   Ar   33   1.809   4.033  -0.471
    1   AR   Ar   34   0.239   5.597   2.893
    1   AR   Ar   35   6.847   5.041   2.003
    1   AR   Ar   36   0.015   0.101  -3.011
    1   AR   Ar   37   6.460   3.340   2.140
    1   AR   Ar   38   7.037   4.119   2.490
    1   AR   Ar   39   1.261   3.609   2.862
    1   AR   Ar   40   1.284   3.981   1.348
    1   AR   Ar   41   0.585   2.286   2.593
    1   AR   Ar   42   6.977   5.185   4.915
    1   AR   Ar   43   6.763   2.546   6.085
    1   AR   Ar   44   0.593   4.105   3.534
    1   AR   Ar   45   0.755   2.848   5.813
    1   AR   Ar   46   1.025   5.977   6.441
    1   AR   Ar   47   6.118   3.106   7.000
    1   AR   Ar   48   6.713   6.395   6.211
    1   AR   Ar   49   6.303   0.003  -2.089
    1   AR   Ar   50   5.615   4.851   2.014
    1   AR   Ar   51   0.665   5.115   1.473
    1   AR   Ar   52   6.857   5.160  -1.454
    1   AR   Ar   53   5.621   5.996   2.555
    1   AR   Ar   54   6.792   6.570   3.225
    1   AR   Ar   55   5.543   5.048   3.235
    1   AR   Ar   56   0.390   6.883   2.142
    1   AR   Ar   57   6.617   3.291   3.177
    1   AR   Ar   58   6.924   5.628   3.918
    1   AR   Ar   59   1.832   5.190   5.658
    1   AR   Ar   60   0.589   6.415   4.091
    1   AR   Ar   61   6.009   5.450   5.486
    1   AR   Ar   62   0.803   5.681   5.511
    1   AR   Ar   63   2.090   6.363   6.886
    1   AR   Ar   64   0.891   7.033   5.830
    1   AR   Ar   65   3.792   0.030   0.677
    1   AR   Ar   66   1.817   1.285   1.162
    1   AR   Ar   67   3.425   6.493  -0.471
    1   AR   Ar   68   3.097   1.442  -1.667
    1   AR   Ar   69   2.815   0.911   1.202
    1   AR   Ar   70   0.955   0.923   2.273
    1   AR   Ar   71   3.229   1.149   2.994
    1   AR   Ar   72   3.323   0.424   1.940
    1   AR   Ar   73   3.140   0.235   3.847
    1   AR   Ar   74   2.420   0.990   4.866
    1   AR   Ar   75   3.596   1.123   5.233
    1   AR   Ar   76   2.271   1.037   2.115
    1   AR   Ar   77   2.471   6.586   5.573
    1   AR   Ar   78   1.861   0.312   6.690
    1   AR   Ar   79   3.262   6.216   6.863
    1   AR   Ar   80   2.956   5.605   6.086
    1   AR   Ar   81   2.448   1.744  -0.356
    1   AR   Ar   82   0.003   4.255  -0.258
    1   AR   Ar   83   1.629   2.241   0.512
    1   AR   Ar   84   0.832   3.475  -1.099
    1   AR   Ar   85   0.918   2.782  -0.126
    1   AR   Ar   86   2.160   3.297   1.244
    1   AR   Ar   87   2.450   2.186   1.399
    1   AR   Ar   88   3.910   4.122   1.692
    1   AR   Ar   89   0.602   3.390   2.089
    1   AR   Ar   90   2.718   2.003   4.981
    1   AR   Ar   91   1.441   2.210   3.656
    1   AR   Ar   92   1.528   1.866   2.127
    1   AR   Ar   93   1.724   1.074   6.066
    1   AR   Ar   94   1.420   0.883   9.620
    1   AR   Ar   95   4.165   0.113   6.231
    1   AR   Ar   96   2.993   0.372   5.934
    1   AR   Ar   97   4.055   2.572  -1.191
    1   AR   Ar   98   3.029   4.857   1.589
    1   AR   Ar   99   0.167   2.625  -1.311
    1   AR   Ar  100   1.952   2.666  -0.557
    1   AR   Ar  101   2.627   4.264   0.812
    1   AR   Ar  102   3.412   3.483   3.479
    1   AR   Ar  103   1.316   4.608   0.548
    1   AR   Ar  104   2.977   3.125  -0.917
    1   AR   Ar  105   2.164   3.171   3.486
    1   AR   Ar  106   2.438   3.491   4.433
    1   AR   Ar  107   2.098   4.001   5.657
    1   AR   Ar  108   3.525   2.889   4.735
    1   AR   Ar  109   1.405   4.148   4.275
    1   AR   Ar  110   1.269   4.673   6.352
    1   AR   Ar  111   4.288   4.007   6.912
    1   AR   Ar  112   1.256   5.351   7.364
    1   AR   Ar  113   2.533   4.874  -0.141
    1   AR   Ar  114   2.768   4.571  -1.333
    1   AR   Ar  115   2.807   3.843  -0.146
    1   AR   Ar  116   5.288   5.366  -1.080
    1   AR   Ar  117   0.813   5.174   3.817
    1   AR   Ar  118   0.697   6.873   3.132
    1   AR   Ar  119   2.256   3.904   2.096
    1   AR   Ar  120   0.933   4.733   2.665
    1   AR   Ar  121   6.569   4.364   5.295
    1   AR   Ar  122   3.163   5.989   4.797
    1   AR   Ar  123   2.625   4.826   4.810
    1   AR   Ar  124   1.905   5.022   1.822
    1   AR   Ar  125   0.507   4.317   5.549
    1   AR   Ar  126   0.148   6.952   5.022
    1   AR   Ar  127   3.079   4.717   7.109
    1   AR   Ar  128   2.293   4.970   6.479
    1   AR   Ar  129   1.715   0.327   2.730
    1   AR   Ar  130   3.607   1.782  -2.677
    1   AR   Ar  131   4.815   0.261   0.800
    1   AR   Ar  132   2.159   2.080  -1.468
    1   AR   Ar  133   4.019   0.296   3.229
    1   AR   Ar  134   4.461   1.217   3.479
    1   AR   Ar  135   5.238   1.265   2.585
    1   AR   Ar  136   5.050   0.303   2.069
    1   AR   Ar  137   2.615   6.251   3.946
    1   AR   Ar  138   4.928   1.376   4.747
    1   AR   Ar  139   5.583   2.139   5.594
    1   AR   Ar  140   4.158   0.536   4.395
    1   AR   Ar  141   3.949   6.608   3.843
    1   AR   Ar  142   3.958   6.853   5.275
    1   AR   Ar  143   5.955   7.109   5.659
    1   AR   Ar  144   4.972   0.708   5.790
    1   AR   Ar  145   3.689   3.818   0.416
    1   AR   Ar  146   4.173   2.174   1.640
    1   AR   Ar  147   6.091   1.750  -1.292
    1   AR   Ar  148   4.605   3.481  -2.389
    1   AR   Ar  149   3.527   1.911   0.874
    1   AR   Ar  150   2.301   1.746   2.930
    1   AR   Ar  151   3.043   2.230   3.515
    1   AR   Ar  152   2.909   2.612   0.092
    1   AR   Ar  153   3.287   1.174   4.225
    1   AR   Ar  154   3.948   1.968   4.059
    1   AR   Ar  155   5.988   1.070   5.915
    1   AR   Ar  156   3.393   4.061   4.382
    1   AR   Ar  157   2.535   3.055   5.431
    1   AR   Ar  158   1.048   3.557   6.665
    1   AR   Ar  159   3.413   2.487   5.708
    1   AR   Ar  160   2.593   2.076   6.273
    1   AR   Ar  161   5.213   2.942   1.693
    1   AR   Ar  162   4.508   5.113  -0.340
    1   AR   Ar  163   5.121   2.850   0.578
    1   AR   Ar  164   3.978   5.335   1.569
    1   AR   Ar  165   3.634   2.970   1.366
    1   AR   Ar  166   3.231   4.659   3.640
    1   AR   Ar  167   4.414   2.127   2.691
    1   AR   Ar  168   4.515   3.213  -0.497
    1   AR   Ar  169   2.717   3.039   2.364
    1   AR   Ar  170   3.141   3.981   5.434
    1   AR   Ar  171   4.545   3.882   4.406
    1   AR   Ar  172   4.497   5.510   4.554
    1   AR   Ar  173   2.154   3.309   6.679
    1   AR   Ar  174   3.977   4.844   6.072
    1   AR   Ar  175   4.050   3.291   5.881
    1   AR   Ar  176   3.653   4.903   4.942
    1   AR   Ar  177   6.192   5.341  -0.001
    1   AR   Ar  178   2.603   5.690   0.551
    1   AR   Ar  179   4.536   5.880   0.539
    1   AR   Ar  180   2.128   3.482  -1.569
    1   AR   Ar  181   1.476   5.757   0.947
    1   AR   Ar  182   2.690   0.102   2.758
    1   AR   Ar  183   3.638   4.841   2.670
    1   AR   Ar  184   4.135   6.524   1.340
    1   AR   Ar  185   1.907   5.370   3.841
    1   AR   Ar  186   3.928   5.531   3.617
    1   AR   Ar  187   3.980   6.700   2.276
    1   AR   Ar  188   3.086   6.445   1.510
    1   AR   Ar  189   3.111   3.787   6.521
    1   AR   Ar  190   5.219   5.996   5.875
    1   AR   Ar  191   4.799   5.117   5.492
    1   AR   Ar  192   3.901   5.826   5.726
    1   AR   Ar  193   0.962   6.291  -0.905
    1   AR   Ar  194   5.388   4.377  -1.352
    1   AR   Ar  195   6.701   0.560  -0.053
    1   AR   Ar  196   4.791   6.636  -0.234
    1   AR   Ar  197   5.270   1.538   0.172
    1   AR   Ar  198   6.804   1.137   0.942
    1   AR   Ar  199   5.806   1.632   1.549
    1   AR   Ar  200   6.220   2.519   0.202
    1   AR   Ar  201   4.921   6.867   2.985
    1   AR   Ar  202   5.031   2.394   4.376
    1   AR   Ar  203   6.504   6.383   4.390
    1   AR   Ar  204   5.108   0.517   3.789
    1   AR   Ar  205   5.990   0.510   3.171
    1   AR   Ar  206   5.100   7.080   4.934
    1   AR   Ar  207   6.946   0.326   6.044
    1   AR   Ar  208   6.778   0.348   3.864
    1   AR   Ar  209   5.625   2.650  -2.113
    1   AR   Ar  210   4.105   0.993   1.088
    1   AR   Ar  211   7.081   3.312   0.212
    1   AR   Ar  212   6.280   3.838  -1.765
    1   AR   Ar  213   3.387   1.675   2.149
    1   AR   Ar  214   3.837   2.935   2.560
    1   AR   Ar  215   6.283   2.526   1.620
    1   AR   Ar  216   7.107   4.352   1.064
    1   AR   Ar  217   4.180   2.954   3.931
    1   AR   Ar  218   4.400   2.565   5.152
    1   AR   Ar  219   5.248   1.988   3.359
    1   AR   Ar  220   5.439   2.713   2.599
    1   AR   Ar  221   5.957   0.448   4.633
    1   AR   Ar  222   4.475   1.696   5.917
    1   AR   Ar  223   0.636   0.364   6.834
    1   AR   Ar  224   5.327   3.290   5.926
    1   AR   Ar  225   5.864   4.976   0.929
    1   AR   Ar  226   4.942   3.870   2.191
    1   AR   Ar  227   0.346   5.252   0.314
    1   AR   Ar  228   4.914   5.873   1.552
    1   AR   Ar  229   6.079   4.399  -0.072
    1   AR   Ar  230   4.389   4.547   3.522
    1   AR   Ar  231   6.349   1.801   2.869
    1   AR   Ar  232   4.015   2.741   0.298
    1   AR   Ar  233   6.240   2.673   4.389
    1   AR   Ar  234   0.031   3.069   4.989
    1   AR   Ar  235   0.200   2.361   4.068
    1   AR   Ar  236   5.205   4.741   4.468
    1   AR   Ar  237   5.342   3.901   5.104
    1   AR   Ar  238   4.486   4.182   5.451
    1   AR   Ar  239   0.009   3.983   8.913
    1   AR   Ar  240   6.476   3.502   5.884
    1   AR   Ar  241   0.612   6.747  -0.043
    1   AR   Ar  242   4.555   4.626   0.833
    1   AR   Ar  243   5.684   3.880   2.890
    1   AR   Ar  244   0.636   4.897  -0.903
    1   AR   Ar  245   5.873   0.031   1.302
    1   AR   Ar  246   6.072   5.974   1.584
    1   AR   Ar  247   4.524   3.509   1.186
    1   AR   Ar  248   5.617   6.409   0.499
    1   AR   Ar  249   4.585   5.484   2.515
    1   AR   Ar  250   5.248   6.115   4.570
    1   AR   Ar  251   5.904   5.447   4.068
    1   AR   Ar  252   5.086   5.897   3.439
    1   AR   Ar  253   5.361   4.196   6.228
    1   AR   Ar  254   4.397   5.572   6.937
    1   AR   Ar  255   4.988   3.011   7.184
    1   AR   Ar  256   5.753   6.644   3.745
    7.12000  7.12000 12.00000
Argon-slab step 2285
  256
    1   AR   Ar    1   6.799   1.488  -0.457
    1   AR   Ar    2   6.970   7.048   0.909
    1   AR   Ar    3   0.837   0.039   1.060
    1   AR   Ar    4   1.651   0.477  -0.076
    1   AR   Ar    5   6.884   5.985   0.849
    1   AR   Ar    6   7.025   0.383   2.845
    1   AR   Ar    7   6.797   4.714   3.281
    1   AR   Ar    8   6.458   6.822   2.097
    1   AR   Ar    9   0.868   0.461   3.987
    1   AR   Ar   10   1.055   1.586   4.362
    1   AR   Ar   11   3.068   0.174   4.803
    1   AR   Ar   12   1.172   1.189   3.255
    1   AR   Ar   13   7.052   0.903   4.879
    1   AR   Ar   14   1.247   1.546   7.268
    1   AR   Ar   15   6.502   0.215   9.198
    1   AR   Ar   16   1.062   1.005   5.378
    1   AR   Ar   17   1.257   1.688  -0.415
    1   AR   Ar   18   6.154   2.805  -0.950
    1   AR   Ar   19   1.173   2.727   1.490
    1   AR   Ar   20   5.756   3.746  -2.679
    1   AR   Ar   21   6.222   0.715   2.088
    1   AR   Ar   22   6.935   1.620   1.958
    1   AR   Ar   23   0.906   1.014   0.433
    1   AR   Ar   24   7.118   2.360   0.826
    1   AR   Ar   25   0.168   1.352   3.732
    1   AR   Ar   26   5.981   1.316   3.978
    1   AR   Ar   27   2.109   1.344   3.898
    1   AR   Ar   28   1.079   2.670   4.683
    1   AR   Ar   29   5.301   1.762   6.743
    1   AR   Ar   30   0.674   1.713   6.099
    1   AR   Ar   31   0.508   6.455   7.273
    1   AR   Ar   32   1.796   2.654   5.934
    1   AR   Ar   33   1.815   4.040  -0.479
    1   AR   Ar   34   0.218   5.585   2.895
    1   AR   Ar   35   6.857   5.032   2.024
    1   AR   Ar   36   0.018   0.131  -3.054
    1   AR   Ar   37   6.461   3.384   2.161
    1   AR   Ar   38   7.065   4.090   2.511
    1   AR   Ar   39   1.264   3.625   2.869
    1   AR   Ar   40   1.264   3.967   1.334
    1   AR   Ar   41   0.563   2.283   2.587
    1   AR   Ar   42   6.979   5.211   4.939
    1   AR   Ar   43   6.767   2.564   6.090
    1   AR   Ar   44   0.580   4.097   3.538
    1   AR   Ar   45   0.770   2.808   5.824
    1   AR   Ar   46   1.011   5.961   6.419
    1   AR   Ar   47   6.125   3.100   7.027
    1   AR   Ar   48   6.705   6.412   6.212
    1   AR   Ar   49   6.292   0.016  -2.082
    1   AR   Ar   50   5.591   4.852   2.022
    1   AR   Ar   51   0.635   5.137   1.448
    1   AR   Ar   52   6.860   5.172  -1.468
    1   AR   Ar   53   5.606   6.005   2.548
    1   AR   Ar   54   6.833   6.529   3.224
    1   AR   Ar   55   5.546   5.111   3.192
    1   AR   Ar   56   0.396   6.907   2.115
    1   AR   Ar   57   6.601   3.273   3.169
    1   AR   Ar   58   6.930   5.643   3.888
    1   AR   Ar   59   1.819   5.194   5.653
    1   AR   Ar   60   0.572   6.428   4.102
    1   AR   Ar   61   6.002   5.433   5.485
    1   AR   Ar   62   0.809   5.682   5.522
    1   AR   Ar   63   2.099   6.345   6.888
    1   AR   Ar   64   0.888   7.058   5.818
    1   AR   Ar   65   3.783   0.034   0.707
    1   AR   Ar   66   1.806   1.326   1.171
    1   AR   Ar   67   3.400   6.504  -0.461
    1   AR   Ar   68   3.100   1.425  -1.652
    1   AR   Ar   69   2.848   0.896   1.206
    1   AR   Ar   70   0.965   0.925   2.254
    1   AR   Ar   71   3.236   1.154   2.986
    1   AR   Ar   72   3.352   0.428   1.927
    1   AR   Ar   73   3.162   0.251   3.798
    1   AR   Ar   74   2.388   1.003   4.843
    1   AR   Ar   75   3.621   1.139   5.229
    1   AR   Ar   76   2.289   1.040   2.115
    1   AR   Ar   77   2.459   6.571   5.570
    1   AR   Ar   78   1.849   0.265   6.688
    1   AR   Ar   79   3.279   6.251   6.846
    1   AR   Ar   80   2.963   5.619   6.084
    1   AR   Ar   81   2.398   1.704  -0.402
    1   AR   Ar   82   0.015   4.290  -0.247
    1   AR   Ar   83   1.639   2.220   0.542
    1   AR   Ar   84   0.818   3.426  -1.085
    1   AR   Ar   85   0.918   2.790  -0.132
    1   AR   Ar   86   2.195   3.282   1.220
    1   AR   Ar   87   2.458   2.187   1.373
    1   AR   Ar   88   3.894   4.150   1.699
    1   AR   Ar   89   0.594   3.395   2.100
    1   AR   Ar   90   2.725   2.010   4.994
    1   AR   Ar   91   1.394   2.195   3.643
    1   AR   Ar   92   1.539   1.853   2.131
    1   AR   Ar   93   1.699   1.063   6.081
    1   AR   Ar   94   1.467   0.868   9.635
    1   AR   Ar   95   4.190   0.162   6.205
    1   AR   Ar   96   3.015   0.381   5.937
    1   AR   Ar   97   4.060   2.557  -1.195
    1   AR   Ar   98   3.032   4.860   1.581
    1   AR   Ar   99   0.175   2.643  -1.317
    1   AR   Ar  100   1.970   2.670  -0.545
    1   AR   Ar  101   2.631   4.290   0.808
    1   AR   Ar  102   3.443   3.526   3.457
    1   AR   Ar  103   1.344   4.614   0.537
    1   AR   Ar  104   2.961   3.104  -0.936
    1   AR   Ar  105   2.162   3.145   3.487
    1   AR   Ar  106   2.470   3.478   4.454
    1   AR   Ar  107   2.090   4.003   5.664
    1   AR   Ar  108   3.475   2.892   4.790
    1   AR   Ar  109   1.385   4.165   4.285
    1   AR   Ar  110   1.261   4.662   6.364
    1   AR   Ar  111   4.264   4.016   6.874
    1   AR   Ar  112   1.255   5.341   7.366
    1   AR   Ar  113   2.522   4.883  -0.108
    1   AR   Ar  114   2.761   4.577  -1.335
    1   AR   Ar  115   2.816   3.845  -0.166
    1   AR   Ar  116   5.282   5.391  -1.108
    1   AR   Ar  117   0.812   5.173   3.846
    1   AR   Ar  118   0.723   6.882   3.141
    1   AR   Ar  119   2.227   3.908   2.088
    1   AR   Ar  120   0.934   4.744   2.660
    1   AR   Ar  121   6.528   4.385   5.367
    1   AR   Ar  122   3.178   5.974   4.787
    1   AR   Ar  123   2.644   4.819   4.802
    1   AR   Ar  124   1.868   4.996   1.808
    1   AR   Ar  125   0.495   4.328   5.585
    1   AR   Ar  126   0.143   6.927   5.017
    1   AR   Ar  127   3.057   4.709   7.083
    1   AR   Ar  128   2.283   4.971   6.492
    1   AR   Ar  129   1.683   0.342   2.776
    1   AR   Ar  130   3.603   1.777  -2.697
    1   AR   Ar  131   4.801   0.281   0.787
    1   AR   Ar  132   2.157   2.086  -1.519
    1   AR   Ar  133   4.008   0.330   3.227
    1   AR   Ar  134   4.492   1.248   3.496
    1   AR   Ar  135   5.248   1.294   2.576
    1   AR   Ar  136   5.045   0.285   2.063
    1   AR   Ar  137   2.609   6.256   3.936
    1   AR   Ar  138   4.935   1.374   4.735
    1   AR   Ar  139   5.610   2.158   5.600
    1   AR   Ar  140   4.155   0.513   4.406
    1   AR   Ar  141   3.945   6.625   3.850
    1   AR   Ar  142   3.971   6.824   5.300
    1   AR   Ar  143   5.977   7.118   5.667
    1   AR   Ar  144   5.005   0.703   5.788
    1   AR   Ar  145   3.706   3.807   0.437
    1   AR   Ar  146   4.188   2.168   1.652
    1   AR   Ar  147   6.142   1.744  -1.284
    1   AR   Ar  148   4.600   3.476  -2.415
    1   AR   Ar  149   3.556   1.901   0.834
    1   AR   Ar  150   2.299   1.742   2.930
    1   AR   Ar  151   3.032   2.222   3.522
    1   AR   Ar  152   2.927   2.612   0.076
    1   AR   Ar  153   3.253   1.178   4.230
    1   AR   Ar  154   3.933   1.976   4.054
    1   AR   Ar  155   5.995   1.072   5.914
    1   AR   Ar  156   3.466   4.033   4.338
    1   AR   Ar  157   2.548   3.078   5.403
    1   AR   Ar  158   1.044   3.603   6.662
    1   AR   Ar  159   3.412   2.469   5.713
    1   AR   Ar  160   2.598   2.079   6.277
    1   AR   Ar  161   5.179   2.993   1.703
    1   AR   Ar  162   4.506   5.120  -0.343
    1   AR   Ar  163   5.120   2.864   0.575
    1   AR   Ar  164   3.998   5.369   1.581
    1   AR   Ar  165   3.610   2.949   1.379
    1   AR   Ar  166   3.242   4.663   3.644
    1   AR   Ar  167   4.426   2.106   2.692
    1   AR   Ar  168   4.532   3.212  -0.492
    1   AR   Ar  169   2.732   3.034   2.362
    1   AR   Ar  170   3.141   3.997   5.428
    1   AR   Ar  171   4.551   3.864   4.394
    1   AR   Ar  172   4.512   5.492   4.605
    1   AR   Ar  173   2.170   3.307   6.683
    1   AR   Ar  174   3.979   4.831   6.088
    1   AR   Ar  175   4.038   3.287   5.902
    1   AR   Ar  176   3.671   4.869   4.966
    1   AR   Ar  177   6.184   5.314   0.028
    1   AR   Ar  178   2.607   5.658   0.552
    1   AR   Ar  179   4.541   5.867   0.545
    1   AR   Ar  180   2.089   3.463  -1.536
    1   AR   Ar  181   1.449   5.735   0.978
    1   AR   Ar  182   2.686   0.125   2.756
    1   AR   Ar  183   3.645   4.830   2.654
    1   AR   Ar  184   4.157   6.524   1.335
    1   AR   Ar  185   1.882   5.369   3.817
    1   AR   Ar  186   3.922   5.515   3.600
    1   AR   Ar  187   3.948   6.697   2.291
    1   AR   Ar  188   3.087   6.473   1.528
    1   AR   Ar  189   3.100   3.754   6.560
    1   AR   Ar  190   5.227   5.979   5.859
    1   AR   Ar  191   4.831   5.125   5.505
    1   AR   Ar  192   3.894   5.857   5.730
    1   AR   Ar  193   0.961   6.322  -0.931
    1   AR   Ar  194   5.371   4.367  -1.359
    1   AR   Ar  195   6.696   0.561  -0.091
    1   AR   Ar  196   4.786   6.654  -0.251
    1   AR   Ar  197   5.283   1.526   0.174
    1   AR   Ar  198   6.832   1.158   0.933
    1   AR   Ar  199   5.786   1.665   1.545
    1   AR   Ar  200   6.215   2.490   0.187
    1   AR   Ar  201   4.942   6.863   2.977
    1   AR   Ar  202   5.063   2.386   4.378
    1   AR   Ar  203   6.505   6.392   4.405
    1   AR   Ar  204   5.096   0.514   3.820
    1   AR   Ar  205   5.974   0.496   3.176
    1   AR   Ar  206   5.084   7.094   4.945
    1   AR   Ar  207   6.972   0.309   6.044
    1   AR   Ar  208   6.797   0.337   3.859
    1   AR   Ar  209   5.635   2.693  -2.122
    1   AR   Ar  210   4.093   1.007   1.074
    1   AR   Ar  211   7.059   3.330   0.216
    1   AR   Ar  212   6.316   3.815  -1.746
    1   AR   Ar  213   3.361   1.667   2.150
    1   AR   Ar  214   3.821   2.914   2.557
    1   AR   Ar  215   6.272   2.493   1.624
    1   AR   Ar  216   7.097   4.373   1.044
    1   AR   Ar  217   4.172   2.975   3.965
    1   AR   Ar  218   4.410   2.559   5.174
    1   AR   Ar  219   5.213   1.973   3.342
    1   AR   Ar  220   5.480   2.701   2.621
    1   AR   Ar  221   5.946   0.431   4.652
    1   AR   Ar  222   4.517   1.741   5.932
    1   AR   Ar  223   0.643   0.379   6.855
    1   AR   Ar  224   5.322   3.262   5.938
    1   AR   Ar  225   5.883   4.954   0.943
    1   AR   Ar  226   4.912   3.878   2.172
    1   AR   Ar  227   0.361   5.230   0.302
    1   AR   Ar  228   4.925   5.882   1.546
    1   AR   Ar  229   6.101   4.367  -0.052
    1   AR   Ar  230   4.372   4.546   3.489
    1   AR   Ar  231   6.325   1.799   2.877
    1   AR   Ar  232   4.036   2.711   0.284
    1   AR   Ar  233   6.224   2.664   4.365
    1   AR   Ar  234   0.046   3.073   4.984
    1   AR   Ar  235   0.236   2.365   4.066
    1   AR   Ar  236   5.199   4.757   4.496
    1   AR   Ar  237   5.378   3.891   5.119
    1   AR   Ar  238   4.508   4.203   5.415
    1   AR   Ar  239   7.112   3.976   8.905
    1   AR   Ar  240   6.477   3.523   5.875
    1   AR   Ar  241   0.603   6.761  -0.055
    1   AR   Ar  242   4.526   4.606   0.787
    1   AR   Ar  243   5.671   3.832   2.920
    1   AR   Ar  244   0.649   4.902  -0.880
    1   AR   Ar  245   5.864   0.010   1.324
    1   AR   Ar  246   6.067   5.999   1.555
    1   AR   Ar  247   4.521   3.516   1.160
    1   AR   Ar  248   5.637   6.397   0.502
    1   AR   Ar  249   4.565   5.441   2.548
    1   AR   Ar  250   5.245   6.149   4.581
    1   AR   Ar  251   5.912   5.456   4.078
    1   AR   Ar  252   5.062   5.887   3.471
    1   AR   Ar  253   5.346   4.186   6.272
    1   AR   Ar  254   4.369   5.578   6.932
    1   AR   Ar  255   4.967   3.028   7.183
    1   AR   Ar  256   5.728   6.642   3.757
    7.12000  7.12000 12.00000
Argon-slab step 2290
  256
    1   AR   Ar    1   6.798   1.471  -0.444
    1   AR   Ar    2   6.959   7.050   0.883
    1   AR   Ar    3   0.843   0.054   1.045
    1   AR   Ar    4   1.647   0.460  -0.116
    1   AR   Ar    5   6.938   5.977   0.855
    1   AR   Ar    6   7.030   0.369   2.856
    1   AR   Ar    7   6.789   4.701   3.264
    1   AR   Ar    8   6.435   6.811   2.076
    1   AR   Ar    9   0.867   0.434   3.978
    1   AR   Ar   10   1.095   1.556   4.392
    1   AR   Ar   11   3.062   0.200   4.775
    1   AR   Ar   12   1.143   1.207   3.270
    1   AR   Ar   13   7.074   0.875   4.834
    1   AR   Ar   14   1.254   1.550   7.282
    1   AR   Ar   15   6.515   0.196   9.187
    1   AR   Ar   16   1.068   1.000   5.358
    1   AR   Ar   17   1.272   1.686  -0.412
    1   AR   Ar   18   6.173   2.784  -0.973
    1   AR   Ar   19   1.175   2.730   1.516
    1   AR   Ar   20   5.734   3.721  -2.640
    1   AR   Ar   21   6.228   0.715   2.085
    1   AR   Ar   22   6.945   1.631   1.969
    1   AR   Ar   23   0.895   1.029   0.454
    1   AR   Ar   24   0.020   2.373   0.834
    1   AR   Ar   25   0.173   1.345   3.743
    1   AR   Ar   26   5.925   1.313   3.963
    1   AR   Ar   27   2.065   1.354   3.914
    1   AR   Ar   28   1.084   2.694   4.692
    1   AR   Ar   29   5.320   1.771   6.780
    1   AR   Ar   30   0.643   1.695   6.111
    1   AR   Ar   31   0.534   6.452   7.261
    1   AR   Ar   32   1.800   2.652   5.956
    1   AR   Ar   33   1.819   4.047  -0.487
    1   AR   Ar   34   0.199   5.574   2.896
    1   AR   Ar   35   6.865   5.024   2.046
    1   AR   Ar   36   0.020   0.162  -3.095
    1   AR   Ar   37   6.471   3.404   2.178
    1   AR   Ar   38   7.099   4.067   2.534
    1   AR   Ar   39   1.271   3.641   2.875
    1   AR   Ar   40   1.243   3.950   1.325
    1   AR   Ar   41   0.541   2.280   2.582
    1   AR   Ar   42   6.984   5.242   4.961
    1   AR   Ar   43   6.779   2.581   6.090
    1   AR   Ar   44   0.565   4.090   3.541
    1   AR   Ar   45   0.780   2.769   5.835
    1   AR   Ar   46   1.002   5.950   6.414
    1   AR   Ar   47   6.132   3.095   7.052
    1   AR   Ar   48   6.697   6.427   6.213
    1   AR   Ar   49   6.297   0.007  -2.075
    1   AR   Ar   50   5.567   4.855   2.032
    1   AR   Ar   51   0.608   5.159   1.423
    1   AR   Ar   52   6.915   5.174  -1.460
    1   AR   Ar   53   5.591   6.015   2.540
    1   AR   Ar   54   6.871   6.486   3.225
    1   AR   Ar   55   5.555   5.154   3.137
    1   AR   Ar   56   0.406   6.931   2.085
    1   AR   Ar   57   6.588   3.254   3.167
    1   AR   Ar   58   6.901   5.621   3.902
    1   AR   Ar   59   1.802   5.203   5.635
    1   AR   Ar   60   0.554   6.441   4.113
    1   AR   Ar   61   6.000   5.406   5.499
    1   AR   Ar   62   0.811   5.678   5.515
    1   AR   Ar   63   2.108   6.324   6.888
    1   AR   Ar   64   0.886   7.083   5.807
    1   AR   Ar   65   3.764   0.047   0.727
    1   AR   Ar   66   1.794   1.366   1.179
    1   AR   Ar   67   3.377   6.514  -0.451
    1   AR   Ar   68   3.103   1.409  -1.638
    1   AR   Ar   69   2.878   0.887   1.202
    1   AR   Ar   70   0.971   0.926   2.231
    1   AR   Ar   71   3.242   1.152   2.989
    1   AR   Ar   72   3.386   0.429   1.922
    1   AR   Ar   73   3.178   0.263   3.743
    1   AR   Ar   74   2.353   1.014   4.826
    1   AR   Ar   75   3.647   1.155   5.228
    1   AR   Ar   76   2.308   1.041   2.117
    1   AR   Ar   77   2.449   6.555   5.568
    1   AR   Ar   78   1.837   0.213   6.688
    1   AR   Ar   79   3.298   6.288   6.831
    1   AR   Ar   80   2.970   5.622   6.108
    1   AR   Ar   81   2.368   1.678  -0.434
    1   AR   Ar   82   0.029   4.327  -0.236
    1   AR   Ar   83   1.650   2.199   0.570
    1   AR   Ar   84   0.808   3.381  -1.068
    1   AR   Ar   85   0.912   2.791  -0.146
    1   AR   Ar   86   2.230   3.266   1.195
    1   AR   Ar   87   2.479   2.202   1.354
    1   AR   Ar   88   3.876   4.181   1.707
    1   AR   Ar   89   0.596   3.384   2.104
    1   AR   Ar   90   2.733   2.019   5.006
    1   AR   Ar   91   1.368   2.191   3.638
    1   AR   Ar   92   1.549   1.842   2.134
    1   AR   Ar   93   1.688   1.060   6.109
    1   AR   Ar   94   1.515   0.854   9.649
    1   AR   Ar   95   4.213   0.211   6.183
    1   AR   Ar   96   3.037   0.390   5.940
    1   AR   Ar   97   4.063   2.541  -1.200
    1   AR   Ar   98   3.034   4.865   1.575
    1   AR   Ar   99   0.180   2.656  -1.322
    1   AR   Ar  100   1.986   2.677  -0.533
    1   AR   Ar  101   2.633   4.314   0.802
    1   AR   Ar  102   3.471   3.567   3.428
    1   AR   Ar  103   1.374   4.623   0.532
    1   AR   Ar  104   2.946   3.081  -0.956
    1   AR   Ar  105   2.159   3.117   3.486
    1   AR   Ar  106   2.504   3.469   4.473
    1   AR   Ar  107   2.078   4.008   5.673
    1   AR   Ar  108   3.422   2.901   4.838
    1   AR   Ar  109   1.379   4.156   4.301
    1   AR   Ar  110   1.249   4.649   6.378
    1   AR   Ar  111   4.239   4.025   6.834
    1   AR   Ar  112   1.255   5.333   7.365
    1   AR   Ar  113   2.510   4.887  -0.081
    1   AR   Ar  114   2.752   4.581  -1.335
    1   AR   Ar  115   2.826   3.844  -0.186
    1   AR   Ar  116   5.278   5.418  -1.134
    1   AR   Ar  117   0.809   5.171   3.874
    1   AR   Ar  118   0.754   6.891   3.150
    1   AR   Ar  119   2.196   3.918   2.080
    1   AR   Ar  120   0.934   4.754   2.654
    1   AR   Ar  121   6.483   4.411   5.435
    1   AR   Ar  122   3.196   5.959   4.781
    1   AR   Ar  123   2.659   4.812   4.794
    1   AR   Ar  124   1.831   4.968   1.792
    1   AR   Ar  125   0.483   4.340   5.620
    1   AR   Ar  126   0.135   6.913   5.003
    1   AR   Ar  127   3.045   4.707   7.066
    1   AR   Ar  128   2.270   4.968   6.513
    1   AR   Ar  129   1.647   0.357   2.824
    1   AR   Ar  130   3.598   1.772  -2.716
    1   AR   Ar  131   4.793   0.298   0.775
    1   AR   Ar  132   2.156   2.093  -1.569
    1   AR   Ar  133   3.994   0.356   3.224
    1   AR   Ar  134   4.515   1.283   3.511
    1   AR   Ar  135   5.261   1.319   2.563
    1   AR   Ar  136   5.038   0.245   2.042
    1   AR   Ar  137   2.603   6.262   3.924
    1   AR   Ar  138   4.941   1.370   4.722
    1   AR   Ar  139   5.634   2.176   5.605
    1   AR   Ar  140   4.151   0.491   4.417
    1   AR   Ar  141   3.942   6.637   3.862
    1   AR   Ar  142   3.984   6.796   5.318
    1   AR   Ar  143   5.998   0.005   5.674
    1   AR   Ar  144   5.038   0.699   5.783
    1   AR   Ar  145   3.713   3.789   0.460
    1   AR   Ar  146   4.210   2.158   1.665
    1   AR   Ar  147   6.193   1.738  -1.278
    1   AR   Ar  148   4.634   3.499  -2.410
    1   AR   Ar  149   3.579   1.891   0.795
    1   AR   Ar  150   2.287   1.751   2.932
    1   AR   Ar  151   3.022   2.216   3.530
    1   AR   Ar  152   2.944   2.613   0.062
    1   AR   Ar  153   3.218   1.186   4.233
    1   AR   Ar  154   3.925   1.972   4.059
    1   AR   Ar  155   6.005   1.076   5.913
    1   AR   Ar  156   3.542   3.994   4.312
    1   AR   Ar  157   2.567   3.100   5.376
    1   AR   Ar  158   1.040   3.649   6.656
    1   AR   Ar  159   3.393   2.471   5.695
    1   AR   Ar  160   2.603   2.079   6.283
    1   AR   Ar  161   5.149   3.037   1.708
    1   AR   Ar  162   4.504   5.126  -0.345
    1   AR   Ar  163   5.119   2.876   0.572
    1   AR   Ar  164   4.017   5.402   1.593
    1   AR   Ar  165   3.580   2.933   1.391
    1   AR   Ar  166   3.242   4.663   3.636
    1   AR   Ar  167   4.438   2.080   2.693
    1   AR   Ar  168   4.551   3.215  -0.486
    1   AR   Ar  169   2.749   3.024   2.359
    1   AR   Ar  170   3.144   4.014   5.421
    1   AR   Ar  171   4.556   3.849   4.381
    1   AR   Ar  172   4.509   5.473   4.650
    1   AR   Ar  173   2.183   3.305   6.687
    1   AR   Ar  174   3.975   4.832   6.112
    1   AR   Ar  175   4.027   3.288   5.923
    1   AR   Ar  176   3.694   4.839   4.993
    1   AR   Ar  177   6.181   5.312   0.056
    1   AR   Ar  178   2.612   5.629   0.558
    1   AR   Ar  179   4.550   5.856   0.550
    1   AR   Ar  180   2.051   3.445  -1.502
    1   AR   Ar  181   1.421   5.712   1.009
    1   AR   Ar  182   2.673   0.148   2.761
    1   AR   Ar  183   3.654   4.819   2.636
    1   AR   Ar  184   4.186   6.515   1.330
    1   AR   Ar  185   1.859   5.366   3.794
    1   AR   Ar  186   3.917   5.501   3.583
    1   AR   Ar  187   3.915   6.695   2.318
    1   AR   Ar  188   3.089   6.502   1.546
    1   AR   Ar  189   3.094   3.722   6.596
    1   AR   Ar  190   5.233   5.971   5.846
    1   AR   Ar  191   4.840   5.094   5.506
    1   AR   Ar  192   3.893   5.887   5.732
    1   AR   Ar  193   0.962   6.350  -0.960
    1   AR   Ar  194   5.355   4.353  -1.368
    1   AR   Ar  195   6.690   0.553  -0.123
    1   AR   Ar  196   4.781   6.671  -0.266
    1   AR   Ar  197   5.297   1.515   0.177
    1   AR   Ar  198   6.859   1.180   0.925
    1   AR   Ar  199   5.757   1.672   1.558
    1   AR   Ar  200   6.211   2.460   0.172
    1   AR   Ar  201   4.963   6.857   2.972
    1   AR   Ar  202   5.097   2.379   4.377
    1   AR   Ar  203   6.504   6.407   4.426
    1   AR   Ar  204   5.088   0.505   3.856
    1   AR   Ar  205   5.956   0.482   3.178
    1   AR   Ar  206   5.060   7.111   4.959
    1   AR   Ar  207   6.999   0.295   6.042
    1   AR   Ar  208   6.817   0.325   3.860
    1   AR   Ar  209   5.654   2.698  -2.110
    1   AR   Ar  210   4.080   1.024   1.064
    1   AR   Ar  211   7.037   3.345   0.220
    1   AR   Ar  212   6.353   3.792  -1.725
    1   AR   Ar  213   3.335   1.664   2.140
    1   AR   Ar  214   3.802   2.898   2.552
    1   AR   Ar  215   6.270   2.473   1.629
    1   AR   Ar  216   7.085   4.394   1.022
    1   AR   Ar  217   4.167   2.996   3.999
    1   AR   Ar  218   4.408   2.551   5.185
    1   AR   Ar  219   5.187   1.963   3.333
    1   AR   Ar  220   5.526   2.687   2.648
    1   AR   Ar  221   5.942   0.416   4.667
    1   AR   Ar  222   4.559   1.787   5.946
    1   AR   Ar  223   0.651   0.378   6.833
    1   AR   Ar  224   5.316   3.218   5.950
    1   AR   Ar  225   5.901   4.931   0.961
    1   AR   Ar  226   4.878   3.891   2.153
    1   AR   Ar  227   0.376   5.208   0.292
    1   AR   Ar  228   4.946   5.888   1.544
    1   AR   Ar  229   6.118   4.315  -0.032
    1   AR   Ar  230   4.357   4.543   3.457
    1   AR   Ar  231   6.331   1.848   2.873
    1   AR   Ar  232   4.055   2.682   0.273
    1   AR   Ar  233   6.209   2.655   4.342
    1   AR   Ar  234   0.061   3.076   4.979
    1   AR   Ar  235   0.272   2.371   4.064
    1   AR   Ar  236   5.198   4.769   4.523
    1   AR   Ar  237   5.430   3.879   5.129
    1   AR   Ar  238   4.510   4.213   5.382
    1   AR   Ar  239   7.095   3.970   8.897
    1   AR   Ar  240   6.475   3.540   5.869
    1   AR   Ar  241   0.592   6.779  -0.062
    1   AR   Ar  242   4.497   4.586   0.743
    1   AR   Ar  243   5.671   3.832   2.938
    1   AR   Ar  244   0.664   4.908  -0.856
    1   AR   Ar  245   5.851   7.111   1.341
    1   AR   Ar  246   6.059   6.022   1.524
    1   AR   Ar  247   4.513   3.527   1.128
    1   AR   Ar  248   5.657   6.384   0.507
    1   AR   Ar  249   4.546   5.398   2.581
    1   AR   Ar  250   5.251   6.185   4.592
    1   AR   Ar  251   5.920   5.467   4.094
    1   AR   Ar  252   5.024   5.888   3.511
    1   AR   Ar  253   5.330   4.188   6.318
    1   AR   Ar  254   4.341   5.582   6.924
    1   AR   Ar  255   4.948   3.047   7.180
    1   AR   Ar  256   5.709   6.630   3.783
    7.12000  7.12000 12.00000
Argon-slab step 2295
  256
    1   AR   Ar    1   6.800   1.468  -0.432
    1   AR   Ar    2   6.940   7.053   0.856
    1   AR   Ar    3   0.845   0.074   1.032
    1   AR   Ar    4   1.642   0.444  -0.157
    1   AR   Ar    5   6.981   5.967   0.858
    1   AR   Ar    6   7.034   0.360   2.862
    1   AR   Ar    7   6.778   4.701   3.254
    1   AR   Ar    8   6.420   6.796   2.068
    1   AR   Ar    9   0.865   0.409   3.972
    1   AR   Ar   10   1.131   1.523   4.425
    1   AR   Ar   11   3.058   0.223   4.752
    1   AR   Ar   12   1.114   1.226   3.284
    1   AR   Ar   13   7.095   0.847   4.789
    1   AR   Ar   14   1.261   1.552   7.293
    1   AR   Ar   15   6.527   0.178   9.175
    1   AR   Ar   16   1.063   0.992   5.326
    1   AR   Ar   17   1.287   1.685  -0.408
    1   AR   Ar   18   6.193   2.765  -0.995
    1   AR   Ar   19   1.180   2.732   1.540
    1   AR   Ar   20   5.712   3.695  -2.600
    1   AR   Ar   21   6.220   0.728   2.075
    1   AR   Ar   22   6.954   1.642   1.980
    1   AR   Ar   23   0.882   1.045   0.476
    1   AR   Ar   24   0.042   2.385   0.842
    1   AR   Ar   25   0.174   1.337   3.749
    1   AR   Ar   26   5.868   1.310   3.947
    1   AR   Ar   27   2.020   1.366   3.924
    1   AR   Ar   28   1.091   2.719   4.703
    1   AR   Ar   29   5.339   1.782   6.815
    1   AR   Ar   30   0.613   1.677   6.123
    1   AR   Ar   31   0.560   6.448   7.248
    1   AR   Ar   32   1.802   2.648   5.976
    1   AR   Ar   33   1.821   4.053  -0.496
    1   AR   Ar   34   0.182   5.562   2.896
    1   AR   Ar   35   6.869   5.017   2.068
    1   AR   Ar   36   0.021   0.192  -3.136
    1   AR   Ar   37   6.478   3.428   2.186
    1   AR   Ar   38   0.020   4.053   2.561
    1   AR   Ar   39   1.282   3.657   2.883
    1   AR   Ar   40   1.237   3.930   1.328
    1   AR   Ar   41   0.521   2.276   2.577
    1   AR   Ar   42   6.989   5.276   4.981
    1   AR   Ar   43   6.791   2.592   6.091
    1   AR   Ar   44   0.548   4.084   3.544
    1   AR   Ar   45   0.785   2.731   5.845
    1   AR   Ar   46   1.000   5.944   6.426
    1   AR   Ar   47   6.137   3.089   7.073
    1   AR   Ar   48   6.689   6.439   6.214
    1   AR   Ar   49   6.274   0.002  -2.083
    1   AR   Ar   50   5.543   4.859   2.042
    1   AR   Ar   51   0.582   5.180   1.398
    1   AR   Ar   52   6.970   5.175  -1.452
    1   AR   Ar   53   5.576   6.029   2.529
    1   AR   Ar   54   6.904   6.445   3.228
    1   AR   Ar   55   5.571   5.181   3.078
    1   AR   Ar   56   0.391   6.941   2.085
    1   AR   Ar   57   6.576   3.233   3.173
    1   AR   Ar   58   6.881   5.596   3.913
    1   AR   Ar   59   1.785   5.214   5.610
    1   AR   Ar   60   0.534   6.452   4.124
    1   AR   Ar   61   6.001   5.366   5.536
    1   AR   Ar   62   0.808   5.668   5.489
    1   AR   Ar   63   2.117   6.300   6.887
    1   AR   Ar   64   0.886   7.108   5.797
    1   AR   Ar   65   3.787   0.069   0.730
    1   AR   Ar   66   1.781   1.401   1.189
    1   AR   Ar   67   3.354   6.524  -0.439
    1   AR   Ar   68   3.106   1.394  -1.623
    1   AR   Ar   69   2.905   0.884   1.189
    1   AR   Ar   70   0.975   0.927   2.205
    1   AR   Ar   71   3.241   1.147   2.987
    1   AR   Ar   72   3.425   0.428   1.924
    1   AR   Ar   73   3.180   0.272   3.692
    1   AR   Ar   74   2.318   1.022   4.817
    1   AR   Ar   75   3.641   1.157   5.215
    1   AR   Ar   76   2.329   1.042   2.120
    1   AR   Ar   77   2.440   6.538   5.567
    1   AR   Ar   78   1.828   0.199   6.659
    1   AR   Ar   79   3.319   6.327   6.817
    1   AR   Ar   80   2.976   5.621   6.129
    1   AR   Ar   81   2.353   1.661  -0.456
    1   AR   Ar   82   0.044   4.363  -0.225
    1   AR   Ar   83   1.661   2.183   0.595
    1   AR   Ar   84   0.806   3.346  -1.048
    1   AR   Ar   85   0.906   2.791  -0.159
    1   AR   Ar   86   2.246   3.260   1.181
    1   AR   Ar   87   2.510   2.214   1.347
    1   AR   Ar   88   3.858   4.212   1.716
    1   AR   Ar   89   0.597   3.369   2.105
    1   AR   Ar   90   2.740   2.027   5.016
    1   AR   Ar   91   1.354   2.196   3.640
    1   AR   Ar   92   1.534   1.840   2.134
    1   AR   Ar   93   1.685   1.062   6.144
    1   AR   Ar   94   1.562   0.839   9.664
    1   AR   Ar   95   4.233   0.261   6.164
    1   AR   Ar   96   3.059   0.398   5.940
    1   AR   Ar   97   4.065   2.525  -1.205
    1   AR   Ar   98   3.037   4.873   1.574
    1   AR   Ar   99   0.176   2.662  -1.329
    1   AR   Ar  100   2.001   2.686  -0.521
    1   AR   Ar  101   2.632   4.333   0.796
    1   AR   Ar  102   3.496   3.604   3.386
    1   AR   Ar  103   1.405   4.635   0.524
    1   AR   Ar  104   2.931   3.056  -0.976
    1   AR   Ar  105   2.157   3.089   3.483
    1   AR   Ar  106   2.538   3.467   4.479
    1   AR   Ar  107   2.065   4.016   5.684
    1   AR   Ar  108   3.378   2.911   4.866
    1   AR   Ar  109   1.373   4.147   4.318
    1   AR   Ar  110   1.236   4.639   6.391
    1   AR   Ar  111   4.215   4.033   6.792
    1   AR   Ar  112   1.255   5.324   7.362
    1   AR   Ar  113   2.495   4.883  -0.064
    1   AR   Ar  114   2.743   4.583  -1.334
    1   AR   Ar  115   2.838   3.841  -0.206
    1   AR   Ar  116   5.273   5.447  -1.159
    1   AR   Ar  117   0.803   5.169   3.902
    1   AR   Ar  118   0.786   6.900   3.157
    1   AR   Ar  119   2.163   3.929   2.071
    1   AR   Ar  120   0.933   4.763   2.648
    1   AR   Ar  121   6.464   4.429   5.473
    1   AR   Ar  122   3.216   5.943   4.776
    1   AR   Ar  123   2.671   4.805   4.785
    1   AR   Ar  124   1.792   4.939   1.774
    1   AR   Ar  125   0.471   4.352   5.655
    1   AR   Ar  126   0.122   6.922   4.977
    1   AR   Ar  127   3.056   4.705   7.066
    1   AR   Ar  128   2.249   4.964   6.534
    1   AR   Ar  129   1.611   0.373   2.873
    1   AR   Ar  130   3.583   1.767  -2.733
    1   AR   Ar  131   4.791   0.312   0.764
    1   AR   Ar  132   2.156   2.101  -1.617
    1   AR   Ar  133   3.982   0.367   3.221
    1   AR   Ar  134   4.525   1.309   3.526
    1   AR   Ar  135   5.275   1.337   2.544
    1   AR   Ar  136   5.030   0.207   2.020
    1   AR   Ar  137   2.598   6.270   3.911
    1   AR   Ar  138   4.940   1.370   4.708
    1   AR   Ar  139   5.658   2.194   5.611
    1   AR   Ar  140   4.145   0.469   4.428
    1   AR   Ar  141   3.941   6.645   3.876
    1   AR   Ar  142   3.996   6.775   5.327
    1   AR   Ar  143   6.018   0.011   5.681
    1   AR   Ar  144   5.072   0.697   5.775
    1   AR   Ar  145   3.724   3.763   0.466
    1   AR   Ar  146   4.235   2.145   1.677
    1   AR   Ar  147   6.243   1.733  -1.274
    1   AR   Ar  148   4.669   3.522  -2.405
    1   AR   Ar  149   3.597   1.884   0.756
    1   AR   Ar  150   2.260   1.773   2.944
    1   AR   Ar  151   3.012   2.211   3.538
    1   AR   Ar  152   2.960   2.614   0.049
    1   AR   Ar  153   3.183   1.197   4.234
    1   AR   Ar  154   3.918   1.967   4.067
    1   AR   Ar  155   6.018   1.083   5.911
    1   AR   Ar  156   3.616   3.953   4.305
    1   AR   Ar  157   2.584   3.116   5.364
    1   AR   Ar  158   1.037   3.690   6.649
    1   AR   Ar  159   3.384   2.485   5.702
    1   AR   Ar  160   2.608   2.076   6.289
    1   AR   Ar  161   5.120   3.064   1.710
    1   AR   Ar  162   4.503   5.133  -0.346
    1   AR   Ar  163   5.122   2.886   0.566
    1   AR   Ar  164   4.033   5.433   1.604
    1   AR   Ar  165   3.546   2.921   1.401
    1   AR   Ar  166   3.239   4.669   3.623
    1   AR   Ar  167   4.445   2.051   2.691
    1   AR   Ar  168   4.572   3.220  -0.480
    1   AR   Ar  169   2.765   3.013   2.357
    1   AR   Ar  170   3.149   4.029   5.416
    1   AR   Ar  171   4.570   3.838   4.370
    1   AR   Ar  172   4.492   5.464   4.686
    1   AR   Ar  173   2.177   3.301   6.683
    1   AR   Ar  174   3.968   4.834   6.137
    1   AR   Ar  175   4.017   3.294   5.945
    1   AR   Ar  176   3.684   4.829   5.026
    1   AR   Ar  177   6.188   5.302   0.075
    1   AR   Ar  178   2.618   5.609   0.575
    1   AR   Ar  179   4.560   5.845   0.552
    1   AR   Ar  180   2.011   3.427  -1.465
    1   AR   Ar  181   1.396   5.689   1.038
    1   AR   Ar  182   2.665   0.171   2.764
    1   AR   Ar  183   3.661   4.807   2.615
    1   AR   Ar  184   4.216   6.503   1.329
    1   AR   Ar  185   1.838   5.364   3.772
    1   AR   Ar  186   3.913   5.492   3.566
    1   AR   Ar  187   3.883   6.693   2.350
    1   AR   Ar  188   3.091   6.531   1.564
    1   AR   Ar  189   3.096   3.694   6.628
    1   AR   Ar  190   5.234   5.975   5.836
    1   AR   Ar  191   4.859   5.075   5.516
    1   AR   Ar  192   3.896   5.909   5.735
    1   AR   Ar  193   0.963   6.377  -0.990
    1   AR   Ar  194   5.340   4.337  -1.376
    1   AR   Ar  195   6.684   0.532  -0.149
    1   AR   Ar  196   4.775   6.687  -0.278
    1   AR   Ar  197   5.312   1.504   0.181
    1   AR   Ar  198   6.886   1.200   0.916
    1   AR   Ar  199   5.718   1.644   1.598
    1   AR   Ar  200   6.206   2.430   0.156
    1   AR   Ar  201   4.983   6.852   2.969
    1   AR   Ar  202   5.131   2.372   4.374
    1   AR   Ar  203   6.501   6.426   4.451
    1   AR   Ar  204   5.085   0.490   3.894
    1   AR   Ar  205   5.937   0.468   3.180
    1   AR   Ar  206   5.029   0.012   4.975
    1   AR   Ar  207   7.026   0.286   6.038
    1   AR   Ar  208   6.836   0.311   3.868
    1   AR   Ar  209   5.674   2.705  -2.096
    1   AR   Ar  210   4.066   1.040   1.058
    1   AR   Ar  211   7.014   3.359   0.225
    1   AR   Ar  212   6.361   3.804  -1.726
    1   AR   Ar  213   3.309   1.666   2.122
    1   AR   Ar  214   3.783   2.885   2.546
    1   AR   Ar  215   6.277   2.469   1.636
    1   AR   Ar  216   7.073   4.414   0.999
    1   AR   Ar  217   4.161   3.012   4.032
    1   AR   Ar  218   4.404   2.551   5.195
    1   AR   Ar  219   5.179   1.965   3.338
    1   AR   Ar  220   5.574   2.675   2.675
    1   AR   Ar  221   5.943   0.403   4.677
    1   AR   Ar  222   4.601   1.831   5.958
    1   AR   Ar  223   0.661   0.377   6.811
    1   AR   Ar  224   5.318   3.173   5.957
    1   AR   Ar  225   5.917   4.906   0.985
    1   AR   Ar  226   4.841   3.912   2.138
    1   AR   Ar  227   0.393   5.186   0.282
    1   AR   Ar  228   4.977   5.890   1.546
    1   AR   Ar  229   6.132   4.252  -0.011
    1   AR   Ar  230   4.343   4.538   3.426
    1   AR   Ar  231   6.335   1.895   2.869
    1   AR   Ar  232   4.078   2.664   0.281
    1   AR   Ar  233   6.194   2.646   4.318
    1   AR   Ar  234   0.075   3.079   4.976
    1   AR   Ar  235   0.306   2.378   4.061
    1   AR   Ar  236   5.202   4.773   4.549
    1   AR   Ar  237   5.490   3.866   5.136
    1   AR   Ar  238   4.498   4.204   5.350
    1   AR   Ar  239   7.078   3.963   8.889
    1   AR   Ar  240   6.470   3.548   5.868
    1   AR   Ar  241   0.580   6.798  -0.065
    1   AR   Ar  242   4.467   4.568   0.699
    1   AR   Ar  243   5.675   3.843   2.951
    1   AR   Ar  244   0.681   4.915  -0.832
    1   AR   Ar  245   5.831   7.095   1.347
    1   AR   Ar  246   6.048   6.040   1.490
    1   AR   Ar  247   4.498   3.544   1.091
    1   AR   Ar  248   5.675   6.369   0.513
    1   AR   Ar  249   4.551   5.400   2.578
    1   AR   Ar  250   5.260   6.216   4.606
    1   AR   Ar  251   5.923   5.480   4.112
    1   AR   Ar  252   4.975   5.897   3.556
    1   AR   Ar  253   5.313   4.195   6.363
    1   AR   Ar  254   4.311   5.585   6.913
    1   AR   Ar  255   4.929   3.066   7.175
    1   AR   Ar  256   5.693   6.625   3.803
    7.12000  7.12000 12.00000
Argon-slab step 2300
  256
    1   AR   Ar    1   6.806   1.477  -0.419
    1   AR   Ar    2   6.952   7.068   0.847
    1   AR   Ar    3   0.851   0.094   1.019
    1   AR   Ar    4   1.635   0.429  -0.197
    1   AR   Ar    5   6.979   5.961   0.847
    1   AR   Ar    6   7.037   0.355   2.863
    1   AR   Ar    7   6.762   4.704   3.247
    1   AR   Ar    8   6.415   6.779   2.076
    1   AR   Ar    9   0.861   0.388   3.970
    1   AR   Ar   10   1.161   1.491   4.459
    1   AR   Ar   11   3.056   0.245   4.733
    1   AR   Ar   12   1.087   1.246   3.296
    1   AR   Ar   13   7.118   0.821   4.743
    1   AR   Ar   14   1.268   1.554   7.302
    1   AR   Ar   15   6.521   0.182   9.185
    1   AR   Ar   16   1.054   0.982   5.292
    1   AR   Ar   17   1.300   1.686  -0.402
    1   AR   Ar   18   6.213   2.749  -1.017
    1   AR   Ar   19   1.189   2.730   1.561
    1   AR   Ar   20   5.691   3.671  -2.560
    1   AR   Ar   21   6.213   0.744   2.066
    1   AR   Ar   22   6.963   1.651   1.990
    1   AR   Ar   23   0.869   1.062   0.498
    1   AR   Ar   24   0.064   2.396   0.850
    1   AR   Ar   25   0.169   1.331   3.739
    1   AR   Ar   26   5.817   1.302   3.934
    1   AR   Ar   27   1.980   1.379   3.925
    1   AR   Ar   28   1.100   2.743   4.715
    1   AR   Ar   29   5.359   1.793   6.847
    1   AR   Ar   30   0.583   1.657   6.136
    1   AR   Ar   31   0.586   6.446   7.236
    1   AR   Ar   32   1.803   2.643   5.991
    1   AR   Ar   33   1.822   4.059  -0.505
    1   AR   Ar   34   0.170   5.548   2.894
    1   AR   Ar   35   6.871   5.008   2.090
    1   AR   Ar   36   0.022   0.222  -3.176
    1   AR   Ar   37   6.477   3.445   2.182
    1   AR   Ar   38   0.068   4.048   2.592
    1   AR   Ar   39   1.296   3.673   2.889
    1   AR   Ar   40   1.253   3.908   1.347
    1   AR   Ar   41   0.501   2.273   2.573
    1   AR   Ar   42   6.995   5.310   5.001
    1   AR   Ar   43   6.805   2.599   6.091
    1   AR   Ar   44   0.529   4.080   3.548
    1   AR   Ar   45   0.785   2.696   5.853
    1   AR   Ar   46   1.002   5.939   6.445
    1   AR   Ar   47   6.142   3.083   7.093
    1   AR   Ar   48   6.682   6.446   6.214
    1   AR   Ar   49   6.243   7.118  -2.095
    1   AR   Ar   50   5.517   4.864   2.052
    1   AR   Ar   51   0.554   5.200   1.375
    1   AR   Ar   52   7.022   5.176  -1.444
    1   AR   Ar   53   5.561   6.049   2.514
    1   AR   Ar   54   6.934   6.411   3.233
    1   AR   Ar   55   5.590   5.200   3.022
    1   AR   Ar   56   0.372   6.947   2.090
    1   AR   Ar   57   6.566   3.210   3.185
    1   AR   Ar   58   6.874   5.571   3.921
    1   AR   Ar   59   1.769   5.224   5.584
    1   AR   Ar   60   0.513   6.461   4.133
    1   AR   Ar   61   6.004   5.326   5.570
    1   AR   Ar   62   0.801   5.656   5.454
    1   AR   Ar   63   2.127   6.272   6.885
    1   AR   Ar   64   0.889   0.010   5.787
    1   AR   Ar   65   3.800   0.092   0.729
    1   AR   Ar   66   1.769   1.425   1.204
    1   AR   Ar   67   3.332   6.533  -0.426
    1   AR   Ar   68   3.108   1.381  -1.608
    1   AR   Ar   69   2.929   0.887   1.170
    1   AR   Ar   70   0.975   0.927   2.178
    1   AR   Ar   71   3.235   1.141   2.983
    1   AR   Ar   72   3.468   0.428   1.930
    1   AR   Ar   73   3.158   0.278   3.654
    1   AR   Ar   74   2.281   1.027   4.818
    1   AR   Ar   75   3.642   1.142   5.234
    1   AR   Ar   76   2.350   1.041   2.124
    1   AR   Ar   77   2.433   6.521   5.566
    1   AR   Ar   78   1.818   0.190   6.624
    1   AR   Ar   79   3.341   6.368   6.804
    1   AR   Ar   80   2.988   5.609   6.148
    1   AR   Ar   81   2.340   1.645  -0.478
    1   AR   Ar   82   0.057   4.392  -0.215
    1   AR   Ar   83   1.669   2.176   0.611
    1   AR   Ar   84   0.815   3.323  -1.026
    1   AR   Ar   85   0.900   2.788  -0.169
    1   AR   Ar   86   2.234   3.269   1.186
    1   AR   Ar   87   2.543   2.225   1.341
    1   AR   Ar   88   3.841   4.241   1.722
    1   AR   Ar   89   0.599   3.351   2.104
    1   AR   Ar   90   2.746   2.033   5.024
    1   AR   Ar   91   1.342   2.206   3.639
    1   AR   Ar   92   1.503   1.845   2.134
    1   AR   Ar   93   1.683   1.072   6.181
    1   AR   Ar   94   1.610   0.825   9.678
    1   AR   Ar   95   4.248   0.309   6.148
    1   AR   Ar   96   3.073   0.406   5.946
    1   AR   Ar   97   4.066   2.510  -1.209
    1   AR   Ar   98   3.040   4.886   1.576
    1   AR   Ar   99   0.161   2.657  -1.339
    1   AR   Ar  100   2.013   2.696  -0.509
    1   AR   Ar  101   2.629   4.345   0.792
    1   AR   Ar  102   3.519   3.637   3.334
    1   AR   Ar  103   1.437   4.649   0.515
    1   AR   Ar  104   2.918   3.031  -0.996
    1   AR   Ar  105   2.151   3.067   3.484
    1   AR   Ar  106   2.572   3.474   4.467
    1   AR   Ar  107   2.051   4.025   5.696
    1   AR   Ar  108   3.385   2.916   4.872
    1   AR   Ar  109   1.368   4.139   4.334
    1   AR   Ar  110   1.225   4.639   6.402
    1   AR   Ar  111   4.192   4.039   6.750
    1   AR   Ar  112   1.256   5.317   7.357
    1   AR   Ar  113   2.477   4.871  -0.061
    1   AR   Ar  114   2.733   4.584  -1.329
    1   AR   Ar  115   2.850   3.837  -0.226
    1   AR   Ar  116   5.268   5.475  -1.182
    1   AR   Ar  117   0.792   5.165   3.928
    1   AR   Ar  118   0.815   6.905   3.160
    1   AR   Ar  119   2.129   3.940   2.062
    1   AR   Ar  120   0.924   4.766   2.651
    1   AR   Ar  121   6.484   4.439   5.461
    1   AR   Ar  122   3.238   5.927   4.774
    1   AR   Ar  123   2.678   4.797   4.775
    1   AR   Ar  124   1.771   4.925   1.763
    1   AR   Ar  125   0.459   4.364   5.689
    1   AR   Ar  126   0.114   6.913   4.993
    1   AR   Ar  127   3.080   4.668   7.051
    1   AR   Ar  128   2.221   4.960   6.554
    1   AR   Ar  129   1.577   0.389   2.921
    1   AR   Ar  130   3.553   1.760  -2.748
    1   AR   Ar  131   4.796   0.323   0.753
    1   AR   Ar  132   2.157   2.109  -1.661
    1   AR   Ar  133   3.996   0.382   3.202
    1   AR   Ar  134   4.520   1.318   3.545
    1   AR   Ar  135   5.291   1.350   2.523
    1   AR   Ar  136   5.014   0.206   2.027
    1   AR   Ar  137   2.594   6.279   3.898
    1   AR   Ar  138   4.911   1.396   4.691
    1   AR   Ar  139   5.681   2.210   5.616
    1   AR   Ar  140   4.138   0.448   4.439
    1   AR   Ar  141   3.942   6.649   3.893
    1   AR   Ar  142   4.009   6.770   5.325
    1   AR   Ar  143   6.036   0.015   5.686
    1   AR   Ar  144   5.105   0.700   5.764
    1   AR   Ar  145   3.725   3.743   0.467
    1   AR   Ar  146   4.261   2.133   1.684
    1   AR   Ar  147   6.231   1.756  -1.262
    1   AR   Ar  148   4.703   3.544  -2.399
    1   AR   Ar  149   3.607   1.881   0.719
    1   AR   Ar  150   2.230   1.785   2.962
    1   AR   Ar  151   3.003   2.208   3.547
    1   AR   Ar  152   2.977   2.615   0.037
    1   AR   Ar  153   3.149   1.210   4.232
    1   AR   Ar  154   3.913   1.963   4.079
    1   AR   Ar  155   6.036   1.093   5.909
    1   AR   Ar  156   3.673   3.916   4.311
    1   AR   Ar  157   2.586   3.127   5.381
    1   AR   Ar  158   1.034   3.723   6.643
    1   AR   Ar  159   3.383   2.491   5.738
    1   AR   Ar  160   2.615   2.071   6.297
    1   AR   Ar  161   5.065   3.063   1.695
    1   AR   Ar  162   4.504   5.161  -0.357
    1   AR   Ar  163   5.127   2.893   0.558
    1   AR   Ar  164   4.046   5.461   1.615
    1   AR   Ar  165   3.511   2.911   1.409
    1   AR   Ar  166   3.225   4.672   3.610
    1   AR   Ar  167   4.443   2.023   2.685
    1   AR   Ar  168   4.595   3.226  -0.475
    1   AR   Ar  169   2.776   3.001   2.353
    1   AR   Ar  170   3.156   4.040   5.412
    1   AR   Ar  171   4.608   3.835   4.362
    1   AR   Ar  172   4.474   5.461   4.700
    1   AR   Ar  173   2.155   3.296   6.673
    1   AR   Ar  174   3.958   4.837   6.159
    1   AR   Ar  175   4.009   3.303   5.966
    1   AR   Ar  176   3.679   4.823   5.058
    1   AR   Ar  177   6.199   5.294   0.090
    1   AR   Ar  178   2.626   5.599   0.602
    1   AR   Ar  179   4.570   5.832   0.552
    1   AR   Ar  180   1.971   3.408  -1.426
    1   AR   Ar  181   1.375   5.668   1.063
    1   AR   Ar  182   2.659   0.195   2.765
    1   AR   Ar  183   3.666   4.795   2.594
    1   AR   Ar  184   4.243   6.493   1.331
    1   AR   Ar  185   1.836   5.361   3.766
    1   AR   Ar  186   3.910   5.487   3.550
    1   AR   Ar  187   3.854   6.689   2.386
    1   AR   Ar  188   3.090   6.545   1.570
    1   AR   Ar  189   3.108   3.669   6.657
    1   AR   Ar  190   5.232   5.988   5.827
    1   AR   Ar  191   4.887   5.065   5.540
    1   AR   Ar  192   3.902   5.914   5.744
    1   AR   Ar  193   0.964   6.403  -1.021
    1   AR   Ar  194   5.325   4.321  -1.385
    1   AR   Ar  195   6.677   0.498  -0.169
    1   AR   Ar  196   4.783   6.695  -0.294
    1   AR   Ar  197   5.327   1.494   0.186
    1   AR   Ar  198   6.913   1.221   0.906
    1   AR   Ar  199   5.674   1.609   1.637
    1   AR   Ar  200   6.202   2.400   0.141
    1   AR   Ar  201   5.001   6.847   2.968
    1   AR   Ar  202   5.164   2.367   4.371
    1   AR   Ar  203   6.497   6.445   4.476
    1   AR   Ar  204   5.083   0.473   3.933
    1   AR   Ar  205   5.918   0.453   3.180
    1   AR   Ar  206   4.992   0.035   4.992
    1   AR   Ar  207   7.052   0.283   6.032
    1   AR   Ar  208   6.853   0.294   3.882
    1   AR   Ar  209   5.694   2.712  -2.080
    1   AR   Ar  210   4.054   1.053   1.058
    1   AR   Ar  211   6.991   3.373   0.231
    1   AR   Ar  212   6.363   3.824  -1.732
    1   AR   Ar  213   3.282   1.673   2.095
    1   AR   Ar  214   3.766   2.871   2.540
    1   AR   Ar  215   6.291   2.475   1.643
    1   AR   Ar  216   7.083   4.407   0.995
    1   AR   Ar  217   4.151   3.017   4.061
    1   AR   Ar  218   4.399   2.552   5.202
    1   AR   Ar  219   5.195   1.984   3.355
    1   AR   Ar  220   5.614   2.671   2.683
    1   AR   Ar  221   5.948   0.392   4.684
    1   AR   Ar  222   4.645   1.873   5.970
    1   AR   Ar  223   0.673   0.377   6.789
    1   AR   Ar  224   5.353   3.146   5.939
    1   AR   Ar  225   5.933   4.881   1.014
    1   AR   Ar  226   4.802   3.943   2.129
    1   AR   Ar  227   0.412   5.167   0.275
    1   AR   Ar  228   5.019   5.888   1.553
    1   AR   Ar  229   6.144   4.186   0.010
    1   AR   Ar  230   4.332   4.530   3.396
    1   AR   Ar  231   6.338   1.942   2.866
    1   AR   Ar  232   4.109   2.667   0.314
    1   AR   Ar  233   6.181   2.636   4.293
    1   AR   Ar  234   0.088   3.081   4.974
    1   AR   Ar  235   0.339   2.384   4.057
    1   AR   Ar  236   5.212   4.771   4.571
    1   AR   Ar  237   5.553   3.854   5.143
    1   AR   Ar  238   4.486   4.202   5.334
    1   AR   Ar  239   7.061   3.956   8.880
    1   AR   Ar  240   6.462   3.545   5.872
    1   AR   Ar  241   0.567   6.820  -0.064
    1   AR   Ar  242   4.437   4.552   0.656
    1   AR   Ar  243   5.679   3.856   2.962
    1   AR   Ar  244   0.703   4.924  -0.807
    1   AR   Ar  245   5.804   7.084   1.342
    1   AR   Ar  246   6.038   6.050   1.453
    1   AR   Ar  247   4.480   3.563   1.055
    1   AR   Ar  248   5.692   6.354   0.519
    1   AR   Ar  249   4.565   5.413   2.566
    1   AR   Ar  250   5.269   6.238   4.626
    1   AR   Ar  251   5.915   5.492   4.133
    1   AR   Ar  252   4.921   5.905   3.603
    1   AR   Ar  253   5.301   4.198   6.381
    1   AR   Ar  254   4.280   5.588   6.900
    1   AR   Ar  255   4.910   3.085   7.167
    1   AR   Ar  256   5.682   6.627   3.815
    7.12000  7.12000 12.00000
Argon-slab step 2305
  256
    1   AR   Ar    1   6.814   1.494  -0.405
    1   AR   Ar    2   6.969   7.086   0.844
    1   AR   Ar    3   0.877   0.107   1.056
    1   AR   Ar    4   1.627   0.415  -0.235
    1   AR   Ar    5   6.976   5.954   0.835
    1   AR   Ar    6   7.037   0.353   2.862
    1   AR   Ar    7   6.741   4.708   3.245
    1   AR   Ar    8   6.409   6.774   2.071
    1   AR   Ar    9   0.857   0.373   3.976
    1   AR   Ar   10   1.181   1.467   4.488
    1   AR   Ar   11   3.055   0.264   4.716
    1   AR   Ar   12   1.062   1.265   3.304
    1   AR   Ar   13   0.022   0.799   4.701
    1   AR   Ar   14   1.274   1.555   7.308
    1   AR   Ar   15   6.502   0.203   9.209
    1   AR   Ar   16   1.042   0.965   5.268
    1   AR   Ar   17   1.309   1.688  -0.394
    1   AR   Ar   18   6.233   2.740  -1.037
    1   AR   Ar   19   1.202   2.724   1.577
    1   AR   Ar   20   5.677   3.649  -2.523
    1   AR   Ar   21   6.205   0.760   2.059
    1   AR   Ar   22   6.971   1.658   1.998
    1   AR   Ar   23   0.857   1.081   0.519
    1   AR   Ar   24   0.085   2.407   0.859
    1   AR   Ar   25   0.158   1.325   3.732
    1   AR   Ar   26   5.792   1.279   3.936
    1   AR   Ar   27   1.950   1.391   3.913
    1   AR   Ar   28   1.113   2.766   4.727
    1   AR   Ar   29   5.379   1.805   6.878
    1   AR   Ar   30   0.555   1.636   6.148
    1   AR   Ar   31   0.610   6.447   7.228
    1   AR   Ar   32   1.803   2.634   5.999
    1   AR   Ar   33   1.832   4.088  -0.519
    1   AR   Ar   34   0.164   5.528   2.891
    1   AR   Ar   35   6.853   5.012   2.107
    1   AR   Ar   36   0.023   0.252  -3.216
    1   AR   Ar   37   6.470   3.460   2.171
    1   AR   Ar   38   0.117   4.049   2.623
    1   AR   Ar   39   1.311   3.689   2.895
    1   AR   Ar   40   1.269   3.886   1.366
    1   AR   Ar   41   0.484   2.270   2.569
    1   AR   Ar   42   7.000   5.345   5.020
    1   AR   Ar   43   6.820   2.601   6.092
    1   AR   Ar   44   0.512   4.077   3.554
    1   AR   Ar   45   0.771   2.697   5.861
    1   AR   Ar   46   1.008   5.933   6.463
    1   AR   Ar   47   6.145   3.077   7.110
    1   AR   Ar   48   6.675   6.448   6.214
    1   AR   Ar   49   6.212   7.114  -2.107
    1   AR   Ar   50   5.491   4.869   2.057
    1   AR   Ar   51   0.521   5.215   1.357
    1   AR   Ar   52   7.072   5.177  -1.437
    1   AR   Ar   53   5.546   6.077   2.492
    1   AR   Ar   54   6.958   6.388   3.241
    1   AR   Ar   55   5.610   5.209   2.979
    1   AR   Ar   56   0.356   6.952   2.093
    1   AR   Ar   57   6.556   3.185   3.203
    1   AR   Ar   58   6.878   5.546   3.927
    1   AR   Ar   59   1.756   5.234   5.557
    1   AR   Ar   60   0.490   6.467   4.139
    1   AR   Ar   61   6.005   5.291   5.602
    1   AR   Ar   62   0.792   5.644   5.415
    1   AR   Ar   63   2.137   6.243   6.880
    1   AR   Ar   64   0.899   0.030   5.776
    1   AR   Ar   65   3.804   0.114   0.724
    1   AR   Ar   66   1.760   1.433   1.228
    1   AR   Ar   67   3.311   6.543  -0.412
    1   AR   Ar   68   3.110   1.369  -1.593
    1   AR   Ar   69   2.951   0.893   1.149
    1   AR   Ar   70   0.973   0.925   2.151
    1   AR   Ar   71   3.228   1.136   2.982
    1   AR   Ar   72   3.495   0.434   1.932
    1   AR   Ar   73   3.121   0.281   3.630
    1   AR   Ar   74   2.244   1.029   4.829
    1   AR   Ar   75   3.644   1.128   5.252
    1   AR   Ar   76   2.371   1.042   2.128
    1   AR   Ar   77   2.427   6.504   5.566
    1   AR   Ar   78   1.809   0.172   6.593
    1   AR   Ar   79   3.363   6.410   6.790
    1   AR   Ar   80   2.996   5.595   6.166
    1   AR   Ar   81   2.331   1.628  -0.500
    1   AR   Ar   82   0.063   4.409  -0.207
    1   AR   Ar   83   1.676   2.185   0.615
    1   AR   Ar   84   0.833   3.314  -1.005
    1   AR   Ar   85   0.895   2.781  -0.171
    1   AR   Ar   86   2.223   3.279   1.190
    1   AR   Ar   87   2.577   2.234   1.337
    1   AR   Ar   88   3.828   4.265   1.724
    1   AR   Ar   89   0.628   3.361   2.091
    1   AR   Ar   90   2.750   2.037   5.030
    1   AR   Ar   91   1.331   2.221   3.638
    1   AR   Ar   92   1.472   1.853   2.136
    1   AR   Ar   93   1.681   1.082   6.181
    1   AR   Ar   94   1.657   0.810   9.693
    1   AR   Ar   95   4.256   0.355   6.134
    1   AR   Ar   96   3.074   0.416   5.961
    1   AR   Ar   97   4.065   2.495  -1.212
    1   AR   Ar   98   3.035   4.883   1.635
    1   AR   Ar   99   0.138   2.643  -1.352
    1   AR   Ar  100   2.022   2.707  -0.496
    1   AR   Ar  101   2.624   4.352   0.790
    1   AR   Ar  102   3.538   3.663   3.296
    1   AR   Ar  103   1.470   4.663   0.507
    1   AR   Ar  104   2.907   3.005  -1.018
    1   AR   Ar  105   2.132   3.079   3.504
    1   AR   Ar  106   2.604   3.489   4.440
    1   AR   Ar  107   2.037   4.036   5.710
    1   AR   Ar  108   3.419   2.935   4.858
    1   AR   Ar  109   1.363   4.131   4.350
    1   AR   Ar  110   1.215   4.655   6.409
    1   AR   Ar  111   4.170   4.041   6.712
    1   AR   Ar  112   1.257   5.310   7.350
    1   AR   Ar  113   2.455   4.854  -0.071
    1   AR   Ar  114   2.722   4.583  -1.323
    1   AR   Ar  115   2.862   3.832  -0.245
    1   AR   Ar  116   5.263   5.502  -1.205
    1   AR   Ar  117   0.784   5.166   3.949
    1   AR   Ar  118   0.837   6.899   3.159
    1   AR   Ar  119   2.096   3.950   2.054
    1   AR   Ar  120   0.919   4.765   2.654
    1   AR   Ar  121   6.508   4.459   5.440
    1   AR   Ar  122   3.262   5.911   4.773
    1   AR   Ar  123   2.681   4.789   4.763
    1   AR   Ar  124   1.761   4.922   1.755
    1   AR   Ar  125   0.445   4.369   5.718
    1   AR   Ar  126   0.109   6.906   5.016
    1   AR   Ar  127   3.109   4.631   7.038
    1   AR   Ar  128   2.191   4.958   6.572
    1   AR   Ar  129   1.552   0.410   2.968
    1   AR   Ar  130   3.522   1.754  -2.762
    1   AR   Ar  131   4.809   0.333   0.743
    1   AR   Ar  132   2.158   2.119  -1.703
    1   AR   Ar  133   4.029   0.399   3.174
    1   AR   Ar  134   4.506   1.312   3.565
    1   AR   Ar  135   5.305   1.356   2.510
    1   AR   Ar  136   4.993   0.230   2.055
    1   AR   Ar  137   2.591   6.289   3.885
    1   AR   Ar  138   4.881   1.418   4.674
    1   AR   Ar  139   5.705   2.222   5.619
    1   AR   Ar  140   4.127   0.430   4.451
    1   AR   Ar  141   3.944   6.650   3.910
    1   AR   Ar  142   4.022   6.781   5.311
    1   AR   Ar  143   6.052   0.018   5.690
    1   AR   Ar  144   5.139   0.707   5.753
    1   AR   Ar  145   3.699   3.746   0.451
    1   AR   Ar  146   4.262   2.107   1.682
    1   AR   Ar  147   6.217   1.775  -1.254
    1   AR   Ar  148   4.730   3.565  -2.390
    1   AR   Ar  149   3.608   1.881   0.684
    1   AR   Ar  150   2.199   1.796   2.976
    1   AR   Ar  151   2.995   2.206   3.558
    1   AR   Ar  152   2.988   2.615   0.026
    1   AR   Ar  153   3.116   1.225   4.227
    1   AR   Ar  154   3.908   1.961   4.095
    1   AR   Ar  155   6.060   1.106   5.908
    1   AR   Ar  156   3.703   3.887   4.324
    1   AR   Ar  157   2.574   3.134   5.419
    1   AR   Ar  158   1.027   3.738   6.639
    1   AR   Ar  159   3.386   2.488   5.789
    1   AR   Ar  160   2.621   2.062   6.307
    1   AR   Ar  161   5.085   3.060   1.680
    1   AR   Ar  162   4.507   5.204  -0.374
    1   AR   Ar  163   5.136   2.897   0.550
    1   AR   Ar  164   4.055   5.487   1.625
    1   AR   Ar  165   3.475   2.901   1.417
    1   AR   Ar  166   3.205   4.672   3.598
    1   AR   Ar  167   4.436   1.994   2.679
    1   AR   Ar  168   4.618   3.233  -0.469
    1   AR   Ar  169   2.780   2.989   2.347
    1   AR   Ar  170   3.161   4.044   5.412
    1   AR   Ar  171   4.677   3.840   4.356
    1   AR   Ar  172   4.464   5.462   4.689
    1   AR   Ar  173   2.130   3.294   6.667
    1   AR   Ar  174   3.946   4.845   6.176
    1   AR   Ar  175   4.003   3.316   5.985
    1   AR   Ar  176   3.680   4.827   5.089
    1   AR   Ar  177   6.213   5.289   0.103
    1   AR   Ar  178   2.635   5.594   0.638
    1   AR   Ar  179   4.560   5.831   0.534
    1   AR   Ar  180   1.930   3.388  -1.386
    1   AR   Ar  181   1.362   5.652   1.084
    1   AR   Ar  182   2.652   0.217   2.760
    1   AR   Ar  183   3.669   4.785   2.573
    1   AR   Ar  184   4.266   6.489   1.336
    1   AR   Ar  185   1.847   5.358   3.772
    1   AR   Ar  186   3.907   5.487   3.535
    1   AR   Ar  187   3.827   6.682   2.424
    1   AR   Ar  188   3.114   6.506   1.568
    1   AR   Ar  189   3.120   3.645   6.679
    1   AR   Ar  190   5.227   6.009   5.820
    1   AR   Ar  191   4.921   5.061   5.573
    1   AR   Ar  192   3.914   5.899   5.761
    1   AR   Ar  193   0.965   6.428  -1.051
    1   AR   Ar  194   5.312   4.304  -1.394
    1   AR   Ar  195   6.670   0.458  -0.186
    1   AR   Ar  196   4.813   6.689  -0.317
    1   AR   Ar  197   5.344   1.485   0.192
    1   AR   Ar  198   6.940   1.241   0.897
    1   AR   Ar  199   5.633   1.574   1.666
    1   AR   Ar  200   6.198   2.370   0.126
    1   AR   Ar  201   5.018   6.843   2.972
    1   AR   Ar  202   5.194   2.364   4.368
    1   AR   Ar  203   6.488   6.461   4.498
    1   AR   Ar  204   5.083   0.453   3.971
    1   AR   Ar  205   5.899   0.437   3.179
    1   AR   Ar  206   4.953   0.059   5.008
    1   AR   Ar  207   7.072   0.285   6.023
    1   AR   Ar  208   6.868   0.273   3.897
    1   AR   Ar  209   5.715   2.719  -2.062
    1   AR   Ar  210   4.046   1.064   1.064
    1   AR   Ar  211   6.968   3.385   0.236
    1   AR   Ar  212   6.364   3.844  -1.735
    1   AR   Ar  213   3.256   1.682   2.064
    1   AR   Ar  214   3.756   2.857   2.533
    1   AR   Ar  215   6.305   2.482   1.651
    1   AR   Ar  216   7.096   4.393   0.995
    1   AR   Ar  217   4.138   3.009   4.086
    1   AR   Ar  218   4.394   2.555   5.205
    1   AR   Ar  219   5.229   2.014   3.377
    1   AR   Ar  220   5.624   2.674   2.678
    1   AR   Ar  221   5.951   0.383   4.685
    1   AR   Ar  222   4.689   1.912   5.983
    1   AR   Ar  223   0.688   0.378   6.768
    1   AR   Ar  224   5.386   3.123   5.923
    1   AR   Ar  225   5.950   4.855   1.047
    1   AR   Ar  226   4.762   3.980   2.123
    1   AR   Ar  227   0.435   5.159   0.274
    1   AR   Ar  228   5.065   5.881   1.563
    1   AR   Ar  229   6.155   4.120   0.034
    1   AR   Ar  230   4.323   4.519   3.368
    1   AR   Ar  231   6.343   1.985   2.863
    1   AR   Ar  232   4.139   2.674   0.347
    1   AR   Ar  233   6.172   2.627   4.268
    1   AR   Ar  234   0.099   3.083   4.973
    1   AR   Ar  235   0.370   2.390   4.052
    1   AR   Ar  236   5.226   4.764   4.592
    1   AR   Ar  237   5.557   3.846   5.130
    1   AR   Ar  238   4.480   4.197   5.327
    1   AR   Ar  239   7.044   3.949   8.872
    1   AR   Ar  240   6.451   3.534   5.880
    1   AR   Ar  241   0.552   6.842  -0.061
    1   AR   Ar  242   4.407   4.540   0.614
    1   AR   Ar  243   5.682   3.869   2.972
    1   AR   Ar  244   0.731   4.934  -0.783
    1   AR   Ar  245   5.787   7.100   1.327
    1   AR   Ar  246   6.033   6.053   1.418
    1   AR   Ar  247   4.465   3.583   1.025
    1   AR   Ar  248   5.707   6.339   0.521
    1   AR   Ar  249   4.581   5.428   2.556
    1   AR   Ar  250   5.274   6.251   4.654
    1   AR   Ar  251   5.896   5.505   4.155
    1   AR   Ar  252   4.866   5.912   3.650
    1   AR   Ar  253   5.298   4.195   6.357
    1   AR   Ar  254   4.240   5.597   6.918
    1   AR   Ar  255   4.893   3.106   7.156
    1   AR   Ar  256   5.676   6.636   3.817
    7.12000  7.12000 12.00000
Argon-slab step 2310
  256
    1   AR   Ar    1   6.822   1.505  -0.386
    1   AR   Ar    2   6.981   7.105   0.840
    1   AR   Ar    3   0.904   0.120   1.093
    1   AR   Ar    4   1.618   0.403  -0.273
    1   AR   Ar    5   6.969   5.925   0.822
    1   AR   Ar    6   7.035   0.355   2.863
    1   AR   Ar    7   6.715   4.713   3.245
    1   AR   Ar    8   6.406   6.772   2.070
    1   AR   Ar    9   0.853   0.366   3.988
    1   AR   Ar   10   1.189   1.459   4.503
    1   AR   Ar   11   3.056   0.281   4.703
    1   AR   Ar   12   1.042   1.284   3.307
    1   AR   Ar   13   0.049   0.783   4.666
    1   AR   Ar   14   1.281   1.555   7.313
    1   AR   Ar   15   6.499   0.206   9.209
    1   AR   Ar   16   1.025   0.934   5.265
    1   AR   Ar   17   1.313   1.691  -0.385
    1   AR   Ar   18   6.252   2.742  -1.053
    1   AR   Ar   19   1.222   2.714   1.586
    1   AR   Ar   20   5.680   3.633  -2.492
    1   AR   Ar   21   6.199   0.774   2.054
    1   AR   Ar   22   6.994   1.648   2.012
    1   AR   Ar   23   0.846   1.100   0.540
    1   AR   Ar   24   0.106   2.417   0.867
    1   AR   Ar   25   0.140   1.318   3.727
    1   AR   Ar   26   5.767   1.256   3.938
    1   AR   Ar   27   1.935   1.401   3.889
    1   AR   Ar   28   1.129   2.789   4.741
    1   AR   Ar   29   5.399   1.818   6.908
    1   AR   Ar   30   0.527   1.613   6.160
    1   AR   Ar   31   0.631   6.452   7.224
    1   AR   Ar   32   1.783   2.632   6.018
    1   AR   Ar   33   1.843   4.121  -0.535
    1   AR   Ar   34   0.167   5.503   2.886
    1   AR   Ar   35   6.821   5.022   2.120
    1   AR   Ar   36   0.023   0.282  -3.256
    1   AR   Ar   37   6.460   3.473   2.158
    1   AR   Ar   38   0.162   4.052   2.650
    1   AR   Ar   39   1.326   3.706   2.901
    1   AR   Ar   40   1.285   3.866   1.384
    1   AR   Ar   41   0.469   2.270   2.568
    1   AR   Ar   42   7.000   5.380   5.036
    1   AR   Ar   43   6.836   2.598   6.094
    1   AR   Ar   44   0.497   4.076   3.568
    1   AR   Ar   45   0.753   2.700   5.867
    1   AR   Ar   46   1.019   5.923   6.474
    1   AR   Ar   47   6.147   3.071   7.124
    1   AR   Ar   48   6.688   6.454   6.227
    1   AR   Ar   49   6.182   7.110  -2.119
    1   AR   Ar   50   5.462   4.871   2.053
    1   AR   Ar   51   0.481   5.227   1.344
    1   AR   Ar   52   7.118   5.179  -1.432
    1   AR   Ar   53   5.534   6.112   2.466
    1   AR   Ar   54   6.976   6.378   3.253
    1   AR   Ar   55   5.632   5.214   2.952
    1   AR   Ar   56   0.344   6.956   2.092
    1   AR   Ar   57   6.536   3.163   3.222
    1   AR   Ar   58   6.890   5.524   3.934
    1   AR   Ar   59   1.747   5.241   5.532
    1   AR   Ar   60   0.466   6.471   4.143
    1   AR   Ar   61   6.001   5.264   5.634
    1   AR   Ar   62   0.784   5.633   5.377
    1   AR   Ar   63   2.146   6.212   6.874
    1   AR   Ar   64   0.916   0.046   5.763
    1   AR   Ar   65   3.799   0.132   0.726
    1   AR   Ar   66   1.753   1.427   1.258
    1   AR   Ar   67   3.291   6.553  -0.396
    1   AR   Ar   68   3.111   1.358  -1.579
    1   AR   Ar   69   2.971   0.902   1.127
    1   AR   Ar   70   0.969   0.920   2.124
    1   AR   Ar   71   3.220   1.132   2.982
    1   AR   Ar   72   3.497   0.450   1.922
    1   AR   Ar   73   3.084   0.282   3.620
    1   AR   Ar   74   2.275   1.031   4.845
    1   AR   Ar   75   3.645   1.119   5.258
    1   AR   Ar   76   2.390   1.045   2.132
    1   AR   Ar   77   2.423   6.487   5.567
    1   AR   Ar   78   1.826   0.171   6.579
    1   AR   Ar   79   3.386   6.452   6.776
    1   AR   Ar   80   3.002   5.579   6.185
    1   AR   Ar   81   2.328   1.613  -0.522
    1   AR   Ar   82   0.060   4.410  -0.204
    1   AR   Ar   83   1.682   2.207   0.609
    1   AR   Ar   84   0.856   3.316  -0.990
    1   AR   Ar   85   0.891   2.767  -0.164
    1   AR   Ar   86   2.219   3.289   1.191
    1   AR   Ar   87   2.611   2.242   1.333
    1   AR   Ar   88   3.821   4.282   1.717
    1   AR   Ar   89   0.660   3.377   2.076
    1   AR   Ar   90   2.753   2.040   5.034
    1   AR   Ar   91   1.322   2.240   3.636
    1   AR   Ar   92   1.442   1.864   2.144
    1   AR   Ar   93   1.668   1.095   6.166
    1   AR   Ar   94   1.705   0.796   9.707
    1   AR   Ar   95   4.258   0.400   6.121
    1   AR   Ar   96   3.075   0.424   5.975
    1   AR   Ar   97   4.069   2.486  -1.222
    1   AR   Ar   98   3.024   4.886   1.695
    1   AR   Ar   99   0.112   2.624  -1.367
    1   AR   Ar  100   2.027   2.734  -0.488
    1   AR   Ar  101   2.620   4.353   0.794
    1   AR   Ar  102   3.553   3.682   3.287
    1   AR   Ar  103   1.502   4.678   0.499
    1   AR   Ar  104   2.897   2.979  -1.040
    1   AR   Ar  105   2.113   3.090   3.523
    1   AR   Ar  106   2.636   3.508   4.410
    1   AR   Ar  107   2.022   4.050   5.726
    1   AR   Ar  108   3.456   2.955   4.839
    1   AR   Ar  109   1.358   4.123   4.365
    1   AR   Ar  110   1.207   4.689   6.410
    1   AR   Ar  111   4.152   4.037   6.682
    1   AR   Ar  112   1.259   5.304   7.341
    1   AR   Ar  113   2.432   4.839  -0.090
    1   AR   Ar  114   2.710   4.581  -1.315
    1   AR   Ar  115   2.874   3.825  -0.265
    1   AR   Ar  116   5.258   5.529  -1.227
    1   AR   Ar  117   0.772   5.181   3.981
    1   AR   Ar  118   0.846   6.880   3.155
    1   AR   Ar  119   2.065   3.959   2.048
    1   AR   Ar  120   0.912   4.774   2.656
    1   AR   Ar  121   6.543   4.451   5.435
    1   AR   Ar  122   3.287   5.894   4.772
    1   AR   Ar  123   2.681   4.782   4.749
    1   AR   Ar  124   1.750   4.917   1.746
    1   AR   Ar  125   0.429   4.362   5.740
    1   AR   Ar  126   0.108   6.903   5.046
    1   AR   Ar  127   3.142   4.598   7.024
    1   AR   Ar  128   2.162   4.957   6.590
    1   AR   Ar  129   1.540   0.439   3.011
    1   AR   Ar  130   3.492   1.747  -2.775
    1   AR   Ar  131   4.819   0.337   0.733
    1   AR   Ar  132   2.161   2.129  -1.743
    1   AR   Ar  133   4.069   0.416   3.142
    1   AR   Ar  134   4.490   1.299   3.584
    1   AR   Ar  135   5.310   1.353   2.525
    1   AR   Ar  136   4.970   0.257   2.079
    1   AR   Ar  137   2.589   6.299   3.873
    1   AR   Ar  138   4.849   1.435   4.657
    1   AR   Ar  139   5.729   2.207   5.625
    1   AR   Ar  140   4.112   0.417   4.462
    1   AR   Ar  141   3.946   6.647   3.926
    1   AR   Ar  142   4.032   6.800   5.291
    1   AR   Ar  143   6.065   0.020   5.693
    1   AR   Ar  144   5.174   0.720   5.744
    1   AR   Ar  145   3.660   3.748   0.426
    1   AR   Ar  146   4.286   2.062   1.680
    1   AR   Ar  147   6.203   1.784  -1.249
    1   AR   Ar  148   4.739   3.584  -2.377
    1   AR   Ar  149   3.601   1.883   0.650
    1   AR   Ar  150   2.168   1.807   2.987
    1   AR   Ar  151   2.988   2.205   3.569
    1   AR   Ar  152   2.975   2.611   0.010
    1   AR   Ar  153   3.084   1.242   4.220
    1   AR   Ar  154   3.902   1.962   4.116
    1   AR   Ar  155   6.090   1.123   5.907
    1   AR   Ar  156   3.714   3.861   4.357
    1   AR   Ar  157   2.558   3.139   5.465
    1   AR   Ar  158   1.019   3.737   6.637
    1   AR   Ar  159   3.395   2.483   5.841
    1   AR   Ar  160   2.624   2.048   6.319
    1   AR   Ar  161   5.125   3.053   1.666
    1   AR   Ar  162   4.510   5.246  -0.392
    1   AR   Ar  163   5.150   2.901   0.541
    1   AR   Ar  164   4.062   5.508   1.634
    1   AR   Ar  165   3.440   2.891   1.423
    1   AR   Ar  166   3.184   4.670   3.587
    1   AR   Ar  167   4.427   1.965   2.678
    1   AR   Ar  168   4.641   3.241  -0.463
    1   AR   Ar  169   2.775   2.978   2.339
    1   AR   Ar  170   3.163   4.038   5.416
    1   AR   Ar  171   4.764   3.847   4.349
    1   AR   Ar  172   4.449   5.467   4.675
    1   AR   Ar  173   2.105   3.299   6.666
    1   AR   Ar  174   3.929   4.860   6.186
    1   AR   Ar  175   3.997   3.328   6.000
    1   AR   Ar  176   3.686   4.840   5.116
    1   AR   Ar  177   6.229   5.284   0.115
    1   AR   Ar  178   2.643   5.594   0.659
    1   AR   Ar  179   4.535   5.838   0.505
    1   AR   Ar  180   1.889   3.369  -1.345
    1   AR   Ar  181   1.358   5.641   1.099
    1   AR   Ar  182   2.642   0.238   2.746
    1   AR   Ar  183   3.670   4.780   2.558
    1   AR   Ar  184   4.286   6.491   1.343
    1   AR   Ar  185   1.860   5.354   3.778
    1   AR   Ar  186   3.902   5.490   3.520
    1   AR   Ar  187   3.804   6.673   2.464
    1   AR   Ar  188   3.147   6.458   1.565
    1   AR   Ar  189   3.112   3.624   6.686
    1   AR   Ar  190   5.223   6.037   5.812
    1   AR   Ar  191   4.955   5.060   5.611
    1   AR   Ar  192   3.940   5.864   5.786
    1   AR   Ar  193   0.965   6.454  -1.081
    1   AR   Ar  194   5.299   4.286  -1.404
    1   AR   Ar  195   6.665   0.415  -0.200
    1   AR   Ar  196   4.842   6.682  -0.337
    1   AR   Ar  197   5.360   1.477   0.199
    1   AR   Ar  198   6.954   1.247   0.933
    1   AR   Ar  199   5.602   1.549   1.667
    1   AR   Ar  200   6.195   2.339   0.110
    1   AR   Ar  201   5.030   6.840   2.981
    1   AR   Ar  202   5.216   2.363   4.368
    1   AR   Ar  203   6.474   6.473   4.517
    1   AR   Ar  204   5.083   0.432   4.008
    1   AR   Ar  205   5.881   0.422   3.178
    1   AR   Ar  206   4.915   0.082   5.019
    1   AR   Ar  207   7.084   0.293   6.011
    1   AR   Ar  208   6.878   0.244   3.908
    1   AR   Ar  209   5.736   2.722  -2.041
    1   AR   Ar  210   4.043   1.072   1.078
    1   AR   Ar  211   6.988   3.409   0.216
    1   AR   Ar  212   6.367   3.863  -1.736
    1   AR   Ar  213   3.231   1.694   2.030
    1   AR   Ar  214   3.755   2.841   2.528
    1   AR   Ar  215   6.319   2.490   1.660
    1   AR   Ar  216   7.107   4.376   0.992
    1   AR   Ar  217   4.128   2.991   4.105
    1   AR   Ar  218   4.389   2.560   5.206
    1   AR   Ar  219   5.267   2.047   3.400
    1   AR   Ar  220   5.614   2.678   2.687
    1   AR   Ar  221   5.937   0.399   4.684
    1   AR   Ar  222   4.735   1.950   5.997
    1   AR   Ar  223   0.670   0.389   6.771
    1   AR   Ar  224   5.403   3.110   5.915
    1   AR   Ar  225   5.967   4.829   1.080
    1   AR   Ar  226   4.724   4.020   2.120
    1   AR   Ar  227   0.466   5.163   0.282
    1   AR   Ar  228   5.105   5.869   1.574
    1   AR   Ar  229   6.165   4.054   0.058
    1   AR   Ar  230   4.317   4.504   3.342
    1   AR   Ar  231   6.352   2.024   2.862
    1   AR   Ar  232   4.167   2.687   0.379
    1   AR   Ar  233   6.170   2.619   4.241
    1   AR   Ar  234   0.124   3.084   4.970
    1   AR   Ar  235   0.396   2.395   4.048
    1   AR   Ar  236   5.244   4.754   4.611
    1   AR   Ar  237   5.546   3.840   5.113
    1   AR   Ar  238   4.488   4.158   5.321
    1   AR   Ar  239   7.028   3.943   8.864
    1   AR   Ar  240   6.437   3.523   5.889
    1   AR   Ar  241   0.538   6.866  -0.057
    1   AR   Ar  242   4.378   4.534   0.571
    1   AR   Ar  243   5.686   3.883   2.980
    1   AR   Ar  244   0.766   4.946  -0.759
    1   AR   Ar  245   5.778   0.014   1.308
    1   AR   Ar  246   6.039   6.049   1.389
    1   AR   Ar  247   4.457   3.600   1.006
    1   AR   Ar  248   5.717   6.325   0.514
    1   AR   Ar  249   4.599   5.443   2.548
    1   AR   Ar  250   5.277   6.259   4.690
    1   AR   Ar  251   5.869   5.519   4.178
    1   AR   Ar  252   4.814   5.920   3.696
    1   AR   Ar  253   5.294   4.192   6.332
    1   AR   Ar  254   4.198   5.607   6.943
    1   AR   Ar  255   4.876   3.126   7.143
    1   AR   Ar  256   5.676   6.649   3.812
    7.12000  7.12000 12.00000
Argon-slab step 2315
  256
    1   AR   Ar    1   6.811   1.491  -0.370
    1   AR   Ar    2   6.983   7.115   0.836
    1   AR   Ar    3   0.933   0.133   1.132
    1   AR   Ar    4   1.607   0.391  -0.311
    1   AR   Ar    5   6.961   5.897   0.807
    1   AR   Ar    6   7.031   0.361   2.866
    1   AR   Ar    7   6.684   4.715   3.247
    1   AR   Ar    8   6.403   6.771   2.073
    1   AR   Ar    9   0.849   0.364   4.003
    1   AR   Ar   10   1.187   1.467   4.504
    1   AR   Ar   11   3.058   0.294   4.693
    1   AR   Ar   12   1.026   1.304   3.304
    1   AR   Ar   13   0.081   0.776   4.644
    1   AR   Ar   14   1.287   1.554   7.315
    1   AR   Ar   15   6.518   0.183   9.171
    1   AR   Ar   16   1.003   0.894   5.281
    1   AR   Ar   17   1.311   1.696  -0.370
    1   AR   Ar   18   6.267   2.759  -1.064
    1   AR   Ar   19   1.247   2.700   1.588
    1   AR   Ar   20   5.703   3.623  -2.468
    1   AR   Ar   21   6.194   0.786   2.051
    1   AR   Ar   22   7.017   1.630   2.025
    1   AR   Ar   23   0.836   1.120   0.560
    1   AR   Ar   24   0.127   2.427   0.876
    1   AR   Ar   25   0.114   1.311   3.725
    1   AR   Ar   26   5.743   1.234   3.941
    1   AR   Ar   27   1.936   1.406   3.861
    1   AR   Ar   28   1.149   2.811   4.756
    1   AR   Ar   29   5.420   1.832   6.935
    1   AR   Ar   30   0.500   1.590   6.172
    1   AR   Ar   31   0.656   6.456   7.228
    1   AR   Ar   32   1.780   2.609   6.000
    1   AR   Ar   33   1.850   4.151  -0.553
    1   AR   Ar   34   0.176   5.477   2.882
    1   AR   Ar   35   6.785   5.029   2.128
    1   AR   Ar   36   0.023   0.312  -3.295
    1   AR   Ar   37   6.450   3.487   2.146
    1   AR   Ar   38   0.197   4.055   2.665
    1   AR   Ar   39   1.341   3.723   2.906
    1   AR   Ar   40   1.298   3.848   1.395
    1   AR   Ar   41   0.458   2.274   2.571
    1   AR   Ar   42   6.991   5.413   5.048
    1   AR   Ar   43   6.850   2.589   6.097
    1   AR   Ar   44   0.497   4.070   3.575
    1   AR   Ar   45   0.735   2.704   5.872
    1   AR   Ar   46   1.036   5.907   6.475
    1   AR   Ar   47   6.148   3.064   7.136
    1   AR   Ar   48   6.715   6.463   6.247
    1   AR   Ar   49   6.153   7.106  -2.131
    1   AR   Ar   50   5.431   4.869   2.037
    1   AR   Ar   51   0.437   5.237   1.339
    1   AR   Ar   52   0.042   5.180  -1.428
    1   AR   Ar   53   5.528   6.150   2.439
    1   AR   Ar   54   6.989   6.379   3.268
    1   AR   Ar   55   5.658   5.219   2.942
    1   AR   Ar   56   0.336   6.957   2.086
    1   AR   Ar   57   6.498   3.147   3.242
    1   AR   Ar   58   6.903   5.504   3.940
    1   AR   Ar   59   1.741   5.246   5.509
    1   AR   Ar   60   0.443   6.472   4.146
    1   AR   Ar   61   5.995   5.246   5.666
    1   AR   Ar   62   0.781   5.627   5.342
    1   AR   Ar   63   2.156   6.180   6.866
    1   AR   Ar   64   0.941   0.053   5.752
    1   AR   Ar   65   3.789   0.144   0.756
    1   AR   Ar   66   1.748   1.413   1.289
    1   AR   Ar   67   3.271   6.563  -0.380
    1   AR   Ar   68   3.111   1.349  -1.564
    1   AR   Ar   69   2.989   0.913   1.103
    1   AR   Ar   70   0.964   0.913   2.097
    1   AR   Ar   71   3.215   1.117   2.973
    1   AR   Ar   72   3.500   0.467   1.916
    1   AR   Ar   73   3.053   0.282   3.623
    1   AR   Ar   74   2.315   1.024   4.852
    1   AR   Ar   75   3.647   1.112   5.260
    1   AR   Ar   76   2.392   1.033   2.102
    1   AR   Ar   77   2.421   6.469   5.569
    1   AR   Ar   78   1.853   0.175   6.563
    1   AR   Ar   79   3.409   6.494   6.759
    1   AR   Ar   80   3.006   5.561   6.203
    1   AR   Ar   81   2.330   1.599  -0.546
    1   AR   Ar   82   0.049   4.401  -0.205
    1   AR   Ar   83   1.687   2.235   0.597
    1   AR   Ar   84   0.879   3.324  -0.982
    1   AR   Ar   85   0.888   2.746  -0.148
    1   AR   Ar   86   2.229   3.297   1.186
    1   AR   Ar   87   2.641   2.248   1.328
    1   AR   Ar   88   3.817   4.288   1.696
    1   AR   Ar   89   0.688   3.394   2.065
    1   AR   Ar   90   2.758   2.043   5.038
    1   AR   Ar   91   1.319   2.263   3.632
    1   AR   Ar   92   1.414   1.875   2.158
    1   AR   Ar   93   1.653   1.114   6.148
    1   AR   Ar   94   1.736   0.784   9.707
    1   AR   Ar   95   4.256   0.444   6.107
    1   AR   Ar   96   3.076   0.431   5.986
    1   AR   Ar   97   4.073   2.479  -1.233
    1   AR   Ar   98   3.004   4.896   1.752
    1   AR   Ar   99   0.088   2.604  -1.382
    1   AR   Ar  100   2.026   2.770  -0.480
    1   AR   Ar  101   2.615   4.350   0.802
    1   AR   Ar  102   3.568   3.698   3.277
    1   AR   Ar  103   1.535   4.692   0.493
    1   AR   Ar  104   2.890   2.953  -1.063
    1   AR   Ar  105   2.094   3.100   3.541
    1   AR   Ar  106   2.668   3.530   4.379
    1   AR   Ar  107   2.009   4.055   5.737
    1   AR   Ar  108   3.486   2.972   4.829
    1   AR   Ar  109   1.354   4.116   4.380
    1   AR   Ar  110   1.195   4.731   6.408
    1   AR   Ar  111   4.140   4.031   6.663
    1   AR   Ar  112   1.262   5.297   7.332
    1   AR   Ar  113   2.411   4.829  -0.113
    1   AR   Ar  114   2.697   4.578  -1.304
    1   AR   Ar  115   2.883   3.818  -0.286
    1   AR   Ar  116   5.253   5.555  -1.248
    1   AR   Ar  117   0.762   5.195   4.013
    1   AR   Ar  118   0.841   6.856   3.157
    1   AR   Ar  119   2.039   3.964   2.047
    1   AR   Ar  120   0.909   4.782   2.658
    1   AR   Ar  121   6.580   4.437   5.426
    1   AR   Ar  122   3.313   5.877   4.772
    1   AR   Ar  123   2.679   4.774   4.734
    1   AR   Ar  124   1.739   4.912   1.737
    1   AR   Ar  125   0.415   4.355   5.762
    1   AR   Ar  126   0.111   6.901   5.081
    1   AR   Ar  127   3.175   4.571   7.010
    1   AR   Ar  128   2.140   4.959   6.609
    1   AR   Ar  129   1.541   0.474   3.050
    1   AR   Ar  130   3.460   1.740  -2.787
    1   AR   Ar  131   4.822   0.330   0.720
    1   AR   Ar  132   2.164   2.140  -1.780
    1   AR   Ar  133   4.111   0.430   3.110
    1   AR   Ar  134   4.478   1.282   3.603
    1   AR   Ar  135   5.307   1.342   2.572
    1   AR   Ar  136   4.948   0.285   2.101
    1   AR   Ar  137   2.589   6.309   3.861
    1   AR   Ar  138   4.815   1.447   4.642
    1   AR   Ar  139   5.744   2.191   5.618
    1   AR   Ar  140   4.093   0.411   4.471
    1   AR   Ar  141   3.948   6.642   3.941
    1   AR   Ar  142   4.033   6.827   5.277
    1   AR   Ar  143   6.077   0.022   5.694
    1   AR   Ar  144   5.178   0.715   5.771
    1   AR   Ar  145   3.613   3.749   0.399
    1   AR   Ar  146   4.307   2.019   1.670
    1   AR   Ar  147   6.187   1.782  -1.248
    1   AR   Ar  148   4.726   3.601  -2.361
    1   AR   Ar  149   3.585   1.887   0.617
    1   AR   Ar  150   2.137   1.820   2.990
    1   AR   Ar  151   2.980   2.204   3.580
    1   AR   Ar  152   2.964   2.607  -0.003
    1   AR   Ar  153   3.055   1.261   4.209
    1   AR   Ar  154   3.896   1.962   4.142
    1   AR   Ar  155   6.126   1.143   5.906
    1   AR   Ar  156   3.718   3.847   4.397
    1   AR   Ar  157   2.543   3.143   5.512
    1   AR   Ar  158   1.009   3.724   6.635
    1   AR   Ar  159   3.409   2.479   5.889
    1   AR   Ar  160   2.622   2.030   6.335
    1   AR   Ar  161   5.166   3.044   1.654
    1   AR   Ar  162   4.514   5.287  -0.410
    1   AR   Ar  163   5.172   2.906   0.532
    1   AR   Ar  164   4.064   5.525   1.642
    1   AR   Ar  165   3.409   2.883   1.428
    1   AR   Ar  166   3.162   4.667   3.579
    1   AR   Ar  167   4.417   1.936   2.684
    1   AR   Ar  168   4.663   3.248  -0.457
    1   AR   Ar  169   2.761   2.967   2.329
    1   AR   Ar  170   3.163   4.025   5.423
    1   AR   Ar  171   4.854   3.851   4.338
    1   AR   Ar  172   4.433   5.476   4.661
    1   AR   Ar  173   2.081   3.311   6.671
    1   AR   Ar  174   3.910   4.882   6.189
    1   AR   Ar  175   3.987   3.328   6.009
    1   AR   Ar  176   3.697   4.862   5.141
    1   AR   Ar  177   6.247   5.280   0.128
    1   AR   Ar  178   2.643   5.599   0.647
    1   AR   Ar  179   4.512   5.845   0.479
    1   AR   Ar  180   1.849   3.349  -1.306
    1   AR   Ar  181   1.361   5.636   1.109
    1   AR   Ar  182   2.627   0.254   2.722
    1   AR   Ar  183   3.670   4.781   2.552
    1   AR   Ar  184   4.304   6.500   1.350
    1   AR   Ar  185   1.873   5.350   3.785
    1   AR   Ar  186   3.892   5.492   3.505
    1   AR   Ar  187   3.781   6.663   2.505
    1   AR   Ar  188   3.182   6.409   1.561
    1   AR   Ar  189   3.107   3.599   6.690
    1   AR   Ar  190   5.218   6.071   5.803
    1   AR   Ar  191   4.986   5.055   5.651
    1   AR   Ar  192   3.966   5.847   5.802
    1   AR   Ar  193   0.966   6.479  -1.109
    1   AR   Ar  194   5.286   4.268  -1.415
    1   AR   Ar  195   6.660   0.371  -0.213
    1   AR   Ar  196   4.871   6.674  -0.354
    1   AR   Ar  197   5.377   1.469   0.207
    1   AR   Ar  198   6.966   1.252   0.970
    1   AR   Ar  199   5.579   1.533   1.637
    1   AR   Ar  200   6.192   2.309   0.095
    1   AR   Ar  201   5.037   6.841   2.995
    1   AR   Ar  202   5.228   2.366   4.374
    1   AR   Ar  203   6.457   6.482   4.533
    1   AR   Ar  204   5.082   0.410   4.041
    1   AR   Ar  205   5.864   0.408   3.176
    1   AR   Ar  206   4.885   0.101   5.027
    1   AR   Ar  207   7.088   0.307   5.998
    1   AR   Ar  208   6.882   0.205   3.911
    1   AR   Ar  209   5.758   2.720  -2.017
    1   AR   Ar  210   4.044   1.080   1.097
    1   AR   Ar  211   7.011   3.429   0.198
    1   AR   Ar  212   6.370   3.882  -1.732
    1   AR   Ar  213   3.210   1.706   1.995
    1   AR   Ar  214   3.762   2.823   2.524
    1   AR   Ar  215   6.332   2.496   1.670
    1   AR   Ar  216   7.116   4.356   0.988
    1   AR   Ar  217   4.130   2.967   4.114
    1   AR   Ar  218   4.385   2.567   5.203
    1   AR   Ar  219   5.304   2.074   3.422
    1   AR   Ar  220   5.601   2.692   2.689
    1   AR   Ar  221   5.927   0.426   4.688
    1   AR   Ar  222   4.780   1.985   6.012
    1   AR   Ar  223   0.657   0.409   6.770
    1   AR   Ar  224   5.366   3.121   5.918
    1   AR   Ar  225   5.985   4.804   1.115
    1   AR   Ar  226   4.691   4.058   2.120
    1   AR   Ar  227   0.502   5.177   0.295
    1   AR   Ar  228   5.131   5.850   1.583
    1   AR   Ar  229   6.172   3.991   0.083
    1   AR   Ar  230   4.314   4.488   3.319
    1   AR   Ar  231   6.363   2.041   2.843
    1   AR   Ar  232   4.191   2.704   0.410
    1   AR   Ar  233   6.174   2.661   4.250
    1   AR   Ar  234   0.170   3.083   4.966
    1   AR   Ar  235   0.416   2.399   4.044
    1   AR   Ar  236   5.263   4.745   4.631
    1   AR   Ar  237   5.537   3.834   5.098
    1   AR   Ar  238   4.494   4.115   5.318
    1   AR   Ar  239   7.011   3.936   8.855
    1   AR   Ar  240   6.434   3.520   5.896
    1   AR   Ar  241   0.524   6.890  -0.051
    1   AR   Ar  242   4.350   4.535   0.527
    1   AR   Ar  243   5.690   3.897   2.987
    1   AR   Ar  244   0.808   4.959  -0.735
    1   AR   Ar  245   5.766   0.050   1.286
    1   AR   Ar  246   6.065   6.040   1.370
    1   AR   Ar  247   4.456   3.612   0.995
    1   AR   Ar  248   5.722   6.315   0.494
    1   AR   Ar  249   4.619   5.458   2.544
    1   AR   Ar  250   5.279   6.264   4.729
    1   AR   Ar  251   5.879   5.531   4.193
    1   AR   Ar  252   4.768   5.929   3.743
    1   AR   Ar  253   5.289   4.187   6.303
    1   AR   Ar  254   4.154   5.619   6.966
    1   AR   Ar  255   4.875   3.146   7.133
    1   AR   Ar  256   5.678   6.662   3.805
    7.12000  7.12000 12.00000
Argon-slab step 2320
  256
    1   AR   Ar    1   6.781   1.483  -0.374
    1   AR   Ar    2   7.003   7.112   0.858
    1   AR   Ar    3   0.961   0.148   1.170
    1   AR   Ar    4   1.594   0.380  -0.347
    1   AR   Ar    5   6.951   5.874   0.788
    1   AR   Ar    6   7.025   0.371   2.870
    1   AR   Ar    7   6.650   4.713   3.249
    1   AR   Ar    8   6.400   6.771   2.080
    1   AR   Ar    9   0.847   0.367   4.020
    1   AR   Ar   10   1.178   1.484   4.501
    1   AR   Ar   11   3.061   0.303   4.687
    1   AR   Ar   12   1.011   1.329   3.296
    1   AR   Ar   13   0.115   0.777   4.635
    1   AR   Ar   14   1.293   1.552   7.315
    1   AR   Ar   15   6.537   0.160   9.134
    1   AR   Ar   16   0.979   0.861   5.299
    1   AR   Ar   17   1.305   1.707  -0.341
    1   AR   Ar   18   6.275   2.788  -1.067
    1   AR   Ar   19   1.275   2.687   1.581
    1   AR   Ar   20   5.734   3.619  -2.452
    1   AR   Ar   21   6.192   0.795   2.050
    1   AR   Ar   22   7.037   1.606   2.033
    1   AR   Ar   23   0.829   1.140   0.579
    1   AR   Ar   24   0.147   2.436   0.885
    1   AR   Ar   25   0.080   1.305   3.725
    1   AR   Ar   26   5.721   1.214   3.944
    1   AR   Ar   27   1.947   1.403   3.836
    1   AR   Ar   28   1.174   2.832   4.770
    1   AR   Ar   29   5.441   1.847   6.961
    1   AR   Ar   30   0.532   1.572   6.187
    1   AR   Ar   31   0.703   6.440   7.240
    1   AR   Ar   32   1.790   2.621   6.026
    1   AR   Ar   33   1.849   4.172  -0.575
    1   AR   Ar   34   0.190   5.455   2.881
    1   AR   Ar   35   6.745   5.031   2.131
    1   AR   Ar   36   0.023   0.342  -3.334
    1   AR   Ar   37   6.453   3.502   2.141
    1   AR   Ar   38   0.219   4.057   2.665
    1   AR   Ar   39   1.345   3.734   2.913
    1   AR   Ar   40   1.307   3.833   1.395
    1   AR   Ar   41   0.451   2.282   2.578
    1   AR   Ar   42   6.969   5.445   5.056
    1   AR   Ar   43   6.862   2.575   6.101
    1   AR   Ar   44   0.500   4.058   3.582
    1   AR   Ar   45   0.719   2.709   5.875
    1   AR   Ar   46   1.056   5.888   6.467
    1   AR   Ar   47   6.148   3.058   7.146
    1   AR   Ar   48   6.743   6.469   6.267
    1   AR   Ar   49   6.123   7.102  -2.144
    1   AR   Ar   50   5.398   4.866   2.014
    1   AR   Ar   51   0.392   5.244   1.343
    1   AR   Ar   52   7.111   5.178  -1.439
    1   AR   Ar   53   5.529   6.188   2.416
    1   AR   Ar   54   6.996   6.386   3.281
    1   AR   Ar   55   5.687   5.225   2.944
    1   AR   Ar   56   0.333   6.957   2.076
    1   AR   Ar   57   6.461   3.131   3.261
    1   AR   Ar   58   6.914   5.489   3.948
    1   AR   Ar   59   1.740   5.249   5.488
    1   AR   Ar   60   0.420   6.470   4.151
    1   AR   Ar   61   5.990   5.234   5.699
    1   AR   Ar   62   0.787   5.625   5.311
    1   AR   Ar   63   2.165   6.146   6.855
    1   AR   Ar   64   0.970   0.044   5.750
    1   AR   Ar   65   3.772   0.152   0.785
    1   AR   Ar   66   1.744   1.397   1.318
    1   AR   Ar   67   3.251   6.572  -0.363
    1   AR   Ar   68   3.111   1.342  -1.549
    1   AR   Ar   69   2.973   0.934   1.091
    1   AR   Ar   70   0.956   0.903   2.071
    1   AR   Ar   71   3.217   1.115   2.978
    1   AR   Ar   72   3.504   0.483   1.912
    1   AR   Ar   73   3.027   0.280   3.634
    1   AR   Ar   74   2.336   1.007   4.851
    1   AR   Ar   75   3.649   1.104   5.260
    1   AR   Ar   76   2.392   1.025   2.070
    1   AR   Ar   77   2.419   6.451   5.572
    1   AR   Ar   78   1.879   0.175   6.548
    1   AR   Ar   79   3.431   6.535   6.740
    1   AR   Ar   80   3.007   5.543   6.222
    1   AR   Ar   81   2.337   1.586  -0.570
    1   AR   Ar   82   0.035   4.390  -0.208
    1   AR   Ar   83   1.692   2.265   0.583
    1   AR   Ar   84   0.896   3.338  -0.977
    1   AR   Ar   85   0.883   2.752  -0.142
    1   AR   Ar   86   2.240   3.304   1.181
    1   AR   Ar   87   2.664   2.253   1.320
    1   AR   Ar   88   3.797   4.274   1.680
    1   AR   Ar   89   0.710   3.408   2.058
    1   AR   Ar   90   2.764   2.047   5.043
    1   AR   Ar   91   1.323   2.289   3.625
    1   AR   Ar   92   1.386   1.884   2.180
    1   AR   Ar   93   1.636   1.137   6.129
    1   AR   Ar   94   1.742   0.775   9.687
    1   AR   Ar   95   4.247   0.485   6.093
    1   AR   Ar   96   3.077   0.437   5.997
    1   AR   Ar   97   4.075   2.472  -1.243
    1   AR   Ar   98   2.976   4.910   1.806
    1   AR   Ar   99   0.072   2.582  -1.399
    1   AR   Ar  100   2.020   2.803  -0.465
    1   AR   Ar  101   2.611   4.346   0.814
    1   AR   Ar  102   3.578   3.699   3.284
    1   AR   Ar  103   1.566   4.705   0.489
    1   AR   Ar  104   2.885   2.927  -1.088
    1   AR   Ar  105   2.075   3.108   3.558
    1   AR   Ar  106   2.699   3.553   4.349
    1   AR   Ar  107   2.004   4.022   5.731
    1   AR   Ar  108   3.500   2.981   4.837
    1   AR   Ar  109   1.349   4.108   4.395
    1   AR   Ar  110   1.176   4.776   6.400
    1   AR   Ar  111   4.133   4.028   6.658
    1   AR   Ar  112   1.267   5.292   7.323
    1   AR   Ar  113   2.398   4.829  -0.135
    1   AR   Ar  114   2.683   4.573  -1.290
    1   AR   Ar  115   2.884   3.809  -0.314
    1   AR   Ar  116   5.248   5.580  -1.268
    1   AR   Ar  117   0.756   5.207   4.045
    1   AR   Ar  118   0.824   6.835   3.172
    1   AR   Ar  119   2.022   3.967   2.055
    1   AR   Ar  120   0.914   4.792   2.658
    1   AR   Ar  121   6.613   4.423   5.411
    1   AR   Ar  122   3.341   5.861   4.772
    1   AR   Ar  123   2.686   4.791   4.743
    1   AR   Ar  124   1.729   4.905   1.729
    1   AR   Ar  125   0.408   4.346   5.785
    1   AR   Ar  126   0.115   6.900   5.118
    1   AR   Ar  127   3.209   4.550   6.996
    1   AR   Ar  128   2.128   4.964   6.628
    1   AR   Ar  129   1.550   0.508   3.087
    1   AR   Ar  130   3.453   1.740  -2.780
    1   AR   Ar  131   4.828   0.324   0.708
    1   AR   Ar  132   2.169   2.151  -1.815
    1   AR   Ar  133   4.151   0.441   3.077
    1   AR   Ar  134   4.469   1.265   3.621
    1   AR   Ar  135   5.302   1.325   2.631
    1   AR   Ar  136   4.926   0.315   2.120
    1   AR   Ar  137   2.590   6.320   3.850
    1   AR   Ar  138   4.779   1.453   4.628
    1   AR   Ar  139   5.760   2.164   5.631
    1   AR   Ar  140   4.109   0.443   4.461
    1   AR   Ar  141   3.948   6.635   3.954
    1   AR   Ar  142   4.017   6.861   5.275
    1   AR   Ar  143   6.086   0.024   5.693
    1   AR   Ar  144   5.186   0.720   5.768
    1   AR   Ar  145   3.568   3.748   0.376
    1   AR   Ar  146   4.328   1.977   1.653
    1   AR   Ar  147   6.171   1.771  -1.248
    1   AR   Ar  148   4.701   3.619  -2.342
    1   AR   Ar  149   3.564   1.890   0.586
    1   AR   Ar  150   2.109   1.836   2.981
    1   AR   Ar  151   2.972   2.203   3.591
    1   AR   Ar  152   2.955   2.604  -0.014
    1   AR   Ar  153   3.045   1.249   4.172
    1   AR   Ar  154   3.888   1.961   4.171
    1   AR   Ar  155   6.167   1.165   5.905
    1   AR   Ar  156   3.721   3.850   4.437
    1   AR   Ar  157   2.532   3.144   5.556
    1   AR   Ar  158   0.999   3.708   6.632
    1   AR   Ar  159   3.425   2.475   5.931
    1   AR   Ar  160   2.614   2.008   6.353
    1   AR   Ar  161   5.208   3.035   1.643
    1   AR   Ar  162   4.518   5.326  -0.430
    1   AR   Ar  163   5.203   2.911   0.523
    1   AR   Ar  164   4.041   5.528   1.666
    1   AR   Ar  165   3.387   2.881   1.433
    1   AR   Ar  166   3.141   4.665   3.572
    1   AR   Ar  167   4.406   1.906   2.697
    1   AR   Ar  168   4.686   3.255  -0.449
    1   AR   Ar  169   2.740   2.956   2.317
    1   AR   Ar  170   3.160   4.018   5.431
    1   AR   Ar  171   4.937   3.851   4.318
    1   AR   Ar  172   4.418   5.486   4.648
    1   AR   Ar  173   2.058   3.330   6.678
    1   AR   Ar  174   3.890   4.906   6.190
    1   AR   Ar  175   3.956   3.286   6.017
    1   AR   Ar  176   3.710   4.887   5.163
    1   AR   Ar  177   6.265   5.275   0.142
    1   AR   Ar  178   2.643   5.603   0.637
    1   AR   Ar  179   4.491   5.855   0.456
    1   AR   Ar  180   1.816   3.333  -1.274
    1   AR   Ar  181   1.366   5.636   1.113
    1   AR   Ar  182   2.610   0.265   2.691
    1   AR   Ar  183   3.670   4.788   2.554
    1   AR   Ar  184   4.324   6.515   1.359
    1   AR   Ar  185   1.886   5.345   3.792
    1   AR   Ar  186   3.877   5.493   3.487
    1   AR   Ar  187   3.767   6.655   2.533
    1   AR   Ar  188   3.218   6.361   1.557
    1   AR   Ar  189   3.103   3.569   6.689
    1   AR   Ar  190   5.212   6.108   5.795
    1   AR   Ar  191   5.007   5.048   5.689
    1   AR   Ar  192   3.986   5.844   5.813
    1   AR   Ar  193   0.966   6.504  -1.136
    1   AR   Ar  194   5.274   4.249  -1.426
    1   AR   Ar  195   6.639   0.369  -0.204
    1   AR   Ar  196   4.901   6.665  -0.370
    1   AR   Ar  197   5.395   1.462   0.216
    1   AR   Ar  198   6.977   1.258   1.007
    1   AR   Ar  199   5.558   1.524   1.594
    1   AR   Ar  200   6.190   2.279   0.079
    1   AR   Ar  201   5.036   6.844   3.014
    1   AR   Ar  202   5.230   2.372   4.391
    1   AR   Ar  203   6.436   6.488   4.548
    1   AR   Ar  204   5.078   0.388   4.069
    1   AR   Ar  205   5.849   0.395   3.172
    1   AR   Ar  206   4.871   0.121   5.032
    1   AR   Ar  207   7.087   0.327   5.983
    1   AR   Ar  208   6.886   0.226   3.887
    1   AR   Ar  209   5.779   2.712  -1.989
    1   AR   Ar  210   4.051   1.090   1.122
    1   AR   Ar  211   7.039   3.442   0.181
    1   AR   Ar  212   6.377   3.901  -1.724
    1   AR   Ar  213   3.195   1.718   1.963
    1   AR   Ar  214   3.773   2.804   2.520
    1   AR   Ar  215   6.346   2.491   1.654
    1   AR   Ar  216   0.003   4.334   0.981
    1   AR   Ar  217   4.148   2.940   4.108
    1   AR   Ar  218   4.382   2.573   5.199
    1   AR   Ar  219   5.339   2.095   3.442
    1   AR   Ar  220   5.585   2.716   2.682
    1   AR   Ar  221   5.920   0.452   4.692
    1   AR   Ar  222   4.821   1.995   6.031
    1   AR   Ar  223   0.649   0.430   6.771
    1   AR   Ar  224   5.326   3.134   5.923
    1   AR   Ar  225   6.006   4.780   1.148
    1   AR   Ar  226   4.666   4.093   2.124
    1   AR   Ar  227   0.524   5.174   0.302
    1   AR   Ar  228   5.140   5.824   1.584
    1   AR   Ar  229   6.174   3.933   0.108
    1   AR   Ar  230   4.315   4.471   3.299
    1   AR   Ar  231   6.378   2.051   2.821
    1   AR   Ar  232   4.208   2.724   0.440
    1   AR   Ar  233   6.186   2.706   4.257
    1   AR   Ar  234   0.184   3.090   4.974
    1   AR   Ar  235   0.427   2.404   4.043
    1   AR   Ar  236   5.283   4.743   4.652
    1   AR   Ar  237   5.535   3.826   5.091
    1   AR   Ar  238   4.498   4.072   5.318
    1   AR   Ar  239   6.994   3.929   8.847
    1   AR   Ar  240   6.449   3.528   5.899
    1   AR   Ar  241   0.510   6.916  -0.045
    1   AR   Ar  242   4.322   4.542   0.483
    1   AR   Ar  243   5.694   3.912   2.992
    1   AR   Ar  244   0.853   4.971  -0.709
    1   AR   Ar  245   5.753   0.085   1.264
    1   AR   Ar  246   6.106   6.029   1.360
    1   AR   Ar  247   4.457   3.620   0.990
    1   AR   Ar  248   5.721   6.309   0.463
    1   AR   Ar  249   4.639   5.473   2.543
    1   AR   Ar  250   5.290   6.261   4.761
    1   AR   Ar  251   5.897   5.543   4.205
    1   AR   Ar  252   4.733   5.943   3.788
    1   AR   Ar  253   5.282   4.182   6.273
    1   AR   Ar  254   4.109   5.630   6.987
    1   AR   Ar  255   4.861   3.161   7.123
    1   AR   Ar  256   5.684   6.673   3.798
    7.12000  7.12000 12.00000
Argon-slab step 2325
  256
    1   AR   Ar    1   6.752   1.476  -0.377
    1   AR   Ar    2   7.021   7.109   0.883
    1   AR   Ar    3   0.988   0.164   1.208
    1   AR   Ar    4   1.581   0.370  -0.383
    1   AR   Ar    5   6.940   5.855   0.763
    1   AR   Ar    6   7.017   0.383   2.873
    1   AR   Ar    7   6.614   4.708   3.250
    1   AR   Ar    8   6.425   6.769   2.075
    1   AR   Ar    9   0.849   0.373   4.036
    1   AR   Ar   10   1.164   1.504   4.495
    1   AR   Ar   11   3.068   0.305   4.685
    1   AR   Ar   12   0.995   1.358   3.286
    1   AR   Ar   13   0.149   0.784   4.639
    1   AR   Ar   14   1.299   1.550   7.313
    1   AR   Ar   15   6.556   0.137   9.096
    1   AR   Ar   16   0.954   0.850   5.307
    1   AR   Ar   17   1.296   1.718  -0.310
    1   AR   Ar   18   6.277   2.824  -1.063
    1   AR   Ar   19   1.307   2.676   1.566
    1   AR   Ar   20   5.765   3.619  -2.444
    1   AR   Ar   21   6.191   0.802   2.052
    1   AR   Ar   22   7.053   1.578   2.040
    1   AR   Ar   23   0.824   1.160   0.598
    1   AR   Ar   24   0.168   2.445   0.894
    1   AR   Ar   25   0.042   1.300   3.723
    1   AR   Ar   26   5.700   1.196   3.946
    1   AR   Ar   27   1.963   1.391   3.821
    1   AR   Ar   28   1.204   2.852   4.783
    1   AR   Ar   29   5.463   1.863   6.985
    1   AR   Ar   30   0.534   1.630   6.193
    1   AR   Ar   31   0.748   6.428   7.257
    1   AR   Ar   32   1.792   2.625   6.049
    1   AR   Ar   33   1.836   4.181  -0.604
    1   AR   Ar   34   0.204   5.440   2.886
    1   AR   Ar   35   6.701   5.030   2.130
    1   AR   Ar   36   0.023   0.372  -3.372
    1   AR   Ar   37   6.504   3.523   2.161
    1   AR   Ar   38   0.226   4.058   2.650
    1   AR   Ar   39   1.306   3.721   2.929
    1   AR   Ar   40   1.313   3.824   1.378
    1   AR   Ar   41   0.446   2.296   2.590
    1   AR   Ar   42   6.935   5.475   5.060
    1   AR   Ar   43   6.866   2.558   6.106
    1   AR   Ar   44   0.498   4.094   3.628
    1   AR   Ar   45   0.709   2.716   5.877
    1   AR   Ar   46   1.080   5.866   6.449
    1   AR   Ar   47   6.147   3.050   7.154
    1   AR   Ar   48   6.772   6.472   6.287
    1   AR   Ar   49   6.094   7.098  -2.156
    1   AR   Ar   50   5.365   4.861   1.989
    1   AR   Ar   51   0.351   5.248   1.356
    1   AR   Ar   52   7.060   5.175  -1.449
    1   AR   Ar   53   5.537   6.227   2.399
    1   AR   Ar   54   6.996   6.395   3.292
    1   AR   Ar   55   5.717   5.232   2.950
    1   AR   Ar   56   0.333   6.956   2.064
    1   AR   Ar   57   6.425   3.115   3.278
    1   AR   Ar   58   6.920   5.477   3.954
    1   AR   Ar   59   1.744   5.249   5.469
    1   AR   Ar   60   0.408   6.475   4.151
    1   AR   Ar   61   5.992   5.225   5.730
    1   AR   Ar   62   0.800   5.627   5.282
    1   AR   Ar   63   2.174   6.112   6.843
    1   AR   Ar   64   1.003   0.009   5.762
    1   AR   Ar   65   3.751   0.154   0.813
    1   AR   Ar   66   1.739   1.380   1.342
    1   AR   Ar   67   3.259   6.528  -0.349
    1   AR   Ar   68   3.109   1.336  -1.534
    1   AR   Ar   69   2.934   0.960   1.087
    1   AR   Ar   70   0.948   0.891   2.046
    1   AR   Ar   71   3.220   1.116   2.981
    1   AR   Ar   72   3.509   0.498   1.910
    1   AR   Ar   73   3.004   0.275   3.649
    1   AR   Ar   74   2.342   0.992   4.851
    1   AR   Ar   75   3.650   1.097   5.259
    1   AR   Ar   76   2.389   1.023   2.037
    1   AR   Ar   77   2.419   6.433   5.577
    1   AR   Ar   78   1.901   0.167   6.539
    1   AR   Ar   79   3.453   6.575   6.719
    1   AR   Ar   80   3.007   5.526   6.241
    1   AR   Ar   81   2.347   1.575  -0.595
    1   AR   Ar   82   0.020   4.381  -0.214
    1   AR   Ar   83   1.697   2.296   0.570
    1   AR   Ar   84   0.896   3.355  -0.972
    1   AR   Ar   85   0.888   2.772  -0.132
    1   AR   Ar   86   2.252   3.309   1.175
    1   AR   Ar   87   2.677   2.265   1.314
    1   AR   Ar   88   3.761   4.246   1.664
    1   AR   Ar   89   0.724   3.415   2.058
    1   AR   Ar   90   2.771   2.052   5.047
    1   AR   Ar   91   1.336   2.315   3.615
    1   AR   Ar   92   1.359   1.889   2.209
    1   AR   Ar   93   1.619   1.162   6.111
    1   AR   Ar   94   1.750   0.805   9.663
    1   AR   Ar   95   4.231   0.526   6.080
    1   AR   Ar   96   3.089   0.443   5.997
    1   AR   Ar   97   4.071   2.478  -1.218
    1   AR   Ar   98   2.978   4.902   1.818
    1   AR   Ar   99   0.064   2.559  -1.418
    1   AR   Ar  100   2.012   2.829  -0.441
    1   AR   Ar  101   2.608   4.341   0.827
    1   AR   Ar  102   3.587   3.697   3.291
    1   AR   Ar  103   1.579   4.729   0.504
    1   AR   Ar  104   2.881   2.901  -1.114
    1   AR   Ar  105   2.056   3.115   3.574
    1   AR   Ar  106   2.729   3.576   4.321
    1   AR   Ar  107   1.997   3.994   5.726
    1   AR   Ar  108   3.497   2.981   4.862
    1   AR   Ar  109   1.345   4.101   4.409
    1   AR   Ar  110   1.149   4.819   6.387
    1   AR   Ar  111   4.131   4.027   6.661
    1   AR   Ar  112   1.273   5.287   7.318
    1   AR   Ar  113   2.398   4.842  -0.153
    1   AR   Ar  114   2.668   4.567  -1.274
    1   AR   Ar  115   2.874   3.801  -0.353
    1   AR   Ar  116   5.243   5.604  -1.287
    1   AR   Ar  117   0.757   5.217   4.077
    1   AR   Ar  118   0.807   6.814   3.185
    1   AR   Ar  119   2.017   3.967   2.072
    1   AR   Ar  120   0.930   4.800   2.656
    1   AR   Ar  121   6.637   4.412   5.387
    1   AR   Ar  122   3.369   5.846   4.772
    1   AR   Ar  123   2.693   4.808   4.752
    1   AR   Ar  124   1.719   4.897   1.722
    1   AR   Ar  125   0.409   4.336   5.811
    1   AR   Ar  126   0.121   6.897   5.152
    1   AR   Ar  127   3.243   4.535   6.981
    1   AR   Ar  128   2.126   4.971   6.649
    1   AR   Ar  129   1.566   0.539   3.121
    1   AR   Ar  130   3.461   1.745  -2.760
    1   AR   Ar  131   4.835   0.317   0.697
    1   AR   Ar  132   2.163   2.169  -1.814
    1   AR   Ar  133   4.191   0.448   3.042
    1   AR   Ar  134   4.465   1.249   3.638
    1   AR   Ar  135   5.299   1.307   2.692
    1   AR   Ar  136   4.905   0.345   2.137
    1   AR   Ar  137   2.594   6.332   3.839
    1   AR   Ar  138   4.742   1.456   4.618
    1   AR   Ar  139   5.781   2.139   5.640
    1   AR   Ar  140   4.143   0.503   4.434
    1   AR   Ar  141   3.937   6.621   3.988
    1   AR   Ar  142   3.986   6.886   5.277
    1   AR   Ar  143   6.094   0.025   5.690
    1   AR   Ar  144   5.206   0.738   5.755
    1   AR   Ar  145   3.531   3.744   0.365
    1   AR   Ar  146   4.347   1.939   1.634
    1   AR   Ar  147   6.155   1.757  -1.250
    1   AR   Ar  148   4.672   3.636  -2.321
    1   AR   Ar  149   3.540   1.893   0.558
    1   AR   Ar  150   2.085   1.858   2.959
    1   AR   Ar  151   2.964   2.203   3.602
    1   AR   Ar  152   2.955   2.609  -0.008
    1   AR   Ar  153   3.039   1.238   4.122
    1   AR   Ar  154   3.874   1.927   4.145
    1   AR   Ar  155   6.209   1.186   5.904
    1   AR   Ar  156   3.729   3.869   4.472
    1   AR   Ar  157   2.529   3.143   5.598
    1   AR   Ar  158   0.989   3.691   6.627
    1   AR   Ar  159   3.438   2.460   5.967
    1   AR   Ar  160   2.603   1.983   6.372
    1   AR   Ar  161   5.250   3.025   1.633
    1   AR   Ar  162   4.523   5.363  -0.455
    1   AR   Ar  163   5.241   2.916   0.515
    1   AR   Ar  164   4.010   5.525   1.693
    1   AR   Ar  165   3.380   2.890   1.437
    1   AR   Ar  166   3.120   4.662   3.567
    1   AR   Ar  167   4.395   1.877   2.714
    1   AR   Ar  168   4.703   3.259  -0.457
    1   AR   Ar  169   2.715   2.945   2.305
    1   AR   Ar  170   3.149   4.048   5.441
    1   AR   Ar  171   5.007   3.843   4.284
    1   AR   Ar  172   4.402   5.496   4.641
    1   AR   Ar  173   2.036   3.355   6.690
    1   AR   Ar  174   3.870   4.927   6.191
    1   AR   Ar  175   3.933   3.250   6.017
    1   AR   Ar  176   3.724   4.913   5.183
    1   AR   Ar  177   6.274   5.285   0.147
    1   AR   Ar  178   2.642   5.606   0.629
    1   AR   Ar  179   4.470   5.867   0.439
    1   AR   Ar  180   1.797   3.321  -1.257
    1   AR   Ar  181   1.371   5.640   1.112
    1   AR   Ar  182   2.592   0.268   2.661
    1   AR   Ar  183   3.680   4.801   2.546
    1   AR   Ar  184   4.344   6.532   1.368
    1   AR   Ar  185   1.900   5.340   3.801
    1   AR   Ar  186   3.856   5.491   3.468
    1   AR   Ar  187   3.769   6.674   2.555
    1   AR   Ar  188   3.256   6.313   1.553
    1   AR   Ar  189   3.100   3.535   6.684
    1   AR   Ar  190   5.206   6.147   5.789
    1   AR   Ar  191   5.016   5.038   5.726
    1   AR   Ar  192   3.997   5.860   5.821
    1   AR   Ar  193   0.965   6.530  -1.162
    1   AR   Ar  194   5.263   4.229  -1.438
    1   AR   Ar  195   6.614   0.377  -0.189
    1   AR   Ar  196   4.930   6.655  -0.383
    1   AR   Ar  197   5.414   1.455   0.227
    1   AR   Ar  198   6.985   1.263   1.043
    1   AR   Ar  199   5.536   1.512   1.599
    1   AR   Ar  200   6.186   2.252   0.064
    1   AR   Ar  201   5.025   6.851   3.035
    1   AR   Ar  202   5.225   2.382   4.419
    1   AR   Ar  203   6.416   6.493   4.561
    1   AR   Ar  204   5.072   0.367   4.086
    1   AR   Ar  205   5.837   0.387   3.167
    1   AR   Ar  206   4.874   0.138   5.037
    1   AR   Ar  207   7.083   0.352   5.969
    1   AR   Ar  208   6.885   0.256   3.856
    1   AR   Ar  209   5.800   2.698  -1.960
    1   AR   Ar  210   4.061   1.102   1.149
    1   AR   Ar  211   7.077   3.445   0.168
    1   AR   Ar  212   6.388   3.921  -1.709
    1   AR   Ar  213   3.190   1.725   1.938
    1   AR   Ar  214   3.787   2.784   2.515
    1   AR   Ar  215   6.358   2.484   1.639
    1   AR   Ar  216   0.008   4.310   0.972
    1   AR   Ar  217   4.179   2.917   4.089
    1   AR   Ar  218   4.384   2.579   5.195
    1   AR   Ar  219   5.372   2.108   3.456
    1   AR   Ar  220   5.568   2.748   2.667
    1   AR   Ar  221   5.916   0.476   4.699
    1   AR   Ar  222   4.858   2.005   6.052
    1   AR   Ar  223   0.645   0.452   6.773
    1   AR   Ar  224   5.285   3.146   5.929
    1   AR   Ar  225   6.030   4.757   1.179
    1   AR   Ar  226   4.648   4.125   2.135
    1   AR   Ar  227   0.525   5.142   0.298
    1   AR   Ar  228   5.137   5.794   1.576
    1   AR   Ar  229   6.167   3.880   0.134
    1   AR   Ar  230   4.321   4.455   3.282
    1   AR   Ar  231   6.395   2.058   2.799
    1   AR   Ar  232   4.218   2.743   0.468
    1   AR   Ar  233   6.205   2.752   4.263
    1   AR   Ar  234   0.167   3.098   4.977
    1   AR   Ar  235   0.428   2.409   4.047
    1   AR   Ar  236   5.304   4.750   4.675
    1   AR   Ar  237   5.544   3.816   5.097
    1   AR   Ar  238   4.500   4.030   5.319
    1   AR   Ar  239   6.977   3.922   8.838
    1   AR   Ar  240   6.445   3.541   5.907
    1   AR   Ar  241   0.497   6.941  -0.039
    1   AR   Ar  242   4.294   4.552   0.437
    1   AR   Ar  243   5.698   3.928   2.996
    1   AR   Ar  244   0.900   4.982  -0.684
    1   AR   Ar  245   5.742   0.119   1.242
    1   AR   Ar  246   6.145   6.021   1.356
    1   AR   Ar  247   4.460   3.627   0.990
    1   AR   Ar  248   5.717   6.304   0.426
    1   AR   Ar  249   4.660   5.488   2.545
    1   AR   Ar  250   5.339   6.235   4.766
    1   AR   Ar  251   5.912   5.556   4.216
    1   AR   Ar  252   4.710   5.962   3.830
    1   AR   Ar  253   5.275   4.175   6.241
    1   AR   Ar  254   4.063   5.642   7.007
    1   AR   Ar  255   4.846   3.176   7.110
    1   AR   Ar  256   5.693   6.679   3.796
    7.12000  7.12000 12.00000
Argon-slab step 2330
  256
    1   AR   Ar    1   6.726   1.466  -0.380
    1   AR   Ar    2   7.029   7.108   0.902
    1   AR   Ar    3   1.014   0.181   1.245
    1   AR   Ar    4   1.566   0.361  -0.419
    1   AR   Ar    5   6.931   5.843   0.730
    1   AR   Ar    6   7.009   0.397   2.868
    1   AR   Ar    7   6.578   4.699   3.251
    1   AR   Ar    8   6.466   6.768   2.063
    1   AR   Ar    9   0.857   0.378   4.048
    1   AR   Ar   10   1.146   1.527   4.488
    1   AR   Ar   11   3.082   0.300   4.688
    1   AR   Ar   12   0.976   1.392   3.275
    1   AR   Ar   13   0.178   0.796   4.653
    1   AR   Ar   14   1.304   1.547   7.308
    1   AR   Ar   15   6.575   0.114   9.058
    1   AR   Ar   16   0.928   0.855   5.309
    1   AR   Ar   17   1.286   1.730  -0.279
    1   AR   Ar   18   6.275   2.865  -1.049
    1   AR   Ar   19   1.340   2.669   1.546
    1   AR   Ar   20   5.782   3.624  -2.447
    1   AR   Ar   21   6.192   0.807   2.056
    1   AR   Ar   22   7.068   1.548   2.047
    1   AR   Ar   23   0.823   1.179   0.616
    1   AR   Ar   24   0.189   2.453   0.902
    1   AR   Ar   25   0.001   1.297   3.720
    1   AR   Ar   26   5.679   1.182   3.946
    1   AR   Ar   27   1.981   1.373   3.815
    1   AR   Ar   28   1.235   2.870   4.795
    1   AR   Ar   29   5.485   1.880   7.008
    1   AR   Ar   30   0.536   1.687   6.199
    1   AR   Ar   31   0.792   6.419   7.275
    1   AR   Ar   32   1.786   2.618   6.068
    1   AR   Ar   33   1.815   4.181  -0.638
    1   AR   Ar   34   0.213   5.432   2.894
    1   AR   Ar   35   6.653   5.027   2.128
    1   AR   Ar   36   0.022   0.402  -3.411
    1   AR   Ar   37   6.554   3.544   2.181
    1   AR   Ar   38   0.223   4.061   2.634
    1   AR   Ar   39   1.267   3.709   2.946
    1   AR   Ar   40   1.318   3.819   1.347
    1   AR   Ar   41   0.442   2.313   2.606
    1   AR   Ar   42   6.894   5.505   5.063
    1   AR   Ar   43   6.861   2.537   6.113
    1   AR   Ar   44   0.498   4.131   3.682
    1   AR   Ar   45   0.708   2.725   5.875
    1   AR   Ar   46   1.106   5.847   6.425
    1   AR   Ar   47   6.145   3.043   7.159
    1   AR   Ar   48   6.802   6.475   6.306
    1   AR   Ar   49   6.065   7.095  -2.169
    1   AR   Ar   50   5.335   4.856   1.966
    1   AR   Ar   51   0.316   5.247   1.378
    1   AR   Ar   52   7.009   5.171  -1.457
    1   AR   Ar   53   5.550   6.264   2.384
    1   AR   Ar   54   6.984   6.403   3.297
    1   AR   Ar   55   5.746   5.241   2.958
    1   AR   Ar   56   0.337   6.956   2.051
    1   AR   Ar   57   6.390   3.099   3.293
    1   AR   Ar   58   6.922   5.471   3.959
    1   AR   Ar   59   1.753   5.247   5.453
    1   AR   Ar   60   0.405   6.484   4.151
    1   AR   Ar   61   6.004   5.220   5.760
    1   AR   Ar   62   0.815   5.631   5.254
    1   AR   Ar   63   2.182   6.077   6.828
    1   AR   Ar   64   1.038   7.076   5.786
    1   AR   Ar   65   3.728   0.154   0.842
    1   AR   Ar   66   1.730   1.366   1.360
    1   AR   Ar   67   3.252   6.507  -0.366
    1   AR   Ar   68   3.106   1.332  -1.519
    1   AR   Ar   69   2.895   0.989   1.083
    1   AR   Ar   70   0.914   0.874   2.053
    1   AR   Ar   71   3.224   1.120   2.983
    1   AR   Ar   72   3.514   0.513   1.911
    1   AR   Ar   73   2.983   0.269   3.660
    1   AR   Ar   74   2.325   0.978   4.831
    1   AR   Ar   75   3.652   1.090   5.256
    1   AR   Ar   76   2.388   1.025   2.005
    1   AR   Ar   77   2.419   6.413   5.583
    1   AR   Ar   78   1.913   0.137   6.558
    1   AR   Ar   79   3.474   6.614   6.696
    1   AR   Ar   80   3.005   5.512   6.260
    1   AR   Ar   81   2.358   1.566  -0.621
    1   AR   Ar   82   0.003   4.379  -0.218
    1   AR   Ar   83   1.704   2.327   0.556
    1   AR   Ar   84   0.874   3.376  -0.963
    1   AR   Ar   85   0.911   2.814  -0.120
    1   AR   Ar   86   2.266   3.312   1.169
    1   AR   Ar   87   2.664   2.269   1.294
    1   AR   Ar   88   3.723   4.215   1.640
    1   AR   Ar   89   0.734   3.414   2.061
    1   AR   Ar   90   2.780   2.057   5.052
    1   AR   Ar   91   1.348   2.321   3.597
    1   AR   Ar   92   1.332   1.889   2.241
    1   AR   Ar   93   1.601   1.188   6.094
    1   AR   Ar   94   1.753   0.837   9.628
    1   AR   Ar   95   4.212   0.565   6.065
    1   AR   Ar   96   3.115   0.450   5.983
    1   AR   Ar   97   4.067   2.485  -1.210
    1   AR   Ar   98   2.966   4.901   1.826
    1   AR   Ar   99   0.063   2.533  -1.439
    1   AR   Ar  100   2.003   2.848  -0.405
    1   AR   Ar  101   2.604   4.336   0.842
    1   AR   Ar  102   3.594   3.692   3.299
    1   AR   Ar  103   1.568   4.769   0.545
    1   AR   Ar  104   2.877   2.875  -1.140
    1   AR   Ar  105   2.038   3.123   3.589
    1   AR   Ar  106   2.756   3.601   4.294
    1   AR   Ar  107   1.982   3.992   5.725
    1   AR   Ar  108   3.483   2.973   4.895
    1   AR   Ar  109   1.341   4.093   4.423
    1   AR   Ar  110   1.119   4.856   6.370
    1   AR   Ar  111   4.133   4.026   6.667
    1   AR   Ar  112   1.280   5.284   7.317
    1   AR   Ar  113   2.380   4.852  -0.143
    1   AR   Ar  114   2.653   4.560  -1.256
    1   AR   Ar  115   2.852   3.793  -0.402
    1   AR   Ar  116   5.237   5.628  -1.306
    1   AR   Ar  117   0.767   5.224   4.111
    1   AR   Ar  118   0.794   6.796   3.194
    1   AR   Ar  119   2.020   3.964   2.097
    1   AR   Ar  120   0.957   4.804   2.652
    1   AR   Ar  121   6.651   4.405   5.356
    1   AR   Ar  122   3.396   5.833   4.771
    1   AR   Ar  123   2.699   4.824   4.760
    1   AR   Ar  124   1.710   4.887   1.716
    1   AR   Ar  125   0.419   4.322   5.840
    1   AR   Ar  126   0.126   6.890   5.180
    1   AR   Ar  127   3.273   4.524   6.968
    1   AR   Ar  128   2.129   4.978   6.670
    1   AR   Ar  129   1.586   0.565   3.155
    1   AR   Ar  130   3.469   1.750  -2.738
    1   AR   Ar  131   4.842   0.310   0.686
    1   AR   Ar  132   2.156   2.189  -1.804
    1   AR   Ar  133   4.228   0.453   3.006
    1   AR   Ar  134   4.464   1.231   3.651
    1   AR   Ar  135   5.299   1.285   2.754
    1   AR   Ar  136   4.905   0.364   2.133
    1   AR   Ar  137   2.595   6.318   3.834
    1   AR   Ar  138   4.706   1.455   4.613
    1   AR   Ar  139   5.806   2.116   5.647
    1   AR   Ar  140   4.162   0.568   4.406
    1   AR   Ar  141   3.926   6.592   4.023
    1   AR   Ar  142   3.943   6.907   5.282
    1   AR   Ar  143   6.100   0.025   5.685
    1   AR   Ar  144   5.232   0.764   5.746
    1   AR   Ar  145   3.503   3.737   0.365
    1   AR   Ar  146   4.369   1.909   1.618
    1   AR   Ar  147   6.139   1.743  -1.252
    1   AR   Ar  148   4.644   3.653  -2.299
    1   AR   Ar  149   3.514   1.895   0.533
    1   AR   Ar  150   2.067   1.884   2.929
    1   AR   Ar  151   2.954   2.204   3.612
    1   AR   Ar  152   2.960   2.620   0.009
    1   AR   Ar  153   3.037   1.230   4.070
    1   AR   Ar  154   3.858   1.894   4.122
    1   AR   Ar  155   6.253   1.204   5.903
    1   AR   Ar  156   3.743   3.899   4.505
    1   AR   Ar  157   2.537   3.139   5.635
    1   AR   Ar  158   0.979   3.674   6.619
    1   AR   Ar  159   3.438   2.425   5.998
    1   AR   Ar  160   2.595   1.970   6.385
    1   AR   Ar  161   5.292   3.015   1.623
    1   AR   Ar  162   4.528   5.397  -0.483
    1   AR   Ar  163   5.284   2.923   0.506
    1   AR   Ar  164   3.978   5.520   1.720
    1   AR   Ar  165   3.391   2.913   1.443
    1   AR   Ar  166   3.099   4.659   3.564
    1   AR   Ar  167   4.381   1.848   2.733
    1   AR   Ar  168   4.714   3.258  -0.486
    1   AR   Ar  169   2.688   2.934   2.293
    1   AR   Ar  170   3.138   4.075   5.451
    1   AR   Ar  171   5.065   3.831   4.235
    1   AR   Ar  172   4.387   5.502   4.642
    1   AR   Ar  173   2.016   3.386   6.706
    1   AR   Ar  174   3.853   4.942   6.197
    1   AR   Ar  175   3.925   3.236   6.013
    1   AR   Ar  176   3.736   4.936   5.199
    1   AR   Ar  177   6.281   5.297   0.150
    1   AR   Ar  178   2.641   5.607   0.622
    1   AR   Ar  179   4.449   5.883   0.428
    1   AR   Ar  180   1.800   3.313  -1.259
    1   AR   Ar  181   1.373   5.649   1.106
    1   AR   Ar  182   2.576   0.264   2.634
    1   AR   Ar  183   3.707   4.819   2.517
    1   AR   Ar  184   4.365   6.552   1.378
    1   AR   Ar  185   1.915   5.334   3.810
    1   AR   Ar  186   3.832   5.489   3.447
    1   AR   Ar  187   3.771   6.692   2.577
    1   AR   Ar  188   3.236   6.284   1.518
    1   AR   Ar  189   3.098   3.498   6.676
    1   AR   Ar  190   5.199   6.186   5.787
    1   AR   Ar  191   5.011   5.030   5.759
    1   AR   Ar  192   4.009   5.882   5.826
    1   AR   Ar  193   0.961   6.547  -1.182
    1   AR   Ar  194   5.253   4.208  -1.452
    1   AR   Ar  195   6.590   0.385  -0.172
    1   AR   Ar  196   4.922   6.663  -0.393
    1   AR   Ar  197   5.432   1.447   0.238
    1   AR   Ar  198   6.990   1.267   1.077
    1   AR   Ar  199   5.512   1.502   1.615
    1   AR   Ar  200   6.182   2.227   0.050
    1   AR   Ar  201   5.006   6.858   3.057
    1   AR   Ar  202   5.216   2.395   4.454
    1   AR   Ar  203   6.397   6.498   4.575
    1   AR   Ar  204   5.069   0.345   4.089
    1   AR   Ar  205   5.828   0.383   3.160
    1   AR   Ar  206   4.887   0.148   5.045
    1   AR   Ar  207   7.078   0.385   5.958
    1   AR   Ar  208   6.877   0.279   3.830
    1   AR   Ar  209   5.819   2.680  -1.934
    1   AR   Ar  210   4.070   1.109   1.173
    1   AR   Ar  211   0.002   3.436   0.157
    1   AR   Ar  212   6.403   3.942  -1.687
    1   AR   Ar  213   3.195   1.724   1.922
    1   AR   Ar  214   3.801   2.765   2.511
    1   AR   Ar  215   6.344   2.484   1.630
    1   AR   Ar  216   7.075   4.306   0.974
    1   AR   Ar  217   4.216   2.898   4.067
    1   AR   Ar  218   4.390   2.582   5.193
    1   AR   Ar  219   5.405   2.117   3.467
    1   AR   Ar  220   5.551   2.784   2.648
    1   AR   Ar  221   5.916   0.498   4.708
    1   AR   Ar  222   4.889   2.014   6.074
    1   AR   Ar  223   0.644   0.474   6.776
    1   AR   Ar  224   5.242   3.156   5.935
    1   AR   Ar  225   6.058   4.735   1.208
    1   AR   Ar  226   4.634   4.153   2.150
    1   AR   Ar  227   0.516   5.142   0.310
    1   AR   Ar  228   5.128   5.763   1.560
    1   AR   Ar  229   6.154   3.832   0.160
    1   AR   Ar  230   4.332   4.440   3.268
    1   AR   Ar  231   6.412   2.064   2.777
    1   AR   Ar  232   4.222   2.761   0.496
    1   AR   Ar  233   6.226   2.798   4.271
    1   AR   Ar  234   0.145   3.105   4.977
    1   AR   Ar  235   0.422   2.413   4.053
    1   AR   Ar  236   5.324   4.764   4.700
    1   AR   Ar  237   5.564   3.803   5.117
    1   AR   Ar  238   4.501   3.988   5.322
    1   AR   Ar  239   6.960   3.916   8.829
    1   AR   Ar  240   6.428   3.556   5.919
    1   AR   Ar  241   0.484   6.968  -0.033
    1   AR   Ar  242   4.265   4.565   0.392
    1   AR   Ar  243   5.702   3.945   2.999
    1   AR   Ar  244   0.948   4.992  -0.661
    1   AR   Ar  245   5.732   0.151   1.223
    1   AR   Ar  246   6.154   6.034   1.355
    1   AR   Ar  247   4.464   3.635   0.993
    1   AR   Ar  248   5.711   6.300   0.388
    1   AR   Ar  249   4.681   5.503   2.552
    1   AR   Ar  250   5.386   6.212   4.768
    1   AR   Ar  251   5.925   5.567   4.225
    1   AR   Ar  252   4.706   5.964   3.841
    1   AR   Ar  253   5.269   4.174   6.221
    1   AR   Ar  254   4.015   5.654   7.025
    1   AR   Ar  255   4.833   3.192   7.094
    1   AR   Ar  256   5.706   6.680   3.797
    7.12000  7.12000 12.00000
Argon-slab step 2335
  256
    1   AR   Ar    1   6.703   1.453  -0.383
    1   AR   Ar    2   7.001   7.115   0.900
    1   AR   Ar    3   1.040   0.198   1.279
    1   AR   Ar    4   1.549   0.352  -0.454
    1   AR   Ar    5   6.926   5.839   0.692
    1   AR   Ar    6   7.002   0.414   2.851
    1   AR   Ar    7   6.547   4.687   3.253
    1   AR   Ar    8   6.501   6.768   2.052
    1   AR   Ar    9   0.871   0.383   4.054
    1   AR   Ar   10   1.127   1.530   4.487
    1   AR   Ar   11   3.101   0.290   4.695
    1   AR   Ar   12   0.956   1.427   3.261
    1   AR   Ar   13   0.194   0.810   4.670
    1   AR   Ar   14   1.310   1.543   7.301
    1   AR   Ar   15   6.567   0.122   9.065
    1   AR   Ar   16   0.907   0.865   5.316
    1   AR   Ar   17   1.277   1.743  -0.247
    1   AR   Ar   18   6.272   2.910  -1.027
    1   AR   Ar   19   1.375   2.664   1.523
    1   AR   Ar   20   5.758   3.643  -2.469
    1   AR   Ar   21   6.194   0.809   2.063
    1   AR   Ar   22   7.083   1.518   2.060
    1   AR   Ar   23   0.830   1.175   0.624
    1   AR   Ar   24   0.210   2.481   0.883
    1   AR   Ar   25   7.080   1.298   3.715
    1   AR   Ar   26   5.719   1.213   3.970
    1   AR   Ar   27   2.000   1.353   3.812
    1   AR   Ar   28   1.267   2.888   4.808
    1   AR   Ar   29   5.508   1.898   7.029
    1   AR   Ar   30   0.538   1.742   6.204
    1   AR   Ar   31   0.837   6.410   7.293
    1   AR   Ar   32   1.772   2.605   6.085
    1   AR   Ar   33   1.787   4.176  -0.674
    1   AR   Ar   34   0.216   5.429   2.905
    1   AR   Ar   35   6.604   5.023   2.126
    1   AR   Ar   36   0.036   0.409  -3.412
    1   AR   Ar   37   6.600   3.561   2.201
    1   AR   Ar   38   0.214   4.070   2.622
    1   AR   Ar   39   1.273   3.725   2.915
    1   AR   Ar   40   1.325   3.820   1.306
    1   AR   Ar   41   0.437   2.334   2.624
    1   AR   Ar   42   6.849   5.536   5.065
    1   AR   Ar   43   6.849   2.514   6.121
    1   AR   Ar   44   0.499   4.171   3.735
    1   AR   Ar   45   0.714   2.737   5.872
    1   AR   Ar   46   1.133   5.839   6.396
    1   AR   Ar   47   6.143   3.035   7.163
    1   AR   Ar   48   6.834   6.478   6.323
    1   AR   Ar   49   6.036   7.091  -2.181
    1   AR   Ar   50   5.311   4.850   1.947
    1   AR   Ar   51   0.284   5.244   1.405
    1   AR   Ar   52   6.958   5.166  -1.465
    1   AR   Ar   53   5.565   6.300   2.370
    1   AR   Ar   54   6.961   6.410   3.297
    1   AR   Ar   55   5.772   5.253   2.963
    1   AR   Ar   56   0.350   6.957   2.038
    1   AR   Ar   57   6.357   3.085   3.303
    1   AR   Ar   58   6.921   5.468   3.961
    1   AR   Ar   59   1.768   5.242   5.439
    1   AR   Ar   60   0.404   6.492   4.160
    1   AR   Ar   61   6.021   5.216   5.789
    1   AR   Ar   62   0.826   5.638   5.226
    1   AR   Ar   63   2.189   6.043   6.812
    1   AR   Ar   64   1.073   7.017   5.815
    1   AR   Ar   65   3.703   0.152   0.870
    1   AR   Ar   66   1.713   1.357   1.368
    1   AR   Ar   67   3.246   6.486  -0.382
    1   AR   Ar   68   3.103   1.330  -1.503
    1   AR   Ar   69   2.859   1.019   1.076
    1   AR   Ar   70   0.874   0.856   2.071
    1   AR   Ar   71   3.229   1.125   2.984
    1   AR   Ar   72   3.518   0.528   1.914
    1   AR   Ar   73   2.963   0.258   3.667
    1   AR   Ar   74   2.302   0.969   4.813
    1   AR   Ar   75   3.654   1.085   5.250
    1   AR   Ar   76   2.391   1.029   1.981
    1   AR   Ar   77   2.420   6.394   5.590
    1   AR   Ar   78   1.923   0.107   6.575
    1   AR   Ar   79   3.495   6.651   6.670
    1   AR   Ar   80   3.024   5.534   6.231
    1   AR   Ar   81   2.368   1.558  -0.646
    1   AR   Ar   82   7.107   4.388  -0.205
    1   AR   Ar   83   1.712   2.359   0.544
    1   AR   Ar   84   0.837   3.403  -0.954
    1   AR   Ar   85   0.934   2.852  -0.101
    1   AR   Ar   86   2.282   3.314   1.164
    1   AR   Ar   87   2.634   2.270   1.264
    1   AR   Ar   88   3.702   4.203   1.622
    1   AR   Ar   89   0.740   3.403   2.065
    1   AR   Ar   90   2.790   2.061   5.056
    1   AR   Ar   91   1.359   2.314   3.573
    1   AR   Ar   92   1.301   1.884   2.270
    1   AR   Ar   93   1.584   1.214   6.078
    1   AR   Ar   94   1.757   0.869   9.593
    1   AR   Ar   95   4.193   0.603   6.050
    1   AR   Ar   96   3.140   0.455   5.968
    1   AR   Ar   97   4.069   2.480  -1.262
    1   AR   Ar   98   2.945   4.902   1.830
    1   AR   Ar   99   0.065   2.507  -1.460
    1   AR   Ar  100   1.995   2.863  -0.361
    1   AR   Ar  101   2.600   4.331   0.857
    1   AR   Ar  102   3.599   3.683   3.308
    1   AR   Ar  103   1.557   4.806   0.587
    1   AR   Ar  104   2.872   2.848  -1.164
    1   AR   Ar  105   2.022   3.132   3.604
    1   AR   Ar  106   2.781   3.626   4.266
    1   AR   Ar  107   1.959   4.024   5.727
    1   AR   Ar  108   3.462   2.963   4.931
    1   AR   Ar  109   1.338   4.085   4.437
    1   AR   Ar  110   1.091   4.883   6.350
    1   AR   Ar  111   4.142   4.023   6.673
    1   AR   Ar  112   1.288   5.283   7.320
    1   AR   Ar  113   2.363   4.864  -0.125
    1   AR   Ar  114   2.637   4.552  -1.237
    1   AR   Ar  115   2.823   3.784  -0.457
    1   AR   Ar  116   5.232   5.652  -1.324
    1   AR   Ar  117   0.785   5.228   4.145
    1   AR   Ar  118   0.786   6.782   3.201
    1   AR   Ar  119   2.027   3.957   2.127
    1   AR   Ar  120   0.994   4.804   2.645
    1   AR   Ar  121   6.659   4.401   5.318
    1   AR   Ar  122   3.418   5.825   4.770
    1   AR   Ar  123   2.706   4.840   4.768
    1   AR   Ar  124   1.702   4.875   1.711
    1   AR   Ar  125   0.431   4.305   5.868
    1   AR   Ar  126   0.145   6.877   5.167
    1   AR   Ar  127   3.298   4.518   6.957
    1   AR   Ar  128   2.135   4.985   6.690
    1   AR   Ar  129   1.609   0.587   3.186
    1   AR   Ar  130   3.476   1.755  -2.716
    1   AR   Ar  131   4.839   0.303   0.673
    1   AR   Ar  132   2.150   2.209  -1.791
    1   AR   Ar  133   4.262   0.460   2.969
    1   AR   Ar  134   4.471   1.213   3.654
    1   AR   Ar  135   5.299   1.262   2.816
    1   AR   Ar  136   4.922   0.374   2.115
    1   AR   Ar  137   2.596   6.298   3.831
    1   AR   Ar  138   4.675   1.455   4.617
    1   AR   Ar  139   5.836   2.098   5.649
    1   AR   Ar  140   4.165   0.632   4.381
    1   AR   Ar  141   3.919   6.543   4.051
    1   AR   Ar  142   3.902   6.918   5.290
    1   AR   Ar  143   6.105   0.024   5.679
    1   AR   Ar  144   5.264   0.798   5.743
    1   AR   Ar  145   3.481   3.728   0.373
    1   AR   Ar  146   4.395   1.895   1.609
    1   AR   Ar  147   6.122   1.732  -1.254
    1   AR   Ar  148   4.616   3.670  -2.276
    1   AR   Ar  149   3.490   1.894   0.512
    1   AR   Ar  150   2.058   1.911   2.897
    1   AR   Ar  151   2.942   2.207   3.620
    1   AR   Ar  152   2.965   2.635   0.026
    1   AR   Ar  153   3.036   1.222   4.020
    1   AR   Ar  154   3.839   1.865   4.105
    1   AR   Ar  155   6.299   1.219   5.903
    1   AR   Ar  156   3.761   3.936   4.535
    1   AR   Ar  157   2.556   3.132   5.669
    1   AR   Ar  158   0.968   3.658   6.610
    1   AR   Ar  159   3.429   2.372   6.024
    1   AR   Ar  160   2.587   1.963   6.393
    1   AR   Ar  161   5.332   3.006   1.611
    1   AR   Ar  162   4.533   5.429  -0.514
    1   AR   Ar  163   5.329   2.930   0.497
    1   AR   Ar  164   3.947   5.514   1.744
    1   AR   Ar  165   3.413   2.946   1.449
    1   AR   Ar  166   3.078   4.655   3.561
    1   AR   Ar  167   4.367   1.818   2.753
    1   AR   Ar  168   4.724   3.256  -0.515
    1   AR   Ar  169   2.659   2.922   2.280
    1   AR   Ar  170   3.120   4.071   5.467
    1   AR   Ar  171   5.117   3.816   4.180
    1   AR   Ar  172   4.375   5.504   4.652
    1   AR   Ar  173   1.999   3.421   6.724
    1   AR   Ar  174   3.843   4.949   6.208
    1   AR   Ar  175   3.931   3.240   6.004
    1   AR   Ar  176   3.747   4.952   5.211
    1   AR   Ar  177   6.284   5.305   0.152
    1   AR   Ar  178   2.640   5.608   0.617
    1   AR   Ar  179   4.429   5.902   0.423
    1   AR   Ar  180   1.816   3.307  -1.275
    1   AR   Ar  181   1.372   5.662   1.099
    1   AR   Ar  182   2.563   0.254   2.612
    1   AR   Ar  183   3.738   4.838   2.495
    1   AR   Ar  184   4.386   6.572   1.389
    1   AR   Ar  185   1.929   5.328   3.820
    1   AR   Ar  186   3.808   5.486   3.426
    1   AR   Ar  187   3.774   6.709   2.597
    1   AR   Ar  188   3.215   6.257   1.482
    1   AR   Ar  189   3.096   3.459   6.665
    1   AR   Ar  190   5.191   6.224   5.787
    1   AR   Ar  191   4.994   5.028   5.786
    1   AR   Ar  192   4.020   5.902   5.829
    1   AR   Ar  193   0.950   6.552  -1.193
    1   AR   Ar  194   5.243   4.187  -1.466
    1   AR   Ar  195   6.580   0.390  -0.154
    1   AR   Ar  196   4.889   6.685  -0.400
    1   AR   Ar  197   5.450   1.439   0.251
    1   AR   Ar  198   6.992   1.268   1.105
    1   AR   Ar  199   5.487   1.493   1.631
    1   AR   Ar  200   6.176   2.209   0.038
    1   AR   Ar  201   4.984   6.862   3.081
    1   AR   Ar  202   5.206   2.410   4.492
    1   AR   Ar  203   6.384   6.504   4.591
    1   AR   Ar  204   5.072   0.322   4.076
    1   AR   Ar  205   5.823   0.384   3.150
    1   AR   Ar  206   4.902   0.149   5.056
    1   AR   Ar  207   7.072   0.424   5.950
    1   AR   Ar  208   6.864   0.294   3.817
    1   AR   Ar  209   5.834   2.659  -1.912
    1   AR   Ar  210   4.074   1.103   1.190
    1   AR   Ar  211   0.051   3.419   0.150
    1   AR   Ar  212   6.410   3.952  -1.664
    1   AR   Ar  213   3.210   1.719   1.914
    1   AR   Ar  214   3.814   2.745   2.506
    1   AR   Ar  215   6.323   2.484   1.624
    1   AR   Ar  216   7.023   4.300   0.974
    1   AR   Ar  217   4.255   2.882   4.044
    1   AR   Ar  218   4.401   2.584   5.192
    1   AR   Ar  219   5.438   2.126   3.475
    1   AR   Ar  220   5.536   2.821   2.628
    1   AR   Ar  221   5.919   0.517   4.720
    1   AR   Ar  222   4.913   2.023   6.097
    1   AR   Ar  223   0.645   0.496   6.779
    1   AR   Ar  224   5.197   3.161   5.941
    1   AR   Ar  225   6.088   4.714   1.233
    1   AR   Ar  226   4.617   4.176   2.169
    1   AR   Ar  227   0.505   5.151   0.327
    1   AR   Ar  228   5.114   5.736   1.538
    1   AR   Ar  229   6.137   3.785   0.187
    1   AR   Ar  230   4.348   4.427   3.257
    1   AR   Ar  231   6.429   2.070   2.756
    1   AR   Ar  232   4.221   2.775   0.522
    1   AR   Ar  233   6.247   2.843   4.283
    1   AR   Ar  234   0.122   3.112   4.977
    1   AR   Ar  235   0.413   2.416   4.062
    1   AR   Ar  236   5.343   4.783   4.726
    1   AR   Ar  237   5.590   3.789   5.145
    1   AR   Ar  238   4.500   3.947   5.326
    1   AR   Ar  239   6.943   3.909   8.821
    1   AR   Ar  240   6.409   3.567   5.932
    1   AR   Ar  241   0.473   6.994  -0.027
    1   AR   Ar  242   4.294   4.580   0.371
    1   AR   Ar  243   5.706   3.962   3.001
    1   AR   Ar  244   0.997   5.000  -0.638
    1   AR   Ar  245   5.725   0.181   1.206
    1   AR   Ar  246   6.159   6.047   1.358
    1   AR   Ar  247   4.469   3.646   0.999
    1   AR   Ar  248   5.704   6.296   0.351
    1   AR   Ar  249   4.701   5.518   2.561
    1   AR   Ar  250   5.425   6.195   4.770
    1   AR   Ar  251   5.939   5.573   4.229
    1   AR   Ar  252   4.716   5.965   3.834
    1   AR   Ar  253   5.265   4.181   6.219
    1   AR   Ar  254   4.000   5.651   7.005
    1   AR   Ar  255   4.820   3.208   7.076
    1   AR   Ar  256   5.723   6.674   3.802
    7.12000  7.12000 12.00000
Argon-slab step 2340
  256
    1   AR   Ar    1   6.685   1.435  -0.387
    1   AR   Ar    2   6.971   0.003   0.901
    1   AR   Ar    3   1.066   0.214   1.308
    1   AR   Ar    4   1.532   0.343  -0.488
    1   AR   Ar    5   6.927   5.845   0.656
    1   AR   Ar    6   6.997   0.433   2.821
    1   AR   Ar    7   6.523   4.669   3.256
    1   AR   Ar    8   6.525   6.771   2.044
    1   AR   Ar    9   0.890   0.377   4.009
    1   AR   Ar   10   1.108   1.519   4.490
    1   AR   Ar   11   3.125   0.279   4.706
    1   AR   Ar   12   0.949   1.441   3.253
    1   AR   Ar   13   0.193   0.826   4.682
    1   AR   Ar   14   1.315   1.539   7.292
    1   AR   Ar   15   6.552   0.139   9.083
    1   AR   Ar   16   0.897   0.874   5.334
    1   AR   Ar   17   1.268   1.756  -0.216
    1   AR   Ar   18   6.271   2.956  -0.997
    1   AR   Ar   19   1.410   2.661   1.500
    1   AR   Ar   20   5.731   3.656  -2.486
    1   AR   Ar   21   6.198   0.810   2.071
    1   AR   Ar   22   7.099   1.489   2.083
    1   AR   Ar   23   0.825   1.170   0.595
    1   AR   Ar   24   0.227   2.496   0.874
    1   AR   Ar   25   7.039   1.304   3.708
    1   AR   Ar   26   5.748   1.235   3.980
    1   AR   Ar   27   2.017   1.335   3.811
    1   AR   Ar   28   1.298   2.906   4.820
    1   AR   Ar   29   5.531   1.918   7.050
    1   AR   Ar   30   0.542   1.792   6.210
    1   AR   Ar   31   0.882   6.403   7.311
    1   AR   Ar   32   1.753   2.587   6.102
    1   AR   Ar   33   1.756   4.170  -0.708
    1   AR   Ar   34   0.215   5.429   2.918
    1   AR   Ar   35   6.554   5.019   2.127
    1   AR   Ar   36   0.050   0.415  -3.412
    1   AR   Ar   37   6.636   3.572   2.216
    1   AR   Ar   38   0.209   4.090   2.620
    1   AR   Ar   39   1.279   3.742   2.888
    1   AR   Ar   40   1.332   3.822   1.261
    1   AR   Ar   41   0.429   2.357   2.646
    1   AR   Ar   42   6.803   5.567   5.066
    1   AR   Ar   43   6.831   2.491   6.130
    1   AR   Ar   44   0.498   4.211   3.787
    1   AR   Ar   45   0.722   2.736   5.853
    1   AR   Ar   46   1.162   5.852   6.365
    1   AR   Ar   47   6.139   3.026   7.164
    1   AR   Ar   48   6.866   6.482   6.338
    1   AR   Ar   49   6.027   7.098  -2.153
    1   AR   Ar   50   5.323   4.842   1.937
    1   AR   Ar   51   0.256   5.239   1.436
    1   AR   Ar   52   6.908   5.160  -1.471
    1   AR   Ar   53   5.581   6.335   2.356
    1   AR   Ar   54   6.928   6.415   3.294
    1   AR   Ar   55   5.790   5.270   2.965
    1   AR   Ar   56   0.373   6.960   2.025
    1   AR   Ar   57   6.326   3.071   3.305
    1   AR   Ar   58   6.920   5.467   3.960
    1   AR   Ar   59   1.786   5.235   5.428
    1   AR   Ar   60   0.403   6.499   4.174
    1   AR   Ar   61   6.034   5.220   5.753
    1   AR   Ar   62   0.835   5.647   5.198
    1   AR   Ar   63   2.195   6.012   6.795
    1   AR   Ar   64   1.108   6.958   5.846
    1   AR   Ar   65   3.715   0.138   0.860
    1   AR   Ar   66   1.685   1.355   1.365
    1   AR   Ar   67   3.240   6.465  -0.397
    1   AR   Ar   68   3.099   1.329  -1.488
    1   AR   Ar   69   2.827   1.051   1.064
    1   AR   Ar   70   0.833   0.842   2.093
    1   AR   Ar   71   3.234   1.130   2.981
    1   AR   Ar   72   3.521   0.543   1.920
    1   AR   Ar   73   2.943   0.242   3.667
    1   AR   Ar   74   2.277   0.962   4.796
    1   AR   Ar   75   3.655   1.082   5.241
    1   AR   Ar   76   2.399   1.033   1.970
    1   AR   Ar   77   2.422   6.373   5.599
    1   AR   Ar   78   1.932   0.076   6.591
    1   AR   Ar   79   3.515   6.688   6.641
    1   AR   Ar   80   3.037   5.562   6.201
    1   AR   Ar   81   2.379   1.553  -0.672
    1   AR   Ar   82   7.088   4.400  -0.194
    1   AR   Ar   83   1.722   2.389   0.534
    1   AR   Ar   84   0.794   3.434  -0.948
    1   AR   Ar   85   0.957   2.885  -0.077
    1   AR   Ar   86   2.298   3.314   1.159
    1   AR   Ar   87   2.597   2.269   1.229
    1   AR   Ar   88   3.708   4.223   1.620
    1   AR   Ar   89   0.746   3.385   2.066
    1   AR   Ar   90   2.800   2.065   5.061
    1   AR   Ar   91   1.369   2.309   3.553
    1   AR   Ar   92   1.264   1.876   2.292
    1   AR   Ar   93   1.568   1.241   6.064
    1   AR   Ar   94   1.760   0.901   9.557
    1   AR   Ar   95   4.177   0.640   6.035
    1   AR   Ar   96   3.150   0.459   5.959
    1   AR   Ar   97   4.066   2.471  -1.295
    1   AR   Ar   98   2.950   4.878   1.855
    1   AR   Ar   99   0.068   2.481  -1.481
    1   AR   Ar  100   1.987   2.877  -0.315
    1   AR   Ar  101   2.596   4.327   0.872
    1   AR   Ar  102   3.602   3.672   3.318
    1   AR   Ar  103   1.545   4.835   0.627
    1   AR   Ar  104   2.867   2.821  -1.186
    1   AR   Ar  105   2.008   3.142   3.618
    1   AR   Ar  106   2.805   3.651   4.239
    1   AR   Ar  107   1.935   4.059   5.729
    1   AR   Ar  108   3.438   2.954   4.968
    1   AR   Ar  109   1.335   4.077   4.452
    1   AR   Ar  110   1.068   4.895   6.331
    1   AR   Ar  111   4.157   4.018   6.678
    1   AR   Ar  112   1.296   5.283   7.325
    1   AR   Ar  113   2.348   4.876  -0.108
    1   AR   Ar  114   2.622   4.544  -1.218
    1   AR   Ar  115   2.791   3.773  -0.514
    1   AR   Ar  116   5.228   5.677  -1.342
    1   AR   Ar  117   0.807   5.232   4.180
    1   AR   Ar  118   0.783   6.773   3.204
    1   AR   Ar  119   2.037   3.947   2.157
    1   AR   Ar  120   1.036   4.802   2.637
    1   AR   Ar  121   6.664   4.400   5.276
    1   AR   Ar  122   3.433   5.824   4.768
    1   AR   Ar  123   2.712   4.857   4.774
    1   AR   Ar  124   1.693   4.862   1.706
    1   AR   Ar  125   0.440   4.281   5.894
    1   AR   Ar  126   0.171   6.862   5.128
    1   AR   Ar  127   3.313   4.513   6.951
    1   AR   Ar  128   2.142   4.989   6.707
    1   AR   Ar  129   1.632   0.606   3.216
    1   AR   Ar  130   3.483   1.760  -2.692
    1   AR   Ar  131   4.836   0.303   0.663
    1   AR   Ar  132   2.155   2.212  -1.804
    1   AR   Ar  133   4.290   0.470   2.930
    1   AR   Ar  134   4.487   1.200   3.640
    1   AR   Ar  135   5.300   1.238   2.876
    1   AR   Ar  136   4.940   0.385   2.095
    1   AR   Ar  137   2.599   6.279   3.828
    1   AR   Ar  138   4.652   1.463   4.632
    1   AR   Ar  139   5.867   2.087   5.648
    1   AR   Ar  140   4.148   0.680   4.365
    1   AR   Ar  141   3.905   6.499   4.081
    1   AR   Ar  142   3.884   6.891   5.315
    1   AR   Ar  143   6.108   0.021   5.672
    1   AR   Ar  144   5.298   0.837   5.743
    1   AR   Ar  145   3.460   3.719   0.386
    1   AR   Ar  146   4.427   1.900   1.610
    1   AR   Ar  147   6.105   1.723  -1.257
    1   AR   Ar  148   4.589   3.687  -2.252
    1   AR   Ar  149   3.468   1.889   0.497
    1   AR   Ar  150   2.060   1.930   2.874
    1   AR   Ar  151   2.936   2.208   3.616
    1   AR   Ar  152   2.969   2.654   0.042
    1   AR   Ar  153   3.035   1.213   3.976
    1   AR   Ar  154   3.818   1.842   4.091
    1   AR   Ar  155   6.347   1.228   5.903
    1   AR   Ar  156   3.781   3.974   4.564
    1   AR   Ar  157   2.582   3.124   5.702
    1   AR   Ar  158   0.963   3.660   6.588
    1   AR   Ar  159   3.422   2.315   6.044
    1   AR   Ar  160   2.572   1.952   6.403
    1   AR   Ar  161   5.371   2.997   1.597
    1   AR   Ar  162   4.538   5.460  -0.546
    1   AR   Ar  163   5.375   2.937   0.487
    1   AR   Ar  164   3.920   5.511   1.765
    1   AR   Ar  165   3.440   2.981   1.453
    1   AR   Ar  166   3.058   4.651   3.560
    1   AR   Ar  167   4.351   1.789   2.772
    1   AR   Ar  168   4.734   3.254  -0.542
    1   AR   Ar  169   2.630   2.910   2.267
    1   AR   Ar  170   3.101   4.056   5.497
    1   AR   Ar  171   5.167   3.801   4.122
    1   AR   Ar  172   4.372   5.505   4.665
    1   AR   Ar  173   1.984   3.458   6.742
    1   AR   Ar  174   3.843   4.949   6.221
    1   AR   Ar  175   3.942   3.251   5.991
    1   AR   Ar  176   3.755   4.960   5.221
    1   AR   Ar  177   6.282   5.306   0.149
    1   AR   Ar  178   2.639   5.609   0.614
    1   AR   Ar  179   4.410   5.923   0.422
    1   AR   Ar  180   1.846   3.321  -1.290
    1   AR   Ar  181   1.368   5.683   1.092
    1   AR   Ar  182   2.552   0.239   2.595
    1   AR   Ar  183   3.771   4.855   2.480
    1   AR   Ar  184   4.407   6.592   1.401
    1   AR   Ar  185   1.944   5.321   3.831
    1   AR   Ar  186   3.785   5.483   3.405
    1   AR   Ar  187   3.776   6.725   2.615
    1   AR   Ar  188   3.195   6.231   1.445
    1   AR   Ar  189   3.094   3.420   6.652
    1   AR   Ar  190   5.182   6.262   5.790
    1   AR   Ar  191   4.966   5.035   5.808
    1   AR   Ar  192   4.023   5.892   5.833
    1   AR   Ar  193   0.939   6.557  -1.202
    1   AR   Ar  194   5.235   4.164  -1.480
    1   AR   Ar  195   6.624   0.383  -0.139
    1   AR   Ar  196   4.857   6.705  -0.406
    1   AR   Ar  197   5.468   1.429   0.265
    1   AR   Ar  198   6.991   1.267   1.124
    1   AR   Ar  199   5.459   1.485   1.648
    1   AR   Ar  200   6.167   2.198   0.028
    1   AR   Ar  201   4.976   6.855   3.113
    1   AR   Ar  202   5.196   2.426   4.532
    1   AR   Ar  203   6.380   6.513   4.608
    1   AR   Ar  204   5.091   0.316   4.076
    1   AR   Ar  205   5.823   0.387   3.140
    1   AR   Ar  206   4.915   0.143   5.071
    1   AR   Ar  207   7.068   0.466   5.943
    1   AR   Ar  208   6.847   0.301   3.816
    1   AR   Ar  209   5.848   2.637  -1.895
    1   AR   Ar  210   4.071   1.082   1.197
    1   AR   Ar  211   0.100   3.398   0.146
    1   AR   Ar  212   6.402   3.944  -1.643
    1   AR   Ar  213   3.230   1.712   1.913
    1   AR   Ar  214   3.825   2.726   2.500
    1   AR   Ar  215   6.302   2.483   1.619
    1   AR   Ar  216   6.974   4.293   0.972
    1   AR   Ar  217   4.293   2.867   4.022
    1   AR   Ar  218   4.414   2.585   5.193
    1   AR   Ar  219   5.470   2.135   3.482
    1   AR   Ar  220   5.521   2.858   2.609
    1   AR   Ar  221   5.925   0.532   4.735
    1   AR   Ar  222   4.932   2.032   6.121
    1   AR   Ar  223   0.650   0.517   6.782
    1   AR   Ar  224   5.151   3.162   5.946
    1   AR   Ar  225   6.117   4.695   1.256
    1   AR   Ar  226   4.594   4.192   2.192
    1   AR   Ar  227   0.503   5.163   0.342
    1   AR   Ar  228   5.098   5.718   1.511
    1   AR   Ar  229   6.120   3.739   0.214
    1   AR   Ar  230   4.367   4.416   3.248
    1   AR   Ar  231   6.444   2.076   2.735
    1   AR   Ar  232   4.218   2.785   0.545
    1   AR   Ar  233   6.267   2.886   4.302
    1   AR   Ar  234   0.099   3.119   4.978
    1   AR   Ar  235   0.401   2.419   4.072
    1   AR   Ar  236   5.362   4.803   4.754
    1   AR   Ar  237   5.619   3.775   5.175
    1   AR   Ar  238   4.501   3.906   5.332
    1   AR   Ar  239   6.926   3.902   8.812
    1   AR   Ar  240   6.388   3.576   5.946
    1   AR   Ar  241   0.462   7.021  -0.021
    1   AR   Ar  242   4.322   4.595   0.350
    1   AR   Ar  243   5.710   3.980   3.001
    1   AR   Ar  244   1.045   5.007  -0.615
    1   AR   Ar  245   5.723   0.210   1.194
    1   AR   Ar  246   6.160   6.058   1.363
    1   AR   Ar  247   4.475   3.661   1.009
    1   AR   Ar  248   5.696   6.292   0.315
    1   AR   Ar  249   4.720   5.534   2.573
    1   AR   Ar  250   5.425   6.196   4.783
    1   AR   Ar  251   5.954   5.573   4.235
    1   AR   Ar  252   4.739   5.966   3.818
    1   AR   Ar  253   5.263   4.180   6.220
    1   AR   Ar  254   4.001   5.639   6.993
    1   AR   Ar  255   4.808   3.224   7.055
    1   AR   Ar  256   5.742   6.663   3.807
    7.12000  7.12000 12.00000
Argon-slab step 2345
  256
    1   AR   Ar    1   6.673   1.419  -0.391
    1   AR   Ar    2   6.941   0.011   0.903
    1   AR   Ar    3   1.094   0.229   1.331
    1   AR   Ar    4   1.513   0.335  -0.522
    1   AR   Ar    5   6.932   5.863   0.626
    1   AR   Ar    6   6.992   0.454   2.785
    1   AR   Ar    7   6.510   4.645   3.262
    1   AR   Ar    8   6.540   6.775   2.037
    1   AR   Ar    9   0.909   0.373   3.962
    1   AR   Ar   10   1.088   1.509   4.489
    1   AR   Ar   11   3.149   0.266   4.719
    1   AR   Ar   12   0.943   1.444   3.245
    1   AR   Ar   13   0.175   0.842   4.684
    1   AR   Ar   14   1.319   1.534   7.280
    1   AR   Ar   15   6.538   0.156   9.101
    1   AR   Ar   16   0.897   0.882   5.365
    1   AR   Ar   17   1.259   1.769  -0.187
    1   AR   Ar   18   6.271   3.003  -0.964
    1   AR   Ar   19   1.445   2.658   1.480
    1   AR   Ar   20   5.703   3.649  -2.486
    1   AR   Ar   21   6.202   0.808   2.081
    1   AR   Ar   22   7.116   1.463   2.117
    1   AR   Ar   23   0.820   1.164   0.567
    1   AR   Ar   24   0.239   2.493   0.881
    1   AR   Ar   25   7.000   1.316   3.700
    1   AR   Ar   26   5.760   1.240   3.972
    1   AR   Ar   27   2.032   1.323   3.812
    1   AR   Ar   28   1.329   2.924   4.831
    1   AR   Ar   29   5.556   1.938   7.069
    1   AR   Ar   30   0.546   1.834   6.218
    1   AR   Ar   31   0.927   6.395   7.327
    1   AR   Ar   32   1.750   2.561   6.127
    1   AR   Ar   33   1.721   4.164  -0.737
    1   AR   Ar   34   0.211   5.429   2.932
    1   AR   Ar   35   6.506   5.016   2.135
    1   AR   Ar   36   0.064   0.422  -3.413
    1   AR   Ar   37   6.657   3.570   2.223
    1   AR   Ar   38   0.215   4.125   2.630
    1   AR   Ar   39   1.285   3.759   2.866
    1   AR   Ar   40   1.340   3.827   1.215
    1   AR   Ar   41   0.430   2.361   2.667
    1   AR   Ar   42   6.758   5.600   5.066
    1   AR   Ar   43   6.810   2.469   6.138
    1   AR   Ar   44   0.496   4.252   3.835
    1   AR   Ar   45   0.733   2.725   5.817
    1   AR   Ar   46   1.194   5.883   6.332
    1   AR   Ar   47   6.134   3.017   7.163
    1   AR   Ar   48   6.899   6.488   6.351
    1   AR   Ar   49   6.024   7.108  -2.115
    1   AR   Ar   50   5.342   4.831   1.932
    1   AR   Ar   51   0.229   5.233   1.468
    1   AR   Ar   52   6.857   5.153  -1.477
    1   AR   Ar   53   5.595   6.368   2.341
    1   AR   Ar   54   6.921   6.416   3.276
    1   AR   Ar   55   5.800   5.295   2.963
    1   AR   Ar   56   0.406   6.964   2.013
    1   AR   Ar   57   6.295   3.060   3.301
    1   AR   Ar   58   6.924   5.467   3.957
    1   AR   Ar   59   1.808   5.227   5.419
    1   AR   Ar   60   0.401   6.503   4.189
    1   AR   Ar   61   6.044   5.226   5.701
    1   AR   Ar   62   0.840   5.658   5.171
    1   AR   Ar   63   2.201   5.986   6.777
    1   AR   Ar   64   1.141   6.898   5.877
    1   AR   Ar   65   3.772   0.134   0.866
    1   AR   Ar   66   1.648   1.357   1.355
    1   AR   Ar   67   3.235   6.443  -0.411
    1   AR   Ar   68   3.095   1.330  -1.474
    1   AR   Ar   69   2.801   1.084   1.046
    1   AR   Ar   70   0.793   0.830   2.119
    1   AR   Ar   71   3.242   1.135   2.970
    1   AR   Ar   72   3.522   0.557   1.929
    1   AR   Ar   73   2.923   0.222   3.663
    1   AR   Ar   74   2.251   0.957   4.781
    1   AR   Ar   75   3.655   1.083   5.228
    1   AR   Ar   76   2.409   1.038   1.971
    1   AR   Ar   77   2.424   6.352   5.609
    1   AR   Ar   78   1.941   0.045   6.605
    1   AR   Ar   79   3.536   6.723   6.610
    1   AR   Ar   80   3.044   5.593   6.171
    1   AR   Ar   81   2.388   1.550  -0.696
    1   AR   Ar   82   7.098   4.407  -0.184
    1   AR   Ar   83   1.722   2.411   0.534
    1   AR   Ar   84   0.750   3.467  -0.944
    1   AR   Ar   85   0.984   2.912  -0.050
    1   AR   Ar   86   2.316   3.314   1.155
    1   AR   Ar   87   2.559   2.267   1.193
    1   AR   Ar   88   3.714   4.241   1.619
    1   AR   Ar   89   0.751   3.362   2.062
    1   AR   Ar   90   2.811   2.068   5.066
    1   AR   Ar   91   1.378   2.309   3.537
    1   AR   Ar   92   1.222   1.865   2.304
    1   AR   Ar   93   1.553   1.269   6.053
    1   AR   Ar   94   1.763   0.933   9.522
    1   AR   Ar   95   4.167   0.675   6.021
    1   AR   Ar   96   3.136   0.460   5.960
    1   AR   Ar   97   4.053   2.457  -1.299
    1   AR   Ar   98   2.946   4.858   1.877
    1   AR   Ar   99   0.069   2.455  -1.500
    1   AR   Ar  100   1.983   2.895  -0.277
    1   AR   Ar  101   2.592   4.325   0.889
    1   AR   Ar  102   3.604   3.658   3.329
    1   AR   Ar  103   1.536   4.852   0.660
    1   AR   Ar  104   2.861   2.794  -1.207
    1   AR   Ar  105   1.995   3.155   3.631
    1   AR   Ar  106   2.829   3.676   4.212
    1   AR   Ar  107   1.910   4.095   5.733
    1   AR   Ar  108   3.413   2.948   5.004
    1   AR   Ar  109   1.335   4.069   4.468
    1   AR   Ar  110   1.053   4.896   6.314
    1   AR   Ar  111   4.179   4.012   6.682
    1   AR   Ar  112   1.324   5.272   7.339
    1   AR   Ar  113   2.333   4.886  -0.093
    1   AR   Ar  114   2.607   4.539  -1.200
    1   AR   Ar  115   2.757   3.759  -0.568
    1   AR   Ar  116   5.225   5.701  -1.361
    1   AR   Ar  117   0.833   5.234   4.214
    1   AR   Ar  118   0.784   6.766   3.204
    1   AR   Ar  119   2.049   3.935   2.185
    1   AR   Ar  120   1.080   4.798   2.628
    1   AR   Ar  121   6.667   4.400   5.232
    1   AR   Ar  122   3.435   5.829   4.767
    1   AR   Ar  123   2.719   4.873   4.780
    1   AR   Ar  124   1.686   4.847   1.701
    1   AR   Ar  125   0.440   4.250   5.911
    1   AR   Ar  126   0.196   6.849   5.094
    1   AR   Ar  127   3.317   4.509   6.951
    1   AR   Ar  128   2.151   4.986   6.722
    1   AR   Ar  129   1.654   0.620   3.240
    1   AR   Ar  130   3.490   1.764  -2.668
    1   AR   Ar  131   4.839   0.307   0.655
    1   AR   Ar  132   2.165   2.211  -1.823
    1   AR   Ar  133   4.313   0.486   2.891
    1   AR   Ar  134   4.514   1.194   3.611
    1   AR   Ar  135   5.300   1.215   2.934
    1   AR   Ar  136   4.960   0.395   2.073
    1   AR   Ar  137   2.604   6.259   3.826
    1   AR   Ar  138   4.641   1.482   4.657
    1   AR   Ar  139   5.897   2.083   5.643
    1   AR   Ar  140   4.112   0.705   4.360
    1   AR   Ar  141   3.887   6.461   4.112
    1   AR   Ar  142   3.867   6.864   5.341
    1   AR   Ar  143   6.110   0.017   5.664
    1   AR   Ar  144   5.334   0.880   5.745
    1   AR   Ar  145   3.440   3.708   0.400
    1   AR   Ar  146   4.415   1.901   1.606
    1   AR   Ar  147   6.088   1.716  -1.260
    1   AR   Ar  148   4.563   3.703  -2.229
    1   AR   Ar  149   3.449   1.879   0.494
    1   AR   Ar  150   2.072   1.914   2.871
    1   AR   Ar  151   2.941   2.207   3.593
    1   AR   Ar  152   2.972   2.680   0.056
    1   AR   Ar  153   3.033   1.203   3.943
    1   AR   Ar  154   3.801   1.827   4.081
    1   AR   Ar  155   6.397   1.235   5.904
    1   AR   Ar  156   3.801   4.014   4.591
    1   AR   Ar  157   2.610   3.116   5.734
    1   AR   Ar  158   0.960   3.666   6.562
    1   AR   Ar  159   3.424   2.261   6.059
    1   AR   Ar  160   2.549   1.937   6.415
    1   AR   Ar  161   5.406   2.991   1.577
    1   AR   Ar  162   4.543   5.490  -0.577
    1   AR   Ar  163   5.420   2.944   0.476
    1   AR   Ar  164   3.897   5.514   1.776
    1   AR   Ar  165   3.467   3.017   1.457
    1   AR   Ar  166   3.039   4.646   3.559
    1   AR   Ar  167   4.334   1.760   2.789
    1   AR   Ar  168   4.744   3.251  -0.568
    1   AR   Ar  169   2.600   2.896   2.252
    1   AR   Ar  170   3.084   4.041   5.527
    1   AR   Ar  171   5.215   3.787   4.084
    1   AR   Ar  172   4.385   5.506   4.676
    1   AR   Ar  173   1.972   3.496   6.759
    1   AR   Ar  174   3.853   4.942   6.234
    1   AR   Ar  175   3.954   3.260   5.974
    1   AR   Ar  176   3.757   4.956   5.231
    1   AR   Ar  177   6.272   5.300   0.141
    1   AR   Ar  178   2.638   5.610   0.613
    1   AR   Ar  179   4.389   5.911   0.446
    1   AR   Ar  180   1.883   3.346  -1.302
    1   AR   Ar  181   1.360   5.716   1.090
    1   AR   Ar  182   2.544   0.221   2.582
    1   AR   Ar  183   3.804   4.866   2.479
    1   AR   Ar  184   4.404   6.604   1.419
    1   AR   Ar  185   1.958   5.314   3.844
    1   AR   Ar  186   3.763   5.482   3.385
    1   AR   Ar  187   3.767   6.733   2.641
    1   AR   Ar  188   3.175   6.207   1.408
    1   AR   Ar  189   3.136   3.403   6.646
    1   AR   Ar  190   5.170   6.300   5.796
    1   AR   Ar  191   4.932   5.051   5.823
    1   AR   Ar  192   4.028   5.889   5.837
    1   AR   Ar  193   0.929   6.563  -1.210
    1   AR   Ar  194   5.227   4.141  -1.494
    1   AR   Ar  195   6.666   0.376  -0.122
    1   AR   Ar  196   4.824   6.723  -0.409
    1   AR   Ar  197   5.484   1.417   0.281
    1   AR   Ar  198   6.988   1.262   1.133
    1   AR   Ar  199   5.432   1.478   1.664
    1   AR   Ar  200   6.156   2.196   0.021
    1   AR   Ar  201   4.972   6.845   3.135
    1   AR   Ar  202   5.192   2.442   4.569
    1   AR   Ar  203   6.386   6.525   4.627
    1   AR   Ar  204   5.110   0.312   4.069
    1   AR   Ar  205   5.828   0.389   3.129
    1   AR   Ar  206   4.925   0.133   5.088
    1   AR   Ar  207   7.069   0.506   5.935
    1   AR   Ar  208   6.827   0.299   3.824
    1   AR   Ar  209   5.849   2.663  -1.912
    1   AR   Ar  210   4.065   1.053   1.198
    1   AR   Ar  211   0.143   3.377   0.143
    1   AR   Ar  212   6.394   3.935  -1.621
    1   AR   Ar  213   3.225   1.742   1.912
    1   AR   Ar  214   3.836   2.706   2.494
    1   AR   Ar  215   6.285   2.480   1.616
    1   AR   Ar  216   6.936   4.281   0.966
    1   AR   Ar  217   4.332   2.853   4.002
    1   AR   Ar  218   4.425   2.586   5.198
    1   AR   Ar  219   5.502   2.147   3.487
    1   AR   Ar  220   5.507   2.894   2.594
    1   AR   Ar  221   5.933   0.545   4.752
    1   AR   Ar  222   4.947   2.042   6.144
    1   AR   Ar  223   0.656   0.539   6.783
    1   AR   Ar  224   5.107   3.155   5.954
    1   AR   Ar  225   6.135   4.680   1.275
    1   AR   Ar  226   4.570   4.202   2.217
    1   AR   Ar  227   0.527   5.175   0.383
    1   AR   Ar  228   5.115   5.733   1.493
    1   AR   Ar  229   6.105   3.693   0.242
    1   AR   Ar  230   4.389   4.407   3.242
    1   AR   Ar  231   6.456   2.069   2.737
    1   AR   Ar  232   4.211   2.790   0.566
    1   AR   Ar  233   6.274   2.909   4.324
    1   AR   Ar  234   0.076   3.126   4.979
    1   AR   Ar  235   0.389   2.422   4.082
    1   AR   Ar  236   5.379   4.822   4.784
    1   AR   Ar  237   5.640   3.790   5.154
    1   AR   Ar  238   4.505   3.868   5.340
    1   AR   Ar  239   6.909   3.895   8.803
    1   AR   Ar  240   6.367   3.584   5.961
    1   AR   Ar  241   0.455   7.047  -0.016
    1   AR   Ar  242   4.349   4.610   0.330
    1   AR   Ar  243   5.713   3.997   3.001
    1   AR   Ar  244   1.094   5.014  -0.591
    1   AR   Ar  245   5.740   0.205   1.185
    1   AR   Ar  246   6.158   6.067   1.367
    1   AR   Ar  247   4.483   3.681   1.022
    1   AR   Ar  248   5.688   6.288   0.280
    1   AR   Ar  249   4.739   5.550   2.586
    1   AR   Ar  250   5.414   6.197   4.794
    1   AR   Ar  251   5.967   5.576   4.273
    1   AR   Ar  252   4.770   5.968   3.795
    1   AR   Ar  253   5.264   4.171   6.226
    1   AR   Ar  254   4.017   5.619   7.011
    1   AR   Ar  255   4.797   3.239   7.032
    1   AR   Ar  256   5.764   6.648   3.810
    7.12000  7.12000 12.00000
Argon-slab step 2350
  256
    1   AR   Ar    1   6.665   1.400  -0.397
    1   AR   Ar    2   6.910   0.018   0.908
    1   AR   Ar    3   1.116   0.212   1.317
    1   AR   Ar    4   1.493   0.326  -0.556
    1   AR   Ar    5   6.941   5.892   0.603
    1   AR   Ar    6   6.989   0.475   2.747
    1   AR   Ar    7   6.506   4.617   3.270
    1   AR   Ar    8   6.549   6.783   2.033
    1   AR   Ar    9   0.925   0.372   3.920
    1   AR   Ar   10   1.069   1.499   4.485
    1   AR   Ar   11   3.173   0.254   4.733
    1   AR   Ar   12   0.932   1.440   3.237
    1   AR   Ar   13   0.149   0.856   4.679
    1   AR   Ar   14   1.321   1.523   7.270
    1   AR   Ar   15   6.524   0.173   9.119
    1   AR   Ar   16   0.917   0.870   5.357
    1   AR   Ar   17   1.252   1.784  -0.161
    1   AR   Ar   18   6.273   3.049  -0.928
    1   AR   Ar   19   1.478   2.657   1.467
    1   AR   Ar   20   5.673   3.642  -2.484
    1   AR   Ar   21   6.205   0.805   2.091
    1   AR   Ar   22   0.009   1.443   2.159
    1   AR   Ar   23   0.815   1.155   0.542
    1   AR   Ar   24   0.252   2.490   0.888
    1   AR   Ar   25   6.993   1.310   3.694
    1   AR   Ar   26   5.772   1.244   3.962
    1   AR   Ar   27   2.044   1.323   3.816
    1   AR   Ar   28   1.358   2.941   4.843
    1   AR   Ar   29   5.581   1.960   7.088
    1   AR   Ar   30   0.551   1.864   6.229
    1   AR   Ar   31   0.974   6.386   7.340
    1   AR   Ar   32   1.749   2.535   6.152
    1   AR   Ar   33   1.685   4.162  -0.761
    1   AR   Ar   34   0.206   5.427   2.945
    1   AR   Ar   35   6.461   5.016   2.152
    1   AR   Ar   36   0.077   0.429  -3.413
    1   AR   Ar   37   6.664   3.558   2.224
    1   AR   Ar   38   0.232   4.171   2.648
    1   AR   Ar   39   1.291   3.775   2.850
    1   AR   Ar   40   1.353   3.839   1.180
    1   AR   Ar   41   0.429   2.363   2.692
    1   AR   Ar   42   6.719   5.634   5.062
    1   AR   Ar   43   6.786   2.449   6.134
    1   AR   Ar   44   0.488   4.287   3.870
    1   AR   Ar   45   0.755   2.736   5.784
    1   AR   Ar   46   1.227   5.923   6.300
    1   AR   Ar   47   6.128   3.007   7.160
    1   AR   Ar   48   6.932   6.495   6.362
    1   AR   Ar   49   6.021   7.118  -2.077
    1   AR   Ar   50   5.364   4.820   1.933
    1   AR   Ar   51   0.227   5.242   1.443
    1   AR   Ar   52   6.806   5.145  -1.481
    1   AR   Ar   53   5.607   6.400   2.327
    1   AR   Ar   54   6.929   6.415   3.248
    1   AR   Ar   55   5.803   5.325   2.959
    1   AR   Ar   56   0.443   6.966   2.004
    1   AR   Ar   57   6.267   3.049   3.292
    1   AR   Ar   58   6.934   5.468   3.951
    1   AR   Ar   59   1.831   5.218   5.412
    1   AR   Ar   60   0.380   6.482   4.186
    1   AR   Ar   61   6.048   5.230   5.651
    1   AR   Ar   62   0.843   5.672   5.149
    1   AR   Ar   63   2.206   5.971   6.759
    1   AR   Ar   64   1.173   6.841   5.907
    1   AR   Ar   65   3.824   0.126   0.870
    1   AR   Ar   66   1.607   1.362   1.342
    1   AR   Ar   67   3.230   6.421  -0.423
    1   AR   Ar   68   3.093   1.332  -1.462
    1   AR   Ar   69   2.779   1.119   1.021
    1   AR   Ar   70   0.758   0.820   2.150
    1   AR   Ar   71   3.252   1.140   2.949
    1   AR   Ar   72   3.521   0.568   1.935
    1   AR   Ar   73   2.902   0.197   3.654
    1   AR   Ar   74   2.227   0.951   4.768
    1   AR   Ar   75   3.653   1.091   5.212
    1   AR   Ar   76   2.419   1.046   1.982
    1   AR   Ar   77   2.426   6.330   5.620
    1   AR   Ar   78   1.950   0.013   6.619
    1   AR   Ar   79   3.556   6.757   6.576
    1   AR   Ar   80   3.047   5.626   6.141
    1   AR   Ar   81   2.395   1.549  -0.719
    1   AR   Ar   82   7.096   4.408  -0.173
    1   AR   Ar   83   1.685   2.409   0.557
    1   AR   Ar   84   0.706   3.501  -0.939
    1   AR   Ar   85   1.015   2.933  -0.023
    1   AR   Ar   86   2.333   3.312   1.151
    1   AR   Ar   87   2.523   2.263   1.159
    1   AR   Ar   88   3.689   4.267   1.622
    1   AR   Ar   89   0.754   3.336   2.056
    1   AR   Ar   90   2.821   2.068   5.072
    1   AR   Ar   91   1.385   2.313   3.525
    1   AR   Ar   92   1.183   1.849   2.307
    1   AR   Ar   93   1.542   1.300   6.046
    1   AR   Ar   94   1.755   0.928   9.501
    1   AR   Ar   95   4.164   0.707   6.009
    1   AR   Ar   96   3.118   0.460   5.960
    1   AR   Ar   97   4.040   2.443  -1.302
    1   AR   Ar   98   2.932   4.841   1.898
    1   AR   Ar   99   0.069   2.424  -1.514
    1   AR   Ar  100   1.987   2.921  -0.252
    1   AR   Ar  101   2.587   4.326   0.905
    1   AR   Ar  102   3.605   3.644   3.341
    1   AR   Ar  103   1.530   4.857   0.684
    1   AR   Ar  104   2.856   2.766  -1.224
    1   AR   Ar  105   1.984   3.170   3.645
    1   AR   Ar  106   2.853   3.701   4.186
    1   AR   Ar  107   1.886   4.131   5.737
    1   AR   Ar  108   3.390   2.945   5.040
    1   AR   Ar  109   1.337   4.061   4.486
    1   AR   Ar  110   1.048   4.895   6.301
    1   AR   Ar  111   4.205   4.006   6.683
    1   AR   Ar  112   1.355   5.260   7.355
    1   AR   Ar  113   2.319   4.892  -0.081
    1   AR   Ar  114   2.592   4.539  -1.187
    1   AR   Ar  115   2.724   3.737  -0.616
    1   AR   Ar  116   5.223   5.726  -1.382
    1   AR   Ar  117   0.862   5.243   4.238
    1   AR   Ar  118   0.787   6.760   3.199
    1   AR   Ar  119   2.065   3.923   2.209
    1   AR   Ar  120   1.124   4.795   2.619
    1   AR   Ar  121   6.669   4.401   5.188
    1   AR   Ar  122   3.424   5.837   4.771
    1   AR   Ar  123   2.727   4.889   4.786
    1   AR   Ar  124   1.680   4.832   1.698
    1   AR   Ar  125   0.428   4.213   5.917
    1   AR   Ar  126   0.220   6.841   5.071
    1   AR   Ar  127   3.310   4.504   6.959
    1   AR   Ar  128   2.161   4.974   6.732
    1   AR   Ar  129   1.674   0.624   3.254
    1   AR   Ar  130   3.496   1.769  -2.642
    1   AR   Ar  131   4.839   0.310   0.647
    1   AR   Ar  132   2.174   2.210  -1.841
    1   AR   Ar  133   4.331   0.507   2.851
    1   AR   Ar  134   4.548   1.193   3.582
    1   AR   Ar  135   5.298   1.199   2.985
    1   AR   Ar  136   4.984   0.405   2.048
    1   AR   Ar  137   2.611   6.239   3.825
    1   AR   Ar  138   4.638   1.510   4.689
    1   AR   Ar  139   5.924   2.085   5.635
    1   AR   Ar  140   4.064   0.711   4.358
    1   AR   Ar  141   3.870   6.429   4.140
    1   AR   Ar  142   3.850   6.838   5.366
    1   AR   Ar  143   6.113   0.010   5.657
    1   AR   Ar  144   5.370   0.925   5.747
    1   AR   Ar  145   3.421   3.696   0.417
    1   AR   Ar  146   4.403   1.910   1.606
    1   AR   Ar  147   6.071   1.711  -1.263
    1   AR   Ar  148   4.537   3.719  -2.206
    1   AR   Ar  149   3.433   1.861   0.528
    1   AR   Ar  150   2.093   1.897   2.868
    1   AR   Ar  151   2.942   2.209   3.568
    1   AR   Ar  152   2.974   2.709   0.070
    1   AR   Ar  153   3.031   1.189   3.923
    1   AR   Ar  154   3.790   1.819   4.075
    1   AR   Ar  155   6.442   1.244   5.905
    1   AR   Ar  156   3.818   4.054   4.614
    1   AR   Ar  157   2.637   3.104   5.766
    1   AR   Ar  158   0.963   3.658   6.534
    1   AR   Ar  159   3.434   2.213   6.067
    1   AR   Ar  160   2.560   1.942   6.410
    1   AR   Ar  161   5.434   2.989   1.553
    1   AR   Ar  162   4.546   5.520  -0.605
    1   AR   Ar  163   5.460   2.947   0.465
    1   AR   Ar  164   3.879   5.529   1.774
    1   AR   Ar  165   3.493   3.054   1.459
    1   AR   Ar  166   3.020   4.640   3.560
    1   AR   Ar  167   4.315   1.734   2.799
    1   AR   Ar  168   4.755   3.248  -0.594
    1   AR   Ar  169   2.571   2.882   2.236
    1   AR   Ar  170   3.069   4.028   5.556
    1   AR   Ar  171   5.255   3.784   4.124
    1   AR   Ar  172   4.416   5.514   4.643
    1   AR   Ar  173   1.966   3.533   6.774
    1   AR   Ar  174   3.872   4.932   6.244
    1   AR   Ar  175   3.964   3.265   5.956
    1   AR   Ar  176   3.756   4.943   5.241
    1   AR   Ar  177   6.257   5.286   0.130
    1   AR   Ar  178   2.655   5.656   0.623
    1   AR   Ar  179   4.369   5.892   0.477
    1   AR   Ar  180   1.922   3.364  -1.319
    1   AR   Ar  181   1.366   5.745   1.096
    1   AR   Ar  182   2.537   0.199   2.573
    1   AR   Ar  183   3.835   4.868   2.495
    1   AR   Ar  184   4.403   6.615   1.439
    1   AR   Ar  185   1.974   5.305   3.857
    1   AR   Ar  186   3.743   5.482   3.367
    1   AR   Ar  187   3.741   6.733   2.678
    1   AR   Ar  188   3.155   6.185   1.370
    1   AR   Ar  189   3.176   3.387   6.641
    1   AR   Ar  190   5.158   6.338   5.805
    1   AR   Ar  191   4.894   5.073   5.834
    1   AR   Ar  192   4.054   5.895   5.818
    1   AR   Ar  193   0.918   6.570  -1.217
    1   AR   Ar  194   5.222   4.118  -1.508
    1   AR   Ar  195   6.701   0.371  -0.105
    1   AR   Ar  196   4.791   6.739  -0.411
    1   AR   Ar  197   5.500   1.402   0.298
    1   AR   Ar  198   6.983   1.256   1.135
    1   AR   Ar  199   5.404   1.470   1.681
    1   AR   Ar  200   6.144   2.202   0.015
    1   AR   Ar  201   4.987   6.833   3.120
    1   AR   Ar  202   5.195   2.457   4.600
    1   AR   Ar  203   6.398   6.541   4.647
    1   AR   Ar  204   5.127   0.312   4.059
    1   AR   Ar  205   5.840   0.385   3.121
    1   AR   Ar  206   4.934   0.121   5.107
    1   AR   Ar  207   7.079   0.536   5.926
    1   AR   Ar  208   6.804   0.291   3.835
    1   AR   Ar  209   5.850   2.688  -1.928
    1   AR   Ar  210   4.082   1.032   1.192
    1   AR   Ar  211   0.174   3.363   0.144
    1   AR   Ar  212   6.390   3.920  -1.599
    1   AR   Ar  213   3.223   1.772   1.912
    1   AR   Ar  214   3.845   2.687   2.488
    1   AR   Ar  215   6.274   2.472   1.614
    1   AR   Ar  216   6.931   4.266   0.947
    1   AR   Ar  217   4.369   2.840   3.982
    1   AR   Ar  218   4.431   2.588   5.209
    1   AR   Ar  219   5.521   2.167   3.494
    1   AR   Ar  220   5.494   2.928   2.584
    1   AR   Ar  221   5.942   0.556   4.769
    1   AR   Ar  222   4.959   2.052   6.167
    1   AR   Ar  223   0.665   0.561   6.783
    1   AR   Ar  224   5.078   3.130   5.972
    1   AR   Ar  225   6.134   4.673   1.289
    1   AR   Ar  226   4.549   4.206   2.242
    1   AR   Ar  227   0.527   5.192   0.416
    1   AR   Ar  228   5.130   5.753   1.474
    1   AR   Ar  229   6.098   3.668   0.258
    1   AR   Ar  230   4.414   4.399   3.240
    1   AR   Ar  231   6.462   2.040   2.774
    1   AR   Ar  232   4.203   2.791   0.586
    1   AR   Ar  233   6.263   2.905   4.344
    1   AR   Ar  234   0.052   3.134   4.980
    1   AR   Ar  235   0.377   2.423   4.092
    1   AR   Ar  236   5.395   4.841   4.815
    1   AR   Ar  237   5.661   3.805   5.134
    1   AR   Ar  238   4.514   3.832   5.349
    1   AR   Ar  239   6.892   3.888   8.794
    1   AR   Ar  240   6.346   3.590   5.976
    1   AR   Ar  241   0.454   7.071  -0.009
    1   AR   Ar  242   4.375   4.625   0.311
    1   AR   Ar  243   5.699   4.008   2.999
    1   AR   Ar  244   1.141   5.022  -0.565
    1   AR   Ar  245   5.763   0.189   1.181
    1   AR   Ar  246   6.155   6.073   1.369
    1   AR   Ar  247   4.492   3.704   1.038
    1   AR   Ar  248   5.680   6.285   0.247
    1   AR   Ar  249   4.758   5.565   2.599
    1   AR   Ar  250   5.400   6.177   4.787
    1   AR   Ar  251   5.980   5.571   4.304
    1   AR   Ar  252   4.806   5.969   3.770
    1   AR   Ar  253   5.267   4.158   6.232
    1   AR   Ar  254   4.032   5.602   7.029
    1   AR   Ar  255   4.789   3.252   7.009
    1   AR   Ar  256   5.750   6.637   3.803
    7.12000  7.12000 12.00000
Argon-slab step 2355
  256
    1   AR   Ar    1   6.660   1.380  -0.403
    1   AR   Ar    2   6.879   0.025   0.917
    1   AR   Ar    3   1.141   0.198   1.298
    1   AR   Ar    4   1.472   0.318  -0.589
    1   AR   Ar    5   6.948   5.930   0.584
    1   AR   Ar    6   6.986   0.495   2.711
    1   AR   Ar    7   6.500   4.608   3.281
    1   AR   Ar    8   6.556   6.795   2.030
    1   AR   Ar    9   0.936   0.375   3.885
    1   AR   Ar   10   1.050   1.490   4.477
    1   AR   Ar   11   3.193   0.240   4.745
    1   AR   Ar   12   0.917   1.430   3.231
    1   AR   Ar   13   0.117   0.868   4.671
    1   AR   Ar   14   1.311   1.489   7.275
    1   AR   Ar   15   6.509   0.190   9.137
    1   AR   Ar   16   0.936   0.855   5.351
    1   AR   Ar   17   1.246   1.800  -0.140
    1   AR   Ar   18   6.274   3.095  -0.891
    1   AR   Ar   19   1.508   2.661   1.472
    1   AR   Ar   20   5.643   3.635  -2.480
    1   AR   Ar   21   6.207   0.802   2.100
    1   AR   Ar   22   7.117   1.494   2.164
    1   AR   Ar   23   0.808   1.143   0.520
    1   AR   Ar   24   0.260   2.488   0.885
    1   AR   Ar   25   6.995   1.304   3.686
    1   AR   Ar   26   5.785   1.246   3.952
    1   AR   Ar   27   2.051   1.338   3.825
    1   AR   Ar   28   1.387   2.959   4.854
    1   AR   Ar   29   5.606   1.983   7.105
    1   AR   Ar   30   0.557   1.883   6.245
    1   AR   Ar   31   1.014   6.381   7.352
    1   AR   Ar   32   1.745   2.511   6.177
    1   AR   Ar   33   1.647   4.161  -0.778
    1   AR   Ar   34   0.201   5.423   2.956
    1   AR   Ar   35   6.422   5.020   2.180
    1   AR   Ar   36   0.091   0.436  -3.414
    1   AR   Ar   37   6.665   3.541   2.222
    1   AR   Ar   38   0.252   4.222   2.670
    1   AR   Ar   39   1.292   3.789   2.843
    1   AR   Ar   40   1.371   3.855   1.152
    1   AR   Ar   41   0.420   2.371   2.722
    1   AR   Ar   42   6.693   5.671   5.053
    1   AR   Ar   43   6.763   2.430   6.123
    1   AR   Ar   44   0.469   4.293   3.862
    1   AR   Ar   45   0.777   2.757   5.747
    1   AR   Ar   46   1.262   5.955   6.271
    1   AR   Ar   47   6.115   3.028   7.134
    1   AR   Ar   48   6.967   6.503   6.371
    1   AR   Ar   49   6.018   0.008  -2.039
    1   AR   Ar   50   5.382   4.810   1.940
    1   AR   Ar   51   0.224   5.251   1.420
    1   AR   Ar   52   6.755   5.136  -1.485
    1   AR   Ar   53   5.616   6.431   2.313
    1   AR   Ar   54   6.932   6.414   3.220
    1   AR   Ar   55   5.802   5.359   2.955
    1   AR   Ar   56   0.479   6.962   1.998
    1   AR   Ar   57   6.240   3.038   3.281
    1   AR   Ar   58   6.948   5.470   3.944
    1   AR   Ar   59   1.851   5.214   5.404
    1   AR   Ar   60   0.348   6.442   4.162
    1   AR   Ar   61   6.064   5.199   5.631
    1   AR   Ar   62   0.845   5.691   5.134
    1   AR   Ar   63   2.212   5.966   6.741
    1   AR   Ar   64   1.201   6.795   5.931
    1   AR   Ar   65   3.867   0.110   0.870
    1   AR   Ar   66   1.564   1.368   1.328
    1   AR   Ar   67   3.226   6.398  -0.435
    1   AR   Ar   68   3.092   1.336  -1.454
    1   AR   Ar   69   2.759   1.154   0.993
    1   AR   Ar   70   0.735   0.808   2.183
    1   AR   Ar   71   3.264   1.143   2.918
    1   AR   Ar   72   3.520   0.571   1.912
    1   AR   Ar   73   2.881   0.168   3.644
    1   AR   Ar   74   2.203   0.945   4.759
    1   AR   Ar   75   3.645   1.106   5.196
    1   AR   Ar   76   2.428   1.056   1.998
    1   AR   Ar   77   2.427   6.309   5.632
    1   AR   Ar   78   1.959   7.099   6.633
    1   AR   Ar   79   3.577   6.788   6.540
    1   AR   Ar   80   3.050   5.627   6.138
    1   AR   Ar   81   2.399   1.551  -0.738
    1   AR   Ar   82   7.071   4.408  -0.163
    1   AR   Ar   83   1.652   2.398   0.575
    1   AR   Ar   84   0.662   3.536  -0.934
    1   AR   Ar   85   1.050   2.947   0.001
    1   AR   Ar   86   2.352   3.311   1.148
    1   AR   Ar   87   2.491   2.256   1.127
    1   AR   Ar   88   3.654   4.287   1.605
    1   AR   Ar   89   0.756   3.309   2.047
    1   AR   Ar   90   2.830   2.064   5.078
    1   AR   Ar   91   1.391   2.319   3.517
    1   AR   Ar   92   1.152   1.829   2.300
    1   AR   Ar   93   1.534   1.334   6.045
    1   AR   Ar   94   1.739   0.898   9.489
    1   AR   Ar   95   4.166   0.737   6.001
    1   AR   Ar   96   3.098   0.457   5.958
    1   AR   Ar   97   4.026   2.431  -1.306
    1   AR   Ar   98   2.908   4.831   1.921
    1   AR   Ar   99   0.066   2.389  -1.523
    1   AR   Ar  100   2.001   2.951  -0.238
    1   AR   Ar  101   2.582   4.329   0.922
    1   AR   Ar  102   3.605   3.629   3.353
    1   AR   Ar  103   1.524   4.852   0.689
    1   AR   Ar  104   2.852   2.739  -1.238
    1   AR   Ar  105   1.991   3.172   3.648
    1   AR   Ar  106   2.871   3.712   4.212
    1   AR   Ar  107   1.861   4.166   5.742
    1   AR   Ar  108   3.371   2.947   5.073
    1   AR   Ar  109   1.341   4.052   4.506
    1   AR   Ar  110   1.050   4.896   6.290
    1   AR   Ar  111   4.229   4.005   6.681
    1   AR   Ar  112   1.385   5.251   7.369
    1   AR   Ar  113   2.303   4.896  -0.071
    1   AR   Ar  114   2.577   4.548  -1.179
    1   AR   Ar  115   2.692   3.706  -0.656
    1   AR   Ar  116   5.224   5.752  -1.404
    1   AR   Ar  117   0.902   5.275   4.223
    1   AR   Ar  118   0.792   6.754   3.190
    1   AR   Ar  119   2.085   3.911   2.227
    1   AR   Ar  120   1.151   4.782   2.617
    1   AR   Ar  121   6.670   4.401   5.143
    1   AR   Ar  122   3.402   5.839   4.784
    1   AR   Ar  123   2.735   4.904   4.791
    1   AR   Ar  124   1.676   4.817   1.699
    1   AR   Ar  125   0.404   4.186   5.916
    1   AR   Ar  126   0.242   6.840   5.064
    1   AR   Ar  127   3.297   4.489   6.971
    1   AR   Ar  128   2.173   4.951   6.738
    1   AR   Ar  129   1.692   0.618   3.254
    1   AR   Ar  130   3.514   1.776  -2.614
    1   AR   Ar  131   4.840   0.315   0.638
    1   AR   Ar  132   2.183   2.207  -1.858
    1   AR   Ar  133   4.344   0.528   2.810
    1   AR   Ar  134   4.574   1.190   3.578
    1   AR   Ar  135   5.306   1.191   3.018
    1   AR   Ar  136   5.009   0.414   2.021
    1   AR   Ar  137   2.619   6.219   3.825
    1   AR   Ar  138   4.639   1.540   4.723
    1   AR   Ar  139   5.929   2.083   5.637
    1   AR   Ar  140   4.016   0.709   4.353
    1   AR   Ar  141   3.859   6.408   4.158
    1   AR   Ar  142   3.834   6.814   5.391
    1   AR   Ar  143   6.115   0.002   5.650
    1   AR   Ar  144   5.406   0.972   5.747
    1   AR   Ar  145   3.401   3.684   0.435
    1   AR   Ar  146   4.392   1.927   1.610
    1   AR   Ar  147   6.054   1.709  -1.267
    1   AR   Ar  148   4.510   3.733  -2.184
    1   AR   Ar  149   3.419   1.843   0.565
    1   AR   Ar  150   2.119   1.877   2.863
    1   AR   Ar  151   2.941   2.212   3.541
    1   AR   Ar  152   2.976   2.741   0.085
    1   AR   Ar  153   3.029   1.170   3.914
    1   AR   Ar  154   3.788   1.816   4.071
    1   AR   Ar  155   6.476   1.264   5.907
    1   AR   Ar  156   3.831   4.094   4.634
    1   AR   Ar  157   2.659   3.088   5.800
    1   AR   Ar  158   0.979   3.629   6.501
    1   AR   Ar  159   3.458   2.171   6.068
    1   AR   Ar  160   2.561   1.942   6.409
    1   AR   Ar  161   5.450   2.994   1.523
    1   AR   Ar  162   4.547   5.550  -0.629
    1   AR   Ar  163   5.492   2.942   0.456
    1   AR   Ar  164   3.865   5.551   1.763
    1   AR   Ar  165   3.518   3.090   1.459
    1   AR   Ar  166   3.002   4.634   3.562
    1   AR   Ar  167   4.291   1.713   2.799
    1   AR   Ar  168   4.766   3.245  -0.619
    1   AR   Ar  169   2.541   2.866   2.219
    1   AR   Ar  170   3.058   4.019   5.584
    1   AR   Ar  171   5.295   3.781   4.163
    1   AR   Ar  172   4.453   5.521   4.611
    1   AR   Ar  173   1.965   3.570   6.788
    1   AR   Ar  174   3.895   4.919   6.253
    1   AR   Ar  175   3.969   3.263   5.941
    1   AR   Ar  176   3.752   4.927   5.248
    1   AR   Ar  177   6.250   5.267   0.130
    1   AR   Ar  178   2.663   5.657   0.630
    1   AR   Ar  179   4.350   5.874   0.510
    1   AR   Ar  180   1.962   3.375  -1.339
    1   AR   Ar  181   1.362   5.749   1.087
    1   AR   Ar  182   2.533   0.176   2.568
    1   AR   Ar  183   3.859   4.868   2.522
    1   AR   Ar  184   4.404   6.622   1.463
    1   AR   Ar  185   1.989   5.295   3.871
    1   AR   Ar  186   3.725   5.484   3.350
    1   AR   Ar  187   3.715   6.731   2.715
    1   AR   Ar  188   3.137   6.168   1.335
    1   AR   Ar  189   3.215   3.373   6.638
    1   AR   Ar  190   5.144   6.376   5.815
    1   AR   Ar  191   4.854   5.098   5.842
    1   AR   Ar  192   4.085   5.902   5.790
    1   AR   Ar  193   0.908   6.577  -1.223
    1   AR   Ar  194   5.220   4.094  -1.519
    1   AR   Ar  195   6.722   0.371  -0.088
    1   AR   Ar  196   4.758   6.754  -0.411
    1   AR   Ar  197   5.515   1.385   0.317
    1   AR   Ar  198   6.980   1.268   1.141
    1   AR   Ar  199   5.377   1.461   1.698
    1   AR   Ar  200   6.137   2.210   0.014
    1   AR   Ar  201   4.997   6.820   3.103
    1   AR   Ar  202   5.211   2.471   4.624
    1   AR   Ar  203   6.399   6.544   4.671
    1   AR   Ar  204   5.142   0.316   4.046
    1   AR   Ar  205   5.860   0.372   3.113
    1   AR   Ar  206   4.941   0.108   5.127
    1   AR   Ar  207   7.104   0.550   5.914
    1   AR   Ar  208   6.781   0.277   3.848
    1   AR   Ar  209   5.852   2.714  -1.943
    1   AR   Ar  210   4.106   1.020   1.184
    1   AR   Ar  211   0.188   3.357   0.149
    1   AR   Ar  212   6.392   3.898  -1.578
    1   AR   Ar  213   3.224   1.804   1.912
    1   AR   Ar  214   3.852   2.668   2.481
    1   AR   Ar  215   6.273   2.458   1.613
    1   AR   Ar  216   6.953   4.246   0.917
    1   AR   Ar  217   4.405   2.827   3.963
    1   AR   Ar  218   4.421   2.605   5.194
    1   AR   Ar  219   5.531   2.192   3.501
    1   AR   Ar  220   5.480   2.962   2.576
    1   AR   Ar  221   5.953   0.566   4.786
    1   AR   Ar  222   4.970   2.061   6.188
    1   AR   Ar  223   0.676   0.584   6.781
    1   AR   Ar  224   5.050   3.102   5.987
    1   AR   Ar  225   6.118   4.670   1.294
    1   AR   Ar  226   4.535   4.202   2.261
    1   AR   Ar  227   0.517   5.211   0.435
    1   AR   Ar  228   5.142   5.775   1.454
    1   AR   Ar  229   6.114   3.717   0.229
    1   AR   Ar  230   4.440   4.392   3.247
    1   AR   Ar  231   6.467   2.012   2.813
    1   AR   Ar  232   4.193   2.789   0.604
    1   AR   Ar  233   6.250   2.899   4.366
    1   AR   Ar  234   0.029   3.141   4.983
    1   AR   Ar  235   0.365   2.423   4.102
    1   AR   Ar  236   5.408   4.860   4.847
    1   AR   Ar  237   5.681   3.819   5.115
    1   AR   Ar  238   4.532   3.803   5.355
    1   AR   Ar  239   6.875   3.881   8.785
    1   AR   Ar  240   6.325   3.595   5.992
    1   AR   Ar  241   0.468   7.089  -0.001
    1   AR   Ar  242   4.401   4.640   0.293
    1   AR   Ar  243   5.678   4.015   2.995
    1   AR   Ar  244   1.186   5.033  -0.536
    1   AR   Ar  245   5.789   0.173   1.179
    1   AR   Ar  246   6.151   6.077   1.369
    1   AR   Ar  247   4.501   3.730   1.055
    1   AR   Ar  248   5.672   6.281   0.216
    1   AR   Ar  249   4.775   5.581   2.612
    1   AR   Ar  250   5.375   6.167   4.784
    1   AR   Ar  251   5.997   5.559   4.324
    1   AR   Ar  252   4.845   5.970   3.742
    1   AR   Ar  253   5.270   4.144   6.239
    1   AR   Ar  254   4.047   5.587   7.047
    1   AR   Ar  255   4.779   3.258   7.003
    1   AR   Ar  256   5.715   6.611   3.781
    7.12000  7.12000 12.00000
Argon-slab step 2360
  256
    1   AR   Ar    1   6.656   1.360  -0.409
    1   AR   Ar    2   6.849   0.031   0.929
    1   AR   Ar    3   1.169   0.188   1.275
    1   AR   Ar    4   1.459   0.352  -0.564
    1   AR   Ar    5   6.950   5.976   0.567
    1   AR   Ar    6   6.991   0.513   2.686
    1   AR   Ar    7   6.486   4.626   3.295
    1   AR   Ar    8   6.564   6.811   2.029
    1   AR   Ar    9   0.941   0.382   3.859
    1   AR   Ar   10   1.032   1.482   4.466
    1   AR   Ar   11   3.206   0.224   4.757
    1   AR   Ar   12   0.898   1.414   3.229
    1   AR   Ar   13   0.084   0.879   4.663
    1   AR   Ar   14   1.300   1.455   7.277
    1   AR   Ar   15   6.495   0.207   9.154
    1   AR   Ar   16   0.954   0.836   5.345
    1   AR   Ar   17   1.240   1.816  -0.127
    1   AR   Ar   18   6.274   3.127  -0.900
    1   AR   Ar   19   1.533   2.671   1.500
    1   AR   Ar   20   5.613   3.630  -2.476
    1   AR   Ar   21   6.204   0.799   2.106
    1   AR   Ar   22   7.101   1.549   2.171
    1   AR   Ar   23   0.798   1.127   0.503
    1   AR   Ar   24   0.248   2.495   0.841
    1   AR   Ar   25   6.996   1.305   3.688
    1   AR   Ar   26   5.799   1.247   3.944
    1   AR   Ar   27   2.051   1.366   3.833
    1   AR   Ar   28   1.386   2.945   4.843
    1   AR   Ar   29   5.633   2.007   7.121
    1   AR   Ar   30   0.565   1.895   6.263
    1   AR   Ar   31   1.027   6.390   7.362
    1   AR   Ar   32   1.737   2.491   6.201
    1   AR   Ar   33   1.609   4.159  -0.791
    1   AR   Ar   34   0.197   5.417   2.965
    1   AR   Ar   35   6.403   5.019   2.210
    1   AR   Ar   36   0.104   0.443  -3.414
    1   AR   Ar   37   6.664   3.523   2.219
    1   AR   Ar   38   0.272   4.274   2.693
    1   AR   Ar   39   1.288   3.805   2.843
    1   AR   Ar   40   1.390   3.870   1.126
    1   AR   Ar   41   0.405   2.384   2.757
    1   AR   Ar   42   6.686   5.706   5.045
    1   AR   Ar   43   6.755   2.444   6.104
    1   AR   Ar   44   0.450   4.303   3.838
    1   AR   Ar   45   0.798   2.783   5.707
    1   AR   Ar   46   1.298   5.946   6.257
    1   AR   Ar   47   6.101   3.048   7.105
    1   AR   Ar   48   7.003   6.513   6.378
    1   AR   Ar   49   6.015   0.018  -2.001
    1   AR   Ar   50   5.391   4.802   1.957
    1   AR   Ar   51   0.218   5.259   1.402
    1   AR   Ar   52   6.703   5.126  -1.489
    1   AR   Ar   53   5.623   6.459   2.299
    1   AR   Ar   54   6.927   6.413   3.191
    1   AR   Ar   55   5.799   5.395   2.952
    1   AR   Ar   56   0.513   6.951   1.996
    1   AR   Ar   57   6.217   3.029   3.272
    1   AR   Ar   58   6.965   5.471   3.938
    1   AR   Ar   59   1.865   5.216   5.392
    1   AR   Ar   60   0.316   6.397   4.131
    1   AR   Ar   61   6.085   5.142   5.635
    1   AR   Ar   62   0.845   5.715   5.128
    1   AR   Ar   63   2.218   5.968   6.724
    1   AR   Ar   64   1.224   6.791   5.937
    1   AR   Ar   65   3.897   0.088   0.864
    1   AR   Ar   66   1.522   1.376   1.315
    1   AR   Ar   67   3.222   6.374  -0.446
    1   AR   Ar   68   3.096   1.339  -1.450
    1   AR   Ar   69   2.739   1.188   0.966
    1   AR   Ar   70   0.722   0.798   2.216
    1   AR   Ar   71   3.277   1.147   2.880
    1   AR   Ar   72   3.517   0.572   1.893
    1   AR   Ar   73   2.860   0.138   3.633
    1   AR   Ar   74   2.182   0.937   4.755
    1   AR   Ar   75   3.632   1.128   5.182
    1   AR   Ar   76   2.435   1.069   2.017
    1   AR   Ar   77   2.426   6.290   5.643
    1   AR   Ar   78   1.969   7.065   6.647
    1   AR   Ar   79   3.598   6.817   6.502
    1   AR   Ar   80   3.057   5.617   6.141
    1   AR   Ar   81   2.397   1.556  -0.753
    1   AR   Ar   82   7.046   4.408  -0.153
    1   AR   Ar   83   1.624   2.377   0.582
    1   AR   Ar   84   0.618   3.570  -0.927
    1   AR   Ar   85   1.082   2.960   0.019
    1   AR   Ar   86   2.371   3.309   1.145
    1   AR   Ar   87   2.477   2.256   1.126
    1   AR   Ar   88   3.629   4.298   1.582
    1   AR   Ar   89   0.756   3.281   2.036
    1   AR   Ar   90   2.837   2.055   5.085
    1   AR   Ar   91   1.401   2.332   3.535
    1   AR   Ar   92   1.128   1.807   2.286
    1   AR   Ar   93   1.529   1.372   6.047
    1   AR   Ar   94   1.724   0.869   9.478
    1   AR   Ar   95   4.173   0.764   5.995
    1   AR   Ar   96   3.082   0.459   5.951
    1   AR   Ar   97   4.010   2.418  -1.308
    1   AR   Ar   98   2.872   4.829   1.947
    1   AR   Ar   99   0.062   2.355  -1.530
    1   AR   Ar  100   2.028   2.971  -0.241
    1   AR   Ar  101   2.576   4.334   0.940
    1   AR   Ar  102   3.607   3.614   3.366
    1   AR   Ar  103   1.517   4.840   0.669
    1   AR   Ar  104   2.839   2.727  -1.252
    1   AR   Ar  105   1.995   3.164   3.701
    1   AR   Ar  106   2.885   3.713   4.273
    1   AR   Ar  107   1.864   4.178   5.762
    1   AR   Ar  108   3.357   2.953   5.102
    1   AR   Ar  109   1.346   4.044   4.526
    1   AR   Ar  110   1.060   4.900   6.276
    1   AR   Ar  111   4.250   4.011   6.678
    1   AR   Ar  112   1.413   5.243   7.384
    1   AR   Ar  113   2.288   4.897  -0.062
    1   AR   Ar  114   2.576   4.560  -1.165
    1   AR   Ar  115   2.664   3.668  -0.687
    1   AR   Ar  116   5.227   5.778  -1.428
    1   AR   Ar  117   0.911   5.296   4.223
    1   AR   Ar  118   0.800   6.747   3.175
    1   AR   Ar  119   2.111   3.899   2.238
    1   AR   Ar  120   1.166   4.766   2.619
    1   AR   Ar  121   6.671   4.401   5.099
    1   AR   Ar  122   3.386   5.815   4.802
    1   AR   Ar  123   2.744   4.918   4.795
    1   AR   Ar  124   1.676   4.800   1.702
    1   AR   Ar  125   0.379   4.205   5.923
    1   AR   Ar  126   0.265   6.845   5.070
    1   AR   Ar  127   3.286   4.443   6.983
    1   AR   Ar  128   2.187   4.920   6.739
    1   AR   Ar  129   1.712   0.605   3.243
    1   AR   Ar  130   3.535   1.784  -2.585
    1   AR   Ar  131   4.842   0.322   0.626
    1   AR   Ar  132   2.148   2.228  -1.882
    1   AR   Ar  133   4.353   0.550   2.769
    1   AR   Ar  134   4.580   1.184   3.607
    1   AR   Ar  135   5.334   1.190   3.024
    1   AR   Ar  136   5.024   0.423   1.999
    1   AR   Ar  137   2.630   6.198   3.826
    1   AR   Ar  138   4.640   1.570   4.757
    1   AR   Ar  139   5.902   2.074   5.654
    1   AR   Ar  140   3.974   0.704   4.338
    1   AR   Ar  141   3.856   6.399   4.164
    1   AR   Ar  142   3.819   6.794   5.416
    1   AR   Ar  143   6.118   7.111   5.646
    1   AR   Ar  144   5.441   1.018   5.747
    1   AR   Ar  145   3.382   3.672   0.455
    1   AR   Ar  146   4.378   1.948   1.616
    1   AR   Ar  147   6.038   1.709  -1.270
    1   AR   Ar  148   4.481   3.744  -2.165
    1   AR   Ar  149   3.409   1.827   0.602
    1   AR   Ar  150   2.138   1.858   2.826
    1   AR   Ar  151   2.937   2.216   3.513
    1   AR   Ar  152   2.981   2.772   0.100
    1   AR   Ar  153   3.031   1.147   3.914
    1   AR   Ar  154   3.793   1.818   4.071
    1   AR   Ar  155   6.499   1.295   5.910
    1   AR   Ar  156   3.841   4.130   4.649
    1   AR   Ar  157   2.674   3.067   5.836
    1   AR   Ar  158   0.996   3.595   6.473
    1   AR   Ar  159   3.493   2.134   6.062
    1   AR   Ar  160   2.559   1.939   6.414
    1   AR   Ar  161   5.456   3.005   1.492
    1   AR   Ar  162   4.545   5.580  -0.649
    1   AR   Ar  163   5.517   2.934   0.447
    1   AR   Ar  164   3.856   5.575   1.749
    1   AR   Ar  165   3.542   3.126   1.460
    1   AR   Ar  166   2.984   4.628   3.564
    1   AR   Ar  167   4.264   1.698   2.788
    1   AR   Ar  168   4.777   3.242  -0.644
    1   AR   Ar  169   2.512   2.849   2.200
    1   AR   Ar  170   3.051   4.014   5.612
    1   AR   Ar  171   5.332   3.777   4.196
    1   AR   Ar  172   4.489   5.527   4.583
    1   AR   Ar  173   1.971   3.606   6.800
    1   AR   Ar  174   3.919   4.907   6.262
    1   AR   Ar  175   3.967   3.253   5.931
    1   AR   Ar  176   3.749   4.913   5.253
    1   AR   Ar  177   6.250   5.245   0.138
    1   AR   Ar  178   2.678   5.647   0.629
    1   AR   Ar  179   4.331   5.856   0.543
    1   AR   Ar  180   1.964   3.366  -1.351
    1   AR   Ar  181   1.336   5.752   1.065
    1   AR   Ar  182   2.552   0.182   2.595
    1   AR   Ar  183   3.873   4.872   2.553
    1   AR   Ar  184   4.410   6.625   1.493
    1   AR   Ar  185   2.005   5.283   3.886
    1   AR   Ar  186   3.708   5.490   3.339
    1   AR   Ar  187   3.688   6.730   2.752
    1   AR   Ar  188   3.124   6.159   1.306
    1   AR   Ar  189   3.253   3.361   6.640
    1   AR   Ar  190   5.129   6.414   5.826
    1   AR   Ar  191   4.817   5.123   5.847
    1   AR   Ar  192   4.118   5.904   5.763
    1   AR   Ar  193   0.897   6.584  -1.227
    1   AR   Ar  194   5.222   4.071  -1.527
    1   AR   Ar  195   6.726   0.377  -0.073
    1   AR   Ar  196   4.759   6.759  -0.428
    1   AR   Ar  197   5.529   1.367   0.338
    1   AR   Ar  198   6.977   1.292   1.149
    1   AR   Ar  199   5.357   1.453   1.715
    1   AR   Ar  200   6.153   2.203   0.027
    1   AR   Ar  201   5.001   6.810   3.080
    1   AR   Ar  202   5.238   2.484   4.641
    1   AR   Ar  203   6.380   6.531   4.696
    1   AR   Ar  204   5.153   0.324   4.034
    1   AR   Ar  205   5.876   0.356   3.105
    1   AR   Ar  206   4.949   0.095   5.147
    1   AR   Ar  207   0.023   0.545   5.901
    1   AR   Ar  208   6.755   0.258   3.861
    1   AR   Ar  209   5.856   2.739  -1.955
    1   AR   Ar  210   4.135   1.016   1.176
    1   AR   Ar  211   0.185   3.360   0.156
    1   AR   Ar  212   6.393   3.877  -1.559
    1   AR   Ar  213   3.226   1.835   1.911
    1   AR   Ar  214   3.859   2.649   2.473
    1   AR   Ar  215   6.283   2.437   1.615
    1   AR   Ar  216   6.982   4.223   0.886
    1   AR   Ar  217   4.441   2.814   3.944
    1   AR   Ar  218   4.387   2.621   5.207
    1   AR   Ar  219   5.560   2.172   3.508
    1   AR   Ar  220   5.463   2.994   2.569
    1   AR   Ar  221   5.964   0.577   4.800
    1   AR   Ar  222   4.976   2.055   6.196
    1   AR   Ar  223   0.688   0.606   6.779
    1   AR   Ar  224   5.027   3.075   6.000
    1   AR   Ar  225   6.101   4.666   1.286
    1   AR   Ar  226   4.519   4.215   2.260
    1   AR   Ar  227   0.513   5.223   0.447
    1   AR   Ar  228   5.150   5.797   1.434
    1   AR   Ar  229   6.135   3.771   0.199
    1   AR   Ar  230   4.467   4.386   3.265
    1   AR   Ar  231   6.468   1.985   2.853
    1   AR   Ar  232   4.182   2.787   0.622
    1   AR   Ar  233   6.236   2.894   4.390
    1   AR   Ar  234   0.007   3.149   4.986
    1   AR   Ar  235   0.355   2.422   4.111
    1   AR   Ar  236   5.418   4.876   4.880
    1   AR   Ar  237   5.703   3.833   5.103
    1   AR   Ar  238   4.560   3.782   5.354
    1   AR   Ar  239   6.857   3.884   8.789
    1   AR   Ar  240   6.303   3.600   6.007
    1   AR   Ar  241   0.500   7.099   0.010
    1   AR   Ar  242   4.427   4.656   0.275
    1   AR   Ar  243   5.654   4.021   2.990
    1   AR   Ar  244   1.227   5.050  -0.504
    1   AR   Ar  245   5.798   0.176   1.161
    1   AR   Ar  246   6.147   6.101   1.359
    1   AR   Ar  247   4.510   3.756   1.073
    1   AR   Ar  248   5.663   6.277   0.186
    1   AR   Ar  249   4.792   5.597   2.625
    1   AR   Ar  250   5.340   6.164   4.786
    1   AR   Ar  251   6.012   5.540   4.333
    1   AR   Ar  252   4.883   5.970   3.712
    1   AR   Ar  253   5.273   4.129   6.244
    1   AR   Ar  254   4.060   5.574   7.065
    1   AR   Ar  255   4.772   3.255   7.011
    1   AR   Ar  256   5.691   6.581   3.765
    7.12000  7.12000 12.00000
Argon-slab step 2365
  256
    1   AR   Ar    1   6.652   1.343  -0.416
    1   AR   Ar    2   6.821   0.035   0.944
    1   AR   Ar    3   1.158   0.215   1.265
    1   AR   Ar    4   1.451   0.375  -0.541
    1   AR   Ar    5   6.944   5.999   0.540
    1   AR   Ar    6   6.983   0.538   2.693
    1   AR   Ar    7   6.476   4.645   3.311
    1   AR   Ar    8   6.574   6.831   2.028
    1   AR   Ar    9   0.938   0.394   3.841
    1   AR   Ar   10   1.015   1.474   4.451
    1   AR   Ar   11   3.208   0.204   4.770
    1   AR   Ar   12   0.879   1.396   3.229
    1   AR   Ar   13   0.050   0.888   4.656
    1   AR   Ar   14   1.290   1.421   7.276
    1   AR   Ar   15   6.481   0.224   9.172
    1   AR   Ar   16   0.971   0.814   5.338
    1   AR   Ar   17   1.232   1.829  -0.127
    1   AR   Ar   18   6.271   3.144  -0.936
    1   AR   Ar   19   1.555   2.685   1.546
    1   AR   Ar   20   5.582   3.627  -2.472
    1   AR   Ar   21   6.196   0.798   2.109
    1   AR   Ar   22   7.087   1.603   2.177
    1   AR   Ar   23   0.785   1.107   0.488
    1   AR   Ar   24   0.237   2.500   0.798
    1   AR   Ar   25   6.997   1.308   3.687
    1   AR   Ar   26   5.816   1.245   3.941
    1   AR   Ar   27   2.043   1.405   3.840
    1   AR   Ar   28   1.386   2.931   4.828
    1   AR   Ar   29   5.659   2.032   7.136
    1   AR   Ar   30   0.573   1.903   6.282
    1   AR   Ar   31   1.042   6.399   7.369
    1   AR   Ar   32   1.723   2.475   6.223
    1   AR   Ar   33   1.572   4.151  -0.801
    1   AR   Ar   34   0.194   5.408   2.968
    1   AR   Ar   35   6.443   4.994   2.221
    1   AR   Ar   36   0.118   0.449  -3.414
    1   AR   Ar   37   6.661   3.503   2.217
    1   AR   Ar   38   0.285   4.324   2.717
    1   AR   Ar   39   1.290   3.831   2.854
    1   AR   Ar   40   1.408   3.882   1.101
    1   AR   Ar   41   0.388   2.400   2.795
    1   AR   Ar   42   6.699   5.727   5.046
    1   AR   Ar   43   6.746   2.455   6.081
    1   AR   Ar   44   0.434   4.317   3.793
    1   AR   Ar   45   0.816   2.811   5.669
    1   AR   Ar   46   1.335   5.895   6.258
    1   AR   Ar   47   6.087   3.068   7.074
    1   AR   Ar   48   7.040   6.524   6.382
    1   AR   Ar   49   6.012   0.028  -1.962
    1   AR   Ar   50   5.390   4.797   1.982
    1   AR   Ar   51   0.217   5.248   1.394
    1   AR   Ar   52   6.651   5.114  -1.491
    1   AR   Ar   53   5.626   6.485   2.285
    1   AR   Ar   54   6.916   6.414   3.161
    1   AR   Ar   55   5.787   5.424   2.956
    1   AR   Ar   56   0.542   6.932   1.995
    1   AR   Ar   57   6.199   3.021   3.265
    1   AR   Ar   58   6.983   5.469   3.934
    1   AR   Ar   59   1.878   5.221   5.381
    1   AR   Ar   60   0.286   6.354   4.099
    1   AR   Ar   61   6.103   5.082   5.646
    1   AR   Ar   62   0.843   5.743   5.132
    1   AR   Ar   63   2.227   5.975   6.710
    1   AR   Ar   64   1.241   6.831   5.925
    1   AR   Ar   65   3.910   0.062   0.852
    1   AR   Ar   66   1.481   1.385   1.302
    1   AR   Ar   67   3.220   6.350  -0.455
    1   AR   Ar   68   3.106   1.343  -1.453
    1   AR   Ar   69   2.711   1.215   0.943
    1   AR   Ar   70   0.719   0.794   2.247
    1   AR   Ar   71   3.290   1.150   2.840
    1   AR   Ar   72   3.514   0.580   1.889
    1   AR   Ar   73   2.841   0.108   3.622
    1   AR   Ar   74   2.162   0.927   4.756
    1   AR   Ar   75   3.614   1.159   5.172
    1   AR   Ar   76   2.419   1.078   2.015
    1   AR   Ar   77   2.422   6.273   5.653
    1   AR   Ar   78   1.980   7.031   6.661
    1   AR   Ar   79   3.620   6.844   6.465
    1   AR   Ar   80   3.068   5.604   6.145
    1   AR   Ar   81   2.389   1.565  -0.762
    1   AR   Ar   82   7.021   4.410  -0.146
    1   AR   Ar   83   1.605   2.350   0.590
    1   AR   Ar   84   0.575   3.604  -0.919
    1   AR   Ar   85   1.103   2.976   0.032
    1   AR   Ar   86   2.390   3.307   1.142
    1   AR   Ar   87   2.477   2.259   1.148
    1   AR   Ar   88   3.612   4.303   1.553
    1   AR   Ar   89   0.755   3.253   2.025
    1   AR   Ar   90   2.843   2.041   5.093
    1   AR   Ar   91   1.409   2.342   3.558
    1   AR   Ar   92   1.109   1.785   2.266
    1   AR   Ar   93   1.526   1.410   6.053
    1   AR   Ar   94   1.708   0.839   9.466
    1   AR   Ar   95   4.182   0.788   5.991
    1   AR   Ar   96   3.088   0.478   5.930
    1   AR   Ar   97   3.994   2.406  -1.311
    1   AR   Ar   98   2.827   4.832   1.977
    1   AR   Ar   99   0.057   2.322  -1.537
    1   AR   Ar  100   2.061   2.986  -0.251
    1   AR   Ar  101   2.570   4.343   0.958
    1   AR   Ar  102   3.608   3.600   3.379
    1   AR   Ar  103   1.511   4.823   0.643
    1   AR   Ar  104   2.853   2.760  -1.251
    1   AR   Ar  105   2.001   3.159   3.754
    1   AR   Ar  106   2.899   3.713   4.335
    1   AR   Ar  107   1.868   4.188   5.783
    1   AR   Ar  108   3.350   2.963   5.123
    1   AR   Ar  109   1.351   4.036   4.546
    1   AR   Ar  110   1.075   4.905   6.263
    1   AR   Ar  111   4.273   4.018   6.685
    1   AR   Ar  112   1.438   5.238   7.397
    1   AR   Ar  113   2.273   4.896  -0.057
    1   AR   Ar  114   2.598   4.572  -1.138
    1   AR   Ar  115   2.644   3.630  -0.709
    1   AR   Ar  116   5.233   5.805  -1.454
    1   AR   Ar  117   0.913   5.311   4.219
    1   AR   Ar  118   0.810   6.738   3.156
    1   AR   Ar  119   2.142   3.889   2.244
    1   AR   Ar  120   1.184   4.763   2.622
    1   AR   Ar  121   6.673   4.400   5.053
    1   AR   Ar  122   3.367   5.783   4.825
    1   AR   Ar  123   2.752   4.929   4.799
    1   AR   Ar  124   1.678   4.783   1.705
    1   AR   Ar  125   0.370   4.221   5.931
    1   AR   Ar  126   0.265   6.846   5.094
    1   AR   Ar  127   3.272   4.397   6.996
    1   AR   Ar  128   2.202   4.883   6.736
    1   AR   Ar  129   1.736   0.589   3.223
    1   AR   Ar  130   3.555   1.792  -2.554
    1   AR   Ar  131   4.843   0.336   0.610
    1   AR   Ar  132   2.116   2.211  -1.878
    1   AR   Ar  133   4.356   0.572   2.731
    1   AR   Ar  134   4.572   1.176   3.657
    1   AR   Ar  135   5.371   1.196   3.009
    1   AR   Ar  136   5.043   0.430   1.973
    1   AR   Ar  137   2.643   6.177   3.828
    1   AR   Ar  138   4.641   1.598   4.792
    1   AR   Ar  139   5.868   2.070   5.665
    1   AR   Ar  140   3.974   0.690   4.328
    1   AR   Ar  141   3.860   6.397   4.161
    1   AR   Ar  142   3.803   6.781   5.437
    1   AR   Ar  143   6.122   7.098   5.644
    1   AR   Ar  144   5.476   1.064   5.744
    1   AR   Ar  145   3.365   3.663   0.478
    1   AR   Ar  146   4.364   1.973   1.624
    1   AR   Ar  147   6.032   1.714  -1.279
    1   AR   Ar  148   4.449   3.754  -2.149
    1   AR   Ar  149   3.406   1.820   0.638
    1   AR   Ar  150   2.155   1.839   2.780
    1   AR   Ar  151   2.933   2.220   3.483
    1   AR   Ar  152   2.988   2.799   0.118
    1   AR   Ar  153   3.036   1.120   3.918
    1   AR   Ar  154   3.804   1.816   4.069
    1   AR   Ar  155   6.520   1.331   5.914
    1   AR   Ar  156   3.851   4.159   4.656
    1   AR   Ar  157   2.679   3.040   5.876
    1   AR   Ar  158   1.013   3.558   6.444
    1   AR   Ar  159   3.535   2.100   6.051
    1   AR   Ar  160   2.560   1.938   6.426
    1   AR   Ar  161   5.454   3.022   1.461
    1   AR   Ar  162   4.542   5.610  -0.665
    1   AR   Ar  163   5.538   2.926   0.436
    1   AR   Ar  164   3.851   5.597   1.735
    1   AR   Ar  165   3.513   3.134   1.492
    1   AR   Ar  166   2.968   4.622   3.567
    1   AR   Ar  167   4.236   1.684   2.772
    1   AR   Ar  168   4.789   3.238  -0.669
    1   AR   Ar  169   2.483   2.829   2.180
    1   AR   Ar  170   3.046   4.013   5.638
    1   AR   Ar  171   5.315   3.792   4.165
    1   AR   Ar  172   4.523   5.531   4.558
    1   AR   Ar  173   1.983   3.643   6.812
    1   AR   Ar  174   3.936   4.894   6.273
    1   AR   Ar  175   3.959   3.237   5.927
    1   AR   Ar  176   3.745   4.907   5.261
    1   AR   Ar  177   6.250   5.222   0.148
    1   AR   Ar  178   2.709   5.661   0.613
    1   AR   Ar  179   4.313   5.839   0.577
    1   AR   Ar  180   1.948   3.350  -1.370
    1   AR   Ar  181   1.307   5.761   1.046
    1   AR   Ar  182   2.586   0.208   2.642
    1   AR   Ar  183   3.875   4.883   2.581
    1   AR   Ar  184   4.421   6.622   1.529
    1   AR   Ar  185   2.022   5.270   3.903
    1   AR   Ar  186   3.699   5.503   3.341
    1   AR   Ar  187   3.662   6.730   2.789
    1   AR   Ar  188   3.117   6.164   1.289
    1   AR   Ar  189   3.288   3.352   6.650
    1   AR   Ar  190   5.114   6.449   5.838
    1   AR   Ar  191   4.789   5.147   5.847
    1   AR   Ar  192   4.150   5.901   5.738
    1   AR   Ar  193   0.887   6.593  -1.230
    1   AR   Ar  194   5.229   4.049  -1.531
    1   AR   Ar  195   6.717   0.385  -0.059
    1   AR   Ar  196   4.768   6.761  -0.448
    1   AR   Ar  197   5.543   1.346   0.360
    1   AR   Ar  198   6.974   1.315   1.155
    1   AR   Ar  199   5.362   1.453   1.733
    1   AR   Ar  200   6.172   2.198   0.039
    1   AR   Ar  201   5.014   6.808   3.058
    1   AR   Ar  202   5.270   2.497   4.656
    1   AR   Ar  203   6.353   6.541   4.711
    1   AR   Ar  204   5.162   0.335   4.021
    1   AR   Ar  205   5.882   0.341   3.097
    1   AR   Ar  206   4.956   0.085   5.165
    1   AR   Ar  207   0.071   0.530   5.886
    1   AR   Ar  208   6.729   0.236   3.874
    1   AR   Ar  209   5.860   2.763  -1.964
    1   AR   Ar  210   4.167   1.020   1.167
    1   AR   Ar  211   0.171   3.368   0.164
    1   AR   Ar  212   6.381   3.858  -1.539
    1   AR   Ar  213   3.229   1.867   1.910
    1   AR   Ar  214   3.863   2.631   2.464
    1   AR   Ar  215   6.301   2.410   1.619
    1   AR   Ar  216   7.014   4.200   0.855
    1   AR   Ar  217   4.476   2.800   3.925
    1   AR   Ar  218   4.347   2.634   5.229
    1   AR   Ar  219   5.592   2.144   3.516
    1   AR   Ar  220   5.444   3.025   2.560
    1   AR   Ar  221   5.976   0.589   4.811
    1   AR   Ar  222   4.974   2.039   6.204
    1   AR   Ar  223   0.702   0.628   6.775
    1   AR   Ar  224   5.008   3.051   6.010
    1   AR   Ar  225   6.089   4.661   1.265
    1   AR   Ar  226   4.507   4.234   2.241
    1   AR   Ar  227   0.516   5.230   0.449
    1   AR   Ar  228   5.155   5.817   1.416
    1   AR   Ar  229   6.160   3.828   0.169
    1   AR   Ar  230   4.443   4.401   3.267
    1   AR   Ar  231   6.466   1.959   2.897
    1   AR   Ar  232   4.171   2.784   0.640
    1   AR   Ar  233   6.221   2.889   4.413
    1   AR   Ar  234   7.105   3.158   4.991
    1   AR   Ar  235   0.344   2.420   4.120
    1   AR   Ar  236   5.422   4.889   4.912
    1   AR   Ar  237   5.727   3.846   5.102
    1   AR   Ar  238   4.597   3.770   5.347
    1   AR   Ar  239   6.835   3.899   8.813
    1   AR   Ar  240   6.282   3.603   6.021
    1   AR   Ar  241   0.545   7.104   0.023
    1   AR   Ar  242   4.453   4.672   0.258
    1   AR   Ar  243   5.629   4.026   2.983
    1   AR   Ar  244   1.255   5.041  -0.515
    1   AR   Ar  245   5.806   0.179   1.146
    1   AR   Ar  246   6.140   6.086   1.350
    1   AR   Ar  247   4.518   3.782   1.093
    1   AR   Ar  248   5.654   6.274   0.159
    1   AR   Ar  249   4.806   5.614   2.636
    1   AR   Ar  250   5.303   6.165   4.790
    1   AR   Ar  251   6.021   5.519   4.331
    1   AR   Ar  252   4.916   5.963   3.681
    1   AR   Ar  253   5.276   4.113   6.246
    1   AR   Ar  254   4.073   5.563   7.083
    1   AR   Ar  255   4.773   3.241   7.026
    1   AR   Ar  256   5.683   6.549   3.755
    7.12000  7.12000 12.00000
Argon-slab step 2370
  256
    1   AR   Ar    1   6.649   1.331  -0.425
    1   AR   Ar    2   6.798   0.038   0.961
    1   AR   Ar    3   1.140   0.254   1.256
    1   AR   Ar    4   1.471   0.354  -0.531
    1   AR   Ar    5   6.932   6.007   0.504
    1   AR   Ar    6   6.972   0.558   2.711
    1   AR   Ar    7   6.468   4.665   3.327
    1   AR   Ar    8   6.587   6.854   2.027
    1   AR   Ar    9   0.929   0.409   3.831
    1   AR   Ar   10   0.998   1.466   4.433
    1   AR   Ar   11   3.202   0.182   4.783
    1   AR   Ar   12   0.860   1.376   3.232
    1   AR   Ar   13   0.016   0.895   4.653
    1   AR   Ar   14   1.280   1.388   7.273
    1   AR   Ar   15   6.466   0.241   9.190
    1   AR   Ar   16   0.987   0.789   5.330
    1   AR   Ar   17   1.219   1.836  -0.142
    1   AR   Ar   18   6.260   3.137  -0.952
    1   AR   Ar   19   1.577   2.702   1.599
    1   AR   Ar   20   5.550   3.627  -2.469
    1   AR   Ar   21   6.182   0.798   2.106
    1   AR   Ar   22   7.076   1.655   2.180
    1   AR   Ar   23   0.769   1.083   0.476
    1   AR   Ar   24   0.226   2.509   0.766
    1   AR   Ar   25   6.997   1.312   3.684
    1   AR   Ar   26   5.837   1.236   3.943
    1   AR   Ar   27   2.019   1.413   3.848
    1   AR   Ar   28   1.390   2.917   4.807
    1   AR   Ar   29   5.685   2.058   7.148
    1   AR   Ar   30   0.582   1.910   6.301
    1   AR   Ar   31   1.057   6.407   7.374
    1   AR   Ar   32   1.702   2.465   6.244
    1   AR   Ar   33   1.540   4.137  -0.812
    1   AR   Ar   34   0.193   5.397   2.967
    1   AR   Ar   35   6.487   4.969   2.234
    1   AR   Ar   36   0.131   0.456  -3.414
    1   AR   Ar   37   6.659   3.484   2.216
    1   AR   Ar   38   0.290   4.369   2.738
    1   AR   Ar   39   1.291   3.839   2.871
    1   AR   Ar   40   1.424   3.882   1.078
    1   AR   Ar   41   0.371   2.417   2.835
    1   AR   Ar   42   6.728   5.731   5.059
    1   AR   Ar   43   6.720   2.433   6.060
    1   AR   Ar   44   0.417   4.333   3.749
    1   AR   Ar   45   0.830   2.837   5.635
    1   AR   Ar   46   1.368   5.838   6.259
    1   AR   Ar   47   6.072   3.089   7.041
    1   AR   Ar   48   7.078   6.536   6.385
    1   AR   Ar   49   6.009   0.038  -1.923
    1   AR   Ar   50   5.384   4.795   2.014
    1   AR   Ar   51   0.216   5.225   1.397
    1   AR   Ar   52   6.598   5.102  -1.493
    1   AR   Ar   53   5.625   6.499   2.284
    1   AR   Ar   54   6.899   6.415   3.129
    1   AR   Ar   55   5.755   5.407   2.971
    1   AR   Ar   56   0.567   6.906   1.998
    1   AR   Ar   57   6.160   3.012   3.253
    1   AR   Ar   58   6.997   5.458   3.932
    1   AR   Ar   59   1.889   5.228   5.373
    1   AR   Ar   60   0.261   6.320   4.071
    1   AR   Ar   61   6.120   5.023   5.664
    1   AR   Ar   62   0.849   5.743   5.127
    1   AR   Ar   63   2.241   5.982   6.701
    1   AR   Ar   64   1.254   6.882   5.906
    1   AR   Ar   65   3.911   0.032   0.838
    1   AR   Ar   66   1.442   1.395   1.289
    1   AR   Ar   67   3.217   6.326  -0.463
    1   AR   Ar   68   3.119   1.348  -1.461
    1   AR   Ar   69   2.673   1.232   0.927
    1   AR   Ar   70   0.725   0.794   2.276
    1   AR   Ar   71   3.301   1.152   2.799
    1   AR   Ar   72   3.515   0.601   1.905
    1   AR   Ar   73   2.824   0.077   3.618
    1   AR   Ar   74   2.143   0.915   4.760
    1   AR   Ar   75   3.593   1.194   5.163
    1   AR   Ar   76   2.388   1.084   2.000
    1   AR   Ar   77   2.415   6.257   5.662
    1   AR   Ar   78   1.991   6.998   6.676
    1   AR   Ar   79   3.642   6.868   6.431
    1   AR   Ar   80   3.083   5.588   6.149
    1   AR   Ar   81   2.365   1.565  -0.752
    1   AR   Ar   82   6.998   4.414  -0.146
    1   AR   Ar   83   1.598   2.322   0.610
    1   AR   Ar   84   0.531   3.638  -0.908
    1   AR   Ar   85   1.113   3.000   0.038
    1   AR   Ar   86   2.411   3.307   1.139
    1   AR   Ar   87   2.482   2.260   1.172
    1   AR   Ar   88   3.610   4.285   1.568
    1   AR   Ar   89   0.753   3.226   2.015
    1   AR   Ar   90   2.848   2.024   5.101
    1   AR   Ar   91   1.414   2.347   3.581
    1   AR   Ar   92   1.083   1.811   2.251
    1   AR   Ar   93   1.543   1.381   6.067
    1   AR   Ar   94   1.692   0.809   9.454
    1   AR   Ar   95   4.193   0.810   5.986
    1   AR   Ar   96   3.092   0.497   5.907
    1   AR   Ar   97   3.977   2.395  -1.314
    1   AR   Ar   98   2.779   4.837   2.008
    1   AR   Ar   99   0.050   2.289  -1.542
    1   AR   Ar  100   2.089   2.993  -0.260
    1   AR   Ar  101   2.563   4.354   0.976
    1   AR   Ar  102   3.610   3.586   3.393
    1   AR   Ar  103   1.504   4.803   0.614
    1   AR   Ar  104   2.869   2.787  -1.251
    1   AR   Ar  105   2.011   3.159   3.809
    1   AR   Ar  106   2.912   3.714   4.397
    1   AR   Ar  107   1.871   4.197   5.805
    1   AR   Ar  108   3.344   2.977   5.136
    1   AR   Ar  109   1.357   4.029   4.566
    1   AR   Ar  110   1.093   4.906   6.252
    1   AR   Ar  111   4.291   4.030   6.688
    1   AR   Ar  112   1.463   5.235   7.410
    1   AR   Ar  113   2.262   4.893  -0.056
    1   AR   Ar  114   2.617   4.586  -1.112
    1   AR   Ar  115   2.637   3.602  -0.726
    1   AR   Ar  116   5.240   5.833  -1.481
    1   AR   Ar  117   0.915   5.322   4.207
    1   AR   Ar  118   0.820   6.729   3.134
    1   AR   Ar  119   2.175   3.880   2.246
    1   AR   Ar  120   1.204   4.780   2.624
    1   AR   Ar  121   6.676   4.398   5.007
    1   AR   Ar  122   3.347   5.753   4.852
    1   AR   Ar  123   2.759   4.936   4.800
    1   AR   Ar  124   1.684   4.766   1.705
    1   AR   Ar  125   0.392   4.231   5.942
    1   AR   Ar  126   0.258   6.847   5.116
    1   AR   Ar  127   3.257   4.352   7.007
    1   AR   Ar  128   2.219   4.844   6.730
    1   AR   Ar  129   1.763   0.575   3.197
    1   AR   Ar  130   3.575   1.800  -2.522
    1   AR   Ar  131   4.853   0.351   0.591
    1   AR   Ar  132   2.084   2.186  -1.866
    1   AR   Ar  133   4.356   0.595   2.696
    1   AR   Ar  134   4.566   1.172   3.708
    1   AR   Ar  135   5.406   1.209   2.984
    1   AR   Ar  136   5.066   0.434   1.944
    1   AR   Ar  137   2.659   6.155   3.830
    1   AR   Ar  138   4.642   1.624   4.826
    1   AR   Ar  139   5.828   2.072   5.670
    1   AR   Ar  140   3.988   0.671   4.317
    1   AR   Ar  141   3.866   6.399   4.155
    1   AR   Ar  142   3.787   6.776   5.453
    1   AR   Ar  143   6.126   7.084   5.645
    1   AR   Ar  144   5.507   1.107   5.741
    1   AR   Ar  145   3.350   3.661   0.506
    1   AR   Ar  146   4.347   2.000   1.633
    1   AR   Ar  147   6.034   1.722  -1.292
    1   AR   Ar  148   4.415   3.762  -2.135
    1   AR   Ar  149   3.416   1.823   0.670
    1   AR   Ar  150   2.171   1.819   2.734
    1   AR   Ar  151   2.929   2.223   3.454
    1   AR   Ar  152   2.998   2.817   0.136
    1   AR   Ar  153   3.043   1.092   3.924
    1   AR   Ar  154   3.817   1.812   4.068
    1   AR   Ar  155   6.544   1.365   5.920
    1   AR   Ar  156   3.861   4.175   4.653
    1   AR   Ar  157   2.676   3.010   5.918
    1   AR   Ar  158   1.029   3.519   6.415
    1   AR   Ar  159   3.580   2.069   6.036
    1   AR   Ar  160   2.564   1.932   6.439
    1   AR   Ar  161   5.448   3.041   1.434
    1   AR   Ar  162   4.537   5.640  -0.677
    1   AR   Ar  163   5.557   2.919   0.422
    1   AR   Ar  164   3.851   5.617   1.722
    1   AR   Ar  165   3.483   3.142   1.524
    1   AR   Ar  166   2.952   4.616   3.570
    1   AR   Ar  167   4.209   1.669   2.753
    1   AR   Ar  168   4.801   3.234  -0.694
    1   AR   Ar  169   2.456   2.808   2.159
    1   AR   Ar  170   3.044   4.014   5.663
    1   AR   Ar  171   5.295   3.806   4.129
    1   AR   Ar  172   4.549   5.530   4.537
    1   AR   Ar  173   2.001   3.681   6.823
    1   AR   Ar  174   3.931   4.903   6.246
    1   AR   Ar  175   3.950   3.223   5.929
    1   AR   Ar  176   3.742   4.911   5.277
    1   AR   Ar  177   6.251   5.198   0.159
    1   AR   Ar  178   2.728   5.660   0.577
    1   AR   Ar  179   4.295   5.823   0.612
    1   AR   Ar  180   1.925   3.329  -1.396
    1   AR   Ar  181   1.278   5.772   1.029
    1   AR   Ar  182   2.617   0.228   2.673
    1   AR   Ar  183   3.862   4.902   2.603
    1   AR   Ar  184   4.434   6.617   1.570
    1   AR   Ar  185   2.038   5.255   3.920
    1   AR   Ar  186   3.722   5.527   3.384
    1   AR   Ar  187   3.664   6.712   2.808
    1   AR   Ar  188   3.121   6.188   1.290
    1   AR   Ar  189   3.319   3.345   6.669
    1   AR   Ar  190   5.101   6.481   5.854
    1   AR   Ar  191   4.779   5.165   5.841
    1   AR   Ar  192   4.176   5.895   5.714
    1   AR   Ar  193   0.877   6.602  -1.231
    1   AR   Ar  194   5.240   4.027  -1.530
    1   AR   Ar  195   6.704   0.391  -0.044
    1   AR   Ar  196   4.776   6.761  -0.466
    1   AR   Ar  197   5.527   1.351   0.376
    1   AR   Ar  198   6.971   1.337   1.159
    1   AR   Ar  199   5.367   1.454   1.751
    1   AR   Ar  200   6.193   2.192   0.049
    1   AR   Ar  201   5.021   6.812   3.032
    1   AR   Ar  202   5.302   2.509   4.671
    1   AR   Ar  203   6.319   6.573   4.715
    1   AR   Ar  204   5.171   0.346   4.010
    1   AR   Ar  205   5.895   0.318   3.090
    1   AR   Ar  206   4.962   0.080   5.178
    1   AR   Ar  207   0.119   0.511   5.869
    1   AR   Ar  208   6.702   0.212   3.886
    1   AR   Ar  209   5.867   2.784  -1.969
    1   AR   Ar  210   4.201   1.028   1.159
    1   AR   Ar  211   0.169   3.390   0.186
    1   AR   Ar  212   6.361   3.856  -1.531
    1   AR   Ar  213   3.232   1.899   1.908
    1   AR   Ar  214   3.867   2.615   2.454
    1   AR   Ar  215   6.321   2.381   1.624
    1   AR   Ar  216   7.046   4.177   0.831
    1   AR   Ar  217   4.511   2.787   3.907
    1   AR   Ar  218   4.328   2.643   5.234
    1   AR   Ar  219   5.621   2.122   3.523
    1   AR   Ar  220   5.422   3.055   2.549
    1   AR   Ar  221   5.987   0.601   4.819
    1   AR   Ar  222   4.967   2.017   6.214
    1   AR   Ar  223   0.718   0.650   6.769
    1   AR   Ar  224   4.994   3.028   6.018
    1   AR   Ar  225   6.083   4.656   1.236
    1   AR   Ar  226   4.505   4.240   2.212
    1   AR   Ar  227   0.522   5.232   0.439
    1   AR   Ar  228   5.154   5.835   1.399
    1   AR   Ar  229   6.184   3.883   0.139
    1   AR   Ar  230   4.423   4.413   3.278
    1   AR   Ar  231   6.459   1.935   2.946
    1   AR   Ar  232   4.158   2.780   0.659
    1   AR   Ar  233   6.207   2.885   4.434
    1   AR   Ar  234   7.084   3.168   4.997
    1   AR   Ar  235   0.334   2.417   4.128
    1   AR   Ar  236   5.420   4.900   4.942
    1   AR   Ar  237   5.753   3.857   5.106
    1   AR   Ar  238   4.639   3.764   5.335
    1   AR   Ar  239   6.813   3.915   8.837
    1   AR   Ar  240   6.262   3.606   6.036
    1   AR   Ar  241   0.583   7.105   0.033
    1   AR   Ar  242   4.478   4.688   0.242
    1   AR   Ar  243   5.635   4.035   2.973
    1   AR   Ar  244   1.257   5.072  -0.509
    1   AR   Ar  245   5.811   0.182   1.134
    1   AR   Ar  246   6.139   6.055   1.343
    1   AR   Ar  247   4.526   3.808   1.112
    1   AR   Ar  248   5.645   6.270   0.133
    1   AR   Ar  249   4.817   5.631   2.644
    1   AR   Ar  250   5.268   6.171   4.795
    1   AR   Ar  251   6.014   5.508   4.276
    1   AR   Ar  252   4.937   5.946   3.650
    1   AR   Ar  253   5.280   4.098   6.247
    1   AR   Ar  254   4.086   5.553   7.101
    1   AR   Ar  255   4.778   3.227   7.052
    1   AR   Ar  256   5.691   6.521   3.755
    7.12000  7.12000 12.00000
Argon-slab step 2375
  256
    1   AR   Ar    1   6.646   1.324  -0.437
    1   AR   Ar    2   6.784   0.038   0.979
    1   AR   Ar    3   1.122   0.296   1.244
    1   AR   Ar    4   1.489   0.333  -0.520
    1   AR   Ar    5   6.918   6.017   0.471
    1   AR   Ar    6   6.959   0.575   2.738
    1   AR   Ar    7   6.462   4.684   3.344
    1   AR   Ar    8   6.601   6.879   2.027
    1   AR   Ar    9   0.916   0.427   3.824
    1   AR   Ar   10   0.980   1.458   4.413
    1   AR   Ar   11   3.189   0.161   4.794
    1   AR   Ar   12   0.843   1.356   3.236
    1   AR   Ar   13   7.104   0.900   4.653
    1   AR   Ar   14   1.271   1.358   7.270
    1   AR   Ar   15   6.452   0.257   9.208
    1   AR   Ar   16   1.005   0.764   5.320
    1   AR   Ar   17   1.223   1.842  -0.135
    1   AR   Ar   18   6.226   3.094  -0.943
    1   AR   Ar   19   1.595   2.718   1.652
    1   AR   Ar   20   5.517   3.631  -2.470
    1   AR   Ar   21   6.164   0.800   2.101
    1   AR   Ar   22   7.068   1.704   2.180
    1   AR   Ar   23   0.751   1.056   0.465
    1   AR   Ar   24   0.211   2.537   0.778
    1   AR   Ar   25   6.996   1.316   3.679
    1   AR   Ar   26   5.862   1.221   3.950
    1   AR   Ar   27   1.990   1.417   3.854
    1   AR   Ar   28   1.398   2.904   4.778
    1   AR   Ar   29   5.710   2.083   7.159
    1   AR   Ar   30   0.591   1.916   6.320
    1   AR   Ar   31   1.074   6.414   7.376
    1   AR   Ar   32   1.677   2.459   6.264
    1   AR   Ar   33   1.510   4.131  -0.796
    1   AR   Ar   34   0.194   5.387   2.960
    1   AR   Ar   35   6.531   4.944   2.247
    1   AR   Ar   36   0.144   0.463  -3.414
    1   AR   Ar   37   6.655   3.464   2.216
    1   AR   Ar   38   0.285   4.407   2.752
    1   AR   Ar   39   1.291   3.833   2.893
    1   AR   Ar   40   1.428   3.843   1.056
    1   AR   Ar   41   0.354   2.435   2.878
    1   AR   Ar   42   6.756   5.727   5.071
    1   AR   Ar   43   6.698   2.416   6.040
    1   AR   Ar   44   0.402   4.351   3.711
    1   AR   Ar   45   0.838   2.861   5.606
    1   AR   Ar   46   1.397   5.793   6.255
    1   AR   Ar   47   6.055   3.110   7.006
    1   AR   Ar   48   7.102   6.546   6.394
    1   AR   Ar   49   6.006   0.047  -1.884
    1   AR   Ar   50   5.377   4.796   2.049
    1   AR   Ar   51   0.213   5.200   1.408
    1   AR   Ar   52   6.545   5.089  -1.494
    1   AR   Ar   53   5.623   6.503   2.289
    1   AR   Ar   54   6.878   6.419   3.094
    1   AR   Ar   55   5.728   5.391   2.989
    1   AR   Ar   56   0.589   6.877   2.003
    1   AR   Ar   57   6.111   3.003   3.238
    1   AR   Ar   58   7.003   5.428   3.932
    1   AR   Ar   59   1.898   5.236   5.366
    1   AR   Ar   60   0.245   6.305   4.050
    1   AR   Ar   61   6.140   4.965   5.688
    1   AR   Ar   62   0.854   5.747   5.130
    1   AR   Ar   63   2.265   5.986   6.699
    1   AR   Ar   64   1.280   6.896   5.908
    1   AR   Ar   65   3.903   7.120   0.823
    1   AR   Ar   66   1.404   1.406   1.277
    1   AR   Ar   67   3.216   6.300  -0.471
    1   AR   Ar   68   3.135   1.353  -1.471
    1   AR   Ar   69   2.626   1.241   0.915
    1   AR   Ar   70   0.739   0.799   2.301
    1   AR   Ar   71   3.307   1.154   2.761
    1   AR   Ar   72   3.515   0.621   1.919
    1   AR   Ar   73   2.811   0.045   3.626
    1   AR   Ar   74   2.125   0.902   4.767
    1   AR   Ar   75   3.570   1.231   5.154
    1   AR   Ar   76   2.358   1.090   1.982
    1   AR   Ar   77   2.407   6.243   5.668
    1   AR   Ar   78   2.002   6.968   6.692
    1   AR   Ar   79   3.665   6.890   6.407
    1   AR   Ar   80   3.100   5.569   6.151
    1   AR   Ar   81   2.329   1.560  -0.730
    1   AR   Ar   82   6.983   4.425  -0.156
    1   AR   Ar   83   1.599   2.296   0.643
    1   AR   Ar   84   0.487   3.672  -0.896
    1   AR   Ar   85   1.117   3.027   0.042
    1   AR   Ar   86   2.431   3.307   1.135
    1   AR   Ar   87   2.490   2.258   1.198
    1   AR   Ar   88   3.607   4.265   1.582
    1   AR   Ar   89   0.750   3.201   2.007
    1   AR   Ar   90   2.852   2.005   5.109
    1   AR   Ar   91   1.415   2.346   3.602
    1   AR   Ar   92   1.057   1.850   2.238
    1   AR   Ar   93   1.560   1.351   6.084
    1   AR   Ar   94   1.676   0.780   9.442
    1   AR   Ar   95   4.193   0.829   5.981
    1   AR   Ar   96   3.095   0.518   5.881
    1   AR   Ar   97   3.959   2.384  -1.316
    1   AR   Ar   98   2.732   4.843   2.040
    1   AR   Ar   99   0.041   2.257  -1.547
    1   AR   Ar  100   2.101   2.986  -0.262
    1   AR   Ar  101   2.554   4.368   0.994
    1   AR   Ar  102   3.612   3.572   3.407
    1   AR   Ar  103   1.495   4.784   0.587
    1   AR   Ar  104   2.887   2.804  -1.254
    1   AR   Ar  105   2.024   3.163   3.866
    1   AR   Ar  106   2.924   3.716   4.458
    1   AR   Ar  107   1.875   4.205   5.828
    1   AR   Ar  108   3.335   2.988   5.141
    1   AR   Ar  109   1.363   4.022   4.586
    1   AR   Ar  110   1.076   4.896   6.237
    1   AR   Ar  111   4.305   4.044   6.688
    1   AR   Ar  112   1.486   5.234   7.420
    1   AR   Ar  113   2.255   4.889  -0.059
    1   AR   Ar  114   2.636   4.603  -1.086
    1   AR   Ar  115   2.648   3.598  -0.743
    1   AR   Ar  116   5.249   5.861  -1.508
    1   AR   Ar  117   0.918   5.330   4.189
    1   AR   Ar  118   0.830   6.719   3.109
    1   AR   Ar  119   2.209   3.871   2.244
    1   AR   Ar  120   1.201   4.797   2.635
    1   AR   Ar  121   6.682   4.396   4.959
    1   AR   Ar  122   3.329   5.736   4.879
    1   AR   Ar  123   2.762   4.935   4.800
    1   AR   Ar  124   1.692   4.749   1.701
    1   AR   Ar  125   0.408   4.238   5.949
    1   AR   Ar  126   0.276   6.868   5.083
    1   AR   Ar  127   3.241   4.310   7.017
    1   AR   Ar  128   2.237   4.804   6.720
    1   AR   Ar  129   1.789   0.562   3.171
    1   AR   Ar  130   3.594   1.808  -2.488
    1   AR   Ar  131   4.865   0.366   0.595
    1   AR   Ar  132   2.054   2.161  -1.851
    1   AR   Ar  133   4.354   0.617   2.664
    1   AR   Ar  134   4.569   1.174   3.749
    1   AR   Ar  135   5.436   1.224   2.951
    1   AR   Ar  136   5.091   0.436   1.913
    1   AR   Ar  137   2.677   6.131   3.834
    1   AR   Ar  138   4.642   1.648   4.861
    1   AR   Ar  139   5.788   2.084   5.668
    1   AR   Ar  140   4.000   0.646   4.312
    1   AR   Ar  141   3.873   6.403   4.148
    1   AR   Ar  142   3.772   6.776   5.457
    1   AR   Ar  143   6.131   7.069   5.650
    1   AR   Ar  144   5.534   1.143   5.736
    1   AR   Ar  145   3.340   3.669   0.540
    1   AR   Ar  146   4.338   2.019   1.640
    1   AR   Ar  147   6.036   1.733  -1.304
    1   AR   Ar  148   4.379   3.769  -2.122
    1   AR   Ar  149   3.435   1.836   0.702
    1   AR   Ar  150   2.186   1.801   2.690
    1   AR   Ar  151   2.924   2.224   3.424
    1   AR   Ar  152   3.011   2.823   0.154
    1   AR   Ar  153   3.050   1.063   3.931
    1   AR   Ar  154   3.830   1.811   4.068
    1   AR   Ar  155   6.572   1.395   5.926
    1   AR   Ar  156   3.873   4.180   4.639
    1   AR   Ar  157   2.666   2.977   5.962
    1   AR   Ar  158   1.047   3.481   6.387
    1   AR   Ar  159   3.626   2.040   6.018
    1   AR   Ar  160   2.571   1.925   6.451
    1   AR   Ar  161   5.444   3.058   1.417
    1   AR   Ar  162   4.531   5.670  -0.686
    1   AR   Ar  163   5.573   2.916   0.403
    1   AR   Ar  164   3.857   5.632   1.712
    1   AR   Ar  165   3.452   3.150   1.555
    1   AR   Ar  166   2.937   4.610   3.575
    1   AR   Ar  167   4.186   1.655   2.736
    1   AR   Ar  168   4.814   3.230  -0.719
    1   AR   Ar  169   2.434   2.786   2.140
    1   AR   Ar  170   3.044   4.017   5.688
    1   AR   Ar  171   5.275   3.820   4.091
    1   AR   Ar  172   4.566   5.521   4.518
    1   AR   Ar  173   2.022   3.719   6.833
    1   AR   Ar  174   3.912   4.914   6.222
    1   AR   Ar  175   3.942   3.216   5.936
    1   AR   Ar  176   3.723   4.912   5.288
    1   AR   Ar  177   6.251   5.173   0.172
    1   AR   Ar  178   2.741   5.650   0.530
    1   AR   Ar  179   4.277   5.808   0.648
    1   AR   Ar  180   1.898   3.304  -1.426
    1   AR   Ar  181   1.247   5.784   1.014
    1   AR   Ar  182   2.634   0.230   2.650
    1   AR   Ar  183   3.840   4.926   2.617
    1   AR   Ar  184   4.449   6.612   1.614
    1   AR   Ar  185   2.055   5.239   3.939
    1   AR   Ar  186   3.745   5.557   3.434
    1   AR   Ar  187   3.693   6.692   2.820
    1   AR   Ar  188   3.129   6.224   1.301
    1   AR   Ar  189   3.343   3.340   6.699
    1   AR   Ar  190   5.088   6.505   5.876
    1   AR   Ar  191   4.794   5.170   5.831
    1   AR   Ar  192   4.189   5.896   5.690
    1   AR   Ar  193   0.886   6.607  -1.230
    1   AR   Ar  194   5.252   4.006  -1.525
    1   AR   Ar  195   6.689   0.392  -0.028
    1   AR   Ar  196   4.786   6.760  -0.484
    1   AR   Ar  197   5.504   1.362   0.392
    1   AR   Ar  198   6.968   1.357   1.161
    1   AR   Ar  199   5.372   1.456   1.769
    1   AR   Ar  200   6.217   2.185   0.059
    1   AR   Ar  201   5.018   6.822   3.005
    1   AR   Ar  202   5.326   2.519   4.688
    1   AR   Ar  203   6.281   6.613   4.712
    1   AR   Ar  204   5.181   0.354   3.999
    1   AR   Ar  205   5.912   0.290   3.084
    1   AR   Ar  206   4.968   0.083   5.183
    1   AR   Ar  207   0.164   0.489   5.852
    1   AR   Ar  208   6.675   0.187   3.898
    1   AR   Ar  209   5.875   2.801  -1.969
    1   AR   Ar  210   4.235   1.037   1.151
    1   AR   Ar  211   0.162   3.413   0.205
    1   AR   Ar  212   6.345   3.878  -1.543
    1   AR   Ar  213   3.235   1.929   1.906
    1   AR   Ar  214   3.868   2.603   2.444
    1   AR   Ar  215   6.343   2.351   1.630
    1   AR   Ar  216   7.078   4.156   0.818
    1   AR   Ar  217   4.546   2.772   3.889
    1   AR   Ar  218   4.328   2.644   5.222
    1   AR   Ar  219   5.549   2.120   3.524
    1   AR   Ar  220   5.395   3.084   2.533
    1   AR   Ar  221   5.998   0.610   4.825
    1   AR   Ar  222   4.955   1.990   6.228
    1   AR   Ar  223   0.733   0.670   6.761
    1   AR   Ar  224   4.986   3.009   6.025
    1   AR   Ar  225   6.079   4.651   1.204
    1   AR   Ar  226   4.509   4.238   2.179
    1   AR   Ar  227   0.531   5.230   0.420
    1   AR   Ar  228   5.147   5.849   1.384
    1   AR   Ar  229   6.203   3.934   0.111
    1   AR   Ar  230   4.423   4.414   3.306
    1   AR   Ar  231   6.451   1.911   2.996
    1   AR   Ar  232   4.144   2.778   0.679
    1   AR   Ar  233   6.202   2.880   4.447
    1   AR   Ar  234   7.063   3.178   5.004
    1   AR   Ar  235   0.325   2.413   4.135
    1   AR   Ar  236   5.411   4.910   4.967
    1   AR   Ar  237   5.777   3.867   5.113
    1   AR   Ar  238   4.683   3.761   5.320
    1   AR   Ar  239   6.814   3.933   8.859
    1   AR   Ar  240   6.242   3.608   6.050
    1   AR   Ar  241   0.578   7.099   0.024
    1   AR   Ar  242   4.503   4.705   0.227
    1   AR   Ar  243   5.663   4.046   2.960
    1   AR   Ar  244   1.262   5.099  -0.500
    1   AR   Ar  245   5.810   0.185   1.124
    1   AR   Ar  246   6.146   6.026   1.335
    1   AR   Ar  247   4.532   3.833   1.132
    1   AR   Ar  248   5.637   6.265   0.109
    1   AR   Ar  249   4.820   5.649   2.646
    1   AR   Ar  250   5.239   6.183   4.801
    1   AR   Ar  251   6.003   5.498   4.218
    1   AR   Ar  252   4.942   5.915   3.618
    1   AR   Ar  253   5.283   4.082   6.245
    1   AR   Ar  254   4.098   5.543   7.118
    1   AR   Ar  255   4.788   3.209   7.083
    1   AR   Ar  256   5.695   6.493   3.769
    7.12000  7.12000 12.00000
Argon-slab step 2380
  256
    1   AR   Ar    1   6.644   1.323  -0.451
    1   AR   Ar    2   6.781   0.037   0.997
    1   AR   Ar    3   1.104   0.340   1.231
    1   AR   Ar    4   1.507   0.318  -0.511
    1   AR   Ar    5   6.902   6.030   0.439
    1   AR   Ar    6   6.944   0.590   2.771
    1   AR   Ar    7   6.459   4.703   3.361
    1   AR   Ar    8   6.615   6.904   2.027
    1   AR   Ar    9   0.901   0.446   3.820
    1   AR   Ar   10   0.973   1.462   4.384
    1   AR   Ar   11   3.169   0.143   4.800
    1   AR   Ar   12   0.828   1.339   3.239
    1   AR   Ar   13   7.072   0.903   4.656
    1   AR   Ar   14   1.267   1.333   7.269
    1   AR   Ar   15   6.438   0.274   9.226
    1   AR   Ar   16   1.027   0.740   5.306
    1   AR   Ar   17   1.228   1.846  -0.130
    1   AR   Ar   18   6.190   3.041  -0.926
    1   AR   Ar   19   1.603   2.731   1.696
    1   AR   Ar   20   5.522   3.657  -2.475
    1   AR   Ar   21   6.144   0.802   2.093
    1   AR   Ar   22   7.063   1.748   2.178
    1   AR   Ar   23   0.732   1.028   0.454
    1   AR   Ar   24   0.197   2.561   0.791
    1   AR   Ar   25   6.995   1.319   3.674
    1   AR   Ar   26   5.890   1.204   3.957
    1   AR   Ar   27   1.960   1.423   3.856
    1   AR   Ar   28   1.411   2.890   4.741
    1   AR   Ar   29   5.734   2.108   7.168
    1   AR   Ar   30   0.601   1.922   6.338
    1   AR   Ar   31   1.092   6.420   7.376
    1   AR   Ar   32   1.649   2.456   6.283
    1   AR   Ar   33   1.483   4.140  -0.744
    1   AR   Ar   34   0.186   5.404   2.958
    1   AR   Ar   35   6.575   4.920   2.260
    1   AR   Ar   36   0.158   0.469  -3.414
    1   AR   Ar   37   6.643   3.442   2.225
    1   AR   Ar   38   0.270   4.435   2.748
    1   AR   Ar   39   1.291   3.818   2.917
    1   AR   Ar   40   1.433   3.800   1.037
    1   AR   Ar   41   0.339   2.453   2.901
    1   AR   Ar   42   6.746   5.701   5.076
    1   AR   Ar   43   6.680   2.407   6.023
    1   AR   Ar   44   0.389   4.369   3.690
    1   AR   Ar   45   0.838   2.879   5.580
    1   AR   Ar   46   1.425   5.767   6.246
    1   AR   Ar   47   6.038   3.131   6.970
    1   AR   Ar   48   7.100   6.546   6.412
    1   AR   Ar   49   6.002   0.057  -1.844
    1   AR   Ar   50   5.375   4.800   2.086
    1   AR   Ar   51   0.206   5.175   1.423
    1   AR   Ar   52   6.491   5.074  -1.495
    1   AR   Ar   53   5.626   6.503   2.287
    1   AR   Ar   54   6.854   6.423   3.059
    1   AR   Ar   55   5.708   5.375   3.008
    1   AR   Ar   56   0.589   6.880   2.004
    1   AR   Ar   57   6.068   2.994   3.229
    1   AR   Ar   58   7.001   5.381   3.936
    1   AR   Ar   59   1.906   5.245   5.362
    1   AR   Ar   60   0.236   6.309   4.034
    1   AR   Ar   61   6.162   4.907   5.716
    1   AR   Ar   62   0.857   5.753   5.138
    1   AR   Ar   63   2.297   5.985   6.704
    1   AR   Ar   64   1.315   6.885   5.924
    1   AR   Ar   65   3.892   7.086   0.809
    1   AR   Ar   66   1.368   1.417   1.266
    1   AR   Ar   67   3.214   6.274  -0.477
    1   AR   Ar   68   3.152   1.361  -1.483
    1   AR   Ar   69   2.574   1.245   0.904
    1   AR   Ar   70   0.750   0.805   2.322
    1   AR   Ar   71   3.304   1.157   2.729
    1   AR   Ar   72   3.518   0.639   1.924
    1   AR   Ar   73   2.800   0.015   3.642
    1   AR   Ar   74   2.108   0.889   4.777
    1   AR   Ar   75   3.550   1.267   5.144
    1   AR   Ar   76   2.330   1.091   1.961
    1   AR   Ar   77   2.398   6.230   5.673
    1   AR   Ar   78   2.013   6.944   6.708
    1   AR   Ar   79   3.686   6.913   6.401
    1   AR   Ar   80   3.118   5.551   6.151
    1   AR   Ar   81   2.293   1.557  -0.707
    1   AR   Ar   82   6.984   4.447  -0.180
    1   AR   Ar   83   1.604   2.277   0.686
    1   AR   Ar   84   0.442   3.706  -0.881
    1   AR   Ar   85   1.119   3.055   0.045
    1   AR   Ar   86   2.450   3.309   1.130
    1   AR   Ar   87   2.487   2.260   1.204
    1   AR   Ar   88   3.602   4.247   1.595
    1   AR   Ar   89   0.742   3.177   2.001
    1   AR   Ar   90   2.857   2.007   5.123
    1   AR   Ar   91   1.412   2.342   3.622
    1   AR   Ar   92   1.033   1.891   2.224
    1   AR   Ar   93   1.577   1.322   6.101
    1   AR   Ar   94   1.660   0.750   9.431
    1   AR   Ar   95   4.147   0.836   5.973
    1   AR   Ar   96   3.098   0.539   5.854
    1   AR   Ar   97   3.940   2.372  -1.319
    1   AR   Ar   98   2.686   4.849   2.071
    1   AR   Ar   99   0.030   2.226  -1.550
    1   AR   Ar  100   2.098   2.964  -0.257
    1   AR   Ar  101   2.545   4.384   1.013
    1   AR   Ar  102   3.614   3.559   3.423
    1   AR   Ar  103   1.480   4.766   0.564
    1   AR   Ar  104   2.909   2.808  -1.264
    1   AR   Ar  105   2.039   3.170   3.923
    1   AR   Ar  106   2.934   3.719   4.518
    1   AR   Ar  107   1.879   4.213   5.850
    1   AR   Ar  108   3.321   2.987   5.134
    1   AR   Ar  109   1.369   4.016   4.606
    1   AR   Ar  110   1.054   4.875   6.224
    1   AR   Ar  111   4.315   4.059   6.686
    1   AR   Ar  112   1.510   5.235   7.428
    1   AR   Ar  113   2.265   4.878  -0.051
    1   AR   Ar  114   2.653   4.622  -1.060
    1   AR   Ar  115   2.669   3.619  -0.759
    1   AR   Ar  116   5.258   5.890  -1.535
    1   AR   Ar  117   0.924   5.335   4.166
    1   AR   Ar  118   0.839   6.709   3.085
    1   AR   Ar  119   2.242   3.862   2.241
    1   AR   Ar  120   1.185   4.816   2.653
    1   AR   Ar  121   6.692   4.395   4.909
    1   AR   Ar  122   3.315   5.737   4.904
    1   AR   Ar  123   2.759   4.921   4.796
    1   AR   Ar  124   1.701   4.731   1.693
    1   AR   Ar  125   0.413   4.235   5.949
    1   AR   Ar  126   0.294   6.888   5.049
    1   AR   Ar  127   3.224   4.274   7.027
    1   AR   Ar  128   2.255   4.767   6.708
    1   AR   Ar  129   1.813   0.551   3.145
    1   AR   Ar  130   3.613   1.816  -2.453
    1   AR   Ar  131   4.877   0.382   0.613
    1   AR   Ar  132   2.025   2.137  -1.835
    1   AR   Ar  133   4.352   0.636   2.635
    1   AR   Ar  134   4.587   1.187   3.775
    1   AR   Ar  135   5.463   1.240   2.915
    1   AR   Ar  136   5.117   0.434   1.882
    1   AR   Ar  137   2.683   6.122   3.844
    1   AR   Ar  138   4.641   1.671   4.895
    1   AR   Ar  139   5.752   2.112   5.657
    1   AR   Ar  140   4.004   0.611   4.317
    1   AR   Ar  141   3.880   6.408   4.142
    1   AR   Ar  142   3.759   6.779   5.445
    1   AR   Ar  143   6.135   7.053   5.658
    1   AR   Ar  144   5.555   1.163   5.731
    1   AR   Ar  145   3.334   3.687   0.580
    1   AR   Ar  146   4.358   2.001   1.633
    1   AR   Ar  147   6.040   1.745  -1.316
    1   AR   Ar  148   4.344   3.775  -2.110
    1   AR   Ar  149   3.460   1.854   0.734
    1   AR   Ar  150   2.199   1.787   2.651
    1   AR   Ar  151   2.920   2.224   3.394
    1   AR   Ar  152   3.026   2.818   0.173
    1   AR   Ar  153   3.056   1.036   3.937
    1   AR   Ar  154   3.839   1.814   4.072
    1   AR   Ar  155   6.603   1.419   5.931
    1   AR   Ar  156   3.889   4.182   4.651
    1   AR   Ar  157   2.654   2.942   6.006
    1   AR   Ar  158   1.067   3.446   6.363
    1   AR   Ar  159   3.674   2.012   5.998
    1   AR   Ar  160   2.581   1.925   6.454
    1   AR   Ar  161   5.454   3.061   1.425
    1   AR   Ar  162   4.525   5.701  -0.693
    1   AR   Ar  163   5.587   2.917   0.381
    1   AR   Ar  164   3.869   5.644   1.705
    1   AR   Ar  165   3.421   3.155   1.585
    1   AR   Ar  166   2.925   4.603   3.581
    1   AR   Ar  167   4.171   1.643   2.719
    1   AR   Ar  168   4.828   3.227  -0.745
    1   AR   Ar  169   2.427   2.765   2.130
    1   AR   Ar  170   3.045   4.020   5.713
    1   AR   Ar  171   5.254   3.832   4.052
    1   AR   Ar  172   4.572   5.503   4.499
    1   AR   Ar  173   2.045   3.757   6.842
    1   AR   Ar  174   3.889   4.921   6.222
    1   AR   Ar  175   3.939   3.215   5.945
    1   AR   Ar  176   3.708   4.915   5.294
    1   AR   Ar  177   6.252   5.148   0.187
    1   AR   Ar  178   2.752   5.637   0.480
    1   AR   Ar  179   4.258   5.793   0.684
    1   AR   Ar  180   1.869   3.277  -1.458
    1   AR   Ar  181   1.217   5.796   1.000
    1   AR   Ar  182   2.655   0.233   2.617
    1   AR   Ar  183   3.813   4.945   2.618
    1   AR   Ar  184   4.464   6.606   1.654
    1   AR   Ar  185   2.080   5.235   3.950
    1   AR   Ar  186   3.769   5.590   3.488
    1   AR   Ar  187   3.734   6.687   2.840
    1   AR   Ar  188   3.136   6.267   1.313
    1   AR   Ar  189   3.362   3.333   6.738
    1   AR   Ar  190   5.078   6.522   5.905
    1   AR   Ar  191   4.830   5.162   5.820
    1   AR   Ar  192   4.186   5.904   5.664
    1   AR   Ar  193   0.908   6.610  -1.228
    1   AR   Ar  194   5.260   3.993  -1.515
    1   AR   Ar  195   6.673   0.388  -0.010
    1   AR   Ar  196   4.795   6.759  -0.500
    1   AR   Ar  197   5.481   1.372   0.409
    1   AR   Ar  198   6.965   1.378   1.162
    1   AR   Ar  199   5.376   1.462   1.786
    1   AR   Ar  200   6.245   2.176   0.067
    1   AR   Ar  201   5.004   6.836   2.985
    1   AR   Ar  202   5.338   2.524   4.709
    1   AR   Ar  203   6.243   6.654   4.705
    1   AR   Ar  204   5.193   0.360   3.989
    1   AR   Ar  205   5.919   0.256   3.109
    1   AR   Ar  206   4.970   0.118   5.186
    1   AR   Ar  207   0.204   0.467   5.838
    1   AR   Ar  208   6.648   0.162   3.910
    1   AR   Ar  209   5.886   2.815  -1.966
    1   AR   Ar  210   4.269   1.047   1.146
    1   AR   Ar  211   0.154   3.431   0.213
    1   AR   Ar  212   6.330   3.909  -1.562
    1   AR   Ar  213   3.237   1.956   1.904
    1   AR   Ar  214   3.869   2.597   2.435
    1   AR   Ar  215   6.365   2.320   1.636
    1   AR   Ar  216   7.109   4.145   0.820
    1   AR   Ar  217   4.581   2.757   3.872
    1   AR   Ar  218   4.334   2.638   5.202
    1   AR   Ar  219   5.473   2.124   3.527
    1   AR   Ar  220   5.362   3.112   2.512
    1   AR   Ar  221   6.002   0.600   4.836
    1   AR   Ar  222   4.940   1.966   6.250
    1   AR   Ar  223   0.745   0.684   6.748
    1   AR   Ar  224   4.983   2.993   6.032
    1   AR   Ar  225   6.078   4.647   1.170
    1   AR   Ar  226   4.512   4.239   2.162
    1   AR   Ar  227   0.539   5.225   0.394
    1   AR   Ar  228   5.153   5.869   1.361
    1   AR   Ar  229   6.206   3.975   0.090
    1   AR   Ar  230   4.426   4.412   3.337
    1   AR   Ar  231   6.441   1.889   3.046
    1   AR   Ar  232   4.129   2.775   0.700
    1   AR   Ar  233   6.225   2.859   4.436
    1   AR   Ar  234   7.044   3.190   5.013
    1   AR   Ar  235   0.316   2.408   4.142
    1   AR   Ar  236   5.398   4.920   4.987
    1   AR   Ar  237   5.798   3.875   5.119
    1   AR   Ar  238   4.726   3.760   5.304
    1   AR   Ar  239   6.820   3.951   8.880
    1   AR   Ar  240   6.225   3.609   6.063
    1   AR   Ar  241   0.574   7.093   0.017
    1   AR   Ar  242   4.527   4.723   0.213
    1   AR   Ar  243   5.690   4.058   2.946
    1   AR   Ar  244   1.282   5.088  -0.497
    1   AR   Ar  245   5.800   0.189   1.117
    1   AR   Ar  246   6.161   5.999   1.326
    1   AR   Ar  247   4.539   3.857   1.152
    1   AR   Ar  248   5.631   6.260   0.083
    1   AR   Ar  249   4.813   5.667   2.636
    1   AR   Ar  250   5.220   6.203   4.810
    1   AR   Ar  251   5.995   5.483   4.174
    1   AR   Ar  252   4.934   5.876   3.589
    1   AR   Ar  253   5.287   4.068   6.241
    1   AR   Ar  254   4.110   5.533   7.134
    1   AR   Ar  255   4.800   3.187   7.114
    1   AR   Ar  256   5.717   6.476   3.786
    7.12000  7.12000 12.00000
Argon-slab step 2385
  256
    1   AR   Ar    1   6.642   1.324  -0.467
    1   AR   Ar    2   6.788   0.033   1.015
    1   AR   Ar    3   1.086   0.384   1.218
    1   AR   Ar    4   1.524   0.327  -0.507
    1   AR   Ar    5   6.885   6.045   0.408
    1   AR   Ar    6   6.915   0.596   2.778
    1   AR   Ar    7   6.456   4.720   3.378
    1   AR   Ar    8   6.621   6.917   2.038
    1   AR   Ar    9   0.885   0.464   3.818
    1   AR   Ar   10   0.964   1.466   4.353
    1   AR   Ar   11   3.142   0.129   4.800
    1   AR   Ar   12   0.818   1.326   3.242
    1   AR   Ar   13   7.042   0.904   4.662
    1   AR   Ar   14   1.270   1.317   7.272
    1   AR   Ar   15   6.423   0.291   9.244
    1   AR   Ar   16   1.053   0.716   5.288
    1   AR   Ar   17   1.230   1.846  -0.134
    1   AR   Ar   18   6.153   2.987  -0.905
    1   AR   Ar   19   1.606   2.734   1.719
    1   AR   Ar   20   5.527   3.685  -2.483
    1   AR   Ar   21   6.126   0.803   2.084
    1   AR   Ar   22   7.060   1.789   2.179
    1   AR   Ar   23   0.711   0.999   0.442
    1   AR   Ar   24   0.184   2.582   0.808
    1   AR   Ar   25   6.995   1.317   3.673
    1   AR   Ar   26   5.919   1.186   3.962
    1   AR   Ar   27   1.931   1.429   3.855
    1   AR   Ar   28   1.426   2.875   4.699
    1   AR   Ar   29   5.758   2.133   7.174
    1   AR   Ar   30   0.611   1.927   6.355
    1   AR   Ar   31   1.112   6.426   7.373
    1   AR   Ar   32   1.619   2.453   6.301
    1   AR   Ar   33   1.461   4.140  -0.692
    1   AR   Ar   34   0.199   5.421   2.942
    1   AR   Ar   35   6.615   4.896   2.271
    1   AR   Ar   36   0.171   0.476  -3.414
    1   AR   Ar   37   6.615   3.418   2.245
    1   AR   Ar   38   0.246   4.448   2.723
    1   AR   Ar   39   1.291   3.798   2.942
    1   AR   Ar   40   1.425   3.783   1.024
    1   AR   Ar   41   0.325   2.471   2.911
    1   AR   Ar   42   6.729   5.680   5.097
    1   AR   Ar   43   6.668   2.411   6.008
    1   AR   Ar   44   0.380   4.388   3.690
    1   AR   Ar   45   0.833   2.891   5.553
    1   AR   Ar   46   1.453   5.756   6.234
    1   AR   Ar   47   6.018   3.151   6.936
    1   AR   Ar   48   7.099   6.547   6.430
    1   AR   Ar   49   5.999   0.066  -1.804
    1   AR   Ar   50   5.377   4.808   2.122
    1   AR   Ar   51   0.199   5.150   1.439
    1   AR   Ar   52   6.437   5.059  -1.494
    1   AR   Ar   53   5.634   6.499   2.276
    1   AR   Ar   54   6.828   6.430   3.023
    1   AR   Ar   55   5.695   5.357   3.030
    1   AR   Ar   56   0.575   6.905   2.002
    1   AR   Ar   57   6.032   2.985   3.226
    1   AR   Ar   58   6.998   5.327   3.945
    1   AR   Ar   59   1.912   5.255   5.359
    1   AR   Ar   60   0.231   6.323   4.020
    1   AR   Ar   61   6.184   4.848   5.746
    1   AR   Ar   62   0.861   5.762   5.149
    1   AR   Ar   63   2.336   5.976   6.715
    1   AR   Ar   64   1.347   6.874   5.937
    1   AR   Ar   65   3.880   7.052   0.796
    1   AR   Ar   66   1.334   1.427   1.258
    1   AR   Ar   67   3.214   6.247  -0.481
    1   AR   Ar   68   3.168   1.370  -1.494
    1   AR   Ar   69   2.547   1.236   0.894
    1   AR   Ar   70   0.728   0.813   2.340
    1   AR   Ar   71   3.288   1.162   2.709
    1   AR   Ar   72   3.525   0.654   1.911
    1   AR   Ar   73   2.791   7.108   3.659
    1   AR   Ar   74   2.092   0.874   4.788
    1   AR   Ar   75   3.568   1.277   5.151
    1   AR   Ar   76   2.304   1.086   1.933
    1   AR   Ar   77   2.389   6.219   5.675
    1   AR   Ar   78   2.011   6.959   6.707
    1   AR   Ar   79   3.707   6.936   6.410
    1   AR   Ar   80   3.131   5.537   6.148
    1   AR   Ar   81   2.255   1.555  -0.684
    1   AR   Ar   82   7.006   4.481  -0.213
    1   AR   Ar   83   1.609   2.264   0.732
    1   AR   Ar   84   0.396   3.739  -0.865
    1   AR   Ar   85   1.118   3.083   0.049
    1   AR   Ar   86   2.461   3.304   1.126
    1   AR   Ar   87   2.477   2.262   1.198
    1   AR   Ar   88   3.593   4.230   1.607
    1   AR   Ar   89   0.728   3.157   1.997
    1   AR   Ar   90   2.861   2.025   5.142
    1   AR   Ar   91   1.407   2.336   3.641
    1   AR   Ar   92   1.011   1.933   2.211
    1   AR   Ar   93   1.593   1.292   6.119
    1   AR   Ar   94   1.638   0.733   9.440
    1   AR   Ar   95   4.102   0.844   5.964
    1   AR   Ar   96   3.099   0.560   5.825
    1   AR   Ar   97   3.920   2.361  -1.322
    1   AR   Ar   98   2.645   4.855   2.102
    1   AR   Ar   99   0.018   2.195  -1.552
    1   AR   Ar  100   2.090   2.937  -0.252
    1   AR   Ar  101   2.535   4.402   1.032
    1   AR   Ar  102   3.616   3.547   3.439
    1   AR   Ar  103   1.462   4.747   0.547
    1   AR   Ar  104   2.932   2.801  -1.279
    1   AR   Ar  105   2.057   3.180   3.979
    1   AR   Ar  106   2.939   3.726   4.574
    1   AR   Ar  107   1.864   4.201   5.881
    1   AR   Ar  108   3.323   3.000   5.115
    1   AR   Ar  109   1.375   4.010   4.626
    1   AR   Ar  110   1.043   4.854   6.218
    1   AR   Ar  111   4.322   4.071   6.684
    1   AR   Ar  112   1.533   5.236   7.433
    1   AR   Ar  113   2.295   4.857  -0.022
    1   AR   Ar  114   2.668   4.643  -1.035
    1   AR   Ar  115   2.692   3.653  -0.770
    1   AR   Ar  116   5.267   5.919  -1.561
    1   AR   Ar  117   0.930   5.338   4.140
    1   AR   Ar  118   0.847   6.700   3.060
    1   AR   Ar  119   2.274   3.852   2.235
    1   AR   Ar  120   1.177   4.844   2.669
    1   AR   Ar  121   6.704   4.395   4.858
    1   AR   Ar  122   3.303   5.758   4.926
    1   AR   Ar  123   2.750   4.897   4.790
    1   AR   Ar  124   1.707   4.711   1.683
    1   AR   Ar  125   0.400   4.216   5.941
    1   AR   Ar  126   0.312   6.905   5.013
    1   AR   Ar  127   3.206   4.249   7.037
    1   AR   Ar  128   2.275   4.736   6.694
    1   AR   Ar  129   1.833   0.543   3.121
    1   AR   Ar  130   3.632   1.825  -2.416
    1   AR   Ar  131   4.877   0.397   0.615
    1   AR   Ar  132   1.998   2.114  -1.817
    1   AR   Ar  133   4.351   0.649   2.608
    1   AR   Ar  134   4.617   1.207   3.789
    1   AR   Ar  135   5.490   1.253   2.877
    1   AR   Ar  136   5.139   0.429   1.854
    1   AR   Ar  137   2.692   6.109   3.855
    1   AR   Ar  138   4.641   1.689   4.929
    1   AR   Ar  139   5.720   2.155   5.640
    1   AR   Ar  140   4.003   0.570   4.328
    1   AR   Ar  141   3.888   6.416   4.138
    1   AR   Ar  142   3.750   6.784   5.419
    1   AR   Ar  143   6.139   7.039   5.672
    1   AR   Ar  144   5.567   1.161   5.727
    1   AR   Ar  145   3.332   3.712   0.625
    1   AR   Ar  146   4.377   1.984   1.626
    1   AR   Ar  147   6.044   1.759  -1.327
    1   AR   Ar  148   4.309   3.780  -2.097
    1   AR   Ar  149   3.486   1.873   0.768
    1   AR   Ar  150   2.210   1.781   2.620
    1   AR   Ar  151   2.917   2.222   3.364
    1   AR   Ar  152   3.043   2.804   0.191
    1   AR   Ar  153   3.060   1.009   3.945
    1   AR   Ar  154   3.845   1.821   4.077
    1   AR   Ar  155   6.636   1.432   5.935
    1   AR   Ar  156   3.910   4.181   4.678
    1   AR   Ar  157   2.641   2.908   6.050
    1   AR   Ar  158   1.065   3.436   6.369
    1   AR   Ar  159   3.716   1.989   5.977
    1   AR   Ar  160   2.593   1.923   6.457
    1   AR   Ar  161   5.463   3.064   1.435
    1   AR   Ar  162   4.519   5.731  -0.699
    1   AR   Ar  163   5.599   2.921   0.356
    1   AR   Ar  164   3.884   5.652   1.702
    1   AR   Ar  165   3.390   3.159   1.615
    1   AR   Ar  166   2.914   4.597   3.587
    1   AR   Ar  167   4.174   1.639   2.712
    1   AR   Ar  168   4.843   3.223  -0.771
    1   AR   Ar  169   2.449   2.745   2.137
    1   AR   Ar  170   3.047   4.022   5.738
    1   AR   Ar  171   5.234   3.844   4.014
    1   AR   Ar  172   4.569   5.477   4.481
    1   AR   Ar  173   2.069   3.789   6.850
    1   AR   Ar  174   3.874   4.921   6.246
    1   AR   Ar  175   3.907   3.195   5.974
    1   AR   Ar  176   3.695   4.918   5.291
    1   AR   Ar  177   6.251   5.124   0.202
    1   AR   Ar  178   2.766   5.626   0.431
    1   AR   Ar  179   4.240   5.779   0.720
    1   AR   Ar  180   1.840   3.249  -1.488
    1   AR   Ar  181   1.188   5.808   0.987
    1   AR   Ar  182   2.679   0.236   2.579
    1   AR   Ar  183   3.786   4.955   2.609
    1   AR   Ar  184   4.464   6.592   1.644
    1   AR   Ar  185   2.089   5.239   3.989
    1   AR   Ar  186   3.793   5.621   3.541
    1   AR   Ar  187   3.776   6.682   2.860
    1   AR   Ar  188   3.143   6.314   1.324
    1   AR   Ar  189   3.357   3.321   6.771
    1   AR   Ar  190   5.068   6.534   5.937
    1   AR   Ar  191   4.874   5.146   5.813
    1   AR   Ar  192   4.179   5.910   5.638
    1   AR   Ar  193   0.930   6.613  -1.223
    1   AR   Ar  194   5.242   4.011  -1.502
    1   AR   Ar  195   6.656   0.381   0.010
    1   AR   Ar  196   4.804   6.757  -0.514
    1   AR   Ar  197   5.459   1.381   0.428
    1   AR   Ar  198   6.961   1.397   1.161
    1   AR   Ar  199   5.377   1.471   1.802
    1   AR   Ar  200   6.275   2.165   0.076
    1   AR   Ar  201   4.980   6.854   2.970
    1   AR   Ar  202   5.338   2.526   4.732
    1   AR   Ar  203   6.207   6.692   4.695
    1   AR   Ar  204   5.207   0.361   3.980
    1   AR   Ar  205   5.928   0.221   3.133
    1   AR   Ar  206   4.972   0.158   5.184
    1   AR   Ar  207   0.237   0.445   5.827
    1   AR   Ar  208   6.621   0.138   3.921
    1   AR   Ar  209   5.868   2.803  -1.990
    1   AR   Ar  210   4.300   1.058   1.143
    1   AR   Ar  211   0.146   3.438   0.206
    1   AR   Ar  212   6.324   3.925  -1.588
    1   AR   Ar  213   3.237   1.979   1.901
    1   AR   Ar  214   3.870   2.596   2.428
    1   AR   Ar  215   6.384   2.292   1.640
    1   AR   Ar  216   0.015   4.151   0.839
    1   AR   Ar  217   4.616   2.742   3.856
    1   AR   Ar  218   4.344   2.629   5.179
    1   AR   Ar  219   5.395   2.129   3.532
    1   AR   Ar  220   5.324   3.140   2.486
    1   AR   Ar  221   6.005   0.592   4.845
    1   AR   Ar  222   4.942   1.965   6.292
    1   AR   Ar  223   0.752   0.691   6.727
    1   AR   Ar  224   4.983   2.979   6.038
    1   AR   Ar  225   6.077   4.643   1.138
    1   AR   Ar  226   4.515   4.241   2.159
    1   AR   Ar  227   0.544   5.218   0.366
    1   AR   Ar  228   5.155   5.885   1.340
    1   AR   Ar  229   6.192   4.004   0.075
    1   AR   Ar  230   4.430   4.410   3.369
    1   AR   Ar  231   6.425   1.870   3.092
    1   AR   Ar  232   4.113   2.774   0.723
    1   AR   Ar  233   6.255   2.842   4.419
    1   AR   Ar  234   7.027   3.203   5.025
    1   AR   Ar  235   0.308   2.402   4.148
    1   AR   Ar  236   5.386   4.928   5.000
    1   AR   Ar  237   5.816   3.881   5.125
    1   AR   Ar  238   4.767   3.760   5.287
    1   AR   Ar  239   6.826   3.970   8.901
    1   AR   Ar  240   6.212   3.610   6.072
    1   AR   Ar  241   0.570   7.087   0.011
    1   AR   Ar  242   4.552   4.741   0.200
    1   AR   Ar  243   5.708   4.079   2.933
    1   AR   Ar  244   1.300   5.086  -0.490
    1   AR   Ar  245   5.786   0.193   1.112
    1   AR   Ar  246   6.160   6.007   1.336
    1   AR   Ar  247   4.545   3.878   1.169
    1   AR   Ar  248   5.630   6.254   0.054
    1   AR   Ar  249   4.798   5.686   2.610
    1   AR   Ar  250   5.206   6.227   4.820
    1   AR   Ar  251   6.009   5.441   4.182
    1   AR   Ar  252   4.920   5.836   3.569
    1   AR   Ar  253   5.290   4.054   6.235
    1   AR   Ar  254   4.121   5.523   7.147
    1   AR   Ar  255   4.814   3.165   7.145
    1   AR   Ar  256   5.746   6.464   3.803
    7.12000  7.12000 12.00000
Argon-slab step 2390
  256
    1   AR   Ar    1   6.631   1.311  -0.495
    1   AR   Ar    2   6.804   0.028   1.032
    1   AR   Ar    3   1.067   0.425   1.207
    1   AR   Ar    4   1.540   0.336  -0.503
    1   AR   Ar    5   6.880   6.041   0.398
    1   AR   Ar    6   6.872   0.603   2.781
    1   AR   Ar    7   6.451   4.728   3.390
    1   AR   Ar    8   6.623   6.928   2.053
    1   AR   Ar    9   0.867   0.479   3.818
    1   AR   Ar   10   0.953   1.469   4.323
    1   AR   Ar   11   3.106   0.121   4.791
    1   AR   Ar   12   0.812   1.320   3.244
    1   AR   Ar   13   7.014   0.903   4.669
    1   AR   Ar   14   1.280   1.311   7.280
    1   AR   Ar   15   6.409   0.308   9.262
    1   AR   Ar   16   1.084   0.695   5.266
    1   AR   Ar   17   1.215   1.847  -0.133
    1   AR   Ar   18   6.116   2.932  -0.884
    1   AR   Ar   19   1.592   2.736   1.728
    1   AR   Ar   20   5.531   3.715  -2.493
    1   AR   Ar   21   6.111   0.802   2.076
    1   AR   Ar   22   7.062   1.821   2.184
    1   AR   Ar   23   0.687   0.973   0.428
    1   AR   Ar   24   0.171   2.598   0.827
    1   AR   Ar   25   7.007   1.315   3.676
    1   AR   Ar   26   5.948   1.169   3.964
    1   AR   Ar   27   1.904   1.433   3.851
    1   AR   Ar   28   1.436   2.856   4.660
    1   AR   Ar   29   5.780   2.156   7.179
    1   AR   Ar   30   0.621   1.931   6.371
    1   AR   Ar   31   1.132   6.432   7.368
    1   AR   Ar   32   1.589   2.451   6.318
    1   AR   Ar   33   1.442   4.125  -0.642
    1   AR   Ar   34   0.213   5.447   2.928
    1   AR   Ar   35   6.642   4.878   2.275
    1   AR   Ar   36   0.184   0.483  -3.414
    1   AR   Ar   37   6.587   3.394   2.267
    1   AR   Ar   38   0.224   4.443   2.688
    1   AR   Ar   39   1.290   3.776   2.967
    1   AR   Ar   40   1.413   3.770   1.013
    1   AR   Ar   41   0.312   2.490   2.924
    1   AR   Ar   42   6.712   5.659   5.115
    1   AR   Ar   43   6.659   2.430   5.995
    1   AR   Ar   44   0.374   4.406   3.704
    1   AR   Ar   45   0.823   2.898   5.524
    1   AR   Ar   46   1.481   5.756   6.221
    1   AR   Ar   47   5.996   3.167   6.909
    1   AR   Ar   48   7.100   6.550   6.445
    1   AR   Ar   49   5.995   0.075  -1.764
    1   AR   Ar   50   5.383   4.820   2.158
    1   AR   Ar   51   0.192   5.125   1.454
    1   AR   Ar   52   6.382   5.043  -1.493
    1   AR   Ar   53   5.645   6.492   2.261
    1   AR   Ar   54   6.801   6.438   2.989
    1   AR   Ar   55   5.687   5.340   3.051
    1   AR   Ar   56   0.560   6.930   2.000
    1   AR   Ar   57   5.999   2.976   3.225
    1   AR   Ar   58   7.002   5.277   3.962
    1   AR   Ar   59   1.916   5.264   5.358
    1   AR   Ar   60   0.226   6.340   4.006
    1   AR   Ar   61   6.206   4.787   5.776
    1   AR   Ar   62   0.864   5.770   5.162
    1   AR   Ar   63   2.379   5.962   6.732
    1   AR   Ar   64   1.365   6.865   5.934
    1   AR   Ar   65   3.868   7.017   0.785
    1   AR   Ar   66   1.299   1.435   1.254
    1   AR   Ar   67   3.214   6.219  -0.485
    1   AR   Ar   68   3.183   1.382  -1.504
    1   AR   Ar   69   2.562   1.212   0.883
    1   AR   Ar   70   0.709   0.822   2.352
    1   AR   Ar   71   3.260   1.172   2.702
    1   AR   Ar   72   3.534   0.663   1.884
    1   AR   Ar   73   2.784   7.086   3.676
    1   AR   Ar   74   2.078   0.859   4.799
    1   AR   Ar   75   3.598   1.279   5.157
    1   AR   Ar   76   2.280   1.073   1.897
    1   AR   Ar   77   2.377   6.216   5.670
    1   AR   Ar   78   1.972   6.977   6.706
    1   AR   Ar   79   3.729   6.961   6.427
    1   AR   Ar   80   3.133   5.532   6.141
    1   AR   Ar   81   2.218   1.554  -0.662
    1   AR   Ar   82   7.039   4.520  -0.251
    1   AR   Ar   83   1.607   2.258   0.773
    1   AR   Ar   84   0.377   3.770  -0.848
    1   AR   Ar   85   1.122   3.104   0.053
    1   AR   Ar   86   2.445   3.264   1.120
    1   AR   Ar   87   2.479   2.262   1.195
    1   AR   Ar   88   3.581   4.215   1.619
    1   AR   Ar   89   0.707   3.139   1.996
    1   AR   Ar   90   2.861   2.046   5.161
    1   AR   Ar   91   1.398   2.330   3.660
    1   AR   Ar   92   0.991   1.973   2.199
    1   AR   Ar   93   1.609   1.263   6.138
    1   AR   Ar   94   1.616   0.716   9.449
    1   AR   Ar   95   4.063   0.851   5.955
    1   AR   Ar   96   3.096   0.580   5.796
    1   AR   Ar   97   3.902   2.349  -1.326
    1   AR   Ar   98   2.609   4.863   2.135
    1   AR   Ar   99   0.003   2.163  -1.554
    1   AR   Ar  100   2.083   2.906  -0.248
    1   AR   Ar  101   2.536   4.412   1.009
    1   AR   Ar  102   3.619   3.535   3.456
    1   AR   Ar  103   1.448   4.726   0.521
    1   AR   Ar  104   2.953   2.788  -1.297
    1   AR   Ar  105   2.081   3.194   4.029
    1   AR   Ar  106   2.937   3.743   4.623
    1   AR   Ar  107   1.849   4.188   5.907
    1   AR   Ar  108   3.329   3.005   5.102
    1   AR   Ar  109   1.382   4.004   4.647
    1   AR   Ar  110   1.045   4.839   6.219
    1   AR   Ar  111   4.327   4.081   6.682
    1   AR   Ar  112   1.558   5.239   7.435
    1   AR   Ar  113   2.327   4.830   0.001
    1   AR   Ar  114   2.683   4.670  -1.011
    1   AR   Ar  115   2.715   3.688  -0.777
    1   AR   Ar  116   5.276   5.948  -1.586
    1   AR   Ar  117   0.939   5.340   4.112
    1   AR   Ar  118   0.854   6.692   3.038
    1   AR   Ar  119   2.305   3.841   2.228
    1   AR   Ar  120   1.175   4.875   2.686
    1   AR   Ar  121   6.719   4.396   4.805
    1   AR   Ar  122   3.288   5.782   4.944
    1   AR   Ar  123   2.739   4.866   4.781
    1   AR   Ar  124   1.709   4.691   1.670
    1   AR   Ar  125   0.370   4.181   5.924
    1   AR   Ar  126   0.328   6.921   4.973
    1   AR   Ar  127   3.186   4.237   7.048
    1   AR   Ar  128   2.297   4.722   6.679
    1   AR   Ar  129   1.849   0.537   3.099
    1   AR   Ar  130   3.650   1.834  -2.378
    1   AR   Ar  131   4.854   0.410   0.594
    1   AR   Ar  132   1.972   2.091  -1.797
    1   AR   Ar  133   4.353   0.655   2.582
    1   AR   Ar  134   4.653   1.231   3.798
    1   AR   Ar  135   5.514   1.265   2.841
    1   AR   Ar  136   5.155   0.423   1.830
    1   AR   Ar  137   2.704   6.091   3.868
    1   AR   Ar  138   4.642   1.700   4.961
    1   AR   Ar  139   5.690   2.206   5.621
    1   AR   Ar  140   4.001   0.525   4.343
    1   AR   Ar  141   3.896   6.433   4.141
    1   AR   Ar  142   3.745   6.790   5.389
    1   AR   Ar  143   6.144   7.025   5.690
    1   AR   Ar  144   5.555   1.124   5.730
    1   AR   Ar  145   3.332   3.740   0.671
    1   AR   Ar  146   4.396   1.970   1.620
    1   AR   Ar  147   6.050   1.775  -1.338
    1   AR   Ar  148   4.275   3.785  -2.085
    1   AR   Ar  149   3.511   1.893   0.804
    1   AR   Ar  150   2.219   1.782   2.598
    1   AR   Ar  151   2.914   2.220   3.334
    1   AR   Ar  152   3.060   2.787   0.211
    1   AR   Ar  153   3.064   0.984   3.952
    1   AR   Ar  154   3.846   1.832   4.085
    1   AR   Ar  155   6.668   1.431   5.937
    1   AR   Ar  156   3.934   4.171   4.696
    1   AR   Ar  157   2.629   2.878   6.091
    1   AR   Ar  158   1.063   3.433   6.390
    1   AR   Ar  159   3.736   1.982   5.957
    1   AR   Ar  160   2.605   1.919   6.458
    1   AR   Ar  161   5.473   3.066   1.444
    1   AR   Ar  162   4.513   5.759  -0.703
    1   AR   Ar  163   5.608   2.928   0.331
    1   AR   Ar  164   3.901   5.657   1.703
    1   AR   Ar  165   3.361   3.160   1.644
    1   AR   Ar  166   2.904   4.590   3.595
    1   AR   Ar  167   4.195   1.644   2.719
    1   AR   Ar  168   4.859   3.219  -0.798
    1   AR   Ar  169   2.495   2.727   2.157
    1   AR   Ar  170   3.050   4.025   5.763
    1   AR   Ar  171   5.213   3.856   3.977
    1   AR   Ar  172   4.559   5.448   4.466
    1   AR   Ar  173   2.092   3.807   6.861
    1   AR   Ar  174   3.871   4.914   6.285
    1   AR   Ar  175   3.861   3.161   6.009
    1   AR   Ar  176   3.683   4.923   5.286
    1   AR   Ar  177   6.251   5.104   0.217
    1   AR   Ar  178   2.783   5.621   0.387
    1   AR   Ar  179   4.222   5.767   0.753
    1   AR   Ar  180   1.812   3.221  -1.516
    1   AR   Ar  181   1.159   5.819   0.975
    1   AR   Ar  182   2.707   0.238   2.540
    1   AR   Ar  183   3.758   4.965   2.599
    1   AR   Ar  184   4.454   6.579   1.621
    1   AR   Ar  185   2.095   5.241   4.029
    1   AR   Ar  186   3.816   5.644   3.589
    1   AR   Ar  187   3.818   6.677   2.882
    1   AR   Ar  188   3.149   6.362   1.333
    1   AR   Ar  189   3.335   3.300   6.802
    1   AR   Ar  190   5.094   6.548   5.940
    1   AR   Ar  191   4.914   5.130   5.815
    1   AR   Ar  192   4.173   5.910   5.612
    1   AR   Ar  193   0.952   6.617  -1.218
    1   AR   Ar  194   5.242   4.023  -1.499
    1   AR   Ar  195   6.639   0.372   0.031
    1   AR   Ar  196   4.814   6.758  -0.528
    1   AR   Ar  197   5.437   1.390   0.447
    1   AR   Ar  198   6.997   1.392   1.190
    1   AR   Ar  199   5.376   1.486   1.815
    1   AR   Ar  200   6.307   2.155   0.085
    1   AR   Ar  201   4.950   6.872   2.961
    1   AR   Ar  202   5.332   2.530   4.745
    1   AR   Ar  203   6.174   6.724   4.689
    1   AR   Ar  204   5.222   0.357   3.972
    1   AR   Ar  205   5.918   0.228   3.129
    1   AR   Ar  206   4.975   0.201   5.178
    1   AR   Ar  207   0.261   0.422   5.819
    1   AR   Ar  208   6.599   0.116   3.931
    1   AR   Ar  209   5.844   2.783  -2.019
    1   AR   Ar  210   4.328   1.069   1.143
    1   AR   Ar  211   0.136   3.436   0.184
    1   AR   Ar  212   6.323   3.928  -1.619
    1   AR   Ar  213   3.236   1.997   1.897
    1   AR   Ar  214   3.865   2.599   2.431
    1   AR   Ar  215   6.396   2.268   1.639
    1   AR   Ar  216   0.039   4.173   0.870
    1   AR   Ar  217   4.647   2.730   3.843
    1   AR   Ar  218   4.353   2.626   5.156
    1   AR   Ar  219   5.321   2.130   3.538
    1   AR   Ar  220   5.283   3.169   2.460
    1   AR   Ar  221   6.007   0.585   4.854
    1   AR   Ar  222   4.939   1.961   6.338
    1   AR   Ar  223   0.755   0.689   6.698
    1   AR   Ar  224   4.992   2.959   6.033
    1   AR   Ar  225   6.078   4.638   1.108
    1   AR   Ar  226   4.515   4.242   2.161
    1   AR   Ar  227   0.543   5.211   0.335
    1   AR   Ar  228   5.153   5.896   1.319
    1   AR   Ar  229   6.168   4.025   0.066
    1   AR   Ar  230   4.435   4.409   3.401
    1   AR   Ar  231   6.402   1.858   3.131
    1   AR   Ar  232   4.096   2.775   0.747
    1   AR   Ar  233   6.288   2.825   4.397
    1   AR   Ar  234   7.011   3.218   5.039
    1   AR   Ar  235   0.300   2.396   4.154
    1   AR   Ar  236   5.380   4.933   5.002
    1   AR   Ar  237   5.833   3.887   5.128
    1   AR   Ar  238   4.805   3.760   5.270
    1   AR   Ar  239   6.833   3.989   8.921
    1   AR   Ar  240   6.206   3.612   6.072
    1   AR   Ar  241   0.566   7.080   0.006
    1   AR   Ar  242   4.576   4.759   0.188
    1   AR   Ar  243   5.726   4.099   2.919
    1   AR   Ar  244   1.314   5.096  -0.480
    1   AR   Ar  245   5.774   0.195   1.103
    1   AR   Ar  246   6.136   6.020   1.345
    1   AR   Ar  247   4.552   3.898   1.182
    1   AR   Ar  248   5.630   6.247   0.026
    1   AR   Ar  249   4.776   5.704   2.568
    1   AR   Ar  250   5.194   6.254   4.832
    1   AR   Ar  251   6.017   5.401   4.192
    1   AR   Ar  252   4.905   5.800   3.561
    1   AR   Ar  253   5.291   4.042   6.228
    1   AR   Ar  254   4.131   5.512   7.159
    1   AR   Ar  255   4.828   3.142   7.173
    1   AR   Ar  256   5.774   6.454   3.816
    7.12000  7.12000 12.00000
Argon-slab step 2395
  256
    1   AR   Ar    1   6.617   1.295  -0.525
    1   AR   Ar    2   6.824   0.024   1.005
    1   AR   Ar    3   1.049   0.460   1.201
    1   AR   Ar    4   1.555   0.346  -0.498
    1   AR   Ar    5   6.881   6.025   0.402
    1   AR   Ar    6   6.832   0.610   2.788
    1   AR   Ar    7   6.442   4.726   3.393
    1   AR   Ar    8   6.621   6.938   2.068
    1   AR   Ar    9   0.849   0.489   3.821
    1   AR   Ar   10   0.940   1.473   4.295
    1   AR   Ar   11   3.061   0.119   4.773
    1   AR   Ar   12   0.813   1.323   3.242
    1   AR   Ar   13   7.003   0.913   4.683
    1   AR   Ar   14   1.295   1.311   7.293
    1   AR   Ar   15   6.395   0.325   9.280
    1   AR   Ar   16   1.118   0.674   5.240
    1   AR   Ar   17   1.190   1.850  -0.130
    1   AR   Ar   18   6.092   2.900  -0.858
    1   AR   Ar   19   1.576   2.737   1.730
    1   AR   Ar   20   5.536   3.744  -2.504
    1   AR   Ar   21   6.101   0.799   2.066
    1   AR   Ar   22   7.072   1.843   2.200
    1   AR   Ar   23   0.660   0.950   0.410
    1   AR   Ar   24   0.148   2.598   0.848
    1   AR   Ar   25   7.030   1.310   3.685
    1   AR   Ar   26   5.978   1.154   3.962
    1   AR   Ar   27   1.881   1.433   3.846
    1   AR   Ar   28   1.436   2.830   4.629
    1   AR   Ar   29   5.800   2.178   7.183
    1   AR   Ar   30   0.631   1.934   6.387
    1   AR   Ar   31   1.154   6.437   7.360
    1   AR   Ar   32   1.560   2.448   6.334
    1   AR   Ar   33   1.426   4.099  -0.592
    1   AR   Ar   34   0.227   5.478   2.915
    1   AR   Ar   35   6.638   4.876   2.265
    1   AR   Ar   36   0.197   0.489  -3.414
    1   AR   Ar   37   6.559   3.370   2.289
    1   AR   Ar   38   0.224   4.415   2.661
    1   AR   Ar   39   1.281   3.776   2.977
    1   AR   Ar   40   1.403   3.754   1.003
    1   AR   Ar   41   0.299   2.510   2.940
    1   AR   Ar   42   6.695   5.637   5.131
    1   AR   Ar   43   6.652   2.460   5.983
    1   AR   Ar   44   0.371   4.421   3.722
    1   AR   Ar   45   0.811   2.903   5.495
    1   AR   Ar   46   1.511   5.762   6.207
    1   AR   Ar   47   5.968   3.178   6.892
    1   AR   Ar   48   7.101   6.554   6.459
    1   AR   Ar   49   5.991   0.083  -1.723
    1   AR   Ar   50   5.394   4.834   2.191
    1   AR   Ar   51   0.186   5.100   1.467
    1   AR   Ar   52   6.327   5.026  -1.492
    1   AR   Ar   53   5.656   6.484   2.244
    1   AR   Ar   54   6.773   6.447   2.958
    1   AR   Ar   55   5.680   5.324   3.072
    1   AR   Ar   56   0.547   6.953   1.996
    1   AR   Ar   57   5.969   2.967   3.227
    1   AR   Ar   58   7.016   5.240   3.991
    1   AR   Ar   59   1.919   5.272   5.357
    1   AR   Ar   60   0.234   6.335   4.011
    1   AR   Ar   61   6.227   4.725   5.805
    1   AR   Ar   62   0.867   5.780   5.176
    1   AR   Ar   63   2.421   5.947   6.753
    1   AR   Ar   64   1.343   6.866   5.881
    1   AR   Ar   65   3.857   6.983   0.774
    1   AR   Ar   66   1.264   1.441   1.255
    1   AR   Ar   67   3.214   6.190  -0.488
    1   AR   Ar   68   3.198   1.394  -1.513
    1   AR   Ar   69   2.577   1.188   0.870
    1   AR   Ar   70   0.691   0.831   2.359
    1   AR   Ar   71   3.225   1.187   2.703
    1   AR   Ar   72   3.544   0.667   1.848
    1   AR   Ar   73   2.778   7.072   3.691
    1   AR   Ar   74   2.064   0.845   4.811
    1   AR   Ar   75   3.628   1.281   5.153
    1   AR   Ar   76   2.256   1.054   1.858
    1   AR   Ar   77   2.361   6.243   5.641
    1   AR   Ar   78   1.937   6.995   6.712
    1   AR   Ar   79   3.749   6.985   6.445
    1   AR   Ar   80   3.128   5.533   6.128
    1   AR   Ar   81   2.180   1.554  -0.639
    1   AR   Ar   82   7.076   4.561  -0.288
    1   AR   Ar   83   1.598   2.265   0.787
    1   AR   Ar   84   0.400   3.793  -0.832
    1   AR   Ar   85   1.146   3.102   0.049
    1   AR   Ar   86   2.425   3.233   1.113
    1   AR   Ar   87   2.495   2.253   1.196
    1   AR   Ar   88   3.566   4.203   1.632
    1   AR   Ar   89   0.679   3.124   1.998
    1   AR   Ar   90   2.853   2.052   5.196
    1   AR   Ar   91   1.391   2.323   3.676
    1   AR   Ar   92   0.949   1.954   2.184
    1   AR   Ar   93   1.623   1.234   6.157
    1   AR   Ar   94   1.592   0.699   9.450
    1   AR   Ar   95   4.034   0.857   5.952
    1   AR   Ar   96   3.089   0.598   5.794
    1   AR   Ar   97   3.886   2.334  -1.331
    1   AR   Ar   98   2.581   4.872   2.169
    1   AR   Ar   99   7.108   2.133  -1.554
    1   AR   Ar  100   2.080   2.874  -0.246
    1   AR   Ar  101   2.537   4.423   0.987
    1   AR   Ar  102   3.622   3.524   3.474
    1   AR   Ar  103   1.438   4.702   0.491
    1   AR   Ar  104   2.969   2.774  -1.316
    1   AR   Ar  105   2.117   3.215   4.067
    1   AR   Ar  106   2.926   3.775   4.663
    1   AR   Ar  107   1.832   4.172   5.926
    1   AR   Ar  108   3.340   2.999   5.096
    1   AR   Ar  109   1.390   3.998   4.667
    1   AR   Ar  110   1.053   4.827   6.224
    1   AR   Ar  111   4.331   4.084   6.682
    1   AR   Ar  112   1.583   5.242   7.434
    1   AR   Ar  113   2.357   4.793   0.016
    1   AR   Ar  114   2.697   4.703  -0.989
    1   AR   Ar  115   2.735   3.717  -0.779
    1   AR   Ar  116   5.286   5.977  -1.610
    1   AR   Ar  117   0.948   5.343   4.084
    1   AR   Ar  118   0.859   6.684   3.016
    1   AR   Ar  119   2.335   3.827   2.219
    1   AR   Ar  120   1.175   4.908   2.703
    1   AR   Ar  121   6.735   4.400   4.752
    1   AR   Ar  122   3.260   5.775   4.949
    1   AR   Ar  123   2.730   4.831   4.773
    1   AR   Ar  124   1.704   4.668   1.654
    1   AR   Ar  125   0.331   4.136   5.902
    1   AR   Ar  126   0.344   6.936   4.930
    1   AR   Ar  127   3.167   4.238   7.061
    1   AR   Ar  128   2.324   4.733   6.660
    1   AR   Ar  129   1.863   0.533   3.078
    1   AR   Ar  130   3.669   1.845  -2.339
    1   AR   Ar  131   4.835   0.418   0.569
    1   AR   Ar  132   1.947   2.069  -1.775
    1   AR   Ar  133   4.357   0.653   2.556
    1   AR   Ar  134   4.692   1.256   3.804
    1   AR   Ar  135   5.537   1.275   2.809
    1   AR   Ar  136   5.158   0.416   1.817
    1   AR   Ar  137   2.719   6.068   3.883
    1   AR   Ar  138   4.646   1.698   4.991
    1   AR   Ar  139   5.664   2.255   5.606
    1   AR   Ar  140   4.002   0.481   4.358
    1   AR   Ar  141   3.905   6.464   4.155
    1   AR   Ar  142   3.732   6.790   5.375
    1   AR   Ar  143   6.148   7.012   5.712
    1   AR   Ar  144   5.529   1.136   5.716
    1   AR   Ar  145   3.335   3.768   0.716
    1   AR   Ar  146   4.412   1.963   1.618
    1   AR   Ar  147   6.050   1.800  -1.329
    1   AR   Ar  148   4.248   3.795  -2.080
    1   AR   Ar  149   3.534   1.910   0.842
    1   AR   Ar  150   2.227   1.789   2.584
    1   AR   Ar  151   2.913   2.216   3.303
    1   AR   Ar  152   3.078   2.768   0.233
    1   AR   Ar  153   3.068   0.961   3.960
    1   AR   Ar  154   3.845   1.844   4.095
    1   AR   Ar  155   6.701   1.420   5.937
    1   AR   Ar  156   3.963   4.166   4.693
    1   AR   Ar  157   2.618   2.854   6.128
    1   AR   Ar  158   1.064   3.432   6.413
    1   AR   Ar  159   3.757   1.978   5.937
    1   AR   Ar  160   2.613   1.939   6.429
    1   AR   Ar  161   5.483   3.068   1.449
    1   AR   Ar  162   4.506   5.785  -0.707
    1   AR   Ar  163   5.611   2.886   0.333
    1   AR   Ar  164   3.917   5.658   1.714
    1   AR   Ar  165   3.354   3.162   1.649
    1   AR   Ar  166   2.900   4.581   3.605
    1   AR   Ar  167   4.221   1.655   2.728
    1   AR   Ar  168   4.875   3.214  -0.825
    1   AR   Ar  169   2.512   2.731   2.151
    1   AR   Ar  170   3.053   4.027   5.789
    1   AR   Ar  171   5.193   3.866   3.940
    1   AR   Ar  172   4.545   5.415   4.456
    1   AR   Ar  173   2.112   3.804   6.877
    1   AR   Ar  174   3.878   4.899   6.330
    1   AR   Ar  175   3.827   3.125   6.030
    1   AR   Ar  176   3.673   4.931   5.293
    1   AR   Ar  177   6.251   5.089   0.228
    1   AR   Ar  178   2.806   5.624   0.348
    1   AR   Ar  179   4.206   5.757   0.777
    1   AR   Ar  180   1.785   3.192  -1.541
    1   AR   Ar  181   1.130   5.830   0.965
    1   AR   Ar  182   2.738   0.239   2.499
    1   AR   Ar  183   3.730   4.975   2.589
    1   AR   Ar  184   4.441   6.571   1.601
    1   AR   Ar  185   2.099   5.238   4.063
    1   AR   Ar  186   3.837   5.652   3.627
    1   AR   Ar  187   3.861   6.672   2.903
    1   AR   Ar  188   3.156   6.410   1.342
    1   AR   Ar  189   3.306   3.271   6.844
    1   AR   Ar  190   5.142   6.564   5.924
    1   AR   Ar  191   4.944   5.116   5.834
    1   AR   Ar  192   4.170   5.901   5.588
    1   AR   Ar  193   0.974   6.622  -1.211
    1   AR   Ar  194   5.253   4.029  -1.503
    1   AR   Ar  195   6.621   0.363   0.051
    1   AR   Ar  196   4.825   6.761  -0.541
    1   AR   Ar  197   5.417   1.399   0.469
    1   AR   Ar  198   7.043   1.381   1.224
    1   AR   Ar  199   5.372   1.504   1.824
    1   AR   Ar  200   6.340   2.144   0.094
    1   AR   Ar  201   4.920   6.900   2.981
    1   AR   Ar  202   5.318   2.542   4.716
    1   AR   Ar  203   6.152   6.740   4.686
    1   AR   Ar  204   5.238   0.349   3.966
    1   AR   Ar  205   5.902   0.244   3.115
    1   AR   Ar  206   4.977   0.246   5.171
    1   AR   Ar  207   0.279   0.398   5.814
    1   AR   Ar  208   6.582   0.100   3.936
    1   AR   Ar  209   5.821   2.762  -2.045
    1   AR   Ar  210   4.352   1.079   1.147
    1   AR   Ar  211   0.122   3.432   0.156
    1   AR   Ar  212   6.328   3.931  -1.565
    1   AR   Ar  213   3.234   2.009   1.891
    1   AR   Ar  214   3.851   2.603   2.447
    1   AR   Ar  215   6.397   2.252   1.629
    1   AR   Ar  216   0.062   4.201   0.906
    1   AR   Ar  217   4.661   2.732   3.838
    1   AR   Ar  218   4.358   2.632   5.136
    1   AR   Ar  219   5.263   2.116   3.536
    1   AR   Ar  220   5.238   3.198   2.436
    1   AR   Ar  221   6.005   0.585   4.865
    1   AR   Ar  222   4.934   1.952   6.384
    1   AR   Ar  223   0.755   0.681   6.666
    1   AR   Ar  224   5.010   2.929   6.011
    1   AR   Ar  225   6.078   4.630   1.085
    1   AR   Ar  226   4.510   4.234   2.156
    1   AR   Ar  227   0.538   5.204   0.313
    1   AR   Ar  228   5.145   5.903   1.297
    1   AR   Ar  229   6.142   4.042   0.058
    1   AR   Ar  230   4.439   4.409   3.432
    1   AR   Ar  231   6.371   1.854   3.163
    1   AR   Ar  232   4.080   2.779   0.774
    1   AR   Ar  233   6.321   2.808   4.371
    1   AR   Ar  234   6.997   3.235   5.056
    1   AR   Ar  235   0.292   2.389   4.159
    1   AR   Ar  236   5.384   4.933   4.988
    1   AR   Ar  237   5.851   3.892   5.129
    1   AR   Ar  238   4.839   3.759   5.253
    1   AR   Ar  239   6.839   4.007   8.942
    1   AR   Ar  240   6.210   3.617   6.059
    1   AR   Ar  241   0.561   7.072   0.002
    1   AR   Ar  242   4.601   4.779   0.176
    1   AR   Ar  243   5.741   4.118   2.905
    1   AR   Ar  244   1.327   5.117  -0.469
    1   AR   Ar  245   5.768   0.194   1.088
    1   AR   Ar  246   6.114   6.020   1.344
    1   AR   Ar  247   4.559   3.915   1.191
    1   AR   Ar  248   5.630   6.239   0.000
    1   AR   Ar  249   4.752   5.723   2.516
    1   AR   Ar  250   5.182   6.281   4.843
    1   AR   Ar  251   6.018   5.363   4.204
    1   AR   Ar  252   4.891   5.770   3.559
    1   AR   Ar  253   5.289   4.033   6.219
    1   AR   Ar  254   4.141   5.502   7.171
    1   AR   Ar  255   4.844   3.119   7.198
    1   AR   Ar  256   5.799   6.442   3.818
    7.12000  7.12000 12.00000
Argon-slab step 2400
  256
    1   AR   Ar    1   6.605   1.278  -0.557
    1   AR   Ar    2   6.848   0.018   0.983
    1   AR   Ar    3   1.030   0.483   1.200
    1   AR   Ar    4   1.568   0.356  -0.493
    1   AR   Ar    5   6.882   6.009   0.408
    1   AR   Ar    6   6.796   0.618   2.800
    1   AR   Ar    7   6.433   4.715   3.391
    1   AR   Ar    8   6.614   6.951   2.078
    1   AR   Ar    9   0.829   0.493   3.828
    1   AR   Ar   10   0.922   1.477   4.272
    1   AR   Ar   11   3.009   0.120   4.751
    1   AR   Ar   12   0.822   1.337   3.236
    1   AR   Ar   13   7.005   0.928   4.700
    1   AR   Ar   14   1.312   1.315   7.305
    1   AR   Ar   15   6.381   0.342   9.298
    1   AR   Ar   16   1.150   0.654   5.214
    1   AR   Ar   17   1.164   1.853  -0.126
    1   AR   Ar   18   6.070   2.874  -0.830
    1   AR   Ar   19   1.567   2.741   1.729
    1   AR   Ar   20   5.541   3.774  -2.514
    1   AR   Ar   21   6.097   0.793   2.052
    1   AR   Ar   22   7.081   1.855   2.224
    1   AR   Ar   23   0.630   0.934   0.386
    1   AR   Ar   24   0.151   2.584   0.876
    1   AR   Ar   25   7.053   1.300   3.701
    1   AR   Ar   26   6.007   1.140   3.957
    1   AR   Ar   27   1.865   1.427   3.838
    1   AR   Ar   28   1.423   2.798   4.609
    1   AR   Ar   29   5.819   2.198   7.185
    1   AR   Ar   30   0.634   1.935   6.408
    1   AR   Ar   31   1.177   6.441   7.351
    1   AR   Ar   32   1.534   2.445   6.349
    1   AR   Ar   33   1.412   4.067  -0.540
    1   AR   Ar   34   0.241   5.510   2.905
    1   AR   Ar   35   6.608   4.888   2.244
    1   AR   Ar   36   0.210   0.496  -3.414
    1   AR   Ar   37   6.530   3.345   2.311
    1   AR   Ar   38   0.245   4.368   2.645
    1   AR   Ar   39   1.268   3.791   2.977
    1   AR   Ar   40   1.392   3.736   0.995
    1   AR   Ar   41   0.287   2.530   2.958
    1   AR   Ar   42   6.678   5.615   5.146
    1   AR   Ar   43   6.647   2.497   5.971
    1   AR   Ar   44   0.375   4.425   3.738
    1   AR   Ar   45   0.798   2.906   5.468
    1   AR   Ar   46   1.539   5.774   6.195
    1   AR   Ar   47   5.936   3.185   6.886
    1   AR   Ar   48   7.103   6.559   6.471
    1   AR   Ar   49   5.987   0.091  -1.682
    1   AR   Ar   50   5.405   4.849   2.219
    1   AR   Ar   51   0.181   5.079   1.479
    1   AR   Ar   52   6.271   5.011  -1.489
    1   AR   Ar   53   5.665   6.477   2.228
    1   AR   Ar   54   6.745   6.455   2.933
    1   AR   Ar   55   5.675   5.312   3.090
    1   AR   Ar   56   0.535   6.975   1.992
    1   AR   Ar   57   5.939   2.958   3.230
    1   AR   Ar   58   7.035   5.221   4.032
    1   AR   Ar   59   1.922   5.277   5.354
    1   AR   Ar   60   0.241   6.331   4.014
    1   AR   Ar   61   6.248   4.662   5.831
    1   AR   Ar   62   0.870   5.790   5.191
    1   AR   Ar   63   2.460   5.934   6.778
    1   AR   Ar   64   1.316   6.866   5.823
    1   AR   Ar   65   3.847   6.950   0.762
    1   AR   Ar   66   1.228   1.449   1.261
    1   AR   Ar   67   3.217   6.162  -0.491
    1   AR   Ar   68   3.209   1.407  -1.518
    1   AR   Ar   69   2.593   1.167   0.855
    1   AR   Ar   70   0.674   0.839   2.359
    1   AR   Ar   71   3.189   1.206   2.708
    1   AR   Ar   72   3.555   0.671   1.807
    1   AR   Ar   73   2.769   7.057   3.696
    1   AR   Ar   74   2.056   0.831   4.820
    1   AR   Ar   75   3.628   1.295   5.144
    1   AR   Ar   76   2.231   1.032   1.819
    1   AR   Ar   77   2.345   6.272   5.612
    1   AR   Ar   78   1.905   7.014   6.722
    1   AR   Ar   79   3.770   7.009   6.464
    1   AR   Ar   80   3.118   5.538   6.108
    1   AR   Ar   81   2.142   1.555  -0.618
    1   AR   Ar   82   7.110   4.603  -0.325
    1   AR   Ar   83   1.584   2.281   0.779
    1   AR   Ar   84   0.423   3.814  -0.818
    1   AR   Ar   85   1.164   3.101   0.048
    1   AR   Ar   86   2.402   3.214   1.104
    1   AR   Ar   87   2.520   2.233   1.199
    1   AR   Ar   88   3.549   4.197   1.649
    1   AR   Ar   89   0.644   3.110   2.001
    1   AR   Ar   90   2.842   2.054   5.237
    1   AR   Ar   91   1.396   2.306   3.688
    1   AR   Ar   92   0.916   1.935   2.171
    1   AR   Ar   93   1.637   1.206   6.177
    1   AR   Ar   94   1.598   0.685   9.456
    1   AR   Ar   95   4.020   0.861   5.958
    1   AR   Ar   96   3.075   0.613   5.809
    1   AR   Ar   97   3.877   2.317  -1.335
    1   AR   Ar   98   2.559   4.884   2.205
    1   AR   Ar   99   7.091   2.102  -1.553
    1   AR   Ar  100   2.085   2.840  -0.247
    1   AR   Ar  101   2.537   4.432   0.969
    1   AR   Ar  102   3.625   3.514   3.493
    1   AR   Ar  103   1.427   4.676   0.466
    1   AR   Ar  104   2.978   2.761  -1.334
    1   AR   Ar  105   2.166   3.242   4.095
    1   AR   Ar  106   2.910   3.815   4.696
    1   AR   Ar  107   1.816   4.154   5.937
    1   AR   Ar  108   3.356   2.985   5.095
    1   AR   Ar  109   1.398   3.992   4.688
    1   AR   Ar  110   1.062   4.816   6.230
    1   AR   Ar  111   4.336   4.078   6.686
    1   AR   Ar  112   1.608   5.247   7.431
    1   AR   Ar  113   2.385   4.749   0.025
    1   AR   Ar  114   2.711   4.745  -0.971
    1   AR   Ar  115   2.754   3.739  -0.779
    1   AR   Ar  116   5.296   6.007  -1.632
    1   AR   Ar  117   0.960   5.345   4.056
    1   AR   Ar  118   0.862   6.678   2.996
    1   AR   Ar  119   2.365   3.811   2.207
    1   AR   Ar  120   1.178   4.940   2.719
    1   AR   Ar  121   6.752   4.406   4.698
    1   AR   Ar  122   3.240   5.757   4.966
    1   AR   Ar  123   2.723   4.794   4.768
    1   AR   Ar  124   1.694   4.644   1.636
    1   AR   Ar  125   0.288   4.088   5.878
    1   AR   Ar  126   0.354   6.967   4.929
    1   AR   Ar  127   3.149   4.247   7.074
    1   AR   Ar  128   2.353   4.762   6.637
    1   AR   Ar  129   1.875   0.532   3.059
    1   AR   Ar  130   3.689   1.857  -2.303
    1   AR   Ar  131   4.820   0.419   0.538
    1   AR   Ar  132   1.924   2.047  -1.751
    1   AR   Ar  133   4.327   0.634   2.554
    1   AR   Ar  134   4.730   1.279   3.809
    1   AR   Ar  135   5.556   1.283   2.786
    1   AR   Ar  136   5.149   0.410   1.813
    1   AR   Ar  137   2.718   6.064   3.911
    1   AR   Ar  138   4.653   1.685   5.020
    1   AR   Ar  139   5.644   2.297   5.597
    1   AR   Ar  140   4.004   0.437   4.374
    1   AR   Ar  141   3.915   6.508   4.178
    1   AR   Ar  142   3.713   6.786   5.372
    1   AR   Ar  143   6.153   7.000   5.736
    1   AR   Ar  144   5.502   1.149   5.702
    1   AR   Ar  145   3.338   3.791   0.757
    1   AR   Ar  146   4.426   1.965   1.620
    1   AR   Ar  147   6.051   1.827  -1.321
    1   AR   Ar  148   4.247   3.827  -2.108
    1   AR   Ar  149   3.529   1.919   0.865
    1   AR   Ar  150   2.233   1.796   2.572
    1   AR   Ar  151   2.913   2.212   3.273
    1   AR   Ar  152   3.095   2.749   0.257
    1   AR   Ar  153   3.071   0.940   3.968
    1   AR   Ar  154   3.843   1.857   4.107
    1   AR   Ar  155   6.734   1.404   5.936
    1   AR   Ar  156   3.996   4.164   4.675
    1   AR   Ar  157   2.606   2.849   6.156
    1   AR   Ar  158   1.065   3.434   6.437
    1   AR   Ar  159   3.779   1.977   5.917
    1   AR   Ar  160   2.622   1.941   6.406
    1   AR   Ar  161   5.495   3.069   1.448
    1   AR   Ar  162   4.498   5.807  -0.711
    1   AR   Ar  163   5.612   2.835   0.340
    1   AR   Ar  164   3.928   5.656   1.736
    1   AR   Ar  165   3.355   3.163   1.648
    1   AR   Ar  166   2.908   4.562   3.626
    1   AR   Ar  167   4.248   1.669   2.738
    1   AR   Ar  168   4.893   3.209  -0.852
    1   AR   Ar  169   2.522   2.744   2.141
    1   AR   Ar  170   3.057   4.030   5.816
    1   AR   Ar  171   5.176   3.874   3.906
    1   AR   Ar  172   4.527   5.382   4.453
    1   AR   Ar  173   2.131   3.786   6.896
    1   AR   Ar  174   3.887   4.886   6.373
    1   AR   Ar  175   3.802   3.089   6.042
    1   AR   Ar  176   3.658   4.918   5.309
    1   AR   Ar  177   6.254   5.083   0.229
    1   AR   Ar  178   2.833   5.634   0.314
    1   AR   Ar  179   4.192   5.749   0.789
    1   AR   Ar  180   1.760   3.164  -1.565
    1   AR   Ar  181   1.102   5.840   0.955
    1   AR   Ar  182   2.769   0.239   2.459
    1   AR   Ar  183   3.703   4.984   2.580
    1   AR   Ar  184   4.426   6.572   1.585
    1   AR   Ar  185   2.103   5.230   4.088
    1   AR   Ar  186   3.853   5.647   3.655
    1   AR   Ar  187   3.903   6.667   2.925
    1   AR   Ar  188   3.163   6.456   1.352
    1   AR   Ar  189   3.272   3.237   6.896
    1   AR   Ar  190   5.189   6.579   5.907
    1   AR   Ar  191   4.967   5.103   5.866
    1   AR   Ar  192   4.171   5.886   5.566
    1   AR   Ar  193   0.997   6.627  -1.202
    1   AR   Ar  194   5.262   4.035  -1.505
    1   AR   Ar  195   6.603   0.354   0.069
    1   AR   Ar  196   4.836   6.768  -0.553
    1   AR   Ar  197   5.396   1.407   0.492
    1   AR   Ar  198   7.090   1.368   1.258
    1   AR   Ar  199   5.365   1.527   1.826
    1   AR   Ar  200   6.374   2.134   0.104
    1   AR   Ar  201   4.894   6.933   3.021
    1   AR   Ar  202   5.304   2.557   4.678
    1   AR   Ar  203   6.161   6.722   4.680
    1   AR   Ar  204   5.255   0.337   3.963
    1   AR   Ar  205   5.884   0.260   3.098
    1   AR   Ar  206   4.978   0.291   5.162
    1   AR   Ar  207   0.289   0.373   5.806
    1   AR   Ar  208   6.572   0.091   3.934
    1   AR   Ar  209   5.799   2.743  -2.069
    1   AR   Ar  210   4.372   1.100   1.123
    1   AR   Ar  211   0.106   3.430   0.126
    1   AR   Ar  212   6.334   3.932  -1.512
    1   AR   Ar  213   3.233   2.012   1.886
    1   AR   Ar  214   3.840   2.613   2.466
    1   AR   Ar  215   6.387   2.243   1.610
    1   AR   Ar  216   0.084   4.229   0.940
    1   AR   Ar  217   4.648   2.762   3.846
    1   AR   Ar  218   4.357   2.649   5.119
    1   AR   Ar  219   5.235   2.077   3.521
    1   AR   Ar  220   5.192   3.229   2.417
    1   AR   Ar  221   6.000   0.593   4.878
    1   AR   Ar  222   4.929   1.950   6.410
    1   AR   Ar  223   0.756   0.673   6.635
    1   AR   Ar  224   5.024   2.908   5.992
    1   AR   Ar  225   6.077   4.618   1.073
    1   AR   Ar  226   4.497   4.218   2.138
    1   AR   Ar  227   0.531   5.201   0.329
    1   AR   Ar  228   5.135   5.911   1.279
    1   AR   Ar  229   6.116   4.056   0.050
    1   AR   Ar  230   4.440   4.412   3.461
    1   AR   Ar  231   6.336   1.857   3.189
    1   AR   Ar  232   4.065   2.765   0.773
    1   AR   Ar  233   6.352   2.790   4.342
    1   AR   Ar  234   6.982   3.255   5.076
    1   AR   Ar  235   0.284   2.381   4.163
    1   AR   Ar  236   5.396   4.928   4.961
    1   AR   Ar  237   5.871   3.898   5.125
    1   AR   Ar  238   4.868   3.756   5.236
    1   AR   Ar  239   6.846   4.026   8.963
    1   AR   Ar  240   6.226   3.625   6.035
    1   AR   Ar  241   0.557   7.062  -0.002
    1   AR   Ar  242   4.625   4.799   0.166
    1   AR   Ar  243   5.756   4.133   2.890
    1   AR   Ar  244   1.340   5.144  -0.460
    1   AR   Ar  245   5.771   0.189   1.064
    1   AR   Ar  246   6.106   6.023   1.343
    1   AR   Ar  247   4.565   3.929   1.193
    1   AR   Ar  248   5.632   6.230  -0.024
    1   AR   Ar  249   4.726   5.743   2.459
    1   AR   Ar  250   5.169   6.307   4.853
    1   AR   Ar  251   6.013   5.327   4.216
    1   AR   Ar  252   4.877   5.745   3.559
    1   AR   Ar  253   5.285   4.027   6.210
    1   AR   Ar  254   4.151   5.492   7.183
    1   AR   Ar  255   4.860   3.096   7.221
    1   AR   Ar  256   5.793   6.432   3.819
    7.12000  7.12000 12.00000
Argon-slab step 2405
  256
    1   AR   Ar    1   6.594   1.261  -0.587
    1   AR   Ar    2   6.877   0.009   0.969
    1   AR   Ar    3   1.011   0.491   1.206
    1   AR   Ar    4   1.595   0.354  -0.516
    1   AR   Ar    5   6.882   5.995   0.415
    1   AR   Ar    6   6.769   0.629   2.815
    1   AR   Ar    7   6.431   4.698   3.387
    1   AR   Ar    8   6.603   6.969   2.078
    1   AR   Ar    9   0.808   0.491   3.837
    1   AR   Ar   10   0.901   1.481   4.255
    1   AR   Ar   11   2.954   0.122   4.727
    1   AR   Ar   12   0.840   1.360   3.224
    1   AR   Ar   13   6.999   0.965   4.729
    1   AR   Ar   14   1.330   1.319   7.317
    1   AR   Ar   15   6.372   0.350   9.306
    1   AR   Ar   16   1.174   0.634   5.190
    1   AR   Ar   17   1.139   1.856  -0.123
    1   AR   Ar   18   6.047   2.848  -0.803
    1   AR   Ar   19   1.572   2.759   1.719
    1   AR   Ar   20   5.546   3.803  -2.525
    1   AR   Ar   21   6.097   0.786   2.033
    1   AR   Ar   22   7.076   1.859   2.256
    1   AR   Ar   23   0.597   0.923   0.357
    1   AR   Ar   24   0.173   2.560   0.909
    1   AR   Ar   25   7.073   1.288   3.720
    1   AR   Ar   26   6.034   1.126   3.950
    1   AR   Ar   27   1.857   1.413   3.828
    1   AR   Ar   28   1.405   2.763   4.595
    1   AR   Ar   29   5.837   2.214   7.187
    1   AR   Ar   30   0.626   1.954   6.413
    1   AR   Ar   31   1.200   6.444   7.340
    1   AR   Ar   32   1.513   2.444   6.363
    1   AR   Ar   33   1.403   4.034  -0.486
    1   AR   Ar   34   0.253   5.540   2.896
    1   AR   Ar   35   6.566   4.906   2.223
    1   AR   Ar   36   0.224   0.502  -3.413
    1   AR   Ar   37   6.501   3.320   2.334
    1   AR   Ar   38   0.264   4.341   2.635
    1   AR   Ar   39   1.253   3.806   2.977
    1   AR   Ar   40   1.382   3.716   0.988
    1   AR   Ar   41   0.276   2.551   2.979
    1   AR   Ar   42   6.661   5.593   5.158
    1   AR   Ar   43   6.643   2.536   5.961
    1   AR   Ar   44   0.388   4.416   3.749
    1   AR   Ar   45   0.786   2.909   5.444
    1   AR   Ar   46   1.567   5.789   6.186
    1   AR   Ar   47   5.900   3.192   6.885
    1   AR   Ar   48   7.106   6.565   6.481
    1   AR   Ar   49   5.982   0.099  -1.640
    1   AR   Ar   50   5.414   4.866   2.239
    1   AR   Ar   51   0.180   5.065   1.493
    1   AR   Ar   52   6.214   4.996  -1.486
    1   AR   Ar   53   5.670   6.470   2.214
    1   AR   Ar   54   6.718   6.457   2.914
    1   AR   Ar   55   5.671   5.305   3.109
    1   AR   Ar   56   0.524   6.996   1.985
    1   AR   Ar   57   5.908   2.948   3.234
    1   AR   Ar   58   7.051   5.222   4.080
    1   AR   Ar   59   1.926   5.280   5.350
    1   AR   Ar   60   0.247   6.325   4.016
    1   AR   Ar   61   6.268   4.603   5.856
    1   AR   Ar   62   0.873   5.800   5.205
    1   AR   Ar   63   2.494   5.923   6.806
    1   AR   Ar   64   1.288   6.866   5.765
    1   AR   Ar   65   3.856   6.946   0.772
    1   AR   Ar   66   1.193   1.462   1.269
    1   AR   Ar   67   3.222   6.135  -0.498
    1   AR   Ar   68   3.217   1.419  -1.519
    1   AR   Ar   69   2.623   1.201   0.862
    1   AR   Ar   70   0.657   0.848   2.353
    1   AR   Ar   71   3.153   1.226   2.713
    1   AR   Ar   72   3.565   0.675   1.764
    1   AR   Ar   73   2.756   7.042   3.685
    1   AR   Ar   74   2.056   0.819   4.825
    1   AR   Ar   75   3.588   1.324   5.135
    1   AR   Ar   76   2.206   1.009   1.783
    1   AR   Ar   77   2.351   6.271   5.622
    1   AR   Ar   78   1.874   7.032   6.731
    1   AR   Ar   79   3.791   7.033   6.481
    1   AR   Ar   80   3.110   5.543   6.082
    1   AR   Ar   81   2.104   1.558  -0.596
    1   AR   Ar   82   0.020   4.645  -0.360
    1   AR   Ar   83   1.568   2.303   0.765
    1   AR   Ar   84   0.447   3.830  -0.809
    1   AR   Ar   85   1.166   3.127   0.047
    1   AR   Ar   86   2.377   3.206   1.094
    1   AR   Ar   87   2.525   2.208   1.194
    1   AR   Ar   88   3.531   4.198   1.673
    1   AR   Ar   89   0.603   3.098   2.007
    1   AR   Ar   90   2.818   2.054   5.231
    1   AR   Ar   91   1.396   2.294   3.694
    1   AR   Ar   92   0.901   1.918   2.159
    1   AR   Ar   93   1.651   1.178   6.196
    1   AR   Ar   94   1.605   0.670   9.462
    1   AR   Ar   95   4.022   0.864   5.970
    1   AR   Ar   96   3.057   0.630   5.807
    1   AR   Ar   97   3.876   2.297  -1.338
    1   AR   Ar   98   2.540   4.896   2.241
    1   AR   Ar   99   7.074   2.072  -1.552
    1   AR   Ar  100   2.097   2.804  -0.250
    1   AR   Ar  101   2.535   4.439   0.961
    1   AR   Ar  102   3.629   3.504   3.512
    1   AR   Ar  103   1.417   4.648   0.447
    1   AR   Ar  104   2.977   2.751  -1.352
    1   AR   Ar  105   2.221   3.274   4.118
    1   AR   Ar  106   2.893   3.851   4.726
    1   AR   Ar  107   1.801   4.133   5.944
    1   AR   Ar  108   3.371   2.968   5.095
    1   AR   Ar  109   1.370   3.991   4.651
    1   AR   Ar  110   1.070   4.805   6.238
    1   AR   Ar  111   4.345   4.058   6.694
    1   AR   Ar  112   1.634   5.252   7.425
    1   AR   Ar  113   2.409   4.703   0.027
    1   AR   Ar  114   2.700   4.750  -0.977
    1   AR   Ar  115   2.771   3.753  -0.776
    1   AR   Ar  116   5.305   6.036  -1.653
    1   AR   Ar  117   0.974   5.349   4.028
    1   AR   Ar  118   0.863   6.672   2.979
    1   AR   Ar  119   2.394   3.796   2.194
    1   AR   Ar  120   1.182   4.972   2.736
    1   AR   Ar  121   6.769   4.412   4.644
    1   AR   Ar  122   3.217   5.749   4.978
    1   AR   Ar  123   2.717   4.764   4.767
    1   AR   Ar  124   1.682   4.628   1.626
    1   AR   Ar  125   0.244   4.038   5.851
    1   AR   Ar  126   0.361   6.999   4.933
    1   AR   Ar  127   3.135   4.259   7.087
    1   AR   Ar  128   2.382   4.802   6.612
    1   AR   Ar  129   1.871   0.544   3.091
    1   AR   Ar  130   3.712   1.872  -2.272
    1   AR   Ar  131   4.809   0.413   0.504
    1   AR   Ar  132   1.902   2.026  -1.726
    1   AR   Ar  133   4.298   0.612   2.552
    1   AR   Ar  134   4.762   1.292   3.818
    1   AR   Ar  135   5.571   1.288   2.774
    1   AR   Ar  136   5.130   0.404   1.817
    1   AR   Ar  137   2.715   6.062   3.945
    1   AR   Ar  138   4.664   1.665   5.048
    1   AR   Ar  139   5.639   2.323   5.585
    1   AR   Ar  140   4.009   0.397   4.392
    1   AR   Ar  141   3.924   6.555   4.206
    1   AR   Ar  142   3.694   6.786   5.370
    1   AR   Ar  143   6.161   6.990   5.759
    1   AR   Ar  144   5.475   1.163   5.687
    1   AR   Ar  145   3.343   3.808   0.788
    1   AR   Ar  146   4.435   1.977   1.627
    1   AR   Ar  147   6.048   1.813  -1.320
    1   AR   Ar  148   4.247   3.858  -2.136
    1   AR   Ar  149   3.520   1.936   0.885
    1   AR   Ar  150   2.236   1.802   2.559
    1   AR   Ar  151   2.916   2.208   3.243
    1   AR   Ar  152   3.110   2.732   0.282
    1   AR   Ar  153   3.073   0.935   3.969
    1   AR   Ar  154   3.840   1.870   4.119
    1   AR   Ar  155   6.752   1.380   5.924
    1   AR   Ar  156   4.016   4.174   4.677
    1   AR   Ar  157   2.594   2.868   6.174
    1   AR   Ar  158   1.068   3.438   6.461
    1   AR   Ar  159   3.801   1.979   5.900
    1   AR   Ar  160   2.634   1.916   6.392
    1   AR   Ar  161   5.508   3.069   1.442
    1   AR   Ar  162   4.489   5.824  -0.715
    1   AR   Ar  163   5.611   2.785   0.348
    1   AR   Ar  164   3.934   5.650   1.768
    1   AR   Ar  165   3.358   3.160   1.645
    1   AR   Ar  166   2.917   4.543   3.648
    1   AR   Ar  167   4.277   1.684   2.750
    1   AR   Ar  168   4.912   3.204  -0.879
    1   AR   Ar  169   2.534   2.757   2.136
    1   AR   Ar  170   3.061   4.032   5.844
    1   AR   Ar  171   5.165   3.878   3.875
    1   AR   Ar  172   4.508   5.346   4.457
    1   AR   Ar  173   2.150   3.761   6.917
    1   AR   Ar  174   3.891   4.879   6.409
    1   AR   Ar  175   3.782   3.053   6.050
    1   AR   Ar  176   3.646   4.900   5.330
    1   AR   Ar  177   6.267   5.089   0.237
    1   AR   Ar  178   2.861   5.645   0.287
    1   AR   Ar  179   4.178   5.743   0.789
    1   AR   Ar  180   1.736   3.135  -1.586
    1   AR   Ar  181   1.074   5.850   0.946
    1   AR   Ar  182   2.801   0.238   2.419
    1   AR   Ar  183   3.677   4.992   2.572
    1   AR   Ar  184   4.409   6.579   1.574
    1   AR   Ar  185   2.101   5.221   4.109
    1   AR   Ar  186   3.862   5.634   3.677
    1   AR   Ar  187   3.940   6.660   2.947
    1   AR   Ar  188   3.168   6.500   1.365
    1   AR   Ar  189   3.235   3.200   6.953
    1   AR   Ar  190   5.233   6.593   5.890
    1   AR   Ar  191   4.985   5.091   5.904
    1   AR   Ar  192   4.175   5.866   5.544
    1   AR   Ar  193   1.019   6.633  -1.192
    1   AR   Ar  194   5.269   4.042  -1.506
    1   AR   Ar  195   6.582   0.348   0.080
    1   AR   Ar  196   4.849   6.780  -0.564
    1   AR   Ar  197   5.376   1.416   0.516
    1   AR   Ar  198   0.018   1.355   1.290
    1   AR   Ar  199   5.357   1.551   1.819
    1   AR   Ar  200   6.411   2.122   0.115
    1   AR   Ar  201   4.872   6.965   3.061
    1   AR   Ar  202   5.298   2.553   4.663
    1   AR   Ar  203   6.172   6.695   4.692
    1   AR   Ar  204   5.271   0.323   3.963
    1   AR   Ar  205   5.863   0.273   3.080
    1   AR   Ar  206   4.979   0.335   5.152
    1   AR   Ar  207   0.293   0.347   5.796
    1   AR   Ar  208   6.569   0.090   3.923
    1   AR   Ar  209   5.776   2.723  -2.091
    1   AR   Ar  210   4.389   1.126   1.081
    1   AR   Ar  211   0.089   3.428   0.098
    1   AR   Ar  212   6.341   3.929  -1.457
    1   AR   Ar  213   3.235   2.008   1.884
    1   AR   Ar  214   3.830   2.627   2.488
    1   AR   Ar  215   6.370   2.237   1.585
    1   AR   Ar  216   0.105   4.252   0.969
    1   AR   Ar  217   4.620   2.807   3.861
    1   AR   Ar  218   4.355   2.673   5.105
    1   AR   Ar  219   5.226   2.039   3.515
    1   AR   Ar  220   5.144   3.262   2.404
    1   AR   Ar  221   5.992   0.605   4.892
    1   AR   Ar  222   4.927   1.958   6.404
    1   AR   Ar  223   0.763   0.667   6.610
    1   AR   Ar  224   5.024   2.905   5.980
    1   AR   Ar  225   6.075   4.599   1.074
    1   AR   Ar  226   4.486   4.205   2.134
    1   AR   Ar  227   0.504   5.195   0.325
    1   AR   Ar  228   5.144   5.943   1.275
    1   AR   Ar  229   6.092   4.066   0.043
    1   AR   Ar  230   4.436   4.419   3.486
    1   AR   Ar  231   6.302   1.864   3.214
    1   AR   Ar  232   4.055   2.744   0.756
    1   AR   Ar  233   6.382   2.770   4.311
    1   AR   Ar  234   6.966   3.278   5.097
    1   AR   Ar  235   0.277   2.373   4.166
    1   AR   Ar  236   5.410   4.920   4.931
    1   AR   Ar  237   5.894   3.906   5.113
    1   AR   Ar  238   4.889   3.751   5.219
    1   AR   Ar  239   6.852   4.045   8.984
    1   AR   Ar  240   6.243   3.625   6.020
    1   AR   Ar  241   0.552   7.051  -0.006
    1   AR   Ar  242   4.649   4.820   0.157
    1   AR   Ar  243   5.767   4.141   2.875
    1   AR   Ar  244   1.353   5.174  -0.454
    1   AR   Ar  245   5.780   0.182   1.033
    1   AR   Ar  246   6.115   6.028   1.341
    1   AR   Ar  247   4.572   3.938   1.184
    1   AR   Ar  248   5.634   6.220  -0.046
    1   AR   Ar  249   4.702   5.764   2.403
    1   AR   Ar  250   5.155   6.331   4.861
    1   AR   Ar  251   6.006   5.294   4.226
    1   AR   Ar  252   4.866   5.727   3.557
    1   AR   Ar  253   5.280   4.021   6.200
    1   AR   Ar  254   4.161   5.484   7.196
    1   AR   Ar  255   4.876   3.074   7.240
    1   AR   Ar  256   5.764   6.422   3.814
    7.12000  7.12000 12.00000
Argon-slab step 2410
  256
    1   AR   Ar    1   6.584   1.243  -0.617
    1   AR   Ar    2   6.910   7.116   0.964
    1   AR   Ar    3   0.992   0.463   1.181
    1   AR   Ar    4   1.621   0.352  -0.538
    1   AR   Ar    5   6.882   5.983   0.424
    1   AR   Ar    6   6.752   0.644   2.834
    1   AR   Ar    7   6.440   4.680   3.388
    1   AR   Ar    8   6.589   6.990   2.067
    1   AR   Ar    9   0.787   0.485   3.847
    1   AR   Ar   10   0.877   1.486   4.246
    1   AR   Ar   11   2.900   0.125   4.705
    1   AR   Ar   12   0.865   1.389   3.208
    1   AR   Ar   13   6.983   1.033   4.775
    1   AR   Ar   14   1.349   1.325   7.326
    1   AR   Ar   15   6.367   0.351   9.308
    1   AR   Ar   16   1.183   0.614   5.169
    1   AR   Ar   17   1.112   1.859  -0.119
    1   AR   Ar   18   6.024   2.823  -0.775
    1   AR   Ar   19   1.577   2.778   1.710
    1   AR   Ar   20   5.551   3.832  -2.535
    1   AR   Ar   21   6.100   0.779   2.009
    1   AR   Ar   22   7.051   1.857   2.292
    1   AR   Ar   23   0.561   0.917   0.327
    1   AR   Ar   24   0.195   2.535   0.942
    1   AR   Ar   25   7.090   1.275   3.739
    1   AR   Ar   26   6.060   1.111   3.941
    1   AR   Ar   27   1.856   1.390   3.818
    1   AR   Ar   28   1.385   2.730   4.586
    1   AR   Ar   29   5.853   2.226   7.188
    1   AR   Ar   30   0.610   1.973   6.411
    1   AR   Ar   31   1.177   6.423   7.366
    1   AR   Ar   32   1.501   2.444   6.376
    1   AR   Ar   33   1.400   4.003  -0.431
    1   AR   Ar   34   0.245   5.555   2.901
    1   AR   Ar   35   6.518   4.923   2.204
    1   AR   Ar   36   0.237   0.509  -3.413
    1   AR   Ar   37   6.472   3.294   2.357
    1   AR   Ar   38   0.275   4.348   2.630
    1   AR   Ar   39   1.237   3.822   2.976
    1   AR   Ar   40   1.372   3.694   0.982
    1   AR   Ar   41   0.266   2.573   3.003
    1   AR   Ar   42   6.643   5.570   5.168
    1   AR   Ar   43   6.640   2.577   5.950
    1   AR   Ar   44   0.406   4.397   3.755
    1   AR   Ar   45   0.774   2.911   5.425
    1   AR   Ar   46   1.592   5.807   6.182
    1   AR   Ar   47   5.863   3.202   6.884
    1   AR   Ar   48   0.016   6.566   6.492
    1   AR   Ar   49   5.977   0.106  -1.598
    1   AR   Ar   50   5.420   4.884   2.248
    1   AR   Ar   51   0.183   5.066   1.511
    1   AR   Ar   52   6.156   4.982  -1.482
    1   AR   Ar   53   5.672   6.463   2.202
    1   AR   Ar   54   6.694   6.443   2.891
    1   AR   Ar   55   5.669   5.303   3.130
    1   AR   Ar   56   0.515   7.013   1.976
    1   AR   Ar   57   5.877   2.939   3.238
    1   AR   Ar   58   7.064   5.240   4.131
    1   AR   Ar   59   1.931   5.280   5.343
    1   AR   Ar   60   0.253   6.320   4.016
    1   AR   Ar   61   6.288   4.556   5.877
    1   AR   Ar   62   0.877   5.810   5.219
    1   AR   Ar   63   2.510   5.923   6.826
    1   AR   Ar   64   1.259   6.862   5.707
    1   AR   Ar   65   3.868   6.947   0.775
    1   AR   Ar   66   1.160   1.482   1.276
    1   AR   Ar   67   3.232   6.113  -0.513
    1   AR   Ar   68   3.220   1.424  -1.507
    1   AR   Ar   69   2.656   1.235   0.864
    1   AR   Ar   70   0.638   0.857   2.343
    1   AR   Ar   71   3.119   1.247   2.719
    1   AR   Ar   72   3.574   0.681   1.717
    1   AR   Ar   73   2.743   7.033   3.670
    1   AR   Ar   74   2.071   0.810   4.824
    1   AR   Ar   75   3.547   1.349   5.116
    1   AR   Ar   76   2.179   0.986   1.753
    1   AR   Ar   77   2.365   6.263   5.641
    1   AR   Ar   78   1.843   7.051   6.739
    1   AR   Ar   79   3.810   7.056   6.497
    1   AR   Ar   80   3.103   5.546   6.049
    1   AR   Ar   81   2.066   1.561  -0.574
    1   AR   Ar   82   0.042   4.686  -0.397
    1   AR   Ar   83   1.550   2.329   0.746
    1   AR   Ar   84   0.469   3.842  -0.806
    1   AR   Ar   85   1.164   3.152   0.049
    1   AR   Ar   86   2.356   3.211   1.077
    1   AR   Ar   87   2.513   2.183   1.181
    1   AR   Ar   88   3.513   4.208   1.708
    1   AR   Ar   89   0.560   3.086   2.013
    1   AR   Ar   90   2.789   2.053   5.215
    1   AR   Ar   91   1.392   2.287   3.692
    1   AR   Ar   92   0.907   1.906   2.148
    1   AR   Ar   93   1.665   1.151   6.214
    1   AR   Ar   94   1.612   0.655   9.469
    1   AR   Ar   95   4.035   0.868   5.985
    1   AR   Ar   96   3.043   0.651   5.781
    1   AR   Ar   97   3.883   2.276  -1.337
    1   AR   Ar   98   2.523   4.908   2.278
    1   AR   Ar   99   7.058   2.042  -1.550
    1   AR   Ar  100   2.114   2.766  -0.255
    1   AR   Ar  101   2.531   4.444   0.967
    1   AR   Ar  102   3.634   3.494   3.532
    1   AR   Ar  103   1.420   4.617   0.446
    1   AR   Ar  104   2.967   2.745  -1.369
    1   AR   Ar  105   2.276   3.305   4.139
    1   AR   Ar  106   2.884   3.860   4.756
    1   AR   Ar  107   1.791   4.110   5.947
    1   AR   Ar  108   3.381   2.953   5.092
    1   AR   Ar  109   1.349   3.988   4.629
    1   AR   Ar  110   1.075   4.797   6.246
    1   AR   Ar  111   4.356   4.026   6.707
    1   AR   Ar  112   1.661   5.258   7.415
    1   AR   Ar  113   2.431   4.657   0.017
    1   AR   Ar  114   2.683   4.751  -0.993
    1   AR   Ar  115   2.788   3.760  -0.770
    1   AR   Ar  116   5.315   6.066  -1.671
    1   AR   Ar  117   0.991   5.354   4.000
    1   AR   Ar  118   0.863   6.666   2.963
    1   AR   Ar  119   2.414   3.789   2.183
    1   AR   Ar  120   1.186   5.003   2.754
    1   AR   Ar  121   6.783   4.414   4.595
    1   AR   Ar  122   3.196   5.736   4.993
    1   AR   Ar  123   2.711   4.761   4.772
    1   AR   Ar  124   1.673   4.646   1.653
    1   AR   Ar  125   0.200   3.987   5.824
    1   AR   Ar  126   0.340   7.001   4.917
    1   AR   Ar  127   3.125   4.272   7.100
    1   AR   Ar  128   2.407   4.845   6.583
    1   AR   Ar  129   1.866   0.556   3.124
    1   AR   Ar  130   3.737   1.889  -2.250
    1   AR   Ar  131   4.801   0.401   0.466
    1   AR   Ar  132   1.881   2.005  -1.699
    1   AR   Ar  133   4.269   0.590   2.551
    1   AR   Ar  134   4.779   1.280   3.836
    1   AR   Ar  135   5.580   1.290   2.770
    1   AR   Ar  136   5.105   0.398   1.823
    1   AR   Ar  137   2.715   6.054   3.981
    1   AR   Ar  138   4.675   1.641   5.076
    1   AR   Ar  139   5.653   2.329   5.568
    1   AR   Ar  140   4.015   0.372   4.413
    1   AR   Ar  141   3.932   6.590   4.234
    1   AR   Ar  142   3.676   6.790   5.361
    1   AR   Ar  143   6.176   6.983   5.782
    1   AR   Ar  144   5.448   1.179   5.673
    1   AR   Ar  145   3.348   3.818   0.806
    1   AR   Ar  146   4.439   1.998   1.638
    1   AR   Ar  147   6.059   1.832  -1.334
    1   AR   Ar  148   4.248   3.889  -2.163
    1   AR   Ar  149   3.509   1.968   0.894
    1   AR   Ar  150   2.235   1.807   2.545
    1   AR   Ar  151   2.922   2.206   3.215
    1   AR   Ar  152   3.120   2.716   0.306
    1   AR   Ar  153   3.075   0.940   3.964
    1   AR   Ar  154   3.838   1.884   4.132
    1   AR   Ar  155   6.745   1.345   5.894
    1   AR   Ar  156   4.035   4.186   4.680
    1   AR   Ar  157   2.580   2.903   6.186
    1   AR   Ar  158   1.070   3.443   6.483
    1   AR   Ar  159   3.825   1.984   5.884
    1   AR   Ar  160   2.646   1.877   6.379
    1   AR   Ar  161   5.523   3.068   1.434
    1   AR   Ar  162   4.478   5.836  -0.719
    1   AR   Ar  163   5.608   2.737   0.356
    1   AR   Ar  164   3.930   5.642   1.800
    1   AR   Ar  165   3.363   3.153   1.639
    1   AR   Ar  166   2.928   4.523   3.671
    1   AR   Ar  167   4.307   1.699   2.763
    1   AR   Ar  168   4.931   3.197  -0.906
    1   AR   Ar  169   2.545   2.769   2.136
    1   AR   Ar  170   3.065   4.035   5.873
    1   AR   Ar  171   5.163   3.874   3.849
    1   AR   Ar  172   4.501   5.321   4.457
    1   AR   Ar  173   2.169   3.734   6.937
    1   AR   Ar  174   3.888   4.878   6.436
    1   AR   Ar  175   3.781   3.024   6.061
    1   AR   Ar  176   3.637   4.878   5.356
    1   AR   Ar  177   6.287   5.106   0.248
    1   AR   Ar  178   2.886   5.652   0.269
    1   AR   Ar  179   4.166   5.738   0.781
    1   AR   Ar  180   1.713   3.106  -1.605
    1   AR   Ar  181   1.055   5.848   0.942
    1   AR   Ar  182   2.819   0.246   2.410
    1   AR   Ar  183   3.651   4.998   2.567
    1   AR   Ar  184   4.391   6.592   1.568
    1   AR   Ar  185   2.092   5.213   4.127
    1   AR   Ar  186   3.862   5.619   3.696
    1   AR   Ar  187   3.966   6.649   2.968
    1   AR   Ar  188   3.170   6.540   1.383
    1   AR   Ar  189   3.198   3.164   7.012
    1   AR   Ar  190   5.237   6.591   5.868
    1   AR   Ar  191   5.001   5.079   5.944
    1   AR   Ar  192   4.181   5.842   5.523
    1   AR   Ar  193   1.042   6.640  -1.180
    1   AR   Ar  194   5.275   4.049  -1.506
    1   AR   Ar  195   6.559   0.346   0.083
    1   AR   Ar  196   4.863   6.797  -0.574
    1   AR   Ar  197   5.357   1.424   0.543
    1   AR   Ar  198   0.055   1.346   1.316
    1   AR   Ar  199   5.351   1.576   1.805
    1   AR   Ar  200   6.449   2.109   0.125
    1   AR   Ar  201   4.863   6.997   3.102
    1   AR   Ar  202   5.296   2.544   4.649
    1   AR   Ar  203   6.185   6.664   4.717
    1   AR   Ar  204   5.287   0.307   3.968
    1   AR   Ar  205   5.839   0.283   3.062
    1   AR   Ar  206   4.977   0.379   5.142
    1   AR   Ar  207   0.289   0.325   5.787
    1   AR   Ar  208   6.571   0.095   3.905
    1   AR   Ar  209   5.754   2.705  -2.111
    1   AR   Ar  210   4.402   1.152   1.042
    1   AR   Ar  211   0.069   3.426   0.074
    1   AR   Ar  212   6.350   3.924  -1.402
    1   AR   Ar  213   3.243   1.998   1.889
    1   AR   Ar  214   3.828   2.647   2.497
    1   AR   Ar  215   6.351   2.232   1.558
    1   AR   Ar  216   0.125   4.262   0.987
    1   AR   Ar  217   4.611   2.832   3.871
    1   AR   Ar  218   4.353   2.698   5.093
    1   AR   Ar  219   5.236   2.033   3.528
    1   AR   Ar  220   5.095   3.296   2.396
    1   AR   Ar  221   5.985   0.617   4.907
    1   AR   Ar  222   4.924   1.964   6.398
    1   AR   Ar  223   0.774   0.663   6.592
    1   AR   Ar  224   5.006   2.925   5.979
    1   AR   Ar  225   6.072   4.575   1.086
    1   AR   Ar  226   4.476   4.195   2.142
    1   AR   Ar  227   0.466   5.189   0.312
    1   AR   Ar  228   5.144   5.969   1.269
    1   AR   Ar  229   6.069   4.073   0.034
    1   AR   Ar  230   4.422   4.435   3.506
    1   AR   Ar  231   6.272   1.877   3.238
    1   AR   Ar  232   4.054   2.737   0.739
    1   AR   Ar  233   6.408   2.751   4.279
    1   AR   Ar  234   6.956   3.302   5.113
    1   AR   Ar  235   0.271   2.366   4.168
    1   AR   Ar  236   5.419   4.906   4.907
    1   AR   Ar  237   5.919   3.915   5.094
    1   AR   Ar  238   4.905   3.745   5.202
    1   AR   Ar  239   6.859   4.063   9.005
    1   AR   Ar  240   6.254   3.608   6.028
    1   AR   Ar  241   0.546   7.037  -0.010
    1   AR   Ar  242   4.674   4.842   0.149
    1   AR   Ar  243   5.775   4.141   2.860
    1   AR   Ar  244   1.366   5.205  -0.449
    1   AR   Ar  245   5.792   0.173   1.001
    1   AR   Ar  246   6.139   6.034   1.338
    1   AR   Ar  247   4.579   3.944   1.165
    1   AR   Ar  248   5.638   6.209  -0.066
    1   AR   Ar  249   4.687   5.788   2.353
    1   AR   Ar  250   5.138   6.354   4.865
    1   AR   Ar  251   6.013   5.270   4.231
    1   AR   Ar  252   4.858   5.715   3.553
    1   AR   Ar  253   5.276   4.016   6.189
    1   AR   Ar  254   4.173   5.479   7.212
    1   AR   Ar  255   4.891   3.051   7.257
    1   AR   Ar  256   5.732   6.410   3.800
    7.12000  7.12000 12.00000
Argon-slab step 2415
  256
    1   AR   Ar    1   6.576   1.224  -0.644
    1   AR   Ar    2   6.947   7.101   0.967
    1   AR   Ar    3   0.975   0.412   1.135
    1   AR   Ar    4   1.645   0.351  -0.560
    1   AR   Ar    5   6.881   5.975   0.434
    1   AR   Ar    6   6.744   0.662   2.854
    1   AR   Ar    7   6.461   4.663   3.393
    1   AR   Ar    8   6.581   6.998   2.055
    1   AR   Ar    9   0.764   0.477   3.857
    1   AR   Ar   10   0.855   1.491   4.246
    1   AR   Ar   11   2.848   0.127   4.685
    1   AR   Ar   12   0.894   1.421   3.188
    1   AR   Ar   13   6.969   1.101   4.821
    1   AR   Ar   14   1.367   1.330   7.334
    1   AR   Ar   15   6.363   0.353   9.311
    1   AR   Ar   16   1.177   0.597   5.151
    1   AR   Ar   17   1.084   1.863  -0.115
    1   AR   Ar   18   6.002   2.798  -0.747
    1   AR   Ar   19   1.579   2.796   1.702
    1   AR   Ar   20   5.557   3.859  -2.545
    1   AR   Ar   21   6.103   0.775   1.980
    1   AR   Ar   22   7.014   1.851   2.331
    1   AR   Ar   23   0.523   0.916   0.297
    1   AR   Ar   24   0.218   2.510   0.976
    1   AR   Ar   25   7.104   1.261   3.755
    1   AR   Ar   26   6.050   1.102   3.945
    1   AR   Ar   27   1.860   1.362   3.809
    1   AR   Ar   28   1.367   2.701   4.583
    1   AR   Ar   29   5.868   2.232   7.190
    1   AR   Ar   30   0.588   1.987   6.409
    1   AR   Ar   31   1.154   6.402   7.391
    1   AR   Ar   32   1.497   2.447   6.388
    1   AR   Ar   33   1.407   3.979  -0.378
    1   AR   Ar   34   0.224   5.559   2.916
    1   AR   Ar   35   6.468   4.941   2.188
    1   AR   Ar   36   0.250   0.516  -3.413
    1   AR   Ar   37   6.442   3.269   2.380
    1   AR   Ar   38   0.290   4.342   2.626
    1   AR   Ar   39   1.221   3.839   2.974
    1   AR   Ar   40   1.362   3.671   0.978
    1   AR   Ar   41   0.257   2.596   3.029
    1   AR   Ar   42   6.625   5.546   5.177
    1   AR   Ar   43   6.639   2.618   5.939
    1   AR   Ar   44   0.428   4.374   3.759
    1   AR   Ar   45   0.762   2.914   5.410
    1   AR   Ar   46   1.614   5.825   6.182
    1   AR   Ar   47   5.826   3.215   6.883
    1   AR   Ar   48   0.054   6.565   6.502
    1   AR   Ar   49   5.972   0.113  -1.555
    1   AR   Ar   50   5.419   4.902   2.246
    1   AR   Ar   51   0.189   5.083   1.537
    1   AR   Ar   52   6.097   4.970  -1.477
    1   AR   Ar   53   5.669   6.457   2.193
    1   AR   Ar   54   6.669   6.426   2.877
    1   AR   Ar   55   5.672   5.304   3.152
    1   AR   Ar   56   0.506   7.027   1.966
    1   AR   Ar   57   5.844   2.930   3.243
    1   AR   Ar   58   7.079   5.272   4.178
    1   AR   Ar   59   1.937   5.277   5.334
    1   AR   Ar   60   0.257   6.315   4.016
    1   AR   Ar   61   6.308   4.528   5.895
    1   AR   Ar   62   0.881   5.821   5.233
    1   AR   Ar   63   2.502   5.937   6.829
    1   AR   Ar   64   1.231   6.853   5.654
    1   AR   Ar   65   3.883   6.953   0.768
    1   AR   Ar   66   1.129   1.502   1.276
    1   AR   Ar   67   3.248   6.098  -0.540
    1   AR   Ar   68   3.216   1.414  -1.465
    1   AR   Ar   69   2.693   1.263   0.861
    1   AR   Ar   70   0.618   0.869   2.330
    1   AR   Ar   71   3.089   1.266   2.725
    1   AR   Ar   72   3.591   0.682   1.717
    1   AR   Ar   73   2.731   7.029   3.650
    1   AR   Ar   74   2.100   0.806   4.817
    1   AR   Ar   75   3.509   1.368   5.090
    1   AR   Ar   76   2.150   0.963   1.727
    1   AR   Ar   77   2.381   6.257   5.658
    1   AR   Ar   78   1.811   7.069   6.743
    1   AR   Ar   79   3.829   7.078   6.511
    1   AR   Ar   80   3.098   5.548   6.016
    1   AR   Ar   81   2.029   1.565  -0.553
    1   AR   Ar   82   0.054   4.721  -0.443
    1   AR   Ar   83   1.533   2.358   0.724
    1   AR   Ar   84   0.489   3.849  -0.810
    1   AR   Ar   85   1.173   3.147   0.071
    1   AR   Ar   86   2.329   3.209   1.072
    1   AR   Ar   87   2.496   2.163   1.171
    1   AR   Ar   88   3.492   4.224   1.751
    1   AR   Ar   89   0.515   3.073   2.020
    1   AR   Ar   90   2.757   2.055   5.200
    1   AR   Ar   91   1.383   2.282   3.679
    1   AR   Ar   92   0.923   1.900   2.144
    1   AR   Ar   93   1.680   1.124   6.232
    1   AR   Ar   94   1.618   0.640   9.475
    1   AR   Ar   95   4.055   0.875   5.999
    1   AR   Ar   96   3.045   0.643   5.781
    1   AR   Ar   97   3.897   2.257  -1.326
    1   AR   Ar   98   2.508   4.919   2.315
    1   AR   Ar   99   7.045   2.013  -1.547
    1   AR   Ar  100   2.134   2.726  -0.259
    1   AR   Ar  101   2.525   4.447   0.988
    1   AR   Ar  102   3.639   3.485   3.552
    1   AR   Ar  103   1.427   4.609   0.444
    1   AR   Ar  104   2.951   2.741  -1.387
    1   AR   Ar  105   2.321   3.284   4.121
    1   AR   Ar  106   2.885   3.836   4.786
    1   AR   Ar  107   1.785   4.084   5.947
    1   AR   Ar  108   3.383   2.939   5.087
    1   AR   Ar  109   1.312   3.991   4.605
    1   AR   Ar  110   1.078   4.791   6.255
    1   AR   Ar  111   4.368   3.986   6.722
    1   AR   Ar  112   1.689   5.265   7.403
    1   AR   Ar  113   2.449   4.613  -0.003
    1   AR   Ar  114   2.648   4.751  -0.988
    1   AR   Ar  115   2.803   3.759  -0.762
    1   AR   Ar  116   5.325   6.096  -1.689
    1   AR   Ar  117   1.008   5.359   3.971
    1   AR   Ar  118   0.861   6.660   2.949
    1   AR   Ar  119   2.400   3.810   2.190
    1   AR   Ar  120   1.191   5.032   2.771
    1   AR   Ar  121   6.793   4.407   4.551
    1   AR   Ar  122   3.177   5.721   5.009
    1   AR   Ar  123   2.704   4.790   4.783
    1   AR   Ar  124   1.661   4.663   1.679
    1   AR   Ar  125   0.157   3.938   5.800
    1   AR   Ar  126   0.308   7.005   4.892
    1   AR   Ar  127   3.117   4.286   7.107
    1   AR   Ar  128   2.411   4.841   6.577
    1   AR   Ar  129   1.861   0.569   3.155
    1   AR   Ar  130   3.764   1.905  -2.241
    1   AR   Ar  131   4.796   0.383   0.425
    1   AR   Ar  132   1.862   1.984  -1.670
    1   AR   Ar  133   4.240   0.569   2.551
    1   AR   Ar  134   4.781   1.244   3.864
    1   AR   Ar  135   5.584   1.289   2.771
    1   AR   Ar  136   5.078   0.392   1.831
    1   AR   Ar  137   2.720   6.044   4.019
    1   AR   Ar  138   4.684   1.617   5.104
    1   AR   Ar  139   5.680   2.322   5.550
    1   AR   Ar  140   4.025   0.382   4.441
    1   AR   Ar  141   3.936   6.591   4.255
    1   AR   Ar  142   3.661   6.798   5.332
    1   AR   Ar  143   6.198   6.979   5.803
    1   AR   Ar  144   5.439   1.199   5.682
    1   AR   Ar  145   3.360   3.806   0.807
    1   AR   Ar  146   4.434   2.027   1.650
    1   AR   Ar  147   6.075   1.873  -1.358
    1   AR   Ar  148   4.251   3.920  -2.189
    1   AR   Ar  149   3.494   1.978   0.905
    1   AR   Ar  150   2.228   1.810   2.527
    1   AR   Ar  151   2.921   2.224   3.190
    1   AR   Ar  152   3.121   2.706   0.327
    1   AR   Ar  153   3.077   0.946   3.960
    1   AR   Ar  154   3.836   1.897   4.146
    1   AR   Ar  155   6.739   1.310   5.864
    1   AR   Ar  156   4.036   4.187   4.658
    1   AR   Ar  157   2.566   2.942   6.194
    1   AR   Ar  158   1.072   3.450   6.504
    1   AR   Ar  159   3.850   1.989   5.870
    1   AR   Ar  160   2.658   1.833   6.366
    1   AR   Ar  161   5.539   3.067   1.424
    1   AR   Ar  162   4.467   5.845  -0.722
    1   AR   Ar  163   5.604   2.690   0.363
    1   AR   Ar  164   3.908   5.632   1.819
    1   AR   Ar  165   3.370   3.143   1.631
    1   AR   Ar  166   2.958   4.514   3.658
    1   AR   Ar  167   4.337   1.712   2.777
    1   AR   Ar  168   4.952   3.189  -0.932
    1   AR   Ar  169   2.555   2.776   2.139
    1   AR   Ar  170   3.069   4.037   5.904
    1   AR   Ar  171   5.170   3.863   3.828
    1   AR   Ar  172   4.515   5.312   4.450
    1   AR   Ar  173   2.188   3.706   6.955
    1   AR   Ar  174   3.880   4.880   6.457
    1   AR   Ar  175   3.791   3.002   6.076
    1   AR   Ar  176   3.630   4.853   5.385
    1   AR   Ar  177   6.309   5.127   0.253
    1   AR   Ar  178   2.906   5.651   0.265
    1   AR   Ar  179   4.153   5.735   0.769
    1   AR   Ar  180   1.691   3.078  -1.622
    1   AR   Ar  181   1.043   5.837   0.940
    1   AR   Ar  182   2.817   0.269   2.444
    1   AR   Ar  183   3.626   5.001   2.565
    1   AR   Ar  184   4.373   6.609   1.570
    1   AR   Ar  185   2.076   5.206   4.140
    1   AR   Ar  186   3.850   5.603   3.712
    1   AR   Ar  187   3.978   6.631   2.987
    1   AR   Ar  188   3.169   6.577   1.406
    1   AR   Ar  189   3.162   3.128   7.072
    1   AR   Ar  190   5.226   6.586   5.848
    1   AR   Ar  191   5.015   5.066   5.982
    1   AR   Ar  192   4.189   5.817   5.501
    1   AR   Ar  193   1.065   6.648  -1.167
    1   AR   Ar  194   5.285   4.044  -1.492
    1   AR   Ar  195   6.535   0.346   0.081
    1   AR   Ar  196   4.879   6.819  -0.584
    1   AR   Ar  197   5.338   1.433   0.570
    1   AR   Ar  198   0.043   1.357   1.316
    1   AR   Ar  199   5.349   1.599   1.787
    1   AR   Ar  200   6.488   2.096   0.135
    1   AR   Ar  201   4.865   7.030   3.143
    1   AR   Ar  202   5.294   2.536   4.626
    1   AR   Ar  203   6.199   6.631   4.747
    1   AR   Ar  204   5.304   0.292   3.980
    1   AR   Ar  205   5.813   0.288   3.042
    1   AR   Ar  206   4.971   0.419   5.129
    1   AR   Ar  207   0.279   0.305   5.782
    1   AR   Ar  208   6.574   0.102   3.885
    1   AR   Ar  209   5.733   2.688  -2.129
    1   AR   Ar  210   4.412   1.178   1.005
    1   AR   Ar  211   0.039   3.404   0.059
    1   AR   Ar  212   6.360   3.915  -1.345
    1   AR   Ar  213   3.252   1.984   1.901
    1   AR   Ar  214   3.833   2.672   2.498
    1   AR   Ar  215   6.331   2.228   1.529
    1   AR   Ar  216   0.144   4.257   0.993
    1   AR   Ar  217   4.598   2.860   3.881
    1   AR   Ar  218   4.357   2.722   5.083
    1   AR   Ar  219   5.261   2.049   3.531
    1   AR   Ar  220   5.046   3.330   2.390
    1   AR   Ar  221   5.980   0.627   4.920
    1   AR   Ar  222   4.921   1.967   6.391
    1   AR   Ar  223   0.789   0.661   6.582
    1   AR   Ar  224   5.000   2.960   5.970
    1   AR   Ar  225   6.069   4.548   1.105
    1   AR   Ar  226   4.469   4.179   2.179
    1   AR   Ar  227   0.435   5.189   0.311
    1   AR   Ar  228   5.139   5.992   1.263
    1   AR   Ar  229   6.046   4.078   0.026
    1   AR   Ar  230   4.429   4.424   3.530
    1   AR   Ar  231   6.250   1.895   3.262
    1   AR   Ar  232   4.070   2.746   0.725
    1   AR   Ar  233   6.431   2.732   4.247
    1   AR   Ar  234   6.975   3.328   5.100
    1   AR   Ar  235   0.267   2.358   4.169
    1   AR   Ar  236   5.407   4.910   4.922
    1   AR   Ar  237   5.947   3.923   5.070
    1   AR   Ar  238   4.910   3.733   5.191
    1   AR   Ar  239   6.865   4.082   9.025
    1   AR   Ar  240   6.269   3.573   6.037
    1   AR   Ar  241   0.540   7.020  -0.015
    1   AR   Ar  242   4.698   4.865   0.141
    1   AR   Ar  243   5.779   4.131   2.843
    1   AR   Ar  244   1.379   5.236  -0.446
    1   AR   Ar  245   5.804   0.170   0.988
    1   AR   Ar  246   6.175   6.040   1.334
    1   AR   Ar  247   4.586   3.948   1.139
    1   AR   Ar  248   5.642   6.197  -0.085
    1   AR   Ar  249   4.691   5.815   2.318
    1   AR   Ar  250   5.119   6.376   4.863
    1   AR   Ar  251   6.033   5.256   4.227
    1   AR   Ar  252   4.851   5.709   3.549
    1   AR   Ar  253   5.274   4.011   6.177
    1   AR   Ar  254   4.185   5.477   7.231
    1   AR   Ar  255   4.904   3.027   7.273
    1   AR   Ar  256   5.698   6.396   3.782
    7.12000  7.12000 12.00000
Argon-slab step 2420
  256
    1   AR   Ar    1   6.569   1.205  -0.670
    1   AR   Ar    2   6.987   7.084   0.975
    1   AR   Ar    3   0.956   0.361   1.089
    1   AR   Ar    4   1.668   0.351  -0.582
    1   AR   Ar    5   6.880   5.974   0.446
    1   AR   Ar    6   6.743   0.683   2.876
    1   AR   Ar    7   6.491   4.646   3.402
    1   AR   Ar    8   6.584   6.983   2.049
    1   AR   Ar    9   0.741   0.468   3.866
    1   AR   Ar   10   0.839   1.494   4.252
    1   AR   Ar   11   2.804   0.124   4.667
    1   AR   Ar   12   0.924   1.454   3.167
    1   AR   Ar   13   6.957   1.166   4.866
    1   AR   Ar   14   1.384   1.335   7.339
    1   AR   Ar   15   6.358   0.355   9.313
    1   AR   Ar   16   1.161   0.587   5.131
    1   AR   Ar   17   1.054   1.866  -0.111
    1   AR   Ar   18   5.996   2.783  -0.730
    1   AR   Ar   19   1.578   2.812   1.696
    1   AR   Ar   20   5.562   3.885  -2.554
    1   AR   Ar   21   6.102   0.762   1.983
    1   AR   Ar   22   6.973   1.843   2.371
    1   AR   Ar   23   0.483   0.919   0.267
    1   AR   Ar   24   0.242   2.484   1.010
    1   AR   Ar   25   7.112   1.247   3.768
    1   AR   Ar   26   6.031   1.094   3.950
    1   AR   Ar   27   1.868   1.334   3.803
    1   AR   Ar   28   1.350   2.675   4.585
    1   AR   Ar   29   5.881   2.234   7.192
    1   AR   Ar   30   0.559   1.998   6.406
    1   AR   Ar   31   1.132   6.379   7.415
    1   AR   Ar   32   1.500   2.452   6.398
    1   AR   Ar   33   1.423   3.967  -0.333
    1   AR   Ar   34   0.202   5.562   2.932
    1   AR   Ar   35   6.420   4.958   2.176
    1   AR   Ar   36   0.263   0.522  -3.412
    1   AR   Ar   37   6.414   3.243   2.401
    1   AR   Ar   38   0.303   4.337   2.622
    1   AR   Ar   39   1.205   3.856   2.972
    1   AR   Ar   40   1.351   3.648   0.977
    1   AR   Ar   41   0.249   2.617   3.056
    1   AR   Ar   42   6.606   5.522   5.185
    1   AR   Ar   43   6.642   2.652   5.929
    1   AR   Ar   44   0.452   4.351   3.760
    1   AR   Ar   45   0.751   2.917   5.401
    1   AR   Ar   46   1.630   5.842   6.188
    1   AR   Ar   47   5.791   3.233   6.880
    1   AR   Ar   48   0.092   6.566   6.511
    1   AR   Ar   49   5.964   0.119  -1.532
    1   AR   Ar   50   5.411   4.922   2.235
    1   AR   Ar   51   0.197   5.110   1.568
    1   AR   Ar   52   6.036   4.958  -1.472
    1   AR   Ar   53   5.662   6.452   2.186
    1   AR   Ar   54   6.643   6.406   2.872
    1   AR   Ar   55   5.682   5.307   3.174
    1   AR   Ar   56   0.499   7.036   1.954
    1   AR   Ar   57   5.811   2.923   3.248
    1   AR   Ar   58   7.092   5.280   4.177
    1   AR   Ar   59   1.942   5.274   5.325
    1   AR   Ar   60   0.261   6.310   4.014
    1   AR   Ar   61   6.329   4.518   5.909
    1   AR   Ar   62   0.886   5.833   5.247
    1   AR   Ar   63   2.493   5.952   6.833
    1   AR   Ar   64   1.204   6.835   5.606
    1   AR   Ar   65   3.897   6.964   0.752
    1   AR   Ar   66   1.135   1.540   1.275
    1   AR   Ar   67   3.270   6.089  -0.577
    1   AR   Ar   68   3.209   1.402  -1.422
    1   AR   Ar   69   2.703   1.268   0.858
    1   AR   Ar   70   0.597   0.883   2.316
    1   AR   Ar   71   3.065   1.283   2.732
    1   AR   Ar   72   3.611   0.680   1.745
    1   AR   Ar   73   2.741   7.022   3.634
    1   AR   Ar   74   2.133   0.810   4.807
    1   AR   Ar   75   3.475   1.381   5.060
    1   AR   Ar   76   2.120   0.941   1.704
    1   AR   Ar   77   2.401   6.257   5.672
    1   AR   Ar   78   1.778   7.087   6.746
    1   AR   Ar   79   3.847   7.098   6.524
    1   AR   Ar   80   3.094   5.547   5.987
    1   AR   Ar   81   1.993   1.569  -0.533
    1   AR   Ar   82   0.057   4.752  -0.500
    1   AR   Ar   83   1.518   2.365   0.693
    1   AR   Ar   84   0.468   3.891  -0.794
    1   AR   Ar   85   1.174   3.138   0.093
    1   AR   Ar   86   2.307   3.210   1.066
    1   AR   Ar   87   2.472   2.156   1.167
    1   AR   Ar   88   3.469   4.243   1.797
    1   AR   Ar   89   0.470   3.059   2.026
    1   AR   Ar   90   2.738   2.070   5.192
    1   AR   Ar   91   1.373   2.277   3.656
    1   AR   Ar   92   0.940   1.903   2.152
    1   AR   Ar   93   1.697   1.099   6.248
    1   AR   Ar   94   1.625   0.625   9.482
    1   AR   Ar   95   4.078   0.885   6.010
    1   AR   Ar   96   3.044   0.633   5.780
    1   AR   Ar   97   3.916   2.242  -1.305
    1   AR   Ar   98   2.494   4.930   2.353
    1   AR   Ar   99   7.041   1.985  -1.546
    1   AR   Ar  100   2.153   2.686  -0.264
    1   AR   Ar  101   2.518   4.449   1.019
    1   AR   Ar  102   3.645   3.476   3.574
    1   AR   Ar  103   1.424   4.621   0.430
    1   AR   Ar  104   2.931   2.737  -1.403
    1   AR   Ar  105   2.364   3.260   4.101
    1   AR   Ar  106   2.892   3.800   4.820
    1   AR   Ar  107   1.783   4.056   5.945
    1   AR   Ar  108   3.377   2.926   5.082
    1   AR   Ar  109   1.275   3.993   4.580
    1   AR   Ar  110   1.080   4.789   6.265
    1   AR   Ar  111   4.378   3.942   6.739
    1   AR   Ar  112   1.718   5.273   7.388
    1   AR   Ar  113   2.465   4.568  -0.025
    1   AR   Ar  114   2.612   4.758  -0.990
    1   AR   Ar  115   2.819   3.753  -0.752
    1   AR   Ar  116   5.334   6.127  -1.704
    1   AR   Ar  117   1.025   5.364   3.941
    1   AR   Ar  118   0.857   6.654   2.936
    1   AR   Ar  119   2.391   3.804   2.193
    1   AR   Ar  120   1.197   5.060   2.789
    1   AR   Ar  121   6.799   4.389   4.514
    1   AR   Ar  122   3.159   5.712   5.017
    1   AR   Ar  123   2.701   4.828   4.800
    1   AR   Ar  124   1.648   4.678   1.704
    1   AR   Ar  125   0.121   3.899   5.785
    1   AR   Ar  126   0.318   7.015   4.881
    1   AR   Ar  127   3.112   4.302   7.090
    1   AR   Ar  128   2.407   4.827   6.575
    1   AR   Ar  129   1.856   0.577   3.182
    1   AR   Ar  130   3.790   1.920  -2.244
    1   AR   Ar  131   4.793   0.363   0.384
    1   AR   Ar  132   1.843   1.962  -1.640
    1   AR   Ar  133   4.212   0.549   2.552
    1   AR   Ar  134   4.777   1.200   3.897
    1   AR   Ar  135   5.583   1.285   2.773
    1   AR   Ar  136   5.050   0.385   1.838
    1   AR   Ar  137   2.727   6.032   4.060
    1   AR   Ar  138   4.686   1.600   5.121
    1   AR   Ar  139   5.679   2.320   5.534
    1   AR   Ar  140   4.014   0.400   4.424
    1   AR   Ar  141   3.936   6.561   4.269
    1   AR   Ar  142   3.646   6.807   5.303
    1   AR   Ar  143   6.224   6.978   5.822
    1   AR   Ar  144   5.458   1.221   5.725
    1   AR   Ar  145   3.376   3.782   0.796
    1   AR   Ar  146   4.422   2.061   1.664
    1   AR   Ar  147   6.081   1.914  -1.381
    1   AR   Ar  148   4.256   3.951  -2.215
    1   AR   Ar  149   3.480   1.971   0.920
    1   AR   Ar  150   2.214   1.812   2.505
    1   AR   Ar  151   2.924   2.246   3.166
    1   AR   Ar  152   3.113   2.702   0.343
    1   AR   Ar  153   3.079   0.954   3.955
    1   AR   Ar  154   3.836   1.911   4.160
    1   AR   Ar  155   6.733   1.276   5.834
    1   AR   Ar  156   4.037   4.187   4.633
    1   AR   Ar  157   2.551   2.982   6.200
    1   AR   Ar  158   1.073   3.457   6.524
    1   AR   Ar  159   3.877   1.993   5.856
    1   AR   Ar  160   2.671   1.789   6.351
    1   AR   Ar  161   5.555   3.065   1.415
    1   AR   Ar  162   4.457   5.848  -0.712
    1   AR   Ar  163   5.600   2.643   0.371
    1   AR   Ar  164   3.867   5.621   1.821
    1   AR   Ar  165   3.381   3.132   1.620
    1   AR   Ar  166   3.002   4.513   3.623
    1   AR   Ar  167   4.369   1.724   2.791
    1   AR   Ar  168   4.972   3.179  -0.958
    1   AR   Ar  169   2.563   2.778   2.145
    1   AR   Ar  170   3.044   4.048   5.915
    1   AR   Ar  171   5.188   3.844   3.812
    1   AR   Ar  172   4.529   5.302   4.450
    1   AR   Ar  173   2.207   3.679   6.970
    1   AR   Ar  174   3.868   4.881   6.471
    1   AR   Ar  175   3.802   2.986   6.094
    1   AR   Ar  176   3.625   4.825   5.414
    1   AR   Ar  177   6.330   5.147   0.255
    1   AR   Ar  178   2.903   5.616   0.242
    1   AR   Ar  179   4.141   5.733   0.756
    1   AR   Ar  180   1.670   3.050  -1.638
    1   AR   Ar  181   1.029   5.825   0.939
    1   AR   Ar  182   2.815   0.291   2.479
    1   AR   Ar  183   3.611   4.996   2.568
    1   AR   Ar  184   4.356   6.627   1.582
    1   AR   Ar  185   2.053   5.201   4.148
    1   AR   Ar  186   3.828   5.588   3.725
    1   AR   Ar  187   3.980   6.607   3.005
    1   AR   Ar  188   3.166   6.611   1.433
    1   AR   Ar  189   3.128   3.094   7.132
    1   AR   Ar  190   5.213   6.580   5.834
    1   AR   Ar  191   5.011   5.048   5.975
    1   AR   Ar  192   4.198   5.791   5.480
    1   AR   Ar  193   1.088   6.656  -1.153
    1   AR   Ar  194   5.294   4.041  -1.479
    1   AR   Ar  195   6.509   0.347   0.076
    1   AR   Ar  196   4.895   6.843  -0.592
    1   AR   Ar  197   5.324   1.442   0.598
    1   AR   Ar  198   0.037   1.359   1.316
    1   AR   Ar  199   5.352   1.620   1.766
    1   AR   Ar  200   6.529   2.082   0.146
    1   AR   Ar  201   4.873   7.062   3.182
    1   AR   Ar  202   5.295   2.529   4.598
    1   AR   Ar  203   6.215   6.598   4.777
    1   AR   Ar  204   5.323   0.278   4.001
    1   AR   Ar  205   5.789   0.290   3.021
    1   AR   Ar  206   4.960   0.457   5.115
    1   AR   Ar  207   0.263   0.290   5.783
    1   AR   Ar  208   6.577   0.111   3.864
    1   AR   Ar  209   5.742   2.713  -2.132
    1   AR   Ar  210   4.417   1.203   0.972
    1   AR   Ar  211   0.004   3.370   0.052
    1   AR   Ar  212   6.371   3.905  -1.287
    1   AR   Ar  213   3.262   1.967   1.919
    1   AR   Ar  214   3.837   2.697   2.501
    1   AR   Ar  215   6.310   2.224   1.500
    1   AR   Ar  216   0.179   4.239   0.997
    1   AR   Ar  217   4.583   2.889   3.891
    1   AR   Ar  218   4.368   2.743   5.073
    1   AR   Ar  219   5.276   2.047   3.546
    1   AR   Ar  220   5.000   3.361   2.386
    1   AR   Ar  221   5.978   0.636   4.933
    1   AR   Ar  222   4.919   1.969   6.383
    1   AR   Ar  223   0.807   0.660   6.577
    1   AR   Ar  224   5.010   2.991   5.962
    1   AR   Ar  225   6.066   4.520   1.128
    1   AR   Ar  226   4.462   4.167   2.220
    1   AR   Ar  227   0.413   5.191   0.322
    1   AR   Ar  228   5.134   6.011   1.255
    1   AR   Ar  229   6.025   4.081   0.017
    1   AR   Ar  230   4.432   4.415   3.551
    1   AR   Ar  231   6.239   1.917   3.286
    1   AR   Ar  232   4.099   2.768   0.711
    1   AR   Ar  233   6.448   2.714   4.215
    1   AR   Ar  234   6.985   3.346   5.075
    1   AR   Ar  235   0.268   2.350   4.169
    1   AR   Ar  236   5.387   4.916   4.951
    1   AR   Ar  237   5.977   3.931   5.043
    1   AR   Ar  238   4.889   3.710   5.204
    1   AR   Ar  239   6.872   4.100   9.046
    1   AR   Ar  240   6.284   3.527   6.043
    1   AR   Ar  241   0.533   7.001  -0.019
    1   AR   Ar  242   4.723   4.889   0.135
    1   AR   Ar  243   5.780   4.115   2.826
    1   AR   Ar  244   1.391   5.265  -0.442
    1   AR   Ar  245   5.817   0.170   0.989
    1   AR   Ar  246   6.218   6.046   1.329
    1   AR   Ar  247   4.592   3.950   1.111
    1   AR   Ar  248   5.647   6.184  -0.102
    1   AR   Ar  249   4.715   5.847   2.297
    1   AR   Ar  250   5.098   6.396   4.852
    1   AR   Ar  251   6.054   5.246   4.216
    1   AR   Ar  252   4.843   5.711   3.544
    1   AR   Ar  253   5.274   4.005   6.172
    1   AR   Ar  254   4.199   5.477   7.254
    1   AR   Ar  255   4.910   3.002   7.289
    1   AR   Ar  256   5.665   6.382   3.763
    7.12000  7.12000 12.00000
Argon-slab step 2425
  256
    1   AR   Ar    1   6.565   1.191  -0.686
    1   AR   Ar    2   7.008   7.097   0.959
    1   AR   Ar    3   0.938   0.312   1.043
    1   AR   Ar    4   1.690   0.351  -0.603
    1   AR   Ar    5   6.876   5.971   0.453
    1   AR   Ar    6   6.750   0.696   2.877
    1   AR   Ar    7   6.526   4.630   3.412
    1   AR   Ar    8   6.585   6.969   2.036
    1   AR   Ar    9   0.718   0.457   3.876
    1   AR   Ar   10   0.832   1.495   4.266
    1   AR   Ar   11   2.774   0.114   4.653
    1   AR   Ar   12   0.954   1.485   3.146
    1   AR   Ar   13   6.948   1.230   4.900
    1   AR   Ar   14   1.402   1.341   7.342
    1   AR   Ar   15   6.353   0.356   9.315
    1   AR   Ar   16   1.141   0.586   5.106
    1   AR   Ar   17   1.021   1.870  -0.107
    1   AR   Ar   18   6.015   2.781  -0.729
    1   AR   Ar   19   1.572   2.827   1.693
    1   AR   Ar   20   5.559   3.890  -2.570
    1   AR   Ar   21   6.098   0.751   1.994
    1   AR   Ar   22   6.931   1.832   2.411
    1   AR   Ar   23   0.443   0.924   0.238
    1   AR   Ar   24   0.267   2.457   1.045
    1   AR   Ar   25   7.112   1.233   3.775
    1   AR   Ar   26   6.013   1.083   3.959
    1   AR   Ar   27   1.877   1.315   3.807
    1   AR   Ar   28   1.335   2.651   4.591
    1   AR   Ar   29   5.893   2.234   7.193
    1   AR   Ar   30   0.549   2.001   6.379
    1   AR   Ar   31   1.110   6.356   7.437
    1   AR   Ar   32   1.507   2.464   6.386
    1   AR   Ar   33   1.447   3.966  -0.299
    1   AR   Ar   34   0.181   5.562   2.950
    1   AR   Ar   35   6.379   4.975   2.164
    1   AR   Ar   36   0.276   0.529  -3.412
    1   AR   Ar   37   6.386   3.216   2.421
    1   AR   Ar   38   0.314   4.335   2.616
    1   AR   Ar   39   1.190   3.873   2.971
    1   AR   Ar   40   1.337   3.629   0.980
    1   AR   Ar   41   0.240   2.638   3.084
    1   AR   Ar   42   6.586   5.498   5.191
    1   AR   Ar   43   6.656   2.666   5.915
    1   AR   Ar   44   0.477   4.329   3.759
    1   AR   Ar   45   0.741   2.919   5.399
    1   AR   Ar   46   1.639   5.857   6.199
    1   AR   Ar   47   5.759   3.254   6.876
    1   AR   Ar   48   0.131   6.568   6.518
    1   AR   Ar   49   5.953   0.123  -1.541
    1   AR   Ar   50   5.393   4.942   2.221
    1   AR   Ar   51   0.207   5.142   1.600
    1   AR   Ar   52   5.984   4.945  -1.464
    1   AR   Ar   53   5.653   6.448   2.181
    1   AR   Ar   54   6.617   6.383   2.875
    1   AR   Ar   55   5.700   5.309   3.194
    1   AR   Ar   56   0.492   7.041   1.941
    1   AR   Ar   57   5.776   2.920   3.254
    1   AR   Ar   58   0.014   5.289   4.186
    1   AR   Ar   59   1.944   5.272   5.318
    1   AR   Ar   60   0.265   6.308   4.010
    1   AR   Ar   61   6.331   4.494   5.917
    1   AR   Ar   62   0.903   5.866   5.244
    1   AR   Ar   63   2.484   5.967   6.837
    1   AR   Ar   64   1.178   6.808   5.565
    1   AR   Ar   65   3.910   6.978   0.728
    1   AR   Ar   66   1.144   1.570   1.259
    1   AR   Ar   67   3.296   6.082  -0.620
    1   AR   Ar   68   3.201   1.392  -1.378
    1   AR   Ar   69   2.695   1.253   0.852
    1   AR   Ar   70   0.610   0.866   2.333
    1   AR   Ar   71   3.046   1.296   2.742
    1   AR   Ar   72   3.623   0.689   1.753
    1   AR   Ar   73   2.766   7.011   3.618
    1   AR   Ar   74   2.159   0.827   4.799
    1   AR   Ar   75   3.452   1.393   5.036
    1   AR   Ar   76   2.089   0.921   1.684
    1   AR   Ar   77   2.423   6.262   5.681
    1   AR   Ar   78   1.744   7.104   6.747
    1   AR   Ar   79   3.864   7.116   6.536
    1   AR   Ar   80   3.090   5.542   5.972
    1   AR   Ar   81   1.958   1.573  -0.514
    1   AR   Ar   82   0.051   4.786  -0.561
    1   AR   Ar   83   1.508   2.335   0.654
    1   AR   Ar   84   0.449   3.924  -0.782
    1   AR   Ar   85   1.167   3.115   0.116
    1   AR   Ar   86   2.291   3.214   1.057
    1   AR   Ar   87   2.441   2.169   1.185
    1   AR   Ar   88   3.443   4.262   1.842
    1   AR   Ar   89   0.425   3.044   2.032
    1   AR   Ar   90   2.741   2.105   5.193
    1   AR   Ar   91   1.362   2.274   3.626
    1   AR   Ar   92   0.959   1.898   2.162
    1   AR   Ar   93   1.717   1.076   6.263
    1   AR   Ar   94   1.632   0.611   9.488
    1   AR   Ar   95   4.105   0.897   6.018
    1   AR   Ar   96   3.041   0.622   5.777
    1   AR   Ar   97   3.937   2.231  -1.274
    1   AR   Ar   98   2.482   4.940   2.391
    1   AR   Ar   99   7.050   1.958  -1.545
    1   AR   Ar  100   2.173   2.647  -0.268
    1   AR   Ar  101   2.509   4.449   1.054
    1   AR   Ar  102   3.651   3.469   3.596
    1   AR   Ar  103   1.421   4.637   0.426
    1   AR   Ar  104   2.909   2.732  -1.419
    1   AR   Ar  105   2.404   3.233   4.078
    1   AR   Ar  106   2.901   3.768   4.855
    1   AR   Ar  107   1.786   4.027   5.943
    1   AR   Ar  108   3.366   2.912   5.077
    1   AR   Ar  109   1.239   3.994   4.556
    1   AR   Ar  110   1.082   4.788   6.275
    1   AR   Ar  111   4.386   3.895   6.755
    1   AR   Ar  112   1.746   5.282   7.371
    1   AR   Ar  113   2.482   4.530  -0.059
    1   AR   Ar  114   2.577   4.770  -1.002
    1   AR   Ar  115   2.833   3.741  -0.740
    1   AR   Ar  116   5.344   6.157  -1.718
    1   AR   Ar  117   1.040   5.370   3.909
    1   AR   Ar  118   0.851   6.649   2.925
    1   AR   Ar  119   2.381   3.803   2.193
    1   AR   Ar  120   1.202   5.086   2.807
    1   AR   Ar  121   6.801   4.364   4.481
    1   AR   Ar  122   3.144   5.714   5.015
    1   AR   Ar  123   2.707   4.858   4.819
    1   AR   Ar  124   1.633   4.691   1.728
    1   AR   Ar  125   0.095   3.876   5.791
    1   AR   Ar  126   0.327   7.030   4.873
    1   AR   Ar  127   3.112   4.314   7.074
    1   AR   Ar  128   2.398   4.815   6.567
    1   AR   Ar  129   1.851   0.576   3.200
    1   AR   Ar  130   3.815   1.931  -2.255
    1   AR   Ar  131   4.793   0.342   0.343
    1   AR   Ar  132   1.826   1.940  -1.608
    1   AR   Ar  133   4.187   0.529   2.558
    1   AR   Ar  134   4.770   1.153   3.931
    1   AR   Ar  135   5.578   1.283   2.776
    1   AR   Ar  136   5.024   0.378   1.846
    1   AR   Ar  137   2.737   6.020   4.101
    1   AR   Ar  138   4.680   1.590   5.126
    1   AR   Ar  139   5.661   2.322   5.521
    1   AR   Ar  140   4.021   0.413   4.412
    1   AR   Ar  141   3.936   6.514   4.281
    1   AR   Ar  142   3.631   6.816   5.276
    1   AR   Ar  143   6.252   6.979   5.841
    1   AR   Ar  144   5.479   1.243   5.771
    1   AR   Ar  145   3.393   3.758   0.782
    1   AR   Ar  146   4.403   2.098   1.677
    1   AR   Ar  147   6.073   1.953  -1.402
    1   AR   Ar  148   4.263   3.981  -2.239
    1   AR   Ar  149   3.474   1.955   0.935
    1   AR   Ar  150   2.201   1.823   2.498
    1   AR   Ar  151   2.928   2.271   3.145
    1   AR   Ar  152   3.098   2.707   0.354
    1   AR   Ar  153   3.082   0.939   3.961
    1   AR   Ar  154   3.837   1.924   4.174
    1   AR   Ar  155   6.723   1.242   5.815
    1   AR   Ar  156   4.038   4.186   4.607
    1   AR   Ar  157   2.537   3.022   6.202
    1   AR   Ar  158   1.074   3.465   6.542
    1   AR   Ar  159   3.904   1.992   5.839
    1   AR   Ar  160   2.683   1.745   6.334
    1   AR   Ar  161   5.571   3.064   1.407
    1   AR   Ar  162   4.449   5.845  -0.681
    1   AR   Ar  163   5.595   2.596   0.378
    1   AR   Ar  164   3.820   5.614   1.813
    1   AR   Ar  165   3.394   3.118   1.606
    1   AR   Ar  166   3.047   4.511   3.589
    1   AR   Ar  167   4.401   1.735   2.804
    1   AR   Ar  168   4.991   3.167  -0.983
    1   AR   Ar  169   2.571   2.776   2.153
    1   AR   Ar  170   3.001   4.082   5.909
    1   AR   Ar  171   5.218   3.816   3.799
    1   AR   Ar  172   4.541   5.289   4.455
    1   AR   Ar  173   2.223   3.654   6.984
    1   AR   Ar  174   3.855   4.879   6.481
    1   AR   Ar  175   3.813   2.978   6.114
    1   AR   Ar  176   3.622   4.795   5.442
    1   AR   Ar  177   6.348   5.161   0.256
    1   AR   Ar  178   2.897   5.577   0.226
    1   AR   Ar  179   4.129   5.732   0.743
    1   AR   Ar  180   1.650   3.022  -1.652
    1   AR   Ar  181   1.016   5.813   0.939
    1   AR   Ar  182   2.812   0.310   2.513
    1   AR   Ar  183   3.602   4.986   2.579
    1   AR   Ar  184   4.339   6.645   1.602
    1   AR   Ar  185   2.026   5.198   4.149
    1   AR   Ar  186   3.798   5.573   3.735
    1   AR   Ar  187   3.975   6.579   3.021
    1   AR   Ar  188   3.164   6.645   1.463
    1   AR   Ar  189   3.095   3.060   7.190
    1   AR   Ar  190   5.198   6.576   5.827
    1   AR   Ar  191   4.994   5.028   5.938
    1   AR   Ar  192   4.208   5.765   5.457
    1   AR   Ar  193   1.110   6.664  -1.137
    1   AR   Ar  194   5.305   4.040  -1.468
    1   AR   Ar  195   6.484   0.349   0.071
    1   AR   Ar  196   4.912   6.867  -0.601
    1   AR   Ar  197   5.317   1.454   0.624
    1   AR   Ar  198   0.041   1.347   1.314
    1   AR   Ar  199   5.358   1.638   1.744
    1   AR   Ar  200   6.571   2.067   0.156
    1   AR   Ar  201   4.873   7.088   3.216
    1   AR   Ar  202   5.297   2.521   4.566
    1   AR   Ar  203   6.231   6.565   4.805
    1   AR   Ar  204   5.346   0.265   4.035
    1   AR   Ar  205   5.773   0.290   2.998
    1   AR   Ar  206   4.944   0.492   5.101
    1   AR   Ar  207   0.242   0.278   5.789
    1   AR   Ar  208   6.581   0.119   3.843
    1   AR   Ar  209   5.759   2.750  -2.130
    1   AR   Ar  210   4.414   1.226   0.943
    1   AR   Ar  211   7.088   3.335   0.046
    1   AR   Ar  212   6.374   3.917  -1.260
    1   AR   Ar  213   3.272   1.949   1.941
    1   AR   Ar  214   3.843   2.722   2.505
    1   AR   Ar  215   6.290   2.219   1.470
    1   AR   Ar  216   0.220   4.217   0.998
    1   AR   Ar  217   4.566   2.918   3.899
    1   AR   Ar  218   4.384   2.762   5.065
    1   AR   Ar  219   5.278   2.028   3.573
    1   AR   Ar  220   4.962   3.380   2.385
    1   AR   Ar  221   5.980   0.643   4.945
    1   AR   Ar  222   4.916   1.972   6.374
    1   AR   Ar  223   0.826   0.659   6.577
    1   AR   Ar  224   5.017   3.021   5.958
    1   AR   Ar  225   6.063   4.491   1.152
    1   AR   Ar  226   4.448   4.168   2.260
    1   AR   Ar  227   0.397   5.191   0.342
    1   AR   Ar  228   5.130   6.029   1.246
    1   AR   Ar  229   6.005   4.084   0.007
    1   AR   Ar  230   4.425   4.414   3.569
    1   AR   Ar  231   6.241   1.940   3.309
    1   AR   Ar  232   4.133   2.796   0.700
    1   AR   Ar  233   6.456   2.699   4.183
    1   AR   Ar  234   6.982   3.350   5.026
    1   AR   Ar  235   0.274   2.343   4.168
    1   AR   Ar  236   5.367   4.919   4.983
    1   AR   Ar  237   6.005   3.938   5.016
    1   AR   Ar  238   4.867   3.690   5.214
    1   AR   Ar  239   6.878   4.119   9.067
    1   AR   Ar  240   6.290   3.493   6.047
    1   AR   Ar  241   0.526   6.981  -0.022
    1   AR   Ar  242   4.748   4.914   0.129
    1   AR   Ar  243   5.779   4.095   2.808
    1   AR   Ar  244   1.403   5.294  -0.437
    1   AR   Ar  245   5.830   0.169   0.991
    1   AR   Ar  246   6.262   6.053   1.324
    1   AR   Ar  247   4.597   3.951   1.084
    1   AR   Ar  248   5.653   6.171  -0.117
    1   AR   Ar  249   4.749   5.881   2.283
    1   AR   Ar  250   5.075   6.414   4.832
    1   AR   Ar  251   6.074   5.239   4.203
    1   AR   Ar  252   4.837   5.712   3.539
    1   AR   Ar  253   5.277   4.001   6.171
    1   AR   Ar  254   4.214   5.480   7.279
    1   AR   Ar  255   4.908   2.974   7.306
    1   AR   Ar  256   5.634   6.369   3.744
    7.12000  7.12000 12.00000
Argon-slab step 2430
  256
    1   AR   Ar    1   6.577   1.197  -0.701
    1   AR   Ar    2   7.022   7.117   0.939
    1   AR   Ar    3   0.921   0.265   0.995
    1   AR   Ar    4   1.712   0.352  -0.623
    1   AR   Ar    5   6.873   5.974   0.458
    1   AR   Ar    6   6.762   0.702   2.866
    1   AR   Ar    7   6.565   4.614   3.421
    1   AR   Ar    8   6.586   6.954   2.019
    1   AR   Ar    9   0.697   0.444   3.885
    1   AR   Ar   10   0.836   1.493   4.285
    1   AR   Ar   11   2.765   0.102   4.647
    1   AR   Ar   12   0.980   1.510   3.124
    1   AR   Ar   13   6.946   1.293   4.908
    1   AR   Ar   14   1.419   1.345   7.343
    1   AR   Ar   15   6.349   0.358   9.317
    1   AR   Ar   16   1.119   0.593   5.079
    1   AR   Ar   17   0.982   1.871  -0.106
    1   AR   Ar   18   6.035   2.782  -0.727
    1   AR   Ar   19   1.563   2.837   1.692
    1   AR   Ar   20   5.564   3.899  -2.570
    1   AR   Ar   21   6.092   0.743   2.002
    1   AR   Ar   22   6.889   1.820   2.450
    1   AR   Ar   23   0.400   0.931   0.211
    1   AR   Ar   24   0.293   2.429   1.079
    1   AR   Ar   25   7.104   1.220   3.777
    1   AR   Ar   26   6.003   1.064   3.981
    1   AR   Ar   27   1.887   1.310   3.823
    1   AR   Ar   28   1.322   2.628   4.596
    1   AR   Ar   29   5.905   2.232   7.192
    1   AR   Ar   30   0.537   2.002   6.351
    1   AR   Ar   31   1.090   6.333   7.456
    1   AR   Ar   32   1.520   2.483   6.374
    1   AR   Ar   33   1.477   3.967  -0.279
    1   AR   Ar   34   0.160   5.559   2.969
    1   AR   Ar   35   6.350   4.992   2.154
    1   AR   Ar   36   0.286   0.544  -3.410
    1   AR   Ar   37   6.360   3.190   2.439
    1   AR   Ar   38   0.321   4.335   2.610
    1   AR   Ar   39   1.178   3.889   2.970
    1   AR   Ar   40   1.321   3.617   0.987
    1   AR   Ar   41   0.232   2.658   3.111
    1   AR   Ar   42   6.566   5.472   5.196
    1   AR   Ar   43   6.686   2.644   5.896
    1   AR   Ar   44   0.503   4.308   3.756
    1   AR   Ar   45   0.731   2.922   5.403
    1   AR   Ar   46   1.627   5.841   6.218
    1   AR   Ar   47   5.732   3.277   6.871
    1   AR   Ar   48   0.176   6.553   6.530
    1   AR   Ar   49   5.941   0.127  -1.549
    1   AR   Ar   50   5.362   4.962   2.205
    1   AR   Ar   51   0.217   5.174   1.632
    1   AR   Ar   52   5.963   4.931  -1.446
    1   AR   Ar   53   5.644   6.445   2.177
    1   AR   Ar   54   6.613   6.359   2.863
    1   AR   Ar   55   5.723   5.310   3.210
    1   AR   Ar   56   0.488   7.041   1.927
    1   AR   Ar   57   5.740   2.920   3.262
    1   AR   Ar   58   0.028   5.308   4.194
    1   AR   Ar   59   1.941   5.274   5.316
    1   AR   Ar   60   0.269   6.308   4.004
    1   AR   Ar   61   6.332   4.478   5.923
    1   AR   Ar   62   0.918   5.893   5.239
    1   AR   Ar   63   2.475   5.981   6.841
    1   AR   Ar   64   1.156   6.779   5.532
    1   AR   Ar   65   3.920   6.993   0.700
    1   AR   Ar   66   1.154   1.592   1.233
    1   AR   Ar   67   3.324   6.076  -0.665
    1   AR   Ar   68   3.192   1.383  -1.334
    1   AR   Ar   69   2.706   1.241   0.864
    1   AR   Ar   70   0.632   0.846   2.358
    1   AR   Ar   71   3.034   1.305   2.754
    1   AR   Ar   72   3.585   0.683   1.739
    1   AR   Ar   73   2.791   7.002   3.599
    1   AR   Ar   74   2.179   0.854   4.795
    1   AR   Ar   75   3.457   1.421   5.042
    1   AR   Ar   76   2.057   0.901   1.666
    1   AR   Ar   77   2.445   6.273   5.685
    1   AR   Ar   78   1.710   0.001   6.747
    1   AR   Ar   79   3.879   0.012   6.547
    1   AR   Ar   80   3.088   5.531   5.974
    1   AR   Ar   81   1.926   1.576  -0.495
    1   AR   Ar   82   0.037   4.831  -0.620
    1   AR   Ar   83   1.506   2.307   0.621
    1   AR   Ar   84   0.436   3.945  -0.773
    1   AR   Ar   85   1.153   3.084   0.135
    1   AR   Ar   86   2.284   3.220   1.046
    1   AR   Ar   87   2.407   2.197   1.230
    1   AR   Ar   88   3.414   4.277   1.883
    1   AR   Ar   89   0.380   3.028   2.038
    1   AR   Ar   90   2.735   2.140   5.196
    1   AR   Ar   91   1.353   2.276   3.595
    1   AR   Ar   92   0.976   1.896   2.179
    1   AR   Ar   93   1.741   1.054   6.275
    1   AR   Ar   94   1.638   0.596   9.494
    1   AR   Ar   95   4.127   0.899   6.036
    1   AR   Ar   96   3.038   0.611   5.773
    1   AR   Ar   97   3.958   2.222  -1.239
    1   AR   Ar   98   2.471   4.949   2.429
    1   AR   Ar   99   7.071   1.931  -1.545
    1   AR   Ar  100   2.191   2.608  -0.271
    1   AR   Ar  101   2.500   4.447   1.091
    1   AR   Ar  102   3.656   3.462   3.618
    1   AR   Ar  103   1.418   4.661   0.432
    1   AR   Ar  104   2.887   2.728  -1.433
    1   AR   Ar  105   2.381   3.202   4.050
    1   AR   Ar  106   2.907   3.745   4.889
    1   AR   Ar  107   1.793   3.998   5.939
    1   AR   Ar  108   3.359   2.895   5.075
    1   AR   Ar  109   1.202   3.996   4.531
    1   AR   Ar  110   1.085   4.788   6.284
    1   AR   Ar  111   4.389   3.860   6.761
    1   AR   Ar  112   1.774   5.292   7.352
    1   AR   Ar  113   2.498   4.492  -0.084
    1   AR   Ar  114   2.542   4.787  -1.027
    1   AR   Ar  115   2.831   3.746  -0.745
    1   AR   Ar  116   5.354   6.188  -1.731
    1   AR   Ar  117   1.050   5.376   3.875
    1   AR   Ar  118   0.844   6.643   2.916
    1   AR   Ar  119   2.371   3.805   2.191
    1   AR   Ar  120   1.207   5.110   2.825
    1   AR   Ar  121   6.802   4.336   4.449
    1   AR   Ar  122   3.138   5.729   5.003
    1   AR   Ar  123   2.719   4.870   4.836
    1   AR   Ar  124   1.637   4.688   1.726
    1   AR   Ar  125   0.082   3.864   5.811
    1   AR   Ar  126   0.334   7.055   4.875
    1   AR   Ar  127   3.120   4.322   7.075
    1   AR   Ar  128   2.382   4.808   6.553
    1   AR   Ar  129   1.846   0.559   3.205
    1   AR   Ar  130   3.838   1.941  -2.270
    1   AR   Ar  131   4.796   0.322   0.304
    1   AR   Ar  132   1.810   1.918  -1.575
    1   AR   Ar  133   4.166   0.508   2.573
    1   AR   Ar  134   4.761   1.106   3.966
    1   AR   Ar  135   5.570   1.283   2.780
    1   AR   Ar  136   4.998   0.372   1.853
    1   AR   Ar  137   2.749   6.009   4.139
    1   AR   Ar  138   4.671   1.582   5.129
    1   AR   Ar  139   5.646   2.320   5.510
    1   AR   Ar  140   4.060   0.409   4.425
    1   AR   Ar  141   3.923   6.489   4.309
    1   AR   Ar  142   3.615   6.825   5.250
    1   AR   Ar  143   6.282   6.981   5.859
    1   AR   Ar  144   5.502   1.264   5.816
    1   AR   Ar  145   3.409   3.735   0.766
    1   AR   Ar  146   4.381   2.137   1.691
    1   AR   Ar  147   6.068   1.991  -1.414
    1   AR   Ar  148   4.271   4.011  -2.263
    1   AR   Ar  149   3.476   1.935   0.951
    1   AR   Ar  150   2.181   1.802   2.512
    1   AR   Ar  151   2.935   2.300   3.124
    1   AR   Ar  152   3.078   2.716   0.363
    1   AR   Ar  153   3.084   0.919   3.970
    1   AR   Ar  154   3.840   1.939   4.188
    1   AR   Ar  155   6.707   1.208   5.819
    1   AR   Ar  156   4.041   4.181   4.578
    1   AR   Ar  157   2.524   3.060   6.201
    1   AR   Ar  158   1.074   3.474   6.560
    1   AR   Ar  159   3.932   1.988   5.821
    1   AR   Ar  160   2.695   1.703   6.315
    1   AR   Ar  161   5.585   3.063   1.399
    1   AR   Ar  162   4.442   5.842  -0.649
    1   AR   Ar  163   5.591   2.548   0.386
    1   AR   Ar  164   3.772   5.611   1.798
    1   AR   Ar  165   3.408   3.103   1.591
    1   AR   Ar  166   3.093   4.510   3.555
    1   AR   Ar  167   4.433   1.746   2.818
    1   AR   Ar  168   5.010   3.151  -1.007
    1   AR   Ar  169   2.577   2.770   2.162
    1   AR   Ar  170   2.955   4.114   5.906
    1   AR   Ar  171   5.247   3.808   3.785
    1   AR   Ar  172   4.551   5.276   4.464
    1   AR   Ar  173   2.236   3.632   6.998
    1   AR   Ar  174   3.841   4.877   6.490
    1   AR   Ar  175   3.824   2.975   6.136
    1   AR   Ar  176   3.623   4.765   5.465
    1   AR   Ar  177   6.361   5.166   0.254
    1   AR   Ar  178   2.891   5.535   0.213
    1   AR   Ar  179   4.117   5.733   0.729
    1   AR   Ar  180   1.630   2.995  -1.666
    1   AR   Ar  181   1.003   5.802   0.940
    1   AR   Ar  182   2.808   0.326   2.546
    1   AR   Ar  183   3.594   4.972   2.599
    1   AR   Ar  184   4.321   6.663   1.628
    1   AR   Ar  185   1.998   5.194   4.148
    1   AR   Ar  186   3.763   5.556   3.745
    1   AR   Ar  187   3.968   6.549   3.038
    1   AR   Ar  188   3.162   6.679   1.495
    1   AR   Ar  189   3.064   3.027   7.247
    1   AR   Ar  190   5.183   6.573   5.825
    1   AR   Ar  191   4.973   5.009   5.906
    1   AR   Ar  192   4.217   5.739   5.434
    1   AR   Ar  193   1.133   6.672  -1.120
    1   AR   Ar  194   5.315   4.041  -1.459
    1   AR   Ar  195   6.459   0.351   0.065
    1   AR   Ar  196   4.929   6.892  -0.610
    1   AR   Ar  197   5.322   1.468   0.647
    1   AR   Ar  198   0.046   1.336   1.314
    1   AR   Ar  199   5.367   1.653   1.722
    1   AR   Ar  200   6.613   2.053   0.167
    1   AR   Ar  201   4.860   7.107   3.244
    1   AR   Ar  202   5.303   2.516   4.552
    1   AR   Ar  203   6.246   6.533   4.832
    1   AR   Ar  204   5.374   0.251   4.080
    1   AR   Ar  205   5.769   0.287   2.973
    1   AR   Ar  206   4.925   0.526   5.086
    1   AR   Ar  207   0.218   0.270   5.803
    1   AR   Ar  208   6.584   0.127   3.823
    1   AR   Ar  209   5.775   2.788  -2.127
    1   AR   Ar  210   4.399   1.246   0.921
    1   AR   Ar  211   7.052   3.301   0.041
    1   AR   Ar  212   6.372   3.944  -1.253
    1   AR   Ar  213   3.281   1.933   1.967
    1   AR   Ar  214   3.849   2.746   2.511
    1   AR   Ar  215   6.272   2.212   1.441
    1   AR   Ar  216   0.260   4.195   0.998
    1   AR   Ar  217   4.548   2.946   3.906
    1   AR   Ar  218   4.402   2.776   5.057
    1   AR   Ar  219   5.271   2.009   3.602
    1   AR   Ar  220   4.937   3.380   2.387
    1   AR   Ar  221   5.985   0.648   4.959
    1   AR   Ar  222   4.913   1.977   6.364
    1   AR   Ar  223   0.841   0.657   6.580
    1   AR   Ar  224   5.021   3.044   5.962
    1   AR   Ar  225   6.061   4.463   1.176
    1   AR   Ar  226   4.424   4.188   2.297
    1   AR   Ar  227   0.385   5.185   0.363
    1   AR   Ar  228   5.127   6.045   1.236
    1   AR   Ar  229   5.986   4.087  -0.002
    1   AR   Ar  230   4.411   4.419   3.585
    1   AR   Ar  231   6.255   1.962   3.331
    1   AR   Ar  232   4.169   2.825   0.691
    1   AR   Ar  233   6.454   2.687   4.151
    1   AR   Ar  234   6.970   3.343   4.961
    1   AR   Ar  235   0.285   2.337   4.167
    1   AR   Ar  236   5.352   4.918   5.013
    1   AR   Ar  237   6.029   3.943   4.992
    1   AR   Ar  238   4.846   3.677   5.216
    1   AR   Ar  239   6.885   4.138   9.088
    1   AR   Ar  240   6.278   3.485   6.052
    1   AR   Ar  241   0.518   6.960  -0.025
    1   AR   Ar  242   4.773   4.940   0.124
    1   AR   Ar  243   5.778   4.075   2.791
    1   AR   Ar  244   1.415   5.322  -0.433
    1   AR   Ar  245   5.843   0.168   0.995
    1   AR   Ar  246   6.305   6.060   1.321
    1   AR   Ar  247   4.601   3.952   1.058
    1   AR   Ar  248   5.659   6.156  -0.131
    1   AR   Ar  249   4.782   5.915   2.273
    1   AR   Ar  250   5.051   6.432   4.802
    1   AR   Ar  251   6.092   5.233   4.192
    1   AR   Ar  252   4.834   5.708   3.538
    1   AR   Ar  253   5.284   4.001   6.170
    1   AR   Ar  254   4.229   5.484   7.305
    1   AR   Ar  255   4.898   2.944   7.325
    1   AR   Ar  256   5.615   6.365   3.769
    7.12000  7.12000 12.00000
Argon-slab step 2435
  256
    1   AR   Ar    1   6.589   1.207  -0.724
    1   AR   Ar    2   7.034   0.015   0.920
    1   AR   Ar    3   0.906   0.221   0.947
    1   AR   Ar    4   1.733   0.354  -0.642
    1   AR   Ar    5   6.877   5.995   0.462
    1   AR   Ar    6   6.776   0.710   2.854
    1   AR   Ar    7   6.605   4.598   3.427
    1   AR   Ar    8   6.583   6.939   1.998
    1   AR   Ar    9   0.677   0.429   3.894
    1   AR   Ar   10   0.849   1.487   4.307
    1   AR   Ar   11   2.768   0.075   4.642
    1   AR   Ar   12   1.000   1.520   3.104
    1   AR   Ar   13   6.951   1.356   4.890
    1   AR   Ar   14   1.436   1.350   7.342
    1   AR   Ar   15   6.344   0.360   9.320
    1   AR   Ar   16   1.098   0.608   5.050
    1   AR   Ar   17   0.936   1.870  -0.111
    1   AR   Ar   18   6.055   2.786  -0.721
    1   AR   Ar   19   1.550   2.843   1.695
    1   AR   Ar   20   5.571   3.908  -2.565
    1   AR   Ar   21   6.084   0.740   2.006
    1   AR   Ar   22   6.849   1.807   2.488
    1   AR   Ar   23   0.357   0.938   0.184
    1   AR   Ar   24   0.320   2.400   1.113
    1   AR   Ar   25   7.089   1.209   3.777
    1   AR   Ar   26   5.994   1.051   4.000
    1   AR   Ar   27   1.897   1.318   3.848
    1   AR   Ar   28   1.311   2.604   4.601
    1   AR   Ar   29   5.915   2.231   7.191
    1   AR   Ar   30   0.524   2.002   6.322
    1   AR   Ar   31   1.070   6.309   7.473
    1   AR   Ar   32   1.537   2.503   6.372
    1   AR   Ar   33   1.510   3.967  -0.267
    1   AR   Ar   34   0.142   5.551   2.990
    1   AR   Ar   35   6.332   5.010   2.146
    1   AR   Ar   36   0.290   0.572  -3.405
    1   AR   Ar   37   6.350   3.187   2.441
    1   AR   Ar   38   0.323   4.340   2.603
    1   AR   Ar   39   1.170   3.904   2.970
    1   AR   Ar   40   1.303   3.611   0.998
    1   AR   Ar   41   0.223   2.676   3.138
    1   AR   Ar   42   6.546   5.446   5.200
    1   AR   Ar   43   6.729   2.600   5.871
    1   AR   Ar   44   0.530   4.289   3.751
    1   AR   Ar   45   0.719   2.925   5.412
    1   AR   Ar   46   1.608   5.816   6.238
    1   AR   Ar   47   5.707   3.301   6.867
    1   AR   Ar   48   0.223   6.534   6.543
    1   AR   Ar   49   5.928   0.131  -1.556
    1   AR   Ar   50   5.319   4.981   2.189
    1   AR   Ar   51   0.227   5.207   1.662
    1   AR   Ar   52   5.942   4.918  -1.426
    1   AR   Ar   53   5.640   6.447   2.173
    1   AR   Ar   54   6.623   6.334   2.840
    1   AR   Ar   55   5.750   5.310   3.220
    1   AR   Ar   56   0.487   7.036   1.911
    1   AR   Ar   57   5.701   2.923   3.271
    1   AR   Ar   58   0.038   5.320   4.200
    1   AR   Ar   59   1.941   5.272   5.332
    1   AR   Ar   60   0.273   6.312   3.997
    1   AR   Ar   61   6.331   4.473   5.926
    1   AR   Ar   62   0.929   5.903   5.228
    1   AR   Ar   63   2.469   5.996   6.845
    1   AR   Ar   64   1.139   6.763   5.508
    1   AR   Ar   65   3.927   7.006   0.679
    1   AR   Ar   66   1.162   1.605   1.204
    1   AR   Ar   67   3.352   6.070  -0.710
    1   AR   Ar   68   3.183   1.375  -1.291
    1   AR   Ar   69   2.716   1.225   0.874
    1   AR   Ar   70   0.652   0.829   2.383
    1   AR   Ar   71   3.028   1.310   2.773
    1   AR   Ar   72   3.543   0.679   1.721
    1   AR   Ar   73   2.817   6.993   3.578
    1   AR   Ar   74   2.211   0.866   4.805
    1   AR   Ar   75   3.465   1.442   5.048
    1   AR   Ar   76   2.025   0.883   1.650
    1   AR   Ar   77   2.465   6.290   5.686
    1   AR   Ar   78   1.675   0.016   6.746
    1   AR   Ar   79   3.894   0.025   6.558
    1   AR   Ar   80   3.086   5.515   5.989
    1   AR   Ar   81   1.896   1.577  -0.477
    1   AR   Ar   82   0.017   4.887  -0.678
    1   AR   Ar   83   1.516   2.280   0.598
    1   AR   Ar   84   0.427   3.953  -0.765
    1   AR   Ar   85   1.130   3.054   0.145
    1   AR   Ar   86   2.284   3.230   1.032
    1   AR   Ar   87   2.374   2.222   1.278
    1   AR   Ar   88   3.381   4.287   1.918
    1   AR   Ar   89   0.335   3.011   2.045
    1   AR   Ar   90   2.720   2.169   5.202
    1   AR   Ar   91   1.349   2.289   3.569
    1   AR   Ar   92   0.991   1.901   2.197
    1   AR   Ar   93   1.760   1.039   6.273
    1   AR   Ar   94   1.645   0.581   9.501
    1   AR   Ar   95   4.151   0.900   6.054
    1   AR   Ar   96   3.036   0.601   5.768
    1   AR   Ar   97   3.980   2.214  -1.201
    1   AR   Ar   98   2.461   4.956   2.467
    1   AR   Ar   99   7.098   1.903  -1.545
    1   AR   Ar  100   2.207   2.571  -0.274
    1   AR   Ar  101   2.492   4.443   1.127
    1   AR   Ar  102   3.660   3.458   3.641
    1   AR   Ar  103   1.415   4.690   0.448
    1   AR   Ar  104   2.863   2.722  -1.447
    1   AR   Ar  105   2.342   3.170   4.020
    1   AR   Ar  106   2.908   3.734   4.919
    1   AR   Ar  107   1.803   3.969   5.936
    1   AR   Ar  108   3.371   2.912   5.077
    1   AR   Ar  109   1.166   3.996   4.508
    1   AR   Ar  110   1.090   4.789   6.294
    1   AR   Ar  111   4.387   3.843   6.750
    1   AR   Ar  112   1.802   5.302   7.331
    1   AR   Ar  113   2.511   4.454  -0.094
    1   AR   Ar  114   2.508   4.807  -1.062
    1   AR   Ar  115   2.825   3.752  -0.755
    1   AR   Ar  116   5.365   6.220  -1.741
    1   AR   Ar  117   1.051   5.385   3.839
    1   AR   Ar  118   0.835   6.638   2.908
    1   AR   Ar  119   2.360   3.811   2.187
    1   AR   Ar  120   1.211   5.133   2.841
    1   AR   Ar  121   6.805   4.308   4.418
    1   AR   Ar  122   3.147   5.758   4.994
    1   AR   Ar  123   2.735   4.864   4.849
    1   AR   Ar  124   1.677   4.677   1.724
    1   AR   Ar  125   0.076   3.855   5.834
    1   AR   Ar  126   0.337   7.074   4.865
    1   AR   Ar  127   3.132   4.326   7.088
    1   AR   Ar  128   2.362   4.805   6.535
    1   AR   Ar  129   1.840   0.532   3.200
    1   AR   Ar  130   3.861   1.951  -2.285
    1   AR   Ar  131   4.797   0.307   0.270
    1   AR   Ar  132   1.796   1.895  -1.541
    1   AR   Ar  133   4.146   0.486   2.592
    1   AR   Ar  134   4.752   1.063   4.000
    1   AR   Ar  135   5.560   1.288   2.784
    1   AR   Ar  136   4.976   0.367   1.861
    1   AR   Ar  137   2.756   6.002   4.168
    1   AR   Ar  138   4.672   1.623   5.127
    1   AR   Ar  139   5.633   2.317   5.502
    1   AR   Ar  140   4.097   0.407   4.438
    1   AR   Ar  141   3.902   6.478   4.347
    1   AR   Ar  142   3.607   6.836   5.254
    1   AR   Ar  143   6.313   6.984   5.875
    1   AR   Ar  144   5.527   1.283   5.859
    1   AR   Ar  145   3.423   3.714   0.748
    1   AR   Ar  146   4.356   2.177   1.703
    1   AR   Ar  147   6.077   2.026  -1.417
    1   AR   Ar  148   4.280   4.041  -2.287
    1   AR   Ar  149   3.473   1.924   0.934
    1   AR   Ar  150   2.150   1.772   2.522
    1   AR   Ar  151   2.943   2.331   3.105
    1   AR   Ar  152   3.056   2.728   0.373
    1   AR   Ar  153   3.086   0.901   3.979
    1   AR   Ar  154   3.846   1.955   4.201
    1   AR   Ar  155   6.684   1.172   5.846
    1   AR   Ar  156   4.052   4.157   4.544
    1   AR   Ar  157   2.514   3.095   6.194
    1   AR   Ar  158   1.073   3.483   6.578
    1   AR   Ar  159   3.921   1.977   5.796
    1   AR   Ar  160   2.708   1.660   6.294
    1   AR   Ar  161   5.598   3.063   1.393
    1   AR   Ar  162   4.436   5.839  -0.616
    1   AR   Ar  163   5.588   2.501   0.394
    1   AR   Ar  164   3.739   5.601   1.814
    1   AR   Ar  165   3.423   3.084   1.576
    1   AR   Ar  166   3.140   4.510   3.522
    1   AR   Ar  167   4.466   1.757   2.831
    1   AR   Ar  168   4.997   3.141  -0.993
    1   AR   Ar  169   2.583   2.761   2.172
    1   AR   Ar  170   2.907   4.144   5.908
    1   AR   Ar  171   5.270   3.834   3.767
    1   AR   Ar  172   4.540   5.293   4.483
    1   AR   Ar  173   2.245   3.617   7.013
    1   AR   Ar  174   3.828   4.873   6.498
    1   AR   Ar  175   3.835   2.977   6.158
    1   AR   Ar  176   3.628   4.737   5.482
    1   AR   Ar  177   6.367   5.158   0.250
    1   AR   Ar  178   2.884   5.492   0.200
    1   AR   Ar  179   4.105   5.736   0.716
    1   AR   Ar  180   1.612   2.969  -1.677
    1   AR   Ar  181   0.990   5.792   0.942
    1   AR   Ar  182   2.804   0.338   2.578
    1   AR   Ar  183   3.588   4.961   2.630
    1   AR   Ar  184   4.302   6.681   1.655
    1   AR   Ar  185   1.976   5.189   4.148
    1   AR   Ar  186   3.727   5.538   3.753
    1   AR   Ar  187   3.960   6.517   3.054
    1   AR   Ar  188   3.163   6.714   1.528
    1   AR   Ar  189   3.036   2.993   7.303
    1   AR   Ar  190   5.169   6.572   5.825
    1   AR   Ar  191   4.944   4.992   5.886
    1   AR   Ar  192   4.225   5.715   5.411
    1   AR   Ar  193   1.154   6.680  -1.102
    1   AR   Ar  194   5.324   4.045  -1.452
    1   AR   Ar  195   6.435   0.353   0.060
    1   AR   Ar  196   4.944   6.894  -0.598
    1   AR   Ar  197   5.340   1.484   0.666
    1   AR   Ar  198   0.050   1.324   1.314
    1   AR   Ar  199   5.375   1.667   1.701
    1   AR   Ar  200   6.655   2.039   0.179
    1   AR   Ar  201   4.829   7.096   3.256
    1   AR   Ar  202   5.311   2.514   4.549
    1   AR   Ar  203   6.262   6.502   4.857
    1   AR   Ar  204   5.405   0.234   4.132
    1   AR   Ar  205   5.775   0.281   2.947
    1   AR   Ar  206   4.906   0.558   5.072
    1   AR   Ar  207   0.192   0.266   5.823
    1   AR   Ar  208   6.557   0.103   3.800
    1   AR   Ar  209   5.792   2.828  -2.123
    1   AR   Ar  210   4.399   1.262   0.917
    1   AR   Ar  211   7.016   3.266   0.036
    1   AR   Ar  212   6.373   3.968  -1.245
    1   AR   Ar  213   3.289   1.919   1.993
    1   AR   Ar  214   3.855   2.770   2.519
    1   AR   Ar  215   6.258   2.200   1.418
    1   AR   Ar  216   0.301   4.173   0.997
    1   AR   Ar  217   4.538   2.973   3.913
    1   AR   Ar  218   4.418   2.782   5.049
    1   AR   Ar  219   5.257   1.989   3.632
    1   AR   Ar  220   4.923   3.364   2.392
    1   AR   Ar  221   5.992   0.651   4.975
    1   AR   Ar  222   4.909   1.984   6.353
    1   AR   Ar  223   0.853   0.655   6.585
    1   AR   Ar  224   5.024   3.056   5.975
    1   AR   Ar  225   6.060   4.436   1.200
    1   AR   Ar  226   4.391   4.225   2.334
    1   AR   Ar  227   0.377   5.170   0.383
    1   AR   Ar  228   5.127   6.061   1.225
    1   AR   Ar  229   5.968   4.090  -0.012
    1   AR   Ar  230   4.395   4.427   3.599
    1   AR   Ar  231   6.277   1.983   3.352
    1   AR   Ar  232   4.205   2.854   0.684
    1   AR   Ar  233   6.445   2.678   4.119
    1   AR   Ar  234   6.954   3.333   4.889
    1   AR   Ar  235   0.300   2.333   4.165
    1   AR   Ar  236   5.348   4.914   5.031
    1   AR   Ar  237   6.047   3.946   4.972
    1   AR   Ar  238   4.826   3.678   5.211
    1   AR   Ar  239   6.891   4.156   9.108
    1   AR   Ar  240   6.254   3.491   6.054
    1   AR   Ar  241   0.510   6.938  -0.026
    1   AR   Ar  242   4.798   4.967   0.119
    1   AR   Ar  243   5.775   4.055   2.775
    1   AR   Ar  244   1.427   5.350  -0.429
    1   AR   Ar  245   5.855   0.166   1.000
    1   AR   Ar  246   6.346   6.068   1.323
    1   AR   Ar  247   4.604   3.952   1.033
    1   AR   Ar  248   5.665   6.142  -0.144
    1   AR   Ar  249   4.809   5.944   2.266
    1   AR   Ar  250   5.025   6.450   4.767
    1   AR   Ar  251   6.107   5.227   4.185
    1   AR   Ar  252   4.823   5.706   3.534
    1   AR   Ar  253   5.296   4.008   6.169
    1   AR   Ar  254   4.245   5.488   7.332
    1   AR   Ar  255   4.880   2.910   7.345
    1   AR   Ar  256   5.600   6.361   3.795
    7.12000  7.12000 12.00000
Argon-slab step 2440
  256
    1   AR   Ar    1   6.602   1.217  -0.747
    1   AR   Ar    2   7.037   0.032   0.901
    1   AR   Ar    3   0.899   0.179   0.898
    1   AR   Ar    4   1.754   0.359  -0.660
    1   AR   Ar    5   6.886   6.028   0.463
    1   AR   Ar    6   6.790   0.717   2.843
    1   AR   Ar    7   6.646   4.584   3.429
    1   AR   Ar    8   6.579   6.925   1.973
    1   AR   Ar    9   0.659   0.412   3.903
    1   AR   Ar   10   0.869   1.475   4.331
    1   AR   Ar   11   2.779   0.036   4.636
    1   AR   Ar   12   1.015   1.512   3.091
    1   AR   Ar   13   6.958   1.421   4.863
    1   AR   Ar   14   1.453   1.354   7.339
    1   AR   Ar   15   6.339   0.362   9.322
    1   AR   Ar   16   1.081   0.630   5.021
    1   AR   Ar   17   0.882   1.867  -0.119
    1   AR   Ar   18   6.076   2.795  -0.710
    1   AR   Ar   19   1.535   2.846   1.701
    1   AR   Ar   20   5.578   3.916  -2.558
    1   AR   Ar   21   6.073   0.729   2.002
    1   AR   Ar   22   6.834   1.782   2.468
    1   AR   Ar   23   0.312   0.945   0.160
    1   AR   Ar   24   0.347   2.370   1.146
    1   AR   Ar   25   7.071   1.200   3.775
    1   AR   Ar   26   6.007   1.034   3.999
    1   AR   Ar   27   1.908   1.331   3.876
    1   AR   Ar   28   1.302   2.580   4.604
    1   AR   Ar   29   5.923   2.231   7.188
    1   AR   Ar   30   0.510   2.002   6.292
    1   AR   Ar   31   1.051   6.286   7.488
    1   AR   Ar   32   1.555   2.523   6.369
    1   AR   Ar   33   1.544   3.964  -0.260
    1   AR   Ar   34   0.128   5.538   3.014
    1   AR   Ar   35   6.322   5.028   2.139
    1   AR   Ar   36   0.295   0.599  -3.400
    1   AR   Ar   37   6.350   3.199   2.431
    1   AR   Ar   38   0.319   4.350   2.593
    1   AR   Ar   39   1.169   3.916   2.971
    1   AR   Ar   40   1.282   3.612   1.011
    1   AR   Ar   41   0.213   2.693   3.163
    1   AR   Ar   42   6.525   5.418   5.202
    1   AR   Ar   43   6.774   2.551   5.844
    1   AR   Ar   44   0.553   4.275   3.741
    1   AR   Ar   45   0.705   2.929   5.425
    1   AR   Ar   46   1.587   5.790   6.258
    1   AR   Ar   47   5.680   3.324   6.869
    1   AR   Ar   48   0.257   6.524   6.556
    1   AR   Ar   49   5.915   0.134  -1.562
    1   AR   Ar   50   5.269   4.998   2.173
    1   AR   Ar   51   0.237   5.240   1.693
    1   AR   Ar   52   5.921   4.910  -1.407
    1   AR   Ar   53   5.646   6.457   2.169
    1   AR   Ar   54   6.628   6.313   2.822
    1   AR   Ar   55   5.778   5.308   3.223
    1   AR   Ar   56   0.489   7.029   1.893
    1   AR   Ar   57   5.661   2.927   3.281
    1   AR   Ar   58   0.041   5.322   4.205
    1   AR   Ar   59   1.945   5.268   5.360
    1   AR   Ar   60   0.278   6.320   3.988
    1   AR   Ar   61   6.333   4.464   5.934
    1   AR   Ar   62   0.933   5.883   5.207
    1   AR   Ar   63   2.465   6.011   6.846
    1   AR   Ar   64   1.131   6.773   5.499
    1   AR   Ar   65   3.928   7.010   0.687
    1   AR   Ar   66   1.166   1.607   1.181
    1   AR   Ar   67   3.379   6.063  -0.753
    1   AR   Ar   68   3.174   1.369  -1.249
    1   AR   Ar   69   2.723   1.206   0.884
    1   AR   Ar   70   0.672   0.814   2.408
    1   AR   Ar   71   3.028   1.314   2.798
    1   AR   Ar   72   3.501   0.677   1.701
    1   AR   Ar   73   2.844   6.984   3.556
    1   AR   Ar   74   2.237   0.889   4.818
    1   AR   Ar   75   3.481   1.460   5.048
    1   AR   Ar   76   1.991   0.867   1.636
    1   AR   Ar   77   2.482   6.311   5.686
    1   AR   Ar   78   1.642   0.027   6.744
    1   AR   Ar   79   3.906   0.035   6.569
    1   AR   Ar   80   3.084   5.494   6.010
    1   AR   Ar   81   1.867   1.575  -0.459
    1   AR   Ar   82   7.112   4.948  -0.733
    1   AR   Ar   83   1.543   2.258   0.578
    1   AR   Ar   84   0.421   3.956  -0.756
    1   AR   Ar   85   1.100   3.031   0.145
    1   AR   Ar   86   2.289   3.244   1.016
    1   AR   Ar   87   2.358   2.239   1.293
    1   AR   Ar   88   3.344   4.290   1.944
    1   AR   Ar   89   0.292   2.994   2.052
    1   AR   Ar   90   2.717   2.187   5.195
    1   AR   Ar   91   1.350   2.315   3.549
    1   AR   Ar   92   1.005   1.914   2.206
    1   AR   Ar   93   1.767   1.032   6.248
    1   AR   Ar   94   1.651   0.566   9.507
    1   AR   Ar   95   4.175   0.905   6.067
    1   AR   Ar   96   3.033   0.591   5.761
    1   AR   Ar   97   4.000   2.208  -1.163
    1   AR   Ar   98   2.451   4.962   2.505
    1   AR   Ar   99   7.115   1.888  -1.546
    1   AR   Ar  100   2.222   2.537  -0.278
    1   AR   Ar  101   2.488   4.436   1.160
    1   AR   Ar  102   3.660   3.456   3.662
    1   AR   Ar  103   1.411   4.722   0.472
    1   AR   Ar  104   2.839   2.715  -1.459
    1   AR   Ar  105   2.304   3.137   3.991
    1   AR   Ar  106   2.900   3.741   4.944
    1   AR   Ar  107   1.814   3.941   5.931
    1   AR   Ar  108   3.404   2.944   5.084
    1   AR   Ar  109   1.159   4.001   4.508
    1   AR   Ar  110   1.097   4.790   6.304
    1   AR   Ar  111   4.383   3.825   6.739
    1   AR   Ar  112   1.827   5.312   7.310
    1   AR   Ar  113   2.521   4.418  -0.092
    1   AR   Ar  114   2.473   4.830  -1.101
    1   AR   Ar  115   2.820   3.751  -0.769
    1   AR   Ar  116   5.375   6.251  -1.751
    1   AR   Ar  117   1.042   5.397   3.803
    1   AR   Ar  118   0.823   6.632   2.901
    1   AR   Ar  119   2.349   3.820   2.181
    1   AR   Ar  120   1.216   5.152   2.853
    1   AR   Ar  121   6.812   4.283   4.388
    1   AR   Ar  122   3.171   5.791   5.002
    1   AR   Ar  123   2.754   4.846   4.857
    1   AR   Ar  124   1.704   4.664   1.746
    1   AR   Ar  125   0.078   3.847   5.857
    1   AR   Ar  126   0.333   7.086   4.846
    1   AR   Ar  127   3.146   4.327   7.102
    1   AR   Ar  128   2.337   4.805   6.515
    1   AR   Ar  129   1.834   0.501   3.190
    1   AR   Ar  130   3.883   1.960  -2.300
    1   AR   Ar  131   4.782   0.306   0.256
    1   AR   Ar  132   1.782   1.872  -1.505
    1   AR   Ar  133   4.126   0.465   2.612
    1   AR   Ar  134   4.746   1.025   4.032
    1   AR   Ar  135   5.549   1.297   2.790
    1   AR   Ar  136   4.956   0.363   1.868
    1   AR   Ar  137   2.756   6.003   4.177
    1   AR   Ar  138   4.676   1.677   5.123
    1   AR   Ar  139   5.622   2.312   5.499
    1   AR   Ar  140   4.126   0.402   4.451
    1   AR   Ar  141   3.882   6.461   4.379
    1   AR   Ar  142   3.599   6.849   5.272
    1   AR   Ar  143   6.341   6.987   5.891
    1   AR   Ar  144   5.552   1.298   5.899
    1   AR   Ar  145   3.437   3.697   0.727
    1   AR   Ar  146   4.330   2.217   1.715
    1   AR   Ar  147   6.082   2.057  -1.422
    1   AR   Ar  148   4.288   4.068  -2.313
    1   AR   Ar  149   3.473   1.917   0.911
    1   AR   Ar  150   2.112   1.744   2.529
    1   AR   Ar  151   2.952   2.364   3.087
    1   AR   Ar  152   3.035   2.742   0.385
    1   AR   Ar  153   3.089   0.884   3.988
    1   AR   Ar  154   3.853   1.972   4.212
    1   AR   Ar  155   6.657   1.135   5.881
    1   AR   Ar  156   4.064   4.142   4.518
    1   AR   Ar  157   2.507   3.125   6.180
    1   AR   Ar  158   1.071   3.492   6.594
    1   AR   Ar  159   3.902   1.967   5.772
    1   AR   Ar  160   2.721   1.618   6.271
    1   AR   Ar  161   5.610   3.064   1.388
    1   AR   Ar  162   4.435   5.842  -0.588
    1   AR   Ar  163   5.586   2.455   0.402
    1   AR   Ar  164   3.711   5.591   1.836
    1   AR   Ar  165   3.438   3.063   1.560
    1   AR   Ar  166   3.188   4.510   3.491
    1   AR   Ar  167   4.454   1.779   2.821
    1   AR   Ar  168   4.975   3.131  -0.968
    1   AR   Ar  169   2.589   2.752   2.182
    1   AR   Ar  170   2.856   4.171   5.913
    1   AR   Ar  171   5.294   3.859   3.750
    1   AR   Ar  172   4.526   5.310   4.500
    1   AR   Ar  173   2.247   3.609   7.031
    1   AR   Ar  174   3.818   4.870   6.508
    1   AR   Ar  175   3.846   2.982   6.179
    1   AR   Ar  176   3.639   4.710   5.490
    1   AR   Ar  177   6.367   5.143   0.244
    1   AR   Ar  178   2.878   5.449   0.187
    1   AR   Ar  179   4.094   5.739   0.702
    1   AR   Ar  180   1.594   2.943  -1.688
    1   AR   Ar  181   0.979   5.784   0.947
    1   AR   Ar  182   2.799   0.344   2.607
    1   AR   Ar  183   3.584   4.954   2.670
    1   AR   Ar  184   4.284   6.674   1.661
    1   AR   Ar  185   1.963   5.183   4.151
    1   AR   Ar  186   3.690   5.519   3.761
    1   AR   Ar  187   3.951   6.483   3.071
    1   AR   Ar  188   3.165   6.749   1.561
    1   AR   Ar  189   3.011   2.957   7.357
    1   AR   Ar  190   5.172   6.566   5.826
    1   AR   Ar  191   4.904   4.977   5.887
    1   AR   Ar  192   4.232   5.692   5.389
    1   AR   Ar  193   1.175   6.687  -1.083
    1   AR   Ar  194   5.331   4.049  -1.447
    1   AR   Ar  195   6.412   0.356   0.054
    1   AR   Ar  196   4.957   6.879  -0.576
    1   AR   Ar  197   5.367   1.500   0.680
    1   AR   Ar  198   0.055   1.311   1.315
    1   AR   Ar  199   5.382   1.679   1.685
    1   AR   Ar  200   6.698   2.025   0.191
    1   AR   Ar  201   4.793   7.066   3.260
    1   AR   Ar  202   5.321   2.514   4.542
    1   AR   Ar  203   6.276   6.471   4.879
    1   AR   Ar  204   5.434   0.211   4.187
    1   AR   Ar  205   5.785   0.270   2.922
    1   AR   Ar  206   4.888   0.590   5.062
    1   AR   Ar  207   0.168   0.264   5.847
    1   AR   Ar  208   6.530   0.079   3.778
    1   AR   Ar  209   5.806   2.860  -2.123
    1   AR   Ar  210   4.441   1.216   0.914
    1   AR   Ar  211   6.980   3.231   0.031
    1   AR   Ar  212   6.376   3.989  -1.233
    1   AR   Ar  213   3.299   1.909   2.017
    1   AR   Ar  214   3.862   2.793   2.529
    1   AR   Ar  215   6.254   2.168   1.426
    1   AR   Ar  216   0.316   4.152   0.981
    1   AR   Ar  217   4.560   2.999   3.920
    1   AR   Ar  218   4.431   2.778   5.042
    1   AR   Ar  219   5.240   1.967   3.661
    1   AR   Ar  220   4.914   3.340   2.398
    1   AR   Ar  221   6.003   0.653   4.994
    1   AR   Ar  222   4.892   1.994   6.351
    1   AR   Ar  223   0.859   0.653   6.592
    1   AR   Ar  224   5.024   3.057   5.994
    1   AR   Ar  225   6.058   4.409   1.224
    1   AR   Ar  226   4.355   4.269   2.371
    1   AR   Ar  227   0.368   5.148   0.401
    1   AR   Ar  228   5.127   6.078   1.213
    1   AR   Ar  229   5.952   4.094  -0.023
    1   AR   Ar  230   4.376   4.438   3.607
    1   AR   Ar  231   6.302   2.000   3.372
    1   AR   Ar  232   4.239   2.883   0.679
    1   AR   Ar  233   6.431   2.672   4.089
    1   AR   Ar  234   6.938   3.320   4.817
    1   AR   Ar  235   0.316   2.332   4.164
    1   AR   Ar  236   5.357   4.905   5.031
    1   AR   Ar  237   6.056   3.946   4.958
    1   AR   Ar  238   4.810   3.692   5.200
    1   AR   Ar  239   6.897   4.175   9.129
    1   AR   Ar  240   6.227   3.490   6.049
    1   AR   Ar  241   0.501   6.916  -0.028
    1   AR   Ar  242   4.823   4.995   0.115
    1   AR   Ar  243   5.772   4.038   2.758
    1   AR   Ar  244   1.427   5.357  -0.409
    1   AR   Ar  245   5.868   0.164   1.008
    1   AR   Ar  246   6.383   6.076   1.331
    1   AR   Ar  247   4.606   3.951   1.009
    1   AR   Ar  248   5.672   6.127  -0.156
    1   AR   Ar  249   4.822   5.965   2.264
    1   AR   Ar  250   4.998   6.467   4.729
    1   AR   Ar  251   6.119   5.221   4.184
    1   AR   Ar  252   4.807   5.705   3.528
    1   AR   Ar  253   5.310   4.022   6.167
    1   AR   Ar  254   4.260   5.492   7.357
    1   AR   Ar  255   4.859   2.875   7.365
    1   AR   Ar  256   5.589   6.358   3.821
    7.12000  7.12000 12.00000
Argon-slab step 2445
  256
    1   AR   Ar    1   6.615   1.227  -0.768
    1   AR   Ar    2   7.029   0.047   0.885
    1   AR   Ar    3   0.900   0.147   0.848
    1   AR   Ar    4   1.776   0.366  -0.677
    1   AR   Ar    5   6.901   6.067   0.458
    1   AR   Ar    6   6.803   0.723   2.831
    1   AR   Ar    7   6.630   4.608   3.426
    1   AR   Ar    8   6.574   6.914   1.946
    1   AR   Ar    9   0.642   0.394   3.911
    1   AR   Ar   10   0.891   1.461   4.355
    1   AR   Ar   11   2.794   7.112   4.630
    1   AR   Ar   12   1.026   1.490   3.091
    1   AR   Ar   13   6.965   1.485   4.835
    1   AR   Ar   14   1.470   1.357   7.334
    1   AR   Ar   15   6.335   0.363   9.324
    1   AR   Ar   16   1.070   0.657   4.992
    1   AR   Ar   17   0.824   1.863  -0.129
    1   AR   Ar   18   6.098   2.809  -0.695
    1   AR   Ar   19   1.518   2.845   1.709
    1   AR   Ar   20   5.582   3.928  -2.551
    1   AR   Ar   21   6.061   0.713   1.991
    1   AR   Ar   22   6.821   1.757   2.446
    1   AR   Ar   23   0.266   0.951   0.137
    1   AR   Ar   24   0.376   2.341   1.177
    1   AR   Ar   25   7.052   1.194   3.771
    1   AR   Ar   26   6.021   1.025   3.993
    1   AR   Ar   27   1.918   1.347   3.904
    1   AR   Ar   28   1.294   2.555   4.606
    1   AR   Ar   29   5.931   2.232   7.183
    1   AR   Ar   30   0.498   2.002   6.261
    1   AR   Ar   31   1.034   6.262   7.501
    1   AR   Ar   32   1.573   2.542   6.365
    1   AR   Ar   33   1.577   3.959  -0.255
    1   AR   Ar   34   0.119   5.517   3.040
    1   AR   Ar   35   6.316   5.048   2.133
    1   AR   Ar   36   0.299   0.627  -3.396
    1   AR   Ar   37   6.351   3.208   2.420
    1   AR   Ar   38   0.309   4.363   2.582
    1   AR   Ar   39   1.175   3.925   2.971
    1   AR   Ar   40   1.260   3.617   1.024
    1   AR   Ar   41   0.167   2.701   3.204
    1   AR   Ar   42   6.503   5.389   5.205
    1   AR   Ar   43   6.820   2.501   5.815
    1   AR   Ar   44   0.571   4.265   3.726
    1   AR   Ar   45   0.690   2.933   5.441
    1   AR   Ar   46   1.565   5.766   6.278
    1   AR   Ar   47   5.651   3.344   6.879
    1   AR   Ar   48   0.273   6.527   6.570
    1   AR   Ar   49   5.902   0.136  -1.568
    1   AR   Ar   50   5.217   5.013   2.159
    1   AR   Ar   51   0.247   5.272   1.722
    1   AR   Ar   52   5.901   4.909  -1.387
    1   AR   Ar   53   5.666   6.476   2.163
    1   AR   Ar   54   6.629   6.296   2.805
    1   AR   Ar   55   5.806   5.308   3.219
    1   AR   Ar   56   0.493   7.019   1.874
    1   AR   Ar   57   5.621   2.931   3.291
    1   AR   Ar   58   0.047   5.320   4.211
    1   AR   Ar   59   1.958   5.277   5.385
    1   AR   Ar   60   0.274   6.307   3.987
    1   AR   Ar   61   6.342   4.444   5.951
    1   AR   Ar   62   0.933   5.844   5.180
    1   AR   Ar   63   2.464   6.028   6.846
    1   AR   Ar   64   1.129   6.802   5.498
    1   AR   Ar   65   3.926   7.013   0.696
    1   AR   Ar   66   1.162   1.605   1.167
    1   AR   Ar   67   3.406   6.056  -0.796
    1   AR   Ar   68   3.165   1.365  -1.206
    1   AR   Ar   69   2.727   1.185   0.895
    1   AR   Ar   70   0.692   0.800   2.430
    1   AR   Ar   71   3.032   1.317   2.831
    1   AR   Ar   72   3.458   0.676   1.680
    1   AR   Ar   73   2.872   6.974   3.536
    1   AR   Ar   74   2.260   0.918   4.834
    1   AR   Ar   75   3.497   1.469   5.039
    1   AR   Ar   76   2.005   0.859   1.651
    1   AR   Ar   77   2.497   6.333   5.685
    1   AR   Ar   78   1.615   0.032   6.743
    1   AR   Ar   79   3.917   0.041   6.580
    1   AR   Ar   80   3.082   5.471   6.035
    1   AR   Ar   81   1.838   1.569  -0.440
    1   AR   Ar   82   7.086   5.011  -0.786
    1   AR   Ar   83   1.584   2.241   0.555
    1   AR   Ar   84   0.415   3.956  -0.746
    1   AR   Ar   85   1.064   3.013   0.138
    1   AR   Ar   86   2.298   3.262   1.000
    1   AR   Ar   87   2.368   2.243   1.257
    1   AR   Ar   88   3.304   4.288   1.965
    1   AR   Ar   89   0.249   2.976   2.060
    1   AR   Ar   90   2.704   2.181   5.185
    1   AR   Ar   91   1.355   2.350   3.535
    1   AR   Ar   92   1.018   1.933   2.202
    1   AR   Ar   93   1.777   1.026   6.221
    1   AR   Ar   94   1.658   0.552   9.513
    1   AR   Ar   95   4.201   0.916   6.074
    1   AR   Ar   96   3.032   0.581   5.752
    1   AR   Ar   97   4.020   2.201  -1.126
    1   AR   Ar   98   2.443   4.966   2.544
    1   AR   Ar   99   0.006   1.882  -1.546
    1   AR   Ar  100   2.236   2.508  -0.282
    1   AR   Ar  101   2.490   4.426   1.188
    1   AR   Ar  102   3.657   3.456   3.683
    1   AR   Ar  103   1.407   4.755   0.500
    1   AR   Ar  104   2.814   2.708  -1.470
    1   AR   Ar  105   2.266   3.104   3.962
    1   AR   Ar  106   2.889   3.766   4.961
    1   AR   Ar  107   1.823   3.915   5.927
    1   AR   Ar  108   3.448   2.963   5.095
    1   AR   Ar  109   1.196   4.014   4.542
    1   AR   Ar  110   1.105   4.790   6.313
    1   AR   Ar  111   4.380   3.806   6.726
    1   AR   Ar  112   1.848   5.322   7.290
    1   AR   Ar  113   2.527   4.389  -0.081
    1   AR   Ar  114   2.437   4.853  -1.139
    1   AR   Ar  115   2.817   3.743  -0.790
    1   AR   Ar  116   5.386   6.283  -1.758
    1   AR   Ar  117   1.023   5.412   3.774
    1   AR   Ar  118   0.811   6.626   2.895
    1   AR   Ar  119   2.337   3.830   2.173
    1   AR   Ar  120   1.221   5.167   2.855
    1   AR   Ar  121   6.826   4.261   4.358
    1   AR   Ar  122   3.209   5.822   5.026
    1   AR   Ar  123   2.774   4.822   4.864
    1   AR   Ar  124   1.702   4.648   1.801
    1   AR   Ar  125   0.086   3.836   5.877
    1   AR   Ar  126   0.322   7.093   4.822
    1   AR   Ar  127   3.157   4.324   7.115
    1   AR   Ar  128   2.309   4.809   6.495
    1   AR   Ar  129   1.828   0.469   3.179
    1   AR   Ar  130   3.904   1.970  -2.314
    1   AR   Ar  131   4.770   0.310   0.249
    1   AR   Ar  132   1.769   1.850  -1.470
    1   AR   Ar  133   4.104   0.445   2.631
    1   AR   Ar  134   4.749   0.999   4.057
    1   AR   Ar  135   5.538   1.310   2.796
    1   AR   Ar  136   4.940   0.361   1.877
    1   AR   Ar  137   2.756   6.010   4.174
    1   AR   Ar  138   4.682   1.730   5.117
    1   AR   Ar  139   5.614   2.306   5.501
    1   AR   Ar  140   4.137   0.387   4.465
    1   AR   Ar  141   3.864   6.439   4.404
    1   AR   Ar  142   3.590   6.863   5.297
    1   AR   Ar  143   6.364   6.989   5.905
    1   AR   Ar  144   5.578   1.310   5.937
    1   AR   Ar  145   3.451   3.684   0.705
    1   AR   Ar  146   4.305   2.256   1.725
    1   AR   Ar  147   6.084   2.084  -1.428
    1   AR   Ar  148   4.290   4.042  -2.289
    1   AR   Ar  149   3.478   1.913   0.891
    1   AR   Ar  150   2.071   1.717   2.534
    1   AR   Ar  151   2.962   2.396   3.072
    1   AR   Ar  152   3.014   2.757   0.398
    1   AR   Ar  153   3.092   0.865   4.009
    1   AR   Ar  154   3.864   1.992   4.221
    1   AR   Ar  155   6.630   1.099   5.916
    1   AR   Ar  156   4.089   4.162   4.512
    1   AR   Ar  157   2.494   3.149   6.157
    1   AR   Ar  158   1.069   3.502   6.610
    1   AR   Ar  159   3.885   1.966   5.760
    1   AR   Ar  160   2.735   1.577   6.246
    1   AR   Ar  161   5.612   3.069   1.381
    1   AR   Ar  162   4.453   5.867  -0.582
    1   AR   Ar  163   5.586   2.415   0.408
    1   AR   Ar  164   3.684   5.585   1.856
    1   AR   Ar  165   3.453   3.038   1.545
    1   AR   Ar  166   3.234   4.505   3.467
    1   AR   Ar  167   4.432   1.804   2.804
    1   AR   Ar  168   4.955   3.119  -0.944
    1   AR   Ar  169   2.593   2.745   2.192
    1   AR   Ar  170   2.809   4.193   5.919
    1   AR   Ar  171   5.319   3.883   3.735
    1   AR   Ar  172   4.512   5.325   4.509
    1   AR   Ar  173   2.241   3.616   7.066
    1   AR   Ar  174   3.812   4.868   6.518
    1   AR   Ar  175   3.858   2.989   6.200
    1   AR   Ar  176   3.654   4.683   5.492
    1   AR   Ar  177   6.366   5.124   0.237
    1   AR   Ar  178   2.873   5.405   0.173
    1   AR   Ar  179   4.083   5.744   0.689
    1   AR   Ar  180   1.577   2.918  -1.698
    1   AR   Ar  181   0.970   5.778   0.954
    1   AR   Ar  182   2.794   0.345   2.631
    1   AR   Ar  183   3.584   4.956   2.713
    1   AR   Ar  184   4.265   6.667   1.668
    1   AR   Ar  185   1.957   5.174   4.157
    1   AR   Ar  186   3.653   5.500   3.769
    1   AR   Ar  187   3.938   6.446   3.087
    1   AR   Ar  188   3.169   6.784   1.595
    1   AR   Ar  189   2.987   2.921   7.410
    1   AR   Ar  190   5.179   6.559   5.826
    1   AR   Ar  191   4.854   4.964   5.901
    1   AR   Ar  192   4.235   5.673   5.373
    1   AR   Ar  193   1.193   6.692  -1.064
    1   AR   Ar  194   5.335   4.047  -1.440
    1   AR   Ar  195   6.390   0.359   0.047
    1   AR   Ar  196   4.972   6.860  -0.561
    1   AR   Ar  197   5.403   1.510   0.688
    1   AR   Ar  198   0.059   1.297   1.316
    1   AR   Ar  199   5.383   1.689   1.677
    1   AR   Ar  200   6.741   2.011   0.204
    1   AR   Ar  201   4.761   7.036   3.267
    1   AR   Ar  202   5.333   2.516   4.532
    1   AR   Ar  203   6.290   6.442   4.900
    1   AR   Ar  204   5.460   0.184   4.241
    1   AR   Ar  205   5.795   0.254   2.899
    1   AR   Ar  206   4.879   0.623   5.059
    1   AR   Ar  207   0.150   0.264   5.871
    1   AR   Ar  208   6.504   0.054   3.755
    1   AR   Ar  209   5.816   2.858  -2.144
    1   AR   Ar  210   4.473   1.166   0.916
    1   AR   Ar  211   6.968   3.204   0.041
    1   AR   Ar  212   6.384   4.006  -1.219
    1   AR   Ar  213   3.308   1.902   2.036
    1   AR   Ar  214   3.869   2.816   2.541
    1   AR   Ar  215   6.256   2.137   1.432
    1   AR   Ar  216   0.313   4.132   0.955
    1   AR   Ar  217   4.586   3.023   3.927
    1   AR   Ar  218   4.441   2.766   5.036
    1   AR   Ar  219   5.222   1.942   3.686
    1   AR   Ar  220   4.907   3.313   2.404
    1   AR   Ar  221   6.015   0.655   5.018
    1   AR   Ar  222   4.865   2.008   6.354
    1   AR   Ar  223   0.856   0.654   6.599
    1   AR   Ar  224   5.022   3.050   6.017
    1   AR   Ar  225   6.057   4.383   1.247
    1   AR   Ar  226   4.321   4.313   2.409
    1   AR   Ar  227   0.359   5.121   0.416
    1   AR   Ar  228   5.128   6.095   1.200
    1   AR   Ar  229   5.936   4.097  -0.033
    1   AR   Ar  230   4.359   4.454   3.607
    1   AR   Ar  231   6.325   2.008   3.385
    1   AR   Ar  232   4.272   2.911   0.677
    1   AR   Ar  233   6.414   2.675   4.067
    1   AR   Ar  234   6.925   3.304   4.747
    1   AR   Ar  235   0.330   2.332   4.164
    1   AR   Ar  236   5.360   4.900   5.020
    1   AR   Ar  237   6.057   3.944   4.949
    1   AR   Ar  238   4.798   3.718   5.187
    1   AR   Ar  239   6.904   4.193   9.150
    1   AR   Ar  240   6.200   3.477   6.037
    1   AR   Ar  241   0.491   6.894  -0.031
    1   AR   Ar  242   4.849   5.024   0.111
    1   AR   Ar  243   5.768   4.023   2.742
    1   AR   Ar  244   1.419   5.352  -0.380
    1   AR   Ar  245   5.880   0.160   1.018
    1   AR   Ar  246   6.415   6.084   1.346
    1   AR   Ar  247   4.608   3.949   0.986
    1   AR   Ar  248   5.678   6.110  -0.167
    1   AR   Ar  249   4.819   5.979   2.268
    1   AR   Ar  250   4.969   6.484   4.692
    1   AR   Ar  251   6.129   5.215   4.188
    1   AR   Ar  252   4.788   5.704   3.520
    1   AR   Ar  253   5.330   4.041   6.166
    1   AR   Ar  254   4.240   5.483   7.368
    1   AR   Ar  255   4.834   2.845   7.380
    1   AR   Ar  256   5.583   6.354   3.844
    7.12000  7.12000 12.00000
Argon-slab step 2450
  256
    1   AR   Ar    1   6.628   1.239  -0.788
    1   AR   Ar    2   7.011   0.060   0.871
    1   AR   Ar    3   0.908   0.141   0.796
    1   AR   Ar    4   1.807   0.361  -0.691
    1   AR   Ar    5   6.906   6.079   0.460
    1   AR   Ar    6   6.814   0.727   2.819
    1   AR   Ar    7   6.601   4.644   3.417
    1   AR   Ar    8   6.571   6.909   1.918
    1   AR   Ar    9   0.627   0.377   3.916
    1   AR   Ar   10   0.914   1.448   4.374
    1   AR   Ar   11   2.809   7.065   4.624
    1   AR   Ar   12   1.038   1.462   3.104
    1   AR   Ar   13   6.972   1.550   4.806
    1   AR   Ar   14   1.486   1.360   7.327
    1   AR   Ar   15   6.330   0.365   9.327
    1   AR   Ar   16   1.062   0.685   4.968
    1   AR   Ar   17   0.764   1.861  -0.138
    1   AR   Ar   18   6.119   2.827  -0.675
    1   AR   Ar   19   1.502   2.841   1.719
    1   AR   Ar   20   5.581   3.957  -2.547
    1   AR   Ar   21   6.047   0.702   1.977
    1   AR   Ar   22   6.810   1.732   2.421
    1   AR   Ar   23   0.242   0.954   0.119
    1   AR   Ar   24   0.404   2.312   1.207
    1   AR   Ar   25   7.024   1.186   3.765
    1   AR   Ar   26   6.034   1.021   3.984
    1   AR   Ar   27   1.927   1.363   3.929
    1   AR   Ar   28   1.288   2.530   4.608
    1   AR   Ar   29   5.936   2.233   7.176
    1   AR   Ar   30   0.489   1.999   6.231
    1   AR   Ar   31   1.017   6.238   7.511
    1   AR   Ar   32   1.591   2.561   6.360
    1   AR   Ar   33   1.608   3.952  -0.250
    1   AR   Ar   34   0.115   5.490   3.068
    1   AR   Ar   35   6.311   5.065   2.138
    1   AR   Ar   36   0.304   0.654  -3.391
    1   AR   Ar   37   6.353   3.214   2.409
    1   AR   Ar   38   0.296   4.381   2.570
    1   AR   Ar   39   1.188   3.931   2.968
    1   AR   Ar   40   1.240   3.626   1.036
    1   AR   Ar   41   0.120   2.709   3.240
    1   AR   Ar   42   6.482   5.359   5.207
    1   AR   Ar   43   6.861   2.455   5.782
    1   AR   Ar   44   0.585   4.261   3.712
    1   AR   Ar   45   0.673   2.939   5.459
    1   AR   Ar   46   1.543   5.745   6.297
    1   AR   Ar   47   5.620   3.360   6.896
    1   AR   Ar   48   0.291   6.530   6.583
    1   AR   Ar   49   5.888   0.139  -1.572
    1   AR   Ar   50   5.166   5.025   2.145
    1   AR   Ar   51   0.256   5.304   1.752
    1   AR   Ar   52   5.882   4.915  -1.367
    1   AR   Ar   53   5.691   6.499   2.156
    1   AR   Ar   54   6.623   6.288   2.786
    1   AR   Ar   55   5.831   5.309   3.208
    1   AR   Ar   56   0.500   7.009   1.854
    1   AR   Ar   57   5.580   2.935   3.300
    1   AR   Ar   58   0.053   5.314   4.217
    1   AR   Ar   59   1.980   5.294   5.394
    1   AR   Ar   60   0.265   6.280   3.991
    1   AR   Ar   61   6.350   4.439   5.965
    1   AR   Ar   62   0.933   5.798   5.150
    1   AR   Ar   63   2.466   6.047   6.841
    1   AR   Ar   64   1.149   6.810   5.478
    1   AR   Ar   65   3.920   7.015   0.708
    1   AR   Ar   66   1.151   1.626   1.154
    1   AR   Ar   67   3.431   6.048  -0.838
    1   AR   Ar   68   3.155   1.363  -1.164
    1   AR   Ar   69   2.729   1.164   0.906
    1   AR   Ar   70   0.711   0.783   2.448
    1   AR   Ar   71   3.037   1.321   2.870
    1   AR   Ar   72   3.416   0.679   1.660
    1   AR   Ar   73   2.902   6.961   3.521
    1   AR   Ar   74   2.284   0.947   4.852
    1   AR   Ar   75   3.505   1.463   5.019
    1   AR   Ar   76   2.018   0.853   1.668
    1   AR   Ar   77   2.510   6.356   5.684
    1   AR   Ar   78   1.595   0.029   6.742
    1   AR   Ar   79   3.927   0.044   6.591
    1   AR   Ar   80   3.076   5.448   6.059
    1   AR   Ar   81   1.807   1.557  -0.420
    1   AR   Ar   82   7.059   5.072  -0.838
    1   AR   Ar   83   1.632   2.230   0.527
    1   AR   Ar   84   0.409   3.956  -0.733
    1   AR   Ar   85   1.024   2.999   0.127
    1   AR   Ar   86   2.306   3.285   0.985
    1   AR   Ar   87   2.382   2.243   1.222
    1   AR   Ar   88   3.263   4.283   1.981
    1   AR   Ar   89   0.207   2.958   2.069
    1   AR   Ar   90   2.690   2.176   5.176
    1   AR   Ar   91   1.361   2.390   3.523
    1   AR   Ar   92   1.029   1.959   2.189
    1   AR   Ar   93   1.789   1.022   6.193
    1   AR   Ar   94   1.665   0.537   9.519
    1   AR   Ar   95   4.228   0.930   6.078
    1   AR   Ar   96   3.030   0.573   5.743
    1   AR   Ar   97   4.038   2.195  -1.089
    1   AR   Ar   98   2.435   4.968   2.583
    1   AR   Ar   99   0.019   1.875  -1.546
    1   AR   Ar  100   2.250   2.484  -0.288
    1   AR   Ar  101   2.497   4.413   1.211
    1   AR   Ar  102   3.651   3.458   3.703
    1   AR   Ar  103   1.391   4.793   0.516
    1   AR   Ar  104   2.788   2.700  -1.469
    1   AR   Ar  105   2.228   3.070   3.934
    1   AR   Ar  106   2.905   3.802   4.962
    1   AR   Ar  107   1.825   3.891   5.922
    1   AR   Ar  108   3.495   2.973   5.108
    1   AR   Ar  109   1.234   4.027   4.578
    1   AR   Ar  110   1.115   4.787   6.321
    1   AR   Ar  111   4.377   3.788   6.713
    1   AR   Ar  112   1.865   5.330   7.273
    1   AR   Ar  113   2.533   4.366  -0.061
    1   AR   Ar  114   2.401   4.875  -1.175
    1   AR   Ar  115   2.815   3.728  -0.816
    1   AR   Ar  116   5.396   6.315  -1.765
    1   AR   Ar  117   0.996   5.433   3.756
    1   AR   Ar  118   0.796   6.621   2.891
    1   AR   Ar  119   2.324   3.838   2.164
    1   AR   Ar  120   1.229   5.177   2.842
    1   AR   Ar  121   6.842   4.245   4.332
    1   AR   Ar  122   3.253   5.851   5.061
    1   AR   Ar  123   2.796   4.800   4.869
    1   AR   Ar  124   1.693   4.634   1.858
    1   AR   Ar  125   0.097   3.823   5.896
    1   AR   Ar  126   0.303   7.095   4.799
    1   AR   Ar  127   3.168   4.318   7.124
    1   AR   Ar  128   2.274   4.820   6.480
    1   AR   Ar  129   1.821   0.438   3.169
    1   AR   Ar  130   3.925   1.980  -2.326
    1   AR   Ar  131   4.760   0.320   0.246
    1   AR   Ar  132   1.757   1.828  -1.435
    1   AR   Ar  133   4.078   0.426   2.648
    1   AR   Ar  134   4.765   0.987   4.072
    1   AR   Ar  135   5.526   1.323   2.803
    1   AR   Ar  136   4.927   0.360   1.885
    1   AR   Ar  137   2.787   6.028   4.189
    1   AR   Ar  138   4.692   1.780   5.109
    1   AR   Ar  139   5.607   2.300   5.506
    1   AR   Ar  140   4.125   0.356   4.479
    1   AR   Ar  141   3.847   6.414   4.422
    1   AR   Ar  142   3.583   6.878   5.329
    1   AR   Ar  143   6.377   6.987   5.918
    1   AR   Ar  144   5.577   1.326   5.933
    1   AR   Ar  145   3.463   3.674   0.683
    1   AR   Ar  146   4.281   2.295   1.733
    1   AR   Ar  147   6.085   2.106  -1.437
    1   AR   Ar  148   4.301   4.028  -2.265
    1   AR   Ar  149   3.487   1.912   0.873
    1   AR   Ar  150   2.030   1.692   2.539
    1   AR   Ar  151   2.975   2.426   3.063
    1   AR   Ar  152   2.996   2.770   0.411
    1   AR   Ar  153   3.097   0.844   4.045
    1   AR   Ar  154   3.878   2.015   4.228
    1   AR   Ar  155   6.603   1.065   5.950
    1   AR   Ar  156   4.108   4.181   4.516
    1   AR   Ar  157   2.472   3.165   6.129
    1   AR   Ar  158   1.066   3.512   6.625
    1   AR   Ar  159   3.903   1.992   5.766
    1   AR   Ar  160   2.751   1.537   6.218
    1   AR   Ar  161   5.613   3.074   1.374
    1   AR   Ar  162   4.473   5.892  -0.574
    1   AR   Ar  163   5.591   2.393   0.410
    1   AR   Ar  164   3.659   5.580   1.873
    1   AR   Ar  165   3.466   3.011   1.530
    1   AR   Ar  166   3.270   4.489   3.463
    1   AR   Ar  167   4.410   1.829   2.787
    1   AR   Ar  168   4.935   3.106  -0.919
    1   AR   Ar  169   2.594   2.740   2.196
    1   AR   Ar  170   2.774   4.211   5.921
    1   AR   Ar  171   5.344   3.908   3.722
    1   AR   Ar  172   4.519   5.354   4.547
    1   AR   Ar  173   2.228   3.633   7.109
    1   AR   Ar  174   3.811   4.866   6.529
    1   AR   Ar  175   3.870   2.995   6.219
    1   AR   Ar  176   3.672   4.658   5.490
    1   AR   Ar  177   6.364   5.105   0.230
    1   AR   Ar  178   2.875   5.392   0.169
    1   AR   Ar  179   4.073   5.750   0.677
    1   AR   Ar  180   1.561   2.893  -1.707
    1   AR   Ar  181   0.961   5.774   0.962
    1   AR   Ar  182   2.788   0.343   2.648
    1   AR   Ar  183   3.590   4.975   2.744
    1   AR   Ar  184   4.244   6.659   1.674
    1   AR   Ar  185   1.956   5.164   4.165
    1   AR   Ar  186   3.619   5.481   3.776
    1   AR   Ar  187   3.921   6.406   3.103
    1   AR   Ar  188   3.172   6.816   1.628
    1   AR   Ar  189   2.965   2.884   7.463
    1   AR   Ar  190   5.187   6.564   5.813
    1   AR   Ar  191   4.800   4.951   5.921
    1   AR   Ar  192   4.233   5.663   5.372
    1   AR   Ar  193   1.210   6.694  -1.044
    1   AR   Ar  194   5.336   4.030  -1.415
    1   AR   Ar  195   6.368   0.363   0.039
    1   AR   Ar  196   4.988   6.836  -0.552
    1   AR   Ar  197   5.443   1.503   0.692
    1   AR   Ar  198   0.063   1.283   1.318
    1   AR   Ar  199   5.377   1.697   1.680
    1   AR   Ar  200   6.767   2.021   0.198
    1   AR   Ar  201   4.736   7.007   3.278
    1   AR   Ar  202   5.348   2.521   4.520
    1   AR   Ar  203   6.302   6.415   4.919
    1   AR   Ar  204   5.485   0.158   4.294
    1   AR   Ar  205   5.804   0.235   2.880
    1   AR   Ar  206   4.879   0.659   5.068
    1   AR   Ar  207   0.144   0.266   5.892
    1   AR   Ar  208   6.479   0.028   3.733
    1   AR   Ar  209   5.818   2.857  -2.167
    1   AR   Ar  210   4.498   1.115   0.922
    1   AR   Ar  211   6.971   3.183   0.059
    1   AR   Ar  212   6.388   4.016  -1.208
    1   AR   Ar  213   3.319   1.900   2.050
    1   AR   Ar  214   3.875   2.839   2.555
    1   AR   Ar  215   6.266   2.109   1.435
    1   AR   Ar  216   0.308   4.112   0.929
    1   AR   Ar  217   4.614   3.046   3.934
    1   AR   Ar  218   4.442   2.737   5.033
    1   AR   Ar  219   5.203   1.915   3.707
    1   AR   Ar  220   4.900   3.287   2.410
    1   AR   Ar  221   6.030   0.657   5.046
    1   AR   Ar  222   4.850   2.030   6.369
    1   AR   Ar  223   0.844   0.662   6.605
    1   AR   Ar  224   5.018   3.041   6.041
    1   AR   Ar  225   6.056   4.357   1.269
    1   AR   Ar  226   4.293   4.354   2.445
    1   AR   Ar  227   0.347   5.090   0.428
    1   AR   Ar  228   5.130   6.112   1.187
    1   AR   Ar  229   5.920   4.100  -0.045
    1   AR   Ar  230   4.343   4.474   3.596
    1   AR   Ar  231   6.347   2.003   3.385
    1   AR   Ar  232   4.304   2.938   0.676
    1   AR   Ar  233   6.397   2.689   4.056
    1   AR   Ar  234   6.915   3.285   4.683
    1   AR   Ar  235   0.343   2.332   4.167
    1   AR   Ar  236   5.359   4.898   5.006
    1   AR   Ar  237   6.051   3.941   4.946
    1   AR   Ar  238   4.805   3.737   5.185
    1   AR   Ar  239   6.910   4.212   9.171
    1   AR   Ar  240   6.177   3.448   6.018
    1   AR   Ar  241   0.478   6.871  -0.038
    1   AR   Ar  242   4.875   5.053   0.108
    1   AR   Ar  243   5.762   4.012   2.727
    1   AR   Ar  244   1.411   5.347  -0.353
    1   AR   Ar  245   5.891   0.156   1.030
    1   AR   Ar  246   6.441   6.088   1.366
    1   AR   Ar  247   4.610   3.947   0.963
    1   AR   Ar  248   5.685   6.093  -0.177
    1   AR   Ar  249   4.805   5.988   2.276
    1   AR   Ar  250   4.935   6.499   4.658
    1   AR   Ar  251   6.136   5.208   4.198
    1   AR   Ar  252   4.766   5.702   3.510
    1   AR   Ar  253   5.373   4.050   6.174
    1   AR   Ar  254   4.212   5.472   7.374
    1   AR   Ar  255   4.797   2.845   7.374
    1   AR   Ar  256   5.581   6.346   3.863
    7.12000  7.12000 12.00000
Argon-slab step 2455
  256
    1   AR   Ar    1   6.642   1.250  -0.805
    1   AR   Ar    2   6.986   0.073   0.859
    1   AR   Ar    3   0.923   0.138   0.750
    1   AR   Ar    4   1.852   0.337  -0.704
    1   AR   Ar    5   6.911   6.086   0.459
    1   AR   Ar    6   6.824   0.728   2.808
    1   AR   Ar    7   6.576   4.676   3.401
    1   AR   Ar    8   6.576   6.916   1.892
    1   AR   Ar    9   0.610   0.365   3.916
    1   AR   Ar   10   0.935   1.445   4.383
    1   AR   Ar   11   2.824   7.018   4.619
    1   AR   Ar   12   1.052   1.435   3.129
    1   AR   Ar   13   6.978   1.614   4.779
    1   AR   Ar   14   1.503   1.361   7.317
    1   AR   Ar   15   6.326   0.367   9.329
    1   AR   Ar   16   1.060   0.705   4.952
    1   AR   Ar   17   0.704   1.862  -0.146
    1   AR   Ar   18   6.140   2.848  -0.652
    1   AR   Ar   19   1.488   2.836   1.728
    1   AR   Ar   20   5.579   3.984  -2.541
    1   AR   Ar   21   6.043   0.689   1.960
    1   AR   Ar   22   6.799   1.708   2.395
    1   AR   Ar   23   0.250   0.951   0.107
    1   AR   Ar   24   0.428   2.290   1.236
    1   AR   Ar   25   7.003   1.180   3.757
    1   AR   Ar   26   6.042   1.019   3.974
    1   AR   Ar   27   1.935   1.381   3.950
    1   AR   Ar   28   1.285   2.505   4.612
    1   AR   Ar   29   5.940   2.237   7.168
    1   AR   Ar   30   0.492   1.991   6.206
    1   AR   Ar   31   1.001   6.215   7.519
    1   AR   Ar   32   1.607   2.579   6.355
    1   AR   Ar   33   1.633   3.944  -0.245
    1   AR   Ar   34   0.113   5.460   3.098
    1   AR   Ar   35   6.305   5.079   2.155
    1   AR   Ar   36   0.306   0.660  -3.380
    1   AR   Ar   37   6.354   3.217   2.397
    1   AR   Ar   38   0.281   4.401   2.559
    1   AR   Ar   39   1.207   3.935   2.959
    1   AR   Ar   40   1.222   3.635   1.047
    1   AR   Ar   41   0.072   2.718   3.270
    1   AR   Ar   42   6.461   5.326   5.209
    1   AR   Ar   43   6.889   2.414   5.743
    1   AR   Ar   44   0.595   4.261   3.700
    1   AR   Ar   45   0.657   2.944   5.477
    1   AR   Ar   46   1.522   5.728   6.315
    1   AR   Ar   47   5.589   3.373   6.919
    1   AR   Ar   48   0.310   6.533   6.596
    1   AR   Ar   49   5.875   0.144  -1.575
    1   AR   Ar   50   5.117   5.032   2.131
    1   AR   Ar   51   0.265   5.336   1.782
    1   AR   Ar   52   5.863   4.929  -1.347
    1   AR   Ar   53   5.713   6.510   2.161
    1   AR   Ar   54   6.614   6.288   2.764
    1   AR   Ar   55   5.849   5.314   3.192
    1   AR   Ar   56   0.508   6.998   1.832
    1   AR   Ar   57   5.539   2.937   3.309
    1   AR   Ar   58   0.058   5.300   4.226
    1   AR   Ar   59   1.979   5.280   5.375
    1   AR   Ar   60   0.257   6.261   3.992
    1   AR   Ar   61   6.364   4.427   5.975
    1   AR   Ar   62   0.932   5.751   5.120
    1   AR   Ar   63   2.471   6.070   6.833
    1   AR   Ar   64   1.174   6.813   5.454
    1   AR   Ar   65   3.911   7.015   0.722
    1   AR   Ar   66   1.140   1.636   1.147
    1   AR   Ar   67   3.454   6.039  -0.879
    1   AR   Ar   68   3.145   1.362  -1.121
    1   AR   Ar   69   2.743   1.138   0.927
    1   AR   Ar   70   0.728   0.761   2.459
    1   AR   Ar   71   3.043   1.326   2.914
    1   AR   Ar   72   3.378   0.690   1.642
    1   AR   Ar   73   2.933   6.944   3.512
    1   AR   Ar   74   2.309   0.976   4.873
    1   AR   Ar   75   3.509   1.447   4.995
    1   AR   Ar   76   2.030   0.849   1.687
    1   AR   Ar   77   2.523   6.379   5.684
    1   AR   Ar   78   1.583   0.017   6.742
    1   AR   Ar   79   3.935   0.045   6.602
    1   AR   Ar   80   3.068   5.425   6.081
    1   AR   Ar   81   1.775   1.540  -0.396
    1   AR   Ar   82   7.031   5.133  -0.888
    1   AR   Ar   83   1.681   2.223   0.492
    1   AR   Ar   84   0.402   3.956  -0.720
    1   AR   Ar   85   0.989   2.981   0.124
    1   AR   Ar   86   2.312   3.312   0.973
    1   AR   Ar   87   2.402   2.240   1.193
    1   AR   Ar   88   3.225   4.278   1.997
    1   AR   Ar   89   0.169   2.938   2.079
    1   AR   Ar   90   2.675   2.170   5.168
    1   AR   Ar   91   1.340   2.382   3.500
    1   AR   Ar   92   1.036   1.986   2.173
    1   AR   Ar   93   1.801   1.016   6.164
    1   AR   Ar   94   1.671   0.522   9.525
    1   AR   Ar   95   4.253   0.914   6.045
    1   AR   Ar   96   3.044   0.604   5.735
    1   AR   Ar   97   4.056   2.189  -1.053
    1   AR   Ar   98   2.430   4.970   2.622
    1   AR   Ar   99   0.033   1.869  -1.545
    1   AR   Ar  100   2.266   2.465  -0.298
    1   AR   Ar  101   2.505   4.398   1.230
    1   AR   Ar  102   3.641   3.470   3.706
    1   AR   Ar  103   1.372   4.819   0.522
    1   AR   Ar  104   2.764   2.695  -1.424
    1   AR   Ar  105   2.189   3.035   3.906
    1   AR   Ar  106   2.918   3.833   4.960
    1   AR   Ar  107   1.812   3.873   5.914
    1   AR   Ar  108   3.532   2.981   5.123
    1   AR   Ar  109   1.273   4.038   4.615
    1   AR   Ar  110   1.126   4.781   6.329
    1   AR   Ar  111   4.376   3.772   6.700
    1   AR   Ar  112   1.876   5.337   7.262
    1   AR   Ar  113   2.541   4.349  -0.034
    1   AR   Ar  114   2.365   4.897  -1.209
    1   AR   Ar  115   2.813   3.709  -0.847
    1   AR   Ar  116   5.405   6.345  -1.770
    1   AR   Ar  117   0.967   5.457   3.751
    1   AR   Ar  118   0.779   6.615   2.888
    1   AR   Ar  119   2.309   3.843   2.157
    1   AR   Ar  120   1.239   5.181   2.815
    1   AR   Ar  121   6.860   4.233   4.308
    1   AR   Ar  122   3.296   5.875   5.102
    1   AR   Ar  123   2.817   4.787   4.872
    1   AR   Ar  124   1.678   4.622   1.915
    1   AR   Ar  125   0.112   3.808   5.914
    1   AR   Ar  126   0.279   7.092   4.780
    1   AR   Ar  127   3.174   4.307   7.107
    1   AR   Ar  128   2.232   4.839   6.470
    1   AR   Ar  129   1.813   0.409   3.159
    1   AR   Ar  130   3.946   1.990  -2.336
    1   AR   Ar  131   4.754   0.334   0.247
    1   AR   Ar  132   1.746   1.807  -1.403
    1   AR   Ar  133   4.049   0.408   2.662
    1   AR   Ar  134   4.788   0.984   4.079
    1   AR   Ar  135   5.514   1.331   2.811
    1   AR   Ar  136   4.917   0.360   1.895
    1   AR   Ar  137   2.813   6.047   4.198
    1   AR   Ar  138   4.707   1.816   5.099
    1   AR   Ar  139   5.603   2.295   5.514
    1   AR   Ar  140   4.097   0.315   4.494
    1   AR   Ar  141   3.833   6.388   4.433
    1   AR   Ar  142   3.578   6.892   5.364
    1   AR   Ar  143   6.375   6.980   5.930
    1   AR   Ar  144   5.565   1.341   5.918
    1   AR   Ar  145   3.476   3.669   0.661
    1   AR   Ar  146   4.261   2.332   1.738
    1   AR   Ar  147   6.056   2.102  -1.487
    1   AR   Ar  148   4.318   4.021  -2.240
    1   AR   Ar  149   3.498   1.913   0.859
    1   AR   Ar  150   1.989   1.667   2.544
    1   AR   Ar  151   2.991   2.453   3.062
    1   AR   Ar  152   2.981   2.780   0.424
    1   AR   Ar  153   3.103   0.823   4.082
    1   AR   Ar  154   3.895   2.040   4.233
    1   AR   Ar  155   6.576   1.034   5.983
    1   AR   Ar  156   4.122   4.197   4.528
    1   AR   Ar  157   2.459   3.172   6.102
    1   AR   Ar  158   1.064   3.524   6.639
    1   AR   Ar  159   3.929   2.028   5.783
    1   AR   Ar  160   2.768   1.499   6.190
    1   AR   Ar  161   5.614   3.079   1.368
    1   AR   Ar  162   4.494   5.915  -0.565
    1   AR   Ar  163   5.602   2.394   0.406
    1   AR   Ar  164   3.636   5.578   1.888
    1   AR   Ar  165   3.478   2.982   1.515
    1   AR   Ar  166   3.293   4.455   3.485
    1   AR   Ar  167   4.387   1.854   2.770
    1   AR   Ar  168   4.916   3.092  -0.895
    1   AR   Ar  169   2.591   2.736   2.176
    1   AR   Ar  170   2.755   4.223   5.918
    1   AR   Ar  171   5.367   3.935   3.711
    1   AR   Ar  172   4.532   5.373   4.554
    1   AR   Ar  173   2.215   3.652   7.149
    1   AR   Ar  174   3.816   4.865   6.538
    1   AR   Ar  175   3.881   3.000   6.235
    1   AR   Ar  176   3.693   4.633   5.484
    1   AR   Ar  177   6.361   5.086   0.224
    1   AR   Ar  178   2.888   5.426   0.180
    1   AR   Ar  179   4.064   5.756   0.665
    1   AR   Ar  180   1.546   2.868  -1.715
    1   AR   Ar  181   0.953   5.771   0.971
    1   AR   Ar  182   2.782   0.340   2.655
    1   AR   Ar  183   3.599   5.020   2.757
    1   AR   Ar  184   4.223   6.651   1.681
    1   AR   Ar  185   1.956   5.154   4.176
    1   AR   Ar  186   3.587   5.461   3.785
    1   AR   Ar  187   3.900   6.362   3.118
    1   AR   Ar  188   3.173   6.841   1.663
    1   AR   Ar  189   2.943   2.848   7.513
    1   AR   Ar  190   5.195   6.577   5.792
    1   AR   Ar  191   4.743   4.936   5.943
    1   AR   Ar  192   4.222   5.665   5.399
    1   AR   Ar  193   1.224   6.694  -1.025
    1   AR   Ar  194   5.332   4.010  -1.392
    1   AR   Ar  195   6.347   0.367   0.030
    1   AR   Ar  196   5.007   6.812  -0.549
    1   AR   Ar  197   5.484   1.474   0.696
    1   AR   Ar  198   0.065   1.266   1.321
    1   AR   Ar  199   5.363   1.702   1.693
    1   AR   Ar  200   6.781   2.048   0.180
    1   AR   Ar  201   4.728   6.997   3.296
    1   AR   Ar  202   5.366   2.529   4.508
    1   AR   Ar  203   6.314   6.390   4.936
    1   AR   Ar  204   5.505   0.135   4.284
    1   AR   Ar  205   5.812   0.213   2.864
    1   AR   Ar  206   4.880   0.685   5.087
    1   AR   Ar  207   0.155   0.270   5.911
    1   AR   Ar  208   6.456   0.001   3.712
    1   AR   Ar  209   5.806   2.859  -2.195
    1   AR   Ar  210   4.502   1.079   0.934
    1   AR   Ar  211   6.975   3.161   0.078
    1   AR   Ar  212   6.362   4.009  -1.218
    1   AR   Ar  213   3.329   1.899   2.060
    1   AR   Ar  214   3.879   2.863   2.570
    1   AR   Ar  215   6.283   2.083   1.436
    1   AR   Ar  216   0.301   4.094   0.902
    1   AR   Ar  217   4.643   3.068   3.942
    1   AR   Ar  218   4.447   2.711   5.030
    1   AR   Ar  219   5.183   1.885   3.724
    1   AR   Ar  220   4.894   3.260   2.417
    1   AR   Ar  221   6.047   0.660   5.076
    1   AR   Ar  222   4.837   2.054   6.387
    1   AR   Ar  223   0.823   0.677   6.611
    1   AR   Ar  224   5.011   3.032   6.063
    1   AR   Ar  225   6.055   4.330   1.292
    1   AR   Ar  226   4.274   4.385   2.479
    1   AR   Ar  227   0.333   5.060   0.439
    1   AR   Ar  228   5.132   6.130   1.175
    1   AR   Ar  229   5.906   4.103  -0.057
    1   AR   Ar  230   4.332   4.498   3.575
    1   AR   Ar  231   6.366   1.983   3.373
    1   AR   Ar  232   4.335   2.962   0.676
    1   AR   Ar  233   6.375   2.711   4.053
    1   AR   Ar  234   6.910   3.262   4.637
    1   AR   Ar  235   0.354   2.331   4.173
    1   AR   Ar  236   5.362   4.893   4.991
    1   AR   Ar  237   6.040   3.937   4.946
    1   AR   Ar  238   4.839   3.738   5.199
    1   AR   Ar  239   6.917   4.231   9.191
    1   AR   Ar  240   6.159   3.405   5.994
    1   AR   Ar  241   0.462   6.845  -0.050
    1   AR   Ar  242   4.902   5.084   0.106
    1   AR   Ar  243   5.754   4.006   2.711
    1   AR   Ar  244   1.402   5.345  -0.329
    1   AR   Ar  245   5.902   0.150   1.043
    1   AR   Ar  246   6.463   6.084   1.387
    1   AR   Ar  247   4.612   3.946   0.942
    1   AR   Ar  248   5.692   6.074  -0.185
    1   AR   Ar  249   4.784   5.998   2.289
    1   AR   Ar  250   4.895   6.509   4.631
    1   AR   Ar  251   6.138   5.202   4.213
    1   AR   Ar  252   4.745   5.706   3.502
    1   AR   Ar  253   5.408   4.067   6.178
    1   AR   Ar  254   4.183   5.460   7.380
    1   AR   Ar  255   4.760   2.843   7.365
    1   AR   Ar  256   5.585   6.333   3.876
    7.12000  7.12000 12.00000
Argon-slab step 2460
  256
    1   AR   Ar    1   6.655   1.262  -0.820
    1   AR   Ar    2   6.961   0.085   0.850
    1   AR   Ar    3   0.943   0.139   0.710
    1   AR   Ar    4   1.873   0.310  -0.698
    1   AR   Ar    5   6.918   6.092   0.454
    1   AR   Ar    6   6.829   0.743   2.837
    1   AR   Ar    7   6.559   4.700   3.382
    1   AR   Ar    8   6.591   6.936   1.869
    1   AR   Ar    9   0.582   0.370   3.912
    1   AR   Ar   10   0.952   1.460   4.376
    1   AR   Ar   11   2.838   6.974   4.615
    1   AR   Ar   12   1.044   1.449   3.144
    1   AR   Ar   13   6.983   1.675   4.754
    1   AR   Ar   14   1.519   1.362   7.305
    1   AR   Ar   15   6.321   0.368   9.331
    1   AR   Ar   16   1.062   0.705   4.952
    1   AR   Ar   17   0.648   1.866  -0.154
    1   AR   Ar   18   6.161   2.870  -0.628
    1   AR   Ar   19   1.476   2.830   1.736
    1   AR   Ar   20   5.577   4.011  -2.534
    1   AR   Ar   21   6.076   0.650   1.940
    1   AR   Ar   22   6.789   1.687   2.367
    1   AR   Ar   23   0.257   0.944   0.098
    1   AR   Ar   24   0.440   2.279   1.265
    1   AR   Ar   25   6.993   1.178   3.750
    1   AR   Ar   26   6.040   1.018   3.964
    1   AR   Ar   27   1.943   1.399   3.968
    1   AR   Ar   28   1.287   2.510   4.601
    1   AR   Ar   29   5.942   2.241   7.158
    1   AR   Ar   30   0.510   1.973   6.190
    1   AR   Ar   31   0.987   6.191   7.524
    1   AR   Ar   32   1.622   2.596   6.349
    1   AR   Ar   33   1.652   3.932  -0.240
    1   AR   Ar   34   0.122   5.498   3.061
    1   AR   Ar   35   6.299   5.093   2.175
    1   AR   Ar   36   0.305   0.634  -3.361
    1   AR   Ar   37   6.351   3.217   2.387
    1   AR   Ar   38   0.264   4.423   2.548
    1   AR   Ar   39   1.232   3.938   2.944
    1   AR   Ar   40   1.209   3.644   1.057
    1   AR   Ar   41   0.022   2.730   3.294
    1   AR   Ar   42   6.441   5.293   5.214
    1   AR   Ar   43   6.900   2.382   5.693
    1   AR   Ar   44   0.602   4.267   3.691
    1   AR   Ar   45   0.643   2.950   5.494
    1   AR   Ar   46   1.500   5.728   6.331
    1   AR   Ar   47   5.559   3.383   6.947
    1   AR   Ar   48   0.331   6.538   6.609
    1   AR   Ar   49   5.864   0.151  -1.576
    1   AR   Ar   50   5.072   5.035   2.117
    1   AR   Ar   51   0.273   5.368   1.812
    1   AR   Ar   52   5.845   4.947  -1.326
    1   AR   Ar   53   5.680   6.481   2.174
    1   AR   Ar   54   6.603   6.289   2.743
    1   AR   Ar   55   5.854   5.328   3.174
    1   AR   Ar   56   0.518   6.987   1.810
    1   AR   Ar   57   5.501   2.937   3.317
    1   AR   Ar   58   0.062   5.279   4.239
    1   AR   Ar   59   1.978   5.267   5.358
    1   AR   Ar   60   0.244   6.245   3.989
    1   AR   Ar   61   6.381   4.417   5.983
    1   AR   Ar   62   0.932   5.703   5.089
    1   AR   Ar   63   2.478   6.095   6.821
    1   AR   Ar   64   1.199   6.816   5.431
    1   AR   Ar   65   3.899   7.015   0.736
    1   AR   Ar   66   1.139   1.632   1.141
    1   AR   Ar   67   3.477   6.031  -0.919
    1   AR   Ar   68   3.134   1.363  -1.079
    1   AR   Ar   69   2.773   1.111   0.957
    1   AR   Ar   70   0.743   0.735   2.465
    1   AR   Ar   71   3.049   1.333   2.960
    1   AR   Ar   72   3.344   0.710   1.627
    1   AR   Ar   73   2.967   6.925   3.509
    1   AR   Ar   74   2.335   1.004   4.897
    1   AR   Ar   75   3.510   1.425   4.972
    1   AR   Ar   76   2.042   0.845   1.709
    1   AR   Ar   77   2.534   6.402   5.684
    1   AR   Ar   78   1.576   0.000   6.742
    1   AR   Ar   79   3.942   0.045   6.611
    1   AR   Ar   80   3.057   5.404   6.100
    1   AR   Ar   81   1.759   1.527  -0.379
    1   AR   Ar   82   7.001   5.191  -0.937
    1   AR   Ar   83   1.722   2.217   0.456
    1   AR   Ar   84   0.394   3.956  -0.705
    1   AR   Ar   85   0.964   2.953   0.133
    1   AR   Ar   86   2.313   3.343   0.966
    1   AR   Ar   87   2.427   2.235   1.171
    1   AR   Ar   88   3.193   4.275   2.015
    1   AR   Ar   89   0.136   2.916   2.088
    1   AR   Ar   90   2.682   2.185   5.160
    1   AR   Ar   91   1.319   2.376   3.479
    1   AR   Ar   92   1.040   2.012   2.157
    1   AR   Ar   93   1.814   1.017   6.176
    1   AR   Ar   94   1.678   0.507   9.532
    1   AR   Ar   95   4.278   0.902   6.008
    1   AR   Ar   96   3.058   0.633   5.725
    1   AR   Ar   97   4.074   2.183  -1.018
    1   AR   Ar   98   2.427   4.970   2.662
    1   AR   Ar   99   0.048   1.863  -1.544
    1   AR   Ar  100   2.286   2.450  -0.316
    1   AR   Ar  101   2.512   4.383   1.244
    1   AR   Ar  102   3.629   3.486   3.700
    1   AR   Ar  103   1.372   4.786   0.517
    1   AR   Ar  104   2.762   2.698  -1.372
    1   AR   Ar  105   2.151   2.999   3.878
    1   AR   Ar  106   2.934   3.847   4.957
    1   AR   Ar  107   1.781   3.864   5.904
    1   AR   Ar  108   3.553   2.992   5.141
    1   AR   Ar  109   1.312   4.051   4.651
    1   AR   Ar  110   1.136   4.768   6.337
    1   AR   Ar  111   4.379   3.760   6.688
    1   AR   Ar  112   1.881   5.346   7.260
    1   AR   Ar  113   2.554   4.335  -0.004
    1   AR   Ar  114   2.355   4.911  -1.231
    1   AR   Ar  115   2.811   3.689  -0.878
    1   AR   Ar  116   5.412   6.371  -1.775
    1   AR   Ar  117   0.940   5.483   3.751
    1   AR   Ar  118   0.761   6.610   2.886
    1   AR   Ar  119   2.292   3.841   2.151
    1   AR   Ar  120   1.249   5.181   2.781
    1   AR   Ar  121   6.876   4.226   4.287
    1   AR   Ar  122   3.326   5.893   5.149
    1   AR   Ar  123   2.836   4.793   4.873
    1   AR   Ar  124   1.657   4.613   1.970
    1   AR   Ar  125   0.128   3.791   5.932
    1   AR   Ar  126   0.249   7.084   4.768
    1   AR   Ar  127   3.157   4.295   7.088
    1   AR   Ar  128   2.186   4.862   6.460
    1   AR   Ar  129   1.803   0.382   3.150
    1   AR   Ar  130   3.966   2.000  -2.345
    1   AR   Ar  131   4.751   0.347   0.248
    1   AR   Ar  132   1.736   1.787  -1.373
    1   AR   Ar  133   4.018   0.390   2.674
    1   AR   Ar  134   4.812   0.981   4.083
    1   AR   Ar  135   5.496   1.314   2.825
    1   AR   Ar  136   4.908   0.360   1.904
    1   AR   Ar  137   2.835   6.065   4.203
    1   AR   Ar  138   4.730   1.822   5.090
    1   AR   Ar  139   5.600   2.295   5.523
    1   AR   Ar  140   4.063   0.271   4.508
    1   AR   Ar  141   3.824   6.363   4.436
    1   AR   Ar  142   3.576   6.906   5.401
    1   AR   Ar  143   6.363   6.968   5.941
    1   AR   Ar  144   5.550   1.353   5.903
    1   AR   Ar  145   3.488   3.668   0.640
    1   AR   Ar  146   4.246   2.367   1.740
    1   AR   Ar  147   6.028   2.095  -1.535
    1   AR   Ar  148   4.336   4.015  -2.214
    1   AR   Ar  149   3.512   1.916   0.847
    1   AR   Ar  150   1.952   1.641   2.550
    1   AR   Ar  151   3.010   2.477   3.068
    1   AR   Ar  152   2.970   2.784   0.434
    1   AR   Ar  153   3.108   0.803   4.118
    1   AR   Ar  154   3.933   2.010   4.212
    1   AR   Ar  155   6.550   1.006   6.016
    1   AR   Ar  156   4.133   4.212   4.544
    1   AR   Ar  157   2.458   3.170   6.077
    1   AR   Ar  158   1.061   3.535   6.652
    1   AR   Ar  159   3.952   2.064   5.800
    1   AR   Ar  160   2.786   1.466   6.161
    1   AR   Ar  161   5.614   3.083   1.362
    1   AR   Ar  162   4.526   5.920  -0.542
    1   AR   Ar  163   5.615   2.413   0.397
    1   AR   Ar  164   3.614   5.579   1.899
    1   AR   Ar  165   3.489   2.989   1.491
    1   AR   Ar  166   3.305   4.412   3.518
    1   AR   Ar  167   4.365   1.880   2.753
    1   AR   Ar  168   4.898   3.078  -0.870
    1   AR   Ar  169   2.584   2.734   2.139
    1   AR   Ar  170   2.752   4.233   5.910
    1   AR   Ar  171   5.390   3.963   3.704
    1   AR   Ar  172   4.549   5.386   4.538
    1   AR   Ar  173   2.201   3.671   7.187
    1   AR   Ar  174   3.826   4.863   6.547
    1   AR   Ar  175   3.890   3.002   6.249
    1   AR   Ar  176   3.715   4.608   5.478
    1   AR   Ar  177   6.358   5.067   0.217
    1   AR   Ar  178   2.902   5.459   0.191
    1   AR   Ar  179   4.056   5.764   0.653
    1   AR   Ar  180   1.565   2.850  -1.719
    1   AR   Ar  181   0.944   5.769   0.980
    1   AR   Ar  182   2.776   0.339   2.654
    1   AR   Ar  183   3.603   5.083   2.768
    1   AR   Ar  184   4.202   6.643   1.689
    1   AR   Ar  185   1.958   5.143   4.187
    1   AR   Ar  186   3.561   5.441   3.793
    1   AR   Ar  187   3.877   6.316   3.132
    1   AR   Ar  188   3.171   6.856   1.698
    1   AR   Ar  189   2.922   2.813   7.563
    1   AR   Ar  190   5.203   6.591   5.768
    1   AR   Ar  191   4.688   4.917   5.966
    1   AR   Ar  192   4.211   5.676   5.450
    1   AR   Ar  193   1.235   6.691  -1.006
    1   AR   Ar  194   5.324   3.986  -1.369
    1   AR   Ar  195   6.326   0.372   0.020
    1   AR   Ar  196   5.028   6.791  -0.549
    1   AR   Ar  197   5.475   1.507   0.686
    1   AR   Ar  198   0.067   1.248   1.323
    1   AR   Ar  199   5.342   1.705   1.714
    1   AR   Ar  200   6.793   2.074   0.163
    1   AR   Ar  201   4.738   7.012   3.323
    1   AR   Ar  202   5.387   2.540   4.498
    1   AR   Ar  203   6.326   6.366   4.951
    1   AR   Ar  204   5.525   0.121   4.260
    1   AR   Ar  205   5.818   0.190   2.851
    1   AR   Ar  206   4.863   0.669   5.110
    1   AR   Ar  207   0.179   0.274   5.924
    1   AR   Ar  208   6.471   7.119   3.660
    1   AR   Ar  209   5.794   2.863  -2.223
    1   AR   Ar  210   4.481   1.069   0.953
    1   AR   Ar  211   6.979   3.140   0.096
    1   AR   Ar  212   6.342   4.000  -1.225
    1   AR   Ar  213   3.338   1.900   2.069
    1   AR   Ar  214   3.882   2.888   2.588
    1   AR   Ar  215   6.306   2.059   1.435
    1   AR   Ar  216   0.288   4.077   0.894
    1   AR   Ar  217   4.662   3.093   3.952
    1   AR   Ar  218   4.462   2.708   5.025
    1   AR   Ar  219   5.165   1.857   3.735
    1   AR   Ar  220   4.889   3.234   2.423
    1   AR   Ar  221   6.065   0.664   5.107
    1   AR   Ar  222   4.825   2.076   6.406
    1   AR   Ar  223   0.799   0.699   6.618
    1   AR   Ar  224   5.003   3.026   6.084
    1   AR   Ar  225   6.054   4.304   1.314
    1   AR   Ar  226   4.266   4.405   2.507
    1   AR   Ar  227   0.317   5.031   0.447
    1   AR   Ar  228   5.134   6.149   1.163
    1   AR   Ar  229   5.891   4.106  -0.070
    1   AR   Ar  230   4.309   4.494   3.552
    1   AR   Ar  231   6.382   1.955   3.354
    1   AR   Ar  232   4.365   2.982   0.677
    1   AR   Ar  233   6.356   2.720   4.056
    1   AR   Ar  234   6.911   3.239   4.647
    1   AR   Ar  235   0.362   2.330   4.180
    1   AR   Ar  236   5.367   4.885   4.978
    1   AR   Ar  237   6.028   3.934   4.949
    1   AR   Ar  238   4.876   3.740   5.215
    1   AR   Ar  239   6.923   4.249   9.212
    1   AR   Ar  240   6.144   3.353   5.965
    1   AR   Ar  241   0.431   6.850  -0.057
    1   AR   Ar  242   4.929   5.089   0.089
    1   AR   Ar  243   5.743   4.004   2.695
    1   AR   Ar  244   1.394   5.346  -0.313
    1   AR   Ar  245   5.915   0.151   1.044
    1   AR   Ar  246   6.482   6.069   1.407
    1   AR   Ar  247   4.615   3.948   0.921
    1   AR   Ar  248   5.700   6.052  -0.191
    1   AR   Ar  249   4.760   6.009   2.305
    1   AR   Ar  250   4.848   6.516   4.609
    1   AR   Ar  251   6.134   5.196   4.228
    1   AR   Ar  252   4.739   5.731   3.504
    1   AR   Ar  253   5.433   4.090   6.179
    1   AR   Ar  254   4.154   5.448   7.386
    1   AR   Ar  255   4.733   2.839   7.375
    1   AR   Ar  256   5.593   6.312   3.882
    7.12000  7.12000 12.00000
Argon-slab step 2465
  256
    1   AR   Ar    1   6.667   1.273  -0.832
    1   AR   Ar    2   6.946   0.082   0.851
    1   AR   Ar    3   0.966   0.145   0.676
    1   AR   Ar    4   1.880   0.285  -0.679
    1   AR   Ar    5   6.927   6.098   0.447
    1   AR   Ar    6   6.831   0.756   2.874
    1   AR   Ar    7   6.555   4.712   3.363
    1   AR   Ar    8   6.614   6.957   1.850
    1   AR   Ar    9   0.557   0.378   3.900
    1   AR   Ar   10   0.964   1.490   4.355
    1   AR   Ar   11   2.852   6.939   4.617
    1   AR   Ar   12   1.029   1.469   3.159
    1   AR   Ar   13   6.982   1.731   4.734
    1   AR   Ar   14   1.535   1.362   7.291
    1   AR   Ar   15   6.316   0.370   9.333
    1   AR   Ar   16   1.066   0.690   4.965
    1   AR   Ar   17   0.598   1.875  -0.164
    1   AR   Ar   18   6.181   2.892  -0.604
    1   AR   Ar   19   1.473   2.832   1.741
    1   AR   Ar   20   5.574   4.037  -2.524
    1   AR   Ar   21   6.098   0.624   1.929
    1   AR   Ar   22   6.780   1.667   2.336
    1   AR   Ar   23   0.260   0.932   0.092
    1   AR   Ar   24   0.440   2.281   1.293
    1   AR   Ar   25   6.996   1.179   3.746
    1   AR   Ar   26   6.027   1.017   3.956
    1   AR   Ar   27   1.952   1.418   3.983
    1   AR   Ar   28   1.293   2.515   4.592
    1   AR   Ar   29   5.943   2.246   7.147
    1   AR   Ar   30   0.541   1.950   6.181
    1   AR   Ar   31   0.973   6.167   7.527
    1   AR   Ar   32   1.633   2.612   6.343
    1   AR   Ar   33   1.664   3.917  -0.236
    1   AR   Ar   34   0.132   5.534   3.024
    1   AR   Ar   35   6.295   5.108   2.194
    1   AR   Ar   36   0.304   0.607  -3.342
    1   AR   Ar   37   6.341   3.216   2.379
    1   AR   Ar   38   0.251   4.400   2.530
    1   AR   Ar   39   1.261   3.940   2.924
    1   AR   Ar   40   1.202   3.652   1.066
    1   AR   Ar   41   7.092   2.744   3.311
    1   AR   Ar   42   6.435   5.320   5.236
    1   AR   Ar   43   6.895   2.355   5.635
    1   AR   Ar   44   0.610   4.276   3.682
    1   AR   Ar   45   0.634   2.956   5.509
    1   AR   Ar   46   1.477   5.743   6.343
    1   AR   Ar   47   5.531   3.391   6.976
    1   AR   Ar   48   0.314   6.541   6.611
    1   AR   Ar   49   5.855   0.163  -1.575
    1   AR   Ar   50   5.037   5.031   2.104
    1   AR   Ar   51   0.282   5.390   1.838
    1   AR   Ar   52   5.827   4.969  -1.304
    1   AR   Ar   53   5.635   6.447   2.183
    1   AR   Ar   54   6.592   6.291   2.723
    1   AR   Ar   55   5.845   5.354   3.151
    1   AR   Ar   56   0.530   6.976   1.785
    1   AR   Ar   57   5.465   2.934   3.324
    1   AR   Ar   58   0.053   5.316   4.227
    1   AR   Ar   59   1.977   5.254   5.343
    1   AR   Ar   60   0.234   6.224   3.974
    1   AR   Ar   61   6.402   4.412   5.987
    1   AR   Ar   62   0.932   5.655   5.056
    1   AR   Ar   63   2.475   6.130   6.817
    1   AR   Ar   64   1.223   6.819   5.409
    1   AR   Ar   65   3.886   7.016   0.751
    1   AR   Ar   66   1.151   1.613   1.132
    1   AR   Ar   67   3.499   6.021  -0.959
    1   AR   Ar   68   3.123   1.366  -1.036
    1   AR   Ar   69   2.793   1.092   0.974
    1   AR   Ar   70   0.758   0.706   2.467
    1   AR   Ar   71   3.055   1.341   3.008
    1   AR   Ar   72   3.325   0.735   1.627
    1   AR   Ar   73   3.004   6.903   3.511
    1   AR   Ar   74   2.363   1.031   4.923
    1   AR   Ar   75   3.511   1.400   4.954
    1   AR   Ar   76   2.053   0.841   1.732
    1   AR   Ar   77   2.545   6.425   5.684
    1   AR   Ar   78   1.570   7.100   6.741
    1   AR   Ar   79   3.948   0.044   6.618
    1   AR   Ar   80   3.042   5.385   6.116
    1   AR   Ar   81   1.766   1.525  -0.374
    1   AR   Ar   82   6.982   5.233  -0.980
    1   AR   Ar   83   1.711   2.206   0.496
    1   AR   Ar   84   0.386   3.957  -0.688
    1   AR   Ar   85   0.939   2.927   0.143
    1   AR   Ar   86   2.310   3.377   0.964
    1   AR   Ar   87   2.459   2.228   1.158
    1   AR   Ar   88   3.173   4.276   2.035
    1   AR   Ar   89   0.113   2.890   2.096
    1   AR   Ar   90   2.696   2.205   5.153
    1   AR   Ar   91   1.298   2.373   3.459
    1   AR   Ar   92   1.037   2.033   2.146
    1   AR   Ar   93   1.828   1.022   6.215
    1   AR   Ar   94   1.684   0.493   9.538
    1   AR   Ar   95   4.302   0.892   5.971
    1   AR   Ar   96   3.075   0.653   5.708
    1   AR   Ar   97   4.090   2.178  -0.983
    1   AR   Ar   98   2.425   4.969   2.703
    1   AR   Ar   99   0.064   1.859  -1.544
    1   AR   Ar  100   2.311   2.440  -0.343
    1   AR   Ar  101   2.516   4.369   1.252
    1   AR   Ar  102   3.621   3.492   3.695
    1   AR   Ar  103   1.373   4.745   0.521
    1   AR   Ar  104   2.760   2.698  -1.319
    1   AR   Ar  105   2.132   2.965   3.875
    1   AR   Ar  106   2.952   3.842   4.951
    1   AR   Ar  107   1.739   3.864   5.891
    1   AR   Ar  108   3.557   3.006   5.163
    1   AR   Ar  109   1.350   4.063   4.688
    1   AR   Ar  110   1.142   4.749   6.344
    1   AR   Ar  111   4.387   3.756   6.679
    1   AR   Ar  112   1.879   5.357   7.270
    1   AR   Ar  113   2.572   4.325   0.031
    1   AR   Ar  114   2.352   4.918  -1.229
    1   AR   Ar  115   2.808   3.669  -0.908
    1   AR   Ar  116   5.417   6.393  -1.779
    1   AR   Ar  117   0.921   5.508   3.751
    1   AR   Ar  118   0.741   6.604   2.884
    1   AR   Ar  119   2.271   3.828   2.148
    1   AR   Ar  120   1.258   5.180   2.746
    1   AR   Ar  121   6.888   4.221   4.268
    1   AR   Ar  122   3.333   5.906   5.196
    1   AR   Ar  123   2.854   4.821   4.871
    1   AR   Ar  124   1.632   4.606   2.022
    1   AR   Ar  125   0.145   3.773   5.949
    1   AR   Ar  126   0.215   7.072   4.765
    1   AR   Ar  127   3.136   4.280   7.069
    1   AR   Ar  128   2.142   4.882   6.444
    1   AR   Ar  129   1.791   0.357   3.141
    1   AR   Ar  130   3.987   2.011  -2.353
    1   AR   Ar  131   4.751   0.359   0.248
    1   AR   Ar  132   1.727   1.770  -1.347
    1   AR   Ar  133   3.984   0.372   2.684
    1   AR   Ar  134   4.835   0.972   4.088
    1   AR   Ar  135   5.479   1.296   2.839
    1   AR   Ar  136   4.901   0.360   1.913
    1   AR   Ar  137   2.850   6.074   4.205
    1   AR   Ar  138   4.763   1.795   5.081
    1   AR   Ar  139   5.599   2.301   5.532
    1   AR   Ar  140   4.028   0.228   4.521
    1   AR   Ar  141   3.819   6.341   4.429
    1   AR   Ar  142   3.568   6.878   5.394
    1   AR   Ar  143   6.346   6.956   5.951
    1   AR   Ar  144   5.531   1.358   5.889
    1   AR   Ar  145   3.501   3.672   0.619
    1   AR   Ar  146   4.241   2.396   1.740
    1   AR   Ar  147   6.001   2.086  -1.580
    1   AR   Ar  148   4.356   4.008  -2.188
    1   AR   Ar  149   3.526   1.920   0.838
    1   AR   Ar  150   1.918   1.615   2.557
    1   AR   Ar  151   3.028   2.498   3.078
    1   AR   Ar  152   2.964   2.784   0.440
    1   AR   Ar  153   3.115   0.784   4.152
    1   AR   Ar  154   3.975   1.983   4.190
    1   AR   Ar  155   6.525   0.980   6.050
    1   AR   Ar  156   4.142   4.226   4.563
    1   AR   Ar  157   2.470   3.160   6.053
    1   AR   Ar  158   1.059   3.547   6.664
    1   AR   Ar  159   3.973   2.097   5.815
    1   AR   Ar  160   2.803   1.447   6.137
    1   AR   Ar  161   5.615   3.087   1.358
    1   AR   Ar  162   4.561   5.911  -0.510
    1   AR   Ar  163   5.633   2.449   0.383
    1   AR   Ar  164   3.615   5.578   1.889
    1   AR   Ar  165   3.495   3.008   1.463
    1   AR   Ar  166   3.305   4.376   3.551
    1   AR   Ar  167   4.343   1.905   2.736
    1   AR   Ar  168   4.881   3.062  -0.845
    1   AR   Ar  169   2.576   2.734   2.099
    1   AR   Ar  170   2.757   4.243   5.903
    1   AR   Ar  171   5.411   3.992   3.699
    1   AR   Ar  172   4.565   5.398   4.512
    1   AR   Ar  173   2.187   3.690   7.222
    1   AR   Ar  174   3.838   4.859   6.554
    1   AR   Ar  175   3.895   3.001   6.259
    1   AR   Ar  176   3.739   4.584   5.472
    1   AR   Ar  177   6.354   5.051   0.210
    1   AR   Ar  178   2.917   5.491   0.201
    1   AR   Ar  179   4.043   5.796   0.674
    1   AR   Ar  180   1.606   2.837  -1.719
    1   AR   Ar  181   0.934   5.768   0.989
    1   AR   Ar  182   2.771   0.340   2.645
    1   AR   Ar  183   3.600   5.153   2.786
    1   AR   Ar  184   4.183   6.635   1.696
    1   AR   Ar  185   1.960   5.133   4.200
    1   AR   Ar  186   3.539   5.420   3.803
    1   AR   Ar  187   3.853   6.270   3.146
    1   AR   Ar  188   3.164   6.862   1.734
    1   AR   Ar  189   2.900   2.778   7.611
    1   AR   Ar  190   5.211   6.606   5.743
    1   AR   Ar  191   4.640   4.894   5.987
    1   AR   Ar  192   4.217   5.690   5.470
    1   AR   Ar  193   1.242   6.683  -0.987
    1   AR   Ar  194   5.310   3.962  -1.349
    1   AR   Ar  195   6.305   0.378   0.009
    1   AR   Ar  196   5.020   6.798  -0.548
    1   AR   Ar  197   5.454   1.541   0.675
    1   AR   Ar  198   0.069   1.228   1.326
    1   AR   Ar  199   5.319   1.708   1.738
    1   AR   Ar  200   6.801   2.098   0.148
    1   AR   Ar  201   4.751   7.027   3.353
    1   AR   Ar  202   5.410   2.553   4.489
    1   AR   Ar  203   6.337   6.344   4.964
    1   AR   Ar  204   5.559   0.109   4.259
    1   AR   Ar  205   5.821   0.167   2.840
    1   AR   Ar  206   4.848   0.652   5.135
    1   AR   Ar  207   0.207   0.276   5.930
    1   AR   Ar  208   6.490   7.117   3.610
    1   AR   Ar  209   5.781   2.871  -2.252
    1   AR   Ar  210   4.457   1.061   0.977
    1   AR   Ar  211   6.983   3.122   0.115
    1   AR   Ar  212   6.328   3.988  -1.230
    1   AR   Ar  213   3.346   1.901   2.076
    1   AR   Ar  214   3.888   2.867   2.583
    1   AR   Ar  215   6.332   2.037   1.431
    1   AR   Ar  216   0.270   4.061   0.898
    1   AR   Ar  217   4.664   3.105   3.936
    1   AR   Ar  218   4.485   2.730   5.017
    1   AR   Ar  219   5.151   1.848   3.734
    1   AR   Ar  220   4.866   3.271   2.442
    1   AR   Ar  221   6.081   0.666   5.135
    1   AR   Ar  222   4.814   2.092   6.427
    1   AR   Ar  223   0.777   0.725   6.627
    1   AR   Ar  224   4.996   3.027   6.100
    1   AR   Ar  225   6.053   4.278   1.337
    1   AR   Ar  226   4.263   4.423   2.526
    1   AR   Ar  227   0.299   5.005   0.454
    1   AR   Ar  228   5.135   6.168   1.153
    1   AR   Ar  229   5.877   4.107  -0.084
    1   AR   Ar  230   4.296   4.492   3.529
    1   AR   Ar  231   6.395   1.925   3.332
    1   AR   Ar  232   4.393   2.995   0.678
    1   AR   Ar  233   6.330   2.719   4.069
    1   AR   Ar  234   6.923   3.222   4.671
    1   AR   Ar  235   0.370   2.333   4.183
    1   AR   Ar  236   5.375   4.875   4.967
    1   AR   Ar  237   6.014   3.930   4.952
    1   AR   Ar  238   4.879   3.753   5.234
    1   AR   Ar  239   6.930   4.268   9.233
    1   AR   Ar  240   6.154   3.354   5.953
    1   AR   Ar  241   0.388   6.876  -0.063
    1   AR   Ar  242   4.957   5.095   0.073
    1   AR   Ar  243   5.731   4.007   2.678
    1   AR   Ar  244   1.386   5.351  -0.303
    1   AR   Ar  245   5.925   0.154   1.036
    1   AR   Ar  246   6.497   6.044   1.426
    1   AR   Ar  247   4.619   3.954   0.903
    1   AR   Ar  248   5.710   6.028  -0.196
    1   AR   Ar  249   4.772   5.999   2.304
    1   AR   Ar  250   4.800   6.522   4.591
    1   AR   Ar  251   6.126   5.190   4.242
    1   AR   Ar  252   4.732   5.755   3.505
    1   AR   Ar  253   5.447   4.115   6.178
    1   AR   Ar  254   4.126   5.437   7.392
    1   AR   Ar  255   4.723   2.831   7.413
    1   AR   Ar  256   5.606   6.283   3.882
    7.12000  7.12000 12.00000
Argon-slab step 2470
  256
    1   AR   Ar    1   6.678   1.282  -0.840
    1   AR   Ar    2   6.945   0.058   0.865
    1   AR   Ar    3   0.992   0.153   0.648
    1   AR   Ar    4   1.891   0.267  -0.658
    1   AR   Ar    5   6.936   6.103   0.439
    1   AR   Ar    6   6.829   0.761   2.900
    1   AR   Ar    7   6.561   4.715   3.344
    1   AR   Ar    8   6.646   6.965   1.835
    1   AR   Ar    9   0.535   0.387   3.882
    1   AR   Ar   10   0.976   1.497   4.341
    1   AR   Ar   11   2.866   6.922   4.627
    1   AR   Ar   12   1.009   1.480   3.174
    1   AR   Ar   13   6.971   1.775   4.723
    1   AR   Ar   14   1.550   1.362   7.275
    1   AR   Ar   15   6.312   0.372   9.336
    1   AR   Ar   16   1.073   0.686   4.947
    1   AR   Ar   17   0.560   1.885  -0.177
    1   AR   Ar   18   6.200   2.914  -0.580
    1   AR   Ar   19   1.499   2.870   1.708
    1   AR   Ar   20   5.570   4.063  -2.512
    1   AR   Ar   21   6.089   0.614   1.947
    1   AR   Ar   22   6.773   1.649   2.305
    1   AR   Ar   23   0.261   0.914   0.088
    1   AR   Ar   24   0.430   2.290   1.319
    1   AR   Ar   25   7.012   1.187   3.753
    1   AR   Ar   26   6.006   1.017   3.948
    1   AR   Ar   27   1.963   1.438   3.994
    1   AR   Ar   28   1.304   2.523   4.585
    1   AR   Ar   29   5.941   2.253   7.133
    1   AR   Ar   30   0.578   1.923   6.175
    1   AR   Ar   31   0.961   6.143   7.528
    1   AR   Ar   32   1.639   2.625   6.338
    1   AR   Ar   33   1.670   3.899  -0.232
    1   AR   Ar   34   0.143   5.567   2.986
    1   AR   Ar   35   6.291   5.123   2.214
    1   AR   Ar   36   0.302   0.581  -3.323
    1   AR   Ar   37   6.323   3.215   2.374
    1   AR   Ar   38   0.237   4.367   2.512
    1   AR   Ar   39   1.292   3.942   2.901
    1   AR   Ar   40   1.200   3.659   1.075
    1   AR   Ar   41   0.010   2.739   3.346
    1   AR   Ar   42   6.430   5.344   5.261
    1   AR   Ar   43   6.881   2.331   5.574
    1   AR   Ar   44   0.619   4.289   3.673
    1   AR   Ar   45   0.628   2.961   5.522
    1   AR   Ar   46   1.455   5.763   6.353
    1   AR   Ar   47   5.505   3.399   7.005
    1   AR   Ar   48   0.315   6.539   6.600
    1   AR   Ar   49   5.848   0.182  -1.571
    1   AR   Ar   50   5.040   5.008   2.091
    1   AR   Ar   51   0.297   5.374   1.848
    1   AR   Ar   52   5.810   4.990  -1.280
    1   AR   Ar   53   5.603   6.419   2.188
    1   AR   Ar   54   6.579   6.295   2.703
    1   AR   Ar   55   5.825   5.391   3.125
    1   AR   Ar   56   0.546   6.964   1.760
    1   AR   Ar   57   5.436   2.930   3.327
    1   AR   Ar   58   0.037   5.333   4.223
    1   AR   Ar   59   1.976   5.241   5.331
    1   AR   Ar   60   0.225   6.224   3.954
    1   AR   Ar   61   6.427   4.411   5.989
    1   AR   Ar   62   0.932   5.608   5.023
    1   AR   Ar   63   2.466   6.131   6.802
    1   AR   Ar   64   1.247   6.820   5.389
    1   AR   Ar   65   3.872   7.016   0.766
    1   AR   Ar   66   1.169   1.583   1.125
    1   AR   Ar   67   3.521   6.012  -0.997
    1   AR   Ar   68   3.112   1.370  -0.993
    1   AR   Ar   69   2.791   1.089   0.963
    1   AR   Ar   70   0.773   0.676   2.468
    1   AR   Ar   71   3.061   1.349   3.056
    1   AR   Ar   72   3.330   0.752   1.655
    1   AR   Ar   73   3.042   6.881   3.515
    1   AR   Ar   74   2.390   1.059   4.951
    1   AR   Ar   75   3.512   1.375   4.940
    1   AR   Ar   76   2.064   0.839   1.758
    1   AR   Ar   77   2.554   6.449   5.685
    1   AR   Ar   78   1.565   7.078   6.739
    1   AR   Ar   79   3.953   0.043   6.624
    1   AR   Ar   80   3.077   5.384   6.137
    1   AR   Ar   81   1.771   1.517  -0.361
    1   AR   Ar   82   7.007   5.212  -1.011
    1   AR   Ar   83   1.693   2.198   0.531
    1   AR   Ar   84   0.377   3.957  -0.669
    1   AR   Ar   85   0.914   2.901   0.154
    1   AR   Ar   86   2.302   3.410   0.964
    1   AR   Ar   87   2.496   2.219   1.152
    1   AR   Ar   88   3.163   4.280   2.061
    1   AR   Ar   89   0.099   2.861   2.103
    1   AR   Ar   90   2.710   2.224   5.147
    1   AR   Ar   91   1.280   2.379   3.443
    1   AR   Ar   92   1.028   2.048   2.140
    1   AR   Ar   93   1.840   1.025   6.254
    1   AR   Ar   94   1.690   0.478   9.544
    1   AR   Ar   95   4.323   0.885   5.936
    1   AR   Ar   96   3.099   0.653   5.680
    1   AR   Ar   97   4.106   2.172  -0.949
    1   AR   Ar   98   2.424   4.966   2.744
    1   AR   Ar   99   0.032   1.870  -1.515
    1   AR   Ar  100   2.338   2.432  -0.374
    1   AR   Ar  101   2.516   4.360   1.255
    1   AR   Ar  102   3.622   3.477   3.694
    1   AR   Ar  103   1.375   4.699   0.531
    1   AR   Ar  104   2.756   2.695  -1.268
    1   AR   Ar  105   2.121   2.944   3.892
    1   AR   Ar  106   2.971   3.826   4.944
    1   AR   Ar  107   1.692   3.869   5.876
    1   AR   Ar  108   3.550   3.021   5.188
    1   AR   Ar  109   1.389   4.076   4.725
    1   AR   Ar  110   1.141   4.724   6.350
    1   AR   Ar  111   4.391   3.759   6.689
    1   AR   Ar  112   1.874   5.373   7.291
    1   AR   Ar  113   2.543   4.299  -0.003
    1   AR   Ar  114   2.349   4.925  -1.224
    1   AR   Ar  115   2.804   3.652  -0.936
    1   AR   Ar  116   5.418   6.407  -1.784
    1   AR   Ar  117   0.915   5.529   3.749
    1   AR   Ar  118   0.719   6.599   2.883
    1   AR   Ar  119   2.247   3.806   2.149
    1   AR   Ar  120   1.262   5.185   2.720
    1   AR   Ar  121   6.895   4.218   4.254
    1   AR   Ar  122   3.316   5.912   5.239
    1   AR   Ar  123   2.872   4.863   4.868
    1   AR   Ar  124   1.605   4.597   2.063
    1   AR   Ar  125   0.162   3.757   5.967
    1   AR   Ar  126   0.179   7.058   4.768
    1   AR   Ar  127   3.116   4.262   7.054
    1   AR   Ar  128   2.106   4.898   6.421
    1   AR   Ar  129   1.782   0.343   3.122
    1   AR   Ar  130   4.004   2.010  -2.351
    1   AR   Ar  131   4.753   0.370   0.247
    1   AR   Ar  132   1.718   1.756  -1.329
    1   AR   Ar  133   3.955   0.351   2.684
    1   AR   Ar  134   4.854   0.954   4.096
    1   AR   Ar  135   5.464   1.277   2.852
    1   AR   Ar  136   4.896   0.360   1.923
    1   AR   Ar  137   2.856   6.066   4.199
    1   AR   Ar  138   4.781   1.768   5.058
    1   AR   Ar  139   5.601   2.316   5.540
    1   AR   Ar  140   3.993   0.191   4.533
    1   AR   Ar  141   3.815   6.317   4.414
    1   AR   Ar  142   3.562   6.844   5.380
    1   AR   Ar  143   6.327   6.942   5.959
    1   AR   Ar  144   5.508   1.357   5.876
    1   AR   Ar  145   3.513   3.681   0.599
    1   AR   Ar  146   4.246   2.418   1.735
    1   AR   Ar  147   5.976   2.076  -1.621
    1   AR   Ar  148   4.377   4.001  -2.162
    1   AR   Ar  149   3.542   1.924   0.832
    1   AR   Ar  150   1.889   1.587   2.564
    1   AR   Ar  151   3.045   2.518   3.090
    1   AR   Ar  152   2.963   2.782   0.441
    1   AR   Ar  153   3.121   0.764   4.184
    1   AR   Ar  154   4.019   1.957   4.166
    1   AR   Ar  155   6.502   0.955   6.085
    1   AR   Ar  156   4.151   4.238   4.579
    1   AR   Ar  157   2.490   3.149   6.029
    1   AR   Ar  158   1.056   3.559   6.676
    1   AR   Ar  159   3.990   2.122   5.822
    1   AR   Ar  160   2.815   1.452   6.122
    1   AR   Ar  161   5.615   3.086   1.360
    1   AR   Ar  162   4.592   5.894  -0.478
    1   AR   Ar  163   5.655   2.501   0.365
    1   AR   Ar  164   3.625   5.557   1.856
    1   AR   Ar  165   3.492   3.029   1.435
    1   AR   Ar  166   3.287   4.359   3.582
    1   AR   Ar  167   4.323   1.927   2.720
    1   AR   Ar  168   4.865   3.046  -0.820
    1   AR   Ar  169   2.567   2.734   2.058
    1   AR   Ar  170   2.767   4.253   5.896
    1   AR   Ar  171   5.431   4.022   3.698
    1   AR   Ar  172   4.578   5.410   4.484
    1   AR   Ar  173   2.173   3.709   7.253
    1   AR   Ar  174   3.844   4.854   6.566
    1   AR   Ar  175   3.894   2.999   6.268
    1   AR   Ar  176   3.760   4.561   5.468
    1   AR   Ar  177   6.350   5.036   0.203
    1   AR   Ar  178   2.932   5.523   0.211
    1   AR   Ar  179   4.031   5.828   0.694
    1   AR   Ar  180   1.648   2.824  -1.718
    1   AR   Ar  181   0.923   5.766   0.997
    1   AR   Ar  182   2.766   0.343   2.632
    1   AR   Ar  183   3.593   5.222   2.812
    1   AR   Ar  184   4.168   6.626   1.704
    1   AR   Ar  185   1.962   5.123   4.213
    1   AR   Ar  186   3.523   5.396   3.816
    1   AR   Ar  187   3.829   6.225   3.160
    1   AR   Ar  188   3.170   6.854   1.740
    1   AR   Ar  189   2.877   2.744   7.659
    1   AR   Ar  190   5.219   6.621   5.715
    1   AR   Ar  191   4.605   4.867   6.001
    1   AR   Ar  192   4.243   5.704   5.470
    1   AR   Ar  193   1.243   6.669  -0.970
    1   AR   Ar  194   5.290   3.937  -1.330
    1   AR   Ar  195   6.284   0.385  -0.003
    1   AR   Ar  196   5.003   6.811  -0.560
    1   AR   Ar  197   5.430   1.560   0.669
    1   AR   Ar  198   0.069   1.208   1.329
    1   AR   Ar  199   5.293   1.710   1.765
    1   AR   Ar  200   6.797   2.120   0.137
    1   AR   Ar  201   4.765   7.040   3.384
    1   AR   Ar  202   5.430   2.566   4.483
    1   AR   Ar  203   6.347   6.326   4.974
    1   AR   Ar  204   5.596   0.100   4.266
    1   AR   Ar  205   5.820   0.145   2.829
    1   AR   Ar  206   4.839   0.633   5.156
    1   AR   Ar  207   0.235   0.275   5.927
    1   AR   Ar  208   6.513   7.113   3.565
    1   AR   Ar  209   5.766   2.883  -2.282
    1   AR   Ar  210   4.433   1.055   1.005
    1   AR   Ar  211   6.988   3.109   0.134
    1   AR   Ar  212   6.320   3.976  -1.233
    1   AR   Ar  213   3.352   1.903   2.082
    1   AR   Ar  214   3.894   2.819   2.564
    1   AR   Ar  215   6.358   2.015   1.424
    1   AR   Ar  216   0.246   4.043   0.903
    1   AR   Ar  217   4.656   3.107   3.904
    1   AR   Ar  218   4.515   2.762   5.007
    1   AR   Ar  219   5.141   1.868   3.719
    1   AR   Ar  220   4.845   3.308   2.460
    1   AR   Ar  221   6.096   0.667   5.161
    1   AR   Ar  222   4.806   2.102   6.451
    1   AR   Ar  223   0.759   0.757   6.642
    1   AR   Ar  224   4.989   3.035   6.113
    1   AR   Ar  225   6.052   4.252   1.360
    1   AR   Ar  226   4.260   4.438   2.534
    1   AR   Ar  227   0.282   4.984   0.459
    1   AR   Ar  228   5.137   6.189   1.144
    1   AR   Ar  229   5.862   4.108  -0.100
    1   AR   Ar  230   4.293   4.493   3.514
    1   AR   Ar  231   6.403   1.894   3.309
    1   AR   Ar  232   4.419   2.999   0.679
    1   AR   Ar  233   6.301   2.712   4.074
    1   AR   Ar  234   6.942   3.208   4.705
    1   AR   Ar  235   0.382   2.348   4.177
    1   AR   Ar  236   5.382   4.862   4.959
    1   AR   Ar  237   6.000   3.927   4.957
    1   AR   Ar  238   4.859   3.774   5.255
    1   AR   Ar  239   6.928   4.273   9.266
    1   AR   Ar  240   6.171   3.366   5.945
    1   AR   Ar  241   0.342   6.900  -0.075
    1   AR   Ar  242   4.987   5.100   0.058
    1   AR   Ar  243   5.718   4.014   2.661
    1   AR   Ar  244   1.378   5.360  -0.298
    1   AR   Ar  245   5.929   0.154   1.025
    1   AR   Ar  246   6.510   6.012   1.445
    1   AR   Ar  247   4.625   3.968   0.886
    1   AR   Ar  248   5.720   6.001  -0.199
    1   AR   Ar  249   4.796   5.972   2.294
    1   AR   Ar  250   4.758   6.529   4.575
    1   AR   Ar  251   6.114   5.184   4.252
    1   AR   Ar  252   4.725   5.778   3.504
    1   AR   Ar  253   5.452   4.140   6.176
    1   AR   Ar  254   4.097   5.426   7.399
    1   AR   Ar  255   4.711   2.821   7.448
    1   AR   Ar  256   5.633   6.265   3.866
    7.12000  7.12000 12.00000
Argon-slab step 2475
  256
    1   AR   Ar    1   6.686   1.288  -0.840
    1   AR   Ar    2   6.952   0.034   0.875
    1   AR   Ar    3   1.018   0.164   0.624
    1   AR   Ar    4   1.907   0.255  -0.633
    1   AR   Ar    5   6.935   6.107   0.417
    1   AR   Ar    6   6.824   0.760   2.912
    1   AR   Ar    7   6.573   4.714   3.324
    1   AR   Ar    8   6.682   6.961   1.825
    1   AR   Ar    9   0.518   0.395   3.861
    1   AR   Ar   10   0.985   1.500   4.326
    1   AR   Ar   11   2.877   6.922   4.644
    1   AR   Ar   12   0.990   1.482   3.187
    1   AR   Ar   13   6.948   1.802   4.718
    1   AR   Ar   14   1.565   1.361   7.258
    1   AR   Ar   15   6.307   0.374   9.338
    1   AR   Ar   16   1.079   0.682   4.923
    1   AR   Ar   17   0.540   1.895  -0.196
    1   AR   Ar   18   6.217   2.936  -0.557
    1   AR   Ar   19   1.529   2.909   1.674
    1   AR   Ar   20   5.566   4.088  -2.498
    1   AR   Ar   21   6.070   0.626   1.967
    1   AR   Ar   22   6.768   1.631   2.275
    1   AR   Ar   23   0.259   0.894   0.087
    1   AR   Ar   24   0.416   2.300   1.337
    1   AR   Ar   25   7.037   1.203   3.774
    1   AR   Ar   26   5.981   1.019   3.938
    1   AR   Ar   27   1.976   1.458   4.002
    1   AR   Ar   28   1.321   2.531   4.581
    1   AR   Ar   29   5.938   2.261   7.118
    1   AR   Ar   30   0.616   1.896   6.169
    1   AR   Ar   31   0.949   6.119   7.527
    1   AR   Ar   32   1.642   2.638   6.333
    1   AR   Ar   33   1.665   3.875  -0.230
    1   AR   Ar   34   0.155   5.595   2.948
    1   AR   Ar   35   6.290   5.137   2.231
    1   AR   Ar   36   0.258   0.566  -3.333
    1   AR   Ar   37   6.298   3.213   2.370
    1   AR   Ar   38   0.225   4.336   2.495
    1   AR   Ar   39   1.324   3.944   2.876
    1   AR   Ar   40   1.201   3.667   1.082
    1   AR   Ar   41   0.045   2.738   3.369
    1   AR   Ar   42   6.426   5.362   5.288
    1   AR   Ar   43   6.863   2.312   5.517
    1   AR   Ar   44   0.631   4.306   3.660
    1   AR   Ar   45   0.628   2.961   5.532
    1   AR   Ar   46   1.433   5.788   6.361
    1   AR   Ar   47   5.480   3.406   7.033
    1   AR   Ar   48   0.326   6.527   6.612
    1   AR   Ar   49   5.855   0.174  -1.572
    1   AR   Ar   50   5.048   4.981   2.076
    1   AR   Ar   51   0.310   5.358   1.858
    1   AR   Ar   52   5.792   5.012  -1.256
    1   AR   Ar   53   5.599   6.406   2.188
    1   AR   Ar   54   6.562   6.302   2.683
    1   AR   Ar   55   5.799   5.434   3.101
    1   AR   Ar   56   0.566   6.952   1.733
    1   AR   Ar   57   5.418   2.923   3.324
    1   AR   Ar   58   0.038   5.339   4.198
    1   AR   Ar   59   1.974   5.229   5.321
    1   AR   Ar   60   0.224   6.235   3.952
    1   AR   Ar   61   6.456   4.414   5.988
    1   AR   Ar   62   0.932   5.561   4.989
    1   AR   Ar   63   2.456   6.132   6.785
    1   AR   Ar   64   1.269   6.820   5.369
    1   AR   Ar   65   3.858   7.019   0.779
    1   AR   Ar   66   1.186   1.544   1.122
    1   AR   Ar   67   3.544   6.002  -1.035
    1   AR   Ar   68   3.100   1.376  -0.949
    1   AR   Ar   69   2.780   1.102   0.941
    1   AR   Ar   70   0.788   0.646   2.469
    1   AR   Ar   71   3.067   1.357   3.105
    1   AR   Ar   72   3.353   0.765   1.704
    1   AR   Ar   73   3.081   6.861   3.521
    1   AR   Ar   74   2.397   1.070   4.947
    1   AR   Ar   75   3.494   1.365   4.927
    1   AR   Ar   76   2.075   0.836   1.784
    1   AR   Ar   77   2.558   6.474   5.688
    1   AR   Ar   78   1.560   7.055   6.735
    1   AR   Ar   79   3.931   0.025   6.645
    1   AR   Ar   80   3.106   5.386   6.155
    1   AR   Ar   81   1.776   1.505  -0.338
    1   AR   Ar   82   7.031   5.189  -1.040
    1   AR   Ar   83   1.674   2.197   0.558
    1   AR   Ar   84   0.367   3.956  -0.649
    1   AR   Ar   85   0.893   2.876   0.165
    1   AR   Ar   86   2.292   3.437   0.965
    1   AR   Ar   87   2.535   2.204   1.154
    1   AR   Ar   88   3.161   4.286   2.091
    1   AR   Ar   89   0.092   2.830   2.113
    1   AR   Ar   90   2.725   2.242   5.141
    1   AR   Ar   91   1.264   2.397   3.430
    1   AR   Ar   92   1.016   2.058   2.139
    1   AR   Ar   93   1.849   1.026   6.292
    1   AR   Ar   94   1.697   0.463   9.550
    1   AR   Ar   95   4.334   0.885   5.913
    1   AR   Ar   96   3.130   0.635   5.642
    1   AR   Ar   97   4.121   2.168  -0.915
    1   AR   Ar   98   2.425   4.962   2.785
    1   AR   Ar   99   0.002   1.886  -1.490
    1   AR   Ar  100   2.361   2.424  -0.400
    1   AR   Ar  101   2.515   4.358   1.254
    1   AR   Ar  102   3.631   3.442   3.695
    1   AR   Ar  103   1.378   4.651   0.544
    1   AR   Ar  104   2.755   2.686  -1.226
    1   AR   Ar  105   2.080   2.939   3.887
    1   AR   Ar  106   2.988   3.810   4.933
    1   AR   Ar  107   1.645   3.875   5.859
    1   AR   Ar  108   3.540   3.032   5.216
    1   AR   Ar  109   1.388   4.029   4.715
    1   AR   Ar  110   1.128   4.695   6.355
    1   AR   Ar  111   4.394   3.768   6.712
    1   AR   Ar  112   1.866   5.390   7.318
    1   AR   Ar  113   2.524   4.278  -0.032
    1   AR   Ar  114   2.346   4.931  -1.218
    1   AR   Ar  115   2.799   3.642  -0.960
    1   AR   Ar  116   5.416   6.415  -1.788
    1   AR   Ar  117   0.922   5.543   3.743
    1   AR   Ar  118   0.694   6.594   2.883
    1   AR   Ar  119   2.221   3.775   2.150
    1   AR   Ar  120   1.255   5.203   2.710
    1   AR   Ar  121   6.900   4.220   4.236
    1   AR   Ar  122   3.284   5.902   5.274
    1   AR   Ar  123   2.892   4.909   4.864
    1   AR   Ar  124   1.583   4.577   2.086
    1   AR   Ar  125   0.178   3.743   5.987
    1   AR   Ar  126   0.141   7.042   4.773
    1   AR   Ar  127   3.110   4.234   7.058
    1   AR   Ar  128   2.084   4.913   6.395
    1   AR   Ar  129   1.774   0.338   3.095
    1   AR   Ar  130   3.994   1.984  -2.322
    1   AR   Ar  131   4.756   0.380   0.247
    1   AR   Ar  132   1.709   1.745  -1.319
    1   AR   Ar  133   3.952   0.318   2.652
    1   AR   Ar  134   4.872   0.931   4.106
    1   AR   Ar  135   5.450   1.257   2.864
    1   AR   Ar  136   4.892   0.360   1.934
    1   AR   Ar  137   2.852   6.040   4.188
    1   AR   Ar  138   4.773   1.759   5.014
    1   AR   Ar  139   5.595   2.340   5.560
    1   AR   Ar  140   3.961   0.163   4.544
    1   AR   Ar  141   3.806   6.285   4.394
    1   AR   Ar  142   3.565   6.821   5.374
    1   AR   Ar  143   6.292   6.932   5.957
    1   AR   Ar  144   5.481   1.350   5.863
    1   AR   Ar  145   3.525   3.693   0.577
    1   AR   Ar  146   4.262   2.432   1.722
    1   AR   Ar  147   5.953   2.063  -1.659
    1   AR   Ar  148   4.386   4.012  -2.133
    1   AR   Ar  149   3.559   1.930   0.828
    1   AR   Ar  150   1.864   1.560   2.573
    1   AR   Ar  151   3.058   2.537   3.103
    1   AR   Ar  152   2.966   2.780   0.437
    1   AR   Ar  153   3.126   0.743   4.211
    1   AR   Ar  154   4.067   1.932   4.142
    1   AR   Ar  155   6.481   0.932   6.124
    1   AR   Ar  156   4.161   4.250   4.589
    1   AR   Ar  157   2.516   3.140   6.003
    1   AR   Ar  158   1.052   3.571   6.689
    1   AR   Ar  159   4.004   2.136   5.818
    1   AR   Ar  160   2.823   1.475   6.113
    1   AR   Ar  161   5.614   3.077   1.374
    1   AR   Ar  162   4.618   5.874  -0.447
    1   AR   Ar  163   5.679   2.561   0.345
    1   AR   Ar  164   3.636   5.539   1.816
    1   AR   Ar  165   3.484   3.051   1.406
    1   AR   Ar  166   3.255   4.362   3.610
    1   AR   Ar  167   4.307   1.942   2.707
    1   AR   Ar  168   4.849   3.030  -0.794
    1   AR   Ar  169   2.560   2.736   2.021
    1   AR   Ar  170   2.778   4.264   5.891
    1   AR   Ar  171   5.450   4.052   3.698
    1   AR   Ar  172   4.588   5.420   4.456
    1   AR   Ar  173   2.158   3.728   7.283
    1   AR   Ar  174   3.834   4.867   6.573
    1   AR   Ar  175   3.888   3.000   6.277
    1   AR   Ar  176   3.776   4.540   5.468
    1   AR   Ar  177   6.345   5.023   0.196
    1   AR   Ar  178   2.947   5.553   0.220
    1   AR   Ar  179   4.020   5.861   0.715
    1   AR   Ar  180   1.691   2.810  -1.716
    1   AR   Ar  181   0.911   5.764   1.004
    1   AR   Ar  182   2.763   0.348   2.616
    1   AR   Ar  183   3.585   5.286   2.840
    1   AR   Ar  184   4.158   6.616   1.714
    1   AR   Ar  185   1.964   5.113   4.226
    1   AR   Ar  186   3.512   5.369   3.834
    1   AR   Ar  187   3.805   6.184   3.172
    1   AR   Ar  188   3.180   6.839   1.726
    1   AR   Ar  189   2.854   2.712   7.705
    1   AR   Ar  190   5.227   6.636   5.685
    1   AR   Ar  191   4.594   4.838   6.005
    1   AR   Ar  192   4.281   5.718   5.471
    1   AR   Ar  193   1.239   6.650  -0.953
    1   AR   Ar  194   5.267   3.913  -1.312
    1   AR   Ar  195   6.265   0.392  -0.015
    1   AR   Ar  196   5.010   6.819  -0.570
    1   AR   Ar  197   5.405   1.571   0.665
    1   AR   Ar  198   0.070   1.186   1.332
    1   AR   Ar  199   5.273   1.705   1.790
    1   AR   Ar  200   6.776   2.137   0.133
    1   AR   Ar  201   4.780   7.051   3.416
    1   AR   Ar  202   5.438   2.577   4.484
    1   AR   Ar  203   6.356   6.314   4.982
    1   AR   Ar  204   5.632   0.094   4.276
    1   AR   Ar  205   5.815   0.123   2.820
    1   AR   Ar  206   4.840   0.608   5.163
    1   AR   Ar  207   0.260   0.270   5.917
    1   AR   Ar  208   6.539   7.107   3.527
    1   AR   Ar  209   5.751   2.898  -2.312
    1   AR   Ar  210   4.429   1.049   1.009
    1   AR   Ar  211   6.994   3.106   0.155
    1   AR   Ar  212   6.317   3.963  -1.233
    1   AR   Ar  213   3.357   1.904   2.089
    1   AR   Ar  214   3.899   2.829   2.596
    1   AR   Ar  215   6.383   1.996   1.413
    1   AR   Ar  216   0.219   4.022   0.907
    1   AR   Ar  217   4.637   3.111   3.878
    1   AR   Ar  218   4.550   2.797   4.997
    1   AR   Ar  219   5.131   1.892   3.701
    1   AR   Ar  220   4.826   3.347   2.478
    1   AR   Ar  221   6.109   0.667   5.183
    1   AR   Ar  222   4.801   2.105   6.480
    1   AR   Ar  223   0.746   0.793   6.661
    1   AR   Ar  224   5.004   3.045   6.119
    1   AR   Ar  225   6.051   4.225   1.384
    1   AR   Ar  226   4.256   4.449   2.530
    1   AR   Ar  227   0.267   4.968   0.462
    1   AR   Ar  228   5.137   6.210   1.136
    1   AR   Ar  229   5.847   4.107  -0.118
    1   AR   Ar  230   4.306   4.504   3.529
    1   AR   Ar  231   6.406   1.865   3.285
    1   AR   Ar  232   4.442   2.995   0.680
    1   AR   Ar  233   6.281   2.703   4.068
    1   AR   Ar  234   6.904   3.190   4.703
    1   AR   Ar  235   0.401   2.373   4.165
    1   AR   Ar  236   5.389   4.854   4.957
    1   AR   Ar  237   5.986   3.923   4.961
    1   AR   Ar  238   4.841   3.797   5.278
    1   AR   Ar  239   6.920   4.269   9.307
    1   AR   Ar  240   6.187   3.374   5.935
    1   AR   Ar  241   0.294   6.924  -0.091
    1   AR   Ar  242   5.020   5.102   0.046
    1   AR   Ar  243   5.702   4.025   2.643
    1   AR   Ar  244   1.370   5.370  -0.294
    1   AR   Ar  245   5.926   0.152   1.011
    1   AR   Ar  246   6.522   5.977   1.464
    1   AR   Ar  247   4.632   3.988   0.871
    1   AR   Ar  248   5.730   5.973  -0.202
    1   AR   Ar  249   4.791   5.936   2.291
    1   AR   Ar  250   4.730   6.538   4.562
    1   AR   Ar  251   6.099   5.179   4.258
    1   AR   Ar  252   4.719   5.801   3.501
    1   AR   Ar  253   5.449   4.163   6.174
    1   AR   Ar  254   4.069   5.418   7.409
    1   AR   Ar  255   4.698   2.811   7.481
    1   AR   Ar  256   5.680   6.267   3.826
    7.12000  7.12000 12.00000
Argon-slab step 2480
  256
    1   AR   Ar    1   6.688   1.286  -0.831
    1   AR   Ar    2   6.965   0.012   0.877
    1   AR   Ar    3   1.044   0.176   0.602
    1   AR   Ar    4   1.925   0.247  -0.607
    1   AR   Ar    5   6.908   6.119   0.398
    1   AR   Ar    6   6.818   0.756   2.912
    1   AR   Ar    7   6.586   4.713   3.303
    1   AR   Ar    8   6.703   6.953   1.822
    1   AR   Ar    9   0.505   0.396   3.839
    1   AR   Ar   10   1.009   1.505   4.284
    1   AR   Ar   11   2.883   6.930   4.663
    1   AR   Ar   12   0.991   1.489   3.194
    1   AR   Ar   13   6.919   1.809   4.700
    1   AR   Ar   14   1.579   1.360   7.245
    1   AR   Ar   15   6.303   0.375   9.340
    1   AR   Ar   16   1.085   0.673   4.902
    1   AR   Ar   17   0.534   1.902  -0.221
    1   AR   Ar   18   6.233   2.959  -0.537
    1   AR   Ar   19   1.561   2.943   1.643
    1   AR   Ar   20   5.561   4.111  -2.482
    1   AR   Ar   21   6.048   0.651   1.987
    1   AR   Ar   22   6.767   1.612   2.250
    1   AR   Ar   23   0.256   0.872   0.087
    1   AR   Ar   24   0.402   2.307   1.341
    1   AR   Ar   25   7.064   1.229   3.806
    1   AR   Ar   26   5.957   1.024   3.927
    1   AR   Ar   27   1.993   1.478   4.008
    1   AR   Ar   28   1.343   2.541   4.580
    1   AR   Ar   29   5.933   2.270   7.102
    1   AR   Ar   30   0.655   1.869   6.162
    1   AR   Ar   31   0.956   6.094   7.537
    1   AR   Ar   32   1.642   2.650   6.328
    1   AR   Ar   33   1.676   3.875  -0.236
    1   AR   Ar   34   0.170   5.620   2.913
    1   AR   Ar   35   6.291   5.150   2.246
    1   AR   Ar   36   0.202   0.554  -3.351
    1   AR   Ar   37   6.269   3.210   2.367
    1   AR   Ar   38   0.212   4.306   2.479
    1   AR   Ar   39   1.355   3.944   2.853
    1   AR   Ar   40   1.204   3.680   1.084
    1   AR   Ar   41   0.070   2.746   3.371
    1   AR   Ar   42   6.423   5.370   5.318
    1   AR   Ar   43   6.841   2.305   5.479
    1   AR   Ar   44   0.647   4.325   3.645
    1   AR   Ar   45   0.633   2.955   5.538
    1   AR   Ar   46   1.411   5.815   6.369
    1   AR   Ar   47   5.456   3.414   7.059
    1   AR   Ar   48   0.331   6.529   6.622
    1   AR   Ar   49   5.867   0.165  -1.572
    1   AR   Ar   50   5.062   4.947   2.060
    1   AR   Ar   51   0.323   5.341   1.869
    1   AR   Ar   52   5.776   5.032  -1.230
    1   AR   Ar   53   5.617   6.405   2.182
    1   AR   Ar   54   6.544   6.310   2.665
    1   AR   Ar   55   5.769   5.480   3.079
    1   AR   Ar   56   0.594   6.940   1.705
    1   AR   Ar   57   5.412   2.913   3.313
    1   AR   Ar   58   0.035   5.324   4.173
    1   AR   Ar   59   1.972   5.218   5.315
    1   AR   Ar   60   0.227   6.261   3.961
    1   AR   Ar   61   6.486   4.420   5.984
    1   AR   Ar   62   0.932   5.514   4.953
    1   AR   Ar   63   2.446   6.133   6.765
    1   AR   Ar   64   1.291   6.819   5.352
    1   AR   Ar   65   3.843   7.022   0.792
    1   AR   Ar   66   1.198   1.497   1.125
    1   AR   Ar   67   3.538   6.011  -1.037
    1   AR   Ar   68   3.087   1.384  -0.905
    1   AR   Ar   69   2.778   1.124   0.927
    1   AR   Ar   70   0.802   0.616   2.471
    1   AR   Ar   71   3.073   1.365   3.152
    1   AR   Ar   72   3.382   0.777   1.761
    1   AR   Ar   73   3.119   6.846   3.528
    1   AR   Ar   74   2.389   1.071   4.923
    1   AR   Ar   75   3.474   1.365   4.918
    1   AR   Ar   76   2.087   0.833   1.811
    1   AR   Ar   77   2.557   6.503   5.694
    1   AR   Ar   78   1.554   7.031   6.731
    1   AR   Ar   79   3.903   0.003   6.669
    1   AR   Ar   80   3.125   5.390   6.171
    1   AR   Ar   81   1.780   1.491  -0.307
    1   AR   Ar   82   7.054   5.165  -1.067
    1   AR   Ar   83   1.658   2.203   0.576
    1   AR   Ar   84   0.357   3.956  -0.628
    1   AR   Ar   85   0.875   2.851   0.178
    1   AR   Ar   86   2.279   3.453   0.965
    1   AR   Ar   87   2.574   2.183   1.157
    1   AR   Ar   88   3.162   4.294   2.123
    1   AR   Ar   89   0.088   2.801   2.131
    1   AR   Ar   90   2.740   2.259   5.137
    1   AR   Ar   91   1.249   2.424   3.420
    1   AR   Ar   92   1.005   2.067   2.142
    1   AR   Ar   93   1.857   1.025   6.326
    1   AR   Ar   94   1.703   0.448   9.556
    1   AR   Ar   95   4.331   0.892   5.908
    1   AR   Ar   96   3.163   0.611   5.601
    1   AR   Ar   97   4.135   2.163  -0.881
    1   AR   Ar   98   2.426   4.957   2.825
    1   AR   Ar   99   7.098   1.909  -1.472
    1   AR   Ar  100   2.374   2.409  -0.407
    1   AR   Ar  101   2.514   4.366   1.253
    1   AR   Ar  102   3.643   3.397   3.697
    1   AR   Ar  103   1.380   4.601   0.558
    1   AR   Ar  104   2.762   2.672  -1.206
    1   AR   Ar  105   2.041   2.934   3.883
    1   AR   Ar  106   3.000   3.802   4.918
    1   AR   Ar  107   1.601   3.882   5.839
    1   AR   Ar  108   3.533   3.036   5.248
    1   AR   Ar  109   1.387   3.983   4.704
    1   AR   Ar  110   1.102   4.664   6.359
    1   AR   Ar  111   4.401   3.784   6.738
    1   AR   Ar  112   1.853   5.392   7.309
    1   AR   Ar  113   2.521   4.263  -0.056
    1   AR   Ar  114   2.343   4.936  -1.210
    1   AR   Ar  115   2.793   3.642  -0.980
    1   AR   Ar  116   5.410   6.415  -1.793
    1   AR   Ar  117   0.942   5.553   3.732
    1   AR   Ar  118   0.705   6.581   2.877
    1   AR   Ar  119   2.196   3.739   2.152
    1   AR   Ar  120   1.237   5.237   2.718
    1   AR   Ar  121   6.901   4.222   4.220
    1   AR   Ar  122   3.251   5.885   5.298
    1   AR   Ar  123   2.914   4.957   4.858
    1   AR   Ar  124   1.567   4.548   2.087
    1   AR   Ar  125   0.191   3.734   6.010
    1   AR   Ar  126   0.102   7.026   4.781
    1   AR   Ar  127   3.103   4.206   7.060
    1   AR   Ar  128   2.076   4.930   6.367
    1   AR   Ar  129   1.764   0.334   3.069
    1   AR   Ar  130   3.975   1.971  -2.299
    1   AR   Ar  131   4.760   0.394   0.246
    1   AR   Ar  132   1.701   1.737  -1.315
    1   AR   Ar  133   3.948   0.284   2.620
    1   AR   Ar  134   4.888   0.907   4.116
    1   AR   Ar  135   5.437   1.235   2.876
    1   AR   Ar  136   4.889   0.360   1.944
    1   AR   Ar  137   2.833   6.005   4.175
    1   AR   Ar  138   4.765   1.746   4.971
    1   AR   Ar  139   5.577   2.371   5.597
    1   AR   Ar  140   3.962   0.165   4.573
    1   AR   Ar  141   3.790   6.247   4.370
    1   AR   Ar  142   3.578   6.809   5.379
    1   AR   Ar  143   6.255   6.922   5.952
    1   AR   Ar  144   5.452   1.339   5.850
    1   AR   Ar  145   3.537   3.709   0.554
    1   AR   Ar  146   4.283   2.442   1.704
    1   AR   Ar  147   5.931   2.050  -1.695
    1   AR   Ar  148   4.375   4.050  -2.103
    1   AR   Ar  149   3.577   1.935   0.827
    1   AR   Ar  150   1.843   1.532   2.582
    1   AR   Ar  151   3.067   2.553   3.118
    1   AR   Ar  152   2.973   2.780   0.429
    1   AR   Ar  153   3.128   0.721   4.230
    1   AR   Ar  154   4.115   1.908   4.119
    1   AR   Ar  155   6.463   0.910   6.165
    1   AR   Ar  156   4.171   4.259   4.590
    1   AR   Ar  157   2.545   3.132   5.975
    1   AR   Ar  158   1.055   3.560   6.672
    1   AR   Ar  159   4.016   2.139   5.804
    1   AR   Ar  160   2.830   1.506   6.107
    1   AR   Ar  161   5.615   3.081   1.400
    1   AR   Ar  162   4.637   5.857  -0.419
    1   AR   Ar  163   5.705   2.623   0.326
    1   AR   Ar  164   3.650   5.523   1.774
    1   AR   Ar  165   3.471   3.073   1.380
    1   AR   Ar  166   3.215   4.374   3.636
    1   AR   Ar  167   4.296   1.944   2.697
    1   AR   Ar  168   4.819   3.027  -0.800
    1   AR   Ar  169   2.555   2.740   1.989
    1   AR   Ar  170   2.790   4.275   5.887
    1   AR   Ar  171   5.469   4.081   3.701
    1   AR   Ar  172   4.596   5.429   4.430
    1   AR   Ar  173   2.142   3.745   7.311
    1   AR   Ar  174   3.819   4.877   6.593
    1   AR   Ar  175   3.878   3.007   6.289
    1   AR   Ar  176   3.784   4.520   5.473
    1   AR   Ar  177   6.338   5.013   0.188
    1   AR   Ar  178   2.963   5.583   0.230
    1   AR   Ar  179   4.010   5.896   0.737
    1   AR   Ar  180   1.735   2.796  -1.712
    1   AR   Ar  181   0.898   5.762   1.010
    1   AR   Ar  182   2.762   0.353   2.599
    1   AR   Ar  183   3.573   5.333   2.858
    1   AR   Ar  184   4.159   6.602   1.726
    1   AR   Ar  185   1.965   5.103   4.238
    1   AR   Ar  186   3.508   5.338   3.861
    1   AR   Ar  187   3.785   6.158   3.187
    1   AR   Ar  188   3.183   6.823   1.712
    1   AR   Ar  189   2.831   2.680   7.750
    1   AR   Ar  190   5.234   6.653   5.652
    1   AR   Ar  191   4.605   4.808   5.997
    1   AR   Ar  192   4.322   5.733   5.473
    1   AR   Ar  193   1.232   6.628  -0.936
    1   AR   Ar  194   5.242   3.890  -1.296
    1   AR   Ar  195   6.248   0.399  -0.028
    1   AR   Ar  196   5.021   6.830  -0.581
    1   AR   Ar  197   5.380   1.579   0.664
    1   AR   Ar  198   0.069   1.220   1.331
    1   AR   Ar  199   5.275   1.676   1.800
    1   AR   Ar  200   6.738   2.148   0.133
    1   AR   Ar  201   4.796   7.062   3.450
    1   AR   Ar  202   5.429   2.585   4.493
    1   AR   Ar  203   6.365   6.312   4.984
    1   AR   Ar  204   5.632   0.074   4.283
    1   AR   Ar  205   5.804   0.100   2.812
    1   AR   Ar  206   4.854   0.576   5.152
    1   AR   Ar  207   0.283   0.262   5.900
    1   AR   Ar  208   6.569   7.095   3.498
    1   AR   Ar  209   5.735   2.916  -2.343
    1   AR   Ar  210   4.425   1.044   1.017
    1   AR   Ar  211   7.000   3.114   0.178
    1   AR   Ar  212   6.316   3.951  -1.232
    1   AR   Ar  213   3.360   1.906   2.094
    1   AR   Ar  214   3.900   2.853   2.629
    1   AR   Ar  215   6.405   2.004   1.390
    1   AR   Ar  216   0.189   3.998   0.913
    1   AR   Ar  217   4.609   3.117   3.862
    1   AR   Ar  218   4.583   2.833   4.989
    1   AR   Ar  219   5.122   1.918   3.683
    1   AR   Ar  220   4.807   3.387   2.495
    1   AR   Ar  221   6.120   0.665   5.200
    1   AR   Ar  222   4.800   2.104   6.513
    1   AR   Ar  223   0.736   0.831   6.683
    1   AR   Ar  224   4.979   3.058   6.126
    1   AR   Ar  225   6.049   4.199   1.409
    1   AR   Ar  226   4.267   4.470   2.529
    1   AR   Ar  227   0.255   4.955   0.464
    1   AR   Ar  228   5.141   6.227   1.135
    1   AR   Ar  229   5.832   4.104  -0.137
    1   AR   Ar  230   4.302   4.509   3.549
    1   AR   Ar  231   6.406   1.840   3.260
    1   AR   Ar  232   4.465   2.984   0.682
    1   AR   Ar  233   6.278   2.693   4.048
    1   AR   Ar  234   6.870   3.174   4.708
    1   AR   Ar  235   0.430   2.396   4.163
    1   AR   Ar  236   5.394   4.875   4.973
    1   AR   Ar  237   5.973   3.919   4.966
    1   AR   Ar  238   4.825   3.821   5.304
    1   AR   Ar  239   6.913   4.264   9.348
    1   AR   Ar  240   6.202   3.378   5.924
    1   AR   Ar  241   0.246   6.948  -0.109
    1   AR   Ar  242   5.035   5.111   0.038
    1   AR   Ar  243   5.685   4.041   2.624
    1   AR   Ar  244   1.361   5.380  -0.291
    1   AR   Ar  245   5.918   0.149   0.998
    1   AR   Ar  246   6.533   5.940   1.484
    1   AR   Ar  247   4.641   4.014   0.858
    1   AR   Ar  248   5.740   5.946  -0.205
    1   AR   Ar  249   4.761   5.893   2.294
    1   AR   Ar  250   4.718   6.549   4.551
    1   AR   Ar  251   6.084   5.175   4.260
    1   AR   Ar  252   4.716   5.825   3.494
    1   AR   Ar  253   5.443   4.185   6.171
    1   AR   Ar  254   4.042   5.412   7.422
    1   AR   Ar  255   4.685   2.800   7.512
    1   AR   Ar  256   5.728   6.267   3.785
    7.12000  7.12000 12.00000
Argon-slab step 2485
  256
    1   AR   Ar    1   6.686   1.277  -0.811
    1   AR   Ar    2   6.983   7.114   0.871
    1   AR   Ar    3   1.068   0.188   0.581
    1   AR   Ar    4   1.913   0.251  -0.596
    1   AR   Ar    5   6.880   6.128   0.381
    1   AR   Ar    6   6.812   0.754   2.903
    1   AR   Ar    7   6.599   4.713   3.280
    1   AR   Ar    8   6.692   6.963   1.825
    1   AR   Ar    9   0.496   0.391   3.816
    1   AR   Ar   10   1.026   1.512   4.242
    1   AR   Ar   11   2.884   6.939   4.681
    1   AR   Ar   12   0.986   1.486   3.199
    1   AR   Ar   13   6.888   1.796   4.660
    1   AR   Ar   14   1.591   1.354   7.246
    1   AR   Ar   15   6.298   0.377   9.343
    1   AR   Ar   16   1.090   0.661   4.883
    1   AR   Ar   17   0.536   1.906  -0.249
    1   AR   Ar   18   6.248   2.983  -0.520
    1   AR   Ar   19   1.595   2.967   1.617
    1   AR   Ar   20   5.555   4.134  -2.463
    1   AR   Ar   21   6.025   0.682   2.003
    1   AR   Ar   22   6.769   1.591   2.231
    1   AR   Ar   23   0.252   0.853   0.090
    1   AR   Ar   24   0.390   2.308   1.330
    1   AR   Ar   25   7.092   1.261   3.841
    1   AR   Ar   26   5.934   1.031   3.913
    1   AR   Ar   27   2.014   1.500   4.008
    1   AR   Ar   28   1.369   2.551   4.584
    1   AR   Ar   29   5.926   2.281   7.084
    1   AR   Ar   30   0.695   1.842   6.154
    1   AR   Ar   31   0.989   6.066   7.567
    1   AR   Ar   32   1.639   2.662   6.323
    1   AR   Ar   33   1.675   3.871  -0.247
    1   AR   Ar   34   0.185   5.640   2.880
    1   AR   Ar   35   6.295   5.162   2.258
    1   AR   Ar   36   0.147   0.542  -3.369
    1   AR   Ar   37   6.237   3.206   2.364
    1   AR   Ar   38   0.201   4.279   2.464
    1   AR   Ar   39   1.383   3.939   2.837
    1   AR   Ar   40   1.199   3.686   1.096
    1   AR   Ar   41   0.085   2.764   3.349
    1   AR   Ar   42   6.420   5.369   5.350
    1   AR   Ar   43   6.815   2.316   5.468
    1   AR   Ar   44   0.665   4.346   3.627
    1   AR   Ar   45   0.643   2.944   5.541
    1   AR   Ar   46   1.388   5.843   6.377
    1   AR   Ar   47   5.433   3.423   7.083
    1   AR   Ar   48   0.332   6.540   6.632
    1   AR   Ar   49   5.883   0.163  -1.568
    1   AR   Ar   50   5.082   4.910   2.041
    1   AR   Ar   51   0.335   5.323   1.880
    1   AR   Ar   52   5.759   5.051  -1.202
    1   AR   Ar   53   5.640   6.407   2.170
    1   AR   Ar   54   6.525   6.319   2.648
    1   AR   Ar   55   5.736   5.525   3.058
    1   AR   Ar   56   0.628   6.927   1.676
    1   AR   Ar   57   5.417   2.903   3.297
    1   AR   Ar   58   0.031   5.322   4.155
    1   AR   Ar   59   1.968   5.207   5.311
    1   AR   Ar   60   0.228   6.306   3.966
    1   AR   Ar   61   6.515   4.429   5.979
    1   AR   Ar   62   0.932   5.468   4.916
    1   AR   Ar   63   2.436   6.134   6.743
    1   AR   Ar   64   1.313   6.817   5.336
    1   AR   Ar   65   3.828   7.027   0.804
    1   AR   Ar   66   1.205   1.444   1.134
    1   AR   Ar   67   3.512   6.032  -1.015
    1   AR   Ar   68   3.073   1.395  -0.860
    1   AR   Ar   69   2.775   1.146   0.912
    1   AR   Ar   70   0.816   0.587   2.474
    1   AR   Ar   71   3.078   1.373   3.199
    1   AR   Ar   72   3.413   0.791   1.818
    1   AR   Ar   73   3.154   6.837   3.539
    1   AR   Ar   74   2.379   1.071   4.902
    1   AR   Ar   75   3.459   1.372   4.915
    1   AR   Ar   76   2.093   0.836   1.833
    1   AR   Ar   77   2.550   6.535   5.703
    1   AR   Ar   78   1.546   7.007   6.725
    1   AR   Ar   79   3.873   7.101   6.691
    1   AR   Ar   80   3.128   5.400   6.184
    1   AR   Ar   81   1.783   1.475  -0.271
    1   AR   Ar   82   7.075   5.139  -1.093
    1   AR   Ar   83   1.647   2.216   0.590
    1   AR   Ar   84   0.345   3.956  -0.604
    1   AR   Ar   85   0.862   2.828   0.193
    1   AR   Ar   86   2.264   3.458   0.961
    1   AR   Ar   87   2.557   2.150   1.163
    1   AR   Ar   88   3.166   4.303   2.158
    1   AR   Ar   89   0.083   2.775   2.158
    1   AR   Ar   90   2.756   2.275   5.132
    1   AR   Ar   91   1.235   2.457   3.411
    1   AR   Ar   92   0.994   2.075   2.150
    1   AR   Ar   93   1.865   1.021   6.354
    1   AR   Ar   94   1.710   0.434   9.562
    1   AR   Ar   95   4.319   0.906   5.913
    1   AR   Ar   96   3.195   0.586   5.561
    1   AR   Ar   97   4.148   2.157  -0.848
    1   AR   Ar   98   2.428   4.950   2.865
    1   AR   Ar   99   7.078   1.941  -1.461
    1   AR   Ar  100   2.373   2.386  -0.385
    1   AR   Ar  101   2.513   4.384   1.254
    1   AR   Ar  102   3.650   3.352   3.697
    1   AR   Ar  103   1.382   4.553   0.573
    1   AR   Ar  104   2.782   2.656  -1.216
    1   AR   Ar  105   2.008   2.931   3.878
    1   AR   Ar  106   3.008   3.803   4.898
    1   AR   Ar  107   1.562   3.888   5.815
    1   AR   Ar  108   3.532   3.032   5.283
    1   AR   Ar  109   1.387   3.938   4.694
    1   AR   Ar  110   1.068   4.633   6.364
    1   AR   Ar  111   4.410   3.805   6.765
    1   AR   Ar  112   1.838   5.384   7.276
    1   AR   Ar  113   2.538   4.258  -0.074
    1   AR   Ar  114   2.340   4.940  -1.200
    1   AR   Ar  115   2.786   3.652  -0.996
    1   AR   Ar  116   5.409   6.415  -1.778
    1   AR   Ar  117   0.969   5.559   3.720
    1   AR   Ar  118   0.714   6.569   2.871
    1   AR   Ar  119   2.174   3.700   2.152
    1   AR   Ar  120   1.214   5.278   2.733
    1   AR   Ar  121   6.898   4.224   4.208
    1   AR   Ar  122   3.245   5.882   5.294
    1   AR   Ar  123   2.938   5.002   4.851
    1   AR   Ar  124   1.555   4.519   2.071
    1   AR   Ar  125   0.203   3.730   6.035
    1   AR   Ar  126   0.064   7.011   4.789
    1   AR   Ar  127   3.103   4.182   7.043
    1   AR   Ar  128   2.076   4.948   6.339
    1   AR   Ar  129   1.752   0.332   3.042
    1   AR   Ar  130   3.957   1.958  -2.276
    1   AR   Ar  131   4.755   0.409   0.255
    1   AR   Ar  132   1.694   1.730  -1.314
    1   AR   Ar  133   3.943   0.249   2.587
    1   AR   Ar  134   4.902   0.882   4.126
    1   AR   Ar  135   5.427   1.211   2.887
    1   AR   Ar  136   4.887   0.359   1.955
    1   AR   Ar  137   2.801   5.969   4.163
    1   AR   Ar  138   4.758   1.731   4.930
    1   AR   Ar  139   5.553   2.383   5.602
    1   AR   Ar  140   3.967   0.174   4.598
    1   AR   Ar  141   3.772   6.207   4.346
    1   AR   Ar  142   3.603   6.799   5.395
    1   AR   Ar  143   6.220   6.914   5.946
    1   AR   Ar  144   5.421   1.327   5.837
    1   AR   Ar  145   3.550   3.728   0.528
    1   AR   Ar  146   4.307   2.451   1.683
    1   AR   Ar  147   5.910   2.035  -1.730
    1   AR   Ar  148   4.366   4.088  -2.073
    1   AR   Ar  149   3.598   1.940   0.828
    1   AR   Ar  150   1.825   1.504   2.593
    1   AR   Ar  151   3.069   2.566   3.136
    1   AR   Ar  152   2.981   2.784   0.416
    1   AR   Ar  153   3.127   0.698   4.239
    1   AR   Ar  154   4.162   1.885   4.094
    1   AR   Ar  155   6.446   0.888   6.208
    1   AR   Ar  156   4.183   4.267   4.582
    1   AR   Ar  157   2.576   3.126   5.946
    1   AR   Ar  158   1.060   3.541   6.650
    1   AR   Ar  159   4.044   2.144   5.781
    1   AR   Ar  160   2.838   1.540   6.098
    1   AR   Ar  161   5.617   3.094   1.434
    1   AR   Ar  162   4.646   5.853  -0.400
    1   AR   Ar  163   5.730   2.684   0.309
    1   AR   Ar  164   3.651   5.554   1.788
    1   AR   Ar  165   3.456   3.091   1.357
    1   AR   Ar  166   3.173   4.384   3.661
    1   AR   Ar  167   4.292   1.936   2.689
    1   AR   Ar  168   4.785   3.027  -0.813
    1   AR   Ar  169   2.553   2.747   1.965
    1   AR   Ar  170   2.801   4.287   5.883
    1   AR   Ar  171   5.487   4.111   3.705
    1   AR   Ar  172   4.601   5.434   4.409
    1   AR   Ar  173   2.158   3.752   7.307
    1   AR   Ar  174   3.807   4.873   6.619
    1   AR   Ar  175   3.864   3.017   6.304
    1   AR   Ar  176   3.783   4.502   5.482
    1   AR   Ar  177   6.329   5.004   0.180
    1   AR   Ar  178   2.980   5.613   0.240
    1   AR   Ar  179   4.001   5.931   0.760
    1   AR   Ar  180   1.780   2.782  -1.707
    1   AR   Ar  181   0.884   5.760   1.015
    1   AR   Ar  182   2.763   0.360   2.582
    1   AR   Ar  183   3.553   5.342   2.853
    1   AR   Ar  184   4.169   6.587   1.740
    1   AR   Ar  185   1.966   5.093   4.249
    1   AR   Ar  186   3.513   5.303   3.895
    1   AR   Ar  187   3.776   6.166   3.213
    1   AR   Ar  188   3.173   6.819   1.706
    1   AR   Ar  189   2.807   2.649   7.794
    1   AR   Ar  190   5.240   6.670   5.616
    1   AR   Ar  191   4.630   4.778   5.984
    1   AR   Ar  192   4.363   5.749   5.473
    1   AR   Ar  193   1.222   6.604  -0.919
    1   AR   Ar  194   5.216   3.868  -1.280
    1   AR   Ar  195   6.233   0.406  -0.040
    1   AR   Ar  196   5.035   6.844  -0.594
    1   AR   Ar  197   5.355   1.587   0.663
    1   AR   Ar  198   0.069   1.251   1.327
    1   AR   Ar  199   5.277   1.646   1.810
    1   AR   Ar  200   6.691   2.151   0.137
    1   AR   Ar  201   4.812   7.072   3.484
    1   AR   Ar  202   5.411   2.590   4.507
    1   AR   Ar  203   6.371   6.319   4.983
    1   AR   Ar  204   5.622   0.052   4.290
    1   AR   Ar  205   5.788   0.078   2.810
    1   AR   Ar  206   4.879   0.538   5.128
    1   AR   Ar  207   0.305   0.253   5.880
    1   AR   Ar  208   6.601   7.076   3.478
    1   AR   Ar  209   5.719   2.935  -2.374
    1   AR   Ar  210   4.419   1.041   1.028
    1   AR   Ar  211   7.006   3.134   0.203
    1   AR   Ar  212   6.318   3.939  -1.229
    1   AR   Ar  213   3.362   1.908   2.099
    1   AR   Ar  214   3.899   2.889   2.660
    1   AR   Ar  215   6.425   2.032   1.359
    1   AR   Ar  216   0.157   3.972   0.918
    1   AR   Ar  217   4.580   3.124   3.853
    1   AR   Ar  218   4.610   2.868   4.986
    1   AR   Ar  219   5.114   1.944   3.665
    1   AR   Ar  220   4.806   3.410   2.503
    1   AR   Ar  221   6.129   0.661   5.213
    1   AR   Ar  222   4.800   2.100   6.548
    1   AR   Ar  223   0.728   0.870   6.706
    1   AR   Ar  224   4.965   3.084   6.133
    1   AR   Ar  225   6.049   4.181   1.433
    1   AR   Ar  226   4.290   4.502   2.523
    1   AR   Ar  227   0.245   4.946   0.466
    1   AR   Ar  228   5.156   6.228   1.159
    1   AR   Ar  229   5.816   4.100  -0.158
    1   AR   Ar  230   4.282   4.507   3.564
    1   AR   Ar  231   6.402   1.816   3.235
    1   AR   Ar  232   4.486   2.970   0.683
    1   AR   Ar  233   6.287   2.680   4.015
    1   AR   Ar  234   6.841   3.162   4.719
    1   AR   Ar  235   0.464   2.414   4.177
    1   AR   Ar  236   5.396   4.894   4.994
    1   AR   Ar  237   5.960   3.915   4.971
    1   AR   Ar  238   4.811   3.847   5.332
    1   AR   Ar  239   6.906   4.260   9.389
    1   AR   Ar  240   6.216   3.380   5.913
    1   AR   Ar  241   0.206   6.970  -0.141
    1   AR   Ar  242   5.024   5.126   0.038
    1   AR   Ar  243   5.666   4.062   2.604
    1   AR   Ar  244   1.352   5.389  -0.287
    1   AR   Ar  245   5.907   0.145   0.987
    1   AR   Ar  246   6.544   5.903   1.504
    1   AR   Ar  247   4.650   4.042   0.845
    1   AR   Ar  248   5.750   5.918  -0.207
    1   AR   Ar  249   4.720   5.850   2.302
    1   AR   Ar  250   4.719   6.562   4.542
    1   AR   Ar  251   6.071   5.172   4.258
    1   AR   Ar  252   4.717   5.849   3.483
    1   AR   Ar  253   5.436   4.202   6.168
    1   AR   Ar  254   4.016   5.410   7.441
    1   AR   Ar  255   4.671   2.789   7.541
    1   AR   Ar  256   5.776   6.267   3.745
    7.12000  7.12000 12.00000
Argon-slab step 2490
  256
    1   AR   Ar    1   6.684   1.277  -0.799
    1   AR   Ar    2   7.004   7.098   0.858
    1   AR   Ar    3   1.090   0.201   0.559
    1   AR   Ar    4   1.902   0.258  -0.584
    1   AR   Ar    5   6.851   6.134   0.365
    1   AR   Ar    6   6.808   0.758   2.891
    1   AR   Ar    7   6.612   4.715   3.256
    1   AR   Ar    8   6.689   6.981   1.837
    1   AR   Ar    9   0.491   0.380   3.792
    1   AR   Ar   10   1.036   1.519   4.203
    1   AR   Ar   11   2.881   6.933   4.709
    1   AR   Ar   12   0.974   1.476   3.202
    1   AR   Ar   13   6.869   1.780   4.626
    1   AR   Ar   14   1.600   1.352   7.256
    1   AR   Ar   15   6.294   0.367   9.355
    1   AR   Ar   16   1.094   0.648   4.864
    1   AR   Ar   17   0.539   1.908  -0.279
    1   AR   Ar   18   6.263   3.010  -0.511
    1   AR   Ar   19   1.628   2.976   1.598
    1   AR   Ar   20   5.549   4.155  -2.443
    1   AR   Ar   21   6.002   0.718   2.016
    1   AR   Ar   22   6.772   1.571   2.217
    1   AR   Ar   23   0.268   0.828   0.100
    1   AR   Ar   24   0.379   2.306   1.307
    1   AR   Ar   25   0.001   1.293   3.868
    1   AR   Ar   26   5.915   1.040   3.898
    1   AR   Ar   27   2.041   1.524   4.004
    1   AR   Ar   28   1.399   2.559   4.595
    1   AR   Ar   29   5.917   2.292   7.064
    1   AR   Ar   30   0.735   1.817   6.146
    1   AR   Ar   31   1.022   6.039   7.594
    1   AR   Ar   32   1.636   2.673   6.317
    1   AR   Ar   33   1.657   3.859  -0.261
    1   AR   Ar   34   0.189   5.620   2.878
    1   AR   Ar   35   6.302   5.172   2.269
    1   AR   Ar   36   0.092   0.529  -3.386
    1   AR   Ar   37   6.206   3.200   2.361
    1   AR   Ar   38   0.190   4.253   2.449
    1   AR   Ar   39   1.407   3.927   2.834
    1   AR   Ar   40   1.185   3.695   1.106
    1   AR   Ar   41   0.093   2.786   3.312
    1   AR   Ar   42   6.416   5.360   5.383
    1   AR   Ar   43   6.787   2.339   5.473
    1   AR   Ar   44   0.684   4.370   3.607
    1   AR   Ar   45   0.655   2.928   5.540
    1   AR   Ar   46   1.366   5.872   6.383
    1   AR   Ar   47   5.417   3.415   7.112
    1   AR   Ar   48   0.335   6.550   6.642
    1   AR   Ar   49   5.903   0.168  -1.562
    1   AR   Ar   50   5.112   4.871   2.018
    1   AR   Ar   51   0.347   5.304   1.891
    1   AR   Ar   52   5.754   5.072  -1.193
    1   AR   Ar   53   5.659   6.406   2.151
    1   AR   Ar   54   6.511   6.326   2.638
    1   AR   Ar   55   5.701   5.566   3.034
    1   AR   Ar   56   0.664   6.914   1.646
    1   AR   Ar   57   5.427   2.893   3.277
    1   AR   Ar   58   0.025   5.330   4.140
    1   AR   Ar   59   1.965   5.198   5.309
    1   AR   Ar   60   0.228   6.357   3.969
    1   AR   Ar   61   6.543   4.440   5.972
    1   AR   Ar   62   0.932   5.421   4.877
    1   AR   Ar   63   2.425   6.135   6.719
    1   AR   Ar   64   1.335   6.813   5.321
    1   AR   Ar   65   3.815   7.035   0.816
    1   AR   Ar   66   1.211   1.388   1.146
    1   AR   Ar   67   3.486   6.053  -0.992
    1   AR   Ar   68   3.058   1.407  -0.815
    1   AR   Ar   69   2.772   1.166   0.898
    1   AR   Ar   70   0.828   0.559   2.478
    1   AR   Ar   71   3.083   1.381   3.245
    1   AR   Ar   72   3.444   0.808   1.873
    1   AR   Ar   73   3.180   6.840   3.555
    1   AR   Ar   74   2.370   1.071   4.886
    1   AR   Ar   75   3.450   1.387   4.916
    1   AR   Ar   76   2.075   0.862   1.840
    1   AR   Ar   77   2.539   6.571   5.712
    1   AR   Ar   78   1.538   6.981   6.718
    1   AR   Ar   79   3.844   7.079   6.710
    1   AR   Ar   80   3.116   5.415   6.192
    1   AR   Ar   81   1.786   1.457  -0.233
    1   AR   Ar   82   7.087   5.149  -1.107
    1   AR   Ar   83   1.637   2.232   0.601
    1   AR   Ar   84   0.329   3.946  -0.594
    1   AR   Ar   85   0.854   2.807   0.208
    1   AR   Ar   86   2.251   3.456   0.953
    1   AR   Ar   87   2.526   2.112   1.166
    1   AR   Ar   88   3.170   4.312   2.194
    1   AR   Ar   89   0.076   2.752   2.193
    1   AR   Ar   90   2.771   2.289   5.129
    1   AR   Ar   91   1.217   2.492   3.400
    1   AR   Ar   92   0.986   2.081   2.160
    1   AR   Ar   93   1.875   1.012   6.371
    1   AR   Ar   94   1.716   0.419   9.568
    1   AR   Ar   95   4.303   0.923   5.922
    1   AR   Ar   96   3.224   0.566   5.522
    1   AR   Ar   97   4.158   2.150  -0.814
    1   AR   Ar   98   2.429   4.942   2.906
    1   AR   Ar   99   7.062   1.979  -1.454
    1   AR   Ar  100   2.363   2.357  -0.349
    1   AR   Ar  101   2.514   4.410   1.258
    1   AR   Ar  102   3.642   3.311   3.696
    1   AR   Ar  103   1.385   4.510   0.585
    1   AR   Ar  104   2.811   2.638  -1.243
    1   AR   Ar  105   1.983   2.933   3.871
    1   AR   Ar  106   3.013   3.811   4.875
    1   AR   Ar  107   1.527   3.893   5.786
    1   AR   Ar  108   3.536   3.023   5.320
    1   AR   Ar  109   1.386   3.892   4.683
    1   AR   Ar  110   1.030   4.604   6.371
    1   AR   Ar  111   4.421   3.829   6.791
    1   AR   Ar  112   1.822   5.376   7.245
    1   AR   Ar  113   2.560   4.262  -0.079
    1   AR   Ar  114   2.337   4.944  -1.189
    1   AR   Ar  115   2.778   3.669  -1.010
    1   AR   Ar  116   5.409   6.412  -1.749
    1   AR   Ar  117   0.999   5.564   3.710
    1   AR   Ar  118   0.722   6.560   2.866
    1   AR   Ar  119   2.157   3.662   2.152
    1   AR   Ar  120   1.191   5.319   2.746
    1   AR   Ar  121   6.881   4.242   4.218
    1   AR   Ar  122   3.263   5.890   5.262
    1   AR   Ar  123   2.963   5.042   4.842
    1   AR   Ar  124   1.543   4.501   2.041
    1   AR   Ar  125   0.212   3.729   6.061
    1   AR   Ar  126   0.026   6.998   4.798
    1   AR   Ar  127   3.105   4.158   7.020
    1   AR   Ar  128   2.080   4.965   6.312
    1   AR   Ar  129   1.739   0.332   3.015
    1   AR   Ar  130   3.938   1.946  -2.251
    1   AR   Ar  131   4.750   0.421   0.266
    1   AR   Ar  132   1.687   1.725  -1.313
    1   AR   Ar  133   3.938   0.212   2.555
    1   AR   Ar  134   4.913   0.860   4.134
    1   AR   Ar  135   5.417   1.187   2.897
    1   AR   Ar  136   4.886   0.359   1.965
    1   AR   Ar  137   2.757   5.935   4.153
    1   AR   Ar  138   4.765   1.724   4.895
    1   AR   Ar  139   5.526   2.381   5.585
    1   AR   Ar  140   3.975   0.189   4.617
    1   AR   Ar  141   3.757   6.171   4.325
    1   AR   Ar  142   3.610   6.798   5.398
    1   AR   Ar  143   6.189   6.906   5.939
    1   AR   Ar  144   5.388   1.313   5.823
    1   AR   Ar  145   3.562   3.749   0.500
    1   AR   Ar  146   4.332   2.459   1.663
    1   AR   Ar  147   5.891   2.021  -1.763
    1   AR   Ar  148   4.358   4.126  -2.041
    1   AR   Ar  149   3.631   1.949   0.816
    1   AR   Ar  150   1.811   1.478   2.605
    1   AR   Ar  151   3.065   2.575   3.157
    1   AR   Ar  152   2.990   2.788   0.402
    1   AR   Ar  153   3.125   0.676   4.236
    1   AR   Ar  154   4.204   1.862   4.068
    1   AR   Ar  155   6.430   0.867   6.253
    1   AR   Ar  156   4.195   4.274   4.568
    1   AR   Ar  157   2.609   3.122   5.915
    1   AR   Ar  158   1.065   3.522   6.633
    1   AR   Ar  159   4.071   2.143   5.751
    1   AR   Ar  160   2.846   1.574   6.087
    1   AR   Ar  161   5.618   3.107   1.467
    1   AR   Ar  162   4.641   5.872  -0.395
    1   AR   Ar  163   5.750   2.745   0.299
    1   AR   Ar  164   3.651   5.597   1.816
    1   AR   Ar  165   3.439   3.107   1.337
    1   AR   Ar  166   3.164   4.394   3.659
    1   AR   Ar  167   4.290   1.923   2.682
    1   AR   Ar  168   4.753   3.026  -0.824
    1   AR   Ar  169   2.558   2.755   1.948
    1   AR   Ar  170   2.809   4.297   5.879
    1   AR   Ar  171   5.505   4.141   3.711
    1   AR   Ar  172   4.604   5.422   4.410
    1   AR   Ar  173   2.192   3.751   7.282
    1   AR   Ar  174   3.803   4.854   6.647
    1   AR   Ar  175   3.849   3.031   6.321
    1   AR   Ar  176   3.775   4.484   5.495
    1   AR   Ar  177   6.319   4.997   0.171
    1   AR   Ar  178   2.997   5.642   0.250
    1   AR   Ar  179   3.992   5.966   0.783
    1   AR   Ar  180   1.785   2.781  -1.704
    1   AR   Ar  181   0.868   5.758   1.019
    1   AR   Ar  182   2.765   0.366   2.566
    1   AR   Ar  183   3.526   5.317   2.833
    1   AR   Ar  184   4.185   6.571   1.753
    1   AR   Ar  185   1.967   5.083   4.258
    1   AR   Ar  186   3.525   5.273   3.924
    1   AR   Ar  187   3.794   6.173   3.251
    1   AR   Ar  188   3.152   6.831   1.711
    1   AR   Ar  189   2.783   2.619   7.838
    1   AR   Ar  190   5.243   6.686   5.578
    1   AR   Ar  191   4.656   4.753   5.969
    1   AR   Ar  192   4.403   5.766   5.471
    1   AR   Ar  193   1.210   6.578  -0.902
    1   AR   Ar  194   5.192   3.850  -1.267
    1   AR   Ar  195   6.219   0.413  -0.053
    1   AR   Ar  196   5.050   6.857  -0.607
    1   AR   Ar  197   5.331   1.595   0.663
    1   AR   Ar  198   0.071   1.279   1.321
    1   AR   Ar  199   5.279   1.616   1.820
    1   AR   Ar  200   6.641   2.148   0.142
    1   AR   Ar  201   4.829   7.080   3.519
    1   AR   Ar  202   5.397   2.590   4.517
    1   AR   Ar  203   6.376   6.332   4.977
    1   AR   Ar  204   5.613   0.030   4.299
    1   AR   Ar  205   5.770   0.059   2.814
    1   AR   Ar  206   4.891   0.505   5.106
    1   AR   Ar  207   0.326   0.244   5.858
    1   AR   Ar  208   6.632   7.050   3.466
    1   AR   Ar  209   5.702   2.956  -2.404
    1   AR   Ar  210   4.411   1.040   1.044
    1   AR   Ar  211   7.009   3.161   0.230
    1   AR   Ar  212   6.319   3.928  -1.224
    1   AR   Ar  213   3.363   1.912   2.102
    1   AR   Ar  214   3.900   2.931   2.686
    1   AR   Ar  215   6.440   2.063   1.323
    1   AR   Ar  216   0.124   3.945   0.924
    1   AR   Ar  217   4.563   3.127   3.850
    1   AR   Ar  218   4.624   2.904   4.990
    1   AR   Ar  219   5.109   1.967   3.645
    1   AR   Ar  220   4.810   3.429   2.507
    1   AR   Ar  221   6.137   0.656   5.222
    1   AR   Ar  222   4.803   2.096   6.584
    1   AR   Ar  223   0.722   0.908   6.729
    1   AR   Ar  224   4.950   3.112   6.140
    1   AR   Ar  225   6.051   4.172   1.450
    1   AR   Ar  226   4.306   4.531   2.516
    1   AR   Ar  227   0.238   4.940   0.468
    1   AR   Ar  228   5.171   6.230   1.185
    1   AR   Ar  229   5.799   4.095  -0.180
    1   AR   Ar  230   4.266   4.475   3.571
    1   AR   Ar  231   6.390   1.794   3.227
    1   AR   Ar  232   4.506   2.955   0.685
    1   AR   Ar  233   6.299   2.664   3.972
    1   AR   Ar  234   6.816   3.152   4.735
    1   AR   Ar  235   0.451   2.429   4.168
    1   AR   Ar  236   5.393   4.911   5.018
    1   AR   Ar  237   5.947   3.911   4.975
    1   AR   Ar  238   4.799   3.876   5.362
    1   AR   Ar  239   6.898   4.256   9.431
    1   AR   Ar  240   6.228   3.379   5.901
    1   AR   Ar  241   0.199   6.985  -0.214
    1   AR   Ar  242   5.027   5.115   0.053
    1   AR   Ar  243   5.648   4.088   2.585
    1   AR   Ar  244   1.342   5.398  -0.282
    1   AR   Ar  245   5.894   0.140   0.978
    1   AR   Ar  246   6.555   5.868   1.524
    1   AR   Ar  247   4.660   4.070   0.833
    1   AR   Ar  248   5.762   5.891  -0.209
    1   AR   Ar  249   4.677   5.808   2.312
    1   AR   Ar  250   4.728   6.575   4.534
    1   AR   Ar  251   6.053   5.168   4.248
    1   AR   Ar  252   4.724   5.875   3.469
    1   AR   Ar  253   5.436   4.213   6.166
    1   AR   Ar  254   3.992   5.412   7.465
    1   AR   Ar  255   4.673   2.780   7.547
    1   AR   Ar  256   5.825   6.272   3.709
    7.12000  7.12000 12.00000
Argon-slab step 2495
  256
    1   AR   Ar    1   6.685   1.285  -0.792
    1   AR   Ar    2   7.028   7.086   0.841
    1   AR   Ar    3   1.110   0.214   0.539
    1   AR   Ar    4   1.891   0.266  -0.571
    1   AR   Ar    5   6.821   6.137   0.349
    1   AR   Ar    6   6.803   0.763   2.876
    1   AR   Ar    7   6.625   4.719   3.233
    1   AR   Ar    8   6.700   7.005   1.850
    1   AR   Ar    9   0.489   0.366   3.767
    1   AR   Ar   10   1.042   1.527   4.174
    1   AR   Ar   11   2.872   6.916   4.743
    1   AR   Ar   12   0.955   1.462   3.200
    1   AR   Ar   13   6.869   1.775   4.642
    1   AR   Ar   14   1.605   1.354   7.276
    1   AR   Ar   15   6.280   0.352   9.375
    1   AR   Ar   16   1.097   0.636   4.845
    1   AR   Ar   17   0.536   1.911  -0.280
    1   AR   Ar   18   6.247   3.025  -0.509
    1   AR   Ar   19   1.654   2.968   1.584
    1   AR   Ar   20   5.542   4.176  -2.420
    1   AR   Ar   21   5.979   0.757   2.027
    1   AR   Ar   22   6.774   1.555   2.206
    1   AR   Ar   23   0.283   0.811   0.113
    1   AR   Ar   24   0.375   2.306   1.319
    1   AR   Ar   25   0.036   1.315   3.872
    1   AR   Ar   26   5.901   1.049   3.882
    1   AR   Ar   27   2.072   1.550   3.994
    1   AR   Ar   28   1.427   2.564   4.614
    1   AR   Ar   29   5.906   2.304   7.043
    1   AR   Ar   30   0.775   1.794   6.136
    1   AR   Ar   31   1.055   6.013   7.619
    1   AR   Ar   32   1.633   2.683   6.309
    1   AR   Ar   33   1.631   3.843  -0.276
    1   AR   Ar   34   0.183   5.576   2.899
    1   AR   Ar   35   6.310   5.177   2.280
    1   AR   Ar   36   0.036   0.517  -3.404
    1   AR   Ar   37   6.175   3.192   2.361
    1   AR   Ar   38   0.179   4.228   2.435
    1   AR   Ar   39   1.426   3.909   2.842
    1   AR   Ar   40   1.164   3.704   1.115
    1   AR   Ar   41   0.098   2.810   3.267
    1   AR   Ar   42   6.412   5.349   5.415
    1   AR   Ar   43   6.758   2.366   5.485
    1   AR   Ar   44   0.703   4.396   3.587
    1   AR   Ar   45   0.670   2.909   5.537
    1   AR   Ar   46   1.343   5.901   6.389
    1   AR   Ar   47   5.407   3.398   7.144
    1   AR   Ar   48   0.340   6.561   6.652
    1   AR   Ar   49   5.925   0.178  -1.554
    1   AR   Ar   50   5.110   4.866   1.997
    1   AR   Ar   51   0.359   5.282   1.899
    1   AR   Ar   52   5.758   5.094  -1.196
    1   AR   Ar   53   5.666   6.402   2.123
    1   AR   Ar   54   6.484   6.325   2.640
    1   AR   Ar   55   5.663   5.600   3.003
    1   AR   Ar   56   0.700   6.900   1.617
    1   AR   Ar   57   5.446   2.897   3.268
    1   AR   Ar   58   0.019   5.335   4.125
    1   AR   Ar   59   1.961   5.189   5.306
    1   AR   Ar   60   0.230   6.410   3.968
    1   AR   Ar   61   6.569   4.452   5.965
    1   AR   Ar   62   0.939   5.414   4.860
    1   AR   Ar   63   2.414   6.135   6.695
    1   AR   Ar   64   1.356   6.807   5.309
    1   AR   Ar   65   3.802   7.045   0.829
    1   AR   Ar   66   1.215   1.332   1.160
    1   AR   Ar   67   3.461   6.073  -0.968
    1   AR   Ar   68   3.046   1.419  -0.786
    1   AR   Ar   69   2.772   1.180   0.883
    1   AR   Ar   70   0.839   0.532   2.482
    1   AR   Ar   71   3.088   1.389   3.291
    1   AR   Ar   72   3.474   0.828   1.922
    1   AR   Ar   73   3.194   6.858   3.579
    1   AR   Ar   74   2.360   1.070   4.875
    1   AR   Ar   75   3.438   1.397   4.931
    1   AR   Ar   76   2.062   0.832   1.821
    1   AR   Ar   77   2.526   6.601   5.721
    1   AR   Ar   78   1.529   6.956   6.709
    1   AR   Ar   79   3.814   7.058   6.727
    1   AR   Ar   80   3.126   5.424   6.192
    1   AR   Ar   81   1.787   1.437  -0.193
    1   AR   Ar   82   7.092   5.182  -1.112
    1   AR   Ar   83   1.629   2.248   0.612
    1   AR   Ar   84   0.306   3.922  -0.605
    1   AR   Ar   85   0.850   2.788   0.225
    1   AR   Ar   86   2.242   3.451   0.940
    1   AR   Ar   87   2.495   2.077   1.167
    1   AR   Ar   88   3.174   4.322   2.231
    1   AR   Ar   89   0.068   2.730   2.232
    1   AR   Ar   90   2.785   2.301   5.125
    1   AR   Ar   91   1.193   2.524   3.384
    1   AR   Ar   92   0.978   2.087   2.173
    1   AR   Ar   93   1.887   0.999   6.377
    1   AR   Ar   94   1.723   0.404   9.574
    1   AR   Ar   95   4.285   0.936   5.932
    1   AR   Ar   96   3.245   0.556   5.487
    1   AR   Ar   97   4.166   2.141  -0.781
    1   AR   Ar   98   2.431   4.933   2.946
    1   AR   Ar   99   7.046   2.020  -1.450
    1   AR   Ar  100   2.349   2.327  -0.309
    1   AR   Ar  101   2.514   4.439   1.263
    1   AR   Ar  102   3.615   3.278   3.693
    1   AR   Ar  103   1.391   4.478   0.591
    1   AR   Ar  104   2.841   2.617  -1.274
    1   AR   Ar  105   1.971   2.942   3.863
    1   AR   Ar  106   3.017   3.823   4.851
    1   AR   Ar  107   1.498   3.896   5.752
    1   AR   Ar  108   3.544   3.013   5.355
    1   AR   Ar  109   1.385   3.846   4.671
    1   AR   Ar  110   0.990   4.578   6.379
    1   AR   Ar  111   4.432   3.855   6.816
    1   AR   Ar  112   1.805   5.367   7.216
    1   AR   Ar  113   2.572   4.271  -0.068
    1   AR   Ar  114   2.334   4.946  -1.176
    1   AR   Ar  115   2.769   3.688  -1.022
    1   AR   Ar  116   5.406   6.404  -1.719
    1   AR   Ar  117   1.028   5.570   3.706
    1   AR   Ar  118   0.730   6.553   2.861
    1   AR   Ar  119   2.150   3.665   2.149
    1   AR   Ar  120   1.172   5.356   2.752
    1   AR   Ar  121   6.863   4.259   4.229
    1   AR   Ar  122   3.281   5.896   5.228
    1   AR   Ar  123   2.986   5.072   4.828
    1   AR   Ar  124   1.530   4.493   2.000
    1   AR   Ar  125   0.219   3.729   6.086
    1   AR   Ar  126   7.113   6.992   4.807
    1   AR   Ar  127   3.109   4.135   6.994
    1   AR   Ar  128   2.085   4.982   6.286
    1   AR   Ar  129   1.727   0.333   2.989
    1   AR   Ar  130   3.924   1.939  -2.227
    1   AR   Ar  131   4.726   0.427   0.265
    1   AR   Ar  132   1.681   1.720  -1.311
    1   AR   Ar  133   3.935   0.170   2.528
    1   AR   Ar  134   4.919   0.841   4.138
    1   AR   Ar  135   5.408   1.161   2.907
    1   AR   Ar  136   4.889   0.363   1.981
    1   AR   Ar  137   2.707   5.902   4.144
    1   AR   Ar  138   4.816   1.750   4.874
    1   AR   Ar  139   5.500   2.380   5.568
    1   AR   Ar  140   3.985   0.209   4.630
    1   AR   Ar  141   3.746   6.144   4.309
    1   AR   Ar  142   3.591   6.802   5.378
    1   AR   Ar  143   6.163   6.901   5.933
    1   AR   Ar  144   5.355   1.298   5.808
    1   AR   Ar  145   3.574   3.772   0.471
    1   AR   Ar  146   4.356   2.465   1.643
    1   AR   Ar  147   5.872   2.007  -1.795
    1   AR   Ar  148   4.352   4.163  -2.009
    1   AR   Ar  149   3.666   1.948   0.807
    1   AR   Ar  150   1.800   1.455   2.619
    1   AR   Ar  151   3.055   2.580   3.178
    1   AR   Ar  152   2.999   2.793   0.388
    1   AR   Ar  153   3.121   0.659   4.224
    1   AR   Ar  154   4.233   1.840   4.040
    1   AR   Ar  155   6.415   0.845   6.297
    1   AR   Ar  156   4.207   4.280   4.555
    1   AR   Ar  157   2.642   3.119   5.884
    1   AR   Ar  158   1.069   3.501   6.622
    1   AR   Ar  159   4.100   2.141   5.719
    1   AR   Ar  160   2.855   1.608   6.074
    1   AR   Ar  161   5.617   3.119   1.498
    1   AR   Ar  162   4.627   5.906  -0.398
    1   AR   Ar  163   5.764   2.803   0.299
    1   AR   Ar  164   3.651   5.641   1.842
    1   AR   Ar  165   3.423   3.120   1.321
    1   AR   Ar  166   3.176   4.398   3.636
    1   AR   Ar  167   4.291   1.909   2.677
    1   AR   Ar  168   4.720   3.023  -0.833
    1   AR   Ar  169   2.573   2.760   1.939
    1   AR   Ar  170   2.801   4.303   5.872
    1   AR   Ar  171   5.522   4.170   3.716
    1   AR   Ar  172   4.606   5.407   4.413
    1   AR   Ar  173   2.222   3.747   7.258
    1   AR   Ar  174   3.806   4.826   6.670
    1   AR   Ar  175   3.834   3.045   6.342
    1   AR   Ar  176   3.764   4.467   5.509
    1   AR   Ar  177   6.308   4.992   0.162
    1   AR   Ar  178   3.015   5.671   0.260
    1   AR   Ar  179   3.985   5.999   0.806
    1   AR   Ar  180   1.778   2.770  -1.705
    1   AR   Ar  181   0.851   5.756   1.021
    1   AR   Ar  182   2.767   0.371   2.553
    1   AR   Ar  183   3.495   5.279   2.810
    1   AR   Ar  184   4.204   6.557   1.766
    1   AR   Ar  185   1.968   5.073   4.263
    1   AR   Ar  186   3.541   5.271   3.919
    1   AR   Ar  187   3.821   6.180   3.283
    1   AR   Ar  188   3.129   6.844   1.717
    1   AR   Ar  189   2.759   2.589   7.881
    1   AR   Ar  190   5.242   6.701   5.535
    1   AR   Ar  191   4.674   4.740   5.953
    1   AR   Ar  192   4.442   5.783   5.468
    1   AR   Ar  193   1.198   6.552  -0.883
    1   AR   Ar  194   5.171   3.836  -1.256
    1   AR   Ar  195   6.208   0.420  -0.066
    1   AR   Ar  196   5.068   6.872  -0.621
    1   AR   Ar  197   5.326   1.564   0.671
    1   AR   Ar  198   0.076   1.302   1.309
    1   AR   Ar  199   5.280   1.585   1.830
    1   AR   Ar  200   6.592   2.143   0.147
    1   AR   Ar  201   4.845   7.086   3.552
    1   AR   Ar  202   5.396   2.585   4.518
    1   AR   Ar  203   6.375   6.345   4.970
    1   AR   Ar  204   5.606   0.010   4.311
    1   AR   Ar  205   5.752   0.042   2.823
    1   AR   Ar  206   4.881   0.482   5.092
    1   AR   Ar  207   0.347   0.235   5.836
    1   AR   Ar  208   6.663   7.021   3.459
    1   AR   Ar  209   5.685   2.978  -2.433
    1   AR   Ar  210   4.403   1.038   1.062
    1   AR   Ar  211   7.008   3.190   0.258
    1   AR   Ar  212   6.320   3.917  -1.218
    1   AR   Ar  213   3.362   1.918   2.105
    1   AR   Ar  214   3.902   2.974   2.709
    1   AR   Ar  215   6.452   2.096   1.284
    1   AR   Ar  216   0.100   3.936   0.935
    1   AR   Ar  217   4.571   3.106   3.833
    1   AR   Ar  218   4.622   2.943   5.003
    1   AR   Ar  219   5.111   1.988   3.624
    1   AR   Ar  220   4.815   3.448   2.511
    1   AR   Ar  221   6.143   0.651   5.229
    1   AR   Ar  222   4.808   2.092   6.618
    1   AR   Ar  223   0.716   0.943   6.751
    1   AR   Ar  224   4.935   3.141   6.146
    1   AR   Ar  225   6.059   4.180   1.434
    1   AR   Ar  226   4.316   4.557   2.510
    1   AR   Ar  227   0.234   4.934   0.470
    1   AR   Ar  228   5.182   6.259   1.200
    1   AR   Ar  229   5.782   4.088  -0.204
    1   AR   Ar  230   4.253   4.423   3.568
    1   AR   Ar  231   6.366   1.775   3.244
    1   AR   Ar  232   4.526   2.939   0.688
    1   AR   Ar  233   6.313   2.644   3.925
    1   AR   Ar  234   6.793   3.144   4.754
    1   AR   Ar  235   0.432   2.406   4.153
    1   AR   Ar  236   5.387   4.925   5.048
    1   AR   Ar  237   5.933   3.907   4.979
    1   AR   Ar  238   4.787   3.905   5.392
    1   AR   Ar  239   6.891   4.252   9.472
    1   AR   Ar  240   6.240   3.376   5.889
    1   AR   Ar  241   0.191   6.993  -0.288
    1   AR   Ar  242   5.038   5.088   0.078
    1   AR   Ar  243   5.631   4.117   2.567
    1   AR   Ar  244   1.326   5.388  -0.291
    1   AR   Ar  245   5.880   0.135   0.971
    1   AR   Ar  246   6.549   5.873   1.549
    1   AR   Ar  247   4.670   4.099   0.821
    1   AR   Ar  248   5.773   5.869  -0.207
    1   AR   Ar  249   4.633   5.767   2.326
    1   AR   Ar  250   4.739   6.585   4.526
    1   AR   Ar  251   6.009   5.158   4.222
    1   AR   Ar  252   4.739   5.901   3.454
    1   AR   Ar  253   5.450   4.213   6.168
    1   AR   Ar  254   3.968   5.418   7.496
    1   AR   Ar  255   4.700   2.774   7.521
    1   AR   Ar  256   5.875   6.285   3.680
    7.12000  7.12000 12.00000
Argon-slab step 2500
  256
    1   AR   Ar    1   6.684   1.289  -0.780
    1   AR   Ar    2   7.052   7.075   0.821
    1   AR   Ar    3   1.129   0.227   0.518
    1   AR   Ar    4   1.879   0.275  -0.557
    1   AR   Ar    5   6.791   6.139   0.334
    1   AR   Ar    6   6.799   0.767   2.864
    1   AR   Ar    7   6.637   4.723   3.210
    1   AR   Ar    8   6.709   7.030   1.865
    1   AR   Ar    9   0.489   0.351   3.741
    1   AR   Ar   10   1.048   1.536   4.158
    1   AR   Ar   11   2.852   6.896   4.765
    1   AR   Ar   12   0.929   1.446   3.186
    1   AR   Ar   13   6.859   1.779   4.677
    1   AR   Ar   14   1.608   1.360   7.303
    1   AR   Ar   15   6.267   0.336   9.394
    1   AR   Ar   16   1.099   0.624   4.825
    1   AR   Ar   17   0.521   1.894  -0.263
    1   AR   Ar   18   6.238   3.045  -0.521
    1   AR   Ar   19   1.668   2.944   1.575
    1   AR   Ar   20   5.534   4.195  -2.395
    1   AR   Ar   21   5.959   0.794   2.038
    1   AR   Ar   22   6.774   1.544   2.198
    1   AR   Ar   23   0.297   0.801   0.129
    1   AR   Ar   24   0.374   2.310   1.325
    1   AR   Ar   25   0.074   1.326   3.854
    1   AR   Ar   26   5.891   1.055   3.879
    1   AR   Ar   27   2.106   1.579   3.978
    1   AR   Ar   28   1.450   2.566   4.640
    1   AR   Ar   29   5.893   2.318   7.020
    1   AR   Ar   30   0.817   1.774   6.123
    1   AR   Ar   31   1.087   5.989   7.643
    1   AR   Ar   32   1.631   2.690   6.298
    1   AR   Ar   33   1.602   3.823  -0.292
    1   AR   Ar   34   0.169   5.534   2.924
    1   AR   Ar   35   6.319   5.180   2.291
    1   AR   Ar   36   7.101   0.505  -3.421
    1   AR   Ar   37   6.147   3.184   2.365
    1   AR   Ar   38   0.169   4.205   2.422
    1   AR   Ar   39   1.440   3.890   2.858
    1   AR   Ar   40   1.134   3.705   1.130
    1   AR   Ar   41   0.100   2.837   3.223
    1   AR   Ar   42   6.407   5.338   5.444
    1   AR   Ar   43   6.728   2.395   5.502
    1   AR   Ar   44   0.721   4.424   3.565
    1   AR   Ar   45   0.686   2.889   5.533
    1   AR   Ar   46   1.320   5.931   6.394
    1   AR   Ar   47   5.402   3.385   7.171
    1   AR   Ar   48   0.361   6.582   6.656
    1   AR   Ar   49   5.963   0.173  -1.569
    1   AR   Ar   50   5.113   4.874   1.989
    1   AR   Ar   51   0.353   5.277   1.897
    1   AR   Ar   52   5.761   5.115  -1.198
    1   AR   Ar   53   5.662   6.396   2.086
    1   AR   Ar   54   6.457   6.318   2.654
    1   AR   Ar   55   5.633   5.602   2.981
    1   AR   Ar   56   0.736   6.886   1.587
    1   AR   Ar   57   5.473   2.920   3.277
    1   AR   Ar   58   0.012   5.340   4.109
    1   AR   Ar   59   1.957   5.182   5.300
    1   AR   Ar   60   0.234   6.458   3.965
    1   AR   Ar   61   6.592   4.462   5.957
    1   AR   Ar   62   0.947   5.417   4.848
    1   AR   Ar   63   2.402   6.135   6.671
    1   AR   Ar   64   1.378   6.800   5.298
    1   AR   Ar   65   3.790   7.059   0.842
    1   AR   Ar   66   1.201   1.303   1.144
    1   AR   Ar   67   3.437   6.093  -0.943
    1   AR   Ar   68   3.050   1.421  -0.821
    1   AR   Ar   69   2.775   1.181   0.865
    1   AR   Ar   70   0.845   0.507   2.484
    1   AR   Ar   71   3.092   1.397   3.336
    1   AR   Ar   72   3.503   0.855   1.962
    1   AR   Ar   73   3.198   6.887   3.609
    1   AR   Ar   74   2.351   1.067   4.869
    1   AR   Ar   75   3.429   1.411   4.947
    1   AR   Ar   76   2.051   0.786   1.793
    1   AR   Ar   77   2.509   6.603   5.726
    1   AR   Ar   78   1.500   6.940   6.741
    1   AR   Ar   79   3.784   7.037   6.742
    1   AR   Ar   80   3.174   5.417   6.180
    1   AR   Ar   81   1.787   1.415  -0.153
    1   AR   Ar   82   7.096   5.215  -1.116
    1   AR   Ar   83   1.623   2.263   0.623
    1   AR   Ar   84   0.297   3.933  -0.591
    1   AR   Ar   85   0.845   2.774   0.242
    1   AR   Ar   86   2.240   3.448   0.919
    1   AR   Ar   87   2.464   2.051   1.171
    1   AR   Ar   88   3.177   4.332   2.269
    1   AR   Ar   89   0.058   2.708   2.268
    1   AR   Ar   90   2.797   2.310   5.121
    1   AR   Ar   91   1.164   2.552   3.364
    1   AR   Ar   92   0.972   2.092   2.187
    1   AR   Ar   93   1.901   0.982   6.374
    1   AR   Ar   94   1.707   0.387   9.586
    1   AR   Ar   95   4.266   0.928   5.954
    1   AR   Ar   96   3.257   0.564   5.456
    1   AR   Ar   97   4.212   2.122  -0.759
    1   AR   Ar   98   2.432   4.923   2.987
    1   AR   Ar   99   7.031   2.064  -1.446
    1   AR   Ar  100   2.335   2.297  -0.271
    1   AR   Ar  101   2.514   4.469   1.269
    1   AR   Ar  102   3.577   3.253   3.694
    1   AR   Ar  103   1.401   4.462   0.588
    1   AR   Ar  104   2.872   2.595  -1.306
    1   AR   Ar  105   1.971   2.958   3.852
    1   AR   Ar  106   3.021   3.838   4.826
    1   AR   Ar  107   1.472   3.898   5.715
    1   AR   Ar  108   3.555   3.005   5.384
    1   AR   Ar  109   1.384   3.799   4.658
    1   AR   Ar  110   0.949   4.555   6.388
    1   AR   Ar  111   4.443   3.883   6.840
    1   AR   Ar  112   1.790   5.357   7.190
    1   AR   Ar  113   2.586   4.281  -0.056
    1   AR   Ar  114   2.331   4.947  -1.161
    1   AR   Ar  115   2.767   3.700  -1.027
    1   AR   Ar  116   5.401   6.392  -1.689
    1   AR   Ar  117   1.055   5.579   3.714
    1   AR   Ar  118   0.737   6.547   2.857
    1   AR   Ar  119   2.153   3.696   2.143
    1   AR   Ar  120   1.198   5.380   2.760
    1   AR   Ar  121   6.843   4.275   4.240
    1   AR   Ar  122   3.298   5.902   5.199
    1   AR   Ar  123   3.003   5.083   4.809
    1   AR   Ar  124   1.515   4.490   1.953
    1   AR   Ar  125   0.224   3.730   6.108
    1   AR   Ar  126   7.086   6.996   4.817
    1   AR   Ar  127   3.118   4.111   6.965
    1   AR   Ar  128   2.090   4.997   6.266
    1   AR   Ar  129   1.718   0.335   2.964
    1   AR   Ar  130   3.917   1.942  -2.205
    1   AR   Ar  131   4.691   0.428   0.254
    1   AR   Ar  132   1.663   1.715  -1.310
    1   AR   Ar  133   3.934   0.123   2.507
    1   AR   Ar  134   4.919   0.827   4.139
    1   AR   Ar  135   5.398   1.135   2.916
    1   AR   Ar  136   4.895   0.377   2.005
    1   AR   Ar  137   2.655   5.871   4.136
    1   AR   Ar  138   4.869   1.774   4.859
    1   AR   Ar  139   5.474   2.379   5.553
    1   AR   Ar  140   3.995   0.233   4.634
    1   AR   Ar  141   3.739   6.131   4.302
    1   AR   Ar  142   3.596   6.793   5.376
    1   AR   Ar  143   6.144   6.897   5.929
    1   AR   Ar  144   5.322   1.283   5.793
    1   AR   Ar  145   3.585   3.795   0.441
    1   AR   Ar  146   4.378   2.471   1.626
    1   AR   Ar  147   5.854   1.994  -1.827
    1   AR   Ar  148   4.347   4.200  -1.977
    1   AR   Ar  149   3.699   1.949   0.800
    1   AR   Ar  150   1.793   1.433   2.634
    1   AR   Ar  151   3.038   2.579   3.198
    1   AR   Ar  152   3.008   2.799   0.376
    1   AR   Ar  153   3.117   0.645   4.207
    1   AR   Ar  154   4.248   1.816   4.012
    1   AR   Ar  155   6.400   0.824   6.340
    1   AR   Ar  156   4.217   4.284   4.548
    1   AR   Ar  157   2.671   3.117   5.856
    1   AR   Ar  158   1.075   3.481   6.617
    1   AR   Ar  159   4.132   2.121   5.706
    1   AR   Ar  160   2.865   1.642   6.058
    1   AR   Ar  161   5.612   3.131   1.524
    1   AR   Ar  162   4.610   5.944  -0.404
    1   AR   Ar  163   5.768   2.859   0.316
    1   AR   Ar  164   3.650   5.658   1.859
    1   AR   Ar  165   3.407   3.132   1.307
    1   AR   Ar  166   3.183   4.391   3.610
    1   AR   Ar  167   4.294   1.894   2.674
    1   AR   Ar  168   4.688   3.019  -0.838
    1   AR   Ar  169   2.598   2.760   1.934
    1   AR   Ar  170   2.790   4.307   5.865
    1   AR   Ar  171   5.540   4.200   3.722
    1   AR   Ar  172   4.606   5.392   4.417
    1   AR   Ar  173   2.219   3.718   7.265
    1   AR   Ar  174   3.816   4.794   6.689
    1   AR   Ar  175   3.820   3.060   6.367
    1   AR   Ar  176   3.751   4.451   5.523
    1   AR   Ar  177   6.296   4.986   0.154
    1   AR   Ar  178   3.034   5.700   0.269
    1   AR   Ar  179   3.979   6.031   0.830
    1   AR   Ar  180   1.764   2.751  -1.718
    1   AR   Ar  181   0.833   5.754   1.024
    1   AR   Ar  182   2.768   0.376   2.544
    1   AR   Ar  183   3.465   5.236   2.789
    1   AR   Ar  184   4.225   6.546   1.777
    1   AR   Ar  185   1.968   5.062   4.265
    1   AR   Ar  186   3.562   5.265   3.911
    1   AR   Ar  187   3.846   6.183   3.303
    1   AR   Ar  188   3.107   6.857   1.724
    1   AR   Ar  189   2.735   2.560   7.923
    1   AR   Ar  190   5.236   6.713   5.490
    1   AR   Ar  191   4.679   4.744   5.937
    1   AR   Ar  192   4.480   5.801   5.464
    1   AR   Ar  193   1.184   6.525  -0.863
    1   AR   Ar  194   5.155   3.828  -1.247
    1   AR   Ar  195   6.198   0.427  -0.078
    1   AR   Ar  196   5.087   6.887  -0.635
    1   AR   Ar  197   5.326   1.523   0.683
    1   AR   Ar  198   0.084   1.318   1.292
    1   AR   Ar  199   5.280   1.554   1.840
    1   AR   Ar  200   6.546   2.136   0.152
    1   AR   Ar  201   4.860   7.088   3.581
    1   AR   Ar  202   5.405   2.578   4.509
    1   AR   Ar  203   6.365   6.353   4.961
    1   AR   Ar  204   5.606   7.112   4.325
    1   AR   Ar  205   5.778   0.015   2.817
    1   AR   Ar  206   4.875   0.461   5.085
    1   AR   Ar  207   0.368   0.226   5.813
    1   AR   Ar  208   6.690   6.991   3.453
    1   AR   Ar  209   5.668   3.000  -2.460
    1   AR   Ar  210   4.399   1.042   1.069
    1   AR   Ar  211   7.003   3.216   0.284
    1   AR   Ar  212   6.321   3.907  -1.211
    1   AR   Ar  213   3.360   1.925   2.106
    1   AR   Ar  214   3.906   3.016   2.728
    1   AR   Ar  215   6.460   2.131   1.246
    1   AR   Ar  216   0.089   3.955   0.952
    1   AR   Ar  217   4.592   3.083   3.820
    1   AR   Ar  218   4.608   2.982   5.022
    1   AR   Ar  219   5.124   2.005   3.600
    1   AR   Ar  220   4.821   3.467   2.514
    1   AR   Ar  221   6.148   0.644   5.233
    1   AR   Ar  222   4.813   2.089   6.651
    1   AR   Ar  223   0.710   0.974   6.773
    1   AR   Ar  224   4.920   3.169   6.152
    1   AR   Ar  225   6.066   4.189   1.419
    1   AR   Ar  226   4.318   4.581   2.508
    1   AR   Ar  227   0.232   4.930   0.472
    1   AR   Ar  228   5.188   6.304   1.206
    1   AR   Ar  229   5.764   4.080  -0.229
    1   AR   Ar  230   4.241   4.372   3.557
    1   AR   Ar  231   6.341   1.757   3.260
    1   AR   Ar  232   4.545   2.925   0.689
    1   AR   Ar  233   6.288   2.652   3.904
    1   AR   Ar  234   6.771   3.140   4.773
    1   AR   Ar  235   0.413   2.385   4.141
    1   AR   Ar  236   5.379   4.937   5.080
    1   AR   Ar  237   5.919   3.905   4.983
    1   AR   Ar  238   4.777   3.932   5.417
    1   AR   Ar  239   6.883   4.248   9.513
    1   AR   Ar  240   6.250   3.372   5.877
    1   AR   Ar  241   0.184   6.996  -0.364
    1   AR   Ar  242   5.053   5.054   0.106
    1   AR   Ar  243   5.617   4.148   2.550
    1   AR   Ar  244   1.305   5.366  -0.309
    1   AR   Ar  245   5.866   0.129   0.965
    1   AR   Ar  246   6.533   5.907   1.577
    1   AR   Ar  247   4.681   4.127   0.809
    1   AR   Ar  248   5.782   5.864  -0.184
    1   AR   Ar  249   4.591   5.725   2.343
    1   AR   Ar  250   4.749   6.590   4.520
    1   AR   Ar  251   5.967   5.148   4.194
    1   AR   Ar  252   4.767   5.924   3.443
    1   AR   Ar  253   5.480   4.202   6.175
    1   AR   Ar  254   3.945   5.427   7.530
    1   AR   Ar  255   4.721   2.765   7.495
    1   AR   Ar  256   5.927   6.305   3.658
    7.12000  7.12000 12.00000
Argon-slab step 2505
  256
    1   AR   Ar    1   6.684   1.293  -0.766
    1   AR   Ar    2   7.076   7.066   0.799
    1   AR   Ar    3   1.148   0.240   0.498
    1   AR   Ar    4   1.866   0.285  -0.542
    1   AR   Ar    5   6.760   6.138   0.319
    1   AR   Ar    6   6.796   0.768   2.854
    1   AR   Ar    7   6.648   4.725   3.190
    1   AR   Ar    8   6.718   7.056   1.881
    1   AR   Ar    9   0.493   0.337   3.714
    1   AR   Ar   10   1.059   1.545   4.157
    1   AR   Ar   11   2.821   6.875   4.775
    1   AR   Ar   12   0.898   1.428   3.163
    1   AR   Ar   13   6.844   1.785   4.717
    1   AR   Ar   14   1.610   1.367   7.333
    1   AR   Ar   15   6.254   0.320   9.414
    1   AR   Ar   16   1.100   0.613   4.804
    1   AR   Ar   17   0.505   1.875  -0.246
    1   AR   Ar   18   6.236   3.067  -0.546
    1   AR   Ar   19   1.672   2.909   1.569
    1   AR   Ar   20   5.525   4.214  -2.369
    1   AR   Ar   21   5.942   0.827   2.048
    1   AR   Ar   22   6.772   1.540   2.192
    1   AR   Ar   23   0.309   0.795   0.147
    1   AR   Ar   24   0.379   2.318   1.327
    1   AR   Ar   25   0.110   1.333   3.826
    1   AR   Ar   26   5.887   1.056   3.898
    1   AR   Ar   27   2.140   1.610   3.959
    1   AR   Ar   28   1.454   2.586   4.655
    1   AR   Ar   29   5.878   2.333   6.997
    1   AR   Ar   30   0.860   1.759   6.107
    1   AR   Ar   31   1.116   5.968   7.665
    1   AR   Ar   32   1.634   2.692   6.283
    1   AR   Ar   33   1.572   3.803  -0.307
    1   AR   Ar   34   0.153   5.493   2.952
    1   AR   Ar   35   6.329   5.179   2.303
    1   AR   Ar   36   7.045   0.493  -3.438
    1   AR   Ar   37   6.125   3.177   2.379
    1   AR   Ar   38   0.159   4.183   2.409
    1   AR   Ar   39   1.450   3.871   2.880
    1   AR   Ar   40   1.099   3.697   1.153
    1   AR   Ar   41   0.114   2.841   3.231
    1   AR   Ar   42   6.400   5.331   5.469
    1   AR   Ar   43   6.697   2.424   5.526
    1   AR   Ar   44   0.737   4.454   3.543
    1   AR   Ar   45   0.703   2.869   5.529
    1   AR   Ar   46   1.296   5.960   6.397
    1   AR   Ar   47   5.407   3.381   7.191
    1   AR   Ar   48   0.386   6.605   6.659
    1   AR   Ar   49   6.010   0.158  -1.599
    1   AR   Ar   50   5.125   4.886   1.978
    1   AR   Ar   51   0.335   5.283   1.888
    1   AR   Ar   52   5.765   5.135  -1.197
    1   AR   Ar   53   5.650   6.390   2.049
    1   AR   Ar   54   6.443   6.304   2.675
    1   AR   Ar   55   5.610   5.584   2.965
    1   AR   Ar   56   0.770   6.873   1.559
    1   AR   Ar   57   5.503   2.948   3.280
    1   AR   Ar   58   7.116   5.330   4.101
    1   AR   Ar   59   1.953   5.178   5.288
    1   AR   Ar   60   0.247   6.495   3.963
    1   AR   Ar   61   6.612   4.469   5.950
    1   AR   Ar   62   0.956   5.421   4.835
    1   AR   Ar   63   2.388   6.132   6.649
    1   AR   Ar   64   1.401   6.792   5.290
    1   AR   Ar   65   3.778   7.077   0.857
    1   AR   Ar   66   1.174   1.292   1.108
    1   AR   Ar   67   3.413   6.112  -0.916
    1   AR   Ar   68   3.052   1.426  -0.855
    1   AR   Ar   69   2.784   1.170   0.844
    1   AR   Ar   70   0.843   0.485   2.483
    1   AR   Ar   71   3.097   1.406   3.381
    1   AR   Ar   72   3.535   0.875   1.982
    1   AR   Ar   73   3.197   6.920   3.642
    1   AR   Ar   74   2.342   1.063   4.867
    1   AR   Ar   75   3.423   1.432   4.959
    1   AR   Ar   76   2.040   0.740   1.764
    1   AR   Ar   77   2.492   6.606   5.730
    1   AR   Ar   78   1.471   6.926   6.773
    1   AR   Ar   79   3.754   7.016   6.755
    1   AR   Ar   80   3.217   5.413   6.165
    1   AR   Ar   81   1.784   1.390  -0.111
    1   AR   Ar   82   7.099   5.246  -1.118
    1   AR   Ar   83   1.618   2.274   0.636
    1   AR   Ar   84   0.284   3.958  -0.578
    1   AR   Ar   85   0.837   2.766   0.258
    1   AR   Ar   86   2.242   3.448   0.894
    1   AR   Ar   87   2.433   2.037   1.181
    1   AR   Ar   88   3.179   4.340   2.307
    1   AR   Ar   89   0.072   2.696   2.271
    1   AR   Ar   90   2.806   2.317   5.115
    1   AR   Ar   91   1.131   2.576   3.340
    1   AR   Ar   92   0.968   2.095   2.203
    1   AR   Ar   93   1.916   0.964   6.367
    1   AR   Ar   94   1.676   0.367   9.602
    1   AR   Ar   95   4.247   0.921   5.974
    1   AR   Ar   96   3.260   0.584   5.430
    1   AR   Ar   97   4.255   2.098  -0.737
    1   AR   Ar   98   2.432   4.912   3.027
    1   AR   Ar   99   7.016   2.109  -1.442
    1   AR   Ar  100   2.322   2.269  -0.235
    1   AR   Ar  101   2.512   4.497   1.275
    1   AR   Ar  102   3.539   3.239   3.703
    1   AR   Ar  103   1.415   4.458   0.577
    1   AR   Ar  104   2.902   2.572  -1.336
    1   AR   Ar  105   1.978   2.978   3.838
    1   AR   Ar  106   3.026   3.854   4.801
    1   AR   Ar  107   1.449   3.900   5.678
    1   AR   Ar  108   3.575   2.998   5.403
    1   AR   Ar  109   1.384   3.752   4.641
    1   AR   Ar  110   0.909   4.535   6.398
    1   AR   Ar  111   4.454   3.911   6.863
    1   AR   Ar  112   1.775   5.345   7.167
    1   AR   Ar  113   2.600   4.291  -0.042
    1   AR   Ar  114   2.328   4.948  -1.145
    1   AR   Ar  115   2.771   3.707  -1.027
    1   AR   Ar  116   5.394   6.378  -1.657
    1   AR   Ar  117   1.078   5.590   3.733
    1   AR   Ar  118   0.742   6.540   2.854
    1   AR   Ar  119   2.163   3.728   2.134
    1   AR   Ar  120   1.239   5.399   2.759
    1   AR   Ar  121   6.822   4.291   4.252
    1   AR   Ar  122   3.312   5.906   5.178
    1   AR   Ar  123   3.014   5.073   4.785
    1   AR   Ar  124   1.497   4.492   1.903
    1   AR   Ar  125   0.225   3.731   6.126
    1   AR   Ar  126   7.068   7.012   4.827
    1   AR   Ar  127   3.128   4.085   6.935
    1   AR   Ar  128   2.097   5.011   6.253
    1   AR   Ar  129   1.714   0.337   2.943
    1   AR   Ar  130   3.909   1.944  -2.182
    1   AR   Ar  131   4.657   0.426   0.242
    1   AR   Ar  132   1.645   1.710  -1.307
    1   AR   Ar  133   3.934   0.071   2.494
    1   AR   Ar  134   4.915   0.822   4.139
    1   AR   Ar  135   5.388   1.108   2.925
    1   AR   Ar  136   4.905   0.371   2.014
    1   AR   Ar  137   2.606   5.844   4.127
    1   AR   Ar  138   4.921   1.792   4.849
    1   AR   Ar  139   5.448   2.379   5.541
    1   AR   Ar  140   4.003   0.260   4.630
    1   AR   Ar  141   3.738   6.136   4.307
    1   AR   Ar  142   3.626   6.777   5.391
    1   AR   Ar  143   6.130   6.894   5.927
    1   AR   Ar  144   5.288   1.267   5.777
    1   AR   Ar  145   3.597   3.817   0.411
    1   AR   Ar  146   4.399   2.475   1.614
    1   AR   Ar  147   5.838   1.981  -1.858
    1   AR   Ar  148   4.344   4.236  -1.945
    1   AR   Ar  149   3.733   1.950   0.794
    1   AR   Ar  150   1.791   1.412   2.648
    1   AR   Ar  151   3.014   2.569   3.212
    1   AR   Ar  152   3.018   2.804   0.364
    1   AR   Ar  153   3.112   0.636   4.188
    1   AR   Ar  154   4.249   1.791   3.986
    1   AR   Ar  155   6.386   0.801   6.382
    1   AR   Ar  156   4.226   4.289   4.549
    1   AR   Ar  157   2.694   3.119   5.832
    1   AR   Ar  158   1.083   3.462   6.618
    1   AR   Ar  159   4.170   2.077   5.723
    1   AR   Ar  160   2.875   1.675   6.040
    1   AR   Ar  161   5.601   3.141   1.542
    1   AR   Ar  162   4.592   5.981  -0.409
    1   AR   Ar  163   5.773   2.872   0.315
    1   AR   Ar  164   3.646   5.657   1.866
    1   AR   Ar  165   3.393   3.143   1.296
    1   AR   Ar  166   3.184   4.375   3.583
    1   AR   Ar  167   4.299   1.879   2.671
    1   AR   Ar  168   4.656   3.017  -0.841
    1   AR   Ar  169   2.632   2.758   1.935
    1   AR   Ar  170   2.776   4.310   5.859
    1   AR   Ar  171   5.557   4.230   3.728
    1   AR   Ar  172   4.604   5.377   4.421
    1   AR   Ar  173   2.210   3.686   7.273
    1   AR   Ar  174   3.833   4.761   6.704
    1   AR   Ar  175   3.808   3.075   6.397
    1   AR   Ar  176   3.740   4.435   5.535
    1   AR   Ar  177   6.285   4.979   0.145
    1   AR   Ar  178   3.053   5.728   0.278
    1   AR   Ar  179   3.975   6.058   0.853
    1   AR   Ar  180   1.752   2.732  -1.730
    1   AR   Ar  181   0.814   5.752   1.025
    1   AR   Ar  182   2.768   0.381   2.538
    1   AR   Ar  183   3.435   5.194   2.774
    1   AR   Ar  184   4.248   6.538   1.785
    1   AR   Ar  185   1.969   5.057   4.275
    1   AR   Ar  186   3.587   5.252   3.897
    1   AR   Ar  187   3.863   6.184   3.309
    1   AR   Ar  188   3.088   6.870   1.730
    1   AR   Ar  189   2.710   2.532   7.964
    1   AR   Ar  190   5.228   6.719   5.443
    1   AR   Ar  191   4.675   4.768   5.929
    1   AR   Ar  192   4.517   5.819   5.458
    1   AR   Ar  193   1.170   6.499  -0.841
    1   AR   Ar  194   5.143   3.827  -1.242
    1   AR   Ar  195   6.189   0.433  -0.091
    1   AR   Ar  196   5.109   6.903  -0.648
    1   AR   Ar  197   5.327   1.483   0.695
    1   AR   Ar  198   0.093   1.326   1.269
    1   AR   Ar  199   5.275   1.526   1.849
    1   AR   Ar  200   6.502   2.127   0.155
    1   AR   Ar  201   4.872   7.086   3.602
    1   AR   Ar  202   5.420   2.573   4.494
    1   AR   Ar  203   6.343   6.352   4.954
    1   AR   Ar  204   5.614   7.098   4.341
    1   AR   Ar  205   5.802   7.113   2.815
    1   AR   Ar  206   4.872   0.445   5.084
    1   AR   Ar  207   0.390   0.218   5.790
    1   AR   Ar  208   6.712   6.970   3.443
    1   AR   Ar  209   5.651   3.023  -2.487
    1   AR   Ar  210   4.393   1.047   1.080
    1   AR   Ar  211   6.993   3.238   0.304
    1   AR   Ar  212   6.321   3.899  -1.204
    1   AR   Ar  213   3.356   1.930   2.099
    1   AR   Ar  214   3.909   3.055   2.744
    1   AR   Ar  215   6.462   2.167   1.208
    1   AR   Ar  216   0.101   3.972   0.940
    1   AR   Ar  217   4.614   3.060   3.810
    1   AR   Ar  218   4.590   3.019   5.044
    1   AR   Ar  219   5.146   2.018   3.572
    1   AR   Ar  220   4.829   3.486   2.517
    1   AR   Ar  221   6.151   0.637   5.236
    1   AR   Ar  222   4.818   2.087   6.680
    1   AR   Ar  223   0.704   1.001   6.797
    1   AR   Ar  224   4.907   3.194   6.158
    1   AR   Ar  225   6.074   4.197   1.406
    1   AR   Ar  226   4.311   4.602   2.510
    1   AR   Ar  227   0.231   4.927   0.473
    1   AR   Ar  228   5.190   6.350   1.205
    1   AR   Ar  229   5.746   4.071  -0.254
    1   AR   Ar  230   4.233   4.322   3.538
    1   AR   Ar  231   6.319   1.741   3.272
    1   AR   Ar  232   4.564   2.912   0.687
    1   AR   Ar  233   6.269   2.664   3.890
    1   AR   Ar  234   6.749   3.138   4.791
    1   AR   Ar  235   0.393   2.366   4.132
    1   AR   Ar  236   5.370   4.948   5.115
    1   AR   Ar  237   5.904   3.904   4.986
    1   AR   Ar  238   4.768   3.949   5.433
    1   AR   Ar  239   6.891   4.229   9.526
    1   AR   Ar  240   6.261   3.367   5.865
    1   AR   Ar  241   0.175   6.996  -0.439
    1   AR   Ar  242   5.070   5.019   0.134
    1   AR   Ar  243   5.609   4.180   2.535
    1   AR   Ar  244   1.284   5.344  -0.326
    1   AR   Ar  245   5.853   0.122   0.962
    1   AR   Ar  246   6.518   5.945   1.601
    1   AR   Ar  247   4.692   4.155   0.797
    1   AR   Ar  248   5.788   5.862  -0.163
    1   AR   Ar  249   4.551   5.684   2.365
    1   AR   Ar  250   4.754   6.589   4.515
    1   AR   Ar  251   5.927   5.140   4.164
    1   AR   Ar  252   4.806   5.946   3.438
    1   AR   Ar  253   5.520   4.185   6.184
    1   AR   Ar  254   3.922   5.437   7.565
    1   AR   Ar  255   4.733   2.747   7.473
    1   AR   Ar  256   5.977   6.326   3.641
    7.12000  7.12000 12.00000
Argon-slab step 2510
  256
    1   AR   Ar    1   6.684   1.296  -0.749
    1   AR   Ar    2   7.101   7.059   0.778
    1   AR   Ar    3   1.167   0.252   0.480
    1   AR   Ar    4   1.852   0.296  -0.526
    1   AR   Ar    5   6.730   6.137   0.304
    1   AR   Ar    6   6.792   0.764   2.850
    1   AR   Ar    7   6.655   4.721   3.177
    1   AR   Ar    8   6.725   7.082   1.898
    1   AR   Ar    9   0.501   0.329   3.685
    1   AR   Ar   10   1.077   1.555   4.164
    1   AR   Ar   11   2.787   6.855   4.777
    1   AR   Ar   12   0.863   1.410   3.131
    1   AR   Ar   13   6.825   1.788   4.756
    1   AR   Ar   14   1.612   1.375   7.363
    1   AR   Ar   15   6.241   0.304   9.434
    1   AR   Ar   16   1.100   0.603   4.783
    1   AR   Ar   17   0.487   1.854  -0.229
    1   AR   Ar   18   6.239   3.090  -0.576
    1   AR   Ar   19   1.669   2.869   1.565
    1   AR   Ar   20   5.516   4.231  -2.340
    1   AR   Ar   21   5.936   0.849   2.059
    1   AR   Ar   22   6.770   1.544   2.184
    1   AR   Ar   23   0.319   0.793   0.164
    1   AR   Ar   24   0.388   2.330   1.324
    1   AR   Ar   25   0.136   1.338   3.796
    1   AR   Ar   26   5.885   1.054   3.921
    1   AR   Ar   27   2.175   1.643   3.938
    1   AR   Ar   28   1.457   2.588   4.639
    1   AR   Ar   29   5.862   2.348   6.972
    1   AR   Ar   30   0.905   1.748   6.087
    1   AR   Ar   31   1.139   5.955   7.683
    1   AR   Ar   32   1.640   2.687   6.265
    1   AR   Ar   33   1.542   3.783  -0.322
    1   AR   Ar   34   0.140   5.459   2.980
    1   AR   Ar   35   6.339   5.176   2.311
    1   AR   Ar   36   6.990   0.481  -3.456
    1   AR   Ar   37   6.109   3.170   2.402
    1   AR   Ar   38   0.149   4.163   2.396
    1   AR   Ar   39   1.457   3.853   2.904
    1   AR   Ar   40   1.064   3.682   1.179
    1   AR   Ar   41   0.128   2.842   3.262
    1   AR   Ar   42   6.390   5.331   5.489
    1   AR   Ar   43   6.666   2.452   5.556
    1   AR   Ar   44   0.752   4.487   3.521
    1   AR   Ar   45   0.720   2.850   5.525
    1   AR   Ar   46   1.273   5.985   6.398
    1   AR   Ar   47   5.424   3.387   7.204
    1   AR   Ar   48   0.412   6.628   6.661
    1   AR   Ar   49   6.057   0.143  -1.627
    1   AR   Ar   50   5.143   4.902   1.958
    1   AR   Ar   51   0.316   5.288   1.881
    1   AR   Ar   52   5.770   5.155  -1.195
    1   AR   Ar   53   5.639   6.384   2.022
    1   AR   Ar   54   6.438   6.283   2.696
    1   AR   Ar   55   5.592   5.560   2.943
    1   AR   Ar   56   0.804   6.859   1.530
    1   AR   Ar   57   5.510   2.961   3.273
    1   AR   Ar   58   7.091   5.308   4.095
    1   AR   Ar   59   1.949   5.176   5.273
    1   AR   Ar   60   0.271   6.513   3.969
    1   AR   Ar   61   6.622   4.462   5.892
    1   AR   Ar   62   0.964   5.424   4.820
    1   AR   Ar   63   2.374   6.127   6.629
    1   AR   Ar   64   1.423   6.783   5.282
    1   AR   Ar   65   3.767   7.101   0.873
    1   AR   Ar   66   1.149   1.281   1.072
    1   AR   Ar   67   3.389   6.131  -0.888
    1   AR   Ar   68   3.054   1.433  -0.888
    1   AR   Ar   69   2.802   1.182   0.826
    1   AR   Ar   70   0.841   0.469   2.494
    1   AR   Ar   71   3.101   1.414   3.424
    1   AR   Ar   72   3.576   0.881   1.977
    1   AR   Ar   73   3.195   6.947   3.671
    1   AR   Ar   74   2.335   1.059   4.868
    1   AR   Ar   75   3.421   1.463   4.965
    1   AR   Ar   76   2.028   0.695   1.735
    1   AR   Ar   77   2.474   6.609   5.733
    1   AR   Ar   78   1.443   6.915   6.805
    1   AR   Ar   79   3.723   6.995   6.767
    1   AR   Ar   80   3.258   5.409   6.147
    1   AR   Ar   81   1.778   1.361  -0.069
    1   AR   Ar   82   7.102   5.277  -1.119
    1   AR   Ar   83   1.614   2.283   0.648
    1   AR   Ar   84   0.270   3.983  -0.563
    1   AR   Ar   85   0.824   2.764   0.272
    1   AR   Ar   86   2.248   3.451   0.866
    1   AR   Ar   87   2.405   2.030   1.196
    1   AR   Ar   88   3.178   4.340   2.340
    1   AR   Ar   89   0.101   2.692   2.248
    1   AR   Ar   90   2.813   2.321   5.108
    1   AR   Ar   91   1.100   2.597   3.315
    1   AR   Ar   92   0.966   2.096   2.221
    1   AR   Ar   93   1.929   0.945   6.359
    1   AR   Ar   94   1.645   0.348   9.617
    1   AR   Ar   95   4.226   0.914   5.992
    1   AR   Ar   96   3.257   0.603   5.411
    1   AR   Ar   97   4.293   2.066  -0.714
    1   AR   Ar   98   2.428   4.901   3.068
    1   AR   Ar   99   7.000   2.154  -1.438
    1   AR   Ar  100   2.309   2.244  -0.202
    1   AR   Ar  101   2.510   4.524   1.282
    1   AR   Ar  102   3.506   3.235   3.722
    1   AR   Ar  103   1.432   4.462   0.562
    1   AR   Ar  104   2.931   2.548  -1.365
    1   AR   Ar  105   1.990   3.001   3.823
    1   AR   Ar  106   3.033   3.871   4.777
    1   AR   Ar  107   1.426   3.902   5.644
    1   AR   Ar  108   3.603   2.992   5.413
    1   AR   Ar  109   1.355   3.720   4.660
    1   AR   Ar  110   0.871   4.517   6.409
    1   AR   Ar  111   4.466   3.937   6.884
    1   AR   Ar  112   1.762   5.332   7.146
    1   AR   Ar  113   2.614   4.300  -0.027
    1   AR   Ar  114   2.325   4.947  -1.126
    1   AR   Ar  115   2.773   3.714  -1.025
    1   AR   Ar  116   5.387   6.363  -1.624
    1   AR   Ar  117   1.099   5.603   3.760
    1   AR   Ar  118   0.745   6.533   2.852
    1   AR   Ar  119   2.180   3.759   2.122
    1   AR   Ar  120   1.281   5.414   2.749
    1   AR   Ar  121   6.799   4.306   4.264
    1   AR   Ar  122   3.319   5.902   5.167
    1   AR   Ar  123   3.019   5.047   4.756
    1   AR   Ar  124   1.476   4.497   1.852
    1   AR   Ar  125   0.212   3.745   6.127
    1   AR   Ar  126   7.058   7.039   4.838
    1   AR   Ar  127   3.135   4.054   6.904
    1   AR   Ar  128   2.104   5.023   6.248
    1   AR   Ar  129   1.711   0.330   2.922
    1   AR   Ar  130   3.901   1.947  -2.158
    1   AR   Ar  131   4.624   0.423   0.230
    1   AR   Ar  132   1.628   1.705  -1.302
    1   AR   Ar  133   3.933   0.019   2.489
    1   AR   Ar  134   4.904   0.826   4.137
    1   AR   Ar  135   5.376   1.081   2.935
    1   AR   Ar  136   4.918   0.352   2.013
    1   AR   Ar  137   2.562   5.824   4.118
    1   AR   Ar  138   4.965   1.799   4.840
    1   AR   Ar  139   5.423   2.381   5.535
    1   AR   Ar  140   4.025   0.260   4.594
    1   AR   Ar  141   3.742   6.156   4.318
    1   AR   Ar  142   3.672   6.769   5.418
    1   AR   Ar  143   6.122   6.893   5.926
    1   AR   Ar  144   5.255   1.252   5.760
    1   AR   Ar  145   3.607   3.840   0.381
    1   AR   Ar  146   4.419   2.476   1.606
    1   AR   Ar  147   5.822   1.970  -1.889
    1   AR   Ar  148   4.342   4.272  -1.912
    1   AR   Ar  149   3.765   1.955   0.795
    1   AR   Ar  150   1.793   1.391   2.659
    1   AR   Ar  151   2.983   2.549   3.220
    1   AR   Ar  152   3.041   2.802   0.352
    1   AR   Ar  153   3.104   0.637   4.175
    1   AR   Ar  154   4.256   1.784   3.988
    1   AR   Ar  155   6.371   0.779   6.422
    1   AR   Ar  156   4.234   4.294   4.557
    1   AR   Ar  157   2.703   3.110   5.847
    1   AR   Ar  158   1.090   3.448   6.625
    1   AR   Ar  159   4.209   2.033   5.739
    1   AR   Ar  160   2.885   1.708   6.020
    1   AR   Ar  161   5.583   3.152   1.548
    1   AR   Ar  162   4.575   6.017  -0.413
    1   AR   Ar  163   5.773   2.876   0.317
    1   AR   Ar  164   3.638   5.657   1.869
    1   AR   Ar  165   3.382   3.154   1.285
    1   AR   Ar  166   3.181   4.353   3.554
    1   AR   Ar  167   4.292   1.857   2.682
    1   AR   Ar  168   4.626   3.017  -0.842
    1   AR   Ar  169   2.669   2.756   1.940
    1   AR   Ar  170   2.760   4.310   5.853
    1   AR   Ar  171   5.574   4.258   3.732
    1   AR   Ar  172   4.602   5.363   4.424
    1   AR   Ar  173   2.199   3.652   7.281
    1   AR   Ar  174   3.856   4.733   6.715
    1   AR   Ar  175   3.798   3.091   6.433
    1   AR   Ar  176   3.732   4.420   5.545
    1   AR   Ar  177   6.274   4.970   0.137
    1   AR   Ar  178   3.073   5.757   0.287
    1   AR   Ar  179   3.997   6.076   0.859
    1   AR   Ar  180   1.741   2.714  -1.742
    1   AR   Ar  181   0.795   5.751   1.025
    1   AR   Ar  182   2.766   0.386   2.536
    1   AR   Ar  183   3.410   5.158   2.768
    1   AR   Ar  184   4.274   6.530   1.787
    1   AR   Ar  185   1.971   5.058   4.297
    1   AR   Ar  186   3.614   5.235   3.880
    1   AR   Ar  187   3.871   6.186   3.303
    1   AR   Ar  188   3.072   6.883   1.735
    1   AR   Ar  189   2.720   2.507   7.950
    1   AR   Ar  190   5.223   6.714   5.401
    1   AR   Ar  191   4.667   4.809   5.931
    1   AR   Ar  192   4.553   5.837   5.450
    1   AR   Ar  193   1.156   6.472  -0.818
    1   AR   Ar  194   5.136   3.830  -1.239
    1   AR   Ar  195   6.182   0.440  -0.103
    1   AR   Ar  196   5.133   6.920  -0.662
    1   AR   Ar  197   5.336   1.455   0.702
    1   AR   Ar  198   0.101   1.328   1.242
    1   AR   Ar  199   5.261   1.507   1.855
    1   AR   Ar  200   6.462   2.117   0.154
    1   AR   Ar  201   4.883   7.079   3.612
    1   AR   Ar  202   5.439   2.578   4.474
    1   AR   Ar  203   6.311   6.345   4.946
    1   AR   Ar  204   5.631   7.088   4.361
    1   AR   Ar  205   5.824   7.096   2.815
    1   AR   Ar  206   4.874   0.440   5.090
    1   AR   Ar  207   0.411   0.222   5.770
    1   AR   Ar  208   6.728   6.964   3.423
    1   AR   Ar  209   5.634   3.046  -2.512
    1   AR   Ar  210   4.386   1.052   1.094
    1   AR   Ar  211   6.979   3.253   0.319
    1   AR   Ar  212   6.320   3.893  -1.198
    1   AR   Ar  213   3.349   1.917   2.062
    1   AR   Ar  214   3.910   3.092   2.756
    1   AR   Ar  215   6.461   2.202   1.175
    1   AR   Ar  216   0.117   3.993   0.927
    1   AR   Ar  217   4.635   3.036   3.802
    1   AR   Ar  218   4.572   3.049   5.063
    1   AR   Ar  219   5.174   2.029   3.543
    1   AR   Ar  220   4.838   3.504   2.518
    1   AR   Ar  221   6.154   0.629   5.238
    1   AR   Ar  222   4.825   2.082   6.702
    1   AR   Ar  223   0.697   1.022   6.822
    1   AR   Ar  224   4.895   3.216   6.166
    1   AR   Ar  225   6.081   4.206   1.394
    1   AR   Ar  226   4.300   4.619   2.514
    1   AR   Ar  227   0.232   4.926   0.474
    1   AR   Ar  228   5.182   6.395   1.187
    1   AR   Ar  229   5.727   4.063  -0.280
    1   AR   Ar  230   4.228   4.271   3.514
    1   AR   Ar  231   6.298   1.729   3.280
    1   AR   Ar  232   4.584   2.902   0.682
    1   AR   Ar  233   6.299   2.667   3.877
    1   AR   Ar  234   6.728   3.139   4.804
    1   AR   Ar  235   0.374   2.350   4.125
    1   AR   Ar  236   5.362   4.957   5.149
    1   AR   Ar  237   5.888   3.905   4.988
    1   AR   Ar  238   4.762   3.959   5.440
    1   AR   Ar  239   6.909   4.200   9.519
    1   AR   Ar  240   6.270   3.362   5.853
    1   AR   Ar  241   0.166   6.995  -0.513
    1   AR   Ar  242   5.088   4.984   0.162
    1   AR   Ar  243   5.607   4.211   2.525
    1   AR   Ar  244   1.263   5.321  -0.343
    1   AR   Ar  245   5.840   0.116   0.960
    1   AR   Ar  246   6.506   5.985   1.623
    1   AR   Ar  247   4.703   4.182   0.784
    1   AR   Ar  248   5.793   5.861  -0.144
    1   AR   Ar  249   4.515   5.646   2.392
    1   AR   Ar  250   4.751   6.580   4.511
    1   AR   Ar  251   5.889   5.134   4.134
    1   AR   Ar  252   4.852   5.968   3.441
    1   AR   Ar  253   5.562   4.164   6.194
    1   AR   Ar  254   3.899   5.447   7.600
    1   AR   Ar  255   4.733   2.723   7.458
    1   AR   Ar  256   6.019   6.341   3.630
    7.12000  7.12000 12.00000
Argon-slab step 2515
  256
    1   AR   Ar    1   6.684   1.299  -0.730
    1   AR   Ar    2   0.005   7.053   0.757
    1   AR   Ar    3   1.188   0.264   0.462
    1   AR   Ar    4   1.836   0.307  -0.509
    1   AR   Ar    5   6.746   6.160   0.315
    1   AR   Ar    6   6.789   0.756   2.848
    1   AR   Ar    7   6.653   4.704   3.173
    1   AR   Ar    8   6.731   7.109   1.915
    1   AR   Ar    9   0.515   0.331   3.653
    1   AR   Ar   10   1.102   1.565   4.176
    1   AR   Ar   11   2.754   6.835   4.772
    1   AR   Ar   12   0.833   1.392   3.090
    1   AR   Ar   13   6.805   1.789   4.793
    1   AR   Ar   14   1.614   1.383   7.392
    1   AR   Ar   15   6.228   0.288   9.453
    1   AR   Ar   16   1.098   0.593   4.761
    1   AR   Ar   17   0.469   1.832  -0.213
    1   AR   Ar   18   6.245   3.107  -0.607
    1   AR   Ar   19   1.664   2.828   1.563
    1   AR   Ar   20   5.506   4.247  -2.309
    1   AR   Ar   21   5.943   0.856   2.072
    1   AR   Ar   22   6.768   1.556   2.176
    1   AR   Ar   23   0.319   0.816   0.151
    1   AR   Ar   24   0.404   2.346   1.315
    1   AR   Ar   25   0.147   1.342   3.772
    1   AR   Ar   26   5.887   1.048   3.947
    1   AR   Ar   27   2.209   1.677   3.917
    1   AR   Ar   28   1.459   2.587   4.624
    1   AR   Ar   29   5.845   2.365   6.946
    1   AR   Ar   30   0.951   1.740   6.065
    1   AR   Ar   31   1.144   5.964   7.682
    1   AR   Ar   32   1.652   2.677   6.241
    1   AR   Ar   33   1.513   3.762  -0.336
    1   AR   Ar   34   0.136   5.438   3.006
    1   AR   Ar   35   6.350   5.172   2.314
    1   AR   Ar   36   6.934   0.469  -3.473
    1   AR   Ar   37   6.099   3.164   2.431
    1   AR   Ar   38   0.140   4.143   2.384
    1   AR   Ar   39   1.462   3.835   2.930
    1   AR   Ar   40   1.033   3.664   1.208
    1   AR   Ar   41   0.131   2.849   3.294
    1   AR   Ar   42   6.377   5.342   5.502
    1   AR   Ar   43   6.635   2.473   5.592
    1   AR   Ar   44   0.766   4.522   3.498
    1   AR   Ar   45   0.737   2.831   5.521
    1   AR   Ar   46   1.250   6.005   6.395
    1   AR   Ar   47   5.448   3.401   7.211
    1   AR   Ar   48   0.437   6.651   6.663
    1   AR   Ar   49   6.105   0.129  -1.655
    1   AR   Ar   50   5.164   4.925   1.932
    1   AR   Ar   51   0.303   5.291   1.877
    1   AR   Ar   52   5.776   5.166  -1.193
    1   AR   Ar   53   5.630   6.379   2.014
    1   AR   Ar   54   6.441   6.253   2.711
    1   AR   Ar   55   5.596   5.526   2.923
    1   AR   Ar   56   0.837   6.846   1.503
    1   AR   Ar   57   5.485   2.947   3.255
    1   AR   Ar   58   7.067   5.289   4.088
    1   AR   Ar   59   1.946   5.177   5.261
    1   AR   Ar   60   0.304   6.512   3.984
    1   AR   Ar   61   6.631   4.448   5.836
    1   AR   Ar   62   0.972   5.427   4.806
    1   AR   Ar   63   2.366   6.128   6.629
    1   AR   Ar   64   1.446   6.773   5.276
    1   AR   Ar   65   3.734   7.097   0.882
    1   AR   Ar   66   1.127   1.272   1.034
    1   AR   Ar   67   3.366   6.149  -0.859
    1   AR   Ar   68   3.056   1.442  -0.921
    1   AR   Ar   69   2.828   1.208   0.810
    1   AR   Ar   70   0.840   0.462   2.521
    1   AR   Ar   71   3.108   1.424   3.465
    1   AR   Ar   72   3.617   0.886   1.969
    1   AR   Ar   73   3.194   6.958   3.691
    1   AR   Ar   74   2.338   1.086   4.884
    1   AR   Ar   75   3.424   1.503   4.965
    1   AR   Ar   76   2.016   0.651   1.706
    1   AR   Ar   77   2.457   6.614   5.734
    1   AR   Ar   78   1.419   6.909   6.838
    1   AR   Ar   79   3.692   6.975   6.776
    1   AR   Ar   80   3.295   5.406   6.127
    1   AR   Ar   81   1.768   1.329  -0.024
    1   AR   Ar   82   7.103   5.307  -1.118
    1   AR   Ar   83   1.609   2.288   0.658
    1   AR   Ar   84   0.254   4.007  -0.547
    1   AR   Ar   85   0.805   2.768   0.285
    1   AR   Ar   86   2.254   3.455   0.837
    1   AR   Ar   87   2.382   2.027   1.218
    1   AR   Ar   88   3.172   4.321   2.365
    1   AR   Ar   89   0.125   2.690   2.224
    1   AR   Ar   90   2.817   2.326   5.098
    1   AR   Ar   91   1.076   2.613   3.289
    1   AR   Ar   92   0.968   2.095   2.239
    1   AR   Ar   93   1.942   0.926   6.350
    1   AR   Ar   94   1.615   0.328   9.633
    1   AR   Ar   95   4.204   0.906   6.008
    1   AR   Ar   96   3.250   0.615   5.396
    1   AR   Ar   97   4.328   2.028  -0.690
    1   AR   Ar   98   2.429   4.905   3.077
    1   AR   Ar   99   6.983   2.200  -1.432
    1   AR   Ar  100   2.299   2.220  -0.171
    1   AR   Ar  101   2.507   4.548   1.289
    1   AR   Ar  102   3.477   3.241   3.750
    1   AR   Ar  103   1.446   4.458   0.540
    1   AR   Ar  104   2.959   2.523  -1.393
    1   AR   Ar  105   2.005   3.024   3.806
    1   AR   Ar  106   3.041   3.889   4.754
    1   AR   Ar  107   1.405   3.905   5.620
    1   AR   Ar  108   3.615   2.974   5.419
    1   AR   Ar  109   1.342   3.695   4.663
    1   AR   Ar  110   0.835   4.503   6.419
    1   AR   Ar  111   4.482   3.957   6.905
    1   AR   Ar  112   1.750   5.318   7.130
    1   AR   Ar  113   2.626   4.308  -0.011
    1   AR   Ar  114   2.322   4.946  -1.107
    1   AR   Ar  115   2.775   3.720  -1.023
    1   AR   Ar  116   5.380   6.347  -1.589
    1   AR   Ar  117   1.117   5.616   3.789
    1   AR   Ar  118   0.747   6.525   2.851
    1   AR   Ar  119   2.201   3.787   2.108
    1   AR   Ar  120   1.322   5.428   2.735
    1   AR   Ar  121   6.774   4.318   4.276
    1   AR   Ar  122   3.318   5.889   5.166
    1   AR   Ar  123   3.020   5.009   4.726
    1   AR   Ar  124   1.453   4.504   1.800
    1   AR   Ar  125   0.195   3.757   6.121
    1   AR   Ar  126   7.050   7.071   4.847
    1   AR   Ar  127   3.138   4.018   6.872
    1   AR   Ar  128   2.114   5.035   6.246
    1   AR   Ar  129   1.715   0.316   2.903
    1   AR   Ar  130   3.893   1.950  -2.133
    1   AR   Ar  131   4.593   0.419   0.217
    1   AR   Ar  132   1.612   1.699  -1.295
    1   AR   Ar  133   3.928   7.090   2.494
    1   AR   Ar  134   4.890   0.838   4.135
    1   AR   Ar  135   5.363   1.054   2.946
    1   AR   Ar  136   4.932   0.334   2.012
    1   AR   Ar  137   2.528   5.813   4.107
    1   AR   Ar  138   4.999   1.791   4.830
    1   AR   Ar  139   5.401   2.389   5.537
    1   AR   Ar  140   4.053   0.262   4.579
    1   AR   Ar  141   3.750   6.184   4.327
    1   AR   Ar  142   3.727   6.770   5.450
    1   AR   Ar  143   6.117   6.892   5.925
    1   AR   Ar  144   5.223   1.238   5.743
    1   AR   Ar  145   3.618   3.861   0.353
    1   AR   Ar  146   4.437   2.474   1.604
    1   AR   Ar  147   5.806   1.959  -1.919
    1   AR   Ar  148   4.341   4.308  -1.879
    1   AR   Ar  149   3.769   1.980   0.788
    1   AR   Ar  150   1.799   1.371   2.667
    1   AR   Ar  151   2.946   2.521   3.221
    1   AR   Ar  152   3.067   2.797   0.338
    1   AR   Ar  153   3.094   0.654   4.174
    1   AR   Ar  154   4.268   1.789   4.010
    1   AR   Ar  155   6.357   0.756   6.460
    1   AR   Ar  156   4.241   4.299   4.567
    1   AR   Ar  157   2.704   3.103   5.868
    1   AR   Ar  158   1.097   3.439   6.635
    1   AR   Ar  159   4.248   1.990   5.753
    1   AR   Ar  160   2.896   1.740   5.999
    1   AR   Ar  161   5.560   3.162   1.547
    1   AR   Ar  162   4.557   6.051  -0.416
    1   AR   Ar  163   5.768   2.882   0.326
    1   AR   Ar  164   3.625   5.657   1.865
    1   AR   Ar  165   3.374   3.167   1.275
    1   AR   Ar  166   3.176   4.325   3.525
    1   AR   Ar  167   4.285   1.836   2.694
    1   AR   Ar  168   4.595   3.021  -0.841
    1   AR   Ar  169   2.705   2.755   1.949
    1   AR   Ar  170   2.740   4.307   5.846
    1   AR   Ar  171   5.589   4.278   3.733
    1   AR   Ar  172   4.600   5.349   4.426
    1   AR   Ar  173   2.185   3.618   7.287
    1   AR   Ar  174   3.882   4.713   6.724
    1   AR   Ar  175   3.789   3.108   6.471
    1   AR   Ar  176   3.727   4.406   5.553
    1   AR   Ar  177   6.264   4.959   0.130
    1   AR   Ar  178   3.094   5.786   0.295
    1   AR   Ar  179   4.027   6.089   0.858
    1   AR   Ar  180   1.731   2.696  -1.753
    1   AR   Ar  181   0.775   5.752   1.024
    1   AR   Ar  182   2.765   0.393   2.537
    1   AR   Ar  183   3.392   5.143   2.776
    1   AR   Ar  184   4.238   6.505   1.752
    1   AR   Ar  185   1.965   5.047   4.308
    1   AR   Ar  186   3.638   5.219   3.870
    1   AR   Ar  187   3.874   6.188   3.288
    1   AR   Ar  188   3.058   6.894   1.739
    1   AR   Ar  189   2.739   2.483   7.922
    1   AR   Ar  190   5.226   6.696   5.366
    1   AR   Ar  191   4.659   4.813   5.930
    1   AR   Ar  192   4.587   5.854   5.440
    1   AR   Ar  193   1.142   6.446  -0.794
    1   AR   Ar  194   5.142   3.841  -1.248
    1   AR   Ar  195   6.177   0.445  -0.115
    1   AR   Ar  196   5.158   6.938  -0.675
    1   AR   Ar  197   5.355   1.447   0.703
    1   AR   Ar  198   0.107   1.326   1.213
    1   AR   Ar  199   5.234   1.500   1.858
    1   AR   Ar  200   6.427   2.103   0.146
    1   AR   Ar  201   4.893   7.067   3.613
    1   AR   Ar  202   5.461   2.594   4.449
    1   AR   Ar  203   6.274   6.334   4.938
    1   AR   Ar  204   5.643   7.092   4.376
    1   AR   Ar  205   5.844   7.082   2.803
    1   AR   Ar  206   4.878   0.450   5.100
    1   AR   Ar  207   0.407   0.236   5.767
    1   AR   Ar  208   6.745   6.977   3.395
    1   AR   Ar  209   5.617   3.070  -2.536
    1   AR   Ar  210   4.377   1.058   1.112
    1   AR   Ar  211   6.959   3.259   0.326
    1   AR   Ar  212   6.320   3.894  -1.196
    1   AR   Ar  213   3.343   1.906   2.023
    1   AR   Ar  214   3.909   3.125   2.766
    1   AR   Ar  215   6.441   2.230   1.164
    1   AR   Ar  216   0.130   4.021   0.920
    1   AR   Ar  217   4.649   3.012   3.796
    1   AR   Ar  218   4.558   3.071   5.077
    1   AR   Ar  219   5.204   2.033   3.514
    1   AR   Ar  220   4.848   3.522   2.519
    1   AR   Ar  221   6.155   0.621   5.238
    1   AR   Ar  222   4.832   2.072   6.714
    1   AR   Ar  223   0.691   1.040   6.848
    1   AR   Ar  224   4.884   3.233   6.176
    1   AR   Ar  225   6.088   4.214   1.384
    1   AR   Ar  226   4.287   4.632   2.517
    1   AR   Ar  227   0.235   4.928   0.473
    1   AR   Ar  228   5.163   6.439   1.150
    1   AR   Ar  229   5.708   4.054  -0.304
    1   AR   Ar  230   4.226   4.218   3.487
    1   AR   Ar  231   6.281   1.721   3.282
    1   AR   Ar  232   4.604   2.895   0.672
    1   AR   Ar  233   6.336   2.668   3.865
    1   AR   Ar  234   6.708   3.145   4.813
    1   AR   Ar  235   0.355   2.336   4.123
    1   AR   Ar  236   5.355   4.965   5.181
    1   AR   Ar  237   5.870   3.907   4.990
    1   AR   Ar  238   4.760   3.967   5.441
    1   AR   Ar  239   6.915   4.176   9.520
    1   AR   Ar  240   6.277   3.361   5.844
    1   AR   Ar  241   0.157   6.995  -0.584
    1   AR   Ar  242   5.107   4.951   0.188
    1   AR   Ar  243   5.613   4.240   2.519
    1   AR   Ar  244   1.241   5.298  -0.359
    1   AR   Ar  245   5.828   0.111   0.960
    1   AR   Ar  246   6.499   6.025   1.640
    1   AR   Ar  247   4.713   4.206   0.773
    1   AR   Ar  248   5.792   5.864  -0.127
    1   AR   Ar  249   4.484   5.612   2.425
    1   AR   Ar  250   4.740   6.563   4.506
    1   AR   Ar  251   5.854   5.135   4.106
    1   AR   Ar  252   4.894   5.995   3.453
    1   AR   Ar  253   5.604   4.143   6.203
    1   AR   Ar  254   3.875   5.458   7.634
    1   AR   Ar  255   4.725   2.699   7.452
    1   AR   Ar  256   6.045   6.345   3.629
    7.12000  7.12000 12.00000
Argon-slab step 2520
  256
    1   AR   Ar    1   6.685   1.302  -0.710
    1   AR   Ar    2   0.030   7.049   0.737
    1   AR   Ar    3   1.210   0.275   0.445
    1   AR   Ar    4   1.820   0.318  -0.491
    1   AR   Ar    5   6.763   6.181   0.326
    1   AR   Ar    6   6.786   0.748   2.849
    1   AR   Ar    7   6.641   4.670   3.177
    1   AR   Ar    8   6.736   0.015   1.934
    1   AR   Ar    9   0.536   0.340   3.618
    1   AR   Ar   10   1.130   1.575   4.188
    1   AR   Ar   11   2.726   6.817   4.762
    1   AR   Ar   12   0.811   1.376   3.041
    1   AR   Ar   13   6.785   1.788   4.827
    1   AR   Ar   14   1.616   1.391   7.421
    1   AR   Ar   15   6.214   0.272   9.473
    1   AR   Ar   16   1.096   0.582   4.738
    1   AR   Ar   17   0.450   1.810  -0.196
    1   AR   Ar   18   6.251   3.115  -0.631
    1   AR   Ar   19   1.658   2.787   1.564
    1   AR   Ar   20   5.496   4.263  -2.277
    1   AR   Ar   21   5.960   0.852   2.085
    1   AR   Ar   22   6.767   1.572   2.167
    1   AR   Ar   23   0.313   0.841   0.133
    1   AR   Ar   24   0.424   2.361   1.298
    1   AR   Ar   25   0.142   1.344   3.757
    1   AR   Ar   26   5.890   1.039   3.976
    1   AR   Ar   27   2.238   1.713   3.898
    1   AR   Ar   28   1.459   2.584   4.610
    1   AR   Ar   29   5.828   2.384   6.920
    1   AR   Ar   30   0.998   1.734   6.042
    1   AR   Ar   31   1.147   5.977   7.680
    1   AR   Ar   32   1.668   2.671   6.231
    1   AR   Ar   33   1.485   3.741  -0.348
    1   AR   Ar   34   0.144   5.430   3.028
    1   AR   Ar   35   6.362   5.169   2.309
    1   AR   Ar   36   6.920   0.468  -3.467
    1   AR   Ar   37   6.094   3.160   2.463
    1   AR   Ar   38   0.131   4.125   2.371
    1   AR   Ar   39   1.467   3.817   2.955
    1   AR   Ar   40   1.008   3.641   1.238
    1   AR   Ar   41   0.118   2.864   3.318
    1   AR   Ar   42   6.359   5.363   5.510
    1   AR   Ar   43   6.608   2.483   5.630
    1   AR   Ar   44   0.781   4.543   3.478
    1   AR   Ar   45   0.755   2.813   5.517
    1   AR   Ar   46   1.229   6.018   6.389
    1   AR   Ar   47   5.474   3.418   7.215
    1   AR   Ar   48   0.455   6.675   6.664
    1   AR   Ar   49   6.152   0.115  -1.681
    1   AR   Ar   50   5.184   4.952   1.900
    1   AR   Ar   51   0.318   5.294   1.880
    1   AR   Ar   52   5.788   5.142  -1.201
    1   AR   Ar   53   5.619   6.375   2.019
    1   AR   Ar   54   6.452   6.215   2.716
    1   AR   Ar   55   5.627   5.480   2.912
    1   AR   Ar   56   0.867   6.843   1.464
    1   AR   Ar   57   5.467   2.943   3.231
    1   AR   Ar   58   7.045   5.275   4.079
    1   AR   Ar   59   1.943   5.181   5.260
    1   AR   Ar   60   0.342   6.500   4.004
    1   AR   Ar   61   6.622   4.453   5.819
    1   AR   Ar   62   0.979   5.429   4.795
    1   AR   Ar   63   2.355   6.140   6.627
    1   AR   Ar   64   1.468   6.763   5.271
    1   AR   Ar   65   3.697   7.090   0.889
    1   AR   Ar   66   1.110   1.262   0.995
    1   AR   Ar   67   3.344   6.167  -0.828
    1   AR   Ar   68   3.056   1.452  -0.954
    1   AR   Ar   69   2.857   1.229   0.792
    1   AR   Ar   70   0.853   0.464   2.527
    1   AR   Ar   71   3.120   1.436   3.501
    1   AR   Ar   72   3.659   0.888   1.960
    1   AR   Ar   73   3.196   6.952   3.701
    1   AR   Ar   74   2.341   1.114   4.900
    1   AR   Ar   75   3.432   1.546   4.961
    1   AR   Ar   76   2.004   0.607   1.677
    1   AR   Ar   77   2.440   6.620   5.735
    1   AR   Ar   78   1.401   6.909   6.874
    1   AR   Ar   79   3.661   6.954   6.783
    1   AR   Ar   80   3.330   5.401   6.108
    1   AR   Ar   81   1.756   1.294   0.022
    1   AR   Ar   82   7.104   5.336  -1.116
    1   AR   Ar   83   1.600   2.291   0.663
    1   AR   Ar   84   0.238   4.032  -0.529
    1   AR   Ar   85   0.780   2.777   0.296
    1   AR   Ar   86   2.259   3.460   0.809
    1   AR   Ar   87   2.366   2.026   1.248
    1   AR   Ar   88   3.160   4.282   2.380
    1   AR   Ar   89   0.141   2.693   2.205
    1   AR   Ar   90   2.814   2.337   5.091
    1   AR   Ar   91   1.070   2.620   3.275
    1   AR   Ar   92   0.975   2.091   2.258
    1   AR   Ar   93   1.937   0.919   6.348
    1   AR   Ar   94   1.584   0.309   9.648
    1   AR   Ar   95   4.181   0.898   6.022
    1   AR   Ar   96   3.247   0.609   5.392
    1   AR   Ar   97   4.361   1.985  -0.665
    1   AR   Ar   98   2.430   4.918   3.066
    1   AR   Ar   99   6.965   2.245  -1.425
    1   AR   Ar  100   2.290   2.199  -0.143
    1   AR   Ar  101   2.503   4.571   1.296
    1   AR   Ar  102   3.451   3.252   3.783
    1   AR   Ar  103   1.459   4.451   0.517
    1   AR   Ar  104   2.987   2.498  -1.420
    1   AR   Ar  105   2.021   3.048   3.787
    1   AR   Ar  106   3.050   3.906   4.731
    1   AR   Ar  107   1.394   3.911   5.607
    1   AR   Ar  108   3.597   2.938   5.427
    1   AR   Ar  109   1.353   3.681   4.644
    1   AR   Ar  110   0.813   4.500   6.425
    1   AR   Ar  111   4.507   3.967   6.927
    1   AR   Ar  112   1.736   5.303   7.119
    1   AR   Ar  113   2.637   4.316   0.006
    1   AR   Ar  114   2.319   4.943  -1.085
    1   AR   Ar  115   2.776   3.727  -1.020
    1   AR   Ar  116   5.374   6.330  -1.554
    1   AR   Ar  117   1.124   5.627   3.813
    1   AR   Ar  118   0.754   6.528   2.860
    1   AR   Ar  119   2.224   3.813   2.093
    1   AR   Ar  120   1.362   5.440   2.720
    1   AR   Ar  121   6.746   4.325   4.289
    1   AR   Ar  122   3.310   5.871   5.173
    1   AR   Ar  123   3.020   4.966   4.696
    1   AR   Ar  124   1.428   4.512   1.748
    1   AR   Ar  125   0.179   3.759   6.113
    1   AR   Ar  126   7.042   7.106   4.855
    1   AR   Ar  127   3.139   3.978   6.839
    1   AR   Ar  128   2.126   5.047   6.244
    1   AR   Ar  129   1.733   0.299   2.892
    1   AR   Ar  130   3.885   1.954  -2.107
    1   AR   Ar  131   4.563   0.413   0.205
    1   AR   Ar  132   1.597   1.693  -1.285
    1   AR   Ar  133   3.943   7.099   2.505
    1   AR   Ar  134   4.872   0.855   4.132
    1   AR   Ar  135   5.349   1.027   2.959
    1   AR   Ar  136   4.947   0.314   2.010
    1   AR   Ar  137   2.505   5.816   4.094
    1   AR   Ar  138   5.026   1.771   4.818
    1   AR   Ar  139   5.381   2.401   5.545
    1   AR   Ar  140   4.070   0.261   4.565
    1   AR   Ar  141   3.762   6.217   4.331
    1   AR   Ar  142   3.787   6.775   5.483
    1   AR   Ar  143   6.114   6.890   5.926
    1   AR   Ar  144   5.218   1.233   5.727
    1   AR   Ar  145   3.628   3.880   0.325
    1   AR   Ar  146   4.454   2.470   1.607
    1   AR   Ar  147   5.792   1.949  -1.949
    1   AR   Ar  148   4.342   4.343  -1.846
    1   AR   Ar  149   3.773   2.006   0.782
    1   AR   Ar  150   1.794   1.386   2.657
    1   AR   Ar  151   2.939   2.523   3.228
    1   AR   Ar  152   3.093   2.793   0.323
    1   AR   Ar  153   3.081   0.688   4.187
    1   AR   Ar  154   4.278   1.795   4.030
    1   AR   Ar  155   6.342   0.733   6.496
    1   AR   Ar  156   4.245   4.305   4.577
    1   AR   Ar  157   2.700   3.099   5.893
    1   AR   Ar  158   1.102   3.434   6.648
    1   AR   Ar  159   4.288   1.949   5.766
    1   AR   Ar  160   2.908   1.770   5.978
    1   AR   Ar  161   5.533   3.172   1.541
    1   AR   Ar  162   4.564   6.060  -0.438
    1   AR   Ar  163   5.759   2.898   0.314
    1   AR   Ar  164   3.605   5.656   1.858
    1   AR   Ar  165   3.371   3.182   1.264
    1   AR   Ar  166   3.169   4.293   3.499
    1   AR   Ar  167   4.313   1.811   2.693
    1   AR   Ar  168   4.566   3.027  -0.840
    1   AR   Ar  169   2.737   2.756   1.962
    1   AR   Ar  170   2.719   4.300   5.838
    1   AR   Ar  171   5.599   4.284   3.727
    1   AR   Ar  172   4.598   5.337   4.427
    1   AR   Ar  173   2.171   3.583   7.292
    1   AR   Ar  174   3.904   4.706   6.728
    1   AR   Ar  175   3.776   3.090   6.453
    1   AR   Ar  176   3.721   4.373   5.551
    1   AR   Ar  177   6.256   4.944   0.123
    1   AR   Ar  178   3.115   5.814   0.303
    1   AR   Ar  179   4.057   6.095   0.850
    1   AR   Ar  180   1.722   2.678  -1.763
    1   AR   Ar  181   0.755   5.753   1.022
    1   AR   Ar  182   2.763   0.403   2.542
    1   AR   Ar  183   3.383   5.151   2.796
    1   AR   Ar  184   4.208   6.482   1.717
    1   AR   Ar  185   1.951   5.020   4.303
    1   AR   Ar  186   3.643   5.214   3.898
    1   AR   Ar  187   3.876   6.190   3.268
    1   AR   Ar  188   3.047   6.905   1.741
    1   AR   Ar  189   2.757   2.460   7.893
    1   AR   Ar  190   5.239   6.669   5.342
    1   AR   Ar  191   4.626   4.805   5.919
    1   AR   Ar  192   4.618   5.869   5.429
    1   AR   Ar  193   1.127   6.420  -0.769
    1   AR   Ar  194   5.164   3.861  -1.276
    1   AR   Ar  195   6.172   0.451  -0.127
    1   AR   Ar  196   5.185   6.957  -0.687
    1   AR   Ar  197   5.375   1.440   0.704
    1   AR   Ar  198   0.108   1.322   1.182
    1   AR   Ar  199   5.196   1.500   1.858
    1   AR   Ar  200   6.395   2.084   0.131
    1   AR   Ar  201   4.902   7.055   3.605
    1   AR   Ar  202   5.486   2.617   4.422
    1   AR   Ar  203   6.234   6.321   4.928
    1   AR   Ar  204   5.651   7.106   4.387
    1   AR   Ar  205   5.860   7.074   2.788
    1   AR   Ar  206   4.885   0.471   5.114
    1   AR   Ar  207   0.405   0.251   5.765
    1   AR   Ar  208   6.766   7.002   3.361
    1   AR   Ar  209   5.600   3.094  -2.558
    1   AR   Ar  210   4.377   1.079   1.124
    1   AR   Ar  211   6.934   3.258   0.328
    1   AR   Ar  212   6.321   3.905  -1.202
    1   AR   Ar  213   3.337   1.896   1.984
    1   AR   Ar  214   3.905   3.156   2.777
    1   AR   Ar  215   6.396   2.247   1.183
    1   AR   Ar  216   0.134   4.025   0.913
    1   AR   Ar  217   4.654   2.989   3.796
    1   AR   Ar  218   4.550   3.082   5.083
    1   AR   Ar  219   5.232   2.027   3.488
    1   AR   Ar  220   4.859   3.538   2.520
    1   AR   Ar  221   6.155   0.613   5.237
    1   AR   Ar  222   4.839   2.052   6.712
    1   AR   Ar  223   0.684   1.055   6.873
    1   AR   Ar  224   4.875   3.246   6.189
    1   AR   Ar  225   6.078   4.231   1.395
    1   AR   Ar  226   4.273   4.634   2.519
    1   AR   Ar  227   0.238   4.936   0.469
    1   AR   Ar  228   5.135   6.481   1.103
    1   AR   Ar  229   5.688   4.046  -0.327
    1   AR   Ar  230   4.227   4.163   3.461
    1   AR   Ar  231   6.266   1.716   3.279
    1   AR   Ar  232   4.625   2.889   0.659
    1   AR   Ar  233   6.377   2.668   3.853
    1   AR   Ar  234   6.688   3.154   4.818
    1   AR   Ar  235   0.337   2.321   4.128
    1   AR   Ar  236   5.351   4.973   5.209
    1   AR   Ar  237   5.852   3.911   4.992
    1   AR   Ar  238   4.763   3.976   5.440
    1   AR   Ar  239   6.913   4.157   9.525
    1   AR   Ar  240   6.280   3.369   5.837
    1   AR   Ar  241   0.147   6.995  -0.653
    1   AR   Ar  242   5.131   4.922   0.210
    1   AR   Ar  243   5.626   4.266   2.519
    1   AR   Ar  244   1.218   5.273  -0.375
    1   AR   Ar  245   5.819   0.109   0.960
    1   AR   Ar  246   6.500   6.063   1.653
    1   AR   Ar  247   4.717   4.192   0.779
    1   AR   Ar  248   5.788   5.869  -0.112
    1   AR   Ar  249   4.459   5.588   2.462
    1   AR   Ar  250   4.723   6.539   4.496
    1   AR   Ar  251   5.824   5.151   4.083
    1   AR   Ar  252   4.933   6.024   3.472
    1   AR   Ar  253   5.643   4.121   6.212
    1   AR   Ar  254   3.851   5.467   7.667
    1   AR   Ar  255   4.712   2.682   7.456
    1   AR   Ar  256   6.056   6.339   3.640
    7.12000  7.12000 12.00000
Argon-slab step 2525
  256
    1   AR   Ar    1   6.687   1.306  -0.689
    1   AR   Ar    2   0.024   7.055   0.718
    1   AR   Ar    3   1.231   0.286   0.430
    1   AR   Ar    4   1.803   0.329  -0.474
    1   AR   Ar    5   6.779   6.197   0.336
    1   AR   Ar    6   6.784   0.745   2.847
    1   AR   Ar    7   6.622   4.627   3.188
    1   AR   Ar    8   6.741   0.042   1.954
    1   AR   Ar    9   0.561   0.354   3.583
    1   AR   Ar   10   1.160   1.584   4.199
    1   AR   Ar   11   2.701   6.799   4.748
    1   AR   Ar   12   0.793   1.363   2.987
    1   AR   Ar   13   6.764   1.786   4.858
    1   AR   Ar   14   1.618   1.399   7.447
    1   AR   Ar   15   6.201   0.257   9.493
    1   AR   Ar   16   1.092   0.572   4.716
    1   AR   Ar   17   0.431   1.793  -0.179
    1   AR   Ar   18   6.258   3.112  -0.648
    1   AR   Ar   19   1.651   2.803   1.559
    1   AR   Ar   20   5.485   4.277  -2.243
    1   AR   Ar   21   5.982   0.842   2.099
    1   AR   Ar   22   6.767   1.593   2.157
    1   AR   Ar   23   0.297   0.848   0.126
    1   AR   Ar   24   0.448   2.374   1.273
    1   AR   Ar   25   0.124   1.345   3.751
    1   AR   Ar   26   5.896   1.028   4.008
    1   AR   Ar   27   2.217   1.704   3.889
    1   AR   Ar   28   1.462   2.574   4.594
    1   AR   Ar   29   5.812   2.404   6.892
    1   AR   Ar   30   1.047   1.729   6.017
    1   AR   Ar   31   1.148   5.992   7.677
    1   AR   Ar   32   1.689   2.676   6.241
    1   AR   Ar   33   1.456   3.720  -0.360
    1   AR   Ar   34   0.160   5.432   3.047
    1   AR   Ar   35   6.380   5.163   2.295
    1   AR   Ar   36   6.934   0.474  -3.446
    1   AR   Ar   37   6.116   3.132   2.475
    1   AR   Ar   38   0.122   4.109   2.358
    1   AR   Ar   39   1.472   3.798   2.981
    1   AR   Ar   40   0.987   3.623   1.262
    1   AR   Ar   41   0.095   2.888   3.333
    1   AR   Ar   42   6.339   5.393   5.514
    1   AR   Ar   43   6.585   2.477   5.668
    1   AR   Ar   44   0.811   4.503   3.470
    1   AR   Ar   45   0.772   2.796   5.514
    1   AR   Ar   46   1.215   6.023   6.390
    1   AR   Ar   47   5.501   3.436   7.216
    1   AR   Ar   48   0.462   6.699   6.664
    1   AR   Ar   49   6.198   0.100  -1.706
    1   AR   Ar   50   5.203   4.984   1.865
    1   AR   Ar   51   0.331   5.295   1.886
    1   AR   Ar   52   5.799   5.117  -1.208
    1   AR   Ar   53   5.600   6.373   2.030
    1   AR   Ar   54   6.470   6.170   2.715
    1   AR   Ar   55   5.653   5.433   2.905
    1   AR   Ar   56   0.894   6.846   1.417
    1   AR   Ar   57   5.446   2.940   3.216
    1   AR   Ar   58   7.025   5.269   4.070
    1   AR   Ar   59   1.941   5.188   5.267
    1   AR   Ar   60   0.369   6.500   4.012
    1   AR   Ar   61   6.601   4.471   5.825
    1   AR   Ar   62   0.984   5.430   4.790
    1   AR   Ar   63   2.344   6.147   6.629
    1   AR   Ar   64   1.488   6.752   5.266
    1   AR   Ar   65   3.677   7.095   0.885
    1   AR   Ar   66   1.099   1.254   0.955
    1   AR   Ar   67   3.322   6.185  -0.796
    1   AR   Ar   68   3.056   1.464  -0.986
    1   AR   Ar   69   2.882   1.248   0.777
    1   AR   Ar   70   0.870   0.472   2.514
    1   AR   Ar   71   3.139   1.450   3.530
    1   AR   Ar   72   3.702   0.888   1.950
    1   AR   Ar   73   3.200   6.936   3.707
    1   AR   Ar   74   2.345   1.143   4.916
    1   AR   Ar   75   3.446   1.586   4.953
    1   AR   Ar   76   1.992   0.565   1.650
    1   AR   Ar   77   2.425   6.627   5.734
    1   AR   Ar   78   1.394   6.917   6.914
    1   AR   Ar   79   3.629   6.933   6.789
    1   AR   Ar   80   3.364   5.394   6.090
    1   AR   Ar   81   1.742   1.258   0.070
    1   AR   Ar   82   7.104   5.365  -1.113
    1   AR   Ar   83   1.586   2.290   0.663
    1   AR   Ar   84   0.228   4.049  -0.508
    1   AR   Ar   85   0.753   2.788   0.306
    1   AR   Ar   86   2.265   3.465   0.782
    1   AR   Ar   87   2.356   2.024   1.284
    1   AR   Ar   88   3.147   4.231   2.389
    1   AR   Ar   89   0.150   2.701   2.193
    1   AR   Ar   90   2.794   2.361   5.100
    1   AR   Ar   91   1.087   2.601   3.308
    1   AR   Ar   92   0.986   2.085   2.275
    1   AR   Ar   93   1.931   0.912   6.346
    1   AR   Ar   94   1.553   0.289   9.664
    1   AR   Ar   95   4.157   0.888   6.034
    1   AR   Ar   96   3.253   0.584   5.400
    1   AR   Ar   97   4.393   1.941  -0.639
    1   AR   Ar   98   2.422   4.931   3.056
    1   AR   Ar   99   6.947   2.289  -1.417
    1   AR   Ar  100   2.284   2.179  -0.117
    1   AR   Ar  101   2.496   4.585   1.299
    1   AR   Ar  102   3.427   3.265   3.819
    1   AR   Ar  103   1.471   4.444   0.496
    1   AR   Ar  104   3.015   2.473  -1.446
    1   AR   Ar  105   2.037   3.073   3.768
    1   AR   Ar  106   3.061   3.920   4.708
    1   AR   Ar  107   1.421   3.920   5.595
    1   AR   Ar  108   3.582   2.901   5.432
    1   AR   Ar  109   1.364   3.665   4.613
    1   AR   Ar  110   0.828   4.522   6.407
    1   AR   Ar  111   4.539   3.966   6.951
    1   AR   Ar  112   1.728   5.313   7.113
    1   AR   Ar  113   2.645   4.322   0.023
    1   AR   Ar  114   2.315   4.940  -1.062
    1   AR   Ar  115   2.777   3.733  -1.015
    1   AR   Ar  116   5.347   6.337  -1.536
    1   AR   Ar  117   1.090   5.626   3.821
    1   AR   Ar  118   0.761   6.518   2.887
    1   AR   Ar  119   2.245   3.837   2.076
    1   AR   Ar  120   1.400   5.451   2.706
    1   AR   Ar  121   6.714   4.325   4.302
    1   AR   Ar  122   3.286   5.883   5.182
    1   AR   Ar  123   3.016   4.923   4.668
    1   AR   Ar  124   1.475   4.532   1.752
    1   AR   Ar  125   0.164   3.752   6.104
    1   AR   Ar  126   7.035   7.108   4.874
    1   AR   Ar  127   3.138   3.935   6.805
    1   AR   Ar  128   2.141   5.059   6.242
    1   AR   Ar  129   1.764   0.279   2.887
    1   AR   Ar  130   3.876   1.958  -2.079
    1   AR   Ar  131   4.534   0.407   0.195
    1   AR   Ar  132   1.582   1.686  -1.273
    1   AR   Ar  133   3.957   7.109   2.519
    1   AR   Ar  134   4.852   0.876   4.128
    1   AR   Ar  135   5.334   0.999   2.974
    1   AR   Ar  136   4.962   0.295   2.008
    1   AR   Ar  137   2.491   5.827   4.079
    1   AR   Ar  138   5.041   1.753   4.806
    1   AR   Ar  139   5.364   2.418   5.559
    1   AR   Ar  140   4.062   0.249   4.547
    1   AR   Ar  141   3.771   6.252   4.333
    1   AR   Ar  142   3.848   6.782   5.516
    1   AR   Ar  143   6.113   6.889   5.926
    1   AR   Ar  144   5.221   1.234   5.714
    1   AR   Ar  145   3.638   3.898   0.298
    1   AR   Ar  146   4.469   2.463   1.615
    1   AR   Ar  147   5.778   1.941  -1.978
    1   AR   Ar  148   4.345   4.366  -1.818
    1   AR   Ar  149   3.776   2.033   0.778
    1   AR   Ar  150   1.783   1.425   2.635
    1   AR   Ar  151   2.931   2.523   3.233
    1   AR   Ar  152   3.118   2.788   0.307
    1   AR   Ar  153   3.068   0.726   4.213
    1   AR   Ar  154   4.290   1.799   4.055
    1   AR   Ar  155   6.328   0.710   6.531
    1   AR   Ar  156   4.247   4.311   4.584
    1   AR   Ar  157   2.692   3.098   5.921
    1   AR   Ar  158   1.106   3.432   6.661
    1   AR   Ar  159   4.327   1.911   5.775
    1   AR   Ar  160   2.920   1.798   5.957
    1   AR   Ar  161   5.505   3.182   1.533
    1   AR   Ar  162   4.577   6.062  -0.464
    1   AR   Ar  163   5.744   2.942   0.306
    1   AR   Ar  164   3.581   5.652   1.848
    1   AR   Ar  165   3.371   3.199   1.252
    1   AR   Ar  166   3.162   4.259   3.474
    1   AR   Ar  167   4.351   1.786   2.689
    1   AR   Ar  168   4.536   3.036  -0.838
    1   AR   Ar  169   2.765   2.759   1.980
    1   AR   Ar  170   2.696   4.291   5.828
    1   AR   Ar  171   5.606   4.274   3.714
    1   AR   Ar  172   4.597   5.328   4.428
    1   AR   Ar  173   2.157   3.547   7.296
    1   AR   Ar  174   3.897   4.720   6.738
    1   AR   Ar  175   3.764   3.074   6.437
    1   AR   Ar  176   3.716   4.337   5.546
    1   AR   Ar  177   6.250   4.927   0.117
    1   AR   Ar  178   3.136   5.843   0.311
    1   AR   Ar  179   4.086   6.091   0.825
    1   AR   Ar  180   1.714   2.661  -1.772
    1   AR   Ar  181   0.735   5.756   1.017
    1   AR   Ar  182   2.763   0.416   2.548
    1   AR   Ar  183   3.382   5.172   2.822
    1   AR   Ar  184   4.186   6.468   1.695
    1   AR   Ar  185   1.930   4.982   4.284
    1   AR   Ar  186   3.650   5.209   3.921
    1   AR   Ar  187   3.877   6.190   3.245
    1   AR   Ar  188   3.038   6.913   1.742
    1   AR   Ar  189   2.776   2.438   7.864
    1   AR   Ar  190   5.263   6.642   5.325
    1   AR   Ar  191   4.590   4.810   5.920
    1   AR   Ar  192   4.643   5.878   5.417
    1   AR   Ar  193   1.113   6.393  -0.743
    1   AR   Ar  194   5.188   3.881  -1.304
    1   AR   Ar  195   6.154   0.478  -0.129
    1   AR   Ar  196   5.213   6.977  -0.696
    1   AR   Ar  197   5.395   1.432   0.706
    1   AR   Ar  198   0.092   1.280   1.170
    1   AR   Ar  199   5.152   1.505   1.858
    1   AR   Ar  200   6.368   2.063   0.112
    1   AR   Ar  201   4.911   7.047   3.592
    1   AR   Ar  202   5.510   2.644   4.396
    1   AR   Ar  203   6.193   6.309   4.918
    1   AR   Ar  204   5.660   0.001   4.399
    1   AR   Ar  205   5.872   7.073   2.774
    1   AR   Ar  206   4.895   0.496   5.130
    1   AR   Ar  207   0.405   0.267   5.764
    1   AR   Ar  208   6.790   7.025   3.330
    1   AR   Ar  209   5.593   3.109  -2.553
    1   AR   Ar  210   4.379   1.104   1.135
    1   AR   Ar  211   6.904   3.252   0.325
    1   AR   Ar  212   6.323   3.929  -1.216
    1   AR   Ar  213   3.333   1.887   1.944
    1   AR   Ar  214   3.899   3.187   2.788
    1   AR   Ar  215   6.351   2.264   1.206
    1   AR   Ar  216   0.133   4.032   0.909
    1   AR   Ar  217   4.648   2.967   3.802
    1   AR   Ar  218   4.547   3.081   5.083
    1   AR   Ar  219   5.256   2.007   3.466
    1   AR   Ar  220   4.871   3.555   2.519
    1   AR   Ar  221   6.154   0.606   5.234
    1   AR   Ar  222   4.847   2.025   6.698
    1   AR   Ar  223   0.678   1.069   6.898
    1   AR   Ar  224   4.867   3.255   6.203
    1   AR   Ar  225   6.067   4.248   1.406
    1   AR   Ar  226   4.259   4.622   2.519
    1   AR   Ar  227   0.243   4.950   0.461
    1   AR   Ar  228   5.101   6.520   1.052
    1   AR   Ar  229   5.668   4.038  -0.347
    1   AR   Ar  230   4.229   4.105   3.437
    1   AR   Ar  231   6.254   1.713   3.273
    1   AR   Ar  232   4.622   2.888   0.645
    1   AR   Ar  233   6.415   2.666   3.843
    1   AR   Ar  234   6.668   3.162   4.821
    1   AR   Ar  235   0.334   2.309   4.132
    1   AR   Ar  236   5.351   4.981   5.233
    1   AR   Ar  237   5.832   3.916   4.993
    1   AR   Ar  238   4.774   3.984   5.435
    1   AR   Ar  239   6.911   4.137   9.531
    1   AR   Ar  240   6.279   3.389   5.834
    1   AR   Ar  241   0.136   6.996  -0.720
    1   AR   Ar  242   5.158   4.899   0.228
    1   AR   Ar  243   5.635   4.281   2.512
    1   AR   Ar  244   1.195   5.248  -0.389
    1   AR   Ar  245   5.815   0.111   0.960
    1   AR   Ar  246   6.508   6.094   1.655
    1   AR   Ar  247   4.719   4.171   0.788
    1   AR   Ar  248   5.782   5.875  -0.098
    1   AR   Ar  249   4.440   5.580   2.502
    1   AR   Ar  250   4.707   6.512   4.483
    1   AR   Ar  251   5.799   5.184   4.067
    1   AR   Ar  252   4.971   6.050   3.493
    1   AR   Ar  253   5.677   4.102   6.220
    1   AR   Ar  254   3.827   5.476   7.698
    1   AR   Ar  255   4.696   2.673   7.468
    1   AR   Ar  256   6.057   6.327   3.660
    7.12000  7.12000 12.00000
Argon-slab step 2530
  256
    1   AR   Ar    1   6.689   1.310  -0.667
    1   AR   Ar    2   7.120   7.073   0.700
    1   AR   Ar    3   1.250   0.296   0.416
    1   AR   Ar    4   1.786   0.338  -0.460
    1   AR   Ar    5   6.792   6.206   0.343
    1   AR   Ar    6   6.783   0.756   2.839
    1   AR   Ar    7   6.599   4.580   3.202
    1   AR   Ar    8   6.745   0.067   1.975
    1   AR   Ar    9   0.593   0.371   3.548
    1   AR   Ar   10   1.190   1.593   4.209
    1   AR   Ar   11   2.680   6.782   4.729
    1   AR   Ar   12   0.775   1.352   2.937
    1   AR   Ar   13   6.742   1.782   4.887
    1   AR   Ar   14   1.621   1.407   7.473
    1   AR   Ar   15   6.188   0.241   9.512
    1   AR   Ar   16   1.088   0.561   4.693
    1   AR   Ar   17   0.414   1.786  -0.164
    1   AR   Ar   18   6.265   3.100  -0.658
    1   AR   Ar   19   1.643   2.822   1.559
    1   AR   Ar   20   5.475   4.293  -2.210
    1   AR   Ar   21   6.004   0.830   2.111
    1   AR   Ar   22   6.769   1.617   2.147
    1   AR   Ar   23   0.280   0.847   0.122
    1   AR   Ar   24   0.475   2.384   1.242
    1   AR   Ar   25   0.099   1.343   3.749
    1   AR   Ar   26   5.904   1.016   4.041
    1   AR   Ar   27   2.200   1.712   3.874
    1   AR   Ar   28   1.464   2.563   4.577
    1   AR   Ar   29   5.798   2.425   6.863
    1   AR   Ar   30   1.096   1.723   5.993
    1   AR   Ar   31   1.138   6.024   7.686
    1   AR   Ar   32   1.709   2.695   6.215
    1   AR   Ar   33   1.428   3.699  -0.370
    1   AR   Ar   34   0.179   5.438   3.062
    1   AR   Ar   35   6.406   5.154   2.272
    1   AR   Ar   36   6.948   0.480  -3.425
    1   AR   Ar   37   6.147   3.101   2.479
    1   AR   Ar   38   0.112   4.093   2.345
    1   AR   Ar   39   1.478   3.778   3.005
    1   AR   Ar   40   0.959   3.639   1.256
    1   AR   Ar   41   0.078   2.921   3.333
    1   AR   Ar   42   6.317   5.430   5.515
    1   AR   Ar   43   6.566   2.458   5.705
    1   AR   Ar   44   0.839   4.467   3.463
    1   AR   Ar   45   0.789   2.780   5.510
    1   AR   Ar   46   1.211   6.023   6.404
    1   AR   Ar   47   5.527   3.454   7.214
    1   AR   Ar   48   0.456   6.723   6.662
    1   AR   Ar   49   6.244   0.084  -1.729
    1   AR   Ar   50   5.221   5.018   1.829
    1   AR   Ar   51   0.342   5.295   1.895
    1   AR   Ar   52   5.812   5.091  -1.213
    1   AR   Ar   53   5.575   6.370   2.042
    1   AR   Ar   54   6.478   6.166   2.723
    1   AR   Ar   55   5.671   5.389   2.904
    1   AR   Ar   56   0.922   6.851   1.372
    1   AR   Ar   57   5.417   2.932   3.218
    1   AR   Ar   58   7.007   5.269   4.060
    1   AR   Ar   59   1.933   5.198   5.268
    1   AR   Ar   60   0.380   6.526   4.000
    1   AR   Ar   61   6.580   4.486   5.830
    1   AR   Ar   62   0.986   5.429   4.794
    1   AR   Ar   63   2.330   6.150   6.637
    1   AR   Ar   64   1.506   6.742   5.260
    1   AR   Ar   65   3.670   7.110   0.872
    1   AR   Ar   66   1.093   1.247   0.914
    1   AR   Ar   67   3.301   6.201  -0.763
    1   AR   Ar   68   3.056   1.476  -1.017
    1   AR   Ar   69   2.884   1.264   0.774
    1   AR   Ar   70   0.864   0.454   2.527
    1   AR   Ar   71   3.166   1.470   3.549
    1   AR   Ar   72   3.744   0.885   1.940
    1   AR   Ar   73   3.203   6.917   3.710
    1   AR   Ar   74   2.349   1.174   4.933
    1   AR   Ar   75   3.465   1.622   4.944
    1   AR   Ar   76   1.979   0.523   1.624
    1   AR   Ar   77   2.413   6.636   5.733
    1   AR   Ar   78   1.398   6.929   6.958
    1   AR   Ar   79   3.597   6.912   6.793
    1   AR   Ar   80   3.397   5.384   6.073
    1   AR   Ar   81   1.727   1.223   0.119
    1   AR   Ar   82   7.104   5.393  -1.108
    1   AR   Ar   83   1.569   2.286   0.660
    1   AR   Ar   84   0.247   4.036  -0.480
    1   AR   Ar   85   0.724   2.803   0.314
    1   AR   Ar   86   2.271   3.469   0.756
    1   AR   Ar   87   2.350   2.021   1.323
    1   AR   Ar   88   3.138   4.180   2.398
    1   AR   Ar   89   0.153   2.714   2.187
    1   AR   Ar   90   2.762   2.387   5.103
    1   AR   Ar   91   1.109   2.580   3.342
    1   AR   Ar   92   1.000   2.081   2.287
    1   AR   Ar   93   1.925   0.906   6.344
    1   AR   Ar   94   1.522   0.270   9.679
    1   AR   Ar   95   4.134   0.875   6.045
    1   AR   Ar   96   3.259   0.559   5.406
    1   AR   Ar   97   4.424   1.897  -0.613
    1   AR   Ar   98   2.407   4.943   3.048
    1   AR   Ar   99   6.927   2.334  -1.406
    1   AR   Ar  100   2.281   2.159  -0.094
    1   AR   Ar  101   2.482   4.572   1.283
    1   AR   Ar  102   3.407   3.280   3.857
    1   AR   Ar  103   1.484   4.436   0.476
    1   AR   Ar  104   3.042   2.449  -1.472
    1   AR   Ar  105   2.053   3.097   3.748
    1   AR   Ar  106   3.073   3.924   4.686
    1   AR   Ar  107   1.448   3.931   5.592
    1   AR   Ar  108   3.573   2.866   5.434
    1   AR   Ar  109   1.374   3.648   4.575
    1   AR   Ar  110   0.846   4.546   6.390
    1   AR   Ar  111   4.576   3.959   6.974
    1   AR   Ar  112   1.718   5.323   7.114
    1   AR   Ar  113   2.652   4.328   0.040
    1   AR   Ar  114   2.312   4.935  -1.038
    1   AR   Ar  115   2.777   3.740  -1.009
    1   AR   Ar  116   5.321   6.343  -1.519
    1   AR   Ar  117   1.057   5.625   3.817
    1   AR   Ar  118   0.766   6.509   2.915
    1   AR   Ar  119   2.264   3.850   2.055
    1   AR   Ar  120   1.437   5.461   2.692
    1   AR   Ar  121   6.678   4.320   4.318
    1   AR   Ar  122   3.259   5.895   5.189
    1   AR   Ar  123   3.008   4.886   4.646
    1   AR   Ar  124   1.520   4.554   1.756
    1   AR   Ar  125   0.153   3.737   6.095
    1   AR   Ar  126   7.027   7.087   4.899
    1   AR   Ar  127   3.137   3.892   6.769
    1   AR   Ar  128   2.160   5.072   6.242
    1   AR   Ar  129   1.803   0.257   2.887
    1   AR   Ar  130   3.866   1.962  -2.049
    1   AR   Ar  131   4.505   0.401   0.185
    1   AR   Ar  132   1.568   1.678  -1.259
    1   AR   Ar  133   3.970   7.119   2.537
    1   AR   Ar  134   4.833   0.897   4.122
    1   AR   Ar  135   5.319   0.971   2.989
    1   AR   Ar  136   4.978   0.275   2.006
    1   AR   Ar  137   2.495   5.827   4.081
    1   AR   Ar  138   5.026   1.767   4.810
    1   AR   Ar  139   5.347   2.437   5.576
    1   AR   Ar  140   4.048   0.237   4.528
    1   AR   Ar  141   3.770   6.285   4.332
    1   AR   Ar  142   3.911   6.788   5.548
    1   AR   Ar  143   6.114   6.887   5.927
    1   AR   Ar  144   5.228   1.241   5.709
    1   AR   Ar  145   3.649   3.915   0.272
    1   AR   Ar  146   4.484   2.455   1.625
    1   AR   Ar  147   5.765   1.933  -2.007
    1   AR   Ar  148   4.361   4.336  -1.812
    1   AR   Ar  149   3.779   2.060   0.776
    1   AR   Ar  150   1.776   1.463   2.611
    1   AR   Ar  151   2.921   2.521   3.236
    1   AR   Ar  152   3.141   2.783   0.289
    1   AR   Ar  153   3.054   0.760   4.248
    1   AR   Ar  154   4.311   1.795   4.096
    1   AR   Ar  155   6.314   0.687   6.563
    1   AR   Ar  156   4.246   4.317   4.588
    1   AR   Ar  157   2.680   3.098   5.953
    1   AR   Ar  158   1.108   3.434   6.675
    1   AR   Ar  159   4.365   1.876   5.780
    1   AR   Ar  160   2.934   1.824   5.940
    1   AR   Ar  161   5.475   3.192   1.523
    1   AR   Ar  162   4.591   6.064  -0.489
    1   AR   Ar  163   5.728   2.987   0.301
    1   AR   Ar  164   3.553   5.645   1.838
    1   AR   Ar  165   3.373   3.218   1.240
    1   AR   Ar  166   3.155   4.227   3.453
    1   AR   Ar  167   4.389   1.761   2.684
    1   AR   Ar  168   4.507   3.045  -0.836
    1   AR   Ar  169   2.788   2.766   2.002
    1   AR   Ar  170   2.677   4.286   5.812
    1   AR   Ar  171   5.612   4.255   3.697
    1   AR   Ar  172   4.599   5.321   4.429
    1   AR   Ar  173   2.144   3.516   7.294
    1   AR   Ar  174   3.854   4.753   6.758
    1   AR   Ar  175   3.754   3.058   6.425
    1   AR   Ar  176   3.710   4.299   5.541
    1   AR   Ar  177   6.247   4.908   0.110
    1   AR   Ar  178   3.158   5.872   0.318
    1   AR   Ar  179   4.114   6.078   0.782
    1   AR   Ar  180   1.707   2.644  -1.781
    1   AR   Ar  181   0.716   5.762   1.011
    1   AR   Ar  182   2.766   0.431   2.557
    1   AR   Ar  183   3.388   5.199   2.850
    1   AR   Ar  184   4.169   6.467   1.692
    1   AR   Ar  185   1.907   4.938   4.256
    1   AR   Ar  186   3.659   5.206   3.939
    1   AR   Ar  187   3.878   6.212   3.211
    1   AR   Ar  188   3.031   6.920   1.743
    1   AR   Ar  189   2.793   2.415   7.833
    1   AR   Ar  190   5.294   6.623   5.312
    1   AR   Ar  191   4.550   4.828   5.930
    1   AR   Ar  192   4.659   5.878   5.406
    1   AR   Ar  193   1.098   6.367  -0.715
    1   AR   Ar  194   5.212   3.899  -1.330
    1   AR   Ar  195   6.134   0.511  -0.127
    1   AR   Ar  196   5.241   6.998  -0.702
    1   AR   Ar  197   5.416   1.425   0.709
    1   AR   Ar  198   0.070   1.239   1.158
    1   AR   Ar  199   5.106   1.509   1.857
    1   AR   Ar  200   6.342   2.041   0.093
    1   AR   Ar  201   4.920   7.049   3.576
    1   AR   Ar  202   5.534   2.673   4.371
    1   AR   Ar  203   6.155   6.297   4.905
    1   AR   Ar  204   5.669   0.017   4.410
    1   AR   Ar  205   5.882   7.075   2.761
    1   AR   Ar  206   4.904   0.516   5.143
    1   AR   Ar  207   0.407   0.283   5.767
    1   AR   Ar  208   6.812   7.035   3.305
    1   AR   Ar  209   5.603   3.108  -2.508
    1   AR   Ar  210   4.382   1.128   1.145
    1   AR   Ar  211   6.870   3.242   0.319
    1   AR   Ar  212   6.325   3.962  -1.237
    1   AR   Ar  213   3.333   1.887   1.920
    1   AR   Ar  214   3.891   3.217   2.801
    1   AR   Ar  215   6.307   2.281   1.230
    1   AR   Ar  216   0.125   4.040   0.909
    1   AR   Ar  217   4.631   2.946   3.813
    1   AR   Ar  218   4.545   3.071   5.078
    1   AR   Ar  219   5.275   1.976   3.450
    1   AR   Ar  220   4.882   3.571   2.518
    1   AR   Ar  221   6.143   0.596   5.258
    1   AR   Ar  222   4.854   1.993   6.678
    1   AR   Ar  223   0.673   1.083   6.922
    1   AR   Ar  224   4.860   3.260   6.218
    1   AR   Ar  225   6.056   4.265   1.419
    1   AR   Ar  226   4.244   4.595   2.516
    1   AR   Ar  227   0.248   4.968   0.449
    1   AR   Ar  228   5.103   6.534   1.029
    1   AR   Ar  229   5.648   4.031  -0.364
    1   AR   Ar  230   4.233   4.045   3.416
    1   AR   Ar  231   6.246   1.709   3.263
    1   AR   Ar  232   4.582   2.892   0.635
    1   AR   Ar  233   6.442   2.659   3.839
    1   AR   Ar  234   6.663   3.164   4.820
    1   AR   Ar  235   0.352   2.305   4.125
    1   AR   Ar  236   5.353   4.987   5.253
    1   AR   Ar  237   5.812   3.923   4.994
    1   AR   Ar  238   4.792   3.989   5.428
    1   AR   Ar  239   6.909   4.118   9.536
    1   AR   Ar  240   6.276   3.415   5.831
    1   AR   Ar  241   0.125   6.998  -0.785
    1   AR   Ar  242   5.187   4.881   0.241
    1   AR   Ar  243   5.643   4.289   2.501
    1   AR   Ar  244   1.176   5.245  -0.392
    1   AR   Ar  245   5.818   0.119   0.961
    1   AR   Ar  246   6.516   6.102   1.633
    1   AR   Ar  247   4.717   4.145   0.802
    1   AR   Ar  248   5.772   5.884  -0.086
    1   AR   Ar  249   4.427   5.588   2.543
    1   AR   Ar  250   4.700   6.484   4.469
    1   AR   Ar  251   5.776   5.228   4.055
    1   AR   Ar  252   5.008   6.067   3.515
    1   AR   Ar  253   5.703   4.087   6.230
    1   AR   Ar  254   3.803   5.484   7.728
    1   AR   Ar  255   4.680   2.669   7.483
    1   AR   Ar  256   6.054   6.313   3.686
    7.12000  7.12000 12.00000
Argon-slab step 2535
  256
    1   AR   Ar    1   6.691   1.314  -0.646
    1   AR   Ar    2   7.099   7.100   0.688
    1   AR   Ar    3   1.264   0.304   0.408
    1   AR   Ar    4   1.772   0.345  -0.451
    1   AR   Ar    5   6.801   6.205   0.348
    1   AR   Ar    6   6.785   0.783   2.827
    1   AR   Ar    7   6.576   4.534   3.216
    1   AR   Ar    8   6.751   0.090   1.995
    1   AR   Ar    9   0.627   0.392   3.515
    1   AR   Ar   10   1.216   1.599   4.217
    1   AR   Ar   11   2.661   6.767   4.706
    1   AR   Ar   12   0.752   1.345   2.897
    1   AR   Ar   13   6.720   1.779   4.912
    1   AR   Ar   14   1.623   1.415   7.497
    1   AR   Ar   15   6.175   0.225   9.532
    1   AR   Ar   16   1.083   0.549   4.670
    1   AR   Ar   17   0.403   1.789  -0.151
    1   AR   Ar   18   6.272   3.084  -0.666
    1   AR   Ar   19   1.636   2.843   1.562
    1   AR   Ar   20   5.467   4.311  -2.185
    1   AR   Ar   21   6.021   0.820   2.121
    1   AR   Ar   22   6.773   1.642   2.137
    1   AR   Ar   23   0.261   0.835   0.120
    1   AR   Ar   24   0.502   2.391   1.212
    1   AR   Ar   25   0.070   1.340   3.749
    1   AR   Ar   26   5.912   1.006   4.074
    1   AR   Ar   27   2.188   1.733   3.853
    1   AR   Ar   28   1.467   2.553   4.561
    1   AR   Ar   29   5.785   2.449   6.833
    1   AR   Ar   30   1.145   1.718   5.969
    1   AR   Ar   31   1.125   6.061   7.696
    1   AR   Ar   32   1.728   2.716   6.179
    1   AR   Ar   33   1.399   3.678  -0.379
    1   AR   Ar   34   0.201   5.445   3.074
    1   AR   Ar   35   6.438   5.141   2.241
    1   AR   Ar   36   6.962   0.485  -3.404
    1   AR   Ar   37   6.181   3.070   2.480
    1   AR   Ar   38   0.102   4.078   2.332
    1   AR   Ar   39   1.487   3.755   3.027
    1   AR   Ar   40   0.942   3.650   1.253
    1   AR   Ar   41   0.075   2.962   3.316
    1   AR   Ar   42   6.294   5.471   5.515
    1   AR   Ar   43   6.548   2.433   5.743
    1   AR   Ar   44   0.864   4.435   3.458
    1   AR   Ar   45   0.807   2.765   5.507
    1   AR   Ar   46   1.210   6.020   6.417
    1   AR   Ar   47   5.553   3.472   7.211
    1   AR   Ar   48   0.441   6.747   6.657
    1   AR   Ar   49   6.290   0.068  -1.751
    1   AR   Ar   50   5.239   5.053   1.793
    1   AR   Ar   51   0.352   5.294   1.908
    1   AR   Ar   52   5.824   5.064  -1.217
    1   AR   Ar   53   5.546   6.366   2.054
    1   AR   Ar   54   6.480   6.187   2.736
    1   AR   Ar   55   5.682   5.347   2.909
    1   AR   Ar   56   0.948   6.856   1.326
    1   AR   Ar   57   5.397   2.932   3.213
    1   AR   Ar   58   6.990   5.273   4.052
    1   AR   Ar   59   1.923   5.209   5.261
    1   AR   Ar   60   0.390   6.549   3.990
    1   AR   Ar   61   6.561   4.499   5.833
    1   AR   Ar   62   0.987   5.427   4.806
    1   AR   Ar   63   2.316   6.151   6.649
    1   AR   Ar   64   1.518   6.733   5.251
    1   AR   Ar   65   3.664   0.005   0.859
    1   AR   Ar   66   1.084   1.242   0.879
    1   AR   Ar   67   3.286   6.200  -0.780
    1   AR   Ar   68   3.055   1.487  -1.046
    1   AR   Ar   69   2.886   1.280   0.771
    1   AR   Ar   70   0.850   0.423   2.538
    1   AR   Ar   71   3.198   1.495   3.562
    1   AR   Ar   72   3.784   0.880   1.933
    1   AR   Ar   73   3.205   6.901   3.712
    1   AR   Ar   74   2.352   1.206   4.952
    1   AR   Ar   75   3.487   1.655   4.935
    1   AR   Ar   76   1.966   0.482   1.598
    1   AR   Ar   77   2.406   6.646   5.733
    1   AR   Ar   78   1.412   6.944   7.004
    1   AR   Ar   79   3.600   6.909   6.796
    1   AR   Ar   80   3.427   5.374   6.058
    1   AR   Ar   81   1.717   1.193   0.164
    1   AR   Ar   82   7.104   5.421  -1.101
    1   AR   Ar   83   1.548   2.279   0.656
    1   AR   Ar   84   0.226   4.016  -0.495
    1   AR   Ar   85   0.695   2.820   0.317
    1   AR   Ar   86   2.276   3.474   0.730
    1   AR   Ar   87   2.347   2.017   1.363
    1   AR   Ar   88   3.139   4.133   2.408
    1   AR   Ar   89   0.152   2.729   2.184
    1   AR   Ar   90   2.719   2.414   5.097
    1   AR   Ar   91   1.133   2.557   3.375
    1   AR   Ar   92   1.015   2.086   2.292
    1   AR   Ar   93   1.917   0.901   6.342
    1   AR   Ar   94   1.491   0.251   9.695
    1   AR   Ar   95   4.110   0.859   6.055
    1   AR   Ar   96   3.264   0.534   5.410
    1   AR   Ar   97   4.455   1.854  -0.586
    1   AR   Ar   98   2.386   4.954   3.042
    1   AR   Ar   99   6.906   2.377  -1.394
    1   AR   Ar  100   2.281   2.138  -0.073
    1   AR   Ar  101   2.470   4.557   1.264
    1   AR   Ar  102   3.388   3.297   3.829
    1   AR   Ar  103   1.497   4.428   0.457
    1   AR   Ar  104   3.068   2.427  -1.498
    1   AR   Ar  105   2.070   3.121   3.728
    1   AR   Ar  106   3.091   3.924   4.672
    1   AR   Ar  107   1.476   3.942   5.593
    1   AR   Ar  108   3.570   2.833   5.433
    1   AR   Ar  109   1.385   3.631   4.534
    1   AR   Ar  110   0.866   4.571   6.372
    1   AR   Ar  111   4.613   3.952   6.998
    1   AR   Ar  112   1.705   5.334   7.120
    1   AR   Ar  113   2.656   4.333   0.057
    1   AR   Ar  114   2.308   4.930  -1.012
    1   AR   Ar  115   2.776   3.746  -1.002
    1   AR   Ar  116   5.296   6.346  -1.504
    1   AR   Ar  117   1.023   5.626   3.803
    1   AR   Ar  118   0.770   6.499   2.943
    1   AR   Ar  119   2.282   3.829   2.025
    1   AR   Ar  120   1.472   5.470   2.679
    1   AR   Ar  121   6.639   4.310   4.334
    1   AR   Ar  122   3.231   5.909   5.193
    1   AR   Ar  123   2.994   4.866   4.628
    1   AR   Ar  124   1.560   4.576   1.760
    1   AR   Ar  125   0.146   3.720   6.086
    1   AR   Ar  126   7.016   7.065   4.920
    1   AR   Ar  127   3.134   3.849   6.731
    1   AR   Ar  128   2.182   5.086   6.244
    1   AR   Ar  129   1.841   0.233   2.891
    1   AR   Ar  130   3.856   1.966  -2.019
    1   AR   Ar  131   4.473   0.390   0.175
    1   AR   Ar  132   1.552   1.673  -1.248
    1   AR   Ar  133   3.982   0.009   2.556
    1   AR   Ar  134   4.815   0.915   4.114
    1   AR   Ar  135   5.304   0.941   3.005
    1   AR   Ar  136   4.993   0.256   2.004
    1   AR   Ar  137   2.511   5.819   4.095
    1   AR   Ar  138   5.015   1.780   4.814
    1   AR   Ar  139   5.332   2.458   5.595
    1   AR   Ar  140   4.030   0.224   4.508
    1   AR   Ar  141   3.754   6.312   4.330
    1   AR   Ar  142   3.975   6.794   5.577
    1   AR   Ar  143   6.118   6.884   5.929
    1   AR   Ar  144   5.243   1.257   5.715
    1   AR   Ar  145   3.647   3.916   0.279
    1   AR   Ar  146   4.498   2.446   1.637
    1   AR   Ar  147   5.752   1.927  -2.036
    1   AR   Ar  148   4.375   4.307  -1.806
    1   AR   Ar  149   3.782   2.085   0.776
    1   AR   Ar  150   1.775   1.497   2.589
    1   AR   Ar  151   2.910   2.519   3.237
    1   AR   Ar  152   3.163   2.780   0.270
    1   AR   Ar  153   3.041   0.788   4.290
    1   AR   Ar  154   4.297   1.789   4.122
    1   AR   Ar  155   6.300   0.663   6.594
    1   AR   Ar  156   4.242   4.322   4.588
    1   AR   Ar  157   2.668   3.102   5.986
    1   AR   Ar  158   1.110   3.439   6.687
    1   AR   Ar  159   4.399   1.845   5.777
    1   AR   Ar  160   2.949   1.847   5.926
    1   AR   Ar  161   5.446   3.203   1.514
    1   AR   Ar  162   4.601   6.062  -0.508
    1   AR   Ar  163   5.712   3.033   0.297
    1   AR   Ar  164   3.522   5.634   1.828
    1   AR   Ar  165   3.378   3.239   1.226
    1   AR   Ar  166   3.147   4.198   3.434
    1   AR   Ar  167   4.426   1.736   2.680
    1   AR   Ar  168   4.479   3.054  -0.833
    1   AR   Ar  169   2.807   2.778   2.026
    1   AR   Ar  170   2.669   4.310   5.785
    1   AR   Ar  171   5.616   4.231   3.677
    1   AR   Ar  172   4.603   5.317   4.431
    1   AR   Ar  173   2.137   3.507   7.274
    1   AR   Ar  174   3.811   4.783   6.781
    1   AR   Ar  175   3.747   3.043   6.417
    1   AR   Ar  176   3.703   4.261   5.537
    1   AR   Ar  177   6.246   4.888   0.103
    1   AR   Ar  178   3.179   5.901   0.325
    1   AR   Ar  179   4.142   6.060   0.729
    1   AR   Ar  180   1.700   2.628  -1.790
    1   AR   Ar  181   0.697   5.771   1.004
    1   AR   Ar  182   2.773   0.450   2.565
    1   AR   Ar  183   3.399   5.227   2.878
    1   AR   Ar  184   4.156   6.473   1.698
    1   AR   Ar  185   1.882   4.891   4.224
    1   AR   Ar  186   3.671   5.204   3.951
    1   AR   Ar  187   3.878   6.247   3.171
    1   AR   Ar  188   3.026   6.925   1.743
    1   AR   Ar  189   2.810   2.394   7.802
    1   AR   Ar  190   5.326   6.615   5.304
    1   AR   Ar  191   4.509   4.854   5.945
    1   AR   Ar  192   4.666   5.867   5.395
    1   AR   Ar  193   1.083   6.342  -0.687
    1   AR   Ar  194   5.234   3.911  -1.347
    1   AR   Ar  195   6.114   0.542  -0.125
    1   AR   Ar  196   5.266   7.012  -0.700
    1   AR   Ar  197   5.431   1.444   0.704
    1   AR   Ar  198   0.045   1.198   1.147
    1   AR   Ar  199   5.062   1.513   1.858
    1   AR   Ar  200   6.317   2.020   0.074
    1   AR   Ar  201   4.920   7.062   3.571
    1   AR   Ar  202   5.554   2.701   4.349
    1   AR   Ar  203   6.123   6.284   4.893
    1   AR   Ar  204   5.669   0.027   4.413
    1   AR   Ar  205   5.890   7.080   2.752
    1   AR   Ar  206   4.912   0.528   5.148
    1   AR   Ar  207   0.410   0.301   5.772
    1   AR   Ar  208   6.834   7.028   3.288
    1   AR   Ar  209   5.613   3.108  -2.461
    1   AR   Ar  210   4.386   1.153   1.152
    1   AR   Ar  211   6.833   3.230   0.311
    1   AR   Ar  212   6.292   3.966  -1.238
    1   AR   Ar  213   3.339   1.905   1.898
    1   AR   Ar  214   3.880   3.245   2.813
    1   AR   Ar  215   6.263   2.298   1.253
    1   AR   Ar  216   0.108   4.053   0.907
    1   AR   Ar  217   4.602   2.925   3.831
    1   AR   Ar  218   4.546   3.055   5.068
    1   AR   Ar  219   5.285   1.937   3.439
    1   AR   Ar  220   4.890   3.585   2.516
    1   AR   Ar  221   6.129   0.588   5.286
    1   AR   Ar  222   4.862   1.959   6.658
    1   AR   Ar  223   0.669   1.095   6.943
    1   AR   Ar  224   4.855   3.262   6.232
    1   AR   Ar  225   6.045   4.283   1.433
    1   AR   Ar  226   4.228   4.561   2.509
    1   AR   Ar  227   0.252   4.981   0.439
    1   AR   Ar  228   5.128   6.529   1.025
    1   AR   Ar  229   5.630   4.024  -0.378
    1   AR   Ar  230   4.239   3.984   3.400
    1   AR   Ar  231   6.245   1.704   3.250
    1   AR   Ar  232   4.542   2.897   0.624
    1   AR   Ar  233   6.430   2.671   3.845
    1   AR   Ar  234   6.665   3.123   4.815
    1   AR   Ar  235   0.371   2.300   4.123
    1   AR   Ar  236   5.356   4.993   5.269
    1   AR   Ar  237   5.792   3.931   4.994
    1   AR   Ar  238   4.816   3.995   5.421
    1   AR   Ar  239   6.900   4.099   9.541
    1   AR   Ar  240   6.277   3.436   5.824
    1   AR   Ar  241   0.113   7.000  -0.849
    1   AR   Ar  242   5.218   4.868   0.252
    1   AR   Ar  243   5.655   4.299   2.491
    1   AR   Ar  244   1.160   5.257  -0.387
    1   AR   Ar  245   5.811   0.120   0.960
    1   AR   Ar  246   6.528   6.111   1.609
    1   AR   Ar  247   4.714   4.114   0.818
    1   AR   Ar  248   5.762   5.893  -0.074
    1   AR   Ar  249   4.417   5.602   2.582
    1   AR   Ar  250   4.709   6.459   4.456
    1   AR   Ar  251   5.754   5.276   4.044
    1   AR   Ar  252   5.045   6.071   3.535
    1   AR   Ar  253   5.712   4.081   6.248
    1   AR   Ar  254   3.778   5.492   7.757
    1   AR   Ar  255   4.645   2.658   7.487
    1   AR   Ar  256   6.050   6.300   3.715
    7.12000  7.12000 12.00000
Argon-slab step 2540
  256
    1   AR   Ar    1   6.694   1.316  -0.627
    1   AR   Ar    2   7.080   0.013   0.681
    1   AR   Ar    3   1.269   0.305   0.409
    1   AR   Ar    4   1.761   0.349  -0.453
    1   AR   Ar    5   6.808   6.194   0.350
    1   AR   Ar    6   6.790   0.820   2.814
    1   AR   Ar    7   6.552   4.489   3.229
    1   AR   Ar    8   6.759   0.107   2.014
    1   AR   Ar    9   0.644   0.409   3.502
    1   AR   Ar   10   1.238   1.600   4.225
    1   AR   Ar   11   2.644   6.752   4.682
    1   AR   Ar   12   0.724   1.339   2.868
    1   AR   Ar   13   6.698   1.774   4.933
    1   AR   Ar   14   1.625   1.422   7.519
    1   AR   Ar   15   6.183   0.209   9.550
    1   AR   Ar   16   1.076   0.537   4.646
    1   AR   Ar   17   0.410   1.800  -0.142
    1   AR   Ar   18   6.280   3.065  -0.672
    1   AR   Ar   19   1.629   2.866   1.567
    1   AR   Ar   20   5.465   4.338  -2.175
    1   AR   Ar   21   6.031   0.814   2.127
    1   AR   Ar   22   6.777   1.670   2.127
    1   AR   Ar   23   0.243   0.817   0.120
    1   AR   Ar   24   0.530   2.394   1.187
    1   AR   Ar   25   0.040   1.336   3.749
    1   AR   Ar   26   5.922   0.998   4.106
    1   AR   Ar   27   2.178   1.756   3.833
    1   AR   Ar   28   1.474   2.543   4.546
    1   AR   Ar   29   5.774   2.475   6.801
    1   AR   Ar   30   1.196   1.713   5.945
    1   AR   Ar   31   1.111   6.099   7.704
    1   AR   Ar   32   1.743   2.734   6.141
    1   AR   Ar   33   1.370   3.657  -0.387
    1   AR   Ar   34   0.223   5.453   3.081
    1   AR   Ar   35   6.473   5.127   2.207
    1   AR   Ar   36   6.976   0.491  -3.383
    1   AR   Ar   37   6.216   3.040   2.481
    1   AR   Ar   38   0.092   4.064   2.320
    1   AR   Ar   39   1.501   3.727   3.045
    1   AR   Ar   40   0.934   3.656   1.254
    1   AR   Ar   41   0.084   3.009   3.289
    1   AR   Ar   42   6.271   5.512   5.516
    1   AR   Ar   43   6.530   2.405   5.781
    1   AR   Ar   44   0.883   4.410   3.455
    1   AR   Ar   45   0.825   2.751   5.503
    1   AR   Ar   46   1.210   6.016   6.427
    1   AR   Ar   47   5.579   3.488   7.207
    1   AR   Ar   48   0.422   6.771   6.653
    1   AR   Ar   49   6.335   0.052  -1.772
    1   AR   Ar   50   5.257   5.090   1.759
    1   AR   Ar   51   0.362   5.291   1.922
    1   AR   Ar   52   5.836   5.035  -1.219
    1   AR   Ar   53   5.516   6.359   2.065
    1   AR   Ar   54   6.483   6.203   2.746
    1   AR   Ar   55   5.688   5.306   2.918
    1   AR   Ar   56   0.973   6.862   1.281
    1   AR   Ar   57   5.386   2.938   3.206
    1   AR   Ar   58   6.972   5.281   4.045
    1   AR   Ar   59   1.915   5.221   5.250
    1   AR   Ar   60   0.400   6.570   3.981
    1   AR   Ar   61   6.545   4.512   5.833
    1   AR   Ar   62   0.986   5.424   4.822
    1   AR   Ar   63   2.301   6.149   6.663
    1   AR   Ar   64   1.525   6.723   5.239
    1   AR   Ar   65   3.660   0.020   0.847
    1   AR   Ar   66   1.098   1.250   0.889
    1   AR   Ar   67   3.271   6.198  -0.797
    1   AR   Ar   68   3.055   1.496  -1.074
    1   AR   Ar   69   2.889   1.296   0.769
    1   AR   Ar   70   0.836   0.383   2.536
    1   AR   Ar   71   3.233   1.524   3.570
    1   AR   Ar   72   3.821   0.873   1.929
    1   AR   Ar   73   3.202   6.891   3.711
    1   AR   Ar   74   2.354   1.242   4.973
    1   AR   Ar   75   3.510   1.686   4.925
    1   AR   Ar   76   1.952   0.441   1.573
    1   AR   Ar   77   2.407   6.656   5.735
    1   AR   Ar   78   1.429   6.961   7.051
    1   AR   Ar   79   3.611   6.911   6.798
    1   AR   Ar   80   3.455   5.364   6.039
    1   AR   Ar   81   1.723   1.170   0.195
    1   AR   Ar   82   7.103   5.449  -1.093
    1   AR   Ar   83   1.526   2.270   0.653
    1   AR   Ar   84   0.204   3.996  -0.509
    1   AR   Ar   85   0.668   2.842   0.314
    1   AR   Ar   86   2.281   3.479   0.706
    1   AR   Ar   87   2.343   2.013   1.404
    1   AR   Ar   88   3.151   4.088   2.418
    1   AR   Ar   89   0.149   2.745   2.183
    1   AR   Ar   90   2.665   2.441   5.083
    1   AR   Ar   91   1.158   2.533   3.409
    1   AR   Ar   92   1.028   2.103   2.287
    1   AR   Ar   93   1.908   0.895   6.339
    1   AR   Ar   94   1.461   0.231   9.710
    1   AR   Ar   95   4.088   0.841   6.063
    1   AR   Ar   96   3.268   0.510   5.412
    1   AR   Ar   97   4.485   1.812  -0.559
    1   AR   Ar   98   2.363   4.962   3.037
    1   AR   Ar   99   6.883   2.421  -1.381
    1   AR   Ar  100   2.285   2.117  -0.054
    1   AR   Ar  101   2.463   4.543   1.241
    1   AR   Ar  102   3.374   3.308   3.803
    1   AR   Ar  103   1.509   4.419   0.439
    1   AR   Ar  104   3.090   2.411  -1.523
    1   AR   Ar  105   2.087   3.144   3.710
    1   AR   Ar  106   3.113   3.909   4.665
    1   AR   Ar  107   1.504   3.952   5.596
    1   AR   Ar  108   3.573   2.801   5.429
    1   AR   Ar  109   1.396   3.615   4.490
    1   AR   Ar  110   0.887   4.595   6.354
    1   AR   Ar  111   4.646   3.947   7.021
    1   AR   Ar  112   1.722   5.340   7.104
    1   AR   Ar  113   2.658   4.338   0.075
    1   AR   Ar  114   2.305   4.923  -0.984
    1   AR   Ar  115   2.776   3.754  -0.993
    1   AR   Ar  116   5.271   6.346  -1.490
    1   AR   Ar  117   0.990   5.627   3.781
    1   AR   Ar  118   0.774   6.488   2.973
    1   AR   Ar  119   2.290   3.801   1.991
    1   AR   Ar  120   1.504   5.479   2.667
    1   AR   Ar  121   6.598   4.297   4.351
    1   AR   Ar  122   3.200   5.925   5.193
    1   AR   Ar  123   2.972   4.867   4.616
    1   AR   Ar  124   1.594   4.600   1.766
    1   AR   Ar  125   0.143   3.700   6.077
    1   AR   Ar  126   7.003   7.042   4.938
    1   AR   Ar  127   3.130   3.809   6.694
    1   AR   Ar  128   2.206   5.103   6.249
    1   AR   Ar  129   1.873   0.209   2.897
    1   AR   Ar  130   3.849   1.969  -1.990
    1   AR   Ar  131   4.437   0.372   0.161
    1   AR   Ar  132   1.528   1.678  -1.253
    1   AR   Ar  133   3.995   0.020   2.575
    1   AR   Ar  134   4.802   0.927   4.105
    1   AR   Ar  135   5.289   0.910   3.020
    1   AR   Ar  136   5.010   0.237   2.001
    1   AR   Ar  137   2.529   5.810   4.110
    1   AR   Ar  138   5.011   1.793   4.822
    1   AR   Ar  139   5.334   2.462   5.588
    1   AR   Ar  140   4.012   0.213   4.489
    1   AR   Ar  141   3.728   6.330   4.329
    1   AR   Ar  142   3.971   6.812   5.569
    1   AR   Ar  143   6.126   6.879   5.934
    1   AR   Ar  144   5.267   1.279   5.730
    1   AR   Ar  145   3.642   3.913   0.293
    1   AR   Ar  146   4.510   2.436   1.649
    1   AR   Ar  147   5.740   1.921  -2.064
    1   AR   Ar  148   4.388   4.278  -1.802
    1   AR   Ar  149   3.787   2.109   0.780
    1   AR   Ar  150   1.815   1.521   2.583
    1   AR   Ar  151   2.899   2.516   3.237
    1   AR   Ar  152   3.183   2.778   0.248
    1   AR   Ar  153   3.031   0.807   4.325
    1   AR   Ar  154   4.255   1.785   4.133
    1   AR   Ar  155   6.286   0.640   6.623
    1   AR   Ar  156   4.235   4.326   4.585
    1   AR   Ar  157   2.660   3.108   6.019
    1   AR   Ar  158   1.110   3.446   6.699
    1   AR   Ar  159   4.424   1.821   5.765
    1   AR   Ar  160   2.965   1.868   5.914
    1   AR   Ar  161   5.416   3.213   1.504
    1   AR   Ar  162   4.592   6.064  -0.485
    1   AR   Ar  163   5.695   3.079   0.295
    1   AR   Ar  164   3.496   5.637   1.819
    1   AR   Ar  165   3.384   3.260   1.213
    1   AR   Ar  166   3.138   4.178   3.419
    1   AR   Ar  167   4.462   1.728   2.681
    1   AR   Ar  168   4.452   3.064  -0.829
    1   AR   Ar  169   2.822   2.794   2.054
    1   AR   Ar  170   2.661   4.330   5.754
    1   AR   Ar  171   5.621   4.207   3.658
    1   AR   Ar  172   4.612   5.317   4.433
    1   AR   Ar  173   2.131   3.496   7.253
    1   AR   Ar  174   3.770   4.808   6.810
    1   AR   Ar  175   3.743   3.027   6.414
    1   AR   Ar  176   3.697   4.222   5.533
    1   AR   Ar  177   6.251   4.868   0.095
    1   AR   Ar  178   3.197   5.930   0.331
    1   AR   Ar  179   4.173   6.042   0.673
    1   AR   Ar  180   1.695   2.612  -1.798
    1   AR   Ar  181   0.671   5.799   0.991
    1   AR   Ar  182   2.788   0.472   2.572
    1   AR   Ar  183   3.413   5.255   2.905
    1   AR   Ar  184   4.147   6.484   1.707
    1   AR   Ar  185   1.865   4.850   4.199
    1   AR   Ar  186   3.685   5.205   3.957
    1   AR   Ar  187   3.877   6.283   3.137
    1   AR   Ar  188   3.023   6.930   1.742
    1   AR   Ar  189   2.827   2.372   7.770
    1   AR   Ar  190   5.344   6.622   5.305
    1   AR   Ar  191   4.468   4.883   5.962
    1   AR   Ar  192   4.665   5.850   5.386
    1   AR   Ar  193   1.067   6.317  -0.658
    1   AR   Ar  194   5.251   3.913  -1.348
    1   AR   Ar  195   6.095   0.573  -0.121
    1   AR   Ar  196   5.286   7.013  -0.686
    1   AR   Ar  197   5.441   1.480   0.694
    1   AR   Ar  198   0.018   1.157   1.136
    1   AR   Ar  199   5.023   1.516   1.860
    1   AR   Ar  200   6.292   2.001   0.058
    1   AR   Ar  201   4.914   7.085   3.574
    1   AR   Ar  202   5.568   2.729   4.333
    1   AR   Ar  203   6.104   6.273   4.892
    1   AR   Ar  204   5.656   0.027   4.403
    1   AR   Ar  205   5.896   7.088   2.745
    1   AR   Ar  206   4.929   0.541   5.144
    1   AR   Ar  207   0.416   0.320   5.778
    1   AR   Ar  208   6.855   7.012   3.276
    1   AR   Ar  209   5.623   3.109  -2.412
    1   AR   Ar  210   4.391   1.179   1.150
    1   AR   Ar  211   6.792   3.218   0.303
    1   AR   Ar  212   6.237   3.953  -1.226
    1   AR   Ar  213   3.350   1.922   1.871
    1   AR   Ar  214   3.864   3.268   2.820
    1   AR   Ar  215   6.219   2.315   1.276
    1   AR   Ar  216   0.087   4.069   0.902
    1   AR   Ar  217   4.565   2.904   3.854
    1   AR   Ar  218   4.548   3.035   5.056
    1   AR   Ar  219   5.286   1.895   3.434
    1   AR   Ar  220   4.884   3.579   2.488
    1   AR   Ar  221   6.113   0.582   5.312
    1   AR   Ar  222   4.872   1.926   6.643
    1   AR   Ar  223   0.666   1.107   6.964
    1   AR   Ar  224   4.859   3.254   6.243
    1   AR   Ar  225   6.034   4.300   1.446
    1   AR   Ar  226   4.212   4.524   2.501
    1   AR   Ar  227   0.249   4.964   0.445
    1   AR   Ar  228   5.144   6.516   1.023
    1   AR   Ar  229   5.612   4.017  -0.387
    1   AR   Ar  230   4.248   3.928   3.391
    1   AR   Ar  231   6.251   1.697   3.235
    1   AR   Ar  232   4.503   2.904   0.613
    1   AR   Ar  233   6.412   2.676   3.853
    1   AR   Ar  234   6.669   3.076   4.810
    1   AR   Ar  235   0.389   2.297   4.125
    1   AR   Ar  236   5.359   4.997   5.283
    1   AR   Ar  237   5.773   3.940   4.993
    1   AR   Ar  238   4.841   4.002   5.417
    1   AR   Ar  239   6.866   4.082   9.544
    1   AR   Ar  240   6.287   3.444   5.809
    1   AR   Ar  241   0.101   7.003  -0.911
    1   AR   Ar  242   5.245   4.856   0.263
    1   AR   Ar  243   5.671   4.310   2.483
    1   AR   Ar  244   1.142   5.266  -0.381
    1   AR   Ar  245   5.803   0.121   0.958
    1   AR   Ar  246   6.542   6.119   1.583
    1   AR   Ar  247   4.711   4.079   0.836
    1   AR   Ar  248   5.750   5.902  -0.062
    1   AR   Ar  249   4.413   5.617   2.619
    1   AR   Ar  250   4.731   6.437   4.447
    1   AR   Ar  251   5.733   5.324   4.034
    1   AR   Ar  252   5.057   6.062   3.536
    1   AR   Ar  253   5.704   4.086   6.274
    1   AR   Ar  254   3.754   5.499   7.785
    1   AR   Ar  255   4.582   2.635   7.470
    1   AR   Ar  256   6.048   6.288   3.745
    7.12000  7.12000 12.00000
Argon-slab step 2545
  256
    1   AR   Ar    1   6.697   1.317  -0.613
    1   AR   Ar    2   7.060   0.047   0.681
    1   AR   Ar    3   1.265   0.297   0.419
    1   AR   Ar    4   1.756   0.351  -0.466
    1   AR   Ar    5   6.814   6.178   0.351
    1   AR   Ar    6   6.800   0.860   2.805
    1   AR   Ar    7   6.531   4.447   3.241
    1   AR   Ar    8   6.772   0.118   2.032
    1   AR   Ar    9   0.672   0.441   3.529
    1   AR   Ar   10   1.254   1.594   4.231
    1   AR   Ar   11   2.629   6.740   4.657
    1   AR   Ar   12   0.691   1.334   2.846
    1   AR   Ar   13   6.676   1.769   4.951
    1   AR   Ar   14   1.628   1.429   7.540
    1   AR   Ar   15   6.221   0.237   9.555
    1   AR   Ar   16   1.069   0.524   4.623
    1   AR   Ar   17   0.418   1.818  -0.133
    1   AR   Ar   18   6.287   3.043  -0.675
    1   AR   Ar   19   1.623   2.888   1.574
    1   AR   Ar   20   5.467   4.362  -2.188
    1   AR   Ar   21   6.031   0.814   2.128
    1   AR   Ar   22   6.782   1.699   2.116
    1   AR   Ar   23   0.226   0.798   0.116
    1   AR   Ar   24   0.556   2.390   1.172
    1   AR   Ar   25   0.010   1.330   3.751
    1   AR   Ar   26   5.933   0.995   4.136
    1   AR   Ar   27   2.172   1.781   3.811
    1   AR   Ar   28   1.479   2.528   4.536
    1   AR   Ar   29   5.763   2.503   6.767
    1   AR   Ar   30   1.246   1.708   5.922
    1   AR   Ar   31   1.098   6.138   7.711
    1   AR   Ar   32   1.751   2.749   6.104
    1   AR   Ar   33   1.341   3.636  -0.394
    1   AR   Ar   34   0.242   5.460   3.081
    1   AR   Ar   35   6.507   5.111   2.174
    1   AR   Ar   36   6.990   0.497  -3.361
    1   AR   Ar   37   6.252   3.011   2.481
    1   AR   Ar   38   0.081   4.050   2.307
    1   AR   Ar   39   1.519   3.695   3.058
    1   AR   Ar   40   0.958   3.658   1.251
    1   AR   Ar   41   0.098   3.058   3.258
    1   AR   Ar   42   6.251   5.548   5.523
    1   AR   Ar   43   6.511   2.378   5.820
    1   AR   Ar   44   0.898   4.392   3.456
    1   AR   Ar   45   0.843   2.737   5.499
    1   AR   Ar   46   1.212   6.012   6.437
    1   AR   Ar   47   5.606   3.503   7.202
    1   AR   Ar   48   0.402   6.795   6.648
    1   AR   Ar   49   6.380   0.035  -1.791
    1   AR   Ar   50   5.276   5.127   1.726
    1   AR   Ar   51   0.375   5.289   1.937
    1   AR   Ar   52   5.848   5.005  -1.221
    1   AR   Ar   53   5.485   6.350   2.076
    1   AR   Ar   54   6.486   6.213   2.752
    1   AR   Ar   55   5.694   5.268   2.928
    1   AR   Ar   56   0.997   6.869   1.238
    1   AR   Ar   57   5.378   2.945   3.197
    1   AR   Ar   58   6.953   5.289   4.041
    1   AR   Ar   59   1.911   5.232   5.238
    1   AR   Ar   60   0.410   6.590   3.976
    1   AR   Ar   61   6.533   4.525   5.828
    1   AR   Ar   62   0.981   5.422   4.838
    1   AR   Ar   63   2.285   6.148   6.679
    1   AR   Ar   64   1.524   6.715   5.223
    1   AR   Ar   65   3.655   0.034   0.836
    1   AR   Ar   66   1.101   1.264   0.926
    1   AR   Ar   67   3.257   6.196  -0.813
    1   AR   Ar   68   3.054   1.499  -1.099
    1   AR   Ar   69   2.892   1.313   0.766
    1   AR   Ar   70   0.823   0.338   2.518
    1   AR   Ar   71   3.271   1.553   3.578
    1   AR   Ar   72   3.853   0.865   1.931
    1   AR   Ar   73   3.193   6.889   3.703
    1   AR   Ar   74   2.354   1.280   4.998
    1   AR   Ar   75   3.532   1.716   4.918
    1   AR   Ar   76   1.934   0.388   1.546
    1   AR   Ar   77   2.415   6.666   5.739
    1   AR   Ar   78   1.448   6.977   7.096
    1   AR   Ar   79   3.622   6.913   6.798
    1   AR   Ar   80   3.480   5.356   6.015
    1   AR   Ar   81   1.751   1.157   0.207
    1   AR   Ar   82   7.102   5.476  -1.084
    1   AR   Ar   83   1.502   2.260   0.653
    1   AR   Ar   84   0.182   3.975  -0.520
    1   AR   Ar   85   0.645   2.870   0.301
    1   AR   Ar   86   2.287   3.483   0.684
    1   AR   Ar   87   2.338   2.009   1.444
    1   AR   Ar   88   3.171   4.046   2.423
    1   AR   Ar   89   0.144   2.762   2.182
    1   AR   Ar   90   2.605   2.467   5.065
    1   AR   Ar   91   1.185   2.508   3.441
    1   AR   Ar   92   1.039   2.130   2.275
    1   AR   Ar   93   1.898   0.890   6.337
    1   AR   Ar   94   1.430   0.212   9.725
    1   AR   Ar   95   4.066   0.822   6.071
    1   AR   Ar   96   3.270   0.486   5.411
    1   AR   Ar   97   4.514   1.770  -0.532
    1   AR   Ar   98   2.342   4.968   3.034
    1   AR   Ar   99   6.861   2.464  -1.367
    1   AR   Ar  100   2.292   2.095  -0.037
    1   AR   Ar  101   2.461   4.528   1.211
    1   AR   Ar  102   3.363   3.307   3.783
    1   AR   Ar  103   1.523   4.409   0.423
    1   AR   Ar  104   3.104   2.406  -1.545
    1   AR   Ar  105   2.090   3.126   3.714
    1   AR   Ar  106   3.138   3.878   4.659
    1   AR   Ar  107   1.533   3.963   5.601
    1   AR   Ar  108   3.577   2.768   5.422
    1   AR   Ar  109   1.407   3.601   4.446
    1   AR   Ar  110   0.910   4.619   6.335
    1   AR   Ar  111   4.676   3.945   7.044
    1   AR   Ar  112   1.742   5.344   7.089
    1   AR   Ar  113   2.658   4.343   0.092
    1   AR   Ar  114   2.301   4.916  -0.954
    1   AR   Ar  115   2.774   3.761  -0.983
    1   AR   Ar  116   5.247   6.344  -1.478
    1   AR   Ar  117   0.960   5.629   3.758
    1   AR   Ar  118   0.776   6.476   3.001
    1   AR   Ar  119   2.287   3.776   1.965
    1   AR   Ar  120   1.532   5.489   2.654
    1   AR   Ar  121   6.556   4.284   4.367
    1   AR   Ar  122   3.168   5.943   5.190
    1   AR   Ar  123   2.944   4.883   4.607
    1   AR   Ar  124   1.620   4.625   1.776
    1   AR   Ar  125   0.145   3.682   6.068
    1   AR   Ar  126   6.988   7.017   4.953
    1   AR   Ar  127   3.124   3.775   6.657
    1   AR   Ar  128   2.232   5.122   6.253
    1   AR   Ar  129   1.897   0.183   2.906
    1   AR   Ar  130   3.850   1.966  -1.964
    1   AR   Ar  131   4.402   0.355   0.148
    1   AR   Ar  132   1.504   1.682  -1.257
    1   AR   Ar  133   4.008   0.035   2.593
    1   AR   Ar  134   4.793   0.934   4.096
    1   AR   Ar  135   5.287   0.903   3.028
    1   AR   Ar  136   5.026   0.218   1.999
    1   AR   Ar  137   2.549   5.799   4.125
    1   AR   Ar  138   5.010   1.805   4.830
    1   AR   Ar  139   5.350   2.456   5.567
    1   AR   Ar  140   3.995   0.204   4.472
    1   AR   Ar  141   3.700   6.337   4.334
    1   AR   Ar  142   3.973   6.799   5.586
    1   AR   Ar  143   6.138   6.870   5.943
    1   AR   Ar  144   5.302   1.303   5.753
    1   AR   Ar  145   3.639   3.907   0.309
    1   AR   Ar  146   4.521   2.427   1.661
    1   AR   Ar  147   5.728   1.917  -2.092
    1   AR   Ar  148   4.398   4.251  -1.799
    1   AR   Ar  149   3.792   2.128   0.787
    1   AR   Ar  150   1.869   1.540   2.583
    1   AR   Ar  151   2.886   2.514   3.235
    1   AR   Ar  152   3.200   2.780   0.225
    1   AR   Ar  153   3.059   0.800   4.329
    1   AR   Ar  154   4.207   1.788   4.139
    1   AR   Ar  155   6.272   0.616   6.651
    1   AR   Ar  156   4.226   4.329   4.580
    1   AR   Ar  157   2.660   3.118   6.050
    1   AR   Ar  158   1.111   3.454   6.709
    1   AR   Ar  159   4.435   1.810   5.748
    1   AR   Ar  160   2.983   1.888   5.904
    1   AR   Ar  161   5.407   3.218   1.505
    1   AR   Ar  162   4.581   6.063  -0.481
    1   AR   Ar  163   5.677   3.124   0.294
    1   AR   Ar  164   3.471   5.643   1.812
    1   AR   Ar  165   3.390   3.281   1.199
    1   AR   Ar  166   3.125   4.172   3.408
    1   AR   Ar  167   4.492   1.747   2.693
    1   AR   Ar  168   4.425   3.074  -0.826
    1   AR   Ar  169   2.834   2.815   2.082
    1   AR   Ar  170   2.654   4.346   5.720
    1   AR   Ar  171   5.622   4.182   3.639
    1   AR   Ar  172   4.626   5.319   4.436
    1   AR   Ar  173   2.125   3.485   7.229
    1   AR   Ar  174   3.731   4.827   6.846
    1   AR   Ar  175   3.744   3.009   6.414
    1   AR   Ar  176   3.693   4.183   5.531
    1   AR   Ar  177   6.263   4.847   0.085
    1   AR   Ar  178   3.213   5.959   0.335
    1   AR   Ar  179   4.208   6.026   0.619
    1   AR   Ar  180   1.690   2.597  -1.806
    1   AR   Ar  181   0.659   5.818   0.975
    1   AR   Ar  182   2.812   0.497   2.576
    1   AR   Ar  183   3.426   5.282   2.932
    1   AR   Ar  184   4.139   6.496   1.716
    1   AR   Ar  185   1.884   4.840   4.208
    1   AR   Ar  186   3.699   5.207   3.959
    1   AR   Ar  187   3.873   6.320   3.110
    1   AR   Ar  188   3.022   6.934   1.742
    1   AR   Ar  189   2.843   2.355   7.745
    1   AR   Ar  190   5.339   6.642   5.317
    1   AR   Ar  191   4.434   4.909   5.971
    1   AR   Ar  192   4.659   5.830   5.377
    1   AR   Ar  193   1.050   6.294  -0.629
    1   AR   Ar  194   5.252   3.904  -1.339
    1   AR   Ar  195   6.074   0.602  -0.115
    1   AR   Ar  196   5.306   7.016  -0.667
    1   AR   Ar  197   5.452   1.517   0.685
    1   AR   Ar  198   7.110   1.117   1.128
    1   AR   Ar  199   4.995   1.517   1.862
    1   AR   Ar  200   6.266   1.986   0.045
    1   AR   Ar  201   4.907   7.113   3.575
    1   AR   Ar  202   5.568   2.758   4.325
    1   AR   Ar  203   6.107   6.257   4.870
    1   AR   Ar  204   5.642   0.025   4.392
    1   AR   Ar  205   5.894   7.079   2.735
    1   AR   Ar  206   4.942   0.547   5.134
    1   AR   Ar  207   0.422   0.341   5.786
    1   AR   Ar  208   6.876   6.995   3.266
    1   AR   Ar  209   5.632   3.110  -2.362
    1   AR   Ar  210   4.395   1.203   1.137
    1   AR   Ar  211   6.750   3.206   0.295
    1   AR   Ar  212   6.196   3.943  -1.218
    1   AR   Ar  213   3.365   1.935   1.843
    1   AR   Ar  214   3.839   3.276   2.815
    1   AR   Ar  215   6.176   2.332   1.299
    1   AR   Ar  216   0.068   4.086   0.893
    1   AR   Ar  217   4.524   2.883   3.879
    1   AR   Ar  218   4.552   3.013   5.042
    1   AR   Ar  219   5.278   1.854   3.435
    1   AR   Ar  220   4.866   3.560   2.444
    1   AR   Ar  221   6.096   0.580   5.333
    1   AR   Ar  222   4.885   1.894   6.635
    1   AR   Ar  223   0.664   1.118   6.982
    1   AR   Ar  224   4.889   3.219   6.244
    1   AR   Ar  225   6.024   4.317   1.459
    1   AR   Ar  226   4.196   4.487   2.492
    1   AR   Ar  227   0.247   4.953   0.446
    1   AR   Ar  228   5.150   6.494   1.021
    1   AR   Ar  229   5.595   4.010  -0.389
    1   AR   Ar  230   4.267   3.885   3.398
    1   AR   Ar  231   6.265   1.689   3.217
    1   AR   Ar  232   4.465   2.913   0.602
    1   AR   Ar  233   6.402   2.676   3.854
    1   AR   Ar  234   6.672   3.029   4.807
    1   AR   Ar  235   0.406   2.312   4.139
    1   AR   Ar  236   5.362   4.999   5.296
    1   AR   Ar  237   5.759   3.948   4.989
    1   AR   Ar  238   4.863   4.010   5.418
    1   AR   Ar  239   6.831   4.065   9.546
    1   AR   Ar  240   6.298   3.444   5.787
    1   AR   Ar  241   0.089   7.006  -0.972
    1   AR   Ar  242   5.267   4.846   0.274
    1   AR   Ar  243   5.689   4.321   2.476
    1   AR   Ar  244   1.124   5.274  -0.374
    1   AR   Ar  245   5.805   0.131   0.956
    1   AR   Ar  246   6.555   6.128   1.559
    1   AR   Ar  247   4.708   4.043   0.854
    1   AR   Ar  248   5.738   5.911  -0.050
    1   AR   Ar  249   4.415   5.626   2.649
    1   AR   Ar  250   4.758   6.418   4.442
    1   AR   Ar  251   5.711   5.369   4.026
    1   AR   Ar  252   5.034   6.044   3.510
    1   AR   Ar  253   5.683   4.098   6.306
    1   AR   Ar  254   3.729   5.505   7.811
    1   AR   Ar  255   4.519   2.612   7.452
    1   AR   Ar  256   6.052   6.282   3.776
    7.12000  7.12000 12.00000
Argon-slab step 2550
  256
    1   AR   Ar    1   6.703   1.317  -0.603
    1   AR   Ar    2   7.037   0.073   0.690
    1   AR   Ar    3   1.254   0.286   0.432
    1   AR   Ar    4   1.753   0.351  -0.487
    1   AR   Ar    5   6.819   6.159   0.352
    1   AR   Ar    6   6.803   0.887   2.797
    1   AR   Ar    7   6.516   4.408   3.249
    1   AR   Ar    8   6.790   0.122   2.047
    1   AR   Ar    9   0.711   0.479   3.565
    1   AR   Ar   10   1.262   1.579   4.237
    1   AR   Ar   11   2.614   6.730   4.632
    1   AR   Ar   12   0.657   1.330   2.827
    1   AR   Ar   13   6.654   1.763   4.966
    1   AR   Ar   14   1.630   1.435   7.559
    1   AR   Ar   15   6.264   0.276   9.556
    1   AR   Ar   16   1.061   0.510   4.599
    1   AR   Ar   17   0.429   1.838  -0.122
    1   AR   Ar   18   6.292   3.021  -0.676
    1   AR   Ar   19   1.618   2.909   1.581
    1   AR   Ar   20   5.462   4.348  -2.230
    1   AR   Ar   21   6.021   0.822   2.125
    1   AR   Ar   22   6.788   1.729   2.105
    1   AR   Ar   23   0.215   0.786   0.106
    1   AR   Ar   24   0.581   2.382   1.167
    1   AR   Ar   25   7.101   1.324   3.754
    1   AR   Ar   26   5.944   0.996   4.165
    1   AR   Ar   27   2.170   1.808   3.787
    1   AR   Ar   28   1.459   2.510   4.529
    1   AR   Ar   29   5.753   2.531   6.731
    1   AR   Ar   30   1.297   1.704   5.898
    1   AR   Ar   31   1.086   6.175   7.715
    1   AR   Ar   32   1.748   2.758   6.068
    1   AR   Ar   33   1.311   3.615  -0.399
    1   AR   Ar   34   0.256   5.466   3.071
    1   AR   Ar   35   6.535   5.094   2.143
    1   AR   Ar   36   7.003   0.503  -3.339
    1   AR   Ar   37   6.286   2.982   2.481
    1   AR   Ar   38   0.068   4.037   2.294
    1   AR   Ar   39   1.539   3.660   3.066
    1   AR   Ar   40   0.984   3.660   1.248
    1   AR   Ar   41   0.113   3.107   3.226
    1   AR   Ar   42   6.233   5.576   5.539
    1   AR   Ar   43   6.491   2.352   5.860
    1   AR   Ar   44   0.907   4.381   3.460
    1   AR   Ar   45   0.859   2.724   5.494
    1   AR   Ar   46   1.156   6.029   6.450
    1   AR   Ar   47   5.636   3.514   7.198
    1   AR   Ar   48   0.383   6.820   6.644
    1   AR   Ar   49   6.425   0.017  -1.809
    1   AR   Ar   50   5.296   5.165   1.695
    1   AR   Ar   51   0.392   5.287   1.952
    1   AR   Ar   52   5.859   4.973  -1.221
    1   AR   Ar   53   5.457   6.332   2.067
    1   AR   Ar   54   6.488   6.212   2.752
    1   AR   Ar   55   5.699   5.234   2.940
    1   AR   Ar   56   1.019   6.872   1.200
    1   AR   Ar   57   5.373   2.953   3.189
    1   AR   Ar   58   6.950   5.293   4.011
    1   AR   Ar   59   1.913   5.241   5.227
    1   AR   Ar   60   0.420   6.607   3.978
    1   AR   Ar   61   6.525   4.532   5.813
    1   AR   Ar   62   0.973   5.420   4.852
    1   AR   Ar   63   2.272   6.150   6.696
    1   AR   Ar   64   1.520   6.706   5.205
    1   AR   Ar   65   3.651   0.047   0.829
    1   AR   Ar   66   1.094   1.279   0.975
    1   AR   Ar   67   3.244   6.193  -0.828
    1   AR   Ar   68   3.053   1.497  -1.120
    1   AR   Ar   69   2.896   1.331   0.763
    1   AR   Ar   70   0.810   0.289   2.493
    1   AR   Ar   71   3.273   1.584   3.569
    1   AR   Ar   72   3.865   0.869   1.936
    1   AR   Ar   73   3.175   6.896   3.688
    1   AR   Ar   74   2.353   1.321   5.023
    1   AR   Ar   75   3.550   1.745   4.914
    1   AR   Ar   76   1.909   0.379   1.548
    1   AR   Ar   77   2.428   6.677   5.745
    1   AR   Ar   78   1.467   6.993   7.140
    1   AR   Ar   79   3.633   6.915   6.796
    1   AR   Ar   80   3.499   5.351   5.987
    1   AR   Ar   81   1.793   1.153   0.209
    1   AR   Ar   82   7.100   5.504  -1.072
    1   AR   Ar   83   1.478   2.249   0.653
    1   AR   Ar   84   0.158   3.954  -0.530
    1   AR   Ar   85   0.624   2.903   0.279
    1   AR   Ar   86   2.291   3.487   0.663
    1   AR   Ar   87   2.331   2.006   1.484
    1   AR   Ar   88   3.195   4.005   2.420
    1   AR   Ar   89   0.140   2.779   2.179
    1   AR   Ar   90   2.595   2.500   5.084
    1   AR   Ar   91   1.214   2.483   3.471
    1   AR   Ar   92   1.050   2.162   2.259
    1   AR   Ar   93   1.888   0.884   6.335
    1   AR   Ar   94   1.399   0.192   9.741
    1   AR   Ar   95   4.045   0.801   6.079
    1   AR   Ar   96   3.269   0.463   5.408
    1   AR   Ar   97   4.544   1.730  -0.504
    1   AR   Ar   98   2.325   4.970   3.033
    1   AR   Ar   99   6.839   2.505  -1.353
    1   AR   Ar  100   2.301   2.073  -0.020
    1   AR   Ar  101   2.465   4.512   1.176
    1   AR   Ar  102   3.358   3.292   3.769
    1   AR   Ar  103   1.536   4.399   0.408
    1   AR   Ar  104   3.104   2.416  -1.563
    1   AR   Ar  105   2.086   3.080   3.736
    1   AR   Ar  106   3.162   3.842   4.653
    1   AR   Ar  107   1.562   3.973   5.606
    1   AR   Ar  108   3.580   2.735   5.411
    1   AR   Ar  109   1.418   3.590   4.402
    1   AR   Ar  110   0.934   4.642   6.316
    1   AR   Ar  111   4.701   3.945   7.064
    1   AR   Ar  112   1.756   5.348   7.084
    1   AR   Ar  113   2.656   4.348   0.107
    1   AR   Ar  114   2.297   4.907  -0.923
    1   AR   Ar  115   2.773   3.771  -0.971
    1   AR   Ar  116   5.222   6.339  -1.467
    1   AR   Ar  117   0.929   5.637   3.754
    1   AR   Ar  118   0.779   6.463   3.027
    1   AR   Ar  119   2.277   3.754   1.944
    1   AR   Ar  120   1.554   5.501   2.641
    1   AR   Ar  121   6.515   4.271   4.382
    1   AR   Ar  122   3.134   5.960   5.186
    1   AR   Ar  123   2.913   4.903   4.602
    1   AR   Ar  124   1.639   4.650   1.789
    1   AR   Ar  125   0.153   3.663   6.060
    1   AR   Ar  126   6.977   6.999   4.961
    1   AR   Ar  127   3.118   3.753   6.627
    1   AR   Ar  128   2.261   5.142   6.252
    1   AR   Ar  129   1.914   0.156   2.916
    1   AR   Ar  130   3.865   1.956  -1.946
    1   AR   Ar  131   4.370   0.338   0.134
    1   AR   Ar  132   1.481   1.685  -1.258
    1   AR   Ar  133   4.023   0.058   2.606
    1   AR   Ar  134   4.787   0.939   4.087
    1   AR   Ar  135   5.293   0.909   3.028
    1   AR   Ar  136   5.041   0.202   1.997
    1   AR   Ar  137   2.570   5.787   4.139
    1   AR   Ar  138   5.010   1.815   4.833
    1   AR   Ar  139   5.368   2.452   5.548
    1   AR   Ar  140   3.979   0.198   4.455
    1   AR   Ar  141   3.677   6.331   4.345
    1   AR   Ar  142   3.982   6.787   5.616
    1   AR   Ar  143   6.154   6.858   5.955
    1   AR   Ar  144   5.346   1.326   5.778
    1   AR   Ar  145   3.636   3.899   0.326
    1   AR   Ar  146   4.530   2.422   1.672
    1   AR   Ar  147   5.716   1.913  -2.119
    1   AR   Ar  148   4.404   4.225  -1.798
    1   AR   Ar  149   3.797   2.143   0.799
    1   AR   Ar  150   1.925   1.558   2.584
    1   AR   Ar  151   2.873   2.511   3.230
    1   AR   Ar  152   3.215   2.785   0.199
    1   AR   Ar  153   3.085   0.791   4.337
    1   AR   Ar  154   4.158   1.796   4.138
    1   AR   Ar  155   6.259   0.593   6.676
    1   AR   Ar  156   4.215   4.330   4.573
    1   AR   Ar  157   2.669   3.126   6.073
    1   AR   Ar  158   1.112   3.463   6.717
    1   AR   Ar  159   4.436   1.836   5.750
    1   AR   Ar  160   3.002   1.908   5.895
    1   AR   Ar  161   5.413   3.220   1.511
    1   AR   Ar  162   4.570   6.063  -0.476
    1   AR   Ar  163   5.657   3.168   0.294
    1   AR   Ar  164   3.446   5.648   1.805
    1   AR   Ar  165   3.394   3.300   1.195
    1   AR   Ar  166   3.110   4.182   3.403
    1   AR   Ar  167   4.516   1.768   2.711
    1   AR   Ar  168   4.398   3.084  -0.821
    1   AR   Ar  169   2.845   2.839   2.113
    1   AR   Ar  170   2.647   4.357   5.683
    1   AR   Ar  171   5.619   4.155   3.622
    1   AR   Ar  172   4.644   5.322   4.437
    1   AR   Ar  173   2.120   3.474   7.203
    1   AR   Ar  174   3.694   4.840   6.887
    1   AR   Ar  175   3.751   2.987   6.417
    1   AR   Ar  176   3.692   4.143   5.532
    1   AR   Ar  177   6.283   4.826   0.074
    1   AR   Ar  178   3.224   5.988   0.339
    1   AR   Ar  179   4.248   6.010   0.567
    1   AR   Ar  180   1.687   2.583  -1.815
    1   AR   Ar  181   0.656   5.828   0.957
    1   AR   Ar  182   2.817   0.499   2.580
    1   AR   Ar  183   3.438   5.307   2.957
    1   AR   Ar  184   4.133   6.510   1.725
    1   AR   Ar  185   1.903   4.829   4.215
    1   AR   Ar  186   3.714   5.210   3.959
    1   AR   Ar  187   3.864   6.352   3.095
    1   AR   Ar  188   3.022   6.939   1.741
    1   AR   Ar  189   2.858   2.352   7.753
    1   AR   Ar  190   5.319   6.671   5.336
    1   AR   Ar  191   4.426   4.908   5.965
    1   AR   Ar  192   4.650   5.810   5.371
    1   AR   Ar  193   1.032   6.275  -0.600
    1   AR   Ar  194   5.255   3.895  -1.339
    1   AR   Ar  195   6.054   0.629  -0.106
    1   AR   Ar  196   5.326   7.021  -0.644
    1   AR   Ar  197   5.462   1.553   0.677
    1   AR   Ar  198   7.080   1.078   1.121
    1   AR   Ar  199   4.981   1.514   1.866
    1   AR   Ar  200   6.239   1.976   0.036
    1   AR   Ar  201   4.899   0.021   3.575
    1   AR   Ar  202   5.551   2.787   4.327
    1   AR   Ar  203   6.121   6.246   4.831
    1   AR   Ar  204   5.626   0.021   4.382
    1   AR   Ar  205   5.888   7.067   2.726
    1   AR   Ar  206   4.953   0.550   5.121
    1   AR   Ar  207   0.430   0.363   5.793
    1   AR   Ar  208   6.897   6.984   3.257
    1   AR   Ar  209   5.642   3.112  -2.311
    1   AR   Ar  210   4.395   1.227   1.111
    1   AR   Ar  211   6.709   3.195   0.287
    1   AR   Ar  212   6.178   3.936  -1.213
    1   AR   Ar  213   3.383   1.945   1.814
    1   AR   Ar  214   3.804   3.267   2.794
    1   AR   Ar  215   6.133   2.349   1.322
    1   AR   Ar  216   0.043   4.095   0.889
    1   AR   Ar  217   4.481   2.862   3.905
    1   AR   Ar  218   4.557   2.996   5.026
    1   AR   Ar  219   5.252   1.832   3.421
    1   AR   Ar  220   4.848   3.541   2.399
    1   AR   Ar  221   6.078   0.582   5.350
    1   AR   Ar  222   4.901   1.862   6.635
    1   AR   Ar  223   0.663   1.128   7.000
    1   AR   Ar  224   4.920   3.183   6.244
    1   AR   Ar  225   6.015   4.334   1.470
    1   AR   Ar  226   4.180   4.452   2.482
    1   AR   Ar  227   0.247   4.951   0.442
    1   AR   Ar  228   5.150   6.465   1.021
    1   AR   Ar  229   5.578   4.004  -0.380
    1   AR   Ar  230   4.296   3.858   3.421
    1   AR   Ar  231   6.282   1.682   3.197
    1   AR   Ar  232   4.428   2.926   0.590
    1   AR   Ar  233   6.406   2.672   3.843
    1   AR   Ar  234   6.675   2.983   4.807
    1   AR   Ar  235   0.421   2.328   4.155
    1   AR   Ar  236   5.383   5.010   5.308
    1   AR   Ar  237   5.751   3.956   4.981
    1   AR   Ar  238   4.876   4.018   5.425
    1   AR   Ar  239   6.796   4.048   9.549
    1   AR   Ar  240   6.307   3.438   5.763
    1   AR   Ar  241   0.076   7.008  -1.031
    1   AR   Ar  242   5.294   4.848   0.303
    1   AR   Ar  243   5.707   4.329   2.469
    1   AR   Ar  244   1.149   5.264  -0.391
    1   AR   Ar  245   5.814   0.149   0.954
    1   AR   Ar  246   6.569   6.137   1.535
    1   AR   Ar  247   4.705   4.005   0.873
    1   AR   Ar  248   5.725   5.920  -0.038
    1   AR   Ar  249   4.426   5.629   2.674
    1   AR   Ar  250   4.786   6.402   4.438
    1   AR   Ar  251   5.688   5.404   4.024
    1   AR   Ar  252   5.008   6.023   3.479
    1   AR   Ar  253   5.654   4.112   6.339
    1   AR   Ar  254   3.705   5.512   7.837
    1   AR   Ar  255   4.457   2.591   7.431
    1   AR   Ar  256   6.090   6.248   3.760
    7.12000  7.12000 12.00000
Argon-slab step 2555
  256
    1   AR   Ar    1   6.711   1.314  -0.598
    1   AR   Ar    2   7.010   0.086   0.710
    1   AR   Ar    3   1.242   0.282   0.435
    1   AR   Ar    4   1.751   0.349  -0.513
    1   AR   Ar    5   6.816   6.145   0.362
    1   AR   Ar    6   6.791   0.890   2.785
    1   AR   Ar    7   6.509   4.373   3.253
    1   AR   Ar    8   6.810   0.121   2.062
    1   AR   Ar    9   0.749   0.517   3.600
    1   AR   Ar   10   1.264   1.554   4.241
    1   AR   Ar   11   2.600   6.724   4.609
    1   AR   Ar   12   0.684   1.346   2.820
    1   AR   Ar   13   6.643   1.743   4.958
    1   AR   Ar   14   1.632   1.441   7.578
    1   AR   Ar   15   6.307   0.315   9.558
    1   AR   Ar   16   1.053   0.496   4.578
    1   AR   Ar   17   0.440   1.860  -0.109
    1   AR   Ar   18   6.292   3.001  -0.670
    1   AR   Ar   19   1.617   2.926   1.589
    1   AR   Ar   20   5.459   4.337  -2.276
    1   AR   Ar   21   6.004   0.834   2.117
    1   AR   Ar   22   6.794   1.761   2.094
    1   AR   Ar   23   0.216   0.782   0.093
    1   AR   Ar   24   0.602   2.371   1.170
    1   AR   Ar   25   7.075   1.318   3.760
    1   AR   Ar   26   5.955   1.001   4.192
    1   AR   Ar   27   2.172   1.837   3.761
    1   AR   Ar   28   1.444   2.501   4.526
    1   AR   Ar   29   5.742   2.561   6.691
    1   AR   Ar   30   1.347   1.702   5.872
    1   AR   Ar   31   1.073   6.211   7.719
    1   AR   Ar   32   1.738   2.765   6.032
    1   AR   Ar   33   1.281   3.594  -0.403
    1   AR   Ar   34   0.259   5.470   3.046
    1   AR   Ar   35   6.556   5.077   2.114
    1   AR   Ar   36   7.017   0.509  -3.318
    1   AR   Ar   37   6.316   2.954   2.484
    1   AR   Ar   38   0.055   4.024   2.282
    1   AR   Ar   39   1.560   3.623   3.069
    1   AR   Ar   40   1.010   3.664   1.243
    1   AR   Ar   41   0.129   3.156   3.195
    1   AR   Ar   42   6.220   5.598   5.565
    1   AR   Ar   43   6.470   2.326   5.901
    1   AR   Ar   44   0.914   4.374   3.467
    1   AR   Ar   45   0.867   2.716   5.478
    1   AR   Ar   46   1.101   6.048   6.463
    1   AR   Ar   47   5.668   3.522   7.196
    1   AR   Ar   48   0.364   6.843   6.642
    1   AR   Ar   49   6.469   7.120  -1.827
    1   AR   Ar   50   5.316   5.203   1.665
    1   AR   Ar   51   0.416   5.287   1.965
    1   AR   Ar   52   5.844   4.970  -1.216
    1   AR   Ar   53   5.430   6.309   2.053
    1   AR   Ar   54   6.491   6.201   2.746
    1   AR   Ar   55   5.705   5.207   2.954
    1   AR   Ar   56   1.034   6.867   1.178
    1   AR   Ar   57   5.368   2.960   3.183
    1   AR   Ar   58   6.949   5.296   3.977
    1   AR   Ar   59   1.922   5.251   5.217
    1   AR   Ar   60   0.429   6.623   3.988
    1   AR   Ar   61   6.517   4.538   5.796
    1   AR   Ar   62   0.959   5.419   4.864
    1   AR   Ar   63   2.297   6.166   6.717
    1   AR   Ar   64   1.512   6.697   5.184
    1   AR   Ar   65   3.644   0.057   0.825
    1   AR   Ar   66   1.081   1.295   1.028
    1   AR   Ar   67   3.231   6.191  -0.841
    1   AR   Ar   68   3.051   1.490  -1.138
    1   AR   Ar   69   2.899   1.350   0.761
    1   AR   Ar   70   0.795   0.242   2.466
    1   AR   Ar   71   3.265   1.613   3.556
    1   AR   Ar   72   3.849   0.894   1.942
    1   AR   Ar   73   3.152   6.911   3.669
    1   AR   Ar   74   2.407   1.311   5.040
    1   AR   Ar   75   3.560   1.772   4.920
    1   AR   Ar   76   1.883   0.383   1.556
    1   AR   Ar   77   2.446   6.688   5.751
    1   AR   Ar   78   1.487   7.011   7.180
    1   AR   Ar   79   3.644   6.917   6.791
    1   AR   Ar   80   3.513   5.347   5.956
    1   AR   Ar   81   1.839   1.152   0.209
    1   AR   Ar   82   7.099   5.531  -1.060
    1   AR   Ar   83   1.457   2.239   0.653
    1   AR   Ar   84   0.110   3.949  -0.552
    1   AR   Ar   85   0.606   2.939   0.253
    1   AR   Ar   86   2.296   3.490   0.644
    1   AR   Ar   87   2.323   2.004   1.523
    1   AR   Ar   88   3.216   3.966   2.408
    1   AR   Ar   89   0.141   2.796   2.174
    1   AR   Ar   90   2.594   2.534   5.112
    1   AR   Ar   91   1.233   2.476   3.495
    1   AR   Ar   92   1.061   2.196   2.241
    1   AR   Ar   93   1.877   0.877   6.334
    1   AR   Ar   94   1.368   0.173   9.756
    1   AR   Ar   95   4.027   0.781   6.086
    1   AR   Ar   96   3.266   0.440   5.402
    1   AR   Ar   97   4.573   1.690  -0.475
    1   AR   Ar   98   2.314   4.967   3.037
    1   AR   Ar   99   6.820   2.542  -1.343
    1   AR   Ar  100   2.314   2.052  -0.005
    1   AR   Ar  101   2.472   4.495   1.138
    1   AR   Ar  102   3.356   3.268   3.761
    1   AR   Ar  103   1.514   4.399   0.406
    1   AR   Ar  104   3.090   2.441  -1.575
    1   AR   Ar  105   2.086   3.030   3.760
    1   AR   Ar  106   3.185   3.805   4.649
    1   AR   Ar  107   1.592   3.982   5.612
    1   AR   Ar  108   3.585   2.702   5.399
    1   AR   Ar  109   1.427   3.582   4.359
    1   AR   Ar  110   0.959   4.665   6.296
    1   AR   Ar  111   4.722   3.946   7.082
    1   AR   Ar  112   1.761   5.350   7.090
    1   AR   Ar  113   2.653   4.354   0.121
    1   AR   Ar  114   2.293   4.897  -0.890
    1   AR   Ar  115   2.775   3.788  -0.956
    1   AR   Ar  116   5.198   6.332  -1.456
    1   AR   Ar  117   0.908   5.648   3.762
    1   AR   Ar  118   0.784   6.449   3.047
    1   AR   Ar  119   2.264   3.730   1.922
    1   AR   Ar  120   1.568   5.516   2.626
    1   AR   Ar  121   6.478   4.260   4.393
    1   AR   Ar  122   3.099   5.977   5.182
    1   AR   Ar  123   2.883   4.922   4.601
    1   AR   Ar  124   1.653   4.676   1.805
    1   AR   Ar  125   0.166   3.646   6.053
    1   AR   Ar  126   6.989   7.006   4.942
    1   AR   Ar  127   3.119   3.754   6.609
    1   AR   Ar  128   2.296   5.163   6.245
    1   AR   Ar  129   1.924   0.128   2.928
    1   AR   Ar  130   3.892   1.937  -1.932
    1   AR   Ar  131   4.342   0.322   0.118
    1   AR   Ar  132   1.458   1.687  -1.257
    1   AR   Ar  133   4.041   0.092   2.615
    1   AR   Ar  134   4.784   0.945   4.078
    1   AR   Ar  135   5.301   0.908   3.024
    1   AR   Ar  136   5.055   0.188   1.994
    1   AR   Ar  137   2.592   5.776   4.152
    1   AR   Ar  138   5.010   1.822   4.830
    1   AR   Ar  139   5.390   2.452   5.535
    1   AR   Ar  140   3.968   0.195   4.440
    1   AR   Ar  141   3.657   6.315   4.359
    1   AR   Ar  142   3.993   6.775   5.645
    1   AR   Ar  143   6.174   6.842   5.969
    1   AR   Ar  144   5.395   1.348   5.804
    1   AR   Ar  145   3.635   3.891   0.342
    1   AR   Ar  146   4.535   2.421   1.682
    1   AR   Ar  147   5.704   1.911  -2.146
    1   AR   Ar  148   4.405   4.201  -1.799
    1   AR   Ar  149   3.800   2.151   0.814
    1   AR   Ar  150   1.981   1.575   2.586
    1   AR   Ar  151   2.859   2.509   3.222
    1   AR   Ar  152   3.228   2.792   0.173
    1   AR   Ar  153   3.097   0.779   4.364
    1   AR   Ar  154   4.126   1.806   4.129
    1   AR   Ar  155   6.246   0.570   6.701
    1   AR   Ar  156   4.203   4.330   4.564
    1   AR   Ar  157   2.678   3.124   6.081
    1   AR   Ar  158   1.112   3.473   6.722
    1   AR   Ar  159   4.426   1.864   5.743
    1   AR   Ar  160   3.021   1.927   5.885
    1   AR   Ar  161   5.418   3.222   1.517
    1   AR   Ar  162   4.562   6.064  -0.473
    1   AR   Ar  163   5.633   3.210   0.296
    1   AR   Ar  164   3.421   5.653   1.801
    1   AR   Ar  165   3.397   3.316   1.226
    1   AR   Ar  166   3.093   4.204   3.402
    1   AR   Ar  167   4.506   1.773   2.715
    1   AR   Ar  168   4.372   3.094  -0.816
    1   AR   Ar  169   2.856   2.864   2.144
    1   AR   Ar  170   2.641   4.366   5.643
    1   AR   Ar  171   5.607   4.127   3.609
    1   AR   Ar  172   4.665   5.325   4.438
    1   AR   Ar  173   2.116   3.462   7.176
    1   AR   Ar  174   3.658   4.851   6.929
    1   AR   Ar  175   3.765   2.960   6.421
    1   AR   Ar  176   3.694   4.103   5.536
    1   AR   Ar  177   6.310   4.804   0.060
    1   AR   Ar  178   3.233   6.018   0.342
    1   AR   Ar  179   4.290   5.996   0.517
    1   AR   Ar  180   1.682   2.586  -1.816
    1   AR   Ar  181   0.651   5.839   0.939
    1   AR   Ar  182   2.817   0.498   2.582
    1   AR   Ar  183   3.437   5.323   2.972
    1   AR   Ar  184   4.129   6.525   1.732
    1   AR   Ar  185   1.919   4.818   4.220
    1   AR   Ar  186   3.727   5.213   3.961
    1   AR   Ar  187   3.850   6.376   3.090
    1   AR   Ar  188   3.023   6.942   1.741
    1   AR   Ar  189   2.872   2.349   7.759
    1   AR   Ar  190   5.295   6.701   5.358
    1   AR   Ar  191   4.422   4.902   5.959
    1   AR   Ar  192   4.638   5.792   5.366
    1   AR   Ar  193   1.012   6.261  -0.572
    1   AR   Ar  194   5.275   3.890  -1.334
    1   AR   Ar  195   6.033   0.656  -0.095
    1   AR   Ar  196   5.346   7.026  -0.619
    1   AR   Ar  197   5.471   1.589   0.671
    1   AR   Ar  198   7.051   1.040   1.116
    1   AR   Ar  199   4.980   1.505   1.869
    1   AR   Ar  200   6.212   1.971   0.030
    1   AR   Ar  201   4.890   0.045   3.572
    1   AR   Ar  202   5.522   2.818   4.337
    1   AR   Ar  203   6.137   6.241   4.782
    1   AR   Ar  204   5.611   0.013   4.373
    1   AR   Ar  205   5.881   7.059   2.720
    1   AR   Ar  206   4.961   0.554   5.106
    1   AR   Ar  207   0.438   0.386   5.798
    1   AR   Ar  208   6.919   6.980   3.248
    1   AR   Ar  209   5.651   3.115  -2.257
    1   AR   Ar  210   4.392   1.250   1.074
    1   AR   Ar  211   6.670   3.186   0.282
    1   AR   Ar  212   6.195   3.931  -1.209
    1   AR   Ar  213   3.404   1.953   1.784
    1   AR   Ar  214   3.767   3.247   2.766
    1   AR   Ar  215   6.089   2.366   1.344
    1   AR   Ar  216   0.015   4.093   0.889
    1   AR   Ar  217   4.461   2.912   3.931
    1   AR   Ar  218   4.565   3.000   5.007
    1   AR   Ar  219   5.226   1.818   3.417
    1   AR   Ar  220   4.830   3.523   2.355
    1   AR   Ar  221   6.070   0.579   5.342
    1   AR   Ar  222   4.920   1.832   6.642
    1   AR   Ar  223   0.663   1.137   7.016
    1   AR   Ar  224   4.952   3.147   6.245
    1   AR   Ar  225   6.007   4.350   1.476
    1   AR   Ar  226   4.165   4.418   2.473
    1   AR   Ar  227   0.249   4.958   0.430
    1   AR   Ar  228   5.147   6.433   1.020
    1   AR   Ar  229   5.562   4.001  -0.361
    1   AR   Ar  230   4.330   3.838   3.452
    1   AR   Ar  231   6.295   1.680   3.177
    1   AR   Ar  232   4.395   2.944   0.578
    1   AR   Ar  233   6.418   2.661   3.823
    1   AR   Ar  234   6.678   2.937   4.811
    1   AR   Ar  235   0.431   2.344   4.172
    1   AR   Ar  236   5.431   5.034   5.321
    1   AR   Ar  237   5.749   3.961   4.972
    1   AR   Ar  238   4.877   4.026   5.439
    1   AR   Ar  239   6.761   4.031   9.552
    1   AR   Ar  240   6.311   3.430   5.738
    1   AR   Ar  241   0.064   7.011  -1.089
    1   AR   Ar  242   5.321   4.858   0.346
    1   AR   Ar  243   5.723   4.331   2.463
    1   AR   Ar  244   1.174   5.249  -0.406
    1   AR   Ar  245   5.826   0.170   0.953
    1   AR   Ar  246   6.583   6.147   1.511
    1   AR   Ar  247   4.703   3.966   0.891
    1   AR   Ar  248   5.711   5.929  -0.025
    1   AR   Ar  249   4.441   5.625   2.691
    1   AR   Ar  250   4.813   6.388   4.436
    1   AR   Ar  251   5.660   5.424   4.028
    1   AR   Ar  252   4.983   6.002   3.446
    1   AR   Ar  253   5.623   4.128   6.367
    1   AR   Ar  254   3.680   5.518   7.861
    1   AR   Ar  255   4.396   2.571   7.407
    1   AR   Ar  256   6.141   6.219   3.726
    7.12000  7.12000 12.00000
Argon-slab step 2560
  256
    1   AR   Ar    1   6.722   1.311  -0.598
    1   AR   Ar    2   6.978   0.086   0.737
    1   AR   Ar    3   1.233   0.292   0.419
    1   AR   Ar    4   1.750   0.347  -0.542
    1   AR   Ar    5   6.807   6.134   0.378
    1   AR   Ar    6   6.786   0.887   2.776
    1   AR   Ar    7   6.512   4.341   3.253
    1   AR   Ar    8   6.823   0.124   2.072
    1   AR   Ar    9   0.785   0.556   3.628
    1   AR   Ar   10   1.262   1.520   4.242
    1   AR   Ar   11   2.586   6.724   4.587
    1   AR   Ar   12   0.725   1.366   2.815
    1   AR   Ar   13   6.630   1.723   4.948
    1   AR   Ar   14   1.634   1.447   7.595
    1   AR   Ar   15   6.350   0.354   9.560
    1   AR   Ar   16   1.046   0.481   4.563
    1   AR   Ar   17   0.451   1.884  -0.094
    1   AR   Ar   18   6.280   2.987  -0.656
    1   AR   Ar   19   1.619   2.936   1.598
    1   AR   Ar   20   5.440   4.368  -2.272
    1   AR   Ar   21   5.982   0.850   2.105
    1   AR   Ar   22   6.800   1.792   2.083
    1   AR   Ar   23   0.232   0.783   0.085
    1   AR   Ar   24   0.619   2.352   1.182
    1   AR   Ar   25   7.052   1.311   3.770
    1   AR   Ar   26   5.967   1.010   4.218
    1   AR   Ar   27   2.175   1.868   3.735
    1   AR   Ar   28   1.469   2.488   4.503
    1   AR   Ar   29   5.733   2.589   6.651
    1   AR   Ar   30   1.397   1.701   5.846
    1   AR   Ar   31   1.059   6.243   7.722
    1   AR   Ar   32   1.724   2.769   5.998
    1   AR   Ar   33   1.250   3.574  -0.405
    1   AR   Ar   34   0.255   5.472   3.008
    1   AR   Ar   35   6.568   5.058   2.089
    1   AR   Ar   36   7.027   0.513  -3.298
    1   AR   Ar   37   6.337   2.927   2.489
    1   AR   Ar   38   0.044   4.032   2.273
    1   AR   Ar   39   1.581   3.586   3.068
    1   AR   Ar   40   1.031   3.673   1.234
    1   AR   Ar   41   0.145   3.205   3.165
    1   AR   Ar   42   6.214   5.622   5.598
    1   AR   Ar   43   6.448   2.301   5.939
    1   AR   Ar   44   0.919   4.370   3.474
    1   AR   Ar   45   0.867   2.710   5.452
    1   AR   Ar   46   1.048   6.066   6.477
    1   AR   Ar   47   5.704   3.526   7.198
    1   AR   Ar   48   0.345   6.867   6.642
    1   AR   Ar   49   6.509   7.103  -1.849
    1   AR   Ar   50   5.337   5.242   1.637
    1   AR   Ar   51   0.448   5.288   1.976
    1   AR   Ar   52   5.827   4.965  -1.209
    1   AR   Ar   53   5.404   6.282   2.042
    1   AR   Ar   54   6.493   6.182   2.731
    1   AR   Ar   55   5.712   5.188   2.971
    1   AR   Ar   56   1.042   6.847   1.177
    1   AR   Ar   57   5.363   2.968   3.177
    1   AR   Ar   58   6.944   5.299   3.946
    1   AR   Ar   59   1.937   5.259   5.210
    1   AR   Ar   60   0.439   6.639   4.009
    1   AR   Ar   61   6.508   4.544   5.778
    1   AR   Ar   62   0.954   5.420   4.879
    1   AR   Ar   63   2.334   6.188   6.739
    1   AR   Ar   64   1.504   6.688   5.163
    1   AR   Ar   65   3.635   0.066   0.827
    1   AR   Ar   66   1.068   1.309   1.081
    1   AR   Ar   67   3.219   6.187  -0.853
    1   AR   Ar   68   3.050   1.480  -1.155
    1   AR   Ar   69   2.903   1.370   0.759
    1   AR   Ar   70   0.780   0.195   2.438
    1   AR   Ar   71   3.256   1.637   3.543
    1   AR   Ar   72   3.831   0.920   1.947
    1   AR   Ar   73   3.125   6.931   3.648
    1   AR   Ar   74   2.462   1.302   5.058
    1   AR   Ar   75   3.561   1.793   4.936
    1   AR   Ar   76   1.857   0.388   1.565
    1   AR   Ar   77   2.464   6.699   5.757
    1   AR   Ar   78   1.507   7.030   7.216
    1   AR   Ar   79   3.655   6.919   6.785
    1   AR   Ar   80   3.520   5.345   5.925
    1   AR   Ar   81   1.884   1.152   0.213
    1   AR   Ar   82   7.098   5.559  -1.046
    1   AR   Ar   83   1.476   2.255   0.687
    1   AR   Ar   84   0.056   3.947  -0.577
    1   AR   Ar   85   0.589   2.977   0.226
    1   AR   Ar   86   2.299   3.490   0.627
    1   AR   Ar   87   2.313   2.002   1.562
    1   AR   Ar   88   3.227   3.936   2.384
    1   AR   Ar   89   0.148   2.811   2.163
    1   AR   Ar   90   2.588   2.568   5.137
    1   AR   Ar   91   1.226   2.474   3.494
    1   AR   Ar   92   1.074   2.230   2.223
    1   AR   Ar   93   1.867   0.869   6.333
    1   AR   Ar   94   1.339   0.153   9.773
    1   AR   Ar   95   4.011   0.762   6.092
    1   AR   Ar   96   3.261   0.416   5.393
    1   AR   Ar   97   4.601   1.650  -0.445
    1   AR   Ar   98   2.308   4.960   3.045
    1   AR   Ar   99   6.810   2.572  -1.344
    1   AR   Ar  100   2.330   2.035   0.010
    1   AR   Ar  101   2.480   4.478   1.102
    1   AR   Ar  102   3.357   3.240   3.754
    1   AR   Ar  103   1.493   4.397   0.405
    1   AR   Ar  104   3.070   2.473  -1.586
    1   AR   Ar  105   2.093   2.979   3.786
    1   AR   Ar  106   3.207   3.770   4.645
    1   AR   Ar  107   1.621   3.990   5.618
    1   AR   Ar  108   3.593   2.674   5.387
    1   AR   Ar  109   1.435   3.576   4.317
    1   AR   Ar  110   0.985   4.687   6.277
    1   AR   Ar  111   4.732   3.942   7.080
    1   AR   Ar  112   1.760   5.351   7.102
    1   AR   Ar  113   2.650   4.361   0.128
    1   AR   Ar  114   2.299   4.895  -0.869
    1   AR   Ar  115   2.777   3.805  -0.939
    1   AR   Ar  116   5.174   6.325  -1.444
    1   AR   Ar  117   0.895   5.658   3.781
    1   AR   Ar  118   0.791   6.434   3.062
    1   AR   Ar  119   2.249   3.709   1.899
    1   AR   Ar  120   1.575   5.535   2.608
    1   AR   Ar  121   6.451   4.254   4.394
    1   AR   Ar  122   3.062   5.990   5.180
    1   AR   Ar  123   2.857   4.949   4.610
    1   AR   Ar  124   1.657   4.694   1.826
    1   AR   Ar  125   0.183   3.630   6.046
    1   AR   Ar  126   6.999   7.013   4.922
    1   AR   Ar  127   3.131   3.778   6.608
    1   AR   Ar  128   2.333   5.184   6.234
    1   AR   Ar  129   1.928   0.097   2.941
    1   AR   Ar  130   3.925   1.914  -1.921
    1   AR   Ar  131   4.319   0.307   0.099
    1   AR   Ar  132   1.434   1.687  -1.255
    1   AR   Ar  133   4.063   0.137   2.618
    1   AR   Ar  134   4.783   0.953   4.071
    1   AR   Ar  135   5.310   0.898   3.016
    1   AR   Ar  136   5.067   0.176   1.992
    1   AR   Ar  137   2.613   5.768   4.160
    1   AR   Ar  138   5.009   1.824   4.820
    1   AR   Ar  139   5.416   2.455   5.526
    1   AR   Ar  140   3.961   0.193   4.426
    1   AR   Ar  141   3.641   6.294   4.374
    1   AR   Ar  142   4.004   6.761   5.673
    1   AR   Ar  143   6.196   6.824   5.983
    1   AR   Ar  144   5.445   1.368   5.828
    1   AR   Ar  145   3.635   3.881   0.357
    1   AR   Ar  146   4.538   2.424   1.691
    1   AR   Ar  147   5.693   1.911  -2.172
    1   AR   Ar  148   4.400   4.222  -1.799
    1   AR   Ar  149   3.800   2.155   0.830
    1   AR   Ar  150   2.037   1.593   2.589
    1   AR   Ar  151   2.843   2.508   3.209
    1   AR   Ar  152   3.239   2.802   0.147
    1   AR   Ar  153   3.107   0.768   4.390
    1   AR   Ar  154   4.144   1.815   4.111
    1   AR   Ar  155   6.233   0.547   6.723
    1   AR   Ar  156   4.191   4.329   4.555
    1   AR   Ar  157   2.681   3.104   6.073
    1   AR   Ar  158   1.112   3.484   6.725
    1   AR   Ar  159   4.411   1.895   5.730
    1   AR   Ar  160   3.040   1.944   5.878
    1   AR   Ar  161   5.425   3.225   1.519
    1   AR   Ar  162   4.556   6.066  -0.474
    1   AR   Ar  163   5.604   3.248   0.303
    1   AR   Ar  164   3.397   5.658   1.797
    1   AR   Ar  165   3.406   3.336   1.252
    1   AR   Ar  166   3.075   4.232   3.406
    1   AR   Ar  167   4.487   1.780   2.720
    1   AR   Ar  168   4.347   3.105  -0.810
    1   AR   Ar  169   2.867   2.888   2.175
    1   AR   Ar  170   2.640   4.331   5.665
    1   AR   Ar  171   5.587   4.097   3.599
    1   AR   Ar  172   4.688   5.325   4.436
    1   AR   Ar  173   2.114   3.449   7.146
    1   AR   Ar  174   3.622   4.860   6.971
    1   AR   Ar  175   3.782   2.929   6.426
    1   AR   Ar  176   3.698   4.063   5.543
    1   AR   Ar  177   6.342   4.782   0.045
    1   AR   Ar  178   3.209   5.993   0.342
    1   AR   Ar  179   4.331   5.982   0.474
    1   AR   Ar  180   1.676   2.601  -1.814
    1   AR   Ar  181   0.646   5.850   0.922
    1   AR   Ar  182   2.827   0.508   2.583
    1   AR   Ar  183   3.390   5.306   2.961
    1   AR   Ar  184   4.126   6.540   1.739
    1   AR   Ar  185   1.931   4.806   4.221
    1   AR   Ar  186   3.739   5.216   3.964
    1   AR   Ar  187   3.832   6.393   3.116
    1   AR   Ar  188   3.026   6.946   1.740
    1   AR   Ar  189   2.886   2.347   7.765
    1   AR   Ar  190   5.271   6.730   5.381
    1   AR   Ar  191   4.442   4.875   5.985
    1   AR   Ar  192   4.625   5.778   5.365
    1   AR   Ar  193   0.991   6.252  -0.543
    1   AR   Ar  194   5.266   3.879  -1.335
    1   AR   Ar  195   6.011   0.681  -0.081
    1   AR   Ar  196   5.366   7.031  -0.591
    1   AR   Ar  197   5.477   1.623   0.668
    1   AR   Ar  198   7.021   1.008   1.115
    1   AR   Ar  199   4.990   1.490   1.871
    1   AR   Ar  200   6.186   1.971   0.025
    1   AR   Ar  201   4.887   0.063   3.563
    1   AR   Ar  202   5.490   2.849   4.349
    1   AR   Ar  203   6.152   6.240   4.730
    1   AR   Ar  204   5.597   0.005   4.366
    1   AR   Ar  205   5.872   7.053   2.717
    1   AR   Ar  206   4.968   0.560   5.091
    1   AR   Ar  207   0.446   0.410   5.802
    1   AR   Ar  208   6.940   6.984   3.238
    1   AR   Ar  209   5.661   3.119  -2.202
    1   AR   Ar  210   4.386   1.271   1.031
    1   AR   Ar  211   6.636   3.177   0.281
    1   AR   Ar  212   6.245   3.927  -1.203
    1   AR   Ar  213   3.426   1.961   1.757
    1   AR   Ar  214   3.737   3.214   2.741
    1   AR   Ar  215   6.047   2.382   1.366
    1   AR   Ar  216   7.103   4.084   0.893
    1   AR   Ar  217   4.448   2.977   3.958
    1   AR   Ar  218   4.573   3.005   4.990
    1   AR   Ar  219   5.205   1.816   3.425
    1   AR   Ar  220   4.810   3.505   2.313
    1   AR   Ar  221   6.062   0.578   5.332
    1   AR   Ar  222   4.941   1.804   6.654
    1   AR   Ar  223   0.665   1.145   7.031
    1   AR   Ar  224   4.980   3.113   6.245
    1   AR   Ar  225   6.003   4.362   1.459
    1   AR   Ar  226   4.153   4.386   2.466
    1   AR   Ar  227   0.254   4.972   0.414
    1   AR   Ar  228   5.144   6.401   1.020
    1   AR   Ar  229   5.546   4.003  -0.338
    1   AR   Ar  230   4.365   3.823   3.482
    1   AR   Ar  231   6.302   1.685   3.157
    1   AR   Ar  232   4.364   2.967   0.565
    1   AR   Ar  233   6.436   2.634   3.802
    1   AR   Ar  234   6.682   2.890   4.818
    1   AR   Ar  235   0.436   2.359   4.191
    1   AR   Ar  236   5.472   5.051   5.331
    1   AR   Ar  237   5.746   3.960   4.965
    1   AR   Ar  238   4.869   4.034   5.459
    1   AR   Ar  239   6.726   4.014   9.555
    1   AR   Ar  240   6.310   3.421   5.713
    1   AR   Ar  241   0.057   7.012  -1.141
    1   AR   Ar  242   5.344   4.868   0.390
    1   AR   Ar  243   5.738   4.325   2.458
    1   AR   Ar  244   1.199   5.228  -0.419
    1   AR   Ar  245   5.827   0.186   0.960
    1   AR   Ar  246   6.597   6.156   1.489
    1   AR   Ar  247   4.703   3.927   0.910
    1   AR   Ar  248   5.697   5.937  -0.012
    1   AR   Ar  249   4.456   5.614   2.698
    1   AR   Ar  250   4.839   6.377   4.434
    1   AR   Ar  251   5.630   5.432   4.040
    1   AR   Ar  252   4.962   5.987   3.418
    1   AR   Ar  253   5.590   4.146   6.389
    1   AR   Ar  254   3.655   5.523   7.885
    1   AR   Ar  255   4.335   2.551   7.381
    1   AR   Ar  256   6.197   6.202   3.689
    7.12000  7.12000 12.00000
Argon-slab step 2565
  256
    1   AR   Ar    1   6.734   1.309  -0.602
    1   AR   Ar    2   6.943   0.072   0.765
    1   AR   Ar    3   1.225   0.315   0.390
    1   AR   Ar    4   1.748   0.344  -0.571
    1   AR   Ar    5   6.798   6.123   0.394
    1   AR   Ar    6   6.788   0.880   2.768
    1   AR   Ar    7   6.522   4.312   3.250
    1   AR   Ar    8   6.797   0.152   2.075
    1   AR   Ar    9   0.815   0.595   3.639
    1   AR   Ar   10   1.237   1.492   4.235
    1   AR   Ar   11   2.570   6.729   4.567
    1   AR   Ar   12   0.765   1.386   2.811
    1   AR   Ar   13   6.617   1.704   4.937
    1   AR   Ar   14   1.636   1.452   7.611
    1   AR   Ar   15   6.393   0.393   9.562
    1   AR   Ar   16   1.042   0.462   4.563
    1   AR   Ar   17   0.463   1.907  -0.077
    1   AR   Ar   18   6.256   2.980  -0.632
    1   AR   Ar   19   1.625   2.937   1.607
    1   AR   Ar   20   5.417   4.411  -2.256
    1   AR   Ar   21   5.956   0.866   2.090
    1   AR   Ar   22   6.805   1.823   2.072
    1   AR   Ar   23   0.252   0.788   0.074
    1   AR   Ar   24   0.636   2.305   1.207
    1   AR   Ar   25   7.034   1.303   3.783
    1   AR   Ar   26   5.978   1.022   4.244
    1   AR   Ar   27   2.176   1.897   3.711
    1   AR   Ar   28   1.496   2.490   4.483
    1   AR   Ar   29   5.728   2.613   6.615
    1   AR   Ar   30   1.447   1.702   5.818
    1   AR   Ar   31   1.044   6.272   7.726
    1   AR   Ar   32   1.711   2.773   5.967
    1   AR   Ar   33   1.221   3.555  -0.407
    1   AR   Ar   34   0.234   5.473   2.983
    1   AR   Ar   35   6.576   5.039   2.067
    1   AR   Ar   36   7.023   0.513  -3.288
    1   AR   Ar   37   6.348   2.901   2.498
    1   AR   Ar   38   0.033   4.053   2.268
    1   AR   Ar   39   1.601   3.549   3.067
    1   AR   Ar   40   1.049   3.688   1.223
    1   AR   Ar   41   0.161   3.256   3.137
    1   AR   Ar   42   6.216   5.632   5.614
    1   AR   Ar   43   6.429   2.276   5.974
    1   AR   Ar   44   0.924   4.368   3.483
    1   AR   Ar   45   0.862   2.705   5.422
    1   AR   Ar   46   0.999   6.083   6.491
    1   AR   Ar   47   5.742   3.526   7.204
    1   AR   Ar   48   0.326   6.891   6.643
    1   AR   Ar   49   6.538   7.087  -1.881
    1   AR   Ar   50   5.359   5.281   1.609
    1   AR   Ar   51   0.485   5.289   1.984
    1   AR   Ar   52   5.810   4.960  -1.202
    1   AR   Ar   53   5.380   6.253   2.034
    1   AR   Ar   54   6.499   6.156   2.705
    1   AR   Ar   55   5.719   5.178   2.991
    1   AR   Ar   56   1.047   6.830   1.160
    1   AR   Ar   57   5.359   2.975   3.173
    1   AR   Ar   58   6.940   5.269   3.926
    1   AR   Ar   59   1.956   5.268   5.204
    1   AR   Ar   60   0.448   6.655   4.037
    1   AR   Ar   61   6.497   4.548   5.759
    1   AR   Ar   62   0.965   5.422   4.900
    1   AR   Ar   63   2.370   6.211   6.761
    1   AR   Ar   64   1.496   6.679   5.140
    1   AR   Ar   65   3.622   0.073   0.833
    1   AR   Ar   66   1.054   1.322   1.134
    1   AR   Ar   67   3.207   6.184  -0.864
    1   AR   Ar   68   3.056   1.459  -1.167
    1   AR   Ar   69   2.907   1.392   0.758
    1   AR   Ar   70   0.764   0.152   2.411
    1   AR   Ar   71   3.236   1.661   3.540
    1   AR   Ar   72   3.814   0.947   1.951
    1   AR   Ar   73   3.096   6.956   3.629
    1   AR   Ar   74   2.516   1.296   5.078
    1   AR   Ar   75   3.557   1.804   4.952
    1   AR   Ar   76   1.831   0.393   1.574
    1   AR   Ar   77   2.484   6.712   5.763
    1   AR   Ar   78   1.529   7.053   7.248
    1   AR   Ar   79   3.665   6.922   6.776
    1   AR   Ar   80   3.523   5.344   5.893
    1   AR   Ar   81   1.925   1.147   0.219
    1   AR   Ar   82   7.097   5.586  -1.030
    1   AR   Ar   83   1.504   2.271   0.716
    1   AR   Ar   84   0.001   3.944  -0.598
    1   AR   Ar   85   0.573   3.014   0.201
    1   AR   Ar   86   2.302   3.487   0.613
    1   AR   Ar   87   2.303   2.001   1.600
    1   AR   Ar   88   3.223   3.918   2.351
    1   AR   Ar   89   0.166   2.825   2.147
    1   AR   Ar   90   2.576   2.602   5.157
    1   AR   Ar   91   1.223   2.454   3.483
    1   AR   Ar   92   1.087   2.263   2.206
    1   AR   Ar   93   1.857   0.860   6.334
    1   AR   Ar   94   1.319   0.134   9.798
    1   AR   Ar   95   4.011   0.778   6.066
    1   AR   Ar   96   3.254   0.391   5.385
    1   AR   Ar   97   4.630   1.610  -0.414
    1   AR   Ar   98   2.308   4.933   3.064
    1   AR   Ar   99   6.809   2.594  -1.357
    1   AR   Ar  100   2.351   2.025   0.024
    1   AR   Ar  101   2.487   4.461   1.076
    1   AR   Ar  102   3.361   3.211   3.748
    1   AR   Ar  103   1.472   4.394   0.404
    1   AR   Ar  104   3.047   2.508  -1.596
    1   AR   Ar  105   2.108   2.928   3.812
    1   AR   Ar  106   3.226   3.736   4.643
    1   AR   Ar  107   1.646   3.998   5.622
    1   AR   Ar  108   3.608   2.662   5.379
    1   AR   Ar  109   1.439   3.575   4.276
    1   AR   Ar  110   1.013   4.709   6.257
    1   AR   Ar  111   4.717   3.964   7.037
    1   AR   Ar  112   1.754   5.352   7.117
    1   AR   Ar  113   2.648   4.369   0.122
    1   AR   Ar  114   2.307   4.924  -0.856
    1   AR   Ar  115   2.778   3.822  -0.921
    1   AR   Ar  116   5.151   6.317  -1.432
    1   AR   Ar  117   0.888   5.666   3.805
    1   AR   Ar  118   0.800   6.420   3.071
    1   AR   Ar  119   2.236   3.692   1.876
    1   AR   Ar  120   1.576   5.557   2.589
    1   AR   Ar  121   6.439   4.255   4.383
    1   AR   Ar  122   3.025   6.000   5.182
    1   AR   Ar  123   2.842   4.972   4.632
    1   AR   Ar  124   1.654   4.705   1.850
    1   AR   Ar  125   0.203   3.614   6.040
    1   AR   Ar  126   7.009   7.021   4.903
    1   AR   Ar  127   3.149   3.817   6.615
    1   AR   Ar  128   2.373   5.206   6.221
    1   AR   Ar  129   1.927   0.066   2.956
    1   AR   Ar  130   3.960   1.890  -1.909
    1   AR   Ar  131   4.301   0.292   0.076
    1   AR   Ar  132   1.411   1.686  -1.250
    1   AR   Ar  133   4.087   0.185   2.621
    1   AR   Ar  134   4.783   0.965   4.067
    1   AR   Ar  135   5.316   0.880   2.998
    1   AR   Ar  136   5.078   0.168   1.988
    1   AR   Ar  137   2.630   5.771   4.157
    1   AR   Ar  138   5.006   1.823   4.805
    1   AR   Ar  139   5.445   2.461   5.519
    1   AR   Ar  140   3.961   0.190   4.413
    1   AR   Ar  141   3.628   6.271   4.385
    1   AR   Ar  142   4.016   6.747   5.699
    1   AR   Ar  143   6.219   6.804   5.997
    1   AR   Ar  144   5.497   1.389   5.848
    1   AR   Ar  145   3.635   3.870   0.371
    1   AR   Ar  146   4.539   2.431   1.698
    1   AR   Ar  147   5.682   1.911  -2.198
    1   AR   Ar  148   4.390   4.254  -1.800
    1   AR   Ar  149   3.799   2.155   0.842
    1   AR   Ar  150   2.093   1.612   2.592
    1   AR   Ar  151   2.827   2.511   3.190
    1   AR   Ar  152   3.250   2.814   0.121
    1   AR   Ar  153   3.115   0.760   4.411
    1   AR   Ar  154   4.168   1.828   4.087
    1   AR   Ar  155   6.221   0.525   6.744
    1   AR   Ar  156   4.178   4.327   4.546
    1   AR   Ar  157   2.684   3.077   6.056
    1   AR   Ar  158   1.112   3.495   6.724
    1   AR   Ar  159   4.393   1.927   5.716
    1   AR   Ar  160   3.057   1.958   5.875
    1   AR   Ar  161   5.431   3.230   1.519
    1   AR   Ar  162   4.553   6.069  -0.483
    1   AR   Ar  163   5.575   3.247   0.319
    1   AR   Ar  164   3.374   5.664   1.795
    1   AR   Ar  165   3.414   3.354   1.279
    1   AR   Ar  166   3.058   4.263   3.413
    1   AR   Ar  167   4.458   1.788   2.723
    1   AR   Ar  168   4.322   3.116  -0.804
    1   AR   Ar  169   2.879   2.909   2.204
    1   AR   Ar  170   2.641   4.294   5.685
    1   AR   Ar  171   5.559   4.065   3.591
    1   AR   Ar  172   4.708   5.321   4.434
    1   AR   Ar  173   2.115   3.436   7.114
    1   AR   Ar  174   3.585   4.869   7.011
    1   AR   Ar  175   3.802   2.898   6.430
    1   AR   Ar  176   3.705   4.024   5.553
    1   AR   Ar  177   6.376   4.759   0.028
    1   AR   Ar  178   3.186   5.968   0.342
    1   AR   Ar  179   4.368   5.966   0.444
    1   AR   Ar  180   1.671   2.616  -1.811
    1   AR   Ar  181   0.643   5.857   0.916
    1   AR   Ar  182   2.835   0.501   2.634
    1   AR   Ar  183   3.344   5.288   2.948
    1   AR   Ar  184   4.124   6.556   1.746
    1   AR   Ar  185   1.943   4.804   4.218
    1   AR   Ar  186   3.750   5.219   3.969
    1   AR   Ar  187   3.789   6.388   3.154
    1   AR   Ar  188   3.030   6.950   1.740
    1   AR   Ar  189   2.900   2.345   7.770
    1   AR   Ar  190   5.257   6.753   5.397
    1   AR   Ar  191   4.466   4.845   6.013
    1   AR   Ar  192   4.610   5.767   5.367
    1   AR   Ar  193   0.967   6.247  -0.515
    1   AR   Ar  194   5.247   3.865  -1.338
    1   AR   Ar  195   5.989   0.707  -0.065
    1   AR   Ar  196   5.380   7.039  -0.566
    1   AR   Ar  197   5.448   1.583   0.644
    1   AR   Ar  198   6.992   0.985   1.120
    1   AR   Ar  199   5.006   1.470   1.872
    1   AR   Ar  200   6.163   1.977   0.019
    1   AR   Ar  201   4.911   0.071   3.541
    1   AR   Ar  202   5.458   2.880   4.363
    1   AR   Ar  203   6.166   6.240   4.680
    1   AR   Ar  204   5.585   7.117   4.359
    1   AR   Ar  205   5.863   7.049   2.716
    1   AR   Ar  206   4.972   0.572   5.074
    1   AR   Ar  207   0.454   0.436   5.804
    1   AR   Ar  208   6.961   6.992   3.226
    1   AR   Ar  209   5.670   3.123  -2.145
    1   AR   Ar  210   4.380   1.290   0.986
    1   AR   Ar  211   6.609   3.171   0.285
    1   AR   Ar  212   6.307   3.925  -1.197
    1   AR   Ar  213   3.447   1.967   1.735
    1   AR   Ar  214   3.722   3.166   2.723
    1   AR   Ar  215   6.006   2.395   1.388
    1   AR   Ar  216   7.069   4.071   0.898
    1   AR   Ar  217   4.435   3.027   3.988
    1   AR   Ar  218   4.583   3.009   4.978
    1   AR   Ar  219   5.188   1.821   3.444
    1   AR   Ar  220   4.787   3.487   2.276
    1   AR   Ar  221   6.055   0.576   5.318
    1   AR   Ar  222   4.960   1.777   6.668
    1   AR   Ar  223   0.666   1.156   7.047
    1   AR   Ar  224   5.000   3.087   6.242
    1   AR   Ar  225   6.002   4.372   1.431
    1   AR   Ar  226   4.144   4.357   2.461
    1   AR   Ar  227   0.260   4.989   0.394
    1   AR   Ar  228   5.158   6.398   1.013
    1   AR   Ar  229   5.531   4.013  -0.317
    1   AR   Ar  230   4.399   3.823   3.505
    1   AR   Ar  231   6.301   1.697   3.137
    1   AR   Ar  232   4.336   2.993   0.550
    1   AR   Ar  233   6.453   2.607   3.777
    1   AR   Ar  234   6.685   2.843   4.826
    1   AR   Ar  235   0.437   2.374   4.211
    1   AR   Ar  236   5.501   5.057   5.336
    1   AR   Ar  237   5.732   3.954   4.966
    1   AR   Ar  238   4.854   4.041   5.482
    1   AR   Ar  239   6.692   3.997   9.558
    1   AR   Ar  240   6.305   3.410   5.689
    1   AR   Ar  241   0.059   7.012  -1.181
    1   AR   Ar  242   5.364   4.878   0.437
    1   AR   Ar  243   5.750   4.311   2.452
    1   AR   Ar  244   1.224   5.203  -0.431
    1   AR   Ar  245   5.777   0.176   0.997
    1   AR   Ar  246   6.610   6.167   1.469
    1   AR   Ar  247   4.704   3.889   0.929
    1   AR   Ar  248   5.681   5.945   0.002
    1   AR   Ar  249   4.455   5.596   2.688
    1   AR   Ar  250   4.863   6.368   4.432
    1   AR   Ar  251   5.603   5.433   4.055
    1   AR   Ar  252   4.951   5.982   3.403
    1   AR   Ar  253   5.556   4.166   6.403
    1   AR   Ar  254   3.630   5.529   7.908
    1   AR   Ar  255   4.275   2.532   7.353
    1   AR   Ar  256   6.254   6.191   3.654
    7.12000  7.12000 12.00000
Argon-slab step 2570
  256
    1   AR   Ar    1   6.747   1.307  -0.609
    1   AR   Ar    2   6.907   0.043   0.790
    1   AR   Ar    3   1.219   0.344   0.355
    1   AR   Ar    4   1.746   0.342  -0.600
    1   AR   Ar    5   6.789   6.110   0.409
    1   AR   Ar    6   6.792   0.874   2.771
    1   AR   Ar    7   6.536   4.285   3.245
    1   AR   Ar    8   6.788   0.144   2.079
    1   AR   Ar    9   0.840   0.635   3.631
    1   AR   Ar   10   1.196   1.472   4.222
    1   AR   Ar   11   2.554   6.741   4.549
    1   AR   Ar   12   0.804   1.405   2.809
    1   AR   Ar   13   6.602   1.685   4.925
    1   AR   Ar   14   1.634   1.459   7.628
    1   AR   Ar   15   6.437   0.432   9.563
    1   AR   Ar   16   1.042   0.440   4.582
    1   AR   Ar   17   0.475   1.931  -0.059
    1   AR   Ar   18   6.221   2.976  -0.607
    1   AR   Ar   19   1.630   2.930   1.614
    1   AR   Ar   20   5.394   4.453  -2.239
    1   AR   Ar   21   5.930   0.884   2.073
    1   AR   Ar   22   6.810   1.852   2.061
    1   AR   Ar   23   0.274   0.793   0.064
    1   AR   Ar   24   0.643   2.261   1.237
    1   AR   Ar   25   7.018   1.295   3.799
    1   AR   Ar   26   5.989   1.034   4.269
    1   AR   Ar   27   2.172   1.919   3.689
    1   AR   Ar   28   1.519   2.505   4.466
    1   AR   Ar   29   5.736   2.627   6.592
    1   AR   Ar   30   1.495   1.705   5.787
    1   AR   Ar   31   1.027   6.297   7.729
    1   AR   Ar   32   1.699   2.777   5.939
    1   AR   Ar   33   1.193   3.539  -0.410
    1   AR   Ar   34   0.194   5.465   3.018
    1   AR   Ar   35   6.589   5.019   2.062
    1   AR   Ar   36   7.020   0.512  -3.279
    1   AR   Ar   37   6.351   2.876   2.510
    1   AR   Ar   38   0.022   4.075   2.262
    1   AR   Ar   39   1.622   3.511   3.065
    1   AR   Ar   40   1.063   3.707   1.208
    1   AR   Ar   41   0.176   3.306   3.111
    1   AR   Ar   42   6.227   5.622   5.600
    1   AR   Ar   43   6.415   2.247   6.002
    1   AR   Ar   44   0.928   4.367   3.491
    1   AR   Ar   45   0.849   2.699   5.388
    1   AR   Ar   46   0.953   6.097   6.507
    1   AR   Ar   47   5.780   3.523   7.213
    1   AR   Ar   48   0.305   6.917   6.647
    1   AR   Ar   49   6.555   7.075  -1.905
    1   AR   Ar   50   5.381   5.317   1.580
    1   AR   Ar   51   0.526   5.291   1.989
    1   AR   Ar   52   5.793   4.953  -1.193
    1   AR   Ar   53   5.357   6.225   2.032
    1   AR   Ar   54   6.507   6.128   2.663
    1   AR   Ar   55   5.727   5.173   3.014
    1   AR   Ar   56   1.048   6.809   1.153
    1   AR   Ar   57   5.354   2.983   3.169
    1   AR   Ar   58   6.934   5.230   3.912
    1   AR   Ar   59   1.979   5.277   5.200
    1   AR   Ar   60   0.458   6.672   4.069
    1   AR   Ar   61   6.478   4.542   5.735
    1   AR   Ar   62   0.973   5.425   4.919
    1   AR   Ar   63   2.405   6.235   6.782
    1   AR   Ar   64   1.489   6.669   5.118
    1   AR   Ar   65   3.609   0.079   0.844
    1   AR   Ar   66   1.041   1.331   1.186
    1   AR   Ar   67   3.196   6.179  -0.873
    1   AR   Ar   68   3.067   1.430  -1.178
    1   AR   Ar   69   2.911   1.415   0.759
    1   AR   Ar   70   0.748   0.110   2.384
    1   AR   Ar   71   3.200   1.688   3.553
    1   AR   Ar   72   3.796   0.976   1.953
    1   AR   Ar   73   3.062   6.985   3.613
    1   AR   Ar   74   2.568   1.293   5.100
    1   AR   Ar   75   3.525   1.777   4.924
    1   AR   Ar   76   1.804   0.400   1.584
    1   AR   Ar   77   2.502   6.726   5.768
    1   AR   Ar   78   1.553   7.078   7.276
    1   AR   Ar   79   3.675   6.924   6.766
    1   AR   Ar   80   3.523   5.342   5.862
    1   AR   Ar   81   1.962   1.134   0.229
    1   AR   Ar   82   7.096   5.614  -1.012
    1   AR   Ar   83   1.541   2.286   0.741
    1   AR   Ar   84   7.074   3.940  -0.611
    1   AR   Ar   85   0.555   3.049   0.180
    1   AR   Ar   86   2.308   3.485   0.619
    1   AR   Ar   87   2.292   2.002   1.636
    1   AR   Ar   88   3.207   3.912   2.311
    1   AR   Ar   89   0.191   2.840   2.126
    1   AR   Ar   90   2.560   2.633   5.168
    1   AR   Ar   91   1.216   2.433   3.463
    1   AR   Ar   92   1.102   2.292   2.191
    1   AR   Ar   93   1.848   0.847   6.335
    1   AR   Ar   94   1.299   0.115   9.823
    1   AR   Ar   95   4.014   0.796   6.040
    1   AR   Ar   96   3.246   0.365   5.377
    1   AR   Ar   97   4.659   1.571  -0.381
    1   AR   Ar   98   2.307   4.901   3.087
    1   AR   Ar   99   6.813   2.602  -1.375
    1   AR   Ar  100   2.366   2.032   0.034
    1   AR   Ar  101   2.491   4.445   1.067
    1   AR   Ar  102   3.367   3.184   3.741
    1   AR   Ar  103   1.452   4.391   0.404
    1   AR   Ar  104   3.025   2.543  -1.605
    1   AR   Ar  105   2.131   2.887   3.836
    1   AR   Ar  106   3.242   3.708   4.642
    1   AR   Ar  107   1.658   4.006   5.615
    1   AR   Ar  108   3.628   2.670   5.375
    1   AR   Ar  109   1.441   3.576   4.236
    1   AR   Ar  110   1.042   4.730   6.236
    1   AR   Ar  111   4.700   3.985   6.994
    1   AR   Ar  112   1.747   5.353   7.131
    1   AR   Ar  113   2.649   4.376   0.100
    1   AR   Ar  114   2.304   4.965  -0.834
    1   AR   Ar  115   2.779   3.840  -0.901
    1   AR   Ar  116   5.127   6.308  -1.418
    1   AR   Ar  117   0.883   5.671   3.833
    1   AR   Ar  118   0.809   6.406   3.075
    1   AR   Ar  119   2.225   3.683   1.853
    1   AR   Ar  120   1.573   5.580   2.570
    1   AR   Ar  121   6.439   4.262   4.361
    1   AR   Ar  122   2.986   6.005   5.187
    1   AR   Ar  123   2.841   4.977   4.669
    1   AR   Ar  124   1.651   4.715   1.873
    1   AR   Ar  125   0.224   3.599   6.032
    1   AR   Ar  126   7.017   7.030   4.885
    1   AR   Ar  127   3.155   3.833   6.626
    1   AR   Ar  128   2.414   5.228   6.208
    1   AR   Ar  129   1.922   0.033   2.971
    1   AR   Ar  130   3.972   1.882  -1.905
    1   AR   Ar  131   4.287   0.279   0.050
    1   AR   Ar  132   1.388   1.685  -1.244
    1   AR   Ar  133   4.110   0.229   2.601
    1   AR   Ar  134   4.786   0.977   4.063
    1   AR   Ar  135   5.323   0.862   2.978
    1   AR   Ar  136   5.087   0.161   1.984
    1   AR   Ar  137   2.643   5.787   4.142
    1   AR   Ar  138   5.003   1.820   4.788
    1   AR   Ar  139   5.476   2.468   5.510
    1   AR   Ar  140   3.968   0.183   4.401
    1   AR   Ar  141   3.618   6.248   4.393
    1   AR   Ar  142   4.028   6.732   5.723
    1   AR   Ar  143   6.244   6.784   6.008
    1   AR   Ar  144   5.549   1.409   5.865
    1   AR   Ar  145   3.643   3.852   0.360
    1   AR   Ar  146   4.538   2.439   1.705
    1   AR   Ar  147   5.671   1.912  -2.224
    1   AR   Ar  148   4.378   4.287  -1.801
    1   AR   Ar  149   3.798   2.158   0.843
    1   AR   Ar  150   2.148   1.630   2.598
    1   AR   Ar  151   2.811   2.519   3.161
    1   AR   Ar  152   3.261   2.826   0.097
    1   AR   Ar  153   3.119   0.754   4.426
    1   AR   Ar  154   4.193   1.844   4.060
    1   AR   Ar  155   6.213   0.504   6.765
    1   AR   Ar  156   4.166   4.324   4.537
    1   AR   Ar  157   2.693   3.051   6.043
    1   AR   Ar  158   1.111   3.506   6.721
    1   AR   Ar  159   4.375   1.960   5.702
    1   AR   Ar  160   3.070   1.968   5.877
    1   AR   Ar  161   5.438   3.238   1.515
    1   AR   Ar  162   4.555   6.074  -0.503
    1   AR   Ar  163   5.542   3.238   0.342
    1   AR   Ar  164   3.352   5.671   1.793
    1   AR   Ar  165   3.422   3.370   1.309
    1   AR   Ar  166   3.045   4.292   3.421
    1   AR   Ar  167   4.423   1.796   2.724
    1   AR   Ar  168   4.304   3.117  -0.802
    1   AR   Ar  169   2.885   2.925   2.227
    1   AR   Ar  170   2.646   4.258   5.704
    1   AR   Ar  171   5.528   4.066   3.572
    1   AR   Ar  172   4.717   5.311   4.434
    1   AR   Ar  173   2.118   3.423   7.081
    1   AR   Ar  174   3.549   4.876   7.048
    1   AR   Ar  175   3.822   2.867   6.433
    1   AR   Ar  176   3.714   3.984   5.565
    1   AR   Ar  177   6.410   4.735   0.009
    1   AR   Ar  178   3.164   5.943   0.342
    1   AR   Ar  179   4.399   5.948   0.435
    1   AR   Ar  180   1.667   2.632  -1.808
    1   AR   Ar  181   0.646   5.857   0.925
    1   AR   Ar  182   2.847   0.496   2.684
    1   AR   Ar  183   3.352   5.282   2.926
    1   AR   Ar  184   4.123   6.573   1.754
    1   AR   Ar  185   1.958   4.817   4.209
    1   AR   Ar  186   3.758   5.222   3.974
    1   AR   Ar  187   3.751   6.377   3.191
    1   AR   Ar  188   3.035   6.953   1.740
    1   AR   Ar  189   2.913   2.343   7.773
    1   AR   Ar  190   5.285   6.768   5.387
    1   AR   Ar  191   4.490   4.817   6.042
    1   AR   Ar  192   4.593   5.759   5.373
    1   AR   Ar  193   0.942   6.243  -0.486
    1   AR   Ar  194   5.228   3.847  -1.340
    1   AR   Ar  195   5.967   0.733  -0.046
    1   AR   Ar  196   5.371   7.064  -0.556
    1   AR   Ar  197   5.415   1.541   0.625
    1   AR   Ar  198   6.963   0.975   1.131
    1   AR   Ar  199   5.025   1.446   1.872
    1   AR   Ar  200   6.144   1.987   0.010
    1   AR   Ar  201   4.932   0.072   3.516
    1   AR   Ar  202   5.429   2.910   4.377
    1   AR   Ar  203   6.178   6.241   4.636
    1   AR   Ar  204   5.578   7.111   4.353
    1   AR   Ar  205   5.855   7.046   2.717
    1   AR   Ar  206   4.974   0.589   5.057
    1   AR   Ar  207   0.463   0.461   5.804
    1   AR   Ar  208   6.981   7.003   3.213
    1   AR   Ar  209   5.680   3.129  -2.086
    1   AR   Ar  210   4.374   1.307   0.941
    1   AR   Ar  211   6.588   3.166   0.298
    1   AR   Ar  212   6.363   3.923  -1.196
    1   AR   Ar  213   3.462   1.972   1.726
    1   AR   Ar  214   3.720   3.108   2.713
    1   AR   Ar  215   5.969   2.402   1.409
    1   AR   Ar  216   7.035   4.056   0.904
    1   AR   Ar  217   4.421   3.051   4.023
    1   AR   Ar  218   4.594   3.014   4.978
    1   AR   Ar  219   5.176   1.830   3.470
    1   AR   Ar  220   4.762   3.470   2.243
    1   AR   Ar  221   6.047   0.573   5.304
    1   AR   Ar  222   4.978   1.754   6.685
    1   AR   Ar  223   0.641   1.153   7.065
    1   AR   Ar  224   4.999   3.076   6.232
    1   AR   Ar  225   6.001   4.381   1.398
    1   AR   Ar  226   4.139   4.331   2.458
    1   AR   Ar  227   0.267   5.006   0.373
    1   AR   Ar  228   5.183   6.413   1.003
    1   AR   Ar  229   5.519   4.032  -0.300
    1   AR   Ar  230   4.431   3.848   3.510
    1   AR   Ar  231   6.293   1.716   3.116
    1   AR   Ar  232   4.308   3.019   0.534
    1   AR   Ar  233   6.470   2.579   3.750
    1   AR   Ar  234   6.688   2.796   4.834
    1   AR   Ar  235   0.434   2.387   4.232
    1   AR   Ar  236   5.514   5.050   5.334
    1   AR   Ar  237   5.710   3.942   4.974
    1   AR   Ar  238   4.835   4.044   5.507
    1   AR   Ar  239   6.657   3.980   9.561
    1   AR   Ar  240   6.298   3.397   5.669
    1   AR   Ar  241   0.077   7.009  -1.204
    1   AR   Ar  242   5.378   4.849   0.468
    1   AR   Ar  243   5.762   4.290   2.446
    1   AR   Ar  244   1.249   5.175  -0.442
    1   AR   Ar  245   5.728   0.168   1.035
    1   AR   Ar  246   6.623   6.177   1.450
    1   AR   Ar  247   4.707   3.854   0.950
    1   AR   Ar  248   5.662   5.957   0.001
    1   AR   Ar  249   4.419   5.577   2.662
    1   AR   Ar  250   4.885   6.359   4.429
    1   AR   Ar  251   5.590   5.434   4.068
    1   AR   Ar  252   4.951   5.986   3.403
    1   AR   Ar  253   5.568   4.148   6.398
    1   AR   Ar  254   3.604   5.535   7.931
    1   AR   Ar  255   4.216   2.513   7.324
    1   AR   Ar  256   6.309   6.182   3.625
    7.12000  7.12000 12.00000
Argon-slab step 2575
  256
    1   AR   Ar    1   6.759   1.307  -0.616
    1   AR   Ar    2   6.870   0.004   0.813
    1   AR   Ar    3   1.212   0.374   0.319
    1   AR   Ar    4   1.744   0.340  -0.630
    1   AR   Ar    5   6.780   6.096   0.420
    1   AR   Ar    6   6.791   0.869   2.797
    1   AR   Ar    7   6.553   4.260   3.239
    1   AR   Ar    8   6.790   0.111   2.082
    1   AR   Ar    9   0.861   0.675   3.610
    1   AR   Ar   10   1.156   1.455   4.208
    1   AR   Ar   11   2.536   6.759   4.534
    1   AR   Ar   12   0.842   1.425   2.807
    1   AR   Ar   13   6.587   1.660   4.960
    1   AR   Ar   14   1.620   1.471   7.657
    1   AR   Ar   15   6.480   0.471   9.565
    1   AR   Ar   16   1.042   0.413   4.612
    1   AR   Ar   17   0.486   1.954  -0.040
    1   AR   Ar   18   6.180   2.973  -0.587
    1   AR   Ar   19   1.636   2.916   1.616
    1   AR   Ar   20   5.373   4.495  -2.222
    1   AR   Ar   21   5.906   0.902   2.054
    1   AR   Ar   22   6.815   1.881   2.051
    1   AR   Ar   23   0.295   0.797   0.057
    1   AR   Ar   24   0.640   2.224   1.267
    1   AR   Ar   25   7.004   1.287   3.817
    1   AR   Ar   26   5.997   1.048   4.293
    1   AR   Ar   27   2.163   1.924   3.669
    1   AR   Ar   28   1.536   2.509   4.466
    1   AR   Ar   29   5.755   2.632   6.586
    1   AR   Ar   30   1.544   1.709   5.754
    1   AR   Ar   31   1.009   6.319   7.732
    1   AR   Ar   32   1.689   2.782   5.914
    1   AR   Ar   33   1.173   3.530  -0.417
    1   AR   Ar   34   0.157   5.459   3.045
    1   AR   Ar   35   6.603   5.000   2.064
    1   AR   Ar   36   7.016   0.511  -3.268
    1   AR   Ar   37   6.348   2.850   2.525
    1   AR   Ar   38   0.010   4.096   2.257
    1   AR   Ar   39   1.642   3.473   3.063
    1   AR   Ar   40   1.075   3.729   1.192
    1   AR   Ar   41   0.184   3.344   3.083
    1   AR   Ar   42   6.254   5.626   5.592
    1   AR   Ar   43   6.412   2.213   6.019
    1   AR   Ar   44   0.933   4.366   3.499
    1   AR   Ar   45   0.831   2.692   5.348
    1   AR   Ar   46   0.944   6.072   6.514
    1   AR   Ar   47   5.818   3.520   7.223
    1   AR   Ar   48   0.282   6.945   6.651
    1   AR   Ar   49   6.559   7.068  -1.909
    1   AR   Ar   50   5.405   5.347   1.548
    1   AR   Ar   51   0.569   5.293   1.992
    1   AR   Ar   52   5.776   4.944  -1.184
    1   AR   Ar   53   5.336   6.202   2.037
    1   AR   Ar   54   6.517   6.098   2.608
    1   AR   Ar   55   5.736   5.172   3.038
    1   AR   Ar   56   1.049   6.788   1.149
    1   AR   Ar   57   5.349   2.992   3.167
    1   AR   Ar   58   6.924   5.189   3.905
    1   AR   Ar   59   2.003   5.287   5.198
    1   AR   Ar   60   0.470   6.689   4.100
    1   AR   Ar   61   6.502   4.510   5.732
    1   AR   Ar   62   0.978   5.429   4.938
    1   AR   Ar   63   2.440   6.259   6.803
    1   AR   Ar   64   1.482   6.658   5.095
    1   AR   Ar   65   3.594   0.085   0.856
    1   AR   Ar   66   1.032   1.332   1.237
    1   AR   Ar   67   3.185   6.175  -0.881
    1   AR   Ar   68   3.078   1.403  -1.189
    1   AR   Ar   69   2.917   1.438   0.763
    1   AR   Ar   70   0.732   0.071   2.356
    1   AR   Ar   71   3.170   1.706   3.570
    1   AR   Ar   72   3.778   1.007   1.952
    1   AR   Ar   73   3.024   7.018   3.600
    1   AR   Ar   74   2.615   1.293   5.128
    1   AR   Ar   75   3.494   1.741   4.891
    1   AR   Ar   76   1.778   0.407   1.594
    1   AR   Ar   77   2.519   6.743   5.775
    1   AR   Ar   78   1.578   7.107   7.301
    1   AR   Ar   79   3.684   6.927   6.755
    1   AR   Ar   80   3.524   5.338   5.830
    1   AR   Ar   81   1.994   1.114   0.241
    1   AR   Ar   82   7.096   5.642  -0.993
    1   AR   Ar   83   1.556   2.290   0.760
    1   AR   Ar   84   7.055   3.936  -0.598
    1   AR   Ar   85   0.532   3.079   0.167
    1   AR   Ar   86   2.313   3.480   0.626
    1   AR   Ar   87   2.282   2.005   1.668
    1   AR   Ar   88   3.185   3.911   2.269
    1   AR   Ar   89   0.219   2.856   2.101
    1   AR   Ar   90   2.529   2.646   5.205
    1   AR   Ar   91   1.208   2.411   3.439
    1   AR   Ar   92   1.116   2.315   2.184
    1   AR   Ar   93   1.843   0.838   6.330
    1   AR   Ar   94   1.279   0.095   9.848
    1   AR   Ar   95   4.017   0.813   6.013
    1   AR   Ar   96   3.239   0.335   5.371
    1   AR   Ar   97   4.689   1.531  -0.346
    1   AR   Ar   98   2.309   4.879   3.070
    1   AR   Ar   99   6.817   2.572  -1.385
    1   AR   Ar  100   2.373   2.048   0.031
    1   AR   Ar  101   2.492   4.431   1.071
    1   AR   Ar  102   3.373   3.158   3.735
    1   AR   Ar  103   1.433   4.387   0.403
    1   AR   Ar  104   3.002   2.577  -1.614
    1   AR   Ar  105   2.168   2.867   3.852
    1   AR   Ar  106   3.250   3.697   4.642
    1   AR   Ar  107   1.634   4.016   5.603
    1   AR   Ar  108   3.652   2.692   5.371
    1   AR   Ar  109   1.440   3.581   4.196
    1   AR   Ar  110   1.071   4.752   6.216
    1   AR   Ar  111   4.681   4.005   6.949
    1   AR   Ar  112   1.737   5.364   7.151
    1   AR   Ar  113   2.648   4.374   0.083
    1   AR   Ar  114   2.302   5.005  -0.811
    1   AR   Ar  115   2.780   3.858  -0.880
    1   AR   Ar  116   5.105   6.300  -1.403
    1   AR   Ar  117   0.880   5.673   3.863
    1   AR   Ar  118   0.820   6.393   3.077
    1   AR   Ar  119   2.212   3.697   1.845
    1   AR   Ar  120   1.568   5.604   2.551
    1   AR   Ar  121   6.445   4.272   4.333
    1   AR   Ar  122   2.947   6.005   5.193
    1   AR   Ar  123   2.858   4.978   4.674
    1   AR   Ar  124   1.651   4.714   1.873
    1   AR   Ar  125   0.246   3.583   6.024
    1   AR   Ar  126   7.023   7.040   4.870
    1   AR   Ar  127   3.150   3.831   6.639
    1   AR   Ar  128   2.456   5.252   6.194
    1   AR   Ar  129   1.915   0.000   2.986
    1   AR   Ar  130   3.987   1.890  -1.880
    1   AR   Ar  131   4.276   0.266   0.023
    1   AR   Ar  132   1.365   1.683  -1.238
    1   AR   Ar  133   4.136   0.269   2.585
    1   AR   Ar  134   4.790   0.987   4.060
    1   AR   Ar  135   5.330   0.848   2.955
    1   AR   Ar  136   5.093   0.156   1.980
    1   AR   Ar  137   2.654   5.808   4.118
    1   AR   Ar  138   5.001   1.816   4.770
    1   AR   Ar  139   5.507   2.476   5.500
    1   AR   Ar  140   3.973   0.168   4.396
    1   AR   Ar  141   3.612   6.226   4.397
    1   AR   Ar  142   4.041   6.718   5.744
    1   AR   Ar  143   6.268   6.764   6.018
    1   AR   Ar  144   5.603   1.429   5.879
    1   AR   Ar  145   3.655   3.830   0.332
    1   AR   Ar  146   4.537   2.449   1.711
    1   AR   Ar  147   5.665   1.906  -2.234
    1   AR   Ar  148   4.364   4.321  -1.804
    1   AR   Ar  149   3.799   2.166   0.829
    1   AR   Ar  150   2.203   1.648   2.608
    1   AR   Ar  151   2.796   2.531   3.125
    1   AR   Ar  152   3.271   2.839   0.073
    1   AR   Ar  153   3.121   0.751   4.432
    1   AR   Ar  154   4.217   1.864   4.032
    1   AR   Ar  155   6.211   0.487   6.784
    1   AR   Ar  156   4.154   4.321   4.528
    1   AR   Ar  157   2.708   3.033   6.042
    1   AR   Ar  158   1.108   3.521   6.708
    1   AR   Ar  159   4.359   1.993   5.689
    1   AR   Ar  160   3.082   1.974   5.885
    1   AR   Ar  161   5.444   3.254   1.507
    1   AR   Ar  162   4.560   6.082  -0.541
    1   AR   Ar  163   5.537   3.237   0.386
    1   AR   Ar  164   3.330   5.679   1.793
    1   AR   Ar  165   3.428   3.384   1.339
    1   AR   Ar  166   3.038   4.316   3.433
    1   AR   Ar  167   4.386   1.804   2.723
    1   AR   Ar  168   4.301   3.114  -0.786
    1   AR   Ar  169   2.881   2.935   2.237
    1   AR   Ar  170   2.657   4.223   5.722
    1   AR   Ar  171   5.495   4.090   3.545
    1   AR   Ar  172   4.709   5.295   4.440
    1   AR   Ar  173   2.124   3.409   7.047
    1   AR   Ar  174   3.513   4.883   7.082
    1   AR   Ar  175   3.840   2.839   6.430
    1   AR   Ar  176   3.724   3.945   5.580
    1   AR   Ar  177   6.443   4.709  -0.011
    1   AR   Ar  178   3.143   5.919   0.342
    1   AR   Ar  179   4.425   5.927   0.444
    1   AR   Ar  180   1.664   2.626  -1.802
    1   AR   Ar  181   0.647   5.856   0.936
    1   AR   Ar  182   2.861   0.492   2.732
    1   AR   Ar  183   3.361   5.276   2.903
    1   AR   Ar  184   4.124   6.589   1.761
    1   AR   Ar  185   1.953   4.816   4.201
    1   AR   Ar  186   3.762   5.225   3.977
    1   AR   Ar  187   3.720   6.361   3.225
    1   AR   Ar  188   3.040   6.957   1.743
    1   AR   Ar  189   2.928   2.342   7.776
    1   AR   Ar  190   5.270   6.770   5.374
    1   AR   Ar  191   4.511   4.794   6.076
    1   AR   Ar  192   4.576   5.753   5.382
    1   AR   Ar  193   0.916   6.241  -0.457
    1   AR   Ar  194   5.211   3.828  -1.339
    1   AR   Ar  195   5.946   0.760  -0.025
    1   AR   Ar  196   5.361   7.088  -0.545
    1   AR   Ar  197   5.380   1.497   0.608
    1   AR   Ar  198   6.935   0.975   1.146
    1   AR   Ar  199   5.044   1.422   1.871
    1   AR   Ar  200   6.127   1.999   0.001
    1   AR   Ar  201   4.950   0.065   3.490
    1   AR   Ar  202   5.406   2.939   4.388
    1   AR   Ar  203   6.189   6.242   4.599
    1   AR   Ar  204   5.576   7.110   4.348
    1   AR   Ar  205   5.848   7.041   2.719
    1   AR   Ar  206   4.973   0.607   5.037
    1   AR   Ar  207   0.454   0.474   5.803
    1   AR   Ar  208   7.001   7.014   3.197
    1   AR   Ar  209   5.690   3.135  -2.027
    1   AR   Ar  210   4.370   1.319   0.897
    1   AR   Ar  211   6.574   3.163   0.320
    1   AR   Ar  212   6.388   3.920  -1.219
    1   AR   Ar  213   3.470   1.977   1.734
    1   AR   Ar  214   3.734   3.049   2.710
    1   AR   Ar  215   5.948   2.397   1.423
    1   AR   Ar  216   7.001   4.041   0.910
    1   AR   Ar  217   4.404   3.054   4.055
    1   AR   Ar  218   4.604   3.018   4.998
    1   AR   Ar  219   5.167   1.842   3.499
    1   AR   Ar  220   4.732   3.453   2.215
    1   AR   Ar  221   6.041   0.569   5.289
    1   AR   Ar  222   4.994   1.733   6.702
    1   AR   Ar  223   0.600   1.133   7.077
    1   AR   Ar  224   4.973   3.082   6.212
    1   AR   Ar  225   5.999   4.388   1.362
    1   AR   Ar  226   4.138   4.308   2.457
    1   AR   Ar  227   0.276   5.023   0.351
    1   AR   Ar  228   5.207   6.424   0.991
    1   AR   Ar  229   5.508   4.055  -0.288
    1   AR   Ar  230   4.461   3.892   3.502
    1   AR   Ar  231   6.281   1.737   3.094
    1   AR   Ar  232   4.281   3.041   0.514
    1   AR   Ar  233   6.477   2.562   3.748
    1   AR   Ar  234   6.690   2.749   4.843
    1   AR   Ar  235   0.431   2.400   4.254
    1   AR   Ar  236   5.509   5.028   5.325
    1   AR   Ar  237   5.683   3.927   4.983
    1   AR   Ar  238   4.839   4.037   5.544
    1   AR   Ar  239   6.622   3.963   9.564
    1   AR   Ar  240   6.298   3.384   5.652
    1   AR   Ar  241   0.110   7.004  -1.210
    1   AR   Ar  242   5.392   4.821   0.499
    1   AR   Ar  243   5.772   4.265   2.439
    1   AR   Ar  244   1.274   5.147  -0.451
    1   AR   Ar  245   5.684   0.165   1.074
    1   AR   Ar  246   6.636   6.189   1.436
    1   AR   Ar  247   4.713   3.826   0.973
    1   AR   Ar  248   5.660   5.937  -0.014
    1   AR   Ar  249   4.377   5.554   2.627
    1   AR   Ar  250   4.902   6.349   4.428
    1   AR   Ar  251   5.597   5.438   4.077
    1   AR   Ar  252   4.955   5.996   3.409
    1   AR   Ar  253   5.592   4.121   6.384
    1   AR   Ar  254   3.579   5.541   7.954
    1   AR   Ar  255   4.159   2.492   7.298
    1   AR   Ar  256   6.362   6.174   3.601
    7.12000  7.12000 12.00000
Argon-slab step 2580
  256
    1   AR   Ar    1   6.771   1.308  -0.625
    1   AR   Ar    2   6.832   7.081   0.835
    1   AR   Ar    3   1.207   0.403   0.286
    1   AR   Ar    4   1.743   0.338  -0.659
    1   AR   Ar    5   6.787   6.093   0.423
    1   AR   Ar    6   6.792   0.865   2.824
    1   AR   Ar    7   6.571   4.236   3.232
    1   AR   Ar    8   6.790   0.075   2.081
    1   AR   Ar    9   0.850   0.679   3.597
    1   AR   Ar   10   1.116   1.444   4.196
    1   AR   Ar   11   2.519   6.782   4.522
    1   AR   Ar   12   0.880   1.444   2.805
    1   AR   Ar   13   6.572   1.636   4.996
    1   AR   Ar   14   1.604   1.483   7.685
    1   AR   Ar   15   6.523   0.510   9.567
    1   AR   Ar   16   1.041   0.386   4.646
    1   AR   Ar   17   0.497   1.976  -0.020
    1   AR   Ar   18   6.134   2.971  -0.573
    1   AR   Ar   19   1.645   2.904   1.610
    1   AR   Ar   20   5.353   4.538  -2.203
    1   AR   Ar   21   5.890   0.916   2.036
    1   AR   Ar   22   6.820   1.908   2.041
    1   AR   Ar   23   0.314   0.802   0.051
    1   AR   Ar   24   0.626   2.201   1.295
    1   AR   Ar   25   6.992   1.280   3.835
    1   AR   Ar   26   6.002   1.061   4.314
    1   AR   Ar   27   2.146   1.909   3.651
    1   AR   Ar   28   1.542   2.500   4.484
    1   AR   Ar   29   5.774   2.636   6.596
    1   AR   Ar   30   1.593   1.715   5.719
    1   AR   Ar   31   0.989   6.338   7.734
    1   AR   Ar   32   1.680   2.791   5.893
    1   AR   Ar   33   1.161   3.527  -0.432
    1   AR   Ar   34   0.125   5.456   3.057
    1   AR   Ar   35   6.615   4.985   2.068
    1   AR   Ar   36   7.012   0.511  -3.258
    1   AR   Ar   37   6.344   2.823   2.542
    1   AR   Ar   38   7.103   4.115   2.263
    1   AR   Ar   39   1.662   3.434   3.061
    1   AR   Ar   40   1.086   3.750   1.175
    1   AR   Ar   41   0.164   3.328   3.045
    1   AR   Ar   42   6.288   5.639   5.587
    1   AR   Ar   43   6.423   2.172   6.025
    1   AR   Ar   44   0.938   4.365   3.507
    1   AR   Ar   45   0.808   2.685   5.305
    1   AR   Ar   46   0.944   6.036   6.519
    1   AR   Ar   47   5.854   3.515   7.235
    1   AR   Ar   48   0.258   6.973   6.657
    1   AR   Ar   49   6.553   7.063  -1.926
    1   AR   Ar   50   5.430   5.367   1.510
    1   AR   Ar   51   0.613   5.295   1.995
    1   AR   Ar   52   5.759   4.933  -1.173
    1   AR   Ar   53   5.330   6.208   2.046
    1   AR   Ar   54   6.527   6.069   2.542
    1   AR   Ar   55   5.746   5.172   3.061
    1   AR   Ar   56   1.050   6.771   1.148
    1   AR   Ar   57   5.343   3.000   3.165
    1   AR   Ar   58   6.906   5.145   3.913
    1   AR   Ar   59   2.007   5.307   5.207
    1   AR   Ar   60   0.485   6.704   4.126
    1   AR   Ar   61   6.562   4.468   5.747
    1   AR   Ar   62   0.982   5.433   4.957
    1   AR   Ar   63   2.474   6.282   6.823
    1   AR   Ar   64   1.477   6.645   5.072
    1   AR   Ar   65   3.581   0.091   0.869
    1   AR   Ar   66   1.029   1.320   1.286
    1   AR   Ar   67   3.175   6.169  -0.888
    1   AR   Ar   68   3.089   1.378  -1.200
    1   AR   Ar   69   2.924   1.462   0.769
    1   AR   Ar   70   0.716   0.033   2.328
    1   AR   Ar   71   3.149   1.716   3.591
    1   AR   Ar   72   3.762   1.037   1.948
    1   AR   Ar   73   2.984   7.054   3.592
    1   AR   Ar   74   2.652   1.294   5.162
    1   AR   Ar   75   3.470   1.708   4.855
    1   AR   Ar   76   1.751   0.416   1.604
    1   AR   Ar   77   2.532   6.762   5.783
    1   AR   Ar   78   1.605   0.017   7.322
    1   AR   Ar   79   3.692   6.930   6.743
    1   AR   Ar   80   3.525   5.333   5.799
    1   AR   Ar   81   2.024   1.091   0.254
    1   AR   Ar   82   7.096   5.671  -0.972
    1   AR   Ar   83   1.533   2.275   0.772
    1   AR   Ar   84   7.066   3.931  -0.554
    1   AR   Ar   85   0.500   3.103   0.162
    1   AR   Ar   86   2.317   3.471   0.634
    1   AR   Ar   87   2.273   2.011   1.690
    1   AR   Ar   88   3.163   3.917   2.230
    1   AR   Ar   89   0.238   2.875   2.088
    1   AR   Ar   90   2.490   2.646   5.226
    1   AR   Ar   91   1.199   2.389   3.411
    1   AR   Ar   92   1.124   2.328   2.188
    1   AR   Ar   93   1.859   0.843   6.295
    1   AR   Ar   94   1.259   0.076   9.873
    1   AR   Ar   95   4.021   0.831   5.985
    1   AR   Ar   96   3.232   0.304   5.368
    1   AR   Ar   97   4.719   1.490  -0.310
    1   AR   Ar   98   2.305   4.865   3.039
    1   AR   Ar   99   6.820   2.542  -1.395
    1   AR   Ar  100   2.357   2.086   0.062
    1   AR   Ar  101   2.491   4.420   1.085
    1   AR   Ar  102   3.380   3.134   3.729
    1   AR   Ar  103   1.415   4.384   0.401
    1   AR   Ar  104   2.979   2.611  -1.622
    1   AR   Ar  105   2.218   2.875   3.863
    1   AR   Ar  106   3.257   3.686   4.644
    1   AR   Ar  107   1.606   4.023   5.592
    1   AR   Ar  108   3.672   2.723   5.364
    1   AR   Ar  109   1.439   3.587   4.156
    1   AR   Ar  110   1.076   4.755   6.201
    1   AR   Ar  111   4.665   4.022   6.912
    1   AR   Ar  112   1.727   5.382   7.159
    1   AR   Ar  113   2.645   4.359   0.084
    1   AR   Ar  114   2.302   5.043  -0.788
    1   AR   Ar  115   2.781   3.875  -0.859
    1   AR   Ar  116   5.104   6.269  -1.406
    1   AR   Ar  117   0.876   5.673   3.893
    1   AR   Ar  118   0.830   6.380   3.078
    1   AR   Ar  119   2.201   3.721   1.842
    1   AR   Ar  120   1.562   5.628   2.534
    1   AR   Ar  121   6.451   4.284   4.304
    1   AR   Ar  122   2.924   5.992   5.202
    1   AR   Ar  123   2.878   4.972   4.670
    1   AR   Ar  124   1.651   4.709   1.866
    1   AR   Ar  125   0.266   3.568   6.014
    1   AR   Ar  126   7.024   7.054   4.861
    1   AR   Ar  127   3.148   3.830   6.651
    1   AR   Ar  128   2.498   5.276   6.182
    1   AR   Ar  129   1.906   7.086   3.002
    1   AR   Ar  130   4.001   1.898  -1.853
    1   AR   Ar  131   4.268   0.252  -0.004
    1   AR   Ar  132   1.343   1.682  -1.230
    1   AR   Ar  133   4.163   0.305   2.573
    1   AR   Ar  134   4.797   0.994   4.054
    1   AR   Ar  135   5.338   0.841   2.931
    1   AR   Ar  136   5.097   0.153   1.976
    1   AR   Ar  137   2.663   5.830   4.089
    1   AR   Ar  138   5.001   1.812   4.753
    1   AR   Ar  139   5.538   2.485   5.486
    1   AR   Ar  140   3.972   0.143   4.405
    1   AR   Ar  141   3.605   6.217   4.405
    1   AR   Ar  142   4.052   6.702   5.741
    1   AR   Ar  143   6.294   6.745   6.025
    1   AR   Ar  144   5.657   1.448   5.889
    1   AR   Ar  145   3.662   3.814   0.303
    1   AR   Ar  146   4.546   2.454   1.702
    1   AR   Ar  147   5.667   1.887  -2.219
    1   AR   Ar  148   4.349   4.355  -1.806
    1   AR   Ar  149   3.799   2.179   0.804
    1   AR   Ar  150   2.257   1.664   2.625
    1   AR   Ar  151   2.782   2.542   3.088
    1   AR   Ar  152   3.280   2.851   0.050
    1   AR   Ar  153   3.122   0.749   4.428
    1   AR   Ar  154   4.236   1.888   4.002
    1   AR   Ar  155   6.221   0.469   6.793
    1   AR   Ar  156   4.143   4.316   4.521
    1   AR   Ar  157   2.733   3.026   6.064
    1   AR   Ar  158   1.099   3.543   6.663
    1   AR   Ar  159   4.346   2.024   5.677
    1   AR   Ar  160   3.092   1.979   5.895
    1   AR   Ar  161   5.450   3.276   1.498
    1   AR   Ar  162   4.565   6.092  -0.583
    1   AR   Ar  163   5.517   3.241   0.396
    1   AR   Ar  164   3.310   5.688   1.794
    1   AR   Ar  165   3.436   3.397   1.368
    1   AR   Ar  166   3.036   4.335   3.446
    1   AR   Ar  167   4.347   1.812   2.722
    1   AR   Ar  168   4.295   3.122  -0.761
    1   AR   Ar  169   2.865   2.941   2.227
    1   AR   Ar  170   2.671   4.190   5.739
    1   AR   Ar  171   5.466   4.115   3.518
    1   AR   Ar  172   4.690   5.274   4.451
    1   AR   Ar  173   2.133   3.394   7.011
    1   AR   Ar  174   3.476   4.888   7.113
    1   AR   Ar  175   3.854   2.815   6.416
    1   AR   Ar  176   3.736   3.905   5.597
    1   AR   Ar  177   6.472   4.681  -0.031
    1   AR   Ar  178   3.123   5.895   0.341
    1   AR   Ar  179   4.450   5.905   0.462
    1   AR   Ar  180   1.662   2.613  -1.807
    1   AR   Ar  181   0.645   5.852   0.946
    1   AR   Ar  182   2.878   0.490   2.777
    1   AR   Ar  183   3.369   5.270   2.881
    1   AR   Ar  184   4.126   6.611   1.720
    1   AR   Ar  185   1.925   4.797   4.200
    1   AR   Ar  186   3.763   5.227   3.978
    1   AR   Ar  187   3.694   6.340   3.257
    1   AR   Ar  188   3.045   6.961   1.748
    1   AR   Ar  189   2.942   2.341   7.778
    1   AR   Ar  190   5.258   6.769   5.362
    1   AR   Ar  191   4.528   4.781   6.117
    1   AR   Ar  192   4.559   5.748   5.392
    1   AR   Ar  193   0.888   6.238  -0.428
    1   AR   Ar  194   5.196   3.809  -1.337
    1   AR   Ar  195   5.926   0.788  -0.002
    1   AR   Ar  196   5.350   7.109  -0.533
    1   AR   Ar  197   5.345   1.453   0.592
    1   AR   Ar  198   6.907   0.981   1.165
    1   AR   Ar  199   5.046   1.449   1.840
    1   AR   Ar  200   6.111   2.013  -0.009
    1   AR   Ar  201   4.963   0.052   3.465
    1   AR   Ar  202   5.393   2.967   4.395
    1   AR   Ar  203   6.198   6.242   4.569
    1   AR   Ar  204   5.580   7.115   4.343
    1   AR   Ar  205   5.845   7.035   2.722
    1   AR   Ar  206   4.968   0.615   5.006
    1   AR   Ar  207   0.447   0.465   5.793
    1   AR   Ar  208   7.021   7.023   3.182
    1   AR   Ar  209   5.681   3.139  -1.995
    1   AR   Ar  210   4.366   1.326   0.856
    1   AR   Ar  211   6.566   3.162   0.349
    1   AR   Ar  212   6.380   3.916  -1.269
    1   AR   Ar  213   3.472   1.984   1.753
    1   AR   Ar  214   3.761   2.991   2.712
    1   AR   Ar  215   5.945   2.379   1.427
    1   AR   Ar  216   6.967   4.026   0.915
    1   AR   Ar  217   4.381   3.050   4.074
    1   AR   Ar  218   4.626   3.020   5.017
    1   AR   Ar  219   5.161   1.855   3.529
    1   AR   Ar  220   4.700   3.435   2.192
    1   AR   Ar  221   6.036   0.563   5.274
    1   AR   Ar  222   5.008   1.715   6.720
    1   AR   Ar  223   0.561   1.111   7.088
    1   AR   Ar  224   4.934   3.096   6.186
    1   AR   Ar  225   6.008   4.358   1.362
    1   AR   Ar  226   4.138   4.288   2.459
    1   AR   Ar  227   0.287   5.039   0.329
    1   AR   Ar  228   5.226   6.426   0.978
    1   AR   Ar  229   5.500   4.080  -0.278
    1   AR   Ar  230   4.488   3.943   3.487
    1   AR   Ar  231   6.265   1.760   3.071
    1   AR   Ar  232   4.257   3.055   0.491
    1   AR   Ar  233   6.476   2.553   3.762
    1   AR   Ar  234   6.690   2.702   4.853
    1   AR   Ar  235   0.427   2.412   4.275
    1   AR   Ar  236   5.502   5.023   5.295
    1   AR   Ar  237   5.658   3.912   4.989
    1   AR   Ar  238   4.799   4.041   5.592
    1   AR   Ar  239   6.587   3.946   9.567
    1   AR   Ar  240   6.317   3.374   5.647
    1   AR   Ar  241   0.154   6.998  -1.203
    1   AR   Ar  242   5.376   4.824   0.519
    1   AR   Ar  243   5.783   4.239   2.431
    1   AR   Ar  244   1.297   5.118  -0.459
    1   AR   Ar  245   5.648   0.173   1.112
    1   AR   Ar  246   6.648   6.201   1.429
    1   AR   Ar  247   4.722   3.804   0.999
    1   AR   Ar  248   5.657   5.916  -0.028
    1   AR   Ar  249   4.335   5.531   2.590
    1   AR   Ar  250   4.914   6.337   4.427
    1   AR   Ar  251   5.621   5.443   4.082
    1   AR   Ar  252   4.960   6.008   3.415
    1   AR   Ar  253   5.616   4.095   6.364
    1   AR   Ar  254   3.554   5.548   7.977
    1   AR   Ar  255   4.106   2.467   7.281
    1   AR   Ar  256   6.415   6.164   3.578
    7.12000  7.12000 12.00000
Argon-slab step 2585
  256
    1   AR   Ar    1   6.781   1.311  -0.634
    1   AR   Ar    2   6.795   7.040   0.857
    1   AR   Ar    3   1.206   0.427   0.258
    1   AR   Ar    4   1.741   0.338  -0.689
    1   AR   Ar    5   6.805   6.094   0.418
    1   AR   Ar    6   6.792   0.864   2.849
    1   AR   Ar    7   6.589   4.213   3.223
    1   AR   Ar    8   6.787   0.036   2.077
    1   AR   Ar    9   0.829   0.668   3.582
    1   AR   Ar   10   1.091   1.439   4.190
    1   AR   Ar   11   2.501   6.808   4.514
    1   AR   Ar   12   0.917   1.464   2.804
    1   AR   Ar   13   6.556   1.611   5.034
    1   AR   Ar   14   1.598   1.492   7.709
    1   AR   Ar   15   6.566   0.549   9.569
    1   AR   Ar   16   1.038   0.363   4.680
    1   AR   Ar   17   0.508   1.998   0.002
    1   AR   Ar   18   6.086   2.970  -0.564
    1   AR   Ar   19   1.656   2.892   1.599
    1   AR   Ar   20   5.334   4.579  -2.184
    1   AR   Ar   21   5.884   0.927   2.016
    1   AR   Ar   22   6.824   1.933   2.031
    1   AR   Ar   23   0.326   0.810   0.046
    1   AR   Ar   24   0.599   2.192   1.319
    1   AR   Ar   25   6.981   1.274   3.854
    1   AR   Ar   26   6.003   1.073   4.332
    1   AR   Ar   27   2.119   1.883   3.637
    1   AR   Ar   28   1.541   2.487   4.509
    1   AR   Ar   29   5.787   2.644   6.612
    1   AR   Ar   30   1.642   1.722   5.681
    1   AR   Ar   31   0.970   6.356   7.735
    1   AR   Ar   32   1.676   2.805   5.921
    1   AR   Ar   33   1.157   3.532  -0.453
    1   AR   Ar   34   0.099   5.458   3.055
    1   AR   Ar   35   6.623   4.977   2.071
    1   AR   Ar   36   7.003   0.527  -3.255
    1   AR   Ar   37   6.338   2.797   2.559
    1   AR   Ar   38   7.079   4.128   2.269
    1   AR   Ar   39   1.682   3.395   3.058
    1   AR   Ar   40   1.096   3.771   1.161
    1   AR   Ar   41   0.143   3.313   3.010
    1   AR   Ar   42   6.326   5.654   5.581
    1   AR   Ar   43   6.445   2.128   6.022
    1   AR   Ar   44   0.943   4.365   3.515
    1   AR   Ar   45   0.782   2.679   5.262
    1   AR   Ar   46   0.957   6.009   6.515
    1   AR   Ar   47   5.891   3.510   7.248
    1   AR   Ar   48   0.285   6.960   6.652
    1   AR   Ar   49   6.541   7.057  -1.947
    1   AR   Ar   50   5.457   5.379   1.468
    1   AR   Ar   51   0.655   5.297   1.998
    1   AR   Ar   52   5.741   4.920  -1.162
    1   AR   Ar   53   5.343   6.253   2.063
    1   AR   Ar   54   6.535   6.041   2.473
    1   AR   Ar   55   5.759   5.173   3.081
    1   AR   Ar   56   1.051   6.761   1.148
    1   AR   Ar   57   5.339   2.985   3.173
    1   AR   Ar   58   6.884   5.100   3.931
    1   AR   Ar   59   1.981   5.339   5.227
    1   AR   Ar   60   0.505   6.715   4.144
    1   AR   Ar   61   6.582   4.426   5.738
    1   AR   Ar   62   0.985   5.438   4.975
    1   AR   Ar   63   2.508   6.305   6.843
    1   AR   Ar   64   1.473   6.629   5.051
    1   AR   Ar   65   3.570   0.097   0.880
    1   AR   Ar   66   1.033   1.293   1.335
    1   AR   Ar   67   3.165   6.164  -0.893
    1   AR   Ar   68   3.101   1.354  -1.211
    1   AR   Ar   69   2.933   1.486   0.778
    1   AR   Ar   70   0.702   7.118   2.300
    1   AR   Ar   71   3.135   1.721   3.614
    1   AR   Ar   72   3.746   1.062   1.943
    1   AR   Ar   73   2.945   7.085   3.594
    1   AR   Ar   74   2.661   1.309   5.142
    1   AR   Ar   75   3.463   1.683   4.813
    1   AR   Ar   76   1.723   0.425   1.613
    1   AR   Ar   77   2.542   6.781   5.795
    1   AR   Ar   78   1.632   0.048   7.342
    1   AR   Ar   79   3.699   6.934   6.731
    1   AR   Ar   80   3.529   5.326   5.767
    1   AR   Ar   81   2.053   1.068   0.268
    1   AR   Ar   82   7.096   5.700  -0.950
    1   AR   Ar   83   1.517   2.247   0.794
    1   AR   Ar   84   7.088   3.925  -0.498
    1   AR   Ar   85   0.462   3.122   0.166
    1   AR   Ar   86   2.320   3.459   0.643
    1   AR   Ar   87   2.264   2.020   1.704
    1   AR   Ar   88   3.141   3.931   2.195
    1   AR   Ar   89   0.244   2.894   2.093
    1   AR   Ar   90   2.448   2.636   5.224
    1   AR   Ar   91   1.213   2.371   3.421
    1   AR   Ar   92   1.125   2.331   2.204
    1   AR   Ar   93   1.875   0.846   6.260
    1   AR   Ar   94   1.238   0.057   9.898
    1   AR   Ar   95   4.025   0.849   5.955
    1   AR   Ar   96   3.229   0.273   5.366
    1   AR   Ar   97   4.748   1.449  -0.273
    1   AR   Ar   98   2.291   4.857   3.004
    1   AR   Ar   99   6.822   2.512  -1.404
    1   AR   Ar  100   2.342   2.128   0.092
    1   AR   Ar  101   2.490   4.412   1.106
    1   AR   Ar  102   3.386   3.110   3.722
    1   AR   Ar  103   1.400   4.381   0.397
    1   AR   Ar  104   2.965   2.632  -1.626
    1   AR   Ar  105   2.273   2.900   3.873
    1   AR   Ar  106   3.262   3.675   4.647
    1   AR   Ar  107   1.578   4.029   5.580
    1   AR   Ar  108   3.632   2.705   5.354
    1   AR   Ar  109   1.436   3.594   4.117
    1   AR   Ar  110   1.064   4.746   6.190
    1   AR   Ar  111   4.661   4.030   6.904
    1   AR   Ar  112   1.720   5.400   7.116
    1   AR   Ar  113   2.643   4.344   0.080
    1   AR   Ar  114   2.305   5.081  -0.764
    1   AR   Ar  115   2.782   3.892  -0.838
    1   AR   Ar  116   5.122   6.224  -1.425
    1   AR   Ar  117   0.848   5.638   3.919
    1   AR   Ar  118   0.850   6.381   3.088
    1   AR   Ar  119   2.184   3.740   1.831
    1   AR   Ar  120   1.555   5.652   2.518
    1   AR   Ar  121   6.455   4.292   4.278
    1   AR   Ar  122   2.918   5.976   5.203
    1   AR   Ar  123   2.875   4.953   4.654
    1   AR   Ar  124   1.644   4.696   1.853
    1   AR   Ar  125   0.284   3.552   6.001
    1   AR   Ar  126   7.018   7.071   4.858
    1   AR   Ar  127   3.147   3.830   6.664
    1   AR   Ar  128   2.499   5.291   6.167
    1   AR   Ar  129   1.896   7.052   3.018
    1   AR   Ar  130   4.013   1.907  -1.825
    1   AR   Ar  131   4.261   0.259  -0.030
    1   AR   Ar  132   1.320   1.681  -1.221
    1   AR   Ar  133   4.192   0.337   2.564
    1   AR   Ar  134   4.804   0.997   4.045
    1   AR   Ar  135   5.345   0.841   2.907
    1   AR   Ar  136   5.095   0.150   1.976
    1   AR   Ar  137   2.671   5.850   4.055
    1   AR   Ar  138   5.003   1.809   4.737
    1   AR   Ar  139   5.567   2.495   5.470
    1   AR   Ar  140   3.975   0.117   4.413
    1   AR   Ar  141   3.586   6.250   4.431
    1   AR   Ar  142   4.063   6.687   5.729
    1   AR   Ar  143   6.319   6.726   6.031
    1   AR   Ar  144   5.709   1.466   5.896
    1   AR   Ar  145   3.662   3.809   0.273
    1   AR   Ar  146   4.560   2.456   1.682
    1   AR   Ar  147   5.668   1.869  -2.205
    1   AR   Ar  148   4.334   4.389  -1.807
    1   AR   Ar  149   3.796   2.195   0.775
    1   AR   Ar  150   2.311   1.676   2.649
    1   AR   Ar  151   2.768   2.547   3.059
    1   AR   Ar  152   3.286   2.862   0.027
    1   AR   Ar  153   3.122   0.746   4.416
    1   AR   Ar  154   4.248   1.916   3.973
    1   AR   Ar  155   6.248   0.448   6.786
    1   AR   Ar  156   4.133   4.310   4.514
    1   AR   Ar  157   2.764   3.029   6.104
    1   AR   Ar  158   1.093   3.565   6.618
    1   AR   Ar  159   4.337   2.051   5.667
    1   AR   Ar  160   3.103   1.983   5.907
    1   AR   Ar  161   5.462   3.300   1.490
    1   AR   Ar  162   4.566   6.101  -0.619
    1   AR   Ar  163   5.490   3.246   0.397
    1   AR   Ar  164   3.290   5.698   1.795
    1   AR   Ar  165   3.444   3.406   1.393
    1   AR   Ar  166   3.026   4.353   3.450
    1   AR   Ar  167   4.308   1.820   2.719
    1   AR   Ar  168   4.288   3.131  -0.734
    1   AR   Ar  169   2.843   2.947   2.194
    1   AR   Ar  170   2.688   4.163   5.748
    1   AR   Ar  171   5.449   4.142   3.493
    1   AR   Ar  172   4.668   5.250   4.464
    1   AR   Ar  173   2.140   3.390   6.985
    1   AR   Ar  174   3.440   4.892   7.141
    1   AR   Ar  175   3.863   2.799   6.387
    1   AR   Ar  176   3.747   3.864   5.616
    1   AR   Ar  177   6.497   4.654  -0.051
    1   AR   Ar  178   3.104   5.872   0.341
    1   AR   Ar  179   4.472   5.881   0.481
    1   AR   Ar  180   1.661   2.601  -1.812
    1   AR   Ar  181   0.640   5.843   0.957
    1   AR   Ar  182   2.894   0.496   2.812
    1   AR   Ar  183   3.373   5.263   2.861
    1   AR   Ar  184   4.089   6.601   1.701
    1   AR   Ar  185   1.895   4.778   4.197
    1   AR   Ar  186   3.759   5.229   3.976
    1   AR   Ar  187   3.671   6.317   3.289
    1   AR   Ar  188   3.049   6.964   1.757
    1   AR   Ar  189   2.957   2.340   7.779
    1   AR   Ar  190   5.246   6.766   5.351
    1   AR   Ar  191   4.538   4.788   6.169
    1   AR   Ar  192   4.541   5.744   5.404
    1   AR   Ar  193   0.859   6.236  -0.398
    1   AR   Ar  194   5.181   3.792  -1.331
    1   AR   Ar  195   5.908   0.814   0.020
    1   AR   Ar  196   5.338   0.009  -0.521
    1   AR   Ar  197   5.317   1.411   0.580
    1   AR   Ar  198   6.880   0.989   1.184
    1   AR   Ar  199   5.040   1.491   1.800
    1   AR   Ar  200   6.096   2.027  -0.017
    1   AR   Ar  201   4.972   0.034   3.442
    1   AR   Ar  202   5.392   2.993   4.395
    1   AR   Ar  203   6.207   6.244   4.548
    1   AR   Ar  204   5.588   0.005   4.339
    1   AR   Ar  205   5.844   7.027   2.726
    1   AR   Ar  206   4.962   0.625   4.978
    1   AR   Ar  207   0.448   0.450   5.826
    1   AR   Ar  208   7.042   7.029   3.167
    1   AR   Ar  209   5.669   3.142  -1.970
    1   AR   Ar  210   4.358   1.327   0.818
    1   AR   Ar  211   6.561   3.162   0.381
    1   AR   Ar  212   6.359   3.911  -1.328
    1   AR   Ar  213   3.470   1.999   1.778
    1   AR   Ar  214   3.795   2.934   2.716
    1   AR   Ar  215   5.945   2.355   1.431
    1   AR   Ar  216   6.935   4.012   0.919
    1   AR   Ar  217   4.355   3.044   4.081
    1   AR   Ar  218   4.653   3.021   5.043
    1   AR   Ar  219   5.161   1.871   3.556
    1   AR   Ar  220   4.666   3.416   2.172
    1   AR   Ar  221   6.032   0.556   5.260
    1   AR   Ar  222   5.021   1.700   6.736
    1   AR   Ar  223   0.522   1.089   7.099
    1   AR   Ar  224   4.890   3.113   6.158
    1   AR   Ar  225   6.019   4.318   1.371
    1   AR   Ar  226   4.138   4.273   2.463
    1   AR   Ar  227   0.299   5.055   0.306
    1   AR   Ar  228   5.240   6.415   0.963
    1   AR   Ar  229   5.491   4.100  -0.265
    1   AR   Ar  230   4.503   3.993   3.471
    1   AR   Ar  231   6.247   1.783   3.047
    1   AR   Ar  232   4.242   3.057   0.467
    1   AR   Ar  233   6.475   2.545   3.777
    1   AR   Ar  234   6.689   2.656   4.865
    1   AR   Ar  235   0.425   2.421   4.294
    1   AR   Ar  236   5.501   5.023   5.253
    1   AR   Ar  237   5.633   3.897   4.993
    1   AR   Ar  238   4.765   4.028   5.628
    1   AR   Ar  239   6.553   3.929   9.570
    1   AR   Ar  240   6.336   3.363   5.644
    1   AR   Ar  241   0.203   6.991  -1.190
    1   AR   Ar  242   5.354   4.830   0.538
    1   AR   Ar  243   5.793   4.211   2.424
    1   AR   Ar  244   1.316   5.089  -0.465
    1   AR   Ar  245   5.623   0.196   1.148
    1   AR   Ar  246   6.658   6.212   1.429
    1   AR   Ar  247   4.730   3.791   1.026
    1   AR   Ar  248   5.653   5.896  -0.041
    1   AR   Ar  249   4.297   5.510   2.552
    1   AR   Ar  250   4.922   6.322   4.428
    1   AR   Ar  251   5.652   5.448   4.088
    1   AR   Ar  252   4.965   6.020   3.418
    1   AR   Ar  253   5.640   4.070   6.339
    1   AR   Ar  254   3.528   5.556   8.001
    1   AR   Ar  255   4.058   2.435   7.278
    1   AR   Ar  256   6.468   6.154   3.552
    7.12000  7.12000 12.00000
Argon-slab step 2590
  256
    1   AR   Ar    1   6.790   1.315  -0.642
    1   AR   Ar    2   6.758   7.009   0.877
    1   AR   Ar    3   1.215   0.445   0.234
    1   AR   Ar    4   1.735   0.338  -0.714
    1   AR   Ar    5   6.823   6.090   0.404
    1   AR   Ar    6   6.792   0.865   2.870
    1   AR   Ar    7   6.589   4.196   3.205
    1   AR   Ar    8   6.780   7.118   2.072
    1   AR   Ar    9   0.805   0.650   3.563
    1   AR   Ar   10   1.083   1.438   4.191
    1   AR   Ar   11   2.484   6.835   4.512
    1   AR   Ar   12   0.953   1.483   2.803
    1   AR   Ar   13   6.542   1.586   5.075
    1   AR   Ar   14   1.606   1.497   7.726
    1   AR   Ar   15   6.591   0.558   9.574
    1   AR   Ar   16   1.033   0.345   4.713
    1   AR   Ar   17   0.519   2.019   0.024
    1   AR   Ar   18   6.037   2.972  -0.558
    1   AR   Ar   19   1.656   2.866   1.601
    1   AR   Ar   20   5.316   4.620  -2.163
    1   AR   Ar   21   5.886   0.935   1.994
    1   AR   Ar   22   6.828   1.956   2.021
    1   AR   Ar   23   0.327   0.823   0.040
    1   AR   Ar   24   0.564   2.191   1.341
    1   AR   Ar   25   6.971   1.269   3.873
    1   AR   Ar   26   5.999   1.085   4.345
    1   AR   Ar   27   2.088   1.853   3.629
    1   AR   Ar   28   1.539   2.471   4.535
    1   AR   Ar   29   5.795   2.654   6.630
    1   AR   Ar   30   1.692   1.731   5.641
    1   AR   Ar   31   0.950   6.374   7.734
    1   AR   Ar   32   1.669   2.795   5.928
    1   AR   Ar   33   1.131   3.527  -0.443
    1   AR   Ar   34   0.078   5.460   3.045
    1   AR   Ar   35   6.624   4.981   2.073
    1   AR   Ar   36   7.011   0.533  -3.276
    1   AR   Ar   37   6.332   2.771   2.576
    1   AR   Ar   38   7.064   4.140   2.271
    1   AR   Ar   39   1.693   3.370   3.049
    1   AR   Ar   40   1.105   3.787   1.152
    1   AR   Ar   41   0.131   3.293   3.000
    1   AR   Ar   42   6.365   5.671   5.575
    1   AR   Ar   43   6.479   2.088   6.016
    1   AR   Ar   44   0.947   4.366   3.521
    1   AR   Ar   45   0.755   2.673   5.221
    1   AR   Ar   46   0.978   5.988   6.504
    1   AR   Ar   47   5.927   3.507   7.261
    1   AR   Ar   48   0.325   6.934   6.647
    1   AR   Ar   49   6.529   7.052  -1.969
    1   AR   Ar   50   5.441   5.365   1.454
    1   AR   Ar   51   0.695   5.299   2.002
    1   AR   Ar   52   5.723   4.906  -1.150
    1   AR   Ar   53   5.358   6.297   2.082
    1   AR   Ar   54   6.541   6.016   2.404
    1   AR   Ar   55   5.786   5.144   3.076
    1   AR   Ar   56   1.054   6.756   1.150
    1   AR   Ar   57   5.334   2.965   3.184
    1   AR   Ar   58   6.865   5.065   3.951
    1   AR   Ar   59   1.960   5.371   5.247
    1   AR   Ar   60   0.530   6.722   4.153
    1   AR   Ar   61   6.577   4.383   5.715
    1   AR   Ar   62   0.983   5.443   4.994
    1   AR   Ar   63   2.541   6.327   6.861
    1   AR   Ar   64   1.473   6.607   5.031
    1   AR   Ar   65   3.562   0.105   0.889
    1   AR   Ar   66   1.041   1.257   1.384
    1   AR   Ar   67   3.155   6.157  -0.897
    1   AR   Ar   68   3.113   1.331  -1.223
    1   AR   Ar   69   2.944   1.511   0.789
    1   AR   Ar   70   0.691   7.083   2.271
    1   AR   Ar   71   3.128   1.724   3.640
    1   AR   Ar   72   3.733   1.079   1.937
    1   AR   Ar   73   2.908   7.103   3.615
    1   AR   Ar   74   2.646   1.317   5.134
    1   AR   Ar   75   3.478   1.670   4.764
    1   AR   Ar   76   1.695   0.434   1.624
    1   AR   Ar   77   2.546   6.797   5.809
    1   AR   Ar   78   1.659   0.079   7.360
    1   AR   Ar   79   3.705   6.938   6.718
    1   AR   Ar   80   3.536   5.317   5.737
    1   AR   Ar   81   2.083   1.045   0.282
    1   AR   Ar   82   7.097   5.729  -0.926
    1   AR   Ar   83   1.502   2.213   0.817
    1   AR   Ar   84   7.113   3.914  -0.442
    1   AR   Ar   85   0.452   3.127   0.196
    1   AR   Ar   86   2.323   3.444   0.653
    1   AR   Ar   87   2.257   2.032   1.709
    1   AR   Ar   88   3.122   3.955   2.170
    1   AR   Ar   89   0.241   2.874   2.089
    1   AR   Ar   90   2.433   2.623   5.211
    1   AR   Ar   91   1.224   2.355   3.430
    1   AR   Ar   92   1.126   2.326   2.233
    1   AR   Ar   93   1.892   0.847   6.226
    1   AR   Ar   94   1.218   0.037   9.922
    1   AR   Ar   95   4.012   0.855   5.932
    1   AR   Ar   96   3.231   0.245   5.361
    1   AR   Ar   97   4.773   1.422  -0.246
    1   AR   Ar   98   2.270   4.854   2.964
    1   AR   Ar   99   6.824   2.483  -1.412
    1   AR   Ar  100   2.329   2.171   0.122
    1   AR   Ar  101   2.490   4.407   1.130
    1   AR   Ar  102   3.388   3.088   3.715
    1   AR   Ar  103   1.387   4.381   0.389
    1   AR   Ar  104   2.955   2.644  -1.626
    1   AR   Ar  105   2.329   2.931   3.888
    1   AR   Ar  106   3.265   3.664   4.650
    1   AR   Ar  107   1.551   4.032   5.567
    1   AR   Ar  108   3.587   2.695   5.336
    1   AR   Ar  109   1.435   3.599   4.079
    1   AR   Ar  110   1.051   4.738   6.181
    1   AR   Ar  111   4.657   4.034   6.896
    1   AR   Ar  112   1.714   5.418   7.072
    1   AR   Ar  113   2.640   4.333   0.075
    1   AR   Ar  114   2.313   5.119  -0.741
    1   AR   Ar  115   2.785   3.905  -0.821
    1   AR   Ar  116   5.147   6.180  -1.452
    1   AR   Ar  117   0.818   5.601   3.944
    1   AR   Ar  118   0.869   6.383   3.110
    1   AR   Ar  119   2.160   3.751   1.816
    1   AR   Ar  120   1.549   5.676   2.503
    1   AR   Ar  121   6.449   4.288   4.259
    1   AR   Ar  122   2.903   5.978   5.189
    1   AR   Ar  123   2.874   4.933   4.640
    1   AR   Ar  124   1.636   4.683   1.839
    1   AR   Ar  125   0.300   3.544   5.986
    1   AR   Ar  126   7.007   7.092   4.863
    1   AR   Ar  127   3.150   3.832   6.680
    1   AR   Ar  128   2.466   5.295   6.145
    1   AR   Ar  129   1.885   7.018   3.035
    1   AR   Ar  130   4.025   1.915  -1.796
    1   AR   Ar  131   4.257   0.295  -0.052
    1   AR   Ar  132   1.305   1.665  -1.223
    1   AR   Ar  133   4.182   0.370   2.569
    1   AR   Ar  134   4.811   0.996   4.030
    1   AR   Ar  135   5.350   0.846   2.883
    1   AR   Ar  136   5.084   0.151   1.986
    1   AR   Ar  137   2.678   5.868   4.019
    1   AR   Ar  138   5.007   1.807   4.724
    1   AR   Ar  139   5.596   2.507   5.453
    1   AR   Ar  140   3.983   0.091   4.422
    1   AR   Ar  141   3.584   6.262   4.447
    1   AR   Ar  142   4.073   6.672   5.714
    1   AR   Ar  143   6.345   6.708   6.035
    1   AR   Ar  144   5.754   1.476   5.900
    1   AR   Ar  145   3.653   3.820   0.242
    1   AR   Ar  146   4.573   2.459   1.661
    1   AR   Ar  147   5.670   1.853  -2.189
    1   AR   Ar  148   4.318   4.423  -1.808
    1   AR   Ar  149   3.785   2.215   0.769
    1   AR   Ar  150   2.365   1.682   2.675
    1   AR   Ar  151   2.754   2.545   3.040
    1   AR   Ar  152   3.289   2.874   0.060
    1   AR   Ar  153   3.121   0.741   4.396
    1   AR   Ar  154   4.240   1.928   3.960
    1   AR   Ar  155   6.277   0.428   6.778
    1   AR   Ar  156   4.123   4.302   4.509
    1   AR   Ar  157   2.798   3.033   6.149
    1   AR   Ar  158   1.094   3.589   6.574
    1   AR   Ar  159   4.335   2.074   5.659
    1   AR   Ar  160   3.114   1.985   5.920
    1   AR   Ar  161   5.482   3.322   1.486
    1   AR   Ar  162   4.561   6.109  -0.644
    1   AR   Ar  163   5.461   3.249   0.399
    1   AR   Ar  164   3.272   5.709   1.798
    1   AR   Ar  165   3.456   3.410   1.409
    1   AR   Ar  166   3.024   4.367   3.459
    1   AR   Ar  167   4.269   1.828   2.716
    1   AR   Ar  168   4.282   3.141  -0.706
    1   AR   Ar  169   2.819   2.954   2.142
    1   AR   Ar  170   2.709   4.155   5.725
    1   AR   Ar  171   5.452   4.172   3.469
    1   AR   Ar  172   4.650   5.225   4.478
    1   AR   Ar  173   2.131   3.403   6.993
    1   AR   Ar  174   3.403   4.895   7.165
    1   AR   Ar  175   3.868   2.788   6.347
    1   AR   Ar  176   3.754   3.820   5.635
    1   AR   Ar  177   6.516   4.628  -0.069
    1   AR   Ar  178   3.086   5.849   0.339
    1   AR   Ar  179   4.494   5.856   0.499
    1   AR   Ar  180   1.660   2.587  -1.816
    1   AR   Ar  181   0.633   5.831   0.969
    1   AR   Ar  182   2.910   0.516   2.826
    1   AR   Ar  183   3.369   5.253   2.845
    1   AR   Ar  184   4.055   6.590   1.683
    1   AR   Ar  185   1.863   4.759   4.192
    1   AR   Ar  186   3.750   5.231   3.970
    1   AR   Ar  187   3.649   6.292   3.321
    1   AR   Ar  188   3.051   6.968   1.770
    1   AR   Ar  189   2.973   2.340   7.779
    1   AR   Ar  190   5.236   6.762   5.343
    1   AR   Ar  191   4.545   4.804   6.223
    1   AR   Ar  192   4.524   5.740   5.417
    1   AR   Ar  193   0.829   6.232  -0.367
    1   AR   Ar  194   5.164   3.779  -1.322
    1   AR   Ar  195   5.896   0.837   0.038
    1   AR   Ar  196   5.281   0.017  -0.520
    1   AR   Ar  197   5.298   1.375   0.576
    1   AR   Ar  198   6.853   0.997   1.205
    1   AR   Ar  199   5.028   1.508   1.772
    1   AR   Ar  200   6.081   2.040  -0.025
    1   AR   Ar  201   4.979   0.011   3.420
    1   AR   Ar  202   5.402   3.016   4.387
    1   AR   Ar  203   6.214   6.247   4.533
    1   AR   Ar  204   5.594   0.020   4.364
    1   AR   Ar  205   5.847   7.016   2.730
    1   AR   Ar  206   4.955   0.635   4.957
    1   AR   Ar  207   0.450   0.437   5.854
    1   AR   Ar  208   7.065   7.031   3.153
    1   AR   Ar  209   5.661   3.142  -1.948
    1   AR   Ar  210   4.342   1.323   0.783
    1   AR   Ar  211   6.553   3.160   0.415
    1   AR   Ar  212   6.335   3.906  -1.386
    1   AR   Ar  213   3.463   2.025   1.803
    1   AR   Ar  214   3.831   2.876   2.719
    1   AR   Ar  215   5.946   2.329   1.435
    1   AR   Ar  216   6.907   4.000   0.923
    1   AR   Ar  217   4.330   3.038   4.080
    1   AR   Ar  218   4.668   3.023   5.081
    1   AR   Ar  219   5.170   1.888   3.578
    1   AR   Ar  220   4.631   3.396   2.154
    1   AR   Ar  221   6.029   0.546   5.248
    1   AR   Ar  222   5.033   1.686   6.752
    1   AR   Ar  223   0.485   1.065   7.109
    1   AR   Ar  224   4.847   3.128   6.131
    1   AR   Ar  225   6.027   4.279   1.379
    1   AR   Ar  226   4.137   4.261   2.469
    1   AR   Ar  227   0.314   5.069   0.283
    1   AR   Ar  228   5.254   6.397   0.949
    1   AR   Ar  229   5.477   4.098  -0.236
    1   AR   Ar  230   4.498   4.039   3.455
    1   AR   Ar  231   6.227   1.805   3.022
    1   AR   Ar  232   4.240   3.050   0.444
    1   AR   Ar  233   6.475   2.539   3.792
    1   AR   Ar  234   6.684   2.613   4.879
    1   AR   Ar  235   0.425   2.429   4.307
    1   AR   Ar  236   5.515   4.996   5.223
    1   AR   Ar  237   5.608   3.883   4.997
    1   AR   Ar  238   4.740   4.002   5.652
    1   AR   Ar  239   6.518   3.912   9.572
    1   AR   Ar  240   6.353   3.349   5.644
    1   AR   Ar  241   0.253   6.982  -1.174
    1   AR   Ar  242   5.342   4.824   0.562
    1   AR   Ar  243   5.804   4.184   2.417
    1   AR   Ar  244   1.328   5.085  -0.462
    1   AR   Ar  245   5.610   0.229   1.175
    1   AR   Ar  246   6.667   6.217   1.437
    1   AR   Ar  247   4.731   3.785   1.051
    1   AR   Ar  248   5.647   5.875  -0.054
    1   AR   Ar  249   4.267   5.491   2.511
    1   AR   Ar  250   4.927   6.305   4.431
    1   AR   Ar  251   5.645   5.442   4.098
    1   AR   Ar  252   4.969   6.030   3.418
    1   AR   Ar  253   5.664   4.043   6.312
    1   AR   Ar  254   3.503   5.564   8.025
    1   AR   Ar  255   4.012   2.399   7.286
    1   AR   Ar  256   6.522   6.142   3.523
    7.12000  7.12000 12.00000
Argon-slab step 2595
  256
    1   AR   Ar    1   6.797   1.322  -0.651
    1   AR   Ar    2   6.723   6.995   0.892
    1   AR   Ar    3   1.224   0.446   0.218
    1   AR   Ar    4   1.712   0.339  -0.719
    1   AR   Ar    5   6.842   6.080   0.385
    1   AR   Ar    6   6.790   0.870   2.889
    1   AR   Ar    7   6.587   4.181   3.189
    1   AR   Ar    8   6.768   7.081   2.065
    1   AR   Ar    9   0.778   0.627   3.542
    1   AR   Ar   10   1.077   1.441   4.193
    1   AR   Ar   11   2.465   6.861   4.516
    1   AR   Ar   12   0.988   1.496   2.806
    1   AR   Ar   13   6.528   1.559   5.116
    1   AR   Ar   14   1.613   1.501   7.742
    1   AR   Ar   15   6.598   0.549   9.586
    1   AR   Ar   16   1.025   0.336   4.744
    1   AR   Ar   17   0.529   2.039   0.047
    1   AR   Ar   18   5.989   2.978  -0.553
    1   AR   Ar   19   1.659   2.851   1.597
    1   AR   Ar   20   5.301   4.660  -2.142
    1   AR   Ar   21   5.895   0.942   1.970
    1   AR   Ar   22   6.823   1.971   2.017
    1   AR   Ar   23   0.318   0.840   0.035
    1   AR   Ar   24   0.526   2.192   1.358
    1   AR   Ar   25   6.963   1.266   3.893
    1   AR   Ar   26   5.990   1.096   4.352
    1   AR   Ar   27   2.054   1.821   3.631
    1   AR   Ar   28   1.539   2.454   4.559
    1   AR   Ar   29   5.800   2.662   6.644
    1   AR   Ar   30   1.743   1.742   5.597
    1   AR   Ar   31   0.931   6.391   7.730
    1   AR   Ar   32   1.659   2.770   5.921
    1   AR   Ar   33   1.109   3.526  -0.436
    1   AR   Ar   34   0.062   5.462   3.031
    1   AR   Ar   35   6.617   4.998   2.073
    1   AR   Ar   36   7.025   0.534  -3.302
    1   AR   Ar   37   6.325   2.749   2.593
    1   AR   Ar   38   7.057   4.140   2.272
    1   AR   Ar   39   1.690   3.368   3.032
    1   AR   Ar   40   1.113   3.798   1.149
    1   AR   Ar   41   0.131   3.264   3.023
    1   AR   Ar   42   6.403   5.688   5.567
    1   AR   Ar   43   6.530   2.062   6.012
    1   AR   Ar   44   0.950   4.370   3.527
    1   AR   Ar   45   0.730   2.671   5.192
    1   AR   Ar   46   0.999   5.967   6.493
    1   AR   Ar   47   5.962   3.504   7.274
    1   AR   Ar   48   0.364   6.904   6.648
    1   AR   Ar   49   6.517   7.047  -1.990
    1   AR   Ar   50   5.425   5.353   1.443
    1   AR   Ar   51   0.731   5.299   2.004
    1   AR   Ar   52   5.706   4.889  -1.136
    1   AR   Ar   53   5.374   6.334   2.102
    1   AR   Ar   54   6.544   5.991   2.346
    1   AR   Ar   55   5.817   5.116   3.067
    1   AR   Ar   56   1.058   6.757   1.153
    1   AR   Ar   57   5.329   2.945   3.196
    1   AR   Ar   58   6.856   5.055   3.964
    1   AR   Ar   59   1.943   5.402   5.263
    1   AR   Ar   60   0.556   6.725   4.156
    1   AR   Ar   61   6.571   4.343   5.691
    1   AR   Ar   62   0.975   5.448   5.013
    1   AR   Ar   63   2.573   6.348   6.879
    1   AR   Ar   64   1.476   6.578   5.013
    1   AR   Ar   65   3.555   0.115   0.896
    1   AR   Ar   66   1.050   1.221   1.433
    1   AR   Ar   67   3.146   6.150  -0.900
    1   AR   Ar   68   3.125   1.309  -1.234
    1   AR   Ar   69   2.954   1.536   0.802
    1   AR   Ar   70   0.683   7.049   2.243
    1   AR   Ar   71   3.124   1.727   3.664
    1   AR   Ar   72   3.709   1.107   1.936
    1   AR   Ar   73   2.874   7.109   3.649
    1   AR   Ar   74   2.617   1.321   5.134
    1   AR   Ar   75   3.507   1.666   4.711
    1   AR   Ar   76   1.668   0.442   1.635
    1   AR   Ar   77   2.542   6.809   5.829
    1   AR   Ar   78   1.686   0.111   7.377
    1   AR   Ar   79   3.709   6.942   6.704
    1   AR   Ar   80   3.535   5.316   5.758
    1   AR   Ar   81   2.113   1.024   0.296
    1   AR   Ar   82   7.097   5.758  -0.900
    1   AR   Ar   83   1.512   2.207   0.802
    1   AR   Ar   84   0.023   3.897  -0.388
    1   AR   Ar   85   0.461   3.121   0.245
    1   AR   Ar   86   2.325   3.426   0.664
    1   AR   Ar   87   2.253   2.041   1.709
    1   AR   Ar   88   3.102   3.989   2.154
    1   AR   Ar   89   0.234   2.829   2.079
    1   AR   Ar   90   2.420   2.608   5.194
    1   AR   Ar   91   1.231   2.344   3.439
    1   AR   Ar   92   1.126   2.317   2.269
    1   AR   Ar   93   1.909   0.846   6.193
    1   AR   Ar   94   1.200   0.024   9.937
    1   AR   Ar   95   3.973   0.844   5.919
    1   AR   Ar   96   3.241   0.222   5.352
    1   AR   Ar   97   4.788   1.451  -0.257
    1   AR   Ar   98   2.244   4.854   2.921
    1   AR   Ar   99   6.823   2.454  -1.419
    1   AR   Ar  100   2.318   2.215   0.151
    1   AR   Ar  101   2.492   4.409   1.151
    1   AR   Ar  102   3.387   3.068   3.706
    1   AR   Ar  103   1.377   4.385   0.374
    1   AR   Ar  104   2.945   2.656  -1.626
    1   AR   Ar  105   2.381   2.964   3.908
    1   AR   Ar  106   3.266   3.651   4.655
    1   AR   Ar  107   1.526   4.032   5.553
    1   AR   Ar  108   3.538   2.693   5.310
    1   AR   Ar  109   1.434   3.603   4.044
    1   AR   Ar  110   1.039   4.733   6.172
    1   AR   Ar  111   4.654   4.034   6.889
    1   AR   Ar  112   1.709   5.437   7.026
    1   AR   Ar  113   2.635   4.325   0.077
    1   AR   Ar  114   2.327   5.155  -0.718
    1   AR   Ar  115   2.789   3.915  -0.811
    1   AR   Ar  116   5.178   6.137  -1.486
    1   AR   Ar  117   0.788   5.565   3.966
    1   AR   Ar  118   0.876   6.370   3.140
    1   AR   Ar  119   2.131   3.758   1.807
    1   AR   Ar  120   1.544   5.701   2.490
    1   AR   Ar  121   6.429   4.260   4.253
    1   AR   Ar  122   2.884   5.979   5.176
    1   AR   Ar  123   2.875   4.913   4.627
    1   AR   Ar  124   1.627   4.672   1.826
    1   AR   Ar  125   0.317   3.562   5.981
    1   AR   Ar  126   6.991   7.116   4.872
    1   AR   Ar  127   3.169   3.847   6.689
    1   AR   Ar  128   2.435   5.300   6.127
    1   AR   Ar  129   1.874   6.984   3.051
    1   AR   Ar  130   4.035   1.925  -1.766
    1   AR   Ar  131   4.253   0.331  -0.074
    1   AR   Ar  132   1.295   1.640  -1.230
    1   AR   Ar  133   4.174   0.400   2.578
    1   AR   Ar  134   4.817   0.992   4.007
    1   AR   Ar  135   5.353   0.856   2.863
    1   AR   Ar  136   5.062   0.157   2.007
    1   AR   Ar  137   2.685   5.884   3.983
    1   AR   Ar  138   5.013   1.808   4.713
    1   AR   Ar  139   5.625   2.518   5.436
    1   AR   Ar  140   3.995   0.068   4.431
    1   AR   Ar  141   3.587   6.265   4.459
    1   AR   Ar  142   4.083   6.659   5.697
    1   AR   Ar  143   6.371   6.691   6.036
    1   AR   Ar  144   5.782   1.473   5.900
    1   AR   Ar  145   3.640   3.832   0.211
    1   AR   Ar  146   4.584   2.461   1.638
    1   AR   Ar  147   5.672   1.837  -2.173
    1   AR   Ar  148   4.301   4.455  -1.807
    1   AR   Ar  149   3.769   2.232   0.766
    1   AR   Ar  150   2.420   1.679   2.695
    1   AR   Ar  151   2.744   2.542   3.027
    1   AR   Ar  152   3.284   2.883   0.091
    1   AR   Ar  153   3.120   0.733   4.372
    1   AR   Ar  154   4.211   1.913   3.969
    1   AR   Ar  155   6.306   0.408   6.769
    1   AR   Ar  156   4.114   4.292   4.504
    1   AR   Ar  157   2.830   3.034   6.190
    1   AR   Ar  158   1.106   3.614   6.536
    1   AR   Ar  159   4.338   2.093   5.652
    1   AR   Ar  160   3.124   1.984   5.934
    1   AR   Ar  161   5.513   3.337   1.489
    1   AR   Ar  162   4.552   6.118  -0.660
    1   AR   Ar  163   5.432   3.249   0.400
    1   AR   Ar  164   3.255   5.721   1.801
    1   AR   Ar  165   3.474   3.409   1.414
    1   AR   Ar  166   3.028   4.377   3.473
    1   AR   Ar  167   4.230   1.836   2.713
    1   AR   Ar  168   4.275   3.151  -0.677
    1   AR   Ar  169   2.794   2.960   2.080
    1   AR   Ar  170   2.729   4.148   5.701
    1   AR   Ar  171   5.474   4.203   3.448
    1   AR   Ar  172   4.636   5.202   4.493
    1   AR   Ar  173   2.113   3.375   6.973
    1   AR   Ar  174   3.365   4.896   7.187
    1   AR   Ar  175   3.870   2.780   6.305
    1   AR   Ar  176   3.754   3.774   5.656
    1   AR   Ar  177   6.527   4.607  -0.084
    1   AR   Ar  178   3.069   5.825   0.338
    1   AR   Ar  179   4.512   5.828   0.516
    1   AR   Ar  180   1.660   2.574  -1.819
    1   AR   Ar  181   0.623   5.815   0.981
    1   AR   Ar  182   2.927   0.548   2.821
    1   AR   Ar  183   3.355   5.239   2.833
    1   AR   Ar  184   4.024   6.579   1.665
    1   AR   Ar  185   1.831   4.741   4.188
    1   AR   Ar  186   3.735   5.233   3.960
    1   AR   Ar  187   3.628   6.265   3.353
    1   AR   Ar  188   3.050   6.972   1.788
    1   AR   Ar  189   2.988   2.340   7.778
    1   AR   Ar  190   5.227   6.757   5.336
    1   AR   Ar  191   4.560   4.806   6.257
    1   AR   Ar  192   4.508   5.736   5.429
    1   AR   Ar  193   0.798   6.229  -0.335
    1   AR   Ar  194   5.145   3.771  -1.308
    1   AR   Ar  195   5.894   0.851   0.047
    1   AR   Ar  196   5.213   0.020  -0.521
    1   AR   Ar  197   5.290   1.349   0.591
    1   AR   Ar  198   6.825   1.005   1.226
    1   AR   Ar  199   5.018   1.506   1.782
    1   AR   Ar  200   6.066   2.050  -0.030
    1   AR   Ar  201   4.983   7.108   3.400
    1   AR   Ar  202   5.418   3.037   4.373
    1   AR   Ar  203   6.222   6.251   4.523
    1   AR   Ar  204   5.600   0.036   4.395
    1   AR   Ar  205   5.855   7.005   2.735
    1   AR   Ar  206   4.947   0.645   4.944
    1   AR   Ar  207   0.452   0.428   5.876
    1   AR   Ar  208   7.089   7.024   3.153
    1   AR   Ar  209   5.656   3.138  -1.928
    1   AR   Ar  210   4.314   1.315   0.754
    1   AR   Ar  211   6.541   3.156   0.447
    1   AR   Ar  212   6.351   3.917  -1.381
    1   AR   Ar  213   3.453   2.063   1.828
    1   AR   Ar  214   3.866   2.819   2.721
    1   AR   Ar  215   5.946   2.301   1.440
    1   AR   Ar  216   6.885   3.990   0.925
    1   AR   Ar  217   4.353   3.006   4.089
    1   AR   Ar  218   4.655   3.026   5.103
    1   AR   Ar  219   5.189   1.907   3.596
    1   AR   Ar  220   4.598   3.376   2.137
    1   AR   Ar  221   6.026   0.535   5.240
    1   AR   Ar  222   5.044   1.674   6.765
    1   AR   Ar  223   0.448   1.041   7.118
    1   AR   Ar  224   4.808   3.137   6.109
    1   AR   Ar  225   6.031   4.243   1.387
    1   AR   Ar  226   4.133   4.253   2.474
    1   AR   Ar  227   0.329   5.093   0.287
    1   AR   Ar  228   5.270   6.377   0.935
    1   AR   Ar  229   5.464   4.097  -0.211
    1   AR   Ar  230   4.476   4.081   3.441
    1   AR   Ar  231   6.205   1.823   2.997
    1   AR   Ar  232   4.235   3.028   0.445
    1   AR   Ar  233   6.474   2.533   3.807
    1   AR   Ar  234   6.677   2.574   4.895
    1   AR   Ar  235   0.424   2.432   4.309
    1   AR   Ar  236   5.528   4.968   5.193
    1   AR   Ar  237   5.584   3.870   5.002
    1   AR   Ar  238   4.724   3.980   5.666
    1   AR   Ar  239   6.483   3.896   9.575
    1   AR   Ar  240   6.369   3.331   5.644
    1   AR   Ar  241   0.304   6.973  -1.157
    1   AR   Ar  242   5.330   4.817   0.584
    1   AR   Ar  243   5.788   4.212   2.425
    1   AR   Ar  244   1.320   5.093  -0.465
    1   AR   Ar  245   5.609   0.268   1.189
    1   AR   Ar  246   6.675   6.212   1.445
    1   AR   Ar  247   4.724   3.787   1.072
    1   AR   Ar  248   5.641   5.854  -0.065
    1   AR   Ar  249   4.248   5.476   2.466
    1   AR   Ar  250   4.929   6.288   4.435
    1   AR   Ar  251   5.630   5.431   4.110
    1   AR   Ar  252   4.974   6.038   3.414
    1   AR   Ar  253   5.686   4.016   6.282
    1   AR   Ar  254   3.477   5.573   8.049
    1   AR   Ar  255   3.967   2.360   7.299
    1   AR   Ar  256   6.574   6.129   3.493
    7.12000  7.12000 12.00000
Argon-slab step 2600
  256
    1   AR   Ar    1   6.802   1.331  -0.661
    1   AR   Ar    2   6.687   7.001   0.898
    1   AR   Ar    3   1.223   0.445   0.207
    1   AR   Ar    4   1.690   0.340  -0.725
    1   AR   Ar    5   6.862   6.067   0.361
    1   AR   Ar    6   6.787   0.877   2.904
    1   AR   Ar    7   6.584   4.168   3.175
    1   AR   Ar    8   6.752   7.046   2.059
    1   AR   Ar    9   0.749   0.602   3.520
    1   AR   Ar   10   1.070   1.447   4.196
    1   AR   Ar   11   2.444   6.884   4.532
    1   AR   Ar   12   1.022   1.499   2.814
    1   AR   Ar   13   6.517   1.528   5.154
    1   AR   Ar   14   1.620   1.505   7.758
    1   AR   Ar   15   6.600   0.542   9.601
    1   AR   Ar   16   1.014   0.336   4.776
    1   AR   Ar   17   0.539   2.057   0.071
    1   AR   Ar   18   5.940   2.987  -0.551
    1   AR   Ar   19   1.661   2.847   1.590
    1   AR   Ar   20   5.287   4.700  -2.120
    1   AR   Ar   21   5.911   0.949   1.946
    1   AR   Ar   22   6.801   1.970   2.022
    1   AR   Ar   23   0.302   0.859   0.031
    1   AR   Ar   24   0.492   2.188   1.366
    1   AR   Ar   25   6.957   1.264   3.914
    1   AR   Ar   26   5.974   1.109   4.353
    1   AR   Ar   27   2.025   1.786   3.642
    1   AR   Ar   28   1.541   2.436   4.579
    1   AR   Ar   29   5.772   2.648   6.657
    1   AR   Ar   30   1.791   1.755   5.553
    1   AR   Ar   31   0.913   6.409   7.725
    1   AR   Ar   32   1.648   2.749   5.916
    1   AR   Ar   33   1.092   3.529  -0.432
    1   AR   Ar   34   0.052   5.458   3.013
    1   AR   Ar   35   6.605   5.021   2.069
    1   AR   Ar   36   7.038   0.534  -3.328
    1   AR   Ar   37   6.317   2.735   2.608
    1   AR   Ar   38   7.058   4.129   2.270
    1   AR   Ar   39   1.689   3.364   3.013
    1   AR   Ar   40   1.119   3.803   1.153
    1   AR   Ar   41   0.131   3.237   3.050
    1   AR   Ar   42   6.440   5.703   5.558
    1   AR   Ar   43   6.571   2.057   6.019
    1   AR   Ar   44   0.951   4.378   3.529
    1   AR   Ar   45   0.708   2.674   5.181
    1   AR   Ar   46   1.017   5.949   6.479
    1   AR   Ar   47   5.967   3.494   7.278
    1   AR   Ar   48   0.401   6.870   6.655
    1   AR   Ar   49   6.505   7.041  -2.011
    1   AR   Ar   50   5.412   5.345   1.438
    1   AR   Ar   51   0.759   5.298   2.005
    1   AR   Ar   52   5.688   4.872  -1.120
    1   AR   Ar   53   5.392   6.358   2.119
    1   AR   Ar   54   6.539   5.967   2.317
    1   AR   Ar   55   5.851   5.093   3.057
    1   AR   Ar   56   1.061   6.762   1.156
    1   AR   Ar   57   5.322   2.935   3.213
    1   AR   Ar   58   6.857   5.064   3.971
    1   AR   Ar   59   1.931   5.433   5.272
    1   AR   Ar   60   0.583   6.723   4.154
    1   AR   Ar   61   6.565   4.309   5.666
    1   AR   Ar   62   0.959   5.455   5.032
    1   AR   Ar   63   2.605   6.369   6.895
    1   AR   Ar   64   1.482   6.542   4.996
    1   AR   Ar   65   3.552   0.126   0.899
    1   AR   Ar   66   1.055   1.191   1.480
    1   AR   Ar   67   3.136   6.141  -0.902
    1   AR   Ar   68   3.138   1.289  -1.245
    1   AR   Ar   69   2.964   1.561   0.818
    1   AR   Ar   70   0.679   7.014   2.215
    1   AR   Ar   71   3.114   1.741   3.680
    1   AR   Ar   72   3.683   1.131   1.937
    1   AR   Ar   73   2.845   7.110   3.680
    1   AR   Ar   74   2.586   1.324   5.137
    1   AR   Ar   75   3.539   1.666   4.662
    1   AR   Ar   76   1.645   0.444   1.648
    1   AR   Ar   77   2.531   6.815   5.852
    1   AR   Ar   78   1.712   0.141   7.393
    1   AR   Ar   79   3.712   6.946   6.689
    1   AR   Ar   80   3.532   5.316   5.792
    1   AR   Ar   81   2.145   1.005   0.310
    1   AR   Ar   82   7.103   5.782  -0.888
    1   AR   Ar   83   1.520   2.207   0.776
    1   AR   Ar   84   0.058   3.871  -0.337
    1   AR   Ar   85   0.474   3.112   0.289
    1   AR   Ar   86   2.326   3.407   0.676
    1   AR   Ar   87   2.252   2.045   1.707
    1   AR   Ar   88   3.092   4.018   2.144
    1   AR   Ar   89   0.225   2.798   2.072
    1   AR   Ar   90   2.411   2.591   5.176
    1   AR   Ar   91   1.229   2.340   3.447
    1   AR   Ar   92   1.128   2.311   2.306
    1   AR   Ar   93   1.927   0.843   6.160
    1   AR   Ar   94   1.192   0.036   9.910
    1   AR   Ar   95   3.934   0.833   5.906
    1   AR   Ar   96   3.222   0.207   5.325
    1   AR   Ar   97   4.798   1.480  -0.276
    1   AR   Ar   98   2.216   4.855   2.877
    1   AR   Ar   99   6.822   2.426  -1.424
    1   AR   Ar  100   2.310   2.260   0.178
    1   AR   Ar  101   2.499   4.417   1.167
    1   AR   Ar  102   3.388   3.048   3.696
    1   AR   Ar  103   1.370   4.392   0.355
    1   AR   Ar  104   2.936   2.667  -1.626
    1   AR   Ar  105   2.425   2.997   3.933
    1   AR   Ar  106   3.266   3.638   4.660
    1   AR   Ar  107   1.533   4.028   5.531
    1   AR   Ar  108   3.497   2.696   5.282
    1   AR   Ar  109   1.435   3.602   4.013
    1   AR   Ar  110   1.025   4.730   6.165
    1   AR   Ar  111   4.653   4.024   6.885
    1   AR   Ar  112   1.709   5.453   6.982
    1   AR   Ar  113   2.623   4.330   0.087
    1   AR   Ar  114   2.347   5.192  -0.695
    1   AR   Ar  115   2.795   3.920  -0.809
    1   AR   Ar  116   5.213   6.093  -1.522
    1   AR   Ar  117   0.757   5.529   3.984
    1   AR   Ar  118   0.883   6.356   3.169
    1   AR   Ar  119   2.099   3.759   1.803
    1   AR   Ar  120   1.543   5.727   2.480
    1   AR   Ar  121   6.395   4.212   4.255
    1   AR   Ar  122   2.862   5.979   5.163
    1   AR   Ar  123   2.876   4.893   4.615
    1   AR   Ar  124   1.617   4.664   1.813
    1   AR   Ar  125   0.321   3.580   5.965
    1   AR   Ar  126   6.976   0.007   4.877
    1   AR   Ar  127   3.194   3.869   6.698
    1   AR   Ar  128   2.409   5.304   6.118
    1   AR   Ar  129   1.863   6.950   3.067
    1   AR   Ar  130   4.045   1.934  -1.736
    1   AR   Ar  131   4.250   0.368  -0.094
    1   AR   Ar  132   1.285   1.614  -1.237
    1   AR   Ar  133   4.166   0.428   2.588
    1   AR   Ar  134   4.823   0.987   3.976
    1   AR   Ar  135   5.354   0.869   2.845
    1   AR   Ar  136   5.032   0.171   2.036
    1   AR   Ar  137   2.692   5.898   3.946
    1   AR   Ar  138   5.020   1.810   4.705
    1   AR   Ar  139   5.653   2.530   5.419
    1   AR   Ar  140   4.012   0.053   4.441
    1   AR   Ar  141   3.591   6.262   4.472
    1   AR   Ar  142   4.091   6.650   5.678
    1   AR   Ar  143   6.398   6.676   6.036
    1   AR   Ar  144   5.794   1.459   5.898
    1   AR   Ar  145   3.635   3.806   0.190
    1   AR   Ar  146   4.592   2.463   1.612
    1   AR   Ar  147   5.674   1.823  -2.156
    1   AR   Ar  148   4.284   4.487  -1.805
    1   AR   Ar  149   3.749   2.238   0.772
    1   AR   Ar  150   2.474   1.663   2.707
    1   AR   Ar  151   2.732   2.548   3.020
    1   AR   Ar  152   3.270   2.887   0.117
    1   AR   Ar  153   3.117   0.725   4.346
    1   AR   Ar  154   4.180   1.900   3.975
    1   AR   Ar  155   6.336   0.389   6.759
    1   AR   Ar  156   4.103   4.279   4.500
    1   AR   Ar  157   2.859   3.031   6.226
    1   AR   Ar  158   1.132   3.639   6.507
    1   AR   Ar  159   4.345   2.108   5.643
    1   AR   Ar  160   3.132   1.979   5.949
    1   AR   Ar  161   5.549   3.345   1.498
    1   AR   Ar  162   4.540   6.127  -0.670
    1   AR   Ar  163   5.401   3.245   0.404
    1   AR   Ar  164   3.238   5.733   1.804
    1   AR   Ar  165   3.497   3.403   1.410
    1   AR   Ar  166   3.035   4.386   3.489
    1   AR   Ar  167   4.192   1.839   2.708
    1   AR   Ar  168   4.269   3.162  -0.646
    1   AR   Ar  169   2.767   2.962   2.017
    1   AR   Ar  170   2.748   4.142   5.676
    1   AR   Ar  171   5.503   4.231   3.431
    1   AR   Ar  172   4.626   5.181   4.510
    1   AR   Ar  173   2.096   3.347   6.952
    1   AR   Ar  174   3.328   4.897   7.207
    1   AR   Ar  175   3.867   2.775   6.266
    1   AR   Ar  176   3.746   3.723   5.677
    1   AR   Ar  177   6.529   4.594  -0.095
    1   AR   Ar  178   3.052   5.802   0.336
    1   AR   Ar  179   4.528   5.798   0.529
    1   AR   Ar  180   1.660   2.560  -1.821
    1   AR   Ar  181   0.612   5.800   0.996
    1   AR   Ar  182   2.944   0.587   2.807
    1   AR   Ar  183   3.331   5.223   2.826
    1   AR   Ar  184   3.997   6.567   1.648
    1   AR   Ar  185   1.799   4.723   4.183
    1   AR   Ar  186   3.715   5.237   3.948
    1   AR   Ar  187   3.608   6.237   3.386
    1   AR   Ar  188   3.046   6.977   1.809
    1   AR   Ar  189   2.963   2.311   7.779
    1   AR   Ar  190   5.219   6.753   5.333
    1   AR   Ar  191   4.573   4.820   6.286
    1   AR   Ar  192   4.495   5.729   5.441
    1   AR   Ar  193   0.763   6.231  -0.309
    1   AR   Ar  194   5.125   3.768  -1.289
    1   AR   Ar  195   5.906   0.854   0.045
    1   AR   Ar  196   5.146   0.023  -0.521
    1   AR   Ar  197   5.286   1.333   0.629
    1   AR   Ar  198   6.797   1.013   1.248
    1   AR   Ar  199   5.011   1.527   1.790
    1   AR   Ar  200   6.051   2.058  -0.034
    1   AR   Ar  201   4.986   7.086   3.382
    1   AR   Ar  202   5.438   3.054   4.354
    1   AR   Ar  203   6.230   6.255   4.515
    1   AR   Ar  204   5.608   0.051   4.420
    1   AR   Ar  205   5.867   6.996   2.743
    1   AR   Ar  206   4.938   0.655   4.939
    1   AR   Ar  207   0.454   0.423   5.891
    1   AR   Ar  208   7.114   7.010   3.170
    1   AR   Ar  209   5.656   3.129  -1.910
    1   AR   Ar  210   4.275   1.304   0.728
    1   AR   Ar  211   6.523   3.146   0.477
    1   AR   Ar  212   6.365   3.928  -1.375
    1   AR   Ar  213   3.440   2.112   1.853
    1   AR   Ar  214   3.897   2.765   2.723
    1   AR   Ar  215   5.945   2.273   1.444
    1   AR   Ar  216   6.874   3.983   0.925
    1   AR   Ar  217   4.390   2.968   4.098
    1   AR   Ar  218   4.639   3.031   5.123
    1   AR   Ar  219   5.214   1.927   3.611
    1   AR   Ar  220   4.567   3.357   2.120
    1   AR   Ar  221   6.020   0.517   5.252
    1   AR   Ar  222   5.056   1.664   6.778
    1   AR   Ar  223   0.411   1.015   7.126
    1   AR   Ar  224   4.779   3.130   6.101
    1   AR   Ar  225   6.029   4.214   1.395
    1   AR   Ar  226   4.126   4.250   2.477
    1   AR   Ar  227   0.344   5.121   0.308
    1   AR   Ar  228   5.290   6.359   0.925
    1   AR   Ar  229   5.452   4.097  -0.190
    1   AR   Ar  230   4.445   4.121   3.431
    1   AR   Ar  231   6.182   1.834   2.975
    1   AR   Ar  232   4.221   2.994   0.482
    1   AR   Ar  233   6.472   2.527   3.820
    1   AR   Ar  234   6.667   2.537   4.914
    1   AR   Ar  235   0.420   2.429   4.291
    1   AR   Ar  236   5.541   4.940   5.162
    1   AR   Ar  237   5.561   3.858   5.009
    1   AR   Ar  238   4.717   3.974   5.668
    1   AR   Ar  239   6.448   3.879   9.578
    1   AR   Ar  240   6.382   3.309   5.644
    1   AR   Ar  241   0.354   6.963  -1.140
    1   AR   Ar  242   5.318   4.807   0.601
    1   AR   Ar  243   5.772   4.240   2.431
    1   AR   Ar  244   1.306   5.101  -0.467
    1   AR   Ar  245   5.615   0.308   1.192
    1   AR   Ar  246   6.686   6.196   1.437
    1   AR   Ar  247   4.709   3.794   1.090
    1   AR   Ar  248   5.634   5.833  -0.075
    1   AR   Ar  249   4.238   5.465   2.418
    1   AR   Ar  250   4.930   6.269   4.440
    1   AR   Ar  251   5.615   5.419   4.122
    1   AR   Ar  252   4.978   6.043   3.406
    1   AR   Ar  253   5.707   3.987   6.250
    1   AR   Ar  254   3.451   5.582   8.073
    1   AR   Ar  255   3.924   2.321   7.311
    1   AR   Ar  256   6.582   6.124   3.479
    7.12000  7.12000 12.00000
Argon-slab step 2605
  256
    1   AR   Ar    1   6.803   1.339  -0.661
    1   AR   Ar    2   6.652   7.023   0.896
    1   AR   Ar    3   1.219   0.469   0.197
    1   AR   Ar    4   1.669   0.341  -0.734
    1   AR   Ar    5   6.881   6.052   0.334
    1   AR   Ar    6   6.782   0.885   2.916
    1   AR   Ar    7   6.579   4.157   3.167
    1   AR   Ar    8   6.732   7.016   2.053
    1   AR   Ar    9   0.721   0.577   3.498
    1   AR   Ar   10   1.064   1.453   4.199
    1   AR   Ar   11   2.418   6.903   4.564
    1   AR   Ar   12   1.053   1.485   2.831
    1   AR   Ar   13   6.509   1.492   5.185
    1   AR   Ar   14   1.627   1.509   7.773
    1   AR   Ar   15   6.602   0.534   9.616
    1   AR   Ar   16   1.003   0.341   4.808
    1   AR   Ar   17   0.550   2.073   0.096
    1   AR   Ar   18   5.892   3.000  -0.550
    1   AR   Ar   19   1.658   2.850   1.580
    1   AR   Ar   20   5.275   4.738  -2.098
    1   AR   Ar   21   5.931   0.958   1.925
    1   AR   Ar   22   6.774   1.956   2.029
    1   AR   Ar   23   0.283   0.879   0.029
    1   AR   Ar   24   0.464   2.175   1.360
    1   AR   Ar   25   6.953   1.264   3.936
    1   AR   Ar   26   5.954   1.121   4.351
    1   AR   Ar   27   2.001   1.748   3.660
    1   AR   Ar   28   1.544   2.416   4.595
    1   AR   Ar   29   5.743   2.631   6.665
    1   AR   Ar   30   1.831   1.772   5.511
    1   AR   Ar   31   0.895   6.427   7.717
    1   AR   Ar   32   1.636   2.731   5.913
    1   AR   Ar   33   1.078   3.534  -0.430
    1   AR   Ar   34   0.049   5.448   2.989
    1   AR   Ar   35   6.590   5.036   2.061
    1   AR   Ar   36   7.051   0.535  -3.353
    1   AR   Ar   37   6.311   2.734   2.619
    1   AR   Ar   38   7.063   4.111   2.264
    1   AR   Ar   39   1.690   3.358   2.991
    1   AR   Ar   40   1.125   3.804   1.161
    1   AR   Ar   41   0.130   3.211   3.079
    1   AR   Ar   42   6.477   5.717   5.546
    1   AR   Ar   43   6.588   2.064   6.034
    1   AR   Ar   44   0.949   4.390   3.529
    1   AR   Ar   45   0.688   2.682   5.188
    1   AR   Ar   46   1.027   5.937   6.458
    1   AR   Ar   47   5.990   3.483   7.291
    1   AR   Ar   48   0.437   6.832   6.668
    1   AR   Ar   49   6.494   7.036  -2.031
    1   AR   Ar   50   5.400   5.342   1.442
    1   AR   Ar   51   0.779   5.295   2.004
    1   AR   Ar   52   5.670   4.854  -1.102
    1   AR   Ar   53   5.411   6.369   2.132
    1   AR   Ar   54   6.526   5.949   2.326
    1   AR   Ar   55   5.891   5.081   3.046
    1   AR   Ar   56   1.064   6.769   1.159
    1   AR   Ar   57   5.313   2.939   3.236
    1   AR   Ar   58   6.859   5.082   3.975
    1   AR   Ar   59   1.921   5.465   5.271
    1   AR   Ar   60   0.608   6.719   4.150
    1   AR   Ar   61   6.560   4.281   5.638
    1   AR   Ar   62   0.936   5.461   5.050
    1   AR   Ar   63   2.636   6.389   6.911
    1   AR   Ar   64   1.483   6.512   4.986
    1   AR   Ar   65   3.543   0.117   0.896
    1   AR   Ar   66   1.048   1.175   1.523
    1   AR   Ar   67   3.127   6.132  -0.902
    1   AR   Ar   68   3.151   1.269  -1.257
    1   AR   Ar   69   2.972   1.584   0.835
    1   AR   Ar   70   0.678   6.980   2.188
    1   AR   Ar   71   3.104   1.756   3.694
    1   AR   Ar   72   3.659   1.150   1.936
    1   AR   Ar   73   2.821   7.106   3.696
    1   AR   Ar   74   2.564   1.323   5.136
    1   AR   Ar   75   3.561   1.664   4.630
    1   AR   Ar   76   1.633   0.433   1.664
    1   AR   Ar   77   2.514   6.817   5.879
    1   AR   Ar   78   1.737   0.172   7.408
    1   AR   Ar   79   3.713   6.950   6.673
    1   AR   Ar   80   3.528   5.316   5.826
    1   AR   Ar   81   2.177   0.988   0.324
    1   AR   Ar   82   7.118   5.797  -0.897
    1   AR   Ar   83   1.505   2.205   0.740
    1   AR   Ar   84   0.096   3.842  -0.288
    1   AR   Ar   85   0.493   3.129   0.312
    1   AR   Ar   86   2.328   3.387   0.690
    1   AR   Ar   87   2.256   2.042   1.704
    1   AR   Ar   88   3.082   4.049   2.138
    1   AR   Ar   89   0.214   2.787   2.074
    1   AR   Ar   90   2.405   2.576   5.158
    1   AR   Ar   91   1.219   2.346   3.455
    1   AR   Ar   92   1.134   2.316   2.337
    1   AR   Ar   93   1.945   0.839   6.126
    1   AR   Ar   94   1.185   0.048   9.884
    1   AR   Ar   95   3.896   0.822   5.891
    1   AR   Ar   96   3.208   0.196   5.294
    1   AR   Ar   97   4.806   1.509  -0.299
    1   AR   Ar   98   2.188   4.855   2.832
    1   AR   Ar   99   6.819   2.397  -1.428
    1   AR   Ar  100   2.313   2.305   0.200
    1   AR   Ar  101   2.509   4.431   1.178
    1   AR   Ar  102   3.400   3.030   3.684
    1   AR   Ar  103   1.365   4.401   0.331
    1   AR   Ar  104   2.926   2.677  -1.625
    1   AR   Ar  105   2.457   3.030   3.964
    1   AR   Ar  106   3.263   3.622   4.666
    1   AR   Ar  107   1.543   4.023   5.508
    1   AR   Ar  108   3.490   2.699   5.273
    1   AR   Ar  109   1.438   3.598   3.988
    1   AR   Ar  110   1.012   4.730   6.159
    1   AR   Ar  111   4.659   4.012   6.888
    1   AR   Ar  112   1.716   5.465   6.943
    1   AR   Ar  113   2.592   4.368   0.102
    1   AR   Ar  114   2.370   5.228  -0.672
    1   AR   Ar  115   2.803   3.921  -0.815
    1   AR   Ar  116   5.248   6.049  -1.559
    1   AR   Ar  117   0.726   5.493   3.999
    1   AR   Ar  118   0.890   6.341   3.197
    1   AR   Ar  119   2.064   3.753   1.805
    1   AR   Ar  120   1.578   5.728   2.458
    1   AR   Ar  121   6.355   4.157   4.262
    1   AR   Ar  122   2.839   5.979   5.152
    1   AR   Ar  123   2.878   4.873   4.603
    1   AR   Ar  124   1.605   4.661   1.800
    1   AR   Ar  125   0.313   3.597   5.939
    1   AR   Ar  126   6.971   7.083   4.862
    1   AR   Ar  127   3.222   3.896   6.709
    1   AR   Ar  128   2.391   5.306   6.119
    1   AR   Ar  129   1.851   6.917   3.084
    1   AR   Ar  130   4.053   1.944  -1.704
    1   AR   Ar  131   4.244   0.408  -0.111
    1   AR   Ar  132   1.275   1.589  -1.243
    1   AR   Ar  133   4.157   0.455   2.602
    1   AR   Ar  134   4.829   0.981   3.939
    1   AR   Ar  135   5.352   0.884   2.830
    1   AR   Ar  136   4.998   0.192   2.067
    1   AR   Ar  137   2.699   5.913   3.911
    1   AR   Ar  138   5.028   1.812   4.698
    1   AR   Ar  139   5.679   2.541   5.402
    1   AR   Ar  140   4.034   0.045   4.451
    1   AR   Ar  141   3.596   6.253   4.484
    1   AR   Ar  142   4.096   6.645   5.657
    1   AR   Ar  143   6.425   6.663   6.035
    1   AR   Ar  144   5.793   1.437   5.897
    1   AR   Ar  145   3.630   3.793   0.168
    1   AR   Ar  146   4.582   2.465   1.609
    1   AR   Ar  147   5.677   1.809  -2.139
    1   AR   Ar  148   4.265   4.518  -1.801
    1   AR   Ar  149   3.719   2.225   0.790
    1   AR   Ar  150   2.526   1.632   2.711
    1   AR   Ar  151   2.701   2.567   3.021
    1   AR   Ar  152   3.244   2.883   0.139
    1   AR   Ar  153   3.112   0.711   4.328
    1   AR   Ar  154   4.159   1.891   3.967
    1   AR   Ar  155   6.368   0.370   6.748
    1   AR   Ar  156   4.093   4.264   4.496
    1   AR   Ar  157   2.881   3.023   6.255
    1   AR   Ar  158   1.169   3.666   6.484
    1   AR   Ar  159   4.341   2.122   5.637
    1   AR   Ar  160   3.139   1.972   5.964
    1   AR   Ar  161   5.585   3.342   1.510
    1   AR   Ar  162   4.528   6.136  -0.678
    1   AR   Ar  163   5.370   3.238   0.409
    1   AR   Ar  164   3.223   5.746   1.808
    1   AR   Ar  165   3.526   3.395   1.399
    1   AR   Ar  166   3.043   4.394   3.506
    1   AR   Ar  167   4.161   1.826   2.704
    1   AR   Ar  168   4.262   3.174  -0.615
    1   AR   Ar  169   2.739   2.962   1.954
    1   AR   Ar  170   2.765   4.137   5.650
    1   AR   Ar  171   5.531   4.251   3.423
    1   AR   Ar  172   4.620   5.162   4.526
    1   AR   Ar  173   2.080   3.318   6.930
    1   AR   Ar  174   3.290   4.897   7.225
    1   AR   Ar  175   3.857   2.768   6.235
    1   AR   Ar  176   3.731   3.669   5.699
    1   AR   Ar  177   6.523   4.587  -0.104
    1   AR   Ar  178   3.035   5.778   0.334
    1   AR   Ar  179   4.540   5.764   0.540
    1   AR   Ar  180   1.662   2.546  -1.823
    1   AR   Ar  181   0.603   5.789   1.017
    1   AR   Ar  182   2.963   0.628   2.790
    1   AR   Ar  183   3.302   5.205   2.823
    1   AR   Ar  184   3.976   6.553   1.631
    1   AR   Ar  185   1.768   4.706   4.179
    1   AR   Ar  186   3.694   5.240   3.934
    1   AR   Ar  187   3.588   6.210   3.417
    1   AR   Ar  188   3.037   6.983   1.833
    1   AR   Ar  189   2.983   2.294   7.763
    1   AR   Ar  190   5.171   6.740   5.357
    1   AR   Ar  191   4.584   4.843   6.310
    1   AR   Ar  192   4.485   5.719   5.450
    1   AR   Ar  193   0.739   6.246  -0.300
    1   AR   Ar  194   5.102   3.769  -1.266
    1   AR   Ar  195   5.927   0.851   0.034
    1   AR   Ar  196   5.120   0.003  -0.513
    1   AR   Ar  197   5.283   1.324   0.679
    1   AR   Ar  198   6.769   1.021   1.270
    1   AR   Ar  199   5.005   1.544   1.799
    1   AR   Ar  200   6.035   2.063  -0.035
    1   AR   Ar  201   4.987   7.068   3.365
    1   AR   Ar  202   5.460   3.067   4.332
    1   AR   Ar  203   6.237   6.260   4.509
    1   AR   Ar  204   5.616   0.063   4.437
    1   AR   Ar  205   5.886   6.991   2.754
    1   AR   Ar  206   4.926   0.666   4.942
    1   AR   Ar  207   0.456   0.423   5.900
    1   AR   Ar  208   7.098   7.002   3.153
    1   AR   Ar  209   5.658   3.119  -1.893
    1   AR   Ar  210   4.229   1.291   0.704
    1   AR   Ar  211   6.501   3.130   0.503
    1   AR   Ar  212   6.377   3.938  -1.366
    1   AR   Ar  213   3.426   2.168   1.878
    1   AR   Ar  214   3.922   2.726   2.725
    1   AR   Ar  215   5.942   2.245   1.447
    1   AR   Ar  216   6.875   3.980   0.922
    1   AR   Ar  217   4.426   2.931   4.104
    1   AR   Ar  218   4.621   3.049   5.130
    1   AR   Ar  219   5.240   1.948   3.626
    1   AR   Ar  220   4.548   3.343   2.112
    1   AR   Ar  221   6.012   0.496   5.280
    1   AR   Ar  222   5.068   1.655   6.788
    1   AR   Ar  223   0.374   0.987   7.133
    1   AR   Ar  224   4.764   3.108   6.112
    1   AR   Ar  225   6.034   4.197   1.406
    1   AR   Ar  226   4.116   4.251   2.475
    1   AR   Ar  227   0.357   5.142   0.322
    1   AR   Ar  228   5.316   6.344   0.918
    1   AR   Ar  229   5.442   4.090  -0.199
    1   AR   Ar  230   4.413   4.158   3.429
    1   AR   Ar  231   6.155   1.832   2.958
    1   AR   Ar  232   4.228   2.979   0.515
    1   AR   Ar  233   6.468   2.518   3.826
    1   AR   Ar  234   6.657   2.504   4.934
    1   AR   Ar  235   0.414   2.421   4.256
    1   AR   Ar  236   5.553   4.914   5.131
    1   AR   Ar  237   5.541   3.846   5.019
    1   AR   Ar  238   4.733   3.989   5.650
    1   AR   Ar  239   6.426   3.862   9.584
    1   AR   Ar  240   6.393   3.280   5.646
    1   AR   Ar  241   0.404   6.952  -1.121
    1   AR   Ar  242   5.306   4.793   0.612
    1   AR   Ar  243   5.757   4.266   2.432
    1   AR   Ar  244   1.289   5.110  -0.468
    1   AR   Ar  245   5.623   0.347   1.187
    1   AR   Ar  246   6.702   6.172   1.403
    1   AR   Ar  247   4.690   3.803   1.106
    1   AR   Ar  248   5.613   5.817  -0.096
    1   AR   Ar  249   4.231   5.488   2.422
    1   AR   Ar  250   4.928   6.251   4.446
    1   AR   Ar  251   5.625   5.434   4.116
    1   AR   Ar  252   4.983   6.042   3.395
    1   AR   Ar  253   5.724   3.956   6.219
    1   AR   Ar  254   3.425   5.592   8.098
    1   AR   Ar  255   3.949   2.353   7.281
    1   AR   Ar  256   6.575   6.123   3.472
    7.12000  7.12000 12.00000
Argon-slab step 2610
  256
    1   AR   Ar    1   6.799   1.345  -0.647
    1   AR   Ar    2   6.615   7.055   0.890
    1   AR   Ar    3   1.216   0.491   0.193
    1   AR   Ar    4   1.649   0.343  -0.746
    1   AR   Ar    5   6.900   6.039   0.305
    1   AR   Ar    6   6.776   0.894   2.926
    1   AR   Ar    7   6.573   4.146   3.163
    1   AR   Ar    8   6.710   6.989   2.049
    1   AR   Ar    9   0.693   0.553   3.477
    1   AR   Ar   10   1.056   1.460   4.200
    1   AR   Ar   11   2.389   6.918   4.608
    1   AR   Ar   12   1.083   1.455   2.856
    1   AR   Ar   13   6.507   1.451   5.208
    1   AR   Ar   14   1.646   1.517   7.779
    1   AR   Ar   15   6.604   0.527   9.631
    1   AR   Ar   16   0.991   0.350   4.841
    1   AR   Ar   17   0.560   2.087   0.121
    1   AR   Ar   18   5.844   3.017  -0.551
    1   AR   Ar   19   1.650   2.857   1.567
    1   AR   Ar   20   5.264   4.777  -2.078
    1   AR   Ar   21   5.954   0.971   1.912
    1   AR   Ar   22   6.743   1.931   2.037
    1   AR   Ar   23   0.263   0.899   0.032
    1   AR   Ar   24   0.443   2.152   1.341
    1   AR   Ar   25   6.956   1.270   3.946
    1   AR   Ar   26   5.929   1.134   4.347
    1   AR   Ar   27   1.983   1.705   3.680
    1   AR   Ar   28   1.546   2.396   4.606
    1   AR   Ar   29   5.713   2.614   6.670
    1   AR   Ar   30   1.848   1.797   5.479
    1   AR   Ar   31   0.878   6.446   7.707
    1   AR   Ar   32   1.636   2.725   5.951
    1   AR   Ar   33   1.073   3.540  -0.431
    1   AR   Ar   34   0.053   5.432   2.964
    1   AR   Ar   35   6.574   5.034   2.047
    1   AR   Ar   36   7.064   0.535  -3.378
    1   AR   Ar   37   6.306   2.748   2.626
    1   AR   Ar   38   7.072   4.089   2.253
    1   AR   Ar   39   1.696   3.348   2.979
    1   AR   Ar   40   1.130   3.802   1.172
    1   AR   Ar   41   0.129   3.185   3.110
    1   AR   Ar   42   6.513   5.729   5.532
    1   AR   Ar   43   6.610   2.078   6.051
    1   AR   Ar   44   0.943   4.416   3.538
    1   AR   Ar   45   0.669   2.694   5.206
    1   AR   Ar   46   1.026   5.931   6.428
    1   AR   Ar   47   6.013   3.473   7.302
    1   AR   Ar   48   0.473   6.793   6.683
    1   AR   Ar   49   6.484   7.031  -2.051
    1   AR   Ar   50   5.391   5.345   1.455
    1   AR   Ar   51   0.789   5.291   2.001
    1   AR   Ar   52   5.659   4.860  -1.114
    1   AR   Ar   53   5.428   6.368   2.139
    1   AR   Ar   54   6.505   5.950   2.358
    1   AR   Ar   55   5.939   5.086   3.032
    1   AR   Ar   56   1.056   6.778   1.154
    1   AR   Ar   57   5.303   2.945   3.258
    1   AR   Ar   58   6.858   5.100   3.978
    1   AR   Ar   59   1.910   5.496   5.261
    1   AR   Ar   60   0.632   6.714   4.145
    1   AR   Ar   61   6.557   4.261   5.609
    1   AR   Ar   62   0.911   5.455   5.069
    1   AR   Ar   63   2.667   6.408   6.926
    1   AR   Ar   64   1.455   6.521   4.998
    1   AR   Ar   65   3.532   0.094   0.889
    1   AR   Ar   66   1.029   1.177   1.564
    1   AR   Ar   67   3.082   6.138  -0.900
    1   AR   Ar   68   3.171   1.273  -1.264
    1   AR   Ar   69   2.969   1.600   0.855
    1   AR   Ar   70   0.679   6.945   2.163
    1   AR   Ar   71   3.093   1.770   3.704
    1   AR   Ar   72   3.634   1.166   1.934
    1   AR   Ar   73   2.802   7.098   3.695
    1   AR   Ar   74   2.565   1.308   5.124
    1   AR   Ar   75   3.563   1.655   4.629
    1   AR   Ar   76   1.633   0.407   1.684
    1   AR   Ar   77   2.487   6.814   5.894
    1   AR   Ar   78   1.762   0.201   7.423
    1   AR   Ar   79   3.713   6.954   6.656
    1   AR   Ar   80   3.523   5.314   5.860
    1   AR   Ar   81   2.208   0.972   0.339
    1   AR   Ar   82   7.089   5.798  -0.893
    1   AR   Ar   83   1.478   2.201   0.712
    1   AR   Ar   84   0.129   3.815  -0.243
    1   AR   Ar   85   0.512   3.149   0.344
    1   AR   Ar   86   2.330   3.367   0.705
    1   AR   Ar   87   2.264   2.031   1.700
    1   AR   Ar   88   3.072   4.081   2.133
    1   AR   Ar   89   0.203   2.794   2.087
    1   AR   Ar   90   2.407   2.563   5.140
    1   AR   Ar   91   1.203   2.359   3.463
    1   AR   Ar   92   1.142   2.333   2.361
    1   AR   Ar   93   1.965   0.834   6.092
    1   AR   Ar   94   1.177   0.061   9.857
    1   AR   Ar   95   3.858   0.812   5.876
    1   AR   Ar   96   3.198   0.185   5.259
    1   AR   Ar   97   4.814   1.538  -0.321
    1   AR   Ar   98   2.160   4.855   2.787
    1   AR   Ar   99   6.815   2.369  -1.431
    1   AR   Ar  100   2.326   2.351   0.216
    1   AR   Ar  101   2.491   4.435   1.177
    1   AR   Ar  102   3.425   3.012   3.670
    1   AR   Ar  103   1.362   4.410   0.306
    1   AR   Ar  104   2.917   2.687  -1.623
    1   AR   Ar  105   2.475   3.062   4.000
    1   AR   Ar  106   3.257   3.605   4.672
    1   AR   Ar  107   1.554   4.016   5.484
    1   AR   Ar  108   3.482   2.703   5.256
    1   AR   Ar  109   1.444   3.589   3.968
    1   AR   Ar  110   0.999   4.731   6.152
    1   AR   Ar  111   4.693   4.016   6.908
    1   AR   Ar  112   1.735   5.468   6.913
    1   AR   Ar  113   2.560   4.406   0.120
    1   AR   Ar  114   2.394   5.263  -0.647
    1   AR   Ar  115   2.812   3.920  -0.823
    1   AR   Ar  116   5.284   6.004  -1.594
    1   AR   Ar  117   0.696   5.460   4.011
    1   AR   Ar  118   0.896   6.325   3.222
    1   AR   Ar  119   2.030   3.745   1.811
    1   AR   Ar  120   1.617   5.733   2.440
    1   AR   Ar  121   6.313   4.100   4.269
    1   AR   Ar  122   2.816   5.980   5.142
    1   AR   Ar  123   2.878   4.854   4.592
    1   AR   Ar  124   1.620   4.675   1.836
    1   AR   Ar  125   0.299   3.613   5.909
    1   AR   Ar  126   6.964   7.040   4.848
    1   AR   Ar  127   3.252   3.926   6.721
    1   AR   Ar  128   2.409   5.340   6.132
    1   AR   Ar  129   1.840   6.883   3.100
    1   AR   Ar  130   4.061   1.953  -1.672
    1   AR   Ar  131   4.236   0.450  -0.125
    1   AR   Ar  132   1.265   1.564  -1.249
    1   AR   Ar  133   4.144   0.484   2.620
    1   AR   Ar  134   4.834   0.976   3.943
    1   AR   Ar  135   5.346   0.890   2.826
    1   AR   Ar  136   4.965   0.216   2.095
    1   AR   Ar  137   2.704   5.926   3.878
    1   AR   Ar  138   5.037   1.816   4.693
    1   AR   Ar  139   5.701   2.549   5.406
    1   AR   Ar  140   4.060   0.044   4.461
    1   AR   Ar  141   3.600   6.239   4.497
    1   AR   Ar  142   4.097   6.646   5.636
    1   AR   Ar  143   6.453   6.652   6.033
    1   AR   Ar  144   5.780   1.412   5.899
    1   AR   Ar  145   3.628   3.792   0.147
    1   AR   Ar  146   4.558   2.465   1.618
    1   AR   Ar  147   5.679   1.797  -2.121
    1   AR   Ar  148   4.247   4.548  -1.796
    1   AR   Ar  149   3.689   2.202   0.818
    1   AR   Ar  150   2.571   1.605   2.716
    1   AR   Ar  151   2.671   2.593   3.021
    1   AR   Ar  152   3.210   2.873   0.157
    1   AR   Ar  153   3.114   0.696   4.315
    1   AR   Ar  154   4.161   1.891   3.934
    1   AR   Ar  155   6.401   0.353   6.737
    1   AR   Ar  156   4.081   4.246   4.493
    1   AR   Ar  157   2.897   3.018   6.274
    1   AR   Ar  158   1.212   3.693   6.464
    1   AR   Ar  159   4.330   2.131   5.644
    1   AR   Ar  160   3.121   1.959   5.957
    1   AR   Ar  161   5.614   3.324   1.526
    1   AR   Ar  162   4.517   6.146  -0.684
    1   AR   Ar  163   5.375   3.216   0.405
    1   AR   Ar  164   3.207   5.759   1.813
    1   AR   Ar  165   3.558   3.386   1.385
    1   AR   Ar  166   3.050   4.401   3.525
    1   AR   Ar  167   4.137   1.784   2.699
    1   AR   Ar  168   4.255   3.186  -0.582
    1   AR   Ar  169   2.710   2.963   1.895
    1   AR   Ar  170   2.780   4.132   5.624
    1   AR   Ar  171   5.544   4.259   3.424
    1   AR   Ar  172   4.616   5.146   4.542
    1   AR   Ar  173   2.066   3.290   6.907
    1   AR   Ar  174   3.253   4.898   7.241
    1   AR   Ar  175   3.840   2.759   6.217
    1   AR   Ar  176   3.715   3.617   5.720
    1   AR   Ar  177   6.513   4.584  -0.110
    1   AR   Ar  178   3.019   5.753   0.331
    1   AR   Ar  179   4.551   5.727   0.549
    1   AR   Ar  180   1.663   2.531  -1.824
    1   AR   Ar  181   0.595   5.787   1.048
    1   AR   Ar  182   2.983   0.667   2.772
    1   AR   Ar  183   3.270   5.187   2.821
    1   AR   Ar  184   3.959   6.537   1.616
    1   AR   Ar  185   1.738   4.690   4.176
    1   AR   Ar  186   3.671   5.243   3.919
    1   AR   Ar  187   3.571   6.183   3.443
    1   AR   Ar  188   3.026   6.991   1.860
    1   AR   Ar  189   3.012   2.280   7.744
    1   AR   Ar  190   5.124   6.728   5.382
    1   AR   Ar  191   4.593   4.873   6.329
    1   AR   Ar  192   4.478   5.705   5.458
    1   AR   Ar  193   0.736   6.255  -0.284
    1   AR   Ar  194   5.080   3.773  -1.241
    1   AR   Ar  195   5.951   0.845   0.020
    1   AR   Ar  196   5.098   7.102  -0.506
    1   AR   Ar  197   5.280   1.318   0.736
    1   AR   Ar  198   6.743   1.028   1.291
    1   AR   Ar  199   5.000   1.556   1.810
    1   AR   Ar  200   6.020   2.066  -0.035
    1   AR   Ar  201   4.988   7.057   3.350
    1   AR   Ar  202   5.485   3.076   4.310
    1   AR   Ar  203   6.244   6.266   4.505
    1   AR   Ar  204   5.624   0.070   4.446
    1   AR   Ar  205   5.881   6.979   2.766
    1   AR   Ar  206   4.930   0.678   4.948
    1   AR   Ar  207   0.486   0.461   5.873
    1   AR   Ar  208   7.071   6.995   3.126
    1   AR   Ar  209   5.662   3.106  -1.877
    1   AR   Ar  210   4.181   1.276   0.681
    1   AR   Ar  211   6.476   3.109   0.525
    1   AR   Ar  212   6.387   3.948  -1.355
    1   AR   Ar  213   3.419   2.217   1.892
    1   AR   Ar  214   3.937   2.715   2.729
    1   AR   Ar  215   5.935   2.217   1.449
    1   AR   Ar  216   6.871   3.979   0.928
    1   AR   Ar  217   4.461   2.895   4.107
    1   AR   Ar  218   4.602   3.066   5.128
    1   AR   Ar  219   5.267   1.967   3.640
    1   AR   Ar  220   4.570   3.341   2.135
    1   AR   Ar  221   6.005   0.476   5.312
    1   AR   Ar  222   5.079   1.648   6.797
    1   AR   Ar  223   0.338   0.958   7.139
    1   AR   Ar  224   4.765   3.083   6.135
    1   AR   Ar  225   6.038   4.198   1.417
    1   AR   Ar  226   4.102   4.255   2.465
    1   AR   Ar  227   0.368   5.153   0.325
    1   AR   Ar  228   5.345   6.332   0.913
    1   AR   Ar  229   5.434   4.079  -0.229
    1   AR   Ar  230   4.383   4.195   3.436
    1   AR   Ar  231   6.126   1.816   2.946
    1   AR   Ar  232   4.252   2.981   0.544
    1   AR   Ar  233   6.458   2.501   3.805
    1   AR   Ar  234   6.648   2.472   4.952
    1   AR   Ar  235   0.405   2.410   4.211
    1   AR   Ar  236   5.566   4.889   5.101
    1   AR   Ar  237   5.525   3.834   5.029
    1   AR   Ar  238   4.753   4.016   5.627
    1   AR   Ar  239   6.423   3.846   9.593
    1   AR   Ar  240   6.404   3.246   5.649
    1   AR   Ar  241   0.454   6.942  -1.102
    1   AR   Ar  242   5.293   4.775   0.616
    1   AR   Ar  243   5.742   4.287   2.424
    1   AR   Ar  244   1.270   5.121  -0.469
    1   AR   Ar  245   5.631   0.380   1.175
    1   AR   Ar  246   6.722   6.140   1.358
    1   AR   Ar  247   4.682   3.808   1.120
    1   AR   Ar  248   5.591   5.800  -0.116
    1   AR   Ar  249   4.228   5.513   2.424
    1   AR   Ar  250   4.924   6.232   4.452
    1   AR   Ar  251   5.642   5.454   4.105
    1   AR   Ar  252   4.988   6.035   3.382
    1   AR   Ar  253   5.737   3.923   6.188
    1   AR   Ar  254   3.399   5.601   8.121
    1   AR   Ar  255   3.976   2.385   7.250
    1   AR   Ar  256   6.568   6.122   3.447
    7.12000  7.12000 12.00000
Argon-slab step 2615
  256
    1   AR   Ar    1   6.789   1.356  -0.638
    1   AR   Ar    2   6.578   7.091   0.881
    1   AR   Ar    3   1.214   0.511   0.194
    1   AR   Ar    4   1.630   0.344  -0.760
    1   AR   Ar    5   6.917   6.027   0.274
    1   AR   Ar    6   6.770   0.904   2.933
    1   AR   Ar    7   6.568   4.136   3.163
    1   AR   Ar    8   6.714   6.984   2.012
    1   AR   Ar    9   0.667   0.531   3.457
    1   AR   Ar   10   1.046   1.467   4.202
    1   AR   Ar   11   2.358   6.932   4.659
    1   AR   Ar   12   1.112   1.417   2.885
    1   AR   Ar   13   6.507   1.481   5.198
    1   AR   Ar   14   1.674   1.528   7.778
    1   AR   Ar   15   6.607   0.519   9.646
    1   AR   Ar   16   0.977   0.363   4.873
    1   AR   Ar   17   0.568   2.098   0.145
    1   AR   Ar   18   5.796   3.036  -0.555
    1   AR   Ar   19   1.635   2.859   1.550
    1   AR   Ar   20   5.253   4.815  -2.060
    1   AR   Ar   21   5.974   0.990   1.911
    1   AR   Ar   22   6.713   1.899   2.047
    1   AR   Ar   23   0.245   0.916   0.042
    1   AR   Ar   24   0.426   2.125   1.315
    1   AR   Ar   25   6.969   1.285   3.940
    1   AR   Ar   26   5.902   1.148   4.342
    1   AR   Ar   27   1.969   1.661   3.700
    1   AR   Ar   28   1.543   2.375   4.612
    1   AR   Ar   29   5.683   2.596   6.671
    1   AR   Ar   30   1.840   1.828   5.460
    1   AR   Ar   31   0.861   6.466   7.696
    1   AR   Ar   32   1.636   2.723   5.990
    1   AR   Ar   33   1.079   3.546  -0.436
    1   AR   Ar   34   0.062   5.410   2.939
    1   AR   Ar   35   6.558   5.017   2.028
    1   AR   Ar   36   7.077   0.535  -3.402
    1   AR   Ar   37   6.302   2.773   2.631
    1   AR   Ar   38   7.083   4.065   2.238
    1   AR   Ar   39   1.710   3.332   2.982
    1   AR   Ar   40   1.134   3.799   1.184
    1   AR   Ar   41   0.134   3.192   3.131
    1   AR   Ar   42   6.548   5.737   5.514
    1   AR   Ar   43   6.632   2.097   6.070
    1   AR   Ar   44   0.934   4.444   3.542
    1   AR   Ar   45   0.650   2.707   5.227
    1   AR   Ar   46   1.017   5.929   6.389
    1   AR   Ar   47   6.035   3.465   7.312
    1   AR   Ar   48   0.505   6.757   6.700
    1   AR   Ar   49   6.474   7.025  -2.070
    1   AR   Ar   50   5.383   5.352   1.474
    1   AR   Ar   51   0.792   5.286   1.998
    1   AR   Ar   52   5.639   4.864  -1.123
    1   AR   Ar   53   5.440   6.357   2.137
    1   AR   Ar   54   6.477   5.967   2.398
    1   AR   Ar   55   5.994   5.106   3.018
    1   AR   Ar   56   1.034   6.791   1.138
    1   AR   Ar   57   5.294   2.954   3.277
    1   AR   Ar   58   6.849   5.116   3.980
    1   AR   Ar   59   1.898   5.527   5.246
    1   AR   Ar   60   0.655   6.709   4.143
    1   AR   Ar   61   6.554   4.248   5.575
    1   AR   Ar   62   0.882   5.445   5.088
    1   AR   Ar   63   2.698   6.427   6.940
    1   AR   Ar   64   1.427   6.527   5.010
    1   AR   Ar   65   3.522   0.074   0.880
    1   AR   Ar   66   1.002   1.190   1.604
    1   AR   Ar   67   3.030   6.148  -0.893
    1   AR   Ar   68   3.202   1.312  -1.264
    1   AR   Ar   69   2.947   1.599   0.878
    1   AR   Ar   70   0.680   6.911   2.141
    1   AR   Ar   71   3.080   1.786   3.711
    1   AR   Ar   72   3.609   1.180   1.930
    1   AR   Ar   73   2.784   7.082   3.682
    1   AR   Ar   74   2.588   1.280   5.102
    1   AR   Ar   75   3.551   1.641   4.651
    1   AR   Ar   76   1.642   0.372   1.707
    1   AR   Ar   77   2.458   6.811   5.908
    1   AR   Ar   78   1.786   0.231   7.436
    1   AR   Ar   79   3.712   6.958   6.637
    1   AR   Ar   80   3.518   5.313   5.894
    1   AR   Ar   81   2.240   0.957   0.353
    1   AR   Ar   82   7.050   5.796  -0.885
    1   AR   Ar   83   1.442   2.195   0.691
    1   AR   Ar   84   0.147   3.802  -0.205
    1   AR   Ar   85   0.536   3.158   0.391
    1   AR   Ar   86   2.332   3.348   0.722
    1   AR   Ar   87   2.273   2.014   1.696
    1   AR   Ar   88   3.059   4.114   2.129
    1   AR   Ar   89   0.190   2.810   2.104
    1   AR   Ar   90   2.418   2.557   5.122
    1   AR   Ar   91   1.181   2.356   3.450
    1   AR   Ar   92   1.141   2.340   2.369
    1   AR   Ar   93   1.984   0.829   6.056
    1   AR   Ar   94   1.169   0.073   9.830
    1   AR   Ar   95   3.881   0.803   5.891
    1   AR   Ar   96   3.190   0.174   5.223
    1   AR   Ar   97   4.822   1.565  -0.341
    1   AR   Ar   98   2.135   4.852   2.744
    1   AR   Ar   99   6.810   2.340  -1.432
    1   AR   Ar  100   2.344   2.394   0.229
    1   AR   Ar  101   2.454   4.433   1.171
    1   AR   Ar  102   3.459   2.994   3.655
    1   AR   Ar  103   1.359   4.417   0.283
    1   AR   Ar  104   2.907   2.696  -1.620
    1   AR   Ar  105   2.485   3.095   4.041
    1   AR   Ar  106   3.249   3.587   4.677
    1   AR   Ar  107   1.566   4.010   5.458
    1   AR   Ar  108   3.479   2.708   5.243
    1   AR   Ar  109   1.450   3.578   3.953
    1   AR   Ar  110   0.987   4.735   6.145
    1   AR   Ar  111   4.729   4.015   6.928
    1   AR   Ar  112   1.762   5.465   6.893
    1   AR   Ar  113   2.527   4.445   0.137
    1   AR   Ar  114   2.419   5.298  -0.621
    1   AR   Ar  115   2.822   3.943  -0.816
    1   AR   Ar  116   5.321   5.957  -1.628
    1   AR   Ar  117   0.672   5.429   4.020
    1   AR   Ar  118   0.901   6.306   3.242
    1   AR   Ar  119   1.999   3.740   1.823
    1   AR   Ar  120   1.659   5.741   2.424
    1   AR   Ar  121   6.269   4.044   4.277
    1   AR   Ar  122   2.794   5.982   5.135
    1   AR   Ar  123   2.897   4.873   4.602
    1   AR   Ar  124   1.634   4.693   1.870
    1   AR   Ar  125   0.286   3.630   5.876
    1   AR   Ar  126   6.958   6.998   4.836
    1   AR   Ar  127   3.282   3.957   6.731
    1   AR   Ar  128   2.435   5.373   6.147
    1   AR   Ar  129   1.829   6.849   3.117
    1   AR   Ar  130   4.067   1.963  -1.639
    1   AR   Ar  131   4.225   0.494  -0.137
    1   AR   Ar  132   1.265   1.543  -1.253
    1   AR   Ar  133   4.135   0.506   2.638
    1   AR   Ar  134   4.837   0.974   3.943
    1   AR   Ar  135   5.324   0.855   2.859
    1   AR   Ar  136   4.939   0.239   2.117
    1   AR   Ar  137   2.701   5.936   3.850
    1   AR   Ar  138   5.044   1.821   4.690
    1   AR   Ar  139   5.716   2.552   5.444
    1   AR   Ar  140   4.089   0.048   4.472
    1   AR   Ar  141   3.605   6.221   4.513
    1   AR   Ar  142   4.092   6.653   5.614
    1   AR   Ar  143   6.482   6.645   6.029
    1   AR   Ar  144   5.758   1.387   5.906
    1   AR   Ar  145   3.628   3.798   0.127
    1   AR   Ar  146   4.530   2.465   1.622
    1   AR   Ar  147   5.682   1.785  -2.102
    1   AR   Ar  148   4.227   4.577  -1.790
    1   AR   Ar  149   3.671   2.194   0.850
    1   AR   Ar  150   2.588   1.620   2.736
    1   AR   Ar  151   2.640   2.622   3.021
    1   AR   Ar  152   3.176   2.861   0.174
    1   AR   Ar  153   3.118   0.688   4.305
    1   AR   Ar  154   4.179   1.895   3.881
    1   AR   Ar  155   6.436   0.338   6.726
    1   AR   Ar  156   4.070   4.226   4.490
    1   AR   Ar  157   2.904   3.034   6.270
    1   AR   Ar  158   1.253   3.720   6.444
    1   AR   Ar  159   4.326   2.130   5.644
    1   AR   Ar  160   3.102   1.945   5.949
    1   AR   Ar  161   5.638   3.292   1.544
    1   AR   Ar  162   4.507   6.155  -0.689
    1   AR   Ar  163   5.384   3.204   0.405
    1   AR   Ar  164   3.191   5.772   1.819
    1   AR   Ar  165   3.594   3.376   1.369
    1   AR   Ar  166   3.058   4.406   3.546
    1   AR   Ar  167   4.119   1.719   2.693
    1   AR   Ar  168   4.249   3.199  -0.548
    1   AR   Ar  169   2.680   2.967   1.838
    1   AR   Ar  170   2.762   4.124   5.603
    1   AR   Ar  171   5.541   4.257   3.425
    1   AR   Ar  172   4.614   5.133   4.556
    1   AR   Ar  173   2.054   3.260   6.886
    1   AR   Ar  174   3.215   4.899   7.257
    1   AR   Ar  175   3.822   2.744   6.216
    1   AR   Ar  176   3.702   3.574   5.737
    1   AR   Ar  177   6.501   4.582  -0.116
    1   AR   Ar  178   3.002   5.729   0.326
    1   AR   Ar  179   4.561   5.689   0.557
    1   AR   Ar  180   1.666   2.516  -1.824
    1   AR   Ar  181   0.590   5.791   1.086
    1   AR   Ar  182   3.006   0.702   2.754
    1   AR   Ar  183   3.240   5.169   2.827
    1   AR   Ar  184   3.948   6.519   1.601
    1   AR   Ar  185   1.711   4.675   4.176
    1   AR   Ar  186   3.650   5.243   3.906
    1   AR   Ar  187   3.562   6.162   3.462
    1   AR   Ar  188   3.013   7.000   1.889
    1   AR   Ar  189   3.039   2.265   7.724
    1   AR   Ar  190   5.081   6.717   5.407
    1   AR   Ar  191   4.587   4.872   6.353
    1   AR   Ar  192   4.474   5.687   5.466
    1   AR   Ar  193   0.735   6.262  -0.265
    1   AR   Ar  194   5.057   3.779  -1.215
    1   AR   Ar  195   5.977   0.838   0.007
    1   AR   Ar  196   5.079   7.079  -0.499
    1   AR   Ar  197   5.278   1.315   0.794
    1   AR   Ar  198   6.724   1.036   1.306
    1   AR   Ar  199   4.997   1.562   1.822
    1   AR   Ar  200   6.005   2.068  -0.033
    1   AR   Ar  201   4.986   7.053   3.335
    1   AR   Ar  202   5.513   3.081   4.288
    1   AR   Ar  203   6.252   6.271   4.501
    1   AR   Ar  204   5.630   0.073   4.448
    1   AR   Ar  205   5.840   6.954   2.777
    1   AR   Ar  206   4.958   0.690   4.957
    1   AR   Ar  207   0.514   0.500   5.846
    1   AR   Ar  208   7.045   6.985   3.097
    1   AR   Ar  209   5.668   3.092  -1.860
    1   AR   Ar  210   4.133   1.258   0.658
    1   AR   Ar  211   6.448   3.084   0.546
    1   AR   Ar  212   6.395   3.957  -1.343
    1   AR   Ar  213   3.425   2.210   1.865
    1   AR   Ar  214   3.946   2.724   2.735
    1   AR   Ar  215   5.925   2.189   1.448
    1   AR   Ar  216   6.874   3.979   0.932
    1   AR   Ar  217   4.494   2.859   4.106
    1   AR   Ar  218   4.582   3.083   5.124
    1   AR   Ar  219   5.295   1.984   3.656
    1   AR   Ar  220   4.594   3.345   2.159
    1   AR   Ar  221   6.001   0.457   5.349
    1   AR   Ar  222   5.091   1.642   6.804
    1   AR   Ar  223   0.301   0.928   7.143
    1   AR   Ar  224   4.780   3.060   6.165
    1   AR   Ar  225   6.038   4.214   1.429
    1   AR   Ar  226   4.085   4.263   2.449
    1   AR   Ar  227   0.351   5.153   0.332
    1   AR   Ar  228   5.342   6.343   0.934
    1   AR   Ar  229   5.426   4.069  -0.261
    1   AR   Ar  230   4.354   4.231   3.449
    1   AR   Ar  231   6.113   1.794   2.931
    1   AR   Ar  232   4.283   2.990   0.572
    1   AR   Ar  233   6.446   2.483   3.784
    1   AR   Ar  234   6.643   2.442   4.966
    1   AR   Ar  235   0.395   2.397   4.164
    1   AR   Ar  236   5.579   4.866   5.072
    1   AR   Ar  237   5.518   3.818   5.037
    1   AR   Ar  238   4.766   4.049   5.609
    1   AR   Ar  239   6.420   3.831   9.603
    1   AR   Ar  240   6.418   3.211   5.654
    1   AR   Ar  241   0.503   6.931  -1.082
    1   AR   Ar  242   5.280   4.753   0.615
    1   AR   Ar  243   5.727   4.303   2.409
    1   AR   Ar  244   1.249   5.135  -0.471
    1   AR   Ar  245   5.636   0.407   1.156
    1   AR   Ar  246   6.742   6.104   1.312
    1   AR   Ar  247   4.691   3.803   1.134
    1   AR   Ar  248   5.568   5.783  -0.135
    1   AR   Ar  249   4.225   5.539   2.426
    1   AR   Ar  250   4.919   6.214   4.458
    1   AR   Ar  251   5.634   5.456   4.111
    1   AR   Ar  252   4.994   6.021   3.367
    1   AR   Ar  253   5.745   3.889   6.159
    1   AR   Ar  254   3.373   5.611   8.145
    1   AR   Ar  255   4.005   2.417   7.217
    1   AR   Ar  256   6.560   6.119   3.413
    7.12000  7.12000 12.00000
Argon-slab step 2620
  256
    1   AR   Ar    1   6.773   1.373  -0.635
    1   AR   Ar    2   6.543   0.008   0.872
    1   AR   Ar    3   1.212   0.531   0.199
    1   AR   Ar    4   1.606   0.344  -0.769
    1   AR   Ar    5   6.932   6.019   0.239
    1   AR   Ar    6   6.762   0.913   2.938
    1   AR   Ar    7   6.564   4.127   3.164
    1   AR   Ar    8   6.721   6.986   1.967
    1   AR   Ar    9   0.642   0.510   3.439
    1   AR   Ar   10   1.033   1.472   4.203
    1   AR   Ar   11   2.328   6.945   4.710
    1   AR   Ar   12   1.141   1.376   2.916
    1   AR   Ar   13   6.508   1.518   5.180
    1   AR   Ar   14   1.703   1.538   7.777
    1   AR   Ar   15   6.609   0.512   9.661
    1   AR   Ar   16   0.963   0.378   4.903
    1   AR   Ar   17   0.572   2.107   0.168
    1   AR   Ar   18   5.750   3.056  -0.561
    1   AR   Ar   19   1.615   2.854   1.528
    1   AR   Ar   20   5.241   4.853  -2.047
    1   AR   Ar   21   5.983   1.013   1.929
    1   AR   Ar   22   6.687   1.864   2.059
    1   AR   Ar   23   0.230   0.930   0.059
    1   AR   Ar   24   0.411   2.097   1.287
    1   AR   Ar   25   6.983   1.302   3.935
    1   AR   Ar   26   5.873   1.162   4.337
    1   AR   Ar   27   1.958   1.618   3.720
    1   AR   Ar   28   1.535   2.356   4.610
    1   AR   Ar   29   5.653   2.578   6.669
    1   AR   Ar   30   1.818   1.853   5.450
    1   AR   Ar   31   0.846   6.485   7.684
    1   AR   Ar   32   1.646   2.710   5.978
    1   AR   Ar   33   1.097   3.550  -0.444
    1   AR   Ar   34   0.077   5.385   2.914
    1   AR   Ar   35   6.542   4.994   2.008
    1   AR   Ar   36   7.089   0.535  -3.426
    1   AR   Ar   37   6.298   2.796   2.635
    1   AR   Ar   38   7.097   4.048   2.259
    1   AR   Ar   39   1.726   3.314   2.980
    1   AR   Ar   40   1.138   3.796   1.194
    1   AR   Ar   41   0.143   3.221   3.148
    1   AR   Ar   42   6.584   5.742   5.493
    1   AR   Ar   43   6.654   2.118   6.090
    1   AR   Ar   44   0.919   4.472   3.541
    1   AR   Ar   45   0.631   2.720   5.248
    1   AR   Ar   46   1.006   5.925   6.342
    1   AR   Ar   47   6.056   3.456   7.321
    1   AR   Ar   48   0.534   6.729   6.716
    1   AR   Ar   49   6.464   7.020  -2.089
    1   AR   Ar   50   5.376   5.353   1.495
    1   AR   Ar   51   0.787   5.282   1.998
    1   AR   Ar   52   5.622   4.867  -1.124
    1   AR   Ar   53   5.443   6.341   2.141
    1   AR   Ar   54   6.446   5.991   2.434
    1   AR   Ar   55   6.017   5.109   3.026
    1   AR   Ar   56   1.010   6.803   1.119
    1   AR   Ar   57   5.319   2.919   3.287
    1   AR   Ar   58   6.828   5.129   3.980
    1   AR   Ar   59   1.883   5.554   5.230
    1   AR   Ar   60   0.676   6.705   4.145
    1   AR   Ar   61   6.552   4.240   5.539
    1   AR   Ar   62   0.849   5.436   5.109
    1   AR   Ar   63   2.729   6.444   6.953
    1   AR   Ar   64   1.399   6.530   5.023
    1   AR   Ar   65   3.511   0.056   0.870
    1   AR   Ar   66   0.971   1.207   1.644
    1   AR   Ar   67   3.007   6.153  -0.920
    1   AR   Ar   68   3.233   1.351  -1.264
    1   AR   Ar   69   2.905   1.583   0.903
    1   AR   Ar   70   0.671   6.888   2.138
    1   AR   Ar   71   3.066   1.803   3.715
    1   AR   Ar   72   3.582   1.191   1.923
    1   AR   Ar   73   2.766   7.061   3.663
    1   AR   Ar   74   2.619   1.245   5.076
    1   AR   Ar   75   3.537   1.627   4.683
    1   AR   Ar   76   1.654   0.334   1.731
    1   AR   Ar   77   2.428   6.806   5.921
    1   AR   Ar   78   1.810   0.260   7.448
    1   AR   Ar   79   3.710   6.963   6.616
    1   AR   Ar   80   3.512   5.311   5.926
    1   AR   Ar   81   2.270   0.942   0.367
    1   AR   Ar   82   7.010   5.793  -0.875
    1   AR   Ar   83   1.406   2.188   0.676
    1   AR   Ar   84   0.147   3.803  -0.175
    1   AR   Ar   85   0.565   3.154   0.455
    1   AR   Ar   86   2.333   3.332   0.743
    1   AR   Ar   87   2.282   1.992   1.692
    1   AR   Ar   88   3.044   4.145   2.124
    1   AR   Ar   89   0.177   2.831   2.122
    1   AR   Ar   90   2.441   2.560   5.103
    1   AR   Ar   91   1.160   2.356   3.437
    1   AR   Ar   92   1.133   2.339   2.365
    1   AR   Ar   93   2.005   0.823   6.019
    1   AR   Ar   94   1.161   0.085   9.803
    1   AR   Ar   95   3.918   0.794   5.914
    1   AR   Ar   96   3.185   0.161   5.190
    1   AR   Ar   97   4.831   1.592  -0.360
    1   AR   Ar   98   2.115   4.847   2.709
    1   AR   Ar   99   6.803   2.311  -1.433
    1   AR   Ar  100   2.347   2.425   0.241
    1   AR   Ar  101   2.418   4.431   1.167
    1   AR   Ar  102   3.496   2.976   3.643
    1   AR   Ar  103   1.356   4.422   0.262
    1   AR   Ar  104   2.897   2.705  -1.617
    1   AR   Ar  105   2.489   3.126   4.082
    1   AR   Ar  106   3.240   3.560   4.663
    1   AR   Ar  107   1.579   4.004   5.431
    1   AR   Ar  108   3.485   2.694   5.237
    1   AR   Ar  109   1.443   3.583   3.969
    1   AR   Ar  110   0.975   4.741   6.136
    1   AR   Ar  111   4.765   4.009   6.948
    1   AR   Ar  112   1.789   5.460   6.882
    1   AR   Ar  113   2.494   4.483   0.150
    1   AR   Ar  114   2.442   5.331  -0.594
    1   AR   Ar  115   2.832   3.971  -0.805
    1   AR   Ar  116   5.356   5.909  -1.661
    1   AR   Ar  117   0.658   5.402   4.028
    1   AR   Ar  118   0.905   6.283   3.255
    1   AR   Ar  119   1.972   3.740   1.840
    1   AR   Ar  120   1.701   5.753   2.409
    1   AR   Ar  121   6.226   3.989   4.284
    1   AR   Ar  122   2.780   5.983   5.123
    1   AR   Ar  123   2.919   4.902   4.618
    1   AR   Ar  124   1.645   4.713   1.897
    1   AR   Ar  125   0.275   3.645   5.844
    1   AR   Ar  126   6.952   6.959   4.825
    1   AR   Ar  127   3.314   3.986   6.739
    1   AR   Ar  128   2.467   5.405   6.158
    1   AR   Ar  129   1.832   6.837   3.121
    1   AR   Ar  130   4.074   1.973  -1.605
    1   AR   Ar  131   4.213   0.539  -0.148
    1   AR   Ar  132   1.261   1.565  -1.240
    1   AR   Ar  133   4.150   0.496   2.638
    1   AR   Ar  134   4.828   0.984   3.937
    1   AR   Ar  135   5.303   0.825   2.895
    1   AR   Ar  136   4.940   0.259   2.107
    1   AR   Ar  137   2.686   5.943   3.831
    1   AR   Ar  138   5.051   1.826   4.689
    1   AR   Ar  139   5.702   2.563   5.451
    1   AR   Ar  140   4.120   0.053   4.484
    1   AR   Ar  141   3.613   6.203   4.530
    1   AR   Ar  142   4.077   6.663   5.592
    1   AR   Ar  143   6.511   6.640   6.024
    1   AR   Ar  144   5.733   1.363   5.916
    1   AR   Ar  145   3.627   3.809   0.108
    1   AR   Ar  146   4.499   2.465   1.622
    1   AR   Ar  147   5.685   1.775  -2.082
    1   AR   Ar  148   4.208   4.605  -1.783
    1   AR   Ar  149   3.664   2.213   0.873
    1   AR   Ar  150   2.576   1.619   2.734
    1   AR   Ar  151   2.608   2.655   3.020
    1   AR   Ar  152   3.160   2.857   0.189
    1   AR   Ar  153   3.125   0.687   4.297
    1   AR   Ar  154   4.201   1.897   3.821
    1   AR   Ar  155   6.471   0.324   6.714
    1   AR   Ar  156   4.058   4.205   4.489
    1   AR   Ar  157   2.895   3.053   6.264
    1   AR   Ar  158   1.290   3.748   6.423
    1   AR   Ar  159   4.328   2.148   5.662
    1   AR   Ar  160   3.082   1.930   5.939
    1   AR   Ar  161   5.657   3.254   1.562
    1   AR   Ar  162   4.498   6.163  -0.694
    1   AR   Ar  163   5.377   3.244   0.427
    1   AR   Ar  164   3.175   5.783   1.827
    1   AR   Ar  165   3.630   3.364   1.352
    1   AR   Ar  166   3.065   4.407   3.568
    1   AR   Ar  167   4.103   1.649   2.689
    1   AR   Ar  168   4.244   3.211  -0.514
    1   AR   Ar  169   2.654   2.972   1.782
    1   AR   Ar  170   2.722   4.114   5.585
    1   AR   Ar  171   5.542   4.255   3.417
    1   AR   Ar  172   4.613   5.122   4.567
    1   AR   Ar  173   2.045   3.226   6.870
    1   AR   Ar  174   3.177   4.903   7.271
    1   AR   Ar  175   3.809   2.718   6.234
    1   AR   Ar  176   3.691   3.551   5.748
    1   AR   Ar  177   6.487   4.580  -0.122
    1   AR   Ar  178   2.985   5.703   0.322
    1   AR   Ar  179   4.572   5.650   0.565
    1   AR   Ar  180   1.669   2.500  -1.823
    1   AR   Ar  181   0.590   5.800   1.125
    1   AR   Ar  182   3.033   0.729   2.737
    1   AR   Ar  183   3.225   5.152   2.862
    1   AR   Ar  184   3.940   6.501   1.588
    1   AR   Ar  185   1.689   4.662   4.179
    1   AR   Ar  186   3.632   5.239   3.895
    1   AR   Ar  187   3.567   6.149   3.468
    1   AR   Ar  188   3.000   7.010   1.919
    1   AR   Ar  189   3.047   2.264   7.722
    1   AR   Ar  190   5.047   6.708   5.429
    1   AR   Ar  191   4.577   4.865   6.375
    1   AR   Ar  192   4.472   5.668   5.472
    1   AR   Ar  193   0.735   6.268  -0.243
    1   AR   Ar  194   5.047   3.764  -1.179
    1   AR   Ar  195   6.003   0.833  -0.006
    1   AR   Ar  196   5.062   7.056  -0.492
    1   AR   Ar  197   5.276   1.317   0.848
    1   AR   Ar  198   6.724   1.049   1.303
    1   AR   Ar  199   4.995   1.563   1.837
    1   AR   Ar  200   5.990   2.069  -0.031
    1   AR   Ar  201   4.978   7.055   3.325
    1   AR   Ar  202   5.546   3.084   4.269
    1   AR   Ar  203   6.257   6.275   4.498
    1   AR   Ar  204   5.636   0.072   4.444
    1   AR   Ar  205   5.813   6.940   2.797
    1   AR   Ar  206   4.985   0.704   4.971
    1   AR   Ar  207   0.541   0.537   5.820
    1   AR   Ar  208   7.018   6.975   3.066
    1   AR   Ar  209   5.675   3.078  -1.841
    1   AR   Ar  210   4.086   1.239   0.636
    1   AR   Ar  211   6.421   3.056   0.565
    1   AR   Ar  212   6.400   3.966  -1.328
    1   AR   Ar  213   3.422   2.193   1.841
    1   AR   Ar  214   3.953   2.739   2.740
    1   AR   Ar  215   5.909   2.162   1.445
    1   AR   Ar  216   6.887   3.979   0.932
    1   AR   Ar  217   4.525   2.826   4.101
    1   AR   Ar  218   4.563   3.101   5.119
    1   AR   Ar  219   5.323   1.997   3.673
    1   AR   Ar  220   4.621   3.353   2.184
    1   AR   Ar  221   5.998   0.452   5.376
    1   AR   Ar  222   5.102   1.637   6.810
    1   AR   Ar  223   0.264   0.896   7.146
    1   AR   Ar  224   4.804   3.039   6.196
    1   AR   Ar  225   6.035   4.239   1.439
    1   AR   Ar  226   4.068   4.272   2.429
    1   AR   Ar  227   0.337   5.140   0.320
    1   AR   Ar  228   5.332   6.360   0.961
    1   AR   Ar  229   5.421   4.060  -0.291
    1   AR   Ar  230   4.327   4.267   3.466
    1   AR   Ar  231   6.127   1.774   2.910
    1   AR   Ar  232   4.316   3.000   0.598
    1   AR   Ar  233   6.434   2.465   3.762
    1   AR   Ar  234   6.643   2.420   4.973
    1   AR   Ar  235   0.384   2.384   4.119
    1   AR   Ar  236   5.592   4.846   5.043
    1   AR   Ar  237   5.523   3.796   5.041
    1   AR   Ar  238   4.766   4.088   5.600
    1   AR   Ar  239   6.455   3.828   9.593
    1   AR   Ar  240   6.438   3.181   5.663
    1   AR   Ar  241   0.552   6.921  -1.062
    1   AR   Ar  242   5.267   4.730   0.612
    1   AR   Ar  243   5.697   4.313   2.406
    1   AR   Ar  244   1.228   5.151  -0.475
    1   AR   Ar  245   5.639   0.426   1.135
    1   AR   Ar  246   6.757   6.068   1.271
    1   AR   Ar  247   4.702   3.801   1.148
    1   AR   Ar  248   5.544   5.765  -0.153
    1   AR   Ar  249   4.227   5.555   2.424
    1   AR   Ar  250   4.913   6.198   4.464
    1   AR   Ar  251   5.620   5.452   4.120
    1   AR   Ar  252   5.000   6.002   3.351
    1   AR   Ar  253   5.748   3.854   6.132
    1   AR   Ar  254   3.346   5.621   8.167
    1   AR   Ar  255   4.035   2.449   7.184
    1   AR   Ar  256   6.548   6.114   3.387
    7.12000  7.12000 12.00000
Argon-slab step 2625
  256
    1   AR   Ar    1   6.751   1.395  -0.639
    1   AR   Ar    2   6.512   0.043   0.860
    1   AR   Ar    3   1.211   0.550   0.208
    1   AR   Ar    4   1.563   0.337  -0.749
    1   AR   Ar    5   6.942   6.015   0.203
    1   AR   Ar    6   6.755   0.921   2.941
    1   AR   Ar    7   6.561   4.119   3.168
    1   AR   Ar    8   6.727   6.973   1.957
    1   AR   Ar    9   0.619   0.491   3.422
    1   AR   Ar   10   1.016   1.475   4.204
    1   AR   Ar   11   2.297   6.957   4.758
    1   AR   Ar   12   1.171   1.334   2.947
    1   AR   Ar   13   6.505   1.527   5.166
    1   AR   Ar   14   1.714   1.542   7.768
    1   AR   Ar   15   6.612   0.504   9.676
    1   AR   Ar   16   0.951   0.394   4.926
    1   AR   Ar   17   0.562   2.112   0.182
    1   AR   Ar   18   5.705   3.075  -0.570
    1   AR   Ar   19   1.590   2.843   1.503
    1   AR   Ar   20   5.226   4.891  -2.043
    1   AR   Ar   21   5.980   1.036   1.961
    1   AR   Ar   22   6.669   1.828   2.069
    1   AR   Ar   23   0.216   0.928   0.060
    1   AR   Ar   24   0.396   2.070   1.258
    1   AR   Ar   25   6.997   1.320   3.932
    1   AR   Ar   26   5.844   1.176   4.331
    1   AR   Ar   27   1.974   1.623   3.694
    1   AR   Ar   28   1.523   2.341   4.600
    1   AR   Ar   29   5.626   2.561   6.665
    1   AR   Ar   30   1.793   1.864   5.446
    1   AR   Ar   31   0.833   6.504   7.674
    1   AR   Ar   32   1.666   2.700   6.010
    1   AR   Ar   33   1.121   3.554  -0.453
    1   AR   Ar   34   0.093   5.356   2.889
    1   AR   Ar   35   6.528   4.973   1.988
    1   AR   Ar   36   7.102   0.535  -3.450
    1   AR   Ar   37   6.293   2.802   2.640
    1   AR   Ar   38   7.113   4.034   2.302
    1   AR   Ar   39   1.741   3.295   2.975
    1   AR   Ar   40   1.139   3.794   1.203
    1   AR   Ar   41   0.151   3.250   3.165
    1   AR   Ar   42   6.620   5.744   5.468
    1   AR   Ar   43   6.673   2.141   6.108
    1   AR   Ar   44   0.898   4.497   3.535
    1   AR   Ar   45   0.612   2.732   5.270
    1   AR   Ar   46   0.997   5.915   6.290
    1   AR   Ar   47   6.077   3.447   7.327
    1   AR   Ar   48   0.556   6.709   6.732
    1   AR   Ar   49   6.455   7.019  -2.106
    1   AR   Ar   50   5.377   5.374   1.504
    1   AR   Ar   51   0.777   5.278   2.004
    1   AR   Ar   52   5.608   4.870  -1.115
    1   AR   Ar   53   5.433   6.325   2.159
    1   AR   Ar   54   6.412   6.016   2.452
    1   AR   Ar   55   6.034   5.112   3.039
    1   AR   Ar   56   0.987   6.817   1.097
    1   AR   Ar   57   5.344   2.891   3.288
    1   AR   Ar   58   6.794   5.138   3.978
    1   AR   Ar   59   1.864   5.577   5.214
    1   AR   Ar   60   0.695   6.704   4.153
    1   AR   Ar   61   6.549   4.235   5.499
    1   AR   Ar   62   0.812   5.426   5.130
    1   AR   Ar   63   2.739   6.476   6.965
    1   AR   Ar   64   1.368   6.529   5.038
    1   AR   Ar   65   3.500   0.040   0.859
    1   AR   Ar   66   0.941   1.225   1.684
    1   AR   Ar   67   3.005   6.157  -0.968
    1   AR   Ar   68   3.264   1.390  -1.263
    1   AR   Ar   69   2.880   1.581   0.921
    1   AR   Ar   70   0.650   6.882   2.163
    1   AR   Ar   71   3.049   1.811   3.722
    1   AR   Ar   72   3.555   1.193   1.910
    1   AR   Ar   73   2.748   7.037   3.641
    1   AR   Ar   74   2.650   1.209   5.052
    1   AR   Ar   75   3.526   1.615   4.717
    1   AR   Ar   76   1.671   0.326   1.677
    1   AR   Ar   77   2.411   6.799   5.920
    1   AR   Ar   78   1.833   0.289   7.460
    1   AR   Ar   79   3.706   6.967   6.594
    1   AR   Ar   80   3.507   5.308   5.958
    1   AR   Ar   81   2.297   0.925   0.380
    1   AR   Ar   82   6.971   5.791  -0.864
    1   AR   Ar   83   1.379   2.181   0.670
    1   AR   Ar   84   0.137   3.814  -0.149
    1   AR   Ar   85   0.598   3.144   0.527
    1   AR   Ar   86   2.333   3.321   0.768
    1   AR   Ar   87   2.289   1.968   1.689
    1   AR   Ar   88   3.025   4.176   2.118
    1   AR   Ar   89   0.163   2.851   2.139
    1   AR   Ar   90   2.470   2.570   5.083
    1   AR   Ar   91   1.143   2.358   3.424
    1   AR   Ar   92   1.126   2.338   2.360
    1   AR   Ar   93   2.026   0.818   5.980
    1   AR   Ar   94   1.152   0.097   9.777
    1   AR   Ar   95   3.955   0.784   5.934
    1   AR   Ar   96   3.185   0.147   5.164
    1   AR   Ar   97   4.841   1.618  -0.376
    1   AR   Ar   98   2.111   4.841   2.696
    1   AR   Ar   99   6.796   2.282  -1.433
    1   AR   Ar  100   2.323   2.436   0.253
    1   AR   Ar  101   2.382   4.429   1.168
    1   AR   Ar  102   3.533   2.958   3.635
    1   AR   Ar  103   1.353   4.423   0.245
    1   AR   Ar  104   2.887   2.713  -1.614
    1   AR   Ar  105   2.489   3.154   4.121
    1   AR   Ar  106   3.232   3.533   4.646
    1   AR   Ar  107   1.593   3.998   5.401
    1   AR   Ar  108   3.474   2.678   5.206
    1   AR   Ar  109   1.437   3.588   3.988
    1   AR   Ar  110   0.964   4.749   6.126
    1   AR   Ar  111   4.802   3.998   6.967
    1   AR   Ar  112   1.812   5.454   6.879
    1   AR   Ar  113   2.461   4.521   0.158
    1   AR   Ar  114   2.463   5.360  -0.565
    1   AR   Ar  115   2.843   3.999  -0.791
    1   AR   Ar  116   5.392   5.860  -1.692
    1   AR   Ar  117   0.654   5.382   4.034
    1   AR   Ar  118   0.908   6.256   3.261
    1   AR   Ar  119   1.948   3.745   1.864
    1   AR   Ar  120   1.741   5.769   2.393
    1   AR   Ar  121   6.185   3.936   4.289
    1   AR   Ar  122   2.783   5.971   5.093
    1   AR   Ar  123   2.939   4.930   4.636
    1   AR   Ar  124   1.645   4.731   1.904
    1   AR   Ar  125   0.268   3.661   5.812
    1   AR   Ar  126   6.949   6.924   4.818
    1   AR   Ar  127   3.345   4.013   6.744
    1   AR   Ar  128   2.505   5.438   6.162
    1   AR   Ar  129   1.853   6.856   3.106
    1   AR   Ar  130   4.080   1.984  -1.571
    1   AR   Ar  131   4.201   0.583  -0.160
    1   AR   Ar  132   1.257   1.587  -1.227
    1   AR   Ar  133   4.156   0.491   2.647
    1   AR   Ar  134   4.819   0.994   3.930
    1   AR   Ar  135   5.286   0.803   2.932
    1   AR   Ar  136   4.964   0.275   2.071
    1   AR   Ar  137   2.657   5.945   3.818
    1   AR   Ar  138   5.057   1.833   4.691
    1   AR   Ar  139   5.665   2.578   5.437
    1   AR   Ar  140   4.152   0.060   4.496
    1   AR   Ar  141   3.623   6.184   4.549
    1   AR   Ar  142   4.048   6.674   5.569
    1   AR   Ar  143   6.540   6.639   6.018
    1   AR   Ar  144   5.706   1.340   5.926
    1   AR   Ar  145   3.626   3.823   0.091
    1   AR   Ar  146   4.465   2.467   1.619
    1   AR   Ar  147   5.689   1.766  -2.061
    1   AR   Ar  148   4.187   4.622  -1.773
    1   AR   Ar  149   3.667   2.240   0.890
    1   AR   Ar  150   2.560   1.625   2.730
    1   AR   Ar  151   2.578   2.687   3.019
    1   AR   Ar  152   3.174   2.870   0.202
    1   AR   Ar  153   3.142   0.692   4.285
    1   AR   Ar  154   4.221   1.895   3.759
    1   AR   Ar  155   6.508   0.313   6.704
    1   AR   Ar  156   4.046   4.185   4.491
    1   AR   Ar  157   2.873   3.075   6.255
    1   AR   Ar  158   1.322   3.777   6.400
    1   AR   Ar  159   4.341   2.153   5.668
    1   AR   Ar  160   3.062   1.915   5.927
    1   AR   Ar  161   5.675   3.213   1.581
    1   AR   Ar  162   4.488   6.169  -0.699
    1   AR   Ar  163   5.356   3.238   0.427
    1   AR   Ar  164   3.158   5.793   1.836
    1   AR   Ar  165   3.665   3.352   1.337
    1   AR   Ar  166   3.071   4.403   3.593
    1   AR   Ar  167   4.090   1.579   2.689
    1   AR   Ar  168   4.242   3.222  -0.481
    1   AR   Ar  169   2.635   2.978   1.726
    1   AR   Ar  170   2.683   4.104   5.568
    1   AR   Ar  171   5.538   4.249   3.419
    1   AR   Ar  172   4.613   5.110   4.577
    1   AR   Ar  173   2.037   3.184   6.864
    1   AR   Ar  174   3.138   4.909   7.286
    1   AR   Ar  175   3.798   2.687   6.266
    1   AR   Ar  176   3.682   3.548   5.753
    1   AR   Ar  177   6.472   4.579  -0.127
    1   AR   Ar  178   2.972   5.712   0.294
    1   AR   Ar  179   4.583   5.611   0.572
    1   AR   Ar  180   1.672   2.484  -1.822
    1   AR   Ar  181   0.597   5.809   1.161
    1   AR   Ar  182   3.065   0.747   2.722
    1   AR   Ar  183   3.211   5.137   2.894
    1   AR   Ar  184   3.936   6.483   1.576
    1   AR   Ar  185   1.672   4.652   4.188
    1   AR   Ar  186   3.618   5.231   3.888
    1   AR   Ar  187   3.584   6.146   3.462
    1   AR   Ar  188   2.986   7.021   1.949
    1   AR   Ar  189   3.049   2.269   7.732
    1   AR   Ar  190   5.025   6.702   5.449
    1   AR   Ar  191   4.564   4.861   6.395
    1   AR   Ar  192   4.471   5.648   5.479
    1   AR   Ar  193   0.737   6.272  -0.220
    1   AR   Ar  194   5.052   3.717  -1.134
    1   AR   Ar  195   6.028   0.828  -0.016
    1   AR   Ar  196   5.048   7.033  -0.483
    1   AR   Ar  197   5.271   1.326   0.898
    1   AR   Ar  198   6.741   1.066   1.283
    1   AR   Ar  199   4.994   1.561   1.856
    1   AR   Ar  200   5.974   2.069  -0.027
    1   AR   Ar  201   4.959   7.058   3.323
    1   AR   Ar  202   5.581   3.085   4.255
    1   AR   Ar  203   6.259   6.274   4.493
    1   AR   Ar  204   5.646   0.063   4.449
    1   AR   Ar  205   5.804   6.936   2.823
    1   AR   Ar  206   5.009   0.719   4.987
    1   AR   Ar  207   0.565   0.575   5.801
    1   AR   Ar  208   6.993   6.965   3.032
    1   AR   Ar  209   5.683   3.064  -1.821
    1   AR   Ar  210   4.039   1.220   0.617
    1   AR   Ar  211   6.395   3.027   0.584
    1   AR   Ar  212   6.403   3.975  -1.312
    1   AR   Ar  213   3.416   2.181   1.827
    1   AR   Ar  214   3.960   2.752   2.743
    1   AR   Ar  215   5.890   2.136   1.439
    1   AR   Ar  216   6.910   3.977   0.930
    1   AR   Ar  217   4.556   2.796   4.095
    1   AR   Ar  218   4.543   3.120   5.116
    1   AR   Ar  219   5.352   2.002   3.692
    1   AR   Ar  220   4.650   3.364   2.209
    1   AR   Ar  221   5.996   0.467   5.387
    1   AR   Ar  222   5.112   1.632   6.816
    1   AR   Ar  223   0.228   0.863   7.148
    1   AR   Ar  224   4.830   3.022   6.227
    1   AR   Ar  225   6.027   4.267   1.445
    1   AR   Ar  226   4.050   4.282   2.407
    1   AR   Ar  227   0.341   5.126   0.314
    1   AR   Ar  228   5.323   6.378   0.989
    1   AR   Ar  229   5.420   4.057  -0.314
    1   AR   Ar  230   4.328   4.273   3.472
    1   AR   Ar  231   6.135   1.752   2.894
    1   AR   Ar  232   4.348   3.008   0.620
    1   AR   Ar  233   6.419   2.447   3.740
    1   AR   Ar  234   6.650   2.423   4.969
    1   AR   Ar  235   0.368   2.372   4.078
    1   AR   Ar  236   5.606   4.828   5.015
    1   AR   Ar  237   5.534   3.768   5.043
    1   AR   Ar  238   4.756   4.129   5.597
    1   AR   Ar  239   6.490   3.825   9.584
    1   AR   Ar  240   6.465   3.157   5.676
    1   AR   Ar  241   0.601   6.913  -1.044
    1   AR   Ar  242   5.256   4.707   0.609
    1   AR   Ar  243   5.663   4.319   2.405
    1   AR   Ar  244   1.205   5.171  -0.481
    1   AR   Ar  245   5.639   0.437   1.115
    1   AR   Ar  246   6.762   6.034   1.236
    1   AR   Ar  247   4.700   3.818   1.154
    1   AR   Ar  248   5.519   5.747  -0.170
    1   AR   Ar  249   4.232   5.555   2.417
    1   AR   Ar  250   4.905   6.184   4.470
    1   AR   Ar  251   5.643   5.454   4.106
    1   AR   Ar  252   5.006   5.979   3.334
    1   AR   Ar  253   5.747   3.825   6.123
    1   AR   Ar  254   3.319   5.630   8.188
    1   AR   Ar  255   4.068   2.479   7.158
    1   AR   Ar  256   6.534   6.108   3.382
    7.12000  7.12000 12.00000
Argon-slab step 2630
  256
    1   AR   Ar    1   6.726   1.422  -0.646
    1   AR   Ar    2   6.492   0.073   0.845
    1   AR   Ar    3   1.211   0.568   0.222
    1   AR   Ar    4   1.520   0.330  -0.732
    1   AR   Ar    5   6.949   6.021   0.176
    1   AR   Ar    6   6.749   0.925   2.942
    1   AR   Ar    7   6.557   4.112   3.176
    1   AR   Ar    8   6.727   7.000   1.960
    1   AR   Ar    9   0.596   0.474   3.407
    1   AR   Ar   10   0.998   1.476   4.204
    1   AR   Ar   11   2.264   6.969   4.803
    1   AR   Ar   12   1.201   1.292   2.978
    1   AR   Ar   13   6.497   1.505   5.159
    1   AR   Ar   14   1.700   1.539   7.749
    1   AR   Ar   15   6.615   0.496   9.691
    1   AR   Ar   16   0.975   0.404   4.934
    1   AR   Ar   17   0.535   2.114   0.184
    1   AR   Ar   18   5.663   3.089  -0.581
    1   AR   Ar   19   1.562   2.827   1.475
    1   AR   Ar   20   5.207   4.923  -2.048
    1   AR   Ar   21   5.969   1.057   1.999
    1   AR   Ar   22   6.663   1.796   2.072
    1   AR   Ar   23   0.200   0.903   0.031
    1   AR   Ar   24   0.376   2.063   1.247
    1   AR   Ar   25   7.011   1.340   3.929
    1   AR   Ar   26   5.816   1.190   4.325
    1   AR   Ar   27   1.996   1.641   3.658
    1   AR   Ar   28   1.508   2.331   4.581
    1   AR   Ar   29   5.606   2.543   6.662
    1   AR   Ar   30   1.769   1.862   5.446
    1   AR   Ar   31   0.823   6.522   7.673
    1   AR   Ar   32   1.684   2.695   6.041
    1   AR   Ar   33   1.126   3.559  -0.446
    1   AR   Ar   34   0.108   5.327   2.866
    1   AR   Ar   35   6.516   4.957   1.973
    1   AR   Ar   36   7.114   0.535  -3.474
    1   AR   Ar   37   6.288   2.810   2.644
    1   AR   Ar   38   0.012   4.020   2.341
    1   AR   Ar   39   1.752   3.277   2.968
    1   AR   Ar   40   1.139   3.795   1.209
    1   AR   Ar   41   0.160   3.277   3.183
    1   AR   Ar   42   6.656   5.744   5.440
    1   AR   Ar   43   6.690   2.164   6.125
    1   AR   Ar   44   0.873   4.519   3.522
    1   AR   Ar   45   0.593   2.744   5.290
    1   AR   Ar   46   0.992   5.898   6.232
    1   AR   Ar   47   6.096   3.438   7.332
    1   AR   Ar   48   0.572   6.699   6.741
    1   AR   Ar   49   6.454   7.036  -2.111
    1   AR   Ar   50   5.379   5.395   1.514
    1   AR   Ar   51   0.764   5.272   2.016
    1   AR   Ar   52   5.598   4.871  -1.097
    1   AR   Ar   53   5.415   6.301   2.166
    1   AR   Ar   54   6.377   6.039   2.445
    1   AR   Ar   55   6.028   5.134   3.039
    1   AR   Ar   56   0.963   6.831   1.073
    1   AR   Ar   57   5.367   2.876   3.275
    1   AR   Ar   58   6.781   5.141   3.963
    1   AR   Ar   59   1.840   5.595   5.201
    1   AR   Ar   60   0.679   6.699   4.156
    1   AR   Ar   61   6.543   4.234   5.455
    1   AR   Ar   62   0.774   5.417   5.153
    1   AR   Ar   63   2.748   6.508   6.976
    1   AR   Ar   64   1.336   6.525   5.054
    1   AR   Ar   65   3.489   0.027   0.847
    1   AR   Ar   66   0.910   1.243   1.725
    1   AR   Ar   67   3.005   6.163  -1.018
    1   AR   Ar   68   3.292   1.429  -1.261
    1   AR   Ar   69   2.898   1.589   0.915
    1   AR   Ar   70   0.626   6.877   2.177
    1   AR   Ar   71   3.028   1.805   3.733
    1   AR   Ar   72   3.528   1.186   1.890
    1   AR   Ar   73   2.733   7.012   3.621
    1   AR   Ar   74   2.661   1.190   5.052
    1   AR   Ar   75   3.522   1.608   4.751
    1   AR   Ar   76   1.664   0.331   1.685
    1   AR   Ar   77   2.402   6.791   5.908
    1   AR   Ar   78   1.855   0.317   7.472
    1   AR   Ar   79   3.702   6.972   6.571
    1   AR   Ar   80   3.497   5.320   5.946
    1   AR   Ar   81   2.320   0.905   0.390
    1   AR   Ar   82   6.933   5.788  -0.853
    1   AR   Ar   83   1.367   2.175   0.676
    1   AR   Ar   84   0.122   3.826  -0.123
    1   AR   Ar   85   0.632   3.132   0.601
    1   AR   Ar   86   2.331   3.318   0.794
    1   AR   Ar   87   2.294   1.944   1.688
    1   AR   Ar   88   3.003   4.207   2.111
    1   AR   Ar   89   0.149   2.872   2.154
    1   AR   Ar   90   2.497   2.582   5.062
    1   AR   Ar   91   1.133   2.360   3.410
    1   AR   Ar   92   1.120   2.335   2.352
    1   AR   Ar   93   2.047   0.812   5.940
    1   AR   Ar   94   1.135   0.092   9.778
    1   AR   Ar   95   3.991   0.774   5.953
    1   AR   Ar   96   3.190   0.132   5.143
    1   AR   Ar   97   4.850   1.644  -0.391
    1   AR   Ar   98   2.125   4.834   2.712
    1   AR   Ar   99   6.783   2.304  -1.441
    1   AR   Ar  100   2.283   2.432   0.264
    1   AR   Ar  101   2.348   4.426   1.173
    1   AR   Ar  102   3.565   2.942   3.635
    1   AR   Ar  103   1.350   4.421   0.231
    1   AR   Ar  104   2.893   2.713  -1.642
    1   AR   Ar  105   2.479   3.177   4.152
    1   AR   Ar  106   3.231   3.512   4.635
    1   AR   Ar  107   1.606   3.993   5.369
    1   AR   Ar  108   3.469   2.658   5.176
    1   AR   Ar  109   1.429   3.591   4.008
    1   AR   Ar  110   0.953   4.760   6.114
    1   AR   Ar  111   4.841   3.984   6.986
    1   AR   Ar  112   1.828   5.449   6.883
    1   AR   Ar  113   2.430   4.558   0.159
    1   AR   Ar  114   2.479   5.385  -0.537
    1   AR   Ar  115   2.855   4.027  -0.777
    1   AR   Ar  116   5.429   5.815  -1.720
    1   AR   Ar  117   0.654   5.355   4.016
    1   AR   Ar  118   0.910   6.225   3.259
    1   AR   Ar  119   1.927   3.750   1.895
    1   AR   Ar  120   1.779   5.790   2.377
    1   AR   Ar  121   6.152   3.889   4.288
    1   AR   Ar  122   2.790   5.961   5.066
    1   AR   Ar  123   2.957   4.958   4.656
    1   AR   Ar  124   1.630   4.748   1.882
    1   AR   Ar  125   0.266   3.676   5.781
    1   AR   Ar  126   6.952   6.896   4.815
    1   AR   Ar  127   3.378   4.037   6.746
    1   AR   Ar  128   2.544   5.472   6.159
    1   AR   Ar  129   1.871   6.874   3.089
    1   AR   Ar  130   4.090   1.998  -1.538
    1   AR   Ar  131   4.190   0.623  -0.177
    1   AR   Ar  132   1.246   1.596  -1.217
    1   AR   Ar  133   4.157   0.486   2.659
    1   AR   Ar  134   4.810   1.002   3.922
    1   AR   Ar  135   5.273   0.792   2.966
    1   AR   Ar  136   4.995   0.288   2.028
    1   AR   Ar  137   2.623   5.945   3.809
    1   AR   Ar  138   5.060   1.842   4.696
    1   AR   Ar  139   5.619   2.589   5.422
    1   AR   Ar  140   4.186   0.067   4.510
    1   AR   Ar  141   3.639   6.166   4.566
    1   AR   Ar  142   4.006   6.685   5.546
    1   AR   Ar  143   6.570   6.638   6.010
    1   AR   Ar  144   5.678   1.321   5.936
    1   AR   Ar  145   3.622   3.842   0.078
    1   AR   Ar  146   4.431   2.470   1.616
    1   AR   Ar  147   5.693   1.757  -2.040
    1   AR   Ar  148   4.159   4.597  -1.760
    1   AR   Ar  149   3.677   2.268   0.895
    1   AR   Ar  150   2.541   1.637   2.725
    1   AR   Ar  151   2.553   2.717   3.019
    1   AR   Ar  152   3.207   2.891   0.213
    1   AR   Ar  153   3.197   0.709   4.262
    1   AR   Ar  154   4.238   1.889   3.695
    1   AR   Ar  155   6.544   0.304   6.693
    1   AR   Ar  156   4.036   4.165   4.495
    1   AR   Ar  157   2.843   3.099   6.242
    1   AR   Ar  158   1.351   3.804   6.377
    1   AR   Ar  159   4.364   2.149   5.664
    1   AR   Ar  160   3.041   1.901   5.912
    1   AR   Ar  161   5.692   3.172   1.600
    1   AR   Ar  162   4.478   6.171  -0.703
    1   AR   Ar  163   5.332   3.222   0.423
    1   AR   Ar  164   3.140   5.802   1.847
    1   AR   Ar  165   3.698   3.339   1.324
    1   AR   Ar  166   3.074   4.390   3.621
    1   AR   Ar  167   4.080   1.514   2.692
    1   AR   Ar  168   4.243   3.231  -0.450
    1   AR   Ar  169   2.622   2.982   1.674
    1   AR   Ar  170   2.646   4.093   5.550
    1   AR   Ar  171   5.528   4.241   3.428
    1   AR   Ar  172   4.614   5.098   4.582
    1   AR   Ar  173   2.030   3.142   6.864
    1   AR   Ar  174   3.099   4.918   7.301
    1   AR   Ar  175   3.779   2.659   6.292
    1   AR   Ar  176   3.677   3.557   5.753
    1   AR   Ar  177   6.456   4.579  -0.132
    1   AR   Ar  178   2.984   5.706   0.284
    1   AR   Ar  179   4.596   5.573   0.580
    1   AR   Ar  180   1.677   2.467  -1.820
    1   AR   Ar  181   0.614   5.818   1.189
    1   AR   Ar  182   3.098   0.757   2.711
    1   AR   Ar  183   3.197   5.127   2.920
    1   AR   Ar  184   3.935   6.464   1.566
    1   AR   Ar  185   1.660   4.644   4.202
    1   AR   Ar  186   3.610   5.219   3.886
    1   AR   Ar  187   3.595   6.134   3.465
    1   AR   Ar  188   2.974   7.032   1.979
    1   AR   Ar  189   3.078   2.270   7.742
    1   AR   Ar  190   5.016   6.697   5.465
    1   AR   Ar  191   4.549   4.860   6.412
    1   AR   Ar  192   4.470   5.630   5.488
    1   AR   Ar  193   0.743   6.274  -0.195
    1   AR   Ar  194   5.049   3.667  -1.106
    1   AR   Ar  195   6.053   0.823  -0.024
    1   AR   Ar  196   5.036   7.013  -0.473
    1   AR   Ar  197   5.265   1.345   0.938
    1   AR   Ar  198   6.763   1.081   1.258
    1   AR   Ar  199   4.991   1.557   1.883
    1   AR   Ar  200   5.954   2.063  -0.040
    1   AR   Ar  201   4.928   7.057   3.330
    1   AR   Ar  202   5.618   3.079   4.246
    1   AR   Ar  203   6.256   6.267   4.485
    1   AR   Ar  204   5.658   0.049   4.459
    1   AR   Ar  205   5.811   6.939   2.853
    1   AR   Ar  206   5.031   0.736   5.006
    1   AR   Ar  207   0.582   0.614   5.796
    1   AR   Ar  208   6.968   6.955   2.995
    1   AR   Ar  209   5.691   3.050  -1.798
    1   AR   Ar  210   3.991   1.207   0.605
    1   AR   Ar  211   6.399   3.016   0.594
    1   AR   Ar  212   6.403   3.983  -1.294
    1   AR   Ar  213   3.404   2.178   1.828
    1   AR   Ar  214   3.968   2.760   2.739
    1   AR   Ar  215   5.869   2.108   1.430
    1   AR   Ar  216   6.952   3.972   0.929
    1   AR   Ar  217   4.588   2.770   4.090
    1   AR   Ar  218   4.524   3.139   5.116
    1   AR   Ar  219   5.382   1.994   3.715
    1   AR   Ar  220   4.683   3.377   2.232
    1   AR   Ar  221   5.987   0.476   5.382
    1   AR   Ar  222   5.120   1.627   6.820
    1   AR   Ar  223   0.192   0.829   7.150
    1   AR   Ar  224   4.851   3.010   6.252
    1   AR   Ar  225   6.015   4.292   1.442
    1   AR   Ar  226   4.035   4.294   2.386
    1   AR   Ar  227   0.348   5.106   0.308
    1   AR   Ar  228   5.316   6.397   1.018
    1   AR   Ar  229   5.426   4.064  -0.321
    1   AR   Ar  230   4.330   4.281   3.476
    1   AR   Ar  231   6.132   1.731   2.888
    1   AR   Ar  232   4.379   3.012   0.637
    1   AR   Ar  233   6.404   2.429   3.718
    1   AR   Ar  234   6.665   2.454   4.953
    1   AR   Ar  235   0.347   2.359   4.042
    1   AR   Ar  236   5.621   4.811   4.988
    1   AR   Ar  237   5.545   3.734   5.051
    1   AR   Ar  238   4.741   4.171   5.598
    1   AR   Ar  239   6.525   3.823   9.574
    1   AR   Ar  240   6.495   3.137   5.692
    1   AR   Ar  241   0.649   6.906  -1.027
    1   AR   Ar  242   5.247   4.683   0.605
    1   AR   Ar  243   5.627   4.324   2.402
    1   AR   Ar  244   1.183   5.194  -0.487
    1   AR   Ar  245   5.633   0.441   1.101
    1   AR   Ar  246   6.753   6.003   1.208
    1   AR   Ar  247   4.697   3.844   1.162
    1   AR   Ar  248   5.493   5.728  -0.188
    1   AR   Ar  249   4.229   5.554   2.416
    1   AR   Ar  250   4.896   6.172   4.476
    1   AR   Ar  251   5.677   5.457   4.085
    1   AR   Ar  252   5.013   5.955   3.316
    1   AR   Ar  253   5.740   3.806   6.140
    1   AR   Ar  254   3.292   5.639   8.209
    1   AR   Ar  255   4.107   2.505   7.150
    1   AR   Ar  256   6.520   6.100   3.403
    7.12000  7.12000 12.00000
Argon-slab step 2635
  256
    1   AR   Ar    1   6.699   1.453  -0.656
    1   AR   Ar    2   6.486   0.095   0.827
    1   AR   Ar    3   1.210   0.587   0.242
    1   AR   Ar    4   1.482   0.323  -0.719
    1   AR   Ar    5   6.957   6.055   0.191
    1   AR   Ar    6   6.747   0.924   2.941
    1   AR   Ar    7   6.549   4.106   3.188
    1   AR   Ar    8   6.721   7.028   1.960
    1   AR   Ar    9   0.579   0.462   3.400
    1   AR   Ar   10   0.978   1.474   4.202
    1   AR   Ar   11   2.230   6.980   4.845
    1   AR   Ar   12   1.205   1.276   2.978
    1   AR   Ar   13   6.486   1.470   5.154
    1   AR   Ar   14   1.687   1.535   7.728
    1   AR   Ar   15   6.618   0.488   9.707
    1   AR   Ar   16   1.013   0.411   4.926
    1   AR   Ar   17   0.492   2.114   0.176
    1   AR   Ar   18   5.631   3.092  -0.589
    1   AR   Ar   19   1.534   2.811   1.449
    1   AR   Ar   20   5.188   4.940  -2.060
    1   AR   Ar   21   5.952   1.072   2.039
    1   AR   Ar   22   6.673   1.771   2.067
    1   AR   Ar   23   0.184   0.876   0.005
    1   AR   Ar   24   0.354   2.064   1.242
    1   AR   Ar   25   7.024   1.360   3.927
    1   AR   Ar   26   5.792   1.201   4.318
    1   AR   Ar   27   2.014   1.659   3.624
    1   AR   Ar   28   1.515   2.354   4.596
    1   AR   Ar   29   5.600   2.523   6.662
    1   AR   Ar   30   1.747   1.851   5.449
    1   AR   Ar   31   0.819   6.540   7.674
    1   AR   Ar   32   1.699   2.692   6.065
    1   AR   Ar   33   1.126   3.564  -0.432
    1   AR   Ar   34   0.121   5.297   2.847
    1   AR   Ar   35   6.511   4.950   1.966
    1   AR   Ar   36   0.006   0.534  -3.497
    1   AR   Ar   37   6.282   2.817   2.648
    1   AR   Ar   38   0.034   4.006   2.373
    1   AR   Ar   39   1.751   3.268   2.960
    1   AR   Ar   40   1.139   3.801   1.215
    1   AR   Ar   41   0.169   3.302   3.202
    1   AR   Ar   42   6.693   5.741   5.409
    1   AR   Ar   43   6.705   2.186   6.141
    1   AR   Ar   44   0.847   4.531   3.500
    1   AR   Ar   45   0.575   2.755   5.310
    1   AR   Ar   46   0.989   5.878   6.170
    1   AR   Ar   47   6.114   3.429   7.334
    1   AR   Ar   48   0.581   6.696   6.738
    1   AR   Ar   49   6.462   7.046  -2.107
    1   AR   Ar   50   5.382   5.415   1.524
    1   AR   Ar   51   0.762   5.259   2.030
    1   AR   Ar   52   5.591   4.872  -1.072
    1   AR   Ar   53   5.389   6.274   2.168
    1   AR   Ar   54   6.351   6.057   2.429
    1   AR   Ar   55   6.017   5.163   3.036
    1   AR   Ar   56   0.938   6.848   1.049
    1   AR   Ar   57   5.388   2.870   3.251
    1   AR   Ar   58   6.780   5.139   3.937
    1   AR   Ar   59   1.815   5.610   5.189
    1   AR   Ar   60   0.661   6.691   4.164
    1   AR   Ar   61   6.515   4.235   5.446
    1   AR   Ar   62   0.734   5.409   5.176
    1   AR   Ar   63   2.756   6.538   6.986
    1   AR   Ar   64   1.301   6.519   5.072
    1   AR   Ar   65   3.477   0.016   0.835
    1   AR   Ar   66   0.881   1.261   1.767
    1   AR   Ar   67   3.007   6.171  -1.067
    1   AR   Ar   68   3.314   1.464  -1.257
    1   AR   Ar   69   2.919   1.591   0.908
    1   AR   Ar   70   0.606   6.871   2.192
    1   AR   Ar   71   3.012   1.801   3.745
    1   AR   Ar   72   3.501   1.171   1.860
    1   AR   Ar   73   2.725   6.989   3.604
    1   AR   Ar   74   2.643   1.196   5.086
    1   AR   Ar   75   3.526   1.607   4.783
    1   AR   Ar   76   1.657   0.336   1.695
    1   AR   Ar   77   2.394   6.781   5.895
    1   AR   Ar   78   1.865   0.348   7.467
    1   AR   Ar   79   3.697   6.976   6.547
    1   AR   Ar   80   3.497   5.330   5.930
    1   AR   Ar   81   2.341   0.882   0.398
    1   AR   Ar   82   6.895   5.785  -0.844
    1   AR   Ar   83   1.365   2.166   0.691
    1   AR   Ar   84   0.108   3.839  -0.097
    1   AR   Ar   85   0.664   3.116   0.674
    1   AR   Ar   86   2.324   3.325   0.813
    1   AR   Ar   87   2.295   1.920   1.689
    1   AR   Ar   88   2.977   4.237   2.105
    1   AR   Ar   89   0.135   2.891   2.167
    1   AR   Ar   90   2.513   2.593   5.043
    1   AR   Ar   91   1.129   2.363   3.395
    1   AR   Ar   92   1.114   2.331   2.342
    1   AR   Ar   93   2.069   0.806   5.898
    1   AR   Ar   94   1.136   0.081   9.781
    1   AR   Ar   95   4.027   0.763   5.969
    1   AR   Ar   96   3.199   0.118   5.127
    1   AR   Ar   97   4.860   1.669  -0.405
    1   AR   Ar   98   2.150   4.825   2.744
    1   AR   Ar   99   6.768   2.325  -1.448
    1   AR   Ar  100   2.250   2.423   0.277
    1   AR   Ar  101   2.315   4.421   1.181
    1   AR   Ar  102   3.593   2.926   3.645
    1   AR   Ar  103   1.345   4.417   0.221
    1   AR   Ar  104   2.904   2.710  -1.678
    1   AR   Ar  105   2.453   3.193   4.170
    1   AR   Ar  106   3.242   3.499   4.634
    1   AR   Ar  107   1.616   3.989   5.332
    1   AR   Ar  108   3.479   2.634   5.149
    1   AR   Ar  109   1.422   3.592   4.028
    1   AR   Ar  110   0.942   4.772   6.100
    1   AR   Ar  111   4.880   3.968   7.002
    1   AR   Ar  112   1.840   5.444   6.891
    1   AR   Ar  113   2.401   4.595   0.155
    1   AR   Ar  114   2.490   5.405  -0.514
    1   AR   Ar  115   2.867   4.055  -0.761
    1   AR   Ar  116   5.468   5.784  -1.742
    1   AR   Ar  117   0.658   5.337   3.997
    1   AR   Ar  118   0.912   6.193   3.253
    1   AR   Ar  119   1.909   3.753   1.931
    1   AR   Ar  120   1.815   5.812   2.361
    1   AR   Ar  121   6.136   3.858   4.279
    1   AR   Ar  122   2.794   5.954   5.044
    1   AR   Ar  123   2.939   4.968   4.652
    1   AR   Ar  124   1.609   4.764   1.846
    1   AR   Ar  125   0.271   3.694   5.752
    1   AR   Ar  126   6.961   6.874   4.817
    1   AR   Ar  127   3.391   4.025   6.726
    1   AR   Ar  128   2.577   5.509   6.152
    1   AR   Ar  129   1.884   6.891   3.069
    1   AR   Ar  130   4.104   2.015  -1.505
    1   AR   Ar  131   4.182   0.658  -0.201
    1   AR   Ar  132   1.223   1.587  -1.214
    1   AR   Ar  133   4.158   0.476   2.673
    1   AR   Ar  134   4.792   1.005   3.927
    1   AR   Ar  135   5.265   0.792   2.995
    1   AR   Ar  136   5.009   0.293   1.988
    1   AR   Ar  137   2.587   5.941   3.804
    1   AR   Ar  138   5.063   1.850   4.702
    1   AR   Ar  139   5.571   2.598   5.407
    1   AR   Ar  140   4.220   0.073   4.524
    1   AR   Ar  141   3.663   6.150   4.580
    1   AR   Ar  142   3.958   6.695   5.523
    1   AR   Ar  143   6.601   6.637   5.999
    1   AR   Ar  144   5.650   1.306   5.945
    1   AR   Ar  145   3.615   3.867   0.070
    1   AR   Ar  146   4.399   2.475   1.615
    1   AR   Ar  147   5.688   1.757  -2.058
    1   AR   Ar  148   4.131   4.571  -1.746
    1   AR   Ar  149   3.682   2.253   0.896
    1   AR   Ar  150   2.521   1.652   2.719
    1   AR   Ar  151   2.540   2.737   3.021
    1   AR   Ar  152   3.243   2.915   0.222
    1   AR   Ar  153   3.252   0.726   4.234
    1   AR   Ar  154   4.252   1.880   3.630
    1   AR   Ar  155   6.578   0.297   6.683
    1   AR   Ar  156   4.026   4.146   4.501
    1   AR   Ar  157   2.811   3.123   6.224
    1   AR   Ar  158   1.379   3.830   6.356
    1   AR   Ar  159   4.394   2.140   5.652
    1   AR   Ar  160   3.020   1.888   5.896
    1   AR   Ar  161   5.708   3.134   1.618
    1   AR   Ar  162   4.466   6.169  -0.708
    1   AR   Ar  163   5.315   3.208   0.420
    1   AR   Ar  164   3.119   5.802   1.857
    1   AR   Ar  165   3.725   3.327   1.317
    1   AR   Ar  166   3.073   4.367   3.653
    1   AR   Ar  167   4.072   1.456   2.697
    1   AR   Ar  168   4.249   3.235  -0.421
    1   AR   Ar  169   2.617   2.981   1.634
    1   AR   Ar  170   2.613   4.082   5.533
    1   AR   Ar  171   5.514   4.232   3.444
    1   AR   Ar  172   4.614   5.085   4.585
    1   AR   Ar  173   2.033   3.127   6.868
    1   AR   Ar  174   3.059   4.929   7.315
    1   AR   Ar  175   3.749   2.637   6.298
    1   AR   Ar  176   3.675   3.567   5.756
    1   AR   Ar  177   6.438   4.579  -0.136
    1   AR   Ar  178   3.016   5.692   0.288
    1   AR   Ar  179   4.609   5.537   0.588
    1   AR   Ar  180   1.682   2.451  -1.817
    1   AR   Ar  181   0.637   5.829   1.209
    1   AR   Ar  182   3.131   0.762   2.706
    1   AR   Ar  183   3.184   5.122   2.938
    1   AR   Ar  184   3.937   6.446   1.557
    1   AR   Ar  185   1.652   4.638   4.218
    1   AR   Ar  186   3.611   5.206   3.890
    1   AR   Ar  187   3.598   6.118   3.474
    1   AR   Ar  188   2.962   7.043   2.009
    1   AR   Ar  189   3.108   2.271   7.751
    1   AR   Ar  190   5.015   6.694   5.479
    1   AR   Ar  191   4.533   4.861   6.428
    1   AR   Ar  192   4.468   5.613   5.497
    1   AR   Ar  193   0.755   6.275  -0.168
    1   AR   Ar  194   5.032   3.616  -1.100
    1   AR   Ar  195   6.077   0.818  -0.028
    1   AR   Ar  196   5.027   6.997  -0.461
    1   AR   Ar  197   5.255   1.371   0.968
    1   AR   Ar  198   6.786   1.097   1.231
    1   AR   Ar  199   4.985   1.554   1.919
    1   AR   Ar  200   5.927   2.048  -0.081
    1   AR   Ar  201   4.886   7.049   3.346
    1   AR   Ar  202   5.627   3.074   4.253
    1   AR   Ar  203   6.247   6.253   4.474
    1   AR   Ar  204   5.664   0.038   4.472
    1   AR   Ar  205   5.830   6.945   2.884
    1   AR   Ar  206   5.048   0.755   5.024
    1   AR   Ar  207   0.592   0.656   5.805
    1   AR   Ar  208   6.944   6.945   2.959
    1   AR   Ar  209   5.701   3.036  -1.774
    1   AR   Ar  210   3.941   1.200   0.602
    1   AR   Ar  211   6.444   3.033   0.589
    1   AR   Ar  212   6.401   3.991  -1.273
    1   AR   Ar  213   3.385   2.182   1.844
    1   AR   Ar  214   3.980   2.763   2.726
    1   AR   Ar  215   5.848   2.081   1.421
    1   AR   Ar  216   6.994   3.967   0.928
    1   AR   Ar  217   4.621   2.748   4.085
    1   AR   Ar  218   4.506   3.158   5.117
    1   AR   Ar  219   5.412   1.976   3.738
    1   AR   Ar  220   4.717   3.392   2.254
    1   AR   Ar  221   5.975   0.481   5.367
    1   AR   Ar  222   5.125   1.620   6.825
    1   AR   Ar  223   0.227   0.832   7.133
    1   AR   Ar  224   4.862   3.006   6.271
    1   AR   Ar  225   5.998   4.308   1.429
    1   AR   Ar  226   4.020   4.307   2.365
    1   AR   Ar  227   0.357   5.084   0.302
    1   AR   Ar  228   5.308   6.416   1.046
    1   AR   Ar  229   5.440   4.084  -0.311
    1   AR   Ar  230   4.332   4.289   3.479
    1   AR   Ar  231   6.115   1.713   2.895
    1   AR   Ar  232   4.384   3.011   0.670
    1   AR   Ar  233   6.389   2.412   3.697
    1   AR   Ar  234   6.681   2.493   4.929
    1   AR   Ar  235   0.319   2.348   4.012
    1   AR   Ar  236   5.636   4.794   4.961
    1   AR   Ar  237   5.550   3.697   5.070
    1   AR   Ar  238   4.724   4.212   5.598
    1   AR   Ar  239   6.560   3.820   9.564
    1   AR   Ar  240   6.522   3.122   5.712
    1   AR   Ar  241   0.694   6.900  -1.013
    1   AR   Ar  242   5.239   4.659   0.602
    1   AR   Ar  243   5.590   4.329   2.398
    1   AR   Ar  244   1.159   5.219  -0.494
    1   AR   Ar  245   5.618   0.441   1.093
    1   AR   Ar  246   6.734   5.975   1.185
    1   AR   Ar  247   4.697   3.873   1.172
    1   AR   Ar  248   5.467   5.709  -0.205
    1   AR   Ar  249   4.238   5.565   2.416
    1   AR   Ar  250   4.893   6.172   4.488
    1   AR   Ar  251   5.709   5.458   4.062
    1   AR   Ar  252   5.021   5.930   3.297
    1   AR   Ar  253   5.731   3.787   6.158
    1   AR   Ar  254   3.265   5.648   8.228
    1   AR   Ar  255   4.157   2.526   7.168
    1   AR   Ar  256   6.506   6.089   3.443
    7.12000  7.12000 12.00000
Argon-slab step 2640
  256
    1   AR   Ar    1   6.672   1.486  -0.668
    1   AR   Ar    2   6.495   0.112   0.803
    1   AR   Ar    3   1.209   0.607   0.267
    1   AR   Ar    4   1.451   0.321  -0.707
    1   AR   Ar    5   6.960   6.089   0.206
    1   AR   Ar    6   6.749   0.917   2.938
    1   AR   Ar    7   6.539   4.104   3.206
    1   AR   Ar    8   6.708   7.058   1.953
    1   AR   Ar    9   0.582   0.462   3.407
    1   AR   Ar   10   0.960   1.472   4.199
    1   AR   Ar   11   2.194   6.991   4.883
    1   AR   Ar   12   1.172   1.298   2.932
    1   AR   Ar   13   6.474   1.433   5.149
    1   AR   Ar   14   1.674   1.531   7.707
    1   AR   Ar   15   6.622   0.481   9.722
    1   AR   Ar   16   1.054   0.418   4.909
    1   AR   Ar   17   0.442   2.113   0.162
    1   AR   Ar   18   5.617   3.077  -0.586
    1   AR   Ar   19   1.507   2.799   1.428
    1   AR   Ar   20   5.181   4.928  -2.072
    1   AR   Ar   21   5.930   1.078   2.076
    1   AR   Ar   22   6.695   1.754   2.056
    1   AR   Ar   23   0.168   0.849  -0.018
    1   AR   Ar   24   0.331   2.066   1.239
    1   AR   Ar   25   7.035   1.379   3.925
    1   AR   Ar   26   5.774   1.207   4.313
    1   AR   Ar   27   2.013   1.638   3.609
    1   AR   Ar   28   1.520   2.382   4.604
    1   AR   Ar   29   5.610   2.499   6.666
    1   AR   Ar   30   1.728   1.832   5.455
    1   AR   Ar   31   0.824   6.559   7.676
    1   AR   Ar   32   1.709   2.687   6.077
    1   AR   Ar   33   1.127   3.568  -0.418
    1   AR   Ar   34   0.138   5.274   2.835
    1   AR   Ar   35   6.512   4.952   1.967
    1   AR   Ar   36   0.018   0.534  -3.520
    1   AR   Ar   37   6.257   2.813   2.644
    1   AR   Ar   38   0.059   3.993   2.399
    1   AR   Ar   39   1.731   3.269   2.950
    1   AR   Ar   40   1.142   3.817   1.224
    1   AR   Ar   41   0.178   3.325   3.223
    1   AR   Ar   42   6.731   5.737   5.376
    1   AR   Ar   43   6.720   2.205   6.156
    1   AR   Ar   44   0.822   4.533   3.471
    1   AR   Ar   45   0.559   2.764   5.329
    1   AR   Ar   46   0.989   5.857   6.106
    1   AR   Ar   47   6.130   3.419   7.335
    1   AR   Ar   48   0.585   6.699   6.723
    1   AR   Ar   49   6.470   7.055  -2.102
    1   AR   Ar   50   5.386   5.430   1.533
    1   AR   Ar   51   0.764   5.242   2.045
    1   AR   Ar   52   5.585   4.872  -1.045
    1   AR   Ar   53   5.356   6.250   2.169
    1   AR   Ar   54   6.351   6.067   2.431
    1   AR   Ar   55   6.008   5.191   3.031
    1   AR   Ar   56   0.912   6.867   1.024
    1   AR   Ar   57   5.407   2.870   3.221
    1   AR   Ar   58   6.778   5.137   3.914
    1   AR   Ar   59   1.799   5.600   5.175
    1   AR   Ar   60   0.659   6.686   4.164
    1   AR   Ar   61   6.473   4.238   5.458
    1   AR   Ar   62   0.693   5.401   5.198
    1   AR   Ar   63   2.764   6.567   6.994
    1   AR   Ar   64   1.262   6.512   5.091
    1   AR   Ar   65   3.465   0.006   0.823
    1   AR   Ar   66   0.852   1.278   1.811
    1   AR   Ar   67   3.011   6.180  -1.117
    1   AR   Ar   68   3.329   1.494  -1.250
    1   AR   Ar   69   2.938   1.590   0.901
    1   AR   Ar   70   0.592   6.864   2.208
    1   AR   Ar   71   3.005   1.798   3.758
    1   AR   Ar   72   3.476   1.152   1.820
    1   AR   Ar   73   2.725   6.969   3.593
    1   AR   Ar   74   2.620   1.200   5.119
    1   AR   Ar   75   3.538   1.611   4.814
    1   AR   Ar   76   1.650   0.342   1.704
    1   AR   Ar   77   2.386   6.771   5.883
    1   AR   Ar   78   1.866   0.381   7.453
    1   AR   Ar   79   3.691   6.981   6.522
    1   AR   Ar   80   3.515   5.335   5.910
    1   AR   Ar   81   2.359   0.857   0.405
    1   AR   Ar   82   6.939   5.811  -0.855
    1   AR   Ar   83   1.361   2.152   0.708
    1   AR   Ar   84   0.095   3.851  -0.072
    1   AR   Ar   85   0.691   3.093   0.741
    1   AR   Ar   86   2.309   3.346   0.809
    1   AR   Ar   87   2.292   1.899   1.691
    1   AR   Ar   88   2.949   4.268   2.098
    1   AR   Ar   89   0.123   2.910   2.178
    1   AR   Ar   90   2.515   2.602   5.025
    1   AR   Ar   91   1.132   2.366   3.380
    1   AR   Ar   92   1.111   2.339   2.331
    1   AR   Ar   93   2.089   0.798   5.858
    1   AR   Ar   94   1.164   0.061   9.784
    1   AR   Ar   95   4.063   0.752   5.984
    1   AR   Ar   96   3.205   0.107   5.110
    1   AR   Ar   97   4.869   1.694  -0.418
    1   AR   Ar   98   2.176   4.815   2.779
    1   AR   Ar   99   6.753   2.347  -1.454
    1   AR   Ar  100   2.260   2.418   0.301
    1   AR   Ar  101   2.286   4.413   1.188
    1   AR   Ar  102   3.616   2.911   3.664
    1   AR   Ar  103   1.338   4.412   0.213
    1   AR   Ar  104   2.915   2.707  -1.713
    1   AR   Ar  105   2.413   3.203   4.177
    1   AR   Ar  106   3.262   3.492   4.640
    1   AR   Ar  107   1.621   3.984   5.292
    1   AR   Ar  108   3.505   2.608   5.127
    1   AR   Ar  109   1.413   3.591   4.047
    1   AR   Ar  110   0.931   4.786   6.085
    1   AR   Ar  111   4.919   3.949   7.017
    1   AR   Ar  112   1.849   5.438   6.901
    1   AR   Ar  113   2.374   4.629   0.150
    1   AR   Ar  114   2.494   5.424  -0.500
    1   AR   Ar  115   2.878   4.084  -0.744
    1   AR   Ar  116   5.515   5.775  -1.754
    1   AR   Ar  117   0.665   5.335   3.986
    1   AR   Ar  118   0.914   6.160   3.243
    1   AR   Ar  119   1.895   3.754   1.970
    1   AR   Ar  120   1.851   5.835   2.345
    1   AR   Ar  121   6.141   3.853   4.264
    1   AR   Ar  122   2.795   5.950   5.026
    1   AR   Ar  123   2.951   4.946   4.666
    1   AR   Ar  124   1.590   4.779   1.808
    1   AR   Ar  125   0.282   3.714   5.724
    1   AR   Ar  126   6.974   6.859   4.825
    1   AR   Ar  127   3.400   4.005   6.701
    1   AR   Ar  128   2.595   5.551   6.146
    1   AR   Ar  129   1.888   6.906   3.043
    1   AR   Ar  130   4.129   2.031  -1.476
    1   AR   Ar  131   4.177   0.687  -0.233
    1   AR   Ar  132   1.199   1.577  -1.209
    1   AR   Ar  133   4.162   0.453   2.687
    1   AR   Ar  134   4.775   1.005   3.937
    1   AR   Ar  135   5.261   0.801   3.018
    1   AR   Ar  136   5.012   0.293   1.952
    1   AR   Ar  137   2.550   5.935   3.800
    1   AR   Ar  138   5.075   1.852   4.695
    1   AR   Ar  139   5.521   2.608   5.392
    1   AR   Ar  140   4.254   0.080   4.538
    1   AR   Ar  141   3.694   6.136   4.590
    1   AR   Ar  142   3.912   6.700   5.501
    1   AR   Ar  143   6.632   6.636   5.985
    1   AR   Ar  144   5.622   1.293   5.952
    1   AR   Ar  145   3.607   3.900   0.065
    1   AR   Ar  146   4.373   2.480   1.619
    1   AR   Ar  147   5.680   1.759  -2.086
    1   AR   Ar  148   4.105   4.545  -1.731
    1   AR   Ar  149   3.689   2.227   0.891
    1   AR   Ar  150   2.504   1.669   2.709
    1   AR   Ar  151   2.545   2.746   3.024
    1   AR   Ar  152   3.277   2.939   0.232
    1   AR   Ar  153   3.308   0.742   4.202
    1   AR   Ar  154   4.263   1.873   3.568
    1   AR   Ar  155   6.587   0.282   6.675
    1   AR   Ar  156   4.029   4.122   4.491
    1   AR   Ar  157   2.782   3.147   6.199
    1   AR   Ar  158   1.406   3.854   6.335
    1   AR   Ar  159   4.427   2.128   5.637
    1   AR   Ar  160   2.998   1.876   5.877
    1   AR   Ar  161   5.723   3.098   1.636
    1   AR   Ar  162   4.452   6.162  -0.713
    1   AR   Ar  163   5.309   3.197   0.416
    1   AR   Ar  164   3.097   5.799   1.868
    1   AR   Ar  165   3.741   3.319   1.320
    1   AR   Ar  166   3.070   4.335   3.687
    1   AR   Ar  167   4.064   1.411   2.701
    1   AR   Ar  168   4.259   3.234  -0.394
    1   AR   Ar  169   2.624   2.970   1.617
    1   AR   Ar  170   2.587   4.070   5.517
    1   AR   Ar  171   5.498   4.223   3.464
    1   AR   Ar  172   4.614   5.071   4.585
    1   AR   Ar  173   2.048   3.155   6.876
    1   AR   Ar  174   3.018   4.942   7.328
    1   AR   Ar  175   3.712   2.617   6.291
    1   AR   Ar  176   3.683   3.564   5.779
    1   AR   Ar  177   6.419   4.581  -0.141
    1   AR   Ar  178   3.053   5.680   0.300
    1   AR   Ar  179   4.623   5.502   0.596
    1   AR   Ar  180   1.688   2.434  -1.814
    1   AR   Ar  181   0.664   5.842   1.221
    1   AR   Ar  182   3.159   0.763   2.708
    1   AR   Ar  183   3.172   5.120   2.949
    1   AR   Ar  184   3.942   6.428   1.549
    1   AR   Ar  185   1.645   4.634   4.238
    1   AR   Ar  186   3.620   5.191   3.900
    1   AR   Ar  187   3.604   6.110   3.478
    1   AR   Ar  188   2.951   7.053   2.037
    1   AR   Ar  189   3.137   2.273   7.759
    1   AR   Ar  190   5.016   6.692   5.490
    1   AR   Ar  191   4.514   4.863   6.443
    1   AR   Ar  192   4.468   5.599   5.507
    1   AR   Ar  193   0.774   6.274  -0.142
    1   AR   Ar  194   5.029   3.595  -1.094
    1   AR   Ar  195   6.101   0.813  -0.030
    1   AR   Ar  196   5.022   6.985  -0.447
    1   AR   Ar  197   5.243   1.392   0.981
    1   AR   Ar  198   6.808   1.112   1.202
    1   AR   Ar  199   4.975   1.551   1.965
    1   AR   Ar  200   5.906   2.052  -0.105
    1   AR   Ar  201   4.838   7.035   3.367
    1   AR   Ar  202   5.618   3.046   4.264
    1   AR   Ar  203   6.234   6.235   4.464
    1   AR   Ar  204   5.651   0.035   4.510
    1   AR   Ar  205   5.852   6.952   2.914
    1   AR   Ar  206   5.059   0.775   5.042
    1   AR   Ar  207   0.598   0.700   5.823
    1   AR   Ar  208   6.920   6.934   2.927
    1   AR   Ar  209   5.711   3.021  -1.748
    1   AR   Ar  210   3.889   1.197   0.608
    1   AR   Ar  211   6.489   3.050   0.585
    1   AR   Ar  212   6.397   3.999  -1.250
    1   AR   Ar  213   3.361   2.192   1.871
    1   AR   Ar  214   3.992   2.763   2.707
    1   AR   Ar  215   5.829   2.056   1.414
    1   AR   Ar  216   7.037   3.962   0.931
    1   AR   Ar  217   4.654   2.727   4.082
    1   AR   Ar  218   4.488   3.178   5.119
    1   AR   Ar  219   5.440   1.956   3.758
    1   AR   Ar  220   4.754   3.408   2.274
    1   AR   Ar  221   5.970   0.482   5.357
    1   AR   Ar  222   5.126   1.611   6.832
    1   AR   Ar  223   0.282   0.845   7.113
    1   AR   Ar  224   4.859   3.012   6.281
    1   AR   Ar  225   5.974   4.315   1.405
    1   AR   Ar  226   4.008   4.320   2.345
    1   AR   Ar  227   0.365   5.061   0.296
    1   AR   Ar  228   5.301   6.436   1.075
    1   AR   Ar  229   5.437   4.059  -0.327
    1   AR   Ar  230   4.334   4.298   3.481
    1   AR   Ar  231   6.088   1.702   2.910
    1   AR   Ar  232   4.386   3.003   0.692
    1   AR   Ar  233   6.375   2.396   3.677
    1   AR   Ar  234   6.698   2.532   4.897
    1   AR   Ar  235   0.288   2.340   3.987
    1   AR   Ar  236   5.651   4.777   4.934
    1   AR   Ar  237   5.550   3.660   5.101
    1   AR   Ar  238   4.707   4.252   5.596
    1   AR   Ar  239   6.596   3.817   9.554
    1   AR   Ar  240   6.543   3.112   5.734
    1   AR   Ar  241   0.731   6.890  -1.003
    1   AR   Ar  242   5.233   4.634   0.600
    1   AR   Ar  243   5.553   4.334   2.393
    1   AR   Ar  244   1.136   5.245  -0.501
    1   AR   Ar  245   5.594   0.439   1.090
    1   AR   Ar  246   6.707   5.948   1.170
    1   AR   Ar  247   4.698   3.903   1.185
    1   AR   Ar  248   5.440   5.689  -0.221
    1   AR   Ar  249   4.235   5.567   2.395
    1   AR   Ar  250   4.902   6.190   4.508
    1   AR   Ar  251   5.736   5.453   4.041
    1   AR   Ar  252   5.030   5.905   3.278
    1   AR   Ar  253   5.721   3.767   6.176
    1   AR   Ar  254   3.237   5.656   8.247
    1   AR   Ar  255   4.216   2.545   7.201
    1   AR   Ar  256   6.499   6.091   3.456
    7.12000  7.12000 12.00000
Argon-slab step 2645
  256
    1   AR   Ar    1   6.645   1.521  -0.681
    1   AR   Ar    2   6.513   0.124   0.778
    1   AR   Ar    3   1.207   0.628   0.297
    1   AR   Ar    4   1.437   0.330  -0.691
    1   AR   Ar    5   6.958   6.122   0.216
    1   AR   Ar    6   6.753   0.906   2.935
    1   AR   Ar    7   6.525   4.104   3.226
    1   AR   Ar    8   6.689   7.090   1.937
    1   AR   Ar    9   0.588   0.453   3.396
    1   AR   Ar   10   0.944   1.469   4.194
    1   AR   Ar   11   2.157   7.004   4.915
    1   AR   Ar   12   1.139   1.320   2.885
    1   AR   Ar   13   6.461   1.398   5.145
    1   AR   Ar   14   1.661   1.525   7.686
    1   AR   Ar   15   6.625   0.473   9.737
    1   AR   Ar   16   1.096   0.426   4.888
    1   AR   Ar   17   0.390   2.111   0.145
    1   AR   Ar   18   5.623   3.041  -0.573
    1   AR   Ar   19   1.485   2.795   1.416
    1   AR   Ar   20   5.166   4.900  -2.090
    1   AR   Ar   21   5.903   1.076   2.111
    1   AR   Ar   22   6.725   1.743   2.044
    1   AR   Ar   23   0.152   0.822  -0.040
    1   AR   Ar   24   0.308   2.070   1.238
    1   AR   Ar   25   7.041   1.394   3.923
    1   AR   Ar   26   5.765   1.200   4.312
    1   AR   Ar   27   1.999   1.607   3.603
    1   AR   Ar   28   1.524   2.413   4.605
    1   AR   Ar   29   5.633   2.475   6.671
    1   AR   Ar   30   1.712   1.808   5.463
    1   AR   Ar   31   0.832   6.577   7.687
    1   AR   Ar   32   1.717   2.679   6.080
    1   AR   Ar   33   1.127   3.570  -0.404
    1   AR   Ar   34   0.162   5.259   2.836
    1   AR   Ar   35   6.518   4.961   1.975
    1   AR   Ar   36   0.030   0.533  -3.543
    1   AR   Ar   37   6.242   2.806   2.636
    1   AR   Ar   38   0.087   3.984   2.419
    1   AR   Ar   39   1.697   3.278   2.940
    1   AR   Ar   40   1.164   3.835   1.236
    1   AR   Ar   41   0.189   3.344   3.247
    1   AR   Ar   42   6.769   5.733   5.340
    1   AR   Ar   43   6.734   2.217   6.172
    1   AR   Ar   44   0.803   4.541   3.446
    1   AR   Ar   45   0.543   2.771   5.347
    1   AR   Ar   46   0.990   5.856   6.112
    1   AR   Ar   47   6.145   3.409   7.333
    1   AR   Ar   48   0.586   6.704   6.696
    1   AR   Ar   49   6.471   7.062  -2.093
    1   AR   Ar   50   5.390   5.441   1.544
    1   AR   Ar   51   0.759   5.229   2.063
    1   AR   Ar   52   5.579   4.872  -1.016
    1   AR   Ar   53   5.319   6.230   2.173
    1   AR   Ar   54   6.355   6.075   2.428
    1   AR   Ar   55   6.000   5.217   3.025
    1   AR   Ar   56   0.886   6.888   0.998
    1   AR   Ar   57   5.421   2.873   3.192
    1   AR   Ar   58   6.793   5.142   3.899
    1   AR   Ar   59   1.786   5.582   5.161
    1   AR   Ar   60   0.654   6.681   4.158
    1   AR   Ar   61   6.431   4.241   5.470
    1   AR   Ar   62   0.652   5.393   5.216
    1   AR   Ar   63   2.770   6.596   7.002
    1   AR   Ar   64   1.221   6.502   5.112
    1   AR   Ar   65   3.453   7.119   0.812
    1   AR   Ar   66   0.848   1.286   1.823
    1   AR   Ar   67   3.010   6.196  -1.160
    1   AR   Ar   68   3.334   1.518  -1.240
    1   AR   Ar   69   2.949   1.586   0.895
    1   AR   Ar   70   0.582   6.856   2.223
    1   AR   Ar   71   3.005   1.797   3.771
    1   AR   Ar   72   3.452   1.131   1.773
    1   AR   Ar   73   2.735   6.952   3.587
    1   AR   Ar   74   2.623   1.197   5.125
    1   AR   Ar   75   3.553   1.613   4.844
    1   AR   Ar   76   1.641   0.348   1.715
    1   AR   Ar   77   2.381   6.758   5.874
    1   AR   Ar   78   1.867   0.413   7.438
    1   AR   Ar   79   3.685   6.985   6.499
    1   AR   Ar   80   3.544   5.337   5.886
    1   AR   Ar   81   2.374   0.830   0.412
    1   AR   Ar   82   6.985   5.836  -0.865
    1   AR   Ar   83   1.352   2.127   0.720
    1   AR   Ar   84   0.084   3.860  -0.052
    1   AR   Ar   85   0.710   3.060   0.801
    1   AR   Ar   86   2.285   3.379   0.787
    1   AR   Ar   87   2.287   1.880   1.691
    1   AR   Ar   88   2.920   4.290   2.097
    1   AR   Ar   89   0.112   2.926   2.188
    1   AR   Ar   90   2.509   2.609   5.011
    1   AR   Ar   91   1.139   2.369   3.366
    1   AR   Ar   92   1.113   2.365   2.318
    1   AR   Ar   93   2.104   0.785   5.824
    1   AR   Ar   94   1.192   0.041   9.788
    1   AR   Ar   95   4.100   0.741   5.996
    1   AR   Ar   96   3.201   0.107   5.087
    1   AR   Ar   97   4.878   1.719  -0.430
    1   AR   Ar   98   2.200   4.804   2.814
    1   AR   Ar   99   6.735   2.368  -1.460
    1   AR   Ar  100   2.276   2.413   0.323
    1   AR   Ar  101   2.262   4.401   1.191
    1   AR   Ar  102   3.636   2.896   3.687
    1   AR   Ar  103   1.328   4.406   0.208
    1   AR   Ar  104   2.926   2.702  -1.748
    1   AR   Ar  105   2.367   3.212   4.175
    1   AR   Ar  106   3.282   3.485   4.651
    1   AR   Ar  107   1.615   3.978   5.246
    1   AR   Ar  108   3.543   2.583   5.111
    1   AR   Ar  109   1.402   3.589   4.066
    1   AR   Ar  110   0.920   4.798   6.068
    1   AR   Ar  111   4.959   3.929   7.030
    1   AR   Ar  112   1.857   5.433   6.910
    1   AR   Ar  113   2.350   4.661   0.145
    1   AR   Ar  114   2.494   5.443  -0.494
    1   AR   Ar  115   2.889   4.112  -0.726
    1   AR   Ar  116   5.569   5.781  -1.759
    1   AR   Ar  117   0.675   5.350   3.986
    1   AR   Ar  118   0.915   6.126   3.231
    1   AR   Ar  119   1.882   3.753   2.012
    1   AR   Ar  120   1.886   5.857   2.330
    1   AR   Ar  121   6.160   3.865   4.247
    1   AR   Ar  122   2.772   5.944   5.028
    1   AR   Ar  123   2.976   4.917   4.692
    1   AR   Ar  124   1.575   4.792   1.771
    1   AR   Ar  125   0.296   3.739   5.697
    1   AR   Ar  126   6.987   6.846   4.838
    1   AR   Ar  127   3.407   3.986   6.677
    1   AR   Ar  128   2.599   5.598   6.140
    1   AR   Ar  129   1.884   6.919   3.012
    1   AR   Ar  130   4.169   2.023  -1.458
    1   AR   Ar  131   4.174   0.714  -0.269
    1   AR   Ar  132   1.176   1.567  -1.204
    1   AR   Ar  133   4.172   0.413   2.699
    1   AR   Ar  134   4.779   1.006   3.935
    1   AR   Ar  135   5.267   0.805   3.023
    1   AR   Ar  136   5.013   0.293   1.921
    1   AR   Ar  137   2.513   5.925   3.798
    1   AR   Ar  138   5.080   1.858   4.698
    1   AR   Ar  139   5.472   2.618   5.377
    1   AR   Ar  140   4.290   0.086   4.552
    1   AR   Ar  141   3.733   6.121   4.598
    1   AR   Ar  142   3.880   6.695   5.486
    1   AR   Ar  143   6.664   6.632   5.966
    1   AR   Ar  144   5.595   1.283   5.956
    1   AR   Ar  145   3.619   3.916   0.077
    1   AR   Ar  146   4.352   2.486   1.629
    1   AR   Ar  147   5.683   1.769  -2.099
    1   AR   Ar  148   4.080   4.519  -1.715
    1   AR   Ar  149   3.703   2.206   0.880
    1   AR   Ar  150   2.489   1.687   2.696
    1   AR   Ar  151   2.565   2.744   3.030
    1   AR   Ar  152   3.309   2.959   0.241
    1   AR   Ar  153   3.363   0.757   4.169
    1   AR   Ar  154   4.275   1.871   3.513
    1   AR   Ar  155   6.562   0.259   6.673
    1   AR   Ar  156   4.037   4.104   4.482
    1   AR   Ar  157   2.756   3.171   6.166
    1   AR   Ar  158   1.434   3.876   6.315
    1   AR   Ar  159   4.462   2.117   5.620
    1   AR   Ar  160   2.976   1.866   5.857
    1   AR   Ar  161   5.737   3.066   1.655
    1   AR   Ar  162   4.436   6.150  -0.719
    1   AR   Ar  163   5.315   3.190   0.413
    1   AR   Ar  164   3.074   5.796   1.881
    1   AR   Ar  165   3.740   3.317   1.336
    1   AR   Ar  166   3.065   4.298   3.722
    1   AR   Ar  167   4.054   1.382   2.698
    1   AR   Ar  168   4.273   3.231  -0.368
    1   AR   Ar  169   2.639   2.949   1.621
    1   AR   Ar  170   2.574   4.059   5.502
    1   AR   Ar  171   5.479   4.214   3.485
    1   AR   Ar  172   4.615   5.057   4.582
    1   AR   Ar  173   2.062   3.188   6.901
    1   AR   Ar  174   2.977   4.955   7.340
    1   AR   Ar  175   3.675   2.598   6.280
    1   AR   Ar  176   3.693   3.562   5.797
    1   AR   Ar  177   6.398   4.584  -0.146
    1   AR   Ar  178   3.093   5.666   0.310
    1   AR   Ar  179   4.637   5.471   0.605
    1   AR   Ar  180   1.694   2.417  -1.810
    1   AR   Ar  181   0.690   5.857   1.229
    1   AR   Ar  182   3.182   0.764   2.719
    1   AR   Ar  183   3.163   5.120   2.956
    1   AR   Ar  184   3.947   6.411   1.542
    1   AR   Ar  185   1.639   4.632   4.258
    1   AR   Ar  186   3.636   5.173   3.915
    1   AR   Ar  187   3.610   6.109   3.477
    1   AR   Ar  188   2.941   7.062   2.064
    1   AR   Ar  189   3.168   2.274   7.766
    1   AR   Ar  190   5.019   6.691   5.500
    1   AR   Ar  191   4.495   4.867   6.460
    1   AR   Ar  192   4.468   5.588   5.516
    1   AR   Ar  193   0.799   6.273  -0.114
    1   AR   Ar  194   5.010   3.591  -1.107
    1   AR   Ar  195   6.117   0.823  -0.041
    1   AR   Ar  196   5.013   6.981  -0.435
    1   AR   Ar  197   5.228   1.380   0.963
    1   AR   Ar  198   6.830   1.126   1.172
    1   AR   Ar  199   4.962   1.549   2.016
    1   AR   Ar  200   5.889   2.067  -0.117
    1   AR   Ar  201   4.788   7.016   3.392
    1   AR   Ar  202   5.604   3.000   4.274
    1   AR   Ar  203   6.220   6.217   4.458
    1   AR   Ar  204   5.633   0.028   4.541
    1   AR   Ar  205   5.873   6.959   2.943
    1   AR   Ar  206   5.061   0.798   5.058
    1   AR   Ar  207   0.602   0.743   5.844
    1   AR   Ar  208   6.900   6.921   2.905
    1   AR   Ar  209   5.723   3.005  -1.721
    1   AR   Ar  210   3.837   1.196   0.619
    1   AR   Ar  211   6.534   3.067   0.581
    1   AR   Ar  212   6.390   4.007  -1.226
    1   AR   Ar  213   3.335   2.204   1.903
    1   AR   Ar  214   4.006   2.759   2.684
    1   AR   Ar  215   5.819   2.037   1.411
    1   AR   Ar  216   7.039   3.960   0.916
    1   AR   Ar  217   4.648   2.721   4.067
    1   AR   Ar  218   4.472   3.198   5.121
    1   AR   Ar  219   5.436   1.931   3.764
    1   AR   Ar  220   4.792   3.425   2.293
    1   AR   Ar  221   5.976   0.481   5.353
    1   AR   Ar  222   5.122   1.598   6.841
    1   AR   Ar  223   0.330   0.846   7.099
    1   AR   Ar  224   4.845   3.023   6.284
    1   AR   Ar  225   5.946   4.316   1.374
    1   AR   Ar  226   3.998   4.333   2.326
    1   AR   Ar  227   0.372   5.037   0.290
    1   AR   Ar  228   5.293   6.458   1.103
    1   AR   Ar  229   5.435   4.030  -0.341
    1   AR   Ar  230   4.335   4.308   3.480
    1   AR   Ar  231   6.055   1.695   2.929
    1   AR   Ar  232   4.391   2.987   0.700
    1   AR   Ar  233   6.364   2.383   3.659
    1   AR   Ar  234   6.713   2.567   4.861
    1   AR   Ar  235   0.257   2.337   3.966
    1   AR   Ar  236   5.665   4.759   4.906
    1   AR   Ar  237   5.546   3.625   5.138
    1   AR   Ar  238   4.712   4.255   5.579
    1   AR   Ar  239   6.631   3.814   9.544
    1   AR   Ar  240   6.558   3.110   5.757
    1   AR   Ar  241   0.750   6.870  -1.002
    1   AR   Ar  242   5.231   4.608   0.597
    1   AR   Ar  243   5.516   4.338   2.388
    1   AR   Ar  244   1.112   5.272  -0.508
    1   AR   Ar  245   5.566   0.435   1.089
    1   AR   Ar  246   6.676   5.920   1.164
    1   AR   Ar  247   4.701   3.933   1.201
    1   AR   Ar  248   5.412   5.668  -0.238
    1   AR   Ar  249   4.225   5.562   2.369
    1   AR   Ar  250   4.910   6.207   4.527
    1   AR   Ar  251   5.742   5.430   4.033
    1   AR   Ar  252   5.040   5.881   3.259
    1   AR   Ar  253   5.709   3.745   6.195
    1   AR   Ar  254   3.209   5.664   8.264
    1   AR   Ar  255   4.277   2.563   7.237
    1   AR   Ar  256   6.497   6.103   3.450
    7.12000  7.12000 12.00000
Argon-slab step 2650
  256
    1   AR   Ar    1   6.621   1.557  -0.695
    1   AR   Ar    2   6.536   0.134   0.751
    1   AR   Ar    3   1.205   0.649   0.331
    1   AR   Ar    4   1.439   0.353  -0.670
    1   AR   Ar    5   6.955   6.156   0.223
    1   AR   Ar    6   6.759   0.893   2.929
    1   AR   Ar    7   6.510   4.106   3.246
    1   AR   Ar    8   6.666   0.004   1.913
    1   AR   Ar    9   0.594   0.443   3.386
    1   AR   Ar   10   0.932   1.466   4.190
    1   AR   Ar   11   2.119   7.019   4.941
    1   AR   Ar   12   1.127   1.326   2.879
    1   AR   Ar   13   6.450   1.367   5.141
    1   AR   Ar   14   1.648   1.520   7.664
    1   AR   Ar   15   6.629   0.465   9.752
    1   AR   Ar   16   1.138   0.436   4.866
    1   AR   Ar   17   0.337   2.108   0.128
    1   AR   Ar   18   5.639   2.992  -0.556
    1   AR   Ar   19   1.472   2.800   1.418
    1   AR   Ar   20   5.148   4.865  -2.108
    1   AR   Ar   21   5.910   1.094   2.109
    1   AR   Ar   22   6.758   1.736   2.035
    1   AR   Ar   23   0.134   0.795  -0.060
    1   AR   Ar   24   0.287   2.076   1.238
    1   AR   Ar   25   7.040   1.400   3.919
    1   AR   Ar   26   5.768   1.177   4.316
    1   AR   Ar   27   1.978   1.576   3.601
    1   AR   Ar   28   1.525   2.446   4.603
    1   AR   Ar   29   5.663   2.455   6.676
    1   AR   Ar   30   1.697   1.782   5.470
    1   AR   Ar   31   0.841   6.595   7.703
    1   AR   Ar   32   1.722   2.672   6.077
    1   AR   Ar   33   1.127   3.569  -0.389
    1   AR   Ar   34   0.175   5.245   2.850
    1   AR   Ar   35   6.516   4.967   1.989
    1   AR   Ar   36   0.042   0.533  -3.566
    1   AR   Ar   37   6.252   2.798   2.625
    1   AR   Ar   38   0.095   3.989   2.421
    1   AR   Ar   39   1.656   3.289   2.933
    1   AR   Ar   40   1.189   3.861   1.250
    1   AR   Ar   41   0.201   3.359   3.273
    1   AR   Ar   42   6.805   5.729   5.303
    1   AR   Ar   43   6.749   2.221   6.191
    1   AR   Ar   44   0.785   4.538   3.412
    1   AR   Ar   45   0.530   2.775   5.364
    1   AR   Ar   46   0.989   5.880   6.103
    1   AR   Ar   47   6.159   3.399   7.329
    1   AR   Ar   48   0.583   6.712   6.663
    1   AR   Ar   49   6.448   7.061  -2.066
    1   AR   Ar   50   5.393   5.444   1.557
    1   AR   Ar   51   0.750   5.220   2.078
    1   AR   Ar   52   5.575   4.872  -0.989
    1   AR   Ar   53   5.279   6.217   2.184
    1   AR   Ar   54   6.361   6.082   2.419
    1   AR   Ar   55   5.992   5.240   3.016
    1   AR   Ar   56   0.860   6.911   0.973
    1   AR   Ar   57   5.426   2.877   3.167
    1   AR   Ar   58   6.803   5.145   3.883
    1   AR   Ar   59   1.771   5.561   5.149
    1   AR   Ar   60   0.651   6.676   4.150
    1   AR   Ar   61   6.388   4.242   5.482
    1   AR   Ar   62   0.613   5.385   5.228
    1   AR   Ar   63   2.775   6.624   7.008
    1   AR   Ar   64   1.177   6.490   5.135
    1   AR   Ar   65   3.440   7.112   0.801
    1   AR   Ar   66   0.844   1.294   1.835
    1   AR   Ar   67   3.004   6.222  -1.192
    1   AR   Ar   68   3.331   1.538  -1.228
    1   AR   Ar   69   2.943   1.578   0.893
    1   AR   Ar   70   0.577   6.846   2.236
    1   AR   Ar   71   2.995   1.792   3.807
    1   AR   Ar   72   3.430   1.110   1.723
    1   AR   Ar   73   2.734   6.966   3.587
    1   AR   Ar   74   2.637   1.196   5.111
    1   AR   Ar   75   3.552   1.603   4.844
    1   AR   Ar   76   1.632   0.354   1.725
    1   AR   Ar   77   2.378   6.743   5.871
    1   AR   Ar   78   1.867   0.445   7.422
    1   AR   Ar   79   3.682   6.985   6.478
    1   AR   Ar   80   3.575   5.336   5.860
    1   AR   Ar   81   2.388   0.802   0.417
    1   AR   Ar   82   7.031   5.862  -0.875
    1   AR   Ar   83   1.338   2.090   0.724
    1   AR   Ar   84   0.076   3.868  -0.042
    1   AR   Ar   85   0.718   3.021   0.851
    1   AR   Ar   86   2.256   3.419   0.757
    1   AR   Ar   87   2.279   1.862   1.689
    1   AR   Ar   88   2.896   4.300   2.106
    1   AR   Ar   89   0.102   2.940   2.196
    1   AR   Ar   90   2.500   2.613   5.002
    1   AR   Ar   91   1.149   2.372   3.356
    1   AR   Ar   92   1.114   2.389   2.303
    1   AR   Ar   93   2.109   0.764   5.801
    1   AR   Ar   94   1.219   0.020   9.792
    1   AR   Ar   95   4.137   0.731   6.005
    1   AR   Ar   96   3.183   0.119   5.055
    1   AR   Ar   97   4.887   1.744  -0.442
    1   AR   Ar   98   2.218   4.790   2.848
    1   AR   Ar   99   6.716   2.389  -1.465
    1   AR   Ar  100   2.296   2.406   0.345
    1   AR   Ar  101   2.246   4.383   1.187
    1   AR   Ar  102   3.654   2.880   3.713
    1   AR   Ar  103   1.316   4.402   0.207
    1   AR   Ar  104   2.935   2.696  -1.774
    1   AR   Ar  105   2.322   3.220   4.169
    1   AR   Ar  106   3.294   3.476   4.663
    1   AR   Ar  107   1.599   3.972   5.196
    1   AR   Ar  108   3.586   2.562   5.100
    1   AR   Ar  109   1.394   3.598   4.069
    1   AR   Ar  110   0.910   4.808   6.051
    1   AR   Ar  111   4.999   3.909   7.041
    1   AR   Ar  112   1.863   5.428   6.920
    1   AR   Ar  113   2.329   4.688   0.142
    1   AR   Ar  114   2.491   5.465  -0.497
    1   AR   Ar  115   2.900   4.142  -0.708
    1   AR   Ar  116   5.625   5.793  -1.761
    1   AR   Ar  117   0.689   5.377   3.995
    1   AR   Ar  118   0.916   6.093   3.216
    1   AR   Ar  119   1.874   3.751   2.052
    1   AR   Ar  120   1.920   5.879   2.315
    1   AR   Ar  121   6.184   3.883   4.231
    1   AR   Ar  122   2.746   5.938   5.036
    1   AR   Ar  123   2.998   4.886   4.720
    1   AR   Ar  124   1.566   4.804   1.739
    1   AR   Ar  125   0.314   3.768   5.671
    1   AR   Ar  126   7.000   6.836   4.855
    1   AR   Ar  127   3.399   3.988   6.697
    1   AR   Ar  128   2.589   5.624   6.151
    1   AR   Ar  129   1.876   6.934   2.990
    1   AR   Ar  130   4.217   2.019  -1.440
    1   AR   Ar  131   4.173   0.740  -0.308
    1   AR   Ar  132   1.152   1.557  -1.198
    1   AR   Ar  133   4.185   0.359   2.709
    1   AR   Ar  134   4.780   1.005   3.937
    1   AR   Ar  135   5.280   0.803   3.016
    1   AR   Ar  136   5.011   0.293   1.897
    1   AR   Ar  137   2.477   5.912   3.797
    1   AR   Ar  138   5.077   1.866   4.709
    1   AR   Ar  139   5.424   2.623   5.366
    1   AR   Ar  140   4.322   0.087   4.573
    1   AR   Ar  141   3.774   6.106   4.603
    1   AR   Ar  142   3.864   6.677   5.479
    1   AR   Ar  143   6.698   6.627   5.944
    1   AR   Ar  144   5.569   1.274   5.957
    1   AR   Ar  145   3.638   3.934   0.095
    1   AR   Ar  146   4.338   2.490   1.646
    1   AR   Ar  147   5.693   1.783  -2.102
    1   AR   Ar  148   4.056   4.493  -1.699
    1   AR   Ar  149   3.688   2.204   0.841
    1   AR   Ar  150   2.479   1.703   2.682
    1   AR   Ar  151   2.591   2.739   3.038
    1   AR   Ar  152   3.338   2.976   0.253
    1   AR   Ar  153   3.419   0.771   4.136
    1   AR   Ar  154   4.289   1.877   3.469
    1   AR   Ar  155   6.538   0.239   6.673
    1   AR   Ar  156   4.052   4.092   4.474
    1   AR   Ar  157   2.734   3.194   6.127
    1   AR   Ar  158   1.422   3.899   6.334
    1   AR   Ar  159   4.496   2.107   5.602
    1   AR   Ar  160   2.954   1.858   5.838
    1   AR   Ar  161   5.749   3.037   1.673
    1   AR   Ar  162   4.449   6.125  -0.735
    1   AR   Ar  163   5.331   3.187   0.411
    1   AR   Ar  164   3.052   5.792   1.896
    1   AR   Ar  165   3.733   3.315   1.363
    1   AR   Ar  166   3.060   4.258   3.757
    1   AR   Ar  167   4.041   1.362   2.683
    1   AR   Ar  168   4.289   3.224  -0.343
    1   AR   Ar  169   2.655   2.927   1.632
    1   AR   Ar  170   2.571   4.047   5.490
    1   AR   Ar  171   5.456   4.202   3.520
    1   AR   Ar  172   4.615   5.043   4.577
    1   AR   Ar  173   2.074   3.224   6.935
    1   AR   Ar  174   2.940   4.955   7.339
    1   AR   Ar  175   3.640   2.578   6.269
    1   AR   Ar  176   3.705   3.559   5.806
    1   AR   Ar  177   6.376   4.589  -0.151
    1   AR   Ar  178   3.134   5.643   0.287
    1   AR   Ar  179   4.649   5.444   0.614
    1   AR   Ar  180   1.693   2.401  -1.825
    1   AR   Ar  181   0.715   5.871   1.233
    1   AR   Ar  182   3.199   0.765   2.734
    1   AR   Ar  183   3.159   5.123   2.962
    1   AR   Ar  184   3.954   6.393   1.536
    1   AR   Ar  185   1.634   4.632   4.279
    1   AR   Ar  186   3.657   5.153   3.934
    1   AR   Ar  187   3.615   6.112   3.474
    1   AR   Ar  188   2.937   7.062   2.086
    1   AR   Ar  189   3.199   2.277   7.772
    1   AR   Ar  190   5.022   6.692   5.509
    1   AR   Ar  191   4.474   4.870   6.476
    1   AR   Ar  192   4.470   5.615   5.537
    1   AR   Ar  193   0.829   6.271  -0.086
    1   AR   Ar  194   4.978   3.591  -1.139
    1   AR   Ar  195   6.128   0.843  -0.056
    1   AR   Ar  196   4.986   6.999  -0.438
    1   AR   Ar  197   5.211   1.392   0.958
    1   AR   Ar  198   6.851   1.139   1.141
    1   AR   Ar  199   4.946   1.548   2.068
    1   AR   Ar  200   5.871   2.083  -0.127
    1   AR   Ar  201   4.740   6.996   3.421
    1   AR   Ar  202   5.594   2.947   4.286
    1   AR   Ar  203   6.206   6.203   4.457
    1   AR   Ar  204   5.611   0.017   4.561
    1   AR   Ar  205   5.888   6.967   2.972
    1   AR   Ar  206   5.054   0.824   5.073
    1   AR   Ar  207   0.606   0.786   5.866
    1   AR   Ar  208   6.912   6.915   2.944
    1   AR   Ar  209   5.735   2.989  -1.693
    1   AR   Ar  210   3.793   1.189   0.631
    1   AR   Ar  211   6.577   3.082   0.576
    1   AR   Ar  212   6.380   4.014  -1.199
    1   AR   Ar  213   3.309   2.216   1.939
    1   AR   Ar  214   4.020   2.754   2.659
    1   AR   Ar  215   5.816   2.022   1.414
    1   AR   Ar  216   7.042   3.951   0.917
    1   AR   Ar  217   4.639   2.714   4.052
    1   AR   Ar  218   4.457   3.217   5.123
    1   AR   Ar  219   5.418   1.915   3.755
    1   AR   Ar  220   4.831   3.443   2.311
    1   AR   Ar  221   5.992   0.477   5.360
    1   AR   Ar  222   5.126   1.598   6.821
    1   AR   Ar  223   0.373   0.837   7.089
    1   AR   Ar  224   4.842   3.030   6.279
    1   AR   Ar  225   5.916   4.313   1.341
    1   AR   Ar  226   3.989   4.346   2.308
    1   AR   Ar  227   0.361   5.047   0.305
    1   AR   Ar  228   5.286   6.479   1.130
    1   AR   Ar  229   5.437   4.011  -0.344
    1   AR   Ar  230   4.337   4.320   3.477
    1   AR   Ar  231   6.019   1.690   2.948
    1   AR   Ar  232   4.397   2.966   0.698
    1   AR   Ar  233   6.355   2.375   3.643
    1   AR   Ar  234   6.725   2.600   4.820
    1   AR   Ar  235   0.230   2.344   3.947
    1   AR   Ar  236   5.677   4.740   4.878
    1   AR   Ar  237   5.542   3.595   5.175
    1   AR   Ar  238   4.720   4.287   5.596
    1   AR   Ar  239   6.666   3.812   9.533
    1   AR   Ar  240   6.566   3.116   5.778
    1   AR   Ar  241   0.754   6.837  -1.008
    1   AR   Ar  242   5.232   4.583   0.591
    1   AR   Ar  243   5.493   4.336   2.400
    1   AR   Ar  244   1.089   5.298  -0.514
    1   AR   Ar  245   5.543   0.428   1.083
    1   AR   Ar  246   6.642   5.890   1.168
    1   AR   Ar  247   4.703   3.960   1.221
    1   AR   Ar  248   5.384   5.648  -0.254
    1   AR   Ar  249   4.214   5.557   2.343
    1   AR   Ar  250   4.919   6.224   4.544
    1   AR   Ar  251   5.742   5.404   4.023
    1   AR   Ar  252   5.050   5.857   3.240
    1   AR   Ar  253   5.697   3.723   6.215
    1   AR   Ar  254   3.181   5.672   8.280
    1   AR   Ar  255   4.338   2.582   7.272
    1   AR   Ar  256   6.496   6.113   3.447
    7.12000  7.12000 12.00000
Argon-slab step 2655
  256
    1   AR   Ar    1   6.599   1.594  -0.710
    1   AR   Ar    2   6.556   0.133   0.731
    1   AR   Ar    3   1.203   0.671   0.367
    1   AR   Ar    4   1.444   0.378  -0.650
    1   AR   Ar    5   6.950   6.191   0.226
    1   AR   Ar    6   6.765   0.879   2.923
    1   AR   Ar    7   6.496   4.112   3.264
    1   AR   Ar    8   6.640   0.039   1.887
    1   AR   Ar    9   0.600   0.434   3.375
    1   AR   Ar   10   0.925   1.465   4.185
    1   AR   Ar   11   2.079   7.036   4.959
    1   AR   Ar   12   1.114   1.332   2.875
    1   AR   Ar   13   6.442   1.342   5.136
    1   AR   Ar   14   1.635   1.514   7.642
    1   AR   Ar   15   6.607   0.475   9.761
    1   AR   Ar   16   1.180   0.447   4.843
    1   AR   Ar   17   0.283   2.106   0.111
    1   AR   Ar   18   5.659   2.944  -0.546
    1   AR   Ar   19   1.477   2.809   1.432
    1   AR   Ar   20   5.130   4.828  -2.126
    1   AR   Ar   21   5.917   1.124   2.106
    1   AR   Ar   22   6.791   1.731   2.029
    1   AR   Ar   23   0.117   0.769  -0.080
    1   AR   Ar   24   0.267   2.084   1.239
    1   AR   Ar   25   7.032   1.396   3.913
    1   AR   Ar   26   5.779   1.144   4.324
    1   AR   Ar   27   1.951   1.545   3.602
    1   AR   Ar   28   1.523   2.480   4.598
    1   AR   Ar   29   5.698   2.440   6.679
    1   AR   Ar   30   1.684   1.753   5.477
    1   AR   Ar   31   0.833   6.635   7.702
    1   AR   Ar   32   1.700   2.676   6.067
    1   AR   Ar   33   1.125   3.566  -0.375
    1   AR   Ar   34   0.174   5.233   2.878
    1   AR   Ar   35   6.512   4.973   2.005
    1   AR   Ar   36   0.052   0.543  -3.569
    1   AR   Ar   37   6.270   2.789   2.609
    1   AR   Ar   38   0.099   4.001   2.418
    1   AR   Ar   39   1.636   3.267   2.950
    1   AR   Ar   40   1.214   3.892   1.262
    1   AR   Ar   41   0.214   3.371   3.302
    1   AR   Ar   42   6.830   5.730   5.265
    1   AR   Ar   43   6.764   2.217   6.211
    1   AR   Ar   44   0.767   4.527   3.376
    1   AR   Ar   45   0.513   2.799   5.365
    1   AR   Ar   46   0.990   5.905   6.093
    1   AR   Ar   47   6.170   3.388   7.322
    1   AR   Ar   48   0.579   6.723   6.627
    1   AR   Ar   49   6.425   7.060  -2.039
    1   AR   Ar   50   5.398   5.439   1.564
    1   AR   Ar   51   0.738   5.215   2.086
    1   AR   Ar   52   5.572   4.871  -0.963
    1   AR   Ar   53   5.238   6.211   2.203
    1   AR   Ar   54   6.368   6.089   2.405
    1   AR   Ar   55   5.985   5.260   3.004
    1   AR   Ar   56   0.833   6.936   0.947
    1   AR   Ar   57   5.420   2.882   3.148
    1   AR   Ar   58   6.808   5.145   3.865
    1   AR   Ar   59   1.753   5.539   5.138
    1   AR   Ar   60   0.650   6.670   4.139
    1   AR   Ar   61   6.348   4.240   5.495
    1   AR   Ar   62   0.584   5.375   5.234
    1   AR   Ar   63   2.779   6.651   7.013
    1   AR   Ar   64   1.131   6.476   5.159
    1   AR   Ar   65   3.438   7.114   0.794
    1   AR   Ar   66   0.840   1.303   1.845
    1   AR   Ar   67   2.998   6.249  -1.223
    1   AR   Ar   68   3.324   1.556  -1.214
    1   AR   Ar   69   2.913   1.571   0.894
    1   AR   Ar   70   0.576   6.837   2.248
    1   AR   Ar   71   2.982   1.794   3.850
    1   AR   Ar   72   3.409   1.089   1.673
    1   AR   Ar   73   2.724   7.001   3.593
    1   AR   Ar   74   2.655   1.197   5.083
    1   AR   Ar   75   3.542   1.582   4.822
    1   AR   Ar   76   1.621   0.360   1.736
    1   AR   Ar   77   2.378   6.724   5.875
    1   AR   Ar   78   1.868   0.476   7.406
    1   AR   Ar   79   3.702   6.973   6.470
    1   AR   Ar   80   3.599   5.330   5.836
    1   AR   Ar   81   2.401   0.772   0.422
    1   AR   Ar   82   7.079   5.888  -0.883
    1   AR   Ar   83   1.320   2.046   0.724
    1   AR   Ar   84   0.072   3.875  -0.046
    1   AR   Ar   85   0.710   2.984   0.889
    1   AR   Ar   86   2.227   3.457   0.725
    1   AR   Ar   87   2.264   1.850   1.680
    1   AR   Ar   88   2.874   4.310   2.108
    1   AR   Ar   89   0.095   2.951   2.202
    1   AR   Ar   90   2.494   2.614   4.999
    1   AR   Ar   91   1.160   2.375   3.350
    1   AR   Ar   92   1.113   2.411   2.289
    1   AR   Ar   93   2.105   0.734   5.789
    1   AR   Ar   94   1.247   0.000   9.795
    1   AR   Ar   95   4.175   0.722   6.011
    1   AR   Ar   96   3.156   0.139   5.018
    1   AR   Ar   97   4.896   1.763  -0.442
    1   AR   Ar   98   2.187   4.834   2.826
    1   AR   Ar   99   6.696   2.411  -1.470
    1   AR   Ar  100   2.319   2.399   0.368
    1   AR   Ar  101   2.241   4.361   1.177
    1   AR   Ar  102   3.667   2.865   3.740
    1   AR   Ar  103   1.300   4.400   0.210
    1   AR   Ar  104   2.939   2.689  -1.767
    1   AR   Ar  105   2.285   3.228   4.160
    1   AR   Ar  106   3.297   3.463   4.678
    1   AR   Ar  107   1.576   3.964   5.144
    1   AR   Ar  108   3.630   2.549   5.094
    1   AR   Ar  109   1.388   3.625   4.049
    1   AR   Ar  110   0.900   4.815   6.036
    1   AR   Ar  111   5.038   3.887   7.051
    1   AR   Ar  112   1.868   5.423   6.930
    1   AR   Ar  113   2.310   4.711   0.143
    1   AR   Ar  114   2.485   5.490  -0.508
    1   AR   Ar  115   2.910   4.171  -0.689
    1   AR   Ar  116   5.681   5.805  -1.761
    1   AR   Ar  117   0.705   5.410   4.009
    1   AR   Ar  118   0.916   6.061   3.198
    1   AR   Ar  119   1.869   3.751   2.088
    1   AR   Ar  120   1.954   5.900   2.301
    1   AR   Ar  121   6.208   3.900   4.221
    1   AR   Ar  122   2.722   5.936   5.043
    1   AR   Ar  123   3.019   4.853   4.751
    1   AR   Ar  124   1.558   4.817   1.711
    1   AR   Ar  125   0.333   3.801   5.646
    1   AR   Ar  126   7.011   6.826   4.875
    1   AR   Ar  127   3.379   4.005   6.746
    1   AR   Ar  128   2.576   5.647   6.165
    1   AR   Ar  129   1.869   6.965   3.021
    1   AR   Ar  130   4.270   2.019  -1.423
    1   AR   Ar  131   4.171   0.749  -0.335
    1   AR   Ar  132   1.129   1.547  -1.192
    1   AR   Ar  133   4.199   0.300   2.715
    1   AR   Ar  134   4.779   1.004   3.927
    1   AR   Ar  135   5.292   0.802   3.006
    1   AR   Ar  136   5.003   0.291   1.887
    1   AR   Ar  137   2.443   5.898   3.797
    1   AR   Ar  138   5.066   1.861   4.719
    1   AR   Ar  139   5.377   2.623   5.358
    1   AR   Ar  140   4.314   0.043   4.550
    1   AR   Ar  141   3.816   6.088   4.605
    1   AR   Ar  142   3.859   6.651   5.479
    1   AR   Ar  143   6.732   6.620   5.918
    1   AR   Ar  144   5.545   1.266   5.952
    1   AR   Ar  145   3.625   3.937   0.115
    1   AR   Ar  146   4.329   2.491   1.668
    1   AR   Ar  147   5.704   1.799  -2.104
    1   AR   Ar  148   4.034   4.467  -1.683
    1   AR   Ar  149   3.662   2.215   0.788
    1   AR   Ar  150   2.473   1.719   2.671
    1   AR   Ar  151   2.619   2.732   3.046
    1   AR   Ar  152   3.362   2.990   0.264
    1   AR   Ar  153   3.474   0.785   4.102
    1   AR   Ar  154   4.305   1.891   3.437
    1   AR   Ar  155   6.517   0.219   6.666
    1   AR   Ar  156   4.073   4.086   4.467
    1   AR   Ar  157   2.713   3.215   6.084
    1   AR   Ar  158   1.402   3.921   6.363
    1   AR   Ar  159   4.529   2.096   5.586
    1   AR   Ar  160   2.932   1.854   5.819
    1   AR   Ar  161   5.761   3.013   1.691
    1   AR   Ar  162   4.469   6.096  -0.754
    1   AR   Ar  163   5.355   3.186   0.411
    1   AR   Ar  164   3.029   5.787   1.912
    1   AR   Ar  165   3.745   3.291   1.398
    1   AR   Ar  166   3.054   4.217   3.794
    1   AR   Ar  167   4.027   1.345   2.654
    1   AR   Ar  168   4.309   3.216  -0.320
    1   AR   Ar  169   2.667   2.909   1.642
    1   AR   Ar  170   2.576   4.037   5.478
    1   AR   Ar  171   5.427   4.185   3.575
    1   AR   Ar  172   4.616   5.030   4.571
    1   AR   Ar  173   2.084   3.261   6.974
    1   AR   Ar  174   2.906   4.947   7.329
    1   AR   Ar  175   3.607   2.557   6.258
    1   AR   Ar  176   3.720   3.556   5.810
    1   AR   Ar  177   6.353   4.593  -0.155
    1   AR   Ar  178   3.179   5.620   0.268
    1   AR   Ar  179   4.661   5.421   0.625
    1   AR   Ar  180   1.686   2.386  -1.853
    1   AR   Ar  181   0.739   5.885   1.234
    1   AR   Ar  182   3.210   0.766   2.754
    1   AR   Ar  183   3.164   5.129   2.966
    1   AR   Ar  184   3.962   6.376   1.530
    1   AR   Ar  185   1.628   4.635   4.300
    1   AR   Ar  186   3.689   5.136   3.968
    1   AR   Ar  187   3.620   6.117   3.470
    1   AR   Ar  188   2.943   7.048   2.098
    1   AR   Ar  189   3.230   2.279   7.776
    1   AR   Ar  190   5.024   6.695   5.518
    1   AR   Ar  191   4.451   4.874   6.493
    1   AR   Ar  192   4.481   5.646   5.553
    1   AR   Ar  193   0.861   6.270  -0.056
    1   AR   Ar  194   4.941   3.590  -1.178
    1   AR   Ar  195   6.138   0.863  -0.069
    1   AR   Ar  196   4.961   7.018  -0.439
    1   AR   Ar  197   5.212   1.357   0.935
    1   AR   Ar  198   6.871   1.149   1.109
    1   AR   Ar  199   4.929   1.547   2.121
    1   AR   Ar  200   5.855   2.095  -0.132
    1   AR   Ar  201   4.697   6.972   3.454
    1   AR   Ar  202   5.590   2.894   4.299
    1   AR   Ar  203   6.194   6.192   4.461
    1   AR   Ar  204   5.584   0.001   4.573
    1   AR   Ar  205   5.897   6.974   3.000
    1   AR   Ar  206   5.041   0.849   5.088
    1   AR   Ar  207   0.610   0.828   5.889
    1   AR   Ar  208   6.930   6.911   2.985
    1   AR   Ar  209   5.749   2.971  -1.664
    1   AR   Ar  210   3.763   1.172   0.639
    1   AR   Ar  211   6.619   3.093   0.569
    1   AR   Ar  212   6.369   4.021  -1.169
    1   AR   Ar  213   3.288   2.221   1.977
    1   AR   Ar  214   4.033   2.747   2.635
    1   AR   Ar  215   5.822   2.011   1.423
    1   AR   Ar  216   7.052   3.940   0.940
    1   AR   Ar  217   4.626   2.706   4.038
    1   AR   Ar  218   4.446   3.236   5.123
    1   AR   Ar  219   5.391   1.908   3.737
    1   AR   Ar  220   4.869   3.460   2.327
    1   AR   Ar  221   6.014   0.470   5.376
    1   AR   Ar  222   5.124   1.596   6.807
    1   AR   Ar  223   0.415   0.827   7.078
    1   AR   Ar  224   4.846   3.033   6.268
    1   AR   Ar  225   5.888   4.309   1.309
    1   AR   Ar  226   3.982   4.359   2.291
    1   AR   Ar  227   0.349   5.058   0.319
    1   AR   Ar  228   5.278   6.500   1.156
    1   AR   Ar  229   5.442   3.996  -0.339
    1   AR   Ar  230   4.337   4.333   3.471
    1   AR   Ar  231   5.983   1.686   2.963
    1   AR   Ar  232   4.404   2.943   0.691
    1   AR   Ar  233   6.347   2.371   3.630
    1   AR   Ar  234   6.734   2.632   4.779
    1   AR   Ar  235   0.210   2.360   3.930
    1   AR   Ar  236   5.686   4.735   4.862
    1   AR   Ar  237   5.538   3.574   5.208
    1   AR   Ar  238   4.728   4.317   5.612
    1   AR   Ar  239   6.701   3.809   9.523
    1   AR   Ar  240   6.571   3.131   5.794
    1   AR   Ar  241   0.749   6.797  -1.018
    1   AR   Ar  242   5.237   4.558   0.580
    1   AR   Ar  243   5.491   4.325   2.438
    1   AR   Ar  244   1.066   5.324  -0.519
    1   AR   Ar  245   5.529   0.420   1.069
    1   AR   Ar  246   6.606   5.860   1.178
    1   AR   Ar  247   4.704   3.982   1.244
    1   AR   Ar  248   5.355   5.628  -0.268
    1   AR   Ar  249   4.204   5.553   2.317
    1   AR   Ar  250   4.927   6.239   4.559
    1   AR   Ar  251   5.737   5.373   4.013
    1   AR   Ar  252   5.060   5.833   3.220
    1   AR   Ar  253   5.687   3.699   6.237
    1   AR   Ar  254   3.152   5.680   8.296
    1   AR   Ar  255   4.400   2.600   7.304
    1   AR   Ar  256   6.494   6.119   3.449
    7.12000  7.12000 12.00000
Argon-slab step 2660
  256
    1   AR   Ar    1   6.580   1.631  -0.726
    1   AR   Ar    2   6.561   0.092   0.738
    1   AR   Ar    3   1.200   0.696   0.405
    1   AR   Ar    4   1.434   0.386  -0.641
    1   AR   Ar    5   6.945   6.227   0.229
    1   AR   Ar    6   6.770   0.866   2.915
    1   AR   Ar    7   6.482   4.121   3.276
    1   AR   Ar    8   6.613   0.074   1.862
    1   AR   Ar    9   0.607   0.425   3.366
    1   AR   Ar   10   0.921   1.464   4.180
    1   AR   Ar   11   2.041   7.053   4.970
    1   AR   Ar   12   1.102   1.340   2.873
    1   AR   Ar   13   6.438   1.327   5.131
    1   AR   Ar   14   1.622   1.509   7.619
    1   AR   Ar   15   6.578   0.490   9.769
    1   AR   Ar   16   1.217   0.460   4.820
    1   AR   Ar   17   0.228   2.103   0.095
    1   AR   Ar   18   5.676   2.909  -0.548
    1   AR   Ar   19   1.503   2.821   1.453
    1   AR   Ar   20   5.112   4.792  -2.141
    1   AR   Ar   21   5.923   1.146   2.098
    1   AR   Ar   22   6.824   1.728   2.028
    1   AR   Ar   23   0.101   0.743  -0.098
    1   AR   Ar   24   0.249   2.094   1.239
    1   AR   Ar   25   7.016   1.385   3.906
    1   AR   Ar   26   5.794   1.106   4.333
    1   AR   Ar   27   1.921   1.514   3.604
    1   AR   Ar   28   1.517   2.513   4.591
    1   AR   Ar   29   5.737   2.431   6.679
    1   AR   Ar   30   1.672   1.723   5.481
    1   AR   Ar   31   0.825   6.676   7.701
    1   AR   Ar   32   1.678   2.683   6.056
    1   AR   Ar   33   1.122   3.558  -0.363
    1   AR   Ar   34   0.164   5.224   2.906
    1   AR   Ar   35   6.508   4.980   2.022
    1   AR   Ar   36   0.060   0.569  -3.544
    1   AR   Ar   37   6.292   2.777   2.592
    1   AR   Ar   38   0.102   4.018   2.413
    1   AR   Ar   39   1.615   3.243   2.973
    1   AR   Ar   40   1.221   3.908   1.248
    1   AR   Ar   41   0.228   3.381   3.331
    1   AR   Ar   42   6.833   5.740   5.227
    1   AR   Ar   43   6.779   2.208   6.232
    1   AR   Ar   44   0.752   4.512   3.341
    1   AR   Ar   45   0.497   2.826   5.360
    1   AR   Ar   46   0.994   5.929   6.083
    1   AR   Ar   47   6.175   3.384   7.347
    1   AR   Ar   48   0.586   6.725   6.628
    1   AR   Ar   49   6.401   7.059  -2.011
    1   AR   Ar   50   5.406   5.427   1.567
    1   AR   Ar   51   0.725   5.214   2.088
    1   AR   Ar   52   5.569   4.868  -0.941
    1   AR   Ar   53   5.195   6.212   2.228
    1   AR   Ar   54   6.375   6.096   2.385
    1   AR   Ar   55   5.980   5.276   2.987
    1   AR   Ar   56   0.805   6.961   0.922
    1   AR   Ar   57   5.408   2.887   3.134
    1   AR   Ar   58   6.811   5.143   3.848
    1   AR   Ar   59   1.740   5.519   5.133
    1   AR   Ar   60   0.651   6.664   4.127
    1   AR   Ar   61   6.313   4.237   5.510
    1   AR   Ar   62   0.577   5.358   5.232
    1   AR   Ar   63   2.782   6.677   7.016
    1   AR   Ar   64   1.084   6.463   5.182
    1   AR   Ar   65   3.450   0.008   0.791
    1   AR   Ar   66   0.834   1.313   1.852
    1   AR   Ar   67   2.991   6.274  -1.253
    1   AR   Ar   68   3.315   1.574  -1.199
    1   AR   Ar   69   2.863   1.567   0.897
    1   AR   Ar   70   0.576   6.826   2.258
    1   AR   Ar   71   2.991   1.832   3.858
    1   AR   Ar   72   3.390   1.067   1.629
    1   AR   Ar   73   2.721   7.036   3.602
    1   AR   Ar   74   2.667   1.195   5.045
    1   AR   Ar   75   3.541   1.558   4.797
    1   AR   Ar   76   1.609   0.366   1.747
    1   AR   Ar   77   2.381   6.704   5.885
    1   AR   Ar   78   1.867   0.505   7.388
    1   AR   Ar   79   3.721   6.961   6.464
    1   AR   Ar   80   3.610   5.321   5.815
    1   AR   Ar   81   2.408   0.792   0.394
    1   AR   Ar   82   0.008   5.913  -0.889
    1   AR   Ar   83   1.300   1.999   0.722
    1   AR   Ar   84   0.070   3.881  -0.060
    1   AR   Ar   85   0.685   2.953   0.914
    1   AR   Ar   86   2.195   3.488   0.691
    1   AR   Ar   87   2.235   1.854   1.663
    1   AR   Ar   88   2.855   4.319   2.105
    1   AR   Ar   89   0.092   2.959   2.205
    1   AR   Ar   90   2.492   2.614   5.001
    1   AR   Ar   91   1.172   2.376   3.348
    1   AR   Ar   92   1.109   2.429   2.278
    1   AR   Ar   93   2.097   0.700   5.782
    1   AR   Ar   94   1.274   7.100   9.799
    1   AR   Ar   95   4.215   0.713   6.015
    1   AR   Ar   96   3.126   0.162   4.978
    1   AR   Ar   97   4.905   1.777  -0.436
    1   AR   Ar   98   2.151   4.876   2.803
    1   AR   Ar   99   6.674   2.432  -1.474
    1   AR   Ar  100   2.343   2.392   0.394
    1   AR   Ar  101   2.245   4.338   1.163
    1   AR   Ar  102   3.672   2.850   3.765
    1   AR   Ar  103   1.282   4.402   0.217
    1   AR   Ar  104   2.942   2.682  -1.760
    1   AR   Ar  105   2.258   3.232   4.149
    1   AR   Ar  106   3.252   3.462   4.683
    1   AR   Ar  107   1.550   3.954   5.093
    1   AR   Ar  108   3.674   2.541   5.092
    1   AR   Ar  109   1.370   3.653   4.027
    1   AR   Ar  110   0.892   4.818   6.024
    1   AR   Ar  111   5.062   3.879   7.070
    1   AR   Ar  112   1.872   5.417   6.940
    1   AR   Ar  113   2.294   4.730   0.146
    1   AR   Ar  114   2.477   5.518  -0.526
    1   AR   Ar  115   2.919   4.202  -0.670
    1   AR   Ar  116   5.737   5.816  -1.760
    1   AR   Ar  117   0.707   5.427   4.020
    1   AR   Ar  118   0.917   6.031   3.178
    1   AR   Ar  119   1.867   3.754   2.119
    1   AR   Ar  120   1.988   5.920   2.288
    1   AR   Ar  121   6.232   3.915   4.220
    1   AR   Ar  122   2.703   5.937   5.051
    1   AR   Ar  123   3.038   4.820   4.783
    1   AR   Ar  124   1.552   4.832   1.687
    1   AR   Ar  125   0.352   3.838   5.622
    1   AR   Ar  126   7.022   6.817   4.896
    1   AR   Ar  127   3.359   4.023   6.795
    1   AR   Ar  128   2.564   5.670   6.177
    1   AR   Ar  129   1.858   6.994   3.048
    1   AR   Ar  130   4.326   2.020  -1.405
    1   AR   Ar  131   4.164   0.733  -0.346
    1   AR   Ar  132   1.105   1.536  -1.185
    1   AR   Ar  133   4.211   0.242   2.713
    1   AR   Ar  134   4.774   1.002   3.918
    1   AR   Ar  135   5.302   0.800   2.996
    1   AR   Ar  136   5.005   0.283   1.887
    1   AR   Ar  137   2.410   5.883   3.797
    1   AR   Ar  138   5.052   1.852   4.725
    1   AR   Ar  139   5.335   2.614   5.354
    1   AR   Ar  140   4.305   7.119   4.528
    1   AR   Ar  141   3.845   6.067   4.607
    1   AR   Ar  142   3.855   6.618   5.479
    1   AR   Ar  143   6.768   6.612   5.891
    1   AR   Ar  144   5.524   1.259   5.940
    1   AR   Ar  145   3.614   3.951   0.135
    1   AR   Ar  146   4.322   2.490   1.682
    1   AR   Ar  147   5.715   1.816  -2.104
    1   AR   Ar  148   4.013   4.440  -1.666
    1   AR   Ar  149   3.656   2.226   0.741
    1   AR   Ar  150   2.469   1.732   2.664
    1   AR   Ar  151   2.648   2.727   3.055
    1   AR   Ar  152   3.378   3.004   0.271
    1   AR   Ar  153   3.530   0.796   4.066
    1   AR   Ar  154   4.323   1.910   3.411
    1   AR   Ar  155   6.499   0.198   6.653
    1   AR   Ar  156   4.097   4.082   4.462
    1   AR   Ar  157   2.719   3.208   6.057
    1   AR   Ar  158   1.384   3.940   6.390
    1   AR   Ar  159   4.554   2.084   5.576
    1   AR   Ar  160   2.910   1.854   5.801
    1   AR   Ar  161   5.770   2.995   1.708
    1   AR   Ar  162   4.488   6.065  -0.773
    1   AR   Ar  163   5.383   3.189   0.416
    1   AR   Ar  164   3.007   5.783   1.930
    1   AR   Ar  165   3.749   3.273   1.435
    1   AR   Ar  166   3.049   4.175   3.830
    1   AR   Ar  167   4.014   1.330   2.617
    1   AR   Ar  168   4.331   3.208  -0.299
    1   AR   Ar  169   2.670   2.900   1.648
    1   AR   Ar  170   2.584   4.030   5.463
    1   AR   Ar  171   5.397   4.170   3.627
    1   AR   Ar  172   4.619   5.018   4.566
    1   AR   Ar  173   2.094   3.298   7.012
    1   AR   Ar  174   2.872   4.940   7.318
    1   AR   Ar  175   3.578   2.538   6.247
    1   AR   Ar  176   3.734   3.555   5.813
    1   AR   Ar  177   6.330   4.599  -0.159
    1   AR   Ar  178   3.188   5.611   0.260
    1   AR   Ar  179   4.670   5.402   0.636
    1   AR   Ar  180   1.679   2.370  -1.880
    1   AR   Ar  181   0.761   5.899   1.234
    1   AR   Ar  182   3.212   0.763   2.775
    1   AR   Ar  183   3.174   5.137   2.971
    1   AR   Ar  184   3.970   6.359   1.525
    1   AR   Ar  185   1.623   4.642   4.321
    1   AR   Ar  186   3.724   5.120   4.006
    1   AR   Ar  187   3.625   6.123   3.465
    1   AR   Ar  188   2.948   7.033   2.110
    1   AR   Ar  189   3.262   2.282   7.780
    1   AR   Ar  190   5.025   6.701   5.526
    1   AR   Ar  191   4.428   4.877   6.510
    1   AR   Ar  192   4.504   5.682   5.563
    1   AR   Ar  193   0.895   6.271  -0.024
    1   AR   Ar  194   4.917   3.595  -1.195
    1   AR   Ar  195   6.145   0.882  -0.079
    1   AR   Ar  196   4.936   7.039  -0.440
    1   AR   Ar  197   5.207   1.326   0.909
    1   AR   Ar  198   6.890   1.158   1.075
    1   AR   Ar  199   4.913   1.547   2.173
    1   AR   Ar  200   5.843   2.092  -0.126
    1   AR   Ar  201   4.659   6.943   3.497
    1   AR   Ar  202   5.594   2.842   4.313
    1   AR   Ar  203   6.185   6.202   4.475
    1   AR   Ar  204   5.553   7.104   4.580
    1   AR   Ar  205   5.900   6.981   3.027
    1   AR   Ar  206   5.025   0.873   5.101
    1   AR   Ar  207   0.614   0.869   5.910
    1   AR   Ar  208   6.954   6.911   3.023
    1   AR   Ar  209   5.764   2.968  -1.645
    1   AR   Ar  210   3.746   1.145   0.642
    1   AR   Ar  211   6.657   3.098   0.561
    1   AR   Ar  212   6.355   4.028  -1.138
    1   AR   Ar  213   3.274   2.217   2.019
    1   AR   Ar  214   4.046   2.741   2.616
    1   AR   Ar  215   5.833   1.999   1.435
    1   AR   Ar  216   7.064   3.936   0.975
    1   AR   Ar  217   4.614   2.697   4.027
    1   AR   Ar  218   4.440   3.254   5.122
    1   AR   Ar  219   5.357   1.906   3.719
    1   AR   Ar  220   4.906   3.475   2.342
    1   AR   Ar  221   6.037   0.454   5.399
    1   AR   Ar  222   5.114   1.593   6.799
    1   AR   Ar  223   0.458   0.816   7.066
    1   AR   Ar  224   4.847   3.034   6.256
    1   AR   Ar  225   5.864   4.302   1.284
    1   AR   Ar  226   3.975   4.372   2.274
    1   AR   Ar  227   0.332   5.036   0.322
    1   AR   Ar  228   5.269   6.520   1.183
    1   AR   Ar  229   5.449   3.981  -0.332
    1   AR   Ar  230   4.337   4.346   3.463
    1   AR   Ar  231   5.951   1.680   2.970
    1   AR   Ar  232   4.411   2.921   0.684
    1   AR   Ar  233   6.338   2.372   3.621
    1   AR   Ar  234   6.739   2.664   4.737
    1   AR   Ar  235   0.199   2.384   3.912
    1   AR   Ar  236   5.691   4.738   4.855
    1   AR   Ar  237   5.535   3.567   5.234
    1   AR   Ar  238   4.736   4.345   5.624
    1   AR   Ar  239   6.736   3.806   9.513
    1   AR   Ar  240   6.572   3.151   5.808
    1   AR   Ar  241   0.740   6.754  -1.029
    1   AR   Ar  242   5.243   4.535   0.559
    1   AR   Ar  243   5.491   4.316   2.475
    1   AR   Ar  244   1.043   5.348  -0.525
    1   AR   Ar  245   5.527   0.406   1.045
    1   AR   Ar  246   6.570   5.828   1.192
    1   AR   Ar  247   4.669   3.980   1.253
    1   AR   Ar  248   5.327   5.609  -0.279
    1   AR   Ar  249   4.193   5.549   2.293
    1   AR   Ar  250   4.935   6.251   4.571
    1   AR   Ar  251   5.729   5.341   4.003
    1   AR   Ar  252   5.070   5.811   3.203
    1   AR   Ar  253   5.679   3.676   6.259
    1   AR   Ar  254   3.124   5.687   8.310
    1   AR   Ar  255   4.462   2.619   7.335
    1   AR   Ar  256   6.520   6.110   3.463
    7.12000  7.12000 12.00000
Argon-slab step 2665
  256
    1   AR   Ar    1   6.564   1.667  -0.743
    1   AR   Ar    2   6.566   0.052   0.744
    1   AR   Ar    3   1.198   0.722   0.442
    1   AR   Ar    4   1.424   0.396  -0.631
    1   AR   Ar    5   6.940   6.262   0.231
    1   AR   Ar    6   6.774   0.854   2.906
    1   AR   Ar    7   6.471   4.133   3.277
    1   AR   Ar    8   6.586   0.109   1.838
    1   AR   Ar    9   0.616   0.419   3.357
    1   AR   Ar   10   0.921   1.464   4.174
    1   AR   Ar   11   2.011   7.064   4.979
    1   AR   Ar   12   1.090   1.348   2.875
    1   AR   Ar   13   6.440   1.322   5.125
    1   AR   Ar   14   1.607   1.506   7.597
    1   AR   Ar   15   6.550   0.505   9.777
    1   AR   Ar   16   1.244   0.480   4.796
    1   AR   Ar   17   0.173   2.101   0.080
    1   AR   Ar   18   5.688   2.899  -0.567
    1   AR   Ar   19   1.545   2.835   1.474
    1   AR   Ar   20   5.093   4.755  -2.154
    1   AR   Ar   21   5.929   1.161   2.085
    1   AR   Ar   22   6.855   1.724   2.033
    1   AR   Ar   23   0.086   0.717  -0.114
    1   AR   Ar   24   0.234   2.102   1.237
    1   AR   Ar   25   6.995   1.370   3.897
    1   AR   Ar   26   5.804   1.124   4.343
    1   AR   Ar   27   1.891   1.485   3.607
    1   AR   Ar   28   1.509   2.546   4.583
    1   AR   Ar   29   5.777   2.426   6.677
    1   AR   Ar   30   1.662   1.699   5.481
    1   AR   Ar   31   0.818   6.718   7.700
    1   AR   Ar   32   1.657   2.692   6.044
    1   AR   Ar   33   1.120   3.556  -0.359
    1   AR   Ar   34   0.156   5.215   2.891
    1   AR   Ar   35   6.504   4.987   2.039
    1   AR   Ar   36   0.070   0.573  -3.549
    1   AR   Ar   37   6.313   2.762   2.578
    1   AR   Ar   38   0.106   4.038   2.409
    1   AR   Ar   39   1.593   3.219   3.000
    1   AR   Ar   40   1.225   3.921   1.231
    1   AR   Ar   41   0.243   3.390   3.360
    1   AR   Ar   42   6.814   5.758   5.188
    1   AR   Ar   43   6.794   2.196   6.254
    1   AR   Ar   44   0.739   4.492   3.308
    1   AR   Ar   45   0.482   2.850   5.356
    1   AR   Ar   46   1.000   5.948   6.074
    1   AR   Ar   47   6.174   3.384   7.391
    1   AR   Ar   48   0.593   6.728   6.638
    1   AR   Ar   49   6.382   7.081  -2.010
    1   AR   Ar   50   5.415   5.411   1.568
    1   AR   Ar   51   0.709   5.217   2.086
    1   AR   Ar   52   5.568   4.862  -0.925
    1   AR   Ar   53   5.207   6.222   2.255
    1   AR   Ar   54   6.382   6.105   2.364
    1   AR   Ar   55   5.977   5.289   2.968
    1   AR   Ar   56   0.774   6.985   0.897
    1   AR   Ar   57   5.393   2.891   3.125
    1   AR   Ar   58   6.810   5.139   3.833
    1   AR   Ar   59   1.727   5.508   5.131
    1   AR   Ar   60   0.652   6.657   4.113
    1   AR   Ar   61   6.283   4.231   5.528
    1   AR   Ar   62   0.591   5.337   5.222
    1   AR   Ar   63   2.783   6.703   7.018
    1   AR   Ar   64   1.036   6.450   5.202
    1   AR   Ar   65   3.462   0.024   0.790
    1   AR   Ar   66   0.827   1.323   1.856
    1   AR   Ar   67   2.985   6.299  -1.282
    1   AR   Ar   68   3.306   1.592  -1.184
    1   AR   Ar   69   2.806   1.569   0.899
    1   AR   Ar   70   0.578   6.816   2.267
    1   AR   Ar   71   3.000   1.870   3.866
    1   AR   Ar   72   3.372   1.042   1.593
    1   AR   Ar   73   2.724   7.072   3.615
    1   AR   Ar   74   2.667   1.186   5.004
    1   AR   Ar   75   3.553   1.537   4.771
    1   AR   Ar   76   1.596   0.372   1.758
    1   AR   Ar   77   2.387   6.682   5.898
    1   AR   Ar   78   1.868   0.530   7.370
    1   AR   Ar   79   3.738   6.949   6.460
    1   AR   Ar   80   3.612   5.308   5.794
    1   AR   Ar   81   2.411   0.821   0.355
    1   AR   Ar   82   0.058   5.939  -0.893
    1   AR   Ar   83   1.280   1.951   0.722
    1   AR   Ar   84   0.069   3.887  -0.077
    1   AR   Ar   85   0.653   2.931   0.929
    1   AR   Ar   86   2.175   3.490   0.668
    1   AR   Ar   87   2.200   1.860   1.645
    1   AR   Ar   88   2.827   4.332   2.105
    1   AR   Ar   89   0.096   2.967   2.204
    1   AR   Ar   90   2.491   2.614   5.000
    1   AR   Ar   91   1.182   2.372   3.350
    1   AR   Ar   92   1.102   2.443   2.273
    1   AR   Ar   93   2.087   0.664   5.776
    1   AR   Ar   94   1.301   7.080   9.803
    1   AR   Ar   95   4.216   0.701   6.019
    1   AR   Ar   96   3.111   0.175   4.959
    1   AR   Ar   97   4.902   1.784  -0.430
    1   AR   Ar   98   2.111   4.917   2.779
    1   AR   Ar   99   6.654   2.453  -1.477
    1   AR   Ar  100   2.367   2.386   0.421
    1   AR   Ar  101   2.256   4.323   1.153
    1   AR   Ar  102   3.666   2.837   3.787
    1   AR   Ar  103   1.263   4.406   0.228
    1   AR   Ar  104   2.946   2.673  -1.752
    1   AR   Ar  105   2.242   3.233   4.137
    1   AR   Ar  106   3.204   3.460   4.689
    1   AR   Ar  107   1.522   3.941   5.046
    1   AR   Ar  108   3.654   2.508   5.101
    1   AR   Ar  109   1.341   3.683   4.002
    1   AR   Ar  110   0.886   4.819   6.016
    1   AR   Ar  111   5.080   3.874   7.093
    1   AR   Ar  112   1.874   5.411   6.952
    1   AR   Ar  113   2.279   4.747   0.150
    1   AR   Ar  114   2.469   5.548  -0.547
    1   AR   Ar  115   2.928   4.233  -0.650
    1   AR   Ar  116   5.792   5.826  -1.757
    1   AR   Ar  117   0.706   5.440   4.033
    1   AR   Ar  118   0.917   6.004   3.154
    1   AR   Ar  119   1.868   3.759   2.144
    1   AR   Ar  120   2.020   5.939   2.276
    1   AR   Ar  121   6.255   3.927   4.232
    1   AR   Ar  122   2.688   5.939   5.059
    1   AR   Ar  123   3.058   4.786   4.817
    1   AR   Ar  124   1.550   4.849   1.666
    1   AR   Ar  125   0.372   3.879   5.598
    1   AR   Ar  126   7.033   6.808   4.915
    1   AR   Ar  127   3.338   4.040   6.843
    1   AR   Ar  128   2.554   5.693   6.186
    1   AR   Ar  129   1.840   7.022   3.071
    1   AR   Ar  130   4.383   2.021  -1.387
    1   AR   Ar  131   4.158   0.719  -0.356
    1   AR   Ar  132   1.082   1.526  -1.178
    1   AR   Ar  133   4.218   0.189   2.704
    1   AR   Ar  134   4.766   0.998   3.913
    1   AR   Ar  135   5.302   0.791   2.996
    1   AR   Ar  136   5.027   0.268   1.895
    1   AR   Ar  137   2.378   5.868   3.797
    1   AR   Ar  138   5.039   1.841   4.723
    1   AR   Ar  139   5.316   2.606   5.361
    1   AR   Ar  140   4.296   7.078   4.507
    1   AR   Ar  141   3.854   6.039   4.607
    1   AR   Ar  142   3.831   6.567   5.474
    1   AR   Ar  143   6.804   6.603   5.866
    1   AR   Ar  144   5.507   1.252   5.924
    1   AR   Ar  145   3.608   3.976   0.156
    1   AR   Ar  146   4.312   2.493   1.667
    1   AR   Ar  147   5.727   1.834  -2.103
    1   AR   Ar  148   3.993   4.413  -1.648
    1   AR   Ar  149   3.656   2.219   0.706
    1   AR   Ar  150   2.467   1.744   2.661
    1   AR   Ar  151   2.678   2.721   3.065
    1   AR   Ar  152   3.384   3.025   0.270
    1   AR   Ar  153   3.586   0.805   4.028
    1   AR   Ar  154   4.340   1.929   3.386
    1   AR   Ar  155   6.481   0.179   6.641
    1   AR   Ar  156   4.121   4.078   4.458
    1   AR   Ar  157   2.726   3.196   6.033
    1   AR   Ar  158   1.366   3.957   6.415
    1   AR   Ar  159   4.558   2.073   5.574
    1   AR   Ar  160   2.886   1.856   5.783
    1   AR   Ar  161   5.736   2.997   1.693
    1   AR   Ar  162   4.503   6.041  -0.787
    1   AR   Ar  163   5.414   3.193   0.424
    1   AR   Ar  164   2.988   5.778   1.948
    1   AR   Ar  165   3.745   3.262   1.471
    1   AR   Ar  166   3.045   4.134   3.867
    1   AR   Ar  167   4.002   1.319   2.575
    1   AR   Ar  168   4.354   3.201  -0.283
    1   AR   Ar  169   2.667   2.900   1.649
    1   AR   Ar  170   2.594   4.028   5.444
    1   AR   Ar  171   5.366   4.155   3.679
    1   AR   Ar  172   4.625   5.009   4.563
    1   AR   Ar  173   2.105   3.335   7.049
    1   AR   Ar  174   2.837   4.933   7.306
    1   AR   Ar  175   3.553   2.521   6.237
    1   AR   Ar  176   3.745   3.555   5.817
    1   AR   Ar  177   6.308   4.606  -0.161
    1   AR   Ar  178   3.189   5.606   0.256
    1   AR   Ar  179   4.678   5.387   0.649
    1   AR   Ar  180   1.673   2.353  -1.906
    1   AR   Ar  181   0.782   5.913   1.233
    1   AR   Ar  182   3.205   0.756   2.799
    1   AR   Ar  183   3.187   5.145   2.976
    1   AR   Ar  184   3.979   6.342   1.521
    1   AR   Ar  185   1.619   4.655   4.338
    1   AR   Ar  186   3.757   5.104   4.040
    1   AR   Ar  187   3.629   6.129   3.461
    1   AR   Ar  188   2.954   7.018   2.122
    1   AR   Ar  189   3.295   2.286   7.783
    1   AR   Ar  190   5.026   6.709   5.536
    1   AR   Ar  191   4.404   4.881   6.527
    1   AR   Ar  192   4.536   5.722   5.569
    1   AR   Ar  193   0.927   6.274   0.010
    1   AR   Ar  194   4.915   3.608  -1.176
    1   AR   Ar  195   6.150   0.901  -0.085
    1   AR   Ar  196   4.911   7.059  -0.439
    1   AR   Ar  197   5.195   1.306   0.880
    1   AR   Ar  198   6.907   1.163   1.041
    1   AR   Ar  199   4.902   1.550   2.222
    1   AR   Ar  200   5.859   2.077  -0.099
    1   AR   Ar  201   4.628   6.911   3.547
    1   AR   Ar  202   5.603   2.791   4.329
    1   AR   Ar  203   6.182   6.238   4.500
    1   AR   Ar  204   5.521   7.090   4.585
    1   AR   Ar  205   5.900   6.986   3.054
    1   AR   Ar  206   5.005   0.891   5.113
    1   AR   Ar  207   0.618   0.910   5.932
    1   AR   Ar  208   6.980   6.912   3.058
    1   AR   Ar  209   5.777   2.975  -1.632
    1   AR   Ar  210   3.738   1.114   0.640
    1   AR   Ar  211   6.650   3.091   0.567
    1   AR   Ar  212   6.340   4.033  -1.105
    1   AR   Ar  213   3.268   2.203   2.064
    1   AR   Ar  214   4.056   2.736   2.606
    1   AR   Ar  215   5.846   1.986   1.446
    1   AR   Ar  216   7.079   3.937   1.018
    1   AR   Ar  217   4.610   2.689   4.021
    1   AR   Ar  218   4.439   3.272   5.117
    1   AR   Ar  219   5.317   1.908   3.707
    1   AR   Ar  220   4.939   3.486   2.355
    1   AR   Ar  221   6.057   0.430   5.425
    1   AR   Ar  222   5.098   1.591   6.797
    1   AR   Ar  223   0.432   0.853   7.086
    1   AR   Ar  224   4.875   3.028   6.256
    1   AR   Ar  225   5.849   4.291   1.269
    1   AR   Ar  226   3.970   4.385   2.257
    1   AR   Ar  227   0.315   5.014   0.324
    1   AR   Ar  228   5.260   6.535   1.209
    1   AR   Ar  229   5.455   3.964  -0.325
    1   AR   Ar  230   4.336   4.361   3.451
    1   AR   Ar  231   5.926   1.671   2.969
    1   AR   Ar  232   4.422   2.900   0.680
    1   AR   Ar  233   6.327   2.377   3.615
    1   AR   Ar  234   6.738   2.697   4.698
    1   AR   Ar  235   0.198   2.411   3.894
    1   AR   Ar  236   5.692   4.740   4.847
    1   AR   Ar  237   5.532   3.571   5.254
    1   AR   Ar  238   4.746   4.371   5.634
    1   AR   Ar  239   6.771   3.803   9.503
    1   AR   Ar  240   6.572   3.175   5.818
    1   AR   Ar  241   0.731   6.711  -1.040
    1   AR   Ar  242   5.245   4.514   0.527
    1   AR   Ar  243   5.496   4.312   2.514
    1   AR   Ar  244   1.021   5.369  -0.530
    1   AR   Ar  245   5.535   0.387   1.015
    1   AR   Ar  246   6.533   5.796   1.208
    1   AR   Ar  247   4.633   3.976   1.264
    1   AR   Ar  248   5.298   5.593  -0.285
    1   AR   Ar  249   4.182   5.545   2.269
    1   AR   Ar  250   4.933   6.275   4.573
    1   AR   Ar  251   5.717   5.310   3.991
    1   AR   Ar  252   5.078   5.789   3.188
    1   AR   Ar  253   5.677   3.653   6.282
    1   AR   Ar  254   3.094   5.693   8.323
    1   AR   Ar  255   4.525   2.638   7.362
    1   AR   Ar  256   6.551   6.093   3.483
    7.12000  7.12000 12.00000
Argon-slab step 2670
  256
    1   AR   Ar    1   6.550   1.639  -0.772
    1   AR   Ar    2   6.565   0.046   0.765
    1   AR   Ar    3   1.196   0.753   0.468
    1   AR   Ar    4   1.413   0.407  -0.620
    1   AR   Ar    5   6.937   6.297   0.233
    1   AR   Ar    6   6.776   0.843   2.895
    1   AR   Ar    7   6.462   4.149   3.268
    1   AR   Ar    8   6.558   0.145   1.818
    1   AR   Ar    9   0.630   0.417   3.350
    1   AR   Ar   10   0.922   1.465   4.168
    1   AR   Ar   11   1.997   7.062   4.988
    1   AR   Ar   12   1.078   1.357   2.879
    1   AR   Ar   13   6.446   1.325   5.122
    1   AR   Ar   14   1.591   1.508   7.575
    1   AR   Ar   15   6.522   0.520   9.785
    1   AR   Ar   16   1.254   0.512   4.767
    1   AR   Ar   17   0.118   2.098   0.067
    1   AR   Ar   18   5.697   2.904  -0.594
    1   AR   Ar   19   1.596   2.853   1.487
    1   AR   Ar   20   5.075   4.719  -2.166
    1   AR   Ar   21   5.935   1.167   2.068
    1   AR   Ar   22   6.883   1.719   2.044
    1   AR   Ar   23   0.074   0.691  -0.129
    1   AR   Ar   24   0.218   2.105   1.236
    1   AR   Ar   25   6.972   1.353   3.888
    1   AR   Ar   26   5.811   1.140   4.348
    1   AR   Ar   27   1.872   1.473   3.621
    1   AR   Ar   28   1.496   2.578   4.573
    1   AR   Ar   29   5.817   2.425   6.673
    1   AR   Ar   30   1.659   1.693   5.465
    1   AR   Ar   31   0.837   6.738   7.713
    1   AR   Ar   32   1.637   2.701   6.031
    1   AR   Ar   33   1.120   3.583  -0.385
    1   AR   Ar   34   0.136   5.212   2.883
    1   AR   Ar   35   6.499   4.994   2.057
    1   AR   Ar   36   0.080   0.576  -3.553
    1   AR   Ar   37   6.328   2.744   2.568
    1   AR   Ar   38   0.110   4.061   2.405
    1   AR   Ar   39   1.574   3.200   3.027
    1   AR   Ar   40   1.228   3.931   1.214
    1   AR   Ar   41   0.258   3.400   3.388
    1   AR   Ar   42   6.787   5.779   5.149
    1   AR   Ar   43   6.809   2.184   6.275
    1   AR   Ar   44   0.730   4.467   3.278
    1   AR   Ar   45   0.469   2.872   5.351
    1   AR   Ar   46   1.009   5.961   6.070
    1   AR   Ar   47   6.172   3.385   7.433
    1   AR   Ar   48   0.598   6.735   6.647
    1   AR   Ar   49   6.364   7.108  -2.016
    1   AR   Ar   50   5.425   5.393   1.568
    1   AR   Ar   51   0.694   5.221   2.078
    1   AR   Ar   52   5.568   4.851  -0.917
    1   AR   Ar   53   5.219   6.235   2.280
    1   AR   Ar   54   6.389   6.115   2.341
    1   AR   Ar   55   5.978   5.297   2.945
    1   AR   Ar   56   0.742   7.007   0.874
    1   AR   Ar   57   5.376   2.894   3.119
    1   AR   Ar   58   6.807   5.130   3.820
    1   AR   Ar   59   1.709   5.529   5.130
    1   AR   Ar   60   0.654   6.649   4.098
    1   AR   Ar   61   6.296   4.228   5.541
    1   AR   Ar   62   0.614   5.317   5.203
    1   AR   Ar   63   2.783   6.728   7.019
    1   AR   Ar   64   0.988   6.443   5.214
    1   AR   Ar   65   3.475   0.039   0.790
    1   AR   Ar   66   0.819   1.334   1.855
    1   AR   Ar   67   2.990   6.296  -1.288
    1   AR   Ar   68   3.298   1.612  -1.169
    1   AR   Ar   69   2.755   1.575   0.900
    1   AR   Ar   70   0.581   6.805   2.274
    1   AR   Ar   71   3.009   1.909   3.872
    1   AR   Ar   72   3.353   1.015   1.567
    1   AR   Ar   73   2.733   7.107   3.630
    1   AR   Ar   74   2.654   1.172   4.962
    1   AR   Ar   75   3.576   1.519   4.743
    1   AR   Ar   76   1.582   0.379   1.769
    1   AR   Ar   77   2.393   6.664   5.912
    1   AR   Ar   78   1.869   0.550   7.349
    1   AR   Ar   79   3.754   6.936   6.458
    1   AR   Ar   80   3.608   5.293   5.773
    1   AR   Ar   81   2.411   0.844   0.312
    1   AR   Ar   82   0.105   5.960  -0.895
    1   AR   Ar   83   1.260   1.903   0.723
    1   AR   Ar   84   0.069   3.893  -0.094
    1   AR   Ar   85   0.622   2.921   0.938
    1   AR   Ar   86   2.170   3.452   0.664
    1   AR   Ar   87   2.159   1.871   1.630
    1   AR   Ar   88   2.794   4.347   2.106
    1   AR   Ar   89   0.110   2.974   2.200
    1   AR   Ar   90   2.493   2.613   4.989
    1   AR   Ar   91   1.189   2.362   3.359
    1   AR   Ar   92   1.119   2.427   2.284
    1   AR   Ar   93   2.076   0.629   5.771
    1   AR   Ar   94   1.328   7.060   9.806
    1   AR   Ar   95   4.192   0.688   6.023
    1   AR   Ar   96   3.107   0.181   4.956
    1   AR   Ar   97   4.887   1.779  -0.423
    1   AR   Ar   98   2.071   4.959   2.754
    1   AR   Ar   99   6.637   2.471  -1.480
    1   AR   Ar  100   2.390   2.384   0.449
    1   AR   Ar  101   2.272   4.317   1.149
    1   AR   Ar  102   3.647   2.825   3.807
    1   AR   Ar  103   1.242   4.413   0.242
    1   AR   Ar  104   2.948   2.663  -1.744
    1   AR   Ar  105   2.233   3.232   4.125
    1   AR   Ar  106   3.158   3.456   4.697
    1   AR   Ar  107   1.493   3.921   5.007
    1   AR   Ar  108   3.600   2.466   5.149
    1   AR   Ar  109   1.303   3.713   3.973
    1   AR   Ar  110   0.882   4.816   6.015
    1   AR   Ar  111   5.094   3.869   7.119
    1   AR   Ar  112   1.874   5.405   6.964
    1   AR   Ar  113   2.267   4.764   0.155
    1   AR   Ar  114   2.459   5.579  -0.571
    1   AR   Ar  115   2.935   4.266  -0.631
    1   AR   Ar  116   5.848   5.835  -1.754
    1   AR   Ar  117   0.706   5.451   4.048
    1   AR   Ar  118   0.917   5.979   3.127
    1   AR   Ar  119   1.870   3.766   2.165
    1   AR   Ar  120   2.046   5.959   2.267
    1   AR   Ar  121   6.277   3.936   4.254
    1   AR   Ar  122   2.677   5.943   5.066
    1   AR   Ar  123   3.078   4.754   4.851
    1   AR   Ar  124   1.550   4.868   1.646
    1   AR   Ar  125   0.384   3.892   5.586
    1   AR   Ar  126   7.046   6.803   4.925
    1   AR   Ar  127   3.317   4.056   6.888
    1   AR   Ar  128   2.547   5.713   6.194
    1   AR   Ar  129   1.818   7.049   3.091
    1   AR   Ar  130   4.439   2.022  -1.368
    1   AR   Ar  131   4.150   0.706  -0.365
    1   AR   Ar  132   1.059   1.515  -1.170
    1   AR   Ar  133   4.223   0.139   2.688
    1   AR   Ar  134   4.757   0.992   3.910
    1   AR   Ar  135   5.299   0.781   2.994
    1   AR   Ar  136   5.046   0.253   1.910
    1   AR   Ar  137   2.347   5.854   3.796
    1   AR   Ar  138   5.028   1.830   4.711
    1   AR   Ar  139   5.317   2.603   5.370
    1   AR   Ar  140   4.280   7.045   4.492
    1   AR   Ar  141   3.862   6.008   4.603
    1   AR   Ar  142   3.808   6.520   5.472
    1   AR   Ar  143   6.839   6.593   5.850
    1   AR   Ar  144   5.496   1.247   5.906
    1   AR   Ar  145   3.606   4.013   0.177
    1   AR   Ar  146   4.313   2.481   1.649
    1   AR   Ar  147   5.739   1.854  -2.101
    1   AR   Ar  148   3.974   4.386  -1.629
    1   AR   Ar  149   3.658   2.193   0.683
    1   AR   Ar  150   2.465   1.753   2.662
    1   AR   Ar  151   2.709   2.718   3.077
    1   AR   Ar  152   3.379   3.050   0.263
    1   AR   Ar  153   3.643   0.811   3.986
    1   AR   Ar  154   4.350   1.945   3.359
    1   AR   Ar  155   6.464   0.161   6.628
    1   AR   Ar  156   4.142   4.073   4.456
    1   AR   Ar  157   2.731   3.180   6.011
    1   AR   Ar  158   1.351   3.972   6.440
    1   AR   Ar  159   4.522   2.084   5.581
    1   AR   Ar  160   2.861   1.859   5.765
    1   AR   Ar  161   5.689   3.007   1.668
    1   AR   Ar  162   4.505   6.041  -0.784
    1   AR   Ar  163   5.447   3.198   0.435
    1   AR   Ar  164   2.974   5.772   1.966
    1   AR   Ar  165   3.733   3.262   1.505
    1   AR   Ar  166   3.042   4.094   3.903
    1   AR   Ar  167   4.001   1.337   2.589
    1   AR   Ar  168   4.379   3.196  -0.274
    1   AR   Ar  169   2.665   2.902   1.651
    1   AR   Ar  170   2.591   4.045   5.441
    1   AR   Ar  171   5.360   4.166   3.646
    1   AR   Ar  172   4.638   5.002   4.564
    1   AR   Ar  173   2.116   3.372   7.084
    1   AR   Ar  174   2.803   4.927   7.294
    1   AR   Ar  175   3.533   2.506   6.228
    1   AR   Ar  176   3.754   3.558   5.823
    1   AR   Ar  177   6.287   4.613  -0.160
    1   AR   Ar  178   3.192   5.601   0.253
    1   AR   Ar  179   4.684   5.376   0.663
    1   AR   Ar  180   1.667   2.336  -1.931
    1   AR   Ar  181   0.783   5.922   1.248
    1   AR   Ar  182   3.191   0.745   2.826
    1   AR   Ar  183   3.202   5.153   2.981
    1   AR   Ar  184   3.987   6.326   1.517
    1   AR   Ar  185   1.616   4.677   4.351
    1   AR   Ar  186   3.784   5.088   4.069
    1   AR   Ar  187   3.634   6.136   3.457
    1   AR   Ar  188   2.961   7.002   2.134
    1   AR   Ar  189   3.328   2.289   7.784
    1   AR   Ar  190   5.026   6.721   5.546
    1   AR   Ar  191   4.378   4.885   6.544
    1   AR   Ar  192   4.572   5.761   5.571
    1   AR   Ar  193   0.959   6.279   0.046
    1   AR   Ar  194   4.912   3.612  -1.164
    1   AR   Ar  195   6.153   0.920  -0.089
    1   AR   Ar  196   4.887   7.076  -0.435
    1   AR   Ar  197   5.179   1.296   0.849
    1   AR   Ar  198   6.923   1.165   1.006
    1   AR   Ar  199   4.901   1.555   2.268
    1   AR   Ar  200   5.884   2.049  -0.057
    1   AR   Ar  201   4.603   6.874   3.597
    1   AR   Ar  202   5.615   2.742   4.345
    1   AR   Ar  203   6.176   6.274   4.523
    1   AR   Ar  204   5.492   7.086   4.588
    1   AR   Ar  205   5.908   6.993   3.071
    1   AR   Ar  206   4.982   0.900   5.120
    1   AR   Ar  207   0.623   0.949   5.953
    1   AR   Ar  208   7.006   6.914   3.090
    1   AR   Ar  209   5.786   2.984  -1.622
    1   AR   Ar  210   3.734   1.082   0.631
    1   AR   Ar  211   6.642   3.079   0.573
    1   AR   Ar  212   6.323   4.037  -1.072
    1   AR   Ar  213   3.266   2.182   2.110
    1   AR   Ar  214   4.066   2.734   2.605
    1   AR   Ar  215   5.861   1.972   1.456
    1   AR   Ar  216   7.095   3.942   1.063
    1   AR   Ar  217   4.616   2.684   4.022
    1   AR   Ar  218   4.444   3.287   5.109
    1   AR   Ar  219   5.276   1.912   3.702
    1   AR   Ar  220   4.966   3.492   2.364
    1   AR   Ar  221   6.075   0.398   5.454
    1   AR   Ar  222   5.077   1.591   6.800
    1   AR   Ar  223   0.451   0.877   7.041
    1   AR   Ar  224   4.896   3.018   6.256
    1   AR   Ar  225   5.841   4.277   1.265
    1   AR   Ar  226   3.966   4.397   2.241
    1   AR   Ar  227   0.297   4.992   0.326
    1   AR   Ar  228   5.249   6.544   1.235
    1   AR   Ar  229   5.463   3.945  -0.322
    1   AR   Ar  230   4.333   4.378   3.436
    1   AR   Ar  231   5.908   1.662   2.961
    1   AR   Ar  232   4.436   2.882   0.682
    1   AR   Ar  233   6.320   2.357   3.601
    1   AR   Ar  234   6.732   2.731   4.662
    1   AR   Ar  235   0.175   2.410   3.893
    1   AR   Ar  236   5.689   4.740   4.840
    1   AR   Ar  237   5.528   3.582   5.266
    1   AR   Ar  238   4.755   4.394   5.640
    1   AR   Ar  239   6.790   3.817   9.485
    1   AR   Ar  240   6.586   3.185   5.853
    1   AR   Ar  241   0.725   6.672  -1.050
    1   AR   Ar  242   5.241   4.496   0.488
    1   AR   Ar  243   5.507   4.315   2.553
    1   AR   Ar  244   0.998   5.388  -0.536
    1   AR   Ar  245   5.554   0.363   0.980
    1   AR   Ar  246   6.496   5.765   1.225
    1   AR   Ar  247   4.597   3.969   1.277
    1   AR   Ar  248   5.271   5.581  -0.283
    1   AR   Ar  249   4.172   5.540   2.246
    1   AR   Ar  250   4.915   6.315   4.561
    1   AR   Ar  251   5.705   5.283   3.979
    1   AR   Ar  252   5.082   5.767   3.178
    1   AR   Ar  253   5.681   3.641   6.302
    1   AR   Ar  254   3.065   5.699   8.335
    1   AR   Ar  255   4.587   2.657   7.388
    1   AR   Ar  256   6.578   6.074   3.504
    7.12000  7.12000 12.00000
Argon-slab step 2675
  256
    1   AR   Ar    1   6.539   1.611  -0.802
    1   AR   Ar    2   6.561   0.064   0.793
    1   AR   Ar    3   1.195   0.787   0.484
    1   AR   Ar    4   1.401   0.417  -0.609
    1   AR   Ar    5   6.936   6.330   0.236
    1   AR   Ar    6   6.777   0.834   2.883
    1   AR   Ar    7   6.454   4.168   3.253
    1   AR   Ar    8   6.529   0.182   1.801
    1   AR   Ar    9   0.651   0.420   3.346
    1   AR   Ar   10   0.923   1.468   4.161
    1   AR   Ar   11   2.007   7.040   4.948
    1   AR   Ar   12   1.065   1.366   2.886
    1   AR   Ar   13   6.457   1.333   5.123
    1   AR   Ar   14   1.573   1.515   7.554
    1   AR   Ar   15   6.493   0.535   9.793
    1   AR   Ar   16   1.249   0.554   4.735
    1   AR   Ar   17   0.061   2.094   0.056
    1   AR   Ar   18   5.712   2.896  -0.624
    1   AR   Ar   19   1.648   2.874   1.494
    1   AR   Ar   20   5.056   4.682  -2.175
    1   AR   Ar   21   5.941   1.162   2.050
    1   AR   Ar   22   6.907   1.712   2.064
    1   AR   Ar   23   0.064   0.665  -0.142
    1   AR   Ar   24   0.199   2.098   1.234
    1   AR   Ar   25   6.946   1.336   3.879
    1   AR   Ar   26   5.814   1.155   4.348
    1   AR   Ar   27   1.858   1.467   3.637
    1   AR   Ar   28   1.481   2.608   4.563
    1   AR   Ar   29   5.855   2.426   6.668
    1   AR   Ar   30   1.658   1.688   5.448
    1   AR   Ar   31   0.863   6.753   7.730
    1   AR   Ar   32   1.618   2.712   6.016
    1   AR   Ar   33   1.120   3.608  -0.413
    1   AR   Ar   34   0.104   5.212   2.881
    1   AR   Ar   35   6.496   4.999   2.074
    1   AR   Ar   36   0.089   0.580  -3.558
    1   AR   Ar   37   6.334   2.722   2.560
    1   AR   Ar   38   0.114   4.087   2.402
    1   AR   Ar   39   1.561   3.190   3.050
    1   AR   Ar   40   1.229   3.938   1.197
    1   AR   Ar   41   0.289   3.413   3.422
    1   AR   Ar   42   6.762   5.793   5.114
    1   AR   Ar   43   6.825   2.170   6.294
    1   AR   Ar   44   0.723   4.438   3.251
    1   AR   Ar   45   0.457   2.890   5.346
    1   AR   Ar   46   1.019   5.964   6.074
    1   AR   Ar   47   6.179   3.385   7.470
    1   AR   Ar   48   0.600   6.746   6.657
    1   AR   Ar   49   6.346   0.014  -2.021
    1   AR   Ar   50   5.437   5.375   1.568
    1   AR   Ar   51   0.681   5.227   2.063
    1   AR   Ar   52   5.568   4.836  -0.915
    1   AR   Ar   53   5.232   6.252   2.302
    1   AR   Ar   54   6.397   6.126   2.319
    1   AR   Ar   55   5.983   5.303   2.922
    1   AR   Ar   56   0.707   7.028   0.853
    1   AR   Ar   57   5.379   2.900   3.112
    1   AR   Ar   58   6.801   5.113   3.813
    1   AR   Ar   59   1.689   5.549   5.130
    1   AR   Ar   60   0.657   6.641   4.082
    1   AR   Ar   61   6.340   4.226   5.550
    1   AR   Ar   62   0.624   5.312   5.169
    1   AR   Ar   63   2.783   6.752   7.018
    1   AR   Ar   64   0.940   6.441   5.213
    1   AR   Ar   65   3.487   0.055   0.791
    1   AR   Ar   66   0.818   1.358   1.840
    1   AR   Ar   67   3.002   6.275  -1.278
    1   AR   Ar   68   3.291   1.632  -1.154
    1   AR   Ar   69   2.715   1.577   0.902
    1   AR   Ar   70   0.585   6.794   2.280
    1   AR   Ar   71   2.990   1.937   3.884
    1   AR   Ar   72   3.334   0.986   1.551
    1   AR   Ar   73   2.744   0.023   3.647
    1   AR   Ar   74   2.632   1.155   4.920
    1   AR   Ar   75   3.608   1.502   4.716
    1   AR   Ar   76   1.566   0.386   1.781
    1   AR   Ar   77   2.399   6.654   5.924
    1   AR   Ar   78   1.871   0.564   7.326
    1   AR   Ar   79   3.768   6.922   6.458
    1   AR   Ar   80   3.603   5.279   5.751
    1   AR   Ar   81   2.407   0.860   0.265
    1   AR   Ar   82   0.137   5.965  -0.891
    1   AR   Ar   83   1.239   1.856   0.726
    1   AR   Ar   84   0.068   3.900  -0.109
    1   AR   Ar   85   0.599   2.929   0.940
    1   AR   Ar   86   2.163   3.406   0.656
    1   AR   Ar   87   2.109   1.886   1.621
    1   AR   Ar   88   2.763   4.364   2.110
    1   AR   Ar   89   0.132   2.981   2.190
    1   AR   Ar   90   2.496   2.610   4.980
    1   AR   Ar   91   1.191   2.339   3.375
    1   AR   Ar   92   1.141   2.401   2.299
    1   AR   Ar   93   2.065   0.597   5.768
    1   AR   Ar   94   1.346   7.047   9.813
    1   AR   Ar   95   4.169   0.676   6.024
    1   AR   Ar   96   3.104   0.185   4.952
    1   AR   Ar   97   4.872   1.774  -0.413
    1   AR   Ar   98   2.041   4.999   2.734
    1   AR   Ar   99   6.626   2.486  -1.482
    1   AR   Ar  100   2.410   2.390   0.474
    1   AR   Ar  101   2.292   4.317   1.148
    1   AR   Ar  102   3.619   2.815   3.825
    1   AR   Ar  103   1.221   4.423   0.258
    1   AR   Ar  104   2.951   2.652  -1.735
    1   AR   Ar  105   2.228   3.232   4.110
    1   AR   Ar  106   3.115   3.449   4.712
    1   AR   Ar  107   1.464   3.896   4.976
    1   AR   Ar  108   3.544   2.431   5.196
    1   AR   Ar  109   1.262   3.742   3.942
    1   AR   Ar  110   0.882   4.810   6.020
    1   AR   Ar  111   5.106   3.863   7.148
    1   AR   Ar  112   1.871   5.399   6.975
    1   AR   Ar  113   2.256   4.781   0.159
    1   AR   Ar  114   2.448   5.610  -0.596
    1   AR   Ar  115   2.942   4.299  -0.612
    1   AR   Ar  116   5.902   5.844  -1.750
    1   AR   Ar  117   0.706   5.462   4.065
    1   AR   Ar  118   0.917   5.956   3.099
    1   AR   Ar  119   1.872   3.774   2.182
    1   AR   Ar  120   2.061   5.982   2.261
    1   AR   Ar  121   6.298   3.944   4.284
    1   AR   Ar  122   2.670   5.949   5.073
    1   AR   Ar  123   3.100   4.723   4.882
    1   AR   Ar  124   1.554   4.889   1.628
    1   AR   Ar  125   0.384   3.862   5.591
    1   AR   Ar  126   7.064   6.804   4.920
    1   AR   Ar  127   3.296   4.054   6.882
    1   AR   Ar  128   2.542   5.725   6.202
    1   AR   Ar  129   1.793   7.076   3.109
    1   AR   Ar  130   4.494   2.025  -1.350
    1   AR   Ar  131   4.141   0.697  -0.374
    1   AR   Ar  132   1.036   1.504  -1.162
    1   AR   Ar  133   4.227   0.091   2.670
    1   AR   Ar  134   4.746   0.985   3.909
    1   AR   Ar  135   5.295   0.770   2.991
    1   AR   Ar  136   5.064   0.240   1.930
    1   AR   Ar  137   2.317   5.839   3.796
    1   AR   Ar  138   5.013   1.828   4.693
    1   AR   Ar  139   5.332   2.601   5.378
    1   AR   Ar  140   4.249   7.028   4.494
    1   AR   Ar  141   3.871   5.973   4.593
    1   AR   Ar  142   3.783   6.476   5.473
    1   AR   Ar  143   6.872   6.581   5.849
    1   AR   Ar  144   5.491   1.245   5.890
    1   AR   Ar  145   3.635   4.043   0.188
    1   AR   Ar  146   4.322   2.455   1.629
    1   AR   Ar  147   5.752   1.875  -2.097
    1   AR   Ar  148   3.957   4.358  -1.610
    1   AR   Ar  149   3.659   2.156   0.667
    1   AR   Ar  150   2.461   1.759   2.665
    1   AR   Ar  151   2.739   2.715   3.089
    1   AR   Ar  152   3.368   3.075   0.254
    1   AR   Ar  153   3.699   0.813   3.941
    1   AR   Ar  154   4.322   1.941   3.366
    1   AR   Ar  155   6.448   0.144   6.614
    1   AR   Ar  156   4.160   4.066   4.454
    1   AR   Ar  157   2.734   3.160   5.989
    1   AR   Ar  158   1.337   3.983   6.464
    1   AR   Ar  159   4.473   2.087   5.596
    1   AR   Ar  160   2.832   1.861   5.745
    1   AR   Ar  161   5.642   3.019   1.644
    1   AR   Ar  162   4.503   6.044  -0.783
    1   AR   Ar  163   5.482   3.202   0.450
    1   AR   Ar  164   2.972   5.764   1.983
    1   AR   Ar  165   3.712   3.271   1.537
    1   AR   Ar  166   3.039   4.059   3.935
    1   AR   Ar  167   3.991   1.352   2.603
    1   AR   Ar  168   4.404   3.195  -0.272
    1   AR   Ar  169   2.663   2.907   1.651
    1   AR   Ar  170   2.579   4.073   5.451
    1   AR   Ar  171   5.357   4.176   3.614
    1   AR   Ar  172   4.662   4.997   4.571
    1   AR   Ar  173   2.128   3.409   7.117
    1   AR   Ar  174   2.769   4.922   7.282
    1   AR   Ar  175   3.519   2.492   6.222
    1   AR   Ar  176   3.769   3.548   5.844
    1   AR   Ar  177   6.268   4.622  -0.155
    1   AR   Ar  178   3.194   5.594   0.251
    1   AR   Ar  179   4.690   5.367   0.678
    1   AR   Ar  180   1.662   2.318  -1.956
    1   AR   Ar  181   0.792   5.915   1.245
    1   AR   Ar  182   3.173   0.731   2.855
    1   AR   Ar  183   3.218   5.161   2.986
    1   AR   Ar  184   3.996   6.311   1.512
    1   AR   Ar  185   1.614   4.707   4.359
    1   AR   Ar  186   3.800   5.072   4.090
    1   AR   Ar  187   3.639   6.141   3.454
    1   AR   Ar  188   2.968   6.985   2.145
    1   AR   Ar  189   3.362   2.294   7.785
    1   AR   Ar  190   5.027   6.737   5.557
    1   AR   Ar  191   4.352   4.888   6.560
    1   AR   Ar  192   4.600   5.773   5.558
    1   AR   Ar  193   0.989   6.286   0.082
    1   AR   Ar  194   4.909   3.604  -1.164
    1   AR   Ar  195   6.152   0.938  -0.089
    1   AR   Ar  196   4.895   7.064  -0.441
    1   AR   Ar  197   5.161   1.293   0.817
    1   AR   Ar  198   6.936   1.163   0.969
    1   AR   Ar  199   4.913   1.564   2.310
    1   AR   Ar  200   5.910   2.018  -0.008
    1   AR   Ar  201   4.585   6.833   3.634
    1   AR   Ar  202   5.631   2.695   4.362
    1   AR   Ar  203   6.164   6.312   4.540
    1   AR   Ar  204   5.471   7.100   4.591
    1   AR   Ar  205   5.930   7.003   3.075
    1   AR   Ar  206   4.954   0.899   5.122
    1   AR   Ar  207   0.629   0.989   5.973
    1   AR   Ar  208   7.027   6.912   3.119
    1   AR   Ar  209   5.788   2.999  -1.617
    1   AR   Ar  210   3.733   1.051   0.615
    1   AR   Ar  211   6.633   3.066   0.577
    1   AR   Ar  212   6.305   4.039  -1.039
    1   AR   Ar  213   3.269   2.158   2.156
    1   AR   Ar  214   4.075   2.734   2.611
    1   AR   Ar  215   5.876   1.962   1.462
    1   AR   Ar  216   7.113   3.947   1.109
    1   AR   Ar  217   4.627   2.683   4.030
    1   AR   Ar  218   4.454   3.298   5.100
    1   AR   Ar  219   5.244   1.918   3.701
    1   AR   Ar  220   4.984   3.492   2.369
    1   AR   Ar  221   6.092   0.362   5.483
    1   AR   Ar  222   5.055   1.593   6.804
    1   AR   Ar  223   0.469   0.900   6.997
    1   AR   Ar  224   4.909   3.003   6.257
    1   AR   Ar  225   5.838   4.262   1.269
    1   AR   Ar  226   3.962   4.410   2.226
    1   AR   Ar  227   0.277   4.970   0.329
    1   AR   Ar  228   5.237   6.545   1.262
    1   AR   Ar  229   5.467   3.919  -0.332
    1   AR   Ar  230   4.329   4.394   3.419
    1   AR   Ar  231   5.894   1.652   2.947
    1   AR   Ar  232   4.461   2.880   0.682
    1   AR   Ar  233   6.315   2.320   3.583
    1   AR   Ar  234   6.719   2.769   4.632
    1   AR   Ar  235   0.156   2.398   3.892
    1   AR   Ar  236   5.685   4.737   4.836
    1   AR   Ar  237   5.522   3.599   5.272
    1   AR   Ar  238   4.766   4.416   5.644
    1   AR   Ar  239   6.797   3.842   9.460
    1   AR   Ar  240   6.604   3.191   5.893
    1   AR   Ar  241   0.734   6.648  -1.062
    1   AR   Ar  242   5.233   4.483   0.449
    1   AR   Ar  243   5.523   4.327   2.594
    1   AR   Ar  244   0.988   5.415  -0.552
    1   AR   Ar  245   5.578   0.340   0.944
    1   AR   Ar  246   6.459   5.734   1.243
    1   AR   Ar  247   4.563   3.962   1.290
    1   AR   Ar  248   5.247   5.570  -0.272
    1   AR   Ar  249   4.172   5.536   2.226
    1   AR   Ar  250   4.899   6.326   4.547
    1   AR   Ar  251   5.692   5.258   3.962
    1   AR   Ar  252   5.081   5.746   3.175
    1   AR   Ar  253   5.681   3.666   6.309
    1   AR   Ar  254   3.035   5.705   8.345
    1   AR   Ar  255   4.651   2.676   7.412
    1   AR   Ar  256   6.602   6.055   3.523
    7.12000  7.12000 12.00000
Argon-slab step 2680
  256
    1   AR   Ar    1   6.530   1.585  -0.835
    1   AR   Ar    2   6.563   0.082   0.814
    1   AR   Ar    3   1.195   0.822   0.500
    1   AR   Ar    4   1.387   0.428  -0.596
    1   AR   Ar    5   6.938   6.361   0.237
    1   AR   Ar    6   6.776   0.826   2.869
    1   AR   Ar    7   6.447   4.189   3.234
    1   AR   Ar    8   6.500   0.220   1.793
    1   AR   Ar    9   0.678   0.429   3.343
    1   AR   Ar   10   0.922   1.471   4.153
    1   AR   Ar   11   2.030   7.006   4.877
    1   AR   Ar   12   1.052   1.375   2.893
    1   AR   Ar   13   6.472   1.343   5.127
    1   AR   Ar   14   1.553   1.527   7.534
    1   AR   Ar   15   6.465   0.549   9.801
    1   AR   Ar   16   1.238   0.601   4.702
    1   AR   Ar   17   0.004   2.090   0.046
    1   AR   Ar   18   5.728   2.875  -0.640
    1   AR   Ar   19   1.695   2.897   1.498
    1   AR   Ar   20   5.037   4.645  -2.182
    1   AR   Ar   21   5.937   1.154   2.043
    1   AR   Ar   22   6.926   1.702   2.092
    1   AR   Ar   23   0.069   0.664  -0.155
    1   AR   Ar   24   0.179   2.084   1.231
    1   AR   Ar   25   6.919   1.320   3.869
    1   AR   Ar   26   5.813   1.167   4.342
    1   AR   Ar   27   1.847   1.461   3.652
    1   AR   Ar   28   1.462   2.638   4.553
    1   AR   Ar   29   5.890   2.429   6.662
    1   AR   Ar   30   1.657   1.682   5.430
    1   AR   Ar   31   0.890   6.768   7.747
    1   AR   Ar   32   1.629   2.706   6.019
    1   AR   Ar   33   1.120   3.631  -0.440
    1   AR   Ar   34   0.065   5.215   2.881
    1   AR   Ar   35   6.493   5.002   2.087
    1   AR   Ar   36   0.099   0.583  -3.562
    1   AR   Ar   37   6.335   2.698   2.553
    1   AR   Ar   38   0.112   4.120   2.410
    1   AR   Ar   39   1.552   3.190   3.070
    1   AR   Ar   40   1.230   3.941   1.183
    1   AR   Ar   41   0.324   3.425   3.456
    1   AR   Ar   42   6.745   5.798   5.085
    1   AR   Ar   43   6.843   2.156   6.312
    1   AR   Ar   44   0.718   4.409   3.226
    1   AR   Ar   45   0.447   2.899   5.338
    1   AR   Ar   46   1.011   5.913   6.059
    1   AR   Ar   47   6.187   3.385   7.505
    1   AR   Ar   48   0.601   6.756   6.665
    1   AR   Ar   49   6.328   0.040  -2.026
    1   AR   Ar   50   5.448   5.355   1.578
    1   AR   Ar   51   0.668   5.233   2.045
    1   AR   Ar   52   5.567   4.818  -0.921
    1   AR   Ar   53   5.247   6.271   2.320
    1   AR   Ar   54   6.405   6.139   2.298
    1   AR   Ar   55   5.991   5.307   2.902
    1   AR   Ar   56   0.699   7.055   0.821
    1   AR   Ar   57   5.400   2.908   3.107
    1   AR   Ar   58   6.794   5.087   3.813
    1   AR   Ar   59   1.666   5.569   5.131
    1   AR   Ar   60   0.659   6.631   4.065
    1   AR   Ar   61   6.386   4.224   5.560
    1   AR   Ar   62   0.625   5.317   5.127
    1   AR   Ar   63   2.782   6.776   7.016
    1   AR   Ar   64   0.891   6.445   5.202
    1   AR   Ar   65   3.498   0.066   0.795
    1   AR   Ar   66   0.824   1.388   1.813
    1   AR   Ar   67   2.995   6.258  -1.269
    1   AR   Ar   68   3.285   1.653  -1.138
    1   AR   Ar   69   2.690   1.570   0.907
    1   AR   Ar   70   0.590   6.783   2.285
    1   AR   Ar   71   2.962   1.961   3.898
    1   AR   Ar   72   3.313   0.956   1.544
    1   AR   Ar   73   2.759   0.059   3.665
    1   AR   Ar   74   2.605   1.139   4.877
    1   AR   Ar   75   3.643   1.487   4.690
    1   AR   Ar   76   1.550   0.394   1.792
    1   AR   Ar   77   2.404   6.656   5.931
    1   AR   Ar   78   1.874   0.571   7.301
    1   AR   Ar   79   3.780   6.905   6.459
    1   AR   Ar   80   3.598   5.266   5.728
    1   AR   Ar   81   2.400   0.871   0.213
    1   AR   Ar   82   0.146   5.947  -0.880
    1   AR   Ar   83   1.219   1.812   0.731
    1   AR   Ar   84   0.066   3.908  -0.124
    1   AR   Ar   85   0.590   2.954   0.918
    1   AR   Ar   86   2.156   3.360   0.647
    1   AR   Ar   87   2.053   1.905   1.620
    1   AR   Ar   88   2.735   4.382   2.115
    1   AR   Ar   89   0.137   2.996   2.190
    1   AR   Ar   90   2.498   2.606   4.972
    1   AR   Ar   91   1.189   2.307   3.399
    1   AR   Ar   92   1.162   2.373   2.314
    1   AR   Ar   93   2.062   0.618   5.757
    1   AR   Ar   94   1.352   7.046   9.826
    1   AR   Ar   95   4.149   0.668   6.022
    1   AR   Ar   96   3.099   0.166   4.972
    1   AR   Ar   97   4.859   1.767  -0.398
    1   AR   Ar   98   2.055   5.033   2.738
    1   AR   Ar   99   6.623   2.495  -1.481
    1   AR   Ar  100   2.426   2.408   0.494
    1   AR   Ar  101   2.314   4.318   1.147
    1   AR   Ar  102   3.587   2.807   3.843
    1   AR   Ar  103   1.199   4.435   0.273
    1   AR   Ar  104   2.957   2.644  -1.724
    1   AR   Ar  105   2.223   3.233   4.092
    1   AR   Ar  106   3.077   3.436   4.735
    1   AR   Ar  107   1.434   3.865   4.951
    1   AR   Ar  108   3.491   2.402   5.236
    1   AR   Ar  109   1.219   3.769   3.909
    1   AR   Ar  110   0.882   4.805   6.029
    1   AR   Ar  111   5.115   3.857   7.179
    1   AR   Ar  112   1.864   5.394   6.987
    1   AR   Ar  113   2.246   4.798   0.162
    1   AR   Ar  114   2.437   5.640  -0.620
    1   AR   Ar  115   2.918   4.311  -0.629
    1   AR   Ar  116   5.957   5.852  -1.744
    1   AR   Ar  117   0.707   5.473   4.082
    1   AR   Ar  118   0.917   5.934   3.069
    1   AR   Ar  119   1.872   3.782   2.197
    1   AR   Ar  120   2.063   6.009   2.260
    1   AR   Ar  121   6.317   3.951   4.316
    1   AR   Ar  122   2.668   5.956   5.080
    1   AR   Ar  123   3.126   4.697   4.913
    1   AR   Ar  124   1.561   4.911   1.611
    1   AR   Ar  125   0.384   3.841   5.597
    1   AR   Ar  126   7.095   6.794   4.919
    1   AR   Ar  127   3.275   4.048   6.862
    1   AR   Ar  128   2.542   5.725   6.211
    1   AR   Ar  129   1.766   7.103   3.126
    1   AR   Ar  130   4.548   2.028  -1.335
    1   AR   Ar  131   4.131   0.690  -0.382
    1   AR   Ar  132   1.014   1.493  -1.153
    1   AR   Ar  133   4.230   0.045   2.652
    1   AR   Ar  134   4.726   0.999   3.923
    1   AR   Ar  135   5.289   0.758   2.986
    1   AR   Ar  136   5.084   0.229   1.953
    1   AR   Ar  137   2.288   5.824   3.796
    1   AR   Ar  138   4.983   1.850   4.677
    1   AR   Ar  139   5.351   2.595   5.386
    1   AR   Ar  140   4.196   7.031   4.518
    1   AR   Ar  141   3.879   5.939   4.581
    1   AR   Ar  142   3.756   6.436   5.477
    1   AR   Ar  143   6.893   6.581   5.853
    1   AR   Ar  144   5.492   1.247   5.878
    1   AR   Ar  145   3.668   4.080   0.201
    1   AR   Ar  146   4.336   2.421   1.611
    1   AR   Ar  147   5.765   1.898  -2.091
    1   AR   Ar  148   3.941   4.330  -1.590
    1   AR   Ar  149   3.660   2.116   0.653
    1   AR   Ar  150   2.453   1.762   2.671
    1   AR   Ar  151   2.770   2.714   3.102
    1   AR   Ar  152   3.360   3.084   0.253
    1   AR   Ar  153   3.752   0.811   3.892
    1   AR   Ar  154   4.274   1.932   3.383
    1   AR   Ar  155   6.433   0.127   6.600
    1   AR   Ar  156   4.174   4.060   4.451
    1   AR   Ar  157   2.719   3.138   5.976
    1   AR   Ar  158   1.326   3.990   6.489
    1   AR   Ar  159   4.434   2.084   5.619
    1   AR   Ar  160   2.799   1.860   5.723
    1   AR   Ar  161   5.595   3.033   1.617
    1   AR   Ar  162   4.497   6.050  -0.786
    1   AR   Ar  163   5.517   3.205   0.466
    1   AR   Ar  164   2.985   5.752   1.996
    1   AR   Ar  165   3.703   3.290   1.551
    1   AR   Ar  166   3.037   4.031   3.959
    1   AR   Ar  167   3.970   1.364   2.614
    1   AR   Ar  168   4.430   3.196  -0.275
    1   AR   Ar  169   2.664   2.913   1.650
    1   AR   Ar  170   2.562   4.097   5.464
    1   AR   Ar  171   5.356   4.187   3.588
    1   AR   Ar  172   4.697   4.996   4.583
    1   AR   Ar  173   2.141   3.446   7.148
    1   AR   Ar  174   2.736   4.918   7.270
    1   AR   Ar  175   3.510   2.480   6.223
    1   AR   Ar  176   3.797   3.521   5.884
    1   AR   Ar  177   6.272   4.655  -0.141
    1   AR   Ar  178   3.197   5.587   0.249
    1   AR   Ar  179   4.694   5.361   0.695
    1   AR   Ar  180   1.657   2.301  -1.980
    1   AR   Ar  181   0.799   5.920   1.240
    1   AR   Ar  182   3.153   0.715   2.884
    1   AR   Ar  183   3.234   5.169   2.989
    1   AR   Ar  184   4.005   6.299   1.507
    1   AR   Ar  185   1.612   4.743   4.364
    1   AR   Ar  186   3.805   5.054   4.104
    1   AR   Ar  187   3.645   6.147   3.451
    1   AR   Ar  188   2.975   6.968   2.156
    1   AR   Ar  189   3.396   2.298   7.786
    1   AR   Ar  190   5.005   6.767   5.539
    1   AR   Ar  191   4.324   4.892   6.576
    1   AR   Ar  192   4.587   5.789   5.546
    1   AR   Ar  193   1.017   6.295   0.119
    1   AR   Ar  194   4.905   3.594  -1.167
    1   AR   Ar  195   6.147   0.954  -0.085
    1   AR   Ar  196   4.912   7.046  -0.451
    1   AR   Ar  197   5.143   1.295   0.784
    1   AR   Ar  198   6.948   1.157   0.932
    1   AR   Ar  199   4.935   1.577   2.349
    1   AR   Ar  200   5.935   1.988   0.044
    1   AR   Ar  201   4.577   6.788   3.649
    1   AR   Ar  202   5.651   2.650   4.379
    1   AR   Ar  203   6.145   6.354   4.548
    1   AR   Ar  204   5.457   0.013   4.594
    1   AR   Ar  205   5.952   7.010   3.078
    1   AR   Ar  206   4.920   0.888   5.118
    1   AR   Ar  207   0.636   1.028   5.987
    1   AR   Ar  208   7.044   6.907   3.145
    1   AR   Ar  209   5.780   3.020  -1.621
    1   AR   Ar  210   3.735   1.025   0.593
    1   AR   Ar  211   6.624   3.052   0.581
    1   AR   Ar  212   6.288   4.036  -1.007
    1   AR   Ar  213   3.276   2.134   2.198
    1   AR   Ar  214   4.085   2.735   2.622
    1   AR   Ar  215   5.892   1.959   1.462
    1   AR   Ar  216   0.012   3.953   1.155
    1   AR   Ar  217   4.640   2.688   4.042
    1   AR   Ar  218   4.467   3.303   5.090
    1   AR   Ar  219   5.230   1.919   3.697
    1   AR   Ar  220   4.994   3.490   2.368
    1   AR   Ar  221   6.108   0.324   5.512
    1   AR   Ar  222   5.031   1.598   6.810
    1   AR   Ar  223   0.488   0.922   6.957
    1   AR   Ar  224   4.909   2.996   6.250
    1   AR   Ar  225   5.838   4.245   1.276
    1   AR   Ar  226   3.958   4.421   2.210
    1   AR   Ar  227   0.257   4.949   0.331
    1   AR   Ar  228   5.223   6.539   1.288
    1   AR   Ar  229   5.462   3.944  -0.335
    1   AR   Ar  230   4.342   4.398   3.419
    1   AR   Ar  231   5.883   1.642   2.930
    1   AR   Ar  232   4.499   2.900   0.674
    1   AR   Ar  233   6.305   2.288   3.569
    1   AR   Ar  234   6.700   2.811   4.610
    1   AR   Ar  235   0.151   2.384   3.887
    1   AR   Ar  236   5.680   4.730   4.838
    1   AR   Ar  237   5.517   3.622   5.279
    1   AR   Ar  238   4.776   4.436   5.645
    1   AR   Ar  239   6.804   3.867   9.436
    1   AR   Ar  240   6.621   3.197   5.932
    1   AR   Ar  241   0.765   6.650  -1.079
    1   AR   Ar  242   5.221   4.475   0.414
    1   AR   Ar  243   5.544   4.345   2.631
    1   AR   Ar  244   0.987   5.446  -0.573
    1   AR   Ar  245   5.601   0.321   0.907
    1   AR   Ar  246   6.422   5.704   1.260
    1   AR   Ar  247   4.530   3.953   1.303
    1   AR   Ar  248   5.226   5.559  -0.255
    1   AR   Ar  249   4.189   5.533   2.207
    1   AR   Ar  250   4.886   6.307   4.534
    1   AR   Ar  251   5.679   5.237   3.942
    1   AR   Ar  252   5.074   5.723   3.179
    1   AR   Ar  253   5.689   3.693   6.315
    1   AR   Ar  254   3.005   5.710   8.355
    1   AR   Ar  255   4.700   2.676   7.438
    1   AR   Ar  256   6.623   6.040   3.541
    7.12000  7.12000 12.00000
Argon-slab step 2685
  256
    1   AR   Ar    1   6.522   1.560  -0.868
    1   AR   Ar    2   6.576   0.098   0.823
    1   AR   Ar    3   1.195   0.851   0.513
    1   AR   Ar    4   1.373   0.439  -0.582
    1   AR   Ar    5   6.941   6.391   0.239
    1   AR   Ar    6   6.775   0.830   2.855
    1   AR   Ar    7   6.441   4.211   3.215
    1   AR   Ar    8   6.470   0.259   1.797
    1   AR   Ar    9   0.712   0.443   3.343
    1   AR   Ar   10   0.917   1.478   4.145
    1   AR   Ar   11   2.054   6.970   4.806
    1   AR   Ar   12   1.038   1.382   2.900
    1   AR   Ar   13   6.488   1.354   5.135
    1   AR   Ar   14   1.531   1.544   7.514
    1   AR   Ar   15   6.437   0.564   9.809
    1   AR   Ar   16   1.227   0.648   4.670
    1   AR   Ar   17   7.065   2.086   0.039
    1   AR   Ar   18   5.737   2.852  -0.636
    1   AR   Ar   19   1.726   2.922   1.500
    1   AR   Ar   20   5.019   4.608  -2.188
    1   AR   Ar   21   5.919   1.150   2.051
    1   AR   Ar   22   6.940   1.690   2.126
    1   AR   Ar   23   0.081   0.681  -0.162
    1   AR   Ar   24   0.159   2.071   1.225
    1   AR   Ar   25   6.892   1.303   3.859
    1   AR   Ar   26   5.808   1.179   4.333
    1   AR   Ar   27   1.842   1.454   3.667
    1   AR   Ar   28   1.441   2.666   4.543
    1   AR   Ar   29   5.854   2.402   6.659
    1   AR   Ar   30   1.658   1.677   5.410
    1   AR   Ar   31   0.917   6.784   7.764
    1   AR   Ar   32   1.641   2.700   6.020
    1   AR   Ar   33   1.120   3.652  -0.468
    1   AR   Ar   34   0.025   5.221   2.882
    1   AR   Ar   35   6.494   5.000   2.092
    1   AR   Ar   36   0.108   0.586  -3.566
    1   AR   Ar   37   6.326   2.689   2.547
    1   AR   Ar   38   0.107   4.155   2.417
    1   AR   Ar   39   1.546   3.195   3.087
    1   AR   Ar   40   1.232   3.939   1.173
    1   AR   Ar   41   0.356   3.436   3.488
    1   AR   Ar   42   6.736   5.792   5.062
    1   AR   Ar   43   6.864   2.140   6.327
    1   AR   Ar   44   0.715   4.384   3.201
    1   AR   Ar   45   0.438   2.895   5.327
    1   AR   Ar   46   1.003   5.858   6.049
    1   AR   Ar   47   6.193   3.385   7.537
    1   AR   Ar   48   0.602   6.752   6.668
    1   AR   Ar   49   6.309   0.065  -2.031
    1   AR   Ar   50   5.433   5.345   1.590
    1   AR   Ar   51   0.653   5.238   2.027
    1   AR   Ar   52   5.561   4.808  -0.933
    1   AR   Ar   53   5.262   6.293   2.336
    1   AR   Ar   54   6.413   6.153   2.278
    1   AR   Ar   55   6.000   5.312   2.887
    1   AR   Ar   56   0.734   7.094   0.772
    1   AR   Ar   57   5.440   2.913   3.110
    1   AR   Ar   58   6.794   5.072   3.807
    1   AR   Ar   59   1.643   5.589   5.133
    1   AR   Ar   60   0.661   6.621   4.047
    1   AR   Ar   61   6.433   4.223   5.569
    1   AR   Ar   62   0.623   5.321   5.093
    1   AR   Ar   63   2.780   6.800   7.012
    1   AR   Ar   64   0.849   6.449   5.186
    1   AR   Ar   65   3.507   0.070   0.800
    1   AR   Ar   66   0.831   1.419   1.785
    1   AR   Ar   67   2.977   6.246  -1.261
    1   AR   Ar   68   3.279   1.674  -1.123
    1   AR   Ar   69   2.685   1.580   0.941
    1   AR   Ar   70   0.596   6.772   2.290
    1   AR   Ar   71   2.952   1.956   3.889
    1   AR   Ar   72   3.292   0.942   1.555
    1   AR   Ar   73   2.773   0.093   3.685
    1   AR   Ar   74   2.576   1.124   4.834
    1   AR   Ar   75   3.681   1.472   4.666
    1   AR   Ar   76   1.534   0.402   1.798
    1   AR   Ar   77   2.408   6.671   5.934
    1   AR   Ar   78   1.879   0.572   7.274
    1   AR   Ar   79   3.791   6.886   6.462
    1   AR   Ar   80   3.592   5.254   5.704
    1   AR   Ar   81   2.392   0.879   0.158
    1   AR   Ar   82   0.136   5.916  -0.864
    1   AR   Ar   83   1.198   1.776   0.740
    1   AR   Ar   84   0.065   3.908  -0.136
    1   AR   Ar   85   0.586   2.988   0.889
    1   AR   Ar   86   2.146   3.324   0.638
    1   AR   Ar   87   1.992   1.925   1.625
    1   AR   Ar   88   2.711   4.404   2.123
    1   AR   Ar   89   0.131   3.017   2.194
    1   AR   Ar   90   2.494   2.599   4.965
    1   AR   Ar   91   1.182   2.271   3.429
    1   AR   Ar   92   1.183   2.345   2.328
    1   AR   Ar   93   2.059   0.640   5.744
    1   AR   Ar   94   1.357   7.045   9.839
    1   AR   Ar   95   4.132   0.662   6.017
    1   AR   Ar   96   3.095   0.140   4.997
    1   AR   Ar   97   4.848   1.759  -0.376
    1   AR   Ar   98   2.069   5.066   2.743
    1   AR   Ar   99   6.626   2.498  -1.476
    1   AR   Ar  100   2.440   2.430   0.507
    1   AR   Ar  101   2.335   4.316   1.144
    1   AR   Ar  102   3.555   2.801   3.862
    1   AR   Ar  103   1.179   4.450   0.286
    1   AR   Ar  104   2.977   2.648  -1.706
    1   AR   Ar  105   2.219   3.234   4.072
    1   AR   Ar  106   3.045   3.417   4.770
    1   AR   Ar  107   1.406   3.831   4.930
    1   AR   Ar  108   3.444   2.381   5.261
    1   AR   Ar  109   1.179   3.796   3.879
    1   AR   Ar  110   0.881   4.802   6.036
    1   AR   Ar  111   5.122   3.849   7.212
    1   AR   Ar  112   1.852   5.391   6.996
    1   AR   Ar  113   2.237   4.816   0.165
    1   AR   Ar  114   2.424   5.666  -0.640
    1   AR   Ar  115   2.893   4.324  -0.644
    1   AR   Ar  116   6.011   5.860  -1.738
    1   AR   Ar  117   0.708   5.485   4.096
    1   AR   Ar  118   0.915   5.912   3.039
    1   AR   Ar  119   1.869   3.789   2.209
    1   AR   Ar  120   2.054   6.039   2.261
    1   AR   Ar  121   6.336   3.958   4.350
    1   AR   Ar  122   2.669   5.965   5.087
    1   AR   Ar  123   3.157   4.676   4.943
    1   AR   Ar  124   1.571   4.933   1.594
    1   AR   Ar  125   0.386   3.844   5.611
    1   AR   Ar  126   0.009   6.782   4.914
    1   AR   Ar  127   3.260   4.042   6.838
    1   AR   Ar  128   2.545   5.712   6.223
    1   AR   Ar  129   1.738   0.010   3.143
    1   AR   Ar  130   4.600   2.034  -1.326
    1   AR   Ar  131   4.120   0.685  -0.390
    1   AR   Ar  132   0.991   1.481  -1.144
    1   AR   Ar  133   4.232   0.026   2.637
    1   AR   Ar  134   4.713   1.019   3.943
    1   AR   Ar  135   5.282   0.744   2.981
    1   AR   Ar  136   5.105   0.221   1.978
    1   AR   Ar  137   2.258   5.810   3.795
    1   AR   Ar  138   4.950   1.872   4.666
    1   AR   Ar  139   5.346   2.594   5.395
    1   AR   Ar  140   4.130   7.046   4.556
    1   AR   Ar  141   3.887   5.907   4.569
    1   AR   Ar  142   3.726   6.401   5.484
    1   AR   Ar  143   6.910   6.581   5.867
    1   AR   Ar  144   5.497   1.252   5.870
    1   AR   Ar  145   3.703   4.121   0.213
    1   AR   Ar  146   4.350   2.384   1.594
    1   AR   Ar  147   5.779   1.921  -2.083
    1   AR   Ar  148   3.926   4.302  -1.569
    1   AR   Ar  149   3.661   2.076   0.641
    1   AR   Ar  150   2.439   1.761   2.681
    1   AR   Ar  151   2.800   2.714   3.114
    1   AR   Ar  152   3.377   3.054   0.285
    1   AR   Ar  153   3.793   0.805   3.840
    1   AR   Ar  154   4.221   1.926   3.403
    1   AR   Ar  155   6.418   0.112   6.585
    1   AR   Ar  156   4.184   4.054   4.446
    1   AR   Ar  157   2.699   3.115   5.963
    1   AR   Ar  158   1.317   3.993   6.514
    1   AR   Ar  159   4.418   2.076   5.650
    1   AR   Ar  160   2.757   1.853   5.705
    1   AR   Ar  161   5.549   3.046   1.589
    1   AR   Ar  162   4.486   6.058  -0.790
    1   AR   Ar  163   5.552   3.208   0.483
    1   AR   Ar  164   3.009   5.737   2.008
    1   AR   Ar  165   3.714   3.315   1.538
    1   AR   Ar  166   3.035   4.011   3.972
    1   AR   Ar  167   3.942   1.369   2.620
    1   AR   Ar  168   4.456   3.200  -0.287
    1   AR   Ar  169   2.677   2.920   1.651
    1   AR   Ar  170   2.538   4.115   5.482
    1   AR   Ar  171   5.357   4.195   3.576
    1   AR   Ar  172   4.735   4.997   4.598
    1   AR   Ar  173   2.154   3.484   7.177
    1   AR   Ar  174   2.708   4.913   7.260
    1   AR   Ar  175   3.505   2.469   6.236
    1   AR   Ar  176   3.824   3.493   5.925
    1   AR   Ar  177   6.278   4.689  -0.122
    1   AR   Ar  178   3.199   5.578   0.247
    1   AR   Ar  179   4.697   5.357   0.715
    1   AR   Ar  180   1.652   2.282  -2.003
    1   AR   Ar  181   0.806   5.935   1.234
    1   AR   Ar  182   3.133   0.700   2.913
    1   AR   Ar  183   3.250   5.176   2.993
    1   AR   Ar  184   4.013   6.290   1.499
    1   AR   Ar  185   1.611   4.781   4.367
    1   AR   Ar  186   3.802   5.030   4.109
    1   AR   Ar  187   3.651   6.153   3.450
    1   AR   Ar  188   2.984   6.950   2.168
    1   AR   Ar  189   3.431   2.303   7.785
    1   AR   Ar  190   4.997   6.799   5.512
    1   AR   Ar  191   4.296   4.894   6.591
    1   AR   Ar  192   4.564   5.812   5.533
    1   AR   Ar  193   1.044   6.302   0.154
    1   AR   Ar  194   4.901   3.585  -1.173
    1   AR   Ar  195   6.178   0.965  -0.049
    1   AR   Ar  196   4.923   7.034  -0.447
    1   AR   Ar  197   5.124   1.298   0.751
    1   AR   Ar  198   6.957   1.147   0.893
    1   AR   Ar  199   4.963   1.593   2.386
    1   AR   Ar  200   5.960   1.961   0.097
    1   AR   Ar  201   4.574   6.741   3.649
    1   AR   Ar  202   5.672   2.608   4.393
    1   AR   Ar  203   6.148   6.395   4.551
    1   AR   Ar  204   5.444   0.057   4.597
    1   AR   Ar  205   5.973   7.016   3.080
    1   AR   Ar  206   4.883   0.872   5.109
    1   AR   Ar  207   0.656   1.037   6.028
    1   AR   Ar  208   7.057   6.898   3.168
    1   AR   Ar  209   5.766   3.048  -1.636
    1   AR   Ar  210   3.740   1.008   0.566
    1   AR   Ar  211   6.616   3.038   0.586
    1   AR   Ar  212   6.273   4.029  -0.979
    1   AR   Ar  213   3.287   2.112   2.236
    1   AR   Ar  214   4.095   2.738   2.634
    1   AR   Ar  215   5.908   1.963   1.456
    1   AR   Ar  216   0.032   3.958   1.201
    1   AR   Ar  217   4.649   2.700   4.057
    1   AR   Ar  218   4.483   3.302   5.082
    1   AR   Ar  219   5.233   1.913   3.684
    1   AR   Ar  220   4.998   3.490   2.363
    1   AR   Ar  221   6.123   0.285   5.540
    1   AR   Ar  222   5.007   1.604   6.815
    1   AR   Ar  223   0.505   0.941   6.931
    1   AR   Ar  224   4.904   2.987   6.246
    1   AR   Ar  225   5.838   4.227   1.286
    1   AR   Ar  226   3.953   4.432   2.196
    1   AR   Ar  227   0.235   4.929   0.334
    1   AR   Ar  228   5.209   6.526   1.311
    1   AR   Ar  229   5.460   3.969  -0.346
    1   AR   Ar  230   4.365   4.392   3.431
    1   AR   Ar  231   5.872   1.630   2.911
    1   AR   Ar  232   4.536   2.920   0.676
    1   AR   Ar  233   6.293   2.259   3.559
    1   AR   Ar  234   6.677   2.857   4.592
    1   AR   Ar  235   0.157   2.367   3.878
    1   AR   Ar  236   5.678   4.718   4.845
    1   AR   Ar  237   5.519   3.659   5.310
    1   AR   Ar  238   4.787   4.455   5.645
    1   AR   Ar  239   6.812   3.892   9.411
    1   AR   Ar  240   6.637   3.203   5.969
    1   AR   Ar  241   0.810   6.668  -1.097
    1   AR   Ar  242   5.204   4.478   0.396
    1   AR   Ar  243   5.568   4.368   2.656
    1   AR   Ar  244   0.992   5.474  -0.591
    1   AR   Ar  245   5.618   0.306   0.871
    1   AR   Ar  246   6.411   5.688   1.273
    1   AR   Ar  247   4.499   3.945   1.315
    1   AR   Ar  248   5.210   5.547  -0.232
    1   AR   Ar  249   4.206   5.529   2.192
    1   AR   Ar  250   4.879   6.271   4.523
    1   AR   Ar  251   5.666   5.219   3.919
    1   AR   Ar  252   5.061   5.701   3.187
    1   AR   Ar  253   5.702   3.722   6.322
    1   AR   Ar  254   2.975   5.715   8.364
    1   AR   Ar  255   4.726   2.646   7.468
    1   AR   Ar  256   6.640   6.028   3.558
    7.12000  7.12000 12.00000
Argon-slab step 2690
  256
    1   AR   Ar    1   6.515   1.537  -0.901
    1   AR   Ar    2   6.603   0.112   0.821
    1   AR   Ar    3   1.198   0.864   0.520
    1   AR   Ar    4   1.357   0.450  -0.567
    1   AR   Ar    5   6.948   6.419   0.240
    1   AR   Ar    6   6.771   0.880   2.846
    1   AR   Ar    7   6.439   4.234   3.198
    1   AR   Ar    8   6.438   0.298   1.812
    1   AR   Ar    9   0.748   0.460   3.345
    1   AR   Ar   10   0.906   1.488   4.135
    1   AR   Ar   11   2.077   6.934   4.736
    1   AR   Ar   12   1.023   1.387   2.905
    1   AR   Ar   13   6.505   1.366   5.145
    1   AR   Ar   14   1.507   1.562   7.494
    1   AR   Ar   15   6.409   0.579   9.817
    1   AR   Ar   16   1.198   0.632   4.660
    1   AR   Ar   17   7.006   2.081   0.032
    1   AR   Ar   18   5.746   2.829  -0.625
    1   AR   Ar   19   1.736   2.949   1.501
    1   AR   Ar   20   4.999   4.571  -2.192
    1   AR   Ar   21   5.902   1.133   2.054
    1   AR   Ar   22   6.951   1.677   2.165
    1   AR   Ar   23   0.096   0.698  -0.166
    1   AR   Ar   24   0.140   2.064   1.216
    1   AR   Ar   25   6.864   1.287   3.850
    1   AR   Ar   26   5.800   1.191   4.321
    1   AR   Ar   27   1.836   1.450   3.664
    1   AR   Ar   28   1.417   2.694   4.534
    1   AR   Ar   29   5.815   2.376   6.655
    1   AR   Ar   30   1.659   1.672   5.389
    1   AR   Ar   31   0.944   6.801   7.779
    1   AR   Ar   32   1.654   2.694   6.020
    1   AR   Ar   33   1.120   3.674  -0.495
    1   AR   Ar   34   7.108   5.228   2.879
    1   AR   Ar   35   6.498   4.991   2.088
    1   AR   Ar   36   0.118   0.590  -3.570
    1   AR   Ar   37   6.305   2.705   2.540
    1   AR   Ar   38   0.098   4.189   2.419
    1   AR   Ar   39   1.543   3.201   3.101
    1   AR   Ar   40   1.234   3.934   1.168
    1   AR   Ar   41   0.373   3.437   3.514
    1   AR   Ar   42   6.734   5.777   5.046
    1   AR   Ar   43   6.885   2.125   6.342
    1   AR   Ar   44   0.712   4.369   3.176
    1   AR   Ar   45   0.430   2.880   5.312
    1   AR   Ar   46   0.997   5.804   6.041
    1   AR   Ar   47   6.198   3.385   7.568
    1   AR   Ar   48   0.602   6.749   6.671
    1   AR   Ar   49   6.291   0.089  -2.035
    1   AR   Ar   50   5.418   5.305   1.588
    1   AR   Ar   51   0.636   5.242   2.011
    1   AR   Ar   52   5.553   4.803  -0.950
    1   AR   Ar   53   5.279   6.314   2.354
    1   AR   Ar   54   6.445   6.157   2.273
    1   AR   Ar   55   6.008   5.322   2.881
    1   AR   Ar   56   0.763   0.009   0.728
    1   AR   Ar   57   5.480   2.916   3.118
    1   AR   Ar   58   6.802   5.077   3.792
    1   AR   Ar   59   1.621   5.611   5.135
    1   AR   Ar   60   0.664   6.611   4.027
    1   AR   Ar   61   6.480   4.221   5.577
    1   AR   Ar   62   0.616   5.319   5.095
    1   AR   Ar   63   2.777   6.823   7.007
    1   AR   Ar   64   0.829   6.445   5.175
    1   AR   Ar   65   3.514   0.065   0.810
    1   AR   Ar   66   0.840   1.449   1.756
    1   AR   Ar   67   2.963   6.237  -1.258
    1   AR   Ar   68   3.274   1.696  -1.107
    1   AR   Ar   69   2.687   1.580   0.977
    1   AR   Ar   70   0.602   6.760   2.295
    1   AR   Ar   71   2.953   1.929   3.867
    1   AR   Ar   72   3.273   0.930   1.572
    1   AR   Ar   73   2.787   0.126   3.709
    1   AR   Ar   74   2.547   1.110   4.790
    1   AR   Ar   75   3.719   1.459   4.644
    1   AR   Ar   76   1.526   0.410   1.777
    1   AR   Ar   77   2.408   6.690   5.931
    1   AR   Ar   78   1.884   0.570   7.246
    1   AR   Ar   79   3.800   6.864   6.466
    1   AR   Ar   80   3.588   5.245   5.682
    1   AR   Ar   81   2.382   0.886   0.103
    1   AR   Ar   82   0.115   5.885  -0.848
    1   AR   Ar   83   1.178   1.763   0.757
    1   AR   Ar   84   0.071   3.874  -0.144
    1   AR   Ar   85   0.583   3.024   0.860
    1   AR   Ar   86   2.131   3.312   0.630
    1   AR   Ar   87   1.929   1.943   1.633
    1   AR   Ar   88   2.692   4.428   2.133
    1   AR   Ar   89   0.129   3.039   2.197
    1   AR   Ar   90   2.478   2.586   4.957
    1   AR   Ar   91   1.175   2.238   3.463
    1   AR   Ar   92   1.203   2.317   2.342
    1   AR   Ar   93   2.057   0.661   5.729
    1   AR   Ar   94   1.363   7.044   9.852
    1   AR   Ar   95   4.116   0.659   6.008
    1   AR   Ar   96   3.087   0.115   5.015
    1   AR   Ar   97   4.839   1.750  -0.346
    1   AR   Ar   98   2.082   5.099   2.747
    1   AR   Ar   99   6.630   2.494  -1.461
    1   AR   Ar  100   2.460   2.433   0.511
    1   AR   Ar  101   2.356   4.312   1.139
    1   AR   Ar  102   3.527   2.800   3.882
    1   AR   Ar  103   1.161   4.468   0.295
    1   AR   Ar  104   2.998   2.652  -1.688
    1   AR   Ar  105   2.216   3.236   4.050
    1   AR   Ar  106   3.021   3.399   4.814
    1   AR   Ar  107   1.378   3.797   4.912
    1   AR   Ar  108   3.412   2.369   5.267
    1   AR   Ar  109   1.155   3.824   3.861
    1   AR   Ar  110   0.879   4.800   6.041
    1   AR   Ar  111   5.128   3.840   7.246
    1   AR   Ar  112   1.832   5.391   7.004
    1   AR   Ar  113   2.229   4.834   0.167
    1   AR   Ar  114   2.406   5.687  -0.655
    1   AR   Ar  115   2.869   4.338  -0.659
    1   AR   Ar  116   6.066   5.868  -1.731
    1   AR   Ar  117   0.709   5.498   4.103
    1   AR   Ar  118   0.914   5.892   3.009
    1   AR   Ar  119   1.864   3.795   2.219
    1   AR   Ar  120   2.039   6.073   2.264
    1   AR   Ar  121   6.353   3.964   4.383
    1   AR   Ar  122   2.673   5.974   5.094
    1   AR   Ar  123   3.194   4.657   4.964
    1   AR   Ar  124   1.582   4.955   1.577
    1   AR   Ar  125   0.395   3.894   5.638
    1   AR   Ar  126   0.022   6.782   4.892
    1   AR   Ar  127   3.266   4.044   6.804
    1   AR   Ar  128   2.551   5.693   6.235
    1   AR   Ar  129   1.709   0.036   3.159
    1   AR   Ar  130   4.651   2.042  -1.322
    1   AR   Ar  131   4.109   0.680  -0.398
    1   AR   Ar  132   0.969   1.469  -1.134
    1   AR   Ar  133   4.233   0.025   2.624
    1   AR   Ar  134   4.722   1.041   3.966
    1   AR   Ar  135   5.272   0.729   2.977
    1   AR   Ar  136   5.127   0.217   2.004
    1   AR   Ar  137   2.229   5.794   3.795
    1   AR   Ar  138   4.913   1.890   4.661
    1   AR   Ar  139   5.325   2.594   5.401
    1   AR   Ar  140   4.063   7.065   4.598
    1   AR   Ar  141   3.894   5.882   4.560
    1   AR   Ar  142   3.689   6.370   5.491
    1   AR   Ar  143   6.926   6.579   5.889
    1   AR   Ar  144   5.504   1.259   5.861
    1   AR   Ar  145   3.738   4.161   0.226
    1   AR   Ar  146   4.365   2.345   1.579
    1   AR   Ar  147   5.784   1.938  -2.081
    1   AR   Ar  148   3.912   4.273  -1.547
    1   AR   Ar  149   3.662   2.037   0.632
    1   AR   Ar  150   2.419   1.757   2.694
    1   AR   Ar  151   2.828   2.716   3.123
    1   AR   Ar  152   3.394   3.025   0.317
    1   AR   Ar  153   3.814   0.791   3.782
    1   AR   Ar  154   4.166   1.923   3.429
    1   AR   Ar  155   6.404   0.098   6.571
    1   AR   Ar  156   4.191   4.050   4.440
    1   AR   Ar  157   2.679   3.094   5.948
    1   AR   Ar  158   1.310   3.991   6.541
    1   AR   Ar  159   4.410   2.071   5.679
    1   AR   Ar  160   2.705   1.837   5.693
    1   AR   Ar  161   5.505   3.058   1.559
    1   AR   Ar  162   4.473   6.068  -0.797
    1   AR   Ar  163   5.584   3.216   0.475
    1   AR   Ar  164   3.038   5.721   2.019
    1   AR   Ar  165   3.721   3.337   1.527
    1   AR   Ar  166   3.035   3.998   3.979
    1   AR   Ar  167   3.912   1.367   2.620
    1   AR   Ar  168   4.481   3.205  -0.303
    1   AR   Ar  169   2.707   2.925   1.653
    1   AR   Ar  170   2.507   4.127   5.506
    1   AR   Ar  171   5.360   4.198   3.585
    1   AR   Ar  172   4.769   5.002   4.613
    1   AR   Ar  173   2.167   3.523   7.204
    1   AR   Ar  174   2.685   4.905   7.250
    1   AR   Ar  175   3.488   2.488   6.262
    1   AR   Ar  176   3.849   3.466   5.967
    1   AR   Ar  177   6.285   4.723  -0.100
    1   AR   Ar  178   3.200   5.569   0.244
    1   AR   Ar  179   4.698   5.356   0.737
    1   AR   Ar  180   1.648   2.264  -2.025
    1   AR   Ar  181   0.812   5.952   1.226
    1   AR   Ar  182   3.114   0.688   2.939
    1   AR   Ar  183   3.266   5.184   2.996
    1   AR   Ar  184   4.021   6.284   1.490
    1   AR   Ar  185   1.608   4.819   4.370
    1   AR   Ar  186   3.793   4.999   4.107
    1   AR   Ar  187   3.657   6.158   3.448
    1   AR   Ar  188   2.967   6.933   2.154
    1   AR   Ar  189   3.467   2.308   7.784
    1   AR   Ar  190   5.019   6.830   5.483
    1   AR   Ar  191   4.268   4.896   6.604
    1   AR   Ar  192   4.544   5.829   5.518
    1   AR   Ar  193   1.071   6.308   0.188
    1   AR   Ar  194   4.897   3.577  -1.182
    1   AR   Ar  195   6.178   0.953  -0.047
    1   AR   Ar  196   4.930   7.026  -0.433
    1   AR   Ar  197   5.106   1.304   0.717
    1   AR   Ar  198   6.966   1.133   0.853
    1   AR   Ar  199   4.988   1.611   2.421
    1   AR   Ar  200   5.983   1.939   0.152
    1   AR   Ar  201   4.573   6.695   3.642
    1   AR   Ar  202   5.695   2.568   4.405
    1   AR   Ar  203   6.171   6.414   4.543
    1   AR   Ar  204   5.430   0.108   4.598
    1   AR   Ar  205   5.995   7.021   3.081
    1   AR   Ar  206   4.842   0.853   5.097
    1   AR   Ar  207   0.686   1.042   6.041
    1   AR   Ar  208   7.069   6.889   3.190
    1   AR   Ar  209   5.747   3.079  -1.658
    1   AR   Ar  210   3.747   0.999   0.537
    1   AR   Ar  211   6.609   3.023   0.590
    1   AR   Ar  212   6.263   4.018  -0.954
    1   AR   Ar  213   3.301   2.094   2.269
    1   AR   Ar  214   4.107   2.741   2.647
    1   AR   Ar  215   5.925   1.974   1.445
    1   AR   Ar  216   0.052   3.963   1.246
    1   AR   Ar  217   4.656   2.717   4.073
    1   AR   Ar  218   4.502   3.296   5.076
    1   AR   Ar  219   5.241   1.907   3.666
    1   AR   Ar  220   4.996   3.493   2.358
    1   AR   Ar  221   6.137   0.247   5.565
    1   AR   Ar  222   4.982   1.613   6.819
    1   AR   Ar  223   0.516   0.955   6.940
    1   AR   Ar  224   4.900   2.986   6.241
    1   AR   Ar  225   5.838   4.209   1.296
    1   AR   Ar  226   3.949   4.442   2.182
    1   AR   Ar  227   0.222   4.895   0.367
    1   AR   Ar  228   5.194   6.509   1.331
    1   AR   Ar  229   5.462   3.972  -0.372
    1   AR   Ar  230   4.380   4.386   3.440
    1   AR   Ar  231   5.865   1.620   2.894
    1   AR   Ar  232   4.571   2.937   0.685
    1   AR   Ar  233   6.282   2.236   3.556
    1   AR   Ar  234   6.655   2.905   4.577
    1   AR   Ar  235   0.169   2.349   3.868
    1   AR   Ar  236   5.682   4.701   4.857
    1   AR   Ar  237   5.534   3.654   5.325
    1   AR   Ar  238   4.797   4.474   5.643
    1   AR   Ar  239   6.819   3.917   9.387
    1   AR   Ar  240   6.652   3.207   6.006
    1   AR   Ar  241   0.860   6.689  -1.115
    1   AR   Ar  242   5.188   4.489   0.402
    1   AR   Ar  243   5.588   4.305   2.674
    1   AR   Ar  244   1.004   5.497  -0.606
    1   AR   Ar  245   5.623   0.297   0.836
    1   AR   Ar  246   6.409   5.673   1.257
    1   AR   Ar  247   4.475   3.939   1.325
    1   AR   Ar  248   5.196   5.533  -0.206
    1   AR   Ar  249   4.224   5.522   2.181
    1   AR   Ar  250   4.875   6.228   4.515
    1   AR   Ar  251   5.655   5.201   3.897
    1   AR   Ar  252   5.044   5.679   3.197
    1   AR   Ar  253   5.718   3.751   6.331
    1   AR   Ar  254   2.944   5.720   8.372
    1   AR   Ar  255   4.753   2.617   7.496
    1   AR   Ar  256   6.654   6.023   3.573
    7.12000  7.12000 12.00000
Argon-slab step 2695
  256
    1   AR   Ar    1   6.513   1.529  -0.896
    1   AR   Ar    2   6.641   0.124   0.813
    1   AR   Ar    3   1.211   0.879   0.531
    1   AR   Ar    4   1.340   0.462  -0.550
    1   AR   Ar    5   6.957   6.445   0.239
    1   AR   Ar    6   6.766   0.926   2.837
    1   AR   Ar    7   6.445   4.257   3.185
    1   AR   Ar    8   6.409   0.333   1.832
    1   AR   Ar    9   0.781   0.477   3.349
    1   AR   Ar   10   0.889   1.498   4.127
    1   AR   Ar   11   2.099   6.897   4.666
    1   AR   Ar   12   1.007   1.390   2.905
    1   AR   Ar   13   6.521   1.377   5.156
    1   AR   Ar   14   1.482   1.581   7.474
    1   AR   Ar   15   6.380   0.594   9.825
    1   AR   Ar   16   1.167   0.597   4.656
    1   AR   Ar   17   6.952   2.075   0.027
    1   AR   Ar   18   5.754   2.805  -0.611
    1   AR   Ar   19   1.728   2.979   1.504
    1   AR   Ar   20   4.980   4.532  -2.194
    1   AR   Ar   21   5.882   1.109   2.048
    1   AR   Ar   22   6.960   1.666   2.204
    1   AR   Ar   23   0.113   0.715  -0.170
    1   AR   Ar   24   0.122   2.062   1.205
    1   AR   Ar   25   6.836   1.272   3.842
    1   AR   Ar   26   5.841   1.217   4.323
    1   AR   Ar   27   1.833   1.449   3.648
    1   AR   Ar   28   1.391   2.720   4.525
    1   AR   Ar   29   5.775   2.353   6.650
    1   AR   Ar   30   1.660   1.667   5.367
    1   AR   Ar   31   0.972   6.818   7.793
    1   AR   Ar   32   1.666   2.688   6.017
    1   AR   Ar   33   1.120   3.695  -0.520
    1   AR   Ar   34   7.078   5.239   2.868
    1   AR   Ar   35   6.503   4.976   2.071
    1   AR   Ar   36   0.127   0.593  -3.574
    1   AR   Ar   37   6.286   2.717   2.531
    1   AR   Ar   38   0.083   4.221   2.411
    1   AR   Ar   39   1.540   3.205   3.113
    1   AR   Ar   40   1.237   3.925   1.169
    1   AR   Ar   41   0.368   3.424   3.530
    1   AR   Ar   42   6.739   5.754   5.034
    1   AR   Ar   43   6.905   2.111   6.345
    1   AR   Ar   44   0.711   4.368   3.148
    1   AR   Ar   45   0.423   2.863   5.295
    1   AR   Ar   46   0.992   5.759   6.035
    1   AR   Ar   47   6.202   3.384   7.597
    1   AR   Ar   48   0.603   6.746   6.673
    1   AR   Ar   49   6.273   0.114  -2.039
    1   AR   Ar   50   5.405   5.257   1.587
    1   AR   Ar   51   0.618   5.244   1.998
    1   AR   Ar   52   5.543   4.805  -0.972
    1   AR   Ar   53   5.297   6.334   2.375
    1   AR   Ar   54   6.492   6.155   2.278
    1   AR   Ar   55   6.012   5.334   2.884
    1   AR   Ar   56   0.783   0.038   0.688
    1   AR   Ar   57   5.516   2.917   3.131
    1   AR   Ar   58   6.808   5.067   3.795
    1   AR   Ar   59   1.603   5.635   5.138
    1   AR   Ar   60   0.667   6.601   4.005
    1   AR   Ar   61   6.524   4.220   5.583
    1   AR   Ar   62   0.606   5.315   5.102
    1   AR   Ar   63   2.774   6.846   7.002
    1   AR   Ar   64   0.841   6.428   5.173
    1   AR   Ar   65   3.519   0.051   0.823
    1   AR   Ar   66   0.851   1.476   1.728
    1   AR   Ar   67   2.956   6.236  -1.261
    1   AR   Ar   68   3.270   1.719  -1.090
    1   AR   Ar   69   2.669   1.578   0.983
    1   AR   Ar   70   0.609   6.749   2.300
    1   AR   Ar   71   2.953   1.897   3.846
    1   AR   Ar   72   3.255   0.917   1.592
    1   AR   Ar   73   2.799   0.154   3.741
    1   AR   Ar   74   2.517   1.097   4.746
    1   AR   Ar   75   3.758   1.447   4.621
    1   AR   Ar   76   1.517   0.420   1.757
    1   AR   Ar   77   2.399   6.699   5.916
    1   AR   Ar   78   1.888   0.566   7.216
    1   AR   Ar   79   3.808   6.840   6.470
    1   AR   Ar   80   3.587   5.242   5.666
    1   AR   Ar   81   2.372   0.893   0.049
    1   AR   Ar   82   0.100   5.875  -0.835
    1   AR   Ar   83   1.156   1.783   0.781
    1   AR   Ar   84   0.075   3.841  -0.151
    1   AR   Ar   85   0.582   3.061   0.832
    1   AR   Ar   86   2.125   3.323   0.611
    1   AR   Ar   87   1.866   1.957   1.642
    1   AR   Ar   88   2.679   4.456   2.145
    1   AR   Ar   89   0.131   3.061   2.198
    1   AR   Ar   90   2.456   2.591   4.949
    1   AR   Ar   91   1.169   2.215   3.496
    1   AR   Ar   92   1.222   2.293   2.356
    1   AR   Ar   93   2.054   0.682   5.713
    1   AR   Ar   94   1.368   7.044   9.864
    1   AR   Ar   95   4.102   0.657   5.997
    1   AR   Ar   96   3.057   0.100   5.005
    1   AR   Ar   97   4.832   1.740  -0.310
    1   AR   Ar   98   2.095   5.132   2.753
    1   AR   Ar   99   6.634   2.489  -1.445
    1   AR   Ar  100   2.487   2.409   0.502
    1   AR   Ar  101   2.375   4.305   1.131
    1   AR   Ar  102   3.505   2.803   3.908
    1   AR   Ar  103   1.147   4.486   0.299
    1   AR   Ar  104   3.017   2.655  -1.670
    1   AR   Ar  105   2.212   3.238   4.026
    1   AR   Ar  106   3.004   3.387   4.861
    1   AR   Ar  107   1.358   3.780   4.883
    1   AR   Ar  108   3.397   2.362   5.260
    1   AR   Ar  109   1.158   3.858   3.863
    1   AR   Ar  110   0.875   4.794   6.044
    1   AR   Ar  111   5.133   3.830   7.279
    1   AR   Ar  112   1.805   5.395   7.009
    1   AR   Ar  113   2.221   4.853   0.168
    1   AR   Ar  114   2.382   5.701  -0.662
    1   AR   Ar  115   2.846   4.352  -0.672
    1   AR   Ar  116   6.120   5.875  -1.724
    1   AR   Ar  117   0.710   5.512   4.102
    1   AR   Ar  118   0.911   5.871   2.980
    1   AR   Ar  119   1.856   3.799   2.228
    1   AR   Ar  120   2.023   6.108   2.267
    1   AR   Ar  121   6.371   3.971   4.415
    1   AR   Ar  122   2.678   5.983   5.101
    1   AR   Ar  123   3.231   4.636   4.975
    1   AR   Ar  124   1.594   4.976   1.561
    1   AR   Ar  125   0.405   3.946   5.666
    1   AR   Ar  126   0.007   6.784   4.882
    1   AR   Ar  127   3.272   4.046   6.769
    1   AR   Ar  128   2.558   5.670   6.246
    1   AR   Ar  129   1.683   0.061   3.175
    1   AR   Ar  130   4.702   2.052  -1.322
    1   AR   Ar  131   4.101   0.676  -0.409
    1   AR   Ar  132   0.946   1.456  -1.123
    1   AR   Ar  133   4.234   0.024   2.613
    1   AR   Ar  134   4.747   1.066   3.994
    1   AR   Ar  135   5.261   0.712   2.975
    1   AR   Ar  136   5.152   0.217   2.031
    1   AR   Ar  137   2.199   5.779   3.795
    1   AR   Ar  138   4.874   1.903   4.663
    1   AR   Ar  139   5.307   2.591   5.406
    1   AR   Ar  140   3.999   7.082   4.639
    1   AR   Ar  141   3.898   5.864   4.554
    1   AR   Ar  142   3.646   6.345   5.498
    1   AR   Ar  143   6.943   6.574   5.911
    1   AR   Ar  144   5.513   1.268   5.853
    1   AR   Ar  145   3.775   4.200   0.240
    1   AR   Ar  146   4.378   2.306   1.566
    1   AR   Ar  147   5.788   1.953  -2.079
    1   AR   Ar  148   3.900   4.244  -1.525
    1   AR   Ar  149   3.664   2.002   0.624
    1   AR   Ar  150   2.394   1.751   2.710
    1   AR   Ar  151   2.852   2.717   3.129
    1   AR   Ar  152   3.411   2.998   0.351
    1   AR   Ar  153   3.816   0.773   3.721
    1   AR   Ar  154   4.111   1.924   3.462
    1   AR   Ar  155   6.391   0.084   6.561
    1   AR   Ar  156   4.197   4.048   4.433
    1   AR   Ar  157   2.659   3.074   5.932
    1   AR   Ar  158   1.306   3.986   6.569
    1   AR   Ar  159   4.401   2.065   5.708
    1   AR   Ar  160   2.644   1.814   5.688
    1   AR   Ar  161   5.462   3.068   1.526
    1   AR   Ar  162   4.458   6.078  -0.804
    1   AR   Ar  163   5.610   3.229   0.449
    1   AR   Ar  164   3.070   5.703   2.031
    1   AR   Ar  165   3.720   3.350   1.517
    1   AR   Ar  166   3.037   3.989   3.981
    1   AR   Ar  167   3.885   1.356   2.617
    1   AR   Ar  168   4.496   3.207  -0.317
    1   AR   Ar  169   2.748   2.928   1.657
    1   AR   Ar  170   2.472   4.135   5.533
    1   AR   Ar  171   5.365   4.195   3.619
    1   AR   Ar  172   4.779   4.995   4.607
    1   AR   Ar  173   2.182   3.562   7.229
    1   AR   Ar  174   2.668   4.893   7.242
    1   AR   Ar  175   3.470   2.514   6.298
    1   AR   Ar  176   3.874   3.440   6.007
    1   AR   Ar  177   6.292   4.757  -0.076
    1   AR   Ar  178   3.200   5.559   0.240
    1   AR   Ar  179   4.697   5.357   0.762
    1   AR   Ar  180   1.644   2.245  -2.047
    1   AR   Ar  181   0.818   5.971   1.217
    1   AR   Ar  182   3.096   0.679   2.956
    1   AR   Ar  183   3.283   5.190   2.998
    1   AR   Ar  184   4.029   6.281   1.479
    1   AR   Ar  185   1.605   4.857   4.372
    1   AR   Ar  186   3.781   4.962   4.099
    1   AR   Ar  187   3.662   6.162   3.447
    1   AR   Ar  188   2.940   6.912   2.137
    1   AR   Ar  189   3.503   2.314   7.781
    1   AR   Ar  190   5.039   6.861   5.456
    1   AR   Ar  191   4.238   4.898   6.615
    1   AR   Ar  192   4.530   5.841   5.501
    1   AR   Ar  193   1.098   6.310   0.217
    1   AR   Ar  194   4.894   3.571  -1.195
    1   AR   Ar  195   6.170   0.930  -0.050
    1   AR   Ar  196   4.938   7.019  -0.419
    1   AR   Ar  197   5.089   1.310   0.682
    1   AR   Ar  198   6.973   1.118   0.811
    1   AR   Ar  199   5.002   1.633   2.451
    1   AR   Ar  200   5.999   1.923   0.209
    1   AR   Ar  201   4.572   6.653   3.631
    1   AR   Ar  202   5.715   2.529   4.415
    1   AR   Ar  203   6.188   6.433   4.528
    1   AR   Ar  204   5.418   0.160   4.595
    1   AR   Ar  205   6.015   7.024   3.080
    1   AR   Ar  206   4.799   0.834   5.084
    1   AR   Ar  207   0.723   1.051   6.017
    1   AR   Ar  208   7.082   6.882   3.209
    1   AR   Ar  209   5.727   3.112  -1.682
    1   AR   Ar  210   3.755   0.998   0.509
    1   AR   Ar  211   6.606   3.007   0.595
    1   AR   Ar  212   6.264   4.003  -0.935
    1   AR   Ar  213   3.314   2.083   2.296
    1   AR   Ar  214   4.119   2.744   2.660
    1   AR   Ar  215   5.943   1.989   1.431
    1   AR   Ar  216   0.072   3.968   1.291
    1   AR   Ar  217   4.660   2.739   4.087
    1   AR   Ar  218   4.522   3.284   5.074
    1   AR   Ar  219   5.247   1.896   3.642
    1   AR   Ar  220   4.988   3.495   2.352
    1   AR   Ar  221   6.150   0.209   5.585
    1   AR   Ar  222   4.957   1.623   6.822
    1   AR   Ar  223   0.522   0.965   6.987
    1   AR   Ar  224   4.899   3.000   6.237
    1   AR   Ar  225   5.838   4.191   1.307
    1   AR   Ar  226   3.943   4.452   2.168
    1   AR   Ar  227   0.207   4.859   0.408
    1   AR   Ar  228   5.178   6.489   1.347
    1   AR   Ar  229   5.460   3.960  -0.398
    1   AR   Ar  230   4.381   4.377   3.444
    1   AR   Ar  231   5.867   1.611   2.885
    1   AR   Ar  232   4.604   2.954   0.701
    1   AR   Ar  233   6.274   2.219   3.558
    1   AR   Ar  234   6.637   2.955   4.564
    1   AR   Ar  235   0.185   2.331   3.859
    1   AR   Ar  236   5.695   4.681   4.874
    1   AR   Ar  237   5.553   3.639   5.332
    1   AR   Ar  238   4.806   4.492   5.639
    1   AR   Ar  239   6.826   3.942   9.363
    1   AR   Ar  240   6.667   3.210   6.041
    1   AR   Ar  241   0.889   6.699  -1.138
    1   AR   Ar  242   5.203   4.486   0.432
    1   AR   Ar  243   5.607   4.248   2.665
    1   AR   Ar  244   1.025   5.516  -0.617
    1   AR   Ar  245   5.618   0.288   0.808
    1   AR   Ar  246   6.408   5.659   1.239
    1   AR   Ar  247   4.462   3.940   1.332
    1   AR   Ar  248   5.206   5.511  -0.197
    1   AR   Ar  249   4.244   5.514   2.172
    1   AR   Ar  250   4.878   6.184   4.511
    1   AR   Ar  251   5.647   5.183   3.877
    1   AR   Ar  252   5.021   5.659   3.207
    1   AR   Ar  253   5.736   3.780   6.344
    1   AR   Ar  254   2.914   5.724   8.380
    1   AR   Ar  255   4.780   2.588   7.521
    1   AR   Ar  256   6.663   6.025   3.586
    7.12000  7.12000 12.00000
Argon-slab step 2700
  256
    1   AR   Ar    1   6.512   1.526  -0.880
    1   AR   Ar    2   6.681   0.136   0.806
    1   AR   Ar    3   1.236   0.891   0.536
    1   AR   Ar    4   1.322   0.475  -0.532
    1   AR   Ar    5   6.970   6.467   0.236
    1   AR   Ar    6   6.783   0.923   2.813
    1   AR   Ar    7   6.453   4.273   3.190
    1   AR   Ar    8   6.388   0.352   1.852
    1   AR   Ar    9   0.807   0.495   3.357
    1   AR   Ar   10   0.865   1.502   4.125
    1   AR   Ar   11   2.119   6.860   4.596
    1   AR   Ar   12   0.974   1.399   2.901
    1   AR   Ar   13   6.537   1.388   5.168
    1   AR   Ar   14   1.457   1.599   7.452
    1   AR   Ar   15   6.352   0.608   9.833
    1   AR   Ar   16   1.138   0.560   4.653
    1   AR   Ar   17   6.910   2.069   0.020
    1   AR   Ar   18   5.762   2.782  -0.596
    1   AR   Ar   19   1.712   3.010   1.509
    1   AR   Ar   20   4.961   4.494  -2.194
    1   AR   Ar   21   5.853   1.091   2.035
    1   AR   Ar   22   6.969   1.664   2.237
    1   AR   Ar   23   0.133   0.731  -0.173
    1   AR   Ar   24   0.102   2.066   1.193
    1   AR   Ar   25   6.810   1.259   3.835
    1   AR   Ar   26   5.879   1.244   4.323
    1   AR   Ar   27   1.842   1.457   3.628
    1   AR   Ar   28   1.364   2.745   4.515
    1   AR   Ar   29   5.735   2.330   6.643
    1   AR   Ar   30   1.657   1.662   5.342
    1   AR   Ar   31   1.000   6.836   7.806
    1   AR   Ar   32   1.677   2.680   6.013
    1   AR   Ar   33   1.120   3.717  -0.545
    1   AR   Ar   34   7.057   5.255   2.851
    1   AR   Ar   35   6.507   4.955   2.044
    1   AR   Ar   36   0.136   0.596  -3.578
    1   AR   Ar   37   6.272   2.725   2.515
    1   AR   Ar   38   0.056   4.256   2.416
    1   AR   Ar   39   1.537   3.206   3.124
    1   AR   Ar   40   1.269   3.959   1.171
    1   AR   Ar   41   0.385   3.406   3.570
    1   AR   Ar   42   6.748   5.726   5.025
    1   AR   Ar   43   6.914   2.105   6.311
    1   AR   Ar   44   0.713   4.378   3.122
    1   AR   Ar   45   0.415   2.847   5.278
    1   AR   Ar   46   0.989   5.730   6.030
    1   AR   Ar   47   6.204   3.384   7.624
    1   AR   Ar   48   0.604   6.744   6.675
    1   AR   Ar   49   6.254   0.137  -2.043
    1   AR   Ar   50   5.393   5.209   1.587
    1   AR   Ar   51   0.597   5.246   1.986
    1   AR   Ar   52   5.532   4.812  -0.998
    1   AR   Ar   53   5.317   6.352   2.400
    1   AR   Ar   54   6.539   6.153   2.285
    1   AR   Ar   55   6.025   5.342   2.873
    1   AR   Ar   56   0.790   0.053   0.655
    1   AR   Ar   57   5.543   2.920   3.153
    1   AR   Ar   58   6.812   5.046   3.813
    1   AR   Ar   59   1.589   5.661   5.140
    1   AR   Ar   60   0.671   6.591   3.983
    1   AR   Ar   61   6.563   4.220   5.588
    1   AR   Ar   62   0.594   5.308   5.114
    1   AR   Ar   63   2.771   6.869   6.994
    1   AR   Ar   64   0.871   6.404   5.176
    1   AR   Ar   65   3.523   0.031   0.838
    1   AR   Ar   66   0.862   1.499   1.705
    1   AR   Ar   67   2.956   6.240  -1.271
    1   AR   Ar   68   3.267   1.741  -1.073
    1   AR   Ar   69   2.646   1.565   0.986
    1   AR   Ar   70   0.616   6.736   2.305
    1   AR   Ar   71   2.951   1.861   3.826
    1   AR   Ar   72   3.239   0.903   1.614
    1   AR   Ar   73   2.807   0.176   3.783
    1   AR   Ar   74   2.488   1.085   4.701
    1   AR   Ar   75   3.798   1.436   4.599
    1   AR   Ar   76   1.510   0.419   1.771
    1   AR   Ar   77   2.393   6.711   5.903
    1   AR   Ar   78   1.893   0.560   7.186
    1   AR   Ar   79   3.814   6.815   6.475
    1   AR   Ar   80   3.590   5.246   5.657
    1   AR   Ar   81   2.362   0.901  -0.004
    1   AR   Ar   82   0.090   5.880  -0.823
    1   AR   Ar   83   1.134   1.831   0.810
    1   AR   Ar   84   0.078   3.809  -0.155
    1   AR   Ar   85   0.582   3.097   0.804
    1   AR   Ar   86   2.139   3.346   0.576
    1   AR   Ar   87   1.809   1.964   1.648
    1   AR   Ar   88   2.681   4.472   2.133
    1   AR   Ar   89   0.128   3.039   2.203
    1   AR   Ar   90   2.418   2.584   4.939
    1   AR   Ar   91   1.165   2.209   3.525
    1   AR   Ar   92   1.238   2.274   2.375
    1   AR   Ar   93   2.053   0.702   5.696
    1   AR   Ar   94   1.374   7.043   9.877
    1   AR   Ar   95   4.090   0.657   5.983
    1   AR   Ar   96   3.022   0.085   4.998
    1   AR   Ar   97   4.829   1.741  -0.326
    1   AR   Ar   98   2.108   5.165   2.759
    1   AR   Ar   99   6.637   2.484  -1.428
    1   AR   Ar  100   2.516   2.386   0.487
    1   AR   Ar  101   2.392   4.297   1.122
    1   AR   Ar  102   3.487   2.810   3.940
    1   AR   Ar  103   1.138   4.504   0.299
    1   AR   Ar  104   3.037   2.658  -1.651
    1   AR   Ar  105   2.210   3.240   4.002
    1   AR   Ar  106   2.998   3.387   4.909
    1   AR   Ar  107   1.339   3.763   4.858
    1   AR   Ar  108   3.392   2.358   5.248
    1   AR   Ar  109   1.184   3.896   3.879
    1   AR   Ar  110   0.871   4.778   6.047
    1   AR   Ar  111   5.139   3.818   7.312
    1   AR   Ar  112   1.772   5.401   7.012
    1   AR   Ar  113   2.213   4.872   0.169
    1   AR   Ar  114   2.350   5.706  -0.659
    1   AR   Ar  115   2.823   4.367  -0.684
    1   AR   Ar  116   6.175   5.883  -1.715
    1   AR   Ar  117   0.711   5.527   4.094
    1   AR   Ar  118   0.908   5.850   2.950
    1   AR   Ar  119   1.845   3.804   2.235
    1   AR   Ar  120   2.006   6.145   2.270
    1   AR   Ar  121   6.387   3.981   4.446
    1   AR   Ar  122   2.684   5.992   5.107
    1   AR   Ar  123   3.266   4.608   4.976
    1   AR   Ar  124   1.607   4.997   1.546
    1   AR   Ar  125   0.418   3.993   5.692
    1   AR   Ar  126   7.098   6.774   4.902
    1   AR   Ar  127   3.277   4.048   6.733
    1   AR   Ar  128   2.567   5.646   6.256
    1   AR   Ar  129   1.665   0.082   3.189
    1   AR   Ar  130   4.753   2.064  -1.324
    1   AR   Ar  131   4.094   0.671  -0.424
    1   AR   Ar  132   0.923   1.443  -1.111
    1   AR   Ar  133   4.235   0.024   2.603
    1   AR   Ar  134   4.776   1.087   4.024
    1   AR   Ar  135   5.249   0.695   2.977
    1   AR   Ar  136   5.178   0.219   2.055
    1   AR   Ar  137   2.169   5.763   3.795
    1   AR   Ar  138   4.833   1.911   4.669
    1   AR   Ar  139   5.293   2.584   5.407
    1   AR   Ar  140   3.951   7.093   4.677
    1   AR   Ar  141   3.917   5.846   4.554
    1   AR   Ar  142   3.596   6.325   5.505
    1   AR   Ar  143   6.961   6.566   5.932
    1   AR   Ar  144   5.521   1.277   5.843
    1   AR   Ar  145   3.811   4.239   0.254
    1   AR   Ar  146   4.393   2.277   1.554
    1   AR   Ar  147   5.791   1.969  -2.076
    1   AR   Ar  148   3.888   4.215  -1.501
    1   AR   Ar  149   3.666   1.972   0.619
    1   AR   Ar  150   2.367   1.745   2.727
    1   AR   Ar  151   2.872   2.719   3.129
    1   AR   Ar  152   3.430   2.976   0.385
    1   AR   Ar  153   3.814   0.752   3.659
    1   AR   Ar  154   4.057   1.926   3.500
    1   AR   Ar  155   6.379   0.072   6.559
    1   AR   Ar  156   4.198   4.042   4.429
    1   AR   Ar  157   2.643   3.064   5.920
    1   AR   Ar  158   1.304   3.979   6.596
    1   AR   Ar  159   4.392   2.059   5.738
    1   AR   Ar  160   2.583   1.787   5.687
    1   AR   Ar  161   5.420   3.076   1.490
    1   AR   Ar  162   4.443   6.088  -0.811
    1   AR   Ar  163   5.633   3.245   0.421
    1   AR   Ar  164   3.103   5.686   2.042
    1   AR   Ar  165   3.709   3.353   1.510
    1   AR   Ar  166   3.041   3.982   3.982
    1   AR   Ar  167   3.867   1.332   2.616
    1   AR   Ar  168   4.475   3.190  -0.320
    1   AR   Ar  169   2.791   2.929   1.661
    1   AR   Ar  170   2.434   4.142   5.561
    1   AR   Ar  171   5.378   4.187   3.658
    1   AR   Ar  172   4.777   4.987   4.593
    1   AR   Ar  173   2.191   3.563   7.259
    1   AR   Ar  174   2.657   4.879   7.234
    1   AR   Ar  175   3.454   2.535   6.338
    1   AR   Ar  176   3.900   3.417   6.045
    1   AR   Ar  177   6.297   4.790  -0.052
    1   AR   Ar  178   3.200   5.548   0.236
    1   AR   Ar  179   4.693   5.361   0.789
    1   AR   Ar  180   1.639   2.226  -2.068
    1   AR   Ar  181   0.824   5.990   1.208
    1   AR   Ar  182   3.078   0.677   2.963
    1   AR   Ar  183   3.300   5.196   3.000
    1   AR   Ar  184   4.036   6.281   1.466
    1   AR   Ar  185   1.601   4.893   4.373
    1   AR   Ar  186   3.766   4.924   4.087
    1   AR   Ar  187   3.664   6.164   3.446
    1   AR   Ar  188   2.914   6.891   2.121
    1   AR   Ar  189   3.540   2.320   7.778
    1   AR   Ar  190   5.056   6.892   5.432
    1   AR   Ar  191   4.208   4.898   6.625
    1   AR   Ar  192   4.521   5.848   5.485
    1   AR   Ar  193   1.126   6.306   0.241
    1   AR   Ar  194   4.891   3.566  -1.214
    1   AR   Ar  195   6.161   0.903  -0.052
    1   AR   Ar  196   4.946   7.011  -0.403
    1   AR   Ar  197   5.073   1.316   0.649
    1   AR   Ar  198   6.980   1.105   0.769
    1   AR   Ar  199   5.001   1.657   2.475
    1   AR   Ar  200   5.984   1.918   0.214
    1   AR   Ar  201   4.573   6.615   3.618
    1   AR   Ar  202   5.732   2.489   4.424
    1   AR   Ar  203   6.197   6.457   4.507
    1   AR   Ar  204   5.409   0.211   4.585
    1   AR   Ar  205   6.035   7.027   3.077
    1   AR   Ar  206   4.752   0.819   5.074
    1   AR   Ar  207   0.763   1.061   5.980
    1   AR   Ar  208   7.097   6.879   3.224
    1   AR   Ar  209   5.709   3.143  -1.706
    1   AR   Ar  210   3.763   0.997   0.483
    1   AR   Ar  211   6.607   2.989   0.601
    1   AR   Ar  212   6.279   3.986  -0.925
    1   AR   Ar  213   3.320   2.083   2.317
    1   AR   Ar  214   4.132   2.746   2.673
    1   AR   Ar  215   5.961   2.006   1.416
    1   AR   Ar  216   0.091   3.973   1.336
    1   AR   Ar  217   4.663   2.764   4.098
    1   AR   Ar  218   4.542   3.270   5.074
    1   AR   Ar  219   5.248   1.880   3.613
    1   AR   Ar  220   4.973   3.496   2.346
    1   AR   Ar  221   6.135   0.187   5.582
    1   AR   Ar  222   4.931   1.634   6.823
    1   AR   Ar  223   0.526   0.974   7.046
    1   AR   Ar  224   4.896   3.016   6.239
    1   AR   Ar  225   5.838   4.173   1.319
    1   AR   Ar  226   3.933   4.415   2.128
    1   AR   Ar  227   0.186   4.825   0.450
    1   AR   Ar  228   5.162   6.468   1.358
    1   AR   Ar  229   5.447   3.938  -0.416
    1   AR   Ar  230   4.378   4.369   3.442
    1   AR   Ar  231   5.886   1.604   2.884
    1   AR   Ar  232   4.610   2.969   0.696
    1   AR   Ar  233   6.272   2.207   3.566
    1   AR   Ar  234   6.625   3.004   4.552
    1   AR   Ar  235   0.199   2.314   3.851
    1   AR   Ar  236   5.715   4.658   4.894
    1   AR   Ar  237   5.571   3.625   5.334
    1   AR   Ar  238   4.816   4.508   5.635
    1   AR   Ar  239   6.833   3.967   9.338
    1   AR   Ar  240   6.681   3.213   6.076
    1   AR   Ar  241   0.889   6.693  -1.169
    1   AR   Ar  242   5.218   4.485   0.467
    1   AR   Ar  243   5.624   4.198   2.638
    1   AR   Ar  244   1.052   5.533  -0.626
    1   AR   Ar  245   5.602   0.274   0.805
    1   AR   Ar  246   6.407   5.646   1.220
    1   AR   Ar  247   4.464   3.950   1.334
    1   AR   Ar  248   5.222   5.487  -0.192
    1   AR   Ar  249   4.265   5.504   2.167
    1   AR   Ar  250   4.887   6.141   4.509
    1   AR   Ar  251   5.643   5.165   3.863
    1   AR   Ar  252   4.993   5.641   3.215
    1   AR   Ar  253   5.754   3.809   6.361
    1   AR   Ar  254   2.883   5.728   8.386
    1   AR   Ar  255   4.808   2.560   7.545
    1   AR   Ar  256   6.669   6.033   3.599
    7.12000  7.12000 12.00000
Argon-slab step 2705
  256
    1   AR   Ar    1   6.511   1.522  -0.863
    1   AR   Ar    2   6.721   0.147   0.800
    1   AR   Ar    3   1.271   0.908   0.535
    1   AR   Ar    4   1.303   0.487  -0.512
    1   AR   Ar    5   6.987   6.483   0.229
    1   AR   Ar    6   6.802   0.894   2.794
    1   AR   Ar    7   6.444   4.266   3.240
    1   AR   Ar    8   6.385   0.348   1.867
    1   AR   Ar    9   0.815   0.517   3.372
    1   AR   Ar   10   0.837   1.495   4.132
    1   AR   Ar   11   2.134   6.822   4.525
    1   AR   Ar   12   0.936   1.409   2.893
    1   AR   Ar   13   6.554   1.400   5.181
    1   AR   Ar   14   1.431   1.617   7.430
    1   AR   Ar   15   6.324   0.623   9.841
    1   AR   Ar   16   1.110   0.522   4.650
    1   AR   Ar   17   6.887   2.066   0.011
    1   AR   Ar   18   5.769   2.759  -0.581
    1   AR   Ar   19   1.694   3.041   1.514
    1   AR   Ar   20   4.941   4.454  -2.191
    1   AR   Ar   21   5.808   1.092   2.020
    1   AR   Ar   22   6.980   1.678   2.258
    1   AR   Ar   23   0.156   0.746  -0.179
    1   AR   Ar   24   0.079   2.073   1.181
    1   AR   Ar   25   6.788   1.246   3.827
    1   AR   Ar   26   5.911   1.271   4.324
    1   AR   Ar   27   1.856   1.460   3.610
    1   AR   Ar   28   1.354   2.762   4.499
    1   AR   Ar   29   5.696   2.310   6.634
    1   AR   Ar   30   1.703   1.632   5.348
    1   AR   Ar   31   1.028   6.854   7.817
    1   AR   Ar   32   1.685   2.671   6.007
    1   AR   Ar   33   1.120   3.740  -0.568
    1   AR   Ar   34   7.045   5.274   2.834
    1   AR   Ar   35   6.506   4.934   2.008
    1   AR   Ar   36   0.145   0.599  -3.581
    1   AR   Ar   37   6.264   2.728   2.492
    1   AR   Ar   38   0.024   4.286   2.410
    1   AR   Ar   39   1.533   3.206   3.134
    1   AR   Ar   40   1.308   4.002   1.177
    1   AR   Ar   41   0.391   3.382   3.605
    1   AR   Ar   42   6.756   5.697   5.017
    1   AR   Ar   43   6.924   2.100   6.275
    1   AR   Ar   44   0.722   4.396   3.102
    1   AR   Ar   45   0.408   2.831   5.261
    1   AR   Ar   46   0.988   5.721   6.030
    1   AR   Ar   47   6.205   3.383   7.649
    1   AR   Ar   48   0.596   6.769   6.629
    1   AR   Ar   49   6.236   0.161  -2.046
    1   AR   Ar   50   5.383   5.161   1.590
    1   AR   Ar   51   0.576   5.246   1.975
    1   AR   Ar   52   5.522   4.821  -1.025
    1   AR   Ar   53   5.338   6.365   2.430
    1   AR   Ar   54   6.586   6.151   2.293
    1   AR   Ar   55   6.036   5.348   2.861
    1   AR   Ar   56   0.783   0.057   0.627
    1   AR   Ar   57   5.560   2.925   3.183
    1   AR   Ar   58   6.815   5.018   3.842
    1   AR   Ar   59   1.584   5.684   5.142
    1   AR   Ar   60   0.677   6.583   3.963
    1   AR   Ar   61   6.593   4.221   5.590
    1   AR   Ar   62   0.594   5.290   5.119
    1   AR   Ar   63   2.767   6.892   6.986
    1   AR   Ar   64   0.905   6.380   5.181
    1   AR   Ar   65   3.526   0.010   0.856
    1   AR   Ar   66   0.867   1.514   1.692
    1   AR   Ar   67   2.961   6.248  -1.285
    1   AR   Ar   68   3.264   1.763  -1.054
    1   AR   Ar   69   2.626   1.540   0.996
    1   AR   Ar   70   0.623   6.724   2.310
    1   AR   Ar   71   2.949   1.822   3.806
    1   AR   Ar   72   3.225   0.889   1.637
    1   AR   Ar   73   2.813   0.193   3.835
    1   AR   Ar   74   2.458   1.073   4.656
    1   AR   Ar   75   3.838   1.425   4.575
    1   AR   Ar   76   1.503   0.412   1.808
    1   AR   Ar   77   2.401   6.733   5.903
    1   AR   Ar   78   1.897   0.554   7.155
    1   AR   Ar   79   3.820   6.790   6.479
    1   AR   Ar   80   3.597   5.257   5.657
    1   AR   Ar   81   2.350   0.910  -0.055
    1   AR   Ar   82   0.076   5.886  -0.811
    1   AR   Ar   83   1.112   1.895   0.831
    1   AR   Ar   84   0.080   3.777  -0.158
    1   AR   Ar   85   0.582   3.134   0.776
    1   AR   Ar   86   2.152   3.375   0.541
    1   AR   Ar   87   1.766   1.967   1.644
    1   AR   Ar   88   2.692   4.481   2.105
    1   AR   Ar   89   0.127   3.006   2.208
    1   AR   Ar   90   2.389   2.567   4.936
    1   AR   Ar   91   1.169   2.222   3.543
    1   AR   Ar   92   1.247   2.264   2.405
    1   AR   Ar   93   2.051   0.721   5.679
    1   AR   Ar   94   1.379   7.042   9.889
    1   AR   Ar   95   4.078   0.657   5.968
    1   AR   Ar   96   2.989   0.093   4.991
    1   AR   Ar   97   4.827   1.750  -0.374
    1   AR   Ar   98   2.120   5.198   2.766
    1   AR   Ar   99   6.638   2.479  -1.410
    1   AR   Ar  100   2.543   2.371   0.466
    1   AR   Ar  101   2.408   4.287   1.112
    1   AR   Ar  102   3.474   2.818   3.979
    1   AR   Ar  103   1.136   4.522   0.295
    1   AR   Ar  104   3.057   2.661  -1.632
    1   AR   Ar  105   2.208   3.241   3.979
    1   AR   Ar  106   2.999   3.395   4.956
    1   AR   Ar  107   1.321   3.747   4.845
    1   AR   Ar  108   3.388   2.354   5.246
    1   AR   Ar  109   1.222   3.938   3.897
    1   AR   Ar  110   0.873   4.759   6.054
    1   AR   Ar  111   5.144   3.804   7.343
    1   AR   Ar  112   1.735   5.409   7.013
    1   AR   Ar  113   2.205   4.892   0.169
    1   AR   Ar  114   2.314   5.706  -0.651
    1   AR   Ar  115   2.801   4.383  -0.695
    1   AR   Ar  116   6.230   5.891  -1.705
    1   AR   Ar  117   0.712   5.541   4.083
    1   AR   Ar  118   0.905   5.830   2.922
    1   AR   Ar  119   1.811   3.821   2.276
    1   AR   Ar  120   1.988   6.182   2.274
    1   AR   Ar  121   6.404   3.997   4.474
    1   AR   Ar  122   2.688   6.000   5.111
    1   AR   Ar  123   3.298   4.570   4.970
    1   AR   Ar  124   1.621   5.018   1.531
    1   AR   Ar  125   0.432   4.023   5.713
    1   AR   Ar  126   7.067   6.770   4.918
    1   AR   Ar  127   3.281   4.050   6.695
    1   AR   Ar  128   2.576   5.623   6.265
    1   AR   Ar  129   1.662   0.097   3.201
    1   AR   Ar  130   4.805   2.079  -1.328
    1   AR   Ar  131   4.090   0.664  -0.444
    1   AR   Ar  132   0.920   1.429  -1.084
    1   AR   Ar  133   4.234   0.023   2.595
    1   AR   Ar  134   4.797   1.078   4.060
    1   AR   Ar  135   5.251   0.677   2.969
    1   AR   Ar  136   5.205   0.222   2.074
    1   AR   Ar  137   2.138   5.747   3.795
    1   AR   Ar  138   4.792   1.918   4.679
    1   AR   Ar  139   5.283   2.571   5.405
    1   AR   Ar  140   3.948   7.079   4.705
    1   AR   Ar  141   3.957   5.824   4.561
    1   AR   Ar  142   3.558   6.317   5.506
    1   AR   Ar  143   6.980   6.555   5.951
    1   AR   Ar  144   5.529   1.286   5.832
    1   AR   Ar  145   3.849   4.276   0.268
    1   AR   Ar  146   4.415   2.293   1.541
    1   AR   Ar  147   5.795   1.987  -2.070
    1   AR   Ar  148   3.878   4.185  -1.477
    1   AR   Ar  149   3.667   1.951   0.617
    1   AR   Ar  150   2.339   1.739   2.743
    1   AR   Ar  151   2.888   2.721   3.124
    1   AR   Ar  152   3.450   2.958   0.421
    1   AR   Ar  153   3.815   0.732   3.601
    1   AR   Ar  154   4.004   1.928   3.540
    1   AR   Ar  155   6.368   0.060   6.565
    1   AR   Ar  156   4.190   4.024   4.427
    1   AR   Ar  157   2.644   3.086   5.933
    1   AR   Ar  158   1.303   3.969   6.625
    1   AR   Ar  159   4.382   2.053   5.767
    1   AR   Ar  160   2.534   1.762   5.691
    1   AR   Ar  161   5.379   3.082   1.453
    1   AR   Ar  162   4.428   6.097  -0.817
    1   AR   Ar  163   5.650   3.262   0.391
    1   AR   Ar  164   3.135   5.669   2.054
    1   AR   Ar  165   3.695   3.349   1.505
    1   AR   Ar  166   3.000   4.001   3.985
    1   AR   Ar  167   3.858   1.297   2.617
    1   AR   Ar  168   4.468   3.197  -0.318
    1   AR   Ar  169   2.829   2.927   1.666
    1   AR   Ar  170   2.396   4.147   5.589
    1   AR   Ar  171   5.410   4.167   3.667
    1   AR   Ar  172   4.771   4.982   4.577
    1   AR   Ar  173   2.202   3.566   7.288
    1   AR   Ar  174   2.649   4.864   7.226
    1   AR   Ar  175   3.438   2.550   6.381
    1   AR   Ar  176   3.927   3.398   6.079
    1   AR   Ar  177   6.301   4.816  -0.032
    1   AR   Ar  178   3.199   5.536   0.231
    1   AR   Ar  179   4.687   5.367   0.816
    1   AR   Ar  180   1.624   2.215  -2.096
    1   AR   Ar  181   0.828   6.009   1.201
    1   AR   Ar  182   3.057   0.678   2.955
    1   AR   Ar  183   3.317   5.200   3.003
    1   AR   Ar  184   4.043   6.282   1.453
    1   AR   Ar  185   1.597   4.928   4.373
    1   AR   Ar  186   3.747   4.889   4.072
    1   AR   Ar  187   3.662   6.164   3.445
    1   AR   Ar  188   2.889   6.869   2.106
    1   AR   Ar  189   3.534   2.336   7.769
    1   AR   Ar  190   5.069   6.919   5.413
    1   AR   Ar  191   4.177   4.898   6.632
    1   AR   Ar  192   4.515   5.852   5.469
    1   AR   Ar  193   1.156   6.298   0.259
    1   AR   Ar  194   4.884   3.564  -1.237
    1   AR   Ar  195   6.152   0.874  -0.051
    1   AR   Ar  196   4.954   7.005  -0.387
    1   AR   Ar  197   5.059   1.322   0.616
    1   AR   Ar  198   6.988   1.099   0.729
    1   AR   Ar  199   4.985   1.683   2.492
    1   AR   Ar  200   5.945   1.916   0.211
    1   AR   Ar  201   4.578   6.582   3.603
    1   AR   Ar  202   5.744   2.448   4.433
    1   AR   Ar  203   6.199   6.483   4.484
    1   AR   Ar  204   5.407   0.261   4.566
    1   AR   Ar  205   6.054   7.029   3.073
    1   AR   Ar  206   4.701   0.808   5.067
    1   AR   Ar  207   0.805   1.071   5.941
    1   AR   Ar  208   7.115   6.882   3.236
    1   AR   Ar  209   5.695   3.173  -1.731
    1   AR   Ar  210   3.771   0.990   0.461
    1   AR   Ar  211   6.614   2.970   0.608
    1   AR   Ar  212   6.306   3.969  -0.921
    1   AR   Ar  213   3.320   2.094   2.332
    1   AR   Ar  214   4.146   2.748   2.687
    1   AR   Ar  215   5.981   2.024   1.401
    1   AR   Ar  216   0.111   3.979   1.380
    1   AR   Ar  217   4.664   2.792   4.106
    1   AR   Ar  218   4.561   3.254   5.078
    1   AR   Ar  219   5.245   1.873   3.586
    1   AR   Ar  220   4.950   3.491   2.340
    1   AR   Ar  221   6.112   0.171   5.567
    1   AR   Ar  222   4.942   1.607   6.840
    1   AR   Ar  223   0.531   0.981   7.106
    1   AR   Ar  224   4.892   3.035   6.245
    1   AR   Ar  225   5.838   4.154   1.332
    1   AR   Ar  226   3.920   4.379   2.091
    1   AR   Ar  227   0.158   4.792   0.494
    1   AR   Ar  228   5.168   6.470   1.322
    1   AR   Ar  229   5.444   3.937  -0.404
    1   AR   Ar  230   4.373   4.363   3.434
    1   AR   Ar  231   5.919   1.593   2.884
    1   AR   Ar  232   4.599   2.981   0.681
    1   AR   Ar  233   6.277   2.201   3.580
    1   AR   Ar  234   6.619   3.047   4.541
    1   AR   Ar  235   0.208   2.299   3.845
    1   AR   Ar  236   5.737   4.635   4.916
    1   AR   Ar  237   5.591   3.612   5.333
    1   AR   Ar  238   4.825   4.524   5.630
    1   AR   Ar  239   6.841   3.991   9.313
    1   AR   Ar  240   6.695   3.215   6.109
    1   AR   Ar  241   0.888   6.686  -1.198
    1   AR   Ar  242   5.233   4.484   0.503
    1   AR   Ar  243   5.641   4.154   2.604
    1   AR   Ar  244   1.085   5.550  -0.632
    1   AR   Ar  245   5.584   0.262   0.804
    1   AR   Ar  246   6.405   5.634   1.200
    1   AR   Ar  247   4.481   3.967   1.330
    1   AR   Ar  248   5.238   5.463  -0.185
    1   AR   Ar  249   4.287   5.493   2.163
    1   AR   Ar  250   4.905   6.099   4.508
    1   AR   Ar  251   5.642   5.153   3.854
    1   AR   Ar  252   4.960   5.624   3.220
    1   AR   Ar  253   5.772   3.837   6.379
    1   AR   Ar  254   2.851   5.732   8.391
    1   AR   Ar  255   4.809   2.530   7.519
    1   AR   Ar  256   6.672   6.041   3.611
    7.12000  7.12000 12.00000
Argon-slab step 2710
  256
    1   AR   Ar    1   6.509   1.519  -0.846
    1   AR   Ar    2   6.748   0.153   0.802
    1   AR   Ar    3   1.313   0.932   0.532
    1   AR   Ar    4   1.283   0.500  -0.492
    1   AR   Ar    5   7.008   6.493   0.218
    1   AR   Ar    6   6.818   0.849   2.783
    1   AR   Ar    7   6.438   4.258   3.292
    1   AR   Ar    8   6.393   0.326   1.879
    1   AR   Ar    9   0.806   0.541   3.395
    1   AR   Ar   10   0.807   1.477   4.144
    1   AR   Ar   11   2.145   6.781   4.455
    1   AR   Ar   12   0.897   1.419   2.883
    1   AR   Ar   13   6.570   1.412   5.195
    1   AR   Ar   14   1.405   1.633   7.407
    1   AR   Ar   15   6.296   0.638   9.849
    1   AR   Ar   16   1.083   0.483   4.646
    1   AR   Ar   17   6.879   2.064   0.001
    1   AR   Ar   18   5.776   2.736  -0.567
    1   AR   Ar   19   1.675   3.070   1.519
    1   AR   Ar   20   4.921   4.413  -2.187
    1   AR   Ar   21   5.752   1.107   2.001
    1   AR   Ar   22   6.995   1.707   2.269
    1   AR   Ar   23   0.154   0.724  -0.173
    1   AR   Ar   24   0.055   2.083   1.168
    1   AR   Ar   25   6.774   1.235   3.817
    1   AR   Ar   26   5.932   1.301   4.327
    1   AR   Ar   27   1.862   1.461   3.603
    1   AR   Ar   28   1.374   2.754   4.452
    1   AR   Ar   29   5.659   2.293   6.622
    1   AR   Ar   30   1.709   1.601   5.335
    1   AR   Ar   31   1.057   6.874   7.827
    1   AR   Ar   32   1.691   2.660   6.000
    1   AR   Ar   33   1.121   3.762  -0.590
    1   AR   Ar   34   7.042   5.295   2.821
    1   AR   Ar   35   6.488   4.931   2.007
    1   AR   Ar   36   0.155   0.602  -3.585
    1   AR   Ar   37   6.259   2.727   2.464
    1   AR   Ar   38   7.111   4.306   2.400
    1   AR   Ar   39   1.527   3.203   3.143
    1   AR   Ar   40   1.347   4.043   1.186
    1   AR   Ar   41   0.395   3.355   3.639
    1   AR   Ar   42   6.765   5.662   4.999
    1   AR   Ar   43   6.932   2.094   6.238
    1   AR   Ar   44   0.732   4.413   3.094
    1   AR   Ar   45   0.401   2.816   5.243
    1   AR   Ar   46   0.989   5.729   6.034
    1   AR   Ar   47   6.204   3.383   7.674
    1   AR   Ar   48   0.593   6.797   6.588
    1   AR   Ar   49   6.218   0.184  -2.049
    1   AR   Ar   50   5.397   5.141   1.551
    1   AR   Ar   51   0.555   5.244   1.964
    1   AR   Ar   52   5.512   4.829  -1.054
    1   AR   Ar   53   5.360   6.375   2.461
    1   AR   Ar   54   6.633   6.150   2.302
    1   AR   Ar   55   6.039   5.357   2.852
    1   AR   Ar   56   0.765   0.056   0.602
    1   AR   Ar   57   5.569   2.932   3.218
    1   AR   Ar   58   6.820   4.991   3.877
    1   AR   Ar   59   1.593   5.699   5.142
    1   AR   Ar   60   0.687   6.595   3.974
    1   AR   Ar   61   6.609   4.223   5.590
    1   AR   Ar   62   0.594   5.262   5.118
    1   AR   Ar   63   2.762   6.914   6.976
    1   AR   Ar   64   0.929   6.368   5.185
    1   AR   Ar   65   3.529   7.107   0.876
    1   AR   Ar   66   0.862   1.518   1.693
    1   AR   Ar   67   2.973   6.272  -1.312
    1   AR   Ar   68   3.262   1.783  -1.034
    1   AR   Ar   69   2.607   1.505   1.012
    1   AR   Ar   70   0.608   6.723   2.313
    1   AR   Ar   71   2.945   1.782   3.786
    1   AR   Ar   72   3.212   0.873   1.662
    1   AR   Ar   73   2.801   0.204   3.851
    1   AR   Ar   74   2.429   1.061   4.610
    1   AR   Ar   75   3.876   1.413   4.551
    1   AR   Ar   76   1.495   0.406   1.844
    1   AR   Ar   77   2.411   6.754   5.903
    1   AR   Ar   78   1.899   0.548   7.123
    1   AR   Ar   79   3.825   6.764   6.482
    1   AR   Ar   80   3.605   5.271   5.661
    1   AR   Ar   81   2.338   0.919  -0.105
    1   AR   Ar   82   0.060   5.895  -0.798
    1   AR   Ar   83   1.092   1.971   0.838
    1   AR   Ar   84   0.081   3.746  -0.159
    1   AR   Ar   85   0.583   3.170   0.749
    1   AR   Ar   86   2.164   3.405   0.506
    1   AR   Ar   87   1.743   1.966   1.630
    1   AR   Ar   88   2.706   4.492   2.081
    1   AR   Ar   89   0.129   2.975   2.211
    1   AR   Ar   90   2.385   2.544   4.948
    1   AR   Ar   91   1.180   2.248   3.554
    1   AR   Ar   92   1.249   2.264   2.446
    1   AR   Ar   93   2.052   0.734   5.662
    1   AR   Ar   94   1.384   7.041   9.902
    1   AR   Ar   95   4.065   0.657   5.952
    1   AR   Ar   96   2.958   0.116   4.985
    1   AR   Ar   97   4.826   1.758  -0.413
    1   AR   Ar   98   2.133   5.231   2.773
    1   AR   Ar   99   6.637   2.476  -1.391
    1   AR   Ar  100   2.569   2.363   0.439
    1   AR   Ar  101   2.422   4.276   1.099
    1   AR   Ar  102   3.463   2.828   4.022
    1   AR   Ar  103   1.137   4.540   0.286
    1   AR   Ar  104   3.076   2.665  -1.614
    1   AR   Ar  105   2.207   3.241   3.959
    1   AR   Ar  106   3.005   3.408   5.002
    1   AR   Ar  107   1.306   3.731   4.848
    1   AR   Ar  108   3.380   2.350   5.260
    1   AR   Ar  109   1.264   3.983   3.905
    1   AR   Ar  110   0.889   4.753   6.074
    1   AR   Ar  111   5.150   3.789   7.373
    1   AR   Ar  112   1.697   5.417   7.011
    1   AR   Ar  113   2.197   4.911   0.169
    1   AR   Ar  114   2.275   5.704  -0.639
    1   AR   Ar  115   2.780   4.399  -0.706
    1   AR   Ar  116   6.279   5.901  -1.700
    1   AR   Ar  117   0.712   5.553   4.070
    1   AR   Ar  118   0.901   5.809   2.894
    1   AR   Ar  119   1.776   3.841   2.315
    1   AR   Ar  120   1.959   6.210   2.281
    1   AR   Ar  121   6.420   4.024   4.497
    1   AR   Ar  122   2.686   6.005   5.112
    1   AR   Ar  123   3.326   4.526   4.961
    1   AR   Ar  124   1.635   5.039   1.516
    1   AR   Ar  125   0.442   4.021   5.720
    1   AR   Ar  126   7.040   6.769   4.933
    1   AR   Ar  127   3.285   4.053   6.657
    1   AR   Ar  128   2.587   5.599   6.272
    1   AR   Ar  129   1.676   0.103   3.210
    1   AR   Ar  130   4.859   2.097  -1.340
    1   AR   Ar  131   4.089   0.656  -0.470
    1   AR   Ar  132   0.917   1.415  -1.057
    1   AR   Ar  133   4.234   0.023   2.588
    1   AR   Ar  134   4.812   1.048   4.095
    1   AR   Ar  135   5.253   0.665   2.970
    1   AR   Ar  136   5.231   0.223   2.084
    1   AR   Ar  137   2.107   5.732   3.796
    1   AR   Ar  138   4.752   1.924   4.693
    1   AR   Ar  139   5.279   2.554   5.403
    1   AR   Ar  140   3.954   7.063   4.731
    1   AR   Ar  141   3.985   5.800   4.566
    1   AR   Ar  142   3.574   6.344   5.482
    1   AR   Ar  143   6.990   6.536   5.963
    1   AR   Ar  144   5.536   1.297   5.820
    1   AR   Ar  145   3.887   4.312   0.284
    1   AR   Ar  146   4.436   2.309   1.529
    1   AR   Ar  147   5.799   2.005  -2.062
    1   AR   Ar  148   3.869   4.155  -1.452
    1   AR   Ar  149   3.668   1.942   0.619
    1   AR   Ar  150   2.313   1.735   2.755
    1   AR   Ar  151   2.900   2.723   3.116
    1   AR   Ar  152   3.471   2.945   0.456
    1   AR   Ar  153   3.824   0.713   3.551
    1   AR   Ar  154   3.954   1.930   3.580
    1   AR   Ar  155   6.357   0.050   6.576
    1   AR   Ar  156   4.182   4.003   4.429
    1   AR   Ar  157   2.647   3.110   5.945
    1   AR   Ar  158   1.304   3.957   6.653
    1   AR   Ar  159   4.394   2.063   5.785
    1   AR   Ar  160   2.551   1.788   5.701
    1   AR   Ar  161   5.340   3.088   1.414
    1   AR   Ar  162   4.413   6.106  -0.823
    1   AR   Ar  163   5.663   3.280   0.363
    1   AR   Ar  164   3.167   5.653   2.064
    1   AR   Ar  165   3.689   3.346   1.497
    1   AR   Ar  166   2.993   3.997   3.964
    1   AR   Ar  167   3.856   1.256   2.620
    1   AR   Ar  168   4.471   3.221  -0.317
    1   AR   Ar  169   2.853   2.917   1.672
    1   AR   Ar  170   2.359   4.152   5.617
    1   AR   Ar  171   5.443   4.143   3.677
    1   AR   Ar  172   4.762   4.977   4.560
    1   AR   Ar  173   2.212   3.569   7.315
    1   AR   Ar  174   2.641   4.847   7.217
    1   AR   Ar  175   3.422   2.558   6.426
    1   AR   Ar  176   3.953   3.384   6.109
    1   AR   Ar  177   6.302   4.816  -0.030
    1   AR   Ar  178   3.197   5.523   0.226
    1   AR   Ar  179   4.677   5.375   0.843
    1   AR   Ar  180   1.602   2.208  -2.129
    1   AR   Ar  181   0.831   6.027   1.199
    1   AR   Ar  182   3.027   0.681   2.937
    1   AR   Ar  183   3.335   5.202   3.007
    1   AR   Ar  184   4.050   6.284   1.439
    1   AR   Ar  185   1.592   4.960   4.373
    1   AR   Ar  186   3.724   4.860   4.053
    1   AR   Ar  187   3.655   6.161   3.443
    1   AR   Ar  188   2.865   6.849   2.091
    1   AR   Ar  189   3.528   2.353   7.760
    1   AR   Ar  190   5.079   6.943   5.397
    1   AR   Ar  191   4.145   4.897   6.638
    1   AR   Ar  192   4.513   5.854   5.456
    1   AR   Ar  193   1.188   6.285   0.269
    1   AR   Ar  194   4.872   3.564  -1.260
    1   AR   Ar  195   6.143   0.843  -0.048
    1   AR   Ar  196   4.962   6.999  -0.369
    1   AR   Ar  197   5.055   1.332   0.624
    1   AR   Ar  198   6.997   1.106   0.695
    1   AR   Ar  199   4.975   1.694   2.498
    1   AR   Ar  200   5.891   1.914   0.210
    1   AR   Ar  201   4.588   6.554   3.588
    1   AR   Ar  202   5.752   2.406   4.443
    1   AR   Ar  203   6.192   6.509   4.457
    1   AR   Ar  204   5.411   0.311   4.539
    1   AR   Ar  205   6.072   7.030   3.067
    1   AR   Ar  206   4.646   0.800   5.066
    1   AR   Ar  207   0.848   1.081   5.901
    1   AR   Ar  208   0.008   6.897   3.245
    1   AR   Ar  209   5.685   3.199  -1.756
    1   AR   Ar  210   3.778   0.974   0.445
    1   AR   Ar  211   6.625   2.948   0.617
    1   AR   Ar  212   6.339   3.951  -0.920
    1   AR   Ar  213   3.315   2.112   2.343
    1   AR   Ar  214   4.161   2.749   2.700
    1   AR   Ar  215   6.001   2.042   1.385
    1   AR   Ar  216   0.131   3.984   1.422
    1   AR   Ar  217   4.666   2.821   4.109
    1   AR   Ar  218   4.576   3.239   5.084
    1   AR   Ar  219   5.237   1.871   3.563
    1   AR   Ar  220   4.917   3.480   2.332
    1   AR   Ar  221   6.089   0.156   5.545
    1   AR   Ar  222   4.951   1.578   6.857
    1   AR   Ar  223   0.537   0.989   7.164
    1   AR   Ar  224   4.890   3.054   6.256
    1   AR   Ar  225   5.838   4.133   1.347
    1   AR   Ar  226   3.905   4.345   2.057
    1   AR   Ar  227   0.127   4.761   0.541
    1   AR   Ar  228   5.174   6.470   1.287
    1   AR   Ar  229   5.448   3.950  -0.375
    1   AR   Ar  230   4.371   4.356   3.420
    1   AR   Ar  231   5.963   1.577   2.882
    1   AR   Ar  232   4.586   2.994   0.670
    1   AR   Ar  233   6.289   2.201   3.597
    1   AR   Ar  234   6.618   3.077   4.530
    1   AR   Ar  235   0.208   2.286   3.842
    1   AR   Ar  236   5.756   4.616   4.940
    1   AR   Ar  237   5.611   3.600   5.331
    1   AR   Ar  238   4.833   4.540   5.624
    1   AR   Ar  239   6.848   4.016   9.288
    1   AR   Ar  240   6.709   3.218   6.141
    1   AR   Ar  241   0.887   6.678  -1.225
    1   AR   Ar  242   5.247   4.482   0.539
    1   AR   Ar  243   5.637   4.126   2.575
    1   AR   Ar  244   1.120   5.566  -0.637
    1   AR   Ar  245   5.567   0.251   0.803
    1   AR   Ar  246   6.404   5.624   1.180
    1   AR   Ar  247   4.508   3.986   1.320
    1   AR   Ar  248   5.254   5.438  -0.177
    1   AR   Ar  249   4.309   5.483   2.157
    1   AR   Ar  250   4.936   6.061   4.505
    1   AR   Ar  251   5.638   5.161   3.848
    1   AR   Ar  252   4.925   5.608   3.222
    1   AR   Ar  253   5.780   3.834   6.374
    1   AR   Ar  254   2.820   5.736   8.396
    1   AR   Ar  255   4.849   2.546   7.540
    1   AR   Ar  256   6.672   6.046   3.623
    7.12000  7.12000 12.00000
Argon-slab step 2715
  256
    1   AR   Ar    1   6.507   1.515  -0.829
    1   AR   Ar    2   6.741   0.144   0.814
    1   AR   Ar    3   1.357   0.960   0.530
    1   AR   Ar    4   1.261   0.511  -0.470
    1   AR   Ar    5   7.033   6.496   0.202
    1   AR   Ar    6   6.832   0.797   2.777
    1   AR   Ar    7   6.432   4.246   3.340
    1   AR   Ar    8   6.398   0.315   1.872
    1   AR   Ar    9   0.786   0.566   3.424
    1   AR   Ar   10   0.777   1.453   4.158
    1   AR   Ar   11   2.151   6.737   4.386
    1   AR   Ar   12   0.854   1.428   2.872
    1   AR   Ar   13   6.586   1.424   5.211
    1   AR   Ar   14   1.379   1.649   7.383
    1   AR   Ar   15   6.268   0.653   9.857
    1   AR   Ar   16   1.056   0.443   4.642
    1   AR   Ar   17   6.883   2.070  -0.015
    1   AR   Ar   18   5.783   2.713  -0.556
    1   AR   Ar   19   1.656   3.098   1.524
    1   AR   Ar   20   4.901   4.372  -2.181
    1   AR   Ar   21   5.693   1.129   1.977
    1   AR   Ar   22   7.010   1.744   2.276
    1   AR   Ar   23   0.156   0.697  -0.176
    1   AR   Ar   24   0.029   2.095   1.156
    1   AR   Ar   25   6.771   1.222   3.800
    1   AR   Ar   26   5.941   1.331   4.334
    1   AR   Ar   27   1.859   1.469   3.610
    1   AR   Ar   28   1.368   2.743   4.442
    1   AR   Ar   29   5.625   2.280   6.609
    1   AR   Ar   30   1.683   1.575   5.306
    1   AR   Ar   31   1.086   6.894   7.835
    1   AR   Ar   32   1.695   2.647   5.990
    1   AR   Ar   33   1.121   3.786  -0.610
    1   AR   Ar   34   7.048   5.317   2.814
    1   AR   Ar   35   6.451   4.947   2.023
    1   AR   Ar   36   0.164   0.606  -3.589
    1   AR   Ar   37   6.253   2.723   2.434
    1   AR   Ar   38   7.083   4.314   2.395
    1   AR   Ar   39   1.519   3.200   3.152
    1   AR   Ar   40   1.385   4.082   1.197
    1   AR   Ar   41   0.399   3.328   3.672
    1   AR   Ar   42   6.771   5.623   4.972
    1   AR   Ar   43   6.921   2.068   6.207
    1   AR   Ar   44   0.730   4.418   3.120
    1   AR   Ar   45   0.394   2.803   5.225
    1   AR   Ar   46   0.990   5.751   6.041
    1   AR   Ar   47   6.203   3.382   7.697
    1   AR   Ar   48   0.592   6.830   6.582
    1   AR   Ar   49   6.200   0.206  -2.051
    1   AR   Ar   50   5.415   5.128   1.510
    1   AR   Ar   51   0.534   5.242   1.951
    1   AR   Ar   52   5.503   4.836  -1.084
    1   AR   Ar   53   5.382   6.381   2.495
    1   AR   Ar   54   6.679   6.149   2.310
    1   AR   Ar   55   6.032   5.366   2.845
    1   AR   Ar   56   0.742   0.053   0.578
    1   AR   Ar   57   5.574   2.941   3.258
    1   AR   Ar   58   6.826   4.968   3.918
    1   AR   Ar   59   1.622   5.699   5.141
    1   AR   Ar   60   0.685   6.595   3.996
    1   AR   Ar   61   6.612   4.228   5.588
    1   AR   Ar   62   0.579   5.231   5.118
    1   AR   Ar   63   2.758   6.936   6.965
    1   AR   Ar   64   0.935   6.375   5.186
    1   AR   Ar   65   3.532   7.084   0.896
    1   AR   Ar   66   0.844   1.511   1.705
    1   AR   Ar   67   2.987   6.298  -1.343
    1   AR   Ar   68   3.261   1.802  -1.012
    1   AR   Ar   69   2.587   1.467   1.029
    1   AR   Ar   70   0.579   6.729   2.314
    1   AR   Ar   71   2.938   1.741   3.767
    1   AR   Ar   72   3.200   0.857   1.688
    1   AR   Ar   73   2.781   0.212   3.843
    1   AR   Ar   74   2.399   1.050   4.564
    1   AR   Ar   75   3.907   1.399   4.526
    1   AR   Ar   76   1.486   0.400   1.881
    1   AR   Ar   77   2.421   6.775   5.901
    1   AR   Ar   78   1.901   0.542   7.091
    1   AR   Ar   79   3.829   6.739   6.485
    1   AR   Ar   80   3.613   5.286   5.667
    1   AR   Ar   81   2.325   0.929  -0.154
    1   AR   Ar   82   0.044   5.903  -0.785
    1   AR   Ar   83   1.071   2.052   0.831
    1   AR   Ar   84   0.081   3.715  -0.157
    1   AR   Ar   85   0.585   3.206   0.723
    1   AR   Ar   86   2.175   3.436   0.473
    1   AR   Ar   87   1.739   1.967   1.611
    1   AR   Ar   88   2.721   4.504   2.060
    1   AR   Ar   89   0.134   2.943   2.214
    1   AR   Ar   90   2.376   2.521   4.957
    1   AR   Ar   91   1.170   2.289   3.538
    1   AR   Ar   92   1.249   2.275   2.491
    1   AR   Ar   93   2.057   0.736   5.648
    1   AR   Ar   94   1.389   7.040   9.914
    1   AR   Ar   95   4.053   0.656   5.936
    1   AR   Ar   96   2.923   0.141   4.982
    1   AR   Ar   97   4.825   1.762  -0.441
    1   AR   Ar   98   2.146   5.264   2.779
    1   AR   Ar   99   6.634   2.473  -1.372
    1   AR   Ar  100   2.601   2.377   0.416
    1   AR   Ar  101   2.436   4.266   1.083
    1   AR   Ar  102   3.452   2.838   4.070
    1   AR   Ar  103   1.140   4.559   0.273
    1   AR   Ar  104   3.095   2.671  -1.597
    1   AR   Ar  105   2.209   3.241   3.940
    1   AR   Ar  106   3.014   3.425   5.043
    1   AR   Ar  107   1.291   3.714   4.867
    1   AR   Ar  108   3.377   2.346   5.274
    1   AR   Ar  109   1.309   4.031   3.902
    1   AR   Ar  110   0.919   4.762   6.105
    1   AR   Ar  111   5.157   3.772   7.402
    1   AR   Ar  112   1.658   5.426   7.008
    1   AR   Ar  113   2.189   4.931   0.170
    1   AR   Ar  114   2.236   5.701  -0.627
    1   AR   Ar  115   2.758   4.417  -0.715
    1   AR   Ar  116   6.295   5.921  -1.696
    1   AR   Ar  117   0.711   5.562   4.056
    1   AR   Ar  118   0.898   5.788   2.868
    1   AR   Ar  119   1.742   3.862   2.351
    1   AR   Ar  120   1.922   6.232   2.292
    1   AR   Ar  121   6.440   4.062   4.514
    1   AR   Ar  122   2.678   6.008   5.111
    1   AR   Ar  123   3.352   4.478   4.954
    1   AR   Ar  124   1.649   5.060   1.503
    1   AR   Ar  125   0.448   3.990   5.716
    1   AR   Ar  126   7.020   6.772   4.948
    1   AR   Ar  127   3.286   4.056   6.619
    1   AR   Ar  128   2.597   5.577   6.279
    1   AR   Ar  129   1.700   0.103   3.217
    1   AR   Ar  130   4.914   2.120  -1.363
    1   AR   Ar  131   4.091   0.646  -0.501
    1   AR   Ar  132   0.913   1.400  -1.028
    1   AR   Ar  133   4.234   0.023   2.582
    1   AR   Ar  134   4.824   1.018   4.121
    1   AR   Ar  135   5.255   0.659   2.982
    1   AR   Ar  136   5.255   0.216   2.083
    1   AR   Ar  137   2.076   5.718   3.797
    1   AR   Ar  138   4.753   1.960   4.687
    1   AR   Ar  139   5.280   2.532   5.403
    1   AR   Ar  140   3.965   7.046   4.754
    1   AR   Ar  141   3.999   5.775   4.569
    1   AR   Ar  142   3.592   6.376   5.461
    1   AR   Ar  143   6.984   6.505   5.965
    1   AR   Ar  144   5.542   1.308   5.806
    1   AR   Ar  145   3.926   4.347   0.300
    1   AR   Ar  146   4.456   2.325   1.518
    1   AR   Ar  147   5.776   2.019  -2.073
    1   AR   Ar  148   3.860   4.124  -1.427
    1   AR   Ar  149   3.668   1.939   0.625
    1   AR   Ar  150   2.292   1.734   2.758
    1   AR   Ar  151   2.910   2.724   3.108
    1   AR   Ar  152   3.494   2.939   0.492
    1   AR   Ar  153   3.840   0.694   3.509
    1   AR   Ar  154   3.911   1.932   3.617
    1   AR   Ar  155   6.354   0.047   6.590
    1   AR   Ar  156   4.175   3.978   4.433
    1   AR   Ar  157   2.651   3.135   5.958
    1   AR   Ar  158   1.307   3.944   6.681
    1   AR   Ar  159   4.411   2.077   5.801
    1   AR   Ar  160   2.559   1.806   5.685
    1   AR   Ar  161   5.303   3.093   1.377
    1   AR   Ar  162   4.399   6.115  -0.828
    1   AR   Ar  163   5.673   3.297   0.340
    1   AR   Ar  164   3.198   5.638   2.073
    1   AR   Ar  165   3.700   3.349   1.487
    1   AR   Ar  166   3.008   4.029   3.982
    1   AR   Ar  167   3.860   1.215   2.622
    1   AR   Ar  168   4.474   3.247  -0.319
    1   AR   Ar  169   2.858   2.898   1.681
    1   AR   Ar  170   2.322   4.157   5.645
    1   AR   Ar  171   5.473   4.115   3.689
    1   AR   Ar  172   4.752   4.972   4.543
    1   AR   Ar  173   2.224   3.574   7.340
    1   AR   Ar  174   2.635   4.830   7.206
    1   AR   Ar  175   3.406   2.561   6.472
    1   AR   Ar  176   3.973   3.376   6.133
    1   AR   Ar  177   6.301   4.816  -0.028
    1   AR   Ar  178   3.195   5.509   0.220
    1   AR   Ar  179   4.664   5.386   0.868
    1   AR   Ar  180   1.579   2.201  -2.161
    1   AR   Ar  181   0.832   6.045   1.202
    1   AR   Ar  182   2.989   0.684   2.911
    1   AR   Ar  183   3.354   5.201   3.013
    1   AR   Ar  184   4.057   6.285   1.426
    1   AR   Ar  185   1.600   4.976   4.385
    1   AR   Ar  186   3.698   4.838   4.033
    1   AR   Ar  187   3.644   6.157   3.441
    1   AR   Ar  188   2.842   6.828   2.076
    1   AR   Ar  189   3.523   2.370   7.748
    1   AR   Ar  190   5.084   6.963   5.383
    1   AR   Ar  191   4.112   4.894   6.642
    1   AR   Ar  192   4.516   5.855   5.449
    1   AR   Ar  193   1.223   6.270   0.273
    1   AR   Ar  194   4.857   3.568  -1.281
    1   AR   Ar  195   6.134   0.812  -0.042
    1   AR   Ar  196   4.970   6.993  -0.351
    1   AR   Ar  197   5.056   1.345   0.641
    1   AR   Ar  198   7.006   1.129   0.669
    1   AR   Ar  199   4.970   1.694   2.495
    1   AR   Ar  200   5.832   1.911   0.211
    1   AR   Ar  201   4.602   6.532   3.573
    1   AR   Ar  202   5.755   2.365   4.457
    1   AR   Ar  203   6.176   6.533   4.429
    1   AR   Ar  204   5.422   0.357   4.509
    1   AR   Ar  205   6.089   7.032   3.060
    1   AR   Ar  206   4.590   0.794   5.071
    1   AR   Ar  207   0.891   1.091   5.861
    1   AR   Ar  208   0.020   6.918   3.250
    1   AR   Ar  209   5.681   3.221  -1.782
    1   AR   Ar  210   3.783   0.950   0.432
    1   AR   Ar  211   6.638   2.925   0.627
    1   AR   Ar  212   6.375   3.932  -0.921
    1   AR   Ar  213   3.309   2.131   2.351
    1   AR   Ar  214   4.175   2.749   2.715
    1   AR   Ar  215   6.022   2.061   1.369
    1   AR   Ar  216   0.153   3.988   1.459
    1   AR   Ar  217   4.669   2.850   4.109
    1   AR   Ar  218   4.589   3.227   5.093
    1   AR   Ar  219   5.225   1.873   3.542
    1   AR   Ar  220   4.877   3.464   2.322
    1   AR   Ar  221   6.067   0.142   5.520
    1   AR   Ar  222   4.956   1.547   6.873
    1   AR   Ar  223   0.549   0.988   7.205
    1   AR   Ar  224   4.896   3.072   6.269
    1   AR   Ar  225   5.841   4.112   1.365
    1   AR   Ar  226   3.885   4.314   2.029
    1   AR   Ar  227   0.093   4.729   0.589
    1   AR   Ar  228   5.180   6.469   1.254
    1   AR   Ar  229   5.447   3.966  -0.350
    1   AR   Ar  230   4.371   4.348   3.402
    1   AR   Ar  231   6.011   1.558   2.878
    1   AR   Ar  232   4.572   3.005   0.664
    1   AR   Ar  233   6.304   2.211   3.613
    1   AR   Ar  234   6.623   3.090   4.520
    1   AR   Ar  235   0.202   2.275   3.840
    1   AR   Ar  236   5.768   4.604   4.967
    1   AR   Ar  237   5.633   3.587   5.327
    1   AR   Ar  238   4.841   4.554   5.617
    1   AR   Ar  239   6.855   4.041   9.264
    1   AR   Ar  240   6.722   3.221   6.171
    1   AR   Ar  241   0.885   6.670  -1.250
    1   AR   Ar  242   5.260   4.481   0.574
    1   AR   Ar  243   5.605   4.116   2.559
    1   AR   Ar  244   1.155   5.583  -0.641
    1   AR   Ar  245   5.551   0.242   0.802
    1   AR   Ar  246   6.402   5.613   1.159
    1   AR   Ar  247   4.544   4.004   1.304
    1   AR   Ar  248   5.271   5.412  -0.168
    1   AR   Ar  249   4.325   5.481   2.136
    1   AR   Ar  250   4.981   6.028   4.500
    1   AR   Ar  251   5.630   5.167   3.856
    1   AR   Ar  252   4.910   5.614   3.219
    1   AR   Ar  253   5.781   3.811   6.353
    1   AR   Ar  254   2.788   5.739   8.400
    1   AR   Ar  255   4.888   2.562   7.558
    1   AR   Ar  256   6.673   6.063   3.634
    7.12000  7.12000 12.00000
Argon-slab step 2720
  256
    1   AR   Ar    1   6.508   1.515  -0.820
    1   AR   Ar    2   6.730   0.135   0.829
    1   AR   Ar    3   1.401   0.991   0.528
    1   AR   Ar    4   1.239   0.521  -0.448
    1   AR   Ar    5   7.060   6.495   0.183
    1   AR   Ar    6   6.847   0.742   2.772
    1   AR   Ar    7   6.428   4.230   3.381
    1   AR   Ar    8   6.401   0.306   1.861
    1   AR   Ar    9   0.771   0.578   3.447
    1   AR   Ar   10   0.750   1.425   4.173
    1   AR   Ar   11   2.152   6.689   4.320
    1   AR   Ar   12   0.809   1.436   2.862
    1   AR   Ar   13   6.602   1.436   5.227
    1   AR   Ar   14   1.356   1.665   7.359
    1   AR   Ar   15   6.240   0.667   9.865
    1   AR   Ar   16   1.030   0.402   4.638
    1   AR   Ar   17   6.896   2.088  -0.038
    1   AR   Ar   18   5.791   2.690  -0.548
    1   AR   Ar   19   1.638   3.124   1.528
    1   AR   Ar   20   4.882   4.330  -2.172
    1   AR   Ar   21   5.639   1.155   1.949
    1   AR   Ar   22   6.998   1.770   2.279
    1   AR   Ar   23   0.161   0.666  -0.188
    1   AR   Ar   24   0.002   2.108   1.146
    1   AR   Ar   25   6.775   1.206   3.784
    1   AR   Ar   26   5.939   1.361   4.344
    1   AR   Ar   27   1.872   1.488   3.621
    1   AR   Ar   28   1.356   2.732   4.444
    1   AR   Ar   29   5.593   2.272   6.592
    1   AR   Ar   30   1.641   1.559   5.265
    1   AR   Ar   31   1.114   6.914   7.841
    1   AR   Ar   32   1.698   2.632   5.979
    1   AR   Ar   33   1.122   3.810  -0.629
    1   AR   Ar   34   7.061   5.335   2.815
    1   AR   Ar   35   6.452   4.903   2.032
    1   AR   Ar   36   0.173   0.609  -3.592
    1   AR   Ar   37   6.243   2.716   2.403
    1   AR   Ar   38   7.064   4.312   2.404
    1   AR   Ar   39   1.508   3.197   3.159
    1   AR   Ar   40   1.419   4.117   1.209
    1   AR   Ar   41   0.404   3.303   3.706
    1   AR   Ar   42   6.772   5.588   4.943
    1   AR   Ar   43   6.896   2.028   6.179
    1   AR   Ar   44   0.728   4.425   3.146
    1   AR   Ar   45   0.387   2.791   5.206
    1   AR   Ar   46   0.992   5.783   6.051
    1   AR   Ar   47   6.201   3.381   7.719
    1   AR   Ar   48   0.595   6.867   6.588
    1   AR   Ar   49   6.183   0.229  -2.054
    1   AR   Ar   50   5.414   5.120   1.492
    1   AR   Ar   51   0.513   5.238   1.936
    1   AR   Ar   52   5.495   4.841  -1.113
    1   AR   Ar   53   5.405   6.383   2.529
    1   AR   Ar   54   6.724   6.153   2.318
    1   AR   Ar   55   6.015   5.379   2.844
    1   AR   Ar   56   0.717   0.053   0.555
    1   AR   Ar   57   5.576   2.951   3.298
    1   AR   Ar   58   6.836   4.952   3.963
    1   AR   Ar   59   1.663   5.688   5.140
    1   AR   Ar   60   0.685   6.599   4.021
    1   AR   Ar   61   6.604   4.234   5.586
    1   AR   Ar   62   0.556   5.224   5.124
    1   AR   Ar   63   2.754   6.958   6.953
    1   AR   Ar   64   0.928   6.396   5.185
    1   AR   Ar   65   3.534   7.063   0.918
    1   AR   Ar   66   0.818   1.498   1.721
    1   AR   Ar   67   3.001   6.325  -1.372
    1   AR   Ar   68   3.261   1.818  -0.988
    1   AR   Ar   69   2.567   1.429   1.045
    1   AR   Ar   70   0.550   6.734   2.314
    1   AR   Ar   71   2.922   1.698   3.749
    1   AR   Ar   72   3.189   0.839   1.716
    1   AR   Ar   73   2.765   0.224   3.834
    1   AR   Ar   74   2.369   1.039   4.518
    1   AR   Ar   75   3.929   1.382   4.501
    1   AR   Ar   76   1.476   0.394   1.919
    1   AR   Ar   77   2.431   6.795   5.899
    1   AR   Ar   78   1.901   0.537   7.058
    1   AR   Ar   79   3.832   6.714   6.486
    1   AR   Ar   80   3.619   5.300   5.673
    1   AR   Ar   81   2.311   0.940  -0.202
    1   AR   Ar   82   0.029   5.913  -0.772
    1   AR   Ar   83   1.048   2.136   0.818
    1   AR   Ar   84   0.080   3.684  -0.155
    1   AR   Ar   85   0.589   3.243   0.698
    1   AR   Ar   86   2.185   3.464   0.439
    1   AR   Ar   87   1.748   1.970   1.594
    1   AR   Ar   88   2.727   4.519   2.047
    1   AR   Ar   89   0.144   2.912   2.215
    1   AR   Ar   90   2.366   2.504   4.958
    1   AR   Ar   91   1.163   2.326   3.520
    1   AR   Ar   92   1.251   2.294   2.533
    1   AR   Ar   93   2.053   0.721   5.675
    1   AR   Ar   94   1.395   7.039   9.927
    1   AR   Ar   95   4.050   0.651   5.925
    1   AR   Ar   96   2.888   0.164   4.981
    1   AR   Ar   97   4.824   1.762  -0.457
    1   AR   Ar   98   2.160   5.295   2.784
    1   AR   Ar   99   6.630   2.471  -1.351
    1   AR   Ar  100   2.634   2.404   0.395
    1   AR   Ar  101   2.450   4.257   1.066
    1   AR   Ar  102   3.441   2.849   4.119
    1   AR   Ar  103   1.143   4.579   0.259
    1   AR   Ar  104   3.114   2.680  -1.580
    1   AR   Ar  105   2.214   3.240   3.925
    1   AR   Ar  106   3.026   3.443   5.078
    1   AR   Ar  107   1.275   3.698   4.894
    1   AR   Ar  108   3.379   2.344   5.287
    1   AR   Ar  109   1.356   4.077   3.894
    1   AR   Ar  110   0.956   4.773   6.141
    1   AR   Ar  111   5.164   3.754   7.429
    1   AR   Ar  112   1.620   5.434   7.003
    1   AR   Ar  113   2.181   4.949   0.172
    1   AR   Ar  114   2.199   5.698  -0.613
    1   AR   Ar  115   2.721   4.432  -0.729
    1   AR   Ar  116   6.306   5.946  -1.679
    1   AR   Ar  117   0.709   5.567   4.040
    1   AR   Ar  118   0.897   5.768   2.843
    1   AR   Ar  119   1.708   3.887   2.385
    1   AR   Ar  120   1.883   6.255   2.302
    1   AR   Ar  121   6.467   4.103   4.521
    1   AR   Ar  122   2.669   6.010   5.109
    1   AR   Ar  123   3.376   4.429   4.950
    1   AR   Ar  124   1.664   5.084   1.491
    1   AR   Ar  125   0.459   3.943   5.708
    1   AR   Ar  126   7.006   6.776   4.963
    1   AR   Ar  127   3.286   4.060   6.580
    1   AR   Ar  128   2.605   5.559   6.289
    1   AR   Ar  129   1.728   0.102   3.223
    1   AR   Ar  130   4.970   2.149  -1.394
    1   AR   Ar  131   4.098   0.649  -0.517
    1   AR   Ar  132   0.908   1.386  -0.999
    1   AR   Ar  133   4.215   0.021   2.624
    1   AR   Ar  134   4.830   1.000   4.129
    1   AR   Ar  135   5.256   0.659   3.001
    1   AR   Ar  136   5.260   0.217   2.078
    1   AR   Ar  137   2.045   5.708   3.797
    1   AR   Ar  138   4.767   2.002   4.674
    1   AR   Ar  139   5.288   2.508   5.406
    1   AR   Ar  140   3.981   7.032   4.774
    1   AR   Ar  141   4.001   5.749   4.567
    1   AR   Ar  142   3.608   6.409   5.443
    1   AR   Ar  143   6.972   6.471   5.963
    1   AR   Ar  144   5.548   1.320   5.792
    1   AR   Ar  145   3.967   4.382   0.318
    1   AR   Ar  146   4.476   2.342   1.509
    1   AR   Ar  147   5.737   2.029  -2.098
    1   AR   Ar  148   3.850   4.109  -1.404
    1   AR   Ar  149   3.668   1.939   0.634
    1   AR   Ar  150   2.275   1.738   2.752
    1   AR   Ar  151   2.918   2.727   3.103
    1   AR   Ar  152   3.504   2.944   0.500
    1   AR   Ar  153   3.860   0.673   3.475
    1   AR   Ar  154   3.877   1.937   3.649
    1   AR   Ar  155   6.379   0.075   6.606
    1   AR   Ar  156   4.169   3.951   4.436
    1   AR   Ar  157   2.654   3.160   5.975
    1   AR   Ar  158   1.311   3.929   6.710
    1   AR   Ar  159   4.426   2.091   5.818
    1   AR   Ar  160   2.567   1.819   5.670
    1   AR   Ar  161   5.271   3.098   1.344
    1   AR   Ar  162   4.386   6.123  -0.832
    1   AR   Ar  163   5.683   3.307   0.326
    1   AR   Ar  164   3.228   5.625   2.078
    1   AR   Ar  165   3.719   3.342   1.476
    1   AR   Ar  166   3.027   4.069   4.012
    1   AR   Ar  167   3.867   1.177   2.619
    1   AR   Ar  168   4.477   3.274  -0.326
    1   AR   Ar  169   2.848   2.872   1.691
    1   AR   Ar  170   2.285   4.161   5.672
    1   AR   Ar  171   5.497   4.084   3.704
    1   AR   Ar  172   4.741   4.963   4.525
    1   AR   Ar  173   2.235   3.579   7.364
    1   AR   Ar  174   2.627   4.812   7.195
    1   AR   Ar  175   3.390   2.560   6.518
    1   AR   Ar  176   3.984   3.373   6.152
    1   AR   Ar  177   6.297   4.814  -0.027
    1   AR   Ar  178   3.192   5.493   0.214
    1   AR   Ar  179   4.646   5.398   0.890
    1   AR   Ar  180   1.557   2.193  -2.193
    1   AR   Ar  181   0.830   6.062   1.209
    1   AR   Ar  182   2.945   0.687   2.881
    1   AR   Ar  183   3.372   5.197   3.021
    1   AR   Ar  184   4.064   6.286   1.414
    1   AR   Ar  185   1.616   4.979   4.404
    1   AR   Ar  186   3.673   4.824   4.010
    1   AR   Ar  187   3.629   6.151   3.440
    1   AR   Ar  188   2.821   6.809   2.061
    1   AR   Ar  189   3.519   2.388   7.736
    1   AR   Ar  190   5.081   6.979   5.367
    1   AR   Ar  191   4.078   4.892   6.644
    1   AR   Ar  192   4.510   5.861   5.463
    1   AR   Ar  193   1.260   6.254   0.270
    1   AR   Ar  194   4.838   3.574  -1.300
    1   AR   Ar  195   6.126   0.781  -0.035
    1   AR   Ar  196   4.978   6.988  -0.331
    1   AR   Ar  197   5.061   1.359   0.660
    1   AR   Ar  198   7.012   1.161   0.652
    1   AR   Ar  199   4.962   1.695   2.493
    1   AR   Ar  200   5.775   1.911   0.212
    1   AR   Ar  201   4.619   6.517   3.561
    1   AR   Ar  202   5.755   2.329   4.473
    1   AR   Ar  203   6.152   6.558   4.400
    1   AR   Ar  204   5.445   0.391   4.483
    1   AR   Ar  205   6.105   7.034   3.051
    1   AR   Ar  206   4.536   0.787   5.082
    1   AR   Ar  207   0.877   1.073   5.890
    1   AR   Ar  208   0.033   6.942   3.251
    1   AR   Ar  209   5.683   3.241  -1.808
    1   AR   Ar  210   3.783   0.933   0.442
    1   AR   Ar  211   6.628   2.910   0.620
    1   AR   Ar  212   6.409   3.913  -0.921
    1   AR   Ar  213   3.304   2.146   2.357
    1   AR   Ar  214   4.188   2.745   2.730
    1   AR   Ar  215   6.043   2.080   1.353
    1   AR   Ar  216   0.175   3.990   1.489
    1   AR   Ar  217   4.671   2.879   4.104
    1   AR   Ar  218   4.597   3.217   5.106
    1   AR   Ar  219   5.212   1.876   3.526
    1   AR   Ar  220   4.832   3.444   2.310
    1   AR   Ar  221   6.052   0.137   5.509
    1   AR   Ar  222   4.957   1.513   6.888
    1   AR   Ar  223   0.565   0.980   7.232
    1   AR   Ar  224   4.914   3.086   6.284
    1   AR   Ar  225   5.845   4.088   1.386
    1   AR   Ar  226   3.858   4.299   2.059
    1   AR   Ar  227   0.059   4.696   0.639
    1   AR   Ar  228   5.184   6.464   1.223
    1   AR   Ar  229   5.442   3.989  -0.334
    1   AR   Ar  230   4.375   4.339   3.381
    1   AR   Ar  231   6.060   1.536   2.871
    1   AR   Ar  232   4.556   3.016   0.661
    1   AR   Ar  233   6.300   2.243   3.617
    1   AR   Ar  234   6.630   3.091   4.509
    1   AR   Ar  235   0.189   2.266   3.841
    1   AR   Ar  236   5.769   4.602   4.999
    1   AR   Ar  237   5.654   3.574   5.321
    1   AR   Ar  238   4.848   4.567   5.610
    1   AR   Ar  239   6.862   4.066   9.239
    1   AR   Ar  240   6.736   3.224   6.200
    1   AR   Ar  241   0.884   6.661  -1.273
    1   AR   Ar  242   5.271   4.482   0.607
    1   AR   Ar  243   5.579   4.112   2.544
    1   AR   Ar  244   1.188   5.600  -0.644
    1   AR   Ar  245   5.537   0.236   0.801
    1   AR   Ar  246   6.401   5.603   1.137
    1   AR   Ar  247   4.586   4.021   1.284
    1   AR   Ar  248   5.286   5.386  -0.157
    1   AR   Ar  249   4.332   5.486   2.108
    1   AR   Ar  250   5.034   5.999   4.492
    1   AR   Ar  251   5.590   5.159   3.906
    1   AR   Ar  252   4.908   5.630   3.209
    1   AR   Ar  253   5.781   3.788   6.335
    1   AR   Ar  254   2.757   5.742   8.404
    1   AR   Ar  255   4.928   2.578   7.573
    1   AR   Ar  256   6.676   6.100   3.643
    7.12000  7.12000 12.00000
Argon-slab step 2725
  256
    1   AR   Ar    1   6.523   1.534  -0.841
    1   AR   Ar    2   6.718   0.128   0.845
    1   AR   Ar    3   1.445   1.023   0.529
    1   AR   Ar    4   1.218   0.528  -0.425
    1   AR   Ar    5   7.089   6.491   0.162
    1   AR   Ar    6   6.863   0.690   2.766
    1   AR   Ar    7   6.431   4.211   3.413
    1   AR   Ar    8   6.403   0.296   1.851
    1   AR   Ar    9   0.794   0.545   3.435
    1   AR   Ar   10   0.724   1.396   4.188
    1   AR   Ar   11   2.148   6.637   4.258
    1   AR   Ar   12   0.760   1.442   2.853
    1   AR   Ar   13   6.618   1.448   5.244
    1   AR   Ar   14   1.335   1.682   7.334
    1   AR   Ar   15   6.212   0.682   9.872
    1   AR   Ar   16   1.004   0.362   4.632
    1   AR   Ar   17   6.896   2.080  -0.049
    1   AR   Ar   18   5.798   2.667  -0.542
    1   AR   Ar   19   1.621   3.146   1.533
    1   AR   Ar   20   4.862   4.287  -2.161
    1   AR   Ar   21   5.590   1.184   1.915
    1   AR   Ar   22   6.985   1.798   2.282
    1   AR   Ar   23   0.167   0.631  -0.207
    1   AR   Ar   24   7.096   2.122   1.137
    1   AR   Ar   25   6.771   1.177   3.792
    1   AR   Ar   26   5.931   1.383   4.354
    1   AR   Ar   27   1.877   1.502   3.641
    1   AR   Ar   28   1.344   2.720   4.450
    1   AR   Ar   29   5.565   2.267   6.572
    1   AR   Ar   30   1.593   1.549   5.218
    1   AR   Ar   31   1.143   6.936   7.846
    1   AR   Ar   32   1.701   2.616   5.965
    1   AR   Ar   33   1.123   3.834  -0.646
    1   AR   Ar   34   7.076   5.348   2.826
    1   AR   Ar   35   6.444   4.858   2.025
    1   AR   Ar   36   0.182   0.612  -3.595
    1   AR   Ar   37   6.231   2.706   2.373
    1   AR   Ar   38   7.062   4.292   2.433
    1   AR   Ar   39   1.496   3.200   3.163
    1   AR   Ar   40   1.448   4.149   1.221
    1   AR   Ar   41   0.411   3.280   3.739
    1   AR   Ar   42   6.762   5.559   4.911
    1   AR   Ar   43   6.871   1.988   6.150
    1   AR   Ar   44   0.723   4.435   3.169
    1   AR   Ar   45   0.381   2.780   5.187
    1   AR   Ar   46   0.994   5.821   6.062
    1   AR   Ar   47   6.197   3.381   7.740
    1   AR   Ar   48   0.602   6.906   6.596
    1   AR   Ar   49   6.165   0.251  -2.055
    1   AR   Ar   50   5.419   5.111   1.481
    1   AR   Ar   51   0.493   5.233   1.917
    1   AR   Ar   52   5.487   4.845  -1.142
    1   AR   Ar   53   5.427   6.381   2.564
    1   AR   Ar   54   6.765   6.161   2.323
    1   AR   Ar   55   5.993   5.395   2.848
    1   AR   Ar   56   0.692   0.054   0.532
    1   AR   Ar   57   5.575   2.964   3.338
    1   AR   Ar   58   6.849   4.945   4.010
    1   AR   Ar   59   1.706   5.676   5.143
    1   AR   Ar   60   0.687   6.608   4.049
    1   AR   Ar   61   6.591   4.240   5.584
    1   AR   Ar   62   0.533   5.232   5.136
    1   AR   Ar   63   2.751   6.978   6.940
    1   AR   Ar   64   0.914   6.424   5.181
    1   AR   Ar   65   3.534   7.044   0.939
    1   AR   Ar   66   0.790   1.484   1.737
    1   AR   Ar   67   2.993   6.331  -1.398
    1   AR   Ar   68   3.262   1.832  -0.960
    1   AR   Ar   69   2.547   1.392   1.060
    1   AR   Ar   70   0.523   6.739   2.314
    1   AR   Ar   71   2.898   1.653   3.732
    1   AR   Ar   72   3.180   0.820   1.746
    1   AR   Ar   73   2.756   0.232   3.832
    1   AR   Ar   74   2.353   1.006   4.496
    1   AR   Ar   75   3.942   1.365   4.480
    1   AR   Ar   76   1.466   0.388   1.958
    1   AR   Ar   77   2.443   6.815   5.895
    1   AR   Ar   78   1.900   0.531   7.025
    1   AR   Ar   79   3.835   6.690   6.487
    1   AR   Ar   80   3.624   5.313   5.678
    1   AR   Ar   81   2.297   0.951  -0.249
    1   AR   Ar   82   0.014   5.922  -0.759
    1   AR   Ar   83   1.028   2.121   0.804
    1   AR   Ar   84   0.078   3.655  -0.151
    1   AR   Ar   85   0.594   3.279   0.676
    1   AR   Ar   86   2.194   3.490   0.405
    1   AR   Ar   87   1.764   1.974   1.579
    1   AR   Ar   88   2.696   4.535   2.048
    1   AR   Ar   89   0.158   2.881   2.214
    1   AR   Ar   90   2.360   2.508   4.937
    1   AR   Ar   91   1.156   2.355   3.510
    1   AR   Ar   92   1.256   2.317   2.560
    1   AR   Ar   93   2.047   0.700   5.713
    1   AR   Ar   94   1.400   7.038   9.939
    1   AR   Ar   95   4.060   0.639   5.925
    1   AR   Ar   96   2.853   0.187   4.980
    1   AR   Ar   97   4.823   1.759  -0.466
    1   AR   Ar   98   2.174   5.325   2.788
    1   AR   Ar   99   6.623   2.471  -1.331
    1   AR   Ar  100   2.662   2.427   0.375
    1   AR   Ar  101   2.467   4.251   1.047
    1   AR   Ar  102   3.430   2.861   4.170
    1   AR   Ar  103   1.145   4.598   0.244
    1   AR   Ar  104   3.133   2.689  -1.591
    1   AR   Ar  105   2.215   3.241   3.921
    1   AR   Ar  106   3.040   3.459   5.105
    1   AR   Ar  107   1.260   3.682   4.924
    1   AR   Ar  108   3.387   2.346   5.299
    1   AR   Ar  109   1.405   4.119   3.886
    1   AR   Ar  110   0.994   4.782   6.177
    1   AR   Ar  111   5.171   3.734   7.454
    1   AR   Ar  112   1.582   5.442   6.996
    1   AR   Ar  113   2.183   4.958   0.186
    1   AR   Ar  114   2.170   5.696  -0.601
    1   AR   Ar  115   2.674   4.446  -0.747
    1   AR   Ar  116   6.317   5.970  -1.660
    1   AR   Ar  117   0.707   5.594   4.045
    1   AR   Ar  118   0.900   5.750   2.819
    1   AR   Ar  119   1.675   3.915   2.416
    1   AR   Ar  120   1.842   6.277   2.314
    1   AR   Ar  121   6.500   4.142   4.522
    1   AR   Ar  122   2.662   6.012   5.106
    1   AR   Ar  123   3.400   4.385   4.953
    1   AR   Ar  124   1.679   5.112   1.480
    1   AR   Ar  125   0.437   3.950   5.696
    1   AR   Ar  126   6.995   6.782   4.975
    1   AR   Ar  127   3.282   4.065   6.541
    1   AR   Ar  128   2.603   5.561   6.317
    1   AR   Ar  129   1.759   0.101   3.230
    1   AR   Ar  130   5.026   2.183  -1.427
    1   AR   Ar  131   4.113   0.673  -0.507
    1   AR   Ar  132   0.902   1.372  -0.970
    1   AR   Ar  133   4.197   0.020   2.666
    1   AR   Ar  134   4.822   1.001   4.118
    1   AR   Ar  135   5.256   0.662   3.027
    1   AR   Ar  136   5.239   0.231   2.076
    1   AR   Ar  137   2.015   5.700   3.796
    1   AR   Ar  138   4.777   2.040   4.661
    1   AR   Ar  139   5.305   2.484   5.416
    1   AR   Ar  140   3.965   7.048   4.753
    1   AR   Ar  141   3.997   5.723   4.562
    1   AR   Ar  142   3.581   6.388   5.422
    1   AR   Ar  143   6.959   6.433   5.961
    1   AR   Ar  144   5.552   1.333   5.776
    1   AR   Ar  145   4.009   4.416   0.336
    1   AR   Ar  146   4.494   2.358   1.501
    1   AR   Ar  147   5.702   2.040  -2.124
    1   AR   Ar  148   3.826   4.155  -1.391
    1   AR   Ar  149   3.669   1.939   0.645
    1   AR   Ar  150   2.264   1.744   2.736
    1   AR   Ar  151   2.919   2.723   3.108
    1   AR   Ar  152   3.498   2.963   0.466
    1   AR   Ar  153   3.882   0.648   3.454
    1   AR   Ar  154   3.856   1.948   3.673
    1   AR   Ar  155   6.405   0.102   6.621
    1   AR   Ar  156   4.158   3.923   4.436
    1   AR   Ar  157   2.657   3.182   5.997
    1   AR   Ar  158   1.317   3.913   6.738
    1   AR   Ar  159   4.438   2.104   5.836
    1   AR   Ar  160   2.578   1.826   5.663
    1   AR   Ar  161   5.247   3.105   1.318
    1   AR   Ar  162   4.372   6.131  -0.835
    1   AR   Ar  163   5.693   3.311   0.323
    1   AR   Ar  164   3.256   5.613   2.080
    1   AR   Ar  165   3.739   3.313   1.465
    1   AR   Ar  166   3.038   4.098   4.040
    1   AR   Ar  167   3.876   1.146   2.607
    1   AR   Ar  168   4.480   3.302  -0.337
    1   AR   Ar  169   2.831   2.843   1.702
    1   AR   Ar  170   2.249   4.166   5.699
    1   AR   Ar  171   5.512   4.050   3.723
    1   AR   Ar  172   4.729   4.951   4.509
    1   AR   Ar  173   2.247   3.586   7.385
    1   AR   Ar  174   2.620   4.795   7.182
    1   AR   Ar  175   3.373   2.557   6.565
    1   AR   Ar  176   3.985   3.374   6.166
    1   AR   Ar  177   6.291   4.810  -0.027
    1   AR   Ar  178   3.189   5.478   0.208
    1   AR   Ar  179   4.623   5.413   0.907
    1   AR   Ar  180   1.535   2.186  -2.225
    1   AR   Ar  181   0.826   6.078   1.221
    1   AR   Ar  182   2.898   0.692   2.848
    1   AR   Ar  183   3.391   5.189   3.029
    1   AR   Ar  184   4.043   6.276   1.426
    1   AR   Ar  185   1.629   4.977   4.423
    1   AR   Ar  186   3.655   4.823   3.988
    1   AR   Ar  187   3.613   6.146   3.440
    1   AR   Ar  188   2.802   6.791   2.046
    1   AR   Ar  189   3.515   2.406   7.722
    1   AR   Ar  190   5.063   6.989   5.337
    1   AR   Ar  191   4.045   4.888   6.644
    1   AR   Ar  192   4.511   5.866   5.480
    1   AR   Ar  193   1.248   6.254   0.287
    1   AR   Ar  194   4.818   3.583  -1.317
    1   AR   Ar  195   6.118   0.752  -0.025
    1   AR   Ar  196   4.985   6.984  -0.311
    1   AR   Ar  197   5.060   1.367   0.682
    1   AR   Ar  198   7.016   1.198   0.640
    1   AR   Ar  199   4.948   1.700   2.494
    1   AR   Ar  200   5.725   1.914   0.209
    1   AR   Ar  201   4.636   6.513   3.553
    1   AR   Ar  202   5.752   2.305   4.493
    1   AR   Ar  203   6.121   6.584   4.374
    1   AR   Ar  204   5.487   0.407   4.468
    1   AR   Ar  205   6.114   7.026   3.003
    1   AR   Ar  206   4.492   0.781   5.090
    1   AR   Ar  207   0.862   1.055   5.918
    1   AR   Ar  208   0.046   6.967   3.251
    1   AR   Ar  209   5.687   3.258  -1.835
    1   AR   Ar  210   3.779   0.919   0.466
    1   AR   Ar  211   6.613   2.897   0.609
    1   AR   Ar  212   6.442   3.894  -0.920
    1   AR   Ar  213   3.303   2.157   2.359
    1   AR   Ar  214   4.199   2.738   2.747
    1   AR   Ar  215   6.063   2.100   1.337
    1   AR   Ar  216   0.201   3.988   1.509
    1   AR   Ar  217   4.674   2.909   4.093
    1   AR   Ar  218   4.600   3.215   5.119
    1   AR   Ar  219   5.199   1.881   3.513
    1   AR   Ar  220   4.784   3.423   2.294
    1   AR   Ar  221   6.044   0.148   5.522
    1   AR   Ar  222   4.955   1.477   6.903
    1   AR   Ar  223   0.580   0.969   7.258
    1   AR   Ar  224   4.944   3.097   6.300
    1   AR   Ar  225   5.851   4.062   1.410
    1   AR   Ar  226   3.830   4.286   2.091
    1   AR   Ar  227   0.025   4.664   0.689
    1   AR   Ar  228   5.187   6.456   1.195
    1   AR   Ar  229   5.434   4.020  -0.330
    1   AR   Ar  230   4.382   4.330   3.359
    1   AR   Ar  231   6.109   1.513   2.865
    1   AR   Ar  232   4.534   3.027   0.656
    1   AR   Ar  233   6.279   2.286   3.605
    1   AR   Ar  234   6.637   3.085   4.497
    1   AR   Ar  235   0.175   2.255   3.845
    1   AR   Ar  236   5.760   4.610   5.034
    1   AR   Ar  237   5.676   3.558   5.310
    1   AR   Ar  238   4.854   4.580   5.602
    1   AR   Ar  239   6.869   4.090   9.213
    1   AR   Ar  240   6.750   3.226   6.227
    1   AR   Ar  241   0.882   6.651  -1.294
    1   AR   Ar  242   5.282   4.485   0.635
    1   AR   Ar  243   5.592   4.071   2.572
    1   AR   Ar  244   1.213   5.616  -0.647
    1   AR   Ar  245   5.525   0.235   0.799
    1   AR   Ar  246   6.400   5.593   1.116
    1   AR   Ar  247   4.629   4.036   1.265
    1   AR   Ar  248   5.302   5.358  -0.144
    1   AR   Ar  249   4.333   5.495   2.075
    1   AR   Ar  250   5.091   5.972   4.483
    1   AR   Ar  251   5.555   5.151   3.955
    1   AR   Ar  252   4.907   5.637   3.196
    1   AR   Ar  253   5.782   3.765   6.320
    1   AR   Ar  254   2.725   5.745   8.407
    1   AR   Ar  255   4.968   2.595   7.587
    1   AR   Ar  256   6.680   6.130   3.649
    7.12000  7.12000 12.00000
Argon-slab step 2730
  256
    1   AR   Ar    1   6.536   1.547  -0.862
    1   AR   Ar    2   6.706   0.122   0.858
    1   AR   Ar    3   1.488   1.056   0.531
    1   AR   Ar    4   1.212   0.542  -0.413
    1   AR   Ar    5   7.118   6.485   0.141
    1   AR   Ar    6   6.878   0.645   2.758
    1   AR   Ar    7   6.444   4.192   3.437
    1   AR   Ar    8   6.403   0.287   1.844
    1   AR   Ar    9   0.818   0.515   3.425
    1   AR   Ar   10   0.701   1.367   4.202
    1   AR   Ar   11   2.140   6.586   4.202
    1   AR   Ar   12   0.726   1.450   2.853
    1   AR   Ar   13   6.632   1.460   5.259
    1   AR   Ar   14   1.317   1.701   7.309
    1   AR   Ar   15   6.184   0.697   9.880
    1   AR   Ar   16   0.979   0.322   4.627
    1   AR   Ar   17   6.897   2.073  -0.056
    1   AR   Ar   18   5.805   2.644  -0.541
    1   AR   Ar   19   1.604   3.166   1.538
    1   AR   Ar   20   4.843   4.244  -2.149
    1   AR   Ar   21   5.550   1.212   1.875
    1   AR   Ar   22   6.972   1.826   2.285
    1   AR   Ar   23   0.171   0.596  -0.229
    1   AR   Ar   24   7.075   2.137   1.133
    1   AR   Ar   25   6.772   1.148   3.796
    1   AR   Ar   26   5.923   1.386   4.363
    1   AR   Ar   27   1.873   1.514   3.667
    1   AR   Ar   28   1.335   2.714   4.462
    1   AR   Ar   29   5.552   2.221   6.549
    1   AR   Ar   30   1.545   1.542   5.168
    1   AR   Ar   31   1.173   6.958   7.849
    1   AR   Ar   32   1.711   2.621   5.975
    1   AR   Ar   33   1.123   3.859  -0.661
    1   AR   Ar   34   7.089   5.351   2.846
    1   AR   Ar   35   6.418   4.832   2.003
    1   AR   Ar   36   0.191   0.615  -3.599
    1   AR   Ar   37   6.216   2.695   2.344
    1   AR   Ar   38   7.077   4.256   2.482
    1   AR   Ar   39   1.485   3.214   3.163
    1   AR   Ar   40   1.477   4.156   1.241
    1   AR   Ar   41   0.420   3.260   3.772
    1   AR   Ar   42   6.739   5.536   4.875
    1   AR   Ar   43   6.845   1.951   6.122
    1   AR   Ar   44   0.715   4.447   3.190
    1   AR   Ar   45   0.374   2.769   5.168
    1   AR   Ar   46   0.995   5.862   6.074
    1   AR   Ar   47   6.194   3.379   7.760
    1   AR   Ar   48   0.609   6.945   6.604
    1   AR   Ar   49   6.148   0.273  -2.057
    1   AR   Ar   50   5.429   5.101   1.476
    1   AR   Ar   51   0.473   5.227   1.897
    1   AR   Ar   52   5.479   4.847  -1.170
    1   AR   Ar   53   5.446   6.376   2.597
    1   AR   Ar   54   6.800   6.174   2.326
    1   AR   Ar   55   5.969   5.411   2.855
    1   AR   Ar   56   0.670   0.057   0.512
    1   AR   Ar   57   5.568   2.981   3.376
    1   AR   Ar   58   6.866   4.947   4.054
    1   AR   Ar   59   1.743   5.667   5.152
    1   AR   Ar   60   0.688   6.623   4.076
    1   AR   Ar   61   6.572   4.247   5.586
    1   AR   Ar   62   0.525   5.235   5.150
    1   AR   Ar   63   2.750   6.998   6.927
    1   AR   Ar   64   0.899   6.452   5.175
    1   AR   Ar   65   3.524   7.011   0.946
    1   AR   Ar   66   0.760   1.469   1.753
    1   AR   Ar   67   2.980   6.332  -1.422
    1   AR   Ar   68   3.272   1.845  -0.964
    1   AR   Ar   69   2.526   1.356   1.073
    1   AR   Ar   70   0.500   6.746   2.313
    1   AR   Ar   71   2.871   1.605   3.714
    1   AR   Ar   72   3.171   0.800   1.777
    1   AR   Ar   73   2.768   0.216   3.861
    1   AR   Ar   74   2.346   0.960   4.491
    1   AR   Ar   75   3.943   1.348   4.463
    1   AR   Ar   76   1.455   0.382   1.997
    1   AR   Ar   77   2.455   6.831   5.891
    1   AR   Ar   78   1.895   0.527   6.991
    1   AR   Ar   79   3.836   6.666   6.485
    1   AR   Ar   80   3.626   5.325   5.683
    1   AR   Ar   81   2.282   0.963  -0.295
    1   AR   Ar   82   7.120   5.931  -0.748
    1   AR   Ar   83   1.008   2.106   0.789
    1   AR   Ar   84   0.074   3.627  -0.149
    1   AR   Ar   85   0.602   3.313   0.658
    1   AR   Ar   86   2.200   3.513   0.368
    1   AR   Ar   87   1.781   1.980   1.565
    1   AR   Ar   88   2.664   4.553   2.052
    1   AR   Ar   89   0.174   2.851   2.213
    1   AR   Ar   90   2.353   2.517   4.911
    1   AR   Ar   91   1.144   2.369   3.519
    1   AR   Ar   92   1.264   2.342   2.565
    1   AR   Ar   93   2.042   0.679   5.750
    1   AR   Ar   94   1.405   7.037   9.951
    1   AR   Ar   95   4.060   0.622   5.944
    1   AR   Ar   96   2.819   0.207   4.980
    1   AR   Ar   97   4.821   1.756  -0.471
    1   AR   Ar   98   2.190   5.354   2.789
    1   AR   Ar   99   6.615   2.473  -1.311
    1   AR   Ar  100   2.683   2.444   0.356
    1   AR   Ar  101   2.489   4.248   1.029
    1   AR   Ar  102   3.418   2.874   4.222
    1   AR   Ar  103   1.146   4.617   0.229
    1   AR   Ar  104   3.151   2.699  -1.602
    1   AR   Ar  105   2.193   3.255   3.949
    1   AR   Ar  106   3.055   3.469   5.127
    1   AR   Ar  107   1.244   3.668   4.956
    1   AR   Ar  108   3.401   2.351   5.310
    1   AR   Ar  109   1.456   4.154   3.878
    1   AR   Ar  110   1.032   4.789   6.212
    1   AR   Ar  111   5.178   3.713   7.478
    1   AR   Ar  112   1.545   5.449   6.987
    1   AR   Ar  113   2.192   4.960   0.209
    1   AR   Ar  114   2.162   5.697  -0.587
    1   AR   Ar  115   2.658   4.465  -0.763
    1   AR   Ar  116   6.329   5.995  -1.641
    1   AR   Ar  117   0.705   5.620   4.055
    1   AR   Ar  118   0.908   5.734   2.796
    1   AR   Ar  119   1.659   3.909   2.439
    1   AR   Ar  120   1.799   6.301   2.325
    1   AR   Ar  121   6.507   4.144   4.535
    1   AR   Ar  122   2.658   6.016   5.101
    1   AR   Ar  123   3.425   4.354   4.965
    1   AR   Ar  124   1.696   5.145   1.471
    1   AR   Ar  125   0.413   3.967   5.684
    1   AR   Ar  126   6.987   6.789   4.984
    1   AR   Ar  127   3.275   4.071   6.502
    1   AR   Ar  128   2.601   5.563   6.344
    1   AR   Ar  129   1.791   0.098   3.236
    1   AR   Ar  130   5.074   2.221  -1.451
    1   AR   Ar  131   4.130   0.695  -0.498
    1   AR   Ar  132   0.894   1.361  -0.941
    1   AR   Ar  133   4.181   0.016   2.706
    1   AR   Ar  134   4.808   1.013   4.093
    1   AR   Ar  135   5.256   0.669   3.056
    1   AR   Ar  136   5.217   0.239   2.071
    1   AR   Ar  137   1.999   5.702   3.796
    1   AR   Ar  138   4.780   2.070   4.647
    1   AR   Ar  139   5.329   2.463   5.434
    1   AR   Ar  140   3.941   7.073   4.719
    1   AR   Ar  141   3.990   5.701   4.555
    1   AR   Ar  142   3.552   6.367   5.407
    1   AR   Ar  143   6.948   6.418   5.953
    1   AR   Ar  144   5.556   1.347   5.759
    1   AR   Ar  145   4.052   4.449   0.356
    1   AR   Ar  146   4.511   2.373   1.496
    1   AR   Ar  147   5.677   2.050  -2.159
    1   AR   Ar  148   3.804   4.202  -1.378
    1   AR   Ar  149   3.670   1.940   0.659
    1   AR   Ar  150   2.256   1.754   2.713
    1   AR   Ar  151   2.900   2.688   3.131
    1   AR   Ar  152   3.496   2.990   0.431
    1   AR   Ar  153   3.903   0.619   3.448
    1   AR   Ar  154   3.844   1.967   3.687
    1   AR   Ar  155   6.432   0.130   6.634
    1   AR   Ar  156   4.125   3.895   4.426
    1   AR   Ar  157   2.631   3.196   6.007
    1   AR   Ar  158   1.324   3.896   6.766
    1   AR   Ar  159   4.437   2.118   5.857
    1   AR   Ar  160   2.585   1.827   5.662
    1   AR   Ar  161   5.237   3.114   1.303
    1   AR   Ar  162   4.359   6.139  -0.837
    1   AR   Ar  163   5.701   3.310   0.327
    1   AR   Ar  164   3.282   5.604   2.080
    1   AR   Ar  165   3.765   3.287   1.456
    1   AR   Ar  166   3.034   4.108   4.065
    1   AR   Ar  167   3.886   1.123   2.584
    1   AR   Ar  168   4.486   3.297  -0.328
    1   AR   Ar  169   2.814   2.824   1.712
    1   AR   Ar  170   2.213   4.171   5.725
    1   AR   Ar  171   5.514   4.015   3.746
    1   AR   Ar  172   4.711   4.932   4.496
    1   AR   Ar  173   2.260   3.593   7.405
    1   AR   Ar  174   2.612   4.777   7.167
    1   AR   Ar  175   3.357   2.553   6.610
    1   AR   Ar  176   3.983   3.386   6.155
    1   AR   Ar  177   6.283   4.806  -0.026
    1   AR   Ar  178   3.185   5.461   0.201
    1   AR   Ar  179   4.595   5.428   0.922
    1   AR   Ar  180   1.512   2.179  -2.256
    1   AR   Ar  181   0.820   6.093   1.238
    1   AR   Ar  182   2.850   0.697   2.815
    1   AR   Ar  183   3.409   5.177   3.037
    1   AR   Ar  184   4.024   6.265   1.439
    1   AR   Ar  185   1.639   4.969   4.442
    1   AR   Ar  186   3.651   4.838   3.967
    1   AR   Ar  187   3.598   6.143   3.441
    1   AR   Ar  188   2.784   6.773   2.031
    1   AR   Ar  189   3.512   2.425   7.707
    1   AR   Ar  190   5.040   6.997   5.305
    1   AR   Ar  191   4.010   4.885   6.643
    1   AR   Ar  192   4.517   5.872   5.498
    1   AR   Ar  193   1.237   6.254   0.299
    1   AR   Ar  194   4.797   3.592  -1.333
    1   AR   Ar  195   6.113   0.728  -0.022
    1   AR   Ar  196   4.993   6.980  -0.290
    1   AR   Ar  197   5.050   1.369   0.710
    1   AR   Ar  198   7.019   1.234   0.629
    1   AR   Ar  199   4.929   1.709   2.497
    1   AR   Ar  200   5.686   1.923   0.203
    1   AR   Ar  201   4.652   6.521   3.549
    1   AR   Ar  202   5.749   2.305   4.515
    1   AR   Ar  203   6.085   6.613   4.351
    1   AR   Ar  204   5.542   0.408   4.460
    1   AR   Ar  205   6.124   7.021   2.956
    1   AR   Ar  206   4.464   0.776   5.087
    1   AR   Ar  207   0.848   1.037   5.948
    1   AR   Ar  208   0.059   6.986   3.253
    1   AR   Ar  209   5.694   3.274  -1.862
    1   AR   Ar  210   3.774   0.902   0.493
    1   AR   Ar  211   6.600   2.890   0.599
    1   AR   Ar  212   6.457   3.895  -0.922
    1   AR   Ar  213   3.305   2.160   2.357
    1   AR   Ar  214   4.204   2.723   2.769
    1   AR   Ar  215   6.079   2.120   1.321
    1   AR   Ar  216   0.229   3.983   1.524
    1   AR   Ar  217   4.676   2.942   4.079
    1   AR   Ar  218   4.592   3.240   5.124
    1   AR   Ar  219   5.187   1.885   3.503
    1   AR   Ar  220   4.739   3.408   2.272
    1   AR   Ar  221   6.041   0.160   5.535
    1   AR   Ar  222   4.951   1.440   6.918
    1   AR   Ar  223   0.593   0.954   7.282
    1   AR   Ar  224   4.979   3.105   6.315
    1   AR   Ar  225   5.858   4.035   1.437
    1   AR   Ar  226   3.804   4.273   2.123
    1   AR   Ar  227   7.112   4.632   0.738
    1   AR   Ar  228   5.198   6.444   1.163
    1   AR   Ar  229   5.465   4.019  -0.352
    1   AR   Ar  230   4.390   4.320   3.336
    1   AR   Ar  231   6.156   1.488   2.858
    1   AR   Ar  232   4.506   3.037   0.646
    1   AR   Ar  233   6.262   2.325   3.592
    1   AR   Ar  234   6.645   3.076   4.484
    1   AR   Ar  235   0.158   2.243   3.850
    1   AR   Ar  236   5.745   4.623   5.068
    1   AR   Ar  237   5.698   3.541   5.296
    1   AR   Ar  238   4.857   4.593   5.595
    1   AR   Ar  239   6.876   4.115   9.188
    1   AR   Ar  240   6.764   3.229   6.251
    1   AR   Ar  241   0.880   6.641  -1.313
    1   AR   Ar  242   5.295   4.492   0.655
    1   AR   Ar  243   5.609   4.052   2.587
    1   AR   Ar  244   1.219   5.631  -0.649
    1   AR   Ar  245   5.516   0.261   0.801
    1   AR   Ar  246   6.399   5.581   1.095
    1   AR   Ar  247   4.667   4.048   1.250
    1   AR   Ar  248   5.317   5.330  -0.130
    1   AR   Ar  249   4.338   5.501   2.045
    1   AR   Ar  250   5.148   5.950   4.474
    1   AR   Ar  251   5.560   5.136   3.965
    1   AR   Ar  252   4.909   5.632   3.178
    1   AR   Ar  253   5.784   3.745   6.309
    1   AR   Ar  254   2.693   5.748   8.409
    1   AR   Ar  255   4.971   2.614   7.577
    1   AR   Ar  256   6.688   6.153   3.651
    7.12000  7.12000 12.00000
Argon-slab step 2735
  256
    1   AR   Ar    1   6.546   1.553  -0.883
    1   AR   Ar    2   6.694   0.117   0.867
    1   AR   Ar    3   1.531   1.090   0.535
    1   AR   Ar    4   1.213   0.552  -0.402
    1   AR   Ar    5   0.025   6.479   0.121
    1   AR   Ar    6   6.892   0.615   2.742
    1   AR   Ar    7   6.465   4.173   3.455
    1   AR   Ar    8   6.399   0.278   1.841
    1   AR   Ar    9   0.844   0.489   3.418
    1   AR   Ar   10   0.680   1.336   4.215
    1   AR   Ar   11   2.131   6.545   4.154
    1   AR   Ar   12   0.752   1.469   2.882
    1   AR   Ar   13   6.643   1.468   5.266
    1   AR   Ar   14   1.303   1.722   7.283
    1   AR   Ar   15   6.156   0.711   9.888
    1   AR   Ar   16   0.955   0.288   4.625
    1   AR   Ar   17   6.899   2.070  -0.060
    1   AR   Ar   18   5.813   2.624  -0.543
    1   AR   Ar   19   1.589   3.180   1.545
    1   AR   Ar   20   4.824   4.203  -2.139
    1   AR   Ar   21   5.517   1.241   1.829
    1   AR   Ar   22   6.960   1.853   2.285
    1   AR   Ar   23   0.169   0.563  -0.253
    1   AR   Ar   24   7.064   2.153   1.132
    1   AR   Ar   25   6.777   1.118   3.797
    1   AR   Ar   26   5.915   1.371   4.369
    1   AR   Ar   27   1.857   1.524   3.695
    1   AR   Ar   28   1.330   2.718   4.482
    1   AR   Ar   29   5.562   2.191   6.539
    1   AR   Ar   30   1.497   1.535   5.117
    1   AR   Ar   31   1.202   6.982   7.850
    1   AR   Ar   32   1.721   2.625   5.983
    1   AR   Ar   33   1.123   3.885  -0.674
    1   AR   Ar   34   7.096   5.345   2.872
    1   AR   Ar   35   6.385   4.812   1.976
    1   AR   Ar   36   0.199   0.618  -3.602
    1   AR   Ar   37   6.199   2.682   2.316
    1   AR   Ar   38   7.095   4.214   2.540
    1   AR   Ar   39   1.476   3.236   3.163
    1   AR   Ar   40   1.503   4.149   1.265
    1   AR   Ar   41   0.432   3.244   3.806
    1   AR   Ar   42   6.705   5.521   4.841
    1   AR   Ar   43   6.821   1.918   6.100
    1   AR   Ar   44   0.707   4.462   3.211
    1   AR   Ar   45   0.369   2.760   5.147
    1   AR   Ar   46   0.997   5.905   6.085
    1   AR   Ar   47   6.190   3.378   7.779
    1   AR   Ar   48   0.617   6.985   6.612
    1   AR   Ar   49   6.130   0.295  -2.058
    1   AR   Ar   50   5.441   5.093   1.477
    1   AR   Ar   51   0.453   5.219   1.874
    1   AR   Ar   52   5.472   4.848  -1.197
    1   AR   Ar   53   5.459   6.367   2.626
    1   AR   Ar   54   6.824   6.187   2.326
    1   AR   Ar   55   5.945   5.427   2.862
    1   AR   Ar   56   0.652   0.063   0.497
    1   AR   Ar   57   5.552   3.007   3.411
    1   AR   Ar   58   6.889   4.956   4.089
    1   AR   Ar   59   1.766   5.660   5.169
    1   AR   Ar   60   0.679   6.658   4.076
    1   AR   Ar   61   6.548   4.254   5.591
    1   AR   Ar   62   0.528   5.236   5.168
    1   AR   Ar   63   2.750   7.016   6.914
    1   AR   Ar   64   0.883   6.480   5.167
    1   AR   Ar   65   3.499   6.956   0.930
    1   AR   Ar   66   0.731   1.456   1.767
    1   AR   Ar   67   2.966   6.332  -1.445
    1   AR   Ar   68   3.280   1.863  -0.968
    1   AR   Ar   69   2.511   1.325   1.080
    1   AR   Ar   70   0.487   6.758   2.309
    1   AR   Ar   71   2.850   1.556   3.696
    1   AR   Ar   72   3.164   0.779   1.806
    1   AR   Ar   73   2.784   0.202   3.887
    1   AR   Ar   74   2.333   0.922   4.486
    1   AR   Ar   75   3.930   1.334   4.450
    1   AR   Ar   76   1.443   0.376   2.038
    1   AR   Ar   77   2.468   6.844   5.886
    1   AR   Ar   78   1.888   0.524   6.956
    1   AR   Ar   79   3.836   6.642   6.482
    1   AR   Ar   80   3.635   5.295   5.665
    1   AR   Ar   81   2.267   0.975  -0.340
    1   AR   Ar   82   7.107   5.938  -0.740
    1   AR   Ar   83   0.987   2.092   0.775
    1   AR   Ar   84   0.066   3.602  -0.151
    1   AR   Ar   85   0.614   3.345   0.647
    1   AR   Ar   86   2.205   3.532   0.330
    1   AR   Ar   87   1.798   1.987   1.554
    1   AR   Ar   88   2.632   4.572   2.058
    1   AR   Ar   89   0.193   2.822   2.211
    1   AR   Ar   90   2.344   2.530   4.882
    1   AR   Ar   91   1.127   2.370   3.545
    1   AR   Ar   92   1.275   2.366   2.549
    1   AR   Ar   93   2.035   0.661   5.787
    1   AR   Ar   94   1.410   7.036   9.964
    1   AR   Ar   95   4.052   0.601   5.979
    1   AR   Ar   96   2.789   0.220   4.983
    1   AR   Ar   97   4.837   1.782  -0.463
    1   AR   Ar   98   2.206   5.382   2.788
    1   AR   Ar   99   6.606   2.480  -1.292
    1   AR   Ar  100   2.692   2.453   0.338
    1   AR   Ar  101   2.515   4.250   1.013
    1   AR   Ar  102   3.406   2.887   4.275
    1   AR   Ar  103   1.145   4.636   0.214
    1   AR   Ar  104   3.170   2.712  -1.614
    1   AR   Ar  105   2.170   3.247   3.977
    1   AR   Ar  106   3.066   3.466   5.144
    1   AR   Ar  107   1.229   3.656   4.988
    1   AR   Ar  108   3.420   2.361   5.319
    1   AR   Ar  109   1.508   4.180   3.867
    1   AR   Ar  110   1.070   4.795   6.245
    1   AR   Ar  111   5.184   3.692   7.499
    1   AR   Ar  112   1.509   5.456   6.977
    1   AR   Ar  113   2.199   4.961   0.233
    1   AR   Ar  114   2.177   5.699  -0.573
    1   AR   Ar  115   2.641   4.485  -0.778
    1   AR   Ar  116   6.340   6.020  -1.621
    1   AR   Ar  117   0.703   5.637   4.065
    1   AR   Ar  118   0.922   5.722   2.774
    1   AR   Ar  119   1.643   3.909   2.457
    1   AR   Ar  120   1.755   6.324   2.337
    1   AR   Ar  121   6.494   4.120   4.559
    1   AR   Ar  122   2.660   6.022   5.093
    1   AR   Ar  123   3.452   4.344   4.987
    1   AR   Ar  124   1.714   5.182   1.464
    1   AR   Ar  125   0.397   3.981   5.673
    1   AR   Ar  126   6.978   6.797   4.987
    1   AR   Ar  127   3.263   4.079   6.463
    1   AR   Ar  128   2.598   5.565   6.370
    1   AR   Ar  129   1.825   0.095   3.243
    1   AR   Ar  130   5.108   2.265  -1.456
    1   AR   Ar  131   4.148   0.718  -0.490
    1   AR   Ar  132   0.883   1.353  -0.914
    1   AR   Ar  133   4.168   0.007   2.738
    1   AR   Ar  134   4.796   1.028   4.060
    1   AR   Ar  135   5.256   0.678   3.087
    1   AR   Ar  136   5.193   0.242   2.064
    1   AR   Ar  137   2.000   5.708   3.795
    1   AR   Ar  138   4.773   2.092   4.632
    1   AR   Ar  139   5.357   2.445   5.460
    1   AR   Ar  140   3.917   7.098   4.681
    1   AR   Ar  141   3.979   5.681   4.548
    1   AR   Ar  142   3.528   6.350   5.396
    1   AR   Ar  143   6.941   6.439   5.939
    1   AR   Ar  144   5.559   1.363   5.741
    1   AR   Ar  145   4.072   4.472   0.379
    1   AR   Ar  146   4.524   2.384   1.494
    1   AR   Ar  147   5.667   2.057  -2.210
    1   AR   Ar  148   3.782   4.247  -1.365
    1   AR   Ar  149   3.671   1.945   0.675
    1   AR   Ar  150   2.249   1.764   2.687
    1   AR   Ar  151   2.878   2.655   3.161
    1   AR   Ar  152   3.500   3.026   0.396
    1   AR   Ar  153   3.920   0.593   3.460
    1   AR   Ar  154   3.838   1.994   3.693
    1   AR   Ar  155   6.459   0.157   6.646
    1   AR   Ar  156   4.097   3.865   4.407
    1   AR   Ar  157   2.598   3.206   6.019
    1   AR   Ar  158   1.333   3.878   6.793
    1   AR   Ar  159   4.419   2.136   5.881
    1   AR   Ar  160   2.588   1.823   5.666
    1   AR   Ar  161   5.238   3.124   1.296
    1   AR   Ar  162   4.347   6.148  -0.838
    1   AR   Ar  163   5.705   3.307   0.336
    1   AR   Ar  164   3.304   5.595   2.077
    1   AR   Ar  165   3.793   3.261   1.448
    1   AR   Ar  166   3.015   4.099   4.085
    1   AR   Ar  167   3.897   1.106   2.554
    1   AR   Ar  168   4.494   3.269  -0.310
    1   AR   Ar  169   2.814   2.839   1.705
    1   AR   Ar  170   2.176   4.176   5.751
    1   AR   Ar  171   5.505   3.979   3.774
    1   AR   Ar  172   4.697   4.919   4.490
    1   AR   Ar  173   2.273   3.602   7.423
    1   AR   Ar  174   2.603   4.758   7.152
    1   AR   Ar  175   3.341   2.549   6.653
    1   AR   Ar  176   4.002   3.397   6.151
    1   AR   Ar  177   6.275   4.799  -0.025
    1   AR   Ar  178   3.182   5.443   0.194
    1   AR   Ar  179   4.566   5.443   0.935
    1   AR   Ar  180   1.490   2.171  -2.286
    1   AR   Ar  181   0.812   6.109   1.259
    1   AR   Ar  182   2.802   0.703   2.784
    1   AR   Ar  183   3.426   5.164   3.039
    1   AR   Ar  184   4.006   6.254   1.453
    1   AR   Ar  185   1.648   4.959   4.462
    1   AR   Ar  186   3.661   4.866   3.951
    1   AR   Ar  187   3.583   6.141   3.443
    1   AR   Ar  188   2.767   6.756   2.017
    1   AR   Ar  189   3.501   2.423   7.674
    1   AR   Ar  190   5.014   7.001   5.273
    1   AR   Ar  191   3.987   4.900   6.640
    1   AR   Ar  192   4.527   5.879   5.516
    1   AR   Ar  193   1.227   6.253   0.306
    1   AR   Ar  194   4.775   3.600  -1.345
    1   AR   Ar  195   6.112   0.723  -0.047
    1   AR   Ar  196   5.000   6.977  -0.267
    1   AR   Ar  197   5.033   1.363   0.745
    1   AR   Ar  198   7.021   1.264   0.618
    1   AR   Ar  199   4.903   1.720   2.503
    1   AR   Ar  200   5.657   1.937   0.193
    1   AR   Ar  201   4.665   6.538   3.549
    1   AR   Ar  202   5.751   2.329   4.535
    1   AR   Ar  203   6.046   6.641   4.332
    1   AR   Ar  204   5.599   0.404   4.456
    1   AR   Ar  205   6.139   7.020   2.912
    1   AR   Ar  206   4.452   0.772   5.077
    1   AR   Ar  207   0.835   1.018   5.977
    1   AR   Ar  208   0.073   6.990   3.261
    1   AR   Ar  209   5.702   3.287  -1.887
    1   AR   Ar  210   3.767   0.888   0.514
    1   AR   Ar  211   6.597   2.899   0.592
    1   AR   Ar  212   6.444   3.911  -0.929
    1   AR   Ar  213   3.312   2.156   2.354
    1   AR   Ar  214   4.208   2.710   2.807
    1   AR   Ar  215   6.087   2.140   1.307
    1   AR   Ar  216   0.260   3.974   1.537
    1   AR   Ar  217   4.679   2.976   4.060
    1   AR   Ar  218   4.585   3.263   5.132
    1   AR   Ar  219   5.176   1.891   3.499
    1   AR   Ar  220   4.698   3.399   2.245
    1   AR   Ar  221   6.041   0.173   5.546
    1   AR   Ar  222   4.945   1.401   6.933
    1   AR   Ar  223   0.603   0.935   7.305
    1   AR   Ar  224   5.013   3.109   6.330
    1   AR   Ar  225   5.867   4.007   1.466
    1   AR   Ar  226   3.778   4.260   2.154
    1   AR   Ar  227   7.078   4.603   0.785
    1   AR   Ar  228   5.209   6.429   1.130
    1   AR   Ar  229   5.494   4.023  -0.380
    1   AR   Ar  230   4.400   4.311   3.314
    1   AR   Ar  231   6.198   1.463   2.854
    1   AR   Ar  232   4.475   3.045   0.636
    1   AR   Ar  233   6.254   2.354   3.578
    1   AR   Ar  234   6.652   3.064   4.471
    1   AR   Ar  235   0.139   2.227   3.858
    1   AR   Ar  236   5.728   4.642   5.098
    1   AR   Ar  237   5.719   3.521   5.276
    1   AR   Ar  238   4.855   4.604   5.589
    1   AR   Ar  239   6.883   4.139   9.163
    1   AR   Ar  240   6.778   3.232   6.274
    1   AR   Ar  241   0.877   6.630  -1.330
    1   AR   Ar  242   5.317   4.503   0.658
    1   AR   Ar  243   5.630   4.067   2.582
    1   AR   Ar  244   1.200   5.645  -0.653
    1   AR   Ar  245   5.509   0.305   0.805
    1   AR   Ar  246   6.399   5.568   1.075
    1   AR   Ar  247   4.694   4.053   1.246
    1   AR   Ar  248   5.330   5.301  -0.115
    1   AR   Ar  249   4.366   5.479   2.048
    1   AR   Ar  250   5.203   5.932   4.467
    1   AR   Ar  251   5.595   5.114   3.947
    1   AR   Ar  252   4.911   5.616   3.158
    1   AR   Ar  253   5.789   3.730   6.302
    1   AR   Ar  254   2.661   5.751   8.411
    1   AR   Ar  255   4.953   2.644   7.567
    1   AR   Ar  256   6.697   6.169   3.650
    7.12000  7.12000 12.00000
Argon-slab step 2740
  256
    1   AR   Ar    1   6.553   1.550  -0.903
    1   AR   Ar    2   6.707   0.097   0.909
    1   AR   Ar    3   1.573   1.124   0.539
    1   AR   Ar    4   1.219   0.555  -0.386
    1   AR   Ar    5   0.049   6.472   0.106
    1   AR   Ar    6   6.905   0.603   2.717
    1   AR   Ar    7   6.490   4.152   3.438
    1   AR   Ar    8   6.391   0.269   1.843
    1   AR   Ar    9   0.876   0.469   3.413
    1   AR   Ar   10   0.661   1.306   4.228
    1   AR   Ar   11   2.125   6.535   4.122
    1   AR   Ar   12   0.777   1.488   2.913
    1   AR   Ar   13   6.649   1.468   5.256
    1   AR   Ar   14   1.291   1.745   7.256
    1   AR   Ar   15   6.128   0.726   9.896
    1   AR   Ar   16   0.937   0.268   4.630
    1   AR   Ar   17   6.902   2.070  -0.062
    1   AR   Ar   18   5.822   2.608  -0.549
    1   AR   Ar   19   1.578   3.202   1.528
    1   AR   Ar   20   4.806   4.168  -2.135
    1   AR   Ar   21   5.489   1.268   1.780
    1   AR   Ar   22   6.950   1.877   2.282
    1   AR   Ar   23   0.160   0.534  -0.281
    1   AR   Ar   24   7.065   2.170   1.137
    1   AR   Ar   25   6.784   1.089   3.794
    1   AR   Ar   26   5.905   1.352   4.367
    1   AR   Ar   27   1.829   1.534   3.723
    1   AR   Ar   28   1.325   2.722   4.506
    1   AR   Ar   29   5.600   2.200   6.549
    1   AR   Ar   30   1.450   1.528   5.065
    1   AR   Ar   31   1.231   7.006   7.849
    1   AR   Ar   32   1.730   2.635   6.011
    1   AR   Ar   33   1.122   3.911  -0.686
    1   AR   Ar   34   7.098   5.332   2.903
    1   AR   Ar   35   6.353   4.795   1.949
    1   AR   Ar   36   0.208   0.621  -3.605
    1   AR   Ar   37   6.181   2.669   2.289
    1   AR   Ar   38   7.109   4.172   2.595
    1   AR   Ar   39   1.465   3.259   3.169
    1   AR   Ar   40   1.525   4.147   1.287
    1   AR   Ar   41   0.446   3.230   3.839
    1   AR   Ar   42   6.662   5.520   4.820
    1   AR   Ar   43   6.799   1.894   6.093
    1   AR   Ar   44   0.701   4.479   3.235
    1   AR   Ar   45   0.364   2.751   5.127
    1   AR   Ar   46   0.998   5.947   6.097
    1   AR   Ar   47   6.187   3.376   7.798
    1   AR   Ar   48   0.619   7.013   6.623
    1   AR   Ar   49   6.113   0.316  -2.059
    1   AR   Ar   50   5.455   5.088   1.485
    1   AR   Ar   51   0.431   5.210   1.851
    1   AR   Ar   52   5.460   4.842  -1.210
    1   AR   Ar   53   5.464   6.353   2.650
    1   AR   Ar   54   6.834   6.193   2.326
    1   AR   Ar   55   5.925   5.441   2.870
    1   AR   Ar   56   0.642   0.073   0.489
    1   AR   Ar   57   5.526   3.037   3.439
    1   AR   Ar   58   6.918   4.958   4.105
    1   AR   Ar   59   1.774   5.654   5.194
    1   AR   Ar   60   0.661   6.696   4.050
    1   AR   Ar   61   6.524   4.253   5.611
    1   AR   Ar   62   0.538   5.236   5.187
    1   AR   Ar   63   2.754   7.032   6.901
    1   AR   Ar   64   0.869   6.505   5.159
    1   AR   Ar   65   3.471   6.908   0.911
    1   AR   Ar   66   0.703   1.443   1.780
    1   AR   Ar   67   2.952   6.332  -1.467
    1   AR   Ar   68   3.269   1.902  -0.943
    1   AR   Ar   69   2.502   1.301   1.080
    1   AR   Ar   70   0.480   6.794   2.287
    1   AR   Ar   71   2.835   1.553   3.703
    1   AR   Ar   72   3.158   0.758   1.832
    1   AR   Ar   73   2.805   0.189   3.907
    1   AR   Ar   74   2.311   0.897   4.476
    1   AR   Ar   75   3.903   1.324   4.439
    1   AR   Ar   76   1.431   0.369   2.080
    1   AR   Ar   77   2.483   6.850   5.881
    1   AR   Ar   78   1.877   0.522   6.920
    1   AR   Ar   79   3.836   6.618   6.478
    1   AR   Ar   80   3.645   5.254   5.641
    1   AR   Ar   81   2.251   0.988  -0.384
    1   AR   Ar   82   7.095   5.942  -0.738
    1   AR   Ar   83   0.966   2.076   0.760
    1   AR   Ar   84   0.053   3.579  -0.159
    1   AR   Ar   85   0.630   3.374   0.644
    1   AR   Ar   86   2.208   3.549   0.290
    1   AR   Ar   87   1.814   1.995   1.545
    1   AR   Ar   88   2.600   4.592   2.065
    1   AR   Ar   89   0.215   2.798   2.208
    1   AR   Ar   90   2.337   2.544   4.853
    1   AR   Ar   91   1.108   2.361   3.575
    1   AR   Ar   92   1.286   2.390   2.522
    1   AR   Ar   93   2.026   0.648   5.822
    1   AR   Ar   94   1.415   7.035   9.976
    1   AR   Ar   95   4.040   0.578   6.022
    1   AR   Ar   96   2.768   0.221   4.994
    1   AR   Ar   97   4.862   1.827  -0.449
    1   AR   Ar   98   2.224   5.409   2.785
    1   AR   Ar   99   6.596   2.494  -1.276
    1   AR   Ar  100   2.693   2.456   0.320
    1   AR   Ar  101   2.546   4.254   0.998
    1   AR   Ar  102   3.394   2.900   4.326
    1   AR   Ar  103   1.144   4.653   0.201
    1   AR   Ar  104   3.189   2.726  -1.627
    1   AR   Ar  105   2.145   3.223   4.004
    1   AR   Ar  106   3.075   3.450   5.159
    1   AR   Ar  107   1.213   3.645   5.020
    1   AR   Ar  108   3.437   2.371   5.306
    1   AR   Ar  109   1.559   4.195   3.850
    1   AR   Ar  110   1.108   4.801   6.274
    1   AR   Ar  111   5.191   3.672   7.518
    1   AR   Ar  112   1.476   5.463   6.968
    1   AR   Ar  113   2.206   4.961   0.258
    1   AR   Ar  114   2.206   5.703  -0.558
    1   AR   Ar  115   2.625   4.505  -0.791
    1   AR   Ar  116   6.352   6.044  -1.600
    1   AR   Ar  117   0.702   5.648   4.075
    1   AR   Ar  118   0.941   5.713   2.752
    1   AR   Ar  119   1.630   3.918   2.465
    1   AR   Ar  120   1.711   6.349   2.349
    1   AR   Ar  121   6.480   4.093   4.580
    1   AR   Ar  122   2.664   6.030   5.079
    1   AR   Ar  123   3.481   4.355   5.018
    1   AR   Ar  124   1.733   5.221   1.457
    1   AR   Ar  125   0.388   3.994   5.662
    1   AR   Ar  126   6.969   6.807   4.983
    1   AR   Ar  127   3.247   4.089   6.424
    1   AR   Ar  128   2.596   5.569   6.393
    1   AR   Ar  129   1.862   0.091   3.248
    1   AR   Ar  130   5.132   2.316  -1.446
    1   AR   Ar  131   4.168   0.742  -0.483
    1   AR   Ar  132   0.868   1.352  -0.890
    1   AR   Ar  133   4.161   7.106   2.756
    1   AR   Ar  134   4.793   1.041   4.023
    1   AR   Ar  135   5.255   0.688   3.118
    1   AR   Ar  136   5.171   0.242   2.058
    1   AR   Ar  137   1.996   5.683   3.780
    1   AR   Ar  138   4.757   2.108   4.617
    1   AR   Ar  139   5.385   2.431   5.493
    1   AR   Ar  140   3.891   7.119   4.640
    1   AR   Ar  141   3.967   5.668   4.543
    1   AR   Ar  142   3.516   6.339   5.390
    1   AR   Ar  143   6.936   6.458   5.930
    1   AR   Ar  144   5.563   1.378   5.721
    1   AR   Ar  145   4.057   4.477   0.406
    1   AR   Ar  146   4.533   2.377   1.496
    1   AR   Ar  147   5.693   2.020  -2.245
    1   AR   Ar  148   3.761   4.292  -1.351
    1   AR   Ar  149   3.673   1.952   0.691
    1   AR   Ar  150   2.244   1.775   2.661
    1   AR   Ar  151   2.854   2.622   3.196
    1   AR   Ar  152   3.505   3.069   0.359
    1   AR   Ar  153   3.933   0.576   3.490
    1   AR   Ar  154   3.833   2.027   3.691
    1   AR   Ar  155   6.488   0.184   6.656
    1   AR   Ar  156   4.074   3.832   4.381
    1   AR   Ar  157   2.567   3.215   6.035
    1   AR   Ar  158   1.329   3.874   6.767
    1   AR   Ar  159   4.400   2.154   5.905
    1   AR   Ar  160   2.594   1.824   5.657
    1   AR   Ar  161   5.248   3.134   1.294
    1   AR   Ar  162   4.335   6.156  -0.839
    1   AR   Ar  163   5.671   3.313   0.311
    1   AR   Ar  164   3.323   5.588   2.072
    1   AR   Ar  165   3.823   3.236   1.442
    1   AR   Ar  166   2.989   4.082   4.103
    1   AR   Ar  167   3.908   1.092   2.522
    1   AR   Ar  168   4.503   3.246  -0.307
    1   AR   Ar  169   2.830   2.853   1.695
    1   AR   Ar  170   2.140   4.182   5.777
    1   AR   Ar  171   5.491   3.947   3.807
    1   AR   Ar  172   4.717   4.945   4.504
    1   AR   Ar  173   2.286   3.611   7.439
    1   AR   Ar  174   2.594   4.738   7.136
    1   AR   Ar  175   3.324   2.548   6.689
    1   AR   Ar  176   4.024   3.401   6.155
    1   AR   Ar  177   6.268   4.790  -0.024
    1   AR   Ar  178   3.180   5.426   0.187
    1   AR   Ar  179   4.537   5.457   0.947
    1   AR   Ar  180   1.467   2.164  -2.317
    1   AR   Ar  181   0.802   6.124   1.284
    1   AR   Ar  182   2.753   0.709   2.759
    1   AR   Ar  183   3.440   5.150   3.031
    1   AR   Ar  184   3.991   6.241   1.468
    1   AR   Ar  185   1.655   4.950   4.484
    1   AR   Ar  186   3.680   4.894   3.944
    1   AR   Ar  187   3.569   6.142   3.446
    1   AR   Ar  188   2.751   6.740   2.003
    1   AR   Ar  189   3.481   2.389   7.619
    1   AR   Ar  190   4.987   7.004   5.239
    1   AR   Ar  191   3.971   4.926   6.636
    1   AR   Ar  192   4.539   5.887   5.532
    1   AR   Ar  193   1.218   6.252   0.309
    1   AR   Ar  194   4.754   3.602  -1.347
    1   AR   Ar  195   6.114   0.719  -0.072
    1   AR   Ar  196   5.007   6.974  -0.244
    1   AR   Ar  197   5.024   1.356   0.774
    1   AR   Ar  198   7.024   1.287   0.605
    1   AR   Ar  199   4.873   1.734   2.509
    1   AR   Ar  200   5.636   1.952   0.187
    1   AR   Ar  201   4.670   6.560   3.552
    1   AR   Ar  202   5.760   2.368   4.550
    1   AR   Ar  203   6.011   6.661   4.313
    1   AR   Ar  204   5.651   0.404   4.454
    1   AR   Ar  205   6.159   7.025   2.872
    1   AR   Ar  206   4.452   0.770   5.065
    1   AR   Ar  207   0.823   0.998   6.006
    1   AR   Ar  208   0.086   6.978   3.277
    1   AR   Ar  209   5.710   3.300  -1.910
    1   AR   Ar  210   3.751   0.890   0.510
    1   AR   Ar  211   6.596   2.909   0.584
    1   AR   Ar  212   6.425   3.906  -0.939
    1   AR   Ar  213   3.297   2.136   2.366
    1   AR   Ar  214   4.209   2.696   2.858
    1   AR   Ar  215   6.084   2.160   1.294
    1   AR   Ar  216   0.294   3.962   1.552
    1   AR   Ar  217   4.680   3.011   4.040
    1   AR   Ar  218   4.579   3.283   5.144
    1   AR   Ar  219   5.168   1.899   3.499
    1   AR   Ar  220   4.660   3.395   2.213
    1   AR   Ar  221   6.043   0.187   5.557
    1   AR   Ar  222   4.938   1.362   6.946
    1   AR   Ar  223   0.613   0.912   7.327
    1   AR   Ar  224   5.040   3.107   6.345
    1   AR   Ar  225   5.875   3.979   1.493
    1   AR   Ar  226   3.753   4.248   2.185
    1   AR   Ar  227   7.042   4.577   0.828
    1   AR   Ar  228   5.219   6.412   1.100
    1   AR   Ar  229   5.520   4.032  -0.411
    1   AR   Ar  230   4.410   4.301   3.292
    1   AR   Ar  231   6.233   1.436   2.853
    1   AR   Ar  232   4.448   3.051   0.636
    1   AR   Ar  233   6.253   2.372   3.565
    1   AR   Ar  234   6.658   3.050   4.456
    1   AR   Ar  235   0.119   2.208   3.868
    1   AR   Ar  236   5.713   4.663   5.119
    1   AR   Ar  237   5.740   3.501   5.252
    1   AR   Ar  238   4.843   4.615   5.587
    1   AR   Ar  239   6.889   4.164   9.137
    1   AR   Ar  240   6.793   3.235   6.295
    1   AR   Ar  241   0.874   6.619  -1.344
    1   AR   Ar  242   5.347   4.518   0.645
    1   AR   Ar  243   5.652   4.081   2.577
    1   AR   Ar  244   1.166   5.658  -0.656
    1   AR   Ar  245   5.502   0.351   0.811
    1   AR   Ar  246   6.399   5.553   1.055
    1   AR   Ar  247   4.710   4.051   1.252
    1   AR   Ar  248   5.342   5.272  -0.101
    1   AR   Ar  249   4.361   5.511   2.057
    1   AR   Ar  250   5.254   5.917   4.461
    1   AR   Ar  251   5.635   5.088   3.926
    1   AR   Ar  252   4.912   5.594   3.138
    1   AR   Ar  253   5.803   3.722   6.298
    1   AR   Ar  254   2.628   5.753   8.412
    1   AR   Ar  255   4.935   2.669   7.552
    1   AR   Ar  256   6.706   6.178   3.649
    7.12000  7.12000 12.00000
Argon-slab step 2745
  256
    1   AR   Ar    1   6.558   1.538  -0.923
    1   AR   Ar    2   6.723   0.077   0.941
    1   AR   Ar    3   1.613   1.159   0.543
    1   AR   Ar    4   1.230   0.550  -0.365
    1   AR   Ar    5   0.065   6.464   0.100
    1   AR   Ar    6   6.921   0.606   2.685
    1   AR   Ar    7   6.497   4.161   3.418
    1   AR   Ar    8   6.378   0.261   1.852
    1   AR   Ar    9   0.910   0.457   3.410
    1   AR   Ar   10   0.645   1.276   4.240
    1   AR   Ar   11   2.121   6.553   4.105
    1   AR   Ar   12   0.801   1.507   2.946
    1   AR   Ar   13   6.651   1.458   5.226
    1   AR   Ar   14   1.281   1.769   7.228
    1   AR   Ar   15   6.100   0.741   9.904
    1   AR   Ar   16   0.926   0.272   4.647
    1   AR   Ar   17   6.904   2.070  -0.083
    1   AR   Ar   18   5.830   2.598  -0.561
    1   AR   Ar   19   1.583   3.205   1.522
    1   AR   Ar   20   4.789   4.141  -2.142
    1   AR   Ar   21   5.464   1.295   1.730
    1   AR   Ar   22   6.941   1.895   2.277
    1   AR   Ar   23   0.145   0.508  -0.312
    1   AR   Ar   24   7.079   2.189   1.146
    1   AR   Ar   25   6.792   1.059   3.790
    1   AR   Ar   26   5.891   1.343   4.356
    1   AR   Ar   27   1.829   1.567   3.707
    1   AR   Ar   28   1.318   2.724   4.534
    1   AR   Ar   29   5.638   2.208   6.559
    1   AR   Ar   30   1.405   1.521   5.013
    1   AR   Ar   31   1.260   7.031   7.847
    1   AR   Ar   32   1.735   2.641   6.036
    1   AR   Ar   33   1.121   3.937  -0.695
    1   AR   Ar   34   7.096   5.315   2.936
    1   AR   Ar   35   6.328   4.780   1.925
    1   AR   Ar   36   0.217   0.624  -3.608
    1   AR   Ar   37   6.162   2.656   2.262
    1   AR   Ar   38   7.115   4.173   2.596
    1   AR   Ar   39   1.451   3.277   3.183
    1   AR   Ar   40   1.542   4.158   1.306
    1   AR   Ar   41   0.462   3.219   3.873
    1   AR   Ar   42   6.611   5.535   4.816
    1   AR   Ar   43   6.779   1.880   6.105
    1   AR   Ar   44   0.665   4.470   3.224
    1   AR   Ar   45   0.359   2.743   5.106
    1   AR   Ar   46   0.999   5.990   6.107
    1   AR   Ar   47   6.185   3.373   7.817
    1   AR   Ar   48   0.605   7.032   6.626
    1   AR   Ar   49   6.096   0.337  -2.059
    1   AR   Ar   50   5.465   5.088   1.497
    1   AR   Ar   51   0.408   5.200   1.829
    1   AR   Ar   52   5.448   4.834  -1.222
    1   AR   Ar   53   5.461   6.338   2.670
    1   AR   Ar   54   6.830   6.193   2.326
    1   AR   Ar   55   5.911   5.451   2.878
    1   AR   Ar   56   0.640   0.085   0.489
    1   AR   Ar   57   5.504   3.059   3.458
    1   AR   Ar   58   6.955   4.949   4.101
    1   AR   Ar   59   1.766   5.648   5.226
    1   AR   Ar   60   0.640   6.716   4.018
    1   AR   Ar   61   6.504   4.242   5.649
    1   AR   Ar   62   0.549   5.236   5.206
    1   AR   Ar   63   2.760   7.047   6.889
    1   AR   Ar   64   0.855   6.524   5.153
    1   AR   Ar   65   3.438   6.865   0.888
    1   AR   Ar   66   0.677   1.432   1.792
    1   AR   Ar   67   2.938   6.332  -1.488
    1   AR   Ar   68   3.258   1.940  -0.916
    1   AR   Ar   69   2.497   1.277   1.080
    1   AR   Ar   70   0.482   6.842   2.259
    1   AR   Ar   71   2.828   1.580   3.727
    1   AR   Ar   72   3.153   0.735   1.849
    1   AR   Ar   73   2.832   0.175   3.921
    1   AR   Ar   74   2.278   0.887   4.461
    1   AR   Ar   75   3.865   1.316   4.428
    1   AR   Ar   76   1.419   0.362   2.124
    1   AR   Ar   77   2.483   6.819   5.880
    1   AR   Ar   78   1.863   0.521   6.885
    1   AR   Ar   79   3.834   6.594   6.471
    1   AR   Ar   80   3.654   5.214   5.615
    1   AR   Ar   81   2.242   0.998  -0.419
    1   AR   Ar   82   7.084   5.941  -0.744
    1   AR   Ar   83   0.945   2.061   0.747
    1   AR   Ar   84   0.035   3.558  -0.173
    1   AR   Ar   85   0.652   3.402   0.649
    1   AR   Ar   86   2.209   3.564   0.248
    1   AR   Ar   87   1.828   2.001   1.538
    1   AR   Ar   88   2.568   4.614   2.072
    1   AR   Ar   89   0.241   2.782   2.204
    1   AR   Ar   90   2.332   2.559   4.825
    1   AR   Ar   91   1.089   2.347   3.603
    1   AR   Ar   92   1.297   2.401   2.497
    1   AR   Ar   93   2.015   0.640   5.855
    1   AR   Ar   94   1.421   7.034   9.988
    1   AR   Ar   95   4.039   0.577   6.045
    1   AR   Ar   96   2.755   0.211   5.012
    1   AR   Ar   97   4.881   1.871  -0.439
    1   AR   Ar   98   2.242   5.436   2.777
    1   AR   Ar   99   6.587   2.514  -1.264
    1   AR   Ar  100   2.688   2.455   0.303
    1   AR   Ar  101   2.581   4.259   0.987
    1   AR   Ar  102   3.383   2.911   4.374
    1   AR   Ar  103   1.142   4.670   0.189
    1   AR   Ar  104   3.208   2.741  -1.641
    1   AR   Ar  105   2.124   3.201   4.031
    1   AR   Ar  106   3.080   3.430   5.174
    1   AR   Ar  107   1.199   3.636   5.053
    1   AR   Ar  108   3.451   2.380   5.278
    1   AR   Ar  109   1.610   4.200   3.827
    1   AR   Ar  110   1.118   4.793   6.272
    1   AR   Ar  111   5.197   3.657   7.535
    1   AR   Ar  112   1.446   5.473   6.962
    1   AR   Ar  113   2.211   4.959   0.282
    1   AR   Ar  114   2.240   5.707  -0.542
    1   AR   Ar  115   2.609   4.527  -0.803
    1   AR   Ar  116   6.364   6.069  -1.579
    1   AR   Ar  117   0.700   5.654   4.085
    1   AR   Ar  118   0.962   5.703   2.730
    1   AR   Ar  119   1.618   3.937   2.463
    1   AR   Ar  120   1.667   6.376   2.361
    1   AR   Ar  121   6.464   4.065   4.598
    1   AR   Ar  122   2.666   6.039   5.057
    1   AR   Ar  123   3.512   4.379   5.054
    1   AR   Ar  124   1.751   5.260   1.451
    1   AR   Ar  125   0.386   4.005   5.652
    1   AR   Ar  126   6.958   6.821   4.969
    1   AR   Ar  127   3.227   4.093   6.392
    1   AR   Ar  128   2.595   5.550   6.397
    1   AR   Ar  129   1.901   0.086   3.253
    1   AR   Ar  130   5.153   2.370  -1.428
    1   AR   Ar  131   4.189   0.765  -0.477
    1   AR   Ar  132   0.850   1.357  -0.869
    1   AR   Ar  133   4.158   7.076   2.760
    1   AR   Ar  134   4.794   1.052   3.986
    1   AR   Ar  135   5.256   0.698   3.147
    1   AR   Ar  136   5.149   0.240   2.053
    1   AR   Ar  137   1.986   5.629   3.754
    1   AR   Ar  138   4.736   2.121   4.603
    1   AR   Ar  139   5.411   2.419   5.531
    1   AR   Ar  140   3.863   0.018   4.596
    1   AR   Ar  141   3.955   5.663   4.543
    1   AR   Ar  142   3.521   6.336   5.390
    1   AR   Ar  143   6.931   6.475   5.928
    1   AR   Ar  144   5.566   1.392   5.701
    1   AR   Ar  145   4.042   4.483   0.434
    1   AR   Ar  146   4.536   2.345   1.502
    1   AR   Ar  147   5.660   1.999  -2.255
    1   AR   Ar  148   3.741   4.337  -1.337
    1   AR   Ar  149   3.675   1.962   0.709
    1   AR   Ar  150   2.239   1.786   2.635
    1   AR   Ar  151   2.829   2.590   3.234
    1   AR   Ar  152   3.503   3.117   0.319
    1   AR   Ar  153   3.941   0.569   3.535
    1   AR   Ar  154   3.829   2.065   3.685
    1   AR   Ar  155   6.519   0.210   6.665
    1   AR   Ar  156   4.053   3.800   4.348
    1   AR   Ar  157   2.541   3.226   6.056
    1   AR   Ar  158   1.327   3.869   6.741
    1   AR   Ar  159   4.382   2.173   5.930
    1   AR   Ar  160   2.608   1.837   5.628
    1   AR   Ar  161   5.263   3.142   1.295
    1   AR   Ar  162   4.323   6.165  -0.838
    1   AR   Ar  163   5.634   3.319   0.289
    1   AR   Ar  164   3.336   5.582   2.065
    1   AR   Ar  165   3.852   3.214   1.440
    1   AR   Ar  166   2.960   4.060   4.121
    1   AR   Ar  167   3.920   1.080   2.491
    1   AR   Ar  168   4.515   3.226  -0.319
    1   AR   Ar  169   2.844   2.867   1.684
    1   AR   Ar  170   2.103   4.189   5.804
    1   AR   Ar  171   5.474   3.928   3.846
    1   AR   Ar  172   4.739   4.965   4.517
    1   AR   Ar  173   2.300   3.622   7.454
    1   AR   Ar  174   2.584   4.718   7.118
    1   AR   Ar  175   3.304   2.551   6.701
    1   AR   Ar  176   4.045   3.403   6.156
    1   AR   Ar  177   6.296   4.773  -0.014
    1   AR   Ar  178   3.206   5.405   0.202
    1   AR   Ar  179   4.509   5.468   0.957
    1   AR   Ar  180   1.445   2.156  -2.347
    1   AR   Ar  181   0.791   6.139   1.313
    1   AR   Ar  182   2.700   0.715   2.742
    1   AR   Ar  183   3.451   5.136   3.011
    1   AR   Ar  184   3.976   6.231   1.483
    1   AR   Ar  185   1.660   4.942   4.509
    1   AR   Ar  186   3.702   4.914   3.947
    1   AR   Ar  187   3.557   6.144   3.451
    1   AR   Ar  188   2.736   6.724   1.989
    1   AR   Ar  189   3.465   2.352   7.584
    1   AR   Ar  190   4.960   7.002   5.205
    1   AR   Ar  191   3.955   4.953   6.631
    1   AR   Ar  192   4.552   5.895   5.546
    1   AR   Ar  193   1.210   6.251   0.309
    1   AR   Ar  194   4.734   3.595  -1.337
    1   AR   Ar  195   6.116   0.716  -0.095
    1   AR   Ar  196   5.014   6.972  -0.220
    1   AR   Ar  197   5.021   1.348   0.797
    1   AR   Ar  198   7.026   1.301   0.593
    1   AR   Ar  199   4.840   1.749   2.514
    1   AR   Ar  200   5.625   1.966   0.191
    1   AR   Ar  201   4.669   6.583   3.555
    1   AR   Ar  202   5.773   2.412   4.560
    1   AR   Ar  203   5.986   6.661   4.292
    1   AR   Ar  204   5.689   0.413   4.458
    1   AR   Ar  205   6.183   7.033   2.835
    1   AR   Ar  206   4.460   0.770   5.058
    1   AR   Ar  207   0.811   0.978   6.036
    1   AR   Ar  208   0.094   6.959   3.291
    1   AR   Ar  209   5.717   3.312  -1.932
    1   AR   Ar  210   3.735   0.890   0.507
    1   AR   Ar  211   6.597   2.922   0.575
    1   AR   Ar  212   6.406   3.899  -0.950
    1   AR   Ar  213   3.267   2.104   2.388
    1   AR   Ar  214   4.210   2.679   2.911
    1   AR   Ar  215   6.086   2.174   1.298
    1   AR   Ar  216   0.331   3.945   1.571
    1   AR   Ar  217   4.678   3.045   4.020
    1   AR   Ar  218   4.575   3.301   5.158
    1   AR   Ar  219   5.161   1.910   3.504
    1   AR   Ar  220   4.624   3.394   2.178
    1   AR   Ar  221   6.046   0.201   5.567
    1   AR   Ar  222   4.931   1.324   6.958
    1   AR   Ar  223   0.622   0.886   7.347
    1   AR   Ar  224   5.057   3.096   6.360
    1   AR   Ar  225   5.882   3.949   1.519
    1   AR   Ar  226   3.728   4.236   2.217
    1   AR   Ar  227   7.013   4.564   0.854
    1   AR   Ar  228   5.228   6.393   1.070
    1   AR   Ar  229   5.541   4.044  -0.444
    1   AR   Ar  230   4.421   4.292   3.270
    1   AR   Ar  231   6.261   1.408   2.856
    1   AR   Ar  232   4.433   3.048   0.653
    1   AR   Ar  233   6.250   2.356   3.562
    1   AR   Ar  234   6.663   3.033   4.440
    1   AR   Ar  235   0.098   2.186   3.880
    1   AR   Ar  236   5.704   4.689   5.131
    1   AR   Ar  237   5.760   3.479   5.225
    1   AR   Ar  238   4.823   4.624   5.590
    1   AR   Ar  239   6.896   4.188   9.111
    1   AR   Ar  240   6.808   3.238   6.314
    1   AR   Ar  241   0.871   6.606  -1.357
    1   AR   Ar  242   5.384   4.532   0.622
    1   AR   Ar  243   5.673   4.096   2.574
    1   AR   Ar  244   1.127   5.672  -0.660
    1   AR   Ar  245   5.497   0.397   0.818
    1   AR   Ar  246   6.399   5.538   1.036
    1   AR   Ar  247   4.718   4.045   1.265
    1   AR   Ar  248   5.350   5.246  -0.088
    1   AR   Ar  249   4.364   5.535   2.071
    1   AR   Ar  250   5.301   5.903   4.458
    1   AR   Ar  251   5.678   5.060   3.902
    1   AR   Ar  252   4.908   5.567   3.120
    1   AR   Ar  253   5.825   3.722   6.295
    1   AR   Ar  254   2.596   5.756   8.413
    1   AR   Ar  255   4.917   2.690   7.536
    1   AR   Ar  256   6.714   6.179   3.648
    7.12000  7.12000 12.00000
Argon-slab step 2750
  256
    1   AR   Ar    1   6.562   1.520  -0.941
    1   AR   Ar    2   6.743   0.055   0.961
    1   AR   Ar    3   1.648   1.193   0.544
    1   AR   Ar    4   1.243   0.540  -0.341
    1   AR   Ar    5   0.072   6.457   0.105
    1   AR   Ar    6   6.944   0.617   2.650
    1   AR   Ar    7   6.501   4.170   3.403
    1   AR   Ar    8   6.360   0.255   1.866
    1   AR   Ar    9   0.947   0.450   3.408
    1   AR   Ar   10   0.629   1.246   4.250
    1   AR   Ar   11   2.115   6.579   4.095
    1   AR   Ar   12   0.823   1.524   2.979
    1   AR   Ar   13   6.654   1.450   5.195
    1   AR   Ar   14   1.271   1.792   7.199
    1   AR   Ar   15   6.072   0.756   9.912
    1   AR   Ar   16   0.922   0.296   4.671
    1   AR   Ar   17   6.894   2.074  -0.107
    1   AR   Ar   18   5.845   2.609  -0.572
    1   AR   Ar   19   1.601   3.193   1.528
    1   AR   Ar   20   4.774   4.123  -2.160
    1   AR   Ar   21   5.442   1.321   1.684
    1   AR   Ar   22   6.931   1.904   2.269
    1   AR   Ar   23   0.126   0.485  -0.346
    1   AR   Ar   24   7.101   2.209   1.160
    1   AR   Ar   25   6.800   1.029   3.784
    1   AR   Ar   26   5.880   1.354   4.342
    1   AR   Ar   27   1.820   1.598   3.690
    1   AR   Ar   28   1.308   2.724   4.564
    1   AR   Ar   29   5.677   2.215   6.571
    1   AR   Ar   30   1.361   1.514   4.960
    1   AR   Ar   31   1.289   7.058   7.842
    1   AR   Ar   32   1.732   2.642   6.060
    1   AR   Ar   33   1.119   3.963  -0.703
    1   AR   Ar   34   7.091   5.296   2.971
    1   AR   Ar   35   6.313   4.768   1.908
    1   AR   Ar   36   0.226   0.627  -3.611
    1   AR   Ar   37   6.142   2.647   2.247
    1   AR   Ar   38   7.111   4.169   2.581
    1   AR   Ar   39   1.435   3.288   3.205
    1   AR   Ar   40   1.557   4.182   1.321
    1   AR   Ar   41   0.480   3.210   3.907
    1   AR   Ar   42   6.568   5.556   4.820
    1   AR   Ar   43   6.760   1.873   6.129
    1   AR   Ar   44   0.670   4.466   3.198
    1   AR   Ar   45   0.356   2.736   5.084
    1   AR   Ar   46   0.999   6.032   6.115
    1   AR   Ar   47   6.188   3.372   7.818
    1   AR   Ar   48   0.590   7.051   6.627
    1   AR   Ar   49   6.079   0.358  -2.059
    1   AR   Ar   50   5.468   5.091   1.509
    1   AR   Ar   51   0.384   5.189   1.807
    1   AR   Ar   52   5.436   4.825  -1.233
    1   AR   Ar   53   5.450   6.328   2.685
    1   AR   Ar   54   6.820   6.188   2.328
    1   AR   Ar   55   5.907   5.454   2.885
    1   AR   Ar   56   0.644   0.101   0.497
    1   AR   Ar   57   5.516   3.054   3.458
    1   AR   Ar   58   6.995   4.932   4.086
    1   AR   Ar   59   1.748   5.645   5.267
    1   AR   Ar   60   0.629   6.718   3.996
    1   AR   Ar   61   6.484   4.232   5.690
    1   AR   Ar   62   0.562   5.237   5.225
    1   AR   Ar   63   2.768   7.061   6.877
    1   AR   Ar   64   0.842   6.534   5.151
    1   AR   Ar   65   3.402   6.827   0.864
    1   AR   Ar   66   0.652   1.421   1.802
    1   AR   Ar   67   2.923   6.330  -1.509
    1   AR   Ar   68   3.248   1.976  -0.886
    1   AR   Ar   69   2.497   1.253   1.082
    1   AR   Ar   70   0.492   6.894   2.230
    1   AR   Ar   71   2.830   1.606   3.751
    1   AR   Ar   72   3.150   0.712   1.856
    1   AR   Ar   73   2.865   0.163   3.931
    1   AR   Ar   74   2.238   0.887   4.442
    1   AR   Ar   75   3.821   1.311   4.416
    1   AR   Ar   76   1.407   0.356   2.170
    1   AR   Ar   77   2.483   6.781   5.880
    1   AR   Ar   78   1.845   0.521   6.853
    1   AR   Ar   79   3.831   6.571   6.462
    1   AR   Ar   80   3.663   5.181   5.593
    1   AR   Ar   81   2.256   0.997  -0.419
    1   AR   Ar   82   7.073   5.935  -0.758
    1   AR   Ar   83   0.925   2.045   0.733
    1   AR   Ar   84   0.014   3.538  -0.190
    1   AR   Ar   85   0.676   3.429   0.658
    1   AR   Ar   86   2.211   3.578   0.207
    1   AR   Ar   87   1.840   2.001   1.532
    1   AR   Ar   88   2.535   4.635   2.079
    1   AR   Ar   89   0.272   2.777   2.198
    1   AR   Ar   90   2.331   2.571   4.802
    1   AR   Ar   91   1.072   2.331   3.626
    1   AR   Ar   92   1.299   2.363   2.501
    1   AR   Ar   93   2.003   0.637   5.883
    1   AR   Ar   94   1.426   7.033  10.000
    1   AR   Ar   95   4.044   0.592   6.053
    1   AR   Ar   96   2.750   0.194   5.033
    1   AR   Ar   97   4.890   1.915  -0.437
    1   AR   Ar   98   2.262   5.462   2.764
    1   AR   Ar   99   6.580   2.539  -1.255
    1   AR   Ar  100   2.681   2.451   0.287
    1   AR   Ar  101   2.618   4.264   0.978
    1   AR   Ar  102   3.374   2.919   4.409
    1   AR   Ar  103   1.137   4.669   0.179
    1   AR   Ar  104   3.227   2.758  -1.655
    1   AR   Ar  105   2.105   3.182   4.055
    1   AR   Ar  106   3.083   3.412   5.195
    1   AR   Ar  107   1.185   3.596   5.042
    1   AR   Ar  108   3.469   2.389   5.252
    1   AR   Ar  109   1.579   4.173   3.790
    1   AR   Ar  110   1.109   4.775   6.244
    1   AR   Ar  111   5.203   3.650   7.549
    1   AR   Ar  112   1.420   5.487   6.960
    1   AR   Ar  113   2.214   4.959   0.305
    1   AR   Ar  114   2.276   5.710  -0.526
    1   AR   Ar  115   2.593   4.550  -0.813
    1   AR   Ar  116   6.376   6.094  -1.557
    1   AR   Ar  117   0.699   5.657   4.095
    1   AR   Ar  118   0.981   5.692   2.710
    1   AR   Ar  119   1.608   3.963   2.451
    1   AR   Ar  120   1.625   6.406   2.371
    1   AR   Ar  121   6.448   4.040   4.612
    1   AR   Ar  122   2.661   6.047   5.026
    1   AR   Ar  123   3.543   4.401   5.086
    1   AR   Ar  124   1.769   5.298   1.445
    1   AR   Ar  125   0.388   4.015   5.643
    1   AR   Ar  126   6.946   6.836   4.947
    1   AR   Ar  127   3.203   4.069   6.392
    1   AR   Ar  128   2.593   5.533   6.400
    1   AR   Ar  129   1.942   0.081   3.255
    1   AR   Ar  130   5.172   2.427  -1.406
    1   AR   Ar  131   4.211   0.789  -0.470
    1   AR   Ar  132   0.828   1.366  -0.849
    1   AR   Ar  133   4.157   7.043   2.756
    1   AR   Ar  134   4.795   1.063   3.957
    1   AR   Ar  135   5.260   0.706   3.170
    1   AR   Ar  136   5.128   0.239   2.048
    1   AR   Ar  137   1.972   5.568   3.729
    1   AR   Ar  138   4.713   2.131   4.590
    1   AR   Ar  139   5.433   2.412   5.570
    1   AR   Ar  140   3.833   0.036   4.552
    1   AR   Ar  141   3.942   5.670   4.550
    1   AR   Ar  142   3.550   6.343   5.402
    1   AR   Ar  143   6.928   6.490   5.931
    1   AR   Ar  144   5.571   1.404   5.681
    1   AR   Ar  145   4.028   4.488   0.463
    1   AR   Ar  146   4.540   2.311   1.510
    1   AR   Ar  147   5.615   1.982  -2.258
    1   AR   Ar  148   3.722   4.381  -1.323
    1   AR   Ar  149   3.678   1.975   0.727
    1   AR   Ar  150   2.235   1.792   2.629
    1   AR   Ar  151   2.803   2.558   3.275
    1   AR   Ar  152   3.494   3.167   0.277
    1   AR   Ar  153   3.945   0.566   3.587
    1   AR   Ar  154   3.826   2.103   3.680
    1   AR   Ar  155   6.550   0.236   6.672
    1   AR   Ar  156   4.031   3.771   4.314
    1   AR   Ar  157   2.524   3.240   6.079
    1   AR   Ar  158   1.330   3.859   6.715
    1   AR   Ar  159   4.365   2.194   5.954
    1   AR   Ar  160   2.619   1.850   5.600
    1   AR   Ar  161   5.281   3.144   1.299
    1   AR   Ar  162   4.311   6.174  -0.837
    1   AR   Ar  163   5.594   3.321   0.268
    1   AR   Ar  164   3.341   5.576   2.057
    1   AR   Ar  165   3.873   3.198   1.443
    1   AR   Ar  166   2.930   4.037   4.139
    1   AR   Ar  167   3.934   1.070   2.462
    1   AR   Ar  168   4.529   3.208  -0.341
    1   AR   Ar  169   2.855   2.881   1.673
    1   AR   Ar  170   2.102   4.206   5.829
    1   AR   Ar  171   5.456   3.929   3.894
    1   AR   Ar  172   4.765   4.941   4.549
    1   AR   Ar  173   2.313   3.633   7.466
    1   AR   Ar  174   2.574   4.696   7.100
    1   AR   Ar  175   3.277   2.563   6.675
    1   AR   Ar  176   4.041   3.397   6.167
    1   AR   Ar  177   6.335   4.751  -0.003
    1   AR   Ar  178   3.239   5.384   0.223
    1   AR   Ar  179   4.484   5.477   0.965
    1   AR   Ar  180   1.423   2.148  -2.377
    1   AR   Ar  181   0.779   6.155   1.343
    1   AR   Ar  182   2.645   0.721   2.734
    1   AR   Ar  183   3.460   5.123   2.983
    1   AR   Ar  184   3.961   6.228   1.496
    1   AR   Ar  185   1.672   4.948   4.533
    1   AR   Ar  186   3.725   4.923   3.955
    1   AR   Ar  187   3.546   6.147   3.456
    1   AR   Ar  188   2.721   6.709   1.976
    1   AR   Ar  189   3.455   2.308   7.583
    1   AR   Ar  190   4.936   6.995   5.171
    1   AR   Ar  191   3.939   4.979   6.626
    1   AR   Ar  192   4.565   5.902   5.558
    1   AR   Ar  193   1.201   6.250   0.308
    1   AR   Ar  194   4.713   3.580  -1.314
    1   AR   Ar  195   6.120   0.715  -0.118
    1   AR   Ar  196   5.020   6.970  -0.194
    1   AR   Ar  197   5.013   1.343   0.816
    1   AR   Ar  198   7.013   1.309   0.580
    1   AR   Ar  199   4.805   1.763   2.516
    1   AR   Ar  200   5.636   1.962   0.180
    1   AR   Ar  201   4.671   6.606   3.562
    1   AR   Ar  202   5.788   2.458   4.565
    1   AR   Ar  203   5.973   6.638   4.266
    1   AR   Ar  204   5.713   0.430   4.469
    1   AR   Ar  205   6.207   7.042   2.804
    1   AR   Ar  206   4.472   0.773   5.052
    1   AR   Ar  207   0.800   0.957   6.066
    1   AR   Ar  208   0.089   6.947   3.284
    1   AR   Ar  209   5.723   3.323  -1.951
    1   AR   Ar  210   3.718   0.890   0.507
    1   AR   Ar  211   6.596   2.937   0.565
    1   AR   Ar  212   6.393   3.891  -0.964
    1   AR   Ar  213   3.240   2.069   2.409
    1   AR   Ar  214   4.212   2.663   2.962
    1   AR   Ar  215   6.047   2.146   1.300
    1   AR   Ar  216   0.370   3.927   1.593
    1   AR   Ar  217   4.672   3.076   4.004
    1   AR   Ar  218   4.572   3.316   5.174
    1   AR   Ar  219   5.158   1.925   3.511
    1   AR   Ar  220   4.590   3.395   2.144
    1   AR   Ar  221   6.049   0.215   5.575
    1   AR   Ar  222   4.924   1.288   6.968
    1   AR   Ar  223   0.632   0.857   7.365
    1   AR   Ar  224   5.066   3.079   6.375
    1   AR   Ar  225   5.889   3.918   1.540
    1   AR   Ar  226   3.705   4.225   2.248
    1   AR   Ar  227   7.022   4.593   0.826
    1   AR   Ar  228   5.237   6.375   1.041
    1   AR   Ar  229   5.554   4.060  -0.476
    1   AR   Ar  230   4.432   4.283   3.250
    1   AR   Ar  231   6.280   1.379   2.865
    1   AR   Ar  232   4.431   3.027   0.687
    1   AR   Ar  233   6.241   2.317   3.564
    1   AR   Ar  234   6.666   3.014   4.423
    1   AR   Ar  235   0.078   2.168   3.902
    1   AR   Ar  236   5.700   4.716   5.135
    1   AR   Ar  237   5.780   3.456   5.197
    1   AR   Ar  238   4.801   4.627   5.597
    1   AR   Ar  239   6.903   4.212   9.085
    1   AR   Ar  240   6.823   3.241   6.331
    1   AR   Ar  241   0.878   6.598  -1.354
    1   AR   Ar  242   5.423   4.538   0.599
    1   AR   Ar  243   5.695   4.112   2.573
    1   AR   Ar  244   1.087   5.685  -0.663
    1   AR   Ar  245   5.492   0.425   0.821
    1   AR   Ar  246   6.399   5.521   1.017
    1   AR   Ar  247   4.722   4.041   1.280
    1   AR   Ar  248   5.355   5.227  -0.082
    1   AR   Ar  249   4.378   5.551   2.093
    1   AR   Ar  250   5.344   5.887   4.455
    1   AR   Ar  251   5.724   5.029   3.878
    1   AR   Ar  252   4.898   5.538   3.106
    1   AR   Ar  253   5.853   3.728   6.293
    1   AR   Ar  254   2.563   5.758   8.413
    1   AR   Ar  255   4.896   2.702   7.517
    1   AR   Ar  256   6.718   6.170   3.649
    7.12000  7.12000 12.00000
Argon-slab step 2755
  256
    1   AR   Ar    1   6.564   1.498  -0.959
    1   AR   Ar    2   6.765   0.032   0.972
    1   AR   Ar    3   1.671   1.225   0.532
    1   AR   Ar    4   1.258   0.528  -0.315
    1   AR   Ar    5   0.065   6.456   0.123
    1   AR   Ar    6   6.977   0.634   2.615
    1   AR   Ar    7   6.500   4.142   3.397
    1   AR   Ar    8   6.336   0.252   1.878
    1   AR   Ar    9   0.983   0.447   3.405
    1   AR   Ar   10   0.614   1.218   4.255
    1   AR   Ar   11   2.120   6.600   4.080
    1   AR   Ar   12   0.844   1.537   3.011
    1   AR   Ar   13   6.667   1.472   5.208
    1   AR   Ar   14   1.261   1.814   7.168
    1   AR   Ar   15   6.044   0.770   9.920
    1   AR   Ar   16   0.920   0.331   4.696
    1   AR   Ar   17   6.883   2.084  -0.130
    1   AR   Ar   18   5.858   2.636  -0.579
    1   AR   Ar   19   1.620   3.173   1.535
    1   AR   Ar   20   4.757   4.112  -2.179
    1   AR   Ar   21   5.428   1.345   1.655
    1   AR   Ar   22   6.919   1.905   2.260
    1   AR   Ar   23   0.104   0.464  -0.381
    1   AR   Ar   24   0.004   2.230   1.178
    1   AR   Ar   25   6.808   0.998   3.776
    1   AR   Ar   26   5.880   1.359   4.348
    1   AR   Ar   27   1.804   1.628   3.672
    1   AR   Ar   28   1.296   2.709   4.541
    1   AR   Ar   29   5.717   2.219   6.585
    1   AR   Ar   30   1.320   1.508   4.909
    1   AR   Ar   31   1.317   7.085   7.836
    1   AR   Ar   32   1.721   2.635   6.083
    1   AR   Ar   33   1.118   3.989  -0.710
    1   AR   Ar   34   7.083   5.305   2.985
    1   AR   Ar   35   6.314   4.759   1.898
    1   AR   Ar   36   0.235   0.631  -3.614
    1   AR   Ar   37   6.122   2.652   2.274
    1   AR   Ar   38   7.097   4.162   2.551
    1   AR   Ar   39   1.415   3.293   3.229
    1   AR   Ar   40   1.571   4.215   1.334
    1   AR   Ar   41   0.500   3.202   3.940
    1   AR   Ar   42   6.569   5.578   4.823
    1   AR   Ar   43   6.741   1.869   6.157
    1   AR   Ar   44   0.695   4.468   3.178
    1   AR   Ar   45   0.349   2.734   5.064
    1   AR   Ar   46   0.998   6.074   6.123
    1   AR   Ar   47   6.198   3.373   7.792
    1   AR   Ar   48   0.576   7.071   6.628
    1   AR   Ar   49   6.063   0.380  -2.059
    1   AR   Ar   50   5.461   5.098   1.519
    1   AR   Ar   51   0.358   5.178   1.786
    1   AR   Ar   52   5.424   4.817  -1.244
    1   AR   Ar   53   5.434   6.325   2.697
    1   AR   Ar   54   6.807   6.181   2.331
    1   AR   Ar   55   5.910   5.447   2.891
    1   AR   Ar   56   0.653   0.121   0.509
    1   AR   Ar   57   5.537   3.064   3.457
    1   AR   Ar   58   7.035   4.913   4.068
    1   AR   Ar   59   1.724   5.644   5.315
    1   AR   Ar   60   0.635   6.707   3.997
    1   AR   Ar   61   6.466   4.225   5.726
    1   AR   Ar   62   0.576   5.238   5.243
    1   AR   Ar   63   2.778   7.074   6.866
    1   AR   Ar   64   0.830   6.535   5.151
    1   AR   Ar   65   3.363   6.793   0.837
    1   AR   Ar   66   0.629   1.410   1.812
    1   AR   Ar   67   2.909   6.329  -1.528
    1   AR   Ar   68   3.237   2.012  -0.855
    1   AR   Ar   69   2.506   1.229   1.088
    1   AR   Ar   70   0.502   6.947   2.202
    1   AR   Ar   71   2.840   1.628   3.775
    1   AR   Ar   72   3.149   0.687   1.854
    1   AR   Ar   73   2.903   0.154   3.939
    1   AR   Ar   74   2.194   0.891   4.421
    1   AR   Ar   75   3.774   1.306   4.403
    1   AR   Ar   76   1.396   0.351   2.217
    1   AR   Ar   77   2.483   6.737   5.882
    1   AR   Ar   78   1.831   0.514   6.846
    1   AR   Ar   79   3.827   6.548   6.453
    1   AR   Ar   80   3.673   5.179   5.608
    1   AR   Ar   81   2.270   0.997  -0.418
    1   AR   Ar   82   7.064   5.925  -0.776
    1   AR   Ar   83   0.904   2.037   0.719
    1   AR   Ar   84   7.112   3.519  -0.208
    1   AR   Ar   85   0.702   3.455   0.668
    1   AR   Ar   86   2.212   3.593   0.166
    1   AR   Ar   87   1.851   2.003   1.527
    1   AR   Ar   88   2.503   4.656   2.085
    1   AR   Ar   89   0.309   2.783   2.191
    1   AR   Ar   90   2.336   2.576   4.788
    1   AR   Ar   91   1.057   2.316   3.645
    1   AR   Ar   92   1.302   2.327   2.504
    1   AR   Ar   93   1.992   0.636   5.898
    1   AR   Ar   94   1.431   7.032  10.012
    1   AR   Ar   95   4.049   0.605   6.062
    1   AR   Ar   96   2.748   0.175   5.054
    1   AR   Ar   97   4.886   1.958  -0.444
    1   AR   Ar   98   2.284   5.488   2.743
    1   AR   Ar   99   6.579   2.567  -1.252
    1   AR   Ar  100   2.707   2.464   0.295
    1   AR   Ar  101   2.657   4.268   0.973
    1   AR   Ar  102   3.367   2.923   4.423
    1   AR   Ar  103   1.127   4.642   0.174
    1   AR   Ar  104   3.247   2.776  -1.670
    1   AR   Ar  105   2.088   3.171   4.069
    1   AR   Ar  106   3.082   3.402   5.225
    1   AR   Ar  107   1.171   3.562   5.033
    1   AR   Ar  108   3.490   2.394   5.233
    1   AR   Ar  109   1.528   4.139   3.752
    1   AR   Ar  110   1.099   4.759   6.212
    1   AR   Ar  111   5.210   3.652   7.561
    1   AR   Ar  112   1.397   5.502   6.960
    1   AR   Ar  113   2.214   4.959   0.326
    1   AR   Ar  114   2.311   5.713  -0.510
    1   AR   Ar  115   2.577   4.573  -0.822
    1   AR   Ar  116   6.386   6.120  -1.537
    1   AR   Ar  117   0.698   5.659   4.106
    1   AR   Ar  118   0.996   5.676   2.691
    1   AR   Ar  119   1.602   3.980   2.441
    1   AR   Ar  120   1.588   6.440   2.379
    1   AR   Ar  121   6.432   4.019   4.623
    1   AR   Ar  122   2.679   6.045   5.011
    1   AR   Ar  123   3.571   4.401   5.103
    1   AR   Ar  124   1.787   5.336   1.439
    1   AR   Ar  125   0.392   4.026   5.634
    1   AR   Ar  126   6.932   6.854   4.919
    1   AR   Ar  127   3.178   4.047   6.391
    1   AR   Ar  128   2.591   5.517   6.400
    1   AR   Ar  129   1.982   0.076   3.255
    1   AR   Ar  130   5.190   2.488  -1.383
    1   AR   Ar  131   4.235   0.814  -0.464
    1   AR   Ar  132   0.804   1.377  -0.830
    1   AR   Ar  133   4.154   7.010   2.748
    1   AR   Ar  134   4.792   1.077   3.943
    1   AR   Ar  135   5.270   0.709   3.181
    1   AR   Ar  136   5.108   0.237   2.044
    1   AR   Ar  137   1.956   5.507   3.708
    1   AR   Ar  138   4.689   2.140   4.576
    1   AR   Ar  139   5.453   2.412   5.606
    1   AR   Ar  140   3.802   0.052   4.508
    1   AR   Ar  141   3.933   5.688   4.567
    1   AR   Ar  142   3.592   6.356   5.420
    1   AR   Ar  143   6.925   6.506   5.938
    1   AR   Ar  144   5.569   1.386   5.708
    1   AR   Ar  145   4.016   4.493   0.492
    1   AR   Ar  146   4.544   2.275   1.518
    1   AR   Ar  147   5.570   1.965  -2.263
    1   AR   Ar  148   3.703   4.424  -1.308
    1   AR   Ar  149   3.681   1.991   0.746
    1   AR   Ar  150   2.232   1.789   2.655
    1   AR   Ar  151   2.776   2.530   3.317
    1   AR   Ar  152   3.483   3.219   0.234
    1   AR   Ar  153   3.946   0.563   3.637
    1   AR   Ar  154   3.819   2.136   3.683
    1   AR   Ar  155   6.534   0.251   6.673
    1   AR   Ar  156   4.002   3.753   4.282
    1   AR   Ar  157   2.514   3.258   6.105
    1   AR   Ar  158   1.344   3.842   6.690
    1   AR   Ar  159   4.348   2.217   5.978
    1   AR   Ar  160   2.627   1.861   5.573
    1   AR   Ar  161   5.299   3.138   1.303
    1   AR   Ar  162   4.300   6.184  -0.835
    1   AR   Ar  163   5.554   3.322   0.250
    1   AR   Ar  164   3.338   5.570   2.046
    1   AR   Ar  165   3.870   3.200   1.450
    1   AR   Ar  166   2.902   4.013   4.158
    1   AR   Ar  167   3.950   1.059   2.437
    1   AR   Ar  168   4.545   3.189  -0.364
    1   AR   Ar  169   2.865   2.893   1.661
    1   AR   Ar  170   2.101   4.225   5.855
    1   AR   Ar  171   5.436   3.944   3.949
    1   AR   Ar  172   4.790   4.915   4.580
    1   AR   Ar  173   2.327   3.644   7.475
    1   AR   Ar  174   2.563   4.673   7.082
    1   AR   Ar  175   3.248   2.582   6.628
    1   AR   Ar  176   4.019   3.384   6.184
    1   AR   Ar  177   6.374   4.728   0.008
    1   AR   Ar  178   3.272   5.362   0.244
    1   AR   Ar  179   4.461   5.483   0.972
    1   AR   Ar  180   1.400   2.140  -2.407
    1   AR   Ar  181   0.767   6.171   1.375
    1   AR   Ar  182   2.587   0.729   2.732
    1   AR   Ar  183   3.468   5.108   2.952
    1   AR   Ar  184   3.944   6.233   1.506
    1   AR   Ar  185   1.693   4.969   4.553
    1   AR   Ar  186   3.748   4.919   3.960
    1   AR   Ar  187   3.537   6.150   3.462
    1   AR   Ar  188   2.707   6.694   1.964
    1   AR   Ar  189   3.450   2.259   7.601
    1   AR   Ar  190   4.916   6.982   5.136
    1   AR   Ar  191   3.922   5.004   6.621
    1   AR   Ar  192   4.578   5.909   5.569
    1   AR   Ar  193   1.192   6.248   0.306
    1   AR   Ar  194   4.695   3.561  -1.286
    1   AR   Ar  195   6.124   0.715  -0.139
    1   AR   Ar  196   5.021   6.981  -0.178
    1   AR   Ar  197   4.993   1.342   0.820
    1   AR   Ar  198   6.985   1.307   0.565
    1   AR   Ar  199   4.770   1.778   2.517
    1   AR   Ar  200   5.661   1.955   0.185
    1   AR   Ar  201   4.674   6.627   3.571
    1   AR   Ar  202   5.800   2.503   4.567
    1   AR   Ar  203   5.970   6.608   4.237
    1   AR   Ar  204   5.727   0.440   4.488
    1   AR   Ar  205   6.227   7.046   2.783
    1   AR   Ar  206   4.485   0.783   5.046
    1   AR   Ar  207   0.791   0.935   6.097
    1   AR   Ar  208   0.069   6.947   3.247
    1   AR   Ar  209   5.728   3.333  -1.968
    1   AR   Ar  210   3.701   0.889   0.508
    1   AR   Ar  211   6.594   2.952   0.554
    1   AR   Ar  212   6.389   3.880  -0.984
    1   AR   Ar  213   3.217   2.035   2.429
    1   AR   Ar  214   4.219   2.652   3.004
    1   AR   Ar  215   6.004   2.118   1.299
    1   AR   Ar  216   0.411   3.909   1.616
    1   AR   Ar  217   4.664   3.098   3.988
    1   AR   Ar  218   4.570   3.330   5.190
    1   AR   Ar  219   5.157   1.945   3.520
    1   AR   Ar  220   4.560   3.395   2.116
    1   AR   Ar  221   6.053   0.205   5.557
    1   AR   Ar  222   4.917   1.253   6.977
    1   AR   Ar  223   0.643   0.828   7.382
    1   AR   Ar  224   5.070   3.059   6.390
    1   AR   Ar  225   5.898   3.888   1.558
    1   AR   Ar  226   3.682   4.214   2.279
    1   AR   Ar  227   7.033   4.621   0.799
    1   AR   Ar  228   5.250   6.389   1.048
    1   AR   Ar  229   5.573   4.088  -0.471
    1   AR   Ar  230   4.443   4.275   3.230
    1   AR   Ar  231   6.291   1.351   2.877
    1   AR   Ar  232   4.444   3.002   0.709
    1   AR   Ar  233   6.230   2.275   3.564
    1   AR   Ar  234   6.674   2.990   4.417
    1   AR   Ar  235   0.067   2.173   3.955
    1   AR   Ar  236   5.703   4.744   5.133
    1   AR   Ar  237   5.765   3.466   5.207
    1   AR   Ar  238   4.771   4.630   5.608
    1   AR   Ar  239   6.909   4.236   9.059
    1   AR   Ar  240   6.839   3.244   6.346
    1   AR   Ar  241   0.893   6.591  -1.340
    1   AR   Ar  242   5.463   4.530   0.585
    1   AR   Ar  243   5.715   4.127   2.576
    1   AR   Ar  244   1.047   5.699  -0.664
    1   AR   Ar  245   5.482   0.392   0.810
    1   AR   Ar  246   6.398   5.503   0.998
    1   AR   Ar  247   4.724   4.038   1.295
    1   AR   Ar  248   5.357   5.218  -0.086
    1   AR   Ar  249   4.399   5.552   2.115
    1   AR   Ar  250   5.380   5.865   4.456
    1   AR   Ar  251   5.771   4.997   3.855
    1   AR   Ar  252   4.881   5.506   3.095
    1   AR   Ar  253   5.878   3.733   6.296
    1   AR   Ar  254   2.531   5.761   8.413
    1   AR   Ar  255   4.873   2.705   7.496
    1   AR   Ar  256   6.718   6.149   3.654
    7.12000  7.12000 12.00000
Argon-slab step 2760
  256
    1   AR   Ar    1   6.565   1.473  -0.978
    1   AR   Ar    2   6.790   0.008   0.977
    1   AR   Ar    3   1.683   1.255   0.510
    1   AR   Ar    4   1.272   0.514  -0.288
    1   AR   Ar    5   0.008   6.475   0.173
    1   AR   Ar    6   7.019   0.656   2.579
    1   AR   Ar    7   6.466   4.127   3.398
    1   AR   Ar    8   6.308   0.254   1.877
    1   AR   Ar    9   1.018   0.447   3.402
    1   AR   Ar   10   0.593   1.193   4.253
    1   AR   Ar   11   2.139   6.612   4.055
    1   AR   Ar   12   0.860   1.542   3.043
    1   AR   Ar   13   6.696   1.444   5.188
    1   AR   Ar   14   1.251   1.835   7.137
    1   AR   Ar   15   6.016   0.785   9.928
    1   AR   Ar   16   0.922   0.370   4.721
    1   AR   Ar   17   6.872   2.099  -0.154
    1   AR   Ar   18   5.832   2.626  -0.589
    1   AR   Ar   19   1.638   3.149   1.543
    1   AR   Ar   20   4.751   4.116  -2.168
    1   AR   Ar   21   5.422   1.364   1.651
    1   AR   Ar   22   6.906   1.901   2.250
    1   AR   Ar   23   0.083   0.443  -0.416
    1   AR   Ar   24   0.003   2.251   1.184
    1   AR   Ar   25   6.814   0.967   3.768
    1   AR   Ar   26   5.889   1.369   4.364
    1   AR   Ar   27   1.788   1.652   3.654
    1   AR   Ar   28   1.283   2.685   4.521
    1   AR   Ar   29   5.717   2.223   6.573
    1   AR   Ar   30   1.287   1.505   4.863
    1   AR   Ar   31   1.346   7.113   7.827
    1   AR   Ar   32   1.704   2.624   6.104
    1   AR   Ar   33   1.116   4.015  -0.716
    1   AR   Ar   34   7.073   5.320   2.994
    1   AR   Ar   35   6.328   4.752   1.894
    1   AR   Ar   36   0.244   0.634  -3.617
    1   AR   Ar   37   6.101   2.658   2.301
    1   AR   Ar   38   7.077   4.154   2.512
    1   AR   Ar   39   1.392   3.287   3.249
    1   AR   Ar   40   1.584   4.251   1.345
    1   AR   Ar   41   0.521   3.198   3.974
    1   AR   Ar   42   6.570   5.602   4.826
    1   AR   Ar   43   6.720   1.867   6.189
    1   AR   Ar   44   0.725   4.473   3.163
    1   AR   Ar   45   0.332   2.757   5.049
    1   AR   Ar   46   0.997   6.115   6.129
    1   AR   Ar   47   6.193   3.372   7.769
    1   AR   Ar   48   0.563   7.091   6.628
    1   AR   Ar   49   6.047   0.401  -2.058
    1   AR   Ar   50   5.443   5.110   1.526
    1   AR   Ar   51   0.331   5.165   1.767
    1   AR   Ar   52   5.412   4.808  -1.255
    1   AR   Ar   53   5.415   6.331   2.707
    1   AR   Ar   54   6.794   6.174   2.335
    1   AR   Ar   55   5.910   5.429   2.892
    1   AR   Ar   56   0.663   0.142   0.524
    1   AR   Ar   57   5.562   3.069   3.450
    1   AR   Ar   58   7.073   4.892   4.048
    1   AR   Ar   59   1.705   5.639   5.357
    1   AR   Ar   60   0.649   6.691   4.010
    1   AR   Ar   61   6.460   4.228   5.751
    1   AR   Ar   62   0.590   5.241   5.261
    1   AR   Ar   63   2.790   7.088   6.855
    1   AR   Ar   64   0.818   6.530   5.152
    1   AR   Ar   65   3.322   6.761   0.809
    1   AR   Ar   66   0.608   1.400   1.822
    1   AR   Ar   67   2.894   6.326  -1.546
    1   AR   Ar   68   3.227   2.048  -0.822
    1   AR   Ar   69   2.524   1.206   1.098
    1   AR   Ar   70   0.508   6.997   2.173
    1   AR   Ar   71   2.854   1.643   3.804
    1   AR   Ar   72   3.147   0.660   1.848
    1   AR   Ar   73   2.942   0.148   3.943
    1   AR   Ar   74   2.149   0.895   4.400
    1   AR   Ar   75   3.726   1.303   4.392
    1   AR   Ar   76   1.388   0.350   2.240
    1   AR   Ar   77   2.482   6.690   5.886
    1   AR   Ar   78   1.819   0.503   6.846
    1   AR   Ar   79   3.822   6.525   6.443
    1   AR   Ar   80   3.685   5.208   5.650
    1   AR   Ar   81   2.284   0.997  -0.417
    1   AR   Ar   82   7.059   5.914  -0.793
    1   AR   Ar   83   0.874   2.064   0.702
    1   AR   Ar   84   7.090   3.500  -0.227
    1   AR   Ar   85   0.728   3.482   0.679
    1   AR   Ar   86   2.213   3.608   0.125
    1   AR   Ar   87   1.861   2.005   1.522
    1   AR   Ar   88   2.471   4.676   2.089
    1   AR   Ar   89   0.326   2.790   2.155
    1   AR   Ar   90   2.348   2.571   4.787
    1   AR   Ar   91   1.040   2.307   3.659
    1   AR   Ar   92   1.305   2.295   2.505
    1   AR   Ar   93   1.983   0.638   5.896
    1   AR   Ar   94   1.436   7.031  10.024
    1   AR   Ar   95   4.054   0.617   6.070
    1   AR   Ar   96   2.748   0.157   5.071
    1   AR   Ar   97   4.875   2.002  -0.456
    1   AR   Ar   98   2.309   5.516   2.716
    1   AR   Ar   99   6.584   2.595  -1.256
    1   AR   Ar  100   2.733   2.476   0.305
    1   AR   Ar  101   2.697   4.268   0.970
    1   AR   Ar  102   3.361   2.925   4.412
    1   AR   Ar  103   1.116   4.614   0.171
    1   AR   Ar  104   3.267   2.794  -1.684
    1   AR   Ar  105   2.072   3.173   4.070
    1   AR   Ar  106   3.078   3.401   5.265
    1   AR   Ar  107   1.157   3.537   5.029
    1   AR   Ar  108   3.515   2.392   5.226
    1   AR   Ar  109   1.499   4.117   3.735
    1   AR   Ar  110   1.088   4.745   6.175
    1   AR   Ar  111   5.200   3.674   7.575
    1   AR   Ar  112   1.376   5.516   6.960
    1   AR   Ar  113   2.213   4.961   0.346
    1   AR   Ar  114   2.347   5.715  -0.494
    1   AR   Ar  115   2.561   4.597  -0.828
    1   AR   Ar  116   6.394   6.147  -1.520
    1   AR   Ar  117   0.699   5.659   4.117
    1   AR   Ar  118   1.006   5.655   2.675
    1   AR   Ar  119   1.615   3.943   2.453
    1   AR   Ar  120   1.555   6.476   2.386
    1   AR   Ar  121   6.418   4.003   4.630
    1   AR   Ar  122   2.706   6.034   5.006
    1   AR   Ar  123   3.597   4.376   5.103
    1   AR   Ar  124   1.805   5.374   1.433
    1   AR   Ar  125   0.398   4.037   5.650
    1   AR   Ar  126   6.916   6.872   4.888
    1   AR   Ar  127   3.153   4.028   6.390
    1   AR   Ar  128   2.590   5.502   6.397
    1   AR   Ar  129   2.020   0.071   3.253
    1   AR   Ar  130   5.206   2.550  -1.360
    1   AR   Ar  131   4.261   0.838  -0.457
    1   AR   Ar  132   0.777   1.389  -0.809
    1   AR   Ar  133   4.151   6.979   2.736
    1   AR   Ar  134   4.779   1.088   3.935
    1   AR   Ar  135   5.288   0.706   3.180
    1   AR   Ar  136   5.090   0.235   2.041
    1   AR   Ar  137   1.938   5.450   3.689
    1   AR   Ar  138   4.665   2.148   4.562
    1   AR   Ar  139   5.470   2.417   5.635
    1   AR   Ar  140   3.773   0.064   4.472
    1   AR   Ar  141   3.925   5.715   4.591
    1   AR   Ar  142   3.634   6.371   5.437
    1   AR   Ar  143   6.924   6.522   5.946
    1   AR   Ar  144   5.566   1.359   5.746
    1   AR   Ar  145   4.003   4.498   0.522
    1   AR   Ar  146   4.549   2.238   1.527
    1   AR   Ar  147   5.527   1.947  -2.268
    1   AR   Ar  148   3.685   4.466  -1.292
    1   AR   Ar  149   3.684   2.009   0.766
    1   AR   Ar  150   2.226   1.784   2.682
    1   AR   Ar  151   2.749   2.508   3.358
    1   AR   Ar  152   3.471   3.272   0.191
    1   AR   Ar  153   3.946   0.560   3.678
    1   AR   Ar  154   3.803   2.156   3.704
    1   AR   Ar  155   6.506   0.263   6.672
    1   AR   Ar  156   3.967   3.747   4.254
    1   AR   Ar  157   2.509   3.277   6.134
    1   AR   Ar  158   1.361   3.823   6.664
    1   AR   Ar  159   4.361   2.238   5.989
    1   AR   Ar  160   2.633   1.871   5.548
    1   AR   Ar  161   5.315   3.120   1.308
    1   AR   Ar  162   4.289   6.193  -0.832
    1   AR   Ar  163   5.513   3.321   0.234
    1   AR   Ar  164   3.328   5.564   2.033
    1   AR   Ar  165   3.848   3.204   1.462
    1   AR   Ar  166   2.874   3.989   4.179
    1   AR   Ar  167   3.967   1.047   2.415
    1   AR   Ar  168   4.560   3.166  -0.378
    1   AR   Ar  169   2.871   2.904   1.649
    1   AR   Ar  170   2.099   4.245   5.882
    1   AR   Ar  171   5.417   3.965   4.010
    1   AR   Ar  172   4.813   4.890   4.607
    1   AR   Ar  173   2.340   3.655   7.483
    1   AR   Ar  174   2.552   4.649   7.063
    1   AR   Ar  175   3.218   2.603   6.574
    1   AR   Ar  176   3.997   3.369   6.200
    1   AR   Ar  177   6.410   4.706   0.014
    1   AR   Ar  178   3.306   5.340   0.265
    1   AR   Ar  179   4.440   5.485   0.977
    1   AR   Ar  180   1.378   2.133  -2.437
    1   AR   Ar  181   0.755   6.187   1.408
    1   AR   Ar  182   2.530   0.741   2.732
    1   AR   Ar  183   3.477   5.091   2.923
    1   AR   Ar  184   3.943   6.234   1.523
    1   AR   Ar  185   1.711   4.984   4.571
    1   AR   Ar  186   3.771   4.905   3.963
    1   AR   Ar  187   3.528   6.154   3.469
    1   AR   Ar  188   2.693   6.679   1.952
    1   AR   Ar  189   3.442   2.216   7.617
    1   AR   Ar  190   4.898   6.963   5.101
    1   AR   Ar  191   3.904   5.028   6.617
    1   AR   Ar  192   4.590   5.914   5.578
    1   AR   Ar  193   1.182   6.247   0.304
    1   AR   Ar  194   4.679   3.544  -1.263
    1   AR   Ar  195   6.129   0.716  -0.159
    1   AR   Ar  196   5.021   6.992  -0.162
    1   AR   Ar  197   4.959   1.344   0.802
    1   AR   Ar  198   6.971   1.288   0.549
    1   AR   Ar  199   4.736   1.793   2.518
    1   AR   Ar  200   5.695   1.947   0.200
    1   AR   Ar  201   4.678   6.646   3.583
    1   AR   Ar  202   5.804   2.545   4.570
    1   AR   Ar  203   5.977   6.584   4.203
    1   AR   Ar  204   5.733   0.433   4.511
    1   AR   Ar  205   6.242   7.044   2.778
    1   AR   Ar  206   4.497   0.799   5.039
    1   AR   Ar  207   0.782   0.913   6.128
    1   AR   Ar  208   0.044   6.955   3.197
    1   AR   Ar  209   5.732   3.343  -1.983
    1   AR   Ar  210   3.684   0.887   0.510
    1   AR   Ar  211   6.590   2.967   0.544
    1   AR   Ar  212   6.393   3.866  -1.009
    1   AR   Ar  213   3.199   2.000   2.448
    1   AR   Ar  214   4.239   2.656   3.028
    1   AR   Ar  215   5.965   2.096   1.295
    1   AR   Ar  216   0.453   3.891   1.637
    1   AR   Ar  217   4.661   3.111   3.972
    1   AR   Ar  218   4.569   3.343   5.205
    1   AR   Ar  219   5.158   1.970   3.529
    1   AR   Ar  220   4.540   3.397   2.100
    1   AR   Ar  221   6.059   0.158   5.501
    1   AR   Ar  222   4.911   1.219   6.984
    1   AR   Ar  223   0.655   0.798   7.397
    1   AR   Ar  224   5.070   3.039   6.407
    1   AR   Ar  225   5.909   3.862   1.572
    1   AR   Ar  226   3.660   4.202   2.309
    1   AR   Ar  227   7.047   4.647   0.778
    1   AR   Ar  228   5.262   6.403   1.055
    1   AR   Ar  229   5.585   4.121  -0.452
    1   AR   Ar  230   4.454   4.266   3.211
    1   AR   Ar  231   6.294   1.325   2.893
    1   AR   Ar  232   4.468   2.972   0.714
    1   AR   Ar  233   6.218   2.230   3.562
    1   AR   Ar  234   6.687   2.967   4.417
    1   AR   Ar  235   0.058   2.175   4.011
    1   AR   Ar  236   5.710   4.773   5.127
    1   AR   Ar  237   5.738   3.481   5.228
    1   AR   Ar  238   4.736   4.632   5.622
    1   AR   Ar  239   6.915   4.260   9.033
    1   AR   Ar  240   6.856   3.246   6.360
    1   AR   Ar  241   0.907   6.585  -1.324
    1   AR   Ar  242   5.488   4.524   0.592
    1   AR   Ar  243   5.734   4.143   2.582
    1   AR   Ar  244   1.007   5.712  -0.665
    1   AR   Ar  245   5.472   0.386   0.805
    1   AR   Ar  246   6.397   5.485   0.979
    1   AR   Ar  247   4.726   4.040   1.307
    1   AR   Ar  248   5.358   5.220  -0.102
    1   AR   Ar  249   4.417   5.520   2.112
    1   AR   Ar  250   5.407   5.832   4.460
    1   AR   Ar  251   5.818   4.964   3.835
    1   AR   Ar  252   4.859   5.471   3.088
    1   AR   Ar  253   5.890   3.730   6.311
    1   AR   Ar  254   2.500   5.756   8.418
    1   AR   Ar  255   4.847   2.699   7.472
    1   AR   Ar  256   6.722   6.142   3.657
    7.12000  7.12000 12.00000
Argon-slab step 2765
  256
    1   AR   Ar    1   6.566   1.448  -0.995
    1   AR   Ar    2   6.816   7.105   0.981
    1   AR   Ar    3   1.689   1.285   0.484
    1   AR   Ar    4   1.286   0.501  -0.262
    1   AR   Ar    5   7.083   6.485   0.213
    1   AR   Ar    6   7.066   0.682   2.542
    1   AR   Ar    7   6.431   4.112   3.403
    1   AR   Ar    8   6.279   0.264   1.862
    1   AR   Ar    9   1.050   0.449   3.399
    1   AR   Ar   10   0.580   1.197   4.264
    1   AR   Ar   11   2.157   6.616   4.040
    1   AR   Ar   12   0.862   1.542   3.071
    1   AR   Ar   13   6.728   1.402   5.159
    1   AR   Ar   14   1.241   1.855   7.105
    1   AR   Ar   15   5.997   0.792   9.950
    1   AR   Ar   16   0.927   0.405   4.750
    1   AR   Ar   17   6.859   2.117  -0.177
    1   AR   Ar   18   5.808   2.619  -0.587
    1   AR   Ar   19   1.656   3.125   1.553
    1   AR   Ar   20   4.781   4.127  -2.133
    1   AR   Ar   21   5.417   1.371   1.668
    1   AR   Ar   22   6.890   1.896   2.239
    1   AR   Ar   23   0.066   0.430  -0.440
    1   AR   Ar   24   7.110   2.272   1.190
    1   AR   Ar   25   6.818   0.934   3.758
    1   AR   Ar   26   5.900   1.400   4.376
    1   AR   Ar   27   1.777   1.671   3.639
    1   AR   Ar   28   1.276   2.663   4.518
    1   AR   Ar   29   5.711   2.223   6.563
    1   AR   Ar   30   1.286   1.505   4.837
    1   AR   Ar   31   1.374   0.022   7.817
    1   AR   Ar   32   1.684   2.610   6.124
    1   AR   Ar   33   1.113   4.039  -0.722
    1   AR   Ar   34   7.063   5.332   3.002
    1   AR   Ar   35   6.351   4.749   1.893
    1   AR   Ar   36   0.252   0.637  -3.620
    1   AR   Ar   37   6.079   2.664   2.328
    1   AR   Ar   38   7.052   4.147   2.474
    1   AR   Ar   39   1.365   3.265   3.261
    1   AR   Ar   40   1.597   4.288   1.356
    1   AR   Ar   41   0.543   3.196   4.007
    1   AR   Ar   42   6.570   5.625   4.826
    1   AR   Ar   43   6.699   1.866   6.222
    1   AR   Ar   44   0.753   4.483   3.146
    1   AR   Ar   45   0.320   2.778   5.037
    1   AR   Ar   46   0.995   6.156   6.135
    1   AR   Ar   47   6.180   3.369   7.748
    1   AR   Ar   48   0.549   7.109   6.628
    1   AR   Ar   49   6.031   0.422  -2.056
    1   AR   Ar   50   5.419   5.123   1.531
    1   AR   Ar   51   0.305   5.147   1.758
    1   AR   Ar   52   5.399   4.799  -1.268
    1   AR   Ar   53   5.392   6.341   2.715
    1   AR   Ar   54   6.781   6.168   2.339
    1   AR   Ar   55   5.915   5.408   2.890
    1   AR   Ar   56   0.695   0.158   0.494
    1   AR   Ar   57   5.591   3.072   3.439
    1   AR   Ar   58   7.109   4.870   4.028
    1   AR   Ar   59   1.695   5.623   5.385
    1   AR   Ar   60   0.665   6.678   4.027
    1   AR   Ar   61   6.468   4.244   5.760
    1   AR   Ar   62   0.606   5.244   5.277
    1   AR   Ar   63   2.802   7.100   6.844
    1   AR   Ar   64   0.859   6.492   5.147
    1   AR   Ar   65   3.281   6.731   0.781
    1   AR   Ar   66   0.589   1.389   1.831
    1   AR   Ar   67   2.879   6.323  -1.563
    1   AR   Ar   68   3.219   2.075  -0.790
    1   AR   Ar   69   2.547   1.183   1.110
    1   AR   Ar   70   0.507   7.040   2.143
    1   AR   Ar   71   2.869   1.644   3.838
    1   AR   Ar   72   3.145   0.633   1.839
    1   AR   Ar   73   2.973   0.146   3.941
    1   AR   Ar   74   2.104   0.898   4.379
    1   AR   Ar   75   3.678   1.300   4.384
    1   AR   Ar   76   1.386   0.359   2.228
    1   AR   Ar   77   2.478   6.650   5.891
    1   AR   Ar   78   1.811   0.491   6.844
    1   AR   Ar   79   3.817   6.503   6.437
    1   AR   Ar   80   3.696   5.249   5.690
    1   AR   Ar   81   2.298   0.997  -0.415
    1   AR   Ar   82   7.058   5.900  -0.805
    1   AR   Ar   83   0.850   2.089   0.682
    1   AR   Ar   84   7.070   3.483  -0.247
    1   AR   Ar   85   0.755   3.508   0.688
    1   AR   Ar   86   2.215   3.624   0.086
    1   AR   Ar   87   1.871   2.008   1.518
    1   AR   Ar   88   2.440   4.694   2.091
    1   AR   Ar   89   0.346   2.802   2.118
    1   AR   Ar   90   2.366   2.559   4.795
    1   AR   Ar   91   1.017   2.304   3.664
    1   AR   Ar   92   1.309   2.268   2.503
    1   AR   Ar   93   1.977   0.641   5.878
    1   AR   Ar   94   1.442   7.030  10.036
    1   AR   Ar   95   4.059   0.628   6.078
    1   AR   Ar   96   2.736   0.152   5.074
    1   AR   Ar   97   4.860   2.047  -0.470
    1   AR   Ar   98   2.334   5.548   2.685
    1   AR   Ar   99   6.594   2.623  -1.264
    1   AR   Ar  100   2.731   2.490   0.293
    1   AR   Ar  101   2.739   4.267   0.970
    1   AR   Ar  102   3.351   2.926   4.385
    1   AR   Ar  103   1.106   4.587   0.172
    1   AR   Ar  104   3.257   2.774  -1.659
    1   AR   Ar  105   2.056   3.185   4.059
    1   AR   Ar  106   3.074   3.405   5.308
    1   AR   Ar  107   1.143   3.520   5.027
    1   AR   Ar  108   3.545   2.383   5.227
    1   AR   Ar  109   1.504   4.115   3.752
    1   AR   Ar  110   1.079   4.734   6.137
    1   AR   Ar  111   5.178   3.707   7.590
    1   AR   Ar  112   1.356   5.530   6.961
    1   AR   Ar  113   2.209   4.965   0.363
    1   AR   Ar  114   2.382   5.716  -0.478
    1   AR   Ar  115   2.545   4.622  -0.833
    1   AR   Ar  116   6.396   6.176  -1.507
    1   AR   Ar  117   0.702   5.655   4.129
    1   AR   Ar  118   1.013   5.628   2.660
    1   AR   Ar  119   1.627   3.908   2.462
    1   AR   Ar  120   1.527   6.510   2.393
    1   AR   Ar  121   6.406   3.991   4.634
    1   AR   Ar  122   2.710   6.012   4.995
    1   AR   Ar  123   3.624   4.343   5.097
    1   AR   Ar  124   1.823   5.411   1.429
    1   AR   Ar  125   0.405   4.050   5.683
    1   AR   Ar  126   6.901   6.890   4.854
    1   AR   Ar  127   3.131   4.014   6.388
    1   AR   Ar  128   2.588   5.488   6.392
    1   AR   Ar  129   2.051   0.063   3.247
    1   AR   Ar  130   5.216   2.612  -1.345
    1   AR   Ar  131   4.287   0.863  -0.449
    1   AR   Ar  132   0.750   1.400  -0.788
    1   AR   Ar  133   4.146   6.949   2.721
    1   AR   Ar  134   4.758   1.091   3.926
    1   AR   Ar  135   5.313   0.699   3.169
    1   AR   Ar  136   5.072   0.234   2.039
    1   AR   Ar  137   1.919   5.395   3.669
    1   AR   Ar  138   4.658   2.153   4.556
    1   AR   Ar  139   5.484   2.427   5.650
    1   AR   Ar  140   3.751   0.062   4.463
    1   AR   Ar  141   3.919   5.745   4.618
    1   AR   Ar  142   3.602   6.393   5.414
    1   AR   Ar  143   6.924   6.538   5.954
    1   AR   Ar  144   5.564   1.329   5.783
    1   AR   Ar  145   3.991   4.502   0.554
    1   AR   Ar  146   4.555   2.202   1.536
    1   AR   Ar  147   5.506   1.926  -2.282
    1   AR   Ar  148   3.667   4.508  -1.276
    1   AR   Ar  149   3.688   2.029   0.786
    1   AR   Ar  150   2.216   1.779   2.709
    1   AR   Ar  151   2.720   2.499   3.395
    1   AR   Ar  152   3.462   3.326   0.150
    1   AR   Ar  153   3.949   0.547   3.689
    1   AR   Ar  154   3.778   2.165   3.742
    1   AR   Ar  155   6.534   0.256   6.691
    1   AR   Ar  156   3.926   3.755   4.228
    1   AR   Ar  157   2.500   3.295   6.163
    1   AR   Ar  158   1.380   3.801   6.638
    1   AR   Ar  159   4.381   2.261   5.997
    1   AR   Ar  160   2.637   1.880   5.524
    1   AR   Ar  161   5.327   3.092   1.312
    1   AR   Ar  162   4.279   6.203  -0.828
    1   AR   Ar  163   5.509   3.315   0.225
    1   AR   Ar  164   3.313   5.558   2.016
    1   AR   Ar  165   3.812   3.208   1.467
    1   AR   Ar  166   2.846   3.963   4.201
    1   AR   Ar  167   3.980   1.045   2.396
    1   AR   Ar  168   4.557   3.143  -0.342
    1   AR   Ar  169   2.893   2.912   1.651
    1   AR   Ar  170   2.097   4.266   5.909
    1   AR   Ar  171   5.396   3.988   4.072
    1   AR   Ar  172   4.832   4.865   4.626
    1   AR   Ar  173   2.353   3.666   7.489
    1   AR   Ar  174   2.539   4.625   7.044
    1   AR   Ar  175   3.190   2.623   6.519
    1   AR   Ar  176   3.975   3.352   6.213
    1   AR   Ar  177   6.421   4.691   0.015
    1   AR   Ar  178   3.338   5.317   0.287
    1   AR   Ar  179   4.422   5.484   0.981
    1   AR   Ar  180   1.356   2.125  -2.467
    1   AR   Ar  181   0.743   6.203   1.441
    1   AR   Ar  182   2.478   0.759   2.728
    1   AR   Ar  183   3.487   5.073   2.900
    1   AR   Ar  184   3.951   6.235   1.546
    1   AR   Ar  185   1.727   4.992   4.590
    1   AR   Ar  186   3.794   4.886   3.965
    1   AR   Ar  187   3.521   6.157   3.476
    1   AR   Ar  188   2.680   6.663   1.940
    1   AR   Ar  189   3.422   2.203   7.606
    1   AR   Ar  190   4.882   6.939   5.065
    1   AR   Ar  191   3.887   5.050   6.620
    1   AR   Ar  192   4.603   5.918   5.586
    1   AR   Ar  193   1.171   6.245   0.303
    1   AR   Ar  194   4.665   3.533  -1.251
    1   AR   Ar  195   6.134   0.718  -0.178
    1   AR   Ar  196   5.022   7.003  -0.144
    1   AR   Ar  197   4.916   1.349   0.769
    1   AR   Ar  198   6.957   1.268   0.535
    1   AR   Ar  199   4.704   1.808   2.518
    1   AR   Ar  200   5.733   1.936   0.220
    1   AR   Ar  201   4.685   6.665   3.599
    1   AR   Ar  202   5.797   2.581   4.572
    1   AR   Ar  203   5.988   6.569   4.169
    1   AR   Ar  204   5.735   0.412   4.537
    1   AR   Ar  205   6.249   7.036   2.789
    1   AR   Ar  206   4.508   0.819   5.030
    1   AR   Ar  207   0.774   0.892   6.159
    1   AR   Ar  208   0.030   6.974   3.197
    1   AR   Ar  209   5.735   3.354  -1.995
    1   AR   Ar  210   3.665   0.886   0.514
    1   AR   Ar  211   6.582   2.980   0.535
    1   AR   Ar  212   6.401   3.849  -1.038
    1   AR   Ar  213   3.185   1.967   2.460
    1   AR   Ar  214   4.269   2.673   3.035
    1   AR   Ar  215   5.934   2.085   1.285
    1   AR   Ar  216   0.497   3.873   1.656
    1   AR   Ar  217   4.663   3.114   3.955
    1   AR   Ar  218   4.567   3.356   5.220
    1   AR   Ar  219   5.158   1.998   3.540
    1   AR   Ar  220   4.533   3.399   2.100
    1   AR   Ar  221   6.066   0.111   5.447
    1   AR   Ar  222   4.905   1.186   6.989
    1   AR   Ar  223   0.669   0.767   7.410
    1   AR   Ar  224   5.063   3.022   6.423
    1   AR   Ar  225   5.926   3.840   1.585
    1   AR   Ar  226   3.639   4.191   2.338
    1   AR   Ar  227   7.043   4.664   0.769
    1   AR   Ar  228   5.273   6.416   1.063
    1   AR   Ar  229   5.590   4.156  -0.430
    1   AR   Ar  230   4.466   4.258   3.193
    1   AR   Ar  231   6.290   1.301   2.911
    1   AR   Ar  232   4.495   2.940   0.710
    1   AR   Ar  233   6.206   2.184   3.561
    1   AR   Ar  234   6.697   2.954   4.414
    1   AR   Ar  235   0.052   2.169   4.066
    1   AR   Ar  236   5.721   4.801   5.121
    1   AR   Ar  237   5.708   3.495   5.251
    1   AR   Ar  238   4.747   4.650   5.614
    1   AR   Ar  239   6.922   4.284   9.006
    1   AR   Ar  240   6.874   3.248   6.372
    1   AR   Ar  241   0.920   6.579  -1.308
    1   AR   Ar  242   5.460   4.545   0.611
    1   AR   Ar  243   5.752   4.160   2.591
    1   AR   Ar  244   0.969   5.724  -0.664
    1   AR   Ar  245   5.464   0.379   0.802
    1   AR   Ar  246   6.395   5.466   0.961
    1   AR   Ar  247   4.728   4.044   1.315
    1   AR   Ar  248   5.358   5.229  -0.126
    1   AR   Ar  249   4.439   5.485   2.110
    1   AR   Ar  250   5.425   5.787   4.468
    1   AR   Ar  251   5.866   4.932   3.818
    1   AR   Ar  252   4.835   5.436   3.085
    1   AR   Ar  253   5.887   3.714   6.341
    1   AR   Ar  254   2.474   5.740   8.429
    1   AR   Ar  255   4.821   2.690   7.447
    1   AR   Ar  256   6.731   6.141   3.658
    7.12000  7.12000 12.00000
Argon-slab step 2770
  256
    1   AR   Ar    1   6.566   1.422  -1.013
    1   AR   Ar    2   6.835   7.087   0.980
    1   AR   Ar    3   1.692   1.317   0.458
    1   AR   Ar    4   1.303   0.491  -0.241
    1   AR   Ar    5   7.087   6.465   0.215
    1   AR   Ar    6   7.113   0.715   2.505
    1   AR   Ar    7   6.399   4.096   3.411
    1   AR   Ar    8   6.247   0.278   1.838
    1   AR   Ar    9   1.080   0.451   3.396
    1   AR   Ar   10   0.579   1.243   4.299
    1   AR   Ar   11   2.173   6.608   4.037
    1   AR   Ar   12   0.867   1.517   3.091
    1   AR   Ar   13   6.760   1.361   5.129
    1   AR   Ar   14   1.230   1.874   7.071
    1   AR   Ar   15   5.978   0.799   9.972
    1   AR   Ar   16   0.937   0.433   4.783
    1   AR   Ar   17   6.846   2.136  -0.200
    1   AR   Ar   18   5.792   2.615  -0.569
    1   AR   Ar   19   1.673   3.102   1.562
    1   AR   Ar   20   4.813   4.139  -2.098
    1   AR   Ar   21   5.406   1.371   1.668
    1   AR   Ar   22   6.872   1.892   2.230
    1   AR   Ar   23   0.070   0.440  -0.425
    1   AR   Ar   24   7.091   2.293   1.200
    1   AR   Ar   25   6.821   0.899   3.748
    1   AR   Ar   26   5.912   1.440   4.386
    1   AR   Ar   27   1.773   1.682   3.628
    1   AR   Ar   28   1.286   2.673   4.549
    1   AR   Ar   29   5.710   2.215   6.571
    1   AR   Ar   30   1.332   1.511   4.841
    1   AR   Ar   31   1.352   0.052   7.803
    1   AR   Ar   32   1.663   2.595   6.144
    1   AR   Ar   33   1.111   4.061  -0.730
    1   AR   Ar   34   7.053   5.343   3.010
    1   AR   Ar   35   6.378   4.750   1.893
    1   AR   Ar   36   0.261   0.640  -3.623
    1   AR   Ar   37   6.056   2.670   2.355
    1   AR   Ar   38   7.025   4.141   2.439
    1   AR   Ar   39   1.334   3.231   3.267
    1   AR   Ar   40   1.589   4.284   1.342
    1   AR   Ar   41   0.563   3.200   4.039
    1   AR   Ar   42   6.571   5.649   4.825
    1   AR   Ar   43   6.678   1.865   6.254
    1   AR   Ar   44   0.777   4.494   3.127
    1   AR   Ar   45   0.315   2.796   5.034
    1   AR   Ar   46   0.993   6.197   6.143
    1   AR   Ar   47   6.167   3.366   7.726
    1   AR   Ar   48   0.535   0.003   6.629
    1   AR   Ar   49   6.015   0.444  -2.054
    1   AR   Ar   50   5.391   5.138   1.537
    1   AR   Ar   51   0.285   5.111   1.788
    1   AR   Ar   52   5.386   4.790  -1.280
    1   AR   Ar   53   5.368   6.352   2.723
    1   AR   Ar   54   6.770   6.162   2.344
    1   AR   Ar   55   5.924   5.387   2.884
    1   AR   Ar   56   0.722   0.172   0.470
    1   AR   Ar   57   5.621   3.076   3.427
    1   AR   Ar   58   0.022   4.845   4.007
    1   AR   Ar   59   1.685   5.612   5.421
    1   AR   Ar   60   0.680   6.670   4.044
    1   AR   Ar   61   6.483   4.267   5.759
    1   AR   Ar   62   0.621   5.249   5.292
    1   AR   Ar   63   2.815   7.113   6.832
    1   AR   Ar   64   0.859   6.493   5.115
    1   AR   Ar   65   3.239   6.701   0.754
    1   AR   Ar   66   0.574   1.377   1.839
    1   AR   Ar   67   2.864   6.320  -1.580
    1   AR   Ar   68   3.225   2.068  -0.768
    1   AR   Ar   69   2.573   1.160   1.124
    1   AR   Ar   70   0.497   7.073   2.111
    1   AR   Ar   71   2.879   1.633   3.876
    1   AR   Ar   72   3.143   0.603   1.829
    1   AR   Ar   73   2.984   0.149   3.923
    1   AR   Ar   74   2.060   0.900   4.356
    1   AR   Ar   75   3.634   1.297   4.381
    1   AR   Ar   76   1.394   0.384   2.217
    1   AR   Ar   77   2.470   6.651   5.887
    1   AR   Ar   78   1.798   0.477   6.853
    1   AR   Ar   79   3.813   6.481   6.432
    1   AR   Ar   80   3.704   5.295   5.714
    1   AR   Ar   81   2.309   0.991  -0.409
    1   AR   Ar   82   7.060   5.886  -0.811
    1   AR   Ar   83   0.831   2.113   0.659
    1   AR   Ar   84   7.051   3.468  -0.268
    1   AR   Ar   85   0.782   3.534   0.695
    1   AR   Ar   86   2.217   3.642   0.048
    1   AR   Ar   87   1.879   2.011   1.514
    1   AR   Ar   88   2.410   4.709   2.089
    1   AR   Ar   89   0.367   2.815   2.081
    1   AR   Ar   90   2.385   2.545   4.805
    1   AR   Ar   91   0.987   2.310   3.660
    1   AR   Ar   92   1.320   2.247   2.501
    1   AR   Ar   93   1.983   0.645   5.863
    1   AR   Ar   94   1.447   7.029  10.047
    1   AR   Ar   95   4.065   0.639   6.086
    1   AR   Ar   96   2.715   0.157   5.067
    1   AR   Ar   97   4.845   2.091  -0.481
    1   AR   Ar   98   2.341   5.533   2.681
    1   AR   Ar   99   6.607   2.652  -1.274
    1   AR   Ar  100   2.688   2.510   0.248
    1   AR   Ar  101   2.782   4.264   0.971
    1   AR   Ar  102   3.337   2.926   4.352
    1   AR   Ar  103   1.096   4.562   0.176
    1   AR   Ar  104   3.247   2.754  -1.635
    1   AR   Ar  105   2.043   3.202   4.044
    1   AR   Ar  106   3.072   3.409   5.349
    1   AR   Ar  107   1.129   3.511   5.030
    1   AR   Ar  108   3.578   2.373   5.233
    1   AR   Ar  109   1.514   4.121   3.778
    1   AR   Ar  110   1.082   4.734   6.120
    1   AR   Ar  111   5.155   3.742   7.603
    1   AR   Ar  112   1.338   5.542   6.961
    1   AR   Ar  113   2.203   4.969   0.379
    1   AR   Ar  114   2.417   5.716  -0.462
    1   AR   Ar  115   2.530   4.647  -0.836
    1   AR   Ar  116   6.392   6.207  -1.501
    1   AR   Ar  117   0.706   5.648   4.142
    1   AR   Ar  118   1.018   5.599   2.645
    1   AR   Ar  119   1.638   3.875   2.469
    1   AR   Ar  120   1.502   6.536   2.401
    1   AR   Ar  121   6.393   3.985   4.629
    1   AR   Ar  122   2.714   6.023   4.992
    1   AR   Ar  123   3.651   4.308   5.090
    1   AR   Ar  124   1.840   5.448   1.424
    1   AR   Ar  125   0.411   4.059   5.713
    1   AR   Ar  126   6.888   6.907   4.817
    1   AR   Ar  127   3.118   4.009   6.386
    1   AR   Ar  128   2.586   5.476   6.384
    1   AR   Ar  129   2.074   0.051   3.239
    1   AR   Ar  130   5.217   2.673  -1.344
    1   AR   Ar  131   4.314   0.889  -0.440
    1   AR   Ar  132   0.720   1.410  -0.764
    1   AR   Ar  133   4.140   6.920   2.705
    1   AR   Ar  134   4.740   1.100   3.927
    1   AR   Ar  135   5.341   0.689   3.153
    1   AR   Ar  136   5.056   0.233   2.037
    1   AR   Ar  137   1.899   5.343   3.645
    1   AR   Ar  138   4.661   2.156   4.554
    1   AR   Ar  139   5.494   2.440   5.646
    1   AR   Ar  140   3.745   0.044   4.493
    1   AR   Ar  141   3.914   5.775   4.645
    1   AR   Ar  142   3.569   6.417   5.391
    1   AR   Ar  143   6.925   6.556   5.960
    1   AR   Ar  144   5.562   1.299   5.820
    1   AR   Ar  145   3.993   4.504   0.587
    1   AR   Ar  146   4.561   2.167   1.542
    1   AR   Ar  147   5.500   1.909  -2.275
    1   AR   Ar  148   3.650   4.549  -1.260
    1   AR   Ar  149   3.693   2.049   0.806
    1   AR   Ar  150   2.204   1.774   2.733
    1   AR   Ar  151   2.688   2.503   3.426
    1   AR   Ar  152   3.453   3.381   0.110
    1   AR   Ar  153   3.960   0.517   3.662
    1   AR   Ar  154   3.754   2.170   3.786
    1   AR   Ar  155   6.563   0.250   6.708
    1   AR   Ar  156   3.886   3.771   4.204
    1   AR   Ar  157   2.479   3.306   6.192
    1   AR   Ar  158   1.400   3.779   6.612
    1   AR   Ar  159   4.402   2.285   6.004
    1   AR   Ar  160   2.641   1.885   5.504
    1   AR   Ar  161   5.336   3.055   1.317
    1   AR   Ar  162   4.269   6.213  -0.824
    1   AR   Ar  163   5.562   3.304   0.228
    1   AR   Ar  164   3.293   5.552   1.996
    1   AR   Ar  165   3.778   3.215   1.463
    1   AR   Ar  166   2.819   3.938   4.225
    1   AR   Ar  167   3.985   1.065   2.376
    1   AR   Ar  168   4.553   3.115  -0.298
    1   AR   Ar  169   2.907   2.914   1.658
    1   AR   Ar  170   2.095   4.290   5.936
    1   AR   Ar  171   5.385   4.004   4.125
    1   AR   Ar  172   4.844   4.841   4.635
    1   AR   Ar  173   2.366   3.675   7.493
    1   AR   Ar  174   2.525   4.602   7.024
    1   AR   Ar  175   3.166   2.640   6.464
    1   AR   Ar  176   3.955   3.334   6.225
    1   AR   Ar  177   6.394   4.689   0.012
    1   AR   Ar  178   3.369   5.296   0.308
    1   AR   Ar  179   4.406   5.480   0.982
    1   AR   Ar  180   1.333   2.117  -2.496
    1   AR   Ar  181   0.735   6.215   1.469
    1   AR   Ar  182   2.471   0.791   2.740
    1   AR   Ar  183   3.498   5.055   2.883
    1   AR   Ar  184   3.959   6.244   1.568
    1   AR   Ar  185   1.741   4.993   4.608
    1   AR   Ar  186   3.817   4.865   3.966
    1   AR   Ar  187   3.507   6.158   3.486
    1   AR   Ar  188   2.667   6.648   1.930
    1   AR   Ar  189   3.402   2.190   7.594
    1   AR   Ar  190   4.866   6.912   5.028
    1   AR   Ar  191   3.872   5.068   6.637
    1   AR   Ar  192   4.616   5.922   5.592
    1   AR   Ar  193   1.159   6.245   0.302
    1   AR   Ar  194   4.654   3.526  -1.246
    1   AR   Ar  195   6.139   0.722  -0.195
    1   AR   Ar  196   5.009   7.014  -0.151
    1   AR   Ar  197   4.875   1.362   0.753
    1   AR   Ar  198   6.943   1.247   0.520
    1   AR   Ar  199   4.674   1.823   2.521
    1   AR   Ar  200   5.773   1.924   0.241
    1   AR   Ar  201   4.693   6.683   3.617
    1   AR   Ar  202   5.778   2.612   4.575
    1   AR   Ar  203   5.999   6.563   4.136
    1   AR   Ar  204   5.731   0.389   4.557
    1   AR   Ar  205   6.250   7.031   2.801
    1   AR   Ar  206   4.519   0.841   5.019
    1   AR   Ar  207   0.769   0.874   6.189
    1   AR   Ar  208   0.031   7.001   3.234
    1   AR   Ar  209   5.732   3.357  -2.011
    1   AR   Ar  210   3.647   0.886   0.518
    1   AR   Ar  211   6.572   2.992   0.529
    1   AR   Ar  212   6.410   3.830  -1.069
    1   AR   Ar  213   3.174   1.936   2.462
    1   AR   Ar  214   4.305   2.695   3.034
    1   AR   Ar  215   5.914   2.089   1.269
    1   AR   Ar  216   0.545   3.856   1.673
    1   AR   Ar  217   4.669   3.113   3.939
    1   AR   Ar  218   4.565   3.367   5.234
    1   AR   Ar  219   5.156   2.028   3.553
    1   AR   Ar  220   4.536   3.400   2.114
    1   AR   Ar  221   6.074   0.062   5.400
    1   AR   Ar  222   4.905   1.197   7.013
    1   AR   Ar  223   0.683   0.739   7.421
    1   AR   Ar  224   5.041   3.009   6.437
    1   AR   Ar  225   5.947   3.822   1.597
    1   AR   Ar  226   3.619   4.176   2.364
    1   AR   Ar  227   7.013   4.667   0.779
    1   AR   Ar  228   5.284   6.428   1.071
    1   AR   Ar  229   5.592   4.190  -0.407
    1   AR   Ar  230   4.477   4.251   3.176
    1   AR   Ar  231   6.281   1.277   2.929
    1   AR   Ar  232   4.520   2.907   0.702
    1   AR   Ar  233   6.196   2.137   3.560
    1   AR   Ar  234   6.701   2.957   4.406
    1   AR   Ar  235   0.051   2.151   4.119
    1   AR   Ar  236   5.739   4.828   5.116
    1   AR   Ar  237   5.676   3.507   5.275
    1   AR   Ar  238   4.766   4.671   5.607
    1   AR   Ar  239   6.928   4.308   8.980
    1   AR   Ar  240   6.892   3.250   6.382
    1   AR   Ar  241   0.932   6.574  -1.291
    1   AR   Ar  242   5.391   4.574   0.617
    1   AR   Ar  243   5.766   4.177   2.601
    1   AR   Ar  244   0.934   5.734  -0.661
    1   AR   Ar  245   5.457   0.373   0.799
    1   AR   Ar  246   6.389   5.450   0.944
    1   AR   Ar  247   4.731   4.052   1.319
    1   AR   Ar  248   5.358   5.243  -0.155
    1   AR   Ar  249   4.461   5.448   2.107
    1   AR   Ar  250   5.431   5.805   4.488
    1   AR   Ar  251   5.914   4.900   3.807
    1   AR   Ar  252   4.810   5.400   3.087
    1   AR   Ar  253   5.874   3.691   6.379
    1   AR   Ar  254   2.447   5.724   8.439
    1   AR   Ar  255   4.794   2.678   7.420
    1   AR   Ar  256   6.746   6.133   3.657
    7.12000  7.12000 12.00000
Argon-slab step 2775
  256
    1   AR   Ar    1   6.567   1.396  -1.028
    1   AR   Ar    2   6.847   7.078   0.972
    1   AR   Ar    3   1.694   1.349   0.432
    1   AR   Ar    4   1.329   0.486  -0.232
    1   AR   Ar    5   7.094   6.441   0.212
    1   AR   Ar    6   0.021   0.745   2.481
    1   AR   Ar    7   6.372   4.076   3.422
    1   AR   Ar    8   6.214   0.294   1.810
    1   AR   Ar    9   1.108   0.454   3.393
    1   AR   Ar   10   0.564   1.290   4.320
    1   AR   Ar   11   2.188   6.591   4.046
    1   AR   Ar   12   0.871   1.473   3.104
    1   AR   Ar   13   6.792   1.319   5.098
    1   AR   Ar   14   1.220   1.891   7.037
    1   AR   Ar   15   5.959   0.806   9.994
    1   AR   Ar   16   0.949   0.454   4.819
    1   AR   Ar   17   6.831   2.157  -0.221
    1   AR   Ar   18   5.788   2.612  -0.539
    1   AR   Ar   19   1.688   3.080   1.573
    1   AR   Ar   20   4.846   4.152  -2.063
    1   AR   Ar   21   5.387   1.356   1.679
    1   AR   Ar   22   6.850   1.888   2.222
    1   AR   Ar   23   0.075   0.450  -0.408
    1   AR   Ar   24   7.067   2.312   1.212
    1   AR   Ar   25   6.823   0.863   3.740
    1   AR   Ar   26   5.924   1.454   4.385
    1   AR   Ar   27   1.769   1.687   3.629
    1   AR   Ar   28   1.304   2.669   4.585
    1   AR   Ar   29   5.701   2.208   6.579
    1   AR   Ar   30   1.390   1.523   4.855
    1   AR   Ar   31   1.334   0.078   7.790
    1   AR   Ar   32   1.641   2.579   6.163
    1   AR   Ar   33   1.109   4.081  -0.741
    1   AR   Ar   34   7.045   5.349   3.016
    1   AR   Ar   35   6.404   4.757   1.891
    1   AR   Ar   36   0.270   0.643  -3.626
    1   AR   Ar   37   6.032   2.676   2.381
    1   AR   Ar   38   6.997   4.136   2.410
    1   AR   Ar   39   1.302   3.194   3.269
    1   AR   Ar   40   1.575   4.271   1.321
    1   AR   Ar   41   0.579   3.210   4.070
    1   AR   Ar   42   6.572   5.673   4.821
    1   AR   Ar   43   6.694   1.890   6.260
    1   AR   Ar   44   0.799   4.508   3.106
    1   AR   Ar   45   0.318   2.811   5.040
    1   AR   Ar   46   0.983   6.209   6.136
    1   AR   Ar   47   6.156   3.361   7.704
    1   AR   Ar   48   0.520   0.009   6.633
    1   AR   Ar   49   5.999   0.465  -2.052
    1   AR   Ar   50   5.364   5.153   1.544
    1   AR   Ar   51   0.267   5.075   1.819
    1   AR   Ar   52   5.372   4.781  -1.294
    1   AR   Ar   53   5.343   6.365   2.731
    1   AR   Ar   54   6.758   6.157   2.348
    1   AR   Ar   55   5.936   5.386   2.872
    1   AR   Ar   56   0.739   0.181   0.457
    1   AR   Ar   57   5.653   3.081   3.414
    1   AR   Ar   58   0.051   4.819   3.986
    1   AR   Ar   59   1.675   5.606   5.462
    1   AR   Ar   60   0.695   6.668   4.061
    1   AR   Ar   61   6.499   4.291   5.754
    1   AR   Ar   62   0.636   5.255   5.305
    1   AR   Ar   63   2.829   0.005   6.819
    1   AR   Ar   64   0.850   6.503   5.076
    1   AR   Ar   65   3.252   6.712   0.745
    1   AR   Ar   66   0.563   1.364   1.845
    1   AR   Ar   67   2.849   6.316  -1.595
    1   AR   Ar   68   3.220   2.061  -0.774
    1   AR   Ar   69   2.593   1.140   1.136
    1   AR   Ar   70   0.482   7.094   2.076
    1   AR   Ar   71   2.872   1.616   3.910
    1   AR   Ar   72   3.150   0.574   1.815
    1   AR   Ar   73   2.979   0.156   3.895
    1   AR   Ar   74   2.018   0.898   4.333
    1   AR   Ar   75   3.605   1.285   4.390
    1   AR   Ar   76   1.409   0.426   2.206
    1   AR   Ar   77   2.461   6.649   5.886
    1   AR   Ar   78   1.779   0.468   6.838
    1   AR   Ar   79   3.807   6.459   6.427
    1   AR   Ar   80   3.709   5.346   5.721
    1   AR   Ar   81   2.308   0.957  -0.390
    1   AR   Ar   82   7.061   5.871  -0.811
    1   AR   Ar   83   0.817   2.135   0.634
    1   AR   Ar   84   7.034   3.453  -0.291
    1   AR   Ar   85   0.810   3.559   0.699
    1   AR   Ar   86   2.220   3.661   0.011
    1   AR   Ar   87   1.888   2.013   1.510
    1   AR   Ar   88   2.381   4.717   2.083
    1   AR   Ar   89   0.390   2.828   2.045
    1   AR   Ar   90   2.403   2.537   4.810
    1   AR   Ar   91   0.953   2.323   3.654
    1   AR   Ar   92   1.341   2.230   2.500
    1   AR   Ar   93   1.998   0.650   5.851
    1   AR   Ar   94   1.452   7.028  10.059
    1   AR   Ar   95   4.071   0.649   6.092
    1   AR   Ar   96   2.696   0.162   5.057
    1   AR   Ar   97   4.829   2.132  -0.491
    1   AR   Ar   98   2.344   5.513   2.684
    1   AR   Ar   99   6.619   2.680  -1.283
    1   AR   Ar  100   2.646   2.531   0.203
    1   AR   Ar  101   2.826   4.259   0.974
    1   AR   Ar  102   3.316   2.925   4.319
    1   AR   Ar  103   1.087   4.539   0.187
    1   AR   Ar  104   3.238   2.735  -1.610
    1   AR   Ar  105   2.050   3.199   4.058
    1   AR   Ar  106   3.072   3.411   5.377
    1   AR   Ar  107   1.114   3.514   5.038
    1   AR   Ar  108   3.613   2.362   5.241
    1   AR   Ar  109   1.526   4.131   3.809
    1   AR   Ar  110   1.109   4.726   6.136
    1   AR   Ar  111   5.131   3.776   7.614
    1   AR   Ar  112   1.321   5.554   6.959
    1   AR   Ar  113   2.197   4.974   0.395
    1   AR   Ar  114   2.452   5.716  -0.445
    1   AR   Ar  115   2.514   4.672  -0.837
    1   AR   Ar  116   6.384   6.241  -1.500
    1   AR   Ar  117   0.708   5.613   4.120
    1   AR   Ar  118   1.021   5.567   2.631
    1   AR   Ar  119   1.650   3.845   2.473
    1   AR   Ar  120   1.480   6.553   2.410
    1   AR   Ar  121   6.382   3.982   4.623
    1   AR   Ar  122   2.713   6.055   4.994
    1   AR   Ar  123   3.679   4.276   5.085
    1   AR   Ar  124   1.858   5.484   1.421
    1   AR   Ar  125   0.417   4.065   5.742
    1   AR   Ar  126   6.879   6.922   4.777
    1   AR   Ar  127   3.123   3.992   6.365
    1   AR   Ar  128   2.584   5.465   6.374
    1   AR   Ar  129   2.091   0.035   3.226
    1   AR   Ar  130   5.211   2.729  -1.357
    1   AR   Ar  131   4.342   0.915  -0.429
    1   AR   Ar  132   0.690   1.419  -0.739
    1   AR   Ar  133   4.134   6.892   2.688
    1   AR   Ar  134   4.725   1.114   3.933
    1   AR   Ar  135   5.372   0.677   3.133
    1   AR   Ar  136   5.041   0.231   2.036
    1   AR   Ar  137   1.903   5.310   3.621
    1   AR   Ar  138   4.673   2.193   4.566
    1   AR   Ar  139   5.501   2.456   5.626
    1   AR   Ar  140   3.753   0.015   4.548
    1   AR   Ar  141   3.910   5.802   4.670
    1   AR   Ar  142   3.540   6.447   5.370
    1   AR   Ar  143   6.928   6.574   5.965
    1   AR   Ar  144   5.561   1.270   5.857
    1   AR   Ar  145   4.014   4.504   0.622
    1   AR   Ar  146   4.568   2.134   1.545
    1   AR   Ar  147   5.492   1.905  -2.240
    1   AR   Ar  148   3.632   4.590  -1.243
    1   AR   Ar  149   3.697   2.070   0.826
    1   AR   Ar  150   2.191   1.772   2.751
    1   AR   Ar  151   2.656   2.517   3.429
    1   AR   Ar  152   3.445   3.435   0.071
    1   AR   Ar  153   3.971   0.489   3.618
    1   AR   Ar  154   3.736   2.175   3.827
    1   AR   Ar  155   6.592   0.243   6.724
    1   AR   Ar  156   3.850   3.793   4.177
    1   AR   Ar  157   2.438   3.313   6.219
    1   AR   Ar  158   1.422   3.755   6.585
    1   AR   Ar  159   4.422   2.307   6.010
    1   AR   Ar  160   2.647   1.883   5.493
    1   AR   Ar  161   5.345   3.013   1.323
    1   AR   Ar  162   4.259   6.223  -0.818
    1   AR   Ar  163   5.612   3.293   0.232
    1   AR   Ar  164   3.269   5.545   1.973
    1   AR   Ar  165   3.761   3.229   1.447
    1   AR   Ar  166   2.791   3.914   4.250
    1   AR   Ar  167   3.988   1.082   2.356
    1   AR   Ar  168   4.549   3.089  -0.256
    1   AR   Ar  169   2.896   2.906   1.670
    1   AR   Ar  170   2.094   4.316   5.962
    1   AR   Ar  171   5.413   3.992   4.132
    1   AR   Ar  172   4.830   4.830   4.655
    1   AR   Ar  173   2.378   3.681   7.496
    1   AR   Ar  174   2.508   4.582   7.004
    1   AR   Ar  175   3.149   2.649   6.411
    1   AR   Ar  176   3.936   3.316   6.234
    1   AR   Ar  177   6.362   4.690   0.002
    1   AR   Ar  178   3.396   5.277   0.329
    1   AR   Ar  179   4.392   5.473   0.982
    1   AR   Ar  180   1.311   2.109  -2.526
    1   AR   Ar  181   0.745   6.208   1.473
    1   AR   Ar  182   2.472   0.827   2.744
    1   AR   Ar  183   3.510   5.041   2.872
    1   AR   Ar  184   3.967   6.258   1.589
    1   AR   Ar  185   1.754   4.988   4.627
    1   AR   Ar  186   3.842   4.843   3.967
    1   AR   Ar  187   3.467   6.143   3.506
    1   AR   Ar  188   2.654   6.631   1.919
    1   AR   Ar  189   3.385   2.183   7.579
    1   AR   Ar  190   4.851   6.884   4.989
    1   AR   Ar  191   3.860   5.082   6.669
    1   AR   Ar  192   4.628   5.924   5.597
    1   AR   Ar  193   1.146   6.244   0.302
    1   AR   Ar  194   4.640   3.525  -1.243
    1   AR   Ar  195   6.106   0.717  -0.232
    1   AR   Ar  196   4.993   7.025  -0.165
    1   AR   Ar  197   4.840   1.388   0.769
    1   AR   Ar  198   6.929   1.226   0.505
    1   AR   Ar  199   4.651   1.838   2.528
    1   AR   Ar  200   5.812   1.911   0.261
    1   AR   Ar  201   4.701   6.701   3.636
    1   AR   Ar  202   5.748   2.639   4.577
    1   AR   Ar  203   6.006   6.567   4.105
    1   AR   Ar  204   5.720   0.372   4.563
    1   AR   Ar  205   6.262   7.042   2.792
    1   AR   Ar  206   4.529   0.864   5.007
    1   AR   Ar  207   0.767   0.864   6.215
    1   AR   Ar  208   0.041   7.031   3.273
    1   AR   Ar  209   5.706   3.329  -2.048
    1   AR   Ar  210   3.629   0.886   0.524
    1   AR   Ar  211   6.559   3.000   0.525
    1   AR   Ar  212   6.416   3.810  -1.101
    1   AR   Ar  213   3.170   1.906   2.462
    1   AR   Ar  214   4.341   2.719   3.029
    1   AR   Ar  215   5.904   2.108   1.249
    1   AR   Ar  216   0.595   3.840   1.689
    1   AR   Ar  217   4.676   3.110   3.926
    1   AR   Ar  218   4.562   3.378   5.248
    1   AR   Ar  219   5.151   2.059   3.566
    1   AR   Ar  220   4.544   3.400   2.135
    1   AR   Ar  221   6.084   0.009   5.371
    1   AR   Ar  222   4.909   1.238   7.049
    1   AR   Ar  223   0.694   0.715   7.429
    1   AR   Ar  224   5.017   3.002   6.451
    1   AR   Ar  225   5.970   3.807   1.607
    1   AR   Ar  226   3.601   4.156   2.387
    1   AR   Ar  227   6.995   4.662   0.798
    1   AR   Ar  228   5.294   6.439   1.081
    1   AR   Ar  229   5.590   4.220  -0.386
    1   AR   Ar  230   4.488   4.243   3.159
    1   AR   Ar  231   6.268   1.252   2.943
    1   AR   Ar  232   4.542   2.872   0.697
    1   AR   Ar  233   6.190   2.093   3.561
    1   AR   Ar  234   6.694   2.976   4.391
    1   AR   Ar  235   0.052   2.124   4.169
    1   AR   Ar  236   5.764   4.855   5.111
    1   AR   Ar  237   5.644   3.520   5.300
    1   AR   Ar  238   4.783   4.691   5.612
    1   AR   Ar  239   6.934   4.331   8.953
    1   AR   Ar  240   6.910   3.253   6.391
    1   AR   Ar  241   0.943   6.572  -1.275
    1   AR   Ar  242   5.325   4.599   0.627
    1   AR   Ar  243   5.777   4.196   2.610
    1   AR   Ar  244   0.907   5.739  -0.654
    1   AR   Ar  245   5.451   0.367   0.797
    1   AR   Ar  246   6.378   5.438   0.929
    1   AR   Ar  247   4.735   4.060   1.321
    1   AR   Ar  248   5.357   5.261  -0.189
    1   AR   Ar  249   4.482   5.409   2.101
    1   AR   Ar  250   5.433   5.816   4.511
    1   AR   Ar  251   5.906   4.876   3.857
    1   AR   Ar  252   4.786   5.363   3.093
    1   AR   Ar  253   5.858   3.665   6.421
    1   AR   Ar  254   2.420   5.709   8.450
    1   AR   Ar  255   4.767   2.665   7.395
    1   AR   Ar  256   6.769   6.118   3.653
    7.12000  7.12000 12.00000
Argon-slab step 2780
  256
    1   AR   Ar    1   6.569   1.371  -1.043
    1   AR   Ar    2   6.857   7.072   0.969
    1   AR   Ar    3   1.695   1.382   0.408
    1   AR   Ar    4   1.363   0.487  -0.237
    1   AR   Ar    5   7.104   6.413   0.203
    1   AR   Ar    6   0.020   0.767   2.478
    1   AR   Ar    7   6.352   4.050   3.437
    1   AR   Ar    8   6.180   0.313   1.781
    1   AR   Ar    9   1.134   0.457   3.392
    1   AR   Ar   10   0.549   1.327   4.334
    1   AR   Ar   11   2.203   6.567   4.065
    1   AR   Ar   12   0.871   1.422   3.112
    1   AR   Ar   13   6.797   1.314   5.071
    1   AR   Ar   14   1.210   1.908   7.001
    1   AR   Ar   15   5.940   0.814  10.015
    1   AR   Ar   16   0.963   0.473   4.856
    1   AR   Ar   17   6.817   2.178  -0.242
    1   AR   Ar   18   5.792   2.609  -0.506
    1   AR   Ar   19   1.703   3.060   1.584
    1   AR   Ar   20   4.880   4.166  -2.031
    1   AR   Ar   21   5.365   1.335   1.696
    1   AR   Ar   22   6.827   1.886   2.216
    1   AR   Ar   23   0.080   0.462  -0.391
    1   AR   Ar   24   7.040   2.330   1.224
    1   AR   Ar   25   6.827   0.827   3.735
    1   AR   Ar   26   5.938   1.427   4.370
    1   AR   Ar   27   1.762   1.685   3.631
    1   AR   Ar   28   1.327   2.648   4.618
    1   AR   Ar   29   5.679   2.204   6.573
    1   AR   Ar   30   1.423   1.492   4.841
    1   AR   Ar   31   1.327   0.093   7.782
    1   AR   Ar   32   1.619   2.563   6.181
    1   AR   Ar   33   1.107   4.099  -0.755
    1   AR   Ar   34   7.044   5.338   3.027
    1   AR   Ar   35   6.420   4.771   1.884
    1   AR   Ar   36   0.278   0.647  -3.628
    1   AR   Ar   37   6.008   2.682   2.407
    1   AR   Ar   38   6.972   4.127   2.388
    1   AR   Ar   39   1.271   3.160   3.266
    1   AR   Ar   40   1.562   4.258   1.300
    1   AR   Ar   41   0.593   3.227   4.099
    1   AR   Ar   42   6.572   5.698   4.816
    1   AR   Ar   43   6.711   1.914   6.264
    1   AR   Ar   44   0.809   4.513   3.080
    1   AR   Ar   45   0.324   2.822   5.053
    1   AR   Ar   46   0.973   6.228   6.130
    1   AR   Ar   47   6.145   3.357   7.679
    1   AR   Ar   48   0.504   0.001   6.641
    1   AR   Ar   49   5.984   0.487  -2.048
    1   AR   Ar   50   5.339   5.169   1.551
    1   AR   Ar   51   0.253   5.041   1.851
    1   AR   Ar   52   5.359   4.772  -1.307
    1   AR   Ar   53   5.317   6.378   2.738
    1   AR   Ar   54   6.772   6.187   2.357
    1   AR   Ar   55   5.949   5.413   2.853
    1   AR   Ar   56   0.742   0.183   0.459
    1   AR   Ar   57   5.670   3.091   3.406
    1   AR   Ar   58   0.076   4.788   3.965
    1   AR   Ar   59   1.665   5.603   5.508
    1   AR   Ar   60   0.709   6.671   4.074
    1   AR   Ar   61   6.511   4.315   5.748
    1   AR   Ar   62   0.646   5.253   5.315
    1   AR   Ar   63   2.843   0.018   6.805
    1   AR   Ar   64   0.839   6.510   5.042
    1   AR   Ar   65   3.278   6.734   0.742
    1   AR   Ar   66   0.558   1.353   1.849
    1   AR   Ar   67   2.834   6.312  -1.609
    1   AR   Ar   68   3.207   2.054  -0.797
    1   AR   Ar   69   2.592   1.122   1.148
    1   AR   Ar   70   0.468   7.104   2.036
    1   AR   Ar   71   2.839   1.601   3.932
    1   AR   Ar   72   3.160   0.543   1.801
    1   AR   Ar   73   2.970   0.167   3.862
    1   AR   Ar   74   1.981   0.891   4.306
    1   AR   Ar   75   3.598   1.260   4.414
    1   AR   Ar   76   1.427   0.477   2.197
    1   AR   Ar   77   2.452   6.646   5.886
    1   AR   Ar   78   1.753   0.467   6.784
    1   AR   Ar   79   3.801   6.436   6.423
    1   AR   Ar   80   3.710   5.400   5.717
    1   AR   Ar   81   2.308   0.923  -0.372
    1   AR   Ar   82   7.054   5.856  -0.810
    1   AR   Ar   83   0.804   2.156   0.608
    1   AR   Ar   84   7.029   3.450  -0.299
    1   AR   Ar   85   0.839   3.583   0.700
    1   AR   Ar   86   2.224   3.680  -0.025
    1   AR   Ar   87   1.898   2.013   1.507
    1   AR   Ar   88   2.352   4.718   2.070
    1   AR   Ar   89   0.414   2.841   2.010
    1   AR   Ar   90   2.420   2.537   4.806
    1   AR   Ar   91   0.916   2.334   3.650
    1   AR   Ar   92   1.354   2.219   2.496
    1   AR   Ar   93   2.025   0.666   5.851
    1   AR   Ar   94   1.438   7.037  10.055
    1   AR   Ar   95   4.077   0.658   6.097
    1   AR   Ar   96   2.677   0.168   5.043
    1   AR   Ar   97   4.813   2.166  -0.501
    1   AR   Ar   98   2.348   5.502   2.690
    1   AR   Ar   99   6.631   2.709  -1.291
    1   AR   Ar  100   2.605   2.551   0.159
    1   AR   Ar  101   2.869   4.255   0.976
    1   AR   Ar  102   3.287   2.928   4.293
    1   AR   Ar  103   1.078   4.518   0.203
    1   AR   Ar  104   3.241   2.731  -1.596
    1   AR   Ar  105   2.055   3.195   4.071
    1   AR   Ar  106   3.073   3.402   5.367
    1   AR   Ar  107   1.100   3.532   5.052
    1   AR   Ar  108   3.647   2.353   5.247
    1   AR   Ar  109   1.540   4.142   3.842
    1   AR   Ar  110   1.142   4.706   6.155
    1   AR   Ar  111   5.106   3.809   7.624
    1   AR   Ar  112   1.305   5.564   6.956
    1   AR   Ar  113   2.190   4.978   0.411
    1   AR   Ar  114   2.488   5.716  -0.427
    1   AR   Ar  115   2.499   4.697  -0.837
    1   AR   Ar  116   6.373   6.278  -1.501
    1   AR   Ar  117   0.711   5.574   4.089
    1   AR   Ar  118   1.024   5.534   2.617
    1   AR   Ar  119   1.661   3.816   2.476
    1   AR   Ar  120   1.458   6.563   2.421
    1   AR   Ar  121   6.371   3.982   4.617
    1   AR   Ar  122   2.702   6.082   4.991
    1   AR   Ar  123   3.709   4.247   5.083
    1   AR   Ar  124   1.875   5.520   1.417
    1   AR   Ar  125   0.423   4.067   5.769
    1   AR   Ar  126   6.876   6.934   4.731
    1   AR   Ar  127   3.137   3.986   6.344
    1   AR   Ar  128   2.583   5.455   6.361
    1   AR   Ar  129   2.103   0.017   3.209
    1   AR   Ar  130   5.205   2.774  -1.375
    1   AR   Ar  131   4.371   0.941  -0.417
    1   AR   Ar  132   0.658   1.426  -0.712
    1   AR   Ar  133   4.129   6.870   2.675
    1   AR   Ar  134   4.714   1.132   3.943
    1   AR   Ar  135   5.400   0.663   3.114
    1   AR   Ar  136   5.026   0.230   2.035
    1   AR   Ar  137   1.944   5.304   3.602
    1   AR   Ar  138   4.686   2.238   4.582
    1   AR   Ar  139   5.506   2.473   5.598
    1   AR   Ar  140   3.767   7.106   4.609
    1   AR   Ar  141   3.910   5.826   4.691
    1   AR   Ar  142   3.517   6.485   5.359
    1   AR   Ar  143   6.931   6.591   5.967
    1   AR   Ar  144   5.560   1.242   5.893
    1   AR   Ar  145   4.038   4.499   0.658
    1   AR   Ar  146   4.589   2.146   1.575
    1   AR   Ar  147   5.485   1.906  -2.221
    1   AR   Ar  148   3.615   4.630  -1.225
    1   AR   Ar  149   3.702   2.092   0.847
    1   AR   Ar  150   2.184   1.778   2.761
    1   AR   Ar  151   2.625   2.536   3.415
    1   AR   Ar  152   3.437   3.489   0.034
    1   AR   Ar  153   3.980   0.460   3.569
    1   AR   Ar  154   3.728   2.177   3.861
    1   AR   Ar  155   6.621   0.238   6.740
    1   AR   Ar  156   3.827   3.814   4.151
    1   AR   Ar  157   2.379   3.316   6.245
    1   AR   Ar  158   1.443   3.730   6.558
    1   AR   Ar  159   4.438   2.325   6.012
    1   AR   Ar  160   2.655   1.872   5.491
    1   AR   Ar  161   5.354   2.972   1.333
    1   AR   Ar  162   4.249   6.233  -0.812
    1   AR   Ar  163   5.656   3.286   0.239
    1   AR   Ar  164   3.243   5.539   1.949
    1   AR   Ar  165   3.765   3.250   1.424
    1   AR   Ar  166   2.764   3.892   4.277
    1   AR   Ar  167   3.988   1.094   2.336
    1   AR   Ar  168   4.544   3.072  -0.224
    1   AR   Ar  169   2.868   2.895   1.684
    1   AR   Ar  170   2.096   4.343   5.987
    1   AR   Ar  171   5.438   3.977   4.140
    1   AR   Ar  172   4.812   4.821   4.656
    1   AR   Ar  173   2.390   3.683   7.499
    1   AR   Ar  174   2.491   4.567   6.982
    1   AR   Ar  175   3.136   2.649   6.358
    1   AR   Ar  176   3.922   3.298   6.241
    1   AR   Ar  177   6.335   4.697  -0.008
    1   AR   Ar  178   3.419   5.262   0.350
    1   AR   Ar  179   4.380   5.465   0.982
    1   AR   Ar  180   1.288   2.101  -2.555
    1   AR   Ar  181   0.754   6.200   1.478
    1   AR   Ar  182   2.480   0.859   2.744
    1   AR   Ar  183   3.522   5.033   2.868
    1   AR   Ar  184   3.976   6.276   1.611
    1   AR   Ar  185   1.765   4.980   4.644
    1   AR   Ar  186   3.868   4.824   3.969
    1   AR   Ar  187   3.427   6.129   3.526
    1   AR   Ar  188   2.642   6.614   1.909
    1   AR   Ar  189   3.390   2.201   7.559
    1   AR   Ar  190   4.835   6.855   4.950
    1   AR   Ar  191   3.847   5.093   6.710
    1   AR   Ar  192   4.639   5.927   5.601
    1   AR   Ar  193   1.132   6.244   0.304
    1   AR   Ar  194   4.619   3.534  -1.237
    1   AR   Ar  195   6.074   0.713  -0.268
    1   AR   Ar  196   4.976   7.036  -0.177
    1   AR   Ar  197   4.805   1.399   0.774
    1   AR   Ar  198   6.915   1.205   0.489
    1   AR   Ar  199   4.633   1.855   2.540
    1   AR   Ar  200   5.851   1.894   0.275
    1   AR   Ar  201   4.709   6.720   3.657
    1   AR   Ar  202   5.712   2.665   4.576
    1   AR   Ar  203   6.008   6.578   4.076
    1   AR   Ar  204   5.700   0.364   4.553
    1   AR   Ar  205   6.269   7.053   2.784
    1   AR   Ar  206   4.538   0.887   4.995
    1   AR   Ar  207   0.769   0.864   6.237
    1   AR   Ar  208   0.058   7.064   3.312
    1   AR   Ar  209   5.682   3.304  -2.086
    1   AR   Ar  210   3.611   0.887   0.530
    1   AR   Ar  211   6.547   3.005   0.525
    1   AR   Ar  212   6.420   3.791  -1.133
    1   AR   Ar  213   3.171   1.876   2.462
    1   AR   Ar  214   4.375   2.743   3.022
    1   AR   Ar  215   5.901   2.133   1.234
    1   AR   Ar  216   0.647   3.825   1.707
    1   AR   Ar  217   4.677   3.103   3.931
    1   AR   Ar  218   4.556   3.388   5.261
    1   AR   Ar  219   5.141   2.092   3.579
    1   AR   Ar  220   4.554   3.398   2.160
    1   AR   Ar  221   6.096   7.070   5.362
    1   AR   Ar  222   4.914   1.280   7.084
    1   AR   Ar  223   0.696   0.703   7.430
    1   AR   Ar  224   4.994   3.004   6.462
    1   AR   Ar  225   5.995   3.794   1.616
    1   AR   Ar  226   3.584   4.130   2.405
    1   AR   Ar  227   6.987   4.650   0.823
    1   AR   Ar  228   5.303   6.448   1.091
    1   AR   Ar  229   5.578   4.241  -0.370
    1   AR   Ar  230   4.499   4.235   3.143
    1   AR   Ar  231   6.254   1.226   2.953
    1   AR   Ar  232   4.549   2.844   0.718
    1   AR   Ar  233   6.189   2.054   3.563
    1   AR   Ar  234   6.679   3.005   4.371
    1   AR   Ar  235   0.049   2.098   4.217
    1   AR   Ar  236   5.794   4.881   5.106
    1   AR   Ar  237   5.612   3.534   5.324
    1   AR   Ar  238   4.796   4.707   5.632
    1   AR   Ar  239   6.918   4.312   8.930
    1   AR   Ar  240   6.928   3.256   6.399
    1   AR   Ar  241   0.953   6.574  -1.260
    1   AR   Ar  242   5.260   4.622   0.637
    1   AR   Ar  243   5.782   4.216   2.616
    1   AR   Ar  244   0.891   5.739  -0.642
    1   AR   Ar  245   5.446   0.364   0.795
    1   AR   Ar  246   6.361   5.433   0.916
    1   AR   Ar  247   4.740   4.068   1.324
    1   AR   Ar  248   5.357   5.281  -0.225
    1   AR   Ar  249   4.499   5.371   2.094
    1   AR   Ar  250   5.424   5.847   4.522
    1   AR   Ar  251   5.898   4.860   3.911
    1   AR   Ar  252   4.764   5.326   3.104
    1   AR   Ar  253   5.843   3.639   6.462
    1   AR   Ar  254   2.393   5.693   8.460
    1   AR   Ar  255   4.739   2.651   7.372
    1   AR   Ar  256   6.798   6.099   3.649
    7.12000  7.12000 12.00000
Argon-slab step 2785
  256
    1   AR   Ar    1   6.571   1.347  -1.056
    1   AR   Ar    2   6.868   7.070   0.968
    1   AR   Ar    3   1.694   1.416   0.385
    1   AR   Ar    4   1.402   0.491  -0.251
    1   AR   Ar    5   7.116   6.383   0.191
    1   AR   Ar    6   0.012   0.791   2.485
    1   AR   Ar    7   6.339   4.020   3.457
    1   AR   Ar    8   6.146   0.333   1.750
    1   AR   Ar    9   1.159   0.456   3.392
    1   AR   Ar   10   0.547   1.337   4.347
    1   AR   Ar   11   2.216   6.538   4.089
    1   AR   Ar   12   0.866   1.371   3.116
    1   AR   Ar   13   6.784   1.334   5.048
    1   AR   Ar   14   1.199   1.923   6.965
    1   AR   Ar   15   5.920   0.821  10.037
    1   AR   Ar   16   0.978   0.491   4.893
    1   AR   Ar   17   6.804   2.194  -0.259
    1   AR   Ar   18   5.800   2.604  -0.478
    1   AR   Ar   19   1.715   3.044   1.596
    1   AR   Ar   20   4.914   4.179  -2.003
    1   AR   Ar   21   5.342   1.310   1.717
    1   AR   Ar   22   6.801   1.884   2.211
    1   AR   Ar   23   0.085   0.474  -0.372
    1   AR   Ar   24   7.011   2.345   1.234
    1   AR   Ar   25   6.832   0.794   3.735
    1   AR   Ar   26   5.951   1.400   4.355
    1   AR   Ar   27   1.750   1.683   3.647
    1   AR   Ar   28   1.352   2.618   4.651
    1   AR   Ar   29   5.658   2.197   6.573
    1   AR   Ar   30   1.447   1.458   4.829
    1   AR   Ar   31   1.335   0.093   7.782
    1   AR   Ar   32   1.596   2.547   6.198
    1   AR   Ar   33   1.106   4.116  -0.771
    1   AR   Ar   34   7.051   5.302   3.045
    1   AR   Ar   35   6.419   4.791   1.872
    1   AR   Ar   36   0.287   0.650  -3.631
    1   AR   Ar   37   5.984   2.688   2.432
    1   AR   Ar   38   6.951   4.111   2.374
    1   AR   Ar   39   1.247   3.137   3.256
    1   AR   Ar   40   1.585   4.245   1.314
    1   AR   Ar   41   0.575   3.226   4.093
    1   AR   Ar   42   6.573   5.724   4.808
    1   AR   Ar   43   6.727   1.939   6.267
    1   AR   Ar   44   0.803   4.502   3.050
    1   AR   Ar   45   0.331   2.829   5.072
    1   AR   Ar   46   0.963   6.248   6.123
    1   AR   Ar   47   6.149   3.354   7.665
    1   AR   Ar   48   0.492   7.102   6.653
    1   AR   Ar   49   5.969   0.510  -2.044
    1   AR   Ar   50   5.321   5.183   1.557
    1   AR   Ar   51   0.250   5.010   1.883
    1   AR   Ar   52   5.346   4.764  -1.317
    1   AR   Ar   53   5.290   6.391   2.746
    1   AR   Ar   54   6.787   6.217   2.365
    1   AR   Ar   55   5.962   5.439   2.834
    1   AR   Ar   56   0.736   0.181   0.472
    1   AR   Ar   57   5.664   3.108   3.405
    1   AR   Ar   58   0.095   4.752   3.943
    1   AR   Ar   59   1.657   5.601   5.556
    1   AR   Ar   60   0.723   6.677   4.077
    1   AR   Ar   61   6.521   4.337   5.741
    1   AR   Ar   62   0.638   5.213   5.321
    1   AR   Ar   63   2.856   0.030   6.790
    1   AR   Ar   64   0.830   6.513   5.019
    1   AR   Ar   65   3.305   6.755   0.740
    1   AR   Ar   66   0.559   1.346   1.848
    1   AR   Ar   67   2.819   6.307  -1.623
    1   AR   Ar   68   3.195   2.045  -0.815
    1   AR   Ar   69   2.589   1.107   1.156
    1   AR   Ar   70   0.478   7.100   2.031
    1   AR   Ar   71   2.797   1.593   3.945
    1   AR   Ar   72   3.173   0.509   1.790
    1   AR   Ar   73   2.961   0.180   3.830
    1   AR   Ar   74   1.953   0.872   4.272
    1   AR   Ar   75   3.607   1.236   4.438
    1   AR   Ar   76   1.447   0.533   2.189
    1   AR   Ar   77   2.442   6.642   5.888
    1   AR   Ar   78   1.723   0.464   6.740
    1   AR   Ar   79   3.795   6.413   6.417
    1   AR   Ar   80   3.709   5.454   5.709
    1   AR   Ar   81   2.312   0.891  -0.354
    1   AR   Ar   82   7.036   5.843  -0.807
    1   AR   Ar   83   0.792   2.176   0.581
    1   AR   Ar   84   7.030   3.456  -0.306
    1   AR   Ar   85   0.868   3.605   0.700
    1   AR   Ar   86   2.228   3.702  -0.060
    1   AR   Ar   87   1.908   2.010   1.504
    1   AR   Ar   88   2.324   4.710   2.050
    1   AR   Ar   89   0.439   2.852   1.979
    1   AR   Ar   90   2.434   2.542   4.796
    1   AR   Ar   91   0.875   2.334   3.650
    1   AR   Ar   92   1.354   2.216   2.488
    1   AR   Ar   93   2.049   0.688   5.849
    1   AR   Ar   94   1.412   7.053  10.040
    1   AR   Ar   95   4.059   0.656   6.092
    1   AR   Ar   96   2.659   0.174   5.027
    1   AR   Ar   97   4.799   2.188  -0.512
    1   AR   Ar   98   2.354   5.500   2.694
    1   AR   Ar   99   6.641   2.737  -1.297
    1   AR   Ar  100   2.565   2.572   0.115
    1   AR   Ar  101   2.914   4.250   0.978
    1   AR   Ar  102   3.251   2.939   4.274
    1   AR   Ar  103   1.070   4.501   0.223
    1   AR   Ar  104   3.262   2.751  -1.600
    1   AR   Ar  105   2.056   3.189   4.079
    1   AR   Ar  106   3.073   3.390   5.355
    1   AR   Ar  107   1.087   3.559   5.069
    1   AR   Ar  108   3.681   2.346   5.251
    1   AR   Ar  109   1.570   4.177   3.843
    1   AR   Ar  110   1.175   4.693   6.176
    1   AR   Ar  111   5.082   3.841   7.632
    1   AR   Ar  112   1.290   5.573   6.952
    1   AR   Ar  113   2.183   4.981   0.426
    1   AR   Ar  114   2.524   5.716  -0.409
    1   AR   Ar  115   2.484   4.720  -0.835
    1   AR   Ar  116   6.360   6.316  -1.504
    1   AR   Ar  117   0.719   5.538   4.060
    1   AR   Ar  118   1.026   5.500   2.602
    1   AR   Ar  119   1.671   3.788   2.476
    1   AR   Ar  120   1.436   6.570   2.432
    1   AR   Ar  121   6.363   3.986   4.612
    1   AR   Ar  122   2.682   6.103   4.982
    1   AR   Ar  123   3.739   4.220   5.086
    1   AR   Ar  124   1.892   5.555   1.415
    1   AR   Ar  125   0.428   4.065   5.794
    1   AR   Ar  126   6.880   6.945   4.680
    1   AR   Ar  127   3.155   3.986   6.323
    1   AR   Ar  128   2.593   5.448   6.351
    1   AR   Ar  129   2.113   7.117   3.188
    1   AR   Ar  130   5.205   2.803  -1.391
    1   AR   Ar  131   4.400   0.968  -0.403
    1   AR   Ar  132   0.624   1.434  -0.683
    1   AR   Ar  133   4.130   6.874   2.683
    1   AR   Ar  134   4.704   1.152   3.953
    1   AR   Ar  135   5.425   0.645   3.095
    1   AR   Ar  136   5.013   0.229   2.035
    1   AR   Ar  137   1.980   5.297   3.589
    1   AR   Ar  138   4.698   2.281   4.600
    1   AR   Ar  139   5.508   2.490   5.567
    1   AR   Ar  140   3.777   7.096   4.660
    1   AR   Ar  141   3.912   5.846   4.707
    1   AR   Ar  142   3.500   6.527   5.364
    1   AR   Ar  143   6.935   6.602   5.962
    1   AR   Ar  144   5.559   1.216   5.929
    1   AR   Ar  145   4.062   4.488   0.694
    1   AR   Ar  146   4.613   2.172   1.606
    1   AR   Ar  147   5.477   1.908  -2.201
    1   AR   Ar  148   3.598   4.670  -1.206
    1   AR   Ar  149   3.707   2.114   0.868
    1   AR   Ar  150   2.185   1.794   2.762
    1   AR   Ar  151   2.595   2.556   3.400
    1   AR   Ar  152   3.430   3.543  -0.001
    1   AR   Ar  153   3.988   0.430   3.519
    1   AR   Ar  154   3.732   2.170   3.887
    1   AR   Ar  155   6.645   0.234   6.755
    1   AR   Ar  156   3.836   3.820   4.139
    1   AR   Ar  157   2.313   3.320   6.269
    1   AR   Ar  158   1.462   3.703   6.534
    1   AR   Ar  159   4.449   2.335   6.009
    1   AR   Ar  160   2.665   1.853   5.498
    1   AR   Ar  161   5.361   2.939   1.347
    1   AR   Ar  162   4.257   6.240  -0.806
    1   AR   Ar  163   5.684   3.286   0.248
    1   AR   Ar  164   3.215   5.531   1.924
    1   AR   Ar  165   3.778   3.275   1.396
    1   AR   Ar  166   2.740   3.876   4.307
    1   AR   Ar  167   3.984   1.100   2.315
    1   AR   Ar  168   4.538   3.070  -0.205
    1   AR   Ar  169   2.845   2.896   1.685
    1   AR   Ar  170   2.104   4.372   6.008
    1   AR   Ar  171   5.456   3.955   4.149
    1   AR   Ar  172   4.792   4.813   4.642
    1   AR   Ar  173   2.401   3.680   7.502
    1   AR   Ar  174   2.473   4.555   6.959
    1   AR   Ar  175   3.125   2.641   6.306
    1   AR   Ar  176   3.915   3.282   6.244
    1   AR   Ar  177   6.322   4.713  -0.012
    1   AR   Ar  178   3.437   5.249   0.361
    1   AR   Ar  179   4.370   5.458   0.982
    1   AR   Ar  180   1.266   2.093  -2.584
    1   AR   Ar  181   0.765   6.191   1.482
    1   AR   Ar  182   2.495   0.879   2.742
    1   AR   Ar  183   3.536   5.031   2.869
    1   AR   Ar  184   3.985   6.296   1.634
    1   AR   Ar  185   1.775   4.971   4.660
    1   AR   Ar  186   3.895   4.811   3.969
    1   AR   Ar  187   3.388   6.116   3.546
    1   AR   Ar  188   2.629   6.597   1.900
    1   AR   Ar  189   3.400   2.222   7.537
    1   AR   Ar  190   4.819   6.826   4.909
    1   AR   Ar  191   3.834   5.103   6.753
    1   AR   Ar  192   4.651   5.931   5.602
    1   AR   Ar  193   1.118   6.245   0.306
    1   AR   Ar  194   4.589   3.553  -1.225
    1   AR   Ar  195   6.042   0.710  -0.302
    1   AR   Ar  196   4.960   7.048  -0.189
    1   AR   Ar  197   4.769   1.400   0.773
    1   AR   Ar  198   6.901   1.185   0.472
    1   AR   Ar  199   4.622   1.870   2.560
    1   AR   Ar  200   5.874   1.880   0.277
    1   AR   Ar  201   4.718   6.739   3.678
    1   AR   Ar  202   5.673   2.690   4.572
    1   AR   Ar  203   6.009   6.594   4.047
    1   AR   Ar  204   5.675   0.363   4.534
    1   AR   Ar  205   6.272   7.066   2.778
    1   AR   Ar  206   4.555   0.908   4.994
    1   AR   Ar  207   0.775   0.874   6.254
    1   AR   Ar  208   0.080   7.094   3.348
    1   AR   Ar  209   5.662   3.284  -2.127
    1   AR   Ar  210   3.593   0.889   0.538
    1   AR   Ar  211   6.546   3.004   0.532
    1   AR   Ar  212   6.421   3.771  -1.165
    1   AR   Ar  213   3.175   1.847   2.460
    1   AR   Ar  214   4.407   2.768   3.013
    1   AR   Ar  215   5.905   2.157   1.227
    1   AR   Ar  216   0.700   3.814   1.727
    1   AR   Ar  217   4.673   3.095   3.951
    1   AR   Ar  218   4.548   3.396   5.274
    1   AR   Ar  219   5.129   2.125   3.592
    1   AR   Ar  220   4.570   3.398   2.175
    1   AR   Ar  221   6.107   7.007   5.366
    1   AR   Ar  222   4.919   1.324   7.116
    1   AR   Ar  223   0.683   0.708   7.421
    1   AR   Ar  224   4.977   3.018   6.471
    1   AR   Ar  225   6.020   3.781   1.625
    1   AR   Ar  226   3.569   4.098   2.420
    1   AR   Ar  227   6.988   4.629   0.852
    1   AR   Ar  228   5.311   6.455   1.103
    1   AR   Ar  229   5.550   4.248  -0.362
    1   AR   Ar  230   4.509   4.227   3.128
    1   AR   Ar  231   6.242   1.199   2.955
    1   AR   Ar  232   4.545   2.820   0.759
    1   AR   Ar  233   6.193   2.022   3.566
    1   AR   Ar  234   6.662   3.036   4.346
    1   AR   Ar  235   0.027   2.095   4.261
    1   AR   Ar  236   5.825   4.906   5.099
    1   AR   Ar  237   5.583   3.549   5.349
    1   AR   Ar  238   4.809   4.723   5.664
    1   AR   Ar  239   6.903   4.292   8.908
    1   AR   Ar  240   6.945   3.259   6.405
    1   AR   Ar  241   0.963   6.579  -1.247
    1   AR   Ar  242   5.198   4.646   0.642
    1   AR   Ar  243   5.783   4.238   2.616
    1   AR   Ar  244   0.888   5.733  -0.625
    1   AR   Ar  245   5.441   0.364   0.795
    1   AR   Ar  246   6.337   5.433   0.903
    1   AR   Ar  247   4.744   4.071   1.333
    1   AR   Ar  248   5.357   5.304  -0.261
    1   AR   Ar  249   4.508   5.334   2.086
    1   AR   Ar  250   5.410   5.879   4.532
    1   AR   Ar  251   5.891   4.854   3.967
    1   AR   Ar  252   4.743   5.289   3.119
    1   AR   Ar  253   5.831   3.614   6.503
    1   AR   Ar  254   2.366   5.677   8.470
    1   AR   Ar  255   4.709   2.634   7.355
    1   AR   Ar  256   6.831   6.081   3.647
    7.12000  7.12000 12.00000
Argon-slab step 2790
  256
    1   AR   Ar    1   6.574   1.323  -1.067
    1   AR   Ar    2   6.879   7.070   0.970
    1   AR   Ar    3   1.688   1.431   0.378
    1   AR   Ar    4   1.433   0.493  -0.268
    1   AR   Ar    5   0.010   6.352   0.177
    1   AR   Ar    6   0.007   0.802   2.503
    1   AR   Ar    7   6.331   3.987   3.481
    1   AR   Ar    8   6.110   0.354   1.720
    1   AR   Ar    9   1.185   0.447   3.395
    1   AR   Ar   10   0.560   1.319   4.358
    1   AR   Ar   11   2.228   6.508   4.114
    1   AR   Ar   12   0.856   1.337   3.113
    1   AR   Ar   13   6.772   1.353   5.025
    1   AR   Ar   14   1.187   1.935   6.930
    1   AR   Ar   15   5.901   0.828  10.059
    1   AR   Ar   16   0.992   0.506   4.929
    1   AR   Ar   17   6.801   2.187  -0.257
    1   AR   Ar   18   5.773   2.613  -0.481
    1   AR   Ar   19   1.725   3.032   1.608
    1   AR   Ar   20   4.945   4.188  -1.983
    1   AR   Ar   21   5.320   1.284   1.738
    1   AR   Ar   22   6.774   1.882   2.208
    1   AR   Ar   23   0.089   0.486  -0.354
    1   AR   Ar   24   6.981   2.357   1.243
    1   AR   Ar   25   6.832   0.773   3.744
    1   AR   Ar   26   5.961   1.372   4.342
    1   AR   Ar   27   1.734   1.684   3.672
    1   AR   Ar   28   1.375   2.582   4.682
    1   AR   Ar   29   5.636   2.187   6.576
    1   AR   Ar   30   1.466   1.441   4.831
    1   AR   Ar   31   1.355   0.081   7.787
    1   AR   Ar   32   1.572   2.531   6.212
    1   AR   Ar   33   1.105   4.131  -0.788
    1   AR   Ar   34   7.065   5.308   3.044
    1   AR   Ar   35   6.399   4.817   1.854
    1   AR   Ar   36   0.296   0.653  -3.633
    1   AR   Ar   37   5.959   2.693   2.456
    1   AR   Ar   38   6.935   4.088   2.366
    1   AR   Ar   39   1.231   3.127   3.239
    1   AR   Ar   40   1.620   4.232   1.335
    1   AR   Ar   41   0.550   3.225   4.081
    1   AR   Ar   42   6.574   5.750   4.799
    1   AR   Ar   43   6.743   1.963   6.269
    1   AR   Ar   44   0.796   4.492   3.020
    1   AR   Ar   45   0.335   2.834   5.092
    1   AR   Ar   46   0.951   6.269   6.115
    1   AR   Ar   47   6.156   3.352   7.651
    1   AR   Ar   48   0.493   7.090   6.665
    1   AR   Ar   49   5.954   0.532  -2.039
    1   AR   Ar   50   5.300   5.169   1.559
    1   AR   Ar   51   0.262   4.983   1.917
    1   AR   Ar   52   5.339   4.762  -1.320
    1   AR   Ar   53   5.264   6.405   2.754
    1   AR   Ar   54   6.804   6.245   2.374
    1   AR   Ar   55   5.975   5.465   2.814
    1   AR   Ar   56   0.726   0.177   0.489
    1   AR   Ar   57   5.657   3.125   3.406
    1   AR   Ar   58   0.104   4.723   3.969
    1   AR   Ar   59   1.651   5.599   5.606
    1   AR   Ar   60   0.735   6.685   4.063
    1   AR   Ar   61   6.528   4.358   5.734
    1   AR   Ar   62   0.631   5.174   5.326
    1   AR   Ar   63   2.870   0.042   6.774
    1   AR   Ar   64   0.822   6.511   5.014
    1   AR   Ar   65   3.333   6.778   0.741
    1   AR   Ar   66   0.566   1.343   1.842
    1   AR   Ar   67   2.803   6.301  -1.635
    1   AR   Ar   68   3.182   2.034  -0.830
    1   AR   Ar   69   2.583   1.096   1.163
    1   AR   Ar   70   0.489   7.094   2.026
    1   AR   Ar   71   2.785   1.594   3.955
    1   AR   Ar   72   3.187   0.473   1.782
    1   AR   Ar   73   2.953   0.194   3.801
    1   AR   Ar   74   1.936   0.836   4.228
    1   AR   Ar   75   3.622   1.223   4.449
    1   AR   Ar   76   1.467   0.591   2.184
    1   AR   Ar   77   2.431   6.638   5.891
    1   AR   Ar   78   1.686   0.456   6.710
    1   AR   Ar   79   3.787   6.388   6.410
    1   AR   Ar   80   3.705   5.507   5.701
    1   AR   Ar   81   2.326   0.863  -0.337
    1   AR   Ar   82   7.009   5.830  -0.806
    1   AR   Ar   83   0.780   2.196   0.555
    1   AR   Ar   84   7.046   3.488  -0.316
    1   AR   Ar   85   0.888   3.623   0.700
    1   AR   Ar   86   2.233   3.724  -0.094
    1   AR   Ar   87   1.919   2.004   1.501
    1   AR   Ar   88   2.297   4.697   2.026
    1   AR   Ar   89   0.466   2.858   1.952
    1   AR   Ar   90   2.447   2.549   4.785
    1   AR   Ar   91   0.831   2.318   3.654
    1   AR   Ar   92   1.325   2.207   2.487
    1   AR   Ar   93   2.078   0.712   5.833
    1   AR   Ar   94   1.385   7.069  10.026
    1   AR   Ar   95   4.034   0.650   6.083
    1   AR   Ar   96   2.642   0.179   5.008
    1   AR   Ar   97   4.789   2.194  -0.528
    1   AR   Ar   98   2.365   5.507   2.691
    1   AR   Ar   99   6.650   2.753  -1.301
    1   AR   Ar  100   2.527   2.594   0.071
    1   AR   Ar  101   2.958   4.246   0.980
    1   AR   Ar  102   3.211   2.957   4.259
    1   AR   Ar  103   1.064   4.488   0.244
    1   AR   Ar  104   3.283   2.774  -1.605
    1   AR   Ar  105   2.049   3.180   4.083
    1   AR   Ar  106   3.073   3.376   5.344
    1   AR   Ar  107   1.078   3.591   5.086
    1   AR   Ar  108   3.713   2.341   5.253
    1   AR   Ar  109   1.600   4.211   3.844
    1   AR   Ar  110   1.201   4.687   6.199
    1   AR   Ar  111   5.058   3.871   7.638
    1   AR   Ar  112   1.276   5.582   6.947
    1   AR   Ar  113   2.176   4.983   0.442
    1   AR   Ar  114   2.560   5.717  -0.389
    1   AR   Ar  115   2.460   4.722  -0.832
    1   AR   Ar  116   6.345   6.354  -1.508
    1   AR   Ar  117   0.731   5.509   4.031
    1   AR   Ar  118   1.030   5.473   2.591
    1   AR   Ar  119   1.680   3.762   2.475
    1   AR   Ar  120   1.415   6.577   2.442
    1   AR   Ar  121   6.359   3.996   4.612
    1   AR   Ar  122   2.654   6.119   4.968
    1   AR   Ar  123   3.771   4.197   5.092
    1   AR   Ar  124   1.909   5.590   1.414
    1   AR   Ar  125   0.432   4.061   5.817
    1   AR   Ar  126   6.888   6.955   4.624
    1   AR   Ar  127   3.172   3.990   6.300
    1   AR   Ar  128   2.606   5.443   6.339
    1   AR   Ar  129   2.122   7.095   3.165
    1   AR   Ar  130   5.207   2.817  -1.401
    1   AR   Ar  131   4.430   0.996  -0.387
    1   AR   Ar  132   0.589   1.440  -0.653
    1   AR   Ar  133   4.131   6.876   2.690
    1   AR   Ar  134   4.696   1.174   3.962
    1   AR   Ar  135   5.440   0.622   3.078
    1   AR   Ar  136   5.000   0.228   2.036
    1   AR   Ar  137   2.011   5.287   3.586
    1   AR   Ar  138   4.706   2.319   4.622
    1   AR   Ar  139   5.507   2.506   5.539
    1   AR   Ar  140   3.760   0.034   4.681
    1   AR   Ar  141   3.917   5.863   4.718
    1   AR   Ar  142   3.482   6.563   5.392
    1   AR   Ar  143   6.940   6.613   5.956
    1   AR   Ar  144   5.558   1.191   5.964
    1   AR   Ar  145   4.083   4.473   0.726
    1   AR   Ar  146   4.637   2.199   1.630
    1   AR   Ar  147   5.470   1.910  -2.179
    1   AR   Ar  148   3.580   4.710  -1.187
    1   AR   Ar  149   3.712   2.136   0.889
    1   AR   Ar  150   2.193   1.820   2.758
    1   AR   Ar  151   2.567   2.574   3.386
    1   AR   Ar  152   3.431   3.533  -0.002
    1   AR   Ar  153   3.995   0.402   3.471
    1   AR   Ar  154   3.743   2.156   3.908
    1   AR   Ar  155   6.662   0.233   6.770
    1   AR   Ar  156   3.847   3.818   4.123
    1   AR   Ar  157   2.263   3.318   6.288
    1   AR   Ar  158   1.463   3.681   6.515
    1   AR   Ar  159   4.454   2.336   6.000
    1   AR   Ar  160   2.678   1.829   5.510
    1   AR   Ar  161   5.364   2.923   1.367
    1   AR   Ar  162   4.270   6.247  -0.799
    1   AR   Ar  163   5.690   3.299   0.257
    1   AR   Ar  164   3.226   5.532   1.896
    1   AR   Ar  165   3.794   3.303   1.367
    1   AR   Ar  166   2.722   3.869   4.340
    1   AR   Ar  167   3.977   1.101   2.293
    1   AR   Ar  168   4.528   3.085  -0.190
    1   AR   Ar  169   2.819   2.895   1.686
    1   AR   Ar  170   2.122   4.400   6.022
    1   AR   Ar  171   5.467   3.930   4.157
    1   AR   Ar  172   4.772   4.806   4.623
    1   AR   Ar  173   2.411   3.672   7.506
    1   AR   Ar  174   2.493   4.553   6.965
    1   AR   Ar  175   3.112   2.627   6.252
    1   AR   Ar  176   3.915   3.267   6.246
    1   AR   Ar  177   6.320   4.737  -0.011
    1   AR   Ar  178   3.452   5.229   0.339
    1   AR   Ar  179   4.362   5.471   0.978
    1   AR   Ar  180   1.243   2.084  -2.614
    1   AR   Ar  181   0.775   6.182   1.487
    1   AR   Ar  182   2.517   0.886   2.738
    1   AR   Ar  183   3.551   5.034   2.872
    1   AR   Ar  184   3.995   6.317   1.656
    1   AR   Ar  185   1.785   4.961   4.675
    1   AR   Ar  186   3.922   4.806   3.967
    1   AR   Ar  187   3.348   6.103   3.567
    1   AR   Ar  188   2.617   6.578   1.891
    1   AR   Ar  189   3.411   2.243   7.514
    1   AR   Ar  190   4.803   6.797   4.868
    1   AR   Ar  191   3.820   5.113   6.795
    1   AR   Ar  192   4.667   5.933   5.597
    1   AR   Ar  193   1.109   6.239   0.300
    1   AR   Ar  194   4.551   3.580  -1.208
    1   AR   Ar  195   6.010   0.707  -0.333
    1   AR   Ar  196   4.944   7.061  -0.200
    1   AR   Ar  197   4.734   1.402   0.770
    1   AR   Ar  198   6.886   1.165   0.454
    1   AR   Ar  199   4.616   1.881   2.588
    1   AR   Ar  200   5.832   1.888   0.258
    1   AR   Ar  201   4.724   6.760   3.685
    1   AR   Ar  202   5.635   2.717   4.560
    1   AR   Ar  203   6.009   6.612   4.017
    1   AR   Ar  204   5.647   0.365   4.512
    1   AR   Ar  205   6.273   7.081   2.773
    1   AR   Ar  206   4.583   0.924   5.008
    1   AR   Ar  207   0.784   0.890   6.268
    1   AR   Ar  208   0.106   7.114   3.376
    1   AR   Ar  209   5.647   3.269  -2.175
    1   AR   Ar  210   3.575   0.891   0.546
    1   AR   Ar  211   6.553   3.001   0.551
    1   AR   Ar  212   6.418   3.755  -1.196
    1   AR   Ar  213   3.184   1.818   2.458
    1   AR   Ar  214   4.436   2.794   3.004
    1   AR   Ar  215   5.920   2.168   1.229
    1   AR   Ar  216   0.753   3.809   1.749
    1   AR   Ar  217   4.671   3.092   3.974
    1   AR   Ar  218   4.536   3.403   5.287
    1   AR   Ar  219   5.115   2.158   3.605
    1   AR   Ar  220   4.582   3.427   2.138
    1   AR   Ar  221   6.115   6.943   5.375
    1   AR   Ar  222   4.924   1.369   7.147
    1   AR   Ar  223   0.659   0.726   7.405
    1   AR   Ar  224   4.965   3.045   6.475
    1   AR   Ar  225   6.046   3.768   1.633
    1   AR   Ar  226   3.556   4.061   2.431
    1   AR   Ar  227   6.993   4.604   0.882
    1   AR   Ar  228   5.319   6.461   1.116
    1   AR   Ar  229   5.509   4.243  -0.360
    1   AR   Ar  230   4.518   4.216   3.113
    1   AR   Ar  231   6.241   1.167   2.938
    1   AR   Ar  232   4.537   2.793   0.804
    1   AR   Ar  233   6.200   1.998   3.569
    1   AR   Ar  234   6.643   3.066   4.317
    1   AR   Ar  235   7.105   2.118   4.302
    1   AR   Ar  236   5.855   4.931   5.090
    1   AR   Ar  237   5.558   3.568   5.373
    1   AR   Ar  238   4.820   4.737   5.701
    1   AR   Ar  239   6.887   4.277   8.892
    1   AR   Ar  240   6.961   3.263   6.410
    1   AR   Ar  241   0.973   6.586  -1.234
    1   AR   Ar  242   5.185   4.658   0.645
    1   AR   Ar  243   5.781   4.262   2.614
    1   AR   Ar  244   0.895   5.723  -0.604
    1   AR   Ar  245   5.436   0.366   0.794
    1   AR   Ar  246   6.310   5.436   0.892
    1   AR   Ar  247   4.749   4.067   1.349
    1   AR   Ar  248   5.353   5.318  -0.290
    1   AR   Ar  249   4.504   5.299   2.084
    1   AR   Ar  250   5.394   5.908   4.545
    1   AR   Ar  251   5.880   4.831   3.974
    1   AR   Ar  252   4.724   5.254   3.137
    1   AR   Ar  253   5.822   3.591   6.544
    1   AR   Ar  254   2.339   5.661   8.479
    1   AR   Ar  255   4.678   2.613   7.345
    1   AR   Ar  256   6.865   6.067   3.649
    7.12000  7.12000 12.00000
Argon-slab step 2795
  256
    1   AR   Ar    1   6.580   1.311  -1.080
    1   AR   Ar    2   6.889   7.072   0.973
    1   AR   Ar    3   1.671   1.412   0.361
    1   AR   Ar    4   1.449   0.490  -0.285
    1   AR   Ar    5   0.024   6.321   0.163
    1   AR   Ar    6   0.004   0.801   2.530
    1   AR   Ar    7   6.327   3.954   3.505
    1   AR   Ar    8   6.074   0.376   1.690
    1   AR   Ar    9   1.213   0.429   3.402
    1   AR   Ar   10   0.577   1.290   4.364
    1   AR   Ar   11   2.239   6.481   4.135
    1   AR   Ar   12   0.845   1.350   3.097
    1   AR   Ar   13   6.761   1.371   5.004
    1   AR   Ar   14   1.171   1.940   6.900
    1   AR   Ar   15   5.882   0.835  10.081
    1   AR   Ar   16   1.006   0.517   4.966
    1   AR   Ar   17   6.801   2.185  -0.242
    1   AR   Ar   18   5.756   2.602  -0.484
    1   AR   Ar   19   1.732   3.024   1.622
    1   AR   Ar   20   4.970   4.186  -1.978
    1   AR   Ar   21   5.298   1.258   1.761
    1   AR   Ar   22   6.745   1.881   2.205
    1   AR   Ar   23   0.093   0.498  -0.336
    1   AR   Ar   24   6.954   2.365   1.252
    1   AR   Ar   25   6.823   0.770   3.763
    1   AR   Ar   26   5.967   1.342   4.330
    1   AR   Ar   27   1.714   1.688   3.700
    1   AR   Ar   28   1.395   2.545   4.712
    1   AR   Ar   29   5.615   2.177   6.580
    1   AR   Ar   30   1.485   1.438   4.843
    1   AR   Ar   31   1.379   0.066   7.793
    1   AR   Ar   32   1.550   2.518   6.219
    1   AR   Ar   33   1.104   4.147  -0.805
    1   AR   Ar   34   7.083   5.317   3.031
    1   AR   Ar   35   6.366   4.845   1.834
    1   AR   Ar   36   0.304   0.657  -3.636
    1   AR   Ar   37   5.933   2.697   2.477
    1   AR   Ar   38   6.920   4.062   2.362
    1   AR   Ar   39   1.221   3.126   3.218
    1   AR   Ar   40   1.657   4.220   1.353
    1   AR   Ar   41   0.543   3.225   4.068
    1   AR   Ar   42   6.593   5.759   4.766
    1   AR   Ar   43   6.758   1.988   6.270
    1   AR   Ar   44   0.789   4.480   2.989
    1   AR   Ar   45   0.337   2.836   5.114
    1   AR   Ar   46   0.965   6.283   6.101
    1   AR   Ar   47   6.162   3.351   7.636
    1   AR   Ar   48   0.510   7.083   6.676
    1   AR   Ar   49   5.939   0.555  -2.034
    1   AR   Ar   50   5.295   5.153   1.554
    1   AR   Ar   51   0.284   4.959   1.951
    1   AR   Ar   52   5.376   4.769  -1.312
    1   AR   Ar   53   5.237   6.419   2.761
    1   AR   Ar   54   6.823   6.270   2.383
    1   AR   Ar   55   5.988   5.490   2.795
    1   AR   Ar   56   0.715   0.172   0.508
    1   AR   Ar   57   5.649   3.140   3.408
    1   AR   Ar   58   0.107   4.686   3.994
    1   AR   Ar   59   1.646   5.597   5.656
    1   AR   Ar   60   0.750   6.695   4.038
    1   AR   Ar   61   6.532   4.377   5.726
    1   AR   Ar   62   0.623   5.135   5.330
    1   AR   Ar   63   2.883   0.055   6.757
    1   AR   Ar   64   0.814   6.505   5.025
    1   AR   Ar   65   3.360   6.800   0.743
    1   AR   Ar   66   0.578   1.344   1.832
    1   AR   Ar   67   2.788   6.295  -1.647
    1   AR   Ar   68   3.168   2.023  -0.842
    1   AR   Ar   69   2.576   1.086   1.167
    1   AR   Ar   70   0.499   7.087   2.021
    1   AR   Ar   71   2.768   1.597   3.963
    1   AR   Ar   72   3.203   0.435   1.775
    1   AR   Ar   73   2.946   0.210   3.774
    1   AR   Ar   74   1.928   0.785   4.176
    1   AR   Ar   75   3.641   1.207   4.463
    1   AR   Ar   76   1.487   0.649   2.180
    1   AR   Ar   77   2.420   6.634   5.895
    1   AR   Ar   78   1.646   0.444   6.690
    1   AR   Ar   79   3.780   6.363   6.404
    1   AR   Ar   80   3.697   5.557   5.696
    1   AR   Ar   81   2.356   0.841  -0.321
    1   AR   Ar   82   6.978   5.818  -0.804
    1   AR   Ar   83   0.767   2.216   0.529
    1   AR   Ar   84   7.062   3.519  -0.326
    1   AR   Ar   85   0.895   3.633   0.703
    1   AR   Ar   86   2.238   3.748  -0.127
    1   AR   Ar   87   1.930   1.994   1.498
    1   AR   Ar   88   2.271   4.683   2.000
    1   AR   Ar   89   0.486   2.867   1.934
    1   AR   Ar   90   2.459   2.552   4.779
    1   AR   Ar   91   0.837   2.323   3.634
    1   AR   Ar   92   1.285   2.193   2.482
    1   AR   Ar   93   2.111   0.739   5.806
    1   AR   Ar   94   1.359   7.085  10.011
    1   AR   Ar   95   4.010   0.643   6.072
    1   AR   Ar   96   2.626   0.184   4.987
    1   AR   Ar   97   4.781   2.189  -0.546
    1   AR   Ar   98   2.381   5.520   2.679
    1   AR   Ar   99   6.654   2.728  -1.299
    1   AR   Ar  100   2.489   2.615   0.028
    1   AR   Ar  101   3.002   4.242   0.981
    1   AR   Ar  102   3.175   2.976   4.244
    1   AR   Ar  103   1.061   4.486   0.262
    1   AR   Ar  104   3.305   2.798  -1.610
    1   AR   Ar  105   2.037   3.173   4.082
    1   AR   Ar  106   3.073   3.361   5.333
    1   AR   Ar  107   1.071   3.624   5.101
    1   AR   Ar  108   3.742   2.337   5.252
    1   AR   Ar  109   1.630   4.244   3.844
    1   AR   Ar  110   1.217   4.689   6.224
    1   AR   Ar  111   5.057   3.879   7.636
    1   AR   Ar  112   1.271   5.587   6.951
    1   AR   Ar  113   2.169   4.983   0.458
    1   AR   Ar  114   2.597   5.718  -0.369
    1   AR   Ar  115   2.437   4.722  -0.828
    1   AR   Ar  116   6.331   6.394  -1.512
    1   AR   Ar  117   0.748   5.486   4.003
    1   AR   Ar  118   1.041   5.469   2.591
    1   AR   Ar  119   1.689   3.737   2.473
    1   AR   Ar  120   1.416   6.578   2.430
    1   AR   Ar  121   6.360   4.013   4.619
    1   AR   Ar  122   2.625   6.130   4.957
    1   AR   Ar  123   3.803   4.176   5.102
    1   AR   Ar  124   1.926   5.625   1.414
    1   AR   Ar  125   0.437   4.054   5.841
    1   AR   Ar  126   6.899   6.965   4.566
    1   AR   Ar  127   3.185   3.996   6.277
    1   AR   Ar  128   2.619   5.439   6.325
    1   AR   Ar  129   2.129   7.071   3.141
    1   AR   Ar  130   5.210   2.821  -1.404
    1   AR   Ar  131   4.461   1.024  -0.369
    1   AR   Ar  132   0.553   1.447  -0.620
    1   AR   Ar  133   4.134   6.874   2.691
    1   AR   Ar  134   4.689   1.195   3.970
    1   AR   Ar  135   5.442   0.590   3.064
    1   AR   Ar  136   4.987   0.226   2.037
    1   AR   Ar  137   2.037   5.275   3.594
    1   AR   Ar  138   4.706   2.348   4.652
    1   AR   Ar  139   5.504   2.519   5.518
    1   AR   Ar  140   3.749   0.104   4.688
    1   AR   Ar  141   3.925   5.881   4.725
    1   AR   Ar  142   3.462   6.593   5.436
    1   AR   Ar  143   6.948   6.622   5.949
    1   AR   Ar  144   5.557   1.167   5.999
    1   AR   Ar  145   4.069   4.449   0.728
    1   AR   Ar  146   4.660   2.223   1.652
    1   AR   Ar  147   5.461   1.905  -2.164
    1   AR   Ar  148   3.562   4.750  -1.167
    1   AR   Ar  149   3.716   2.155   0.911
    1   AR   Ar  150   2.203   1.849   2.752
    1   AR   Ar  151   2.540   2.592   3.374
    1   AR   Ar  152   3.435   3.506   0.007
    1   AR   Ar  153   4.001   0.380   3.428
    1   AR   Ar  154   3.761   2.139   3.926
    1   AR   Ar  155   6.670   0.235   6.786
    1   AR   Ar  156   3.860   3.808   4.104
    1   AR   Ar  157   2.254   3.303   6.296
    1   AR   Ar  158   1.426   3.675   6.507
    1   AR   Ar  159   4.458   2.330   5.988
    1   AR   Ar  160   2.691   1.803   5.525
    1   AR   Ar  161   5.361   2.929   1.395
    1   AR   Ar  162   4.283   6.253  -0.791
    1   AR   Ar  163   5.676   3.323   0.266
    1   AR   Ar  164   3.244   5.541   1.876
    1   AR   Ar  165   3.810   3.333   1.338
    1   AR   Ar  166   2.708   3.873   4.377
    1   AR   Ar  167   3.971   1.098   2.269
    1   AR   Ar  168   4.523   3.088  -0.189
    1   AR   Ar  169   2.798   2.888   1.686
    1   AR   Ar  170   2.151   4.424   6.027
    1   AR   Ar  171   5.476   3.908   4.169
    1   AR   Ar  172   4.755   4.799   4.602
    1   AR   Ar  173   2.421   3.661   7.509
    1   AR   Ar  174   2.514   4.554   6.973
    1   AR   Ar  175   3.096   2.610   6.196
    1   AR   Ar  176   3.921   3.252   6.245
    1   AR   Ar  177   6.325   4.765  -0.006
    1   AR   Ar  178   3.463   5.211   0.316
    1   AR   Ar  179   4.356   5.489   0.975
    1   AR   Ar  180   1.221   2.076  -2.643
    1   AR   Ar  181   0.786   6.171   1.492
    1   AR   Ar  182   2.543   0.882   2.733
    1   AR   Ar  183   3.567   5.039   2.877
    1   AR   Ar  184   4.028   6.308   1.663
    1   AR   Ar  185   1.793   4.951   4.691
    1   AR   Ar  186   3.950   4.811   3.963
    1   AR   Ar  187   3.309   6.091   3.589
    1   AR   Ar  188   2.605   6.559   1.883
    1   AR   Ar  189   3.422   2.265   7.489
    1   AR   Ar  190   4.787   6.768   4.826
    1   AR   Ar  191   3.804   5.123   6.835
    1   AR   Ar  192   4.695   5.925   5.572
    1   AR   Ar  193   1.104   6.229   0.289
    1   AR   Ar  194   4.509   3.611  -1.188
    1   AR   Ar  195   5.978   0.704  -0.363
    1   AR   Ar  196   4.928   7.075  -0.211
    1   AR   Ar  197   4.698   1.404   0.767
    1   AR   Ar  198   6.871   1.147   0.436
    1   AR   Ar  199   4.614   1.887   2.622
    1   AR   Ar  200   5.794   1.893   0.247
    1   AR   Ar  201   4.726   6.784   3.671
    1   AR   Ar  202   5.603   2.750   4.538
    1   AR   Ar  203   6.022   6.617   4.021
    1   AR   Ar  204   5.617   0.366   4.490
    1   AR   Ar  205   6.274   7.098   2.770
    1   AR   Ar  206   4.596   0.938   5.014
    1   AR   Ar  207   0.794   0.910   6.281
    1   AR   Ar  208   0.139   7.118   3.390
    1   AR   Ar  209   5.636   3.259  -2.229
    1   AR   Ar  210   3.561   0.888   0.557
    1   AR   Ar  211   6.562   3.002   0.583
    1   AR   Ar  212   6.412   3.742  -1.227
    1   AR   Ar  213   3.195   1.790   2.455
    1   AR   Ar  214   4.463   2.825   2.996
    1   AR   Ar  215   5.946   2.162   1.236
    1   AR   Ar  216   0.805   3.810   1.774
    1   AR   Ar  217   4.670   3.098   3.998
    1   AR   Ar  218   4.520   3.406   5.298
    1   AR   Ar  219   5.102   2.190   3.618
    1   AR   Ar  220   4.594   3.453   2.104
    1   AR   Ar  221   6.119   6.878   5.382
    1   AR   Ar  222   4.930   1.416   7.176
    1   AR   Ar  223   0.631   0.749   7.386
    1   AR   Ar  224   4.956   3.080   6.477
    1   AR   Ar  225   6.071   3.755   1.641
    1   AR   Ar  226   3.543   4.021   2.440
    1   AR   Ar  227   6.999   4.577   0.913
    1   AR   Ar  228   5.326   6.464   1.131
    1   AR   Ar  229   5.462   4.232  -0.361
    1   AR   Ar  230   4.527   4.202   3.098
    1   AR   Ar  231   6.251   1.135   2.905
    1   AR   Ar  232   4.526   2.769   0.842
    1   AR   Ar  233   6.209   1.982   3.571
    1   AR   Ar  234   6.649   3.069   4.300
    1   AR   Ar  235   7.055   2.150   4.342
    1   AR   Ar  236   5.882   4.956   5.080
    1   AR   Ar  237   5.537   3.590   5.396
    1   AR   Ar  238   4.831   4.751   5.739
    1   AR   Ar  239   6.871   4.269   8.886
    1   AR   Ar  240   6.976   3.267   6.414
    1   AR   Ar  241   0.982   6.595  -1.220
    1   AR   Ar  242   5.177   4.673   0.641
    1   AR   Ar  243   5.777   4.287   2.610
    1   AR   Ar  244   0.906   5.709  -0.583
    1   AR   Ar  245   5.432   0.372   0.793
    1   AR   Ar  246   6.280   5.440   0.881
    1   AR   Ar  247   4.758   4.068   1.369
    1   AR   Ar  248   5.336   5.296  -0.293
    1   AR   Ar  249   4.483   5.267   2.091
    1   AR   Ar  250   5.377   5.934   4.558
    1   AR   Ar  251   5.868   4.800   3.949
    1   AR   Ar  252   4.705   5.221   3.157
    1   AR   Ar  253   5.819   3.588   6.547
    1   AR   Ar  254   2.311   5.645   8.488
    1   AR   Ar  255   4.644   2.589   7.339
    1   AR   Ar  256   6.899   6.060   3.658
    7.12000  7.12000 12.00000
Argon-slab step 2800
  256
    1   AR   Ar    1   6.591   1.342  -1.100
    1   AR   Ar    2   6.898   7.073   0.978
    1   AR   Ar    3   1.653   1.388   0.340
    1   AR   Ar    4   1.449   0.482  -0.302
    1   AR   Ar    5   0.039   6.291   0.149
    1   AR   Ar    6   0.006   0.797   2.557
    1   AR   Ar    7   6.329   3.920   3.528
    1   AR   Ar    8   6.039   0.398   1.662
    1   AR   Ar    9   1.239   0.409   3.411
    1   AR   Ar   10   0.592   1.260   4.365
    1   AR   Ar   11   2.243   6.460   4.142
    1   AR   Ar   12   0.830   1.365   3.079
    1   AR   Ar   13   6.753   1.387   4.987
    1   AR   Ar   14   1.148   1.935   6.881
    1   AR   Ar   15   5.863   0.842  10.103
    1   AR   Ar   16   1.019   0.522   5.004
    1   AR   Ar   17   6.802   2.182  -0.226
    1   AR   Ar   18   5.766   2.560  -0.472
    1   AR   Ar   19   1.734   3.019   1.636
    1   AR   Ar   20   4.982   4.184  -1.994
    1   AR   Ar   21   5.276   1.233   1.783
    1   AR   Ar   22   6.717   1.878   2.204
    1   AR   Ar   23   0.096   0.507  -0.320
    1   AR   Ar   24   6.935   2.367   1.263
    1   AR   Ar   25   6.806   0.784   3.791
    1   AR   Ar   26   5.970   1.313   4.319
    1   AR   Ar   27   1.693   1.695   3.728
    1   AR   Ar   28   1.410   2.507   4.741
    1   AR   Ar   29   5.592   2.167   6.583
    1   AR   Ar   30   1.509   1.442   4.860
    1   AR   Ar   31   1.404   0.049   7.797
    1   AR   Ar   32   1.533   2.513   6.213
    1   AR   Ar   33   1.117   4.161  -0.816
    1   AR   Ar   34   7.103   5.316   3.011
    1   AR   Ar   35   6.329   4.874   1.813
    1   AR   Ar   36   0.307   0.658  -3.640
    1   AR   Ar   37   5.908   2.699   2.494
    1   AR   Ar   38   6.906   4.035   2.359
    1   AR   Ar   39   1.216   3.134   3.192
    1   AR   Ar   40   1.692   4.205   1.363
    1   AR   Ar   41   0.562   3.224   4.054
    1   AR   Ar   42   6.612   5.770   4.732
    1   AR   Ar   43   6.772   2.014   6.271
    1   AR   Ar   44   0.781   4.468   2.959
    1   AR   Ar   45   0.338   2.838   5.135
    1   AR   Ar   46   0.978   6.297   6.088
    1   AR   Ar   47   6.168   3.349   7.619
    1   AR   Ar   48   0.521   7.072   6.686
    1   AR   Ar   49   5.925   0.579  -2.027
    1   AR   Ar   50   5.303   5.137   1.545
    1   AR   Ar   51   0.310   4.935   1.985
    1   AR   Ar   52   5.429   4.786  -1.294
    1   AR   Ar   53   5.212   6.434   2.768
    1   AR   Ar   54   6.843   6.294   2.392
    1   AR   Ar   55   6.000   5.515   2.775
    1   AR   Ar   56   0.705   0.166   0.527
    1   AR   Ar   57   5.639   3.154   3.412
    1   AR   Ar   58   0.104   4.644   4.019
    1   AR   Ar   59   1.643   5.593   5.705
    1   AR   Ar   60   0.771   6.700   4.012
    1   AR   Ar   61   6.536   4.395   5.718
    1   AR   Ar   62   0.617   5.096   5.334
    1   AR   Ar   63   2.896   0.067   6.738
    1   AR   Ar   64   0.806   6.497   5.045
    1   AR   Ar   65   3.388   6.824   0.747
    1   AR   Ar   66   0.592   1.347   1.822
    1   AR   Ar   67   2.773   6.289  -1.657
    1   AR   Ar   68   3.155   2.011  -0.853
    1   AR   Ar   69   2.568   1.078   1.171
    1   AR   Ar   70   0.509   7.080   2.016
    1   AR   Ar   71   2.750   1.600   3.970
    1   AR   Ar   72   3.219   0.396   1.769
    1   AR   Ar   73   2.940   0.227   3.750
    1   AR   Ar   74   1.924   0.726   4.124
    1   AR   Ar   75   3.662   1.189   4.478
    1   AR   Ar   76   1.506   0.708   2.179
    1   AR   Ar   77   2.407   6.629   5.900
    1   AR   Ar   78   1.605   0.429   6.675
    1   AR   Ar   79   3.772   6.339   6.402
    1   AR   Ar   80   3.680   5.593   5.693
    1   AR   Ar   81   2.400   0.825  -0.304
    1   AR   Ar   82   6.945   5.806  -0.802
    1   AR   Ar   83   0.753   2.235   0.504
    1   AR   Ar   84   7.077   3.550  -0.336
    1   AR   Ar   85   0.900   3.630   0.712
    1   AR   Ar   86   2.243   3.773  -0.160
    1   AR   Ar   87   1.943   1.980   1.496
    1   AR   Ar   88   2.252   4.671   1.980
    1   AR   Ar   89   0.480   2.905   1.941
    1   AR   Ar   90   2.457   2.559   4.781
    1   AR   Ar   91   0.853   2.323   3.612
    1   AR   Ar   92   1.270   2.179   2.451
    1   AR   Ar   93   2.145   0.767   5.775
    1   AR   Ar   94   1.357   7.095  10.008
    1   AR   Ar   95   3.985   0.636   6.060
    1   AR   Ar   96   2.610   0.187   4.964
    1   AR   Ar   97   4.773   2.173  -0.567
    1   AR   Ar   98   2.400   5.537   2.659
    1   AR   Ar   99   6.658   2.697  -1.295
    1   AR   Ar  100   2.452   2.637  -0.016
    1   AR   Ar  101   3.046   4.238   0.982
    1   AR   Ar  102   3.149   2.995   4.223
    1   AR   Ar  103   1.061   4.497   0.275
    1   AR   Ar  104   3.328   2.823  -1.616
    1   AR   Ar  105   2.040   3.182   4.083
    1   AR   Ar  106   3.074   3.343   5.322
    1   AR   Ar  107   1.068   3.658   5.114
    1   AR   Ar  108   3.736   2.300   5.262
    1   AR   Ar  109   1.658   4.276   3.844
    1   AR   Ar  110   1.225   4.698   6.251
    1   AR   Ar  111   5.073   3.854   7.638
    1   AR   Ar  112   1.280   5.586   6.969
    1   AR   Ar  113   2.162   4.983   0.474
    1   AR   Ar  114   2.634   5.718  -0.348
    1   AR   Ar  115   2.413   4.722  -0.823
    1   AR   Ar  116   6.316   6.435  -1.515
    1   AR   Ar  117   0.769   5.469   3.974
    1   AR   Ar  118   1.054   5.468   2.591
    1   AR   Ar  119   1.699   3.715   2.469
    1   AR   Ar  120   1.418   6.579   2.417
    1   AR   Ar  121   6.364   4.035   4.631
    1   AR   Ar  122   2.602   6.133   4.957
    1   AR   Ar  123   3.811   4.170   5.119
    1   AR   Ar  124   1.943   5.660   1.415
    1   AR   Ar  125   0.442   4.047   5.866
    1   AR   Ar  126   6.911   6.975   4.508
    1   AR   Ar  127   3.196   4.005   6.254
    1   AR   Ar  128   2.633   5.436   6.309
    1   AR   Ar  129   2.136   7.045   3.115
    1   AR   Ar  130   5.211   2.822  -1.403
    1   AR   Ar  131   4.492   1.053  -0.349
    1   AR   Ar  132   0.517   1.455  -0.586
    1   AR   Ar  133   4.140   6.863   2.680
    1   AR   Ar  134   4.682   1.217   3.976
    1   AR   Ar  135   5.433   0.552   3.052
    1   AR   Ar  136   4.975   0.223   2.038
    1   AR   Ar  137   2.059   5.262   3.610
    1   AR   Ar  138   4.696   2.364   4.690
    1   AR   Ar  139   5.498   2.529   5.505
    1   AR   Ar  140   3.739   0.177   4.688
    1   AR   Ar  141   3.934   5.899   4.727
    1   AR   Ar  142   3.440   6.622   5.482
    1   AR   Ar  143   6.961   6.629   5.942
    1   AR   Ar  144   5.555   1.145   6.034
    1   AR   Ar  145   4.032   4.418   0.708
    1   AR   Ar  146   4.671   2.246   1.669
    1   AR   Ar  147   5.450   1.885  -2.160
    1   AR   Ar  148   3.544   4.789  -1.145
    1   AR   Ar  149   3.715   2.170   0.935
    1   AR   Ar  150   2.212   1.878   2.744
    1   AR   Ar  151   2.517   2.611   3.364
    1   AR   Ar  152   3.438   3.480   0.017
    1   AR   Ar  153   4.003   0.371   3.397
    1   AR   Ar  154   3.782   2.123   3.943
    1   AR   Ar  155   6.670   0.240   6.802
    1   AR   Ar  156   3.872   3.791   4.085
    1   AR   Ar  157   2.276   3.280   6.297
    1   AR   Ar  158   1.361   3.680   6.506
    1   AR   Ar  159   4.465   2.319   5.976
    1   AR   Ar  160   2.704   1.775   5.539
    1   AR   Ar  161   5.359   2.953   1.427
    1   AR   Ar  162   4.296   6.259  -0.783
    1   AR   Ar  163   5.662   3.334   0.274
    1   AR   Ar  164   3.232   5.556   1.869
    1   AR   Ar  165   3.822   3.366   1.310
    1   AR   Ar  166   2.696   3.887   4.417
    1   AR   Ar  167   3.967   1.091   2.245
    1   AR   Ar  168   4.522   3.082  -0.195
    1   AR   Ar  169   2.802   2.862   1.674
    1   AR   Ar  170   2.189   4.445   6.024
    1   AR   Ar  171   5.470   3.877   4.180
    1   AR   Ar  172   4.744   4.791   4.585
    1   AR   Ar  173   2.430   3.646   7.512
    1   AR   Ar  174   2.537   4.558   6.985
    1   AR   Ar  175   3.078   2.591   6.140
    1   AR   Ar  176   3.930   3.238   6.242
    1   AR   Ar  177   6.330   4.794  -0.001
    1   AR   Ar  178   3.471   5.195   0.293
    1   AR   Ar  179   4.350   5.508   0.972
    1   AR   Ar  180   1.198   2.068  -2.672
    1   AR   Ar  181   0.797   6.158   1.496
    1   AR   Ar  182   2.571   0.874   2.729
    1   AR   Ar  183   3.584   5.046   2.882
    1   AR   Ar  184   4.067   6.293   1.666
    1   AR   Ar  185   1.801   4.942   4.707
    1   AR   Ar  186   3.973   4.823   3.953
    1   AR   Ar  187   3.269   6.079   3.611
    1   AR   Ar  188   2.603   6.545   1.870
    1   AR   Ar  189   3.435   2.288   7.463
    1   AR   Ar  190   4.769   6.742   4.784
    1   AR   Ar  191   3.787   5.134   6.873
    1   AR   Ar  192   4.723   5.917   5.545
    1   AR   Ar  193   1.101   6.221   0.283
    1   AR   Ar  194   4.465   3.642  -1.165
    1   AR   Ar  195   5.946   0.702  -0.391
    1   AR   Ar  196   4.913   7.089  -0.221
    1   AR   Ar  197   4.663   1.408   0.763
    1   AR   Ar  198   6.854   1.131   0.419
    1   AR   Ar  199   4.615   1.886   2.659
    1   AR   Ar  200   5.777   1.898   0.283
    1   AR   Ar  201   4.742   6.794   3.660
    1   AR   Ar  202   5.582   2.789   4.506
    1   AR   Ar  203   6.034   6.622   4.022
    1   AR   Ar  204   5.584   0.366   4.470
    1   AR   Ar  205   6.276   7.116   2.768
    1   AR   Ar  206   4.589   0.948   5.005
    1   AR   Ar  207   0.802   0.935   6.291
    1   AR   Ar  208   0.139   0.017   3.393
    1   AR   Ar  209   5.627   3.251  -2.285
    1   AR   Ar  210   3.551   0.875   0.572
    1   AR   Ar  211   6.575   3.004   0.612
    1   AR   Ar  212   6.404   3.733  -1.256
    1   AR   Ar  213   3.207   1.785   2.450
    1   AR   Ar  214   4.488   2.861   2.987
    1   AR   Ar  215   5.976   2.146   1.245
    1   AR   Ar  216   0.855   3.818   1.802
    1   AR   Ar  217   4.663   3.070   4.005
    1   AR   Ar  218   4.501   3.405   5.309
    1   AR   Ar  219   5.090   2.220   3.630
    1   AR   Ar  220   4.605   3.470   2.082
    1   AR   Ar  221   6.118   6.815   5.385
    1   AR   Ar  222   4.936   1.464   7.204
    1   AR   Ar  223   0.603   0.775   7.366
    1   AR   Ar  224   4.946   3.117   6.476
    1   AR   Ar  225   6.097   3.742   1.649
    1   AR   Ar  226   3.532   3.981   2.449
    1   AR   Ar  227   7.006   4.548   0.946
    1   AR   Ar  228   5.333   6.466   1.147
    1   AR   Ar  229   5.414   4.215  -0.362
    1   AR   Ar  230   4.534   4.182   3.083
    1   AR   Ar  231   6.262   1.111   2.873
    1   AR   Ar  232   4.518   2.752   0.865
    1   AR   Ar  233   6.220   1.973   3.569
    1   AR   Ar  234   6.657   3.070   4.283
    1   AR   Ar  235   7.008   2.176   4.379
    1   AR   Ar  236   5.906   4.981   5.068
    1   AR   Ar  237   5.514   3.605   5.404
    1   AR   Ar  238   4.841   4.766   5.774
    1   AR   Ar  239   6.855   4.261   8.880
    1   AR   Ar  240   6.990   3.271   6.417
    1   AR   Ar  241   0.990   6.605  -1.206
    1   AR   Ar  242   5.170   4.689   0.628
    1   AR   Ar  243   5.772   4.313   2.606
    1   AR   Ar  244   0.918   5.692  -0.563
    1   AR   Ar  245   5.427   0.379   0.791
    1   AR   Ar  246   6.237   5.445   0.883
    1   AR   Ar  247   4.766   4.112   1.374
    1   AR   Ar  248   5.319   5.275  -0.295
    1   AR   Ar  249   4.450   5.236   2.103
    1   AR   Ar  250   5.361   5.956   4.572
    1   AR   Ar  251   5.858   4.781   3.923
    1   AR   Ar  252   4.688   5.194   3.179
    1   AR   Ar  253   5.823   3.601   6.525
    1   AR   Ar  254   2.284   5.630   8.497
    1   AR   Ar  255   4.610   2.562   7.335
    1   AR   Ar  256   6.931   6.063   3.674
    7.12000  7.12000 12.00000
Argon-slab step 2805
  256
    1   AR   Ar    1   6.593   1.352  -1.118
    1   AR   Ar    2   6.904   7.075   0.984
    1   AR   Ar    3   1.634   1.365   0.321
    1   AR   Ar    4   1.439   0.470  -0.318
    1   AR   Ar    5   0.052   6.263   0.137
    1   AR   Ar    6   0.021   0.786   2.581
    1   AR   Ar    7   6.337   3.888   3.549
    1   AR   Ar    8   6.005   0.419   1.638
    1   AR   Ar    9   1.260   0.387   3.416
    1   AR   Ar   10   0.603   1.232   4.360
    1   AR   Ar   11   2.240   6.448   4.129
    1   AR   Ar   12   0.815   1.380   3.060
    1   AR   Ar   13   6.748   1.399   4.975
    1   AR   Ar   14   1.118   1.917   6.873
    1   AR   Ar   15   5.843   0.849  10.125
    1   AR   Ar   16   1.033   0.523   5.043
    1   AR   Ar   17   6.796   2.183  -0.219
    1   AR   Ar   18   5.754   2.570  -0.475
    1   AR   Ar   19   1.733   3.017   1.649
    1   AR   Ar   20   4.980   4.192  -2.031
    1   AR   Ar   21   5.267   1.212   1.792
    1   AR   Ar   22   6.689   1.875   2.204
    1   AR   Ar   23   0.099   0.512  -0.308
    1   AR   Ar   24   6.934   2.362   1.281
    1   AR   Ar   25   6.786   0.807   3.825
    1   AR   Ar   26   5.969   1.285   4.306
    1   AR   Ar   27   1.673   1.703   3.756
    1   AR   Ar   28   1.420   2.472   4.769
    1   AR   Ar   29   5.568   2.158   6.586
    1   AR   Ar   30   1.538   1.449   4.878
    1   AR   Ar   31   1.429   0.033   7.800
    1   AR   Ar   32   1.522   2.519   6.194
    1   AR   Ar   33   1.140   4.176  -0.821
    1   AR   Ar   34   0.006   5.309   2.986
    1   AR   Ar   35   6.292   4.901   1.794
    1   AR   Ar   36   0.287   0.652  -3.649
    1   AR   Ar   37   5.883   2.700   2.509
    1   AR   Ar   38   6.892   4.008   2.357
    1   AR   Ar   39   1.217   3.149   3.162
    1   AR   Ar   40   1.721   4.181   1.355
    1   AR   Ar   41   0.583   3.228   4.043
    1   AR   Ar   42   6.631   5.782   4.697
    1   AR   Ar   43   6.786   2.041   6.270
    1   AR   Ar   44   0.772   4.454   2.929
    1   AR   Ar   45   0.339   2.841   5.156
    1   AR   Ar   46   0.989   6.313   6.077
    1   AR   Ar   47   6.172   3.348   7.602
    1   AR   Ar   48   0.517   7.062   6.693
    1   AR   Ar   49   5.911   0.603  -2.019
    1   AR   Ar   50   5.316   5.124   1.538
    1   AR   Ar   51   0.336   4.910   2.019
    1   AR   Ar   52   5.485   4.806  -1.272
    1   AR   Ar   53   5.180   6.440   2.778
    1   AR   Ar   54   6.866   6.314   2.402
    1   AR   Ar   55   6.013   5.539   2.756
    1   AR   Ar   56   0.698   0.161   0.545
    1   AR   Ar   57   5.600   3.174   3.406
    1   AR   Ar   58   0.099   4.600   4.043
    1   AR   Ar   59   1.644   5.586   5.752
    1   AR   Ar   60   0.800   6.701   3.990
    1   AR   Ar   61   6.538   4.411   5.710
    1   AR   Ar   62   0.612   5.057   5.338
    1   AR   Ar   63   2.909   0.079   6.717
    1   AR   Ar   64   0.797   6.489   5.066
    1   AR   Ar   65   3.417   6.847   0.753
    1   AR   Ar   66   0.608   1.351   1.812
    1   AR   Ar   67   2.757   6.282  -1.667
    1   AR   Ar   68   3.141   1.999  -0.862
    1   AR   Ar   69   2.560   1.070   1.174
    1   AR   Ar   70   0.518   7.075   2.011
    1   AR   Ar   71   2.733   1.604   3.977
    1   AR   Ar   72   3.236   0.357   1.763
    1   AR   Ar   73   2.936   0.245   3.729
    1   AR   Ar   74   1.925   0.666   4.074
    1   AR   Ar   75   3.681   1.175   4.492
    1   AR   Ar   76   1.524   0.766   2.180
    1   AR   Ar   77   2.394   6.625   5.906
    1   AR   Ar   78   1.567   0.409   6.664
    1   AR   Ar   79   3.767   6.315   6.409
    1   AR   Ar   80   3.638   5.589   5.690
    1   AR   Ar   81   2.453   0.812  -0.287
    1   AR   Ar   82   6.912   5.793  -0.801
    1   AR   Ar   83   0.738   2.253   0.478
    1   AR   Ar   84   7.091   3.580  -0.344
    1   AR   Ar   85   0.903   3.615   0.727
    1   AR   Ar   86   2.249   3.799  -0.191
    1   AR   Ar   87   1.955   1.965   1.495
    1   AR   Ar   88   2.245   4.670   1.972
    1   AR   Ar   89   0.472   2.935   1.950
    1   AR   Ar   90   2.439   2.577   4.792
    1   AR   Ar   91   0.862   2.311   3.596
    1   AR   Ar   92   1.250   2.168   2.418
    1   AR   Ar   93   2.179   0.795   5.743
    1   AR   Ar   94   1.371   7.102  10.012
    1   AR   Ar   95   3.960   0.628   6.047
    1   AR   Ar   96   2.595   0.189   4.938
    1   AR   Ar   97   4.766   2.151  -0.590
    1   AR   Ar   98   2.421   5.557   2.635
    1   AR   Ar   99   6.660   2.665  -1.289
    1   AR   Ar  100   2.416   2.660  -0.059
    1   AR   Ar  101   3.084   4.233   0.985
    1   AR   Ar  102   3.132   3.012   4.196
    1   AR   Ar  103   1.063   4.520   0.283
    1   AR   Ar  104   3.349   2.831  -1.618
    1   AR   Ar  105   2.033   3.193   4.080
    1   AR   Ar  106   3.076   3.325   5.312
    1   AR   Ar  107   1.069   3.690   5.124
    1   AR   Ar  108   3.716   2.257   5.270
    1   AR   Ar  109   1.686   4.304   3.843
    1   AR   Ar  110   1.227   4.712   6.278
    1   AR   Ar  111   5.082   3.829   7.648
    1   AR   Ar  112   1.289   5.585   6.986
    1   AR   Ar  113   2.156   4.981   0.490
    1   AR   Ar  114   2.658   5.724  -0.338
    1   AR   Ar  115   2.408   4.729  -0.815
    1   AR   Ar  116   6.301   6.475  -1.519
    1   AR   Ar  117   0.792   5.454   3.944
    1   AR   Ar  118   1.067   5.468   2.591
    1   AR   Ar  119   1.711   3.697   2.464
    1   AR   Ar  120   1.420   6.580   2.403
    1   AR   Ar  121   6.373   4.061   4.648
    1   AR   Ar  122   2.587   6.128   4.975
    1   AR   Ar  123   3.782   4.182   5.144
    1   AR   Ar  124   1.960   5.694   1.417
    1   AR   Ar  125   0.445   4.040   5.891
    1   AR   Ar  126   6.926   6.985   4.450
    1   AR   Ar  127   3.205   4.015   6.229
    1   AR   Ar  128   2.647   5.435   6.291
    1   AR   Ar  129   2.144   7.017   3.088
    1   AR   Ar  130   5.212   2.822  -1.400
    1   AR   Ar  131   4.523   1.082  -0.328
    1   AR   Ar  132   0.480   1.464  -0.551
    1   AR   Ar  133   4.149   6.840   2.656
    1   AR   Ar  134   4.675   1.239   3.979
    1   AR   Ar  135   5.413   0.512   3.044
    1   AR   Ar  136   4.963   0.218   2.041
    1   AR   Ar  137   2.079   5.249   3.629
    1   AR   Ar  138   4.677   2.368   4.739
    1   AR   Ar  139   5.490   2.537   5.497
    1   AR   Ar  140   3.731   0.246   4.687
    1   AR   Ar  141   3.944   5.919   4.725
    1   AR   Ar  142   3.416   6.655   5.523
    1   AR   Ar  143   6.979   6.636   5.937
    1   AR   Ar  144   5.553   1.124   6.069
    1   AR   Ar  145   4.000   4.387   0.687
    1   AR   Ar  146   4.666   2.266   1.683
    1   AR   Ar  147   5.439   1.867  -2.154
    1   AR   Ar  148   3.525   4.811  -1.132
    1   AR   Ar  149   3.706   2.180   0.960
    1   AR   Ar  150   2.218   1.902   2.734
    1   AR   Ar  151   2.498   2.632   3.356
    1   AR   Ar  152   3.441   3.454   0.029
    1   AR   Ar  153   4.000   0.377   3.379
    1   AR   Ar  154   3.805   2.108   3.959
    1   AR   Ar  155   6.665   0.247   6.818
    1   AR   Ar  156   3.884   3.773   4.066
    1   AR   Ar  157   2.307   3.258   6.296
    1   AR   Ar  158   1.289   3.685   6.505
    1   AR   Ar  159   4.476   2.306   5.966
    1   AR   Ar  160   2.717   1.746   5.552
    1   AR   Ar  161   5.363   2.986   1.461
    1   AR   Ar  162   4.300   6.264  -0.761
    1   AR   Ar  163   5.649   3.337   0.282
    1   AR   Ar  164   3.220   5.570   1.862
    1   AR   Ar  165   3.830   3.403   1.284
    1   AR   Ar  166   2.686   3.912   4.461
    1   AR   Ar  167   3.966   1.080   2.220
    1   AR   Ar  168   4.521   3.083  -0.198
    1   AR   Ar  169   2.807   2.851   1.671
    1   AR   Ar  170   2.229   4.462   6.013
    1   AR   Ar  171   5.452   3.840   4.194
    1   AR   Ar  172   4.741   4.783   4.574
    1   AR   Ar  173   2.439   3.628   7.514
    1   AR   Ar  174   2.552   4.559   6.999
    1   AR   Ar  175   3.062   2.570   6.084
    1   AR   Ar  176   3.938   3.224   6.239
    1   AR   Ar  177   6.334   4.821   0.004
    1   AR   Ar  178   3.476   5.181   0.268
    1   AR   Ar  179   4.344   5.525   0.974
    1   AR   Ar  180   1.175   2.060  -2.701
    1   AR   Ar  181   0.809   6.145   1.501
    1   AR   Ar  182   2.601   0.863   2.724
    1   AR   Ar  183   3.601   5.054   2.886
    1   AR   Ar  184   4.106   6.279   1.670
    1   AR   Ar  185   1.809   4.933   4.725
    1   AR   Ar  186   3.990   4.838   3.936
    1   AR   Ar  187   3.229   6.067   3.634
    1   AR   Ar  188   2.644   6.556   1.838
    1   AR   Ar  189   3.448   2.312   7.435
    1   AR   Ar  190   4.744   6.723   4.743
    1   AR   Ar  191   3.768   5.144   6.909
    1   AR   Ar  192   4.752   5.908   5.518
    1   AR   Ar  193   1.100   6.218   0.285
    1   AR   Ar  194   4.422   3.674  -1.142
    1   AR   Ar  195   5.915   0.701  -0.418
    1   AR   Ar  196   4.898   7.105  -0.230
    1   AR   Ar  197   4.628   1.413   0.761
    1   AR   Ar  198   6.835   1.119   0.405
    1   AR   Ar  199   4.617   1.879   2.699
    1   AR   Ar  200   5.762   1.898   0.313
    1   AR   Ar  201   4.775   6.782   3.656
    1   AR   Ar  202   5.572   2.834   4.468
    1   AR   Ar  203   6.045   6.626   4.021
    1   AR   Ar  204   5.549   0.363   4.450
    1   AR   Ar  205   6.279   0.014   2.766
    1   AR   Ar  206   4.583   0.956   4.999
    1   AR   Ar  207   0.806   0.963   6.297
    1   AR   Ar  208   0.130   0.036   3.383
    1   AR   Ar  209   5.619   3.244  -2.342
    1   AR   Ar  210   3.542   0.863   0.588
    1   AR   Ar  211   6.588   3.012   0.633
    1   AR   Ar  212   6.393   3.726  -1.284
    1   AR   Ar  213   3.221   1.790   2.426
    1   AR   Ar  214   4.512   2.902   2.978
    1   AR   Ar  215   5.998   2.124   1.262
    1   AR   Ar  216   0.901   3.834   1.831
    1   AR   Ar  217   4.651   3.046   4.006
    1   AR   Ar  218   4.480   3.398   5.319
    1   AR   Ar  219   5.081   2.243   3.642
    1   AR   Ar  220   4.614   3.477   2.071
    1   AR   Ar  221   6.113   6.753   5.382
    1   AR   Ar  222   4.942   1.514   7.230
    1   AR   Ar  223   0.576   0.802   7.347
    1   AR   Ar  224   4.934   3.153   6.473
    1   AR   Ar  225   6.122   3.730   1.656
    1   AR   Ar  226   3.533   3.974   2.471
    1   AR   Ar  227   7.014   4.520   0.979
    1   AR   Ar  228   5.339   6.466   1.165
    1   AR   Ar  229   5.365   4.196  -0.364
    1   AR   Ar  230   4.540   4.156   3.068
    1   AR   Ar  231   6.265   1.096   2.843
    1   AR   Ar  232   4.516   2.747   0.867
    1   AR   Ar  233   6.232   1.968   3.564
    1   AR   Ar  234   6.655   3.085   4.264
    1   AR   Ar  235   6.969   2.191   4.413
    1   AR   Ar  236   5.928   5.006   5.054
    1   AR   Ar  237   5.484   3.610   5.391
    1   AR   Ar  238   4.851   4.779   5.808
    1   AR   Ar  239   6.839   4.252   8.874
    1   AR   Ar  240   7.003   3.274   6.419
    1   AR   Ar  241   0.998   6.616  -1.191
    1   AR   Ar  242   5.166   4.706   0.608
    1   AR   Ar  243   5.766   4.338   2.603
    1   AR   Ar  244   0.928   5.671  -0.548
    1   AR   Ar  245   5.419   0.389   0.786
    1   AR   Ar  246   6.186   5.450   0.892
    1   AR   Ar  247   4.779   4.161   1.374
    1   AR   Ar  248   5.301   5.257  -0.296
    1   AR   Ar  249   4.412   5.221   2.117
    1   AR   Ar  250   5.350   5.969   4.585
    1   AR   Ar  251   5.859   4.765   3.913
    1   AR   Ar  252   4.672   5.172   3.202
    1   AR   Ar  253   5.835   3.618   6.503
    1   AR   Ar  254   2.257   5.614   8.506
    1   AR   Ar  255   4.586   2.545   7.330
    1   AR   Ar  256   6.964   6.072   3.695
    7.12000  7.12000 12.00000
Argon-slab step 2810
  256
    1   AR   Ar    1   6.581   1.328  -1.133
    1   AR   Ar    2   6.906   7.076   0.993
    1   AR   Ar    3   1.615   1.342   0.302
    1   AR   Ar    4   1.426   0.457  -0.333
    1   AR   Ar    5   0.064   6.236   0.126
    1   AR   Ar    6   0.050   0.770   2.600
    1   AR   Ar    7   6.351   3.857   3.568
    1   AR   Ar    8   5.976   0.440   1.619
    1   AR   Ar    9   1.268   0.364   3.410
    1   AR   Ar   10   0.612   1.206   4.352
    1   AR   Ar   11   2.230   6.443   4.100
    1   AR   Ar   12   0.801   1.393   3.041
    1   AR   Ar   13   6.745   1.402   4.972
    1   AR   Ar   14   1.083   1.891   6.873
    1   AR   Ar   15   5.824   0.857  10.147
    1   AR   Ar   16   1.046   0.519   5.083
    1   AR   Ar   17   6.768   2.200  -0.252
    1   AR   Ar   18   5.755   2.621  -0.496
    1   AR   Ar   19   1.728   3.016   1.661
    1   AR   Ar   20   4.977   4.197  -2.068
    1   AR   Ar   21   5.278   1.198   1.782
    1   AR   Ar   22   6.660   1.872   2.205
    1   AR   Ar   23   0.103   0.509  -0.300
    1   AR   Ar   24   6.955   2.353   1.306
    1   AR   Ar   25   6.772   0.805   3.852
    1   AR   Ar   26   5.963   1.261   4.293
    1   AR   Ar   27   1.655   1.709   3.784
    1   AR   Ar   28   1.423   2.442   4.794
    1   AR   Ar   29   5.544   2.151   6.587
    1   AR   Ar   30   1.571   1.453   4.897
    1   AR   Ar   31   1.453   0.018   7.801
    1   AR   Ar   32   1.514   2.531   6.166
    1   AR   Ar   33   1.163   4.191  -0.824
    1   AR   Ar   34   0.029   5.300   2.960
    1   AR   Ar   35   6.262   4.925   1.780
    1   AR   Ar   36   0.268   0.645  -3.659
    1   AR   Ar   37   5.857   2.699   2.520
    1   AR   Ar   38   6.879   3.982   2.357
    1   AR   Ar   39   1.218   3.168   3.132
    1   AR   Ar   40   1.742   4.148   1.327
    1   AR   Ar   41   0.604   3.234   4.037
    1   AR   Ar   42   6.649   5.796   4.662
    1   AR   Ar   43   6.799   2.068   6.269
    1   AR   Ar   44   0.763   4.438   2.900
    1   AR   Ar   45   0.340   2.843   5.177
    1   AR   Ar   46   0.999   6.331   6.071
    1   AR   Ar   47   6.175   3.348   7.582
    1   AR   Ar   48   0.521   7.050   6.701
    1   AR   Ar   49   5.898   0.628  -2.010
    1   AR   Ar   50   5.326   5.113   1.533
    1   AR   Ar   51   0.361   4.884   2.050
    1   AR   Ar   52   5.542   4.825  -1.250
    1   AR   Ar   53   5.153   6.445   2.782
    1   AR   Ar   54   6.891   6.333   2.412
    1   AR   Ar   55   6.026   5.562   2.736
    1   AR   Ar   56   0.693   0.190   0.550
    1   AR   Ar   57   5.552   3.192   3.395
    1   AR   Ar   58   0.092   4.555   4.067
    1   AR   Ar   59   1.649   5.575   5.797
    1   AR   Ar   60   0.833   6.696   3.972
    1   AR   Ar   61   6.541   4.424   5.703
    1   AR   Ar   62   0.607   5.017   5.342
    1   AR   Ar   63   2.902   0.100   6.712
    1   AR   Ar   64   0.786   6.482   5.084
    1   AR   Ar   65   3.445   6.871   0.760
    1   AR   Ar   66   0.623   1.356   1.803
    1   AR   Ar   67   2.742   6.275  -1.676
    1   AR   Ar   68   3.128   1.988  -0.870
    1   AR   Ar   69   2.552   1.062   1.178
    1   AR   Ar   70   0.526   7.072   2.007
    1   AR   Ar   71   2.716   1.609   3.984
    1   AR   Ar   72   3.242   0.331   1.761
    1   AR   Ar   73   2.932   0.264   3.710
    1   AR   Ar   74   1.937   0.609   4.035
    1   AR   Ar   75   3.695   1.184   4.500
    1   AR   Ar   76   1.542   0.825   2.183
    1   AR   Ar   77   2.379   6.622   5.914
    1   AR   Ar   78   1.535   0.390   6.653
    1   AR   Ar   79   3.763   6.292   6.424
    1   AR   Ar   80   3.595   5.579   5.685
    1   AR   Ar   81   2.508   0.801  -0.268
    1   AR   Ar   82   6.878   5.779  -0.801
    1   AR   Ar   83   0.721   2.272   0.453
    1   AR   Ar   84   7.105   3.610  -0.352
    1   AR   Ar   85   0.904   3.594   0.746
    1   AR   Ar   86   2.254   3.826  -0.222
    1   AR   Ar   87   1.968   1.948   1.495
    1   AR   Ar   88   2.251   4.682   1.979
    1   AR   Ar   89   0.462   2.957   1.961
    1   AR   Ar   90   2.425   2.587   4.811
    1   AR   Ar   91   0.866   2.294   3.583
    1   AR   Ar   92   1.227   2.159   2.383
    1   AR   Ar   93   2.211   0.822   5.711
    1   AR   Ar   94   1.386   7.109  10.017
    1   AR   Ar   95   3.935   0.619   6.031
    1   AR   Ar   96   2.581   0.189   4.911
    1   AR   Ar   97   4.759   2.124  -0.614
    1   AR   Ar   98   2.441   5.578   2.609
    1   AR   Ar   99   6.662   2.630  -1.281
    1   AR   Ar  100   2.381   2.682  -0.102
    1   AR   Ar  101   3.107   4.227   0.991
    1   AR   Ar  102   3.123   3.027   4.165
    1   AR   Ar  103   1.068   4.548   0.289
    1   AR   Ar  104   3.370   2.827  -1.618
    1   AR   Ar  105   2.016   3.207   4.075
    1   AR   Ar  106   3.079   3.307   5.303
    1   AR   Ar  107   1.071   3.721   5.131
    1   AR   Ar  108   3.692   2.214   5.273
    1   AR   Ar  109   1.711   4.327   3.841
    1   AR   Ar  110   1.228   4.729   6.305
    1   AR   Ar  111   5.090   3.801   7.656
    1   AR   Ar  112   1.299   5.585   7.000
    1   AR   Ar  113   2.153   4.979   0.495
    1   AR   Ar  114   2.662   5.738  -0.347
    1   AR   Ar  115   2.432   4.748  -0.803
    1   AR   Ar  116   6.287   6.516  -1.521
    1   AR   Ar  117   0.815   5.440   3.914
    1   AR   Ar  118   1.083   5.470   2.591
    1   AR   Ar  119   1.730   3.685   2.458
    1   AR   Ar  120   1.421   6.579   2.389
    1   AR   Ar  121   6.385   4.088   4.667
    1   AR   Ar  122   2.579   6.115   5.007
    1   AR   Ar  123   3.752   4.197   5.168
    1   AR   Ar  124   1.978   5.727   1.421
    1   AR   Ar  125   0.446   4.035   5.917
    1   AR   Ar  126   6.944   6.995   4.395
    1   AR   Ar  127   3.213   4.025   6.204
    1   AR   Ar  128   2.663   5.435   6.273
    1   AR   Ar  129   2.154   6.988   3.061
    1   AR   Ar  130   5.212   2.820  -1.393
    1   AR   Ar  131   4.551   1.103  -0.310
    1   AR   Ar  132   0.444   1.476  -0.515
    1   AR   Ar  133   4.160   6.810   2.622
    1   AR   Ar  134   4.669   1.262   3.979
    1   AR   Ar  135   5.386   0.470   3.038
    1   AR   Ar  136   4.970   0.210   2.044
    1   AR   Ar  137   2.100   5.241   3.650
    1   AR   Ar  138   4.655   2.362   4.795
    1   AR   Ar  139   5.482   2.544   5.492
    1   AR   Ar  140   3.724   0.290   4.691
    1   AR   Ar  141   3.954   5.941   4.720
    1   AR   Ar  142   3.391   6.691   5.556
    1   AR   Ar  143   6.991   6.647   5.911
    1   AR   Ar  144   5.551   1.104   6.103
    1   AR   Ar  145   3.983   4.354   0.660
    1   AR   Ar  146   4.660   2.273   1.714
    1   AR   Ar  147   5.429   1.849  -2.148
    1   AR   Ar  148   3.504   4.806  -1.130
    1   AR   Ar  149   3.689   2.183   0.987
    1   AR   Ar  150   2.219   1.918   2.720
    1   AR   Ar  151   2.483   2.655   3.352
    1   AR   Ar  152   3.436   3.454   0.081
    1   AR   Ar  153   3.995   0.394   3.370
    1   AR   Ar  154   3.829   2.095   3.975
    1   AR   Ar  155   6.656   0.256   6.833
    1   AR   Ar  156   3.896   3.756   4.047
    1   AR   Ar  157   2.337   3.241   6.295
    1   AR   Ar  158   1.219   3.687   6.505
    1   AR   Ar  159   4.491   2.292   5.959
    1   AR   Ar  160   2.728   1.714   5.560
    1   AR   Ar  161   5.372   3.024   1.494
    1   AR   Ar  162   4.304   6.268  -0.739
    1   AR   Ar  163   5.631   3.340   0.290
    1   AR   Ar  164   3.209   5.583   1.855
    1   AR   Ar  165   3.836   3.443   1.258
    1   AR   Ar  166   2.677   3.944   4.507
    1   AR   Ar  167   3.969   1.066   2.195
    1   AR   Ar  168   4.517   3.088  -0.185
    1   AR   Ar  169   2.811   2.863   1.679
    1   AR   Ar  170   2.269   4.478   5.998
    1   AR   Ar  171   5.427   3.806   4.211
    1   AR   Ar  172   4.748   4.774   4.572
    1   AR   Ar  173   2.448   3.609   7.515
    1   AR   Ar  174   2.561   4.559   7.013
    1   AR   Ar  175   3.048   2.550   6.031
    1   AR   Ar  176   3.940   3.209   6.234
    1   AR   Ar  177   6.338   4.848   0.009
    1   AR   Ar  178   3.478   5.170   0.242
    1   AR   Ar  179   4.332   5.544   0.996
    1   AR   Ar  180   1.152   2.051  -2.730
    1   AR   Ar  181   0.822   6.131   1.505
    1   AR   Ar  182   2.631   0.851   2.720
    1   AR   Ar  183   3.618   5.061   2.891
    1   AR   Ar  184   4.144   6.268   1.677
    1   AR   Ar  185   1.816   4.926   4.745
    1   AR   Ar  186   3.995   4.855   3.914
    1   AR   Ar  187   3.189   6.055   3.656
    1   AR   Ar  188   2.683   6.565   1.807
    1   AR   Ar  189   3.462   2.336   7.407
    1   AR   Ar  190   4.711   6.716   4.706
    1   AR   Ar  191   3.748   5.156   6.942
    1   AR   Ar  192   4.780   5.899   5.491
    1   AR   Ar  193   1.104   6.219   0.293
    1   AR   Ar  194   4.380   3.705  -1.118
    1   AR   Ar  195   5.884   0.700  -0.443
    1   AR   Ar  196   4.884   0.001  -0.238
    1   AR   Ar  197   4.594   1.419   0.759
    1   AR   Ar  198   6.813   1.112   0.395
    1   AR   Ar  199   4.619   1.869   2.739
    1   AR   Ar  200   5.764   1.904   0.316
    1   AR   Ar  201   4.808   6.772   3.656
    1   AR   Ar  202   5.568   2.877   4.431
    1   AR   Ar  203   6.054   6.627   4.017
    1   AR   Ar  204   5.509   0.355   4.432
    1   AR   Ar  205   6.285   0.030   2.764
    1   AR   Ar  206   4.580   0.962   4.996
    1   AR   Ar  207   0.805   0.995   6.298
    1   AR   Ar  208   0.157   0.029   3.351
    1   AR   Ar  209   5.612   3.238  -2.398
    1   AR   Ar  210   3.534   0.852   0.604
    1   AR   Ar  211   6.594   3.011   0.645
    1   AR   Ar  212   6.380   3.720  -1.311
    1   AR   Ar  213   3.240   1.792   2.387
    1   AR   Ar  214   4.535   2.946   2.967
    1   AR   Ar  215   6.006   2.099   1.286
    1   AR   Ar  216   0.941   3.857   1.862
    1   AR   Ar  217   4.631   3.038   4.007
    1   AR   Ar  218   4.457   3.387   5.327
    1   AR   Ar  219   5.079   2.253   3.651
    1   AR   Ar  220   4.620   3.477   2.069
    1   AR   Ar  221   6.104   6.690   5.374
    1   AR   Ar  222   4.928   1.542   7.245
    1   AR   Ar  223   0.550   0.830   7.329
    1   AR   Ar  224   4.923   3.185   6.469
    1   AR   Ar  225   6.146   3.719   1.662
    1   AR   Ar  226   3.537   3.976   2.497
    1   AR   Ar  227   7.021   4.490   1.012
    1   AR   Ar  228   5.344   6.466   1.184
    1   AR   Ar  229   5.316   4.172  -0.365
    1   AR   Ar  230   4.546   4.125   3.053
    1   AR   Ar  231   6.254   1.088   2.818
    1   AR   Ar  232   4.521   2.754   0.849
    1   AR   Ar  233   6.244   1.968   3.556
    1   AR   Ar  234   6.645   3.116   4.242
    1   AR   Ar  235   6.938   2.194   4.442
    1   AR   Ar  236   5.945   5.031   5.038
    1   AR   Ar  237   5.459   3.617   5.376
    1   AR   Ar  238   4.836   4.787   5.805
    1   AR   Ar  239   6.823   4.244   8.868
    1   AR   Ar  240   7.015   3.276   6.421
    1   AR   Ar  241   1.006   6.626  -1.173
    1   AR   Ar  242   5.163   4.724   0.581
    1   AR   Ar  243   5.761   4.364   2.601
    1   AR   Ar  244   0.937   5.645  -0.539
    1   AR   Ar  245   5.409   0.401   0.778
    1   AR   Ar  246   6.134   5.456   0.899
    1   AR   Ar  247   4.792   4.213   1.374
    1   AR   Ar  248   5.285   5.243  -0.297
    1   AR   Ar  249   4.381   5.267   2.130
    1   AR   Ar  250   5.348   5.970   4.595
    1   AR   Ar  251   5.862   4.746   3.896
    1   AR   Ar  252   4.661   5.156   3.225
    1   AR   Ar  253   5.854   3.637   6.480
    1   AR   Ar  254   2.229   5.598   8.514
    1   AR   Ar  255   4.607   2.572   7.319
    1   AR   Ar  256   6.996   6.084   3.717
    7.12000  7.12000 12.00000
Argon-slab step 2815
  256
    1   AR   Ar    1   6.569   1.304  -1.146
    1   AR   Ar    2   6.904   7.076   1.004
    1   AR   Ar    3   1.596   1.320   0.285
    1   AR   Ar    4   1.410   0.443  -0.349
    1   AR   Ar    5   0.074   6.211   0.117
    1   AR   Ar    6   0.086   0.751   2.615
    1   AR   Ar    7   6.367   3.830   3.582
    1   AR   Ar    8   5.955   0.457   1.606
    1   AR   Ar    9   1.259   0.340   3.388
    1   AR   Ar   10   0.622   1.181   4.341
    1   AR   Ar   11   2.218   6.443   4.065
    1   AR   Ar   12   0.788   1.402   3.021
    1   AR   Ar   13   6.742   1.393   4.978
    1   AR   Ar   14   1.046   1.863   6.875
    1   AR   Ar   15   5.805   0.864  10.169
    1   AR   Ar   16   1.060   0.512   5.125
    1   AR   Ar   17   6.791   2.174  -0.289
    1   AR   Ar   18   5.759   2.672  -0.518
    1   AR   Ar   19   1.719   3.013   1.671
    1   AR   Ar   20   4.976   4.202  -2.104
    1   AR   Ar   21   5.280   1.178   1.769
    1   AR   Ar   22   6.633   1.868   2.207
    1   AR   Ar   23   0.108   0.499  -0.299
    1   AR   Ar   24   6.992   2.341   1.333
    1   AR   Ar   25   6.761   0.804   3.877
    1   AR   Ar   26   5.950   1.243   4.280
    1   AR   Ar   27   1.643   1.710   3.814
    1   AR   Ar   28   1.416   2.420   4.817
    1   AR   Ar   29   5.519   2.146   6.587
    1   AR   Ar   30   1.608   1.449   4.915
    1   AR   Ar   31   1.476   0.003   7.799
    1   AR   Ar   32   1.507   2.546   6.133
    1   AR   Ar   33   1.187   4.207  -0.825
    1   AR   Ar   34   0.044   5.304   2.950
    1   AR   Ar   35   6.246   4.944   1.773
    1   AR   Ar   36   0.248   0.639  -3.668
    1   AR   Ar   37   5.832   2.696   2.527
    1   AR   Ar   38   6.870   3.958   2.359
    1   AR   Ar   39   1.217   3.183   3.106
    1   AR   Ar   40   1.763   4.109   1.285
    1   AR   Ar   41   0.625   3.242   4.033
    1   AR   Ar   42   6.654   5.799   4.639
    1   AR   Ar   43   6.811   2.095   6.268
    1   AR   Ar   44   0.757   4.418   2.875
    1   AR   Ar   45   0.341   2.847   5.197
    1   AR   Ar   46   1.008   6.350   6.072
    1   AR   Ar   47   6.186   3.331   7.555
    1   AR   Ar   48   0.527   7.038   6.710
    1   AR   Ar   49   5.885   0.653  -2.000
    1   AR   Ar   50   5.325   5.110   1.530
    1   AR   Ar   51   0.384   4.858   2.072
    1   AR   Ar   52   5.599   4.843  -1.230
    1   AR   Ar   53   5.132   6.446   2.777
    1   AR   Ar   54   6.917   6.350   2.423
    1   AR   Ar   55   6.039   5.585   2.716
    1   AR   Ar   56   0.692   0.228   0.552
    1   AR   Ar   57   5.515   3.210   3.384
    1   AR   Ar   58   0.084   4.510   4.089
    1   AR   Ar   59   1.659   5.563   5.839
    1   AR   Ar   60   0.870   6.687   3.960
    1   AR   Ar   61   6.545   4.436   5.697
    1   AR   Ar   62   0.604   4.978   5.346
    1   AR   Ar   63   2.865   0.137   6.730
    1   AR   Ar   64   0.773   6.475   5.095
    1   AR   Ar   65   3.474   6.894   0.770
    1   AR   Ar   66   0.637   1.363   1.795
    1   AR   Ar   67   2.727   6.267  -1.684
    1   AR   Ar   68   3.114   1.978  -0.877
    1   AR   Ar   69   2.545   1.053   1.181
    1   AR   Ar   70   0.532   7.070   2.002
    1   AR   Ar   71   2.716   1.609   3.992
    1   AR   Ar   72   3.237   0.328   1.761
    1   AR   Ar   73   2.930   0.282   3.694
    1   AR   Ar   74   1.965   0.559   4.012
    1   AR   Ar   75   3.703   1.230   4.500
    1   AR   Ar   76   1.541   0.845   2.200
    1   AR   Ar   77   2.360   6.619   5.924
    1   AR   Ar   78   1.513   0.391   6.631
    1   AR   Ar   79   3.762   6.270   6.447
    1   AR   Ar   80   3.552   5.566   5.679
    1   AR   Ar   81   2.563   0.791  -0.248
    1   AR   Ar   82   6.868   5.809  -0.788
    1   AR   Ar   83   0.703   2.289   0.429
    1   AR   Ar   84   7.117   3.639  -0.359
    1   AR   Ar   85   0.904   3.571   0.767
    1   AR   Ar   86   2.259   3.853  -0.251
    1   AR   Ar   87   1.981   1.931   1.497
    1   AR   Ar   88   2.264   4.700   1.994
    1   AR   Ar   89   0.450   2.974   1.974
    1   AR   Ar   90   2.416   2.593   4.836
    1   AR   Ar   91   0.861   2.280   3.571
    1   AR   Ar   92   1.203   2.152   2.348
    1   AR   Ar   93   2.239   0.845   5.681
    1   AR   Ar   94   1.400   7.116  10.021
    1   AR   Ar   95   3.908   0.609   6.014
    1   AR   Ar   96   2.568   0.187   4.883
    1   AR   Ar   97   4.753   2.097  -0.638
    1   AR   Ar   98   2.460   5.601   2.585
    1   AR   Ar   99   6.662   2.595  -1.272
    1   AR   Ar  100   2.347   2.705  -0.146
    1   AR   Ar  101   3.106   4.218   1.006
    1   AR   Ar  102   3.136   3.031   4.166
    1   AR   Ar  103   1.074   4.579   0.294
    1   AR   Ar  104   3.392   2.824  -1.617
    1   AR   Ar  105   1.992   3.225   4.071
    1   AR   Ar  106   3.084   3.291   5.292
    1   AR   Ar  107   1.077   3.751   5.135
    1   AR   Ar  108   3.666   2.170   5.270
    1   AR   Ar  109   1.732   4.341   3.840
    1   AR   Ar  110   1.227   4.748   6.331
    1   AR   Ar  111   5.093   3.774   7.654
    1   AR   Ar  112   1.310   5.586   7.013
    1   AR   Ar  113   2.152   4.977   0.492
    1   AR   Ar  114   2.666   5.751  -0.355
    1   AR   Ar  115   2.454   4.768  -0.790
    1   AR   Ar  116   6.273   6.558  -1.523
    1   AR   Ar  117   0.838   5.426   3.883
    1   AR   Ar  118   1.100   5.474   2.593
    1   AR   Ar  119   1.762   3.680   2.453
    1   AR   Ar  120   1.423   6.577   2.374
    1   AR   Ar  121   6.397   4.115   4.687
    1   AR   Ar  122   2.574   6.099   5.043
    1   AR   Ar  123   3.721   4.213   5.191
    1   AR   Ar  124   1.995   5.760   1.426
    1   AR   Ar  125   0.443   4.034   5.940
    1   AR   Ar  126   6.966   7.006   4.343
    1   AR   Ar  127   3.221   4.035   6.178
    1   AR   Ar  128   2.679   5.437   6.256
    1   AR   Ar  129   2.165   6.958   3.034
    1   AR   Ar  130   5.212   2.806  -1.375
    1   AR   Ar  131   4.563   1.092  -0.306
    1   AR   Ar  132   0.409   1.490  -0.478
    1   AR   Ar  133   4.169   6.778   2.586
    1   AR   Ar  134   4.664   1.285   3.977
    1   AR   Ar  135   5.353   0.430   3.034
    1   AR   Ar  136   4.981   0.199   2.046
    1   AR   Ar  137   2.124   5.241   3.669
    1   AR   Ar  138   4.646   2.353   4.832
    1   AR   Ar  139   5.473   2.549   5.489
    1   AR   Ar  140   3.718   0.295   4.702
    1   AR   Ar  141   3.954   5.953   4.707
    1   AR   Ar  142   3.365   6.731   5.583
    1   AR   Ar  143   7.005   6.659   5.879
    1   AR   Ar  144   5.548   1.085   6.137
    1   AR   Ar  145   3.990   4.323   0.625
    1   AR   Ar  146   4.654   2.272   1.753
    1   AR   Ar  147   5.419   1.832  -2.140
    1   AR   Ar  148   3.483   4.801  -1.127
    1   AR   Ar  149   3.667   2.183   1.016
    1   AR   Ar  150   2.217   1.927   2.701
    1   AR   Ar  151   2.483   2.635   3.377
    1   AR   Ar  152   3.432   3.455   0.135
    1   AR   Ar  153   4.004   0.369   3.363
    1   AR   Ar  154   3.856   2.086   3.991
    1   AR   Ar  155   6.644   0.267   6.849
    1   AR   Ar  156   3.906   3.745   4.029
    1   AR   Ar  157   2.364   3.230   6.296
    1   AR   Ar  158   1.153   3.683   6.507
    1   AR   Ar  159   4.509   2.279   5.953
    1   AR   Ar  160   2.739   1.681   5.563
    1   AR   Ar  161   5.384   3.062   1.523
    1   AR   Ar  162   4.308   6.272  -0.716
    1   AR   Ar  163   5.611   3.344   0.301
    1   AR   Ar  164   3.201   5.595   1.846
    1   AR   Ar  165   3.839   3.483   1.235
    1   AR   Ar  166   2.667   3.979   4.554
    1   AR   Ar  167   3.976   1.049   2.169
    1   AR   Ar  168   4.527   3.074  -0.175
    1   AR   Ar  169   2.817   2.875   1.688
    1   AR   Ar  170   2.304   4.492   5.978
    1   AR   Ar  171   5.396   3.792   4.228
    1   AR   Ar  172   4.764   4.764   4.576
    1   AR   Ar  173   2.456   3.588   7.515
    1   AR   Ar  174   2.571   4.560   7.028
    1   AR   Ar  175   3.040   2.532   5.985
    1   AR   Ar  176   3.933   3.193   6.229
    1   AR   Ar  177   6.329   4.855   0.039
    1   AR   Ar  178   3.478   5.161   0.215
    1   AR   Ar  179   4.322   5.555   1.013
    1   AR   Ar  180   1.129   2.043  -2.759
    1   AR   Ar  181   0.835   6.116   1.510
    1   AR   Ar  182   2.660   0.839   2.715
    1   AR   Ar  183   3.632   5.069   2.894
    1   AR   Ar  184   4.161   6.276   1.647
    1   AR   Ar  185   1.823   4.920   4.766
    1   AR   Ar  186   3.988   4.871   3.893
    1   AR   Ar  187   3.148   6.043   3.679
    1   AR   Ar  188   2.720   6.571   1.776
    1   AR   Ar  189   3.476   2.361   7.376
    1   AR   Ar  190   4.671   6.720   4.674
    1   AR   Ar  191   3.726   5.167   6.973
    1   AR   Ar  192   4.805   5.889   5.465
    1   AR   Ar  193   1.111   6.225   0.308
    1   AR   Ar  194   4.339   3.737  -1.095
    1   AR   Ar  195   5.854   0.700  -0.467
    1   AR   Ar  196   4.871   0.018  -0.245
    1   AR   Ar  197   4.560   1.425   0.759
    1   AR   Ar  198   6.787   1.111   0.391
    1   AR   Ar  199   4.620   1.857   2.779
    1   AR   Ar  200   5.765   1.907   0.313
    1   AR   Ar  201   4.840   6.766   3.662
    1   AR   Ar  202   5.573   2.902   4.400
    1   AR   Ar  203   6.059   6.627   4.010
    1   AR   Ar  204   5.465   0.343   4.414
    1   AR   Ar  205   6.294   0.044   2.762
    1   AR   Ar  206   4.580   0.967   4.998
    1   AR   Ar  207   0.798   1.031   6.293
    1   AR   Ar  208   0.173   0.025   3.330
    1   AR   Ar  209   5.604   3.231  -2.452
    1   AR   Ar  210   3.529   0.855   0.607
    1   AR   Ar  211   6.592   3.006   0.648
    1   AR   Ar  212   6.366   3.714  -1.338
    1   AR   Ar  213   3.239   1.794   2.379
    1   AR   Ar  214   4.558   2.988   2.955
    1   AR   Ar  215   6.001   2.073   1.318
    1   AR   Ar  216   0.968   3.885   1.892
    1   AR   Ar  217   4.605   3.043   4.013
    1   AR   Ar  218   4.431   3.371   5.332
    1   AR   Ar  219   5.084   2.249   3.656
    1   AR   Ar  220   4.623   3.475   2.069
    1   AR   Ar  221   6.125   6.674   5.373
    1   AR   Ar  222   4.885   1.537   7.244
    1   AR   Ar  223   0.524   0.857   7.312
    1   AR   Ar  224   4.916   3.216   6.465
    1   AR   Ar  225   6.170   3.710   1.665
    1   AR   Ar  226   3.542   3.978   2.521
    1   AR   Ar  227   7.027   4.461   1.047
    1   AR   Ar  228   5.359   6.463   1.198
    1   AR   Ar  229   5.267   4.146  -0.368
    1   AR   Ar  230   4.550   4.089   3.038
    1   AR   Ar  231   6.233   1.085   2.797
    1   AR   Ar  232   4.532   2.767   0.820
    1   AR   Ar  233   6.256   1.970   3.546
    1   AR   Ar  234   6.631   3.154   4.220
    1   AR   Ar  235   6.915   2.199   4.464
    1   AR   Ar  236   5.956   5.048   5.034
    1   AR   Ar  237   5.450   3.643   5.381
    1   AR   Ar  238   4.804   4.791   5.777
    1   AR   Ar  239   6.807   4.235   8.861
    1   AR   Ar  240   7.024   3.276   6.423
    1   AR   Ar  241   1.013   6.636  -1.154
    1   AR   Ar  242   5.162   4.742   0.550
    1   AR   Ar  243   5.755   4.389   2.599
    1   AR   Ar  244   0.943   5.616  -0.534
    1   AR   Ar  245   5.394   0.414   0.763
    1   AR   Ar  246   6.115   5.453   0.891
    1   AR   Ar  247   4.803   4.262   1.376
    1   AR   Ar  248   5.326   5.260  -0.302
    1   AR   Ar  249   4.350   5.312   2.142
    1   AR   Ar  250   5.355   5.962   4.602
    1   AR   Ar  251   5.865   4.731   3.880
    1   AR   Ar  252   4.659   5.146   3.242
    1   AR   Ar  253   5.878   3.658   6.457
    1   AR   Ar  254   2.201   5.582   8.522
    1   AR   Ar  255   4.628   2.600   7.308
    1   AR   Ar  256   7.031   6.099   3.735
    7.12000  7.12000 12.00000
Argon-slab step 2820
  256
    1   AR   Ar    1   6.558   1.281  -1.158
    1   AR   Ar    2   6.899   7.076   1.017
    1   AR   Ar    3   1.577   1.299   0.269
    1   AR   Ar    4   1.393   0.428  -0.365
    1   AR   Ar    5   0.083   6.189   0.111
    1   AR   Ar    6   0.122   0.734   2.623
    1   AR   Ar    7   6.381   3.817   3.584
    1   AR   Ar    8   5.946   0.467   1.599
    1   AR   Ar    9   1.238   0.316   3.351
    1   AR   Ar   10   0.631   1.157   4.328
    1   AR   Ar   11   2.208   6.442   4.042
    1   AR   Ar   12   0.779   1.408   3.002
    1   AR   Ar   13   6.738   1.371   4.993
    1   AR   Ar   14   1.008   1.837   6.880
    1   AR   Ar   15   5.786   0.871  10.190
    1   AR   Ar   16   1.073   0.510   5.159
    1   AR   Ar   17   6.808   2.151  -0.321
    1   AR   Ar   18   5.766   2.722  -0.536
    1   AR   Ar   19   1.708   3.007   1.677
    1   AR   Ar   20   4.974   4.205  -2.137
    1   AR   Ar   21   5.270   1.161   1.753
    1   AR   Ar   22   6.606   1.865   2.212
    1   AR   Ar   23   0.114   0.482  -0.303
    1   AR   Ar   24   7.038   2.327   1.360
    1   AR   Ar   25   6.754   0.805   3.897
    1   AR   Ar   26   5.931   1.233   4.269
    1   AR   Ar   27   1.637   1.705   3.845
    1   AR   Ar   28   1.391   2.422   4.820
    1   AR   Ar   29   5.494   2.143   6.584
    1   AR   Ar   30   1.648   1.435   4.934
    1   AR   Ar   31   1.498   7.109   7.796
    1   AR   Ar   32   1.500   2.562   6.098
    1   AR   Ar   33   1.212   4.223  -0.825
    1   AR   Ar   34   0.048   5.328   2.963
    1   AR   Ar   35   6.248   4.955   1.775
    1   AR   Ar   36   0.228   0.633  -3.677
    1   AR   Ar   37   5.807   2.690   2.530
    1   AR   Ar   38   6.866   3.937   2.366
    1   AR   Ar   39   1.210   3.194   3.087
    1   AR   Ar   40   1.787   4.070   1.237
    1   AR   Ar   41   0.623   3.245   4.016
    1   AR   Ar   42   6.649   5.794   4.626
    1   AR   Ar   43   6.824   2.124   6.266
    1   AR   Ar   44   0.755   4.393   2.861
    1   AR   Ar   45   0.344   2.852   5.218
    1   AR   Ar   46   1.019   6.369   6.078
    1   AR   Ar   47   6.202   3.305   7.521
    1   AR   Ar   48   0.535   7.028   6.720
    1   AR   Ar   49   5.872   0.680  -1.988
    1   AR   Ar   50   5.311   5.117   1.529
    1   AR   Ar   51   0.401   4.834   2.079
    1   AR   Ar   52   5.658   4.858  -1.212
    1   AR   Ar   53   5.129   6.443   2.762
    1   AR   Ar   54   6.944   6.364   2.435
    1   AR   Ar   55   6.053   5.608   2.696
    1   AR   Ar   56   0.696   0.265   0.553
    1   AR   Ar   57   5.496   3.229   3.373
    1   AR   Ar   58   0.077   4.466   4.109
    1   AR   Ar   59   1.672   5.550   5.877
    1   AR   Ar   60   0.907   6.672   3.953
    1   AR   Ar   61   6.549   4.446   5.695
    1   AR   Ar   62   0.601   4.938   5.349
    1   AR   Ar   63   2.828   0.173   6.746
    1   AR   Ar   64   0.757   6.470   5.099
    1   AR   Ar   65   3.502   6.916   0.781
    1   AR   Ar   66   0.650   1.369   1.788
    1   AR   Ar   67   2.711   6.258  -1.691
    1   AR   Ar   68   3.100   1.968  -0.883
    1   AR   Ar   69   2.538   1.044   1.184
    1   AR   Ar   70   0.537   7.071   1.997
    1   AR   Ar   71   2.741   1.603   4.000
    1   AR   Ar   72   3.252   0.332   1.755
    1   AR   Ar   73   2.931   0.300   3.678
    1   AR   Ar   74   1.987   0.526   3.999
    1   AR   Ar   75   3.703   1.292   4.498
    1   AR   Ar   76   1.526   0.839   2.226
    1   AR   Ar   77   2.339   6.618   5.937
    1   AR   Ar   78   1.496   0.388   6.611
    1   AR   Ar   79   3.760   6.247   6.474
    1   AR   Ar   80   3.511   5.552   5.668
    1   AR   Ar   81   2.591   0.766  -0.232
    1   AR   Ar   82   6.862   5.848  -0.773
    1   AR   Ar   83   0.684   2.307   0.404
    1   AR   Ar   84   0.009   3.667  -0.366
    1   AR   Ar   85   0.904   3.547   0.789
    1   AR   Ar   86   2.264   3.880  -0.278
    1   AR   Ar   87   1.997   1.921   1.471
    1   AR   Ar   88   2.270   4.689   1.965
    1   AR   Ar   89   0.439   2.990   1.989
    1   AR   Ar   90   2.414   2.595   4.862
    1   AR   Ar   91   0.849   2.271   3.561
    1   AR   Ar   92   1.179   2.148   2.312
    1   AR   Ar   93   2.258   0.856   5.654
    1   AR   Ar   94   1.415   0.002  10.026
    1   AR   Ar   95   3.881   0.599   5.995
    1   AR   Ar   96   2.556   0.182   4.853
    1   AR   Ar   97   4.748   2.071  -0.661
    1   AR   Ar   98   2.476   5.626   2.565
    1   AR   Ar   99   6.662   2.562  -1.254
    1   AR   Ar  100   2.314   2.728  -0.189
    1   AR   Ar  101   3.087   4.210   1.026
    1   AR   Ar  102   3.150   3.032   4.167
    1   AR   Ar  103   1.080   4.610   0.299
    1   AR   Ar  104   3.415   2.821  -1.615
    1   AR   Ar  105   1.964   3.247   4.070
    1   AR   Ar  106   3.105   3.286   5.279
    1   AR   Ar  107   1.083   3.780   5.137
    1   AR   Ar  108   3.644   2.126   5.260
    1   AR   Ar  109   1.749   4.345   3.840
    1   AR   Ar  110   1.226   4.764   6.356
    1   AR   Ar  111   5.111   3.769   7.662
    1   AR   Ar  112   1.322   5.588   7.024
    1   AR   Ar  113   2.151   4.974   0.490
    1   AR   Ar  114   2.671   5.765  -0.362
    1   AR   Ar  115   2.477   4.785  -0.781
    1   AR   Ar  116   6.259   6.599  -1.524
    1   AR   Ar  117   0.861   5.411   3.850
    1   AR   Ar  118   1.120   5.480   2.595
    1   AR   Ar  119   1.808   3.684   2.449
    1   AR   Ar  120   1.424   6.573   2.358
    1   AR   Ar  121   6.406   4.139   4.705
    1   AR   Ar  122   2.572   6.080   5.077
    1   AR   Ar  123   3.691   4.229   5.212
    1   AR   Ar  124   2.013   5.792   1.433
    1   AR   Ar  125   0.429   4.042   5.954
    1   AR   Ar  126   6.992   7.015   4.299
    1   AR   Ar  127   3.232   4.044   6.154
    1   AR   Ar  128   2.694   5.443   6.241
    1   AR   Ar  129   2.179   6.930   3.008
    1   AR   Ar  130   5.209   2.795  -1.362
    1   AR   Ar  131   4.574   1.079  -0.301
    1   AR   Ar  132   0.380   1.502  -0.442
    1   AR   Ar  133   4.174   6.748   2.550
    1   AR   Ar  134   4.661   1.308   3.972
    1   AR   Ar  135   5.317   0.391   3.034
    1   AR   Ar  136   4.991   0.184   2.048
    1   AR   Ar  137   2.151   5.251   3.687
    1   AR   Ar  138   4.657   2.344   4.833
    1   AR   Ar  139   5.466   2.555   5.488
    1   AR   Ar  140   3.712   0.278   4.717
    1   AR   Ar  141   3.916   5.931   4.676
    1   AR   Ar  142   3.341   6.772   5.606
    1   AR   Ar  143   7.027   6.671   5.851
    1   AR   Ar  144   5.545   1.067   6.172
    1   AR   Ar  145   4.016   4.296   0.582
    1   AR   Ar  146   4.648   2.270   1.794
    1   AR   Ar  147   5.410   1.815  -2.130
    1   AR   Ar  148   3.463   4.796  -1.123
    1   AR   Ar  149   3.644   2.182   1.046
    1   AR   Ar  150   2.212   1.930   2.678
    1   AR   Ar  151   2.486   2.617   3.403
    1   AR   Ar  152   3.427   3.455   0.190
    1   AR   Ar  153   4.014   0.347   3.358
    1   AR   Ar  154   3.885   2.086   4.003
    1   AR   Ar  155   6.632   0.278   6.863
    1   AR   Ar  156   3.910   3.744   4.011
    1   AR   Ar  157   2.389   3.227   6.297
    1   AR   Ar  158   1.100   3.672   6.517
    1   AR   Ar  159   4.529   2.266   5.949
    1   AR   Ar  160   2.751   1.651   5.559
    1   AR   Ar  161   5.397   3.093   1.548
    1   AR   Ar  162   4.312   6.276  -0.693
    1   AR   Ar  163   5.588   3.349   0.315
    1   AR   Ar  164   3.196   5.605   1.836
    1   AR   Ar  165   3.844   3.519   1.215
    1   AR   Ar  166   2.658   4.016   4.601
    1   AR   Ar  167   3.986   1.031   2.143
    1   AR   Ar  168   4.541   3.057  -0.175
    1   AR   Ar  169   2.825   2.885   1.696
    1   AR   Ar  170   2.333   4.504   5.954
    1   AR   Ar  171   5.358   3.814   4.244
    1   AR   Ar  172   4.784   4.753   4.584
    1   AR   Ar  173   2.465   3.566   7.513
    1   AR   Ar  174   2.582   4.562   7.042
    1   AR   Ar  175   3.034   2.517   5.949
    1   AR   Ar  176   3.916   3.176   6.225
    1   AR   Ar  177   6.320   4.861   0.067
    1   AR   Ar  178   3.476   5.153   0.188
    1   AR   Ar  179   4.316   5.553   1.021
    1   AR   Ar  180   1.106   2.034  -2.789
    1   AR   Ar  181   0.848   6.100   1.515
    1   AR   Ar  182   2.690   0.828   2.711
    1   AR   Ar  183   3.643   5.077   2.897
    1   AR   Ar  184   4.175   6.297   1.625
    1   AR   Ar  185   1.830   4.915   4.790
    1   AR   Ar  186   3.969   4.883   3.880
    1   AR   Ar  187   3.124   6.048   3.708
    1   AR   Ar  188   2.753   6.572   1.747
    1   AR   Ar  189   3.493   2.385   7.352
    1   AR   Ar  190   4.627   6.731   4.647
    1   AR   Ar  191   3.702   5.179   7.001
    1   AR   Ar  192   4.826   5.879   5.444
    1   AR   Ar  193   1.122   6.232   0.327
    1   AR   Ar  194   4.299   3.769  -1.071
    1   AR   Ar  195   5.823   0.701  -0.489
    1   AR   Ar  196   4.859   0.036  -0.251
    1   AR   Ar  197   4.527   1.433   0.761
    1   AR   Ar  198   6.786   1.115   0.395
    1   AR   Ar  199   4.621   1.844   2.817
    1   AR   Ar  200   5.764   1.910   0.306
    1   AR   Ar  201   4.869   6.765   3.674
    1   AR   Ar  202   5.586   2.893   4.381
    1   AR   Ar  203   6.060   6.624   4.001
    1   AR   Ar  204   5.425   0.320   4.401
    1   AR   Ar  205   6.298   0.035   2.775
    1   AR   Ar  206   4.584   0.970   5.003
    1   AR   Ar  207   0.787   1.067   6.281
    1   AR   Ar  208   0.181   0.022   3.319
    1   AR   Ar  209   5.595   3.225  -2.505
    1   AR   Ar  210   3.527   0.869   0.601
    1   AR   Ar  211   6.590   3.002   0.649
    1   AR   Ar  212   6.350   3.706  -1.362
    1   AR   Ar  213   3.224   1.797   2.392
    1   AR   Ar  214   4.579   3.025   2.947
    1   AR   Ar  215   5.990   2.046   1.353
    1   AR   Ar  216   0.984   3.917   1.919
    1   AR   Ar  217   4.577   3.049   4.023
    1   AR   Ar  218   4.405   3.353   5.333
    1   AR   Ar  219   5.095   2.237   3.659
    1   AR   Ar  220   4.621   3.478   2.068
    1   AR   Ar  221   6.149   6.670   5.370
    1   AR   Ar  222   4.842   1.532   7.243
    1   AR   Ar  223   0.498   0.884   7.296
    1   AR   Ar  224   4.915   3.246   6.460
    1   AR   Ar  225   6.193   3.704   1.665
    1   AR   Ar  226   3.549   3.980   2.546
    1   AR   Ar  227   7.033   4.431   1.082
    1   AR   Ar  228   5.380   6.458   1.208
    1   AR   Ar  229   5.218   4.119  -0.372
    1   AR   Ar  230   4.555   4.053   3.023
    1   AR   Ar  231   6.207   1.086   2.779
    1   AR   Ar  232   4.548   2.781   0.792
    1   AR   Ar  233   6.269   1.973   3.535
    1   AR   Ar  234   6.622   3.184   4.209
    1   AR   Ar  235   6.897   2.209   4.477
    1   AR   Ar  236   5.957   5.054   5.052
    1   AR   Ar  237   5.464   3.624   5.416
    1   AR   Ar  238   4.771   4.794   5.748
    1   AR   Ar  239   6.790   4.227   8.854
    1   AR   Ar  240   7.032   3.274   6.426
    1   AR   Ar  241   1.020   6.646  -1.133
    1   AR   Ar  242   5.161   4.758   0.518
    1   AR   Ar  243   5.749   4.413   2.598
    1   AR   Ar  244   0.948   5.586  -0.530
    1   AR   Ar  245   5.374   0.427   0.742
    1   AR   Ar  246   6.082   5.439   0.867
    1   AR   Ar  247   4.807   4.302   1.381
    1   AR   Ar  248   5.342   5.311  -0.306
    1   AR   Ar  249   4.322   5.357   2.152
    1   AR   Ar  250   5.370   5.950   4.603
    1   AR   Ar  251   5.867   4.719   3.864
    1   AR   Ar  252   4.668   5.144   3.228
    1   AR   Ar  253   5.905   3.679   6.433
    1   AR   Ar  254   2.174   5.566   8.529
    1   AR   Ar  255   4.648   2.628   7.296
    1   AR   Ar  256   7.068   6.115   3.746
    7.12000  7.12000 12.00000
Argon-slab step 2825
  256
    1   AR   Ar    1   6.546   1.259  -1.168
    1   AR   Ar    2   6.893   7.076   1.030
    1   AR   Ar    3   1.558   1.278   0.254
    1   AR   Ar    4   1.385   0.444  -0.392
    1   AR   Ar    5   0.093   6.170   0.112
    1   AR   Ar    6   0.154   0.720   2.623
    1   AR   Ar    7   6.386   3.827   3.561
    1   AR   Ar    8   5.950   0.468   1.594
    1   AR   Ar    9   1.213   0.296   3.304
    1   AR   Ar   10   0.641   1.134   4.314
    1   AR   Ar   11   2.212   6.437   4.068
    1   AR   Ar   12   0.774   1.413   2.984
    1   AR   Ar   13   6.735   1.340   5.014
    1   AR   Ar   14   0.973   1.817   6.889
    1   AR   Ar   15   5.767   0.878  10.212
    1   AR   Ar   16   1.082   0.529   5.164
    1   AR   Ar   17   6.809   2.140  -0.344
    1   AR   Ar   18   5.779   2.769  -0.547
    1   AR   Ar   19   1.694   2.998   1.680
    1   AR   Ar   20   4.974   4.208  -2.170
    1   AR   Ar   21   5.252   1.157   1.739
    1   AR   Ar   22   6.581   1.862   2.219
    1   AR   Ar   23   0.119   0.460  -0.311
    1   AR   Ar   24   7.086   2.310   1.383
    1   AR   Ar   25   6.753   0.807   3.910
    1   AR   Ar   26   5.903   1.229   4.259
    1   AR   Ar   27   1.637   1.695   3.878
    1   AR   Ar   28   1.323   2.422   4.798
    1   AR   Ar   29   5.468   2.142   6.581
    1   AR   Ar   30   1.691   1.417   4.953
    1   AR   Ar   31   1.519   7.096   7.791
    1   AR   Ar   32   1.493   2.578   6.062
    1   AR   Ar   33   1.237   4.240  -0.822
    1   AR   Ar   34   0.051   5.352   2.977
    1   AR   Ar   35   6.264   4.961   1.784
    1   AR   Ar   36   0.208   0.626  -3.686
    1   AR   Ar   37   5.783   2.683   2.531
    1   AR   Ar   38   6.870   3.919   2.380
    1   AR   Ar   39   1.199   3.201   3.071
    1   AR   Ar   40   1.812   4.030   1.185
    1   AR   Ar   41   0.615   3.248   3.998
    1   AR   Ar   42   6.641   5.790   4.617
    1   AR   Ar   43   6.836   2.153   6.263
    1   AR   Ar   44   0.760   4.360   2.862
    1   AR   Ar   45   0.347   2.858   5.237
    1   AR   Ar   46   1.033   6.387   6.090
    1   AR   Ar   47   6.218   3.278   7.486
    1   AR   Ar   48   0.540   7.021   6.732
    1   AR   Ar   49   5.860   0.707  -1.975
    1   AR   Ar   50   5.290   5.141   1.531
    1   AR   Ar   51   0.411   4.817   2.070
    1   AR   Ar   52   5.717   4.870  -1.196
    1   AR   Ar   53   5.149   6.435   2.741
    1   AR   Ar   54   6.973   6.376   2.449
    1   AR   Ar   55   6.067   5.631   2.675
    1   AR   Ar   56   0.703   0.303   0.555
    1   AR   Ar   57   5.481   3.251   3.363
    1   AR   Ar   58   0.073   4.424   4.127
    1   AR   Ar   59   1.689   5.540   5.911
    1   AR   Ar   60   0.945   6.652   3.950
    1   AR   Ar   61   6.555   4.456   5.696
    1   AR   Ar   62   0.600   4.898   5.352
    1   AR   Ar   63   2.791   0.208   6.760
    1   AR   Ar   64   0.747   6.492   5.078
    1   AR   Ar   65   3.531   6.936   0.795
    1   AR   Ar   66   0.661   1.375   1.781
    1   AR   Ar   67   2.696   6.250  -1.697
    1   AR   Ar   68   3.086   1.958  -0.889
    1   AR   Ar   69   2.533   1.032   1.187
    1   AR   Ar   70   0.520   7.065   1.997
    1   AR   Ar   71   2.766   1.597   4.009
    1   AR   Ar   72   3.271   0.342   1.749
    1   AR   Ar   73   2.938   0.316   3.663
    1   AR   Ar   74   1.989   0.516   3.988
    1   AR   Ar   75   3.697   1.342   4.506
    1   AR   Ar   76   1.512   0.833   2.254
    1   AR   Ar   77   2.313   6.618   5.955
    1   AR   Ar   78   1.484   0.382   6.592
    1   AR   Ar   79   3.773   6.235   6.450
    1   AR   Ar   80   3.477   5.538   5.651
    1   AR   Ar   81   2.602   0.731  -0.220
    1   AR   Ar   82   6.853   5.884  -0.766
    1   AR   Ar   83   0.663   2.324   0.380
    1   AR   Ar   84   0.021   3.695  -0.372
    1   AR   Ar   85   0.903   3.522   0.813
    1   AR   Ar   86   2.269   3.904  -0.303
    1   AR   Ar   87   2.013   1.913   1.448
    1   AR   Ar   88   2.277   4.679   1.937
    1   AR   Ar   89   0.430   3.007   2.006
    1   AR   Ar   90   2.415   2.595   4.889
    1   AR   Ar   91   0.832   2.270   3.551
    1   AR   Ar   92   1.174   2.159   2.325
    1   AR   Ar   93   2.263   0.843   5.631
    1   AR   Ar   94   1.429   0.009  10.030
    1   AR   Ar   95   3.853   0.588   5.974
    1   AR   Ar   96   2.546   0.175   4.823
    1   AR   Ar   97   4.745   2.048  -0.684
    1   AR   Ar   98   2.484   5.609   2.535
    1   AR   Ar   99   6.663   2.538  -1.200
    1   AR   Ar  100   2.282   2.752  -0.232
    1   AR   Ar  101   3.058   4.204   1.047
    1   AR   Ar  102   3.163   3.032   4.170
    1   AR   Ar  103   1.087   4.640   0.303
    1   AR   Ar  104   3.438   2.817  -1.612
    1   AR   Ar  105   1.933   3.269   4.070
    1   AR   Ar  106   3.149   3.294   5.262
    1   AR   Ar  107   1.091   3.809   5.137
    1   AR   Ar  108   3.630   2.081   5.242
    1   AR   Ar  109   1.761   4.339   3.840
    1   AR   Ar  110   1.223   4.773   6.381
    1   AR   Ar  111   5.142   3.777   7.676
    1   AR   Ar  112   1.334   5.593   7.035
    1   AR   Ar  113   2.152   4.971   0.487
    1   AR   Ar  114   2.675   5.778  -0.368
    1   AR   Ar  115   2.503   4.792  -0.790
    1   AR   Ar  116   6.245   6.641  -1.525
    1   AR   Ar  117   0.884   5.397   3.817
    1   AR   Ar  118   1.140   5.487   2.598
    1   AR   Ar  119   1.867   3.695   2.446
    1   AR   Ar  120   1.425   6.567   2.342
    1   AR   Ar  121   6.410   4.160   4.721
    1   AR   Ar  122   2.570   6.059   5.108
    1   AR   Ar  123   3.706   4.235   5.204
    1   AR   Ar  124   2.030   5.822   1.441
    1   AR   Ar  125   0.401   4.060   5.954
    1   AR   Ar  126   7.021   7.021   4.264
    1   AR   Ar  127   3.245   4.050   6.133
    1   AR   Ar  128   2.705   5.451   6.233
    1   AR   Ar  129   2.195   6.902   2.984
    1   AR   Ar  130   5.201   2.785  -1.358
    1   AR   Ar  131   4.586   1.066  -0.294
    1   AR   Ar  132   0.366   1.503  -0.407
    1   AR   Ar  133   4.173   6.720   2.518
    1   AR   Ar  134   4.659   1.328   3.965
    1   AR   Ar  135   5.280   0.355   3.036
    1   AR   Ar  136   4.997   0.167   2.047
    1   AR   Ar  137   2.182   5.272   3.703
    1   AR   Ar  138   4.667   2.332   4.833
    1   AR   Ar  139   5.461   2.561   5.488
    1   AR   Ar  140   3.706   0.255   4.733
    1   AR   Ar  141   3.886   5.904   4.690
    1   AR   Ar  142   3.317   6.814   5.625
    1   AR   Ar  143   7.058   6.684   5.827
    1   AR   Ar  144   5.541   1.051   6.206
    1   AR   Ar  145   4.051   4.269   0.543
    1   AR   Ar  146   4.642   2.268   1.834
    1   AR   Ar  147   5.401   1.799  -2.119
    1   AR   Ar  148   3.448   4.791  -1.119
    1   AR   Ar  149   3.621   2.180   1.078
    1   AR   Ar  150   2.202   1.929   2.652
    1   AR   Ar  151   2.491   2.598   3.431
    1   AR   Ar  152   3.419   3.459   0.229
    1   AR   Ar  153   4.025   0.327   3.355
    1   AR   Ar  154   3.917   2.106   4.004
    1   AR   Ar  155   6.620   0.290   6.877
    1   AR   Ar  156   3.905   3.759   3.993
    1   AR   Ar  157   2.410   3.230   6.301
    1   AR   Ar  158   1.063   3.650   6.538
    1   AR   Ar  159   4.547   2.254   5.946
    1   AR   Ar  160   2.771   1.632   5.546
    1   AR   Ar  161   5.410   3.117   1.566
    1   AR   Ar  162   4.316   6.279  -0.669
    1   AR   Ar  163   5.564   3.353   0.332
    1   AR   Ar  164   3.229   5.601   1.805
    1   AR   Ar  165   3.850   3.547   1.202
    1   AR   Ar  166   2.647   4.053   4.647
    1   AR   Ar  167   3.999   1.013   2.118
    1   AR   Ar  168   4.557   3.044  -0.183
    1   AR   Ar  169   2.833   2.895   1.705
    1   AR   Ar  170   2.356   4.516   5.927
    1   AR   Ar  171   5.315   3.857   4.260
    1   AR   Ar  172   4.806   4.742   4.593
    1   AR   Ar  173   2.474   3.543   7.510
    1   AR   Ar  174   2.594   4.566   7.054
    1   AR   Ar  175   3.029   2.507   5.925
    1   AR   Ar  176   3.891   3.156   6.223
    1   AR   Ar  177   6.312   4.861   0.090
    1   AR   Ar  178   3.472   5.146   0.160
    1   AR   Ar  179   4.312   5.536   1.018
    1   AR   Ar  180   1.083   2.026  -2.818
    1   AR   Ar  181   0.862   6.084   1.520
    1   AR   Ar  182   2.718   0.816   2.705
    1   AR   Ar  183   3.647   5.085   2.898
    1   AR   Ar  184   4.186   6.329   1.607
    1   AR   Ar  185   1.836   4.909   4.814
    1   AR   Ar  186   3.942   4.891   3.876
    1   AR   Ar  187   3.114   6.066   3.733
    1   AR   Ar  188   2.782   6.568   1.718
    1   AR   Ar  189   3.514   2.405   7.354
    1   AR   Ar  190   4.580   6.745   4.630
    1   AR   Ar  191   3.676   5.191   7.028
    1   AR   Ar  192   4.842   5.867   5.428
    1   AR   Ar  193   1.132   6.223   0.319
    1   AR   Ar  194   4.260   3.800  -1.046
    1   AR   Ar  195   5.792   0.702  -0.511
    1   AR   Ar  196   4.858   0.030  -0.250
    1   AR   Ar  197   4.494   1.442   0.764
    1   AR   Ar  198   6.789   1.123   0.404
    1   AR   Ar  199   4.619   1.828   2.853
    1   AR   Ar  200   5.764   1.913   0.297
    1   AR   Ar  201   4.897   6.765   3.688
    1   AR   Ar  202   5.606   2.864   4.369
    1   AR   Ar  203   6.059   6.620   3.990
    1   AR   Ar  204   5.411   0.270   4.409
    1   AR   Ar  205   6.301   0.020   2.794
    1   AR   Ar  206   4.590   0.971   5.011
    1   AR   Ar  207   0.770   1.098   6.259
    1   AR   Ar  208   0.187   0.030   3.312
    1   AR   Ar  209   5.577   3.210  -2.498
    1   AR   Ar  210   3.524   0.885   0.595
    1   AR   Ar  211   6.587   2.999   0.648
    1   AR   Ar  212   6.333   3.698  -1.386
    1   AR   Ar  213   3.212   1.799   2.403
    1   AR   Ar  214   4.582   3.039   2.945
    1   AR   Ar  215   5.990   2.036   1.387
    1   AR   Ar  216   0.992   3.950   1.941
    1   AR   Ar  217   4.556   3.049   4.036
    1   AR   Ar  218   4.380   3.334   5.329
    1   AR   Ar  219   5.092   2.244   3.644
    1   AR   Ar  220   4.614   3.487   2.061
    1   AR   Ar  221   6.164   6.664   5.359
    1   AR   Ar  222   4.799   1.527   7.240
    1   AR   Ar  223   0.472   0.909   7.280
    1   AR   Ar  224   4.919   3.275   6.453
    1   AR   Ar  225   6.216   3.700   1.658
    1   AR   Ar  226   3.557   3.982   2.569
    1   AR   Ar  227   7.039   4.401   1.119
    1   AR   Ar  228   5.401   6.453   1.220
    1   AR   Ar  229   5.168   4.092  -0.378
    1   AR   Ar  230   4.561   4.022   3.012
    1   AR   Ar  231   6.178   1.087   2.764
    1   AR   Ar  232   4.546   2.750   0.808
    1   AR   Ar  233   6.280   1.978   3.522
    1   AR   Ar  234   6.621   3.193   4.220
    1   AR   Ar  235   6.881   2.225   4.485
    1   AR   Ar  236   5.954   5.062   5.067
    1   AR   Ar  237   5.483   3.596   5.456
    1   AR   Ar  238   4.738   4.796   5.716
    1   AR   Ar  239   6.773   4.228   8.861
    1   AR   Ar  240   7.037   3.268   6.431
    1   AR   Ar  241   1.026   6.656  -1.110
    1   AR   Ar  242   5.160   4.773   0.490
    1   AR   Ar  243   5.752   4.404   2.610
    1   AR   Ar  244   0.951   5.554  -0.527
    1   AR   Ar  245   5.351   0.441   0.717
    1   AR   Ar  246   6.047   5.432   0.844
    1   AR   Ar  247   4.802   4.326   1.387
    1   AR   Ar  248   5.360   5.367  -0.314
    1   AR   Ar  249   4.296   5.402   2.159
    1   AR   Ar  250   5.392   5.936   4.596
    1   AR   Ar  251   5.868   4.709   3.849
    1   AR   Ar  252   4.675   5.156   3.221
    1   AR   Ar  253   5.935   3.701   6.410
    1   AR   Ar  254   2.146   5.551   8.536
    1   AR   Ar  255   4.668   2.656   7.284
    1   AR   Ar  256   7.107   6.131   3.750
    7.12000  7.12000 12.00000
Argon-slab step 2830
  256
    1   AR   Ar    1   6.534   1.238  -1.177
    1   AR   Ar    2   6.885   7.076   1.045
    1   AR   Ar    3   1.539   1.259   0.241
    1   AR   Ar    4   1.378   0.466  -0.423
    1   AR   Ar    5   0.105   6.154   0.123
    1   AR   Ar    6   0.177   0.711   2.610
    1   AR   Ar    7   6.387   3.854   3.520
    1   AR   Ar    8   5.966   0.461   1.591
    1   AR   Ar    9   1.189   0.281   3.251
    1   AR   Ar   10   0.651   1.111   4.299
    1   AR   Ar   11   2.211   6.434   4.096
    1   AR   Ar   12   0.775   1.417   2.968
    1   AR   Ar   13   6.732   1.305   5.035
    1   AR   Ar   14   0.941   1.809   6.907
    1   AR   Ar   15   5.747   0.885  10.234
    1   AR   Ar   16   1.090   0.547   5.170
    1   AR   Ar   17   6.790   2.139  -0.343
    1   AR   Ar   18   5.797   2.815  -0.551
    1   AR   Ar   19   1.678   2.988   1.681
    1   AR   Ar   20   4.974   4.209  -2.200
    1   AR   Ar   21   5.226   1.164   1.726
    1   AR   Ar   22   6.560   1.862   2.229
    1   AR   Ar   23   0.123   0.436  -0.323
    1   AR   Ar   24   0.015   2.291   1.402
    1   AR   Ar   25   6.756   0.815   3.916
    1   AR   Ar   26   5.868   1.230   4.252
    1   AR   Ar   27   1.640   1.684   3.912
    1   AR   Ar   28   1.254   2.424   4.775
    1   AR   Ar   29   5.442   2.142   6.577
    1   AR   Ar   30   1.734   1.399   4.969
    1   AR   Ar   31   1.540   7.082   7.784
    1   AR   Ar   32   1.486   2.594   6.025
    1   AR   Ar   33   1.263   4.257  -0.818
    1   AR   Ar   34   0.055   5.376   2.991
    1   AR   Ar   35   6.271   4.967   1.791
    1   AR   Ar   36   0.188   0.620  -3.696
    1   AR   Ar   37   5.758   2.672   2.529
    1   AR   Ar   38   6.880   3.904   2.401
    1   AR   Ar   39   1.186   3.207   3.056
    1   AR   Ar   40   1.838   3.990   1.133
    1   AR   Ar   41   0.607   3.252   3.983
    1   AR   Ar   42   6.631   5.786   4.611
    1   AR   Ar   43   6.849   2.182   6.260
    1   AR   Ar   44   0.768   4.323   2.880
    1   AR   Ar   45   0.350   2.865   5.257
    1   AR   Ar   46   1.050   6.402   6.101
    1   AR   Ar   47   6.222   3.262   7.459
    1   AR   Ar   48   0.542   7.017   6.748
    1   AR   Ar   49   5.848   0.734  -1.961
    1   AR   Ar   50   5.270   5.182   1.537
    1   AR   Ar   51   0.412   4.809   2.049
    1   AR   Ar   52   5.777   4.880  -1.180
    1   AR   Ar   53   5.174   6.422   2.716
    1   AR   Ar   54   7.002   6.384   2.464
    1   AR   Ar   55   6.080   5.654   2.656
    1   AR   Ar   56   0.712   0.340   0.559
    1   AR   Ar   57   5.469   3.277   3.356
    1   AR   Ar   58   0.075   4.382   4.140
    1   AR   Ar   59   1.710   5.534   5.939
    1   AR   Ar   60   0.984   6.628   3.951
    1   AR   Ar   61   6.562   4.465   5.704
    1   AR   Ar   62   0.600   4.861   5.352
    1   AR   Ar   63   2.753   0.243   6.771
    1   AR   Ar   64   0.738   6.521   5.048
    1   AR   Ar   65   3.560   6.954   0.810
    1   AR   Ar   66   0.670   1.380   1.775
    1   AR   Ar   67   2.681   6.241  -1.702
    1   AR   Ar   68   3.072   1.950  -0.894
    1   AR   Ar   69   2.530   1.018   1.189
    1   AR   Ar   70   0.488   7.055   1.997
    1   AR   Ar   71   2.790   1.591   4.017
    1   AR   Ar   72   3.291   0.356   1.742
    1   AR   Ar   73   2.950   0.331   3.648
    1   AR   Ar   74   1.985   0.509   3.978
    1   AR   Ar   75   3.684   1.368   4.525
    1   AR   Ar   76   1.498   0.827   2.284
    1   AR   Ar   77   2.284   6.620   5.975
    1   AR   Ar   78   1.476   0.374   6.573
    1   AR   Ar   79   3.784   6.223   6.426
    1   AR   Ar   80   3.455   5.525   5.624
    1   AR   Ar   81   2.612   0.696  -0.205
    1   AR   Ar   82   6.841   5.917  -0.769
    1   AR   Ar   83   0.640   2.341   0.356
    1   AR   Ar   84   0.031   3.723  -0.377
    1   AR   Ar   85   0.901   3.498   0.838
    1   AR   Ar   86   2.272   3.926  -0.324
    1   AR   Ar   87   2.026   1.908   1.428
    1   AR   Ar   88   2.284   4.670   1.908
    1   AR   Ar   89   0.423   3.027   2.026
    1   AR   Ar   90   2.417   2.592   4.916
    1   AR   Ar   91   0.812   2.274   3.544
    1   AR   Ar   92   1.173   2.177   2.350
    1   AR   Ar   93   2.254   0.806   5.614
    1   AR   Ar   94   1.444   0.016  10.034
    1   AR   Ar   95   3.825   0.578   5.952
    1   AR   Ar   96   2.539   0.165   4.794
    1   AR   Ar   97   4.743   2.026  -0.707
    1   AR   Ar   98   2.486   5.584   2.505
    1   AR   Ar   99   6.659   2.522  -1.166
    1   AR   Ar  100   2.251   2.775  -0.274
    1   AR   Ar  101   3.025   4.202   1.068
    1   AR   Ar  102   3.175   3.030   4.176
    1   AR   Ar  103   1.094   4.670   0.308
    1   AR   Ar  104   3.452   2.814  -1.607
    1   AR   Ar  105   1.900   3.291   4.072
    1   AR   Ar  106   3.195   3.305   5.245
    1   AR   Ar  107   1.091   3.816   5.129
    1   AR   Ar  108   3.627   2.041   5.217
    1   AR   Ar  109   1.771   4.329   3.841
    1   AR   Ar  110   1.217   4.774   6.406
    1   AR   Ar  111   5.173   3.784   7.689
    1   AR   Ar  112   1.348   5.601   7.047
    1   AR   Ar  113   2.153   4.966   0.484
    1   AR   Ar  114   2.680   5.792  -0.374
    1   AR   Ar  115   2.521   4.801  -0.797
    1   AR   Ar  116   6.232   6.683  -1.524
    1   AR   Ar  117   0.907   5.382   3.783
    1   AR   Ar  118   1.160   5.493   2.601
    1   AR   Ar  119   1.905   3.690   2.451
    1   AR   Ar  120   1.426   6.561   2.325
    1   AR   Ar  121   6.408   4.175   4.735
    1   AR   Ar  122   2.592   6.041   5.096
    1   AR   Ar  123   3.752   4.235   5.173
    1   AR   Ar  124   2.047   5.851   1.451
    1   AR   Ar  125   0.365   4.084   5.946
    1   AR   Ar  126   7.051   7.023   4.245
    1   AR   Ar  127   3.261   4.053   6.115
    1   AR   Ar  128   2.707   5.462   6.236
    1   AR   Ar  129   2.214   6.876   2.963
    1   AR   Ar  130   5.189   2.776  -1.362
    1   AR   Ar  131   4.598   1.052  -0.286
    1   AR   Ar  132   0.375   1.484  -0.374
    1   AR   Ar  133   4.168   6.698   2.495
    1   AR   Ar  134   4.658   1.344   3.958
    1   AR   Ar  135   5.293   0.381   3.073
    1   AR   Ar  136   5.031   0.180   2.021
    1   AR   Ar  137   2.214   5.298   3.719
    1   AR   Ar  138   4.675   2.318   4.831
    1   AR   Ar  139   5.460   2.564   5.490
    1   AR   Ar  140   3.698   0.232   4.749
    1   AR   Ar  141   3.856   5.876   4.704
    1   AR   Ar  142   3.293   6.855   5.643
    1   AR   Ar  143   7.096   6.697   5.806
    1   AR   Ar  144   5.537   1.035   6.240
    1   AR   Ar  145   4.096   4.236   0.537
    1   AR   Ar  146   4.636   2.266   1.874
    1   AR   Ar  147   5.393   1.784  -2.107
    1   AR   Ar  148   3.443   4.785  -1.116
    1   AR   Ar  149   3.598   2.178   1.111
    1   AR   Ar  150   2.186   1.927   2.636
    1   AR   Ar  151   2.495   2.578   3.460
    1   AR   Ar  152   3.397   3.474   0.210
    1   AR   Ar  153   4.037   0.307   3.353
    1   AR   Ar  154   3.955   2.149   3.991
    1   AR   Ar  155   6.609   0.303   6.890
    1   AR   Ar  156   3.892   3.790   3.975
    1   AR   Ar  157   2.428   3.238   6.306
    1   AR   Ar  158   1.037   3.622   6.567
    1   AR   Ar  159   4.562   2.243   5.944
    1   AR   Ar  160   2.795   1.621   5.527
    1   AR   Ar  161   5.419   3.130   1.578
    1   AR   Ar  162   4.320   6.281  -0.644
    1   AR   Ar  163   5.544   3.355   0.345
    1   AR   Ar  164   3.261   5.591   1.769
    1   AR   Ar  165   3.865   3.555   1.176
    1   AR   Ar  166   2.636   4.090   4.692
    1   AR   Ar  167   4.015   0.997   2.095
    1   AR   Ar  168   4.573   3.034  -0.195
    1   AR   Ar  169   2.837   2.865   1.696
    1   AR   Ar  170   2.370   4.527   5.897
    1   AR   Ar  171   5.273   3.902   4.277
    1   AR   Ar  172   4.828   4.734   4.602
    1   AR   Ar  173   2.482   3.520   7.506
    1   AR   Ar  174   2.606   4.570   7.064
    1   AR   Ar  175   3.026   2.504   5.912
    1   AR   Ar  176   3.861   3.134   6.224
    1   AR   Ar  177   6.307   4.854   0.102
    1   AR   Ar  178   3.468   5.138   0.132
    1   AR   Ar  179   4.310   5.509   1.010
    1   AR   Ar  180   1.060   2.017  -2.847
    1   AR   Ar  181   0.876   6.067   1.525
    1   AR   Ar  182   2.746   0.805   2.699
    1   AR   Ar  183   3.646   5.092   2.897
    1   AR   Ar  184   4.195   6.367   1.585
    1   AR   Ar  185   1.843   4.904   4.840
    1   AR   Ar  186   3.912   4.895   3.884
    1   AR   Ar  187   3.116   6.092   3.722
    1   AR   Ar  188   2.808   6.560   1.689
    1   AR   Ar  189   3.536   2.425   7.355
    1   AR   Ar  190   4.530   6.757   4.623
    1   AR   Ar  191   3.649   5.203   7.052
    1   AR   Ar  192   4.851   5.855   5.419
    1   AR   Ar  193   1.144   6.203   0.293
    1   AR   Ar  194   4.221   3.831  -1.021
    1   AR   Ar  195   5.761   0.704  -0.531
    1   AR   Ar  196   4.861   0.017  -0.246
    1   AR   Ar  197   4.463   1.452   0.769
    1   AR   Ar  198   6.791   1.132   0.413
    1   AR   Ar  199   4.614   1.809   2.884
    1   AR   Ar  200   5.764   1.916   0.287
    1   AR   Ar  201   4.926   6.764   3.698
    1   AR   Ar  202   5.626   2.829   4.361
    1   AR   Ar  203   6.057   6.615   3.978
    1   AR   Ar  204   5.398   0.222   4.418
    1   AR   Ar  205   6.303   0.004   2.813
    1   AR   Ar  206   4.596   0.972   5.019
    1   AR   Ar  207   0.749   1.119   6.224
    1   AR   Ar  208   0.193   0.028   3.306
    1   AR   Ar  209   5.556   3.192  -2.476
    1   AR   Ar  210   3.521   0.902   0.590
    1   AR   Ar  211   6.592   2.997   0.636
    1   AR   Ar  212   6.315   3.689  -1.408
    1   AR   Ar  213   3.203   1.801   2.413
    1   AR   Ar  214   4.576   3.031   2.948
    1   AR   Ar  215   5.986   2.028   1.417
    1   AR   Ar  216   1.000   3.979   1.956
    1   AR   Ar  217   4.545   3.040   4.051
    1   AR   Ar  218   4.358   3.314   5.320
    1   AR   Ar  219   5.091   2.257   3.628
    1   AR   Ar  220   4.600   3.502   2.048
    1   AR   Ar  221   6.172   6.658   5.342
    1   AR   Ar  222   4.762   1.523   7.219
    1   AR   Ar  223   0.453   0.903   7.264
    1   AR   Ar  224   4.926   3.304   6.443
    1   AR   Ar  225   6.195   3.656   1.702
    1   AR   Ar  226   3.574   3.978   2.596
    1   AR   Ar  227   7.044   4.370   1.157
    1   AR   Ar  228   5.420   6.448   1.233
    1   AR   Ar  229   5.118   4.065  -0.385
    1   AR   Ar  230   4.569   4.005   3.004
    1   AR   Ar  231   6.146   1.084   2.752
    1   AR   Ar  232   4.542   2.706   0.838
    1   AR   Ar  233   6.292   1.984   3.510
    1   AR   Ar  234   6.627   3.190   4.248
    1   AR   Ar  235   6.868   2.239   4.490
    1   AR   Ar  236   5.947   5.072   5.080
    1   AR   Ar  237   5.501   3.573   5.491
    1   AR   Ar  238   4.705   4.797   5.684
    1   AR   Ar  239   6.753   4.242   8.888
    1   AR   Ar  240   7.040   3.260   6.436
    1   AR   Ar  241   1.033   6.665  -1.085
    1   AR   Ar  242   5.159   4.784   0.465
    1   AR   Ar  243   5.736   4.415   2.619
    1   AR   Ar  244   0.954   5.523  -0.525
    1   AR   Ar  245   5.322   0.452   0.693
    1   AR   Ar  246   6.009   5.434   0.828
    1   AR   Ar  247   4.786   4.334   1.392
    1   AR   Ar  248   5.378   5.428  -0.324
    1   AR   Ar  249   4.275   5.447   2.163
    1   AR   Ar  250   5.420   5.923   4.581
    1   AR   Ar  251   5.868   4.702   3.835
    1   AR   Ar  252   4.689   5.170   3.209
    1   AR   Ar  253   5.967   3.722   6.389
    1   AR   Ar  254   2.118   5.535   8.543
    1   AR   Ar  255   4.687   2.683   7.272
    1   AR   Ar  256   0.028   6.144   3.748
    7.12000  7.12000 12.00000
Argon-slab step 2835
  256
    1   AR   Ar    1   6.523   1.218  -1.183
    1   AR   Ar    2   6.878   7.076   1.059
    1   AR   Ar    3   1.520   1.242   0.231
    1   AR   Ar    4   1.369   0.485  -0.455
    1   AR   Ar    5   0.118   6.142   0.143
    1   AR   Ar    6   0.191   0.709   2.586
    1   AR   Ar    7   6.388   3.884   3.472
    1   AR   Ar    8   5.989   0.451   1.587
    1   AR   Ar    9   1.183   0.232   3.214
    1   AR   Ar   10   0.663   1.089   4.283
    1   AR   Ar   11   2.205   6.435   4.124
    1   AR   Ar   12   0.782   1.421   2.955
    1   AR   Ar   13   6.729   1.269   5.055
    1   AR   Ar   14   0.920   1.814   6.932
    1   AR   Ar   15   5.728   0.892  10.256
    1   AR   Ar   16   1.099   0.564   5.176
    1   AR   Ar   17   6.784   2.140  -0.326
    1   AR   Ar   18   5.820   2.860  -0.548
    1   AR   Ar   19   1.660   2.976   1.681
    1   AR   Ar   20   4.975   4.210  -2.230
    1   AR   Ar   21   5.195   1.180   1.712
    1   AR   Ar   22   6.547   1.865   2.244
    1   AR   Ar   23   0.126   0.410  -0.338
    1   AR   Ar   24   0.061   2.296   1.422
    1   AR   Ar   25   6.760   0.827   3.916
    1   AR   Ar   26   5.828   1.234   4.246
    1   AR   Ar   27   1.644   1.671   3.944
    1   AR   Ar   28   1.186   2.427   4.751
    1   AR   Ar   29   5.416   2.144   6.572
    1   AR   Ar   30   1.775   1.386   4.981
    1   AR   Ar   31   1.560   7.069   7.775
    1   AR   Ar   32   1.478   2.611   5.987
    1   AR   Ar   33   1.289   4.276  -0.812
    1   AR   Ar   34   0.059   5.397   3.003
    1   AR   Ar   35   6.256   4.975   1.791
    1   AR   Ar   36   0.168   0.614  -3.705
    1   AR   Ar   37   5.734   2.659   2.525
    1   AR   Ar   38   6.897   3.893   2.428
    1   AR   Ar   39   1.172   3.211   3.041
    1   AR   Ar   40   1.866   3.952   1.081
    1   AR   Ar   41   0.598   3.258   3.970
    1   AR   Ar   42   6.615   5.796   4.614
    1   AR   Ar   43   6.862   2.210   6.255
    1   AR   Ar   44   0.777   4.285   2.910
    1   AR   Ar   45   0.353   2.874   5.277
    1   AR   Ar   46   1.071   6.416   6.110
    1   AR   Ar   47   6.183   3.286   7.466
    1   AR   Ar   48   0.540   7.016   6.767
    1   AR   Ar   49   5.836   0.761  -1.945
    1   AR   Ar   50   5.250   5.234   1.547
    1   AR   Ar   51   0.408   4.810   2.025
    1   AR   Ar   52   5.837   4.888  -1.163
    1   AR   Ar   53   5.203   6.408   2.689
    1   AR   Ar   54   7.028   6.386   2.484
    1   AR   Ar   55   6.092   5.675   2.635
    1   AR   Ar   56   0.723   0.378   0.564
    1   AR   Ar   57   5.462   3.306   3.353
    1   AR   Ar   58   0.083   4.342   4.148
    1   AR   Ar   59   1.730   5.533   5.963
    1   AR   Ar   60   1.023   6.602   3.954
    1   AR   Ar   61   6.565   4.475   5.717
    1   AR   Ar   62   0.603   4.830   5.347
    1   AR   Ar   63   2.714   0.277   6.780
    1   AR   Ar   64   0.729   6.551   5.015
    1   AR   Ar   65   3.589   6.970   0.825
    1   AR   Ar   66   0.678   1.385   1.769
    1   AR   Ar   67   2.682   6.229  -1.693
    1   AR   Ar   68   3.062   1.974  -0.891
    1   AR   Ar   69   2.529   1.000   1.191
    1   AR   Ar   70   0.462   7.048   1.992
    1   AR   Ar   71   2.810   1.586   4.023
    1   AR   Ar   72   3.309   0.372   1.735
    1   AR   Ar   73   2.966   0.343   3.635
    1   AR   Ar   74   1.975   0.504   3.968
    1   AR   Ar   75   3.671   1.370   4.540
    1   AR   Ar   76   1.484   0.822   2.315
    1   AR   Ar   77   2.253   6.622   5.998
    1   AR   Ar   78   1.471   0.366   6.553
    1   AR   Ar   79   3.795   6.210   6.401
    1   AR   Ar   80   3.445   5.512   5.589
    1   AR   Ar   81   2.622   0.663  -0.190
    1   AR   Ar   82   6.825   5.948  -0.779
    1   AR   Ar   83   0.615   2.357   0.333
    1   AR   Ar   84   0.041   3.750  -0.382
    1   AR   Ar   85   0.897   3.473   0.864
    1   AR   Ar   86   2.274   3.943  -0.341
    1   AR   Ar   87   2.026   1.905   1.445
    1   AR   Ar   88   2.263   4.687   1.879
    1   AR   Ar   89   0.418   3.049   2.048
    1   AR   Ar   90   2.420   2.593   4.940
    1   AR   Ar   91   0.791   2.281   3.538
    1   AR   Ar   92   1.173   2.199   2.373
    1   AR   Ar   93   2.240   0.753   5.604
    1   AR   Ar   94   1.458   0.023  10.038
    1   AR   Ar   95   3.798   0.571   5.929
    1   AR   Ar   96   2.535   0.152   4.768
    1   AR   Ar   97   4.742   2.007  -0.729
    1   AR   Ar   98   2.487   5.560   2.477
    1   AR   Ar   99   6.650   2.523  -1.166
    1   AR   Ar  100   2.221   2.799  -0.317
    1   AR   Ar  101   2.989   4.201   1.088
    1   AR   Ar  102   3.186   3.026   4.182
    1   AR   Ar  103   1.101   4.699   0.313
    1   AR   Ar  104   3.431   2.810  -1.599
    1   AR   Ar  105   1.867   3.310   4.076
    1   AR   Ar  106   3.243   3.317   5.228
    1   AR   Ar  107   1.085   3.821   5.108
    1   AR   Ar  108   3.639   2.018   5.197
    1   AR   Ar  109   1.778   4.319   3.843
    1   AR   Ar  110   1.207   4.766   6.430
    1   AR   Ar  111   5.204   3.789   7.699
    1   AR   Ar  112   1.362   5.612   7.058
    1   AR   Ar  113   2.156   4.961   0.481
    1   AR   Ar  114   2.685   5.805  -0.379
    1   AR   Ar  115   2.525   4.814  -0.801
    1   AR   Ar  116   6.218   6.726  -1.523
    1   AR   Ar  117   0.931   5.367   3.747
    1   AR   Ar  118   1.169   5.510   2.604
    1   AR   Ar  119   1.904   3.659   2.464
    1   AR   Ar  120   1.426   6.554   2.308
    1   AR   Ar  121   6.398   4.185   4.746
    1   AR   Ar  122   2.611   6.028   5.067
    1   AR   Ar  123   3.801   4.237   5.140
    1   AR   Ar  124   2.061   5.877   1.461
    1   AR   Ar  125   0.330   4.104   5.938
    1   AR   Ar  126   7.080   7.023   4.245
    1   AR   Ar  127   3.279   4.054   6.101
    1   AR   Ar  128   2.702   5.475   6.252
    1   AR   Ar  129   2.234   6.851   2.945
    1   AR   Ar  130   5.173   2.769  -1.373
    1   AR   Ar  131   4.610   1.039  -0.276
    1   AR   Ar  132   0.398   1.453  -0.341
    1   AR   Ar  133   4.161   6.683   2.487
    1   AR   Ar  134   4.659   1.356   3.951
    1   AR   Ar  135   5.292   0.397   3.060
    1   AR   Ar  136   5.060   0.189   1.995
    1   AR   Ar  137   2.247   5.327   3.735
    1   AR   Ar  138   4.681   2.301   4.826
    1   AR   Ar  139   5.462   2.562   5.492
    1   AR   Ar  140   3.685   0.214   4.764
    1   AR   Ar  141   3.826   5.849   4.716
    1   AR   Ar  142   3.267   6.891   5.659
    1   AR   Ar  143   0.019   6.711   5.789
    1   AR   Ar  144   5.543   1.028   6.252
    1   AR   Ar  145   4.116   4.226   0.542
    1   AR   Ar  146   4.605   2.274   1.891
    1   AR   Ar  147   5.385   1.769  -2.094
    1   AR   Ar  148   3.451   4.779  -1.117
    1   AR   Ar  149   3.575   2.175   1.145
    1   AR   Ar  150   2.166   1.925   2.635
    1   AR   Ar  151   2.498   2.557   3.490
    1   AR   Ar  152   3.374   3.488   0.189
    1   AR   Ar  153   4.051   0.288   3.350
    1   AR   Ar  154   3.993   2.203   3.972
    1   AR   Ar  155   6.599   0.316   6.902
    1   AR   Ar  156   3.874   3.830   3.955
    1   AR   Ar  157   2.444   3.252   6.312
    1   AR   Ar  158   1.015   3.590   6.598
    1   AR   Ar  159   4.564   2.245   5.952
    1   AR   Ar  160   2.809   1.617   5.513
    1   AR   Ar  161   5.412   3.127   1.581
    1   AR   Ar  162   4.324   6.281  -0.620
    1   AR   Ar  163   5.544   3.349   0.333
    1   AR   Ar  164   3.237   5.588   1.748
    1   AR   Ar  165   3.879   3.546   1.159
    1   AR   Ar  166   2.625   4.126   4.737
    1   AR   Ar  167   4.037   0.984   2.073
    1   AR   Ar  168   4.591   3.026  -0.210
    1   AR   Ar  169   2.850   2.844   1.689
    1   AR   Ar  170   2.379   4.537   5.865
    1   AR   Ar  171   5.287   3.931   4.275
    1   AR   Ar  172   4.846   4.734   4.613
    1   AR   Ar  173   2.492   3.496   7.499
    1   AR   Ar  174   2.619   4.575   7.070
    1   AR   Ar  175   3.024   2.508   5.905
    1   AR   Ar  176   3.830   3.111   6.227
    1   AR   Ar  177   6.305   4.838   0.104
    1   AR   Ar  178   3.464   5.128   0.105
    1   AR   Ar  179   4.309   5.477   0.999
    1   AR   Ar  180   1.036   2.008  -2.876
    1   AR   Ar  181   0.889   6.050   1.529
    1   AR   Ar  182   2.773   0.795   2.691
    1   AR   Ar  183   3.638   5.098   2.895
    1   AR   Ar  184   4.205   6.405   1.550
    1   AR   Ar  185   1.846   4.910   4.862
    1   AR   Ar  186   3.885   4.897   3.911
    1   AR   Ar  187   3.122   6.117   3.710
    1   AR   Ar  188   2.834   6.552   1.662
    1   AR   Ar  189   3.559   2.446   7.354
    1   AR   Ar  190   4.481   6.764   4.625
    1   AR   Ar  191   3.620   5.216   7.074
    1   AR   Ar  192   4.854   5.844   5.413
    1   AR   Ar  193   1.159   6.185   0.269
    1   AR   Ar  194   4.183   3.861  -0.995
    1   AR   Ar  195   5.729   0.707  -0.551
    1   AR   Ar  196   4.866   0.003  -0.240
    1   AR   Ar  197   4.433   1.462   0.775
    1   AR   Ar  198   6.793   1.142   0.423
    1   AR   Ar  199   4.603   1.785   2.907
    1   AR   Ar  200   5.765   1.920   0.276
    1   AR   Ar  201   4.953   6.757   3.702
    1   AR   Ar  202   5.639   2.802   4.365
    1   AR   Ar  203   6.057   6.609   3.963
    1   AR   Ar  204   5.387   0.180   4.430
    1   AR   Ar  205   6.305   7.108   2.833
    1   AR   Ar  206   4.602   0.973   5.027
    1   AR   Ar  207   0.726   1.133   6.180
    1   AR   Ar  208   0.198   0.016   3.297
    1   AR   Ar  209   5.535   3.175  -2.452
    1   AR   Ar  210   3.517   0.920   0.585
    1   AR   Ar  211   6.608   2.996   0.607
    1   AR   Ar  212   6.296   3.678  -1.429
    1   AR   Ar  213   3.197   1.802   2.421
    1   AR   Ar  214   4.564   3.002   2.952
    1   AR   Ar  215   5.976   2.022   1.442
    1   AR   Ar  216   1.011   4.000   1.963
    1   AR   Ar  217   4.540   3.030   4.068
    1   AR   Ar  218   4.339   3.294   5.308
    1   AR   Ar  219   5.097   2.274   3.616
    1   AR   Ar  220   4.580   3.520   2.031
    1   AR   Ar  221   6.175   6.650   5.320
    1   AR   Ar  222   4.733   1.521   7.173
    1   AR   Ar  223   0.437   0.875   7.248
    1   AR   Ar  224   4.935   3.334   6.430
    1   AR   Ar  225   6.188   3.625   1.744
    1   AR   Ar  226   3.597   3.971   2.625
    1   AR   Ar  227   7.048   4.337   1.195
    1   AR   Ar  228   5.439   6.444   1.247
    1   AR   Ar  229   5.081   4.047  -0.394
    1   AR   Ar  230   4.578   4.003   3.000
    1   AR   Ar  231   6.112   1.079   2.744
    1   AR   Ar  232   4.539   2.662   0.870
    1   AR   Ar  233   6.302   1.989   3.497
    1   AR   Ar  234   6.635   3.189   4.280
    1   AR   Ar  235   6.862   2.247   4.498
    1   AR   Ar  236   5.934   5.084   5.093
    1   AR   Ar  237   5.516   3.558   5.518
    1   AR   Ar  238   4.670   4.796   5.652
    1   AR   Ar  239   6.734   4.257   8.915
    1   AR   Ar  240   7.041   3.250   6.442
    1   AR   Ar  241   1.038   6.674  -1.058
    1   AR   Ar  242   5.157   4.794   0.443
    1   AR   Ar  243   5.713   4.435   2.625
    1   AR   Ar  244   0.956   5.490  -0.522
    1   AR   Ar  245   5.281   0.446   0.676
    1   AR   Ar  246   5.968   5.446   0.819
    1   AR   Ar  247   4.780   4.335   1.393
    1   AR   Ar  248   5.397   5.491  -0.336
    1   AR   Ar  249   4.259   5.493   2.164
    1   AR   Ar  250   5.451   5.912   4.560
    1   AR   Ar  251   5.866   4.699   3.822
    1   AR   Ar  252   4.707   5.184   3.196
    1   AR   Ar  253   6.003   3.744   6.373
    1   AR   Ar  254   2.090   5.519   8.549
    1   AR   Ar  255   4.706   2.709   7.261
    1   AR   Ar  256   0.068   6.153   3.741
    7.12000  7.12000 12.00000
Argon-slab step 2840
  256
    1   AR   Ar    1   6.513   1.199  -1.188
    1   AR   Ar    2   6.872   7.077   1.074
    1   AR   Ar    3   1.501   1.229   0.225
    1   AR   Ar    4   1.358   0.499  -0.490
    1   AR   Ar    5   0.131   6.130   0.167
    1   AR   Ar    6   0.197   0.711   2.555
    1   AR   Ar    7   6.392   3.911   3.422
    1   AR   Ar    8   5.992   0.449   1.596
    1   AR   Ar    9   1.197   0.223   3.202
    1   AR   Ar   10   0.671   1.070   4.267
    1   AR   Ar   11   2.196   6.437   4.151
    1   AR   Ar   12   0.795   1.426   2.947
    1   AR   Ar   13   6.726   1.232   5.074
    1   AR   Ar   14   0.912   1.829   6.962
    1   AR   Ar   15   5.709   0.900  10.278
    1   AR   Ar   16   1.108   0.578   5.184
    1   AR   Ar   17   6.788   2.138  -0.293
    1   AR   Ar   18   5.844   2.904  -0.545
    1   AR   Ar   19   1.637   2.987   1.697
    1   AR   Ar   20   4.976   4.209  -2.259
    1   AR   Ar   21   5.164   1.201   1.697
    1   AR   Ar   22   6.541   1.870   2.266
    1   AR   Ar   23   0.117   0.398  -0.354
    1   AR   Ar   24   0.104   2.314   1.441
    1   AR   Ar   25   6.764   0.843   3.914
    1   AR   Ar   26   5.785   1.239   4.239
    1   AR   Ar   27   1.648   1.659   3.975
    1   AR   Ar   28   1.120   2.429   4.724
    1   AR   Ar   29   5.393   2.148   6.568
    1   AR   Ar   30   1.814   1.380   4.987
    1   AR   Ar   31   1.580   7.056   7.764
    1   AR   Ar   32   1.470   2.628   5.948
    1   AR   Ar   33   1.302   4.296  -0.804
    1   AR   Ar   34   0.064   5.416   3.013
    1   AR   Ar   35   6.244   4.981   1.792
    1   AR   Ar   36   0.149   0.609  -3.714
    1   AR   Ar   37   5.708   2.645   2.521
    1   AR   Ar   38   6.919   3.885   2.458
    1   AR   Ar   39   1.155   3.214   3.026
    1   AR   Ar   40   1.893   3.914   1.029
    1   AR   Ar   41   0.590   3.266   3.961
    1   AR   Ar   42   6.597   5.785   4.608
    1   AR   Ar   43   6.875   2.236   6.250
    1   AR   Ar   44   0.785   4.249   2.949
    1   AR   Ar   45   0.354   2.884   5.298
    1   AR   Ar   46   1.096   6.427   6.116
    1   AR   Ar   47   6.144   3.311   7.472
    1   AR   Ar   48   0.533   7.016   6.788
    1   AR   Ar   49   5.825   0.788  -1.928
    1   AR   Ar   50   5.228   5.292   1.561
    1   AR   Ar   51   0.405   4.809   2.000
    1   AR   Ar   52   5.897   4.895  -1.146
    1   AR   Ar   53   5.233   6.393   2.661
    1   AR   Ar   54   7.050   6.381   2.509
    1   AR   Ar   55   6.092   5.693   2.611
    1   AR   Ar   56   0.734   0.416   0.569
    1   AR   Ar   57   5.458   3.338   3.354
    1   AR   Ar   58   0.097   4.302   4.151
    1   AR   Ar   59   1.748   5.535   5.980
    1   AR   Ar   60   1.064   6.576   3.958
    1   AR   Ar   61   6.559   4.490   5.733
    1   AR   Ar   62   0.610   4.809   5.333
    1   AR   Ar   63   2.675   0.311   6.786
    1   AR   Ar   64   0.721   6.582   4.981
    1   AR   Ar   65   3.618   6.985   0.840
    1   AR   Ar   66   0.685   1.390   1.763
    1   AR   Ar   67   2.707   6.213  -1.663
    1   AR   Ar   68   3.052   1.998  -0.888
    1   AR   Ar   69   2.530   0.981   1.192
    1   AR   Ar   70   0.444   7.042   1.978
    1   AR   Ar   71   2.825   1.583   4.028
    1   AR   Ar   72   3.324   0.386   1.726
    1   AR   Ar   73   3.029   0.382   3.637
    1   AR   Ar   74   1.959   0.502   3.955
    1   AR   Ar   75   3.662   1.344   4.536
    1   AR   Ar   76   1.471   0.816   2.347
    1   AR   Ar   77   2.248   6.587   6.008
    1   AR   Ar   78   1.470   0.358   6.532
    1   AR   Ar   79   3.804   6.196   6.376
    1   AR   Ar   80   3.440   5.495   5.555
    1   AR   Ar   81   2.630   0.630  -0.173
    1   AR   Ar   82   6.807   5.977  -0.794
    1   AR   Ar   83   0.590   2.374   0.311
    1   AR   Ar   84   0.047   3.769  -0.387
    1   AR   Ar   85   0.892   3.448   0.891
    1   AR   Ar   86   2.274   3.955  -0.353
    1   AR   Ar   87   2.024   1.905   1.464
    1   AR   Ar   88   2.269   4.705   1.854
    1   AR   Ar   89   0.417   3.075   2.072
    1   AR   Ar   90   2.426   2.598   4.959
    1   AR   Ar   91   0.771   2.291   3.536
    1   AR   Ar   92   1.172   2.225   2.394
    1   AR   Ar   93   2.227   0.690   5.602
    1   AR   Ar   94   1.473   0.029  10.043
    1   AR   Ar   95   3.776   0.573   5.907
    1   AR   Ar   96   2.535   0.137   4.744
    1   AR   Ar   97   4.741   1.989  -0.750
    1   AR   Ar   98   2.485   5.538   2.454
    1   AR   Ar   99   6.637   2.536  -1.193
    1   AR   Ar  100   2.192   2.823  -0.359
    1   AR   Ar  101   2.952   4.202   1.107
    1   AR   Ar  102   3.197   3.020   4.190
    1   AR   Ar  103   1.108   4.726   0.317
    1   AR   Ar  104   3.411   2.806  -1.590
    1   AR   Ar  105   1.834   3.324   4.081
    1   AR   Ar  106   3.289   3.329   5.212
    1   AR   Ar  107   1.078   3.826   5.086
    1   AR   Ar  108   3.664   2.026   5.193
    1   AR   Ar  109   1.784   4.313   3.843
    1   AR   Ar  110   1.195   4.752   6.453
    1   AR   Ar  111   5.236   3.793   7.709
    1   AR   Ar  112   1.377   5.626   7.069
    1   AR   Ar  113   2.163   4.924   0.485
    1   AR   Ar  114   2.690   5.819  -0.384
    1   AR   Ar  115   2.518   4.833  -0.802
    1   AR   Ar  116   6.205   6.770  -1.521
    1   AR   Ar  117   0.954   5.352   3.712
    1   AR   Ar  118   1.160   5.541   2.606
    1   AR   Ar  119   1.909   3.632   2.476
    1   AR   Ar  120   1.426   6.548   2.292
    1   AR   Ar  121   6.381   4.189   4.754
    1   AR   Ar  122   2.618   6.023   5.030
    1   AR   Ar  123   3.824   4.249   5.110
    1   AR   Ar  124   2.072   5.900   1.471
    1   AR   Ar  125   0.302   4.110   5.940
    1   AR   Ar  126   7.108   7.023   4.263
    1   AR   Ar  127   3.299   4.053   6.087
    1   AR   Ar  128   2.697   5.490   6.278
    1   AR   Ar  129   2.256   6.827   2.929
    1   AR   Ar  130   5.156   2.762  -1.388
    1   AR   Ar  131   4.623   1.025  -0.263
    1   AR   Ar  132   0.429   1.418  -0.308
    1   AR   Ar  133   4.152   6.671   2.491
    1   AR   Ar  134   4.661   1.365   3.946
    1   AR   Ar  135   5.274   0.402   3.033
    1   AR   Ar  136   5.084   0.191   1.971
    1   AR   Ar  137   2.281   5.358   3.751
    1   AR   Ar  138   4.685   2.281   4.821
    1   AR   Ar  139   5.468   2.553   5.495
    1   AR   Ar  140   3.664   0.205   4.780
    1   AR   Ar  141   3.800   5.825   4.720
    1   AR   Ar  142   3.234   6.918   5.671
    1   AR   Ar  143   0.062   6.726   5.775
    1   AR   Ar  144   5.565   1.033   6.228
    1   AR   Ar  145   4.134   4.237   0.536
    1   AR   Ar  146   4.557   2.289   1.896
    1   AR   Ar  147   5.377   1.756  -2.079
    1   AR   Ar  148   3.456   4.765  -1.131
    1   AR   Ar  149   3.554   2.172   1.180
    1   AR   Ar  150   2.145   1.921   2.634
    1   AR   Ar  151   2.500   2.534   3.519
    1   AR   Ar  152   3.350   3.502   0.167
    1   AR   Ar  153   4.066   0.269   3.349
    1   AR   Ar  154   4.024   2.252   3.949
    1   AR   Ar  155   6.591   0.330   6.913
    1   AR   Ar  156   3.856   3.872   3.935
    1   AR   Ar  157   2.457   3.272   6.320
    1   AR   Ar  158   0.995   3.557   6.629
    1   AR   Ar  159   4.553   2.257   5.965
    1   AR   Ar  160   2.810   1.604   5.499
    1   AR   Ar  161   5.386   3.105   1.576
    1   AR   Ar  162   4.326   6.279  -0.595
    1   AR   Ar  163   5.542   3.343   0.326
    1   AR   Ar  164   3.218   5.599   1.739
    1   AR   Ar  165   3.890   3.519   1.158
    1   AR   Ar  166   2.620   4.133   4.748
    1   AR   Ar  167   4.065   0.977   2.055
    1   AR   Ar  168   4.612   3.022  -0.229
    1   AR   Ar  169   2.896   2.857   1.686
    1   AR   Ar  170   2.383   4.547   5.830
    1   AR   Ar  171   5.312   3.938   4.269
    1   AR   Ar  172   4.859   4.746   4.626
    1   AR   Ar  173   2.501   3.474   7.491
    1   AR   Ar  174   2.632   4.579   7.075
    1   AR   Ar  175   3.023   2.515   5.902
    1   AR   Ar  176   3.800   3.087   6.233
    1   AR   Ar  177   6.305   4.816   0.098
    1   AR   Ar  178   3.459   5.118   0.078
    1   AR   Ar  179   4.308   5.441   0.987
    1   AR   Ar  180   1.013   1.999  -2.905
    1   AR   Ar  181   0.901   6.031   1.533
    1   AR   Ar  182   2.799   0.785   2.680
    1   AR   Ar  183   3.626   5.103   2.894
    1   AR   Ar  184   4.215   6.441   1.503
    1   AR   Ar  185   1.833   4.958   4.868
    1   AR   Ar  186   3.860   4.901   3.942
    1   AR   Ar  187   3.131   6.140   3.697
    1   AR   Ar  188   2.860   6.547   1.635
    1   AR   Ar  189   3.582   2.468   7.351
    1   AR   Ar  190   4.438   6.764   4.629
    1   AR   Ar  191   3.590   5.228   7.094
    1   AR   Ar  192   4.855   5.833   5.409
    1   AR   Ar  193   1.178   6.168   0.248
    1   AR   Ar  194   4.143   3.891  -0.968
    1   AR   Ar  195   5.697   0.710  -0.569
    1   AR   Ar  196   4.873   7.108  -0.235
    1   AR   Ar  197   4.406   1.474   0.782
    1   AR   Ar  198   6.794   1.153   0.434
    1   AR   Ar  199   4.586   1.756   2.923
    1   AR   Ar  200   5.766   1.925   0.264
    1   AR   Ar  201   4.978   6.743   3.698
    1   AR   Ar  202   5.629   2.807   4.407
    1   AR   Ar  203   6.060   6.603   3.947
    1   AR   Ar  204   5.380   0.144   4.449
    1   AR   Ar  205   6.306   7.092   2.854
    1   AR   Ar  206   4.607   0.973   5.034
    1   AR   Ar  207   0.701   1.142   6.131
    1   AR   Ar  208   0.201   7.118   3.302
    1   AR   Ar  209   5.513   3.158  -2.426
    1   AR   Ar  210   3.512   0.939   0.581
    1   AR   Ar  211   6.624   2.994   0.579
    1   AR   Ar  212   6.276   3.667  -1.448
    1   AR   Ar  213   3.196   1.804   2.428
    1   AR   Ar  214   4.547   2.960   2.957
    1   AR   Ar  215   5.960   2.019   1.458
    1   AR   Ar  216   1.028   4.013   1.960
    1   AR   Ar  217   4.542   3.033   4.087
    1   AR   Ar  218   4.329   3.283   5.307
    1   AR   Ar  219   5.111   2.293   3.609
    1   AR   Ar  220   4.555   3.538   2.016
    1   AR   Ar  221   6.176   6.641   5.294
    1   AR   Ar  222   4.704   1.519   7.125
    1   AR   Ar  223   0.421   0.847   7.232
    1   AR   Ar  224   4.944   3.362   6.414
    1   AR   Ar  225   6.201   3.607   1.787
    1   AR   Ar  226   3.618   3.964   2.653
    1   AR   Ar  227   7.049   4.308   1.227
    1   AR   Ar  228   5.457   6.440   1.262
    1   AR   Ar  229   5.097   4.060  -0.409
    1   AR   Ar  230   4.586   4.001   2.984
    1   AR   Ar  231   6.076   1.069   2.738
    1   AR   Ar  232   4.538   2.620   0.901
    1   AR   Ar  233   6.311   1.995   3.484
    1   AR   Ar  234   6.642   3.199   4.310
    1   AR   Ar  235   6.877   2.242   4.512
    1   AR   Ar  236   5.918   5.097   5.104
    1   AR   Ar  237   5.522   3.544   5.537
    1   AR   Ar  238   4.655   4.771   5.644
    1   AR   Ar  239   6.714   4.272   8.942
    1   AR   Ar  240   7.042   3.242   6.448
    1   AR   Ar  241   1.043   6.683  -1.028
    1   AR   Ar  242   5.154   4.802   0.424
    1   AR   Ar  243   5.691   4.454   2.632
    1   AR   Ar  244   0.957   5.457  -0.520
    1   AR   Ar  245   5.239   0.441   0.661
    1   AR   Ar  246   5.926   5.466   0.815
    1   AR   Ar  247   4.784   4.336   1.393
    1   AR   Ar  248   5.415   5.541  -0.341
    1   AR   Ar  249   4.247   5.541   2.163
    1   AR   Ar  250   5.483   5.902   4.535
    1   AR   Ar  251   5.863   4.702   3.812
    1   AR   Ar  252   4.726   5.197   3.182
    1   AR   Ar  253   6.044   3.766   6.365
    1   AR   Ar  254   2.062   5.504   8.555
    1   AR   Ar  255   4.724   2.733   7.250
    1   AR   Ar  256   0.108   6.156   3.731
    7.12000  7.12000 12.00000
Argon-slab step 2845
  256
    1   AR   Ar    1   6.503   1.182  -1.190
    1   AR   Ar    2   6.867   7.078   1.088
    1   AR   Ar    3   1.482   1.219   0.222
    1   AR   Ar    4   1.345   0.511  -0.526
    1   AR   Ar    5   0.141   6.119   0.192
    1   AR   Ar    6   0.196   0.718   2.522
    1   AR   Ar    7   6.398   3.935   3.371
    1   AR   Ar    8   5.995   0.441   1.605
    1   AR   Ar    9   1.223   0.240   3.206
    1   AR   Ar   10   0.666   1.062   4.254
    1   AR   Ar   11   2.182   6.440   4.174
    1   AR   Ar   12   0.810   1.429   2.942
    1   AR   Ar   13   6.724   1.195   5.091
    1   AR   Ar   14   0.904   1.845   6.993
    1   AR   Ar   15   5.690   0.907  10.300
    1   AR   Ar   16   1.116   0.590   5.193
    1   AR   Ar   17   6.789   2.134  -0.250
    1   AR   Ar   18   5.871   2.945  -0.545
    1   AR   Ar   19   1.609   3.013   1.723
    1   AR   Ar   20   4.978   4.208  -2.287
    1   AR   Ar   21   5.132   1.227   1.681
    1   AR   Ar   22   6.543   1.877   2.293
    1   AR   Ar   23   0.089   0.410  -0.371
    1   AR   Ar   24   0.145   2.329   1.456
    1   AR   Ar   25   6.767   0.862   3.908
    1   AR   Ar   26   5.742   1.246   4.233
    1   AR   Ar   27   1.652   1.647   4.003
    1   AR   Ar   28   1.056   2.430   4.694
    1   AR   Ar   29   5.375   2.152   6.564
    1   AR   Ar   30   1.851   1.380   4.990
    1   AR   Ar   31   1.600   7.044   7.751
    1   AR   Ar   32   1.461   2.646   5.908
    1   AR   Ar   33   1.294   4.318  -0.795
    1   AR   Ar   34   0.069   5.429   3.018
    1   AR   Ar   35   6.235   4.985   1.792
    1   AR   Ar   36   0.129   0.603  -3.723
    1   AR   Ar   37   5.682   2.629   2.518
    1   AR   Ar   38   6.925   3.883   2.481
    1   AR   Ar   39   1.134   3.213   3.013
    1   AR   Ar   40   1.920   3.877   0.979
    1   AR   Ar   41   0.581   3.275   3.954
    1   AR   Ar   42   6.581   5.776   4.600
    1   AR   Ar   43   6.888   2.258   6.243
    1   AR   Ar   44   0.791   4.215   2.991
    1   AR   Ar   45   0.354   2.896   5.320
    1   AR   Ar   46   1.123   6.438   6.121
    1   AR   Ar   47   6.108   3.333   7.475
    1   AR   Ar   48   0.524   7.015   6.810
    1   AR   Ar   49   5.814   0.812  -1.911
    1   AR   Ar   50   5.204   5.352   1.579
    1   AR   Ar   51   0.401   4.813   1.980
    1   AR   Ar   52   5.957   4.901  -1.127
    1   AR   Ar   53   5.263   6.379   2.632
    1   AR   Ar   54   7.068   6.367   2.539
    1   AR   Ar   55   6.093   5.710   2.587
    1   AR   Ar   56   0.745   0.455   0.574
    1   AR   Ar   57   5.455   3.371   3.356
    1   AR   Ar   58   0.098   4.271   4.148
    1   AR   Ar   59   1.757   5.539   5.993
    1   AR   Ar   60   1.106   6.550   3.960
    1   AR   Ar   61   6.541   4.513   5.748
    1   AR   Ar   62   0.622   4.798   5.310
    1   AR   Ar   63   2.634   0.344   6.789
    1   AR   Ar   64   0.715   6.612   4.945
    1   AR   Ar   65   3.645   7.001   0.852
    1   AR   Ar   66   0.691   1.395   1.759
    1   AR   Ar   67   2.733   6.197  -1.632
    1   AR   Ar   68   3.042   2.023  -0.885
    1   AR   Ar   69   2.532   0.960   1.192
    1   AR   Ar   70   0.434   7.038   1.955
    1   AR   Ar   71   2.832   1.581   4.029
    1   AR   Ar   72   3.333   0.399   1.717
    1   AR   Ar   73   3.090   0.420   3.643
    1   AR   Ar   74   1.957   0.487   3.945
    1   AR   Ar   75   3.660   1.297   4.519
    1   AR   Ar   76   1.459   0.811   2.377
    1   AR   Ar   77   2.242   6.552   6.018
    1   AR   Ar   78   1.470   0.350   6.509
    1   AR   Ar   79   3.812   6.181   6.350
    1   AR   Ar   80   3.471   5.494   5.571
    1   AR   Ar   81   2.638   0.597  -0.154
    1   AR   Ar   82   6.787   6.007  -0.812
    1   AR   Ar   83   0.563   2.391   0.290
    1   AR   Ar   84   0.039   3.758  -0.395
    1   AR   Ar   85   0.886   3.423   0.920
    1   AR   Ar   86   2.274   3.961  -0.360
    1   AR   Ar   87   2.021   1.906   1.486
    1   AR   Ar   88   2.281   4.721   1.828
    1   AR   Ar   89   0.419   3.103   2.099
    1   AR   Ar   90   2.432   2.604   4.978
    1   AR   Ar   91   0.763   2.297   3.550
    1   AR   Ar   92   1.168   2.256   2.412
    1   AR   Ar   93   2.215   0.620   5.608
    1   AR   Ar   94   1.462   0.022  10.055
    1   AR   Ar   95   3.762   0.587   5.886
    1   AR   Ar   96   2.540   0.120   4.723
    1   AR   Ar   97   4.742   1.971  -0.770
    1   AR   Ar   98   2.480   5.520   2.438
    1   AR   Ar   99   6.621   2.553  -1.232
    1   AR   Ar  100   2.163   2.848  -0.401
    1   AR   Ar  101   2.969   4.205   1.094
    1   AR   Ar  102   3.209   3.014   4.198
    1   AR   Ar  103   1.114   4.753   0.321
    1   AR   Ar  104   3.392   2.802  -1.581
    1   AR   Ar  105   1.801   3.330   4.089
    1   AR   Ar  106   3.331   3.339   5.197
    1   AR   Ar  107   1.070   3.830   5.064
    1   AR   Ar  108   3.700   2.056   5.201
    1   AR   Ar  109   1.791   4.319   3.850
    1   AR   Ar  110   1.182   4.734   6.474
    1   AR   Ar  111   5.263   3.797   7.717
    1   AR   Ar  112   1.394   5.642   7.079
    1   AR   Ar  113   2.172   4.886   0.489
    1   AR   Ar  114   2.695   5.833  -0.388
    1   AR   Ar  115   2.502   4.857  -0.802
    1   AR   Ar  116   6.192   6.814  -1.517
    1   AR   Ar  117   0.979   5.337   3.676
    1   AR   Ar  118   1.175   5.542   2.607
    1   AR   Ar  119   1.919   3.610   2.488
    1   AR   Ar  120   1.426   6.545   2.277
    1   AR   Ar  121   6.374   4.184   4.757
    1   AR   Ar  122   2.627   6.018   4.997
    1   AR   Ar  123   3.810   4.272   5.086
    1   AR   Ar  124   2.080   5.918   1.481
    1   AR   Ar  125   0.286   4.100   5.952
    1   AR   Ar  126   0.013   7.025   4.297
    1   AR   Ar  127   3.319   4.053   6.073
    1   AR   Ar  128   2.699   5.505   6.311
    1   AR   Ar  129   2.280   6.805   2.916
    1   AR   Ar  130   5.139   2.757  -1.403
    1   AR   Ar  131   4.635   1.013  -0.249
    1   AR   Ar  132   0.465   1.381  -0.276
    1   AR   Ar  133   4.144   6.662   2.502
    1   AR   Ar  134   4.663   1.371   3.944
    1   AR   Ar  135   5.255   0.408   3.006
    1   AR   Ar  136   5.101   0.187   1.950
    1   AR   Ar  137   2.313   5.390   3.767
    1   AR   Ar  138   4.688   2.258   4.816
    1   AR   Ar  139   5.475   2.534   5.499
    1   AR   Ar  140   3.630   0.207   4.796
    1   AR   Ar  141   3.779   5.806   4.709
    1   AR   Ar  142   3.192   6.932   5.681
    1   AR   Ar  143   0.104   6.743   5.763
    1   AR   Ar  144   5.587   1.039   6.205
    1   AR   Ar  145   4.155   4.258   0.519
    1   AR   Ar  146   4.510   2.303   1.904
    1   AR   Ar  147   5.369   1.746  -2.062
    1   AR   Ar  148   3.447   4.737  -1.161
    1   AR   Ar  149   3.534   2.166   1.215
    1   AR   Ar  150   2.125   1.916   2.634
    1   AR   Ar  151   2.500   2.511   3.548
    1   AR   Ar  152   3.326   3.517   0.144
    1   AR   Ar  153   4.084   0.250   3.347
    1   AR   Ar  154   4.041   2.282   3.921
    1   AR   Ar  155   6.582   0.343   6.923
    1   AR   Ar  156   3.839   3.909   3.915
    1   AR   Ar  157   2.468   3.296   6.328
    1   AR   Ar  158   0.975   3.525   6.658
    1   AR   Ar  159   4.537   2.267   5.969
    1   AR   Ar  160   2.805   1.597   5.491
    1   AR   Ar  161   5.351   3.073   1.563
    1   AR   Ar  162   4.328   6.274  -0.570
    1   AR   Ar  163   5.539   3.339   0.326
    1   AR   Ar  164   3.204   5.604   1.727
    1   AR   Ar  165   3.896   3.482   1.166
    1   AR   Ar  166   2.619   4.120   4.735
    1   AR   Ar  167   4.101   0.976   2.039
    1   AR   Ar  168   4.645   3.033  -0.265
    1   AR   Ar  169   2.941   2.872   1.683
    1   AR   Ar  170   2.391   4.558   5.834
    1   AR   Ar  171   5.362   3.909   4.262
    1   AR   Ar  172   4.867   4.768   4.637
    1   AR   Ar  173   2.511   3.451   7.481
    1   AR   Ar  174   2.645   4.584   7.076
    1   AR   Ar  175   3.021   2.522   5.899
    1   AR   Ar  176   3.775   3.066   6.243
    1   AR   Ar  177   6.305   4.791   0.088
    1   AR   Ar  178   3.453   5.106   0.051
    1   AR   Ar  179   4.306   5.404   0.975
    1   AR   Ar  180   0.989   1.990  -2.935
    1   AR   Ar  181   0.912   6.011   1.536
    1   AR   Ar  182   2.823   0.776   2.667
    1   AR   Ar  183   3.611   5.107   2.893
    1   AR   Ar  184   4.229   6.473   1.452
    1   AR   Ar  185   1.835   4.991   4.876
    1   AR   Ar  186   3.835   4.910   3.974
    1   AR   Ar  187   3.140   6.163   3.683
    1   AR   Ar  188   2.888   6.549   1.609
    1   AR   Ar  189   3.607   2.491   7.347
    1   AR   Ar  190   4.406   6.752   4.633
    1   AR   Ar  191   3.558   5.241   7.112
    1   AR   Ar  192   4.867   5.819   5.427
    1   AR   Ar  193   1.200   6.153   0.229
    1   AR   Ar  194   4.104   3.919  -0.941
    1   AR   Ar  195   5.664   0.714  -0.588
    1   AR   Ar  196   4.873   7.100  -0.241
    1   AR   Ar  197   4.382   1.488   0.792
    1   AR   Ar  198   6.794   1.163   0.445
    1   AR   Ar  199   4.566   1.724   2.932
    1   AR   Ar  200   5.767   1.931   0.253
    1   AR   Ar  201   4.992   6.727   3.700
    1   AR   Ar  202   5.632   2.818   4.400
    1   AR   Ar  203   6.067   6.596   3.928
    1   AR   Ar  204   5.377   0.116   4.475
    1   AR   Ar  205   6.305   7.077   2.875
    1   AR   Ar  206   4.606   0.970   5.038
    1   AR   Ar  207   0.713   1.156   6.155
    1   AR   Ar  208   0.203   7.099   3.312
    1   AR   Ar  209   5.492   3.141  -2.398
    1   AR   Ar  210   3.503   0.957   0.577
    1   AR   Ar  211   6.641   2.991   0.550
    1   AR   Ar  212   6.255   3.654  -1.466
    1   AR   Ar  213   3.196   1.805   2.433
    1   AR   Ar  214   4.528   2.911   2.959
    1   AR   Ar  215   5.949   2.035   1.455
    1   AR   Ar  216   1.049   4.018   1.952
    1   AR   Ar  217   4.556   3.059   4.111
    1   AR   Ar  218   4.333   3.287   5.325
    1   AR   Ar  219   5.132   2.313   3.604
    1   AR   Ar  220   4.526   3.553   2.004
    1   AR   Ar  221   6.176   6.632   5.265
    1   AR   Ar  222   4.675   1.519   7.077
    1   AR   Ar  223   0.406   0.821   7.216
    1   AR   Ar  224   4.952   3.390   6.397
    1   AR   Ar  225   6.221   3.595   1.828
    1   AR   Ar  226   3.635   3.957   2.680
    1   AR   Ar  227   7.036   4.297   1.239
    1   AR   Ar  228   5.474   6.436   1.278
    1   AR   Ar  229   5.112   4.073  -0.423
    1   AR   Ar  230   4.596   3.996   2.962
    1   AR   Ar  231   6.043   1.059   2.736
    1   AR   Ar  232   4.538   2.580   0.929
    1   AR   Ar  233   6.319   2.000   3.471
    1   AR   Ar  234   6.649   3.217   4.338
    1   AR   Ar  235   6.894   2.229   4.527
    1   AR   Ar  236   5.898   5.110   5.116
    1   AR   Ar  237   5.505   3.512   5.548
    1   AR   Ar  238   4.626   4.763   5.652
    1   AR   Ar  239   6.695   4.287   8.968
    1   AR   Ar  240   7.043   3.236   6.456
    1   AR   Ar  241   1.048   6.691  -0.997
    1   AR   Ar  242   5.149   4.808   0.406
    1   AR   Ar  243   5.668   4.472   2.639
    1   AR   Ar  244   0.957   5.422  -0.520
    1   AR   Ar  245   5.198   0.439   0.650
    1   AR   Ar  246   5.885   5.491   0.810
    1   AR   Ar  247   4.789   4.338   1.390
    1   AR   Ar  248   5.426   5.539  -0.318
    1   AR   Ar  249   4.239   5.590   2.159
    1   AR   Ar  250   5.514   5.893   4.508
    1   AR   Ar  251   5.858   4.712   3.802
    1   AR   Ar  252   4.746   5.209   3.168
    1   AR   Ar  253   6.088   3.788   6.366
    1   AR   Ar  254   2.034   5.488   8.561
    1   AR   Ar  255   4.741   2.755   7.239
    1   AR   Ar  256   0.090   6.153   3.728
    7.12000  7.12000 12.00000
Argon-slab step 2850
  256
    1   AR   Ar    1   6.496   1.166  -1.188
    1   AR   Ar    2   6.861   7.080   1.100
    1   AR   Ar    3   1.472   1.205   0.233
    1   AR   Ar    4   1.331   0.520  -0.564
    1   AR   Ar    5   0.150   6.109   0.218
    1   AR   Ar    6   0.189   0.729   2.491
    1   AR   Ar    7   6.405   3.955   3.325
    1   AR   Ar    8   6.014   0.430   1.608
    1   AR   Ar    9   1.249   0.255   3.211
    1   AR   Ar   10   0.663   1.053   4.240
    1   AR   Ar   11   2.165   6.443   4.190
    1   AR   Ar   12   0.827   1.432   2.943
    1   AR   Ar   13   6.722   1.158   5.106
    1   AR   Ar   14   0.896   1.861   7.023
    1   AR   Ar   15   5.670   0.914  10.322
    1   AR   Ar   16   1.123   0.601   5.202
    1   AR   Ar   17   6.787   2.129  -0.204
    1   AR   Ar   18   5.898   2.983  -0.549
    1   AR   Ar   19   1.579   3.036   1.744
    1   AR   Ar   20   4.980   4.205  -2.314
    1   AR   Ar   21   5.100   1.256   1.664
    1   AR   Ar   22   6.550   1.886   2.322
    1   AR   Ar   23   0.061   0.418  -0.387
    1   AR   Ar   24   0.177   2.322   1.459
    1   AR   Ar   25   6.769   0.881   3.901
    1   AR   Ar   26   5.699   1.252   4.225
    1   AR   Ar   27   1.655   1.637   4.026
    1   AR   Ar   28   0.996   2.429   4.661
    1   AR   Ar   29   5.362   2.158   6.562
    1   AR   Ar   30   1.888   1.383   4.993
    1   AR   Ar   31   1.618   7.031   7.736
    1   AR   Ar   32   1.453   2.665   5.867
    1   AR   Ar   33   1.286   4.341  -0.785
    1   AR   Ar   34   0.074   5.434   3.018
    1   AR   Ar   35   6.227   4.986   1.791
    1   AR   Ar   36   0.109   0.597  -3.731
    1   AR   Ar   37   5.655   2.612   2.515
    1   AR   Ar   38   6.940   3.886   2.505
    1   AR   Ar   39   1.111   3.207   3.001
    1   AR   Ar   40   1.946   3.841   0.929
    1   AR   Ar   41   0.594   3.258   3.927
    1   AR   Ar   42   6.566   5.768   4.592
    1   AR   Ar   43   6.900   2.273   6.233
    1   AR   Ar   44   0.796   4.185   3.035
    1   AR   Ar   45   0.350   2.911   5.345
    1   AR   Ar   46   1.151   6.449   6.124
    1   AR   Ar   47   6.081   3.350   7.473
    1   AR   Ar   48   0.514   7.009   6.830
    1   AR   Ar   49   5.803   0.831  -1.893
    1   AR   Ar   50   5.177   5.412   1.602
    1   AR   Ar   51   0.396   4.826   1.966
    1   AR   Ar   52   5.980   4.899  -1.109
    1   AR   Ar   53   5.291   6.368   2.602
    1   AR   Ar   54   7.083   6.349   2.572
    1   AR   Ar   55   6.096   5.726   2.565
    1   AR   Ar   56   0.754   0.493   0.579
    1   AR   Ar   57   5.451   3.402   3.356
    1   AR   Ar   58   0.090   4.246   4.140
    1   AR   Ar   59   1.759   5.542   6.001
    1   AR   Ar   60   1.148   6.525   3.960
    1   AR   Ar   61   6.513   4.542   5.762
    1   AR   Ar   62   0.637   4.795   5.282
    1   AR   Ar   63   2.592   0.375   6.790
    1   AR   Ar   64   0.716   6.640   4.911
    1   AR   Ar   65   3.666   7.021   0.854
    1   AR   Ar   66   0.699   1.401   1.756
    1   AR   Ar   67   2.759   6.180  -1.600
    1   AR   Ar   68   3.031   2.049  -0.880
    1   AR   Ar   69   2.535   0.940   1.192
    1   AR   Ar   70   0.437   7.033   1.931
    1   AR   Ar   71   2.832   1.580   4.027
    1   AR   Ar   72   3.337   0.410   1.709
    1   AR   Ar   73   3.148   0.458   3.655
    1   AR   Ar   74   1.965   0.464   3.936
    1   AR   Ar   75   3.666   1.244   4.501
    1   AR   Ar   76   1.449   0.807   2.401
    1   AR   Ar   77   2.235   6.518   6.029
    1   AR   Ar   78   1.471   0.342   6.485
    1   AR   Ar   79   3.819   6.167   6.323
    1   AR   Ar   80   3.498   5.485   5.599
    1   AR   Ar   81   2.646   0.565  -0.135
    1   AR   Ar   82   6.768   6.036  -0.829
    1   AR   Ar   83   0.537   2.409   0.272
    1   AR   Ar   84   0.031   3.746  -0.403
    1   AR   Ar   85   0.878   3.398   0.951
    1   AR   Ar   86   2.273   3.964  -0.363
    1   AR   Ar   87   2.018   1.908   1.510
    1   AR   Ar   88   2.291   4.733   1.796
    1   AR   Ar   89   0.425   3.131   2.128
    1   AR   Ar   90   2.438   2.609   4.994
    1   AR   Ar   91   0.773   2.296   3.588
    1   AR   Ar   92   1.161   2.291   2.426
    1   AR   Ar   93   2.204   0.547   5.618
    1   AR   Ar   94   1.444   0.012  10.069
    1   AR   Ar   95   3.754   0.612   5.867
    1   AR   Ar   96   2.549   0.104   4.707
    1   AR   Ar   97   4.743   1.955  -0.789
    1   AR   Ar   98   2.470   5.507   2.431
    1   AR   Ar   99   6.605   2.570  -1.272
    1   AR   Ar  100   2.136   2.872  -0.443
    1   AR   Ar  101   3.006   4.233   1.065
    1   AR   Ar  102   3.222   3.007   4.206
    1   AR   Ar  103   1.114   4.787   0.313
    1   AR   Ar  104   3.373   2.800  -1.571
    1   AR   Ar  105   1.767   3.329   4.099
    1   AR   Ar  106   3.364   3.347   5.185
    1   AR   Ar  107   1.063   3.832   5.040
    1   AR   Ar  108   3.738   2.095   5.212
    1   AR   Ar  109   1.805   4.355   3.887
    1   AR   Ar  110   1.168   4.714   6.494
    1   AR   Ar  111   5.281   3.806   7.727
    1   AR   Ar  112   1.411   5.659   7.088
    1   AR   Ar  113   2.184   4.848   0.493
    1   AR   Ar  114   2.700   5.848  -0.392
    1   AR   Ar  115   2.480   4.886  -0.801
    1   AR   Ar  116   6.179   6.859  -1.513
    1   AR   Ar  117   1.003   5.322   3.641
    1   AR   Ar  118   1.188   5.541   2.607
    1   AR   Ar  119   1.936   3.593   2.502
    1   AR   Ar  120   1.427   6.545   2.265
    1   AR   Ar  121   6.386   4.168   4.758
    1   AR   Ar  122   2.638   6.010   4.969
    1   AR   Ar  123   3.796   4.298   5.060
    1   AR   Ar  124   2.082   5.933   1.492
    1   AR   Ar  125   0.281   4.079   5.971
    1   AR   Ar  126   0.033   7.030   4.338
    1   AR   Ar  127   3.329   4.052   6.063
    1   AR   Ar  128   2.710   5.522   6.349
    1   AR   Ar  129   2.304   6.783   2.904
    1   AR   Ar  130   5.124   2.753  -1.418
    1   AR   Ar  131   4.647   1.003  -0.232
    1   AR   Ar  132   0.504   1.346  -0.243
    1   AR   Ar  133   4.136   6.654   2.513
    1   AR   Ar  134   4.665   1.375   3.944
    1   AR   Ar  135   5.234   0.413   2.981
    1   AR   Ar  136   5.106   0.178   1.932
    1   AR   Ar  137   2.345   5.421   3.784
    1   AR   Ar  138   4.693   2.233   4.811
    1   AR   Ar  139   5.484   2.503   5.502
    1   AR   Ar  140   3.587   0.218   4.811
    1   AR   Ar  141   3.763   5.793   4.684
    1   AR   Ar  142   3.141   6.935   5.689
    1   AR   Ar  143   0.142   6.761   5.756
    1   AR   Ar  144   5.608   1.046   6.182
    1   AR   Ar  145   4.175   4.283   0.498
    1   AR   Ar  146   4.463   2.315   1.920
    1   AR   Ar  147   5.359   1.741  -2.045
    1   AR   Ar  148   3.442   4.711  -1.193
    1   AR   Ar  149   3.518   2.156   1.248
    1   AR   Ar  150   2.106   1.908   2.635
    1   AR   Ar  151   2.497   2.487   3.577
    1   AR   Ar  152   3.302   3.533   0.123
    1   AR   Ar  153   4.107   0.232   3.345
    1   AR   Ar  154   4.045   2.295   3.889
    1   AR   Ar  155   6.574   0.357   6.931
    1   AR   Ar  156   3.823   3.938   3.895
    1   AR   Ar  157   2.478   3.323   6.338
    1   AR   Ar  158   0.957   3.492   6.686
    1   AR   Ar  159   4.522   2.265   5.938
    1   AR   Ar  160   2.805   1.642   5.511
    1   AR   Ar  161   5.313   3.037   1.547
    1   AR   Ar  162   4.328   6.265  -0.546
    1   AR   Ar  163   5.533   3.338   0.334
    1   AR   Ar  164   3.205   5.597   1.734
    1   AR   Ar  165   3.899   3.441   1.174
    1   AR   Ar  166   2.618   4.106   4.723
    1   AR   Ar  167   4.142   0.980   2.027
    1   AR   Ar  168   4.678   3.045  -0.300
    1   AR   Ar  169   2.982   2.890   1.684
    1   AR   Ar  170   2.406   4.531   5.817
    1   AR   Ar  171   5.412   3.877   4.257
    1   AR   Ar  172   4.875   4.793   4.646
    1   AR   Ar  173   2.521   3.429   7.470
    1   AR   Ar  174   2.658   4.588   7.076
    1   AR   Ar  175   3.014   2.525   5.895
    1   AR   Ar  176   3.759   3.049   6.256
    1   AR   Ar  177   6.304   4.765   0.077
    1   AR   Ar  178   3.448   5.093   0.024
    1   AR   Ar  179   4.303   5.366   0.963
    1   AR   Ar  180   0.966   1.981  -2.964
    1   AR   Ar  181   0.921   5.989   1.537
    1   AR   Ar  182   2.847   0.767   2.651
    1   AR   Ar  183   3.594   5.110   2.892
    1   AR   Ar  184   4.228   6.497   1.448
    1   AR   Ar  185   1.861   4.999   4.886
    1   AR   Ar  186   3.812   4.928   4.008
    1   AR   Ar  187   3.151   6.186   3.670
    1   AR   Ar  188   2.916   6.561   1.584
    1   AR   Ar  189   3.633   2.514   7.341
    1   AR   Ar  190   4.385   6.732   4.635
    1   AR   Ar  191   3.526   5.255   7.128
    1   AR   Ar  192   4.881   5.801   5.445
    1   AR   Ar  193   1.225   6.138   0.211
    1   AR   Ar  194   4.067   3.945  -0.911
    1   AR   Ar  195   5.680   0.705  -0.594
    1   AR   Ar  196   4.872   7.094  -0.252
    1   AR   Ar  197   4.361   1.502   0.803
    1   AR   Ar  198   6.793   1.173   0.456
    1   AR   Ar  199   4.543   1.691   2.937
    1   AR   Ar  200   5.769   1.937   0.241
    1   AR   Ar  201   4.989   6.717   3.678
    1   AR   Ar  202   5.639   2.830   4.382
    1   AR   Ar  203   6.078   6.591   3.908
    1   AR   Ar  204   5.378   0.094   4.508
    1   AR   Ar  205   6.303   7.062   2.897
    1   AR   Ar  206   4.579   0.954   5.031
    1   AR   Ar  207   0.725   1.168   6.177
    1   AR   Ar  208   0.204   7.084   3.314
    1   AR   Ar  209   5.470   3.125  -2.369
    1   AR   Ar  210   3.501   0.958   0.565
    1   AR   Ar  211   6.657   2.987   0.521
    1   AR   Ar  212   6.232   3.640  -1.483
    1   AR   Ar  213   3.199   1.807   2.437
    1   AR   Ar  214   4.506   2.861   2.960
    1   AR   Ar  215   5.948   2.077   1.430
    1   AR   Ar  216   1.074   4.018   1.942
    1   AR   Ar  217   4.581   3.107   4.139
    1   AR   Ar  218   4.346   3.289   5.343
    1   AR   Ar  219   5.148   2.325   3.603
    1   AR   Ar  220   4.495   3.564   1.997
    1   AR   Ar  221   6.176   6.622   5.234
    1   AR   Ar  222   4.644   1.519   7.028
    1   AR   Ar  223   0.393   0.802   7.202
    1   AR   Ar  224   4.956   3.416   6.383
    1   AR   Ar  225   6.238   3.583   1.865
    1   AR   Ar  226   3.644   3.949   2.703
    1   AR   Ar  227   7.021   4.282   1.249
    1   AR   Ar  228   5.489   6.433   1.296
    1   AR   Ar  229   5.129   4.085  -0.437
    1   AR   Ar  230   4.615   3.996   2.946
    1   AR   Ar  231   6.023   1.056   2.747
    1   AR   Ar  232   4.539   2.543   0.949
    1   AR   Ar  233   6.326   2.005   3.458
    1   AR   Ar  234   6.656   3.241   4.365
    1   AR   Ar  235   6.913   2.210   4.543
    1   AR   Ar  236   5.876   5.121   5.129
    1   AR   Ar  237   5.488   3.493   5.549
    1   AR   Ar  238   4.597   4.755   5.663
    1   AR   Ar  239   6.672   4.295   8.983
    1   AR   Ar  240   7.043   3.235   6.465
    1   AR   Ar  241   1.051   6.697  -0.965
    1   AR   Ar  242   5.143   4.813   0.392
    1   AR   Ar  243   5.644   4.490   2.648
    1   AR   Ar  244   0.956   5.388  -0.522
    1   AR   Ar  245   5.157   0.438   0.642
    1   AR   Ar  246   5.848   5.517   0.804
    1   AR   Ar  247   4.795   4.343   1.386
    1   AR   Ar  248   5.438   5.538  -0.296
    1   AR   Ar  249   4.234   5.639   2.153
    1   AR   Ar  250   5.540   5.885   4.480
    1   AR   Ar  251   5.852   4.728   3.793
    1   AR   Ar  252   4.765   5.220   3.154
    1   AR   Ar  253   6.132   3.809   6.372
    1   AR   Ar  254   2.006   5.473   8.566
    1   AR   Ar  255   4.757   2.777   7.229
    1   AR   Ar  256   0.071   6.149   3.729
    7.12000  7.12000 12.00000
Argon-slab step 2855
  256
    1   AR   Ar    1   6.492   1.151  -1.183
    1   AR   Ar    2   6.850   7.084   1.109
    1   AR   Ar    3   1.476   1.181   0.260
    1   AR   Ar    4   1.315   0.531  -0.601
    1   AR   Ar    5   0.156   6.098   0.244
    1   AR   Ar    6   0.178   0.742   2.463
    1   AR   Ar    7   6.406   3.975   3.290
    1   AR   Ar    8   6.040   0.423   1.609
    1   AR   Ar    9   1.270   0.263   3.220
    1   AR   Ar   10   0.661   1.044   4.225
    1   AR   Ar   11   2.145   6.445   4.195
    1   AR   Ar   12   0.842   1.436   2.948
    1   AR   Ar   13   6.721   1.121   5.119
    1   AR   Ar   14   0.887   1.877   7.052
    1   AR   Ar   15   5.651   0.921  10.343
    1   AR   Ar   16   1.131   0.610   5.212
    1   AR   Ar   17   6.780   2.122  -0.162
    1   AR   Ar   18   5.927   3.019  -0.559
    1   AR   Ar   19   1.595   3.043   1.713
    1   AR   Ar   20   4.983   4.202  -2.340
    1   AR   Ar   21   5.072   1.286   1.646
    1   AR   Ar   22   6.559   1.897   2.352
    1   AR   Ar   23   0.032   0.423  -0.404
    1   AR   Ar   24   0.208   2.314   1.459
    1   AR   Ar   25   6.773   0.899   3.893
    1   AR   Ar   26   5.657   1.259   4.218
    1   AR   Ar   27   1.657   1.628   4.043
    1   AR   Ar   28   0.938   2.428   4.627
    1   AR   Ar   29   5.353   2.164   6.559
    1   AR   Ar   30   1.925   1.385   4.998
    1   AR   Ar   31   1.637   7.018   7.719
    1   AR   Ar   32   1.444   2.685   5.824
    1   AR   Ar   33   1.279   4.365  -0.773
    1   AR   Ar   34   0.080   5.426   3.014
    1   AR   Ar   35   6.220   4.985   1.789
    1   AR   Ar   36   0.090   0.592  -3.740
    1   AR   Ar   37   5.627   2.595   2.514
    1   AR   Ar   38   6.968   3.897   2.526
    1   AR   Ar   39   1.088   3.197   2.990
    1   AR   Ar   40   1.972   3.805   0.880
    1   AR   Ar   41   0.605   3.246   3.904
    1   AR   Ar   42   6.558   5.762   4.583
    1   AR   Ar   43   6.912   2.279   6.221
    1   AR   Ar   44   0.798   4.161   3.080
    1   AR   Ar   45   0.345   2.929   5.372
    1   AR   Ar   46   1.172   6.452   6.121
    1   AR   Ar   47   6.072   3.358   7.463
    1   AR   Ar   48   0.505   6.993   6.845
    1   AR   Ar   49   5.792   0.843  -1.875
    1   AR   Ar   50   5.149   5.472   1.629
    1   AR   Ar   51   0.391   4.844   1.958
    1   AR   Ar   52   5.947   4.887  -1.093
    1   AR   Ar   53   5.313   6.361   2.573
    1   AR   Ar   54   7.096   6.333   2.604
    1   AR   Ar   55   6.104   5.741   2.545
    1   AR   Ar   56   0.760   0.531   0.583
    1   AR   Ar   57   5.448   3.428   3.351
    1   AR   Ar   58   0.087   4.220   4.128
    1   AR   Ar   59   1.753   5.542   6.005
    1   AR   Ar   60   1.186   6.500   3.954
    1   AR   Ar   61   6.484   4.578   5.773
    1   AR   Ar   62   0.652   4.794   5.253
    1   AR   Ar   63   2.549   0.406   6.788
    1   AR   Ar   64   0.730   6.661   4.885
    1   AR   Ar   65   3.679   7.048   0.845
    1   AR   Ar   66   0.707   1.406   1.754
    1   AR   Ar   67   2.785   6.162  -1.566
    1   AR   Ar   68   3.019   2.073  -0.873
    1   AR   Ar   69   2.537   0.919   1.192
    1   AR   Ar   70   0.468   7.026   1.932
    1   AR   Ar   71   2.826   1.579   4.024
    1   AR   Ar   72   3.340   0.421   1.702
    1   AR   Ar   73   3.200   0.496   3.670
    1   AR   Ar   74   1.972   0.444   3.927
    1   AR   Ar   75   3.677   1.190   4.485
    1   AR   Ar   76   1.444   0.806   2.415
    1   AR   Ar   77   2.227   6.484   6.040
    1   AR   Ar   78   1.473   0.334   6.461
    1   AR   Ar   79   3.826   6.154   6.299
    1   AR   Ar   80   3.523   5.470   5.632
    1   AR   Ar   81   2.653   0.534  -0.114
    1   AR   Ar   82   6.753   6.059  -0.844
    1   AR   Ar   83   0.514   2.428   0.257
    1   AR   Ar   84   0.021   3.734  -0.410
    1   AR   Ar   85   0.870   3.372   0.982
    1   AR   Ar   86   2.272   3.964  -0.362
    1   AR   Ar   87   2.013   1.913   1.533
    1   AR   Ar   88   2.299   4.740   1.760
    1   AR   Ar   89   0.438   3.145   2.148
    1   AR   Ar   90   2.443   2.614   5.009
    1   AR   Ar   91   0.785   2.291   3.625
    1   AR   Ar   92   1.150   2.327   2.438
    1   AR   Ar   93   2.193   0.472   5.632
    1   AR   Ar   94   1.427   0.001  10.083
    1   AR   Ar   95   3.750   0.642   5.847
    1   AR   Ar   96   2.561   0.091   4.696
    1   AR   Ar   97   4.744   1.938  -0.807
    1   AR   Ar   98   2.457   5.500   2.435
    1   AR   Ar   99   6.589   2.588  -1.313
    1   AR   Ar  100   2.109   2.895  -0.485
    1   AR   Ar  101   3.044   4.261   1.036
    1   AR   Ar  102   3.235   2.999   4.212
    1   AR   Ar  103   1.113   4.810   0.329
    1   AR   Ar  104   3.355   2.799  -1.561
    1   AR   Ar  105   1.732   3.322   4.110
    1   AR   Ar  106   3.386   3.352   5.176
    1   AR   Ar  107   1.056   3.831   5.015
    1   AR   Ar  108   3.774   2.135   5.221
    1   AR   Ar  109   1.818   4.395   3.923
    1   AR   Ar  110   1.154   4.692   6.512
    1   AR   Ar  111   5.282   3.823   7.742
    1   AR   Ar  112   1.429   5.676   7.096
    1   AR   Ar  113   2.199   4.810   0.497
    1   AR   Ar  114   2.706   5.827  -0.352
    1   AR   Ar  115   2.461   4.907  -0.794
    1   AR   Ar  116   6.166   6.905  -1.508
    1   AR   Ar  117   1.028   5.306   3.609
    1   AR   Ar  118   1.201   5.540   2.604
    1   AR   Ar  119   1.959   3.583   2.520
    1   AR   Ar  120   1.430   6.549   2.255
    1   AR   Ar  121   6.392   4.155   4.760
    1   AR   Ar  122   2.654   6.000   4.948
    1   AR   Ar  123   3.797   4.314   5.051
    1   AR   Ar  124   2.081   5.944   1.502
    1   AR   Ar  125   0.282   4.056   5.991
    1   AR   Ar  126   0.041   7.043   4.376
    1   AR   Ar  127   3.296   4.047   6.065
    1   AR   Ar  128   2.728   5.537   6.389
    1   AR   Ar  129   2.329   6.762   2.895
    1   AR   Ar  130   5.110   2.750  -1.431
    1   AR   Ar  131   4.658   0.995  -0.213
    1   AR   Ar  132   0.545   1.316  -0.209
    1   AR   Ar  133   4.128   6.647   2.526
    1   AR   Ar  134   4.665   1.377   3.946
    1   AR   Ar  135   5.209   0.415   2.958
    1   AR   Ar  136   5.077   0.155   1.933
    1   AR   Ar  137   2.375   5.451   3.801
    1   AR   Ar  138   4.700   2.208   4.802
    1   AR   Ar  139   5.488   2.471   5.503
    1   AR   Ar  140   3.543   0.234   4.827
    1   AR   Ar  141   3.749   5.784   4.650
    1   AR   Ar  142   3.087   6.932   5.696
    1   AR   Ar  143   0.177   6.780   5.753
    1   AR   Ar  144   5.629   1.055   6.160
    1   AR   Ar  145   4.194   4.308   0.474
    1   AR   Ar  146   4.416   2.325   1.945
    1   AR   Ar  147   5.346   1.742  -2.027
    1   AR   Ar  148   3.437   4.689  -1.225
    1   AR   Ar  149   3.507   2.140   1.279
    1   AR   Ar  150   2.091   1.898   2.638
    1   AR   Ar  151   2.491   2.465   3.604
    1   AR   Ar  152   3.278   3.551   0.102
    1   AR   Ar  153   4.135   0.214   3.344
    1   AR   Ar  154   4.044   2.299   3.854
    1   AR   Ar  155   6.565   0.369   6.939
    1   AR   Ar  156   3.807   3.956   3.874
    1   AR   Ar  157   2.486   3.354   6.347
    1   AR   Ar  158   0.940   3.460   6.712
    1   AR   Ar  159   4.504   2.263   5.907
    1   AR   Ar  160   2.802   1.675   5.525
    1   AR   Ar  161   5.277   3.001   1.530
    1   AR   Ar  162   4.325   6.252  -0.523
    1   AR   Ar  163   5.526   3.339   0.349
    1   AR   Ar  164   3.222   5.577   1.774
    1   AR   Ar  165   3.897   3.399   1.177
    1   AR   Ar  166   2.618   4.092   4.711
    1   AR   Ar  167   4.184   0.986   2.017
    1   AR   Ar  168   4.712   3.056  -0.337
    1   AR   Ar  169   3.019   2.914   1.688
    1   AR   Ar  170   2.420   4.496   5.793
    1   AR   Ar  171   5.461   3.846   4.259
    1   AR   Ar  172   4.883   4.819   4.651
    1   AR   Ar  173   2.532   3.408   7.457
    1   AR   Ar  174   2.669   4.590   7.072
    1   AR   Ar  175   3.001   2.533   5.891
    1   AR   Ar  176   3.754   3.039   6.275
    1   AR   Ar  177   6.302   4.739   0.065
    1   AR   Ar  178   3.442   5.078  -0.003
    1   AR   Ar  179   4.299   5.327   0.950
    1   AR   Ar  180   0.942   1.972  -2.993
    1   AR   Ar  181   0.927   5.965   1.536
    1   AR   Ar  182   2.868   0.758   2.636
    1   AR   Ar  183   3.578   5.114   2.892
    1   AR   Ar  184   4.221   6.510   1.481
    1   AR   Ar  185   1.887   5.008   4.897
    1   AR   Ar  186   3.789   4.955   4.043
    1   AR   Ar  187   3.161   6.210   3.658
    1   AR   Ar  188   2.946   6.578   1.558
    1   AR   Ar  189   3.659   2.538   7.333
    1   AR   Ar  190   4.368   6.708   4.637
    1   AR   Ar  191   3.494   5.269   7.142
    1   AR   Ar  192   4.895   5.783   5.460
    1   AR   Ar  193   1.253   6.125   0.195
    1   AR   Ar  194   4.034   3.965  -0.878
    1   AR   Ar  195   5.696   0.697  -0.601
    1   AR   Ar  196   4.875   7.086  -0.263
    1   AR   Ar  197   4.345   1.515   0.816
    1   AR   Ar  198   6.793   1.183   0.467
    1   AR   Ar  199   4.520   1.660   2.938
    1   AR   Ar  200   5.771   1.945   0.230
    1   AR   Ar  201   4.984   6.704   3.645
    1   AR   Ar  202   5.646   2.842   4.368
    1   AR   Ar  203   6.094   6.587   3.886
    1   AR   Ar  204   5.381   0.075   4.545
    1   AR   Ar  205   6.298   7.048   2.918
    1   AR   Ar  206   4.552   0.937   5.023
    1   AR   Ar  207   0.736   1.179   6.198
    1   AR   Ar  208   0.199   7.076   3.317
    1   AR   Ar  209   5.450   3.110  -2.340
    1   AR   Ar  210   3.509   0.936   0.541
    1   AR   Ar  211   6.674   2.983   0.492
    1   AR   Ar  212   6.207   3.626  -1.498
    1   AR   Ar  213   3.194   1.826   2.403
    1   AR   Ar  214   4.484   2.813   2.960
    1   AR   Ar  215   5.946   2.120   1.403
    1   AR   Ar  216   1.100   4.015   1.931
    1   AR   Ar  217   4.610   3.164   4.169
    1   AR   Ar  218   4.371   3.289   5.362
    1   AR   Ar  219   5.134   2.309   3.615
    1   AR   Ar  220   4.464   3.570   1.996
    1   AR   Ar  221   6.177   6.612   5.200
    1   AR   Ar  222   4.612   1.520   6.979
    1   AR   Ar  223   0.380   0.794   7.191
    1   AR   Ar  224   4.955   3.440   6.375
    1   AR   Ar  225   6.249   3.569   1.896
    1   AR   Ar  226   3.645   3.941   2.726
    1   AR   Ar  227   7.002   4.263   1.255
    1   AR   Ar  228   5.504   6.433   1.315
    1   AR   Ar  229   5.145   4.097  -0.452
    1   AR   Ar  230   4.643   3.999   2.936
    1   AR   Ar  231   6.006   1.053   2.758
    1   AR   Ar  232   4.542   2.511   0.959
    1   AR   Ar  233   6.332   2.009   3.446
    1   AR   Ar  234   6.664   3.263   4.389
    1   AR   Ar  235   6.934   2.190   4.558
    1   AR   Ar  236   5.850   5.130   5.141
    1   AR   Ar  237   5.476   3.486   5.538
    1   AR   Ar  238   4.566   4.746   5.677
    1   AR   Ar  239   6.640   4.277   8.948
    1   AR   Ar  240   7.044   3.239   6.477
    1   AR   Ar  241   1.053   6.700  -0.932
    1   AR   Ar  242   5.135   4.814   0.380
    1   AR   Ar  243   5.621   4.508   2.657
    1   AR   Ar  244   0.953   5.356  -0.528
    1   AR   Ar  245   5.118   0.440   0.640
    1   AR   Ar  246   5.814   5.544   0.795
    1   AR   Ar  247   4.804   4.352   1.379
    1   AR   Ar  248   5.451   5.539  -0.276
    1   AR   Ar  249   4.230   5.686   2.148
    1   AR   Ar  250   5.558   5.878   4.451
    1   AR   Ar  251   5.845   4.748   3.786
    1   AR   Ar  252   4.785   5.231   3.139
    1   AR   Ar  253   6.174   3.826   6.381
    1   AR   Ar  254   1.983   5.452   8.574
    1   AR   Ar  255   4.772   2.798   7.220
    1   AR   Ar  256   0.052   6.144   3.735
    7.12000  7.12000 12.00000
Argon-slab step 2860
  256
    1   AR   Ar    1   6.490   1.173  -1.178
    1   AR   Ar    2   6.812   7.096   1.105
    1   AR   Ar    3   1.489   1.162   0.288
    1   AR   Ar    4   1.299   0.545  -0.636
    1   AR   Ar    5   0.163   6.088   0.269
    1   AR   Ar    6   0.164   0.757   2.438
    1   AR   Ar    7   6.397   3.996   3.273
    1   AR   Ar    8   6.065   0.418   1.612
    1   AR   Ar    9   1.285   0.264   3.233
    1   AR   Ar   10   0.662   1.036   4.211
    1   AR   Ar   11   2.130   6.444   4.193
    1   AR   Ar   12   0.855   1.441   2.959
    1   AR   Ar   13   6.721   1.085   5.131
    1   AR   Ar   14   0.878   1.894   7.081
    1   AR   Ar   15   5.632   0.928  10.365
    1   AR   Ar   16   1.143   0.610   5.214
    1   AR   Ar   17   6.765   2.111  -0.125
    1   AR   Ar   18   5.956   3.054  -0.570
    1   AR   Ar   19   1.611   3.047   1.680
    1   AR   Ar   20   4.987   4.197  -2.366
    1   AR   Ar   21   5.052   1.320   1.625
    1   AR   Ar   22   6.545   1.907   2.360
    1   AR   Ar   23   0.001   0.425  -0.421
    1   AR   Ar   24   0.238   2.308   1.459
    1   AR   Ar   25   6.796   0.913   3.885
    1   AR   Ar   26   5.621   1.265   4.212
    1   AR   Ar   27   1.656   1.622   4.053
    1   AR   Ar   28   0.884   2.426   4.598
    1   AR   Ar   29   5.348   2.171   6.555
    1   AR   Ar   30   1.963   1.386   5.007
    1   AR   Ar   31   1.655   7.006   7.700
    1   AR   Ar   32   1.435   2.706   5.781
    1   AR   Ar   33   1.274   4.387  -0.760
    1   AR   Ar   34   0.087   5.405   3.008
    1   AR   Ar   35   6.213   4.982   1.785
    1   AR   Ar   36   0.070   0.586  -3.749
    1   AR   Ar   37   5.599   2.577   2.513
    1   AR   Ar   38   7.012   3.913   2.534
    1   AR   Ar   39   1.068   3.182   2.979
    1   AR   Ar   40   1.997   3.769   0.832
    1   AR   Ar   41   0.612   3.241   3.888
    1   AR   Ar   42   6.556   5.755   4.573
    1   AR   Ar   43   6.923   2.276   6.205
    1   AR   Ar   44   0.799   4.144   3.126
    1   AR   Ar   45   0.338   2.948   5.401
    1   AR   Ar   46   1.164   6.428   6.101
    1   AR   Ar   47   6.078   3.355   7.447
    1   AR   Ar   48   0.498   6.968   6.856
    1   AR   Ar   49   5.785   0.833  -1.854
    1   AR   Ar   50   5.122   5.528   1.659
    1   AR   Ar   51   0.387   4.866   1.955
    1   AR   Ar   52   5.914   4.875  -1.075
    1   AR   Ar   53   5.328   6.361   2.543
    1   AR   Ar   54   7.107   6.321   2.630
    1   AR   Ar   55   6.118   5.751   2.525
    1   AR   Ar   56   0.759   0.564   0.589
    1   AR   Ar   57   5.444   3.448   3.338
    1   AR   Ar   58   0.089   4.195   4.112
    1   AR   Ar   59   1.745   5.537   6.006
    1   AR   Ar   60   1.213   6.475   3.941
    1   AR   Ar   61   6.458   4.617   5.781
    1   AR   Ar   62   0.668   4.796   5.223
    1   AR   Ar   63   2.506   0.435   6.784
    1   AR   Ar   64   0.765   6.673   4.873
    1   AR   Ar   65   3.689   7.077   0.826
    1   AR   Ar   66   0.707   1.411   1.744
    1   AR   Ar   67   2.801   6.151  -1.556
    1   AR   Ar   68   3.007   2.096  -0.863
    1   AR   Ar   69   2.538   0.901   1.191
    1   AR   Ar   70   0.503   7.016   1.930
    1   AR   Ar   71   2.818   1.574   4.021
    1   AR   Ar   72   3.343   0.436   1.698
    1   AR   Ar   73   3.246   0.535   3.690
    1   AR   Ar   74   1.983   0.427   3.919
    1   AR   Ar   75   3.689   1.142   4.467
    1   AR   Ar   76   1.445   0.808   2.417
    1   AR   Ar   77   2.218   6.453   6.052
    1   AR   Ar   78   1.474   0.326   6.437
    1   AR   Ar   79   3.834   6.148   6.279
    1   AR   Ar   80   3.544   5.446   5.661
    1   AR   Ar   81   2.660   0.504  -0.091
    1   AR   Ar   82   6.748   6.072  -0.854
    1   AR   Ar   83   0.496   2.440   0.242
    1   AR   Ar   84   0.010   3.721  -0.416
    1   AR   Ar   85   0.859   3.347   1.014
    1   AR   Ar   86   2.270   3.964  -0.357
    1   AR   Ar   87   2.004   1.923   1.549
    1   AR   Ar   88   2.306   4.743   1.718
    1   AR   Ar   89   0.458   3.134   2.155
    1   AR   Ar   90   2.447   2.619   5.019
    1   AR   Ar   91   0.797   2.278   3.653
    1   AR   Ar   92   1.137   2.361   2.445
    1   AR   Ar   93   2.182   0.399   5.648
    1   AR   Ar   94   1.409   7.111  10.097
    1   AR   Ar   95   3.747   0.675   5.826
    1   AR   Ar   96   2.572   0.080   4.691
    1   AR   Ar   97   4.746   1.921  -0.824
    1   AR   Ar   98   2.440   5.496   2.450
    1   AR   Ar   99   6.573   2.603  -1.353
    1   AR   Ar  100   2.083   2.918  -0.527
    1   AR   Ar  101   3.083   4.288   1.005
    1   AR   Ar  102   3.249   2.990   4.215
    1   AR   Ar  103   1.111   4.820   0.382
    1   AR   Ar  104   3.338   2.801  -1.553
    1   AR   Ar  105   1.696   3.314   4.121
    1   AR   Ar  106   3.398   3.356   5.170
    1   AR   Ar  107   1.049   3.828   4.989
    1   AR   Ar  108   3.799   2.175   5.225
    1   AR   Ar  109   1.830   4.437   3.958
    1   AR   Ar  110   1.141   4.670   6.529
    1   AR   Ar  111   5.266   3.849   7.760
    1   AR   Ar  112   1.447   5.695   7.102
    1   AR   Ar  113   2.215   4.772   0.499
    1   AR   Ar  114   2.704   5.807  -0.318
    1   AR   Ar  115   2.429   4.941  -0.784
    1   AR   Ar  116   6.153   6.952  -1.501
    1   AR   Ar  117   1.052   5.290   3.580
    1   AR   Ar  118   1.214   5.538   2.597
    1   AR   Ar  119   1.985   3.576   2.540
    1   AR   Ar  120   1.435   6.556   2.248
    1   AR   Ar  121   6.392   4.150   4.768
    1   AR   Ar  122   2.674   5.987   4.933
    1   AR   Ar  123   3.806   4.324   5.051
    1   AR   Ar  124   2.078   5.954   1.513
    1   AR   Ar  125   0.288   4.036   6.007
    1   AR   Ar  126   0.027   7.068   4.401
    1   AR   Ar  127   3.269   4.040   6.067
    1   AR   Ar  128   2.748   5.553   6.431
    1   AR   Ar  129   2.354   6.742   2.886
    1   AR   Ar  130   5.096   2.746  -1.439
    1   AR   Ar  131   4.668   0.991  -0.193
    1   AR   Ar  132   0.583   1.289  -0.177
    1   AR   Ar  133   4.122   6.644   2.541
    1   AR   Ar  134   4.660   1.378   3.952
    1   AR   Ar  135   5.182   0.416   2.937
    1   AR   Ar  136   5.044   0.130   1.933
    1   AR   Ar  137   2.405   5.479   3.819
    1   AR   Ar  138   4.713   2.183   4.787
    1   AR   Ar  139   5.466   2.468   5.498
    1   AR   Ar  140   3.507   0.248   4.842
    1   AR   Ar  141   3.736   5.781   4.617
    1   AR   Ar  142   3.036   6.927   5.702
    1   AR   Ar  143   0.209   6.802   5.753
    1   AR   Ar  144   5.650   1.065   6.137
    1   AR   Ar  145   4.209   4.331   0.449
    1   AR   Ar  146   4.368   2.333   1.977
    1   AR   Ar  147   5.331   1.750  -2.009
    1   AR   Ar  148   3.426   4.674  -1.260
    1   AR   Ar  149   3.501   2.116   1.307
    1   AR   Ar  150   2.078   1.886   2.643
    1   AR   Ar  151   2.482   2.446   3.629
    1   AR   Ar  152   3.255   3.571   0.081
    1   AR   Ar  153   4.168   0.198   3.342
    1   AR   Ar  154   4.040   2.300   3.820
    1   AR   Ar  155   6.554   0.381   6.944
    1   AR   Ar  156   3.793   3.967   3.852
    1   AR   Ar  157   2.494   3.386   6.355
    1   AR   Ar  158   0.926   3.429   6.737
    1   AR   Ar  159   4.489   2.265   5.882
    1   AR   Ar  160   2.798   1.687   5.532
    1   AR   Ar  161   5.243   2.967   1.514
    1   AR   Ar  162   4.320   6.234  -0.500
    1   AR   Ar  163   5.517   3.341   0.369
    1   AR   Ar  164   3.244   5.556   1.809
    1   AR   Ar  165   3.892   3.356   1.174
    1   AR   Ar  166   2.618   4.078   4.699
    1   AR   Ar  167   4.221   0.992   2.011
    1   AR   Ar  168   4.745   3.067  -0.375
    1   AR   Ar  169   3.051   2.945   1.696
    1   AR   Ar  170   2.430   4.465   5.768
    1   AR   Ar  171   5.509   3.825   4.270
    1   AR   Ar  172   4.891   4.846   4.653
    1   AR   Ar  173   2.544   3.387   7.444
    1   AR   Ar  174   2.673   4.594   7.072
    1   AR   Ar  175   2.986   2.552   5.893
    1   AR   Ar  176   3.759   3.035   6.298
    1   AR   Ar  177   6.298   4.713   0.053
    1   AR   Ar  178   3.436   5.061  -0.029
    1   AR   Ar  179   4.294   5.289   0.939
    1   AR   Ar  180   0.918   1.962  -3.023
    1   AR   Ar  181   0.937   5.944   1.545
    1   AR   Ar  182   2.889   0.749   2.620
    1   AR   Ar  183   3.561   5.117   2.891
    1   AR   Ar  184   4.222   6.520   1.516
    1   AR   Ar  185   1.914   5.017   4.908
    1   AR   Ar  186   3.767   4.985   4.075
    1   AR   Ar  187   3.172   6.235   3.646
    1   AR   Ar  188   2.956   6.585   1.545
    1   AR   Ar  189   3.686   2.563   7.323
    1   AR   Ar  190   4.355   6.682   4.637
    1   AR   Ar  191   3.464   5.286   7.155
    1   AR   Ar  192   4.909   5.765   5.472
    1   AR   Ar  193   1.281   6.111   0.179
    1   AR   Ar  194   4.006   3.979  -0.840
    1   AR   Ar  195   5.710   0.689  -0.606
    1   AR   Ar  196   4.868   7.071  -0.256
    1   AR   Ar  197   4.330   1.523   0.830
    1   AR   Ar  198   6.792   1.193   0.479
    1   AR   Ar  199   4.496   1.629   2.935
    1   AR   Ar  200   5.772   1.952   0.219
    1   AR   Ar  201   4.980   6.690   3.610
    1   AR   Ar  202   5.655   2.848   4.357
    1   AR   Ar  203   6.112   6.585   3.863
    1   AR   Ar  204   5.384   0.057   4.582
    1   AR   Ar  205   6.292   7.035   2.937
    1   AR   Ar  206   4.527   0.920   5.016
    1   AR   Ar  207   0.748   1.189   6.218
    1   AR   Ar  208   0.191   7.076   3.321
    1   AR   Ar  209   5.430   3.098  -2.319
    1   AR   Ar  210   3.514   0.915   0.517
    1   AR   Ar  211   6.689   2.980   0.463
    1   AR   Ar  212   6.181   3.611  -1.513
    1   AR   Ar  213   3.186   1.840   2.358
    1   AR   Ar  214   4.461   2.768   2.957
    1   AR   Ar  215   5.944   2.162   1.376
    1   AR   Ar  216   1.127   4.011   1.920
    1   AR   Ar  217   4.638   3.223   4.198
    1   AR   Ar  218   4.404   3.288   5.382
    1   AR   Ar  219   5.120   2.333   3.651
    1   AR   Ar  220   4.435   3.572   2.002
    1   AR   Ar  221   6.177   6.602   5.164
    1   AR   Ar  222   4.607   1.531   6.985
    1   AR   Ar  223   0.370   0.797   7.183
    1   AR   Ar  224   4.948   3.463   6.375
    1   AR   Ar  225   6.254   3.553   1.922
    1   AR   Ar  226   3.641   3.932   2.746
    1   AR   Ar  227   6.982   4.240   1.260
    1   AR   Ar  228   5.518   6.436   1.335
    1   AR   Ar  229   5.162   4.108  -0.467
    1   AR   Ar  230   4.667   3.991   2.946
    1   AR   Ar  231   5.992   1.051   2.768
    1   AR   Ar  232   4.545   2.484   0.961
    1   AR   Ar  233   6.337   2.013   3.435
    1   AR   Ar  234   6.658   3.275   4.395
    1   AR   Ar  235   6.955   2.169   4.572
    1   AR   Ar  236   5.822   5.138   5.153
    1   AR   Ar  237   5.471   3.487   5.515
    1   AR   Ar  238   4.536   4.737   5.692
    1   AR   Ar  239   6.608   4.259   8.913
    1   AR   Ar  240   7.044   3.243   6.494
    1   AR   Ar  241   1.053   6.698  -0.898
    1   AR   Ar  242   5.127   4.811   0.373
    1   AR   Ar  243   5.598   4.525   2.666
    1   AR   Ar  244   0.949   5.330  -0.537
    1   AR   Ar  245   5.079   0.444   0.643
    1   AR   Ar  246   5.783   5.569   0.785
    1   AR   Ar  247   4.814   4.365   1.372
    1   AR   Ar  248   5.467   5.543  -0.259
    1   AR   Ar  249   4.227   5.727   2.144
    1   AR   Ar  250   5.566   5.873   4.422
    1   AR   Ar  251   5.837   4.771   3.780
    1   AR   Ar  252   4.804   5.241   3.123
    1   AR   Ar  253   6.206   3.840   6.390
    1   AR   Ar  254   1.981   5.408   8.598
    1   AR   Ar  255   4.786   2.819   7.212
    1   AR   Ar  256   0.033   6.140   3.748
    7.12000  7.12000 12.00000
Argon-slab step 2865
  256
    1   AR   Ar    1   6.492   1.206  -1.170
    1   AR   Ar    2   6.782   7.104   1.097
    1   AR   Ar    3   1.515   1.150   0.316
    1   AR   Ar    4   1.284   0.563  -0.668
    1   AR   Ar    5   0.169   6.077   0.294
    1   AR   Ar    6   0.147   0.773   2.416
    1   AR   Ar    7   6.378   4.016   3.270
    1   AR   Ar    8   6.084   0.418   1.620
    1   AR   Ar    9   1.289   0.257   3.247
    1   AR   Ar   10   0.668   1.028   4.198
    1   AR   Ar   11   2.129   6.441   4.189
    1   AR   Ar   12   0.865   1.449   2.973
    1   AR   Ar   13   6.720   1.048   5.141
    1   AR   Ar   14   0.868   1.910   7.108
    1   AR   Ar   15   5.613   0.935  10.387
    1   AR   Ar   16   1.158   0.618   5.208
    1   AR   Ar   17   6.741   2.094  -0.098
    1   AR   Ar   18   5.973   3.062  -0.565
    1   AR   Ar   19   1.628   3.047   1.648
    1   AR   Ar   20   4.975   4.193  -2.349
    1   AR   Ar   21   5.046   1.358   1.600
    1   AR   Ar   22   6.514   1.918   2.352
    1   AR   Ar   23   7.089   0.427  -0.437
    1   AR   Ar   24   0.267   2.305   1.456
    1   AR   Ar   25   6.814   0.927   3.874
    1   AR   Ar   26   5.594   1.271   4.207
    1   AR   Ar   27   1.654   1.616   4.057
    1   AR   Ar   28   0.838   2.425   4.594
    1   AR   Ar   29   5.346   2.179   6.549
    1   AR   Ar   30   1.997   1.382   5.017
    1   AR   Ar   31   1.672   6.993   7.678
    1   AR   Ar   32   1.425   2.728   5.737
    1   AR   Ar   33   1.271   4.404  -0.747
    1   AR   Ar   34   0.095   5.371   3.002
    1   AR   Ar   35   6.206   4.977   1.780
    1   AR   Ar   36   0.051   0.581  -3.757
    1   AR   Ar   37   5.569   2.560   2.514
    1   AR   Ar   38   7.069   3.934   2.533
    1   AR   Ar   39   1.056   3.171   2.976
    1   AR   Ar   40   2.021   3.731   0.785
    1   AR   Ar   41   0.614   3.246   3.880
    1   AR   Ar   42   6.562   5.746   4.565
    1   AR   Ar   43   6.933   2.267   6.186
    1   AR   Ar   44   0.797   4.136   3.173
    1   AR   Ar   45   0.331   2.969   5.430
    1   AR   Ar   46   1.154   6.404   6.082
    1   AR   Ar   47   6.092   3.348   7.425
    1   AR   Ar   48   0.492   6.937   6.863
    1   AR   Ar   49   5.780   0.810  -1.830
    1   AR   Ar   50   5.098   5.580   1.690
    1   AR   Ar   51   0.384   4.890   1.955
    1   AR   Ar   52   5.880   4.861  -1.055
    1   AR   Ar   53   5.334   6.366   2.513
    1   AR   Ar   54   7.117   6.315   2.650
    1   AR   Ar   55   6.140   5.756   2.508
    1   AR   Ar   56   0.749   0.589   0.599
    1   AR   Ar   57   5.443   3.460   3.321
    1   AR   Ar   58   0.093   4.172   4.094
    1   AR   Ar   59   1.734   5.525   6.005
    1   AR   Ar   60   1.218   6.451   3.918
    1   AR   Ar   61   6.437   4.659   5.788
    1   AR   Ar   62   0.682   4.799   5.193
    1   AR   Ar   63   2.463   0.463   6.779
    1   AR   Ar   64   0.818   6.676   4.871
    1   AR   Ar   65   3.698   7.102   0.804
    1   AR   Ar   66   0.706   1.415   1.732
    1   AR   Ar   67   2.802   6.151  -1.583
    1   AR   Ar   68   2.992   2.116  -0.850
    1   AR   Ar   69   2.537   0.922   1.188
    1   AR   Ar   70   0.538   7.004   1.927
    1   AR   Ar   71   2.810   1.564   4.021
    1   AR   Ar   72   3.349   0.451   1.696
    1   AR   Ar   73   3.286   0.573   3.711
    1   AR   Ar   74   1.998   0.415   3.915
    1   AR   Ar   75   3.702   1.108   4.444
    1   AR   Ar   76   1.450   0.812   2.405
    1   AR   Ar   77   2.208   6.423   6.066
    1   AR   Ar   78   1.471   0.318   6.414
    1   AR   Ar   79   3.844   6.150   6.267
    1   AR   Ar   80   3.561   5.411   5.680
    1   AR   Ar   81   2.666   0.473  -0.068
    1   AR   Ar   82   6.742   6.086  -0.863
    1   AR   Ar   83   0.473   2.417   0.210
    1   AR   Ar   84   7.118   3.707  -0.422
    1   AR   Ar   85   0.844   3.322   1.045
    1   AR   Ar   86   2.269   3.965  -0.350
    1   AR   Ar   87   1.995   1.903   1.509
    1   AR   Ar   88   2.312   4.744   1.674
    1   AR   Ar   89   0.477   3.123   2.155
    1   AR   Ar   90   2.448   2.626   5.023
    1   AR   Ar   91   0.809   2.255   3.661
    1   AR   Ar   92   1.125   2.383   2.443
    1   AR   Ar   93   2.168   0.329   5.662
    1   AR   Ar   94   1.391   7.100  10.111
    1   AR   Ar   95   3.744   0.709   5.805
    1   AR   Ar   96   2.572   0.070   4.689
    1   AR   Ar   97   4.749   1.905  -0.840
    1   AR   Ar   98   2.418   5.496   2.471
    1   AR   Ar   99   6.556   2.617  -1.392
    1   AR   Ar  100   2.078   2.929  -0.558
    1   AR   Ar  101   3.124   4.315   0.974
    1   AR   Ar  102   3.263   2.980   4.216
    1   AR   Ar  103   1.110   4.828   0.436
    1   AR   Ar  104   3.323   2.806  -1.547
    1   AR   Ar  105   1.661   3.304   4.133
    1   AR   Ar  106   3.404   3.357   5.169
    1   AR   Ar  107   1.043   3.821   4.962
    1   AR   Ar  108   3.802   2.214   5.217
    1   AR   Ar  109   1.841   4.480   3.994
    1   AR   Ar  110   1.114   4.650   6.529
    1   AR   Ar  111   5.241   3.879   7.781
    1   AR   Ar  112   1.466   5.714   7.105
    1   AR   Ar  113   2.233   4.737   0.500
    1   AR   Ar  114   2.673   5.820  -0.352
    1   AR   Ar  115   2.394   4.971  -0.776
    1   AR   Ar  116   6.141   7.000  -1.492
    1   AR   Ar  117   1.076   5.272   3.558
    1   AR   Ar  118   1.227   5.537   2.585
    1   AR   Ar  119   2.012   3.570   2.561
    1   AR   Ar  120   1.442   6.566   2.244
    1   AR   Ar  121   6.386   4.156   4.784
    1   AR   Ar  122   2.697   5.971   4.924
    1   AR   Ar  123   3.815   4.335   5.049
    1   AR   Ar  124   2.074   5.962   1.523
    1   AR   Ar  125   0.298   4.023   6.017
    1   AR   Ar  126   0.028   7.040   4.417
    1   AR   Ar  127   3.255   4.031   6.072
    1   AR   Ar  128   2.767   5.568   6.470
    1   AR   Ar  129   2.379   6.722   2.879
    1   AR   Ar  130   5.081   2.741  -1.440
    1   AR   Ar  131   4.678   0.991  -0.173
    1   AR   Ar  132   0.617   1.268  -0.148
    1   AR   Ar  133   4.115   6.648   2.561
    1   AR   Ar  134   4.646   1.378   3.958
    1   AR   Ar  135   5.152   0.415   2.919
    1   AR   Ar  136   5.007   0.106   1.931
    1   AR   Ar  137   2.434   5.504   3.836
    1   AR   Ar  138   4.731   2.159   4.766
    1   AR   Ar  139   5.447   2.461   5.491
    1   AR   Ar  140   3.487   0.255   4.863
    1   AR   Ar  141   3.721   5.792   4.594
    1   AR   Ar  142   2.994   6.922   5.706
    1   AR   Ar  143   0.238   6.825   5.755
    1   AR   Ar  144   5.671   1.076   6.114
    1   AR   Ar  145   4.218   4.348   0.422
    1   AR   Ar  146   4.320   2.339   2.012
    1   AR   Ar  147   5.314   1.765  -1.990
    1   AR   Ar  148   3.410   4.665  -1.298
    1   AR   Ar  149   3.498   2.086   1.333
    1   AR   Ar  150   2.065   1.872   2.651
    1   AR   Ar  151   2.469   2.433   3.652
    1   AR   Ar  152   3.232   3.592   0.062
    1   AR   Ar  153   4.202   0.185   3.342
    1   AR   Ar  154   4.035   2.300   3.789
    1   AR   Ar  155   6.541   0.392   6.948
    1   AR   Ar  156   3.780   3.972   3.830
    1   AR   Ar  157   2.499   3.418   6.363
    1   AR   Ar  158   0.915   3.399   6.761
    1   AR   Ar  159   4.486   2.268   5.872
    1   AR   Ar  160   2.800   1.675   5.497
    1   AR   Ar  161   5.213   2.938   1.502
    1   AR   Ar  162   4.312   6.210  -0.478
    1   AR   Ar  163   5.508   3.343   0.392
    1   AR   Ar  164   3.267   5.532   1.839
    1   AR   Ar  165   3.884   3.313   1.164
    1   AR   Ar  166   2.619   4.063   4.688
    1   AR   Ar  167   4.247   0.993   2.012
    1   AR   Ar  168   4.779   3.077  -0.413
    1   AR   Ar  169   3.078   2.980   1.708
    1   AR   Ar  170   2.429   4.440   5.740
    1   AR   Ar  171   5.556   3.818   4.287
    1   AR   Ar  172   4.899   4.872   4.654
    1   AR   Ar  173   2.556   3.367   7.430
    1   AR   Ar  174   2.650   4.609   7.092
    1   AR   Ar  175   2.971   2.584   5.902
    1   AR   Ar  176   3.772   3.036   6.324
    1   AR   Ar  177   6.292   4.687   0.041
    1   AR   Ar  178   3.438   5.064  -0.043
    1   AR   Ar  179   4.288   5.253   0.929
    1   AR   Ar  180   0.894   1.953  -3.052
    1   AR   Ar  181   0.953   5.927   1.570
    1   AR   Ar  182   2.888   0.752   2.628
    1   AR   Ar  183   3.545   5.122   2.891
    1   AR   Ar  184   4.226   6.532   1.546
    1   AR   Ar  185   1.942   5.026   4.920
    1   AR   Ar  186   3.744   4.994   4.072
    1   AR   Ar  187   3.183   6.261   3.634
    1   AR   Ar  188   2.936   6.575   1.549
    1   AR   Ar  189   3.685   2.549   7.317
    1   AR   Ar  190   4.343   6.657   4.637
    1   AR   Ar  191   3.438   5.303   7.169
    1   AR   Ar  192   4.915   5.756   5.470
    1   AR   Ar  193   1.310   6.098   0.164
    1   AR   Ar  194   3.986   3.984  -0.795
    1   AR   Ar  195   5.724   0.679  -0.611
    1   AR   Ar  196   4.856   7.051  -0.237
    1   AR   Ar  197   4.315   1.521   0.842
    1   AR   Ar  198   6.791   1.201   0.491
    1   AR   Ar  199   4.472   1.599   2.929
    1   AR   Ar  200   5.770   1.961   0.209
    1   AR   Ar  201   4.979   6.672   3.578
    1   AR   Ar  202   5.668   2.846   4.353
    1   AR   Ar  203   6.132   6.584   3.843
    1   AR   Ar  204   5.388   0.039   4.617
    1   AR   Ar  205   6.285   7.024   2.952
    1   AR   Ar  206   4.506   0.903   5.011
    1   AR   Ar  207   0.760   1.198   6.237
    1   AR   Ar  208   0.185   7.083   3.326
    1   AR   Ar  209   5.490   3.104  -2.334
    1   AR   Ar  210   3.516   0.899   0.492
    1   AR   Ar  211   6.702   2.980   0.437
    1   AR   Ar  212   6.153   3.597  -1.527
    1   AR   Ar  213   3.184   1.847   2.324
    1   AR   Ar  214   4.447   2.741   2.951
    1   AR   Ar  215   5.943   2.203   1.350
    1   AR   Ar  216   1.153   4.008   1.910
    1   AR   Ar  217   4.662   3.280   4.228
    1   AR   Ar  218   4.441   3.285   5.401
    1   AR   Ar  219   5.107   2.352   3.686
    1   AR   Ar  220   4.409   3.572   2.013
    1   AR   Ar  221   6.178   6.592   5.127
    1   AR   Ar  222   4.608   1.545   7.003
    1   AR   Ar  223   0.363   0.809   7.179
    1   AR   Ar  224   4.936   3.486   6.380
    1   AR   Ar  225   6.255   3.535   1.947
    1   AR   Ar  226   3.633   3.923   2.766
    1   AR   Ar  227   6.960   4.216   1.266
    1   AR   Ar  228   5.533   6.447   1.357
    1   AR   Ar  229   5.180   4.118  -0.482
    1   AR   Ar  230   4.677   3.969   2.981
    1   AR   Ar  231   5.981   1.050   2.778
    1   AR   Ar  232   4.547   2.465   0.956
    1   AR   Ar  233   6.340   2.016   3.426
    1   AR   Ar  234   6.634   3.285   4.369
    1   AR   Ar  235   6.974   2.148   4.586
    1   AR   Ar  236   5.792   5.147   5.163
    1   AR   Ar  237   5.472   3.496   5.484
    1   AR   Ar  238   4.506   4.728   5.710
    1   AR   Ar  239   6.575   4.241   8.878
    1   AR   Ar  240   7.041   3.244   6.517
    1   AR   Ar  241   1.051   6.691  -0.864
    1   AR   Ar  242   5.121   4.805   0.369
    1   AR   Ar  243   5.575   4.543   2.674
    1   AR   Ar  244   0.942   5.311  -0.547
    1   AR   Ar  245   5.041   0.450   0.652
    1   AR   Ar  246   5.754   5.593   0.774
    1   AR   Ar  247   4.824   4.379   1.374
    1   AR   Ar  248   5.484   5.550  -0.247
    1   AR   Ar  249   4.225   5.755   2.145
    1   AR   Ar  250   5.563   5.869   4.392
    1   AR   Ar  251   5.828   4.795   3.775
    1   AR   Ar  252   4.824   5.250   3.106
    1   AR   Ar  253   6.215   3.859   6.382
    1   AR   Ar  254   1.979   5.364   8.622
    1   AR   Ar  255   4.799   2.839   7.205
    1   AR   Ar  256   0.015   6.136   3.764
    7.12000  7.12000 12.00000
Argon-slab step 2870
  256
    1   AR   Ar    1   6.514   1.218  -1.203
    1   AR   Ar    2   6.764   7.106   1.081
    1   AR   Ar    3   1.556   1.142   0.344
    1   AR   Ar    4   1.269   0.586  -0.698
    1   AR   Ar    5   0.176   6.067   0.318
    1   AR   Ar    6   0.129   0.789   2.397
    1   AR   Ar    7   6.355   4.036   3.274
    1   AR   Ar    8   6.080   0.439   1.639
    1   AR   Ar    9   1.283   0.244   3.258
    1   AR   Ar   10   0.679   1.020   4.186
    1   AR   Ar   11   2.142   6.437   4.184
    1   AR   Ar   12   0.873   1.455   2.989
    1   AR   Ar   13   6.721   1.012   5.149
    1   AR   Ar   14   0.857   1.925   7.135
    1   AR   Ar   15   5.594   0.943  10.409
    1   AR   Ar   16   1.173   0.631   5.204
    1   AR   Ar   17   6.706   2.070  -0.083
    1   AR   Ar   18   5.989   3.070  -0.559
    1   AR   Ar   19   1.649   3.045   1.620
    1   AR   Ar   20   4.959   4.187  -2.322
    1   AR   Ar   21   5.055   1.403   1.569
    1   AR   Ar   22   6.485   1.929   2.341
    1   AR   Ar   23   7.057   0.428  -0.453
    1   AR   Ar   24   0.292   2.307   1.451
    1   AR   Ar   25   6.827   0.941   3.862
    1   AR   Ar   26   5.579   1.277   4.204
    1   AR   Ar   27   1.650   1.612   4.057
    1   AR   Ar   28   0.815   2.417   4.640
    1   AR   Ar   29   5.378   2.173   6.574
    1   AR   Ar   30   2.022   1.374   5.023
    1   AR   Ar   31   1.655   7.017   7.688
    1   AR   Ar   32   1.416   2.750   5.691
    1   AR   Ar   33   1.274   4.409  -0.734
    1   AR   Ar   34   0.105   5.328   2.996
    1   AR   Ar   35   6.199   4.970   1.773
    1   AR   Ar   36   0.031   0.576  -3.766
    1   AR   Ar   37   5.538   2.542   2.515
    1   AR   Ar   38   0.009   3.959   2.526
    1   AR   Ar   39   1.052   3.173   2.991
    1   AR   Ar   40   2.046   3.692   0.739
    1   AR   Ar   41   0.608   3.267   3.887
    1   AR   Ar   42   6.572   5.735   4.558
    1   AR   Ar   43   6.944   2.253   6.166
    1   AR   Ar   44   0.796   4.134   3.223
    1   AR   Ar   45   0.324   2.991   5.460
    1   AR   Ar   46   1.142   6.383   6.063
    1   AR   Ar   47   6.109   3.339   7.400
    1   AR   Ar   48   0.488   6.903   6.869
    1   AR   Ar   49   5.771   0.787  -1.809
    1   AR   Ar   50   5.080   5.625   1.719
    1   AR   Ar   51   0.381   4.914   1.957
    1   AR   Ar   52   5.847   4.846  -1.034
    1   AR   Ar   53   5.332   6.376   2.484
    1   AR   Ar   54   0.007   6.314   2.665
    1   AR   Ar   55   6.167   5.759   2.492
    1   AR   Ar   56   0.730   0.603   0.617
    1   AR   Ar   57   5.451   3.461   3.304
    1   AR   Ar   58   0.099   4.150   4.074
    1   AR   Ar   59   1.722   5.502   6.003
    1   AR   Ar   60   1.202   6.428   3.885
    1   AR   Ar   61   6.421   4.701   5.794
    1   AR   Ar   62   0.696   4.803   5.165
    1   AR   Ar   63   2.421   0.490   6.773
    1   AR   Ar   64   0.883   6.675   4.877
    1   AR   Ar   65   3.710   7.116   0.782
    1   AR   Ar   66   0.709   1.415   1.723
    1   AR   Ar   67   2.803   6.150  -1.609
    1   AR   Ar   68   2.976   2.134  -0.834
    1   AR   Ar   69   2.536   0.946   1.184
    1   AR   Ar   70   0.570   6.993   1.922
    1   AR   Ar   71   2.803   1.546   4.025
    1   AR   Ar   72   3.358   0.468   1.696
    1   AR   Ar   73   3.318   0.606   3.726
    1   AR   Ar   74   2.018   0.407   3.915
    1   AR   Ar   75   3.716   1.095   4.420
    1   AR   Ar   76   1.459   0.817   2.386
    1   AR   Ar   77   2.196   6.395   6.084
    1   AR   Ar   78   1.461   0.308   6.394
    1   AR   Ar   79   3.856   6.161   6.262
    1   AR   Ar   80   3.574   5.366   5.691
    1   AR   Ar   81   2.670   0.443  -0.043
    1   AR   Ar   82   6.736   6.100  -0.871
    1   AR   Ar   83   0.475   2.400   0.191
    1   AR   Ar   84   7.104   3.693  -0.426
    1   AR   Ar   85   0.825   3.299   1.072
    1   AR   Ar   86   2.282   3.957  -0.358
    1   AR   Ar   87   1.985   1.884   1.471
    1   AR   Ar   88   2.318   4.745   1.628
    1   AR   Ar   89   0.491   3.113   2.144
    1   AR   Ar   90   2.446   2.633   5.021
    1   AR   Ar   91   0.821   2.227   3.647
    1   AR   Ar   92   1.117   2.384   2.431
    1   AR   Ar   93   2.146   0.268   5.671
    1   AR   Ar   94   1.374   7.089  10.125
    1   AR   Ar   95   3.739   0.743   5.784
    1   AR   Ar   96   2.558   0.059   4.692
    1   AR   Ar   97   4.753   1.887  -0.855
    1   AR   Ar   98   2.394   5.497   2.496
    1   AR   Ar   99   6.540   2.629  -1.430
    1   AR   Ar  100   2.102   2.923  -0.573
    1   AR   Ar  101   3.165   4.341   0.941
    1   AR   Ar  102   3.276   2.969   4.214
    1   AR   Ar  103   1.109   4.836   0.490
    1   AR   Ar  104   3.310   2.814  -1.543
    1   AR   Ar  105   1.627   3.293   4.145
    1   AR   Ar  106   3.407   3.357   5.173
    1   AR   Ar  107   1.036   3.811   4.933
    1   AR   Ar  108   3.783   2.253   5.194
    1   AR   Ar  109   1.850   4.522   4.027
    1   AR   Ar  110   1.088   4.630   6.527
    1   AR   Ar  111   5.215   3.909   7.801
    1   AR   Ar  112   1.486   5.733   7.107
    1   AR   Ar  113   2.251   4.704   0.499
    1   AR   Ar  114   2.644   5.843  -0.381
    1   AR   Ar  115   2.357   4.991  -0.772
    1   AR   Ar  116   6.157   7.012  -1.502
    1   AR   Ar  117   1.100   5.253   3.542
    1   AR   Ar  118   1.240   5.537   2.566
    1   AR   Ar  119   2.038   3.564   2.582
    1   AR   Ar  120   1.455   6.577   2.245
    1   AR   Ar  121   6.380   4.174   4.808
    1   AR   Ar  122   2.721   5.955   4.919
    1   AR   Ar  123   3.820   4.347   5.043
    1   AR   Ar  124   2.068   5.967   1.534
    1   AR   Ar  125   0.311   4.017   6.021
    1   AR   Ar  126   0.017   7.019   4.428
    1   AR   Ar  127   3.259   4.020   6.078
    1   AR   Ar  128   2.780   5.585   6.502
    1   AR   Ar  129   2.404   6.702   2.873
    1   AR   Ar  130   5.066   2.736  -1.437
    1   AR   Ar  131   4.686   0.995  -0.154
    1   AR   Ar  132   0.607   1.275  -0.124
    1   AR   Ar  133   4.108   6.659   2.586
    1   AR   Ar  134   4.622   1.378   3.963
    1   AR   Ar  135   5.123   0.414   2.903
    1   AR   Ar  136   4.969   0.083   1.924
    1   AR   Ar  137   2.463   5.524   3.854
    1   AR   Ar  138   4.751   2.134   4.740
    1   AR   Ar  139   5.432   2.451   5.484
    1   AR   Ar  140   3.486   0.254   4.890
    1   AR   Ar  141   3.705   5.819   4.582
    1   AR   Ar  142   2.971   6.912   5.709
    1   AR   Ar  143   0.263   6.851   5.756
    1   AR   Ar  144   5.691   1.088   6.091
    1   AR   Ar  145   4.219   4.357   0.393
    1   AR   Ar  146   4.273   2.343   2.043
    1   AR   Ar  147   5.296   1.782  -1.970
    1   AR   Ar  148   3.382   4.664  -1.329
    1   AR   Ar  149   3.510   2.066   1.322
    1   AR   Ar  150   2.054   1.857   2.659
    1   AR   Ar  151   2.451   2.427   3.671
    1   AR   Ar  152   3.210   3.615   0.043
    1   AR   Ar  153   4.232   0.178   3.346
    1   AR   Ar  154   4.027   2.297   3.763
    1   AR   Ar  155   6.542   0.393   6.945
    1   AR   Ar  156   3.800   3.975   3.851
    1   AR   Ar  157   2.498   3.449   6.370
    1   AR   Ar  158   0.910   3.369   6.784
    1   AR   Ar  159   4.496   2.273   5.879
    1   AR   Ar  160   2.815   1.657   5.456
    1   AR   Ar  161   5.189   2.918   1.498
    1   AR   Ar  162   4.302   6.182  -0.456
    1   AR   Ar  163   5.499   3.345   0.417
    1   AR   Ar  164   3.287   5.508   1.866
    1   AR   Ar  165   3.878   3.272   1.145
    1   AR   Ar  166   2.621   4.048   4.677
    1   AR   Ar  167   4.259   0.989   2.019
    1   AR   Ar  168   4.812   3.087  -0.452
    1   AR   Ar  169   3.099   3.016   1.725
    1   AR   Ar  170   2.417   4.421   5.709
    1   AR   Ar  171   5.586   3.819   4.300
    1   AR   Ar  172   4.904   4.898   4.653
    1   AR   Ar  173   2.570   3.348   7.418
    1   AR   Ar  174   2.625   4.620   7.110
    1   AR   Ar  175   2.957   2.618   5.914
    1   AR   Ar  176   3.792   3.042   6.350
    1   AR   Ar  177   6.284   4.662   0.028
    1   AR   Ar  178   3.443   5.079  -0.048
    1   AR   Ar  179   4.281   5.223   0.923
    1   AR   Ar  180   0.870   1.943  -3.082
    1   AR   Ar  181   0.967   5.907   1.594
    1   AR   Ar  182   2.886   0.756   2.637
    1   AR   Ar  183   3.539   5.132   2.890
    1   AR   Ar  184   4.231   6.548   1.523
    1   AR   Ar  185   1.969   5.037   4.933
    1   AR   Ar  186   3.718   4.975   4.020
    1   AR   Ar  187   3.195   6.288   3.623
    1   AR   Ar  188   2.921   6.565   1.554
    1   AR   Ar  189   3.685   2.536   7.310
    1   AR   Ar  190   4.333   6.634   4.636
    1   AR   Ar  191   3.421   5.321   7.188
    1   AR   Ar  192   4.908   5.761   5.447
    1   AR   Ar  193   1.339   6.084   0.149
    1   AR   Ar  194   3.969   3.986  -0.745
    1   AR   Ar  195   5.718   0.699  -0.612
    1   AR   Ar  196   4.847   7.033  -0.220
    1   AR   Ar  197   4.297   1.506   0.853
    1   AR   Ar  198   6.792   1.207   0.504
    1   AR   Ar  199   4.448   1.571   2.921
    1   AR   Ar  200   5.763   1.969   0.202
    1   AR   Ar  201   4.982   6.650   3.547
    1   AR   Ar  202   5.685   2.833   4.356
    1   AR   Ar  203   6.152   6.581   3.831
    1   AR   Ar  204   5.390   0.020   4.650
    1   AR   Ar  205   6.276   7.017   2.957
    1   AR   Ar  206   4.493   0.883   5.009
    1   AR   Ar  207   0.758   1.207   6.260
    1   AR   Ar  208   0.183   7.097   3.332
    1   AR   Ar  209   5.570   3.113  -2.353
    1   AR   Ar  210   3.516   0.893   0.464
    1   AR   Ar  211   6.712   2.985   0.413
    1   AR   Ar  212   6.123   3.586  -1.541
    1   AR   Ar  213   3.197   1.863   2.305
    1   AR   Ar  214   4.465   2.766   2.940
    1   AR   Ar  215   5.944   2.242   1.323
    1   AR   Ar  216   1.177   4.005   1.902
    1   AR   Ar  217   4.682   3.334   4.256
    1   AR   Ar  218   4.478   3.281   5.420
    1   AR   Ar  219   5.093   2.367   3.714
    1   AR   Ar  220   4.385   3.570   2.027
    1   AR   Ar  221   6.179   6.582   5.088
    1   AR   Ar  222   4.608   1.560   7.021
    1   AR   Ar  223   0.358   0.826   7.177
    1   AR   Ar  224   4.923   3.509   6.386
    1   AR   Ar  225   6.255   3.516   1.970
    1   AR   Ar  226   3.624   3.915   2.783
    1   AR   Ar  227   6.943   4.204   1.269
    1   AR   Ar  228   5.549   6.465   1.379
    1   AR   Ar  229   5.198   4.128  -0.497
    1   AR   Ar  230   4.677   3.953   3.014
    1   AR   Ar  231   5.972   1.051   2.789
    1   AR   Ar  232   4.545   2.452   0.944
    1   AR   Ar  233   6.342   2.018   3.419
    1   AR   Ar  234   6.614   3.286   4.339
    1   AR   Ar  235   6.988   2.125   4.599
    1   AR   Ar  236   5.761   5.157   5.171
    1   AR   Ar  237   5.480   3.511   5.448
    1   AR   Ar  238   4.480   4.720   5.731
    1   AR   Ar  239   6.543   4.223   8.843
    1   AR   Ar  240   7.033   3.238   6.544
    1   AR   Ar  241   1.048   6.679  -0.829
    1   AR   Ar  242   5.121   4.798   0.368
    1   AR   Ar  243   5.554   4.561   2.683
    1   AR   Ar  244   0.931   5.305  -0.555
    1   AR   Ar  245   5.005   0.456   0.670
    1   AR   Ar  246   5.728   5.613   0.766
    1   AR   Ar  247   4.844   4.388   1.386
    1   AR   Ar  248   5.503   5.561  -0.240
    1   AR   Ar  249   4.222   5.766   2.156
    1   AR   Ar  250   5.550   5.865   4.361
    1   AR   Ar  251   5.817   4.821   3.773
    1   AR   Ar  252   4.843   5.260   3.089
    1   AR   Ar  253   6.218   3.875   6.376
    1   AR   Ar  254   1.977   5.321   8.645
    1   AR   Ar  255   4.818   2.864   7.222
    1   AR   Ar  256   7.119   6.131   3.780
    7.12000  7.12000 12.00000
Argon-slab step 2875
  256
    1   AR   Ar    1   6.543   1.225  -1.244
    1   AR   Ar    2   6.754   7.103   1.059
    1   AR   Ar    3   1.605   1.137   0.372
    1   AR   Ar    4   1.254   0.611  -0.726
    1   AR   Ar    5   0.183   6.057   0.341
    1   AR   Ar    6   0.110   0.804   2.380
    1   AR   Ar    7   6.335   4.056   3.280
    1   AR   Ar    8   6.052   0.489   1.667
    1   AR   Ar    9   1.269   0.228   3.264
    1   AR   Ar   10   0.695   1.013   4.175
    1   AR   Ar   11   2.160   6.431   4.176
    1   AR   Ar   12   0.880   1.458   3.003
    1   AR   Ar   13   6.722   0.975   5.156
    1   AR   Ar   14   0.845   1.940   7.161
    1   AR   Ar   15   5.574   0.950  10.431
    1   AR   Ar   16   1.187   0.643   5.199
    1   AR   Ar   17   6.670   2.041  -0.080
    1   AR   Ar   18   6.004   3.077  -0.552
    1   AR   Ar   19   1.675   3.040   1.596
    1   AR   Ar   20   4.943   4.180  -2.293
    1   AR   Ar   21   5.075   1.452   1.537
    1   AR   Ar   22   6.457   1.941   2.328
    1   AR   Ar   23   7.025   0.430  -0.469
    1   AR   Ar   24   0.315   2.314   1.443
    1   AR   Ar   25   6.834   0.953   3.848
    1   AR   Ar   26   5.598   1.277   4.172
    1   AR   Ar   27   1.646   1.607   4.054
    1   AR   Ar   28   0.805   2.415   4.694
    1   AR   Ar   29   5.356   2.185   6.574
    1   AR   Ar   30   2.028   1.356   5.020
    1   AR   Ar   31   1.672   7.031   7.683
    1   AR   Ar   32   1.407   2.773   5.644
    1   AR   Ar   33   1.283   4.402  -0.723
    1   AR   Ar   34   0.114   5.281   2.991
    1   AR   Ar   35   6.191   4.961   1.765
    1   AR   Ar   36   0.012   0.571  -3.774
    1   AR   Ar   37   5.507   2.524   2.516
    1   AR   Ar   38   0.069   3.988   2.518
    1   AR   Ar   39   1.057   3.182   3.011
    1   AR   Ar   40   2.064   3.678   0.716
    1   AR   Ar   41   0.592   3.304   3.911
    1   AR   Ar   42   6.584   5.720   4.554
    1   AR   Ar   43   6.956   2.236   6.144
    1   AR   Ar   44   0.795   4.141   3.273
    1   AR   Ar   45   0.316   3.014   5.489
    1   AR   Ar   46   1.130   6.363   6.046
    1   AR   Ar   47   6.125   3.330   7.374
    1   AR   Ar   48   0.478   6.861   6.869
    1   AR   Ar   49   5.740   0.771  -1.772
    1   AR   Ar   50   5.072   5.661   1.743
    1   AR   Ar   51   0.379   4.938   1.961
    1   AR   Ar   52   5.814   4.831  -1.012
    1   AR   Ar   53   5.327   6.388   2.458
    1   AR   Ar   54   0.016   6.313   2.676
    1   AR   Ar   55   6.198   5.760   2.479
    1   AR   Ar   56   0.704   0.609   0.643
    1   AR   Ar   57   5.471   3.449   3.291
    1   AR   Ar   58   0.103   4.134   4.055
    1   AR   Ar   59   1.710   5.470   6.000
    1   AR   Ar   60   1.173   6.403   3.845
    1   AR   Ar   61   6.412   4.744   5.802
    1   AR   Ar   62   0.710   4.809   5.137
    1   AR   Ar   63   2.382   0.517   6.766
    1   AR   Ar   64   0.953   6.673   4.886
    1   AR   Ar   65   3.723   0.001   0.756
    1   AR   Ar   66   0.717   1.410   1.715
    1   AR   Ar   67   2.804   6.148  -1.633
    1   AR   Ar   68   2.958   2.150  -0.814
    1   AR   Ar   69   2.534   0.969   1.179
    1   AR   Ar   70   0.597   6.983   1.916
    1   AR   Ar   71   2.797   1.523   4.033
    1   AR   Ar   72   3.368   0.483   1.695
    1   AR   Ar   73   3.336   0.624   3.722
    1   AR   Ar   74   2.041   0.405   3.914
    1   AR   Ar   75   3.735   1.107   4.408
    1   AR   Ar   76   1.470   0.822   2.362
    1   AR   Ar   77   2.183   6.370   6.106
    1   AR   Ar   78   1.440   0.297   6.380
    1   AR   Ar   79   3.869   6.176   6.260
    1   AR   Ar   80   3.584   5.316   5.697
    1   AR   Ar   81   2.674   0.412  -0.018
    1   AR   Ar   82   6.730   6.115  -0.878
    1   AR   Ar   83   0.521   2.393   0.198
    1   AR   Ar   84   7.092   3.679  -0.424
    1   AR   Ar   85   0.799   3.277   1.097
    1   AR   Ar   86   2.302   3.945  -0.377
    1   AR   Ar   87   1.974   1.865   1.434
    1   AR   Ar   88   2.324   4.746   1.582
    1   AR   Ar   89   0.498   3.108   2.125
    1   AR   Ar   90   2.443   2.641   5.013
    1   AR   Ar   91   0.834   2.255   3.656
    1   AR   Ar   92   1.115   2.366   2.410
    1   AR   Ar   93   2.112   0.219   5.672
    1   AR   Ar   94   1.356   7.079  10.139
    1   AR   Ar   95   3.733   0.780   5.766
    1   AR   Ar   96   2.539   0.051   4.701
    1   AR   Ar   97   4.757   1.869  -0.869
    1   AR   Ar   98   2.373   5.494   2.515
    1   AR   Ar   99   6.523   2.636  -1.467
    1   AR   Ar  100   2.127   2.915  -0.587
    1   AR   Ar  101   3.209   4.366   0.909
    1   AR   Ar  102   3.289   2.957   4.209
    1   AR   Ar  103   1.109   4.844   0.544
    1   AR   Ar  104   3.299   2.826  -1.542
    1   AR   Ar  105   1.596   3.282   4.157
    1   AR   Ar  106   3.409   3.356   5.181
    1   AR   Ar  107   1.029   3.798   4.904
    1   AR   Ar  108   3.753   2.294   5.163
    1   AR   Ar  109   1.858   4.561   4.057
    1   AR   Ar  110   1.063   4.611   6.526
    1   AR   Ar  111   5.188   3.938   7.821
    1   AR   Ar  112   1.506   5.753   7.107
    1   AR   Ar  113   2.269   4.675   0.495
    1   AR   Ar  114   2.619   5.877  -0.404
    1   AR   Ar  115   2.335   4.986  -0.763
    1   AR   Ar  116   6.194   6.997  -1.524
    1   AR   Ar  117   1.122   5.233   3.533
    1   AR   Ar  118   1.254   5.535   2.585
    1   AR   Ar  119   2.063   3.557   2.602
    1   AR   Ar  120   1.473   6.590   2.250
    1   AR   Ar  121   6.378   4.199   4.838
    1   AR   Ar  122   2.740   5.945   4.922
    1   AR   Ar  123   3.822   4.358   5.031
    1   AR   Ar  124   2.060   5.968   1.546
    1   AR   Ar  125   0.326   4.015   6.020
    1   AR   Ar  126   0.001   7.000   4.437
    1   AR   Ar  127   3.279   4.012   6.083
    1   AR   Ar  128   2.784   5.605   6.523
    1   AR   Ar  129   2.429   6.681   2.868
    1   AR   Ar  130   5.054   2.734  -1.436
    1   AR   Ar  131   4.692   1.003  -0.137
    1   AR   Ar  132   0.584   1.293  -0.106
    1   AR   Ar  133   4.099   6.673   2.609
    1   AR   Ar  134   4.590   1.378   3.965
    1   AR   Ar  135   5.113   0.411   2.895
    1   AR   Ar  136   4.931   0.063   1.914
    1   AR   Ar  137   2.493   5.537   3.870
    1   AR   Ar  138   4.744   2.134   4.747
    1   AR   Ar  139   5.423   2.441   5.475
    1   AR   Ar  140   3.499   0.246   4.920
    1   AR   Ar  141   3.689   5.848   4.573
    1   AR   Ar  142   2.972   6.895   5.711
    1   AR   Ar  143   0.284   6.880   5.757
    1   AR   Ar  144   5.705   1.099   6.073
    1   AR   Ar  145   4.212   4.356   0.360
    1   AR   Ar  146   4.226   2.343   2.068
    1   AR   Ar  147   5.278   1.799  -1.948
    1   AR   Ar  148   3.341   4.669  -1.350
    1   AR   Ar  149   3.522   2.046   1.307
    1   AR   Ar  150   2.042   1.841   2.667
    1   AR   Ar  151   2.428   2.427   3.689
    1   AR   Ar  152   3.191   3.638   0.026
    1   AR   Ar  153   4.255   0.181   3.358
    1   AR   Ar  154   4.016   2.292   3.741
    1   AR   Ar  155   6.545   0.373   6.934
    1   AR   Ar  156   3.822   3.970   3.873
    1   AR   Ar  157   2.491   3.455   6.377
    1   AR   Ar  158   0.908   3.340   6.807
    1   AR   Ar  159   4.504   2.281   5.870
    1   AR   Ar  160   2.850   1.644   5.423
    1   AR   Ar  161   5.171   2.911   1.505
    1   AR   Ar  162   4.290   6.148  -0.434
    1   AR   Ar  163   5.489   3.347   0.441
    1   AR   Ar  164   3.300   5.482   1.888
    1   AR   Ar  165   3.876   3.234   1.120
    1   AR   Ar  166   2.625   4.031   4.667
    1   AR   Ar  167   4.265   0.982   2.029
    1   AR   Ar  168   4.846   3.097  -0.488
    1   AR   Ar  169   3.114   3.049   1.748
    1   AR   Ar  170   2.399   4.406   5.677
    1   AR   Ar  171   5.553   3.804   4.292
    1   AR   Ar  172   4.904   4.923   4.648
    1   AR   Ar  173   2.584   3.328   7.407
    1   AR   Ar  174   2.597   4.629   7.125
    1   AR   Ar  175   2.936   2.651   5.922
    1   AR   Ar  176   3.817   3.051   6.376
    1   AR   Ar  177   6.274   4.637   0.016
    1   AR   Ar  178   3.447   5.093  -0.053
    1   AR   Ar  179   4.274   5.199   0.921
    1   AR   Ar  180   0.846   1.934  -3.111
    1   AR   Ar  181   0.977   5.886   1.614
    1   AR   Ar  182   2.891   0.744   2.650
    1   AR   Ar  183   3.540   5.146   2.888
    1   AR   Ar  184   4.237   6.566   1.500
    1   AR   Ar  185   1.997   5.051   4.948
    1   AR   Ar  186   3.692   4.956   3.965
    1   AR   Ar  187   3.208   6.317   3.613
    1   AR   Ar  188   2.909   6.558   1.560
    1   AR   Ar  189   3.686   2.522   7.302
    1   AR   Ar  190   4.328   6.616   4.635
    1   AR   Ar  191   3.415   5.336   7.216
    1   AR   Ar  192   4.899   5.767   5.422
    1   AR   Ar  193   1.367   6.069   0.134
    1   AR   Ar  194   3.954   3.985  -0.692
    1   AR   Ar  195   5.711   0.718  -0.613
    1   AR   Ar  196   4.841   7.016  -0.204
    1   AR   Ar  197   4.278   1.478   0.861
    1   AR   Ar  198   6.793   1.210   0.519
    1   AR   Ar  199   4.424   1.545   2.913
    1   AR   Ar  200   5.744   1.977   0.198
    1   AR   Ar  201   4.992   6.621   3.519
    1   AR   Ar  202   5.705   2.812   4.367
    1   AR   Ar  203   6.170   6.576   3.830
    1   AR   Ar  204   5.390   0.003   4.681
    1   AR   Ar  205   6.267   7.016   2.951
    1   AR   Ar  206   4.489   0.862   5.010
    1   AR   Ar  207   0.746   1.217   6.284
    1   AR   Ar  208   0.182   7.117   3.340
    1   AR   Ar  209   5.649   3.122  -2.373
    1   AR   Ar  210   3.512   0.901   0.433
    1   AR   Ar  211   6.721   2.994   0.392
    1   AR   Ar  212   6.091   3.578  -1.553
    1   AR   Ar  213   3.210   1.877   2.289
    1   AR   Ar  214   4.486   2.799   2.932
    1   AR   Ar  215   5.949   2.277   1.295
    1   AR   Ar  216   1.201   4.002   1.895
    1   AR   Ar  217   4.695   3.383   4.284
    1   AR   Ar  218   4.478   3.258   5.401
    1   AR   Ar  219   5.076   2.377   3.736
    1   AR   Ar  220   4.362   3.567   2.043
    1   AR   Ar  221   6.183   6.572   5.050
    1   AR   Ar  222   4.606   1.575   7.039
    1   AR   Ar  223   0.356   0.844   7.176
    1   AR   Ar  224   4.910   3.533   6.391
    1   AR   Ar  225   6.254   3.497   1.994
    1   AR   Ar  226   3.613   3.906   2.799
    1   AR   Ar  227   6.931   4.213   1.270
    1   AR   Ar  228   5.568   6.490   1.401
    1   AR   Ar  229   5.197   4.130  -0.496
    1   AR   Ar  230   4.665   3.947   3.044
    1   AR   Ar  231   5.967   1.052   2.800
    1   AR   Ar  232   4.537   2.443   0.925
    1   AR   Ar  233   6.342   2.021   3.414
    1   AR   Ar  234   6.600   3.283   4.306
    1   AR   Ar  235   6.983   2.117   4.602
    1   AR   Ar  236   5.732   5.169   5.175
    1   AR   Ar  237   5.493   3.531   5.410
    1   AR   Ar  238   4.458   4.714   5.754
    1   AR   Ar  239   6.510   4.204   8.808
    1   AR   Ar  240   7.022   3.226   6.575
    1   AR   Ar  241   1.043   6.663  -0.793
    1   AR   Ar  242   5.128   4.791   0.369
    1   AR   Ar  243   5.535   4.578   2.690
    1   AR   Ar  244   0.930   5.335  -0.565
    1   AR   Ar  245   4.969   0.462   0.695
    1   AR   Ar  246   5.703   5.632   0.763
    1   AR   Ar  247   4.864   4.396   1.398
    1   AR   Ar  248   5.521   5.573  -0.240
    1   AR   Ar  249   4.217   5.769   2.173
    1   AR   Ar  250   5.532   5.861   4.330
    1   AR   Ar  251   5.804   4.849   3.772
    1   AR   Ar  252   4.860   5.272   3.073
    1   AR   Ar  253   6.218   3.887   6.372
    1   AR   Ar  254   1.975   5.277   8.668
    1   AR   Ar  255   4.838   2.889   7.245
    1   AR   Ar  256   7.109   6.125   3.792
    7.12000  7.12000 12.00000
Argon-slab step 2880
  256
    1   AR   Ar    1   6.574   1.232  -1.282
    1   AR   Ar    2   6.747   7.100   1.035
    1   AR   Ar    3   1.656   1.133   0.400
    1   AR   Ar    4   1.239   0.637  -0.752
    1   AR   Ar    5   0.192   6.046   0.364
    1   AR   Ar    6   0.089   0.817   2.366
    1   AR   Ar    7   6.318   4.075   3.286
    1   AR   Ar    8   6.019   0.540   1.699
    1   AR   Ar    9   1.250   0.211   3.267
    1   AR   Ar   10   0.717   1.005   4.165
    1   AR   Ar   11   2.174   6.426   4.163
    1   AR   Ar   12   0.887   1.455   3.016
    1   AR   Ar   13   6.719   0.959   5.172
    1   AR   Ar   14   0.832   1.955   7.186
    1   AR   Ar   15   5.555   0.957  10.453
    1   AR   Ar   16   1.200   0.654   5.195
    1   AR   Ar   17   6.647   2.015  -0.086
    1   AR   Ar   18   6.020   3.084  -0.544
    1   AR   Ar   19   1.705   3.033   1.576
    1   AR   Ar   20   4.929   4.171  -2.264
    1   AR   Ar   21   5.100   1.502   1.506
    1   AR   Ar   22   6.429   1.953   2.313
    1   AR   Ar   23   6.992   0.433  -0.484
    1   AR   Ar   24   0.301   2.320   1.412
    1   AR   Ar   25   6.835   0.965   3.832
    1   AR   Ar   26   5.622   1.277   4.141
    1   AR   Ar   27   1.642   1.604   4.048
    1   AR   Ar   28   0.806   2.416   4.752
    1   AR   Ar   29   5.337   2.198   6.571
    1   AR   Ar   30   2.019   1.332   5.009
    1   AR   Ar   31   1.689   7.046   7.676
    1   AR   Ar   32   1.402   2.800   5.610
    1   AR   Ar   33   1.296   4.387  -0.711
    1   AR   Ar   34   0.125   5.248   2.984
    1   AR   Ar   35   6.183   4.950   1.755
    1   AR   Ar   36   7.113   0.566  -3.783
    1   AR   Ar   37   5.474   2.507   2.518
    1   AR   Ar   38   0.126   4.019   2.508
    1   AR   Ar   39   1.067   3.191   3.032
    1   AR   Ar   40   2.065   3.681   0.728
    1   AR   Ar   41   0.576   3.328   3.940
    1   AR   Ar   42   6.555   5.700   4.544
    1   AR   Ar   43   6.967   2.218   6.122
    1   AR   Ar   44   0.799   4.155   3.323
    1   AR   Ar   45   0.308   3.038   5.519
    1   AR   Ar   46   1.118   6.343   6.030
    1   AR   Ar   47   6.140   3.321   7.346
    1   AR   Ar   48   0.468   6.819   6.867
    1   AR   Ar   49   5.706   0.759  -1.736
    1   AR   Ar   50   5.077   5.687   1.758
    1   AR   Ar   51   0.377   4.962   1.964
    1   AR   Ar   52   5.782   4.816  -0.991
    1   AR   Ar   53   5.320   6.401   2.438
    1   AR   Ar   54   0.026   6.313   2.684
    1   AR   Ar   55   6.229   5.761   2.467
    1   AR   Ar   56   0.677   0.609   0.674
    1   AR   Ar   57   5.498   3.427   3.280
    1   AR   Ar   58   0.094   4.137   4.046
    1   AR   Ar   59   1.710   5.433   6.001
    1   AR   Ar   60   1.139   6.378   3.802
    1   AR   Ar   61   6.409   4.786   5.811
    1   AR   Ar   62   0.724   4.815   5.110
    1   AR   Ar   63   2.346   0.543   6.760
    1   AR   Ar   64   1.024   6.671   4.897
    1   AR   Ar   65   3.737   7.117   0.731
    1   AR   Ar   66   0.728   1.402   1.708
    1   AR   Ar   67   2.804   6.145  -1.656
    1   AR   Ar   68   2.938   2.164  -0.791
    1   AR   Ar   69   2.532   0.992   1.172
    1   AR   Ar   70   0.618   6.977   1.908
    1   AR   Ar   71   2.790   1.496   4.043
    1   AR   Ar   72   3.374   0.499   1.689
    1   AR   Ar   73   3.339   0.624   3.695
    1   AR   Ar   74   2.065   0.408   3.910
    1   AR   Ar   75   3.753   1.142   4.416
    1   AR   Ar   76   1.481   0.827   2.336
    1   AR   Ar   77   2.169   6.347   6.130
    1   AR   Ar   78   1.404   0.284   6.374
    1   AR   Ar   79   3.876   6.197   6.265
    1   AR   Ar   80   3.590   5.265   5.699
    1   AR   Ar   81   2.675   0.381   0.008
    1   AR   Ar   82   6.725   6.130  -0.885
    1   AR   Ar   83   0.568   2.385   0.208
    1   AR   Ar   84   7.093   3.667  -0.394
    1   AR   Ar   85   0.770   3.256   1.118
    1   AR   Ar   86   2.316   3.937  -0.398
    1   AR   Ar   87   1.961   1.848   1.399
    1   AR   Ar   88   2.330   4.749   1.538
    1   AR   Ar   89   0.500   3.109   2.102
    1   AR   Ar   90   2.437   2.649   4.999
    1   AR   Ar   91   0.847   2.301   3.670
    1   AR   Ar   92   1.117   2.336   2.385
    1   AR   Ar   93   2.072   0.180   5.663
    1   AR   Ar   94   1.338   7.068  10.153
    1   AR   Ar   95   3.726   0.820   5.752
    1   AR   Ar   96   2.521   0.046   4.722
    1   AR   Ar   97   4.762   1.850  -0.882
    1   AR   Ar   98   2.364   5.475   2.505
    1   AR   Ar   99   6.507   2.640  -1.504
    1   AR   Ar  100   2.153   2.905  -0.602
    1   AR   Ar  101   3.255   4.390   0.877
    1   AR   Ar  102   3.301   2.945   4.204
    1   AR   Ar  103   1.110   4.853   0.597
    1   AR   Ar  104   3.289   2.841  -1.542
    1   AR   Ar  105   1.572   3.269   4.168
    1   AR   Ar  106   3.409   3.356   5.192
    1   AR   Ar  107   1.023   3.813   4.899
    1   AR   Ar  108   3.717   2.335   5.127
    1   AR   Ar  109   1.864   4.597   4.083
    1   AR   Ar  110   1.063   4.602   6.524
    1   AR   Ar  111   5.161   3.966   7.839
    1   AR   Ar  112   1.511   5.758   7.105
    1   AR   Ar  113   2.282   4.688   0.516
    1   AR   Ar  114   2.597   5.918  -0.424
    1   AR   Ar  115   2.341   4.953  -0.740
    1   AR   Ar  116   6.233   6.979  -1.542
    1   AR   Ar  117   1.143   5.210   3.532
    1   AR   Ar  118   1.268   5.534   2.626
    1   AR   Ar  119   2.086   3.550   2.621
    1   AR   Ar  120   1.498   6.602   2.261
    1   AR   Ar  121   6.376   4.226   4.869
    1   AR   Ar  122   2.742   5.963   4.944
    1   AR   Ar  123   3.820   4.367   5.015
    1   AR   Ar  124   2.049   5.965   1.557
    1   AR   Ar  125   0.340   4.015   6.015
    1   AR   Ar  126   7.102   6.983   4.446
    1   AR   Ar  127   3.309   4.008   6.087
    1   AR   Ar  128   2.780   5.626   6.533
    1   AR   Ar  129   2.453   6.661   2.863
    1   AR   Ar  130   5.045   2.732  -1.439
    1   AR   Ar  131   4.697   1.014  -0.124
    1   AR   Ar  132   0.559   1.316  -0.092
    1   AR   Ar  133   4.090   6.688   2.627
    1   AR   Ar  134   4.562   1.378   3.963
    1   AR   Ar  135   5.131   0.405   2.897
    1   AR   Ar  136   4.894   0.053   1.903
    1   AR   Ar  137   2.525   5.541   3.884
    1   AR   Ar  138   4.736   2.133   4.751
    1   AR   Ar  139   5.422   2.434   5.466
    1   AR   Ar  140   3.520   0.233   4.947
    1   AR   Ar  141   3.673   5.870   4.563
    1   AR   Ar  142   2.993   6.882   5.706
    1   AR   Ar  143   0.302   6.912   5.756
    1   AR   Ar  144   5.690   1.100   6.072
    1   AR   Ar  145   4.197   4.344   0.324
    1   AR   Ar  146   4.179   2.341   2.086
    1   AR   Ar  147   5.261   1.817  -1.926
    1   AR   Ar  148   3.298   4.674  -1.368
    1   AR   Ar  149   3.531   2.029   1.290
    1   AR   Ar  150   2.031   1.823   2.676
    1   AR   Ar  151   2.403   2.431   3.705
    1   AR   Ar  152   3.177   3.660   0.014
    1   AR   Ar  153   4.267   0.194   3.382
    1   AR   Ar  154   4.018   2.298   3.713
    1   AR   Ar  155   6.550   0.359   6.968
    1   AR   Ar  156   3.845   3.955   3.896
    1   AR   Ar  157   2.477   3.428   6.383
    1   AR   Ar  158   0.911   3.313   6.829
    1   AR   Ar  159   4.508   2.288   5.860
    1   AR   Ar  160   2.854   1.660   5.450
    1   AR   Ar  161   5.157   2.914   1.522
    1   AR   Ar  162   4.276   6.112  -0.411
    1   AR   Ar  163   5.480   3.349   0.466
    1   AR   Ar  164   3.304   5.454   1.906
    1   AR   Ar  165   3.879   3.200   1.089
    1   AR   Ar  166   2.630   4.014   4.656
    1   AR   Ar  167   4.269   0.972   2.038
    1   AR   Ar  168   4.878   3.107  -0.520
    1   AR   Ar  169   3.123   3.081   1.777
    1   AR   Ar  170   2.378   4.391   5.646
    1   AR   Ar  171   5.537   3.808   4.283
    1   AR   Ar  172   4.898   4.944   4.640
    1   AR   Ar  173   2.599   3.309   7.400
    1   AR   Ar  174   2.569   4.636   7.138
    1   AR   Ar  175   2.884   2.676   5.907
    1   AR   Ar  176   3.845   3.062   6.399
    1   AR   Ar  177   6.262   4.612   0.004
    1   AR   Ar  178   3.451   5.106  -0.058
    1   AR   Ar  179   4.265   5.183   0.925
    1   AR   Ar  180   0.822   1.924  -3.141
    1   AR   Ar  181   0.983   5.864   1.631
    1   AR   Ar  182   2.909   0.706   2.670
    1   AR   Ar  183   3.541   5.160   2.888
    1   AR   Ar  184   4.244   6.578   1.493
    1   AR   Ar  185   2.025   5.070   4.965
    1   AR   Ar  186   3.677   4.935   3.933
    1   AR   Ar  187   3.222   6.347   3.603
    1   AR   Ar  188   2.903   6.553   1.567
    1   AR   Ar  189   3.692   2.527   7.300
    1   AR   Ar  190   4.329   6.606   4.633
    1   AR   Ar  191   3.420   5.349   7.253
    1   AR   Ar  192   4.886   5.774   5.396
    1   AR   Ar  193   1.396   6.054   0.119
    1   AR   Ar  194   3.967   3.968  -0.717
    1   AR   Ar  195   5.705   0.738  -0.614
    1   AR   Ar  196   4.836   7.001  -0.188
    1   AR   Ar  197   4.259   1.439   0.866
    1   AR   Ar  198   6.794   1.208   0.537
    1   AR   Ar  199   4.401   1.522   2.905
    1   AR   Ar  200   5.710   1.984   0.198
    1   AR   Ar  201   5.007   6.588   3.493
    1   AR   Ar  202   5.725   2.784   4.388
    1   AR   Ar  203   6.183   6.568   3.840
    1   AR   Ar  204   5.385   7.108   4.708
    1   AR   Ar  205   6.257   7.020   2.934
    1   AR   Ar  206   4.494   0.839   5.015
    1   AR   Ar  207   0.736   1.227   6.303
    1   AR   Ar  208   0.173   0.013   3.350
    1   AR   Ar  209   5.726   3.129  -2.395
    1   AR   Ar  210   3.504   0.922   0.398
    1   AR   Ar  211   6.727   3.006   0.372
    1   AR   Ar  212   6.058   3.577  -1.561
    1   AR   Ar  213   3.208   1.852   2.280
    1   AR   Ar  214   4.511   2.838   2.927
    1   AR   Ar  215   5.937   2.273   1.276
    1   AR   Ar  216   1.223   3.999   1.889
    1   AR   Ar  217   4.689   3.421   4.311
    1   AR   Ar  218   4.475   3.235   5.382
    1   AR   Ar  219   5.057   2.382   3.750
    1   AR   Ar  220   4.341   3.562   2.059
    1   AR   Ar  221   6.189   6.560   5.012
    1   AR   Ar  222   4.603   1.591   7.056
    1   AR   Ar  223   0.355   0.862   7.179
    1   AR   Ar  224   4.897   3.557   6.394
    1   AR   Ar  225   6.252   3.477   2.018
    1   AR   Ar  226   3.601   3.897   2.813
    1   AR   Ar  227   6.919   4.221   1.272
    1   AR   Ar  228   5.581   6.490   1.407
    1   AR   Ar  229   5.189   4.128  -0.489
    1   AR   Ar  230   4.642   3.948   3.073
    1   AR   Ar  231   5.963   1.054   2.811
    1   AR   Ar  232   4.526   2.432   0.898
    1   AR   Ar  233   6.341   2.022   3.411
    1   AR   Ar  234   6.592   3.281   4.271
    1   AR   Ar  235   6.963   2.117   4.597
    1   AR   Ar  236   5.707   5.183   5.177
    1   AR   Ar  237   5.511   3.553   5.369
    1   AR   Ar  238   4.442   4.707   5.781
    1   AR   Ar  239   6.477   4.186   8.772
    1   AR   Ar  240   7.006   3.212   6.607
    1   AR   Ar  241   1.038   6.646  -0.757
    1   AR   Ar  242   5.141   4.785   0.371
    1   AR   Ar  243   5.519   4.591   2.694
    1   AR   Ar  244   0.930   5.378  -0.574
    1   AR   Ar  245   4.934   0.466   0.730
    1   AR   Ar  246   5.680   5.649   0.766
    1   AR   Ar  247   4.884   4.404   1.410
    1   AR   Ar  248   5.539   5.587  -0.247
    1   AR   Ar  249   4.213   5.775   2.196
    1   AR   Ar  250   5.511   5.857   4.299
    1   AR   Ar  251   5.790   4.878   3.774
    1   AR   Ar  252   4.875   5.287   3.057
    1   AR   Ar  253   6.214   3.898   6.368
    1   AR   Ar  254   1.973   5.234   8.691
    1   AR   Ar  255   4.857   2.913   7.269
    1   AR   Ar  256   7.107   6.119   3.797
    7.12000  7.12000 12.00000
Argon-slab step 2885
  256
    1   AR   Ar    1   6.605   1.240  -1.318
    1   AR   Ar    2   6.742   7.096   1.011
    1   AR   Ar    3   1.707   1.128   0.428
    1   AR   Ar    4   1.222   0.664  -0.777
    1   AR   Ar    5   0.201   6.036   0.386
    1   AR   Ar    6   0.068   0.830   2.353
    1   AR   Ar    7   6.307   4.095   3.292
    1   AR   Ar    8   5.986   0.591   1.733
    1   AR   Ar    9   1.230   0.195   3.267
    1   AR   Ar   10   0.741   0.997   4.155
    1   AR   Ar   11   2.179   6.423   4.145
    1   AR   Ar   12   0.894   1.450   3.028
    1   AR   Ar   13   6.706   0.943   5.159
    1   AR   Ar   14   0.819   1.970   7.209
    1   AR   Ar   15   5.536   0.964  10.475
    1   AR   Ar   16   1.210   0.663   5.191
    1   AR   Ar   17   6.637   1.993  -0.101
    1   AR   Ar   18   6.029   3.104  -0.537
    1   AR   Ar   19   1.716   3.013   1.568
    1   AR   Ar   20   4.916   4.162  -2.234
    1   AR   Ar   21   5.127   1.554   1.477
    1   AR   Ar   22   6.402   1.964   2.296
    1   AR   Ar   23   6.960   0.438  -0.499
    1   AR   Ar   24   0.285   2.326   1.378
    1   AR   Ar   25   6.834   0.976   3.815
    1   AR   Ar   26   5.648   1.278   4.109
    1   AR   Ar   27   1.637   1.601   4.040
    1   AR   Ar   28   0.814   2.421   4.810
    1   AR   Ar   29   5.320   2.213   6.567
    1   AR   Ar   30   2.005   1.304   4.994
    1   AR   Ar   31   1.705   7.060   7.667
    1   AR   Ar   32   1.402   2.822   5.605
    1   AR   Ar   33   1.312   4.370  -0.698
    1   AR   Ar   34   0.138   5.280   2.968
    1   AR   Ar   35   6.173   4.938   1.745
    1   AR   Ar   36   7.094   0.561  -3.791
    1   AR   Ar   37   5.442   2.489   2.521
    1   AR   Ar   38   0.181   4.052   2.497
    1   AR   Ar   39   1.082   3.199   3.050
    1   AR   Ar   40   2.057   3.683   0.754
    1   AR   Ar   41   0.563   3.331   3.972
    1   AR   Ar   42   6.524   5.674   4.536
    1   AR   Ar   43   6.979   2.198   6.099
    1   AR   Ar   44   0.810   4.177   3.368
    1   AR   Ar   45   0.299   3.063   5.547
    1   AR   Ar   46   1.122   6.332   6.030
    1   AR   Ar   47   6.153   3.312   7.318
    1   AR   Ar   48   0.459   6.778   6.865
    1   AR   Ar   49   5.668   0.749  -1.702
    1   AR   Ar   50   5.090   5.699   1.764
    1   AR   Ar   51   0.377   4.980   1.965
    1   AR   Ar   52   5.753   4.803  -0.972
    1   AR   Ar   53   5.316   6.416   2.428
    1   AR   Ar   54   0.037   6.312   2.691
    1   AR   Ar   55   6.260   5.763   2.457
    1   AR   Ar   56   0.648   0.608   0.708
    1   AR   Ar   57   5.527   3.396   3.269
    1   AR   Ar   58   0.066   4.166   4.052
    1   AR   Ar   59   1.707   5.386   6.006
    1   AR   Ar   60   1.103   6.357   3.799
    1   AR   Ar   61   6.412   4.828   5.823
    1   AR   Ar   62   0.737   4.822   5.084
    1   AR   Ar   63   2.313   0.568   6.754
    1   AR   Ar   64   1.097   6.670   4.908
    1   AR   Ar   65   3.736   0.009   0.717
    1   AR   Ar   66   0.742   1.392   1.702
    1   AR   Ar   67   2.805   6.142  -1.677
    1   AR   Ar   68   2.919   2.177  -0.766
    1   AR   Ar   69   2.533   1.012   1.164
    1   AR   Ar   70   0.633   6.973   1.899
    1   AR   Ar   71   2.783   1.468   4.056
    1   AR   Ar   72   3.343   0.501   1.691
    1   AR   Ar   73   3.334   0.615   3.659
    1   AR   Ar   74   2.086   0.417   3.899
    1   AR   Ar   75   3.755   1.184   4.439
    1   AR   Ar   76   1.493   0.831   2.310
    1   AR   Ar   77   2.156   6.331   6.155
    1   AR   Ar   78   1.354   0.272   6.376
    1   AR   Ar   79   3.882   6.217   6.269
    1   AR   Ar   80   3.589   5.217   5.701
    1   AR   Ar   81   2.674   0.349   0.035
    1   AR   Ar   82   6.731   6.133  -0.881
    1   AR   Ar   83   0.615   2.379   0.220
    1   AR   Ar   84   7.093   3.655  -0.366
    1   AR   Ar   85   0.774   3.234   1.126
    1   AR   Ar   86   2.322   3.934  -0.420
    1   AR   Ar   87   1.946   1.833   1.366
    1   AR   Ar   88   2.337   4.752   1.500
    1   AR   Ar   89   0.498   3.113   2.081
    1   AR   Ar   90   2.429   2.658   4.977
    1   AR   Ar   91   0.859   2.347   3.684
    1   AR   Ar   92   1.123   2.313   2.382
    1   AR   Ar   93   2.039   0.163   5.664
    1   AR   Ar   94   1.321   7.057  10.167
    1   AR   Ar   95   3.717   0.864   5.744
    1   AR   Ar   96   2.510   0.045   4.752
    1   AR   Ar   97   4.768   1.830  -0.893
    1   AR   Ar   98   2.355   5.457   2.497
    1   AR   Ar   99   6.491   2.639  -1.539
    1   AR   Ar  100   2.179   2.895  -0.617
    1   AR   Ar  101   3.301   4.414   0.846
    1   AR   Ar  102   3.312   2.933   4.199
    1   AR   Ar  103   1.112   4.862   0.649
    1   AR   Ar  104   3.279   2.858  -1.542
    1   AR   Ar  105   1.554   3.254   4.179
    1   AR   Ar  106   3.407   3.358   5.205
    1   AR   Ar  107   1.017   3.833   4.902
    1   AR   Ar  108   3.679   2.375   5.090
    1   AR   Ar  109   1.869   4.629   4.102
    1   AR   Ar  110   1.071   4.597   6.523
    1   AR   Ar  111   5.135   3.992   7.856
    1   AR   Ar  112   1.512   5.761   7.100
    1   AR   Ar  113   2.294   4.704   0.527
    1   AR   Ar  114   2.576   5.963  -0.443
    1   AR   Ar  115   2.358   4.936  -0.719
    1   AR   Ar  116   6.275   6.959  -1.558
    1   AR   Ar  117   1.161   5.183   3.546
    1   AR   Ar  118   1.283   5.538   2.652
    1   AR   Ar  119   2.109   3.543   2.639
    1   AR   Ar  120   1.529   6.613   2.276
    1   AR   Ar  121   6.375   4.254   4.900
    1   AR   Ar  122   2.737   5.981   4.971
    1   AR   Ar  123   3.816   4.376   4.995
    1   AR   Ar  124   2.037   5.958   1.568
    1   AR   Ar  125   0.352   4.015   6.008
    1   AR   Ar  126   7.084   6.968   4.457
    1   AR   Ar  127   3.344   4.005   6.089
    1   AR   Ar  128   2.773   5.645   6.537
    1   AR   Ar  129   2.476   6.641   2.858
    1   AR   Ar  130   5.044   2.727  -1.445
    1   AR   Ar  131   4.701   1.027  -0.112
    1   AR   Ar  132   0.535   1.341  -0.082
    1   AR   Ar  133   4.109   6.702   2.648
    1   AR   Ar  134   4.549   1.382   3.952
    1   AR   Ar  135   5.154   0.399   2.897
    1   AR   Ar  136   4.864   0.056   1.895
    1   AR   Ar  137   2.556   5.532   3.893
    1   AR   Ar  138   4.724   2.132   4.752
    1   AR   Ar  139   5.432   2.430   5.457
    1   AR   Ar  140   3.545   0.218   4.966
    1   AR   Ar  141   3.656   5.883   4.550
    1   AR   Ar  142   3.021   6.880   5.693
    1   AR   Ar  143   0.316   6.949   5.752
    1   AR   Ar  144   5.673   1.110   6.064
    1   AR   Ar  145   4.179   4.295   0.323
    1   AR   Ar  146   4.134   2.338   2.099
    1   AR   Ar  147   5.246   1.832  -1.904
    1   AR   Ar  148   3.255   4.679  -1.384
    1   AR   Ar  149   3.537   2.015   1.271
    1   AR   Ar  150   2.021   1.804   2.686
    1   AR   Ar  151   2.376   2.437   3.721
    1   AR   Ar  152   3.172   3.680   0.007
    1   AR   Ar  153   4.273   0.215   3.417
    1   AR   Ar  154   4.015   2.301   3.687
    1   AR   Ar  155   6.554   0.344   7.001
    1   AR   Ar  156   3.869   3.930   3.919
    1   AR   Ar  157   2.455   3.412   6.389
    1   AR   Ar  158   0.917   3.285   6.849
    1   AR   Ar  159   4.505   2.292   5.857
    1   AR   Ar  160   2.868   1.657   5.468
    1   AR   Ar  161   5.143   2.924   1.545
    1   AR   Ar  162   4.261   6.073  -0.389
    1   AR   Ar  163   5.471   3.350   0.490
    1   AR   Ar  164   3.300   5.425   1.916
    1   AR   Ar  165   3.881   3.172   1.055
    1   AR   Ar  166   2.636   3.996   4.645
    1   AR   Ar  167   4.274   0.962   2.044
    1   AR   Ar  168   4.909   3.119  -0.543
    1   AR   Ar  169   3.129   3.110   1.810
    1   AR   Ar  170   2.359   4.372   5.621
    1   AR   Ar  171   5.547   3.829   4.274
    1   AR   Ar  172   4.884   4.963   4.626
    1   AR   Ar  173   2.616   3.289   7.396
    1   AR   Ar  174   2.539   4.643   7.149
    1   AR   Ar  175   2.843   2.692   5.890
    1   AR   Ar  176   3.874   3.074   6.418
    1   AR   Ar  177   6.248   4.586  -0.008
    1   AR   Ar  178   3.464   5.105  -0.068
    1   AR   Ar  179   4.256   5.172   0.932
    1   AR   Ar  180   0.798   1.914  -3.171
    1   AR   Ar  181   0.987   5.843   1.646
    1   AR   Ar  182   2.926   0.668   2.690
    1   AR   Ar  183   3.543   5.174   2.889
    1   AR   Ar  184   4.243   6.580   1.481
    1   AR   Ar  185   2.052   5.097   4.984
    1   AR   Ar  186   3.678   4.909   3.934
    1   AR   Ar  187   3.237   6.377   3.594
    1   AR   Ar  188   2.903   6.551   1.575
    1   AR   Ar  189   3.706   2.560   7.306
    1   AR   Ar  190   4.312   6.615   4.626
    1   AR   Ar  191   3.431   5.359   7.296
    1   AR   Ar  192   4.868   5.784   5.370
    1   AR   Ar  193   1.425   6.039   0.107
    1   AR   Ar  194   3.987   3.947  -0.761
    1   AR   Ar  195   5.699   0.758  -0.614
    1   AR   Ar  196   4.833   6.988  -0.173
    1   AR   Ar  197   4.245   1.392   0.871
    1   AR   Ar  198   6.783   1.205   0.552
    1   AR   Ar  199   4.379   1.503   2.900
    1   AR   Ar  200   5.689   1.969   0.190
    1   AR   Ar  201   5.022   6.573   3.487
    1   AR   Ar  202   5.743   2.752   4.415
    1   AR   Ar  203   6.192   6.561   3.857
    1   AR   Ar  204   5.374   7.095   4.731
    1   AR   Ar  205   6.247   7.027   2.909
    1   AR   Ar  206   4.509   0.814   5.022
    1   AR   Ar  207   0.728   1.238   6.317
    1   AR   Ar  208   0.151   0.020   3.362
    1   AR   Ar  209   5.800   3.131  -2.422
    1   AR   Ar  210   3.494   0.948   0.360
    1   AR   Ar  211   6.732   3.017   0.356
    1   AR   Ar  212   6.025   3.584  -1.561
    1   AR   Ar  213   3.201   1.816   2.275
    1   AR   Ar  214   4.536   2.882   2.924
    1   AR   Ar  215   5.913   2.243   1.263
    1   AR   Ar  216   1.245   3.996   1.884
    1   AR   Ar  217   4.659   3.445   4.339
    1   AR   Ar  218   4.471   3.212   5.362
    1   AR   Ar  219   5.038   2.384   3.757
    1   AR   Ar  220   4.320   3.556   2.074
    1   AR   Ar  221   6.200   6.548   4.977
    1   AR   Ar  222   4.598   1.608   7.074
    1   AR   Ar  223   0.354   0.878   7.186
    1   AR   Ar  224   4.884   3.581   6.395
    1   AR   Ar  225   6.251   3.458   2.043
    1   AR   Ar  226   3.586   3.889   2.827
    1   AR   Ar  227   6.908   4.228   1.276
    1   AR   Ar  228   5.596   6.491   1.407
    1   AR   Ar  229   5.180   4.125  -0.479
    1   AR   Ar  230   4.617   3.953   3.102
    1   AR   Ar  231   5.957   1.034   2.806
    1   AR   Ar  232   4.516   2.418   0.866
    1   AR   Ar  233   6.338   2.023   3.410
    1   AR   Ar  234   6.591   3.282   4.236
    1   AR   Ar  235   6.937   2.115   4.591
    1   AR   Ar  236   5.690   5.198   5.179
    1   AR   Ar  237   5.530   3.575   5.329
    1   AR   Ar  238   4.435   4.698   5.809
    1   AR   Ar  239   6.443   4.167   8.736
    1   AR   Ar  240   6.988   3.195   6.639
    1   AR   Ar  241   1.031   6.628  -0.719
    1   AR   Ar  242   5.158   4.778   0.374
    1   AR   Ar  243   5.503   4.606   2.692
    1   AR   Ar  244   0.928   5.424  -0.582
    1   AR   Ar  245   4.899   0.470   0.770
    1   AR   Ar  246   5.658   5.664   0.774
    1   AR   Ar  247   4.904   4.411   1.423
    1   AR   Ar  248   5.530   5.601  -0.252
    1   AR   Ar  249   4.204   5.777   2.226
    1   AR   Ar  250   5.486   5.854   4.269
    1   AR   Ar  251   5.774   4.908   3.778
    1   AR   Ar  252   4.885   5.308   3.043
    1   AR   Ar  253   6.208   3.907   6.363
    1   AR   Ar  254   1.971   5.191   8.712
    1   AR   Ar  255   4.866   2.932   7.288
    1   AR   Ar  256   7.114   6.112   3.795
    7.12000  7.12000 12.00000
Argon-slab step 2890
  256
    1   AR   Ar    1   6.635   1.248  -1.352
    1   AR   Ar    2   6.737   7.094   0.987
    1   AR   Ar    3   1.756   1.124   0.456
    1   AR   Ar    4   1.205   0.691  -0.799
    1   AR   Ar    5   0.212   6.027   0.408
    1   AR   Ar    6   0.046   0.841   2.342
    1   AR   Ar    7   6.300   4.115   3.298
    1   AR   Ar    8   5.962   0.598   1.745
    1   AR   Ar    9   1.209   0.180   3.265
    1   AR   Ar   10   0.766   0.987   4.145
    1   AR   Ar   11   2.179   6.424   4.123
    1   AR   Ar   12   0.900   1.443   3.041
    1   AR   Ar   13   6.687   0.926   5.126
    1   AR   Ar   14   0.805   1.985   7.232
    1   AR   Ar   15   5.517   0.971  10.497
    1   AR   Ar   16   1.216   0.670   5.188
    1   AR   Ar   17   6.638   1.974  -0.122
    1   AR   Ar   18   6.035   3.132  -0.529
    1   AR   Ar   19   1.709   2.977   1.560
    1   AR   Ar   20   4.904   4.152  -2.203
    1   AR   Ar   21   5.152   1.605   1.449
    1   AR   Ar   22   6.375   1.975   2.277
    1   AR   Ar   23   6.928   0.444  -0.513
    1   AR   Ar   24   0.266   2.330   1.343
    1   AR   Ar   25   6.829   0.988   3.797
    1   AR   Ar   26   5.675   1.280   4.076
    1   AR   Ar   27   1.634   1.599   4.028
    1   AR   Ar   28   0.824   2.426   4.864
    1   AR   Ar   29   5.305   2.228   6.562
    1   AR   Ar   30   2.003   1.290   4.990
    1   AR   Ar   31   1.721   7.075   7.655
    1   AR   Ar   32   1.403   2.834   5.613
    1   AR   Ar   33   1.328   4.354  -0.684
    1   AR   Ar   34   0.151   5.311   2.954
    1   AR   Ar   35   6.197   4.954   1.727
    1   AR   Ar   36   7.075   0.557  -3.799
    1   AR   Ar   37   5.411   2.470   2.523
    1   AR   Ar   38   0.233   4.064   2.490
    1   AR   Ar   39   1.099   3.206   3.065
    1   AR   Ar   40   2.044   3.683   0.770
    1   AR   Ar   41   0.548   3.321   4.006
    1   AR   Ar   42   6.494   5.641   4.529
    1   AR   Ar   43   6.992   2.178   6.076
    1   AR   Ar   44   0.826   4.201   3.409
    1   AR   Ar   45   0.290   3.086   5.574
    1   AR   Ar   46   1.129   6.323   6.035
    1   AR   Ar   47   6.164   3.304   7.290
    1   AR   Ar   48   0.450   6.739   6.862
    1   AR   Ar   49   5.630   0.741  -1.668
    1   AR   Ar   50   5.105   5.697   1.763
    1   AR   Ar   51   0.381   4.976   1.959
    1   AR   Ar   52   5.728   4.793  -0.958
    1   AR   Ar   53   5.321   6.428   2.435
    1   AR   Ar   54   0.050   6.313   2.696
    1   AR   Ar   55   6.280   5.748   2.447
    1   AR   Ar   56   0.620   0.606   0.744
    1   AR   Ar   57   5.554   3.361   3.259
    1   AR   Ar   58   0.024   4.210   4.064
    1   AR   Ar   59   1.709   5.388   6.034
    1   AR   Ar   60   1.066   6.338   3.821
    1   AR   Ar   61   6.418   4.869   5.837
    1   AR   Ar   62   0.750   4.833   5.058
    1   AR   Ar   63   2.280   0.592   6.747
    1   AR   Ar   64   1.170   6.670   4.919
    1   AR   Ar   65   3.710   0.052   0.718
    1   AR   Ar   66   0.758   1.381   1.696
    1   AR   Ar   67   2.805   6.137  -1.697
    1   AR   Ar   68   2.903   2.185  -0.741
    1   AR   Ar   69   2.538   1.029   1.154
    1   AR   Ar   70   0.644   6.972   1.888
    1   AR   Ar   71   2.772   1.440   4.069
    1   AR   Ar   72   3.314   0.503   1.693
    1   AR   Ar   73   3.326   0.603   3.624
    1   AR   Ar   74   2.107   0.429   3.885
    1   AR   Ar   75   3.737   1.228   4.473
    1   AR   Ar   76   1.505   0.834   2.284
    1   AR   Ar   77   2.141   6.323   6.177
    1   AR   Ar   78   1.294   0.259   6.384
    1   AR   Ar   79   3.886   6.237   6.272
    1   AR   Ar   80   3.579   5.175   5.700
    1   AR   Ar   81   2.672   0.316   0.062
    1   AR   Ar   82   6.737   6.137  -0.877
    1   AR   Ar   83   0.661   2.375   0.234
    1   AR   Ar   84   7.093   3.647  -0.341
    1   AR   Ar   85   0.788   3.215   1.122
    1   AR   Ar   86   2.318   3.933  -0.445
    1   AR   Ar   87   1.926   1.823   1.336
    1   AR   Ar   88   2.344   4.757   1.477
    1   AR   Ar   89   0.494   3.119   2.069
    1   AR   Ar   90   2.418   2.666   4.946
    1   AR   Ar   91   0.873   2.391   3.699
    1   AR   Ar   92   1.129   2.292   2.382
    1   AR   Ar   93   2.015   0.159   5.674
    1   AR   Ar   94   1.303   7.046  10.181
    1   AR   Ar   95   3.727   0.888   5.750
    1   AR   Ar   96   2.503   0.046   4.787
    1   AR   Ar   97   4.774   1.810  -0.903
    1   AR   Ar   98   2.348   5.439   2.489
    1   AR   Ar   99   6.475   2.636  -1.573
    1   AR   Ar  100   2.201   2.886  -0.631
    1   AR   Ar  101   3.343   4.440   0.819
    1   AR   Ar  102   3.322   2.923   4.195
    1   AR   Ar  103   1.115   4.873   0.702
    1   AR   Ar  104   3.257   2.853  -1.537
    1   AR   Ar  105   1.545   3.235   4.189
    1   AR   Ar  106   3.402   3.365   5.218
    1   AR   Ar  107   1.010   3.850   4.905
    1   AR   Ar  108   3.656   2.390   5.070
    1   AR   Ar  109   1.874   4.655   4.117
    1   AR   Ar  110   1.086   4.592   6.513
    1   AR   Ar  111   5.110   4.017   7.871
    1   AR   Ar  112   1.514   5.764   7.093
    1   AR   Ar  113   2.305   4.721   0.520
    1   AR   Ar  114   2.555   6.008  -0.462
    1   AR   Ar  115   2.395   4.948  -0.700
    1   AR   Ar  116   6.317   6.939  -1.573
    1   AR   Ar  117   1.175   5.155   3.573
    1   AR   Ar  118   1.297   5.549   2.664
    1   AR   Ar  119   2.130   3.535   2.655
    1   AR   Ar  120   1.562   6.624   2.295
    1   AR   Ar  121   6.373   4.281   4.929
    1   AR   Ar  122   2.727   6.002   5.002
    1   AR   Ar  123   3.788   4.363   5.000
    1   AR   Ar  124   2.026   5.948   1.579
    1   AR   Ar  125   0.363   4.016   6.000
    1   AR   Ar  126   7.067   6.955   4.468
    1   AR   Ar  127   3.348   3.995   6.061
    1   AR   Ar  128   2.770   5.658   6.541
    1   AR   Ar  129   2.499   6.620   2.852
    1   AR   Ar  130   5.052   2.716  -1.453
    1   AR   Ar  131   4.704   1.042  -0.102
    1   AR   Ar  132   0.510   1.365  -0.074
    1   AR   Ar  133   4.135   6.717   2.666
    1   AR   Ar  134   4.554   1.387   3.932
    1   AR   Ar  135   5.175   0.390   2.894
    1   AR   Ar  136   4.846   0.075   1.892
    1   AR   Ar  137   2.570   5.508   3.885
    1   AR   Ar  138   4.708   2.130   4.753
    1   AR   Ar  139   5.449   2.430   5.447
    1   AR   Ar  140   3.575   0.203   4.974
    1   AR   Ar  141   3.636   5.885   4.533
    1   AR   Ar  142   3.048   6.872   5.686
    1   AR   Ar  143   0.329   6.989   5.747
    1   AR   Ar  144   5.656   1.123   6.054
    1   AR   Ar  145   4.166   4.234   0.328
    1   AR   Ar  146   4.092   2.336   2.111
    1   AR   Ar  147   5.233   1.841  -1.884
    1   AR   Ar  148   3.213   4.683  -1.399
    1   AR   Ar  149   3.538   2.005   1.251
    1   AR   Ar  150   2.012   1.784   2.696
    1   AR   Ar  151   2.347   2.444   3.738
    1   AR   Ar  152   3.177   3.698   0.006
    1   AR   Ar  153   4.279   0.241   3.459
    1   AR   Ar  154   4.011   2.305   3.665
    1   AR   Ar  155   6.558   0.328   7.033
    1   AR   Ar  156   3.888   3.899   3.941
    1   AR   Ar  157   2.424   3.412   6.400
    1   AR   Ar  158   0.924   3.258   6.868
    1   AR   Ar  159   4.494   2.293   5.857
    1   AR   Ar  160   2.885   1.641   5.477
    1   AR   Ar  161   5.128   2.937   1.571
    1   AR   Ar  162   4.246   6.032  -0.365
    1   AR   Ar  163   5.452   3.337   0.518
    1   AR   Ar  164   3.288   5.396   1.919
    1   AR   Ar  165   3.881   3.151   1.023
    1   AR   Ar  166   2.644   3.976   4.633
    1   AR   Ar  167   4.278   0.949   2.044
    1   AR   Ar  168   4.937   3.131  -0.556
    1   AR   Ar  169   3.134   3.139   1.846
    1   AR   Ar  170   2.342   4.349   5.603
    1   AR   Ar  171   5.572   3.859   4.262
    1   AR   Ar  172   4.862   4.977   4.606
    1   AR   Ar  173   2.634   3.269   7.397
    1   AR   Ar  174   2.510   4.650   7.159
    1   AR   Ar  175   2.815   2.694   5.872
    1   AR   Ar  176   3.863   3.085   6.426
    1   AR   Ar  177   6.232   4.560  -0.019
    1   AR   Ar  178   3.492   5.103  -0.067
    1   AR   Ar  179   4.246   5.164   0.941
    1   AR   Ar  180   0.777   1.903  -3.178
    1   AR   Ar  181   0.987   5.822   1.661
    1   AR   Ar  182   2.941   0.631   2.707
    1   AR   Ar  183   3.545   5.186   2.894
    1   AR   Ar  184   4.230   6.569   1.462
    1   AR   Ar  185   2.075   5.115   4.989
    1   AR   Ar  186   3.689   4.924   3.941
    1   AR   Ar  187   3.253   6.408   3.586
    1   AR   Ar  188   2.907   6.551   1.584
    1   AR   Ar  189   3.711   2.588   7.317
    1   AR   Ar  190   4.285   6.640   4.614
    1   AR   Ar  191   3.444   5.368   7.340
    1   AR   Ar  192   4.845   5.798   5.344
    1   AR   Ar  193   1.456   6.024   0.099
    1   AR   Ar  194   4.007   3.925  -0.805
    1   AR   Ar  195   5.694   0.778  -0.613
    1   AR   Ar  196   4.831   6.977  -0.157
    1   AR   Ar  197   4.239   1.342   0.878
    1   AR   Ar  198   6.768   1.198   0.568
    1   AR   Ar  199   4.356   1.488   2.899
    1   AR   Ar  200   5.664   1.949   0.182
    1   AR   Ar  201   5.032   6.590   3.511
    1   AR   Ar  202   5.757   2.716   4.447
    1   AR   Ar  203   6.197   6.556   3.875
    1   AR   Ar  204   5.358   7.085   4.751
    1   AR   Ar  205   6.235   7.035   2.880
    1   AR   Ar  206   4.530   0.786   5.030
    1   AR   Ar  207   0.723   1.252   6.323
    1   AR   Ar  208   0.129   0.029   3.376
    1   AR   Ar  209   5.871   3.128  -2.456
    1   AR   Ar  210   3.478   0.977   0.319
    1   AR   Ar  211   6.735   3.023   0.344
    1   AR   Ar  212   5.990   3.597  -1.551
    1   AR   Ar  213   3.192   1.777   2.272
    1   AR   Ar  214   4.561   2.927   2.924
    1   AR   Ar  215   5.894   2.214   1.248
    1   AR   Ar  216   1.224   3.977   1.871
    1   AR   Ar  217   4.619   3.456   4.368
    1   AR   Ar  218   4.467   3.191   5.343
    1   AR   Ar  219   5.023   2.385   3.760
    1   AR   Ar  220   4.299   3.565   2.087
    1   AR   Ar  221   6.213   6.535   4.945
    1   AR   Ar  222   4.591   1.626   7.091
    1   AR   Ar  223   0.353   0.892   7.199
    1   AR   Ar  224   4.872   3.604   6.393
    1   AR   Ar  225   6.250   3.439   2.069
    1   AR   Ar  226   3.570   3.881   2.841
    1   AR   Ar  227   6.897   4.234   1.281
    1   AR   Ar  228   5.615   6.502   1.405
    1   AR   Ar  229   5.176   4.123  -0.476
    1   AR   Ar  230   4.593   3.961   3.132
    1   AR   Ar  231   5.949   0.982   2.777
    1   AR   Ar  232   4.512   2.398   0.831
    1   AR   Ar  233   6.335   2.024   3.411
    1   AR   Ar  234   6.569   3.267   4.240
    1   AR   Ar  235   6.907   2.112   4.583
    1   AR   Ar  236   5.682   5.214   5.180
    1   AR   Ar  237   5.549   3.597   5.290
    1   AR   Ar  238   4.437   4.684   5.839
    1   AR   Ar  239   6.409   4.148   8.699
    1   AR   Ar  240   6.972   3.178   6.669
    1   AR   Ar  241   1.024   6.610  -0.682
    1   AR   Ar  242   5.176   4.772   0.378
    1   AR   Ar  243   5.491   4.617   2.683
    1   AR   Ar  244   0.925   5.469  -0.592
    1   AR   Ar  245   4.864   0.471   0.816
    1   AR   Ar  246   5.638   5.676   0.787
    1   AR   Ar  247   4.925   4.418   1.436
    1   AR   Ar  248   5.507   5.612  -0.250
    1   AR   Ar  249   4.195   5.776   2.261
    1   AR   Ar  250   5.458   5.852   4.241
    1   AR   Ar  251   5.757   4.938   3.783
    1   AR   Ar  252   4.889   5.337   3.033
    1   AR   Ar  253   6.201   3.915   6.358
    1   AR   Ar  254   1.970   5.147   8.734
    1   AR   Ar  255   4.843   2.931   7.285
    1   AR   Ar  256   0.008   6.103   3.788
    7.12000  7.12000 12.00000
Argon-slab step 2895
  256
    1   AR   Ar    1   6.664   1.255  -1.385
    1   AR   Ar    2   6.732   7.092   0.964
    1   AR   Ar    3   1.802   1.119   0.481
    1   AR   Ar    4   1.187   0.718  -0.820
    1   AR   Ar    5   0.224   6.017   0.429
    1   AR   Ar    6   0.022   0.851   2.333
    1   AR   Ar    7   6.295   4.136   3.305
    1   AR   Ar    8   5.955   0.540   1.725
    1   AR   Ar    9   1.189   0.166   3.261
    1   AR   Ar   10   0.790   0.976   4.135
    1   AR   Ar   11   2.174   6.429   4.100
    1   AR   Ar   12   0.907   1.434   3.055
    1   AR   Ar   13   6.668   0.909   5.092
    1   AR   Ar   14   0.791   1.999   7.252
    1   AR   Ar   15   5.498   0.978  10.518
    1   AR   Ar   16   1.214   0.673   5.184
    1   AR   Ar   17   6.645   1.959  -0.148
    1   AR   Ar   18   6.041   3.160  -0.522
    1   AR   Ar   19   1.722   2.940   1.533
    1   AR   Ar   20   4.892   4.140  -2.171
    1   AR   Ar   21   5.166   1.646   1.425
    1   AR   Ar   22   6.349   1.985   2.258
    1   AR   Ar   23   6.895   0.451  -0.527
    1   AR   Ar   24   0.246   2.330   1.308
    1   AR   Ar   25   6.824   1.000   3.778
    1   AR   Ar   26   5.697   1.285   4.049
    1   AR   Ar   27   1.631   1.599   4.013
    1   AR   Ar   28   0.833   2.430   4.913
    1   AR   Ar   29   5.294   2.245   6.556
    1   AR   Ar   30   2.022   1.297   5.002
    1   AR   Ar   31   1.737   7.089   7.641
    1   AR   Ar   32   1.407   2.849   5.625
    1   AR   Ar   33   1.322   4.333  -0.681
    1   AR   Ar   34   0.165   5.338   2.944
    1   AR   Ar   35   6.241   4.988   1.702
    1   AR   Ar   36   7.056   0.552  -3.807
    1   AR   Ar   37   5.418   2.474   2.563
    1   AR   Ar   38   0.214   4.057   2.483
    1   AR   Ar   39   1.118   3.215   3.076
    1   AR   Ar   40   2.024   3.680   0.768
    1   AR   Ar   41   0.527   3.311   4.042
    1   AR   Ar   42   6.464   5.602   4.520
    1   AR   Ar   43   7.006   2.157   6.053
    1   AR   Ar   44   0.845   4.222   3.446
    1   AR   Ar   45   0.281   3.106   5.599
    1   AR   Ar   46   1.132   6.314   6.039
    1   AR   Ar   47   6.169   3.296   7.266
    1   AR   Ar   48   0.443   6.701   6.858
    1   AR   Ar   49   5.593   0.733  -1.636
    1   AR   Ar   50   5.119   5.683   1.758
    1   AR   Ar   51   0.384   4.971   1.951
    1   AR   Ar   52   5.709   4.790  -0.950
    1   AR   Ar   53   5.340   6.436   2.458
    1   AR   Ar   54   0.065   6.319   2.699
    1   AR   Ar   55   6.288   5.709   2.435
    1   AR   Ar   56   0.590   0.604   0.781
    1   AR   Ar   57   5.561   3.366   3.246
    1   AR   Ar   58   7.096   4.260   4.080
    1   AR   Ar   59   1.711   5.384   6.062
    1   AR   Ar   60   1.030   6.320   3.843
    1   AR   Ar   61   6.427   4.909   5.854
    1   AR   Ar   62   0.763   4.848   5.034
    1   AR   Ar   63   2.247   0.615   6.739
    1   AR   Ar   64   1.244   6.671   4.931
    1   AR   Ar   65   3.684   0.091   0.721
    1   AR   Ar   66   0.775   1.372   1.689
    1   AR   Ar   67   2.805   6.133  -1.716
    1   AR   Ar   68   2.894   2.187  -0.715
    1   AR   Ar   69   2.550   1.040   1.144
    1   AR   Ar   70   0.651   6.972   1.878
    1   AR   Ar   71   2.758   1.413   4.083
    1   AR   Ar   72   3.287   0.503   1.693
    1   AR   Ar   73   3.317   0.591   3.601
    1   AR   Ar   74   2.124   0.452   3.872
    1   AR   Ar   75   3.710   1.271   4.514
    1   AR   Ar   76   1.517   0.836   2.259
    1   AR   Ar   77   2.127   6.327   6.197
    1   AR   Ar   78   1.227   0.245   6.396
    1   AR   Ar   79   3.888   6.254   6.273
    1   AR   Ar   80   3.560   5.140   5.700
    1   AR   Ar   81   2.668   0.283   0.091
    1   AR   Ar   82   6.744   6.141  -0.871
    1   AR   Ar   83   0.704   2.373   0.250
    1   AR   Ar   84   7.096   3.646  -0.324
    1   AR   Ar   85   0.802   3.201   1.106
    1   AR   Ar   86   2.306   3.935  -0.471
    1   AR   Ar   87   1.901   1.819   1.309
    1   AR   Ar   88   2.352   4.763   1.474
    1   AR   Ar   89   0.487   3.123   2.066
    1   AR   Ar   90   2.405   2.674   4.906
    1   AR   Ar   91   0.889   2.427   3.715
    1   AR   Ar   92   1.134   2.271   2.381
    1   AR   Ar   93   1.993   0.155   5.684
    1   AR   Ar   94   1.286   7.036  10.195
    1   AR   Ar   95   3.753   0.884   5.733
    1   AR   Ar   96   2.500   0.049   4.820
    1   AR   Ar   97   4.781   1.790  -0.910
    1   AR   Ar   98   2.344   5.422   2.483
    1   AR   Ar   99   6.458   2.631  -1.606
    1   AR   Ar  100   2.218   2.883  -0.644
    1   AR   Ar  101   3.374   4.468   0.801
    1   AR   Ar  102   3.329   2.915   4.191
    1   AR   Ar  103   1.107   4.847   0.713
    1   AR   Ar  104   3.234   2.850  -1.532
    1   AR   Ar  105   1.543   3.214   4.200
    1   AR   Ar  106   3.411   3.369   5.215
    1   AR   Ar  107   1.003   3.861   4.909
    1   AR   Ar  108   3.644   2.384   5.062
    1   AR   Ar  109   1.881   4.673   4.129
    1   AR   Ar  110   1.110   4.586   6.490
    1   AR   Ar  111   5.086   4.041   7.886
    1   AR   Ar  112   1.530   5.771   7.097
    1   AR   Ar  113   2.315   4.738   0.492
    1   AR   Ar  114   2.534   6.053  -0.480
    1   AR   Ar  115   2.430   4.963  -0.679
    1   AR   Ar  116   6.359   6.920  -1.586
    1   AR   Ar  117   1.183   5.133   3.607
    1   AR   Ar  118   1.310   5.564   2.668
    1   AR   Ar  119   2.150   3.526   2.671
    1   AR   Ar  120   1.596   6.633   2.316
    1   AR   Ar  121   6.371   4.307   4.956
    1   AR   Ar  122   2.735   6.015   5.002
    1   AR   Ar  123   3.753   4.344   5.010
    1   AR   Ar  124   2.016   5.935   1.588
    1   AR   Ar  125   0.371   4.020   5.991
    1   AR   Ar  126   7.054   6.944   4.480
    1   AR   Ar  127   3.344   3.986   6.026
    1   AR   Ar  128   2.775   5.666   6.543
    1   AR   Ar  129   2.522   6.600   2.846
    1   AR   Ar  130   5.062   2.713  -1.466
    1   AR   Ar  131   4.707   1.056  -0.092
    1   AR   Ar  132   0.487   1.386  -0.068
    1   AR   Ar  133   4.161   6.734   2.681
    1   AR   Ar  134   4.569   1.392   3.909
    1   AR   Ar  135   5.188   0.373   2.892
    1   AR   Ar  136   4.844   0.082   1.919
    1   AR   Ar  137   2.588   5.479   3.876
    1   AR   Ar  138   4.690   2.128   4.752
    1   AR   Ar  139   5.471   2.431   5.439
    1   AR   Ar  140   3.608   0.193   4.972
    1   AR   Ar  141   3.615   5.879   4.514
    1   AR   Ar  142   3.071   6.858   5.688
    1   AR   Ar  143   0.331   7.025   5.738
    1   AR   Ar  144   5.659   1.144   6.045
    1   AR   Ar  145   4.164   4.170   0.326
    1   AR   Ar  146   4.054   2.336   2.122
    1   AR   Ar  147   5.224   1.841  -1.869
    1   AR   Ar  148   3.170   4.688  -1.412
    1   AR   Ar  149   3.535   1.997   1.232
    1   AR   Ar  150   2.005   1.762   2.708
    1   AR   Ar  151   2.317   2.451   3.756
    1   AR   Ar  152   3.192   3.711   0.006
    1   AR   Ar  153   4.286   0.271   3.507
    1   AR   Ar  154   4.011   2.319   3.660
    1   AR   Ar  155   6.562   0.311   7.064
    1   AR   Ar  156   3.889   3.873   3.956
    1   AR   Ar  157   2.387   3.425   6.412
    1   AR   Ar  158   0.932   3.232   6.885
    1   AR   Ar  159   4.478   2.289   5.860
    1   AR   Ar  160   2.906   1.626   5.485
    1   AR   Ar  161   5.112   2.952   1.598
    1   AR   Ar  162   4.230   5.990  -0.340
    1   AR   Ar  163   5.418   3.302   0.553
    1   AR   Ar  164   3.271   5.366   1.913
    1   AR   Ar  165   3.876   3.137   0.992
    1   AR   Ar  166   2.628   3.961   4.618
    1   AR   Ar  167   4.280   0.936   2.037
    1   AR   Ar  168   4.962   3.142  -0.560
    1   AR   Ar  169   3.140   3.167   1.882
    1   AR   Ar  170   2.327   4.321   5.591
    1   AR   Ar  171   5.603   3.893   4.246
    1   AR   Ar  172   4.835   4.988   4.583
    1   AR   Ar  173   2.655   3.248   7.402
    1   AR   Ar  174   2.482   4.657   7.167
    1   AR   Ar  175   2.797   2.685   5.853
    1   AR   Ar  176   3.842   3.085   6.406
    1   AR   Ar  177   6.216   4.533  -0.029
    1   AR   Ar  178   3.534   5.112  -0.042
    1   AR   Ar  179   4.236   5.157   0.950
    1   AR   Ar  180   0.762   1.890  -3.151
    1   AR   Ar  181   0.985   5.802   1.675
    1   AR   Ar  182   2.925   0.606   2.707
    1   AR   Ar  183   3.547   5.198   2.905
    1   AR   Ar  184   4.209   6.548   1.438
    1   AR   Ar  185   2.094   5.130   4.987
    1   AR   Ar  186   3.702   4.952   3.950
    1   AR   Ar  187   3.271   6.439   3.580
    1   AR   Ar  188   2.914   6.552   1.594
    1   AR   Ar  189   3.703   2.612   7.334
    1   AR   Ar  190   4.269   6.670   4.602
    1   AR   Ar  191   3.458   5.377   7.385
    1   AR   Ar  192   4.816   5.815   5.318
    1   AR   Ar  193   1.491   6.010   0.096
    1   AR   Ar  194   4.028   3.905  -0.847
    1   AR   Ar  195   5.689   0.799  -0.609
    1   AR   Ar  196   4.828   6.966  -0.140
    1   AR   Ar  197   4.239   1.291   0.888
    1   AR   Ar  198   6.753   1.187   0.588
    1   AR   Ar  199   4.334   1.479   2.901
    1   AR   Ar  200   5.632   1.928   0.176
    1   AR   Ar  201   5.043   6.606   3.535
    1   AR   Ar  202   5.764   2.678   4.481
    1   AR   Ar  203   6.199   6.554   3.892
    1   AR   Ar  204   5.336   7.077   4.768
    1   AR   Ar  205   6.224   7.043   2.850
    1   AR   Ar  206   4.536   0.803   5.034
    1   AR   Ar  207   0.703   1.247   6.352
    1   AR   Ar  208   0.105   0.039   3.390
    1   AR   Ar  209   5.940   3.123  -2.493
    1   AR   Ar  210   3.458   1.010   0.274
    1   AR   Ar  211   6.734   3.022   0.341
    1   AR   Ar  212   5.969   3.572  -1.543
    1   AR   Ar  213   3.181   1.736   2.270
    1   AR   Ar  214   4.583   2.971   2.924
    1   AR   Ar  215   5.887   2.194   1.231
    1   AR   Ar  216   1.203   3.958   1.858
    1   AR   Ar  217   4.598   3.459   4.394
    1   AR   Ar  218   4.464   3.171   5.328
    1   AR   Ar  219   5.015   2.387   3.759
    1   AR   Ar  220   4.278   3.601   2.097
    1   AR   Ar  221   6.226   6.523   4.919
    1   AR   Ar  222   4.583   1.644   7.108
    1   AR   Ar  223   0.352   0.903   7.218
    1   AR   Ar  224   4.902   3.596   6.390
    1   AR   Ar  225   6.249   3.420   2.094
    1   AR   Ar  226   3.551   3.873   2.855
    1   AR   Ar  227   6.888   4.238   1.287
    1   AR   Ar  228   5.638   6.525   1.402
    1   AR   Ar  229   5.170   4.119  -0.470
    1   AR   Ar  230   4.574   3.973   3.163
    1   AR   Ar  231   5.953   0.941   2.748
    1   AR   Ar  232   4.515   2.371   0.795
    1   AR   Ar  233   6.330   2.024   3.412
    1   AR   Ar  234   6.553   3.258   4.243
    1   AR   Ar  235   6.877   2.111   4.574
    1   AR   Ar  236   5.679   5.228   5.179
    1   AR   Ar  237   5.567   3.618   5.253
    1   AR   Ar  238   4.448   4.665   5.870
    1   AR   Ar  239   6.375   4.129   8.662
    1   AR   Ar  240   6.959   3.159   6.693
    1   AR   Ar  241   1.014   6.594  -0.646
    1   AR   Ar  242   5.193   4.764   0.385
    1   AR   Ar  243   5.484   4.621   2.671
    1   AR   Ar  244   0.919   5.510  -0.604
    1   AR   Ar  245   4.829   0.471   0.863
    1   AR   Ar  246   5.618   5.685   0.800
    1   AR   Ar  247   4.946   4.425   1.450
    1   AR   Ar  248   5.502   5.608  -0.225
    1   AR   Ar  249   4.200   5.751   2.265
    1   AR   Ar  250   5.428   5.852   4.215
    1   AR   Ar  251   5.739   4.966   3.788
    1   AR   Ar  252   4.888   5.373   3.026
    1   AR   Ar  253   6.193   3.922   6.350
    1   AR   Ar  254   1.968   5.104   8.755
    1   AR   Ar  255   4.860   2.955   7.272
    1   AR   Ar  256   0.026   6.091   3.779
    7.12000  7.12000 12.00000
Argon-slab step 2900
  256
    1   AR   Ar    1   6.691   1.262  -1.416
    1   AR   Ar    2   6.728   7.092   0.941
    1   AR   Ar    3   1.840   1.113   0.499
    1   AR   Ar    4   1.168   0.744  -0.839
    1   AR   Ar    5   0.237   6.007   0.449
    1   AR   Ar    6   7.119   0.860   2.325
    1   AR   Ar    7   6.293   4.158   3.312
    1   AR   Ar    8   5.946   0.481   1.705
    1   AR   Ar    9   1.170   0.153   3.257
    1   AR   Ar   10   0.812   0.961   4.125
    1   AR   Ar   11   2.168   6.435   4.076
    1   AR   Ar   12   0.915   1.423   3.070
    1   AR   Ar   13   6.649   0.892   5.057
    1   AR   Ar   14   0.776   2.014   7.271
    1   AR   Ar   15   5.478   0.986  10.540
    1   AR   Ar   16   1.206   0.673   5.181
    1   AR   Ar   17   6.654   1.946  -0.176
    1   AR   Ar   18   6.068   3.163  -0.524
    1   AR   Ar   19   1.738   2.901   1.510
    1   AR   Ar   20   4.882   4.128  -2.137
    1   AR   Ar   21   5.153   1.668   1.409
    1   AR   Ar   22   6.323   1.993   2.238
    1   AR   Ar   23   6.862   0.459  -0.541
    1   AR   Ar   24   0.223   2.327   1.273
    1   AR   Ar   25   6.817   1.013   3.760
    1   AR   Ar   26   5.694   1.294   4.053
    1   AR   Ar   27   1.630   1.600   3.997
    1   AR   Ar   28   0.833   2.434   4.943
    1   AR   Ar   29   5.285   2.263   6.549
    1   AR   Ar   30   2.043   1.305   5.012
    1   AR   Ar   31   1.752   7.104   7.625
    1   AR   Ar   32   1.416   2.870   5.642
    1   AR   Ar   33   1.300   4.309  -0.683
    1   AR   Ar   34   0.181   5.357   2.937
    1   AR   Ar   35   6.282   5.019   1.675
    1   AR   Ar   36   7.037   0.548  -3.815
    1   AR   Ar   37   5.435   2.481   2.555
    1   AR   Ar   38   0.176   4.055   2.476
    1   AR   Ar   39   1.137   3.226   3.083
    1   AR   Ar   40   2.003   3.679   0.767
    1   AR   Ar   41   0.499   3.307   4.081
    1   AR   Ar   42   6.436   5.558   4.507
    1   AR   Ar   43   7.012   2.131   6.050
    1   AR   Ar   44   0.862   4.232   3.480
    1   AR   Ar   45   0.271   3.117   5.620
    1   AR   Ar   46   1.128   6.305   6.042
    1   AR   Ar   47   6.163   3.290   7.249
    1   AR   Ar   48   0.436   6.665   6.853
    1   AR   Ar   49   5.583   0.718  -1.608
    1   AR   Ar   50   5.132   5.663   1.752
    1   AR   Ar   51   0.384   4.964   1.943
    1   AR   Ar   52   5.695   4.794  -0.948
    1   AR   Ar   53   5.360   6.444   2.487
    1   AR   Ar   54   0.080   6.331   2.699
    1   AR   Ar   55   6.295   5.675   2.427
    1   AR   Ar   56   0.561   0.603   0.819
    1   AR   Ar   57   5.566   3.370   3.234
    1   AR   Ar   58   7.047   4.310   4.098
    1   AR   Ar   59   1.713   5.377   6.087
    1   AR   Ar   60   0.999   6.303   3.865
    1   AR   Ar   61   6.440   4.935   5.867
    1   AR   Ar   62   0.774   4.868   5.009
    1   AR   Ar   63   2.213   0.637   6.731
    1   AR   Ar   64   1.319   6.673   4.943
    1   AR   Ar   65   3.660   0.129   0.726
    1   AR   Ar   66   0.792   1.364   1.681
    1   AR   Ar   67   2.805   6.127  -1.733
    1   AR   Ar   68   2.896   2.177  -0.690
    1   AR   Ar   69   2.572   1.048   1.138
    1   AR   Ar   70   0.657   6.972   1.867
    1   AR   Ar   71   2.740   1.387   4.097
    1   AR   Ar   72   3.263   0.502   1.693
    1   AR   Ar   73   3.311   0.593   3.610
    1   AR   Ar   74   2.112   0.432   3.859
    1   AR   Ar   75   3.682   1.315   4.558
    1   AR   Ar   76   1.530   0.838   2.236
    1   AR   Ar   77   2.115   6.342   6.214
    1   AR   Ar   78   1.157   0.232   6.410
    1   AR   Ar   79   3.889   6.271   6.273
    1   AR   Ar   80   3.533   5.110   5.699
    1   AR   Ar   81   2.663   0.249   0.121
    1   AR   Ar   82   6.751   6.136  -0.870
    1   AR   Ar   83   0.747   2.374   0.268
    1   AR   Ar   84   7.102   3.653  -0.315
    1   AR   Ar   85   0.818   3.190   1.080
    1   AR   Ar   86   2.291   3.937  -0.497
    1   AR   Ar   87   1.871   1.819   1.286
    1   AR   Ar   88   2.361   4.771   1.484
    1   AR   Ar   89   0.479   3.125   2.069
    1   AR   Ar   90   2.391   2.682   4.861
    1   AR   Ar   91   0.907   2.452   3.730
    1   AR   Ar   92   1.134   2.279   2.387
    1   AR   Ar   93   1.971   0.150   5.700
    1   AR   Ar   94   1.268   7.025  10.209
    1   AR   Ar   95   3.768   0.887   5.695
    1   AR   Ar   96   2.501   0.051   4.847
    1   AR   Ar   97   4.789   1.769  -0.914
    1   AR   Ar   98   2.342   5.404   2.478
    1   AR   Ar   99   6.440   2.623  -1.639
    1   AR   Ar  100   2.224   2.889  -0.656
    1   AR   Ar  101   3.390   4.499   0.792
    1   AR   Ar  102   3.332   2.911   4.188
    1   AR   Ar  103   1.101   4.822   0.725
    1   AR   Ar  104   3.212   2.847  -1.526
    1   AR   Ar  105   1.546   3.192   4.211
    1   AR   Ar  106   3.442   3.365   5.186
    1   AR   Ar  107   0.996   3.865   4.913
    1   AR   Ar  108   3.633   2.371   5.055
    1   AR   Ar  109   1.893   4.679   4.139
    1   AR   Ar  110   1.137   4.580   6.468
    1   AR   Ar  111   5.062   4.063   7.899
    1   AR   Ar  112   1.534   5.801   7.119
    1   AR   Ar  113   2.316   4.739   0.466
    1   AR   Ar  114   2.512   6.098  -0.498
    1   AR   Ar  115   2.465   4.981  -0.657
    1   AR   Ar  116   6.401   6.903  -1.598
    1   AR   Ar  117   1.186   5.128   3.641
    1   AR   Ar  118   1.320   5.582   2.671
    1   AR   Ar  119   2.169   3.516   2.685
    1   AR   Ar  120   1.628   6.643   2.338
    1   AR   Ar  121   6.370   4.333   4.980
    1   AR   Ar  122   2.753   6.026   4.982
    1   AR   Ar  123   3.721   4.326   5.017
    1   AR   Ar  124   2.010   5.921   1.595
    1   AR   Ar  125   0.377   4.031   5.985
    1   AR   Ar  126   7.046   6.937   4.489
    1   AR   Ar  127   3.340   3.981   5.995
    1   AR   Ar  128   2.798   5.676   6.534
    1   AR   Ar  129   2.544   6.580   2.840
    1   AR   Ar  130   5.072   2.721  -1.481
    1   AR   Ar  131   4.710   1.070  -0.080
    1   AR   Ar  132   0.463   1.404  -0.064
    1   AR   Ar  133   4.188   6.751   2.696
    1   AR   Ar  134   4.588   1.394   3.889
    1   AR   Ar  135   5.187   0.347   2.893
    1   AR   Ar  136   4.847   0.090   1.945
    1   AR   Ar  137   2.608   5.449   3.868
    1   AR   Ar  138   4.669   2.126   4.751
    1   AR   Ar  139   5.478   2.392   5.427
    1   AR   Ar  140   3.636   0.191   4.963
    1   AR   Ar  141   3.596   5.868   4.491
    1   AR   Ar  142   3.087   6.853   5.713
    1   AR   Ar  143   0.286   7.037   5.724
    1   AR   Ar  144   5.662   1.167   6.035
    1   AR   Ar  145   4.177   4.101   0.315
    1   AR   Ar  146   4.020   2.338   2.134
    1   AR   Ar  147   5.219   1.827  -1.863
    1   AR   Ar  148   3.130   4.691  -1.425
    1   AR   Ar  149   3.529   1.991   1.212
    1   AR   Ar  150   2.000   1.739   2.721
    1   AR   Ar  151   2.287   2.459   3.774
    1   AR   Ar  152   3.214   3.706  -0.003
    1   AR   Ar  153   4.298   0.302   3.557
    1   AR   Ar  154   4.007   2.330   3.653
    1   AR   Ar  155   6.567   0.294   7.093
    1   AR   Ar  156   3.866   3.858   3.959
    1   AR   Ar  157   2.361   3.432   6.427
    1   AR   Ar  158   0.941   3.205   6.900
    1   AR   Ar  159   4.459   2.282   5.865
    1   AR   Ar  160   2.929   1.612   5.493
    1   AR   Ar  161   5.095   2.966   1.624
    1   AR   Ar  162   4.216   5.947  -0.314
    1   AR   Ar  163   5.385   3.268   0.587
    1   AR   Ar  164   3.251   5.337   1.901
    1   AR   Ar  165   3.866   3.129   0.963
    1   AR   Ar  166   2.587   3.946   4.599
    1   AR   Ar  167   4.279   0.925   2.025
    1   AR   Ar  168   4.982   3.147  -0.556
    1   AR   Ar  169   3.147   3.195   1.920
    1   AR   Ar  170   2.328   4.290   5.625
    1   AR   Ar  171   5.635   3.928   4.225
    1   AR   Ar  172   4.805   4.996   4.557
    1   AR   Ar  173   2.678   3.227   7.410
    1   AR   Ar  174   2.453   4.665   7.174
    1   AR   Ar  175   2.786   2.672   5.834
    1   AR   Ar  176   3.822   3.086   6.381
    1   AR   Ar  177   6.200   4.504  -0.037
    1   AR   Ar  178   3.576   5.121  -0.019
    1   AR   Ar  179   4.227   5.150   0.959
    1   AR   Ar  180   0.747   1.876  -3.123
    1   AR   Ar  181   0.979   5.786   1.687
    1   AR   Ar  182   2.909   0.613   2.720
    1   AR   Ar  183   3.549   5.208   2.920
    1   AR   Ar  184   4.186   6.523   1.414
    1   AR   Ar  185   2.114   5.152   4.990
    1   AR   Ar  186   3.715   4.978   3.960
    1   AR   Ar  187   3.291   6.470   3.576
    1   AR   Ar  188   2.923   6.554   1.605
    1   AR   Ar  189   3.696   2.634   7.353
    1   AR   Ar  190   4.265   6.698   4.584
    1   AR   Ar  191   3.470   5.385   7.429
    1   AR   Ar  192   4.784   5.834   5.291
    1   AR   Ar  193   1.529   5.995   0.099
    1   AR   Ar  194   4.047   3.889  -0.884
    1   AR   Ar  195   5.686   0.822  -0.600
    1   AR   Ar  196   4.819   6.982  -0.134
    1   AR   Ar  197   4.240   1.245   0.902
    1   AR   Ar  198   6.737   1.175   0.611
    1   AR   Ar  199   4.311   1.473   2.904
    1   AR   Ar  200   5.596   1.907   0.171
    1   AR   Ar  201   5.055   6.621   3.559
    1   AR   Ar  202   5.767   2.637   4.512
    1   AR   Ar  203   6.197   6.555   3.902
    1   AR   Ar  204   5.312   7.069   4.783
    1   AR   Ar  205   6.215   7.035   2.831
    1   AR   Ar  206   4.541   0.829   5.034
    1   AR   Ar  207   0.682   1.240   6.380
    1   AR   Ar  208   0.081   0.050   3.405
    1   AR   Ar  209   6.008   3.116  -2.532
    1   AR   Ar  210   3.435   1.045   0.226
    1   AR   Ar  211   6.728   3.011   0.348
    1   AR   Ar  212   5.949   3.539  -1.534
    1   AR   Ar  213   3.168   1.691   2.268
    1   AR   Ar  214   4.600   3.012   2.926
    1   AR   Ar  215   5.905   2.195   1.207
    1   AR   Ar  216   1.182   3.939   1.845
    1   AR   Ar  217   4.620   3.459   4.403
    1   AR   Ar  218   4.461   3.152   5.323
    1   AR   Ar  219   5.014   2.391   3.756
    1   AR   Ar  220   4.258   3.635   2.104
    1   AR   Ar  221   6.236   6.511   4.903
    1   AR   Ar  222   4.581   1.648   7.103
    1   AR   Ar  223   0.348   0.911   7.244
    1   AR   Ar  224   4.931   3.588   6.385
    1   AR   Ar  225   6.248   3.401   2.121
    1   AR   Ar  226   3.529   3.864   2.869
    1   AR   Ar  227   6.881   4.240   1.293
    1   AR   Ar  228   5.663   6.555   1.401
    1   AR   Ar  229   5.159   4.113  -0.458
    1   AR   Ar  230   4.560   3.991   3.193
    1   AR   Ar  231   5.970   0.915   2.718
    1   AR   Ar  232   4.524   2.339   0.758
    1   AR   Ar  233   6.324   2.023   3.414
    1   AR   Ar  234   6.543   3.253   4.243
    1   AR   Ar  235   6.846   2.109   4.564
    1   AR   Ar  236   5.679   5.242   5.177
    1   AR   Ar  237   5.584   3.635   5.220
    1   AR   Ar  238   4.465   4.642   5.900
    1   AR   Ar  239   6.341   4.110   8.624
    1   AR   Ar  240   6.957   3.139   6.708
    1   AR   Ar  241   1.003   6.581  -0.611
    1   AR   Ar  242   5.208   4.756   0.393
    1   AR   Ar  243   5.480   4.621   2.656
    1   AR   Ar  244   0.911   5.548  -0.618
    1   AR   Ar  245   4.798   0.462   0.912
    1   AR   Ar  246   5.599   5.689   0.816
    1   AR   Ar  247   4.967   4.432   1.464
    1   AR   Ar  248   5.496   5.604  -0.204
    1   AR   Ar  249   4.209   5.750   2.274
    1   AR   Ar  250   5.408   5.838   4.209
    1   AR   Ar  251   5.722   4.990   3.792
    1   AR   Ar  252   4.885   5.414   3.023
    1   AR   Ar  253   6.194   3.914   6.339
    1   AR   Ar  254   1.966   5.061   8.776
    1   AR   Ar  255   4.886   2.984   7.259
    1   AR   Ar  256   0.041   6.076   3.769
    7.12000  7.12000 12.00000
Argon-slab step 2905
  256
    1   AR   Ar    1   6.717   1.268  -1.445
    1   AR   Ar    2   6.723   7.092   0.920
    1   AR   Ar    3   1.866   1.106   0.505
    1   AR   Ar    4   1.147   0.769  -0.857
    1   AR   Ar    5   0.252   5.998   0.469
    1   AR   Ar    6   7.094   0.868   2.318
    1   AR   Ar    7   6.292   4.180   3.318
    1   AR   Ar    8   5.937   0.421   1.684
    1   AR   Ar    9   1.152   0.140   3.253
    1   AR   Ar   10   0.830   0.944   4.114
    1   AR   Ar   11   2.176   6.452   4.065
    1   AR   Ar   12   0.909   1.413   3.058
    1   AR   Ar   13   6.631   0.874   5.020
    1   AR   Ar   14   0.760   2.028   7.289
    1   AR   Ar   15   5.459   0.993  10.562
    1   AR   Ar   16   1.194   0.672   5.177
    1   AR   Ar   17   6.662   1.936  -0.204
    1   AR   Ar   18   6.109   3.150  -0.533
    1   AR   Ar   19   1.754   2.862   1.490
    1   AR   Ar   20   4.872   4.115  -2.102
    1   AR   Ar   21   5.118   1.675   1.399
    1   AR   Ar   22   6.300   2.000   2.218
    1   AR   Ar   23   6.828   0.468  -0.554
    1   AR   Ar   24   0.199   2.321   1.238
    1   AR   Ar   25   6.810   1.027   3.742
    1   AR   Ar   26   5.723   1.237   4.050
    1   AR   Ar   27   1.632   1.603   3.979
    1   AR   Ar   28   0.809   2.447   4.929
    1   AR   Ar   29   5.279   2.281   6.540
    1   AR   Ar   30   2.069   1.315   5.010
    1   AR   Ar   31   1.767   7.118   7.606
    1   AR   Ar   32   1.431   2.894   5.664
    1   AR   Ar   33   1.277   4.287  -0.685
    1   AR   Ar   34   0.198   5.368   2.933
    1   AR   Ar   35   6.321   5.047   1.642
    1   AR   Ar   36   7.018   0.544  -3.823
    1   AR   Ar   37   5.469   2.490   2.551
    1   AR   Ar   38   0.138   4.054   2.472
    1   AR   Ar   39   1.158   3.240   3.087
    1   AR   Ar   40   2.015   3.689   0.760
    1   AR   Ar   41   0.467   3.309   4.122
    1   AR   Ar   42   6.411   5.511   4.492
    1   AR   Ar   43   7.019   2.106   6.048
    1   AR   Ar   44   0.860   4.258   3.491
    1   AR   Ar   45   0.260   3.119   5.636
    1   AR   Ar   46   1.120   6.277   6.041
    1   AR   Ar   47   6.142   3.286   7.241
    1   AR   Ar   48   0.428   6.629   6.849
    1   AR   Ar   49   5.593   0.698  -1.586
    1   AR   Ar   50   5.145   5.640   1.749
    1   AR   Ar   51   0.372   4.950   1.940
    1   AR   Ar   52   5.686   4.804  -0.953
    1   AR   Ar   53   5.379   6.449   2.516
    1   AR   Ar   54   0.095   6.351   2.695
    1   AR   Ar   55   6.300   5.648   2.428
    1   AR   Ar   56   0.532   0.603   0.857
    1   AR   Ar   57   5.571   3.374   3.223
    1   AR   Ar   58   6.998   4.361   4.117
    1   AR   Ar   59   1.719   5.367   6.110
    1   AR   Ar   60   0.983   6.287   3.879
    1   AR   Ar   61   6.456   4.941   5.873
    1   AR   Ar   62   0.770   4.892   5.022
    1   AR   Ar   63   2.178   0.657   6.721
    1   AR   Ar   64   1.394   6.676   4.956
    1   AR   Ar   65   3.638   0.143   0.737
    1   AR   Ar   66   0.807   1.359   1.671
    1   AR   Ar   67   2.805   6.121  -1.749
    1   AR   Ar   68   2.907   2.157  -0.665
    1   AR   Ar   69   2.607   1.054   1.138
    1   AR   Ar   70   0.651   6.960   1.873
    1   AR   Ar   71   2.718   1.363   4.111
    1   AR   Ar   72   3.244   0.500   1.695
    1   AR   Ar   73   3.293   0.581   3.618
    1   AR   Ar   74   2.086   0.419   3.869
    1   AR   Ar   75   3.656   1.358   4.604
    1   AR   Ar   76   1.544   0.837   2.215
    1   AR   Ar   77   2.120   6.333   6.243
    1   AR   Ar   78   1.088   0.220   6.424
    1   AR   Ar   79   3.888   6.286   6.272
    1   AR   Ar   80   3.502   5.084   5.699
    1   AR   Ar   81   2.658   0.215   0.153
    1   AR   Ar   82   6.759   6.096  -0.886
    1   AR   Ar   83   0.789   2.377   0.288
    1   AR   Ar   84   7.112   3.667  -0.312
    1   AR   Ar   85   0.833   3.183   1.050
    1   AR   Ar   86   2.277   3.940  -0.522
    1   AR   Ar   87   1.867   1.820   1.275
    1   AR   Ar   88   2.369   4.778   1.501
    1   AR   Ar   89   0.469   3.124   2.075
    1   AR   Ar   90   2.376   2.690   4.812
    1   AR   Ar   91   0.927   2.464   3.746
    1   AR   Ar   92   1.133   2.289   2.392
    1   AR   Ar   93   1.947   0.146   5.721
    1   AR   Ar   94   1.251   7.014  10.223
    1   AR   Ar   95   3.778   0.895   5.665
    1   AR   Ar   96   2.513   0.051   4.839
    1   AR   Ar   97   4.796   1.750  -0.914
    1   AR   Ar   98   2.342   5.387   2.475
    1   AR   Ar   99   6.423   2.611  -1.669
    1   AR   Ar  100   2.222   2.904  -0.667
    1   AR   Ar  101   3.396   4.530   0.792
    1   AR   Ar  102   3.336   2.925   4.190
    1   AR   Ar  103   1.127   4.815   0.744
    1   AR   Ar  104   3.190   2.846  -1.519
    1   AR   Ar  105   1.554   3.170   4.223
    1   AR   Ar  106   3.467   3.356   5.154
    1   AR   Ar  107   0.990   3.865   4.918
    1   AR   Ar  108   3.623   2.352   5.049
    1   AR   Ar  109   1.911   4.672   4.149
    1   AR   Ar  110   1.139   4.569   6.452
    1   AR   Ar  111   5.038   4.085   7.912
    1   AR   Ar  112   1.492   5.769   7.134
    1   AR   Ar  113   2.315   4.736   0.436
    1   AR   Ar  114   2.491   6.143  -0.516
    1   AR   Ar  115   2.499   5.001  -0.631
    1   AR   Ar  116   6.442   6.888  -1.610
    1   AR   Ar  117   1.183   5.147   3.672
    1   AR   Ar  118   1.328   5.601   2.674
    1   AR   Ar  119   2.188   3.506   2.699
    1   AR   Ar  120   1.656   6.654   2.359
    1   AR   Ar  121   6.370   4.360   5.003
    1   AR   Ar  122   2.761   6.041   4.967
    1   AR   Ar  123   3.692   4.313   5.019
    1   AR   Ar  124   2.007   5.906   1.601
    1   AR   Ar  125   0.382   4.050   5.980
    1   AR   Ar  126   7.046   6.935   4.497
    1   AR   Ar  127   3.334   3.981   5.969
    1   AR   Ar  128   2.828   5.679   6.527
    1   AR   Ar  129   2.568   6.560   2.833
    1   AR   Ar  130   5.082   2.739  -1.495
    1   AR   Ar  131   4.714   1.083  -0.067
    1   AR   Ar  132   0.441   1.410  -0.078
    1   AR   Ar  133   4.215   6.769   2.711
    1   AR   Ar  134   4.607   1.394   3.875
    1   AR   Ar  135   5.176   0.317   2.898
    1   AR   Ar  136   4.854   0.093   1.966
    1   AR   Ar  137   2.632   5.420   3.859
    1   AR   Ar  138   4.647   2.124   4.750
    1   AR   Ar  139   5.487   2.399   5.459
    1   AR   Ar  140   3.652   0.200   4.953
    1   AR   Ar  141   3.585   5.858   4.465
    1   AR   Ar  142   3.100   6.845   5.742
    1   AR   Ar  143   0.243   7.050   5.709
    1   AR   Ar  144   5.664   1.192   6.025
    1   AR   Ar  145   4.200   4.029   0.301
    1   AR   Ar  146   3.989   2.342   2.146
    1   AR   Ar  147   5.219   1.801  -1.864
    1   AR   Ar  148   3.091   4.693  -1.438
    1   AR   Ar  149   3.522   1.985   1.192
    1   AR   Ar  150   1.996   1.715   2.736
    1   AR   Ar  151   2.262   2.456   3.791
    1   AR   Ar  152   3.237   3.701  -0.012
    1   AR   Ar  153   4.313   0.333   3.609
    1   AR   Ar  154   3.996   2.321   3.651
    1   AR   Ar  155   6.572   0.276   7.123
    1   AR   Ar  156   3.824   3.851   3.957
    1   AR   Ar  157   2.357   3.442   6.441
    1   AR   Ar  158   0.949   3.178   6.913
    1   AR   Ar  159   4.437   2.269   5.873
    1   AR   Ar  160   2.956   1.599   5.501
    1   AR   Ar  161   5.076   2.979   1.651
    1   AR   Ar  162   4.203   5.906  -0.287
    1   AR   Ar  163   5.352   3.232   0.618
    1   AR   Ar  164   3.231   5.309   1.885
    1   AR   Ar  165   3.855   3.125   0.937
    1   AR   Ar  166   2.548   3.929   4.579
    1   AR   Ar  167   4.273   0.917   2.008
    1   AR   Ar  168   4.999   3.143  -0.547
    1   AR   Ar  169   3.156   3.223   1.957
    1   AR   Ar  170   2.329   4.259   5.660
    1   AR   Ar  171   5.666   3.965   4.199
    1   AR   Ar  172   4.772   5.002   4.530
    1   AR   Ar  173   2.702   3.205   7.420
    1   AR   Ar  174   2.425   4.674   7.178
    1   AR   Ar  175   2.779   2.658   5.817
    1   AR   Ar  176   3.804   3.087   6.354
    1   AR   Ar  177   6.202   4.531  -0.039
    1   AR   Ar  178   3.617   5.130   0.001
    1   AR   Ar  179   4.221   5.145   0.969
    1   AR   Ar  180   0.732   1.863  -3.096
    1   AR   Ar  181   0.971   5.773   1.696
    1   AR   Ar  182   2.885   0.620   2.721
    1   AR   Ar  183   3.549   5.217   2.937
    1   AR   Ar  184   4.162   6.498   1.391
    1   AR   Ar  185   2.135   5.179   5.001
    1   AR   Ar  186   3.730   5.001   3.971
    1   AR   Ar  187   3.313   6.502   3.576
    1   AR   Ar  188   2.933   6.556   1.618
    1   AR   Ar  189   3.689   2.656   7.373
    1   AR   Ar  190   4.275   6.714   4.557
    1   AR   Ar  191   3.482   5.393   7.471
    1   AR   Ar  192   4.749   5.855   5.263
    1   AR   Ar  193   1.572   5.979   0.107
    1   AR   Ar  194   4.059   3.891  -0.909
    1   AR   Ar  195   5.684   0.846  -0.583
    1   AR   Ar  196   4.809   6.998  -0.127
    1   AR   Ar  197   4.232   1.213   0.919
    1   AR   Ar  198   6.720   1.163   0.634
    1   AR   Ar  199   4.287   1.471   2.906
    1   AR   Ar  200   5.558   1.886   0.165
    1   AR   Ar  201   5.066   6.635   3.582
    1   AR   Ar  202   5.769   2.596   4.535
    1   AR   Ar  203   6.193   6.556   3.901
    1   AR   Ar  204   5.287   7.062   4.796
    1   AR   Ar  205   6.210   7.015   2.819
    1   AR   Ar  206   4.553   0.856   5.028
    1   AR   Ar  207   0.665   1.237   6.395
    1   AR   Ar  208   0.057   0.060   3.420
    1   AR   Ar  209   6.076   3.108  -2.571
    1   AR   Ar  210   3.410   1.083   0.178
    1   AR   Ar  211   6.720   2.992   0.364
    1   AR   Ar  212   5.925   3.511  -1.523
    1   AR   Ar  213   3.155   1.644   2.267
    1   AR   Ar  214   4.612   3.045   2.927
    1   AR   Ar  215   5.946   2.212   1.177
    1   AR   Ar  216   1.161   3.921   1.832
    1   AR   Ar  217   4.659   3.454   4.409
    1   AR   Ar  218   4.460   3.106   5.317
    1   AR   Ar  219   5.023   2.396   3.751
    1   AR   Ar  220   4.238   3.669   2.108
    1   AR   Ar  221   6.244   6.512   4.917
    1   AR   Ar  222   4.545   1.644   7.039
    1   AR   Ar  223   0.341   0.914   7.281
    1   AR   Ar  224   4.961   3.580   6.375
    1   AR   Ar  225   6.246   3.382   2.148
    1   AR   Ar  226   3.505   3.856   2.884
    1   AR   Ar  227   6.877   4.239   1.299
    1   AR   Ar  228   5.688   6.590   1.402
    1   AR   Ar  229   5.145   4.110  -0.441
    1   AR   Ar  230   4.551   4.016   3.223
    1   AR   Ar  231   5.999   0.902   2.686
    1   AR   Ar  232   4.537   2.304   0.722
    1   AR   Ar  233   6.316   2.022   3.417
    1   AR   Ar  234   6.535   3.254   4.243
    1   AR   Ar  235   6.830   2.109   4.554
    1   AR   Ar  236   5.677   5.254   5.174
    1   AR   Ar  237   5.598   3.649   5.192
    1   AR   Ar  238   4.484   4.617   5.929
    1   AR   Ar  239   6.306   4.091   8.586
    1   AR   Ar  240   6.968   3.116   6.713
    1   AR   Ar  241   0.998   6.573  -0.584
    1   AR   Ar  242   5.221   4.746   0.405
    1   AR   Ar  243   5.488   4.612   2.661
    1   AR   Ar  244   0.899   5.579  -0.634
    1   AR   Ar  245   4.778   0.439   0.960
    1   AR   Ar  246   5.598   5.699   0.818
    1   AR   Ar  247   4.987   4.440   1.478
    1   AR   Ar  248   5.489   5.601  -0.190
    1   AR   Ar  249   4.217   5.751   2.281
    1   AR   Ar  250   5.393   5.821   4.221
    1   AR   Ar  251   5.708   5.005   3.792
    1   AR   Ar  252   4.882   5.458   3.022
    1   AR   Ar  253   6.208   3.883   6.322
    1   AR   Ar  254   1.965   5.018   8.796
    1   AR   Ar  255   4.892   3.035   7.255
    1   AR   Ar  256   0.045   6.058   3.758
    7.12000  7.12000 12.00000
Argon-slab step 2910
  256
    1   AR   Ar    1   6.733   1.275  -1.458
    1   AR   Ar    2   6.718   7.092   0.899
    1   AR   Ar    3   1.881   1.097   0.499
    1   AR   Ar    4   1.127   0.775  -0.855
    1   AR   Ar    5   0.248   6.009   0.491
    1   AR   Ar    6   7.070   0.876   2.312
    1   AR   Ar    7   6.293   4.202   3.323
    1   AR   Ar    8   5.930   0.368   1.667
    1   AR   Ar    9   1.134   0.128   3.247
    1   AR   Ar   10   0.846   0.922   4.103
    1   AR   Ar   11   2.187   6.471   4.056
    1   AR   Ar   12   0.904   1.401   3.046
    1   AR   Ar   13   6.613   0.857   4.981
    1   AR   Ar   14   0.743   2.042   7.305
    1   AR   Ar   15   5.440   1.000  10.584
    1   AR   Ar   16   1.179   0.670   5.173
    1   AR   Ar   17   6.667   1.928  -0.233
    1   AR   Ar   18   6.150   3.136  -0.541
    1   AR   Ar   19   1.771   2.825   1.473
    1   AR   Ar   20   4.889   4.129  -2.091
    1   AR   Ar   21   5.077   1.676   1.392
    1   AR   Ar   22   6.282   2.003   2.196
    1   AR   Ar   23   6.795   0.479  -0.568
    1   AR   Ar   24   0.173   2.314   1.205
    1   AR   Ar   25   6.803   1.042   3.725
    1   AR   Ar   26   5.753   1.181   4.047
    1   AR   Ar   27   1.636   1.606   3.961
    1   AR   Ar   28   0.783   2.460   4.910
    1   AR   Ar   29   5.281   2.297   6.539
    1   AR   Ar   30   2.096   1.326   4.999
    1   AR   Ar   31   1.781   0.012   7.585
    1   AR   Ar   32   1.440   2.935   5.660
    1   AR   Ar   33   1.253   4.266  -0.686
    1   AR   Ar   34   0.217   5.371   2.930
    1   AR   Ar   35   6.356   5.072   1.601
    1   AR   Ar   36   7.000   0.540  -3.830
    1   AR   Ar   37   5.499   2.500   2.550
    1   AR   Ar   38   0.098   4.054   2.470
    1   AR   Ar   39   1.170   3.260   3.098
    1   AR   Ar   40   2.035   3.702   0.752
    1   AR   Ar   41   0.435   3.316   4.164
    1   AR   Ar   42   6.391   5.464   4.472
    1   AR   Ar   43   7.026   2.080   6.045
    1   AR   Ar   44   0.851   4.267   3.499
    1   AR   Ar   45   0.249   3.112   5.650
    1   AR   Ar   46   1.115   6.221   6.034
    1   AR   Ar   47   6.112   3.283   7.238
    1   AR   Ar   48   0.419   6.592   6.845
    1   AR   Ar   49   5.603   0.679  -1.570
    1   AR   Ar   50   5.158   5.615   1.750
    1   AR   Ar   51   0.358   4.934   1.936
    1   AR   Ar   52   5.680   4.819  -0.962
    1   AR   Ar   53   5.396   6.448   2.545
    1   AR   Ar   54   0.109   6.378   2.688
    1   AR   Ar   55   6.305   5.628   2.438
    1   AR   Ar   56   0.504   0.603   0.896
    1   AR   Ar   57   5.577   3.377   3.213
    1   AR   Ar   58   6.951   4.411   4.137
    1   AR   Ar   59   1.727   5.356   6.130
    1   AR   Ar   60   0.994   6.268   3.863
    1   AR   Ar   61   6.472   4.947   5.882
    1   AR   Ar   62   0.753   4.914   5.041
    1   AR   Ar   63   2.142   0.676   6.710
    1   AR   Ar   64   1.471   6.679   4.968
    1   AR   Ar   65   3.619   0.143   0.752
    1   AR   Ar   66   0.820   1.356   1.660
    1   AR   Ar   67   2.805   6.114  -1.763
    1   AR   Ar   68   2.923   2.132  -0.639
    1   AR   Ar   69   2.651   1.063   1.144
    1   AR   Ar   70   0.646   6.947   1.879
    1   AR   Ar   71   2.693   1.340   4.124
    1   AR   Ar   72   3.231   0.496   1.702
    1   AR   Ar   73   3.277   0.568   3.638
    1   AR   Ar   74   2.060   0.407   3.878
    1   AR   Ar   75   3.633   1.401   4.650
    1   AR   Ar   76   1.559   0.834   2.196
    1   AR   Ar   77   2.127   6.332   6.272
    1   AR   Ar   78   1.022   0.210   6.438
    1   AR   Ar   79   3.887   6.300   6.270
    1   AR   Ar   80   3.468   5.063   5.701
    1   AR   Ar   81   2.653   0.183   0.185
    1   AR   Ar   82   6.767   6.057  -0.900
    1   AR   Ar   83   0.831   2.381   0.308
    1   AR   Ar   84   0.002   3.684  -0.313
    1   AR   Ar   85   0.848   3.179   1.017
    1   AR   Ar   86   2.264   3.946  -0.544
    1   AR   Ar   87   1.878   1.792   1.282
    1   AR   Ar   88   2.376   4.785   1.520
    1   AR   Ar   89   0.467   3.137   2.090
    1   AR   Ar   90   2.362   2.699   4.766
    1   AR   Ar   91   0.947   2.467   3.761
    1   AR   Ar   92   1.132   2.299   2.396
    1   AR   Ar   93   1.924   0.143   5.746
    1   AR   Ar   94   1.233   7.003  10.237
    1   AR   Ar   95   3.783   0.910   5.645
    1   AR   Ar   96   2.539   0.047   4.789
    1   AR   Ar   97   4.802   1.730  -0.906
    1   AR   Ar   98   2.345   5.369   2.476
    1   AR   Ar   99   6.407   2.595  -1.698
    1   AR   Ar  100   2.215   2.921  -0.680
    1   AR   Ar  101   3.393   4.556   0.799
    1   AR   Ar  102   3.340   2.964   4.200
    1   AR   Ar  103   1.154   4.809   0.763
    1   AR   Ar  104   3.167   2.845  -1.511
    1   AR   Ar  105   1.562   3.151   4.237
    1   AR   Ar  106   3.484   3.342   5.122
    1   AR   Ar  107   0.985   3.860   4.923
    1   AR   Ar  108   3.615   2.328   5.045
    1   AR   Ar  109   1.933   4.656   4.159
    1   AR   Ar  110   1.127   4.556   6.442
    1   AR   Ar  111   5.016   4.105   7.924
    1   AR   Ar  112   1.451   5.738   7.147
    1   AR   Ar  113   2.314   4.732   0.404
    1   AR   Ar  114   2.469   6.188  -0.535
    1   AR   Ar  115   2.531   5.023  -0.602
    1   AR   Ar  116   6.483   6.874  -1.620
    1   AR   Ar  117   1.177   5.188   3.701
    1   AR   Ar  118   1.332   5.622   2.680
    1   AR   Ar  119   2.208   3.496   2.712
    1   AR   Ar  120   1.678   6.664   2.378
    1   AR   Ar  121   6.370   4.386   5.022
    1   AR   Ar  122   2.760   6.061   4.960
    1   AR   Ar  123   3.667   4.307   5.013
    1   AR   Ar  124   2.007   5.892   1.606
    1   AR   Ar  125   0.384   4.074   5.976
    1   AR   Ar  126   7.055   6.938   4.500
    1   AR   Ar  127   3.327   3.984   5.948
    1   AR   Ar  128   2.863   5.676   6.521
    1   AR   Ar  129   2.593   6.539   2.826
    1   AR   Ar  130   5.093   2.762  -1.511
    1   AR   Ar  131   4.717   1.095  -0.052
    1   AR   Ar  132   0.423   1.403  -0.120
    1   AR   Ar  133   4.243   6.787   2.728
    1   AR   Ar  134   4.616   1.401   3.860
    1   AR   Ar  135   5.163   0.289   2.910
    1   AR   Ar  136   4.864   0.089   1.980
    1   AR   Ar  137   2.658   5.394   3.851
    1   AR   Ar  138   4.625   2.122   4.749
    1   AR   Ar  139   5.491   2.404   5.502
    1   AR   Ar  140   3.653   0.217   4.941
    1   AR   Ar  141   3.582   5.852   4.437
    1   AR   Ar  142   3.109   6.836   5.773
    1   AR   Ar  143   0.201   7.062   5.693
    1   AR   Ar  144   5.666   1.218   6.014
    1   AR   Ar  145   4.229   3.958   0.285
    1   AR   Ar  146   3.961   2.349   2.158
    1   AR   Ar  147   5.223   1.769  -1.870
    1   AR   Ar  148   3.055   4.694  -1.453
    1   AR   Ar  149   3.514   1.979   1.173
    1   AR   Ar  150   1.994   1.690   2.752
    1   AR   Ar  151   2.254   2.413   3.806
    1   AR   Ar  152   3.251   3.692  -0.018
    1   AR   Ar  153   4.331   0.363   3.662
    1   AR   Ar  154   4.006   2.304   3.674
    1   AR   Ar  155   6.578   0.257   7.151
    1   AR   Ar  156   3.776   3.848   3.957
    1   AR   Ar  157   2.351   3.459   6.452
    1   AR   Ar  158   0.957   3.151   6.925
    1   AR   Ar  159   4.413   2.250   5.883
    1   AR   Ar  160   2.984   1.586   5.508
    1   AR   Ar  161   5.056   2.991   1.678
    1   AR   Ar  162   4.197   5.871  -0.262
    1   AR   Ar  163   5.318   3.197   0.648
    1   AR   Ar  164   3.215   5.282   1.866
    1   AR   Ar  165   3.843   3.122   0.912
    1   AR   Ar  166   2.511   3.910   4.562
    1   AR   Ar  167   4.263   0.914   1.988
    1   AR   Ar  168   5.013   3.130  -0.534
    1   AR   Ar  169   3.167   3.218   1.973
    1   AR   Ar  170   2.328   4.228   5.694
    1   AR   Ar  171   5.697   4.003   4.171
    1   AR   Ar  172   4.758   4.992   4.519
    1   AR   Ar  173   2.727   3.184   7.431
    1   AR   Ar  174   2.397   4.684   7.181
    1   AR   Ar  175   2.770   2.650   5.794
    1   AR   Ar  176   3.787   3.086   6.324
    1   AR   Ar  177   6.204   4.557  -0.040
    1   AR   Ar  178   3.654   5.134   0.018
    1   AR   Ar  179   4.219   5.142   0.980
    1   AR   Ar  180   0.717   1.850  -3.069
    1   AR   Ar  181   0.960   5.764   1.703
    1   AR   Ar  182   2.855   0.628   2.712
    1   AR   Ar  183   3.548   5.226   2.954
    1   AR   Ar  184   4.139   6.472   1.368
    1   AR   Ar  185   2.157   5.207   5.018
    1   AR   Ar  186   3.746   5.013   3.980
    1   AR   Ar  187   3.337   6.534   3.578
    1   AR   Ar  188   2.944   6.556   1.631
    1   AR   Ar  189   3.684   2.678   7.392
    1   AR   Ar  190   4.299   6.718   4.521
    1   AR   Ar  191   3.492   5.400   7.512
    1   AR   Ar  192   4.714   5.877   5.233
    1   AR   Ar  193   1.615   5.962   0.118
    1   AR   Ar  194   4.072   3.894  -0.932
    1   AR   Ar  195   5.683   0.872  -0.560
    1   AR   Ar  196   4.799   7.015  -0.119
    1   AR   Ar  197   4.210   1.198   0.935
    1   AR   Ar  198   6.702   1.150   0.658
    1   AR   Ar  199   4.260   1.471   2.905
    1   AR   Ar  200   5.520   1.864   0.159
    1   AR   Ar  201   5.077   6.648   3.607
    1   AR   Ar  202   5.771   2.556   4.547
    1   AR   Ar  203   6.188   6.558   3.893
    1   AR   Ar  204   5.261   7.054   4.808
    1   AR   Ar  205   6.210   6.992   2.809
    1   AR   Ar  206   4.573   0.883   5.015
    1   AR   Ar  207   0.651   1.239   6.402
    1   AR   Ar  208   0.032   0.068   3.436
    1   AR   Ar  209   6.143   3.101  -2.611
    1   AR   Ar  210   3.384   1.122   0.131
    1   AR   Ar  211   6.709   2.967   0.384
    1   AR   Ar  212   5.897   3.488  -1.513
    1   AR   Ar  213   3.141   1.595   2.264
    1   AR   Ar  214   4.621   3.071   2.926
    1   AR   Ar  215   5.993   2.235   1.144
    1   AR   Ar  216   1.142   3.903   1.820
    1   AR   Ar  217   4.706   3.450   4.406
    1   AR   Ar  218   4.462   3.055   5.315
    1   AR   Ar  219   5.037   2.404   3.745
    1   AR   Ar  220   4.242   3.679   2.093
    1   AR   Ar  221   6.246   6.513   4.945
    1   AR   Ar  222   4.507   1.640   6.975
    1   AR   Ar  223   0.333   0.914   7.326
    1   AR   Ar  224   4.990   3.573   6.359
    1   AR   Ar  225   6.244   3.363   2.176
    1   AR   Ar  226   3.480   3.847   2.900
    1   AR   Ar  227   6.875   4.234   1.305
    1   AR   Ar  228   5.710   6.620   1.403
    1   AR   Ar  229   5.129   4.112  -0.420
    1   AR   Ar  230   4.546   4.049   3.252
    1   AR   Ar  231   6.031   0.898   2.654
    1   AR   Ar  232   4.552   2.269   0.684
    1   AR   Ar  233   6.308   2.022   3.420
    1   AR   Ar  234   6.527   3.257   4.241
    1   AR   Ar  235   6.876   2.114   4.549
    1   AR   Ar  236   5.670   5.264   5.171
    1   AR   Ar  237   5.609   3.659   5.168
    1   AR   Ar  238   4.503   4.590   5.956
    1   AR   Ar  239   6.270   4.071   8.547
    1   AR   Ar  240   6.988   3.091   6.710
    1   AR   Ar  241   1.003   6.574  -0.568
    1   AR   Ar  242   5.231   4.736   0.420
    1   AR   Ar  243   5.502   4.597   2.681
    1   AR   Ar  244   0.886   5.599  -0.650
    1   AR   Ar  245   4.770   0.398   1.008
    1   AR   Ar  246   5.608   5.713   0.814
    1   AR   Ar  247   5.008   4.448   1.493
    1   AR   Ar  248   5.482   5.598  -0.183
    1   AR   Ar  249   4.222   5.755   2.283
    1   AR   Ar  250   5.374   5.818   4.240
    1   AR   Ar  251   5.719   5.018   3.777
    1   AR   Ar  252   4.882   5.503   3.026
    1   AR   Ar  253   6.167   3.881   6.300
    1   AR   Ar  254   1.963   4.974   8.816
    1   AR   Ar  255   4.883   3.099   7.260
    1   AR   Ar  256   0.035   6.038   3.748
    7.12000  7.12000 12.00000
Argon-slab step 2915
  256
    1   AR   Ar    1   6.736   1.283  -1.448
    1   AR   Ar    2   6.711   7.092   0.878
    1   AR   Ar    3   1.890   1.085   0.484
    1   AR   Ar    4   1.106   0.752  -0.824
    1   AR   Ar    5   0.241   6.024   0.514
    1   AR   Ar    6   7.048   0.883   2.306
    1   AR   Ar    7   6.297   4.224   3.323
    1   AR   Ar    8   5.929   0.345   1.659
    1   AR   Ar    9   1.117   0.117   3.242
    1   AR   Ar   10   0.858   0.906   4.099
    1   AR   Ar   11   2.197   6.485   4.046
    1   AR   Ar   12   0.899   1.389   3.034
    1   AR   Ar   13   6.595   0.838   4.942
    1   AR   Ar   14   0.726   2.055   7.319
    1   AR   Ar   15   5.433   1.000  10.600
    1   AR   Ar   16   1.163   0.669   5.168
    1   AR   Ar   17   6.664   1.921  -0.254
    1   AR   Ar   18   6.190   3.120  -0.547
    1   AR   Ar   19   1.788   2.791   1.459
    1   AR   Ar   20   4.914   4.149  -2.085
    1   AR   Ar   21   5.036   1.675   1.388
    1   AR   Ar   22   6.273   2.000   2.171
    1   AR   Ar   23   6.761   0.491  -0.582
    1   AR   Ar   24   0.146   2.306   1.172
    1   AR   Ar   25   6.796   1.058   3.708
    1   AR   Ar   26   5.782   1.125   4.044
    1   AR   Ar   27   1.638   1.607   3.943
    1   AR   Ar   28   0.758   2.474   4.889
    1   AR   Ar   29   5.292   2.312   6.551
    1   AR   Ar   30   2.120   1.335   4.988
    1   AR   Ar   31   1.794   0.026   7.563
    1   AR   Ar   32   1.469   2.995   5.668
    1   AR   Ar   33   1.227   4.247  -0.686
    1   AR   Ar   34   0.237   5.368   2.929
    1   AR   Ar   35   6.388   5.097   1.556
    1   AR   Ar   36   6.981   0.536  -3.838
    1   AR   Ar   37   5.521   2.514   2.553
    1   AR   Ar   38   0.056   4.054   2.470
    1   AR   Ar   39   1.169   3.286   3.122
    1   AR   Ar   40   2.053   3.716   0.744
    1   AR   Ar   41   0.406   3.325   4.205
    1   AR   Ar   42   6.378   5.418   4.450
    1   AR   Ar   43   7.034   2.056   6.042
    1   AR   Ar   44   0.837   4.266   3.506
    1   AR   Ar   45   0.238   3.099   5.660
    1   AR   Ar   46   1.099   6.206   6.051
    1   AR   Ar   47   6.076   3.280   7.237
    1   AR   Ar   48   0.408   6.554   6.842
    1   AR   Ar   49   5.613   0.659  -1.557
    1   AR   Ar   50   5.171   5.590   1.754
    1   AR   Ar   51   0.344   4.917   1.931
    1   AR   Ar   52   5.675   4.835  -0.973
    1   AR   Ar   53   5.408   6.439   2.570
    1   AR   Ar   54   0.123   6.408   2.680
    1   AR   Ar   55   6.308   5.614   2.456
    1   AR   Ar   56   0.477   0.603   0.934
    1   AR   Ar   57   5.586   3.382   3.206
    1   AR   Ar   58   6.907   4.462   4.155
    1   AR   Ar   59   1.740   5.343   6.148
    1   AR   Ar   60   1.016   6.254   3.847
    1   AR   Ar   61   6.490   4.954   5.895
    1   AR   Ar   62   0.736   4.936   5.060
    1   AR   Ar   63   2.104   0.694   6.699
    1   AR   Ar   64   1.482   6.651   4.990
    1   AR   Ar   65   3.601   0.144   0.767
    1   AR   Ar   66   0.831   1.357   1.649
    1   AR   Ar   67   2.804   6.106  -1.776
    1   AR   Ar   68   2.942   2.105  -0.613
    1   AR   Ar   69   2.697   1.077   1.147
    1   AR   Ar   70   0.640   6.936   1.885
    1   AR   Ar   71   2.668   1.318   4.134
    1   AR   Ar   72   3.227   0.486   1.715
    1   AR   Ar   73   3.263   0.553   3.665
    1   AR   Ar   74   2.043   0.397   3.884
    1   AR   Ar   75   3.613   1.434   4.691
    1   AR   Ar   76   1.577   0.828   2.180
    1   AR   Ar   77   2.111   6.335   6.260
    1   AR   Ar   78   0.960   0.201   6.450
    1   AR   Ar   79   3.886   6.311   6.268
    1   AR   Ar   80   3.433   5.045   5.706
    1   AR   Ar   81   2.648   0.151   0.219
    1   AR   Ar   82   6.776   6.017  -0.914
    1   AR   Ar   83   0.872   2.384   0.327
    1   AR   Ar   84   0.013   3.703  -0.314
    1   AR   Ar   85   0.862   3.177   0.984
    1   AR   Ar   86   2.255   3.956  -0.565
    1   AR   Ar   87   1.878   1.768   1.291
    1   AR   Ar   88   2.379   4.790   1.535
    1   AR   Ar   89   0.462   3.119   2.088
    1   AR   Ar   90   2.353   2.710   4.729
    1   AR   Ar   91   0.966   2.461   3.774
    1   AR   Ar   92   1.132   2.309   2.399
    1   AR   Ar   93   1.887   0.133   5.747
    1   AR   Ar   94   1.215   6.993  10.251
    1   AR   Ar   95   3.785   0.929   5.638
    1   AR   Ar   96   2.567   0.044   4.742
    1   AR   Ar   97   4.804   1.708  -0.872
    1   AR   Ar   98   2.350   5.352   2.480
    1   AR   Ar   99   6.392   2.574  -1.725
    1   AR   Ar  100   2.207   2.936  -0.692
    1   AR   Ar  101   3.383   4.573   0.811
    1   AR   Ar  102   3.338   2.995   4.204
    1   AR   Ar  103   1.182   4.804   0.784
    1   AR   Ar  104   3.144   2.844  -1.501
    1   AR   Ar  105   1.571   3.137   4.252
    1   AR   Ar  106   3.482   3.342   5.108
    1   AR   Ar  107   0.981   3.854   4.930
    1   AR   Ar  108   3.606   2.308   5.045
    1   AR   Ar  109   1.952   4.638   4.166
    1   AR   Ar  110   1.121   4.544   6.437
    1   AR   Ar  111   4.994   4.124   7.934
    1   AR   Ar  112   1.464   5.746   7.154
    1   AR   Ar  113   2.327   4.718   0.366
    1   AR   Ar  114   2.448   6.232  -0.554
    1   AR   Ar  115   2.562   5.048  -0.571
    1   AR   Ar  116   6.524   6.863  -1.630
    1   AR   Ar  117   1.170   5.242   3.730
    1   AR   Ar  118   1.335   5.634   2.670
    1   AR   Ar  119   2.227   3.485   2.725
    1   AR   Ar  120   1.694   6.676   2.395
    1   AR   Ar  121   6.370   4.411   5.038
    1   AR   Ar  122   2.752   6.086   4.958
    1   AR   Ar  123   3.647   4.312   4.999
    1   AR   Ar  124   2.010   5.878   1.610
    1   AR   Ar  125   0.378   4.099   5.968
    1   AR   Ar  126   7.071   6.944   4.502
    1   AR   Ar  127   3.321   3.987   5.932
    1   AR   Ar  128   2.903   5.668   6.516
    1   AR   Ar  129   2.604   6.524   2.815
    1   AR   Ar  130   5.104   2.785  -1.529
    1   AR   Ar  131   4.720   1.104  -0.033
    1   AR   Ar  132   0.409   1.392  -0.161
    1   AR   Ar  133   4.269   6.804   2.747
    1   AR   Ar  134   4.624   1.409   3.850
    1   AR   Ar  135   5.151   0.269   2.929
    1   AR   Ar  136   4.878   0.076   1.987
    1   AR   Ar  137   2.674   5.382   3.832
    1   AR   Ar  138   4.605   2.118   4.747
    1   AR   Ar  139   5.492   2.409   5.549
    1   AR   Ar  140   3.668   0.220   4.924
    1   AR   Ar  141   3.586   5.857   4.411
    1   AR   Ar  142   3.112   6.823   5.765
    1   AR   Ar  143   0.160   7.075   5.677
    1   AR   Ar  144   5.667   1.245   6.002
    1   AR   Ar  145   4.262   3.890   0.269
    1   AR   Ar  146   3.934   2.356   2.170
    1   AR   Ar  147   5.224   1.754  -1.860
    1   AR   Ar  148   3.020   4.694  -1.469
    1   AR   Ar  149   3.506   1.974   1.155
    1   AR   Ar  150   1.992   1.665   2.769
    1   AR   Ar  151   2.250   2.372   3.811
    1   AR   Ar  152   3.258   3.680  -0.023
    1   AR   Ar  153   4.350   0.392   3.716
    1   AR   Ar  154   4.050   2.296   3.732
    1   AR   Ar  155   6.584   0.238   7.178
    1   AR   Ar  156   3.751   3.849   3.956
    1   AR   Ar  157   2.346   3.476   6.462
    1   AR   Ar  158   0.966   3.123   6.934
    1   AR   Ar  159   4.387   2.220   5.900
    1   AR   Ar  160   3.010   1.576   5.517
    1   AR   Ar  161   5.035   3.003   1.706
    1   AR   Ar  162   4.203   5.852  -0.242
    1   AR   Ar  163   5.284   3.160   0.675
    1   AR   Ar  164   3.205   5.258   1.847
    1   AR   Ar  165   3.831   3.119   0.888
    1   AR   Ar  166   2.480   3.885   4.548
    1   AR   Ar  167   4.250   0.916   1.966
    1   AR   Ar  168   5.025   3.107  -0.518
    1   AR   Ar  169   3.179   3.214   1.988
    1   AR   Ar  170   2.326   4.200   5.725
    1   AR   Ar  171   5.726   4.040   4.143
    1   AR   Ar  172   4.772   4.960   4.531
    1   AR   Ar  173   2.752   3.163   7.443
    1   AR   Ar  174   2.368   4.694   7.183
    1   AR   Ar  175   2.747   2.667   5.754
    1   AR   Ar  176   3.771   3.084   6.293
    1   AR   Ar  177   6.207   4.582  -0.040
    1   AR   Ar  178   3.681   5.126   0.035
    1   AR   Ar  179   4.225   5.141   0.990
    1   AR   Ar  180   0.701   1.836  -3.042
    1   AR   Ar  181   0.946   5.759   1.707
    1   AR   Ar  182   2.821   0.635   2.699
    1   AR   Ar  183   3.545   5.235   2.971
    1   AR   Ar  184   4.117   6.447   1.348
    1   AR   Ar  185   2.177   5.234   5.039
    1   AR   Ar  186   3.753   4.961   3.972
    1   AR   Ar  187   3.364   6.566   3.583
    1   AR   Ar  188   2.956   6.556   1.645
    1   AR   Ar  189   3.681   2.699   7.410
    1   AR   Ar  190   4.329   6.712   4.477
    1   AR   Ar  191   3.502   5.408   7.551
    1   AR   Ar  192   4.677   5.900   5.202
    1   AR   Ar  193   1.659   5.944   0.131
    1   AR   Ar  194   4.085   3.896  -0.952
    1   AR   Ar  195   5.684   0.901  -0.531
    1   AR   Ar  196   4.788   7.034  -0.109
    1   AR   Ar  197   4.179   1.192   0.948
    1   AR   Ar  198   6.683   1.139   0.680
    1   AR   Ar  199   4.230   1.473   2.900
    1   AR   Ar  200   5.481   1.843   0.154
    1   AR   Ar  201   5.087   6.658   3.635
    1   AR   Ar  202   5.773   2.517   4.552
    1   AR   Ar  203   6.182   6.560   3.881
    1   AR   Ar  204   5.238   7.047   4.818
    1   AR   Ar  205   6.217   6.969   2.801
    1   AR   Ar  206   4.599   0.910   4.996
    1   AR   Ar  207   0.638   1.243   6.403
    1   AR   Ar  208   0.014   0.073   3.410
    1   AR   Ar  209   6.208   3.094  -2.651
    1   AR   Ar  210   3.359   1.160   0.085
    1   AR   Ar  211   6.699   2.940   0.408
    1   AR   Ar  212   5.866   3.471  -1.503
    1   AR   Ar  213   3.128   1.545   2.260
    1   AR   Ar  214   4.625   3.090   2.923
    1   AR   Ar  215   6.041   2.260   1.110
    1   AR   Ar  216   1.123   3.888   1.807
    1   AR   Ar  217   4.739   3.456   4.392
    1   AR   Ar  218   4.467   3.011   5.314
    1   AR   Ar  219   5.056   2.414   3.737
    1   AR   Ar  220   4.251   3.683   2.072
    1   AR   Ar  221   6.242   6.510   4.979
    1   AR   Ar  222   4.469   1.638   6.909
    1   AR   Ar  223   0.324   0.913   7.375
    1   AR   Ar  224   5.020   3.568   6.337
    1   AR   Ar  225   6.242   3.343   2.205
    1   AR   Ar  226   3.455   3.839   2.915
    1   AR   Ar  227   6.877   4.223   1.311
    1   AR   Ar  228   5.724   6.622   1.398
    1   AR   Ar  229   5.113   4.119  -0.399
    1   AR   Ar  230   4.544   4.087   3.282
    1   AR   Ar  231   6.063   0.899   2.622
    1   AR   Ar  232   4.567   2.235   0.646
    1   AR   Ar  233   6.298   2.022   3.424
    1   AR   Ar  234   6.515   3.261   4.240
    1   AR   Ar  235   6.920   2.119   4.542
    1   AR   Ar  236   5.657   5.272   5.167
    1   AR   Ar  237   5.617   3.664   5.147
    1   AR   Ar  238   4.521   4.562   5.982
    1   AR   Ar  239   6.234   4.051   8.508
    1   AR   Ar  240   7.011   3.066   6.704
    1   AR   Ar  241   1.008   6.588  -0.550
    1   AR   Ar  242   5.238   4.726   0.439
    1   AR   Ar  243   5.515   4.584   2.700
    1   AR   Ar  244   0.871   5.607  -0.667
    1   AR   Ar  245   4.769   0.346   1.051
    1   AR   Ar  246   5.622   5.727   0.813
    1   AR   Ar  247   5.028   4.456   1.508
    1   AR   Ar  248   5.476   5.593  -0.200
    1   AR   Ar  249   4.208   5.759   2.277
    1   AR   Ar  250   5.351   5.827   4.264
    1   AR   Ar  251   5.746   5.029   3.747
    1   AR   Ar  252   4.887   5.547   3.035
    1   AR   Ar  253   6.125   3.879   6.275
    1   AR   Ar  254   1.962   4.931   8.836
    1   AR   Ar  255   4.877   3.147   7.273
    1   AR   Ar  256   0.014   6.016   3.738
    7.12000  7.12000 12.00000
Argon-slab step 2920
  256
    1   AR   Ar    1   6.737   1.291  -1.437
    1   AR   Ar    2   6.703   7.092   0.859
    1   AR   Ar    3   1.895   1.071   0.465
    1   AR   Ar    4   1.084   0.729  -0.793
    1   AR   Ar    5   0.234   6.040   0.537
    1   AR   Ar    6   7.031   0.889   2.299
    1   AR   Ar    7   6.307   4.243   3.315
    1   AR   Ar    8   5.939   0.362   1.665
    1   AR   Ar    9   1.100   0.105   3.236
    1   AR   Ar   10   0.865   0.897   4.107
    1   AR   Ar   11   2.211   6.490   4.038
    1   AR   Ar   12   0.895   1.376   3.023
    1   AR   Ar   13   6.578   0.820   4.900
    1   AR   Ar   14   0.708   2.069   7.332
    1   AR   Ar   15   5.444   0.990  10.608
    1   AR   Ar   16   1.146   0.667   5.162
    1   AR   Ar   17   6.652   1.915  -0.243
    1   AR   Ar   18   6.228   3.104  -0.552
    1   AR   Ar   19   1.803   2.762   1.446
    1   AR   Ar   20   4.920   4.162  -2.080
    1   AR   Ar   21   4.998   1.673   1.387
    1   AR   Ar   22   6.273   1.990   2.143
    1   AR   Ar   23   6.727   0.505  -0.595
    1   AR   Ar   24   0.131   2.301   1.136
    1   AR   Ar   25   6.792   1.075   3.691
    1   AR   Ar   26   5.809   1.071   4.041
    1   AR   Ar   27   1.634   1.599   3.925
    1   AR   Ar   28   0.735   2.489   4.868
    1   AR   Ar   29   5.302   2.328   6.568
    1   AR   Ar   30   2.137   1.344   4.980
    1   AR   Ar   31   1.807   0.039   7.539
    1   AR   Ar   32   1.498   3.056   5.675
    1   AR   Ar   33   1.199   4.228  -0.686
    1   AR   Ar   34   0.259   5.362   2.926
    1   AR   Ar   35   6.417   5.124   1.507
    1   AR   Ar   36   6.963   0.533  -3.845
    1   AR   Ar   37   5.534   2.533   2.562
    1   AR   Ar   38   0.013   4.053   2.473
    1   AR   Ar   39   1.169   3.313   3.144
    1   AR   Ar   40   2.071   3.730   0.736
    1   AR   Ar   41   0.407   3.340   4.235
    1   AR   Ar   42   6.373   5.377   4.428
    1   AR   Ar   43   7.043   2.033   6.039
    1   AR   Ar   44   0.821   4.262   3.513
    1   AR   Ar   45   0.227   3.085   5.669
    1   AR   Ar   46   1.077   6.234   6.054
    1   AR   Ar   47   6.037   3.278   7.236
    1   AR   Ar   48   0.393   6.511   6.842
    1   AR   Ar   49   5.617   0.651  -1.548
    1   AR   Ar   50   5.183   5.565   1.762
    1   AR   Ar   51   0.329   4.901   1.924
    1   AR   Ar   52   5.671   4.851  -0.986
    1   AR   Ar   53   5.412   6.419   2.592
    1   AR   Ar   54   0.136   6.438   2.672
    1   AR   Ar   55   6.311   5.603   2.479
    1   AR   Ar   56   0.452   0.603   0.974
    1   AR   Ar   57   5.598   3.389   3.201
    1   AR   Ar   58   6.868   4.512   4.171
    1   AR   Ar   59   1.756   5.328   6.164
    1   AR   Ar   60   1.042   6.248   3.832
    1   AR   Ar   61   6.509   4.964   5.912
    1   AR   Ar   62   0.718   4.958   5.080
    1   AR   Ar   63   2.065   0.710   6.687
    1   AR   Ar   64   1.495   6.610   5.001
    1   AR   Ar   65   3.596   0.147   0.777
    1   AR   Ar   66   0.840   1.360   1.637
    1   AR   Ar   67   2.803   6.098  -1.788
    1   AR   Ar   68   2.962   2.077  -0.586
    1   AR   Ar   69   2.743   1.098   1.144
    1   AR   Ar   70   0.636   6.926   1.890
    1   AR   Ar   71   2.647   1.297   4.140
    1   AR   Ar   72   3.232   0.469   1.737
    1   AR   Ar   73   3.249   0.538   3.695
    1   AR   Ar   74   2.065   0.383   3.879
    1   AR   Ar   75   3.599   1.443   4.716
    1   AR   Ar   76   1.596   0.820   2.165
    1   AR   Ar   77   2.093   6.339   6.238
    1   AR   Ar   78   0.902   0.196   6.458
    1   AR   Ar   79   3.868   6.299   6.243
    1   AR   Ar   80   3.406   5.031   5.712
    1   AR   Ar   81   2.642   0.121   0.253
    1   AR   Ar   82   6.786   5.977  -0.927
    1   AR   Ar   83   0.913   2.381   0.343
    1   AR   Ar   84   0.023   3.722  -0.314
    1   AR   Ar   85   0.875   3.179   0.956
    1   AR   Ar   86   2.248   3.972  -0.582
    1   AR   Ar   87   1.872   1.756   1.298
    1   AR   Ar   88   2.373   4.789   1.546
    1   AR   Ar   89   0.452   3.086   2.079
    1   AR   Ar   90   2.352   2.721   4.708
    1   AR   Ar   91   0.981   2.450   3.785
    1   AR   Ar   92   1.133   2.318   2.402
    1   AR   Ar   93   1.863   0.110   5.730
    1   AR   Ar   94   1.198   6.982  10.265
    1   AR   Ar   95   3.790   0.950   5.640
    1   AR   Ar   96   2.596   0.044   4.700
    1   AR   Ar   97   4.807   1.689  -0.839
    1   AR   Ar   98   2.356   5.334   2.488
    1   AR   Ar   99   6.377   2.549  -1.749
    1   AR   Ar  100   2.200   2.947  -0.705
    1   AR   Ar  101   3.365   4.581   0.830
    1   AR   Ar  102   3.327   3.010   4.200
    1   AR   Ar  103   1.211   4.798   0.805
    1   AR   Ar  104   3.120   2.844  -1.489
    1   AR   Ar  105   1.575   3.131   4.266
    1   AR   Ar  106   3.459   3.364   5.121
    1   AR   Ar  107   0.978   3.848   4.940
    1   AR   Ar  108   3.596   2.311   5.055
    1   AR   Ar  109   1.965   4.624   4.169
    1   AR   Ar  110   1.123   4.535   6.438
    1   AR   Ar  111   4.972   4.142   7.945
    1   AR   Ar  112   1.478   5.755   7.159
    1   AR   Ar  113   2.339   4.702   0.335
    1   AR   Ar  114   2.429   6.276  -0.574
    1   AR   Ar  115   2.593   5.076  -0.544
    1   AR   Ar  116   6.564   6.852  -1.638
    1   AR   Ar  117   1.162   5.294   3.759
    1   AR   Ar  118   1.337   5.644   2.659
    1   AR   Ar  119   2.247   3.473   2.737
    1   AR   Ar  120   1.703   6.688   2.408
    1   AR   Ar  121   6.368   4.433   5.052
    1   AR   Ar  122   2.742   6.117   4.958
    1   AR   Ar  123   3.631   4.326   4.976
    1   AR   Ar  124   2.014   5.865   1.613
    1   AR   Ar  125   0.364   4.122   5.954
    1   AR   Ar  126   7.090   6.952   4.501
    1   AR   Ar  127   3.315   3.989   5.923
    1   AR   Ar  128   2.945   5.658   6.512
    1   AR   Ar  129   2.593   6.515   2.799
    1   AR   Ar  130   5.111   2.805  -1.548
    1   AR   Ar  131   4.720   1.110  -0.009
    1   AR   Ar  132   0.400   1.376  -0.200
    1   AR   Ar  133   4.292   6.817   2.769
    1   AR   Ar  134   4.635   1.416   3.848
    1   AR   Ar  135   5.143   0.261   2.954
    1   AR   Ar  136   4.888   0.075   1.990
    1   AR   Ar  137   2.683   5.381   3.806
    1   AR   Ar  138   4.588   2.112   4.743
    1   AR   Ar  139   5.491   2.415   5.595
    1   AR   Ar  140   3.714   0.202   4.901
    1   AR   Ar  141   3.594   5.867   4.385
    1   AR   Ar  142   3.109   6.810   5.747
    1   AR   Ar  143   0.121   7.088   5.660
    1   AR   Ar  144   5.673   1.269   5.986
    1   AR   Ar  145   4.298   3.824   0.253
    1   AR   Ar  146   3.909   2.364   2.181
    1   AR   Ar  147   5.227   1.737  -1.851
    1   AR   Ar  148   2.986   4.692  -1.486
    1   AR   Ar  149   3.495   1.971   1.138
    1   AR   Ar  150   1.991   1.640   2.788
    1   AR   Ar  151   2.251   2.334   3.803
    1   AR   Ar  152   3.262   3.669  -0.029
    1   AR   Ar  153   4.369   0.419   3.768
    1   AR   Ar  154   4.086   2.288   3.790
    1   AR   Ar  155   6.575   0.218   7.191
    1   AR   Ar  156   3.745   3.858   3.954
    1   AR   Ar  157   2.340   3.489   6.473
    1   AR   Ar  158   0.975   3.096   6.942
    1   AR   Ar  159   4.360   2.180   5.921
    1   AR   Ar  160   3.003   1.573   5.492
    1   AR   Ar  161   5.014   3.013   1.735
    1   AR   Ar  162   4.226   5.854  -0.228
    1   AR   Ar  163   5.251   3.124   0.699
    1   AR   Ar  164   3.208   5.248   1.816
    1   AR   Ar  165   3.819   3.115   0.867
    1   AR   Ar  166   2.455   3.850   4.540
    1   AR   Ar  167   4.234   0.918   1.946
    1   AR   Ar  168   5.037   3.079  -0.499
    1   AR   Ar  169   3.192   3.209   2.004
    1   AR   Ar  170   2.318   4.177   5.750
    1   AR   Ar  171   5.750   4.075   4.119
    1   AR   Ar  172   4.781   4.950   4.550
    1   AR   Ar  173   2.773   3.144   7.454
    1   AR   Ar  174   2.340   4.706   7.182
    1   AR   Ar  175   2.725   2.685   5.714
    1   AR   Ar  176   3.756   3.080   6.261
    1   AR   Ar  177   6.211   4.606  -0.041
    1   AR   Ar  178   3.693   5.100   0.051
    1   AR   Ar  179   4.244   5.136   0.992
    1   AR   Ar  180   0.685   1.823  -3.015
    1   AR   Ar  181   0.931   5.757   1.707
    1   AR   Ar  182   2.784   0.639   2.686
    1   AR   Ar  183   3.532   5.222   2.980
    1   AR   Ar  184   4.095   6.422   1.328
    1   AR   Ar  185   2.195   5.257   5.062
    1   AR   Ar  186   3.762   4.900   3.963
    1   AR   Ar  187   3.392   6.598   3.589
    1   AR   Ar  188   2.968   6.553   1.660
    1   AR   Ar  189   3.684   2.719   7.426
    1   AR   Ar  190   4.359   6.700   4.428
    1   AR   Ar  191   3.510   5.415   7.589
    1   AR   Ar  192   4.641   5.922   5.169
    1   AR   Ar  193   1.701   5.923   0.145
    1   AR   Ar  194   4.099   3.898  -0.971
    1   AR   Ar  195   5.685   0.931  -0.499
    1   AR   Ar  196   4.778   7.053  -0.098
    1   AR   Ar  197   4.145   1.187   0.957
    1   AR   Ar  198   6.664   1.130   0.702
    1   AR   Ar  199   4.198   1.476   2.892
    1   AR   Ar  200   5.445   1.823   0.148
    1   AR   Ar  201   5.096   6.664   3.665
    1   AR   Ar  202   5.776   2.478   4.554
    1   AR   Ar  203   6.175   6.562   3.868
    1   AR   Ar  204   5.219   7.041   4.829
    1   AR   Ar  205   6.231   6.949   2.795
    1   AR   Ar  206   4.628   0.937   4.971
    1   AR   Ar  207   0.625   1.249   6.402
    1   AR   Ar  208   7.116   0.077   3.385
    1   AR   Ar  209   6.273   3.089  -2.691
    1   AR   Ar  210   3.334   1.198   0.043
    1   AR   Ar  211   6.690   2.911   0.433
    1   AR   Ar  212   5.837   3.460  -1.494
    1   AR   Ar  213   3.116   1.497   2.254
    1   AR   Ar  214   4.625   3.104   2.919
    1   AR   Ar  215   6.078   2.280   1.078
    1   AR   Ar  216   1.107   3.876   1.793
    1   AR   Ar  217   4.762   3.471   4.372
    1   AR   Ar  218   4.476   2.977   5.312
    1   AR   Ar  219   5.084   2.426   3.728
    1   AR   Ar  220   4.260   3.687   2.051
    1   AR   Ar  221   6.234   6.504   5.015
    1   AR   Ar  222   4.430   1.637   6.843
    1   AR   Ar  223   0.315   0.911   7.424
    1   AR   Ar  224   5.051   3.563   6.309
    1   AR   Ar  225   6.240   3.323   2.235
    1   AR   Ar  226   3.431   3.830   2.928
    1   AR   Ar  227   6.881   4.206   1.315
    1   AR   Ar  228   5.726   6.584   1.383
    1   AR   Ar  229   5.096   4.129  -0.379
    1   AR   Ar  230   4.545   4.129   3.311
    1   AR   Ar  231   6.090   0.902   2.593
    1   AR   Ar  232   4.578   2.204   0.605
    1   AR   Ar  233   6.286   2.022   3.427
    1   AR   Ar  234   6.496   3.267   4.239
    1   AR   Ar  235   6.963   2.124   4.534
    1   AR   Ar  236   5.640   5.279   5.167
    1   AR   Ar  237   5.622   3.665   5.128
    1   AR   Ar  238   4.537   4.533   6.006
    1   AR   Ar  239   6.197   4.031   8.467
    1   AR   Ar  240   7.034   3.040   6.696
    1   AR   Ar  241   1.023   6.564  -0.554
    1   AR   Ar  242   5.235   4.710   0.452
    1   AR   Ar  243   5.525   4.571   2.717
    1   AR   Ar  244   0.853   5.604  -0.684
    1   AR   Ar  245   4.769   0.295   1.081
    1   AR   Ar  246   5.637   5.739   0.814
    1   AR   Ar  247   5.048   4.465   1.524
    1   AR   Ar  248   5.469   5.589  -0.221
    1   AR   Ar  249   4.169   5.762   2.264
    1   AR   Ar  250   5.327   5.843   4.292
    1   AR   Ar  251   5.769   5.038   3.711
    1   AR   Ar  252   4.895   5.590   3.047
    1   AR   Ar  253   6.085   3.876   6.249
    1   AR   Ar  254   1.960   4.888   8.855
    1   AR   Ar  255   4.885   3.139   7.299
    1   AR   Ar  256   7.107   5.995   3.731
    7.12000  7.12000 12.00000
Argon-slab step 2925
  256
    1   AR   Ar    1   6.755   1.293  -1.424
    1   AR   Ar    2   6.694   7.090   0.840
    1   AR   Ar    3   1.899   1.055   0.444
    1   AR   Ar    4   1.063   0.704  -0.760
    1   AR   Ar    5   0.228   6.056   0.560
    1   AR   Ar    6   7.027   0.894   2.288
    1   AR   Ar    7   6.322   4.262   3.301
    1   AR   Ar    8   5.953   0.398   1.676
    1   AR   Ar    9   1.084   0.095   3.230
    1   AR   Ar   10   0.854   0.879   4.110
    1   AR   Ar   11   2.210   6.465   4.067
    1   AR   Ar   12   0.891   1.362   3.012
    1   AR   Ar   13   6.561   0.800   4.858
    1   AR   Ar   14   0.689   2.081   7.343
    1   AR   Ar   15   5.456   0.980  10.615
    1   AR   Ar   16   1.127   0.665   5.155
    1   AR   Ar   17   6.634   1.911  -0.231
    1   AR   Ar   18   6.266   3.086  -0.556
    1   AR   Ar   19   1.817   2.740   1.435
    1   AR   Ar   20   4.921   4.172  -2.073
    1   AR   Ar   21   4.964   1.670   1.391
    1   AR   Ar   22   6.279   1.975   2.111
    1   AR   Ar   23   6.694   0.519  -0.609
    1   AR   Ar   24   0.135   2.300   1.096
    1   AR   Ar   25   6.792   1.092   3.673
    1   AR   Ar   26   5.831   1.016   4.039
    1   AR   Ar   27   1.621   1.579   3.908
    1   AR   Ar   28   0.720   2.508   4.849
    1   AR   Ar   29   5.310   2.344   6.595
    1   AR   Ar   30   2.143   1.351   4.979
    1   AR   Ar   31   1.829   0.060   7.525
    1   AR   Ar   32   1.527   3.119   5.681
    1   AR   Ar   33   1.170   4.211  -0.684
    1   AR   Ar   34   0.281   5.353   2.923
    1   AR   Ar   35   6.443   5.155   1.459
    1   AR   Ar   36   6.944   0.529  -3.853
    1   AR   Ar   37   5.539   2.520   2.577
    1   AR   Ar   38   7.089   4.050   2.477
    1   AR   Ar   39   1.169   3.338   3.165
    1   AR   Ar   40   2.089   3.743   0.729
    1   AR   Ar   41   0.438   3.361   4.246
    1   AR   Ar   42   6.373   5.347   4.411
    1   AR   Ar   43   7.052   2.011   6.036
    1   AR   Ar   44   0.803   4.259   3.522
    1   AR   Ar   45   0.218   3.069   5.674
    1   AR   Ar   46   1.079   6.231   6.056
    1   AR   Ar   47   5.997   3.276   7.234
    1   AR   Ar   48   0.375   6.466   6.844
    1   AR   Ar   49   5.626   0.647  -1.538
    1   AR   Ar   50   5.195   5.541   1.773
    1   AR   Ar   51   0.316   4.885   1.917
    1   AR   Ar   52   5.667   4.866  -1.000
    1   AR   Ar   53   5.409   6.393   2.608
    1   AR   Ar   54   0.148   6.463   2.665
    1   AR   Ar   55   6.313   5.593   2.504
    1   AR   Ar   56   0.428   0.602   1.013
    1   AR   Ar   57   5.612   3.399   3.199
    1   AR   Ar   58   6.836   4.556   4.182
    1   AR   Ar   59   1.776   5.313   6.178
    1   AR   Ar   60   1.067   6.261   3.818
    1   AR   Ar   61   6.529   4.975   5.933
    1   AR   Ar   62   0.701   4.979   5.099
    1   AR   Ar   63   2.024   0.726   6.673
    1   AR   Ar   64   1.507   6.566   5.008
    1   AR   Ar   65   3.601   0.150   0.783
    1   AR   Ar   66   0.848   1.367   1.626
    1   AR   Ar   67   2.802   6.089  -1.798
    1   AR   Ar   68   2.982   2.050  -0.559
    1   AR   Ar   69   2.786   1.126   1.136
    1   AR   Ar   70   0.635   6.917   1.894
    1   AR   Ar   71   2.632   1.277   4.136
    1   AR   Ar   72   3.244   0.448   1.765
    1   AR   Ar   73   3.237   0.521   3.726
    1   AR   Ar   74   2.083   0.377   3.870
    1   AR   Ar   75   3.593   1.423   4.718
    1   AR   Ar   76   1.617   0.810   2.152
    1   AR   Ar   77   2.081   6.344   6.218
    1   AR   Ar   78   0.850   0.194   6.465
    1   AR   Ar   79   3.847   6.280   6.214
    1   AR   Ar   80   3.412   5.017   5.720
    1   AR   Ar   81   2.635   0.091   0.287
    1   AR   Ar   82   6.797   5.937  -0.939
    1   AR   Ar   83   0.918   2.381   0.341
    1   AR   Ar   84   0.033   3.741  -0.314
    1   AR   Ar   85   0.886   3.188   0.933
    1   AR   Ar   86   2.245   3.993  -0.598
    1   AR   Ar   87   1.865   1.739   1.307
    1   AR   Ar   88   2.358   4.782   1.551
    1   AR   Ar   89   0.439   3.053   2.069
    1   AR   Ar   90   2.361   2.731   4.701
    1   AR   Ar   91   0.992   2.434   3.793
    1   AR   Ar   92   1.135   2.326   2.405
    1   AR   Ar   93   1.875   0.076   5.709
    1   AR   Ar   94   1.180   6.971  10.279
    1   AR   Ar   95   3.799   0.969   5.649
    1   AR   Ar   96   2.631   0.049   4.666
    1   AR   Ar   97   4.813   1.674  -0.810
    1   AR   Ar   98   2.365   5.318   2.500
    1   AR   Ar   99   6.361   2.522  -1.772
    1   AR   Ar  100   2.202   2.936  -0.700
    1   AR   Ar  101   3.341   4.581   0.857
    1   AR   Ar  102   3.308   3.008   4.190
    1   AR   Ar  103   1.242   4.792   0.827
    1   AR   Ar  104   3.096   2.843  -1.476
    1   AR   Ar  105   1.572   3.135   4.278
    1   AR   Ar  106   3.434   3.378   5.140
    1   AR   Ar  107   0.977   3.842   4.953
    1   AR   Ar  108   3.587   2.343   5.074
    1   AR   Ar  109   1.971   4.618   4.168
    1   AR   Ar  110   1.133   4.528   6.445
    1   AR   Ar  111   4.952   4.158   7.954
    1   AR   Ar  112   1.492   5.765   7.162
    1   AR   Ar  113   2.348   4.683   0.313
    1   AR   Ar  114   2.410   6.320  -0.594
    1   AR   Ar  115   2.628   5.110  -0.525
    1   AR   Ar  116   6.593   6.845  -1.638
    1   AR   Ar  117   1.156   5.329   3.785
    1   AR   Ar  118   1.339   5.656   2.653
    1   AR   Ar  119   2.268   3.462   2.749
    1   AR   Ar  120   1.700   6.703   2.417
    1   AR   Ar  121   6.364   4.452   5.067
    1   AR   Ar  122   2.732   6.153   4.960
    1   AR   Ar  123   3.620   4.350   4.945
    1   AR   Ar  124   2.019   5.853   1.615
    1   AR   Ar  125   0.340   4.141   5.933
    1   AR   Ar  126   7.099   6.960   4.500
    1   AR   Ar  127   3.312   3.992   5.922
    1   AR   Ar  128   2.986   5.647   6.507
    1   AR   Ar  129   2.593   6.504   2.788
    1   AR   Ar  130   5.109   2.815  -1.568
    1   AR   Ar  131   4.714   1.107   0.022
    1   AR   Ar  132   0.394   1.358  -0.238
    1   AR   Ar  133   4.310   6.827   2.794
    1   AR   Ar  134   4.652   1.422   3.850
    1   AR   Ar  135   5.142   0.265   2.982
    1   AR   Ar  136   4.894   0.092   2.001
    1   AR   Ar  137   2.694   5.382   3.781
    1   AR   Ar  138   4.575   2.102   4.737
    1   AR   Ar  139   5.489   2.422   5.631
    1   AR   Ar  140   3.755   0.187   4.877
    1   AR   Ar  141   3.603   5.877   4.360
    1   AR   Ar  142   3.102   6.799   5.725
    1   AR   Ar  143   0.082   7.101   5.642
    1   AR   Ar  144   5.686   1.285   5.964
    1   AR   Ar  145   4.336   3.761   0.237
    1   AR   Ar  146   3.885   2.371   2.193
    1   AR   Ar  147   5.205   1.724  -1.858
    1   AR   Ar  148   2.953   4.690  -1.502
    1   AR   Ar  149   3.483   1.972   1.123
    1   AR   Ar  150   1.990   1.615   2.808
    1   AR   Ar  151   2.262   2.305   3.782
    1   AR   Ar  152   3.265   3.659  -0.034
    1   AR   Ar  153   4.385   0.442   3.820
    1   AR   Ar  154   4.111   2.284   3.847
    1   AR   Ar  155   6.541   0.199   7.184
    1   AR   Ar  156   3.728   3.851   3.944
    1   AR   Ar  157   2.335   3.496   6.490
    1   AR   Ar  158   0.986   3.070   6.949
    1   AR   Ar  159   4.332   2.136   5.944
    1   AR   Ar  160   2.975   1.570   5.456
    1   AR   Ar  161   4.993   3.021   1.765
    1   AR   Ar  162   4.262   5.873  -0.220
    1   AR   Ar  163   5.213   3.095   0.713
    1   AR   Ar  164   3.223   5.251   1.779
    1   AR   Ar  165   3.806   3.107   0.848
    1   AR   Ar  166   2.437   3.806   4.537
    1   AR   Ar  167   4.217   0.921   1.930
    1   AR   Ar  168   5.049   3.049  -0.479
    1   AR   Ar  169   3.205   3.205   2.019
    1   AR   Ar  170   2.305   4.163   5.766
    1   AR   Ar  171   5.768   4.106   4.106
    1   AR   Ar  172   4.782   4.975   4.575
    1   AR   Ar  173   2.786   3.129   7.465
    1   AR   Ar  174   2.311   4.718   7.179
    1   AR   Ar  175   2.705   2.705   5.675
    1   AR   Ar  176   3.742   3.073   6.228
    1   AR   Ar  177   6.214   4.630  -0.041
    1   AR   Ar  178   3.717   5.083   0.029
    1   AR   Ar  179   4.268   5.134   0.996
    1   AR   Ar  180   0.669   1.809  -2.988
    1   AR   Ar  181   0.914   5.757   1.704
    1   AR   Ar  182   2.741   0.638   2.679
    1   AR   Ar  183   3.510   5.213   2.975
    1   AR   Ar  184   4.075   6.398   1.310
    1   AR   Ar  185   2.210   5.275   5.086
    1   AR   Ar  186   3.773   4.840   3.956
    1   AR   Ar  187   3.421   6.629   3.596
    1   AR   Ar  188   2.980   6.548   1.676
    1   AR   Ar  189   3.696   2.735   7.439
    1   AR   Ar  190   4.383   6.678   4.375
    1   AR   Ar  191   3.517   5.422   7.626
    1   AR   Ar  192   4.604   5.944   5.136
    1   AR   Ar  193   1.742   5.901   0.159
    1   AR   Ar  194   4.113   3.900  -0.989
    1   AR   Ar  195   5.687   0.963  -0.467
    1   AR   Ar  196   4.767   7.072  -0.085
    1   AR   Ar  197   4.110   1.180   0.959
    1   AR   Ar  198   6.643   1.122   0.723
    1   AR   Ar  199   4.158   1.480   2.883
    1   AR   Ar  200   5.416   1.807   0.143
    1   AR   Ar  201   5.105   6.667   3.697
    1   AR   Ar  202   5.780   2.440   4.554
    1   AR   Ar  203   6.168   6.565   3.855
    1   AR   Ar  204   5.207   7.036   4.841
    1   AR   Ar  205   6.253   6.934   2.791
    1   AR   Ar  206   4.658   0.965   4.943
    1   AR   Ar  207   0.613   1.256   6.401
    1   AR   Ar  208   7.098   0.082   3.364
    1   AR   Ar  209   6.337   3.084  -2.731
    1   AR   Ar  210   3.332   1.209   0.022
    1   AR   Ar  211   6.681   2.884   0.457
    1   AR   Ar  212   5.816   3.461  -1.486
    1   AR   Ar  213   3.107   1.455   2.242
    1   AR   Ar  214   4.621   3.116   2.914
    1   AR   Ar  215   6.076   2.278   1.064
    1   AR   Ar  216   1.091   3.867   1.779
    1   AR   Ar  217   4.785   3.485   4.348
    1   AR   Ar  218   4.486   2.953   5.308
    1   AR   Ar  219   5.118   2.441   3.716
    1   AR   Ar  220   4.265   3.693   2.031
    1   AR   Ar  221   6.226   6.496   5.049
    1   AR   Ar  222   4.392   1.636   6.778
    1   AR   Ar  223   0.308   0.910   7.473
    1   AR   Ar  224   5.080   3.556   6.278
    1   AR   Ar  225   6.238   3.304   2.264
    1   AR   Ar  226   3.407   3.821   2.939
    1   AR   Ar  227   6.887   4.183   1.320
    1   AR   Ar  228   5.724   6.533   1.367
    1   AR   Ar  229   5.093   4.138  -0.368
    1   AR   Ar  230   4.548   4.171   3.339
    1   AR   Ar  231   6.105   0.907   2.570
    1   AR   Ar  232   4.585   2.177   0.563
    1   AR   Ar  233   6.305   2.045   3.427
    1   AR   Ar  234   6.472   3.273   4.237
    1   AR   Ar  235   6.998   2.127   4.522
    1   AR   Ar  236   5.621   5.286   5.170
    1   AR   Ar  237   5.626   3.663   5.110
    1   AR   Ar  238   4.552   4.504   6.028
    1   AR   Ar  239   6.160   4.009   8.444
    1   AR   Ar  240   7.055   3.014   6.689
    1   AR   Ar  241   1.033   6.548  -0.571
    1   AR   Ar  242   5.225   4.692   0.462
    1   AR   Ar  243   5.531   4.560   2.732
    1   AR   Ar  244   0.834   5.588  -0.702
    1   AR   Ar  245   4.766   0.247   1.086
    1   AR   Ar  246   5.653   5.745   0.813
    1   AR   Ar  247   5.068   4.473   1.541
    1   AR   Ar  248   5.461   5.584  -0.243
    1   AR   Ar  249   4.130   5.766   2.247
    1   AR   Ar  250   5.305   5.861   4.320
    1   AR   Ar  251   5.784   5.049   3.668
    1   AR   Ar  252   4.903   5.601   3.038
    1   AR   Ar  253   6.047   3.874   6.221
    1   AR   Ar  254   1.959   4.845   8.874
    1   AR   Ar  255   4.892   3.131   7.326
    1   AR   Ar  256   7.078   5.975   3.724
    7.12000  7.12000 12.00000
Argon-slab step 2930
  256
    1   AR   Ar    1   6.783   1.291  -1.411
    1   AR   Ar    2   6.682   7.088   0.822
    1   AR   Ar    3   1.912   1.060   0.445
    1   AR   Ar    4   1.042   0.678  -0.729
    1   AR   Ar    5   0.222   6.073   0.583
    1   AR   Ar    6   7.040   0.899   2.272
    1   AR   Ar    7   6.326   4.286   3.294
    1   AR   Ar    8   5.967   0.435   1.684
    1   AR   Ar    9   1.069   0.085   3.223
    1   AR   Ar   10   0.839   0.858   4.112
    1   AR   Ar   11   2.206   6.433   4.090
    1   AR   Ar   12   0.888   1.347   3.001
    1   AR   Ar   13   6.545   0.780   4.814
    1   AR   Ar   14   0.669   2.092   7.352
    1   AR   Ar   15   5.441   0.989  10.612
    1   AR   Ar   16   1.109   0.662   5.149
    1   AR   Ar   17   6.610   1.909  -0.219
    1   AR   Ar   18   6.303   3.067  -0.560
    1   AR   Ar   19   1.830   2.727   1.425
    1   AR   Ar   20   4.923   4.181  -2.064
    1   AR   Ar   21   4.934   1.666   1.399
    1   AR   Ar   22   6.290   1.956   2.079
    1   AR   Ar   23   6.661   0.534  -0.622
    1   AR   Ar   24   0.140   2.295   1.060
    1   AR   Ar   25   6.798   1.109   3.653
    1   AR   Ar   26   5.846   0.962   4.038
    1   AR   Ar   27   1.601   1.548   3.893
    1   AR   Ar   28   0.711   2.509   4.855
    1   AR   Ar   29   5.294   2.366   6.633
    1   AR   Ar   30   2.130   1.355   4.983
    1   AR   Ar   31   1.864   0.091   7.527
    1   AR   Ar   32   1.557   3.182   5.686
    1   AR   Ar   33   1.140   4.194  -0.681
    1   AR   Ar   34   0.267   5.304   2.912
    1   AR   Ar   35   6.460   5.177   1.408
    1   AR   Ar   36   6.947   0.472  -3.844
    1   AR   Ar   37   5.540   2.507   2.595
    1   AR   Ar   38   7.044   4.046   2.482
    1   AR   Ar   39   1.170   3.359   3.184
    1   AR   Ar   40   2.105   3.754   0.724
    1   AR   Ar   41   0.444   3.368   4.245
    1   AR   Ar   42   6.361   5.342   4.410
    1   AR   Ar   43   7.059   1.992   6.032
    1   AR   Ar   44   0.783   4.260   3.532
    1   AR   Ar   45   0.225   3.047   5.658
    1   AR   Ar   46   1.074   6.189   6.046
    1   AR   Ar   47   5.957   3.274   7.231
    1   AR   Ar   48   0.355   6.419   6.848
    1   AR   Ar   49   5.673   0.621  -1.527
    1   AR   Ar   50   5.206   5.517   1.787
    1   AR   Ar   51   0.304   4.871   1.910
    1   AR   Ar   52   5.663   4.879  -1.016
    1   AR   Ar   53   5.404   6.365   2.621
    1   AR   Ar   54   0.159   6.480   2.660
    1   AR   Ar   55   6.315   5.583   2.531
    1   AR   Ar   56   0.407   0.600   1.052
    1   AR   Ar   57   5.627   3.411   3.201
    1   AR   Ar   58   6.834   4.541   4.203
    1   AR   Ar   59   1.792   5.313   6.192
    1   AR   Ar   60   1.090   6.303   3.804
    1   AR   Ar   61   6.550   4.988   5.958
    1   AR   Ar   62   0.683   4.998   5.118
    1   AR   Ar   63   1.983   0.742   6.658
    1   AR   Ar   64   1.493   6.545   5.001
    1   AR   Ar   65   3.608   0.155   0.790
    1   AR   Ar   66   0.855   1.378   1.617
    1   AR   Ar   67   2.801   6.080  -1.807
    1   AR   Ar   68   3.001   2.025  -0.533
    1   AR   Ar   69   2.828   1.155   1.124
    1   AR   Ar   70   0.636   6.913   1.892
    1   AR   Ar   71   2.625   1.259   4.122
    1   AR   Ar   72   3.260   0.426   1.794
    1   AR   Ar   73   3.225   0.507   3.758
    1   AR   Ar   74   2.096   0.374   3.855
    1   AR   Ar   75   3.598   1.390   4.700
    1   AR   Ar   76   1.639   0.799   2.140
    1   AR   Ar   77   2.078   6.344   6.203
    1   AR   Ar   78   0.801   0.194   6.469
    1   AR   Ar   79   3.830   6.257   6.186
    1   AR   Ar   80   3.418   5.008   5.729
    1   AR   Ar   81   2.626   0.063   0.321
    1   AR   Ar   82   6.808   5.897  -0.951
    1   AR   Ar   83   0.870   2.387   0.314
    1   AR   Ar   84   0.043   3.760  -0.313
    1   AR   Ar   85   0.897   3.204   0.916
    1   AR   Ar   86   2.244   4.018  -0.612
    1   AR   Ar   87   1.858   1.714   1.317
    1   AR   Ar   88   2.336   4.770   1.551
    1   AR   Ar   89   0.423   3.020   2.058
    1   AR   Ar   90   2.381   2.737   4.703
    1   AR   Ar   91   0.999   2.415   3.797
    1   AR   Ar   92   1.140   2.331   2.408
    1   AR   Ar   93   1.888   0.052   5.691
    1   AR   Ar   94   1.163   6.961  10.293
    1   AR   Ar   95   3.813   0.985   5.662
    1   AR   Ar   96   2.672   0.060   4.641
    1   AR   Ar   97   4.820   1.664  -0.787
    1   AR   Ar   98   2.375   5.303   2.516
    1   AR   Ar   99   6.344   2.495  -1.792
    1   AR   Ar  100   2.218   2.897  -0.668
    1   AR   Ar  101   3.321   4.571   0.874
    1   AR   Ar  102   3.281   2.991   4.180
    1   AR   Ar  103   1.274   4.787   0.851
    1   AR   Ar  104   3.072   2.843  -1.461
    1   AR   Ar  105   1.560   3.147   4.287
    1   AR   Ar  106   3.408   3.383   5.159
    1   AR   Ar  107   0.981   3.840   4.972
    1   AR   Ar  108   3.577   2.386   5.097
    1   AR   Ar  109   1.972   4.619   4.164
    1   AR   Ar  110   1.148   4.521   6.455
    1   AR   Ar  111   4.937   4.166   7.942
    1   AR   Ar  112   1.506   5.776   7.163
    1   AR   Ar  113   2.353   4.660   0.303
    1   AR   Ar  114   2.391   6.364  -0.616
    1   AR   Ar  115   2.666   5.150  -0.516
    1   AR   Ar  116   6.578   6.846  -1.612
    1   AR   Ar  117   1.152   5.337   3.810
    1   AR   Ar  118   1.341   5.668   2.650
    1   AR   Ar  119   2.262   3.474   2.733
    1   AR   Ar  120   1.686   6.720   2.420
    1   AR   Ar  121   6.355   4.467   5.082
    1   AR   Ar  122   2.723   6.189   4.963
    1   AR   Ar  123   3.611   4.379   4.908
    1   AR   Ar  124   2.025   5.843   1.619
    1   AR   Ar  125   0.326   4.156   5.917
    1   AR   Ar  126   7.092   6.970   4.499
    1   AR   Ar  127   3.310   3.998   5.930
    1   AR   Ar  128   3.024   5.637   6.503
    1   AR   Ar  129   2.603   6.490   2.781
    1   AR   Ar  130   5.094   2.812  -1.589
    1   AR   Ar  131   4.699   1.094   0.060
    1   AR   Ar  132   0.390   1.338  -0.273
    1   AR   Ar  133   4.322   6.831   2.822
    1   AR   Ar  134   4.676   1.428   3.855
    1   AR   Ar  135   5.149   0.280   3.012
    1   AR   Ar  136   4.906   0.103   2.031
    1   AR   Ar  137   2.707   5.384   3.756
    1   AR   Ar  138   4.568   2.086   4.735
    1   AR   Ar  139   5.488   2.430   5.655
    1   AR   Ar  140   3.791   0.176   4.854
    1   AR   Ar  141   3.614   5.887   4.336
    1   AR   Ar  142   3.089   6.796   5.703
    1   AR   Ar  143   0.044   7.114   5.624
    1   AR   Ar  144   5.699   1.302   5.940
    1   AR   Ar  145   4.375   3.699   0.221
    1   AR   Ar  146   3.863   2.378   2.203
    1   AR   Ar  147   5.184   1.711  -1.865
    1   AR   Ar  148   2.919   4.688  -1.518
    1   AR   Ar  149   3.469   1.977   1.109
    1   AR   Ar  150   1.990   1.590   2.829
    1   AR   Ar  151   2.280   2.284   3.753
    1   AR   Ar  152   3.268   3.641  -0.032
    1   AR   Ar  153   4.400   0.461   3.870
    1   AR   Ar  154   4.123   2.286   3.899
    1   AR   Ar  155   6.509   0.179   7.177
    1   AR   Ar  156   3.716   3.845   3.935
    1   AR   Ar  157   2.331   3.495   6.515
    1   AR   Ar  158   0.998   3.044   6.954
    1   AR   Ar  159   4.303   2.098   5.951
    1   AR   Ar  160   2.945   1.574   5.436
    1   AR   Ar  161   4.984   3.021   1.778
    1   AR   Ar  162   4.305   5.900  -0.212
    1   AR   Ar  163   5.168   3.077   0.717
    1   AR   Ar  164   3.246   5.259   1.743
    1   AR   Ar  165   3.792   3.097   0.833
    1   AR   Ar  166   2.423   3.769   4.540
    1   AR   Ar  167   4.200   0.924   1.920
    1   AR   Ar  168   5.062   3.018  -0.457
    1   AR   Ar  169   3.218   3.201   2.033
    1   AR   Ar  170   2.287   4.159   5.771
    1   AR   Ar  171   5.778   4.134   4.103
    1   AR   Ar  172   4.780   4.995   4.599
    1   AR   Ar  173   2.789   3.118   7.475
    1   AR   Ar  174   2.282   4.731   7.174
    1   AR   Ar  175   2.687   2.725   5.641
    1   AR   Ar  176   3.731   3.060   6.209
    1   AR   Ar  177   6.216   4.654  -0.042
    1   AR   Ar  178   3.735   5.057   0.006
    1   AR   Ar  179   4.295   5.133   1.001
    1   AR   Ar  180   0.653   1.795  -2.961
    1   AR   Ar  181   0.896   5.760   1.697
    1   AR   Ar  182   2.692   0.628   2.679
    1   AR   Ar  183   3.478   5.218   2.951
    1   AR   Ar  184   4.055   6.374   1.293
    1   AR   Ar  185   2.223   5.288   5.112
    1   AR   Ar  186   3.785   4.792   3.950
    1   AR   Ar  187   3.451   6.657   3.601
    1   AR   Ar  188   2.991   6.540   1.692
    1   AR   Ar  189   3.719   2.747   7.451
    1   AR   Ar  190   4.396   6.648   4.324
    1   AR   Ar  191   3.524   5.430   7.661
    1   AR   Ar  192   4.566   5.965   5.105
    1   AR   Ar  193   1.781   5.878   0.175
    1   AR   Ar  194   4.129   3.901  -1.004
    1   AR   Ar  195   5.690   0.994  -0.435
    1   AR   Ar  196   4.757   7.093  -0.071
    1   AR   Ar  197   4.074   1.168   0.952
    1   AR   Ar  198   6.620   1.116   0.742
    1   AR   Ar  199   4.111   1.486   2.879
    1   AR   Ar  200   5.403   1.797   0.137
    1   AR   Ar  201   5.120   6.667   3.721
    1   AR   Ar  202   5.755   2.419   4.545
    1   AR   Ar  203   6.162   6.567   3.843
    1   AR   Ar  204   5.201   7.033   4.854
    1   AR   Ar  205   6.277   6.922   2.785
    1   AR   Ar  206   4.688   0.992   4.913
    1   AR   Ar  207   0.602   1.263   6.401
    1   AR   Ar  208   7.081   0.090   3.348
    1   AR   Ar  209   6.401   3.079  -2.770
    1   AR   Ar  210   3.345   1.201   0.019
    1   AR   Ar  211   6.672   2.861   0.475
    1   AR   Ar  212   5.808   3.474  -1.479
    1   AR   Ar  213   3.104   1.421   2.226
    1   AR   Ar  214   4.615   3.126   2.909
    1   AR   Ar  215   6.084   2.262   1.055
    1   AR   Ar  216   1.076   3.860   1.765
    1   AR   Ar  217   4.808   3.499   4.324
    1   AR   Ar  218   4.477   2.976   5.279
    1   AR   Ar  219   5.157   2.458   3.702
    1   AR   Ar  220   4.278   3.694   2.008
    1   AR   Ar  221   6.216   6.488   5.082
    1   AR   Ar  222   4.355   1.627   6.726
    1   AR   Ar  223   0.301   0.908   7.520
    1   AR   Ar  224   5.102   3.544   6.247
    1   AR   Ar  225   6.237   3.286   2.293
    1   AR   Ar  226   3.381   3.850   2.941
    1   AR   Ar  227   6.893   4.157   1.324
    1   AR   Ar  228   5.721   6.493   1.363
    1   AR   Ar  229   5.112   4.143  -0.372
    1   AR   Ar  230   4.554   4.215   3.367
    1   AR   Ar  231   6.103   0.915   2.558
    1   AR   Ar  232   4.581   2.154   0.521
    1   AR   Ar  233   6.329   2.076   3.425
    1   AR   Ar  234   6.447   3.279   4.236
    1   AR   Ar  235   7.013   2.127   4.523
    1   AR   Ar  236   5.603   5.292   5.177
    1   AR   Ar  237   5.627   3.659   5.094
    1   AR   Ar  238   4.566   4.474   6.049
    1   AR   Ar  239   6.127   3.981   8.489
    1   AR   Ar  240   7.073   2.988   6.684
    1   AR   Ar  241   1.044   6.549  -0.582
    1   AR   Ar  242   5.214   4.679   0.479
    1   AR   Ar  243   5.531   4.550   2.741
    1   AR   Ar  244   0.812   5.562  -0.720
    1   AR   Ar  245   4.758   0.205   1.064
    1   AR   Ar  246   5.668   5.735   0.801
    1   AR   Ar  247   5.075   4.453   1.531
    1   AR   Ar  248   5.451   5.580  -0.265
    1   AR   Ar  249   4.092   5.772   2.230
    1   AR   Ar  250   5.289   5.876   4.343
    1   AR   Ar  251   5.790   5.067   3.619
    1   AR   Ar  252   4.909   5.607   3.032
    1   AR   Ar  253   6.016   3.874   6.192
    1   AR   Ar  254   1.958   4.802   8.893
    1   AR   Ar  255   4.898   3.122   7.352
    1   AR   Ar  256   7.050   5.957   3.720
    7.12000  7.12000 12.00000
Argon-slab step 2935
  256
    1   AR   Ar    1   6.810   1.290  -1.378
    1   AR   Ar    2   6.668   7.084   0.804
    1   AR   Ar    3   1.914   1.053   0.442
    1   AR   Ar    4   1.023   0.647  -0.698
    1   AR   Ar    5   0.217   6.090   0.607
    1   AR   Ar    6   7.067   0.902   2.252
    1   AR   Ar    7   6.346   4.302   3.277
    1   AR   Ar    8   5.981   0.467   1.686
    1   AR   Ar    9   1.053   0.079   3.215
    1   AR   Ar   10   0.822   0.835   4.111
    1   AR   Ar   11   2.199   6.396   4.107
    1   AR   Ar   12   0.885   1.331   2.990
    1   AR   Ar   13   6.549   0.785   4.780
    1   AR   Ar   14   0.648   2.100   7.361
    1   AR   Ar   15   5.418   1.002  10.606
    1   AR   Ar   16   1.091   0.659   5.144
    1   AR   Ar   17   6.582   1.909  -0.205
    1   AR   Ar   18   6.338   3.047  -0.564
    1   AR   Ar   19   1.841   2.722   1.416
    1   AR   Ar   20   4.926   4.189  -2.053
    1   AR   Ar   21   4.905   1.662   1.408
    1   AR   Ar   22   6.303   1.936   2.046
    1   AR   Ar   23   6.630   0.549  -0.635
    1   AR   Ar   24   0.148   2.285   1.034
    1   AR   Ar   25   6.810   1.126   3.633
    1   AR   Ar   26   5.854   0.907   4.036
    1   AR   Ar   27   1.579   1.510   3.879
    1   AR   Ar   28   0.716   2.501   4.880
    1   AR   Ar   29   5.276   2.388   6.680
    1   AR   Ar   30   2.095   1.355   4.984
    1   AR   Ar   31   1.899   0.121   7.529
    1   AR   Ar   32   1.587   3.246   5.690
    1   AR   Ar   33   1.110   4.177  -0.678
    1   AR   Ar   34   0.254   5.256   2.902
    1   AR   Ar   35   6.448   5.156   1.347
    1   AR   Ar   36   6.951   0.415  -3.834
    1   AR   Ar   37   5.537   2.494   2.615
    1   AR   Ar   38   7.031   4.056   2.483
    1   AR   Ar   39   1.173   3.376   3.203
    1   AR   Ar   40   2.119   3.760   0.721
    1   AR   Ar   41   0.447   3.373   4.238
    1   AR   Ar   42   6.331   5.361   4.423
    1   AR   Ar   43   7.065   1.976   6.027
    1   AR   Ar   44   0.761   4.264   3.545
    1   AR   Ar   45   0.244   3.023   5.627
    1   AR   Ar   46   1.066   6.146   6.035
    1   AR   Ar   47   5.919   3.273   7.225
    1   AR   Ar   48   0.333   6.370   6.853
    1   AR   Ar   49   5.722   0.596  -1.515
    1   AR   Ar   50   5.217   5.495   1.802
    1   AR   Ar   51   0.294   4.859   1.903
    1   AR   Ar   52   5.660   4.888  -1.034
    1   AR   Ar   53   5.400   6.343   2.628
    1   AR   Ar   54   0.168   6.488   2.660
    1   AR   Ar   55   6.316   5.573   2.557
    1   AR   Ar   56   0.386   0.596   1.092
    1   AR   Ar   57   5.642   3.425   3.205
    1   AR   Ar   58   6.857   4.480   4.228
    1   AR   Ar   59   1.801   5.335   6.206
    1   AR   Ar   60   1.112   6.360   3.791
    1   AR   Ar   61   6.543   4.995   5.960
    1   AR   Ar   62   0.666   5.016   5.137
    1   AR   Ar   63   2.010   0.719   6.666
    1   AR   Ar   64   1.451   6.533   4.980
    1   AR   Ar   65   3.617   0.160   0.797
    1   AR   Ar   66   0.863   1.355   1.608
    1   AR   Ar   67   2.799   6.069  -1.814
    1   AR   Ar   68   3.019   2.005  -0.508
    1   AR   Ar   69   2.869   1.181   1.111
    1   AR   Ar   70   0.643   6.913   1.885
    1   AR   Ar   71   2.622   1.246   4.104
    1   AR   Ar   72   3.278   0.405   1.823
    1   AR   Ar   73   3.216   0.496   3.790
    1   AR   Ar   74   2.102   0.374   3.833
    1   AR   Ar   75   3.610   1.352   4.670
    1   AR   Ar   76   1.661   0.787   2.129
    1   AR   Ar   77   2.083   6.338   6.193
    1   AR   Ar   78   0.754   0.194   6.471
    1   AR   Ar   79   3.818   6.233   6.157
    1   AR   Ar   80   3.425   5.006   5.737
    1   AR   Ar   81   2.621   0.035   0.343
    1   AR   Ar   82   6.819   5.857  -0.962
    1   AR   Ar   83   0.824   2.386   0.280
    1   AR   Ar   84   0.052   3.779  -0.310
    1   AR   Ar   85   0.907   3.224   0.903
    1   AR   Ar   86   2.244   4.044  -0.625
    1   AR   Ar   87   1.851   1.683   1.328
    1   AR   Ar   88   2.313   4.763   1.548
    1   AR   Ar   89   0.405   2.990   2.044
    1   AR   Ar   90   2.402   2.736   4.702
    1   AR   Ar   91   1.003   2.395   3.798
    1   AR   Ar   92   1.149   2.333   2.413
    1   AR   Ar   93   1.903   0.042   5.672
    1   AR   Ar   94   1.145   6.950  10.307
    1   AR   Ar   95   3.829   1.000   5.676
    1   AR   Ar   96   2.684   0.073   4.633
    1   AR   Ar   97   4.828   1.658  -0.769
    1   AR   Ar   98   2.387   5.289   2.532
    1   AR   Ar   99   6.325   2.467  -1.812
    1   AR   Ar  100   2.234   2.889  -0.637
    1   AR   Ar  101   3.306   4.554   0.884
    1   AR   Ar  102   3.249   2.963   4.170
    1   AR   Ar  103   1.296   4.779   0.871
    1   AR   Ar  104   3.047   2.843  -1.444
    1   AR   Ar  105   1.542   3.165   4.294
    1   AR   Ar  106   3.381   3.387   5.171
    1   AR   Ar  107   0.987   3.841   4.996
    1   AR   Ar  108   3.569   2.425   5.119
    1   AR   Ar  109   1.970   4.624   4.159
    1   AR   Ar  110   1.165   4.512   6.468
    1   AR   Ar  111   4.924   4.172   7.929
    1   AR   Ar  112   1.520   5.787   7.162
    1   AR   Ar  113   2.358   4.639   0.298
    1   AR   Ar  114   2.373   6.407  -0.637
    1   AR   Ar  115   2.707   5.194  -0.513
    1   AR   Ar  116   6.562   6.848  -1.584
    1   AR   Ar  117   1.148   5.327   3.833
    1   AR   Ar  118   1.342   5.680   2.652
    1   AR   Ar  119   2.256   3.486   2.716
    1   AR   Ar  120   1.665   6.739   2.419
    1   AR   Ar  121   6.343   4.478   5.102
    1   AR   Ar  122   2.716   6.221   4.966
    1   AR   Ar  123   3.603   4.408   4.870
    1   AR   Ar  124   2.031   5.833   1.622
    1   AR   Ar  125   0.310   4.169   5.898
    1   AR   Ar  126   7.085   6.979   4.496
    1   AR   Ar  127   3.309   4.007   5.947
    1   AR   Ar  128   3.057   5.626   6.501
    1   AR   Ar  129   2.621   6.474   2.778
    1   AR   Ar  130   5.070   2.800  -1.612
    1   AR   Ar  131   4.682   1.113   0.051
    1   AR   Ar  132   0.383   1.320  -0.305
    1   AR   Ar  133   4.327   6.830   2.851
    1   AR   Ar  134   4.705   1.436   3.860
    1   AR   Ar  135   5.163   0.305   3.044
    1   AR   Ar  136   4.923   0.110   2.066
    1   AR   Ar  137   2.719   5.388   3.732
    1   AR   Ar  138   4.571   2.065   4.746
    1   AR   Ar  139   5.486   2.440   5.669
    1   AR   Ar  140   3.824   0.168   4.833
    1   AR   Ar  141   3.625   5.893   4.313
    1   AR   Ar  142   3.070   6.817   5.685
    1   AR   Ar  143   0.048   0.009   5.637
    1   AR   Ar  144   5.710   1.321   5.917
    1   AR   Ar  145   4.413   3.639   0.204
    1   AR   Ar  146   3.843   2.382   2.214
    1   AR   Ar  147   5.164   1.697  -1.870
    1   AR   Ar  148   2.886   4.685  -1.532
    1   AR   Ar  149   3.455   1.991   1.097
    1   AR   Ar  150   1.991   1.566   2.851
    1   AR   Ar  151   2.302   2.268   3.721
    1   AR   Ar  152   3.273   3.609  -0.016
    1   AR   Ar  153   4.412   0.475   3.918
    1   AR   Ar  154   4.122   2.297   3.938
    1   AR   Ar  155   6.479   0.160   7.168
    1   AR   Ar  156   3.725   3.809   3.933
    1   AR   Ar  157   2.328   3.487   6.545
    1   AR   Ar  158   1.013   3.020   6.957
    1   AR   Ar  159   4.272   2.082   5.920
    1   AR   Ar  160   2.922   1.570   5.429
    1   AR   Ar  161   4.996   3.011   1.767
    1   AR   Ar  162   4.351   5.931  -0.205
    1   AR   Ar  163   5.125   3.059   0.718
    1   AR   Ar  164   3.271   5.270   1.709
    1   AR   Ar  165   3.776   3.083   0.822
    1   AR   Ar  166   2.416   3.767   4.558
    1   AR   Ar  167   4.185   0.926   1.917
    1   AR   Ar  168   5.078   2.995  -0.458
    1   AR   Ar  169   3.229   3.200   2.047
    1   AR   Ar  170   2.264   4.162   5.767
    1   AR   Ar  171   5.780   4.158   4.111
    1   AR   Ar  172   4.773   5.011   4.621
    1   AR   Ar  173   2.784   3.112   7.485
    1   AR   Ar  174   2.253   4.745   7.167
    1   AR   Ar  175   2.671   2.747   5.620
    1   AR   Ar  176   3.730   3.033   6.248
    1   AR   Ar  177   6.218   4.677  -0.042
    1   AR   Ar  178   3.751   5.028  -0.017
    1   AR   Ar  179   4.322   5.133   1.008
    1   AR   Ar  180   0.636   1.781  -2.934
    1   AR   Ar  181   0.877   5.765   1.688
    1   AR   Ar  182   2.637   0.610   2.686
    1   AR   Ar  183   3.446   5.223   2.926
    1   AR   Ar  184   4.038   6.351   1.284
    1   AR   Ar  185   2.234   5.296   5.138
    1   AR   Ar  186   3.778   4.820   3.952
    1   AR   Ar  187   3.482   6.678   3.605
    1   AR   Ar  188   3.001   6.527   1.707
    1   AR   Ar  189   3.742   2.752   7.455
    1   AR   Ar  190   4.389   6.611   4.282
    1   AR   Ar  191   3.529   5.437   7.695
    1   AR   Ar  192   4.527   5.985   5.078
    1   AR   Ar  193   1.820   5.853   0.190
    1   AR   Ar  194   4.145   3.902  -1.018
    1   AR   Ar  195   5.695   1.022  -0.407
    1   AR   Ar  196   4.746   7.113  -0.056
    1   AR   Ar  197   4.039   1.153   0.935
    1   AR   Ar  198   6.597   1.112   0.761
    1   AR   Ar  199   4.062   1.493   2.875
    1   AR   Ar  200   5.409   1.795   0.131
    1   AR   Ar  201   5.149   6.669   3.728
    1   AR   Ar  202   5.726   2.403   4.535
    1   AR   Ar  203   6.157   6.570   3.833
    1   AR   Ar  204   5.198   7.031   4.867
    1   AR   Ar  205   6.280   6.921   2.753
    1   AR   Ar  206   4.716   1.019   4.882
    1   AR   Ar  207   0.593   1.268   6.404
    1   AR   Ar  208   7.067   0.104   3.340
    1   AR   Ar  209   6.464   3.074  -2.809
    1   AR   Ar  210   3.361   1.190   0.020
    1   AR   Ar  211   6.663   2.846   0.485
    1   AR   Ar  212   5.824   3.483  -1.491
    1   AR   Ar  213   3.104   1.396   2.205
    1   AR   Ar  214   4.607   3.135   2.904
    1   AR   Ar  215   6.088   2.241   1.047
    1   AR   Ar  216   1.061   3.854   1.751
    1   AR   Ar  217   4.831   3.512   4.297
    1   AR   Ar  218   4.468   3.004   5.252
    1   AR   Ar  219   5.146   2.450   3.693
    1   AR   Ar  220   4.286   3.687   1.996
    1   AR   Ar  221   6.207   6.480   5.112
    1   AR   Ar  222   4.321   1.596   6.711
    1   AR   Ar  223   0.294   0.907   7.565
    1   AR   Ar  224   5.111   3.523   6.217
    1   AR   Ar  225   6.237   3.268   2.321
    1   AR   Ar  226   3.355   3.879   2.940
    1   AR   Ar  227   6.899   4.128   1.327
    1   AR   Ar  228   5.719   6.473   1.373
    1   AR   Ar  229   5.133   4.146  -0.384
    1   AR   Ar  230   4.562   4.258   3.393
    1   AR   Ar  231   6.089   0.927   2.558
    1   AR   Ar  232   4.556   2.142   0.493
    1   AR   Ar  233   6.339   2.100   3.409
    1   AR   Ar  234   6.420   3.286   4.234
    1   AR   Ar  235   6.999   2.124   4.546
    1   AR   Ar  236   5.587   5.298   5.188
    1   AR   Ar  237   5.628   3.652   5.078
    1   AR   Ar  238   4.577   4.445   6.069
    1   AR   Ar  239   6.093   3.952   8.534
    1   AR   Ar  240   7.086   2.957   6.680
    1   AR   Ar  241   1.053   6.567  -0.585
    1   AR   Ar  242   5.204   4.672   0.500
    1   AR   Ar  243   5.523   4.541   2.743
    1   AR   Ar  244   0.789   5.529  -0.738
    1   AR   Ar  245   4.746   0.174   1.038
    1   AR   Ar  246   5.682   5.705   0.776
    1   AR   Ar  247   5.079   4.426   1.516
    1   AR   Ar  248   5.441   5.576  -0.283
    1   AR   Ar  249   4.108   5.784   2.228
    1   AR   Ar  250   5.294   5.873   4.349
    1   AR   Ar  251   5.787   5.096   3.569
    1   AR   Ar  252   4.872   5.581   3.054
    1   AR   Ar  253   6.001   3.879   6.160
    1   AR   Ar  254   1.957   4.759   8.911
    1   AR   Ar  255   4.902   3.114   7.378
    1   AR   Ar  256   7.022   5.940   3.715
    7.12000  7.12000 12.00000
Argon-slab step 2940
  256
    1   AR   Ar    1   6.836   1.291  -1.332
    1   AR   Ar    2   6.653   7.080   0.787
    1   AR   Ar    3   1.908   1.034   0.432
    1   AR   Ar    4   1.010   0.610  -0.670
    1   AR   Ar    5   0.219   6.117   0.632
    1   AR   Ar    6   7.100   0.905   2.230
    1   AR   Ar    7   6.380   4.312   3.258
    1   AR   Ar    8   5.967   0.466   1.684
    1   AR   Ar    9   1.037   0.079   3.203
    1   AR   Ar   10   0.800   0.808   4.108
    1   AR   Ar   11   2.189   6.358   4.116
    1   AR   Ar   12   0.882   1.314   2.979
    1   AR   Ar   13   6.561   0.797   4.752
    1   AR   Ar   14   0.625   2.106   7.369
    1   AR   Ar   15   5.396   1.015  10.600
    1   AR   Ar   16   1.074   0.654   5.141
    1   AR   Ar   17   6.553   1.908  -0.190
    1   AR   Ar   18   6.372   3.026  -0.569
    1   AR   Ar   19   1.850   2.721   1.408
    1   AR   Ar   20   4.929   4.196  -2.041
    1   AR   Ar   21   4.877   1.657   1.418
    1   AR   Ar   22   6.318   1.914   2.016
    1   AR   Ar   23   6.600   0.562  -0.647
    1   AR   Ar   24   0.158   2.267   1.019
    1   AR   Ar   25   6.824   1.143   3.612
    1   AR   Ar   26   5.854   0.852   4.029
    1   AR   Ar   27   1.559   1.471   3.865
    1   AR   Ar   28   0.737   2.497   4.905
    1   AR   Ar   29   5.257   2.410   6.728
    1   AR   Ar   30   2.042   1.352   4.980
    1   AR   Ar   31   1.933   0.149   7.532
    1   AR   Ar   32   1.618   3.308   5.694
    1   AR   Ar   33   1.079   4.161  -0.673
    1   AR   Ar   34   0.240   5.208   2.893
    1   AR   Ar   35   6.436   5.135   1.288
    1   AR   Ar   36   6.954   0.359  -3.825
    1   AR   Ar   37   5.533   2.479   2.637
    1   AR   Ar   38   7.039   4.075   2.481
    1   AR   Ar   39   1.178   3.388   3.220
    1   AR   Ar   40   2.130   3.760   0.723
    1   AR   Ar   41   0.447   3.376   4.227
    1   AR   Ar   42   6.301   5.385   4.439
    1   AR   Ar   43   7.067   1.965   6.020
    1   AR   Ar   44   0.738   4.285   3.550
    1   AR   Ar   45   0.260   3.002   5.598
    1   AR   Ar   46   1.054   6.105   6.023
    1   AR   Ar   47   5.884   3.272   7.217
    1   AR   Ar   48   0.312   6.321   6.858
    1   AR   Ar   49   5.771   0.573  -1.501
    1   AR   Ar   50   5.216   5.493   1.810
    1   AR   Ar   51   0.275   4.847   1.935
    1   AR   Ar   52   5.657   4.895  -1.054
    1   AR   Ar   53   5.397   6.325   2.631
    1   AR   Ar   54   0.175   6.486   2.663
    1   AR   Ar   55   6.316   5.564   2.585
    1   AR   Ar   56   0.364   0.590   1.131
    1   AR   Ar   57   5.656   3.441   3.213
    1   AR   Ar   58   6.887   4.415   4.246
    1   AR   Ar   59   1.812   5.353   6.218
    1   AR   Ar   60   1.114   6.406   3.772
    1   AR   Ar   61   6.518   4.999   5.947
    1   AR   Ar   62   0.657   5.031   5.145
    1   AR   Ar   63   2.036   0.697   6.670
    1   AR   Ar   64   1.409   6.518   4.956
    1   AR   Ar   65   3.627   0.166   0.804
    1   AR   Ar   66   0.873   1.312   1.601
    1   AR   Ar   67   2.797   6.059  -1.820
    1   AR   Ar   68   3.000   1.983  -0.521
    1   AR   Ar   69   2.905   1.198   1.097
    1   AR   Ar   70   0.654   6.917   1.871
    1   AR   Ar   71   2.619   1.241   4.084
    1   AR   Ar   72   3.295   0.384   1.851
    1   AR   Ar   73   3.210   0.490   3.820
    1   AR   Ar   74   2.104   0.372   3.805
    1   AR   Ar   75   3.626   1.314   4.635
    1   AR   Ar   76   1.683   0.774   2.118
    1   AR   Ar   77   2.096   6.327   6.188
    1   AR   Ar   78   0.710   0.193   6.474
    1   AR   Ar   79   3.812   6.209   6.126
    1   AR   Ar   80   3.432   5.008   5.743
    1   AR   Ar   81   2.628   0.007   0.316
    1   AR   Ar   82   6.830   5.818  -0.972
    1   AR   Ar   83   0.784   2.374   0.279
    1   AR   Ar   84   0.062   3.797  -0.307
    1   AR   Ar   85   0.917   3.245   0.892
    1   AR   Ar   86   2.246   4.069  -0.638
    1   AR   Ar   87   1.847   1.649   1.340
    1   AR   Ar   88   2.292   4.766   1.544
    1   AR   Ar   89   0.383   2.962   2.029
    1   AR   Ar   90   2.417   2.728   4.689
    1   AR   Ar   91   1.004   2.376   3.797
    1   AR   Ar   92   1.160   2.332   2.419
    1   AR   Ar   93   1.918   0.044   5.650
    1   AR   Ar   94   1.128   6.939  10.320
    1   AR   Ar   95   3.847   1.016   5.691
    1   AR   Ar   96   2.691   0.091   4.632
    1   AR   Ar   97   4.838   1.659  -0.760
    1   AR   Ar   98   2.401   5.276   2.550
    1   AR   Ar   99   6.306   2.440  -1.830
    1   AR   Ar  100   2.249   2.929  -0.609
    1   AR   Ar  101   3.290   4.536   0.893
    1   AR   Ar  102   3.217   2.929   4.158
    1   AR   Ar  103   1.276   4.763   0.877
    1   AR   Ar  104   3.022   2.843  -1.425
    1   AR   Ar  105   1.522   3.185   4.300
    1   AR   Ar  106   3.354   3.399   5.176
    1   AR   Ar  107   0.995   3.851   5.023
    1   AR   Ar  108   3.562   2.450   5.139
    1   AR   Ar  109   1.966   4.632   4.154
    1   AR   Ar  110   1.183   4.503   6.480
    1   AR   Ar  111   4.911   4.178   7.915
    1   AR   Ar  112   1.534   5.799   7.160
    1   AR   Ar  113   2.362   4.624   0.295
    1   AR   Ar  114   2.354   6.450  -0.659
    1   AR   Ar  115   2.749   5.241  -0.514
    1   AR   Ar  116   6.547   6.852  -1.555
    1   AR   Ar  117   1.144   5.312   3.856
    1   AR   Ar  118   1.344   5.693   2.656
    1   AR   Ar  119   2.257   3.469   2.702
    1   AR   Ar  120   1.640   6.758   2.417
    1   AR   Ar  121   6.327   4.485   5.122
    1   AR   Ar  122   2.710   6.243   4.969
    1   AR   Ar  123   3.594   4.435   4.837
    1   AR   Ar  124   2.037   5.824   1.627
    1   AR   Ar  125   0.291   4.182   5.877
    1   AR   Ar  126   7.078   6.987   4.491
    1   AR   Ar  127   3.308   4.016   5.973
    1   AR   Ar  128   3.084   5.615   6.502
    1   AR   Ar  129   2.625   6.456   2.792
    1   AR   Ar  130   5.043   2.784  -1.633
    1   AR   Ar  131   4.656   1.120   0.050
    1   AR   Ar  132   0.370   1.306  -0.334
    1   AR   Ar  133   4.329   6.824   2.882
    1   AR   Ar  134   4.740   1.448   3.863
    1   AR   Ar  135   5.184   0.339   3.079
    1   AR   Ar  136   4.932   0.088   2.102
    1   AR   Ar  137   2.731   5.393   3.708
    1   AR   Ar  138   4.584   2.040   4.776
    1   AR   Ar  139   5.484   2.451   5.677
    1   AR   Ar  140   3.854   0.164   4.813
    1   AR   Ar  141   3.632   5.895   4.292
    1   AR   Ar  142   3.051   6.846   5.672
    1   AR   Ar  143   0.078   0.024   5.670
    1   AR   Ar  144   5.722   1.342   5.892
    1   AR   Ar  145   4.449   3.583   0.184
    1   AR   Ar  146   3.827   2.382   2.224
    1   AR   Ar  147   5.145   1.684  -1.874
    1   AR   Ar  148   2.852   4.683  -1.545
    1   AR   Ar  149   3.445   2.017   1.087
    1   AR   Ar  150   1.992   1.541   2.872
    1   AR   Ar  151   2.326   2.254   3.688
    1   AR   Ar  152   3.278   3.578  -0.001
    1   AR   Ar  153   4.421   0.483   3.965
    1   AR   Ar  154   4.131   2.305   3.982
    1   AR   Ar  155   6.450   0.140   7.160
    1   AR   Ar  156   3.749   3.760   3.936
    1   AR   Ar  157   2.344   3.456   6.547
    1   AR   Ar  158   1.030   2.999   6.958
    1   AR   Ar  159   4.240   2.084   5.860
    1   AR   Ar  160   2.913   1.549   5.426
    1   AR   Ar  161   5.013   2.994   1.758
    1   AR   Ar  162   4.399   5.963  -0.197
    1   AR   Ar  163   5.085   3.039   0.718
    1   AR   Ar  164   3.296   5.283   1.676
    1   AR   Ar  165   3.759   3.065   0.815
    1   AR   Ar  166   2.427   3.735   4.588
    1   AR   Ar  167   4.173   0.929   1.920
    1   AR   Ar  168   5.097   2.973  -0.465
    1   AR   Ar  169   3.238   3.203   2.059
    1   AR   Ar  170   2.239   4.170   5.758
    1   AR   Ar  171   5.777   4.182   4.124
    1   AR   Ar  172   4.759   5.020   4.639
    1   AR   Ar  173   2.774   3.107   7.494
    1   AR   Ar  174   2.222   4.760   7.157
    1   AR   Ar  175   2.659   2.768   5.621
    1   AR   Ar  176   3.730   3.004   6.285
    1   AR   Ar  177   6.218   4.701  -0.043
    1   AR   Ar  178   3.766   4.997  -0.040
    1   AR   Ar  179   4.348   5.134   1.015
    1   AR   Ar  180   0.620   1.768  -2.907
    1   AR   Ar  181   0.857   5.771   1.677
    1   AR   Ar  182   2.579   0.588   2.698
    1   AR   Ar  183   3.415   5.227   2.901
    1   AR   Ar  184   4.029   6.330   1.304
    1   AR   Ar  185   2.243   5.302   5.166
    1   AR   Ar  186   3.773   4.860   3.947
    1   AR   Ar  187   3.516   6.691   3.606
    1   AR   Ar  188   3.011   6.509   1.723
    1   AR   Ar  189   3.732   2.739   7.432
    1   AR   Ar  190   4.364   6.572   4.248
    1   AR   Ar  191   3.534   5.444   7.727
    1   AR   Ar  192   4.486   6.003   5.057
    1   AR   Ar  193   1.859   5.826   0.205
    1   AR   Ar  194   4.160   3.887  -1.030
    1   AR   Ar  195   5.703   1.041  -0.386
    1   AR   Ar  196   4.734   0.013  -0.040
    1   AR   Ar  197   4.005   1.137   0.913
    1   AR   Ar  198   6.572   1.110   0.779
    1   AR   Ar  199   4.014   1.499   2.872
    1   AR   Ar  200   5.405   1.792   0.151
    1   AR   Ar  201   5.191   6.674   3.720
    1   AR   Ar  202   5.699   2.387   4.531
    1   AR   Ar  203   6.159   6.573   3.824
    1   AR   Ar  204   5.195   7.029   4.878
    1   AR   Ar  205   6.293   6.927   2.711
    1   AR   Ar  206   4.744   1.042   4.852
    1   AR   Ar  207   0.587   1.271   6.408
    1   AR   Ar  208   7.056   0.121   3.340
    1   AR   Ar  209   6.527   3.069  -2.846
    1   AR   Ar  210   3.379   1.174   0.027
    1   AR   Ar  211   6.652   2.843   0.483
    1   AR   Ar  212   5.846   3.495  -1.501
    1   AR   Ar  213   3.108   1.377   2.181
    1   AR   Ar  214   4.600   3.144   2.901
    1   AR   Ar  215   6.085   2.215   1.041
    1   AR   Ar  216   1.046   3.851   1.740
    1   AR   Ar  217   4.854   3.525   4.269
    1   AR   Ar  218   4.461   3.035   5.227
    1   AR   Ar  219   5.133   2.445   3.678
    1   AR   Ar  220   4.292   3.668   2.001
    1   AR   Ar  221   6.197   6.471   5.140
    1   AR   Ar  222   4.290   1.550   6.723
    1   AR   Ar  223   0.287   0.905   7.607
    1   AR   Ar  224   5.103   3.491   6.187
    1   AR   Ar  225   6.239   3.251   2.347
    1   AR   Ar  226   3.329   3.909   2.937
    1   AR   Ar  227   6.905   4.096   1.330
    1   AR   Ar  228   5.716   6.467   1.396
    1   AR   Ar  229   5.155   4.147  -0.402
    1   AR   Ar  230   4.573   4.301   3.419
    1   AR   Ar  231   6.070   0.943   2.571
    1   AR   Ar  232   4.550   2.107   0.481
    1   AR   Ar  233   6.327   2.114   3.372
    1   AR   Ar  234   6.394   3.291   4.233
    1   AR   Ar  235   6.973   2.116   4.563
    1   AR   Ar  236   5.574   5.304   5.206
    1   AR   Ar  237   5.627   3.643   5.064
    1   AR   Ar  238   4.587   4.418   6.086
    1   AR   Ar  239   6.058   3.924   8.577
    1   AR   Ar  240   7.095   2.921   6.675
    1   AR   Ar  241   1.064   6.586  -0.588
    1   AR   Ar  242   5.195   4.669   0.523
    1   AR   Ar  243   5.506   4.531   2.737
    1   AR   Ar  244   0.766   5.494  -0.755
    1   AR   Ar  245   4.729   0.180   1.042
    1   AR   Ar  246   5.694   5.662   0.742
    1   AR   Ar  247   5.083   4.397   1.504
    1   AR   Ar  248   5.429   5.573  -0.299
    1   AR   Ar  249   4.138   5.798   2.230
    1   AR   Ar  250   5.304   5.871   4.352
    1   AR   Ar  251   5.779   5.135   3.522
    1   AR   Ar  252   4.808   5.532   3.094
    1   AR   Ar  253   6.003   3.891   6.127
    1   AR   Ar  254   1.956   4.715   8.929
    1   AR   Ar  255   4.900   3.108   7.404
    1   AR   Ar  256   6.997   5.924   3.709
    7.12000  7.12000 12.00000
Argon-slab step 2945
  256
    1   AR   Ar    1   6.861   1.296  -1.288
    1   AR   Ar    2   6.637   7.075   0.771
    1   AR   Ar    3   1.904   1.015   0.422
    1   AR   Ar    4   1.011   0.611  -0.650
    1   AR   Ar    5   0.222   6.148   0.658
    1   AR   Ar    6   0.015   0.907   2.207
    1   AR   Ar    7   6.419   4.320   3.240
    1   AR   Ar    8   5.954   0.460   1.676
    1   AR   Ar    9   1.020   0.093   3.184
    1   AR   Ar   10   0.773   0.778   4.103
    1   AR   Ar   11   2.174   6.321   4.118
    1   AR   Ar   12   0.879   1.296   2.968
    1   AR   Ar   13   6.580   0.811   4.745
    1   AR   Ar   14   0.600   2.109   7.376
    1   AR   Ar   15   5.374   1.028  10.594
    1   AR   Ar   16   1.057   0.648   5.140
    1   AR   Ar   17   6.522   1.907  -0.174
    1   AR   Ar   18   6.404   3.004  -0.574
    1   AR   Ar   19   1.858   2.724   1.401
    1   AR   Ar   20   4.933   4.202  -2.026
    1   AR   Ar   21   4.852   1.657   1.436
    1   AR   Ar   22   6.334   1.891   1.989
    1   AR   Ar   23   6.572   0.570  -0.656
    1   AR   Ar   24   0.163   2.243   1.022
    1   AR   Ar   25   6.841   1.161   3.591
    1   AR   Ar   26   5.846   0.797   4.017
    1   AR   Ar   27   1.543   1.430   3.852
    1   AR   Ar   28   0.771   2.490   4.923
    1   AR   Ar   29   5.238   2.428   6.774
    1   AR   Ar   30   2.007   1.359   4.978
    1   AR   Ar   31   1.965   0.173   7.540
    1   AR   Ar   32   1.648   3.367   5.698
    1   AR   Ar   33   1.050   4.145  -0.668
    1   AR   Ar   34   0.227   5.162   2.892
    1   AR   Ar   35   6.426   5.113   1.231
    1   AR   Ar   36   6.957   0.302  -3.815
    1   AR   Ar   37   5.528   2.464   2.658
    1   AR   Ar   38   7.047   4.087   2.480
    1   AR   Ar   39   1.183   3.396   3.236
    1   AR   Ar   40   2.144   3.754   0.728
    1   AR   Ar   41   0.445   3.378   4.214
    1   AR   Ar   42   6.273   5.411   4.453
    1   AR   Ar   43   7.066   1.960   6.010
    1   AR   Ar   44   0.713   4.317   3.550
    1   AR   Ar   45   0.271   2.990   5.578
    1   AR   Ar   46   1.040   6.065   6.010
    1   AR   Ar   47   5.855   3.273   7.205
    1   AR   Ar   48   0.291   6.273   6.862
    1   AR   Ar   49   5.822   0.551  -1.486
    1   AR   Ar   50   5.213   5.473   1.778
    1   AR   Ar   51   0.258   4.839   1.968
    1   AR   Ar   52   5.656   4.898  -1.077
    1   AR   Ar   53   5.393   6.308   2.635
    1   AR   Ar   54   0.182   6.476   2.670
    1   AR   Ar   55   6.315   5.554   2.613
    1   AR   Ar   56   0.338   0.577   1.166
    1   AR   Ar   57   5.668   3.457   3.225
    1   AR   Ar   58   6.920   4.348   4.260
    1   AR   Ar   59   1.824   5.362   6.229
    1   AR   Ar   60   1.090   6.424   3.747
    1   AR   Ar   61   6.495   5.007   5.943
    1   AR   Ar   62   0.686   5.035   5.106
    1   AR   Ar   63   2.062   0.677   6.668
    1   AR   Ar   64   1.367   6.503   4.931
    1   AR   Ar   65   3.635   0.170   0.812
    1   AR   Ar   66   0.883   1.276   1.600
    1   AR   Ar   67   2.794   6.048  -1.825
    1   AR   Ar   68   2.972   1.963  -0.545
    1   AR   Ar   69   2.933   1.203   1.083
    1   AR   Ar   70   0.668   6.924   1.854
    1   AR   Ar   71   2.614   1.246   4.068
    1   AR   Ar   72   3.310   0.362   1.878
    1   AR   Ar   73   3.212   0.488   3.847
    1   AR   Ar   74   2.099   0.369   3.773
    1   AR   Ar   75   3.645   1.275   4.598
    1   AR   Ar   76   1.703   0.761   2.107
    1   AR   Ar   77   2.115   6.316   6.188
    1   AR   Ar   78   0.688   0.212   6.466
    1   AR   Ar   79   3.811   6.188   6.092
    1   AR   Ar   80   3.441   5.014   5.744
    1   AR   Ar   81   2.636   7.101   0.290
    1   AR   Ar   82   6.841   5.779  -0.982
    1   AR   Ar   83   0.754   2.358   0.275
    1   AR   Ar   84   0.070   3.816  -0.303
    1   AR   Ar   85   0.926   3.266   0.880
    1   AR   Ar   86   2.249   4.095  -0.652
    1   AR   Ar   87   1.845   1.613   1.353
    1   AR   Ar   88   2.272   4.767   1.537
    1   AR   Ar   89   0.360   2.936   2.012
    1   AR   Ar   90   2.419   2.708   4.669
    1   AR   Ar   91   1.004   2.358   3.795
    1   AR   Ar   92   1.174   2.330   2.425
    1   AR   Ar   93   1.934   0.053   5.624
    1   AR   Ar   94   1.110   6.928  10.334
    1   AR   Ar   95   3.866   1.031   5.704
    1   AR   Ar   96   2.700   0.113   4.638
    1   AR   Ar   97   4.849   1.667  -0.761
    1   AR   Ar   98   2.413   5.264   2.567
    1   AR   Ar   99   6.284   2.413  -1.847
    1   AR   Ar  100   2.265   2.969  -0.580
    1   AR   Ar  101   3.275   4.516   0.901
    1   AR   Ar  102   3.192   2.890   4.141
    1   AR   Ar  103   1.257   4.747   0.884
    1   AR   Ar  104   2.998   2.843  -1.406
    1   AR   Ar  105   1.502   3.205   4.306
    1   AR   Ar  106   3.327   3.422   5.172
    1   AR   Ar  107   0.981   3.890   5.001
    1   AR   Ar  108   3.557   2.459   5.154
    1   AR   Ar  109   1.962   4.641   4.148
    1   AR   Ar  110   1.202   4.492   6.493
    1   AR   Ar  111   4.899   4.182   7.901
    1   AR   Ar  112   1.548   5.811   7.157
    1   AR   Ar  113   2.367   4.620   0.289
    1   AR   Ar  114   2.335   6.491  -0.679
    1   AR   Ar  115   2.790   5.288  -0.515
    1   AR   Ar  116   6.531   6.855  -1.524
    1   AR   Ar  117   1.138   5.296   3.878
    1   AR   Ar  118   1.345   5.707   2.661
    1   AR   Ar  119   2.265   3.432   2.690
    1   AR   Ar  120   1.616   6.777   2.413
    1   AR   Ar  121   6.325   4.495   5.103
    1   AR   Ar  122   2.706   6.254   4.972
    1   AR   Ar  123   3.584   4.457   4.810
    1   AR   Ar  124   2.042   5.817   1.634
    1   AR   Ar  125   0.271   4.195   5.854
    1   AR   Ar  126   7.072   6.994   4.485
    1   AR   Ar  127   3.306   4.024   6.006
    1   AR   Ar  128   3.102   5.601   6.510
    1   AR   Ar  129   2.605   6.437   2.830
    1   AR   Ar  130   5.037   2.780  -1.641
    1   AR   Ar  131   4.622   1.114   0.057
    1   AR   Ar  132   0.350   1.300  -0.359
    1   AR   Ar  133   4.330   6.815   2.916
    1   AR   Ar  134   4.778   1.462   3.862
    1   AR   Ar  135   5.208   0.379   3.113
    1   AR   Ar  136   4.938   0.049   2.134
    1   AR   Ar  137   2.742   5.399   3.687
    1   AR   Ar  138   4.606   2.016   4.824
    1   AR   Ar  139   5.480   2.464   5.682
    1   AR   Ar  140   3.880   0.163   4.796
    1   AR   Ar  141   3.632   5.889   4.274
    1   AR   Ar  142   3.041   6.861   5.666
    1   AR   Ar  143   0.106   0.039   5.698
    1   AR   Ar  144   5.732   1.363   5.867
    1   AR   Ar  145   4.477   3.534   0.158
    1   AR   Ar  146   3.816   2.378   2.233
    1   AR   Ar  147   5.128   1.670  -1.877
    1   AR   Ar  148   2.818   4.681  -1.556
    1   AR   Ar  149   3.442   2.055   1.077
    1   AR   Ar  150   1.993   1.517   2.893
    1   AR   Ar  151   2.349   2.241   3.655
    1   AR   Ar  152   3.280   3.550   0.012
    1   AR   Ar  153   4.429   0.486   4.009
    1   AR   Ar  154   4.133   2.319   4.015
    1   AR   Ar  155   6.423   0.121   7.151
    1   AR   Ar  156   3.778   3.715   3.939
    1   AR   Ar  157   2.346   3.430   6.533
    1   AR   Ar  158   1.049   2.980   6.957
    1   AR   Ar  159   4.211   2.089   5.793
    1   AR   Ar  160   2.911   1.531   5.428
    1   AR   Ar  161   5.034   2.972   1.751
    1   AR   Ar  162   4.447   5.995  -0.187
    1   AR   Ar  163   5.052   3.013   0.720
    1   AR   Ar  164   3.321   5.298   1.645
    1   AR   Ar  165   3.744   3.046   0.811
    1   AR   Ar  166   2.441   3.709   4.619
    1   AR   Ar  167   4.165   0.932   1.926
    1   AR   Ar  168   5.117   2.950  -0.472
    1   AR   Ar  169   3.244   3.210   2.070
    1   AR   Ar  170   2.214   4.183   5.745
    1   AR   Ar  171   5.771   4.208   4.138
    1   AR   Ar  172   4.739   5.023   4.653
    1   AR   Ar  173   2.758   3.105   7.504
    1   AR   Ar  174   2.191   4.776   7.145
    1   AR   Ar  175   2.646   2.790   5.642
    1   AR   Ar  176   3.729   2.975   6.320
    1   AR   Ar  177   6.216   4.726  -0.043
    1   AR   Ar  178   3.782   4.965  -0.062
    1   AR   Ar  179   4.373   5.137   1.024
    1   AR   Ar  180   0.603   1.754  -2.879
    1   AR   Ar  181   0.837   5.778   1.665
    1   AR   Ar  182   2.521   0.563   2.713
    1   AR   Ar  183   3.388   5.231   2.876
    1   AR   Ar  184   4.021   6.311   1.323
    1   AR   Ar  185   2.272   5.310   5.164
    1   AR   Ar  186   3.769   4.905   3.934
    1   AR   Ar  187   3.548   6.697   3.603
    1   AR   Ar  188   3.018   6.487   1.738
    1   AR   Ar  189   3.729   2.723   7.408
    1   AR   Ar  190   4.339   6.540   4.211
    1   AR   Ar  191   3.538   5.451   7.759
    1   AR   Ar  192   4.445   6.016   5.045
    1   AR   Ar  193   1.898   5.799   0.220
    1   AR   Ar  194   4.175   3.860  -1.042
    1   AR   Ar  195   5.713   1.050  -0.373
    1   AR   Ar  196   4.723   0.032  -0.025
    1   AR   Ar  197   3.974   1.122   0.890
    1   AR   Ar  198   6.546   1.110   0.797
    1   AR   Ar  199   3.966   1.504   2.871
    1   AR   Ar  200   5.411   1.799   0.182
    1   AR   Ar  201   5.228   6.680   3.703
    1   AR   Ar  202   5.675   2.372   4.531
    1   AR   Ar  203   6.173   6.575   3.818
    1   AR   Ar  204   5.192   7.027   4.887
    1   AR   Ar  205   6.302   6.934   2.667
    1   AR   Ar  206   4.773   1.056   4.825
    1   AR   Ar  207   0.584   1.270   6.416
    1   AR   Ar  208   7.046   0.142   3.345
    1   AR   Ar  209   6.590   3.063  -2.882
    1   AR   Ar  210   3.398   1.155   0.036
    1   AR   Ar  211   6.641   2.848   0.473
    1   AR   Ar  212   5.839   3.480  -1.508
    1   AR   Ar  213   3.113   1.362   2.157
    1   AR   Ar  214   4.593   3.152   2.898
    1   AR   Ar  215   6.077   2.185   1.034
    1   AR   Ar  216   1.030   3.851   1.731
    1   AR   Ar  217   4.877   3.537   4.239
    1   AR   Ar  218   4.456   3.067   5.204
    1   AR   Ar  219   5.121   2.443   3.658
    1   AR   Ar  220   4.292   3.654   2.007
    1   AR   Ar  221   6.186   6.462   5.165
    1   AR   Ar  222   4.259   1.500   6.741
    1   AR   Ar  223   0.281   0.904   7.648
    1   AR   Ar  224   5.085   3.450   6.158
    1   AR   Ar  225   6.244   3.234   2.371
    1   AR   Ar  226   3.304   3.939   2.933
    1   AR   Ar  227   6.910   4.063   1.333
    1   AR   Ar  228   5.713   6.465   1.423
    1   AR   Ar  229   5.179   4.147  -0.423
    1   AR   Ar  230   4.586   4.343   3.445
    1   AR   Ar  231   6.051   0.962   2.593
    1   AR   Ar  232   4.529   2.078   0.474
    1   AR   Ar  233   6.315   2.128   3.334
    1   AR   Ar  234   6.368   3.297   4.231
    1   AR   Ar  235   6.940   2.105   4.577
    1   AR   Ar  236   5.564   5.310   5.230
    1   AR   Ar  237   5.626   3.632   5.052
    1   AR   Ar  238   4.595   4.391   6.102
    1   AR   Ar  239   6.022   3.895   8.620
    1   AR   Ar  240   7.084   2.935   6.659
    1   AR   Ar  241   1.075   6.605  -0.589
    1   AR   Ar  242   5.188   4.668   0.540
    1   AR   Ar  243   5.483   4.519   2.724
    1   AR   Ar  244   0.743   5.458  -0.771
    1   AR   Ar  245   4.711   0.187   1.047
    1   AR   Ar  246   5.703   5.615   0.705
    1   AR   Ar  247   5.086   4.366   1.499
    1   AR   Ar  248   5.417   5.571  -0.312
    1   AR   Ar  249   4.170   5.812   2.234
    1   AR   Ar  250   5.317   5.870   4.354
    1   AR   Ar  251   5.777   5.132   3.492
    1   AR   Ar  252   4.743   5.482   3.137
    1   AR   Ar  253   6.017   3.909   6.091
    1   AR   Ar  254   1.955   4.672   8.947
    1   AR   Ar  255   4.889   3.104   7.434
    1   AR   Ar  256   6.974   5.906   3.703
    7.12000  7.12000 12.00000
Argon-slab step 2950
  256
    1   AR   Ar    1   6.888   1.308  -1.250
    1   AR   Ar    2   6.619   7.070   0.756
    1   AR   Ar    3   1.900   0.994   0.411
    1   AR   Ar    4   1.019   0.606  -0.631
    1   AR   Ar    5   0.226   6.178   0.685
    1   AR   Ar    6   0.050   0.908   2.186
    1   AR   Ar    7   6.456   4.328   3.228
    1   AR   Ar    8   5.940   0.452   1.665
    1   AR   Ar    9   1.001   0.121   3.157
    1   AR   Ar   10   0.742   0.744   4.095
    1   AR   Ar   11   2.155   6.286   4.112
    1   AR   Ar   12   0.875   1.277   2.956
    1   AR   Ar   13   6.604   0.828   4.765
    1   AR   Ar   14   0.574   2.109   7.382
    1   AR   Ar   15   5.352   1.041  10.588
    1   AR   Ar   16   1.041   0.640   5.141
    1   AR   Ar   17   6.490   1.906  -0.157
    1   AR   Ar   18   6.435   2.983  -0.581
    1   AR   Ar   19   1.866   2.728   1.394
    1   AR   Ar   20   4.938   4.207  -2.009
    1   AR   Ar   21   4.831   1.664   1.462
    1   AR   Ar   22   6.351   1.866   1.968
    1   AR   Ar   23   6.548   0.569  -0.660
    1   AR   Ar   24   0.158   2.213   1.043
    1   AR   Ar   25   6.857   1.180   3.571
    1   AR   Ar   26   5.833   0.740   4.000
    1   AR   Ar   27   1.530   1.390   3.841
    1   AR   Ar   28   0.817   2.476   4.928
    1   AR   Ar   29   5.221   2.442   6.814
    1   AR   Ar   30   2.010   1.384   4.983
    1   AR   Ar   31   1.997   0.193   7.554
    1   AR   Ar   32   1.672   3.416   5.699
    1   AR   Ar   33   1.022   4.130  -0.662
    1   AR   Ar   34   0.214   5.121   2.904
    1   AR   Ar   35   6.419   5.087   1.178
    1   AR   Ar   36   6.955   0.284  -3.818
    1   AR   Ar   37   5.521   2.448   2.677
    1   AR   Ar   38   7.055   4.083   2.483
    1   AR   Ar   39   1.190   3.390   3.256
    1   AR   Ar   40   2.149   3.755   0.741
    1   AR   Ar   41   0.440   3.380   4.199
    1   AR   Ar   42   6.250   5.435   4.465
    1   AR   Ar   43   7.084   1.959   6.020
    1   AR   Ar   44   0.687   4.350   3.550
    1   AR   Ar   45   0.273   2.988   5.569
    1   AR   Ar   46   1.025   6.027   5.997
    1   AR   Ar   47   5.834   3.276   7.190
    1   AR   Ar   48   0.271   6.227   6.865
    1   AR   Ar   49   5.871   0.532  -1.470
    1   AR   Ar   50   5.211   5.448   1.736
    1   AR   Ar   51   0.246   4.840   1.980
    1   AR   Ar   52   5.657   4.898  -1.102
    1   AR   Ar   53   5.388   6.289   2.638
    1   AR   Ar   54   0.187   6.469   2.666
    1   AR   Ar   55   6.315   5.545   2.641
    1   AR   Ar   56   0.306   0.558   1.196
    1   AR   Ar   57   5.677   3.475   3.241
    1   AR   Ar   58   6.911   4.327   4.264
    1   AR   Ar   59   1.837   5.360   6.238
    1   AR   Ar   60   1.067   6.429   3.730
    1   AR   Ar   61   6.474   5.020   5.945
    1   AR   Ar   62   0.714   5.037   5.066
    1   AR   Ar   63   2.088   0.659   6.658
    1   AR   Ar   64   1.326   6.487   4.906
    1   AR   Ar   65   3.641   0.167   0.819
    1   AR   Ar   66   0.884   1.274   1.603
    1   AR   Ar   67   2.791   6.036  -1.829
    1   AR   Ar   68   2.943   1.946  -0.569
    1   AR   Ar   69   2.953   1.197   1.069
    1   AR   Ar   70   0.684   6.932   1.835
    1   AR   Ar   71   2.604   1.261   4.055
    1   AR   Ar   72   3.323   0.339   1.904
    1   AR   Ar   73   3.223   0.488   3.869
    1   AR   Ar   74   2.091   0.363   3.738
    1   AR   Ar   75   3.665   1.238   4.561
    1   AR   Ar   76   1.720   0.748   2.095
    1   AR   Ar   77   2.139   6.311   6.188
    1   AR   Ar   78   0.702   0.259   6.447
    1   AR   Ar   79   3.806   6.186   6.083
    1   AR   Ar   80   3.453   5.023   5.740
    1   AR   Ar   81   2.643   7.075   0.263
    1   AR   Ar   82   6.850   5.741  -0.992
    1   AR   Ar   83   0.741   2.351   0.287
    1   AR   Ar   84   0.076   3.833  -0.297
    1   AR   Ar   85   0.935   3.284   0.865
    1   AR   Ar   86   2.253   4.121  -0.665
    1   AR   Ar   87   1.847   1.578   1.367
    1   AR   Ar   88   2.253   4.766   1.529
    1   AR   Ar   89   0.335   2.912   1.994
    1   AR   Ar   90   2.403   2.673   4.653
    1   AR   Ar   91   1.003   2.342   3.792
    1   AR   Ar   92   1.189   2.325   2.433
    1   AR   Ar   93   1.949   0.066   5.596
    1   AR   Ar   94   1.092   6.918  10.348
    1   AR   Ar   95   3.887   1.047   5.716
    1   AR   Ar   96   2.714   0.131   4.660
    1   AR   Ar   97   4.863   1.680  -0.768
    1   AR   Ar   98   2.415   5.258   2.575
    1   AR   Ar   99   6.262   2.387  -1.864
    1   AR   Ar  100   2.282   3.009  -0.550
    1   AR   Ar  101   3.260   4.495   0.908
    1   AR   Ar  102   3.180   2.852   4.116
    1   AR   Ar  103   1.239   4.731   0.892
    1   AR   Ar  104   2.974   2.843  -1.385
    1   AR   Ar  105   1.477   3.216   4.319
    1   AR   Ar  106   3.301   3.454   5.163
    1   AR   Ar  107   0.960   3.932   4.968
    1   AR   Ar  108   3.549   2.459   5.163
    1   AR   Ar  109   1.959   4.649   4.144
    1   AR   Ar  110   1.223   4.480   6.504
    1   AR   Ar  111   4.888   4.184   7.887
    1   AR   Ar  112   1.562   5.825   7.153
    1   AR   Ar  113   2.379   4.628   0.279
    1   AR   Ar  114   2.315   6.532  -0.699
    1   AR   Ar  115   2.831   5.334  -0.516
    1   AR   Ar  116   6.517   6.858  -1.492
    1   AR   Ar  117   1.132   5.282   3.900
    1   AR   Ar  118   1.346   5.721   2.668
    1   AR   Ar  119   2.272   3.394   2.678
    1   AR   Ar  120   1.594   6.795   2.408
    1   AR   Ar  121   6.324   4.501   5.071
    1   AR   Ar  122   2.702   6.255   4.973
    1   AR   Ar  123   3.572   4.474   4.791
    1   AR   Ar  124   2.047   5.812   1.641
    1   AR   Ar  125   0.251   4.207   5.830
    1   AR   Ar  126   7.066   7.001   4.477
    1   AR   Ar  127   3.303   4.030   6.044
    1   AR   Ar  128   3.110   5.587   6.526
    1   AR   Ar  129   2.585   6.417   2.868
    1   AR   Ar  130   5.037   2.779  -1.645
    1   AR   Ar  131   4.586   1.100   0.067
    1   AR   Ar  132   0.323   1.300  -0.379
    1   AR   Ar  133   4.333   6.805   2.950
    1   AR   Ar  134   4.817   1.476   3.857
    1   AR   Ar  135   5.234   0.427   3.146
    1   AR   Ar  136   4.946   0.011   2.161
    1   AR   Ar  137   2.743   5.398   3.684
    1   AR   Ar  138   4.634   2.003   4.878
    1   AR   Ar  139   5.474   2.477   5.685
    1   AR   Ar  140   3.899   0.162   4.788
    1   AR   Ar  141   3.617   5.872   4.261
    1   AR   Ar  142   3.044   6.855   5.667
    1   AR   Ar  143   0.126   0.051   5.713
    1   AR   Ar  144   5.743   1.385   5.841
    1   AR   Ar  145   4.492   3.498   0.121
    1   AR   Ar  146   3.809   2.370   2.242
    1   AR   Ar  147   5.112   1.657  -1.878
    1   AR   Ar  148   2.784   4.679  -1.565
    1   AR   Ar  149   3.445   2.100   1.070
    1   AR   Ar  150   2.006   1.520   2.873
    1   AR   Ar  151   2.372   2.230   3.623
    1   AR   Ar  152   3.281   3.525   0.023
    1   AR   Ar  153   4.439   0.486   4.044
    1   AR   Ar  154   4.125   2.338   4.040
    1   AR   Ar  155   6.398   0.102   7.141
    1   AR   Ar  156   3.810   3.674   3.942
    1   AR   Ar  157   2.349   3.405   6.520
    1   AR   Ar  158   1.070   2.964   6.953
    1   AR   Ar  159   4.190   2.092   5.737
    1   AR   Ar  160   2.915   1.517   5.431
    1   AR   Ar  161   5.058   2.946   1.750
    1   AR   Ar  162   4.492   6.027  -0.175
    1   AR   Ar  163   5.032   2.976   0.727
    1   AR   Ar  164   3.346   5.316   1.616
    1   AR   Ar  165   3.731   3.027   0.811
    1   AR   Ar  166   2.454   3.693   4.650
    1   AR   Ar  167   4.162   0.937   1.933
    1   AR   Ar  168   5.139   2.926  -0.480
    1   AR   Ar  169   3.246   3.223   2.079
    1   AR   Ar  170   2.196   4.206   5.732
    1   AR   Ar  171   5.764   4.236   4.152
    1   AR   Ar  172   4.715   5.023   4.664
    1   AR   Ar  173   2.740   3.104   7.514
    1   AR   Ar  174   2.160   4.792   7.131
    1   AR   Ar  175   2.633   2.811   5.674
    1   AR   Ar  176   3.728   2.947   6.352
    1   AR   Ar  177   6.212   4.751  -0.043
    1   AR   Ar  178   3.798   4.932  -0.082
    1   AR   Ar  179   4.395   5.142   1.034
    1   AR   Ar  180   0.585   1.740  -2.852
    1   AR   Ar  181   0.817   5.786   1.653
    1   AR   Ar  182   2.467   0.535   2.732
    1   AR   Ar  183   3.370   5.235   2.849
    1   AR   Ar  184   4.014   6.294   1.339
    1   AR   Ar  185   2.314   5.319   5.145
    1   AR   Ar  186   3.767   4.951   3.912
    1   AR   Ar  187   3.574   6.697   3.594
    1   AR   Ar  188   3.024   6.459   1.754
    1   AR   Ar  189   3.730   2.706   7.382
    1   AR   Ar  190   4.331   6.519   4.169
    1   AR   Ar  191   3.542   5.458   7.789
    1   AR   Ar  192   4.405   6.024   5.043
    1   AR   Ar  193   1.938   5.771   0.234
    1   AR   Ar  194   4.191   3.832  -1.052
    1   AR   Ar  195   5.717   1.036  -0.367
    1   AR   Ar  196   4.711   0.051  -0.010
    1   AR   Ar  197   3.951   1.112   0.872
    1   AR   Ar  198   6.519   1.111   0.815
    1   AR   Ar  199   3.920   1.509   2.872
    1   AR   Ar  200   5.431   1.815   0.218
    1   AR   Ar  201   5.249   6.686   3.683
    1   AR   Ar  202   5.653   2.357   4.536
    1   AR   Ar  203   6.203   6.579   3.814
    1   AR   Ar  204   5.187   7.024   4.893
    1   AR   Ar  205   6.307   6.941   2.621
    1   AR   Ar  206   4.804   1.055   4.804
    1   AR   Ar  207   0.586   1.268   6.427
    1   AR   Ar  208   7.038   0.163   3.355
    1   AR   Ar  209   6.600   3.051  -2.881
    1   AR   Ar  210   3.415   1.135   0.044
    1   AR   Ar  211   6.631   2.860   0.460
    1   AR   Ar  212   5.833   3.465  -1.512
    1   AR   Ar  213   3.117   1.350   2.133
    1   AR   Ar  214   4.587   3.159   2.899
    1   AR   Ar  215   6.064   2.152   1.024
    1   AR   Ar  216   1.014   3.854   1.725
    1   AR   Ar  217   4.899   3.547   4.207
    1   AR   Ar  218   4.452   3.101   5.181
    1   AR   Ar  219   5.110   2.445   3.635
    1   AR   Ar  220   4.289   3.644   2.011
    1   AR   Ar  221   6.176   6.452   5.188
    1   AR   Ar  222   4.228   1.450   6.758
    1   AR   Ar  223   0.274   0.903   7.686
    1   AR   Ar  224   5.063   3.403   6.130
    1   AR   Ar  225   6.251   3.218   2.391
    1   AR   Ar  226   3.279   3.971   2.929
    1   AR   Ar  227   6.917   4.027   1.336
    1   AR   Ar  228   5.708   6.469   1.453
    1   AR   Ar  229   5.203   4.146  -0.446
    1   AR   Ar  230   4.601   4.385   3.470
    1   AR   Ar  231   6.032   0.983   2.619
    1   AR   Ar  232   4.490   2.057   0.472
    1   AR   Ar  233   6.302   2.143   3.298
    1   AR   Ar  234   6.343   3.301   4.229
    1   AR   Ar  235   6.905   2.094   4.590
    1   AR   Ar  236   5.556   5.316   5.259
    1   AR   Ar  237   5.624   3.618   5.041
    1   AR   Ar  238   4.607   4.384   6.098
    1   AR   Ar  239   6.004   3.873   8.645
    1   AR   Ar  240   7.072   2.948   6.643
    1   AR   Ar  241   1.087   6.623  -0.591
    1   AR   Ar  242   5.184   4.669   0.549
    1   AR   Ar  243   5.458   4.504   2.707
    1   AR   Ar  244   0.722   5.423  -0.787
    1   AR   Ar  245   4.693   0.196   1.055
    1   AR   Ar  246   5.709   5.571   0.668
    1   AR   Ar  247   5.087   4.333   1.502
    1   AR   Ar  248   5.405   5.569  -0.324
    1   AR   Ar  249   4.171   5.816   2.242
    1   AR   Ar  250   5.328   5.871   4.354
    1   AR   Ar  251   5.778   5.103   3.477
    1   AR   Ar  252   4.678   5.432   3.180
    1   AR   Ar  253   6.036   3.928   6.055
    1   AR   Ar  254   1.954   4.629   8.965
    1   AR   Ar  255   4.866   3.105   7.470
    1   AR   Ar  256   6.953   5.887   3.694
    7.12000  7.12000 12.00000
Argon-slab step 2955
  256
    1   AR   Ar    1   6.913   1.302  -1.248
    1   AR   Ar    2   6.600   7.065   0.741
    1   AR   Ar    3   1.901   1.016   0.407
    1   AR   Ar    4   1.031   0.596  -0.614
    1   AR   Ar    5   0.230   6.209   0.714
    1   AR   Ar    6   0.081   0.908   2.168
    1   AR   Ar    7   6.489   4.337   3.225
    1   AR   Ar    8   5.927   0.443   1.652
    1   AR   Ar    9   0.981   0.160   3.125
    1   AR   Ar   10   0.706   0.707   4.086
    1   AR   Ar   11   2.133   6.251   4.101
    1   AR   Ar   12   0.871   1.257   2.944
    1   AR   Ar   13   6.629   0.847   4.785
    1   AR   Ar   14   0.546   2.107   7.387
    1   AR   Ar   15   5.330   1.054  10.582
    1   AR   Ar   16   1.026   0.631   5.143
    1   AR   Ar   17   6.459   1.903  -0.139
    1   AR   Ar   18   6.464   2.961  -0.590
    1   AR   Ar   19   1.871   2.732   1.387
    1   AR   Ar   20   4.943   4.211  -1.990
    1   AR   Ar   21   4.810   1.672   1.488
    1   AR   Ar   22   6.371   1.839   1.952
    1   AR   Ar   23   6.531   0.558  -0.660
    1   AR   Ar   24   0.143   2.178   1.079
    1   AR   Ar   25   6.873   1.201   3.551
    1   AR   Ar   26   5.819   0.683   3.983
    1   AR   Ar   27   1.521   1.351   3.831
    1   AR   Ar   28   0.870   2.456   4.924
    1   AR   Ar   29   5.205   2.448   6.845
    1   AR   Ar   30   2.006   1.407   4.984
    1   AR   Ar   31   2.027   0.210   7.573
    1   AR   Ar   32   1.681   3.446   5.697
    1   AR   Ar   33   0.998   4.117  -0.657
    1   AR   Ar   34   0.200   5.085   2.932
    1   AR   Ar   35   6.420   5.057   1.130
    1   AR   Ar   36   6.948   0.292  -3.829
    1   AR   Ar   37   5.512   2.434   2.690
    1   AR   Ar   38   7.064   4.062   2.486
    1   AR   Ar   39   1.196   3.380   3.278
    1   AR   Ar   40   2.145   3.758   0.760
    1   AR   Ar   41   0.432   3.380   4.183
    1   AR   Ar   42   6.234   5.457   4.474
    1   AR   Ar   43   7.103   1.964   6.032
    1   AR   Ar   44   0.659   4.381   3.552
    1   AR   Ar   45   0.269   2.994   5.568
    1   AR   Ar   46   1.010   5.991   5.983
    1   AR   Ar   47   5.823   3.275   7.175
    1   AR   Ar   48   0.253   6.181   6.867
    1   AR   Ar   49   5.860   0.566  -1.454
    1   AR   Ar   50   5.209   5.424   1.695
    1   AR   Ar   51   0.242   4.852   1.964
    1   AR   Ar   52   5.658   4.896  -1.129
    1   AR   Ar   53   5.384   6.267   2.643
    1   AR   Ar   54   0.176   6.476   2.652
    1   AR   Ar   55   6.315   5.537   2.669
    1   AR   Ar   56   0.268   0.534   1.220
    1   AR   Ar   57   5.683   3.493   3.261
    1   AR   Ar   58   6.878   4.334   4.259
    1   AR   Ar   59   1.846   5.352   6.250
    1   AR   Ar   60   1.044   6.427   3.719
    1   AR   Ar   61   6.454   5.034   5.951
    1   AR   Ar   62   0.743   5.040   5.026
    1   AR   Ar   63   2.113   0.644   6.640
    1   AR   Ar   64   1.285   6.471   4.881
    1   AR   Ar   65   3.641   0.156   0.825
    1   AR   Ar   66   0.883   1.286   1.610
    1   AR   Ar   67   2.795   6.034  -1.832
    1   AR   Ar   68   2.914   1.930  -0.593
    1   AR   Ar   69   2.963   1.184   1.055
    1   AR   Ar   70   0.700   6.940   1.816
    1   AR   Ar   71   2.592   1.282   4.044
    1   AR   Ar   72   3.333   0.313   1.929
    1   AR   Ar   73   3.241   0.491   3.884
    1   AR   Ar   74   2.080   0.355   3.704
    1   AR   Ar   75   3.687   1.202   4.524
    1   AR   Ar   76   1.730   0.736   2.078
    1   AR   Ar   77   2.166   6.312   6.188
    1   AR   Ar   78   0.729   0.302   6.443
    1   AR   Ar   79   3.806   6.187   6.070
    1   AR   Ar   80   3.466   5.033   5.730
    1   AR   Ar   81   2.651   7.050   0.238
    1   AR   Ar   82   6.855   5.704  -1.003
    1   AR   Ar   83   0.741   2.352   0.306
    1   AR   Ar   84   0.079   3.849  -0.290
    1   AR   Ar   85   0.943   3.299   0.848
    1   AR   Ar   86   2.256   4.147  -0.680
    1   AR   Ar   87   1.849   1.569   1.383
    1   AR   Ar   88   2.276   4.767   1.542
    1   AR   Ar   89   0.310   2.889   1.974
    1   AR   Ar   90   2.371   2.628   4.647
    1   AR   Ar   91   1.001   2.327   3.789
    1   AR   Ar   92   1.231   2.316   2.442
    1   AR   Ar   93   1.964   0.081   5.565
    1   AR   Ar   94   1.075   6.907  10.362
    1   AR   Ar   95   3.907   1.061   5.726
    1   AR   Ar   96   2.719   0.142   4.680
    1   AR   Ar   97   4.878   1.696  -0.777
    1   AR   Ar   98   2.398   5.259   2.568
    1   AR   Ar   99   6.238   2.361  -1.879
    1   AR   Ar  100   2.300   3.050  -0.518
    1   AR   Ar  101   3.246   4.472   0.914
    1   AR   Ar  102   3.179   2.817   4.082
    1   AR   Ar  103   1.223   4.714   0.901
    1   AR   Ar  104   2.951   2.843  -1.364
    1   AR   Ar  105   1.453   3.220   4.339
    1   AR   Ar  106   3.282   3.489   5.153
    1   AR   Ar  107   0.940   3.974   4.936
    1   AR   Ar  108   3.532   2.461   5.170
    1   AR   Ar  109   1.958   4.656   4.141
    1   AR   Ar  110   1.244   4.467   6.514
    1   AR   Ar  111   4.877   4.186   7.872
    1   AR   Ar  112   1.575   5.839   7.150
    1   AR   Ar  113   2.397   4.650   0.264
    1   AR   Ar  114   2.295   6.571  -0.717
    1   AR   Ar  115   2.870   5.381  -0.518
    1   AR   Ar  116   6.506   6.857  -1.459
    1   AR   Ar  117   1.123   5.272   3.920
    1   AR   Ar  118   1.346   5.736   2.675
    1   AR   Ar  119   2.279   3.356   2.667
    1   AR   Ar  120   1.575   6.811   2.402
    1   AR   Ar  121   6.318   4.506   5.041
    1   AR   Ar  122   2.699   6.248   4.971
    1   AR   Ar  123   3.560   4.488   4.777
    1   AR   Ar  124   2.050   5.809   1.651
    1   AR   Ar  125   0.230   4.219   5.805
    1   AR   Ar  126   7.061   7.006   4.469
    1   AR   Ar  127   3.300   4.033   6.085
    1   AR   Ar  128   3.109   5.572   6.548
    1   AR   Ar  129   2.566   6.397   2.908
    1   AR   Ar  130   5.039   2.781  -1.635
    1   AR   Ar  131   4.553   1.083   0.075
    1   AR   Ar  132   0.292   1.306  -0.392
    1   AR   Ar  133   4.342   6.794   2.982
    1   AR   Ar  134   4.856   1.489   3.849
    1   AR   Ar  135   5.258   0.479   3.176
    1   AR   Ar  136   4.955   7.096   2.183
    1   AR   Ar  137   2.728   5.384   3.708
    1   AR   Ar  138   4.668   2.004   4.923
    1   AR   Ar  139   5.467   2.491   5.686
    1   AR   Ar  140   3.909   0.156   4.791
    1   AR   Ar  141   3.588   5.852   4.255
    1   AR   Ar  142   3.050   6.857   5.677
    1   AR   Ar  143   0.134   0.059   5.711
    1   AR   Ar  144   5.753   1.408   5.813
    1   AR   Ar  145   4.494   3.473   0.075
    1   AR   Ar  146   3.805   2.359   2.250
    1   AR   Ar  147   5.097   1.644  -1.878
    1   AR   Ar  148   2.749   4.678  -1.573
    1   AR   Ar  149   3.449   2.140   1.065
    1   AR   Ar  150   2.019   1.523   2.852
    1   AR   Ar  151   2.392   2.220   3.591
    1   AR   Ar  152   3.279   3.504   0.029
    1   AR   Ar  153   4.436   0.497   4.036
    1   AR   Ar  154   4.114   2.359   4.063
    1   AR   Ar  155   6.374   0.084   7.131
    1   AR   Ar  156   3.844   3.637   3.945
    1   AR   Ar  157   2.354   3.383   6.509
    1   AR   Ar  158   1.091   2.949   6.948
    1   AR   Ar  159   4.182   2.086   5.715
    1   AR   Ar  160   2.926   1.504   5.435
    1   AR   Ar  161   5.084   2.919   1.755
    1   AR   Ar  162   4.533   6.061  -0.161
    1   AR   Ar  163   5.022   2.930   0.739
    1   AR   Ar  164   3.371   5.336   1.589
    1   AR   Ar  165   3.724   3.014   0.813
    1   AR   Ar  166   2.462   3.684   4.680
    1   AR   Ar  167   4.162   0.944   1.941
    1   AR   Ar  168   5.163   2.899  -0.489
    1   AR   Ar  169   3.246   3.239   2.087
    1   AR   Ar  170   2.191   4.250   5.719
    1   AR   Ar  171   5.758   4.266   4.163
    1   AR   Ar  172   4.687   5.019   4.672
    1   AR   Ar  173   2.721   3.104   7.523
    1   AR   Ar  174   2.128   4.809   7.117
    1   AR   Ar  175   2.620   2.831   5.709
    1   AR   Ar  176   3.727   2.920   6.379
    1   AR   Ar  177   6.207   4.776  -0.043
    1   AR   Ar  178   3.805   4.909  -0.099
    1   AR   Ar  179   4.371   5.137   1.043
    1   AR   Ar  180   0.568   1.726  -2.824
    1   AR   Ar  181   0.797   5.794   1.643
    1   AR   Ar  182   2.421   0.503   2.755
    1   AR   Ar  183   3.364   5.238   2.823
    1   AR   Ar  184   4.016   6.278   1.324
    1   AR   Ar  185   2.354   5.322   5.127
    1   AR   Ar  186   3.769   4.991   3.879
    1   AR   Ar  187   3.581   6.695   3.578
    1   AR   Ar  188   3.028   6.429   1.771
    1   AR   Ar  189   3.734   2.688   7.359
    1   AR   Ar  190   4.346   6.508   4.129
    1   AR   Ar  191   3.545   5.464   7.818
    1   AR   Ar  192   4.366   6.029   5.048
    1   AR   Ar  193   1.979   5.743   0.248
    1   AR   Ar  194   4.209   3.805  -1.061
    1   AR   Ar  195   5.712   1.011  -0.363
    1   AR   Ar  196   4.699   0.066   0.003
    1   AR   Ar  197   3.941   1.112   0.868
    1   AR   Ar  198   6.492   1.114   0.832
    1   AR   Ar  199   3.874   1.512   2.876
    1   AR   Ar  200   5.457   1.836   0.255
    1   AR   Ar  201   5.254   6.691   3.664
    1   AR   Ar  202   5.632   2.343   4.542
    1   AR   Ar  203   6.245   6.584   3.813
    1   AR   Ar  204   5.181   7.020   4.896
    1   AR   Ar  205   6.311   6.951   2.582
    1   AR   Ar  206   4.839   1.039   4.791
    1   AR   Ar  207   0.591   1.268   6.442
    1   AR   Ar  208   7.030   0.182   3.366
    1   AR   Ar  209   6.597   3.038  -2.870
    1   AR   Ar  210   3.427   1.114   0.043
    1   AR   Ar  211   6.623   2.873   0.446
    1   AR   Ar  212   5.828   3.452  -1.515
    1   AR   Ar  213   3.120   1.342   2.111
    1   AR   Ar  214   4.583   3.164   2.902
    1   AR   Ar  215   6.050   2.120   1.011
    1   AR   Ar  216   0.997   3.860   1.723
    1   AR   Ar  217   4.921   3.556   4.174
    1   AR   Ar  218   4.448   3.110   5.168
    1   AR   Ar  219   5.099   2.454   3.611
    1   AR   Ar  220   4.283   3.636   2.014
    1   AR   Ar  221   6.165   6.442   5.208
    1   AR   Ar  222   4.197   1.403   6.774
    1   AR   Ar  223   0.282   0.904   7.696
    1   AR   Ar  224   5.042   3.353   6.102
    1   AR   Ar  225   6.253   3.220   2.375
    1   AR   Ar  226   3.256   4.002   2.926
    1   AR   Ar  227   6.924   3.992   1.340
    1   AR   Ar  228   5.699   6.488   1.491
    1   AR   Ar  229   5.227   4.144  -0.468
    1   AR   Ar  230   4.618   4.424   3.496
    1   AR   Ar  231   6.016   1.004   2.647
    1   AR   Ar  232   4.442   2.041   0.474
    1   AR   Ar  233   6.290   2.156   3.264
    1   AR   Ar  234   6.317   3.306   4.227
    1   AR   Ar  235   6.869   2.083   4.602
    1   AR   Ar  236   5.548   5.322   5.293
    1   AR   Ar  237   5.619   3.609   5.034
    1   AR   Ar  238   4.622   4.390   6.081
    1   AR   Ar  239   5.992   3.879   8.642
    1   AR   Ar  240   7.060   2.961   6.626
    1   AR   Ar  241   1.086   6.631  -0.598
    1   AR   Ar  242   5.183   4.667   0.548
    1   AR   Ar  243   5.430   4.486   2.685
    1   AR   Ar  244   0.727   5.415  -0.779
    1   AR   Ar  245   4.676   0.205   1.065
    1   AR   Ar  246   5.711   5.535   0.632
    1   AR   Ar  247   5.089   4.304   1.513
    1   AR   Ar  248   5.397   5.564  -0.338
    1   AR   Ar  249   4.166   5.815   2.255
    1   AR   Ar  250   5.335   5.875   4.353
    1   AR   Ar  251   5.777   5.080   3.468
    1   AR   Ar  252   4.614   5.385   3.223
    1   AR   Ar  253   6.056   3.948   6.018
    1   AR   Ar  254   1.953   4.586   8.983
    1   AR   Ar  255   4.833   3.112   7.513
    1   AR   Ar  256   6.938   5.864   3.683
    7.12000  7.12000 12.00000
Argon-slab step 2960
  256
    1   AR   Ar    1   6.933   1.301  -1.259
    1   AR   Ar    2   6.579   7.060   0.728
    1   AR   Ar    3   1.903   1.038   0.402
    1   AR   Ar    4   1.045   0.585  -0.597
    1   AR   Ar    5   0.234   6.240   0.743
    1   AR   Ar    6   0.108   0.908   2.157
    1   AR   Ar    7   6.513   4.349   3.231
    1   AR   Ar    8   5.915   0.435   1.640
    1   AR   Ar    9   0.959   0.204   3.093
    1   AR   Ar   10   0.668   0.669   4.076
    1   AR   Ar   11   2.109   6.217   4.085
    1   AR   Ar   12   0.867   1.237   2.930
    1   AR   Ar   13   6.655   0.867   4.805
    1   AR   Ar   14   0.517   2.103   7.392
    1   AR   Ar   15   5.308   1.067  10.576
    1   AR   Ar   16   1.011   0.621   5.146
    1   AR   Ar   17   6.429   1.899  -0.120
    1   AR   Ar   18   6.492   2.940  -0.603
    1   AR   Ar   19   1.876   2.738   1.380
    1   AR   Ar   20   4.949   4.214  -1.969
    1   AR   Ar   21   4.791   1.682   1.511
    1   AR   Ar   22   6.392   1.811   1.941
    1   AR   Ar   23   6.527   0.537  -0.656
    1   AR   Ar   24   0.120   2.141   1.124
    1   AR   Ar   25   6.889   1.225   3.533
    1   AR   Ar   26   5.810   0.626   3.974
    1   AR   Ar   27   1.506   1.330   3.819
    1   AR   Ar   28   0.926   2.434   4.916
    1   AR   Ar   29   5.191   2.450   6.869
    1   AR   Ar   30   1.997   1.430   4.981
    1   AR   Ar   31   2.057   0.224   7.596
    1   AR   Ar   32   1.676   3.458   5.690
    1   AR   Ar   33   0.980   4.106  -0.653
    1   AR   Ar   34   0.183   5.056   2.969
    1   AR   Ar   35   6.428   5.020   1.088
    1   AR   Ar   36   6.941   0.300  -3.840
    1   AR   Ar   37   5.499   2.422   2.690
    1   AR   Ar   38   7.075   4.050   2.485
    1   AR   Ar   39   1.201   3.369   3.298
    1   AR   Ar   40   2.141   3.758   0.781
    1   AR   Ar   41   0.419   3.380   4.166
    1   AR   Ar   42   6.227   5.476   4.483
    1   AR   Ar   43   7.118   1.975   6.041
    1   AR   Ar   44   0.631   4.406   3.555
    1   AR   Ar   45   0.262   3.004   5.568
    1   AR   Ar   46   0.995   5.957   5.968
    1   AR   Ar   47   5.833   3.295   7.169
    1   AR   Ar   48   0.235   6.136   6.868
    1   AR   Ar   49   5.844   0.604  -1.440
    1   AR   Ar   50   5.208   5.400   1.654
    1   AR   Ar   51   0.224   4.857   1.946
    1   AR   Ar   52   5.661   4.893  -1.158
    1   AR   Ar   53   5.380   6.240   2.649
    1   AR   Ar   54   0.162   6.485   2.639
    1   AR   Ar   55   6.316   5.530   2.696
    1   AR   Ar   56   0.227   0.511   1.235
    1   AR   Ar   57   5.687   3.512   3.284
    1   AR   Ar   58   6.853   4.339   4.242
    1   AR   Ar   59   1.846   5.345   6.259
    1   AR   Ar   60   1.021   6.420   3.710
    1   AR   Ar   61   6.434   5.049   5.958
    1   AR   Ar   62   0.771   5.059   5.016
    1   AR   Ar   63   2.139   0.630   6.616
    1   AR   Ar   64   1.246   6.457   4.856
    1   AR   Ar   65   3.636   0.137   0.831
    1   AR   Ar   66   0.881   1.301   1.619
    1   AR   Ar   67   2.813   6.060  -1.840
    1   AR   Ar   68   2.884   1.916  -0.616
    1   AR   Ar   69   2.979   1.189   1.054
    1   AR   Ar   70   0.717   6.945   1.800
    1   AR   Ar   71   2.579   1.304   4.036
    1   AR   Ar   72   3.340   0.286   1.954
    1   AR   Ar   73   3.263   0.495   3.892
    1   AR   Ar   74   2.066   0.345   3.677
    1   AR   Ar   75   3.710   1.170   4.491
    1   AR   Ar   76   1.732   0.727   2.057
    1   AR   Ar   77   2.196   6.318   6.187
    1   AR   Ar   78   0.768   0.334   6.451
    1   AR   Ar   79   3.809   6.188   6.055
    1   AR   Ar   80   3.481   5.044   5.716
    1   AR   Ar   81   2.659   7.026   0.213
    1   AR   Ar   82   6.853   5.685  -0.996
    1   AR   Ar   83   0.756   2.364   0.293
    1   AR   Ar   84   0.075   3.863  -0.279
    1   AR   Ar   85   0.950   3.313   0.829
    1   AR   Ar   86   2.260   4.173  -0.695
    1   AR   Ar   87   1.856   1.570   1.398
    1   AR   Ar   88   2.301   4.767   1.552
    1   AR   Ar   89   0.285   2.867   1.954
    1   AR   Ar   90   2.332   2.577   4.645
    1   AR   Ar   91   1.000   2.313   3.785
    1   AR   Ar   92   1.279   2.304   2.451
    1   AR   Ar   93   1.979   0.096   5.533
    1   AR   Ar   94   1.057   6.896  10.376
    1   AR   Ar   95   3.928   1.073   5.733
    1   AR   Ar   96   2.717   0.147   4.700
    1   AR   Ar   97   4.895   1.714  -0.785
    1   AR   Ar   98   2.372   5.262   2.559
    1   AR   Ar   99   6.213   2.336  -1.894
    1   AR   Ar  100   2.318   3.090  -0.484
    1   AR   Ar  101   3.233   4.448   0.919
    1   AR   Ar  102   3.181   2.784   4.046
    1   AR   Ar  103   1.209   4.696   0.911
    1   AR   Ar  104   2.929   2.842  -1.342
    1   AR   Ar  105   1.434   3.223   4.360
    1   AR   Ar  106   3.278   3.522   5.148
    1   AR   Ar  107   0.920   4.017   4.906
    1   AR   Ar  108   3.495   2.472   5.158
    1   AR   Ar  109   1.959   4.661   4.140
    1   AR   Ar  110   1.265   4.453   6.521
    1   AR   Ar  111   4.867   4.187   7.857
    1   AR   Ar  112   1.588   5.855   7.147
    1   AR   Ar  113   2.415   4.676   0.249
    1   AR   Ar  114   2.274   6.608  -0.736
    1   AR   Ar  115   2.908   5.427  -0.519
    1   AR   Ar  116   6.498   6.853  -1.425
    1   AR   Ar  117   1.113   5.266   3.941
    1   AR   Ar  118   1.346   5.751   2.682
    1   AR   Ar  119   2.286   3.318   2.655
    1   AR   Ar  120   1.562   6.824   2.396
    1   AR   Ar  121   6.305   4.511   5.022
    1   AR   Ar  122   2.699   6.241   4.965
    1   AR   Ar  123   3.547   4.499   4.765
    1   AR   Ar  124   2.053   5.809   1.661
    1   AR   Ar  125   0.209   4.231   5.778
    1   AR   Ar  126   7.057   7.010   4.460
    1   AR   Ar  127   3.296   4.005   6.077
    1   AR   Ar  128   3.102   5.556   6.574
    1   AR   Ar  129   2.546   6.376   2.947
    1   AR   Ar  130   5.040   2.781  -1.620
    1   AR   Ar  131   4.526   1.072   0.077
    1   AR   Ar  132   0.263   1.314  -0.394
    1   AR   Ar  133   4.364   6.783   3.008
    1   AR   Ar  134   4.871   1.505   3.838
    1   AR   Ar  135   5.273   0.531   3.196
    1   AR   Ar  136   4.964   7.065   2.199
    1   AR   Ar  137   2.713   5.371   3.732
    1   AR   Ar  138   4.716   2.013   4.943
    1   AR   Ar  139   5.492   2.470   5.680
    1   AR   Ar  140   3.913   0.148   4.798
    1   AR   Ar  141   3.548   5.843   4.259
    1   AR   Ar  142   3.060   6.867   5.693
    1   AR   Ar  143   0.133   0.063   5.696
    1   AR   Ar  144   5.763   1.432   5.785
    1   AR   Ar  145   4.487   3.456   0.025
    1   AR   Ar  146   3.803   2.348   2.254
    1   AR   Ar  147   5.083   1.631  -1.878
    1   AR   Ar  148   2.715   4.677  -1.579
    1   AR   Ar  149   3.441   2.155   1.066
    1   AR   Ar  150   2.011   1.503   2.839
    1   AR   Ar  151   2.408   2.209   3.568
    1   AR   Ar  152   3.273   3.486   0.032
    1   AR   Ar  153   4.425   0.514   3.994
    1   AR   Ar  154   4.105   2.378   4.086
    1   AR   Ar  155   6.351   0.065   7.121
    1   AR   Ar  156   3.879   3.602   3.948
    1   AR   Ar  157   2.358   3.366   6.506
    1   AR   Ar  158   1.113   2.936   6.941
    1   AR   Ar  159   4.234   2.082   5.729
    1   AR   Ar  160   2.942   1.492   5.440
    1   AR   Ar  161   5.107   2.916   1.726
    1   AR   Ar  162   4.567   6.099  -0.145
    1   AR   Ar  163   5.017   2.878   0.749
    1   AR   Ar  164   3.394   5.357   1.563
    1   AR   Ar  165   3.721   3.023   0.811
    1   AR   Ar  166   2.463   3.682   4.701
    1   AR   Ar  167   4.165   0.950   1.949
    1   AR   Ar  168   5.191   2.871  -0.501
    1   AR   Ar  169   3.245   3.257   2.094
    1   AR   Ar  170   2.198   4.312   5.706
    1   AR   Ar  171   5.750   4.296   4.173
    1   AR   Ar  172   4.658   5.014   4.678
    1   AR   Ar  173   2.701   3.104   7.532
    1   AR   Ar  174   2.098   4.825   7.103
    1   AR   Ar  175   2.610   2.845   5.737
    1   AR   Ar  176   3.715   2.917   6.360
    1   AR   Ar  177   6.200   4.801  -0.042
    1   AR   Ar  178   3.798   4.901  -0.110
    1   AR   Ar  179   4.317   5.127   1.050
    1   AR   Ar  180   0.549   1.713  -2.797
    1   AR   Ar  181   0.778   5.802   1.633
    1   AR   Ar  182   2.396   0.509   2.777
    1   AR   Ar  183   3.369   5.240   2.798
    1   AR   Ar  184   4.057   6.301   1.320
    1   AR   Ar  185   2.390   5.315   5.111
    1   AR   Ar  186   3.774   5.014   3.836
    1   AR   Ar  187   3.562   6.691   3.558
    1   AR   Ar  188   3.031   6.394   1.788
    1   AR   Ar  189   3.740   2.668   7.343
    1   AR   Ar  190   4.379   6.500   4.095
    1   AR   Ar  191   3.548   5.471   7.846
    1   AR   Ar  192   4.328   6.033   5.057
    1   AR   Ar  193   2.020   5.714   0.261
    1   AR   Ar  194   4.229   3.777  -1.068
    1   AR   Ar  195   5.697   0.991  -0.357
    1   AR   Ar  196   4.687   0.076   0.015
    1   AR   Ar  197   3.946   1.120   0.884
    1   AR   Ar  198   6.465   1.116   0.849
    1   AR   Ar  199   3.830   1.512   2.883
    1   AR   Ar  200   5.456   1.849   0.264
    1   AR   Ar  201   5.250   6.690   3.653
    1   AR   Ar  202   5.614   2.330   4.550
    1   AR   Ar  203   6.289   6.595   3.814
    1   AR   Ar  204   5.173   7.015   4.895
    1   AR   Ar  205   6.313   6.974   2.573
    1   AR   Ar  206   4.879   1.013   4.786
    1   AR   Ar  207   0.598   1.277   6.460
    1   AR   Ar  208   7.022   0.198   3.377
    1   AR   Ar  209   6.594   3.023  -2.858
    1   AR   Ar  210   3.431   1.092   0.031
    1   AR   Ar  211   6.616   2.886   0.435
    1   AR   Ar  212   5.826   3.441  -1.516
    1   AR   Ar  213   3.120   1.336   2.090
    1   AR   Ar  214   4.580   3.168   2.909
    1   AR   Ar  215   6.040   2.093   1.001
    1   AR   Ar  216   0.978   3.868   1.725
    1   AR   Ar  217   4.943   3.562   4.139
    1   AR   Ar  218   4.440   3.085   5.171
    1   AR   Ar  219   5.088   2.470   3.592
    1   AR   Ar  220   4.275   3.631   2.013
    1   AR   Ar  221   6.166   6.437   5.230
    1   AR   Ar  222   4.166   1.357   6.788
    1   AR   Ar  223   0.293   0.905   7.698
    1   AR   Ar  224   5.020   3.305   6.075
    1   AR   Ar  225   6.256   3.222   2.357
    1   AR   Ar  226   3.233   4.035   2.924
    1   AR   Ar  227   6.932   3.956   1.345
    1   AR   Ar  228   5.690   6.506   1.529
    1   AR   Ar  229   5.250   4.141  -0.491
    1   AR   Ar  230   4.637   4.451   3.525
    1   AR   Ar  231   6.003   1.026   2.675
    1   AR   Ar  232   4.389   2.029   0.477
    1   AR   Ar  233   6.285   2.168   3.236
    1   AR   Ar  234   6.292   3.310   4.223
    1   AR   Ar  235   6.833   2.073   4.614
    1   AR   Ar  236   5.541   5.327   5.328
    1   AR   Ar  237   5.607   3.624   5.035
    1   AR   Ar  238   4.636   4.396   6.063
    1   AR   Ar  239   5.979   3.885   8.638
    1   AR   Ar  240   7.048   2.973   6.611
    1   AR   Ar  241   1.085   6.637  -0.604
    1   AR   Ar  242   5.181   4.662   0.540
    1   AR   Ar  243   5.401   4.465   2.661
    1   AR   Ar  244   0.735   5.406  -0.769
    1   AR   Ar  245   4.661   0.216   1.080
    1   AR   Ar  246   5.708   5.510   0.598
    1   AR   Ar  247   5.097   4.288   1.506
    1   AR   Ar  248   5.392   5.555  -0.358
    1   AR   Ar  249   4.162   5.814   2.271
    1   AR   Ar  250   5.333   5.883   4.352
    1   AR   Ar  251   5.792   5.099   3.486
    1   AR   Ar  252   4.551   5.349   3.264
    1   AR   Ar  253   6.076   3.968   5.980
    1   AR   Ar  254   1.952   4.543   9.000
    1   AR   Ar  255   4.794   3.123   7.560
    1   AR   Ar  256   6.928   5.836   3.670
    7.12000  7.12000 12.00000
Argon-slab step 2965
  256
    1   AR   Ar    1   6.947   1.302  -1.284
    1   AR   Ar    2   6.556   7.056   0.715
    1   AR   Ar    3   1.905   1.059   0.398
    1   AR   Ar    4   1.061   0.576  -0.580
    1   AR   Ar    5   0.238   6.271   0.773
    1   AR   Ar    6   0.128   0.907   2.158
    1   AR   Ar    7   6.529   4.362   3.246
    1   AR   Ar    8   5.904   0.429   1.629
    1   AR   Ar    9   0.937   0.247   3.061
    1   AR   Ar   10   0.628   0.630   4.064
    1   AR   Ar   11   2.082   6.185   4.067
    1   AR   Ar   12   0.863   1.222   2.916
    1   AR   Ar   13   6.681   0.888   4.823
    1   AR   Ar   14   0.487   2.098   7.394
    1   AR   Ar   15   5.286   1.080  10.570
    1   AR   Ar   16   0.996   0.611   5.150
    1   AR   Ar   17   6.402   1.894  -0.103
    1   AR   Ar   18   6.517   2.919  -0.620
    1   AR   Ar   19   1.880   2.743   1.374
    1   AR   Ar   20   4.956   4.216  -1.945
    1   AR   Ar   21   4.772   1.695   1.532
    1   AR   Ar   22   6.416   1.781   1.933
    1   AR   Ar   23   6.534   0.510  -0.649
    1   AR   Ar   24   0.094   2.103   1.171
    1   AR   Ar   25   6.904   1.252   3.515
    1   AR   Ar   26   5.813   0.571   3.982
    1   AR   Ar   27   1.479   1.336   3.802
    1   AR   Ar   28   0.983   2.411   4.907
    1   AR   Ar   29   5.177   2.448   6.888
    1   AR   Ar   30   1.984   1.452   4.975
    1   AR   Ar   31   2.086   0.236   7.621
    1   AR   Ar   32   1.663   3.462   5.680
    1   AR   Ar   33   0.971   4.097  -0.652
    1   AR   Ar   34   0.162   5.038   3.002
    1   AR   Ar   35   6.442   4.978   1.052
    1   AR   Ar   36   6.934   0.308  -3.851
    1   AR   Ar   37   5.482   2.413   2.674
    1   AR   Ar   38   7.090   4.044   2.479
    1   AR   Ar   39   1.207   3.358   3.318
    1   AR   Ar   40   2.136   3.759   0.802
    1   AR   Ar   41   0.401   3.380   4.147
    1   AR   Ar   42   6.231   5.489   4.491
    1   AR   Ar   43   0.008   1.993   6.046
    1   AR   Ar   44   0.608   4.418   3.566
    1   AR   Ar   45   0.258   3.007   5.569
    1   AR   Ar   46   0.979   5.923   5.954
    1   AR   Ar   47   5.843   3.315   7.162
    1   AR   Ar   48   0.219   6.091   6.868
    1   AR   Ar   49   5.826   0.645  -1.428
    1   AR   Ar   50   5.208   5.378   1.615
    1   AR   Ar   51   0.204   4.864   1.922
    1   AR   Ar   52   5.665   4.889  -1.188
    1   AR   Ar   53   5.379   6.209   2.658
    1   AR   Ar   54   0.150   6.492   2.628
    1   AR   Ar   55   6.320   5.525   2.720
    1   AR   Ar   56   0.183   0.490   1.240
    1   AR   Ar   57   5.691   3.530   3.306
    1   AR   Ar   58   6.839   4.342   4.215
    1   AR   Ar   59   1.824   5.356   6.251
    1   AR   Ar   60   0.998   6.413   3.701
    1   AR   Ar   61   6.416   5.064   5.965
    1   AR   Ar   62   0.798   5.084   5.013
    1   AR   Ar   63   2.164   0.616   6.587
    1   AR   Ar   64   1.207   6.442   4.831
    1   AR   Ar   65   3.627   0.115   0.837
    1   AR   Ar   66   0.880   1.318   1.626
    1   AR   Ar   67   2.834   6.091  -1.848
    1   AR   Ar   68   2.855   1.902  -0.638
    1   AR   Ar   69   2.970   1.197   1.049
    1   AR   Ar   70   0.735   6.946   1.785
    1   AR   Ar   71   2.568   1.323   4.031
    1   AR   Ar   72   3.347   0.258   1.977
    1   AR   Ar   73   3.283   0.498   3.893
    1   AR   Ar   74   2.047   0.332   3.664
    1   AR   Ar   75   3.737   1.147   4.463
    1   AR   Ar   76   1.727   0.719   2.031
    1   AR   Ar   77   2.228   6.329   6.186
    1   AR   Ar   78   0.816   0.348   6.463
    1   AR   Ar   79   3.814   6.188   6.038
    1   AR   Ar   80   3.496   5.055   5.701
    1   AR   Ar   81   2.668   7.003   0.189
    1   AR   Ar   82   6.840   5.691  -0.964
    1   AR   Ar   83   0.743   2.383   0.313
    1   AR   Ar   84   0.063   3.873  -0.265
    1   AR   Ar   85   0.958   3.326   0.808
    1   AR   Ar   86   2.263   4.198  -0.710
    1   AR   Ar   87   1.868   1.573   1.412
    1   AR   Ar   88   2.326   4.764   1.560
    1   AR   Ar   89   0.260   2.847   1.933
    1   AR   Ar   90   2.291   2.524   4.647
    1   AR   Ar   91   0.999   2.300   3.781
    1   AR   Ar   92   1.327   2.292   2.460
    1   AR   Ar   93   1.993   0.110   5.501
    1   AR   Ar   94   1.040   6.885  10.390
    1   AR   Ar   95   3.949   1.082   5.737
    1   AR   Ar   96   2.714   0.154   4.721
    1   AR   Ar   97   4.912   1.733  -0.790
    1   AR   Ar   98   2.342   5.265   2.550
    1   AR   Ar   99   6.187   2.312  -1.908
    1   AR   Ar  100   2.335   3.130  -0.448
    1   AR   Ar  101   3.203   4.413   0.933
    1   AR   Ar  102   3.178   2.755   4.010
    1   AR   Ar  103   1.195   4.678   0.922
    1   AR   Ar  104   2.907   2.841  -1.321
    1   AR   Ar  105   1.421   3.226   4.381
    1   AR   Ar  106   3.296   3.548   5.152
    1   AR   Ar  107   0.901   4.058   4.877
    1   AR   Ar  108   3.451   2.484   5.139
    1   AR   Ar  109   1.964   4.670   4.145
    1   AR   Ar  110   1.285   4.437   6.527
    1   AR   Ar  111   4.858   4.188   7.841
    1   AR   Ar  112   1.603   5.881   7.165
    1   AR   Ar  113   2.434   4.704   0.235
    1   AR   Ar  114   2.252   6.644  -0.754
    1   AR   Ar  115   2.943   5.473  -0.520
    1   AR   Ar  116   6.491   6.847  -1.390
    1   AR   Ar  117   1.101   5.265   3.962
    1   AR   Ar  118   1.346   5.767   2.689
    1   AR   Ar  119   2.291   3.279   2.645
    1   AR   Ar  120   1.554   6.833   2.391
    1   AR   Ar  121   6.286   4.518   5.019
    1   AR   Ar  122   2.701   6.239   4.956
    1   AR   Ar  123   3.534   4.511   4.752
    1   AR   Ar  124   2.055   5.811   1.672
    1   AR   Ar  125   0.187   4.243   5.750
    1   AR   Ar  126   7.054   7.015   4.452
    1   AR   Ar  127   3.292   3.978   6.071
    1   AR   Ar  128   3.092   5.541   6.603
    1   AR   Ar  129   2.526   6.362   2.954
    1   AR   Ar  130   5.038   2.778  -1.605
    1   AR   Ar  131   4.505   1.084   0.077
    1   AR   Ar  132   0.253   1.326  -0.392
    1   AR   Ar  133   4.395   6.772   3.028
    1   AR   Ar  134   4.868   1.520   3.825
    1   AR   Ar  135   5.272   0.545   3.191
    1   AR   Ar  136   4.974   7.041   2.210
    1   AR   Ar  137   2.697   5.358   3.754
    1   AR   Ar  138   4.775   2.023   4.936
    1   AR   Ar  139   5.518   2.449   5.671
    1   AR   Ar  140   3.917   0.139   4.801
    1   AR   Ar  141   3.502   5.849   4.274
    1   AR   Ar  142   3.070   6.881   5.712
    1   AR   Ar  143   0.129   0.066   5.675
    1   AR   Ar  144   5.772   1.454   5.755
    1   AR   Ar  145   4.449   3.452   0.008
    1   AR   Ar  146   3.803   2.338   2.255
    1   AR   Ar  147   5.073   1.617  -1.876
    1   AR   Ar  148   2.701   4.677  -1.575
    1   AR   Ar  149   3.398   2.128   1.064
    1   AR   Ar  150   2.001   1.485   2.825
    1   AR   Ar  151   2.409   2.185   3.575
    1   AR   Ar  152   3.264   3.474   0.028
    1   AR   Ar  153   4.417   0.528   3.942
    1   AR   Ar  154   4.102   2.394   4.111
    1   AR   Ar  155   6.329   0.047   7.110
    1   AR   Ar  156   3.914   3.569   3.952
    1   AR   Ar  157   2.360   3.360   6.518
    1   AR   Ar  158   1.135   2.924   6.932
    1   AR   Ar  159   4.276   2.080   5.777
    1   AR   Ar  160   2.962   1.482   5.444
    1   AR   Ar  161   5.131   2.921   1.701
    1   AR   Ar  162   4.595   6.139  -0.125
    1   AR   Ar  163   5.012   2.824   0.747
    1   AR   Ar  164   3.415   5.379   1.540
    1   AR   Ar  165   3.699   3.063   0.797
    1   AR   Ar  166   2.448   3.685   4.712
    1   AR   Ar  167   4.169   0.955   1.959
    1   AR   Ar  168   5.221   2.840  -0.513
    1   AR   Ar  169   3.242   3.276   2.099
    1   AR   Ar  170   2.212   4.383   5.694
    1   AR   Ar  171   5.739   4.326   4.178
    1   AR   Ar  172   4.628   5.009   4.682
    1   AR   Ar  173   2.681   3.103   7.541
    1   AR   Ar  174   2.071   4.838   7.094
    1   AR   Ar  175   2.606   2.851   5.750
    1   AR   Ar  176   3.697   2.931   6.307
    1   AR   Ar  177   6.192   4.825  -0.044
    1   AR   Ar  178   3.792   4.891  -0.119
    1   AR   Ar  179   4.264   5.117   1.056
    1   AR   Ar  180   0.531   1.699  -2.769
    1   AR   Ar  181   0.760   5.811   1.624
    1   AR   Ar  182   2.391   0.539   2.790
    1   AR   Ar  183   3.380   5.243   2.776
    1   AR   Ar  184   4.098   6.324   1.315
    1   AR   Ar  185   2.423   5.297   5.096
    1   AR   Ar  186   3.778   5.019   3.789
    1   AR   Ar  187   3.525   6.683   3.539
    1   AR   Ar  188   3.032   6.358   1.807
    1   AR   Ar  189   3.747   2.646   7.333
    1   AR   Ar  190   4.414   6.489   4.071
    1   AR   Ar  191   3.551   5.478   7.873
    1   AR   Ar  192   4.290   6.036   5.066
    1   AR   Ar  193   2.062   5.685   0.275
    1   AR   Ar  194   4.250   3.748  -1.075
    1   AR   Ar  195   5.672   0.975  -0.347
    1   AR   Ar  196   4.683   0.083   0.029
    1   AR   Ar  197   3.965   1.132   0.916
    1   AR   Ar  198   6.438   1.118   0.866
    1   AR   Ar  199   3.809   1.513   2.861
    1   AR   Ar  200   5.412   1.851   0.231
    1   AR   Ar  201   5.251   6.692   3.638
    1   AR   Ar  202   5.601   2.319   4.555
    1   AR   Ar  203   6.328   6.611   3.816
    1   AR   Ar  204   5.164   7.010   4.891
    1   AR   Ar  205   6.312   6.998   2.565
    1   AR   Ar  206   4.921   0.981   4.785
    1   AR   Ar  207   0.606   1.301   6.482
    1   AR   Ar  208   7.038   0.209   3.373
    1   AR   Ar  209   6.606   3.025  -2.842
    1   AR   Ar  210   3.430   1.071   0.011
    1   AR   Ar  211   6.610   2.899   0.429
    1   AR   Ar  212   5.826   3.433  -1.515
    1   AR   Ar  213   3.120   1.333   2.070
    1   AR   Ar  214   4.579   3.171   2.919
    1   AR   Ar  215   6.036   2.072   0.998
    1   AR   Ar  216   0.958   3.879   1.730
    1   AR   Ar  217   4.966   3.566   4.105
    1   AR   Ar  218   4.432   3.059   5.171
    1   AR   Ar  219   5.075   2.494   3.581
    1   AR   Ar  220   4.268   3.626   2.010
    1   AR   Ar  221   6.169   6.437   5.245
    1   AR   Ar  222   4.136   1.312   6.802
    1   AR   Ar  223   0.304   0.907   7.697
    1   AR   Ar  224   4.996   3.261   6.052
    1   AR   Ar  225   6.260   3.224   2.339
    1   AR   Ar  226   3.211   4.068   2.922
    1   AR   Ar  227   6.942   3.919   1.350
    1   AR   Ar  228   5.679   6.523   1.568
    1   AR   Ar  229   5.273   4.136  -0.512
    1   AR   Ar  230   4.661   4.451   3.562
    1   AR   Ar  231   5.995   1.050   2.700
    1   AR   Ar  232   4.334   2.022   0.482
    1   AR   Ar  233   6.287   2.176   3.213
    1   AR   Ar  234   6.267   3.314   4.219
    1   AR   Ar  235   6.797   2.063   4.626
    1   AR   Ar  236   5.533   5.332   5.362
    1   AR   Ar  237   5.593   3.638   5.038
    1   AR   Ar  238   4.650   4.401   6.043
    1   AR   Ar  239   5.965   3.891   8.633
    1   AR   Ar  240   7.037   2.985   6.596
    1   AR   Ar  241   1.085   6.640  -0.610
    1   AR   Ar  242   5.176   4.650   0.526
    1   AR   Ar  243   5.424   4.439   2.627
    1   AR   Ar  244   0.746   5.396  -0.758
    1   AR   Ar  245   4.648   0.228   1.098
    1   AR   Ar  246   5.701   5.529   0.580
    1   AR   Ar  247   5.105   4.270   1.504
    1   AR   Ar  248   5.391   5.543  -0.384
    1   AR   Ar  249   4.160   5.813   2.289
    1   AR   Ar  250   5.321   5.895   4.349
    1   AR   Ar  251   5.808   5.132   3.513
    1   AR   Ar  252   4.493   5.343   3.293
    1   AR   Ar  253   6.096   3.987   5.943
    1   AR   Ar  254   1.951   4.500   9.017
    1   AR   Ar  255   4.752   3.136   7.610
    1   AR   Ar  256   6.924   5.802   3.655
    7.12000  7.12000 12.00000
Argon-slab step 2970
  256
    1   AR   Ar    1   6.954   1.304  -1.320
    1   AR   Ar    2   6.531   7.052   0.702
    1   AR   Ar    3   1.909   1.080   0.394
    1   AR   Ar    4   1.076   0.569  -0.562
    1   AR   Ar    5   0.241   6.304   0.804
    1   AR   Ar    6   0.140   0.906   2.171
    1   AR   Ar    7   6.534   4.375   3.263
    1   AR   Ar    8   5.893   0.426   1.618
    1   AR   Ar    9   0.918   0.269   3.038
    1   AR   Ar   10   0.591   0.593   4.053
    1   AR   Ar   11   2.054   6.154   4.048
    1   AR   Ar   12   0.858   1.218   2.898
    1   AR   Ar   13   6.707   0.908   4.840
    1   AR   Ar   14   0.457   2.093   7.395
    1   AR   Ar   15   5.264   1.093  10.564
    1   AR   Ar   16   0.981   0.599   5.153
    1   AR   Ar   17   6.379   1.889  -0.085
    1   AR   Ar   18   6.542   2.898  -0.640
    1   AR   Ar   19   1.883   2.750   1.368
    1   AR   Ar   20   4.963   4.217  -1.919
    1   AR   Ar   21   4.782   1.703   1.523
    1   AR   Ar   22   6.441   1.750   1.929
    1   AR   Ar   23   6.548   0.482  -0.639
    1   AR   Ar   24   0.066   2.062   1.217
    1   AR   Ar   25   6.919   1.281   3.497
    1   AR   Ar   26   5.827   0.516   4.007
    1   AR   Ar   27   1.455   1.341   3.787
    1   AR   Ar   28   1.038   2.386   4.898
    1   AR   Ar   29   5.163   2.446   6.903
    1   AR   Ar   30   1.969   1.474   4.968
    1   AR   Ar   31   2.115   0.248   7.646
    1   AR   Ar   32   1.649   3.448   5.686
    1   AR   Ar   33   0.969   4.091  -0.653
    1   AR   Ar   34   0.135   5.036   3.021
    1   AR   Ar   35   6.456   4.942   1.033
    1   AR   Ar   36   6.927   0.316  -3.861
    1   AR   Ar   37   5.461   2.407   2.643
    1   AR   Ar   38   7.108   4.028   2.469
    1   AR   Ar   39   1.200   3.353   3.335
    1   AR   Ar   40   2.131   3.759   0.824
    1   AR   Ar   41   0.381   3.381   4.127
    1   AR   Ar   42   6.242   5.500   4.500
    1   AR   Ar   43   0.014   2.016   6.048
    1   AR   Ar   44   0.593   4.412   3.590
    1   AR   Ar   45   0.266   2.980   5.574
    1   AR   Ar   46   0.962   5.892   5.938
    1   AR   Ar   47   5.852   3.335   7.153
    1   AR   Ar   48   0.204   6.047   6.867
    1   AR   Ar   49   5.805   0.688  -1.418
    1   AR   Ar   50   5.208   5.357   1.575
    1   AR   Ar   51   0.186   4.875   1.893
    1   AR   Ar   52   5.670   4.883  -1.220
    1   AR   Ar   53   5.380   6.173   2.668
    1   AR   Ar   54   0.140   6.498   2.618
    1   AR   Ar   55   6.326   5.523   2.739
    1   AR   Ar   56   0.137   0.471   1.236
    1   AR   Ar   57   5.694   3.549   3.326
    1   AR   Ar   58   6.846   4.330   4.233
    1   AR   Ar   59   1.804   5.366   6.236
    1   AR   Ar   60   0.974   6.405   3.690
    1   AR   Ar   61   6.400   5.070   5.977
    1   AR   Ar   62   0.825   5.114   5.012
    1   AR   Ar   63   2.188   0.601   6.557
    1   AR   Ar   64   1.169   6.428   4.806
    1   AR   Ar   65   3.614   0.092   0.842
    1   AR   Ar   66   0.880   1.339   1.631
    1   AR   Ar   67   2.856   6.121  -1.855
    1   AR   Ar   68   2.827   1.889  -0.660
    1   AR   Ar   69   2.950   1.197   1.040
    1   AR   Ar   70   0.750   6.946   1.771
    1   AR   Ar   71   2.569   1.329   4.025
    1   AR   Ar   72   3.352   0.230   2.001
    1   AR   Ar   73   3.297   0.497   3.885
    1   AR   Ar   74   2.021   0.315   3.668
    1   AR   Ar   75   3.769   1.139   4.447
    1   AR   Ar   76   1.718   0.711   2.002
    1   AR   Ar   77   2.260   6.340   6.183
    1   AR   Ar   78   0.869   0.347   6.475
    1   AR   Ar   79   3.818   6.185   6.021
    1   AR   Ar   80   3.511   5.067   5.684
    1   AR   Ar   81   2.678   6.981   0.167
    1   AR   Ar   82   6.825   5.698  -0.932
    1   AR   Ar   83   0.728   2.402   0.332
    1   AR   Ar   84   0.043   3.882  -0.246
    1   AR   Ar   85   0.966   3.339   0.786
    1   AR   Ar   86   2.266   4.223  -0.724
    1   AR   Ar   87   1.886   1.580   1.425
    1   AR   Ar   88   2.351   4.760   1.567
    1   AR   Ar   89   0.253   2.857   1.971
    1   AR   Ar   90   2.258   2.505   4.678
    1   AR   Ar   91   0.998   2.290   3.776
    1   AR   Ar   92   1.375   2.280   2.469
    1   AR   Ar   93   2.005   0.124   5.471
    1   AR   Ar   94   1.022   6.875  10.404
    1   AR   Ar   95   3.969   1.087   5.738
    1   AR   Ar   96   2.711   0.164   4.740
    1   AR   Ar   97   4.931   1.753  -0.794
    1   AR   Ar   98   2.311   5.269   2.543
    1   AR   Ar   99   6.160   2.289  -1.920
    1   AR   Ar  100   2.351   3.170  -0.410
    1   AR   Ar  101   3.162   4.372   0.951
    1   AR   Ar  102   3.168   2.732   3.976
    1   AR   Ar  103   1.183   4.659   0.934
    1   AR   Ar  104   2.887   2.841  -1.299
    1   AR   Ar  105   1.413   3.229   4.404
    1   AR   Ar  106   3.329   3.568   5.157
    1   AR   Ar  107   0.882   4.095   4.847
    1   AR   Ar  108   3.408   2.494   5.118
    1   AR   Ar  109   1.982   4.700   4.166
    1   AR   Ar  110   1.303   4.419   6.528
    1   AR   Ar  111   4.850   4.189   7.826
    1   AR   Ar  112   1.591   5.879   7.175
    1   AR   Ar  113   2.453   4.729   0.221
    1   AR   Ar  114   2.230   6.679  -0.774
    1   AR   Ar  115   2.942   5.504  -0.540
    1   AR   Ar  116   6.484   6.840  -1.356
    1   AR   Ar  117   1.089   5.269   3.982
    1   AR   Ar  118   1.345   5.784   2.697
    1   AR   Ar  119   2.296   3.240   2.635
    1   AR   Ar  120   1.554   6.838   2.390
    1   AR   Ar  121   6.263   4.529   5.029
    1   AR   Ar  122   2.707   6.244   4.947
    1   AR   Ar  123   3.521   4.525   4.737
    1   AR   Ar  124   2.055   5.815   1.682
    1   AR   Ar  125   0.165   4.255   5.722
    1   AR   Ar  126   7.053   7.019   4.448
    1   AR   Ar  127   3.287   3.953   6.071
    1   AR   Ar  128   3.078   5.526   6.633
    1   AR   Ar  129   2.507   6.352   2.939
    1   AR   Ar  130   5.032   2.770  -1.591
    1   AR   Ar  131   4.492   1.098   0.067
    1   AR   Ar  132   0.270   1.342  -0.395
    1   AR   Ar  133   4.428   6.761   3.044
    1   AR   Ar  134   4.864   1.530   3.814
    1   AR   Ar  135   5.253   0.546   3.169
    1   AR   Ar  136   4.980   7.028   2.209
    1   AR   Ar  137   2.683   5.345   3.774
    1   AR   Ar  138   4.822   2.027   4.925
    1   AR   Ar  139   5.513   2.460   5.671
    1   AR   Ar  140   3.921   0.126   4.806
    1   AR   Ar  141   3.455   5.864   4.295
    1   AR   Ar  142   3.080   6.900   5.732
    1   AR   Ar  143   0.123   0.068   5.650
    1   AR   Ar  144   5.783   1.472   5.724
    1   AR   Ar  145   4.391   3.456   0.012
    1   AR   Ar  146   3.804   2.332   2.252
    1   AR   Ar  147   5.077   1.591  -1.875
    1   AR   Ar  148   2.705   4.664  -1.536
    1   AR   Ar  149   3.355   2.099   1.066
    1   AR   Ar  150   1.989   1.470   2.811
    1   AR   Ar  151   2.404   2.169   3.576
    1   AR   Ar  152   3.249   3.469   0.012
    1   AR   Ar  153   4.412   0.538   3.885
    1   AR   Ar  154   4.109   2.407   4.138
    1   AR   Ar  155   6.309   0.028   7.099
    1   AR   Ar  156   3.948   3.537   3.955
    1   AR   Ar  157   2.356   3.367   6.546
    1   AR   Ar  158   1.156   2.912   6.922
    1   AR   Ar  159   4.312   2.083   5.840
    1   AR   Ar  160   2.976   1.488   5.427
    1   AR   Ar  161   5.156   2.927   1.693
    1   AR   Ar  162   4.619   6.180  -0.104
    1   AR   Ar  163   5.007   2.768   0.728
    1   AR   Ar  164   3.429   5.402   1.521
    1   AR   Ar  165   3.687   3.104   0.793
    1   AR   Ar  166   2.417   3.691   4.716
    1   AR   Ar  167   4.173   0.958   1.970
    1   AR   Ar  168   5.253   2.809  -0.524
    1   AR   Ar  169   3.239   3.295   2.104
    1   AR   Ar  170   2.227   4.455   5.683
    1   AR   Ar  171   5.755   4.333   4.185
    1   AR   Ar  172   4.597   5.004   4.684
    1   AR   Ar  173   2.663   3.103   7.549
    1   AR   Ar  174   2.049   4.850   7.091
    1   AR   Ar  175   2.608   2.846   5.745
    1   AR   Ar  176   3.677   2.945   6.250
    1   AR   Ar  177   6.185   4.846  -0.048
    1   AR   Ar  178   3.786   4.880  -0.126
    1   AR   Ar  179   4.218   5.105   1.058
    1   AR   Ar  180   0.512   1.686  -2.740
    1   AR   Ar  181   0.744   5.819   1.618
    1   AR   Ar  182   2.399   0.565   2.790
    1   AR   Ar  183   3.392   5.246   2.754
    1   AR   Ar  184   4.139   6.347   1.310
    1   AR   Ar  185   2.453   5.268   5.083
    1   AR   Ar  186   3.758   5.004   3.755
    1   AR   Ar  187   3.478   6.670   3.521
    1   AR   Ar  188   3.034   6.321   1.827
    1   AR   Ar  189   3.754   2.624   7.324
    1   AR   Ar  190   4.422   6.486   4.055
    1   AR   Ar  191   3.553   5.484   7.899
    1   AR   Ar  192   4.253   6.039   5.074
    1   AR   Ar  193   2.103   5.661   0.288
    1   AR   Ar  194   4.273   3.720  -1.080
    1   AR   Ar  195   5.642   0.962  -0.336
    1   AR   Ar  196   4.708   0.099   0.053
    1   AR   Ar  197   3.983   1.114   0.909
    1   AR   Ar  198   6.413   1.117   0.882
    1   AR   Ar  199   3.792   1.517   2.823
    1   AR   Ar  200   5.359   1.853   0.194
    1   AR   Ar  201   5.269   6.698   3.618
    1   AR   Ar  202   5.605   2.319   4.557
    1   AR   Ar  203   6.360   6.630   3.817
    1   AR   Ar  204   5.155   7.002   4.884
    1   AR   Ar  205   6.309   7.022   2.557
    1   AR   Ar  206   4.962   0.948   4.785
    1   AR   Ar  207   0.616   1.333   6.509
    1   AR   Ar  208   7.057   0.217   3.363
    1   AR   Ar  209   6.642   3.051  -2.821
    1   AR   Ar  210   3.424   1.049  -0.011
    1   AR   Ar  211   6.605   2.911   0.426
    1   AR   Ar  212   5.809   3.427  -1.511
    1   AR   Ar  213   3.117   1.330   2.052
    1   AR   Ar  214   4.579   3.174   2.931
    1   AR   Ar  215   6.032   2.063   1.011
    1   AR   Ar  216   0.937   3.891   1.736
    1   AR   Ar  217   4.990   3.568   4.080
    1   AR   Ar  218   4.423   3.033   5.168
    1   AR   Ar  219   5.062   2.525   3.580
    1   AR   Ar  220   4.262   3.623   2.004
    1   AR   Ar  221   6.179   6.458   5.235
    1   AR   Ar  222   4.106   1.270   6.815
    1   AR   Ar  223   0.316   0.910   7.695
    1   AR   Ar  224   4.976   3.228   6.042
    1   AR   Ar  225   6.263   3.225   2.321
    1   AR   Ar  226   3.190   4.101   2.921
    1   AR   Ar  227   6.953   3.883   1.357
    1   AR   Ar  228   5.669   6.534   1.607
    1   AR   Ar  229   5.296   4.130  -0.533
    1   AR   Ar  230   4.691   4.428   3.605
    1   AR   Ar  231   5.995   1.078   2.722
    1   AR   Ar  232   4.279   2.020   0.486
    1   AR   Ar  233   6.296   2.182   3.196
    1   AR   Ar  234   6.262   3.322   4.226
    1   AR   Ar  235   6.761   2.053   4.637
    1   AR   Ar  236   5.523   5.337   5.394
    1   AR   Ar  237   5.577   3.650   5.041
    1   AR   Ar  238   4.664   4.406   6.022
    1   AR   Ar  239   5.951   3.897   8.627
    1   AR   Ar  240   7.025   2.996   6.582
    1   AR   Ar  241   1.086   6.639  -0.616
    1   AR   Ar  242   5.168   4.635   0.508
    1   AR   Ar  243   5.446   4.413   2.594
    1   AR   Ar  244   0.758   5.386  -0.747
    1   AR   Ar  245   4.637   0.241   1.121
    1   AR   Ar  246   5.691   5.578   0.577
    1   AR   Ar  247   5.112   4.250   1.505
    1   AR   Ar  248   5.410   5.535  -0.403
    1   AR   Ar  249   4.160   5.813   2.306
    1   AR   Ar  250   5.301   5.908   4.348
    1   AR   Ar  251   5.819   5.166   3.543
    1   AR   Ar  252   4.457   5.373   3.298
    1   AR   Ar  253   6.116   4.005   5.908
    1   AR   Ar  254   1.951   4.457   9.034
    1   AR   Ar  255   4.710   3.149   7.658
    1   AR   Ar  256   6.921   5.768   3.642
    7.12000  7.12000 12.00000
Argon-slab step 2975
  256
    1   AR   Ar    1   6.957   1.305  -1.361
    1   AR   Ar    2   6.502   7.047   0.688
    1   AR   Ar    3   1.913   1.100   0.391
    1   AR   Ar    4   1.092   0.566  -0.544
    1   AR   Ar    5   0.244   6.337   0.834
    1   AR   Ar    6   0.145   0.901   2.191
    1   AR   Ar    7   6.528   4.384   3.280
    1   AR   Ar    8   5.878   0.402   1.621
    1   AR   Ar    9   0.905   0.235   3.040
    1   AR   Ar   10   0.560   0.563   4.044
    1   AR   Ar   11   2.029   6.130   4.031
    1   AR   Ar   12   0.854   1.232   2.879
    1   AR   Ar   13   6.734   0.928   4.857
    1   AR   Ar   14   0.426   2.087   7.394
    1   AR   Ar   15   5.242   1.106  10.558
    1   AR   Ar   16   0.967   0.587   5.156
    1   AR   Ar   17   6.365   1.901  -0.068
    1   AR   Ar   18   6.564   2.876  -0.663
    1   AR   Ar   19   1.885   2.756   1.363
    1   AR   Ar   20   4.972   4.216  -1.891
    1   AR   Ar   21   4.800   1.712   1.506
    1   AR   Ar   22   6.470   1.736   1.955
    1   AR   Ar   23   6.566   0.456  -0.626
    1   AR   Ar   24   0.039   2.021   1.260
    1   AR   Ar   25   6.935   1.310   3.480
    1   AR   Ar   26   5.845   0.460   4.039
    1   AR   Ar   27   1.433   1.341   3.774
    1   AR   Ar   28   1.093   2.359   4.891
    1   AR   Ar   29   5.148   2.445   6.917
    1   AR   Ar   30   1.952   1.495   4.960
    1   AR   Ar   31   2.144   0.260   7.670
    1   AR   Ar   32   1.647   3.431   5.702
    1   AR   Ar   33   0.973   4.086  -0.655
    1   AR   Ar   34   0.108   5.046   3.022
    1   AR   Ar   35   6.461   4.955   1.031
    1   AR   Ar   36   6.920   0.324  -3.872
    1   AR   Ar   37   5.437   2.402   2.604
    1   AR   Ar   38   0.012   4.017   2.463
    1   AR   Ar   39   1.175   3.355   3.347
    1   AR   Ar   40   2.126   3.761   0.845
    1   AR   Ar   41   0.358   3.381   4.107
    1   AR   Ar   42   6.258   5.509   4.510
    1   AR   Ar   43   0.015   2.043   6.046
    1   AR   Ar   44   0.587   4.391   3.623
    1   AR   Ar   45   0.270   3.002   5.594
    1   AR   Ar   46   0.967   5.838   5.929
    1   AR   Ar   47   5.860   3.356   7.144
    1   AR   Ar   48   0.189   6.004   6.864
    1   AR   Ar   49   5.785   0.732  -1.408
    1   AR   Ar   50   5.208   5.337   1.536
    1   AR   Ar   51   0.169   4.890   1.861
    1   AR   Ar   52   5.676   4.877  -1.253
    1   AR   Ar   53   5.382   6.133   2.679
    1   AR   Ar   54   0.133   6.503   2.610
    1   AR   Ar   55   6.335   5.524   2.753
    1   AR   Ar   56   0.091   0.455   1.228
    1   AR   Ar   57   5.699   3.568   3.341
    1   AR   Ar   58   6.874   4.312   4.239
    1   AR   Ar   59   1.812   5.358   6.257
    1   AR   Ar   60   0.949   6.398   3.679
    1   AR   Ar   61   6.393   5.041   6.007
    1   AR   Ar   62   0.851   5.148   5.014
    1   AR   Ar   63   2.212   0.585   6.524
    1   AR   Ar   64   1.131   6.414   4.782
    1   AR   Ar   65   3.611   0.105   0.837
    1   AR   Ar   66   0.881   1.363   1.633
    1   AR   Ar   67   2.876   6.151  -1.861
    1   AR   Ar   68   2.798   1.876  -0.680
    1   AR   Ar   69   2.920   1.186   1.027
    1   AR   Ar   70   0.763   6.944   1.757
    1   AR   Ar   71   2.571   1.335   4.022
    1   AR   Ar   72   3.358   0.203   2.024
    1   AR   Ar   73   3.303   0.490   3.869
    1   AR   Ar   74   1.997   0.301   3.678
    1   AR   Ar   75   3.806   1.145   4.441
    1   AR   Ar   76   1.705   0.703   1.974
    1   AR   Ar   77   2.292   6.353   6.181
    1   AR   Ar   78   0.924   0.340   6.486
    1   AR   Ar   79   3.822   6.181   6.007
    1   AR   Ar   80   3.525   5.080   5.667
    1   AR   Ar   81   2.689   6.960   0.147
    1   AR   Ar   82   6.808   5.706  -0.899
    1   AR   Ar   83   0.712   2.418   0.351
    1   AR   Ar   84   0.017   3.888  -0.225
    1   AR   Ar   85   0.975   3.355   0.766
    1   AR   Ar   86   2.261   4.242  -0.724
    1   AR   Ar   87   1.908   1.590   1.437
    1   AR   Ar   88   2.348   4.787   1.560
    1   AR   Ar   89   0.247   2.869   2.009
    1   AR   Ar   90   2.227   2.494   4.717
    1   AR   Ar   91   0.996   2.283   3.771
    1   AR   Ar   92   1.421   2.269   2.477
    1   AR   Ar   93   2.012   0.137   5.446
    1   AR   Ar   94   1.005   6.864  10.418
    1   AR   Ar   95   4.002   1.074   5.730
    1   AR   Ar   96   2.713   0.178   4.753
    1   AR   Ar   97   4.950   1.773  -0.798
    1   AR   Ar   98   2.281   5.272   2.540
    1   AR   Ar   99   6.132   2.267  -1.932
    1   AR   Ar  100   2.363   3.208  -0.372
    1   AR   Ar  101   3.147   4.359   0.955
    1   AR   Ar  102   3.155   2.713   3.945
    1   AR   Ar  103   1.172   4.639   0.947
    1   AR   Ar  104   2.868   2.840  -1.277
    1   AR   Ar  105   1.409   3.234   4.426
    1   AR   Ar  106   3.369   3.580   5.157
    1   AR   Ar  107   0.864   4.127   4.816
    1   AR   Ar  108   3.367   2.502   5.095
    1   AR   Ar  109   1.997   4.725   4.191
    1   AR   Ar  110   1.322   4.404   6.489
    1   AR   Ar  111   4.843   4.193   7.811
    1   AR   Ar  112   1.571   5.869   7.178
    1   AR   Ar  113   2.475   4.745   0.206
    1   AR   Ar  114   2.220   6.700  -0.790
    1   AR   Ar  115   2.916   5.524  -0.573
    1   AR   Ar  116   6.476   6.831  -1.323
    1   AR   Ar  117   1.076   5.278   4.000
    1   AR   Ar  118   1.342   5.802   2.705
    1   AR   Ar  119   2.299   3.200   2.626
    1   AR   Ar  120   1.561   6.839   2.392
    1   AR   Ar  121   6.241   4.545   5.048
    1   AR   Ar  122   2.711   6.253   4.938
    1   AR   Ar  123   3.508   4.540   4.721
    1   AR   Ar  124   2.052   5.822   1.690
    1   AR   Ar  125   0.141   4.267   5.692
    1   AR   Ar  126   7.054   7.022   4.451
    1   AR   Ar  127   3.279   3.934   6.079
    1   AR   Ar  128   3.063   5.511   6.661
    1   AR   Ar  129   2.513   6.356   2.937
    1   AR   Ar  130   5.029   2.767  -1.574
    1   AR   Ar  131   4.489   1.115   0.046
    1   AR   Ar  132   0.270   1.357  -0.384
    1   AR   Ar  133   4.456   6.751   3.056
    1   AR   Ar  134   4.860   1.538   3.805
    1   AR   Ar  135   5.246   0.530   3.150
    1   AR   Ar  136   4.967   7.034   2.177
    1   AR   Ar  137   2.672   5.333   3.788
    1   AR   Ar  138   4.835   2.017   4.926
    1   AR   Ar  139   5.501   2.465   5.676
    1   AR   Ar  140   3.924   0.111   4.811
    1   AR   Ar  141   3.411   5.881   4.318
    1   AR   Ar  142   3.090   6.921   5.750
    1   AR   Ar  143   0.117   0.070   5.625
    1   AR   Ar  144   5.795   1.484   5.692
    1   AR   Ar  145   4.334   3.461   0.017
    1   AR   Ar  146   3.806   2.334   2.241
    1   AR   Ar  147   5.083   1.566  -1.873
    1   AR   Ar  148   2.711   4.654  -1.502
    1   AR   Ar  149   3.317   2.078   1.071
    1   AR   Ar  150   1.973   1.462   2.797
    1   AR   Ar  151   2.390   2.166   3.568
    1   AR   Ar  152   3.230   3.474  -0.014
    1   AR   Ar  153   4.409   0.542   3.826
    1   AR   Ar  154   4.124   2.418   4.168
    1   AR   Ar  155   6.314   0.022   7.090
    1   AR   Ar  156   3.979   3.505   3.958
    1   AR   Ar  157   2.350   3.382   6.581
    1   AR   Ar  158   1.177   2.900   6.910
    1   AR   Ar  159   4.348   2.091   5.906
    1   AR   Ar  160   2.985   1.504   5.395
    1   AR   Ar  161   5.182   2.934   1.698
    1   AR   Ar  162   4.640   6.219  -0.080
    1   AR   Ar  163   5.001   2.711   0.698
    1   AR   Ar  164   3.427   5.426   1.511
    1   AR   Ar  165   3.684   3.139   0.804
    1   AR   Ar  166   2.378   3.697   4.718
    1   AR   Ar  167   4.178   0.957   1.982
    1   AR   Ar  168   5.286   2.778  -0.533
    1   AR   Ar  169   3.236   3.314   2.107
    1   AR   Ar  170   2.238   4.492   5.684
    1   AR   Ar  171   5.786   4.325   4.190
    1   AR   Ar  172   4.567   4.999   4.685
    1   AR   Ar  173   2.645   3.102   7.558
    1   AR   Ar  174   2.033   4.862   7.095
    1   AR   Ar  175   2.612   2.836   5.729
    1   AR   Ar  176   3.659   2.959   6.190
    1   AR   Ar  177   6.178   4.865  -0.054
    1   AR   Ar  178   3.796   4.869  -0.135
    1   AR   Ar  179   4.187   5.086   1.050
    1   AR   Ar  180   0.493   1.673  -2.712
    1   AR   Ar  181   0.729   5.826   1.615
    1   AR   Ar  182   2.419   0.583   2.782
    1   AR   Ar  183   3.402   5.247   2.733
    1   AR   Ar  184   4.181   6.370   1.305
    1   AR   Ar  185   2.484   5.237   5.066
    1   AR   Ar  186   3.707   4.970   3.742
    1   AR   Ar  187   3.429   6.652   3.501
    1   AR   Ar  188   3.035   6.286   1.849
    1   AR   Ar  189   3.761   2.602   7.316
    1   AR   Ar  190   4.417   6.480   4.050
    1   AR   Ar  191   3.554   5.491   7.925
    1   AR   Ar  192   4.247   6.056   5.073
    1   AR   Ar  193   2.141   5.646   0.303
    1   AR   Ar  194   4.298   3.691  -1.086
    1   AR   Ar  195   5.610   0.950  -0.324
    1   AR   Ar  196   4.734   0.112   0.077
    1   AR   Ar  197   3.998   1.088   0.901
    1   AR   Ar  198   6.389   1.112   0.897
    1   AR   Ar  199   3.778   1.514   2.796
    1   AR   Ar  200   5.302   1.855   0.159
    1   AR   Ar  201   5.304   6.708   3.596
    1   AR   Ar  202   5.632   2.341   4.566
    1   AR   Ar  203   6.383   6.649   3.814
    1   AR   Ar  204   5.145   6.992   4.874
    1   AR   Ar  205   6.302   7.048   2.550
    1   AR   Ar  206   5.003   0.915   4.785
    1   AR   Ar  207   0.627   1.369   6.539
    1   AR   Ar  208   7.068   0.222   3.349
    1   AR   Ar  209   6.678   3.076  -2.799
    1   AR   Ar  210   3.416   1.028  -0.033
    1   AR   Ar  211   6.602   2.922   0.426
    1   AR   Ar  212   5.782   3.423  -1.503
    1   AR   Ar  213   3.111   1.329   2.036
    1   AR   Ar  214   4.577   3.180   2.942
    1   AR   Ar  215   6.023   2.068   1.040
    1   AR   Ar  216   0.917   3.905   1.747
    1   AR   Ar  217   5.017   3.574   4.091
    1   AR   Ar  218   4.411   3.007   5.162
    1   AR   Ar  219   5.050   2.558   3.586
    1   AR   Ar  220   4.257   3.621   1.996
    1   AR   Ar  221   6.188   6.478   5.223
    1   AR   Ar  222   4.075   1.229   6.827
    1   AR   Ar  223   0.328   0.914   7.691
    1   AR   Ar  224   4.960   3.214   6.052
    1   AR   Ar  225   6.266   3.227   2.304
    1   AR   Ar  226   3.169   4.135   2.919
    1   AR   Ar  227   6.964   3.846   1.363
    1   AR   Ar  228   5.661   6.539   1.643
    1   AR   Ar  229   5.317   4.122  -0.553
    1   AR   Ar  230   4.724   4.403   3.648
    1   AR   Ar  231   6.001   1.108   2.741
    1   AR   Ar  232   4.223   2.025   0.491
    1   AR   Ar  233   6.309   2.186   3.181
    1   AR   Ar  234   6.263   3.332   4.237
    1   AR   Ar  235   6.724   2.043   4.649
    1   AR   Ar  236   5.513   5.343   5.423
    1   AR   Ar  237   5.559   3.659   5.045
    1   AR   Ar  238   4.677   4.409   5.999
    1   AR   Ar  239   5.936   3.904   8.621
    1   AR   Ar  240   7.014   3.008   6.571
    1   AR   Ar  241   1.086   6.634  -0.622
    1   AR   Ar  242   5.160   4.621   0.487
    1   AR   Ar  243   5.470   4.388   2.564
    1   AR   Ar  244   0.771   5.376  -0.735
    1   AR   Ar  245   4.623   0.240   1.130
    1   AR   Ar  246   5.682   5.631   0.582
    1   AR   Ar  247   5.119   4.229   1.508
    1   AR   Ar  248   5.455   5.538  -0.409
    1   AR   Ar  249   4.163   5.816   2.323
    1   AR   Ar  250   5.277   5.920   4.348
    1   AR   Ar  251   5.827   5.188   3.565
    1   AR   Ar  252   4.450   5.427   3.282
    1   AR   Ar  253   6.136   4.020   5.878
    1   AR   Ar  254   1.950   4.414   9.051
    1   AR   Ar  255   4.669   3.159   7.706
    1   AR   Ar  256   6.909   5.754   3.643
    7.12000  7.12000 12.00000
Argon-slab step 2980
  256
    1   AR   Ar    1   6.958   1.306  -1.403
    1   AR   Ar    2   6.468   7.041   0.672
    1   AR   Ar    3   1.918   1.121   0.389
    1   AR   Ar    4   1.107   0.566  -0.524
    1   AR   Ar    5   0.246   6.374   0.862
    1   AR   Ar    6   0.141   0.893   2.216
    1   AR   Ar    7   6.512   4.387   3.295
    1   AR   Ar    8   5.863   0.381   1.628
    1   AR   Ar    9   0.904   0.205   3.041
    1   AR   Ar   10   0.544   0.544   4.040
    1   AR   Ar   11   2.025   6.126   4.019
    1   AR   Ar   12   0.851   1.256   2.858
    1   AR   Ar   13   6.761   0.947   4.872
    1   AR   Ar   14   0.396   2.081   7.391
    1   AR   Ar   15   5.227   1.118  10.563
    1   AR   Ar   16   0.953   0.575   5.158
    1   AR   Ar   17   6.356   1.924  -0.051
    1   AR   Ar   18   6.585   2.855  -0.686
    1   AR   Ar   19   1.887   2.763   1.359
    1   AR   Ar   20   4.981   4.215  -1.860
    1   AR   Ar   21   4.818   1.724   1.486
    1   AR   Ar   22   6.502   1.748   2.024
    1   AR   Ar   23   6.585   0.436  -0.608
    1   AR   Ar   24   0.016   1.981   1.298
    1   AR   Ar   25   6.951   1.338   3.462
    1   AR   Ar   26   5.864   0.406   4.073
    1   AR   Ar   27   1.416   1.337   3.763
    1   AR   Ar   28   1.147   2.329   4.887
    1   AR   Ar   29   5.133   2.445   6.929
    1   AR   Ar   30   1.934   1.513   4.951
    1   AR   Ar   31   2.172   0.272   7.693
    1   AR   Ar   32   1.667   3.425   5.716
    1   AR   Ar   33   0.974   4.090  -0.662
    1   AR   Ar   34   0.091   5.059   3.011
    1   AR   Ar   35   6.465   4.978   1.029
    1   AR   Ar   36   6.914   0.332  -3.883
    1   AR   Ar   37   5.413   2.396   2.563
    1   AR   Ar   38   0.036   4.028   2.468
    1   AR   Ar   39   1.151   3.357   3.358
    1   AR   Ar   40   2.121   3.765   0.866
    1   AR   Ar   41   0.334   3.382   4.088
    1   AR   Ar   42   6.275   5.518   4.521
    1   AR   Ar   43   0.013   2.071   6.042
    1   AR   Ar   44   0.584   4.380   3.637
    1   AR   Ar   45   0.276   3.027   5.609
    1   AR   Ar   46   0.974   5.781   5.921
    1   AR   Ar   47   5.867   3.376   7.134
    1   AR   Ar   48   0.176   5.960   6.861
    1   AR   Ar   49   5.758   0.766  -1.382
    1   AR   Ar   50   5.207   5.319   1.497
    1   AR   Ar   51   0.151   4.904   1.828
    1   AR   Ar   52   5.683   4.870  -1.286
    1   AR   Ar   53   5.383   6.092   2.689
    1   AR   Ar   54   0.128   6.507   2.603
    1   AR   Ar   55   6.344   5.528   2.758
    1   AR   Ar   56   0.047   0.441   1.219
    1   AR   Ar   57   5.708   3.586   3.349
    1   AR   Ar   58   6.864   4.282   4.241
    1   AR   Ar   59   1.823   5.351   6.269
    1   AR   Ar   60   0.924   6.392   3.666
    1   AR   Ar   61   6.388   5.014   6.037
    1   AR   Ar   62   0.870   5.158   5.022
    1   AR   Ar   63   2.235   0.567   6.491
    1   AR   Ar   64   1.093   6.400   4.758
    1   AR   Ar   65   3.613   0.140   0.826
    1   AR   Ar   66   0.883   1.388   1.634
    1   AR   Ar   67   2.897   6.181  -1.865
    1   AR   Ar   68   2.770   1.864  -0.699
    1   AR   Ar   69   2.883   1.161   1.009
    1   AR   Ar   70   0.773   6.942   1.741
    1   AR   Ar   71   2.566   1.338   4.030
    1   AR   Ar   72   3.364   0.176   2.047
    1   AR   Ar   73   3.303   0.481   3.849
    1   AR   Ar   74   1.996   0.311   3.674
    1   AR   Ar   75   3.817   1.130   4.431
    1   AR   Ar   76   1.690   0.694   1.947
    1   AR   Ar   77   2.323   6.364   6.178
    1   AR   Ar   78   0.980   0.330   6.496
    1   AR   Ar   79   3.823   6.175   5.997
    1   AR   Ar   80   3.539   5.093   5.651
    1   AR   Ar   81   2.702   6.940   0.129
    1   AR   Ar   82   6.790   5.713  -0.866
    1   AR   Ar   83   0.694   2.431   0.369
    1   AR   Ar   84   7.109   3.893  -0.201
    1   AR   Ar   85   0.985   3.374   0.748
    1   AR   Ar   86   2.245   4.250  -0.703
    1   AR   Ar   87   1.886   1.579   1.422
    1   AR   Ar   88   2.338   4.822   1.549
    1   AR   Ar   89   0.240   2.882   2.047
    1   AR   Ar   90   2.199   2.486   4.754
    1   AR   Ar   91   0.994   2.281   3.765
    1   AR   Ar   92   1.453   2.254   2.477
    1   AR   Ar   93   2.011   0.149   5.430
    1   AR   Ar   94   0.987   6.853  10.432
    1   AR   Ar   95   4.034   1.060   5.720
    1   AR   Ar   96   2.724   0.194   4.757
    1   AR   Ar   97   4.966   1.791  -0.806
    1   AR   Ar   98   2.254   5.274   2.542
    1   AR   Ar   99   6.102   2.245  -1.942
    1   AR   Ar  100   2.364   3.241  -0.350
    1   AR   Ar  101   3.135   4.345   0.960
    1   AR   Ar  102   3.142   2.701   3.917
    1   AR   Ar  103   1.161   4.619   0.960
    1   AR   Ar  104   2.849   2.839  -1.256
    1   AR   Ar  105   1.427   3.218   4.418
    1   AR   Ar  106   3.381   3.569   5.163
    1   AR   Ar  107   0.845   4.155   4.784
    1   AR   Ar  108   3.330   2.507   5.069
    1   AR   Ar  109   2.005   4.743   4.222
    1   AR   Ar  110   1.339   4.386   6.446
    1   AR   Ar  111   4.837   4.199   7.797
    1   AR   Ar  112   1.551   5.861   7.181
    1   AR   Ar  113   2.504   4.746   0.191
    1   AR   Ar  114   2.229   6.699  -0.800
    1   AR   Ar  115   2.889   5.544  -0.605
    1   AR   Ar  116   6.468   6.817  -1.294
    1   AR   Ar  117   1.064   5.291   4.015
    1   AR   Ar  118   1.338   5.820   2.713
    1   AR   Ar  119   2.299   3.159   2.619
    1   AR   Ar  120   1.575   6.837   2.398
    1   AR   Ar  121   6.224   4.570   5.066
    1   AR   Ar  122   2.711   6.267   4.936
    1   AR   Ar  123   3.494   4.556   4.703
    1   AR   Ar  124   2.047   5.833   1.696
    1   AR   Ar  125   0.117   4.279   5.661
    1   AR   Ar  126   7.056   7.021   4.464
    1   AR   Ar  127   3.268   3.922   6.097
    1   AR   Ar  128   3.047   5.496   6.688
    1   AR   Ar  129   2.558   6.378   2.953
    1   AR   Ar  130   5.031   2.770  -1.555
    1   AR   Ar  131   4.493   1.133   0.013
    1   AR   Ar  132   0.280   1.376  -0.401
    1   AR   Ar  133   4.478   6.741   3.061
    1   AR   Ar  134   4.856   1.544   3.797
    1   AR   Ar  135   5.264   0.494   3.138
    1   AR   Ar  136   4.949   7.047   2.146
    1   AR   Ar  137   2.669   5.325   3.796
    1   AR   Ar  138   4.821   1.996   4.936
    1   AR   Ar  139   5.504   2.428   5.678
    1   AR   Ar  140   3.927   0.094   4.815
    1   AR   Ar  141   3.404   5.895   4.339
    1   AR   Ar  142   3.099   6.946   5.766
    1   AR   Ar  143   0.111   0.072   5.598
    1   AR   Ar  144   5.807   1.492   5.657
    1   AR   Ar  145   4.281   3.466   0.020
    1   AR   Ar  146   3.809   2.346   2.223
    1   AR   Ar  147   5.093   1.544  -1.855
    1   AR   Ar  148   2.723   4.650  -1.475
    1   AR   Ar  149   3.284   2.068   1.078
    1   AR   Ar  150   1.955   1.460   2.784
    1   AR   Ar  151   2.366   2.174   3.549
    1   AR   Ar  152   3.219   3.488  -0.044
    1   AR   Ar  153   4.416   0.537   3.771
    1   AR   Ar  154   4.143   2.426   4.200
    1   AR   Ar  155   6.335   0.025   7.082
    1   AR   Ar  156   4.007   3.474   3.961
    1   AR   Ar  157   2.342   3.401   6.616
    1   AR   Ar  158   1.198   2.888   6.897
    1   AR   Ar  159   4.385   2.101   5.973
    1   AR   Ar  160   2.995   1.520   5.362
    1   AR   Ar  161   5.209   2.944   1.706
    1   AR   Ar  162   4.661   6.252  -0.056
    1   AR   Ar  163   4.995   2.657   0.666
    1   AR   Ar  164   3.412   5.450   1.509
    1   AR   Ar  165   3.685   3.170   0.827
    1   AR   Ar  166   2.339   3.703   4.721
    1   AR   Ar  167   4.183   0.953   1.992
    1   AR   Ar  168   5.296   2.785  -0.522
    1   AR   Ar  169   3.243   3.329   2.096
    1   AR   Ar  170   2.243   4.477   5.706
    1   AR   Ar  171   5.811   4.316   4.186
    1   AR   Ar  172   4.537   4.995   4.685
    1   AR   Ar  173   2.629   3.100   7.568
    1   AR   Ar  174   2.023   4.870   7.108
    1   AR   Ar  175   2.614   2.834   5.715
    1   AR   Ar  176   3.642   2.969   6.129
    1   AR   Ar  177   6.172   4.881  -0.059
    1   AR   Ar  178   3.816   4.859  -0.145
    1   AR   Ar  179   4.205   5.089   1.037
    1   AR   Ar  180   0.473   1.660  -2.683
    1   AR   Ar  181   0.717   5.833   1.616
    1   AR   Ar  182   2.448   0.592   2.770
    1   AR   Ar  183   3.406   5.256   2.749
    1   AR   Ar  184   4.222   6.390   1.302
    1   AR   Ar  185   2.517   5.210   5.044
    1   AR   Ar  186   3.675   4.955   3.727
    1   AR   Ar  187   3.382   6.629   3.481
    1   AR   Ar  188   3.034   6.258   1.875
    1   AR   Ar  189   3.769   2.580   7.305
    1   AR   Ar  190   4.404   6.473   4.053
    1   AR   Ar  191   3.555   5.499   7.911
    1   AR   Ar  192   4.250   6.076   5.064
    1   AR   Ar  193   2.174   5.647   0.319
    1   AR   Ar  194   4.324   3.662  -1.090
    1   AR   Ar  195   5.578   0.937  -0.312
    1   AR   Ar  196   4.762   0.127   0.100
    1   AR   Ar  197   4.008   1.064   0.906
    1   AR   Ar  198   6.368   1.104   0.911
    1   AR   Ar  199   3.766   1.503   2.782
    1   AR   Ar  200   5.247   1.858   0.131
    1   AR   Ar  201   5.351   6.717   3.578
    1   AR   Ar  202   5.686   2.376   4.561
    1   AR   Ar  203   6.397   6.664   3.805
    1   AR   Ar  204   5.134   6.979   4.861
    1   AR   Ar  205   6.296   7.065   2.539
    1   AR   Ar  206   5.003   0.923   4.770
    1   AR   Ar  207   0.640   1.403   6.572
    1   AR   Ar  208   7.065   0.223   3.328
    1   AR   Ar  209   6.714   3.100  -2.775
    1   AR   Ar  210   3.405   1.006  -0.054
    1   AR   Ar  211   6.599   2.932   0.428
    1   AR   Ar  212   5.761   3.426  -1.493
    1   AR   Ar  213   3.102   1.327   2.019
    1   AR   Ar  214   4.574   3.190   2.951
    1   AR   Ar  215   6.010   2.079   1.068
    1   AR   Ar  216   0.924   3.887   1.763
    1   AR   Ar  217   5.045   3.566   4.112
    1   AR   Ar  218   4.398   2.980   5.154
    1   AR   Ar  219   5.043   2.591   3.599
    1   AR   Ar  220   4.262   3.619   1.977
    1   AR   Ar  221   6.197   6.498   5.208
    1   AR   Ar  222   4.063   1.193   6.842
    1   AR   Ar  223   0.341   0.918   7.685
    1   AR   Ar  224   4.939   3.208   6.069
    1   AR   Ar  225   6.269   3.228   2.288
    1   AR   Ar  226   3.148   4.169   2.919
    1   AR   Ar  227   6.976   3.808   1.370
    1   AR   Ar  228   5.656   6.530   1.675
    1   AR   Ar  229   5.337   4.112  -0.572
    1   AR   Ar  230   4.754   4.387   3.686
    1   AR   Ar  231   6.011   1.141   2.759
    1   AR   Ar  232   4.167   2.034   0.494
    1   AR   Ar  233   6.323   2.191   3.168
    1   AR   Ar  234   6.264   3.341   4.248
    1   AR   Ar  235   6.688   2.033   4.660
    1   AR   Ar  236   5.501   5.348   5.450
    1   AR   Ar  237   5.543   3.675   5.050
    1   AR   Ar  238   4.691   4.412   5.975
    1   AR   Ar  239   5.920   3.909   8.614
    1   AR   Ar  240   7.000   3.020   6.564
    1   AR   Ar  241   1.087   6.625  -0.628
    1   AR   Ar  242   5.152   4.608   0.465
    1   AR   Ar  243   5.494   4.362   2.535
    1   AR   Ar  244   0.784   5.366  -0.722
    1   AR   Ar  245   4.611   0.237   1.140
    1   AR   Ar  246   5.671   5.650   0.584
    1   AR   Ar  247   5.097   4.246   1.503
    1   AR   Ar  248   5.496   5.542  -0.420
    1   AR   Ar  249   4.169   5.823   2.334
    1   AR   Ar  250   5.254   5.931   4.349
    1   AR   Ar  251   5.839   5.161   3.544
    1   AR   Ar  252   4.456   5.491   3.261
    1   AR   Ar  253   6.154   4.025   5.859
    1   AR   Ar  254   1.949   4.371   9.068
    1   AR   Ar  255   4.627   3.166   7.752
    1   AR   Ar  256   6.898   5.745   3.651
    7.12000  7.12000 12.00000
Argon-slab step 2985
  256
    1   AR   Ar    1   6.956   1.306  -1.445
    1   AR   Ar    2   6.430   7.033   0.655
    1   AR   Ar    3   1.924   1.141   0.386
    1   AR   Ar    4   1.078   0.547  -0.513
    1   AR   Ar    5   0.245   6.414   0.889
    1   AR   Ar    6   0.132   0.882   2.240
    1   AR   Ar    7   6.490   4.384   3.305
    1   AR   Ar    8   5.851   0.370   1.633
    1   AR   Ar    9   0.912   0.177   3.040
    1   AR   Ar   10   0.544   0.539   4.039
    1   AR   Ar   11   2.020   6.125   4.008
    1   AR   Ar   12   0.851   1.284   2.839
    1   AR   Ar   13   6.789   0.964   4.887
    1   AR   Ar   14   0.365   2.077   7.388
    1   AR   Ar   15   5.196   1.117  10.564
    1   AR   Ar   16   0.941   0.564   5.158
    1   AR   Ar   17   6.347   1.946  -0.033
    1   AR   Ar   18   6.605   2.835  -0.710
    1   AR   Ar   19   1.888   2.769   1.355
    1   AR   Ar   20   4.990   4.212  -1.828
    1   AR   Ar   21   4.837   1.737   1.464
    1   AR   Ar   22   6.527   1.759   2.100
    1   AR   Ar   23   6.605   0.422  -0.585
    1   AR   Ar   24   7.118   1.945   1.327
    1   AR   Ar   25   6.968   1.364   3.444
    1   AR   Ar   26   5.883   0.356   4.110
    1   AR   Ar   27   1.402   1.329   3.755
    1   AR   Ar   28   1.197   2.296   4.884
    1   AR   Ar   29   5.116   2.446   6.939
    1   AR   Ar   30   1.914   1.525   4.942
    1   AR   Ar   31   2.200   0.284   7.714
    1   AR   Ar   32   1.687   3.421   5.729
    1   AR   Ar   33   0.968   4.105  -0.675
    1   AR   Ar   34   0.087   5.069   2.989
    1   AR   Ar   35   6.469   5.000   1.026
    1   AR   Ar   36   6.907   0.341  -3.894
    1   AR   Ar   37   5.391   2.389   2.524
    1   AR   Ar   38   0.057   4.003   2.465
    1   AR   Ar   39   1.127   3.359   3.368
    1   AR   Ar   40   2.116   3.769   0.886
    1   AR   Ar   41   0.310   3.380   4.069
    1   AR   Ar   42   6.291   5.527   4.533
    1   AR   Ar   43   0.009   2.099   6.036
    1   AR   Ar   44   0.581   4.392   3.618
    1   AR   Ar   45   0.286   3.054   5.617
    1   AR   Ar   46   0.975   5.728   5.911
    1   AR   Ar   47   5.873   3.395   7.122
    1   AR   Ar   48   0.164   5.917   6.856
    1   AR   Ar   49   5.724   0.782  -1.332
    1   AR   Ar   50   5.206   5.302   1.461
    1   AR   Ar   51   0.134   4.918   1.795
    1   AR   Ar   52   5.691   4.863  -1.318
    1   AR   Ar   53   5.383   6.052   2.700
    1   AR   Ar   54   0.124   6.510   2.597
    1   AR   Ar   55   6.351   5.538   2.754
    1   AR   Ar   56   0.006   0.430   1.213
    1   AR   Ar   57   5.720   3.604   3.349
    1   AR   Ar   58   6.847   4.251   4.249
    1   AR   Ar   59   1.840   5.347   6.271
    1   AR   Ar   60   0.897   6.385   3.651
    1   AR   Ar   61   6.398   5.001   6.056
    1   AR   Ar   62   0.884   5.154   5.035
    1   AR   Ar   63   2.244   0.545   6.464
    1   AR   Ar   64   1.056   6.385   4.734
    1   AR   Ar   65   3.609   0.168   0.814
    1   AR   Ar   66   0.883   1.414   1.636
    1   AR   Ar   67   2.916   6.210  -1.868
    1   AR   Ar   68   2.757   1.841  -0.710
    1   AR   Ar   69   2.841   1.124   0.987
    1   AR   Ar   70   0.780   6.942   1.725
    1   AR   Ar   71   2.562   1.330   4.045
    1   AR   Ar   72   3.371   0.151   2.069
    1   AR   Ar   73   3.298   0.471   3.825
    1   AR   Ar   74   1.993   0.320   3.673
    1   AR   Ar   75   3.825   1.116   4.423
    1   AR   Ar   76   1.675   0.683   1.922
    1   AR   Ar   77   2.351   6.374   6.176
    1   AR   Ar   78   1.037   0.320   6.505
    1   AR   Ar   79   3.822   6.167   5.991
    1   AR   Ar   80   3.552   5.108   5.635
    1   AR   Ar   81   2.716   6.921   0.114
    1   AR   Ar   82   6.778   5.720  -0.839
    1   AR   Ar   83   0.673   2.441   0.387
    1   AR   Ar   84   7.078   3.897  -0.177
    1   AR   Ar   85   0.996   3.397   0.731
    1   AR   Ar   86   2.222   4.254  -0.675
    1   AR   Ar   87   1.848   1.579   1.417
    1   AR   Ar   88   2.328   4.853   1.535
    1   AR   Ar   89   0.233   2.896   2.084
    1   AR   Ar   90   2.176   2.484   4.789
    1   AR   Ar   91   0.990   2.284   3.759
    1   AR   Ar   92   1.462   2.238   2.463
    1   AR   Ar   93   2.011   0.182   5.447
    1   AR   Ar   94   0.969   6.842  10.446
    1   AR   Ar   95   4.065   1.046   5.706
    1   AR   Ar   96   2.745   0.215   4.750
    1   AR   Ar   97   4.979   1.808  -0.826
    1   AR   Ar   98   2.232   5.274   2.550
    1   AR   Ar   99   6.072   2.223  -1.951
    1   AR   Ar  100   2.358   3.262  -0.383
    1   AR   Ar  101   3.125   4.330   0.965
    1   AR   Ar  102   3.133   2.693   3.894
    1   AR   Ar  103   1.152   4.599   0.973
    1   AR   Ar  104   2.831   2.839  -1.233
    1   AR   Ar  105   1.450   3.200   4.402
    1   AR   Ar  106   3.374   3.543   5.169
    1   AR   Ar  107   0.825   4.178   4.748
    1   AR   Ar  108   3.300   2.510   5.037
    1   AR   Ar  109   2.003   4.751   4.258
    1   AR   Ar  110   1.354   4.365   6.400
    1   AR   Ar  111   4.832   4.207   7.782
    1   AR   Ar  112   1.530   5.854   7.183
    1   AR   Ar  113   2.538   4.732   0.176
    1   AR   Ar  114   2.213   6.686  -0.832
    1   AR   Ar  115   2.861   5.563  -0.636
    1   AR   Ar  116   6.459   6.798  -1.269
    1   AR   Ar  117   1.075   5.279   3.990
    1   AR   Ar  118   1.332   5.840   2.722
    1   AR   Ar  119   2.298   3.117   2.613
    1   AR   Ar  120   1.596   6.833   2.405
    1   AR   Ar  121   6.210   4.605   5.078
    1   AR   Ar  122   2.702   6.284   4.941
    1   AR   Ar  123   3.479   4.573   4.686
    1   AR   Ar  124   2.038   5.849   1.699
    1   AR   Ar  125   0.092   4.290   5.629
    1   AR   Ar  126   7.056   7.016   4.489
    1   AR   Ar  127   3.252   3.919   6.121
    1   AR   Ar  128   3.029   5.481   6.713
    1   AR   Ar  129   2.593   6.397   2.964
    1   AR   Ar  130   5.023   2.765  -1.539
    1   AR   Ar  131   4.500   1.152  -0.027
    1   AR   Ar  132   0.289   1.395  -0.415
    1   AR   Ar  133   4.492   6.731   3.059
    1   AR   Ar  134   4.851   1.549   3.791
    1   AR   Ar  135   5.282   0.462   3.121
    1   AR   Ar  136   4.925   7.066   2.120
    1   AR   Ar  137   2.674   5.322   3.796
    1   AR   Ar  138   4.801   1.969   4.950
    1   AR   Ar  139   5.505   2.401   5.679
    1   AR   Ar  140   3.930   0.077   4.819
    1   AR   Ar  141   3.427   5.844   4.372
    1   AR   Ar  142   3.110   6.974   5.779
    1   AR   Ar  143   0.096   0.073   5.570
    1   AR   Ar  144   5.812   1.503   5.648
    1   AR   Ar  145   4.234   3.471   0.021
    1   AR   Ar  146   3.812   2.363   2.199
    1   AR   Ar  147   5.109   1.524  -1.814
    1   AR   Ar  148   2.740   4.651  -1.455
    1   AR   Ar  149   3.254   2.068   1.089
    1   AR   Ar  150   1.939   1.456   2.775
    1   AR   Ar  151   2.331   2.189   3.522
    1   AR   Ar  152   3.226   3.512  -0.070
    1   AR   Ar  153   4.457   0.513   3.739
    1   AR   Ar  154   4.163   2.432   4.233
    1   AR   Ar  155   6.358   0.028   7.074
    1   AR   Ar  156   4.033   3.445   3.964
    1   AR   Ar  157   2.332   3.422   6.647
    1   AR   Ar  158   1.218   2.876   6.884
    1   AR   Ar  159   4.422   2.113   6.040
    1   AR   Ar  160   3.005   1.534   5.328
    1   AR   Ar  161   5.235   2.956   1.712
    1   AR   Ar  162   4.684   6.265  -0.046
    1   AR   Ar  163   4.989   2.614   0.638
    1   AR   Ar  164   3.393   5.462   1.506
    1   AR   Ar  165   3.686   3.198   0.858
    1   AR   Ar  166   2.302   3.710   4.727
    1   AR   Ar  167   4.190   0.947   1.999
    1   AR   Ar  168   5.293   2.819  -0.495
    1   AR   Ar  169   3.257   3.341   2.077
    1   AR   Ar  170   2.247   4.457   5.731
    1   AR   Ar  171   5.830   4.306   4.175
    1   AR   Ar  172   4.507   4.992   4.684
    1   AR   Ar  173   2.615   3.097   7.582
    1   AR   Ar  174   2.018   4.872   7.131
    1   AR   Ar  175   2.608   2.846   5.710
    1   AR   Ar  176   3.628   2.973   6.066
    1   AR   Ar  177   6.172   4.891  -0.064
    1   AR   Ar  178   3.836   4.848  -0.153
    1   AR   Ar  179   4.241   5.094   1.019
    1   AR   Ar  180   0.453   1.646  -2.654
    1   AR   Ar  181   0.709   5.837   1.622
    1   AR   Ar  182   2.485   0.592   2.754
    1   AR   Ar  183   3.405   5.264   2.764
    1   AR   Ar  184   4.261   6.407   1.301
    1   AR   Ar  185   2.554   5.186   5.019
    1   AR   Ar  186   3.684   4.971   3.703
    1   AR   Ar  187   3.365   6.609   3.471
    1   AR   Ar  188   3.044   6.261   1.873
    1   AR   Ar  189   3.776   2.559   7.293
    1   AR   Ar  190   4.386   6.467   4.059
    1   AR   Ar  191   3.555   5.508   7.896
    1   AR   Ar  192   4.254   6.109   5.056
    1   AR   Ar  193   2.201   5.664   0.338
    1   AR   Ar  194   4.353   3.632  -1.095
    1   AR   Ar  195   5.546   0.923  -0.299
    1   AR   Ar  196   4.792   0.146   0.123
    1   AR   Ar  197   4.015   1.048   0.918
    1   AR   Ar  198   6.346   1.094   0.923
    1   AR   Ar  199   3.756   1.488   2.780
    1   AR   Ar  200   5.201   1.856   0.111
    1   AR   Ar  201   5.403   6.718   3.567
    1   AR   Ar  202   5.742   2.415   4.552
    1   AR   Ar  203   6.406   6.673   3.791
    1   AR   Ar  204   5.123   6.962   4.845
    1   AR   Ar  205   6.297   7.050   2.511
    1   AR   Ar  206   4.999   0.922   4.773
    1   AR   Ar  207   0.656   1.434   6.606
    1   AR   Ar  208   7.047   0.222   3.300
    1   AR   Ar  209   6.748   3.124  -2.751
    1   AR   Ar  210   3.393   0.985  -0.072
    1   AR   Ar  211   6.596   2.941   0.431
    1   AR   Ar  212   5.749   3.436  -1.481
    1   AR   Ar  213   3.089   1.325   2.002
    1   AR   Ar  214   4.567   3.206   2.954
    1   AR   Ar  215   5.995   2.094   1.095
    1   AR   Ar  216   0.932   3.859   1.769
    1   AR   Ar  217   5.073   3.543   4.146
    1   AR   Ar  218   4.401   3.001   5.174
    1   AR   Ar  219   5.039   2.599   3.619
    1   AR   Ar  220   4.282   3.615   1.945
    1   AR   Ar  221   6.206   6.518   5.191
    1   AR   Ar  222   4.056   1.160   6.856
    1   AR   Ar  223   0.354   0.923   7.677
    1   AR   Ar  224   4.916   3.206   6.087
    1   AR   Ar  225   6.271   3.230   2.272
    1   AR   Ar  226   3.128   4.204   2.918
    1   AR   Ar  227   6.989   3.771   1.378
    1   AR   Ar  228   5.656   6.506   1.703
    1   AR   Ar  229   5.356   4.101  -0.591
    1   AR   Ar  230   4.780   4.385   3.717
    1   AR   Ar  231   6.024   1.173   2.777
    1   AR   Ar  232   4.111   2.045   0.496
    1   AR   Ar  233   6.350   2.159   3.168
    1   AR   Ar  234   6.267   3.347   4.260
    1   AR   Ar  235   6.654   2.024   4.671
    1   AR   Ar  236   5.489   5.353   5.473
    1   AR   Ar  237   5.522   3.698   5.070
    1   AR   Ar  238   4.705   4.414   5.949
    1   AR   Ar  239   5.904   3.915   8.606
    1   AR   Ar  240   6.985   3.033   6.562
    1   AR   Ar  241   1.088   6.613  -0.633
    1   AR   Ar  242   5.144   4.598   0.442
    1   AR   Ar  243   5.519   4.337   2.509
    1   AR   Ar  244   0.798   5.355  -0.709
    1   AR   Ar  245   4.605   0.236   1.154
    1   AR   Ar  246   5.659   5.648   0.586
    1   AR   Ar  247   5.075   4.262   1.498
    1   AR   Ar  248   5.531   5.550  -0.439
    1   AR   Ar  249   4.178   5.837   2.338
    1   AR   Ar  250   5.236   5.929   4.358
    1   AR   Ar  251   5.844   5.136   3.530
    1   AR   Ar  252   4.467   5.555   3.245
    1   AR   Ar  253   6.171   4.016   5.855
    1   AR   Ar  254   1.949   4.328   9.085
    1   AR   Ar  255   4.586   3.170   7.796
    1   AR   Ar  256   6.886   5.742   3.667
    7.12000  7.12000 12.00000
Argon-slab step 2990
  256
    1   AR   Ar    1   6.954   1.306  -1.487
    1   AR   Ar    2   6.388   7.024   0.635
    1   AR   Ar    3   1.932   1.155   0.381
    1   AR   Ar    4   1.049   0.531  -0.501
    1   AR   Ar    5   0.242   6.456   0.913
    1   AR   Ar    6   0.116   0.866   2.262
    1   AR   Ar    7   6.468   4.375   3.308
    1   AR   Ar    8   5.840   0.369   1.635
    1   AR   Ar    9   0.924   0.152   3.037
    1   AR   Ar   10   0.556   0.544   4.039
    1   AR   Ar   11   2.012   6.126   3.997
    1   AR   Ar   12   0.854   1.315   2.822
    1   AR   Ar   13   6.817   0.978   4.901
    1   AR   Ar   14   0.334   2.074   7.386
    1   AR   Ar   15   5.165   1.115  10.564
    1   AR   Ar   16   0.931   0.553   5.156
    1   AR   Ar   17   6.337   1.968  -0.014
    1   AR   Ar   18   6.623   2.814  -0.733
    1   AR   Ar   19   1.888   2.775   1.352
    1   AR   Ar   20   5.000   4.208  -1.795
    1   AR   Ar   21   4.855   1.751   1.441
    1   AR   Ar   22   6.523   1.776   2.095
    1   AR   Ar   23   6.616   0.416  -0.561
    1   AR   Ar   24   7.106   1.912   1.344
    1   AR   Ar   25   6.989   1.385   3.427
    1   AR   Ar   26   5.894   0.327   4.143
    1   AR   Ar   27   1.392   1.315   3.749
    1   AR   Ar   28   1.234   2.262   4.883
    1   AR   Ar   29   5.098   2.448   6.948
    1   AR   Ar   30   1.895   1.525   4.934
    1   AR   Ar   31   2.228   0.295   7.734
    1   AR   Ar   32   1.705   3.418   5.740
    1   AR   Ar   33   0.964   4.122  -0.687
    1   AR   Ar   34   0.095   5.074   2.960
    1   AR   Ar   35   6.471   5.021   1.024
    1   AR   Ar   36   6.900   0.349  -3.904
    1   AR   Ar   37   5.370   2.377   2.493
    1   AR   Ar   38   0.078   3.978   2.463
    1   AR   Ar   39   1.103   3.361   3.375
    1   AR   Ar   40   2.111   3.776   0.906
    1   AR   Ar   41   0.287   3.377   4.052
    1   AR   Ar   42   6.306   5.537   4.545
    1   AR   Ar   43   0.004   2.125   6.029
    1   AR   Ar   44   0.579   4.401   3.600
    1   AR   Ar   45   0.298   3.083   5.620
    1   AR   Ar   46   0.970   5.681   5.903
    1   AR   Ar   47   5.878   3.414   7.110
    1   AR   Ar   48   0.153   5.873   6.851
    1   AR   Ar   49   5.693   0.797  -1.283
    1   AR   Ar   50   5.206   5.288   1.428
    1   AR   Ar   51   0.118   4.930   1.763
    1   AR   Ar   52   5.700   4.857  -1.349
    1   AR   Ar   53   5.380   6.011   2.709
    1   AR   Ar   54   0.123   6.511   2.592
    1   AR   Ar   55   6.355   5.554   2.740
    1   AR   Ar   56   7.091   0.420   1.211
    1   AR   Ar   57   5.732   3.621   3.343
    1   AR   Ar   58   6.838   4.222   4.266
    1   AR   Ar   59   1.864   5.346   6.266
    1   AR   Ar   60   0.870   6.378   3.636
    1   AR   Ar   61   6.409   4.993   6.076
    1   AR   Ar   62   0.898   5.154   5.049
    1   AR   Ar   63   2.204   0.511   6.462
    1   AR   Ar   64   1.019   6.370   4.712
    1   AR   Ar   65   3.595   0.184   0.800
    1   AR   Ar   66   0.875   1.438   1.642
    1   AR   Ar   67   2.936   6.239  -1.870
    1   AR   Ar   68   2.766   1.805  -0.710
    1   AR   Ar   69   2.808   1.089   0.966
    1   AR   Ar   70   0.786   6.942   1.710
    1   AR   Ar   71   2.561   1.317   4.062
    1   AR   Ar   72   3.378   0.129   2.091
    1   AR   Ar   73   3.291   0.461   3.799
    1   AR   Ar   74   1.990   0.328   3.673
    1   AR   Ar   75   3.835   1.107   4.421
    1   AR   Ar   76   1.658   0.670   1.900
    1   AR   Ar   77   2.376   6.381   6.175
    1   AR   Ar   78   1.094   0.310   6.513
    1   AR   Ar   79   3.817   6.158   5.990
    1   AR   Ar   80   3.565   5.123   5.620
    1   AR   Ar   81   2.731   6.902   0.099
    1   AR   Ar   82   6.791   5.726  -0.839
    1   AR   Ar   83   0.650   2.449   0.405
    1   AR   Ar   84   7.047   3.900  -0.151
    1   AR   Ar   85   1.008   3.422   0.716
    1   AR   Ar   86   2.194   4.256  -0.647
    1   AR   Ar   87   1.820   1.584   1.410
    1   AR   Ar   88   2.318   4.882   1.519
    1   AR   Ar   89   0.226   2.910   2.120
    1   AR   Ar   90   2.167   2.491   4.819
    1   AR   Ar   91   0.986   2.292   3.753
    1   AR   Ar   92   1.462   2.234   2.443
    1   AR   Ar   93   2.009   0.220   5.474
    1   AR   Ar   94   0.952   6.832  10.460
    1   AR   Ar   95   4.065   1.067   5.711
    1   AR   Ar   96   2.772   0.239   4.737
    1   AR   Ar   97   4.989   1.825  -0.858
    1   AR   Ar   98   2.213   5.272   2.562
    1   AR   Ar   99   6.046   2.207  -1.950
    1   AR   Ar  100   2.332   3.276  -0.418
    1   AR   Ar  101   3.118   4.313   0.971
    1   AR   Ar  102   3.129   2.688   3.874
    1   AR   Ar  103   1.143   4.578   0.986
    1   AR   Ar  104   2.814   2.839  -1.213
    1   AR   Ar  105   1.468   3.183   4.384
    1   AR   Ar  106   3.368   3.520   5.170
    1   AR   Ar  107   0.806   4.194   4.710
    1   AR   Ar  108   3.307   2.527   5.035
    1   AR   Ar  109   1.992   4.751   4.296
    1   AR   Ar  110   1.344   4.351   6.362
    1   AR   Ar  111   4.829   4.217   7.767
    1   AR   Ar  112   1.509   5.849   7.184
    1   AR   Ar  113   2.576   4.713   0.162
    1   AR   Ar  114   2.190   6.669  -0.869
    1   AR   Ar  115   2.832   5.581  -0.667
    1   AR   Ar  116   6.449   6.775  -1.248
    1   AR   Ar  117   1.092   5.265   3.954
    1   AR   Ar  118   1.324   5.860   2.732
    1   AR   Ar  119   2.296   3.074   2.606
    1   AR   Ar  120   1.593   6.831   2.393
    1   AR   Ar  121   6.199   4.647   5.083
    1   AR   Ar  122   2.689   6.304   4.950
    1   AR   Ar  123   3.462   4.589   4.668
    1   AR   Ar  124   2.026   5.870   1.700
    1   AR   Ar  125   0.069   4.302   5.595
    1   AR   Ar  126   7.054   7.006   4.523
    1   AR   Ar  127   3.232   3.924   6.149
    1   AR   Ar  128   3.010   5.467   6.737
    1   AR   Ar  129   2.609   6.411   2.963
    1   AR   Ar  130   5.007   2.750  -1.523
    1   AR   Ar  131   4.500   1.167  -0.070
    1   AR   Ar  132   0.298   1.413  -0.429
    1   AR   Ar  133   4.503   6.721   3.051
    1   AR   Ar  134   4.846   1.552   3.788
    1   AR   Ar  135   5.302   0.441   3.096
    1   AR   Ar  136   4.896   7.088   2.100
    1   AR   Ar  137   2.686   5.324   3.789
    1   AR   Ar  138   4.779   1.942   4.964
    1   AR   Ar  139   5.499   2.396   5.679
    1   AR   Ar  140   3.932   0.059   4.822
    1   AR   Ar  141   3.456   5.790   4.403
    1   AR   Ar  142   3.122   7.006   5.789
    1   AR   Ar  143   0.069   0.073   5.541
    1   AR   Ar  144   5.821   1.499   5.643
    1   AR   Ar  145   4.200   3.477   0.019
    1   AR   Ar  146   3.807   2.383   2.197
    1   AR   Ar  147   5.126   1.505  -1.778
    1   AR   Ar  148   2.761   4.655  -1.440
    1   AR   Ar  149   3.223   2.072   1.104
    1   AR   Ar  150   1.928   1.443   2.770
    1   AR   Ar  151   2.287   2.205   3.490
    1   AR   Ar  152   3.242   3.543  -0.090
    1   AR   Ar  153   4.494   0.487   3.710
    1   AR   Ar  154   4.181   2.435   4.267
    1   AR   Ar  155   6.381   0.030   7.065
    1   AR   Ar  156   4.055   3.418   3.966
    1   AR   Ar  157   2.321   3.447   6.672
    1   AR   Ar  158   1.238   2.865   6.868
    1   AR   Ar  159   4.459   2.126   6.106
    1   AR   Ar  160   3.014   1.546   5.292
    1   AR   Ar  161   5.260   2.974   1.710
    1   AR   Ar  162   4.710   6.253  -0.056
    1   AR   Ar  163   4.980   2.592   0.625
    1   AR   Ar  164   3.379   5.456   1.498
    1   AR   Ar  165   3.686   3.223   0.895
    1   AR   Ar  166   2.268   3.718   4.736
    1   AR   Ar  167   4.198   0.937   2.004
    1   AR   Ar  168   5.290   2.854  -0.466
    1   AR   Ar  169   3.269   3.353   2.057
    1   AR   Ar  170   2.251   4.432   5.757
    1   AR   Ar  171   5.840   4.299   4.163
    1   AR   Ar  172   4.478   4.991   4.682
    1   AR   Ar  173   2.610   3.129   7.587
    1   AR   Ar  174   1.997   4.860   7.147
    1   AR   Ar  175   2.599   2.861   5.709
    1   AR   Ar  176   3.619   2.971   6.004
    1   AR   Ar  177   6.177   4.892  -0.065
    1   AR   Ar  178   3.854   4.836  -0.160
    1   AR   Ar  179   4.280   5.097   0.998
    1   AR   Ar  180   0.440   1.635  -2.629
    1   AR   Ar  181   0.703   5.840   1.632
    1   AR   Ar  182   2.515   0.589   2.741
    1   AR   Ar  183   3.399   5.274   2.775
    1   AR   Ar  184   4.298   6.417   1.301
    1   AR   Ar  185   2.595   5.166   4.994
    1   AR   Ar  186   3.699   4.956   3.681
    1   AR   Ar  187   3.402   6.594   3.483
    1   AR   Ar  188   3.050   6.286   1.871
    1   AR   Ar  189   3.784   2.538   7.280
    1   AR   Ar  190   4.364   6.463   4.065
    1   AR   Ar  191   3.555   5.517   7.880
    1   AR   Ar  192   4.261   6.145   5.046
    1   AR   Ar  193   2.226   5.689   0.358
    1   AR   Ar  194   4.383   3.602  -1.098
    1   AR   Ar  195   5.516   0.909  -0.283
    1   AR   Ar  196   4.823   0.170   0.145
    1   AR   Ar  197   4.023   1.049   0.933
    1   AR   Ar  198   6.324   1.085   0.935
    1   AR   Ar  199   3.747   1.473   2.787
    1   AR   Ar  200   5.171   1.844   0.099
    1   AR   Ar  201   5.452   6.705   3.561
    1   AR   Ar  202   5.788   2.459   4.542
    1   AR   Ar  203   6.415   6.672   3.771
    1   AR   Ar  204   5.111   6.943   4.828
    1   AR   Ar  205   6.298   7.034   2.485
    1   AR   Ar  206   4.991   0.907   4.805
    1   AR   Ar  207   0.672   1.462   6.639
    1   AR   Ar  208   7.066   0.254   3.281
    1   AR   Ar  209   6.783   3.147  -2.727
    1   AR   Ar  210   3.381   0.964  -0.088
    1   AR   Ar  211   6.595   2.950   0.435
    1   AR   Ar  212   5.745   3.454  -1.466
    1   AR   Ar  213   3.074   1.321   1.983
    1   AR   Ar  214   4.558   3.227   2.954
    1   AR   Ar  215   5.978   2.111   1.121
    1   AR   Ar  216   0.936   3.833   1.762
    1   AR   Ar  217   5.102   3.508   4.186
    1   AR   Ar  218   4.407   3.034   5.199
    1   AR   Ar  219   5.012   2.586   3.603
    1   AR   Ar  220   4.304   3.611   1.911
    1   AR   Ar  221   6.215   6.537   5.172
    1   AR   Ar  222   4.049   1.128   6.870
    1   AR   Ar  223   0.367   0.929   7.668
    1   AR   Ar  224   4.892   3.205   6.108
    1   AR   Ar  225   6.273   3.232   2.256
    1   AR   Ar  226   3.108   4.237   2.917
    1   AR   Ar  227   7.001   3.733   1.385
    1   AR   Ar  228   5.666   6.507   1.716
    1   AR   Ar  229   5.375   4.089  -0.610
    1   AR   Ar  230   4.802   4.393   3.742
    1   AR   Ar  231   6.036   1.201   2.797
    1   AR   Ar  232   4.056   2.057   0.495
    1   AR   Ar  233   6.384   2.108   3.176
    1   AR   Ar  234   6.269   3.350   4.274
    1   AR   Ar  235   6.629   2.011   4.684
    1   AR   Ar  236   5.486   5.363   5.500
    1   AR   Ar  237   5.500   3.721   5.094
    1   AR   Ar  238   4.709   4.437   5.929
    1   AR   Ar  239   5.887   3.921   8.597
    1   AR   Ar  240   6.968   3.048   6.566
    1   AR   Ar  241   1.089   6.597  -0.639
    1   AR   Ar  242   5.137   4.589   0.418
    1   AR   Ar  243   5.545   4.312   2.484
    1   AR   Ar  244   0.831   5.279  -0.687
    1   AR   Ar  245   4.612   0.227   1.166
    1   AR   Ar  246   5.637   5.640   0.576
    1   AR   Ar  247   5.052   4.273   1.493
    1   AR   Ar  248   5.559   5.563  -0.466
    1   AR   Ar  249   4.186   5.853   2.330
    1   AR   Ar  250   5.234   5.912   4.361
    1   AR   Ar  251   5.841   5.116   3.521
    1   AR   Ar  252   4.473   5.604   3.246
    1   AR   Ar  253   6.187   3.992   5.864
    1   AR   Ar  254   1.948   4.286   9.101
    1   AR   Ar  255   4.546   3.171   7.839
    1   AR   Ar  256   6.875   5.743   3.687
    7.12000  7.12000 12.00000
Argon-slab step 2995
  256
    1   AR   Ar    1   6.950   1.306  -1.528
    1   AR   Ar    2   6.342   7.014   0.614
    1   AR   Ar    3   1.952   1.143   0.368
    1   AR   Ar    4   1.020   0.517  -0.488
    1   AR   Ar    5   0.236   6.501   0.934
    1   AR   Ar    6   0.096   0.846   2.282
    1   AR   Ar    7   6.455   4.360   3.302
    1   AR   Ar    8   5.846   0.391   1.632
    1   AR   Ar    9   0.940   0.130   3.035
    1   AR   Ar   10   0.576   0.555   4.042
    1   AR   Ar   11   2.002   6.129   3.986
    1   AR   Ar   12   0.858   1.347   2.806
    1   AR   Ar   13   6.846   0.989   4.914
    1   AR   Ar   14   0.301   2.076   7.387
    1   AR   Ar   15   5.133   1.114  10.565
    1   AR   Ar   16   0.923   0.543   5.152
    1   AR   Ar   17   6.326   1.987   0.006
    1   AR   Ar   18   6.639   2.793  -0.756
    1   AR   Ar   19   1.887   2.780   1.350
    1   AR   Ar   20   5.007   4.202  -1.763
    1   AR   Ar   21   4.872   1.766   1.416
    1   AR   Ar   22   6.525   1.762   2.100
    1   AR   Ar   23   6.589   0.419  -0.549
    1   AR   Ar   24   7.109   1.894   1.351
    1   AR   Ar   25   7.021   1.394   3.413
    1   AR   Ar   26   5.896   0.328   4.168
    1   AR   Ar   27   1.386   1.299   3.745
    1   AR   Ar   28   1.245   2.230   4.883
    1   AR   Ar   29   5.097   2.454   6.944
    1   AR   Ar   30   1.881   1.509   4.926
    1   AR   Ar   31   2.255   0.307   7.753
    1   AR   Ar   32   1.720   3.416   5.749
    1   AR   Ar   33   0.960   4.138  -0.698
    1   AR   Ar   34   0.128   5.075   2.913
    1   AR   Ar   35   6.471   5.042   1.021
    1   AR   Ar   36   6.894   0.358  -3.915
    1   AR   Ar   37   5.363   2.380   2.464
    1   AR   Ar   38   0.098   3.953   2.463
    1   AR   Ar   39   1.081   3.364   3.380
    1   AR   Ar   40   2.105   3.784   0.925
    1   AR   Ar   41   0.265   3.371   4.037
    1   AR   Ar   42   6.318   5.550   4.557
    1   AR   Ar   43   7.119   2.149   6.022
    1   AR   Ar   44   0.577   4.404   3.582
    1   AR   Ar   45   0.314   3.115   5.618
    1   AR   Ar   46   0.960   5.640   5.900
    1   AR   Ar   47   5.883   3.432   7.096
    1   AR   Ar   48   0.142   5.829   6.844
    1   AR   Ar   49   5.667   0.809  -1.237
    1   AR   Ar   50   5.208   5.279   1.403
    1   AR   Ar   51   0.127   4.937   1.762
    1   AR   Ar   52   5.712   4.853  -1.378
    1   AR   Ar   53   5.375   5.972   2.718
    1   AR   Ar   54   0.125   6.511   2.587
    1   AR   Ar   55   6.356   5.576   2.720
    1   AR   Ar   56   7.059   0.410   1.214
    1   AR   Ar   57   5.743   3.633   3.333
    1   AR   Ar   58   6.838   4.200   4.288
    1   AR   Ar   59   1.893   5.346   6.255
    1   AR   Ar   60   0.842   6.370   3.619
    1   AR   Ar   61   6.422   4.990   6.097
    1   AR   Ar   62   0.912   5.155   5.058
    1   AR   Ar   63   2.164   0.477   6.463
    1   AR   Ar   64   0.982   6.356   4.690
    1   AR   Ar   65   3.574   0.187   0.783
    1   AR   Ar   66   0.859   1.458   1.653
    1   AR   Ar   67   2.955   6.268  -1.870
    1   AR   Ar   68   2.775   1.768  -0.708
    1   AR   Ar   69   2.815   1.083   0.961
    1   AR   Ar   70   0.780   6.968   1.705
    1   AR   Ar   71   2.559   1.301   4.081
    1   AR   Ar   72   3.387   0.112   2.115
    1   AR   Ar   73   3.281   0.452   3.771
    1   AR   Ar   74   1.986   0.337   3.674
    1   AR   Ar   75   3.849   1.102   4.421
    1   AR   Ar   76   1.641   0.656   1.881
    1   AR   Ar   77   2.399   6.386   6.174
    1   AR   Ar   78   1.150   0.301   6.519
    1   AR   Ar   79   3.810   6.149   5.991
    1   AR   Ar   80   3.577   5.138   5.604
    1   AR   Ar   81   2.746   6.884   0.086
    1   AR   Ar   82   6.803   5.731  -0.838
    1   AR   Ar   83   0.624   2.455   0.424
    1   AR   Ar   84   7.016   3.903  -0.125
    1   AR   Ar   85   1.020   3.450   0.703
    1   AR   Ar   86   2.159   4.260  -0.624
    1   AR   Ar   87   1.806   1.596   1.400
    1   AR   Ar   88   2.311   4.907   1.501
    1   AR   Ar   89   0.219   2.924   2.155
    1   AR   Ar   90   2.178   2.508   4.844
    1   AR   Ar   91   0.981   2.302   3.747
    1   AR   Ar   92   1.455   2.242   2.418
    1   AR   Ar   93   2.004   0.256   5.500
    1   AR   Ar   94   0.934   6.821  10.474
    1   AR   Ar   95   4.057   1.098   5.719
    1   AR   Ar   96   2.787   0.242   4.777
    1   AR   Ar   97   4.994   1.845  -0.892
    1   AR   Ar   98   2.198   5.269   2.577
    1   AR   Ar   99   6.041   2.207  -1.914
    1   AR   Ar  100   2.296   3.283  -0.449
    1   AR   Ar  101   3.114   4.295   0.979
    1   AR   Ar  102   3.129   2.686   3.858
    1   AR   Ar  103   1.135   4.557   1.000
    1   AR   Ar  104   2.800   2.836  -1.195
    1   AR   Ar  105   1.481   3.166   4.363
    1   AR   Ar  106   3.360   3.508   5.164
    1   AR   Ar  107   0.786   4.204   4.668
    1   AR   Ar  108   3.318   2.536   5.026
    1   AR   Ar  109   1.973   4.744   4.334
    1   AR   Ar  110   1.316   4.343   6.331
    1   AR   Ar  111   4.827   4.228   7.752
    1   AR   Ar  112   1.486   5.844   7.185
    1   AR   Ar  113   2.618   4.695   0.152
    1   AR   Ar  114   2.168   6.650  -0.906
    1   AR   Ar  115   2.803   5.598  -0.697
    1   AR   Ar  116   6.438   6.749  -1.229
    1   AR   Ar  117   1.108   5.254   3.918
    1   AR   Ar  118   1.313   5.879   2.743
    1   AR   Ar  119   2.294   3.030   2.600
    1   AR   Ar  120   1.598   6.827   2.379
    1   AR   Ar  121   6.190   4.689   5.084
    1   AR   Ar  122   2.674   6.322   4.962
    1   AR   Ar  123   3.444   4.603   4.651
    1   AR   Ar  124   2.011   5.897   1.701
    1   AR   Ar  125   0.047   4.315   5.559
    1   AR   Ar  126   7.050   6.994   4.557
    1   AR   Ar  127   3.209   3.934   6.179
    1   AR   Ar  128   2.994   5.459   6.763
    1   AR   Ar  129   2.609   6.420   2.951
    1   AR   Ar  130   4.987   2.731  -1.509
    1   AR   Ar  131   4.486   1.173  -0.115
    1   AR   Ar  132   0.304   1.432  -0.442
    1   AR   Ar  133   4.511   6.710   3.040
    1   AR   Ar  134   4.839   1.553   3.786
    1   AR   Ar  135   5.325   0.427   3.060
    1   AR   Ar  136   4.866   7.110   2.089
    1   AR   Ar  137   2.702   5.327   3.778
    1   AR   Ar  138   4.760   1.915   4.982
    1   AR   Ar  139   5.506   2.400   5.692
    1   AR   Ar  140   3.935   0.042   4.824
    1   AR   Ar  141   3.488   5.735   4.432
    1   AR   Ar  142   3.136   7.040   5.796
    1   AR   Ar  143   0.040   0.072   5.517
    1   AR   Ar  144   5.836   1.474   5.636
    1   AR   Ar  145   4.185   3.483   0.016
    1   AR   Ar  146   3.787   2.405   2.232
    1   AR   Ar  147   5.143   1.487  -1.757
    1   AR   Ar  148   2.784   4.662  -1.425
    1   AR   Ar  149   3.190   2.078   1.123
    1   AR   Ar  150   1.922   1.421   2.769
    1   AR   Ar  151   2.279   2.192   3.505
    1   AR   Ar  152   3.249   3.581  -0.109
    1   AR   Ar  153   4.526   0.460   3.688
    1   AR   Ar  154   4.196   2.435   4.300
    1   AR   Ar  155   6.405   0.033   7.057
    1   AR   Ar  156   4.076   3.396   3.968
    1   AR   Ar  157   2.307   3.474   6.688
    1   AR   Ar  158   1.258   2.854   6.852
    1   AR   Ar  159   4.495   2.140   6.169
    1   AR   Ar  160   3.023   1.554   5.256
    1   AR   Ar  161   5.283   2.998   1.699
    1   AR   Ar  162   4.737   6.237  -0.065
    1   AR   Ar  163   4.967   2.594   0.629
    1   AR   Ar  164   3.369   5.434   1.484
    1   AR   Ar  165   3.684   3.246   0.937
    1   AR   Ar  166   2.254   3.730   4.742
    1   AR   Ar  167   4.208   0.925   2.006
    1   AR   Ar  168   5.287   2.890  -0.436
    1   AR   Ar  169   3.276   3.355   2.037
    1   AR   Ar  170   2.256   4.406   5.782
    1   AR   Ar  171   5.839   4.293   4.153
    1   AR   Ar  172   4.450   4.991   4.680
    1   AR   Ar  173   2.609   3.168   7.596
    1   AR   Ar  174   1.972   4.841   7.163
    1   AR   Ar  175   2.589   2.878   5.712
    1   AR   Ar  176   3.617   2.961   5.948
    1   AR   Ar  177   6.188   4.887  -0.063
    1   AR   Ar  178   3.872   4.823  -0.165
    1   AR   Ar  179   4.315   5.098   0.974
    1   AR   Ar  180   0.459   1.633  -2.620
    1   AR   Ar  181   0.701   5.841   1.646
    1   AR   Ar  182   2.504   0.594   2.746
    1   AR   Ar  183   3.389   5.289   2.778
    1   AR   Ar  184   4.331   6.417   1.304
    1   AR   Ar  185   2.641   5.151   4.975
    1   AR   Ar  186   3.718   4.955   3.667
    1   AR   Ar  187   3.454   6.578   3.503
    1   AR   Ar  188   3.050   6.322   1.877
    1   AR   Ar  189   3.792   2.518   7.264
    1   AR   Ar  190   4.341   6.461   4.069
    1   AR   Ar  191   3.555   5.525   7.863
    1   AR   Ar  192   4.270   6.177   5.037
    1   AR   Ar  193   2.251   5.718   0.380
    1   AR   Ar  194   4.415   3.572  -1.099
    1   AR   Ar  195   5.489   0.895  -0.263
    1   AR   Ar  196   4.824   0.182   0.145
    1   AR   Ar  197   4.034   1.068   0.948
    1   AR   Ar  198   6.300   1.078   0.945
    1   AR   Ar  199   3.738   1.457   2.800
    1   AR   Ar  200   5.160   1.823   0.090
    1   AR   Ar  201   5.478   6.680   3.565
    1   AR   Ar  202   5.775   2.467   4.524
    1   AR   Ar  203   6.435   6.666   3.749
    1   AR   Ar  204   5.099   6.922   4.808
    1   AR   Ar  205   6.297   7.019   2.462
    1   AR   Ar  206   4.983   0.892   4.836
    1   AR   Ar  207   0.692   1.486   6.667
    1   AR   Ar  208   7.075   0.286   3.258
    1   AR   Ar  209   6.817   3.169  -2.701
    1   AR   Ar  210   3.369   0.943  -0.102
    1   AR   Ar  211   6.594   2.959   0.439
    1   AR   Ar  212   5.745   3.475  -1.450
    1   AR   Ar  213   3.058   1.318   1.964
    1   AR   Ar  214   4.548   3.252   2.950
    1   AR   Ar  215   5.960   2.130   1.147
    1   AR   Ar  216   0.940   3.806   1.755
    1   AR   Ar  217   5.129   3.465   4.225
    1   AR   Ar  218   4.412   3.065   5.221
    1   AR   Ar  219   4.991   2.571   3.591
    1   AR   Ar  220   4.326   3.606   1.878
    1   AR   Ar  221   6.223   6.557   5.150
    1   AR   Ar  222   4.041   1.098   6.881
    1   AR   Ar  223   0.312   0.949   7.662
    1   AR   Ar  224   4.870   3.206   6.132
    1   AR   Ar  225   6.295   3.233   2.267
    1   AR   Ar  226   3.088   4.270   2.917
    1   AR   Ar  227   7.014   3.695   1.392
    1   AR   Ar  228   5.678   6.505   1.724
    1   AR   Ar  229   5.393   4.077  -0.629
    1   AR   Ar  230   4.823   4.406   3.765
    1   AR   Ar  231   6.046   1.222   2.819
    1   AR   Ar  232   4.005   2.068   0.491
    1   AR   Ar  233   6.411   2.090   3.169
    1   AR   Ar  234   6.272   3.350   4.287
    1   AR   Ar  235   6.619   1.994   4.699
    1   AR   Ar  236   5.520   5.393   5.548
    1   AR   Ar  237   5.479   3.743   5.121
    1   AR   Ar  238   4.708   4.474   5.913
    1   AR   Ar  239   5.869   3.927   8.587
    1   AR   Ar  240   6.948   3.063   6.573
    1   AR   Ar  241   1.089   6.578  -0.645
    1   AR   Ar  242   5.130   4.581   0.394
    1   AR   Ar  243   5.572   4.287   2.461
    1   AR   Ar  244   0.843   5.289  -0.702
    1   AR   Ar  245   4.635   0.210   1.169
    1   AR   Ar  246   5.615   5.633   0.561
    1   AR   Ar  247   5.044   4.265   1.515
    1   AR   Ar  248   5.581   5.583  -0.500
    1   AR   Ar  249   4.194   5.861   2.315
    1   AR   Ar  250   5.233   5.893   4.366
    1   AR   Ar  251   5.827   5.105   3.516
    1   AR   Ar  252   4.446   5.596   3.284
    1   AR   Ar  253   6.201   3.960   5.879
    1   AR   Ar  254   1.947   4.243   9.117
    1   AR   Ar  255   4.505   3.170   7.881
    1   AR   Ar  256   6.868   5.742   3.706
    7.12000  7.12000 12.00000
Argon-slab step 3000
  256
    1   AR   Ar    1   6.945   1.307  -1.569
    1   AR   Ar    2   6.316   7.012   0.602
    1   AR   Ar    3   1.970   1.131   0.352
    1   AR   Ar    4   0.990   0.506  -0.474
    1   AR   Ar    5   0.226   6.545   0.952
    1   AR   Ar    6   0.073   0.825   2.301
    1   AR   Ar    7   6.454   4.343   3.289
    1   AR   Ar    8   5.875   0.428   1.621
    1   AR   Ar    9   0.958   0.114   3.033
    1   AR   Ar   10   0.600   0.568   4.046
    1   AR   Ar   11   1.990   6.133   3.975
    1   AR   Ar   12   0.863   1.380   2.790
    1   AR   Ar   13   6.877   0.995   4.928
    1   AR   Ar   14   0.274   2.083   7.390
    1   AR   Ar   15   5.102   1.113  10.566
    1   AR   Ar   16   0.917   0.534   5.146
    1   AR   Ar   17   6.313   2.006   0.025
    1   AR   Ar   18   6.654   2.773  -0.777
    1   AR   Ar   19   1.885   2.784   1.350
    1   AR   Ar   20   5.011   4.193  -1.732
    1   AR   Ar   21   4.889   1.781   1.391
    1   AR   Ar   22   6.529   1.766   2.101
    1   AR   Ar   23   6.563   0.425  -0.535
    1   AR   Ar   24   0.007   1.896   1.349
    1   AR   Ar   25   7.065   1.387   3.404
    1   AR   Ar   26   5.895   0.330   4.197
    1   AR   Ar   27   1.382   1.282   3.744
    1   AR   Ar   28   1.230   2.207   4.883
    1   AR   Ar   29   5.124   2.466   6.924
    1   AR   Ar   30   1.878   1.474   4.920
    1   AR   Ar   31   2.283   0.319   7.770
    1   AR   Ar   32   1.729   3.418   5.758
    1   AR   Ar   33   0.956   4.155  -0.708
    1   AR   Ar   34   0.164   5.075   2.863
    1   AR   Ar   35   6.469   5.059   0.998
    1   AR   Ar   36   6.887   0.366  -3.925
    1   AR   Ar   37   5.359   2.376   2.444
    1   AR   Ar   38   0.103   3.959   2.452
    1   AR   Ar   39   1.061   3.367   3.380
    1   AR   Ar   40   2.100   3.794   0.943
    1   AR   Ar   41   0.243   3.360   4.022
    1   AR   Ar   42   6.327   5.566   4.569
    1   AR   Ar   43   7.113   2.169   6.014
    1   AR   Ar   44   0.574   4.402   3.566
    1   AR   Ar   45   0.331   3.149   5.614
    1   AR   Ar   46   0.948   5.607   5.909
    1   AR   Ar   47   5.886   3.450   7.082
    1   AR   Ar   48   0.133   5.785   6.836
    1   AR   Ar   49   5.649   0.814  -1.195
    1   AR   Ar   50   5.214   5.273   1.389
    1   AR   Ar   51   0.137   4.941   1.763
    1   AR   Ar   52   5.709   4.851  -1.390
    1   AR   Ar   53   5.367   5.935   2.727
    1   AR   Ar   54   0.129   6.509   2.583
    1   AR   Ar   55   6.358   5.600   2.698
    1   AR   Ar   56   7.072   0.439   1.226
    1   AR   Ar   57   5.748   3.638   3.320
    1   AR   Ar   58   6.846   4.187   4.317
    1   AR   Ar   59   1.927   5.347   6.243
    1   AR   Ar   60   0.811   6.360   3.603
    1   AR   Ar   61   6.436   4.988   6.120
    1   AR   Ar   62   0.926   5.152   5.054
    1   AR   Ar   63   2.134   0.445   6.473
    1   AR   Ar   64   0.945   6.341   4.670
    1   AR   Ar   65   3.549   0.183   0.766
    1   AR   Ar   66   0.837   1.473   1.670
    1   AR   Ar   67   2.973   6.297  -1.869
    1   AR   Ar   68   2.784   1.731  -0.706
    1   AR   Ar   69   2.826   1.074   0.955
    1   AR   Ar   70   0.769   7.011   1.708
    1   AR   Ar   71   2.558   1.284   4.099
    1   AR   Ar   72   3.401   0.105   2.140
    1   AR   Ar   73   3.270   0.446   3.743
    1   AR   Ar   74   1.997   0.338   3.679
    1   AR   Ar   75   3.864   1.098   4.424
    1   AR   Ar   76   1.622   0.658   1.855
    1   AR   Ar   77   2.419   6.388   6.173
    1   AR   Ar   78   1.200   0.292   6.525
    1   AR   Ar   79   3.800   6.140   5.995
    1   AR   Ar   80   3.590   5.154   5.588
    1   AR   Ar   81   2.762   6.866   0.072
    1   AR   Ar   82   6.814   5.736  -0.836
    1   AR   Ar   83   0.597   2.460   0.443
    1   AR   Ar   84   6.985   3.905  -0.098
    1   AR   Ar   85   1.033   3.479   0.689
    1   AR   Ar   86   2.119   4.269  -0.609
    1   AR   Ar   87   1.805   1.611   1.388
    1   AR   Ar   88   2.304   4.928   1.481
    1   AR   Ar   89   0.213   2.935   2.189
    1   AR   Ar   90   2.205   2.530   4.864
    1   AR   Ar   91   0.967   2.317   3.743
    1   AR   Ar   92   1.444   2.256   2.389
    1   AR   Ar   93   1.996   0.289   5.519
    1   AR   Ar   94   0.917   6.810  10.488
    1   AR   Ar   95   4.049   1.129   5.725
    1   AR   Ar   96   2.803   0.248   4.813
    1   AR   Ar   97   4.996   1.873  -0.912
    1   AR   Ar   98   2.187   5.266   2.594
    1   AR   Ar   99   6.035   2.208  -1.877
    1   AR   Ar  100   2.253   3.285  -0.473
    1   AR   Ar  101   3.113   4.274   0.990
    1   AR   Ar  102   3.133   2.685   3.845
    1   AR   Ar  103   1.128   4.537   1.013
    1   AR   Ar  104   2.791   2.830  -1.183
    1   AR   Ar  105   1.488   3.148   4.341
    1   AR   Ar  106   3.352   3.511   5.153
    1   AR   Ar  107   0.766   4.208   4.624
    1   AR   Ar  108   3.331   2.534   5.010
    1   AR   Ar  109   1.948   4.734   4.368
    1   AR   Ar  110   1.288   4.335   6.300
    1   AR   Ar  111   4.825   4.238   7.737
    1   AR   Ar  112   1.464   5.840   7.184
    1   AR   Ar  113   2.664   4.681   0.146
    1   AR   Ar  114   2.148   6.631  -0.943
    1   AR   Ar  115   2.772   5.614  -0.726
    1   AR   Ar  116   6.426   6.720  -1.211
    1   AR   Ar  117   1.125   5.248   3.883
    1   AR   Ar  118   1.307   5.859   2.743
    1   AR   Ar  119   2.291   2.984   2.594
    1   AR   Ar  120   1.610   6.820   2.363
    1   AR   Ar  121   6.180   4.725   5.087
    1   AR   Ar  122   2.659   6.339   4.975
    1   AR   Ar  123   3.429   4.612   4.633
    1   AR   Ar  124   1.995   5.928   1.703
    1   AR   Ar  125   0.027   4.327   5.521
    1   AR   Ar  126   7.046   6.978   4.580
    1   AR   Ar  127   3.195   3.924   6.194
    1   AR   Ar  128   2.995   5.477   6.802
    1   AR   Ar  129   2.602   6.428   2.935
    1   AR   Ar  130   4.967   2.710  -1.496
    1   AR   Ar  131   4.454   1.169  -0.164
    1   AR   Ar  132   0.310   1.450  -0.455
    1   AR   Ar  133   4.519   6.697   3.027
    1   AR   Ar  134   4.832   1.550   3.786
    1   AR   Ar  135   5.353   0.419   3.016
    1   AR   Ar  136   4.839   0.009   2.093
    1   AR   Ar  137   2.718   5.331   3.765
    1   AR   Ar  138   4.742   1.889   5.004
    1   AR   Ar  139   5.514   2.415   5.706
    1   AR   Ar  140   3.935   0.028   4.825
    1   AR   Ar  141   3.519   5.680   4.461
    1   AR   Ar  142   3.151   7.077   5.800
    1   AR   Ar  143   0.010   0.073   5.505
    1   AR   Ar  144   5.856   1.438   5.625
    1   AR   Ar  145   4.196   3.486   0.014
    1   AR   Ar  146   3.769   2.427   2.266
    1   AR   Ar  147   5.159   1.467  -1.760
    1   AR   Ar  148   2.807   4.669  -1.410
    1   AR   Ar  149   3.154   2.086   1.147
    1   AR   Ar  150   1.919   1.397   2.770
    1   AR   Ar  151   2.276   2.170   3.530
    1   AR   Ar  152   3.243   3.611  -0.119
    1   AR   Ar  153   4.552   0.434   3.673
    1   AR   Ar  154   4.207   2.432   4.333
    1   AR   Ar  155   6.430   0.036   7.048
    1   AR   Ar  156   4.095   3.380   3.968
    1   AR   Ar  157   2.290   3.505   6.695
    1   AR   Ar  158   1.278   2.843   6.834
    1   AR   Ar  159   4.527   2.152   6.227
    1   AR   Ar  160   3.031   1.559   5.219
    1   AR   Ar  161   5.305   3.030   1.679
    1   AR   Ar  162   4.765   6.219  -0.073
    1   AR   Ar  163   4.950   2.613   0.645
    1   AR   Ar  164   3.361   5.406   1.469
    1   AR   Ar  165   3.681   3.269   0.982
    1   AR   Ar  166   2.267   3.744   4.743
    1   AR   Ar  167   4.219   0.912   2.007
    1   AR   Ar  168   5.285   2.926  -0.406
    1   AR   Ar  169   3.281   3.353   2.016
    1   AR   Ar  170   2.264   4.379   5.806
    1   AR   Ar  171   5.839   4.312   4.165
    1   AR   Ar  172   4.444   5.002   4.691
    1   AR   Ar  173   2.612   3.205   7.611
    1   AR   Ar  174   1.949   4.820   7.181
    1   AR   Ar  175   2.582   2.896   5.721
    1   AR   Ar  176   3.622   2.943   5.905
    1   AR   Ar  177   6.202   4.876  -0.060
    1   AR   Ar  178   3.889   4.809  -0.169
    1   AR   Ar  179   4.307   5.108   0.968
    1   AR   Ar  180   0.478   1.630  -2.612
    1   AR   Ar  181   0.701   5.843   1.663
    1   AR   Ar  182   2.498   0.592   2.750
    1   AR   Ar  183   3.383   5.281   2.775
    1   AR   Ar  184   4.359   6.401   1.310
    1   AR   Ar  185   2.686   5.143   4.961
    1   AR   Ar  186   3.729   4.948   3.660
    1   AR   Ar  187   3.510   6.558   3.525
    1   AR   Ar  188   3.045   6.337   1.869
    1   AR   Ar  189   3.798   2.503   7.251
    1   AR   Ar  190   4.322   6.460   4.068
    1   AR   Ar  191   3.553   5.533   7.844
    1   AR   Ar  192   4.282   6.205   5.033
    1   AR   Ar  193   2.276   5.747   0.401
    1   AR   Ar  194   4.447   3.541  -1.098
    1   AR   Ar  195   5.467   0.880  -0.234
    1   AR   Ar  196   4.803   0.185   0.130
    1   AR   Ar  197   4.047   1.095   0.962
    1   AR   Ar  198   6.274   1.076   0.952
    1   AR   Ar  199   3.729   1.441   2.816
    1   AR   Ar  200   5.169   1.803   0.087
    1   AR   Ar  201   5.444   6.649   3.592
    1   AR   Ar  202   5.735   2.468   4.503
    1   AR   Ar  203   6.467   6.659   3.726
    1   AR   Ar  204   5.087   6.900   4.787
    1   AR   Ar  205   6.296   7.004   2.444
    1   AR   Ar  206   4.973   0.874   4.864
    1   AR   Ar  207   0.714   1.504   6.690
    1   AR   Ar  208   7.075   0.318   3.232
    1   AR   Ar  209   6.850   3.191  -2.675
    1   AR   Ar  210   3.357   0.922  -0.113
    1   AR   Ar  211   6.594   2.968   0.444
    1   AR   Ar  212   5.749   3.495  -1.432
    1   AR   Ar  213   3.042   1.313   1.946
    1   AR   Ar  214   4.536   3.279   2.942
    1   AR   Ar  215   5.942   2.150   1.173
    1   AR   Ar  216   0.945   3.778   1.749
    1   AR   Ar  217   5.152   3.416   4.258
    1   AR   Ar  218   4.417   3.095   5.235
    1   AR   Ar  219   4.975   2.557   3.579
    1   AR   Ar  220   4.340   3.621   1.856
    1   AR   Ar  221   6.230   6.577   5.127
    1   AR   Ar  222   4.034   1.069   6.892
    1   AR   Ar  223   0.257   0.969   7.654
    1   AR   Ar  224   4.850   3.209   6.160
    1   AR   Ar  225   6.330   3.236   2.294
    1   AR   Ar  226   3.067   4.302   2.917
    1   AR   Ar  227   7.027   3.657   1.398
    1   AR   Ar  228   5.689   6.496   1.732
    1   AR   Ar  229   5.409   4.065  -0.646
    1   AR   Ar  230   4.843   4.420   3.786
    1   AR   Ar  231   6.051   1.232   2.842
    1   AR   Ar  232   3.959   2.079   0.483
    1   AR   Ar  233   6.429   2.121   3.143
    1   AR   Ar  234   6.275   3.346   4.301
    1   AR   Ar  235   6.619   1.973   4.716
    1   AR   Ar  236   5.553   5.424   5.594
    1   AR   Ar  237   5.476   3.741   5.120
    1   AR   Ar  238   4.706   4.510   5.894
    1   AR   Ar  239   5.851   3.933   8.576
    1   AR   Ar  240   6.927   3.080   6.583
    1   AR   Ar  241   1.107   6.585  -0.642
    1   AR   Ar  242   5.123   4.575   0.370
    1   AR   Ar  243   5.601   4.262   2.441
    1   AR   Ar  244   0.855   5.299  -0.717
    1   AR   Ar  245   4.661   0.209   1.161
    1   AR   Ar  246   5.596   5.630   0.541
    1   AR   Ar  247   5.078   4.256   1.516
    1   AR   Ar  248   5.586   5.560  -0.515
    1   AR   Ar  249   4.201   5.872   2.294
    1   AR   Ar  250   5.233   5.872   4.370
    1   AR   Ar  251   5.807   5.106   3.513
    1   AR   Ar  252   4.423   5.590   3.327
    1   AR   Ar  253   6.215   3.924   5.897
    1   AR   Ar  254   1.947   4.200   9.134
    1   AR   Ar  255   4.465   3.168   7.922
    1   AR   Ar  256   6.866   5.738   3.722
    7.12000  7.12000 12.00000
Argon-slab step 3005
  256
    1   AR   Ar    1   6.939   1.308  -1.608
    1   AR   Ar    2   6.341   7.008   0.610
    1   AR   Ar    3   1.985   1.119   0.335
    1   AR   Ar    4   0.960   0.498  -0.459
    1   AR   Ar    5   0.214   6.586   0.967
    1   AR   Ar    6   0.048   0.804   2.316
    1   AR   Ar    7   6.466   4.329   3.272
    1   AR   Ar    8   5.879   0.433   1.608
    1   AR   Ar    9   0.976   0.104   3.032
    1   AR   Ar   10   0.624   0.582   4.052
    1   AR   Ar   11   1.977   6.137   3.964
    1   AR   Ar   12   0.862   1.407   2.770
    1   AR   Ar   13   6.909   0.995   4.941
    1   AR   Ar   14   0.278   2.099   7.390
    1   AR   Ar   15   5.070   1.112  10.566
    1   AR   Ar   16   0.913   0.525   5.139
    1   AR   Ar   17   6.300   2.022   0.045
    1   AR   Ar   18   6.668   2.753  -0.797
    1   AR   Ar   19   1.883   2.787   1.351
    1   AR   Ar   20   5.006   4.192  -1.717
    1   AR   Ar   21   4.867   1.783   1.369
    1   AR   Ar   22   6.527   1.789   2.106
    1   AR   Ar   23   6.563   0.432  -0.535
    1   AR   Ar   24   0.024   1.905   1.329
    1   AR   Ar   25   7.116   1.375   3.397
    1   AR   Ar   26   5.884   0.320   4.233
    1   AR   Ar   27   1.380   1.265   3.744
    1   AR   Ar   28   1.200   2.193   4.881
    1   AR   Ar   29   5.161   2.484   6.916
    1   AR   Ar   30   1.883   1.428   4.914
    1   AR   Ar   31   2.310   0.330   7.786
    1   AR   Ar   32   1.729   3.424   5.764
    1   AR   Ar   33   0.952   4.171  -0.716
    1   AR   Ar   34   0.201   5.076   2.813
    1   AR   Ar   35   6.465   5.072   0.965
    1   AR   Ar   36   6.880   0.375  -3.935
    1   AR   Ar   37   5.356   2.367   2.430
    1   AR   Ar   38   0.106   3.968   2.443
    1   AR   Ar   39   1.062   3.373   3.390
    1   AR   Ar   40   2.094   3.806   0.961
    1   AR   Ar   41   0.223   3.345   4.008
    1   AR   Ar   42   6.332   5.590   4.581
    1   AR   Ar   43   7.107   2.188   6.006
    1   AR   Ar   44   0.569   4.395   3.549
    1   AR   Ar   45   0.348   3.185   5.607
    1   AR   Ar   46   0.933   5.583   5.933
    1   AR   Ar   47   5.894   3.470   7.078
    1   AR   Ar   48   0.124   5.741   6.826
    1   AR   Ar   49   5.639   0.812  -1.160
    1   AR   Ar   50   5.224   5.270   1.386
    1   AR   Ar   51   0.131   4.935   1.767
    1   AR   Ar   52   5.697   4.852  -1.390
    1   AR   Ar   53   5.354   5.900   2.736
    1   AR   Ar   54   0.137   6.507   2.580
    1   AR   Ar   55   6.363   5.625   2.675
    1   AR   Ar   56   7.095   0.477   1.243
    1   AR   Ar   57   5.746   3.635   3.308
    1   AR   Ar   58   6.859   4.186   4.348
    1   AR   Ar   59   1.963   5.349   6.229
    1   AR   Ar   60   0.779   6.348   3.586
    1   AR   Ar   61   6.451   4.987   6.144
    1   AR   Ar   62   0.942   5.144   5.037
    1   AR   Ar   63   2.131   0.417   6.495
    1   AR   Ar   64   0.908   6.325   4.651
    1   AR   Ar   65   3.524   0.177   0.749
    1   AR   Ar   66   0.819   1.482   1.695
    1   AR   Ar   67   2.990   6.325  -1.866
    1   AR   Ar   68   2.794   1.695  -0.702
    1   AR   Ar   69   2.839   1.062   0.946
    1   AR   Ar   70   0.758   7.056   1.716
    1   AR   Ar   71   2.559   1.264   4.117
    1   AR   Ar   72   3.418   0.108   2.169
    1   AR   Ar   73   3.258   0.442   3.716
    1   AR   Ar   74   2.011   0.336   3.685
    1   AR   Ar   75   3.880   1.095   4.427
    1   AR   Ar   76   1.603   0.672   1.824
    1   AR   Ar   77   2.439   6.390   6.172
    1   AR   Ar   78   1.226   0.279   6.530
    1   AR   Ar   79   3.788   6.132   6.000
    1   AR   Ar   80   3.604   5.168   5.571
    1   AR   Ar   81   2.777   6.847   0.059
    1   AR   Ar   82   6.824   5.739  -0.833
    1   AR   Ar   83   0.568   2.464   0.464
    1   AR   Ar   84   6.953   3.906  -0.071
    1   AR   Ar   85   1.045   3.506   0.676
    1   AR   Ar   86   2.073   4.283  -0.598
    1   AR   Ar   87   1.812   1.629   1.374
    1   AR   Ar   88   2.298   4.948   1.460
    1   AR   Ar   89   0.212   2.942   2.222
    1   AR   Ar   90   2.237   2.552   4.876
    1   AR   Ar   91   0.947   2.333   3.742
    1   AR   Ar   92   1.432   2.273   2.359
    1   AR   Ar   93   1.985   0.319   5.525
    1   AR   Ar   94   0.899   6.799  10.502
    1   AR   Ar   95   4.041   1.162   5.729
    1   AR   Ar   96   2.822   0.259   4.845
    1   AR   Ar   97   4.994   1.903  -0.916
    1   AR   Ar   98   2.179   5.263   2.612
    1   AR   Ar   99   6.028   2.209  -1.837
    1   AR   Ar  100   2.207   3.282  -0.488
    1   AR   Ar  101   3.115   4.252   1.005
    1   AR   Ar  102   3.140   2.686   3.835
    1   AR   Ar  103   1.121   4.519   1.025
    1   AR   Ar  104   2.788   2.819  -1.176
    1   AR   Ar  105   1.488   3.141   4.356
    1   AR   Ar  106   3.350   3.517   5.146
    1   AR   Ar  107   0.749   4.208   4.585
    1   AR   Ar  108   3.339   2.526   4.998
    1   AR   Ar  109   1.920   4.721   4.401
    1   AR   Ar  110   1.260   4.328   6.268
    1   AR   Ar  111   4.824   4.248   7.722
    1   AR   Ar  112   1.441   5.835   7.181
    1   AR   Ar  113   2.711   4.671   0.142
    1   AR   Ar  114   2.130   6.611  -0.979
    1   AR   Ar  115   2.741   5.631  -0.755
    1   AR   Ar  116   6.413   6.690  -1.193
    1   AR   Ar  117   1.142   5.246   3.848
    1   AR   Ar  118   1.299   5.831   2.742
    1   AR   Ar  119   2.289   2.938   2.588
    1   AR   Ar  120   1.628   6.810   2.345
    1   AR   Ar  121   6.171   4.751   5.094
    1   AR   Ar  122   2.645   6.351   4.989
    1   AR   Ar  123   3.423   4.608   4.610
    1   AR   Ar  124   1.978   5.961   1.706
    1   AR   Ar  125   0.009   4.340   5.481
    1   AR   Ar  126   7.044   6.959   4.582
    1   AR   Ar  127   3.184   3.909   6.206
    1   AR   Ar  128   3.008   5.477   6.821
    1   AR   Ar  129   2.592   6.436   2.918
    1   AR   Ar  130   4.949   2.691  -1.487
    1   AR   Ar  131   4.442   1.182  -0.166
    1   AR   Ar  132   0.313   1.469  -0.468
    1   AR   Ar  133   4.526   6.682   3.012
    1   AR   Ar  134   4.823   1.543   3.790
    1   AR   Ar  135   5.383   0.410   2.968
    1   AR   Ar  136   4.815   0.024   2.111
    1   AR   Ar  137   2.734   5.334   3.751
    1   AR   Ar  138   4.728   1.863   5.032
    1   AR   Ar  139   5.519   2.435   5.720
    1   AR   Ar  140   3.933   0.021   4.825
    1   AR   Ar  141   3.551   5.628   4.489
    1   AR   Ar  142   3.168   7.114   5.803
    1   AR   Ar  143   7.101   0.078   5.514
    1   AR   Ar  144   5.878   1.405   5.635
    1   AR   Ar  145   4.226   3.487   0.015
    1   AR   Ar  146   3.761   2.425   2.282
    1   AR   Ar  147   5.175   1.447  -1.788
    1   AR   Ar  148   2.831   4.676  -1.394
    1   AR   Ar  149   3.117   2.095   1.174
    1   AR   Ar  150   1.913   1.379   2.772
    1   AR   Ar  151   2.267   2.148   3.553
    1   AR   Ar  152   3.283   3.623  -0.126
    1   AR   Ar  153   4.573   0.407   3.665
    1   AR   Ar  154   4.215   2.426   4.365
    1   AR   Ar  155   6.456   0.039   7.038
    1   AR   Ar  156   4.113   3.369   3.967
    1   AR   Ar  157   2.270   3.539   6.695
    1   AR   Ar  158   1.298   2.833   6.815
    1   AR   Ar  159   4.548   2.158   6.271
    1   AR   Ar  160   3.037   1.560   5.181
    1   AR   Ar  161   5.326   3.067   1.652
    1   AR   Ar  162   4.794   6.200  -0.080
    1   AR   Ar  163   4.932   2.640   0.666
    1   AR   Ar  164   3.353   5.376   1.454
    1   AR   Ar  165   3.678   3.291   1.025
    1   AR   Ar  166   2.283   3.758   4.748
    1   AR   Ar  167   4.231   0.898   2.007
    1   AR   Ar  168   5.276   2.954  -0.387
    1   AR   Ar  169   3.282   3.390   2.034
    1   AR   Ar  170   2.273   4.352   5.828
    1   AR   Ar  171   5.833   4.330   4.181
    1   AR   Ar  172   4.444   5.017   4.705
    1   AR   Ar  173   2.617   3.239   7.632
    1   AR   Ar  174   1.927   4.797   7.199
    1   AR   Ar  175   2.582   2.914   5.737
    1   AR   Ar  176   3.635   2.919   5.880
    1   AR   Ar  177   6.219   4.860  -0.055
    1   AR   Ar  178   3.906   4.794  -0.171
    1   AR   Ar  179   4.270   5.124   0.973
    1   AR   Ar  180   0.495   1.627  -2.602
    1   AR   Ar  181   0.704   5.848   1.682
    1   AR   Ar  182   2.500   0.581   2.752
    1   AR   Ar  183   3.375   5.280   2.763
    1   AR   Ar  184   4.383   6.374   1.318
    1   AR   Ar  185   2.721   5.146   4.956
    1   AR   Ar  186   3.695   4.889   3.655
    1   AR   Ar  187   3.557   6.536   3.540
    1   AR   Ar  188   3.035   6.320   1.838
    1   AR   Ar  189   3.792   2.508   7.248
    1   AR   Ar  190   4.315   6.459   4.066
    1   AR   Ar  191   3.552   5.541   7.825
    1   AR   Ar  192   4.297   6.223   5.038
    1   AR   Ar  193   2.302   5.776   0.423
    1   AR   Ar  194   4.479   3.511  -1.093
    1   AR   Ar  195   5.452   0.864  -0.196
    1   AR   Ar  196   4.781   0.177   0.116
    1   AR   Ar  197   4.059   1.126   0.975
    1   AR   Ar  198   6.250   1.080   0.954
    1   AR   Ar  199   3.720   1.426   2.835
    1   AR   Ar  200   5.167   1.832   0.102
    1   AR   Ar  201   5.405   6.615   3.622
    1   AR   Ar  202   5.688   2.468   4.483
    1   AR   Ar  203   6.470   6.669   3.683
    1   AR   Ar  204   5.075   6.878   4.763
    1   AR   Ar  205   6.296   6.991   2.431
    1   AR   Ar  206   4.964   0.854   4.891
    1   AR   Ar  207   0.739   1.517   6.707
    1   AR   Ar  208   7.069   0.348   3.207
    1   AR   Ar  209   6.883   3.212  -2.648
    1   AR   Ar  210   3.390   0.902  -0.112
    1   AR   Ar  211   6.595   2.978   0.451
    1   AR   Ar  212   5.756   3.509  -1.417
    1   AR   Ar  213   3.026   1.308   1.933
    1   AR   Ar  214   4.525   3.309   2.932
    1   AR   Ar  215   5.923   2.171   1.198
    1   AR   Ar  216   0.950   3.748   1.746
    1   AR   Ar  217   5.171   3.363   4.279
    1   AR   Ar  218   4.423   3.124   5.240
    1   AR   Ar  219   4.957   2.540   3.580
    1   AR   Ar  220   4.347   3.649   1.841
    1   AR   Ar  221   6.235   6.595   5.103
    1   AR   Ar  222   4.028   1.041   6.901
    1   AR   Ar  223   0.202   0.989   7.644
    1   AR   Ar  224   4.831   3.214   6.192
    1   AR   Ar  225   6.360   3.239   2.323
    1   AR   Ar  226   3.072   4.313   2.942
    1   AR   Ar  227   7.039   3.619   1.403
    1   AR   Ar  228   5.697   6.482   1.738
    1   AR   Ar  229   5.423   4.056  -0.657
    1   AR   Ar  230   4.861   4.435   3.807
    1   AR   Ar  231   6.052   1.233   2.866
    1   AR   Ar  232   3.947   2.098   0.480
    1   AR   Ar  233   6.443   2.166   3.117
    1   AR   Ar  234   6.275   3.337   4.314
    1   AR   Ar  235   6.621   1.954   4.733
    1   AR   Ar  236   5.584   5.457   5.639
    1   AR   Ar  237   5.482   3.737   5.120
    1   AR   Ar  238   4.705   4.546   5.874
    1   AR   Ar  239   5.831   3.938   8.564
    1   AR   Ar  240   6.905   3.098   6.594
    1   AR   Ar  241   1.129   6.595  -0.636
    1   AR   Ar  242   5.118   4.570   0.346
    1   AR   Ar  243   5.632   4.237   2.422
    1   AR   Ar  244   0.866   5.309  -0.732
    1   AR   Ar  245   4.687   0.224   1.140
    1   AR   Ar  246   5.579   5.630   0.515
    1   AR   Ar  247   5.113   4.245   1.512
    1   AR   Ar  248   5.579   5.509  -0.517
    1   AR   Ar  249   4.208   5.885   2.272
    1   AR   Ar  250   5.232   5.850   4.374
    1   AR   Ar  251   5.781   5.116   3.510
    1   AR   Ar  252   4.406   5.589   3.369
    1   AR   Ar  253   6.228   3.886   5.917
    1   AR   Ar  254   1.946   4.157   9.150
    1   AR   Ar  255   4.425   3.166   7.962
    1   AR   Ar  256   6.872   5.726   3.731
    7.12000  7.12000 12.00000
Argon-slab step 3010
  256
    1   AR   Ar    1   6.933   1.309  -1.647
    1   AR   Ar    2   6.365   7.005   0.619
    1   AR   Ar    3   1.997   1.106   0.321
    1   AR   Ar    4   0.972   0.507  -0.451
    1   AR   Ar    5   0.200   6.624   0.978
    1   AR   Ar    6   0.024   0.787   2.324
    1   AR   Ar    7   6.488   4.320   3.252
    1   AR   Ar    8   5.876   0.434   1.601
    1   AR   Ar    9   0.994   0.099   3.031
    1   AR   Ar   10   0.647   0.559   4.029
    1   AR   Ar   11   1.963   6.142   3.952
    1   AR   Ar   12   0.849   1.414   2.736
    1   AR   Ar   13   6.943   0.989   4.954
    1   AR   Ar   14   0.279   2.120   7.395
    1   AR   Ar   15   5.039   1.111  10.567
    1   AR   Ar   16   0.909   0.517   5.132
    1   AR   Ar   17   6.285   2.037   0.065
    1   AR   Ar   18   6.659   2.756  -0.809
    1   AR   Ar   19   1.885   2.786   1.355
    1   AR   Ar   20   4.990   4.201  -1.727
    1   AR   Ar   21   4.837   1.783   1.354
    1   AR   Ar   22   6.519   1.831   2.115
    1   AR   Ar   23   6.570   0.441  -0.539
    1   AR   Ar   24   0.033   1.923   1.295
    1   AR   Ar   25   0.047   1.364   3.393
    1   AR   Ar   26   5.874   0.310   4.269
    1   AR   Ar   27   1.381   1.250   3.744
    1   AR   Ar   28   1.164   2.184   4.879
    1   AR   Ar   29   5.213   2.509   6.924
    1   AR   Ar   30   1.891   1.376   4.910
    1   AR   Ar   31   2.336   0.342   7.801
    1   AR   Ar   32   1.719   3.433   5.769
    1   AR   Ar   33   0.949   4.188  -0.724
    1   AR   Ar   34   0.237   5.080   2.766
    1   AR   Ar   35   6.458   5.089   0.942
    1   AR   Ar   36   6.874   0.383  -3.946
    1   AR   Ar   37   5.354   2.355   2.420
    1   AR   Ar   38   0.109   3.982   2.436
    1   AR   Ar   39   1.065   3.381   3.396
    1   AR   Ar   40   2.088   3.820   0.978
    1   AR   Ar   41   0.204   3.326   3.994
    1   AR   Ar   42   6.304   5.589   4.593
    1   AR   Ar   43   7.102   2.206   5.997
    1   AR   Ar   44   0.562   4.384   3.532
    1   AR   Ar   45   0.377   3.186   5.618
    1   AR   Ar   46   0.918   5.563   5.967
    1   AR   Ar   47   5.905   3.492   7.082
    1   AR   Ar   48   0.117   5.696   6.816
    1   AR   Ar   49   5.636   0.805  -1.131
    1   AR   Ar   50   5.236   5.271   1.391
    1   AR   Ar   51   0.103   4.915   1.771
    1   AR   Ar   52   5.691   4.857  -1.387
    1   AR   Ar   53   5.336   5.866   2.745
    1   AR   Ar   54   0.146   6.504   2.578
    1   AR   Ar   55   6.372   5.650   2.652
    1   AR   Ar   56   7.116   0.519   1.260
    1   AR   Ar   57   5.736   3.623   3.297
    1   AR   Ar   58   6.871   4.194   4.381
    1   AR   Ar   59   2.001   5.351   6.215
    1   AR   Ar   60   0.745   6.334   3.569
    1   AR   Ar   61   6.467   4.986   6.167
    1   AR   Ar   62   0.958   5.135   5.010
    1   AR   Ar   63   2.168   0.395   6.528
    1   AR   Ar   64   0.871   6.310   4.633
    1   AR   Ar   65   3.501   0.170   0.734
    1   AR   Ar   66   0.810   1.483   1.725
    1   AR   Ar   67   3.006   6.352  -1.862
    1   AR   Ar   68   2.803   1.659  -0.698
    1   AR   Ar   69   2.855   1.048   0.935
    1   AR   Ar   70   0.741   7.075   1.739
    1   AR   Ar   71   2.562   1.243   4.134
    1   AR   Ar   72   3.416   0.120   2.148
    1   AR   Ar   73   3.245   0.439   3.688
    1   AR   Ar   74   2.025   0.334   3.692
    1   AR   Ar   75   3.897   1.092   4.432
    1   AR   Ar   76   1.583   0.686   1.797
    1   AR   Ar   77   2.457   6.391   6.171
    1   AR   Ar   78   1.214   0.260   6.536
    1   AR   Ar   79   3.779   6.128   6.010
    1   AR   Ar   80   3.619   5.181   5.553
    1   AR   Ar   81   2.791   6.829   0.044
    1   AR   Ar   82   6.835   5.741  -0.828
    1   AR   Ar   83   0.538   2.469   0.484
    1   AR   Ar   84   6.922   3.909  -0.044
    1   AR   Ar   85   1.056   3.532   0.662
    1   AR   Ar   86   2.026   4.304  -0.591
    1   AR   Ar   87   1.823   1.650   1.359
    1   AR   Ar   88   2.292   4.965   1.438
    1   AR   Ar   89   0.218   2.943   2.254
    1   AR   Ar   90   2.268   2.570   4.879
    1   AR   Ar   91   0.928   2.348   3.741
    1   AR   Ar   92   1.418   2.290   2.327
    1   AR   Ar   93   1.972   0.348   5.520
    1   AR   Ar   94   0.882   6.789  10.515
    1   AR   Ar   95   4.033   1.195   5.731
    1   AR   Ar   96   2.842   0.276   4.871
    1   AR   Ar   97   4.992   1.926  -0.905
    1   AR   Ar   98   2.175   5.260   2.629
    1   AR   Ar   99   6.021   2.210  -1.796
    1   AR   Ar  100   2.170   3.280  -0.494
    1   AR   Ar  101   3.119   4.230   1.023
    1   AR   Ar  102   3.151   2.688   3.827
    1   AR   Ar  103   1.116   4.504   1.038
    1   AR   Ar  104   2.783   2.817  -1.175
    1   AR   Ar  105   1.486   3.138   4.380
    1   AR   Ar  106   3.344   3.540   5.132
    1   AR   Ar  107   0.739   4.200   4.564
    1   AR   Ar  108   3.336   2.516   4.998
    1   AR   Ar  109   1.889   4.708   4.432
    1   AR   Ar  110   1.242   4.320   6.246
    1   AR   Ar  111   4.824   4.256   7.707
    1   AR   Ar  112   1.419   5.830   7.176
    1   AR   Ar  113   2.760   4.664   0.137
    1   AR   Ar  114   2.116   6.590  -1.015
    1   AR   Ar  115   2.709   5.647  -0.782
    1   AR   Ar  116   6.400   6.661  -1.176
    1   AR   Ar  117   1.158   5.249   3.813
    1   AR   Ar  118   1.289   5.803   2.740
    1   AR   Ar  119   2.288   2.891   2.582
    1   AR   Ar  120   1.651   6.799   2.325
    1   AR   Ar  121   6.161   4.766   5.107
    1   AR   Ar  122   2.631   6.360   5.004
    1   AR   Ar  123   3.430   4.584   4.584
    1   AR   Ar  124   1.959   5.995   1.710
    1   AR   Ar  125   7.114   4.353   5.440
    1   AR   Ar  126   7.045   6.939   4.562
    1   AR   Ar  127   3.174   3.893   6.216
    1   AR   Ar  128   3.029   5.465   6.825
    1   AR   Ar  129   2.633   6.431   2.928
    1   AR   Ar  130   4.935   2.679  -1.489
    1   AR   Ar  131   4.430   1.198  -0.157
    1   AR   Ar  132   0.316   1.487  -0.481
    1   AR   Ar  133   4.532   6.665   2.996
    1   AR   Ar  134   4.813   1.529   3.796
    1   AR   Ar  135   5.414   0.398   2.920
    1   AR   Ar  136   4.795   0.035   2.135
    1   AR   Ar  137   2.748   5.339   3.738
    1   AR   Ar  138   4.716   1.837   5.065
    1   AR   Ar  139   5.522   2.456   5.733
    1   AR   Ar  140   3.928   0.022   4.823
    1   AR   Ar  141   3.585   5.583   4.515
    1   AR   Ar  142   3.180   0.026   5.806
    1   AR   Ar  143   7.073   0.085   5.541
    1   AR   Ar  144   5.902   1.380   5.675
    1   AR   Ar  145   4.242   3.479   0.040
    1   AR   Ar  146   3.759   2.406   2.286
    1   AR   Ar  147   5.188   1.428  -1.829
    1   AR   Ar  148   2.854   4.684  -1.376
    1   AR   Ar  149   3.078   2.107   1.202
    1   AR   Ar  150   1.905   1.368   2.773
    1   AR   Ar  151   2.254   2.125   3.576
    1   AR   Ar  152   3.267   3.603  -0.119
    1   AR   Ar  153   4.580   0.399   3.677
    1   AR   Ar  154   4.220   2.419   4.393
    1   AR   Ar  155   6.482   0.042   7.029
    1   AR   Ar  156   4.130   3.363   3.965
    1   AR   Ar  157   2.248   3.555   6.709
    1   AR   Ar  158   1.318   2.823   6.795
    1   AR   Ar  159   4.551   2.155   6.298
    1   AR   Ar  160   3.041   1.555   5.142
    1   AR   Ar  161   5.348   3.107   1.622
    1   AR   Ar  162   4.823   6.180  -0.085
    1   AR   Ar  163   4.912   2.673   0.691
    1   AR   Ar  164   3.344   5.344   1.441
    1   AR   Ar  165   3.676   3.311   1.066
    1   AR   Ar  166   2.302   3.772   4.756
    1   AR   Ar  167   4.241   0.885   2.008
    1   AR   Ar  168   5.243   2.949  -0.404
    1   AR   Ar  169   3.282   3.439   2.063
    1   AR   Ar  170   2.283   4.327   5.849
    1   AR   Ar  171   5.826   4.344   4.201
    1   AR   Ar  172   4.446   5.033   4.720
    1   AR   Ar  173   2.623   3.273   7.656
    1   AR   Ar  174   1.904   4.774   7.216
    1   AR   Ar  175   2.593   2.932   5.760
    1   AR   Ar  176   3.653   2.889   5.874
    1   AR   Ar  177   6.237   4.839  -0.050
    1   AR   Ar  178   3.922   4.777  -0.172
    1   AR   Ar  179   4.232   5.139   0.974
    1   AR   Ar  180   0.512   1.624  -2.591
    1   AR   Ar  181   0.708   5.855   1.703
    1   AR   Ar  182   2.509   0.560   2.752
    1   AR   Ar  183   3.365   5.289   2.746
    1   AR   Ar  184   4.407   6.343   1.326
    1   AR   Ar  185   2.738   5.162   4.961
    1   AR   Ar  186   3.665   4.826   3.652
    1   AR   Ar  187   3.577   6.513   3.535
    1   AR   Ar  188   3.023   6.299   1.808
    1   AR   Ar  189   3.787   2.514   7.243
    1   AR   Ar  190   4.336   6.457   4.073
    1   AR   Ar  191   3.550   5.549   7.806
    1   AR   Ar  192   4.312   6.228   5.053
    1   AR   Ar  193   2.330   5.804   0.446
    1   AR   Ar  194   4.508   3.485  -1.083
    1   AR   Ar  195   5.444   0.852  -0.149
    1   AR   Ar  196   4.763   0.138   0.111
    1   AR   Ar  197   4.069   1.158   0.984
    1   AR   Ar  198   6.228   1.095   0.947
    1   AR   Ar  199   3.709   1.409   2.855
    1   AR   Ar  200   5.167   1.875   0.124
    1   AR   Ar  201   5.378   6.615   3.639
    1   AR   Ar  202   5.637   2.464   4.464
    1   AR   Ar  203   6.454   6.689   3.626
    1   AR   Ar  204   5.067   6.858   4.737
    1   AR   Ar  205   6.298   6.981   2.423
    1   AR   Ar  206   4.954   0.830   4.916
    1   AR   Ar  207   0.768   1.525   6.718
    1   AR   Ar  208   7.060   0.369   3.188
    1   AR   Ar  209   6.916   3.233  -2.621
    1   AR   Ar  210   3.409   0.890  -0.093
    1   AR   Ar  211   6.597   2.988   0.458
    1   AR   Ar  212   5.774   3.509  -1.423
    1   AR   Ar  213   3.011   1.303   1.926
    1   AR   Ar  214   4.515   3.339   2.921
    1   AR   Ar  215   5.905   2.192   1.222
    1   AR   Ar  216   0.939   3.730   1.742
    1   AR   Ar  217   5.182   3.309   4.287
    1   AR   Ar  218   4.431   3.152   5.238
    1   AR   Ar  219   4.951   2.533   3.583
    1   AR   Ar  220   4.351   3.673   1.830
    1   AR   Ar  221   6.233   6.611   5.080
    1   AR   Ar  222   4.021   1.014   6.909
    1   AR   Ar  223   0.148   1.010   7.634
    1   AR   Ar  224   4.815   3.221   6.226
    1   AR   Ar  225   6.383   3.244   2.352
    1   AR   Ar  226   3.093   4.309   2.984
    1   AR   Ar  227   7.049   3.581   1.407
    1   AR   Ar  228   5.702   6.464   1.742
    1   AR   Ar  229   5.432   4.053  -0.661
    1   AR   Ar  230   4.876   4.449   3.826
    1   AR   Ar  231   6.053   1.229   2.891
    1   AR   Ar  232   3.984   2.131   0.487
    1   AR   Ar  233   6.458   2.219   3.092
    1   AR   Ar  234   6.274   3.327   4.326
    1   AR   Ar  235   6.623   1.942   4.750
    1   AR   Ar  236   5.613   5.490   5.683
    1   AR   Ar  237   5.491   3.739   5.133
    1   AR   Ar  238   4.705   4.581   5.852
    1   AR   Ar  239   5.811   3.944   8.551
    1   AR   Ar  240   6.882   3.117   6.605
    1   AR   Ar  241   1.148   6.601  -0.630
    1   AR   Ar  242   5.112   4.566   0.322
    1   AR   Ar  243   5.665   4.213   2.406
    1   AR   Ar  244   0.877   5.320  -0.746
    1   AR   Ar  245   4.713   0.246   1.115
    1   AR   Ar  246   5.565   5.633   0.487
    1   AR   Ar  247   5.131   4.233   1.504
    1   AR   Ar  248   5.569   5.461  -0.525
    1   AR   Ar  249   4.216   5.897   2.250
    1   AR   Ar  250   5.231   5.826   4.379
    1   AR   Ar  251   5.754   5.133   3.504
    1   AR   Ar  252   4.393   5.592   3.411
    1   AR   Ar  253   6.241   3.847   5.937
    1   AR   Ar  254   1.946   4.114   9.166
    1   AR   Ar  255   4.386   3.165   8.000
    1   AR   Ar  256   6.884   5.709   3.733
    7.12000  7.12000 12.00000
Argon-slab step 3015
  256
    1   AR   Ar    1   6.926   1.311  -1.684
    1   AR   Ar    2   6.387   7.005   0.628
    1   AR   Ar    3   2.006   1.086   0.327
    1   AR   Ar    4   0.994   0.523  -0.445
    1   AR   Ar    5   0.184   6.657   0.987
    1   AR   Ar    6   0.001   0.777   2.316
    1   AR   Ar    7   6.516   4.315   3.233
    1   AR   Ar    8   5.868   0.428   1.600
    1   AR   Ar    9   1.011   0.098   3.031
    1   AR   Ar   10   0.666   0.523   4.000
    1   AR   Ar   11   1.949   6.146   3.940
    1   AR   Ar   12   0.838   1.420   2.708
    1   AR   Ar   13   6.979   0.977   4.967
    1   AR   Ar   14   0.277   2.145   7.402
    1   AR   Ar   15   5.008   1.110  10.567
    1   AR   Ar   16   0.905   0.508   5.123
    1   AR   Ar   17   6.270   2.049   0.085
    1   AR   Ar   18   6.655   2.744  -0.785
    1   AR   Ar   19   1.908   2.770   1.368
    1   AR   Ar   20   4.969   4.208  -1.739
    1   AR   Ar   21   4.818   1.793   1.352
    1   AR   Ar   22   6.509   1.871   2.123
    1   AR   Ar   23   6.575   0.451  -0.542
    1   AR   Ar   24   0.034   1.945   1.254
    1   AR   Ar   25   0.096   1.358   3.392
    1   AR   Ar   26   5.865   0.300   4.305
    1   AR   Ar   27   1.384   1.239   3.744
    1   AR   Ar   28   1.127   2.175   4.875
    1   AR   Ar   29   5.276   2.540   6.942
    1   AR   Ar   30   1.898   1.323   4.909
    1   AR   Ar   31   2.363   0.353   7.815
    1   AR   Ar   32   1.700   3.443   5.770
    1   AR   Ar   33   0.943   4.204  -0.730
    1   AR   Ar   34   0.274   5.086   2.726
    1   AR   Ar   35   6.438   5.119   0.958
    1   AR   Ar   36   6.867   0.392  -3.956
    1   AR   Ar   37   5.354   2.343   2.411
    1   AR   Ar   38   0.111   3.999   2.432
    1   AR   Ar   39   1.070   3.389   3.398
    1   AR   Ar   40   2.081   3.835   0.995
    1   AR   Ar   41   0.185   3.304   3.981
    1   AR   Ar   42   6.274   5.598   4.600
    1   AR   Ar   43   7.097   2.219   5.990
    1   AR   Ar   44   0.551   4.371   3.513
    1   AR   Ar   45   0.409   3.180   5.634
    1   AR   Ar   46   0.903   5.544   6.005
    1   AR   Ar   47   5.934   3.535   7.076
    1   AR   Ar   48   0.138   5.703   6.813
    1   AR   Ar   49   5.637   0.796  -1.107
    1   AR   Ar   50   5.247   5.273   1.401
    1   AR   Ar   51   0.077   4.891   1.775
    1   AR   Ar   52   5.691   4.864  -1.383
    1   AR   Ar   53   5.315   5.835   2.755
    1   AR   Ar   54   0.158   6.500   2.577
    1   AR   Ar   55   6.384   5.675   2.629
    1   AR   Ar   56   0.014   0.564   1.276
    1   AR   Ar   57   5.721   3.605   3.291
    1   AR   Ar   58   6.876   4.208   4.412
    1   AR   Ar   59   2.038   5.352   6.202
    1   AR   Ar   60   0.710   6.317   3.552
    1   AR   Ar   61   6.485   4.984   6.191
    1   AR   Ar   62   0.974   5.126   4.980
    1   AR   Ar   63   2.227   0.376   6.565
    1   AR   Ar   64   0.834   6.293   4.617
    1   AR   Ar   65   3.480   0.164   0.722
    1   AR   Ar   66   0.807   1.480   1.754
    1   AR   Ar   67   3.022   6.380  -1.856
    1   AR   Ar   68   2.813   1.624  -0.693
    1   AR   Ar   69   2.873   1.033   0.921
    1   AR   Ar   70   0.725   7.088   1.771
    1   AR   Ar   71   2.568   1.219   4.148
    1   AR   Ar   72   3.415   0.135   2.127
    1   AR   Ar   73   3.243   0.439   3.675
    1   AR   Ar   74   2.038   0.331   3.700
    1   AR   Ar   75   3.915   1.090   4.437
    1   AR   Ar   76   1.564   0.699   1.771
    1   AR   Ar   77   2.476   6.391   6.170
    1   AR   Ar   78   1.182   0.240   6.541
    1   AR   Ar   79   3.768   6.127   6.022
    1   AR   Ar   80   3.637   5.191   5.535
    1   AR   Ar   81   2.805   6.809   0.029
    1   AR   Ar   82   6.845   5.740  -0.823
    1   AR   Ar   83   0.507   2.476   0.505
    1   AR   Ar   84   6.905   3.910  -0.026
    1   AR   Ar   85   1.067   3.552   0.645
    1   AR   Ar   86   1.979   4.330  -0.584
    1   AR   Ar   87   1.838   1.671   1.344
    1   AR   Ar   88   2.287   4.982   1.414
    1   AR   Ar   89   0.233   2.936   2.285
    1   AR   Ar   90   2.296   2.583   4.875
    1   AR   Ar   91   0.908   2.362   3.740
    1   AR   Ar   92   1.403   2.306   2.293
    1   AR   Ar   93   1.957   0.376   5.510
    1   AR   Ar   94   0.864   6.778  10.529
    1   AR   Ar   95   4.026   1.229   5.731
    1   AR   Ar   96   2.862   0.299   4.888
    1   AR   Ar   97   4.991   1.933  -0.882
    1   AR   Ar   98   2.167   5.214   2.622
    1   AR   Ar   99   6.013   2.212  -1.752
    1   AR   Ar  100   2.150   3.280  -0.493
    1   AR   Ar  101   3.125   4.208   1.044
    1   AR   Ar  102   3.163   2.691   3.821
    1   AR   Ar  103   1.111   4.494   1.051
    1   AR   Ar  104   2.774   2.828  -1.182
    1   AR   Ar  105   1.481   3.134   4.404
    1   AR   Ar  106   3.336   3.572   5.114
    1   AR   Ar  107   0.738   4.188   4.546
    1   AR   Ar  108   3.334   2.506   4.989
    1   AR   Ar  109   1.857   4.697   4.464
    1   AR   Ar  110   1.261   4.310   6.257
    1   AR   Ar  111   4.824   4.263   7.693
    1   AR   Ar  112   1.397   5.824   7.168
    1   AR   Ar  113   2.808   4.660   0.130
    1   AR   Ar  114   2.107   6.569  -1.053
    1   AR   Ar  115   2.677   5.663  -0.809
    1   AR   Ar  116   6.385   6.633  -1.159
    1   AR   Ar  117   1.175   5.254   3.778
    1   AR   Ar  118   1.274   5.779   2.739
    1   AR   Ar  119   2.285   2.864   2.581
    1   AR   Ar  120   1.676   6.788   2.306
    1   AR   Ar  121   6.151   4.773   5.122
    1   AR   Ar  122   2.618   6.366   5.019
    1   AR   Ar  123   3.443   4.541   4.564
    1   AR   Ar  124   1.940   6.026   1.714
    1   AR   Ar  125   7.100   4.366   5.400
    1   AR   Ar  126   7.065   6.926   4.555
    1   AR   Ar  127   3.167   3.875   6.226
    1   AR   Ar  128   3.048   5.452   6.826
    1   AR   Ar  129   2.671   6.427   2.938
    1   AR   Ar  130   4.926   2.676  -1.507
    1   AR   Ar  131   4.416   1.213  -0.148
    1   AR   Ar  132   0.317   1.504  -0.494
    1   AR   Ar  133   4.535   6.644   2.982
    1   AR   Ar  134   4.802   1.511   3.806
    1   AR   Ar  135   5.445   0.383   2.873
    1   AR   Ar  136   4.780   0.040   2.156
    1   AR   Ar  137   2.760   5.344   3.725
    1   AR   Ar  138   4.707   1.813   5.103
    1   AR   Ar  139   5.524   2.479   5.745
    1   AR   Ar  140   3.921   0.030   4.820
    1   AR   Ar  141   3.619   5.550   4.536
    1   AR   Ar  142   3.171   0.038   5.807
    1   AR   Ar  143   7.046   0.094   5.575
    1   AR   Ar  144   5.927   1.356   5.714
    1   AR   Ar  145   4.270   3.469   0.068
    1   AR   Ar  146   3.758   2.388   2.289
    1   AR   Ar  147   5.200   1.413  -1.874
    1   AR   Ar  148   2.877   4.691  -1.356
    1   AR   Ar  149   3.040   2.120   1.230
    1   AR   Ar  150   1.895   1.364   2.774
    1   AR   Ar  151   2.237   2.103   3.597
    1   AR   Ar  152   3.231   3.576  -0.109
    1   AR   Ar  153   4.583   0.396   3.696
    1   AR   Ar  154   4.224   2.411   4.419
    1   AR   Ar  155   6.509   0.046   7.019
    1   AR   Ar  156   4.146   3.360   3.963
    1   AR   Ar  157   2.225   3.569   6.726
    1   AR   Ar  158   1.349   2.823   6.787
    1   AR   Ar  159   4.544   2.147   6.313
    1   AR   Ar  160   3.034   1.560   5.132
    1   AR   Ar  161   5.362   3.136   1.597
    1   AR   Ar  162   4.822   6.177  -0.091
    1   AR   Ar  163   4.891   2.714   0.719
    1   AR   Ar  164   3.329   5.312   1.430
    1   AR   Ar  165   3.675   3.327   1.103
    1   AR   Ar  166   2.323   3.784   4.767
    1   AR   Ar  167   4.247   0.878   2.008
    1   AR   Ar  168   5.210   2.944  -0.422
    1   AR   Ar  169   3.281   3.487   2.094
    1   AR   Ar  170   2.293   4.304   5.866
    1   AR   Ar  171   5.820   4.354   4.221
    1   AR   Ar  172   4.452   5.048   4.735
    1   AR   Ar  173   2.631   3.305   7.682
    1   AR   Ar  174   1.882   4.750   7.230
    1   AR   Ar  175   2.612   2.952   5.791
    1   AR   Ar  176   3.676   2.858   5.883
    1   AR   Ar  177   6.257   4.814  -0.047
    1   AR   Ar  178   3.931   4.772  -0.168
    1   AR   Ar  179   4.199   5.151   0.972
    1   AR   Ar  180   0.529   1.621  -2.580
    1   AR   Ar  181   0.713   5.863   1.725
    1   AR   Ar  182   2.505   0.560   2.756
    1   AR   Ar  183   3.356   5.305   2.725
    1   AR   Ar  184   4.411   6.324   1.330
    1   AR   Ar  185   2.739   5.186   4.971
    1   AR   Ar  186   3.646   4.766   3.647
    1   AR   Ar  187   3.573   6.491   3.514
    1   AR   Ar  188   3.011   6.279   1.778
    1   AR   Ar  189   3.784   2.520   7.237
    1   AR   Ar  190   4.381   6.454   4.088
    1   AR   Ar  191   3.548   5.557   7.786
    1   AR   Ar  192   4.301   6.224   5.068
    1   AR   Ar  193   2.358   5.831   0.468
    1   AR   Ar  194   4.533   3.465  -1.067
    1   AR   Ar  195   5.442   0.843  -0.093
    1   AR   Ar  196   4.741   0.095   0.101
    1   AR   Ar  197   4.076   1.187   0.990
    1   AR   Ar  198   6.208   1.117   0.933
    1   AR   Ar  199   3.698   1.392   2.876
    1   AR   Ar  200   5.173   1.916   0.149
    1   AR   Ar  201   5.361   6.614   3.647
    1   AR   Ar  202   5.592   2.444   4.449
    1   AR   Ar  203   6.437   6.711   3.568
    1   AR   Ar  204   5.062   6.842   4.711
    1   AR   Ar  205   6.302   6.972   2.419
    1   AR   Ar  206   4.943   0.804   4.939
    1   AR   Ar  207   0.799   1.530   6.726
    1   AR   Ar  208   7.048   0.377   3.183
    1   AR   Ar  209   6.949   3.254  -2.594
    1   AR   Ar  210   3.415   0.869  -0.091
    1   AR   Ar  211   6.599   2.999   0.467
    1   AR   Ar  212   5.796   3.501  -1.434
    1   AR   Ar  213   2.998   1.297   1.925
    1   AR   Ar  214   4.505   3.369   2.908
    1   AR   Ar  215   5.887   2.212   1.245
    1   AR   Ar  216   0.920   3.720   1.739
    1   AR   Ar  217   5.183   3.266   4.284
    1   AR   Ar  218   4.443   3.180   5.228
    1   AR   Ar  219   4.959   2.539   3.590
    1   AR   Ar  220   4.350   3.693   1.821
    1   AR   Ar  221   6.235   6.621   5.062
    1   AR   Ar  222   4.014   0.987   6.916
    1   AR   Ar  223   0.094   1.031   7.622
    1   AR   Ar  224   4.799   3.231   6.259
    1   AR   Ar  225   6.396   3.251   2.383
    1   AR   Ar  226   3.109   4.298   3.022
    1   AR   Ar  227   7.058   3.543   1.408
    1   AR   Ar  228   5.703   6.444   1.743
    1   AR   Ar  229   5.438   4.055  -0.655
    1   AR   Ar  230   4.885   4.464   3.842
    1   AR   Ar  231   6.057   1.225   2.916
    1   AR   Ar  232   4.021   2.163   0.493
    1   AR   Ar  233   6.472   2.275   3.070
    1   AR   Ar  234   6.271   3.315   4.338
    1   AR   Ar  235   6.622   1.934   4.766
    1   AR   Ar  236   5.641   5.526   5.725
    1   AR   Ar  237   5.504   3.745   5.153
    1   AR   Ar  238   4.708   4.604   5.828
    1   AR   Ar  239   5.791   3.949   8.538
    1   AR   Ar  240   6.859   3.137   6.615
    1   AR   Ar  241   1.164   6.604  -0.622
    1   AR   Ar  242   5.106   4.563   0.298
    1   AR   Ar  243   5.701   4.189   2.392
    1   AR   Ar  244   0.888   5.332  -0.760
    1   AR   Ar  245   4.739   0.272   1.094
    1   AR   Ar  246   5.554   5.638   0.460
    1   AR   Ar  247   5.139   4.201   1.504
    1   AR   Ar  248   5.559   5.473  -0.534
    1   AR   Ar  249   4.222   5.908   2.233
    1   AR   Ar  250   5.229   5.799   4.384
    1   AR   Ar  251   5.726   5.152   3.498
    1   AR   Ar  252   4.381   5.596   3.453
    1   AR   Ar  253   6.255   3.809   5.958
    1   AR   Ar  254   1.946   4.071   9.181
    1   AR   Ar  255   4.347   3.163   8.037
    1   AR   Ar  256   6.899   5.690   3.731
    7.12000  7.12000 12.00000
Argon-slab step 3020
  256
    1   AR   Ar    1   6.919   1.313  -1.721
    1   AR   Ar    2   6.405   7.008   0.637
    1   AR   Ar    3   2.012   1.067   0.331
    1   AR   Ar    4   1.016   0.542  -0.437
    1   AR   Ar    5   0.171   6.685   0.995
    1   AR   Ar    6   7.099   0.777   2.294
    1   AR   Ar    7   6.548   4.303   3.225
    1   AR   Ar    8   5.858   0.419   1.603
    1   AR   Ar    9   1.028   0.100   3.029
    1   AR   Ar   10   0.682   0.485   3.973
    1   AR   Ar   11   1.933   6.151   3.927
    1   AR   Ar   12   0.830   1.424   2.695
    1   AR   Ar   13   7.016   0.961   4.979
    1   AR   Ar   14   0.274   2.172   7.410
    1   AR   Ar   15   4.976   1.109  10.568
    1   AR   Ar   16   0.900   0.500   5.113
    1   AR   Ar   17   6.287   2.044   0.092
    1   AR   Ar   18   6.649   2.733  -0.761
    1   AR   Ar   19   1.931   2.755   1.382
    1   AR   Ar   20   4.946   4.212  -1.752
    1   AR   Ar   21   4.803   1.806   1.352
    1   AR   Ar   22   6.499   1.910   2.128
    1   AR   Ar   23   6.581   0.461  -0.544
    1   AR   Ar   24   0.027   1.967   1.213
    1   AR   Ar   25   0.140   1.358   3.397
    1   AR   Ar   26   5.857   0.290   4.340
    1   AR   Ar   27   1.390   1.231   3.744
    1   AR   Ar   28   1.091   2.167   4.871
    1   AR   Ar   29   5.343   2.572   6.962
    1   AR   Ar   30   1.900   1.272   4.911
    1   AR   Ar   31   2.389   0.365   7.827
    1   AR   Ar   32   1.675   3.450   5.769
    1   AR   Ar   33   0.935   4.220  -0.736
    1   AR   Ar   34   0.272   5.098   2.723
    1   AR   Ar   35   6.417   5.150   0.977
    1   AR   Ar   36   6.861   0.401  -3.966
    1   AR   Ar   37   5.355   2.331   2.402
    1   AR   Ar   38   0.113   4.018   2.430
    1   AR   Ar   39   1.076   3.399   3.398
    1   AR   Ar   40   2.074   3.852   1.013
    1   AR   Ar   41   0.167   3.282   3.968
    1   AR   Ar   42   6.246   5.617   4.602
    1   AR   Ar   43   7.092   2.229   5.985
    1   AR   Ar   44   0.538   4.357   3.492
    1   AR   Ar   45   0.441   3.175   5.649
    1   AR   Ar   46   0.888   5.524   6.044
    1   AR   Ar   47   5.962   3.578   7.069
    1   AR   Ar   48   0.160   5.709   6.810
    1   AR   Ar   49   5.641   0.786  -1.086
    1   AR   Ar   50   5.257   5.277   1.414
    1   AR   Ar   51   0.051   4.862   1.776
    1   AR   Ar   52   5.694   4.872  -1.379
    1   AR   Ar   53   5.290   5.806   2.763
    1   AR   Ar   54   0.171   6.496   2.577
    1   AR   Ar   55   6.398   5.702   2.608
    1   AR   Ar   56   0.029   0.612   1.289
    1   AR   Ar   57   5.704   3.584   3.287
    1   AR   Ar   58   6.870   4.224   4.435
    1   AR   Ar   59   2.075   5.352   6.190
    1   AR   Ar   60   0.673   6.300   3.533
    1   AR   Ar   61   6.504   4.981   6.213
    1   AR   Ar   62   0.991   5.119   4.950
    1   AR   Ar   63   2.291   0.355   6.603
    1   AR   Ar   64   0.799   6.276   4.603
    1   AR   Ar   65   3.464   0.157   0.712
    1   AR   Ar   66   0.823   1.516   1.755
    1   AR   Ar   67   3.036   6.407  -1.848
    1   AR   Ar   68   2.824   1.589  -0.687
    1   AR   Ar   69   2.893   1.018   0.906
    1   AR   Ar   70   0.712   7.100   1.809
    1   AR   Ar   71   2.579   1.193   4.157
    1   AR   Ar   72   3.414   0.150   2.108
    1   AR   Ar   73   3.258   0.442   3.681
    1   AR   Ar   74   2.050   0.327   3.709
    1   AR   Ar   75   3.933   1.089   4.442
    1   AR   Ar   76   1.547   0.711   1.749
    1   AR   Ar   77   2.494   6.392   6.168
    1   AR   Ar   78   1.147   0.219   6.545
    1   AR   Ar   79   3.755   6.128   6.034
    1   AR   Ar   80   3.657   5.198   5.520
    1   AR   Ar   81   2.817   6.789   0.012
    1   AR   Ar   82   6.856   5.735  -0.815
    1   AR   Ar   83   0.478   2.486   0.522
    1   AR   Ar   84   6.910   3.909  -0.020
    1   AR   Ar   85   1.075   3.566   0.627
    1   AR   Ar   86   1.936   4.358  -0.577
    1   AR   Ar   87   1.829   1.671   1.312
    1   AR   Ar   88   2.280   4.998   1.390
    1   AR   Ar   89   0.256   2.925   2.316
    1   AR   Ar   90   2.319   2.595   4.866
    1   AR   Ar   91   0.890   2.373   3.739
    1   AR   Ar   92   1.386   2.321   2.259
    1   AR   Ar   93   1.957   0.395   5.499
    1   AR   Ar   94   0.846   6.767  10.543
    1   AR   Ar   95   4.017   1.262   5.731
    1   AR   Ar   96   2.878   0.327   4.895
    1   AR   Ar   97   4.991   1.928  -0.852
    1   AR   Ar   98   2.162   5.168   2.615
    1   AR   Ar   99   6.005   2.214  -1.707
    1   AR   Ar  100   2.129   3.282  -0.487
    1   AR   Ar  101   3.130   4.190   1.067
    1   AR   Ar  102   3.176   2.694   3.818
    1   AR   Ar  103   1.108   4.493   1.065
    1   AR   Ar  104   2.768   2.838  -1.191
    1   AR   Ar  105   1.475   3.132   4.428
    1   AR   Ar  106   3.335   3.591   5.112
    1   AR   Ar  107   0.748   4.173   4.530
    1   AR   Ar  108   3.335   2.501   4.974
    1   AR   Ar  109   1.825   4.687   4.494
    1   AR   Ar  110   1.280   4.301   6.270
    1   AR   Ar  111   4.827   4.248   7.690
    1   AR   Ar  112   1.375   5.816   7.159
    1   AR   Ar  113   2.856   4.656   0.121
    1   AR   Ar  114   2.102   6.548  -1.091
    1   AR   Ar  115   2.646   5.678  -0.834
    1   AR   Ar  116   6.369   6.608  -1.143
    1   AR   Ar  117   1.190   5.261   3.743
    1   AR   Ar  118   1.257   5.757   2.737
    1   AR   Ar  119   2.280   2.868   2.588
    1   AR   Ar  120   1.700   6.785   2.293
    1   AR   Ar  121   6.142   4.788   5.119
    1   AR   Ar  122   2.606   6.370   5.035
    1   AR   Ar  123   3.454   4.486   4.559
    1   AR   Ar  124   1.923   6.048   1.713
    1   AR   Ar  125   7.076   4.359   5.381
    1   AR   Ar  126   7.097   6.919   4.558
    1   AR   Ar  127   3.164   3.872   6.227
    1   AR   Ar  128   3.066   5.441   6.824
    1   AR   Ar  129   2.708   6.421   2.945
    1   AR   Ar  130   4.922   2.675  -1.540
    1   AR   Ar  131   4.401   1.229  -0.139
    1   AR   Ar  132   0.317   1.522  -0.506
    1   AR   Ar  133   4.535   6.619   2.975
    1   AR   Ar  134   4.793   1.517   3.832
    1   AR   Ar  135   5.476   0.365   2.831
    1   AR   Ar  136   4.769   0.039   2.170
    1   AR   Ar  137   2.770   5.346   3.720
    1   AR   Ar  138   4.707   1.794   5.126
    1   AR   Ar  139   5.524   2.502   5.756
    1   AR   Ar  140   3.913   0.043   4.815
    1   AR   Ar  141   3.647   5.532   4.548
    1   AR   Ar  142   3.165   0.048   5.814
    1   AR   Ar  143   7.019   0.102   5.614
    1   AR   Ar  144   5.969   1.343   5.735
    1   AR   Ar  145   4.302   3.458   0.096
    1   AR   Ar  146   3.756   2.370   2.291
    1   AR   Ar  147   5.200   1.394  -1.876
    1   AR   Ar  148   2.899   4.699  -1.334
    1   AR   Ar  149   3.003   2.134   1.257
    1   AR   Ar  150   1.883   1.366   2.773
    1   AR   Ar  151   2.218   2.081   3.618
    1   AR   Ar  152   3.190   3.551  -0.099
    1   AR   Ar  153   4.586   0.391   3.716
    1   AR   Ar  154   4.228   2.403   4.440
    1   AR   Ar  155   6.536   0.050   7.010
    1   AR   Ar  156   4.160   3.361   3.961
    1   AR   Ar  157   2.200   3.584   6.740
    1   AR   Ar  158   1.383   2.825   6.780
    1   AR   Ar  159   4.532   2.136   6.324
    1   AR   Ar  160   3.022   1.562   5.129
    1   AR   Ar  161   5.346   3.121   1.589
    1   AR   Ar  162   4.801   6.184  -0.098
    1   AR   Ar  163   4.870   2.761   0.750
    1   AR   Ar  164   3.308   5.279   1.424
    1   AR   Ar  165   3.675   3.337   1.136
    1   AR   Ar  166   2.344   3.793   4.781
    1   AR   Ar  167   4.250   0.877   2.009
    1   AR   Ar  168   5.179   2.937  -0.438
    1   AR   Ar  169   3.279   3.535   2.126
    1   AR   Ar  170   2.302   4.286   5.881
    1   AR   Ar  171   5.819   4.360   4.241
    1   AR   Ar  172   4.467   5.058   4.752
    1   AR   Ar  173   2.640   3.337   7.708
    1   AR   Ar  174   1.861   4.727   7.241
    1   AR   Ar  175   2.635   2.973   5.824
    1   AR   Ar  176   3.702   2.827   5.901
    1   AR   Ar  177   6.276   4.788  -0.046
    1   AR   Ar  178   3.913   4.818  -0.148
    1   AR   Ar  179   4.176   5.162   0.965
    1   AR   Ar  180   0.544   1.618  -2.568
    1   AR   Ar  181   0.718   5.873   1.750
    1   AR   Ar  182   2.506   0.553   2.758
    1   AR   Ar  183   3.346   5.324   2.703
    1   AR   Ar  184   4.395   6.325   1.320
    1   AR   Ar  185   2.731   5.212   4.984
    1   AR   Ar  186   3.647   4.721   3.644
    1   AR   Ar  187   3.561   6.468   3.487
    1   AR   Ar  188   2.999   6.259   1.751
    1   AR   Ar  189   3.782   2.527   7.230
    1   AR   Ar  190   4.428   6.450   4.099
    1   AR   Ar  191   3.546   5.565   7.767
    1   AR   Ar  192   4.283   6.211   5.089
    1   AR   Ar  193   2.387   5.857   0.492
    1   AR   Ar  194   4.553   3.456  -1.045
    1   AR   Ar  195   5.444   0.837  -0.032
    1   AR   Ar  196   4.716   0.052   0.086
    1   AR   Ar  197   4.076   1.211   0.992
    1   AR   Ar  198   6.191   1.146   0.914
    1   AR   Ar  199   3.687   1.374   2.896
    1   AR   Ar  200   5.170   1.937   0.172
    1   AR   Ar  201   5.381   6.603   3.636
    1   AR   Ar  202   5.559   2.397   4.442
    1   AR   Ar  203   6.422   6.730   3.511
    1   AR   Ar  204   5.060   6.864   4.692
    1   AR   Ar  205   6.310   6.966   2.421
    1   AR   Ar  206   4.938   0.773   4.953
    1   AR   Ar  207   0.830   1.533   6.730
    1   AR   Ar  208   7.033   0.371   3.193
    1   AR   Ar  209   6.981   3.275  -2.565
    1   AR   Ar  210   3.405   0.842  -0.107
    1   AR   Ar  211   6.592   2.992   0.476
    1   AR   Ar  212   5.818   3.488  -1.449
    1   AR   Ar  213   2.985   1.290   1.930
    1   AR   Ar  214   4.497   3.399   2.896
    1   AR   Ar  215   5.868   2.233   1.267
    1   AR   Ar  216   0.904   3.707   1.739
    1   AR   Ar  217   5.169   3.251   4.276
    1   AR   Ar  218   4.456   3.208   5.215
    1   AR   Ar  219   4.972   2.541   3.574
    1   AR   Ar  220   4.344   3.707   1.819
    1   AR   Ar  221   6.236   6.625   5.049
    1   AR   Ar  222   4.008   0.962   6.921
    1   AR   Ar  223   0.040   1.052   7.609
    1   AR   Ar  224   4.782   3.243   6.292
    1   AR   Ar  225   6.401   3.261   2.414
    1   AR   Ar  226   3.110   4.274   3.044
    1   AR   Ar  227   7.063   3.505   1.407
    1   AR   Ar  228   5.709   6.441   1.781
    1   AR   Ar  229   5.441   4.061  -0.645
    1   AR   Ar  230   4.886   4.478   3.857
    1   AR   Ar  231   6.065   1.223   2.941
    1   AR   Ar  232   4.056   2.194   0.498
    1   AR   Ar  233   6.486   2.334   3.052
    1   AR   Ar  234   6.267   3.303   4.351
    1   AR   Ar  235   6.629   1.940   4.772
    1   AR   Ar  236   5.654   5.538   5.715
    1   AR   Ar  237   5.517   3.753   5.176
    1   AR   Ar  238   4.716   4.609   5.801
    1   AR   Ar  239   5.769   3.955   8.523
    1   AR   Ar  240   6.837   3.155   6.625
    1   AR   Ar  241   1.175   6.603  -0.613
    1   AR   Ar  242   5.101   4.563   0.276
    1   AR   Ar  243   5.739   4.166   2.380
    1   AR   Ar  244   0.898   5.344  -0.774
    1   AR   Ar  245   4.765   0.300   1.080
    1   AR   Ar  246   5.545   5.643   0.441
    1   AR   Ar  247   5.152   4.175   1.496
    1   AR   Ar  248   5.548   5.485  -0.549
    1   AR   Ar  249   4.226   5.915   2.222
    1   AR   Ar  250   5.225   5.771   4.388
    1   AR   Ar  251   5.700   5.173   3.492
    1   AR   Ar  252   4.369   5.600   3.493
    1   AR   Ar  253   6.269   3.772   5.978
    1   AR   Ar  254   1.945   4.028   9.197
    1   AR   Ar  255   4.308   3.162   8.073
    1   AR   Ar  256   6.916   5.670   3.725
    7.12000  7.12000 12.00000
Argon-slab step 3025
  256
    1   AR   Ar    1   6.911   1.317  -1.757
    1   AR   Ar    2   6.415   7.016   0.644
    1   AR   Ar    3   2.022   1.057   0.336
    1   AR   Ar    4   1.038   0.564  -0.429
    1   AR   Ar    5   0.163   6.709   1.006
    1   AR   Ar    6   7.077   0.782   2.268
    1   AR   Ar    7   6.584   4.279   3.234
    1   AR   Ar    8   5.861   0.413   1.620
    1   AR   Ar    9   1.044   0.104   3.026
    1   AR   Ar   10   0.696   0.446   3.948
    1   AR   Ar   11   1.917   6.155   3.914
    1   AR   Ar   12   0.829   1.425   2.698
    1   AR   Ar   13   7.054   0.945   4.989
    1   AR   Ar   14   0.269   2.200   7.417
    1   AR   Ar   15   4.954   1.098  10.552
    1   AR   Ar   16   0.895   0.490   5.103
    1   AR   Ar   17   6.299   2.019   0.078
    1   AR   Ar   18   6.641   2.721  -0.737
    1   AR   Ar   19   1.954   2.742   1.397
    1   AR   Ar   20   4.923   4.214  -1.765
    1   AR   Ar   21   4.795   1.824   1.355
    1   AR   Ar   22   6.490   1.946   2.127
    1   AR   Ar   23   6.586   0.473  -0.545
    1   AR   Ar   24   0.009   1.981   1.181
    1   AR   Ar   25   0.177   1.362   3.411
    1   AR   Ar   26   5.854   0.283   4.371
    1   AR   Ar   27   1.400   1.223   3.713
    1   AR   Ar   28   1.056   2.158   4.866
    1   AR   Ar   29   5.410   2.605   6.982
    1   AR   Ar   30   1.897   1.278   4.875
    1   AR   Ar   31   2.415   0.376   7.838
    1   AR   Ar   32   1.646   3.454   5.764
    1   AR   Ar   33   0.925   4.225  -0.727
    1   AR   Ar   34   0.245   5.115   2.747
    1   AR   Ar   35   6.395   5.182   0.997
    1   AR   Ar   36   6.854   0.409  -3.976
    1   AR   Ar   37   5.357   2.318   2.393
    1   AR   Ar   38   0.115   4.036   2.430
    1   AR   Ar   39   1.084   3.409   3.396
    1   AR   Ar   40   2.068   3.869   1.031
    1   AR   Ar   41   0.158   3.263   3.956
    1   AR   Ar   42   6.221   5.645   4.597
    1   AR   Ar   43   7.087   2.239   5.980
    1   AR   Ar   44   0.524   4.343   3.471
    1   AR   Ar   45   0.474   3.172   5.664
    1   AR   Ar   46   0.877   5.502   6.081
    1   AR   Ar   47   5.987   3.621   7.062
    1   AR   Ar   48   0.181   5.716   6.808
    1   AR   Ar   49   5.645   0.777  -1.066
    1   AR   Ar   50   5.290   5.264   1.446
    1   AR   Ar   51   0.024   4.833   1.767
    1   AR   Ar   52   5.700   4.878  -1.377
    1   AR   Ar   53   5.264   5.782   2.769
    1   AR   Ar   54   0.184   6.491   2.578
    1   AR   Ar   55   6.413   5.729   2.588
    1   AR   Ar   56   0.042   0.663   1.295
    1   AR   Ar   57   5.724   3.585   3.278
    1   AR   Ar   58   6.854   4.239   4.443
    1   AR   Ar   59   2.112   5.352   6.178
    1   AR   Ar   60   0.637   6.284   3.514
    1   AR   Ar   61   6.523   4.977   6.234
    1   AR   Ar   62   1.004   5.117   4.923
    1   AR   Ar   63   2.355   0.334   6.641
    1   AR   Ar   64   0.768   6.255   4.589
    1   AR   Ar   65   3.453   0.147   0.707
    1   AR   Ar   66   0.838   1.554   1.734
    1   AR   Ar   67   3.050   6.433  -1.839
    1   AR   Ar   68   2.833   1.554  -0.680
    1   AR   Ar   69   2.914   1.007   0.891
    1   AR   Ar   70   0.702   7.112   1.852
    1   AR   Ar   71   2.596   1.167   4.162
    1   AR   Ar   72   3.413   0.166   2.088
    1   AR   Ar   73   3.270   0.450   3.688
    1   AR   Ar   74   2.061   0.321   3.719
    1   AR   Ar   75   3.950   1.088   4.449
    1   AR   Ar   76   1.541   0.715   1.748
    1   AR   Ar   77   2.512   6.391   6.167
    1   AR   Ar   78   1.112   0.199   6.548
    1   AR   Ar   79   3.740   6.131   6.048
    1   AR   Ar   80   3.679   5.201   5.508
    1   AR   Ar   81   2.827   6.769  -0.007
    1   AR   Ar   82   6.868   5.728  -0.806
    1   AR   Ar   83   0.456   2.504   0.528
    1   AR   Ar   84   6.925   3.908  -0.005
    1   AR   Ar   85   1.083   3.575   0.606
    1   AR   Ar   86   1.901   4.390  -0.569
    1   AR   Ar   87   1.817   1.664   1.276
    1   AR   Ar   88   2.272   5.013   1.366
    1   AR   Ar   89   0.284   2.910   2.347
    1   AR   Ar   90   2.337   2.605   4.854
    1   AR   Ar   91   0.901   2.403   3.733
    1   AR   Ar   92   1.368   2.335   2.226
    1   AR   Ar   93   1.982   0.399   5.489
    1   AR   Ar   94   0.829   6.756  10.557
    1   AR   Ar   95   4.006   1.295   5.731
    1   AR   Ar   96   2.891   0.361   4.892
    1   AR   Ar   97   4.992   1.916  -0.821
    1   AR   Ar   98   2.160   5.123   2.608
    1   AR   Ar   99   5.996   2.216  -1.660
    1   AR   Ar  100   2.106   3.284  -0.478
    1   AR   Ar  101   3.132   4.178   1.091
    1   AR   Ar  102   3.191   2.696   3.816
    1   AR   Ar  103   1.106   4.499   1.080
    1   AR   Ar  104   2.764   2.846  -1.201
    1   AR   Ar  105   1.476   3.136   4.441
    1   AR   Ar  106   3.339   3.578   5.110
    1   AR   Ar  107   0.768   4.154   4.515
    1   AR   Ar  108   3.340   2.502   4.957
    1   AR   Ar  109   1.796   4.677   4.522
    1   AR   Ar  110   1.298   4.295   6.284
    1   AR   Ar  111   4.832   4.200   7.707
    1   AR   Ar  112   1.353   5.808   7.147
    1   AR   Ar  113   2.901   4.652   0.112
    1   AR   Ar  114   2.100   6.530  -1.132
    1   AR   Ar  115   2.616   5.691  -0.857
    1   AR   Ar  116   6.352   6.586  -1.126
    1   AR   Ar  117   1.205   5.269   3.709
    1   AR   Ar  118   1.238   5.737   2.736
    1   AR   Ar  119   2.275   2.871   2.596
    1   AR   Ar  120   1.722   6.794   2.291
    1   AR   Ar  121   6.132   4.792   5.127
    1   AR   Ar  122   2.594   6.374   5.051
    1   AR   Ar  123   3.463   4.426   4.569
    1   AR   Ar  124   1.909   6.055   1.702
    1   AR   Ar  125   7.048   4.340   5.386
    1   AR   Ar  126   0.010   6.917   4.555
    1   AR   Ar  127   3.168   3.891   6.218
    1   AR   Ar  128   3.081   5.429   6.818
    1   AR   Ar  129   2.736   6.416   2.947
    1   AR   Ar  130   4.924   2.672  -1.581
    1   AR   Ar  131   4.388   1.245  -0.128
    1   AR   Ar  132   0.316   1.538  -0.518
    1   AR   Ar  133   4.533   6.591   2.976
    1   AR   Ar  134   4.786   1.541   3.872
    1   AR   Ar  135   5.506   0.346   2.794
    1   AR   Ar  136   4.761   0.031   2.172
    1   AR   Ar  137   2.777   5.340   3.726
    1   AR   Ar  138   4.721   1.783   5.121
    1   AR   Ar  139   5.523   2.525   5.767
    1   AR   Ar  140   3.906   0.059   4.809
    1   AR   Ar  141   3.663   5.526   4.546
    1   AR   Ar  142   3.162   0.055   5.828
    1   AR   Ar  143   6.992   0.108   5.654
    1   AR   Ar  144   6.024   1.337   5.743
    1   AR   Ar  145   4.335   3.448   0.125
    1   AR   Ar  146   3.753   2.353   2.292
    1   AR   Ar  147   5.192   1.373  -1.848
    1   AR   Ar  148   2.921   4.705  -1.311
    1   AR   Ar  149   2.966   2.150   1.284
    1   AR   Ar  150   1.870   1.373   2.771
    1   AR   Ar  151   2.198   2.059   3.639
    1   AR   Ar  152   3.150   3.527  -0.088
    1   AR   Ar  153   4.589   0.385   3.738
    1   AR   Ar  154   4.233   2.396   4.457
    1   AR   Ar  155   6.565   0.054   6.999
    1   AR   Ar  156   4.172   3.364   3.958
    1   AR   Ar  157   2.174   3.599   6.752
    1   AR   Ar  158   1.416   2.827   6.773
    1   AR   Ar  159   4.520   2.126   6.333
    1   AR   Ar  160   3.008   1.553   5.126
    1   AR   Ar  161   5.332   3.107   1.587
    1   AR   Ar  162   4.778   6.183  -0.106
    1   AR   Ar  163   4.851   2.812   0.780
    1   AR   Ar  164   3.279   5.248   1.423
    1   AR   Ar  165   3.696   3.332   1.127
    1   AR   Ar  166   2.364   3.801   4.797
    1   AR   Ar  167   4.248   0.886   2.008
    1   AR   Ar  168   5.153   2.927  -0.449
    1   AR   Ar  169   3.276   3.584   2.160
    1   AR   Ar  170   2.309   4.274   5.892
    1   AR   Ar  171   5.821   4.362   4.259
    1   AR   Ar  172   4.495   5.060   4.771
    1   AR   Ar  173   2.650   3.369   7.735
    1   AR   Ar  174   1.873   4.740   7.249
    1   AR   Ar  175   2.659   2.995   5.858
    1   AR   Ar  176   3.732   2.797   5.923
    1   AR   Ar  177   6.291   4.764  -0.046
    1   AR   Ar  178   3.897   4.863  -0.127
    1   AR   Ar  179   4.164   5.172   0.952
    1   AR   Ar  180   0.559   1.615  -2.555
    1   AR   Ar  181   0.723   5.884   1.776
    1   AR   Ar  182   2.513   0.540   2.758
    1   AR   Ar  183   3.343   5.338   2.685
    1   AR   Ar  184   4.412   6.315   1.272
    1   AR   Ar  185   2.718   5.237   4.996
    1   AR   Ar  186   3.676   4.697   3.647
    1   AR   Ar  187   3.553   6.444   3.464
    1   AR   Ar  188   2.994   6.254   1.732
    1   AR   Ar  189   3.773   2.504   7.222
    1   AR   Ar  190   4.399   6.430   4.111
    1   AR   Ar  191   3.546   5.573   7.750
    1   AR   Ar  192   4.267   6.193   5.115
    1   AR   Ar  193   2.416   5.882   0.516
    1   AR   Ar  194   4.521   3.480  -1.052
    1   AR   Ar  195   5.446   0.841  -0.010
    1   AR   Ar  196   4.687   0.016   0.067
    1   AR   Ar  197   4.068   1.229   0.988
    1   AR   Ar  198   6.175   1.178   0.893
    1   AR   Ar  199   3.674   1.354   2.916
    1   AR   Ar  200   5.151   1.929   0.191
    1   AR   Ar  201   5.401   6.592   3.626
    1   AR   Ar  202   5.535   2.330   4.443
    1   AR   Ar  203   6.406   6.745   3.456
    1   AR   Ar  204   5.066   6.888   4.683
    1   AR   Ar  205   6.323   6.961   2.425
    1   AR   Ar  206   4.956   0.736   4.941
    1   AR   Ar  207   0.862   1.535   6.734
    1   AR   Ar  208   7.020   0.359   3.210
    1   AR   Ar  209   7.013   3.295  -2.537
    1   AR   Ar  210   3.383   0.817  -0.133
    1   AR   Ar  211   6.592   2.983   0.490
    1   AR   Ar  212   5.840   3.472  -1.465
    1   AR   Ar  213   2.981   1.300   1.931
    1   AR   Ar  214   4.491   3.428   2.884
    1   AR   Ar  215   5.851   2.251   1.286
    1   AR   Ar  216   0.892   3.692   1.742
    1   AR   Ar  217   5.149   3.261   4.268
    1   AR   Ar  218   4.471   3.236   5.199
    1   AR   Ar  219   4.986   2.540   3.540
    1   AR   Ar  220   4.332   3.718   1.824
    1   AR   Ar  221   6.233   6.628   5.038
    1   AR   Ar  222   4.001   0.938   6.924
    1   AR   Ar  223   7.107   1.073   7.594
    1   AR   Ar  224   4.766   3.254   6.324
    1   AR   Ar  225   6.401   3.272   2.445
    1   AR   Ar  226   3.090   4.233   3.043
    1   AR   Ar  227   7.029   3.511   1.396
    1   AR   Ar  228   5.712   6.438   1.825
    1   AR   Ar  229   5.443   4.068  -0.632
    1   AR   Ar  230   4.881   4.494   3.868
    1   AR   Ar  231   6.077   1.225   2.966
    1   AR   Ar  232   4.087   2.222   0.502
    1   AR   Ar  233   6.500   2.395   3.040
    1   AR   Ar  234   6.263   3.307   4.339
    1   AR   Ar  235   6.649   1.959   4.765
    1   AR   Ar  236   5.667   5.552   5.704
    1   AR   Ar  237   5.530   3.761   5.199
    1   AR   Ar  238   4.725   4.613   5.774
    1   AR   Ar  239   5.747   3.960   8.507
    1   AR   Ar  240   6.820   3.169   6.635
    1   AR   Ar  241   1.184   6.612  -0.606
    1   AR   Ar  242   5.095   4.563   0.255
    1   AR   Ar  243   5.779   4.144   2.369
    1   AR   Ar  244   0.882   5.355  -0.767
    1   AR   Ar  245   4.791   0.330   1.072
    1   AR   Ar  246   5.538   5.648   0.430
    1   AR   Ar  247   5.173   4.156   1.481
    1   AR   Ar  248   5.537   5.496  -0.569
    1   AR   Ar  249   4.219   5.912   2.224
    1   AR   Ar  250   5.214   5.783   4.382
    1   AR   Ar  251   5.676   5.193   3.489
    1   AR   Ar  252   4.358   5.600   3.533
    1   AR   Ar  253   6.282   3.737   5.997
    1   AR   Ar  254   1.945   3.984   9.213
    1   AR   Ar  255   4.270   3.162   8.107
    1   AR   Ar  256   6.932   5.650   3.717
    7.12000  7.12000 12.00000
Argon-slab step 3030
  256
    1   AR   Ar    1   6.902   1.321  -1.791
    1   AR   Ar    2   6.414   7.029   0.648
    1   AR   Ar    3   2.031   1.048   0.339
    1   AR   Ar    4   1.058   0.586  -0.419
    1   AR   Ar    5   0.165   6.728   1.020
    1   AR   Ar    6   7.054   0.792   2.250
    1   AR   Ar    7   6.617   4.257   3.246
    1   AR   Ar    8   5.883   0.393   1.623
    1   AR   Ar    9   1.053   0.107   3.025
    1   AR   Ar   10   0.708   0.406   3.928
    1   AR   Ar   11   1.904   6.163   3.905
    1   AR   Ar   12   0.835   1.425   2.705
    1   AR   Ar   13   7.089   0.930   4.996
    1   AR   Ar   14   0.265   2.229   7.423
    1   AR   Ar   15   4.946   1.070  10.510
    1   AR   Ar   16   0.892   0.480   5.092
    1   AR   Ar   17   6.310   1.992   0.065
    1   AR   Ar   18   6.633   2.710  -0.711
    1   AR   Ar   19   1.979   2.730   1.412
    1   AR   Ar   20   4.900   4.215  -1.777
    1   AR   Ar   21   4.792   1.847   1.360
    1   AR   Ar   22   6.481   1.978   2.121
    1   AR   Ar   23   6.591   0.484  -0.545
    1   AR   Ar   24   0.016   1.962   1.209
    1   AR   Ar   25   0.204   1.367   3.438
    1   AR   Ar   26   5.851   0.294   4.372
    1   AR   Ar   27   1.409   1.216   3.676
    1   AR   Ar   28   1.021   2.150   4.860
    1   AR   Ar   29   5.478   2.639   7.001
    1   AR   Ar   30   1.888   1.287   4.843
    1   AR   Ar   31   2.441   0.387   7.848
    1   AR   Ar   32   1.617   3.452   5.756
    1   AR   Ar   33   0.909   4.222  -0.709
    1   AR   Ar   34   0.218   5.135   2.776
    1   AR   Ar   35   6.379   5.202   0.996
    1   AR   Ar   36   6.848   0.418  -3.986
    1   AR   Ar   37   5.360   2.306   2.384
    1   AR   Ar   38   0.118   4.050   2.432
    1   AR   Ar   39   1.093   3.420   3.393
    1   AR   Ar   40   2.061   3.886   1.049
    1   AR   Ar   41   0.185   3.251   3.947
    1   AR   Ar   42   6.200   5.677   4.587
    1   AR   Ar   43   7.082   2.247   5.975
    1   AR   Ar   44   0.509   4.329   3.450
    1   AR   Ar   45   0.508   3.171   5.678
    1   AR   Ar   46   0.861   5.482   6.079
    1   AR   Ar   47   6.006   3.665   7.057
    1   AR   Ar   48   0.198   5.723   6.809
    1   AR   Ar   49   5.650   0.767  -1.046
    1   AR   Ar   50   5.303   5.265   1.456
    1   AR   Ar   51   7.117   4.806   1.751
    1   AR   Ar   52   5.708   4.882  -1.377
    1   AR   Ar   53   5.235   5.762   2.770
    1   AR   Ar   54   0.197   6.486   2.578
    1   AR   Ar   55   6.429   5.757   2.569
    1   AR   Ar   56   0.054   0.714   1.288
    1   AR   Ar   57   5.743   3.584   3.273
    1   AR   Ar   58   6.834   4.254   4.433
    1   AR   Ar   59   2.147   5.350   6.167
    1   AR   Ar   60   0.604   6.269   3.495
    1   AR   Ar   61   6.543   4.972   6.254
    1   AR   Ar   62   1.014   5.112   4.896
    1   AR   Ar   63   2.420   0.312   6.677
    1   AR   Ar   64   0.744   6.228   4.576
    1   AR   Ar   65   3.447   0.133   0.704
    1   AR   Ar   66   0.850   1.590   1.697
    1   AR   Ar   67   3.063   6.459  -1.829
    1   AR   Ar   68   2.842   1.522  -0.674
    1   AR   Ar   69   2.936   1.000   0.878
    1   AR   Ar   70   0.694   0.004   1.898
    1   AR   Ar   71   2.618   1.141   4.161
    1   AR   Ar   72   3.404   0.182   2.070
    1   AR   Ar   73   3.270   0.477   3.694
    1   AR   Ar   74   2.071   0.314   3.729
    1   AR   Ar   75   3.966   1.088   4.456
    1   AR   Ar   76   1.544   0.714   1.763
    1   AR   Ar   77   2.530   6.390   6.166
    1   AR   Ar   78   1.078   0.179   6.550
    1   AR   Ar   79   3.721   6.136   6.064
    1   AR   Ar   80   3.701   5.199   5.503
    1   AR   Ar   81   2.837   6.748  -0.028
    1   AR   Ar   82   6.882   5.716  -0.794
    1   AR   Ar   83   0.445   2.535   0.520
    1   AR   Ar   84   6.947   3.906   0.017
    1   AR   Ar   85   1.089   3.578   0.583
    1   AR   Ar   86   1.875   4.423  -0.558
    1   AR   Ar   87   1.807   1.658   1.241
    1   AR   Ar   88   2.259   5.026   1.341
    1   AR   Ar   89   0.278   2.885   2.379
    1   AR   Ar   90   2.349   2.615   4.841
    1   AR   Ar   91   0.912   2.431   3.728
    1   AR   Ar   92   1.350   2.349   2.194
    1   AR   Ar   93   2.006   0.400   5.481
    1   AR   Ar   94   0.811   6.746  10.571
    1   AR   Ar   95   3.994   1.325   5.731
    1   AR   Ar   96   2.902   0.398   4.882
    1   AR   Ar   97   4.994   1.900  -0.795
    1   AR   Ar   98   2.162   5.091   2.603
    1   AR   Ar   99   5.986   2.219  -1.611
    1   AR   Ar  100   2.081   3.288  -0.466
    1   AR   Ar  101   3.139   4.185   1.095
    1   AR   Ar  102   3.205   2.699   3.815
    1   AR   Ar  103   1.104   4.510   1.097
    1   AR   Ar  104   2.762   2.853  -1.211
    1   AR   Ar  105   1.510   3.160   4.408
    1   AR   Ar  106   3.346   3.544   5.105
    1   AR   Ar  107   0.792   4.131   4.501
    1   AR   Ar  108   3.350   2.508   4.940
    1   AR   Ar  109   1.775   4.663   4.546
    1   AR   Ar  110   1.315   4.293   6.301
    1   AR   Ar  111   4.838   4.151   7.725
    1   AR   Ar  112   1.331   5.798   7.133
    1   AR   Ar  113   2.942   4.648   0.103
    1   AR   Ar  114   2.098   6.516  -1.176
    1   AR   Ar  115   2.589   5.699  -0.878
    1   AR   Ar  116   6.332   6.568  -1.109
    1   AR   Ar  117   1.218   5.276   3.678
    1   AR   Ar  118   1.220   5.719   2.732
    1   AR   Ar  119   2.272   2.874   2.603
    1   AR   Ar  120   1.740   6.817   2.300
    1   AR   Ar  121   6.121   4.791   5.143
    1   AR   Ar  122   2.584   6.378   5.066
    1   AR   Ar  123   3.469   4.370   4.588
    1   AR   Ar  124   1.897   6.047   1.682
    1   AR   Ar  125   7.026   4.320   5.407
    1   AR   Ar  126   0.024   6.912   4.532
    1   AR   Ar  127   3.180   3.907   6.212
    1   AR   Ar  128   3.094   5.417   6.807
    1   AR   Ar  129   2.749   6.409   2.939
    1   AR   Ar  130   4.928   2.667  -1.625
    1   AR   Ar  131   4.376   1.260  -0.116
    1   AR   Ar  132   0.313   1.555  -0.530
    1   AR   Ar  133   4.529   6.560   2.985
    1   AR   Ar  134   4.778   1.563   3.913
    1   AR   Ar  135   5.535   0.327   2.762
    1   AR   Ar  136   4.758   0.019   2.162
    1   AR   Ar  137   2.784   5.334   3.732
    1   AR   Ar  138   4.740   1.772   5.119
    1   AR   Ar  139   5.521   2.548   5.777
    1   AR   Ar  140   3.902   0.073   4.802
    1   AR   Ar  141   3.668   5.529   4.531
    1   AR   Ar  142   3.159   0.060   5.849
    1   AR   Ar  143   6.979   0.121   5.645
    1   AR   Ar  144   6.079   1.333   5.749
    1   AR   Ar  145   4.365   3.441   0.151
    1   AR   Ar  146   3.751   2.335   2.293
    1   AR   Ar  147   5.183   1.355  -1.820
    1   AR   Ar  148   2.942   4.712  -1.286
    1   AR   Ar  149   2.929   2.167   1.309
    1   AR   Ar  150   1.860   1.382   2.766
    1   AR   Ar  151   2.177   2.038   3.660
    1   AR   Ar  152   3.154   3.513  -0.096
    1   AR   Ar  153   4.592   0.378   3.761
    1   AR   Ar  154   4.242   2.390   4.468
    1   AR   Ar  155   6.595   0.059   6.989
    1   AR   Ar  156   4.178   3.369   3.954
    1   AR   Ar  157   2.150   3.617   6.764
    1   AR   Ar  158   1.412   2.826   6.767
    1   AR   Ar  159   4.508   2.116   6.342
    1   AR   Ar  160   2.992   1.539   5.124
    1   AR   Ar  161   5.323   3.098   1.598
    1   AR   Ar  162   4.756   6.169  -0.117
    1   AR   Ar  163   4.835   2.863   0.805
    1   AR   Ar  164   3.247   5.217   1.427
    1   AR   Ar  165   3.717   3.317   1.113
    1   AR   Ar  166   2.381   3.807   4.813
    1   AR   Ar  167   4.242   0.901   2.006
    1   AR   Ar  168   5.130   2.916  -0.458
    1   AR   Ar  169   3.272   3.630   2.192
    1   AR   Ar  170   2.310   4.267   5.897
    1   AR   Ar  171   5.823   4.360   4.271
    1   AR   Ar  172   4.533   5.056   4.792
    1   AR   Ar  173   2.690   3.377   7.727
    1   AR   Ar  174   1.894   4.762   7.254
    1   AR   Ar  175   2.682   3.017   5.891
    1   AR   Ar  176   3.762   2.769   5.947
    1   AR   Ar  177   6.303   4.741  -0.047
    1   AR   Ar  178   3.906   4.870  -0.115
    1   AR   Ar  179   4.162   5.180   0.935
    1   AR   Ar  180   0.573   1.612  -2.542
    1   AR   Ar  181   0.727   5.896   1.801
    1   AR   Ar  182   2.522   0.525   2.756
    1   AR   Ar  183   3.366   5.319   2.682
    1   AR   Ar  184   4.431   6.307   1.220
    1   AR   Ar  185   2.702   5.261   5.009
    1   AR   Ar  186   3.721   4.688   3.652
    1   AR   Ar  187   3.558   6.420   3.448
    1   AR   Ar  188   2.998   6.270   1.726
    1   AR   Ar  189   3.761   2.462   7.213
    1   AR   Ar  190   4.363   6.413   4.118
    1   AR   Ar  191   3.547   5.582   7.735
    1   AR   Ar  192   4.252   6.173   5.144
    1   AR   Ar  193   2.446   5.905   0.542
    1   AR   Ar  194   4.486   3.510  -1.057
    1   AR   Ar  195   5.448   0.846   0.015
    1   AR   Ar  196   4.699   0.032   0.082
    1   AR   Ar  197   4.053   1.241   0.979
    1   AR   Ar  198   6.160   1.211   0.870
    1   AR   Ar  199   3.662   1.334   2.936
    1   AR   Ar  200   5.136   1.923   0.218
    1   AR   Ar  201   5.416   6.580   3.616
    1   AR   Ar  202   5.514   2.256   4.447
    1   AR   Ar  203   6.389   6.750   3.406
    1   AR   Ar  204   5.071   6.904   4.680
    1   AR   Ar  205   6.347   6.960   2.431
    1   AR   Ar  206   4.972   0.707   4.929
    1   AR   Ar  207   0.893   1.537   6.737
    1   AR   Ar  208   7.013   0.349   3.226
    1   AR   Ar  209   7.044   3.314  -2.508
    1   AR   Ar  210   3.361   0.792  -0.158
    1   AR   Ar  211   6.594   2.970   0.506
    1   AR   Ar  212   5.861   3.455  -1.481
    1   AR   Ar  213   2.981   1.313   1.935
    1   AR   Ar  214   4.485   3.456   2.872
    1   AR   Ar  215   5.835   2.267   1.302
    1   AR   Ar  216   0.883   3.675   1.746
    1   AR   Ar  217   5.132   3.281   4.264
    1   AR   Ar  218   4.485   3.263   5.182
    1   AR   Ar  219   4.999   2.539   3.501
    1   AR   Ar  220   4.318   3.726   1.834
    1   AR   Ar  221   6.221   6.635   5.038
    1   AR   Ar  222   3.994   0.915   6.926
    1   AR   Ar  223   7.097   1.079   7.578
    1   AR   Ar  224   4.749   3.265   6.354
    1   AR   Ar  225   6.400   3.283   2.474
    1   AR   Ar  226   3.058   4.184   3.030
    1   AR   Ar  227   6.993   3.516   1.385
    1   AR   Ar  228   5.708   6.430   1.865
    1   AR   Ar  229   5.445   4.074  -0.621
    1   AR   Ar  230   4.886   4.503   3.875
    1   AR   Ar  231   6.092   1.228   2.990
    1   AR   Ar  232   4.112   2.246   0.503
    1   AR   Ar  233   6.514   2.457   3.036
    1   AR   Ar  234   6.259   3.320   4.311
    1   AR   Ar  235   6.669   1.980   4.757
    1   AR   Ar  236   5.678   5.567   5.693
    1   AR   Ar  237   5.542   3.770   5.221
    1   AR   Ar  238   4.734   4.617   5.744
    1   AR   Ar  239   5.724   3.966   8.490
    1   AR   Ar  240   6.811   3.177   6.646
    1   AR   Ar  241   1.189   6.636  -0.605
    1   AR   Ar  242   5.088   4.566   0.236
    1   AR   Ar  243   5.816   4.129   2.364
    1   AR   Ar  244   0.848   5.364  -0.745
    1   AR   Ar  245   4.817   0.362   1.068
    1   AR   Ar  246   5.533   5.652   0.428
    1   AR   Ar  247   5.200   4.142   1.461
    1   AR   Ar  248   5.526   5.509  -0.592
    1   AR   Ar  249   4.196   5.897   2.239
    1   AR   Ar  250   5.199   5.795   4.375
    1   AR   Ar  251   5.656   5.210   3.491
    1   AR   Ar  252   4.353   5.583   3.561
    1   AR   Ar  253   6.291   3.708   6.009
    1   AR   Ar  254   1.945   3.941   9.228
    1   AR   Ar  255   4.232   3.161   8.141
    1   AR   Ar  256   6.945   5.628   3.709
    7.12000  7.12000 12.00000
Argon-slab step 3035
  256
    1   AR   Ar    1   6.893   1.325  -1.824
    1   AR   Ar    2   6.403   7.046   0.649
    1   AR   Ar    3   2.037   1.038   0.339
    1   AR   Ar    4   1.079   0.611  -0.410
    1   AR   Ar    5   0.176   6.743   1.039
    1   AR   Ar    6   7.030   0.804   2.246
    1   AR   Ar    7   6.643   4.235   3.261
    1   AR   Ar    8   5.905   0.375   1.625
    1   AR   Ar    9   1.040   0.109   3.040
    1   AR   Ar   10   0.719   0.368   3.917
    1   AR   Ar   11   1.895   6.177   3.906
    1   AR   Ar   12   0.846   1.423   2.706
    1   AR   Ar   13   0.000   0.920   5.000
    1   AR   Ar   14   0.260   2.257   7.428
    1   AR   Ar   15   4.938   1.043  10.468
    1   AR   Ar   16   0.894   0.466   5.080
    1   AR   Ar   17   6.319   1.964   0.053
    1   AR   Ar   18   6.623   2.699  -0.686
    1   AR   Ar   19   2.003   2.722   1.426
    1   AR   Ar   20   4.879   4.216  -1.788
    1   AR   Ar   21   4.777   1.857   1.342
    1   AR   Ar   22   6.473   2.007   2.112
    1   AR   Ar   23   6.596   0.496  -0.544
    1   AR   Ar   24   0.022   1.932   1.254
    1   AR   Ar   25   0.221   1.373   3.477
    1   AR   Ar   26   5.853   0.319   4.350
    1   AR   Ar   27   1.416   1.208   3.644
    1   AR   Ar   28   0.987   2.142   4.854
    1   AR   Ar   29   5.545   2.673   7.017
    1   AR   Ar   30   1.873   1.297   4.814
    1   AR   Ar   31   2.468   0.398   7.857
    1   AR   Ar   32   1.589   3.445   5.745
    1   AR   Ar   33   0.884   4.217  -0.690
    1   AR   Ar   34   0.203   5.148   2.800
    1   AR   Ar   35   6.362   5.222   0.996
    1   AR   Ar   36   6.841   0.427  -3.996
    1   AR   Ar   37   5.365   2.295   2.374
    1   AR   Ar   38   0.123   4.058   2.434
    1   AR   Ar   39   1.105   3.433   3.388
    1   AR   Ar   40   2.054   3.903   1.067
    1   AR   Ar   41   0.191   3.252   3.932
    1   AR   Ar   42   6.183   5.709   4.575
    1   AR   Ar   43   7.076   2.255   5.969
    1   AR   Ar   44   0.498   4.317   3.432
    1   AR   Ar   45   0.541   3.170   5.693
    1   AR   Ar   46   0.845   5.461   6.048
    1   AR   Ar   47   6.021   3.712   7.056
    1   AR   Ar   48   0.211   5.732   6.815
    1   AR   Ar   49   5.655   0.758  -1.026
    1   AR   Ar   50   5.302   5.276   1.450
    1   AR   Ar   51   7.090   4.782   1.731
    1   AR   Ar   52   5.718   4.880  -1.381
    1   AR   Ar   53   5.203   5.747   2.764
    1   AR   Ar   54   0.206   6.481   2.577
    1   AR   Ar   55   6.443   5.787   2.550
    1   AR   Ar   56   0.067   0.765   1.267
    1   AR   Ar   57   5.755   3.587   3.273
    1   AR   Ar   58   6.816   4.267   4.412
    1   AR   Ar   59   2.181   5.347   6.155
    1   AR   Ar   60   0.577   6.257   3.480
    1   AR   Ar   61   6.563   4.966   6.271
    1   AR   Ar   62   1.014   5.106   4.869
    1   AR   Ar   63   2.483   0.289   6.713
    1   AR   Ar   64   0.727   6.194   4.564
    1   AR   Ar   65   3.447   0.115   0.704
    1   AR   Ar   66   0.860   1.622   1.655
    1   AR   Ar   67   3.074   6.484  -1.818
    1   AR   Ar   68   2.848   1.493  -0.669
    1   AR   Ar   69   2.957   0.999   0.868
    1   AR   Ar   70   0.687   0.018   1.945
    1   AR   Ar   71   2.643   1.118   4.155
    1   AR   Ar   72   3.364   0.201   2.054
    1   AR   Ar   73   3.273   0.501   3.698
    1   AR   Ar   74   2.079   0.305   3.739
    1   AR   Ar   75   3.981   1.090   4.464
    1   AR   Ar   76   1.548   0.713   1.780
    1   AR   Ar   77   2.547   6.386   6.167
    1   AR   Ar   78   1.044   0.159   6.551
    1   AR   Ar   79   3.699   6.141   6.083
    1   AR   Ar   80   3.727   5.163   5.526
    1   AR   Ar   81   2.845   6.728  -0.052
    1   AR   Ar   82   6.895   5.702  -0.782
    1   AR   Ar   83   0.441   2.573   0.504
    1   AR   Ar   84   6.971   3.900   0.040
    1   AR   Ar   85   1.096   3.583   0.592
    1   AR   Ar   86   1.861   4.459  -0.546
    1   AR   Ar   87   1.800   1.652   1.205
    1   AR   Ar   88   2.238   5.038   1.315
    1   AR   Ar   89   0.240   2.842   2.416
    1   AR   Ar   90   2.355   2.626   4.828
    1   AR   Ar   91   0.924   2.454   3.723
    1   AR   Ar   92   1.333   2.364   2.167
    1   AR   Ar   93   2.030   0.400   5.476
    1   AR   Ar   94   0.794   6.735  10.585
    1   AR   Ar   95   3.978   1.355   5.731
    1   AR   Ar   96   2.910   0.436   4.868
    1   AR   Ar   97   4.996   1.882  -0.776
    1   AR   Ar   98   2.174   5.108   2.604
    1   AR   Ar   99   5.975   2.221  -1.560
    1   AR   Ar  100   2.056   3.294  -0.454
    1   AR   Ar  101   3.149   4.204   1.086
    1   AR   Ar  102   3.220   2.701   3.817
    1   AR   Ar  103   1.103   4.526   1.114
    1   AR   Ar  104   2.761   2.860  -1.221
    1   AR   Ar  105   1.542   3.184   4.376
    1   AR   Ar  106   3.355   3.500   5.110
    1   AR   Ar  107   0.817   4.105   4.487
    1   AR   Ar  108   3.363   2.514   4.927
    1   AR   Ar  109   1.773   4.641   4.560
    1   AR   Ar  110   1.330   4.295   6.320
    1   AR   Ar  111   4.846   4.172   7.693
    1   AR   Ar  112   1.309   5.788   7.118
    1   AR   Ar  113   2.975   4.643   0.095
    1   AR   Ar  114   2.080   6.508  -1.170
    1   AR   Ar  115   2.567   5.699  -0.894
    1   AR   Ar  116   6.310   6.552  -1.093
    1   AR   Ar  117   1.230   5.281   3.651
    1   AR   Ar  118   1.202   5.704   2.727
    1   AR   Ar  119   2.268   2.876   2.609
    1   AR   Ar  120   1.758   6.846   2.315
    1   AR   Ar  121   6.110   4.787   5.164
    1   AR   Ar  122   2.574   6.384   5.081
    1   AR   Ar  123   3.479   4.333   4.605
    1   AR   Ar  124   1.886   6.031   1.656
    1   AR   Ar  125   7.015   4.305   5.417
    1   AR   Ar  126   0.028   6.914   4.502
    1   AR   Ar  127   3.192   3.918   6.209
    1   AR   Ar  128   3.105   5.405   6.790
    1   AR   Ar  129   2.744   6.403   2.920
    1   AR   Ar  130   4.935   2.662  -1.668
    1   AR   Ar  131   4.361   1.273  -0.103
    1   AR   Ar  132   0.309   1.571  -0.542
    1   AR   Ar  133   4.525   6.531   3.001
    1   AR   Ar  134   4.776   1.579   3.944
    1   AR   Ar  135   5.560   0.310   2.738
    1   AR   Ar  136   4.765   0.006   2.140
    1   AR   Ar  137   2.792   5.330   3.738
    1   AR   Ar  138   4.762   1.760   5.118
    1   AR   Ar  139   5.517   2.572   5.787
    1   AR   Ar  140   3.901   0.085   4.794
    1   AR   Ar  141   3.666   5.536   4.506
    1   AR   Ar  142   3.148   0.057   5.885
    1   AR   Ar  143   6.967   0.131   5.638
    1   AR   Ar  144   6.135   1.330   5.754
    1   AR   Ar  145   4.389   3.441   0.169
    1   AR   Ar  146   3.747   2.317   2.292
    1   AR   Ar  147   5.175   1.339  -1.792
    1   AR   Ar  148   2.963   4.718  -1.260
    1   AR   Ar  149   2.894   2.185   1.333
    1   AR   Ar  150   1.857   1.393   2.756
    1   AR   Ar  151   2.179   2.023   3.645
    1   AR   Ar  152   3.190   3.507  -0.117
    1   AR   Ar  153   4.596   0.369   3.786
    1   AR   Ar  154   4.256   2.387   4.471
    1   AR   Ar  155   6.625   0.065   6.977
    1   AR   Ar  156   4.176   3.375   3.949
    1   AR   Ar  157   2.127   3.636   6.775
    1   AR   Ar  158   1.384   2.822   6.762
    1   AR   Ar  159   4.499   2.106   6.351
    1   AR   Ar  160   2.975   1.520   5.122
    1   AR   Ar  161   5.320   3.097   1.628
    1   AR   Ar  162   4.745   6.160  -0.110
    1   AR   Ar  163   4.822   2.909   0.825
    1   AR   Ar  164   3.219   5.190   1.436
    1   AR   Ar  165   3.738   3.296   1.094
    1   AR   Ar  166   2.396   3.813   4.831
    1   AR   Ar  167   4.235   0.921   2.003
    1   AR   Ar  168   5.110   2.904  -0.464
    1   AR   Ar  169   3.270   3.673   2.218
    1   AR   Ar  170   2.306   4.265   5.896
    1   AR   Ar  171   5.822   4.354   4.278
    1   AR   Ar  172   4.576   5.049   4.812
    1   AR   Ar  173   2.751   3.370   7.695
    1   AR   Ar  174   1.916   4.783   7.257
    1   AR   Ar  175   2.702   3.040   5.921
    1   AR   Ar  176   3.792   2.743   5.969
    1   AR   Ar  177   6.311   4.723  -0.050
    1   AR   Ar  178   3.924   4.879  -0.103
    1   AR   Ar  179   4.109   5.160   0.942
    1   AR   Ar  180   0.587   1.609  -2.529
    1   AR   Ar  181   0.731   5.908   1.826
    1   AR   Ar  182   2.533   0.508   2.753
    1   AR   Ar  183   3.387   5.301   2.680
    1   AR   Ar  184   4.450   6.300   1.169
    1   AR   Ar  185   2.685   5.283   5.021
    1   AR   Ar  186   3.771   4.683   3.655
    1   AR   Ar  187   3.576   6.395   3.442
    1   AR   Ar  188   3.003   6.285   1.721
    1   AR   Ar  189   3.750   2.421   7.203
    1   AR   Ar  190   4.383   6.406   4.107
    1   AR   Ar  191   3.549   5.591   7.723
    1   AR   Ar  192   4.241   6.152   5.174
    1   AR   Ar  193   2.477   5.926   0.571
    1   AR   Ar  194   4.450   3.540  -1.062
    1   AR   Ar  195   5.451   0.852   0.042
    1   AR   Ar  196   4.709   0.056   0.096
    1   AR   Ar  197   4.033   1.249   0.968
    1   AR   Ar  198   6.144   1.244   0.848
    1   AR   Ar  199   3.648   1.312   2.955
    1   AR   Ar  200   5.125   1.918   0.253
    1   AR   Ar  201   5.424   6.568   3.609
    1   AR   Ar  202   5.494   2.183   4.453
    1   AR   Ar  203   6.379   6.747   3.377
    1   AR   Ar  204   5.072   6.896   4.680
    1   AR   Ar  205   6.383   6.960   2.431
    1   AR   Ar  206   4.983   0.695   4.921
    1   AR   Ar  207   0.924   1.539   6.740
    1   AR   Ar  208   7.015   0.348   3.239
    1   AR   Ar  209   7.075   3.334  -2.478
    1   AR   Ar  210   3.341   0.762  -0.180
    1   AR   Ar  211   6.594   2.957   0.523
    1   AR   Ar  212   5.880   3.436  -1.496
    1   AR   Ar  213   2.981   1.323   1.942
    1   AR   Ar  214   4.481   3.483   2.862
    1   AR   Ar  215   5.822   2.277   1.314
    1   AR   Ar  216   0.876   3.655   1.751
    1   AR   Ar  217   5.122   3.304   4.262
    1   AR   Ar  218   4.499   3.290   5.165
    1   AR   Ar  219   5.011   2.540   3.459
    1   AR   Ar  220   4.305   3.736   1.848
    1   AR   Ar  221   6.199   6.652   5.051
    1   AR   Ar  222   3.987   0.893   6.927
    1   AR   Ar  223   7.099   1.081   7.560
    1   AR   Ar  224   4.767   3.236   6.334
    1   AR   Ar  225   6.400   3.299   2.497
    1   AR   Ar  226   3.022   4.138   3.020
    1   AR   Ar  227   6.956   3.521   1.375
    1   AR   Ar  228   5.697   6.417   1.902
    1   AR   Ar  229   5.447   4.078  -0.612
    1   AR   Ar  230   4.909   4.505   3.874
    1   AR   Ar  231   6.111   1.233   3.014
    1   AR   Ar  232   4.130   2.264   0.502
    1   AR   Ar  233   6.529   2.514   3.041
    1   AR   Ar  234   6.252   3.332   4.284
    1   AR   Ar  235   6.685   1.996   4.752
    1   AR   Ar  236   5.688   5.584   5.681
    1   AR   Ar  237   5.545   3.753   5.230
    1   AR   Ar  238   4.743   4.619   5.716
    1   AR   Ar  239   5.700   3.971   8.472
    1   AR   Ar  240   6.814   3.173   6.664
    1   AR   Ar  241   1.194   6.657  -0.603
    1   AR   Ar  242   5.080   4.572   0.221
    1   AR   Ar  243   5.823   4.133   2.373
    1   AR   Ar  244   0.814   5.373  -0.724
    1   AR   Ar  245   4.843   0.395   1.068
    1   AR   Ar  246   5.516   5.641   0.431
    1   AR   Ar  247   5.228   4.133   1.436
    1   AR   Ar  248   5.516   5.523  -0.614
    1   AR   Ar  249   4.173   5.880   2.252
    1   AR   Ar  250   5.182   5.807   4.367
    1   AR   Ar  251   5.642   5.223   3.502
    1   AR   Ar  252   4.359   5.541   3.575
    1   AR   Ar  253   6.295   3.686   6.011
    1   AR   Ar  254   1.945   3.898   9.243
    1   AR   Ar  255   4.194   3.161   8.172
    1   AR   Ar  256   6.954   5.604   3.701
    7.12000  7.12000 12.00000
Argon-slab step 3040
  256
    1   AR   Ar    1   6.882   1.330  -1.856
    1   AR   Ar    2   6.385   7.068   0.648
    1   AR   Ar    3   2.042   1.027   0.337
    1   AR   Ar    4   1.099   0.637  -0.399
    1   AR   Ar    5   0.192   6.757   1.062
    1   AR   Ar    6   7.003   0.817   2.253
    1   AR   Ar    7   6.655   4.213   3.277
    1   AR   Ar    8   5.926   0.357   1.625
    1   AR   Ar    9   1.030   0.107   3.040
    1   AR   Ar   10   0.728   0.335   3.921
    1   AR   Ar   11   1.885   6.191   3.906
    1   AR   Ar   12   0.872   1.431   2.705
    1   AR   Ar   13   0.024   0.918   4.998
    1   AR   Ar   14   0.255   2.284   7.431
    1   AR   Ar   15   4.931   1.015  10.426
    1   AR   Ar   16   0.903   0.448   5.068
    1   AR   Ar   17   6.328   1.935   0.041
    1   AR   Ar   18   6.613   2.689  -0.660
    1   AR   Ar   19   2.025   2.718   1.439
    1   AR   Ar   20   4.873   4.223  -1.787
    1   AR   Ar   21   4.766   1.871   1.326
    1   AR   Ar   22   6.466   2.035   2.105
    1   AR   Ar   23   6.601   0.507  -0.542
    1   AR   Ar   24   0.014   1.906   1.294
    1   AR   Ar   25   0.232   1.378   3.524
    1   AR   Ar   26   5.836   0.343   4.326
    1   AR   Ar   27   1.419   1.199   3.619
    1   AR   Ar   28   0.954   2.135   4.846
    1   AR   Ar   29   5.612   2.709   7.032
    1   AR   Ar   30   1.854   1.309   4.787
    1   AR   Ar   31   2.494   0.409   7.865
    1   AR   Ar   32   1.565   3.435   5.732
    1   AR   Ar   33   0.851   4.211  -0.672
    1   AR   Ar   34   0.231   5.127   2.801
    1   AR   Ar   35   6.345   5.241   0.995
    1   AR   Ar   36   6.835   0.436  -4.006
    1   AR   Ar   37   5.371   2.282   2.366
    1   AR   Ar   38   0.130   4.059   2.438
    1   AR   Ar   39   1.118   3.447   3.381
    1   AR   Ar   40   2.047   3.920   1.086
    1   AR   Ar   41   0.190   3.257   3.915
    1   AR   Ar   42   6.172   5.737   4.560
    1   AR   Ar   43   7.070   2.263   5.964
    1   AR   Ar   44   0.496   4.306   3.419
    1   AR   Ar   45   0.572   3.171   5.707
    1   AR   Ar   46   0.833   5.437   6.013
    1   AR   Ar   47   6.030   3.762   7.057
    1   AR   Ar   48   0.221   5.742   6.824
    1   AR   Ar   49   5.661   0.749  -1.005
    1   AR   Ar   50   5.300   5.288   1.445
    1   AR   Ar   51   7.062   4.762   1.708
    1   AR   Ar   52   5.729   4.874  -1.388
    1   AR   Ar   53   5.169   5.737   2.751
    1   AR   Ar   54   0.212   6.474   2.574
    1   AR   Ar   55   6.456   5.818   2.534
    1   AR   Ar   56   0.080   0.815   1.235
    1   AR   Ar   57   5.749   3.614   3.280
    1   AR   Ar   58   6.807   4.281   4.384
    1   AR   Ar   59   2.214   5.343   6.144
    1   AR   Ar   60   0.559   6.249   3.471
    1   AR   Ar   61   6.582   4.960   6.287
    1   AR   Ar   62   0.993   5.114   4.852
    1   AR   Ar   63   2.458   0.291   6.708
    1   AR   Ar   64   0.718   6.153   4.551
    1   AR   Ar   65   3.452   0.091   0.706
    1   AR   Ar   66   0.875   1.644   1.616
    1   AR   Ar   67   3.085   6.508  -1.805
    1   AR   Ar   68   2.850   1.470  -0.667
    1   AR   Ar   69   2.978   1.004   0.860
    1   AR   Ar   70   0.682   0.035   1.989
    1   AR   Ar   71   2.664   1.108   4.145
    1   AR   Ar   72   3.323   0.221   2.038
    1   AR   Ar   73   3.284   0.516   3.699
    1   AR   Ar   74   2.086   0.294   3.749
    1   AR   Ar   75   3.993   1.094   4.474
    1   AR   Ar   76   1.551   0.713   1.799
    1   AR   Ar   77   2.563   6.379   6.170
    1   AR   Ar   78   1.011   0.141   6.551
    1   AR   Ar   79   3.674   6.147   6.103
    1   AR   Ar   80   3.752   5.127   5.550
    1   AR   Ar   81   2.854   6.709  -0.078
    1   AR   Ar   82   6.897   5.710  -0.775
    1   AR   Ar   83   0.441   2.611   0.486
    1   AR   Ar   84   6.998   3.892   0.063
    1   AR   Ar   85   1.104   3.588   0.624
    1   AR   Ar   86   1.854   4.497  -0.532
    1   AR   Ar   87   1.799   1.647   1.171
    1   AR   Ar   88   2.209   5.046   1.287
    1   AR   Ar   89   0.206   2.798   2.451
    1   AR   Ar   90   2.356   2.637   4.815
    1   AR   Ar   91   0.936   2.472   3.719
    1   AR   Ar   92   1.317   2.383   2.146
    1   AR   Ar   93   2.054   0.398   5.471
    1   AR   Ar   94   0.776   6.724  10.599
    1   AR   Ar   95   3.960   1.384   5.730
    1   AR   Ar   96   2.919   0.471   4.856
    1   AR   Ar   97   4.999   1.863  -0.763
    1   AR   Ar   98   2.187   5.125   2.606
    1   AR   Ar   99   5.964   2.223  -1.508
    1   AR   Ar  100   2.031   3.302  -0.440
    1   AR   Ar  101   3.158   4.221   1.077
    1   AR   Ar  102   3.235   2.703   3.819
    1   AR   Ar  103   1.102   4.543   1.133
    1   AR   Ar  104   2.760   2.867  -1.229
    1   AR   Ar  105   1.572   3.209   4.345
    1   AR   Ar  106   3.367   3.453   5.125
    1   AR   Ar  107   0.841   4.077   4.471
    1   AR   Ar  108   3.377   2.513   4.916
    1   AR   Ar  109   1.785   4.625   4.561
    1   AR   Ar  110   1.342   4.300   6.341
    1   AR   Ar  111   4.855   4.191   7.662
    1   AR   Ar  112   1.288   5.776   7.100
    1   AR   Ar  113   2.997   4.635   0.089
    1   AR   Ar  114   2.049   6.508  -1.135
    1   AR   Ar  115   2.551   5.689  -0.906
    1   AR   Ar  116   6.287   6.538  -1.075
    1   AR   Ar  117   1.241   5.283   3.631
    1   AR   Ar  118   1.186   5.693   2.719
    1   AR   Ar  119   2.265   2.878   2.615
    1   AR   Ar  120   1.777   6.878   2.332
    1   AR   Ar  121   6.099   4.782   5.188
    1   AR   Ar  122   2.566   6.392   5.095
    1   AR   Ar  123   3.503   4.345   4.615
    1   AR   Ar  124   1.875   6.011   1.629
    1   AR   Ar  125   7.017   4.295   5.399
    1   AR   Ar  126   0.024   6.921   4.473
    1   AR   Ar  127   3.207   3.927   6.210
    1   AR   Ar  128   3.114   5.393   6.769
    1   AR   Ar  129   2.727   6.396   2.892
    1   AR   Ar  130   4.942   2.657  -1.708
    1   AR   Ar  131   4.346   1.283  -0.090
    1   AR   Ar  132   0.304   1.587  -0.553
    1   AR   Ar  133   4.522   6.505   3.020
    1   AR   Ar  134   4.791   1.573   3.931
    1   AR   Ar  135   5.580   0.298   2.719
    1   AR   Ar  136   4.772   7.110   2.113
    1   AR   Ar  137   2.805   5.317   3.749
    1   AR   Ar  138   4.786   1.747   5.121
    1   AR   Ar  139   5.512   2.597   5.796
    1   AR   Ar  140   3.900   0.090   4.787
    1   AR   Ar  141   3.662   5.543   4.475
    1   AR   Ar  142   3.141   0.056   5.917
    1   AR   Ar  143   6.954   0.137   5.634
    1   AR   Ar  144   6.191   1.328   5.758
    1   AR   Ar  145   4.402   3.455   0.172
    1   AR   Ar  146   3.744   2.299   2.290
    1   AR   Ar  147   5.166   1.326  -1.764
    1   AR   Ar  148   2.983   4.724  -1.231
    1   AR   Ar  149   2.862   2.202   1.355
    1   AR   Ar  150   1.864   1.406   2.737
    1   AR   Ar  151   2.187   2.009   3.620
    1   AR   Ar  152   3.225   3.502  -0.138
    1   AR   Ar  153   4.599   0.359   3.812
    1   AR   Ar  154   4.274   2.387   4.469
    1   AR   Ar  155   6.657   0.072   6.965
    1   AR   Ar  156   4.165   3.383   3.942
    1   AR   Ar  157   2.105   3.656   6.785
    1   AR   Ar  158   1.354   2.819   6.755
    1   AR   Ar  159   4.483   2.104   6.375
    1   AR   Ar  160   2.959   1.501   5.121
    1   AR   Ar  161   5.322   3.104   1.676
    1   AR   Ar  162   4.737   6.149  -0.099
    1   AR   Ar  163   4.817   2.943   0.850
    1   AR   Ar  164   3.194   5.169   1.450
    1   AR   Ar  165   3.757   3.270   1.072
    1   AR   Ar  166   2.409   3.817   4.850
    1   AR   Ar  167   4.225   0.944   2.000
    1   AR   Ar  168   5.093   2.893  -0.469
    1   AR   Ar  169   3.277   3.717   2.212
    1   AR   Ar  170   2.297   4.267   5.889
    1   AR   Ar  171   5.819   4.346   4.282
    1   AR   Ar  172   4.619   5.043   4.825
    1   AR   Ar  173   2.806   3.362   7.667
    1   AR   Ar  174   1.937   4.805   7.256
    1   AR   Ar  175   2.720   3.060   5.949
    1   AR   Ar  176   3.818   2.721   5.987
    1   AR   Ar  177   6.314   4.707  -0.053
    1   AR   Ar  178   3.951   4.888  -0.094
    1   AR   Ar  179   4.049   5.133   0.953
    1   AR   Ar  180   0.602   1.606  -2.515
    1   AR   Ar  181   0.732   5.921   1.846
    1   AR   Ar  182   2.545   0.491   2.750
    1   AR   Ar  183   3.373   5.286   2.669
    1   AR   Ar  184   4.470   6.292   1.117
    1   AR   Ar  185   2.669   5.303   5.033
    1   AR   Ar  186   3.821   4.676   3.656
    1   AR   Ar  187   3.600   6.368   3.443
    1   AR   Ar  188   3.008   6.300   1.716
    1   AR   Ar  189   3.740   2.381   7.192
    1   AR   Ar  190   4.412   6.406   4.092
    1   AR   Ar  191   3.552   5.600   7.714
    1   AR   Ar  192   4.232   6.132   5.201
    1   AR   Ar  193   2.507   5.945   0.602
    1   AR   Ar  194   4.413   3.571  -1.065
    1   AR   Ar  195   5.454   0.860   0.071
    1   AR   Ar  196   4.716   0.083   0.108
    1   AR   Ar  197   4.010   1.252   0.953
    1   AR   Ar  198   6.129   1.277   0.828
    1   AR   Ar  199   3.634   1.290   2.973
    1   AR   Ar  200   5.119   1.916   0.294
    1   AR   Ar  201   5.423   6.555   3.605
    1   AR   Ar  202   5.476   2.113   4.459
    1   AR   Ar  203   6.402   6.756   3.396
    1   AR   Ar  204   5.071   6.866   4.679
    1   AR   Ar  205   6.432   6.963   2.416
    1   AR   Ar  206   4.991   0.704   4.916
    1   AR   Ar  207   0.953   1.542   6.744
    1   AR   Ar  208   7.027   0.357   3.248
    1   AR   Ar  209   7.106   3.353  -2.448
    1   AR   Ar  210   3.325   0.727  -0.197
    1   AR   Ar  211   6.589   2.943   0.539
    1   AR   Ar  212   5.897   3.417  -1.509
    1   AR   Ar  213   2.981   1.329   1.952
    1   AR   Ar  214   4.478   3.509   2.856
    1   AR   Ar  215   5.812   2.282   1.320
    1   AR   Ar  216   0.870   3.634   1.756
    1   AR   Ar  217   5.122   3.326   4.263
    1   AR   Ar  218   4.512   3.315   5.149
    1   AR   Ar  219   5.023   2.543   3.417
    1   AR   Ar  220   4.294   3.746   1.862
    1   AR   Ar  221   6.175   6.670   5.066
    1   AR   Ar  222   3.978   0.872   6.920
    1   AR   Ar  223   7.101   1.084   7.542
    1   AR   Ar  224   4.784   3.207   6.312
    1   AR   Ar  225   6.401   3.324   2.507
    1   AR   Ar  226   2.980   4.102   3.026
    1   AR   Ar  227   6.920   3.526   1.368
    1   AR   Ar  228   5.681   6.400   1.936
    1   AR   Ar  229   5.450   4.079  -0.608
    1   AR   Ar  230   4.924   4.506   3.870
    1   AR   Ar  231   6.131   1.238   3.036
    1   AR   Ar  232   4.140   2.278   0.498
    1   AR   Ar  233   6.545   2.558   3.060
    1   AR   Ar  234   6.244   3.344   4.256
    1   AR   Ar  235   6.692   1.990   4.753
    1   AR   Ar  236   5.696   5.604   5.669
    1   AR   Ar  237   5.546   3.737   5.236
    1   AR   Ar  238   4.755   4.618   5.693
    1   AR   Ar  239   5.676   3.976   8.452
    1   AR   Ar  240   6.828   3.158   6.688
    1   AR   Ar  241   1.196   6.678  -0.599
    1   AR   Ar  242   5.070   4.581   0.210
    1   AR   Ar  243   5.819   4.142   2.372
    1   AR   Ar  244   0.782   5.382  -0.701
    1   AR   Ar  245   4.870   0.431   1.073
    1   AR   Ar  246   5.496   5.625   0.437
    1   AR   Ar  247   5.257   4.127   1.409
    1   AR   Ar  248   5.505   5.540  -0.634
    1   AR   Ar  249   4.150   5.864   2.262
    1   AR   Ar  250   5.163   5.817   4.359
    1   AR   Ar  251   5.633   5.233   3.519
    1   AR   Ar  252   4.367   5.498   3.585
    1   AR   Ar  253   6.292   3.672   6.003
    1   AR   Ar  254   1.945   3.855   9.258
    1   AR   Ar  255   4.156   3.162   8.203
    1   AR   Ar  256   6.957   5.575   3.695
    7.12000  7.12000 12.00000
Argon-slab step 3045
  256
    1   AR   Ar    1   6.870   1.336  -1.885
    1   AR   Ar    2   6.365   7.093   0.646
    1   AR   Ar    3   2.046   1.015   0.332
    1   AR   Ar    4   1.112   0.651  -0.396
    1   AR   Ar    5   0.211   6.770   1.088
    1   AR   Ar    6   6.976   0.832   2.265
    1   AR   Ar    7   6.651   4.191   3.295
    1   AR   Ar    8   5.946   0.341   1.624
    1   AR   Ar    9   1.025   0.103   3.024
    1   AR   Ar   10   0.735   0.310   3.943
    1   AR   Ar   11   1.875   6.205   3.905
    1   AR   Ar   12   0.871   1.430   2.695
    1   AR   Ar   13   0.040   0.925   4.991
    1   AR   Ar   14   0.251   2.311   7.432
    1   AR   Ar   15   4.923   0.988  10.384
    1   AR   Ar   16   0.921   0.425   5.056
    1   AR   Ar   17   6.337   1.907   0.029
    1   AR   Ar   18   6.603   2.681  -0.636
    1   AR   Ar   19   2.038   2.723   1.452
    1   AR   Ar   20   4.870   4.230  -1.785
    1   AR   Ar   21   4.757   1.887   1.313
    1   AR   Ar   22   6.460   2.061   2.101
    1   AR   Ar   23   6.607   0.519  -0.538
    1   AR   Ar   24   7.108   1.885   1.325
    1   AR   Ar   25   0.241   1.384   3.575
    1   AR   Ar   26   5.818   0.352   4.310
    1   AR   Ar   27   1.419   1.187   3.603
    1   AR   Ar   28   0.921   2.128   4.838
    1   AR   Ar   29   5.678   2.745   7.044
    1   AR   Ar   30   1.832   1.321   4.760
    1   AR   Ar   31   2.520   0.420   7.872
    1   AR   Ar   32   1.548   3.426   5.717
    1   AR   Ar   33   0.815   4.203  -0.652
    1   AR   Ar   34   0.259   5.108   2.800
    1   AR   Ar   35   6.329   5.260   0.996
    1   AR   Ar   36   6.829   0.445  -4.016
    1   AR   Ar   37   5.378   2.269   2.358
    1   AR   Ar   38   0.138   4.055   2.440
    1   AR   Ar   39   1.133   3.464   3.370
    1   AR   Ar   40   2.042   3.931   1.103
    1   AR   Ar   41   0.188   3.265   3.898
    1   AR   Ar   42   6.165   5.763   4.544
    1   AR   Ar   43   7.062   2.271   5.959
    1   AR   Ar   44   0.508   4.298   3.412
    1   AR   Ar   45   0.598   3.170   5.722
    1   AR   Ar   46   0.824   5.412   5.976
    1   AR   Ar   47   6.037   3.812   7.060
    1   AR   Ar   48   0.228   5.752   6.834
    1   AR   Ar   49   5.665   0.740  -0.984
    1   AR   Ar   50   5.297   5.300   1.442
    1   AR   Ar   51   7.035   4.745   1.682
    1   AR   Ar   52   5.741   4.864  -1.398
    1   AR   Ar   53   5.164   5.738   2.747
    1   AR   Ar   54   0.213   6.466   2.569
    1   AR   Ar   55   6.468   5.848   2.518
    1   AR   Ar   56   0.094   0.863   1.199
    1   AR   Ar   57   5.739   3.639   3.294
    1   AR   Ar   58   6.807   4.294   4.353
    1   AR   Ar   59   2.246   5.337   6.132
    1   AR   Ar   60   0.551   6.280   3.482
    1   AR   Ar   61   6.602   4.953   6.301
    1   AR   Ar   62   0.959   5.129   4.839
    1   AR   Ar   63   2.431   0.294   6.704
    1   AR   Ar   64   0.711   6.108   4.539
    1   AR   Ar   65   3.461   0.065   0.709
    1   AR   Ar   66   0.899   1.653   1.582
    1   AR   Ar   67   3.094   6.533  -1.791
    1   AR   Ar   68   2.847   1.454  -0.668
    1   AR   Ar   69   2.984   1.011   0.853
    1   AR   Ar   70   0.680   0.057   2.030
    1   AR   Ar   71   2.674   1.116   4.132
    1   AR   Ar   72   3.285   0.240   2.021
    1   AR   Ar   73   3.305   0.520   3.692
    1   AR   Ar   74   2.091   0.281   3.759
    1   AR   Ar   75   4.004   1.101   4.484
    1   AR   Ar   76   1.555   0.715   1.820
    1   AR   Ar   77   2.574   6.368   6.178
    1   AR   Ar   78   0.977   0.122   6.551
    1   AR   Ar   79   3.646   6.153   6.124
    1   AR   Ar   80   3.775   5.090   5.573
    1   AR   Ar   81   2.863   6.691  -0.106
    1   AR   Ar   82   6.891   5.734  -0.774
    1   AR   Ar   83   0.445   2.648   0.469
    1   AR   Ar   84   7.028   3.882   0.087
    1   AR   Ar   85   1.110   3.592   0.654
    1   AR   Ar   86   1.852   4.535  -0.517
    1   AR   Ar   87   1.803   1.643   1.137
    1   AR   Ar   88   2.173   5.051   1.258
    1   AR   Ar   89   0.181   2.756   2.481
    1   AR   Ar   90   2.394   2.631   4.795
    1   AR   Ar   91   0.949   2.484   3.715
    1   AR   Ar   92   1.301   2.406   2.131
    1   AR   Ar   93   2.076   0.396   5.469
    1   AR   Ar   94   0.759   6.714  10.613
    1   AR   Ar   95   3.941   1.411   5.728
    1   AR   Ar   96   2.930   0.497   4.849
    1   AR   Ar   97   5.004   1.841  -0.753
    1   AR   Ar   98   2.201   5.144   2.607
    1   AR   Ar   99   5.952   2.225  -1.454
    1   AR   Ar  100   2.007   3.311  -0.426
    1   AR   Ar  101   3.167   4.231   1.067
    1   AR   Ar  102   3.250   2.704   3.822
    1   AR   Ar  103   1.101   4.563   1.153
    1   AR   Ar  104   2.760   2.874  -1.237
    1   AR   Ar  105   1.601   3.234   4.315
    1   AR   Ar  106   3.380   3.418   5.147
    1   AR   Ar  107   0.863   4.047   4.455
    1   AR   Ar  108   3.390   2.495   4.906
    1   AR   Ar  109   1.800   4.628   4.551
    1   AR   Ar  110   1.351   4.308   6.364
    1   AR   Ar  111   4.864   4.209   7.631
    1   AR   Ar  112   1.275   5.727   7.071
    1   AR   Ar  113   2.996   4.637   0.055
    1   AR   Ar  114   2.019   6.516  -1.105
    1   AR   Ar  115   2.542   5.670  -0.914
    1   AR   Ar  116   6.262   6.526  -1.057
    1   AR   Ar  117   1.250   5.282   3.621
    1   AR   Ar  118   1.173   5.686   2.709
    1   AR   Ar  119   2.261   2.878   2.621
    1   AR   Ar  120   1.796   6.909   2.349
    1   AR   Ar  121   6.088   4.774   5.213
    1   AR   Ar  122   2.559   6.402   5.107
    1   AR   Ar  123   3.527   4.361   4.624
    1   AR   Ar  124   1.865   5.993   1.604
    1   AR   Ar  125   7.023   4.283   5.386
    1   AR   Ar  126   0.024   6.924   4.469
    1   AR   Ar  127   3.229   3.939   6.213
    1   AR   Ar  128   3.121   5.381   6.744
    1   AR   Ar  129   2.744   6.382   2.895
    1   AR   Ar  130   4.951   2.653  -1.746
    1   AR   Ar  131   4.329   1.292  -0.077
    1   AR   Ar  132   0.297   1.603  -0.563
    1   AR   Ar  133   4.522   6.486   3.038
    1   AR   Ar  134   4.789   1.592   3.940
    1   AR   Ar  135   5.597   0.287   2.706
    1   AR   Ar  136   4.777   7.091   2.084
    1   AR   Ar  137   2.798   5.317   3.734
    1   AR   Ar  138   4.808   1.732   5.130
    1   AR   Ar  139   5.508   2.621   5.804
    1   AR   Ar  140   3.884   0.077   4.781
    1   AR   Ar  141   3.658   5.549   4.443
    1   AR   Ar  142   3.139   0.061   5.945
    1   AR   Ar  143   6.941   0.139   5.633
    1   AR   Ar  144   6.249   1.326   5.759
    1   AR   Ar  145   4.403   3.483   0.157
    1   AR   Ar  146   3.737   2.287   2.285
    1   AR   Ar  147   5.157   1.316  -1.736
    1   AR   Ar  148   3.021   4.706  -1.235
    1   AR   Ar  149   2.841   2.214   1.375
    1   AR   Ar  150   1.884   1.420   2.710
    1   AR   Ar  151   2.195   1.997   3.597
    1   AR   Ar  152   3.261   3.497  -0.158
    1   AR   Ar  153   4.603   0.349   3.839
    1   AR   Ar  154   4.262   2.376   4.469
    1   AR   Ar  155   6.689   0.079   6.953
    1   AR   Ar  156   4.147   3.392   3.933
    1   AR   Ar  157   2.084   3.676   6.794
    1   AR   Ar  158   1.323   2.815   6.747
    1   AR   Ar  159   4.469   2.103   6.414
    1   AR   Ar  160   2.944   1.484   5.120
    1   AR   Ar  161   5.329   3.117   1.738
    1   AR   Ar  162   4.735   6.132  -0.101
    1   AR   Ar  163   4.822   2.966   0.883
    1   AR   Ar  164   3.167   5.156   1.475
    1   AR   Ar  165   3.776   3.242   1.048
    1   AR   Ar  166   2.421   3.819   4.870
    1   AR   Ar  167   4.215   0.968   1.997
    1   AR   Ar  168   5.084   2.886  -0.472
    1   AR   Ar  169   3.292   3.753   2.183
    1   AR   Ar  170   2.285   4.271   5.877
    1   AR   Ar  171   5.812   4.336   4.284
    1   AR   Ar  172   4.657   5.041   4.825
    1   AR   Ar  173   2.834   3.349   7.663
    1   AR   Ar  174   1.959   4.827   7.253
    1   AR   Ar  175   2.734   3.078   5.974
    1   AR   Ar  176   3.835   2.707   5.999
    1   AR   Ar  177   6.314   4.694  -0.056
    1   AR   Ar  178   3.988   4.899  -0.087
    1   AR   Ar  179   4.000   5.105   0.960
    1   AR   Ar  180   0.616   1.603  -2.502
    1   AR   Ar  181   0.731   5.935   1.857
    1   AR   Ar  182   2.557   0.475   2.748
    1   AR   Ar  183   3.334   5.273   2.654
    1   AR   Ar  184   4.491   6.285   1.066
    1   AR   Ar  185   2.653   5.321   5.046
    1   AR   Ar  186   3.864   4.661   3.655
    1   AR   Ar  187   3.621   6.339   3.447
    1   AR   Ar  188   3.013   6.314   1.712
    1   AR   Ar  189   3.722   2.404   7.198
    1   AR   Ar  190   4.429   6.411   4.075
    1   AR   Ar  191   3.557   5.610   7.707
    1   AR   Ar  192   4.227   6.112   5.225
    1   AR   Ar  193   2.538   5.962   0.636
    1   AR   Ar  194   4.428   3.582  -1.098
    1   AR   Ar  195   5.458   0.870   0.100
    1   AR   Ar  196   4.721   0.111   0.117
    1   AR   Ar  197   3.986   1.253   0.938
    1   AR   Ar  198   6.113   1.307   0.814
    1   AR   Ar  199   3.620   1.267   2.990
    1   AR   Ar  200   5.118   1.915   0.337
    1   AR   Ar  201   5.418   6.542   3.602
    1   AR   Ar  202   5.466   2.051   4.464
    1   AR   Ar  203   6.421   6.750   3.426
    1   AR   Ar  204   5.074   6.827   4.683
    1   AR   Ar  205   6.487   6.968   2.393
    1   AR   Ar  206   4.996   0.723   4.913
    1   AR   Ar  207   0.980   1.545   6.748
    1   AR   Ar  208   7.048   0.378   3.253
    1   AR   Ar  209   7.111   3.340  -2.445
    1   AR   Ar  210   3.314   0.685  -0.209
    1   AR   Ar  211   6.577   2.929   0.554
    1   AR   Ar  212   5.913   3.397  -1.520
    1   AR   Ar  213   2.983   1.333   1.964
    1   AR   Ar  214   4.474   3.521   2.834
    1   AR   Ar  215   5.793   2.292   1.324
    1   AR   Ar  216   0.854   3.646   1.791
    1   AR   Ar  217   5.131   3.349   4.264
    1   AR   Ar  218   4.522   3.339   5.134
    1   AR   Ar  219   5.035   2.543   3.387
    1   AR   Ar  220   4.286   3.758   1.872
    1   AR   Ar  221   6.152   6.690   5.080
    1   AR   Ar  222   3.964   0.858   6.887
    1   AR   Ar  223   7.103   1.087   7.521
    1   AR   Ar  224   4.801   3.179   6.291
    1   AR   Ar  225   6.403   3.359   2.503
    1   AR   Ar  226   2.932   4.077   3.052
    1   AR   Ar  227   6.885   3.534   1.364
    1   AR   Ar  228   5.662   6.382   1.970
    1   AR   Ar  229   5.454   4.077  -0.609
    1   AR   Ar  230   4.929   4.507   3.864
    1   AR   Ar  231   6.154   1.243   3.058
    1   AR   Ar  232   4.143   2.288   0.491
    1   AR   Ar  233   6.558   2.584   3.097
    1   AR   Ar  234   6.236   3.354   4.228
    1   AR   Ar  235   6.698   1.984   4.755
    1   AR   Ar  236   5.703   5.627   5.657
    1   AR   Ar  237   5.547   3.721   5.241
    1   AR   Ar  238   4.770   4.609   5.682
    1   AR   Ar  239   5.651   3.981   8.432
    1   AR   Ar  240   6.848   3.136   6.716
    1   AR   Ar  241   1.204   6.676  -0.584
    1   AR   Ar  242   5.058   4.593   0.204
    1   AR   Ar  243   5.815   4.156   2.368
    1   AR   Ar  244   0.754   5.389  -0.679
    1   AR   Ar  245   4.897   0.470   1.082
    1   AR   Ar  246   5.477   5.609   0.444
    1   AR   Ar  247   5.286   4.124   1.380
    1   AR   Ar  248   5.494   5.535  -0.646
    1   AR   Ar  249   4.129   5.849   2.268
    1   AR   Ar  250   5.148   5.820   4.352
    1   AR   Ar  251   5.628   5.242   3.540
    1   AR   Ar  252   4.384   5.461   3.592
    1   AR   Ar  253   6.286   3.661   5.989
    1   AR   Ar  254   1.945   3.812   9.272
    1   AR   Ar  255   4.118   3.162   8.232
    1   AR   Ar  256   6.953   5.543   3.692
    7.12000  7.12000 12.00000
Argon-slab step 3050
  256
    1   AR   Ar    1   6.856   1.341  -1.913
    1   AR   Ar    2   6.344   7.119   0.644
    1   AR   Ar    3   2.049   1.000   0.322
    1   AR   Ar    4   1.121   0.656  -0.398
    1   AR   Ar    5   0.229   6.783   1.116
    1   AR   Ar    6   6.949   0.848   2.277
    1   AR   Ar    7   6.636   4.169   3.312
    1   AR   Ar    8   5.965   0.327   1.621
    1   AR   Ar    9   1.024   0.097   3.001
    1   AR   Ar   10   0.746   0.290   3.973
    1   AR   Ar   11   1.865   6.220   3.903
    1   AR   Ar   12   0.862   1.428   2.681
    1   AR   Ar   13   0.050   0.940   4.980
    1   AR   Ar   14   0.247   2.338   7.431
    1   AR   Ar   15   4.915   0.960  10.342
    1   AR   Ar   16   0.945   0.398   5.045
    1   AR   Ar   17   6.345   1.880   0.013
    1   AR   Ar   18   6.593   2.675  -0.612
    1   AR   Ar   19   2.035   2.741   1.464
    1   AR   Ar   20   4.870   4.239  -1.785
    1   AR   Ar   21   4.751   1.904   1.310
    1   AR   Ar   22   6.452   2.088   2.106
    1   AR   Ar   23   6.615   0.530  -0.532
    1   AR   Ar   24   7.070   1.874   1.347
    1   AR   Ar   25   0.250   1.389   3.627
    1   AR   Ar   26   5.800   0.353   4.291
    1   AR   Ar   27   1.416   1.173   3.594
    1   AR   Ar   28   0.888   2.122   4.828
    1   AR   Ar   29   5.744   2.782   7.054
    1   AR   Ar   30   1.809   1.333   4.734
    1   AR   Ar   31   2.546   0.430   7.878
    1   AR   Ar   32   1.546   3.419   5.702
    1   AR   Ar   33   0.778   4.196  -0.632
    1   AR   Ar   34   0.285   5.092   2.794
    1   AR   Ar   35   6.313   5.278   0.996
    1   AR   Ar   36   6.822   0.454  -4.026
    1   AR   Ar   37   5.370   2.258   2.350
    1   AR   Ar   38   0.145   4.049   2.443
    1   AR   Ar   39   1.151   3.481   3.356
    1   AR   Ar   40   2.038   3.912   1.110
    1   AR   Ar   41   0.204   3.268   3.916
    1   AR   Ar   42   6.163   5.785   4.528
    1   AR   Ar   43   7.055   2.279   5.953
    1   AR   Ar   44   0.525   4.301   3.410
    1   AR   Ar   45   0.611   3.166   5.737
    1   AR   Ar   46   0.817   5.386   5.938
    1   AR   Ar   47   6.036   3.845   7.059
    1   AR   Ar   48   0.232   5.762   6.844
    1   AR   Ar   49   5.668   0.732  -0.962
    1   AR   Ar   50   5.292   5.311   1.442
    1   AR   Ar   51   7.008   4.729   1.654
    1   AR   Ar   52   5.725   4.863  -1.407
    1   AR   Ar   53   5.203   5.755   2.757
    1   AR   Ar   54   0.215   6.454   2.566
    1   AR   Ar   55   6.479   5.877   2.505
    1   AR   Ar   56   0.109   0.906   1.162
    1   AR   Ar   57   5.726   3.648   3.326
    1   AR   Ar   58   6.777   4.291   4.313
    1   AR   Ar   59   2.274   5.330   6.119
    1   AR   Ar   60   0.549   6.313   3.501
    1   AR   Ar   61   6.622   4.946   6.313
    1   AR   Ar   62   0.921   5.144   4.828
    1   AR   Ar   63   2.403   0.296   6.701
    1   AR   Ar   64   0.706   6.066   4.525
    1   AR   Ar   65   3.472   0.037   0.713
    1   AR   Ar   66   0.926   1.653   1.553
    1   AR   Ar   67   3.103   6.556  -1.775
    1   AR   Ar   68   2.840   1.444  -0.672
    1   AR   Ar   69   2.970   1.018   0.846
    1   AR   Ar   70   0.680   0.084   2.064
    1   AR   Ar   71   2.674   1.142   4.114
    1   AR   Ar   72   3.249   0.260   2.001
    1   AR   Ar   73   3.336   0.512   3.681
    1   AR   Ar   74   2.095   0.267   3.767
    1   AR   Ar   75   4.016   1.123   4.508
    1   AR   Ar   76   1.558   0.720   1.841
    1   AR   Ar   77   2.582   6.352   6.189
    1   AR   Ar   78   0.944   0.104   6.549
    1   AR   Ar   79   3.617   6.158   6.145
    1   AR   Ar   80   3.797   5.055   5.594
    1   AR   Ar   81   2.871   6.674  -0.136
    1   AR   Ar   82   6.881   5.756  -0.770
    1   AR   Ar   83   0.454   2.683   0.452
    1   AR   Ar   84   7.059   3.870   0.112
    1   AR   Ar   85   1.114   3.594   0.683
    1   AR   Ar   86   1.852   4.574  -0.501
    1   AR   Ar   87   1.814   1.641   1.103
    1   AR   Ar   88   2.132   5.052   1.226
    1   AR   Ar   89   0.168   2.716   2.502
    1   AR   Ar   90   2.436   2.623   4.772
    1   AR   Ar   91   0.975   2.464   3.674
    1   AR   Ar   92   1.293   2.428   2.138
    1   AR   Ar   93   2.097   0.392   5.468
    1   AR   Ar   94   0.741   6.703  10.627
    1   AR   Ar   95   3.919   1.439   5.725
    1   AR   Ar   96   2.942   0.509   4.845
    1   AR   Ar   97   5.010   1.819  -0.745
    1   AR   Ar   98   2.216   5.164   2.608
    1   AR   Ar   99   5.940   2.225  -1.399
    1   AR   Ar  100   1.984   3.321  -0.411
    1   AR   Ar  101   3.172   4.219   1.083
    1   AR   Ar  102   3.265   2.705   3.827
    1   AR   Ar  103   1.099   4.583   1.174
    1   AR   Ar  104   2.759   2.882  -1.243
    1   AR   Ar  105   1.630   3.259   4.286
    1   AR   Ar  106   3.396   3.401   5.176
    1   AR   Ar  107   0.882   4.016   4.439
    1   AR   Ar  108   3.400   2.457   4.900
    1   AR   Ar  109   1.821   4.630   4.539
    1   AR   Ar  110   1.336   4.300   6.375
    1   AR   Ar  111   4.874   4.227   7.599
    1   AR   Ar  112   1.265   5.677   7.040
    1   AR   Ar  113   2.981   4.645   0.001
    1   AR   Ar  114   1.997   6.530  -1.084
    1   AR   Ar  115   2.536   5.645  -0.920
    1   AR   Ar  116   6.235   6.517  -1.039
    1   AR   Ar  117   1.231   5.290   3.607
    1   AR   Ar  118   1.166   5.682   2.700
    1   AR   Ar  119   2.257   2.878   2.626
    1   AR   Ar  120   1.816   6.936   2.366
    1   AR   Ar  121   6.078   4.764   5.237
    1   AR   Ar  122   2.552   6.415   5.118
    1   AR   Ar  123   3.551   4.379   4.636
    1   AR   Ar  124   1.854   5.978   1.581
    1   AR   Ar  125   7.031   4.271   5.377
    1   AR   Ar  126   0.019   6.924   4.473
    1   AR   Ar  127   3.257   3.954   6.218
    1   AR   Ar  128   3.129   5.368   6.718
    1   AR   Ar  129   2.757   6.368   2.895
    1   AR   Ar  130   4.960   2.649  -1.781
    1   AR   Ar  131   4.330   1.311  -0.059
    1   AR   Ar  132   0.288   1.619  -0.573
    1   AR   Ar  133   4.527   6.473   3.051
    1   AR   Ar  134   4.774   1.610   3.946
    1   AR   Ar  135   5.612   0.277   2.695
    1   AR   Ar  136   4.780   7.071   2.053
    1   AR   Ar  137   2.791   5.318   3.718
    1   AR   Ar  138   4.822   1.716   5.147
    1   AR   Ar  139   5.508   2.642   5.809
    1   AR   Ar  140   3.874   0.060   4.775
    1   AR   Ar  141   3.654   5.555   4.411
    1   AR   Ar  142   3.142   0.070   5.967
    1   AR   Ar  143   6.927   0.138   5.634
    1   AR   Ar  144   6.308   1.325   5.760
    1   AR   Ar  145   4.398   3.519   0.132
    1   AR   Ar  146   3.721   2.306   2.268
    1   AR   Ar  147   5.148   1.308  -1.709
    1   AR   Ar  148   3.062   4.682  -1.245
    1   AR   Ar  149   2.838   2.215   1.392
    1   AR   Ar  150   1.914   1.434   2.678
    1   AR   Ar  151   2.203   1.985   3.575
    1   AR   Ar  152   3.297   3.493  -0.176
    1   AR   Ar  153   4.607   0.339   3.867
    1   AR   Ar  154   4.237   2.359   4.468
    1   AR   Ar  155   6.723   0.087   6.939
    1   AR   Ar  156   4.125   3.402   3.925
    1   AR   Ar  157   2.067   3.693   6.804
    1   AR   Ar  158   1.291   2.812   6.738
    1   AR   Ar  159   4.467   2.092   6.458
    1   AR   Ar  160   2.929   1.474   5.122
    1   AR   Ar  161   5.338   3.137   1.810
    1   AR   Ar  162   4.745   6.109  -0.123
    1   AR   Ar  163   4.833   2.982   0.921
    1   AR   Ar  164   3.135   5.153   1.512
    1   AR   Ar  165   3.792   3.214   1.024
    1   AR   Ar  166   2.433   3.819   4.891
    1   AR   Ar  167   4.204   0.992   1.993
    1   AR   Ar  168   5.095   2.904  -0.471
    1   AR   Ar  169   3.306   3.785   2.143
    1   AR   Ar  170   2.275   4.275   5.863
    1   AR   Ar  171   5.802   4.326   4.287
    1   AR   Ar  172   4.690   5.045   4.811
    1   AR   Ar  173   2.863   3.337   7.658
    1   AR   Ar  174   1.982   4.847   7.247
    1   AR   Ar  175   2.743   3.090   5.996
    1   AR   Ar  176   3.841   2.704   6.003
    1   AR   Ar  177   6.311   4.684  -0.060
    1   AR   Ar  178   4.029   4.910  -0.083
    1   AR   Ar  179   3.997   5.120   0.967
    1   AR   Ar  180   0.631   1.601  -2.490
    1   AR   Ar  181   0.728   5.950   1.856
    1   AR   Ar  182   2.567   0.461   2.748
    1   AR   Ar  183   3.293   5.258   2.641
    1   AR   Ar  184   4.513   6.278   1.015
    1   AR   Ar  185   2.658   5.331   5.044
    1   AR   Ar  186   3.894   4.631   3.653
    1   AR   Ar  187   3.633   6.307   3.454
    1   AR   Ar  188   3.017   6.326   1.708
    1   AR   Ar  189   3.705   2.429   7.204
    1   AR   Ar  190   4.427   6.421   4.056
    1   AR   Ar  191   3.561   5.621   7.700
    1   AR   Ar  192   4.223   6.092   5.244
    1   AR   Ar  193   2.569   5.977   0.672
    1   AR   Ar  194   4.455   3.586  -1.135
    1   AR   Ar  195   5.461   0.882   0.128
    1   AR   Ar  196   4.722   0.136   0.123
    1   AR   Ar  197   3.964   1.252   0.924
    1   AR   Ar  198   6.111   1.291   0.808
    1   AR   Ar  199   3.605   1.246   3.005
    1   AR   Ar  200   5.124   1.915   0.379
    1   AR   Ar  201   5.412   6.530   3.600
    1   AR   Ar  202   5.475   2.000   4.471
    1   AR   Ar  203   6.437   6.734   3.460
    1   AR   Ar  204   5.083   6.789   4.696
    1   AR   Ar  205   6.540   6.976   2.366
    1   AR   Ar  206   4.998   0.743   4.908
    1   AR   Ar  207   1.007   1.549   6.752
    1   AR   Ar  208   7.075   0.404   3.254
    1   AR   Ar  209   7.110   3.318  -2.448
    1   AR   Ar  210   3.306   0.637  -0.215
    1   AR   Ar  211   6.559   2.913   0.566
    1   AR   Ar  212   5.927   3.392  -1.512
    1   AR   Ar  213   2.985   1.335   1.978
    1   AR   Ar  214   4.463   3.510   2.817
    1   AR   Ar  215   5.762   2.314   1.329
    1   AR   Ar  216   0.834   3.678   1.844
    1   AR   Ar  217   5.146   3.371   4.263
    1   AR   Ar  218   4.517   3.351   5.103
    1   AR   Ar  219   5.045   2.538   3.377
    1   AR   Ar  220   4.282   3.772   1.871
    1   AR   Ar  221   6.127   6.712   5.094
    1   AR   Ar  222   3.948   0.844   6.852
    1   AR   Ar  223   7.107   1.091   7.500
    1   AR   Ar  224   4.815   3.155   6.271
    1   AR   Ar  225   6.408   3.395   2.491
    1   AR   Ar  226   2.880   4.057   3.088
    1   AR   Ar  227   6.852   3.543   1.364
    1   AR   Ar  228   5.641   6.365   2.003
    1   AR   Ar  229   5.459   4.072  -0.614
    1   AR   Ar  230   4.923   4.506   3.854
    1   AR   Ar  231   6.178   1.248   3.079
    1   AR   Ar  232   4.102   2.280   0.493
    1   AR   Ar  233   6.563   2.600   3.151
    1   AR   Ar  234   6.229   3.362   4.200
    1   AR   Ar  235   6.704   1.978   4.757
    1   AR   Ar  236   5.708   5.655   5.646
    1   AR   Ar  237   5.546   3.707   5.243
    1   AR   Ar  238   4.789   4.592   5.684
    1   AR   Ar  239   5.634   3.986   8.412
    1   AR   Ar  240   6.871   3.112   6.744
    1   AR   Ar  241   1.201   6.675  -0.561
    1   AR   Ar  242   5.045   4.607   0.201
    1   AR   Ar  243   5.816   4.168   2.361
    1   AR   Ar  244   0.730   5.395  -0.656
    1   AR   Ar  245   4.925   0.511   1.094
    1   AR   Ar  246   5.458   5.593   0.450
    1   AR   Ar  247   5.313   4.123   1.349
    1   AR   Ar  248   5.483   5.526  -0.652
    1   AR   Ar  249   4.109   5.835   2.271
    1   AR   Ar  250   5.142   5.815   4.348
    1   AR   Ar  251   5.627   5.251   3.565
    1   AR   Ar  252   4.412   5.441   3.596
    1   AR   Ar  253   6.280   3.652   5.974
    1   AR   Ar  254   1.945   3.768   9.287
    1   AR   Ar  255   4.080   3.163   8.259
    1   AR   Ar  256   6.946   5.515   3.691
    7.12000  7.12000 12.00000
Argon-slab step 3055
  256
    1   AR   Ar    1   6.841   1.347  -1.940
    1   AR   Ar    2   6.322   0.027   0.641
    1   AR   Ar    3   2.052   0.982   0.307
    1   AR   Ar    4   1.129   0.663  -0.399
    1   AR   Ar    5   0.248   6.797   1.145
    1   AR   Ar    6   6.922   0.867   2.287
    1   AR   Ar    7   6.614   4.146   3.323
    1   AR   Ar    8   5.981   0.315   1.617
    1   AR   Ar    9   1.025   0.091   2.984
    1   AR   Ar   10   0.762   0.275   4.005
    1   AR   Ar   11   1.855   6.234   3.901
    1   AR   Ar   12   0.859   1.422   2.673
    1   AR   Ar   13   0.057   0.957   4.966
    1   AR   Ar   14   0.244   2.364   7.428
    1   AR   Ar   15   4.907   0.933  10.300
    1   AR   Ar   16   0.972   0.370   5.034
    1   AR   Ar   17   6.353   1.855  -0.005
    1   AR   Ar   18   6.585   2.673  -0.590
    1   AR   Ar   19   2.019   2.770   1.477
    1   AR   Ar   20   4.873   4.253  -1.788
    1   AR   Ar   21   4.742   1.922   1.318
    1   AR   Ar   22   6.441   2.115   2.119
    1   AR   Ar   23   6.625   0.541  -0.523
    1   AR   Ar   24   7.028   1.871   1.363
    1   AR   Ar   25   0.260   1.395   3.680
    1   AR   Ar   26   5.784   0.353   4.269
    1   AR   Ar   27   1.412   1.158   3.587
    1   AR   Ar   28   0.854   2.115   4.818
    1   AR   Ar   29   5.810   2.819   7.062
    1   AR   Ar   30   1.784   1.345   4.708
    1   AR   Ar   31   2.572   0.441   7.883
    1   AR   Ar   32   1.561   3.417   5.686
    1   AR   Ar   33   0.740   4.189  -0.610
    1   AR   Ar   34   0.308   5.081   2.785
    1   AR   Ar   35   6.298   5.294   0.997
    1   AR   Ar   36   6.816   0.463  -4.036
    1   AR   Ar   37   5.358   2.245   2.343
    1   AR   Ar   38   0.144   4.044   2.452
    1   AR   Ar   39   1.170   3.495   3.340
    1   AR   Ar   40   2.036   3.894   1.120
    1   AR   Ar   41   0.221   3.272   3.940
    1   AR   Ar   42   6.164   5.806   4.510
    1   AR   Ar   43   7.047   2.286   5.947
    1   AR   Ar   44   0.539   4.319   3.411
    1   AR   Ar   45   0.608   3.158   5.754
    1   AR   Ar   46   0.810   5.358   5.901
    1   AR   Ar   47   6.025   3.850   7.052
    1   AR   Ar   48   0.233   5.773   6.852
    1   AR   Ar   49   5.673   0.727  -0.938
    1   AR   Ar   50   5.286   5.322   1.446
    1   AR   Ar   51   6.981   4.714   1.627
    1   AR   Ar   52   5.691   4.869  -1.417
    1   AR   Ar   53   5.243   5.770   2.766
    1   AR   Ar   54   0.224   6.437   2.568
    1   AR   Ar   55   6.487   5.901   2.494
    1   AR   Ar   56   0.124   0.938   1.124
    1   AR   Ar   57   5.706   3.656   3.357
    1   AR   Ar   58   6.753   4.285   4.276
    1   AR   Ar   59   2.298   5.316   6.112
    1   AR   Ar   60   0.550   6.346   3.526
    1   AR   Ar   61   6.641   4.938   6.324
    1   AR   Ar   62   0.883   5.148   4.820
    1   AR   Ar   63   2.372   0.298   6.698
    1   AR   Ar   64   0.699   6.032   4.509
    1   AR   Ar   65   3.484   0.008   0.719
    1   AR   Ar   66   0.949   1.648   1.528
    1   AR   Ar   67   3.110   6.579  -1.758
    1   AR   Ar   68   2.832   1.437  -0.676
    1   AR   Ar   69   2.952   1.024   0.840
    1   AR   Ar   70   0.677   0.117   2.086
    1   AR   Ar   71   2.667   1.179   4.091
    1   AR   Ar   72   3.217   0.279   1.977
    1   AR   Ar   73   3.371   0.495   3.672
    1   AR   Ar   74   2.099   0.252   3.775
    1   AR   Ar   75   4.026   1.145   4.534
    1   AR   Ar   76   1.561   0.728   1.863
    1   AR   Ar   77   2.585   6.335   6.203
    1   AR   Ar   78   0.910   0.086   6.548
    1   AR   Ar   79   3.590   6.163   6.166
    1   AR   Ar   80   3.817   5.021   5.614
    1   AR   Ar   81   2.879   6.658  -0.167
    1   AR   Ar   82   6.870   5.775  -0.766
    1   AR   Ar   83   0.465   2.718   0.435
    1   AR   Ar   84   7.091   3.856   0.138
    1   AR   Ar   85   1.116   3.595   0.712
    1   AR   Ar   86   1.854   4.613  -0.485
    1   AR   Ar   87   1.836   1.643   1.071
    1   AR   Ar   88   2.090   5.047   1.192
    1   AR   Ar   89   0.166   2.678   2.514
    1   AR   Ar   90   2.467   2.616   4.748
    1   AR   Ar   91   1.001   2.442   3.634
    1   AR   Ar   92   1.286   2.451   2.155
    1   AR   Ar   93   2.116   0.389   5.468
    1   AR   Ar   94   0.723   6.692  10.641
    1   AR   Ar   95   3.897   1.467   5.720
    1   AR   Ar   96   2.951   0.505   4.827
    1   AR   Ar   97   5.019   1.797  -0.737
    1   AR   Ar   98   2.228   5.186   2.609
    1   AR   Ar   99   5.925   2.225  -1.343
    1   AR   Ar  100   1.961   3.332  -0.396
    1   AR   Ar  101   3.174   4.190   1.114
    1   AR   Ar  102   3.279   2.706   3.831
    1   AR   Ar  103   1.098   4.604   1.196
    1   AR   Ar  104   2.758   2.891  -1.247
    1   AR   Ar  105   1.661   3.282   4.259
    1   AR   Ar  106   3.413   3.396   5.208
    1   AR   Ar  107   0.900   3.988   4.423
    1   AR   Ar  108   3.403   2.408   4.904
    1   AR   Ar  109   1.843   4.633   4.525
    1   AR   Ar  110   1.304   4.283   6.378
    1   AR   Ar  111   4.884   4.243   7.567
    1   AR   Ar  112   1.258   5.627   7.009
    1   AR   Ar  113   2.963   4.652  -0.053
    1   AR   Ar  114   1.989   6.543  -1.072
    1   AR   Ar  115   2.551   5.626  -0.909
    1   AR   Ar  116   6.204   6.512  -1.021
    1   AR   Ar  117   1.203   5.299   3.601
    1   AR   Ar  118   1.166   5.683   2.690
    1   AR   Ar  119   2.253   2.877   2.631
    1   AR   Ar  120   1.837   6.958   2.381
    1   AR   Ar  121   6.067   4.751   5.261
    1   AR   Ar  122   2.546   6.431   5.127
    1   AR   Ar  123   3.575   4.398   4.650
    1   AR   Ar  124   1.843   5.967   1.562
    1   AR   Ar  125   7.042   4.257   5.368
    1   AR   Ar  126   0.007   6.921   4.482
    1   AR   Ar  127   3.287   3.973   6.222
    1   AR   Ar  128   3.138   5.354   6.693
    1   AR   Ar  129   2.765   6.354   2.891
    1   AR   Ar  130   4.970   2.646  -1.814
    1   AR   Ar  131   4.329   1.327  -0.043
    1   AR   Ar  132   0.278   1.634  -0.582
    1   AR   Ar  133   4.535   6.467   3.052
    1   AR   Ar  134   4.748   1.617   3.941
    1   AR   Ar  135   5.626   0.267   2.687
    1   AR   Ar  136   4.782   7.049   2.023
    1   AR   Ar  137   2.785   5.320   3.701
    1   AR   Ar  138   4.826   1.703   5.175
    1   AR   Ar  139   5.517   2.657   5.806
    1   AR   Ar  140   3.868   0.039   4.767
    1   AR   Ar  141   3.651   5.559   4.379
    1   AR   Ar  142   3.149   0.083   5.983
    1   AR   Ar  143   6.915   0.136   5.636
    1   AR   Ar  144   6.368   1.324   5.758
    1   AR   Ar  145   4.392   3.558   0.103
    1   AR   Ar  146   3.704   2.323   2.249
    1   AR   Ar  147   5.139   1.302  -1.682
    1   AR   Ar  148   3.103   4.658  -1.253
    1   AR   Ar  149   2.851   2.208   1.406
    1   AR   Ar  150   1.948   1.447   2.641
    1   AR   Ar  151   2.211   1.976   3.555
    1   AR   Ar  152   3.333   3.490  -0.195
    1   AR   Ar  153   4.612   0.330   3.896
    1   AR   Ar  154   4.232   2.342   4.457
    1   AR   Ar  155   6.729   0.109   6.937
    1   AR   Ar  156   4.102   3.413   3.917
    1   AR   Ar  157   2.053   3.708   6.815
    1   AR   Ar  158   1.259   2.810   6.727
    1   AR   Ar  159   4.473   2.074   6.507
    1   AR   Ar  160   2.914   1.471   5.126
    1   AR   Ar  161   5.348   3.165   1.887
    1   AR   Ar  162   4.750   6.088  -0.145
    1   AR   Ar  163   4.846   2.995   0.957
    1   AR   Ar  164   3.116   5.169   1.528
    1   AR   Ar  165   3.805   3.187   1.001
    1   AR   Ar  166   2.446   3.817   4.911
    1   AR   Ar  167   4.192   1.017   1.989
    1   AR   Ar  168   5.115   2.951  -0.472
    1   AR   Ar  169   3.336   3.776   2.130
    1   AR   Ar  170   2.265   4.279   5.847
    1   AR   Ar  171   5.785   4.316   4.292
    1   AR   Ar  172   4.717   5.047   4.790
    1   AR   Ar  173   2.893   3.324   7.651
    1   AR   Ar  174   2.005   4.867   7.239
    1   AR   Ar  175   2.748   3.100   6.017
    1   AR   Ar  176   3.838   2.708   5.998
    1   AR   Ar  177   6.305   4.675  -0.064
    1   AR   Ar  178   4.072   4.921  -0.082
    1   AR   Ar  179   3.998   5.123   0.981
    1   AR   Ar  180   0.647   1.599  -2.477
    1   AR   Ar  181   0.723   5.965   1.840
    1   AR   Ar  182   2.576   0.450   2.754
    1   AR   Ar  183   3.251   5.243   2.631
    1   AR   Ar  184   4.535   6.270   0.964
    1   AR   Ar  185   2.678   5.336   5.032
    1   AR   Ar  186   3.911   4.586   3.650
    1   AR   Ar  187   3.632   6.271   3.462
    1   AR   Ar  188   3.021   6.336   1.705
    1   AR   Ar  189   3.688   2.455   7.209
    1   AR   Ar  190   4.426   6.422   4.050
    1   AR   Ar  191   3.566   5.631   7.693
    1   AR   Ar  192   4.221   6.072   5.260
    1   AR   Ar  193   2.601   5.991   0.711
    1   AR   Ar  194   4.481   3.585  -1.166
    1   AR   Ar  195   5.464   0.893   0.153
    1   AR   Ar  196   4.719   0.158   0.128
    1   AR   Ar  197   3.946   1.251   0.914
    1   AR   Ar  198   6.088   1.295   0.778
    1   AR   Ar  199   3.590   1.228   3.015
    1   AR   Ar  200   5.137   1.916   0.413
    1   AR   Ar  201   5.407   6.518   3.599
    1   AR   Ar  202   5.490   1.976   4.492
    1   AR   Ar  203   6.455   6.715   3.495
    1   AR   Ar  204   5.097   6.756   4.718
    1   AR   Ar  205   6.585   6.989   2.337
    1   AR   Ar  206   5.000   0.759   4.902
    1   AR   Ar  207   1.015   1.551   6.786
    1   AR   Ar  208   7.104   0.432   3.253
    1   AR   Ar  209   7.108   3.295  -2.451
    1   AR   Ar  210   3.302   0.585  -0.218
    1   AR   Ar  211   6.536   2.894   0.577
    1   AR   Ar  212   5.940   3.390  -1.497
    1   AR   Ar  213   2.988   1.335   1.994
    1   AR   Ar  214   4.448   3.497   2.848
    1   AR   Ar  215   5.732   2.334   1.327
    1   AR   Ar  216   0.822   3.705   1.889
    1   AR   Ar  217   5.162   3.393   4.258
    1   AR   Ar  218   4.500   3.354   5.063
    1   AR   Ar  219   5.056   2.536   3.369
    1   AR   Ar  220   4.285   3.788   1.859
    1   AR   Ar  221   6.102   6.734   5.108
    1   AR   Ar  222   3.932   0.831   6.816
    1   AR   Ar  223   7.110   1.095   7.477
    1   AR   Ar  224   4.820   3.139   6.258
    1   AR   Ar  225   6.419   3.423   2.477
    1   AR   Ar  226   2.828   4.039   3.127
    1   AR   Ar  227   6.820   3.554   1.367
    1   AR   Ar  228   5.620   6.350   2.033
    1   AR   Ar  229   5.465   4.065  -0.622
    1   AR   Ar  230   4.911   4.504   3.841
    1   AR   Ar  231   6.203   1.252   3.099
    1   AR   Ar  232   4.050   2.268   0.497
    1   AR   Ar  233   6.558   2.611   3.217
    1   AR   Ar  234   6.226   3.365   4.175
    1   AR   Ar  235   6.711   1.971   4.760
    1   AR   Ar  236   5.711   5.685   5.633
    1   AR   Ar  237   5.543   3.694   5.241
    1   AR   Ar  238   4.810   4.568   5.696
    1   AR   Ar  239   5.650   3.992   8.400
    1   AR   Ar  240   6.894   3.087   6.773
    1   AR   Ar  241   1.183   6.675  -0.528
    1   AR   Ar  242   5.031   4.622   0.202
    1   AR   Ar  243   5.811   4.191   2.352
    1   AR   Ar  244   0.715   5.385  -0.635
    1   AR   Ar  245   4.952   0.554   1.109
    1   AR   Ar  246   5.441   5.577   0.455
    1   AR   Ar  247   5.339   4.123   1.317
    1   AR   Ar  248   5.473   5.518  -0.656
    1   AR   Ar  249   4.090   5.823   2.273
    1   AR   Ar  250   5.143   5.803   4.345
    1   AR   Ar  251   5.631   5.259   3.592
    1   AR   Ar  252   4.450   5.436   3.596
    1   AR   Ar  253   6.277   3.643   5.962
    1   AR   Ar  254   1.945   3.725   9.301
    1   AR   Ar  255   4.041   3.164   8.286
    1   AR   Ar  256   6.937   5.511   3.689
    7.12000  7.12000 12.00000
Argon-slab step 3060
  256
    1   AR   Ar    1   6.828   1.350  -1.958
    1   AR   Ar    2   6.301   0.056   0.636
    1   AR   Ar    3   2.053   0.961   0.286
    1   AR   Ar    4   1.137   0.670  -0.400
    1   AR   Ar    5   0.238   6.771   1.127
    1   AR   Ar    6   6.897   0.890   2.294
    1   AR   Ar    7   6.591   4.123   3.321
    1   AR   Ar    8   5.994   0.306   1.611
    1   AR   Ar    9   1.031   0.087   2.984
    1   AR   Ar   10   0.784   0.264   4.032
    1   AR   Ar   11   1.843   6.248   3.897
    1   AR   Ar   12   0.855   1.414   2.666
    1   AR   Ar   13   0.063   0.977   4.950
    1   AR   Ar   14   0.241   2.387   7.424
    1   AR   Ar   15   4.899   0.905  10.258
    1   AR   Ar   16   1.001   0.341   5.026
    1   AR   Ar   17   6.362   1.830  -0.028
    1   AR   Ar   18   6.577   2.675  -0.569
    1   AR   Ar   19   1.997   2.805   1.488
    1   AR   Ar   20   4.881   4.272  -1.797
    1   AR   Ar   21   4.727   1.939   1.339
    1   AR   Ar   22   6.423   2.145   2.143
    1   AR   Ar   23   6.637   0.553  -0.513
    1   AR   Ar   24   6.988   1.878   1.372
    1   AR   Ar   25   0.271   1.402   3.734
    1   AR   Ar   26   5.770   0.352   4.244
    1   AR   Ar   27   1.408   1.142   3.582
    1   AR   Ar   28   0.820   2.108   4.806
    1   AR   Ar   29   5.875   2.853   7.067
    1   AR   Ar   30   1.760   1.356   4.681
    1   AR   Ar   31   2.598   0.451   7.887
    1   AR   Ar   32   1.589   3.417   5.670
    1   AR   Ar   33   0.704   4.182  -0.587
    1   AR   Ar   34   0.326   5.075   2.771
    1   AR   Ar   35   6.286   5.310   0.998
    1   AR   Ar   36   6.810   0.450  -4.043
    1   AR   Ar   37   5.345   2.226   2.340
    1   AR   Ar   38   0.129   4.048   2.472
    1   AR   Ar   39   1.190   3.508   3.321
    1   AR   Ar   40   2.038   3.877   1.130
    1   AR   Ar   41   0.238   3.277   3.961
    1   AR   Ar   42   6.135   5.815   4.502
    1   AR   Ar   43   7.038   2.293   5.940
    1   AR   Ar   44   0.555   4.337   3.419
    1   AR   Ar   45   0.593   3.148   5.771
    1   AR   Ar   46   0.803   5.330   5.866
    1   AR   Ar   47   6.015   3.858   7.044
    1   AR   Ar   48   0.231   5.783   6.858
    1   AR   Ar   49   5.688   0.737  -0.903
    1   AR   Ar   50   5.278   5.332   1.455
    1   AR   Ar   51   6.956   4.697   1.600
    1   AR   Ar   52   5.659   4.870  -1.429
    1   AR   Ar   53   5.280   5.778   2.776
    1   AR   Ar   54   0.244   6.415   2.578
    1   AR   Ar   55   6.490   5.920   2.484
    1   AR   Ar   56   0.140   0.958   1.085
    1   AR   Ar   57   5.678   3.664   3.381
    1   AR   Ar   58   6.749   4.283   4.254
    1   AR   Ar   59   2.315   5.299   6.106
    1   AR   Ar   60   0.554   6.381   3.553
    1   AR   Ar   61   6.661   4.929   6.332
    1   AR   Ar   62   0.849   5.132   4.817
    1   AR   Ar   63   2.341   0.300   6.696
    1   AR   Ar   64   0.690   6.016   4.488
    1   AR   Ar   65   3.497   7.099   0.726
    1   AR   Ar   66   0.963   1.640   1.508
    1   AR   Ar   67   3.116   6.602  -1.740
    1   AR   Ar   68   2.813   1.422  -0.681
    1   AR   Ar   69   2.932   1.030   0.837
    1   AR   Ar   70   0.669   0.153   2.090
    1   AR   Ar   71   2.660   1.218   4.064
    1   AR   Ar   72   3.190   0.297   1.948
    1   AR   Ar   73   3.406   0.468   3.668
    1   AR   Ar   74   2.102   0.238   3.783
    1   AR   Ar   75   4.031   1.166   4.562
    1   AR   Ar   76   1.565   0.740   1.884
    1   AR   Ar   77   2.580   6.319   6.220
    1   AR   Ar   78   0.875   0.068   6.546
    1   AR   Ar   79   3.569   6.168   6.185
    1   AR   Ar   80   3.834   4.988   5.633
    1   AR   Ar   81   2.887   6.641  -0.198
    1   AR   Ar   82   6.858   5.790  -0.760
    1   AR   Ar   83   0.477   2.753   0.419
    1   AR   Ar   84   0.003   3.840   0.166
    1   AR   Ar   85   1.112   3.596   0.734
    1   AR   Ar   86   1.855   4.652  -0.469
    1   AR   Ar   87   1.866   1.648   1.040
    1   AR   Ar   88   2.051   5.037   1.155
    1   AR   Ar   89   0.173   2.641   2.520
    1   AR   Ar   90   2.484   2.614   4.721
    1   AR   Ar   91   1.027   2.417   3.594
    1   AR   Ar   92   1.277   2.473   2.176
    1   AR   Ar   93   2.134   0.384   5.470
    1   AR   Ar   94   0.706   6.681  10.655
    1   AR   Ar   95   3.874   1.495   5.715
    1   AR   Ar   96   2.960   0.494   4.808
    1   AR   Ar   97   5.030   1.776  -0.727
    1   AR   Ar   98   2.235   5.208   2.610
    1   AR   Ar   99   5.910   2.225  -1.287
    1   AR   Ar  100   1.939   3.345  -0.380
    1   AR   Ar  101   3.176   4.160   1.143
    1   AR   Ar  102   3.291   2.705   3.837
    1   AR   Ar  103   1.094   4.624   1.220
    1   AR   Ar  104   2.758   2.900  -1.250
    1   AR   Ar  105   1.683   3.300   4.247
    1   AR   Ar  106   3.430   3.396   5.240
    1   AR   Ar  107   0.915   3.963   4.408
    1   AR   Ar  108   3.410   2.372   4.913
    1   AR   Ar  109   1.822   4.645   4.531
    1   AR   Ar  110   1.269   4.270   6.379
    1   AR   Ar  111   4.896   4.258   7.535
    1   AR   Ar  112   1.254   5.576   6.975
    1   AR   Ar  113   2.945   4.659  -0.106
    1   AR   Ar  114   1.993   6.556  -1.067
    1   AR   Ar  115   2.566   5.605  -0.897
    1   AR   Ar  116   6.169   6.512  -1.003
    1   AR   Ar  117   1.174   5.302   3.606
    1   AR   Ar  118   1.171   5.689   2.678
    1   AR   Ar  119   2.249   2.876   2.636
    1   AR   Ar  120   1.857   6.973   2.393
    1   AR   Ar  121   6.056   4.736   5.283
    1   AR   Ar  122   2.541   6.449   5.134
    1   AR   Ar  123   3.599   4.417   4.667
    1   AR   Ar  124   1.830   5.963   1.548
    1   AR   Ar  125   7.054   4.244   5.360
    1   AR   Ar  126   7.109   6.916   4.493
    1   AR   Ar  127   3.320   3.996   6.227
    1   AR   Ar  128   3.151   5.338   6.670
    1   AR   Ar  129   2.769   6.340   2.885
    1   AR   Ar  130   4.981   2.643  -1.845
    1   AR   Ar  131   4.302   1.323  -0.039
    1   AR   Ar  132   0.266   1.649  -0.590
    1   AR   Ar  133   4.545   6.467   3.041
    1   AR   Ar  134   4.719   1.616   3.925
    1   AR   Ar  135   5.633   0.290   2.657
    1   AR   Ar  136   4.783   7.028   1.992
    1   AR   Ar  137   2.779   5.321   3.683
    1   AR   Ar  138   4.821   1.698   5.213
    1   AR   Ar  139   5.540   2.662   5.794
    1   AR   Ar  140   3.869   0.015   4.758
    1   AR   Ar  141   3.651   5.563   4.348
    1   AR   Ar  142   3.158   0.099   5.996
    1   AR   Ar  143   6.903   0.133   5.639
    1   AR   Ar  144   6.429   1.324   5.755
    1   AR   Ar  145   4.387   3.599   0.075
    1   AR   Ar  146   3.687   2.340   2.230
    1   AR   Ar  147   5.131   1.298  -1.658
    1   AR   Ar  148   3.143   4.634  -1.259
    1   AR   Ar  149   2.872   2.197   1.419
    1   AR   Ar  150   1.983   1.461   2.602
    1   AR   Ar  151   2.217   1.970   3.534
    1   AR   Ar  152   3.369   3.488  -0.213
    1   AR   Ar  153   4.618   0.324   3.926
    1   AR   Ar  154   4.247   2.329   4.437
    1   AR   Ar  155   6.736   0.132   6.934
    1   AR   Ar  156   4.080   3.426   3.911
    1   AR   Ar  157   2.043   3.721   6.825
    1   AR   Ar  158   1.225   2.808   6.714
    1   AR   Ar  159   4.483   2.053   6.557
    1   AR   Ar  160   2.899   1.475   5.132
    1   AR   Ar  161   5.358   3.200   1.965
    1   AR   Ar  162   4.751   6.071  -0.166
    1   AR   Ar  163   4.862   3.007   0.993
    1   AR   Ar  164   3.099   5.191   1.541
    1   AR   Ar  165   3.813   3.174   0.989
    1   AR   Ar  166   2.440   3.802   4.926
    1   AR   Ar  167   4.179   1.041   1.984
    1   AR   Ar  168   5.136   2.997  -0.475
    1   AR   Ar  169   3.353   3.767   2.121
    1   AR   Ar  170   2.257   4.282   5.832
    1   AR   Ar  171   5.734   4.313   4.283
    1   AR   Ar  172   4.736   5.042   4.769
    1   AR   Ar  173   2.923   3.311   7.643
    1   AR   Ar  174   2.029   4.886   7.227
    1   AR   Ar  175   2.749   3.107   6.036
    1   AR   Ar  176   3.831   2.715   5.990
    1   AR   Ar  177   6.298   4.667  -0.067
    1   AR   Ar  178   4.111   4.933  -0.082
    1   AR   Ar  179   4.001   5.106   1.009
    1   AR   Ar  180   0.663   1.597  -2.465
    1   AR   Ar  181   0.718   5.978   1.809
    1   AR   Ar  182   2.585   0.445   2.767
    1   AR   Ar  183   3.215   5.229   2.623
    1   AR   Ar  184   4.558   6.263   0.914
    1   AR   Ar  185   2.689   5.329   5.045
    1   AR   Ar  186   3.917   4.535   3.645
    1   AR   Ar  187   3.621   6.230   3.471
    1   AR   Ar  188   3.025   6.345   1.703
    1   AR   Ar  189   3.670   2.483   7.214
    1   AR   Ar  190   4.435   6.407   4.064
    1   AR   Ar  191   3.571   5.641   7.686
    1   AR   Ar  192   4.220   6.050   5.272
    1   AR   Ar  193   2.633   6.004   0.750
    1   AR   Ar  194   4.465   3.590  -1.160
    1   AR   Ar  195   5.458   0.901   0.166
    1   AR   Ar  196   4.713   0.177   0.132
    1   AR   Ar  197   3.933   1.249   0.908
    1   AR   Ar  198   6.068   1.306   0.760
    1   AR   Ar  199   3.577   1.216   3.019
    1   AR   Ar  200   5.155   1.919   0.437
    1   AR   Ar  201   5.406   6.509   3.599
    1   AR   Ar  202   5.517   1.963   4.515
    1   AR   Ar  203   6.474   6.694   3.529
    1   AR   Ar  204   5.089   6.753   4.718
    1   AR   Ar  205   6.619   7.007   2.308
    1   AR   Ar  206   5.002   0.766   4.893
    1   AR   Ar  207   1.021   1.553   6.820
    1   AR   Ar  208   0.013   0.458   3.252
    1   AR   Ar  209   7.106   3.273  -2.453
    1   AR   Ar  210   3.298   0.534  -0.218
    1   AR   Ar  211   6.510   2.874   0.586
    1   AR   Ar  212   5.951   3.387  -1.481
    1   AR   Ar  213   2.991   1.334   2.012
    1   AR   Ar  214   4.435   3.482   2.884
    1   AR   Ar  215   5.705   2.353   1.321
    1   AR   Ar  216   0.814   3.695   1.882
    1   AR   Ar  217   5.177   3.414   4.251
    1   AR   Ar  218   4.480   3.357   5.026
    1   AR   Ar  219   5.066   2.536   3.363
    1   AR   Ar  220   4.279   3.791   1.882
    1   AR   Ar  221   6.078   6.756   5.120
    1   AR   Ar  222   3.916   0.819   6.778
    1   AR   Ar  223   7.115   1.099   7.453
    1   AR   Ar  224   4.812   3.132   6.252
    1   AR   Ar  225   6.434   3.440   2.463
    1   AR   Ar  226   2.777   4.023   3.166
    1   AR   Ar  227   6.790   3.568   1.374
    1   AR   Ar  228   5.602   6.341   2.057
    1   AR   Ar  229   5.470   4.057  -0.631
    1   AR   Ar  230   4.895   4.497   3.826
    1   AR   Ar  231   6.230   1.256   3.118
    1   AR   Ar  232   3.999   2.256   0.500
    1   AR   Ar  233   6.546   2.622   3.289
    1   AR   Ar  234   6.229   3.362   4.154
    1   AR   Ar  235   6.718   1.965   4.764
    1   AR   Ar  236   5.713   5.717   5.619
    1   AR   Ar  237   5.537   3.682   5.237
    1   AR   Ar  238   4.835   4.540   5.711
    1   AR   Ar  239   5.665   3.998   8.385
    1   AR   Ar  240   6.915   3.063   6.799
    1   AR   Ar  241   1.154   6.676  -0.488
    1   AR   Ar  242   5.021   4.634   0.206
    1   AR   Ar  243   5.799   4.221   2.342
    1   AR   Ar  244   0.706   5.365  -0.616
    1   AR   Ar  245   4.959   0.567   1.117
    1   AR   Ar  246   5.424   5.564   0.456
    1   AR   Ar  247   5.365   4.124   1.284
    1   AR   Ar  248   5.466   5.511  -0.656
    1   AR   Ar  249   4.090   5.812   2.252
    1   AR   Ar  250   5.152   5.791   4.341
    1   AR   Ar  251   5.639   5.266   3.620
    1   AR   Ar  252   4.492   5.441   3.594
    1   AR   Ar  253   6.277   3.633   5.953
    1   AR   Ar  254   1.945   3.682   9.316
    1   AR   Ar  255   4.002   3.165   8.311
    1   AR   Ar  256   6.928   5.507   3.687
    7.12000  7.12000 12.00000
Argon-slab step 3065
  256
    1   AR   Ar    1   6.828   1.341  -1.947
    1   AR   Ar    2   6.281   0.086   0.628
    1   AR   Ar    3   2.052   0.936   0.258
    1   AR   Ar    4   1.145   0.678  -0.400
    1   AR   Ar    5   0.228   6.745   1.110
    1   AR   Ar    6   6.874   0.918   2.299
    1   AR   Ar    7   6.568   4.100   3.302
    1   AR   Ar    8   6.002   0.300   1.604
    1   AR   Ar    9   1.040   0.083   3.001
    1   AR   Ar   10   0.808   0.256   4.051
    1   AR   Ar   11   1.830   6.261   3.893
    1   AR   Ar   12   0.850   1.406   2.658
    1   AR   Ar   13   0.071   0.995   4.932
    1   AR   Ar   14   0.243   2.406   7.423
    1   AR   Ar   15   4.891   0.878  10.216
    1   AR   Ar   16   1.031   0.313   5.023
    1   AR   Ar   17   6.372   1.806  -0.057
    1   AR   Ar   18   6.571   2.683  -0.549
    1   AR   Ar   19   1.975   2.842   1.497
    1   AR   Ar   20   4.889   4.292  -1.810
    1   AR   Ar   21   4.705   1.954   1.368
    1   AR   Ar   22   6.398   2.177   2.177
    1   AR   Ar   23   6.651   0.564  -0.499
    1   AR   Ar   24   6.950   1.892   1.374
    1   AR   Ar   25   0.284   1.409   3.788
    1   AR   Ar   26   5.758   0.349   4.217
    1   AR   Ar   27   1.405   1.125   3.577
    1   AR   Ar   28   0.786   2.101   4.794
    1   AR   Ar   29   5.938   2.880   7.072
    1   AR   Ar   30   1.735   1.366   4.654
    1   AR   Ar   31   2.624   0.461   7.889
    1   AR   Ar   32   1.622   3.419   5.653
    1   AR   Ar   33   0.669   4.177  -0.564
    1   AR   Ar   34   0.339   5.075   2.752
    1   AR   Ar   35   6.276   5.325   1.001
    1   AR   Ar   36   6.800   0.434  -4.035
    1   AR   Ar   37   5.331   2.204   2.338
    1   AR   Ar   38   0.107   4.059   2.500
    1   AR   Ar   39   1.211   3.518   3.299
    1   AR   Ar   40   2.043   3.862   1.143
    1   AR   Ar   41   0.253   3.280   3.979
    1   AR   Ar   42   6.117   5.825   4.494
    1   AR   Ar   43   7.029   2.300   5.933
    1   AR   Ar   44   0.571   4.352   3.436
    1   AR   Ar   45   0.574   3.138   5.790
    1   AR   Ar   46   0.796   5.301   5.834
    1   AR   Ar   47   6.005   3.874   7.035
    1   AR   Ar   48   0.225   5.793   6.862
    1   AR   Ar   49   5.700   0.748  -0.870
    1   AR   Ar   50   5.267   5.342   1.469
    1   AR   Ar   51   6.932   4.679   1.576
    1   AR   Ar   52   5.632   4.869  -1.444
    1   AR   Ar   53   5.314   5.775   2.795
    1   AR   Ar   54   0.273   6.394   2.595
    1   AR   Ar   55   6.496   5.930   2.477
    1   AR   Ar   56   0.158   0.968   1.044
    1   AR   Ar   57   5.642   3.673   3.392
    1   AR   Ar   58   6.758   4.286   4.251
    1   AR   Ar   59   2.325   5.281   6.096
    1   AR   Ar   60   0.554   6.404   3.578
    1   AR   Ar   61   6.681   4.920   6.339
    1   AR   Ar   62   0.817   5.095   4.817
    1   AR   Ar   63   2.309   0.301   6.693
    1   AR   Ar   64   0.678   6.016   4.466
    1   AR   Ar   65   3.510   7.071   0.734
    1   AR   Ar   66   0.972   1.631   1.492
    1   AR   Ar   67   3.121   6.624  -1.721
    1   AR   Ar   68   2.804   1.444  -0.696
    1   AR   Ar   69   2.910   1.035   0.837
    1   AR   Ar   70   0.653   0.192   2.079
    1   AR   Ar   71   2.655   1.253   4.039
    1   AR   Ar   72   3.167   0.312   1.914
    1   AR   Ar   73   3.440   0.435   3.671
    1   AR   Ar   74   2.104   0.225   3.790
    1   AR   Ar   75   4.030   1.185   4.592
    1   AR   Ar   76   1.568   0.755   1.904
    1   AR   Ar   77   2.588   6.326   6.219
    1   AR   Ar   78   0.840   0.051   6.543
    1   AR   Ar   79   3.559   6.173   6.201
    1   AR   Ar   80   3.849   4.957   5.650
    1   AR   Ar   81   2.894   6.622  -0.229
    1   AR   Ar   82   6.847   5.802  -0.753
    1   AR   Ar   83   0.487   2.787   0.403
    1   AR   Ar   84   0.034   3.823   0.197
    1   AR   Ar   85   1.100   3.604   0.738
    1   AR   Ar   86   1.857   4.690  -0.452
    1   AR   Ar   87   1.903   1.656   1.011
    1   AR   Ar   88   2.017   5.024   1.116
    1   AR   Ar   89   0.179   2.613   2.529
    1   AR   Ar   90   2.487   2.615   4.692
    1   AR   Ar   91   1.054   2.392   3.554
    1   AR   Ar   92   1.264   2.494   2.201
    1   AR   Ar   93   2.151   0.369   5.457
    1   AR   Ar   94   0.688   6.671  10.669
    1   AR   Ar   95   3.850   1.524   5.709
    1   AR   Ar   96   2.966   0.479   4.787
    1   AR   Ar   97   5.043   1.758  -0.713
    1   AR   Ar   98   2.228   5.231   2.611
    1   AR   Ar   99   5.892   2.223  -1.231
    1   AR   Ar  100   1.917   3.359  -0.364
    1   AR   Ar  101   3.179   4.130   1.169
    1   AR   Ar  102   3.301   2.702   3.844
    1   AR   Ar  103   1.086   4.641   1.244
    1   AR   Ar  104   2.757   2.910  -1.252
    1   AR   Ar  105   1.692   3.310   4.255
    1   AR   Ar  106   3.446   3.399   5.271
    1   AR   Ar  107   0.930   3.978   4.386
    1   AR   Ar  108   3.431   2.365   4.921
    1   AR   Ar  109   1.801   4.657   4.537
    1   AR   Ar  110   1.231   4.258   6.378
    1   AR   Ar  111   4.908   4.272   7.503
    1   AR   Ar  112   1.256   5.601   6.960
    1   AR   Ar  113   2.928   4.666  -0.159
    1   AR   Ar  114   2.003   6.569  -1.065
    1   AR   Ar  115   2.582   5.582  -0.884
    1   AR   Ar  116   6.129   6.516  -0.986
    1   AR   Ar  117   1.144   5.304   3.621
    1   AR   Ar  118   1.183   5.700   2.663
    1   AR   Ar  119   2.244   2.873   2.641
    1   AR   Ar  120   1.876   6.979   2.401
    1   AR   Ar  121   6.045   4.719   5.305
    1   AR   Ar  122   2.536   6.468   5.141
    1   AR   Ar  123   3.622   4.436   4.685
    1   AR   Ar  124   1.817   5.963   1.538
    1   AR   Ar  125   7.066   4.230   5.352
    1   AR   Ar  126   7.086   6.909   4.506
    1   AR   Ar  127   3.353   4.020   6.230
    1   AR   Ar  128   3.168   5.320   6.653
    1   AR   Ar  129   2.769   6.326   2.875
    1   AR   Ar  130   4.993   2.640  -1.873
    1   AR   Ar  131   4.278   1.318  -0.039
    1   AR   Ar  132   0.253   1.664  -0.597
    1   AR   Ar  133   4.552   6.471   3.021
    1   AR   Ar  134   4.695   1.607   3.901
    1   AR   Ar  135   5.639   0.320   2.623
    1   AR   Ar  136   4.783   7.007   1.963
    1   AR   Ar  137   2.773   5.323   3.665
    1   AR   Ar  138   4.810   1.701   5.256
    1   AR   Ar  139   5.573   2.662   5.775
    1   AR   Ar  140   3.876   7.109   4.748
    1   AR   Ar  141   3.651   5.566   4.319
    1   AR   Ar  142   3.169   0.115   6.006
    1   AR   Ar  143   6.909   0.140   5.649
    1   AR   Ar  144   6.492   1.324   5.751
    1   AR   Ar  145   4.385   3.641   0.047
    1   AR   Ar  146   3.670   2.355   2.210
    1   AR   Ar  147   5.123   1.294  -1.637
    1   AR   Ar  148   3.184   4.610  -1.264
    1   AR   Ar  149   2.894   2.186   1.429
    1   AR   Ar  150   2.019   1.474   2.563
    1   AR   Ar  151   2.221   1.970   3.512
    1   AR   Ar  152   3.401   3.486  -0.231
    1   AR   Ar  153   4.624   0.319   3.955
    1   AR   Ar  154   4.273   2.324   4.413
    1   AR   Ar  155   6.744   0.156   6.929
    1   AR   Ar  156   4.060   3.440   3.908
    1   AR   Ar  157   2.036   3.731   6.835
    1   AR   Ar  158   1.191   2.807   6.701
    1   AR   Ar  159   4.494   2.031   6.606
    1   AR   Ar  160   2.882   1.480   5.139
    1   AR   Ar  161   5.368   3.240   2.044
    1   AR   Ar  162   4.746   6.057  -0.186
    1   AR   Ar  163   4.880   3.018   1.026
    1   AR   Ar  164   3.077   5.216   1.556
    1   AR   Ar  165   3.812   3.206   1.013
    1   AR   Ar  166   2.406   3.770   4.930
    1   AR   Ar  167   4.166   1.065   1.978
    1   AR   Ar  168   5.159   3.041  -0.478
    1   AR   Ar  169   3.351   3.756   2.120
    1   AR   Ar  170   2.249   4.283   5.820
    1   AR   Ar  171   5.689   4.312   4.282
    1   AR   Ar  172   4.744   5.023   4.756
    1   AR   Ar  173   2.953   3.299   7.634
    1   AR   Ar  174   2.056   4.902   7.214
    1   AR   Ar  175   2.747   3.114   6.055
    1   AR   Ar  176   3.822   2.722   5.981
    1   AR   Ar  177   6.331   4.691  -0.107
    1   AR   Ar  178   4.142   4.947  -0.086
    1   AR   Ar  179   3.998   5.099   1.026
    1   AR   Ar  180   0.679   1.595  -2.453
    1   AR   Ar  181   0.714   5.990   1.768
    1   AR   Ar  182   2.597   0.446   2.788
    1   AR   Ar  183   3.192   5.215   2.618
    1   AR   Ar  184   4.581   6.255   0.865
    1   AR   Ar  185   2.701   5.321   5.057
    1   AR   Ar  186   3.912   4.484   3.637
    1   AR   Ar  187   3.605   6.185   3.478
    1   AR   Ar  188   3.029   6.354   1.703
    1   AR   Ar  189   3.655   2.525   7.200
    1   AR   Ar  190   4.428   6.394   4.079
    1   AR   Ar  191   3.575   5.652   7.678
    1   AR   Ar  192   4.220   6.029   5.281
    1   AR   Ar  193   2.665   6.015   0.789
    1   AR   Ar  194   4.438   3.594  -1.142
    1   AR   Ar  195   5.427   0.917   0.172
    1   AR   Ar  196   4.702   0.192   0.135
    1   AR   Ar  197   3.923   1.245   0.910
    1   AR   Ar  198   6.061   1.321   0.767
    1   AR   Ar  199   3.564   1.209   3.017
    1   AR   Ar  200   5.178   1.923   0.452
    1   AR   Ar  201   5.411   6.501   3.602
    1   AR   Ar  202   5.552   1.953   4.535
    1   AR   Ar  203   6.496   6.672   3.563
    1   AR   Ar  204   5.086   6.756   4.725
    1   AR   Ar  205   6.648   7.026   2.280
    1   AR   Ar  206   5.005   0.765   4.880
    1   AR   Ar  207   1.027   1.557   6.854
    1   AR   Ar  208   0.041   0.481   3.250
    1   AR   Ar  209   7.103   3.250  -2.455
    1   AR   Ar  210   3.296   0.484  -0.217
    1   AR   Ar  211   6.482   2.851   0.595
    1   AR   Ar  212   5.961   3.384  -1.463
    1   AR   Ar  213   2.994   1.333   2.032
    1   AR   Ar  214   4.424   3.466   2.921
    1   AR   Ar  215   5.683   2.372   1.312
    1   AR   Ar  216   0.814   3.671   1.855
    1   AR   Ar  217   5.187   3.430   4.243
    1   AR   Ar  218   4.458   3.358   4.991
    1   AR   Ar  219   5.064   2.526   3.388
    1   AR   Ar  220   4.293   3.795   1.896
    1   AR   Ar  221   6.056   6.777   5.132
    1   AR   Ar  222   3.914   0.811   6.768
    1   AR   Ar  223   0.000   1.104   7.428
    1   AR   Ar  224   4.795   3.133   6.253
    1   AR   Ar  225   6.447   3.444   2.450
    1   AR   Ar  226   2.727   4.007   3.205
    1   AR   Ar  227   6.761   3.583   1.383
    1   AR   Ar  228   5.590   6.342   2.068
    1   AR   Ar  229   5.475   4.049  -0.642
    1   AR   Ar  230   4.877   4.488   3.806
    1   AR   Ar  231   6.258   1.260   3.137
    1   AR   Ar  232   3.963   2.249   0.502
    1   AR   Ar  233   6.539   2.620   3.330
    1   AR   Ar  234   6.240   3.351   4.140
    1   AR   Ar  235   6.725   1.958   4.767
    1   AR   Ar  236   5.715   5.750   5.603
    1   AR   Ar  237   5.528   3.672   5.230
    1   AR   Ar  238   4.861   4.510   5.727
    1   AR   Ar  239   5.680   4.003   8.370
    1   AR   Ar  240   6.935   3.044   6.818
    1   AR   Ar  241   1.120   6.678  -0.444
    1   AR   Ar  242   5.018   4.640   0.212
    1   AR   Ar  243   5.783   4.257   2.332
    1   AR   Ar  244   0.701   5.343  -0.597
    1   AR   Ar  245   4.960   0.574   1.125
    1   AR   Ar  246   5.408   5.554   0.454
    1   AR   Ar  247   5.390   4.125   1.250
    1   AR   Ar  248   5.461   5.504  -0.653
    1   AR   Ar  249   4.080   5.800   2.250
    1   AR   Ar  250   5.166   5.784   4.337
    1   AR   Ar  251   5.654   5.268   3.647
    1   AR   Ar  252   4.533   5.449   3.588
    1   AR   Ar  253   6.282   3.623   5.948
    1   AR   Ar  254   1.945   3.639   9.330
    1   AR   Ar  255   3.962   3.165   8.334
    1   AR   Ar  256   6.919   5.503   3.686
    7.12000  7.12000 12.00000
Argon-slab step 3070
  256
    1   AR   Ar    1   6.826   1.331  -1.935
    1   AR   Ar    2   6.262   0.118   0.616
    1   AR   Ar    3   2.049   0.908   0.225
    1   AR   Ar    4   1.153   0.687  -0.400
    1   AR   Ar    5   0.216   6.721   1.095
    1   AR   Ar    6   6.853   0.952   2.300
    1   AR   Ar    7   6.545   4.078   3.276
    1   AR   Ar    8   6.005   0.298   1.595
    1   AR   Ar    9   1.053   0.080   3.026
    1   AR   Ar   10   0.833   0.250   4.061
    1   AR   Ar   11   1.817   6.273   3.888
    1   AR   Ar   12   0.844   1.397   2.649
    1   AR   Ar   13   0.080   1.011   4.913
    1   AR   Ar   14   0.256   2.417   7.425
    1   AR   Ar   15   4.883   0.850  10.175
    1   AR   Ar   16   1.045   0.308   5.029
    1   AR   Ar   17   6.381   1.781  -0.089
    1   AR   Ar   18   6.568   2.698  -0.530
    1   AR   Ar   19   1.954   2.878   1.505
    1   AR   Ar   20   4.893   4.309  -1.826
    1   AR   Ar   21   4.678   1.968   1.403
    1   AR   Ar   22   6.382   2.205   2.189
    1   AR   Ar   23   6.670   0.576  -0.483
    1   AR   Ar   24   6.914   1.908   1.373
    1   AR   Ar   25   0.297   1.418   3.843
    1   AR   Ar   26   5.747   0.345   4.188
    1   AR   Ar   27   1.403   1.109   3.573
    1   AR   Ar   28   0.750   2.093   4.780
    1   AR   Ar   29   5.996   2.898   7.076
    1   AR   Ar   30   1.710   1.376   4.627
    1   AR   Ar   31   2.650   0.471   7.891
    1   AR   Ar   32   1.657   3.420   5.637
    1   AR   Ar   33   0.637   4.173  -0.543
    1   AR   Ar   34   0.348   5.081   2.730
    1   AR   Ar   35   6.267   5.339   1.003
    1   AR   Ar   36   6.786   0.420  -4.017
    1   AR   Ar   37   5.315   2.181   2.337
    1   AR   Ar   38   0.091   4.075   2.526
    1   AR   Ar   39   1.231   3.526   3.277
    1   AR   Ar   40   2.050   3.851   1.156
    1   AR   Ar   41   0.265   3.283   3.995
    1   AR   Ar   42   6.090   5.815   4.505
    1   AR   Ar   43   7.018   2.306   5.927
    1   AR   Ar   44   0.585   4.365   3.458
    1   AR   Ar   45   0.559   3.138   5.803
    1   AR   Ar   46   0.789   5.272   5.809
    1   AR   Ar   47   5.997   3.899   7.026
    1   AR   Ar   48   0.216   5.804   6.865
    1   AR   Ar   49   5.708   0.760  -0.837
    1   AR   Ar   50   5.258   5.344   1.483
    1   AR   Ar   51   6.910   4.660   1.553
    1   AR   Ar   52   5.611   4.869  -1.458
    1   AR   Ar   53   5.343   5.761   2.823
    1   AR   Ar   54   0.309   6.374   2.616
    1   AR   Ar   55   6.521   5.918   2.476
    1   AR   Ar   56   0.176   0.973   1.003
    1   AR   Ar   57   5.599   3.684   3.387
    1   AR   Ar   58   6.774   4.293   4.259
    1   AR   Ar   59   2.328   5.266   6.084
    1   AR   Ar   60   0.545   6.400   3.574
    1   AR   Ar   61   6.700   4.904   6.347
    1   AR   Ar   62   0.786   5.046   4.815
    1   AR   Ar   63   2.286   0.303   6.687
    1   AR   Ar   64   0.666   6.020   4.452
    1   AR   Ar   65   3.522   7.042   0.743
    1   AR   Ar   66   0.976   1.622   1.480
    1   AR   Ar   67   3.125   6.646  -1.700
    1   AR   Ar   68   2.803   1.490  -0.716
    1   AR   Ar   69   2.888   1.039   0.840
    1   AR   Ar   70   0.654   0.213   2.105
    1   AR   Ar   71   2.656   1.279   4.019
    1   AR   Ar   72   3.196   0.298   1.909
    1   AR   Ar   73   3.473   0.396   3.680
    1   AR   Ar   74   2.107   0.213   3.797
    1   AR   Ar   75   4.025   1.203   4.625
    1   AR   Ar   76   1.571   0.772   1.923
    1   AR   Ar   77   2.584   6.336   6.220
    1   AR   Ar   78   0.803   0.034   6.540
    1   AR   Ar   79   3.562   6.180   6.213
    1   AR   Ar   80   3.863   4.927   5.667
    1   AR   Ar   81   2.899   6.601  -0.260
    1   AR   Ar   82   6.837   5.811  -0.744
    1   AR   Ar   83   0.495   2.820   0.386
    1   AR   Ar   84   0.062   3.803   0.231
    1   AR   Ar   85   1.086   3.613   0.742
    1   AR   Ar   86   1.858   4.729  -0.436
    1   AR   Ar   87   1.944   1.666   0.984
    1   AR   Ar   88   1.993   5.010   1.074
    1   AR   Ar   89   0.172   2.609   2.548
    1   AR   Ar   90   2.482   2.619   4.660
    1   AR   Ar   91   1.080   2.366   3.513
    1   AR   Ar   92   1.250   2.514   2.228
    1   AR   Ar   93   2.168   0.339   5.423
    1   AR   Ar   94   0.671   6.660  10.683
    1   AR   Ar   95   3.825   1.554   5.704
    1   AR   Ar   96   2.971   0.464   4.764
    1   AR   Ar   97   5.056   1.742  -0.693
    1   AR   Ar   98   2.204   5.256   2.611
    1   AR   Ar   99   5.873   2.220  -1.176
    1   AR   Ar  100   1.895   3.374  -0.347
    1   AR   Ar  101   3.181   4.104   1.190
    1   AR   Ar  102   3.302   2.695   3.830
    1   AR   Ar  103   1.108   4.648   1.244
    1   AR   Ar  104   2.756   2.920  -1.252
    1   AR   Ar  105   1.704   3.316   4.262
    1   AR   Ar  106   3.458   3.407   5.299
    1   AR   Ar  107   0.941   3.999   4.366
    1   AR   Ar  108   3.452   2.356   4.938
    1   AR   Ar  109   1.781   4.669   4.543
    1   AR   Ar  110   1.192   4.249   6.375
    1   AR   Ar  111   4.921   4.286   7.471
    1   AR   Ar  112   1.262   5.644   6.947
    1   AR   Ar  113   2.912   4.673  -0.212
    1   AR   Ar  114   2.016   6.581  -1.064
    1   AR   Ar  115   2.598   5.560  -0.869
    1   AR   Ar  116   6.086   6.523  -0.968
    1   AR   Ar  117   1.148   5.309   3.640
    1   AR   Ar  118   1.199   5.715   2.647
    1   AR   Ar  119   2.238   2.870   2.646
    1   AR   Ar  120   1.892   6.977   2.406
    1   AR   Ar  121   6.033   4.701   5.326
    1   AR   Ar  122   2.533   6.488   5.147
    1   AR   Ar  123   3.646   4.455   4.705
    1   AR   Ar  124   1.805   5.966   1.531
    1   AR   Ar  125   7.063   4.246   5.353
    1   AR   Ar  126   7.060   6.902   4.521
    1   AR   Ar  127   3.385   4.046   6.232
    1   AR   Ar  128   3.189   5.297   6.640
    1   AR   Ar  129   2.764   6.312   2.862
    1   AR   Ar  130   5.006   2.638  -1.898
    1   AR   Ar  131   4.257   1.312  -0.045
    1   AR   Ar  132   0.238   1.679  -0.604
    1   AR   Ar  133   4.555   6.478   2.997
    1   AR   Ar  134   4.678   1.587   3.868
    1   AR   Ar  135   5.645   0.349   2.591
    1   AR   Ar  136   4.779   6.987   1.933
    1   AR   Ar  137   2.767   5.326   3.646
    1   AR   Ar  138   4.797   1.710   5.302
    1   AR   Ar  139   5.610   2.659   5.753
    1   AR   Ar  140   3.890   7.089   4.746
    1   AR   Ar  141   3.654   5.565   4.294
    1   AR   Ar  142   3.180   0.132   6.014
    1   AR   Ar  143   6.915   0.148   5.659
    1   AR   Ar  144   6.554   1.323   5.746
    1   AR   Ar  145   4.388   3.685   0.022
    1   AR   Ar  146   3.654   2.370   2.189
    1   AR   Ar  147   5.116   1.289  -1.619
    1   AR   Ar  148   3.224   4.587  -1.267
    1   AR   Ar  149   2.916   2.176   1.436
    1   AR   Ar  150   2.054   1.487   2.524
    1   AR   Ar  151   2.218   1.979   3.486
    1   AR   Ar  152   3.429   3.485  -0.251
    1   AR   Ar  153   4.629   0.317   3.983
    1   AR   Ar  154   4.305   2.329   4.391
    1   AR   Ar  155   6.753   0.179   6.923
    1   AR   Ar  156   4.043   3.454   3.910
    1   AR   Ar  157   2.032   3.741   6.845
    1   AR   Ar  158   1.156   2.807   6.686
    1   AR   Ar  159   4.504   2.009   6.653
    1   AR   Ar  160   2.863   1.486   5.146
    1   AR   Ar  161   5.379   3.282   2.123
    1   AR   Ar  162   4.733   6.049  -0.206
    1   AR   Ar  163   4.897   3.031   1.059
    1   AR   Ar  164   3.053   5.241   1.569
    1   AR   Ar  165   3.809   3.239   1.038
    1   AR   Ar  166   2.375   3.737   4.931
    1   AR   Ar  167   4.151   1.088   1.973
    1   AR   Ar  168   5.183   3.081  -0.481
    1   AR   Ar  169   3.334   3.742   2.127
    1   AR   Ar  170   2.241   4.284   5.811
    1   AR   Ar  171   5.662   4.315   4.293
    1   AR   Ar  172   4.744   4.991   4.748
    1   AR   Ar  173   2.984   3.286   7.624
    1   AR   Ar  174   2.084   4.917   7.198
    1   AR   Ar  175   2.743   3.121   6.074
    1   AR   Ar  176   3.813   2.725   5.973
    1   AR   Ar  177   6.364   4.715  -0.147
    1   AR   Ar  178   4.159   4.965  -0.094
    1   AR   Ar  179   3.985   5.106   1.027
    1   AR   Ar  180   0.680   1.591  -2.460
    1   AR   Ar  181   0.711   6.001   1.720
    1   AR   Ar  182   2.613   0.454   2.815
    1   AR   Ar  183   3.187   5.201   2.616
    1   AR   Ar  184   4.605   6.247   0.818
    1   AR   Ar  185   2.714   5.312   5.068
    1   AR   Ar  186   3.892   4.435   3.624
    1   AR   Ar  187   3.588   6.141   3.483
    1   AR   Ar  188   3.034   6.362   1.707
    1   AR   Ar  189   3.641   2.572   7.181
    1   AR   Ar  190   4.408   6.384   4.091
    1   AR   Ar  191   3.579   5.662   7.669
    1   AR   Ar  192   4.212   6.013   5.287
    1   AR   Ar  193   2.697   6.025   0.823
    1   AR   Ar  194   4.410   3.596  -1.121
    1   AR   Ar  195   5.380   0.937   0.172
    1   AR   Ar  196   4.686   0.203   0.138
    1   AR   Ar  197   3.916   1.240   0.919
    1   AR   Ar  198   6.065   1.340   0.796
    1   AR   Ar  199   3.550   1.208   3.009
    1   AR   Ar  200   5.200   1.929   0.460
    1   AR   Ar  201   5.420   6.497   3.607
    1   AR   Ar  202   5.588   1.944   4.555
    1   AR   Ar  203   6.517   6.655   3.571
    1   AR   Ar  204   5.086   6.765   4.740
    1   AR   Ar  205   6.677   7.042   2.256
    1   AR   Ar  206   5.008   0.760   4.866
    1   AR   Ar  207   1.030   1.561   6.889
    1   AR   Ar  208   0.058   0.500   3.248
    1   AR   Ar  209   7.100   3.227  -2.456
    1   AR   Ar  210   3.294   0.439  -0.215
    1   AR   Ar  211   6.454   2.827   0.602
    1   AR   Ar  212   5.986   3.351  -1.454
    1   AR   Ar  213   2.998   1.332   2.054
    1   AR   Ar  214   4.416   3.450   2.958
    1   AR   Ar  215   5.666   2.391   1.303
    1   AR   Ar  216   0.818   3.644   1.823
    1   AR   Ar  217   5.186   3.438   4.238
    1   AR   Ar  218   4.445   3.364   4.969
    1   AR   Ar  219   5.053   2.510   3.434
    1   AR   Ar  220   4.325   3.799   1.903
    1   AR   Ar  221   6.036   6.798   5.142
    1   AR   Ar  222   3.932   0.807   6.802
    1   AR   Ar  223   0.006   1.110   7.402
    1   AR   Ar  224   4.775   3.137   6.255
    1   AR   Ar  225   6.453   3.438   2.436
    1   AR   Ar  226   2.678   3.991   3.243
    1   AR   Ar  227   6.733   3.598   1.392
    1   AR   Ar  228   5.584   6.354   2.065
    1   AR   Ar  229   5.479   4.044  -0.655
    1   AR   Ar  230   4.857   4.477   3.779
    1   AR   Ar  231   6.286   1.264   3.157
    1   AR   Ar  232   3.981   2.262   0.505
    1   AR   Ar  233   6.540   2.597   3.324
    1   AR   Ar  234   6.251   3.332   4.141
    1   AR   Ar  235   6.731   1.954   4.771
    1   AR   Ar  236   5.716   5.783   5.584
    1   AR   Ar  237   5.516   3.663   5.221
    1   AR   Ar  238   4.889   4.478   5.742
    1   AR   Ar  239   5.695   4.009   8.353
    1   AR   Ar  240   6.953   3.036   6.826
    1   AR   Ar  241   1.084   6.678  -0.400
    1   AR   Ar  242   5.027   4.642   0.219
    1   AR   Ar  243   5.766   4.295   2.322
    1   AR   Ar  244   0.697   5.320  -0.577
    1   AR   Ar  245   4.961   0.583   1.133
    1   AR   Ar  246   5.394   5.549   0.451
    1   AR   Ar  247   5.414   4.126   1.217
    1   AR   Ar  248   5.462   5.496  -0.648
    1   AR   Ar  249   4.066   5.789   2.256
    1   AR   Ar  250   5.174   5.786   4.338
    1   AR   Ar  251   5.675   5.264   3.668
    1   AR   Ar  252   4.569   5.459   3.578
    1   AR   Ar  253   6.289   3.613   5.946
    1   AR   Ar  254   1.945   3.595   9.344
    1   AR   Ar  255   3.922   3.166   8.356
    1   AR   Ar  256   6.910   5.500   3.684
    7.12000  7.12000 12.00000
Argon-slab step 3075
  256
    1   AR   Ar    1   6.825   1.323  -1.921
    1   AR   Ar    2   6.245   0.150   0.598
    1   AR   Ar    3   2.044   0.878   0.189
    1   AR   Ar    4   1.159   0.697  -0.400
    1   AR   Ar    5   0.203   6.701   1.081
    1   AR   Ar    6   6.833   0.988   2.298
    1   AR   Ar    7   6.520   4.059   3.253
    1   AR   Ar    8   6.007   0.292   1.581
    1   AR   Ar    9   1.068   0.078   3.057
    1   AR   Ar   10   0.811   0.262   4.040
    1   AR   Ar   11   1.801   6.284   3.882
    1   AR   Ar   12   0.838   1.387   2.639
    1   AR   Ar   13   0.092   1.024   4.893
    1   AR   Ar   14   0.252   2.408   7.416
    1   AR   Ar   15   4.875   0.823  10.133
    1   AR   Ar   16   1.052   0.301   5.016
    1   AR   Ar   17   6.389   1.754  -0.123
    1   AR   Ar   18   6.567   2.718  -0.511
    1   AR   Ar   19   1.934   2.910   1.514
    1   AR   Ar   20   4.877   4.295  -1.825
    1   AR   Ar   21   4.683   1.969   1.400
    1   AR   Ar   22   6.371   2.230   2.189
    1   AR   Ar   23   6.691   0.588  -0.464
    1   AR   Ar   24   6.880   1.924   1.366
    1   AR   Ar   25   0.312   1.426   3.899
    1   AR   Ar   26   5.738   0.339   4.158
    1   AR   Ar   27   1.401   1.092   3.568
    1   AR   Ar   28   0.714   2.084   4.765
    1   AR   Ar   29   6.044   2.905   7.081
    1   AR   Ar   30   1.685   1.385   4.599
    1   AR   Ar   31   2.676   0.481   7.891
    1   AR   Ar   32   1.688   3.418   5.624
    1   AR   Ar   33   0.609   4.171  -0.525
    1   AR   Ar   34   0.354   5.092   2.707
    1   AR   Ar   35   6.260   5.353   1.006
    1   AR   Ar   36   6.772   0.405  -3.999
    1   AR   Ar   37   5.296   2.157   2.337
    1   AR   Ar   38   0.087   4.095   2.544
    1   AR   Ar   39   1.251   3.531   3.254
    1   AR   Ar   40   2.059   3.845   1.168
    1   AR   Ar   41   0.276   3.284   4.008
    1   AR   Ar   42   6.069   5.775   4.523
    1   AR   Ar   43   7.011   2.316   5.920
    1   AR   Ar   44   0.595   4.378   3.481
    1   AR   Ar   45   0.533   3.154   5.836
    1   AR   Ar   46   0.781   5.244   5.791
    1   AR   Ar   47   5.988   3.932   7.015
    1   AR   Ar   48   0.205   5.814   6.866
    1   AR   Ar   49   5.713   0.774  -0.806
    1   AR   Ar   50   5.260   5.320   1.484
    1   AR   Ar   51   6.889   4.641   1.532
    1   AR   Ar   52   5.601   4.872  -1.470
    1   AR   Ar   53   5.370   5.740   2.854
    1   AR   Ar   54   0.347   6.357   2.629
    1   AR   Ar   55   6.503   5.888   2.478
    1   AR   Ar   56   0.194   0.975   0.963
    1   AR   Ar   57   5.556   3.696   3.365
    1   AR   Ar   58   6.777   4.305   4.266
    1   AR   Ar   59   2.340   5.303   6.079
    1   AR   Ar   60   0.538   6.414   3.554
    1   AR   Ar   61   6.710   4.863   6.366
    1   AR   Ar   62   0.755   4.991   4.807
    1   AR   Ar   63   2.305   0.315   6.668
    1   AR   Ar   64   0.657   6.022   4.451
    1   AR   Ar   65   3.535   7.014   0.754
    1   AR   Ar   66   0.979   1.614   1.470
    1   AR   Ar   67   3.128   6.667  -1.677
    1   AR   Ar   68   2.801   1.534  -0.734
    1   AR   Ar   69   2.867   1.043   0.846
    1   AR   Ar   70   0.655   0.231   2.137
    1   AR   Ar   71   2.663   1.295   4.005
    1   AR   Ar   72   3.227   0.283   1.902
    1   AR   Ar   73   3.505   0.354   3.693
    1   AR   Ar   74   2.109   0.204   3.804
    1   AR   Ar   75   4.017   1.219   4.660
    1   AR   Ar   76   1.573   0.789   1.941
    1   AR   Ar   77   2.568   6.348   6.223
    1   AR   Ar   78   0.766   0.017   6.536
    1   AR   Ar   79   3.577   6.187   6.224
    1   AR   Ar   80   3.876   4.898   5.685
    1   AR   Ar   81   2.902   6.574  -0.291
    1   AR   Ar   82   6.828   5.817  -0.733
    1   AR   Ar   83   0.501   2.849   0.368
    1   AR   Ar   84   0.086   3.783   0.271
    1   AR   Ar   85   1.072   3.625   0.746
    1   AR   Ar   86   1.857   4.767  -0.419
    1   AR   Ar   87   1.987   1.678   0.960
    1   AR   Ar   88   1.985   5.000   1.029
    1   AR   Ar   89   0.169   2.606   2.567
    1   AR   Ar   90   2.474   2.623   4.627
    1   AR   Ar   91   1.107   2.340   3.473
    1   AR   Ar   92   1.234   2.531   2.258
    1   AR   Ar   93   2.181   0.310   5.392
    1   AR   Ar   94   0.653   6.649  10.697
    1   AR   Ar   95   3.798   1.584   5.699
    1   AR   Ar   96   2.976   0.450   4.737
    1   AR   Ar   97   5.069   1.726  -0.666
    1   AR   Ar   98   2.168   5.283   2.611
    1   AR   Ar   99   5.853   2.218  -1.124
    1   AR   Ar  100   1.874   3.391  -0.330
    1   AR   Ar  101   3.181   4.082   1.205
    1   AR   Ar  102   3.299   2.685   3.812
    1   AR   Ar  103   1.118   4.650   1.238
    1   AR   Ar  104   2.756   2.931  -1.250
    1   AR   Ar  105   1.716   3.316   4.265
    1   AR   Ar  106   3.463   3.421   5.323
    1   AR   Ar  107   0.950   4.024   4.352
    1   AR   Ar  108   3.473   2.347   4.959
    1   AR   Ar  109   1.763   4.682   4.548
    1   AR   Ar  110   1.153   4.240   6.370
    1   AR   Ar  111   4.936   4.298   7.438
    1   AR   Ar  112   1.271   5.687   6.933
    1   AR   Ar  113   2.898   4.679  -0.263
    1   AR   Ar  114   2.031   6.592  -1.061
    1   AR   Ar  115   2.615   5.538  -0.854
    1   AR   Ar  116   6.040   6.532  -0.950
    1   AR   Ar  117   1.173   5.318   3.662
    1   AR   Ar  118   1.217   5.733   2.630
    1   AR   Ar  119   2.233   2.866   2.652
    1   AR   Ar  120   1.906   6.969   2.407
    1   AR   Ar  121   6.019   4.682   5.346
    1   AR   Ar  122   2.532   6.506   5.151
    1   AR   Ar  123   3.670   4.472   4.724
    1   AR   Ar  124   1.794   5.971   1.527
    1   AR   Ar  125   7.056   4.270   5.356
    1   AR   Ar  126   7.052   6.907   4.532
    1   AR   Ar  127   3.416   4.071   6.234
    1   AR   Ar  128   3.213   5.272   6.631
    1   AR   Ar  129   2.756   6.298   2.846
    1   AR   Ar  130   5.021   2.636  -1.921
    1   AR   Ar  131   4.239   1.305  -0.054
    1   AR   Ar  132   0.223   1.693  -0.611
    1   AR   Ar  133   4.556   6.486   2.971
    1   AR   Ar  134   4.676   1.575   3.879
    1   AR   Ar  135   5.651   0.376   2.562
    1   AR   Ar  136   4.772   6.970   1.905
    1   AR   Ar  137   2.760   5.329   3.627
    1   AR   Ar  138   4.784   1.723   5.348
    1   AR   Ar  139   5.649   2.655   5.730
    1   AR   Ar  140   3.903   7.097   4.762
    1   AR   Ar  141   3.660   5.557   4.279
    1   AR   Ar  142   3.191   0.150   6.020
    1   AR   Ar  143   6.923   0.157   5.669
    1   AR   Ar  144   6.585   1.323   5.746
    1   AR   Ar  145   4.398   3.731  -0.000
    1   AR   Ar  146   3.639   2.385   2.170
    1   AR   Ar  147   5.109   1.284  -1.605
    1   AR   Ar  148   3.264   4.563  -1.269
    1   AR   Ar  149   2.937   2.169   1.440
    1   AR   Ar  150   2.087   1.503   2.488
    1   AR   Ar  151   2.209   1.998   3.454
    1   AR   Ar  152   3.451   3.482  -0.273
    1   AR   Ar  153   4.633   0.315   4.008
    1   AR   Ar  154   4.339   2.347   4.373
    1   AR   Ar  155   6.764   0.202   6.915
    1   AR   Ar  156   4.027   3.466   3.921
    1   AR   Ar  157   2.030   3.749   6.853
    1   AR   Ar  158   1.120   2.807   6.672
    1   AR   Ar  159   4.513   1.988   6.698
    1   AR   Ar  160   2.842   1.490   5.152
    1   AR   Ar  161   5.388   3.323   2.200
    1   AR   Ar  162   4.715   6.044  -0.228
    1   AR   Ar  163   4.910   3.047   1.091
    1   AR   Ar  164   3.026   5.267   1.581
    1   AR   Ar  165   3.808   3.272   1.063
    1   AR   Ar  166   2.351   3.704   4.931
    1   AR   Ar  167   4.136   1.112   1.968
    1   AR   Ar  168   5.206   3.113  -0.484
    1   AR   Ar  169   3.311   3.724   2.142
    1   AR   Ar  170   2.235   4.283   5.806
    1   AR   Ar  171   5.653   4.325   4.314
    1   AR   Ar  172   4.738   4.951   4.745
    1   AR   Ar  173   3.013   3.276   7.614
    1   AR   Ar  174   2.113   4.930   7.180
    1   AR   Ar  175   2.737   3.130   6.093
    1   AR   Ar  176   3.806   2.723   5.968
    1   AR   Ar  177   6.394   4.741  -0.187
    1   AR   Ar  178   4.165   4.988  -0.106
    1   AR   Ar  179   3.974   5.113   1.028
    1   AR   Ar  180   0.658   1.584  -2.497
    1   AR   Ar  181   0.708   6.009   1.670
    1   AR   Ar  182   2.634   0.467   2.846
    1   AR   Ar  183   3.195   5.188   2.618
    1   AR   Ar  184   4.627   6.240   0.776
    1   AR   Ar  185   2.729   5.302   5.078
    1   AR   Ar  186   3.858   4.391   3.608
    1   AR   Ar  187   3.583   6.104   3.474
    1   AR   Ar  188   3.041   6.371   1.721
    1   AR   Ar  189   3.630   2.617   7.160
    1   AR   Ar  190   4.378   6.377   4.099
    1   AR   Ar  191   3.582   5.672   7.659
    1   AR   Ar  192   4.190   6.006   5.289
    1   AR   Ar  193   2.717   6.028   0.850
    1   AR   Ar  194   4.384   3.598  -1.098
    1   AR   Ar  195   5.332   0.958   0.166
    1   AR   Ar  196   4.663   0.208   0.140
    1   AR   Ar  197   3.910   1.234   0.933
    1   AR   Ar  198   6.075   1.360   0.835
    1   AR   Ar  199   3.537   1.209   3.000
    1   AR   Ar  200   5.220   1.938   0.466
    1   AR   Ar  201   5.432   6.496   3.613
    1   AR   Ar  202   5.617   1.943   4.563
    1   AR   Ar  203   6.538   6.642   3.561
    1   AR   Ar  204   5.085   6.778   4.758
    1   AR   Ar  205   6.708   7.053   2.237
    1   AR   Ar  206   5.013   0.754   4.854
    1   AR   Ar  207   1.033   1.567   6.924
    1   AR   Ar  208   0.029   0.510   3.265
    1   AR   Ar  209   7.097   3.204  -2.457
    1   AR   Ar  210   3.294   0.399  -0.211
    1   AR   Ar  211   6.427   2.801   0.610
    1   AR   Ar  212   6.010   3.317  -1.444
    1   AR   Ar  213   3.011   1.333   2.077
    1   AR   Ar  214   4.412   3.434   2.990
    1   AR   Ar  215   5.658   2.408   1.297
    1   AR   Ar  216   0.821   3.617   1.792
    1   AR   Ar  217   5.174   3.434   4.239
    1   AR   Ar  218   4.444   3.381   4.964
    1   AR   Ar  219   5.043   2.497   3.480
    1   AR   Ar  220   4.364   3.803   1.907
    1   AR   Ar  221   6.021   6.819   5.153
    1   AR   Ar  222   3.950   0.804   6.833
    1   AR   Ar  223   0.014   1.117   7.375
    1   AR   Ar  224   4.756   3.143   6.257
    1   AR   Ar  225   6.452   3.420   2.421
    1   AR   Ar  226   2.629   3.976   3.281
    1   AR   Ar  227   6.706   3.612   1.401
    1   AR   Ar  228   5.585   6.371   2.055
    1   AR   Ar  229   5.484   4.045  -0.668
    1   AR   Ar  230   4.838   4.463   3.746
    1   AR   Ar  231   6.297   1.258   3.168
    1   AR   Ar  232   4.001   2.276   0.510
    1   AR   Ar  233   6.539   2.574   3.318
    1   AR   Ar  234   6.247   3.327   4.156
    1   AR   Ar  235   6.737   1.951   4.775
    1   AR   Ar  236   5.717   5.816   5.563
    1   AR   Ar  237   5.503   3.655   5.213
    1   AR   Ar  238   4.918   4.445   5.756
    1   AR   Ar  239   5.709   4.014   8.334
    1   AR   Ar  240   6.972   3.042   6.817
    1   AR   Ar  241   1.049   6.679  -0.355
    1   AR   Ar  242   5.048   4.640   0.225
    1   AR   Ar  243   5.750   4.334   2.312
    1   AR   Ar  244   0.695   5.297  -0.557
    1   AR   Ar  245   4.962   0.594   1.141
    1   AR   Ar  246   5.382   5.550   0.448
    1   AR   Ar  247   5.439   4.127   1.185
    1   AR   Ar  248   5.468   5.486  -0.643
    1   AR   Ar  249   4.051   5.778   2.262
    1   AR   Ar  250   5.160   5.793   4.345
    1   AR   Ar  251   5.705   5.250   3.685
    1   AR   Ar  252   4.601   5.469   3.562
    1   AR   Ar  253   6.299   3.602   5.947
    1   AR   Ar  254   1.946   3.552   9.358
    1   AR   Ar  255   3.881   3.166   8.377
    1   AR   Ar  256   6.901   5.497   3.681
    7.12000  7.12000 12.00000
Argon-slab step 3080
  256
    1   AR   Ar    1   6.824   1.314  -1.907
    1   AR   Ar    2   6.228   0.184   0.574
    1   AR   Ar    3   2.040   0.848   0.152
    1   AR   Ar    4   1.164   0.706  -0.401
    1   AR   Ar    5   0.186   6.684   1.065
    1   AR   Ar    6   6.816   1.027   2.292
    1   AR   Ar    7   6.491   4.042   3.240
    1   AR   Ar    8   6.012   0.277   1.562
    1   AR   Ar    9   1.088   0.076   3.089
    1   AR   Ar   10   0.786   0.275   4.016
    1   AR   Ar   11   1.784   6.294   3.875
    1   AR   Ar   12   0.833   1.378   2.629
    1   AR   Ar   13   0.106   1.031   4.873
    1   AR   Ar   14   0.256   2.385   7.417
    1   AR   Ar   15   4.867   0.795  10.091
    1   AR   Ar   16   1.059   0.287   4.992
    1   AR   Ar   17   6.392   1.723  -0.156
    1   AR   Ar   18   6.568   2.742  -0.491
    1   AR   Ar   19   1.913   2.933   1.525
    1   AR   Ar   20   4.853   4.275  -1.827
    1   AR   Ar   21   4.694   1.966   1.389
    1   AR   Ar   22   6.356   2.258   2.193
    1   AR   Ar   23   6.715   0.601  -0.442
    1   AR   Ar   24   6.849   1.938   1.354
    1   AR   Ar   25   0.328   1.435   3.952
    1   AR   Ar   26   5.731   0.331   4.126
    1   AR   Ar   27   1.400   1.076   3.561
    1   AR   Ar   28   0.679   2.075   4.749
    1   AR   Ar   29   6.079   2.905   7.089
    1   AR   Ar   30   1.661   1.394   4.571
    1   AR   Ar   31   2.702   0.491   7.890
    1   AR   Ar   32   1.710   3.410   5.617
    1   AR   Ar   33   0.584   4.171  -0.509
    1   AR   Ar   34   0.359   5.109   2.684
    1   AR   Ar   35   6.255   5.367   1.010
    1   AR   Ar   36   6.759   0.391  -3.981
    1   AR   Ar   37   5.277   2.135   2.337
    1   AR   Ar   38   0.094   4.115   2.553
    1   AR   Ar   39   1.272   3.534   3.231
    1   AR   Ar   40   2.069   3.849   1.178
    1   AR   Ar   41   0.285   3.284   4.018
    1   AR   Ar   42   6.081   5.737   4.547
    1   AR   Ar   43   7.006   2.329   5.913
    1   AR   Ar   44   0.601   4.394   3.500
    1   AR   Ar   45   0.507   3.174   5.868
    1   AR   Ar   46   0.774   5.217   5.781
    1   AR   Ar   47   5.978   3.971   7.004
    1   AR   Ar   48   0.192   5.824   6.866
    1   AR   Ar   49   5.716   0.789  -0.778
    1   AR   Ar   50   5.260   5.295   1.488
    1   AR   Ar   51   6.870   4.623   1.514
    1   AR   Ar   52   5.599   4.878  -1.480
    1   AR   Ar   53   5.395   5.719   2.880
    1   AR   Ar   54   0.379   6.342   2.622
    1   AR   Ar   55   6.484   5.857   2.482
    1   AR   Ar   56   0.210   0.976   0.922
    1   AR   Ar   57   5.512   3.710   3.331
    1   AR   Ar   58   6.758   4.322   4.266
    1   AR   Ar   59   2.348   5.342   6.074
    1   AR   Ar   60   0.533   6.432   3.548
    1   AR   Ar   61   6.721   4.821   6.383
    1   AR   Ar   62   0.720   4.934   4.793
    1   AR   Ar   63   2.308   0.314   6.661
    1   AR   Ar   64   0.653   6.019   4.456
    1   AR   Ar   65   3.548   6.986   0.765
    1   AR   Ar   66   0.981   1.606   1.462
    1   AR   Ar   67   3.130   6.688  -1.653
    1   AR   Ar   68   2.800   1.578  -0.751
    1   AR   Ar   69   2.847   1.046   0.854
    1   AR   Ar   70   0.653   0.250   2.163
    1   AR   Ar   71   2.675   1.303   3.996
    1   AR   Ar   72   3.258   0.271   1.894
    1   AR   Ar   73   3.532   0.336   3.694
    1   AR   Ar   74   2.111   0.197   3.812
    1   AR   Ar   75   4.005   1.235   4.695
    1   AR   Ar   76   1.574   0.805   1.956
    1   AR   Ar   77   2.547   6.362   6.227
    1   AR   Ar   78   0.727   0.001   6.532
    1   AR   Ar   79   3.598   6.195   6.232
    1   AR   Ar   80   3.861   4.926   5.719
    1   AR   Ar   81   2.902   6.542  -0.322
    1   AR   Ar   82   6.819   5.821  -0.722
    1   AR   Ar   83   0.505   2.868   0.350
    1   AR   Ar   84   0.103   3.767   0.315
    1   AR   Ar   85   1.083   3.637   0.756
    1   AR   Ar   86   1.852   4.806  -0.403
    1   AR   Ar   87   2.007   1.681   0.939
    1   AR   Ar   88   1.997   4.997   0.980
    1   AR   Ar   89   0.170   2.606   2.586
    1   AR   Ar   90   2.467   2.625   4.593
    1   AR   Ar   91   1.133   2.313   3.431
    1   AR   Ar   92   1.217   2.547   2.289
    1   AR   Ar   93   2.189   0.287   5.365
    1   AR   Ar   94   0.636   6.638  10.710
    1   AR   Ar   95   3.769   1.614   5.697
    1   AR   Ar   96   2.980   0.438   4.707
    1   AR   Ar   97   5.079   1.711  -0.631
    1   AR   Ar   98   2.131   5.310   2.611
    1   AR   Ar   99   5.834   2.216  -1.074
    1   AR   Ar  100   1.852   3.408  -0.313
    1   AR   Ar  101   3.177   4.068   1.213
    1   AR   Ar  102   3.295   2.673   3.796
    1   AR   Ar  103   1.102   4.648   1.235
    1   AR   Ar  104   2.756   2.943  -1.247
    1   AR   Ar  105   1.724   3.310   4.262
    1   AR   Ar  106   3.462   3.441   5.341
    1   AR   Ar  107   0.960   4.048   4.346
    1   AR   Ar  108   3.494   2.340   4.981
    1   AR   Ar  109   1.749   4.695   4.555
    1   AR   Ar  110   1.114   4.231   6.363
    1   AR   Ar  111   4.952   4.310   7.406
    1   AR   Ar  112   1.283   5.728   6.917
    1   AR   Ar  113   2.888   4.682  -0.309
    1   AR   Ar  114   2.046   6.603  -1.057
    1   AR   Ar  115   2.631   5.518  -0.840
    1   AR   Ar  116   5.993   6.542  -0.932
    1   AR   Ar  117   1.198   5.328   3.684
    1   AR   Ar  118   1.241   5.746   2.622
    1   AR   Ar  119   2.228   2.862   2.657
    1   AR   Ar  120   1.918   6.956   2.407
    1   AR   Ar  121   6.005   4.663   5.366
    1   AR   Ar  122   2.535   6.518   5.151
    1   AR   Ar  123   3.695   4.489   4.742
    1   AR   Ar  124   1.785   5.976   1.525
    1   AR   Ar  125   7.050   4.294   5.359
    1   AR   Ar  126   7.071   6.933   4.538
    1   AR   Ar  127   3.446   4.097   6.235
    1   AR   Ar  128   3.240   5.244   6.624
    1   AR   Ar  129   2.744   6.285   2.828
    1   AR   Ar  130   5.036   2.634  -1.942
    1   AR   Ar  131   4.223   1.297  -0.066
    1   AR   Ar  132   0.208   1.707  -0.619
    1   AR   Ar  133   4.556   6.494   2.946
    1   AR   Ar  134   4.680   1.550   3.884
    1   AR   Ar  135   5.656   0.403   2.536
    1   AR   Ar  136   4.760   6.955   1.877
    1   AR   Ar  137   2.753   5.333   3.608
    1   AR   Ar  138   4.774   1.738   5.391
    1   AR   Ar  139   5.689   2.652   5.706
    1   AR   Ar  140   3.898   7.092   4.756
    1   AR   Ar  141   3.667   5.540   4.277
    1   AR   Ar  142   3.202   0.167   6.023
    1   AR   Ar  143   6.932   0.167   5.678
    1   AR   Ar  144   6.607   1.321   5.747
    1   AR   Ar  145   4.415   3.779  -0.019
    1   AR   Ar  146   3.628   2.400   2.153
    1   AR   Ar  147   5.104   1.279  -1.595
    1   AR   Ar  148   3.305   4.539  -1.272
    1   AR   Ar  149   2.953   2.162   1.437
    1   AR   Ar  150   2.116   1.523   2.456
    1   AR   Ar  151   2.196   2.025   3.418
    1   AR   Ar  152   3.466   3.479  -0.296
    1   AR   Ar  153   4.634   0.312   4.026
    1   AR   Ar  154   4.370   2.376   4.361
    1   AR   Ar  155   6.775   0.224   6.906
    1   AR   Ar  156   4.013   3.469   3.945
    1   AR   Ar  157   2.029   3.758   6.859
    1   AR   Ar  158   1.084   2.807   6.659
    1   AR   Ar  159   4.521   1.969   6.741
    1   AR   Ar  160   2.820   1.494   5.157
    1   AR   Ar  161   5.395   3.362   2.277
    1   AR   Ar  162   4.690   6.042  -0.253
    1   AR   Ar  163   4.917   3.069   1.121
    1   AR   Ar  164   2.997   5.291   1.591
    1   AR   Ar  165   3.809   3.300   1.088
    1   AR   Ar  166   2.341   3.677   4.928
    1   AR   Ar  167   4.148   1.112   1.973
    1   AR   Ar  168   5.227   3.133  -0.485
    1   AR   Ar  169   3.297   3.713   2.149
    1   AR   Ar  170   2.232   4.285   5.803
    1   AR   Ar  171   5.654   4.340   4.342
    1   AR   Ar  172   4.730   4.906   4.744
    1   AR   Ar  173   3.037   3.271   7.607
    1   AR   Ar  174   2.142   4.944   7.159
    1   AR   Ar  175   2.730   3.140   6.112
    1   AR   Ar  176   3.800   2.715   5.967
    1   AR   Ar  177   6.398   4.766  -0.214
    1   AR   Ar  178   4.163   5.014  -0.121
    1   AR   Ar  179   3.965   5.120   1.029
    1   AR   Ar  180   0.644   1.578  -2.531
    1   AR   Ar  181   0.707   6.013   1.622
    1   AR   Ar  182   2.657   0.484   2.879
    1   AR   Ar  183   3.209   5.174   2.623
    1   AR   Ar  184   4.647   6.237   0.741
    1   AR   Ar  185   2.746   5.292   5.086
    1   AR   Ar  186   3.811   4.358   3.586
    1   AR   Ar  187   3.625   6.084   3.433
    1   AR   Ar  188   3.052   6.382   1.744
    1   AR   Ar  189   3.624   2.658   7.133
    1   AR   Ar  190   4.343   6.374   4.105
    1   AR   Ar  191   3.585   5.682   7.647
    1   AR   Ar  192   4.169   5.998   5.287
    1   AR   Ar  193   2.695   6.014   0.869
    1   AR   Ar  194   4.357   3.600  -1.075
    1   AR   Ar  195   5.289   0.981   0.160
    1   AR   Ar  196   4.633   0.206   0.143
    1   AR   Ar  197   3.906   1.228   0.950
    1   AR   Ar  198   6.086   1.378   0.878
    1   AR   Ar  199   3.523   1.210   2.992
    1   AR   Ar  200   5.238   1.951   0.467
    1   AR   Ar  201   5.430   6.500   3.632
    1   AR   Ar  202   5.637   1.951   4.558
    1   AR   Ar  203   6.559   6.629   3.550
    1   AR   Ar  204   5.079   6.790   4.777
    1   AR   Ar  205   6.742   7.058   2.222
    1   AR   Ar  206   5.018   0.752   4.846
    1   AR   Ar  207   1.033   1.573   6.959
    1   AR   Ar  208   0.001   0.517   3.282
    1   AR   Ar  209   7.093   3.181  -2.457
    1   AR   Ar  210   3.297   0.367  -0.206
    1   AR   Ar  211   6.401   2.775   0.617
    1   AR   Ar  212   6.033   3.282  -1.431
    1   AR   Ar  213   3.031   1.334   2.097
    1   AR   Ar  214   4.412   3.418   3.015
    1   AR   Ar  215   5.659   2.422   1.296
    1   AR   Ar  216   0.825   3.589   1.762
    1   AR   Ar  217   5.154   3.419   4.242
    1   AR   Ar  218   4.431   3.370   4.985
    1   AR   Ar  219   5.034   2.489   3.525
    1   AR   Ar  220   4.397   3.816   1.908
    1   AR   Ar  221   6.012   6.840   5.164
    1   AR   Ar  222   3.968   0.801   6.863
    1   AR   Ar  223   0.022   1.127   7.348
    1   AR   Ar  224   4.737   3.149   6.258
    1   AR   Ar  225   6.445   3.395   2.406
    1   AR   Ar  226   2.581   3.961   3.320
    1   AR   Ar  227   6.679   3.622   1.407
    1   AR   Ar  228   5.593   6.388   2.042
    1   AR   Ar  229   5.491   4.058  -0.684
    1   AR   Ar  230   4.823   4.448   3.710
    1   AR   Ar  231   6.296   1.247   3.176
    1   AR   Ar  232   4.023   2.290   0.515
    1   AR   Ar  233   6.536   2.553   3.314
    1   AR   Ar  234   6.247   3.332   4.166
    1   AR   Ar  235   6.740   1.952   4.779
    1   AR   Ar  236   5.716   5.847   5.541
    1   AR   Ar  237   5.491   3.649   5.206
    1   AR   Ar  238   4.947   4.411   5.768
    1   AR   Ar  239   5.723   4.020   8.314
    1   AR   Ar  240   6.997   3.064   6.789
    1   AR   Ar  241   1.014   6.679  -0.311
    1   AR   Ar  242   5.053   4.622   0.220
    1   AR   Ar  243   5.735   4.373   2.303
    1   AR   Ar  244   0.693   5.273  -0.536
    1   AR   Ar  245   4.963   0.608   1.149
    1   AR   Ar  246   5.374   5.559   0.445
    1   AR   Ar  247   5.462   4.127   1.154
    1   AR   Ar  248   5.478   5.474  -0.635
    1   AR   Ar  249   4.036   5.768   2.268
    1   AR   Ar  250   5.121   5.803   4.358
    1   AR   Ar  251   5.739   5.228   3.700
    1   AR   Ar  252   4.625   5.480   3.541
    1   AR   Ar  253   6.316   3.602   5.947
    1   AR   Ar  254   1.946   3.509   9.372
    1   AR   Ar  255   3.839   3.167   8.396
    1   AR   Ar  256   6.893   5.495   3.678
    7.12000  7.12000 12.00000
Argon-slab step 3085
  256
    1   AR   Ar    1   6.822   1.306  -1.892
    1   AR   Ar    2   6.213   0.219   0.542
    1   AR   Ar    3   2.039   0.818   0.116
    1   AR   Ar    4   1.165   0.714  -0.403
    1   AR   Ar    5   0.165   6.674   1.047
    1   AR   Ar    6   6.802   1.066   2.282
    1   AR   Ar    7   6.460   4.027   3.236
    1   AR   Ar    8   6.013   0.263   1.543
    1   AR   Ar    9   1.114   0.073   3.114
    1   AR   Ar   10   0.757   0.292   3.995
    1   AR   Ar   11   1.765   6.302   3.867
    1   AR   Ar   12   0.827   1.368   2.618
    1   AR   Ar   13   0.123   1.031   4.857
    1   AR   Ar   14   0.264   2.355   7.423
    1   AR   Ar   15   4.859   0.768  10.049
    1   AR   Ar   16   1.066   0.275   4.975
    1   AR   Ar   17   6.389   1.691  -0.186
    1   AR   Ar   18   6.571   2.768  -0.471
    1   AR   Ar   19   1.891   2.946   1.540
    1   AR   Ar   20   4.824   4.250  -1.830
    1   AR   Ar   21   4.700   1.962   1.379
    1   AR   Ar   22   6.336   2.286   2.203
    1   AR   Ar   23   6.741   0.615  -0.419
    1   AR   Ar   24   6.830   1.972   1.343
    1   AR   Ar   25   0.346   1.444   3.997
    1   AR   Ar   26   5.727   0.322   4.094
    1   AR   Ar   27   1.398   1.065   3.552
    1   AR   Ar   28   0.647   2.066   4.734
    1   AR   Ar   29   6.077   2.900   7.095
    1   AR   Ar   30   1.637   1.402   4.543
    1   AR   Ar   31   2.728   0.501   7.887
    1   AR   Ar   32   1.719   3.394   5.621
    1   AR   Ar   33   0.561   4.173  -0.496
    1   AR   Ar   34   0.362   5.132   2.661
    1   AR   Ar   35   6.251   5.381   1.014
    1   AR   Ar   36   6.745   0.377  -3.963
    1   AR   Ar   37   5.257   2.113   2.338
    1   AR   Ar   38   0.108   4.132   2.553
    1   AR   Ar   39   1.291   3.536   3.208
    1   AR   Ar   40   2.081   3.864   1.185
    1   AR   Ar   41   0.292   3.283   4.026
    1   AR   Ar   42   6.110   5.701   4.575
    1   AR   Ar   43   6.993   2.328   5.905
    1   AR   Ar   44   0.610   4.394   3.493
    1   AR   Ar   45   0.481   3.199   5.897
    1   AR   Ar   46   0.767   5.190   5.777
    1   AR   Ar   47   5.970   4.012   6.992
    1   AR   Ar   48   0.178   5.834   6.864
    1   AR   Ar   49   5.718   0.798  -0.757
    1   AR   Ar   50   5.259   5.270   1.494
    1   AR   Ar   51   6.854   4.609   1.499
    1   AR   Ar   52   5.603   4.885  -1.490
    1   AR   Ar   53   5.420   5.700   2.899
    1   AR   Ar   54   0.405   6.327   2.595
    1   AR   Ar   55   6.465   5.827   2.487
    1   AR   Ar   56   0.224   0.977   0.883
    1   AR   Ar   57   5.467   3.722   3.293
    1   AR   Ar   58   6.741   4.340   4.267
    1   AR   Ar   59   2.351   5.378   6.069
    1   AR   Ar   60   0.526   6.442   3.549
    1   AR   Ar   61   6.732   4.779   6.398
    1   AR   Ar   62   0.682   4.881   4.774
    1   AR   Ar   63   2.300   0.306   6.661
    1   AR   Ar   64   0.664   6.005   4.446
    1   AR   Ar   65   3.561   6.958   0.778
    1   AR   Ar   66   0.983   1.599   1.455
    1   AR   Ar   67   3.131   6.708  -1.627
    1   AR   Ar   68   2.799   1.621  -0.767
    1   AR   Ar   69   2.830   1.047   0.864
    1   AR   Ar   70   0.646   0.259   2.141
    1   AR   Ar   71   2.688   1.306   3.989
    1   AR   Ar   72   3.291   0.263   1.886
    1   AR   Ar   73   3.555   0.333   3.688
    1   AR   Ar   74   2.113   0.193   3.819
    1   AR   Ar   75   3.993   1.250   4.729
    1   AR   Ar   76   1.573   0.818   1.970
    1   AR   Ar   77   2.524   6.380   6.233
    1   AR   Ar   78   0.688   7.104   6.528
    1   AR   Ar   79   3.597   6.164   6.208
    1   AR   Ar   80   3.847   4.958   5.753
    1   AR   Ar   81   2.901   6.504  -0.352
    1   AR   Ar   82   6.809   5.824  -0.710
    1   AR   Ar   83   0.510   2.874   0.331
    1   AR   Ar   84   0.110   3.759   0.363
    1   AR   Ar   85   1.130   3.647   0.774
    1   AR   Ar   86   1.842   4.844  -0.386
    1   AR   Ar   87   1.991   1.671   0.921
    1   AR   Ar   88   2.020   4.998   0.928
    1   AR   Ar   89   0.175   2.606   2.603
    1   AR   Ar   90   2.461   2.625   4.561
    1   AR   Ar   91   1.157   2.286   3.389
    1   AR   Ar   92   1.201   2.561   2.321
    1   AR   Ar   93   2.189   0.278   5.345
    1   AR   Ar   94   0.618   6.628  10.724
    1   AR   Ar   95   3.740   1.642   5.700
    1   AR   Ar   96   2.982   0.430   4.673
    1   AR   Ar   97   5.085   1.695  -0.591
    1   AR   Ar   98   2.104   5.333   2.610
    1   AR   Ar   99   5.852   2.205  -1.097
    1   AR   Ar  100   1.831   3.427  -0.294
    1   AR   Ar  101   3.167   4.066   1.215
    1   AR   Ar  102   3.290   2.659   3.780
    1   AR   Ar  103   1.101   4.654   1.245
    1   AR   Ar  104   2.757   2.958  -1.246
    1   AR   Ar  105   1.722   3.300   4.247
    1   AR   Ar  106   3.455   3.466   5.354
    1   AR   Ar  107   0.972   4.062   4.347
    1   AR   Ar  108   3.513   2.335   5.001
    1   AR   Ar  109   1.741   4.710   4.561
    1   AR   Ar  110   1.100   4.221   6.342
    1   AR   Ar  111   4.968   4.321   7.373
    1   AR   Ar  112   1.296   5.768   6.900
    1   AR   Ar  113   2.883   4.680  -0.349
    1   AR   Ar  114   2.062   6.614  -1.053
    1   AR   Ar  115   2.645   5.504  -0.829
    1   AR   Ar  116   5.945   6.552  -0.912
    1   AR   Ar  117   1.222   5.338   3.708
    1   AR   Ar  118   1.262   5.760   2.619
    1   AR   Ar  119   2.222   2.858   2.663
    1   AR   Ar  120   1.930   6.942   2.406
    1   AR   Ar  121   5.990   4.644   5.385
    1   AR   Ar  122   2.544   6.518   5.148
    1   AR   Ar  123   3.719   4.503   4.758
    1   AR   Ar  124   1.778   5.980   1.526
    1   AR   Ar  125   7.046   4.318   5.363
    1   AR   Ar  126   7.078   6.928   4.523
    1   AR   Ar  127   3.473   4.120   6.237
    1   AR   Ar  128   3.268   5.213   6.619
    1   AR   Ar  129   2.732   6.270   2.810
    1   AR   Ar  130   5.050   2.649  -1.969
    1   AR   Ar  131   4.237   1.293  -0.075
    1   AR   Ar  132   0.196   1.720  -0.627
    1   AR   Ar  133   4.556   6.502   2.921
    1   AR   Ar  134   4.686   1.514   3.886
    1   AR   Ar  135   5.661   0.429   2.513
    1   AR   Ar  136   4.743   6.943   1.849
    1   AR   Ar  137   2.746   5.337   3.589
    1   AR   Ar  138   4.766   1.755   5.433
    1   AR   Ar  139   5.728   2.648   5.682
    1   AR   Ar  140   3.898   7.086   4.753
    1   AR   Ar  141   3.676   5.516   4.283
    1   AR   Ar  142   3.213   0.184   6.025
    1   AR   Ar  143   6.942   0.178   5.687
    1   AR   Ar  144   6.629   1.319   5.748
    1   AR   Ar  145   4.436   3.829  -0.034
    1   AR   Ar  146   3.622   2.417   2.140
    1   AR   Ar  147   5.099   1.274  -1.586
    1   AR   Ar  148   3.347   4.515  -1.275
    1   AR   Ar  149   2.964   2.155   1.427
    1   AR   Ar  150   2.139   1.548   2.429
    1   AR   Ar  151   2.182   2.054   3.382
    1   AR   Ar  152   3.477   3.475  -0.322
    1   AR   Ar  153   4.632   0.308   4.035
    1   AR   Ar  154   4.399   2.414   4.354
    1   AR   Ar  155   6.782   0.245   6.901
    1   AR   Ar  156   4.001   3.461   3.981
    1   AR   Ar  157   2.028   3.766   6.863
    1   AR   Ar  158   1.050   2.806   6.648
    1   AR   Ar  159   4.527   1.950   6.781
    1   AR   Ar  160   2.796   1.495   5.159
    1   AR   Ar  161   5.398   3.397   2.352
    1   AR   Ar  162   4.663   6.041  -0.284
    1   AR   Ar  163   4.917   3.097   1.150
    1   AR   Ar  164   2.968   5.314   1.600
    1   AR   Ar  165   3.816   3.320   1.111
    1   AR   Ar  166   2.350   3.659   4.923
    1   AR   Ar  167   4.159   1.112   1.980
    1   AR   Ar  168   5.246   3.140  -0.485
    1   AR   Ar  169   3.298   3.712   2.138
    1   AR   Ar  170   2.235   4.286   5.817
    1   AR   Ar  171   5.660   4.357   4.371
    1   AR   Ar  172   4.720   4.893   4.741
    1   AR   Ar  173   3.051   3.276   7.607
    1   AR   Ar  174   2.172   4.957   7.135
    1   AR   Ar  175   2.723   3.151   6.130
    1   AR   Ar  176   3.796   2.701   5.972
    1   AR   Ar  177   6.384   4.793  -0.234
    1   AR   Ar  178   4.157   5.041  -0.138
    1   AR   Ar  179   3.956   5.127   1.029
    1   AR   Ar  180   0.668   1.573  -2.559
    1   AR   Ar  181   0.709   6.012   1.579
    1   AR   Ar  182   2.681   0.502   2.911
    1   AR   Ar  183   3.225   5.160   2.632
    1   AR   Ar  184   4.668   6.247   0.739
    1   AR   Ar  185   2.765   5.281   5.091
    1   AR   Ar  186   3.755   4.337   3.558
    1   AR   Ar  187   3.665   6.067   3.380
    1   AR   Ar  188   3.064   6.391   1.774
    1   AR   Ar  189   3.629   2.689   7.098
    1   AR   Ar  190   4.305   6.377   4.110
    1   AR   Ar  191   3.588   5.692   7.634
    1   AR   Ar  192   4.148   5.990   5.283
    1   AR   Ar  193   2.672   6.000   0.879
    1   AR   Ar  194   4.331   3.602  -1.052
    1   AR   Ar  195   5.251   1.003   0.156
    1   AR   Ar  196   4.598   0.199   0.147
    1   AR   Ar  197   3.903   1.222   0.967
    1   AR   Ar  198   6.095   1.393   0.920
    1   AR   Ar  199   3.512   1.210   2.989
    1   AR   Ar  200   5.253   1.969   0.465
    1   AR   Ar  201   5.408   6.510   3.666
    1   AR   Ar  202   5.655   1.959   4.552
    1   AR   Ar  203   6.580   6.616   3.538
    1   AR   Ar  204   5.068   6.801   4.795
    1   AR   Ar  205   6.776   7.060   2.211
    1   AR   Ar  206   5.022   0.741   4.835
    1   AR   Ar  207   1.033   1.581   6.993
    1   AR   Ar  208   7.094   0.524   3.297
    1   AR   Ar  209   7.089   3.157  -2.457
    1   AR   Ar  210   3.301   0.341  -0.200
    1   AR   Ar  211   6.377   2.749   0.624
    1   AR   Ar  212   6.054   3.247  -1.417
    1   AR   Ar  213   3.057   1.331   2.109
    1   AR   Ar  214   4.401   3.412   3.025
    1   AR   Ar  215   5.636   2.411   1.295
    1   AR   Ar  216   0.826   3.561   1.737
    1   AR   Ar  217   5.129   3.399   4.242
    1   AR   Ar  218   4.420   3.359   5.010
    1   AR   Ar  219   5.028   2.484   3.568
    1   AR   Ar  220   4.395   3.864   1.902
    1   AR   Ar  221   6.011   6.862   5.175
    1   AR   Ar  222   3.985   0.800   6.892
    1   AR   Ar  223   0.032   1.139   7.321
    1   AR   Ar  224   4.721   3.157   6.258
    1   AR   Ar  225   6.439   3.365   2.393
    1   AR   Ar  226   2.533   3.946   3.358
    1   AR   Ar  227   6.652   3.627   1.409
    1   AR   Ar  228   5.605   6.404   2.029
    1   AR   Ar  229   5.501   4.084  -0.703
    1   AR   Ar  230   4.812   4.433   3.679
    1   AR   Ar  231   6.293   1.238   3.186
    1   AR   Ar  232   4.046   2.304   0.522
    1   AR   Ar  233   6.530   2.532   3.312
    1   AR   Ar  234   6.245   3.319   4.185
    1   AR   Ar  235   6.740   1.955   4.782
    1   AR   Ar  236   5.714   5.878   5.520
    1   AR   Ar  237   5.480   3.642   5.201
    1   AR   Ar  238   4.975   4.378   5.780
    1   AR   Ar  239   5.736   4.025   8.292
    1   AR   Ar  240   7.033   3.091   6.754
    1   AR   Ar  241   0.980   6.679  -0.266
    1   AR   Ar  242   5.049   4.595   0.207
    1   AR   Ar  243   5.722   4.414   2.294
    1   AR   Ar  244   0.692   5.250  -0.514
    1   AR   Ar  245   4.964   0.624   1.157
    1   AR   Ar  246   5.371   5.572   0.441
    1   AR   Ar  247   5.486   4.128   1.124
    1   AR   Ar  248   5.492   5.461  -0.626
    1   AR   Ar  249   4.022   5.759   2.273
    1   AR   Ar  250   5.078   5.811   4.379
    1   AR   Ar  251   5.776   5.200   3.715
    1   AR   Ar  252   4.642   5.489   3.516
    1   AR   Ar  253   6.343   3.617   5.944
    1   AR   Ar  254   1.947   3.465   9.386
    1   AR   Ar  255   3.797   3.167   8.415
    1   AR   Ar  256   6.886   5.493   3.675
    7.12000  7.12000 12.00000
Argon-slab step 3090
  256
    1   AR   Ar    1   6.821   1.299  -1.875
    1   AR   Ar    2   6.199   0.255   0.505
    1   AR   Ar    3   2.045   0.789   0.082
    1   AR   Ar    4   1.160   0.721  -0.408
    1   AR   Ar    5   0.121   6.698   1.034
    1   AR   Ar    6   6.790   1.105   2.269
    1   AR   Ar    7   6.428   4.015   3.237
    1   AR   Ar    8   6.012   0.251   1.525
    1   AR   Ar    9   1.147   0.070   3.126
    1   AR   Ar   10   0.724   0.314   3.983
    1   AR   Ar   11   1.748   6.309   3.861
    1   AR   Ar   12   0.806   1.348   2.609
    1   AR   Ar   13   0.139   1.020   4.854
    1   AR   Ar   14   0.273   2.321   7.430
    1   AR   Ar   15   4.851   0.740  10.007
    1   AR   Ar   16   1.064   0.279   4.953
    1   AR   Ar   17   6.380   1.665  -0.205
    1   AR   Ar   18   6.581   2.791  -0.486
    1   AR   Ar   19   1.866   2.951   1.558
    1   AR   Ar   20   4.795   4.223  -1.832
    1   AR   Ar   21   4.701   1.955   1.371
    1   AR   Ar   22   6.314   2.314   2.215
    1   AR   Ar   23   6.767   0.629  -0.394
    1   AR   Ar   24   6.818   2.012   1.331
    1   AR   Ar   25   0.365   1.452   4.023
    1   AR   Ar   26   5.725   0.314   4.063
    1   AR   Ar   27   1.396   1.056   3.539
    1   AR   Ar   28   0.622   2.063   4.725
    1   AR   Ar   29   6.055   2.895   7.097
    1   AR   Ar   30   1.614   1.411   4.516
    1   AR   Ar   31   2.747   0.503   7.885
    1   AR   Ar   32   1.716   3.371   5.636
    1   AR   Ar   33   0.540   4.174  -0.485
    1   AR   Ar   34   0.360   5.157   2.637
    1   AR   Ar   35   6.248   5.395   1.019
    1   AR   Ar   36   6.731   0.363  -3.945
    1   AR   Ar   37   5.238   2.093   2.332
    1   AR   Ar   38   0.125   4.145   2.548
    1   AR   Ar   39   1.311   3.536   3.186
    1   AR   Ar   40   2.113   3.884   1.183
    1   AR   Ar   41   0.297   3.282   4.033
    1   AR   Ar   42   6.144   5.664   4.601
    1   AR   Ar   43   6.976   2.318   5.896
    1   AR   Ar   44   0.614   4.399   3.478
    1   AR   Ar   45   0.457   3.232   5.915
    1   AR   Ar   46   0.760   5.163   5.777
    1   AR   Ar   47   5.973   4.035   6.986
    1   AR   Ar   48   0.164   5.843   6.861
    1   AR   Ar   49   5.721   0.784  -0.758
    1   AR   Ar   50   5.249   5.240   1.517
    1   AR   Ar   51   6.840   4.602   1.486
    1   AR   Ar   52   5.609   4.892  -1.502
    1   AR   Ar   53   5.448   5.685   2.907
    1   AR   Ar   54   0.424   6.315   2.555
    1   AR   Ar   55   6.448   5.797   2.493
    1   AR   Ar   56   0.236   0.978   0.844
    1   AR   Ar   57   5.427   3.729   3.267
    1   AR   Ar   58   6.727   4.358   4.268
    1   AR   Ar   59   2.351   5.409   6.066
    1   AR   Ar   60   0.515   6.438   3.545
    1   AR   Ar   61   6.743   4.735   6.412
    1   AR   Ar   62   0.637   4.842   4.758
    1   AR   Ar   63   2.293   0.297   6.661
    1   AR   Ar   64   0.675   5.988   4.443
    1   AR   Ar   65   3.574   6.930   0.792
    1   AR   Ar   66   0.984   1.593   1.450
    1   AR   Ar   67   3.131   6.728  -1.599
    1   AR   Ar   68   2.798   1.664  -0.783
    1   AR   Ar   69   2.817   1.045   0.876
    1   AR   Ar   70   0.650   0.269   2.138
    1   AR   Ar   71   2.703   1.308   3.983
    1   AR   Ar   72   3.326   0.262   1.879
    1   AR   Ar   73   3.578   0.329   3.682
    1   AR   Ar   74   2.115   0.192   3.827
    1   AR   Ar   75   3.979   1.264   4.761
    1   AR   Ar   76   1.572   0.827   1.982
    1   AR   Ar   77   2.501   6.404   6.240
    1   AR   Ar   78   0.655   7.086   6.523
    1   AR   Ar   79   3.590   6.123   6.176
    1   AR   Ar   80   3.835   4.994   5.781
    1   AR   Ar   81   2.899   6.463  -0.383
    1   AR   Ar   82   6.798   5.826  -0.697
    1   AR   Ar   83   0.519   2.864   0.311
    1   AR   Ar   84   0.108   3.765   0.415
    1   AR   Ar   85   1.178   3.657   0.784
    1   AR   Ar   86   1.829   4.883  -0.368
    1   AR   Ar   87   1.972   1.663   0.905
    1   AR   Ar   88   2.049   5.001   0.875
    1   AR   Ar   89   0.181   2.607   2.619
    1   AR   Ar   90   2.459   2.620   4.529
    1   AR   Ar   91   1.177   2.259   3.348
    1   AR   Ar   92   1.187   2.575   2.351
    1   AR   Ar   93   2.182   0.283   5.331
    1   AR   Ar   94   0.600   6.617  10.738
    1   AR   Ar   95   3.711   1.664   5.710
    1   AR   Ar   96   2.983   0.426   4.637
    1   AR   Ar   97   5.090   1.683  -0.552
    1   AR   Ar   98   2.100   5.345   2.609
    1   AR   Ar   99   5.879   2.192  -1.139
    1   AR   Ar  100   1.809   3.447  -0.274
    1   AR   Ar  101   3.150   4.077   1.209
    1   AR   Ar  102   3.284   2.644   3.765
    1   AR   Ar  103   1.111   4.665   1.263
    1   AR   Ar  104   2.764   2.984  -1.254
    1   AR   Ar  105   1.712   3.287   4.223
    1   AR   Ar  106   3.440   3.495   5.364
    1   AR   Ar  107   0.988   4.056   4.350
    1   AR   Ar  108   3.531   2.337   5.012
    1   AR   Ar  109   1.738   4.727   4.569
    1   AR   Ar  110   1.124   4.208   6.301
    1   AR   Ar  111   4.959   4.327   7.377
    1   AR   Ar  112   1.310   5.808   6.882
    1   AR   Ar  113   2.884   4.667  -0.379
    1   AR   Ar  114   2.078   6.624  -1.049
    1   AR   Ar  115   2.657   5.501  -0.824
    1   AR   Ar  116   5.896   6.562  -0.891
    1   AR   Ar  117   1.244   5.348   3.731
    1   AR   Ar  118   1.267   5.783   2.617
    1   AR   Ar  119   2.216   2.855   2.668
    1   AR   Ar  120   1.942   6.926   2.404
    1   AR   Ar  121   5.975   4.625   5.405
    1   AR   Ar  122   2.560   6.503   5.139
    1   AR   Ar  123   3.741   4.515   4.774
    1   AR   Ar  124   1.774   5.984   1.529
    1   AR   Ar  125   7.042   4.341   5.368
    1   AR   Ar  126   7.082   6.923   4.509
    1   AR   Ar  127   3.498   4.139   6.242
    1   AR   Ar  128   3.295   5.182   6.617
    1   AR   Ar  129   2.718   6.255   2.792
    1   AR   Ar  130   5.059   2.690  -2.007
    1   AR   Ar  131   4.292   1.292  -0.075
    1   AR   Ar  132   0.187   1.733  -0.638
    1   AR   Ar  133   4.558   6.510   2.896
    1   AR   Ar  134   4.694   1.472   3.888
    1   AR   Ar  135   5.667   0.455   2.494
    1   AR   Ar  136   4.721   6.932   1.822
    1   AR   Ar  137   2.738   5.343   3.571
    1   AR   Ar  138   4.760   1.774   5.472
    1   AR   Ar  139   5.767   2.645   5.658
    1   AR   Ar  140   3.900   7.080   4.754
    1   AR   Ar  141   3.685   5.488   4.292
    1   AR   Ar  142   3.224   0.200   6.025
    1   AR   Ar  143   6.952   0.190   5.695
    1   AR   Ar  144   6.650   1.314   5.748
    1   AR   Ar  145   4.456   3.873  -0.046
    1   AR   Ar  146   3.622   2.435   2.134
    1   AR   Ar  147   5.096   1.269  -1.577
    1   AR   Ar  148   3.392   4.490  -1.281
    1   AR   Ar  149   2.969   2.146   1.409
    1   AR   Ar  150   2.154   1.578   2.407
    1   AR   Ar  151   2.170   2.083   3.349
    1   AR   Ar  152   3.485   3.471  -0.348
    1   AR   Ar  153   4.624   0.301   4.032
    1   AR   Ar  154   4.423   2.455   4.357
    1   AR   Ar  155   6.773   0.268   6.923
    1   AR   Ar  156   3.992   3.447   4.027
    1   AR   Ar  157   2.023   3.784   6.879
    1   AR   Ar  158   1.018   2.803   6.642
    1   AR   Ar  159   4.531   1.932   6.820
    1   AR   Ar  160   2.772   1.496   5.158
    1   AR   Ar  161   5.395   3.425   2.414
    1   AR   Ar  162   4.634   6.041  -0.318
    1   AR   Ar  163   4.911   3.130   1.178
    1   AR   Ar  164   2.938   5.332   1.611
    1   AR   Ar  165   3.822   3.325   1.117
    1   AR   Ar  166   2.376   3.649   4.915
    1   AR   Ar  167   4.172   1.111   1.991
    1   AR   Ar  168   5.263   3.137  -0.483
    1   AR   Ar  169   3.301   3.707   2.137
    1   AR   Ar  170   2.248   4.284   5.853
    1   AR   Ar  171   5.665   4.372   4.401
    1   AR   Ar  172   4.711   4.878   4.738
    1   AR   Ar  173   3.055   3.292   7.613
    1   AR   Ar  174   2.201   4.970   7.110
    1   AR   Ar  175   2.716   3.165   6.149
    1   AR   Ar  176   3.792   2.685   5.979
    1   AR   Ar  177   6.369   4.820  -0.254
    1   AR   Ar  178   4.148   5.068  -0.154
    1   AR   Ar  179   3.948   5.134   1.030
    1   AR   Ar  180   0.691   1.568  -2.587
    1   AR   Ar  181   0.713   6.006   1.541
    1   AR   Ar  182   2.704   0.520   2.943
    1   AR   Ar  183   3.240   5.144   2.643
    1   AR   Ar  184   4.690   6.278   0.779
    1   AR   Ar  185   2.786   5.270   5.094
    1   AR   Ar  186   3.694   4.325   3.527
    1   AR   Ar  187   3.700   6.048   3.320
    1   AR   Ar  188   3.077   6.397   1.805
    1   AR   Ar  189   3.644   2.710   7.052
    1   AR   Ar  190   4.283   6.387   4.106
    1   AR   Ar  191   3.589   5.698   7.623
    1   AR   Ar  192   4.129   5.982   5.274
    1   AR   Ar  193   2.647   5.987   0.883
    1   AR   Ar  194   4.306   3.603  -1.033
    1   AR   Ar  195   5.220   1.019   0.158
    1   AR   Ar  196   4.559   0.188   0.151
    1   AR   Ar  197   3.900   1.216   0.982
    1   AR   Ar  198   6.100   1.404   0.960
    1   AR   Ar  199   3.507   1.216   2.992
    1   AR   Ar  200   5.267   1.991   0.457
    1   AR   Ar  201   5.385   6.520   3.699
    1   AR   Ar  202   5.669   1.969   4.546
    1   AR   Ar  203   6.599   6.602   3.526
    1   AR   Ar  204   5.051   6.809   4.811
    1   AR   Ar  205   6.806   7.060   2.203
    1   AR   Ar  206   5.023   0.716   4.818
    1   AR   Ar  207   1.031   1.589   7.028
    1   AR   Ar  208   7.068   0.528   3.310
    1   AR   Ar  209   7.084   3.133  -2.457
    1   AR   Ar  210   3.308   0.320  -0.191
    1   AR   Ar  211   6.368   2.735   0.636
    1   AR   Ar  212   6.069   3.257  -1.440
    1   AR   Ar  213   3.087   1.326   2.111
    1   AR   Ar  214   4.371   3.420   3.019
    1   AR   Ar  215   5.616   2.393   1.302
    1   AR   Ar  216   0.825   3.532   1.719
    1   AR   Ar  217   5.124   3.399   4.226
    1   AR   Ar  218   4.410   3.347   5.036
    1   AR   Ar  219   5.029   2.483   3.603
    1   AR   Ar  220   4.394   3.911   1.897
    1   AR   Ar  221   6.018   6.886   5.186
    1   AR   Ar  222   4.005   0.787   6.896
    1   AR   Ar  223   0.044   1.155   7.294
    1   AR   Ar  224   4.707   3.165   6.258
    1   AR   Ar  225   6.434   3.333   2.383
    1   AR   Ar  226   2.522   3.979   3.384
    1   AR   Ar  227   6.624   3.624   1.407
    1   AR   Ar  228   5.623   6.417   2.018
    1   AR   Ar  229   5.512   4.118  -0.724
    1   AR   Ar  230   4.807   4.426   3.664
    1   AR   Ar  231   6.287   1.231   3.199
    1   AR   Ar  232   4.070   2.318   0.529
    1   AR   Ar  233   6.521   2.513   3.312
    1   AR   Ar  234   6.241   3.293   4.210
    1   AR   Ar  235   6.734   1.961   4.787
    1   AR   Ar  236   5.709   5.907   5.501
    1   AR   Ar  237   5.473   3.635   5.198
    1   AR   Ar  238   5.001   4.345   5.792
    1   AR   Ar  239   5.749   4.030   8.268
    1   AR   Ar  240   7.083   3.100   6.731
    1   AR   Ar  241   0.946   6.679  -0.223
    1   AR   Ar  242   5.051   4.572   0.196
    1   AR   Ar  243   5.710   4.457   2.285
    1   AR   Ar  244   0.690   5.228  -0.492
    1   AR   Ar  245   4.966   0.642   1.165
    1   AR   Ar  246   5.370   5.583   0.436
    1   AR   Ar  247   5.511   4.128   1.096
    1   AR   Ar  248   5.508   5.448  -0.615
    1   AR   Ar  249   4.009   5.752   2.277
    1   AR   Ar  250   5.042   5.814   4.409
    1   AR   Ar  251   5.760   5.172   3.721
    1   AR   Ar  252   4.650   5.497   3.490
    1   AR   Ar  253   6.371   3.633   5.941
    1   AR   Ar  254   1.947   3.422   9.400
    1   AR   Ar  255   3.755   3.167   8.433
    1   AR   Ar  256   6.879   5.492   3.672
    7.12000  7.12000 12.00000
Argon-slab step 3095
  256
    1   AR   Ar    1   6.820   1.292  -1.858
    1   AR   Ar    2   6.185   0.294   0.463
    1   AR   Ar    3   2.057   0.761   0.053
    1   AR   Ar    4   1.148   0.728  -0.417
    1   AR   Ar    5   0.074   6.726   1.019
    1   AR   Ar    6   6.779   1.143   2.254
    1   AR   Ar    7   6.398   4.004   3.240
    1   AR   Ar    8   6.011   0.240   1.508
    1   AR   Ar    9   1.186   0.064   3.126
    1   AR   Ar   10   0.689   0.339   3.978
    1   AR   Ar   11   1.738   6.316   3.857
    1   AR   Ar   12   0.761   1.313   2.601
    1   AR   Ar   13   0.153   0.998   4.865
    1   AR   Ar   14   0.291   2.312   7.427
    1   AR   Ar   15   4.844   0.713   9.965
    1   AR   Ar   16   1.047   0.307   4.922
    1   AR   Ar   17   6.366   1.665  -0.188
    1   AR   Ar   18   6.591   2.814  -0.500
    1   AR   Ar   19   1.841   2.951   1.578
    1   AR   Ar   20   4.765   4.196  -1.833
    1   AR   Ar   21   4.694   1.944   1.365
    1   AR   Ar   22   6.290   2.338   2.228
    1   AR   Ar   23   6.794   0.645  -0.369
    1   AR   Ar   24   6.813   2.055   1.322
    1   AR   Ar   25   0.385   1.457   4.020
    1   AR   Ar   26   5.727   0.309   4.033
    1   AR   Ar   27   1.395   1.049   3.524
    1   AR   Ar   28   0.609   2.071   4.727
    1   AR   Ar   29   6.033   2.890   7.098
    1   AR   Ar   30   1.591   1.419   4.491
    1   AR   Ar   31   2.762   0.502   7.883
    1   AR   Ar   32   1.707   3.346   5.656
    1   AR   Ar   33   0.532   4.182  -0.501
    1   AR   Ar   34   0.331   5.173   2.603
    1   AR   Ar   35   6.247   5.408   1.024
    1   AR   Ar   36   6.718   0.349  -3.927
    1   AR   Ar   37   5.221   2.072   2.315
    1   AR   Ar   38   0.141   4.153   2.538
    1   AR   Ar   39   1.331   3.535   3.164
    1   AR   Ar   40   2.157   3.904   1.175
    1   AR   Ar   41   0.302   3.281   4.038
    1   AR   Ar   42   6.178   5.628   4.618
    1   AR   Ar   43   6.958   2.310   5.887
    1   AR   Ar   44   0.614   4.407   3.458
    1   AR   Ar   45   0.439   3.272   5.912
    1   AR   Ar   46   0.752   5.136   5.779
    1   AR   Ar   47   5.993   4.029   6.992
    1   AR   Ar   48   0.151   5.853   6.857
    1   AR   Ar   49   5.726   0.771  -0.759
    1   AR   Ar   50   5.224   5.204   1.563
    1   AR   Ar   51   6.829   4.602   1.476
    1   AR   Ar   52   5.617   4.898  -1.515
    1   AR   Ar   53   5.474   5.683   2.909
    1   AR   Ar   54   0.433   6.307   2.507
    1   AR   Ar   55   6.434   5.767   2.500
    1   AR   Ar   56   0.247   0.979   0.805
    1   AR   Ar   57   5.401   3.718   3.299
    1   AR   Ar   58   6.716   4.377   4.268
    1   AR   Ar   59   2.350   5.434   6.063
    1   AR   Ar   60   0.505   6.435   3.545
    1   AR   Ar   61   6.754   4.690   6.424
    1   AR   Ar   62   0.585   4.822   4.746
    1   AR   Ar   63   2.286   0.288   6.660
    1   AR   Ar   64   0.687   5.967   4.445
    1   AR   Ar   65   3.588   6.902   0.806
    1   AR   Ar   66   0.983   1.588   1.446
    1   AR   Ar   67   3.129   6.748  -1.570
    1   AR   Ar   68   2.797   1.707  -0.797
    1   AR   Ar   69   2.807   1.041   0.889
    1   AR   Ar   70   0.673   0.285   2.182
    1   AR   Ar   71   2.716   1.308   3.976
    1   AR   Ar   72   3.363   0.267   1.872
    1   AR   Ar   73   3.600   0.325   3.677
    1   AR   Ar   74   2.117   0.194   3.836
    1   AR   Ar   75   3.966   1.277   4.790
    1   AR   Ar   76   1.570   0.833   1.993
    1   AR   Ar   77   2.480   6.434   6.248
    1   AR   Ar   78   0.652   7.067   6.519
    1   AR   Ar   79   3.581   6.084   6.145
    1   AR   Ar   80   3.830   5.033   5.800
    1   AR   Ar   81   2.895   6.428  -0.405
    1   AR   Ar   82   6.782   5.826  -0.690
    1   AR   Ar   83   0.531   2.844   0.290
    1   AR   Ar   84   0.100   3.779   0.470
    1   AR   Ar   85   1.226   3.668   0.785
    1   AR   Ar   86   1.832   4.888  -0.357
    1   AR   Ar   87   1.951   1.657   0.891
    1   AR   Ar   88   2.081   5.005   0.821
    1   AR   Ar   89   0.188   2.610   2.633
    1   AR   Ar   90   2.460   2.611   4.498
    1   AR   Ar   91   1.189   2.231   3.310
    1   AR   Ar   92   1.176   2.589   2.377
    1   AR   Ar   93   2.169   0.297   5.320
    1   AR   Ar   94   0.583   6.606  10.752
    1   AR   Ar   95   3.682   1.676   5.732
    1   AR   Ar   96   2.980   0.424   4.599
    1   AR   Ar   97   5.100   1.683  -0.528
    1   AR   Ar   98   2.119   5.346   2.607
    1   AR   Ar   99   5.905   2.177  -1.180
    1   AR   Ar  100   1.786   3.467  -0.254
    1   AR   Ar  101   3.131   4.098   1.197
    1   AR   Ar  102   3.277   2.627   3.750
    1   AR   Ar  103   1.119   4.675   1.284
    1   AR   Ar  104   2.772   3.010  -1.261
    1   AR   Ar  105   1.697   3.272   4.193
    1   AR   Ar  106   3.421   3.525   5.372
    1   AR   Ar  107   1.011   4.030   4.351
    1   AR   Ar  108   3.545   2.347   5.012
    1   AR   Ar  109   1.740   4.748   4.579
    1   AR   Ar  110   1.147   4.195   6.259
    1   AR   Ar  111   4.950   4.332   7.381
    1   AR   Ar  112   1.325   5.847   6.862
    1   AR   Ar  113   2.889   4.640  -0.398
    1   AR   Ar  114   2.093   6.634  -1.045
    1   AR   Ar  115   2.662   5.512  -0.826
    1   AR   Ar  116   5.847   6.572  -0.868
    1   AR   Ar  117   1.264   5.356   3.752
    1   AR   Ar  118   1.257   5.815   2.616
    1   AR   Ar  119   2.211   2.857   2.670
    1   AR   Ar  120   1.953   6.911   2.402
    1   AR   Ar  121   5.962   4.608   5.425
    1   AR   Ar  122   2.580   6.490   5.125
    1   AR   Ar  123   3.759   4.523   4.789
    1   AR   Ar  124   1.773   5.986   1.535
    1   AR   Ar  125   7.038   4.363   5.375
    1   AR   Ar  126   7.085   6.918   4.496
    1   AR   Ar  127   3.519   4.153   6.248
    1   AR   Ar  128   3.316   5.151   6.622
    1   AR   Ar  129   2.705   6.238   2.778
    1   AR   Ar  130   5.069   2.731  -2.043
    1   AR   Ar  131   4.330   1.292  -0.074
    1   AR   Ar  132   0.179   1.746  -0.646
    1   AR   Ar  133   4.564   6.519   2.872
    1   AR   Ar  134   4.702   1.428   3.892
    1   AR   Ar  135   5.672   0.480   2.477
    1   AR   Ar  136   4.696   6.921   1.794
    1   AR   Ar  137   2.730   5.349   3.555
    1   AR   Ar  138   4.754   1.794   5.509
    1   AR   Ar  139   5.763   2.631   5.656
    1   AR   Ar  140   3.903   7.075   4.760
    1   AR   Ar  141   3.695   5.461   4.301
    1   AR   Ar  142   3.234   0.215   6.023
    1   AR   Ar  143   6.963   0.203   5.702
    1   AR   Ar  144   6.672   1.308   5.747
    1   AR   Ar  145   4.463   3.903  -0.060
    1   AR   Ar  146   3.626   2.455   2.131
    1   AR   Ar  147   5.093   1.265  -1.569
    1   AR   Ar  148   3.438   4.464  -1.287
    1   AR   Ar  149   2.969   2.136   1.385
    1   AR   Ar  150   2.163   1.613   2.387
    1   AR   Ar  151   2.166   2.106   3.322
    1   AR   Ar  152   3.490   3.468  -0.373
    1   AR   Ar  153   4.612   0.290   4.015
    1   AR   Ar  154   4.436   2.495   4.373
    1   AR   Ar  155   6.762   0.288   6.942
    1   AR   Ar  156   3.983   3.432   4.076
    1   AR   Ar  157   2.018   3.791   6.883
    1   AR   Ar  158   0.991   2.796   6.641
    1   AR   Ar  159   4.534   1.915   6.857
    1   AR   Ar  160   2.747   1.495   5.155
    1   AR   Ar  161   5.386   3.436   2.432
    1   AR   Ar  162   4.605   6.042  -0.351
    1   AR   Ar  163   4.901   3.167   1.205
    1   AR   Ar  164   2.910   5.345   1.626
    1   AR   Ar  165   3.828   3.318   1.110
    1   AR   Ar  166   2.412   3.646   4.907
    1   AR   Ar  167   4.185   1.109   2.004
    1   AR   Ar  168   5.279   3.129  -0.480
    1   AR   Ar  169   3.305   3.698   2.143
    1   AR   Ar  170   2.262   4.283   5.890
    1   AR   Ar  171   5.668   4.385   4.430
    1   AR   Ar  172   4.706   4.862   4.736
    1   AR   Ar  173   3.052   3.315   7.623
    1   AR   Ar  174   2.231   4.983   7.082
    1   AR   Ar  175   2.709   3.180   6.167
    1   AR   Ar  176   3.788   2.671   5.988
    1   AR   Ar  177   6.352   4.847  -0.273
    1   AR   Ar  178   4.138   5.094  -0.171
    1   AR   Ar  179   3.940   5.141   1.030
    1   AR   Ar  180   0.713   1.563  -2.614
    1   AR   Ar  181   0.717   5.996   1.507
    1   AR   Ar  182   2.725   0.538   2.973
    1   AR   Ar  183   3.253   5.127   2.656
    1   AR   Ar  184   4.709   6.313   0.823
    1   AR   Ar  185   2.809   5.257   5.095
    1   AR   Ar  186   3.632   4.317   3.494
    1   AR   Ar  187   3.729   6.027   3.257
    1   AR   Ar  188   3.090   6.397   1.835
    1   AR   Ar  189   3.665   2.726   7.002
    1   AR   Ar  190   4.286   6.402   4.084
    1   AR   Ar  191   3.586   5.690   7.621
    1   AR   Ar  192   4.111   5.973   5.260
    1   AR   Ar  193   2.621   5.978   0.880
    1   AR   Ar  194   4.282   3.605  -1.019
    1   AR   Ar  195   5.202   1.020   0.172
    1   AR   Ar  196   4.564   0.204   0.136
    1   AR   Ar  197   3.898   1.210   0.995
    1   AR   Ar  198   6.099   1.410   0.996
    1   AR   Ar  199   3.490   1.209   2.986
    1   AR   Ar  200   5.278   2.017   0.444
    1   AR   Ar  201   5.362   6.524   3.717
    1   AR   Ar  202   5.681   1.979   4.540
    1   AR   Ar  203   6.614   6.589   3.513
    1   AR   Ar  204   5.031   6.811   4.826
    1   AR   Ar  205   6.831   7.057   2.197
    1   AR   Ar  206   5.029   0.704   4.813
    1   AR   Ar  207   1.046   1.596   7.045
    1   AR   Ar  208   7.044   0.530   3.320
    1   AR   Ar  209   7.079   3.109  -2.455
    1   AR   Ar  210   3.315   0.301  -0.182
    1   AR   Ar  211   6.378   2.737   0.656
    1   AR   Ar  212   6.081   3.279  -1.470
    1   AR   Ar  213   3.118   1.321   2.098
    1   AR   Ar  214   4.342   3.428   3.011
    1   AR   Ar  215   5.609   2.376   1.319
    1   AR   Ar  216   0.817   3.506   1.742
    1   AR   Ar  217   5.123   3.402   4.206
    1   AR   Ar  218   4.404   3.334   5.064
    1   AR   Ar  219   5.038   2.494   3.620
    1   AR   Ar  220   4.394   3.957   1.892
    1   AR   Ar  221   6.029   6.912   5.195
    1   AR   Ar  222   4.027   0.767   6.883
    1   AR   Ar  223   0.058   1.175   7.268
    1   AR   Ar  224   4.696   3.174   6.256
    1   AR   Ar  225   6.433   3.304   2.378
    1   AR   Ar  226   2.521   4.024   3.407
    1   AR   Ar  227   6.595   3.614   1.399
    1   AR   Ar  228   5.642   6.429   2.007
    1   AR   Ar  229   5.524   4.157  -0.745
    1   AR   Ar  230   4.798   4.422   3.654
    1   AR   Ar  231   6.277   1.226   3.214
    1   AR   Ar  232   4.095   2.332   0.538
    1   AR   Ar  233   6.508   2.494   3.316
    1   AR   Ar  234   6.236   3.268   4.234
    1   AR   Ar  235   6.722   1.968   4.792
    1   AR   Ar  236   5.700   5.935   5.486
    1   AR   Ar  237   5.468   3.624   5.195
    1   AR   Ar  238   5.022   4.314   5.806
    1   AR   Ar  239   5.761   4.036   8.243
    1   AR   Ar  240   0.002   3.108   6.722
    1   AR   Ar  241   0.925   6.680  -0.189
    1   AR   Ar  242   5.070   4.566   0.190
    1   AR   Ar  243   5.700   4.499   2.276
    1   AR   Ar  244   0.689   5.210  -0.470
    1   AR   Ar  245   4.967   0.662   1.172
    1   AR   Ar  246   5.371   5.592   0.430
    1   AR   Ar  247   5.536   4.128   1.071
    1   AR   Ar  248   5.525   5.435  -0.603
    1   AR   Ar  249   3.998   5.748   2.279
    1   AR   Ar  250   5.015   5.812   4.445
    1   AR   Ar  251   5.731   5.142   3.726
    1   AR   Ar  252   4.650   5.503   3.467
    1   AR   Ar  253   6.378   3.646   5.947
    1   AR   Ar  254   1.948   3.379   9.414
    1   AR   Ar  255   3.753   3.159   8.436
    1   AR   Ar  256   6.873   5.490   3.668
    7.12000  7.12000 12.00000
Argon-slab step 3100
  256
    1   AR   Ar    1   6.819   1.286  -1.840
    1   AR   Ar    2   6.170   0.334   0.419
    1   AR   Ar    3   2.077   0.733   0.027
    1   AR   Ar    4   1.129   0.733  -0.427
    1   AR   Ar    5   0.026   6.756   1.005
    1   AR   Ar    6   6.770   1.180   2.236
    1   AR   Ar    7   6.372   3.995   3.244
    1   AR   Ar    8   6.006   0.244   1.473
    1   AR   Ar    9   1.227   0.055   3.122
    1   AR   Ar   10   0.654   0.369   3.973
    1   AR   Ar   11   1.726   6.324   3.853
    1   AR   Ar   12   0.716   1.280   2.594
    1   AR   Ar   13   0.165   0.970   4.885
    1   AR   Ar   14   0.291   2.348   7.414
    1   AR   Ar   15   4.836   0.686   9.923
    1   AR   Ar   16   1.043   0.298   4.925
    1   AR   Ar   17   6.346   1.666  -0.167
    1   AR   Ar   18   6.600   2.835  -0.514
    1   AR   Ar   19   1.815   2.950   1.598
    1   AR   Ar   20   4.735   4.168  -1.833
    1   AR   Ar   21   4.680   1.929   1.359
    1   AR   Ar   22   6.263   2.350   2.239
    1   AR   Ar   23   6.822   0.662  -0.345
    1   AR   Ar   24   6.815   2.099   1.316
    1   AR   Ar   25   0.405   1.454   3.992
    1   AR   Ar   26   5.731   0.308   4.005
    1   AR   Ar   27   1.394   1.044   3.505
    1   AR   Ar   28   0.612   2.084   4.742
    1   AR   Ar   29   6.012   2.886   7.098
    1   AR   Ar   30   1.569   1.429   4.467
    1   AR   Ar   31   2.777   0.500   7.879
    1   AR   Ar   32   1.695   3.321   5.678
    1   AR   Ar   33   0.530   4.192  -0.535
    1   AR   Ar   34   0.302   5.194   2.570
    1   AR   Ar   35   6.245   5.422   1.030
    1   AR   Ar   36   6.704   0.335  -3.908
    1   AR   Ar   37   5.204   2.052   2.299
    1   AR   Ar   38   0.155   4.154   2.525
    1   AR   Ar   39   1.349   3.533   3.143
    1   AR   Ar   40   2.194   3.926   1.169
    1   AR   Ar   41   0.305   3.279   4.041
    1   AR   Ar   42   6.198   5.590   4.616
    1   AR   Ar   43   6.940   2.307   5.878
    1   AR   Ar   44   0.612   4.418   3.439
    1   AR   Ar   45   0.431   3.322   5.880
    1   AR   Ar   46   0.744   5.109   5.783
    1   AR   Ar   47   5.974   4.021   6.984
    1   AR   Ar   48   0.139   5.862   6.852
    1   AR   Ar   49   5.731   0.758  -0.759
    1   AR   Ar   50   5.200   5.169   1.607
    1   AR   Ar   51   6.837   4.608   1.506
    1   AR   Ar   52   5.624   4.903  -1.531
    1   AR   Ar   53   5.484   5.711   2.918
    1   AR   Ar   54   0.427   6.308   2.455
    1   AR   Ar   55   6.425   5.738   2.507
    1   AR   Ar   56   0.255   0.980   0.767
    1   AR   Ar   57   5.383   3.716   3.359
    1   AR   Ar   58   6.708   4.397   4.268
    1   AR   Ar   59   2.348   5.454   6.060
    1   AR   Ar   60   0.501   6.432   3.545
    1   AR   Ar   61   6.765   4.645   6.435
    1   AR   Ar   62   0.531   4.815   4.732
    1   AR   Ar   63   2.301   0.284   6.636
    1   AR   Ar   64   0.698   5.945   4.452
    1   AR   Ar   65   3.602   6.874   0.822
    1   AR   Ar   66   0.982   1.584   1.444
    1   AR   Ar   67   3.128   6.767  -1.538
    1   AR   Ar   68   2.796   1.750  -0.811
    1   AR   Ar   69   2.800   1.035   0.902
    1   AR   Ar   70   0.698   0.301   2.226
    1   AR   Ar   71   2.730   1.308   3.969
    1   AR   Ar   72   3.402   0.279   1.866
    1   AR   Ar   73   3.620   0.320   3.672
    1   AR   Ar   74   2.119   0.200   3.845
    1   AR   Ar   75   3.954   1.289   4.816
    1   AR   Ar   76   1.569   0.837   2.005
    1   AR   Ar   77   2.460   6.467   6.256
    1   AR   Ar   78   0.647   7.048   6.515
    1   AR   Ar   79   3.568   6.047   6.117
    1   AR   Ar   80   3.833   5.075   5.803
    1   AR   Ar   81   2.877   6.424  -0.401
    1   AR   Ar   82   6.744   5.815  -0.706
    1   AR   Ar   83   0.543   2.822   0.268
    1   AR   Ar   84   0.090   3.796   0.527
    1   AR   Ar   85   1.270   3.677   0.781
    1   AR   Ar   86   1.844   4.871  -0.350
    1   AR   Ar   87   1.929   1.652   0.877
    1   AR   Ar   88   2.114   5.008   0.767
    1   AR   Ar   89   0.191   2.612   2.648
    1   AR   Ar   90   2.464   2.598   4.468
    1   AR   Ar   91   1.188   2.201   3.281
    1   AR   Ar   92   1.171   2.605   2.393
    1   AR   Ar   93   2.156   0.320   5.318
    1   AR   Ar   94   0.565   6.595  10.766
    1   AR   Ar   95   3.654   1.677   5.763
    1   AR   Ar   96   2.975   0.424   4.561
    1   AR   Ar   97   5.119   1.699  -0.524
    1   AR   Ar   98   2.151   5.339   2.603
    1   AR   Ar   99   5.932   2.163  -1.220
    1   AR   Ar  100   1.763   3.489  -0.232
    1   AR   Ar  101   3.120   4.127   1.181
    1   AR   Ar  102   3.271   2.610   3.736
    1   AR   Ar  103   1.127   4.684   1.305
    1   AR   Ar  104   2.780   3.037  -1.267
    1   AR   Ar  105   1.681   3.254   4.159
    1   AR   Ar  106   3.398   3.556   5.380
    1   AR   Ar  107   1.036   3.994   4.350
    1   AR   Ar  108   3.557   2.364   5.001
    1   AR   Ar  109   1.745   4.770   4.589
    1   AR   Ar  110   1.172   4.179   6.216
    1   AR   Ar  111   4.943   4.336   7.385
    1   AR   Ar  112   1.341   5.885   6.841
    1   AR   Ar  113   2.898   4.604  -0.409
    1   AR   Ar  114   2.106   6.645  -1.042
    1   AR   Ar  115   2.654   5.530  -0.832
    1   AR   Ar  116   5.799   6.581  -0.845
    1   AR   Ar  117   1.284   5.361   3.772
    1   AR   Ar  118   1.250   5.847   2.618
    1   AR   Ar  119   2.205   2.866   2.665
    1   AR   Ar  120   1.964   6.896   2.398
    1   AR   Ar  121   5.953   4.593   5.446
    1   AR   Ar  122   2.599   6.492   5.103
    1   AR   Ar  123   3.769   4.524   4.807
    1   AR   Ar  124   1.774   5.988   1.545
    1   AR   Ar  125   7.031   4.381   5.385
    1   AR   Ar  126   7.085   6.911   4.485
    1   AR   Ar  127   3.538   4.162   6.257
    1   AR   Ar  128   3.328   5.122   6.639
    1   AR   Ar  129   2.692   6.219   2.770
    1   AR   Ar  130   5.081   2.773  -2.077
    1   AR   Ar  131   4.336   1.294  -0.069
    1   AR   Ar  132   0.159   1.763  -0.634
    1   AR   Ar  133   4.574   6.529   2.848
    1   AR   Ar  134   4.710   1.384   3.898
    1   AR   Ar  135   5.677   0.506   2.463
    1   AR   Ar  136   4.676   6.915   1.780
    1   AR   Ar  137   2.722   5.356   3.542
    1   AR   Ar  138   4.749   1.815   5.545
    1   AR   Ar  139   5.760   2.617   5.653
    1   AR   Ar  140   3.908   7.073   4.772
    1   AR   Ar  141   3.706   5.435   4.308
    1   AR   Ar  142   3.243   0.228   6.020
    1   AR   Ar  143   6.975   0.216   5.709
    1   AR   Ar  144   6.692   1.299   5.746
    1   AR   Ar  145   4.450   3.907  -0.051
    1   AR   Ar  146   3.633   2.477   2.131
    1   AR   Ar  147   5.092   1.262  -1.559
    1   AR   Ar  148   3.488   4.437  -1.295
    1   AR   Ar  149   2.966   2.123   1.358
    1   AR   Ar  150   2.170   1.650   2.368
    1   AR   Ar  151   2.174   2.122   3.306
    1   AR   Ar  152   3.490   3.464  -0.396
    1   AR   Ar  153   4.598   0.277   3.987
    1   AR   Ar  154   4.440   2.532   4.402
    1   AR   Ar  155   6.750   0.303   6.957
    1   AR   Ar  156   3.975   3.418   4.124
    1   AR   Ar  157   2.016   3.770   6.857
    1   AR   Ar  158   0.970   2.786   6.642
    1   AR   Ar  159   4.535   1.898   6.891
    1   AR   Ar  160   2.727   1.495   5.152
    1   AR   Ar  161   5.372   3.433   2.409
    1   AR   Ar  162   4.578   6.046  -0.383
    1   AR   Ar  163   4.891   3.204   1.233
    1   AR   Ar  164   2.882   5.353   1.644
    1   AR   Ar  165   3.836   3.314   1.108
    1   AR   Ar  166   2.450   3.644   4.899
    1   AR   Ar  167   4.201   1.107   2.019
    1   AR   Ar  168   5.295   3.120  -0.478
    1   AR   Ar  169   3.311   3.687   2.154
    1   AR   Ar  170   2.278   4.283   5.926
    1   AR   Ar  171   5.667   4.394   4.459
    1   AR   Ar  172   4.706   4.844   4.735
    1   AR   Ar  173   3.045   3.339   7.633
    1   AR   Ar  174   2.262   4.995   7.053
    1   AR   Ar  175   2.704   3.196   6.185
    1   AR   Ar  176   3.785   2.662   5.994
    1   AR   Ar  177   6.337   4.873  -0.291
    1   AR   Ar  178   4.127   5.117  -0.186
    1   AR   Ar  179   3.933   5.148   1.031
    1   AR   Ar  180   0.734   1.558  -2.640
    1   AR   Ar  181   0.719   5.984   1.473
    1   AR   Ar  182   2.741   0.551   3.001
    1   AR   Ar  183   3.254   5.168   2.678
    1   AR   Ar  184   4.725   6.351   0.867
    1   AR   Ar  185   2.834   5.245   5.096
    1   AR   Ar  186   3.570   4.311   3.462
    1   AR   Ar  187   3.749   6.003   3.198
    1   AR   Ar  188   3.104   6.394   1.860
    1   AR   Ar  189   3.688   2.740   6.955
    1   AR   Ar  190   4.285   6.416   4.058
    1   AR   Ar  191   3.582   5.683   7.618
    1   AR   Ar  192   4.097   5.964   5.239
    1   AR   Ar  193   2.597   5.974   0.871
    1   AR   Ar  194   4.263   3.605  -1.013
    1   AR   Ar  195   5.212   1.004   0.204
    1   AR   Ar  196   4.597   0.236   0.109
    1   AR   Ar  197   3.897   1.205   1.005
    1   AR   Ar  198   6.092   1.410   1.028
    1   AR   Ar  199   3.477   1.198   2.992
    1   AR   Ar  200   5.289   2.046   0.426
    1   AR   Ar  201   5.340   6.517   3.714
    1   AR   Ar  202   5.688   1.989   4.532
    1   AR   Ar  203   6.622   6.577   3.499
    1   AR   Ar  204   5.009   6.806   4.841
    1   AR   Ar  205   6.848   7.054   2.192
    1   AR   Ar  206   5.038   0.706   4.817
    1   AR   Ar  207   1.074   1.602   7.049
    1   AR   Ar  208   7.020   0.530   3.326
    1   AR   Ar  209   7.074   3.085  -2.453
    1   AR   Ar  210   3.323   0.283  -0.171
    1   AR   Ar  211   6.388   2.742   0.671
    1   AR   Ar  212   6.092   3.300  -1.499
    1   AR   Ar  213   3.146   1.316   2.069
    1   AR   Ar  214   4.314   3.438   3.003
    1   AR   Ar  215   5.613   2.364   1.345
    1   AR   Ar  216   0.807   3.479   1.769
    1   AR   Ar  217   5.118   3.404   4.193
    1   AR   Ar  218   4.400   3.321   5.095
    1   AR   Ar  219   5.058   2.505   3.622
    1   AR   Ar  220   4.395   4.003   1.886
    1   AR   Ar  221   6.043   6.940   5.203
    1   AR   Ar  222   4.048   0.747   6.868
    1   AR   Ar  223   0.073   1.199   7.243
    1   AR   Ar  224   4.685   3.185   6.252
    1   AR   Ar  225   6.437   3.285   2.379
    1   AR   Ar  226   2.489   3.979   3.418
    1   AR   Ar  227   6.565   3.598   1.387
    1   AR   Ar  228   5.663   6.440   1.998
    1   AR   Ar  229   5.532   4.170  -0.749
    1   AR   Ar  230   4.814   4.433   3.654
    1   AR   Ar  231   6.264   1.224   3.229
    1   AR   Ar  232   4.121   2.344   0.546
    1   AR   Ar  233   6.493   2.475   3.321
    1   AR   Ar  234   6.232   3.245   4.258
    1   AR   Ar  235   6.705   1.975   4.798
    1   AR   Ar  236   5.687   5.963   5.472
    1   AR   Ar  237   5.468   3.610   5.191
    1   AR   Ar  238   5.037   4.286   5.824
    1   AR   Ar  239   5.774   4.041   8.215
    1   AR   Ar  240   0.022   3.113   6.736
    1   AR   Ar  241   0.959   6.682  -0.195
    1   AR   Ar  242   5.107   4.581   0.191
    1   AR   Ar  243   5.691   4.541   2.269
    1   AR   Ar  244   0.689   5.195  -0.447
    1   AR   Ar  245   4.967   0.684   1.179
    1   AR   Ar  246   5.372   5.600   0.425
    1   AR   Ar  247   5.562   4.129   1.048
    1   AR   Ar  248   5.540   5.424  -0.591
    1   AR   Ar  249   3.990   5.746   2.275
    1   AR   Ar  250   4.996   5.806   4.484
    1   AR   Ar  251   5.703   5.111   3.734
    1   AR   Ar  252   4.644   5.509   3.448
    1   AR   Ar  253   6.356   3.656   5.965
    1   AR   Ar  254   1.948   3.335   9.428
    1   AR   Ar  255   3.778   3.146   8.428
    1   AR   Ar  256   6.868   5.488   3.664
    7.12000  7.12000 12.00000
Argon-slab step 3105
  256
    1   AR   Ar    1   6.818   1.281  -1.821
    1   AR   Ar    2   6.153   0.375   0.376
    1   AR   Ar    3   2.100   0.705   0.004
    1   AR   Ar    4   1.119   0.733  -0.438
    1   AR   Ar    5   7.096   6.787   0.992
    1   AR   Ar    6   6.740   1.183   2.246
    1   AR   Ar    7   6.350   3.987   3.249
    1   AR   Ar    8   6.001   0.252   1.434
    1   AR   Ar    9   1.269   0.044   3.119
    1   AR   Ar   10   0.627   0.399   3.969
    1   AR   Ar   11   1.713   6.332   3.847
    1   AR   Ar   12   0.672   1.251   2.590
    1   AR   Ar   13   0.176   0.939   4.906
    1   AR   Ar   14   0.270   2.386   7.406
    1   AR   Ar   15   4.828   0.658   9.881
    1   AR   Ar   16   1.041   0.288   4.933
    1   AR   Ar   17   6.319   1.666  -0.144
    1   AR   Ar   18   6.609   2.856  -0.526
    1   AR   Ar   19   1.789   2.948   1.616
    1   AR   Ar   20   4.707   4.140  -1.831
    1   AR   Ar   21   4.667   1.896   1.384
    1   AR   Ar   22   6.255   2.357   2.233
    1   AR   Ar   23   6.852   0.681  -0.322
    1   AR   Ar   24   6.825   2.139   1.317
    1   AR   Ar   25   0.424   1.448   3.951
    1   AR   Ar   26   5.738   0.310   3.979
    1   AR   Ar   27   1.393   1.041   3.483
    1   AR   Ar   28   0.638   2.078   4.765
    1   AR   Ar   29   5.991   2.883   7.097
    1   AR   Ar   30   1.547   1.439   4.446
    1   AR   Ar   31   2.802   0.500   7.873
    1   AR   Ar   32   1.682   3.296   5.702
    1   AR   Ar   33   0.528   4.196  -0.569
    1   AR   Ar   34   0.281   5.221   2.565
    1   AR   Ar   35   6.243   5.435   1.038
    1   AR   Ar   36   6.690   0.321  -3.890
    1   AR   Ar   37   5.186   2.033   2.287
    1   AR   Ar   38   0.168   4.149   2.490
    1   AR   Ar   39   1.368   3.530   3.120
    1   AR   Ar   40   2.212   3.945   1.164
    1   AR   Ar   41   0.306   3.277   4.043
    1   AR   Ar   42   6.206   5.576   4.601
    1   AR   Ar   43   6.924   2.309   5.869
    1   AR   Ar   44   0.611   4.430   3.421
    1   AR   Ar   45   0.429   3.376   5.832
    1   AR   Ar   46   0.735   5.082   5.787
    1   AR   Ar   47   5.945   4.012   6.973
    1   AR   Ar   48   0.127   5.871   6.845
    1   AR   Ar   49   5.733   0.755  -0.762
    1   AR   Ar   50   5.174   5.137   1.648
    1   AR   Ar   51   6.846   4.616   1.539
    1   AR   Ar   52   5.632   4.908  -1.548
    1   AR   Ar   53   5.493   5.743   2.921
    1   AR   Ar   54   0.406   6.318   2.403
    1   AR   Ar   55   6.422   5.710   2.512
    1   AR   Ar   56   0.261   0.987   0.732
    1   AR   Ar   57   5.381   3.712   3.398
    1   AR   Ar   58   6.703   4.417   4.266
    1   AR   Ar   59   2.346   5.469   6.056
    1   AR   Ar   60   0.508   6.419   3.551
    1   AR   Ar   61   6.776   4.598   6.445
    1   AR   Ar   62   0.481   4.818   4.712
    1   AR   Ar   63   2.316   0.286   6.614
    1   AR   Ar   64   0.709   5.923   4.462
    1   AR   Ar   65   3.617   6.846   0.838
    1   AR   Ar   66   0.979   1.580   1.444
    1   AR   Ar   67   3.125   6.786  -1.505
    1   AR   Ar   68   2.795   1.793  -0.824
    1   AR   Ar   69   2.795   1.027   0.917
    1   AR   Ar   70   0.723   0.313   2.269
    1   AR   Ar   71   2.742   1.309   3.960
    1   AR   Ar   72   3.442   0.293   1.858
    1   AR   Ar   73   3.635   0.315   3.666
    1   AR   Ar   74   2.121   0.209   3.854
    1   AR   Ar   75   3.941   1.286   4.834
    1   AR   Ar   76   1.571   0.841   2.016
    1   AR   Ar   77   2.443   6.499   6.261
    1   AR   Ar   78   0.642   7.028   6.511
    1   AR   Ar   79   3.550   6.015   6.093
    1   AR   Ar   80   3.843   5.113   5.791
    1   AR   Ar   81   2.864   6.423  -0.390
    1   AR   Ar   82   6.706   5.806  -0.723
    1   AR   Ar   83   0.555   2.799   0.247
    1   AR   Ar   84   0.081   3.815   0.584
    1   AR   Ar   85   1.309   3.684   0.774
    1   AR   Ar   86   1.855   4.854  -0.343
    1   AR   Ar   87   1.905   1.649   0.864
    1   AR   Ar   88   2.147   5.010   0.715
    1   AR   Ar   89   0.189   2.615   2.662
    1   AR   Ar   90   2.470   2.583   4.449
    1   AR   Ar   91   1.175   2.166   3.265
    1   AR   Ar   92   1.171   2.626   2.395
    1   AR   Ar   93   2.151   0.355   5.343
    1   AR   Ar   94   0.548   6.585  10.780
    1   AR   Ar   95   3.626   1.669   5.799
    1   AR   Ar   96   2.968   0.425   4.524
    1   AR   Ar   97   5.148   1.724  -0.536
    1   AR   Ar   98   2.184   5.328   2.598
    1   AR   Ar   99   5.957   2.148  -1.258
    1   AR   Ar  100   1.740   3.512  -0.210
    1   AR   Ar  101   3.132   4.165   1.165
    1   AR   Ar  102   3.266   2.592   3.721
    1   AR   Ar  103   1.134   4.693   1.326
    1   AR   Ar  104   2.789   3.064  -1.271
    1   AR   Ar  105   1.670   3.232   4.123
    1   AR   Ar  106   3.376   3.585   5.386
    1   AR   Ar  107   1.023   3.999   4.334
    1   AR   Ar  108   3.565   2.385   4.983
    1   AR   Ar  109   1.751   4.793   4.601
    1   AR   Ar  110   1.196   4.163   6.172
    1   AR   Ar  111   4.945   4.309   7.365
    1   AR   Ar  112   1.357   5.923   6.819
    1   AR   Ar  113   2.908   4.563  -0.416
    1   AR   Ar  114   2.115   6.656  -1.043
    1   AR   Ar  115   2.643   5.547  -0.843
    1   AR   Ar  116   5.768   6.585  -0.834
    1   AR   Ar  117   1.301   5.364   3.788
    1   AR   Ar  118   1.237   5.833   2.648
    1   AR   Ar  119   2.201   2.884   2.653
    1   AR   Ar  120   1.974   6.881   2.392
    1   AR   Ar  121   5.948   4.581   5.468
    1   AR   Ar  122   2.622   6.491   5.081
    1   AR   Ar  123   3.768   4.516   4.827
    1   AR   Ar  124   1.778   5.988   1.559
    1   AR   Ar  125   7.020   4.394   5.401
    1   AR   Ar  126   7.083   6.902   4.477
    1   AR   Ar  127   3.547   4.166   6.265
    1   AR   Ar  128   3.330   5.095   6.670
    1   AR   Ar  129   2.680   6.200   2.769
    1   AR   Ar  130   5.090   2.805  -2.101
    1   AR   Ar  131   4.317   1.297  -0.063
    1   AR   Ar  132   0.142   1.779  -0.624
    1   AR   Ar  133   4.588   6.540   2.824
    1   AR   Ar  134   4.718   1.341   3.905
    1   AR   Ar  135   5.682   0.531   2.451
    1   AR   Ar  136   4.685   6.926   1.814
    1   AR   Ar  137   2.712   5.364   3.534
    1   AR   Ar  138   4.762   1.822   5.565
    1   AR   Ar  139   5.757   2.604   5.650
    1   AR   Ar  140   3.912   7.071   4.787
    1   AR   Ar  141   3.722   5.423   4.315
    1   AR   Ar  142   3.252   0.241   6.015
    1   AR   Ar  143   6.985   0.237   5.711
    1   AR   Ar  144   6.711   1.287   5.744
    1   AR   Ar  145   4.428   3.901  -0.040
    1   AR   Ar  146   3.642   2.498   2.132
    1   AR   Ar  147   5.091   1.260  -1.548
    1   AR   Ar  148   3.539   4.408  -1.302
    1   AR   Ar  149   2.961   2.110   1.328
    1   AR   Ar  150   2.175   1.689   2.347
    1   AR   Ar  151   2.193   2.127   3.304
    1   AR   Ar  152   3.482   3.460  -0.413
    1   AR   Ar  153   4.590   0.266   3.956
    1   AR   Ar  154   4.440   2.562   4.439
    1   AR   Ar  155   6.737   0.314   6.970
    1   AR   Ar  156   3.964   3.410   4.169
    1   AR   Ar  157   2.014   3.750   6.831
    1   AR   Ar  158   0.959   2.772   6.644
    1   AR   Ar  159   4.535   1.883   6.924
    1   AR   Ar  160   2.723   1.498   5.156
    1   AR   Ar  161   5.355   3.426   2.372
    1   AR   Ar  162   4.553   6.052  -0.414
    1   AR   Ar  163   4.884   3.240   1.261
    1   AR   Ar  164   2.855   5.357   1.666
    1   AR   Ar  165   3.842   3.333   1.124
    1   AR   Ar  166   2.486   3.645   4.890
    1   AR   Ar  167   4.219   1.104   2.036
    1   AR   Ar  168   5.312   3.109  -0.476
    1   AR   Ar  169   3.317   3.674   2.165
    1   AR   Ar  170   2.295   4.283   5.962
    1   AR   Ar  171   5.663   4.397   4.487
    1   AR   Ar  172   4.715   4.826   4.734
    1   AR   Ar  173   3.037   3.365   7.641
    1   AR   Ar  174   2.292   5.006   7.022
    1   AR   Ar  175   2.700   3.214   6.202
    1   AR   Ar  176   3.784   2.658   5.985
    1   AR   Ar  177   6.326   4.893  -0.306
    1   AR   Ar  178   4.116   5.136  -0.200
    1   AR   Ar  179   3.925   5.156   1.031
    1   AR   Ar  180   0.755   1.553  -2.666
    1   AR   Ar  181   0.719   5.971   1.439
    1   AR   Ar  182   2.745   0.557   3.029
    1   AR   Ar  183   3.253   5.203   2.697
    1   AR   Ar  184   4.739   6.389   0.910
    1   AR   Ar  185   2.859   5.223   5.118
    1   AR   Ar  186   3.509   4.305   3.430
    1   AR   Ar  187   3.760   5.982   3.151
    1   AR   Ar  188   3.119   6.389   1.879
    1   AR   Ar  189   3.710   2.756   6.923
    1   AR   Ar  190   4.281   6.426   4.028
    1   AR   Ar  191   3.578   5.675   7.613
    1   AR   Ar  192   4.086   5.956   5.210
    1   AR   Ar  193   2.575   5.974   0.856
    1   AR   Ar  194   4.250   3.605  -1.017
    1   AR   Ar  195   5.249   0.985   0.246
    1   AR   Ar  196   4.622   0.258   0.082
    1   AR   Ar  197   3.895   1.200   1.012
    1   AR   Ar  198   6.081   1.406   1.058
    1   AR   Ar  199   3.479   1.195   3.009
    1   AR   Ar  200   5.299   2.076   0.409
    1   AR   Ar  201   5.317   6.507   3.708
    1   AR   Ar  202   5.691   2.001   4.524
    1   AR   Ar  203   6.623   6.566   3.484
    1   AR   Ar  204   4.987   6.795   4.856
    1   AR   Ar  205   6.858   7.052   2.186
    1   AR   Ar  206   5.049   0.716   4.824
    1   AR   Ar  207   1.102   1.609   7.053
    1   AR   Ar  208   6.995   0.526   3.326
    1   AR   Ar  209   7.068   3.060  -2.451
    1   AR   Ar  210   3.337   0.271  -0.159
    1   AR   Ar  211   6.396   2.753   0.680
    1   AR   Ar  212   6.102   3.321  -1.527
    1   AR   Ar  213   3.170   1.312   2.029
    1   AR   Ar  214   4.287   3.448   2.996
    1   AR   Ar  215   5.624   2.357   1.376
    1   AR   Ar  216   0.795   3.453   1.796
    1   AR   Ar  217   5.102   3.398   4.210
    1   AR   Ar  218   4.399   3.309   5.131
    1   AR   Ar  219   5.086   2.514   3.614
    1   AR   Ar  220   4.396   4.048   1.881
    1   AR   Ar  221   6.059   6.971   5.209
    1   AR   Ar  222   4.068   0.729   6.852
    1   AR   Ar  223   0.089   1.228   7.219
    1   AR   Ar  224   4.677   3.196   6.248
    1   AR   Ar  225   6.445   3.283   2.387
    1   AR   Ar  226   2.457   3.933   3.430
    1   AR   Ar  227   6.533   3.579   1.373
    1   AR   Ar  228   5.684   6.451   1.990
    1   AR   Ar  229   5.537   4.167  -0.739
    1   AR   Ar  230   4.827   4.459   3.661
    1   AR   Ar  231   6.247   1.226   3.244
    1   AR   Ar  232   4.147   2.357   0.554
    1   AR   Ar  233   6.476   2.457   3.329
    1   AR   Ar  234   6.226   3.222   4.280
    1   AR   Ar  235   6.686   1.981   4.805
    1   AR   Ar  236   5.689   5.976   5.475
    1   AR   Ar  237   5.472   3.590   5.186
    1   AR   Ar  238   5.045   4.260   5.846
    1   AR   Ar  239   5.785   4.047   8.186
    1   AR   Ar  240   0.024   3.120   6.763
    1   AR   Ar  241   0.994   6.684  -0.202
    1   AR   Ar  242   5.155   4.608   0.194
    1   AR   Ar  243   5.687   4.550   2.281
    1   AR   Ar  244   0.689   5.188  -0.423
    1   AR   Ar  245   4.967   0.706   1.188
    1   AR   Ar  246   5.371   5.609   0.422
    1   AR   Ar  247   5.589   4.128   1.029
    1   AR   Ar  248   5.550   5.417  -0.583
    1   AR   Ar  249   3.990   5.745   2.256
    1   AR   Ar  250   4.982   5.797   4.524
    1   AR   Ar  251   5.677   5.083   3.741
    1   AR   Ar  252   4.635   5.513   3.435
    1   AR   Ar  253   6.334   3.664   5.982
    1   AR   Ar  254   1.949   3.292   9.441
    1   AR   Ar  255   3.802   3.134   8.421
    1   AR   Ar  256   6.864   5.486   3.659
    7.12000  7.12000 12.00000
Argon-slab step 3110
  256
    1   AR   Ar    1   6.817   1.277  -1.800
    1   AR   Ar    2   6.134   0.415   0.334
    1   AR   Ar    3   2.126   0.678  -0.019
    1   AR   Ar    4   1.154   0.710  -0.450
    1   AR   Ar    5   7.046   6.820   0.980
    1   AR   Ar    6   6.697   1.162   2.274
    1   AR   Ar    7   6.335   3.982   3.253
    1   AR   Ar    8   5.997   0.261   1.395
    1   AR   Ar    9   1.310   0.030   3.121
    1   AR   Ar   10   0.619   0.424   3.991
    1   AR   Ar   11   1.699   6.342   3.840
    1   AR   Ar   12   0.661   1.247   2.575
    1   AR   Ar   13   0.202   0.934   4.907
    1   AR   Ar   14   0.250   2.417   7.402
    1   AR   Ar   15   4.820   0.631   9.839
    1   AR   Ar   16   1.041   0.278   4.942
    1   AR   Ar   17   6.288   1.666  -0.119
    1   AR   Ar   18   6.617   2.874  -0.538
    1   AR   Ar   19   1.766   2.949   1.631
    1   AR   Ar   20   4.680   4.113  -1.829
    1   AR   Ar   21   4.653   1.858   1.415
    1   AR   Ar   22   6.259   2.352   2.205
    1   AR   Ar   23   6.885   0.703  -0.302
    1   AR   Ar   24   6.841   2.172   1.326
    1   AR   Ar   25   0.442   1.441   3.906
    1   AR   Ar   26   5.747   0.316   3.954
    1   AR   Ar   27   1.394   1.039   3.458
    1   AR   Ar   28   0.667   2.073   4.789
    1   AR   Ar   29   5.972   2.880   7.093
    1   AR   Ar   30   1.526   1.449   4.426
    1   AR   Ar   31   2.862   0.509   7.860
    1   AR   Ar   32   1.670   3.272   5.725
    1   AR   Ar   33   0.524   4.192  -0.601
    1   AR   Ar   34   0.263   5.249   2.568
    1   AR   Ar   35   6.242   5.447   1.047
    1   AR   Ar   36   6.677   0.307  -3.872
    1   AR   Ar   37   5.169   2.013   2.279
    1   AR   Ar   38   0.178   4.140   2.453
    1   AR   Ar   39   1.385   3.527   3.097
    1   AR   Ar   40   2.212   3.961   1.162
    1   AR   Ar   41   0.305   3.273   4.043
    1   AR   Ar   42   6.195   5.602   4.572
    1   AR   Ar   43   6.908   2.316   5.861
    1   AR   Ar   44   0.609   4.444   3.406
    1   AR   Ar   45   0.431   3.408   5.799
    1   AR   Ar   46   0.726   5.055   5.791
    1   AR   Ar   47   5.916   4.002   6.962
    1   AR   Ar   48   0.117   5.880   6.838
    1   AR   Ar   49   5.731   0.768  -0.768
    1   AR   Ar   50   5.143   5.110   1.681
    1   AR   Ar   51   6.850   4.627   1.566
    1   AR   Ar   52   5.640   4.913  -1.566
    1   AR   Ar   53   5.500   5.777   2.921
    1   AR   Ar   54   0.392   6.317   2.390
    1   AR   Ar   55   6.425   5.683   2.514
    1   AR   Ar   56   0.262   1.014   0.712
    1   AR   Ar   57   5.394   3.708   3.401
    1   AR   Ar   58   6.698   4.436   4.263
    1   AR   Ar   59   2.345   5.482   6.051
    1   AR   Ar   60   0.521   6.406   3.554
    1   AR   Ar   61   6.787   4.552   6.455
    1   AR   Ar   62   0.437   4.828   4.686
    1   AR   Ar   63   2.329   0.301   6.596
    1   AR   Ar   64   0.718   5.900   4.475
    1   AR   Ar   65   3.632   6.819   0.855
    1   AR   Ar   66   0.973   1.577   1.445
    1   AR   Ar   67   3.122   6.804  -1.470
    1   AR   Ar   68   2.797   1.826  -0.835
    1   AR   Ar   69   2.792   1.019   0.933
    1   AR   Ar   70   0.744   0.314   2.308
    1   AR   Ar   71   2.753   1.312   3.950
    1   AR   Ar   72   3.485   0.308   1.850
    1   AR   Ar   73   3.642   0.309   3.658
    1   AR   Ar   74   2.122   0.220   3.865
    1   AR   Ar   75   3.928   1.262   4.843
    1   AR   Ar   76   1.578   0.845   2.027
    1   AR   Ar   77   2.428   6.522   6.261
    1   AR   Ar   78   0.637   7.008   6.507
    1   AR   Ar   79   3.523   5.993   6.075
    1   AR   Ar   80   3.860   5.139   5.770
    1   AR   Ar   81   2.858   6.428  -0.371
    1   AR   Ar   82   6.668   5.797  -0.739
    1   AR   Ar   83   0.566   2.777   0.227
    1   AR   Ar   84   0.075   3.833   0.640
    1   AR   Ar   85   1.340   3.690   0.766
    1   AR   Ar   86   1.865   4.836  -0.336
    1   AR   Ar   87   1.883   1.646   0.851
    1   AR   Ar   88   2.179   5.010   0.663
    1   AR   Ar   89   0.183   2.618   2.677
    1   AR   Ar   90   2.478   2.567   4.445
    1   AR   Ar   91   1.156   2.124   3.260
    1   AR   Ar   92   1.176   2.649   2.389
    1   AR   Ar   93   2.147   0.391   5.368
    1   AR   Ar   94   0.530   6.574  10.794
    1   AR   Ar   95   3.597   1.654   5.836
    1   AR   Ar   96   2.960   0.426   4.490
    1   AR   Ar   97   5.179   1.749  -0.556
    1   AR   Ar   98   2.214   5.311   2.588
    1   AR   Ar   99   5.954   2.142  -1.261
    1   AR   Ar  100   1.717   3.536  -0.188
    1   AR   Ar  101   3.166   4.211   1.148
    1   AR   Ar  102   3.262   2.574   3.706
    1   AR   Ar  103   1.142   4.702   1.347
    1   AR   Ar  104   2.799   3.091  -1.274
    1   AR   Ar  105   1.661   3.206   4.086
    1   AR   Ar  106   3.359   3.613   5.393
    1   AR   Ar  107   0.988   3.996   4.300
    1   AR   Ar  108   3.570   2.406   4.963
    1   AR   Ar  109   1.759   4.816   4.615
    1   AR   Ar  110   1.220   4.146   6.128
    1   AR   Ar  111   4.960   4.312   7.374
    1   AR   Ar  112   1.374   5.961   6.795
    1   AR   Ar  113   2.919   4.522  -0.422
    1   AR   Ar  114   2.119   6.668  -1.046
    1   AR   Ar  115   2.630   5.558  -0.857
    1   AR   Ar  116   5.751   6.585  -0.830
    1   AR   Ar  117   1.318   5.361   3.800
    1   AR   Ar  118   1.231   5.816   2.683
    1   AR   Ar  119   2.197   2.910   2.635
    1   AR   Ar  120   1.983   6.868   2.383
    1   AR   Ar  121   5.948   4.572   5.491
    1   AR   Ar  122   2.645   6.491   5.060
    1   AR   Ar  123   3.783   4.509   4.841
    1   AR   Ar  124   1.783   5.987   1.576
    1   AR   Ar  125   7.004   4.402   5.422
    1   AR   Ar  126   7.078   6.891   4.470
    1   AR   Ar  127   3.513   4.169   6.266
    1   AR   Ar  128   3.327   5.073   6.707
    1   AR   Ar  129   2.671   6.183   2.778
    1   AR   Ar  130   5.048   2.820  -2.121
    1   AR   Ar  131   4.289   1.302  -0.056
    1   AR   Ar  132   0.125   1.795  -0.614
    1   AR   Ar  133   4.606   6.552   2.802
    1   AR   Ar  134   4.726   1.301   3.914
    1   AR   Ar  135   5.689   0.557   2.438
    1   AR   Ar  136   4.694   6.941   1.850
    1   AR   Ar  137   2.700   5.374   3.535
    1   AR   Ar  138   4.786   1.820   5.575
    1   AR   Ar  139   5.754   2.590   5.646
    1   AR   Ar  140   3.916   7.071   4.805
    1   AR   Ar  141   3.741   5.416   4.319
    1   AR   Ar  142   3.261   0.254   6.009
    1   AR   Ar  143   6.986   0.247   5.711
    1   AR   Ar  144   6.728   1.274   5.743
    1   AR   Ar  145   4.404   3.894  -0.026
    1   AR   Ar  146   3.651   2.520   2.132
    1   AR   Ar  147   5.091   1.258  -1.536
    1   AR   Ar  148   3.591   4.379  -1.309
    1   AR   Ar  149   2.956   2.097   1.297
    1   AR   Ar  150   2.180   1.729   2.323
    1   AR   Ar  151   2.219   2.126   3.312
    1   AR   Ar  152   3.463   3.456  -0.424
    1   AR   Ar  153   4.593   0.258   3.925
    1   AR   Ar  154   4.445   2.579   4.475
    1   AR   Ar  155   6.724   0.323   6.981
    1   AR   Ar  156   3.948   3.410   4.210
    1   AR   Ar  157   2.011   3.729   6.807
    1   AR   Ar  158   0.957   2.757   6.642
    1   AR   Ar  159   4.539   1.880   6.929
    1   AR   Ar  160   2.720   1.501   5.157
    1   AR   Ar  161   5.337   3.419   2.332
    1   AR   Ar  162   4.533   6.063  -0.444
    1   AR   Ar  163   4.880   3.275   1.290
    1   AR   Ar  164   2.828   5.357   1.690
    1   AR   Ar  165   3.846   3.351   1.141
    1   AR   Ar  166   2.515   3.645   4.879
    1   AR   Ar  167   4.240   1.100   2.055
    1   AR   Ar  168   5.328   3.098  -0.474
    1   AR   Ar  169   3.325   3.661   2.177
    1   AR   Ar  170   2.315   4.285   5.994
    1   AR   Ar  171   5.657   4.394   4.514
    1   AR   Ar  172   4.729   4.807   4.734
    1   AR   Ar  173   3.028   3.391   7.647
    1   AR   Ar  174   2.321   5.016   6.992
    1   AR   Ar  175   2.697   3.213   6.203
    1   AR   Ar  176   3.785   2.658   5.954
    1   AR   Ar  177   6.325   4.904  -0.315
    1   AR   Ar  178   4.103   5.149  -0.212
    1   AR   Ar  179   3.917   5.163   1.033
    1   AR   Ar  180   0.774   1.548  -2.691
    1   AR   Ar  181   0.717   5.957   1.405
    1   AR   Ar  182   2.738   0.552   3.055
    1   AR   Ar  183   3.250   5.230   2.712
    1   AR   Ar  184   4.753   6.426   0.951
    1   AR   Ar  185   2.884   5.196   5.153
    1   AR   Ar  186   3.450   4.299   3.398
    1   AR   Ar  187   3.762   5.981   3.132
    1   AR   Ar  188   3.138   6.384   1.891
    1   AR   Ar  189   3.732   2.775   6.914
    1   AR   Ar  190   4.272   6.428   3.995
    1   AR   Ar  191   3.573   5.666   7.608
    1   AR   Ar  192   4.079   5.951   5.174
    1   AR   Ar  193   2.556   5.979   0.839
    1   AR   Ar  194   4.246   3.604  -1.031
    1   AR   Ar  195   5.303   0.976   0.288
    1   AR   Ar  196   4.637   0.267   0.055
    1   AR   Ar  197   3.893   1.195   1.018
    1   AR   Ar  198   6.068   1.399   1.086
    1   AR   Ar  199   3.493   1.201   3.030
    1   AR   Ar  200   5.309   2.109   0.396
    1   AR   Ar  201   5.292   6.492   3.703
    1   AR   Ar  202   5.665   1.998   4.541
    1   AR   Ar  203   6.616   6.557   3.467
    1   AR   Ar  204   4.965   6.783   4.870
    1   AR   Ar  205   6.859   7.054   2.180
    1   AR   Ar  206   5.059   0.732   4.831
    1   AR   Ar  207   1.130   1.618   7.056
    1   AR   Ar  208   6.968   0.520   3.319
    1   AR   Ar  209   7.061   3.036  -2.447
    1   AR   Ar  210   3.365   0.274  -0.156
    1   AR   Ar  211   6.397   2.769   0.678
    1   AR   Ar  212   6.110   3.340  -1.553
    1   AR   Ar  213   3.191   1.311   1.984
    1   AR   Ar  214   4.261   3.459   2.989
    1   AR   Ar  215   5.638   2.353   1.405
    1   AR   Ar  216   0.783   3.429   1.823
    1   AR   Ar  217   5.074   3.382   4.261
    1   AR   Ar  218   4.399   3.302   5.174
    1   AR   Ar  219   5.117   2.522   3.602
    1   AR   Ar  220   4.406   4.081   1.886
    1   AR   Ar  221   6.075   7.003   5.212
    1   AR   Ar  222   4.088   0.711   6.836
    1   AR   Ar  223   0.105   1.260   7.195
    1   AR   Ar  224   4.670   3.209   6.243
    1   AR   Ar  225   6.450   3.296   2.388
    1   AR   Ar  226   2.423   3.886   3.442
    1   AR   Ar  227   6.499   3.559   1.360
    1   AR   Ar  228   5.705   6.461   1.984
    1   AR   Ar  229   5.542   4.163  -0.730
    1   AR   Ar  230   4.827   4.494   3.674
    1   AR   Ar  231   6.225   1.232   3.259
    1   AR   Ar  232   4.173   2.370   0.561
    1   AR   Ar  233   6.456   2.439   3.339
    1   AR   Ar  234   6.220   3.201   4.302
    1   AR   Ar  235   6.671   1.986   4.814
    1   AR   Ar  236   5.702   5.981   5.488
    1   AR   Ar  237   5.479   3.567   5.180
    1   AR   Ar  238   5.045   4.234   5.872
    1   AR   Ar  239   5.794   4.051   8.162
    1   AR   Ar  240   0.013   3.136   6.787
    1   AR   Ar  241   1.028   6.687  -0.209
    1   AR   Ar  242   5.204   4.638   0.195
    1   AR   Ar  243   5.689   4.534   2.311
    1   AR   Ar  244   0.691   5.187  -0.397
    1   AR   Ar  245   4.964   0.728   1.203
    1   AR   Ar  246   5.368   5.621   0.423
    1   AR   Ar  247   5.600   4.124   1.002
    1   AR   Ar  248   5.548   5.417  -0.582
    1   AR   Ar  249   4.000   5.742   2.215
    1   AR   Ar  250   4.972   5.787   4.563
    1   AR   Ar  251   5.654   5.060   3.745
    1   AR   Ar  252   4.625   5.515   3.427
    1   AR   Ar  253   6.313   3.671   5.999
    1   AR   Ar  254   1.950   3.249   9.455
    1   AR   Ar  255   3.827   3.121   8.413
    1   AR   Ar  256   6.860   5.482   3.654
    7.12000  7.12000 12.00000
Argon-slab step 3115
  256
    1   AR   Ar    1   6.827   1.271  -1.778
    1   AR   Ar    2   6.146   0.425   0.316
    1   AR   Ar    3   2.156   0.651  -0.039
    1   AR   Ar    4   1.187   0.686  -0.462
    1   AR   Ar    5   7.023   6.841   0.992
    1   AR   Ar    6   6.654   1.141   2.300
    1   AR   Ar    7   6.331   3.981   3.257
    1   AR   Ar    8   5.993   0.270   1.359
    1   AR   Ar    9   1.349   0.013   3.128
    1   AR   Ar   10   0.627   0.442   4.029
    1   AR   Ar   11   1.684   6.353   3.832
    1   AR   Ar   12   0.645   1.224   2.568
    1   AR   Ar   13   0.230   0.937   4.901
    1   AR   Ar   14   0.233   2.435   7.407
    1   AR   Ar   15   4.812   0.603   9.797
    1   AR   Ar   16   1.045   0.265   4.954
    1   AR   Ar   17   6.253   1.666  -0.093
    1   AR   Ar   18   6.623   2.892  -0.549
    1   AR   Ar   19   1.760   2.950   1.641
    1   AR   Ar   20   4.656   4.089  -1.830
    1   AR   Ar   21   4.638   1.820   1.438
    1   AR   Ar   22   6.266   2.335   2.179
    1   AR   Ar   23   6.923   0.728  -0.285
    1   AR   Ar   24   6.864   2.198   1.343
    1   AR   Ar   25   0.460   1.438   3.860
    1   AR   Ar   26   5.756   0.322   3.930
    1   AR   Ar   27   1.395   1.038   3.430
    1   AR   Ar   28   0.695   2.068   4.815
    1   AR   Ar   29   5.954   2.879   7.088
    1   AR   Ar   30   1.505   1.460   4.407
    1   AR   Ar   31   2.923   0.518   7.847
    1   AR   Ar   32   1.659   3.247   5.748
    1   AR   Ar   33   0.520   4.182  -0.634
    1   AR   Ar   34   0.249   5.274   2.572
    1   AR   Ar   35   6.240   5.458   1.058
    1   AR   Ar   36   6.663   0.293  -3.854
    1   AR   Ar   37   5.154   1.993   2.281
    1   AR   Ar   38   0.187   4.129   2.416
    1   AR   Ar   39   1.401   3.534   3.107
    1   AR   Ar   40   2.208   3.977   1.164
    1   AR   Ar   41   0.299   3.265   4.041
    1   AR   Ar   42   6.183   5.626   4.541
    1   AR   Ar   43   6.894   2.327   5.854
    1   AR   Ar   44   0.606   4.460   3.391
    1   AR   Ar   45   0.439   3.401   5.795
    1   AR   Ar   46   0.715   5.029   5.794
    1   AR   Ar   47   5.887   3.992   6.950
    1   AR   Ar   48   0.108   5.890   6.829
    1   AR   Ar   49   5.730   0.781  -0.772
    1   AR   Ar   50   5.108   5.088   1.710
    1   AR   Ar   51   6.840   4.625   1.553
    1   AR   Ar   52   5.647   4.916  -1.583
    1   AR   Ar   53   5.503   5.814   2.920
    1   AR   Ar   54   0.387   6.308   2.405
    1   AR   Ar   55   6.432   5.657   2.514
    1   AR   Ar   56   0.252   1.028   0.702
    1   AR   Ar   57   5.407   3.700   3.390
    1   AR   Ar   58   6.660   4.405   4.242
    1   AR   Ar   59   2.344   5.494   6.043
    1   AR   Ar   60   0.539   6.395   3.554
    1   AR   Ar   61   6.797   4.506   6.466
    1   AR   Ar   62   0.401   4.846   4.655
    1   AR   Ar   63   2.340   0.331   6.584
    1   AR   Ar   64   0.725   5.879   4.492
    1   AR   Ar   65   3.648   6.792   0.873
    1   AR   Ar   66   0.966   1.574   1.448
    1   AR   Ar   67   3.120   6.822  -1.433
    1   AR   Ar   68   2.810   1.820  -0.839
    1   AR   Ar   69   2.790   1.009   0.949
    1   AR   Ar   70   0.760   0.298   2.341
    1   AR   Ar   71   2.763   1.316   3.938
    1   AR   Ar   72   3.529   0.321   1.841
    1   AR   Ar   73   3.640   0.302   3.647
    1   AR   Ar   74   2.120   0.233   3.875
    1   AR   Ar   75   3.915   1.238   4.850
    1   AR   Ar   76   1.589   0.852   2.038
    1   AR   Ar   77   2.417   6.531   6.254
    1   AR   Ar   78   0.630   6.987   6.502
    1   AR   Ar   79   3.487   5.986   6.064
    1   AR   Ar   80   3.882   5.146   5.743
    1   AR   Ar   81   2.857   6.436  -0.346
    1   AR   Ar   82   6.629   5.791  -0.756
    1   AR   Ar   83   0.576   2.756   0.207
    1   AR   Ar   84   0.072   3.853   0.693
    1   AR   Ar   85   1.374   3.683   0.763
    1   AR   Ar   86   1.872   4.818  -0.331
    1   AR   Ar   87   1.858   1.653   0.840
    1   AR   Ar   88   2.205   5.007   0.624
    1   AR   Ar   89   0.173   2.621   2.692
    1   AR   Ar   90   2.487   2.550   4.443
    1   AR   Ar   91   1.133   2.079   3.261
    1   AR   Ar   92   1.204   2.657   2.391
    1   AR   Ar   93   2.144   0.427   5.392
    1   AR   Ar   94   0.522   6.583  10.821
    1   AR   Ar   95   3.569   1.633   5.873
    1   AR   Ar   96   2.953   0.425   4.461
    1   AR   Ar   97   5.212   1.774  -0.580
    1   AR   Ar   98   2.234   5.286   2.575
    1   AR   Ar   99   5.932   2.143  -1.239
    1   AR   Ar  100   1.696   3.560  -0.171
    1   AR   Ar  101   3.213   4.262   1.132
    1   AR   Ar  102   3.260   2.555   3.690
    1   AR   Ar  103   1.150   4.710   1.368
    1   AR   Ar  104   2.809   3.119  -1.276
    1   AR   Ar  105   1.655   3.178   4.049
    1   AR   Ar  106   3.368   3.608   5.389
    1   AR   Ar  107   0.956   3.997   4.269
    1   AR   Ar  108   3.567   2.426   4.942
    1   AR   Ar  109   1.766   4.837   4.630
    1   AR   Ar  110   1.242   4.131   6.086
    1   AR   Ar  111   4.974   4.315   7.383
    1   AR   Ar  112   1.391   5.999   6.770
    1   AR   Ar  113   2.932   4.480  -0.426
    1   AR   Ar  114   2.118   6.681  -1.051
    1   AR   Ar  115   2.615   5.564  -0.873
    1   AR   Ar  116   5.733   6.585  -0.825
    1   AR   Ar  117   1.333   5.355   3.808
    1   AR   Ar  118   1.229   5.798   2.721
    1   AR   Ar  119   2.196   2.940   2.616
    1   AR   Ar  120   1.993   6.856   2.370
    1   AR   Ar  121   5.951   4.567   5.517
    1   AR   Ar  122   2.670   6.490   5.040
    1   AR   Ar  123   3.803   4.499   4.852
    1   AR   Ar  124   1.790   5.986   1.598
    1   AR   Ar  125   6.987   4.404   5.446
    1   AR   Ar  126   7.071   6.878   4.465
    1   AR   Ar  127   3.481   4.167   6.267
    1   AR   Ar  128   3.325   5.055   6.746
    1   AR   Ar  129   2.666   6.170   2.795
    1   AR   Ar  130   5.006   2.835  -2.140
    1   AR   Ar  131   4.261   1.309  -0.047
    1   AR   Ar  132   0.108   1.811  -0.604
    1   AR   Ar  133   4.625   6.561   2.785
    1   AR   Ar  134   4.734   1.264   3.923
    1   AR   Ar  135   5.695   0.581   2.426
    1   AR   Ar  136   4.701   6.960   1.885
    1   AR   Ar  137   2.686   5.375   3.544
    1   AR   Ar  138   4.808   1.819   5.584
    1   AR   Ar  139   5.752   2.577   5.641
    1   AR   Ar  140   3.919   7.073   4.822
    1   AR   Ar  141   3.759   5.411   4.318
    1   AR   Ar  142   3.269   0.265   6.002
    1   AR   Ar  143   6.976   0.236   5.708
    1   AR   Ar  144   6.744   1.262   5.742
    1   AR   Ar  145   4.382   3.887  -0.009
    1   AR   Ar  146   3.660   2.541   2.131
    1   AR   Ar  147   5.092   1.257  -1.525
    1   AR   Ar  148   3.642   4.352  -1.315
    1   AR   Ar  149   2.951   2.085   1.266
    1   AR   Ar  150   2.184   1.769   2.297
    1   AR   Ar  151   2.248   2.122   3.327
    1   AR   Ar  152   3.437   3.451  -0.429
    1   AR   Ar  153   4.609   0.254   3.897
    1   AR   Ar  154   4.458   2.579   4.506
    1   AR   Ar  155   6.711   0.330   6.990
    1   AR   Ar  156   3.926   3.417   4.247
    1   AR   Ar  157   2.010   3.726   6.785
    1   AR   Ar  158   0.958   2.732   6.657
    1   AR   Ar  159   4.542   1.880   6.925
    1   AR   Ar  160   2.718   1.503   5.156
    1   AR   Ar  161   5.319   3.411   2.291
    1   AR   Ar  162   4.516   6.077  -0.474
    1   AR   Ar  163   4.880   3.308   1.318
    1   AR   Ar  164   2.801   5.360   1.691
    1   AR   Ar  165   3.833   3.345   1.159
    1   AR   Ar  166   2.534   3.646   4.863
    1   AR   Ar  167   4.263   1.095   2.076
    1   AR   Ar  168   5.345   3.086  -0.472
    1   AR   Ar  169   3.334   3.647   2.189
    1   AR   Ar  170   2.339   4.290   6.022
    1   AR   Ar  171   5.653   4.390   4.531
    1   AR   Ar  172   4.747   4.787   4.736
    1   AR   Ar  173   3.020   3.417   7.651
    1   AR   Ar  174   2.346   5.023   6.965
    1   AR   Ar  175   2.677   3.206   6.233
    1   AR   Ar  176   3.788   2.664   5.910
    1   AR   Ar  177   6.334   4.903  -0.318
    1   AR   Ar  178   4.089   5.156  -0.223
    1   AR   Ar  179   3.909   5.171   1.035
    1   AR   Ar  180   0.793   1.543  -2.716
    1   AR   Ar  181   0.714   5.942   1.370
    1   AR   Ar  182   2.722   0.542   3.078
    1   AR   Ar  183   3.249   5.246   2.718
    1   AR   Ar  184   4.767   6.462   0.987
    1   AR   Ar  185   2.911   5.168   5.188
    1   AR   Ar  186   3.393   4.294   3.366
    1   AR   Ar  187   3.762   5.994   3.128
    1   AR   Ar  188   3.158   6.380   1.898
    1   AR   Ar  189   3.752   2.796   6.920
    1   AR   Ar  190   4.272   6.420   3.973
    1   AR   Ar  191   3.568   5.658   7.602
    1   AR   Ar  192   4.075   5.952   5.133
    1   AR   Ar  193   2.541   5.988   0.819
    1   AR   Ar  194   4.251   3.599  -1.049
    1   AR   Ar  195   5.360   0.983   0.325
    1   AR   Ar  196   4.647   0.269   0.027
    1   AR   Ar  197   3.890   1.189   1.023
    1   AR   Ar  198   6.054   1.390   1.113
    1   AR   Ar  199   3.515   1.216   3.051
    1   AR   Ar  200   5.321   2.142   0.388
    1   AR   Ar  201   5.269   6.477   3.698
    1   AR   Ar  202   5.633   1.995   4.556
    1   AR   Ar  203   6.603   6.548   3.450
    1   AR   Ar  204   4.944   6.771   4.884
    1   AR   Ar  205   6.852   7.063   2.171
    1   AR   Ar  206   5.070   0.750   4.839
    1   AR   Ar  207   1.158   1.629   7.059
    1   AR   Ar  208   6.947   0.503   3.312
    1   AR   Ar  209   7.054   3.011  -2.443
    1   AR   Ar  210   3.385   0.280  -0.159
    1   AR   Ar  211   6.390   2.783   0.672
    1   AR   Ar  212   6.118   3.359  -1.578
    1   AR   Ar  213   3.208   1.311   1.940
    1   AR   Ar  214   4.236   3.471   2.983
    1   AR   Ar  215   5.650   2.353   1.427
    1   AR   Ar  216   0.767   3.408   1.848
    1   AR   Ar  217   5.040   3.365   4.320
    1   AR   Ar  218   4.399   3.300   5.224
    1   AR   Ar  219   5.149   2.529   3.589
    1   AR   Ar  220   4.450   4.065   1.929
    1   AR   Ar  221   6.090   7.034   5.212
    1   AR   Ar  222   4.107   0.694   6.818
    1   AR   Ar  223   0.122   1.293   7.170
    1   AR   Ar  224   4.665   3.223   6.238
    1   AR   Ar  225   6.452   3.319   2.386
    1   AR   Ar  226   2.388   3.838   3.454
    1   AR   Ar  227   6.463   3.541   1.352
    1   AR   Ar  228   5.726   6.471   1.978
    1   AR   Ar  229   5.548   4.157  -0.735
    1   AR   Ar  230   4.815   4.527   3.690
    1   AR   Ar  231   6.199   1.242   3.275
    1   AR   Ar  232   4.200   2.382   0.569
    1   AR   Ar  233   6.435   2.422   3.350
    1   AR   Ar  234   6.219   3.184   4.324
    1   AR   Ar  235   6.659   1.990   4.823
    1   AR   Ar  236   5.714   5.985   5.499
    1   AR   Ar  237   5.491   3.543   5.179
    1   AR   Ar  238   5.040   4.208   5.901
    1   AR   Ar  239   5.794   4.050   8.169
    1   AR   Ar  240   7.111   3.164   6.802
    1   AR   Ar  241   1.064   6.691  -0.216
    1   AR   Ar  242   5.250   4.666   0.190
    1   AR   Ar  243   5.696   4.513   2.346
    1   AR   Ar  244   0.693   5.192  -0.370
    1   AR   Ar  245   4.959   0.749   1.225
    1   AR   Ar  246   5.364   5.641   0.428
    1   AR   Ar  247   5.601   4.117   0.971
    1   AR   Ar  248   5.534   5.425  -0.589
    1   AR   Ar  249   4.018   5.738   2.157
    1   AR   Ar  250   4.965   5.778   4.597
    1   AR   Ar  251   5.639   5.045   3.745
    1   AR   Ar  252   4.616   5.517   3.423
    1   AR   Ar  253   6.292   3.675   6.015
    1   AR   Ar  254   1.951   3.205   9.468
    1   AR   Ar  255   3.852   3.108   8.404
    1   AR   Ar  256   6.856   5.477   3.649
    7.12000  7.12000 12.00000
Argon-slab step 3120
  256
    1   AR   Ar    1   6.886   1.257  -1.757
    1   AR   Ar    2   6.175   0.418   0.304
    1   AR   Ar    3   2.184   0.635  -0.050
    1   AR   Ar    4   1.216   0.662  -0.475
    1   AR   Ar    5   7.018   6.854   1.019
    1   AR   Ar    6   6.612   1.120   2.324
    1   AR   Ar    7   6.340   3.986   3.259
    1   AR   Ar    8   5.988   0.280   1.325
    1   AR   Ar    9   1.386   7.114   3.143
    1   AR   Ar   10   0.638   0.456   4.060
    1   AR   Ar   11   1.669   6.364   3.824
    1   AR   Ar   12   0.628   1.219   2.568
    1   AR   Ar   13   0.257   0.945   4.890
    1   AR   Ar   14   0.219   2.442   7.421
    1   AR   Ar   15   4.804   0.576   9.755
    1   AR   Ar   16   1.053   0.250   4.970
    1   AR   Ar   17   6.216   1.665  -0.066
    1   AR   Ar   18   6.628   2.907  -0.560
    1   AR   Ar   19   1.769   2.953   1.640
    1   AR   Ar   20   4.636   4.068  -1.835
    1   AR   Ar   21   4.622   1.786   1.451
    1   AR   Ar   22   6.280   2.312   2.167
    1   AR   Ar   23   6.963   0.755  -0.272
    1   AR   Ar   24   6.893   2.219   1.361
    1   AR   Ar   25   0.475   1.441   3.813
    1   AR   Ar   26   5.766   0.330   3.906
    1   AR   Ar   27   1.397   1.036   3.399
    1   AR   Ar   28   0.721   2.064   4.840
    1   AR   Ar   29   5.937   2.878   7.082
    1   AR   Ar   30   1.486   1.469   4.389
    1   AR   Ar   31   2.983   0.527   7.832
    1   AR   Ar   32   1.650   3.219   5.770
    1   AR   Ar   33   0.513   4.171  -0.668
    1   AR   Ar   34   0.229   5.290   2.562
    1   AR   Ar   35   6.225   5.462   1.065
    1   AR   Ar   36   6.650   0.279  -3.835
    1   AR   Ar   37   5.142   1.973   2.292
    1   AR   Ar   38   0.194   4.118   2.380
    1   AR   Ar   39   1.450   3.534   3.091
    1   AR   Ar   40   2.213   3.996   1.174
    1   AR   Ar   41   0.288   3.253   4.036
    1   AR   Ar   42   6.142   5.638   4.551
    1   AR   Ar   43   6.880   2.342   5.848
    1   AR   Ar   44   0.602   4.479   3.375
    1   AR   Ar   45   0.446   3.394   5.792
    1   AR   Ar   46   0.704   5.004   5.796
    1   AR   Ar   47   5.861   3.982   6.938
    1   AR   Ar   48   0.101   5.900   6.820
    1   AR   Ar   49   5.730   0.794  -0.772
    1   AR   Ar   50   5.091   5.102   1.702
    1   AR   Ar   51   6.830   4.618   1.536
    1   AR   Ar   52   5.654   4.919  -1.599
    1   AR   Ar   53   5.504   5.849   2.917
    1   AR   Ar   54   0.381   6.300   2.420
    1   AR   Ar   55   6.431   5.664   2.511
    1   AR   Ar   56   0.240   1.040   0.694
    1   AR   Ar   57   5.410   3.686   3.377
    1   AR   Ar   58   6.615   4.360   4.215
    1   AR   Ar   59   2.343   5.505   6.033
    1   AR   Ar   60   0.560   6.383   3.553
    1   AR   Ar   61   6.808   4.461   6.481
    1   AR   Ar   62   0.369   4.866   4.623
    1   AR   Ar   63   2.349   0.375   6.576
    1   AR   Ar   64   0.737   5.882   4.535
    1   AR   Ar   65   3.663   6.765   0.891
    1   AR   Ar   66   0.957   1.571   1.453
    1   AR   Ar   67   3.117   6.834  -1.405
    1   AR   Ar   68   2.823   1.815  -0.843
    1   AR   Ar   69   2.787   0.999   0.965
    1   AR   Ar   70   0.772   0.264   2.367
    1   AR   Ar   71   2.773   1.324   3.925
    1   AR   Ar   72   3.574   0.329   1.830
    1   AR   Ar   73   3.631   0.294   3.635
    1   AR   Ar   74   2.113   0.247   3.887
    1   AR   Ar   75   3.902   1.214   4.857
    1   AR   Ar   76   1.604   0.859   2.049
    1   AR   Ar   77   2.408   6.529   6.241
    1   AR   Ar   78   0.622   6.966   6.498
    1   AR   Ar   79   3.443   5.990   6.057
    1   AR   Ar   80   3.908   5.137   5.716
    1   AR   Ar   81   2.859   6.446  -0.315
    1   AR   Ar   82   6.591   5.789  -0.775
    1   AR   Ar   83   0.584   2.736   0.187
    1   AR   Ar   84   0.074   3.873   0.743
    1   AR   Ar   85   1.413   3.658   0.768
    1   AR   Ar   86   1.877   4.799  -0.331
    1   AR   Ar   87   1.825   1.702   0.832
    1   AR   Ar   88   2.211   5.009   0.620
    1   AR   Ar   89   0.163   2.623   2.707
    1   AR   Ar   90   2.495   2.531   4.442
    1   AR   Ar   91   1.109   2.033   3.264
    1   AR   Ar   92   1.227   2.656   2.403
    1   AR   Ar   93   2.143   0.462   5.416
    1   AR   Ar   94   0.526   6.622  10.866
    1   AR   Ar   95   3.541   1.610   5.910
    1   AR   Ar   96   2.949   0.423   4.440
    1   AR   Ar   97   5.241   1.795  -0.602
    1   AR   Ar   98   2.242   5.278   2.548
    1   AR   Ar   99   5.913   2.145  -1.218
    1   AR   Ar  100   1.678   3.585  -0.163
    1   AR   Ar  101   3.264   4.316   1.116
    1   AR   Ar  102   3.258   2.537   3.675
    1   AR   Ar  103   1.123   4.742   1.336
    1   AR   Ar  104   2.820   3.146  -1.278
    1   AR   Ar  105   1.650   3.147   4.016
    1   AR   Ar  106   3.386   3.599   5.387
    1   AR   Ar  107   0.932   4.003   4.242
    1   AR   Ar  108   3.555   2.444   4.918
    1   AR   Ar  109   1.775   4.856   4.647
    1   AR   Ar  110   1.263   4.118   6.045
    1   AR   Ar  111   4.986   4.318   7.393
    1   AR   Ar  112   1.409   6.036   6.743
    1   AR   Ar  113   2.946   4.438  -0.430
    1   AR   Ar  114   2.114   6.694  -1.056
    1   AR   Ar  115   2.600   5.567  -0.890
    1   AR   Ar  116   5.715   6.584  -0.819
    1   AR   Ar  117   1.346   5.360   3.809
    1   AR   Ar  118   1.233   5.779   2.761
    1   AR   Ar  119   2.199   2.971   2.599
    1   AR   Ar  120   2.003   6.844   2.352
    1   AR   Ar  121   5.955   4.566   5.543
    1   AR   Ar  122   2.696   6.491   5.021
    1   AR   Ar  123   3.814   4.483   4.864
    1   AR   Ar  124   1.797   5.983   1.624
    1   AR   Ar  125   6.971   4.403   5.467
    1   AR   Ar  126   7.062   6.864   4.462
    1   AR   Ar  127   3.448   4.162   6.268
    1   AR   Ar  128   3.336   5.090   6.759
    1   AR   Ar  129   2.663   6.163   2.818
    1   AR   Ar  130   4.966   2.851  -2.157
    1   AR   Ar  131   4.234   1.316  -0.036
    1   AR   Ar  132   0.091   1.828  -0.594
    1   AR   Ar  133   4.644   6.566   2.780
    1   AR   Ar  134   4.707   1.258   3.942
    1   AR   Ar  135   5.702   0.605   2.412
    1   AR   Ar  136   4.709   6.989   1.913
    1   AR   Ar  137   2.672   5.362   3.559
    1   AR   Ar  138   4.829   1.819   5.591
    1   AR   Ar  139   5.750   2.564   5.636
    1   AR   Ar  140   3.920   7.075   4.839
    1   AR   Ar  141   3.778   5.407   4.311
    1   AR   Ar  142   3.278   0.277   5.992
    1   AR   Ar  143   6.969   0.223   5.707
    1   AR   Ar  144   6.758   1.252   5.742
    1   AR   Ar  145   4.361   3.882   0.009
    1   AR   Ar  146   3.669   2.562   2.129
    1   AR   Ar  147   5.098   1.246  -1.535
    1   AR   Ar  148   3.688   4.331  -1.323
    1   AR   Ar  149   2.945   2.074   1.233
    1   AR   Ar  150   2.188   1.810   2.270
    1   AR   Ar  151   2.277   2.117   3.346
    1   AR   Ar  152   3.408   3.446  -0.431
    1   AR   Ar  153   4.637   0.248   3.872
    1   AR   Ar  154   4.476   2.562   4.533
    1   AR   Ar  155   6.700   0.336   6.997
    1   AR   Ar  156   3.937   3.423   4.230
    1   AR   Ar  157   2.006   3.736   6.769
    1   AR   Ar  158   0.961   2.707   6.670
    1   AR   Ar  159   4.544   1.881   6.920
    1   AR   Ar  160   2.717   1.504   5.152
    1   AR   Ar  161   5.302   3.402   2.252
    1   AR   Ar  162   4.502   6.095  -0.504
    1   AR   Ar  163   4.884   3.337   1.343
    1   AR   Ar  164   2.772   5.369   1.656
    1   AR   Ar  165   3.811   3.322   1.178
    1   AR   Ar  166   2.542   3.648   4.840
    1   AR   Ar  167   4.287   1.086   2.100
    1   AR   Ar  168   5.361   3.072  -0.471
    1   AR   Ar  169   3.315   3.624   2.156
    1   AR   Ar  170   2.352   4.305   5.996
    1   AR   Ar  171   5.654   4.387   4.535
    1   AR   Ar  172   4.767   4.768   4.741
    1   AR   Ar  173   3.012   3.442   7.654
    1   AR   Ar  174   2.362   5.027   6.942
    1   AR   Ar  175   2.664   3.196   6.258
    1   AR   Ar  176   3.791   2.672   5.864
    1   AR   Ar  177   6.349   4.891  -0.315
    1   AR   Ar  178   4.073   5.158  -0.231
    1   AR   Ar  179   3.901   5.178   1.038
    1   AR   Ar  180   0.812   1.538  -2.740
    1   AR   Ar  181   0.709   5.927   1.337
    1   AR   Ar  182   2.704   0.530   3.099
    1   AR   Ar  183   3.252   5.250   2.715
    1   AR   Ar  184   4.781   6.495   1.018
    1   AR   Ar  185   2.939   5.140   5.221
    1   AR   Ar  186   3.337   4.290   3.334
    1   AR   Ar  187   3.768   6.005   3.111
    1   AR   Ar  188   3.180   6.377   1.901
    1   AR   Ar  189   3.772   2.820   6.933
    1   AR   Ar  190   4.284   6.404   3.967
    1   AR   Ar  191   3.557   5.655   7.585
    1   AR   Ar  192   4.072   5.961   5.093
    1   AR   Ar  193   2.529   6.001   0.799
    1   AR   Ar  194   4.262   3.584  -1.061
    1   AR   Ar  195   5.401   0.998   0.347
    1   AR   Ar  196   4.654   0.267  -0.001
    1   AR   Ar  197   3.886   1.181   1.028
    1   AR   Ar  198   6.040   1.380   1.139
    1   AR   Ar  199   3.540   1.234   3.072
    1   AR   Ar  200   5.332   2.177   0.384
    1   AR   Ar  201   5.249   6.462   3.697
    1   AR   Ar  202   5.598   1.994   4.571
    1   AR   Ar  203   6.588   6.541   3.432
    1   AR   Ar  204   4.922   6.769   4.889
    1   AR   Ar  205   6.838   7.077   2.162
    1   AR   Ar  206   5.080   0.768   4.845
    1   AR   Ar  207   1.185   1.641   7.061
    1   AR   Ar  208   6.949   0.454   3.320
    1   AR   Ar  209   7.046   2.986  -2.439
    1   AR   Ar  210   3.406   0.286  -0.161
    1   AR   Ar  211   6.376   2.793   0.662
    1   AR   Ar  212   6.125   3.377  -1.601
    1   AR   Ar  213   3.225   1.315   1.898
    1   AR   Ar  214   4.211   3.484   2.977
    1   AR   Ar  215   5.654   2.357   1.435
    1   AR   Ar  216   0.750   3.390   1.868
    1   AR   Ar  217   5.008   3.354   4.371
    1   AR   Ar  218   4.399   3.304   5.276
    1   AR   Ar  219   5.183   2.537   3.575
    1   AR   Ar  220   4.493   4.051   1.974
    1   AR   Ar  221   6.102   7.066   5.210
    1   AR   Ar  222   4.125   0.678   6.799
    1   AR   Ar  223   0.138   1.327   7.145
    1   AR   Ar  224   4.662   3.235   6.237
    1   AR   Ar  225   6.455   3.348   2.388
    1   AR   Ar  226   2.354   3.789   3.468
    1   AR   Ar  227   6.424   3.526   1.349
    1   AR   Ar  228   5.747   6.481   1.973
    1   AR   Ar  229   5.554   4.149  -0.762
    1   AR   Ar  230   4.790   4.550   3.706
    1   AR   Ar  231   6.170   1.255   3.292
    1   AR   Ar  232   4.227   2.393   0.577
    1   AR   Ar  233   6.412   2.405   3.361
    1   AR   Ar  234   6.241   3.183   4.351
    1   AR   Ar  235   6.651   1.994   4.833
    1   AR   Ar  236   5.724   5.990   5.508
    1   AR   Ar  237   5.509   3.519   5.188
    1   AR   Ar  238   5.032   4.181   5.931
    1   AR   Ar  239   5.794   4.049   8.173
    1   AR   Ar  240   7.082   3.205   6.807
    1   AR   Ar  241   1.100   6.694  -0.223
    1   AR   Ar  242   5.292   4.691   0.180
    1   AR   Ar  243   5.706   4.488   2.385
    1   AR   Ar  244   0.696   5.199  -0.342
    1   AR   Ar  245   4.951   0.768   1.253
    1   AR   Ar  246   5.359   5.668   0.438
    1   AR   Ar  247   5.603   4.106   0.947
    1   AR   Ar  248   5.510   5.438  -0.602
    1   AR   Ar  249   4.039   5.734   2.093
    1   AR   Ar  250   4.964   5.769   4.625
    1   AR   Ar  251   5.636   5.043   3.742
    1   AR   Ar  252   4.610   5.520   3.422
    1   AR   Ar  253   6.271   3.674   6.028
    1   AR   Ar  254   1.952   3.162   9.482
    1   AR   Ar  255   3.876   3.095   8.394
    1   AR   Ar  256   6.854   5.472   3.644
    7.12000  7.12000 12.00000
Argon-slab step 3125
  256
    1   AR   Ar    1   6.943   1.243  -1.734
    1   AR   Ar    2   6.215   0.402   0.291
    1   AR   Ar    3   2.188   0.656  -0.034
    1   AR   Ar    4   1.241   0.638  -0.488
    1   AR   Ar    5   7.012   6.868   1.047
    1   AR   Ar    6   6.575   1.100   2.345
    1   AR   Ar    7   6.335   4.007   3.259
    1   AR   Ar    8   5.979   0.303   1.316
    1   AR   Ar    9   1.421   7.095   3.161
    1   AR   Ar   10   0.654   0.464   4.081
    1   AR   Ar   11   1.656   6.375   3.817
    1   AR   Ar   12   0.608   1.227   2.571
    1   AR   Ar   13   0.284   0.958   4.867
    1   AR   Ar   14   0.206   2.442   7.439
    1   AR   Ar   15   4.796   0.548   9.713
    1   AR   Ar   16   1.065   0.232   4.991
    1   AR   Ar   17   6.180   1.663  -0.038
    1   AR   Ar   18   6.632   2.922  -0.569
    1   AR   Ar   19   1.785   2.961   1.626
    1   AR   Ar   20   4.622   4.052  -1.849
    1   AR   Ar   21   4.607   1.760   1.453
    1   AR   Ar   22   6.299   2.286   2.175
    1   AR   Ar   23   7.006   0.785  -0.263
    1   AR   Ar   24   6.927   2.236   1.377
    1   AR   Ar   25   0.483   1.444   3.769
    1   AR   Ar   26   5.776   0.337   3.882
    1   AR   Ar   27   1.403   1.031   3.367
    1   AR   Ar   28   0.744   2.059   4.865
    1   AR   Ar   29   5.921   2.878   7.074
    1   AR   Ar   30   1.482   1.482   4.376
    1   AR   Ar   31   3.043   0.535   7.817
    1   AR   Ar   32   1.644   3.185   5.791
    1   AR   Ar   33   0.517   4.155  -0.691
    1   AR   Ar   34   0.215   5.294   2.551
    1   AR   Ar   35   6.211   5.463   1.073
    1   AR   Ar   36   6.636   0.265  -3.817
    1   AR   Ar   37   5.148   1.978   2.294
    1   AR   Ar   38   0.199   4.108   2.348
    1   AR   Ar   39   1.487   3.537   3.068
    1   AR   Ar   40   2.233   4.023   1.192
    1   AR   Ar   41   0.271   3.234   4.029
    1   AR   Ar   42   6.093   5.646   4.569
    1   AR   Ar   43   6.866   2.359   5.843
    1   AR   Ar   44   0.596   4.500   3.356
    1   AR   Ar   45   0.452   3.387   5.789
    1   AR   Ar   46   0.692   4.981   5.798
    1   AR   Ar   47   5.836   3.972   6.927
    1   AR   Ar   48   0.094   5.911   6.810
    1   AR   Ar   49   5.732   0.808  -0.769
    1   AR   Ar   50   5.072   5.116   1.693
    1   AR   Ar   51   6.820   4.612   1.519
    1   AR   Ar   52   5.660   4.921  -1.614
    1   AR   Ar   53   5.503   5.883   2.911
    1   AR   Ar   54   0.375   6.297   2.435
    1   AR   Ar   55   6.423   5.682   2.504
    1   AR   Ar   56   0.226   1.052   0.689
    1   AR   Ar   57   5.411   3.678   3.382
    1   AR   Ar   58   6.577   4.316   4.188
    1   AR   Ar   59   2.342   5.515   6.018
    1   AR   Ar   60   0.581   6.372   3.552
    1   AR   Ar   61   6.820   4.418   6.501
    1   AR   Ar   62   0.338   4.887   4.590
    1   AR   Ar   63   2.357   0.424   6.571
    1   AR   Ar   64   0.748   5.888   4.578
    1   AR   Ar   65   3.679   6.739   0.909
    1   AR   Ar   66   0.945   1.569   1.461
    1   AR   Ar   67   3.106   6.829  -1.410
    1   AR   Ar   68   2.836   1.810  -0.847
    1   AR   Ar   69   2.784   0.988   0.979
    1   AR   Ar   70   0.781   0.218   2.389
    1   AR   Ar   71   2.781   1.333   3.911
    1   AR   Ar   72   3.620   0.334   1.818
    1   AR   Ar   73   3.620   0.284   3.621
    1   AR   Ar   74   2.094   0.245   3.905
    1   AR   Ar   75   3.888   1.191   4.864
    1   AR   Ar   76   1.621   0.868   2.061
    1   AR   Ar   77   2.400   6.525   6.226
    1   AR   Ar   78   0.614   6.944   6.493
    1   AR   Ar   79   3.394   5.998   6.051
    1   AR   Ar   80   3.937   5.120   5.690
    1   AR   Ar   81   2.863   6.457  -0.282
    1   AR   Ar   82   6.553   5.791  -0.795
    1   AR   Ar   83   0.591   2.716   0.168
    1   AR   Ar   84   0.079   3.893   0.791
    1   AR   Ar   85   1.430   3.627   0.781
    1   AR   Ar   86   1.879   4.778  -0.335
    1   AR   Ar   87   1.794   1.750   0.825
    1   AR   Ar   88   2.217   5.008   0.623
    1   AR   Ar   89   0.163   2.632   2.730
    1   AR   Ar   90   2.503   2.511   4.442
    1   AR   Ar   91   1.089   1.994   3.265
    1   AR   Ar   92   1.243   2.647   2.425
    1   AR   Ar   93   2.144   0.497   5.440
    1   AR   Ar   94   0.531   6.661  10.912
    1   AR   Ar   95   3.515   1.586   5.945
    1   AR   Ar   96   2.950   0.421   4.426
    1   AR   Ar   97   5.260   1.810  -0.614
    1   AR   Ar   98   2.238   5.299   2.502
    1   AR   Ar   99   5.900   2.151  -1.212
    1   AR   Ar  100   1.664   3.610  -0.170
    1   AR   Ar  101   3.308   4.355   1.100
    1   AR   Ar  102   3.259   2.519   3.659
    1   AR   Ar  103   1.096   4.774   1.303
    1   AR   Ar  104   2.830   3.174  -1.281
    1   AR   Ar  105   1.646   3.113   3.988
    1   AR   Ar  106   3.408   3.589   5.388
    1   AR   Ar  107   0.914   4.013   4.219
    1   AR   Ar  108   3.544   2.459   4.923
    1   AR   Ar  109   1.784   4.874   4.666
    1   AR   Ar  110   1.280   4.110   6.005
    1   AR   Ar  111   4.995   4.322   7.404
    1   AR   Ar  112   1.427   6.074   6.715
    1   AR   Ar  113   2.960   4.398  -0.434
    1   AR   Ar  114   2.106   6.707  -1.061
    1   AR   Ar  115   2.573   5.536  -0.901
    1   AR   Ar  116   5.697   6.583  -0.812
    1   AR   Ar  117   1.352   5.377   3.803
    1   AR   Ar  118   1.240   5.760   2.802
    1   AR   Ar  119   2.211   3.001   2.585
    1   AR   Ar  120   2.014   6.833   2.330
    1   AR   Ar  121   5.955   4.568   5.570
    1   AR   Ar  122   2.723   6.492   5.003
    1   AR   Ar  123   3.816   4.460   4.878
    1   AR   Ar  124   1.805   5.980   1.652
    1   AR   Ar  125   6.959   4.398   5.482
    1   AR   Ar  126   7.053   6.849   4.458
    1   AR   Ar  127   3.416   4.155   6.269
    1   AR   Ar  128   3.356   5.125   6.763
    1   AR   Ar  129   2.663   6.162   2.844
    1   AR   Ar  130   4.926   2.868  -2.172
    1   AR   Ar  131   4.209   1.323  -0.024
    1   AR   Ar  132   0.072   1.845  -0.584
    1   AR   Ar  133   4.663   6.563   2.791
    1   AR   Ar  134   4.671   1.266   3.963
    1   AR   Ar  135   5.705   0.626   2.398
    1   AR   Ar  136   4.717   7.029   1.931
    1   AR   Ar  137   2.655   5.349   3.580
    1   AR   Ar  138   4.848   1.821   5.597
    1   AR   Ar  139   5.748   2.549   5.631
    1   AR   Ar  140   3.917   7.079   4.854
    1   AR   Ar  141   3.797   5.394   4.294
    1   AR   Ar  142   3.287   0.288   5.981
    1   AR   Ar  143   6.936   0.219   5.677
    1   AR   Ar  144   6.771   1.246   5.742
    1   AR   Ar  145   4.374   3.884   0.028
    1   AR   Ar  146   3.679   2.582   2.125
    1   AR   Ar  147   5.105   1.233  -1.551
    1   AR   Ar  148   3.724   4.320  -1.331
    1   AR   Ar  149   2.938   2.066   1.200
    1   AR   Ar  150   2.192   1.852   2.242
    1   AR   Ar  151   2.304   2.113   3.365
    1   AR   Ar  152   3.378   3.442  -0.431
    1   AR   Ar  153   4.670   0.240   3.848
    1   AR   Ar  154   4.496   2.527   4.558
    1   AR   Ar  155   6.690   0.343   7.002
    1   AR   Ar  156   3.945   3.431   4.213
    1   AR   Ar  157   1.996   3.742   6.765
    1   AR   Ar  158   0.966   2.683   6.680
    1   AR   Ar  159   4.549   1.889   6.912
    1   AR   Ar  160   2.716   1.505   5.146
    1   AR   Ar  161   5.292   3.393   2.223
    1   AR   Ar  162   4.491   6.115  -0.533
    1   AR   Ar  163   4.888   3.361   1.356
    1   AR   Ar  164   2.747   5.377   1.618
    1   AR   Ar  165   3.787   3.298   1.197
    1   AR   Ar  166   2.543   3.649   4.813
    1   AR   Ar  167   4.311   1.074   2.131
    1   AR   Ar  168   5.379   3.057  -0.469
    1   AR   Ar  169   3.297   3.601   2.124
    1   AR   Ar  170   2.352   4.304   5.963
    1   AR   Ar  171   5.658   4.376   4.538
    1   AR   Ar  172   4.783   4.752   4.751
    1   AR   Ar  173   3.004   3.467   7.655
    1   AR   Ar  174   2.369   5.026   6.924
    1   AR   Ar  175   2.661   3.182   6.276
    1   AR   Ar  176   3.796   2.682   5.827
    1   AR   Ar  177   6.366   4.873  -0.308
    1   AR   Ar  178   4.058   5.157  -0.238
    1   AR   Ar  179   3.895   5.189   1.041
    1   AR   Ar  180   0.830   1.533  -2.764
    1   AR   Ar  181   0.704   5.912   1.305
    1   AR   Ar  182   2.686   0.519   3.114
    1   AR   Ar  183   3.259   5.246   2.704
    1   AR   Ar  184   4.796   6.526   1.044
    1   AR   Ar  185   2.969   5.111   5.253
    1   AR   Ar  186   3.283   4.285   3.303
    1   AR   Ar  187   3.771   6.026   3.097
    1   AR   Ar  188   3.201   6.375   1.902
    1   AR   Ar  189   3.792   2.844   6.947
    1   AR   Ar  190   4.287   6.384   3.967
    1   AR   Ar  191   3.544   5.658   7.564
    1   AR   Ar  192   4.067   5.980   5.059
    1   AR   Ar  193   2.519   6.018   0.778
    1   AR   Ar  194   4.272   3.568  -1.044
    1   AR   Ar  195   5.403   0.993   0.334
    1   AR   Ar  196   4.660   0.265  -0.028
    1   AR   Ar  197   3.880   1.170   1.030
    1   AR   Ar  198   6.027   1.371   1.164
    1   AR   Ar  199   3.566   1.254   3.091
    1   AR   Ar  200   5.345   2.211   0.383
    1   AR   Ar  201   5.237   6.449   3.699
    1   AR   Ar  202   5.559   1.994   4.585
    1   AR   Ar  203   6.572   6.532   3.413
    1   AR   Ar  204   4.899   6.775   4.888
    1   AR   Ar  205   6.820   7.093   2.153
    1   AR   Ar  206   5.089   0.786   4.852
    1   AR   Ar  207   1.213   1.654   7.064
    1   AR   Ar  208   6.952   0.406   3.327
    1   AR   Ar  209   7.038   2.961  -2.433
    1   AR   Ar  210   3.427   0.293  -0.162
    1   AR   Ar  211   6.359   2.798   0.641
    1   AR   Ar  212   6.130   3.393  -1.622
    1   AR   Ar  213   3.240   1.320   1.862
    1   AR   Ar  214   4.187   3.497   2.972
    1   AR   Ar  215   5.647   2.364   1.428
    1   AR   Ar  216   0.730   3.375   1.884
    1   AR   Ar  217   4.979   3.356   4.405
    1   AR   Ar  218   4.400   3.312   5.319
    1   AR   Ar  219   5.217   2.545   3.563
    1   AR   Ar  220   4.532   4.042   2.021
    1   AR   Ar  221   6.109   7.095   5.203
    1   AR   Ar  222   4.142   0.663   6.779
    1   AR   Ar  223   0.153   1.361   7.119
    1   AR   Ar  224   4.661   3.245   6.246
    1   AR   Ar  225   6.459   3.377   2.392
    1   AR   Ar  226   2.327   3.741   3.484
    1   AR   Ar  227   6.383   3.514   1.354
    1   AR   Ar  228   5.767   6.462   1.973
    1   AR   Ar  229   5.560   4.142  -0.789
    1   AR   Ar  230   4.753   4.560   3.722
    1   AR   Ar  231   6.139   1.268   3.310
    1   AR   Ar  232   4.255   2.404   0.587
    1   AR   Ar  233   6.388   2.388   3.372
    1   AR   Ar  234   6.262   3.183   4.378
    1   AR   Ar  235   6.645   1.998   4.842
    1   AR   Ar  236   5.733   5.995   5.516
    1   AR   Ar  237   5.535   3.498   5.210
    1   AR   Ar  238   5.022   4.157   5.961
    1   AR   Ar  239   5.790   4.067   8.162
    1   AR   Ar  240   7.048   3.252   6.806
    1   AR   Ar  241   1.132   6.699  -0.234
    1   AR   Ar  242   5.331   4.713   0.162
    1   AR   Ar  243   5.703   4.489   2.400
    1   AR   Ar  244   0.699   5.208  -0.314
    1   AR   Ar  245   4.942   0.784   1.285
    1   AR   Ar  246   5.352   5.704   0.450
    1   AR   Ar  247   5.607   4.093   0.929
    1   AR   Ar  248   5.483   5.454  -0.618
    1   AR   Ar  249   4.063   5.730   2.027
    1   AR   Ar  250   4.969   5.759   4.647
    1   AR   Ar  251   5.645   5.051   3.735
    1   AR   Ar  252   4.608   5.524   3.423
    1   AR   Ar  253   6.251   3.666   6.037
    1   AR   Ar  254   1.953   3.119   9.495
    1   AR   Ar  255   3.900   3.082   8.383
    1   AR   Ar  256   6.853   5.465   3.638
    7.12000  7.12000 12.00000
Argon-slab step 3130
  256
    1   AR   Ar    1   7.001   1.231  -1.710
    1   AR   Ar    2   6.259   0.381   0.277
    1   AR   Ar    3   2.187   0.644  -0.047
    1   AR   Ar    4   1.263   0.616  -0.503
    1   AR   Ar    5   7.006   6.850   1.064
    1   AR   Ar    6   6.550   1.085   2.363
    1   AR   Ar    7   6.320   4.038   3.252
    1   AR   Ar    8   5.965   0.333   1.324
    1   AR   Ar    9   1.451   7.079   3.176
    1   AR   Ar   10   0.673   0.465   4.089
    1   AR   Ar   11   1.645   6.381   3.815
    1   AR   Ar   12   0.588   1.240   2.576
    1   AR   Ar   13   0.305   0.977   4.851
    1   AR   Ar   14   0.193   2.439   7.458
    1   AR   Ar   15   4.788   0.521   9.672
    1   AR   Ar   16   1.081   0.212   5.017
    1   AR   Ar   17   6.148   1.660  -0.011
    1   AR   Ar   18   6.634   2.935  -0.579
    1   AR   Ar   19   1.803   2.970   1.603
    1   AR   Ar   20   4.603   4.051  -1.848
    1   AR   Ar   21   4.595   1.745   1.447
    1   AR   Ar   22   6.322   2.258   2.196
    1   AR   Ar   23   7.050   0.816  -0.260
    1   AR   Ar   24   6.966   2.251   1.389
    1   AR   Ar   25   0.478   1.440   3.735
    1   AR   Ar   26   5.787   0.344   3.859
    1   AR   Ar   27   1.412   1.019   3.334
    1   AR   Ar   28   0.763   2.056   4.891
    1   AR   Ar   29   5.905   2.879   7.064
    1   AR   Ar   30   1.501   1.500   4.369
    1   AR   Ar   31   3.104   0.544   7.800
    1   AR   Ar   32   1.640   3.147   5.811
    1   AR   Ar   33   0.531   4.135  -0.704
    1   AR   Ar   34   0.211   5.288   2.541
    1   AR   Ar   35   6.201   5.453   1.077
    1   AR   Ar   36   6.623   0.251  -3.798
    1   AR   Ar   37   5.153   1.995   2.286
    1   AR   Ar   38   0.200   4.104   2.319
    1   AR   Ar   39   1.501   3.541   3.034
    1   AR   Ar   40   2.262   4.054   1.216
    1   AR   Ar   41   0.250   3.212   4.021
    1   AR   Ar   42   6.046   5.653   4.585
    1   AR   Ar   43   6.853   2.379   5.841
    1   AR   Ar   44   0.587   4.524   3.334
    1   AR   Ar   45   0.457   3.380   5.787
    1   AR   Ar   46   0.680   4.960   5.799
    1   AR   Ar   47   5.814   3.963   6.917
    1   AR   Ar   48   0.089   5.922   6.798
    1   AR   Ar   49   5.736   0.821  -0.762
    1   AR   Ar   50   5.051   5.130   1.709
    1   AR   Ar   51   6.808   4.606   1.503
    1   AR   Ar   52   5.667   4.922  -1.627
    1   AR   Ar   53   5.501   5.909   2.909
    1   AR   Ar   54   0.370   6.298   2.449
    1   AR   Ar   55   6.412   5.704   2.496
    1   AR   Ar   56   0.212   1.066   0.687
    1   AR   Ar   57   5.417   3.680   3.415
    1   AR   Ar   58   6.553   4.274   4.165
    1   AR   Ar   59   2.340   5.523   6.000
    1   AR   Ar   60   0.601   6.361   3.549
    1   AR   Ar   61   6.833   4.376   6.527
    1   AR   Ar   62   0.306   4.908   4.556
    1   AR   Ar   63   2.365   0.475   6.565
    1   AR   Ar   64   0.760   5.896   4.620
    1   AR   Ar   65   3.695   6.713   0.928
    1   AR   Ar   66   0.932   1.566   1.471
    1   AR   Ar   67   3.098   6.823  -1.414
    1   AR   Ar   68   2.849   1.805  -0.850
    1   AR   Ar   69   2.778   0.974   0.990
    1   AR   Ar   70   0.787   0.168   2.407
    1   AR   Ar   71   2.790   1.343   3.899
    1   AR   Ar   72   3.666   0.333   1.804
    1   AR   Ar   73   3.611   0.272   3.607
    1   AR   Ar   74   2.068   0.235   3.930
    1   AR   Ar   75   3.875   1.167   4.870
    1   AR   Ar   76   1.638   0.877   2.075
    1   AR   Ar   77   2.393   6.525   6.210
    1   AR   Ar   78   0.604   6.922   6.489
    1   AR   Ar   79   3.344   6.008   6.043
    1   AR   Ar   80   3.969   5.101   5.668
    1   AR   Ar   81   2.867   6.467  -0.248
    1   AR   Ar   82   6.524   5.793  -0.807
    1   AR   Ar   83   0.596   2.698   0.150
    1   AR   Ar   84   0.088   3.913   0.837
    1   AR   Ar   85   1.431   3.592   0.803
    1   AR   Ar   86   1.879   4.767  -0.317
    1   AR   Ar   87   1.766   1.798   0.817
    1   AR   Ar   88   2.225   5.005   0.631
    1   AR   Ar   89   0.179   2.651   2.765
    1   AR   Ar   90   2.510   2.491   4.443
    1   AR   Ar   91   1.079   1.972   3.256
    1   AR   Ar   92   1.254   2.631   2.453
    1   AR   Ar   93   2.146   0.530   5.462
    1   AR   Ar   94   0.536   6.700  10.958
    1   AR   Ar   95   3.490   1.561   5.980
    1   AR   Ar   96   2.955   0.418   4.421
    1   AR   Ar   97   5.259   1.816  -0.610
    1   AR   Ar   98   2.224   5.315   2.458
    1   AR   Ar   99   5.881   2.158  -1.244
    1   AR   Ar  100   1.654   3.635  -0.190
    1   AR   Ar  101   3.328   4.337   1.078
    1   AR   Ar  102   3.262   2.502   3.644
    1   AR   Ar  103   1.069   4.806   1.270
    1   AR   Ar  104   2.839   3.201  -1.286
    1   AR   Ar  105   1.626   3.163   4.034
    1   AR   Ar  106   3.427   3.577   5.387
    1   AR   Ar  107   0.903   4.025   4.200
    1   AR   Ar  108   3.518   2.480   4.911
    1   AR   Ar  109   1.793   4.890   4.686
    1   AR   Ar  110   1.296   4.106   5.967
    1   AR   Ar  111   5.000   4.327   7.417
    1   AR   Ar  112   1.446   6.111   6.686
    1   AR   Ar  113   2.972   4.363  -0.438
    1   AR   Ar  114   2.096   6.720  -1.063
    1   AR   Ar  115   2.543   5.498  -0.911
    1   AR   Ar  116   5.678   6.582  -0.803
    1   AR   Ar  117   1.346   5.368   3.794
    1   AR   Ar  118   1.249   5.743   2.842
    1   AR   Ar  119   2.232   3.029   2.573
    1   AR   Ar  120   2.024   6.824   2.305
    1   AR   Ar  121   5.949   4.573   5.596
    1   AR   Ar  122   2.751   6.494   4.987
    1   AR   Ar  123   3.812   4.433   4.889
    1   AR   Ar  124   1.813   5.975   1.681
    1   AR   Ar  125   6.953   4.390   5.490
    1   AR   Ar  126   7.049   6.834   4.450
    1   AR   Ar  127   3.384   4.149   6.271
    1   AR   Ar  128   3.380   5.155   6.754
    1   AR   Ar  129   2.666   6.166   2.874
    1   AR   Ar  130   4.886   2.886  -2.186
    1   AR   Ar  131   4.185   1.331  -0.012
    1   AR   Ar  132   0.052   1.862  -0.572
    1   AR   Ar  133   4.679   6.554   2.812
    1   AR   Ar  134   4.647   1.268   3.973
    1   AR   Ar  135   5.698   0.641   2.384
    1   AR   Ar  136   4.736   7.048   1.941
    1   AR   Ar  137   2.637   5.335   3.604
    1   AR   Ar  138   4.867   1.823   5.601
    1   AR   Ar  139   5.761   2.553   5.620
    1   AR   Ar  140   3.909   7.086   4.868
    1   AR   Ar  141   3.822   5.357   4.270
    1   AR   Ar  142   3.291   0.288   5.989
    1   AR   Ar  143   6.904   0.219   5.655
    1   AR   Ar  144   6.783   1.244   5.742
    1   AR   Ar  145   4.395   3.889   0.047
    1   AR   Ar  146   3.689   2.600   2.121
    1   AR   Ar  147   5.112   1.221  -1.567
    1   AR   Ar  148   3.750   4.322  -1.341
    1   AR   Ar  149   2.931   2.061   1.165
    1   AR   Ar  150   2.195   1.896   2.214
    1   AR   Ar  151   2.326   2.111   3.382
    1   AR   Ar  152   3.353   3.436  -0.426
    1   AR   Ar  153   4.693   0.200   3.827
    1   AR   Ar  154   4.516   2.477   4.584
    1   AR   Ar  155   6.680   0.347   7.004
    1   AR   Ar  156   3.949   3.439   4.196
    1   AR   Ar  157   1.989   3.729   6.777
    1   AR   Ar  158   0.970   2.661   6.687
    1   AR   Ar  159   4.559   1.907   6.901
    1   AR   Ar  160   2.717   1.506   5.138
    1   AR   Ar  161   5.297   3.380   2.213
    1   AR   Ar  162   4.481   6.137  -0.561
    1   AR   Ar  163   4.886   3.378   1.346
    1   AR   Ar  164   2.727   5.384   1.576
    1   AR   Ar  165   3.764   3.274   1.215
    1   AR   Ar  166   2.539   3.650   4.783
    1   AR   Ar  167   4.334   1.058   2.168
    1   AR   Ar  168   5.397   3.041  -0.467
    1   AR   Ar  169   3.278   3.580   2.093
    1   AR   Ar  170   2.350   4.291   5.945
    1   AR   Ar  171   5.662   4.357   4.543
    1   AR   Ar  172   4.791   4.738   4.767
    1   AR   Ar  173   2.998   3.492   7.655
    1   AR   Ar  174   2.367   5.022   6.911
    1   AR   Ar  175   2.666   3.163   6.288
    1   AR   Ar  176   3.801   2.688   5.811
    1   AR   Ar  177   6.382   4.851  -0.300
    1   AR   Ar  178   4.042   5.153  -0.245
    1   AR   Ar  179   3.900   5.206   1.034
    1   AR   Ar  180   0.848   1.529  -2.788
    1   AR   Ar  181   0.698   5.896   1.274
    1   AR   Ar  182   2.669   0.510   3.124
    1   AR   Ar  183   3.268   5.235   2.688
    1   AR   Ar  184   4.812   6.554   1.065
    1   AR   Ar  185   2.998   5.082   5.283
    1   AR   Ar  186   3.254   4.267   3.306
    1   AR   Ar  187   3.770   6.054   3.084
    1   AR   Ar  188   3.221   6.373   1.903
    1   AR   Ar  189   3.812   2.868   6.960
    1   AR   Ar  190   4.278   6.363   3.974
    1   AR   Ar  191   3.532   5.668   7.554
    1   AR   Ar  192   4.057   6.006   5.033
    1   AR   Ar  193   2.511   6.038   0.755
    1   AR   Ar  194   4.271   3.578  -1.028
    1   AR   Ar  195   5.398   0.994   0.320
    1   AR   Ar  196   4.666   0.261  -0.054
    1   AR   Ar  197   3.873   1.156   1.030
    1   AR   Ar  198   6.014   1.363   1.190
    1   AR   Ar  199   3.592   1.274   3.109
    1   AR   Ar  200   5.357   2.246   0.384
    1   AR   Ar  201   5.236   6.440   3.708
    1   AR   Ar  202   5.518   1.995   4.600
    1   AR   Ar  203   6.554   6.521   3.393
    1   AR   Ar  204   4.883   6.783   4.887
    1   AR   Ar  205   6.800   7.111   2.144
    1   AR   Ar  206   5.099   0.803   4.858
    1   AR   Ar  207   1.240   1.668   7.066
    1   AR   Ar  208   6.956   0.360   3.331
    1   AR   Ar  209   7.029   2.935  -2.426
    1   AR   Ar  210   3.449   0.301  -0.162
    1   AR   Ar  211   6.341   2.797   0.614
    1   AR   Ar  212   6.135   3.409  -1.642
    1   AR   Ar  213   3.255   1.328   1.835
    1   AR   Ar  214   4.163   3.511   2.966
    1   AR   Ar  215   5.634   2.375   1.412
    1   AR   Ar  216   0.712   3.357   1.894
    1   AR   Ar  217   4.958   3.370   4.426
    1   AR   Ar  218   4.405   3.326   5.342
    1   AR   Ar  219   5.213   2.546   3.564
    1   AR   Ar  220   4.563   4.042   2.072
    1   AR   Ar  221   6.105   0.001   5.188
    1   AR   Ar  222   4.157   0.649   6.758
    1   AR   Ar  223   0.165   1.378   7.102
    1   AR   Ar  224   4.659   3.248   6.263
    1   AR   Ar  225   6.462   3.405   2.398
    1   AR   Ar  226   2.319   3.699   3.507
    1   AR   Ar  227   6.342   3.505   1.365
    1   AR   Ar  228   5.786   6.444   1.974
    1   AR   Ar  229   5.558   4.138  -0.819
    1   AR   Ar  230   4.712   4.559   3.737
    1   AR   Ar  231   6.108   1.282   3.330
    1   AR   Ar  232   4.283   2.415   0.597
    1   AR   Ar  233   6.363   2.373   3.383
    1   AR   Ar  234   6.282   3.183   4.403
    1   AR   Ar  235   6.639   2.001   4.850
    1   AR   Ar  236   5.735   5.982   5.524
    1   AR   Ar  237   5.566   3.482   5.240
    1   AR   Ar  238   5.014   4.137   5.988
    1   AR   Ar  239   5.795   4.082   8.165
    1   AR   Ar  240   7.013   3.301   6.801
    1   AR   Ar  241   1.146   6.709  -0.256
    1   AR   Ar  242   5.367   4.732   0.140
    1   AR   Ar  243   5.692   4.506   2.400
    1   AR   Ar  244   0.703   5.216  -0.285
    1   AR   Ar  245   4.934   0.797   1.316
    1   AR   Ar  246   5.343   5.744   0.463
    1   AR   Ar  247   5.626   4.101   0.945
    1   AR   Ar  248   5.455   5.471  -0.635
    1   AR   Ar  249   4.084   5.721   1.973
    1   AR   Ar  250   4.981   5.748   4.663
    1   AR   Ar  251   5.660   5.064   3.725
    1   AR   Ar  252   4.610   5.531   3.425
    1   AR   Ar  253   6.233   3.650   6.042
    1   AR   Ar  254   1.954   3.075   9.508
    1   AR   Ar  255   3.923   3.070   8.371
    1   AR   Ar  256   6.851   5.458   3.632
    7.12000  7.12000 12.00000
Argon-slab step 3135
  256
    1   AR   Ar    1   7.058   1.219  -1.685
    1   AR   Ar    2   6.303   0.358   0.264
    1   AR   Ar    3   2.204   0.650  -0.066
    1   AR   Ar    4   1.280   0.602  -0.510
    1   AR   Ar    5   7.003   6.839   1.062
    1   AR   Ar    6   6.542   1.080   2.379
    1   AR   Ar    7   6.313   4.073   3.230
    1   AR   Ar    8   5.951   0.358   1.334
    1   AR   Ar    9   1.475   7.071   3.178
    1   AR   Ar   10   0.698   0.458   4.084
    1   AR   Ar   11   1.639   6.375   3.825
    1   AR   Ar   12   0.568   1.253   2.581
    1   AR   Ar   13   0.321   1.004   4.843
    1   AR   Ar   14   0.181   2.436   7.477
    1   AR   Ar   15   4.780   0.493   9.630
    1   AR   Ar   16   1.099   0.190   5.045
    1   AR   Ar   17   6.121   1.657   0.015
    1   AR   Ar   18   6.635   2.947  -0.587
    1   AR   Ar   19   1.822   2.979   1.578
    1   AR   Ar   20   4.574   4.066  -1.821
    1   AR   Ar   21   4.585   1.744   1.436
    1   AR   Ar   22   6.343   2.230   2.225
    1   AR   Ar   23   7.094   0.847  -0.265
    1   AR   Ar   24   7.007   2.266   1.397
    1   AR   Ar   25   0.451   1.422   3.716
    1   AR   Ar   26   5.798   0.350   3.836
    1   AR   Ar   27   1.425   1.002   3.302
    1   AR   Ar   28   0.778   2.053   4.918
    1   AR   Ar   29   5.891   2.879   7.053
    1   AR   Ar   30   1.522   1.515   4.360
    1   AR   Ar   31   3.164   0.552   7.783
    1   AR   Ar   32   1.637   3.105   5.830
    1   AR   Ar   33   0.544   4.115  -0.716
    1   AR   Ar   34   0.213   5.272   2.533
    1   AR   Ar   35   6.192   5.444   1.082
    1   AR   Ar   36   6.609   0.237  -3.780
    1   AR   Ar   37   5.158   2.011   2.282
    1   AR   Ar   38   0.197   4.107   2.296
    1   AR   Ar   39   1.490   3.548   2.993
    1   AR   Ar   40   2.296   4.087   1.242
    1   AR   Ar   41   0.227   3.187   4.011
    1   AR   Ar   42   6.002   5.658   4.596
    1   AR   Ar   43   6.842   2.401   5.840
    1   AR   Ar   44   0.577   4.551   3.310
    1   AR   Ar   45   0.460   3.373   5.785
    1   AR   Ar   46   0.667   4.941   5.800
    1   AR   Ar   47   5.795   3.953   6.909
    1   AR   Ar   48   0.085   5.933   6.786
    1   AR   Ar   49   5.741   0.833  -0.753
    1   AR   Ar   50   5.027   5.144   1.740
    1   AR   Ar   51   6.793   4.602   1.489
    1   AR   Ar   52   5.673   4.924  -1.638
    1   AR   Ar   53   5.497   5.918   2.933
    1   AR   Ar   54   0.364   6.304   2.464
    1   AR   Ar   55   6.400   5.727   2.486
    1   AR   Ar   56   0.199   1.082   0.692
    1   AR   Ar   57   5.412   3.679   3.450
    1   AR   Ar   58   6.547   4.236   4.150
    1   AR   Ar   59   2.336   5.527   5.978
    1   AR   Ar   60   0.619   6.351   3.547
    1   AR   Ar   61   6.846   4.336   6.557
    1   AR   Ar   62   0.274   4.928   4.521
    1   AR   Ar   63   2.374   0.526   6.561
    1   AR   Ar   64   0.772   5.905   4.660
    1   AR   Ar   65   3.710   6.687   0.946
    1   AR   Ar   66   0.916   1.564   1.483
    1   AR   Ar   67   3.091   6.817  -1.416
    1   AR   Ar   68   2.862   1.800  -0.853
    1   AR   Ar   69   2.769   0.958   0.997
    1   AR   Ar   70   0.792   0.121   2.422
    1   AR   Ar   71   2.800   1.351   3.888
    1   AR   Ar   72   3.711   0.329   1.788
    1   AR   Ar   73   3.604   0.259   3.592
    1   AR   Ar   74   2.039   0.228   3.962
    1   AR   Ar   75   3.861   1.143   4.876
    1   AR   Ar   76   1.655   0.887   2.091
    1   AR   Ar   77   2.386   6.531   6.193
    1   AR   Ar   78   0.594   6.899   6.483
    1   AR   Ar   79   3.295   6.016   6.033
    1   AR   Ar   80   4.005   5.084   5.651
    1   AR   Ar   81   2.871   6.478  -0.215
    1   AR   Ar   82   6.508   5.794  -0.805
    1   AR   Ar   83   0.601   2.679   0.131
    1   AR   Ar   84   0.100   3.929   0.881
    1   AR   Ar   85   1.425   3.557   0.829
    1   AR   Ar   86   1.877   4.762  -0.286
    1   AR   Ar   87   1.740   1.847   0.810
    1   AR   Ar   88   2.234   5.001   0.642
    1   AR   Ar   89   0.194   2.669   2.799
    1   AR   Ar   90   2.516   2.471   4.444
    1   AR   Ar   91   1.087   1.967   3.264
    1   AR   Ar   92   1.263   2.617   2.447
    1   AR   Ar   93   2.149   0.563   5.483
    1   AR   Ar   94   0.541   6.739  11.004
    1   AR   Ar   95   3.466   1.536   6.013
    1   AR   Ar   96   2.969   0.429   4.434
    1   AR   Ar   97   5.242   1.813  -0.591
    1   AR   Ar   98   2.204   5.327   2.420
    1   AR   Ar   99   5.877   2.173  -1.290
    1   AR   Ar  100   1.644   3.662  -0.217
    1   AR   Ar  101   3.346   4.316   1.056
    1   AR   Ar  102   3.270   2.486   3.629
    1   AR   Ar  103   1.043   4.836   1.238
    1   AR   Ar  104   2.847   3.227  -1.294
    1   AR   Ar  105   1.602   3.209   4.084
    1   AR   Ar  106   3.438   3.565   5.386
    1   AR   Ar  107   0.895   4.038   4.184
    1   AR   Ar  108   3.484   2.498   4.884
    1   AR   Ar  109   1.802   4.906   4.708
    1   AR   Ar  110   1.308   4.105   5.930
    1   AR   Ar  111   4.999   4.334   7.431
    1   AR   Ar  112   1.464   6.148   6.655
    1   AR   Ar  113   2.981   4.337  -0.441
    1   AR   Ar  114   2.083   6.732  -1.063
    1   AR   Ar  115   2.514   5.460  -0.919
    1   AR   Ar  116   5.658   6.580  -0.793
    1   AR   Ar  117   1.339   5.366   3.791
    1   AR   Ar  118   1.258   5.729   2.878
    1   AR   Ar  119   2.262   3.047   2.562
    1   AR   Ar  120   2.036   6.817   2.280
    1   AR   Ar  121   5.938   4.581   5.622
    1   AR   Ar  122   2.780   6.497   4.971
    1   AR   Ar  123   3.805   4.401   4.896
    1   AR   Ar  124   1.819   5.969   1.709
    1   AR   Ar  125   6.951   4.378   5.493
    1   AR   Ar  126   7.071   6.820   4.429
    1   AR   Ar  127   3.353   4.144   6.275
    1   AR   Ar  128   3.406   5.175   6.727
    1   AR   Ar  129   2.670   6.173   2.905
    1   AR   Ar  130   4.847   2.905  -2.198
    1   AR   Ar  131   4.164   1.338   0.001
    1   AR   Ar  132   0.030   1.881  -0.561
    1   AR   Ar  133   4.692   6.543   2.840
    1   AR   Ar  134   4.631   1.265   3.973
    1   AR   Ar  135   5.682   0.646   2.391
    1   AR   Ar  136   4.771   7.030   1.949
    1   AR   Ar  137   2.619   5.321   3.628
    1   AR   Ar  138   4.884   1.827   5.603
    1   AR   Ar  139   5.785   2.564   5.607
    1   AR   Ar  140   3.894   7.096   4.879
    1   AR   Ar  141   3.848   5.317   4.241
    1   AR   Ar  142   3.288   0.273   6.028
    1   AR   Ar  143   6.893   0.220   5.643
    1   AR   Ar  144   6.795   1.247   5.742
    1   AR   Ar  145   4.417   3.895   0.066
    1   AR   Ar  146   3.647   2.585   2.110
    1   AR   Ar  147   5.119   1.211  -1.583
    1   AR   Ar  148   3.760   4.338  -1.352
    1   AR   Ar  149   2.923   2.060   1.129
    1   AR   Ar  150   2.198   1.940   2.185
    1   AR   Ar  151   2.341   2.111   3.395
    1   AR   Ar  152   3.334   3.423  -0.416
    1   AR   Ar  153   4.711   0.156   3.807
    1   AR   Ar  154   4.534   2.419   4.610
    1   AR   Ar  155   6.666   0.339   7.000
    1   AR   Ar  156   3.948   3.448   4.180
    1   AR   Ar  157   1.977   3.720   6.793
    1   AR   Ar  158   0.974   2.642   6.693
    1   AR   Ar  159   4.568   1.925   6.888
    1   AR   Ar  160   2.719   1.506   5.128
    1   AR   Ar  161   5.318   3.361   2.223
    1   AR   Ar  162   4.474   6.158  -0.588
    1   AR   Ar  163   4.878   3.389   1.315
    1   AR   Ar  164   2.713   5.388   1.531
    1   AR   Ar  165   3.744   3.249   1.231
    1   AR   Ar  166   2.525   3.650   4.763
    1   AR   Ar  167   4.357   1.042   2.211
    1   AR   Ar  168   5.415   3.024  -0.465
    1   AR   Ar  169   3.256   3.564   2.066
    1   AR   Ar  170   2.351   4.281   5.925
    1   AR   Ar  171   5.664   4.332   4.551
    1   AR   Ar  172   4.791   4.728   4.791
    1   AR   Ar  173   2.992   3.517   7.653
    1   AR   Ar  174   2.361   5.014   6.901
    1   AR   Ar  175   2.690   3.149   6.307
    1   AR   Ar  176   3.805   2.689   5.817
    1   AR   Ar  177   6.397   4.827  -0.291
    1   AR   Ar  178   4.026   5.148  -0.250
    1   AR   Ar  179   3.909   5.227   1.024
    1   AR   Ar  180   0.865   1.524  -2.811
    1   AR   Ar  181   0.682   5.889   1.295
    1   AR   Ar  182   2.665   0.523   3.124
    1   AR   Ar  183   3.278   5.222   2.669
    1   AR   Ar  184   4.828   6.579   1.080
    1   AR   Ar  185   3.024   5.051   5.310
    1   AR   Ar  186   3.243   4.239   3.332
    1   AR   Ar  187   3.766   6.086   3.069
    1   AR   Ar  188   3.239   6.372   1.904
    1   AR   Ar  189   3.831   2.894   6.972
    1   AR   Ar  190   4.258   6.342   3.988
    1   AR   Ar  191   3.523   5.688   7.557
    1   AR   Ar  192   4.063   6.022   5.022
    1   AR   Ar  193   2.507   6.052   0.723
    1   AR   Ar  194   4.274   3.577  -1.003
    1   AR   Ar  195   5.395   1.001   0.309
    1   AR   Ar  196   4.671   0.258  -0.079
    1   AR   Ar  197   3.865   1.137   1.024
    1   AR   Ar  198   6.002   1.360   1.215
    1   AR   Ar  199   3.618   1.295   3.126
    1   AR   Ar  200   5.367   2.282   0.386
    1   AR   Ar  201   5.246   6.432   3.726
    1   AR   Ar  202   5.477   1.996   4.614
    1   AR   Ar  203   6.542   6.493   3.376
    1   AR   Ar  204   4.873   6.791   4.883
    1   AR   Ar  205   6.777   0.010   2.136
    1   AR   Ar  206   5.109   0.820   4.863
    1   AR   Ar  207   1.267   1.681   7.068
    1   AR   Ar  208   6.962   0.319   3.335
    1   AR   Ar  209   7.019   2.910  -2.419
    1   AR   Ar  210   3.472   0.309  -0.160
    1   AR   Ar  211   6.322   2.792   0.582
    1   AR   Ar  212   6.140   3.424  -1.660
    1   AR   Ar  213   3.271   1.338   1.821
    1   AR   Ar  214   4.156   3.495   2.965
    1   AR   Ar  215   5.619   2.389   1.394
    1   AR   Ar  216   0.698   3.333   1.898
    1   AR   Ar  217   4.943   3.392   4.439
    1   AR   Ar  218   4.417   3.347   5.342
    1   AR   Ar  219   5.184   2.542   3.575
    1   AR   Ar  220   4.586   4.052   2.123
    1   AR   Ar  221   6.081   0.021   5.161
    1   AR   Ar  222   4.172   0.636   6.737
    1   AR   Ar  223   0.175   1.368   7.097
    1   AR   Ar  224   4.659   3.240   6.297
    1   AR   Ar  225   6.465   3.430   2.407
    1   AR   Ar  226   2.332   3.661   3.538
    1   AR   Ar  227   6.303   3.496   1.380
    1   AR   Ar  228   5.803   6.429   1.973
    1   AR   Ar  229   5.529   4.150  -0.862
    1   AR   Ar  230   4.668   4.549   3.751
    1   AR   Ar  231   6.077   1.295   3.350
    1   AR   Ar  232   4.310   2.425   0.609
    1   AR   Ar  233   6.338   2.359   3.394
    1   AR   Ar  234   6.300   3.184   4.428
    1   AR   Ar  235   6.633   2.004   4.857
    1   AR   Ar  236   5.730   5.960   5.533
    1   AR   Ar  237   5.597   3.473   5.270
    1   AR   Ar  238   5.009   4.125   6.012
    1   AR   Ar  239   5.807   4.089   8.180
    1   AR   Ar  240   6.977   3.349   6.794
    1   AR   Ar  241   1.160   6.716  -0.278
    1   AR   Ar  242   5.397   4.753   0.118
    1   AR   Ar  243   5.681   4.522   2.401
    1   AR   Ar  244   0.707   5.223  -0.256
    1   AR   Ar  245   4.927   0.795   1.337
    1   AR   Ar  246   5.333   5.788   0.477
    1   AR   Ar  247   5.642   4.112   0.960
    1   AR   Ar  248   5.427   5.489  -0.654
    1   AR   Ar  249   4.088   5.700   1.965
    1   AR   Ar  250   4.996   5.739   4.673
    1   AR   Ar  251   5.678   5.080   3.713
    1   AR   Ar  252   4.614   5.538   3.425
    1   AR   Ar  253   6.219   3.628   6.043
    1   AR   Ar  254   1.955   3.032   9.522
    1   AR   Ar  255   3.946   3.058   8.358
    1   AR   Ar  256   6.850   5.449   3.626
    7.12000  7.12000 12.00000
Argon-slab step 3140
  256
    1   AR   Ar    1   7.116   1.208  -1.658
    1   AR   Ar    2   6.346   0.335   0.252
    1   AR   Ar    3   2.220   0.671  -0.067
    1   AR   Ar    4   1.290   0.602  -0.503
    1   AR   Ar    5   7.002   6.849   1.035
    1   AR   Ar    6   6.551   1.082   2.394
    1   AR   Ar    7   6.309   4.110   3.192
    1   AR   Ar    8   5.937   0.374   1.346
    1   AR   Ar    9   1.493   7.069   3.167
    1   AR   Ar   10   0.728   0.445   4.070
    1   AR   Ar   11   1.639   6.356   3.846
    1   AR   Ar   12   0.547   1.265   2.586
    1   AR   Ar   13   0.334   1.035   4.840
    1   AR   Ar   14   0.168   2.434   7.494
    1   AR   Ar   15   4.772   0.466   9.588
    1   AR   Ar   16   1.118   0.167   5.075
    1   AR   Ar   17   6.105   1.656   0.039
    1   AR   Ar   18   6.635   2.957  -0.595
    1   AR   Ar   19   1.843   2.984   1.555
    1   AR   Ar   20   4.562   4.082  -1.808
    1   AR   Ar   21   4.575   1.754   1.424
    1   AR   Ar   22   6.363   2.202   2.257
    1   AR   Ar   23   0.017   0.876  -0.277
    1   AR   Ar   24   7.049   2.282   1.403
    1   AR   Ar   25   0.410   1.392   3.707
    1   AR   Ar   26   5.810   0.354   3.813
    1   AR   Ar   27   1.440   0.980   3.270
    1   AR   Ar   28   0.791   2.051   4.944
    1   AR   Ar   29   5.879   2.883   7.044
    1   AR   Ar   30   1.544   1.529   4.347
    1   AR   Ar   31   3.225   0.561   7.764
    1   AR   Ar   32   1.635   3.061   5.850
    1   AR   Ar   33   0.559   4.096  -0.727
    1   AR   Ar   34   0.219   5.250   2.525
    1   AR   Ar   35   6.181   5.434   1.088
    1   AR   Ar   36   6.596   0.224  -3.761
    1   AR   Ar   37   5.165   2.026   2.282
    1   AR   Ar   38   0.191   4.117   2.279
    1   AR   Ar   39   1.466   3.557   2.951
    1   AR   Ar   40   2.328   4.119   1.271
    1   AR   Ar   41   0.203   3.162   3.999
    1   AR   Ar   42   5.968   5.659   4.600
    1   AR   Ar   43   6.832   2.425   5.841
    1   AR   Ar   44   0.565   4.580   3.285
    1   AR   Ar   45   0.463   3.366   5.785
    1   AR   Ar   46   0.656   4.927   5.801
    1   AR   Ar   47   5.777   3.945   6.902
    1   AR   Ar   48   0.081   5.945   6.774
    1   AR   Ar   49   5.746   0.815  -0.774
    1   AR   Ar   50   5.003   5.158   1.770
    1   AR   Ar   51   6.773   4.605   1.482
    1   AR   Ar   52   5.679   4.925  -1.649
    1   AR   Ar   53   5.498   5.918   2.949
    1   AR   Ar   54   0.355   6.307   2.478
    1   AR   Ar   55   6.392   5.749   2.475
    1   AR   Ar   56   0.186   1.099   0.704
    1   AR   Ar   57   5.399   3.675   3.487
    1   AR   Ar   58   6.560   4.200   4.146
    1   AR   Ar   59   2.329   5.527   5.954
    1   AR   Ar   60   0.633   6.341   3.546
    1   AR   Ar   61   6.859   4.304   6.586
    1   AR   Ar   62   0.242   4.947   4.486
    1   AR   Ar   63   2.381   0.577   6.557
    1   AR   Ar   64   0.785   5.916   4.698
    1   AR   Ar   65   3.726   6.662   0.964
    1   AR   Ar   66   0.899   1.561   1.497
    1   AR   Ar   67   3.086   6.811  -1.418
    1   AR   Ar   68   2.876   1.795  -0.855
    1   AR   Ar   69   2.758   0.940   0.999
    1   AR   Ar   70   0.795   0.080   2.435
    1   AR   Ar   71   2.808   1.357   3.889
    1   AR   Ar   72   3.755   0.320   1.771
    1   AR   Ar   73   3.602   0.244   3.576
    1   AR   Ar   74   2.012   0.226   4.001
    1   AR   Ar   75   3.846   1.119   4.881
    1   AR   Ar   76   1.671   0.896   2.109
    1   AR   Ar   77   2.379   6.546   6.177
    1   AR   Ar   78   0.583   6.878   6.477
    1   AR   Ar   79   3.250   6.024   6.020
    1   AR   Ar   80   4.045   5.069   5.639
    1   AR   Ar   81   2.874   6.488  -0.184
    1   AR   Ar   82   6.515   5.818  -0.796
    1   AR   Ar   83   0.604   2.661   0.113
    1   AR   Ar   84   0.117   3.939   0.920
    1   AR   Ar   85   1.413   3.524   0.853
    1   AR   Ar   86   1.872   4.755  -0.259
    1   AR   Ar   87   1.716   1.896   0.804
    1   AR   Ar   88   2.244   4.998   0.658
    1   AR   Ar   89   0.208   2.688   2.834
    1   AR   Ar   90   2.518   2.450   4.443
    1   AR   Ar   91   1.108   1.980   3.263
    1   AR   Ar   92   1.271   2.602   2.430
    1   AR   Ar   93   2.154   0.595   5.502
    1   AR   Ar   94   0.546   6.778  11.050
    1   AR   Ar   95   3.443   1.510   6.045
    1   AR   Ar   96   2.985   0.394   4.418
    1   AR   Ar   97   5.218   1.808  -0.566
    1   AR   Ar   98   2.182   5.335   2.390
    1   AR   Ar   99   5.879   2.192  -1.339
    1   AR   Ar  100   1.635   3.690  -0.245
    1   AR   Ar  101   3.363   4.293   1.035
    1   AR   Ar  102   3.283   2.472   3.617
    1   AR   Ar  103   1.017   4.866   1.205
    1   AR   Ar  104   2.852   3.253  -1.307
    1   AR   Ar  105   1.589   3.244   4.124
    1   AR   Ar  106   3.438   3.553   5.384
    1   AR   Ar  107   0.889   4.053   4.170
    1   AR   Ar  108   3.449   2.515   4.849
    1   AR   Ar  109   1.811   4.921   4.729
    1   AR   Ar  110   1.310   4.118   5.913
    1   AR   Ar  111   4.994   4.343   7.448
    1   AR   Ar  112   1.482   6.185   6.625
    1   AR   Ar  113   2.977   4.331  -0.442
    1   AR   Ar  114   2.068   6.744  -1.060
    1   AR   Ar  115   2.485   5.423  -0.925
    1   AR   Ar  116   5.638   6.579  -0.782
    1   AR   Ar  117   1.331   5.365   3.800
    1   AR   Ar  118   1.266   5.721   2.901
    1   AR   Ar  119   2.247   3.027   2.557
    1   AR   Ar  120   2.047   6.814   2.257
    1   AR   Ar  121   5.922   4.591   5.646
    1   AR   Ar  122   2.811   6.500   4.958
    1   AR   Ar  123   3.796   4.367   4.898
    1   AR   Ar  124   1.820   5.963   1.731
    1   AR   Ar  125   6.950   4.362   5.491
    1   AR   Ar  126   7.093   6.806   4.406
    1   AR   Ar  127   3.323   4.141   6.280
    1   AR   Ar  128   3.432   5.188   6.687
    1   AR   Ar  129   2.675   6.181   2.937
    1   AR   Ar  130   4.808   2.926  -2.209
    1   AR   Ar  131   4.145   1.345   0.013
    1   AR   Ar  132   0.007   1.902  -0.549
    1   AR   Ar  133   4.700   6.534   2.871
    1   AR   Ar  134   4.614   1.264   3.975
    1   AR   Ar  135   5.660   0.641   2.430
    1   AR   Ar  136   4.806   7.021   1.963
    1   AR   Ar  137   2.600   5.307   3.652
    1   AR   Ar  138   4.900   1.832   5.605
    1   AR   Ar  139   5.770   2.566   5.602
    1   AR   Ar  140   3.873   7.108   4.889
    1   AR   Ar  141   3.875   5.276   4.211
    1   AR   Ar  142   3.286   0.257   6.065
    1   AR   Ar  143   6.898   0.220   5.639
    1   AR   Ar  144   6.807   1.255   5.742
    1   AR   Ar  145   4.439   3.901   0.085
    1   AR   Ar  146   3.593   2.559   2.097
    1   AR   Ar  147   5.126   1.202  -1.598
    1   AR   Ar  148   3.750   4.368  -1.359
    1   AR   Ar  149   2.914   2.060   1.092
    1   AR   Ar  150   2.201   1.984   2.157
    1   AR   Ar  151   2.346   2.114   3.402
    1   AR   Ar  152   3.324   3.400  -0.401
    1   AR   Ar  153   4.725   0.121   3.788
    1   AR   Ar  154   4.548   2.362   4.637
    1   AR   Ar  155   6.669   0.350   7.000
    1   AR   Ar  156   3.942   3.457   4.164
    1   AR   Ar  157   1.961   3.713   6.812
    1   AR   Ar  158   0.976   2.626   6.697
    1   AR   Ar  159   4.575   1.944   6.873
    1   AR   Ar  160   2.736   1.501   5.119
    1   AR   Ar  161   5.351   3.336   2.241
    1   AR   Ar  162   4.468   6.180  -0.615
    1   AR   Ar  163   4.867   3.399   1.275
    1   AR   Ar  164   2.706   5.391   1.484
    1   AR   Ar  165   3.727   3.222   1.239
    1   AR   Ar  166   2.497   3.647   4.759
    1   AR   Ar  167   4.380   1.026   2.258
    1   AR   Ar  168   5.435   3.006  -0.465
    1   AR   Ar  169   3.230   3.553   2.045
    1   AR   Ar  170   2.355   4.271   5.903
    1   AR   Ar  171   5.663   4.303   4.561
    1   AR   Ar  172   4.782   4.719   4.821
    1   AR   Ar  173   2.986   3.541   7.650
    1   AR   Ar  174   2.354   5.004   6.892
    1   AR   Ar  175   2.726   3.138   6.330
    1   AR   Ar  176   3.810   2.683   5.836
    1   AR   Ar  177   6.412   4.803  -0.282
    1   AR   Ar  178   4.010   5.141  -0.255
    1   AR   Ar  179   3.918   5.249   1.012
    1   AR   Ar  180   0.881   1.519  -2.834
    1   AR   Ar  181   0.666   5.882   1.318
    1   AR   Ar  182   2.662   0.543   3.121
    1   AR   Ar  183   3.287   5.207   2.649
    1   AR   Ar  184   4.846   6.599   1.083
    1   AR   Ar  185   3.048   5.021   5.336
    1   AR   Ar  186   3.234   4.212   3.357
    1   AR   Ar  187   3.759   6.119   3.053
    1   AR   Ar  188   3.255   6.370   1.907
    1   AR   Ar  189   3.850   2.919   6.983
    1   AR   Ar  190   4.231   6.323   4.008
    1   AR   Ar  191   3.515   5.714   7.571
    1   AR   Ar  192   4.065   6.039   5.015
    1   AR   Ar  193   2.503   6.068   0.691
    1   AR   Ar  194   4.275   3.566  -0.974
    1   AR   Ar  195   5.420   1.019   0.312
    1   AR   Ar  196   4.675   0.254  -0.105
    1   AR   Ar  197   3.859   1.114   1.012
    1   AR   Ar  198   6.007   1.350   1.218
    1   AR   Ar  199   3.644   1.315   3.143
    1   AR   Ar  200   5.374   2.318   0.386
    1   AR   Ar  201   5.265   6.424   3.758
    1   AR   Ar  202   5.460   1.995   4.617
    1   AR   Ar  203   6.527   6.461   3.358
    1   AR   Ar  204   4.870   6.799   4.878
    1   AR   Ar  205   6.754   0.029   2.130
    1   AR   Ar  206   5.118   0.836   4.868
    1   AR   Ar  207   1.295   1.693   7.070
    1   AR   Ar  208   6.970   0.282   3.337
    1   AR   Ar  209   7.008   2.885  -2.411
    1   AR   Ar  210   3.495   0.318  -0.157
    1   AR   Ar  211   6.294   2.804   0.567
    1   AR   Ar  212   6.143   3.438  -1.677
    1   AR   Ar  213   3.286   1.351   1.818
    1   AR   Ar  214   4.149   3.477   2.962
    1   AR   Ar  215   5.605   2.407   1.378
    1   AR   Ar  216   0.686   3.304   1.897
    1   AR   Ar  217   4.935   3.416   4.447
    1   AR   Ar  218   4.438   3.372   5.329
    1   AR   Ar  219   5.156   2.538   3.588
    1   AR   Ar  220   4.604   4.069   2.174
    1   AR   Ar  221   6.041   0.037   5.123
    1   AR   Ar  222   4.176   0.628   6.724
    1   AR   Ar  223   0.185   1.358   7.091
    1   AR   Ar  224   4.659   3.221   6.345
    1   AR   Ar  225   6.468   3.452   2.418
    1   AR   Ar  226   2.357   3.627   3.571
    1   AR   Ar  227   6.270   3.481   1.399
    1   AR   Ar  228   5.819   6.417   1.970
    1   AR   Ar  229   5.499   4.162  -0.904
    1   AR   Ar  230   4.625   4.534   3.766
    1   AR   Ar  231   6.045   1.308   3.370
    1   AR   Ar  232   4.336   2.436   0.620
    1   AR   Ar  233   6.313   2.346   3.405
    1   AR   Ar  234   6.315   3.183   4.453
    1   AR   Ar  235   6.627   2.006   4.862
    1   AR   Ar  236   5.722   5.939   5.547
    1   AR   Ar  237   5.620   3.473   5.292
    1   AR   Ar  238   5.008   4.121   6.032
    1   AR   Ar  239   5.819   4.096   8.193
    1   AR   Ar  240   6.942   3.389   6.789
    1   AR   Ar  241   1.175   6.718  -0.299
    1   AR   Ar  242   5.405   4.787   0.108
    1   AR   Ar  243   5.670   4.537   2.401
    1   AR   Ar  244   0.712   5.230  -0.226
    1   AR   Ar  245   4.918   0.774   1.344
    1   AR   Ar  246   5.323   5.832   0.489
    1   AR   Ar  247   5.659   4.125   0.942
    1   AR   Ar  248   5.399   5.507  -0.674
    1   AR   Ar  249   4.094   5.679   1.960
    1   AR   Ar  250   5.008   5.731   4.678
    1   AR   Ar  251   5.695   5.095   3.700
    1   AR   Ar  252   4.604   5.520   3.422
    1   AR   Ar  253   6.212   3.601   6.044
    1   AR   Ar  254   1.956   2.988   9.535
    1   AR   Ar  255   3.968   3.046   8.343
    1   AR   Ar  256   6.850   5.440   3.619
    7.12000  7.12000 12.00000
Argon-slab step 3145
  256
    1   AR   Ar    1   0.053   1.197  -1.630
    1   AR   Ar    2   6.387   0.314   0.242
    1   AR   Ar    3   2.239   0.702  -0.054
    1   AR   Ar    4   1.295   0.606  -0.499
    1   AR   Ar    5   7.001   6.860   1.009
    1   AR   Ar    6   6.570   1.091   2.408
    1   AR   Ar    7   6.305   4.151   3.147
    1   AR   Ar    8   5.924   0.376   1.360
    1   AR   Ar    9   1.509   7.068   3.149
    1   AR   Ar   10   0.762   0.426   4.051
    1   AR   Ar   11   1.644   6.331   3.874
    1   AR   Ar   12   0.550   1.267   2.589
    1   AR   Ar   13   0.345   1.067   4.839
    1   AR   Ar   14   0.156   2.431   7.510
    1   AR   Ar   15   4.764   0.438   9.546
    1   AR   Ar   16   1.137   0.145   5.103
    1   AR   Ar   17   6.107   1.662   0.060
    1   AR   Ar   18   6.633   2.967  -0.603
    1   AR   Ar   19   1.870   2.982   1.540
    1   AR   Ar   20   4.565   4.096  -1.807
    1   AR   Ar   21   4.567   1.769   1.413
    1   AR   Ar   22   6.381   2.175   2.290
    1   AR   Ar   23   0.059   0.902  -0.296
    1   AR   Ar   24   7.092   2.297   1.408
    1   AR   Ar   25   0.362   1.360   3.702
    1   AR   Ar   26   5.825   0.339   3.810
    1   AR   Ar   27   1.457   0.960   3.240
    1   AR   Ar   28   0.794   2.031   4.956
    1   AR   Ar   29   5.873   2.899   7.049
    1   AR   Ar   30   1.560   1.534   4.343
    1   AR   Ar   31   3.286   0.569   7.744
    1   AR   Ar   32   1.634   3.017   5.870
    1   AR   Ar   33   0.550   4.085  -0.739
    1   AR   Ar   34   0.226   5.227   2.516
    1   AR   Ar   35   6.170   5.424   1.094
    1   AR   Ar   36   6.583   0.210  -3.742
    1   AR   Ar   37   5.173   2.041   2.284
    1   AR   Ar   38   0.183   4.131   2.264
    1   AR   Ar   39   1.434   3.570   2.912
    1   AR   Ar   40   2.359   4.149   1.301
    1   AR   Ar   41   0.179   3.137   3.987
    1   AR   Ar   42   5.953   5.658   4.595
    1   AR   Ar   43   6.823   2.450   5.844
    1   AR   Ar   44   0.553   4.609   3.261
    1   AR   Ar   45   0.465   3.359   5.786
    1   AR   Ar   46   0.644   4.917   5.801
    1   AR   Ar   47   5.762   3.938   6.896
    1   AR   Ar   48   0.078   5.955   6.760
    1   AR   Ar   49   5.752   0.789  -0.801
    1   AR   Ar   50   4.982   5.170   1.800
    1   AR   Ar   51   6.747   4.615   1.481
    1   AR   Ar   52   5.686   4.918  -1.643
    1   AR   Ar   53   5.509   5.921   2.952
    1   AR   Ar   54   0.340   6.304   2.493
    1   AR   Ar   55   6.392   5.767   2.467
    1   AR   Ar   56   0.172   1.119   0.723
    1   AR   Ar   57   5.383   3.671   3.524
    1   AR   Ar   58   6.586   4.165   4.148
    1   AR   Ar   59   2.318   5.522   5.928
    1   AR   Ar   60   0.643   6.332   3.545
    1   AR   Ar   61   6.870   4.299   6.610
    1   AR   Ar   62   0.211   4.964   4.450
    1   AR   Ar   63   2.389   0.628   6.555
    1   AR   Ar   64   0.798   5.928   4.734
    1   AR   Ar   65   3.742   6.636   0.981
    1   AR   Ar   66   0.882   1.559   1.512
    1   AR   Ar   67   3.111   6.808  -1.433
    1   AR   Ar   68   2.889   1.790  -0.856
    1   AR   Ar   69   2.745   0.921   0.999
    1   AR   Ar   70   0.798   0.049   2.444
    1   AR   Ar   71   2.801   1.361   3.923
    1   AR   Ar   72   3.798   0.310   1.753
    1   AR   Ar   73   3.603   0.228   3.560
    1   AR   Ar   74   1.986   0.229   4.044
    1   AR   Ar   75   3.831   1.096   4.886
    1   AR   Ar   76   1.686   0.906   2.128
    1   AR   Ar   77   2.370   6.570   6.161
    1   AR   Ar   78   0.572   6.857   6.470
    1   AR   Ar   79   3.213   6.032   6.003
    1   AR   Ar   80   4.089   5.057   5.630
    1   AR   Ar   81   2.879   6.501  -0.158
    1   AR   Ar   82   6.536   5.857  -0.781
    1   AR   Ar   83   0.607   2.643   0.096
    1   AR   Ar   84   0.140   3.940   0.954
    1   AR   Ar   85   1.395   3.499   0.869
    1   AR   Ar   86   1.865   4.748  -0.239
    1   AR   Ar   87   1.707   1.929   0.816
    1   AR   Ar   88   2.254   4.994   0.674
    1   AR   Ar   89   0.222   2.707   2.868
    1   AR   Ar   90   2.513   2.429   4.440
    1   AR   Ar   91   1.134   2.000   3.262
    1   AR   Ar   92   1.280   2.584   2.413
    1   AR   Ar   93   2.159   0.626   5.518
    1   AR   Ar   94   0.551   6.817  11.095
    1   AR   Ar   95   3.421   1.484   6.076
    1   AR   Ar   96   2.981   0.372   4.426
    1   AR   Ar   97   5.192   1.800  -0.542
    1   AR   Ar   98   2.165   5.335   2.373
    1   AR   Ar   99   5.883   2.212  -1.389
    1   AR   Ar  100   1.626   3.717  -0.274
    1   AR   Ar  101   3.381   4.270   1.013
    1   AR   Ar  102   3.302   2.460   3.607
    1   AR   Ar  103   0.992   4.893   1.172
    1   AR   Ar  104   2.856   3.280  -1.324
    1   AR   Ar  105   1.584   3.270   4.156
    1   AR   Ar  106   3.427   3.538   5.382
    1   AR   Ar  107   0.881   4.069   4.158
    1   AR   Ar  108   3.419   2.532   4.815
    1   AR   Ar  109   1.821   4.936   4.752
    1   AR   Ar  110   1.306   4.134   5.904
    1   AR   Ar  111   4.986   4.353   7.466
    1   AR   Ar  112   1.498   6.219   6.594
    1   AR   Ar  113   2.968   4.338  -0.443
    1   AR   Ar  114   2.052   6.757  -1.055
    1   AR   Ar  115   2.457   5.386  -0.930
    1   AR   Ar  116   5.617   6.578  -0.770
    1   AR   Ar  117   1.321   5.353   3.824
    1   AR   Ar  118   1.273   5.720   2.909
    1   AR   Ar  119   2.228   3.001   2.552
    1   AR   Ar  120   2.061   6.816   2.237
    1   AR   Ar  121   5.904   4.602   5.670
    1   AR   Ar  122   2.843   6.504   4.945
    1   AR   Ar  123   3.787   4.333   4.893
    1   AR   Ar  124   1.814   5.962   1.741
    1   AR   Ar  125   6.949   4.343   5.485
    1   AR   Ar  126   7.115   6.792   4.382
    1   AR   Ar  127   3.296   4.137   6.288
    1   AR   Ar  128   3.457   5.197   6.641
    1   AR   Ar  129   2.678   6.190   2.968
    1   AR   Ar  130   4.769   2.947  -2.218
    1   AR   Ar  131   4.128   1.352   0.024
    1   AR   Ar  132   7.103   1.926  -0.537
    1   AR   Ar  133   4.703   6.530   2.903
    1   AR   Ar  134   4.596   1.262   3.976
    1   AR   Ar  135   5.628   0.630   2.468
    1   AR   Ar  136   4.842   7.020   1.987
    1   AR   Ar  137   2.602   5.317   3.674
    1   AR   Ar  138   4.915   1.837   5.605
    1   AR   Ar  139   5.768   2.551   5.563
    1   AR   Ar  140   3.850   0.002   4.899
    1   AR   Ar  141   3.902   5.233   4.182
    1   AR   Ar  142   3.284   0.241   6.099
    1   AR   Ar  143   6.904   0.219   5.641
    1   AR   Ar  144   6.818   1.269   5.743
    1   AR   Ar  145   4.461   3.907   0.104
    1   AR   Ar  146   3.540   2.529   2.084
    1   AR   Ar  147   5.134   1.194  -1.612
    1   AR   Ar  148   3.724   4.407  -1.359
    1   AR   Ar  149   2.905   2.062   1.056
    1   AR   Ar  150   2.203   2.028   2.127
    1   AR   Ar  151   2.341   2.121   3.403
    1   AR   Ar  152   3.320   3.369  -0.380
    1   AR   Ar  153   4.732   0.100   3.771
    1   AR   Ar  154   4.550   2.310   4.664
    1   AR   Ar  155   6.676   0.364   7.001
    1   AR   Ar  156   3.930   3.466   4.147
    1   AR   Ar  157   1.944   3.707   6.830
    1   AR   Ar  158   0.976   2.613   6.699
    1   AR   Ar  159   4.582   1.964   6.856
    1   AR   Ar  160   2.776   1.489   5.113
    1   AR   Ar  161   5.353   3.345   2.208
    1   AR   Ar  162   4.463   6.202  -0.639
    1   AR   Ar  163   4.855   3.407   1.232
    1   AR   Ar  164   2.708   5.394   1.441
    1   AR   Ar  165   3.716   3.193   1.240
    1   AR   Ar  166   2.469   3.644   4.754
    1   AR   Ar  167   4.404   1.012   2.307
    1   AR   Ar  168   5.455   2.989  -0.465
    1   AR   Ar  169   3.198   3.548   2.030
    1   AR   Ar  170   2.359   4.263   5.879
    1   AR   Ar  171   5.658   4.272   4.572
    1   AR   Ar  172   4.772   4.716   4.844
    1   AR   Ar  173   2.982   3.564   7.644
    1   AR   Ar  174   2.346   4.991   6.883
    1   AR   Ar  175   2.765   3.127   6.351
    1   AR   Ar  176   3.815   2.673   5.861
    1   AR   Ar  177   6.427   4.779  -0.274
    1   AR   Ar  178   3.995   5.134  -0.259
    1   AR   Ar  179   3.928   5.272   0.996
    1   AR   Ar  180   0.898   1.514  -2.856
    1   AR   Ar  181   0.648   5.878   1.342
    1   AR   Ar  182   2.657   0.562   3.117
    1   AR   Ar  183   3.296   5.193   2.628
    1   AR   Ar  184   4.848   6.594   1.076
    1   AR   Ar  185   3.068   4.989   5.362
    1   AR   Ar  186   3.227   4.186   3.383
    1   AR   Ar  187   3.748   6.152   3.036
    1   AR   Ar  188   3.269   6.368   1.912
    1   AR   Ar  189   3.839   2.932   6.981
    1   AR   Ar  190   4.223   6.327   3.971
    1   AR   Ar  191   3.507   5.743   7.589
    1   AR   Ar  192   4.061   6.054   5.012
    1   AR   Ar  193   2.497   6.084   0.662
    1   AR   Ar  194   4.252   3.561  -0.965
    1   AR   Ar  195   5.433   1.029   0.319
    1   AR   Ar  196   4.680   0.251  -0.129
    1   AR   Ar  197   3.853   1.090   0.999
    1   AR   Ar  198   6.013   1.352   1.220
    1   AR   Ar  199   3.669   1.335   3.159
    1   AR   Ar  200   5.376   2.353   0.384
    1   AR   Ar  201   5.293   6.410   3.803
    1   AR   Ar  202   5.482   1.988   4.603
    1   AR   Ar  203   6.511   6.426   3.341
    1   AR   Ar  204   4.872   6.807   4.870
    1   AR   Ar  205   6.770   0.036   2.121
    1   AR   Ar  206   5.127   0.852   4.873
    1   AR   Ar  207   1.322   1.703   7.074
    1   AR   Ar  208   6.982   0.250   3.339
    1   AR   Ar  209   6.997   2.860  -2.402
    1   AR   Ar  210   3.518   0.327  -0.153
    1   AR   Ar  211   6.292   2.814   0.564
    1   AR   Ar  212   6.146   3.451  -1.692
    1   AR   Ar  213   3.299   1.366   1.826
    1   AR   Ar  214   4.170   3.476   2.939
    1   AR   Ar  215   5.594   2.426   1.366
    1   AR   Ar  216   0.676   3.272   1.893
    1   AR   Ar  217   4.935   3.441   4.450
    1   AR   Ar  218   4.463   3.398   5.316
    1   AR   Ar  219   5.128   2.534   3.602
    1   AR   Ar  220   4.621   4.091   2.222
    1   AR   Ar  221   5.995   0.051   5.080
    1   AR   Ar  222   4.168   0.627   6.743
    1   AR   Ar  223   0.194   1.348   7.084
    1   AR   Ar  224   4.660   3.196   6.397
    1   AR   Ar  225   6.472   3.468   2.428
    1   AR   Ar  226   2.386   3.592   3.601
    1   AR   Ar  227   6.241   3.462   1.420
    1   AR   Ar  228   5.829   6.412   1.964
    1   AR   Ar  229   5.468   4.172  -0.944
    1   AR   Ar  230   4.583   4.513   3.781
    1   AR   Ar  231   6.013   1.320   3.389
    1   AR   Ar  232   4.360   2.447   0.632
    1   AR   Ar  233   6.289   2.337   3.416
    1   AR   Ar  234   6.329   3.181   4.478
    1   AR   Ar  235   6.621   2.009   4.866
    1   AR   Ar  236   5.713   5.921   5.565
    1   AR   Ar  237   5.630   3.487   5.298
    1   AR   Ar  238   5.010   4.123   6.049
    1   AR   Ar  239   5.829   4.096   8.183
    1   AR   Ar  240   6.910   3.400   6.790
    1   AR   Ar  241   1.191   6.716  -0.319
    1   AR   Ar  242   5.412   4.820   0.100
    1   AR   Ar  243   5.660   4.550   2.402
    1   AR   Ar  244   0.717   5.235  -0.196
    1   AR   Ar  245   4.910   0.750   1.347
    1   AR   Ar  246   5.312   5.874   0.500
    1   AR   Ar  247   5.671   4.144   0.921
    1   AR   Ar  248   5.384   5.518  -0.697
    1   AR   Ar  249   4.098   5.662   1.960
    1   AR   Ar  250   5.006   5.726   4.681
    1   AR   Ar  251   5.670   5.100   3.716
    1   AR   Ar  252   4.602   5.500   3.416
    1   AR   Ar  253   6.213   3.580   6.054
    1   AR   Ar  254   1.958   2.945   9.548
    1   AR   Ar  255   3.989   3.035   8.327
    1   AR   Ar  256   6.849   5.429   3.611
    7.12000  7.12000 12.00000
Argon-slab step 3150
  256
    1   AR   Ar    1   0.037   1.197  -1.612
    1   AR   Ar    2   6.427   0.295   0.232
    1   AR   Ar    3   2.263   0.715  -0.043
    1   AR   Ar    4   1.297   0.615  -0.497
    1   AR   Ar    5   6.998   6.871   0.984
    1   AR   Ar    6   6.592   1.100   2.421
    1   AR   Ar    7   6.302   4.198   3.105
    1   AR   Ar    8   5.910   0.367   1.377
    1   AR   Ar    9   1.526   7.064   3.131
    1   AR   Ar   10   0.799   0.405   4.030
    1   AR   Ar   11   1.653   6.306   3.906
    1   AR   Ar   12   0.559   1.267   2.592
    1   AR   Ar   13   0.355   1.097   4.838
    1   AR   Ar   14   0.144   2.429   7.523
    1   AR   Ar   15   4.756   0.411   9.504
    1   AR   Ar   16   1.155   0.123   5.131
    1   AR   Ar   17   6.128   1.681   0.077
    1   AR   Ar   18   6.630   2.976  -0.610
    1   AR   Ar   19   1.904   2.970   1.534
    1   AR   Ar   20   4.580   4.108  -1.812
    1   AR   Ar   21   4.561   1.785   1.404
    1   AR   Ar   22   6.398   2.149   2.323
    1   AR   Ar   23   0.100   0.925  -0.319
    1   AR   Ar   24   0.013   2.313   1.413
    1   AR   Ar   25   0.313   1.327   3.696
    1   AR   Ar   26   5.841   0.310   3.819
    1   AR   Ar   27   1.473   0.945   3.211
    1   AR   Ar   28   0.792   2.001   4.957
    1   AR   Ar   29   5.868   2.914   7.052
    1   AR   Ar   30   1.573   1.534   4.344
    1   AR   Ar   31   3.347   0.578   7.722
    1   AR   Ar   32   1.633   2.976   5.891
    1   AR   Ar   33   0.536   4.076  -0.749
    1   AR   Ar   34   0.232   5.206   2.503
    1   AR   Ar   35   6.156   5.416   1.100
    1   AR   Ar   36   6.569   0.196  -3.724
    1   AR   Ar   37   5.181   2.055   2.290
    1   AR   Ar   38   0.175   4.148   2.253
    1   AR   Ar   39   1.398   3.584   2.874
    1   AR   Ar   40   2.388   4.176   1.334
    1   AR   Ar   41   0.157   3.112   3.973
    1   AR   Ar   42   5.961   5.654   4.584
    1   AR   Ar   43   6.817   2.478   5.848
    1   AR   Ar   44   0.541   4.636   3.242
    1   AR   Ar   45   0.466   3.352   5.789
    1   AR   Ar   46   0.632   4.912   5.802
    1   AR   Ar   47   5.746   3.936   6.892
    1   AR   Ar   48   0.074   5.964   6.747
    1   AR   Ar   49   5.758   0.764  -0.825
    1   AR   Ar   50   4.959   5.149   1.772
    1   AR   Ar   51   6.715   4.629   1.486
    1   AR   Ar   52   5.697   4.901  -1.614
    1   AR   Ar   53   5.531   5.939   2.943
    1   AR   Ar   54   0.319   6.290   2.508
    1   AR   Ar   55   6.404   5.776   2.460
    1   AR   Ar   56   0.157   1.140   0.746
    1   AR   Ar   57   5.368   3.668   3.559
    1   AR   Ar   58   6.620   4.133   4.151
    1   AR   Ar   59   2.302   5.513   5.901
    1   AR   Ar   60   0.648   6.325   3.545
    1   AR   Ar   61   6.878   4.330   6.625
    1   AR   Ar   62   0.181   4.981   4.416
    1   AR   Ar   63   2.396   0.679   6.555
    1   AR   Ar   64   0.812   5.939   4.768
    1   AR   Ar   65   3.735   6.636   0.969
    1   AR   Ar   66   0.865   1.557   1.529
    1   AR   Ar   67   3.142   6.806  -1.450
    1   AR   Ar   68   2.903   1.785  -0.857
    1   AR   Ar   69   2.731   0.902   0.998
    1   AR   Ar   70   0.805   0.033   2.451
    1   AR   Ar   71   2.797   1.363   3.961
    1   AR   Ar   72   3.840   0.298   1.735
    1   AR   Ar   73   3.609   0.225   3.545
    1   AR   Ar   74   1.959   0.235   4.090
    1   AR   Ar   75   3.817   1.074   4.890
    1   AR   Ar   76   1.700   0.915   2.149
    1   AR   Ar   77   2.359   6.602   6.143
    1   AR   Ar   78   0.561   6.840   6.462
    1   AR   Ar   79   3.186   6.039   5.983
    1   AR   Ar   80   4.126   5.052   5.649
    1   AR   Ar   81   2.888   6.519  -0.142
    1   AR   Ar   82   6.556   5.895  -0.765
    1   AR   Ar   83   0.608   2.625   0.079
    1   AR   Ar   84   0.169   3.934   0.984
    1   AR   Ar   85   1.369   3.483   0.875
    1   AR   Ar   86   1.856   4.741  -0.223
    1   AR   Ar   87   1.700   1.940   0.857
    1   AR   Ar   88   2.258   4.987   0.682
    1   AR   Ar   89   0.235   2.725   2.901
    1   AR   Ar   90   2.497   2.407   4.433
    1   AR   Ar   91   1.160   2.019   3.264
    1   AR   Ar   92   1.272   2.570   2.401
    1   AR   Ar   93   2.165   0.655   5.531
    1   AR   Ar   94   0.556   6.856  11.141
    1   AR   Ar   95   3.400   1.457   6.106
    1   AR   Ar   96   2.970   0.356   4.440
    1   AR   Ar   97   5.165   1.792  -0.518
    1   AR   Ar   98   2.154   5.321   2.371
    1   AR   Ar   99   5.880   2.219  -1.423
    1   AR   Ar  100   1.615   3.741  -0.301
    1   AR   Ar  101   3.401   4.247   0.991
    1   AR   Ar  102   3.324   2.449   3.598
    1   AR   Ar  103   0.968   4.916   1.138
    1   AR   Ar  104   2.859   3.307  -1.342
    1   AR   Ar  105   1.577   3.292   4.191
    1   AR   Ar  106   3.408   3.518   5.384
    1   AR   Ar  107   0.872   4.087   4.146
    1   AR   Ar  108   3.402   2.551   4.784
    1   AR   Ar  109   1.830   4.950   4.774
    1   AR   Ar  110   1.303   4.143   5.894
    1   AR   Ar  111   4.974   4.363   7.485
    1   AR   Ar  112   1.506   6.228   6.605
    1   AR   Ar  113   2.957   4.350  -0.444
    1   AR   Ar  114   2.037   6.769  -1.048
    1   AR   Ar  115   2.430   5.350  -0.935
    1   AR   Ar  116   5.595   6.579  -0.756
    1   AR   Ar  117   1.309   5.332   3.859
    1   AR   Ar  118   1.279   5.723   2.905
    1   AR   Ar  119   2.217   2.976   2.551
    1   AR   Ar  120   2.076   6.823   2.220
    1   AR   Ar  121   5.886   4.613   5.692
    1   AR   Ar  122   2.877   6.507   4.934
    1   AR   Ar  123   3.781   4.303   4.881
    1   AR   Ar  124   1.798   5.969   1.736
    1   AR   Ar  125   6.946   4.319   5.478
    1   AR   Ar  126   0.016   6.779   4.358
    1   AR   Ar  127   3.274   4.134   6.297
    1   AR   Ar  128   3.482   5.203   6.593
    1   AR   Ar  129   2.678   6.198   2.999
    1   AR   Ar  130   4.731   2.970  -2.226
    1   AR   Ar  131   4.114   1.360   0.032
    1   AR   Ar  132   7.076   1.952  -0.526
    1   AR   Ar  133   4.703   6.529   2.935
    1   AR   Ar  134   4.580   1.268   3.964
    1   AR   Ar  135   5.592   0.617   2.506
    1   AR   Ar  136   4.878   7.023   2.017
    1   AR   Ar  137   2.616   5.344   3.695
    1   AR   Ar  138   4.929   1.842   5.606
    1   AR   Ar  139   5.767   2.525   5.525
    1   AR   Ar  140   3.826   0.014   4.909
    1   AR   Ar  141   3.927   5.193   4.156
    1   AR   Ar  142   3.284   0.224   6.132
    1   AR   Ar  143   6.880   0.222   5.658
    1   AR   Ar  144   6.829   1.286   5.743
    1   AR   Ar  145   4.484   3.913   0.124
    1   AR   Ar  146   3.486   2.494   2.072
    1   AR   Ar  147   5.143   1.187  -1.625
    1   AR   Ar  148   3.689   4.449  -1.353
    1   AR   Ar  149   2.895   2.064   1.020
    1   AR   Ar  150   2.206   2.069   2.096
    1   AR   Ar  151   2.327   2.130   3.397
    1   AR   Ar  152   3.320   3.334  -0.355
    1   AR   Ar  153   4.722   0.100   3.765
    1   AR   Ar  154   4.540   2.263   4.691
    1   AR   Ar  155   6.685   0.379   7.000
    1   AR   Ar  156   3.916   3.475   4.130
    1   AR   Ar  157   1.928   3.702   6.846
    1   AR   Ar  158   0.967   2.602   6.709
    1   AR   Ar  159   4.587   1.986   6.837
    1   AR   Ar  160   2.803   1.478   5.106
    1   AR   Ar  161   5.352   3.362   2.161
    1   AR   Ar  162   4.458   6.224  -0.663
    1   AR   Ar  163   4.843   3.414   1.189
    1   AR   Ar  164   2.720   5.401   1.411
    1   AR   Ar  165   3.710   3.162   1.233
    1   AR   Ar  166   2.442   3.641   4.750
    1   AR   Ar  167   4.430   1.000   2.356
    1   AR   Ar  168   5.459   2.969  -0.482
    1   AR   Ar  169   3.161   3.548   2.022
    1   AR   Ar  170   2.361   4.256   5.853
    1   AR   Ar  171   5.653   4.241   4.581
    1   AR   Ar  172   4.769   4.733   4.829
    1   AR   Ar  173   2.978   3.587   7.637
    1   AR   Ar  174   2.348   5.034   6.860
    1   AR   Ar  175   2.754   3.119   6.358
    1   AR   Ar  176   3.821   2.659   5.888
    1   AR   Ar  177   6.439   4.772  -0.260
    1   AR   Ar  178   3.980   5.125  -0.263
    1   AR   Ar  179   3.936   5.294   0.978
    1   AR   Ar  180   0.913   1.509  -2.878
    1   AR   Ar  181   0.630   5.877   1.369
    1   AR   Ar  182   2.654   0.578   3.113
    1   AR   Ar  183   3.303   5.179   2.608
    1   AR   Ar  184   4.843   6.586   1.064
    1   AR   Ar  185   3.086   4.958   5.387
    1   AR   Ar  186   3.225   4.162   3.408
    1   AR   Ar  187   3.733   6.182   3.017
    1   AR   Ar  188   3.280   6.366   1.920
    1   AR   Ar  189   3.816   2.941   6.976
    1   AR   Ar  190   4.217   6.337   3.925
    1   AR   Ar  191   3.498   5.773   7.607
    1   AR   Ar  192   4.053   6.067   5.012
    1   AR   Ar  193   2.509   6.095   0.642
    1   AR   Ar  194   4.229   3.554  -0.953
    1   AR   Ar  195   5.432   1.026   0.332
    1   AR   Ar  196   4.685   0.248  -0.153
    1   AR   Ar  197   3.845   1.080   0.998
    1   AR   Ar  198   6.020   1.367   1.221
    1   AR   Ar  199   3.694   1.354   3.176
    1   AR   Ar  200   5.375   2.385   0.377
    1   AR   Ar  201   5.328   6.389   3.858
    1   AR   Ar  202   5.516   1.978   4.588
    1   AR   Ar  203   6.493   6.389   3.323
    1   AR   Ar  204   4.910   6.833   4.864
    1   AR   Ar  205   6.795   0.038   2.112
    1   AR   Ar  206   5.135   0.868   4.877
    1   AR   Ar  207   1.349   1.709   7.079
    1   AR   Ar  208   6.995   0.221   3.340
    1   AR   Ar  209   6.985   2.835  -2.391
    1   AR   Ar  210   3.542   0.337  -0.148
    1   AR   Ar  211   6.284   2.826   0.573
    1   AR   Ar  212   6.149   3.463  -1.705
    1   AR   Ar  213   3.312   1.384   1.840
    1   AR   Ar  214   4.190   3.473   2.920
    1   AR   Ar  215   5.619   2.423   1.371
    1   AR   Ar  216   0.665   3.239   1.885
    1   AR   Ar  217   4.942   3.465   4.445
    1   AR   Ar  218   4.486   3.425   5.311
    1   AR   Ar  219   5.100   2.531   3.618
    1   AR   Ar  220   4.636   4.118   2.268
    1   AR   Ar  221   5.952   0.057   5.041
    1   AR   Ar  222   4.159   0.627   6.762
    1   AR   Ar  223   0.204   1.339   7.077
    1   AR   Ar  224   4.665   3.168   6.449
    1   AR   Ar  225   6.471   3.440   2.407
    1   AR   Ar  226   2.380   3.610   3.601
    1   AR   Ar  227   6.215   3.439   1.441
    1   AR   Ar  228   5.833   6.415   1.951
    1   AR   Ar  229   5.436   4.178  -0.981
    1   AR   Ar  230   4.542   4.486   3.797
    1   AR   Ar  231   5.980   1.330   3.406
    1   AR   Ar  232   4.381   2.461   0.644
    1   AR   Ar  233   6.265   2.336   3.424
    1   AR   Ar  234   6.339   3.176   4.505
    1   AR   Ar  235   6.614   2.011   4.868
    1   AR   Ar  236   5.702   5.903   5.587
    1   AR   Ar  237   5.626   3.511   5.287
    1   AR   Ar  238   5.011   4.126   6.064
    1   AR   Ar  239   5.822   4.099   8.171
    1   AR   Ar  240   6.883   3.372   6.801
    1   AR   Ar  241   1.206   6.708  -0.338
    1   AR   Ar  242   5.416   4.850   0.092
    1   AR   Ar  243   5.649   4.563   2.401
    1   AR   Ar  244   0.722   5.239  -0.166
    1   AR   Ar  245   4.902   0.727   1.349
    1   AR   Ar  246   5.336   5.852   0.500
    1   AR   Ar  247   5.679   4.167   0.898
    1   AR   Ar  248   5.421   5.501  -0.730
    1   AR   Ar  249   4.099   5.649   1.964
    1   AR   Ar  250   4.985   5.723   4.682
    1   AR   Ar  251   5.634   5.102   3.738
    1   AR   Ar  252   4.612   5.479   3.405
    1   AR   Ar  253   6.215   3.588   6.083
    1   AR   Ar  254   1.959   2.902   9.561
    1   AR   Ar  255   4.010   3.024   8.309
    1   AR   Ar  256   6.848   5.418   3.601
    7.12000  7.12000 12.00000
Argon-slab step 3155
  256
    1   AR   Ar    1   0.021   1.197  -1.591
    1   AR   Ar    2   6.465   0.278   0.222
    1   AR   Ar    3   2.291   0.702  -0.037
    1   AR   Ar    4   1.298   0.627  -0.497
    1   AR   Ar    5   6.996   6.882   0.962
    1   AR   Ar    6   6.614   1.107   2.436
    1   AR   Ar    7   6.301   4.248   3.069
    1   AR   Ar    8   5.899   0.349   1.395
    1   AR   Ar    9   1.537   7.060   3.121
    1   AR   Ar   10   0.838   0.382   4.008
    1   AR   Ar   11   1.666   6.284   3.939
    1   AR   Ar   12   0.570   1.267   2.596
    1   AR   Ar   13   0.361   1.119   4.836
    1   AR   Ar   14   0.132   2.427   7.535
    1   AR   Ar   15   4.749   0.383   9.462
    1   AR   Ar   16   1.173   0.102   5.157
    1   AR   Ar   17   6.160   1.706   0.091
    1   AR   Ar   18   6.626   2.984  -0.616
    1   AR   Ar   19   1.943   2.954   1.533
    1   AR   Ar   20   4.588   4.092  -1.807
    1   AR   Ar   21   4.556   1.799   1.400
    1   AR   Ar   22   6.415   2.126   2.355
    1   AR   Ar   23   0.142   0.944  -0.342
    1   AR   Ar   24   0.054   2.330   1.419
    1   AR   Ar   25   0.264   1.295   3.690
    1   AR   Ar   26   5.857   0.280   3.829
    1   AR   Ar   27   1.488   0.937   3.187
    1   AR   Ar   28   0.762   1.980   4.966
    1   AR   Ar   29   5.863   2.925   7.055
    1   AR   Ar   30   1.587   1.532   4.342
    1   AR   Ar   31   3.408   0.586   7.699
    1   AR   Ar   32   1.634   2.951   5.906
    1   AR   Ar   33   0.522   4.068  -0.759
    1   AR   Ar   34   0.234   5.193   2.481
    1   AR   Ar   35   6.139   5.410   1.106
    1   AR   Ar   36   6.556   0.183  -3.705
    1   AR   Ar   37   5.191   2.068   2.296
    1   AR   Ar   38   0.169   4.165   2.242
    1   AR   Ar   39   1.359   3.600   2.838
    1   AR   Ar   40   2.415   4.199   1.371
    1   AR   Ar   41   0.136   3.088   3.959
    1   AR   Ar   42   5.983   5.647   4.577
    1   AR   Ar   43   6.801   2.512   5.866
    1   AR   Ar   44   0.534   4.656   3.233
    1   AR   Ar   45   0.467   3.345   5.792
    1   AR   Ar   46   0.618   4.914   5.803
    1   AR   Ar   47   5.729   3.939   6.894
    1   AR   Ar   48   0.068   5.969   6.734
    1   AR   Ar   49   5.765   0.738  -0.845
    1   AR   Ar   50   4.941   5.124   1.743
    1   AR   Ar   51   6.681   4.645   1.495
    1   AR   Ar   52   5.710   4.891  -1.592
    1   AR   Ar   53   5.553   5.951   2.933
    1   AR   Ar   54   0.291   6.268   2.523
    1   AR   Ar   55   6.428   5.775   2.452
    1   AR   Ar   56   0.140   1.161   0.770
    1   AR   Ar   57   5.358   3.668   3.585
    1   AR   Ar   58   6.619   4.155   4.176
    1   AR   Ar   59   2.280   5.502   5.872
    1   AR   Ar   60   0.650   6.319   3.546
    1   AR   Ar   61   6.885   4.377   6.635
    1   AR   Ar   62   0.155   4.995   4.386
    1   AR   Ar   63   2.403   0.730   6.559
    1   AR   Ar   64   0.825   5.951   4.799
    1   AR   Ar   65   3.722   6.641   0.949
    1   AR   Ar   66   0.849   1.556   1.547
    1   AR   Ar   67   3.173   6.803  -1.465
    1   AR   Ar   68   2.903   1.784  -0.850
    1   AR   Ar   69   2.718   0.883   0.996
    1   AR   Ar   70   0.814   0.029   2.453
    1   AR   Ar   71   2.793   1.362   3.999
    1   AR   Ar   72   3.883   0.285   1.718
    1   AR   Ar   73   3.620   0.244   3.532
    1   AR   Ar   74   1.931   0.244   4.136
    1   AR   Ar   75   3.802   1.056   4.894
    1   AR   Ar   76   1.714   0.925   2.169
    1   AR   Ar   77   2.347   6.643   6.123
    1   AR   Ar   78   0.551   6.827   6.452
    1   AR   Ar   79   3.170   6.045   5.960
    1   AR   Ar   80   4.158   5.051   5.686
    1   AR   Ar   81   2.903   6.545  -0.140
    1   AR   Ar   82   6.574   5.931  -0.748
    1   AR   Ar   83   0.610   2.609   0.064
    1   AR   Ar   84   0.200   3.923   1.014
    1   AR   Ar   85   1.336   3.473   0.873
    1   AR   Ar   86   1.845   4.738  -0.211
    1   AR   Ar   87   1.677   1.929   0.907
    1   AR   Ar   88   2.255   4.976   0.680
    1   AR   Ar   89   0.249   2.744   2.934
    1   AR   Ar   90   2.469   2.383   4.422
    1   AR   Ar   91   1.186   2.035   3.270
    1   AR   Ar   92   1.257   2.553   2.376
    1   AR   Ar   93   2.170   0.683   5.540
    1   AR   Ar   94   0.556   6.887  11.170
    1   AR   Ar   95   3.379   1.430   6.135
    1   AR   Ar   96   2.956   0.344   4.452
    1   AR   Ar   97   5.139   1.783  -0.495
    1   AR   Ar   98   2.151   5.299   2.380
    1   AR   Ar   99   5.857   2.171  -1.401
    1   AR   Ar  100   1.602   3.761  -0.329
    1   AR   Ar  101   3.423   4.225   0.969
    1   AR   Ar  102   3.349   2.439   3.591
    1   AR   Ar  103   0.945   4.936   1.103
    1   AR   Ar  104   2.863   3.335  -1.360
    1   AR   Ar  105   1.567   3.310   4.226
    1   AR   Ar  106   3.383   3.492   5.388
    1   AR   Ar  107   0.860   4.107   4.135
    1   AR   Ar  108   3.397   2.572   4.758
    1   AR   Ar  109   1.840   4.964   4.798
    1   AR   Ar  110   1.302   4.147   5.885
    1   AR   Ar  111   4.939   4.366   7.488
    1   AR   Ar  112   1.510   6.235   6.617
    1   AR   Ar  113   2.945   4.364  -0.446
    1   AR   Ar  114   2.023   6.781  -1.040
    1   AR   Ar  115   2.404   5.314  -0.938
    1   AR   Ar  116   5.573   6.582  -0.741
    1   AR   Ar  117   1.281   5.294   3.859
    1   AR   Ar  118   1.285   5.730   2.895
    1   AR   Ar  119   2.214   2.959   2.555
    1   AR   Ar  120   2.094   6.835   2.207
    1   AR   Ar  121   5.884   4.600   5.711
    1   AR   Ar  122   2.910   6.510   4.925
    1   AR   Ar  123   3.778   4.277   4.863
    1   AR   Ar  124   1.774   5.979   1.717
    1   AR   Ar  125   6.940   4.293   5.469
    1   AR   Ar  126   0.038   6.765   4.333
    1   AR   Ar  127   3.257   4.130   6.309
    1   AR   Ar  128   3.506   5.208   6.544
    1   AR   Ar  129   2.675   6.208   3.027
    1   AR   Ar  130   4.693   2.993  -2.233
    1   AR   Ar  131   4.102   1.368   0.037
    1   AR   Ar  132   7.049   1.980  -0.515
    1   AR   Ar  133   4.707   6.520   2.921
    1   AR   Ar  134   4.567   1.284   3.933
    1   AR   Ar  135   5.556   0.605   2.543
    1   AR   Ar  136   4.914   7.027   2.050
    1   AR   Ar  137   2.629   5.371   3.715
    1   AR   Ar  138   4.942   1.846   5.607
    1   AR   Ar  139   5.768   2.496   5.489
    1   AR   Ar  140   3.813   0.020   4.917
    1   AR   Ar  141   3.945   5.159   4.137
    1   AR   Ar  142   3.283   0.206   6.162
    1   AR   Ar  143   6.857   0.223   5.674
    1   AR   Ar  144   6.840   1.306   5.744
    1   AR   Ar  145   4.507   3.920   0.144
    1   AR   Ar  146   3.431   2.458   2.061
    1   AR   Ar  147   5.151   1.183  -1.637
    1   AR   Ar  148   3.650   4.493  -1.344
    1   AR   Ar  149   2.886   2.066   0.987
    1   AR   Ar  150   2.211   2.101   2.061
    1   AR   Ar  151   2.307   2.141   3.388
    1   AR   Ar  152   3.322   3.297  -0.329
    1   AR   Ar  153   4.708   0.113   3.764
    1   AR   Ar  154   4.523   2.220   4.717
    1   AR   Ar  155   6.695   0.394   6.997
    1   AR   Ar  156   3.899   3.484   4.112
    1   AR   Ar  157   1.912   3.697   6.860
    1   AR   Ar  158   0.944   2.590   6.735
    1   AR   Ar  159   4.592   2.009   6.816
    1   AR   Ar  160   2.771   1.469   5.102
    1   AR   Ar  161   5.354   3.375   2.115
    1   AR   Ar  162   4.455   6.246  -0.685
    1   AR   Ar  163   4.831   3.420   1.144
    1   AR   Ar  164   2.744   5.414   1.398
    1   AR   Ar  165   3.706   3.129   1.221
    1   AR   Ar  166   2.417   3.638   4.748
    1   AR   Ar  167   4.456   0.988   2.405
    1   AR   Ar  168   5.463   2.951  -0.502
    1   AR   Ar  169   3.120   3.551   2.018
    1   AR   Ar  170   2.360   4.249   5.824
    1   AR   Ar  171   5.651   4.217   4.585
    1   AR   Ar  172   4.765   4.745   4.816
    1   AR   Ar  173   2.974   3.609   7.628
    1   AR   Ar  174   2.352   5.076   6.836
    1   AR   Ar  175   2.743   3.113   6.365
    1   AR   Ar  176   3.827   2.643   5.915
    1   AR   Ar  177   6.449   4.776  -0.241
    1   AR   Ar  178   3.966   5.116  -0.267
    1   AR   Ar  179   3.944   5.316   0.958
    1   AR   Ar  180   0.929   1.505  -2.900
    1   AR   Ar  181   0.643   5.917   1.370
    1   AR   Ar  182   2.663   0.577   3.109
    1   AR   Ar  183   3.309   5.167   2.588
    1   AR   Ar  184   4.832   6.585   1.056
    1   AR   Ar  185   3.103   4.927   5.413
    1   AR   Ar  186   3.229   4.142   3.432
    1   AR   Ar  187   3.716   6.210   2.993
    1   AR   Ar  188   3.289   6.363   1.929
    1   AR   Ar  189   3.788   2.949   6.974
    1   AR   Ar  190   4.210   6.345   3.885
    1   AR   Ar  191   3.489   5.802   7.624
    1   AR   Ar  192   4.041   6.080   5.013
    1   AR   Ar  193   2.528   6.099   0.636
    1   AR   Ar  194   4.207   3.545  -0.938
    1   AR   Ar  195   5.422   1.015   0.347
    1   AR   Ar  196   4.691   0.245  -0.176
    1   AR   Ar  197   3.838   1.068   0.996
    1   AR   Ar  198   6.027   1.389   1.222
    1   AR   Ar  199   3.718   1.373   3.194
    1   AR   Ar  200   5.370   2.412   0.367
    1   AR   Ar  201   5.367   6.365   3.918
    1   AR   Ar  202   5.511   1.958   4.559
    1   AR   Ar  203   6.474   6.356   3.307
    1   AR   Ar  204   4.947   6.859   4.855
    1   AR   Ar  205   6.819   0.040   2.103
    1   AR   Ar  206   5.143   0.883   4.880
    1   AR   Ar  207   1.377   1.711   7.085
    1   AR   Ar  208   7.010   0.193   3.340
    1   AR   Ar  209   6.972   2.811  -2.380
    1   AR   Ar  210   3.565   0.347  -0.142
    1   AR   Ar  211   6.276   2.841   0.582
    1   AR   Ar  212   6.151   3.475  -1.717
    1   AR   Ar  213   3.335   1.385   1.863
    1   AR   Ar  214   4.206   3.466   2.906
    1   AR   Ar  215   5.603   2.427   1.350
    1   AR   Ar  216   0.652   3.208   1.874
    1   AR   Ar  217   4.950   3.486   4.435
    1   AR   Ar  218   4.504   3.450   5.317
    1   AR   Ar  219   5.073   2.528   3.634
    1   AR   Ar  220   4.652   4.151   2.309
    1   AR   Ar  221   5.938   0.032   5.031
    1   AR   Ar  222   4.148   0.627   6.779
    1   AR   Ar  223   0.214   1.330   7.068
    1   AR   Ar  224   4.675   3.140   6.496
    1   AR   Ar  225   6.469   3.383   2.372
    1   AR   Ar  226   2.371   3.624   3.599
    1   AR   Ar  227   6.189   3.415   1.457
    1   AR   Ar  228   5.835   6.444   1.944
    1   AR   Ar  229   5.400   4.177  -1.009
    1   AR   Ar  230   4.508   4.448   3.810
    1   AR   Ar  231   5.947   1.337   3.422
    1   AR   Ar  232   4.396   2.479   0.653
    1   AR   Ar  233   6.236   2.353   3.418
    1   AR   Ar  234   6.345   3.169   4.534
    1   AR   Ar  235   6.635   2.009   4.857
    1   AR   Ar  236   5.690   5.886   5.609
    1   AR   Ar  237   5.614   3.536   5.274
    1   AR   Ar  238   5.012   4.130   6.078
    1   AR   Ar  239   5.798   4.126   8.203
    1   AR   Ar  240   6.863   3.325   6.820
    1   AR   Ar  241   1.221   6.697  -0.355
    1   AR   Ar  242   5.418   4.878   0.087
    1   AR   Ar  243   5.636   4.577   2.397
    1   AR   Ar  244   0.728   5.242  -0.135
    1   AR   Ar  245   4.892   0.706   1.348
    1   AR   Ar  246   5.360   5.828   0.497
    1   AR   Ar  247   5.687   4.192   0.875
    1   AR   Ar  248   5.458   5.485  -0.763
    1   AR   Ar  249   4.095   5.641   1.974
    1   AR   Ar  250   4.955   5.726   4.680
    1   AR   Ar  251   5.608   5.122   3.761
    1   AR   Ar  252   4.626   5.461   3.391
    1   AR   Ar  253   6.221   3.595   6.106
    1   AR   Ar  254   1.960   2.859   9.575
    1   AR   Ar  255   4.022   3.008   8.306
    1   AR   Ar  256   6.845   5.407   3.585
    7.12000  7.12000 12.00000
Argon-slab step 3160
  256
    1   AR   Ar    1   0.005   1.198  -1.569
    1   AR   Ar    2   6.500   0.266   0.210
    1   AR   Ar    3   2.320   0.689  -0.032
    1   AR   Ar    4   1.297   0.642  -0.497
    1   AR   Ar    5   7.001   6.887   0.948
    1   AR   Ar    6   6.635   1.109   2.450
    1   AR   Ar    7   6.307   4.295   3.040
    1   AR   Ar    8   5.888   0.327   1.415
    1   AR   Ar    9   1.556   7.046   3.119
    1   AR   Ar   10   0.877   0.358   3.986
    1   AR   Ar   11   1.680   6.264   3.973
    1   AR   Ar   12   0.583   1.266   2.600
    1   AR   Ar   13   0.359   1.122   4.829
    1   AR   Ar   14   0.120   2.425   7.545
    1   AR   Ar   15   4.741   0.356   9.420
    1   AR   Ar   16   1.191   0.092   5.163
    1   AR   Ar   17   6.195   1.734   0.104
    1   AR   Ar   18   6.620   2.993  -0.623
    1   AR   Ar   19   1.982   2.938   1.531
    1   AR   Ar   20   4.596   4.068  -1.799
    1   AR   Ar   21   4.552   1.809   1.400
    1   AR   Ar   22   6.430   2.108   2.384
    1   AR   Ar   23   0.183   0.962  -0.365
    1   AR   Ar   24   0.094   2.346   1.424
    1   AR   Ar   25   0.259   1.271   3.693
    1   AR   Ar   26   5.872   0.249   3.838
    1   AR   Ar   27   1.502   0.939   3.168
    1   AR   Ar   28   0.733   1.978   4.979
    1   AR   Ar   29   5.858   2.932   7.056
    1   AR   Ar   30   1.602   1.530   4.339
    1   AR   Ar   31   3.456   0.587   7.677
    1   AR   Ar   32   1.635   2.928   5.921
    1   AR   Ar   33   0.509   4.060  -0.766
    1   AR   Ar   34   0.232   5.190   2.448
    1   AR   Ar   35   6.118   5.408   1.110
    1   AR   Ar   36   6.543   0.169  -3.686
    1   AR   Ar   37   5.201   2.081   2.305
    1   AR   Ar   38   0.162   4.177   2.232
    1   AR   Ar   39   1.319   3.615   2.802
    1   AR   Ar   40   2.442   4.220   1.410
    1   AR   Ar   41   0.115   3.066   3.944
    1   AR   Ar   42   6.013   5.637   4.581
    1   AR   Ar   43   6.783   2.548   5.889
    1   AR   Ar   44   0.530   4.668   3.236
    1   AR   Ar   45   0.466   3.339   5.797
    1   AR   Ar   46   0.601   4.922   5.803
    1   AR   Ar   47   5.708   3.950   6.902
    1   AR   Ar   48   0.061   5.969   6.723
    1   AR   Ar   49   5.772   0.713  -0.862
    1   AR   Ar   50   4.930   5.097   1.710
    1   AR   Ar   51   6.648   4.656   1.507
    1   AR   Ar   52   5.729   4.889  -1.581
    1   AR   Ar   53   5.572   5.959   2.926
    1   AR   Ar   54   0.261   6.242   2.538
    1   AR   Ar   55   6.459   5.766   2.440
    1   AR   Ar   56   0.121   1.183   0.794
    1   AR   Ar   57   5.308   3.675   3.530
    1   AR   Ar   58   6.620   4.177   4.198
    1   AR   Ar   59   2.254   5.490   5.840
    1   AR   Ar   60   0.650   6.314   3.548
    1   AR   Ar   61   6.891   4.427   6.642
    1   AR   Ar   62   0.135   5.007   4.363
    1   AR   Ar   63   2.412   0.754   6.554
    1   AR   Ar   64   0.839   5.963   4.828
    1   AR   Ar   65   3.709   6.646   0.927
    1   AR   Ar   66   0.834   1.555   1.567
    1   AR   Ar   67   3.204   6.800  -1.478
    1   AR   Ar   68   2.892   1.785  -0.837
    1   AR   Ar   69   2.705   0.865   0.995
    1   AR   Ar   70   0.817   0.031   2.448
    1   AR   Ar   71   2.790   1.361   4.038
    1   AR   Ar   72   3.895   0.264   1.721
    1   AR   Ar   73   3.633   0.261   3.520
    1   AR   Ar   74   1.902   0.254   4.181
    1   AR   Ar   75   3.788   1.042   4.896
    1   AR   Ar   76   1.728   0.935   2.187
    1   AR   Ar   77   2.334   6.688   6.101
    1   AR   Ar   78   0.543   6.820   6.439
    1   AR   Ar   79   3.162   6.051   5.933
    1   AR   Ar   80   4.191   5.050   5.722
    1   AR   Ar   81   2.924   6.578  -0.151
    1   AR   Ar   82   6.590   5.967  -0.731
    1   AR   Ar   83   0.611   2.593   0.050
    1   AR   Ar   84   0.234   3.911   1.044
    1   AR   Ar   85   1.299   3.466   0.868
    1   AR   Ar   86   1.831   4.739  -0.205
    1   AR   Ar   87   1.656   1.919   0.958
    1   AR   Ar   88   2.248   4.962   0.670
    1   AR   Ar   89   0.262   2.761   2.963
    1   AR   Ar   90   2.432   2.359   4.409
    1   AR   Ar   91   1.203   2.030   3.262
    1   AR   Ar   92   1.253   2.529   2.335
    1   AR   Ar   93   2.171   0.702   5.548
    1   AR   Ar   94   0.521   6.909  11.154
    1   AR   Ar   95   3.358   1.401   6.163
    1   AR   Ar   96   2.940   0.337   4.462
    1   AR   Ar   97   5.114   1.772  -0.472
    1   AR   Ar   98   2.153   5.273   2.393
    1   AR   Ar   99   5.832   2.124  -1.377
    1   AR   Ar  100   1.588   3.774  -0.356
    1   AR   Ar  101   3.446   4.213   0.949
    1   AR   Ar  102   3.374   2.429   3.586
    1   AR   Ar  103   0.923   4.952   1.067
    1   AR   Ar  104   2.868   3.364  -1.378
    1   AR   Ar  105   1.554   3.323   4.261
    1   AR   Ar  106   3.353   3.464   5.396
    1   AR   Ar  107   0.847   4.130   4.123
    1   AR   Ar  108   3.402   2.594   4.734
    1   AR   Ar  109   1.851   4.977   4.823
    1   AR   Ar  110   1.302   4.145   5.877
    1   AR   Ar  111   4.889   4.363   7.480
    1   AR   Ar  112   1.512   6.239   6.629
    1   AR   Ar  113   2.933   4.380  -0.447
    1   AR   Ar  114   2.013   6.795  -1.032
    1   AR   Ar  115   2.364   5.297  -0.947
    1   AR   Ar  116   5.552   6.585  -0.725
    1   AR   Ar  117   1.243   5.245   3.836
    1   AR   Ar  118   1.291   5.743   2.883
    1   AR   Ar  119   2.216   2.951   2.570
    1   AR   Ar  120   2.113   6.851   2.196
    1   AR   Ar  121   5.885   4.575   5.726
    1   AR   Ar  122   2.909   6.473   4.920
    1   AR   Ar  123   3.778   4.256   4.842
    1   AR   Ar  124   1.746   5.989   1.692
    1   AR   Ar  125   6.931   4.263   5.459
    1   AR   Ar  126   0.058   6.751   4.308
    1   AR   Ar  127   3.245   4.127   6.322
    1   AR   Ar  128   3.527   5.212   6.497
    1   AR   Ar  129   2.666   6.218   3.053
    1   AR   Ar  130   4.655   3.018  -2.238
    1   AR   Ar  131   4.094   1.378   0.039
    1   AR   Ar  132   7.020   2.008  -0.506
    1   AR   Ar  133   4.710   6.509   2.897
    1   AR   Ar  134   4.554   1.300   3.903
    1   AR   Ar  135   5.521   0.593   2.582
    1   AR   Ar  136   4.950   7.033   2.079
    1   AR   Ar  137   2.643   5.396   3.736
    1   AR   Ar  138   4.944   1.843   5.610
    1   AR   Ar  139   5.771   2.468   5.452
    1   AR   Ar  140   3.831   0.005   4.918
    1   AR   Ar  141   3.951   5.138   4.127
    1   AR   Ar  142   3.283   0.188   6.190
    1   AR   Ar  143   6.836   0.223   5.691
    1   AR   Ar  144   6.852   1.330   5.744
    1   AR   Ar  145   4.529   3.927   0.164
    1   AR   Ar  146   3.375   2.422   2.050
    1   AR   Ar  147   5.159   1.179  -1.649
    1   AR   Ar  148   3.611   4.536  -1.333
    1   AR   Ar  149   2.877   2.067   0.956
    1   AR   Ar  150   2.218   2.118   2.023
    1   AR   Ar  151   2.293   2.144   3.378
    1   AR   Ar  152   3.323   3.262  -0.301
    1   AR   Ar  153   4.697   0.132   3.763
    1   AR   Ar  154   4.499   2.181   4.740
    1   AR   Ar  155   6.698   0.353   6.987
    1   AR   Ar  156   3.882   3.492   4.094
    1   AR   Ar  157   1.896   3.693   6.872
    1   AR   Ar  158   0.918   2.582   6.758
    1   AR   Ar  159   4.595   2.033   6.794
    1   AR   Ar  160   2.740   1.462   5.096
    1   AR   Ar  161   5.368   3.399   2.100
    1   AR   Ar  162   4.453   6.268  -0.706
    1   AR   Ar  163   4.820   3.426   1.098
    1   AR   Ar  164   2.779   5.431   1.402
    1   AR   Ar  165   3.704   3.096   1.207
    1   AR   Ar  166   2.403   3.632   4.741
    1   AR   Ar  167   4.483   0.976   2.451
    1   AR   Ar  168   5.469   2.936  -0.528
    1   AR   Ar  169   3.078   3.555   2.015
    1   AR   Ar  170   2.357   4.241   5.793
    1   AR   Ar  171   5.662   4.206   4.561
    1   AR   Ar  172   4.760   4.740   4.839
    1   AR   Ar  173   2.971   3.631   7.616
    1   AR   Ar  174   2.357   5.115   6.813
    1   AR   Ar  175   2.734   3.108   6.370
    1   AR   Ar  176   3.835   2.626   5.941
    1   AR   Ar  177   6.459   4.780  -0.224
    1   AR   Ar  178   3.952   5.106  -0.271
    1   AR   Ar  179   3.951   5.337   0.936
    1   AR   Ar  180   0.944   1.500  -2.921
    1   AR   Ar  181   0.656   5.959   1.373
    1   AR   Ar  182   2.669   0.577   3.105
    1   AR   Ar  183   3.314   5.157   2.569
    1   AR   Ar  184   4.819   6.587   1.049
    1   AR   Ar  185   3.119   4.898   5.440
    1   AR   Ar  186   3.240   4.126   3.456
    1   AR   Ar  187   3.697   6.235   2.965
    1   AR   Ar  188   3.295   6.360   1.940
    1   AR   Ar  189   3.754   2.957   6.976
    1   AR   Ar  190   4.203   6.348   3.854
    1   AR   Ar  191   3.480   5.830   7.639
    1   AR   Ar  192   4.025   6.092   5.015
    1   AR   Ar  193   2.540   6.098   0.641
    1   AR   Ar  194   4.186   3.538  -0.923
    1   AR   Ar  195   5.426   1.008   0.357
    1   AR   Ar  196   4.697   0.243  -0.199
    1   AR   Ar  197   3.832   1.054   0.994
    1   AR   Ar  198   6.035   1.414   1.222
    1   AR   Ar  199   3.740   1.391   3.211
    1   AR   Ar  200   5.364   2.435   0.353
    1   AR   Ar  201   5.407   6.341   3.978
    1   AR   Ar  202   5.510   1.936   4.527
    1   AR   Ar  203   6.457   6.328   3.296
    1   AR   Ar  204   4.972   6.876   4.853
    1   AR   Ar  205   6.842   0.041   2.096
    1   AR   Ar  206   5.151   0.900   4.881
    1   AR   Ar  207   1.406   1.710   7.092
    1   AR   Ar  208   7.027   0.167   3.338
    1   AR   Ar  209   6.958   2.786  -2.368
    1   AR   Ar  210   3.588   0.357  -0.134
    1   AR   Ar  211   6.274   2.855   0.588
    1   AR   Ar  212   6.152   3.486  -1.728
    1   AR   Ar  213   3.364   1.375   1.893
    1   AR   Ar  214   4.220   3.454   2.898
    1   AR   Ar  215   5.555   2.439   1.316
    1   AR   Ar  216   0.635   3.180   1.861
    1   AR   Ar  217   4.952   3.499   4.428
    1   AR   Ar  218   4.516   3.475   5.334
    1   AR   Ar  219   5.046   2.525   3.652
    1   AR   Ar  220   4.668   4.192   2.346
    1   AR   Ar  221   5.928   0.008   5.019
    1   AR   Ar  222   4.136   0.629   6.797
    1   AR   Ar  223   0.225   1.323   7.059
    1   AR   Ar  224   4.691   3.113   6.540
    1   AR   Ar  225   6.474   3.324   2.356
    1   AR   Ar  226   2.358   3.634   3.597
    1   AR   Ar  227   6.159   3.394   1.455
    1   AR   Ar  228   5.826   6.474   1.937
    1   AR   Ar  229   5.359   4.164  -1.027
    1   AR   Ar  230   4.485   4.394   3.816
    1   AR   Ar  231   5.912   1.342   3.437
    1   AR   Ar  232   4.405   2.499   0.659
    1   AR   Ar  233   6.208   2.375   3.414
    1   AR   Ar  234   6.349   3.159   4.564
    1   AR   Ar  235   6.662   2.007   4.842
    1   AR   Ar  236   5.676   5.869   5.630
    1   AR   Ar  237   5.600   3.552   5.269
    1   AR   Ar  238   5.009   4.132   6.090
    1   AR   Ar  239   5.798   4.153   8.215
    1   AR   Ar  240   6.850   3.271   6.845
    1   AR   Ar  241   1.233   6.682  -0.370
    1   AR   Ar  242   5.419   4.899   0.081
    1   AR   Ar  243   5.636   4.570   2.386
    1   AR   Ar  244   0.735   5.244  -0.103
    1   AR   Ar  245   4.879   0.688   1.346
    1   AR   Ar  246   5.383   5.808   0.493
    1   AR   Ar  247   5.695   4.217   0.854
    1   AR   Ar  248   5.494   5.472  -0.796
    1   AR   Ar  249   4.087   5.638   1.987
    1   AR   Ar  250   4.924   5.733   4.676
    1   AR   Ar  251   5.584   5.145   3.782
    1   AR   Ar  252   4.641   5.445   3.374
    1   AR   Ar  253   6.231   3.600   6.117
    1   AR   Ar  254   1.961   2.815   9.588
    1   AR   Ar  255   4.023   2.984   8.326
    1   AR   Ar  256   6.839   5.398   3.561
    7.12000  7.12000 12.00000
Argon-slab step 3165
  256
    1   AR   Ar    1   7.108   1.199  -1.546
    1   AR   Ar    2   6.531   0.258   0.193
    1   AR   Ar    3   2.351   0.674  -0.027
    1   AR   Ar    4   1.296   0.657  -0.498
    1   AR   Ar    5   7.009   6.889   0.942
    1   AR   Ar    6   6.656   1.105   2.466
    1   AR   Ar    7   6.324   4.339   3.022
    1   AR   Ar    8   5.880   0.304   1.434
    1   AR   Ar    9   1.582   7.024   3.125
    1   AR   Ar   10   0.912   0.335   3.962
    1   AR   Ar   11   1.695   6.244   4.005
    1   AR   Ar   12   0.598   1.264   2.606
    1   AR   Ar   13   0.356   1.105   4.818
    1   AR   Ar   14   0.108   2.422   7.553
    1   AR   Ar   15   4.733   0.328   9.378
    1   AR   Ar   16   1.212   0.094   5.156
    1   AR   Ar   17   6.229   1.762   0.119
    1   AR   Ar   18   6.598   3.041  -0.626
    1   AR   Ar   19   2.019   2.932   1.521
    1   AR   Ar   20   4.603   4.046  -1.793
    1   AR   Ar   21   4.576   1.799   1.395
    1   AR   Ar   22   6.444   2.097   2.411
    1   AR   Ar   23   0.223   0.979  -0.387
    1   AR   Ar   24   0.130   2.363   1.429
    1   AR   Ar   25   0.282   1.252   3.701
    1   AR   Ar   26   5.888   0.217   3.848
    1   AR   Ar   27   1.514   0.948   3.160
    1   AR   Ar   28   0.712   1.997   4.996
    1   AR   Ar   29   5.852   2.936   7.057
    1   AR   Ar   30   1.618   1.526   4.333
    1   AR   Ar   31   3.483   0.575   7.658
    1   AR   Ar   32   1.635   2.907   5.936
    1   AR   Ar   33   0.495   4.052  -0.773
    1   AR   Ar   34   0.229   5.194   2.406
    1   AR   Ar   35   6.095   5.411   1.115
    1   AR   Ar   36   6.530   0.155  -3.668
    1   AR   Ar   37   5.211   2.093   2.313
    1   AR   Ar   38   0.156   4.183   2.223
    1   AR   Ar   39   1.278   3.629   2.767
    1   AR   Ar   40   2.467   4.240   1.451
    1   AR   Ar   41   0.095   3.045   3.934
    1   AR   Ar   42   6.046   5.628   4.588
    1   AR   Ar   43   6.766   2.585   5.911
    1   AR   Ar   44   0.527   4.675   3.247
    1   AR   Ar   45   0.466   3.333   5.803
    1   AR   Ar   46   0.578   4.940   5.797
    1   AR   Ar   47   5.685   3.967   6.916
    1   AR   Ar   48   0.071   5.958   6.723
    1   AR   Ar   49   5.778   0.689  -0.876
    1   AR   Ar   50   4.922   5.068   1.675
    1   AR   Ar   51   6.618   4.660   1.523
    1   AR   Ar   52   5.755   4.890  -1.583
    1   AR   Ar   53   5.587   5.961   2.919
    1   AR   Ar   54   0.233   6.220   2.553
    1   AR   Ar   55   6.491   5.750   2.422
    1   AR   Ar   56   0.100   1.204   0.817
    1   AR   Ar   57   5.265   3.685   3.462
    1   AR   Ar   58   6.626   4.197   4.217
    1   AR   Ar   59   2.227   5.479   5.804
    1   AR   Ar   60   0.651   6.309   3.550
    1   AR   Ar   61   6.897   4.475   6.647
    1   AR   Ar   62   0.123   5.016   4.351
    1   AR   Ar   63   2.405   0.769   6.561
    1   AR   Ar   64   0.853   5.974   4.854
    1   AR   Ar   65   3.695   6.650   0.904
    1   AR   Ar   66   0.819   1.554   1.589
    1   AR   Ar   67   3.235   6.793  -1.478
    1   AR   Ar   68   2.882   1.785  -0.823
    1   AR   Ar   69   2.694   0.848   0.996
    1   AR   Ar   70   0.815   0.037   2.439
    1   AR   Ar   71   2.788   1.359   4.072
    1   AR   Ar   72   3.907   0.243   1.726
    1   AR   Ar   73   3.647   0.278   3.509
    1   AR   Ar   74   1.875   0.265   4.226
    1   AR   Ar   75   3.774   1.034   4.897
    1   AR   Ar   76   1.743   0.945   2.196
    1   AR   Ar   77   2.320   6.737   6.078
    1   AR   Ar   78   0.537   6.819   6.424
    1   AR   Ar   79   3.157   6.058   5.904
    1   AR   Ar   80   4.227   5.048   5.753
    1   AR   Ar   81   2.948   6.617  -0.170
    1   AR   Ar   82   6.605   6.002  -0.713
    1   AR   Ar   83   0.613   2.578   0.038
    1   AR   Ar   84   0.267   3.898   1.075
    1   AR   Ar   85   1.260   3.460   0.862
    1   AR   Ar   86   1.830   4.754  -0.205
    1   AR   Ar   87   1.637   1.911   1.009
    1   AR   Ar   88   2.241   4.949   0.664
    1   AR   Ar   89   0.276   2.777   2.986
    1   AR   Ar   90   2.392   2.335   4.397
    1   AR   Ar   91   1.219   2.023   3.257
    1   AR   Ar   92   1.250   2.501   2.293
    1   AR   Ar   93   2.160   0.698   5.535
    1   AR   Ar   94   0.487   6.931  11.138
    1   AR   Ar   95   3.337   1.371   6.190
    1   AR   Ar   96   2.923   0.334   4.471
    1   AR   Ar   97   5.090   1.759  -0.450
    1   AR   Ar   98   2.158   5.246   2.407
    1   AR   Ar   99   5.808   2.077  -1.351
    1   AR   Ar  100   1.582   3.787  -0.364
    1   AR   Ar  101   3.472   4.240   0.945
    1   AR   Ar  102   3.399   2.418   3.581
    1   AR   Ar  103   0.901   4.966   1.031
    1   AR   Ar  104   2.874   3.394  -1.393
    1   AR   Ar  105   1.537   3.332   4.293
    1   AR   Ar  106   3.322   3.435   5.406
    1   AR   Ar  107   0.859   4.129   4.168
    1   AR   Ar  108   3.411   2.617   4.711
    1   AR   Ar  109   1.861   4.991   4.848
    1   AR   Ar  110   1.303   4.140   5.869
    1   AR   Ar  111   4.903   4.355   7.496
    1   AR   Ar  112   1.513   6.242   6.641
    1   AR   Ar  113   2.921   4.395  -0.447
    1   AR   Ar  114   2.008   6.809  -1.027
    1   AR   Ar  115   2.316   5.293  -0.960
    1   AR   Ar  116   5.530   6.590  -0.708
    1   AR   Ar  117   1.204   5.196   3.816
    1   AR   Ar  118   1.297   5.759   2.869
    1   AR   Ar  119   2.220   2.952   2.593
    1   AR   Ar  120   2.135   6.869   2.187
    1   AR   Ar  121   5.872   4.553   5.737
    1   AR   Ar  122   2.908   6.436   4.915
    1   AR   Ar  123   3.780   4.237   4.821
    1   AR   Ar  124   1.718   5.997   1.665
    1   AR   Ar  125   6.921   4.232   5.447
    1   AR   Ar  126   0.077   6.739   4.286
    1   AR   Ar  127   3.248   4.111   6.322
    1   AR   Ar  128   3.544   5.214   6.454
    1   AR   Ar  129   2.651   6.230   3.077
    1   AR   Ar  130   4.617   3.043  -2.243
    1   AR   Ar  131   4.088   1.388   0.038
    1   AR   Ar  132   6.991   2.035  -0.498
    1   AR   Ar  133   4.710   6.498   2.881
    1   AR   Ar  134   4.543   1.316   3.876
    1   AR   Ar  135   5.492   0.586   2.623
    1   AR   Ar  136   4.980   7.040   2.100
    1   AR   Ar  137   2.656   5.419   3.758
    1   AR   Ar  138   4.917   1.831   5.593
    1   AR   Ar  139   5.778   2.443   5.414
    1   AR   Ar  140   3.852   7.108   4.919
    1   AR   Ar  141   3.947   5.131   4.126
    1   AR   Ar  142   3.283   0.170   6.216
    1   AR   Ar  143   6.815   0.222   5.708
    1   AR   Ar  144   6.863   1.355   5.745
    1   AR   Ar  145   4.552   3.934   0.183
    1   AR   Ar  146   3.318   2.389   2.039
    1   AR   Ar  147   5.168   1.177  -1.659
    1   AR   Ar  148   3.573   4.577  -1.321
    1   AR   Ar  149   2.868   2.067   0.928
    1   AR   Ar  150   2.230   2.115   1.984
    1   AR   Ar  151   2.296   2.137   3.366
    1   AR   Ar  152   3.325   3.227  -0.273
    1   AR   Ar  153   4.691   0.156   3.763
    1   AR   Ar  154   4.470   2.144   4.759
    1   AR   Ar  155   6.703   0.312   6.976
    1   AR   Ar  156   3.864   3.496   4.076
    1   AR   Ar  157   1.881   3.689   6.881
    1   AR   Ar  158   0.890   2.579   6.778
    1   AR   Ar  159   4.598   2.058   6.770
    1   AR   Ar  160   2.711   1.457   5.092
    1   AR   Ar  161   5.381   3.425   2.095
    1   AR   Ar  162   4.453   6.284  -0.725
    1   AR   Ar  163   4.811   3.430   1.054
    1   AR   Ar  164   2.818   5.449   1.415
    1   AR   Ar  165   3.700   3.065   1.194
    1   AR   Ar  166   2.407   3.623   4.727
    1   AR   Ar  167   4.510   0.964   2.496
    1   AR   Ar  168   5.475   2.924  -0.559
    1   AR   Ar  169   3.036   3.557   2.013
    1   AR   Ar  170   2.340   4.258   5.775
    1   AR   Ar  171   5.677   4.213   4.522
    1   AR   Ar  172   4.754   4.727   4.864
    1   AR   Ar  173   2.968   3.652   7.602
    1   AR   Ar  174   2.355   5.144   6.802
    1   AR   Ar  175   2.725   3.104   6.375
    1   AR   Ar  176   3.843   2.609   5.965
    1   AR   Ar  177   6.469   4.786  -0.207
    1   AR   Ar  178   3.931   5.168  -0.276
    1   AR   Ar  179   3.957   5.358   0.913
    1   AR   Ar  180   0.959   1.495  -2.943
    1   AR   Ar  181   0.666   6.004   1.378
    1   AR   Ar  182   2.673   0.577   3.101
    1   AR   Ar  183   3.316   5.147   2.551
    1   AR   Ar  184   4.807   6.590   1.044
    1   AR   Ar  185   3.137   4.870   5.468
    1   AR   Ar  186   3.259   4.114   3.478
    1   AR   Ar  187   3.677   6.257   2.933
    1   AR   Ar  188   3.299   6.358   1.951
    1   AR   Ar  189   3.716   2.965   6.979
    1   AR   Ar  190   4.197   6.348   3.831
    1   AR   Ar  191   3.470   5.858   7.653
    1   AR   Ar  192   4.013   6.098   5.017
    1   AR   Ar  193   2.548   6.094   0.651
    1   AR   Ar  194   4.166   3.531  -0.907
    1   AR   Ar  195   5.440   1.005   0.361
    1   AR   Ar  196   4.705   0.240  -0.221
    1   AR   Ar  197   3.825   1.039   0.991
    1   AR   Ar  198   6.043   1.441   1.221
    1   AR   Ar  199   3.759   1.409   3.228
    1   AR   Ar  200   5.357   2.452   0.330
    1   AR   Ar  201   5.448   6.319   4.032
    1   AR   Ar  202   5.511   1.913   4.494
    1   AR   Ar  203   6.442   6.310   3.291
    1   AR   Ar  204   4.957   6.864   4.885
    1   AR   Ar  205   6.865   0.041   2.089
    1   AR   Ar  206   5.157   0.916   4.881
    1   AR   Ar  207   1.418   1.725   7.085
    1   AR   Ar  208   7.046   0.141   3.335
    1   AR   Ar  209   6.940   2.771  -2.360
    1   AR   Ar  210   3.573   0.366  -0.136
    1   AR   Ar  211   6.277   2.868   0.589
    1   AR   Ar  212   6.153   3.496  -1.736
    1   AR   Ar  213   3.393   1.363   1.923
    1   AR   Ar  214   4.231   3.438   2.895
    1   AR   Ar  215   5.508   2.453   1.295
    1   AR   Ar  216   0.615   3.159   1.846
    1   AR   Ar  217   4.945   3.505   4.422
    1   AR   Ar  218   4.534   3.455   5.362
    1   AR   Ar  219   5.019   2.523   3.671
    1   AR   Ar  220   4.682   4.236   2.380
    1   AR   Ar  221   5.925   7.106   5.008
    1   AR   Ar  222   4.124   0.632   6.813
    1   AR   Ar  223   0.236   1.317   7.049
    1   AR   Ar  224   4.712   3.089   6.581
    1   AR   Ar  225   6.486   3.263   2.359
    1   AR   Ar  226   2.340   3.640   3.594
    1   AR   Ar  227   6.127   3.378   1.436
    1   AR   Ar  228   5.820   6.504   1.929
    1   AR   Ar  229   5.315   4.142  -1.036
    1   AR   Ar  230   4.471   4.327   3.817
    1   AR   Ar  231   5.877   1.344   3.451
    1   AR   Ar  232   4.407   2.522   0.662
    1   AR   Ar  233   6.180   2.400   3.412
    1   AR   Ar  234   6.350   3.148   4.596
    1   AR   Ar  235   6.689   2.006   4.826
    1   AR   Ar  236   5.662   5.851   5.650
    1   AR   Ar  237   5.592   3.556   5.270
    1   AR   Ar  238   4.992   4.138   6.103
    1   AR   Ar  239   5.797   4.180   8.224
    1   AR   Ar  240   6.843   3.216   6.874
    1   AR   Ar  241   1.242   6.666  -0.381
    1   AR   Ar  242   5.417   4.911   0.073
    1   AR   Ar  243   5.655   4.531   2.364
    1   AR   Ar  244   0.742   5.245  -0.071
    1   AR   Ar  245   4.865   0.672   1.342
    1   AR   Ar  246   5.403   5.799   0.489
    1   AR   Ar  247   5.703   4.241   0.835
    1   AR   Ar  248   5.529   5.466  -0.824
    1   AR   Ar  249   4.078   5.638   2.002
    1   AR   Ar  250   4.895   5.741   4.670
    1   AR   Ar  251   5.559   5.165   3.800
    1   AR   Ar  252   4.656   5.431   3.354
    1   AR   Ar  253   6.241   3.604   6.118
    1   AR   Ar  254   1.963   2.772   9.601
    1   AR   Ar  255   4.023   2.960   8.344
    1   AR   Ar  256   6.828   5.389   3.526
    7.12000  7.12000 12.00000
Argon-slab step 3170
  256
    1   AR   Ar    1   7.091   1.201  -1.520
    1   AR   Ar    2   6.558   0.256   0.171
    1   AR   Ar    3   2.382   0.658  -0.024
    1   AR   Ar    4   1.296   0.673  -0.498
    1   AR   Ar    5   7.020   6.887   0.942
    1   AR   Ar    6   6.676   1.092   2.483
    1   AR   Ar    7   6.356   4.380   3.018
    1   AR   Ar    8   5.874   0.285   1.453
    1   AR   Ar    9   1.610   6.996   3.136
    1   AR   Ar   10   0.938   0.311   3.935
    1   AR   Ar   11   1.709   6.224   4.036
    1   AR   Ar   12   0.614   1.263   2.613
    1   AR   Ar   13   0.377   1.082   4.807
    1   AR   Ar   14   0.096   2.419   7.561
    1   AR   Ar   15   4.724   0.301   9.336
    1   AR   Ar   16   1.214   0.074   5.146
    1   AR   Ar   17   6.257   1.788   0.139
    1   AR   Ar   18   6.575   3.089  -0.630
    1   AR   Ar   19   2.053   2.941   1.503
    1   AR   Ar   20   4.608   4.024  -1.788
    1   AR   Ar   21   4.618   1.775   1.386
    1   AR   Ar   22   6.458   2.093   2.435
    1   AR   Ar   23   0.262   0.996  -0.408
    1   AR   Ar   24   0.162   2.375   1.431
    1   AR   Ar   25   0.307   1.232   3.708
    1   AR   Ar   26   5.903   0.184   3.857
    1   AR   Ar   27   1.524   0.959   3.165
    1   AR   Ar   28   0.728   2.020   5.013
    1   AR   Ar   29   5.841   2.936   7.057
    1   AR   Ar   30   1.634   1.521   4.327
    1   AR   Ar   31   3.508   0.564   7.640
    1   AR   Ar   32   1.607   2.891   5.964
    1   AR   Ar   33   0.483   4.044  -0.778
    1   AR   Ar   34   0.230   5.198   2.361
    1   AR   Ar   35   6.072   5.417   1.121
    1   AR   Ar   36   6.541   0.212  -3.684
    1   AR   Ar   37   5.223   2.105   2.323
    1   AR   Ar   38   0.156   4.186   2.241
    1   AR   Ar   39   1.236   3.642   2.731
    1   AR   Ar   40   2.490   4.262   1.492
    1   AR   Ar   41   0.074   3.027   3.932
    1   AR   Ar   42   6.083   5.620   4.599
    1   AR   Ar   43   6.749   2.622   5.933
    1   AR   Ar   44   0.521   4.676   3.258
    1   AR   Ar   45   0.465   3.328   5.810
    1   AR   Ar   46   0.554   4.959   5.791
    1   AR   Ar   47   5.664   3.986   6.931
    1   AR   Ar   48   0.083   5.940   6.733
    1   AR   Ar   49   5.783   0.671  -0.893
    1   AR   Ar   50   4.916   5.038   1.638
    1   AR   Ar   51   6.591   4.658   1.542
    1   AR   Ar   52   5.785   4.887  -1.598
    1   AR   Ar   53   5.594   5.958   2.912
    1   AR   Ar   54   0.214   6.208   2.571
    1   AR   Ar   55   6.510   5.728   2.397
    1   AR   Ar   56   0.077   1.226   0.839
    1   AR   Ar   57   5.224   3.696   3.388
    1   AR   Ar   58   6.639   4.213   4.231
    1   AR   Ar   59   2.199   5.468   5.766
    1   AR   Ar   60   0.655   6.303   3.549
    1   AR   Ar   61   6.901   4.521   6.650
    1   AR   Ar   62   0.091   5.017   4.333
    1   AR   Ar   63   2.371   0.794   6.594
    1   AR   Ar   64   0.868   5.986   4.879
    1   AR   Ar   65   3.679   6.653   0.880
    1   AR   Ar   66   0.805   1.552   1.613
    1   AR   Ar   67   3.275   6.767  -1.433
    1   AR   Ar   68   2.873   1.785  -0.808
    1   AR   Ar   69   2.685   0.833   0.998
    1   AR   Ar   70   0.810   0.046   2.428
    1   AR   Ar   71   2.786   1.357   4.099
    1   AR   Ar   72   3.920   0.221   1.733
    1   AR   Ar   73   3.663   0.295   3.503
    1   AR   Ar   74   1.855   0.276   4.271
    1   AR   Ar   75   3.759   1.030   4.897
    1   AR   Ar   76   1.760   0.955   2.196
    1   AR   Ar   77   2.363   6.738   6.047
    1   AR   Ar   78   0.534   6.824   6.406
    1   AR   Ar   79   3.155   6.064   5.875
    1   AR   Ar   80   4.269   5.043   5.776
    1   AR   Ar   81   2.930   6.587  -0.181
    1   AR   Ar   82   6.617   6.036  -0.694
    1   AR   Ar   83   0.616   2.566   0.028
    1   AR   Ar   84   0.295   3.890   1.096
    1   AR   Ar   85   1.222   3.454   0.857
    1   AR   Ar   86   1.846   4.784  -0.212
    1   AR   Ar   87   1.621   1.904   1.061
    1   AR   Ar   88   2.238   4.940   0.667
    1   AR   Ar   89   0.301   2.827   2.985
    1   AR   Ar   90   2.352   2.313   4.388
    1   AR   Ar   91   1.232   2.015   3.253
    1   AR   Ar   92   1.249   2.469   2.253
    1   AR   Ar   93   2.146   0.689   5.521
    1   AR   Ar   94   0.453   6.954  11.121
    1   AR   Ar   95   3.316   1.340   6.216
    1   AR   Ar   96   2.906   0.332   4.480
    1   AR   Ar   97   5.067   1.746  -0.429
    1   AR   Ar   98   2.164   5.219   2.420
    1   AR   Ar   99   5.784   2.031  -1.323
    1   AR   Ar  100   1.591   3.803  -0.344
    1   AR   Ar  101   3.498   4.267   0.940
    1   AR   Ar  102   3.423   2.409   3.578
    1   AR   Ar  103   0.879   4.979   0.995
    1   AR   Ar  104   2.882   3.425  -1.407
    1   AR   Ar  105   1.515   3.335   4.323
    1   AR   Ar  106   3.290   3.408   5.417
    1   AR   Ar  107   0.875   4.126   4.226
    1   AR   Ar  108   3.388   2.617   4.668
    1   AR   Ar  109   1.871   5.004   4.873
    1   AR   Ar  110   1.298   4.162   5.861
    1   AR   Ar  111   4.915   4.347   7.514
    1   AR   Ar  112   1.513   6.244   6.652
    1   AR   Ar  113   2.908   4.415  -0.446
    1   AR   Ar  114   2.010   6.825  -1.026
    1   AR   Ar  115   2.271   5.291  -0.975
    1   AR   Ar  116   5.508   6.595  -0.689
    1   AR   Ar  117   1.169   5.151   3.801
    1   AR   Ar  118   1.302   5.776   2.854
    1   AR   Ar  119   2.223   2.954   2.624
    1   AR   Ar  120   2.158   6.888   2.180
    1   AR   Ar  121   5.862   4.534   5.745
    1   AR   Ar  122   2.906   6.398   4.910
    1   AR   Ar  123   3.783   4.220   4.800
    1   AR   Ar  124   1.692   6.004   1.638
    1   AR   Ar  125   6.910   4.199   5.435
    1   AR   Ar  126   0.089   6.710   4.265
    1   AR   Ar  127   3.261   4.087   6.313
    1   AR   Ar  128   3.553   5.218   6.420
    1   AR   Ar  129   2.630   6.244   3.098
    1   AR   Ar  130   4.580   3.067  -2.246
    1   AR   Ar  131   4.084   1.381   0.039
    1   AR   Ar  132   6.966   2.061  -0.497
    1   AR   Ar  133   4.705   6.484   2.873
    1   AR   Ar  134   4.539   1.331   3.854
    1   AR   Ar  135   5.473   0.585   2.670
    1   AR   Ar  136   5.001   7.050   2.108
    1   AR   Ar  137   2.668   5.441   3.782
    1   AR   Ar  138   4.889   1.797   5.574
    1   AR   Ar  139   5.786   2.420   5.376
    1   AR   Ar  140   3.828   7.114   4.900
    1   AR   Ar  141   3.938   5.131   4.128
    1   AR   Ar  142   3.282   0.152   6.242
    1   AR   Ar  143   6.795   0.221   5.725
    1   AR   Ar  144   6.876   1.381   5.745
    1   AR   Ar  145   4.573   3.944   0.197
    1   AR   Ar  146   3.260   2.362   2.028
    1   AR   Ar  147   5.177   1.176  -1.669
    1   AR   Ar  148   3.535   4.618  -1.308
    1   AR   Ar  149   2.860   2.067   0.902
    1   AR   Ar  150   2.246   2.091   1.951
    1   AR   Ar  151   2.311   2.132   3.343
    1   AR   Ar  152   3.325   3.194  -0.245
    1   AR   Ar  153   4.688   0.182   3.764
    1   AR   Ar  154   4.479   2.136   4.745
    1   AR   Ar  155   6.709   0.271   6.963
    1   AR   Ar  156   3.848   3.493   4.058
    1   AR   Ar  157   1.867   3.685   6.888
    1   AR   Ar  158   0.860   2.579   6.797
    1   AR   Ar  159   4.599   2.080   6.744
    1   AR   Ar  160   2.685   1.455   5.090
    1   AR   Ar  161   5.387   3.450   2.097
    1   AR   Ar  162   4.459   6.277  -0.741
    1   AR   Ar  163   4.806   3.434   1.015
    1   AR   Ar  164   2.862   5.464   1.434
    1   AR   Ar  165   3.693   3.036   1.184
    1   AR   Ar  166   2.418   3.616   4.717
    1   AR   Ar  167   4.533   0.952   2.540
    1   AR   Ar  168   5.483   2.914  -0.597
    1   AR   Ar  169   2.995   3.556   2.012
    1   AR   Ar  170   2.331   4.277   5.747
    1   AR   Ar  171   5.688   4.230   4.480
    1   AR   Ar  172   4.750   4.710   4.888
    1   AR   Ar  173   2.966   3.672   7.586
    1   AR   Ar  174   2.350   5.167   6.799
    1   AR   Ar  175   2.729   3.110   6.351
    1   AR   Ar  176   3.853   2.591   5.987
    1   AR   Ar  177   6.497   4.774  -0.221
    1   AR   Ar  178   3.911   5.230  -0.280
    1   AR   Ar  179   3.963   5.380   0.891
    1   AR   Ar  180   0.974   1.491  -2.964
    1   AR   Ar  181   0.675   6.049   1.385
    1   AR   Ar  182   2.675   0.577   3.099
    1   AR   Ar  183   3.316   5.138   2.535
    1   AR   Ar  184   4.796   6.594   1.039
    1   AR   Ar  185   3.156   4.850   5.471
    1   AR   Ar  186   3.280   4.107   3.499
    1   AR   Ar  187   3.659   6.278   2.899
    1   AR   Ar  188   3.298   6.357   1.958
    1   AR   Ar  189   3.676   2.974   6.984
    1   AR   Ar  190   4.191   6.345   3.815
    1   AR   Ar  191   3.461   5.886   7.666
    1   AR   Ar  192   4.001   6.098   5.021
    1   AR   Ar  193   2.553   6.091   0.662
    1   AR   Ar  194   4.166   3.536  -0.903
    1   AR   Ar  195   5.453   1.002   0.365
    1   AR   Ar  196   4.704   0.265  -0.247
    1   AR   Ar  197   3.818   1.023   0.990
    1   AR   Ar  198   6.051   1.467   1.222
    1   AR   Ar  199   3.772   1.426   3.240
    1   AR   Ar  200   5.363   2.469   0.299
    1   AR   Ar  201   5.489   6.301   4.080
    1   AR   Ar  202   5.514   1.889   4.459
    1   AR   Ar  203   6.435   6.304   3.294
    1   AR   Ar  204   4.934   6.850   4.915
    1   AR   Ar  205   6.886   0.040   2.083
    1   AR   Ar  206   5.162   0.932   4.880
    1   AR   Ar  207   1.420   1.751   7.070
    1   AR   Ar  208   7.065   0.116   3.330
    1   AR   Ar  209   6.909   2.795  -2.369
    1   AR   Ar  210   3.533   0.375  -0.145
    1   AR   Ar  211   6.287   2.877   0.582
    1   AR   Ar  212   6.154   3.505  -1.744
    1   AR   Ar  213   3.421   1.346   1.954
    1   AR   Ar  214   4.241   3.421   2.896
    1   AR   Ar  215   5.462   2.467   1.288
    1   AR   Ar  216   0.594   3.148   1.832
    1   AR   Ar  217   4.933   3.506   4.414
    1   AR   Ar  218   4.545   3.435   5.395
    1   AR   Ar  219   4.993   2.521   3.691
    1   AR   Ar  220   4.691   4.281   2.414
    1   AR   Ar  221   5.931   7.085   4.996
    1   AR   Ar  222   4.138   0.639   6.820
    1   AR   Ar  223   0.247   1.311   7.038
    1   AR   Ar  224   4.736   3.069   6.620
    1   AR   Ar  225   6.503   3.202   2.372
    1   AR   Ar  226   2.318   3.643   3.590
    1   AR   Ar  227   6.099   3.368   1.408
    1   AR   Ar  228   5.819   6.526   1.923
    1   AR   Ar  229   5.270   4.115  -1.037
    1   AR   Ar  230   4.482   4.294   3.818
    1   AR   Ar  231   5.841   1.345   3.465
    1   AR   Ar  232   4.404   2.543   0.661
    1   AR   Ar  233   6.152   2.427   3.411
    1   AR   Ar  234   6.350   3.137   4.628
    1   AR   Ar  235   6.690   2.012   4.813
    1   AR   Ar  236   5.659   5.847   5.661
    1   AR   Ar  237   5.596   3.549   5.267
    1   AR   Ar  238   4.953   4.150   6.116
    1   AR   Ar  239   5.796   4.207   8.233
    1   AR   Ar  240   6.844   3.160   6.903
    1   AR   Ar  241   1.245   6.648  -0.387
    1   AR   Ar  242   5.419   4.917   0.067
    1   AR   Ar  243   5.668   4.497   2.328
    1   AR   Ar  244   0.749   5.245  -0.039
    1   AR   Ar  245   4.849   0.659   1.337
    1   AR   Ar  246   5.417   5.804   0.486
    1   AR   Ar  247   5.711   4.264   0.820
    1   AR   Ar  248   5.562   5.469  -0.842
    1   AR   Ar  249   4.071   5.640   2.017
    1   AR   Ar  250   4.870   5.747   4.663
    1   AR   Ar  251   5.536   5.181   3.816
    1   AR   Ar  252   4.669   5.419   3.332
    1   AR   Ar  253   6.254   3.606   6.114
    1   AR   Ar  254   1.964   2.729   9.614
    1   AR   Ar  255   4.023   2.936   8.361
    1   AR   Ar  256   6.814   5.380   3.483
    7.12000  7.12000 12.00000
Argon-slab step 3175
  256
    1   AR   Ar    1   7.073   1.204  -1.493
    1   AR   Ar    2   6.581   0.259   0.145
    1   AR   Ar    3   2.413   0.641  -0.023
    1   AR   Ar    4   1.298   0.686  -0.499
    1   AR   Ar    5   7.034   6.883   0.948
    1   AR   Ar    6   6.694   1.073   2.500
    1   AR   Ar    7   6.381   4.371   3.019
    1   AR   Ar    8   5.869   0.275   1.467
    1   AR   Ar    9   1.641   6.965   3.149
    1   AR   Ar   10   0.951   0.288   3.903
    1   AR   Ar   11   1.696   6.254   4.056
    1   AR   Ar   12   0.632   1.260   2.623
    1   AR   Ar   13   0.396   1.053   4.794
    1   AR   Ar   14   0.085   2.412   7.570
    1   AR   Ar   15   4.716   0.273   9.294
    1   AR   Ar   16   1.202   0.049   5.142
    1   AR   Ar   17   6.278   1.811   0.166
    1   AR   Ar   18   6.552   3.138  -0.633
    1   AR   Ar   19   2.083   2.961   1.478
    1   AR   Ar   20   4.607   4.005  -1.788
    1   AR   Ar   21   4.659   1.749   1.379
    1   AR   Ar   22   6.470   2.094   2.457
    1   AR   Ar   23   0.299   1.014  -0.428
    1   AR   Ar   24   0.184   2.377   1.427
    1   AR   Ar   25   0.332   1.212   3.713
    1   AR   Ar   26   5.918   0.153   3.864
    1   AR   Ar   27   1.532   0.970   3.182
    1   AR   Ar   28   0.746   2.048   5.031
    1   AR   Ar   29   5.827   2.933   7.056
    1   AR   Ar   30   1.648   1.513   4.318
    1   AR   Ar   31   3.529   0.552   7.624
    1   AR   Ar   32   1.579   2.878   5.993
    1   AR   Ar   33   0.503   4.057  -0.792
    1   AR   Ar   34   0.240   5.199   2.314
    1   AR   Ar   35   6.051   5.424   1.131
    1   AR   Ar   36   6.559   0.287  -3.709
    1   AR   Ar   37   5.235   2.116   2.332
    1   AR   Ar   38   0.160   4.185   2.277
    1   AR   Ar   39   1.193   3.653   2.695
    1   AR   Ar   40   2.510   4.290   1.529
    1   AR   Ar   41   0.051   3.011   3.939
    1   AR   Ar   42   6.124   5.609   4.613
    1   AR   Ar   43   6.731   2.657   5.954
    1   AR   Ar   44   0.503   4.667   3.262
    1   AR   Ar   45   0.465   3.324   5.818
    1   AR   Ar   46   0.525   4.977   5.785
    1   AR   Ar   47   5.648   4.005   6.943
    1   AR   Ar   48   0.057   5.923   6.745
    1   AR   Ar   49   5.787   0.655  -0.909
    1   AR   Ar   50   4.912   5.009   1.599
    1   AR   Ar   51   6.566   4.650   1.566
    1   AR   Ar   52   5.820   4.877  -1.624
    1   AR   Ar   53   5.594   5.948   2.902
    1   AR   Ar   54   0.208   6.208   2.591
    1   AR   Ar   55   6.509   5.701   2.366
    1   AR   Ar   56   0.052   1.249   0.860
    1   AR   Ar   57   5.187   3.705   3.310
    1   AR   Ar   58   6.658   4.219   4.241
    1   AR   Ar   59   2.172   5.459   5.730
    1   AR   Ar   60   0.665   6.294   3.544
    1   AR   Ar   61   6.904   4.566   6.650
    1   AR   Ar   62   0.069   5.025   4.323
    1   AR   Ar   63   2.338   0.819   6.627
    1   AR   Ar   64   0.883   5.997   4.901
    1   AR   Ar   65   3.663   6.655   0.855
    1   AR   Ar   66   0.791   1.548   1.638
    1   AR   Ar   67   3.315   6.741  -1.385
    1   AR   Ar   68   2.863   1.785  -0.792
    1   AR   Ar   69   2.677   0.819   1.003
    1   AR   Ar   70   0.805   0.055   2.419
    1   AR   Ar   71   2.787   1.353   4.115
    1   AR   Ar   72   3.935   0.203   1.740
    1   AR   Ar   73   3.688   0.311   3.514
    1   AR   Ar   74   1.847   0.287   4.320
    1   AR   Ar   75   3.744   1.032   4.895
    1   AR   Ar   76   1.739   0.954   2.201
    1   AR   Ar   77   2.403   6.741   6.015
    1   AR   Ar   78   0.532   6.833   6.386
    1   AR   Ar   79   3.156   6.068   5.847
    1   AR   Ar   80   4.320   5.037   5.790
    1   AR   Ar   81   2.912   6.558  -0.195
    1   AR   Ar   82   6.628   6.069  -0.674
    1   AR   Ar   83   0.620   2.555   0.021
    1   AR   Ar   84   0.313   3.891   1.099
    1   AR   Ar   85   1.186   3.445   0.851
    1   AR   Ar   86   1.850   4.775  -0.229
    1   AR   Ar   87   1.608   1.899   1.112
    1   AR   Ar   88   2.241   4.933   0.682
    1   AR   Ar   89   0.329   2.874   2.973
    1   AR   Ar   90   2.313   2.295   4.381
    1   AR   Ar   91   1.243   2.007   3.251
    1   AR   Ar   92   1.251   2.434   2.213
    1   AR   Ar   93   2.131   0.674   5.506
    1   AR   Ar   94   0.419   6.976  11.105
    1   AR   Ar   95   3.295   1.308   6.242
    1   AR   Ar   96   2.890   0.332   4.488
    1   AR   Ar   97   5.045   1.730  -0.410
    1   AR   Ar   98   2.172   5.194   2.432
    1   AR   Ar   99   5.761   1.985  -1.292
    1   AR   Ar  100   1.597   3.813  -0.324
    1   AR   Ar  101   3.524   4.294   0.936
    1   AR   Ar  102   3.446   2.400   3.575
    1   AR   Ar  103   0.858   4.991   0.962
    1   AR   Ar  104   2.890   3.458  -1.419
    1   AR   Ar  105   1.492   3.331   4.351
    1   AR   Ar  106   3.259   3.382   5.429
    1   AR   Ar  107   0.886   4.128   4.283
    1   AR   Ar  108   3.358   2.611   4.621
    1   AR   Ar  109   1.880   5.015   4.895
    1   AR   Ar  110   1.288   4.201   5.853
    1   AR   Ar  111   4.922   4.342   7.536
    1   AR   Ar  112   1.514   6.246   6.663
    1   AR   Ar  113   2.896   4.453  -0.440
    1   AR   Ar  114   2.019   6.842  -1.027
    1   AR   Ar  115   2.229   5.293  -0.995
    1   AR   Ar  116   5.488   6.601  -0.669
    1   AR   Ar  117   1.144   5.116   3.797
    1   AR   Ar  118   1.307   5.794   2.839
    1   AR   Ar  119   2.226   2.958   2.654
    1   AR   Ar  120   2.181   6.907   2.173
    1   AR   Ar  121   5.857   4.518   5.744
    1   AR   Ar  122   2.904   6.362   4.902
    1   AR   Ar  123   3.786   4.205   4.782
    1   AR   Ar  124   1.670   6.009   1.613
    1   AR   Ar  125   6.899   4.166   5.423
    1   AR   Ar  126   0.089   6.658   4.247
    1   AR   Ar  127   3.275   4.064   6.305
    1   AR   Ar  128   3.551   5.222   6.396
    1   AR   Ar  129   2.605   6.261   3.117
    1   AR   Ar  130   4.543   3.090  -2.251
    1   AR   Ar  131   4.082   1.370   0.038
    1   AR   Ar  132   6.946   2.087  -0.504
    1   AR   Ar  133   4.697   6.468   2.871
    1   AR   Ar  134   4.545   1.344   3.841
    1   AR   Ar  135   5.467   0.589   2.726
    1   AR   Ar  136   5.009   7.061   2.104
    1   AR   Ar  137   2.681   5.460   3.807
    1   AR   Ar  138   4.865   1.759   5.565
    1   AR   Ar  139   5.795   2.400   5.338
    1   AR   Ar  140   3.805   7.119   4.881
    1   AR   Ar  141   3.927   5.135   4.133
    1   AR   Ar  142   3.283   0.135   6.266
    1   AR   Ar  143   6.776   0.220   5.742
    1   AR   Ar  144   6.888   1.408   5.745
    1   AR   Ar  145   4.593   3.956   0.191
    1   AR   Ar  146   3.203   2.341   2.017
    1   AR   Ar  147   5.184   1.174  -1.671
    1   AR   Ar  148   3.500   4.658  -1.295
    1   AR   Ar  149   2.851   2.067   0.879
    1   AR   Ar  150   2.262   2.052   1.924
    1   AR   Ar  151   2.328   2.126   3.318
    1   AR   Ar  152   3.326   3.161  -0.216
    1   AR   Ar  153   4.690   0.209   3.766
    1   AR   Ar  154   4.482   2.134   4.720
    1   AR   Ar  155   6.691   0.246   6.954
    1   AR   Ar  156   3.833   3.491   4.072
    1   AR   Ar  157   1.854   3.680   6.893
    1   AR   Ar  158   0.827   2.583   6.811
    1   AR   Ar  159   4.598   2.095   6.718
    1   AR   Ar  160   2.662   1.458   5.094
    1   AR   Ar  161   5.386   3.475   2.106
    1   AR   Ar  162   4.463   6.271  -0.756
    1   AR   Ar  163   4.807   3.435   0.988
    1   AR   Ar  164   2.907   5.476   1.459
    1   AR   Ar  165   3.680   3.011   1.177
    1   AR   Ar  166   2.435   3.611   4.710
    1   AR   Ar  167   4.550   0.942   2.581
    1   AR   Ar  168   5.491   2.908  -0.642
    1   AR   Ar  169   2.958   3.547   2.014
    1   AR   Ar  170   2.337   4.270   5.697
    1   AR   Ar  171   5.689   4.241   4.461
    1   AR   Ar  172   4.748   4.688   4.909
    1   AR   Ar  173   2.964   3.692   7.568
    1   AR   Ar  174   2.345   5.190   6.795
    1   AR   Ar  175   2.732   3.116   6.327
    1   AR   Ar  176   3.863   2.572   6.007
    1   AR   Ar  177   6.528   4.758  -0.243
    1   AR   Ar  178   3.890   5.291  -0.285
    1   AR   Ar  179   3.969   5.402   0.870
    1   AR   Ar  180   0.988   1.486  -2.984
    1   AR   Ar  181   0.678   6.094   1.392
    1   AR   Ar  182   2.674   0.578   3.096
    1   AR   Ar  183   3.313   5.128   2.521
    1   AR   Ar  184   4.784   6.599   1.037
    1   AR   Ar  185   3.174   4.837   5.440
    1   AR   Ar  186   3.301   4.107   3.515
    1   AR   Ar  187   3.644   6.297   2.869
    1   AR   Ar  188   3.292   6.360   1.958
    1   AR   Ar  189   3.640   2.974   6.986
    1   AR   Ar  190   4.186   6.341   3.806
    1   AR   Ar  191   3.451   5.913   7.678
    1   AR   Ar  192   3.982   6.096   5.027
    1   AR   Ar  193   2.557   6.088   0.674
    1   AR   Ar  194   4.195   3.556  -0.916
    1   AR   Ar  195   5.465   0.998   0.370
    1   AR   Ar  196   4.681   0.301  -0.258
    1   AR   Ar  197   3.811   1.006   0.989
    1   AR   Ar  198   6.058   1.494   1.222
    1   AR   Ar  199   3.775   1.443   3.245
    1   AR   Ar  200   5.386   2.489   0.264
    1   AR   Ar  201   5.532   6.290   4.121
    1   AR   Ar  202   5.518   1.866   4.422
    1   AR   Ar  203   6.435   6.310   3.303
    1   AR   Ar  204   4.904   6.834   4.942
    1   AR   Ar  205   6.905   0.039   2.076
    1   AR   Ar  206   5.166   0.946   4.877
    1   AR   Ar  207   1.424   1.772   7.055
    1   AR   Ar  208   7.085   0.092   3.322
    1   AR   Ar  209   6.877   2.819  -2.376
    1   AR   Ar  210   3.494   0.386  -0.152
    1   AR   Ar  211   6.302   2.879   0.563
    1   AR   Ar  212   6.153   3.515  -1.749
    1   AR   Ar  213   3.450   1.324   1.986
    1   AR   Ar  214   4.250   3.402   2.899
    1   AR   Ar  215   5.418   2.482   1.290
    1   AR   Ar  216   0.577   3.153   1.824
    1   AR   Ar  217   4.918   3.503   4.405
    1   AR   Ar  218   4.551   3.413   5.430
    1   AR   Ar  219   4.966   2.519   3.711
    1   AR   Ar  220   4.691   4.325   2.450
    1   AR   Ar  221   5.941   7.065   4.983
    1   AR   Ar  222   4.171   0.651   6.819
    1   AR   Ar  223   0.259   1.307   7.027
    1   AR   Ar  224   4.762   3.059   6.655
    1   AR   Ar  225   6.522   3.141   2.388
    1   AR   Ar  226   2.295   3.644   3.586
    1   AR   Ar  227   6.074   3.365   1.382
    1   AR   Ar  228   5.828   6.533   1.919
    1   AR   Ar  229   5.231   4.087  -1.029
    1   AR   Ar  230   4.509   4.290   3.819
    1   AR   Ar  231   5.804   1.345   3.479
    1   AR   Ar  232   4.399   2.558   0.656
    1   AR   Ar  233   6.124   2.455   3.413
    1   AR   Ar  234   6.350   3.125   4.660
    1   AR   Ar  235   6.650   2.028   4.801
    1   AR   Ar  236   5.655   5.842   5.670
    1   AR   Ar  237   5.600   3.542   5.268
    1   AR   Ar  238   4.911   4.162   6.129
    1   AR   Ar  239   5.794   4.233   8.239
    1   AR   Ar  240   6.848   3.108   6.930
    1   AR   Ar  241   1.243   6.629  -0.387
    1   AR   Ar  242   5.430   4.924   0.067
    1   AR   Ar  243   5.681   4.468   2.281
    1   AR   Ar  244   0.757   5.245  -0.009
    1   AR   Ar  245   4.834   0.649   1.330
    1   AR   Ar  246   5.422   5.826   0.480
    1   AR   Ar  247   5.721   4.283   0.809
    1   AR   Ar  248   5.592   5.481  -0.849
    1   AR   Ar  249   4.063   5.671   1.986
    1   AR   Ar  250   4.850   5.748   4.655
    1   AR   Ar  251   5.516   5.195   3.834
    1   AR   Ar  252   4.676   5.410   3.307
    1   AR   Ar  253   6.268   3.606   6.110
    1   AR   Ar  254   1.972   2.682   9.603
    1   AR   Ar  255   4.022   2.913   8.377
    1   AR   Ar  256   6.799   5.368   3.432
    7.12000  7.12000 12.00000
Argon-slab step 3180
  256
    1   AR   Ar    1   7.055   1.207  -1.465
    1   AR   Ar    2   6.603   0.265   0.115
    1   AR   Ar    3   2.432   0.633  -0.021
    1   AR   Ar    4   1.300   0.690  -0.507
    1   AR   Ar    5   7.048   6.877   0.959
    1   AR   Ar    6   6.712   1.049   2.517
    1   AR   Ar    7   6.401   4.329   3.023
    1   AR   Ar    8   5.867   0.279   1.474
    1   AR   Ar    9   1.671   6.934   3.164
    1   AR   Ar   10   0.952   0.264   3.866
    1   AR   Ar   11   1.682   6.284   4.074
    1   AR   Ar   12   0.651   1.257   2.637
    1   AR   Ar   13   0.415   1.021   4.781
    1   AR   Ar   14   0.075   2.399   7.584
    1   AR   Ar   15   4.708   0.246   9.251
    1   AR   Ar   16   1.188   0.024   5.139
    1   AR   Ar   17   6.289   1.830   0.201
    1   AR   Ar   18   6.531   3.186  -0.636
    1   AR   Ar   19   2.113   2.985   1.452
    1   AR   Ar   20   4.599   3.991  -1.796
    1   AR   Ar   21   4.698   1.720   1.372
    1   AR   Ar   22   6.482   2.094   2.476
    1   AR   Ar   23   0.330   1.033  -0.447
    1   AR   Ar   24   0.187   2.367   1.432
    1   AR   Ar   25   0.358   1.192   3.717
    1   AR   Ar   26   5.934   0.122   3.871
    1   AR   Ar   27   1.539   0.980   3.209
    1   AR   Ar   28   0.764   2.079   5.049
    1   AR   Ar   29   5.810   2.930   7.054
    1   AR   Ar   30   1.663   1.505   4.305
    1   AR   Ar   31   3.547   0.540   7.611
    1   AR   Ar   32   1.550   2.866   6.023
    1   AR   Ar   33   0.532   4.074  -0.807
    1   AR   Ar   34   0.259   5.198   2.265
    1   AR   Ar   35   6.033   5.429   1.148
    1   AR   Ar   36   6.576   0.361  -3.734
    1   AR   Ar   37   5.249   2.127   2.342
    1   AR   Ar   38   0.164   4.175   2.312
    1   AR   Ar   39   1.149   3.662   2.658
    1   AR   Ar   40   2.526   4.325   1.563
    1   AR   Ar   41   0.026   2.996   3.953
    1   AR   Ar   42   6.170   5.595   4.631
    1   AR   Ar   43   6.713   2.688   5.972
    1   AR   Ar   44   0.470   4.646   3.253
    1   AR   Ar   45   0.466   3.320   5.826
    1   AR   Ar   46   0.507   5.001   5.775
    1   AR   Ar   47   5.640   4.022   6.948
    1   AR   Ar   48   0.030   5.906   6.756
    1   AR   Ar   49   5.791   0.638  -0.922
    1   AR   Ar   50   4.910   4.980   1.559
    1   AR   Ar   51   6.544   4.637   1.592
    1   AR   Ar   52   5.856   4.860  -1.655
    1   AR   Ar   53   5.588   5.932   2.889
    1   AR   Ar   54   0.210   6.218   2.613
    1   AR   Ar   55   6.488   5.672   2.332
    1   AR   Ar   56   0.025   1.272   0.880
    1   AR   Ar   57   5.178   3.719   3.289
    1   AR   Ar   58   6.679   4.211   4.246
    1   AR   Ar   59   2.150   5.455   5.704
    1   AR   Ar   60   0.683   6.282   3.533
    1   AR   Ar   61   6.907   4.610   6.648
    1   AR   Ar   62   0.060   5.044   4.319
    1   AR   Ar   63   2.306   0.843   6.658
    1   AR   Ar   64   0.898   6.009   4.921
    1   AR   Ar   65   3.645   6.657   0.831
    1   AR   Ar   66   0.777   1.541   1.664
    1   AR   Ar   67   3.353   6.715  -1.336
    1   AR   Ar   68   2.855   1.785  -0.775
    1   AR   Ar   69   2.682   0.836   1.023
    1   AR   Ar   70   0.803   0.065   2.411
    1   AR   Ar   71   2.789   1.348   4.119
    1   AR   Ar   72   3.953   0.202   1.741
    1   AR   Ar   73   3.684   0.315   3.515
    1   AR   Ar   74   1.849   0.299   4.370
    1   AR   Ar   75   3.728   1.039   4.893
    1   AR   Ar   76   1.711   0.951   2.202
    1   AR   Ar   77   2.434   6.746   5.982
    1   AR   Ar   78   0.530   6.844   6.366
    1   AR   Ar   79   3.163   6.067   5.822
    1   AR   Ar   80   4.376   5.031   5.800
    1   AR   Ar   81   2.895   6.532  -0.213
    1   AR   Ar   82   6.637   6.102  -0.654
    1   AR   Ar   83   0.625   2.546   0.016
    1   AR   Ar   84   0.323   3.898   1.104
    1   AR   Ar   85   1.157   3.432   0.843
    1   AR   Ar   86   1.845   4.743  -0.248
    1   AR   Ar   87   1.597   1.897   1.159
    1   AR   Ar   88   2.248   4.930   0.704
    1   AR   Ar   89   0.360   2.919   2.951
    1   AR   Ar   90   2.309   2.330   4.388
    1   AR   Ar   91   1.253   2.000   3.248
    1   AR   Ar   92   1.254   2.397   2.174
    1   AR   Ar   93   2.114   0.654   5.492
    1   AR   Ar   94   0.400   6.935  11.051
    1   AR   Ar   95   3.275   1.275   6.266
    1   AR   Ar   96   2.875   0.333   4.496
    1   AR   Ar   97   5.024   1.713  -0.391
    1   AR   Ar   98   2.181   5.170   2.444
    1   AR   Ar   99   5.740   1.942  -1.259
    1   AR   Ar  100   1.601   3.814  -0.304
    1   AR   Ar  101   3.550   4.322   0.931
    1   AR   Ar  102   3.467   2.393   3.572
    1   AR   Ar  103   0.838   5.000   0.938
    1   AR   Ar  104   2.901   3.491  -1.429
    1   AR   Ar  105   1.470   3.312   4.361
    1   AR   Ar  106   3.229   3.357   5.440
    1   AR   Ar  107   0.890   4.139   4.340
    1   AR   Ar  108   3.328   2.606   4.576
    1   AR   Ar  109   1.886   5.020   4.907
    1   AR   Ar  110   1.277   4.239   5.846
    1   AR   Ar  111   4.923   4.339   7.549
    1   AR   Ar  112   1.515   6.247   6.671
    1   AR   Ar  113   2.883   4.491  -0.432
    1   AR   Ar  114   2.037   6.854  -1.030
    1   AR   Ar  115   2.193   5.299  -1.021
    1   AR   Ar  116   5.470   6.608  -0.649
    1   AR   Ar  117   1.134   5.094   3.806
    1   AR   Ar  118   1.313   5.813   2.822
    1   AR   Ar  119   2.227   2.963   2.683
    1   AR   Ar  120   2.205   6.925   2.167
    1   AR   Ar  121   5.854   4.505   5.740
    1   AR   Ar  122   2.899   6.331   4.890
    1   AR   Ar  123   3.781   4.194   4.785
    1   AR   Ar  124   1.656   6.013   1.590
    1   AR   Ar  125   6.888   4.133   5.408
    1   AR   Ar  126   0.081   6.610   4.240
    1   AR   Ar  127   3.289   4.042   6.297
    1   AR   Ar  128   3.541   5.226   6.380
    1   AR   Ar  129   2.575   6.281   3.133
    1   AR   Ar  130   4.506   3.108  -2.256
    1   AR   Ar  131   4.082   1.359   0.036
    1   AR   Ar  132   6.931   2.115  -0.520
    1   AR   Ar  133   4.685   6.451   2.873
    1   AR   Ar  134   4.563   1.357   3.838
    1   AR   Ar  135   5.474   0.594   2.788
    1   AR   Ar  136   5.003   7.070   2.099
    1   AR   Ar  137   2.695   5.478   3.835
    1   AR   Ar  138   4.843   1.719   5.564
    1   AR   Ar  139   5.802   2.382   5.302
    1   AR   Ar  140   3.784   0.001   4.861
    1   AR   Ar  141   3.917   5.142   4.140
    1   AR   Ar  142   3.286   0.121   6.291
    1   AR   Ar  143   6.758   0.220   5.760
    1   AR   Ar  144   6.901   1.436   5.744
    1   AR   Ar  145   4.609   3.971   0.160
    1   AR   Ar  146   3.157   2.330   2.007
    1   AR   Ar  147   5.194   1.177  -1.669
    1   AR   Ar  148   3.466   4.697  -1.282
    1   AR   Ar  149   2.854   2.063   0.858
    1   AR   Ar  150   2.270   2.004   1.902
    1   AR   Ar  151   2.347   2.117   3.293
    1   AR   Ar  152   3.328   3.129  -0.187
    1   AR   Ar  153   4.698   0.236   3.768
    1   AR   Ar  154   4.480   2.135   4.686
    1   AR   Ar  155   6.637   0.246   6.953
    1   AR   Ar  156   3.824   3.478   4.095
    1   AR   Ar  157   1.842   3.676   6.895
    1   AR   Ar  158   0.791   2.593   6.823
    1   AR   Ar  159   4.594   2.096   6.692
    1   AR   Ar  160   2.640   1.466   5.106
    1   AR   Ar  161   5.377   3.493   2.124
    1   AR   Ar  162   4.466   6.263  -0.770
    1   AR   Ar  163   4.815   3.433   0.975
    1   AR   Ar  164   2.908   5.486   1.484
    1   AR   Ar  165   3.660   2.992   1.176
    1   AR   Ar  166   2.447   3.620   4.714
    1   AR   Ar  167   4.553   0.943   2.610
    1   AR   Ar  168   5.498   2.905  -0.695
    1   AR   Ar  169   2.930   3.507   2.023
    1   AR   Ar  170   2.343   4.261   5.648
    1   AR   Ar  171   5.682   4.238   4.478
    1   AR   Ar  172   4.750   4.664   4.926
    1   AR   Ar  173   2.961   3.712   7.548
    1   AR   Ar  174   2.342   5.212   6.790
    1   AR   Ar  175   2.737   3.107   6.322
    1   AR   Ar  176   3.875   2.555   6.024
    1   AR   Ar  177   6.559   4.743  -0.265
    1   AR   Ar  178   3.879   5.274  -0.305
    1   AR   Ar  179   3.974   5.424   0.849
    1   AR   Ar  180   1.003   1.481  -3.005
    1   AR   Ar  181   0.674   6.139   1.399
    1   AR   Ar  182   2.671   0.578   3.095
    1   AR   Ar  183   3.308   5.119   2.507
    1   AR   Ar  184   4.773   6.606   1.036
    1   AR   Ar  185   3.195   4.828   5.407
    1   AR   Ar  186   3.317   4.115   3.524
    1   AR   Ar  187   3.634   6.315   2.851
    1   AR   Ar  188   3.278   6.368   1.946
    1   AR   Ar  189   3.604   2.974   6.988
    1   AR   Ar  190   4.181   6.335   3.801
    1   AR   Ar  191   3.471   5.918   7.670
    1   AR   Ar  192   3.958   6.092   5.037
    1   AR   Ar  193   2.559   6.085   0.688
    1   AR   Ar  194   4.249   3.550  -0.883
    1   AR   Ar  195   5.478   0.994   0.374
    1   AR   Ar  196   4.669   0.336  -0.264
    1   AR   Ar  197   3.803   0.989   0.990
    1   AR   Ar  198   6.065   1.521   1.223
    1   AR   Ar  199   3.766   1.458   3.241
    1   AR   Ar  200   5.406   2.506   0.232
    1   AR   Ar  201   5.574   6.285   4.154
    1   AR   Ar  202   5.522   1.844   4.385
    1   AR   Ar  203   6.440   6.326   3.316
    1   AR   Ar  204   4.871   6.818   4.967
    1   AR   Ar  205   6.921   0.037   2.070
    1   AR   Ar  206   5.169   0.958   4.873
    1   AR   Ar  207   1.429   1.790   7.041
    1   AR   Ar  208   7.103   0.085   3.313
    1   AR   Ar  209   6.872   2.819  -2.367
    1   AR   Ar  210   3.456   0.396  -0.157
    1   AR   Ar  211   6.324   2.875   0.534
    1   AR   Ar  212   6.152   3.524  -1.753
    1   AR   Ar  213   3.481   1.298   2.018
    1   AR   Ar  214   4.256   3.383   2.904
    1   AR   Ar  215   5.386   2.506   1.292
    1   AR   Ar  216   0.567   3.175   1.827
    1   AR   Ar  217   4.902   3.497   4.395
    1   AR   Ar  218   4.552   3.389   5.466
    1   AR   Ar  219   4.938   2.519   3.731
    1   AR   Ar  220   4.669   4.276   2.434
    1   AR   Ar  221   5.954   7.045   4.969
    1   AR   Ar  222   4.206   0.664   6.812
    1   AR   Ar  223   0.271   1.304   7.014
    1   AR   Ar  224   4.790   3.063   6.688
    1   AR   Ar  225   6.541   3.085   2.404
    1   AR   Ar  226   2.270   3.643   3.582
    1   AR   Ar  227   6.059   3.361   1.364
    1   AR   Ar  228   5.846   6.521   1.922
    1   AR   Ar  229   5.200   4.059  -1.011
    1   AR   Ar  230   4.533   4.291   3.821
    1   AR   Ar  231   5.767   1.346   3.492
    1   AR   Ar  232   4.387   2.567   0.650
    1   AR   Ar  233   6.095   2.484   3.417
    1   AR   Ar  234   6.351   3.113   4.691
    1   AR   Ar  235   6.613   2.044   4.789
    1   AR   Ar  236   5.651   5.836   5.677
    1   AR   Ar  237   5.603   3.534   5.273
    1   AR   Ar  238   4.871   4.170   6.141
    1   AR   Ar  239   5.792   4.259   8.245
    1   AR   Ar  240   6.855   3.064   6.952
    1   AR   Ar  241   1.232   6.611  -0.390
    1   AR   Ar  242   5.439   4.924   0.059
    1   AR   Ar  243   5.687   4.463   2.264
    1   AR   Ar  244   0.765   5.247   0.013
    1   AR   Ar  245   4.818   0.640   1.320
    1   AR   Ar  246   5.421   5.862   0.471
    1   AR   Ar  247   5.732   4.299   0.804
    1   AR   Ar  248   5.581   5.475  -0.859
    1   AR   Ar  249   4.060   5.702   1.955
    1   AR   Ar  250   4.833   5.742   4.646
    1   AR   Ar  251   5.501   5.206   3.853
    1   AR   Ar  252   4.676   5.410   3.285
    1   AR   Ar  253   6.283   3.606   6.109
    1   AR   Ar  254   1.981   2.635   9.593
    1   AR   Ar  255   4.021   2.890   8.392
    1   AR   Ar  256   6.784   5.353   3.377
    7.12000  7.12000 12.00000
Argon-slab step 3185
  256
    1   AR   Ar    1   7.035   1.211  -1.436
    1   AR   Ar    2   6.624   0.232   0.120
    1   AR   Ar    3   2.429   0.639  -0.015
    1   AR   Ar    4   1.302   0.679  -0.528
    1   AR   Ar    5   7.063   6.870   0.973
    1   AR   Ar    6   6.750   1.027   2.543
    1   AR   Ar    7   6.423   4.288   3.029
    1   AR   Ar    8   5.865   0.295   1.475
    1   AR   Ar    9   1.700   6.903   3.177
    1   AR   Ar   10   1.002   0.255   3.843
    1   AR   Ar   11   1.668   6.314   4.093
    1   AR   Ar   12   0.671   1.251   2.656
    1   AR   Ar   13   0.434   0.988   4.771
    1   AR   Ar   14   0.068   2.376   7.609
    1   AR   Ar   15   4.700   0.218   9.209
    1   AR   Ar   16   1.171   7.117   5.137
    1   AR   Ar   17   6.295   1.846   0.241
    1   AR   Ar   18   6.510   3.235  -0.638
    1   AR   Ar   19   2.141   3.010   1.427
    1   AR   Ar   20   4.587   3.986  -1.810
    1   AR   Ar   21   4.735   1.689   1.365
    1   AR   Ar   22   6.493   2.085   2.495
    1   AR   Ar   23   0.356   1.054  -0.463
    1   AR   Ar   24   0.175   2.349   1.443
    1   AR   Ar   25   0.385   1.173   3.718
    1   AR   Ar   26   5.950   0.094   3.874
    1   AR   Ar   27   1.548   0.986   3.244
    1   AR   Ar   28   0.781   2.109   5.066
    1   AR   Ar   29   5.791   2.926   7.051
    1   AR   Ar   30   1.689   1.511   4.278
    1   AR   Ar   31   3.563   0.527   7.600
    1   AR   Ar   32   1.522   2.855   6.052
    1   AR   Ar   33   0.562   4.092  -0.821
    1   AR   Ar   34   0.286   5.197   2.216
    1   AR   Ar   35   6.016   5.433   1.168
    1   AR   Ar   36   6.594   0.436  -3.759
    1   AR   Ar   37   5.263   2.138   2.353
    1   AR   Ar   38   0.166   4.157   2.346
    1   AR   Ar   39   1.106   3.672   2.622
    1   AR   Ar   40   2.540   4.356   1.591
    1   AR   Ar   41   7.120   2.982   3.970
    1   AR   Ar   42   6.218   5.577   4.652
    1   AR   Ar   43   6.696   2.711   5.985
    1   AR   Ar   44   0.427   4.617   3.237
    1   AR   Ar   45   0.468   3.317   5.836
    1   AR   Ar   46   0.504   5.033   5.760
    1   AR   Ar   47   5.642   4.034   6.945
    1   AR   Ar   48   0.004   5.887   6.766
    1   AR   Ar   49   5.783   0.624  -0.932
    1   AR   Ar   50   4.908   4.951   1.519
    1   AR   Ar   51   6.525   4.621   1.620
    1   AR   Ar   52   5.892   4.840  -1.688
    1   AR   Ar   53   5.581   5.913   2.877
    1   AR   Ar   54   0.215   6.233   2.634
    1   AR   Ar   55   6.458   5.643   2.296
    1   AR   Ar   56   7.116   1.295   0.899
    1   AR   Ar   57   5.192   3.734   3.307
    1   AR   Ar   58   6.699   4.190   4.249
    1   AR   Ar   59   2.137   5.463   5.697
    1   AR   Ar   60   0.708   6.267   3.519
    1   AR   Ar   61   6.909   4.653   6.643
    1   AR   Ar   62   0.060   5.076   4.317
    1   AR   Ar   63   2.275   0.866   6.689
    1   AR   Ar   64   0.913   6.021   4.940
    1   AR   Ar   65   3.627   6.658   0.807
    1   AR   Ar   66   0.762   1.529   1.689
    1   AR   Ar   67   3.392   6.688  -1.284
    1   AR   Ar   68   2.846   1.784  -0.757
    1   AR   Ar   69   2.692   0.862   1.049
    1   AR   Ar   70   0.803   0.076   2.406
    1   AR   Ar   71   2.793   1.343   4.112
    1   AR   Ar   72   3.970   0.201   1.743
    1   AR   Ar   73   3.659   0.310   3.509
    1   AR   Ar   74   1.853   0.313   4.419
    1   AR   Ar   75   3.725   1.057   4.889
    1   AR   Ar   76   1.682   0.948   2.197
    1   AR   Ar   77   2.455   6.754   5.948
    1   AR   Ar   78   0.528   6.855   6.344
    1   AR   Ar   79   3.176   6.059   5.803
    1   AR   Ar   80   4.430   5.029   5.809
    1   AR   Ar   81   2.878   6.507  -0.233
    1   AR   Ar   82   6.646   6.124  -0.634
    1   AR   Ar   83   0.631   2.538   0.014
    1   AR   Ar   84   0.322   3.914   1.112
    1   AR   Ar   85   1.140   3.423   0.839
    1   AR   Ar   86   1.839   4.725  -0.263
    1   AR   Ar   87   1.586   1.897   1.198
    1   AR   Ar   88   2.256   4.928   0.729
    1   AR   Ar   89   0.392   2.963   2.926
    1   AR   Ar   90   2.305   2.369   4.395
    1   AR   Ar   91   1.261   1.995   3.246
    1   AR   Ar   92   1.258   2.361   2.136
    1   AR   Ar   93   2.095   0.630   5.479
    1   AR   Ar   94   0.380   6.894  10.996
    1   AR   Ar   95   3.256   1.242   6.289
    1   AR   Ar   96   2.860   0.334   4.503
    1   AR   Ar   97   5.006   1.696  -0.374
    1   AR   Ar   98   2.191   5.147   2.454
    1   AR   Ar   99   5.723   1.902  -1.221
    1   AR   Ar  100   1.599   3.798  -0.285
    1   AR   Ar  101   3.506   4.345   0.928
    1   AR   Ar  102   3.488   2.391   3.566
    1   AR   Ar  103   0.819   5.005   0.933
    1   AR   Ar  104   2.912   3.526  -1.438
    1   AR   Ar  105   1.450   3.276   4.343
    1   AR   Ar  106   3.204   3.334   5.446
    1   AR   Ar  107   0.889   4.156   4.396
    1   AR   Ar  108   3.300   2.601   4.536
    1   AR   Ar  109   1.884   5.013   4.898
    1   AR   Ar  110   1.266   4.274   5.839
    1   AR   Ar  111   4.922   4.340   7.519
    1   AR   Ar  112   1.517   6.248   6.678
    1   AR   Ar  113   2.870   4.528  -0.421
    1   AR   Ar  114   2.062   6.856  -1.034
    1   AR   Ar  115   2.160   5.309  -1.052
    1   AR   Ar  116   5.455   6.616  -0.626
    1   AR   Ar  117   1.134   5.082   3.824
    1   AR   Ar  118   1.305   5.834   2.828
    1   AR   Ar  119   2.227   2.968   2.708
    1   AR   Ar  120   2.223   6.933   2.180
    1   AR   Ar  121   5.850   4.494   5.734
    1   AR   Ar  122   2.889   6.315   4.874
    1   AR   Ar  123   3.764   4.187   4.817
    1   AR   Ar  124   1.652   6.015   1.570
    1   AR   Ar  125   6.877   4.102   5.392
    1   AR   Ar  126   0.065   6.566   4.241
    1   AR   Ar  127   3.305   4.022   6.289
    1   AR   Ar  128   3.526   5.230   6.367
    1   AR   Ar  129   2.544   6.302   3.147
    1   AR   Ar  130   4.468   3.117  -2.265
    1   AR   Ar  131   4.082   1.348   0.032
    1   AR   Ar  132   6.919   2.144  -0.544
    1   AR   Ar  133   4.673   6.436   2.877
    1   AR   Ar  134   4.590   1.369   3.840
    1   AR   Ar  135   5.490   0.592   2.829
    1   AR   Ar  136   4.987   7.060   2.117
    1   AR   Ar  137   2.708   5.494   3.864
    1   AR   Ar  138   4.823   1.680   5.569
    1   AR   Ar  139   5.802   2.367   5.271
    1   AR   Ar  140   3.768   7.119   4.842
    1   AR   Ar  141   3.906   5.150   4.148
    1   AR   Ar  142   3.293   0.110   6.316
    1   AR   Ar  143   6.740   0.220   5.778
    1   AR   Ar  144   6.915   1.464   5.743
    1   AR   Ar  145   4.625   3.992   0.119
    1   AR   Ar  146   3.129   2.328   1.999
    1   AR   Ar  147   5.215   1.203  -1.696
    1   AR   Ar  148   3.434   4.735  -1.271
    1   AR   Ar  149   2.875   2.053   0.839
    1   AR   Ar  150   2.264   1.947   1.885
    1   AR   Ar  151   2.363   2.111   3.284
    1   AR   Ar  152   3.330   3.098  -0.159
    1   AR   Ar  153   4.711   0.261   3.772
    1   AR   Ar  154   4.476   2.138   4.649
    1   AR   Ar  155   6.585   0.245   6.951
    1   AR   Ar  156   3.821   3.449   4.116
    1   AR   Ar  157   1.831   3.670   6.895
    1   AR   Ar  158   0.753   2.606   6.830
    1   AR   Ar  159   4.588   2.085   6.666
    1   AR   Ar  160   2.619   1.477   5.124
    1   AR   Ar  161   5.367   3.495   2.161
    1   AR   Ar  162   4.467   6.255  -0.783
    1   AR   Ar  163   4.829   3.431   0.974
    1   AR   Ar  164   2.879   5.491   1.509
    1   AR   Ar  165   3.631   2.977   1.181
    1   AR   Ar  166   2.447   3.649   4.733
    1   AR   Ar  167   4.542   0.957   2.623
    1   AR   Ar  168   5.504   2.905  -0.755
    1   AR   Ar  169   2.909   3.445   2.036
    1   AR   Ar  170   2.349   4.249   5.600
    1   AR   Ar  171   5.669   4.238   4.495
    1   AR   Ar  172   4.755   4.636   4.937
    1   AR   Ar  173   2.958   3.731   7.525
    1   AR   Ar  174   2.340   5.234   6.784
    1   AR   Ar  175   2.724   3.090   6.308
    1   AR   Ar  176   3.886   2.538   6.038
    1   AR   Ar  177   6.588   4.729  -0.288
    1   AR   Ar  178   3.868   5.256  -0.325
    1   AR   Ar  179   3.978   5.447   0.829
    1   AR   Ar  180   1.004   1.493  -3.023
    1   AR   Ar  181   0.662   6.184   1.407
    1   AR   Ar  182   2.667   0.579   3.093
    1   AR   Ar  183   3.302   5.111   2.494
    1   AR   Ar  184   4.761   6.613   1.036
    1   AR   Ar  185   3.217   4.823   5.375
    1   AR   Ar  186   3.329   4.130   3.529
    1   AR   Ar  187   3.627   6.331   2.845
    1   AR   Ar  188   3.254   6.383   1.920
    1   AR   Ar  189   3.570   2.976   6.991
    1   AR   Ar  190   4.177   6.328   3.802
    1   AR   Ar  191   3.500   5.918   7.656
    1   AR   Ar  192   3.929   6.087   5.048
    1   AR   Ar  193   2.552   6.086   0.700
    1   AR   Ar  194   4.270   3.568  -0.893
    1   AR   Ar  195   5.489   0.991   0.380
    1   AR   Ar  196   4.694   0.364  -0.276
    1   AR   Ar  197   3.820   0.971   0.994
    1   AR   Ar  198   6.071   1.547   1.225
    1   AR   Ar  199   3.750   1.468   3.230
    1   AR   Ar  200   5.423   2.519   0.203
    1   AR   Ar  201   5.615   6.284   4.183
    1   AR   Ar  202   5.527   1.824   4.349
    1   AR   Ar  203   6.449   6.348   3.332
    1   AR   Ar  204   4.838   6.801   4.990
    1   AR   Ar  205   6.934   0.033   2.064
    1   AR   Ar  206   5.161   0.972   4.884
    1   AR   Ar  207   1.436   1.805   7.026
    1   AR   Ar  208   7.107   0.140   3.310
    1   AR   Ar  209   6.874   2.814  -2.354
    1   AR   Ar  210   3.423   0.406  -0.162
    1   AR   Ar  211   6.327   2.870   0.526
    1   AR   Ar  212   6.151   3.533  -1.755
    1   AR   Ar  213   3.512   1.269   2.050
    1   AR   Ar  214   4.259   3.362   2.910
    1   AR   Ar  215   5.394   2.560   1.274
    1   AR   Ar  216   0.562   3.207   1.838
    1   AR   Ar  217   4.885   3.486   4.386
    1   AR   Ar  218   4.511   3.364   5.481
    1   AR   Ar  219   4.911   2.519   3.750
    1   AR   Ar  220   4.643   4.228   2.419
    1   AR   Ar  221   5.967   7.025   4.955
    1   AR   Ar  222   4.242   0.678   6.802
    1   AR   Ar  223   0.283   1.302   7.001
    1   AR   Ar  224   4.819   3.082   6.719
    1   AR   Ar  225   6.560   3.042   2.418
    1   AR   Ar  226   2.245   3.642   3.578
    1   AR   Ar  227   6.057   3.349   1.356
    1   AR   Ar  228   5.869   6.494   1.929
    1   AR   Ar  229   5.178   4.033  -0.984
    1   AR   Ar  230   4.552   4.300   3.824
    1   AR   Ar  231   5.731   1.346   3.503
    1   AR   Ar  232   4.362   2.571   0.646
    1   AR   Ar  233   6.065   2.514   3.423
    1   AR   Ar  234   6.355   3.102   4.720
    1   AR   Ar  235   6.583   2.057   4.773
    1   AR   Ar  236   5.645   5.830   5.681
    1   AR   Ar  237   5.604   3.533   5.276
    1   AR   Ar  238   4.841   4.166   6.147
    1   AR   Ar  239   5.790   4.284   8.250
    1   AR   Ar  240   6.861   3.030   6.965
    1   AR   Ar  241   1.202   6.600  -0.412
    1   AR   Ar  242   5.446   4.920   0.045
    1   AR   Ar  243   5.687   4.477   2.270
    1   AR   Ar  244   0.772   5.253   0.015
    1   AR   Ar  245   4.805   0.633   1.307
    1   AR   Ar  246   5.413   5.908   0.459
    1   AR   Ar  247   5.744   4.311   0.806
    1   AR   Ar  248   5.559   5.467  -0.867
    1   AR   Ar  249   4.063   5.730   1.924
    1   AR   Ar  250   4.819   5.732   4.635
    1   AR   Ar  251   5.491   5.214   3.875
    1   AR   Ar  252   4.669   5.443   3.283
    1   AR   Ar  253   6.295   3.607   6.112
    1   AR   Ar  254   1.989   2.588   9.583
    1   AR   Ar  255   4.020   2.868   8.406
    1   AR   Ar  256   6.768   5.335   3.320
    7.12000  7.12000 12.00000
Argon-slab step 3190
  256
    1   AR   Ar    1   7.014   1.216  -1.407
    1   AR   Ar    2   6.644   0.201   0.124
    1   AR   Ar    3   2.428   0.644  -0.017
    1   AR   Ar    4   1.311   0.675  -0.517
    1   AR   Ar    5   7.076   6.864   0.988
    1   AR   Ar    6   6.787   1.003   2.569
    1   AR   Ar    7   6.447   4.246   3.038
    1   AR   Ar    8   5.865   0.316   1.473
    1   AR   Ar    9   1.725   6.876   3.189
    1   AR   Ar   10   1.045   0.244   3.820
    1   AR   Ar   11   1.680   6.335   4.120
    1   AR   Ar   12   0.691   1.243   2.681
    1   AR   Ar   13   0.454   0.955   4.762
    1   AR   Ar   14   0.065   2.341   7.643
    1   AR   Ar   15   4.692   0.191   9.167
    1   AR   Ar   16   1.152   7.090   5.137
    1   AR   Ar   17   6.299   1.858   0.280
    1   AR   Ar   18   6.492   3.284  -0.639
    1   AR   Ar   19   2.168   3.032   1.402
    1   AR   Ar   20   4.573   4.004  -1.845
    1   AR   Ar   21   4.770   1.659   1.358
    1   AR   Ar   22   6.503   2.059   2.513
    1   AR   Ar   23   0.374   1.078  -0.476
    1   AR   Ar   24   0.159   2.329   1.450
    1   AR   Ar   25   0.413   1.153   3.716
    1   AR   Ar   26   5.967   0.071   3.874
    1   AR   Ar   27   1.559   0.988   3.284
    1   AR   Ar   28   0.797   2.139   5.083
    1   AR   Ar   29   5.775   2.922   7.049
    1   AR   Ar   30   1.713   1.514   4.250
    1   AR   Ar   31   3.576   0.514   7.589
    1   AR   Ar   32   1.494   2.845   6.082
    1   AR   Ar   33   0.591   4.110  -0.833
    1   AR   Ar   34   0.315   5.198   2.167
    1   AR   Ar   35   6.008   5.451   1.182
    1   AR   Ar   36   6.612   0.510  -3.784
    1   AR   Ar   37   5.279   2.149   2.363
    1   AR   Ar   38   0.166   4.133   2.375
    1   AR   Ar   39   1.068   3.684   2.587
    1   AR   Ar   40   2.549   4.348   1.607
    1   AR   Ar   41   7.094   2.968   3.985
    1   AR   Ar   42   6.268   5.556   4.674
    1   AR   Ar   43   6.681   2.722   5.992
    1   AR   Ar   44   0.382   4.586   3.222
    1   AR   Ar   45   0.470   3.315   5.846
    1   AR   Ar   46   0.500   5.066   5.743
    1   AR   Ar   47   5.656   4.031   6.927
    1   AR   Ar   48   7.099   5.869   6.776
    1   AR   Ar   49   5.729   0.616  -0.938
    1   AR   Ar   50   4.906   4.922   1.477
    1   AR   Ar   51   6.510   4.602   1.649
    1   AR   Ar   52   5.929   4.817  -1.720
    1   AR   Ar   53   5.576   5.891   2.865
    1   AR   Ar   54   0.216   6.248   2.648
    1   AR   Ar   55   6.425   5.614   2.260
    1   AR   Ar   56   7.087   1.319   0.918
    1   AR   Ar   57   5.214   3.744   3.319
    1   AR   Ar   58   6.718   4.160   4.250
    1   AR   Ar   59   2.131   5.481   5.709
    1   AR   Ar   60   0.737   6.255   3.511
    1   AR   Ar   61   6.910   4.695   6.637
    1   AR   Ar   62   0.066   5.114   4.315
    1   AR   Ar   63   2.244   0.889   6.718
    1   AR   Ar   64   0.929   6.032   4.958
    1   AR   Ar   65   3.609   6.659   0.783
    1   AR   Ar   66   0.745   1.513   1.710
    1   AR   Ar   67   3.430   6.662  -1.230
    1   AR   Ar   68   2.829   1.785  -0.774
    1   AR   Ar   69   2.703   0.889   1.075
    1   AR   Ar   70   0.808   0.087   2.405
    1   AR   Ar   71   2.799   1.340   4.099
    1   AR   Ar   72   3.985   0.206   1.745
    1   AR   Ar   73   3.633   0.304   3.505
    1   AR   Ar   74   1.857   0.329   4.466
    1   AR   Ar   75   3.731   1.083   4.884
    1   AR   Ar   76   1.654   0.946   2.189
    1   AR   Ar   77   2.466   6.764   5.912
    1   AR   Ar   78   0.525   6.866   6.323
    1   AR   Ar   79   3.194   6.045   5.792
    1   AR   Ar   80   4.480   5.036   5.821
    1   AR   Ar   81   2.863   6.485  -0.255
    1   AR   Ar   82   6.662   6.104  -0.620
    1   AR   Ar   83   0.638   2.531   0.014
    1   AR   Ar   84   0.327   3.920   1.113
    1   AR   Ar   85   1.136   3.423   0.839
    1   AR   Ar   86   1.833   4.724  -0.273
    1   AR   Ar   87   1.568   1.899   1.221
    1   AR   Ar   88   2.265   4.929   0.754
    1   AR   Ar   89   0.424   3.004   2.902
    1   AR   Ar   90   2.298   2.409   4.402
    1   AR   Ar   91   1.267   1.994   3.244
    1   AR   Ar   92   1.262   2.327   2.101
    1   AR   Ar   93   2.076   0.603   5.466
    1   AR   Ar   94   0.360   6.853  10.942
    1   AR   Ar   95   3.237   1.209   6.312
    1   AR   Ar   96   2.848   0.337   4.510
    1   AR   Ar   97   4.989   1.677  -0.358
    1   AR   Ar   98   2.200   5.126   2.463
    1   AR   Ar   99   5.713   1.871  -1.176
    1   AR   Ar  100   1.592   3.763  -0.265
    1   AR   Ar  101   3.461   4.369   0.925
    1   AR   Ar  102   3.508   2.393   3.555
    1   AR   Ar  103   0.801   5.003   0.951
    1   AR   Ar  104   2.924   3.561  -1.445
    1   AR   Ar  105   1.432   3.236   4.325
    1   AR   Ar  106   3.184   3.312   5.445
    1   AR   Ar  107   0.883   4.178   4.452
    1   AR   Ar  108   3.275   2.598   4.506
    1   AR   Ar  109   1.876   4.996   4.870
    1   AR   Ar  110   1.256   4.308   5.832
    1   AR   Ar  111   4.909   4.345   7.497
    1   AR   Ar  112   1.519   6.248   6.684
    1   AR   Ar  113   2.856   4.564  -0.407
    1   AR   Ar  114   2.090   6.859  -1.036
    1   AR   Ar  115   2.129   5.321  -1.086
    1   AR   Ar  116   5.442   6.625  -0.602
    1   AR   Ar  117   1.139   5.075   3.846
    1   AR   Ar  118   1.301   5.853   2.828
    1   AR   Ar  119   2.230   2.964   2.734
    1   AR   Ar  120   2.233   6.926   2.222
    1   AR   Ar  121   5.844   4.487   5.727
    1   AR   Ar  122   2.874   6.301   4.851
    1   AR   Ar  123   3.752   4.179   4.848
    1   AR   Ar  124   1.655   6.016   1.552
    1   AR   Ar  125   6.869   4.071   5.372
    1   AR   Ar  126   0.045   6.524   4.248
    1   AR   Ar  127   3.321   4.005   6.281
    1   AR   Ar  128   3.509   5.231   6.357
    1   AR   Ar  129   2.517   6.321   3.160
    1   AR   Ar  130   4.428   3.117  -2.278
    1   AR   Ar  131   4.081   1.337   0.028
    1   AR   Ar  132   6.907   2.172  -0.572
    1   AR   Ar  133   4.661   6.423   2.880
    1   AR   Ar  134   4.621   1.381   3.845
    1   AR   Ar  135   5.501   0.577   2.776
    1   AR   Ar  136   4.969   7.052   2.132
    1   AR   Ar  137   2.722   5.510   3.894
    1   AR   Ar  138   4.802   1.645   5.577
    1   AR   Ar  139   5.790   2.356   5.249
    1   AR   Ar  140   3.756   7.114   4.823
    1   AR   Ar  141   3.896   5.159   4.156
    1   AR   Ar  142   3.303   0.101   6.344
    1   AR   Ar  143   6.722   0.221   5.795
    1   AR   Ar  144   6.930   1.493   5.740
    1   AR   Ar  145   4.640   4.015   0.075
    1   AR   Ar  146   3.121   2.337   1.992
    1   AR   Ar  147   5.229   1.222  -1.727
    1   AR   Ar  148   3.405   4.774  -1.263
    1   AR   Ar  149   2.895   2.043   0.822
    1   AR   Ar  150   2.250   1.883   1.878
    1   AR   Ar  151   2.374   2.114   3.301
    1   AR   Ar  152   3.333   3.067  -0.130
    1   AR   Ar  153   4.727   0.286   3.775
    1   AR   Ar  154   4.465   2.136   4.624
    1   AR   Ar  155   6.545   0.246   6.940
    1   AR   Ar  156   3.821   3.413   4.135
    1   AR   Ar  157   1.824   3.662   6.892
    1   AR   Ar  158   0.716   2.621   6.834
    1   AR   Ar  159   4.583   2.067   6.642
    1   AR   Ar  160   2.600   1.490   5.144
    1   AR   Ar  161   5.356   3.490   2.198
    1   AR   Ar  162   4.465   6.246  -0.796
    1   AR   Ar  163   4.847   3.432   0.978
    1   AR   Ar  164   2.851   5.492   1.536
    1   AR   Ar  165   3.593   2.966   1.192
    1   AR   Ar  166   2.448   3.676   4.748
    1   AR   Ar  167   4.526   0.971   2.633
    1   AR   Ar  168   5.504   2.910  -0.807
    1   AR   Ar  169   2.892   3.383   2.050
    1   AR   Ar  170   2.354   4.238   5.556
    1   AR   Ar  171   5.656   4.241   4.510
    1   AR   Ar  172   4.763   4.604   4.941
    1   AR   Ar  173   2.955   3.751   7.501
    1   AR   Ar  174   2.339   5.256   6.776
    1   AR   Ar  175   2.705   3.071   6.299
    1   AR   Ar  176   3.894   2.524   6.049
    1   AR   Ar  177   6.616   4.715  -0.310
    1   AR   Ar  178   3.857   5.238  -0.344
    1   AR   Ar  179   3.982   5.470   0.810
    1   AR   Ar  180   1.014   1.493  -3.034
    1   AR   Ar  181   0.643   6.229   1.416
    1   AR   Ar  182   2.660   0.580   3.092
    1   AR   Ar  183   3.297   5.104   2.482
    1   AR   Ar  184   4.749   6.622   1.039
    1   AR   Ar  185   3.237   4.825   5.348
    1   AR   Ar  186   3.340   4.149   3.531
    1   AR   Ar  187   3.621   6.345   2.848
    1   AR   Ar  188   3.224   6.405   1.886
    1   AR   Ar  189   3.538   2.978   6.994
    1   AR   Ar  190   4.171   6.321   3.808
    1   AR   Ar  191   3.534   5.900   7.662
    1   AR   Ar  192   3.902   6.079   5.059
    1   AR   Ar  193   2.540   6.089   0.711
    1   AR   Ar  194   4.276   3.589  -0.911
    1   AR   Ar  195   5.493   1.008   0.383
    1   AR   Ar  196   4.720   0.393  -0.288
    1   AR   Ar  197   3.842   0.954   0.999
    1   AR   Ar  198   6.045   1.566   1.220
    1   AR   Ar  199   3.732   1.472   3.214
    1   AR   Ar  200   5.433   2.530   0.176
    1   AR   Ar  201   5.647   6.277   4.193
    1   AR   Ar  202   5.530   1.812   4.321
    1   AR   Ar  203   6.458   6.373   3.349
    1   AR   Ar  204   4.805   6.785   5.012
    1   AR   Ar  205   6.942   0.028   2.057
    1   AR   Ar  206   5.139   0.989   4.918
    1   AR   Ar  207   1.440   1.812   7.010
    1   AR   Ar  208   7.112   0.194   3.305
    1   AR   Ar  209   6.876   2.808  -2.339
    1   AR   Ar  210   3.395   0.415  -0.166
    1   AR   Ar  211   6.302   2.865   0.554
    1   AR   Ar  212   6.148   3.543  -1.756
    1   AR   Ar  213   3.544   1.240   2.082
    1   AR   Ar  214   4.257   3.346   2.921
    1   AR   Ar  215   5.401   2.610   1.257
    1   AR   Ar  216   0.558   3.241   1.852
    1   AR   Ar  217   4.870   3.472   4.381
    1   AR   Ar  218   4.469   3.339   5.495
    1   AR   Ar  219   4.884   2.521   3.766
    1   AR   Ar  220   4.615   4.185   2.404
    1   AR   Ar  221   5.949   7.000   4.944
    1   AR   Ar  222   4.279   0.693   6.788
    1   AR   Ar  223   0.281   1.302   6.975
    1   AR   Ar  224   4.837   3.065   6.706
    1   AR   Ar  225   6.579   3.018   2.430
    1   AR   Ar  226   2.221   3.640   3.576
    1   AR   Ar  227   6.061   3.357   1.372
    1   AR   Ar  228   5.894   6.461   1.938
    1   AR   Ar  229   5.156   4.074  -0.985
    1   AR   Ar  230   4.564   4.317   3.831
    1   AR   Ar  231   5.697   1.344   3.506
    1   AR   Ar  232   4.345   2.566   0.635
    1   AR   Ar  233   6.066   2.517   3.452
    1   AR   Ar  234   6.361   3.093   4.747
    1   AR   Ar  235   6.565   2.063   4.750
    1   AR   Ar  236   5.640   5.823   5.683
    1   AR   Ar  237   5.600   3.536   5.281
    1   AR   Ar  238   4.816   4.155   6.155
    1   AR   Ar  239   5.788   4.310   8.253
    1   AR   Ar  240   6.863   3.009   6.970
    1   AR   Ar  241   1.171   6.590  -0.434
    1   AR   Ar  242   5.450   4.917   0.028
    1   AR   Ar  243   5.687   4.496   2.275
    1   AR   Ar  244   0.778   5.264  -0.003
    1   AR   Ar  245   4.798   0.626   1.291
    1   AR   Ar  246   5.403   5.957   0.444
    1   AR   Ar  247   5.757   4.320   0.813
    1   AR   Ar  248   5.538   5.462  -0.875
    1   AR   Ar  249   4.068   5.756   1.893
    1   AR   Ar  250   4.806   5.718   4.622
    1   AR   Ar  251   5.483   5.220   3.899
    1   AR   Ar  252   4.656   5.475   3.281
    1   AR   Ar  253   6.303   3.615   6.123
    1   AR   Ar  254   1.998   2.541   9.572
    1   AR   Ar  255   4.019   2.845   8.419
    1   AR   Ar  256   6.751   5.318   3.262
    7.12000  7.12000 12.00000
Argon-slab step 3195
  256
    1   AR   Ar    1   6.991   1.222  -1.380
    1   AR   Ar    2   6.662   0.172   0.126
    1   AR   Ar    3   2.442   0.649  -0.048
    1   AR   Ar    4   1.329   0.676  -0.485
    1   AR   Ar    5   7.086   6.861   1.003
    1   AR   Ar    6   6.821   0.978   2.596
    1   AR   Ar    7   6.469   4.204   3.048
    1   AR   Ar    8   5.864   0.340   1.472
    1   AR   Ar    9   1.736   6.860   3.199
    1   AR   Ar   10   1.080   0.230   3.798
    1   AR   Ar   11   1.708   6.350   4.154
    1   AR   Ar   12   0.713   1.234   2.711
    1   AR   Ar   13   0.475   0.921   4.756
    1   AR   Ar   14   0.064   2.299   7.684
    1   AR   Ar   15   4.684   0.164   9.124
    1   AR   Ar   16   1.129   7.062   5.139
    1   AR   Ar   17   6.305   1.857   0.299
    1   AR   Ar   18   6.475   3.333  -0.640
    1   AR   Ar   19   2.191   3.050   1.374
    1   AR   Ar   20   4.560   4.034  -1.885
    1   AR   Ar   21   4.806   1.635   1.350
    1   AR   Ar   22   6.511   2.017   2.533
    1   AR   Ar   23   0.387   1.106  -0.486
    1   AR   Ar   24   0.138   2.310   1.456
    1   AR   Ar   25   0.442   1.135   3.713
    1   AR   Ar   26   5.984   0.056   3.870
    1   AR   Ar   27   1.573   0.988   3.323
    1   AR   Ar   28   0.813   2.168   5.100
    1   AR   Ar   29   5.767   2.918   7.047
    1   AR   Ar   30   1.735   1.515   4.222
    1   AR   Ar   31   3.588   0.500   7.579
    1   AR   Ar   32   1.466   2.836   6.112
    1   AR   Ar   33   0.620   4.129  -0.843
    1   AR   Ar   34   0.346   5.199   2.118
    1   AR   Ar   35   6.000   5.469   1.197
    1   AR   Ar   36   6.629   0.585  -3.809
    1   AR   Ar   37   5.295   2.159   2.373
    1   AR   Ar   38   0.157   4.104   2.391
    1   AR   Ar   39   1.049   3.707   2.558
    1   AR   Ar   40   2.560   4.341   1.625
    1   AR   Ar   41   7.069   2.954   3.999
    1   AR   Ar   42   6.318   5.534   4.698
    1   AR   Ar   43   6.669   2.717   5.991
    1   AR   Ar   44   0.341   4.558   3.218
    1   AR   Ar   45   0.473   3.314   5.856
    1   AR   Ar   46   0.494   5.100   5.726
    1   AR   Ar   47   5.679   4.025   6.901
    1   AR   Ar   48   7.074   5.850   6.784
    1   AR   Ar   49   5.675   0.608  -0.942
    1   AR   Ar   50   4.906   4.893   1.436
    1   AR   Ar   51   6.500   4.582   1.676
    1   AR   Ar   52   5.965   4.793  -1.752
    1   AR   Ar   53   5.573   5.868   2.854
    1   AR   Ar   54   0.213   6.263   2.656
    1   AR   Ar   55   6.394   5.581   2.223
    1   AR   Ar   56   7.057   1.343   0.936
    1   AR   Ar   57   5.243   3.749   3.328
    1   AR   Ar   58   6.737   4.128   4.249
    1   AR   Ar   59   2.129   5.505   5.729
    1   AR   Ar   60   0.763   6.249   3.518
    1   AR   Ar   61   6.911   4.737   6.628
    1   AR   Ar   62   0.076   5.154   4.312
    1   AR   Ar   63   2.213   0.911   6.745
    1   AR   Ar   64   0.944   6.041   4.974
    1   AR   Ar   65   3.602   6.658   0.769
    1   AR   Ar   66   0.726   1.489   1.727
    1   AR   Ar   67   3.468   6.636  -1.174
    1   AR   Ar   68   2.811   1.786  -0.798
    1   AR   Ar   69   2.715   0.917   1.103
    1   AR   Ar   70   0.817   0.099   2.407
    1   AR   Ar   71   2.806   1.338   4.081
    1   AR   Ar   72   3.994   0.206   1.751
    1   AR   Ar   73   3.609   0.298   3.502
    1   AR   Ar   74   1.855   0.347   4.507
    1   AR   Ar   75   3.737   1.110   4.877
    1   AR   Ar   76   1.626   0.944   2.181
    1   AR   Ar   77   2.469   6.776   5.874
    1   AR   Ar   78   0.522   6.877   6.301
    1   AR   Ar   79   3.211   6.029   5.787
    1   AR   Ar   80   4.524   5.054   5.833
    1   AR   Ar   81   2.849   6.463  -0.278
    1   AR   Ar   82   6.677   6.084  -0.604
    1   AR   Ar   83   0.646   2.525   0.016
    1   AR   Ar   84   0.346   3.909   1.105
    1   AR   Ar   85   1.142   3.417   0.837
    1   AR   Ar   86   1.823   4.733  -0.280
    1   AR   Ar   87   1.539   1.901   1.223
    1   AR   Ar   88   2.274   4.931   0.776
    1   AR   Ar   89   0.449   3.036   2.883
    1   AR   Ar   90   2.282   2.448   4.407
    1   AR   Ar   91   1.272   1.996   3.242
    1   AR   Ar   92   1.288   2.337   2.129
    1   AR   Ar   93   2.058   0.575   5.457
    1   AR   Ar   94   0.345   6.822  10.902
    1   AR   Ar   95   3.219   1.176   6.333
    1   AR   Ar   96   2.841   0.342   4.517
    1   AR   Ar   97   4.976   1.659  -0.343
    1   AR   Ar   98   2.209   5.106   2.472
    1   AR   Ar   99   5.711   1.849  -1.122
    1   AR   Ar  100   1.581   3.717  -0.244
    1   AR   Ar  101   3.416   4.394   0.922
    1   AR   Ar  102   3.528   2.401   3.540
    1   AR   Ar  103   0.784   4.999   0.981
    1   AR   Ar  104   2.938   3.598  -1.451
    1   AR   Ar  105   1.416   3.195   4.307
    1   AR   Ar  106   3.170   3.292   5.437
    1   AR   Ar  107   0.876   4.202   4.509
    1   AR   Ar  108   3.255   2.595   4.488
    1   AR   Ar  109   1.886   4.961   4.843
    1   AR   Ar  110   1.247   4.339   5.824
    1   AR   Ar  111   4.888   4.353   7.481
    1   AR   Ar  112   1.522   6.249   6.688
    1   AR   Ar  113   2.844   4.599  -0.389
    1   AR   Ar  114   2.118   6.862  -1.037
    1   AR   Ar  115   2.104   5.313  -1.111
    1   AR   Ar  116   5.432   6.635  -0.577
    1   AR   Ar  117   1.143   5.070   3.868
    1   AR   Ar  118   1.307   5.866   2.817
    1   AR   Ar  119   2.229   2.960   2.756
    1   AR   Ar  120   2.243   6.919   2.263
    1   AR   Ar  121   5.836   4.483   5.719
    1   AR   Ar  122   2.855   6.291   4.821
    1   AR   Ar  123   3.748   4.161   4.873
    1   AR   Ar  124   1.665   6.014   1.535
    1   AR   Ar  125   6.861   4.043   5.350
    1   AR   Ar  126   0.022   6.482   4.256
    1   AR   Ar  127   3.337   3.989   6.273
    1   AR   Ar  128   3.492   5.228   6.349
    1   AR   Ar  129   2.503   6.330   3.171
    1   AR   Ar  130   4.388   3.108  -2.295
    1   AR   Ar  131   4.077   1.325   0.025
    1   AR   Ar  132   6.893   2.200  -0.601
    1   AR   Ar  133   4.650   6.414   2.883
    1   AR   Ar  134   4.652   1.392   3.850
    1   AR   Ar  135   5.515   0.561   2.725
    1   AR   Ar  136   4.953   7.045   2.141
    1   AR   Ar  137   2.737   5.526   3.926
    1   AR   Ar  138   4.767   1.630   5.585
    1   AR   Ar  139   5.762   2.349   5.238
    1   AR   Ar  140   3.749   7.107   4.804
    1   AR   Ar  141   3.887   5.169   4.166
    1   AR   Ar  142   3.317   0.094   6.373
    1   AR   Ar  143   6.705   0.223   5.813
    1   AR   Ar  144   6.944   1.522   5.737
    1   AR   Ar  145   4.656   4.040   0.029
    1   AR   Ar  146   3.122   2.348   1.987
    1   AR   Ar  147   5.237   1.232  -1.765
    1   AR   Ar  148   3.378   4.813  -1.258
    1   AR   Ar  149   2.916   2.033   0.807
    1   AR   Ar  150   2.244   1.812   1.886
    1   AR   Ar  151   2.386   2.110   3.321
    1   AR   Ar  152   3.338   3.037  -0.100
    1   AR   Ar  153   4.740   0.302   3.782
    1   AR   Ar  154   4.433   2.110   4.654
    1   AR   Ar  155   6.523   0.250   6.918
    1   AR   Ar  156   3.824   3.374   4.150
    1   AR   Ar  157   1.830   3.644   6.882
    1   AR   Ar  158   0.681   2.636   6.835
    1   AR   Ar  159   4.581   2.040   6.620
    1   AR   Ar  160   2.582   1.505   5.164
    1   AR   Ar  161   5.347   3.479   2.235
    1   AR   Ar  162   4.460   6.236  -0.807
    1   AR   Ar  163   4.865   3.440   0.982
    1   AR   Ar  164   2.822   5.487   1.563
    1   AR   Ar  165   3.549   2.959   1.206
    1   AR   Ar  166   2.449   3.697   4.751
    1   AR   Ar  167   4.509   0.986   2.643
    1   AR   Ar  168   5.484   2.930  -0.811
    1   AR   Ar  169   2.881   3.327   2.063
    1   AR   Ar  170   2.359   4.233   5.524
    1   AR   Ar  171   5.657   4.230   4.510
    1   AR   Ar  172   4.771   4.571   4.941
    1   AR   Ar  173   2.951   3.771   7.475
    1   AR   Ar  174   2.338   5.279   6.767
    1   AR   Ar  175   2.680   3.052   6.296
    1   AR   Ar  176   3.898   2.514   6.054
    1   AR   Ar  177   6.644   4.701  -0.332
    1   AR   Ar  178   3.846   5.220  -0.363
    1   AR   Ar  179   3.986   5.494   0.791
    1   AR   Ar  180   1.030   1.486  -3.041
    1   AR   Ar  181   0.623   6.232   1.422
    1   AR   Ar  182   2.651   0.580   3.092
    1   AR   Ar  183   3.294   5.098   2.469
    1   AR   Ar  184   4.735   6.632   1.044
    1   AR   Ar  185   3.248   4.841   5.329
    1   AR   Ar  186   3.350   4.170   3.532
    1   AR   Ar  187   3.612   6.359   2.853
    1   AR   Ar  188   3.192   6.431   1.849
    1   AR   Ar  189   3.509   2.981   6.996
    1   AR   Ar  190   4.165   6.315   3.819
    1   AR   Ar  191   3.517   5.925   7.661
    1   AR   Ar  192   3.880   6.069   5.066
    1   AR   Ar  193   2.528   6.094   0.723
    1   AR   Ar  194   4.274   3.605  -0.926
    1   AR   Ar  195   5.485   1.054   0.385
    1   AR   Ar  196   4.744   0.412  -0.296
    1   AR   Ar  197   3.860   0.939   1.003
    1   AR   Ar  198   6.007   1.583   1.220
    1   AR   Ar  199   3.712   1.467   3.196
    1   AR   Ar  200   5.435   2.538   0.149
    1   AR   Ar  201   5.669   6.257   4.178
    1   AR   Ar  202   5.531   1.812   4.311
    1   AR   Ar  203   6.469   6.398   3.365
    1   AR   Ar  204   4.774   6.768   5.031
    1   AR   Ar  205   6.946   0.022   2.050
    1   AR   Ar  206   5.120   0.997   4.942
    1   AR   Ar  207   1.425   1.795   6.985
    1   AR   Ar  208   7.118   0.246   3.300
    1   AR   Ar  209   6.877   2.803  -2.324
    1   AR   Ar  210   3.378   0.420  -0.171
    1   AR   Ar  211   6.287   2.861   0.575
    1   AR   Ar  212   6.145   3.552  -1.754
    1   AR   Ar  213   3.576   1.210   2.114
    1   AR   Ar  214   4.246   3.336   2.941
    1   AR   Ar  215   5.406   2.647   1.242
    1   AR   Ar  216   0.552   3.267   1.862
    1   AR   Ar  217   4.857   3.456   4.379
    1   AR   Ar  218   4.426   3.314   5.508
    1   AR   Ar  219   4.859   2.525   3.777
    1   AR   Ar  220   4.585   4.148   2.389
    1   AR   Ar  221   5.912   6.972   4.936
    1   AR   Ar  222   4.315   0.708   6.772
    1   AR   Ar  223   0.258   1.305   6.928
    1   AR   Ar  224   4.847   3.045   6.680
    1   AR   Ar  225   6.598   3.012   2.437
    1   AR   Ar  226   2.197   3.639   3.576
    1   AR   Ar  227   6.071   3.385   1.412
    1   AR   Ar  228   5.918   6.428   1.947
    1   AR   Ar  229   5.144   4.120  -0.983
    1   AR   Ar  230   4.569   4.342   3.841
    1   AR   Ar  231   5.667   1.334   3.493
    1   AR   Ar  232   4.332   2.554   0.620
    1   AR   Ar  233   6.064   2.516   3.495
    1   AR   Ar  234   6.370   3.090   4.772
    1   AR   Ar  235   6.562   2.062   4.719
    1   AR   Ar  236   5.633   5.814   5.686
    1   AR   Ar  237   5.594   3.530   5.290
    1   AR   Ar  238   4.794   4.136   6.166
    1   AR   Ar  239   5.786   4.335   8.255
    1   AR   Ar  240   6.860   2.998   6.973
    1   AR   Ar  241   1.140   6.579  -0.455
    1   AR   Ar  242   5.453   4.914   0.008
    1   AR   Ar  243   5.685   4.517   2.282
    1   AR   Ar  244   0.784   5.277  -0.034
    1   AR   Ar  245   4.798   0.616   1.272
    1   AR   Ar  246   5.392   6.007   0.426
    1   AR   Ar  247   5.771   4.325   0.826
    1   AR   Ar  248   5.517   5.459  -0.883
    1   AR   Ar  249   4.076   5.781   1.862
    1   AR   Ar  250   4.794   5.702   4.609
    1   AR   Ar  251   5.478   5.225   3.924
    1   AR   Ar  252   4.641   5.500   3.280
    1   AR   Ar  253   6.307   3.631   6.139
    1   AR   Ar  254   2.006   2.494   9.562
    1   AR   Ar  255   4.018   2.823   8.431
    1   AR   Ar  256   6.732   5.302   3.205
    7.12000  7.12000 12.00000
Argon-slab step 3200
  256
    1   AR   Ar    1   6.965   1.230  -1.355
    1   AR   Ar    2   6.679   0.144   0.125
    1   AR   Ar    3   2.440   0.658  -0.077
    1   AR   Ar    4   1.351   0.675  -0.454
    1   AR   Ar    5   7.091   6.862   1.015
    1   AR   Ar    6   6.851   0.953   2.620
    1   AR   Ar    7   6.486   4.162   3.060
    1   AR   Ar    8   5.864   0.365   1.470
    1   AR   Ar    9   1.726   6.859   3.206
    1   AR   Ar   10   1.105   0.214   3.782
    1   AR   Ar   11   1.736   6.366   4.188
    1   AR   Ar   12   0.736   1.222   2.743
    1   AR   Ar   13   0.497   0.886   4.752
    1   AR   Ar   14   0.028   2.294   7.681
    1   AR   Ar   15   4.675   0.136   9.082
    1   AR   Ar   16   1.105   7.037   5.143
    1   AR   Ar   17   6.328   1.884   0.312
    1   AR   Ar   18   6.459   3.382  -0.639
    1   AR   Ar   19   2.209   3.065   1.343
    1   AR   Ar   20   4.548   4.071  -1.925
    1   AR   Ar   21   4.842   1.616   1.342
    1   AR   Ar   22   6.517   1.967   2.552
    1   AR   Ar   23   0.397   1.135  -0.491
    1   AR   Ar   24   0.114   2.295   1.462
    1   AR   Ar   25   0.471   1.118   3.711
    1   AR   Ar   26   5.991   0.049   3.869
    1   AR   Ar   27   1.593   0.987   3.358
    1   AR   Ar   28   0.828   2.198   5.117
    1   AR   Ar   29   5.767   2.912   7.048
    1   AR   Ar   30   1.757   1.517   4.196
    1   AR   Ar   31   3.599   0.486   7.567
    1   AR   Ar   32   1.441   2.828   6.141
    1   AR   Ar   33   0.650   4.147  -0.852
    1   AR   Ar   34   0.376   5.201   2.070
    1   AR   Ar   35   5.990   5.485   1.212
    1   AR   Ar   36   6.647   0.659  -3.834
    1   AR   Ar   37   5.313   2.170   2.383
    1   AR   Ar   38   0.137   4.071   2.386
    1   AR   Ar   39   1.061   3.747   2.537
    1   AR   Ar   40   2.565   4.329   1.646
    1   AR   Ar   41   7.046   2.940   4.010
    1   AR   Ar   42   6.362   5.514   4.723
    1   AR   Ar   43   6.660   2.702   5.983
    1   AR   Ar   44   0.315   4.554   3.232
    1   AR   Ar   45   0.476   3.313   5.868
    1   AR   Ar   46   0.485   5.136   5.708
    1   AR   Ar   47   5.704   4.018   6.873
    1   AR   Ar   48   7.049   5.832   6.791
    1   AR   Ar   49   5.621   0.601  -0.943
    1   AR   Ar   50   4.906   4.864   1.395
    1   AR   Ar   51   6.496   4.562   1.700
    1   AR   Ar   52   6.000   4.767  -1.782
    1   AR   Ar   53   5.571   5.845   2.846
    1   AR   Ar   54   0.206   6.277   2.657
    1   AR   Ar   55   6.369   5.542   2.187
    1   AR   Ar   56   7.028   1.366   0.953
    1   AR   Ar   57   5.275   3.752   3.335
    1   AR   Ar   58   6.757   4.095   4.247
    1   AR   Ar   59   2.129   5.530   5.748
    1   AR   Ar   60   0.756   6.248   3.487
    1   AR   Ar   61   6.911   4.777   6.618
    1   AR   Ar   62   0.091   5.192   4.306
    1   AR   Ar   63   2.181   0.933   6.772
    1   AR   Ar   64   0.958   6.046   4.988
    1   AR   Ar   65   3.644   6.648   0.787
    1   AR   Ar   66   0.705   1.462   1.741
    1   AR   Ar   67   3.506   6.610  -1.118
    1   AR   Ar   68   2.793   1.787  -0.822
    1   AR   Ar   69   2.727   0.946   1.130
    1   AR   Ar   70   0.805   0.086   2.412
    1   AR   Ar   71   2.815   1.337   4.062
    1   AR   Ar   72   3.997   0.201   1.762
    1   AR   Ar   73   3.586   0.292   3.500
    1   AR   Ar   74   1.844   0.365   4.537
    1   AR   Ar   75   3.741   1.119   4.888
    1   AR   Ar   76   1.598   0.941   2.173
    1   AR   Ar   77   2.469   6.787   5.835
    1   AR   Ar   78   0.519   6.887   6.278
    1   AR   Ar   79   3.219   6.013   5.789
    1   AR   Ar   80   4.565   5.080   5.844
    1   AR   Ar   81   2.835   6.443  -0.299
    1   AR   Ar   82   6.690   6.064  -0.588
    1   AR   Ar   83   0.653   2.519   0.019
    1   AR   Ar   84   0.351   3.912   1.097
    1   AR   Ar   85   1.161   3.402   0.830
    1   AR   Ar   86   1.808   4.745  -0.283
    1   AR   Ar   87   1.503   1.905   1.208
    1   AR   Ar   88   2.282   4.932   0.787
    1   AR   Ar   89   0.463   3.053   2.875
    1   AR   Ar   90   2.257   2.486   4.411
    1   AR   Ar   91   1.277   2.003   3.240
    1   AR   Ar   92   1.313   2.351   2.162
    1   AR   Ar   93   2.041   0.549   5.457
    1   AR   Ar   94   0.346   6.827  10.922
    1   AR   Ar   95   3.202   1.144   6.354
    1   AR   Ar   96   2.840   0.348   4.522
    1   AR   Ar   97   4.972   1.664  -0.340
    1   AR   Ar   98   2.216   5.087   2.480
    1   AR   Ar   99   5.716   1.831  -1.063
    1   AR   Ar  100   1.569   3.667  -0.223
    1   AR   Ar  101   3.402   4.406   0.918
    1   AR   Ar  102   3.549   2.415   3.519
    1   AR   Ar  103   0.767   4.994   1.017
    1   AR   Ar  104   2.953   3.636  -1.456
    1   AR   Ar  105   1.401   3.153   4.289
    1   AR   Ar  106   3.162   3.272   5.423
    1   AR   Ar  107   0.867   4.225   4.567
    1   AR   Ar  108   3.242   2.591   4.482
    1   AR   Ar  109   1.899   4.922   4.817
    1   AR   Ar  110   1.231   4.344   5.802
    1   AR   Ar  111   4.863   4.362   7.466
    1   AR   Ar  112   1.525   6.249   6.690
    1   AR   Ar  113   2.835   4.633  -0.367
    1   AR   Ar  114   2.147   6.865  -1.036
    1   AR   Ar  115   2.080   5.301  -1.136
    1   AR   Ar  116   5.424   6.645  -0.551
    1   AR   Ar  117   1.148   5.068   3.891
    1   AR   Ar  118   1.312   5.869   2.842
    1   AR   Ar  119   2.222   2.955   2.778
    1   AR   Ar  120   2.253   6.913   2.302
    1   AR   Ar  121   5.827   4.483   5.710
    1   AR   Ar  122   2.833   6.282   4.788
    1   AR   Ar  123   3.755   4.130   4.889
    1   AR   Ar  124   1.678   6.012   1.520
    1   AR   Ar  125   6.855   4.015   5.325
    1   AR   Ar  126   7.117   6.441   4.265
    1   AR   Ar  127   3.353   3.974   6.265
    1   AR   Ar  128   3.477   5.219   6.345
    1   AR   Ar  129   2.513   6.322   3.181
    1   AR   Ar  130   4.361   3.086  -2.307
    1   AR   Ar  131   4.070   1.311   0.022
    1   AR   Ar  132   6.879   2.228  -0.631
    1   AR   Ar  133   4.641   6.413   2.885
    1   AR   Ar  134   4.680   1.403   3.855
    1   AR   Ar  135   5.534   0.546   2.677
    1   AR   Ar  136   4.937   7.039   2.142
    1   AR   Ar  137   2.751   5.543   3.959
    1   AR   Ar  138   4.721   1.634   5.599
    1   AR   Ar  139   5.723   2.345   5.235
    1   AR   Ar  140   3.747   7.098   4.785
    1   AR   Ar  141   3.885   5.160   4.179
    1   AR   Ar  142   3.318   0.096   6.372
    1   AR   Ar  143   6.689   0.224   5.829
    1   AR   Ar  144   6.959   1.552   5.733
    1   AR   Ar  145   4.673   4.065  -0.015
    1   AR   Ar  146   3.129   2.352   1.983
    1   AR   Ar  147   5.241   1.237  -1.808
    1   AR   Ar  148   3.352   4.851  -1.257
    1   AR   Ar  149   2.938   2.024   0.794
    1   AR   Ar  150   2.246   1.739   1.904
    1   AR   Ar  151   2.401   2.102   3.344
    1   AR   Ar  152   3.344   3.006  -0.069
    1   AR   Ar  153   4.741   0.288   3.801
    1   AR   Ar  154   4.399   2.084   4.687
    1   AR   Ar  155   6.502   0.253   6.895
    1   AR   Ar  156   3.830   3.337   4.162
    1   AR   Ar  157   1.838   3.625   6.870
    1   AR   Ar  158   0.651   2.649   6.834
    1   AR   Ar  159   4.583   2.006   6.602
    1   AR   Ar  160   2.564   1.520   5.183
    1   AR   Ar  161   5.341   3.461   2.270
    1   AR   Ar  162   4.454   6.224  -0.818
    1   AR   Ar  163   4.880   3.457   0.985
    1   AR   Ar  164   2.793   5.480   1.591
    1   AR   Ar  165   3.503   2.954   1.220
    1   AR   Ar  166   2.451   3.703   4.732
    1   AR   Ar  167   4.493   0.998   2.653
    1   AR   Ar  168   5.462   2.953  -0.820
    1   AR   Ar  169   2.878   3.282   2.078
    1   AR   Ar  170   2.361   4.240   5.513
    1   AR   Ar  171   5.681   4.197   4.488
    1   AR   Ar  172   4.777   4.536   4.938
    1   AR   Ar  173   2.945   3.792   7.448
    1   AR   Ar  174   2.339   5.302   6.758
    1   AR   Ar  175   2.651   3.031   6.297
    1   AR   Ar  176   3.896   2.508   6.054
    1   AR   Ar  177   6.671   4.687  -0.353
    1   AR   Ar  178   3.832   5.192  -0.373
    1   AR   Ar  179   3.989   5.518   0.772
    1   AR   Ar  180   1.046   1.478  -3.048
    1   AR   Ar  181   0.606   6.205   1.429
    1   AR   Ar  182   2.640   0.581   3.091
    1   AR   Ar  183   3.292   5.092   2.457
    1   AR   Ar  184   4.720   6.642   1.050
    1   AR   Ar  185   3.199   4.839   5.311
    1   AR   Ar  186   3.362   4.192   3.534
    1   AR   Ar  187   3.599   6.372   2.859
    1   AR   Ar  188   3.160   6.461   1.811
    1   AR   Ar  189   3.482   2.982   6.998
    1   AR   Ar  190   4.157   6.310   3.837
    1   AR   Ar  191   3.500   5.950   7.660
    1   AR   Ar  192   3.866   6.056   5.063
    1   AR   Ar  193   2.515   6.098   0.735
    1   AR   Ar  194   4.265   3.615  -0.943
    1   AR   Ar  195   5.476   1.098   0.389
    1   AR   Ar  196   4.760   0.392  -0.289
    1   AR   Ar  197   3.872   0.928   1.005
    1   AR   Ar  198   5.966   1.598   1.228
    1   AR   Ar  199   3.692   1.455   3.177
    1   AR   Ar  200   5.429   2.541   0.123
    1   AR   Ar  201   5.687   6.233   4.162
    1   AR   Ar  202   5.530   1.823   4.317
    1   AR   Ar  203   6.481   6.419   3.379
    1   AR   Ar  204   4.744   6.750   5.048
    1   AR   Ar  205   6.946   0.015   2.043
    1   AR   Ar  206   5.105   0.994   4.954
    1   AR   Ar  207   1.410   1.778   6.960
    1   AR   Ar  208   0.005   0.293   3.295
    1   AR   Ar  209   6.878   2.798  -2.307
    1   AR   Ar  210   3.376   0.421  -0.176
    1   AR   Ar  211   6.282   2.859   0.595
    1   AR   Ar  212   6.141   3.561  -1.751
    1   AR   Ar  213   3.606   1.181   2.144
    1   AR   Ar  214   4.243   3.313   2.954
    1   AR   Ar  215   5.411   2.670   1.230
    1   AR   Ar  216   0.539   3.279   1.860
    1   AR   Ar  217   4.846   3.439   4.380
    1   AR   Ar  218   4.383   3.290   5.519
    1   AR   Ar  219   4.834   2.531   3.784
    1   AR   Ar  220   4.554   4.119   2.373
    1   AR   Ar  221   5.874   6.944   4.932
    1   AR   Ar  222   4.350   0.725   6.755
    1   AR   Ar  223   0.235   1.309   6.881
    1   AR   Ar  224   4.848   3.031   6.648
    1   AR   Ar  225   6.614   3.019   2.443
    1   AR   Ar  226   2.173   3.639   3.579
    1   AR   Ar  227   6.085   3.423   1.459
    1   AR   Ar  228   5.938   6.403   1.954
    1   AR   Ar  229   5.142   4.170  -0.980
    1   AR   Ar  230   4.571   4.371   3.853
    1   AR   Ar  231   5.642   1.315   3.462
    1   AR   Ar  232   4.322   2.539   0.601
    1   AR   Ar  233   6.062   2.514   3.539
    1   AR   Ar  234   6.382   3.091   4.797
    1   AR   Ar  235   6.569   2.054   4.682
    1   AR   Ar  236   5.624   5.800   5.704
    1   AR   Ar  237   5.591   3.496   5.304
    1   AR   Ar  238   4.776   4.109   6.179
    1   AR   Ar  239   5.782   4.359   8.255
    1   AR   Ar  240   6.851   2.994   6.975
    1   AR   Ar  241   1.109   6.570  -0.476
    1   AR   Ar  242   5.455   4.910  -0.010
    1   AR   Ar  243   5.678   4.541   2.292
    1   AR   Ar  244   0.791   5.291  -0.069
    1   AR   Ar  245   4.808   0.601   1.250
    1   AR   Ar  246   5.381   6.056   0.407
    1   AR   Ar  247   5.785   4.328   0.843
    1   AR   Ar  248   5.496   5.458  -0.894
    1   AR   Ar  249   4.084   5.806   1.833
    1   AR   Ar  250   4.783   5.685   4.595
    1   AR   Ar  251   5.475   5.226   3.948
    1   AR   Ar  252   4.623   5.515   3.284
    1   AR   Ar  253   6.307   3.651   6.160
    1   AR   Ar  254   2.015   2.447   9.551
    1   AR   Ar  255   4.016   2.801   8.442
    1   AR   Ar  256   6.711   5.290   3.150
    7.12000  7.12000 12.00000
Argon-slab step 3205
  256
    1   AR   Ar    1   6.934   1.239  -1.334
    1   AR   Ar    2   6.694   0.118   0.122
    1   AR   Ar    3   2.424   0.669  -0.104
    1   AR   Ar    4   1.377   0.670  -0.422
    1   AR   Ar    5   7.090   6.868   1.026
    1   AR   Ar    6   6.875   0.934   2.635
    1   AR   Ar    7   6.494   4.118   3.075
    1   AR   Ar    8   5.864   0.389   1.470
    1   AR   Ar    9   1.705   6.864   3.205
    1   AR   Ar   10   1.112   0.198   3.777
    1   AR   Ar   11   1.765   6.381   4.223
    1   AR   Ar   12   0.761   1.210   2.771
    1   AR   Ar   13   0.521   0.851   4.750
    1   AR   Ar   14   7.112   2.286   7.680
    1   AR   Ar   15   4.667   0.109   9.039
    1   AR   Ar   16   1.080   7.018   5.150
    1   AR   Ar   17   6.336   1.899   0.317
    1   AR   Ar   18   6.444   3.431  -0.638
    1   AR   Ar   19   2.223   3.077   1.308
    1   AR   Ar   20   4.535   4.109  -1.964
    1   AR   Ar   21   4.879   1.605   1.334
    1   AR   Ar   22   6.522   1.916   2.572
    1   AR   Ar   23   0.387   1.157  -0.499
    1   AR   Ar   24   0.089   2.285   1.469
    1   AR   Ar   25   0.501   1.107   3.716
    1   AR   Ar   26   5.950   0.044   3.886
    1   AR   Ar   27   1.611   0.984   3.370
    1   AR   Ar   28   0.842   2.228   5.134
    1   AR   Ar   29   5.774   2.906   7.050
    1   AR   Ar   30   1.778   1.522   4.178
    1   AR   Ar   31   3.610   0.471   7.554
    1   AR   Ar   32   1.418   2.820   6.169
    1   AR   Ar   33   0.680   4.167  -0.859
    1   AR   Ar   34   0.404   5.204   2.024
    1   AR   Ar   35   5.977   5.500   1.223
    1   AR   Ar   36   6.665   0.734  -3.859
    1   AR   Ar   37   5.331   2.181   2.392
    1   AR   Ar   38   0.105   4.040   2.369
    1   AR   Ar   39   1.100   3.801   2.523
    1   AR   Ar   40   2.569   4.316   1.669
    1   AR   Ar   41   7.052   2.928   3.999
    1   AR   Ar   42   6.397   5.497   4.752
    1   AR   Ar   43   6.651   2.679   5.970
    1   AR   Ar   44   0.308   4.581   3.261
    1   AR   Ar   45   0.478   3.312   5.879
    1   AR   Ar   46   0.476   5.172   5.689
    1   AR   Ar   47   5.724   4.013   6.849
    1   AR   Ar   48   7.026   5.817   6.797
    1   AR   Ar   49   5.567   0.595  -0.945
    1   AR   Ar   50   4.908   4.835   1.354
    1   AR   Ar   51   6.499   4.540   1.720
    1   AR   Ar   52   6.034   4.741  -1.810
    1   AR   Ar   53   5.572   5.821   2.840
    1   AR   Ar   54   0.194   6.291   2.649
    1   AR   Ar   55   6.351   5.494   2.154
    1   AR   Ar   56   6.999   1.387   0.971
    1   AR   Ar   57   5.308   3.754   3.341
    1   AR   Ar   58   6.778   4.062   4.243
    1   AR   Ar   59   2.129   5.557   5.764
    1   AR   Ar   60   0.732   6.259   3.470
    1   AR   Ar   61   6.910   4.814   6.605
    1   AR   Ar   62   0.115   5.227   4.294
    1   AR   Ar   63   2.150   0.955   6.797
    1   AR   Ar   64   0.972   6.042   5.000
    1   AR   Ar   65   3.684   6.638   0.805
    1   AR   Ar   66   0.682   1.433   1.753
    1   AR   Ar   67   3.542   6.585  -1.062
    1   AR   Ar   68   2.776   1.788  -0.844
    1   AR   Ar   69   2.740   0.975   1.158
    1   AR   Ar   70   0.806   0.075   2.431
    1   AR   Ar   71   2.826   1.337   4.042
    1   AR   Ar   72   3.994   0.192   1.775
    1   AR   Ar   73   3.567   0.284   3.499
    1   AR   Ar   74   1.847   0.377   4.545
    1   AR   Ar   75   3.745   1.116   4.909
    1   AR   Ar   76   1.570   0.936   2.166
    1   AR   Ar   77   2.468   6.795   5.795
    1   AR   Ar   78   0.516   6.896   6.255
    1   AR   Ar   79   3.216   6.003   5.798
    1   AR   Ar   80   4.604   5.112   5.854
    1   AR   Ar   81   2.821   6.422  -0.318
    1   AR   Ar   82   6.702   6.043  -0.571
    1   AR   Ar   83   0.671   2.512   0.042
    1   AR   Ar   84   0.345   3.925   1.087
    1   AR   Ar   85   1.181   3.388   0.823
    1   AR   Ar   86   1.788   4.757  -0.282
    1   AR   Ar   87   1.466   1.910   1.186
    1   AR   Ar   88   2.290   4.932   0.790
    1   AR   Ar   89   0.471   3.059   2.877
    1   AR   Ar   90   2.222   2.523   4.414
    1   AR   Ar   91   1.283   2.012   3.239
    1   AR   Ar   92   1.336   2.366   2.198
    1   AR   Ar   93   2.028   0.530   5.473
    1   AR   Ar   94   0.347   6.832  10.942
    1   AR   Ar   95   3.216   1.151   6.380
    1   AR   Ar   96   2.843   0.355   4.526
    1   AR   Ar   97   4.971   1.685  -0.345
    1   AR   Ar   98   2.221   5.069   2.487
    1   AR   Ar   99   5.725   1.816  -1.002
    1   AR   Ar  100   1.555   3.618  -0.201
    1   AR   Ar  101   3.408   4.409   0.914
    1   AR   Ar  102   3.532   2.425   3.514
    1   AR   Ar  103   0.749   4.988   1.053
    1   AR   Ar  104   2.969   3.675  -1.459
    1   AR   Ar  105   1.384   3.113   4.270
    1   AR   Ar  106   3.159   3.253   5.406
    1   AR   Ar  107   0.858   4.250   4.626
    1   AR   Ar  108   3.232   2.582   4.486
    1   AR   Ar  109   1.912   4.884   4.788
    1   AR   Ar  110   1.217   4.313   5.768
    1   AR   Ar  111   4.838   4.371   7.452
    1   AR   Ar  112   1.529   6.248   6.690
    1   AR   Ar  113   2.828   4.666  -0.343
    1   AR   Ar  114   2.174   6.869  -1.035
    1   AR   Ar  115   2.059   5.290  -1.162
    1   AR   Ar  116   5.418   6.655  -0.524
    1   AR   Ar  117   1.152   5.068   3.913
    1   AR   Ar  118   1.335   5.861   2.845
    1   AR   Ar  119   2.207   2.940   2.775
    1   AR   Ar  120   2.264   6.907   2.338
    1   AR   Ar  121   5.816   4.485   5.699
    1   AR   Ar  122   2.809   6.275   4.756
    1   AR   Ar  123   3.766   4.091   4.902
    1   AR   Ar  124   1.694   6.009   1.506
    1   AR   Ar  125   6.850   3.988   5.300
    1   AR   Ar  126   7.092   6.400   4.276
    1   AR   Ar  127   3.369   3.959   6.256
    1   AR   Ar  128   3.463   5.201   6.344
    1   AR   Ar  129   2.542   6.302   3.192
    1   AR   Ar  130   4.358   3.050  -2.311
    1   AR   Ar  131   4.059   1.297   0.021
    1   AR   Ar  132   6.863   2.254  -0.660
    1   AR   Ar  133   4.634   6.421   2.884
    1   AR   Ar  134   4.700   1.413   3.859
    1   AR   Ar  135   5.534   0.511   2.650
    1   AR   Ar  136   4.923   7.032   2.136
    1   AR   Ar  137   2.766   5.559   3.991
    1   AR   Ar  138   4.671   1.646   5.620
    1   AR   Ar  139   5.681   2.342   5.236
    1   AR   Ar  140   3.750   7.088   4.766
    1   AR   Ar  141   3.886   5.140   4.194
    1   AR   Ar  142   3.317   0.100   6.365
    1   AR   Ar  143   6.673   0.226   5.843
    1   AR   Ar  144   6.975   1.584   5.729
    1   AR   Ar  145   4.690   4.090  -0.057
    1   AR   Ar  146   3.139   2.338   1.981
    1   AR   Ar  147   5.244   1.240  -1.851
    1   AR   Ar  148   3.326   4.889  -1.261
    1   AR   Ar  149   2.959   2.015   0.783
    1   AR   Ar  150   2.252   1.666   1.925
    1   AR   Ar  151   2.416   2.089   3.371
    1   AR   Ar  152   3.350   2.975  -0.037
    1   AR   Ar  153   4.742   0.272   3.820
    1   AR   Ar  154   4.364   2.059   4.718
    1   AR   Ar  155   6.482   0.257   6.873
    1   AR   Ar  156   3.838   3.306   4.168
    1   AR   Ar  157   1.846   3.606   6.857
    1   AR   Ar  158   0.635   2.655   6.834
    1   AR   Ar  159   4.589   1.965   6.590
    1   AR   Ar  160   2.548   1.547   5.186
    1   AR   Ar  161   5.340   3.439   2.305
    1   AR   Ar  162   4.450   6.210  -0.828
    1   AR   Ar  163   4.889   3.486   0.985
    1   AR   Ar  164   2.763   5.470   1.617
    1   AR   Ar  165   3.457   2.951   1.229
    1   AR   Ar  166   2.455   3.698   4.692
    1   AR   Ar  167   4.484   1.008   2.664
    1   AR   Ar  168   5.440   2.978  -0.834
    1   AR   Ar  169   2.879   3.258   2.094
    1   AR   Ar  170   2.359   4.256   5.523
    1   AR   Ar  171   5.680   4.191   4.474
    1   AR   Ar  172   4.783   4.501   4.936
    1   AR   Ar  173   2.938   3.814   7.419
    1   AR   Ar  174   2.341   5.324   6.751
    1   AR   Ar  175   2.619   3.011   6.302
    1   AR   Ar  176   3.888   2.505   6.050
    1   AR   Ar  177   6.697   4.673  -0.375
    1   AR   Ar  178   3.818   5.156  -0.374
    1   AR   Ar  179   3.992   5.542   0.752
    1   AR   Ar  180   1.062   1.470  -3.055
    1   AR   Ar  181   0.593   6.171   1.442
    1   AR   Ar  182   2.625   0.583   3.090
    1   AR   Ar  183   3.294   5.087   2.446
    1   AR   Ar  184   4.705   6.653   1.059
    1   AR   Ar  185   3.147   4.847   5.296
    1   AR   Ar  186   3.374   4.214   3.537
    1   AR   Ar  187   3.583   6.385   2.864
    1   AR   Ar  188   3.129   6.493   1.772
    1   AR   Ar  189   3.457   2.983   6.998
    1   AR   Ar  190   4.148   6.307   3.859
    1   AR   Ar  191   3.483   5.975   7.658
    1   AR   Ar  192   3.863   6.041   5.049
    1   AR   Ar  193   2.504   6.103   0.746
    1   AR   Ar  194   4.250   3.619  -0.974
    1   AR   Ar  195   5.468   1.141   0.394
    1   AR   Ar  196   4.774   0.374  -0.280
    1   AR   Ar  197   3.877   0.920   1.006
    1   AR   Ar  198   5.945   1.601   1.227
    1   AR   Ar  199   3.669   1.438   3.161
    1   AR   Ar  200   5.418   2.542   0.099
    1   AR   Ar  201   5.704   6.204   4.147
    1   AR   Ar  202   5.528   1.840   4.332
    1   AR   Ar  203   6.495   6.435   3.388
    1   AR   Ar  204   4.716   6.732   5.064
    1   AR   Ar  205   6.941   0.008   2.037
    1   AR   Ar  206   5.095   0.983   4.957
    1   AR   Ar  207   1.394   1.762   6.934
    1   AR   Ar  208   0.015   0.324   3.297
    1   AR   Ar  209   6.877   2.794  -2.290
    1   AR   Ar  210   3.390   0.417  -0.182
    1   AR   Ar  211   6.282   2.864   0.615
    1   AR   Ar  212   6.136   3.571  -1.746
    1   AR   Ar  213   3.632   1.152   2.168
    1   AR   Ar  214   4.226   3.275   2.943
    1   AR   Ar  215   5.419   2.676   1.223
    1   AR   Ar  216   0.521   3.275   1.847
    1   AR   Ar  217   4.839   3.424   4.384
    1   AR   Ar  218   4.347   3.269   5.533
    1   AR   Ar  219   4.809   2.537   3.789
    1   AR   Ar  220   4.521   4.097   2.355
    1   AR   Ar  221   5.837   6.918   4.930
    1   AR   Ar  222   4.384   0.743   6.736
    1   AR   Ar  223   0.213   1.315   6.834
    1   AR   Ar  224   4.842   3.023   6.611
    1   AR   Ar  225   6.629   3.027   2.442
    1   AR   Ar  226   2.150   3.640   3.586
    1   AR   Ar  227   6.102   3.468   1.511
    1   AR   Ar  228   5.954   6.389   1.958
    1   AR   Ar  229   5.141   4.218  -0.981
    1   AR   Ar  230   4.571   4.401   3.865
    1   AR   Ar  231   5.614   1.300   3.426
    1   AR   Ar  232   4.314   2.523   0.583
    1   AR   Ar  233   6.059   2.512   3.583
    1   AR   Ar  234   6.396   3.096   4.823
    1   AR   Ar  235   6.580   2.043   4.643
    1   AR   Ar  236   5.615   5.785   5.719
    1   AR   Ar  237   5.582   3.463   5.322
    1   AR   Ar  238   4.759   4.079   6.192
    1   AR   Ar  239   5.779   4.384   8.254
    1   AR   Ar  240   6.833   2.998   6.978
    1   AR   Ar  241   1.079   6.560  -0.497
    1   AR   Ar  242   5.456   4.905  -0.026
    1   AR   Ar  243   5.664   4.564   2.307
    1   AR   Ar  244   0.798   5.305  -0.104
    1   AR   Ar  245   4.827   0.582   1.227
    1   AR   Ar  246   5.371   6.103   0.387
    1   AR   Ar  247   5.798   4.331   0.861
    1   AR   Ar  248   5.475   5.460  -0.908
    1   AR   Ar  249   4.092   5.833   1.805
    1   AR   Ar  250   4.770   5.670   4.584
    1   AR   Ar  251   5.474   5.221   3.970
    1   AR   Ar  252   4.604   5.515   3.294
    1   AR   Ar  253   6.312   3.669   6.178
    1   AR   Ar  254   2.023   2.400   9.541
    1   AR   Ar  255   4.019   2.784   8.459
    1   AR   Ar  256   6.689   5.281   3.098
    7.12000  7.12000 12.00000
Argon-slab step 3210
  256
    1   AR   Ar    1   6.911   1.251  -1.335
    1   AR   Ar    2   6.701   0.092   0.123
    1   AR   Ar    3   2.400   0.683  -0.130
    1   AR   Ar    4   1.403   0.665  -0.391
    1   AR   Ar    5   7.086   6.877   1.034
    1   AR   Ar    6   6.890   0.929   2.630
    1   AR   Ar    7   6.494   4.073   3.093
    1   AR   Ar    8   5.866   0.413   1.471
    1   AR   Ar    9   1.689   6.873   3.215
    1   AR   Ar   10   1.098   0.188   3.791
    1   AR   Ar   11   1.793   6.397   4.258
    1   AR   Ar   12   0.786   1.197   2.792
    1   AR   Ar   13   0.545   0.814   4.750
    1   AR   Ar   14   7.078   2.275   7.681
    1   AR   Ar   15   4.658   0.081   8.996
    1   AR   Ar   16   1.056   7.009   5.158
    1   AR   Ar   17   6.323   1.899   0.314
    1   AR   Ar   18   6.428   3.480  -0.637
    1   AR   Ar   19   2.235   3.087   1.270
    1   AR   Ar   20   4.523   4.147  -2.002
    1   AR   Ar   21   4.913   1.599   1.326
    1   AR   Ar   22   6.525   1.869   2.592
    1   AR   Ar   23   0.350   1.165  -0.516
    1   AR   Ar   24   0.063   2.280   1.478
    1   AR   Ar   25   0.533   1.101   3.732
    1   AR   Ar   26   5.908   0.048   3.901
    1   AR   Ar   27   1.627   0.979   3.361
    1   AR   Ar   28   0.856   2.259   5.152
    1   AR   Ar   29   5.783   2.900   7.053
    1   AR   Ar   30   1.799   1.533   4.169
    1   AR   Ar   31   3.620   0.457   7.539
    1   AR   Ar   32   1.399   2.812   6.193
    1   AR   Ar   33   0.710   4.187  -0.865
    1   AR   Ar   34   0.429   5.206   1.983
    1   AR   Ar   35   5.968   5.511   1.234
    1   AR   Ar   36   6.683   0.808  -3.884
    1   AR   Ar   37   5.351   2.192   2.401
    1   AR   Ar   38   0.070   4.012   2.347
    1   AR   Ar   39   1.150   3.860   2.512
    1   AR   Ar   40   2.573   4.303   1.694
    1   AR   Ar   41   7.077   2.916   3.974
    1   AR   Ar   42   6.421   5.483   4.786
    1   AR   Ar   43   6.642   2.655   5.952
    1   AR   Ar   44   0.308   4.607   3.294
    1   AR   Ar   45   0.478   3.312   5.890
    1   AR   Ar   46   0.466   5.208   5.669
    1   AR   Ar   47   5.731   4.016   6.838
    1   AR   Ar   48   7.004   5.807   6.803
    1   AR   Ar   49   5.545   0.593  -0.956
    1   AR   Ar   50   4.909   4.806   1.313
    1   AR   Ar   51   6.508   4.516   1.735
    1   AR   Ar   52   6.067   4.713  -1.836
    1   AR   Ar   53   5.573   5.797   2.836
    1   AR   Ar   54   0.174   6.302   2.630
    1   AR   Ar   55   6.340   5.440   2.127
    1   AR   Ar   56   6.971   1.403   0.988
    1   AR   Ar   57   5.326   3.741   3.339
    1   AR   Ar   58   6.785   4.050   4.255
    1   AR   Ar   59   2.129   5.585   5.775
    1   AR   Ar   60   0.702   6.279   3.479
    1   AR   Ar   61   6.907   4.845   6.590
    1   AR   Ar   62   0.120   5.223   4.330
    1   AR   Ar   63   2.121   0.976   6.821
    1   AR   Ar   64   0.984   6.027   5.009
    1   AR   Ar   65   3.721   6.629   0.823
    1   AR   Ar   66   0.659   1.403   1.764
    1   AR   Ar   67   3.573   6.565  -1.010
    1   AR   Ar   68   2.758   1.787  -0.865
    1   AR   Ar   69   2.754   1.005   1.186
    1   AR   Ar   70   0.826   0.076   2.461
    1   AR   Ar   71   2.839   1.338   4.022
    1   AR   Ar   72   3.986   0.179   1.789
    1   AR   Ar   73   3.550   0.276   3.501
    1   AR   Ar   74   1.875   0.380   4.532
    1   AR   Ar   75   3.752   1.100   4.900
    1   AR   Ar   76   1.542   0.925   2.161
    1   AR   Ar   77   2.469   6.796   5.756
    1   AR   Ar   78   0.514   6.905   6.232
    1   AR   Ar   79   3.204   5.998   5.810
    1   AR   Ar   80   4.643   5.144   5.863
    1   AR   Ar   81   2.806   6.401  -0.331
    1   AR   Ar   82   6.714   6.022  -0.553
    1   AR   Ar   83   0.689   2.505   0.066
    1   AR   Ar   84   0.331   3.947   1.075
    1   AR   Ar   85   1.181   3.400   0.820
    1   AR   Ar   86   1.762   4.768  -0.278
    1   AR   Ar   87   1.474   1.941   1.166
    1   AR   Ar   88   2.297   4.932   0.791
    1   AR   Ar   89   0.477   3.060   2.885
    1   AR   Ar   90   2.185   2.556   4.417
    1   AR   Ar   91   1.290   2.024   3.240
    1   AR   Ar   92   1.359   2.382   2.234
    1   AR   Ar   93   2.016   0.521   5.505
    1   AR   Ar   94   0.348   6.837  10.962
    1   AR   Ar   95   3.237   1.170   6.408
    1   AR   Ar   96   2.850   0.365   4.528
    1   AR   Ar   97   4.964   1.706  -0.348
    1   AR   Ar   98   2.223   5.052   2.495
    1   AR   Ar   99   5.741   1.802  -0.945
    1   AR   Ar  100   1.541   3.569  -0.179
    1   AR   Ar  101   3.414   4.414   0.910
    1   AR   Ar  102   3.517   2.438   3.505
    1   AR   Ar  103   0.734   4.983   1.086
    1   AR   Ar  104   2.986   3.715  -1.462
    1   AR   Ar  105   1.364   3.076   4.252
    1   AR   Ar  106   3.158   3.235   5.387
    1   AR   Ar  107   0.851   4.260   4.643
    1   AR   Ar  108   3.222   2.566   4.498
    1   AR   Ar  109   1.923   4.847   4.759
    1   AR   Ar  110   1.261   4.292   5.754
    1   AR   Ar  111   4.814   4.379   7.436
    1   AR   Ar  112   1.533   6.247   6.689
    1   AR   Ar  113   2.823   4.699  -0.316
    1   AR   Ar  114   2.200   6.874  -1.034
    1   AR   Ar  115   2.040   5.280  -1.189
    1   AR   Ar  116   5.414   6.665  -0.500
    1   AR   Ar  117   1.156   5.069   3.935
    1   AR   Ar  118   1.372   5.844   2.834
    1   AR   Ar  119   2.185   2.923   2.774
    1   AR   Ar  120   2.277   6.902   2.368
    1   AR   Ar  121   5.803   4.490   5.687
    1   AR   Ar  122   2.785   6.272   4.726
    1   AR   Ar  123   3.780   4.051   4.914
    1   AR   Ar  124   1.711   6.004   1.494
    1   AR   Ar  125   6.845   3.962   5.276
    1   AR   Ar  126   7.064   6.388   4.270
    1   AR   Ar  127   3.385   3.943   6.246
    1   AR   Ar  128   3.451   5.176   6.348
    1   AR   Ar  129   2.576   6.276   3.204
    1   AR   Ar  130   4.355   3.024  -2.311
    1   AR   Ar  131   4.047   1.281   0.019
    1   AR   Ar  132   6.861   2.255  -0.674
    1   AR   Ar  133   4.629   6.434   2.885
    1   AR   Ar  134   4.711   1.421   3.864
    1   AR   Ar  135   5.523   0.512   2.637
    1   AR   Ar  136   4.910   7.023   2.119
    1   AR   Ar  137   2.781   5.593   3.975
    1   AR   Ar  138   4.619   1.658   5.643
    1   AR   Ar  139   5.638   2.341   5.241
    1   AR   Ar  140   3.757   7.076   4.746
    1   AR   Ar  141   3.885   5.122   4.211
    1   AR   Ar  142   3.317   0.100   6.358
    1   AR   Ar  143   6.658   0.228   5.853
    1   AR   Ar  144   6.991   1.615   5.723
    1   AR   Ar  145   4.704   4.115  -0.093
    1   AR   Ar  146   3.151   2.325   1.987
    1   AR   Ar  147   5.247   1.244  -1.893
    1   AR   Ar  148   3.299   4.925  -1.269
    1   AR   Ar  149   2.981   2.007   0.773
    1   AR   Ar  150   2.263   1.598   1.946
    1   AR   Ar  151   2.431   2.074   3.398
    1   AR   Ar  152   3.357   2.943  -0.004
    1   AR   Ar  153   4.743   0.257   3.839
    1   AR   Ar  154   4.328   2.038   4.745
    1   AR   Ar  155   6.469   0.261   6.856
    1   AR   Ar  156   3.848   3.296   4.165
    1   AR   Ar  157   1.855   3.587   6.844
    1   AR   Ar  158   0.649   2.649   6.839
    1   AR   Ar  159   4.597   1.923   6.586
    1   AR   Ar  160   2.533   1.591   5.169
    1   AR   Ar  161   5.339   3.437   2.300
    1   AR   Ar  162   4.453   6.192  -0.834
    1   AR   Ar  163   4.893   3.523   0.982
    1   AR   Ar  164   2.733   5.462   1.642
    1   AR   Ar  165   3.474   2.973   1.236
    1   AR   Ar  166   2.459   3.687   4.644
    1   AR   Ar  167   4.487   1.013   2.679
    1   AR   Ar  168   5.418   3.005  -0.852
    1   AR   Ar  169   2.887   3.264   2.116
    1   AR   Ar  170   2.353   4.271   5.545
    1   AR   Ar  171   5.687   4.190   4.460
    1   AR   Ar  172   4.789   4.466   4.935
    1   AR   Ar  173   2.929   3.838   7.389
    1   AR   Ar  174   2.345   5.346   6.747
    1   AR   Ar  175   2.585   2.992   6.306
    1   AR   Ar  176   3.874   2.501   6.046
    1   AR   Ar  177   6.723   4.658  -0.398
    1   AR   Ar  178   3.808   5.122  -0.372
    1   AR   Ar  179   3.995   5.565   0.732
    1   AR   Ar  180   1.078   1.462  -3.062
    1   AR   Ar  181   0.583   6.133   1.459
    1   AR   Ar  182   2.616   0.575   3.085
    1   AR   Ar  183   3.293   5.095   2.459
    1   AR   Ar  184   4.691   6.662   1.071
    1   AR   Ar  185   3.098   4.865   5.281
    1   AR   Ar  186   3.388   4.236   3.541
    1   AR   Ar  187   3.564   6.398   2.868
    1   AR   Ar  188   3.099   6.525   1.734
    1   AR   Ar  189   3.436   2.982   6.997
    1   AR   Ar  190   4.136   6.306   3.885
    1   AR   Ar  191   3.465   6.000   7.655
    1   AR   Ar  192   3.866   6.023   5.027
    1   AR   Ar  193   2.494   6.108   0.758
    1   AR   Ar  194   4.234   3.623  -1.005
    1   AR   Ar  195   5.459   1.180   0.401
    1   AR   Ar  196   4.785   0.358  -0.267
    1   AR   Ar  197   3.877   0.913   1.009
    1   AR   Ar  198   5.958   1.589   1.208
    1   AR   Ar  199   3.644   1.421   3.153
    1   AR   Ar  200   5.406   2.540   0.081
    1   AR   Ar  201   5.719   6.174   4.132
    1   AR   Ar  202   5.528   1.858   4.348
    1   AR   Ar  203   6.511   6.447   3.392
    1   AR   Ar  204   4.691   6.713   5.079
    1   AR   Ar  205   6.933   0.000   2.033
    1   AR   Ar  206   5.085   0.969   4.953
    1   AR   Ar  207   1.376   1.747   6.907
    1   AR   Ar  208   0.030   0.329   3.315
    1   AR   Ar  209   6.877   2.790  -2.272
    1   AR   Ar  210   3.414   0.408  -0.189
    1   AR   Ar  211   6.287   2.876   0.629
    1   AR   Ar  212   6.131   3.580  -1.740
    1   AR   Ar  213   3.647   1.124   2.182
    1   AR   Ar  214   4.208   3.235   2.936
    1   AR   Ar  215   5.429   2.671   1.219
    1   AR   Ar  216   0.504   3.257   1.829
    1   AR   Ar  217   4.838   3.411   4.392
    1   AR   Ar  218   4.322   3.255   5.552
    1   AR   Ar  219   4.784   2.541   3.793
    1   AR   Ar  220   4.487   4.081   2.336
    1   AR   Ar  221   5.799   6.892   4.932
    1   AR   Ar  222   4.415   0.762   6.716
    1   AR   Ar  223   0.191   1.322   6.785
    1   AR   Ar  224   4.831   3.018   6.571
    1   AR   Ar  225   6.646   3.023   2.427
    1   AR   Ar  226   2.128   3.642   3.594
    1   AR   Ar  227   6.121   3.515   1.564
    1   AR   Ar  228   5.967   6.386   1.960
    1   AR   Ar  229   5.128   4.250  -0.998
    1   AR   Ar  230   4.572   4.430   3.877
    1   AR   Ar  231   5.583   1.296   3.393
    1   AR   Ar  232   4.307   2.507   0.564
    1   AR   Ar  233   6.071   2.510   3.571
    1   AR   Ar  234   6.412   3.100   4.847
    1   AR   Ar  235   6.592   2.032   4.603
    1   AR   Ar  236   5.606   5.768   5.732
    1   AR   Ar  237   5.567   3.432   5.343
    1   AR   Ar  238   4.744   4.047   6.205
    1   AR   Ar  239   5.774   4.408   8.252
    1   AR   Ar  240   6.806   3.011   6.979
    1   AR   Ar  241   1.051   6.551  -0.518
    1   AR   Ar  242   5.468   4.900  -0.018
    1   AR   Ar  243   5.646   4.587   2.326
    1   AR   Ar  244   0.805   5.318  -0.140
    1   AR   Ar  245   4.851   0.559   1.203
    1   AR   Ar  246   5.361   6.148   0.368
    1   AR   Ar  247   5.811   4.333   0.880
    1   AR   Ar  248   5.455   5.464  -0.925
    1   AR   Ar  249   4.099   5.861   1.779
    1   AR   Ar  250   4.756   5.656   4.574
    1   AR   Ar  251   5.474   5.208   3.988
    1   AR   Ar  252   4.584   5.504   3.309
    1   AR   Ar  253   6.329   3.680   6.185
    1   AR   Ar  254   2.032   2.353   9.531
    1   AR   Ar  255   4.036   2.785   8.496
    1   AR   Ar  256   6.664   5.275   3.050
    7.12000  7.12000 12.00000
Argon-slab step 3215
  256
    1   AR   Ar    1   6.889   1.266  -1.354
    1   AR   Ar    2   6.678   0.062   0.148
    1   AR   Ar    3   2.379   0.697  -0.155
    1   AR   Ar    4   1.423   0.658  -0.361
    1   AR   Ar    5   7.082   6.885   1.042
    1   AR   Ar    6   6.899   0.932   2.608
    1   AR   Ar    7   6.487   4.027   3.115
    1   AR   Ar    8   5.870   0.437   1.474
    1   AR   Ar    9   1.687   6.878   3.226
    1   AR   Ar   10   1.063   0.187   3.823
    1   AR   Ar   11   1.819   6.414   4.291
    1   AR   Ar   12   0.808   1.178   2.800
    1   AR   Ar   13   0.571   0.777   4.753
    1   AR   Ar   14   7.045   2.260   7.683
    1   AR   Ar   15   4.650   0.054   8.954
    1   AR   Ar   16   1.033   7.011   5.167
    1   AR   Ar   17   6.311   1.897   0.301
    1   AR   Ar   18   6.412   3.529  -0.635
    1   AR   Ar   19   2.246   3.096   1.232
    1   AR   Ar   20   4.512   4.184  -2.038
    1   AR   Ar   21   4.944   1.597   1.318
    1   AR   Ar   22   6.502   1.864   2.629
    1   AR   Ar   23   0.319   1.174  -0.523
    1   AR   Ar   24   0.036   2.281   1.490
    1   AR   Ar   25   0.564   1.102   3.761
    1   AR   Ar   26   5.865   0.060   3.914
    1   AR   Ar   27   1.647   0.968   3.344
    1   AR   Ar   28   0.869   2.290   5.169
    1   AR   Ar   29   5.790   2.893   7.055
    1   AR   Ar   30   1.820   1.549   4.170
    1   AR   Ar   31   3.631   0.443   7.522
    1   AR   Ar   32   1.388   2.804   6.211
    1   AR   Ar   33   0.740   4.207  -0.868
    1   AR   Ar   34   0.447   5.211   1.960
    1   AR   Ar   35   5.963   5.516   1.242
    1   AR   Ar   36   6.701   0.883  -3.909
    1   AR   Ar   37   5.372   2.203   2.409
    1   AR   Ar   38   0.038   3.989   2.325
    1   AR   Ar   39   1.203   3.919   2.501
    1   AR   Ar   40   2.578   4.290   1.705
    1   AR   Ar   41   7.103   2.906   3.948
    1   AR   Ar   42   6.430   5.473   4.826
    1   AR   Ar   43   6.633   2.630   5.933
    1   AR   Ar   44   0.312   4.632   3.329
    1   AR   Ar   45   0.476   3.312   5.901
    1   AR   Ar   46   0.456   5.244   5.648
    1   AR   Ar   47   5.723   4.027   6.842
    1   AR   Ar   48   6.984   5.809   6.810
    1   AR   Ar   49   5.530   0.590  -0.955
    1   AR   Ar   50   4.911   4.777   1.273
    1   AR   Ar   51   6.520   4.490   1.744
    1   AR   Ar   52   6.099   4.685  -1.861
    1   AR   Ar   53   5.575   5.773   2.834
    1   AR   Ar   54   0.151   6.311   2.604
    1   AR   Ar   55   6.345   5.436   2.138
    1   AR   Ar   56   6.946   1.412   1.003
    1   AR   Ar   57   5.319   3.706   3.326
    1   AR   Ar   58   6.782   4.053   4.274
    1   AR   Ar   59   2.130   5.614   5.778
    1   AR   Ar   60   0.673   6.303   3.500
    1   AR   Ar   61   6.903   4.863   6.570
    1   AR   Ar   62   0.137   5.214   4.358
    1   AR   Ar   63   2.093   0.996   6.843
    1   AR   Ar   64   0.995   6.002   5.015
    1   AR   Ar   65   3.748   6.620   0.839
    1   AR   Ar   66   0.635   1.374   1.773
    1   AR   Ar   67   3.592   6.552  -0.962
    1   AR   Ar   68   2.741   1.786  -0.885
    1   AR   Ar   69   2.769   1.033   1.214
    1   AR   Ar   70   0.839   0.085   2.461
    1   AR   Ar   71   2.857   1.335   4.003
    1   AR   Ar   72   3.990   0.163   1.797
    1   AR   Ar   73   3.536   0.267   3.504
    1   AR   Ar   74   1.887   0.383   4.507
    1   AR   Ar   75   3.760   1.081   4.883
    1   AR   Ar   76   1.515   0.906   2.155
    1   AR   Ar   77   2.473   6.788   5.719
    1   AR   Ar   78   0.511   6.913   6.208
    1   AR   Ar   79   3.185   5.997   5.822
    1   AR   Ar   80   4.681   5.176   5.870
    1   AR   Ar   81   2.792   6.377  -0.337
    1   AR   Ar   82   6.724   6.000  -0.534
    1   AR   Ar   83   0.705   2.499   0.090
    1   AR   Ar   84   0.311   3.974   1.062
    1   AR   Ar   85   1.182   3.409   0.818
    1   AR   Ar   86   1.734   4.777  -0.272
    1   AR   Ar   87   1.482   1.972   1.148
    1   AR   Ar   88   2.305   4.932   0.790
    1   AR   Ar   89   0.486   3.059   2.897
    1   AR   Ar   90   2.155   2.583   4.421
    1   AR   Ar   91   1.298   2.038   3.244
    1   AR   Ar   92   1.381   2.397   2.266
    1   AR   Ar   93   2.001   0.522   5.545
    1   AR   Ar   94   0.349   6.842  10.982
    1   AR   Ar   95   3.259   1.190   6.436
    1   AR   Ar   96   2.865   0.375   4.530
    1   AR   Ar   97   4.945   1.724  -0.349
    1   AR   Ar   98   2.222   5.036   2.505
    1   AR   Ar   99   5.768   1.790  -0.894
    1   AR   Ar  100   1.527   3.521  -0.159
    1   AR   Ar  101   3.419   4.420   0.906
    1   AR   Ar  102   3.502   2.452   3.494
    1   AR   Ar  103   0.723   4.975   1.103
    1   AR   Ar  104   3.004   3.757  -1.463
    1   AR   Ar  105   1.335   3.079   4.241
    1   AR   Ar  106   3.159   3.217   5.368
    1   AR   Ar  107   0.844   4.260   4.634
    1   AR   Ar  108   3.211   2.544   4.517
    1   AR   Ar  109   1.933   4.811   4.729
    1   AR   Ar  110   1.304   4.271   5.740
    1   AR   Ar  111   4.791   4.386   7.419
    1   AR   Ar  112   1.538   6.245   6.685
    1   AR   Ar  113   2.818   4.730  -0.287
    1   AR   Ar  114   2.224   6.882  -1.034
    1   AR   Ar  115   2.022   5.270  -1.215
    1   AR   Ar  116   5.413   6.676  -0.483
    1   AR   Ar  117   1.161   5.072   3.956
    1   AR   Ar  118   1.401   5.832   2.849
    1   AR   Ar  119   2.158   2.903   2.775
    1   AR   Ar  120   2.285   6.901   2.388
    1   AR   Ar  121   5.788   4.495   5.674
    1   AR   Ar  122   2.763   6.275   4.703
    1   AR   Ar  123   3.793   4.011   4.927
    1   AR   Ar  124   1.727   5.998   1.484
    1   AR   Ar  125   6.842   3.939   5.259
    1   AR   Ar  126   7.039   6.397   4.263
    1   AR   Ar  127   3.401   3.927   6.236
    1   AR   Ar  128   3.440   5.143   6.354
    1   AR   Ar  129   2.608   6.251   3.215
    1   AR   Ar  130   4.359   3.044  -2.300
    1   AR   Ar  131   4.035   1.267   0.018
    1   AR   Ar  132   6.858   2.256  -0.687
    1   AR   Ar  133   4.591   6.423   2.876
    1   AR   Ar  134   4.709   1.427   3.872
    1   AR   Ar  135   5.517   0.517   2.628
    1   AR   Ar  136   4.901   7.012   2.094
    1   AR   Ar  137   2.796   5.619   3.956
    1   AR   Ar  138   4.582   1.666   5.663
    1   AR   Ar  139   5.595   2.343   5.252
    1   AR   Ar  140   3.767   7.062   4.726
    1   AR   Ar  141   3.893   5.104   4.223
    1   AR   Ar  142   3.317   0.099   6.351
    1   AR   Ar  143   6.644   0.230   5.855
    1   AR   Ar  144   7.007   1.647   5.717
    1   AR   Ar  145   4.715   4.137  -0.121
    1   AR   Ar  146   3.164   2.311   1.998
    1   AR   Ar  147   5.251   1.247  -1.933
    1   AR   Ar  148   3.281   4.953  -1.274
    1   AR   Ar  149   3.005   2.000   0.764
    1   AR   Ar  150   2.278   1.537   1.967
    1   AR   Ar  151   2.445   2.060   3.424
    1   AR   Ar  152   3.365   2.911   0.031
    1   AR   Ar  153   4.744   0.240   3.857
    1   AR   Ar  154   4.291   2.020   4.765
    1   AR   Ar  155   6.484   0.264   6.853
    1   AR   Ar  156   3.859   3.313   4.152
    1   AR   Ar  157   1.863   3.570   6.830
    1   AR   Ar  158   0.659   2.639   6.849
    1   AR   Ar  159   4.606   1.883   6.596
    1   AR   Ar  160   2.518   1.634   5.149
    1   AR   Ar  161   5.338   3.447   2.268
    1   AR   Ar  162   4.471   6.168  -0.836
    1   AR   Ar  163   4.897   3.565   0.978
    1   AR   Ar  164   2.709   5.479   1.654
    1   AR   Ar  165   3.491   2.998   1.239
    1   AR   Ar  166   2.464   3.675   4.595
    1   AR   Ar  167   4.506   1.014   2.699
    1   AR   Ar  168   5.396   3.035  -0.875
    1   AR   Ar  169   2.891   3.278   2.126
    1   AR   Ar  170   2.340   4.278   5.575
    1   AR   Ar  171   5.696   4.188   4.444
    1   AR   Ar  172   4.800   4.451   4.943
    1   AR   Ar  173   2.919   3.863   7.358
    1   AR   Ar  174   2.350   5.367   6.747
    1   AR   Ar  175   2.552   2.972   6.310
    1   AR   Ar  176   3.855   2.492   6.044
    1   AR   Ar  177   6.748   4.644  -0.420
    1   AR   Ar  178   3.801   5.090  -0.366
    1   AR   Ar  179   3.998   5.587   0.710
    1   AR   Ar  180   1.093   1.454  -3.069
    1   AR   Ar  181   0.574   6.094   1.478
    1   AR   Ar  182   2.607   0.565   3.079
    1   AR   Ar  183   3.293   5.107   2.480
    1   AR   Ar  184   4.684   6.667   1.086
    1   AR   Ar  185   3.058   4.890   5.263
    1   AR   Ar  186   3.403   4.257   3.546
    1   AR   Ar  187   3.546   6.411   2.870
    1   AR   Ar  188   3.071   6.556   1.697
    1   AR   Ar  189   3.417   2.981   6.994
    1   AR   Ar  190   4.127   6.289   3.910
    1   AR   Ar  191   3.448   6.026   7.652
    1   AR   Ar  192   3.869   6.004   4.999
    1   AR   Ar  193   2.488   6.113   0.768
    1   AR   Ar  194   4.217   3.625  -1.036
    1   AR   Ar  195   5.449   1.215   0.407
    1   AR   Ar  196   4.790   0.344  -0.250
    1   AR   Ar  197   3.869   0.901   1.022
    1   AR   Ar  198   5.970   1.578   1.200
    1   AR   Ar  199   3.615   1.405   3.153
    1   AR   Ar  200   5.394   2.539   0.068
    1   AR   Ar  201   5.734   6.145   4.119
    1   AR   Ar  202   5.528   1.876   4.361
    1   AR   Ar  203   6.526   6.458   3.390
    1   AR   Ar  204   4.671   6.694   5.093
    1   AR   Ar  205   6.921   7.114   2.032
    1   AR   Ar  206   5.074   0.953   4.946
    1   AR   Ar  207   1.356   1.735   6.879
    1   AR   Ar  208   0.050   0.311   3.346
    1   AR   Ar  209   6.875   2.786  -2.253
    1   AR   Ar  210   3.442   0.397  -0.195
    1   AR   Ar  211   6.295   2.892   0.640
    1   AR   Ar  212   6.126   3.589  -1.733
    1   AR   Ar  213   3.650   1.098   2.182
    1   AR   Ar  214   4.191   3.193   2.932
    1   AR   Ar  215   5.440   2.660   1.218
    1   AR   Ar  216   0.492   3.231   1.808
    1   AR   Ar  217   4.842   3.403   4.404
    1   AR   Ar  218   4.301   3.247   5.564
    1   AR   Ar  219   4.758   2.544   3.794
    1   AR   Ar  220   4.454   4.068   2.316
    1   AR   Ar  221   5.762   6.867   4.937
    1   AR   Ar  222   4.445   0.782   6.696
    1   AR   Ar  223   0.168   1.330   6.737
    1   AR   Ar  224   4.817   3.012   6.529
    1   AR   Ar  225   6.659   3.019   2.411
    1   AR   Ar  226   2.105   3.644   3.603
    1   AR   Ar  227   6.141   3.560   1.617
    1   AR   Ar  228   5.977   6.389   1.961
    1   AR   Ar  229   5.121   4.284  -1.022
    1   AR   Ar  230   4.577   4.455   3.886
    1   AR   Ar  231   5.560   1.292   3.355
    1   AR   Ar  232   4.302   2.489   0.546
    1   AR   Ar  233   6.083   2.507   3.558
    1   AR   Ar  234   6.430   3.102   4.869
    1   AR   Ar  235   6.605   2.021   4.564
    1   AR   Ar  236   5.596   5.751   5.743
    1   AR   Ar  237   5.570   3.421   5.370
    1   AR   Ar  238   4.730   4.017   6.217
    1   AR   Ar  239   5.769   4.432   8.249
    1   AR   Ar  240   6.779   3.029   6.978
    1   AR   Ar  241   1.022   6.542  -0.539
    1   AR   Ar  242   5.496   4.898   0.024
    1   AR   Ar  243   5.624   4.610   2.347
    1   AR   Ar  244   0.811   5.331  -0.175
    1   AR   Ar  245   4.877   0.537   1.178
    1   AR   Ar  246   5.351   6.186   0.356
    1   AR   Ar  247   5.823   4.331   0.905
    1   AR   Ar  248   5.434   5.469  -0.942
    1   AR   Ar  249   4.106   5.892   1.754
    1   AR   Ar  250   4.743   5.643   4.567
    1   AR   Ar  251   5.475   5.184   4.001
    1   AR   Ar  252   4.565   5.486   3.328
    1   AR   Ar  253   6.361   3.680   6.177
    1   AR   Ar  254   2.040   2.306   9.520
    1   AR   Ar  255   4.054   2.785   8.532
    1   AR   Ar  256   6.640   5.270   3.013
    7.12000  7.12000 12.00000
Argon-slab step 3220
  256
    1   AR   Ar    1   6.860   1.283  -1.380
    1   AR   Ar    2   6.653   0.033   0.168
    1   AR   Ar    3   2.372   0.712  -0.177
    1   AR   Ar    4   1.428   0.650  -0.335
    1   AR   Ar    5   7.080   6.892   1.049
    1   AR   Ar    6   6.908   0.934   2.578
    1   AR   Ar    7   6.477   3.982   3.140
    1   AR   Ar    8   5.878   0.460   1.479
    1   AR   Ar    9   1.692   6.876   3.231
    1   AR   Ar   10   1.034   0.191   3.852
    1   AR   Ar   11   1.841   6.431   4.322
    1   AR   Ar   12   0.821   1.149   2.799
    1   AR   Ar   13   0.597   0.739   4.757
    1   AR   Ar   14   7.013   2.245   7.684
    1   AR   Ar   15   4.641   0.026   8.910
    1   AR   Ar   16   1.013   7.017   5.176
    1   AR   Ar   17   6.299   1.896   0.277
    1   AR   Ar   18   6.396   3.577  -0.633
    1   AR   Ar   19   2.257   3.104   1.194
    1   AR   Ar   20   4.500   4.221  -2.072
    1   AR   Ar   21   4.970   1.597   1.311
    1   AR   Ar   22   6.474   1.866   2.667
    1   AR   Ar   23   0.293   1.182  -0.521
    1   AR   Ar   24   0.010   2.288   1.505
    1   AR   Ar   25   0.596   1.112   3.797
    1   AR   Ar   26   5.822   0.075   3.923
    1   AR   Ar   27   1.670   0.954   3.326
    1   AR   Ar   28   0.882   2.322   5.187
    1   AR   Ar   29   5.788   2.887   7.057
    1   AR   Ar   30   1.832   1.568   4.169
    1   AR   Ar   31   3.642   0.428   7.502
    1   AR   Ar   32   1.388   2.796   6.220
    1   AR   Ar   33   0.771   4.229  -0.870
    1   AR   Ar   34   0.453   5.215   1.970
    1   AR   Ar   35   5.952   5.522   1.235
    1   AR   Ar   36   6.720   0.958  -3.933
    1   AR   Ar   37   5.393   2.214   2.417
    1   AR   Ar   38   0.012   3.967   2.309
    1   AR   Ar   39   1.254   3.978   2.491
    1   AR   Ar   40   2.583   4.285   1.713
    1   AR   Ar   41   0.008   2.896   3.922
    1   AR   Ar   42   6.428   5.467   4.871
    1   AR   Ar   43   6.622   2.608   5.912
    1   AR   Ar   44   0.317   4.654   3.365
    1   AR   Ar   45   0.471   3.312   5.911
    1   AR   Ar   46   0.445   5.278   5.627
    1   AR   Ar   47   5.706   4.041   6.854
    1   AR   Ar   48   6.965   5.825   6.819
    1   AR   Ar   49   5.508   0.588  -0.949
    1   AR   Ar   50   4.913   4.749   1.233
    1   AR   Ar   51   6.532   4.473   1.745
    1   AR   Ar   52   6.130   4.658  -1.884
    1   AR   Ar   53   5.577   5.749   2.834
    1   AR   Ar   54   0.127   6.315   2.573
    1   AR   Ar   55   6.354   5.448   2.146
    1   AR   Ar   56   6.929   1.413   1.015
    1   AR   Ar   57   5.312   3.671   3.315
    1   AR   Ar   58   6.781   4.058   4.282
    1   AR   Ar   59   2.129   5.644   5.774
    1   AR   Ar   60   0.647   6.328   3.525
    1   AR   Ar   61   6.898   4.867   6.546
    1   AR   Ar   62   0.165   5.202   4.380
    1   AR   Ar   63   2.069   1.012   6.864
    1   AR   Ar   64   1.006   5.969   5.019
    1   AR   Ar   65   3.761   6.616   0.850
    1   AR   Ar   66   0.609   1.347   1.780
    1   AR   Ar   67   3.600   6.546  -0.919
    1   AR   Ar   68   2.724   1.785  -0.903
    1   AR   Ar   69   2.787   1.058   1.238
    1   AR   Ar   70   0.846   0.098   2.440
    1   AR   Ar   71   2.880   1.328   3.988
    1   AR   Ar   72   3.999   0.182   1.798
    1   AR   Ar   73   3.525   0.258   3.510
    1   AR   Ar   74   1.885   0.387   4.478
    1   AR   Ar   75   3.767   1.061   4.865
    1   AR   Ar   76   1.493   0.879   2.146
    1   AR   Ar   77   2.481   6.771   5.681
    1   AR   Ar   78   0.509   6.921   6.184
    1   AR   Ar   79   3.165   5.999   5.832
    1   AR   Ar   80   4.700   5.194   5.870
    1   AR   Ar   81   2.776   6.350  -0.336
    1   AR   Ar   82   6.735   5.979  -0.515
    1   AR   Ar   83   0.722   2.492   0.115
    1   AR   Ar   84   0.287   4.002   1.050
    1   AR   Ar   85   1.187   3.415   0.817
    1   AR   Ar   86   1.706   4.784  -0.264
    1   AR   Ar   87   1.491   2.003   1.131
    1   AR   Ar   88   2.314   4.932   0.788
    1   AR   Ar   89   0.498   3.059   2.911
    1   AR   Ar   90   2.135   2.602   4.428
    1   AR   Ar   91   1.307   2.052   3.253
    1   AR   Ar   92   1.400   2.412   2.293
    1   AR   Ar   93   1.981   0.534   5.585
    1   AR   Ar   94   0.350   6.847  11.002
    1   AR   Ar   95   3.282   1.212   6.463
    1   AR   Ar   96   2.888   0.388   4.531
    1   AR   Ar   97   4.914   1.738  -0.349
    1   AR   Ar   98   2.218   5.019   2.515
    1   AR   Ar   99   5.805   1.778  -0.848
    1   AR   Ar  100   1.514   3.475  -0.143
    1   AR   Ar  101   3.423   4.427   0.901
    1   AR   Ar  102   3.489   2.465   3.480
    1   AR   Ar  103   0.726   4.955   1.092
    1   AR   Ar  104   3.023   3.799  -1.463
    1   AR   Ar  105   1.295   3.111   4.235
    1   AR   Ar  106   3.160   3.200   5.350
    1   AR   Ar  107   0.836   4.261   4.625
    1   AR   Ar  108   3.201   2.519   4.538
    1   AR   Ar  109   1.944   4.776   4.698
    1   AR   Ar  110   1.342   4.250   5.725
    1   AR   Ar  111   4.768   4.393   7.401
    1   AR   Ar  112   1.544   6.243   6.680
    1   AR   Ar  113   2.810   4.761  -0.257
    1   AR   Ar  114   2.245   6.893  -1.035
    1   AR   Ar  115   2.006   5.261  -1.241
    1   AR   Ar  116   5.416   6.691  -0.480
    1   AR   Ar  117   1.165   5.076   3.976
    1   AR   Ar  118   1.416   5.832   2.910
    1   AR   Ar  119   2.130   2.883   2.780
    1   AR   Ar  120   2.267   6.879   2.402
    1   AR   Ar  121   5.773   4.500   5.660
    1   AR   Ar  122   2.746   6.285   4.692
    1   AR   Ar  123   3.804   3.976   4.942
    1   AR   Ar  124   1.741   5.992   1.478
    1   AR   Ar  125   6.844   3.922   5.253
    1   AR   Ar  126   7.037   6.405   4.289
    1   AR   Ar  127   3.417   3.911   6.224
    1   AR   Ar  128   3.430   5.106   6.361
    1   AR   Ar  129   2.631   6.231   3.221
    1   AR   Ar  130   4.363   3.065  -2.288
    1   AR   Ar  131   4.025   1.254   0.017
    1   AR   Ar  132   6.854   2.255  -0.698
    1   AR   Ar  133   4.547   6.406   2.866
    1   AR   Ar  134   4.696   1.433   3.883
    1   AR   Ar  135   5.524   0.513   2.630
    1   AR   Ar  136   4.901   6.999   2.066
    1   AR   Ar  137   2.814   5.631   3.939
    1   AR   Ar  138   4.601   1.664   5.687
    1   AR   Ar  139   5.554   2.347   5.269
    1   AR   Ar  140   3.780   7.048   4.703
    1   AR   Ar  141   3.903   5.090   4.235
    1   AR   Ar  142   3.318   0.096   6.344
    1   AR   Ar  143   6.632   0.232   5.850
    1   AR   Ar  144   7.024   1.678   5.709
    1   AR   Ar  145   4.722   4.158  -0.140
    1   AR   Ar  146   3.178   2.287   2.010
    1   AR   Ar  147   5.247   1.258  -1.962
    1   AR   Ar  148   3.302   4.954  -1.256
    1   AR   Ar  149   3.030   1.996   0.755
    1   AR   Ar  150   2.297   1.486   1.992
    1   AR   Ar  151   2.456   2.050   3.446
    1   AR   Ar  152   3.374   2.878   0.068
    1   AR   Ar  153   4.743   0.224   3.876
    1   AR   Ar  154   4.253   2.007   4.777
    1   AR   Ar  155   6.498   0.267   6.857
    1   AR   Ar  156   3.866   3.329   4.133
    1   AR   Ar  157   1.871   3.556   6.818
    1   AR   Ar  158   0.661   2.626   6.866
    1   AR   Ar  159   4.615   1.848   6.625
    1   AR   Ar  160   2.504   1.677   5.127
    1   AR   Ar  161   5.336   3.456   2.238
    1   AR   Ar  162   4.504   6.135  -0.835
    1   AR   Ar  163   4.900   3.609   0.973
    1   AR   Ar  164   2.696   5.534   1.649
    1   AR   Ar  165   3.509   3.023   1.237
    1   AR   Ar  166   2.471   3.663   4.549
    1   AR   Ar  167   4.534   1.012   2.723
    1   AR   Ar  168   5.374   3.067  -0.900
    1   AR   Ar  169   2.884   3.286   2.115
    1   AR   Ar  170   2.326   4.277   5.609
    1   AR   Ar  171   5.706   4.183   4.429
    1   AR   Ar  172   4.823   4.464   4.961
    1   AR   Ar  173   2.908   3.889   7.325
    1   AR   Ar  174   2.359   5.387   6.752
    1   AR   Ar  175   2.521   2.952   6.311
    1   AR   Ar  176   3.831   2.477   6.046
    1   AR   Ar  177   6.773   4.630  -0.442
    1   AR   Ar  178   3.801   5.060  -0.357
    1   AR   Ar  179   4.001   5.606   0.687
    1   AR   Ar  180   1.109   1.446  -3.076
    1   AR   Ar  181   0.567   6.061   1.496
    1   AR   Ar  182   2.597   0.557   3.073
    1   AR   Ar  183   3.297   5.119   2.502
    1   AR   Ar  184   4.691   6.665   1.104
    1   AR   Ar  185   3.026   4.923   5.242
    1   AR   Ar  186   3.419   4.279   3.553
    1   AR   Ar  187   3.532   6.425   2.868
    1   AR   Ar  188   3.048   6.572   1.676
    1   AR   Ar  189   3.400   2.978   6.989
    1   AR   Ar  190   4.118   6.263   3.934
    1   AR   Ar  191   3.430   6.051   7.647
    1   AR   Ar  192   3.867   5.982   4.971
    1   AR   Ar  193   2.485   6.118   0.776
    1   AR   Ar  194   4.199   3.628  -1.068
    1   AR   Ar  195   5.437   1.244   0.410
    1   AR   Ar  196   4.790   0.335  -0.228
    1   AR   Ar  197   3.860   0.891   1.035
    1   AR   Ar  198   5.981   1.570   1.206
    1   AR   Ar  199   3.588   1.390   3.156
    1   AR   Ar  200   5.385   2.541   0.061
    1   AR   Ar  201   5.751   6.121   4.106
    1   AR   Ar  202   5.528   1.892   4.368
    1   AR   Ar  203   6.520   6.414   3.364
    1   AR   Ar  204   4.655   6.674   5.107
    1   AR   Ar  205   6.907   7.112   2.035
    1   AR   Ar  206   5.063   0.938   4.937
    1   AR   Ar  207   1.331   1.726   6.851
    1   AR   Ar  208   0.070   0.281   3.381
    1   AR   Ar  209   6.873   2.783  -2.233
    1   AR   Ar  210   3.470   0.382  -0.201
    1   AR   Ar  211   6.306   2.912   0.651
    1   AR   Ar  212   6.119   3.597  -1.724
    1   AR   Ar  213   3.644   1.072   2.170
    1   AR   Ar  214   4.224   3.196   2.958
    1   AR   Ar  215   5.450   2.646   1.219
    1   AR   Ar  216   0.512   3.250   1.835
    1   AR   Ar  217   4.854   3.400   4.420
    1   AR   Ar  218   4.283   3.246   5.571
    1   AR   Ar  219   4.732   2.546   3.794
    1   AR   Ar  220   4.439   4.063   2.289
    1   AR   Ar  221   5.725   6.841   4.944
    1   AR   Ar  222   4.473   0.801   6.675
    1   AR   Ar  223   0.147   1.338   6.689
    1   AR   Ar  224   4.804   3.004   6.486
    1   AR   Ar  225   6.641   3.041   2.419
    1   AR   Ar  226   2.081   3.645   3.610
    1   AR   Ar  227   6.155   3.593   1.654
    1   AR   Ar  228   5.985   6.399   1.962
    1   AR   Ar  229   5.119   4.320  -1.055
    1   AR   Ar  230   4.588   4.472   3.890
    1   AR   Ar  231   5.544   1.290   3.314
    1   AR   Ar  232   4.300   2.470   0.540
    1   AR   Ar  233   6.094   2.504   3.546
    1   AR   Ar  234   6.448   3.096   4.886
    1   AR   Ar  235   6.618   2.011   4.525
    1   AR   Ar  236   5.588   5.734   5.752
    1   AR   Ar  237   5.584   3.425   5.399
    1   AR   Ar  238   4.717   3.992   6.227
    1   AR   Ar  239   5.763   4.455   8.244
    1   AR   Ar  240   6.760   3.050   6.974
    1   AR   Ar  241   0.995   6.533  -0.559
    1   AR   Ar  242   5.525   4.896   0.065
    1   AR   Ar  243   5.601   4.631   2.368
    1   AR   Ar  244   0.816   5.344  -0.210
    1   AR   Ar  245   4.901   0.521   1.152
    1   AR   Ar  246   5.340   6.216   0.357
    1   AR   Ar  247   5.851   4.285   0.884
    1   AR   Ar  248   5.436   5.481  -0.928
    1   AR   Ar  249   4.112   5.925   1.730
    1   AR   Ar  250   4.733   5.632   4.562
    1   AR   Ar  251   5.478   5.149   4.010
    1   AR   Ar  252   4.546   5.462   3.350
    1   AR   Ar  253   6.400   3.676   6.162
    1   AR   Ar  254   2.049   2.259   9.510
    1   AR   Ar  255   4.072   2.786   8.568
    1   AR   Ar  256   6.623   5.262   3.001
    7.12000  7.12000 12.00000
Argon-slab step 3225
  256
    1   AR   Ar    1   6.828   1.302  -1.410
    1   AR   Ar    2   6.623   0.006   0.182
    1   AR   Ar    3   2.388   0.726  -0.181
    1   AR   Ar    4   1.414   0.640  -0.312
    1   AR   Ar    5   7.081   6.895   1.059
    1   AR   Ar    6   6.917   0.934   2.546
    1   AR   Ar    7   6.465   3.938   3.166
    1   AR   Ar    8   5.891   0.482   1.487
    1   AR   Ar    9   1.690   6.869   3.230
    1   AR   Ar   10   1.029   0.196   3.864
    1   AR   Ar   11   1.850   6.450   4.347
    1   AR   Ar   12   0.831   1.130   2.807
    1   AR   Ar   13   0.621   0.704   4.764
    1   AR   Ar   14   6.981   2.229   7.684
    1   AR   Ar   15   4.632   7.119   8.867
    1   AR   Ar   16   0.997   7.022   5.187
    1   AR   Ar   17   6.283   1.892   0.265
    1   AR   Ar   18   6.378   3.625  -0.630
    1   AR   Ar   19   2.268   3.112   1.157
    1   AR   Ar   20   4.489   4.257  -2.104
    1   AR   Ar   21   4.987   1.600   1.307
    1   AR   Ar   22   6.445   1.874   2.704
    1   AR   Ar   23   0.270   1.190  -0.514
    1   AR   Ar   24   7.103   2.301   1.523
    1   AR   Ar   25   0.626   1.132   3.834
    1   AR   Ar   26   5.781   0.092   3.930
    1   AR   Ar   27   1.694   0.938   3.309
    1   AR   Ar   28   0.894   2.355   5.206
    1   AR   Ar   29   5.776   2.879   7.058
    1   AR   Ar   30   1.816   1.593   4.146
    1   AR   Ar   31   3.652   0.414   7.481
    1   AR   Ar   32   1.396   2.788   6.221
    1   AR   Ar   33   0.802   4.251  -0.870
    1   AR   Ar   34   0.448   5.213   2.009
    1   AR   Ar   35   5.935   5.526   1.220
    1   AR   Ar   36   6.689   0.952  -3.955
    1   AR   Ar   37   5.416   2.226   2.425
    1   AR   Ar   38   7.116   3.947   2.306
    1   AR   Ar   39   1.274   3.988   2.507
    1   AR   Ar   40   2.586   4.306   1.742
    1   AR   Ar   41   0.031   2.886   3.897
    1   AR   Ar   42   6.419   5.463   4.919
    1   AR   Ar   43   6.610   2.592   5.892
    1   AR   Ar   44   0.322   4.674   3.401
    1   AR   Ar   45   0.464   3.313   5.921
    1   AR   Ar   46   0.433   5.311   5.606
    1   AR   Ar   47   5.686   4.057   6.867
    1   AR   Ar   48   6.947   5.850   6.830
    1   AR   Ar   49   5.488   0.590  -0.945
    1   AR   Ar   50   4.914   4.721   1.194
    1   AR   Ar   51   6.542   4.480   1.739
    1   AR   Ar   52   6.160   4.632  -1.905
    1   AR   Ar   53   5.578   5.725   2.837
    1   AR   Ar   54   0.105   6.313   2.543
    1   AR   Ar   55   6.359   5.465   2.127
    1   AR   Ar   56   6.924   1.405   1.022
    1   AR   Ar   57   5.304   3.637   3.306
    1   AR   Ar   58   6.780   4.065   4.276
    1   AR   Ar   59   2.126   5.675   5.764
    1   AR   Ar   60   0.623   6.353   3.549
    1   AR   Ar   61   6.891   4.861   6.517
    1   AR   Ar   62   0.198   5.188   4.399
    1   AR   Ar   63   2.051   1.024   6.884
    1   AR   Ar   64   1.018   5.934   5.020
    1   AR   Ar   65   3.763   6.626   0.855
    1   AR   Ar   66   0.581   1.321   1.785
    1   AR   Ar   67   3.602   6.547  -0.878
    1   AR   Ar   68   2.708   1.783  -0.921
    1   AR   Ar   69   2.810   1.077   1.257
    1   AR   Ar   70   0.851   0.108   2.423
    1   AR   Ar   71   2.908   1.315   3.979
    1   AR   Ar   72   4.001   0.221   1.797
    1   AR   Ar   73   3.517   0.247   3.517
    1   AR   Ar   74   1.875   0.393   4.448
    1   AR   Ar   75   3.774   1.039   4.846
    1   AR   Ar   76   1.479   0.845   2.129
    1   AR   Ar   77   2.489   6.751   5.643
    1   AR   Ar   78   0.507   6.928   6.159
    1   AR   Ar   79   3.147   6.000   5.841
    1   AR   Ar   80   4.688   5.191   5.858
    1   AR   Ar   81   2.759   6.319  -0.327
    1   AR   Ar   82   6.745   5.957  -0.494
    1   AR   Ar   83   0.738   2.487   0.141
    1   AR   Ar   84   0.268   4.020   1.041
    1   AR   Ar   85   1.203   3.422   0.809
    1   AR   Ar   86   1.687   4.793  -0.256
    1   AR   Ar   87   1.499   2.035   1.116
    1   AR   Ar   88   2.322   4.933   0.785
    1   AR   Ar   89   0.511   3.059   2.925
    1   AR   Ar   90   2.123   2.616   4.435
    1   AR   Ar   91   1.316   2.064   3.267
    1   AR   Ar   92   1.411   2.422   2.308
    1   AR   Ar   93   1.959   0.552   5.624
    1   AR   Ar   94   0.351   6.852  11.022
    1   AR   Ar   95   3.305   1.233   6.491
    1   AR   Ar   96   2.914   0.401   4.532
    1   AR   Ar   97   4.874   1.750  -0.351
    1   AR   Ar   98   2.211   5.003   2.527
    1   AR   Ar   99   5.848   1.766  -0.803
    1   AR   Ar  100   1.502   3.430  -0.134
    1   AR   Ar  101   3.426   4.435   0.896
    1   AR   Ar  102   3.477   2.479   3.466
    1   AR   Ar  103   0.743   4.944   1.101
    1   AR   Ar  104   3.044   3.843  -1.463
    1   AR   Ar  105   1.246   3.148   4.227
    1   AR   Ar  106   3.160   3.183   5.336
    1   AR   Ar  107   0.836   4.265   4.612
    1   AR   Ar  108   3.192   2.491   4.559
    1   AR   Ar  109   1.955   4.741   4.669
    1   AR   Ar  110   1.368   4.229   5.711
    1   AR   Ar  111   4.757   4.385   7.390
    1   AR   Ar  112   1.550   6.241   6.673
    1   AR   Ar  113   2.798   4.791  -0.226
    1   AR   Ar  114   2.263   6.907  -1.039
    1   AR   Ar  115   1.991   5.251  -1.266
    1   AR   Ar  116   5.426   6.708  -0.493
    1   AR   Ar  117   1.171   5.083   3.994
    1   AR   Ar  118   1.431   5.832   2.970
    1   AR   Ar  119   2.109   2.867   2.790
    1   AR   Ar  120   2.252   6.850   2.413
    1   AR   Ar  121   5.756   4.505   5.645
    1   AR   Ar  122   2.740   6.301   4.692
    1   AR   Ar  123   3.816   3.946   4.958
    1   AR   Ar  124   1.749   5.985   1.476
    1   AR   Ar  125   6.852   3.914   5.261
    1   AR   Ar  126   7.034   6.412   4.319
    1   AR   Ar  127   3.432   3.893   6.212
    1   AR   Ar  128   3.434   5.122   6.362
    1   AR   Ar  129   2.638   6.222   3.216
    1   AR   Ar  130   4.367   3.087  -2.274
    1   AR   Ar  131   4.015   1.243   0.017
    1   AR   Ar  132   6.849   2.254  -0.709
    1   AR   Ar  133   4.510   6.390   2.856
    1   AR   Ar  134   4.675   1.436   3.896
    1   AR   Ar  135   5.537   0.505   2.632
    1   AR   Ar  136   4.912   6.983   2.041
    1   AR   Ar  137   2.839   5.623   3.932
    1   AR   Ar  138   4.622   1.658   5.695
    1   AR   Ar  139   5.523   2.356   5.294
    1   AR   Ar  140   3.793   7.033   4.678
    1   AR   Ar  141   3.901   5.082   4.250
    1   AR   Ar  142   3.318   0.094   6.336
    1   AR   Ar  143   6.621   0.234   5.837
    1   AR   Ar  144   7.044   1.706   5.696
    1   AR   Ar  145   4.724   4.177  -0.151
    1   AR   Ar  146   3.191   2.258   2.022
    1   AR   Ar  147   5.232   1.279  -1.976
    1   AR   Ar  148   3.321   4.953  -1.242
    1   AR   Ar  149   3.056   1.993   0.747
    1   AR   Ar  150   2.316   1.444   2.024
    1   AR   Ar  151   2.464   2.048   3.462
    1   AR   Ar  152   3.382   2.846   0.105
    1   AR   Ar  153   4.740   0.208   3.895
    1   AR   Ar  154   4.215   2.000   4.783
    1   AR   Ar  155   6.520   0.269   6.867
    1   AR   Ar  156   3.868   3.342   4.109
    1   AR   Ar  157   1.876   3.547   6.808
    1   AR   Ar  158   0.653   2.610   6.890
    1   AR   Ar  159   4.624   1.821   6.674
    1   AR   Ar  160   2.490   1.719   5.102
    1   AR   Ar  161   5.333   3.462   2.212
    1   AR   Ar  162   4.527   6.115  -0.820
    1   AR   Ar  163   4.904   3.653   0.968
    1   AR   Ar  164   2.685   5.586   1.646
    1   AR   Ar  165   3.527   3.047   1.234
    1   AR   Ar  166   2.481   3.652   4.510
    1   AR   Ar  167   4.567   1.010   2.750
    1   AR   Ar  168   5.352   3.100  -0.925
    1   AR   Ar  169   2.876   3.297   2.104
    1   AR   Ar  170   2.320   4.272   5.644
    1   AR   Ar  171   5.718   4.175   4.413
    1   AR   Ar  172   4.843   4.477   4.982
    1   AR   Ar  173   2.896   3.916   7.290
    1   AR   Ar  174   2.369   5.406   6.759
    1   AR   Ar  175   2.495   2.929   6.307
    1   AR   Ar  176   3.804   2.457   6.050
    1   AR   Ar  177   6.798   4.616  -0.465
    1   AR   Ar  178   3.808   5.032  -0.343
    1   AR   Ar  179   4.006   5.621   0.663
    1   AR   Ar  180   1.124   1.438  -3.083
    1   AR   Ar  181   0.561   6.040   1.508
    1   AR   Ar  182   2.582   0.568   3.083
    1   AR   Ar  183   3.302   5.132   2.524
    1   AR   Ar  184   4.710   6.654   1.123
    1   AR   Ar  185   2.998   4.962   5.219
    1   AR   Ar  186   3.388   4.297   3.584
    1   AR   Ar  187   3.521   6.442   2.862
    1   AR   Ar  188   3.066   6.610   1.688
    1   AR   Ar  189   3.385   2.975   6.982
    1   AR   Ar  190   4.107   6.241   3.957
    1   AR   Ar  191   3.412   6.076   7.642
    1   AR   Ar  192   3.856   5.959   4.945
    1   AR   Ar  193   2.486   6.125   0.779
    1   AR   Ar  194   4.183   3.632  -1.101
    1   AR   Ar  195   5.422   1.258   0.416
    1   AR   Ar  196   4.781   0.330  -0.199
    1   AR   Ar  197   3.878   0.875   1.024
    1   AR   Ar  198   5.985   1.572   1.212
    1   AR   Ar  199   3.576   1.375   3.144
    1   AR   Ar  200   5.379   2.547   0.059
    1   AR   Ar  201   5.769   6.101   4.094
    1   AR   Ar  202   5.528   1.905   4.367
    1   AR   Ar  203   6.507   6.358   3.332
    1   AR   Ar  204   4.646   6.654   5.122
    1   AR   Ar  205   6.888   7.114   2.039
    1   AR   Ar  206   5.050   0.924   4.925
    1   AR   Ar  207   1.302   1.722   6.821
    1   AR   Ar  208   0.090   0.245   3.415
    1   AR   Ar  209   6.870   2.781  -2.212
    1   AR   Ar  210   3.497   0.364  -0.206
    1   AR   Ar  211   6.318   2.934   0.662
    1   AR   Ar  212   6.113   3.602  -1.714
    1   AR   Ar  213   3.632   1.051   2.154
    1   AR   Ar  214   4.245   3.192   2.967
    1   AR   Ar  215   5.458   2.630   1.222
    1   AR   Ar  216   0.539   3.261   1.857
    1   AR   Ar  217   4.877   3.385   4.424
    1   AR   Ar  218   4.271   3.249   5.577
    1   AR   Ar  219   4.704   2.546   3.792
    1   AR   Ar  220   4.436   4.069   2.280
    1   AR   Ar  221   5.689   6.815   4.953
    1   AR   Ar  222   4.499   0.818   6.653
    1   AR   Ar  223   0.126   1.347   6.644
    1   AR   Ar  224   4.791   2.989   6.446
    1   AR   Ar  225   6.621   3.058   2.430
    1   AR   Ar  226   2.054   3.646   3.610
    1   AR   Ar  227   6.144   3.587   1.644
    1   AR   Ar  228   5.992   6.414   1.963
    1   AR   Ar  229   5.121   4.357  -1.096
    1   AR   Ar  230   4.608   4.480   3.891
    1   AR   Ar  231   5.543   1.294   3.293
    1   AR   Ar  232   4.311   2.444   0.582
    1   AR   Ar  233   6.105   2.501   3.533
    1   AR   Ar  234   6.463   3.079   4.897
    1   AR   Ar  235   6.631   2.003   4.486
    1   AR   Ar  236   5.584   5.718   5.758
    1   AR   Ar  237   5.594   3.432   5.430
    1   AR   Ar  238   4.705   3.974   6.236
    1   AR   Ar  239   5.756   4.478   8.237
    1   AR   Ar  240   6.752   3.073   6.969
    1   AR   Ar  241   0.968   6.523  -0.579
    1   AR   Ar  242   5.553   4.897   0.104
    1   AR   Ar  243   5.578   4.651   2.390
    1   AR   Ar  244   0.817   5.359  -0.245
    1   AR   Ar  245   4.923   0.513   1.124
    1   AR   Ar  246   5.329   6.235   0.372
    1   AR   Ar  247   5.879   4.238   0.862
    1   AR   Ar  248   5.473   5.501  -0.864
    1   AR   Ar  249   4.116   5.960   1.709
    1   AR   Ar  250   4.730   5.620   4.558
    1   AR   Ar  251   5.480   5.107   4.016
    1   AR   Ar  252   4.529   5.435   3.373
    1   AR   Ar  253   6.439   3.669   6.146
    1   AR   Ar  254   2.058   2.212   9.499
    1   AR   Ar  255   4.090   2.787   8.604
    1   AR   Ar  256   6.615   5.248   3.025
    7.12000  7.12000 12.00000
Argon-slab step 3230
  256
    1   AR   Ar    1   6.792   1.322  -1.440
    1   AR   Ar    2   6.589   7.101   0.189
    1   AR   Ar    3   2.419   0.739  -0.172
    1   AR   Ar    4   1.387   0.628  -0.292
    1   AR   Ar    5   7.086   6.896   1.069
    1   AR   Ar    6   6.926   0.932   2.514
    1   AR   Ar    7   6.452   3.893   3.194
    1   AR   Ar    8   5.908   0.503   1.497
    1   AR   Ar    9   1.649   6.852   3.207
    1   AR   Ar   10   1.024   0.197   3.880
    1   AR   Ar   11   1.844   6.469   4.364
    1   AR   Ar   12   0.843   1.121   2.829
    1   AR   Ar   13   0.622   0.702   4.750
    1   AR   Ar   14   6.950   2.213   7.682
    1   AR   Ar   15   4.623   7.092   8.824
    1   AR   Ar   16   0.988   7.017   5.201
    1   AR   Ar   17   6.269   1.891   0.249
    1   AR   Ar   18   6.359   3.670  -0.627
    1   AR   Ar   19   2.281   3.119   1.120
    1   AR   Ar   20   4.478   4.291  -2.134
    1   AR   Ar   21   4.994   1.605   1.306
    1   AR   Ar   22   6.414   1.884   2.741
    1   AR   Ar   23   0.247   1.199  -0.503
    1   AR   Ar   24   7.076   2.318   1.544
    1   AR   Ar   25   0.655   1.160   3.868
    1   AR   Ar   26   5.745   0.109   3.936
    1   AR   Ar   27   1.712   0.924   3.298
    1   AR   Ar   28   0.905   2.378   5.223
    1   AR   Ar   29   5.754   2.871   7.059
    1   AR   Ar   30   1.798   1.615   4.128
    1   AR   Ar   31   3.663   0.400   7.458
    1   AR   Ar   32   1.408   2.779   6.214
    1   AR   Ar   33   0.833   4.274  -0.868
    1   AR   Ar   34   0.437   5.201   2.067
    1   AR   Ar   35   5.914   5.530   1.196
    1   AR   Ar   36   6.657   0.946  -3.977
    1   AR   Ar   37   5.438   2.238   2.433
    1   AR   Ar   38   7.107   3.932   2.316
    1   AR   Ar   39   1.287   3.985   2.530
    1   AR   Ar   40   2.590   4.328   1.770
    1   AR   Ar   41   0.054   2.878   3.874
    1   AR   Ar   42   6.408   5.459   4.968
    1   AR   Ar   43   6.594   2.584   5.874
    1   AR   Ar   44   0.328   4.692   3.438
    1   AR   Ar   45   0.456   3.312   5.931
    1   AR   Ar   46   0.417   5.339   5.587
    1   AR   Ar   47   5.666   4.071   6.879
    1   AR   Ar   48   6.929   5.881   6.841
    1   AR   Ar   49   5.469   0.595  -0.943
    1   AR   Ar   50   4.916   4.694   1.155
    1   AR   Ar   51   6.548   4.507   1.723
    1   AR   Ar   52   6.189   4.610  -1.926
    1   AR   Ar   53   5.577   5.702   2.841
    1   AR   Ar   54   0.088   6.303   2.516
    1   AR   Ar   55   6.366   5.483   2.099
    1   AR   Ar   56   6.932   1.391   1.024
    1   AR   Ar   57   5.296   3.603   3.299
    1   AR   Ar   58   6.782   4.073   4.260
    1   AR   Ar   59   2.122   5.706   5.750
    1   AR   Ar   60   0.601   6.378   3.570
    1   AR   Ar   61   6.883   4.849   6.484
    1   AR   Ar   62   0.230   5.174   4.419
    1   AR   Ar   63   2.037   1.032   6.903
    1   AR   Ar   64   1.033   5.901   5.016
    1   AR   Ar   65   3.752   6.639   0.855
    1   AR   Ar   66   0.587   1.327   1.777
    1   AR   Ar   67   3.602   6.551  -0.840
    1   AR   Ar   68   2.691   1.780  -0.937
    1   AR   Ar   69   2.839   1.090   1.267
    1   AR   Ar   70   0.850   0.111   2.410
    1   AR   Ar   71   2.938   1.297   3.976
    1   AR   Ar   72   4.002   0.244   1.792
    1   AR   Ar   73   3.524   0.273   3.506
    1   AR   Ar   74   1.863   0.403   4.420
    1   AR   Ar   75   3.780   1.015   4.826
    1   AR   Ar   76   1.478   0.809   2.104
    1   AR   Ar   77   2.494   6.734   5.605
    1   AR   Ar   78   0.504   6.935   6.136
    1   AR   Ar   79   3.134   5.998   5.849
    1   AR   Ar   80   4.672   5.185   5.845
    1   AR   Ar   81   2.740   6.285  -0.312
    1   AR   Ar   82   6.754   5.934  -0.473
    1   AR   Ar   83   0.755   2.482   0.169
    1   AR   Ar   84   0.277   4.004   1.036
    1   AR   Ar   85   1.214   3.428   0.812
    1   AR   Ar   86   1.702   4.814  -0.249
    1   AR   Ar   87   1.506   2.068   1.103
    1   AR   Ar   88   2.331   4.934   0.783
    1   AR   Ar   89   0.525   3.060   2.940
    1   AR   Ar   90   2.112   2.628   4.442
    1   AR   Ar   91   1.326   2.074   3.287
    1   AR   Ar   92   1.407   2.425   2.307
    1   AR   Ar   93   1.934   0.572   5.662
    1   AR   Ar   94   0.353   6.857  11.042
    1   AR   Ar   95   3.323   1.251   6.489
    1   AR   Ar   96   2.937   0.415   4.533
    1   AR   Ar   97   4.890   1.734  -0.333
    1   AR   Ar   98   2.203   4.988   2.538
    1   AR   Ar   99   5.893   1.754  -0.759
    1   AR   Ar  100   1.493   3.386  -0.135
    1   AR   Ar  101   3.428   4.445   0.891
    1   AR   Ar  102   3.467   2.493   3.453
    1   AR   Ar  103   0.766   4.948   1.128
    1   AR   Ar  104   3.067   3.887  -1.462
    1   AR   Ar  105   1.194   3.187   4.219
    1   AR   Ar  106   3.159   3.169   5.326
    1   AR   Ar  107   0.848   4.274   4.591
    1   AR   Ar  108   3.185   2.460   4.575
    1   AR   Ar  109   1.966   4.704   4.641
    1   AR   Ar  110   1.374   4.206   5.696
    1   AR   Ar  111   4.762   4.355   7.388
    1   AR   Ar  112   1.556   6.235   6.658
    1   AR   Ar  113   2.784   4.821  -0.195
    1   AR   Ar  114   2.279   6.923  -1.043
    1   AR   Ar  115   1.982   5.249  -1.284
    1   AR   Ar  116   5.440   6.725  -0.518
    1   AR   Ar  117   1.179   5.093   4.010
    1   AR   Ar  118   1.447   5.831   3.029
    1   AR   Ar  119   2.101   2.859   2.810
    1   AR   Ar  120   2.242   6.821   2.414
    1   AR   Ar  121   5.740   4.511   5.630
    1   AR   Ar  122   2.752   6.317   4.703
    1   AR   Ar  123   3.826   3.924   4.974
    1   AR   Ar  124   1.748   5.979   1.479
    1   AR   Ar  125   6.868   3.917   5.275
    1   AR   Ar  126   7.029   6.418   4.352
    1   AR   Ar  127   3.448   3.875   6.198
    1   AR   Ar  128   3.439   5.136   6.363
    1   AR   Ar  129   2.627   6.223   3.202
    1   AR   Ar  130   4.372   3.110  -2.259
    1   AR   Ar  131   4.006   1.235   0.019
    1   AR   Ar  132   6.845   2.252  -0.719
    1   AR   Ar  133   4.485   6.373   2.848
    1   AR   Ar  134   4.650   1.437   3.909
    1   AR   Ar  135   5.552   0.492   2.631
    1   AR   Ar  136   4.933   6.967   2.026
    1   AR   Ar  137   2.869   5.598   3.936
    1   AR   Ar  138   4.643   1.649   5.694
    1   AR   Ar  139   5.534   2.376   5.330
    1   AR   Ar  140   3.809   7.017   4.650
    1   AR   Ar  141   3.894   5.074   4.268
    1   AR   Ar  142   3.319   0.091   6.329
    1   AR   Ar  143   6.611   0.236   5.818
    1   AR   Ar  144   7.066   1.729   5.676
    1   AR   Ar  145   4.725   4.194  -0.159
    1   AR   Ar  146   3.204   2.226   2.033
    1   AR   Ar  147   5.217   1.299  -1.988
    1   AR   Ar  148   3.336   4.952  -1.233
    1   AR   Ar  149   3.083   1.993   0.740
    1   AR   Ar  150   2.332   1.410   2.067
    1   AR   Ar  151   2.470   2.053   3.471
    1   AR   Ar  152   3.390   2.813   0.143
    1   AR   Ar  153   4.731   0.193   3.914
    1   AR   Ar  154   4.179   1.997   4.786
    1   AR   Ar  155   6.569   0.266   6.880
    1   AR   Ar  156   3.869   3.352   4.081
    1   AR   Ar  157   1.877   3.544   6.803
    1   AR   Ar  158   0.639   2.594   6.917
    1   AR   Ar  159   4.633   1.806   6.732
    1   AR   Ar  160   2.476   1.761   5.076
    1   AR   Ar  161   5.338   3.466   2.198
    1   AR   Ar  162   4.524   6.117  -0.785
    1   AR   Ar  163   4.909   3.695   0.964
    1   AR   Ar  164   2.681   5.631   1.648
    1   AR   Ar  165   3.545   3.071   1.230
    1   AR   Ar  166   2.497   3.642   4.482
    1   AR   Ar  167   4.599   1.007   2.777
    1   AR   Ar  168   5.330   3.135  -0.950
    1   AR   Ar  169   2.885   3.321   2.092
    1   AR   Ar  170   2.334   4.264   5.680
    1   AR   Ar  171   5.729   4.163   4.400
    1   AR   Ar  172   4.863   4.491   5.003
    1   AR   Ar  173   2.884   3.943   7.254
    1   AR   Ar  174   2.380   5.425   6.768
    1   AR   Ar  175   2.476   2.903   6.298
    1   AR   Ar  176   3.790   2.431   6.060
    1   AR   Ar  177   6.824   4.605  -0.487
    1   AR   Ar  178   3.822   5.006  -0.323
    1   AR   Ar  179   4.011   5.633   0.637
    1   AR   Ar  180   1.139   1.429  -3.090
    1   AR   Ar  181   0.557   6.032   1.513
    1   AR   Ar  182   2.566   0.603   3.114
    1   AR   Ar  183   3.309   5.146   2.547
    1   AR   Ar  184   4.736   6.634   1.137
    1   AR   Ar  185   2.974   5.004   5.194
    1   AR   Ar  186   3.358   4.315   3.616
    1   AR   Ar  187   3.511   6.462   2.849
    1   AR   Ar  188   3.093   6.656   1.707
    1   AR   Ar  189   3.391   2.971   6.978
    1   AR   Ar  190   4.094   6.221   3.975
    1   AR   Ar  191   3.393   6.102   7.635
    1   AR   Ar  192   3.835   5.935   4.924
    1   AR   Ar  193   2.493   6.133   0.774
    1   AR   Ar  194   4.167   3.637  -1.133
    1   AR   Ar  195   5.410   1.230   0.444
    1   AR   Ar  196   4.767   0.330  -0.166
    1   AR   Ar  197   3.903   0.860   1.004
    1   AR   Ar  198   5.984   1.589   1.213
    1   AR   Ar  199   3.565   1.361   3.134
    1   AR   Ar  200   5.377   2.557   0.061
    1   AR   Ar  201   5.787   6.084   4.083
    1   AR   Ar  202   5.527   1.917   4.362
    1   AR   Ar  203   6.494   6.302   3.299
    1   AR   Ar  204   4.639   6.632   5.138
    1   AR   Ar  205   6.865   0.003   2.045
    1   AR   Ar  206   5.036   0.910   4.912
    1   AR   Ar  207   1.268   1.722   6.790
    1   AR   Ar  208   0.106   0.208   3.445
    1   AR   Ar  209   6.866   2.778  -2.190
    1   AR   Ar  210   3.522   0.341  -0.212
    1   AR   Ar  211   6.332   2.958   0.673
    1   AR   Ar  212   6.105   3.603  -1.703
    1   AR   Ar  213   3.625   1.058   2.126
    1   AR   Ar  214   4.249   3.176   2.962
    1   AR   Ar  215   5.464   2.614   1.227
    1   AR   Ar  216   0.572   3.263   1.871
    1   AR   Ar  217   4.906   3.370   4.427
    1   AR   Ar  218   4.266   3.258   5.594
    1   AR   Ar  219   4.683   2.552   3.791
    1   AR   Ar  220   4.418   4.055   2.294
    1   AR   Ar  221   5.654   6.789   4.962
    1   AR   Ar  222   4.521   0.828   6.630
    1   AR   Ar  223   0.107   1.354   6.603
    1   AR   Ar  224   4.782   2.965   6.409
    1   AR   Ar  225   6.599   3.068   2.443
    1   AR   Ar  226   2.023   3.646   3.602
    1   AR   Ar  227   6.138   3.583   1.629
    1   AR   Ar  228   5.997   6.435   1.964
    1   AR   Ar  229   5.125   4.394  -1.140
    1   AR   Ar  230   4.634   4.478   3.888
    1   AR   Ar  231   5.544   1.303   3.274
    1   AR   Ar  232   4.321   2.446   0.584
    1   AR   Ar  233   6.114   2.499   3.522
    1   AR   Ar  234   6.474   3.052   4.902
    1   AR   Ar  235   6.645   1.996   4.448
    1   AR   Ar  236   5.567   5.702   5.758
    1   AR   Ar  237   5.601   3.441   5.462
    1   AR   Ar  238   4.694   3.966   6.243
    1   AR   Ar  239   5.749   4.501   8.230
    1   AR   Ar  240   6.754   3.097   6.962
    1   AR   Ar  241   0.958   6.506  -0.556
    1   AR   Ar  242   5.581   4.899   0.142
    1   AR   Ar  243   5.556   4.670   2.411
    1   AR   Ar  244   0.814   5.366  -0.266
    1   AR   Ar  245   4.941   0.514   1.094
    1   AR   Ar  246   5.318   6.247   0.394
    1   AR   Ar  247   5.908   4.191   0.841
    1   AR   Ar  248   5.510   5.521  -0.800
    1   AR   Ar  249   4.120   5.996   1.691
    1   AR   Ar  250   4.738   5.608   4.556
    1   AR   Ar  251   5.484   5.065   4.017
    1   AR   Ar  252   4.513   5.406   3.396
    1   AR   Ar  253   6.474   3.662   6.134
    1   AR   Ar  254   2.066   2.165   9.489
    1   AR   Ar  255   4.102   2.795   8.637
    1   AR   Ar  256   6.612   5.230   3.068
    7.12000  7.12000 12.00000
Argon-slab step 3235
  256
    1   AR   Ar    1   6.756   1.343  -1.470
    1   AR   Ar    2   6.577   7.102   0.197
    1   AR   Ar    3   2.457   0.752  -0.164
    1   AR   Ar    4   1.356   0.616  -0.273
    1   AR   Ar    5   7.093   6.894   1.080
    1   AR   Ar    6   6.936   0.933   2.483
    1   AR   Ar    7   6.437   3.849   3.223
    1   AR   Ar    8   5.925   0.516   1.479
    1   AR   Ar    9   1.605   6.838   3.190
    1   AR   Ar   10   1.021   0.195   3.897
    1   AR   Ar   11   1.823   6.487   4.377
    1   AR   Ar   12   0.844   1.117   2.852
    1   AR   Ar   13   0.606   0.721   4.728
    1   AR   Ar   14   6.919   2.198   7.678
    1   AR   Ar   15   4.614   7.064   8.780
    1   AR   Ar   16   0.987   7.004   5.216
    1   AR   Ar   17   6.257   1.893   0.232
    1   AR   Ar   18   6.338   3.713  -0.623
    1   AR   Ar   19   2.293   3.126   1.083
    1   AR   Ar   20   4.468   4.314  -2.153
    1   AR   Ar   21   4.987   1.612   1.310
    1   AR   Ar   22   6.386   1.892   2.774
    1   AR   Ar   23   0.225   1.208  -0.492
    1   AR   Ar   24   7.049   2.337   1.567
    1   AR   Ar   25   0.684   1.199   3.895
    1   AR   Ar   26   5.715   0.125   3.940
    1   AR   Ar   27   1.707   0.918   3.295
    1   AR   Ar   28   0.910   2.356   5.230
    1   AR   Ar   29   5.727   2.863   7.057
    1   AR   Ar   30   1.779   1.633   4.115
    1   AR   Ar   31   3.674   0.387   7.432
    1   AR   Ar   32   1.420   2.769   6.204
    1   AR   Ar   33   0.865   4.299  -0.864
    1   AR   Ar   34   0.421   5.182   2.136
    1   AR   Ar   35   5.888   5.533   1.165
    1   AR   Ar   36   6.627   0.940  -3.998
    1   AR   Ar   37   5.429   2.236   2.442
    1   AR   Ar   38   7.103   3.926   2.335
    1   AR   Ar   39   1.298   3.981   2.554
    1   AR   Ar   40   2.594   4.351   1.795
    1   AR   Ar   41   0.074   2.869   3.854
    1   AR   Ar   42   6.395   5.455   5.016
    1   AR   Ar   43   6.574   2.585   5.860
    1   AR   Ar   44   0.335   4.707   3.474
    1   AR   Ar   45   0.446   3.311   5.941
    1   AR   Ar   46   0.396   5.363   5.572
    1   AR   Ar   47   5.647   4.084   6.888
    1   AR   Ar   48   6.912   5.913   6.852
    1   AR   Ar   49   5.452   0.604  -0.942
    1   AR   Ar   50   4.919   4.676   1.116
    1   AR   Ar   51   6.540   4.532   1.712
    1   AR   Ar   52   6.218   4.592  -1.947
    1   AR   Ar   53   5.577   5.681   2.847
    1   AR   Ar   54   0.075   6.286   2.490
    1   AR   Ar   55   6.378   5.499   2.073
    1   AR   Ar   56   6.949   1.372   1.021
    1   AR   Ar   57   5.288   3.569   3.293
    1   AR   Ar   58   6.787   4.082   4.238
    1   AR   Ar   59   2.145   5.721   5.729
    1   AR   Ar   60   0.582   6.399   3.587
    1   AR   Ar   61   6.874   4.834   6.450
    1   AR   Ar   62   0.255   5.162   4.437
    1   AR   Ar   63   2.027   1.037   6.921
    1   AR   Ar   64   1.054   5.872   5.007
    1   AR   Ar   65   3.735   6.657   0.853
    1   AR   Ar   66   0.585   1.307   1.783
    1   AR   Ar   67   3.600   6.557  -0.810
    1   AR   Ar   68   2.674   1.776  -0.952
    1   AR   Ar   69   2.874   1.098   1.270
    1   AR   Ar   70   0.840   0.105   2.402
    1   AR   Ar   71   2.969   1.277   3.976
    1   AR   Ar   72   4.009   0.245   1.786
    1   AR   Ar   73   3.543   0.322   3.482
    1   AR   Ar   74   1.854   0.419   4.395
    1   AR   Ar   75   3.787   0.991   4.806
    1   AR   Ar   76   1.489   0.776   2.073
    1   AR   Ar   77   2.492   6.727   5.568
    1   AR   Ar   78   0.499   6.941   6.116
    1   AR   Ar   79   3.128   5.994   5.856
    1   AR   Ar   80   4.650   5.175   5.838
    1   AR   Ar   81   2.720   6.248  -0.294
    1   AR   Ar   82   6.764   5.911  -0.452
    1   AR   Ar   83   0.765   2.486   0.198
    1   AR   Ar   84   0.283   3.984   1.033
    1   AR   Ar   85   1.222   3.432   0.828
    1   AR   Ar   86   1.719   4.833  -0.242
    1   AR   Ar   87   1.508   2.101   1.143
    1   AR   Ar   88   2.339   4.936   0.783
    1   AR   Ar   89   0.542   3.061   2.952
    1   AR   Ar   90   2.101   2.638   4.448
    1   AR   Ar   91   1.334   2.083   3.308
    1   AR   Ar   92   1.393   2.424   2.294
    1   AR   Ar   93   1.910   0.592   5.699
    1   AR   Ar   94   0.354   6.863  11.062
    1   AR   Ar   95   3.339   1.266   6.468
    1   AR   Ar   96   2.954   0.426   4.534
    1   AR   Ar   97   4.903   1.717  -0.318
    1   AR   Ar   98   2.193   4.975   2.550
    1   AR   Ar   99   5.936   1.740  -0.716
    1   AR   Ar  100   1.486   3.342  -0.147
    1   AR   Ar  101   3.430   4.455   0.886
    1   AR   Ar  102   3.457   2.506   3.440
    1   AR   Ar  103   0.792   4.953   1.150
    1   AR   Ar  104   3.090   3.932  -1.460
    1   AR   Ar  105   1.139   3.226   4.210
    1   AR   Ar  106   3.157   3.156   5.321
    1   AR   Ar  107   0.859   4.279   4.572
    1   AR   Ar  108   3.179   2.426   4.586
    1   AR   Ar  109   1.980   4.666   4.615
    1   AR   Ar  110   1.360   4.181   5.681
    1   AR   Ar  111   4.767   4.326   7.387
    1   AR   Ar  112   1.561   6.215   6.618
    1   AR   Ar  113   2.769   4.850  -0.165
    1   AR   Ar  114   2.295   6.941  -1.047
    1   AR   Ar  115   1.984   5.257  -1.293
    1   AR   Ar  116   5.458   6.740  -0.547
    1   AR   Ar  117   1.192   5.106   4.022
    1   AR   Ar  118   1.463   5.828   3.088
    1   AR   Ar  119   2.107   2.860   2.840
    1   AR   Ar  120   2.237   6.793   2.405
    1   AR   Ar  121   5.726   4.517   5.617
    1   AR   Ar  122   2.779   6.332   4.715
    1   AR   Ar  123   3.835   3.912   4.986
    1   AR   Ar  124   1.737   5.974   1.484
    1   AR   Ar  125   6.892   3.929   5.285
    1   AR   Ar  126   7.021   6.424   4.387
    1   AR   Ar  127   3.464   3.856   6.184
    1   AR   Ar  128   3.444   5.145   6.364
    1   AR   Ar  129   2.601   6.226   3.186
    1   AR   Ar  130   4.376   3.135  -2.243
    1   AR   Ar  131   3.999   1.231   0.020
    1   AR   Ar  132   6.841   2.250  -0.728
    1   AR   Ar  133   4.473   6.356   2.840
    1   AR   Ar  134   4.623   1.436   3.923
    1   AR   Ar  135   5.570   0.476   2.627
    1   AR   Ar  136   4.960   6.955   2.024
    1   AR   Ar  137   2.904   5.563   3.947
    1   AR   Ar  138   4.664   1.640   5.691
    1   AR   Ar  139   5.545   2.394   5.367
    1   AR   Ar  140   3.825   7.000   4.621
    1   AR   Ar  141   3.888   5.062   4.287
    1   AR   Ar  142   3.319   0.088   6.321
    1   AR   Ar  143   6.602   0.238   5.797
    1   AR   Ar  144   7.093   1.746   5.646
    1   AR   Ar  145   4.725   4.212  -0.163
    1   AR   Ar  146   3.216   2.193   2.044
    1   AR   Ar  147   5.203   1.320  -1.999
    1   AR   Ar  148   3.348   4.950  -1.227
    1   AR   Ar  149   3.112   1.992   0.735
    1   AR   Ar  150   2.370   1.396   2.073
    1   AR   Ar  151   2.474   2.062   3.474
    1   AR   Ar  152   3.398   2.783   0.179
    1   AR   Ar  153   4.714   0.178   3.934
    1   AR   Ar  154   4.143   1.998   4.786
    1   AR   Ar  155   6.619   0.263   6.894
    1   AR   Ar  156   3.915   3.346   4.097
    1   AR   Ar  157   1.875   3.548   6.801
    1   AR   Ar  158   0.620   2.578   6.945
    1   AR   Ar  159   4.643   1.804   6.795
    1   AR   Ar  160   2.463   1.802   5.048
    1   AR   Ar  161   5.336   3.467   2.190
    1   AR   Ar  162   4.527   6.116  -0.749
    1   AR   Ar  163   4.915   3.728   0.958
    1   AR   Ar  164   2.685   5.670   1.658
    1   AR   Ar  165   3.562   3.094   1.226
    1   AR   Ar  166   2.519   3.633   4.463
    1   AR   Ar  167   4.630   1.003   2.805
    1   AR   Ar  168   5.309   3.171  -0.975
    1   AR   Ar  169   2.897   3.346   2.079
    1   AR   Ar  170   2.367   4.257   5.715
    1   AR   Ar  171   5.740   4.142   4.390
    1   AR   Ar  172   4.879   4.504   5.022
    1   AR   Ar  173   2.871   3.970   7.215
    1   AR   Ar  174   2.393   5.443   6.777
    1   AR   Ar  175   2.465   2.872   6.285
    1   AR   Ar  176   3.798   2.401   6.076
    1   AR   Ar  177   6.852   4.596  -0.509
    1   AR   Ar  178   3.822   5.014  -0.323
    1   AR   Ar  179   4.017   5.642   0.611
    1   AR   Ar  180   1.154   1.421  -3.097
    1   AR   Ar  181   0.554   6.031   1.514
    1   AR   Ar  182   2.577   0.628   3.140
    1   AR   Ar  183   3.315   5.161   2.569
    1   AR   Ar  184   4.762   6.607   1.142
    1   AR   Ar  185   2.950   5.048   5.168
    1   AR   Ar  186   3.329   4.333   3.649
    1   AR   Ar  187   3.514   6.456   2.850
    1   AR   Ar  188   3.122   6.703   1.728
    1   AR   Ar  189   3.403   2.968   6.975
    1   AR   Ar  190   4.082   6.191   3.986
    1   AR   Ar  191   3.375   6.127   7.628
    1   AR   Ar  192   3.806   5.910   4.912
    1   AR   Ar  193   2.503   6.145   0.761
    1   AR   Ar  194   4.154   3.643  -1.167
    1   AR   Ar  195   5.398   1.198   0.463
    1   AR   Ar  196   4.748   0.333  -0.128
    1   AR   Ar  197   3.926   0.850   0.980
    1   AR   Ar  198   5.983   1.611   1.223
    1   AR   Ar  199   3.555   1.349   3.126
    1   AR   Ar  200   5.377   2.570   0.065
    1   AR   Ar  201   5.804   6.069   4.074
    1   AR   Ar  202   5.526   1.929   4.355
    1   AR   Ar  203   6.480   6.248   3.267
    1   AR   Ar  204   4.634   6.607   5.155
    1   AR   Ar  205   6.839   0.017   2.051
    1   AR   Ar  206   5.021   0.896   4.897
    1   AR   Ar  207   1.231   1.724   6.757
    1   AR   Ar  208   0.115   0.173   3.471
    1   AR   Ar  209   6.862   2.776  -2.167
    1   AR   Ar  210   3.545   0.315  -0.216
    1   AR   Ar  211   6.346   2.981   0.683
    1   AR   Ar  212   6.096   3.600  -1.691
    1   AR   Ar  213   3.620   1.092   2.093
    1   AR   Ar  214   4.254   3.161   2.958
    1   AR   Ar  215   5.470   2.599   1.232
    1   AR   Ar  216   0.612   3.258   1.880
    1   AR   Ar  217   4.937   3.359   4.434
    1   AR   Ar  218   4.259   3.285   5.575
    1   AR   Ar  219   4.687   2.589   3.790
    1   AR   Ar  220   4.405   4.028   2.296
    1   AR   Ar  221   5.624   6.763   4.970
    1   AR   Ar  222   4.526   0.822   6.638
    1   AR   Ar  223   0.089   1.359   6.569
    1   AR   Ar  224   4.777   2.932   6.379
    1   AR   Ar  225   6.582   3.064   2.442
    1   AR   Ar  226   1.987   3.646   3.586
    1   AR   Ar  227   6.151   3.624   1.620
    1   AR   Ar  228   6.003   6.431   1.974
    1   AR   Ar  229   5.131   4.430  -1.186
    1   AR   Ar  230   4.661   4.465   3.885
    1   AR   Ar  231   5.547   1.317   3.258
    1   AR   Ar  232   4.331   2.452   0.585
    1   AR   Ar  233   6.122   2.500   3.515
    1   AR   Ar  234   6.483   3.021   4.903
    1   AR   Ar  235   6.659   1.991   4.411
    1   AR   Ar  236   5.545   5.685   5.754
    1   AR   Ar  237   5.604   3.443   5.496
    1   AR   Ar  238   4.684   3.967   6.250
    1   AR   Ar  239   5.741   4.524   8.221
    1   AR   Ar  240   6.754   3.098   6.951
    1   AR   Ar  241   0.948   6.496  -0.520
    1   AR   Ar  242   5.606   4.905   0.179
    1   AR   Ar  243   5.535   4.688   2.431
    1   AR   Ar  244   0.807   5.360  -0.264
    1   AR   Ar  245   4.957   0.519   1.063
    1   AR   Ar  246   5.310   6.254   0.416
    1   AR   Ar  247   5.935   4.162   0.817
    1   AR   Ar  248   5.547   5.542  -0.734
    1   AR   Ar  249   4.120   6.032   1.676
    1   AR   Ar  250   4.755   5.596   4.556
    1   AR   Ar  251   5.489   5.029   4.015
    1   AR   Ar  252   4.498   5.379   3.418
    1   AR   Ar  253   6.502   3.654   6.131
    1   AR   Ar  254   2.075   2.118   9.478
    1   AR   Ar  255   4.092   2.829   8.660
    1   AR   Ar  256   6.607   5.210   3.115
    7.12000  7.12000 12.00000
Argon-slab step 3240
  256
    1   AR   Ar    1   6.718   1.365  -1.498
    1   AR   Ar    2   6.600   0.022   0.208
    1   AR   Ar    3   2.496   0.765  -0.156
    1   AR   Ar    4   1.323   0.602  -0.254
    1   AR   Ar    5   7.103   6.891   1.090
    1   AR   Ar    6   6.945   0.938   2.455
    1   AR   Ar    7   6.422   3.805   3.251
    1   AR   Ar    8   5.943   0.522   1.444
    1   AR   Ar    9   1.560   6.829   3.178
    1   AR   Ar   10   1.029   0.221   3.909
    1   AR   Ar   11   1.796   6.504   4.386
    1   AR   Ar   12   0.835   1.116   2.871
    1   AR   Ar   13   0.586   0.736   4.720
    1   AR   Ar   14   6.889   2.183   7.672
    1   AR   Ar   15   4.605   7.037   8.736
    1   AR   Ar   16   0.968   6.996   5.233
    1   AR   Ar   17   6.248   1.896   0.220
    1   AR   Ar   18   6.312   3.750  -0.619
    1   AR   Ar   19   2.307   3.132   1.047
    1   AR   Ar   20   4.463   4.299  -2.132
    1   AR   Ar   21   4.968   1.621   1.319
    1   AR   Ar   22   6.363   1.893   2.799
    1   AR   Ar   23   0.202   1.219  -0.479
    1   AR   Ar   24   7.021   2.357   1.591
    1   AR   Ar   25   0.714   1.250   3.907
    1   AR   Ar   26   5.694   0.141   3.944
    1   AR   Ar   27   1.683   0.918   3.303
    1   AR   Ar   28   0.914   2.334   5.238
    1   AR   Ar   29   5.696   2.855   7.055
    1   AR   Ar   30   1.759   1.645   4.111
    1   AR   Ar   31   3.686   0.373   7.405
    1   AR   Ar   32   1.427   2.756   6.192
    1   AR   Ar   33   0.896   4.324  -0.858
    1   AR   Ar   34   0.430   5.179   2.170
    1   AR   Ar   35   5.859   5.535   1.129
    1   AR   Ar   36   6.596   0.935  -4.020
    1   AR   Ar   37   5.410   2.231   2.451
    1   AR   Ar   38   7.102   3.927   2.358
    1   AR   Ar   39   1.309   3.976   2.578
    1   AR   Ar   40   2.600   4.374   1.817
    1   AR   Ar   41   0.091   2.861   3.838
    1   AR   Ar   42   6.383   5.451   5.063
    1   AR   Ar   43   6.550   2.593   5.850
    1   AR   Ar   44   0.343   4.717   3.509
    1   AR   Ar   45   0.436   3.308   5.952
    1   AR   Ar   46   0.367   5.382   5.560
    1   AR   Ar   47   5.633   4.094   6.893
    1   AR   Ar   48   6.896   5.945   6.861
    1   AR   Ar   49   5.435   0.617  -0.942
    1   AR   Ar   50   4.924   4.677   1.081
    1   AR   Ar   51   6.534   4.567   1.697
    1   AR   Ar   52   6.247   4.578  -1.967
    1   AR   Ar   53   5.576   5.662   2.856
    1   AR   Ar   54   0.065   6.263   2.466
    1   AR   Ar   55   6.396   5.511   2.055
    1   AR   Ar   56   6.972   1.350   1.016
    1   AR   Ar   57   5.279   3.536   3.289
    1   AR   Ar   58   6.796   4.092   4.214
    1   AR   Ar   59   2.207   5.711   5.700
    1   AR   Ar   60   0.569   6.410   3.601
    1   AR   Ar   61   6.865   4.819   6.414
    1   AR   Ar   62   0.266   5.153   4.435
    1   AR   Ar   63   2.020   1.041   6.938
    1   AR   Ar   64   1.081   5.846   4.991
    1   AR   Ar   65   3.717   6.678   0.849
    1   AR   Ar   66   0.584   1.288   1.790
    1   AR   Ar   67   3.598   6.554  -0.813
    1   AR   Ar   68   2.658   1.772  -0.966
    1   AR   Ar   69   2.914   1.101   1.267
    1   AR   Ar   70   0.821   0.090   2.400
    1   AR   Ar   71   2.999   1.261   3.980
    1   AR   Ar   72   4.021   0.230   1.780
    1   AR   Ar   73   3.565   0.369   3.462
    1   AR   Ar   74   1.853   0.441   4.375
    1   AR   Ar   75   3.798   0.967   4.786
    1   AR   Ar   76   1.508   0.748   2.037
    1   AR   Ar   77   2.482   6.732   5.540
    1   AR   Ar   78   0.491   6.946   6.101
    1   AR   Ar   79   3.130   5.989   5.863
    1   AR   Ar   80   4.613   5.162   5.860
    1   AR   Ar   81   2.698   6.210  -0.275
    1   AR   Ar   82   6.773   5.888  -0.429
    1   AR   Ar   83   0.768   2.506   0.229
    1   AR   Ar   84   0.287   3.965   1.032
    1   AR   Ar   85   1.228   3.437   0.851
    1   AR   Ar   86   1.722   4.833  -0.222
    1   AR   Ar   87   1.510   2.135   1.184
    1   AR   Ar   88   2.330   4.927   0.794
    1   AR   Ar   89   0.561   3.063   2.961
    1   AR   Ar   90   2.089   2.649   4.452
    1   AR   Ar   91   1.340   2.094   3.327
    1   AR   Ar   92   1.389   2.433   2.280
    1   AR   Ar   93   1.885   0.612   5.734
    1   AR   Ar   94   0.355   6.868  11.081
    1   AR   Ar   95   3.355   1.280   6.446
    1   AR   Ar   96   2.947   0.443   4.546
    1   AR   Ar   97   4.915   1.698  -0.306
    1   AR   Ar   98   2.183   4.965   2.565
    1   AR   Ar   99   5.973   1.722  -0.681
    1   AR   Ar  100   1.481   3.298  -0.165
    1   AR   Ar  101   3.431   4.465   0.881
    1   AR   Ar  102   3.450   2.520   3.428
    1   AR   Ar  103   0.819   4.959   1.170
    1   AR   Ar  104   3.113   3.975  -1.458
    1   AR   Ar  105   1.085   3.265   4.201
    1   AR   Ar  106   3.152   3.144   5.321
    1   AR   Ar  107   0.869   4.280   4.555
    1   AR   Ar  108   3.174   2.391   4.591
    1   AR   Ar  109   1.994   4.627   4.592
    1   AR   Ar  110   1.337   4.155   5.665
    1   AR   Ar  111   4.759   4.300   7.403
    1   AR   Ar  112   1.566   6.195   6.577
    1   AR   Ar  113   2.759   4.880  -0.138
    1   AR   Ar  114   2.311   6.960  -1.050
    1   AR   Ar  115   1.996   5.247  -1.291
    1   AR   Ar  116   5.477   6.751  -0.575
    1   AR   Ar  117   1.211   5.125   4.029
    1   AR   Ar  118   1.479   5.818   3.147
    1   AR   Ar  119   2.119   2.865   2.874
    1   AR   Ar  120   2.235   6.768   2.386
    1   AR   Ar  121   5.716   4.524   5.606
    1   AR   Ar  122   2.816   6.341   4.720
    1   AR   Ar  123   3.836   3.917   4.987
    1   AR   Ar  124   1.716   5.970   1.490
    1   AR   Ar  125   6.904   3.935   5.267
    1   AR   Ar  126   7.011   6.429   4.424
    1   AR   Ar  127   3.479   3.836   6.169
    1   AR   Ar  128   3.450   5.149   6.365
    1   AR   Ar  129   2.566   6.227   3.175
    1   AR   Ar  130   4.381   3.161  -2.225
    1   AR   Ar  131   3.993   1.231   0.020
    1   AR   Ar  132   6.842   2.250  -0.736
    1   AR   Ar  133   4.480   6.337   2.832
    1   AR   Ar  134   4.595   1.434   3.937
    1   AR   Ar  135   5.590   0.457   2.622
    1   AR   Ar  136   4.993   6.946   2.036
    1   AR   Ar  137   2.941   5.525   3.961
    1   AR   Ar  138   4.685   1.631   5.688
    1   AR   Ar  139   5.556   2.411   5.404
    1   AR   Ar  140   3.841   6.984   4.591
    1   AR   Ar  141   3.877   5.047   4.306
    1   AR   Ar  142   3.318   0.086   6.313
    1   AR   Ar  143   6.589   0.197   5.796
    1   AR   Ar  144   0.003   1.761   5.606
    1   AR   Ar  145   4.725   4.229  -0.168
    1   AR   Ar  146   3.228   2.160   2.054
    1   AR   Ar  147   5.189   1.340  -2.008
    1   AR   Ar  148   3.358   4.950  -1.225
    1   AR   Ar  149   3.140   1.986   0.734
    1   AR   Ar  150   2.410   1.390   2.078
    1   AR   Ar  151   2.478   2.074   3.475
    1   AR   Ar  152   3.407   2.761   0.210
    1   AR   Ar  153   4.686   0.164   3.954
    1   AR   Ar  154   4.111   2.001   4.786
    1   AR   Ar  155   6.670   0.261   6.908
    1   AR   Ar  156   3.918   3.353   4.072
    1   AR   Ar  157   1.857   3.555   6.810
    1   AR   Ar  158   0.599   2.563   6.973
    1   AR   Ar  159   4.653   1.812   6.858
    1   AR   Ar  160   2.448   1.840   5.020
    1   AR   Ar  161   5.329   3.466   2.186
    1   AR   Ar  162   4.536   6.111  -0.710
    1   AR   Ar  163   4.921   3.741   0.950
    1   AR   Ar  164   2.697   5.702   1.674
    1   AR   Ar  165   3.564   3.113   1.245
    1   AR   Ar  166   2.545   3.626   4.449
    1   AR   Ar  167   4.656   0.999   2.832
    1   AR   Ar  168   5.295   3.188  -0.980
    1   AR   Ar  169   2.908   3.369   2.067
    1   AR   Ar  170   2.410   4.249   5.751
    1   AR   Ar  171   5.750   4.112   4.386
    1   AR   Ar  172   4.892   4.515   5.036
    1   AR   Ar  173   2.859   3.996   7.174
    1   AR   Ar  174   2.408   5.462   6.785
    1   AR   Ar  175   2.464   2.853   6.271
    1   AR   Ar  176   3.806   2.370   6.090
    1   AR   Ar  177   6.883   4.594  -0.529
    1   AR   Ar  178   3.828   5.024  -0.318
    1   AR   Ar  179   4.024   5.649   0.584
    1   AR   Ar  180   1.168   1.413  -3.104
    1   AR   Ar  181   0.552   6.033   1.514
    1   AR   Ar  182   2.615   0.643   3.158
    1   AR   Ar  183   3.321   5.177   2.592
    1   AR   Ar  184   4.774   6.596   1.148
    1   AR   Ar  185   2.928   5.093   5.142
    1   AR   Ar  186   3.299   4.350   3.683
    1   AR   Ar  187   3.511   6.447   2.851
    1   AR   Ar  188   3.149   6.748   1.751
    1   AR   Ar  189   3.414   2.965   6.969
    1   AR   Ar  190   4.071   6.154   3.987
    1   AR   Ar  191   3.356   6.154   7.620
    1   AR   Ar  192   3.770   5.885   4.910
    1   AR   Ar  193   2.515   6.159   0.745
    1   AR   Ar  194   4.142   3.650  -1.200
    1   AR   Ar  195   5.391   1.166   0.471
    1   AR   Ar  196   4.728   0.338  -0.086
    1   AR   Ar  197   3.948   0.843   0.954
    1   AR   Ar  198   5.987   1.636   1.239
    1   AR   Ar  199   3.547   1.339   3.116
    1   AR   Ar  200   5.380   2.585   0.072
    1   AR   Ar  201   5.820   6.054   4.067
    1   AR   Ar  202   5.524   1.941   4.346
    1   AR   Ar  203   6.466   6.198   3.236
    1   AR   Ar  204   4.618   6.580   5.157
    1   AR   Ar  205   6.808   0.032   2.057
    1   AR   Ar  206   5.004   0.882   4.879
    1   AR   Ar  207   1.192   1.727   6.722
    1   AR   Ar  208   0.114   0.143   3.491
    1   AR   Ar  209   6.857   2.774  -2.143
    1   AR   Ar  210   3.567   0.287  -0.219
    1   AR   Ar  211   6.360   3.005   0.694
    1   AR   Ar  212   6.086   3.590  -1.677
    1   AR   Ar  213   3.610   1.128   2.075
    1   AR   Ar  214   4.259   3.146   2.954
    1   AR   Ar  215   5.475   2.586   1.238
    1   AR   Ar  216   0.656   3.249   1.884
    1   AR   Ar  217   4.970   3.353   4.445
    1   AR   Ar  218   4.249   3.303   5.557
    1   AR   Ar  219   4.697   2.614   3.791
    1   AR   Ar  220   4.392   4.023   2.288
    1   AR   Ar  221   5.600   6.737   4.977
    1   AR   Ar  222   4.527   0.807   6.643
    1   AR   Ar  223   0.073   1.362   6.543
    1   AR   Ar  224   4.780   2.918   6.383
    1   AR   Ar  225   6.566   3.049   2.441
    1   AR   Ar  226   1.947   3.646   3.566
    1   AR   Ar  227   6.170   3.651   1.613
    1   AR   Ar  228   6.006   6.426   1.987
    1   AR   Ar  229   5.137   4.466  -1.233
    1   AR   Ar  230   4.685   4.441   3.883
    1   AR   Ar  231   5.551   1.335   3.246
    1   AR   Ar  232   4.371   2.450   0.607
    1   AR   Ar  233   6.127   2.508   3.515
    1   AR   Ar  234   6.491   2.989   4.899
    1   AR   Ar  235   6.673   1.986   4.373
    1   AR   Ar  236   5.527   5.671   5.747
    1   AR   Ar  237   5.592   3.412   5.539
    1   AR   Ar  238   4.676   3.976   6.258
    1   AR   Ar  239   5.732   4.546   8.211
    1   AR   Ar  240   6.748   3.097   6.944
    1   AR   Ar  241   0.937   6.486  -0.483
    1   AR   Ar  242   5.630   4.914   0.212
    1   AR   Ar  243   5.516   4.702   2.450
    1   AR   Ar  244   0.797   5.355  -0.263
    1   AR   Ar  245   4.967   0.519   1.036
    1   AR   Ar  246   5.310   6.253   0.428
    1   AR   Ar  247   5.957   4.197   0.790
    1   AR   Ar  248   5.584   5.563  -0.668
    1   AR   Ar  249   4.115   6.065   1.668
    1   AR   Ar  250   4.778   5.584   4.558
    1   AR   Ar  251   5.485   5.003   4.018
    1   AR   Ar  252   4.485   5.355   3.438
    1   AR   Ar  253   6.521   3.647   6.137
    1   AR   Ar  254   2.097   2.097   9.473
    1   AR   Ar  255   4.082   2.863   8.683
    1   AR   Ar  256   6.600   5.189   3.160
    7.12000  7.12000 12.00000
Argon-slab step 3245
  256
    1   AR   Ar    1   6.680   1.388  -1.525
    1   AR   Ar    2   6.620   0.063   0.217
    1   AR   Ar    3   2.536   0.777  -0.148
    1   AR   Ar    4   1.290   0.589  -0.235
    1   AR   Ar    5   7.115   6.886   1.101
    1   AR   Ar    6   6.954   0.951   2.433
    1   AR   Ar    7   6.405   3.761   3.279
    1   AR   Ar    8   5.962   0.527   1.410
    1   AR   Ar    9   1.515   6.826   3.168
    1   AR   Ar   10   1.032   0.243   3.918
    1   AR   Ar   11   1.766   6.519   4.394
    1   AR   Ar   12   0.813   1.118   2.881
    1   AR   Ar   13   0.564   0.745   4.727
    1   AR   Ar   14   6.858   2.169   7.665
    1   AR   Ar   15   4.595   7.010   8.692
    1   AR   Ar   16   0.940   6.993   5.244
    1   AR   Ar   17   6.245   1.904   0.226
    1   AR   Ar   18   6.282   3.783  -0.615
    1   AR   Ar   19   2.310   3.137   1.024
    1   AR   Ar   20   4.458   4.282  -2.111
    1   AR   Ar   21   4.940   1.629   1.331
    1   AR   Ar   22   6.349   1.885   2.810
    1   AR   Ar   23   0.177   1.229  -0.467
    1   AR   Ar   24   6.992   2.378   1.614
    1   AR   Ar   25   0.747   1.311   3.909
    1   AR   Ar   26   5.681   0.156   3.947
    1   AR   Ar   27   1.658   0.919   3.319
    1   AR   Ar   28   0.919   2.314   5.247
    1   AR   Ar   29   5.687   2.858   7.045
    1   AR   Ar   30   1.742   1.651   4.117
    1   AR   Ar   31   3.697   0.359   7.376
    1   AR   Ar   32   1.429   2.743   6.179
    1   AR   Ar   33   0.928   4.351  -0.851
    1   AR   Ar   34   0.456   5.185   2.180
    1   AR   Ar   35   5.829   5.537   1.093
    1   AR   Ar   36   6.565   0.929  -4.041
    1   AR   Ar   37   5.390   2.228   2.458
    1   AR   Ar   38   7.104   3.934   2.383
    1   AR   Ar   39   1.319   3.970   2.602
    1   AR   Ar   40   2.608   4.397   1.834
    1   AR   Ar   41   0.103   2.851   3.829
    1   AR   Ar   42   6.375   5.449   5.103
    1   AR   Ar   43   6.525   2.603   5.847
    1   AR   Ar   44   0.355   4.721   3.538
    1   AR   Ar   45   0.438   3.316   5.963
    1   AR   Ar   46   0.334   5.397   5.551
    1   AR   Ar   47   5.624   4.102   6.894
    1   AR   Ar   48   6.897   5.953   6.843
    1   AR   Ar   49   5.418   0.635  -0.942
    1   AR   Ar   50   4.929   4.702   1.048
    1   AR   Ar   51   6.533   4.608   1.681
    1   AR   Ar   52   6.276   4.568  -1.987
    1   AR   Ar   53   5.575   5.646   2.866
    1   AR   Ar   54   0.059   6.237   2.442
    1   AR   Ar   55   6.419   5.521   2.043
    1   AR   Ar   56   6.995   1.328   1.008
    1   AR   Ar   57   5.270   3.502   3.288
    1   AR   Ar   58   6.809   4.102   4.190
    1   AR   Ar   59   2.255   5.695   5.668
    1   AR   Ar   60   0.563   6.406   3.614
    1   AR   Ar   61   6.855   4.803   6.376
    1   AR   Ar   62   0.264   5.158   4.419
    1   AR   Ar   63   2.014   1.043   6.954
    1   AR   Ar   64   1.111   5.824   4.971
    1   AR   Ar   65   3.698   6.701   0.841
    1   AR   Ar   66   0.589   1.258   1.802
    1   AR   Ar   67   3.592   6.549  -0.818
    1   AR   Ar   68   2.642   1.767  -0.979
    1   AR   Ar   69   2.957   1.099   1.255
    1   AR   Ar   70   0.796   0.070   2.401
    1   AR   Ar   71   3.026   1.253   3.985
    1   AR   Ar   72   4.038   0.207   1.775
    1   AR   Ar   73   3.592   0.408   3.446
    1   AR   Ar   74   1.865   0.470   4.361
    1   AR   Ar   75   3.814   0.946   4.765
    1   AR   Ar   76   1.533   0.723   2.002
    1   AR   Ar   77   2.464   6.750   5.524
    1   AR   Ar   78   0.478   6.951   6.096
    1   AR   Ar   79   3.147   5.990   5.870
    1   AR   Ar   80   4.573   5.147   5.882
    1   AR   Ar   81   2.677   6.171  -0.261
    1   AR   Ar   82   6.782   5.863  -0.407
    1   AR   Ar   83   0.770   2.525   0.262
    1   AR   Ar   84   0.288   3.945   1.033
    1   AR   Ar   85   1.233   3.440   0.878
    1   AR   Ar   86   1.719   4.828  -0.199
    1   AR   Ar   87   1.511   2.170   1.225
    1   AR   Ar   88   2.308   4.910   0.814
    1   AR   Ar   89   0.583   3.067   2.964
    1   AR   Ar   90   2.075   2.661   4.453
    1   AR   Ar   91   1.341   2.109   3.339
    1   AR   Ar   92   1.380   2.440   2.263
    1   AR   Ar   93   1.856   0.628   5.764
    1   AR   Ar   94   0.356   6.873  11.101
    1   AR   Ar   95   3.373   1.294   6.424
    1   AR   Ar   96   2.923   0.457   4.568
    1   AR   Ar   97   4.926   1.679  -0.295
    1   AR   Ar   98   2.170   4.959   2.582
    1   AR   Ar   99   5.998   1.696  -0.663
    1   AR   Ar  100   1.477   3.254  -0.186
    1   AR   Ar  101   3.431   4.477   0.875
    1   AR   Ar  102   3.445   2.533   3.418
    1   AR   Ar  103   0.847   4.966   1.190
    1   AR   Ar  104   3.136   4.013  -1.457
    1   AR   Ar  105   1.031   3.303   4.191
    1   AR   Ar  106   3.147   3.134   5.323
    1   AR   Ar  107   0.878   4.279   4.540
    1   AR   Ar  108   3.172   2.361   4.587
    1   AR   Ar  109   2.010   4.587   4.570
    1   AR   Ar  110   1.308   4.129   5.653
    1   AR   Ar  111   4.741   4.279   7.432
    1   AR   Ar  112   1.571   6.176   6.533
    1   AR   Ar  113   2.754   4.911  -0.117
    1   AR   Ar  114   2.328   6.979  -1.051
    1   AR   Ar  115   2.017   5.225  -1.279
    1   AR   Ar  116   5.496   6.759  -0.602
    1   AR   Ar  117   1.236   5.149   4.033
    1   AR   Ar  118   1.494   5.802   3.206
    1   AR   Ar  119   2.135   2.872   2.907
    1   AR   Ar  120   2.233   6.746   2.358
    1   AR   Ar  121   5.714   4.532   5.601
    1   AR   Ar  122   2.860   6.345   4.712
    1   AR   Ar  123   3.826   3.945   4.971
    1   AR   Ar  124   1.690   5.967   1.497
    1   AR   Ar  125   6.890   3.926   5.218
    1   AR   Ar  126   6.991   6.422   4.430
    1   AR   Ar  127   3.495   3.816   6.153
    1   AR   Ar  128   3.457   5.149   6.368
    1   AR   Ar  129   2.528   6.223   3.172
    1   AR   Ar  130   4.385   3.188  -2.206
    1   AR   Ar  131   3.985   1.236   0.013
    1   AR   Ar  132   6.847   2.252  -0.743
    1   AR   Ar  133   4.501   6.316   2.824
    1   AR   Ar  134   4.566   1.431   3.950
    1   AR   Ar  135   5.615   0.439   2.616
    1   AR   Ar  136   5.027   6.940   2.058
    1   AR   Ar  137   2.979   5.487   3.976
    1   AR   Ar  138   4.668   1.608   5.697
    1   AR   Ar  139   5.565   2.420   5.439
    1   AR   Ar  140   3.854   6.971   4.561
    1   AR   Ar  141   3.854   5.041   4.307
    1   AR   Ar  142   3.318   0.083   6.304
    1   AR   Ar  143   6.575   0.156   5.795
    1   AR   Ar  144   0.035   1.776   5.558
    1   AR   Ar  145   4.726   4.247  -0.171
    1   AR   Ar  146   3.240   2.129   2.064
    1   AR   Ar  147   5.176   1.360  -2.016
    1   AR   Ar  148   3.366   4.954  -1.226
    1   AR   Ar  149   3.166   1.971   0.741
    1   AR   Ar  150   2.446   1.386   2.093
    1   AR   Ar  151   2.484   2.084   3.476
    1   AR   Ar  152   3.418   2.750   0.231
    1   AR   Ar  153   4.650   0.151   3.974
    1   AR   Ar  154   4.084   2.005   4.787
    1   AR   Ar  155   6.723   0.258   6.922
    1   AR   Ar  156   3.919   3.359   4.046
    1   AR   Ar  157   1.829   3.563   6.825
    1   AR   Ar  158   0.576   2.551   7.000
    1   AR   Ar  159   4.662   1.827   6.920
    1   AR   Ar  160   2.429   1.869   4.997
    1   AR   Ar  161   5.319   3.463   2.184
    1   AR   Ar  162   4.547   6.107  -0.685
    1   AR   Ar  163   4.928   3.730   0.939
    1   AR   Ar  164   2.716   5.731   1.696
    1   AR   Ar  165   3.546   3.128   1.297
    1   AR   Ar  166   2.529   3.630   4.422
    1   AR   Ar  167   4.677   0.993   2.858
    1   AR   Ar  168   5.294   3.203  -0.973
    1   AR   Ar  169   2.918   3.390   2.057
    1   AR   Ar  170   2.455   4.241   5.786
    1   AR   Ar  171   5.761   4.074   4.385
    1   AR   Ar  172   4.896   4.524   5.042
    1   AR   Ar  173   2.847   4.021   7.131
    1   AR   Ar  174   2.423   5.481   6.791
    1   AR   Ar  175   2.439   2.825   6.273
    1   AR   Ar  176   3.815   2.339   6.104
    1   AR   Ar  177   6.917   4.598  -0.549
    1   AR   Ar  178   3.838   5.033  -0.307
    1   AR   Ar  179   4.032   5.656   0.558
    1   AR   Ar  180   1.172   1.405  -3.101
    1   AR   Ar  181   0.550   6.034   1.513
    1   AR   Ar  182   2.661   0.655   3.173
    1   AR   Ar  183   3.326   5.195   2.615
    1   AR   Ar  184   4.776   6.600   1.157
    1   AR   Ar  185   2.907   5.140   5.114
    1   AR   Ar  186   3.270   4.368   3.717
    1   AR   Ar  187   3.499   6.441   2.849
    1   AR   Ar  188   3.174   6.791   1.776
    1   AR   Ar  189   3.426   2.963   6.962
    1   AR   Ar  190   4.060   6.121   3.978
    1   AR   Ar  191   3.337   6.180   7.610
    1   AR   Ar  192   3.763   5.894   4.927
    1   AR   Ar  193   2.527   6.173   0.731
    1   AR   Ar  194   4.132   3.659  -1.234
    1   AR   Ar  195   5.394   1.144   0.465
    1   AR   Ar  196   4.707   0.343  -0.044
    1   AR   Ar  197   3.968   0.836   0.930
    1   AR   Ar  198   5.995   1.661   1.258
    1   AR   Ar  199   3.547   1.339   3.100
    1   AR   Ar  200   5.385   2.602   0.080
    1   AR   Ar  201   5.835   6.040   4.062
    1   AR   Ar  202   5.521   1.953   4.336
    1   AR   Ar  203   6.453   6.155   3.205
    1   AR   Ar  204   4.588   6.548   5.139
    1   AR   Ar  205   6.775   0.043   2.061
    1   AR   Ar  206   4.986   0.869   4.860
    1   AR   Ar  207   1.153   1.729   6.685
    1   AR   Ar  208   0.099   0.127   3.504
    1   AR   Ar  209   6.851   2.773  -2.118
    1   AR   Ar  210   3.589   0.261  -0.218
    1   AR   Ar  211   6.374   3.028   0.705
    1   AR   Ar  212   6.075   3.577  -1.663
    1   AR   Ar  213   3.600   1.152   2.075
    1   AR   Ar  214   4.264   3.132   2.951
    1   AR   Ar  215   5.480   2.576   1.244
    1   AR   Ar  216   0.701   3.238   1.886
    1   AR   Ar  217   5.004   3.351   4.461
    1   AR   Ar  218   4.247   3.308   5.537
    1   AR   Ar  219   4.729   2.605   3.801
    1   AR   Ar  220   4.379   4.031   2.274
    1   AR   Ar  221   5.583   6.712   4.981
    1   AR   Ar  222   4.526   0.788   6.646
    1   AR   Ar  223   0.058   1.362   6.523
    1   AR   Ar  224   4.787   2.917   6.407
    1   AR   Ar  225   6.552   3.020   2.455
    1   AR   Ar  226   1.919   3.652   3.554
    1   AR   Ar  227   6.189   3.664   1.608
    1   AR   Ar  228   6.005   6.429   2.000
    1   AR   Ar  229   5.144   4.500  -1.278
    1   AR   Ar  230   4.702   4.404   3.882
    1   AR   Ar  231   5.546   1.360   3.237
    1   AR   Ar  232   4.432   2.444   0.644
    1   AR   Ar  233   6.128   2.523   3.493
    1   AR   Ar  234   6.497   2.959   4.890
    1   AR   Ar  235   6.687   1.983   4.336
    1   AR   Ar  236   5.511   5.657   5.738
    1   AR   Ar  237   5.580   3.390   5.584
    1   AR   Ar  238   4.670   3.989   6.265
    1   AR   Ar  239   5.723   4.567   8.199
    1   AR   Ar  240   6.708   3.097   6.950
    1   AR   Ar  241   0.942   6.488  -0.446
    1   AR   Ar  242   5.647   4.933   0.237
    1   AR   Ar  243   5.498   4.712   2.467
    1   AR   Ar  244   0.787   5.361  -0.262
    1   AR   Ar  245   4.967   0.508   1.021
    1   AR   Ar  246   5.320   6.246   0.424
    1   AR   Ar  247   5.982   4.225   0.765
    1   AR   Ar  248   5.621   5.585  -0.602
    1   AR   Ar  249   4.106   6.086   1.667
    1   AR   Ar  250   4.803   5.572   4.562
    1   AR   Ar  251   5.467   4.990   4.031
    1   AR   Ar  252   4.474   5.333   3.454
    1   AR   Ar  253   6.531   3.644   6.145
    1   AR   Ar  254   2.141   2.115   9.477
    1   AR   Ar  255   4.072   2.898   8.706
    1   AR   Ar  256   6.589   5.163   3.203
    7.12000  7.12000 12.00000
Argon-slab step 3250
  256
    1   AR   Ar    1   6.642   1.412  -1.550
    1   AR   Ar    2   6.637   0.104   0.224
    1   AR   Ar    3   2.576   0.790  -0.141
    1   AR   Ar    4   1.299   0.579  -0.229
    1   AR   Ar    5   0.008   6.881   1.113
    1   AR   Ar    6   6.958   0.971   2.417
    1   AR   Ar    7   6.387   3.716   3.304
    1   AR   Ar    8   5.984   0.532   1.377
    1   AR   Ar    9   1.472   6.828   3.157
    1   AR   Ar   10   1.026   0.263   3.923
    1   AR   Ar   11   1.768   6.499   4.385
    1   AR   Ar   12   0.780   1.122   2.881
    1   AR   Ar   13   0.538   0.752   4.741
    1   AR   Ar   14   6.828   2.155   7.656
    1   AR   Ar   15   4.586   6.982   8.647
    1   AR   Ar   16   0.922   6.988   5.241
    1   AR   Ar   17   6.250   1.917   0.255
    1   AR   Ar   18   6.248   3.812  -0.608
    1   AR   Ar   19   2.297   3.140   1.018
    1   AR   Ar   20   4.441   4.297  -2.097
    1   AR   Ar   21   4.908   1.637   1.344
    1   AR   Ar   22   6.343   1.866   2.807
    1   AR   Ar   23   0.159   1.231  -0.470
    1   AR   Ar   24   6.963   2.398   1.638
    1   AR   Ar   25   0.779   1.377   3.906
    1   AR   Ar   26   5.673   0.170   3.950
    1   AR   Ar   27   1.642   0.917   3.341
    1   AR   Ar   28   0.925   2.295   5.254
    1   AR   Ar   29   5.680   2.865   7.034
    1   AR   Ar   30   1.732   1.650   4.136
    1   AR   Ar   31   3.708   0.346   7.345
    1   AR   Ar   32   1.422   2.729   6.165
    1   AR   Ar   33   0.959   4.378  -0.842
    1   AR   Ar   34   0.479   5.190   2.193
    1   AR   Ar   35   5.799   5.539   1.060
    1   AR   Ar   36   6.534   0.923  -4.063
    1   AR   Ar   37   5.369   2.226   2.466
    1   AR   Ar   38   7.107   3.943   2.408
    1   AR   Ar   39   1.329   3.963   2.626
    1   AR   Ar   40   2.609   4.413   1.844
    1   AR   Ar   41   0.109   2.840   3.826
    1   AR   Ar   42   6.378   5.451   5.116
    1   AR   Ar   43   6.502   2.613   5.851
    1   AR   Ar   44   0.370   4.718   3.558
    1   AR   Ar   45   0.442   3.325   5.974
    1   AR   Ar   46   0.298   5.411   5.544
    1   AR   Ar   47   5.618   4.108   6.892
    1   AR   Ar   48   6.911   5.944   6.806
    1   AR   Ar   49   5.401   0.658  -0.942
    1   AR   Ar   50   4.935   4.742   1.017
    1   AR   Ar   51   6.535   4.646   1.660
    1   AR   Ar   52   6.304   4.559  -2.007
    1   AR   Ar   53   5.573   5.637   2.879
    1   AR   Ar   54   0.055   6.218   2.424
    1   AR   Ar   55   6.434   5.523   2.064
    1   AR   Ar   56   7.017   1.306   0.998
    1   AR   Ar   57   5.261   3.469   3.289
    1   AR   Ar   58   6.827   4.115   4.164
    1   AR   Ar   59   2.278   5.676   5.635
    1   AR   Ar   60   0.567   6.386   3.625
    1   AR   Ar   61   6.844   4.787   6.337
    1   AR   Ar   62   0.255   5.170   4.415
    1   AR   Ar   63   2.008   1.046   6.968
    1   AR   Ar   64   1.144   5.802   4.949
    1   AR   Ar   65   3.680   6.726   0.831
    1   AR   Ar   66   0.601   1.221   1.816
    1   AR   Ar   67   3.584   6.542  -0.825
    1   AR   Ar   68   2.626   1.761  -0.990
    1   AR   Ar   69   2.961   1.113   1.262
    1   AR   Ar   70   0.767   0.049   2.404
    1   AR   Ar   71   3.053   1.256   3.990
    1   AR   Ar   72   4.062   0.184   1.772
    1   AR   Ar   73   3.629   0.435   3.438
    1   AR   Ar   74   1.887   0.506   4.354
    1   AR   Ar   75   3.835   0.926   4.744
    1   AR   Ar   76   1.560   0.700   1.967
    1   AR   Ar   77   2.440   6.776   5.515
    1   AR   Ar   78   0.457   6.954   6.105
    1   AR   Ar   79   3.153   5.965   5.853
    1   AR   Ar   80   4.531   5.131   5.903
    1   AR   Ar   81   2.658   6.132  -0.255
    1   AR   Ar   82   6.792   5.838  -0.383
    1   AR   Ar   83   0.772   2.545   0.296
    1   AR   Ar   84   0.280   3.947   1.042
    1   AR   Ar   85   1.240   3.441   0.906
    1   AR   Ar   86   1.714   4.821  -0.176
    1   AR   Ar   87   1.513   2.205   1.265
    1   AR   Ar   88   2.284   4.894   0.840
    1   AR   Ar   89   0.610   3.072   2.961
    1   AR   Ar   90   2.057   2.677   4.449
    1   AR   Ar   91   1.338   2.130   3.342
    1   AR   Ar   92   1.369   2.447   2.247
    1   AR   Ar   93   1.822   0.639   5.785
    1   AR   Ar   94   0.357   6.878  11.121
    1   AR   Ar   95   3.393   1.308   6.402
    1   AR   Ar   96   2.894   0.460   4.595
    1   AR   Ar   97   4.936   1.661  -0.288
    1   AR   Ar   98   2.155   4.956   2.603
    1   AR   Ar   99   6.011   1.661  -0.667
    1   AR   Ar  100   1.473   3.211  -0.208
    1   AR   Ar  101   3.430   4.490   0.868
    1   AR   Ar  102   3.445   2.539   3.409
    1   AR   Ar  103   0.875   4.971   1.208
    1   AR   Ar  104   3.155   4.043  -1.459
    1   AR   Ar  105   0.980   3.336   4.179
    1   AR   Ar  106   3.140   3.126   5.328
    1   AR   Ar  107   0.886   4.277   4.529
    1   AR   Ar  108   3.170   2.338   4.571
    1   AR   Ar  109   2.026   4.548   4.549
    1   AR   Ar  110   1.299   4.094   5.630
    1   AR   Ar  111   4.740   4.280   7.461
    1   AR   Ar  112   1.577   6.156   6.488
    1   AR   Ar  113   2.756   4.943  -0.099
    1   AR   Ar  114   2.345   6.998  -1.050
    1   AR   Ar  115   2.038   5.202  -1.266
    1   AR   Ar  116   5.515   6.763  -0.626
    1   AR   Ar  117   1.236   5.162   4.028
    1   AR   Ar  118   1.509   5.781   3.263
    1   AR   Ar  119   2.150   2.880   2.936
    1   AR   Ar  120   2.229   6.728   2.323
    1   AR   Ar  121   5.722   4.539   5.602
    1   AR   Ar  122   2.904   6.345   4.694
    1   AR   Ar  123   3.805   3.991   4.941
    1   AR   Ar  124   1.662   5.964   1.504
    1   AR   Ar  125   6.878   3.919   5.168
    1   AR   Ar  126   6.983   6.420   4.411
    1   AR   Ar  127   3.533   3.840   6.189
    1   AR   Ar  128   3.465   5.142   6.373
    1   AR   Ar  129   2.488   6.213   3.176
    1   AR   Ar  130   4.390   3.214  -2.187
    1   AR   Ar  131   3.976   1.238   0.022
    1   AR   Ar  132   6.858   2.258  -0.751
    1   AR   Ar  133   4.530   6.293   2.816
    1   AR   Ar  134   4.536   1.427   3.963
    1   AR   Ar  135   5.646   0.423   2.613
    1   AR   Ar  136   5.061   6.935   2.085
    1   AR   Ar  137   3.013   5.451   3.990
    1   AR   Ar  138   4.641   1.583   5.709
    1   AR   Ar  139   5.569   2.409   5.464
    1   AR   Ar  140   3.858   6.959   4.531
    1   AR   Ar  141   3.834   5.033   4.305
    1   AR   Ar  142   3.317   0.080   6.295
    1   AR   Ar  143   6.562   0.115   5.793
    1   AR   Ar  144   0.067   1.790   5.506
    1   AR   Ar  145   4.728   4.266  -0.174
    1   AR   Ar  146   3.250   2.103   2.074
    1   AR   Ar  147   5.164   1.380  -2.022
    1   AR   Ar  148   3.373   4.968  -1.227
    1   AR   Ar  149   3.189   1.946   0.757
    1   AR   Ar  150   2.477   1.384   2.115
    1   AR   Ar  151   2.490   2.089   3.479
    1   AR   Ar  152   3.434   2.754   0.241
    1   AR   Ar  153   4.612   0.141   3.992
    1   AR   Ar  154   4.067   2.008   4.789
    1   AR   Ar  155   6.776   0.256   6.934
    1   AR   Ar  156   3.920   3.366   4.020
    1   AR   Ar  157   1.800   3.572   6.840
    1   AR   Ar  158   0.560   2.552   7.013
    1   AR   Ar  159   4.671   1.844   6.980
    1   AR   Ar  160   2.402   1.888   4.981
    1   AR   Ar  161   5.303   3.454   2.194
    1   AR   Ar  162   4.554   6.112  -0.721
    1   AR   Ar  163   4.937   3.703   0.926
    1   AR   Ar  164   2.737   5.758   1.721
    1   AR   Ar  165   3.533   3.140   1.344
    1   AR   Ar  166   2.518   3.635   4.397
    1   AR   Ar  167   4.689   0.985   2.882
    1   AR   Ar  168   5.292   3.220  -0.965
    1   AR   Ar  169   2.924   3.410   2.052
    1   AR   Ar  170   2.502   4.232   5.821
    1   AR   Ar  171   5.774   4.033   4.387
    1   AR   Ar  172   4.891   4.532   5.039
    1   AR   Ar  173   2.835   4.046   7.085
    1   AR   Ar  174   2.441   5.501   6.796
    1   AR   Ar  175   2.422   2.797   6.274
    1   AR   Ar  176   3.824   2.309   6.116
    1   AR   Ar  177   6.955   4.606  -0.569
    1   AR   Ar  178   3.852   5.042  -0.293
    1   AR   Ar  179   4.040   5.665   0.533
    1   AR   Ar  180   1.176   1.396  -3.097
    1   AR   Ar  181   0.550   6.036   1.511
    1   AR   Ar  182   2.701   0.667   3.182
    1   AR   Ar  183   3.330   5.214   2.638
    1   AR   Ar  184   4.774   6.610   1.161
    1   AR   Ar  185   2.892   5.182   5.082
    1   AR   Ar  186   3.240   4.383   3.751
    1   AR   Ar  187   3.482   6.437   2.846
    1   AR   Ar  188   3.192   6.830   1.802
    1   AR   Ar  189   3.437   2.963   6.953
    1   AR   Ar  190   4.048   6.092   3.963
    1   AR   Ar  191   3.318   6.207   7.600
    1   AR   Ar  192   3.757   5.900   4.951
    1   AR   Ar  193   2.539   6.188   0.725
    1   AR   Ar  194   4.126   3.669  -1.266
    1   AR   Ar  195   5.410   1.135   0.447
    1   AR   Ar  196   4.686   0.348  -0.001
    1   AR   Ar  197   3.987   0.827   0.912
    1   AR   Ar  198   6.007   1.684   1.280
    1   AR   Ar  199   3.575   1.359   3.072
    1   AR   Ar  200   5.391   2.620   0.088
    1   AR   Ar  201   5.847   6.026   4.060
    1   AR   Ar  202   5.518   1.966   4.326
    1   AR   Ar  203   6.440   6.124   3.175
    1   AR   Ar  204   4.557   6.513   5.123
    1   AR   Ar  205   6.741   0.050   2.065
    1   AR   Ar  206   4.967   0.855   4.839
    1   AR   Ar  207   1.116   1.729   6.646
    1   AR   Ar  208   0.071   0.124   3.512
    1   AR   Ar  209   6.845   2.772  -2.091
    1   AR   Ar  210   3.568   0.272  -0.179
    1   AR   Ar  211   6.387   3.051   0.715
    1   AR   Ar  212   6.064   3.561  -1.649
    1   AR   Ar  213   3.594   1.172   2.075
    1   AR   Ar  214   4.270   3.118   2.947
    1   AR   Ar  215   5.501   2.555   1.258
    1   AR   Ar  216   0.745   3.228   1.886
    1   AR   Ar  217   5.036   3.351   4.481
    1   AR   Ar  218   4.243   3.321   5.471
    1   AR   Ar  219   4.760   2.591   3.810
    1   AR   Ar  220   4.366   4.041   2.259
    1   AR   Ar  221   5.573   6.687   4.983
    1   AR   Ar  222   4.523   0.769   6.648
    1   AR   Ar  223   0.043   1.362   6.507
    1   AR   Ar  224   4.795   2.914   6.430
    1   AR   Ar  225   6.537   2.987   2.470
    1   AR   Ar  226   1.909   3.666   3.557
    1   AR   Ar  227   6.210   3.666   1.606
    1   AR   Ar  228   5.998   6.439   2.012
    1   AR   Ar  229   5.152   4.533  -1.321
    1   AR   Ar  230   4.708   4.353   3.882
    1   AR   Ar  231   5.527   1.391   3.233
    1   AR   Ar  232   4.493   2.437   0.682
    1   AR   Ar  233   6.123   2.552   3.485
    1   AR   Ar  234   6.501   2.930   4.875
    1   AR   Ar  235   6.702   1.980   4.300
    1   AR   Ar  236   5.495   5.645   5.727
    1   AR   Ar  237   5.568   3.381   5.630
    1   AR   Ar  238   4.664   4.005   6.272
    1   AR   Ar  239   5.713   4.588   8.186
    1   AR   Ar  240   6.672   3.090   6.963
    1   AR   Ar  241   0.968   6.508  -0.407
    1   AR   Ar  242   5.655   4.968   0.248
    1   AR   Ar  243   5.480   4.715   2.481
    1   AR   Ar  244   0.775   5.371  -0.261
    1   AR   Ar  245   4.957   0.482   1.020
    1   AR   Ar  246   5.337   6.234   0.408
    1   AR   Ar  247   6.014   4.237   0.750
    1   AR   Ar  248   5.657   5.610  -0.537
    1   AR   Ar  249   4.083   6.082   1.656
    1   AR   Ar  250   4.827   5.563   4.570
    1   AR   Ar  251   5.488   4.987   4.022
    1   AR   Ar  252   4.460   5.324   3.468
    1   AR   Ar  253   6.535   3.648   6.148
    1   AR   Ar  254   2.185   2.133   9.481
    1   AR   Ar  255   4.062   2.932   8.728
    1   AR   Ar  256   6.576   5.129   3.243
    7.12000  7.12000 12.00000
Argon-slab step 3255
  256
    1   AR   Ar    1   6.604   1.436  -1.574
    1   AR   Ar    2   6.653   0.148   0.229
    1   AR   Ar    3   2.616   0.802  -0.135
    1   AR   Ar    4   1.309   0.570  -0.222
    1   AR   Ar    5   0.022   6.876   1.125
    1   AR   Ar    6   6.955   0.995   2.408
    1   AR   Ar    7   6.368   3.668   3.326
    1   AR   Ar    8   6.007   0.538   1.345
    1   AR   Ar    9   1.433   6.833   3.144
    1   AR   Ar   10   1.012   0.279   3.927
    1   AR   Ar   11   1.771   6.480   4.374
    1   AR   Ar   12   0.742   1.126   2.877
    1   AR   Ar   13   0.512   0.760   4.758
    1   AR   Ar   14   6.797   2.142   7.645
    1   AR   Ar   15   4.576   6.955   8.602
    1   AR   Ar   16   0.913   6.983   5.225
    1   AR   Ar   17   6.258   1.934   0.294
    1   AR   Ar   18   6.211   3.839  -0.601
    1   AR   Ar   19   2.285   3.142   1.013
    1   AR   Ar   20   4.422   4.313  -2.085
    1   AR   Ar   21   4.874   1.642   1.356
    1   AR   Ar   22   6.345   1.841   2.794
    1   AR   Ar   23   0.180   1.252  -0.482
    1   AR   Ar   24   6.933   2.417   1.660
    1   AR   Ar   25   0.804   1.442   3.904
    1   AR   Ar   26   5.667   0.184   3.953
    1   AR   Ar   27   1.636   0.914   3.364
    1   AR   Ar   28   0.926   2.291   5.260
    1   AR   Ar   29   5.669   2.870   7.022
    1   AR   Ar   30   1.746   1.652   4.142
    1   AR   Ar   31   3.719   0.332   7.314
    1   AR   Ar   32   1.406   2.714   6.150
    1   AR   Ar   33   0.990   4.405  -0.834
    1   AR   Ar   34   0.493   5.202   2.205
    1   AR   Ar   35   5.772   5.543   1.038
    1   AR   Ar   36   6.503   0.917  -4.084
    1   AR   Ar   37   5.348   2.226   2.472
    1   AR   Ar   38   7.110   3.953   2.433
    1   AR   Ar   39   1.337   3.955   2.651
    1   AR   Ar   40   2.576   4.399   1.837
    1   AR   Ar   41   0.108   2.827   3.827
    1   AR   Ar   42   6.362   5.436   5.106
    1   AR   Ar   43   6.498   2.623   5.860
    1   AR   Ar   44   0.390   4.706   3.564
    1   AR   Ar   45   0.448   3.333   5.985
    1   AR   Ar   46   0.260   5.424   5.536
    1   AR   Ar   47   5.616   4.112   6.886
    1   AR   Ar   48   6.924   5.936   6.768
    1   AR   Ar   49   5.383   0.685  -0.940
    1   AR   Ar   50   4.940   4.787   0.987
    1   AR   Ar   51   6.542   4.674   1.634
    1   AR   Ar   52   6.359   4.568  -1.995
    1   AR   Ar   53   5.568   5.633   2.895
    1   AR   Ar   54   0.058   6.230   2.421
    1   AR   Ar   55   6.442   5.526   2.110
    1   AR   Ar   56   7.036   1.284   0.988
    1   AR   Ar   57   5.254   3.436   3.292
    1   AR   Ar   58   6.847   4.129   4.136
    1   AR   Ar   59   2.268   5.659   5.608
    1   AR   Ar   60   0.579   6.356   3.635
    1   AR   Ar   61   6.831   4.771   6.295
    1   AR   Ar   62   0.240   5.191   4.425
    1   AR   Ar   63   2.002   1.048   6.981
    1   AR   Ar   64   1.176   5.781   4.927
    1   AR   Ar   65   3.663   6.752   0.820
    1   AR   Ar   66   0.620   1.187   1.824
    1   AR   Ar   67   3.572   6.532  -0.833
    1   AR   Ar   68   2.610   1.754  -1.001
    1   AR   Ar   69   2.949   1.102   1.247
    1   AR   Ar   70   0.735   0.028   2.407
    1   AR   Ar   71   3.079   1.267   3.996
    1   AR   Ar   72   4.096   0.164   1.769
    1   AR   Ar   73   3.678   0.450   3.438
    1   AR   Ar   74   1.915   0.546   4.351
    1   AR   Ar   75   3.827   0.936   4.714
    1   AR   Ar   76   1.589   0.676   1.935
    1   AR   Ar   77   2.414   6.805   5.510
    1   AR   Ar   78   0.430   6.957   6.127
    1   AR   Ar   79   3.178   5.952   5.838
    1   AR   Ar   80   4.487   5.114   5.924
    1   AR   Ar   81   2.641   6.091  -0.261
    1   AR   Ar   82   6.801   5.812  -0.359
    1   AR   Ar   83   0.773   2.563   0.332
    1   AR   Ar   84   0.269   3.949   1.052
    1   AR   Ar   85   1.246   3.441   0.934
    1   AR   Ar   86   1.708   4.814  -0.153
    1   AR   Ar   87   1.514   2.241   1.298
    1   AR   Ar   88   2.259   4.879   0.869
    1   AR   Ar   89   0.603   3.064   2.975
    1   AR   Ar   90   2.036   2.697   4.440
    1   AR   Ar   91   1.333   2.155   3.337
    1   AR   Ar   92   1.358   2.453   2.240
    1   AR   Ar   93   1.788   0.650   5.805
    1   AR   Ar   94   0.358   6.883  11.141
    1   AR   Ar   95   3.413   1.320   6.380
    1   AR   Ar   96   2.867   0.454   4.627
    1   AR   Ar   97   4.945   1.646  -0.284
    1   AR   Ar   98   2.155   4.965   2.615
    1   AR   Ar   99   6.016   1.619  -0.680
    1   AR   Ar  100   1.469   3.170  -0.229
    1   AR   Ar  101   3.428   4.504   0.862
    1   AR   Ar  102   3.459   2.518   3.409
    1   AR   Ar  103   0.905   4.977   1.225
    1   AR   Ar  104   3.169   4.061  -1.464
    1   AR   Ar  105   0.932   3.363   4.165
    1   AR   Ar  106   3.133   3.118   5.334
    1   AR   Ar  107   0.893   4.282   4.521
    1   AR   Ar  108   3.167   2.326   4.544
    1   AR   Ar  109   2.041   4.512   4.529
    1   AR   Ar  110   1.300   4.055   5.599
    1   AR   Ar  111   4.749   4.298   7.488
    1   AR   Ar  112   1.584   6.137   6.441
    1   AR   Ar  113   2.763   4.976  -0.085
    1   AR   Ar  114   2.364   7.017  -1.048
    1   AR   Ar  115   2.059   5.178  -1.250
    1   AR   Ar  116   5.533   6.765  -0.648
    1   AR   Ar  117   1.220   5.166   4.020
    1   AR   Ar  118   1.524   5.761   3.316
    1   AR   Ar  119   2.165   2.889   2.957
    1   AR   Ar  120   2.223   6.712   2.284
    1   AR   Ar  121   5.738   4.545   5.608
    1   AR   Ar  122   2.942   6.347   4.669
    1   AR   Ar  123   3.776   4.051   4.900
    1   AR   Ar  124   1.635   5.961   1.511
    1   AR   Ar  125   6.867   3.913   5.123
    1   AR   Ar  126   6.972   6.418   4.395
    1   AR   Ar  127   3.571   3.864   6.224
    1   AR   Ar  128   3.474   5.129   6.379
    1   AR   Ar  129   2.449   6.201   3.186
    1   AR   Ar  130   4.397   3.239  -2.170
    1   AR   Ar  131   3.975   1.244   0.040
    1   AR   Ar  132   6.871   2.265  -0.759
    1   AR   Ar  133   4.562   6.269   2.809
    1   AR   Ar  134   4.506   1.422   3.973
    1   AR   Ar  135   5.683   0.413   2.615
    1   AR   Ar  136   5.088   6.927   2.111
    1   AR   Ar  137   3.035   5.424   3.998
    1   AR   Ar  138   4.613   1.558   5.722
    1   AR   Ar  139   5.558   2.357   5.460
    1   AR   Ar  140   3.844   6.949   4.507
    1   AR   Ar  141   3.830   5.019   4.313
    1   AR   Ar  142   3.315   0.078   6.285
    1   AR   Ar  143   6.543   0.111   5.787
    1   AR   Ar  144   0.094   1.802   5.454
    1   AR   Ar  145   4.731   4.285  -0.177
    1   AR   Ar  146   3.259   2.089   2.083
    1   AR   Ar  147   5.152   1.399  -2.027
    1   AR   Ar  148   3.382   4.995  -1.228
    1   AR   Ar  149   3.191   1.935   0.762
    1   AR   Ar  150   2.504   1.381   2.144
    1   AR   Ar  151   2.496   2.087   3.486
    1   AR   Ar  152   3.455   2.767   0.241
    1   AR   Ar  153   4.582   0.136   4.001
    1   AR   Ar  154   4.063   2.007   4.795
    1   AR   Ar  155   6.786   0.251   6.928
    1   AR   Ar  156   3.922   3.372   3.994
    1   AR   Ar  157   1.772   3.581   6.852
    1   AR   Ar  158   0.547   2.564   7.017
    1   AR   Ar  159   4.679   1.863   7.038
    1   AR   Ar  160   2.368   1.894   4.975
    1   AR   Ar  161   5.277   3.438   2.223
    1   AR   Ar  162   4.564   6.116  -0.755
    1   AR   Ar  163   4.946   3.670   0.914
    1   AR   Ar  164   2.760   5.784   1.747
    1   AR   Ar  165   3.529   3.147   1.379
    1   AR   Ar  166   2.513   3.639   4.375
    1   AR   Ar  167   4.696   0.995   2.875
    1   AR   Ar  168   5.288   3.237  -0.955
    1   AR   Ar  169   2.942   3.425   2.057
    1   AR   Ar  170   2.550   4.224   5.855
    1   AR   Ar  171   5.791   3.994   4.391
    1   AR   Ar  172   4.879   4.538   5.030
    1   AR   Ar  173   2.839   4.022   7.077
    1   AR   Ar  174   2.460   5.520   6.799
    1   AR   Ar  175   2.416   2.772   6.275
    1   AR   Ar  176   3.835   2.280   6.127
    1   AR   Ar  177   6.995   4.617  -0.588
    1   AR   Ar  178   3.873   5.046  -0.300
    1   AR   Ar  179   4.050   5.677   0.512
    1   AR   Ar  180   1.180   1.388  -3.093
    1   AR   Ar  181   0.550   6.037   1.506
    1   AR   Ar  182   2.730   0.680   3.186
    1   AR   Ar  183   3.333   5.234   2.662
    1   AR   Ar  184   4.770   6.618   1.161
    1   AR   Ar  185   2.889   5.215   5.039
    1   AR   Ar  186   3.208   4.395   3.784
    1   AR   Ar  187   3.469   6.432   2.843
    1   AR   Ar  188   3.202   6.863   1.829
    1   AR   Ar  189   3.447   2.964   6.942
    1   AR   Ar  190   4.033   6.069   3.946
    1   AR   Ar  191   3.299   6.234   7.588
    1   AR   Ar  192   3.754   5.897   4.980
    1   AR   Ar  193   2.551   6.202   0.730
    1   AR   Ar  194   4.122   3.678  -1.293
    1   AR   Ar  195   5.437   1.133   0.425
    1   AR   Ar  196   4.666   0.353   0.041
    1   AR   Ar  197   4.001   0.814   0.904
    1   AR   Ar  198   6.023   1.699   1.304
    1   AR   Ar  199   3.604   1.392   3.045
    1   AR   Ar  200   5.399   2.639   0.097
    1   AR   Ar  201   5.859   6.012   4.060
    1   AR   Ar  202   5.515   1.978   4.316
    1   AR   Ar  203   6.430   6.103   3.145
    1   AR   Ar  204   4.532   6.479   5.112
    1   AR   Ar  205   6.707   0.053   2.070
    1   AR   Ar  206   4.948   0.841   4.817
    1   AR   Ar  207   1.080   1.727   6.605
    1   AR   Ar  208   0.036   0.130   3.516
    1   AR   Ar  209   6.837   2.770  -2.063
    1   AR   Ar  210   3.536   0.291  -0.129
    1   AR   Ar  211   6.400   3.072   0.726
    1   AR   Ar  212   6.062   3.557  -1.640
    1   AR   Ar  213   3.595   1.155   2.083
    1   AR   Ar  214   4.276   3.104   2.942
    1   AR   Ar  215   5.524   2.540   1.275
    1   AR   Ar  216   0.787   3.219   1.885
    1   AR   Ar  217   5.062   3.350   4.505
    1   AR   Ar  218   4.249   3.320   5.415
    1   AR   Ar  219   4.789   2.575   3.815
    1   AR   Ar  220   4.353   4.050   2.245
    1   AR   Ar  221   5.567   6.662   4.984
    1   AR   Ar  222   4.518   0.750   6.649
    1   AR   Ar  223   0.028   1.361   6.492
    1   AR   Ar  224   4.801   2.911   6.451
    1   AR   Ar  225   6.520   2.954   2.485
    1   AR   Ar  226   1.895   3.684   3.560
    1   AR   Ar  227   6.230   3.662   1.607
    1   AR   Ar  228   5.988   6.452   2.025
    1   AR   Ar  229   5.161   4.565  -1.362
    1   AR   Ar  230   4.708   4.295   3.884
    1   AR   Ar  231   5.512   1.426   3.235
    1   AR   Ar  232   4.553   2.429   0.720
    1   AR   Ar  233   6.116   2.590   3.485
    1   AR   Ar  234   6.504   2.904   4.854
    1   AR   Ar  235   6.715   1.976   4.263
    1   AR   Ar  236   5.478   5.633   5.715
    1   AR   Ar  237   5.555   3.385   5.677
    1   AR   Ar  238   4.686   4.015   6.267
    1   AR   Ar  239   5.672   4.593   8.189
    1   AR   Ar  240   6.645   3.078   6.982
    1   AR   Ar  241   0.995   6.528  -0.367
    1   AR   Ar  242   5.655   5.008   0.245
    1   AR   Ar  243   5.463   4.709   2.491
    1   AR   Ar  244   0.761   5.380  -0.260
    1   AR   Ar  245   4.946   0.453   1.031
    1   AR   Ar  246   5.356   6.220   0.384
    1   AR   Ar  247   6.052   4.234   0.742
    1   AR   Ar  248   5.692   5.640  -0.478
    1   AR   Ar  249   4.052   6.075   1.651
    1   AR   Ar  250   4.847   5.556   4.581
    1   AR   Ar  251   5.524   4.988   4.005
    1   AR   Ar  252   4.449   5.318   3.480
    1   AR   Ar  253   6.535   3.660   6.146
    1   AR   Ar  254   2.228   2.151   9.484
    1   AR   Ar  255   4.052   2.967   8.750
    1   AR   Ar  256   6.560   5.089   3.283
    7.12000  7.12000 12.00000
Argon-slab step 3260
  256
    1   AR   Ar    1   6.566   1.461  -1.598
    1   AR   Ar    2   6.667   0.192   0.234
    1   AR   Ar    3   2.653   0.816  -0.128
    1   AR   Ar    4   1.318   0.559  -0.216
    1   AR   Ar    5   0.034   6.868   1.129
    1   AR   Ar    6   6.941   1.020   2.403
    1   AR   Ar    7   6.363   3.686   3.314
    1   AR   Ar    8   6.031   0.543   1.313
    1   AR   Ar    9   1.398   6.837   3.131
    1   AR   Ar   10   0.993   0.294   3.933
    1   AR   Ar   11   1.774   6.464   4.361
    1   AR   Ar   12   0.706   1.130   2.875
    1   AR   Ar   13   0.484   0.770   4.775
    1   AR   Ar   14   6.767   2.130   7.632
    1   AR   Ar   15   4.565   6.928   8.557
    1   AR   Ar   16   0.908   6.976   5.202
    1   AR   Ar   17   6.267   1.953   0.336
    1   AR   Ar   18   6.172   3.866  -0.591
    1   AR   Ar   19   2.275   3.144   1.009
    1   AR   Ar   20   4.402   4.331  -2.075
    1   AR   Ar   21   4.841   1.642   1.370
    1   AR   Ar   22   6.353   1.816   2.775
    1   AR   Ar   23   0.199   1.273  -0.494
    1   AR   Ar   24   6.904   2.435   1.680
    1   AR   Ar   25   0.818   1.503   3.902
    1   AR   Ar   26   5.662   0.197   3.956
    1   AR   Ar   27   1.635   0.911   3.385
    1   AR   Ar   28   0.902   2.326   5.268
    1   AR   Ar   29   5.652   2.875   7.011
    1   AR   Ar   30   1.781   1.657   4.139
    1   AR   Ar   31   3.734   0.374   7.294
    1   AR   Ar   32   1.384   2.700   6.136
    1   AR   Ar   33   1.019   4.432  -0.826
    1   AR   Ar   34   0.480   5.244   2.204
    1   AR   Ar   35   5.749   5.554   1.036
    1   AR   Ar   36   6.473   0.912  -4.106
    1   AR   Ar   37   5.338   2.234   2.466
    1   AR   Ar   38   7.114   3.962   2.457
    1   AR   Ar   39   1.345   3.947   2.674
    1   AR   Ar   40   2.544   4.385   1.827
    1   AR   Ar   41   0.099   2.813   3.833
    1   AR   Ar   42   6.346   5.420   5.094
    1   AR   Ar   43   6.498   2.632   5.873
    1   AR   Ar   44   0.414   4.689   3.558
    1   AR   Ar   45   0.453   3.340   5.995
    1   AR   Ar   46   0.224   5.438   5.528
    1   AR   Ar   47   5.616   4.114   6.877
    1   AR   Ar   48   6.938   5.927   6.728
    1   AR   Ar   49   5.365   0.715  -0.938
    1   AR   Ar   50   4.944   4.831   0.959
    1   AR   Ar   51   6.551   4.694   1.603
    1   AR   Ar   52   6.413   4.576  -1.983
    1   AR   Ar   53   5.557   5.632   2.913
    1   AR   Ar   54   0.046   6.247   2.424
    1   AR   Ar   55   6.449   5.535   2.164
    1   AR   Ar   56   7.054   1.262   0.977
    1   AR   Ar   57   5.248   3.404   3.299
    1   AR   Ar   58   6.869   4.145   4.106
    1   AR   Ar   59   2.257   5.640   5.611
    1   AR   Ar   60   0.594   6.321   3.643
    1   AR   Ar   61   6.818   4.754   6.253
    1   AR   Ar   62   0.220   5.217   4.445
    1   AR   Ar   63   1.996   1.051   6.993
    1   AR   Ar   64   1.207   5.758   4.906
    1   AR   Ar   65   3.647   6.778   0.808
    1   AR   Ar   66   0.646   1.155   1.825
    1   AR   Ar   67   3.558   6.523  -0.840
    1   AR   Ar   68   2.594   1.747  -1.010
    1   AR   Ar   69   2.935   1.080   1.230
    1   AR   Ar   70   0.700   0.010   2.409
    1   AR   Ar   71   3.106   1.284   4.003
    1   AR   Ar   72   4.139   0.148   1.766
    1   AR   Ar   73   3.736   0.457   3.443
    1   AR   Ar   74   1.937   0.588   4.347
    1   AR   Ar   75   3.813   0.953   4.682
    1   AR   Ar   76   1.619   0.652   1.904
    1   AR   Ar   77   2.413   6.801   5.492
    1   AR   Ar   78   0.401   6.959   6.155
    1   AR   Ar   79   3.211   5.949   5.828
    1   AR   Ar   80   4.444   5.096   5.944
    1   AR   Ar   81   2.626   6.049  -0.278
    1   AR   Ar   82   6.810   5.785  -0.335
    1   AR   Ar   83   0.773   2.582   0.370
    1   AR   Ar   84   0.256   3.952   1.064
    1   AR   Ar   85   1.252   3.441   0.960
    1   AR   Ar   86   1.702   4.808  -0.128
    1   AR   Ar   87   1.518   2.275   1.317
    1   AR   Ar   88   2.233   4.866   0.900
    1   AR   Ar   89   0.600   3.058   2.984
    1   AR   Ar   90   2.011   2.719   4.426
    1   AR   Ar   91   1.328   2.185   3.327
    1   AR   Ar   92   1.349   2.457   2.249
    1   AR   Ar   93   1.753   0.661   5.825
    1   AR   Ar   94   0.359   6.888  11.161
    1   AR   Ar   95   3.435   1.329   6.359
    1   AR   Ar   96   2.847   0.442   4.664
    1   AR   Ar   97   4.951   1.635  -0.286
    1   AR   Ar   98   2.179   4.988   2.611
    1   AR   Ar   99   6.017   1.576  -0.695
    1   AR   Ar  100   1.457   3.160  -0.219
    1   AR   Ar  101   3.425   4.518   0.855
    1   AR   Ar  102   3.476   2.497   3.409
    1   AR   Ar  103   0.935   4.983   1.241
    1   AR   Ar  104   3.177   4.070  -1.473
    1   AR   Ar  105   0.889   3.380   4.146
    1   AR   Ar  106   3.126   3.111   5.340
    1   AR   Ar  107   0.876   4.250   4.526
    1   AR   Ar  108   3.158   2.322   4.507
    1   AR   Ar  109   2.052   4.484   4.511
    1   AR   Ar  110   1.302   4.015   5.568
    1   AR   Ar  111   4.757   4.316   7.515
    1   AR   Ar  112   1.590   6.118   6.392
    1   AR   Ar  113   2.774   5.011  -0.073
    1   AR   Ar  114   2.383   7.035  -1.043
    1   AR   Ar  115   2.081   5.154  -1.232
    1   AR   Ar  116   5.550   6.765  -0.668
    1   AR   Ar  117   1.205   5.163   4.023
    1   AR   Ar  118   1.523   5.779   3.335
    1   AR   Ar  119   2.178   2.900   2.973
    1   AR   Ar  120   2.214   6.697   2.244
    1   AR   Ar  121   5.758   4.549   5.617
    1   AR   Ar  122   2.968   6.354   4.640
    1   AR   Ar  123   3.743   4.118   4.855
    1   AR   Ar  124   1.610   5.956   1.519
    1   AR   Ar  125   6.857   3.907   5.085
    1   AR   Ar  126   7.004   6.398   4.385
    1   AR   Ar  127   3.609   3.887   6.257
    1   AR   Ar  128   3.483   5.111   6.387
    1   AR   Ar  129   2.416   6.189   3.198
    1   AR   Ar  130   4.404   3.260  -2.157
    1   AR   Ar  131   3.974   1.261   0.044
    1   AR   Ar  132   6.885   2.274  -0.766
    1   AR   Ar  133   4.594   6.244   2.804
    1   AR   Ar  134   4.477   1.416   3.981
    1   AR   Ar  135   5.729   0.410   2.623
    1   AR   Ar  136   5.104   6.917   2.134
    1   AR   Ar  137   3.036   5.406   3.997
    1   AR   Ar  138   4.585   1.533   5.734
    1   AR   Ar  139   5.559   2.364   5.464
    1   AR   Ar  140   3.808   6.936   4.494
    1   AR   Ar  141   3.849   4.998   4.333
    1   AR   Ar  142   3.314   0.075   6.275
    1   AR   Ar  143   6.524   0.106   5.781
    1   AR   Ar  144   0.109   1.808   5.403
    1   AR   Ar  145   4.735   4.304  -0.180
    1   AR   Ar  146   3.267   2.089   2.092
    1   AR   Ar  147   5.141   1.419  -2.031
    1   AR   Ar  148   3.392   5.033  -1.227
    1   AR   Ar  149   3.162   1.951   0.747
    1   AR   Ar  150   2.524   1.376   2.178
    1   AR   Ar  151   2.502   2.079   3.496
    1   AR   Ar  152   3.478   2.786   0.239
    1   AR   Ar  153   4.568   0.138   3.998
    1   AR   Ar  154   4.071   2.004   4.804
    1   AR   Ar  155   6.785   0.245   6.916
    1   AR   Ar  156   3.925   3.379   3.969
    1   AR   Ar  157   1.745   3.590   6.863
    1   AR   Ar  158   0.532   2.577   7.019
    1   AR   Ar  159   4.687   1.882   7.094
    1   AR   Ar  160   2.331   1.891   4.977
    1   AR   Ar  161   5.277   3.438   2.247
    1   AR   Ar  162   4.577   6.118  -0.787
    1   AR   Ar  163   4.958   3.636   0.901
    1   AR   Ar  164   2.782   5.809   1.776
    1   AR   Ar  165   3.532   3.133   1.377
    1   AR   Ar  166   2.520   3.636   4.358
    1   AR   Ar  167   4.692   1.000   2.865
    1   AR   Ar  168   5.283   3.255  -0.944
    1   AR   Ar  169   2.977   3.438   2.077
    1   AR   Ar  170   2.598   4.216   5.889
    1   AR   Ar  171   5.817   3.963   4.393
    1   AR   Ar  172   4.862   4.543   5.017
    1   AR   Ar  173   2.853   3.965   7.093
    1   AR   Ar  174   2.480   5.539   6.800
    1   AR   Ar  175   2.417   2.748   6.277
    1   AR   Ar  176   3.848   2.254   6.137
    1   AR   Ar  177   7.036   4.631  -0.606
    1   AR   Ar  178   3.898   5.047  -0.312
    1   AR   Ar  179   4.061   5.691   0.495
    1   AR   Ar  180   1.183   1.379  -3.090
    1   AR   Ar  181   0.552   6.036   1.500
    1   AR   Ar  182   2.749   0.694   3.186
    1   AR   Ar  183   3.335   5.255   2.687
    1   AR   Ar  184   4.765   6.617   1.159
    1   AR   Ar  185   2.900   5.236   4.984
    1   AR   Ar  186   3.173   4.401   3.815
    1   AR   Ar  187   3.478   6.425   2.839
    1   AR   Ar  188   3.203   6.891   1.856
    1   AR   Ar  189   3.458   2.965   6.929
    1   AR   Ar  190   4.012   6.055   3.934
    1   AR   Ar  191   3.279   6.262   7.575
    1   AR   Ar  192   3.755   5.879   5.007
    1   AR   Ar  193   2.562   6.217   0.745
    1   AR   Ar  194   4.107   3.705  -1.260
    1   AR   Ar  195   5.470   1.130   0.407
    1   AR   Ar  196   4.644   0.357   0.078
    1   AR   Ar  197   4.010   0.797   0.909
    1   AR   Ar  198   6.046   1.702   1.330
    1   AR   Ar  199   3.633   1.435   3.027
    1   AR   Ar  200   5.409   2.657   0.106
    1   AR   Ar  201   5.875   6.005   4.071
    1   AR   Ar  202   5.513   1.990   4.307
    1   AR   Ar  203   6.425   6.092   3.117
    1   AR   Ar  204   4.517   6.449   5.104
    1   AR   Ar  205   6.676   0.057   2.075
    1   AR   Ar  206   4.948   0.840   4.774
    1   AR   Ar  207   1.045   1.723   6.563
    1   AR   Ar  208   7.118   0.138   3.517
    1   AR   Ar  209   6.829   2.769  -2.034
    1   AR   Ar  210   3.508   0.306  -0.078
    1   AR   Ar  211   6.412   3.091   0.735
    1   AR   Ar  212   6.067   3.561  -1.634
    1   AR   Ar  213   3.603   1.123   2.082
    1   AR   Ar  214   4.282   3.092   2.937
    1   AR   Ar  215   5.540   2.537   1.291
    1   AR   Ar  216   0.818   3.212   1.881
    1   AR   Ar  217   5.077   3.341   4.532
    1   AR   Ar  218   4.260   3.312   5.364
    1   AR   Ar  219   4.815   2.557   3.819
    1   AR   Ar  220   4.341   4.059   2.231
    1   AR   Ar  221   5.564   6.636   4.982
    1   AR   Ar  222   4.513   0.733   6.649
    1   AR   Ar  223   0.013   1.361   6.477
    1   AR   Ar  224   4.802   2.907   6.468
    1   AR   Ar  225   6.503   2.922   2.503
    1   AR   Ar  226   1.875   3.705   3.564
    1   AR   Ar  227   6.250   3.653   1.614
    1   AR   Ar  228   5.978   6.461   2.037
    1   AR   Ar  229   5.173   4.596  -1.400
    1   AR   Ar  230   4.707   4.234   3.887
    1   AR   Ar  231   5.502   1.463   3.246
    1   AR   Ar  232   4.609   2.423   0.758
    1   AR   Ar  233   6.106   2.631   3.488
    1   AR   Ar  234   6.506   2.878   4.829
    1   AR   Ar  235   6.729   1.971   4.227
    1   AR   Ar  236   5.459   5.622   5.701
    1   AR   Ar  237   5.541   3.393   5.726
    1   AR   Ar  238   4.726   4.022   6.254
    1   AR   Ar  239   5.631   4.597   8.190
    1   AR   Ar  240   6.628   3.065   7.005
    1   AR   Ar  241   1.022   6.547  -0.327
    1   AR   Ar  242   5.649   5.033   0.234
    1   AR   Ar  243   5.446   4.696   2.499
    1   AR   Ar  244   0.747   5.389  -0.260
    1   AR   Ar  245   4.940   0.432   1.049
    1   AR   Ar  246   5.374   6.209   0.353
    1   AR   Ar  247   6.073   4.215   0.747
    1   AR   Ar  248   5.722   5.679  -0.435
    1   AR   Ar  249   4.017   6.066   1.650
    1   AR   Ar  250   4.866   5.551   4.593
    1   AR   Ar  251   5.562   4.989   3.986
    1   AR   Ar  252   4.446   5.303   3.484
    1   AR   Ar  253   6.532   3.678   6.140
    1   AR   Ar  254   2.272   2.169   9.488
    1   AR   Ar  255   4.041   3.001   8.772
    1   AR   Ar  256   6.541   5.044   3.323
    7.12000  7.12000 12.00000
Argon-slab step 3265
  256
    1   AR   Ar    1   6.530   1.487  -1.622
    1   AR   Ar    2   6.680   0.238   0.240
    1   AR   Ar    3   2.682   0.836  -0.122
    1   AR   Ar    4   1.325   0.554  -0.210
    1   AR   Ar    5   0.043   6.854   1.120
    1   AR   Ar    6   6.916   1.042   2.398
    1   AR   Ar    7   6.361   3.719   3.292
    1   AR   Ar    8   6.055   0.549   1.281
    1   AR   Ar    9   1.368   6.843   3.118
    1   AR   Ar   10   0.971   0.306   3.941
    1   AR   Ar   11   1.779   6.450   4.345
    1   AR   Ar   12   0.676   1.134   2.878
    1   AR   Ar   13   0.456   0.782   4.792
    1   AR   Ar   14   6.772   2.140   7.630
    1   AR   Ar   15   4.555   6.901   8.511
    1   AR   Ar   16   0.905   6.967   5.176
    1   AR   Ar   17   6.277   1.973   0.374
    1   AR   Ar   18   6.133   3.894  -0.580
    1   AR   Ar   19   2.269   3.144   1.007
    1   AR   Ar   20   4.380   4.351  -2.067
    1   AR   Ar   21   4.811   1.636   1.386
    1   AR   Ar   22   6.363   1.795   2.754
    1   AR   Ar   23   0.217   1.294  -0.505
    1   AR   Ar   24   6.883   2.457   1.691
    1   AR   Ar   25   0.820   1.558   3.904
    1   AR   Ar   26   5.670   0.211   3.980
    1   AR   Ar   27   1.638   0.910   3.400
    1   AR   Ar   28   0.890   2.375   5.271
    1   AR   Ar   29   5.632   2.878   7.003
    1   AR   Ar   30   1.822   1.661   4.139
    1   AR   Ar   31   3.746   0.415   7.274
    1   AR   Ar   32   1.358   2.689   6.124
    1   AR   Ar   33   1.046   4.458  -0.820
    1   AR   Ar   34   0.489   5.249   2.220
    1   AR   Ar   35   5.784   5.583   1.046
    1   AR   Ar   36   6.442   0.906  -4.127
    1   AR   Ar   37   5.335   2.248   2.453
    1   AR   Ar   38   7.117   3.971   2.481
    1   AR   Ar   39   1.350   3.938   2.695
    1   AR   Ar   40   2.514   4.372   1.815
    1   AR   Ar   41   0.082   2.796   3.840
    1   AR   Ar   42   6.329   5.403   5.079
    1   AR   Ar   43   6.501   2.640   5.890
    1   AR   Ar   44   0.440   4.670   3.543
    1   AR   Ar   45   0.458   3.345   6.004
    1   AR   Ar   46   0.189   5.452   5.520
    1   AR   Ar   47   5.619   4.114   6.867
    1   AR   Ar   48   6.953   5.919   6.686
    1   AR   Ar   49   5.345   0.745  -0.934
    1   AR   Ar   50   4.942   4.872   0.933
    1   AR   Ar   51   6.563   4.710   1.569
    1   AR   Ar   52   6.467   4.583  -1.969
    1   AR   Ar   53   5.526   5.632   2.962
    1   AR   Ar   54   0.027   6.270   2.429
    1   AR   Ar   55   6.454   5.542   2.221
    1   AR   Ar   56   7.069   1.240   0.965
    1   AR   Ar   57   5.245   3.374   3.311
    1   AR   Ar   58   6.890   4.162   4.073
    1   AR   Ar   59   2.244   5.623   5.621
    1   AR   Ar   60   0.612   6.285   3.648
    1   AR   Ar   61   6.804   4.737   6.209
    1   AR   Ar   62   0.197   5.246   4.467
    1   AR   Ar   63   1.989   1.054   7.003
    1   AR   Ar   64   1.236   5.736   4.889
    1   AR   Ar   65   3.634   6.799   0.804
    1   AR   Ar   66   0.677   1.124   1.820
    1   AR   Ar   67   3.577   6.533  -0.846
    1   AR   Ar   68   2.578   1.739  -1.019
    1   AR   Ar   69   2.921   1.052   1.214
    1   AR   Ar   70   0.661   7.116   2.408
    1   AR   Ar   71   3.130   1.304   4.008
    1   AR   Ar   72   4.188   0.135   1.764
    1   AR   Ar   73   3.794   0.463   3.450
    1   AR   Ar   74   1.948   0.630   4.343
    1   AR   Ar   75   3.802   0.966   4.653
    1   AR   Ar   76   1.649   0.628   1.876
    1   AR   Ar   77   2.413   6.796   5.473
    1   AR   Ar   78   0.372   6.958   6.179
    1   AR   Ar   79   3.218   5.943   5.840
    1   AR   Ar   80   4.404   5.078   5.959
    1   AR   Ar   81   2.611   6.010  -0.300
    1   AR   Ar   82   6.820   5.758  -0.310
    1   AR   Ar   83   0.771   2.599   0.411
    1   AR   Ar   84   0.241   3.954   1.077
    1   AR   Ar   85   1.247   3.435   0.969
    1   AR   Ar   86   1.698   4.804  -0.101
    1   AR   Ar   87   1.524   2.308   1.319
    1   AR   Ar   88   2.207   4.854   0.931
    1   AR   Ar   89   0.601   3.055   2.987
    1   AR   Ar   90   1.997   2.724   4.415
    1   AR   Ar   91   1.325   2.219   3.313
    1   AR   Ar   92   1.342   2.457   2.279
    1   AR   Ar   93   1.719   0.670   5.844
    1   AR   Ar   94   0.360   6.893  11.181
    1   AR   Ar   95   3.456   1.333   6.339
    1   AR   Ar   96   2.841   0.425   4.705
    1   AR   Ar   97   4.955   1.629  -0.293
    1   AR   Ar   98   2.202   5.015   2.610
    1   AR   Ar   99   6.016   1.532  -0.707
    1   AR   Ar  100   1.459   3.162  -0.249
    1   AR   Ar  101   3.422   4.534   0.847
    1   AR   Ar  102   3.495   2.476   3.410
    1   AR   Ar  103   0.965   4.988   1.256
    1   AR   Ar  104   3.179   4.075  -1.484
    1   AR   Ar  105   0.851   3.379   4.119
    1   AR   Ar  106   3.119   3.105   5.347
    1   AR   Ar  107   0.844   4.209   4.546
    1   AR   Ar  108   3.144   2.322   4.465
    1   AR   Ar  109   2.056   4.468   4.495
    1   AR   Ar  110   1.304   3.975   5.535
    1   AR   Ar  111   4.764   4.333   7.542
    1   AR   Ar  112   1.597   6.100   6.342
    1   AR   Ar  113   2.787   5.043  -0.060
    1   AR   Ar  114   2.403   7.053  -1.036
    1   AR   Ar  115   2.104   5.129  -1.212
    1   AR   Ar  116   5.567   6.776  -0.653
    1   AR   Ar  117   1.192   5.153   4.034
    1   AR   Ar  118   1.513   5.809   3.339
    1   AR   Ar  119   2.190   2.912   2.983
    1   AR   Ar  120   2.203   6.682   2.203
    1   AR   Ar  121   5.781   4.551   5.627
    1   AR   Ar  122   2.980   6.362   4.607
    1   AR   Ar  123   3.721   4.167   4.811
    1   AR   Ar  124   1.590   5.951   1.527
    1   AR   Ar  125   6.863   3.899   5.053
    1   AR   Ar  126   7.043   6.374   4.380
    1   AR   Ar  127   3.647   3.910   6.288
    1   AR   Ar  128   3.489   5.088   6.398
    1   AR   Ar  129   2.392   6.181   3.210
    1   AR   Ar  130   4.414   3.277  -2.147
    1   AR   Ar  131   3.972   1.285   0.039
    1   AR   Ar  132   6.898   2.282  -0.774
    1   AR   Ar  133   4.625   6.217   2.799
    1   AR   Ar  134   4.449   1.412   3.984
    1   AR   Ar  135   5.751   0.436   2.633
    1   AR   Ar  136   5.108   6.908   2.153
    1   AR   Ar  137   3.018   5.381   3.987
    1   AR   Ar  138   4.557   1.508   5.746
    1   AR   Ar  139   5.560   2.384   5.468
    1   AR   Ar  140   3.786   6.932   4.487
    1   AR   Ar  141   3.886   4.977   4.359
    1   AR   Ar  142   3.312   0.072   6.263
    1   AR   Ar  143   6.504   0.101   5.775
    1   AR   Ar  144   0.108   1.804   5.355
    1   AR   Ar  145   4.740   4.324  -0.182
    1   AR   Ar  146   3.277   2.098   2.100
    1   AR   Ar  147   5.131   1.438  -2.033
    1   AR   Ar  148   3.400   5.077  -1.226
    1   AR   Ar  149   3.134   1.968   0.733
    1   AR   Ar  150   2.540   1.368   2.216
    1   AR   Ar  151   2.513   2.066   3.487
    1   AR   Ar  152   3.503   2.809   0.235
    1   AR   Ar  153   4.571   0.146   3.988
    1   AR   Ar  154   4.086   2.001   4.817
    1   AR   Ar  155   6.785   0.239   6.904
    1   AR   Ar  156   3.929   3.386   3.945
    1   AR   Ar  157   1.719   3.597   6.872
    1   AR   Ar  158   0.525   2.599   7.018
    1   AR   Ar  159   4.694   1.902   7.147
    1   AR   Ar  160   2.295   1.884   4.987
    1   AR   Ar  161   5.293   3.450   2.265
    1   AR   Ar  162   4.591   6.119  -0.816
    1   AR   Ar  163   4.971   3.602   0.888
    1   AR   Ar  164   2.805   5.835   1.805
    1   AR   Ar  165   3.537   3.093   1.333
    1   AR   Ar  166   2.539   3.624   4.343
    1   AR   Ar  167   4.681   1.000   2.852
    1   AR   Ar  168   5.277   3.274  -0.931
    1   AR   Ar  169   2.998   3.455   2.117
    1   AR   Ar  170   2.595   4.215   5.883
    1   AR   Ar  171   5.854   3.941   4.395
    1   AR   Ar  172   4.859   4.541   5.003
    1   AR   Ar  173   2.866   3.908   7.107
    1   AR   Ar  174   2.502   5.559   6.799
    1   AR   Ar  175   2.424   2.725   6.279
    1   AR   Ar  176   3.863   2.234   6.145
    1   AR   Ar  177   7.076   4.645  -0.624
    1   AR   Ar  178   3.924   5.046  -0.324
    1   AR   Ar  179   4.074   5.709   0.482
    1   AR   Ar  180   1.186   1.371  -3.086
    1   AR   Ar  181   0.554   6.034   1.492
    1   AR   Ar  182   2.764   0.708   3.182
    1   AR   Ar  183   3.337   5.278   2.712
    1   AR   Ar  184   4.757   6.597   1.155
    1   AR   Ar  185   2.917   5.248   4.929
    1   AR   Ar  186   3.136   4.398   3.844
    1   AR   Ar  187   3.486   6.417   2.835
    1   AR   Ar  188   3.198   6.917   1.883
    1   AR   Ar  189   3.470   2.964   6.923
    1   AR   Ar  190   3.996   6.051   3.930
    1   AR   Ar  191   3.259   6.290   7.561
    1   AR   Ar  192   3.758   5.844   5.027
    1   AR   Ar  193   2.574   6.232   0.766
    1   AR   Ar  194   4.097   3.731  -1.219
    1   AR   Ar  195   5.509   1.124   0.396
    1   AR   Ar  196   4.622   0.361   0.108
    1   AR   Ar  197   4.011   0.777   0.925
    1   AR   Ar  198   6.075   1.692   1.361
    1   AR   Ar  199   3.661   1.483   3.017
    1   AR   Ar  200   5.416   2.674   0.109
    1   AR   Ar  201   5.899   6.010   4.098
    1   AR   Ar  202   5.516   1.998   4.300
    1   AR   Ar  203   6.423   6.087   3.094
    1   AR   Ar  204   4.519   6.431   5.100
    1   AR   Ar  205   6.652   0.065   2.080
    1   AR   Ar  206   4.954   0.843   4.725
    1   AR   Ar  207   1.012   1.718   6.519
    1   AR   Ar  208   7.080   0.146   3.517
    1   AR   Ar  209   6.820   2.767  -2.004
    1   AR   Ar  210   3.487   0.314  -0.027
    1   AR   Ar  211   6.423   3.108   0.742
    1   AR   Ar  212   6.073   3.564  -1.630
    1   AR   Ar  213   3.615   1.081   2.072
    1   AR   Ar  214   4.289   3.079   2.930
    1   AR   Ar  215   5.552   2.549   1.307
    1   AR   Ar  216   0.821   3.199   1.870
    1   AR   Ar  217   5.082   3.324   4.562
    1   AR   Ar  218   4.272   3.304   5.316
    1   AR   Ar  219   4.835   2.540   3.819
    1   AR   Ar  220   4.328   4.068   2.218
    1   AR   Ar  221   5.563   6.610   4.980
    1   AR   Ar  222   4.507   0.718   6.647
    1   AR   Ar  223   7.117   1.360   6.462
    1   AR   Ar  224   4.753   2.884   6.460
    1   AR   Ar  225   6.483   2.893   2.523
    1   AR   Ar  226   1.851   3.730   3.570
    1   AR   Ar  227   6.271   3.642   1.627
    1   AR   Ar  228   6.006   6.462   2.053
    1   AR   Ar  229   5.200   4.612  -1.414
    1   AR   Ar  230   4.705   4.174   3.891
    1   AR   Ar  231   5.494   1.503   3.263
    1   AR   Ar  232   4.660   2.421   0.791
    1   AR   Ar  233   6.094   2.671   3.494
    1   AR   Ar  234   6.507   2.854   4.801
    1   AR   Ar  235   6.740   1.964   4.192
    1   AR   Ar  236   5.439   5.610   5.685
    1   AR   Ar  237   5.527   3.405   5.774
    1   AR   Ar  238   4.766   4.029   6.239
    1   AR   Ar  239   5.589   4.600   8.191
    1   AR   Ar  240   6.622   3.052   7.027
    1   AR   Ar  241   1.029   6.542  -0.334
    1   AR   Ar  242   5.641   5.031   0.223
    1   AR   Ar  243   5.429   4.677   2.504
    1   AR   Ar  244   0.732   5.399  -0.260
    1   AR   Ar  245   4.947   0.427   1.073
    1   AR   Ar  246   5.386   6.206   0.323
    1   AR   Ar  247   6.065   4.180   0.766
    1   AR   Ar  248   5.737   5.724  -0.426
    1   AR   Ar  249   3.978   6.057   1.651
    1   AR   Ar  250   4.882   5.548   4.605
    1   AR   Ar  251   5.600   4.986   3.965
    1   AR   Ar  252   4.451   5.277   3.481
    1   AR   Ar  253   6.527   3.699   6.132
    1   AR   Ar  254   2.316   2.187   9.491
    1   AR   Ar  255   4.031   3.036   8.794
    1   AR   Ar  256   6.520   4.997   3.362
    7.12000  7.12000 12.00000
Argon-slab step 3270
  256
    1   AR   Ar    1   6.495   1.514  -1.648
    1   AR   Ar    2   6.693   0.285   0.246
    1   AR   Ar    3   2.696   0.865  -0.118
    1   AR   Ar    4   1.320   0.567  -0.202
    1   AR   Ar    5   0.049   6.845   1.111
    1   AR   Ar    6   6.887   1.058   2.387
    1   AR   Ar    7   6.357   3.752   3.267
    1   AR   Ar    8   6.043   0.519   1.299
    1   AR   Ar    9   1.374   6.840   3.122
    1   AR   Ar   10   0.946   0.316   3.952
    1   AR   Ar   11   1.786   6.440   4.327
    1   AR   Ar   12   0.654   1.138   2.889
    1   AR   Ar   13   0.428   0.796   4.809
    1   AR   Ar   14   6.743   2.119   7.644
    1   AR   Ar   15   4.583   6.884   8.529
    1   AR   Ar   16   0.904   6.957   5.149
    1   AR   Ar   17   6.288   1.994   0.410
    1   AR   Ar   18   6.094   3.924  -0.567
    1   AR   Ar   19   2.265   3.144   1.005
    1   AR   Ar   20   4.356   4.374  -2.060
    1   AR   Ar   21   4.783   1.621   1.408
    1   AR   Ar   22   6.370   1.784   2.734
    1   AR   Ar   23   0.234   1.314  -0.516
    1   AR   Ar   24   6.893   2.501   1.678
    1   AR   Ar   25   0.814   1.608   3.909
    1   AR   Ar   26   5.687   0.226   4.019
    1   AR   Ar   27   1.641   0.910   3.407
    1   AR   Ar   28   0.887   2.431   5.268
    1   AR   Ar   29   5.607   2.880   6.995
    1   AR   Ar   30   1.860   1.666   4.135
    1   AR   Ar   31   3.755   0.454   7.257
    1   AR   Ar   32   1.333   2.680   6.118
    1   AR   Ar   33   1.070   4.483  -0.817
    1   AR   Ar   34   0.502   5.243   2.243
    1   AR   Ar   35   5.824   5.614   1.070
    1   AR   Ar   36   6.411   0.900  -4.148
    1   AR   Ar   37   5.334   2.265   2.438
    1   AR   Ar   38   0.001   3.979   2.504
    1   AR   Ar   39   1.351   3.929   2.712
    1   AR   Ar   40   2.484   4.357   1.803
    1   AR   Ar   41   0.058   2.780   3.847
    1   AR   Ar   42   6.311   5.386   5.062
    1   AR   Ar   43   6.507   2.649   5.909
    1   AR   Ar   44   0.470   4.652   3.518
    1   AR   Ar   45   0.462   3.349   6.013
    1   AR   Ar   46   0.156   5.468   5.515
    1   AR   Ar   47   5.601   4.115   6.869
    1   AR   Ar   48   6.967   5.911   6.642
    1   AR   Ar   49   5.323   0.774  -0.929
    1   AR   Ar   50   4.933   4.891   0.925
    1   AR   Ar   51   6.577   4.724   1.535
    1   AR   Ar   52   6.519   4.591  -1.954
    1   AR   Ar   53   5.492   5.630   3.011
    1   AR   Ar   54   0.016   6.296   2.430
    1   AR   Ar   55   6.457   5.540   2.276
    1   AR   Ar   56   7.084   1.225   0.970
    1   AR   Ar   57   5.245   3.346   3.326
    1   AR   Ar   58   6.908   4.177   4.043
    1   AR   Ar   59   2.241   5.609   5.609
    1   AR   Ar   60   0.632   6.248   3.649
    1   AR   Ar   61   6.788   4.722   6.164
    1   AR   Ar   62   0.173   5.273   4.488
    1   AR   Ar   63   1.982   1.057   7.011
    1   AR   Ar   64   1.262   5.714   4.878
    1   AR   Ar   65   3.627   6.794   0.829
    1   AR   Ar   66   0.709   1.094   1.811
    1   AR   Ar   67   3.583   6.557  -0.841
    1   AR   Ar   68   2.563   1.730  -1.026
    1   AR   Ar   69   2.907   1.020   1.198
    1   AR   Ar   70   0.621   7.106   2.405
    1   AR   Ar   71   3.147   1.329   4.007
    1   AR   Ar   72   4.233   0.122   1.765
    1   AR   Ar   73   3.847   0.472   3.452
    1   AR   Ar   74   1.952   0.664   4.351
    1   AR   Ar   75   3.797   0.971   4.634
    1   AR   Ar   76   1.681   0.602   1.849
    1   AR   Ar   77   2.412   6.791   5.455
    1   AR   Ar   78   0.383   6.928   6.133
    1   AR   Ar   79   3.203   5.937   5.871
    1   AR   Ar   80   4.371   5.059   5.970
    1   AR   Ar   81   2.595   5.978  -0.326
    1   AR   Ar   82   6.829   5.730  -0.285
    1   AR   Ar   83   0.769   2.616   0.453
    1   AR   Ar   84   0.225   3.957   1.093
    1   AR   Ar   85   1.240   3.428   0.970
    1   AR   Ar   86   1.698   4.802  -0.070
    1   AR   Ar   87   1.531   2.340   1.309
    1   AR   Ar   88   2.180   4.845   0.959
    1   AR   Ar   89   0.605   3.053   2.985
    1   AR   Ar   90   1.983   2.726   4.403
    1   AR   Ar   91   1.325   2.258   3.298
    1   AR   Ar   92   1.338   2.452   2.324
    1   AR   Ar   93   1.685   0.679   5.863
    1   AR   Ar   94   0.362   6.898  11.201
    1   AR   Ar   95   3.475   1.328   6.320
    1   AR   Ar   96   2.845   0.405   4.751
    1   AR   Ar   97   4.956   1.627  -0.303
    1   AR   Ar   98   2.225   5.044   2.611
    1   AR   Ar   99   6.017   1.491  -0.713
    1   AR   Ar  100   1.467   3.163  -0.292
    1   AR   Ar  101   3.417   4.550   0.839
    1   AR   Ar  102   3.515   2.456   3.412
    1   AR   Ar  103   0.997   4.993   1.270
    1   AR   Ar  104   3.174   4.079  -1.498
    1   AR   Ar  105   0.821   3.358   4.080
    1   AR   Ar  106   3.112   3.100   5.353
    1   AR   Ar  107   0.811   4.194   4.579
    1   AR   Ar  108   3.128   2.324   4.421
    1   AR   Ar  109   2.053   4.463   4.480
    1   AR   Ar  110   1.307   3.934   5.503
    1   AR   Ar  111   4.769   4.349   7.566
    1   AR   Ar  112   1.604   6.083   6.291
    1   AR   Ar  113   2.803   5.068  -0.045
    1   AR   Ar  114   2.424   7.070  -1.026
    1   AR   Ar  115   2.112   5.131  -1.204
    1   AR   Ar  116   5.582   6.792  -0.629
    1   AR   Ar  117   1.182   5.138   4.051
    1   AR   Ar  118   1.492   5.833   3.339
    1   AR   Ar  119   2.219   2.921   3.036
    1   AR   Ar  120   2.190   6.667   2.164
    1   AR   Ar  121   5.805   4.551   5.637
    1   AR   Ar  122   2.972   6.392   4.611
    1   AR   Ar  123   3.714   4.173   4.779
    1   AR   Ar  124   1.575   5.944   1.536
    1   AR   Ar  125   6.872   3.890   5.028
    1   AR   Ar  126   7.077   6.351   4.380
    1   AR   Ar  127   3.685   3.932   6.318
    1   AR   Ar  128   3.488   5.062   6.412
    1   AR   Ar  129   2.386   6.179   3.220
    1   AR   Ar  130   4.398   3.288  -2.142
    1   AR   Ar  131   3.969   1.314   0.030
    1   AR   Ar  132   6.909   2.290  -0.781
    1   AR   Ar  133   4.630   6.193   2.794
    1   AR   Ar  134   4.423   1.410   3.978
    1   AR   Ar  135   5.757   0.479   2.646
    1   AR   Ar  136   5.105   6.901   2.170
    1   AR   Ar  137   2.997   5.372   3.955
    1   AR   Ar  138   4.539   1.497   5.722
    1   AR   Ar  139   5.559   2.402   5.469
    1   AR   Ar  140   3.780   6.940   4.484
    1   AR   Ar  141   3.936   4.976   4.376
    1   AR   Ar  142   3.309   0.070   6.252
    1   AR   Ar  143   6.483   0.097   5.768
    1   AR   Ar  144   0.093   1.792   5.308
    1   AR   Ar  145   4.748   4.343  -0.184
    1   AR   Ar  146   3.290   2.113   2.108
    1   AR   Ar  147   5.121   1.456  -2.034
    1   AR   Ar  148   3.407   5.125  -1.227
    1   AR   Ar  149   3.106   1.983   0.721
    1   AR   Ar  150   2.552   1.356   2.256
    1   AR   Ar  151   2.526   2.049   3.472
    1   AR   Ar  152   3.487   2.807   0.220
    1   AR   Ar  153   4.590   0.153   3.977
    1   AR   Ar  154   4.105   2.000   4.832
    1   AR   Ar  155   6.785   0.235   6.890
    1   AR   Ar  156   3.933   3.393   3.923
    1   AR   Ar  157   1.694   3.603   6.878
    1   AR   Ar  158   0.520   2.623   7.013
    1   AR   Ar  159   4.706   1.900   7.179
    1   AR   Ar  160   2.264   1.877   5.006
    1   AR   Ar  161   5.300   3.472   2.277
    1   AR   Ar  162   4.607   6.119  -0.844
    1   AR   Ar  163   4.985   3.567   0.875
    1   AR   Ar  164   2.828   5.860   1.835
    1   AR   Ar  165   3.545   3.050   1.283
    1   AR   Ar  166   2.570   3.602   4.330
    1   AR   Ar  167   4.666   0.997   2.838
    1   AR   Ar  168   5.268   3.293  -0.921
    1   AR   Ar  169   3.014   3.473   2.163
    1   AR   Ar  170   2.593   4.214   5.876
    1   AR   Ar  171   5.897   3.925   4.394
    1   AR   Ar  172   4.858   4.535   4.989
    1   AR   Ar  173   2.879   3.851   7.119
    1   AR   Ar  174   2.525   5.579   6.796
    1   AR   Ar  175   2.433   2.704   6.281
    1   AR   Ar  176   3.880   2.223   6.151
    1   AR   Ar  177   7.116   4.659  -0.642
    1   AR   Ar  178   3.950   5.044  -0.335
    1   AR   Ar  179   4.087   5.730   0.473
    1   AR   Ar  180   1.190   1.362  -3.082
    1   AR   Ar  181   0.553   6.030   1.485
    1   AR   Ar  182   2.777   0.723   3.178
    1   AR   Ar  183   3.337   5.301   2.739
    1   AR   Ar  184   4.761   6.597   1.127
    1   AR   Ar  185   2.932   5.251   4.890
    1   AR   Ar  186   3.100   4.386   3.871
    1   AR   Ar  187   3.494   6.409   2.832
    1   AR   Ar  188   3.193   6.942   1.908
    1   AR   Ar  189   3.482   2.962   6.916
    1   AR   Ar  190   3.955   6.061   3.910
    1   AR   Ar  191   3.240   6.318   7.546
    1   AR   Ar  192   3.762   5.796   5.037
    1   AR   Ar  193   2.586   6.247   0.789
    1   AR   Ar  194   4.095   3.736  -1.186
    1   AR   Ar  195   5.551   1.116   0.389
    1   AR   Ar  196   4.599   0.364   0.133
    1   AR   Ar  197   4.004   0.758   0.944
    1   AR   Ar  198   6.106   1.672   1.396
    1   AR   Ar  199   3.689   1.532   3.012
    1   AR   Ar  200   5.416   2.688   0.105
    1   AR   Ar  201   5.924   6.016   4.124
    1   AR   Ar  202   5.526   2.002   4.299
    1   AR   Ar  203   6.430   6.104   3.108
    1   AR   Ar  204   4.532   6.423   5.098
    1   AR   Ar  205   6.639   0.083   2.086
    1   AR   Ar  206   4.961   0.846   4.679
    1   AR   Ar  207   0.981   1.714   6.475
    1   AR   Ar  208   7.041   0.152   3.515
    1   AR   Ar  209   6.811   2.765  -1.972
    1   AR   Ar  210   3.481   0.312   0.025
    1   AR   Ar  211   6.415   3.107   0.763
    1   AR   Ar  212   6.079   3.569  -1.627
    1   AR   Ar  213   3.629   1.033   2.057
    1   AR   Ar  214   4.295   3.066   2.922
    1   AR   Ar  215   5.564   2.570   1.325
    1   AR   Ar  216   0.815   3.192   1.860
    1   AR   Ar  217   5.080   3.302   4.593
    1   AR   Ar  218   4.285   3.295   5.269
    1   AR   Ar  219   4.846   2.526   3.814
    1   AR   Ar  220   4.317   4.076   2.205
    1   AR   Ar  221   5.564   6.583   4.977
    1   AR   Ar  222   4.505   0.707   6.640
    1   AR   Ar  223   7.100   1.360   6.447
    1   AR   Ar  224   4.689   2.857   6.444
    1   AR   Ar  225   6.462   2.868   2.546
    1   AR   Ar  226   1.839   3.755   3.573
    1   AR   Ar  227   6.292   3.628   1.648
    1   AR   Ar  228   6.030   6.451   2.068
    1   AR   Ar  229   5.231   4.624  -1.422
    1   AR   Ar  230   4.704   4.116   3.897
    1   AR   Ar  231   5.486   1.544   3.286
    1   AR   Ar  232   4.702   2.426   0.818
    1   AR   Ar  233   6.080   2.708   3.502
    1   AR   Ar  234   6.507   2.830   4.772
    1   AR   Ar  235   6.748   1.950   4.159
    1   AR   Ar  236   5.415   5.599   5.668
    1   AR   Ar  237   5.513   3.418   5.822
    1   AR   Ar  238   4.803   4.037   6.221
    1   AR   Ar  239   5.549   4.604   8.191
    1   AR   Ar  240   6.623   3.041   7.048
    1   AR   Ar  241   1.031   6.530  -0.353
    1   AR   Ar  242   5.634   5.011   0.213
    1   AR   Ar  243   5.412   4.655   2.509
    1   AR   Ar  244   0.719   5.408  -0.259
    1   AR   Ar  245   4.968   0.437   1.103
    1   AR   Ar  246   5.388   6.215   0.305
    1   AR   Ar  247   6.055   4.145   0.779
    1   AR   Ar  248   5.759   5.772  -0.446
    1   AR   Ar  249   3.937   6.049   1.654
    1   AR   Ar  250   4.862   5.572   4.612
    1   AR   Ar  251   5.637   4.981   3.945
    1   AR   Ar  252   4.467   5.303   3.467
    1   AR   Ar  253   6.520   3.721   6.124
    1   AR   Ar  254   2.359   2.205   9.495
    1   AR   Ar  255   4.021   3.071   8.816
    1   AR   Ar  256   6.498   4.950   3.401
    7.12000  7.12000 12.00000
Argon-slab step 3275
  256
    1   AR   Ar    1   6.462   1.542  -1.676
    1   AR   Ar    2   6.704   0.333   0.253
    1   AR   Ar    3   2.698   0.904  -0.116
    1   AR   Ar    4   1.316   0.581  -0.195
    1   AR   Ar    5   0.051   6.841   1.102
    1   AR   Ar    6   6.863   1.060   2.367
    1   AR   Ar    7   6.350   3.783   3.240
    1   AR   Ar    8   6.023   0.480   1.330
    1   AR   Ar    9   1.406   6.841   3.126
    1   AR   Ar   10   0.920   0.324   3.963
    1   AR   Ar   11   1.794   6.432   4.306
    1   AR   Ar   12   0.654   1.142   2.890
    1   AR   Ar   13   0.400   0.811   4.826
    1   AR   Ar   14   6.705   2.088   7.660
    1   AR   Ar   15   4.611   6.867   8.547
    1   AR   Ar   16   0.905   6.946   5.120
    1   AR   Ar   17   6.299   2.016   0.443
    1   AR   Ar   18   6.055   3.955  -0.552
    1   AR   Ar   19   2.265   3.143   1.004
    1   AR   Ar   20   4.331   4.397  -2.053
    1   AR   Ar   21   4.757   1.596   1.434
    1   AR   Ar   22   6.367   1.789   2.721
    1   AR   Ar   23   0.250   1.334  -0.525
    1   AR   Ar   24   6.904   2.543   1.660
    1   AR   Ar   25   0.803   1.654   3.917
    1   AR   Ar   26   5.704   0.240   4.058
    1   AR   Ar   27   1.643   0.913   3.405
    1   AR   Ar   28   0.885   2.490   5.254
    1   AR   Ar   29   5.579   2.883   6.986
    1   AR   Ar   30   1.890   1.670   4.125
    1   AR   Ar   31   3.756   0.491   7.244
    1   AR   Ar   32   1.313   2.676   6.121
    1   AR   Ar   33   1.093   4.506  -0.818
    1   AR   Ar   34   0.514   5.236   2.267
    1   AR   Ar   35   5.865   5.646   1.098
    1   AR   Ar   36   6.381   0.895  -4.170
    1   AR   Ar   37   5.334   2.282   2.424
    1   AR   Ar   38   0.005   3.987   2.527
    1   AR   Ar   39   1.348   3.920   2.721
    1   AR   Ar   40   2.456   4.339   1.795
    1   AR   Ar   41   0.027   2.767   3.849
    1   AR   Ar   42   6.291   5.368   5.041
    1   AR   Ar   43   6.516   2.658   5.929
    1   AR   Ar   44   0.504   4.636   3.483
    1   AR   Ar   45   0.465   3.352   6.022
    1   AR   Ar   46   0.125   5.485   5.513
    1   AR   Ar   47   5.551   4.119   6.893
    1   AR   Ar   48   6.983   5.903   6.596
    1   AR   Ar   49   5.297   0.798  -0.925
    1   AR   Ar   50   4.916   4.876   0.942
    1   AR   Ar   51   6.591   4.739   1.501
    1   AR   Ar   52   6.572   4.597  -1.937
    1   AR   Ar   53   5.470   5.638   3.011
    1   AR   Ar   54   0.012   6.321   2.426
    1   AR   Ar   55   6.459   5.524   2.325
    1   AR   Ar   56   7.096   1.221   0.990
    1   AR   Ar   57   5.248   3.324   3.343
    1   AR   Ar   58   6.922   4.188   4.017
    1   AR   Ar   59   2.236   5.594   5.596
    1   AR   Ar   60   0.650   6.214   3.647
    1   AR   Ar   61   6.778   4.704   6.127
    1   AR   Ar   62   0.149   5.298   4.504
    1   AR   Ar   63   1.964   1.037   7.021
    1   AR   Ar   64   1.258   5.721   4.887
    1   AR   Ar   65   3.622   6.787   0.860
    1   AR   Ar   66   0.740   1.063   1.800
    1   AR   Ar   67   3.588   6.581  -0.835
    1   AR   Ar   68   2.547   1.720  -1.033
    1   AR   Ar   69   2.894   0.987   1.183
    1   AR   Ar   70   0.584   7.105   2.400
    1   AR   Ar   71   3.155   1.358   3.997
    1   AR   Ar   72   4.269   0.110   1.770
    1   AR   Ar   73   3.885   0.488   3.446
    1   AR   Ar   74   1.955   0.683   4.381
    1   AR   Ar   75   3.798   0.965   4.629
    1   AR   Ar   76   1.715   0.575   1.825
    1   AR   Ar   77   2.411   6.784   5.439
    1   AR   Ar   78   0.419   6.886   6.059
    1   AR   Ar   79   3.187   5.935   5.906
    1   AR   Ar   80   4.349   5.040   5.973
    1   AR   Ar   81   2.577   5.959  -0.357
    1   AR   Ar   82   6.837   5.702  -0.259
    1   AR   Ar   83   0.765   2.631   0.495
    1   AR   Ar   84   0.207   3.958   1.110
    1   AR   Ar   85   1.234   3.426   0.966
    1   AR   Ar   86   1.701   4.802  -0.035
    1   AR   Ar   87   1.538   2.373   1.295
    1   AR   Ar   88   2.152   4.841   0.981
    1   AR   Ar   89   0.613   3.070   2.977
    1   AR   Ar   90   1.967   2.726   4.388
    1   AR   Ar   91   1.330   2.297   3.293
    1   AR   Ar   92   1.338   2.446   2.365
    1   AR   Ar   93   1.650   0.688   5.881
    1   AR   Ar   94   0.363   6.903  11.221
    1   AR   Ar   95   3.491   1.313   6.303
    1   AR   Ar   96   2.856   0.383   4.798
    1   AR   Ar   97   4.957   1.628  -0.315
    1   AR   Ar   98   2.247   5.076   2.613
    1   AR   Ar   99   6.020   1.455  -0.712
    1   AR   Ar  100   1.475   3.164  -0.335
    1   AR   Ar  101   3.412   4.568   0.831
    1   AR   Ar  102   3.536   2.442   3.416
    1   AR   Ar  103   1.029   4.997   1.284
    1   AR   Ar  104   3.166   4.086  -1.514
    1   AR   Ar  105   0.802   3.330   4.035
    1   AR   Ar  106   3.106   3.094   5.359
    1   AR   Ar  107   0.776   4.196   4.617
    1   AR   Ar  108   3.110   2.329   4.378
    1   AR   Ar  109   2.047   4.466   4.466
    1   AR   Ar  110   1.311   3.892   5.472
    1   AR   Ar  111   4.770   4.364   7.587
    1   AR   Ar  112   1.608   6.068   6.242
    1   AR   Ar  113   2.823   5.080  -0.026
    1   AR   Ar  114   2.447   7.088  -1.015
    1   AR   Ar  115   2.120   5.131  -1.193
    1   AR   Ar  116   5.597   6.812  -0.605
    1   AR   Ar  117   1.176   5.120   4.068
    1   AR   Ar  118   1.466   5.845   3.337
    1   AR   Ar  119   2.246   2.933   3.085
    1   AR   Ar  120   2.173   6.653   2.126
    1   AR   Ar  121   5.828   4.549   5.648
    1   AR   Ar  122   2.952   6.421   4.625
    1   AR   Ar  123   3.717   4.192   4.761
    1   AR   Ar  124   1.567   5.937   1.545
    1   AR   Ar  125   6.881   3.879   5.009
    1   AR   Ar  126   7.104   6.328   4.387
    1   AR   Ar  127   3.723   3.954   6.346
    1   AR   Ar  128   3.476   5.033   6.432
    1   AR   Ar  129   2.397   6.183   3.228
    1   AR   Ar  130   4.345   3.288  -2.144
    1   AR   Ar  131   3.965   1.344   0.020
    1   AR   Ar  132   6.919   2.298  -0.789
    1   AR   Ar  133   4.615   6.172   2.789
    1   AR   Ar  134   4.400   1.412   3.962
    1   AR   Ar  135   5.765   0.525   2.659
    1   AR   Ar  136   5.103   6.894   2.186
    1   AR   Ar  137   2.976   5.378   3.899
    1   AR   Ar  138   4.524   1.487   5.690
    1   AR   Ar  139   5.555   2.418   5.468
    1   AR   Ar  140   3.778   6.955   4.483
    1   AR   Ar  141   3.959   5.010   4.369
    1   AR   Ar  142   3.307   0.067   6.239
    1   AR   Ar  143   6.463   0.092   5.761
    1   AR   Ar  144   0.073   1.775   5.262
    1   AR   Ar  145   4.759   4.361  -0.185
    1   AR   Ar  146   3.284   2.124   2.111
    1   AR   Ar  147   5.113   1.475  -2.034
    1   AR   Ar  148   3.411   5.174  -1.230
    1   AR   Ar  149   3.077   1.996   0.711
    1   AR   Ar  150   2.563   1.343   2.298
    1   AR   Ar  151   2.527   2.061   3.488
    1   AR   Ar  152   3.462   2.802   0.200
    1   AR   Ar  153   4.625   0.156   3.969
    1   AR   Ar  154   4.124   2.001   4.847
    1   AR   Ar  155   6.784   0.230   6.875
    1   AR   Ar  156   3.935   3.397   3.904
    1   AR   Ar  157   1.669   3.609   6.883
    1   AR   Ar  158   0.516   2.647   7.007
    1   AR   Ar  159   4.726   1.867   7.181
    1   AR   Ar  160   2.239   1.870   5.038
    1   AR   Ar  161   5.308   3.493   2.285
    1   AR   Ar  162   4.625   6.119  -0.869
    1   AR   Ar  163   5.002   3.531   0.862
    1   AR   Ar  164   2.852   5.883   1.866
    1   AR   Ar  165   3.554   3.005   1.233
    1   AR   Ar  166   2.608   3.572   4.320
    1   AR   Ar  167   4.649   0.993   2.823
    1   AR   Ar  168   5.237   3.344  -0.937
    1   AR   Ar  169   3.031   3.490   2.212
    1   AR   Ar  170   2.592   4.213   5.869
    1   AR   Ar  171   5.941   3.910   4.393
    1   AR   Ar  172   4.856   4.528   4.976
    1   AR   Ar  173   2.891   3.795   7.129
    1   AR   Ar  174   2.549   5.600   6.792
    1   AR   Ar  175   2.444   2.685   6.282
    1   AR   Ar  176   3.899   2.222   6.155
    1   AR   Ar  177   0.013   4.681  -0.664
    1   AR   Ar  178   3.976   5.042  -0.344
    1   AR   Ar  179   4.101   5.754   0.466
    1   AR   Ar  180   1.193   1.353  -3.079
    1   AR   Ar  181   0.549   6.023   1.480
    1   AR   Ar  182   2.755   0.732   3.226
    1   AR   Ar  183   3.338   5.326   2.766
    1   AR   Ar  184   4.766   6.592   1.091
    1   AR   Ar  185   2.940   5.245   4.871
    1   AR   Ar  186   3.066   4.366   3.896
    1   AR   Ar  187   3.503   6.401   2.829
    1   AR   Ar  188   3.189   6.968   1.932
    1   AR   Ar  189   3.496   2.960   6.907
    1   AR   Ar  190   3.910   6.074   3.893
    1   AR   Ar  191   3.220   6.346   7.529
    1   AR   Ar  192   3.766   5.769   5.021
    1   AR   Ar  193   2.600   6.262   0.813
    1   AR   Ar  194   4.099   3.736  -1.153
    1   AR   Ar  195   5.596   1.106   0.386
    1   AR   Ar  196   4.576   0.366   0.153
    1   AR   Ar  197   3.975   0.759   0.952
    1   AR   Ar  198   6.139   1.649   1.435
    1   AR   Ar  199   3.717   1.575   3.007
    1   AR   Ar  200   5.420   2.702   0.099
    1   AR   Ar  201   5.905   5.991   4.125
    1   AR   Ar  202   5.545   2.000   4.304
    1   AR   Ar  203   6.433   6.127   3.136
    1   AR   Ar  204   4.549   6.425   5.099
    1   AR   Ar  205   6.636   0.111   2.092
    1   AR   Ar  206   4.970   0.850   4.637
    1   AR   Ar  207   0.952   1.709   6.430
    1   AR   Ar  208   7.004   0.157   3.511
    1   AR   Ar  209   6.801   2.761  -1.939
    1   AR   Ar  210   3.487   0.303   0.075
    1   AR   Ar  211   6.429   3.118   0.752
    1   AR   Ar  212   6.059   3.570  -1.623
    1   AR   Ar  213   3.644   0.984   2.041
    1   AR   Ar  214   4.302   3.053   2.912
    1   AR   Ar  215   5.582   2.595   1.347
    1   AR   Ar  216   0.802   3.189   1.854
    1   AR   Ar  217   5.079   3.278   4.622
    1   AR   Ar  218   4.294   3.286   5.225
    1   AR   Ar  219   4.846   2.514   3.805
    1   AR   Ar  220   4.306   4.083   2.193
    1   AR   Ar  221   5.568   6.557   4.973
    1   AR   Ar  222   4.503   0.689   6.636
    1   AR   Ar  223   7.080   1.358   6.431
    1   AR   Ar  224   4.624   2.832   6.427
    1   AR   Ar  225   6.439   2.848   2.569
    1   AR   Ar  226   1.849   3.782   3.574
    1   AR   Ar  227   6.314   3.613   1.678
    1   AR   Ar  228   6.045   6.430   2.081
    1   AR   Ar  229   5.263   4.635  -1.427
    1   AR   Ar  230   4.705   4.062   3.905
    1   AR   Ar  231   5.477   1.585   3.310
    1   AR   Ar  232   4.734   2.436   0.838
    1   AR   Ar  233   6.066   2.740   3.516
    1   AR   Ar  234   6.505   2.808   4.744
    1   AR   Ar  235   6.750   1.925   4.129
    1   AR   Ar  236   5.390   5.588   5.649
    1   AR   Ar  237   5.503   3.429   5.867
    1   AR   Ar  238   4.832   4.047   6.202
    1   AR   Ar  239   5.550   4.567   8.205
    1   AR   Ar  240   6.629   3.031   7.067
    1   AR   Ar  241   1.033   6.518  -0.372
    1   AR   Ar  242   5.631   4.984   0.199
    1   AR   Ar  243   5.396   4.631   2.514
    1   AR   Ar  244   0.710   5.416  -0.257
    1   AR   Ar  245   5.000   0.460   1.135
    1   AR   Ar  246   5.380   6.236   0.303
    1   AR   Ar  247   6.042   4.112   0.788
    1   AR   Ar  248   5.789   5.813  -0.490
    1   AR   Ar  249   3.895   6.043   1.657
    1   AR   Ar  250   4.835   5.600   4.615
    1   AR   Ar  251   5.665   4.974   3.929
    1   AR   Ar  252   4.488   5.322   3.451
    1   AR   Ar  253   6.511   3.739   6.116
    1   AR   Ar  254   2.403   2.223   9.498
    1   AR   Ar  255   4.011   3.106   8.837
    1   AR   Ar  256   6.482   4.905   3.433
    7.12000  7.12000 12.00000
Argon-slab step 3280
  256
    1   AR   Ar    1   6.429   1.572  -1.705
    1   AR   Ar    2   6.715   0.383   0.262
    1   AR   Ar    3   2.695   0.948  -0.115
    1   AR   Ar    4   1.311   0.594  -0.188
    1   AR   Ar    5   0.050   6.842   1.092
    1   AR   Ar    6   6.849   1.052   2.337
    1   AR   Ar    7   6.338   3.813   3.212
    1   AR   Ar    8   6.005   0.443   1.358
    1   AR   Ar    9   1.440   6.849   3.129
    1   AR   Ar   10   0.893   0.330   3.976
    1   AR   Ar   11   1.803   6.427   4.282
    1   AR   Ar   12   0.668   1.145   2.886
    1   AR   Ar   13   0.373   0.825   4.842
    1   AR   Ar   14   6.668   2.058   7.675
    1   AR   Ar   15   4.639   6.850   8.565
    1   AR   Ar   16   0.906   6.922   5.110
    1   AR   Ar   17   6.310   2.040   0.461
    1   AR   Ar   18   6.016   3.988  -0.536
    1   AR   Ar   19   2.269   3.142   1.003
    1   AR   Ar   20   4.306   4.421  -2.043
    1   AR   Ar   21   4.731   1.566   1.464
    1   AR   Ar   22   6.353   1.810   2.715
    1   AR   Ar   23   0.262   1.335  -0.521
    1   AR   Ar   24   6.916   2.585   1.639
    1   AR   Ar   25   0.788   1.695   3.928
    1   AR   Ar   26   5.691   0.221   4.093
    1   AR   Ar   27   1.645   0.916   3.398
    1   AR   Ar   28   0.879   2.541   5.237
    1   AR   Ar   29   5.549   2.886   6.976
    1   AR   Ar   30   1.910   1.674   4.113
    1   AR   Ar   31   3.747   0.525   7.238
    1   AR   Ar   32   1.300   2.676   6.135
    1   AR   Ar   33   1.114   4.528  -0.822
    1   AR   Ar   34   0.525   5.230   2.292
    1   AR   Ar   35   5.907   5.677   1.128
    1   AR   Ar   36   6.350   0.889  -4.191
    1   AR   Ar   37   5.335   2.301   2.410
    1   AR   Ar   38   0.012   3.995   2.548
    1   AR   Ar   39   1.338   3.912   2.721
    1   AR   Ar   40   2.431   4.317   1.793
    1   AR   Ar   41   7.111   2.759   3.844
    1   AR   Ar   42   6.269   5.350   5.018
    1   AR   Ar   43   6.526   2.668   5.949
    1   AR   Ar   44   0.541   4.621   3.437
    1   AR   Ar   45   0.466   3.355   6.030
    1   AR   Ar   46   0.097   5.505   5.517
    1   AR   Ar   47   5.511   4.122   6.920
    1   AR   Ar   48   6.998   5.895   6.548
    1   AR   Ar   49   5.289   0.814  -0.956
    1   AR   Ar   50   4.903   4.867   0.948
    1   AR   Ar   51   6.592   4.740   1.503
    1   AR   Ar   52   6.623   4.603  -1.919
    1   AR   Ar   53   5.460   5.650   2.979
    1   AR   Ar   54   0.006   6.335   2.419
    1   AR   Ar   55   6.460   5.495   2.370
    1   AR   Ar   56   7.073   1.214   0.988
    1   AR   Ar   57   5.252   3.310   3.358
    1   AR   Ar   58   6.934   4.192   4.000
    1   AR   Ar   59   2.231   5.575   5.577
    1   AR   Ar   60   0.651   6.188   3.647
    1   AR   Ar   61   6.792   4.668   6.122
    1   AR   Ar   62   0.119   5.303   4.500
    1   AR   Ar   63   1.946   1.018   7.029
    1   AR   Ar   64   1.246   5.738   4.907
    1   AR   Ar   65   3.619   6.776   0.896
    1   AR   Ar   66   0.770   1.033   1.790
    1   AR   Ar   67   3.592   6.605  -0.827
    1   AR   Ar   68   2.532   1.710  -1.038
    1   AR   Ar   69   2.881   0.952   1.168
    1   AR   Ar   70   0.556   7.119   2.395
    1   AR   Ar   71   3.158   1.388   3.980
    1   AR   Ar   72   4.291   0.101   1.776
    1   AR   Ar   73   3.908   0.511   3.433
    1   AR   Ar   74   1.954   0.697   4.414
    1   AR   Ar   75   3.803   0.949   4.637
    1   AR   Ar   76   1.750   0.547   1.801
    1   AR   Ar   77   2.405   6.776   5.428
    1   AR   Ar   78   0.454   6.843   5.987
    1   AR   Ar   79   3.141   5.928   5.911
    1   AR   Ar   80   4.337   5.021   5.968
    1   AR   Ar   81   2.555   5.955  -0.394
    1   AR   Ar   82   6.841   5.676  -0.232
    1   AR   Ar   83   0.759   2.643   0.535
    1   AR   Ar   84   0.189   3.959   1.128
    1   AR   Ar   85   1.231   3.429   0.957
    1   AR   Ar   86   1.706   4.805   0.003
    1   AR   Ar   87   1.544   2.406   1.280
    1   AR   Ar   88   2.126   4.845   1.000
    1   AR   Ar   89   0.623   3.098   2.966
    1   AR   Ar   90   1.950   2.726   4.371
    1   AR   Ar   91   1.337   2.334   3.314
    1   AR   Ar   92   1.340   2.442   2.384
    1   AR   Ar   93   1.615   0.696   5.899
    1   AR   Ar   94   0.364   6.908  11.241
    1   AR   Ar   95   3.506   1.290   6.287
    1   AR   Ar   96   2.873   0.363   4.845
    1   AR   Ar   97   4.959   1.630  -0.326
    1   AR   Ar   98   2.269   5.110   2.615
    1   AR   Ar   99   6.030   1.427  -0.706
    1   AR   Ar  100   1.482   3.166  -0.375
    1   AR   Ar  101   3.431   4.570   0.865
    1   AR   Ar  102   3.556   2.441   3.424
    1   AR   Ar  103   1.061   5.000   1.297
    1   AR   Ar  104   3.156   4.094  -1.530
    1   AR   Ar  105   0.795   3.307   3.991
    1   AR   Ar  106   3.101   3.090   5.364
    1   AR   Ar  107   0.739   4.203   4.654
    1   AR   Ar  108   3.090   2.339   4.341
    1   AR   Ar  109   2.040   4.471   4.452
    1   AR   Ar  110   1.317   3.847   5.444
    1   AR   Ar  111   4.765   4.378   7.603
    1   AR   Ar  112   1.609   6.057   6.196
    1   AR   Ar  113   2.847   5.077  -0.001
    1   AR   Ar  114   2.470   7.105  -1.003
    1   AR   Ar  115   2.129   5.132  -1.180
    1   AR   Ar  116   5.605   6.840  -0.596
    1   AR   Ar  117   1.174   5.100   4.085
    1   AR   Ar  118   1.452   5.839   3.328
    1   AR   Ar  119   2.272   2.951   3.130
    1   AR   Ar  120   2.153   6.641   2.092
    1   AR   Ar  121   5.842   4.547   5.655
    1   AR   Ar  122   2.924   6.439   4.635
    1   AR   Ar  123   3.718   4.197   4.755
    1   AR   Ar  124   1.566   5.927   1.555
    1   AR   Ar  125   6.889   3.867   4.996
    1   AR   Ar  126   0.004   6.311   4.401
    1   AR   Ar  127   3.761   3.975   6.373
    1   AR   Ar  128   3.453   5.003   6.458
    1   AR   Ar  129   2.418   6.190   3.234
    1   AR   Ar  130   4.291   3.288  -2.147
    1   AR   Ar  131   3.958   1.374   0.012
    1   AR   Ar  132   6.927   2.306  -0.798
    1   AR   Ar  133   4.595   6.154   2.784
    1   AR   Ar  134   4.381   1.420   3.935
    1   AR   Ar  135   5.773   0.573   2.673
    1   AR   Ar  136   5.111   6.871   2.190
    1   AR   Ar  137   2.956   5.395   3.830
    1   AR   Ar  138   4.511   1.474   5.658
    1   AR   Ar  139   5.549   2.434   5.464
    1   AR   Ar  140   3.780   6.976   4.484
    1   AR   Ar  141   3.963   5.064   4.339
    1   AR   Ar  142   3.305   0.064   6.226
    1   AR   Ar  143   6.444   0.086   5.754
    1   AR   Ar  144   0.050   1.760   5.216
    1   AR   Ar  145   4.773   4.376  -0.186
    1   AR   Ar  146   3.268   2.131   2.109
    1   AR   Ar  147   5.106   1.493  -2.032
    1   AR   Ar  148   3.413   5.223  -1.234
    1   AR   Ar  149   3.048   2.004   0.705
    1   AR   Ar  150   2.573   1.328   2.340
    1   AR   Ar  151   2.535   2.070   3.498
    1   AR   Ar  152   3.439   2.800   0.175
    1   AR   Ar  153   4.673   0.149   3.965
    1   AR   Ar  154   4.143   2.005   4.861
    1   AR   Ar  155   6.785   0.226   6.859
    1   AR   Ar  156   3.932   3.397   3.886
    1   AR   Ar  157   1.645   3.613   6.886
    1   AR   Ar  158   0.513   2.669   6.998
    1   AR   Ar  159   4.745   1.834   7.180
    1   AR   Ar  160   2.218   1.865   5.077
    1   AR   Ar  161   5.317   3.513   2.292
    1   AR   Ar  162   4.643   6.118  -0.892
    1   AR   Ar  163   5.020   3.496   0.849
    1   AR   Ar  164   2.875   5.904   1.898
    1   AR   Ar  165   3.562   2.960   1.186
    1   AR   Ar  166   2.647   3.535   4.314
    1   AR   Ar  167   4.633   0.988   2.807
    1   AR   Ar  168   5.198   3.402  -0.956
    1   AR   Ar  169   3.048   3.505   2.260
    1   AR   Ar  170   2.592   4.211   5.862
    1   AR   Ar  171   5.985   3.897   4.391
    1   AR   Ar  172   4.843   4.539   5.012
    1   AR   Ar  173   2.901   3.741   7.138
    1   AR   Ar  174   2.573   5.621   6.785
    1   AR   Ar  175   2.456   2.666   6.283
    1   AR   Ar  176   3.910   2.222   6.154
    1   AR   Ar  177   7.118   4.712  -0.693
    1   AR   Ar  178   4.000   5.042  -0.352
    1   AR   Ar  179   4.116   5.779   0.461
    1   AR   Ar  180   1.196   1.345  -3.075
    1   AR   Ar  181   0.542   6.012   1.476
    1   AR   Ar  182   2.724   0.739   3.287
    1   AR   Ar  183   3.338   5.351   2.794
    1   AR   Ar  184   4.768   6.580   1.056
    1   AR   Ar  185   2.941   5.230   4.863
    1   AR   Ar  186   3.036   4.347   3.918
    1   AR   Ar  187   3.511   6.393   2.826
    1   AR   Ar  188   3.188   6.995   1.953
    1   AR   Ar  189   3.512   2.956   6.895
    1   AR   Ar  190   3.864   6.087   3.878
    1   AR   Ar  191   3.200   6.374   7.510
    1   AR   Ar  192   3.771   5.764   4.994
    1   AR   Ar  193   2.613   6.275   0.838
    1   AR   Ar  194   4.108   3.736  -1.118
    1   AR   Ar  195   5.642   1.094   0.384
    1   AR   Ar  196   4.556   0.367   0.170
    1   AR   Ar  197   3.932   0.772   0.953
    1   AR   Ar  198   6.172   1.623   1.478
    1   AR   Ar  199   3.746   1.604   2.998
    1   AR   Ar  200   5.428   2.718   0.091
    1   AR   Ar  201   5.875   5.958   4.119
    1   AR   Ar  202   5.570   1.995   4.315
    1   AR   Ar  203   6.432   6.153   3.176
    1   AR   Ar  204   4.566   6.444   5.111
    1   AR   Ar  205   6.641   0.139   2.099
    1   AR   Ar  206   4.981   0.858   4.602
    1   AR   Ar  207   0.926   1.704   6.385
    1   AR   Ar  208   6.967   0.161   3.507
    1   AR   Ar  209   6.790   2.757  -1.904
    1   AR   Ar  210   3.498   0.293   0.121
    1   AR   Ar  211   6.443   3.124   0.739
    1   AR   Ar  212   6.001   3.568  -1.616
    1   AR   Ar  213   3.658   0.934   2.025
    1   AR   Ar  214   4.308   3.040   2.900
    1   AR   Ar  215   5.609   2.624   1.372
    1   AR   Ar  216   0.777   3.202   1.845
    1   AR   Ar  217   5.086   3.253   4.644
    1   AR   Ar  218   4.294   3.279   5.190
    1   AR   Ar  219   4.835   2.500   3.794
    1   AR   Ar  220   4.296   4.089   2.181
    1   AR   Ar  221   5.560   6.540   5.020
    1   AR   Ar  222   4.508   0.670   6.630
    1   AR   Ar  223   7.057   1.356   6.414
    1   AR   Ar  224   4.570   2.817   6.411
    1   AR   Ar  225   6.417   2.832   2.587
    1   AR   Ar  226   1.860   3.809   3.585
    1   AR   Ar  227   6.337   3.598   1.715
    1   AR   Ar  228   6.055   6.404   2.092
    1   AR   Ar  229   5.296   4.643  -1.431
    1   AR   Ar  230   4.711   4.015   3.915
    1   AR   Ar  231   5.466   1.626   3.334
    1   AR   Ar  232   4.755   2.447   0.853
    1   AR   Ar  233   6.055   2.767   3.538
    1   AR   Ar  234   6.501   2.787   4.717
    1   AR   Ar  235   6.746   1.886   4.103
    1   AR   Ar  236   5.363   5.577   5.629
    1   AR   Ar  237   5.502   3.430   5.908
    1   AR   Ar  238   4.844   4.066   6.180
    1   AR   Ar  239   5.566   4.521   8.224
    1   AR   Ar  240   6.636   3.024   7.084
    1   AR   Ar  241   1.036   6.506  -0.390
    1   AR   Ar  242   5.631   4.956   0.182
    1   AR   Ar  243   5.380   4.607   2.520
    1   AR   Ar  244   0.707   5.424  -0.255
    1   AR   Ar  245   5.035   0.492   1.166
    1   AR   Ar  246   5.366   6.260   0.309
    1   AR   Ar  247   6.026   4.082   0.794
    1   AR   Ar  248   5.807   5.853  -0.521
    1   AR   Ar  249   3.855   6.038   1.661
    1   AR   Ar  250   4.812   5.622   4.612
    1   AR   Ar  251   5.674   4.966   3.924
    1   AR   Ar  252   4.511   5.338   3.434
    1   AR   Ar  253   6.500   3.749   6.107
    1   AR   Ar  254   2.373   2.213   9.517
    1   AR   Ar  255   4.001   3.140   8.858
    1   AR   Ar  256   6.480   4.865   3.452
    7.12000  7.12000 12.00000
Argon-slab step 3285
  256
    1   AR   Ar    1   6.397   1.603  -1.734
    1   AR   Ar    2   6.713   0.377   0.271
    1   AR   Ar    3   2.689   0.994  -0.114
    1   AR   Ar    4   1.306   0.606  -0.181
    1   AR   Ar    5   0.045   6.847   1.084
    1   AR   Ar    6   6.845   1.048   2.305
    1   AR   Ar    7   6.321   3.839   3.184
    1   AR   Ar    8   5.996   0.408   1.384
    1   AR   Ar    9   1.473   6.863   3.131
    1   AR   Ar   10   0.867   0.335   3.988
    1   AR   Ar   11   1.812   6.424   4.256
    1   AR   Ar   12   0.684   1.148   2.884
    1   AR   Ar   13   0.347   0.837   4.856
    1   AR   Ar   14   6.631   2.028   7.689
    1   AR   Ar   15   4.667   6.833   8.582
    1   AR   Ar   16   0.912   6.889   5.101
    1   AR   Ar   17   6.323   2.067   0.462
    1   AR   Ar   18   5.977   4.023  -0.519
    1   AR   Ar   19   2.277   3.143   1.003
    1   AR   Ar   20   4.280   4.444  -2.032
    1   AR   Ar   21   4.706   1.534   1.495
    1   AR   Ar   22   6.332   1.838   2.714
    1   AR   Ar   23   0.268   1.310  -0.497
    1   AR   Ar   24   6.926   2.627   1.617
    1   AR   Ar   25   0.771   1.734   3.942
    1   AR   Ar   26   5.685   0.200   4.127
    1   AR   Ar   27   1.645   0.920   3.387
    1   AR   Ar   28   0.871   2.561   5.238
    1   AR   Ar   29   5.519   2.890   6.963
    1   AR   Ar   30   1.917   1.675   4.106
    1   AR   Ar   31   3.728   0.557   7.239
    1   AR   Ar   32   1.293   2.679   6.157
    1   AR   Ar   33   1.133   4.550  -0.829
    1   AR   Ar   34   0.534   5.223   2.318
    1   AR   Ar   35   5.948   5.706   1.159
    1   AR   Ar   36   6.320   0.883  -4.212
    1   AR   Ar   37   5.337   2.320   2.398
    1   AR   Ar   38   0.021   4.003   2.567
    1   AR   Ar   39   1.324   3.904   2.716
    1   AR   Ar   40   2.408   4.291   1.798
    1   AR   Ar   41   7.072   2.756   3.830
    1   AR   Ar   42   6.244   5.333   4.993
    1   AR   Ar   43   6.537   2.677   5.969
    1   AR   Ar   44   0.579   4.605   3.384
    1   AR   Ar   45   0.464   3.358   6.037
    1   AR   Ar   46   0.071   5.527   5.524
    1   AR   Ar   47   5.480   4.123   6.950
    1   AR   Ar   48   7.013   5.888   6.499
    1   AR   Ar   49   5.279   0.822  -0.998
    1   AR   Ar   50   4.892   4.862   0.946
    1   AR   Ar   51   6.588   4.738   1.515
    1   AR   Ar   52   6.673   4.608  -1.899
    1   AR   Ar   53   5.458   5.659   2.948
    1   AR   Ar   54   7.114   6.335   2.410
    1   AR   Ar   55   6.466   5.494   2.390
    1   AR   Ar   56   7.048   1.206   0.987
    1   AR   Ar   57   5.250   3.335   3.392
    1   AR   Ar   58   6.952   4.186   3.993
    1   AR   Ar   59   2.241   5.573   5.566
    1   AR   Ar   60   0.633   6.173   3.650
    1   AR   Ar   61   6.813   4.649   6.117
    1   AR   Ar   62   0.089   5.296   4.486
    1   AR   Ar   63   1.928   0.998   7.035
    1   AR   Ar   64   1.233   5.756   4.929
    1   AR   Ar   65   3.619   6.762   0.938
    1   AR   Ar   66   0.797   1.002   1.780
    1   AR   Ar   67   3.595   6.628  -0.817
    1   AR   Ar   68   2.517   1.698  -1.042
    1   AR   Ar   69   2.868   0.918   1.154
    1   AR   Ar   70   0.541   0.029   2.390
    1   AR   Ar   71   3.162   1.415   3.960
    1   AR   Ar   72   4.299   0.093   1.781
    1   AR   Ar   73   3.920   0.537   3.416
    1   AR   Ar   74   1.952   0.705   4.448
    1   AR   Ar   75   3.811   0.929   4.652
    1   AR   Ar   76   1.787   0.519   1.779
    1   AR   Ar   77   2.393   6.765   5.427
    1   AR   Ar   78   0.482   6.798   5.927
    1   AR   Ar   79   3.100   5.925   5.916
    1   AR   Ar   80   4.332   5.002   5.957
    1   AR   Ar   81   2.532   5.959  -0.435
    1   AR   Ar   82   6.839   5.651  -0.204
    1   AR   Ar   83   0.749   2.650   0.573
    1   AR   Ar   84   0.170   3.957   1.148
    1   AR   Ar   85   1.233   3.442   0.947
    1   AR   Ar   86   1.713   4.810   0.041
    1   AR   Ar   87   1.549   2.438   1.267
    1   AR   Ar   88   2.119   4.868   1.024
    1   AR   Ar   89   0.630   3.126   2.952
    1   AR   Ar   90   1.931   2.726   4.353
    1   AR   Ar   91   1.349   2.370   3.362
    1   AR   Ar   92   1.342   2.440   2.376
    1   AR   Ar   93   1.580   0.705   5.916
    1   AR   Ar   94   0.365   6.914  11.261
    1   AR   Ar   95   3.520   1.259   6.272
    1   AR   Ar   96   2.892   0.349   4.890
    1   AR   Ar   97   4.962   1.635  -0.336
    1   AR   Ar   98   2.290   5.145   2.618
    1   AR   Ar   99   6.048   1.405  -0.693
    1   AR   Ar  100   1.488   3.168  -0.414
    1   AR   Ar  101   3.455   4.569   0.910
    1   AR   Ar  102   3.575   2.456   3.438
    1   AR   Ar  103   1.091   5.002   1.310
    1   AR   Ar  104   3.146   4.104  -1.547
    1   AR   Ar  105   0.800   3.292   3.951
    1   AR   Ar  106   3.096   3.085   5.369
    1   AR   Ar  107   0.701   4.214   4.686
    1   AR   Ar  108   3.068   2.356   4.314
    1   AR   Ar  109   2.032   4.478   4.440
    1   AR   Ar  110   1.326   3.800   5.418
    1   AR   Ar  111   4.751   4.391   7.617
    1   AR   Ar  112   1.605   6.050   6.154
    1   AR   Ar  113   2.874   5.067   0.027
    1   AR   Ar  114   2.494   0.001  -0.988
    1   AR   Ar  115   2.138   5.132  -1.165
    1   AR   Ar  116   5.607   6.877  -0.597
    1   AR   Ar  117   1.175   5.081   4.103
    1   AR   Ar  118   1.461   5.815   3.309
    1   AR   Ar  119   2.296   2.976   3.169
    1   AR   Ar  120   2.131   6.632   2.061
    1   AR   Ar  121   5.827   4.554   5.653
    1   AR   Ar  122   2.896   6.447   4.639
    1   AR   Ar  123   3.718   4.191   4.755
    1   AR   Ar  124   1.572   5.917   1.564
    1   AR   Ar  125   6.897   3.853   4.988
    1   AR   Ar  126   0.016   6.301   4.420
    1   AR   Ar  127   3.799   3.994   6.400
    1   AR   Ar  128   3.422   4.974   6.486
    1   AR   Ar  129   2.445   6.199   3.238
    1   AR   Ar  130   4.300   3.284  -2.132
    1   AR   Ar  131   3.950   1.403   0.005
    1   AR   Ar  132   6.933   2.313  -0.807
    1   AR   Ar  133   4.567   6.140   2.776
    1   AR   Ar  134   4.364   1.432   3.900
    1   AR   Ar  135   5.781   0.621   2.686
    1   AR   Ar  136   5.129   6.843   2.193
    1   AR   Ar  137   2.935   5.416   3.757
    1   AR   Ar  138   4.500   1.457   5.631
    1   AR   Ar  139   5.542   2.450   5.459
    1   AR   Ar  140   3.787   7.000   4.485
    1   AR   Ar  141   3.970   5.117   4.295
    1   AR   Ar  142   3.303   0.062   6.213
    1   AR   Ar  143   6.426   0.080   5.747
    1   AR   Ar  144   0.025   1.748   5.171
    1   AR   Ar  145   4.791   4.387  -0.187
    1   AR   Ar  146   3.253   2.139   2.106
    1   AR   Ar  147   5.099   1.511  -2.028
    1   AR   Ar  148   3.414   5.272  -1.238
    1   AR   Ar  149   3.017   2.008   0.701
    1   AR   Ar  150   2.584   1.311   2.382
    1   AR   Ar  151   2.552   2.076   3.494
    1   AR   Ar  152   3.418   2.800   0.143
    1   AR   Ar  153   4.721   0.134   3.958
    1   AR   Ar  154   4.159   2.014   4.870
    1   AR   Ar  155   6.786   0.222   6.841
    1   AR   Ar  156   3.920   3.391   3.870
    1   AR   Ar  157   1.621   3.615   6.887
    1   AR   Ar  158   0.512   2.691   6.987
    1   AR   Ar  159   4.764   1.802   7.177
    1   AR   Ar  160   2.199   1.863   5.114
    1   AR   Ar  161   5.327   3.531   2.298
    1   AR   Ar  162   4.669   6.105  -0.870
    1   AR   Ar  163   5.040   3.463   0.836
    1   AR   Ar  164   2.893   5.922   1.932
    1   AR   Ar  165   3.570   2.915   1.146
    1   AR   Ar  166   2.685   3.487   4.314
    1   AR   Ar  167   4.619   0.984   2.790
    1   AR   Ar  168   5.156   3.460  -0.973
    1   AR   Ar  169   3.065   3.518   2.308
    1   AR   Ar  170   2.594   4.210   5.855
    1   AR   Ar  171   6.025   3.883   4.388
    1   AR   Ar  172   4.829   4.550   5.048
    1   AR   Ar  173   2.906   3.692   7.146
    1   AR   Ar  174   2.596   5.643   6.779
    1   AR   Ar  175   2.469   2.649   6.284
    1   AR   Ar  176   3.899   2.207   6.141
    1   AR   Ar  177   7.101   4.743  -0.724
    1   AR   Ar  178   4.021   5.044  -0.359
    1   AR   Ar  179   4.132   5.805   0.458
    1   AR   Ar  180   1.201   1.332  -3.074
    1   AR   Ar  181   0.531   5.998   1.475
    1   AR   Ar  182   2.694   0.744   3.346
    1   AR   Ar  183   3.340   5.373   2.823
    1   AR   Ar  184   4.764   6.567   1.026
    1   AR   Ar  185   2.935   5.208   4.855
    1   AR   Ar  186   3.012   4.335   3.935
    1   AR   Ar  187   3.519   6.387   2.824
    1   AR   Ar  188   3.187   7.023   1.973
    1   AR   Ar  189   3.531   2.947   6.880
    1   AR   Ar  190   3.816   6.101   3.863
    1   AR   Ar  191   3.178   6.395   7.500
    1   AR   Ar  192   3.769   5.777   5.010
    1   AR   Ar  193   2.627   6.288   0.864
    1   AR   Ar  194   4.118   3.737  -1.082
    1   AR   Ar  195   5.689   1.082   0.383
    1   AR   Ar  196   4.540   0.368   0.187
    1   AR   Ar  197   3.892   0.787   0.959
    1   AR   Ar  198   6.204   1.597   1.522
    1   AR   Ar  199   3.752   1.604   3.002
    1   AR   Ar  200   5.439   2.734   0.081
    1   AR   Ar  201   5.847   5.930   4.114
    1   AR   Ar  202   5.599   1.990   4.333
    1   AR   Ar  203   6.431   6.182   3.222
    1   AR   Ar  204   4.573   6.473   5.128
    1   AR   Ar  205   6.647   0.153   2.104
    1   AR   Ar  206   4.994   0.872   4.575
    1   AR   Ar  207   0.903   1.698   6.339
    1   AR   Ar  208   6.930   0.163   3.500
    1   AR   Ar  209   6.771   2.743  -1.878
    1   AR   Ar  210   3.505   0.284   0.159
    1   AR   Ar  211   6.459   3.126   0.725
    1   AR   Ar  212   6.008   3.558  -1.608
    1   AR   Ar  213   3.671   0.887   2.010
    1   AR   Ar  214   4.316   3.027   2.887
    1   AR   Ar  215   5.642   2.655   1.401
    1   AR   Ar  216   0.745   3.225   1.837
    1   AR   Ar  217   5.095   3.240   4.648
    1   AR   Ar  218   4.279   3.286   5.183
    1   AR   Ar  219   4.817   2.484   3.783
    1   AR   Ar  220   4.287   4.094   2.170
    1   AR   Ar  221   5.562   6.524   5.064
    1   AR   Ar  222   4.521   0.654   6.615
    1   AR   Ar  223   7.030   1.353   6.397
    1   AR   Ar  224   4.561   2.815   6.404
    1   AR   Ar  225   6.397   2.824   2.600
    1   AR   Ar  226   1.872   3.837   3.603
    1   AR   Ar  227   6.360   3.581   1.755
    1   AR   Ar  228   6.048   6.412   2.065
    1   AR   Ar  229   5.329   4.650  -1.433
    1   AR   Ar  230   4.722   3.979   3.929
    1   AR   Ar  231   5.457   1.634   3.344
    1   AR   Ar  232   4.766   2.456   0.865
    1   AR   Ar  233   6.049   2.784   3.569
    1   AR   Ar  234   6.495   2.766   4.693
    1   AR   Ar  235   6.737   1.836   4.080
    1   AR   Ar  236   5.334   5.566   5.607
    1   AR   Ar  237   5.513   3.418   5.942
    1   AR   Ar  238   4.836   4.097   6.155
    1   AR   Ar  239   5.586   4.475   8.246
    1   AR   Ar  240   6.641   3.018   7.098
    1   AR   Ar  241   1.039   6.494  -0.407
    1   AR   Ar  242   5.634   4.931   0.163
    1   AR   Ar  243   5.366   4.582   2.527
    1   AR   Ar  244   0.712   5.430  -0.253
    1   AR   Ar  245   5.062   0.528   1.193
    1   AR   Ar  246   5.354   6.283   0.314
    1   AR   Ar  247   6.008   4.056   0.798
    1   AR   Ar  248   5.804   5.898  -0.523
    1   AR   Ar  249   3.823   6.035   1.664
    1   AR   Ar  250   4.796   5.636   4.603
    1   AR   Ar  251   5.659   4.954   3.931
    1   AR   Ar  252   4.535   5.348   3.420
    1   AR   Ar  253   6.502   3.734   6.091
    1   AR   Ar  254   2.324   2.196   9.539
    1   AR   Ar  255   3.991   3.175   8.879
    1   AR   Ar  256   6.495   4.833   3.448
    7.12000  7.12000 12.00000
Argon-slab step 3290
  256
    1   AR   Ar    1   6.365   1.635  -1.762
    1   AR   Ar    2   6.709   0.372   0.281
    1   AR   Ar    3   2.691   1.013  -0.123
    1   AR   Ar    4   1.302   0.618  -0.175
    1   AR   Ar    5   0.038   6.856   1.076
    1   AR   Ar    6   6.849   1.065   2.275
    1   AR   Ar    7   6.298   3.859   3.157
    1   AR   Ar    8   6.000   0.373   1.408
    1   AR   Ar    9   1.488   6.878   3.131
    1   AR   Ar   10   0.842   0.340   3.999
    1   AR   Ar   11   1.817   6.423   4.252
    1   AR   Ar   12   0.699   1.150   2.883
    1   AR   Ar   13   0.324   0.842   4.869
    1   AR   Ar   14   6.594   1.999   7.701
    1   AR   Ar   15   4.693   6.817   8.594
    1   AR   Ar   16   0.932   6.860   5.065
    1   AR   Ar   17   6.335   2.093   0.463
    1   AR   Ar   18   5.969   4.041  -0.503
    1   AR   Ar   19   2.290   3.145   1.001
    1   AR   Ar   20   4.281   4.440  -2.015
    1   AR   Ar   21   4.681   1.500   1.527
    1   AR   Ar   22   6.307   1.860   2.716
    1   AR   Ar   23   0.273   1.283  -0.473
    1   AR   Ar   24   6.924   2.654   1.601
    1   AR   Ar   25   0.751   1.769   3.958
    1   AR   Ar   26   5.694   0.178   4.163
    1   AR   Ar   27   1.643   0.922   3.376
    1   AR   Ar   28   0.860   2.581   5.233
    1   AR   Ar   29   5.489   2.895   6.950
    1   AR   Ar   30   1.913   1.675   4.106
    1   AR   Ar   31   3.702   0.589   7.242
    1   AR   Ar   32   1.292   2.685   6.186
    1   AR   Ar   33   1.152   4.572  -0.837
    1   AR   Ar   34   0.542   5.217   2.344
    1   AR   Ar   35   5.970   5.725   1.183
    1   AR   Ar   36   6.289   0.878  -4.234
    1   AR   Ar   37   5.339   2.340   2.388
    1   AR   Ar   38   0.039   4.001   2.548
    1   AR   Ar   39   1.301   3.923   2.712
    1   AR   Ar   40   2.388   4.260   1.810
    1   AR   Ar   41   7.034   2.757   3.810
    1   AR   Ar   42   6.219   5.315   4.967
    1   AR   Ar   43   6.549   2.685   5.989
    1   AR   Ar   44   0.598   4.564   3.398
    1   AR   Ar   45   0.474   3.371   6.053
    1   AR   Ar   46   0.047   5.550   5.529
    1   AR   Ar   47   5.464   4.113   6.972
    1   AR   Ar   48   7.028   5.882   6.452
    1   AR   Ar   49   5.263   0.826  -1.043
    1   AR   Ar   50   4.881   4.857   0.944
    1   AR   Ar   51   6.583   4.736   1.527
    1   AR   Ar   52   6.723   4.612  -1.877
    1   AR   Ar   53   5.463   5.666   2.918
    1   AR   Ar   54   7.099   6.325   2.401
    1   AR   Ar   55   6.475   5.512   2.395
    1   AR   Ar   56   7.024   1.198   0.986
    1   AR   Ar   57   5.247   3.371   3.423
    1   AR   Ar   58   6.980   4.169   3.995
    1   AR   Ar   59   2.252   5.569   5.548
    1   AR   Ar   60   0.604   6.164   3.653
    1   AR   Ar   61   6.840   4.646   6.112
    1   AR   Ar   62   0.063   5.279   4.468
    1   AR   Ar   63   1.909   0.979   7.040
    1   AR   Ar   64   1.225   5.772   4.948
    1   AR   Ar   65   3.621   6.748   0.984
    1   AR   Ar   66   0.796   1.008   1.789
    1   AR   Ar   67   3.597   6.652  -0.806
    1   AR   Ar   68   2.503   1.686  -1.045
    1   AR   Ar   69   2.852   0.883   1.140
    1   AR   Ar   70   0.536   0.072   2.386
    1   AR   Ar   71   3.172   1.434   3.942
    1   AR   Ar   72   4.297   0.083   1.782
    1   AR   Ar   73   3.925   0.564   3.401
    1   AR   Ar   74   1.949   0.708   4.483
    1   AR   Ar   75   3.821   0.909   4.671
    1   AR   Ar   76   1.826   0.492   1.757
    1   AR   Ar   77   2.370   6.752   5.439
    1   AR   Ar   78   0.495   6.750   5.892
    1   AR   Ar   79   3.076   5.926   5.918
    1   AR   Ar   80   4.328   4.986   5.942
    1   AR   Ar   81   2.508   5.965  -0.477
    1   AR   Ar   82   6.830   5.630  -0.176
    1   AR   Ar   83   0.732   2.651   0.607
    1   AR   Ar   84   0.154   3.940   1.174
    1   AR   Ar   85   1.239   3.465   0.935
    1   AR   Ar   86   1.721   4.816   0.079
    1   AR   Ar   87   1.548   2.469   1.251
    1   AR   Ar   88   2.114   4.897   1.044
    1   AR   Ar   89   0.634   3.152   2.933
    1   AR   Ar   90   1.911   2.726   4.333
    1   AR   Ar   91   1.364   2.408   3.422
    1   AR   Ar   92   1.345   2.440   2.356
    1   AR   Ar   93   1.545   0.713   5.932
    1   AR   Ar   94   0.366   6.919  11.281
    1   AR   Ar   95   3.533   1.222   6.257
    1   AR   Ar   96   2.887   0.362   4.921
    1   AR   Ar   97   4.967   1.641  -0.344
    1   AR   Ar   98   2.310   5.181   2.622
    1   AR   Ar   99   6.070   1.385  -0.697
    1   AR   Ar  100   1.494   3.171  -0.452
    1   AR   Ar  101   3.479   4.568   0.955
    1   AR   Ar  102   3.595   2.483   3.453
    1   AR   Ar  103   1.118   5.002   1.323
    1   AR   Ar  104   3.139   4.112  -1.561
    1   AR   Ar  105   0.813   3.283   3.917
    1   AR   Ar  106   3.091   3.081   5.373
    1   AR   Ar  107   0.666   4.229   4.714
    1   AR   Ar  108   3.046   2.382   4.303
    1   AR   Ar  109   2.025   4.486   4.431
    1   AR   Ar  110   1.337   3.751   5.395
    1   AR   Ar  111   4.730   4.405   7.632
    1   AR   Ar  112   1.593   6.050   6.117
    1   AR   Ar  113   2.901   5.054   0.056
    1   AR   Ar  114   2.518   0.017  -0.971
    1   AR   Ar  115   2.148   5.132  -1.147
    1   AR   Ar  116   5.608   6.924  -0.599
    1   AR   Ar  117   1.176   5.062   4.123
    1   AR   Ar  118   1.483   5.780   3.284
    1   AR   Ar  119   2.290   2.987   3.149
    1   AR   Ar  120   2.110   6.627   2.034
    1   AR   Ar  121   5.810   4.560   5.650
    1   AR   Ar  122   2.871   6.444   4.633
    1   AR   Ar  123   3.717   4.181   4.757
    1   AR   Ar  124   1.581   5.904   1.573
    1   AR   Ar  125   6.902   3.836   4.989
    1   AR   Ar  126   0.022   6.300   4.448
    1   AR   Ar  127   3.835   4.009   6.426
    1   AR   Ar  128   3.386   4.946   6.515
    1   AR   Ar  129   2.473   6.211   3.239
    1   AR   Ar  130   4.310   3.281  -2.116
    1   AR   Ar  131   3.939   1.430   0.000
    1   AR   Ar  132   6.938   2.320  -0.817
    1   AR   Ar  133   4.534   6.132   2.765
    1   AR   Ar  134   4.348   1.448   3.862
    1   AR   Ar  135   5.789   0.671   2.698
    1   AR   Ar  136   5.150   6.817   2.199
    1   AR   Ar  137   2.913   5.437   3.693
    1   AR   Ar  138   4.493   1.434   5.609
    1   AR   Ar  139   5.538   2.456   5.456
    1   AR   Ar  140   3.797   7.022   4.485
    1   AR   Ar  141   3.954   5.109   4.282
    1   AR   Ar  142   3.300   0.059   6.199
    1   AR   Ar  143   6.409   0.073   5.740
    1   AR   Ar  144   7.119   1.744   5.128
    1   AR   Ar  145   4.813   4.391  -0.188
    1   AR   Ar  146   3.239   2.148   2.104
    1   AR   Ar  147   5.094   1.529  -2.023
    1   AR   Ar  148   3.413   5.321  -1.242
    1   AR   Ar  149   2.985   2.008   0.700
    1   AR   Ar  150   2.594   1.293   2.424
    1   AR   Ar  151   2.572   2.081   3.473
    1   AR   Ar  152   3.397   2.803   0.103
    1   AR   Ar  153   4.755   0.109   3.946
    1   AR   Ar  154   4.171   2.028   4.870
    1   AR   Ar  155   6.787   0.218   6.821
    1   AR   Ar  156   3.901   3.379   3.856
    1   AR   Ar  157   1.598   3.617   6.886
    1   AR   Ar  158   0.514   2.710   6.974
    1   AR   Ar  159   4.782   1.770   7.172
    1   AR   Ar  160   2.178   1.870   5.124
    1   AR   Ar  161   5.338   3.546   2.302
    1   AR   Ar  162   4.698   6.090  -0.834
    1   AR   Ar  163   5.062   3.434   0.823
    1   AR   Ar  164   2.898   5.935   1.970
    1   AR   Ar  165   3.579   2.870   1.113
    1   AR   Ar  166   2.722   3.429   4.318
    1   AR   Ar  167   4.610   0.980   2.770
    1   AR   Ar  168   5.113   3.518  -0.988
    1   AR   Ar  169   3.083   3.531   2.357
    1   AR   Ar  170   2.600   4.212   5.862
    1   AR   Ar  171   6.058   3.867   4.382
    1   AR   Ar  172   4.816   4.560   5.084
    1   AR   Ar  173   2.907   3.649   7.155
    1   AR   Ar  174   2.617   5.664   6.775
    1   AR   Ar  175   2.482   2.633   6.284
    1   AR   Ar  176   3.869   2.179   6.120
    1   AR   Ar  177   7.084   4.771  -0.756
    1   AR   Ar  178   4.038   5.050  -0.367
    1   AR   Ar  179   4.148   5.832   0.456
    1   AR   Ar  180   1.209   1.311  -3.079
    1   AR   Ar  181   0.517   5.982   1.475
    1   AR   Ar  182   2.689   0.722   3.344
    1   AR   Ar  183   3.345   5.392   2.845
    1   AR   Ar  184   4.749   6.559   1.009
    1   AR   Ar  185   2.926   5.180   4.845
    1   AR   Ar  186   2.991   4.334   3.946
    1   AR   Ar  187   3.525   6.387   2.820
    1   AR   Ar  188   3.189   7.031   1.970
    1   AR   Ar  189   3.555   2.933   6.862
    1   AR   Ar  190   3.769   6.114   3.848
    1   AR   Ar  191   3.149   6.383   7.528
    1   AR   Ar  192   3.774   5.793   5.042
    1   AR   Ar  193   2.641   6.300   0.891
    1   AR   Ar  194   4.127   3.740  -1.047
    1   AR   Ar  195   5.736   1.070   0.383
    1   AR   Ar  196   4.530   0.368   0.203
    1   AR   Ar  197   3.859   0.804   0.968
    1   AR   Ar  198   6.233   1.572   1.567
    1   AR   Ar  199   3.743   1.599   3.002
    1   AR   Ar  200   5.451   2.739   0.072
    1   AR   Ar  201   5.818   5.909   4.111
    1   AR   Ar  202   5.631   1.986   4.354
    1   AR   Ar  203   6.429   6.212   3.270
    1   AR   Ar  204   4.570   6.508   5.149
    1   AR   Ar  205   6.653   0.144   2.110
    1   AR   Ar  206   5.008   0.896   4.555
    1   AR   Ar  207   0.882   1.693   6.293
    1   AR   Ar  208   6.895   0.164   3.493
    1   AR   Ar  209   6.746   2.721  -1.856
    1   AR   Ar  210   3.506   0.276   0.188
    1   AR   Ar  211   6.475   3.125   0.712
    1   AR   Ar  212   6.059   3.542  -1.601
    1   AR   Ar  213   3.681   0.846   2.000
    1   AR   Ar  214   4.325   3.015   2.872
    1   AR   Ar  215   5.682   2.687   1.431
    1   AR   Ar  216   0.711   3.248   1.832
    1   AR   Ar  217   5.102   3.258   4.633
    1   AR   Ar  218   4.305   3.283   5.159
    1   AR   Ar  219   4.794   2.464   3.773
    1   AR   Ar  220   4.279   4.098   2.160
    1   AR   Ar  221   5.574   6.509   5.107
    1   AR   Ar  222   4.538   0.640   6.594
    1   AR   Ar  223   7.001   1.349   6.379
    1   AR   Ar  224   4.589   2.825   6.402
    1   AR   Ar  225   6.385   2.819   2.619
    1   AR   Ar  226   1.885   3.865   3.625
    1   AR   Ar  227   6.384   3.566   1.795
    1   AR   Ar  228   6.050   6.411   2.033
    1   AR   Ar  229   5.326   4.655  -1.426
    1   AR   Ar  230   4.735   3.958   3.950
    1   AR   Ar  231   5.447   1.632   3.349
    1   AR   Ar  232   4.772   2.460   0.877
    1   AR   Ar  233   6.047   2.793   3.607
    1   AR   Ar  234   6.485   2.747   4.673
    1   AR   Ar  235   6.724   1.779   4.059
    1   AR   Ar  236   5.303   5.553   5.583
    1   AR   Ar  237   5.529   3.398   5.974
    1   AR   Ar  238   4.820   4.134   6.128
    1   AR   Ar  239   5.610   4.429   8.270
    1   AR   Ar  240   6.642   3.013   7.111
    1   AR   Ar  241   1.042   6.483  -0.424
    1   AR   Ar  242   5.641   4.907   0.144
    1   AR   Ar  243   5.352   4.560   2.536
    1   AR   Ar  244   0.725   5.434  -0.249
    1   AR   Ar  245   5.073   0.568   1.214
    1   AR   Ar  246   5.349   6.302   0.312
    1   AR   Ar  247   5.987   4.034   0.803
    1   AR   Ar  248   5.803   5.931  -0.528
    1   AR   Ar  249   3.807   6.034   1.666
    1   AR   Ar  250   4.787   5.646   4.591
    1   AR   Ar  251   5.627   4.937   3.946
    1   AR   Ar  252   4.558   5.354   3.410
    1   AR   Ar  253   6.487   3.703   6.074
    1   AR   Ar  254   2.275   2.180   9.561
    1   AR   Ar  255   3.981   3.210   8.900
    1   AR   Ar  256   6.516   4.817   3.427
    7.12000  7.12000 12.00000
Argon-slab step 3295
  256
    1   AR   Ar    1   6.331   1.667  -1.789
    1   AR   Ar    2   6.704   0.368   0.291
    1   AR   Ar    3   2.704   0.993  -0.145
    1   AR   Ar    4   1.297   0.630  -0.168
    1   AR   Ar    5   0.029   6.867   1.070
    1   AR   Ar    6   6.861   1.097   2.249
    1   AR   Ar    7   6.269   3.870   3.129
    1   AR   Ar    8   6.013   0.339   1.427
    1   AR   Ar    9   1.473   6.891   3.125
    1   AR   Ar   10   0.818   0.343   4.010
    1   AR   Ar   11   1.817   6.424   4.260
    1   AR   Ar   12   0.712   1.153   2.883
    1   AR   Ar   13   0.318   0.835   4.880
    1   AR   Ar   14   6.574   1.998   7.713
    1   AR   Ar   15   4.715   6.799   8.584
    1   AR   Ar   16   0.965   6.833   5.005
    1   AR   Ar   17   6.346   2.115   0.465
    1   AR   Ar   18   5.982   4.047  -0.487
    1   AR   Ar   19   2.308   3.150   0.999
    1   AR   Ar   20   4.287   4.428  -1.995
    1   AR   Ar   21   4.654   1.469   1.561
    1   AR   Ar   22   6.279   1.867   2.721
    1   AR   Ar   23   0.277   1.257  -0.447
    1   AR   Ar   24   6.874   2.624   1.606
    1   AR   Ar   25   0.729   1.801   3.977
    1   AR   Ar   26   5.721   0.154   4.202
    1   AR   Ar   27   1.639   0.924   3.365
    1   AR   Ar   28   0.847   2.600   5.224
    1   AR   Ar   29   5.462   2.901   6.938
    1   AR   Ar   30   1.904   1.673   4.107
    1   AR   Ar   31   3.674   0.620   7.245
    1   AR   Ar   32   1.295   2.692   6.216
    1   AR   Ar   33   1.171   4.594  -0.845
    1   AR   Ar   34   0.550   5.211   2.371
    1   AR   Ar   35   5.965   5.726   1.196
    1   AR   Ar   36   6.273   0.880  -4.243
    1   AR   Ar   37   5.340   2.360   2.380
    1   AR   Ar   38   0.062   3.994   2.504
    1   AR   Ar   39   1.279   3.943   2.706
    1   AR   Ar   40   2.368   4.226   1.826
    1   AR   Ar   41   7.006   2.759   3.784
    1   AR   Ar   42   6.191   5.297   4.940
    1   AR   Ar   43   6.561   2.687   6.007
    1   AR   Ar   44   0.616   4.516   3.424
    1   AR   Ar   45   0.484   3.388   6.071
    1   AR   Ar   46   0.026   5.569   5.523
    1   AR   Ar   47   5.464   4.089   6.980
    1   AR   Ar   48   7.042   5.881   6.415
    1   AR   Ar   49   5.245   0.827  -1.088
    1   AR   Ar   50   4.870   4.852   0.941
    1   AR   Ar   51   6.579   4.735   1.541
    1   AR   Ar   52   6.709   4.618  -1.892
    1   AR   Ar   53   5.475   5.672   2.888
    1   AR   Ar   54   7.086   6.313   2.392
    1   AR   Ar   55   6.481   5.521   2.400
    1   AR   Ar   56   7.002   1.188   0.984
    1   AR   Ar   57   5.253   3.398   3.437
    1   AR   Ar   58   7.014   4.141   4.002
    1   AR   Ar   59   2.255   5.556   5.521
    1   AR   Ar   60   0.576   6.155   3.649
    1   AR   Ar   61   6.870   4.651   6.106
    1   AR   Ar   62   0.038   5.253   4.447
    1   AR   Ar   63   1.890   0.960   7.044
    1   AR   Ar   64   1.217   5.790   4.968
    1   AR   Ar   65   3.624   6.738   1.028
    1   AR   Ar   66   0.790   1.007   1.794
    1   AR   Ar   67   3.599   6.674  -0.793
    1   AR   Ar   68   2.488   1.674  -1.047
    1   AR   Ar   69   2.831   0.848   1.129
    1   AR   Ar   70   0.538   0.120   2.384
    1   AR   Ar   71   3.191   1.445   3.929
    1   AR   Ar   72   4.294   0.069   1.780
    1   AR   Ar   73   3.922   0.587   3.390
    1   AR   Ar   74   1.945   0.707   4.519
    1   AR   Ar   75   3.833   0.895   4.691
    1   AR   Ar   76   1.865   0.468   1.735
    1   AR   Ar   77   2.340   6.737   5.462
    1   AR   Ar   78   0.496   6.698   5.879
    1   AR   Ar   79   3.089   5.930   5.914
    1   AR   Ar   80   4.319   4.980   5.925
    1   AR   Ar   81   2.485   5.973  -0.519
    1   AR   Ar   82   6.815   5.615  -0.158
    1   AR   Ar   83   0.707   2.647   0.637
    1   AR   Ar   84   0.155   3.934   1.166
    1   AR   Ar   85   1.248   3.496   0.924
    1   AR   Ar   86   1.727   4.823   0.112
    1   AR   Ar   87   1.529   2.505   1.219
    1   AR   Ar   88   2.077   4.888   1.033
    1   AR   Ar   89   0.634   3.173   2.909
    1   AR   Ar   90   1.891   2.726   4.313
    1   AR   Ar   91   1.382   2.448   3.482
    1   AR   Ar   92   1.348   2.440   2.334
    1   AR   Ar   93   1.509   0.721   5.949
    1   AR   Ar   94   0.367   6.924  11.301
    1   AR   Ar   95   3.546   1.178   6.244
    1   AR   Ar   96   2.888   0.371   4.933
    1   AR   Ar   97   4.959   1.664  -0.329
    1   AR   Ar   98   2.329   5.219   2.625
    1   AR   Ar   99   6.095   1.366  -0.710
    1   AR   Ar  100   1.499   3.173  -0.488
    1   AR   Ar  101   3.503   4.569   1.000
    1   AR   Ar  102   3.614   2.512   3.466
    1   AR   Ar  103   1.139   4.998   1.337
    1   AR   Ar  104   3.137   4.109  -1.566
    1   AR   Ar  105   0.832   3.278   3.892
    1   AR   Ar  106   3.087   3.077   5.376
    1   AR   Ar  107   0.638   4.249   4.736
    1   AR   Ar  108   3.024   2.415   4.308
    1   AR   Ar  109   2.021   4.496   4.428
    1   AR   Ar  110   1.350   3.699   5.372
    1   AR   Ar  111   4.704   4.420   7.648
    1   AR   Ar  112   1.576   6.056   6.085
    1   AR   Ar  113   2.929   5.042   0.086
    1   AR   Ar  114   2.544   0.033  -0.953
    1   AR   Ar  115   2.159   5.132  -1.128
    1   AR   Ar  116   5.605   6.978  -0.600
    1   AR   Ar  117   1.176   5.046   4.142
    1   AR   Ar  118   1.510   5.740   3.257
    1   AR   Ar  119   2.283   3.004   3.126
    1   AR   Ar  120   2.092   6.628   2.013
    1   AR   Ar  121   5.793   4.562   5.648
    1   AR   Ar  122   2.853   6.433   4.618
    1   AR   Ar  123   3.718   4.169   4.760
    1   AR   Ar  124   1.591   5.888   1.579
    1   AR   Ar  125   6.902   3.813   4.998
    1   AR   Ar  126   0.022   6.306   4.485
    1   AR   Ar  127   3.868   4.018   6.452
    1   AR   Ar  128   3.349   4.922   6.543
    1   AR   Ar  129   2.499   6.231   3.236
    1   AR   Ar  130   4.319   3.279  -2.098
    1   AR   Ar  131   3.927   1.456  -0.003
    1   AR   Ar  132   6.935   2.329  -0.816
    1   AR   Ar  133   4.500   6.129   2.748
    1   AR   Ar  134   4.334   1.464   3.826
    1   AR   Ar  135   5.798   0.720   2.709
    1   AR   Ar  136   5.170   6.794   2.208
    1   AR   Ar  137   2.885   5.451   3.654
    1   AR   Ar  138   4.488   1.410   5.598
    1   AR   Ar  139   5.543   2.453   5.464
    1   AR   Ar  140   3.808   7.027   4.479
    1   AR   Ar  141   3.934   5.097   4.265
    1   AR   Ar  142   3.297   0.057   6.184
    1   AR   Ar  143   6.393   0.066   5.732
    1   AR   Ar  144   7.090   1.752   5.089
    1   AR   Ar  145   4.835   4.388  -0.191
    1   AR   Ar  146   3.226   2.156   2.102
    1   AR   Ar  147   5.086   1.528  -2.025
    1   AR   Ar  148   3.410   5.369  -1.245
    1   AR   Ar  149   2.953   2.005   0.701
    1   AR   Ar  150   2.605   1.275   2.466
    1   AR   Ar  151   2.590   2.084   3.437
    1   AR   Ar  152   3.377   2.805   0.057
    1   AR   Ar  153   4.772   0.079   3.926
    1   AR   Ar  154   4.181   2.048   4.863
    1   AR   Ar  155   6.790   0.214   6.799
    1   AR   Ar  156   3.878   3.369   3.845
    1   AR   Ar  157   1.575   3.617   6.884
    1   AR   Ar  158   0.520   2.728   6.960
    1   AR   Ar  159   4.800   1.739   7.165
    1   AR   Ar  160   2.157   1.877   5.135
    1   AR   Ar  161   5.350   3.555   2.306
    1   AR   Ar  162   4.726   6.074  -0.796
    1   AR   Ar  163   5.086   3.413   0.811
    1   AR   Ar  164   2.887   5.938   2.001
    1   AR   Ar  165   3.589   2.825   1.086
    1   AR   Ar  166   2.757   3.368   4.324
    1   AR   Ar  167   4.607   0.979   2.745
    1   AR   Ar  168   5.077   3.576  -1.003
    1   AR   Ar  169   3.101   3.542   2.406
    1   AR   Ar  170   2.611   4.217   5.877
    1   AR   Ar  171   6.084   3.850   4.375
    1   AR   Ar  172   4.802   4.569   5.115
    1   AR   Ar  173   2.902   3.612   7.164
    1   AR   Ar  174   2.632   5.685   6.777
    1   AR   Ar  175   2.495   2.617   6.284
    1   AR   Ar  176   3.834   2.151   6.093
    1   AR   Ar  177   7.068   4.797  -0.789
    1   AR   Ar  178   4.055   5.047  -0.373
    1   AR   Ar  179   4.164   5.859   0.453
    1   AR   Ar  180   1.217   1.290  -3.083
    1   AR   Ar  181   0.508   5.966   1.474
    1   AR   Ar  182   2.692   0.691   3.328
    1   AR   Ar  183   3.361   5.404   2.850
    1   AR   Ar  184   4.721   6.559   1.009
    1   AR   Ar  185   2.918   5.150   4.830
    1   AR   Ar  186   2.995   4.352   3.941
    1   AR   Ar  187   3.528   6.396   2.816
    1   AR   Ar  188   3.202   6.996   1.981
    1   AR   Ar  189   3.584   2.915   6.841
    1   AR   Ar  190   3.723   6.126   3.834
    1   AR   Ar  191   3.120   6.371   7.554
    1   AR   Ar  192   3.781   5.818   5.054
    1   AR   Ar  193   2.653   6.311   0.919
    1   AR   Ar  194   4.129   3.747  -1.012
    1   AR   Ar  195   5.783   1.058   0.383
    1   AR   Ar  196   4.526   0.369   0.221
    1   AR   Ar  197   3.836   0.825   0.980
    1   AR   Ar  198   6.257   1.551   1.613
    1   AR   Ar  199   3.745   1.657   2.960
    1   AR   Ar  200   5.463   2.695   0.065
    1   AR   Ar  201   5.790   5.896   4.110
    1   AR   Ar  202   5.662   1.983   4.376
    1   AR   Ar  203   6.429   6.246   3.295
    1   AR   Ar  204   4.559   6.548   5.171
    1   AR   Ar  205   6.660   0.116   2.119
    1   AR   Ar  206   5.021   0.927   4.540
    1   AR   Ar  207   0.862   1.687   6.246
    1   AR   Ar  208   6.860   0.164   3.484
    1   AR   Ar  209   6.722   2.698  -1.835
    1   AR   Ar  210   3.497   0.266   0.205
    1   AR   Ar  211   6.493   3.122   0.699
    1   AR   Ar  212   6.110   3.528  -1.592
    1   AR   Ar  213   3.687   0.816   1.996
    1   AR   Ar  214   4.330   3.005   2.886
    1   AR   Ar  215   5.726   2.721   1.459
    1   AR   Ar  216   0.676   3.270   1.830
    1   AR   Ar  217   5.128   3.272   4.609
    1   AR   Ar  218   4.313   3.280   5.147
    1   AR   Ar  219   4.770   2.445   3.764
    1   AR   Ar  220   4.272   4.102   2.150
    1   AR   Ar  221   5.596   6.493   5.147
    1   AR   Ar  222   4.556   0.629   6.571
    1   AR   Ar  223   6.969   1.344   6.360
    1   AR   Ar  224   4.621   2.842   6.399
    1   AR   Ar  225   6.384   2.817   2.648
    1   AR   Ar  226   1.896   3.890   3.646
    1   AR   Ar  227   6.406   3.552   1.836
    1   AR   Ar  228   6.057   6.405   2.000
    1   AR   Ar  229   5.301   4.658  -1.411
    1   AR   Ar  230   4.738   3.962   3.986
    1   AR   Ar  231   5.435   1.629   3.353
    1   AR   Ar  232   4.774   2.456   0.889
    1   AR   Ar  233   6.039   2.790   3.612
    1   AR   Ar  234   6.471   2.727   4.659
    1   AR   Ar  235   6.710   1.719   4.038
    1   AR   Ar  236   5.271   5.539   5.559
    1   AR   Ar  237   5.542   3.373   6.004
    1   AR   Ar  238   4.808   4.166   6.099
    1   AR   Ar  239   5.634   4.383   8.293
    1   AR   Ar  240   6.639   3.009   7.122
    1   AR   Ar  241   1.045   6.472  -0.441
    1   AR   Ar  242   5.653   4.888   0.126
    1   AR   Ar  243   5.338   4.542   2.546
    1   AR   Ar  244   0.744   5.436  -0.246
    1   AR   Ar  245   5.069   0.608   1.230
    1   AR   Ar  246   5.329   6.291   0.322
    1   AR   Ar  247   5.965   4.017   0.808
    1   AR   Ar  248   5.806   5.954  -0.537
    1   AR   Ar  249   3.809   6.030   1.670
    1   AR   Ar  250   4.774   5.643   4.569
    1   AR   Ar  251   5.588   4.911   3.963
    1   AR   Ar  252   4.582   5.353   3.406
    1   AR   Ar  253   6.458   3.669   6.058
    1   AR   Ar  254   2.226   2.163   9.583
    1   AR   Ar  255   3.970   3.245   8.920
    1   AR   Ar  256   6.538   4.817   3.396
    7.12000  7.12000 12.00000
Argon-slab step 3300
  256
    1   AR   Ar    1   6.297   1.699  -1.815
    1   AR   Ar    2   6.698   0.366   0.300
    1   AR   Ar    3   2.718   0.972  -0.166
    1   AR   Ar    4   1.291   0.642  -0.162
    1   AR   Ar    5   0.019   6.879   1.067
    1   AR   Ar    6   6.883   1.129   2.231
    1   AR   Ar    7   6.238   3.875   3.100
    1   AR   Ar    8   6.026   0.306   1.437
    1   AR   Ar    9   1.459   6.904   3.121
    1   AR   Ar   10   0.795   0.346   4.019
    1   AR   Ar   11   1.815   6.426   4.268
    1   AR   Ar   12   0.724   1.155   2.884
    1   AR   Ar   13   0.335   0.818   4.892
    1   AR   Ar   14   6.565   2.016   7.725
    1   AR   Ar   15   4.736   6.782   8.574
    1   AR   Ar   16   1.002   6.810   4.934
    1   AR   Ar   17   6.356   2.133   0.467
    1   AR   Ar   18   5.995   4.053  -0.472
    1   AR   Ar   19   2.331   3.158   0.997
    1   AR   Ar   20   4.294   4.415  -1.973
    1   AR   Ar   21   4.623   1.443   1.597
    1   AR   Ar   22   6.250   1.857   2.727
    1   AR   Ar   23   0.280   1.231  -0.421
    1   AR   Ar   24   6.825   2.591   1.611
    1   AR   Ar   25   0.704   1.830   3.998
    1   AR   Ar   26   5.760   0.129   4.244
    1   AR   Ar   27   1.634   0.925   3.355
    1   AR   Ar   28   0.834   2.620   5.214
    1   AR   Ar   29   5.445   2.905   6.934
    1   AR   Ar   30   1.892   1.672   4.108
    1   AR   Ar   31   3.645   0.650   7.248
    1   AR   Ar   32   1.302   2.700   6.247
    1   AR   Ar   33   1.189   4.616  -0.853
    1   AR   Ar   34   0.556   5.204   2.397
    1   AR   Ar   35   5.958   5.725   1.208
    1   AR   Ar   36   6.264   0.881  -4.217
    1   AR   Ar   37   5.341   2.380   2.376
    1   AR   Ar   38   0.086   3.989   2.460
    1   AR   Ar   39   1.259   3.968   2.698
    1   AR   Ar   40   2.355   4.191   1.833
    1   AR   Ar   41   6.993   2.761   3.755
    1   AR   Ar   42   6.163   5.280   4.913
    1   AR   Ar   43   6.575   2.679   6.025
    1   AR   Ar   44   0.637   4.470   3.443
    1   AR   Ar   45   0.491   3.406   6.087
    1   AR   Ar   46   0.007   5.583   5.495
    1   AR   Ar   47   5.467   4.064   6.985
    1   AR   Ar   48   7.053   5.887   6.398
    1   AR   Ar   49   5.225   0.828  -1.133
    1   AR   Ar   50   4.858   4.847   0.937
    1   AR   Ar   51   6.573   4.732   1.556
    1   AR   Ar   52   6.693   4.624  -1.905
    1   AR   Ar   53   5.491   5.677   2.859
    1   AR   Ar   54   7.081   6.304   2.384
    1   AR   Ar   55   6.483   5.519   2.406
    1   AR   Ar   56   6.977   1.180   0.975
    1   AR   Ar   57   5.269   3.414   3.435
    1   AR   Ar   58   7.045   4.107   4.011
    1   AR   Ar   59   2.251   5.538   5.487
    1   AR   Ar   60   0.552   6.147   3.640
    1   AR   Ar   61   6.900   4.658   6.099
    1   AR   Ar   62   0.016   5.223   4.424
    1   AR   Ar   63   1.872   0.958   7.047
    1   AR   Ar   64   1.210   5.801   4.985
    1   AR   Ar   65   3.627   6.739   1.062
    1   AR   Ar   66   0.781   1.001   1.796
    1   AR   Ar   67   3.601   6.696  -0.778
    1   AR   Ar   68   2.474   1.661  -1.048
    1   AR   Ar   69   2.805   0.812   1.118
    1   AR   Ar   70   0.546   0.169   2.385
    1   AR   Ar   71   3.200   1.432   3.920
    1   AR   Ar   72   4.293   0.048   1.776
    1   AR   Ar   73   3.912   0.606   3.383
    1   AR   Ar   74   1.939   0.702   4.554
    1   AR   Ar   75   3.847   0.890   4.711
    1   AR   Ar   76   1.903   0.450   1.713
    1   AR   Ar   77   2.306   6.721   5.490
    1   AR   Ar   78   0.491   6.645   5.875
    1   AR   Ar   79   3.074   5.942   5.914
    1   AR   Ar   80   4.298   4.990   5.909
    1   AR   Ar   81   2.492   5.986  -0.509
    1   AR   Ar   82   6.797   5.601  -0.137
    1   AR   Ar   83   0.674   2.642   0.664
    1   AR   Ar   84   0.154   3.927   1.156
    1   AR   Ar   85   1.259   3.533   0.913
    1   AR   Ar   86   1.729   4.830   0.133
    1   AR   Ar   87   1.513   2.536   1.193
    1   AR   Ar   88   2.031   4.869   1.011
    1   AR   Ar   89   0.629   3.187   2.881
    1   AR   Ar   90   1.949   2.711   4.266
    1   AR   Ar   91   1.399   2.486   3.532
    1   AR   Ar   92   1.351   2.442   2.313
    1   AR   Ar   93   1.473   0.730   5.964
    1   AR   Ar   94   0.370   6.918  11.323
    1   AR   Ar   95   3.558   1.128   6.231
    1   AR   Ar   96   2.908   0.360   4.921
    1   AR   Ar   97   4.954   1.687  -0.314
    1   AR   Ar   98   2.345   5.256   2.629
    1   AR   Ar   99   6.122   1.350  -0.722
    1   AR   Ar  100   1.504   3.177  -0.522
    1   AR   Ar  101   3.527   4.570   1.044
    1   AR   Ar  102   3.629   2.533   3.477
    1   AR   Ar  103   1.146   4.996   1.344
    1   AR   Ar  104   3.137   4.107  -1.571
    1   AR   Ar  105   0.849   3.282   3.885
    1   AR   Ar  106   3.085   3.072   5.379
    1   AR   Ar  107   0.621   4.275   4.757
    1   AR   Ar  108   3.003   2.431   4.313
    1   AR   Ar  109   2.020   4.511   4.435
    1   AR   Ar  110   1.362   3.646   5.351
    1   AR   Ar  111   4.677   4.435   7.665
    1   AR   Ar  112   1.553   6.067   6.055
    1   AR   Ar  113   2.931   5.042   0.090
    1   AR   Ar  114   2.565   0.040  -0.953
    1   AR   Ar  115   2.170   5.130  -1.108
    1   AR   Ar  116   5.601   7.037  -0.600
    1   AR   Ar  117   1.174   5.034   4.162
    1   AR   Ar  118   1.549   5.760   3.267
    1   AR   Ar  119   2.274   3.023   3.108
    1   AR   Ar  120   2.080   6.633   1.999
    1   AR   Ar  121   5.809   4.542   5.635
    1   AR   Ar  122   2.838   6.418   4.599
    1   AR   Ar  123   3.718   4.155   4.764
    1   AR   Ar  124   1.601   5.867   1.582
    1   AR   Ar  125   6.898   3.784   5.017
    1   AR   Ar  126   0.018   6.317   4.528
    1   AR   Ar  127   3.896   4.022   6.480
    1   AR   Ar  128   3.310   4.899   6.569
    1   AR   Ar  129   2.519   6.265   3.224
    1   AR   Ar  130   4.319   3.244  -2.121
    1   AR   Ar  131   3.913   1.480  -0.003
    1   AR   Ar  132   6.908   2.358  -0.775
    1   AR   Ar  133   4.469   6.130   2.727
    1   AR   Ar  134   4.318   1.482   3.796
    1   AR   Ar  135   5.807   0.770   2.719
    1   AR   Ar  136   5.184   6.776   2.218
    1   AR   Ar  137   2.848   5.452   3.647
    1   AR   Ar  138   4.482   1.405   5.614
    1   AR   Ar  139   5.544   2.494   5.458
    1   AR   Ar  140   3.794   7.010   4.453
    1   AR   Ar  141   3.910   5.082   4.244
    1   AR   Ar  142   3.295   0.054   6.169
    1   AR   Ar  143   6.378   0.058   5.724
    1   AR   Ar  144   7.057   1.770   5.052
    1   AR   Ar  145   4.855   4.378  -0.195
    1   AR   Ar  146   3.213   2.166   2.100
    1   AR   Ar  147   5.078   1.514  -2.029
    1   AR   Ar  148   3.407   5.417  -1.247
    1   AR   Ar  149   2.921   1.999   0.702
    1   AR   Ar  150   2.617   1.259   2.505
    1   AR   Ar  151   2.605   2.085   3.391
    1   AR   Ar  152   3.356   2.808   0.009
    1   AR   Ar  153   4.777   0.046   3.903
    1   AR   Ar  154   4.189   2.073   4.849
    1   AR   Ar  155   6.793   0.210   6.776
    1   AR   Ar  156   3.856   3.371   3.842
    1   AR   Ar  157   1.552   3.615   6.880
    1   AR   Ar  158   0.527   2.745   6.945
    1   AR   Ar  159   4.816   1.709   7.156
    1   AR   Ar  160   2.137   1.886   5.146
    1   AR   Ar  161   5.363   3.555   2.309
    1   AR   Ar  162   4.753   6.058  -0.757
    1   AR   Ar  163   5.111   3.399   0.799
    1   AR   Ar  164   2.862   5.926   2.014
    1   AR   Ar  165   3.601   2.780   1.063
    1   AR   Ar  166   2.791   3.320   4.331
    1   AR   Ar  167   4.609   0.980   2.716
    1   AR   Ar  168   5.060   3.631  -1.017
    1   AR   Ar  169   3.120   3.553   2.456
    1   AR   Ar  170   2.622   4.223   5.892
    1   AR   Ar  171   6.101   3.832   4.363
    1   AR   Ar  172   4.791   4.578   5.138
    1   AR   Ar  173   2.894   3.580   7.172
    1   AR   Ar  174   2.641   5.706   6.784
    1   AR   Ar  175   2.509   2.603   6.283
    1   AR   Ar  176   3.799   2.129   6.064
    1   AR   Ar  177   7.052   4.820  -0.824
    1   AR   Ar  178   4.069   5.045  -0.380
    1   AR   Ar  179   4.178   5.884   0.449
    1   AR   Ar  180   1.224   1.269  -3.087
    1   AR   Ar  181   0.522   5.956   1.491
    1   AR   Ar  182   2.667   0.683   3.324
    1   AR   Ar  183   3.393   5.408   2.832
    1   AR   Ar  184   4.682   6.568   1.025
    1   AR   Ar  185   2.913   5.117   4.811
    1   AR   Ar  186   3.015   4.381   3.927
    1   AR   Ar  187   3.525   6.414   2.810
    1   AR   Ar  188   3.209   6.973   1.994
    1   AR   Ar  189   3.616   2.894   6.817
    1   AR   Ar  190   3.678   6.138   3.822
    1   AR   Ar  191   3.090   6.409   7.547
    1   AR   Ar  192   3.783   5.832   5.042
    1   AR   Ar  193   2.664   6.320   0.949
    1   AR   Ar  194   4.114   3.758  -0.979
    1   AR   Ar  195   5.830   1.047   0.384
    1   AR   Ar  196   4.528   0.370   0.240
    1   AR   Ar  197   3.824   0.848   0.993
    1   AR   Ar  198   6.269   1.538   1.652
    1   AR   Ar  199   3.747   1.707   2.912
    1   AR   Ar  200   5.476   2.651   0.058
    1   AR   Ar  201   5.763   5.891   4.111
    1   AR   Ar  202   5.692   1.982   4.400
    1   AR   Ar  203   6.425   6.278   3.297
    1   AR   Ar  204   4.544   6.589   5.193
    1   AR   Ar  205   6.673   0.084   2.137
    1   AR   Ar  206   5.032   0.961   4.527
    1   AR   Ar  207   0.845   1.682   6.199
    1   AR   Ar  208   6.826   0.164   3.474
    1   AR   Ar  209   6.698   2.673  -1.814
    1   AR   Ar  210   3.480   0.254   0.215
    1   AR   Ar  211   6.513   3.120   0.687
    1   AR   Ar  212   6.158   3.517  -1.581
    1   AR   Ar  213   3.686   0.798   2.001
    1   AR   Ar  214   4.338   2.997   2.904
    1   AR   Ar  215   5.771   2.756   1.486
    1   AR   Ar  216   0.641   3.291   1.828
    1   AR   Ar  217   5.170   3.279   4.581
    1   AR   Ar  218   4.309   3.278   5.144
    1   AR   Ar  219   4.746   2.427   3.756
    1   AR   Ar  220   4.265   4.104   2.141
    1   AR   Ar  221   5.623   6.477   5.184
    1   AR   Ar  222   4.574   0.619   6.546
    1   AR   Ar  223   6.935   1.339   6.342
    1   AR   Ar  224   4.646   2.861   6.391
    1   AR   Ar  225   6.388   2.836   2.671
    1   AR   Ar  226   1.905   3.909   3.660
    1   AR   Ar  227   6.427   3.542   1.875
    1   AR   Ar  228   6.070   6.397   1.965
    1   AR   Ar  229   5.274   4.660  -1.394
    1   AR   Ar  230   4.726   3.990   4.034
    1   AR   Ar  231   5.421   1.626   3.356
    1   AR   Ar  232   4.772   2.444   0.902
    1   AR   Ar  233   6.021   2.778   3.598
    1   AR   Ar  234   6.471   2.728   4.663
    1   AR   Ar  235   6.695   1.661   4.016
    1   AR   Ar  236   5.237   5.524   5.534
    1   AR   Ar  237   5.538   3.347   6.030
    1   AR   Ar  238   4.816   4.169   6.083
    1   AR   Ar  239   5.658   4.337   8.316
    1   AR   Ar  240   6.632   3.006   7.131
    1   AR   Ar  241   1.050   6.463  -0.458
    1   AR   Ar  242   5.665   4.879   0.122
    1   AR   Ar  243   5.326   4.531   2.560
    1   AR   Ar  244   0.764   5.436  -0.242
    1   AR   Ar  245   5.059   0.643   1.241
    1   AR   Ar  246   5.314   6.313   0.310
    1   AR   Ar  247   5.943   4.004   0.813
    1   AR   Ar  248   5.811   5.970  -0.548
    1   AR   Ar  249   3.828   6.018   1.680
    1   AR   Ar  250   4.761   5.637   4.543
    1   AR   Ar  251   5.546   4.878   3.979
    1   AR   Ar  252   4.577   5.350   3.424
    1   AR   Ar  253   6.443   3.648   6.043
    1   AR   Ar  254   2.177   2.147   9.605
    1   AR   Ar  255   3.960   3.280   8.941
    1   AR   Ar  256   6.559   4.828   3.363
    7.12000  7.12000 12.00000
Argon-slab step 3305
  256
    1   AR   Ar    1   6.261   1.728  -1.840
    1   AR   Ar    2   6.690   0.364   0.307
    1   AR   Ar    3   2.732   0.951  -0.187
    1   AR   Ar    4   1.286   0.653  -0.156
    1   AR   Ar    5   0.007   6.891   1.067
    1   AR   Ar    6   6.924   1.149   2.229
    1   AR   Ar    7   6.205   3.874   3.070
    1   AR   Ar    8   6.035   0.276   1.437
    1   AR   Ar    9   1.444   6.917   3.117
    1   AR   Ar   10   0.773   0.348   4.026
    1   AR   Ar   11   1.812   6.428   4.273
    1   AR   Ar   12   0.731   1.159   2.885
    1   AR   Ar   13   0.353   0.797   4.905
    1   AR   Ar   14   6.556   2.035   7.736
    1   AR   Ar   15   4.758   6.765   8.564
    1   AR   Ar   16   1.039   6.793   4.862
    1   AR   Ar   17   6.366   2.142   0.470
    1   AR   Ar   18   6.006   4.057  -0.459
    1   AR   Ar   19   2.358   3.167   0.994
    1   AR   Ar   20   4.300   4.401  -1.948
    1   AR   Ar   21   4.585   1.429   1.640
    1   AR   Ar   22   6.221   1.837   2.735
    1   AR   Ar   23   0.281   1.206  -0.394
    1   AR   Ar   24   6.779   2.556   1.616
    1   AR   Ar   25   0.678   1.857   4.021
    1   AR   Ar   26   5.804   0.103   4.286
    1   AR   Ar   27   1.630   0.925   3.346
    1   AR   Ar   28   0.819   2.640   5.204
    1   AR   Ar   29   5.441   2.908   6.945
    1   AR   Ar   30   1.880   1.669   4.108
    1   AR   Ar   31   3.619   0.678   7.251
    1   AR   Ar   32   1.315   2.708   6.273
    1   AR   Ar   33   1.207   4.638  -0.860
    1   AR   Ar   34   0.562   5.198   2.424
    1   AR   Ar   35   5.959   5.732   1.202
    1   AR   Ar   36   6.255   0.883  -4.191
    1   AR   Ar   37   5.346   2.351   2.387
    1   AR   Ar   38   0.109   3.988   2.417
    1   AR   Ar   39   1.244   3.996   2.688
    1   AR   Ar   40   2.351   4.156   1.823
    1   AR   Ar   41   6.995   2.764   3.723
    1   AR   Ar   42   6.160   5.261   4.908
    1   AR   Ar   43   6.591   2.657   6.041
    1   AR   Ar   44   0.666   4.427   3.453
    1   AR   Ar   45   0.497   3.425   6.100
    1   AR   Ar   46   7.110   5.591   5.446
    1   AR   Ar   47   5.470   4.036   6.989
    1   AR   Ar   48   7.061   5.897   6.401
    1   AR   Ar   49   5.205   0.829  -1.178
    1   AR   Ar   50   4.847   4.841   0.931
    1   AR   Ar   51   6.568   4.730   1.572
    1   AR   Ar   52   6.677   4.629  -1.917
    1   AR   Ar   53   5.507   5.683   2.830
    1   AR   Ar   54   7.087   6.299   2.379
    1   AR   Ar   55   6.480   5.505   2.414
    1   AR   Ar   56   6.947   1.178   0.956
    1   AR   Ar   57   5.283   3.428   3.424
    1   AR   Ar   58   7.068   4.067   4.021
    1   AR   Ar   59   2.240   5.517   5.450
    1   AR   Ar   60   0.529   6.139   3.629
    1   AR   Ar   61   6.930   4.666   6.091
    1   AR   Ar   62   7.116   5.190   4.398
    1   AR   Ar   63   1.854   0.960   7.048
    1   AR   Ar   64   1.208   5.792   4.984
    1   AR   Ar   65   3.628   6.751   1.083
    1   AR   Ar   66   0.773   0.999   1.794
    1   AR   Ar   67   3.613   6.705  -0.758
    1   AR   Ar   68   2.473   1.660  -1.031
    1   AR   Ar   69   2.776   0.776   1.109
    1   AR   Ar   70   0.557   0.215   2.390
    1   AR   Ar   71   3.214   1.416   3.913
    1   AR   Ar   72   4.297   0.023   1.775
    1   AR   Ar   73   3.895   0.614   3.368
    1   AR   Ar   74   1.932   0.695   4.590
    1   AR   Ar   75   3.863   0.892   4.732
    1   AR   Ar   76   1.939   0.441   1.689
    1   AR   Ar   77   2.271   6.704   5.520
    1   AR   Ar   78   0.487   6.591   5.871
    1   AR   Ar   79   3.059   5.960   5.911
    1   AR   Ar   80   4.265   5.014   5.895
    1   AR   Ar   81   2.500   5.999  -0.499
    1   AR   Ar   82   6.776   5.589  -0.114
    1   AR   Ar   83   0.630   2.637   0.686
    1   AR   Ar   84   0.151   3.922   1.146
    1   AR   Ar   85   1.269   3.574   0.902
    1   AR   Ar   86   1.721   4.836   0.123
    1   AR   Ar   87   1.503   2.562   1.174
    1   AR   Ar   88   2.016   4.848   1.011
    1   AR   Ar   89   0.620   3.192   2.854
    1   AR   Ar   90   2.035   2.699   4.230
    1   AR   Ar   91   1.405   2.517   3.559
    1   AR   Ar   92   1.352   2.445   2.294
    1   AR   Ar   93   1.437   0.738   5.979
    1   AR   Ar   94   0.371   6.893  11.349
    1   AR   Ar   95   3.570   1.075   6.218
    1   AR   Ar   96   2.928   0.349   4.910
    1   AR   Ar   97   4.951   1.708  -0.298
    1   AR   Ar   98   2.357   5.291   2.635
    1   AR   Ar   99   6.150   1.334  -0.732
    1   AR   Ar  100   1.509   3.180  -0.556
    1   AR   Ar  101   3.550   4.572   1.089
    1   AR   Ar  102   3.635   2.534   3.483
    1   AR   Ar  103   1.135   5.015   1.315
    1   AR   Ar  104   3.138   4.106  -1.576
    1   AR   Ar  105   0.849   3.305   3.923
    1   AR   Ar  106   3.083   3.068   5.382
    1   AR   Ar  107   0.614   4.305   4.778
    1   AR   Ar  108   2.987   2.385   4.283
    1   AR   Ar  109   2.025   4.530   4.453
    1   AR   Ar  110   1.375   3.591   5.329
    1   AR   Ar  111   4.649   4.450   7.682
    1   AR   Ar  112   1.528   6.080   6.026
    1   AR   Ar  113   2.917   5.050   0.076
    1   AR   Ar  114   2.584   0.040  -0.964
    1   AR   Ar  115   2.174   5.112  -1.096
    1   AR   Ar  116   5.596   7.096  -0.599
    1   AR   Ar  117   1.169   5.027   4.181
    1   AR   Ar  118   1.588   5.779   3.278
    1   AR   Ar  119   2.262   3.037   3.097
    1   AR   Ar  120   2.073   6.637   1.994
    1   AR   Ar  121   5.833   4.515   5.621
    1   AR   Ar  122   2.827   6.400   4.579
    1   AR   Ar  123   3.719   4.139   4.769
    1   AR   Ar  124   1.612   5.845   1.584
    1   AR   Ar  125   6.901   3.797   5.010
    1   AR   Ar  126   0.012   6.329   4.575
    1   AR   Ar  127   3.919   4.022   6.510
    1   AR   Ar  128   3.272   4.877   6.593
    1   AR   Ar  129   2.534   6.311   3.205
    1   AR   Ar  130   4.316   3.202  -2.153
    1   AR   Ar  131   3.898   1.503  -0.002
    1   AR   Ar  132   6.880   2.385  -0.733
    1   AR   Ar  133   4.447   6.129   2.703
    1   AR   Ar  134   4.319   1.470   3.802
    1   AR   Ar  135   5.819   0.810   2.726
    1   AR   Ar  136   5.192   6.762   2.230
    1   AR   Ar  137   2.808   5.441   3.660
    1   AR   Ar  138   4.478   1.398   5.631
    1   AR   Ar  139   5.545   2.532   5.448
    1   AR   Ar  140   3.764   6.980   4.413
    1   AR   Ar  141   3.883   5.067   4.223
    1   AR   Ar  142   3.291   0.050   6.152
    1   AR   Ar  143   6.363   0.049   5.715
    1   AR   Ar  144   7.024   1.793   5.016
    1   AR   Ar  145   4.872   4.361  -0.202
    1   AR   Ar  146   3.199   2.175   2.097
    1   AR   Ar  147   5.070   1.501  -2.034
    1   AR   Ar  148   3.403   5.464  -1.247
    1   AR   Ar  149   2.889   1.992   0.702
    1   AR   Ar  150   2.629   1.249   2.537
    1   AR   Ar  151   2.617   2.057   3.373
    1   AR   Ar  152   3.334   2.810  -0.041
    1   AR   Ar  153   4.776   0.012   3.878
    1   AR   Ar  154   4.195   2.100   4.832
    1   AR   Ar  155   6.796   0.207   6.752
    1   AR   Ar  156   3.839   3.395   3.851
    1   AR   Ar  157   1.529   3.613   6.874
    1   AR   Ar  158   0.533   2.759   6.933
    1   AR   Ar  159   4.833   1.679   7.146
    1   AR   Ar  160   2.118   1.896   5.157
    1   AR   Ar  161   5.377   3.546   2.310
    1   AR   Ar  162   4.778   6.043  -0.715
    1   AR   Ar  163   5.134   3.388   0.787
    1   AR   Ar  164   2.835   5.916   2.028
    1   AR   Ar  165   3.613   2.735   1.043
    1   AR   Ar  166   2.819   3.313   4.336
    1   AR   Ar  167   4.614   0.983   2.683
    1   AR   Ar  168   5.064   3.683  -1.032
    1   AR   Ar  169   3.138   3.563   2.506
    1   AR   Ar  170   2.628   4.220   5.883
    1   AR   Ar  171   6.110   3.813   4.348
    1   AR   Ar  172   4.783   4.584   5.147
    1   AR   Ar  173   2.883   3.549   7.180
    1   AR   Ar  174   2.645   5.726   6.799
    1   AR   Ar  175   2.495   2.595   6.269
    1   AR   Ar  176   3.764   2.110   6.033
    1   AR   Ar  177   7.036   4.842  -0.860
    1   AR   Ar  178   4.072   5.042  -0.385
    1   AR   Ar  179   4.190   5.905   0.442
    1   AR   Ar  180   1.232   1.248  -3.092
    1   AR   Ar  181   0.535   5.946   1.510
    1   AR   Ar  182   2.626   0.687   3.334
    1   AR   Ar  183   3.435   5.406   2.805
    1   AR   Ar  184   4.642   6.582   1.051
    1   AR   Ar  185   2.913   5.083   4.789
    1   AR   Ar  186   3.024   4.397   3.956
    1   AR   Ar  187   3.514   6.441   2.806
    1   AR   Ar  188   3.207   6.970   2.009
    1   AR   Ar  189   3.650   2.873   6.791
    1   AR   Ar  190   3.635   6.146   3.812
    1   AR   Ar  191   3.059   6.448   7.539
    1   AR   Ar  192   3.781   5.838   5.014
    1   AR   Ar  193   2.672   6.329   0.981
    1   AR   Ar  194   4.086   3.775  -0.957
    1   AR   Ar  195   5.876   1.036   0.386
    1   AR   Ar  196   4.525   0.354   0.265
    1   AR   Ar  197   3.821   0.874   1.002
    1   AR   Ar  198   6.259   1.538   1.677
    1   AR   Ar  199   3.757   1.707   2.908
    1   AR   Ar  200   5.490   2.607   0.050
    1   AR   Ar  201   5.735   5.890   4.112
    1   AR   Ar  202   5.721   1.982   4.422
    1   AR   Ar  203   6.416   6.305   3.295
    1   AR   Ar  204   4.529   6.630   5.214
    1   AR   Ar  205   6.692   0.085   2.143
    1   AR   Ar  206   5.042   0.997   4.513
    1   AR   Ar  207   0.828   1.677   6.150
    1   AR   Ar  208   6.793   0.164   3.464
    1   AR   Ar  209   6.679   2.648  -1.795
    1   AR   Ar  210   3.459   0.241   0.221
    1   AR   Ar  211   6.535   3.123   0.677
    1   AR   Ar  212   6.202   3.513  -1.567
    1   AR   Ar  213   3.678   0.792   2.016
    1   AR   Ar  214   4.351   2.993   2.917
    1   AR   Ar  215   5.815   2.791   1.509
    1   AR   Ar  216   0.608   3.307   1.826
    1   AR   Ar  217   5.222   3.278   4.554
    1   AR   Ar  218   4.301   3.275   5.144
    1   AR   Ar  219   4.724   2.415   3.749
    1   AR   Ar  220   4.260   4.106   2.133
    1   AR   Ar  221   5.653   6.462   5.219
    1   AR   Ar  222   4.590   0.610   6.520
    1   AR   Ar  223   6.930   1.335   6.332
    1   AR   Ar  224   4.656   2.878   6.372
    1   AR   Ar  225   6.396   2.866   2.685
    1   AR   Ar  226   1.912   3.921   3.666
    1   AR   Ar  227   6.447   3.536   1.911
    1   AR   Ar  228   6.087   6.386   1.932
    1   AR   Ar  229   5.273   4.657  -1.381
    1   AR   Ar  230   4.710   4.018   4.058
    1   AR   Ar  231   5.404   1.624   3.361
    1   AR   Ar  232   4.783   2.420   0.905
    1   AR   Ar  233   6.025   2.777   3.603
    1   AR   Ar  234   6.473   2.736   4.675
    1   AR   Ar  235   6.679   1.604   3.993
    1   AR   Ar  236   5.203   5.508   5.510
    1   AR   Ar  237   5.539   3.336   6.034
    1   AR   Ar  238   4.846   4.139   6.086
    1   AR   Ar  239   5.681   4.290   8.337
    1   AR   Ar  240   6.621   3.004   7.139
    1   AR   Ar  241   1.055   6.454  -0.474
    1   AR   Ar  242   5.673   4.884   0.140
    1   AR   Ar  243   5.313   4.527   2.578
    1   AR   Ar  244   0.786   5.435  -0.237
    1   AR   Ar  245   5.051   0.668   1.245
    1   AR   Ar  246   5.304   6.333   0.291
    1   AR   Ar  247   5.925   3.997   0.820
    1   AR   Ar  248   5.820   5.983  -0.561
    1   AR   Ar  249   3.855   5.997   1.699
    1   AR   Ar  250   4.766   5.634   4.546
    1   AR   Ar  251   5.503   4.841   3.995
    1   AR   Ar  252   4.567   5.346   3.448
    1   AR   Ar  253   6.446   3.647   6.029
    1   AR   Ar  254   2.201   2.144   9.589
    1   AR   Ar  255   3.950   3.315   8.961
    1   AR   Ar  256   6.581   4.844   3.330
    7.12000  7.12000 12.00000
Argon-slab step 3310
  256
    1   AR   Ar    1   6.220   1.750  -1.863
    1   AR   Ar    2   6.683   0.362   0.311
    1   AR   Ar    3   2.746   0.931  -0.206
    1   AR   Ar    4   1.285   0.663  -0.145
    1   AR   Ar    5   7.116   6.902   1.072
    1   AR   Ar    6   6.980   1.160   2.241
    1   AR   Ar    7   6.173   3.873   3.040
    1   AR   Ar    8   6.037   0.248   1.428
    1   AR   Ar    9   1.429   6.929   3.114
    1   AR   Ar   10   0.753   0.349   4.029
    1   AR   Ar   11   1.811   6.427   4.273
    1   AR   Ar   12   0.735   1.165   2.887
    1   AR   Ar   13   0.371   0.776   4.918
    1   AR   Ar   14   6.547   2.055   7.745
    1   AR   Ar   15   4.779   6.748   8.554
    1   AR   Ar   16   1.071   6.784   4.792
    1   AR   Ar   17   6.377   2.144   0.473
    1   AR   Ar   18   6.017   4.060  -0.447
    1   AR   Ar   19   2.388   3.179   0.991
    1   AR   Ar   20   4.275   4.412  -1.963
    1   AR   Ar   21   4.540   1.425   1.688
    1   AR   Ar   22   6.196   1.815   2.743
    1   AR   Ar   23   0.280   1.180  -0.365
    1   AR   Ar   24   6.744   2.516   1.622
    1   AR   Ar   25   0.651   1.884   4.045
    1   AR   Ar   26   5.849   0.077   4.329
    1   AR   Ar   27   1.624   0.924   3.340
    1   AR   Ar   28   0.804   2.659   5.195
    1   AR   Ar   29   5.451   2.907   6.971
    1   AR   Ar   30   1.868   1.665   4.107
    1   AR   Ar   31   3.583   0.686   7.256
    1   AR   Ar   32   1.332   2.715   6.295
    1   AR   Ar   33   1.224   4.659  -0.868
    1   AR   Ar   34   0.567   5.192   2.450
    1   AR   Ar   35   5.963   5.739   1.179
    1   AR   Ar   36   6.246   0.885  -4.166
    1   AR   Ar   37   5.351   2.367   2.372
    1   AR   Ar   38   0.130   3.998   2.378
    1   AR   Ar   39   1.233   4.026   2.674
    1   AR   Ar   40   2.347   4.121   1.813
    1   AR   Ar   41   7.011   2.766   3.691
    1   AR   Ar   42   6.194   5.241   4.937
    1   AR   Ar   43   6.608   2.626   6.057
    1   AR   Ar   44   0.700   4.388   3.456
    1   AR   Ar   45   0.500   3.445   6.110
    1   AR   Ar   46   7.095   5.597   5.387
    1   AR   Ar   47   5.474   4.008   6.993
    1   AR   Ar   48   7.066   5.907   6.414
    1   AR   Ar   49   5.205   0.819  -1.188
    1   AR   Ar   50   4.836   4.836   0.925
    1   AR   Ar   51   6.562   4.726   1.588
    1   AR   Ar   52   6.661   4.633  -1.927
    1   AR   Ar   53   5.522   5.690   2.803
    1   AR   Ar   54   7.083   6.304   2.375
    1   AR   Ar   55   6.506   5.528   2.414
    1   AR   Ar   56   6.918   1.177   0.936
    1   AR   Ar   57   5.292   3.445   3.409
    1   AR   Ar   58   7.083   4.023   4.029
    1   AR   Ar   59   2.225   5.496   5.412
    1   AR   Ar   60   0.507   6.130   3.616
    1   AR   Ar   61   6.959   4.673   6.081
    1   AR   Ar   62   7.098   5.157   4.370
    1   AR   Ar   63   1.836   0.963   7.049
    1   AR   Ar   64   1.206   5.778   4.985
    1   AR   Ar   65   3.624   6.770   1.094
    1   AR   Ar   66   0.768   1.001   1.785
    1   AR   Ar   67   3.633   6.707  -0.732
    1   AR   Ar   68   2.476   1.661  -1.009
    1   AR   Ar   69   2.761   0.783   1.109
    1   AR   Ar   70   0.572   0.253   2.401
    1   AR   Ar   71   3.232   1.394   3.908
    1   AR   Ar   72   4.300   0.003   1.785
    1   AR   Ar   73   3.869   0.609   3.338
    1   AR   Ar   74   1.923   0.687   4.624
    1   AR   Ar   75   3.882   0.897   4.752
    1   AR   Ar   76   1.972   0.445   1.663
    1   AR   Ar   77   2.236   6.688   5.547
    1   AR   Ar   78   0.485   6.541   5.862
    1   AR   Ar   79   3.051   5.982   5.901
    1   AR   Ar   80   4.225   5.044   5.887
    1   AR   Ar   81   2.510   6.013  -0.489
    1   AR   Ar   82   6.755   5.578  -0.090
    1   AR   Ar   83   0.577   2.635   0.706
    1   AR   Ar   84   0.145   3.920   1.132
    1   AR   Ar   85   1.279   3.618   0.891
    1   AR   Ar   86   1.703   4.844   0.086
    1   AR   Ar   87   1.498   2.585   1.161
    1   AR   Ar   88   2.033   4.825   1.031
    1   AR   Ar   89   0.609   3.189   2.835
    1   AR   Ar   90   2.123   2.693   4.211
    1   AR   Ar   91   1.406   2.521   3.556
    1   AR   Ar   92   1.354   2.450   2.276
    1   AR   Ar   93   1.401   0.746   5.993
    1   AR   Ar   94   0.365   6.896  11.350
    1   AR   Ar   95   3.583   1.022   6.204
    1   AR   Ar   96   2.947   0.338   4.900
    1   AR   Ar   97   4.949   1.728  -0.282
    1   AR   Ar   98   2.363   5.320   2.647
    1   AR   Ar   99   6.177   1.319  -0.740
    1   AR   Ar  100   1.514   3.185  -0.589
    1   AR   Ar  101   3.574   4.575   1.133
    1   AR   Ar  102   3.633   2.520   3.486
    1   AR   Ar  103   1.096   5.029   1.292
    1   AR   Ar  104   3.141   4.106  -1.579
    1   AR   Ar  105   0.848   3.333   3.965
    1   AR   Ar  106   3.082   3.063   5.385
    1   AR   Ar  107   0.617   4.340   4.800
    1   AR   Ar  108   2.983   2.313   4.261
    1   AR   Ar  109   2.034   4.551   4.480
    1   AR   Ar  110   1.387   3.537   5.308
    1   AR   Ar  111   4.622   4.464   7.697
    1   AR   Ar  112   1.501   6.093   5.998
    1   AR   Ar  113   2.902   5.059   0.062
    1   AR   Ar  114   2.603   0.039  -0.973
    1   AR   Ar  115   2.190   5.113  -1.104
    1   AR   Ar  116   5.591   0.034  -0.595
    1   AR   Ar  117   1.161   5.025   4.198
    1   AR   Ar  118   1.603   5.783   3.288
    1   AR   Ar  119   2.250   3.053   3.086
    1   AR   Ar  120   2.071   6.639   1.998
    1   AR   Ar  121   5.857   4.486   5.608
    1   AR   Ar  122   2.819   6.379   4.560
    1   AR   Ar  123   3.720   4.122   4.775
    1   AR   Ar  124   1.628   5.824   1.585
    1   AR   Ar  125   6.901   3.803   5.014
    1   AR   Ar  126   0.006   6.341   4.623
    1   AR   Ar  127   3.938   4.019   6.542
    1   AR   Ar  128   3.233   4.855   6.616
    1   AR   Ar  129   2.546   6.364   3.184
    1   AR   Ar  130   4.314   3.161  -2.184
    1   AR   Ar  131   3.881   1.525   0.001
    1   AR   Ar  132   6.850   2.410  -0.689
    1   AR   Ar  133   4.433   6.125   2.677
    1   AR   Ar  134   4.321   1.456   3.811
    1   AR   Ar  135   5.837   0.807   2.728
    1   AR   Ar  136   5.196   6.752   2.244
    1   AR   Ar  137   2.767   5.424   3.680
    1   AR   Ar  138   4.475   1.388   5.647
    1   AR   Ar  139   5.546   2.562   5.432
    1   AR   Ar  140   3.736   6.951   4.375
    1   AR   Ar  141   3.888   5.057   4.229
    1   AR   Ar  142   3.287   0.043   6.135
    1   AR   Ar  143   6.350   0.040   5.706
    1   AR   Ar  144   6.992   1.819   4.981
    1   AR   Ar  145   4.886   4.339  -0.210
    1   AR   Ar  146   3.184   2.185   2.093
    1   AR   Ar  147   5.058   1.494  -2.030
    1   AR   Ar  148   3.398   5.511  -1.245
    1   AR   Ar  149   2.857   1.984   0.703
    1   AR   Ar  150   2.643   1.247   2.557
    1   AR   Ar  151   2.625   2.029   3.348
    1   AR   Ar  152   3.313   2.811  -0.091
    1   AR   Ar  153   4.774   7.099   3.853
    1   AR   Ar  154   4.201   2.127   4.812
    1   AR   Ar  155   6.801   0.203   6.726
    1   AR   Ar  156   3.825   3.435   3.868
    1   AR   Ar  157   1.505   3.610   6.868
    1   AR   Ar  158   0.533   2.758   6.931
    1   AR   Ar  159   4.848   1.649   7.133
    1   AR   Ar  160   2.098   1.907   5.168
    1   AR   Ar  161   5.392   3.528   2.309
    1   AR   Ar  162   4.799   6.027  -0.672
    1   AR   Ar  163   5.152   3.377   0.774
    1   AR   Ar  164   2.814   5.910   2.035
    1   AR   Ar  165   3.626   2.714   1.040
    1   AR   Ar  166   2.850   3.339   4.342
    1   AR   Ar  167   4.622   0.987   2.649
    1   AR   Ar  168   5.081   3.731  -1.049
    1   AR   Ar  169   3.157   3.572   2.557
    1   AR   Ar  170   2.634   4.215   5.867
    1   AR   Ar  171   6.118   3.812   4.321
    1   AR   Ar  172   4.778   4.587   5.142
    1   AR   Ar  173   2.872   3.519   7.185
    1   AR   Ar  174   2.644   5.745   6.820
    1   AR   Ar  175   2.495   2.590   6.240
    1   AR   Ar  176   3.730   2.096   5.999
    1   AR   Ar  177   7.021   4.863  -0.896
    1   AR   Ar  178   4.063   5.033  -0.389
    1   AR   Ar  179   4.199   5.922   0.431
    1   AR   Ar  180   1.239   1.227  -3.096
    1   AR   Ar  181   0.546   5.936   1.528
    1   AR   Ar  182   2.590   0.681   3.356
    1   AR   Ar  183   3.481   5.401   2.777
    1   AR   Ar  184   4.613   6.593   1.074
    1   AR   Ar  185   2.919   5.056   4.765
    1   AR   Ar  186   3.030   4.408   3.994
    1   AR   Ar  187   3.497   6.473   2.804
    1   AR   Ar  188   3.198   6.970   2.019
    1   AR   Ar  189   3.683   2.852   6.766
    1   AR   Ar  190   3.593   6.149   3.803
    1   AR   Ar  191   3.029   6.487   7.531
    1   AR   Ar  192   3.776   5.844   4.985
    1   AR   Ar  193   2.677   6.336   1.014
    1   AR   Ar  194   4.075   3.798  -0.984
    1   AR   Ar  195   5.888   1.026   0.393
    1   AR   Ar  196   4.520   0.325   0.297
    1   AR   Ar  197   3.824   0.901   1.007
    1   AR   Ar  198   6.230   1.548   1.688
    1   AR   Ar  199   3.722   1.722   2.895
    1   AR   Ar  200   5.504   2.566   0.043
    1   AR   Ar  201   5.708   5.893   4.111
    1   AR   Ar  202   5.747   1.982   4.444
    1   AR   Ar  203   6.407   6.329   3.291
    1   AR   Ar  204   4.515   6.671   5.234
    1   AR   Ar  205   6.709   0.106   2.143
    1   AR   Ar  206   5.051   1.033   4.499
    1   AR   Ar  207   0.812   1.674   6.100
    1   AR   Ar  208   6.762   0.167   3.453
    1   AR   Ar  209   6.666   2.623  -1.776
    1   AR   Ar  210   3.435   0.226   0.223
    1   AR   Ar  211   6.559   3.131   0.669
    1   AR   Ar  212   6.243   3.516  -1.550
    1   AR   Ar  213   3.666   0.795   2.039
    1   AR   Ar  214   4.368   2.992   2.925
    1   AR   Ar  215   5.848   2.827   1.528
    1   AR   Ar  216   0.581   3.316   1.819
    1   AR   Ar  217   5.275   3.269   4.529
    1   AR   Ar  218   4.291   3.272   5.145
    1   AR   Ar  219   4.707   2.393   3.720
    1   AR   Ar  220   4.255   4.107   2.125
    1   AR   Ar  221   5.683   6.445   5.252
    1   AR   Ar  222   4.605   0.604   6.495
    1   AR   Ar  223   6.930   1.330   6.324
    1   AR   Ar  224   4.651   2.895   6.344
    1   AR   Ar  225   6.404   2.892   2.692
    1   AR   Ar  226   1.933   3.893   3.656
    1   AR   Ar  227   6.465   3.537   1.941
    1   AR   Ar  228   6.108   6.379   1.904
    1   AR   Ar  229   5.273   4.657  -1.368
    1   AR   Ar  230   4.692   4.044   4.066
    1   AR   Ar  231   5.384   1.621   3.368
    1   AR   Ar  232   4.804   2.390   0.900
    1   AR   Ar  233   6.024   2.774   3.620
    1   AR   Ar  234   6.474   2.745   4.689
    1   AR   Ar  235   6.663   1.548   3.968
    1   AR   Ar  236   5.170   5.491   5.487
    1   AR   Ar  237   5.556   3.351   6.011
    1   AR   Ar  238   4.881   4.107   6.089
    1   AR   Ar  239   5.703   4.244   8.357
    1   AR   Ar  240   6.608   3.002   7.145
    1   AR   Ar  241   1.060   6.448  -0.490
    1   AR   Ar  242   5.686   4.896   0.161
    1   AR   Ar  243   5.302   4.530   2.598
    1   AR   Ar  244   0.787   5.411  -0.221
    1   AR   Ar  245   5.047   0.682   1.242
    1   AR   Ar  246   5.295   6.353   0.271
    1   AR   Ar  247   5.914   3.998   0.828
    1   AR   Ar  248   5.833   5.993  -0.575
    1   AR   Ar  249   3.887   5.970   1.725
    1   AR   Ar  250   4.770   5.631   4.548
    1   AR   Ar  251   5.460   4.802   4.011
    1   AR   Ar  252   4.558   5.341   3.473
    1   AR   Ar  253   6.466   3.661   6.015
    1   AR   Ar  254   2.244   2.145   9.564
    1   AR   Ar  255   3.940   3.350   8.981
    1   AR   Ar  256   6.604   4.863   3.298
    7.12000  7.12000 12.00000
Argon-slab step 3315
  256
    1   AR   Ar    1   6.182   1.761  -1.878
    1   AR   Ar    2   6.675   0.356   0.310
    1   AR   Ar    3   2.760   0.912  -0.225
    1   AR   Ar    4   1.301   0.665  -0.111
    1   AR   Ar    5   7.105   6.911   1.083
    1   AR   Ar    6   7.035   1.169   2.260
    1   AR   Ar    7   6.144   3.874   3.010
    1   AR   Ar    8   6.034   0.224   1.411
    1   AR   Ar    9   1.415   6.942   3.111
    1   AR   Ar   10   0.735   0.350   4.027
    1   AR   Ar   11   1.818   6.421   4.262
    1   AR   Ar   12   0.736   1.176   2.890
    1   AR   Ar   13   0.389   0.756   4.934
    1   AR   Ar   14   6.539   2.075   7.754
    1   AR   Ar   15   4.800   6.731   8.544
    1   AR   Ar   16   1.091   6.784   4.732
    1   AR   Ar   17   6.389   2.137   0.478
    1   AR   Ar   18   6.028   4.062  -0.436
    1   AR   Ar   19   2.419   3.191   0.988
    1   AR   Ar   20   4.250   4.422  -1.975
    1   AR   Ar   21   4.490   1.431   1.738
    1   AR   Ar   22   6.176   1.795   2.752
    1   AR   Ar   23   0.278   1.154  -0.335
    1   AR   Ar   24   6.730   2.470   1.630
    1   AR   Ar   25   0.623   1.910   4.069
    1   AR   Ar   26   5.894   0.049   4.372
    1   AR   Ar   27   1.612   0.923   3.335
    1   AR   Ar   28   0.786   2.676   5.185
    1   AR   Ar   29   5.466   2.904   7.004
    1   AR   Ar   30   1.857   1.659   4.105
    1   AR   Ar   31   3.544   0.690   7.260
    1   AR   Ar   32   1.354   2.720   6.309
    1   AR   Ar   33   1.239   4.679  -0.877
    1   AR   Ar   34   0.571   5.185   2.477
    1   AR   Ar   35   5.966   5.736   1.146
    1   AR   Ar   36   6.237   0.887  -4.140
    1   AR   Ar   37   5.355   2.413   2.340
    1   AR   Ar   38   0.150   4.023   2.348
    1   AR   Ar   39   1.228   4.055   2.655
    1   AR   Ar   40   2.343   4.084   1.805
    1   AR   Ar   41   7.039   2.769   3.660
    1   AR   Ar   42   6.193   5.214   4.938
    1   AR   Ar   43   6.626   2.592   6.073
    1   AR   Ar   44   0.736   4.354   3.459
    1   AR   Ar   45   0.503   3.467   6.117
    1   AR   Ar   46   7.083   5.602   5.329
    1   AR   Ar   47   5.476   3.983   6.996
    1   AR   Ar   48   7.065   5.911   6.434
    1   AR   Ar   49   5.204   0.811  -1.198
    1   AR   Ar   50   4.825   4.830   0.917
    1   AR   Ar   51   6.556   4.721   1.605
    1   AR   Ar   52   6.643   4.636  -1.937
    1   AR   Ar   53   5.536   5.698   2.777
    1   AR   Ar   54   7.087   6.319   2.372
    1   AR   Ar   55   6.525   5.556   2.396
    1   AR   Ar   56   6.898   1.185   0.920
    1   AR   Ar   57   5.294   3.463   3.394
    1   AR   Ar   58   7.095   3.977   4.031
    1   AR   Ar   59   2.207   5.477   5.374
    1   AR   Ar   60   0.485   6.122   3.603
    1   AR   Ar   61   6.988   4.680   6.068
    1   AR   Ar   62   7.083   5.122   4.339
    1   AR   Ar   63   1.818   0.966   7.048
    1   AR   Ar   64   1.203   5.760   4.986
    1   AR   Ar   65   3.614   6.792   1.098
    1   AR   Ar   66   0.770   1.011   1.766
    1   AR   Ar   67   3.653   6.707  -0.706
    1   AR   Ar   68   2.480   1.663  -0.986
    1   AR   Ar   69   2.793   0.794   1.101
    1   AR   Ar   70   0.589   0.279   2.420
    1   AR   Ar   71   3.254   1.363   3.903
    1   AR   Ar   72   4.298   7.118   1.817
    1   AR   Ar   73   3.841   0.601   3.309
    1   AR   Ar   74   1.912   0.677   4.658
    1   AR   Ar   75   3.903   0.903   4.771
    1   AR   Ar   76   2.000   0.457   1.638
    1   AR   Ar   77   2.205   6.673   5.571
    1   AR   Ar   78   0.487   6.497   5.845
    1   AR   Ar   79   3.047   6.006   5.886
    1   AR   Ar   80   4.180   5.075   5.882
    1   AR   Ar   81   2.521   6.027  -0.478
    1   AR   Ar   82   6.733   5.566  -0.064
    1   AR   Ar   83   0.517   2.634   0.724
    1   AR   Ar   84   0.134   3.920   1.115
    1   AR   Ar   85   1.288   3.663   0.881
    1   AR   Ar   86   1.685   4.851   0.040
    1   AR   Ar   87   1.496   2.605   1.152
    1   AR   Ar   88   2.064   4.801   1.058
    1   AR   Ar   89   0.598   3.180   2.825
    1   AR   Ar   90   2.153   2.711   4.205
    1   AR   Ar   91   1.407   2.520   3.547
    1   AR   Ar   92   1.345   2.437   2.284
    1   AR   Ar   93   1.380   0.746   6.008
    1   AR   Ar   94   0.360   6.922  11.334
    1   AR   Ar   95   3.598   0.975   6.190
    1   AR   Ar   96   2.964   0.326   4.892
    1   AR   Ar   97   4.948   1.745  -0.266
    1   AR   Ar   98   2.335   5.313   2.657
    1   AR   Ar   99   6.204   1.304  -0.748
    1   AR   Ar  100   1.518   3.189  -0.622
    1   AR   Ar  101   3.598   4.578   1.177
    1   AR   Ar  102   3.627   2.505   3.492
    1   AR   Ar  103   1.043   5.035   1.269
    1   AR   Ar  104   3.146   4.107  -1.583
    1   AR   Ar  105   0.845   3.364   4.007
    1   AR   Ar  106   3.082   3.058   5.389
    1   AR   Ar  107   0.627   4.376   4.824
    1   AR   Ar  108   3.000   2.232   4.253
    1   AR   Ar  109   2.046   4.571   4.510
    1   AR   Ar  110   1.401   3.485   5.286
    1   AR   Ar  111   4.595   4.477   7.712
    1   AR   Ar  112   1.471   6.105   5.971
    1   AR   Ar  113   2.927   5.066   0.102
    1   AR   Ar  114   2.586   0.046  -0.992
    1   AR   Ar  115   2.220   5.133  -1.118
    1   AR   Ar  116   5.586   0.090  -0.587
    1   AR   Ar  117   1.148   5.025   4.201
    1   AR   Ar  118   1.611   5.785   3.301
    1   AR   Ar  119   2.239   3.067   3.075
    1   AR   Ar  120   2.072   6.638   2.009
    1   AR   Ar  121   5.880   4.455   5.595
    1   AR   Ar  122   2.812   6.356   4.543
    1   AR   Ar  123   3.721   4.106   4.782
    1   AR   Ar  124   1.648   5.803   1.587
    1   AR   Ar  125   6.889   3.799   5.030
    1   AR   Ar  126   0.001   6.354   4.670
    1   AR   Ar  127   3.954   4.013   6.575
    1   AR   Ar  128   3.195   4.833   6.637
    1   AR   Ar  129   2.547   6.397   3.186
    1   AR   Ar  130   4.312   3.122  -2.213
    1   AR   Ar  131   3.862   1.546   0.006
    1   AR   Ar  132   6.819   2.434  -0.645
    1   AR   Ar  133   4.426   6.117   2.652
    1   AR   Ar  134   4.321   1.438   3.821
    1   AR   Ar  135   5.856   0.802   2.728
    1   AR   Ar  136   5.200   6.744   2.258
    1   AR   Ar  137   2.726   5.408   3.701
    1   AR   Ar  138   4.473   1.378   5.662
    1   AR   Ar  139   5.548   2.582   5.406
    1   AR   Ar  140   3.720   6.930   4.349
    1   AR   Ar  141   3.905   5.051   4.254
    1   AR   Ar  142   3.280   0.030   6.117
    1   AR   Ar  143   6.340   0.032   5.697
    1   AR   Ar  144   6.961   1.845   4.948
    1   AR   Ar  145   4.897   4.316  -0.217
    1   AR   Ar  146   3.169   2.196   2.088
    1   AR   Ar  147   5.023   1.508  -1.997
    1   AR   Ar  148   3.393   5.558  -1.242
    1   AR   Ar  149   2.825   1.975   0.703
    1   AR   Ar  150   2.659   1.252   2.566
    1   AR   Ar  151   2.629   2.001   3.316
    1   AR   Ar  152   3.291   2.812  -0.138
    1   AR   Ar  153   4.771   7.067   3.829
    1   AR   Ar  154   4.207   2.154   4.791
    1   AR   Ar  155   6.805   0.200   6.699
    1   AR   Ar  156   3.813   3.483   3.888
    1   AR   Ar  157   1.482   3.607   6.861
    1   AR   Ar  158   0.524   2.734   6.945
    1   AR   Ar  159   4.863   1.619   7.119
    1   AR   Ar  160   2.080   1.919   5.179
    1   AR   Ar  161   5.407   3.506   2.307
    1   AR   Ar  162   4.814   6.011  -0.628
    1   AR   Ar  163   5.163   3.360   0.760
    1   AR   Ar  164   2.803   5.913   2.032
    1   AR   Ar  165   3.639   2.728   1.062
    1   AR   Ar  166   2.888   3.380   4.349
    1   AR   Ar  167   4.632   0.991   2.617
    1   AR   Ar  168   5.105   3.767  -1.065
    1   AR   Ar  169   3.132   3.590   2.567
    1   AR   Ar  170   2.641   4.210   5.851
    1   AR   Ar  171   6.126   3.825   4.285
    1   AR   Ar  172   4.774   4.584   5.129
    1   AR   Ar  173   2.861   3.490   7.189
    1   AR   Ar  174   2.639   5.764   6.843
    1   AR   Ar  175   2.545   2.586   6.204
    1   AR   Ar  176   3.696   2.082   5.964
    1   AR   Ar  177   7.007   4.883  -0.931
    1   AR   Ar  178   4.053   5.027  -0.393
    1   AR   Ar  179   4.205   5.934   0.416
    1   AR   Ar  180   1.247   1.206  -3.100
    1   AR   Ar  181   0.526   5.918   1.523
    1   AR   Ar  182   2.568   0.668   3.388
    1   AR   Ar  183   3.528   5.395   2.750
    1   AR   Ar  184   4.617   6.597   1.081
    1   AR   Ar  185   2.933   5.043   4.746
    1   AR   Ar  186   3.035   4.411   4.025
    1   AR   Ar  187   3.481   6.504   2.810
    1   AR   Ar  188   3.180   6.975   2.021
    1   AR   Ar  189   3.712   2.834   6.741
    1   AR   Ar  190   3.551   6.141   3.789
    1   AR   Ar  191   2.999   6.527   7.523
    1   AR   Ar  192   3.770   5.850   4.956
    1   AR   Ar  193   2.679   6.342   1.048
    1   AR   Ar  194   4.057   3.824  -1.011
    1   AR   Ar  195   5.850   1.017   0.409
    1   AR   Ar  196   4.510   0.313   0.292
    1   AR   Ar  197   3.831   0.927   1.009
    1   AR   Ar  198   6.192   1.562   1.694
    1   AR   Ar  199   3.689   1.726   2.877
    1   AR   Ar  200   5.518   2.528   0.036
    1   AR   Ar  201   5.684   5.896   4.110
    1   AR   Ar  202   5.772   1.982   4.464
    1   AR   Ar  203   6.397   6.347   3.286
    1   AR   Ar  204   4.514   6.662   5.220
    1   AR   Ar  205   6.703   0.110   2.143
    1   AR   Ar  206   5.064   1.056   4.491
    1   AR   Ar  207   0.811   1.664   6.094
    1   AR   Ar  208   6.733   0.175   3.442
    1   AR   Ar  209   6.661   2.603  -1.758
    1   AR   Ar  210   3.410   0.211   0.224
    1   AR   Ar  211   6.583   3.143   0.663
    1   AR   Ar  212   6.279   3.527  -1.530
    1   AR   Ar  213   3.652   0.804   2.067
    1   AR   Ar  214   4.388   2.996   2.928
    1   AR   Ar  215   5.859   2.867   1.540
    1   AR   Ar  216   0.562   3.313   1.804
    1   AR   Ar  217   5.325   3.255   4.507
    1   AR   Ar  218   4.283   3.268   5.146
    1   AR   Ar  219   4.694   2.377   3.694
    1   AR   Ar  220   4.251   4.108   2.117
    1   AR   Ar  221   5.712   6.427   5.281
    1   AR   Ar  222   4.618   0.598   6.469
    1   AR   Ar  223   6.929   1.326   6.316
    1   AR   Ar  224   4.642   2.911   6.308
    1   AR   Ar  225   6.401   2.897   2.697
    1   AR   Ar  226   1.952   3.864   3.646
    1   AR   Ar  227   6.482   3.547   1.960
    1   AR   Ar  228   6.132   6.378   1.884
    1   AR   Ar  229   5.274   4.665  -1.356
    1   AR   Ar  230   4.672   4.073   4.075
    1   AR   Ar  231   5.362   1.617   3.378
    1   AR   Ar  232   4.823   2.355   0.896
    1   AR   Ar  233   6.013   2.765   3.646
    1   AR   Ar  234   6.476   2.757   4.703
    1   AR   Ar  235   6.647   1.493   3.941
    1   AR   Ar  236   5.141   5.476   5.470
    1   AR   Ar  237   5.563   3.368   5.991
    1   AR   Ar  238   4.914   4.078   6.092
    1   AR   Ar  239   5.724   4.197   8.376
    1   AR   Ar  240   6.593   3.002   7.149
    1   AR   Ar  241   1.067   6.441  -0.506
    1   AR   Ar  242   5.702   4.912   0.184
    1   AR   Ar  243   5.290   4.537   2.621
    1   AR   Ar  244   0.786   5.387  -0.203
    1   AR   Ar  245   5.046   0.688   1.235
    1   AR   Ar  246   5.286   6.373   0.253
    1   AR   Ar  247   5.912   4.008   0.838
    1   AR   Ar  248   5.851   6.002  -0.590
    1   AR   Ar  249   3.919   5.943   1.752
    1   AR   Ar  250   4.768   5.633   4.539
    1   AR   Ar  251   5.418   4.763   4.027
    1   AR   Ar  252   4.552   5.337   3.495
    1   AR   Ar  253   6.504   3.684   6.003
    1   AR   Ar  254   2.286   2.145   9.539
    1   AR   Ar  255   3.930   3.385   9.001
    1   AR   Ar  256   6.628   4.881   3.268
    7.12000  7.12000 12.00000
Argon-slab step 3320
  256
    1   AR   Ar    1   6.170   1.763  -1.863
    1   AR   Ar    2   6.668   0.349   0.305
    1   AR   Ar    3   2.773   0.894  -0.244
    1   AR   Ar    4   1.317   0.666  -0.078
    1   AR   Ar    5   7.094   6.918   1.098
    1   AR   Ar    6   7.078   1.179   2.281
    1   AR   Ar    7   6.123   3.880   2.980
    1   AR   Ar    8   6.025   0.203   1.385
    1   AR   Ar    9   1.420   6.935   3.110
    1   AR   Ar   10   0.761   0.351   4.018
    1   AR   Ar   11   1.842   6.404   4.236
    1   AR   Ar   12   0.735   1.194   2.898
    1   AR   Ar   13   0.406   0.738   4.953
    1   AR   Ar   14   6.530   2.094   7.762
    1   AR   Ar   15   4.821   6.714   8.533
    1   AR   Ar   16   1.090   6.795   4.688
    1   AR   Ar   17   6.403   2.124   0.484
    1   AR   Ar   18   6.037   4.064  -0.425
    1   AR   Ar   19   2.451   3.203   0.985
    1   AR   Ar   20   4.252   4.443  -1.986
    1   AR   Ar   21   4.438   1.445   1.780
    1   AR   Ar   22   6.162   1.780   2.760
    1   AR   Ar   23   0.274   1.129  -0.305
    1   AR   Ar   24   6.734   2.419   1.640
    1   AR   Ar   25   0.595   1.937   4.094
    1   AR   Ar   26   5.934   0.025   4.396
    1   AR   Ar   27   1.596   0.923   3.334
    1   AR   Ar   28   0.763   2.687   5.175
    1   AR   Ar   29   5.484   2.900   7.037
    1   AR   Ar   30   1.846   1.653   4.103
    1   AR   Ar   31   3.506   0.693   7.264
    1   AR   Ar   32   1.378   2.722   6.317
    1   AR   Ar   33   1.252   4.696  -0.891
    1   AR   Ar   34   0.574   5.178   2.503
    1   AR   Ar   35   5.966   5.726   1.104
    1   AR   Ar   36   6.228   0.889  -4.114
    1   AR   Ar   37   5.357   2.457   2.312
    1   AR   Ar   38   0.170   4.064   2.328
    1   AR   Ar   39   1.229   4.082   2.625
    1   AR   Ar   40   2.340   4.046   1.798
    1   AR   Ar   41   7.073   2.772   3.630
    1   AR   Ar   42   6.166   5.182   4.920
    1   AR   Ar   43   6.645   2.558   6.088
    1   AR   Ar   44   0.769   4.324   3.466
    1   AR   Ar   45   0.505   3.488   6.121
    1   AR   Ar   46   7.075   5.600   5.279
    1   AR   Ar   47   5.476   3.981   6.997
    1   AR   Ar   48   7.059   5.908   6.459
    1   AR   Ar   49   5.202   0.808  -1.210
    1   AR   Ar   50   4.813   4.824   0.909
    1   AR   Ar   51   6.550   4.715   1.622
    1   AR   Ar   52   6.624   4.638  -1.947
    1   AR   Ar   53   5.547   5.706   2.753
    1   AR   Ar   54   7.109   6.347   2.374
    1   AR   Ar   55   6.522   5.560   2.375
    1   AR   Ar   56   6.913   1.226   0.911
    1   AR   Ar   57   5.289   3.482   3.381
    1   AR   Ar   58   7.106   3.932   4.029
    1   AR   Ar   59   2.187   5.459   5.336
    1   AR   Ar   60   0.463   6.114   3.591
    1   AR   Ar   61   7.016   4.688   6.054
    1   AR   Ar   62   7.069   5.088   4.305
    1   AR   Ar   63   1.810   0.967   7.045
    1   AR   Ar   64   1.199   5.741   4.988
    1   AR   Ar   65   3.602   6.815   1.098
    1   AR   Ar   66   0.781   1.027   1.736
    1   AR   Ar   67   3.672   6.707  -0.678
    1   AR   Ar   68   2.483   1.664  -0.964
    1   AR   Ar   69   2.829   0.806   1.089
    1   AR   Ar   70   0.606   0.291   2.444
    1   AR   Ar   71   3.280   1.316   3.892
    1   AR   Ar   72   4.290   0.005   1.866
    1   AR   Ar   73   3.811   0.592   3.279
    1   AR   Ar   74   1.903   0.686   4.667
    1   AR   Ar   75   3.925   0.911   4.789
    1   AR   Ar   76   2.022   0.474   1.614
    1   AR   Ar   77   2.180   6.662   5.589
    1   AR   Ar   78   0.493   6.461   5.819
    1   AR   Ar   79   3.044   6.031   5.869
    1   AR   Ar   80   4.133   5.106   5.877
    1   AR   Ar   81   2.533   6.041  -0.468
    1   AR   Ar   82   6.711   5.554  -0.038
    1   AR   Ar   83   0.453   2.635   0.744
    1   AR   Ar   84   0.128   3.932   1.098
    1   AR   Ar   85   1.298   3.688   0.890
    1   AR   Ar   86   1.670   4.860  -0.002
    1   AR   Ar   87   1.511   2.621   1.136
    1   AR   Ar   88   2.097   4.778   1.084
    1   AR   Ar   89   0.587   3.167   2.823
    1   AR   Ar   90   2.143   2.745   4.205
    1   AR   Ar   91   1.402   2.516   3.531
    1   AR   Ar   92   1.335   2.425   2.293
    1   AR   Ar   93   1.369   0.740   6.024
    1   AR   Ar   94   0.347   6.938  11.326
    1   AR   Ar   95   3.615   0.936   6.176
    1   AR   Ar   96   2.979   0.314   4.885
    1   AR   Ar   97   4.943   1.755  -0.252
    1   AR   Ar   98   2.285   5.282   2.667
    1   AR   Ar   99   6.231   1.290  -0.754
    1   AR   Ar  100   1.523   3.194  -0.653
    1   AR   Ar  101   3.622   4.582   1.222
    1   AR   Ar  102   3.621   2.495   3.500
    1   AR   Ar  103   0.984   5.033   1.244
    1   AR   Ar  104   3.150   4.109  -1.586
    1   AR   Ar  105   0.846   3.394   4.050
    1   AR   Ar  106   3.085   3.053   5.391
    1   AR   Ar  107   0.639   4.411   4.850
    1   AR   Ar  108   3.026   2.158   4.261
    1   AR   Ar  109   2.056   4.588   4.541
    1   AR   Ar  110   1.417   3.439   5.265
    1   AR   Ar  111   4.574   4.488   7.719
    1   AR   Ar  112   1.439   6.113   5.949
    1   AR   Ar  113   2.952   5.073   0.143
    1   AR   Ar  114   2.561   0.053  -1.013
    1   AR   Ar  115   2.252   5.154  -1.132
    1   AR   Ar  116   5.584   0.140  -0.574
    1   AR   Ar  117   1.134   5.028   4.193
    1   AR   Ar  118   1.617   5.787   3.315
    1   AR   Ar  119   2.231   3.076   3.060
    1   AR   Ar  120   2.072   6.638   2.028
    1   AR   Ar  121   5.899   4.423   5.583
    1   AR   Ar  122   2.825   6.340   4.548
    1   AR   Ar  123   3.722   4.090   4.791
    1   AR   Ar  124   1.671   5.781   1.589
    1   AR   Ar  125   6.876   3.792   5.051
    1   AR   Ar  126   7.117   6.375   4.709
    1   AR   Ar  127   3.969   4.007   6.608
    1   AR   Ar  128   3.158   4.810   6.656
    1   AR   Ar  129   2.542   6.405   3.204
    1   AR   Ar  130   4.310   3.084  -2.241
    1   AR   Ar  131   3.843   1.565   0.012
    1   AR   Ar  132   6.787   2.457  -0.599
    1   AR   Ar  133   4.424   6.107   2.630
    1   AR   Ar  134   4.319   1.416   3.830
    1   AR   Ar  135   5.874   0.793   2.728
    1   AR   Ar  136   5.206   6.737   2.273
    1   AR   Ar  137   2.684   5.393   3.724
    1   AR   Ar  138   4.472   1.368   5.674
    1   AR   Ar  139   5.549   2.592   5.372
    1   AR   Ar  140   3.733   6.920   4.355
    1   AR   Ar  141   3.921   5.042   4.280
    1   AR   Ar  142   3.270   0.006   6.097
    1   AR   Ar  143   6.332   0.026   5.688
    1   AR   Ar  144   6.931   1.870   4.915
    1   AR   Ar  145   4.907   4.294  -0.221
    1   AR   Ar  146   3.152   2.207   2.082
    1   AR   Ar  147   4.990   1.524  -1.964
    1   AR   Ar  148   3.387   5.605  -1.236
    1   AR   Ar  149   2.795   1.966   0.703
    1   AR   Ar  150   2.624   1.273   2.579
    1   AR   Ar  151   2.629   1.976   3.280
    1   AR   Ar  152   3.270   2.811  -0.185
    1   AR   Ar  153   4.766   7.035   3.806
    1   AR   Ar  154   4.212   2.180   4.769
    1   AR   Ar  155   6.811   0.197   6.671
    1   AR   Ar  156   3.804   3.530   3.905
    1   AR   Ar  157   1.458   3.606   6.855
    1   AR   Ar  158   0.512   2.709   6.959
    1   AR   Ar  159   4.878   1.590   7.104
    1   AR   Ar  160   2.061   1.932   5.189
    1   AR   Ar  161   5.422   3.484   2.304
    1   AR   Ar  162   4.823   5.993  -0.585
    1   AR   Ar  163   5.168   3.339   0.744
    1   AR   Ar  164   2.805   5.917   2.045
    1   AR   Ar  165   3.652   2.741   1.083
    1   AR   Ar  166   2.928   3.426   4.359
    1   AR   Ar  167   4.644   0.989   2.596
    1   AR   Ar  168   5.132   3.782  -1.080
    1   AR   Ar  169   3.096   3.610   2.568
    1   AR   Ar  170   2.648   4.205   5.833
    1   AR   Ar  171   6.130   3.840   4.246
    1   AR   Ar  172   4.779   4.580   5.138
    1   AR   Ar  173   2.888   3.485   7.183
    1   AR   Ar  174   2.633   5.782   6.867
    1   AR   Ar  175   2.594   2.582   6.169
    1   AR   Ar  176   3.660   2.071   5.927
    1   AR   Ar  177   6.993   4.904  -0.964
    1   AR   Ar  178   4.042   5.021  -0.397
    1   AR   Ar  179   4.210   5.943   0.396
    1   AR   Ar  180   1.254   1.186  -3.104
    1   AR   Ar  181   0.498   5.900   1.513
    1   AR   Ar  182   2.568   0.662   3.419
    1   AR   Ar  183   3.574   5.390   2.724
    1   AR   Ar  184   4.659   6.597   1.073
    1   AR   Ar  185   2.967   5.034   4.757
    1   AR   Ar  186   3.041   4.403   4.039
    1   AR   Ar  187   3.473   6.531   2.823
    1   AR   Ar  188   3.154   6.986   2.012
    1   AR   Ar  189   3.736   2.817   6.719
    1   AR   Ar  190   3.509   6.119   3.771
    1   AR   Ar  191   2.994   6.538   7.522
    1   AR   Ar  192   3.762   5.858   4.929
    1   AR   Ar  193   2.677   6.348   1.082
    1   AR   Ar  194   4.037   3.851  -1.037
    1   AR   Ar  195   5.809   1.011   0.425
    1   AR   Ar  196   4.498   0.311   0.264
    1   AR   Ar  197   3.842   0.951   1.008
    1   AR   Ar  198   6.150   1.573   1.698
    1   AR   Ar  199   3.718   1.691   2.886
    1   AR   Ar  200   5.536   2.498   0.031
    1   AR   Ar  201   5.663   5.901   4.107
    1   AR   Ar  202   5.794   1.982   4.482
    1   AR   Ar  203   6.384   6.357   3.279
    1   AR   Ar  204   4.514   6.652   5.205
    1   AR   Ar  205   6.698   0.121   2.150
    1   AR   Ar  206   5.089   1.030   4.510
    1   AR   Ar  207   0.814   1.655   6.097
    1   AR   Ar  208   6.742   0.184   3.448
    1   AR   Ar  209   6.669   2.590  -1.749
    1   AR   Ar  210   3.386   0.196   0.224
    1   AR   Ar  211   6.608   3.159   0.660
    1   AR   Ar  212   6.312   3.545  -1.508
    1   AR   Ar  213   3.635   0.817   2.099
    1   AR   Ar  214   4.408   3.004   2.926
    1   AR   Ar  215   5.851   2.903   1.545
    1   AR   Ar  216   0.550   3.296   1.782
    1   AR   Ar  217   5.369   3.234   4.486
    1   AR   Ar  218   4.277   3.262   5.148
    1   AR   Ar  219   4.685   2.367   3.673
    1   AR   Ar  220   4.248   4.108   2.110
    1   AR   Ar  221   5.738   6.406   5.306
    1   AR   Ar  222   4.630   0.593   6.443
    1   AR   Ar  223   6.927   1.321   6.308
    1   AR   Ar  224   4.633   2.928   6.268
    1   AR   Ar  225   6.399   2.892   2.705
    1   AR   Ar  226   1.969   3.840   3.640
    1   AR   Ar  227   6.491   3.570   1.963
    1   AR   Ar  228   6.156   6.383   1.869
    1   AR   Ar  229   5.278   4.690  -1.348
    1   AR   Ar  230   4.647   4.101   4.087
    1   AR   Ar  231   5.338   1.611   3.390
    1   AR   Ar  232   4.842   2.317   0.893
    1   AR   Ar  233   5.997   2.752   3.678
    1   AR   Ar  234   6.477   2.775   4.716
    1   AR   Ar  235   6.631   1.439   3.912
    1   AR   Ar  236   5.123   5.473   5.459
    1   AR   Ar  237   5.574   3.381   5.976
    1   AR   Ar  238   4.918   4.066   6.088
    1   AR   Ar  239   5.740   4.180   8.378
    1   AR   Ar  240   6.567   3.006   7.151
    1   AR   Ar  241   1.074   6.435  -0.522
    1   AR   Ar  242   5.720   4.931   0.208
    1   AR   Ar  243   5.278   4.545   2.645
    1   AR   Ar  244   0.782   5.365  -0.185
    1   AR   Ar  245   5.045   0.691   1.227
    1   AR   Ar  246   5.278   6.395   0.237
    1   AR   Ar  247   5.919   4.025   0.850
    1   AR   Ar  248   5.873   6.011  -0.605
    1   AR   Ar  249   3.948   5.916   1.777
    1   AR   Ar  250   4.760   5.643   4.524
    1   AR   Ar  251   5.381   4.730   4.044
    1   AR   Ar  252   4.549   5.334   3.512
    1   AR   Ar  253   6.551   3.708   5.995
    1   AR   Ar  254   2.329   2.146   9.514
    1   AR   Ar  255   3.920   3.420   9.020
    1   AR   Ar  256   6.653   4.898   3.239
    7.12000  7.12000 12.00000
Argon-slab step 3325
  256
    1   AR   Ar    1   6.150   1.751  -1.848
    1   AR   Ar    2   6.658   0.343   0.297
    1   AR   Ar    3   2.784   0.879  -0.262
    1   AR   Ar    4   1.333   0.667  -0.044
    1   AR   Ar    5   7.083   6.924   1.118
    1   AR   Ar    6   7.102   1.191   2.300
    1   AR   Ar    7   6.111   3.893   2.951
    1   AR   Ar    8   6.013   0.185   1.352
    1   AR   Ar    9   1.431   6.923   3.111
    1   AR   Ar   10   0.789   0.356   3.999
    1   AR   Ar   11   1.876   6.379   4.199
    1   AR   Ar   12   0.742   1.215   2.904
    1   AR   Ar   13   0.423   0.720   4.974
    1   AR   Ar   14   6.521   2.114   7.770
    1   AR   Ar   15   4.842   6.697   8.523
    1   AR   Ar   16   1.077   6.809   4.660
    1   AR   Ar   17   6.420   2.108   0.492
    1   AR   Ar   18   6.046   4.065  -0.415
    1   AR   Ar   19   2.484   3.215   0.983
    1   AR   Ar   20   4.260   4.465  -1.995
    1   AR   Ar   21   4.383   1.471   1.805
    1   AR   Ar   22   6.152   1.771   2.769
    1   AR   Ar   23   0.268   1.103  -0.272
    1   AR   Ar   24   6.749   2.371   1.649
    1   AR   Ar   25   0.567   1.963   4.119
    1   AR   Ar   26   5.955   0.018   4.347
    1   AR   Ar   27   1.580   0.921   3.335
    1   AR   Ar   28   0.733   2.691   5.164
    1   AR   Ar   29   5.493   2.908   7.042
    1   AR   Ar   30   1.850   1.662   4.116
    1   AR   Ar   31   3.511   0.693   7.260
    1   AR   Ar   32   1.403   2.720   6.320
    1   AR   Ar   33   1.261   4.711  -0.915
    1   AR   Ar   34   0.575   5.170   2.529
    1   AR   Ar   35   5.965   5.711   1.057
    1   AR   Ar   36   6.215   0.895  -4.089
    1   AR   Ar   37   5.355   2.491   2.291
    1   AR   Ar   38   0.191   4.116   2.314
    1   AR   Ar   39   1.237   4.105   2.587
    1   AR   Ar   40   2.337   4.005   1.793
    1   AR   Ar   41   7.109   2.776   3.601
    1   AR   Ar   42   6.136   5.153   4.897
    1   AR   Ar   43   6.663   2.525   6.102
    1   AR   Ar   44   0.798   4.298   3.479
    1   AR   Ar   45   0.509   3.508   6.125
    1   AR   Ar   46   7.069   5.585   5.242
    1   AR   Ar   47   5.492   3.989   6.991
    1   AR   Ar   48   7.032   5.879   6.474
    1   AR   Ar   49   5.198   0.811  -1.224
    1   AR   Ar   50   4.802   4.818   0.899
    1   AR   Ar   51   6.555   4.724   1.633
    1   AR   Ar   52   6.611   4.624  -1.980
    1   AR   Ar   53   5.544   5.698   2.749
    1   AR   Ar   54   0.024   6.379   2.379
    1   AR   Ar   55   6.509   5.546   2.356
    1   AR   Ar   56   6.928   1.267   0.903
    1   AR   Ar   57   5.275   3.499   3.372
    1   AR   Ar   58   7.117   3.891   4.024
    1   AR   Ar   59   2.167   5.443   5.300
    1   AR   Ar   60   0.442   6.105   3.578
    1   AR   Ar   61   7.045   4.698   6.037
    1   AR   Ar   62   7.057   5.053   4.269
    1   AR   Ar   63   1.839   0.959   7.033
    1   AR   Ar   64   1.191   5.722   4.987
    1   AR   Ar   65   3.595   6.837   1.097
    1   AR   Ar   66   0.800   1.044   1.698
    1   AR   Ar   67   3.691   6.705  -0.650
    1   AR   Ar   68   2.486   1.667  -0.941
    1   AR   Ar   69   2.861   0.810   1.090
    1   AR   Ar   70   0.622   0.294   2.469
    1   AR   Ar   71   3.309   1.247   3.874
    1   AR   Ar   72   4.281   0.015   1.922
    1   AR   Ar   73   3.781   0.582   3.247
    1   AR   Ar   74   1.892   0.698   4.669
    1   AR   Ar   75   3.947   0.919   4.806
    1   AR   Ar   76   2.039   0.492   1.593
    1   AR   Ar   77   2.163   6.658   5.601
    1   AR   Ar   78   0.496   6.431   5.785
    1   AR   Ar   79   3.043   6.054   5.848
    1   AR   Ar   80   4.085   5.136   5.872
    1   AR   Ar   81   2.546   6.054  -0.458
    1   AR   Ar   82   6.689   5.540  -0.012
    1   AR   Ar   83   0.388   2.636   0.765
    1   AR   Ar   84   0.132   3.957   1.083
    1   AR   Ar   85   1.309   3.699   0.911
    1   AR   Ar   86   1.664   4.868  -0.034
    1   AR   Ar   87   1.529   2.636   1.119
    1   AR   Ar   88   2.130   4.758   1.108
    1   AR   Ar   89   0.577   3.154   2.826
    1   AR   Ar   90   2.132   2.779   4.208
    1   AR   Ar   91   1.392   2.512   3.512
    1   AR   Ar   92   1.325   2.415   2.303
    1   AR   Ar   93   1.359   0.732   6.038
    1   AR   Ar   94   0.334   6.949  11.330
    1   AR   Ar   95   3.634   0.907   6.162
    1   AR   Ar   96   2.991   0.303   4.881
    1   AR   Ar   97   4.932   1.755  -0.240
    1   AR   Ar   98   2.235   5.247   2.678
    1   AR   Ar   99   6.236   1.283  -0.764
    1   AR   Ar  100   1.527   3.200  -0.684
    1   AR   Ar  101   3.636   4.568   1.207
    1   AR   Ar  102   3.615   2.491   3.509
    1   AR   Ar  103   0.927   5.025   1.217
    1   AR   Ar  104   3.155   4.112  -1.589
    1   AR   Ar  105   0.853   3.419   4.094
    1   AR   Ar  106   3.092   3.051   5.389
    1   AR   Ar  107   0.649   4.443   4.879
    1   AR   Ar  108   3.046   2.099   4.284
    1   AR   Ar  109   2.063   4.603   4.571
    1   AR   Ar  110   1.439   3.399   5.245
    1   AR   Ar  111   4.569   4.493   7.696
    1   AR   Ar  112   1.406   6.112   5.933
    1   AR   Ar  113   2.977   5.081   0.183
    1   AR   Ar  114   2.537   0.060  -1.032
    1   AR   Ar  115   2.285   5.175  -1.143
    1   AR   Ar  116   5.586   0.184  -0.552
    1   AR   Ar  117   1.121   5.035   4.179
    1   AR   Ar  118   1.620   5.791   3.332
    1   AR   Ar  119   2.226   3.075   3.040
    1   AR   Ar  120   2.072   6.641   2.051
    1   AR   Ar  121   5.915   4.389   5.572
    1   AR   Ar  122   2.862   6.335   4.586
    1   AR   Ar  123   3.724   4.078   4.806
    1   AR   Ar  124   1.696   5.757   1.590
    1   AR   Ar  125   6.866   3.786   5.067
    1   AR   Ar  126   7.115   6.410   4.738
    1   AR   Ar  127   3.983   3.999   6.641
    1   AR   Ar  128   3.121   4.788   6.674
    1   AR   Ar  129   2.555   6.372   3.213
    1   AR   Ar  130   4.308   3.047  -2.268
    1   AR   Ar  131   3.822   1.584   0.020
    1   AR   Ar  132   6.753   2.480  -0.552
    1   AR   Ar  133   4.428   6.098   2.617
    1   AR   Ar  134   4.308   1.396   3.823
    1   AR   Ar  135   5.889   0.792   2.723
    1   AR   Ar  136   5.215   6.733   2.287
    1   AR   Ar  137   2.641   5.379   3.747
    1   AR   Ar  138   4.473   1.359   5.684
    1   AR   Ar  139   5.550   2.594   5.333
    1   AR   Ar  140   3.751   6.915   4.364
    1   AR   Ar  141   3.935   5.029   4.305
    1   AR   Ar  142   3.256   7.093   6.075
    1   AR   Ar  143   6.328   0.022   5.681
    1   AR   Ar  144   6.904   1.890   4.884
    1   AR   Ar  145   4.916   4.275  -0.219
    1   AR   Ar  146   3.136   2.218   2.075
    1   AR   Ar  147   4.957   1.542  -1.933
    1   AR   Ar  148   3.381   5.651  -1.228
    1   AR   Ar  149   2.776   1.950   0.699
    1   AR   Ar  150   2.612   1.278   2.580
    1   AR   Ar  151   2.627   1.959   3.251
    1   AR   Ar  152   3.249   2.809  -0.229
    1   AR   Ar  153   4.761   7.004   3.783
    1   AR   Ar  154   4.217   2.205   4.746
    1   AR   Ar  155   6.817   0.194   6.643
    1   AR   Ar  156   3.802   3.573   3.914
    1   AR   Ar  157   1.434   3.608   6.849
    1   AR   Ar  158   0.499   2.685   6.973
    1   AR   Ar  159   4.892   1.560   7.087
    1   AR   Ar  160   2.042   1.946   5.198
    1   AR   Ar  161   5.433   3.467   2.300
    1   AR   Ar  162   4.824   5.973  -0.546
    1   AR   Ar  163   5.169   3.316   0.728
    1   AR   Ar  164   2.815   5.919   2.074
    1   AR   Ar  165   3.664   2.752   1.103
    1   AR   Ar  166   2.959   3.467   4.375
    1   AR   Ar  167   4.660   0.979   2.592
    1   AR   Ar  168   5.158   3.776  -1.095
    1   AR   Ar  169   3.061   3.629   2.569
    1   AR   Ar  170   2.657   4.199   5.814
    1   AR   Ar  171   6.132   3.860   4.205
    1   AR   Ar  172   4.784   4.569   5.147
    1   AR   Ar  173   2.916   3.480   7.174
    1   AR   Ar  174   2.618   5.784   6.860
    1   AR   Ar  175   2.642   2.576   6.137
    1   AR   Ar  176   3.637   2.076   5.908
    1   AR   Ar  177   6.980   4.925  -0.994
    1   AR   Ar  178   4.032   5.017  -0.401
    1   AR   Ar  179   4.212   5.950   0.373
    1   AR   Ar  180   1.262   1.165  -3.109
    1   AR   Ar  181   0.467   5.886   1.506
    1   AR   Ar  182   2.576   0.650   3.454
    1   AR   Ar  183   3.620   5.387   2.700
    1   AR   Ar  184   4.705   6.598   1.065
    1   AR   Ar  185   3.003   5.039   4.784
    1   AR   Ar  186   3.048   4.414   4.039
    1   AR   Ar  187   3.473   6.556   2.838
    1   AR   Ar  188   3.120   7.003   1.996
    1   AR   Ar  189   3.752   2.801   6.700
    1   AR   Ar  190   3.470   6.088   3.751
    1   AR   Ar  191   2.995   6.543   7.524
    1   AR   Ar  192   3.753   5.869   4.903
    1   AR   Ar  193   2.670   6.353   1.115
    1   AR   Ar  194   4.019   3.878  -1.061
    1   AR   Ar  195   5.767   1.005   0.441
    1   AR   Ar  196   4.486   0.308   0.237
    1   AR   Ar  197   3.850   0.967   1.009
    1   AR   Ar  198   6.104   1.579   1.701
    1   AR   Ar  199   3.748   1.648   2.892
    1   AR   Ar  200   5.558   2.478   0.027
    1   AR   Ar  201   5.647   5.907   4.103
    1   AR   Ar  202   5.814   1.980   4.498
    1   AR   Ar  203   6.370   6.361   3.270
    1   AR   Ar  204   4.514   6.642   5.188
    1   AR   Ar  205   6.720   0.122   2.160
    1   AR   Ar  206   5.107   1.006   4.526
    1   AR   Ar  207   0.817   1.650   6.101
    1   AR   Ar  208   6.763   0.198   3.457
    1   AR   Ar  209   6.695   2.582  -1.774
    1   AR   Ar  210   3.363   0.181   0.223
    1   AR   Ar  211   6.633   3.168   0.665
    1   AR   Ar  212   6.344   3.567  -1.483
    1   AR   Ar  213   3.616   0.832   2.134
    1   AR   Ar  214   4.420   3.008   2.912
    1   AR   Ar  215   5.842   2.910   1.545
    1   AR   Ar  216   0.543   3.269   1.755
    1   AR   Ar  217   5.405   3.208   4.467
    1   AR   Ar  218   4.273   3.255   5.151
    1   AR   Ar  219   4.679   2.362   3.659
    1   AR   Ar  220   4.245   4.109   2.104
    1   AR   Ar  221   5.761   6.379   5.327
    1   AR   Ar  222   4.642   0.588   6.418
    1   AR   Ar  223   6.923   1.316   6.299
    1   AR   Ar  224   4.631   2.946   6.223
    1   AR   Ar  225   6.397   2.879   2.713
    1   AR   Ar  226   1.982   3.823   3.641
    1   AR   Ar  227   6.500   3.598   1.957
    1   AR   Ar  228   6.177   6.390   1.856
    1   AR   Ar  229   5.285   4.734  -1.344
    1   AR   Ar  230   4.613   4.120   4.102
    1   AR   Ar  231   5.314   1.601   3.403
    1   AR   Ar  232   4.864   2.350   0.872
    1   AR   Ar  233   5.979   2.737   3.712
    1   AR   Ar  234   6.476   2.800   4.727
    1   AR   Ar  235   6.614   1.386   3.883
    1   AR   Ar  236   5.150   5.435   5.429
    1   AR   Ar  237   5.596   3.387   5.965
    1   AR   Ar  238   4.931   4.126   6.064
    1   AR   Ar  239   5.753   4.171   8.376
    1   AR   Ar  240   6.529   3.017   7.151
    1   AR   Ar  241   1.081   6.428  -0.537
    1   AR   Ar  242   5.731   4.942   0.205
    1   AR   Ar  243   5.266   4.553   2.671
    1   AR   Ar  244   0.772   5.346  -0.166
    1   AR   Ar  245   5.042   0.693   1.218
    1   AR   Ar  246   5.274   6.420   0.226
    1   AR   Ar  247   5.931   4.046   0.863
    1   AR   Ar  248   5.899   6.019  -0.620
    1   AR   Ar  249   3.971   5.890   1.792
    1   AR   Ar  250   4.765   5.638   4.548
    1   AR   Ar  251   5.358   4.709   4.061
    1   AR   Ar  252   4.548   5.333   3.524
    1   AR   Ar  253   6.601   3.729   5.998
    1   AR   Ar  254   2.371   2.146   9.489
    1   AR   Ar  255   3.910   3.456   9.040
    1   AR   Ar  256   6.678   4.914   3.210
    7.12000  7.12000 12.00000
Argon-slab step 3330
  256
    1   AR   Ar    1   6.127   1.726  -1.841
    1   AR   Ar    2   6.647   0.338   0.288
    1   AR   Ar    3   2.793   0.866  -0.281
    1   AR   Ar    4   1.349   0.669  -0.011
    1   AR   Ar    5   7.072   6.928   1.142
    1   AR   Ar    6   7.106   1.204   2.312
    1   AR   Ar    7   6.109   3.912   2.925
    1   AR   Ar    8   5.999   0.171   1.317
    1   AR   Ar    9   1.443   6.911   3.113
    1   AR   Ar   10   0.784   0.373   3.966
    1   AR   Ar   11   1.914   6.351   4.159
    1   AR   Ar   12   0.763   1.236   2.907
    1   AR   Ar   13   0.439   0.703   4.995
    1   AR   Ar   14   6.513   2.134   7.777
    1   AR   Ar   15   4.863   6.680   8.513
    1   AR   Ar   16   1.061   6.817   4.645
    1   AR   Ar   17   6.438   2.091   0.502
    1   AR   Ar   18   6.055   4.067  -0.406
    1   AR   Ar   19   2.517   3.227   0.980
    1   AR   Ar   20   4.269   4.487  -2.002
    1   AR   Ar   21   4.327   1.508   1.817
    1   AR   Ar   22   6.148   1.772   2.777
    1   AR   Ar   23   0.260   1.078  -0.239
    1   AR   Ar   24   6.771   2.326   1.658
    1   AR   Ar   25   0.540   1.990   4.143
    1   AR   Ar   26   5.976   0.011   4.297
    1   AR   Ar   27   1.570   0.916   3.341
    1   AR   Ar   28   0.696   2.688   5.153
    1   AR   Ar   29   5.488   2.935   7.004
    1   AR   Ar   30   1.865   1.681   4.139
    1   AR   Ar   31   3.517   0.693   7.256
    1   AR   Ar   32   1.428   2.714   6.318
    1   AR   Ar   33   1.266   4.712  -0.877
    1   AR   Ar   34   0.576   5.163   2.556
    1   AR   Ar   35   5.964   5.695   1.008
    1   AR   Ar   36   6.189   0.919  -4.069
    1   AR   Ar   37   5.348   2.506   2.281
    1   AR   Ar   38   0.214   4.173   2.304
    1   AR   Ar   39   1.250   4.126   2.542
    1   AR   Ar   40   2.333   3.961   1.792
    1   AR   Ar   41   0.021   2.779   3.577
    1   AR   Ar   42   6.104   5.125   4.871
    1   AR   Ar   43   6.676   2.499   6.112
    1   AR   Ar   44   0.825   4.275   3.493
    1   AR   Ar   45   0.515   3.526   6.128
    1   AR   Ar   46   7.064   5.556   5.216
    1   AR   Ar   47   5.508   3.997   6.985
    1   AR   Ar   48   7.004   5.848   6.489
    1   AR   Ar   49   5.191   0.818  -1.242
    1   AR   Ar   50   4.792   4.812   0.888
    1   AR   Ar   51   6.575   4.755   1.634
    1   AR   Ar   52   6.600   4.599  -2.028
    1   AR   Ar   53   5.522   5.664   2.776
    1   AR   Ar   54   0.067   6.405   2.390
    1   AR   Ar   55   6.498   5.526   2.338
    1   AR   Ar   56   6.943   1.306   0.898
    1   AR   Ar   57   5.256   3.516   3.369
    1   AR   Ar   58   0.002   3.855   4.015
    1   AR   Ar   59   2.193   5.463   5.309
    1   AR   Ar   60   0.420   6.097   3.566
    1   AR   Ar   61   7.073   4.709   6.018
    1   AR   Ar   62   7.046   5.017   4.231
    1   AR   Ar   63   1.868   0.952   7.020
    1   AR   Ar   64   1.174   5.722   4.951
    1   AR   Ar   65   3.597   6.858   1.097
    1   AR   Ar   66   0.823   1.061   1.656
    1   AR   Ar   67   3.708   6.707  -0.626
    1   AR   Ar   68   2.489   1.670  -0.918
    1   AR   Ar   69   2.887   0.803   1.113
    1   AR   Ar   70   0.639   0.289   2.495
    1   AR   Ar   71   3.334   1.172   3.855
    1   AR   Ar   72   4.271   0.025   1.978
    1   AR   Ar   73   3.754   0.566   3.211
    1   AR   Ar   74   1.882   0.709   4.671
    1   AR   Ar   75   3.970   0.928   4.821
    1   AR   Ar   76   2.051   0.510   1.577
    1   AR   Ar   77   2.159   6.665   5.595
    1   AR   Ar   78   0.487   6.408   5.745
    1   AR   Ar   79   3.044   6.070   5.831
    1   AR   Ar   80   4.037   5.166   5.865
    1   AR   Ar   81   2.561   6.068  -0.448
    1   AR   Ar   82   6.667   5.526   0.016
    1   AR   Ar   83   0.361   2.634   0.773
    1   AR   Ar   84   0.134   3.985   1.068
    1   AR   Ar   85   1.320   3.713   0.934
    1   AR   Ar   86   1.672   4.876  -0.050
    1   AR   Ar   87   1.546   2.650   1.104
    1   AR   Ar   88   2.161   4.742   1.128
    1   AR   Ar   89   0.557   3.139   2.846
    1   AR   Ar   90   2.122   2.814   4.213
    1   AR   Ar   91   1.378   2.508   3.490
    1   AR   Ar   92   1.314   2.405   2.313
    1   AR   Ar   93   1.350   0.721   6.050
    1   AR   Ar   94   0.331   6.968  11.337
    1   AR   Ar   95   3.654   0.886   6.148
    1   AR   Ar   96   3.000   0.293   4.878
    1   AR   Ar   97   4.933   1.763  -0.228
    1   AR   Ar   98   2.186   5.210   2.688
    1   AR   Ar   99   6.241   1.276  -0.772
    1   AR   Ar  100   1.532   3.206  -0.715
    1   AR   Ar  101   3.630   4.602   1.218
    1   AR   Ar  102   3.606   2.495   3.522
    1   AR   Ar  103   0.872   5.009   1.188
    1   AR   Ar  104   3.156   4.118  -1.595
    1   AR   Ar  105   0.873   3.435   4.140
    1   AR   Ar  106   3.105   3.054   5.379
    1   AR   Ar  107   0.657   4.471   4.910
    1   AR   Ar  108   3.059   2.051   4.316
    1   AR   Ar  109   2.069   4.615   4.600
    1   AR   Ar  110   1.467   3.365   5.226
    1   AR   Ar  111   4.565   4.496   7.672
    1   AR   Ar  112   1.380   6.102   5.926
    1   AR   Ar  113   3.002   5.090   0.223
    1   AR   Ar  114   2.513   0.066  -1.049
    1   AR   Ar  115   2.318   5.195  -1.154
    1   AR   Ar  116   5.591   0.221  -0.521
    1   AR   Ar  117   1.110   5.046   4.160
    1   AR   Ar  118   1.620   5.795   3.350
    1   AR   Ar  119   2.223   3.065   3.013
    1   AR   Ar  120   2.069   6.647   2.078
    1   AR   Ar  121   5.928   4.355   5.560
    1   AR   Ar  122   2.896   6.331   4.628
    1   AR   Ar  123   3.726   4.072   4.827
    1   AR   Ar  124   1.720   5.731   1.591
    1   AR   Ar  125   6.859   3.781   5.070
    1   AR   Ar  126   7.114   6.459   4.758
    1   AR   Ar  127   3.997   3.990   6.674
    1   AR   Ar  128   3.085   4.764   6.691
    1   AR   Ar  129   2.559   6.337   3.223
    1   AR   Ar  130   4.306   3.011  -2.294
    1   AR   Ar  131   3.800   1.603   0.030
    1   AR   Ar  132   6.718   2.502  -0.505
    1   AR   Ar  133   4.441   6.091   2.621
    1   AR   Ar  134   4.298   1.377   3.807
    1   AR   Ar  135   5.897   0.841   2.708
    1   AR   Ar  136   5.227   6.729   2.300
    1   AR   Ar  137   2.600   5.362   3.760
    1   AR   Ar  138   4.476   1.353   5.692
    1   AR   Ar  139   5.550   2.592   5.293
    1   AR   Ar  140   3.775   6.912   4.373
    1   AR   Ar  141   3.948   5.011   4.329
    1   AR   Ar  142   3.238   7.055   6.052
    1   AR   Ar  143   6.326   0.016   5.675
    1   AR   Ar  144   6.880   1.905   4.855
    1   AR   Ar  145   4.925   4.259  -0.214
    1   AR   Ar  146   3.116   2.236   2.071
    1   AR   Ar  147   4.924   1.563  -1.903
    1   AR   Ar  148   3.374   5.697  -1.217
    1   AR   Ar  149   2.774   1.924   0.691
    1   AR   Ar  150   2.645   1.283   2.555
    1   AR   Ar  151   2.626   1.957   3.237
    1   AR   Ar  152   3.227   2.806  -0.272
    1   AR   Ar  153   4.769   7.007   3.770
    1   AR   Ar  154   4.221   2.229   4.722
    1   AR   Ar  155   6.811   0.174   6.644
    1   AR   Ar  156   3.806   3.608   3.907
    1   AR   Ar  157   1.409   3.614   6.846
    1   AR   Ar  158   0.484   2.660   6.986
    1   AR   Ar  159   4.905   1.530   7.069
    1   AR   Ar  160   2.060   1.969   5.214
    1   AR   Ar  161   5.439   3.465   2.297
    1   AR   Ar  162   4.819   5.947  -0.515
    1   AR   Ar  163   5.171   3.298   0.710
    1   AR   Ar  164   2.831   5.918   2.104
    1   AR   Ar  165   3.674   2.760   1.109
    1   AR   Ar  166   2.974   3.499   4.399
    1   AR   Ar  167   4.681   0.959   2.603
    1   AR   Ar  168   5.185   3.757  -1.111
    1   AR   Ar  169   3.027   3.648   2.571
    1   AR   Ar  170   2.666   4.194   5.793
    1   AR   Ar  171   6.129   3.884   4.162
    1   AR   Ar  172   4.783   4.549   5.145
    1   AR   Ar  173   2.944   3.475   7.164
    1   AR   Ar  174   2.602   5.785   6.851
    1   AR   Ar  175   2.684   2.565   6.114
    1   AR   Ar  176   3.622   2.093   5.899
    1   AR   Ar  177   6.967   4.946  -1.022
    1   AR   Ar  178   4.022   5.013  -0.405
    1   AR   Ar  179   4.213   5.956   0.350
    1   AR   Ar  180   1.269   1.144  -3.113
    1   AR   Ar  181   0.476   5.885   1.492
    1   AR   Ar  182   2.584   0.633   3.490
    1   AR   Ar  183   3.663   5.383   2.678
    1   AR   Ar  184   4.750   6.601   1.063
    1   AR   Ar  185   3.041   5.055   4.824
    1   AR   Ar  186   3.036   4.407   4.032
    1   AR   Ar  187   3.481   6.583   2.851
    1   AR   Ar  188   3.080   7.022   1.978
    1   AR   Ar  189   3.761   2.787   6.685
    1   AR   Ar  190   3.434   6.051   3.734
    1   AR   Ar  191   2.997   6.551   7.526
    1   AR   Ar  192   3.745   5.880   4.880
    1   AR   Ar  193   2.660   6.357   1.146
    1   AR   Ar  194   4.005   3.906  -1.083
    1   AR   Ar  195   5.727   1.001   0.456
    1   AR   Ar  196   4.475   0.305   0.212
    1   AR   Ar  197   3.855   0.971   1.011
    1   AR   Ar  198   6.055   1.580   1.702
    1   AR   Ar  199   3.779   1.603   2.895
    1   AR   Ar  200   5.585   2.468   0.025
    1   AR   Ar  201   5.637   5.914   4.096
    1   AR   Ar  202   5.839   1.970   4.520
    1   AR   Ar  203   6.354   6.361   3.259
    1   AR   Ar  204   4.515   6.630   5.171
    1   AR   Ar  205   6.745   0.131   2.169
    1   AR   Ar  206   5.090   0.988   4.531
    1   AR   Ar  207   0.821   1.649   6.103
    1   AR   Ar  208   6.786   0.216   3.467
    1   AR   Ar  209   6.727   2.581  -1.798
    1   AR   Ar  210   3.341   0.167   0.220
    1   AR   Ar  211   6.653   3.170   0.682
    1   AR   Ar  212   6.373   3.592  -1.457
    1   AR   Ar  213   3.609   0.809   2.110
    1   AR   Ar  214   4.420   3.003   2.882
    1   AR   Ar  215   5.837   2.917   1.527
    1   AR   Ar  216   0.539   3.238   1.728
    1   AR   Ar  217   5.433   3.180   4.451
    1   AR   Ar  218   4.271   3.245   5.155
    1   AR   Ar  219   4.675   2.361   3.650
    1   AR   Ar  220   4.242   4.109   2.098
    1   AR   Ar  221   5.779   6.345   5.343
    1   AR   Ar  222   4.654   0.582   6.395
    1   AR   Ar  223   6.919   1.311   6.290
    1   AR   Ar  224   4.635   2.966   6.175
    1   AR   Ar  225   6.395   2.863   2.722
    1   AR   Ar  226   1.969   3.810   3.650
    1   AR   Ar  227   6.509   3.629   1.947
    1   AR   Ar  228   6.142   6.389   1.837
    1   AR   Ar  229   5.293   4.786  -1.341
    1   AR   Ar  230   4.571   4.132   4.121
    1   AR   Ar  231   5.294   1.586   3.416
    1   AR   Ar  232   4.883   2.375   0.852
    1   AR   Ar  233   5.962   2.719   3.745
    1   AR   Ar  234   6.474   2.833   4.737
    1   AR   Ar  235   6.597   1.333   3.852
    1   AR   Ar  236   5.187   5.404   5.414
    1   AR   Ar  237   5.624   3.390   5.958
    1   AR   Ar  238   4.938   4.191   6.045
    1   AR   Ar  239   5.790   4.162   8.391
    1   AR   Ar  240   6.501   3.023   7.151
    1   AR   Ar  241   1.089   6.420  -0.551
    1   AR   Ar  242   5.742   4.954   0.202
    1   AR   Ar  243   5.254   4.561   2.698
    1   AR   Ar  244   0.759   5.344  -0.150
    1   AR   Ar  245   5.037   0.695   1.211
    1   AR   Ar  246   5.276   6.448   0.217
    1   AR   Ar  247   5.946   4.068   0.877
    1   AR   Ar  248   5.925   6.028  -0.635
    1   AR   Ar  249   3.986   5.863   1.791
    1   AR   Ar  250   4.763   5.635   4.564
    1   AR   Ar  251   5.352   4.699   4.029
    1   AR   Ar  252   4.551   5.333   3.532
    1   AR   Ar  253   6.648   3.744   6.018
    1   AR   Ar  254   2.414   2.147   9.463
    1   AR   Ar  255   3.900   3.491   9.059
    1   AR   Ar  256   6.685   4.909   3.222
    7.12000  7.12000 12.00000
Argon-slab step 3335
  256
    1   AR   Ar    1   6.116   1.684  -1.866
    1   AR   Ar    2   6.634   0.358   0.294
    1   AR   Ar    3   2.800   0.857  -0.300
    1   AR   Ar    4   1.365   0.670   0.022
    1   AR   Ar    5   7.061   6.931   1.168
    1   AR   Ar    6   7.095   1.217   2.317
    1   AR   Ar    7   6.117   3.936   2.904
    1   AR   Ar    8   5.986   0.159   1.278
    1   AR   Ar    9   1.455   6.897   3.116
    1   AR   Ar   10   0.777   0.396   3.925
    1   AR   Ar   11   1.954   6.326   4.123
    1   AR   Ar   12   0.782   1.268   2.913
    1   AR   Ar   13   0.457   0.685   5.016
    1   AR   Ar   14   6.496   2.135   7.774
    1   AR   Ar   15   4.884   6.663   8.502
    1   AR   Ar   16   1.047   6.819   4.638
    1   AR   Ar   17   6.423   2.105   0.513
    1   AR   Ar   18   6.062   4.068  -0.396
    1   AR   Ar   19   2.550   3.238   0.978
    1   AR   Ar   20   4.278   4.508  -2.008
    1   AR   Ar   21   4.271   1.553   1.825
    1   AR   Ar   22   6.149   1.791   2.788
    1   AR   Ar   23   0.251   1.052  -0.204
    1   AR   Ar   24   6.796   2.286   1.666
    1   AR   Ar   25   0.517   2.016   4.165
    1   AR   Ar   26   5.997   0.002   4.247
    1   AR   Ar   27   1.572   0.907   3.354
    1   AR   Ar   28   0.653   2.682   5.140
    1   AR   Ar   29   5.477   2.959   6.965
    1   AR   Ar   30   1.867   1.677   4.163
    1   AR   Ar   31   3.523   0.692   7.250
    1   AR   Ar   32   1.451   2.704   6.312
    1   AR   Ar   33   1.260   4.708  -0.864
    1   AR   Ar   34   0.577   5.157   2.582
    1   AR   Ar   35   5.963   5.678   0.958
    1   AR   Ar   36   6.162   0.943  -4.048
    1   AR   Ar   37   5.334   2.497   2.280
    1   AR   Ar   38   0.236   4.231   2.294
    1   AR   Ar   39   1.267   4.147   2.494
    1   AR   Ar   40   2.328   3.914   1.792
    1   AR   Ar   41   0.043   2.778   3.566
    1   AR   Ar   42   6.076   5.097   4.838
    1   AR   Ar   43   6.664   2.498   6.110
    1   AR   Ar   44   0.851   4.254   3.505
    1   AR   Ar   45   0.529   3.541   6.130
    1   AR   Ar   46   7.061   5.519   5.194
    1   AR   Ar   47   5.524   4.007   6.978
    1   AR   Ar   48   6.976   5.816   6.502
    1   AR   Ar   49   5.184   0.827  -1.259
    1   AR   Ar   50   4.781   4.806   0.876
    1   AR   Ar   51   6.595   4.783   1.632
    1   AR   Ar   52   6.589   4.573  -2.076
    1   AR   Ar   53   5.499   5.631   2.804
    1   AR   Ar   54   0.116   6.419   2.405
    1   AR   Ar   55   6.489   5.507   2.322
    1   AR   Ar   56   6.961   1.340   0.896
    1   AR   Ar   57   5.244   3.517   3.372
    1   AR   Ar   58   0.001   3.825   4.004
    1   AR   Ar   59   2.229   5.493   5.331
    1   AR   Ar   60   0.399   6.089   3.554
    1   AR   Ar   61   7.103   4.722   5.997
    1   AR   Ar   62   7.037   4.981   4.195
    1   AR   Ar   63   1.897   0.945   7.007
    1   AR   Ar   64   1.155   5.725   4.915
    1   AR   Ar   65   3.606   6.877   1.101
    1   AR   Ar   66   0.839   1.083   1.625
    1   AR   Ar   67   3.720   6.729  -0.626
    1   AR   Ar   68   2.492   1.675  -0.895
    1   AR   Ar   69   2.910   0.796   1.133
    1   AR   Ar   70   0.656   0.281   2.520
    1   AR   Ar   71   3.352   1.105   3.848
    1   AR   Ar   72   4.262   0.032   2.034
    1   AR   Ar   73   3.732   0.540   3.165
    1   AR   Ar   74   1.871   0.719   4.672
    1   AR   Ar   75   3.991   0.936   4.835
    1   AR   Ar   76   2.056   0.525   1.565
    1   AR   Ar   77   2.166   6.684   5.568
    1   AR   Ar   78   0.479   6.392   5.711
    1   AR   Ar   79   3.052   6.063   5.834
    1   AR   Ar   80   3.989   5.195   5.855
    1   AR   Ar   81   2.576   6.081  -0.438
    1   AR   Ar   82   6.647   5.511   0.043
    1   AR   Ar   83   0.363   2.609   0.776
    1   AR   Ar   84   0.136   4.016   1.054
    1   AR   Ar   85   1.330   3.727   0.958
    1   AR   Ar   86   1.698   4.888  -0.039
    1   AR   Ar   87   1.563   2.663   1.090
    1   AR   Ar   88   2.144   4.757   1.157
    1   AR   Ar   89   0.542   3.130   2.860
    1   AR   Ar   90   2.091   2.827   4.210
    1   AR   Ar   91   1.382   2.535   3.482
    1   AR   Ar   92   1.303   2.397   2.325
    1   AR   Ar   93   1.342   0.708   6.061
    1   AR   Ar   94   0.329   6.987  11.343
    1   AR   Ar   95   3.670   0.868   6.134
    1   AR   Ar   96   3.006   0.285   4.877
    1   AR   Ar   97   4.939   1.773  -0.218
    1   AR   Ar   98   2.138   5.172   2.696
    1   AR   Ar   99   6.247   1.283  -0.775
    1   AR   Ar  100   1.538   3.211  -0.731
    1   AR   Ar  101   3.624   4.636   1.229
    1   AR   Ar  102   3.591   2.506   3.541
    1   AR   Ar  103   0.822   4.985   1.158
    1   AR   Ar  104   3.152   4.125  -1.604
    1   AR   Ar  105   0.906   3.442   4.189
    1   AR   Ar  106   3.125   3.064   5.360
    1   AR   Ar  107   0.662   4.496   4.944
    1   AR   Ar  108   3.070   2.007   4.354
    1   AR   Ar  109   2.073   4.627   4.627
    1   AR   Ar  110   1.498   3.336   5.206
    1   AR   Ar  111   4.566   4.490   7.647
    1   AR   Ar  112   1.367   6.082   5.925
    1   AR   Ar  113   3.026   5.099   0.262
    1   AR   Ar  114   2.491   0.071  -1.065
    1   AR   Ar  115   2.351   5.216  -1.163
    1   AR   Ar  116   5.600   0.255  -0.483
    1   AR   Ar  117   1.101   5.060   4.136
    1   AR   Ar  118   1.614   5.797   3.366
    1   AR   Ar  119   2.222   3.048   2.983
    1   AR   Ar  120   2.063   6.655   2.107
    1   AR   Ar  121   5.938   4.321   5.547
    1   AR   Ar  122   2.918   6.329   4.669
    1   AR   Ar  123   3.727   4.074   4.855
    1   AR   Ar  124   1.745   5.703   1.593
    1   AR   Ar  125   6.856   3.779   5.060
    1   AR   Ar  126   7.112   6.515   4.773
    1   AR   Ar  127   4.011   3.981   6.707
    1   AR   Ar  128   3.051   4.741   6.707
    1   AR   Ar  129   2.556   6.303   3.233
    1   AR   Ar  130   4.304   2.976  -2.319
    1   AR   Ar  131   3.777   1.621   0.040
    1   AR   Ar  132   6.681   2.523  -0.458
    1   AR   Ar  133   4.462   6.089   2.638
    1   AR   Ar  134   4.297   1.359   3.792
    1   AR   Ar  135   5.901   0.872   2.691
    1   AR   Ar  136   5.241   6.728   2.313
    1   AR   Ar  137   2.574   5.328   3.735
    1   AR   Ar  138   4.481   1.352   5.695
    1   AR   Ar  139   5.548   2.586   5.259
    1   AR   Ar  140   3.802   6.908   4.378
    1   AR   Ar  141   3.963   4.989   4.351
    1   AR   Ar  142   3.220   7.017   6.028
    1   AR   Ar  143   6.329   0.015   5.670
    1   AR   Ar  144   6.858   1.915   4.829
    1   AR   Ar  145   4.933   4.245  -0.207
    1   AR   Ar  146   3.092   2.265   2.069
    1   AR   Ar  147   4.891   1.588  -1.877
    1   AR   Ar  148   3.367   5.743  -1.205
    1   AR   Ar  149   2.774   1.898   0.682
    1   AR   Ar  150   2.689   1.278   2.514
    1   AR   Ar  151   2.625   1.968   3.238
    1   AR   Ar  152   3.206   2.802  -0.315
    1   AR   Ar  153   4.777   7.010   3.756
    1   AR   Ar  154   4.225   2.250   4.697
    1   AR   Ar  155   6.796   0.143   6.665
    1   AR   Ar  156   3.807   3.629   3.883
    1   AR   Ar  157   1.384   3.622   6.843
    1   AR   Ar  158   0.469   2.637   6.996
    1   AR   Ar  159   4.918   1.501   7.049
    1   AR   Ar  160   2.086   1.996   5.231
    1   AR   Ar  161   5.442   3.481   2.294
    1   AR   Ar  162   4.809   5.916  -0.493
    1   AR   Ar  163   5.178   3.293   0.689
    1   AR   Ar  164   2.850   5.915   2.138
    1   AR   Ar  165   3.679   2.763   1.091
    1   AR   Ar  166   2.971   3.515   4.433
    1   AR   Ar  167   4.703   0.936   2.619
    1   AR   Ar  168   5.212   3.735  -1.128
    1   AR   Ar  169   2.995   3.667   2.573
    1   AR   Ar  170   2.676   4.188   5.771
    1   AR   Ar  171   6.121   3.911   4.119
    1   AR   Ar  172   4.774   4.524   5.126
    1   AR   Ar  173   2.974   3.470   7.151
    1   AR   Ar  174   2.586   5.786   6.839
    1   AR   Ar  175   2.718   2.549   6.101
    1   AR   Ar  176   3.609   2.107   5.887
    1   AR   Ar  177   6.954   4.967  -1.048
    1   AR   Ar  178   4.012   5.010  -0.409
    1   AR   Ar  179   4.211   5.962   0.329
    1   AR   Ar  180   1.277   1.123  -3.117
    1   AR   Ar  181   0.492   5.892   1.479
    1   AR   Ar  182   2.588   0.609   3.522
    1   AR   Ar  183   3.702   5.377   2.660
    1   AR   Ar  184   4.789   6.606   1.071
    1   AR   Ar  185   3.069   5.073   4.858
    1   AR   Ar  186   3.012   4.385   4.019
    1   AR   Ar  187   3.497   6.613   2.859
    1   AR   Ar  188   3.038   7.042   1.960
    1   AR   Ar  189   3.765   2.774   6.673
    1   AR   Ar  190   3.405   6.009   3.722
    1   AR   Ar  191   3.000   6.560   7.527
    1   AR   Ar  192   3.744   5.890   4.863
    1   AR   Ar  193   2.648   6.362   1.177
    1   AR   Ar  194   3.999   3.932  -1.100
    1   AR   Ar  195   5.690   0.968   0.467
    1   AR   Ar  196   4.464   0.301   0.188
    1   AR   Ar  197   3.868   1.004   0.983
    1   AR   Ar  198   6.002   1.577   1.702
    1   AR   Ar  199   3.807   1.560   2.896
    1   AR   Ar  200   5.619   2.467   0.024
    1   AR   Ar  201   5.631   5.922   4.087
    1   AR   Ar  202   5.869   1.947   4.550
    1   AR   Ar  203   6.338   6.359   3.246
    1   AR   Ar  204   4.516   6.618   5.152
    1   AR   Ar  205   6.761   0.153   2.177
    1   AR   Ar  206   5.073   0.971   4.535
    1   AR   Ar  207   0.824   1.652   6.105
    1   AR   Ar  208   6.810   0.236   3.475
    1   AR   Ar  209   6.762   2.584  -1.820
    1   AR   Ar  210   3.320   0.152   0.216
    1   AR   Ar  211   6.661   3.177   0.699
    1   AR   Ar  212   6.402   3.618  -1.429
    1   AR   Ar  213   3.598   0.789   2.087
    1   AR   Ar  214   4.418   3.001   2.848
    1   AR   Ar  215   5.839   2.923   1.495
    1   AR   Ar  216   0.534   3.205   1.702
    1   AR   Ar  217   5.450   3.156   4.439
    1   AR   Ar  218   4.272   3.234   5.159
    1   AR   Ar  219   4.671   2.365   3.648
    1   AR   Ar  220   4.241   4.109   2.093
    1   AR   Ar  221   5.794   6.306   5.355
    1   AR   Ar  222   4.668   0.574   6.374
    1   AR   Ar  223   6.913   1.306   6.280
    1   AR   Ar  224   4.643   2.987   6.123
    1   AR   Ar  225   6.392   2.847   2.729
    1   AR   Ar  226   1.938   3.801   3.666
    1   AR   Ar  227   6.518   3.661   1.932
    1   AR   Ar  228   6.095   6.384   1.817
    1   AR   Ar  229   5.301   4.841  -1.337
    1   AR   Ar  230   4.536   4.145   4.145
    1   AR   Ar  231   5.278   1.567   3.428
    1   AR   Ar  232   4.883   2.395   0.858
    1   AR   Ar  233   5.975   2.698   3.765
    1   AR   Ar  234   6.471   2.873   4.746
    1   AR   Ar  235   6.580   1.282   3.821
    1   AR   Ar  236   5.233   5.380   5.415
    1   AR   Ar  237   5.653   3.393   5.953
    1   AR   Ar  238   4.943   4.253   6.038
    1   AR   Ar  239   5.842   4.153   8.415
    1   AR   Ar  240   6.510   3.001   7.161
    1   AR   Ar  241   1.097   6.412  -0.565
    1   AR   Ar  242   5.751   4.967   0.199
    1   AR   Ar  243   5.240   4.569   2.726
    1   AR   Ar  244   0.742   5.354  -0.135
    1   AR   Ar  245   5.027   0.695   1.206
    1   AR   Ar  246   5.288   6.481   0.210
    1   AR   Ar  247   5.962   4.091   0.892
    1   AR   Ar  248   5.952   6.036  -0.649
    1   AR   Ar  249   3.993   5.837   1.774
    1   AR   Ar  250   4.754   5.635   4.573
    1   AR   Ar  251   5.358   4.701   3.996
    1   AR   Ar  252   4.555   5.334   3.534
    1   AR   Ar  253   6.686   3.754   6.054
    1   AR   Ar  254   2.457   2.148   9.438
    1   AR   Ar  255   3.890   3.526   9.078
    1   AR   Ar  256   6.688   4.897   3.242
    7.12000  7.12000 12.00000
Argon-slab step 3340
  256
    1   AR   Ar    1   6.124   1.669  -1.873
    1   AR   Ar    2   6.618   0.385   0.304
    1   AR   Ar    3   2.805   0.850  -0.320
    1   AR   Ar    4   1.381   0.671   0.055
    1   AR   Ar    5   7.049   6.933   1.196
    1   AR   Ar    6   7.074   1.231   2.316
    1   AR   Ar    7   6.132   3.964   2.888
    1   AR   Ar    8   5.973   0.150   1.239
    1   AR   Ar    9   1.469   6.884   3.120
    1   AR   Ar   10   0.767   0.422   3.879
    1   AR   Ar   11   1.996   6.306   4.099
    1   AR   Ar   12   0.796   1.307   2.919
    1   AR   Ar   13   0.475   0.667   5.037
    1   AR   Ar   14   6.478   2.130   7.770
    1   AR   Ar   15   4.905   6.646   8.491
    1   AR   Ar   16   1.035   6.819   4.636
    1   AR   Ar   17   6.403   2.128   0.527
    1   AR   Ar   18   6.061   4.073  -0.388
    1   AR   Ar   19   2.583   3.248   0.974
    1   AR   Ar   20   4.287   4.529  -2.013
    1   AR   Ar   21   4.218   1.601   1.832
    1   AR   Ar   22   6.157   1.828   2.800
    1   AR   Ar   23   0.240   1.028  -0.168
    1   AR   Ar   24   6.823   2.249   1.674
    1   AR   Ar   25   0.499   2.043   4.185
    1   AR   Ar   26   6.017   7.112   4.197
    1   AR   Ar   27   1.584   0.892   3.373
    1   AR   Ar   28   0.607   2.675   5.127
    1   AR   Ar   29   5.462   2.979   6.924
    1   AR   Ar   30   1.850   1.637   4.189
    1   AR   Ar   31   3.529   0.690   7.243
    1   AR   Ar   32   1.467   2.697   6.304
    1   AR   Ar   33   1.244   4.700  -0.871
    1   AR   Ar   34   0.578   5.157   2.611
    1   AR   Ar   35   5.962   5.663   0.910
    1   AR   Ar   36   6.136   0.966  -4.027
    1   AR   Ar   37   5.334   2.498   2.290
    1   AR   Ar   38   0.254   4.283   2.283
    1   AR   Ar   39   1.287   4.166   2.446
    1   AR   Ar   40   2.320   3.867   1.794
    1   AR   Ar   41   0.049   2.767   3.578
    1   AR   Ar   42   6.050   5.070   4.802
    1   AR   Ar   43   6.653   2.499   6.108
    1   AR   Ar   44   0.877   4.233   3.513
    1   AR   Ar   45   0.553   3.553   6.131
    1   AR   Ar   46   7.058   5.482   5.172
    1   AR   Ar   47   5.540   4.020   6.970
    1   AR   Ar   48   6.948   5.784   6.513
    1   AR   Ar   49   5.179   0.834  -1.275
    1   AR   Ar   50   4.771   4.800   0.863
    1   AR   Ar   51   6.617   4.803   1.623
    1   AR   Ar   52   6.578   4.547  -2.122
    1   AR   Ar   53   5.475   5.601   2.833
    1   AR   Ar   54   0.168   6.425   2.423
    1   AR   Ar   55   6.482   5.493   2.313
    1   AR   Ar   56   6.983   1.367   0.898
    1   AR   Ar   57   5.248   3.494   3.380
    1   AR   Ar   58   7.117   3.798   3.989
    1   AR   Ar   59   2.262   5.528   5.353
    1   AR   Ar   60   0.378   6.081   3.542
    1   AR   Ar   61   0.013   4.738   5.974
    1   AR   Ar   62   7.030   4.944   4.166
    1   AR   Ar   63   1.926   0.938   6.993
    1   AR   Ar   64   1.136   5.731   4.882
    1   AR   Ar   65   3.623   6.893   1.108
    1   AR   Ar   66   0.841   1.113   1.613
    1   AR   Ar   67   3.732   6.749  -0.626
    1   AR   Ar   68   2.495   1.682  -0.874
    1   AR   Ar   69   2.920   0.811   1.156
    1   AR   Ar   70   0.675   0.272   2.545
    1   AR   Ar   71   3.363   1.052   3.859
    1   AR   Ar   72   4.256   0.032   2.089
    1   AR   Ar   73   3.753   0.514   3.130
    1   AR   Ar   74   1.860   0.725   4.673
    1   AR   Ar   75   4.010   0.943   4.846
    1   AR   Ar   76   2.052   0.537   1.559
    1   AR   Ar   77   2.175   6.705   5.537
    1   AR   Ar   78   0.481   6.380   5.691
    1   AR   Ar   79   3.052   6.069   5.821
    1   AR   Ar   80   3.940   5.223   5.844
    1   AR   Ar   81   2.593   6.095  -0.428
    1   AR   Ar   82   6.629   5.497   0.071
    1   AR   Ar   83   0.356   2.561   0.775
    1   AR   Ar   84   0.138   4.048   1.042
    1   AR   Ar   85   1.340   3.743   0.983
    1   AR   Ar   86   1.712   4.897  -0.003
    1   AR   Ar   87   1.568   2.671   1.083
    1   AR   Ar   88   2.114   4.779   1.187
    1   AR   Ar   89   0.543   3.134   2.853
    1   AR   Ar   90   2.059   2.814   4.201
    1   AR   Ar   91   1.411   2.559   3.473
    1   AR   Ar   92   1.292   2.390   2.336
    1   AR   Ar   93   1.334   0.693   6.071
    1   AR   Ar   94   0.326   7.006  11.350
    1   AR   Ar   95   3.683   0.851   6.121
    1   AR   Ar   96   3.010   0.280   4.877
    1   AR   Ar   97   4.939   1.776  -0.209
    1   AR   Ar   98   2.092   5.132   2.701
    1   AR   Ar   99   6.257   1.308  -0.771
    1   AR   Ar  100   1.545   3.215  -0.727
    1   AR   Ar  101   3.619   4.672   1.240
    1   AR   Ar  102   3.576   2.517   3.559
    1   AR   Ar  103   0.774   4.953   1.125
    1   AR   Ar  104   3.142   4.135  -1.618
    1   AR   Ar  105   0.949   3.441   4.242
    1   AR   Ar  106   3.152   3.077   5.336
    1   AR   Ar  107   0.666   4.520   4.978
    1   AR   Ar  108   3.078   1.965   4.393
    1   AR   Ar  109   2.077   4.638   4.653
    1   AR   Ar  110   1.531   3.307   5.186
    1   AR   Ar  111   4.585   4.450   7.626
    1   AR   Ar  112   1.369   6.055   5.929
    1   AR   Ar  113   3.050   5.109   0.302
    1   AR   Ar  114   2.469   0.076  -1.079
    1   AR   Ar  115   2.384   5.236  -1.170
    1   AR   Ar  116   5.610   0.287  -0.441
    1   AR   Ar  117   1.094   5.073   4.108
    1   AR   Ar  118   1.600   5.793   3.375
    1   AR   Ar  119   2.220   3.026   2.952
    1   AR   Ar  120   2.053   6.662   2.139
    1   AR   Ar  121   5.948   4.291   5.533
    1   AR   Ar  122   2.922   6.333   4.708
    1   AR   Ar  123   3.743   4.075   4.880
    1   AR   Ar  124   1.770   5.675   1.595
    1   AR   Ar  125   6.857   3.782   5.045
    1   AR   Ar  126   7.109   6.573   4.784
    1   AR   Ar  127   4.025   3.972   6.739
    1   AR   Ar  128   3.017   4.716   6.721
    1   AR   Ar  129   2.528   6.297   3.236
    1   AR   Ar  130   4.302   2.941  -2.343
    1   AR   Ar  131   3.754   1.638   0.052
    1   AR   Ar  132   6.703   2.521  -0.448
    1   AR   Ar  133   4.487   6.090   2.663
    1   AR   Ar  134   4.308   1.341   3.781
    1   AR   Ar  135   5.901   0.885   2.671
    1   AR   Ar  136   5.254   6.730   2.327
    1   AR   Ar  137   2.546   5.294   3.713
    1   AR   Ar  138   4.489   1.357   5.696
    1   AR   Ar  139   5.548   2.578   5.241
    1   AR   Ar  140   3.831   6.905   4.381
    1   AR   Ar  141   3.975   4.966   4.369
    1   AR   Ar  142   3.203   6.991   6.006
    1   AR   Ar  143   6.334   0.017   5.665
    1   AR   Ar  144   6.839   1.919   4.808
    1   AR   Ar  145   4.941   4.233  -0.198
    1   AR   Ar  146   3.068   2.293   2.068
    1   AR   Ar  147   4.858   1.618  -1.854
    1   AR   Ar  148   3.360   5.788  -1.191
    1   AR   Ar  149   2.775   1.872   0.674
    1   AR   Ar  150   2.734   1.266   2.467
    1   AR   Ar  151   2.623   1.985   3.248
    1   AR   Ar  152   3.185   2.797  -0.356
    1   AR   Ar  153   4.784   7.013   3.743
    1   AR   Ar  154   4.228   2.270   4.670
    1   AR   Ar  155   6.783   0.113   6.684
    1   AR   Ar  156   3.792   3.632   3.843
    1   AR   Ar  157   1.359   3.631   6.842
    1   AR   Ar  158   0.454   2.614   7.003
    1   AR   Ar  159   4.930   1.471   7.029
    1   AR   Ar  160   2.113   2.024   5.248
    1   AR   Ar  161   5.439   3.508   2.289
    1   AR   Ar  162   4.801   5.880  -0.480
    1   AR   Ar  163   5.191   3.306   0.664
    1   AR   Ar  164   2.871   5.911   2.174
    1   AR   Ar  165   3.683   2.765   1.074
    1   AR   Ar  166   2.955   3.513   4.473
    1   AR   Ar  167   4.726   0.911   2.637
    1   AR   Ar  168   5.240   3.713  -1.147
    1   AR   Ar  169   2.967   3.687   2.578
    1   AR   Ar  170   2.673   4.167   5.775
    1   AR   Ar  171   6.108   3.940   4.076
    1   AR   Ar  172   4.759   4.498   5.090
    1   AR   Ar  173   3.004   3.466   7.137
    1   AR   Ar  174   2.570   5.786   6.826
    1   AR   Ar  175   2.740   2.530   6.098
    1   AR   Ar  176   3.603   2.115   5.869
    1   AR   Ar  177   6.940   4.988  -1.072
    1   AR   Ar  178   4.003   5.007  -0.413
    1   AR   Ar  179   4.206   5.968   0.314
    1   AR   Ar  180   1.284   1.102  -3.121
    1   AR   Ar  181   0.505   5.905   1.469
    1   AR   Ar  182   2.580   0.576   3.548
    1   AR   Ar  183   3.737   5.368   2.648
    1   AR   Ar  184   4.816   6.609   1.089
    1   AR   Ar  185   3.057   5.090   4.849
    1   AR   Ar  186   2.989   4.376   3.999
    1   AR   Ar  187   3.498   6.628   2.875
    1   AR   Ar  188   2.994   7.062   1.945
    1   AR   Ar  189   3.766   2.765   6.666
    1   AR   Ar  190   3.382   5.964   3.715
    1   AR   Ar  191   3.004   6.569   7.528
    1   AR   Ar  192   3.760   5.894   4.851
    1   AR   Ar  193   2.628   6.343   1.191
    1   AR   Ar  194   4.008   3.957  -1.105
    1   AR   Ar  195   5.657   0.936   0.474
    1   AR   Ar  196   4.454   0.295   0.166
    1   AR   Ar  197   3.891   1.045   0.946
    1   AR   Ar  198   5.948   1.572   1.702
    1   AR   Ar  199   3.832   1.521   2.892
    1   AR   Ar  200   5.653   2.476   0.021
    1   AR   Ar  201   5.628   5.930   4.076
    1   AR   Ar  202   5.895   1.918   4.572
    1   AR   Ar  203   6.323   6.356   3.232
    1   AR   Ar  204   4.519   6.606   5.134
    1   AR   Ar  205   6.771   0.182   2.184
    1   AR   Ar  206   5.057   0.954   4.538
    1   AR   Ar  207   0.828   1.658   6.107
    1   AR   Ar  208   6.835   0.255   3.482
    1   AR   Ar  209   6.796   2.588  -1.841
    1   AR   Ar  210   3.301   0.138   0.211
    1   AR   Ar  211   6.660   3.187   0.717
    1   AR   Ar  212   6.430   3.645  -1.400
    1   AR   Ar  213   3.582   0.776   2.065
    1   AR   Ar  214   4.415   3.001   2.811
    1   AR   Ar  215   5.846   2.929   1.454
    1   AR   Ar  216   0.529   3.172   1.676
    1   AR   Ar  217   5.454   3.142   4.432
    1   AR   Ar  218   4.273   3.222   5.162
    1   AR   Ar  219   4.667   2.374   3.649
    1   AR   Ar  220   4.240   4.109   2.088
    1   AR   Ar  221   5.807   6.264   5.363
    1   AR   Ar  222   4.684   0.563   6.356
    1   AR   Ar  223   6.907   1.300   6.270
    1   AR   Ar  224   4.655   3.009   6.073
    1   AR   Ar  225   6.389   2.832   2.735
    1   AR   Ar  226   1.905   3.794   3.685
    1   AR   Ar  227   6.528   3.691   1.915
    1   AR   Ar  228   6.052   6.377   1.796
    1   AR   Ar  229   5.309   4.895  -1.332
    1   AR   Ar  230   4.522   4.165   4.176
    1   AR   Ar  231   5.268   1.543   3.439
    1   AR   Ar  232   4.868   2.403   0.883
    1   AR   Ar  233   5.997   2.670   3.772
    1   AR   Ar  234   6.467   2.914   4.751
    1   AR   Ar  235   6.562   1.232   3.790
    1   AR   Ar  236   5.284   5.358   5.426
    1   AR   Ar  237   5.683   3.394   5.951
    1   AR   Ar  238   4.949   4.310   6.046
    1   AR   Ar  239   5.893   4.144   8.439
    1   AR   Ar  240   6.521   2.983   7.167
    1   AR   Ar  241   1.106   6.403  -0.578
    1   AR   Ar  242   5.756   4.976   0.194
    1   AR   Ar  243   5.226   4.575   2.756
    1   AR   Ar  244   0.726   5.366  -0.130
    1   AR   Ar  245   5.011   0.694   1.206
    1   AR   Ar  246   5.306   6.517   0.200
    1   AR   Ar  247   5.980   4.113   0.907
    1   AR   Ar  248   5.976   6.044  -0.662
    1   AR   Ar  249   3.998   5.812   1.746
    1   AR   Ar  250   4.742   5.637   4.577
    1   AR   Ar  251   5.372   4.709   3.962
    1   AR   Ar  252   4.560   5.336   3.534
    1   AR   Ar  253   6.712   3.761   6.099
    1   AR   Ar  254   2.500   2.148   9.413
    1   AR   Ar  255   3.880   3.562   9.097
    1   AR   Ar  256   6.688   4.883   3.255
    7.12000  7.12000 12.00000
Argon-slab step 3345
  256
    1   AR   Ar    1   6.133   1.651  -1.853
    1   AR   Ar    2   6.601   0.412   0.315
    1   AR   Ar    3   2.808   0.845  -0.340
    1   AR   Ar    4   1.397   0.672   0.089
    1   AR   Ar    5   7.037   6.933   1.225
    1   AR   Ar    6   7.048   1.245   2.312
    1   AR   Ar    7   6.152   3.994   2.878
    1   AR   Ar    8   5.960   0.143   1.197
    1   AR   Ar    9   1.483   6.870   3.126
    1   AR   Ar   10   0.756   0.449   3.833
    1   AR   Ar   11   2.040   6.294   4.092
    1   AR   Ar   12   0.806   1.352   2.923
    1   AR   Ar   13   0.494   0.647   5.058
    1   AR   Ar   14   6.461   2.121   7.744
    1   AR   Ar   15   4.925   6.629   8.480
    1   AR   Ar   16   1.026   6.817   4.634
    1   AR   Ar   17   6.391   2.148   0.551
    1   AR   Ar   18   6.027   4.092  -0.385
    1   AR   Ar   19   2.617   3.255   0.969
    1   AR   Ar   20   4.296   4.550  -2.017
    1   AR   Ar   21   4.167   1.651   1.839
    1   AR   Ar   22   6.167   1.873   2.815
    1   AR   Ar   23   0.230   1.004  -0.132
    1   AR   Ar   24   6.850   2.213   1.682
    1   AR   Ar   25   0.490   2.068   4.200
    1   AR   Ar   26   6.037   7.101   4.147
    1   AR   Ar   27   1.604   0.868   3.376
    1   AR   Ar   28   0.560   2.669   5.114
    1   AR   Ar   29   5.452   2.989   6.895
    1   AR   Ar   30   1.834   1.604   4.211
    1   AR   Ar   31   3.535   0.687   7.235
    1   AR   Ar   32   1.470   2.696   6.304
    1   AR   Ar   33   1.223   4.695  -0.896
    1   AR   Ar   34   0.586   5.162   2.639
    1   AR   Ar   35   5.961   5.654   0.869
    1   AR   Ar   36   6.109   0.990  -4.006
    1   AR   Ar   37   5.347   2.481   2.256
    1   AR   Ar   38   0.265   4.325   2.267
    1   AR   Ar   39   1.311   4.185   2.399
    1   AR   Ar   40   2.307   3.822   1.794
    1   AR   Ar   41   0.041   2.750   3.605
    1   AR   Ar   42   6.027   5.043   4.759
    1   AR   Ar   43   6.642   2.501   6.106
    1   AR   Ar   44   0.901   4.211   3.517
    1   AR   Ar   45   0.587   3.560   6.130
    1   AR   Ar   46   7.056   5.444   5.150
    1   AR   Ar   47   5.556   4.035   6.962
    1   AR   Ar   48   6.921   5.752   6.522
    1   AR   Ar   49   5.176   0.838  -1.288
    1   AR   Ar   50   4.761   4.794   0.849
    1   AR   Ar   51   6.641   4.815   1.606
    1   AR   Ar   52   6.566   4.521  -2.167
    1   AR   Ar   53   5.453   5.574   2.864
    1   AR   Ar   54   0.220   6.426   2.442
    1   AR   Ar   55   6.475   5.489   2.314
    1   AR   Ar   56   7.007   1.390   0.903
    1   AR   Ar   57   5.251   3.472   3.390
    1   AR   Ar   58   7.115   3.772   3.972
    1   AR   Ar   59   2.289   5.564   5.375
    1   AR   Ar   60   0.358   6.073   3.529
    1   AR   Ar   61   0.044   4.753   5.949
    1   AR   Ar   62   7.030   4.907   4.152
    1   AR   Ar   63   1.956   0.932   6.979
    1   AR   Ar   64   1.117   5.741   4.854
    1   AR   Ar   65   3.645   6.908   1.120
    1   AR   Ar   66   0.842   1.143   1.602
    1   AR   Ar   67   3.745   6.768  -0.626
    1   AR   Ar   68   2.497   1.692  -0.853
    1   AR   Ar   69   2.929   0.832   1.178
    1   AR   Ar   70   0.693   0.264   2.571
    1   AR   Ar   71   3.373   1.010   3.885
    1   AR   Ar   72   4.255   0.025   2.143
    1   AR   Ar   73   3.780   0.480   3.087
    1   AR   Ar   74   1.849   0.726   4.676
    1   AR   Ar   75   4.026   0.948   4.854
    1   AR   Ar   76   2.041   0.546   1.558
    1   AR   Ar   77   2.185   6.726   5.505
    1   AR   Ar   78   0.471   6.373   5.668
    1   AR   Ar   79   3.051   6.054   5.804
    1   AR   Ar   80   3.891   5.250   5.829
    1   AR   Ar   81   2.610   6.108  -0.418
    1   AR   Ar   82   6.619   5.484   0.096
    1   AR   Ar   83   0.351   2.509   0.774
    1   AR   Ar   84   0.146   4.072   1.045
    1   AR   Ar   85   1.350   3.761   1.010
    1   AR   Ar   86   1.694   4.900   0.048
    1   AR   Ar   87   1.535   2.658   1.099
    1   AR   Ar   88   2.086   4.797   1.214
    1   AR   Ar   89   0.556   3.148   2.827
    1   AR   Ar   90   2.079   2.796   4.220
    1   AR   Ar   91   1.431   2.570   3.447
    1   AR   Ar   92   1.279   2.383   2.348
    1   AR   Ar   93   1.327   0.677   6.078
    1   AR   Ar   94   0.323   7.025  11.356
    1   AR   Ar   95   3.690   0.835   6.108
    1   AR   Ar   96   3.013   0.276   4.878
    1   AR   Ar   97   4.935   1.773  -0.200
    1   AR   Ar   98   2.047   5.092   2.704
    1   AR   Ar   99   6.266   1.334  -0.765
    1   AR   Ar  100   1.552   3.220  -0.722
    1   AR   Ar  101   3.615   4.708   1.251
    1   AR   Ar  102   3.562   2.528   3.577
    1   AR   Ar  103   0.728   4.919   1.092
    1   AR   Ar  104   3.127   4.148  -1.634
    1   AR   Ar  105   0.995   3.437   4.296
    1   AR   Ar  106   3.185   3.089   5.318
    1   AR   Ar  107   0.642   4.532   4.977
    1   AR   Ar  108   3.086   1.924   4.433
    1   AR   Ar  109   2.080   4.649   4.677
    1   AR   Ar  110   1.565   3.278   5.166
    1   AR   Ar  111   4.568   4.457   7.599
    1   AR   Ar  112   1.383   6.041   5.939
    1   AR   Ar  113   3.066   5.089   0.282
    1   AR   Ar  114   2.449   0.079  -1.092
    1   AR   Ar  115   2.417   5.256  -1.176
    1   AR   Ar  116   5.621   0.318  -0.396
    1   AR   Ar  117   1.087   5.085   4.076
    1   AR   Ar  118   1.574   5.781   3.375
    1   AR   Ar  119   2.218   3.003   2.920
    1   AR   Ar  120   2.040   6.668   2.172
    1   AR   Ar  121   5.958   4.265   5.516
    1   AR   Ar  122   2.907   6.344   4.745
    1   AR   Ar  123   3.753   4.085   4.919
    1   AR   Ar  124   1.793   5.651   1.601
    1   AR   Ar  125   6.862   3.796   5.030
    1   AR   Ar  126   7.102   6.632   4.792
    1   AR   Ar  127   4.038   3.961   6.769
    1   AR   Ar  128   2.984   4.692   6.735
    1   AR   Ar  129   2.494   6.301   3.230
    1   AR   Ar  130   4.300   2.907  -2.367
    1   AR   Ar  131   3.730   1.657   0.062
    1   AR   Ar  132   6.726   2.522  -0.438
    1   AR   Ar  133   4.514   6.094   2.692
    1   AR   Ar  134   4.328   1.324   3.776
    1   AR   Ar  135   5.894   0.882   2.658
    1   AR   Ar  136   5.266   6.735   2.343
    1   AR   Ar  137   2.515   5.261   3.691
    1   AR   Ar  138   4.501   1.369   5.694
    1   AR   Ar  139   5.570   2.559   5.254
    1   AR   Ar  140   3.860   6.902   4.379
    1   AR   Ar  141   3.982   4.950   4.386
    1   AR   Ar  142   3.188   6.984   5.986
    1   AR   Ar  143   6.343   0.020   5.659
    1   AR   Ar  144   6.831   1.921   4.797
    1   AR   Ar  145   4.949   4.222  -0.188
    1   AR   Ar  146   3.045   2.320   2.068
    1   AR   Ar  147   4.823   1.653  -1.833
    1   AR   Ar  148   3.355   5.834  -1.175
    1   AR   Ar  149   2.778   1.846   0.666
    1   AR   Ar  150   2.777   1.251   2.420
    1   AR   Ar  151   2.621   2.004   3.261
    1   AR   Ar  152   3.163   2.790  -0.396
    1   AR   Ar  153   4.790   7.016   3.730
    1   AR   Ar  154   4.230   2.286   4.643
    1   AR   Ar  155   6.769   0.082   6.703
    1   AR   Ar  156   3.767   3.623   3.794
    1   AR   Ar  157   1.334   3.641   6.841
    1   AR   Ar  158   0.438   2.591   7.009
    1   AR   Ar  159   4.934   1.505   7.046
    1   AR   Ar  160   2.140   2.054   5.263
    1   AR   Ar  161   5.434   3.539   2.281
    1   AR   Ar  162   4.797   5.841  -0.477
    1   AR   Ar  163   5.209   3.333   0.635
    1   AR   Ar  164   2.892   5.907   2.211
    1   AR   Ar  165   3.687   2.765   1.057
    1   AR   Ar  166   2.930   3.504   4.508
    1   AR   Ar  167   4.748   0.886   2.655
    1   AR   Ar  168   5.240   3.708  -1.156
    1   AR   Ar  169   2.944   3.707   2.586
    1   AR   Ar  170   2.668   4.141   5.785
    1   AR   Ar  171   6.091   3.968   4.034
    1   AR   Ar  172   4.744   4.476   5.051
    1   AR   Ar  173   3.035   3.463   7.121
    1   AR   Ar  174   2.555   5.786   6.812
    1   AR   Ar  175   2.749   2.514   6.103
    1   AR   Ar  176   3.609   2.116   5.843
    1   AR   Ar  177   6.926   5.009  -1.096
    1   AR   Ar  178   3.995   5.005  -0.417
    1   AR   Ar  179   4.198   5.973   0.318
    1   AR   Ar  180   1.292   1.081  -3.126
    1   AR   Ar  181   0.517   5.921   1.462
    1   AR   Ar  182   2.562   0.534   3.570
    1   AR   Ar  183   3.767   5.354   2.641
    1   AR   Ar  184   4.840   6.614   1.114
    1   AR   Ar  185   3.045   5.106   4.841
    1   AR   Ar  186   2.967   4.377   3.974
    1   AR   Ar  187   3.475   6.618   2.905
    1   AR   Ar  188   2.950   7.080   1.931
    1   AR   Ar  189   3.767   2.759   6.660
    1   AR   Ar  190   3.367   5.916   3.713
    1   AR   Ar  191   3.007   6.579   7.529
    1   AR   Ar  192   3.790   5.892   4.845
    1   AR   Ar  193   2.605   6.308   1.195
    1   AR   Ar  194   4.016   3.941  -1.125
    1   AR   Ar  195   5.630   0.908   0.475
    1   AR   Ar  196   4.444   0.289   0.146
    1   AR   Ar  197   3.921   1.084   0.909
    1   AR   Ar  198   5.894   1.567   1.701
    1   AR   Ar  199   3.853   1.489   2.883
    1   AR   Ar  200   5.679   2.496   0.012
    1   AR   Ar  201   5.628   5.938   4.063
    1   AR   Ar  202   5.908   1.883   4.583
    1   AR   Ar  203   6.308   6.352   3.218
    1   AR   Ar  204   4.526   6.593   5.117
    1   AR   Ar  205   6.774   0.215   2.191
    1   AR   Ar  206   5.041   0.939   4.539
    1   AR   Ar  207   0.832   1.666   6.108
    1   AR   Ar  208   6.862   0.271   3.486
    1   AR   Ar  209   6.830   2.591  -1.861
    1   AR   Ar  210   3.283   0.122   0.207
    1   AR   Ar  211   6.654   3.201   0.735
    1   AR   Ar  212   6.457   3.672  -1.371
    1   AR   Ar  213   3.566   0.770   2.043
    1   AR   Ar  214   4.412   3.002   2.777
    1   AR   Ar  215   5.856   2.934   1.412
    1   AR   Ar  216   0.524   3.140   1.652
    1   AR   Ar  217   5.445   3.141   4.426
    1   AR   Ar  218   4.275   3.211   5.159
    1   AR   Ar  219   4.664   2.386   3.653
    1   AR   Ar  220   4.239   4.109   2.084
    1   AR   Ar  221   5.821   6.221   5.367
    1   AR   Ar  222   4.702   0.550   6.340
    1   AR   Ar  223   6.900   1.295   6.260
    1   AR   Ar  224   4.670   3.030   6.029
    1   AR   Ar  225   6.387   2.824   2.738
    1   AR   Ar  226   1.873   3.789   3.704
    1   AR   Ar  227   6.538   3.719   1.895
    1   AR   Ar  228   6.016   6.365   1.775
    1   AR   Ar  229   5.315   4.915  -1.317
    1   AR   Ar  230   4.525   4.180   4.199
    1   AR   Ar  231   5.265   1.518   3.448
    1   AR   Ar  232   4.848   2.398   0.910
    1   AR   Ar  233   6.026   2.636   3.768
    1   AR   Ar  234   6.461   2.949   4.754
    1   AR   Ar  235   6.542   1.187   3.759
    1   AR   Ar  236   5.332   5.335   5.444
    1   AR   Ar  237   5.712   3.392   5.950
    1   AR   Ar  238   4.957   4.364   6.065
    1   AR   Ar  239   5.944   4.135   8.462
    1   AR   Ar  240   6.529   2.977   7.163
    1   AR   Ar  241   1.115   6.393  -0.591
    1   AR   Ar  242   5.753   4.977   0.184
    1   AR   Ar  243   5.209   4.578   2.786
    1   AR   Ar  244   0.715   5.380  -0.139
    1   AR   Ar  245   5.001   0.688   1.209
    1   AR   Ar  246   5.330   6.553   0.186
    1   AR   Ar  247   5.998   4.134   0.923
    1   AR   Ar  248   5.999   6.051  -0.674
    1   AR   Ar  249   3.999   5.822   1.723
    1   AR   Ar  250   4.733   5.641   4.579
    1   AR   Ar  251   5.389   4.721   3.927
    1   AR   Ar  252   4.566   5.339   3.530
    1   AR   Ar  253   6.725   3.767   6.148
    1   AR   Ar  254   2.542   2.149   9.387
    1   AR   Ar  255   3.870   3.597   9.116
    1   AR   Ar  256   6.684   4.868   3.254
    7.12000  7.12000 12.00000
Argon-slab step 3350
  256
    1   AR   Ar    1   6.142   1.633  -1.833
    1   AR   Ar    2   6.581   0.437   0.328
    1   AR   Ar    3   2.811   0.842  -0.360
    1   AR   Ar    4   1.413   0.673   0.122
    1   AR   Ar    5   7.041   6.933   1.239
    1   AR   Ar    6   7.020   1.261   2.308
    1   AR   Ar    7   6.175   4.025   2.872
    1   AR   Ar    8   5.947   0.137   1.156
    1   AR   Ar    9   1.499   6.856   3.135
    1   AR   Ar   10   0.744   0.474   3.788
    1   AR   Ar   11   2.080   6.287   4.106
    1   AR   Ar   12   0.814   1.399   2.927
    1   AR   Ar   13   0.513   0.627   5.078
    1   AR   Ar   14   6.444   2.110   7.712
    1   AR   Ar   15   4.946   6.612   8.470
    1   AR   Ar   16   1.020   6.816   4.632
    1   AR   Ar   17   6.390   2.164   0.586
    1   AR   Ar   18   5.994   4.110  -0.383
    1   AR   Ar   19   2.652   3.259   0.962
    1   AR   Ar   20   4.305   4.570  -2.019
    1   AR   Ar   21   4.117   1.702   1.845
    1   AR   Ar   22   6.175   1.908   2.831
    1   AR   Ar   23   0.222   0.983  -0.096
    1   AR   Ar   24   6.875   2.178   1.690
    1   AR   Ar   25   0.494   2.089   4.212
    1   AR   Ar   26   6.056   7.089   4.097
    1   AR   Ar   27   1.626   0.834   3.349
    1   AR   Ar   28   0.511   2.664   5.102
    1   AR   Ar   29   5.466   2.974   6.920
    1   AR   Ar   30   1.818   1.582   4.227
    1   AR   Ar   31   3.541   0.684   7.226
    1   AR   Ar   32   1.475   2.692   6.297
    1   AR   Ar   33   1.206   4.687  -0.898
    1   AR   Ar   34   0.611   5.159   2.654
    1   AR   Ar   35   5.977   5.639   0.874
    1   AR   Ar   36   6.083   1.014  -3.986
    1   AR   Ar   37   5.360   2.460   2.223
    1   AR   Ar   38   0.268   4.353   2.246
    1   AR   Ar   39   1.337   4.204   2.352
    1   AR   Ar   40   2.287   3.780   1.793
    1   AR   Ar   41   0.024   2.734   3.634
    1   AR   Ar   42   6.010   5.015   4.711
    1   AR   Ar   43   6.632   2.505   6.102
    1   AR   Ar   44   0.923   4.189   3.517
    1   AR   Ar   45   0.627   3.563   6.124
    1   AR   Ar   46   7.055   5.410   5.125
    1   AR   Ar   47   5.573   4.053   6.952
    1   AR   Ar   48   6.894   5.721   6.529
    1   AR   Ar   49   5.175   0.841  -1.297
    1   AR   Ar   50   4.752   4.789   0.834
    1   AR   Ar   51   6.666   4.820   1.579
    1   AR   Ar   52   6.554   4.495  -2.209
    1   AR   Ar   53   5.435   5.552   2.897
    1   AR   Ar   54   0.271   6.423   2.462
    1   AR   Ar   55   6.467   5.492   2.323
    1   AR   Ar   56   7.033   1.409   0.911
    1   AR   Ar   57   5.254   3.450   3.400
    1   AR   Ar   58   7.115   3.747   3.954
    1   AR   Ar   59   2.305   5.598   5.394
    1   AR   Ar   60   0.337   6.064   3.517
    1   AR   Ar   61   0.075   4.767   5.925
    1   AR   Ar   62   7.037   4.870   4.154
    1   AR   Ar   63   1.985   0.925   6.964
    1   AR   Ar   64   1.097   5.755   4.831
    1   AR   Ar   65   3.653   6.906   1.088
    1   AR   Ar   66   0.855   1.145   1.599
    1   AR   Ar   67   3.758   6.784  -0.627
    1   AR   Ar   68   2.450   1.723  -0.862
    1   AR   Ar   69   2.943   0.853   1.196
    1   AR   Ar   70   0.712   0.260   2.598
    1   AR   Ar   71   3.383   0.973   3.919
    1   AR   Ar   72   4.256   0.012   2.197
    1   AR   Ar   73   3.810   0.441   3.044
    1   AR   Ar   74   1.838   0.717   4.682
    1   AR   Ar   75   4.033   0.966   4.863
    1   AR   Ar   76   2.022   0.552   1.561
    1   AR   Ar   77   2.195   6.746   5.471
    1   AR   Ar   78   0.459   6.368   5.660
    1   AR   Ar   79   3.056   6.023   5.787
    1   AR   Ar   80   3.841   5.277   5.812
    1   AR   Ar   81   2.623   6.114  -0.409
    1   AR   Ar   82   6.619   5.474   0.116
    1   AR   Ar   83   0.348   2.454   0.773
    1   AR   Ar   84   0.152   4.087   1.053
    1   AR   Ar   85   1.359   3.780   1.039
    1   AR   Ar   86   1.678   4.903   0.103
    1   AR   Ar   87   1.516   2.638   1.119
    1   AR   Ar   88   2.061   4.803   1.236
    1   AR   Ar   89   0.573   3.167   2.796
    1   AR   Ar   90   2.103   2.779   4.243
    1   AR   Ar   91   1.442   2.565   3.401
    1   AR   Ar   92   1.267   2.377   2.360
    1   AR   Ar   93   1.319   0.660   6.085
    1   AR   Ar   94   0.320   7.044  11.362
    1   AR   Ar   95   3.687   0.824   6.126
    1   AR   Ar   96   3.034   0.247   4.876
    1   AR   Ar   97   4.930   1.767  -0.190
    1   AR   Ar   98   2.002   5.051   2.704
    1   AR   Ar   99   6.274   1.359  -0.758
    1   AR   Ar  100   1.549   3.203  -0.729
    1   AR   Ar  101   3.611   4.745   1.262
    1   AR   Ar  102   3.548   2.539   3.596
    1   AR   Ar  103   0.687   4.887   1.059
    1   AR   Ar  104   3.122   4.135  -1.641
    1   AR   Ar  105   1.040   3.431   4.348
    1   AR   Ar  106   3.225   3.091   5.319
    1   AR   Ar  107   0.600   4.536   4.952
    1   AR   Ar  108   3.093   1.885   4.473
    1   AR   Ar  109   2.081   4.659   4.700
    1   AR   Ar  110   1.602   3.247   5.150
    1   AR   Ar  111   4.552   4.464   7.571
    1   AR   Ar  112   1.406   6.035   5.952
    1   AR   Ar  113   3.082   5.070   0.262
    1   AR   Ar  114   2.429   0.082  -1.103
    1   AR   Ar  115   2.448   5.274  -1.181
    1   AR   Ar  116   5.632   0.348  -0.353
    1   AR   Ar  117   1.079   5.095   4.041
    1   AR   Ar  118   1.540   5.765   3.368
    1   AR   Ar  119   2.217   2.980   2.887
    1   AR   Ar  120   2.023   6.670   2.207
    1   AR   Ar  121   5.929   4.276   5.496
    1   AR   Ar  122   2.884   6.355   4.780
    1   AR   Ar  123   3.757   4.096   4.960
    1   AR   Ar  124   1.812   5.639   1.613
    1   AR   Ar  125   6.872   3.822   5.021
    1   AR   Ar  126   7.091   6.692   4.796
    1   AR   Ar  127   4.052   3.949   6.798
    1   AR   Ar  128   2.966   4.690   6.748
    1   AR   Ar  129   2.466   6.306   3.208
    1   AR   Ar  130   4.299   2.872  -2.390
    1   AR   Ar  131   3.704   1.677   0.069
    1   AR   Ar  132   6.757   2.535  -0.428
    1   AR   Ar  133   4.538   6.100   2.722
    1   AR   Ar  134   4.349   1.306   3.777
    1   AR   Ar  135   5.886   0.874   2.647
    1   AR   Ar  136   5.276   6.746   2.362
    1   AR   Ar  137   2.481   5.232   3.671
    1   AR   Ar  138   4.516   1.387   5.692
    1   AR   Ar  139   5.588   2.541   5.277
    1   AR   Ar  140   3.886   6.901   4.373
    1   AR   Ar  141   3.981   4.961   4.420
    1   AR   Ar  142   3.175   6.996   5.969
    1   AR   Ar  143   6.353   0.024   5.653
    1   AR   Ar  144   6.836   1.922   4.797
    1   AR   Ar  145   4.936   4.248  -0.194
    1   AR   Ar  146   3.022   2.347   2.069
    1   AR   Ar  147   4.788   1.691  -1.815
    1   AR   Ar  148   3.351   5.879  -1.159
    1   AR   Ar  149   2.782   1.819   0.658
    1   AR   Ar  150   2.814   1.241   2.377
    1   AR   Ar  151   2.619   2.022   3.275
    1   AR   Ar  152   3.142   2.783  -0.435
    1   AR   Ar  153   4.797   7.020   3.717
    1   AR   Ar  154   4.230   2.299   4.615
    1   AR   Ar  155   6.756   0.052   6.721
    1   AR   Ar  156   3.738   3.610   3.743
    1   AR   Ar  157   1.313   3.652   6.845
    1   AR   Ar  158   0.423   2.568   7.011
    1   AR   Ar  159   4.930   1.510   7.081
    1   AR   Ar  160   2.152   2.057   5.272
    1   AR   Ar  161   5.425   3.571   2.272
    1   AR   Ar  162   4.799   5.800  -0.481
    1   AR   Ar  163   5.229   3.365   0.603
    1   AR   Ar  164   2.913   5.904   2.249
    1   AR   Ar  165   3.691   2.764   1.040
    1   AR   Ar  166   2.895   3.498   4.525
    1   AR   Ar  167   4.770   0.861   2.673
    1   AR   Ar  168   5.223   3.715  -1.160
    1   AR   Ar  169   2.928   3.727   2.599
    1   AR   Ar  170   2.665   4.116   5.793
    1   AR   Ar  171   6.075   3.994   3.992
    1   AR   Ar  172   4.738   4.466   5.037
    1   AR   Ar  173   3.066   3.461   7.103
    1   AR   Ar  174   2.592   5.777   6.823
    1   AR   Ar  175   2.746   2.503   6.113
    1   AR   Ar  176   3.626   2.109   5.809
    1   AR   Ar  177   6.910   5.029  -1.118
    1   AR   Ar  178   3.988   5.004  -0.420
    1   AR   Ar  179   4.186   5.980   0.332
    1   AR   Ar  180   1.299   1.061  -3.130
    1   AR   Ar  181   0.528   5.938   1.456
    1   AR   Ar  182   2.540   0.485   3.588
    1   AR   Ar  183   3.795   5.338   2.638
    1   AR   Ar  184   4.861   6.621   1.143
    1   AR   Ar  185   3.035   5.120   4.831
    1   AR   Ar  186   2.948   4.379   3.948
    1   AR   Ar  187   3.453   6.606   2.932
    1   AR   Ar  188   2.907   7.096   1.917
    1   AR   Ar  189   3.768   2.755   6.656
    1   AR   Ar  190   3.355   5.867   3.715
    1   AR   Ar  191   3.011   6.590   7.528
    1   AR   Ar  192   3.818   5.887   4.842
    1   AR   Ar  193   2.583   6.273   1.198
    1   AR   Ar  194   4.030   3.924  -1.143
    1   AR   Ar  195   5.608   0.886   0.470
    1   AR   Ar  196   4.434   0.282   0.127
    1   AR   Ar  197   3.954   1.119   0.875
    1   AR   Ar  198   5.840   1.561   1.701
    1   AR   Ar  199   3.869   1.463   2.869
    1   AR   Ar  200   5.693   2.525  -0.007
    1   AR   Ar  201   5.628   5.946   4.049
    1   AR   Ar  202   5.901   1.842   4.581
    1   AR   Ar  203   6.293   6.348   3.202
    1   AR   Ar  204   4.537   6.582   5.104
    1   AR   Ar  205   6.775   0.246   2.199
    1   AR   Ar  206   5.028   0.923   4.539
    1   AR   Ar  207   0.835   1.677   6.109
    1   AR   Ar  208   6.857   0.276   3.496
    1   AR   Ar  209   6.863   2.596  -1.880
    1   AR   Ar  210   3.265   0.105   0.205
    1   AR   Ar  211   6.646   3.217   0.753
    1   AR   Ar  212   6.483   3.699  -1.342
    1   AR   Ar  213   3.558   0.767   2.017
    1   AR   Ar  214   4.410   3.003   2.761
    1   AR   Ar  215   5.867   2.937   1.369
    1   AR   Ar  216   0.518   3.109   1.629
    1   AR   Ar  217   5.430   3.148   4.420
    1   AR   Ar  218   4.273   3.203   5.142
    1   AR   Ar  219   4.662   2.400   3.656
    1   AR   Ar  220   4.240   4.109   2.081
    1   AR   Ar  221   5.838   6.183   5.369
    1   AR   Ar  222   4.721   0.535   6.327
    1   AR   Ar  223   6.894   1.290   6.249
    1   AR   Ar  224   4.691   3.049   5.999
    1   AR   Ar  225   6.387   2.832   2.738
    1   AR   Ar  226   1.843   3.783   3.725
    1   AR   Ar  227   6.548   3.746   1.873
    1   AR   Ar  228   5.986   6.355   1.754
    1   AR   Ar  229   5.321   4.913  -1.296
    1   AR   Ar  230   4.535   4.171   4.189
    1   AR   Ar  231   5.272   1.492   3.454
    1   AR   Ar  232   4.828   2.388   0.939
    1   AR   Ar  233   6.059   2.598   3.758
    1   AR   Ar  234   6.452   2.974   4.751
    1   AR   Ar  235   6.519   1.151   3.730
    1   AR   Ar  236   5.372   5.305   5.468
    1   AR   Ar  237   5.740   3.384   5.950
    1   AR   Ar  238   4.965   4.416   6.087
    1   AR   Ar  239   5.995   4.125   8.485
    1   AR   Ar  240   6.530   2.988   7.143
    1   AR   Ar  241   1.124   6.382  -0.603
    1   AR   Ar  242   5.738   4.968   0.167
    1   AR   Ar  243   5.191   4.575   2.817
    1   AR   Ar  244   0.703   5.394  -0.148
    1   AR   Ar  245   4.992   0.678   1.218
    1   AR   Ar  246   5.354   6.589   0.171
    1   AR   Ar  247   6.017   4.154   0.939
    1   AR   Ar  248   6.021   6.058  -0.684
    1   AR   Ar  249   3.999   5.843   1.699
    1   AR   Ar  250   4.733   5.643   4.581
    1   AR   Ar  251   5.405   4.739   3.890
    1   AR   Ar  252   4.571   5.342   3.526
    1   AR   Ar  253   6.730   3.772   6.198
    1   AR   Ar  254   2.585   2.150   9.362
    1   AR   Ar  255   3.860   3.633   9.135
    1   AR   Ar  256   6.674   4.853   3.236
    7.12000  7.12000 12.00000
Argon-slab step 3355
  256
    1   AR   Ar    1   6.149   1.616  -1.812
    1   AR   Ar    2   6.559   0.460   0.343
    1   AR   Ar    3   2.813   0.841  -0.381
    1   AR   Ar    4   1.436   0.677   0.127
    1   AR   Ar    5   7.049   6.932   1.249
    1   AR   Ar    6   6.991   1.279   2.304
    1   AR   Ar    7   6.198   4.051   2.866
    1   AR   Ar    8   5.933   0.130   1.117
    1   AR   Ar    9   1.513   6.842   3.147
    1   AR   Ar   10   0.731   0.498   3.744
    1   AR   Ar   11   2.112   6.281   4.133
    1   AR   Ar   12   0.821   1.447   2.930
    1   AR   Ar   13   0.533   0.605   5.097
    1   AR   Ar   14   6.427   2.096   7.681
    1   AR   Ar   15   4.967   6.595   8.459
    1   AR   Ar   16   1.016   6.817   4.630
    1   AR   Ar   17   6.396   2.177   0.629
    1   AR   Ar   18   5.963   4.124  -0.382
    1   AR   Ar   19   2.687   3.260   0.952
    1   AR   Ar   20   4.308   4.582  -2.024
    1   AR   Ar   21   4.068   1.754   1.850
    1   AR   Ar   22   6.180   1.924   2.843
    1   AR   Ar   23   0.217   0.965  -0.062
    1   AR   Ar   24   6.899   2.145   1.698
    1   AR   Ar   25   0.514   2.103   4.221
    1   AR   Ar   26   6.072   7.074   4.049
    1   AR   Ar   27   1.645   0.803   3.320
    1   AR   Ar   28   0.463   2.663   5.093
    1   AR   Ar   29   5.479   2.958   6.944
    1   AR   Ar   30   1.803   1.574   4.235
    1   AR   Ar   31   3.547   0.681   7.216
    1   AR   Ar   32   1.483   2.687   6.284
    1   AR   Ar   33   1.197   4.668  -0.854
    1   AR   Ar   34   0.642   5.171   2.677
    1   AR   Ar   35   5.989   5.631   0.891
    1   AR   Ar   36   6.056   1.038  -3.965
    1   AR   Ar   37   5.373   2.439   2.192
    1   AR   Ar   38   0.265   4.365   2.218
    1   AR   Ar   39   1.332   4.216   2.338
    1   AR   Ar   40   2.261   3.740   1.791
    1   AR   Ar   41   0.001   2.723   3.657
    1   AR   Ar   42   5.999   4.988   4.660
    1   AR   Ar   43   6.621   2.510   6.098
    1   AR   Ar   44   0.938   4.167   3.512
    1   AR   Ar   45   0.664   3.564   6.110
    1   AR   Ar   46   7.053   5.380   5.098
    1   AR   Ar   47   5.599   4.074   6.986
    1   AR   Ar   48   6.867   5.689   6.534
    1   AR   Ar   49   5.177   0.842  -1.304
    1   AR   Ar   50   4.743   4.783   0.817
    1   AR   Ar   51   6.692   4.823   1.548
    1   AR   Ar   52   6.542   4.468  -2.250
    1   AR   Ar   53   5.423   5.538   2.931
    1   AR   Ar   54   0.319   6.418   2.481
    1   AR   Ar   55   6.458   5.501   2.339
    1   AR   Ar   56   7.061   1.424   0.920
    1   AR   Ar   57   5.258   3.429   3.408
    1   AR   Ar   58   7.117   3.723   3.937
    1   AR   Ar   59   2.298   5.625   5.406
    1   AR   Ar   60   0.318   6.054   3.505
    1   AR   Ar   61   0.105   4.778   5.904
    1   AR   Ar   62   7.047   4.832   4.166
    1   AR   Ar   63   2.015   0.918   6.949
    1   AR   Ar   64   1.078   5.771   4.814
    1   AR   Ar   65   3.665   6.902   1.064
    1   AR   Ar   66   0.871   1.140   1.601
    1   AR   Ar   67   3.773   6.798  -0.627
    1   AR   Ar   68   2.402   1.755  -0.871
    1   AR   Ar   69   2.959   0.875   1.208
    1   AR   Ar   70   0.731   0.261   2.626
    1   AR   Ar   71   3.394   0.937   3.955
    1   AR   Ar   72   4.260   7.112   2.246
    1   AR   Ar   73   3.840   0.405   3.007
    1   AR   Ar   74   1.827   0.693   4.695
    1   AR   Ar   75   4.032   0.992   4.871
    1   AR   Ar   76   2.000   0.557   1.567
    1   AR   Ar   77   2.203   6.768   5.439
    1   AR   Ar   78   0.450   6.365   5.674
    1   AR   Ar   79   3.077   5.992   5.777
    1   AR   Ar   80   3.793   5.301   5.793
    1   AR   Ar   81   2.616   6.088  -0.407
    1   AR   Ar   82   6.631   5.466   0.129
    1   AR   Ar   83   0.345   2.399   0.771
    1   AR   Ar   84   0.149   4.086   1.061
    1   AR   Ar   85   1.367   3.801   1.070
    1   AR   Ar   86   1.663   4.906   0.159
    1   AR   Ar   87   1.507   2.616   1.140
    1   AR   Ar   88   2.040   4.788   1.248
    1   AR   Ar   89   0.591   3.188   2.764
    1   AR   Ar   90   2.127   2.761   4.266
    1   AR   Ar   91   1.448   2.563   3.368
    1   AR   Ar   92   1.253   2.371   2.369
    1   AR   Ar   93   1.320   0.664   6.060
    1   AR   Ar   94   0.317   7.062  11.369
    1   AR   Ar   95   3.681   0.817   6.150
    1   AR   Ar   96   3.055   0.225   4.874
    1   AR   Ar   97   4.923   1.760  -0.179
    1   AR   Ar   98   1.958   5.010   2.701
    1   AR   Ar   99   6.281   1.384  -0.749
    1   AR   Ar  100   1.546   3.187  -0.735
    1   AR   Ar  101   3.607   4.783   1.274
    1   AR   Ar  102   3.534   2.548   3.614
    1   AR   Ar  103   0.657   4.871   1.027
    1   AR   Ar  104   3.124   4.126  -1.648
    1   AR   Ar  105   1.076   3.426   4.392
    1   AR   Ar  106   3.272   3.084   5.338
    1   AR   Ar  107   0.560   4.540   4.926
    1   AR   Ar  108   3.100   1.847   4.513
    1   AR   Ar  109   2.081   4.668   4.721
    1   AR   Ar  110   1.644   3.214   5.142
    1   AR   Ar  111   4.539   4.471   7.545
    1   AR   Ar  112   1.432   6.029   5.965
    1   AR   Ar  113   3.098   5.051   0.242
    1   AR   Ar  114   2.409   0.084  -1.113
    1   AR   Ar  115   2.443   5.304  -1.168
    1   AR   Ar  116   5.645   0.374  -0.323
    1   AR   Ar  117   1.071   5.101   4.005
    1   AR   Ar  118   1.503   5.749   3.357
    1   AR   Ar  119   2.219   2.959   2.850
    1   AR   Ar  120   2.002   6.669   2.242
    1   AR   Ar  121   5.902   4.292   5.473
    1   AR   Ar  122   2.863   6.362   4.811
    1   AR   Ar  123   3.752   4.106   5.002
    1   AR   Ar  124   1.824   5.646   1.637
    1   AR   Ar  125   6.888   3.860   5.016
    1   AR   Ar  126   7.075   6.752   4.797
    1   AR   Ar  127   4.064   3.935   6.822
    1   AR   Ar  128   2.969   4.723   6.761
    1   AR   Ar  129   2.443   6.311   3.174
    1   AR   Ar  130   4.298   2.838  -2.412
    1   AR   Ar  131   3.703   1.695   0.059
    1   AR   Ar  132   6.788   2.548  -0.417
    1   AR   Ar  133   4.558   6.108   2.752
    1   AR   Ar  134   4.366   1.288   3.784
    1   AR   Ar  135   5.879   0.865   2.636
    1   AR   Ar  136   5.284   6.763   2.384
    1   AR   Ar  137   2.441   5.210   3.652
    1   AR   Ar  138   4.533   1.408   5.690
    1   AR   Ar  139   5.604   2.525   5.306
    1   AR   Ar  140   3.908   6.902   4.363
    1   AR   Ar  141   3.975   4.979   4.454
    1   AR   Ar  142   3.164   7.017   5.952
    1   AR   Ar  143   6.364   0.028   5.645
    1   AR   Ar  144   6.850   1.923   4.808
    1   AR   Ar  145   4.923   4.275  -0.200
    1   AR   Ar  146   3.000   2.374   2.070
    1   AR   Ar  147   4.753   1.732  -1.797
    1   AR   Ar  148   3.350   5.924  -1.143
    1   AR   Ar  149   2.787   1.794   0.650
    1   AR   Ar  150   2.834   1.241   2.342
    1   AR   Ar  151   2.617   2.039   3.290
    1   AR   Ar  152   3.120   2.774  -0.473
    1   AR   Ar  153   4.803   7.024   3.703
    1   AR   Ar  154   4.228   2.307   4.588
    1   AR   Ar  155   6.744   0.022   6.738
    1   AR   Ar  156   3.708   3.596   3.692
    1   AR   Ar  157   1.298   3.663   6.854
    1   AR   Ar  158   0.409   2.546   7.012
    1   AR   Ar  159   4.923   1.505   7.115
    1   AR   Ar  160   2.143   2.065   5.275
    1   AR   Ar  161   5.416   3.602   2.260
    1   AR   Ar  162   4.805   5.757  -0.489
    1   AR   Ar  163   5.249   3.400   0.570
    1   AR   Ar  164   2.933   5.902   2.286
    1   AR   Ar  165   3.695   2.761   1.023
    1   AR   Ar  166   2.853   3.501   4.526
    1   AR   Ar  167   4.793   0.836   2.691
    1   AR   Ar  168   5.206   3.723  -1.163
    1   AR   Ar  169   2.916   3.749   2.616
    1   AR   Ar  170   2.662   4.089   5.799
    1   AR   Ar  171   6.063   4.014   3.953
    1   AR   Ar  172   4.745   4.469   5.055
    1   AR   Ar  173   3.096   3.460   7.084
    1   AR   Ar  174   2.643   5.766   6.840
    1   AR   Ar  175   2.735   2.496   6.127
    1   AR   Ar  176   3.616   2.098   5.814
    1   AR   Ar  177   6.894   5.049  -1.139
    1   AR   Ar  178   3.981   5.002  -0.424
    1   AR   Ar  179   4.171   5.987   0.351
    1   AR   Ar  180   1.306   1.040  -3.134
    1   AR   Ar  181   0.539   5.955   1.451
    1   AR   Ar  182   2.521   0.428   3.607
    1   AR   Ar  183   3.822   5.320   2.637
    1   AR   Ar  184   4.881   6.628   1.174
    1   AR   Ar  185   3.026   5.133   4.820
    1   AR   Ar  186   2.933   4.378   3.924
    1   AR   Ar  187   3.432   6.590   2.956
    1   AR   Ar  188   2.868   7.109   1.903
    1   AR   Ar  189   3.770   2.754   6.651
    1   AR   Ar  190   3.355   5.831   3.714
    1   AR   Ar  191   3.014   6.600   7.526
    1   AR   Ar  192   3.833   5.885   4.844
    1   AR   Ar  193   2.563   6.241   1.203
    1   AR   Ar  194   4.056   3.905  -1.141
    1   AR   Ar  195   5.591   0.876   0.467
    1   AR   Ar  196   4.421   0.283   0.108
    1   AR   Ar  197   3.990   1.149   0.847
    1   AR   Ar  198   5.788   1.556   1.700
    1   AR   Ar  199   3.853   1.444   2.863
    1   AR   Ar  200   5.699   2.559  -0.031
    1   AR   Ar  201   5.630   5.953   4.034
    1   AR   Ar  202   5.876   1.797   4.571
    1   AR   Ar  203   6.280   6.344   3.185
    1   AR   Ar  204   4.555   6.573   5.096
    1   AR   Ar  205   6.773   0.275   2.208
    1   AR   Ar  206   5.020   0.908   4.537
    1   AR   Ar  207   0.838   1.690   6.109
    1   AR   Ar  208   6.859   0.266   3.497
    1   AR   Ar  209   6.894   2.600  -1.898
    1   AR   Ar  210   3.246   0.089   0.202
    1   AR   Ar  211   6.641   3.234   0.768
    1   AR   Ar  212   6.508   3.727  -1.312
    1   AR   Ar  213   3.571   0.760   1.986
    1   AR   Ar  214   4.407   3.005   2.744
    1   AR   Ar  215   5.876   2.938   1.331
    1   AR   Ar  216   0.512   3.080   1.607
    1   AR   Ar  217   5.410   3.157   4.415
    1   AR   Ar  218   4.269   3.199   5.112
    1   AR   Ar  219   4.662   2.416   3.657
    1   AR   Ar  220   4.241   4.109   2.079
    1   AR   Ar  221   5.860   6.153   5.368
    1   AR   Ar  222   4.742   0.519   6.314
    1   AR   Ar  223   6.887   1.286   6.238
    1   AR   Ar  224   4.719   3.065   5.984
    1   AR   Ar  225   6.392   2.862   2.735
    1   AR   Ar  226   1.822   3.774   3.745
    1   AR   Ar  227   6.558   3.769   1.849
    1   AR   Ar  228   5.965   6.362   1.744
    1   AR   Ar  229   5.326   4.909  -1.272
    1   AR   Ar  230   4.546   4.142   4.144
    1   AR   Ar  231   5.266   1.487   3.479
    1   AR   Ar  232   4.809   2.377   0.968
    1   AR   Ar  233   6.092   2.558   3.748
    1   AR   Ar  234   6.440   2.988   4.745
    1   AR   Ar  235   6.488   1.132   3.704
    1   AR   Ar  236   5.404   5.268   5.496
    1   AR   Ar  237   5.767   3.373   5.953
    1   AR   Ar  238   4.973   4.467   6.111
    1   AR   Ar  239   6.045   4.116   8.507
    1   AR   Ar  240   6.532   3.004   7.119
    1   AR   Ar  241   1.134   6.371  -0.614
    1   AR   Ar  242   5.715   4.952   0.146
    1   AR   Ar  243   5.170   4.563   2.848
    1   AR   Ar  244   0.690   5.407  -0.157
    1   AR   Ar  245   4.974   0.665   1.237
    1   AR   Ar  246   5.379   6.622   0.157
    1   AR   Ar  247   6.036   4.173   0.954
    1   AR   Ar  248   6.041   6.063  -0.692
    1   AR   Ar  249   3.999   5.867   1.674
    1   AR   Ar  250   4.749   5.644   4.581
    1   AR   Ar  251   5.415   4.764   3.851
    1   AR   Ar  252   4.574   5.344   3.523
    1   AR   Ar  253   6.730   3.777   6.247
    1   AR   Ar  254   2.628   2.151   9.337
    1   AR   Ar  255   3.850   3.668   9.153
    1   AR   Ar  256   6.662   4.841   3.209
    7.12000  7.12000 12.00000
Argon-slab step 3360
  256
    1   AR   Ar    1   6.153   1.606  -1.789
    1   AR   Ar    2   6.535   0.480   0.358
    1   AR   Ar    3   2.813   0.843  -0.401
    1   AR   Ar    4   1.459   0.680   0.133
    1   AR   Ar    5   7.056   6.931   1.260
    1   AR   Ar    6   6.963   1.300   2.302
    1   AR   Ar    7   6.214   4.066   2.856
    1   AR   Ar    8   5.919   0.119   1.082
    1   AR   Ar    9   1.525   6.829   3.164
    1   AR   Ar   10   0.720   0.522   3.703
    1   AR   Ar   11   2.136   6.274   4.163
    1   AR   Ar   12   0.827   1.494   2.934
    1   AR   Ar   13   0.506   0.603   5.132
    1   AR   Ar   14   6.410   2.081   7.651
    1   AR   Ar   15   4.987   6.579   8.448
    1   AR   Ar   16   1.015   6.821   4.626
    1   AR   Ar   17   6.401   2.189   0.675
    1   AR   Ar   18   5.935   4.132  -0.386
    1   AR   Ar   19   2.722   3.260   0.940
    1   AR   Ar   20   4.302   4.580  -2.033
    1   AR   Ar   21   4.018   1.807   1.852
    1   AR   Ar   22   6.182   1.927   2.828
    1   AR   Ar   23   0.218   0.951  -0.031
    1   AR   Ar   24   6.920   2.117   1.706
    1   AR   Ar   25   0.551   2.108   4.227
    1   AR   Ar   26   6.081   7.058   4.005
    1   AR   Ar   27   1.658   0.777   3.287
    1   AR   Ar   28   0.415   2.668   5.087
    1   AR   Ar   29   5.489   2.940   6.966
    1   AR   Ar   30   1.788   1.577   4.238
    1   AR   Ar   31   3.553   0.676   7.207
    1   AR   Ar   32   1.472   2.673   6.269
    1   AR   Ar   33   1.187   4.651  -0.809
    1   AR   Ar   34   0.666   5.187   2.679
    1   AR   Ar   35   5.998   5.627   0.918
    1   AR   Ar   36   6.038   1.051  -3.946
    1   AR   Ar   37   5.385   2.419   2.163
    1   AR   Ar   38   0.259   4.370   2.188
    1   AR   Ar   39   1.280   4.218   2.373
    1   AR   Ar   40   2.230   3.702   1.789
    1   AR   Ar   41   7.095   2.717   3.672
    1   AR   Ar   42   5.993   4.963   4.611
    1   AR   Ar   43   6.611   2.516   6.094
    1   AR   Ar   44   0.943   4.147   3.503
    1   AR   Ar   45   0.693   3.562   6.084
    1   AR   Ar   46   7.048   5.358   5.066
    1   AR   Ar   47   5.626   4.094   7.018
    1   AR   Ar   48   6.841   5.658   6.536
    1   AR   Ar   49   5.180   0.844  -1.309
    1   AR   Ar   50   4.735   4.778   0.800
    1   AR   Ar   51   6.716   4.830   1.514
    1   AR   Ar   52   6.530   4.441  -2.290
    1   AR   Ar   53   5.420   5.531   2.965
    1   AR   Ar   54   0.366   6.410   2.499
    1   AR   Ar   55   6.450   5.512   2.356
    1   AR   Ar   56   7.091   1.432   0.930
    1   AR   Ar   57   5.263   3.410   3.413
    1   AR   Ar   58   0.000   3.703   3.920
    1   AR   Ar   59   2.281   5.615   5.396
    1   AR   Ar   60   0.299   6.043   3.494
    1   AR   Ar   61   0.122   4.781   5.897
    1   AR   Ar   62   7.056   4.793   4.178
    1   AR   Ar   63   2.045   0.911   6.933
    1   AR   Ar   64   1.059   5.786   4.801
    1   AR   Ar   65   3.681   6.896   1.047
    1   AR   Ar   66   0.885   1.135   1.603
    1   AR   Ar   67   3.789   6.812  -0.628
    1   AR   Ar   68   2.355   1.788  -0.879
    1   AR   Ar   69   2.971   0.897   1.212
    1   AR   Ar   70   0.749   0.267   2.654
    1   AR   Ar   71   3.403   0.900   3.992
    1   AR   Ar   72   4.271   7.080   2.279
    1   AR   Ar   73   3.862   0.380   2.988
    1   AR   Ar   74   1.816   0.658   4.711
    1   AR   Ar   75   4.024   1.016   4.877
    1   AR   Ar   76   1.974   0.561   1.575
    1   AR   Ar   77   2.203   6.793   5.412
    1   AR   Ar   78   0.440   6.361   5.687
    1   AR   Ar   79   3.112   5.975   5.779
    1   AR   Ar   80   3.767   5.298   5.801
    1   AR   Ar   81   2.608   6.064  -0.402
    1   AR   Ar   82   6.648   5.458   0.136
    1   AR   Ar   83   0.343   2.347   0.769
    1   AR   Ar   84   0.133   4.059   1.071
    1   AR   Ar   85   1.375   3.822   1.102
    1   AR   Ar   86   1.648   4.910   0.216
    1   AR   Ar   87   1.496   2.594   1.163
    1   AR   Ar   88   2.023   4.757   1.255
    1   AR   Ar   89   0.609   3.209   2.732
    1   AR   Ar   90   2.150   2.740   4.287
    1   AR   Ar   91   1.451   2.566   3.358
    1   AR   Ar   92   1.275   2.381   2.348
    1   AR   Ar   93   1.320   0.667   6.034
    1   AR   Ar   94   0.314   7.081  11.375
    1   AR   Ar   95   3.675   0.813   6.172
    1   AR   Ar   96   3.076   0.212   4.872
    1   AR   Ar   97   4.917   1.750  -0.166
    1   AR   Ar   98   1.914   4.970   2.696
    1   AR   Ar   99   6.288   1.409  -0.736
    1   AR   Ar  100   1.542   3.171  -0.742
    1   AR   Ar  101   3.605   4.823   1.286
    1   AR   Ar  102   3.536   2.552   3.591
    1   AR   Ar  103   0.642   4.879   0.994
    1   AR   Ar  104   3.159   4.126  -1.647
    1   AR   Ar  105   1.097   3.422   4.424
    1   AR   Ar  106   3.317   3.073   5.366
    1   AR   Ar  107   0.529   4.542   4.902
    1   AR   Ar  108   3.106   1.811   4.553
    1   AR   Ar  109   2.078   4.676   4.741
    1   AR   Ar  110   1.696   3.177   5.150
    1   AR   Ar  111   4.529   4.481   7.523
    1   AR   Ar  112   1.461   6.023   5.977
    1   AR   Ar  113   3.113   5.034   0.223
    1   AR   Ar  114   2.391   0.085  -1.122
    1   AR   Ar  115   2.437   5.333  -1.156
    1   AR   Ar  116   5.659   0.390  -0.318
    1   AR   Ar  117   1.059   5.102   3.972
    1   AR   Ar  118   1.466   5.738   3.342
    1   AR   Ar  119   2.225   2.941   2.810
    1   AR   Ar  120   1.978   6.664   2.274
    1   AR   Ar  121   5.876   4.309   5.449
    1   AR   Ar  122   2.829   6.328   4.815
    1   AR   Ar  123   3.741   4.115   5.045
    1   AR   Ar  124   1.831   5.661   1.659
    1   AR   Ar  125   6.902   3.902   5.014
    1   AR   Ar  126   7.056   6.813   4.797
    1   AR   Ar  127   4.073   3.917   6.840
    1   AR   Ar  128   2.973   4.753   6.772
    1   AR   Ar  129   2.421   6.315   3.136
    1   AR   Ar  130   4.297   2.803  -2.434
    1   AR   Ar  131   3.707   1.716   0.038
    1   AR   Ar  132   6.818   2.560  -0.404
    1   AR   Ar  133   4.571   6.118   2.783
    1   AR   Ar  134   4.371   1.267   3.795
    1   AR   Ar  135   5.874   0.855   2.625
    1   AR   Ar  136   5.283   6.774   2.407
    1   AR   Ar  137   2.398   5.196   3.632
    1   AR   Ar  138   4.551   1.433   5.690
    1   AR   Ar  139   5.606   2.517   5.314
    1   AR   Ar  140   3.927   6.904   4.347
    1   AR   Ar  141   3.969   4.990   4.480
    1   AR   Ar  142   3.152   7.040   5.935
    1   AR   Ar  143   6.377   0.031   5.637
    1   AR   Ar  144   6.862   1.923   4.826
    1   AR   Ar  145   4.906   4.302  -0.206
    1   AR   Ar  146   2.979   2.400   2.071
    1   AR   Ar  147   4.718   1.774  -1.779
    1   AR   Ar  148   3.352   5.967  -1.128
    1   AR   Ar  149   2.791   1.769   0.642
    1   AR   Ar  150   2.838   1.251   2.315
    1   AR   Ar  151   2.614   2.054   3.306
    1   AR   Ar  152   3.099   2.764  -0.510
    1   AR   Ar  153   4.809   7.028   3.687
    1   AR   Ar  154   4.223   2.309   4.563
    1   AR   Ar  155   6.731   7.112   6.753
    1   AR   Ar  156   3.678   3.584   3.641
    1   AR   Ar  157   1.291   3.674   6.873
    1   AR   Ar  158   0.395   2.524   7.010
    1   AR   Ar  159   4.915   1.498   7.149
    1   AR   Ar  160   2.135   2.073   5.277
    1   AR   Ar  161   5.406   3.632   2.249
    1   AR   Ar  162   4.813   5.714  -0.497
    1   AR   Ar  163   5.270   3.436   0.536
    1   AR   Ar  164   2.951   5.899   2.320
    1   AR   Ar  165   3.698   2.756   1.007
    1   AR   Ar  166   2.809   3.507   4.521
    1   AR   Ar  167   4.806   0.816   2.701
    1   AR   Ar  168   5.190   3.733  -1.166
    1   AR   Ar  169   2.907   3.771   2.636
    1   AR   Ar  170   2.660   4.063   5.804
    1   AR   Ar  171   6.051   4.024   3.926
    1   AR   Ar  172   4.758   4.478   5.084
    1   AR   Ar  173   3.125   3.461   7.065
    1   AR   Ar  174   2.694   5.756   6.855
    1   AR   Ar  175   2.717   2.492   6.143
    1   AR   Ar  176   3.605   2.083   5.825
    1   AR   Ar  177   6.891   5.065  -1.156
    1   AR   Ar  178   3.994   5.008  -0.436
    1   AR   Ar  179   4.155   5.997   0.372
    1   AR   Ar  180   1.320   1.037  -3.135
    1   AR   Ar  181   0.549   5.970   1.447
    1   AR   Ar  182   2.509   0.366   3.628
    1   AR   Ar  183   3.847   5.301   2.637
    1   AR   Ar  184   4.901   6.636   1.206
    1   AR   Ar  185   3.017   5.147   4.809
    1   AR   Ar  186   2.922   4.372   3.902
    1   AR   Ar  187   3.414   6.573   2.976
    1   AR   Ar  188   2.834   0.000   1.888
    1   AR   Ar  189   3.775   2.752   6.645
    1   AR   Ar  190   3.370   5.815   3.704
    1   AR   Ar  191   3.018   6.612   7.523
    1   AR   Ar  192   3.832   5.892   4.851
    1   AR   Ar  193   2.548   6.211   1.207
    1   AR   Ar  194   4.088   3.887  -1.133
    1   AR   Ar  195   5.573   0.888   0.477
    1   AR   Ar  196   4.403   0.297   0.086
    1   AR   Ar  197   4.005   1.155   0.836
    1   AR   Ar  198   5.737   1.550   1.699
    1   AR   Ar  199   3.815   1.430   2.862
    1   AR   Ar  200   5.711   2.564  -0.086
    1   AR   Ar  201   5.632   5.960   4.019
    1   AR   Ar  202   5.844   1.749   4.556
    1   AR   Ar  203   6.266   6.339   3.167
    1   AR   Ar  204   4.580   6.568   5.093
    1   AR   Ar  205   6.769   0.297   2.218
    1   AR   Ar  206   5.016   0.892   4.535
    1   AR   Ar  207   0.841   1.704   6.110
    1   AR   Ar  208   6.871   0.240   3.487
    1   AR   Ar  209   6.925   2.604  -1.914
    1   AR   Ar  210   3.225   0.074   0.197
    1   AR   Ar  211   6.644   3.254   0.778
    1   AR   Ar  212   6.533   3.755  -1.282
    1   AR   Ar  213   3.610   0.744   1.953
    1   AR   Ar  214   4.406   3.007   2.728
    1   AR   Ar  215   5.879   2.935   1.299
    1   AR   Ar  216   0.506   3.053   1.586
    1   AR   Ar  217   5.388   3.167   4.412
    1   AR   Ar  218   4.268   3.199   5.072
    1   AR   Ar  219   4.665   2.432   3.654
    1   AR   Ar  220   4.242   4.110   2.077
    1   AR   Ar  221   5.886   6.129   5.364
    1   AR   Ar  222   4.762   0.504   6.302
    1   AR   Ar  223   6.881   1.282   6.226
    1   AR   Ar  224   4.751   3.079   5.981
    1   AR   Ar  225   6.401   2.911   2.727
    1   AR   Ar  226   1.814   3.762   3.767
    1   AR   Ar  227   6.566   3.789   1.826
    1   AR   Ar  228   5.948   6.366   1.730
    1   AR   Ar  229   5.331   4.903  -1.247
    1   AR   Ar  230   4.557   4.106   4.085
    1   AR   Ar  231   5.261   1.489   3.501
    1   AR   Ar  232   4.791   2.365   0.997
    1   AR   Ar  233   6.120   2.518   3.738
    1   AR   Ar  234   6.427   2.996   4.736
    1   AR   Ar  235   6.450   1.129   3.682
    1   AR   Ar  236   5.430   5.226   5.525
    1   AR   Ar  237   5.795   3.359   5.958
    1   AR   Ar  238   4.981   4.516   6.137
    1   AR   Ar  239   6.096   4.106   8.528
    1   AR   Ar  240   6.535   3.023   7.093
    1   AR   Ar  241   1.145   6.358  -0.625
    1   AR   Ar  242   5.684   4.939   0.126
    1   AR   Ar  243   5.146   4.542   2.875
    1   AR   Ar  244   0.675   5.421  -0.165
    1   AR   Ar  245   4.960   0.659   1.204
    1   AR   Ar  246   5.402   6.651   0.146
    1   AR   Ar  247   6.054   4.192   0.968
    1   AR   Ar  248   6.061   6.068  -0.698
    1   AR   Ar  249   4.000   5.872   1.688
    1   AR   Ar  250   4.758   5.649   4.558
    1   AR   Ar  251   5.412   4.757   3.845
    1   AR   Ar  252   4.573   5.345   3.522
    1   AR   Ar  253   6.729   3.783   6.296
    1   AR   Ar  254   2.671   2.152   9.311
    1   AR   Ar  255   3.841   3.704   9.172
    1   AR   Ar  256   6.656   4.841   3.182
    7.12000  7.12000 12.00000
Argon-slab step 3365
  256
    1   AR   Ar    1   6.144   1.627  -1.756
    1   AR   Ar    2   6.513   0.498   0.373
    1   AR   Ar    3   2.814   0.848  -0.423
    1   AR   Ar    4   1.482   0.684   0.139
    1   AR   Ar    5   7.061   6.930   1.270
    1   AR   Ar    6   6.937   1.320   2.305
    1   AR   Ar    7   6.221   4.062   2.839
    1   AR   Ar    8   5.902   0.102   1.054
    1   AR   Ar    9   1.529   6.818   3.190
    1   AR   Ar   10   0.711   0.546   3.667
    1   AR   Ar   11   2.143   6.265   4.179
    1   AR   Ar   12   0.833   1.541   2.937
    1   AR   Ar   13   0.479   0.601   5.167
    1   AR   Ar   14   6.394   2.066   7.619
    1   AR   Ar   15   5.008   6.562   8.437
    1   AR   Ar   16   1.014   6.813   4.632
    1   AR   Ar   17   6.403   2.201   0.721
    1   AR   Ar   18   5.913   4.131  -0.395
    1   AR   Ar   19   2.756   3.258   0.928
    1   AR   Ar   20   4.296   4.578  -2.040
    1   AR   Ar   21   3.968   1.859   1.853
    1   AR   Ar   22   6.182   1.920   2.812
    1   AR   Ar   23   0.225   0.941  -0.003
    1   AR   Ar   24   6.920   2.097   1.714
    1   AR   Ar   25   0.598   2.108   4.229
    1   AR   Ar   26   6.082   7.038   3.967
    1   AR   Ar   27   1.666   0.758   3.251
    1   AR   Ar   28   0.384   2.668   5.068
    1   AR   Ar   29   5.496   2.923   6.987
    1   AR   Ar   30   1.774   1.585   4.236
    1   AR   Ar   31   3.558   0.670   7.200
    1   AR   Ar   32   1.457   2.658   6.253
    1   AR   Ar   33   1.177   4.633  -0.763
    1   AR   Ar   34   0.686   5.206   2.668
    1   AR   Ar   35   6.003   5.624   0.949
    1   AR   Ar   36   6.033   1.046  -3.931
    1   AR   Ar   37   5.396   2.403   2.137
    1   AR   Ar   38   0.250   4.370   2.158
    1   AR   Ar   39   1.228   4.214   2.406
    1   AR   Ar   40   2.198   3.665   1.789
    1   AR   Ar   41   7.074   2.712   3.679
    1   AR   Ar   42   5.995   4.942   4.568
    1   AR   Ar   43   6.601   2.523   6.088
    1   AR   Ar   44   0.930   4.147   3.486
    1   AR   Ar   45   0.716   3.558   6.049
    1   AR   Ar   46   7.038   5.346   5.034
    1   AR   Ar   47   5.652   4.113   7.049
    1   AR   Ar   48   6.816   5.628   6.537
    1   AR   Ar   49   5.184   0.846  -1.313
    1   AR   Ar   50   4.726   4.774   0.782
    1   AR   Ar   51   6.738   4.844   1.480
    1   AR   Ar   52   6.518   4.415  -2.327
    1   AR   Ar   53   5.427   5.528   2.998
    1   AR   Ar   54   0.411   6.400   2.514
    1   AR   Ar   55   6.441   5.524   2.373
    1   AR   Ar   56   7.118   1.425   0.941
    1   AR   Ar   57   5.266   3.392   3.412
    1   AR   Ar   58   0.003   3.689   3.905
    1   AR   Ar   59   2.254   5.593   5.379
    1   AR   Ar   60   0.281   6.030   3.486
    1   AR   Ar   61   0.117   4.777   5.909
    1   AR   Ar   62   7.055   4.757   4.176
    1   AR   Ar   63   2.075   0.904   6.916
    1   AR   Ar   64   1.040   5.799   4.790
    1   AR   Ar   65   3.702   6.888   1.039
    1   AR   Ar   66   0.898   1.131   1.607
    1   AR   Ar   67   3.768   6.796  -0.634
    1   AR   Ar   68   2.309   1.822  -0.886
    1   AR   Ar   69   2.978   0.918   1.210
    1   AR   Ar   70   0.767   0.277   2.680
    1   AR   Ar   71   3.410   0.861   4.027
    1   AR   Ar   72   4.296   7.030   2.283
    1   AR   Ar   73   3.870   0.373   2.999
    1   AR   Ar   74   1.805   0.617   4.730
    1   AR   Ar   75   4.011   1.040   4.883
    1   AR   Ar   76   1.947   0.566   1.583
    1   AR   Ar   77   2.195   6.823   5.391
    1   AR   Ar   78   0.429   6.356   5.699
    1   AR   Ar   79   3.140   5.979   5.786
    1   AR   Ar   80   3.783   5.283   5.796
    1   AR   Ar   81   2.599   6.042  -0.391
    1   AR   Ar   82   6.656   5.453   0.142
    1   AR   Ar   83   0.346   2.303   0.763
    1   AR   Ar   84   0.115   4.017   1.080
    1   AR   Ar   85   1.381   3.843   1.134
    1   AR   Ar   86   1.631   4.913   0.274
    1   AR   Ar   87   1.485   2.574   1.186
    1   AR   Ar   88   2.008   4.717   1.259
    1   AR   Ar   89   0.596   3.248   2.722
    1   AR   Ar   90   2.170   2.713   4.305
    1   AR   Ar   91   1.449   2.567   3.356
    1   AR   Ar   92   1.296   2.391   2.322
    1   AR   Ar   93   1.314   0.666   6.020
    1   AR   Ar   94   0.311   7.100  11.381
    1   AR   Ar   95   3.672   0.812   6.190
    1   AR   Ar   96   3.098   0.204   4.870
    1   AR   Ar   97   4.919   1.753  -0.149
    1   AR   Ar   98   1.872   4.933   2.691
    1   AR   Ar   99   6.294   1.433  -0.720
    1   AR   Ar  100   1.539   3.156  -0.748
    1   AR   Ar  101   3.603   4.863   1.299
    1   AR   Ar  102   3.543   2.551   3.557
    1   AR   Ar  103   0.655   4.893   0.979
    1   AR   Ar  104   3.194   4.126  -1.647
    1   AR   Ar  105   1.104   3.421   4.448
    1   AR   Ar  106   3.355   3.060   5.399
    1   AR   Ar  107   0.522   4.542   4.886
    1   AR   Ar  108   3.113   1.776   4.593
    1   AR   Ar  109   2.072   4.682   4.758
    1   AR   Ar  110   1.758   3.136   5.171
    1   AR   Ar  111   4.525   4.497   7.506
    1   AR   Ar  112   1.489   6.018   5.988
    1   AR   Ar  113   3.127   5.018   0.205
    1   AR   Ar  114   2.372   0.086  -1.129
    1   AR   Ar  115   2.430   5.359  -1.144
    1   AR   Ar  116   5.678   0.401  -0.339
    1   AR   Ar  117   1.042   5.095   3.947
    1   AR   Ar  118   1.433   5.736   3.320
    1   AR   Ar  119   2.234   2.926   2.766
    1   AR   Ar  120   1.953   6.658   2.295
    1   AR   Ar  121   5.853   4.319   5.426
    1   AR   Ar  122   2.814   6.279   4.816
    1   AR   Ar  123   3.725   4.124   5.088
    1   AR   Ar  124   1.805   5.670   1.653
    1   AR   Ar  125   6.909   3.940   5.015
    1   AR   Ar  126   7.036   6.873   4.794
    1   AR   Ar  127   4.081   3.894   6.849
    1   AR   Ar  128   2.980   4.779   6.782
    1   AR   Ar  129   2.402   6.314   3.104
    1   AR   Ar  130   4.296   2.768  -2.455
    1   AR   Ar  131   3.709   1.740   0.012
    1   AR   Ar  132   6.846   2.572  -0.390
    1   AR   Ar  133   4.579   6.131   2.813
    1   AR   Ar  134   4.360   1.246   3.810
    1   AR   Ar  135   5.867   0.875   2.630
    1   AR   Ar  136   5.277   6.798   2.418
    1   AR   Ar  137   2.351   5.189   3.614
    1   AR   Ar  138   4.554   1.437   5.674
    1   AR   Ar  139   5.600   2.515   5.309
    1   AR   Ar  140   3.942   6.908   4.328
    1   AR   Ar  141   3.967   4.988   4.496
    1   AR   Ar  142   3.139   7.062   5.918
    1   AR   Ar  143   6.391   0.034   5.629
    1   AR   Ar  144   6.868   1.919   4.847
    1   AR   Ar  145   4.884   4.329  -0.214
    1   AR   Ar  146   2.957   2.426   2.073
    1   AR   Ar  147   4.684   1.816  -1.761
    1   AR   Ar  148   3.357   6.008  -1.116
    1   AR   Ar  149   2.796   1.748   0.634
    1   AR   Ar  150   2.833   1.268   2.292
    1   AR   Ar  151   2.609   2.067   3.323
    1   AR   Ar  152   3.077   2.753  -0.547
    1   AR   Ar  153   4.816   7.033   3.670
    1   AR   Ar  154   4.213   2.304   4.542
    1   AR   Ar  155   6.719   7.082   6.767
    1   AR   Ar  156   3.648   3.575   3.591
    1   AR   Ar  157   1.290   3.686   6.899
    1   AR   Ar  158   0.381   2.501   7.005
    1   AR   Ar  159   4.908   1.492   7.181
    1   AR   Ar  160   2.126   2.083   5.277
    1   AR   Ar  161   5.396   3.659   2.237
    1   AR   Ar  162   4.825   5.671  -0.505
    1   AR   Ar  163   5.292   3.473   0.501
    1   AR   Ar  164   2.968   5.894   2.348
    1   AR   Ar  165   3.703   2.748   0.991
    1   AR   Ar  166   2.766   3.517   4.516
    1   AR   Ar  167   4.806   0.804   2.698
    1   AR   Ar  168   5.175   3.744  -1.168
    1   AR   Ar  169   2.900   3.795   2.658
    1   AR   Ar  170   2.660   4.036   5.807
    1   AR   Ar  171   6.044   4.021   3.910
    1   AR   Ar  172   4.774   4.487   5.112
    1   AR   Ar  173   3.149   3.464   7.046
    1   AR   Ar  174   2.675   5.756   6.842
    1   AR   Ar  175   2.695   2.492   6.160
    1   AR   Ar  176   3.598   2.064   5.831
    1   AR   Ar  177   6.895   5.079  -1.169
    1   AR   Ar  178   4.034   5.025  -0.460
    1   AR   Ar  179   4.139   6.006   0.393
    1   AR   Ar  180   1.345   1.060  -3.130
    1   AR   Ar  181   0.560   5.985   1.444
    1   AR   Ar  182   2.503   0.297   3.653
    1   AR   Ar  183   3.872   5.282   2.639
    1   AR   Ar  184   4.921   6.645   1.239
    1   AR   Ar  185   3.008   5.163   4.799
    1   AR   Ar  186   2.915   4.363   3.882
    1   AR   Ar  187   3.400   6.556   2.996
    1   AR   Ar  188   2.804   0.010   1.873
    1   AR   Ar  189   3.782   2.751   6.637
    1   AR   Ar  190   3.384   5.796   3.698
    1   AR   Ar  191   3.022   6.624   7.519
    1   AR   Ar  192   3.818   5.909   4.864
    1   AR   Ar  193   2.539   6.186   1.209
    1   AR   Ar  194   4.120   3.870  -1.124
    1   AR   Ar  195   5.557   0.922   0.497
    1   AR   Ar  196   4.386   0.310   0.067
    1   AR   Ar  197   3.986   1.132   0.846
    1   AR   Ar  198   5.689   1.541   1.696
    1   AR   Ar  199   3.777   1.418   2.862
    1   AR   Ar  200   5.724   2.561  -0.148
    1   AR   Ar  201   5.634   5.966   4.002
    1   AR   Ar  202   5.808   1.701   4.537
    1   AR   Ar  203   6.254   6.335   3.148
    1   AR   Ar  204   4.610   6.565   5.094
    1   AR   Ar  205   6.764   0.313   2.230
    1   AR   Ar  206   5.018   0.875   4.533
    1   AR   Ar  207   0.843   1.718   6.110
    1   AR   Ar  208   6.891   0.207   3.467
    1   AR   Ar  209   6.955   2.608  -1.930
    1   AR   Ar  210   3.201   0.060   0.190
    1   AR   Ar  211   6.656   3.275   0.781
    1   AR   Ar  212   6.557   3.783  -1.252
    1   AR   Ar  213   3.667   0.723   1.923
    1   AR   Ar  214   4.404   3.011   2.712
    1   AR   Ar  215   5.871   2.929   1.276
    1   AR   Ar  216   0.499   3.027   1.566
    1   AR   Ar  217   5.366   3.175   4.413
    1   AR   Ar  218   4.275   3.204   5.027
    1   AR   Ar  219   4.672   2.450   3.646
    1   AR   Ar  220   4.245   4.111   2.076
    1   AR   Ar  221   5.915   6.111   5.357
    1   AR   Ar  222   4.781   0.489   6.290
    1   AR   Ar  223   6.876   1.278   6.213
    1   AR   Ar  224   4.784   3.093   5.982
    1   AR   Ar  225   6.384   2.915   2.738
    1   AR   Ar  226   1.821   3.747   3.788
    1   AR   Ar  227   6.570   3.803   1.805
    1   AR   Ar  228   5.935   6.368   1.716
    1   AR   Ar  229   5.336   4.897  -1.219
    1   AR   Ar  230   4.569   4.068   4.026
    1   AR   Ar  231   5.274   1.464   3.465
    1   AR   Ar  232   4.773   2.353   1.027
    1   AR   Ar  233   6.136   2.477   3.732
    1   AR   Ar  234   6.422   2.974   4.740
    1   AR   Ar  235   6.406   1.136   3.660
    1   AR   Ar  236   5.452   5.188   5.552
    1   AR   Ar  237   5.823   3.346   5.965
    1   AR   Ar  238   4.986   4.560   6.168
    1   AR   Ar  239   6.146   4.096   8.549
    1   AR   Ar  240   6.539   3.043   7.067
    1   AR   Ar  241   1.156   6.346  -0.636
    1   AR   Ar  242   5.651   4.936   0.112
    1   AR   Ar  243   5.120   4.514   2.899
    1   AR   Ar  244   0.661   5.433  -0.172
    1   AR   Ar  245   4.935   0.649   1.183
    1   AR   Ar  246   5.422   6.674   0.140
    1   AR   Ar  247   6.068   4.203   0.982
    1   AR   Ar  248   6.079   6.071  -0.702
    1   AR   Ar  249   4.000   5.855   1.682
    1   AR   Ar  250   4.764   5.657   4.521
    1   AR   Ar  251   5.396   4.760   3.834
    1   AR   Ar  252   4.565   5.344   3.525
    1   AR   Ar  253   6.728   3.789   6.343
    1   AR   Ar  254   2.710   2.149   9.291
    1   AR   Ar  255   3.831   3.739   9.190
    1   AR   Ar  256   6.659   4.857   3.163
    7.12000  7.12000 12.00000
Argon-slab step 3370
  256
    1   AR   Ar    1   6.135   1.649  -1.725
    1   AR   Ar    2   6.494   0.515   0.384
    1   AR   Ar    3   2.813   0.856  -0.444
    1   AR   Ar    4   1.505   0.688   0.146
    1   AR   Ar    5   7.064   6.929   1.281
    1   AR   Ar    6   6.912   1.333   2.317
    1   AR   Ar    7   6.220   4.044   2.815
    1   AR   Ar    8   5.892   0.074   1.056
    1   AR   Ar    9   1.524   6.811   3.226
    1   AR   Ar   10   0.707   0.574   3.639
    1   AR   Ar   11   2.124   6.255   4.174
    1   AR   Ar   12   0.823   1.565   2.944
    1   AR   Ar   13   0.454   0.599   5.203
    1   AR   Ar   14   6.392   2.062   7.590
    1   AR   Ar   15   5.028   6.545   8.425
    1   AR   Ar   16   1.012   6.800   4.643
    1   AR   Ar   17   6.403   2.211   0.764
    1   AR   Ar   18   5.895   4.119  -0.410
    1   AR   Ar   19   2.789   3.257   0.915
    1   AR   Ar   20   4.290   4.574  -2.044
    1   AR   Ar   21   3.918   1.912   1.852
    1   AR   Ar   22   6.179   1.906   2.796
    1   AR   Ar   23   0.238   0.935   0.021
    1   AR   Ar   24   6.914   2.093   1.718
    1   AR   Ar   25   0.653   2.102   4.227
    1   AR   Ar   26   6.073   7.016   3.935
    1   AR   Ar   27   1.673   0.743   3.212
    1   AR   Ar   28   0.361   2.675   5.049
    1   AR   Ar   29   5.501   2.906   7.006
    1   AR   Ar   30   1.760   1.597   4.234
    1   AR   Ar   31   3.562   0.663   7.198
    1   AR   Ar   32   1.441   2.645   6.236
    1   AR   Ar   33   1.168   4.616  -0.717
    1   AR   Ar   34   0.705   5.226   2.658
    1   AR   Ar   35   6.007   5.619   0.981
    1   AR   Ar   36   6.028   1.041  -3.916
    1   AR   Ar   37   5.405   2.394   2.115
    1   AR   Ar   38   0.240   4.370   2.129
    1   AR   Ar   39   1.177   4.203   2.437
    1   AR   Ar   40   2.173   3.647   1.785
    1   AR   Ar   41   7.065   2.706   3.681
    1   AR   Ar   42   6.009   4.927   4.538
    1   AR   Ar   43   6.592   2.531   6.081
    1   AR   Ar   44   0.904   4.160   3.464
    1   AR   Ar   45   0.735   3.552   6.008
    1   AR   Ar   46   7.024   5.344   5.004
    1   AR   Ar   47   5.678   4.130   7.077
    1   AR   Ar   48   6.790   5.598   6.536
    1   AR   Ar   49   5.189   0.850  -1.315
    1   AR   Ar   50   4.702   4.762   0.771
    1   AR   Ar   51   6.758   4.866   1.446
    1   AR   Ar   52   6.506   4.387  -2.363
    1   AR   Ar   53   5.443   5.528   3.028
    1   AR   Ar   54   0.455   6.390   2.526
    1   AR   Ar   55   6.436   5.537   2.396
    1   AR   Ar   56   0.019   1.398   0.956
    1   AR   Ar   57   5.271   3.376   3.404
    1   AR   Ar   58   0.007   3.683   3.893
    1   AR   Ar   59   2.218   5.575   5.365
    1   AR   Ar   60   0.262   6.015   3.481
    1   AR   Ar   61   0.111   4.770   5.922
    1   AR   Ar   62   7.040   4.724   4.154
    1   AR   Ar   63   2.105   0.897   6.897
    1   AR   Ar   64   1.021   5.807   4.782
    1   AR   Ar   65   3.726   6.880   1.037
    1   AR   Ar   66   0.910   1.127   1.612
    1   AR   Ar   67   3.751   6.784  -0.637
    1   AR   Ar   68   2.264   1.855  -0.891
    1   AR   Ar   69   2.981   0.934   1.205
    1   AR   Ar   70   0.784   0.289   2.699
    1   AR   Ar   71   3.413   0.819   4.059
    1   AR   Ar   72   4.324   6.970   2.267
    1   AR   Ar   73   3.868   0.376   3.030
    1   AR   Ar   74   1.795   0.573   4.749
    1   AR   Ar   75   3.995   1.063   4.887
    1   AR   Ar   76   1.918   0.573   1.591
    1   AR   Ar   77   2.180   6.855   5.374
    1   AR   Ar   78   0.417   6.352   5.709
    1   AR   Ar   79   3.156   6.000   5.796
    1   AR   Ar   80   3.817   5.246   5.759
    1   AR   Ar   81   2.588   6.025  -0.374
    1   AR   Ar   82   6.666   5.447   0.145
    1   AR   Ar   83   0.358   2.277   0.754
    1   AR   Ar   84   0.109   3.979   1.086
    1   AR   Ar   85   1.381   3.863   1.166
    1   AR   Ar   86   1.613   4.918   0.329
    1   AR   Ar   87   1.474   2.550   1.201
    1   AR   Ar   88   1.994   4.675   1.264
    1   AR   Ar   89   0.562   3.297   2.726
    1   AR   Ar   90   2.188   2.680   4.317
    1   AR   Ar   91   1.445   2.567   3.361
    1   AR   Ar   92   1.317   2.401   2.293
    1   AR   Ar   93   1.297   0.658   6.024
    1   AR   Ar   94   0.308   7.119  11.388
    1   AR   Ar   95   3.672   0.815   6.201
    1   AR   Ar   96   3.118   0.199   4.867
    1   AR   Ar   97   4.922   1.755  -0.131
    1   AR   Ar   98   1.834   4.902   2.685
    1   AR   Ar   99   6.299   1.456  -0.699
    1   AR   Ar  100   1.527   3.143  -0.743
    1   AR   Ar  101   3.602   4.903   1.311
    1   AR   Ar  102   3.552   2.546   3.523
    1   AR   Ar  103   0.676   4.911   0.969
    1   AR   Ar  104   3.202   4.122  -1.623
    1   AR   Ar  105   1.109   3.417   4.450
    1   AR   Ar  106   3.384   3.046   5.434
    1   AR   Ar  107   0.549   4.543   4.882
    1   AR   Ar  108   3.120   1.742   4.633
    1   AR   Ar  109   2.064   4.686   4.773
    1   AR   Ar  110   1.823   3.095   5.201
    1   AR   Ar  111   4.526   4.518   7.495
    1   AR   Ar  112   1.516   6.014   5.998
    1   AR   Ar  113   3.141   5.004   0.187
    1   AR   Ar  114   2.399   0.108  -1.120
    1   AR   Ar  115   2.422   5.381  -1.135
    1   AR   Ar  116   5.698   0.413  -0.373
    1   AR   Ar  117   1.019   5.081   3.932
    1   AR   Ar  118   1.405   5.744   3.289
    1   AR   Ar  119   2.245   2.913   2.719
    1   AR   Ar  120   1.960   6.662   2.281
    1   AR   Ar  121   5.839   4.311   5.401
    1   AR   Ar  122   2.828   6.229   4.830
    1   AR   Ar  123   3.706   4.134   5.131
    1   AR   Ar  124   1.764   5.679   1.657
    1   AR   Ar  125   6.883   3.965   5.014
    1   AR   Ar  126   7.014   6.932   4.790
    1   AR   Ar  127   4.086   3.886   6.850
    1   AR   Ar  128   2.989   4.798   6.789
    1   AR   Ar  129   2.388   6.305   3.085
    1   AR   Ar  130   4.296   2.733  -2.475
    1   AR   Ar  131   3.711   1.766  -0.015
    1   AR   Ar  132   6.874   2.575  -0.388
    1   AR   Ar  133   4.581   6.145   2.844
    1   AR   Ar  134   4.343   1.236   3.807
    1   AR   Ar  135   5.858   0.914   2.645
    1   AR   Ar  136   5.273   6.830   2.423
    1   AR   Ar  137   2.303   5.188   3.599
    1   AR   Ar  138   4.542   1.431   5.658
    1   AR   Ar  139   5.592   2.512   5.303
    1   AR   Ar  140   3.956   6.911   4.306
    1   AR   Ar  141   3.969   4.975   4.504
    1   AR   Ar  142   3.126   7.079   5.908
    1   AR   Ar  143   6.405   0.037   5.623
    1   AR   Ar  144   6.866   1.909   4.867
    1   AR   Ar  145   4.856   4.353  -0.225
    1   AR   Ar  146   2.937   2.451   2.075
    1   AR   Ar  147   4.650   1.858  -1.743
    1   AR   Ar  148   3.361   6.042  -1.109
    1   AR   Ar  149   2.800   1.731   0.622
    1   AR   Ar  150   2.825   1.285   2.270
    1   AR   Ar  151   2.603   2.078   3.340
    1   AR   Ar  152   3.055   2.741  -0.583
    1   AR   Ar  153   4.783   7.045   3.678
    1   AR   Ar  154   4.199   2.291   4.523
    1   AR   Ar  155   6.707   7.052   6.779
    1   AR   Ar  156   3.619   3.571   3.541
    1   AR   Ar  157   1.292   3.697   6.928
    1   AR   Ar  158   0.368   2.478   6.998
    1   AR   Ar  159   4.900   1.486   7.212
    1   AR   Ar  160   2.111   2.095   5.269
    1   AR   Ar  161   5.386   3.685   2.224
    1   AR   Ar  162   4.838   5.659  -0.515
    1   AR   Ar  163   5.315   3.511   0.465
    1   AR   Ar  164   2.984   5.884   2.368
    1   AR   Ar  165   3.708   2.738   0.977
    1   AR   Ar  166   2.726   3.530   4.514
    1   AR   Ar  167   4.838   0.802   2.720
    1   AR   Ar  168   5.163   3.756  -1.169
    1   AR   Ar  169   2.877   3.817   2.680
    1   AR   Ar  170   2.625   4.032   5.771
    1   AR   Ar  171   6.046   4.009   3.897
    1   AR   Ar  172   4.788   4.496   5.136
    1   AR   Ar  173   3.167   3.470   7.028
    1   AR   Ar  174   2.638   5.763   6.821
    1   AR   Ar  175   2.671   2.495   6.179
    1   AR   Ar  176   3.595   2.041   5.833
    1   AR   Ar  177   6.899   5.093  -1.181
    1   AR   Ar  178   4.070   5.038  -0.485
    1   AR   Ar  179   4.123   6.017   0.415
    1   AR   Ar  180   1.369   1.083  -3.124
    1   AR   Ar  181   0.570   5.998   1.441
    1   AR   Ar  182   2.501   0.225   3.680
    1   AR   Ar  183   3.897   5.263   2.641
    1   AR   Ar  184   4.940   6.653   1.272
    1   AR   Ar  185   2.999   5.178   4.788
    1   AR   Ar  186   2.910   4.353   3.864
    1   AR   Ar  187   3.394   6.546   3.014
    1   AR   Ar  188   2.781   0.019   1.859
    1   AR   Ar  189   3.792   2.749   6.627
    1   AR   Ar  190   3.398   5.773   3.697
    1   AR   Ar  191   3.027   6.636   7.514
    1   AR   Ar  192   3.805   5.927   4.851
    1   AR   Ar  193   2.538   6.167   1.209
    1   AR   Ar  194   4.152   3.854  -1.114
    1   AR   Ar  195   5.547   0.972   0.513
    1   AR   Ar  196   4.369   0.323   0.050
    1   AR   Ar  197   3.968   1.107   0.857
    1   AR   Ar  198   5.644   1.525   1.689
    1   AR   Ar  199   3.738   1.410   2.862
    1   AR   Ar  200   5.740   2.555  -0.196
    1   AR   Ar  201   5.639   5.972   3.984
    1   AR   Ar  202   5.772   1.654   4.516
    1   AR   Ar  203   6.242   6.330   3.126
    1   AR   Ar  204   4.644   6.565   5.098
    1   AR   Ar  205   6.759   0.323   2.242
    1   AR   Ar  206   5.022   0.857   4.532
    1   AR   Ar  207   0.844   1.733   6.109
    1   AR   Ar  208   6.915   0.171   3.437
    1   AR   Ar  209   6.984   2.612  -1.945
    1   AR   Ar  210   3.175   0.046   0.181
    1   AR   Ar  211   6.670   3.290   0.775
    1   AR   Ar  212   6.580   3.812  -1.222
    1   AR   Ar  213   3.732   0.700   1.897
    1   AR   Ar  214   4.403   3.015   2.696
    1   AR   Ar  215   5.854   2.921   1.262
    1   AR   Ar  216   0.491   3.003   1.548
    1   AR   Ar  217   5.343   3.183   4.419
    1   AR   Ar  218   4.293   3.214   4.979
    1   AR   Ar  219   4.683   2.468   3.633
    1   AR   Ar  220   4.248   4.112   2.077
    1   AR   Ar  221   5.946   6.096   5.348
    1   AR   Ar  222   4.800   0.475   6.277
    1   AR   Ar  223   6.871   1.275   6.199
    1   AR   Ar  224   4.778   3.062   5.976
    1   AR   Ar  225   6.368   2.928   2.747
    1   AR   Ar  226   1.840   3.731   3.808
    1   AR   Ar  227   6.567   3.809   1.793
    1   AR   Ar  228   5.925   6.369   1.702
    1   AR   Ar  229   5.339   4.889  -1.188
    1   AR   Ar  230   4.580   4.029   3.967
    1   AR   Ar  231   5.298   1.442   3.426
    1   AR   Ar  232   4.757   2.340   1.057
    1   AR   Ar  233   6.135   2.433   3.730
    1   AR   Ar  234   6.419   2.945   4.746
    1   AR   Ar  235   6.359   1.146   3.639
    1   AR   Ar  236   5.471   5.171   5.575
    1   AR   Ar  237   5.853   3.333   5.972
    1   AR   Ar  238   4.987   4.596   6.206
    1   AR   Ar  239   6.196   4.086   8.569
    1   AR   Ar  240   6.545   3.062   7.042
    1   AR   Ar  241   1.168   6.333  -0.646
    1   AR   Ar  242   5.618   4.946   0.106
    1   AR   Ar  243   5.090   4.481   2.915
    1   AR   Ar  244   0.645   5.445  -0.178
    1   AR   Ar  245   4.899   0.634   1.174
    1   AR   Ar  246   5.440   6.689   0.140
    1   AR   Ar  247   6.074   4.187   1.004
    1   AR   Ar  248   6.068   6.069  -0.684
    1   AR   Ar  249   4.000   5.838   1.665
    1   AR   Ar  250   4.778   5.664   4.485
    1   AR   Ar  251   5.366   4.770   3.818
    1   AR   Ar  252   4.550   5.341   3.530
    1   AR   Ar  253   6.729   3.798   6.388
    1   AR   Ar  254   2.697   2.146   9.296
    1   AR   Ar  255   3.821   3.775   9.208
    1   AR   Ar  256   6.671   4.887   3.151
    7.12000  7.12000 12.00000
Argon-slab step 3375
  256
    1   AR   Ar    1   6.124   1.672  -1.697
    1   AR   Ar    2   6.479   0.534   0.393
    1   AR   Ar    3   2.813   0.866  -0.464
    1   AR   Ar    4   1.528   0.692   0.152
    1   AR   Ar    5   7.066   6.929   1.291
    1   AR   Ar    6   6.892   1.336   2.338
    1   AR   Ar    7   6.216   4.020   2.790
    1   AR   Ar    8   5.892   0.049   1.087
    1   AR   Ar    9   1.511   6.806   3.268
    1   AR   Ar   10   0.706   0.607   3.625
    1   AR   Ar   11   2.101   6.253   4.155
    1   AR   Ar   12   0.790   1.553   2.955
    1   AR   Ar   13   0.431   0.599   5.241
    1   AR   Ar   14   6.413   2.074   7.567
    1   AR   Ar   15   5.048   6.528   8.414
    1   AR   Ar   16   0.994   6.833   4.660
    1   AR   Ar   17   6.403   2.212   0.786
    1   AR   Ar   18   5.881   4.101  -0.427
    1   AR   Ar   19   2.818   3.256   0.903
    1   AR   Ar   20   4.298   4.602  -2.049
    1   AR   Ar   21   3.867   1.963   1.850
    1   AR   Ar   22   6.174   1.892   2.780
    1   AR   Ar   23   0.256   0.930   0.042
    1   AR   Ar   24   6.906   2.104   1.716
    1   AR   Ar   25   0.711   2.094   4.221
    1   AR   Ar   26   6.057   6.994   3.908
    1   AR   Ar   27   1.680   0.733   3.172
    1   AR   Ar   28   0.342   2.694   5.036
    1   AR   Ar   29   5.503   2.890   7.024
    1   AR   Ar   30   1.747   1.609   4.230
    1   AR   Ar   31   3.565   0.654   7.203
    1   AR   Ar   32   1.427   2.633   6.218
    1   AR   Ar   33   1.159   4.599  -0.670
    1   AR   Ar   34   0.724   5.246   2.649
    1   AR   Ar   35   6.009   5.611   1.012
    1   AR   Ar   36   6.023   1.036  -3.901
    1   AR   Ar   37   5.411   2.395   2.098
    1   AR   Ar   38   0.228   4.371   2.104
    1   AR   Ar   39   1.129   4.183   2.464
    1   AR   Ar   40   2.170   3.658   1.777
    1   AR   Ar   41   7.070   2.696   3.680
    1   AR   Ar   42   6.032   4.916   4.517
    1   AR   Ar   43   6.583   2.537   6.072
    1   AR   Ar   44   0.876   4.170   3.443
    1   AR   Ar   45   0.752   3.545   5.965
    1   AR   Ar   46   7.006   5.347   4.977
    1   AR   Ar   47   5.703   4.146   7.105
    1   AR   Ar   48   6.765   5.569   6.534
    1   AR   Ar   49   5.195   0.855  -1.317
    1   AR   Ar   50   4.654   4.738   0.770
    1   AR   Ar   51   6.775   4.895   1.411
    1   AR   Ar   52   6.494   4.360  -2.397
    1   AR   Ar   53   5.465   5.527   3.054
    1   AR   Ar   54   0.500   6.379   2.534
    1   AR   Ar   55   6.447   5.542   2.446
    1   AR   Ar   56   0.033   1.352   0.974
    1   AR   Ar   57   5.276   3.362   3.389
    1   AR   Ar   58   0.011   3.684   3.883
    1   AR   Ar   59   2.179   5.558   5.353
    1   AR   Ar   60   0.243   5.998   3.479
    1   AR   Ar   61   0.105   4.761   5.934
    1   AR   Ar   62   7.016   4.692   4.120
    1   AR   Ar   63   2.135   0.889   6.878
    1   AR   Ar   64   1.002   5.806   4.775
    1   AR   Ar   65   3.752   6.872   1.039
    1   AR   Ar   66   0.921   1.124   1.618
    1   AR   Ar   67   3.741   6.786  -0.630
    1   AR   Ar   68   2.220   1.889  -0.896
    1   AR   Ar   69   2.980   0.943   1.205
    1   AR   Ar   70   0.801   0.300   2.706
    1   AR   Ar   71   3.413   0.776   4.085
    1   AR   Ar   72   4.341   6.951   2.230
    1   AR   Ar   73   3.864   0.382   3.067
    1   AR   Ar   74   1.784   0.529   4.767
    1   AR   Ar   75   3.976   1.084   4.890
    1   AR   Ar   76   1.888   0.581   1.600
    1   AR   Ar   77   2.162   6.888   5.358
    1   AR   Ar   78   0.405   6.347   5.717
    1   AR   Ar   79   3.166   6.025   5.808
    1   AR   Ar   80   3.858   5.200   5.719
    1   AR   Ar   81   2.578   6.013  -0.348
    1   AR   Ar   82   6.676   5.440   0.146
    1   AR   Ar   83   0.377   2.268   0.740
    1   AR   Ar   84   0.128   3.959   1.093
    1   AR   Ar   85   1.372   3.880   1.195
    1   AR   Ar   86   1.593   4.923   0.381
    1   AR   Ar   87   1.466   2.507   1.175
    1   AR   Ar   88   1.986   4.636   1.275
    1   AR   Ar   89   0.527   3.346   2.731
    1   AR   Ar   90   2.203   2.641   4.323
    1   AR   Ar   91   1.439   2.567   3.370
    1   AR   Ar   92   1.336   2.412   2.263
    1   AR   Ar   93   1.281   0.650   6.028
    1   AR   Ar   94   0.306   0.018  11.394
    1   AR   Ar   95   3.676   0.823   6.204
    1   AR   Ar   96   3.136   0.194   4.864
    1   AR   Ar   97   4.925   1.756  -0.111
    1   AR   Ar   98   1.802   4.879   2.680
    1   AR   Ar   99   6.304   1.479  -0.674
    1   AR   Ar  100   1.508   3.132  -0.730
    1   AR   Ar  101   3.600   4.942   1.322
    1   AR   Ar  102   3.562   2.534   3.490
    1   AR   Ar  103   0.697   4.930   0.960
    1   AR   Ar  104   3.211   4.120  -1.599
    1   AR   Ar  105   1.118   3.409   4.429
    1   AR   Ar  106   3.408   3.033   5.472
    1   AR   Ar  107   0.599   4.545   4.886
    1   AR   Ar  108   3.127   1.710   4.673
    1   AR   Ar  109   2.053   4.674   4.792
    1   AR   Ar  110   1.887   3.060   5.235
    1   AR   Ar  111   4.531   4.545   7.489
    1   AR   Ar  112   1.541   6.013   6.009
    1   AR   Ar  113   3.155   4.990   0.169
    1   AR   Ar  114   2.425   0.129  -1.111
    1   AR   Ar  115   2.414   5.399  -1.132
    1   AR   Ar  116   5.720   0.429  -0.414
    1   AR   Ar  117   0.992   5.064   3.923
    1   AR   Ar  118   1.381   5.759   3.253
    1   AR   Ar  119   2.253   2.903   2.673
    1   AR   Ar  120   1.982   6.674   2.242
    1   AR   Ar  121   5.833   4.282   5.374
    1   AR   Ar  122   2.853   6.184   4.849
    1   AR   Ar  123   3.685   4.144   5.175
    1   AR   Ar  124   1.716   5.685   1.666
    1   AR   Ar  125   6.847   3.983   5.015
    1   AR   Ar  126   6.993   6.986   4.781
    1   AR   Ar  127   4.093   3.889   6.842
    1   AR   Ar  128   3.000   4.811   6.795
    1   AR   Ar  129   2.379   6.288   3.082
    1   AR   Ar  130   4.296   2.697  -2.494
    1   AR   Ar  131   3.713   1.792  -0.043
    1   AR   Ar  132   6.899   2.573  -0.393
    1   AR   Ar  133   4.579   6.157   2.877
    1   AR   Ar  134   4.324   1.236   3.791
    1   AR   Ar  135   5.856   0.949   2.657
    1   AR   Ar  136   5.285   6.863   2.431
    1   AR   Ar  137   2.255   5.191   3.586
    1   AR   Ar  138   4.533   1.427   5.647
    1   AR   Ar  139   5.583   2.508   5.297
    1   AR   Ar  140   3.966   6.915   4.285
    1   AR   Ar  141   3.976   4.956   4.508
    1   AR   Ar  142   3.117   7.080   5.924
    1   AR   Ar  143   6.419   0.039   5.619
    1   AR   Ar  144   6.857   1.893   4.886
    1   AR   Ar  145   4.825   4.372  -0.240
    1   AR   Ar  146   2.919   2.474   2.075
    1   AR   Ar  147   4.604   1.866  -1.736
    1   AR   Ar  148   3.359   6.061  -1.112
    1   AR   Ar  149   2.813   1.728   0.607
    1   AR   Ar  150   2.817   1.303   2.247
    1   AR   Ar  151   2.595   2.087   3.358
    1   AR   Ar  152   3.032   2.728  -0.619
    1   AR   Ar  153   4.754   7.058   3.682
    1   AR   Ar  154   4.182   2.272   4.507
    1   AR   Ar  155   6.695   7.022   6.790
    1   AR   Ar  156   3.591   3.571   3.490
    1   AR   Ar  157   1.294   3.707   6.957
    1   AR   Ar  158   0.354   2.455   6.990
    1   AR   Ar  159   4.892   1.479   7.241
    1   AR   Ar  160   2.074   2.113   5.238
    1   AR   Ar  161   5.375   3.707   2.211
    1   AR   Ar  162   4.860   5.661  -0.525
    1   AR   Ar  163   5.339   3.550   0.428
    1   AR   Ar  164   3.001   5.868   2.378
    1   AR   Ar  165   3.716   2.725   0.963
    1   AR   Ar  166   2.697   3.534   4.515
    1   AR   Ar  167   4.885   0.804   2.757
    1   AR   Ar  168   5.158   3.768  -1.170
    1   AR   Ar  169   2.826   3.836   2.700
    1   AR   Ar  170   2.590   4.028   5.733
    1   AR   Ar  171   6.052   3.993   3.886
    1   AR   Ar  172   4.799   4.502   5.155
    1   AR   Ar  173   3.177   3.476   7.012
    1   AR   Ar  174   2.599   5.777   6.799
    1   AR   Ar  175   2.645   2.499   6.197
    1   AR   Ar  176   3.593   2.015   5.832
    1   AR   Ar  177   6.902   5.106  -1.192
    1   AR   Ar  178   4.075   5.038  -0.498
    1   AR   Ar  179   4.107   6.027   0.437
    1   AR   Ar  180   1.393   1.106  -3.119
    1   AR   Ar  181   0.580   6.009   1.440
    1   AR   Ar  182   2.500   0.149   3.707
    1   AR   Ar  183   3.922   5.244   2.643
    1   AR   Ar  184   4.956   6.661   1.304
    1   AR   Ar  185   2.990   5.192   4.776
    1   AR   Ar  186   2.906   4.343   3.845
    1   AR   Ar  187   3.395   6.543   3.034
    1   AR   Ar  188   2.765   0.028   1.843
    1   AR   Ar  189   3.806   2.745   6.615
    1   AR   Ar  190   3.412   5.745   3.700
    1   AR   Ar  191   3.031   6.649   7.507
    1   AR   Ar  192   3.799   5.944   4.820
    1   AR   Ar  193   2.543   6.152   1.207
    1   AR   Ar  194   4.178   3.841  -1.102
    1   AR   Ar  195   5.540   1.030   0.523
    1   AR   Ar  196   4.353   0.336   0.036
    1   AR   Ar  197   3.952   1.083   0.868
    1   AR   Ar  198   5.602   1.500   1.678
    1   AR   Ar  199   3.701   1.404   2.863
    1   AR   Ar  200   5.767   2.534  -0.199
    1   AR   Ar  201   5.645   5.978   3.967
    1   AR   Ar  202   5.738   1.610   4.494
    1   AR   Ar  203   6.231   6.325   3.103
    1   AR   Ar  204   4.679   6.566   5.102
    1   AR   Ar  205   6.753   0.325   2.254
    1   AR   Ar  206   5.028   0.836   4.532
    1   AR   Ar  207   0.844   1.748   6.108
    1   AR   Ar  208   6.939   0.134   3.402
    1   AR   Ar  209   7.012   2.616  -1.958
    1   AR   Ar  210   3.147   0.034   0.173
    1   AR   Ar  211   6.674   3.287   0.757
    1   AR   Ar  212   6.603   3.842  -1.193
    1   AR   Ar  213   3.799   0.677   1.874
    1   AR   Ar  214   4.403   3.019   2.680
    1   AR   Ar  215   5.829   2.915   1.254
    1   AR   Ar  216   0.483   2.981   1.531
    1   AR   Ar  217   5.346   3.167   4.425
    1   AR   Ar  218   4.316   3.230   4.929
    1   AR   Ar  219   4.698   2.485   3.616
    1   AR   Ar  220   4.251   4.113   2.078
    1   AR   Ar  221   5.979   6.082   5.338
    1   AR   Ar  222   4.817   0.462   6.264
    1   AR   Ar  223   6.868   1.273   6.185
    1   AR   Ar  224   4.761   3.020   5.969
    1   AR   Ar  225   6.352   2.945   2.756
    1   AR   Ar  226   1.865   3.715   3.824
    1   AR   Ar  227   6.555   3.804   1.795
    1   AR   Ar  228   5.918   6.369   1.694
    1   AR   Ar  229   5.343   4.880  -1.154
    1   AR   Ar  230   4.583   3.999   3.915
    1   AR   Ar  231   5.327   1.424   3.390
    1   AR   Ar  232   4.742   2.326   1.088
    1   AR   Ar  233   6.117   2.385   3.732
    1   AR   Ar  234   6.417   2.918   4.751
    1   AR   Ar  235   6.313   1.157   3.617
    1   AR   Ar  236   5.489   5.181   5.594
    1   AR   Ar  237   5.881   3.322   5.980
    1   AR   Ar  238   4.982   4.623   6.255
    1   AR   Ar  239   6.245   4.076   8.589
    1   AR   Ar  240   6.551   3.076   7.023
    1   AR   Ar  241   1.180   6.319  -0.656
    1   AR   Ar  242   5.587   4.966   0.105
    1   AR   Ar  243   5.056   4.444   2.922
    1   AR   Ar  244   0.630   5.456  -0.183
    1   AR   Ar  245   4.855   0.615   1.175
    1   AR   Ar  246   5.455   6.699   0.143
    1   AR   Ar  247   6.072   4.172   1.018
    1   AR   Ar  248   6.056   6.066  -0.665
    1   AR   Ar  249   4.002   5.824   1.648
    1   AR   Ar  250   4.774   5.677   4.474
    1   AR   Ar  251   5.330   4.785   3.804
    1   AR   Ar  252   4.526   5.335   3.536
    1   AR   Ar  253   6.733   3.815   6.425
    1   AR   Ar  254   2.662   2.152   9.304
    1   AR   Ar  255   3.811   3.810   9.226
    1   AR   Ar  256   6.688   4.919   3.146
    7.12000  7.12000 12.00000
Argon-slab step 3380
  256
    1   AR   Ar    1   6.113   1.696  -1.670
    1   AR   Ar    2   6.464   0.550   0.402
    1   AR   Ar    3   2.814   0.881  -0.481
    1   AR   Ar    4   1.551   0.697   0.159
    1   AR   Ar    5   7.066   6.929   1.302
    1   AR   Ar    6   6.879   1.331   2.363
    1   AR   Ar    7   6.212   3.997   2.767
    1   AR   Ar    8   5.875   0.079   1.078
    1   AR   Ar    9   1.493   6.805   3.313
    1   AR   Ar   10   0.708   0.647   3.628
    1   AR   Ar   11   2.118   6.277   4.131
    1   AR   Ar   12   0.757   1.541   2.966
    1   AR   Ar   13   0.412   0.603   5.282
    1   AR   Ar   14   6.434   2.087   7.542
    1   AR   Ar   15   5.069   6.511   8.403
    1   AR   Ar   16   0.968   6.858   4.677
    1   AR   Ar   17   6.404   2.201   0.775
    1   AR   Ar   18   5.867   4.082  -0.444
    1   AR   Ar   19   2.844   3.257   0.892
    1   AR   Ar   20   4.306   4.630  -2.051
    1   AR   Ar   21   3.817   2.013   1.847
    1   AR   Ar   22   6.166   1.888   2.766
    1   AR   Ar   23   0.279   0.925   0.059
    1   AR   Ar   24   6.898   2.126   1.709
    1   AR   Ar   25   0.771   2.086   4.214
    1   AR   Ar   26   6.039   6.974   3.885
    1   AR   Ar   27   1.690   0.727   3.131
    1   AR   Ar   28   0.329   2.721   5.025
    1   AR   Ar   29   5.504   2.873   7.040
    1   AR   Ar   30   1.734   1.622   4.226
    1   AR   Ar   31   3.564   0.650   7.195
    1   AR   Ar   32   1.414   2.624   6.199
    1   AR   Ar   33   1.151   4.582  -0.623
    1   AR   Ar   34   0.738   5.263   2.637
    1   AR   Ar   35   6.011   5.599   1.039
    1   AR   Ar   36   6.019   1.031  -3.886
    1   AR   Ar   37   5.414   2.403   2.094
    1   AR   Ar   38   0.211   4.376   2.080
    1   AR   Ar   39   1.088   4.154   2.484
    1   AR   Ar   40   2.191   3.667   1.779
    1   AR   Ar   41   7.082   2.682   3.677
    1   AR   Ar   42   6.059   4.908   4.503
    1   AR   Ar   43   6.578   2.541   6.062
    1   AR   Ar   44   0.846   4.175   3.425
    1   AR   Ar   45   0.768   3.538   5.921
    1   AR   Ar   46   6.986   5.354   4.951
    1   AR   Ar   47   5.728   4.160   7.130
    1   AR   Ar   48   6.740   5.540   6.531
    1   AR   Ar   49   5.202   0.862  -1.318
    1   AR   Ar   50   4.605   4.715   0.769
    1   AR   Ar   51   6.791   4.928   1.375
    1   AR   Ar   52   6.481   4.333  -2.429
    1   AR   Ar   53   5.454   5.526   3.055
    1   AR   Ar   54   0.545   6.369   2.540
    1   AR   Ar   55   6.456   5.556   2.480
    1   AR   Ar   56   0.043   1.298   0.997
    1   AR   Ar   57   5.284   3.349   3.368
    1   AR   Ar   58   0.015   3.687   3.875
    1   AR   Ar   59   2.158   5.562   5.347
    1   AR   Ar   60   0.224   5.978   3.479
    1   AR   Ar   61   0.098   4.750   5.944
    1   AR   Ar   62   6.993   4.663   4.084
    1   AR   Ar   63   2.165   0.881   6.857
    1   AR   Ar   64   0.990   5.800   4.772
    1   AR   Ar   65   3.768   6.858   1.045
    1   AR   Ar   66   0.930   1.122   1.626
    1   AR   Ar   67   3.742   6.803  -0.613
    1   AR   Ar   68   2.177   1.922  -0.899
    1   AR   Ar   69   2.976   0.943   1.209
    1   AR   Ar   70   0.816   0.308   2.698
    1   AR   Ar   71   3.410   0.734   4.100
    1   AR   Ar   72   4.344   6.944   2.185
    1   AR   Ar   73   3.862   0.388   3.107
    1   AR   Ar   74   1.771   0.488   4.781
    1   AR   Ar   75   3.961   1.073   4.890
    1   AR   Ar   76   1.857   0.590   1.608
    1   AR   Ar   77   2.146   6.915   5.345
    1   AR   Ar   78   0.393   6.342   5.723
    1   AR   Ar   79   3.176   6.048   5.825
    1   AR   Ar   80   3.900   5.151   5.676
    1   AR   Ar   81   2.570   6.006  -0.315
    1   AR   Ar   82   6.686   5.433   0.147
    1   AR   Ar   83   0.399   2.265   0.723
    1   AR   Ar   84   0.169   3.956   1.100
    1   AR   Ar   85   1.345   3.887   1.220
    1   AR   Ar   86   1.571   4.931   0.425
    1   AR   Ar   87   1.458   2.464   1.148
    1   AR   Ar   88   1.989   4.606   1.294
    1   AR   Ar   89   0.490   3.392   2.736
    1   AR   Ar   90   2.217   2.598   4.321
    1   AR   Ar   91   1.434   2.566   3.381
    1   AR   Ar   92   1.353   2.422   2.233
    1   AR   Ar   93   1.264   0.643   6.030
    1   AR   Ar   94   0.303   0.037  11.401
    1   AR   Ar   95   3.682   0.835   6.200
    1   AR   Ar   96   3.150   0.184   4.867
    1   AR   Ar   97   4.923   1.748  -0.098
    1   AR   Ar   98   1.776   4.862   2.675
    1   AR   Ar   99   6.308   1.501  -0.643
    1   AR   Ar  100   1.490   3.122  -0.717
    1   AR   Ar  101   3.597   4.975   1.331
    1   AR   Ar  102   3.575   2.518   3.458
    1   AR   Ar  103   0.717   4.949   0.953
    1   AR   Ar  104   3.221   4.117  -1.575
    1   AR   Ar  105   1.120   3.399   4.412
    1   AR   Ar  106   3.429   3.020   5.510
    1   AR   Ar  107   0.657   4.548   4.891
    1   AR   Ar  108   3.132   1.680   4.713
    1   AR   Ar  109   2.040   4.654   4.808
    1   AR   Ar  110   1.947   3.045   5.273
    1   AR   Ar  111   4.541   4.575   7.485
    1   AR   Ar  112   1.562   6.015   6.023
    1   AR   Ar  113   3.170   4.978   0.152
    1   AR   Ar  114   2.451   0.146  -1.102
    1   AR   Ar  115   2.444   5.423  -1.119
    1   AR   Ar  116   5.743   0.449  -0.456
    1   AR   Ar  117   0.965   5.050   3.920
    1   AR   Ar  118   1.360   5.779   3.218
    1   AR   Ar  119   2.253   2.899   2.634
    1   AR   Ar  120   1.993   6.685   2.200
    1   AR   Ar  121   5.834   4.240   5.345
    1   AR   Ar  122   2.869   6.154   4.865
    1   AR   Ar  123   3.667   4.148   5.205
    1   AR   Ar  124   1.665   5.689   1.678
    1   AR   Ar  125   6.807   3.999   5.015
    1   AR   Ar  126   6.971   7.034   4.765
    1   AR   Ar  127   4.103   3.890   6.828
    1   AR   Ar  128   3.014   4.820   6.799
    1   AR   Ar  129   2.371   6.266   3.089
    1   AR   Ar  130   4.296   2.661  -2.512
    1   AR   Ar  131   3.716   1.818  -0.071
    1   AR   Ar  132   6.924   2.569  -0.397
    1   AR   Ar  133   4.576   6.171   2.911
    1   AR   Ar  134   4.306   1.237   3.774
    1   AR   Ar  135   5.866   0.974   2.661
    1   AR   Ar  136   5.314   6.896   2.444
    1   AR   Ar  137   2.209   5.196   3.577
    1   AR   Ar  138   4.530   1.426   5.642
    1   AR   Ar  139   5.573   2.502   5.291
    1   AR   Ar  140   3.969   6.916   4.268
    1   AR   Ar  141   3.986   4.932   4.508
    1   AR   Ar  142   3.106   7.081   5.940
    1   AR   Ar  143   6.431   0.042   5.619
    1   AR   Ar  144   6.844   1.871   4.903
    1   AR   Ar  145   4.793   4.384  -0.258
    1   AR   Ar  146   2.908   2.493   2.068
    1   AR   Ar  147   4.549   1.852  -1.735
    1   AR   Ar  148   3.343   6.057  -1.118
    1   AR   Ar  149   2.835   1.752   0.585
    1   AR   Ar  150   2.809   1.320   2.223
    1   AR   Ar  151   2.584   2.096   3.376
    1   AR   Ar  152   3.010   2.714  -0.654
    1   AR   Ar  153   4.732   7.072   3.679
    1   AR   Ar  154   4.161   2.247   4.492
    1   AR   Ar  155   6.683   6.992   6.798
    1   AR   Ar  156   3.564   3.575   3.440
    1   AR   Ar  157   1.296   3.715   6.985
    1   AR   Ar  158   0.341   2.432   6.978
    1   AR   Ar  159   4.883   1.472   7.270
    1   AR   Ar  160   2.039   2.112   5.208
    1   AR   Ar  161   5.365   3.725   2.195
    1   AR   Ar  162   4.889   5.669  -0.533
    1   AR   Ar  163   5.364   3.589   0.390
    1   AR   Ar  164   2.988   5.854   2.334
    1   AR   Ar  165   3.726   2.707   0.949
    1   AR   Ar  166   2.699   3.486   4.513
    1   AR   Ar  167   4.914   0.795   2.787
    1   AR   Ar  168   5.165   3.780  -1.172
    1   AR   Ar  169   2.776   3.857   2.721
    1   AR   Ar  170   2.557   4.022   5.693
    1   AR   Ar  171   6.060   3.974   3.876
    1   AR   Ar  172   4.806   4.508   5.172
    1   AR   Ar  173   3.178   3.483   6.997
    1   AR   Ar  174   2.558   5.794   6.775
    1   AR   Ar  175   2.651   2.502   6.208
    1   AR   Ar  176   3.592   1.986   5.829
    1   AR   Ar  177   6.904   5.118  -1.201
    1   AR   Ar  178   4.061   5.035  -0.509
    1   AR   Ar  179   4.099   6.016   0.429
    1   AR   Ar  180   1.417   1.130  -3.114
    1   AR   Ar  181   0.591   6.019   1.440
    1   AR   Ar  182   2.494   0.131   3.690
    1   AR   Ar  183   3.946   5.225   2.643
    1   AR   Ar  184   4.969   6.667   1.337
    1   AR   Ar  185   2.984   5.196   4.762
    1   AR   Ar  186   2.902   4.336   3.827
    1   AR   Ar  187   3.402   6.547   3.054
    1   AR   Ar  188   2.760   0.040   1.824
    1   AR   Ar  189   3.822   2.741   6.599
    1   AR   Ar  190   3.406   5.726   3.726
    1   AR   Ar  191   3.035   6.662   7.500
    1   AR   Ar  192   3.804   5.961   4.791
    1   AR   Ar  193   2.552   6.139   1.205
    1   AR   Ar  194   4.192   3.830  -1.089
    1   AR   Ar  195   5.536   1.091   0.530
    1   AR   Ar  196   4.337   0.349   0.024
    1   AR   Ar  197   3.938   1.061   0.875
    1   AR   Ar  198   5.593   1.489   1.651
    1   AR   Ar  199   3.664   1.401   2.863
    1   AR   Ar  200   5.795   2.513  -0.199
    1   AR   Ar  201   5.654   5.984   3.954
    1   AR   Ar  202   5.705   1.569   4.472
    1   AR   Ar  203   6.222   6.324   3.079
    1   AR   Ar  204   4.715   6.569   5.106
    1   AR   Ar  205   6.747   0.321   2.267
    1   AR   Ar  206   5.031   0.812   4.531
    1   AR   Ar  207   0.842   1.760   6.107
    1   AR   Ar  208   6.962   0.094   3.362
    1   AR   Ar  209   7.039   2.619  -1.971
    1   AR   Ar  210   3.118   0.022   0.166
    1   AR   Ar  211   6.667   3.266   0.728
    1   AR   Ar  212   6.626   3.872  -1.166
    1   AR   Ar  213   3.867   0.656   1.852
    1   AR   Ar  214   4.435   3.013   2.672
    1   AR   Ar  215   5.798   2.915   1.249
    1   AR   Ar  216   0.481   2.976   1.526
    1   AR   Ar  217   5.365   3.136   4.429
    1   AR   Ar  218   4.321   3.245   4.902
    1   AR   Ar  219   4.711   2.456   3.600
    1   AR   Ar  220   4.256   4.115   2.081
    1   AR   Ar  221   6.014   6.071   5.325
    1   AR   Ar  222   4.832   0.451   6.251
    1   AR   Ar  223   6.865   1.271   6.169
    1   AR   Ar  224   4.744   2.978   5.962
    1   AR   Ar  225   6.337   2.964   2.764
    1   AR   Ar  226   1.896   3.702   3.835
    1   AR   Ar  227   6.538   3.788   1.809
    1   AR   Ar  228   5.913   6.367   1.695
    1   AR   Ar  229   5.347   4.870  -1.119
    1   AR   Ar  230   4.553   4.003   3.884
    1   AR   Ar  231   5.354   1.419   3.366
    1   AR   Ar  232   4.730   2.311   1.120
    1   AR   Ar  233   6.088   2.335   3.736
    1   AR   Ar  234   6.416   2.892   4.754
    1   AR   Ar  235   6.272   1.167   3.598
    1   AR   Ar  236   5.508   5.206   5.610
    1   AR   Ar  237   5.907   3.313   5.987
    1   AR   Ar  238   4.972   4.643   6.310
    1   AR   Ar  239   6.295   4.066   8.608
    1   AR   Ar  240   6.570   3.059   7.014
    1   AR   Ar  241   1.206   6.350  -0.664
    1   AR   Ar  242   5.560   4.993   0.108
    1   AR   Ar  243   5.018   4.403   2.921
    1   AR   Ar  244   0.615   5.466  -0.187
    1   AR   Ar  245   4.810   0.593   1.180
    1   AR   Ar  246   5.469   6.706   0.150
    1   AR   Ar  247   6.063   4.162   1.022
    1   AR   Ar  248   6.043   6.062  -0.644
    1   AR   Ar  249   4.005   5.819   1.634
    1   AR   Ar  250   4.774   5.690   4.467
    1   AR   Ar  251   5.298   4.800   3.800
    1   AR   Ar  252   4.494   5.329   3.539
    1   AR   Ar  253   6.742   3.844   6.451
    1   AR   Ar  254   2.627   2.157   9.313
    1   AR   Ar  255   3.801   3.845   9.244
    1   AR   Ar  256   6.710   4.942   3.151
    7.12000  7.12000 12.00000
Argon-slab step 3385
  256
    1   AR   Ar    1   6.100   1.720  -1.645
    1   AR   Ar    2   6.449   0.555   0.413
    1   AR   Ar    3   2.817   0.900  -0.494
    1   AR   Ar    4   1.575   0.701   0.166
    1   AR   Ar    5   7.064   6.930   1.313
    1   AR   Ar    6   6.875   1.322   2.389
    1   AR   Ar    7   6.207   3.981   2.752
    1   AR   Ar    8   5.854   0.110   1.072
    1   AR   Ar    9   1.473   6.807   3.360
    1   AR   Ar   10   0.711   0.690   3.642
    1   AR   Ar   11   2.132   6.302   4.108
    1   AR   Ar   12   0.724   1.529   2.976
    1   AR   Ar   13   0.395   0.610   5.325
    1   AR   Ar   14   6.432   2.091   7.537
    1   AR   Ar   15   5.069   6.512   8.421
    1   AR   Ar   16   0.926   6.863   4.695
    1   AR   Ar   17   6.406   2.186   0.760
    1   AR   Ar   18   5.856   4.079  -0.461
    1   AR   Ar   19   2.865   3.259   0.882
    1   AR   Ar   20   4.314   4.656  -2.050
    1   AR   Ar   21   3.770   2.059   1.843
    1   AR   Ar   22   6.154   1.918   2.752
    1   AR   Ar   23   0.301   0.920   0.062
    1   AR   Ar   24   6.890   2.152   1.702
    1   AR   Ar   25   0.829   2.079   4.207
    1   AR   Ar   26   6.019   6.959   3.864
    1   AR   Ar   27   1.674   0.714   3.124
    1   AR   Ar   28   0.319   2.752   5.016
    1   AR   Ar   29   5.503   2.857   7.053
    1   AR   Ar   30   1.723   1.632   4.220
    1   AR   Ar   31   3.558   0.648   7.181
    1   AR   Ar   32   1.403   2.618   6.180
    1   AR   Ar   33   1.142   4.566  -0.574
    1   AR   Ar   34   0.744   5.273   2.620
    1   AR   Ar   35   6.013   5.582   1.060
    1   AR   Ar   36   6.014   1.027  -3.871
    1   AR   Ar   37   5.414   2.414   2.100
    1   AR   Ar   38   0.192   4.386   2.059
    1   AR   Ar   39   1.062   4.124   2.488
    1   AR   Ar   40   2.216   3.673   1.785
    1   AR   Ar   41   7.096   2.664   3.672
    1   AR   Ar   42   6.086   4.903   4.493
    1   AR   Ar   43   6.577   2.540   6.049
    1   AR   Ar   44   0.813   4.177   3.419
    1   AR   Ar   45   0.783   3.531   5.876
    1   AR   Ar   46   6.976   5.363   4.944
    1   AR   Ar   47   5.753   4.173   7.153
    1   AR   Ar   48   6.713   5.513   6.526
    1   AR   Ar   49   5.209   0.871  -1.319
    1   AR   Ar   50   4.557   4.693   0.768
    1   AR   Ar   51   6.807   4.963   1.338
    1   AR   Ar   52   6.469   4.305  -2.460
    1   AR   Ar   53   5.436   5.522   3.045
    1   AR   Ar   54   0.591   6.359   2.544
    1   AR   Ar   55   6.461   5.579   2.490
    1   AR   Ar   56   0.048   1.243   1.025
    1   AR   Ar   57   5.263   3.379   3.392
    1   AR   Ar   58   0.019   3.687   3.868
    1   AR   Ar   59   2.152   5.576   5.345
    1   AR   Ar   60   0.204   5.957   3.481
    1   AR   Ar   61   0.092   4.737   5.951
    1   AR   Ar   62   6.973   4.638   4.055
    1   AR   Ar   63   2.195   0.873   6.836
    1   AR   Ar   64   1.007   5.792   4.774
    1   AR   Ar   65   3.768   6.835   1.053
    1   AR   Ar   66   0.937   1.121   1.635
    1   AR   Ar   67   3.748   6.828  -0.591
    1   AR   Ar   68   2.134   1.956  -0.901
    1   AR   Ar   69   2.967   0.938   1.218
    1   AR   Ar   70   0.828   0.313   2.677
    1   AR   Ar   71   3.405   0.698   4.099
    1   AR   Ar   72   4.341   6.933   2.140
    1   AR   Ar   73   3.863   0.393   3.147
    1   AR   Ar   74   1.752   0.460   4.784
    1   AR   Ar   75   3.949   1.051   4.890
    1   AR   Ar   76   1.829   0.598   1.617
    1   AR   Ar   77   2.137   6.929   5.341
    1   AR   Ar   78   0.380   6.338   5.727
    1   AR   Ar   79   3.187   6.065   5.846
    1   AR   Ar   80   3.880   5.138   5.651
    1   AR   Ar   81   2.563   6.005  -0.274
    1   AR   Ar   82   6.694   5.424   0.148
    1   AR   Ar   83   0.421   2.264   0.704
    1   AR   Ar   84   0.189   3.957   1.099
    1   AR   Ar   85   1.313   3.875   1.249
    1   AR   Ar   86   1.554   4.940   0.458
    1   AR   Ar   87   1.449   2.422   1.122
    1   AR   Ar   88   2.004   4.590   1.320
    1   AR   Ar   89   0.445   3.431   2.743
    1   AR   Ar   90   2.229   2.554   4.311
    1   AR   Ar   91   1.428   2.566   3.394
    1   AR   Ar   92   1.368   2.433   2.205
    1   AR   Ar   93   1.249   0.636   6.031
    1   AR   Ar   94   0.300   0.056  11.407
    1   AR   Ar   95   3.691   0.850   6.188
    1   AR   Ar   96   3.159   0.167   4.880
    1   AR   Ar   97   4.917   1.734  -0.090
    1   AR   Ar   98   1.755   4.851   2.668
    1   AR   Ar   99   6.313   1.523  -0.609
    1   AR   Ar  100   1.472   3.111  -0.704
    1   AR   Ar  101   3.589   4.999   1.337
    1   AR   Ar  102   3.582   2.513   3.435
    1   AR   Ar  103   0.729   4.967   0.952
    1   AR   Ar  104   3.231   4.116  -1.551
    1   AR   Ar  105   1.115   3.385   4.398
    1   AR   Ar  106   3.448   3.010   5.549
    1   AR   Ar  107   0.708   4.547   4.898
    1   AR   Ar  108   3.134   1.654   4.752
    1   AR   Ar  109   2.026   4.631   4.822
    1   AR   Ar  110   2.005   3.057   5.314
    1   AR   Ar  111   4.552   4.607   7.482
    1   AR   Ar  112   1.579   6.022   6.040
    1   AR   Ar  113   3.184   4.968   0.136
    1   AR   Ar  114   2.476   0.159  -1.095
    1   AR   Ar  115   2.431   5.390  -1.111
    1   AR   Ar  116   5.765   0.471  -0.497
    1   AR   Ar  117   0.937   5.041   3.920
    1   AR   Ar  118   1.345   5.801   3.187
    1   AR   Ar  119   2.239   2.903   2.609
    1   AR   Ar  120   1.994   6.669   2.222
    1   AR   Ar  121   5.834   4.194   5.318
    1   AR   Ar  122   2.867   6.148   4.877
    1   AR   Ar  123   3.670   4.127   5.176
    1   AR   Ar  124   1.613   5.691   1.691
    1   AR   Ar  125   6.807   4.009   5.014
    1   AR   Ar  126   6.950   7.077   4.739
    1   AR   Ar  127   4.118   3.891   6.808
    1   AR   Ar  128   3.030   4.826   6.803
    1   AR   Ar  129   2.365   6.240   3.100
    1   AR   Ar  130   4.296   2.625  -2.530
    1   AR   Ar  131   3.720   1.843  -0.097
    1   AR   Ar  132   6.948   2.566  -0.398
    1   AR   Ar  133   4.572   6.186   2.944
    1   AR   Ar  134   4.290   1.238   3.757
    1   AR   Ar  135   5.889   0.977   2.646
    1   AR   Ar  136   5.351   6.930   2.460
    1   AR   Ar  137   2.165   5.203   3.573
    1   AR   Ar  138   4.531   1.427   5.643
    1   AR   Ar  139   5.561   2.494   5.287
    1   AR   Ar  140   3.962   6.915   4.257
    1   AR   Ar  141   3.998   4.906   4.505
    1   AR   Ar  142   3.093   7.084   5.957
    1   AR   Ar  143   6.441   0.046   5.625
    1   AR   Ar  144   6.828   1.847   4.919
    1   AR   Ar  145   4.764   4.389  -0.276
    1   AR   Ar  146   2.909   2.485   2.070
    1   AR   Ar  147   4.495   1.837  -1.733
    1   AR   Ar  148   3.366   6.036  -1.143
    1   AR   Ar  149   2.818   1.766   0.548
    1   AR   Ar  150   2.799   1.338   2.198
    1   AR   Ar  151   2.572   2.103   3.394
    1   AR   Ar  152   2.987   2.698  -0.688
    1   AR   Ar  153   4.722   7.089   3.666
    1   AR   Ar  154   4.139   2.220   4.480
    1   AR   Ar  155   6.671   6.962   6.805
    1   AR   Ar  156   3.540   3.580   3.390
    1   AR   Ar  157   1.297   3.723   7.012
    1   AR   Ar  158   0.328   2.408   6.965
    1   AR   Ar  159   4.875   1.465   7.298
    1   AR   Ar  160   2.007   2.083   5.183
    1   AR   Ar  161   5.354   3.739   2.176
    1   AR   Ar  162   4.922   5.680  -0.539
    1   AR   Ar  163   5.389   3.627   0.353
    1   AR   Ar  164   2.977   5.839   2.286
    1   AR   Ar  165   3.738   2.687   0.936
    1   AR   Ar  166   2.705   3.442   4.514
    1   AR   Ar  167   4.918   0.770   2.808
    1   AR   Ar  168   5.184   3.790  -1.177
    1   AR   Ar  169   2.724   3.879   2.743
    1   AR   Ar  170   2.524   4.016   5.652
    1   AR   Ar  171   6.069   3.956   3.867
    1   AR   Ar  172   4.810   4.513   5.186
    1   AR   Ar  173   3.172   3.490   6.982
    1   AR   Ar  174   2.517   5.815   6.750
    1   AR   Ar  175   2.678   2.504   6.215
    1   AR   Ar  176   3.590   1.956   5.825
    1   AR   Ar  177   6.906   5.130  -1.208
    1   AR   Ar  178   4.071   5.029  -0.507
    1   AR   Ar  179   4.095   5.992   0.402
    1   AR   Ar  180   1.441   1.153  -3.109
    1   AR   Ar  181   0.602   6.027   1.441
    1   AR   Ar  182   2.486   0.127   3.662
    1   AR   Ar  183   3.969   5.207   2.641
    1   AR   Ar  184   4.977   6.671   1.367
    1   AR   Ar  185   2.981   5.186   4.745
    1   AR   Ar  186   2.897   4.332   3.810
    1   AR   Ar  187   3.400   6.536   3.091
    1   AR   Ar  188   2.767   0.054   1.805
    1   AR   Ar  189   3.839   2.735   6.582
    1   AR   Ar  190   3.394   5.708   3.760
    1   AR   Ar  191   3.040   6.676   7.491
    1   AR   Ar  192   3.820   5.971   4.768
    1   AR   Ar  193   2.563   6.127   1.205
    1   AR   Ar  194   4.193   3.822  -1.075
    1   AR   Ar  195   5.532   1.153   0.538
    1   AR   Ar  196   4.322   0.363   0.015
    1   AR   Ar  197   3.924   1.043   0.876
    1   AR   Ar  198   5.607   1.487   1.614
    1   AR   Ar  199   3.629   1.402   2.865
    1   AR   Ar  200   5.824   2.491  -0.198
    1   AR   Ar  201   5.664   5.990   3.945
    1   AR   Ar  202   5.678   1.536   4.448
    1   AR   Ar  203   6.212   6.328   3.056
    1   AR   Ar  204   4.750   6.572   5.109
    1   AR   Ar  205   6.739   0.311   2.280
    1   AR   Ar  206   5.020   0.817   4.561
    1   AR   Ar  207   0.836   1.769   6.104
    1   AR   Ar  208   6.984   0.053   3.320
    1   AR   Ar  209   7.066   2.623  -1.983
    1   AR   Ar  210   3.088   0.011   0.163
    1   AR   Ar  211   6.656   3.239   0.696
    1   AR   Ar  212   6.651   3.902  -1.140
    1   AR   Ar  213   3.929   0.640   1.832
    1   AR   Ar  214   4.469   3.003   2.666
    1   AR   Ar  215   5.765   2.918   1.246
    1   AR   Ar  216   0.484   2.983   1.528
    1   AR   Ar  217   5.384   3.105   4.433
    1   AR   Ar  218   4.312   3.259   4.889
    1   AR   Ar  219   4.726   2.414   3.584
    1   AR   Ar  220   4.261   4.118   2.084
    1   AR   Ar  221   6.052   6.063   5.310
    1   AR   Ar  222   4.847   0.440   6.237
    1   AR   Ar  223   6.863   1.270   6.152
    1   AR   Ar  224   4.727   2.936   5.954
    1   AR   Ar  225   6.322   2.980   2.772
    1   AR   Ar  226   1.932   3.691   3.840
    1   AR   Ar  227   6.520   3.761   1.829
    1   AR   Ar  228   5.912   6.364   1.705
    1   AR   Ar  229   5.358   4.873  -1.142
    1   AR   Ar  230   4.523   4.006   3.856
    1   AR   Ar  231   5.358   1.442   3.378
    1   AR   Ar  232   4.719   2.294   1.152
    1   AR   Ar  233   6.056   2.286   3.743
    1   AR   Ar  234   6.416   2.868   4.754
    1   AR   Ar  235   6.246   1.173   3.585
    1   AR   Ar  236   5.527   5.234   5.624
    1   AR   Ar  237   5.928   3.308   5.995
    1   AR   Ar  238   4.959   4.659   6.367
    1   AR   Ar  239   6.344   4.056   8.627
    1   AR   Ar  240   6.587   3.034   7.013
    1   AR   Ar  241   1.232   6.380  -0.671
    1   AR   Ar  242   5.536   5.022   0.113
    1   AR   Ar  243   4.976   4.361   2.915
    1   AR   Ar  244   0.601   5.476  -0.190
    1   AR   Ar  245   4.767   0.569   1.187
    1   AR   Ar  246   5.482   6.712   0.158
    1   AR   Ar  247   6.050   4.156   1.017
    1   AR   Ar  248   6.030   6.056  -0.621
    1   AR   Ar  249   4.014   5.826   1.624
    1   AR   Ar  250   4.777   5.701   4.464
    1   AR   Ar  251   5.273   4.812   3.807
    1   AR   Ar  252   4.452   5.323   3.542
    1   AR   Ar  253   6.753   3.884   6.470
    1   AR   Ar  254   2.593   2.163   9.322
    1   AR   Ar  255   3.791   3.881   9.262
    1   AR   Ar  256   6.736   4.952   3.167
    7.12000  7.12000 12.00000
Argon-slab step 3390
  256
    1   AR   Ar    1   6.087   1.744  -1.622
    1   AR   Ar    2   6.441   0.564   0.418
    1   AR   Ar    3   2.823   0.926  -0.501
    1   AR   Ar    4   1.545   0.726   0.168
    1   AR   Ar    5   7.052   6.926   1.314
    1   AR   Ar    6   6.881   1.312   2.412
    1   AR   Ar    7   6.201   3.976   2.747
    1   AR   Ar    8   5.827   0.140   1.072
    1   AR   Ar    9   1.451   6.813   3.408
    1   AR   Ar   10   0.714   0.733   3.663
    1   AR   Ar   11   2.143   6.325   4.089
    1   AR   Ar   12   0.693   1.519   2.985
    1   AR   Ar   13   0.379   0.619   5.371
    1   AR   Ar   14   6.429   2.094   7.532
    1   AR   Ar   15   5.065   6.517   8.446
    1   AR   Ar   16   0.885   6.870   4.714
    1   AR   Ar   17   6.406   2.167   0.741
    1   AR   Ar   18   5.850   4.090  -0.476
    1   AR   Ar   19   2.882   3.263   0.873
    1   AR   Ar   20   4.322   4.681  -2.048
    1   AR   Ar   21   3.735   2.097   1.837
    1   AR   Ar   22   6.154   1.932   2.743
    1   AR   Ar   23   0.323   0.914   0.054
    1   AR   Ar   24   6.883   2.180   1.696
    1   AR   Ar   25   0.877   2.077   4.199
    1   AR   Ar   26   5.999   6.953   3.846
    1   AR   Ar   27   1.656   0.703   3.127
    1   AR   Ar   28   0.312   2.784   5.007
    1   AR   Ar   29   5.503   2.842   7.066
    1   AR   Ar   30   1.720   1.634   4.212
    1   AR   Ar   31   3.550   0.644   7.172
    1   AR   Ar   32   1.386   2.630   6.197
    1   AR   Ar   33   1.134   4.550  -0.525
    1   AR   Ar   34   0.723   5.276   2.603
    1   AR   Ar   35   6.011   5.562   1.075
    1   AR   Ar   36   6.009   1.022  -3.855
    1   AR   Ar   37   5.412   2.427   2.110
    1   AR   Ar   38   0.170   4.400   2.042
    1   AR   Ar   39   1.055   4.099   2.472
    1   AR   Ar   40   2.243   3.674   1.794
    1   AR   Ar   41   7.112   2.643   3.666
    1   AR   Ar   42   6.108   4.899   4.486
    1   AR   Ar   43   6.582   2.532   6.035
    1   AR   Ar   44   0.780   4.177   3.425
    1   AR   Ar   45   0.797   3.523   5.830
    1   AR   Ar   46   6.980   5.373   4.963
    1   AR   Ar   47   5.778   4.184   7.175
    1   AR   Ar   48   6.687   5.488   6.521
    1   AR   Ar   49   5.214   0.882  -1.321
    1   AR   Ar   50   4.509   4.672   0.768
    1   AR   Ar   51   6.823   4.996   1.299
    1   AR   Ar   52   6.457   4.277  -2.490
    1   AR   Ar   53   5.418   5.518   3.028
    1   AR   Ar   54   0.638   6.350   2.547
    1   AR   Ar   55   6.466   5.601   2.477
    1   AR   Ar   56   0.050   1.190   1.057
    1   AR   Ar   57   5.237   3.418   3.424
    1   AR   Ar   58   0.022   3.676   3.863
    1   AR   Ar   59   2.169   5.568   5.353
    1   AR   Ar   60   0.183   5.934   3.484
    1   AR   Ar   61   0.086   4.736   5.957
    1   AR   Ar   62   6.962   4.618   4.041
    1   AR   Ar   63   2.226   0.864   6.813
    1   AR   Ar   64   1.025   5.782   4.777
    1   AR   Ar   65   3.769   6.814   1.063
    1   AR   Ar   66   0.940   1.124   1.647
    1   AR   Ar   67   3.757   6.853  -0.570
    1   AR   Ar   68   2.093   1.990  -0.902
    1   AR   Ar   69   2.954   0.930   1.228
    1   AR   Ar   70   0.839   0.322   2.660
    1   AR   Ar   71   3.398   0.669   4.082
    1   AR   Ar   72   4.336   6.911   2.103
    1   AR   Ar   73   3.864   0.396   3.185
    1   AR   Ar   74   1.708   0.511   4.783
    1   AR   Ar   75   3.942   1.026   4.890
    1   AR   Ar   76   1.805   0.604   1.627
    1   AR   Ar   77   2.137   6.923   5.351
    1   AR   Ar   78   0.367   6.333   5.729
    1   AR   Ar   79   3.200   6.076   5.871
    1   AR   Ar   80   3.844   5.134   5.629
    1   AR   Ar   81   2.558   6.006  -0.230
    1   AR   Ar   82   6.700   5.415   0.150
    1   AR   Ar   83   0.441   2.263   0.685
    1   AR   Ar   84   0.191   3.958   1.090
    1   AR   Ar   85   1.287   3.840   1.289
    1   AR   Ar   86   1.550   4.951   0.478
    1   AR   Ar   87   1.440   2.381   1.095
    1   AR   Ar   88   2.027   4.583   1.351
    1   AR   Ar   89   0.386   3.455   2.754
    1   AR   Ar   90   2.241   2.512   4.296
    1   AR   Ar   91   1.424   2.566   3.407
    1   AR   Ar   92   1.381   2.443   2.178
    1   AR   Ar   93   1.234   0.628   6.032
    1   AR   Ar   94   0.297   0.075  11.413
    1   AR   Ar   95   3.703   0.868   6.169
    1   AR   Ar   96   3.163   0.141   4.904
    1   AR   Ar   97   4.909   1.721  -0.084
    1   AR   Ar   98   1.737   4.843   2.660
    1   AR   Ar   99   6.316   1.544  -0.570
    1   AR   Ar  100   1.454   3.099  -0.690
    1   AR   Ar  101   3.574   5.010   1.337
    1   AR   Ar  102   3.578   2.525   3.427
    1   AR   Ar  103   0.726   4.986   0.961
    1   AR   Ar  104   3.242   4.115  -1.527
    1   AR   Ar  105   1.106   3.369   4.387
    1   AR   Ar  106   3.467   3.000   5.587
    1   AR   Ar  107   0.725   4.534   4.910
    1   AR   Ar  108   3.131   1.631   4.790
    1   AR   Ar  109   2.011   4.605   4.833
    1   AR   Ar  110   2.062   3.083   5.356
    1   AR   Ar  111   4.566   4.640   7.479
    1   AR   Ar  112   1.591   6.034   6.062
    1   AR   Ar  113   3.195   4.966   0.138
    1   AR   Ar  114   2.498   0.166  -1.091
    1   AR   Ar  115   2.418   5.354  -1.107
    1   AR   Ar  116   5.789   0.493  -0.534
    1   AR   Ar  117   0.910   5.040   3.923
    1   AR   Ar  118   1.336   5.826   3.162
    1   AR   Ar  119   2.212   2.915   2.597
    1   AR   Ar  120   1.987   6.651   2.244
    1   AR   Ar  121   5.832   4.148   5.292
    1   AR   Ar  122   2.853   6.163   4.885
    1   AR   Ar  123   3.670   4.106   5.148
    1   AR   Ar  124   1.562   5.692   1.706
    1   AR   Ar  125   6.821   4.017   5.010
    1   AR   Ar  126   6.929   7.116   4.706
    1   AR   Ar  127   4.136   3.892   6.785
    1   AR   Ar  128   3.046   4.831   6.805
    1   AR   Ar  129   2.360   6.211   3.110
    1   AR   Ar  130   4.297   2.589  -2.547
    1   AR   Ar  131   3.724   1.868  -0.123
    1   AR   Ar  132   6.970   2.561  -0.398
    1   AR   Ar  133   4.566   6.205   2.977
    1   AR   Ar  134   4.276   1.241   3.740
    1   AR   Ar  135   5.917   0.963   2.618
    1   AR   Ar  136   5.392   6.964   2.478
    1   AR   Ar  137   2.123   5.210   3.573
    1   AR   Ar  138   4.537   1.431   5.647
    1   AR   Ar  139   5.549   2.484   5.285
    1   AR   Ar  140   3.949   6.922   4.254
    1   AR   Ar  141   4.012   4.880   4.500
    1   AR   Ar  142   3.079   7.092   5.975
    1   AR   Ar  143   6.449   0.049   5.637
    1   AR   Ar  144   6.810   1.821   4.935
    1   AR   Ar  145   4.747   4.382  -0.293
    1   AR   Ar  146   2.915   2.446   2.093
    1   AR   Ar  147   4.496   1.813  -1.744
    1   AR   Ar  148   3.399   6.010  -1.175
    1   AR   Ar  149   2.802   1.781   0.511
    1   AR   Ar  150   2.788   1.355   2.174
    1   AR   Ar  151   2.558   2.110   3.409
    1   AR   Ar  152   2.965   2.682  -0.721
    1   AR   Ar  153   4.724   7.109   3.645
    1   AR   Ar  154   4.115   2.190   4.468
    1   AR   Ar  155   6.659   6.931   6.810
    1   AR   Ar  156   3.519   3.585   3.341
    1   AR   Ar  157   1.322   3.741   7.000
    1   AR   Ar  158   0.316   2.382   6.950
    1   AR   Ar  159   4.862   1.476   7.317
    1   AR   Ar  160   1.974   2.038   5.163
    1   AR   Ar  161   5.343   3.747   2.152
    1   AR   Ar  162   4.956   5.693  -0.543
    1   AR   Ar  163   5.411   3.662   0.319
    1   AR   Ar  164   2.967   5.824   2.236
    1   AR   Ar  165   3.751   2.664   0.922
    1   AR   Ar  166   2.717   3.404   4.520
    1   AR   Ar  167   4.906   0.734   2.824
    1   AR   Ar  168   5.209   3.798  -1.186
    1   AR   Ar  169   2.672   3.902   2.766
    1   AR   Ar  170   2.493   4.010   5.609
    1   AR   Ar  171   6.077   3.938   3.860
    1   AR   Ar  172   4.810   4.518   5.200
    1   AR   Ar  173   3.161   3.496   6.967
    1   AR   Ar  174   2.476   5.836   6.724
    1   AR   Ar  175   2.694   2.480   6.216
    1   AR   Ar  176   3.587   1.924   5.819
    1   AR   Ar  177   6.907   5.141  -1.214
    1   AR   Ar  178   4.092   5.029  -0.499
    1   AR   Ar  179   4.092   5.966   0.375
    1   AR   Ar  180   1.466   1.176  -3.103
    1   AR   Ar  181   0.611   6.034   1.442
    1   AR   Ar  182   2.480   0.123   3.634
    1   AR   Ar  183   3.989   5.188   2.634
    1   AR   Ar  184   4.983   6.671   1.394
    1   AR   Ar  185   2.980   5.161   4.726
    1   AR   Ar  186   2.890   4.329   3.795
    1   AR   Ar  187   3.400   6.527   3.127
    1   AR   Ar  188   2.772   0.062   1.796
    1   AR   Ar  189   3.857   2.729   6.564
    1   AR   Ar  190   3.381   5.687   3.796
    1   AR   Ar  191   3.044   6.689   7.480
    1   AR   Ar  192   3.830   5.960   4.772
    1   AR   Ar  193   2.578   6.114   1.198
    1   AR   Ar  194   4.185   3.815  -1.059
    1   AR   Ar  195   5.529   1.212   0.548
    1   AR   Ar  196   4.309   0.379   0.010
    1   AR   Ar  197   3.911   1.032   0.867
    1   AR   Ar  198   5.622   1.483   1.577
    1   AR   Ar  199   3.601   1.402   2.862
    1   AR   Ar  200   5.853   2.470  -0.196
    1   AR   Ar  201   5.694   6.012   3.948
    1   AR   Ar  202   5.659   1.513   4.425
    1   AR   Ar  203   6.200   6.344   3.038
    1   AR   Ar  204   4.785   6.577   5.113
    1   AR   Ar  205   6.731   0.294   2.292
    1   AR   Ar  206   4.998   0.812   4.591
    1   AR   Ar  207   0.825   1.772   6.101
    1   AR   Ar  208   7.006   0.010   3.278
    1   AR   Ar  209   7.092   2.626  -1.994
    1   AR   Ar  210   3.056   0.001   0.162
    1   AR   Ar  211   6.643   3.210   0.663
    1   AR   Ar  212   6.677   3.933  -1.116
    1   AR   Ar  213   3.982   0.636   1.814
    1   AR   Ar  214   4.473   2.994   2.664
    1   AR   Ar  215   5.732   2.925   1.241
    1   AR   Ar  216   0.488   2.992   1.533
    1   AR   Ar  217   5.402   3.076   4.435
    1   AR   Ar  218   4.321   3.287   4.943
    1   AR   Ar  219   4.742   2.372   3.568
    1   AR   Ar  220   4.266   4.120   2.088
    1   AR   Ar  221   6.094   6.060   5.291
    1   AR   Ar  222   4.860   0.431   6.222
    1   AR   Ar  223   6.862   1.270   6.134
    1   AR   Ar  224   4.716   2.901   5.946
    1   AR   Ar  225   6.308   2.990   2.780
    1   AR   Ar  226   1.969   3.683   3.839
    1   AR   Ar  227   6.503   3.724   1.844
    1   AR   Ar  228   5.917   6.364   1.723
    1   AR   Ar  229   5.371   4.880  -1.178
    1   AR   Ar  230   4.490   4.010   3.829
    1   AR   Ar  231   5.327   1.490   3.424
    1   AR   Ar  232   4.711   2.276   1.186
    1   AR   Ar  233   6.021   2.239   3.752
    1   AR   Ar  234   6.415   2.847   4.752
    1   AR   Ar  235   6.244   1.172   3.581
    1   AR   Ar  236   5.544   5.259   5.638
    1   AR   Ar  237   5.942   3.308   6.003
    1   AR   Ar  238   4.945   4.674   6.425
    1   AR   Ar  239   6.394   4.045   8.645
    1   AR   Ar  240   6.600   3.008   7.014
    1   AR   Ar  241   1.259   6.409  -0.678
    1   AR   Ar  242   5.514   5.052   0.119
    1   AR   Ar  243   4.933   4.322   2.909
    1   AR   Ar  244   0.589   5.486  -0.193
    1   AR   Ar  245   4.733   0.544   1.194
    1   AR   Ar  246   5.488   6.717   0.162
    1   AR   Ar  247   6.035   4.153   1.008
    1   AR   Ar  248   6.015   6.049  -0.597
    1   AR   Ar  249   4.029   5.848   1.619
    1   AR   Ar  250   4.783   5.710   4.463
    1   AR   Ar  251   5.255   4.820   3.821
    1   AR   Ar  252   4.404   5.318   3.546
    1   AR   Ar  253   6.765   3.928   6.484
    1   AR   Ar  254   2.558   2.169   9.331
    1   AR   Ar  255   3.781   3.916   9.279
    1   AR   Ar  256   6.765   4.954   3.181
    7.12000  7.12000 12.00000
Argon-slab step 3395
  256
    1   AR   Ar    1   6.073   1.769  -1.598
    1   AR   Ar    2   6.438   0.579   0.416
    1   AR   Ar    3   2.832   0.958  -0.503
    1   AR   Ar    4   1.547   0.742   0.155
    1   AR   Ar    5   7.034   6.919   1.307
    1   AR   Ar    6   6.923   1.276   2.447
    1   AR   Ar    7   6.193   3.986   2.756
    1   AR   Ar    8   5.795   0.169   1.079
    1   AR   Ar    9   1.433   6.827   3.438
    1   AR   Ar   10   0.715   0.772   3.689
    1   AR   Ar   11   2.151   6.346   4.078
    1   AR   Ar   12   0.663   1.512   2.991
    1   AR   Ar   13   0.365   0.628   5.412
    1   AR   Ar   14   6.427   2.096   7.527
    1   AR   Ar   15   5.061   6.522   8.471
    1   AR   Ar   16   0.844   6.877   4.732
    1   AR   Ar   17   6.405   2.148   0.722
    1   AR   Ar   18   5.851   4.109  -0.489
    1   AR   Ar   19   2.896   3.269   0.864
    1   AR   Ar   20   4.330   4.706  -2.043
    1   AR   Ar   21   3.733   2.071   1.824
    1   AR   Ar   22   6.156   1.941   2.738
    1   AR   Ar   23   0.345   0.908   0.046
    1   AR   Ar   24   6.875   2.207   1.692
    1   AR   Ar   25   0.904   2.086   4.192
    1   AR   Ar   26   5.981   6.961   3.831
    1   AR   Ar   27   1.645   0.697   3.131
    1   AR   Ar   28   0.309   2.818   4.999
    1   AR   Ar   29   5.503   2.827   7.076
    1   AR   Ar   30   1.733   1.620   4.201
    1   AR   Ar   31   3.542   0.639   7.167
    1   AR   Ar   32   1.366   2.653   6.238
    1   AR   Ar   33   1.126   4.534  -0.475
    1   AR   Ar   34   0.690   5.271   2.583
    1   AR   Ar   35   6.005   5.542   1.085
    1   AR   Ar   36   6.004   1.017  -3.840
    1   AR   Ar   37   5.408   2.441   2.123
    1   AR   Ar   38   0.147   4.418   2.030
    1   AR   Ar   39   1.063   4.079   2.441
    1   AR   Ar   40   2.271   3.670   1.803
    1   AR   Ar   41   0.006   2.618   3.661
    1   AR   Ar   42   6.123   4.899   4.485
    1   AR   Ar   43   6.593   2.517   6.019
    1   AR   Ar   44   0.749   4.176   3.435
    1   AR   Ar   45   0.810   3.515   5.784
    1   AR   Ar   46   6.986   5.383   4.982
    1   AR   Ar   47   5.802   4.195   7.196
    1   AR   Ar   48   6.658   5.464   6.515
    1   AR   Ar   49   5.219   0.896  -1.325
    1   AR   Ar   50   4.484   4.674   0.756
    1   AR   Ar   51   6.843   5.027   1.261
    1   AR   Ar   52   6.445   4.250  -2.519
    1   AR   Ar   53   5.401   5.513   3.009
    1   AR   Ar   54   0.682   6.344   2.549
    1   AR   Ar   55   6.473   5.618   2.447
    1   AR   Ar   56   0.044   1.145   1.083
    1   AR   Ar   57   5.214   3.452   3.451
    1   AR   Ar   58   0.024   3.649   3.859
    1   AR   Ar   59   2.184   5.555   5.360
    1   AR   Ar   60   0.163   5.910   3.485
    1   AR   Ar   61   0.081   4.741   5.943
    1   AR   Ar   62   6.962   4.601   4.049
    1   AR   Ar   63   2.258   0.854   6.789
    1   AR   Ar   64   1.042   5.770   4.781
    1   AR   Ar   65   3.770   6.795   1.075
    1   AR   Ar   66   0.937   1.130   1.661
    1   AR   Ar   67   3.765   6.875  -0.552
    1   AR   Ar   68   2.051   2.023  -0.903
    1   AR   Ar   69   2.938   0.922   1.235
    1   AR   Ar   70   0.844   0.332   2.644
    1   AR   Ar   71   3.386   0.648   4.057
    1   AR   Ar   72   4.330   6.875   2.080
    1   AR   Ar   73   3.866   0.398   3.218
    1   AR   Ar   74   1.659   0.569   4.775
    1   AR   Ar   75   3.940   0.997   4.891
    1   AR   Ar   76   1.788   0.605   1.637
    1   AR   Ar   77   2.142   6.909   5.366
    1   AR   Ar   78   0.354   6.329   5.729
    1   AR   Ar   79   3.213   6.080   5.896
    1   AR   Ar   80   3.808   5.131   5.605
    1   AR   Ar   81   2.554   6.009  -0.185
    1   AR   Ar   82   6.702   5.405   0.154
    1   AR   Ar   83   0.457   2.261   0.665
    1   AR   Ar   84   0.193   3.959   1.080
    1   AR   Ar   85   1.256   3.804   1.330
    1   AR   Ar   86   1.562   4.962   0.485
    1   AR   Ar   87   1.431   2.340   1.068
    1   AR   Ar   88   2.052   4.584   1.383
    1   AR   Ar   89   0.314   3.466   2.767
    1   AR   Ar   90   2.252   2.479   4.280
    1   AR   Ar   91   1.422   2.568   3.419
    1   AR   Ar   92   1.389   2.452   2.151
    1   AR   Ar   93   1.221   0.622   6.033
    1   AR   Ar   94   0.294   0.093  11.420
    1   AR   Ar   95   3.716   0.887   6.144
    1   AR   Ar   96   3.163   0.112   4.935
    1   AR   Ar   97   4.898   1.711  -0.081
    1   AR   Ar   98   1.723   4.838   2.650
    1   AR   Ar   99   6.320   1.564  -0.529
    1   AR   Ar  100   1.437   3.087  -0.677
    1   AR   Ar  101   3.555   5.012   1.335
    1   AR   Ar  102   3.576   2.533   3.419
    1   AR   Ar  103   0.726   4.995   0.975
    1   AR   Ar  104   3.253   4.116  -1.502
    1   AR   Ar  105   1.095   3.353   4.376
    1   AR   Ar  106   3.485   2.993   5.623
    1   AR   Ar  107   0.740   4.522   4.922
    1   AR   Ar  108   3.122   1.613   4.826
    1   AR   Ar  109   1.994   4.579   4.840
    1   AR   Ar  110   2.118   3.107   5.398
    1   AR   Ar  111   4.580   4.672   7.476
    1   AR   Ar  112   1.600   6.049   6.086
    1   AR   Ar  113   3.200   4.976   0.167
    1   AR   Ar  114   2.520   0.166  -1.089
    1   AR   Ar  115   2.405   5.318  -1.102
    1   AR   Ar  116   5.815   0.514  -0.567
    1   AR   Ar  117   0.885   5.048   3.929
    1   AR   Ar  118   1.332   5.850   3.142
    1   AR   Ar  119   2.179   2.935   2.595
    1   AR   Ar  120   1.970   6.630   2.258
    1   AR   Ar  121   5.826   4.102   5.266
    1   AR   Ar  122   2.834   6.190   4.889
    1   AR   Ar  123   3.667   4.085   5.121
    1   AR   Ar  124   1.515   5.691   1.723
    1   AR   Ar  125   6.840   4.025   5.005
    1   AR   Ar  126   6.908   0.033   4.667
    1   AR   Ar  127   4.155   3.892   6.760
    1   AR   Ar  128   3.064   4.835   6.805
    1   AR   Ar  129   2.359   6.180   3.117
    1   AR   Ar  130   4.293   2.570  -2.559
    1   AR   Ar  131   3.728   1.892  -0.147
    1   AR   Ar  132   6.992   2.556  -0.396
    1   AR   Ar  133   4.560   6.228   3.008
    1   AR   Ar  134   4.264   1.245   3.725
    1   AR   Ar  135   5.941   0.940   2.584
    1   AR   Ar  136   5.433   6.997   2.496
    1   AR   Ar  137   2.084   5.218   3.578
    1   AR   Ar  138   4.547   1.434   5.654
    1   AR   Ar  139   5.537   2.471   5.287
    1   AR   Ar  140   3.953   6.935   4.226
    1   AR   Ar  141   4.027   4.856   4.492
    1   AR   Ar  142   3.064   7.104   5.995
    1   AR   Ar  143   6.457   0.052   5.652
    1   AR   Ar  144   6.793   1.796   4.952
    1   AR   Ar  145   4.748   4.358  -0.305
    1   AR   Ar  146   2.903   2.413   2.118
    1   AR   Ar  147   4.511   1.787  -1.757
    1   AR   Ar  148   3.431   5.982  -1.206
    1   AR   Ar  149   2.786   1.796   0.473
    1   AR   Ar  150   2.775   1.373   2.150
    1   AR   Ar  151   2.545   2.112   3.420
    1   AR   Ar  152   2.943   2.665  -0.753
    1   AR   Ar  153   4.737   0.010   3.620
    1   AR   Ar  154   4.091   2.160   4.457
    1   AR   Ar  155   6.648   6.900   6.814
    1   AR   Ar  156   3.502   3.591   3.291
    1   AR   Ar  157   1.346   3.757   6.986
    1   AR   Ar  158   0.307   2.366   6.942
    1   AR   Ar  159   4.848   1.492   7.334
    1   AR   Ar  160   1.941   1.989   5.150
    1   AR   Ar  161   5.336   3.752   2.175
    1   AR   Ar  162   4.989   5.707  -0.547
    1   AR   Ar  163   5.428   3.692   0.289
    1   AR   Ar  164   2.957   5.810   2.186
    1   AR   Ar  165   3.764   2.639   0.906
    1   AR   Ar  166   2.734   3.370   4.529
    1   AR   Ar  167   4.924   0.757   2.844
    1   AR   Ar  168   5.233   3.803  -1.202
    1   AR   Ar  169   2.617   3.927   2.790
    1   AR   Ar  170   2.466   4.006   5.567
    1   AR   Ar  171   6.084   3.921   3.854
    1   AR   Ar  172   4.766   4.495   5.203
    1   AR   Ar  173   3.147   3.502   6.951
    1   AR   Ar  174   2.436   5.858   6.696
    1   AR   Ar  175   2.702   2.439   6.214
    1   AR   Ar  176   3.584   1.892   5.812
    1   AR   Ar  177   6.907   5.151  -1.218
    1   AR   Ar  178   4.099   5.034  -0.491
    1   AR   Ar  179   4.088   5.940   0.347
    1   AR   Ar  180   1.490   1.199  -3.098
    1   AR   Ar  181   0.616   6.041   1.443
    1   AR   Ar  182   2.476   0.119   3.606
    1   AR   Ar  183   4.006   5.170   2.619
    1   AR   Ar  184   4.992   6.665   1.411
    1   AR   Ar  185   2.980   5.130   4.705
    1   AR   Ar  186   2.882   4.329   3.783
    1   AR   Ar  187   3.402   6.519   3.162
    1   AR   Ar  188   2.781   0.067   1.788
    1   AR   Ar  189   3.874   2.723   6.548
    1   AR   Ar  190   3.368   5.665   3.833
    1   AR   Ar  191   3.049   6.704   7.468
    1   AR   Ar  192   3.844   5.947   4.778
    1   AR   Ar  193   2.594   6.101   1.187
    1   AR   Ar  194   4.172   3.810  -1.043
    1   AR   Ar  195   5.531   1.267   0.559
    1   AR   Ar  196   4.298   0.398   0.010
    1   AR   Ar  197   3.895   1.027   0.848
    1   AR   Ar  198   5.638   1.479   1.542
    1   AR   Ar  199   3.584   1.399   2.855
    1   AR   Ar  200   5.882   2.449  -0.192
    1   AR   Ar  201   5.721   6.024   3.955
    1   AR   Ar  202   5.649   1.501   4.407
    1   AR   Ar  203   6.186   6.369   3.024
    1   AR   Ar  204   4.819   6.583   5.115
    1   AR   Ar  205   6.721   0.272   2.301
    1   AR   Ar  206   4.966   0.797   4.622
    1   AR   Ar  207   0.811   1.770   6.096
    1   AR   Ar  208   7.029   7.093   3.250
    1   AR   Ar  209   7.117   2.629  -2.004
    1   AR   Ar  210   3.023   7.112   0.165
    1   AR   Ar  211   6.631   3.181   0.629
    1   AR   Ar  212   6.704   3.963  -1.094
    1   AR   Ar  213   4.015   0.647   1.805
    1   AR   Ar  214   4.478   2.993   2.657
    1   AR   Ar  215   5.700   2.934   1.234
    1   AR   Ar  216   0.492   3.001   1.538
    1   AR   Ar  217   5.419   3.049   4.434
    1   AR   Ar  218   4.333   3.314   4.994
    1   AR   Ar  219   4.757   2.332   3.552
    1   AR   Ar  220   4.269   4.123   2.092
    1   AR   Ar  221   6.138   6.060   5.271
    1   AR   Ar  222   4.871   0.423   6.206
    1   AR   Ar  223   6.862   1.271   6.115
    1   AR   Ar  224   4.728   2.887   5.936
    1   AR   Ar  225   6.295   2.992   2.790
    1   AR   Ar  226   2.005   3.675   3.834
    1   AR   Ar  227   6.490   3.680   1.850
    1   AR   Ar  228   5.926   6.366   1.746
    1   AR   Ar  229   5.384   4.887  -1.212
    1   AR   Ar  230   4.452   4.016   3.808
    1   AR   Ar  231   5.284   1.540   3.466
    1   AR   Ar  232   4.707   2.256   1.220
    1   AR   Ar  233   5.988   2.200   3.763
    1   AR   Ar  234   6.413   2.827   4.749
    1   AR   Ar  235   6.257   1.167   3.582
    1   AR   Ar  236   5.559   5.279   5.653
    1   AR   Ar  237   5.945   3.317   6.008
    1   AR   Ar  238   4.932   4.688   6.481
    1   AR   Ar  239   6.433   4.041   8.662
    1   AR   Ar  240   6.611   2.985   7.016
    1   AR   Ar  241   1.287   6.437  -0.684
    1   AR   Ar  242   5.495   5.081   0.126
    1   AR   Ar  243   4.889   4.288   2.905
    1   AR   Ar  244   0.579   5.495  -0.196
    1   AR   Ar  245   4.716   0.518   1.193
    1   AR   Ar  246   5.469   6.722   0.143
    1   AR   Ar  247   6.021   4.153   0.998
    1   AR   Ar  248   6.001   6.040  -0.572
    1   AR   Ar  249   4.050   5.880   1.617
    1   AR   Ar  250   4.794   5.716   4.461
    1   AR   Ar  251   5.241   4.825   3.840
    1   AR   Ar  252   4.354   5.314   3.554
    1   AR   Ar  253   6.775   3.972   6.497
    1   AR   Ar  254   2.523   2.174   9.340
    1   AR   Ar  255   3.771   3.951   9.297
    1   AR   Ar  256   6.792   4.958   3.180
    7.12000  7.12000 12.00000
Argon-slab step 3400
  256
    1   AR   Ar    1   6.059   1.793  -1.574
    1   AR   Ar    2   6.439   0.597   0.409
    1   AR   Ar    3   2.842   0.994  -0.500
    1   AR   Ar    4   1.544   0.714   0.140
    1   AR   Ar    5   7.014   6.913   1.301
    1   AR   Ar    6   6.969   1.243   2.478
    1   AR   Ar    7   6.184   4.010   2.774
    1   AR   Ar    8   5.772   0.184   1.090
    1   AR   Ar    9   1.421   6.849   3.441
    1   AR   Ar   10   0.717   0.806   3.721
    1   AR   Ar   11   2.155   6.365   4.078
    1   AR   Ar   12   0.637   1.511   2.996
    1   AR   Ar   13   0.350   0.635   5.444
    1   AR   Ar   14   6.423   2.095   7.521
    1   AR   Ar   15   5.057   6.526   8.497
    1   AR   Ar   16   0.831   6.897   4.752
    1   AR   Ar   17   6.404   2.128   0.703
    1   AR   Ar   18   5.862   4.139  -0.502
    1   AR   Ar   19   2.908   3.275   0.857
    1   AR   Ar   20   4.338   4.729  -2.036
    1   AR   Ar   21   3.752   2.033   1.804
    1   AR   Ar   22   6.157   1.953   2.733
    1   AR   Ar   23   0.367   0.902   0.038
    1   AR   Ar   24   6.866   2.233   1.689
    1   AR   Ar   25   0.910   2.105   4.188
    1   AR   Ar   26   5.971   6.974   3.838
    1   AR   Ar   27   1.642   0.697   3.138
    1   AR   Ar   28   0.309   2.851   4.991
    1   AR   Ar   29   5.504   2.812   7.086
    1   AR   Ar   30   1.760   1.586   4.184
    1   AR   Ar   31   3.532   0.632   7.163
    1   AR   Ar   32   1.348   2.680   6.279
    1   AR   Ar   33   1.117   4.519  -0.424
    1   AR   Ar   34   0.652   5.260   2.560
    1   AR   Ar   35   5.990   5.525   1.090
    1   AR   Ar   36   5.999   1.012  -3.825
    1   AR   Ar   37   5.403   2.455   2.139
    1   AR   Ar   38   0.124   4.438   2.021
    1   AR   Ar   39   1.077   4.057   2.404
    1   AR   Ar   40   2.300   3.662   1.812
    1   AR   Ar   41   0.020   2.591   3.655
    1   AR   Ar   42   6.128   4.901   4.489
    1   AR   Ar   43   6.608   2.496   6.001
    1   AR   Ar   44   0.725   4.178   3.443
    1   AR   Ar   45   0.828   3.524   5.746
    1   AR   Ar   46   6.993   5.384   4.995
    1   AR   Ar   47   5.826   4.204   7.214
    1   AR   Ar   48   6.629   5.441   6.509
    1   AR   Ar   49   5.220   0.912  -1.327
    1   AR   Ar   50   4.474   4.693   0.736
    1   AR   Ar   51   6.856   5.042   1.238
    1   AR   Ar   52   6.433   4.222  -2.547
    1   AR   Ar   53   5.385   5.509   2.989
    1   AR   Ar   54   0.722   6.345   2.547
    1   AR   Ar   55   6.482   5.629   2.407
    1   AR   Ar   56   0.021   1.122   1.085
    1   AR   Ar   57   5.196   3.478   3.474
    1   AR   Ar   58   0.011   3.635   3.854
    1   AR   Ar   59   2.198   5.538   5.368
    1   AR   Ar   60   0.143   5.886   3.485
    1   AR   Ar   61   0.078   4.747   5.922
    1   AR   Ar   62   6.975   4.585   4.074
    1   AR   Ar   63   2.290   0.844   6.763
    1   AR   Ar   64   1.046   5.763   4.784
    1   AR   Ar   65   3.771   6.779   1.086
    1   AR   Ar   66   0.927   1.143   1.678
    1   AR   Ar   67   3.769   6.890  -0.541
    1   AR   Ar   68   2.010   2.056  -0.902
    1   AR   Ar   69   2.920   0.916   1.236
    1   AR   Ar   70   0.842   0.341   2.624
    1   AR   Ar   71   3.365   0.636   4.034
    1   AR   Ar   72   4.316   6.833   2.074
    1   AR   Ar   73   3.869   0.396   3.240
    1   AR   Ar   74   1.609   0.629   4.766
    1   AR   Ar   75   3.940   0.964   4.894
    1   AR   Ar   76   1.781   0.602   1.648
    1   AR   Ar   77   2.128   6.909   5.353
    1   AR   Ar   78   0.341   6.325   5.727
    1   AR   Ar   79   3.227   6.078   5.921
    1   AR   Ar   80   3.772   5.126   5.580
    1   AR   Ar   81   2.552   6.012  -0.139
    1   AR   Ar   82   6.700   5.394   0.159
    1   AR   Ar   83   0.469   2.259   0.646
    1   AR   Ar   84   0.193   3.961   1.067
    1   AR   Ar   85   1.225   3.769   1.371
    1   AR   Ar   86   1.587   4.974   0.484
    1   AR   Ar   87   1.425   2.300   1.041
    1   AR   Ar   88   2.075   4.590   1.415
    1   AR   Ar   89   0.234   3.472   2.780
    1   AR   Ar   90   2.261   2.457   4.273
    1   AR   Ar   91   1.422   2.571   3.428
    1   AR   Ar   92   1.392   2.458   2.123
    1   AR   Ar   93   1.211   0.615   6.034
    1   AR   Ar   94   0.291   0.112  11.426
    1   AR   Ar   95   3.729   0.904   6.117
    1   AR   Ar   96   3.157   0.097   4.954
    1   AR   Ar   97   4.881   1.705  -0.083
    1   AR   Ar   98   1.711   4.838   2.639
    1   AR   Ar   99   6.326   1.580  -0.487
    1   AR   Ar  100   1.420   3.075  -0.663
    1   AR   Ar  101   3.533   5.011   1.332
    1   AR   Ar  102   3.576   2.539   3.411
    1   AR   Ar  103   0.745   4.986   0.989
    1   AR   Ar  104   3.281   4.118  -1.500
    1   AR   Ar  105   1.082   3.335   4.365
    1   AR   Ar  106   3.493   2.975   5.603
    1   AR   Ar  107   0.755   4.510   4.933
    1   AR   Ar  108   3.108   1.599   4.862
    1   AR   Ar  109   1.975   4.555   4.843
    1   AR   Ar  110   2.167   3.117   5.438
    1   AR   Ar  111   4.593   4.705   7.475
    1   AR   Ar  112   1.604   6.067   6.108
    1   AR   Ar  113   3.206   4.987   0.196
    1   AR   Ar  114   2.540   0.162  -1.089
    1   AR   Ar  115   2.393   5.283  -1.096
    1   AR   Ar  116   5.843   0.535  -0.595
    1   AR   Ar  117   0.860   5.063   3.937
    1   AR   Ar  118   1.335   5.855   3.136
    1   AR   Ar  119   2.143   2.959   2.602
    1   AR   Ar  120   1.930   6.600   2.242
    1   AR   Ar  121   5.817   4.058   5.240
    1   AR   Ar  122   2.815   6.222   4.890
    1   AR   Ar  123   3.659   4.066   5.097
    1   AR   Ar  124   1.476   5.685   1.744
    1   AR   Ar  125   6.862   4.031   4.998
    1   AR   Ar  126   6.886   0.070   4.626
    1   AR   Ar  127   4.176   3.892   6.733
    1   AR   Ar  128   3.081   4.839   6.805
    1   AR   Ar  129   2.362   6.147   3.117
    1   AR   Ar  130   4.285   2.577  -2.562
    1   AR   Ar  131   3.732   1.916  -0.171
    1   AR   Ar  132   7.012   2.551  -0.392
    1   AR   Ar  133   4.552   6.252   3.038
    1   AR   Ar  134   4.253   1.250   3.713
    1   AR   Ar  135   5.959   0.912   2.548
    1   AR   Ar  136   5.474   7.029   2.514
    1   AR   Ar  137   2.047   5.225   3.588
    1   AR   Ar  138   4.560   1.439   5.660
    1   AR   Ar  139   5.525   2.455   5.293
    1   AR   Ar  140   3.955   6.940   4.201
    1   AR   Ar  141   4.043   4.834   4.482
    1   AR   Ar  142   3.048   7.120   6.017
    1   AR   Ar  143   6.466   0.054   5.669
    1   AR   Ar  144   6.775   1.771   4.968
    1   AR   Ar  145   4.766   4.321  -0.313
    1   AR   Ar  146   2.875   2.389   2.147
    1   AR   Ar  147   4.527   1.761  -1.770
    1   AR   Ar  148   3.444   5.964  -1.226
    1   AR   Ar  149   2.771   1.811   0.436
    1   AR   Ar  150   2.760   1.389   2.129
    1   AR   Ar  151   2.536   2.101   3.429
    1   AR   Ar  152   2.922   2.648  -0.784
    1   AR   Ar  153   4.761   0.031   3.593
    1   AR   Ar  154   4.066   2.128   4.447
    1   AR   Ar  155   6.637   6.869   6.815
    1   AR   Ar  156   3.488   3.597   3.242
    1   AR   Ar  157   1.370   3.773   6.970
    1   AR   Ar  158   0.303   2.366   6.945
    1   AR   Ar  159   4.833   1.508   7.350
    1   AR   Ar  160   1.907   1.940   5.145
    1   AR   Ar  161   5.332   3.749   2.191
    1   AR   Ar  162   5.017   5.723  -0.552
    1   AR   Ar  163   5.437   3.713   0.268
    1   AR   Ar  164   2.949   5.797   2.138
    1   AR   Ar  165   3.775   2.613   0.888
    1   AR   Ar  166   2.757   3.340   4.541
    1   AR   Ar  167   4.945   0.795   2.865
    1   AR   Ar  168   5.252   3.805  -1.225
    1   AR   Ar  169   2.561   3.954   2.814
    1   AR   Ar  170   2.441   4.010   5.543
    1   AR   Ar  171   6.092   3.905   3.850
    1   AR   Ar  172   4.712   4.465   5.205
    1   AR   Ar  173   3.133   3.508   6.933
    1   AR   Ar  174   2.400   5.880   6.670
    1   AR   Ar  175   2.710   2.400   6.211
    1   AR   Ar  176   3.580   1.864   5.803
    1   AR   Ar  177   6.907   5.165  -1.211
    1   AR   Ar  178   4.108   5.010  -0.468
    1   AR   Ar  179   4.085   5.913   0.319
    1   AR   Ar  180   1.514   1.223  -3.093
    1   AR   Ar  181   0.613   6.049   1.443
    1   AR   Ar  182   2.474   0.116   3.576
    1   AR   Ar  183   4.021   5.151   2.596
    1   AR   Ar  184   5.006   6.650   1.416
    1   AR   Ar  185   2.981   5.097   4.685
    1   AR   Ar  186   2.874   4.333   3.774
    1   AR   Ar  187   3.405   6.513   3.196
    1   AR   Ar  188   2.800   0.082   1.760
    1   AR   Ar  189   3.889   2.716   6.535
    1   AR   Ar  190   3.377   5.656   3.825
    1   AR   Ar  191   3.053   6.718   7.454
    1   AR   Ar  192   3.856   5.935   4.787
    1   AR   Ar  193   2.611   6.088   1.177
    1   AR   Ar  194   4.159   3.805  -1.026
    1   AR   Ar  195   5.538   1.316   0.568
    1   AR   Ar  196   4.292   0.422   0.016
    1   AR   Ar  197   3.878   1.028   0.821
    1   AR   Ar  198   5.655   1.478   1.515
    1   AR   Ar  199   3.568   1.397   2.848
    1   AR   Ar  200   5.907   2.433  -0.187
    1   AR   Ar  201   5.745   6.022   3.964
    1   AR   Ar  202   5.643   1.490   4.401
    1   AR   Ar  203   6.171   6.400   3.011
    1   AR   Ar  204   4.853   6.590   5.117
    1   AR   Ar  205   6.711   0.243   2.305
    1   AR   Ar  206   4.927   0.775   4.653
    1   AR   Ar  207   0.795   1.765   6.090
    1   AR   Ar  208   7.053   7.083   3.269
    1   AR   Ar  209   0.022   2.632  -2.014
    1   AR   Ar  210   2.988   7.103   0.170
    1   AR   Ar  211   6.618   3.155   0.596
    1   AR   Ar  212   6.733   3.995  -1.074
    1   AR   Ar  213   4.023   0.672   1.815
    1   AR   Ar  214   4.481   3.023   2.633
    1   AR   Ar  215   5.670   2.945   1.225
    1   AR   Ar  216   0.497   3.011   1.544
    1   AR   Ar  217   5.432   3.024   4.429
    1   AR   Ar  218   4.348   3.329   5.029
    1   AR   Ar  219   4.759   2.313   3.539
    1   AR   Ar  220   4.270   4.125   2.092
    1   AR   Ar  221   6.186   6.064   5.248
    1   AR   Ar  222   4.882   0.416   6.189
    1   AR   Ar  223   6.863   1.272   6.094
    1   AR   Ar  224   4.741   2.873   5.926
    1   AR   Ar  225   6.283   2.987   2.800
    1   AR   Ar  226   2.038   3.667   3.827
    1   AR   Ar  227   6.479   3.629   1.849
    1   AR   Ar  228   5.941   6.368   1.773
    1   AR   Ar  229   5.397   4.894  -1.243
    1   AR   Ar  230   4.406   4.026   3.794
    1   AR   Ar  231   5.245   1.568   3.497
    1   AR   Ar  232   4.706   2.234   1.255
    1   AR   Ar  233   5.963   2.176   3.773
    1   AR   Ar  234   6.411   2.809   4.743
    1   AR   Ar  235   6.276   1.158   3.582
    1   AR   Ar  236   5.572   5.294   5.667
    1   AR   Ar  237   5.918   3.338   6.004
    1   AR   Ar  238   4.920   4.701   6.533
    1   AR   Ar  239   6.457   4.045   8.678
    1   AR   Ar  240   6.617   2.970   7.015
    1   AR   Ar  241   1.315   6.464  -0.689
    1   AR   Ar  242   5.478   5.107   0.135
    1   AR   Ar  243   4.845   4.264   2.905
    1   AR   Ar  244   0.573   5.504  -0.198
    1   AR   Ar  245   4.708   0.515   1.195
    1   AR   Ar  246   5.450   6.728   0.124
    1   AR   Ar  247   6.010   4.157   0.990
    1   AR   Ar  248   5.990   6.030  -0.546
    1   AR   Ar  249   4.072   5.915   1.617
    1   AR   Ar  250   4.810   5.719   4.458
    1   AR   Ar  251   5.230   4.827   3.860
    1   AR   Ar  252   4.306   5.309   3.568
    1   AR   Ar  253   6.782   4.012   6.512
    1   AR   Ar  254   2.489   2.180   9.349
    1   AR   Ar  255   3.761   3.986   9.315
    1   AR   Ar  256   6.780   4.956   3.153
    7.12000  7.12000 12.00000
Argon-slab step 3405
  256
    1   AR   Ar    1   6.043   1.817  -1.548
    1   AR   Ar    2   6.443   0.617   0.398
    1   AR   Ar    3   2.853   1.033  -0.494
    1   AR   Ar    4   1.544   0.695   0.124
    1   AR   Ar    5   6.992   6.908   1.296
    1   AR   Ar    6   7.008   1.209   2.502
    1   AR   Ar    7   6.175   4.042   2.797
    1   AR   Ar    8   5.750   0.200   1.103
    1   AR   Ar    9   1.408   6.871   3.445
    1   AR   Ar   10   0.718   0.833   3.758
    1   AR   Ar   11   2.157   6.381   4.086
    1   AR   Ar   12   0.623   1.519   3.003
    1   AR   Ar   13   0.332   0.641   5.472
    1   AR   Ar   14   6.418   2.091   7.518
    1   AR   Ar   15   5.052   6.531   8.522
    1   AR   Ar   16   0.859   6.934   4.772
    1   AR   Ar   17   6.402   2.104   0.686
    1   AR   Ar   18   5.881   4.181  -0.518
    1   AR   Ar   19   2.902   3.292   0.863
    1   AR   Ar   20   4.334   4.776  -2.041
    1   AR   Ar   21   3.779   1.989   1.782
    1   AR   Ar   22   6.158   1.962   2.727
    1   AR   Ar   23   0.390   0.897   0.031
    1   AR   Ar   24   6.856   2.258   1.687
    1   AR   Ar   25   0.904   2.128   4.189
    1   AR   Ar   26   5.967   6.999   3.860
    1   AR   Ar   27   1.645   0.705   3.146
    1   AR   Ar   28   0.311   2.883   4.983
    1   AR   Ar   29   5.501   2.802   7.092
    1   AR   Ar   30   1.792   1.538   4.160
    1   AR   Ar   31   3.521   0.625   7.158
    1   AR   Ar   32   1.331   2.708   6.320
    1   AR   Ar   33   1.108   4.503  -0.373
    1   AR   Ar   34   0.613   5.247   2.536
    1   AR   Ar   35   5.968   5.510   1.093
    1   AR   Ar   36   5.994   1.008  -3.810
    1   AR   Ar   37   5.403   2.469   2.140
    1   AR   Ar   38   0.101   4.457   2.018
    1   AR   Ar   39   1.089   4.033   2.366
    1   AR   Ar   40   2.329   3.649   1.820
    1   AR   Ar   41   0.034   2.561   3.648
    1   AR   Ar   42   6.125   4.906   4.498
    1   AR   Ar   43   6.625   2.474   5.982
    1   AR   Ar   44   0.708   4.182   3.444
    1   AR   Ar   45   0.849   3.550   5.722
    1   AR   Ar   46   7.002   5.354   4.983
    1   AR   Ar   47   5.850   4.214   7.231
    1   AR   Ar   48   6.598   5.420   6.502
    1   AR   Ar   49   5.217   0.923  -1.314
    1   AR   Ar   50   4.457   4.710   0.721
    1   AR   Ar   51   6.837   5.009   1.268
    1   AR   Ar   52   6.421   4.194  -2.574
    1   AR   Ar   53   5.391   5.479   2.960
    1   AR   Ar   54   0.742   6.350   2.535
    1   AR   Ar   55   6.494   5.637   2.360
    1   AR   Ar   56   7.115   1.101   1.087
    1   AR   Ar   57   5.184   3.496   3.493
    1   AR   Ar   58   7.106   3.623   3.850
    1   AR   Ar   59   2.211   5.518   5.377
    1   AR   Ar   60   0.124   5.863   3.484
    1   AR   Ar   61   0.079   4.755   5.895
    1   AR   Ar   62   6.997   4.576   4.104
    1   AR   Ar   63   2.323   0.833   6.737
    1   AR   Ar   64   1.059   5.735   4.781
    1   AR   Ar   65   3.771   6.767   1.095
    1   AR   Ar   66   0.911   1.160   1.697
    1   AR   Ar   67   3.769   6.898  -0.534
    1   AR   Ar   68   1.967   2.089  -0.901
    1   AR   Ar   69   2.901   0.915   1.227
    1   AR   Ar   70   0.833   0.347   2.601
    1   AR   Ar   71   3.332   0.634   4.021
    1   AR   Ar   72   4.294   6.794   2.083
    1   AR   Ar   73   3.876   0.389   3.244
    1   AR   Ar   74   1.558   0.689   4.757
    1   AR   Ar   75   3.938   0.931   4.897
    1   AR   Ar   76   1.781   0.594   1.660
    1   AR   Ar   77   2.113   6.908   5.340
    1   AR   Ar   78   0.326   6.322   5.724
    1   AR   Ar   79   3.241   6.074   5.944
    1   AR   Ar   80   3.735   5.121   5.552
    1   AR   Ar   81   2.551   6.014  -0.094
    1   AR   Ar   82   6.694   5.382   0.165
    1   AR   Ar   83   0.474   2.256   0.625
    1   AR   Ar   84   0.197   3.975   1.081
    1   AR   Ar   85   1.197   3.735   1.411
    1   AR   Ar   86   1.623   4.986   0.475
    1   AR   Ar   87   1.470   2.316   1.024
    1   AR   Ar   88   2.097   4.601   1.447
    1   AR   Ar   89   0.150   3.477   2.791
    1   AR   Ar   90   2.267   2.448   4.282
    1   AR   Ar   91   1.426   2.576   3.435
    1   AR   Ar   92   1.391   2.463   2.094
    1   AR   Ar   93   1.205   0.609   6.037
    1   AR   Ar   94   0.288   0.131  11.432
    1   AR   Ar   95   3.744   0.914   6.090
    1   AR   Ar   96   3.149   0.089   4.968
    1   AR   Ar   97   4.859   1.702  -0.090
    1   AR   Ar   98   1.702   4.840   2.627
    1   AR   Ar   99   6.335   1.586  -0.445
    1   AR   Ar  100   1.404   3.062  -0.649
    1   AR   Ar  101   3.510   5.011   1.328
    1   AR   Ar  102   3.591   2.533   3.395
    1   AR   Ar  103   0.756   4.978   1.010
    1   AR   Ar  104   3.258   4.108  -1.530
    1   AR   Ar  105   1.069   3.319   4.353
    1   AR   Ar  106   3.489   2.983   5.628
    1   AR   Ar  107   0.769   4.498   4.943
    1   AR   Ar  108   3.090   1.587   4.895
    1   AR   Ar  109   1.952   4.535   4.838
    1   AR   Ar  110   2.209   3.099   5.475
    1   AR   Ar  111   4.603   4.736   7.484
    1   AR   Ar  112   1.598   6.089   6.123
    1   AR   Ar  113   3.212   5.000   0.227
    1   AR   Ar  114   2.561   0.155  -1.089
    1   AR   Ar  115   2.383   5.249  -1.089
    1   AR   Ar  116   5.874   0.554  -0.617
    1   AR   Ar  117   0.836   5.084   3.946
    1   AR   Ar  118   1.343   5.831   3.145
    1   AR   Ar  119   2.108   2.987   2.617
    1   AR   Ar  120   1.889   6.571   2.226
    1   AR   Ar  121   5.806   4.017   5.210
    1   AR   Ar  122   2.808   6.226   4.937
    1   AR   Ar  123   3.642   4.051   5.074
    1   AR   Ar  124   1.448   5.672   1.771
    1   AR   Ar  125   6.886   4.037   4.991
    1   AR   Ar  126   6.863   0.106   4.584
    1   AR   Ar  127   4.197   3.892   6.706
    1   AR   Ar  128   3.099   4.843   6.803
    1   AR   Ar  129   2.379   6.123   3.116
    1   AR   Ar  130   4.276   2.584  -2.565
    1   AR   Ar  131   3.736   1.939  -0.193
    1   AR   Ar  132   7.032   2.544  -0.386
    1   AR   Ar  133   4.544   6.275   3.066
    1   AR   Ar  134   4.226   1.201   3.723
    1   AR   Ar  135   5.973   0.886   2.512
    1   AR   Ar  136   5.512   7.061   2.532
    1   AR   Ar  137   2.013   5.228   3.603
    1   AR   Ar  138   4.572   1.436   5.625
    1   AR   Ar  139   5.514   2.436   5.303
    1   AR   Ar  140   3.956   6.939   4.181
    1   AR   Ar  141   4.057   4.816   4.469
    1   AR   Ar  142   3.030   0.018   6.041
    1   AR   Ar  143   6.476   0.056   5.686
    1   AR   Ar  144   6.758   1.746   4.986
    1   AR   Ar  145   4.797   4.275  -0.318
    1   AR   Ar  146   2.843   2.375   2.179
    1   AR   Ar  147   4.547   1.734  -1.764
    1   AR   Ar  148   3.430   5.960  -1.230
    1   AR   Ar  149   2.757   1.825   0.398
    1   AR   Ar  150   2.742   1.398   2.113
    1   AR   Ar  151   2.532   2.083   3.418
    1   AR   Ar  152   2.902   2.631  -0.814
    1   AR   Ar  153   4.795   0.051   3.568
    1   AR   Ar  154   4.042   2.096   4.436
    1   AR   Ar  155   6.625   6.838   6.815
    1   AR   Ar  156   3.476   3.604   3.193
    1   AR   Ar  157   1.394   3.788   6.953
    1   AR   Ar  158   0.305   2.361   6.946
    1   AR   Ar  159   4.819   1.524   7.365
    1   AR   Ar  160   1.874   1.892   5.146
    1   AR   Ar  161   5.331   3.740   2.200
    1   AR   Ar  162   5.036   5.739  -0.558
    1   AR   Ar  163   5.438   3.724   0.255
    1   AR   Ar  164   2.940   5.776   2.104
    1   AR   Ar  165   3.786   2.587   0.867
    1   AR   Ar  166   2.785   3.315   4.556
    1   AR   Ar  167   4.961   0.831   2.883
    1   AR   Ar  168   5.267   3.803  -1.253
    1   AR   Ar  169   2.502   3.983   2.839
    1   AR   Ar  170   2.404   4.025   5.584
    1   AR   Ar  171   6.100   3.892   3.850
    1   AR   Ar  172   4.660   4.434   5.208
    1   AR   Ar  173   3.119   3.513   6.914
    1   AR   Ar  174   2.375   5.899   6.650
    1   AR   Ar  175   2.717   2.362   6.208
    1   AR   Ar  176   3.571   1.834   5.792
    1   AR   Ar  177   6.899   5.194  -1.181
    1   AR   Ar  178   4.106   4.999  -0.448
    1   AR   Ar  179   4.081   5.886   0.292
    1   AR   Ar  180   1.538   1.246  -3.087
    1   AR   Ar  181   0.598   6.061   1.440
    1   AR   Ar  182   2.474   0.114   3.545
    1   AR   Ar  183   4.034   5.132   2.568
    1   AR   Ar  184   5.026   6.629   1.411
    1   AR   Ar  185   2.983   5.063   4.666
    1   AR   Ar  186   2.867   4.340   3.768
    1   AR   Ar  187   3.409   6.508   3.230
    1   AR   Ar  188   2.821   0.090   1.733
    1   AR   Ar  189   3.903   2.708   6.527
    1   AR   Ar  190   3.379   5.648   3.819
    1   AR   Ar  191   3.057   6.733   7.439
    1   AR   Ar  192   3.865   5.923   4.797
    1   AR   Ar  193   2.628   6.076   1.164
    1   AR   Ar  194   4.147   3.799  -1.009
    1   AR   Ar  195   5.550   1.358   0.566
    1   AR   Ar  196   4.289   0.445   0.030
    1   AR   Ar  197   3.860   1.034   0.790
    1   AR   Ar  198   5.675   1.479   1.506
    1   AR   Ar  199   3.554   1.397   2.842
    1   AR   Ar  200   5.927   2.426  -0.179
    1   AR   Ar  201   5.743   6.014   3.949
    1   AR   Ar  202   5.641   1.475   4.413
    1   AR   Ar  203   6.158   6.430   2.996
    1   AR   Ar  204   4.886   6.598   5.118
    1   AR   Ar  205   6.714   0.230   2.305
    1   AR   Ar  206   4.890   0.749   4.683
    1   AR   Ar  207   0.776   1.758   6.082
    1   AR   Ar  208   7.078   7.073   3.291
    1   AR   Ar  209   0.046   2.635  -2.023
    1   AR   Ar  210   2.953   7.096   0.177
    1   AR   Ar  211   6.620   3.147   0.589
    1   AR   Ar  212   6.735   3.988  -1.064
    1   AR   Ar  213   4.008   0.705   1.845
    1   AR   Ar  214   4.485   3.054   2.610
    1   AR   Ar  215   5.641   2.958   1.214
    1   AR   Ar  216   0.501   3.019   1.551
    1   AR   Ar  217   5.442   3.003   4.421
    1   AR   Ar  218   4.357   3.308   5.005
    1   AR   Ar  219   4.737   2.330   3.534
    1   AR   Ar  220   4.265   4.126   2.086
    1   AR   Ar  221   6.234   6.071   5.224
    1   AR   Ar  222   4.891   0.410   6.171
    1   AR   Ar  223   6.855   1.270   6.097
    1   AR   Ar  224   4.757   2.861   5.916
    1   AR   Ar  225   6.271   2.981   2.811
    1   AR   Ar  226   2.068   3.658   3.817
    1   AR   Ar  227   6.470   3.576   1.843
    1   AR   Ar  228   5.961   6.372   1.802
    1   AR   Ar  229   5.409   4.901  -1.273
    1   AR   Ar  230   4.351   4.038   3.788
    1   AR   Ar  231   5.226   1.546   3.513
    1   AR   Ar  232   4.709   2.211   1.291
    1   AR   Ar  233   5.951   2.173   3.781
    1   AR   Ar  234   6.410   2.791   4.737
    1   AR   Ar  235   6.298   1.146   3.581
    1   AR   Ar  236   5.584   5.306   5.682
    1   AR   Ar  237   5.890   3.357   6.002
    1   AR   Ar  238   4.913   4.713   6.573
    1   AR   Ar  239   6.481   4.048   8.694
    1   AR   Ar  240   6.617   2.966   7.011
    1   AR   Ar  241   1.343   6.491  -0.694
    1   AR   Ar  242   5.463   5.129   0.147
    1   AR   Ar  243   4.803   4.251   2.911
    1   AR   Ar  244   0.570   5.512  -0.202
    1   AR   Ar  245   4.713   0.527   1.194
    1   AR   Ar  246   5.430   6.735   0.107
    1   AR   Ar  247   6.004   4.163   0.986
    1   AR   Ar  248   5.985   6.020  -0.519
    1   AR   Ar  249   4.095   5.946   1.618
    1   AR   Ar  250   4.830   5.719   4.453
    1   AR   Ar  251   5.219   4.827   3.881
    1   AR   Ar  252   4.264   5.305   3.582
    1   AR   Ar  253   6.786   4.047   6.529
    1   AR   Ar  254   2.454   2.186   9.358
    1   AR   Ar  255   3.751   4.021   9.332
    1   AR   Ar  256   6.758   4.951   3.118
    7.12000  7.12000 12.00000
Argon-slab step 3410
  256
    1   AR   Ar    1   6.028   1.840  -1.521
    1   AR   Ar    2   6.445   0.638   0.385
    1   AR   Ar    3   2.865   1.073  -0.485
    1   AR   Ar    4   1.554   0.715   0.100
    1   AR   Ar    5   6.969   6.905   1.290
    1   AR   Ar    6   7.029   1.171   2.513
    1   AR   Ar    7   6.168   4.077   2.820
    1   AR   Ar    8   5.730   0.217   1.117
    1   AR   Ar    9   1.391   6.889   3.450
    1   AR   Ar   10   0.720   0.856   3.800
    1   AR   Ar   11   2.155   6.396   4.101
    1   AR   Ar   12   0.630   1.539   3.019
    1   AR   Ar   13   0.312   0.646   5.496
    1   AR   Ar   14   6.413   2.083   7.515
    1   AR   Ar   15   5.048   6.536   8.547
    1   AR   Ar   16   0.886   6.971   4.792
    1   AR   Ar   17   6.402   2.075   0.672
    1   AR   Ar   18   5.904   4.231  -0.533
    1   AR   Ar   19   2.884   3.316   0.878
    1   AR   Ar   20   4.329   4.821  -2.045
    1   AR   Ar   21   3.805   1.942   1.763
    1   AR   Ar   22   6.161   1.964   2.721
    1   AR   Ar   23   0.411   0.893   0.024
    1   AR   Ar   24   6.845   2.281   1.687
    1   AR   Ar   25   0.893   2.149   4.195
    1   AR   Ar   26   5.972   7.049   3.873
    1   AR   Ar   27   1.652   0.721   3.154
    1   AR   Ar   28   0.315   2.915   4.976
    1   AR   Ar   29   5.478   2.813   7.090
    1   AR   Ar   30   1.824   1.486   4.129
    1   AR   Ar   31   3.510   0.617   7.152
    1   AR   Ar   32   1.315   2.737   6.360
    1   AR   Ar   33   1.098   4.488  -0.322
    1   AR   Ar   34   0.575   5.234   2.514
    1   AR   Ar   35   5.941   5.498   1.094
    1   AR   Ar   36   5.989   1.003  -3.794
    1   AR   Ar   37   5.410   2.482   2.117
    1   AR   Ar   38   0.079   4.470   2.024
    1   AR   Ar   39   1.099   4.009   2.335
    1   AR   Ar   40   2.357   3.634   1.826
    1   AR   Ar   41   0.046   2.530   3.640
    1   AR   Ar   42   6.115   4.913   4.511
    1   AR   Ar   43   6.642   2.451   5.961
    1   AR   Ar   44   0.699   4.189   3.438
    1   AR   Ar   45   0.844   3.555   5.690
    1   AR   Ar   46   7.015   5.323   4.969
    1   AR   Ar   47   5.873   4.222   7.247
    1   AR   Ar   48   6.565   5.399   6.494
    1   AR   Ar   49   5.210   0.938  -1.305
    1   AR   Ar   50   4.439   4.727   0.707
    1   AR   Ar   51   6.818   4.977   1.294
    1   AR   Ar   52   6.408   4.166  -2.600
    1   AR   Ar   53   5.404   5.445   2.931
    1   AR   Ar   54   0.748   6.357   2.517
    1   AR   Ar   55   6.507   5.642   2.311
    1   AR   Ar   56   7.089   1.082   1.091
    1   AR   Ar   57   5.175   3.506   3.510
    1   AR   Ar   58   7.080   3.596   3.851
    1   AR   Ar   59   2.220   5.495   5.388
    1   AR   Ar   60   0.107   5.841   3.482
    1   AR   Ar   61   0.083   4.764   5.863
    1   AR   Ar   62   7.025   4.576   4.132
    1   AR   Ar   63   2.291   0.846   6.732
    1   AR   Ar   64   1.079   5.701   4.778
    1   AR   Ar   65   3.769   6.761   1.100
    1   AR   Ar   66   0.905   1.172   1.702
    1   AR   Ar   67   3.766   6.900  -0.532
    1   AR   Ar   68   1.924   2.121  -0.898
    1   AR   Ar   69   2.883   0.925   1.206
    1   AR   Ar   70   0.820   0.354   2.576
    1   AR   Ar   71   3.289   0.639   4.017
    1   AR   Ar   72   4.269   6.766   2.104
    1   AR   Ar   73   3.883   0.374   3.229
    1   AR   Ar   74   1.506   0.746   4.749
    1   AR   Ar   75   3.927   0.898   4.903
    1   AR   Ar   76   1.787   0.583   1.673
    1   AR   Ar   77   2.096   6.908   5.329
    1   AR   Ar   78   0.311   6.318   5.719
    1   AR   Ar   79   3.254   6.068   5.966
    1   AR   Ar   80   3.698   5.115   5.524
    1   AR   Ar   81   2.551   6.017  -0.048
    1   AR   Ar   82   6.685   5.369   0.173
    1   AR   Ar   83   0.474   2.253   0.605
    1   AR   Ar   84   0.202   3.997   1.113
    1   AR   Ar   85   1.179   3.705   1.442
    1   AR   Ar   86   1.665   4.999   0.464
    1   AR   Ar   87   1.516   2.331   1.006
    1   AR   Ar   88   2.116   4.616   1.478
    1   AR   Ar   89   0.066   3.482   2.799
    1   AR   Ar   90   2.305   2.439   4.297
    1   AR   Ar   91   1.434   2.585   3.437
    1   AR   Ar   92   1.379   2.470   2.068
    1   AR   Ar   93   1.203   0.603   6.040
    1   AR   Ar   94   0.285   0.150  11.439
    1   AR   Ar   95   3.760   0.910   6.066
    1   AR   Ar   96   3.127   0.072   4.955
    1   AR   Ar   97   4.851   1.700  -0.090
    1   AR   Ar   98   1.694   4.846   2.614
    1   AR   Ar   99   6.351   1.579  -0.406
    1   AR   Ar  100   1.387   3.048  -0.634
    1   AR   Ar  101   3.487   5.011   1.326
    1   AR   Ar  102   3.607   2.526   3.379
    1   AR   Ar  103   0.763   4.969   1.035
    1   AR   Ar  104   3.235   4.098  -1.561
    1   AR   Ar  105   1.057   3.303   4.339
    1   AR   Ar  106   3.482   2.993   5.647
    1   AR   Ar  107   0.783   4.486   4.952
    1   AR   Ar  108   3.068   1.575   4.924
    1   AR   Ar  109   1.925   4.519   4.826
    1   AR   Ar  110   2.245   3.059   5.510
    1   AR   Ar  111   4.607   4.767   7.508
    1   AR   Ar  112   1.576   6.115   6.125
    1   AR   Ar  113   3.219   5.014   0.258
    1   AR   Ar  114   2.582   0.147  -1.088
    1   AR   Ar  115   2.373   5.215  -1.080
    1   AR   Ar  116   5.888   0.566  -0.638
    1   AR   Ar  117   0.814   5.108   3.955
    1   AR   Ar  118   1.351   5.806   3.156
    1   AR   Ar  119   2.073   3.017   2.640
    1   AR   Ar  120   1.847   6.543   2.211
    1   AR   Ar  121   5.793   3.978   5.175
    1   AR   Ar  122   2.808   6.220   4.992
    1   AR   Ar  123   3.618   4.037   5.053
    1   AR   Ar  124   1.428   5.653   1.802
    1   AR   Ar  125   6.909   4.040   4.986
    1   AR   Ar  126   6.841   0.142   4.541
    1   AR   Ar  127   4.217   3.890   6.678
    1   AR   Ar  128   3.118   4.847   6.800
    1   AR   Ar  129   2.411   6.114   3.119
    1   AR   Ar  130   4.268   2.590  -2.568
    1   AR   Ar  131   3.738   1.962  -0.215
    1   AR   Ar  132   7.051   2.538  -0.378
    1   AR   Ar  133   4.534   6.296   3.094
    1   AR   Ar  134   4.198   1.145   3.743
    1   AR   Ar  135   5.982   0.867   2.476
    1   AR   Ar  136   5.542   7.094   2.546
    1   AR   Ar  137   1.984   5.226   3.624
    1   AR   Ar  138   4.606   1.431   5.629
    1   AR   Ar  139   5.506   2.415   5.313
    1   AR   Ar  140   3.959   6.933   4.165
    1   AR   Ar  141   4.068   4.802   4.456
    1   AR   Ar  142   3.011   0.038   6.067
    1   AR   Ar  143   6.451   0.037   5.671
    1   AR   Ar  144   6.740   1.723   5.004
    1   AR   Ar  145   4.831   4.229  -0.325
    1   AR   Ar  146   2.813   2.372   2.211
    1   AR   Ar  147   4.569   1.706  -1.754
    1   AR   Ar  148   3.422   5.937  -1.213
    1   AR   Ar  149   2.745   1.838   0.361
    1   AR   Ar  150   2.721   1.397   2.100
    1   AR   Ar  151   2.532   2.060   3.393
    1   AR   Ar  152   2.893   2.619  -0.805
    1   AR   Ar  153   4.837   0.072   3.546
    1   AR   Ar  154   4.017   2.062   4.426
    1   AR   Ar  155   6.615   6.806   6.813
    1   AR   Ar  156   3.466   3.611   3.143
    1   AR   Ar  157   1.417   3.801   6.934
    1   AR   Ar  158   0.312   2.351   6.945
    1   AR   Ar  159   4.804   1.541   7.379
    1   AR   Ar  160   1.840   1.845   5.151
    1   AR   Ar  161   5.329   3.722   2.187
    1   AR   Ar  162   5.041   5.755  -0.568
    1   AR   Ar  163   5.437   3.725   0.250
    1   AR   Ar  164   2.933   5.743   2.093
    1   AR   Ar  165   3.816   2.577   0.855
    1   AR   Ar  166   2.816   3.293   4.573
    1   AR   Ar  167   4.972   0.862   2.892
    1   AR   Ar  168   5.278   3.799  -1.285
    1   AR   Ar  169   2.498   4.003   2.831
    1   AR   Ar  170   2.376   4.057   5.633
    1   AR   Ar  171   6.106   3.880   3.854
    1   AR   Ar  172   4.613   4.402   5.216
    1   AR   Ar  173   3.106   3.519   6.893
    1   AR   Ar  174   2.366   5.915   6.639
    1   AR   Ar  175   2.726   2.360   6.189
    1   AR   Ar  176   3.560   1.816   5.779
    1   AR   Ar  177   6.878   5.136  -1.169
    1   AR   Ar  178   4.100   4.994  -0.429
    1   AR   Ar  179   4.077   5.858   0.265
    1   AR   Ar  180   1.562   1.270  -3.082
    1   AR   Ar  181   0.574   6.075   1.434
    1   AR   Ar  182   2.476   0.112   3.513
    1   AR   Ar  183   4.047   5.113   2.536
    1   AR   Ar  184   5.046   6.603   1.399
    1   AR   Ar  185   2.983   5.028   4.647
    1   AR   Ar  186   2.864   4.351   3.766
    1   AR   Ar  187   3.414   6.507   3.261
    1   AR   Ar  188   2.842   0.084   1.714
    1   AR   Ar  189   3.916   2.699   6.524
    1   AR   Ar  190   3.369   5.642   3.819
    1   AR   Ar  191   3.061   6.748   7.422
    1   AR   Ar  192   3.871   5.913   4.808
    1   AR   Ar  193   2.644   6.066   1.146
    1   AR   Ar  194   4.136   3.793  -0.993
    1   AR   Ar  195   5.565   1.394   0.546
    1   AR   Ar  196   4.278   0.443   0.056
    1   AR   Ar  197   3.841   1.044   0.759
    1   AR   Ar  198   5.682   1.478   1.479
    1   AR   Ar  199   3.540   1.397   2.836
    1   AR   Ar  200   5.938   2.434  -0.169
    1   AR   Ar  201   5.767   6.004   3.958
    1   AR   Ar  202   5.640   1.453   4.442
    1   AR   Ar  203   6.150   6.456   2.982
    1   AR   Ar  204   4.918   6.607   5.118
    1   AR   Ar  205   6.718   0.233   2.284
    1   AR   Ar  206   4.861   0.719   4.709
    1   AR   Ar  207   0.757   1.750   6.074
    1   AR   Ar  208   7.104   7.062   3.314
    1   AR   Ar  209   0.069   2.638  -2.031
    1   AR   Ar  210   2.918   7.088   0.184
    1   AR   Ar  211   6.631   3.151   0.600
    1   AR   Ar  212   6.734   3.972  -1.057
    1   AR   Ar  213   3.981   0.743   1.885
    1   AR   Ar  214   4.489   3.087   2.589
    1   AR   Ar  215   5.614   2.972   1.201
    1   AR   Ar  216   0.500   3.022   1.560
    1   AR   Ar  217   5.448   2.983   4.409
    1   AR   Ar  218   4.352   3.299   4.985
    1   AR   Ar  219   4.723   2.330   3.551
    1   AR   Ar  220   4.255   4.126   2.071
    1   AR   Ar  221   6.281   6.079   5.199
    1   AR   Ar  222   4.898   0.405   6.152
    1   AR   Ar  223   6.843   1.268   6.105
    1   AR   Ar  224   4.773   2.849   5.907
    1   AR   Ar  225   6.259   2.978   2.824
    1   AR   Ar  226   2.093   3.646   3.807
    1   AR   Ar  227   6.462   3.521   1.837
    1   AR   Ar  228   5.984   6.378   1.832
    1   AR   Ar  229   5.421   4.908  -1.301
    1   AR   Ar  230   4.290   4.050   3.790
    1   AR   Ar  231   5.233   1.529   3.513
    1   AR   Ar  232   4.716   2.186   1.326
    1   AR   Ar  233   5.950   2.186   3.787
    1   AR   Ar  234   6.410   2.773   4.730
    1   AR   Ar  235   6.320   1.133   3.577
    1   AR   Ar  236   5.595   5.316   5.696
    1   AR   Ar  237   5.863   3.372   6.004
    1   AR   Ar  238   4.913   4.726   6.595
    1   AR   Ar  239   6.505   4.052   8.709
    1   AR   Ar  240   6.597   2.994   7.010
    1   AR   Ar  241   1.372   6.517  -0.698
    1   AR   Ar  242   5.452   5.146   0.163
    1   AR   Ar  243   4.766   4.251   2.921
    1   AR   Ar  244   0.569   5.520  -0.205
    1   AR   Ar  245   4.709   0.532   1.182
    1   AR   Ar  246   5.409   6.743   0.092
    1   AR   Ar  247   6.003   4.172   0.986
    1   AR   Ar  248   5.991   6.011  -0.491
    1   AR   Ar  249   4.117   5.962   1.616
    1   AR   Ar  250   4.852   5.716   4.447
    1   AR   Ar  251   5.207   4.826   3.902
    1   AR   Ar  252   4.238   5.297   3.592
    1   AR   Ar  253   6.787   4.078   6.548
    1   AR   Ar  254   2.420   2.192   9.366
    1   AR   Ar  255   3.741   4.057   9.350
    1   AR   Ar  256   6.738   4.943   3.084
    7.12000  7.12000 12.00000
Argon-slab step 3415
  256
    1   AR   Ar    1   6.018   1.871  -1.527
    1   AR   Ar    2   6.446   0.660   0.369
    1   AR   Ar    3   2.878   1.112  -0.475
    1   AR   Ar    4   1.564   0.735   0.077
    1   AR   Ar    5   6.943   6.902   1.285
    1   AR   Ar    6   7.038   1.133   2.514
    1   AR   Ar    7   6.172   4.084   2.827
    1   AR   Ar    8   5.715   0.237   1.131
    1   AR   Ar    9   1.372   6.903   3.454
    1   AR   Ar   10   0.724   0.874   3.844
    1   AR   Ar   11   2.153   6.409   4.119
    1   AR   Ar   12   0.653   1.570   3.044
    1   AR   Ar   13   0.291   0.648   5.514
    1   AR   Ar   14   6.406   2.073   7.512
    1   AR   Ar   15   5.045   6.542   8.559
    1   AR   Ar   16   0.913   7.007   4.813
    1   AR   Ar   17   6.406   2.044   0.664
    1   AR   Ar   18   5.925   4.287  -0.546
    1   AR   Ar   19   2.866   3.338   0.893
    1   AR   Ar   20   4.325   4.866  -2.046
    1   AR   Ar   21   3.826   1.891   1.747
    1   AR   Ar   22   6.164   1.958   2.715
    1   AR   Ar   23   0.431   0.889   0.019
    1   AR   Ar   24   6.831   2.304   1.686
    1   AR   Ar   25   0.880   2.168   4.206
    1   AR   Ar   26   5.977   7.103   3.885
    1   AR   Ar   27   1.660   0.744   3.162
    1   AR   Ar   28   0.310   2.933   4.989
    1   AR   Ar   29   5.455   2.824   7.087
    1   AR   Ar   30   1.857   1.436   4.090
    1   AR   Ar   31   3.498   0.609   7.145
    1   AR   Ar   32   1.298   2.767   6.400
    1   AR   Ar   33   1.087   4.473  -0.271
    1   AR   Ar   34   0.539   5.225   2.494
    1   AR   Ar   35   5.915   5.488   1.096
    1   AR   Ar   36   5.984   0.998  -3.779
    1   AR   Ar   37   5.418   2.495   2.097
    1   AR   Ar   38   0.061   4.472   2.046
    1   AR   Ar   39   1.104   3.991   2.328
    1   AR   Ar   40   2.385   3.618   1.830
    1   AR   Ar   41   0.055   2.499   3.632
    1   AR   Ar   42   6.100   4.921   4.525
    1   AR   Ar   43   6.660   2.429   5.939
    1   AR   Ar   44   0.693   4.197   3.429
    1   AR   Ar   45   0.839   3.562   5.659
    1   AR   Ar   46   7.030   5.291   4.954
    1   AR   Ar   47   5.895   4.231   7.261
    1   AR   Ar   48   6.532   5.379   6.485
    1   AR   Ar   49   5.201   0.956  -1.298
    1   AR   Ar   50   4.420   4.746   0.690
    1   AR   Ar   51   6.795   4.952   1.309
    1   AR   Ar   52   6.396   4.138  -2.626
    1   AR   Ar   53   5.416   5.410   2.903
    1   AR   Ar   54   0.751   6.366   2.497
    1   AR   Ar   55   6.525   5.644   2.263
    1   AR   Ar   56   7.063   1.065   1.097
    1   AR   Ar   57   5.167   3.511   3.525
    1   AR   Ar   58   7.057   3.558   3.856
    1   AR   Ar   59   2.226   5.468   5.402
    1   AR   Ar   60   0.090   5.819   3.478
    1   AR   Ar   61   0.089   4.773   5.828
    1   AR   Ar   62   7.055   4.583   4.155
    1   AR   Ar   63   2.260   0.858   6.726
    1   AR   Ar   64   1.100   5.670   4.779
    1   AR   Ar   65   3.761   6.771   1.098
    1   AR   Ar   66   0.906   1.182   1.698
    1   AR   Ar   67   3.759   6.897  -0.532
    1   AR   Ar   68   1.891   2.144  -0.900
    1   AR   Ar   69   2.864   0.943   1.173
    1   AR   Ar   70   0.805   0.361   2.551
    1   AR   Ar   71   3.280   0.628   4.027
    1   AR   Ar   72   4.246   6.758   2.140
    1   AR   Ar   73   3.888   0.349   3.199
    1   AR   Ar   74   1.453   0.800   4.747
    1   AR   Ar   75   3.900   0.868   4.911
    1   AR   Ar   76   1.796   0.570   1.687
    1   AR   Ar   77   2.075   6.910   5.319
    1   AR   Ar   78   0.296   6.314   5.712
    1   AR   Ar   79   3.268   6.061   5.988
    1   AR   Ar   80   3.661   5.106   5.495
    1   AR   Ar   81   2.551   6.019  -0.002
    1   AR   Ar   82   6.673   5.355   0.182
    1   AR   Ar   83   0.472   2.250   0.587
    1   AR   Ar   84   0.204   4.016   1.140
    1   AR   Ar   85   1.176   3.679   1.450
    1   AR   Ar   86   1.710   5.014   0.454
    1   AR   Ar   87   1.563   2.347   0.987
    1   AR   Ar   88   2.133   4.635   1.510
    1   AR   Ar   89   7.105   3.490   2.804
    1   AR   Ar   90   2.339   2.431   4.320
    1   AR   Ar   91   1.432   2.585   3.440
    1   AR   Ar   92   1.364   2.477   2.043
    1   AR   Ar   93   1.205   0.598   6.044
    1   AR   Ar   94   0.283   0.169  11.445
    1   AR   Ar   95   3.778   0.891   6.046
    1   AR   Ar   96   3.107   0.061   4.941
    1   AR   Ar   97   4.866   1.698  -0.078
    1   AR   Ar   98   1.687   4.854   2.602
    1   AR   Ar   99   6.372   1.559  -0.369
    1   AR   Ar  100   1.370   3.036  -0.619
    1   AR   Ar  101   3.465   5.012   1.325
    1   AR   Ar  102   3.623   2.516   3.363
    1   AR   Ar  103   0.769   4.961   1.063
    1   AR   Ar  104   3.212   4.090  -1.592
    1   AR   Ar  105   1.047   3.289   4.321
    1   AR   Ar  106   3.472   3.005   5.660
    1   AR   Ar  107   0.797   4.475   4.960
    1   AR   Ar  108   3.041   1.563   4.946
    1   AR   Ar  109   1.897   4.506   4.808
    1   AR   Ar  110   2.279   3.012   5.543
    1   AR   Ar  111   4.606   4.798   7.549
    1   AR   Ar  112   1.540   6.147   6.115
    1   AR   Ar  113   3.225   5.031   0.289
    1   AR   Ar  114   2.603   0.137  -1.084
    1   AR   Ar  115   2.365   5.182  -1.071
    1   AR   Ar  116   5.902   0.575  -0.655
    1   AR   Ar  117   0.794   5.134   3.961
    1   AR   Ar  118   1.350   5.785   3.162
    1   AR   Ar  119   2.038   3.048   2.667
    1   AR   Ar  120   1.814   6.523   2.193
    1   AR   Ar  121   5.779   3.943   5.135
    1   AR   Ar  122   2.812   6.210   5.042
    1   AR   Ar  123   3.588   4.024   5.033
    1   AR   Ar  124   1.413   5.628   1.836
    1   AR   Ar  125   6.931   4.038   4.987
    1   AR   Ar  126   6.827   0.172   4.521
    1   AR   Ar  127   4.235   3.887   6.649
    1   AR   Ar  128   3.136   4.851   6.796
    1   AR   Ar  129   2.444   6.106   3.119
    1   AR   Ar  130   4.259   2.596  -2.569
    1   AR   Ar  131   3.740   1.984  -0.235
    1   AR   Ar  132   7.068   2.531  -0.369
    1   AR   Ar  133   4.524   6.314   3.121
    1   AR   Ar  134   4.177   1.099   3.771
    1   AR   Ar  135   5.987   0.865   2.442
    1   AR   Ar  136   5.559   7.091   2.552
    1   AR   Ar  137   1.965   5.215   3.654
    1   AR   Ar  138   4.646   1.425   5.642
    1   AR   Ar  139   5.524   2.407   5.320
    1   AR   Ar  140   3.968   6.939   4.146
    1   AR   Ar  141   4.074   4.795   4.447
    1   AR   Ar  142   2.991   0.058   6.094
    1   AR   Ar  143   6.461   0.042   5.705
    1   AR   Ar  144   6.721   1.699   5.022
    1   AR   Ar  145   4.859   4.192  -0.337
    1   AR   Ar  146   2.786   2.380   2.246
    1   AR   Ar  147   4.590   1.680  -1.745
    1   AR   Ar  148   3.416   5.910  -1.190
    1   AR   Ar  149   2.733   1.851   0.325
    1   AR   Ar  150   2.699   1.387   2.090
    1   AR   Ar  151   2.534   2.035   3.358
    1   AR   Ar  152   2.886   2.607  -0.794
    1   AR   Ar  153   4.883   0.091   3.530
    1   AR   Ar  154   3.993   2.033   4.425
    1   AR   Ar  155   6.604   6.774   6.809
    1   AR   Ar  156   3.458   3.617   3.094
    1   AR   Ar  157   1.440   3.814   6.914
    1   AR   Ar  158   0.321   2.339   6.942
    1   AR   Ar  159   4.790   1.558   7.393
    1   AR   Ar  160   1.807   1.799   5.157
    1   AR   Ar  161   5.328   3.700   2.159
    1   AR   Ar  162   5.031   5.769  -0.582
    1   AR   Ar  163   5.441   3.713   0.253
    1   AR   Ar  164   2.926   5.709   2.086
    1   AR   Ar  165   3.859   2.579   0.850
    1   AR   Ar  166   2.852   3.277   4.592
    1   AR   Ar  167   4.973   0.879   2.883
    1   AR   Ar  168   5.287   3.796  -1.317
    1   AR   Ar  169   2.531   4.018   2.802
    1   AR   Ar  170   2.352   4.096   5.685
    1   AR   Ar  171   6.108   3.871   3.864
    1   AR   Ar  172   4.572   4.368   5.229
    1   AR   Ar  173   3.101   3.541   6.872
    1   AR   Ar  174   2.373   5.927   6.637
    1   AR   Ar  175   2.734   2.357   6.171
    1   AR   Ar  176   3.552   1.814   5.765
    1   AR   Ar  177   6.856   5.078  -1.155
    1   AR   Ar  178   4.093   4.991  -0.410
    1   AR   Ar  179   4.073   5.830   0.239
    1   AR   Ar  180   1.586   1.293  -3.076
    1   AR   Ar  181   0.543   6.089   1.427
    1   AR   Ar  182   2.480   0.109   3.479
    1   AR   Ar  183   4.060   5.095   2.503
    1   AR   Ar  184   5.063   6.575   1.386
    1   AR   Ar  185   2.984   4.995   4.631
    1   AR   Ar  186   2.866   4.366   3.767
    1   AR   Ar  187   3.419   6.508   3.287
    1   AR   Ar  188   2.863   0.066   1.701
    1   AR   Ar  189   3.929   2.688   6.527
    1   AR   Ar  190   3.320   5.656   3.807
    1   AR   Ar  191   3.064   6.763   7.404
    1   AR   Ar  192   3.874   5.903   4.818
    1   AR   Ar  193   2.661   6.060   1.169
    1   AR   Ar  194   4.124   3.786  -0.978
    1   AR   Ar  195   5.584   1.424   0.507
    1   AR   Ar  196   4.273   0.442   0.082
    1   AR   Ar  197   3.820   1.059   0.731
    1   AR   Ar  198   5.719   1.461   1.469
    1   AR   Ar  199   3.527   1.398   2.830
    1   AR   Ar  200   5.940   2.456  -0.159
    1   AR   Ar  201   5.793   5.990   3.967
    1   AR   Ar  202   5.641   1.429   4.481
    1   AR   Ar  203   6.151   6.473   2.973
    1   AR   Ar  204   4.949   6.617   5.118
    1   AR   Ar  205   6.728   0.221   2.259
    1   AR   Ar  206   4.845   0.686   4.731
    1   AR   Ar  207   0.733   1.706   6.072
    1   AR   Ar  208   0.011   7.051   3.338
    1   AR   Ar  209   0.092   2.640  -2.039
    1   AR   Ar  210   2.909   7.088   0.191
    1   AR   Ar  211   6.642   3.156   0.612
    1   AR   Ar  212   6.738   3.955  -1.055
    1   AR   Ar  213   3.948   0.782   1.930
    1   AR   Ar  214   4.493   3.120   2.569
    1   AR   Ar  215   5.590   2.988   1.186
    1   AR   Ar  216   0.488   3.014   1.571
    1   AR   Ar  217   5.449   2.966   4.395
    1   AR   Ar  218   4.324   3.309   4.974
    1   AR   Ar  219   4.696   2.350   3.569
    1   AR   Ar  220   4.240   4.123   2.049
    1   AR   Ar  221   6.328   6.089   5.174
    1   AR   Ar  222   4.904   0.401   6.130
    1   AR   Ar  223   6.829   1.270   6.115
    1   AR   Ar  224   4.788   2.841   5.900
    1   AR   Ar  225   6.244   2.979   2.837
    1   AR   Ar  226   2.114   3.631   3.796
    1   AR   Ar  227   6.455   3.465   1.829
    1   AR   Ar  228   6.008   6.389   1.859
    1   AR   Ar  229   5.432   4.916  -1.327
    1   AR   Ar  230   4.224   4.059   3.796
    1   AR   Ar  231   5.258   1.528   3.514
    1   AR   Ar  232   4.729   2.161   1.358
    1   AR   Ar  233   5.957   2.211   3.791
    1   AR   Ar  234   6.412   2.755   4.724
    1   AR   Ar  235   6.342   1.120   3.572
    1   AR   Ar  236   5.607   5.325   5.709
    1   AR   Ar  237   5.837   3.383   6.011
    1   AR   Ar  238   4.920   4.738   6.598
    1   AR   Ar  239   6.529   4.056   8.723
    1   AR   Ar  240   6.563   3.043   7.011
    1   AR   Ar  241   1.402   6.543  -0.701
    1   AR   Ar  242   5.442   5.158   0.180
    1   AR   Ar  243   4.734   4.258   2.932
    1   AR   Ar  244   0.571   5.527  -0.208
    1   AR   Ar  245   4.678   0.529   1.168
    1   AR   Ar  246   5.387   6.753   0.078
    1   AR   Ar  247   6.006   4.182   0.991
    1   AR   Ar  248   6.009   6.003  -0.462
    1   AR   Ar  249   4.136   5.953   1.607
    1   AR   Ar  250   4.874   5.712   4.441
    1   AR   Ar  251   5.194   4.823   3.920
    1   AR   Ar  252   4.229   5.287   3.591
    1   AR   Ar  253   6.786   4.106   6.568
    1   AR   Ar  254   2.385   2.198   9.375
    1   AR   Ar  255   3.731   4.092   9.367
    1   AR   Ar  256   6.720   4.933   3.052
    7.12000  7.12000 12.00000
Argon-slab step 3420
  256
    1   AR   Ar    1   6.010   1.902  -1.539
    1   AR   Ar    2   6.443   0.681   0.350
    1   AR   Ar    3   2.891   1.151  -0.465
    1   AR   Ar    4   1.576   0.755   0.054
    1   AR   Ar    5   6.933   6.901   1.279
    1   AR   Ar    6   7.048   1.113   2.524
    1   AR   Ar    7   6.190   4.046   2.812
    1   AR   Ar    8   5.705   0.257   1.154
    1   AR   Ar    9   1.352   6.912   3.459
    1   AR   Ar   10   0.728   0.890   3.891
    1   AR   Ar   11   2.149   6.420   4.141
    1   AR   Ar   12   0.662   1.601   3.066
    1   AR   Ar   13   0.270   0.648   5.527
    1   AR   Ar   14   6.400   2.064   7.509
    1   AR   Ar   15   5.046   6.552   8.524
    1   AR   Ar   16   0.937   7.041   4.834
    1   AR   Ar   17   6.416   2.012   0.661
    1   AR   Ar   18   5.942   4.347  -0.554
    1   AR   Ar   19   2.849   3.360   0.907
    1   AR   Ar   20   4.322   4.911  -2.046
    1   AR   Ar   21   3.840   1.837   1.733
    1   AR   Ar   22   6.168   1.946   2.708
    1   AR   Ar   23   0.450   0.887   0.015
    1   AR   Ar   24   6.813   2.324   1.686
    1   AR   Ar   25   0.868   2.183   4.223
    1   AR   Ar   26   5.980   0.038   3.895
    1   AR   Ar   27   1.667   0.772   3.169
    1   AR   Ar   28   0.298   2.940   5.013
    1   AR   Ar   29   5.433   2.836   7.083
    1   AR   Ar   30   1.894   1.392   4.045
    1   AR   Ar   31   3.486   0.603   7.135
    1   AR   Ar   32   1.281   2.796   6.438
    1   AR   Ar   33   1.075   4.459  -0.219
    1   AR   Ar   34   0.509   5.224   2.479
    1   AR   Ar   35   5.905   5.477   1.103
    1   AR   Ar   36   5.979   0.993  -3.764
    1   AR   Ar   37   5.427   2.508   2.082
    1   AR   Ar   38   0.045   4.458   2.084
    1   AR   Ar   39   1.105   3.981   2.348
    1   AR   Ar   40   2.412   3.601   1.831
    1   AR   Ar   41   0.064   2.475   3.629
    1   AR   Ar   42   6.084   4.928   4.541
    1   AR   Ar   43   6.677   2.406   5.917
    1   AR   Ar   44   0.688   4.204   3.417
    1   AR   Ar   45   0.836   3.571   5.629
    1   AR   Ar   46   7.048   5.262   4.936
    1   AR   Ar   47   5.917   4.238   7.274
    1   AR   Ar   48   6.498   5.358   6.475
    1   AR   Ar   49   5.190   0.974  -1.292
    1   AR   Ar   50   4.408   4.758   0.674
    1   AR   Ar   51   6.767   4.937   1.310
    1   AR   Ar   52   6.384   4.113  -2.646
    1   AR   Ar   53   5.411   5.392   2.897
    1   AR   Ar   54   0.738   6.358   2.496
    1   AR   Ar   55   6.550   5.638   2.218
    1   AR   Ar   56   7.039   1.051   1.106
    1   AR   Ar   57   5.159   3.513   3.539
    1   AR   Ar   58   7.042   3.515   3.866
    1   AR   Ar   59   2.227   5.435   5.418
    1   AR   Ar   60   0.073   5.799   3.461
    1   AR   Ar   61   0.096   4.779   5.796
    1   AR   Ar   62   7.079   4.563   4.159
    1   AR   Ar   63   2.230   0.869   6.719
    1   AR   Ar   64   1.123   5.640   4.785
    1   AR   Ar   65   3.743   6.789   1.083
    1   AR   Ar   66   0.904   1.193   1.695
    1   AR   Ar   67   3.748   6.890  -0.535
    1   AR   Ar   68   1.899   2.136  -0.915
    1   AR   Ar   69   2.844   0.963   1.133
    1   AR   Ar   70   0.788   0.368   2.526
    1   AR   Ar   71   3.292   0.607   4.044
    1   AR   Ar   72   4.224   6.765   2.184
    1   AR   Ar   73   3.891   0.316   3.158
    1   AR   Ar   74   1.396   0.849   4.750
    1   AR   Ar   75   3.862   0.841   4.922
    1   AR   Ar   76   1.808   0.556   1.702
    1   AR   Ar   77   2.052   6.914   5.309
    1   AR   Ar   78   0.279   6.311   5.703
    1   AR   Ar   79   3.282   6.053   6.011
    1   AR   Ar   80   3.624   5.095   5.467
    1   AR   Ar   81   2.553   6.020   0.043
    1   AR   Ar   82   6.659   5.340   0.192
    1   AR   Ar   83   0.468   2.248   0.570
    1   AR   Ar   84   0.204   4.030   1.162
    1   AR   Ar   85   1.187   3.655   1.460
    1   AR   Ar   86   1.727   5.024   0.452
    1   AR   Ar   87   1.594   2.352   0.981
    1   AR   Ar   88   2.148   4.654   1.543
    1   AR   Ar   89   7.034   3.502   2.804
    1   AR   Ar   90   2.369   2.420   4.344
    1   AR   Ar   91   1.412   2.570   3.445
    1   AR   Ar   92   1.347   2.483   2.019
    1   AR   Ar   93   1.210   0.592   6.048
    1   AR   Ar   94   0.280   0.188  11.451
    1   AR   Ar   95   3.798   0.860   6.030
    1   AR   Ar   96   3.090   0.054   4.927
    1   AR   Ar   97   4.867   1.700  -0.076
    1   AR   Ar   98   1.681   4.863   2.590
    1   AR   Ar   99   6.396   1.533  -0.332
    1   AR   Ar  100   1.352   3.025  -0.603
    1   AR   Ar  101   3.444   5.015   1.327
    1   AR   Ar  102   3.638   2.506   3.346
    1   AR   Ar  103   0.775   4.953   1.092
    1   AR   Ar  104   3.190   4.082  -1.622
    1   AR   Ar  105   1.038   3.276   4.301
    1   AR   Ar  106   3.460   3.020   5.667
    1   AR   Ar  107   0.811   4.466   4.967
    1   AR   Ar  108   3.008   1.548   4.960
    1   AR   Ar  109   1.869   4.495   4.786
    1   AR   Ar  110   2.310   2.967   5.570
    1   AR   Ar  111   4.602   4.828   7.597
    1   AR   Ar  112   1.497   6.180   6.099
    1   AR   Ar  113   3.236   5.012   0.315
    1   AR   Ar  114   2.625   0.128  -1.079
    1   AR   Ar  115   2.357   5.150  -1.060
    1   AR   Ar  116   5.918   0.581  -0.666
    1   AR   Ar  117   0.777   5.160   3.963
    1   AR   Ar  118   1.341   5.772   3.162
    1   AR   Ar  119   2.002   3.080   2.698
    1   AR   Ar  120   1.809   6.528   2.159
    1   AR   Ar  121   5.765   3.910   5.089
    1   AR   Ar  122   2.820   6.197   5.085
    1   AR   Ar  123   3.549   4.014   5.013
    1   AR   Ar  124   1.398   5.597   1.870
    1   AR   Ar  125   6.950   4.030   4.995
    1   AR   Ar  126   6.845   0.152   4.518
    1   AR   Ar  127   4.252   3.882   6.620
    1   AR   Ar  128   3.155   4.855   6.790
    1   AR   Ar  129   2.475   6.096   3.117
    1   AR   Ar  130   4.256   2.600  -2.569
    1   AR   Ar  131   3.741   2.005  -0.253
    1   AR   Ar  132   7.084   2.523  -0.358
    1   AR   Ar  133   4.513   6.329   3.147
    1   AR   Ar  134   4.165   1.064   3.805
    1   AR   Ar  135   5.988   0.878   2.408
    1   AR   Ar  136   5.556   7.070   2.547
    1   AR   Ar  137   1.956   5.194   3.694
    1   AR   Ar  138   4.658   1.418   5.652
    1   AR   Ar  139   5.560   2.409   5.323
    1   AR   Ar  140   3.979   6.944   4.130
    1   AR   Ar  141   4.075   4.796   4.447
    1   AR   Ar  142   2.971   0.079   6.121
    1   AR   Ar  143   6.473   0.048   5.737
    1   AR   Ar  144   6.703   1.677   5.041
    1   AR   Ar  145   4.878   4.167  -0.360
    1   AR   Ar  146   2.761   2.395   2.281
    1   AR   Ar  147   4.609   1.657  -1.737
    1   AR   Ar  148   3.410   5.883  -1.165
    1   AR   Ar  149   2.722   1.865   0.289
    1   AR   Ar  150   2.705   1.372   2.089
    1   AR   Ar  151   2.537   2.008   3.320
    1   AR   Ar  152   2.880   2.594  -0.781
    1   AR   Ar  153   4.932   0.109   3.520
    1   AR   Ar  154   3.970   2.012   4.436
    1   AR   Ar  155   6.593   6.741   6.803
    1   AR   Ar  156   3.453   3.623   3.045
    1   AR   Ar  157   1.464   3.826   6.892
    1   AR   Ar  158   0.330   2.327   6.938
    1   AR   Ar  159   4.776   1.575   7.405
    1   AR   Ar  160   1.775   1.754   5.163
    1   AR   Ar  161   5.329   3.677   2.131
    1   AR   Ar  162   5.013   5.782  -0.596
    1   AR   Ar  163   5.455   3.688   0.266
    1   AR   Ar  164   2.922   5.673   2.086
    1   AR   Ar  165   3.900   2.579   0.843
    1   AR   Ar  166   2.890   3.266   4.613
    1   AR   Ar  167   4.967   0.885   2.856
    1   AR   Ar  168   5.295   3.792  -1.348
    1   AR   Ar  169   2.559   4.036   2.772
    1   AR   Ar  170   2.331   4.134   5.739
    1   AR   Ar  171   6.102   3.867   3.878
    1   AR   Ar  172   4.538   4.333   5.247
    1   AR   Ar  173   3.098   3.563   6.850
    1   AR   Ar  174   2.389   5.937   6.638
    1   AR   Ar  175   2.744   2.351   6.159
    1   AR   Ar  176   3.549   1.825   5.755
    1   AR   Ar  177   6.833   5.019  -1.138
    1   AR   Ar  178   4.087   4.986  -0.394
    1   AR   Ar  179   4.069   5.805   0.216
    1   AR   Ar  180   1.611   1.316  -3.071
    1   AR   Ar  181   0.511   6.103   1.420
    1   AR   Ar  182   2.485   0.105   3.445
    1   AR   Ar  183   4.057   5.074   2.487
    1   AR   Ar  184   5.075   6.544   1.372
    1   AR   Ar  185   2.983   4.962   4.616
    1   AR   Ar  186   2.870   4.383   3.769
    1   AR   Ar  187   3.423   6.508   3.297
    1   AR   Ar  188   2.884   0.043   1.691
    1   AR   Ar  189   3.942   2.675   6.535
    1   AR   Ar  190   3.294   5.670   3.815
    1   AR   Ar  191   3.051   6.764   7.432
    1   AR   Ar  192   3.875   5.896   4.825
    1   AR   Ar  193   2.677   6.058   1.215
    1   AR   Ar  194   4.111   3.780  -0.965
    1   AR   Ar  195   5.610   1.444   0.462
    1   AR   Ar  196   4.275   0.438   0.106
    1   AR   Ar  197   3.797   1.081   0.708
    1   AR   Ar  198   5.759   1.445   1.475
    1   AR   Ar  199   3.515   1.400   2.825
    1   AR   Ar  200   5.936   2.486  -0.150
    1   AR   Ar  201   5.811   5.995   3.970
    1   AR   Ar  202   5.645   1.405   4.525
    1   AR   Ar  203   6.166   6.475   2.973
    1   AR   Ar  204   4.980   6.628   5.116
    1   AR   Ar  205   6.741   0.193   2.232
    1   AR   Ar  206   4.841   0.649   4.749
    1   AR   Ar  207   0.708   1.663   6.069
    1   AR   Ar  208   0.037   7.041   3.360
    1   AR   Ar  209   0.115   2.643  -2.046
    1   AR   Ar  210   2.937   7.097   0.196
    1   AR   Ar  211   6.653   3.161   0.626
    1   AR   Ar  212   6.746   3.936  -1.056
    1   AR   Ar  213   3.913   0.820   1.975
    1   AR   Ar  214   4.498   3.153   2.552
    1   AR   Ar  215   5.568   3.006   1.167
    1   AR   Ar  216   0.464   2.996   1.583
    1   AR   Ar  217   5.446   2.950   4.381
    1   AR   Ar  218   4.300   3.316   4.962
    1   AR   Ar  219   4.666   2.380   3.588
    1   AR   Ar  220   4.222   4.118   2.021
    1   AR   Ar  221   6.374   6.100   5.149
    1   AR   Ar  222   4.901   0.405   6.123
    1   AR   Ar  223   6.813   1.274   6.126
    1   AR   Ar  224   4.800   2.835   5.894
    1   AR   Ar  225   6.220   2.979   2.853
    1   AR   Ar  226   2.131   3.612   3.786
    1   AR   Ar  227   6.449   3.410   1.822
    1   AR   Ar  228   6.030   6.408   1.881
    1   AR   Ar  229   5.442   4.924  -1.351
    1   AR   Ar  230   4.157   4.060   3.801
    1   AR   Ar  231   5.291   1.529   3.523
    1   AR   Ar  232   4.749   2.135   1.386
    1   AR   Ar  233   5.970   2.241   3.795
    1   AR   Ar  234   6.416   2.737   4.717
    1   AR   Ar  235   6.363   1.106   3.566
    1   AR   Ar  236   5.620   5.333   5.721
    1   AR   Ar  237   5.812   3.389   6.023
    1   AR   Ar  238   4.932   4.750   6.592
    1   AR   Ar  239   6.552   4.060   8.737
    1   AR   Ar  240   6.583   3.063   7.024
    1   AR   Ar  241   1.433   6.568  -0.703
    1   AR   Ar  242   5.475   5.191   0.195
    1   AR   Ar  243   4.706   4.271   2.943
    1   AR   Ar  244   0.573   5.533  -0.211
    1   AR   Ar  245   4.647   0.525   1.153
    1   AR   Ar  246   5.365   6.763   0.065
    1   AR   Ar  247   6.012   4.195   0.999
    1   AR   Ar  248   6.034   5.995  -0.432
    1   AR   Ar  249   4.155   5.926   1.591
    1   AR   Ar  250   4.894   5.708   4.435
    1   AR   Ar  251   5.178   4.807   3.949
    1   AR   Ar  252   4.231   5.278   3.581
    1   AR   Ar  253   6.783   4.133   6.589
    1   AR   Ar  254   2.351   2.204   9.384
    1   AR   Ar  255   3.721   4.127   9.385
    1   AR   Ar  256   6.705   4.924   3.022
    7.12000  7.12000 12.00000
Argon-slab step 3425
  256
    1   AR   Ar    1   6.002   1.933  -1.549
    1   AR   Ar    2   6.419   0.691   0.324
    1   AR   Ar    3   2.905   1.187  -0.456
    1   AR   Ar    4   1.587   0.772   0.042
    1   AR   Ar    5   6.925   6.902   1.269
    1   AR   Ar    6   7.064   1.120   2.549
    1   AR   Ar    7   6.196   4.013   2.794
    1   AR   Ar    8   5.698   0.253   1.159
    1   AR   Ar    9   1.331   6.902   3.455
    1   AR   Ar   10   0.728   0.901   3.929
    1   AR   Ar   11   2.146   6.431   4.164
    1   AR   Ar   12   0.642   1.628   3.082
    1   AR   Ar   13   0.251   0.646   5.535
    1   AR   Ar   14   6.394   2.055   7.503
    1   AR   Ar   15   5.047   6.562   8.489
    1   AR   Ar   16   0.960   7.071   4.856
    1   AR   Ar   17   6.436   1.984   0.663
    1   AR   Ar   18   5.957   4.411  -0.559
    1   AR   Ar   19   2.834   3.381   0.919
    1   AR   Ar   20   4.319   4.955  -2.045
    1   AR   Ar   21   3.845   1.785   1.721
    1   AR   Ar   22   6.182   1.897   2.719
    1   AR   Ar   23   0.466   0.885   0.012
    1   AR   Ar   24   6.790   2.341   1.686
    1   AR   Ar   25   0.856   2.193   4.247
    1   AR   Ar   26   5.982   0.093   3.903
    1   AR   Ar   27   1.673   0.803   3.173
    1   AR   Ar   28   0.285   2.943   5.035
    1   AR   Ar   29   5.413   2.847   7.077
    1   AR   Ar   30   1.932   1.354   3.996
    1   AR   Ar   31   3.473   0.597   7.123
    1   AR   Ar   32   1.263   2.826   6.474
    1   AR   Ar   33   1.062   4.444  -0.168
    1   AR   Ar   34   0.487   5.234   2.469
    1   AR   Ar   35   5.894   5.470   1.113
    1   AR   Ar   36   5.975   0.989  -3.749
    1   AR   Ar   37   5.440   2.523   2.074
    1   AR   Ar   38   0.025   4.429   2.131
    1   AR   Ar   39   1.103   3.978   2.389
    1   AR   Ar   40   2.433   3.584   1.830
    1   AR   Ar   41   0.071   2.462   3.634
    1   AR   Ar   42   6.068   4.936   4.557
    1   AR   Ar   43   6.695   2.385   5.895
    1   AR   Ar   44   0.684   4.211   3.403
    1   AR   Ar   45   0.835   3.583   5.601
    1   AR   Ar   46   7.067   5.239   4.912
    1   AR   Ar   47   5.938   4.245   7.286
    1   AR   Ar   48   6.464   5.337   6.464
    1   AR   Ar   49   5.183   0.988  -1.284
    1   AR   Ar   50   4.424   4.738   0.668
    1   AR   Ar   51   6.738   4.928   1.305
    1   AR   Ar   52   6.373   4.101  -2.645
    1   AR   Ar   53   5.401   5.377   2.898
    1   AR   Ar   54   0.720   6.347   2.499
    1   AR   Ar   55   6.581   5.623   2.176
    1   AR   Ar   56   7.017   1.040   1.120
    1   AR   Ar   57   5.148   3.514   3.548
    1   AR   Ar   58   7.034   3.469   3.880
    1   AR   Ar   59   2.216   5.430   5.431
    1   AR   Ar   60   0.057   5.774   3.399
    1   AR   Ar   61   0.096   4.782   5.763
    1   AR   Ar   62   7.096   4.524   4.146
    1   AR   Ar   63   2.205   0.872   6.709
    1   AR   Ar   64   1.149   5.614   4.797
    1   AR   Ar   65   3.725   6.809   1.066
    1   AR   Ar   66   0.901   1.205   1.693
    1   AR   Ar   67   3.736   6.881  -0.539
    1   AR   Ar   68   1.907   2.126  -0.931
    1   AR   Ar   69   2.822   0.984   1.090
    1   AR   Ar   70   0.772   0.376   2.502
    1   AR   Ar   71   3.280   0.598   4.007
    1   AR   Ar   72   4.202   6.779   2.231
    1   AR   Ar   73   3.895   0.283   3.108
    1   AR   Ar   74   1.401   0.847   4.769
    1   AR   Ar   75   3.819   0.818   4.934
    1   AR   Ar   76   1.821   0.542   1.719
    1   AR   Ar   77   2.026   6.919   5.300
    1   AR   Ar   78   0.263   6.307   5.694
    1   AR   Ar   79   3.297   6.045   6.035
    1   AR   Ar   80   3.586   5.082   5.442
    1   AR   Ar   81   2.555   6.020   0.090
    1   AR   Ar   82   6.644   5.324   0.204
    1   AR   Ar   83   0.463   2.244   0.556
    1   AR   Ar   84   0.202   4.039   1.180
    1   AR   Ar   85   1.210   3.631   1.455
    1   AR   Ar   86   1.701   5.026   0.464
    1   AR   Ar   87   1.621   2.353   0.976
    1   AR   Ar   88   2.155   4.665   1.562
    1   AR   Ar   89   6.986   3.519   2.801
    1   AR   Ar   90   2.394   2.404   4.367
    1   AR   Ar   91   1.394   2.557   3.447
    1   AR   Ar   92   1.330   2.491   1.997
    1   AR   Ar   93   1.217   0.587   6.052
    1   AR   Ar   94   0.277   0.207  11.458
    1   AR   Ar   95   3.818   0.823   6.015
    1   AR   Ar   96   3.074   0.051   4.913
    1   AR   Ar   97   4.852   1.708  -0.086
    1   AR   Ar   98   1.676   4.872   2.580
    1   AR   Ar   99   6.421   1.507  -0.297
    1   AR   Ar  100   1.333   3.014  -0.586
    1   AR   Ar  101   3.424   5.019   1.335
    1   AR   Ar  102   3.650   2.496   3.328
    1   AR   Ar  103   0.782   4.947   1.123
    1   AR   Ar  104   3.168   4.075  -1.652
    1   AR   Ar  105   1.030   3.266   4.278
    1   AR   Ar  106   3.446   3.037   5.671
    1   AR   Ar  107   0.823   4.459   4.972
    1   AR   Ar  108   2.969   1.532   4.965
    1   AR   Ar  109   1.844   4.484   4.763
    1   AR   Ar  110   2.331   2.936   5.583
    1   AR   Ar  111   4.597   4.858   7.648
    1   AR   Ar  112   1.452   6.214   6.079
    1   AR   Ar  113   3.247   4.985   0.336
    1   AR   Ar  114   2.648   0.118  -1.071
    1   AR   Ar  115   2.351   5.118  -1.049
    1   AR   Ar  116   5.938   0.587  -0.673
    1   AR   Ar  117   0.763   5.184   3.959
    1   AR   Ar  118   1.326   5.765   3.157
    1   AR   Ar  119   1.967   3.112   2.730
    1   AR   Ar  120   1.806   6.535   2.128
    1   AR   Ar  121   5.751   3.877   5.039
    1   AR   Ar  122   2.831   6.182   5.123
    1   AR   Ar  123   3.504   4.008   4.994
    1   AR   Ar  124   1.382   5.565   1.902
    1   AR   Ar  125   6.965   4.016   5.009
    1   AR   Ar  126   6.866   0.133   4.516
    1   AR   Ar  127   4.268   3.875   6.589
    1   AR   Ar  128   3.174   4.859   6.783
    1   AR   Ar  129   2.501   6.085   3.113
    1   AR   Ar  130   4.272   2.602  -2.565
    1   AR   Ar  131   3.742   2.025  -0.270
    1   AR   Ar  132   7.098   2.515  -0.347
    1   AR   Ar  133   4.501   6.340   3.175
    1   AR   Ar  134   4.162   1.036   3.842
    1   AR   Ar  135   5.988   0.898   2.375
    1   AR   Ar  136   5.551   7.045   2.541
    1   AR   Ar  137   1.953   5.167   3.739
    1   AR   Ar  138   4.670   1.412   5.661
    1   AR   Ar  139   5.600   2.408   5.325
    1   AR   Ar  140   3.994   6.940   4.112
    1   AR   Ar  141   4.071   4.806   4.458
    1   AR   Ar  142   2.950   0.098   6.147
    1   AR   Ar  143   6.485   0.052   5.769
    1   AR   Ar  144   6.692   1.701   5.034
    1   AR   Ar  145   4.890   4.153  -0.389
    1   AR   Ar  146   2.738   2.414   2.318
    1   AR   Ar  147   4.623   1.642  -1.733
    1   AR   Ar  148   3.403   5.855  -1.138
    1   AR   Ar  149   2.712   1.880   0.256
    1   AR   Ar  150   2.713   1.355   2.093
    1   AR   Ar  151   2.539   1.982   3.281
    1   AR   Ar  152   2.874   2.581  -0.768
    1   AR   Ar  153   4.981   0.126   3.516
    1   AR   Ar  154   3.947   1.989   4.448
    1   AR   Ar  155   6.583   6.708   6.796
    1   AR   Ar  156   3.455   3.626   2.998
    1   AR   Ar  157   1.487   3.837   6.869
    1   AR   Ar  158   0.337   2.315   6.931
    1   AR   Ar  159   4.761   1.593   7.417
    1   AR   Ar  160   1.744   1.712   5.169
    1   AR   Ar  161   5.345   3.674   2.114
    1   AR   Ar  162   4.989   5.795  -0.612
    1   AR   Ar  163   5.477   3.654   0.287
    1   AR   Ar  164   2.921   5.632   2.098
    1   AR   Ar  165   3.940   2.579   0.835
    1   AR   Ar  166   2.931   3.259   4.635
    1   AR   Ar  167   4.954   0.887   2.816
    1   AR   Ar  168   5.303   3.789  -1.378
    1   AR   Ar  169   2.582   4.060   2.744
    1   AR   Ar  170   2.310   4.173   5.792
    1   AR   Ar  171   6.091   3.866   3.896
    1   AR   Ar  172   4.508   4.298   5.270
    1   AR   Ar  173   3.096   3.584   6.825
    1   AR   Ar  174   2.407   5.947   6.640
    1   AR   Ar  175   2.761   2.334   6.161
    1   AR   Ar  176   3.554   1.842   5.748
    1   AR   Ar  177   6.809   4.962  -1.120
    1   AR   Ar  178   4.083   4.976  -0.383
    1   AR   Ar  179   4.064   5.785   0.197
    1   AR   Ar  180   1.635   1.340  -3.065
    1   AR   Ar  181   0.480   6.113   1.414
    1   AR   Ar  182   2.492   0.100   3.410
    1   AR   Ar  183   4.042   5.051   2.482
    1   AR   Ar  184   5.084   6.513   1.358
    1   AR   Ar  185   2.981   4.933   4.606
    1   AR   Ar  186   2.877   4.399   3.768
    1   AR   Ar  187   3.428   6.515   3.301
    1   AR   Ar  188   2.905   0.017   1.683
    1   AR   Ar  189   3.954   2.662   6.545
    1   AR   Ar  190   3.297   5.672   3.845
    1   AR   Ar  191   3.034   6.761   7.470
    1   AR   Ar  192   3.876   5.890   4.829
    1   AR   Ar  193   2.692   6.061   1.249
    1   AR   Ar  194   4.096   3.773  -0.955
    1   AR   Ar  195   5.646   1.454   0.421
    1   AR   Ar  196   4.273   0.444   0.108
    1   AR   Ar  197   3.772   1.111   0.690
    1   AR   Ar  198   5.801   1.430   1.488
    1   AR   Ar  199   3.503   1.403   2.823
    1   AR   Ar  200   5.930   2.519  -0.141
    1   AR   Ar  201   5.817   6.029   3.965
    1   AR   Ar  202   5.649   1.382   4.570
    1   AR   Ar  203   6.196   6.464   2.984
    1   AR   Ar  204   4.969   6.646   5.111
    1   AR   Ar  205   6.755   0.154   2.206
    1   AR   Ar  206   4.844   0.611   4.766
    1   AR   Ar  207   0.685   1.620   6.065
    1   AR   Ar  208   0.063   7.031   3.382
    1   AR   Ar  209   0.137   2.646  -2.052
    1   AR   Ar  210   2.966   7.107   0.202
    1   AR   Ar  211   6.662   3.164   0.642
    1   AR   Ar  212   6.746   3.945  -1.053
    1   AR   Ar  213   3.877   0.852   2.021
    1   AR   Ar  214   4.500   3.185   2.537
    1   AR   Ar  215   5.548   3.025   1.146
    1   AR   Ar  216   0.434   2.975   1.596
    1   AR   Ar  217   5.439   2.937   4.369
    1   AR   Ar  218   4.281   3.316   4.949
    1   AR   Ar  219   4.637   2.412   3.608
    1   AR   Ar  220   4.202   4.111   1.990
    1   AR   Ar  221   6.419   6.112   5.124
    1   AR   Ar  222   4.891   0.416   6.125
    1   AR   Ar  223   6.794   1.281   6.139
    1   AR   Ar  224   4.811   2.831   5.890
    1   AR   Ar  225   6.182   2.972   2.871
    1   AR   Ar  226   2.147   3.590   3.776
    1   AR   Ar  227   6.440   3.437   1.809
    1   AR   Ar  228   6.048   6.434   1.896
    1   AR   Ar  229   5.451   4.933  -1.373
    1   AR   Ar  230   4.089   4.051   3.802
    1   AR   Ar  231   5.325   1.531   3.537
    1   AR   Ar  232   4.774   2.109   1.409
    1   AR   Ar  233   5.989   2.274   3.799
    1   AR   Ar  234   6.423   2.719   4.710
    1   AR   Ar  235   6.384   1.093   3.558
    1   AR   Ar  236   5.633   5.341   5.732
    1   AR   Ar  237   5.787   3.394   6.036
    1   AR   Ar  238   4.946   4.762   6.582
    1   AR   Ar  239   6.576   4.063   8.751
    1   AR   Ar  240   6.637   3.063   7.046
    1   AR   Ar  241   1.464   6.593  -0.704
    1   AR   Ar  242   5.458   5.181   0.226
    1   AR   Ar  243   4.682   4.288   2.952
    1   AR   Ar  244   0.575   5.538  -0.214
    1   AR   Ar  245   4.615   0.520   1.139
    1   AR   Ar  246   5.342   6.773   0.054
    1   AR   Ar  247   6.020   4.207   1.010
    1   AR   Ar  248   6.062   5.987  -0.401
    1   AR   Ar  249   4.172   5.892   1.573
    1   AR   Ar  250   4.912   5.704   4.431
    1   AR   Ar  251   5.159   4.786   3.978
    1   AR   Ar  252   4.239   5.272   3.563
    1   AR   Ar  253   6.779   4.159   6.608
    1   AR   Ar  254   2.316   2.209   9.393
    1   AR   Ar  255   3.711   4.162   9.402
    1   AR   Ar  256   6.692   4.916   2.996
    7.12000  7.12000 12.00000
Argon-slab step 3430
  256
    1   AR   Ar    1   5.992   1.963  -1.559
    1   AR   Ar    2   6.382   0.689   0.297
    1   AR   Ar    3   2.921   1.217  -0.452
    1   AR   Ar    4   1.596   0.773   0.072
    1   AR   Ar    5   6.915   6.904   1.254
    1   AR   Ar    6   7.075   1.125   2.572
    1   AR   Ar    7   6.175   3.997   2.774
    1   AR   Ar    8   5.687   0.252   1.159
    1   AR   Ar    9   1.309   6.878   3.445
    1   AR   Ar   10   0.711   0.896   3.936
    1   AR   Ar   11   2.143   6.441   4.187
    1   AR   Ar   12   0.628   1.658   3.101
    1   AR   Ar   13   0.234   0.642   5.539
    1   AR   Ar   14   6.387   2.047   7.497
    1   AR   Ar   15   5.048   6.572   8.453
    1   AR   Ar   16   0.977   7.092   4.880
    1   AR   Ar   17   6.467   1.964   0.672
    1   AR   Ar   18   5.968   4.477  -0.559
    1   AR   Ar   19   2.822   3.399   0.924
    1   AR   Ar   20   4.316   4.998  -2.041
    1   AR   Ar   21   3.845   1.743   1.706
    1   AR   Ar   22   6.197   1.849   2.730
    1   AR   Ar   23   0.481   0.885   0.011
    1   AR   Ar   24   6.757   2.351   1.687
    1   AR   Ar   25   0.845   2.197   4.279
    1   AR   Ar   26   5.985   0.147   3.909
    1   AR   Ar   27   1.675   0.831   3.172
    1   AR   Ar   28   0.269   2.943   5.053
    1   AR   Ar   29   5.393   2.859   7.069
    1   AR   Ar   30   1.974   1.321   3.951
    1   AR   Ar   31   3.460   0.592   7.109
    1   AR   Ar   32   1.245   2.854   6.509
    1   AR   Ar   33   1.046   4.429  -0.117
    1   AR   Ar   34   0.471   5.254   2.464
    1   AR   Ar   35   5.880   5.468   1.127
    1   AR   Ar   36   5.970   0.984  -3.733
    1   AR   Ar   37   5.457   2.539   2.072
    1   AR   Ar   38   0.002   4.389   2.180
    1   AR   Ar   39   1.098   3.976   2.439
    1   AR   Ar   40   2.439   3.572   1.820
    1   AR   Ar   41   0.073   2.448   3.635
    1   AR   Ar   42   6.053   4.942   4.574
    1   AR   Ar   43   6.713   2.365   5.873
    1   AR   Ar   44   0.679   4.217   3.387
    1   AR   Ar   45   0.837   3.598   5.578
    1   AR   Ar   46   7.087   5.224   4.878
    1   AR   Ar   47   5.962   4.251   7.290
    1   AR   Ar   48   6.432   5.315   6.452
    1   AR   Ar   49   5.183   0.993  -1.269
    1   AR   Ar   50   4.440   4.719   0.660
    1   AR   Ar   51   6.715   4.921   1.298
    1   AR   Ar   52   6.376   4.053  -2.662
    1   AR   Ar   53   5.391   5.362   2.901
    1   AR   Ar   54   0.701   6.337   2.501
    1   AR   Ar   55   6.617   5.603   2.135
    1   AR   Ar   56   6.996   1.030   1.136
    1   AR   Ar   57   5.135   3.515   3.554
    1   AR   Ar   58   7.031   3.423   3.897
    1   AR   Ar   59   2.201   5.421   5.446
    1   AR   Ar   60   0.042   5.754   3.335
    1   AR   Ar   61   0.092   4.779   5.739
    1   AR   Ar   62   7.108   4.486   4.125
    1   AR   Ar   63   2.178   0.849   6.700
    1   AR   Ar   64   1.178   5.589   4.815
    1   AR   Ar   65   3.709   6.829   1.048
    1   AR   Ar   66   0.896   1.217   1.692
    1   AR   Ar   67   3.723   6.869  -0.544
    1   AR   Ar   68   1.915   2.114  -0.946
    1   AR   Ar   69   2.797   1.003   1.047
    1   AR   Ar   70   0.756   0.383   2.479
    1   AR   Ar   71   3.258   0.588   3.969
    1   AR   Ar   72   4.179   6.796   2.276
    1   AR   Ar   73   3.862   0.329   3.132
    1   AR   Ar   74   1.422   0.832   4.790
    1   AR   Ar   75   3.776   0.797   4.946
    1   AR   Ar   76   1.836   0.527   1.736
    1   AR   Ar   77   1.999   6.925   5.291
    1   AR   Ar   78   0.246   6.305   5.684
    1   AR   Ar   79   3.316   6.036   6.061
    1   AR   Ar   80   3.550   5.066   5.422
    1   AR   Ar   81   2.558   6.019   0.136
    1   AR   Ar   82   6.629   5.304   0.218
    1   AR   Ar   83   0.459   2.241   0.546
    1   AR   Ar   84   0.200   4.042   1.194
    1   AR   Ar   85   1.240   3.608   1.441
    1   AR   Ar   86   1.676   5.031   0.478
    1   AR   Ar   87   1.647   2.354   0.969
    1   AR   Ar   88   2.151   4.660   1.560
    1   AR   Ar   89   6.977   3.528   2.796
    1   AR   Ar   90   2.417   2.384   4.390
    1   AR   Ar   91   1.388   2.550   3.453
    1   AR   Ar   92   1.314   2.498   1.978
    1   AR   Ar   93   1.226   0.582   6.053
    1   AR   Ar   94   0.274   0.226  11.464
    1   AR   Ar   95   3.838   0.784   6.003
    1   AR   Ar   96   3.057   0.049   4.901
    1   AR   Ar   97   4.824   1.719  -0.103
    1   AR   Ar   98   1.691   4.844   2.571
    1   AR   Ar   99   6.450   1.487  -0.269
    1   AR   Ar  100   1.313   3.004  -0.568
    1   AR   Ar  101   3.426   5.010   1.348
    1   AR   Ar  102   3.656   2.486   3.308
    1   AR   Ar  103   0.789   4.942   1.155
    1   AR   Ar  104   3.148   4.068  -1.681
    1   AR   Ar  105   1.022   3.259   4.255
    1   AR   Ar  106   3.433   3.055   5.672
    1   AR   Ar  107   0.833   4.455   4.974
    1   AR   Ar  108   2.926   1.514   4.964
    1   AR   Ar  109   1.828   4.475   4.743
    1   AR   Ar  110   2.340   2.922   5.579
    1   AR   Ar  111   4.592   4.887   7.698
    1   AR   Ar  112   1.407   6.249   6.056
    1   AR   Ar  113   3.256   4.960   0.350
    1   AR   Ar  114   2.672   0.108  -1.061
    1   AR   Ar  115   2.345   5.087  -1.036
    1   AR   Ar  116   5.958   0.590  -0.677
    1   AR   Ar  117   0.750   5.206   3.951
    1   AR   Ar  118   1.309   5.760   3.150
    1   AR   Ar  119   1.932   3.146   2.760
    1   AR   Ar  120   1.805   6.544   2.098
    1   AR   Ar  121   5.738   3.845   4.987
    1   AR   Ar  122   2.842   6.168   5.154
    1   AR   Ar  123   3.459   4.012   4.977
    1   AR   Ar  124   1.363   5.536   1.930
    1   AR   Ar  125   6.977   3.995   5.028
    1   AR   Ar  126   6.889   0.113   4.516
    1   AR   Ar  127   4.273   3.854   6.579
    1   AR   Ar  128   3.193   4.862   6.774
    1   AR   Ar  129   2.522   6.071   3.109
    1   AR   Ar  130   4.289   2.604  -2.560
    1   AR   Ar  131   3.741   2.044  -0.286
    1   AR   Ar  132   7.109   2.508  -0.336
    1   AR   Ar  133   4.490   6.350   3.203
    1   AR   Ar  134   4.170   1.013   3.878
    1   AR   Ar  135   5.987   0.916   2.346
    1   AR   Ar  136   5.535   7.028   2.533
    1   AR   Ar  137   1.954   5.138   3.787
    1   AR   Ar  138   4.683   1.407   5.667
    1   AR   Ar  139   5.641   2.404   5.327
    1   AR   Ar  140   4.015   6.910   4.074
    1   AR   Ar  141   4.067   4.824   4.477
    1   AR   Ar  142   2.929   0.117   6.173
    1   AR   Ar  143   6.498   0.055   5.799
    1   AR   Ar  144   6.682   1.725   5.026
    1   AR   Ar  145   4.901   4.145  -0.420
    1   AR   Ar  146   2.715   2.436   2.352
    1   AR   Ar  147   4.636   1.633  -1.711
    1   AR   Ar  148   3.397   5.827  -1.110
    1   AR   Ar  149   2.700   1.901   0.229
    1   AR   Ar  150   2.711   1.338   2.098
    1   AR   Ar  151   2.542   1.955   3.243
    1   AR   Ar  152   2.900   2.571  -0.768
    1   AR   Ar  153   5.028   0.141   3.515
    1   AR   Ar  154   3.923   1.966   4.460
    1   AR   Ar  155   6.573   6.675   6.788
    1   AR   Ar  156   3.448   3.620   3.009
    1   AR   Ar  157   1.511   3.849   6.845
    1   AR   Ar  158   0.344   2.302   6.923
    1   AR   Ar  159   4.747   1.611   7.428
    1   AR   Ar  160   1.737   1.692   5.166
    1   AR   Ar  161   5.372   3.684   2.105
    1   AR   Ar  162   4.965   5.806  -0.626
    1   AR   Ar  163   5.503   3.618   0.306
    1   AR   Ar  164   2.923   5.585   2.123
    1   AR   Ar  165   3.979   2.578   0.827
    1   AR   Ar  166   2.968   3.249   4.655
    1   AR   Ar  167   4.945   0.881   2.776
    1   AR   Ar  168   5.312   3.788  -1.407
    1   AR   Ar  169   2.596   4.089   2.717
    1   AR   Ar  170   2.291   4.211   5.845
    1   AR   Ar  171   6.077   3.869   3.916
    1   AR   Ar  172   4.484   4.273   5.299
    1   AR   Ar  173   3.095   3.606   6.797
    1   AR   Ar  174   2.424   5.957   6.642
    1   AR   Ar  175   2.785   2.302   6.183
    1   AR   Ar  176   3.569   1.860   5.742
    1   AR   Ar  177   6.784   4.912  -1.101
    1   AR   Ar  178   4.080   4.958  -0.378
    1   AR   Ar  179   4.060   5.774   0.185
    1   AR   Ar  180   1.659   1.363  -3.059
    1   AR   Ar  181   0.450   6.118   1.410
    1   AR   Ar  182   2.499   0.092   3.375
    1   AR   Ar  183   4.025   5.031   2.478
    1   AR   Ar  184   5.091   6.482   1.344
    1   AR   Ar  185   2.975   4.909   4.601
    1   AR   Ar  186   2.885   4.412   3.760
    1   AR   Ar  187   3.434   6.525   3.302
    1   AR   Ar  188   2.924   7.113   1.677
    1   AR   Ar  189   3.965   2.648   6.556
    1   AR   Ar  190   3.299   5.667   3.882
    1   AR   Ar  191   3.016   6.757   7.507
    1   AR   Ar  192   3.878   5.887   4.831
    1   AR   Ar  193   2.709   6.055   1.268
    1   AR   Ar  194   4.078   3.767  -0.946
    1   AR   Ar  195   5.679   1.453   0.386
    1   AR   Ar  196   4.272   0.450   0.101
    1   AR   Ar  197   3.747   1.147   0.674
    1   AR   Ar  198   5.843   1.417   1.498
    1   AR   Ar  199   3.492   1.408   2.826
    1   AR   Ar  200   5.924   2.553  -0.132
    1   AR   Ar  201   5.826   6.063   3.959
    1   AR   Ar  202   5.655   1.359   4.616
    1   AR   Ar  203   6.238   6.443   3.002
    1   AR   Ar  204   4.957   6.664   5.104
    1   AR   Ar  205   6.768   0.114   2.186
    1   AR   Ar  206   4.839   0.588   4.784
    1   AR   Ar  207   0.663   1.578   6.060
    1   AR   Ar  208   0.089   7.021   3.403
    1   AR   Ar  209   0.159   2.649  -2.058
    1   AR   Ar  210   2.995   7.117   0.209
    1   AR   Ar  211   6.671   3.167   0.659
    1   AR   Ar  212   6.744   3.954  -1.050
    1   AR   Ar  213   3.843   0.867   2.067
    1   AR   Ar  214   4.502   3.215   2.525
    1   AR   Ar  215   5.530   3.043   1.125
    1   AR   Ar  216   0.405   2.958   1.608
    1   AR   Ar  217   5.427   2.927   4.361
    1   AR   Ar  218   4.264   3.311   4.933
    1   AR   Ar  219   4.615   2.446   3.629
    1   AR   Ar  220   4.183   4.103   1.957
    1   AR   Ar  221   6.463   6.124   5.099
    1   AR   Ar  222   4.881   0.427   6.125
    1   AR   Ar  223   6.770   1.290   6.153
    1   AR   Ar  224   4.819   2.830   5.886
    1   AR   Ar  225   6.131   2.955   2.891
    1   AR   Ar  226   2.127   3.580   3.783
    1   AR   Ar  227   6.431   3.463   1.796
    1   AR   Ar  228   6.066   6.463   1.903
    1   AR   Ar  229   5.459   4.941  -1.395
    1   AR   Ar  230   4.021   4.036   3.801
    1   AR   Ar  231   5.358   1.531   3.552
    1   AR   Ar  232   4.802   2.082   1.426
    1   AR   Ar  233   6.015   2.308   3.800
    1   AR   Ar  234   6.431   2.702   4.702
    1   AR   Ar  235   6.405   1.080   3.550
    1   AR   Ar  236   5.646   5.348   5.742
    1   AR   Ar  237   5.794   3.371   6.027
    1   AR   Ar  238   4.961   4.773   6.570
    1   AR   Ar  239   6.599   4.067   8.765
    1   AR   Ar  240   6.690   3.063   7.066
    1   AR   Ar  241   1.480   6.604  -0.693
    1   AR   Ar  242   5.426   5.158   0.257
    1   AR   Ar  243   4.661   4.305   2.961
    1   AR   Ar  244   0.578   5.542  -0.216
    1   AR   Ar  245   4.583   0.514   1.127
    1   AR   Ar  246   5.318   6.784   0.043
    1   AR   Ar  247   6.033   4.214   1.028
    1   AR   Ar  248   6.088   5.979  -0.370
    1   AR   Ar  249   4.188   5.855   1.555
    1   AR   Ar  250   4.926   5.702   4.429
    1   AR   Ar  251   5.140   4.761   4.004
    1   AR   Ar  252   4.251   5.267   3.539
    1   AR   Ar  253   6.776   4.184   6.625
    1   AR   Ar  254   2.282   2.215   9.402
    1   AR   Ar  255   3.701   4.197   9.420
    1   AR   Ar  256   6.678   4.908   2.972
    7.12000  7.12000 12.00000
Argon-slab step 3435
  256
    1   AR   Ar    1   5.990   2.007  -1.583
    1   AR   Ar    2   6.379   0.656   0.310
    1   AR   Ar    3   2.940   1.239  -0.454
    1   AR   Ar    4   1.606   0.775   0.102
    1   AR   Ar    5   6.901   6.907   1.230
    1   AR   Ar    6   7.091   1.122   2.588
    1   AR   Ar    7   6.126   3.997   2.754
    1   AR   Ar    8   5.677   0.254   1.159
    1   AR   Ar    9   1.288   6.855   3.434
    1   AR   Ar   10   0.694   0.891   3.943
    1   AR   Ar   11   2.141   6.450   4.210
    1   AR   Ar   12   0.621   1.692   3.125
    1   AR   Ar   13   0.220   0.638   5.539
    1   AR   Ar   14   6.382   2.040   7.489
    1   AR   Ar   15   5.049   6.582   8.417
    1   AR   Ar   16   0.986   7.100   4.904
    1   AR   Ar   17   6.510   1.952   0.687
    1   AR   Ar   18   5.975   4.542  -0.555
    1   AR   Ar   19   2.814   3.415   0.920
    1   AR   Ar   20   4.313   5.042  -2.037
    1   AR   Ar   21   3.839   1.721   1.683
    1   AR   Ar   22   6.213   1.806   2.743
    1   AR   Ar   23   0.493   0.886   0.011
    1   AR   Ar   24   6.713   2.353   1.690
    1   AR   Ar   25   0.836   2.197   4.316
    1   AR   Ar   26   5.990   0.199   3.915
    1   AR   Ar   27   1.670   0.851   3.157
    1   AR   Ar   28   0.251   2.937   5.067
    1   AR   Ar   29   5.373   2.871   7.059
    1   AR   Ar   30   2.020   1.298   3.922
    1   AR   Ar   31   3.447   0.587   7.092
    1   AR   Ar   32   1.226   2.882   6.542
    1   AR   Ar   33   1.029   4.413  -0.067
    1   AR   Ar   34   0.461   5.276   2.461
    1   AR   Ar   35   5.864   5.472   1.144
    1   AR   Ar   36   5.965   0.979  -3.718
    1   AR   Ar   37   5.479   2.556   2.075
    1   AR   Ar   38   7.097   4.344   2.226
    1   AR   Ar   39   1.091   3.973   2.487
    1   AR   Ar   40   2.438   3.560   1.819
    1   AR   Ar   41   0.072   2.430   3.633
    1   AR   Ar   42   6.039   4.949   4.591
    1   AR   Ar   43   6.731   2.349   5.852
    1   AR   Ar   44   0.675   4.223   3.370
    1   AR   Ar   45   0.843   3.615   5.561
    1   AR   Ar   46   7.078   5.193   4.846
    1   AR   Ar   47   6.000   4.248   7.265
    1   AR   Ar   48   6.401   5.292   6.442
    1   AR   Ar   49   5.194   0.986  -1.244
    1   AR   Ar   50   4.456   4.701   0.653
    1   AR   Ar   51   6.702   4.916   1.293
    1   AR   Ar   52   6.381   3.995  -2.683
    1   AR   Ar   53   5.381   5.347   2.906
    1   AR   Ar   54   0.679   6.329   2.503
    1   AR   Ar   55   6.654   5.583   2.096
    1   AR   Ar   56   6.974   1.021   1.154
    1   AR   Ar   57   5.118   3.517   3.555
    1   AR   Ar   58   7.031   3.380   3.918
    1   AR   Ar   59   2.183   5.407   5.462
    1   AR   Ar   60   0.027   5.739   3.272
    1   AR   Ar   61   0.090   4.770   5.728
    1   AR   Ar   62   7.116   4.448   4.101
    1   AR   Ar   63   2.152   0.847   6.709
    1   AR   Ar   64   1.209   5.566   4.837
    1   AR   Ar   65   3.697   6.848   1.028
    1   AR   Ar   66   0.891   1.229   1.692
    1   AR   Ar   67   3.710   6.855  -0.550
    1   AR   Ar   68   1.922   2.102  -0.960
    1   AR   Ar   69   2.767   1.020   1.005
    1   AR   Ar   70   0.741   0.389   2.458
    1   AR   Ar   71   3.228   0.578   3.934
    1   AR   Ar   72   4.156   6.814   2.318
    1   AR   Ar   73   3.833   0.377   3.149
    1   AR   Ar   74   1.447   0.820   4.807
    1   AR   Ar   75   3.736   0.780   4.955
    1   AR   Ar   76   1.829   0.521   1.755
    1   AR   Ar   77   1.973   6.930   5.283
    1   AR   Ar   78   0.230   6.303   5.673
    1   AR   Ar   79   3.340   6.040   6.080
    1   AR   Ar   80   3.515   5.050   5.410
    1   AR   Ar   81   2.563   6.019   0.183
    1   AR   Ar   82   6.615   5.281   0.234
    1   AR   Ar   83   0.455   2.236   0.542
    1   AR   Ar   84   0.197   4.040   1.206
    1   AR   Ar   85   1.273   3.586   1.425
    1   AR   Ar   86   1.682   5.032   0.525
    1   AR   Ar   87   1.674   2.356   0.960
    1   AR   Ar   88   2.146   4.656   1.558
    1   AR   Ar   89   6.999   3.519   2.799
    1   AR   Ar   90   2.437   2.361   4.411
    1   AR   Ar   91   1.398   2.552   3.466
    1   AR   Ar   92   1.299   2.507   1.963
    1   AR   Ar   93   1.236   0.576   6.053
    1   AR   Ar   94   0.271   0.244  11.471
    1   AR   Ar   95   3.860   0.774   6.016
    1   AR   Ar   96   3.045   0.067   4.883
    1   AR   Ar   97   4.791   1.732  -0.124
    1   AR   Ar   98   1.711   4.813   2.569
    1   AR   Ar   99   6.485   1.476  -0.255
    1   AR   Ar  100   1.293   2.994  -0.550
    1   AR   Ar  101   3.444   4.992   1.368
    1   AR   Ar  102   3.653   2.476   3.286
    1   AR   Ar  103   0.796   4.939   1.189
    1   AR   Ar  104   3.128   4.061  -1.709
    1   AR   Ar  105   1.014   3.255   4.232
    1   AR   Ar  106   3.422   3.075   5.673
    1   AR   Ar  107   0.837   4.455   4.973
    1   AR   Ar  108   2.881   1.497   4.961
    1   AR   Ar  109   1.837   4.470   4.742
    1   AR   Ar  110   2.341   2.919   5.563
    1   AR   Ar  111   4.588   4.916   7.746
    1   AR   Ar  112   1.394   6.233   6.064
    1   AR   Ar  113   3.264   4.936   0.359
    1   AR   Ar  114   2.696   0.098  -1.048
    1   AR   Ar  115   2.341   5.057  -1.023
    1   AR   Ar  116   5.980   0.592  -0.680
    1   AR   Ar  117   0.739   5.226   3.939
    1   AR   Ar  118   1.293   5.754   3.143
    1   AR   Ar  119   1.898   3.182   2.789
    1   AR   Ar  120   1.804   6.553   2.069
    1   AR   Ar  121   5.725   3.812   4.934
    1   AR   Ar  122   2.854   6.154   5.179
    1   AR   Ar  123   3.421   4.030   4.967
    1   AR   Ar  124   1.342   5.514   1.951
    1   AR   Ar  125   6.985   3.971   5.049
    1   AR   Ar  126   6.915   0.094   4.517
    1   AR   Ar  127   4.263   3.812   6.598
    1   AR   Ar  128   3.212   4.866   6.763
    1   AR   Ar  129   2.537   6.055   3.104
    1   AR   Ar  130   4.305   2.605  -2.555
    1   AR   Ar  131   3.741   2.062  -0.299
    1   AR   Ar  132   7.116   2.501  -0.328
    1   AR   Ar  133   4.481   6.357   3.234
    1   AR   Ar  134   4.186   0.995   3.915
    1   AR   Ar  135   5.987   0.925   2.324
    1   AR   Ar  136   5.509   7.020   2.528
    1   AR   Ar  137   1.956   5.108   3.837
    1   AR   Ar  138   4.694   1.404   5.671
    1   AR   Ar  139   5.682   2.399   5.330
    1   AR   Ar  140   4.039   6.882   4.042
    1   AR   Ar  141   4.062   4.845   4.499
    1   AR   Ar  142   2.906   0.108   6.193
    1   AR   Ar  143   6.509   0.057   5.829
    1   AR   Ar  144   6.673   1.741   5.022
    1   AR   Ar  145   4.914   4.141  -0.449
    1   AR   Ar  146   2.694   2.462   2.382
    1   AR   Ar  147   4.636   1.639  -1.700
    1   AR   Ar  148   3.391   5.799  -1.079
    1   AR   Ar  149   2.687   1.929   0.209
    1   AR   Ar  150   2.694   1.327   2.117
    1   AR   Ar  151   2.544   1.926   3.210
    1   AR   Ar  152   2.914   2.563  -0.783
    1   AR   Ar  153   5.069   0.155   3.515
    1   AR   Ar  154   3.898   1.942   4.472
    1   AR   Ar  155   6.564   6.641   6.779
    1   AR   Ar  156   3.446   3.609   3.020
    1   AR   Ar  157   1.535   3.862   6.819
    1   AR   Ar  158   0.350   2.288   6.914
    1   AR   Ar  159   4.733   1.630   7.438
    1   AR   Ar  160   1.739   1.686   5.163
    1   AR   Ar  161   5.400   3.695   2.094
    1   AR   Ar  162   4.940   5.815  -0.638
    1   AR   Ar  163   5.529   3.585   0.317
    1   AR   Ar  164   2.926   5.535   2.158
    1   AR   Ar  165   4.017   2.575   0.819
    1   AR   Ar  166   2.998   3.227   4.670
    1   AR   Ar  167   4.959   0.853   2.763
    1   AR   Ar  168   5.320   3.788  -1.435
    1   AR   Ar  169   2.604   4.123   2.691
    1   AR   Ar  170   2.272   4.248   5.896
    1   AR   Ar  171   6.062   3.873   3.937
    1   AR   Ar  172   4.466   4.287   5.322
    1   AR   Ar  173   3.137   3.601   6.820
    1   AR   Ar  174   2.440   5.967   6.644
    1   AR   Ar  175   2.809   2.264   6.218
    1   AR   Ar  176   3.594   1.875   5.733
    1   AR   Ar  177   6.761   4.884  -1.082
    1   AR   Ar  178   4.080   4.931  -0.382
    1   AR   Ar  179   4.055   5.772   0.180
    1   AR   Ar  180   1.683   1.387  -3.054
    1   AR   Ar  181   0.423   6.117   1.409
    1   AR   Ar  182   2.505   0.083   3.340
    1   AR   Ar  183   4.007   5.015   2.472
    1   AR   Ar  184   5.075   6.499   1.329
    1   AR   Ar  185   2.964   4.892   4.603
    1   AR   Ar  186   2.893   4.418   3.741
    1   AR   Ar  187   3.438   6.536   3.299
    1   AR   Ar  188   2.940   7.090   1.673
    1   AR   Ar  189   3.975   2.634   6.567
    1   AR   Ar  190   3.299   5.660   3.922
    1   AR   Ar  191   2.997   6.753   7.542
    1   AR   Ar  192   3.879   5.886   4.830
    1   AR   Ar  193   2.733   6.031   1.273
    1   AR   Ar  194   4.058   3.760  -0.940
    1   AR   Ar  195   5.689   1.455   0.377
    1   AR   Ar  196   4.273   0.452   0.092
    1   AR   Ar  197   3.724   1.187   0.658
    1   AR   Ar  198   5.884   1.411   1.500
    1   AR   Ar  199   3.479   1.419   2.840
    1   AR   Ar  200   5.919   2.586  -0.122
    1   AR   Ar  201   5.835   6.097   3.952
    1   AR   Ar  202   5.662   1.339   4.662
    1   AR   Ar  203   6.285   6.420   3.023
    1   AR   Ar  204   4.944   6.681   5.097
    1   AR   Ar  205   6.780   0.077   2.177
    1   AR   Ar  206   4.827   0.578   4.803
    1   AR   Ar  207   0.643   1.538   6.053
    1   AR   Ar  208   0.115   7.012   3.422
    1   AR   Ar  209   0.174   2.656  -2.035
    1   AR   Ar  210   3.024   0.009   0.218
    1   AR   Ar  211   6.679   3.168   0.678
    1   AR   Ar  212   6.743   3.942  -1.047
    1   AR   Ar  213   3.813   0.853   2.114
    1   AR   Ar  214   4.502   3.244   2.517
    1   AR   Ar  215   5.514   3.057   1.111
    1   AR   Ar  216   0.382   2.949   1.618
    1   AR   Ar  217   5.412   2.918   4.359
    1   AR   Ar  218   4.249   3.305   4.915
    1   AR   Ar  219   4.601   2.479   3.654
    1   AR   Ar  220   4.163   4.093   1.923
    1   AR   Ar  221   6.505   6.136   5.073
    1   AR   Ar  222   4.871   0.437   6.124
    1   AR   Ar  223   6.743   1.299   6.167
    1   AR   Ar  224   4.825   2.830   5.882
    1   AR   Ar  225   6.075   2.932   2.912
    1   AR   Ar  226   2.107   3.568   3.790
    1   AR   Ar  227   6.423   3.489   1.782
    1   AR   Ar  228   6.087   6.489   1.902
    1   AR   Ar  229   5.490   4.943  -1.381
    1   AR   Ar  230   3.953   4.018   3.801
    1   AR   Ar  231   5.388   1.529   3.566
    1   AR   Ar  232   4.830   2.053   1.438
    1   AR   Ar  233   6.046   2.338   3.797
    1   AR   Ar  234   6.441   2.691   4.691
    1   AR   Ar  235   6.426   1.069   3.540
    1   AR   Ar  236   5.658   5.355   5.748
    1   AR   Ar  237   5.801   3.348   6.018
    1   AR   Ar  238   4.977   4.784   6.558
    1   AR   Ar  239   6.622   4.071   8.777
    1   AR   Ar  240   6.741   3.065   7.085
    1   AR   Ar  241   1.472   6.593  -0.662
    1   AR   Ar  242   5.392   5.134   0.282
    1   AR   Ar  243   4.641   4.323   2.970
    1   AR   Ar  244   0.581   5.544  -0.217
    1   AR   Ar  245   4.551   0.509   1.118
    1   AR   Ar  246   5.295   6.795   0.033
    1   AR   Ar  247   6.049   4.210   1.055
    1   AR   Ar  248   6.111   5.972  -0.341
    1   AR   Ar  249   4.202   5.819   1.536
    1   AR   Ar  250   4.937   5.702   4.427
    1   AR   Ar  251   5.121   4.731   4.027
    1   AR   Ar  252   4.265   5.263   3.512
    1   AR   Ar  253   6.776   4.209   6.639
    1   AR   Ar  254   2.247   2.221   9.411
    1   AR   Ar  255   3.691   4.233   9.437
    1   AR   Ar  256   6.663   4.898   2.953
    7.12000  7.12000 12.00000
Argon-slab step 3440
  256
    1   AR   Ar    1   5.991   2.060  -1.617
    1   AR   Ar    2   6.378   0.613   0.330
    1   AR   Ar    3   2.962   1.253  -0.463
    1   AR   Ar    4   1.616   0.777   0.121
    1   AR   Ar    5   6.884   6.913   1.196
    1   AR   Ar    6   7.114   1.104   2.596
    1   AR   Ar    7   6.071   4.006   2.738
    1   AR   Ar    8   5.671   0.258   1.160
    1   AR   Ar    9   1.266   6.832   3.423
    1   AR   Ar   10   0.678   0.885   3.948
    1   AR   Ar   11   2.140   6.460   4.233
    1   AR   Ar   12   0.621   1.727   3.152
    1   AR   Ar   13   0.210   0.634   5.535
    1   AR   Ar   14   6.373   2.035   7.491
    1   AR   Ar   15   5.050   6.592   8.382
    1   AR   Ar   16   0.983   7.092   4.931
    1   AR   Ar   17   6.559   1.945   0.706
    1   AR   Ar   18   5.976   4.605  -0.540
    1   AR   Ar   19   2.811   3.430   0.905
    1   AR   Ar   20   4.311   5.084  -2.030
    1   AR   Ar   21   3.832   1.713   1.653
    1   AR   Ar   22   6.230   1.772   2.759
    1   AR   Ar   23   0.487   0.891   0.012
    1   AR   Ar   24   6.658   2.348   1.694
    1   AR   Ar   25   0.827   2.192   4.357
    1   AR   Ar   26   6.003   0.223   3.912
    1   AR   Ar   27   1.656   0.861   3.125
    1   AR   Ar   28   0.235   2.928   5.079
    1   AR   Ar   29   5.355   2.883   7.048
    1   AR   Ar   30   2.060   1.284   3.916
    1   AR   Ar   31   3.433   0.582   7.075
    1   AR   Ar   32   1.211   2.904   6.571
    1   AR   Ar   33   1.009   4.397  -0.017
    1   AR   Ar   34   0.456   5.293   2.456
    1   AR   Ar   35   5.844   5.482   1.165
    1   AR   Ar   36   5.960   0.974  -3.702
    1   AR   Ar   37   5.505   2.575   2.082
    1   AR   Ar   38   7.076   4.300   2.262
    1   AR   Ar   39   1.086   3.964   2.526
    1   AR   Ar   40   2.431   3.548   1.827
    1   AR   Ar   41   0.066   2.408   3.628
    1   AR   Ar   42   6.024   4.954   4.608
    1   AR   Ar   43   6.749   2.337   5.835
    1   AR   Ar   44   0.670   4.230   3.356
    1   AR   Ar   45   0.853   3.631   5.550
    1   AR   Ar   46   7.050   5.151   4.814
    1   AR   Ar   47   6.029   4.246   7.245
    1   AR   Ar   48   6.377   5.268   6.435
    1   AR   Ar   49   5.211   0.970  -1.214
    1   AR   Ar   50   4.469   4.683   0.646
    1   AR   Ar   51   6.703   4.914   1.291
    1   AR   Ar   52   6.386   3.937  -2.703
    1   AR   Ar   53   5.370   5.332   2.912
    1   AR   Ar   54   0.656   6.326   2.503
    1   AR   Ar   55   6.664   5.591   2.068
    1   AR   Ar   56   6.952   1.012   1.174
    1   AR   Ar   57   5.100   3.521   3.552
    1   AR   Ar   58   7.024   3.361   3.931
    1   AR   Ar   59   2.164   5.390   5.479
    1   AR   Ar   60   0.013   5.733   3.214
    1   AR   Ar   61   0.088   4.758   5.729
    1   AR   Ar   62   7.119   4.411   4.078
    1   AR   Ar   63   2.138   0.892   6.744
    1   AR   Ar   64   1.241   5.542   4.862
    1   AR   Ar   65   3.691   6.864   1.006
    1   AR   Ar   66   0.885   1.242   1.693
    1   AR   Ar   67   3.698   6.840  -0.557
    1   AR   Ar   68   1.930   2.089  -0.972
    1   AR   Ar   69   2.733   1.036   0.965
    1   AR   Ar   70   0.728   0.393   2.437
    1   AR   Ar   71   3.191   0.569   3.905
    1   AR   Ar   72   4.133   6.833   2.358
    1   AR   Ar   73   3.810   0.425   3.156
    1   AR   Ar   74   1.477   0.811   4.818
    1   AR   Ar   75   3.704   0.772   4.963
    1   AR   Ar   76   1.791   0.530   1.775
    1   AR   Ar   77   1.950   6.935   5.275
    1   AR   Ar   78   0.218   6.302   5.664
    1   AR   Ar   79   3.337   6.029   6.065
    1   AR   Ar   80   3.485   5.036   5.410
    1   AR   Ar   81   2.568   6.018   0.228
    1   AR   Ar   82   6.603   5.254   0.252
    1   AR   Ar   83   0.455   2.230   0.545
    1   AR   Ar   84   0.194   4.033   1.218
    1   AR   Ar   85   1.307   3.564   1.410
    1   AR   Ar   86   1.689   5.036   0.573
    1   AR   Ar   87   1.701   2.357   0.950
    1   AR   Ar   88   2.141   4.652   1.556
    1   AR   Ar   89   7.024   3.481   2.833
    1   AR   Ar   90   2.455   2.336   4.431
    1   AR   Ar   91   1.409   2.576   3.454
    1   AR   Ar   92   1.306   2.490   1.980
    1   AR   Ar   93   1.246   0.569   6.051
    1   AR   Ar   94   0.268   0.263  11.477
    1   AR   Ar   95   3.879   0.765   6.032
    1   AR   Ar   96   3.028   0.083   4.864
    1   AR   Ar   97   4.756   1.744  -0.145
    1   AR   Ar   98   1.734   4.779   2.575
    1   AR   Ar   99   6.528   1.474  -0.252
    1   AR   Ar  100   1.273   2.983  -0.531
    1   AR   Ar  101   3.463   4.975   1.393
    1   AR   Ar  102   3.643   2.466   3.261
    1   AR   Ar  103   0.802   4.937   1.224
    1   AR   Ar  104   3.109   4.055  -1.735
    1   AR   Ar  105   1.004   3.254   4.209
    1   AR   Ar  106   3.412   3.094   5.675
    1   AR   Ar  107   0.836   4.461   4.968
    1   AR   Ar  108   2.835   1.478   4.958
    1   AR   Ar  109   1.853   4.464   4.742
    1   AR   Ar  110   2.338   2.919   5.544
    1   AR   Ar  111   4.584   4.932   7.773
    1   AR   Ar  112   1.391   6.209   6.075
    1   AR   Ar  113   3.271   4.912   0.362
    1   AR   Ar  114   2.721   0.088  -1.034
    1   AR   Ar  115   2.338   5.027  -1.009
    1   AR   Ar  116   6.002   0.592  -0.682
    1   AR   Ar  117   0.728   5.245   3.927
    1   AR   Ar  118   1.280   5.746   3.136
    1   AR   Ar  119   1.865   3.220   2.813
    1   AR   Ar  120   1.803   6.561   2.042
    1   AR   Ar  121   5.712   3.780   4.885
    1   AR   Ar  122   2.864   6.142   5.197
    1   AR   Ar  123   3.393   4.062   4.963
    1   AR   Ar  124   1.322   5.500   1.966
    1   AR   Ar  125   6.990   3.944   5.070
    1   AR   Ar  126   6.942   0.075   4.520
    1   AR   Ar  127   4.252   3.770   6.617
    1   AR   Ar  128   3.231   4.869   6.750
    1   AR   Ar  129   2.547   6.037   3.100
    1   AR   Ar  130   4.322   2.606  -2.549
    1   AR   Ar  131   3.741   2.078  -0.310
    1   AR   Ar  132   7.118   2.484  -0.305
    1   AR   Ar  133   4.477   6.362   3.264
    1   AR   Ar  134   4.209   0.979   3.955
    1   AR   Ar  135   5.987   0.915   2.314
    1   AR   Ar  136   5.478   7.017   2.527
    1   AR   Ar  137   1.958   5.079   3.886
    1   AR   Ar  138   4.705   1.403   5.673
    1   AR   Ar  139   5.721   2.392   5.335
    1   AR   Ar  140   4.067   6.859   4.019
    1   AR   Ar  141   4.058   4.868   4.519
    1   AR   Ar  142   2.883   0.100   6.212
    1   AR   Ar  143   6.518   0.054   5.830
    1   AR   Ar  144   6.670   1.737   5.031
    1   AR   Ar  145   4.930   4.140  -0.476
    1   AR   Ar  146   2.675   2.493   2.405
    1   AR   Ar  147   4.627   1.657  -1.695
    1   AR   Ar  148   3.386   5.770  -1.046
    1   AR   Ar  149   2.676   1.935   0.217
    1   AR   Ar  150   2.672   1.316   2.139
    1   AR   Ar  151   2.545   1.893   3.185
    1   AR   Ar  152   2.897   2.558  -0.814
    1   AR   Ar  153   5.101   0.165   3.518
    1   AR   Ar  154   3.872   1.917   4.485
    1   AR   Ar  155   6.555   6.605   6.769
    1   AR   Ar  156   3.446   3.594   3.026
    1   AR   Ar  157   1.561   3.877   6.793
    1   AR   Ar  158   0.355   2.272   6.903
    1   AR   Ar  159   4.718   1.649   7.447
    1   AR   Ar  160   1.746   1.693   5.164
    1   AR   Ar  161   5.423   3.705   2.080
    1   AR   Ar  162   4.915   5.823  -0.649
    1   AR   Ar  163   5.557   3.564   0.310
    1   AR   Ar  164   2.929   5.482   2.199
    1   AR   Ar  165   4.055   2.570   0.811
    1   AR   Ar  166   3.021   3.191   4.677
    1   AR   Ar  167   4.971   0.829   2.746
    1   AR   Ar  168   5.310   3.767  -1.440
    1   AR   Ar  169   2.608   4.162   2.667
    1   AR   Ar  170   2.253   4.286   5.947
    1   AR   Ar  171   6.049   3.880   3.955
    1   AR   Ar  172   4.449   4.302   5.346
    1   AR   Ar  173   3.179   3.595   6.841
    1   AR   Ar  174   2.454   5.977   6.645
    1   AR   Ar  175   2.830   2.227   6.259
    1   AR   Ar  176   3.627   1.887   5.718
    1   AR   Ar  177   6.750   4.882  -1.066
    1   AR   Ar  178   4.081   4.898  -0.391
    1   AR   Ar  179   4.051   5.776   0.179
    1   AR   Ar  180   1.707   1.410  -3.048
    1   AR   Ar  181   0.399   6.110   1.411
    1   AR   Ar  182   2.509   0.072   3.304
    1   AR   Ar  183   3.985   5.002   2.464
    1   AR   Ar  184   5.058   6.515   1.315
    1   AR   Ar  185   2.943   4.882   4.605
    1   AR   Ar  186   2.900   4.418   3.712
    1   AR   Ar  187   3.438   6.545   3.292
    1   AR   Ar  188   2.952   7.070   1.673
    1   AR   Ar  189   3.984   2.621   6.577
    1   AR   Ar  190   3.298   5.652   3.961
    1   AR   Ar  191   2.979   6.750   7.575
    1   AR   Ar  192   3.882   5.888   4.828
    1   AR   Ar  193   2.757   6.009   1.275
    1   AR   Ar  194   4.036   3.754  -0.935
    1   AR   Ar  195   5.681   1.475   0.399
    1   AR   Ar  196   4.275   0.453   0.080
    1   AR   Ar  197   3.705   1.230   0.642
    1   AR   Ar  198   5.925   1.414   1.486
    1   AR   Ar  199   3.463   1.438   2.865
    1   AR   Ar  200   5.914   2.618  -0.109
    1   AR   Ar  201   5.845   6.132   3.946
    1   AR   Ar  202   5.669   1.319   4.707
    1   AR   Ar  203   6.334   6.397   3.042
    1   AR   Ar  204   4.932   6.695   5.090
    1   AR   Ar  205   6.745   0.097   2.179
    1   AR   Ar  206   4.814   0.571   4.821
    1   AR   Ar  207   0.627   1.499   6.046
    1   AR   Ar  208   0.141   7.003   3.440
    1   AR   Ar  209   0.184   2.667  -1.993
    1   AR   Ar  210   3.050   0.023   0.228
    1   AR   Ar  211   6.685   3.168   0.698
    1   AR   Ar  212   6.741   3.904  -1.044
    1   AR   Ar  213   3.787   0.816   2.157
    1   AR   Ar  214   4.503   3.271   2.511
    1   AR   Ar  215   5.500   3.059   1.115
    1   AR   Ar  216   0.365   2.948   1.626
    1   AR   Ar  217   5.393   2.911   4.362
    1   AR   Ar  218   4.234   3.297   4.895
    1   AR   Ar  219   4.594   2.513   3.682
    1   AR   Ar  220   4.144   4.084   1.888
    1   AR   Ar  221   6.543   6.147   5.045
    1   AR   Ar  222   4.863   0.444   6.122
    1   AR   Ar  223   6.712   1.307   6.182
    1   AR   Ar  224   4.831   2.831   5.878
    1   AR   Ar  225   6.018   2.910   2.932
    1   AR   Ar  226   2.088   3.557   3.799
    1   AR   Ar  227   6.417   3.513   1.769
    1   AR   Ar  228   6.107   6.508   1.892
    1   AR   Ar  229   5.515   4.914  -1.373
    1   AR   Ar  230   3.890   4.003   3.807
    1   AR   Ar  231   5.417   1.525   3.580
    1   AR   Ar  232   4.859   2.022   1.447
    1   AR   Ar  233   6.081   2.364   3.790
    1   AR   Ar  234   6.445   2.694   4.690
    1   AR   Ar  235   6.450   1.062   3.528
    1   AR   Ar  236   5.665   5.362   5.748
    1   AR   Ar  237   5.810   3.325   6.009
    1   AR   Ar  238   4.994   4.795   6.546
    1   AR   Ar  239   6.645   4.074   8.790
    1   AR   Ar  240   6.790   3.068   7.103
    1   AR   Ar  241   1.464   6.581  -0.630
    1   AR   Ar  242   5.358   5.108   0.301
    1   AR   Ar  243   4.637   4.334   2.977
    1   AR   Ar  244   0.570   5.524  -0.228
    1   AR   Ar  245   4.519   0.502   1.112
    1   AR   Ar  246   5.271   6.806   0.024
    1   AR   Ar  247   6.058   4.199   1.079
    1   AR   Ar  248   6.103   5.976  -0.343
    1   AR   Ar  249   4.221   5.797   1.521
    1   AR   Ar  250   4.946   5.703   4.427
    1   AR   Ar  251   5.100   4.697   4.048
    1   AR   Ar  252   4.280   5.260   3.486
    1   AR   Ar  253   6.771   4.208   6.647
    1   AR   Ar  254   2.213   2.227   9.420
    1   AR   Ar  255   3.681   4.268   9.454
    1   AR   Ar  256   6.642   4.889   2.940
    7.12000  7.12000 12.00000
Argon-slab step 3445
  256
    1   AR   Ar    1   5.992   2.113  -1.650
    1   AR   Ar    2   6.378   0.567   0.355
    1   AR   Ar    3   2.987   1.261  -0.477
    1   AR   Ar    4   1.621   0.782   0.098
    1   AR   Ar    5   6.864   6.923   1.157
    1   AR   Ar    6   7.118   1.066   2.592
    1   AR   Ar    7   6.023   4.018   2.733
    1   AR   Ar    8   5.666   0.264   1.162
    1   AR   Ar    9   1.246   6.811   3.411
    1   AR   Ar   10   0.662   0.878   3.953
    1   AR   Ar   11   2.139   6.469   4.255
    1   AR   Ar   12   0.630   1.757   3.176
    1   AR   Ar   13   0.204   0.631   5.529
    1   AR   Ar   14   6.363   2.031   7.494
    1   AR   Ar   15   5.051   6.602   8.346
    1   AR   Ar   16   0.967   7.074   4.958
    1   AR   Ar   17   6.608   1.941   0.726
    1   AR   Ar   18   5.969   4.661  -0.509
    1   AR   Ar   19   2.810   3.443   0.882
    1   AR   Ar   20   4.309   5.127  -2.023
    1   AR   Ar   21   3.822   1.709   1.621
    1   AR   Ar   22   6.248   1.751   2.778
    1   AR   Ar   23   0.468   0.901   0.015
    1   AR   Ar   24   6.597   2.341   1.700
    1   AR   Ar   25   0.820   2.186   4.399
    1   AR   Ar   26   6.026   0.225   3.906
    1   AR   Ar   27   1.636   0.864   3.081
    1   AR   Ar   28   0.224   2.916   5.089
    1   AR   Ar   29   5.336   2.895   7.035
    1   AR   Ar   30   2.051   1.273   3.942
    1   AR   Ar   31   3.418   0.576   7.056
    1   AR   Ar   32   1.213   2.911   6.588
    1   AR   Ar   33   0.989   4.381   0.034
    1   AR   Ar   34   0.455   5.298   2.445
    1   AR   Ar   35   5.823   5.496   1.188
    1   AR   Ar   36   5.955   0.970  -3.687
    1   AR   Ar   37   5.506   2.563   2.106
    1   AR   Ar   38   7.059   4.258   2.287
    1   AR   Ar   39   1.084   3.948   2.549
    1   AR   Ar   40   2.419   3.534   1.842
    1   AR   Ar   41   0.055   2.387   3.624
    1   AR   Ar   42   6.008   4.959   4.625
    1   AR   Ar   43   6.768   2.333   5.825
    1   AR   Ar   44   0.662   4.240   3.350
    1   AR   Ar   45   0.865   3.644   5.545
    1   AR   Ar   46   7.031   5.114   4.791
    1   AR   Ar   47   6.042   4.244   7.238
    1   AR   Ar   48   6.360   5.243   6.435
    1   AR   Ar   49   5.228   0.953  -1.182
    1   AR   Ar   50   4.478   4.665   0.640
    1   AR   Ar   51   6.716   4.916   1.290
    1   AR   Ar   52   6.391   3.879  -2.723
    1   AR   Ar   53   5.359   5.317   2.919
    1   AR   Ar   54   0.632   6.328   2.502
    1   AR   Ar   55   6.663   5.609   2.045
    1   AR   Ar   56   6.930   1.003   1.195
    1   AR   Ar   57   5.080   3.525   3.546
    1   AR   Ar   58   7.006   3.374   3.932
    1   AR   Ar   59   2.143   5.371   5.496
    1   AR   Ar   60   0.000   5.737   3.168
    1   AR   Ar   61   0.087   4.745   5.739
    1   AR   Ar   62   7.115   4.375   4.058
    1   AR   Ar   63   2.104   0.899   6.728
    1   AR   Ar   64   1.274   5.517   4.886
    1   AR   Ar   65   3.694   6.878   0.981
    1   AR   Ar   66   0.877   1.255   1.695
    1   AR   Ar   67   3.687   6.822  -0.566
    1   AR   Ar   68   1.936   2.076  -0.984
    1   AR   Ar   69   2.695   1.050   0.927
    1   AR   Ar   70   0.719   0.392   2.417
    1   AR   Ar   71   3.150   0.565   3.888
    1   AR   Ar   72   4.109   6.854   2.396
    1   AR   Ar   73   3.795   0.469   3.153
    1   AR   Ar   74   1.510   0.803   4.823
    1   AR   Ar   75   3.683   0.776   4.969
    1   AR   Ar   76   1.752   0.540   1.796
    1   AR   Ar   77   1.931   6.939   5.269
    1   AR   Ar   78   0.211   6.303   5.659
    1   AR   Ar   79   3.341   6.034   6.073
    1   AR   Ar   80   3.460   5.026   5.423
    1   AR   Ar   81   2.574   6.017   0.271
    1   AR   Ar   82   6.590   5.224   0.272
    1   AR   Ar   83   0.461   2.222   0.558
    1   AR   Ar   84   0.191   4.022   1.230
    1   AR   Ar   85   1.340   3.542   1.397
    1   AR   Ar   86   1.698   5.040   0.622
    1   AR   Ar   87   1.728   2.359   0.940
    1   AR   Ar   88   2.136   4.648   1.555
    1   AR   Ar   89   7.050   3.434   2.873
    1   AR   Ar   90   2.470   2.309   4.449
    1   AR   Ar   91   1.417   2.610   3.428
    1   AR   Ar   92   1.324   2.468   2.007
    1   AR   Ar   93   1.257   0.562   6.046
    1   AR   Ar   94   0.265   0.282  11.483
    1   AR   Ar   95   3.893   0.757   6.048
    1   AR   Ar   96   2.999   0.086   4.844
    1   AR   Ar   97   4.721   1.755  -0.165
    1   AR   Ar   98   1.760   4.746   2.585
    1   AR   Ar   99   6.574   1.476  -0.254
    1   AR   Ar  100   1.252   2.971  -0.512
    1   AR   Ar  101   3.484   4.957   1.421
    1   AR   Ar  102   3.628   2.457   3.234
    1   AR   Ar  103   0.806   4.935   1.258
    1   AR   Ar  104   3.091   4.049  -1.761
    1   AR   Ar  105   0.993   3.257   4.187
    1   AR   Ar  106   3.404   3.113   5.680
    1   AR   Ar  107   0.832   4.473   4.957
    1   AR   Ar  108   2.791   1.458   4.954
    1   AR   Ar  109   1.874   4.458   4.743
    1   AR   Ar  110   2.335   2.919   5.523
    1   AR   Ar  111   4.581   4.926   7.769
    1   AR   Ar  112   1.393   6.204   6.073
    1   AR   Ar  113   3.278   4.890   0.363
    1   AR   Ar  114   2.747   0.078  -1.017
    1   AR   Ar  115   2.336   4.997  -0.995
    1   AR   Ar  116   6.028   0.590  -0.681
    1   AR   Ar  117   0.717   5.262   3.915
    1   AR   Ar  118   1.269   5.736   3.128
    1   AR   Ar  119   1.837   3.262   2.829
    1   AR   Ar  120   1.802   6.567   2.015
    1   AR   Ar  121   5.696   3.748   4.847
    1   AR   Ar  122   2.870   6.133   5.204
    1   AR   Ar  123   3.378   4.057   4.962
    1   AR   Ar  124   1.306   5.492   1.977
    1   AR   Ar  125   6.993   3.917   5.088
    1   AR   Ar  126   6.970   0.055   4.523
    1   AR   Ar  127   4.243   3.727   6.633
    1   AR   Ar  128   3.249   4.872   6.736
    1   AR   Ar  129   2.552   6.018   3.096
    1   AR   Ar  130   4.339   2.607  -2.542
    1   AR   Ar  131   3.740   2.093  -0.320
    1   AR   Ar  132   7.115   2.462  -0.275
    1   AR   Ar  133   4.488   6.390   3.256
    1   AR   Ar  134   4.235   0.964   3.996
    1   AR   Ar  135   5.987   0.887   2.314
    1   AR   Ar  136   5.445   7.016   2.528
    1   AR   Ar  137   1.960   5.053   3.932
    1   AR   Ar  138   4.716   1.404   5.672
    1   AR   Ar  139   5.756   2.382   5.344
    1   AR   Ar  140   4.095   6.844   4.011
    1   AR   Ar  141   4.054   4.891   4.535
    1   AR   Ar  142   2.860   0.090   6.230
    1   AR   Ar  143   6.521   0.045   5.791
    1   AR   Ar  144   6.667   1.725   5.034
    1   AR   Ar  145   4.948   4.142  -0.501
    1   AR   Ar  146   2.682   2.513   2.421
    1   AR   Ar  147   4.616   1.681  -1.694
    1   AR   Ar  148   3.390   5.762  -1.047
    1   AR   Ar  149   2.662   1.947   0.231
    1   AR   Ar  150   2.650   1.305   2.159
    1   AR   Ar  151   2.543   1.855   3.167
    1   AR   Ar  152   2.880   2.554  -0.845
    1   AR   Ar  153   5.121   0.172   3.521
    1   AR   Ar  154   3.846   1.893   4.498
    1   AR   Ar  155   6.546   6.568   6.759
    1   AR   Ar  156   3.442   3.572   3.024
    1   AR   Ar  157   1.563   3.876   6.755
    1   AR   Ar  158   0.360   2.253   6.890
    1   AR   Ar  159   4.704   1.669   7.455
    1   AR   Ar  160   1.756   1.711   5.168
    1   AR   Ar  161   5.433   3.710   2.055
    1   AR   Ar  162   4.891   5.830  -0.657
    1   AR   Ar  163   5.586   3.557   0.285
    1   AR   Ar  164   2.932   5.428   2.242
    1   AR   Ar  165   4.093   2.563   0.802
    1   AR   Ar  166   3.040   3.147   4.679
    1   AR   Ar  167   4.957   0.828   2.717
    1   AR   Ar  168   5.333   3.774  -1.425
    1   AR   Ar  169   2.611   4.202   2.645
    1   AR   Ar  170   2.235   4.324   5.996
    1   AR   Ar  171   6.041   3.888   3.962
    1   AR   Ar  172   4.432   4.316   5.372
    1   AR   Ar  173   3.221   3.589   6.860
    1   AR   Ar  174   2.466   5.988   6.647
    1   AR   Ar  175   2.847   2.192   6.304
    1   AR   Ar  176   3.666   1.897   5.699
    1   AR   Ar  177   6.776   4.893  -1.049
    1   AR   Ar  178   4.084   4.863  -0.404
    1   AR   Ar  179   4.066   5.782   0.173
    1   AR   Ar  180   1.731   1.434  -3.042
    1   AR   Ar  181   0.376   6.098   1.415
    1   AR   Ar  182   2.509   0.058   3.265
    1   AR   Ar  183   3.961   4.992   2.453
    1   AR   Ar  184   5.040   6.530   1.301
    1   AR   Ar  185   2.909   4.881   4.604
    1   AR   Ar  186   2.915   4.422   3.696
    1   AR   Ar  187   3.434   6.554   3.280
    1   AR   Ar  188   2.958   7.053   1.678
    1   AR   Ar  189   3.992   2.609   6.586
    1   AR   Ar  190   3.297   5.645   3.998
    1   AR   Ar  191   2.960   6.746   7.607
    1   AR   Ar  192   3.887   5.892   4.827
    1   AR   Ar  193   2.782   5.988   1.278
    1   AR   Ar  194   4.013   3.748  -0.931
    1   AR   Ar  195   5.715   1.524   0.403
    1   AR   Ar  196   4.276   0.454   0.066
    1   AR   Ar  197   3.690   1.274   0.623
    1   AR   Ar  198   5.964   1.427   1.458
    1   AR   Ar  199   3.447   1.463   2.897
    1   AR   Ar  200   5.912   2.647  -0.095
    1   AR   Ar  201   5.855   6.166   3.942
    1   AR   Ar  202   5.676   1.300   4.751
    1   AR   Ar  203   6.382   6.378   3.057
    1   AR   Ar  204   4.920   6.693   5.098
    1   AR   Ar  205   6.717   0.126   2.189
    1   AR   Ar  206   4.808   0.566   4.839
    1   AR   Ar  207   0.612   1.464   6.039
    1   AR   Ar  208   0.167   6.994   3.456
    1   AR   Ar  209   0.193   2.677  -1.951
    1   AR   Ar  210   3.072   0.039   0.237
    1   AR   Ar  211   6.691   3.167   0.720
    1   AR   Ar  212   6.738   3.852  -1.040
    1   AR   Ar  213   3.763   0.766   2.192
    1   AR   Ar  214   4.503   3.298   2.509
    1   AR   Ar  215   5.487   3.050   1.136
    1   AR   Ar  216   0.351   2.953   1.633
    1   AR   Ar  217   5.372   2.902   4.369
    1   AR   Ar  218   4.220   3.288   4.875
    1   AR   Ar  219   4.592   2.547   3.711
    1   AR   Ar  220   4.125   4.076   1.852
    1   AR   Ar  221   6.574   6.158   5.013
    1   AR   Ar  222   4.859   0.449   6.119
    1   AR   Ar  223   6.678   1.314   6.197
    1   AR   Ar  224   4.835   2.832   5.874
    1   AR   Ar  225   5.963   2.894   2.950
    1   AR   Ar  226   2.069   3.548   3.810
    1   AR   Ar  227   6.417   3.531   1.759
    1   AR   Ar  228   6.123   6.517   1.876
    1   AR   Ar  229   5.528   4.867  -1.381
    1   AR   Ar  230   3.835   3.992   3.823
    1   AR   Ar  231   5.445   1.520   3.593
    1   AR   Ar  232   4.880   2.003   1.446
    1   AR   Ar  233   6.118   2.384   3.782
    1   AR   Ar  234   6.439   2.716   4.703
    1   AR   Ar  235   6.477   1.058   3.516
    1   AR   Ar  236   5.665   5.369   5.739
    1   AR   Ar  237   5.820   3.301   5.999
    1   AR   Ar  238   5.003   4.781   6.526
    1   AR   Ar  239   6.668   4.078   8.802
    1   AR   Ar  240   6.808   3.078   7.119
    1   AR   Ar  241   1.458   6.570  -0.598
    1   AR   Ar  242   5.326   5.082   0.315
    1   AR   Ar  243   4.654   4.335   2.983
    1   AR   Ar  244   0.560   5.513  -0.234
    1   AR   Ar  245   4.488   0.497   1.110
    1   AR   Ar  246   5.248   6.817   0.015
    1   AR   Ar  247   6.059   4.182   1.098
    1   AR   Ar  248   6.084   5.983  -0.352
    1   AR   Ar  249   4.247   5.799   1.513
    1   AR   Ar  250   4.952   5.704   4.427
    1   AR   Ar  251   5.079   4.659   4.067
    1   AR   Ar  252   4.295   5.257   3.462
    1   AR   Ar  253   6.764   4.169   6.641
    1   AR   Ar  254   2.178   2.233   9.428
    1   AR   Ar  255   3.671   4.303   9.471
    1   AR   Ar  256   6.615   4.879   2.933
    7.12000  7.12000 12.00000
Argon-slab step 3450
  256
    1   AR   Ar    1   5.993   2.165  -1.682
    1   AR   Ar    2   6.377   0.521   0.381
    1   AR   Ar    3   3.013   1.265  -0.493
    1   AR   Ar    4   1.622   0.790   0.062
    1   AR   Ar    5   6.843   6.935   1.116
    1   AR   Ar    6   7.115   1.035   2.588
    1   AR   Ar    7   5.987   4.035   2.744
    1   AR   Ar    8   5.664   0.272   1.165
    1   AR   Ar    9   1.227   6.790   3.397
    1   AR   Ar   10   0.646   0.870   3.958
    1   AR   Ar   11   2.139   6.478   4.277
    1   AR   Ar   12   0.651   1.775   3.193
    1   AR   Ar   13   0.202   0.628   5.518
    1   AR   Ar   14   6.355   2.028   7.496
    1   AR   Ar   15   5.052   6.611   8.310
    1   AR   Ar   16   0.941   7.051   4.984
    1   AR   Ar   17   6.604   1.965   0.719
    1   AR   Ar   18   5.958   4.712  -0.463
    1   AR   Ar   19   2.812   3.456   0.855
    1   AR   Ar   20   4.307   5.169  -2.014
    1   AR   Ar   21   3.811   1.706   1.589
    1   AR   Ar   22   6.267   1.740   2.797
    1   AR   Ar   23   0.447   0.911   0.018
    1   AR   Ar   24   6.532   2.335   1.709
    1   AR   Ar   25   0.813   2.178   4.442
    1   AR   Ar   26   6.058   0.222   3.906
    1   AR   Ar   27   1.613   0.864   3.033
    1   AR   Ar   28   0.220   2.902   5.100
    1   AR   Ar   29   5.318   2.907   7.020
    1   AR   Ar   30   2.045   1.264   3.973
    1   AR   Ar   31   3.403   0.571   7.038
    1   AR   Ar   32   1.213   2.915   6.603
    1   AR   Ar   33   0.967   4.366   0.086
    1   AR   Ar   34   0.457   5.285   2.427
    1   AR   Ar   35   5.801   5.512   1.212
    1   AR   Ar   36   5.950   0.965  -3.672
    1   AR   Ar   37   5.490   2.528   2.138
    1   AR   Ar   38   7.049   4.218   2.302
    1   AR   Ar   39   1.086   3.923   2.551
    1   AR   Ar   40   2.403   3.520   1.861
    1   AR   Ar   41   0.035   2.375   3.627
    1   AR   Ar   42   5.989   4.963   4.642
    1   AR   Ar   43   6.789   2.334   5.822
    1   AR   Ar   44   0.653   4.255   3.353
    1   AR   Ar   45   0.879   3.653   5.545
    1   AR   Ar   46   7.041   5.077   4.816
    1   AR   Ar   47   6.034   4.244   7.246
    1   AR   Ar   48   6.351   5.214   6.443
    1   AR   Ar   49   5.240   0.938  -1.152
    1   AR   Ar   50   4.477   4.644   0.637
    1   AR   Ar   51   6.738   4.920   1.290
    1   AR   Ar   52   6.396   3.821  -2.741
    1   AR   Ar   53   5.347   5.301   2.928
    1   AR   Ar   54   0.608   6.336   2.500
    1   AR   Ar   55   6.661   5.631   2.026
    1   AR   Ar   56   6.910   0.993   1.218
    1   AR   Ar   57   5.061   3.531   3.539
    1   AR   Ar   58   6.987   3.382   3.936
    1   AR   Ar   59   2.125   5.350   5.514
    1   AR   Ar   60   7.112   5.745   3.139
    1   AR   Ar   61   0.094   4.747   5.738
    1   AR   Ar   62   7.103   4.346   4.046
    1   AR   Ar   63   2.066   0.897   6.699
    1   AR   Ar   64   1.306   5.493   4.908
    1   AR   Ar   65   3.705   6.887   0.959
    1   AR   Ar   66   0.869   1.268   1.697
    1   AR   Ar   67   3.678   6.802  -0.575
    1   AR   Ar   68   1.941   2.062  -0.994
    1   AR   Ar   69   2.655   1.062   0.889
    1   AR   Ar   70   0.717   0.383   2.397
    1   AR   Ar   71   3.111   0.572   3.875
    1   AR   Ar   72   4.084   6.875   2.429
    1   AR   Ar   73   3.790   0.508   3.150
    1   AR   Ar   74   1.544   0.792   4.824
    1   AR   Ar   75   3.673   0.791   4.976
    1   AR   Ar   76   1.715   0.550   1.818
    1   AR   Ar   77   1.919   6.942   5.265
    1   AR   Ar   78   0.211   6.306   5.659
    1   AR   Ar   79   3.352   6.039   6.088
    1   AR   Ar   80   3.439   5.020   5.447
    1   AR   Ar   81   2.580   6.016   0.308
    1   AR   Ar   82   6.577   5.193   0.290
    1   AR   Ar   83   0.477   2.213   0.582
    1   AR   Ar   84   0.187   4.008   1.242
    1   AR   Ar   85   1.374   3.520   1.385
    1   AR   Ar   86   1.707   5.045   0.670
    1   AR   Ar   87   1.754   2.361   0.929
    1   AR   Ar   88   2.132   4.643   1.556
    1   AR   Ar   89   7.076   3.382   2.913
    1   AR   Ar   90   2.480   2.281   4.464
    1   AR   Ar   91   1.421   2.634   3.410
    1   AR   Ar   92   1.353   2.448   2.014
    1   AR   Ar   93   1.268   0.553   6.038
    1   AR   Ar   94   0.262   0.301  11.490
    1   AR   Ar   95   3.899   0.751   6.063
    1   AR   Ar   96   2.960   0.079   4.824
    1   AR   Ar   97   4.691   1.765  -0.185
    1   AR   Ar   98   1.781   4.720   2.599
    1   AR   Ar   99   6.621   1.477  -0.256
    1   AR   Ar  100   1.270   2.959  -0.529
    1   AR   Ar  101   3.505   4.939   1.450
    1   AR   Ar  102   3.614   2.432   3.209
    1   AR   Ar  103   0.806   4.931   1.291
    1   AR   Ar  104   3.077   4.039  -1.777
    1   AR   Ar  105   0.996   3.260   4.178
    1   AR   Ar  106   3.399   3.132   5.688
    1   AR   Ar  107   0.825   4.492   4.940
    1   AR   Ar  108   2.750   1.434   4.952
    1   AR   Ar  109   1.896   4.447   4.750
    1   AR   Ar  110   2.331   2.918   5.502
    1   AR   Ar  111   4.577   4.921   7.763
    1   AR   Ar  112   1.396   6.199   6.069
    1   AR   Ar  113   3.284   4.869   0.363
    1   AR   Ar  114   2.772   0.069  -0.999
    1   AR   Ar  115   2.335   4.968  -0.981
    1   AR   Ar  116   6.059   0.585  -0.676
    1   AR   Ar  117   0.705   5.276   3.906
    1   AR   Ar  118   1.260   5.725   3.119
    1   AR   Ar  119   1.816   3.310   2.833
    1   AR   Ar  120   1.801   6.573   1.991
    1   AR   Ar  121   5.676   3.719   4.830
    1   AR   Ar  122   2.871   6.125   5.201
    1   AR   Ar  123   3.370   4.052   4.964
    1   AR   Ar  124   1.301   5.492   1.984
    1   AR   Ar  125   6.992   3.890   5.104
    1   AR   Ar  126   6.999   0.036   4.528
    1   AR   Ar  127   4.244   3.711   6.621
    1   AR   Ar  128   3.267   4.875   6.719
    1   AR   Ar  129   2.553   5.997   3.093
    1   AR   Ar  130   4.356   2.606  -2.534
    1   AR   Ar  131   3.735   2.109  -0.327
    1   AR   Ar  132   7.092   2.446  -0.257
    1   AR   Ar  133   4.509   6.407   3.238
    1   AR   Ar  134   4.261   0.949   4.037
    1   AR   Ar  135   5.985   0.851   2.318
    1   AR   Ar  136   5.412   7.013   2.529
    1   AR   Ar  137   1.962   5.033   3.971
    1   AR   Ar  138   4.726   1.409   5.668
    1   AR   Ar  139   5.783   2.368   5.359
    1   AR   Ar  140   4.119   6.840   4.022
    1   AR   Ar  141   4.051   4.911   4.545
    1   AR   Ar  142   2.836   0.079   6.247
    1   AR   Ar  143   6.521   0.032   5.752
    1   AR   Ar  144   6.665   1.705   5.032
    1   AR   Ar  145   4.967   4.147  -0.522
    1   AR   Ar  146   2.697   2.535   2.433
    1   AR   Ar  147   4.603   1.706  -1.693
    1   AR   Ar  148   3.401   5.768  -1.070
    1   AR   Ar  149   2.649   1.962   0.248
    1   AR   Ar  150   2.627   1.294   2.178
    1   AR   Ar  151   2.535   1.815   3.158
    1   AR   Ar  152   2.866   2.550  -0.874
    1   AR   Ar  153   5.128   0.178   3.524
    1   AR   Ar  154   3.818   1.868   4.513
    1   AR   Ar  155   6.537   6.531   6.747
    1   AR   Ar  156   3.433   3.546   3.012
    1   AR   Ar  157   1.549   3.867   6.710
    1   AR   Ar  158   0.365   2.233   6.875
    1   AR   Ar  159   4.690   1.689   7.462
    1   AR   Ar  160   1.767   1.739   5.175
    1   AR   Ar  161   5.426   3.708   2.016
    1   AR   Ar  162   4.866   5.836  -0.664
    1   AR   Ar  163   5.616   3.560   0.251
    1   AR   Ar  164   2.933   5.372   2.286
    1   AR   Ar  165   4.132   2.554   0.793
    1   AR   Ar  166   3.059   3.100   4.677
    1   AR   Ar  167   4.940   0.831   2.687
    1   AR   Ar  168   5.360   3.774  -1.411
    1   AR   Ar  169   2.621   4.240   2.623
    1   AR   Ar  170   2.239   4.294   5.999
    1   AR   Ar  171   6.039   3.899   3.952
    1   AR   Ar  172   4.415   4.329   5.399
    1   AR   Ar  173   3.261   3.583   6.877
    1   AR   Ar  174   2.475   5.999   6.648
    1   AR   Ar  175   2.863   2.159   6.349
    1   AR   Ar  176   3.708   1.906   5.677
    1   AR   Ar  177   6.809   4.912  -1.035
    1   AR   Ar  178   4.083   4.839  -0.413
    1   AR   Ar  179   4.085   5.788   0.165
    1   AR   Ar  180   1.755   1.457  -3.036
    1   AR   Ar  181   0.355   6.083   1.422
    1   AR   Ar  182   2.504   0.042   3.223
    1   AR   Ar  183   3.936   4.983   2.442
    1   AR   Ar  184   5.022   6.545   1.287
    1   AR   Ar  185   2.865   4.886   4.601
    1   AR   Ar  186   2.938   4.437   3.704
    1   AR   Ar  187   3.427   6.562   3.266
    1   AR   Ar  188   2.961   7.037   1.687
    1   AR   Ar  189   3.999   2.596   6.594
    1   AR   Ar  190   3.296   5.640   4.029
    1   AR   Ar  191   2.941   6.743   7.637
    1   AR   Ar  192   3.894   5.901   4.829
    1   AR   Ar  193   2.810   5.967   1.287
    1   AR   Ar  194   3.989   3.742  -0.928
    1   AR   Ar  195   5.743   1.572   0.404
    1   AR   Ar  196   4.276   0.453   0.051
    1   AR   Ar  197   3.677   1.319   0.601
    1   AR   Ar  198   6.001   1.444   1.426
    1   AR   Ar  199   3.435   1.486   2.931
    1   AR   Ar  200   5.916   2.665  -0.097
    1   AR   Ar  201   5.863   6.200   3.942
    1   AR   Ar  202   5.682   1.281   4.794
    1   AR   Ar  203   6.421   6.369   3.066
    1   AR   Ar  204   4.909   6.669   5.131
    1   AR   Ar  205   6.698   0.150   2.180
    1   AR   Ar  206   4.833   0.559   4.863
    1   AR   Ar  207   0.600   1.432   6.032
    1   AR   Ar  208   0.191   6.985   3.470
    1   AR   Ar  209   0.200   2.689  -1.921
    1   AR   Ar  210   3.089   0.060   0.243
    1   AR   Ar  211   6.695   3.164   0.743
    1   AR   Ar  212   6.734   3.794  -1.035
    1   AR   Ar  213   3.740   0.715   2.216
    1   AR   Ar  214   4.505   3.323   2.509
    1   AR   Ar  215   5.474   3.036   1.166
    1   AR   Ar  216   0.341   2.969   1.641
    1   AR   Ar  217   5.351   2.889   4.376
    1   AR   Ar  218   4.205   3.279   4.854
    1   AR   Ar  219   4.589   2.579   3.741
    1   AR   Ar  220   4.105   4.068   1.816
    1   AR   Ar  221   6.591   6.169   4.981
    1   AR   Ar  222   4.862   0.449   6.117
    1   AR   Ar  223   6.643   1.320   6.212
    1   AR   Ar  224   4.837   2.833   5.869
    1   AR   Ar  225   5.909   2.887   2.964
    1   AR   Ar  226   2.051   3.539   3.825
    1   AR   Ar  227   6.423   3.540   1.755
    1   AR   Ar  228   6.132   6.519   1.854
    1   AR   Ar  229   5.536   4.823  -1.395
    1   AR   Ar  230   3.792   3.985   3.852
    1   AR   Ar  231   5.473   1.513   3.606
    1   AR   Ar  232   4.865   2.034   1.415
    1   AR   Ar  233   6.154   2.395   3.778
    1   AR   Ar  234   6.434   2.744   4.709
    1   AR   Ar  235   6.508   1.055   3.504
    1   AR   Ar  236   5.657   5.378   5.722
    1   AR   Ar  237   5.831   3.277   5.989
    1   AR   Ar  238   5.008   4.751   6.500
    1   AR   Ar  239   6.691   4.081   8.814
    1   AR   Ar  240   6.817   3.089   7.134
    1   AR   Ar  241   1.452   6.558  -0.565
    1   AR   Ar  242   5.303   5.061   0.323
    1   AR   Ar  243   4.672   4.335   2.988
    1   AR   Ar  244   0.553   5.514  -0.232
    1   AR   Ar  245   4.483   0.474   1.107
    1   AR   Ar  246   5.277   6.798  -0.008
    1   AR   Ar  247   6.050   4.165   1.108
    1   AR   Ar  248   6.064   5.989  -0.361
    1   AR   Ar  249   4.271   5.799   1.505
    1   AR   Ar  250   4.958   5.706   4.426
    1   AR   Ar  251   5.057   4.620   4.084
    1   AR   Ar  252   4.311   5.256   3.440
    1   AR   Ar  253   6.778   4.127   6.617
    1   AR   Ar  254   2.144   2.239   9.437
    1   AR   Ar  255   3.661   4.338   9.489
    1   AR   Ar  256   6.583   4.873   2.931
    7.12000  7.12000 12.00000
Argon-slab step 3455
  256
    1   AR   Ar    1   5.993   2.217  -1.714
    1   AR   Ar    2   6.376   0.477   0.406
    1   AR   Ar    3   3.040   1.267  -0.508
    1   AR   Ar    4   1.615   0.801   0.008
    1   AR   Ar    5   6.820   6.948   1.076
    1   AR   Ar    6   7.106   1.013   2.587
    1   AR   Ar    7   5.959   4.053   2.767
    1   AR   Ar    8   5.663   0.283   1.170
    1   AR   Ar    9   1.211   6.771   3.383
    1   AR   Ar   10   0.630   0.862   3.962
    1   AR   Ar   11   2.141   6.487   4.298
    1   AR   Ar   12   0.684   1.781   3.203
    1   AR   Ar   13   0.202   0.625   5.503
    1   AR   Ar   14   6.346   2.026   7.496
    1   AR   Ar   15   5.053   6.621   8.274
    1   AR   Ar   16   0.907   7.026   5.010
    1   AR   Ar   17   6.592   2.000   0.705
    1   AR   Ar   18   5.946   4.760  -0.413
    1   AR   Ar   19   2.813   3.468   0.828
    1   AR   Ar   20   4.305   5.211  -2.003
    1   AR   Ar   21   3.800   1.703   1.559
    1   AR   Ar   22   6.284   1.740   2.812
    1   AR   Ar   23   0.425   0.922   0.024
    1   AR   Ar   24   6.467   2.332   1.722
    1   AR   Ar   25   0.805   2.169   4.483
    1   AR   Ar   26   6.095   0.215   3.910
    1   AR   Ar   27   1.589   0.864   2.984
    1   AR   Ar   28   0.226   2.886   5.111
    1   AR   Ar   29   5.299   2.919   7.003
    1   AR   Ar   30   2.039   1.256   4.007
    1   AR   Ar   31   3.385   0.596   7.026
    1   AR   Ar   32   1.211   2.912   6.617
    1   AR   Ar   33   0.945   4.352   0.139
    1   AR   Ar   34   0.456   5.256   2.402
    1   AR   Ar   35   5.781   5.530   1.236
    1   AR   Ar   36   5.945   0.960  -3.656
    1   AR   Ar   37   5.471   2.491   2.163
    1   AR   Ar   38   7.042   4.180   2.311
    1   AR   Ar   39   1.084   3.898   2.534
    1   AR   Ar   40   2.385   3.505   1.880
    1   AR   Ar   41   0.011   2.373   3.637
    1   AR   Ar   42   5.967   4.967   4.658
    1   AR   Ar   43   6.810   2.341   5.826
    1   AR   Ar   44   0.647   4.275   3.357
    1   AR   Ar   45   0.894   3.659   5.548
    1   AR   Ar   46   7.048   5.047   4.833
    1   AR   Ar   47   6.014   4.246   7.262
    1   AR   Ar   48   6.348   5.184   6.455
    1   AR   Ar   49   5.275   0.928  -1.188
    1   AR   Ar   50   4.484   4.641   0.629
    1   AR   Ar   51   6.723   4.906   1.338
    1   AR   Ar   52   6.401   3.763  -2.760
    1   AR   Ar   53   5.357   5.315   2.902
    1   AR   Ar   54   0.584   6.350   2.496
    1   AR   Ar   55   6.658   5.655   2.013
    1   AR   Ar   56   6.894   0.980   1.242
    1   AR   Ar   57   5.044   3.536   3.531
    1   AR   Ar   58   6.967   3.377   3.947
    1   AR   Ar   59   2.113   5.328   5.535
    1   AR   Ar   60   7.119   5.744   3.128
    1   AR   Ar   61   0.103   4.747   5.748
    1   AR   Ar   62   7.081   4.331   4.046
    1   AR   Ar   63   2.030   0.895   6.669
    1   AR   Ar   64   1.334   5.470   4.926
    1   AR   Ar   65   3.724   6.889   0.942
    1   AR   Ar   66   0.859   1.283   1.699
    1   AR   Ar   67   3.673   6.780  -0.583
    1   AR   Ar   68   1.943   2.047  -1.003
    1   AR   Ar   69   2.615   1.073   0.853
    1   AR   Ar   70   0.723   0.367   2.375
    1   AR   Ar   71   3.081   0.593   3.858
    1   AR   Ar   72   4.061   6.894   2.457
    1   AR   Ar   73   3.794   0.538   3.159
    1   AR   Ar   74   1.575   0.777   4.817
    1   AR   Ar   75   3.669   0.811   4.983
    1   AR   Ar   76   1.679   0.562   1.841
    1   AR   Ar   77   1.914   6.944   5.265
    1   AR   Ar   78   0.217   6.312   5.663
    1   AR   Ar   79   3.370   6.042   6.106
    1   AR   Ar   80   3.420   5.017   5.477
    1   AR   Ar   81   2.587   6.008   0.332
    1   AR   Ar   82   6.564   5.164   0.306
    1   AR   Ar   83   0.502   2.203   0.613
    1   AR   Ar   84   0.185   3.993   1.253
    1   AR   Ar   85   1.406   3.498   1.375
    1   AR   Ar   86   1.716   5.052   0.715
    1   AR   Ar   87   1.781   2.364   0.919
    1   AR   Ar   88   2.130   4.638   1.559
    1   AR   Ar   89   7.102   3.326   2.951
    1   AR   Ar   90   2.485   2.254   4.473
    1   AR   Ar   91   1.418   2.646   3.400
    1   AR   Ar   92   1.374   2.446   2.000
    1   AR   Ar   93   1.279   0.543   6.027
    1   AR   Ar   94   0.260   0.320  11.496
    1   AR   Ar   95   3.902   0.745   6.059
    1   AR   Ar   96   2.915   0.066   4.805
    1   AR   Ar   97   4.666   1.771  -0.202
    1   AR   Ar   98   1.789   4.704   2.614
    1   AR   Ar   99   6.667   1.477  -0.260
    1   AR   Ar  100   1.288   2.946  -0.545
    1   AR   Ar  101   3.525   4.922   1.477
    1   AR   Ar  102   3.603   2.406   3.187
    1   AR   Ar  103   0.802   4.923   1.322
    1   AR   Ar  104   3.066   4.028  -1.786
    1   AR   Ar  105   1.020   3.263   4.189
    1   AR   Ar  106   3.397   3.150   5.699
    1   AR   Ar  107   0.817   4.512   4.919
    1   AR   Ar  108   2.714   1.402   4.951
    1   AR   Ar  109   1.918   4.427   4.770
    1   AR   Ar  110   2.326   2.916   5.480
    1   AR   Ar  111   4.575   4.915   7.756
    1   AR   Ar  112   1.400   6.194   6.063
    1   AR   Ar  113   3.293   4.870   0.376
    1   AR   Ar  114   2.796   0.060  -0.980
    1   AR   Ar  115   2.336   4.939  -0.966
    1   AR   Ar  116   6.096   0.578  -0.666
    1   AR   Ar  117   0.691   5.288   3.899
    1   AR   Ar  118   1.254   5.712   3.108
    1   AR   Ar  119   1.819   3.345   2.802
    1   AR   Ar  120   1.800   6.577   1.967
    1   AR   Ar  121   5.654   3.694   4.832
    1   AR   Ar  122   2.866   6.118   5.191
    1   AR   Ar  123   3.365   4.045   4.967
    1   AR   Ar  124   1.312   5.500   1.988
    1   AR   Ar  125   6.989   3.866   5.116
    1   AR   Ar  126   7.029   0.018   4.534
    1   AR   Ar  127   4.255   3.712   6.590
    1   AR   Ar  128   3.285   4.878   6.701
    1   AR   Ar  129   2.549   5.975   3.092
    1   AR   Ar  130   4.374   2.605  -2.525
    1   AR   Ar  131   3.725   2.126  -0.333
    1   AR   Ar  132   7.056   2.435  -0.246
    1   AR   Ar  133   4.541   6.415   3.213
    1   AR   Ar  134   4.287   0.934   4.076
    1   AR   Ar  135   5.977   0.816   2.323
    1   AR   Ar  136   5.381   7.007   2.528
    1   AR   Ar  137   1.965   5.021   3.998
    1   AR   Ar  138   4.721   1.414   5.682
    1   AR   Ar  139   5.802   2.349   5.378
    1   AR   Ar  140   4.140   6.845   4.047
    1   AR   Ar  141   4.048   4.927   4.552
    1   AR   Ar  142   2.811   0.067   6.262
    1   AR   Ar  143   6.517   0.015   5.713
    1   AR   Ar  144   6.664   1.681   5.026
    1   AR   Ar  145   4.985   4.155  -0.539
    1   AR   Ar  146   2.713   2.561   2.441
    1   AR   Ar  147   4.591   1.732  -1.692
    1   AR   Ar  148   3.413   5.774  -1.091
    1   AR   Ar  149   2.635   1.979   0.264
    1   AR   Ar  150   2.605   1.281   2.197
    1   AR   Ar  151   2.514   1.776   3.156
    1   AR   Ar  152   2.853   2.547  -0.901
    1   AR   Ar  153   5.125   0.183   3.529
    1   AR   Ar  154   3.790   1.844   4.527
    1   AR   Ar  155   6.529   6.493   6.734
    1   AR   Ar  156   3.423   3.516   2.993
    1   AR   Ar  157   1.536   3.863   6.667
    1   AR   Ar  158   0.367   2.211   6.858
    1   AR   Ar  159   4.676   1.711   7.468
    1   AR   Ar  160   1.775   1.773   5.184
    1   AR   Ar  161   5.408   3.703   1.969
    1   AR   Ar  162   4.843   5.840  -0.670
    1   AR   Ar  163   5.644   3.573   0.218
    1   AR   Ar  164   2.932   5.316   2.329
    1   AR   Ar  165   4.169   2.544   0.783
    1   AR   Ar  166   3.080   3.054   4.671
    1   AR   Ar  167   4.912   0.842   2.699
    1   AR   Ar  168   5.389   3.772  -1.399
    1   AR   Ar  169   2.645   4.271   2.604
    1   AR   Ar  170   2.245   4.264   6.000
    1   AR   Ar  171   6.042   3.915   3.926
    1   AR   Ar  172   4.397   4.340   5.427
    1   AR   Ar  173   3.295   3.575   6.894
    1   AR   Ar  174   2.481   6.010   6.651
    1   AR   Ar  175   2.879   2.127   6.393
    1   AR   Ar  176   3.750   1.915   5.654
    1   AR   Ar  177   6.845   4.933  -1.022
    1   AR   Ar  178   4.067   4.870  -0.402
    1   AR   Ar  179   4.104   5.794   0.159
    1   AR   Ar  180   1.779   1.481  -3.030
    1   AR   Ar  181   0.335   6.065   1.431
    1   AR   Ar  182   2.496   0.024   3.179
    1   AR   Ar  183   3.913   4.974   2.432
    1   AR   Ar  184   5.004   6.560   1.274
    1   AR   Ar  185   2.817   4.896   4.602
    1   AR   Ar  186   2.948   4.454   3.703
    1   AR   Ar  187   3.420   6.571   3.251
    1   AR   Ar  188   2.960   7.022   1.699
    1   AR   Ar  189   4.005   2.584   6.600
    1   AR   Ar  190   3.293   5.636   4.053
    1   AR   Ar  191   2.922   6.740   7.665
    1   AR   Ar  192   3.903   5.915   4.835
    1   AR   Ar  193   2.840   5.944   1.304
    1   AR   Ar  194   3.965   3.738  -0.924
    1   AR   Ar  195   5.761   1.615   0.400
    1   AR   Ar  196   4.274   0.453   0.035
    1   AR   Ar  197   3.665   1.362   0.576
    1   AR   Ar  198   6.031   1.460   1.397
    1   AR   Ar  199   3.430   1.493   2.956
    1   AR   Ar  200   5.927   2.671  -0.111
    1   AR   Ar  201   5.869   6.233   3.944
    1   AR   Ar  202   5.687   1.264   4.836
    1   AR   Ar  203   6.440   6.383   3.068
    1   AR   Ar  204   4.898   6.640   5.164
    1   AR   Ar  205   6.692   0.166   2.158
    1   AR   Ar  206   4.856   0.556   4.887
    1   AR   Ar  207   0.589   1.406   6.027
    1   AR   Ar  208   0.211   6.977   3.483
    1   AR   Ar  209   0.201   2.701  -1.912
    1   AR   Ar  210   3.089   0.074   0.249
    1   AR   Ar  211   6.699   3.160   0.766
    1   AR   Ar  212   6.728   3.737  -1.030
    1   AR   Ar  213   3.714   0.672   2.217
    1   AR   Ar  214   4.507   3.346   2.512
    1   AR   Ar  215   5.464   3.020   1.196
    1   AR   Ar  216   0.337   2.999   1.651
    1   AR   Ar  217   5.330   2.869   4.384
    1   AR   Ar  218   4.190   3.271   4.833
    1   AR   Ar  219   4.583   2.608   3.768
    1   AR   Ar  220   4.086   4.062   1.780
    1   AR   Ar  221   6.588   6.178   4.981
    1   AR   Ar  222   4.872   0.445   6.114
    1   AR   Ar  223   6.608   1.326   6.225
    1   AR   Ar  224   4.838   2.834   5.863
    1   AR   Ar  225   5.857   2.892   2.976
    1   AR   Ar  226   2.034   3.533   3.844
    1   AR   Ar  227   6.438   3.536   1.760
    1   AR   Ar  228   6.133   6.516   1.827
    1   AR   Ar  229   5.532   4.864  -1.372
    1   AR   Ar  230   3.773   3.976   3.882
    1   AR   Ar  231   5.500   1.505   3.619
    1   AR   Ar  232   4.852   2.064   1.384
    1   AR   Ar  233   6.184   2.398   3.781
    1   AR   Ar  234   6.428   2.779   4.709
    1   AR   Ar  235   6.544   1.053   3.496
    1   AR   Ar  236   5.645   5.387   5.698
    1   AR   Ar  237   5.844   3.255   5.980
    1   AR   Ar  238   5.013   4.720   6.474
    1   AR   Ar  239   6.714   4.085   8.825
    1   AR   Ar  240   6.825   3.101   7.148
    1   AR   Ar  241   1.446   6.546  -0.532
    1   AR   Ar  242   5.327   5.051   0.365
    1   AR   Ar  243   4.689   4.337   2.985
    1   AR   Ar  244   0.546   5.514  -0.229
    1   AR   Ar  245   4.487   0.448   1.105
    1   AR   Ar  246   5.306   6.780  -0.030
    1   AR   Ar  247   6.032   4.154   1.108
    1   AR   Ar  248   6.044   6.005  -0.364
    1   AR   Ar  249   4.293   5.799   1.496
    1   AR   Ar  250   4.962   5.707   4.424
    1   AR   Ar  251   5.035   4.580   4.100
    1   AR   Ar  252   4.326   5.256   3.422
    1   AR   Ar  253   6.802   4.084   6.583
    1   AR   Ar  254   2.138   2.208   9.451
    1   AR   Ar  255   3.651   4.373   9.506
    1   AR   Ar  256   6.548   4.870   2.934
    7.12000  7.12000 12.00000
Argon-slab step 3460
  256
    1   AR   Ar    1   5.993   2.270  -1.745
    1   AR   Ar    2   6.375   0.439   0.425
    1   AR   Ar    3   3.066   1.269  -0.523
    1   AR   Ar    4   1.608   0.813  -0.045
    1   AR   Ar    5   6.800   6.959   1.040
    1   AR   Ar    6   7.094   1.001   2.587
    1   AR   Ar    7   5.929   4.066   2.794
    1   AR   Ar    8   5.664   0.295   1.178
    1   AR   Ar    9   1.202   6.752   3.368
    1   AR   Ar   10   0.614   0.853   3.966
    1   AR   Ar   11   2.143   6.495   4.317
    1   AR   Ar   12   0.724   1.780   3.208
    1   AR   Ar   13   0.204   0.620   5.482
    1   AR   Ar   14   6.339   2.025   7.495
    1   AR   Ar   15   5.053   6.631   8.238
    1   AR   Ar   16   0.869   7.000   5.036
    1   AR   Ar   17   6.594   2.044   0.693
    1   AR   Ar   18   5.937   4.784  -0.390
    1   AR   Ar   19   2.814   3.481   0.801
    1   AR   Ar   20   4.304   5.253  -1.991
    1   AR   Ar   21   3.789   1.700   1.534
    1   AR   Ar   22   6.299   1.748   2.822
    1   AR   Ar   23   0.404   0.933   0.031
    1   AR   Ar   24   6.405   2.336   1.738
    1   AR   Ar   25   0.798   2.160   4.523
    1   AR   Ar   26   6.135   0.205   3.917
    1   AR   Ar   27   1.566   0.864   2.935
    1   AR   Ar   28   0.243   2.869   5.121
    1   AR   Ar   29   5.280   2.932   6.984
    1   AR   Ar   30   2.036   1.250   4.038
    1   AR   Ar   31   3.364   0.642   7.019
    1   AR   Ar   32   1.206   2.902   6.628
    1   AR   Ar   33   0.923   4.339   0.194
    1   AR   Ar   34   0.451   5.215   2.375
    1   AR   Ar   35   5.807   5.571   1.252
    1   AR   Ar   36   5.940   0.956  -3.641
    1   AR   Ar   37   5.492   2.486   2.186
    1   AR   Ar   38   7.041   4.146   2.320
    1   AR   Ar   39   1.069   3.878   2.503
    1   AR   Ar   40   2.368   3.489   1.898
    1   AR   Ar   41   0.000   2.374   3.648
    1   AR   Ar   42   5.945   4.969   4.674
    1   AR   Ar   43   6.831   2.349   5.835
    1   AR   Ar   44   0.646   4.296   3.358
    1   AR   Ar   45   0.876   3.638   5.549
    1   AR   Ar   46   7.042   5.028   4.834
    1   AR   Ar   47   5.992   4.248   7.279
    1   AR   Ar   48   6.347   5.152   6.469
    1   AR   Ar   49   5.313   0.920  -1.242
    1   AR   Ar   50   4.477   4.632   0.625
    1   AR   Ar   51   6.712   4.889   1.385
    1   AR   Ar   52   6.406   3.705  -2.777
    1   AR   Ar   53   5.366   5.328   2.877
    1   AR   Ar   54   0.561   6.366   2.490
    1   AR   Ar   55   6.655   5.680   2.009
    1   AR   Ar   56   6.887   0.963   1.265
    1   AR   Ar   57   5.030   3.541   3.525
    1   AR   Ar   58   6.946   3.357   3.965
    1   AR   Ar   59   2.109   5.304   5.561
    1   AR   Ar   60   0.022   5.730   3.129
    1   AR   Ar   61   0.113   4.743   5.771
    1   AR   Ar   62   7.051   4.333   4.057
    1   AR   Ar   63   1.998   0.894   6.641
    1   AR   Ar   64   1.355   5.448   4.937
    1   AR   Ar   65   3.719   6.872   0.904
    1   AR   Ar   66   0.879   1.297   1.716
    1   AR   Ar   67   3.672   6.755  -0.588
    1   AR   Ar   68   1.942   2.030  -1.012
    1   AR   Ar   69   2.575   1.081   0.818
    1   AR   Ar   70   0.735   0.343   2.353
    1   AR   Ar   71   3.046   0.617   3.849
    1   AR   Ar   72   4.040   6.906   2.479
    1   AR   Ar   73   3.808   0.561   3.184
    1   AR   Ar   74   1.602   0.760   4.804
    1   AR   Ar   75   3.661   0.825   4.991
    1   AR   Ar   76   1.645   0.573   1.865
    1   AR   Ar   77   1.912   6.945   5.269
    1   AR   Ar   78   0.228   6.319   5.671
    1   AR   Ar   79   3.392   6.044   6.124
    1   AR   Ar   80   3.415   5.011   5.506
    1   AR   Ar   81   2.600   5.976   0.328
    1   AR   Ar   82   6.553   5.137   0.325
    1   AR   Ar   83   0.532   2.194   0.648
    1   AR   Ar   84   0.183   3.977   1.262
    1   AR   Ar   85   1.437   3.476   1.365
    1   AR   Ar   86   1.723   5.061   0.756
    1   AR   Ar   87   1.806   2.367   0.910
    1   AR   Ar   88   2.130   4.629   1.569
    1   AR   Ar   89   0.008   3.268   2.982
    1   AR   Ar   90   2.484   2.229   4.476
    1   AR   Ar   91   1.413   2.650   3.394
    1   AR   Ar   92   1.360   2.470   2.004
    1   AR   Ar   93   1.288   0.529   6.010
    1   AR   Ar   94   0.257   0.339  11.502
    1   AR   Ar   95   3.905   0.736   6.027
    1   AR   Ar   96   2.868   0.052   4.785
    1   AR   Ar   97   4.648   1.774  -0.217
    1   AR   Ar   98   1.781   4.698   2.631
    1   AR   Ar   99   6.710   1.472  -0.263
    1   AR   Ar  100   1.306   2.932  -0.560
    1   AR   Ar  101   3.543   4.907   1.497
    1   AR   Ar  102   3.595   2.398   3.171
    1   AR   Ar  103   0.793   4.912   1.349
    1   AR   Ar  104   3.057   4.005  -1.776
    1   AR   Ar  105   1.039   3.268   4.202
    1   AR   Ar  106   3.398   3.168   5.713
    1   AR   Ar  107   0.811   4.531   4.894
    1   AR   Ar  108   2.685   1.360   4.953
    1   AR   Ar  109   1.934   4.395   4.802
    1   AR   Ar  110   2.321   2.913   5.458
    1   AR   Ar  111   4.572   4.909   7.748
    1   AR   Ar  112   1.405   6.189   6.054
    1   AR   Ar  113   3.306   4.902   0.408
    1   AR   Ar  114   2.816   0.054  -0.961
    1   AR   Ar  115   2.337   4.910  -0.950
    1   AR   Ar  116   6.123   0.560  -0.641
    1   AR   Ar  117   0.676   5.297   3.895
    1   AR   Ar  118   1.250   5.698   3.095
    1   AR   Ar  119   1.840   3.374   2.771
    1   AR   Ar  120   1.799   6.580   1.945
    1   AR   Ar  121   5.632   3.675   4.847
    1   AR   Ar  122   2.859   6.110   5.176
    1   AR   Ar  123   3.362   4.039   4.971
    1   AR   Ar  124   1.337   5.516   1.991
    1   AR   Ar  125   6.983   3.845   5.127
    1   AR   Ar  126   7.058   7.120   4.541
    1   AR   Ar  127   4.274   3.713   6.554
    1   AR   Ar  128   3.303   4.881   6.680
    1   AR   Ar  129   2.543   5.952   3.092
    1   AR   Ar  130   4.391   2.604  -2.516
    1   AR   Ar  131   3.707   2.145  -0.338
    1   AR   Ar  132   7.020   2.431  -0.237
    1   AR   Ar  133   4.579   6.416   3.188
    1   AR   Ar  134   4.312   0.919   4.111
    1   AR   Ar  135   5.961   0.788   2.331
    1   AR   Ar  136   5.373   7.023   2.524
    1   AR   Ar  137   1.965   5.023   3.993
    1   AR   Ar  138   4.712   1.422   5.699
    1   AR   Ar  139   5.816   2.327   5.401
    1   AR   Ar  140   4.158   6.854   4.078
    1   AR   Ar  141   4.045   4.939   4.555
    1   AR   Ar  142   2.822   0.048   6.262
    1   AR   Ar  143   6.510   7.115   5.674
    1   AR   Ar  144   6.670   1.659   5.017
    1   AR   Ar  145   5.001   4.166  -0.550
    1   AR   Ar  146   2.728   2.588   2.450
    1   AR   Ar  147   4.579   1.759  -1.690
    1   AR   Ar  148   3.423   5.782  -1.106
    1   AR   Ar  149   2.623   1.997   0.279
    1   AR   Ar  150   2.583   1.267   2.214
    1   AR   Ar  151   2.481   1.742   3.159
    1   AR   Ar  152   2.845   2.544  -0.927
    1   AR   Ar  153   5.118   0.188   3.535
    1   AR   Ar  154   3.772   1.832   4.510
    1   AR   Ar  155   6.521   6.447   6.705
    1   AR   Ar  156   3.411   3.486   2.971
    1   AR   Ar  157   1.523   3.866   6.624
    1   AR   Ar  158   0.368   2.189   6.840
    1   AR   Ar  159   4.661   1.733   7.472
    1   AR   Ar  160   1.780   1.810   5.193
    1   AR   Ar  161   5.383   3.699   1.921
    1   AR   Ar  162   4.820   5.843  -0.674
    1   AR   Ar  163   5.670   3.595   0.189
    1   AR   Ar  164   2.927   5.260   2.369
    1   AR   Ar  165   4.202   2.534   0.769
    1   AR   Ar  166   3.106   3.011   4.664
    1   AR   Ar  167   4.879   0.856   2.721
    1   AR   Ar  168   5.421   3.767  -1.392
    1   AR   Ar  169   2.686   4.293   2.585
    1   AR   Ar  170   2.255   4.235   5.997
    1   AR   Ar  171   6.046   3.932   3.892
    1   AR   Ar  172   4.379   4.351   5.455
    1   AR   Ar  173   3.313   3.567   6.909
    1   AR   Ar  174   2.483   6.022   6.654
    1   AR   Ar  175   2.897   2.096   6.435
    1   AR   Ar  176   3.790   1.924   5.631
    1   AR   Ar  177   6.881   4.954  -1.009
    1   AR   Ar  178   4.052   4.898  -0.393
    1   AR   Ar  179   4.123   5.802   0.155
    1   AR   Ar  180   1.803   1.505  -3.024
    1   AR   Ar  181   0.317   6.046   1.440
    1   AR   Ar  182   2.485   0.005   3.132
    1   AR   Ar  183   3.895   4.964   2.427
    1   AR   Ar  184   4.987   6.576   1.260
    1   AR   Ar  185   2.771   4.910   4.612
    1   AR   Ar  186   2.947   4.476   3.692
    1   AR   Ar  187   3.414   6.581   3.239
    1   AR   Ar  188   2.959   7.009   1.713
    1   AR   Ar  189   4.010   2.573   6.605
    1   AR   Ar  190   3.289   5.634   4.071
    1   AR   Ar  191   2.904   6.738   7.691
    1   AR   Ar  192   3.915   5.935   4.847
    1   AR   Ar  193   2.873   5.921   1.331
    1   AR   Ar  194   3.941   3.735  -0.921
    1   AR   Ar  195   5.763   1.652   0.388
    1   AR   Ar  196   4.308   0.438   0.019
    1   AR   Ar  197   3.653   1.405   0.545
    1   AR   Ar  198   6.049   1.474   1.374
    1   AR   Ar  199   3.427   1.456   2.957
    1   AR   Ar  200   5.941   2.667  -0.126
    1   AR   Ar  201   5.873   6.266   3.949
    1   AR   Ar  202   5.707   1.231   4.835
    1   AR   Ar  203   6.439   6.417   3.063
    1   AR   Ar  204   4.887   6.610   5.196
    1   AR   Ar  205   6.699   0.176   2.134
    1   AR   Ar  206   4.879   0.552   4.913
    1   AR   Ar  207   0.580   1.387   6.024
    1   AR   Ar  208   0.226   6.971   3.493
    1   AR   Ar  209   0.172   2.706  -1.935
    1   AR   Ar  210   3.069   0.078   0.258
    1   AR   Ar  211   6.701   3.154   0.788
    1   AR   Ar  212   6.721   3.680  -1.024
    1   AR   Ar  213   3.683   0.642   2.195
    1   AR   Ar  214   4.505   3.363   2.514
    1   AR   Ar  215   5.456   3.000   1.222
    1   AR   Ar  216   0.334   3.028   1.662
    1   AR   Ar  217   5.314   2.843   4.393
    1   AR   Ar  218   4.177   3.263   4.812
    1   AR   Ar  219   4.569   2.634   3.791
    1   AR   Ar  220   4.069   4.054   1.745
    1   AR   Ar  221   6.583   6.156   4.973
    1   AR   Ar  222   4.892   0.437   6.124
    1   AR   Ar  223   6.572   1.331   6.237
    1   AR   Ar  224   4.838   2.835   5.857
    1   AR   Ar  225   5.828   2.923   2.961
    1   AR   Ar  226   2.019   3.527   3.864
    1   AR   Ar  227   6.464   3.507   1.764
    1   AR   Ar  228   6.125   6.511   1.797
    1   AR   Ar  229   5.525   4.907  -1.350
    1   AR   Ar  230   3.803   3.966   3.885
    1   AR   Ar  231   5.527   1.496   3.632
    1   AR   Ar  232   4.854   2.084   1.393
    1   AR   Ar  233   6.196   2.396   3.791
    1   AR   Ar  234   6.421   2.819   4.706
    1   AR   Ar  235   6.570   1.052   3.499
    1   AR   Ar  236   5.630   5.396   5.670
    1   AR   Ar  237   5.859   3.233   5.971
    1   AR   Ar  238   5.019   4.688   6.448
    1   AR   Ar  239   6.737   4.088   8.837
    1   AR   Ar  240   6.813   3.089   7.148
    1   AR   Ar  241   1.441   6.535  -0.498
    1   AR   Ar  242   5.361   5.048   0.404
    1   AR   Ar  243   4.704   4.345   2.959
    1   AR   Ar  244   0.538   5.513  -0.226
    1   AR   Ar  245   4.494   0.426   1.106
    1   AR   Ar  246   5.334   6.763  -0.051
    1   AR   Ar  247   6.007   4.147   1.098
    1   AR   Ar  248   6.022   6.017  -0.366
    1   AR   Ar  249   4.312   5.796   1.488
    1   AR   Ar  250   4.965   5.707   4.422
    1   AR   Ar  251   5.013   4.539   4.116
    1   AR   Ar  252   4.341   5.259   3.408
    1   AR   Ar  253   6.828   4.040   6.545
    1   AR   Ar  254   2.152   2.189   9.458
    1   AR   Ar  255   3.642   4.409   9.523
    1   AR   Ar  256   6.516   4.873   2.939
    7.12000  7.12000 12.00000
Argon-slab step 3465
  256
    1   AR   Ar    1   5.994   2.322  -1.775
    1   AR   Ar    2   6.338   0.443   0.438
    1   AR   Ar    3   3.092   1.270  -0.535
    1   AR   Ar    4   1.602   0.825  -0.097
    1   AR   Ar    5   6.788   6.958   1.017
    1   AR   Ar    6   7.083   0.997   2.587
    1   AR   Ar    7   5.896   4.072   2.820
    1   AR   Ar    8   5.664   0.308   1.190
    1   AR   Ar    9   1.201   6.733   3.351
    1   AR   Ar   10   0.598   0.844   3.969
    1   AR   Ar   11   2.145   6.501   4.334
    1   AR   Ar   12   0.767   1.774   3.211
    1   AR   Ar   13   0.206   0.613   5.457
    1   AR   Ar   14   6.332   2.026   7.492
    1   AR   Ar   15   5.065   6.644   8.210
    1   AR   Ar   16   0.833   6.974   5.063
    1   AR   Ar   17   6.610   2.095   0.684
    1   AR   Ar   18   5.934   4.773  -0.412
    1   AR   Ar   19   2.814   3.494   0.776
    1   AR   Ar   20   4.281   5.274  -1.975
    1   AR   Ar   21   3.777   1.697   1.512
    1   AR   Ar   22   6.311   1.765   2.826
    1   AR   Ar   23   0.388   0.940   0.042
    1   AR   Ar   24   6.363   2.353   1.756
    1   AR   Ar   25   0.786   2.137   4.537
    1   AR   Ar   26   6.175   0.191   3.926
    1   AR   Ar   27   1.543   0.864   2.888
    1   AR   Ar   28   0.266   2.852   5.128
    1   AR   Ar   29   5.260   2.944   6.963
    1   AR   Ar   30   2.036   1.247   4.064
    1   AR   Ar   31   3.343   0.687   7.012
    1   AR   Ar   32   1.198   2.886   6.639
    1   AR   Ar   33   0.900   4.328   0.251
    1   AR   Ar   34   0.440   5.194   2.354
    1   AR   Ar   35   5.834   5.613   1.269
    1   AR   Ar   36   5.936   0.951  -3.625
    1   AR   Ar   37   5.500   2.473   2.196
    1   AR   Ar   38   7.044   4.116   2.331
    1   AR   Ar   39   1.039   3.866   2.461
    1   AR   Ar   40   2.354   3.475   1.913
    1   AR   Ar   41   0.015   2.374   3.657
    1   AR   Ar   42   5.921   4.971   4.688
    1   AR   Ar   43   6.850   2.356   5.850
    1   AR   Ar   44   0.645   4.339   3.374
    1   AR   Ar   45   0.859   3.618   5.551
    1   AR   Ar   46   7.029   5.017   4.828
    1   AR   Ar   47   5.970   4.251   7.295
    1   AR   Ar   48   6.347   5.118   6.484
    1   AR   Ar   49   5.341   0.910  -1.272
    1   AR   Ar   50   4.461   4.620   0.624
    1   AR   Ar   51   6.705   4.868   1.430
    1   AR   Ar   52   6.411   3.646  -2.794
    1   AR   Ar   53   5.376   5.341   2.853
    1   AR   Ar   54   0.539   6.384   2.482
    1   AR   Ar   55   6.651   5.703   2.016
    1   AR   Ar   56   6.889   0.941   1.289
    1   AR   Ar   57   5.020   3.545   3.521
    1   AR   Ar   58   6.925   3.329   3.991
    1   AR   Ar   59   2.115   5.278   5.594
    1   AR   Ar   60   0.051   5.711   3.139
    1   AR   Ar   61   0.125   4.736   5.803
    1   AR   Ar   62   7.016   4.345   4.073
    1   AR   Ar   63   2.012   0.880   6.629
    1   AR   Ar   64   1.365   5.440   4.939
    1   AR   Ar   65   3.722   6.847   0.876
    1   AR   Ar   66   0.895   1.313   1.733
    1   AR   Ar   67   3.677   6.727  -0.590
    1   AR   Ar   68   1.938   2.011  -1.019
    1   AR   Ar   69   2.535   1.087   0.784
    1   AR   Ar   70   0.748   0.316   2.333
    1   AR   Ar   71   3.007   0.644   3.845
    1   AR   Ar   72   4.035   6.895   2.488
    1   AR   Ar   73   3.834   0.573   3.218
    1   AR   Ar   74   1.624   0.740   4.798
    1   AR   Ar   75   3.632   0.809   5.004
    1   AR   Ar   76   1.617   0.584   1.888
    1   AR   Ar   77   1.913   6.944   5.277
    1   AR   Ar   78   0.242   6.327   5.681
    1   AR   Ar   79   3.417   6.045   6.140
    1   AR   Ar   80   3.431   4.997   5.528
    1   AR   Ar   81   2.613   5.943   0.320
    1   AR   Ar   82   6.546   5.114   0.349
    1   AR   Ar   83   0.564   2.184   0.685
    1   AR   Ar   84   0.183   3.965   1.269
    1   AR   Ar   85   1.464   3.454   1.357
    1   AR   Ar   86   1.727   5.075   0.791
    1   AR   Ar   87   1.830   2.371   0.902
    1   AR   Ar   88   2.133   4.617   1.587
    1   AR   Ar   89   0.036   3.211   3.004
    1   AR   Ar   90   2.478   2.206   4.473
    1   AR   Ar   91   1.405   2.649   3.391
    1   AR   Ar   92   1.347   2.494   2.008
    1   AR   Ar   93   1.292   0.512   5.987
    1   AR   Ar   94   0.253   0.346  11.507
    1   AR   Ar   95   3.903   0.729   5.996
    1   AR   Ar   96   2.823   0.038   4.766
    1   AR   Ar   97   4.636   1.774  -0.230
    1   AR   Ar   98   1.763   4.698   2.650
    1   AR   Ar   99   6.743   1.463  -0.266
    1   AR   Ar  100   1.324   2.917  -0.576
    1   AR   Ar  101   3.554   4.897   1.507
    1   AR   Ar  102   3.589   2.403   3.158
    1   AR   Ar  103   0.781   4.898   1.374
    1   AR   Ar  104   3.048   3.982  -1.765
    1   AR   Ar  105   1.054   3.274   4.218
    1   AR   Ar  106   3.427   3.149   5.695
    1   AR   Ar  107   0.808   4.545   4.868
    1   AR   Ar  108   2.662   1.309   4.957
    1   AR   Ar  109   1.943   4.355   4.842
    1   AR   Ar  110   2.316   2.910   5.436
    1   AR   Ar  111   4.570   4.902   7.739
    1   AR   Ar  112   1.395   6.149   6.094
    1   AR   Ar  113   3.310   4.919   0.435
    1   AR   Ar  114   2.832   0.050  -0.942
    1   AR   Ar  115   2.339   4.881  -0.935
    1   AR   Ar  116   6.151   0.542  -0.614
    1   AR   Ar  117   0.660   5.304   3.895
    1   AR   Ar  118   1.248   5.682   3.079
    1   AR   Ar  119   1.826   3.330   2.774
    1   AR   Ar  120   1.798   6.582   1.924
    1   AR   Ar  121   5.614   3.664   4.868
    1   AR   Ar  122   2.850   6.100   5.159
    1   AR   Ar  123   3.360   4.034   4.973
    1   AR   Ar  124   1.371   5.537   1.993
    1   AR   Ar  125   6.955   3.857   5.116
    1   AR   Ar  126   7.083   7.102   4.549
    1   AR   Ar  127   4.298   3.715   6.515
    1   AR   Ar  128   3.320   4.884   6.658
    1   AR   Ar  129   2.533   5.930   3.095
    1   AR   Ar  130   4.404   2.599  -2.513
    1   AR   Ar  131   3.684   2.167  -0.343
    1   AR   Ar  132   6.986   2.435  -0.228
    1   AR   Ar  133   4.621   6.411   3.166
    1   AR   Ar  134   4.336   0.904   4.143
    1   AR   Ar  135   5.939   0.771   2.340
    1   AR   Ar  136   5.371   7.041   2.518
    1   AR   Ar  137   1.961   5.035   3.952
    1   AR   Ar  138   4.706   1.429   5.714
    1   AR   Ar  139   5.825   2.300   5.424
    1   AR   Ar  140   4.172   6.859   4.100
    1   AR   Ar  141   4.079   4.943   4.565
    1   AR   Ar  142   2.823   0.029   6.268
    1   AR   Ar  143   6.501   7.091   5.635
    1   AR   Ar  144   6.695   1.646   5.008
    1   AR   Ar  145   5.014   4.182  -0.554
    1   AR   Ar  146   2.743   2.615   2.459
    1   AR   Ar  147   4.568   1.785  -1.688
    1   AR   Ar  148   3.421   5.800  -1.101
    1   AR   Ar  149   2.613   2.016   0.290
    1   AR   Ar  150   2.562   1.251   2.228
    1   AR   Ar  151   2.440   1.710   3.166
    1   AR   Ar  152   2.840   2.543  -0.952
    1   AR   Ar  153   5.109   0.193   3.545
    1   AR   Ar  154   3.755   1.825   4.485
    1   AR   Ar  155   6.514   6.395   6.664
    1   AR   Ar  156   3.399   3.456   2.948
    1   AR   Ar  157   1.509   3.874   6.583
    1   AR   Ar  158   0.367   2.167   6.821
    1   AR   Ar  159   4.647   1.756   7.476
    1   AR   Ar  160   1.779   1.848   5.204
    1   AR   Ar  161   5.357   3.702   1.882
    1   AR   Ar  162   4.798   5.846  -0.679
    1   AR   Ar  163   5.695   3.624   0.161
    1   AR   Ar  164   2.916   5.213   2.406
    1   AR   Ar  165   4.230   2.527   0.750
    1   AR   Ar  166   3.135   2.973   4.656
    1   AR   Ar  167   4.845   0.872   2.743
    1   AR   Ar  168   5.456   3.760  -1.388
    1   AR   Ar  169   2.736   4.304   2.568
    1   AR   Ar  170   2.268   4.209   5.989
    1   AR   Ar  171   6.048   3.951   3.857
    1   AR   Ar  172   4.360   4.361   5.483
    1   AR   Ar  173   3.285   3.559   6.917
    1   AR   Ar  174   2.483   6.034   6.657
    1   AR   Ar  175   2.915   2.066   6.475
    1   AR   Ar  176   3.826   1.935   5.608
    1   AR   Ar  177   6.912   4.978  -1.002
    1   AR   Ar  178   4.039   4.925  -0.387
    1   AR   Ar  179   4.099   5.809   0.128
    1   AR   Ar  180   1.827   1.528  -3.018
    1   AR   Ar  181   0.302   6.027   1.448
    1   AR   Ar  182   2.471   7.106   3.085
    1   AR   Ar  183   3.887   4.952   2.432
    1   AR   Ar  184   4.972   6.591   1.246
    1   AR   Ar  185   2.735   4.929   4.632
    1   AR   Ar  186   2.939   4.500   3.675
    1   AR   Ar  187   3.408   6.589   3.232
    1   AR   Ar  188   2.958   6.995   1.728
    1   AR   Ar  189   4.015   2.562   6.609
    1   AR   Ar  190   3.284   5.634   4.082
    1   AR   Ar  191   2.885   6.735   7.715
    1   AR   Ar  192   3.930   5.959   4.863
    1   AR   Ar  193   2.908   5.896   1.362
    1   AR   Ar  194   3.918   3.734  -0.917
    1   AR   Ar  195   5.750   1.682   0.366
    1   AR   Ar  196   4.350   0.419   0.004
    1   AR   Ar  197   3.644   1.439   0.511
    1   AR   Ar  198   6.052   1.482   1.356
    1   AR   Ar  199   3.424   1.412   2.951
    1   AR   Ar  200   5.958   2.656  -0.141
    1   AR   Ar  201   5.875   6.298   3.956
    1   AR   Ar  202   5.725   1.200   4.833
    1   AR   Ar  203   6.430   6.463   3.053
    1   AR   Ar  204   4.875   6.578   5.227
    1   AR   Ar  205   6.717   0.175   2.107
    1   AR   Ar  206   4.901   0.548   4.942
    1   AR   Ar  207   0.574   1.376   6.025
    1   AR   Ar  208   0.232   6.967   3.502
    1   AR   Ar  209   0.135   2.709  -1.966
    1   AR   Ar  210   3.038   0.088   0.258
    1   AR   Ar  211   6.702   3.146   0.808
    1   AR   Ar  212   6.713   3.624  -1.018
    1   AR   Ar  213   3.644   0.628   2.157
    1   AR   Ar  214   4.499   3.374   2.515
    1   AR   Ar  215   5.452   2.974   1.238
    1   AR   Ar  216   0.332   3.052   1.675
    1   AR   Ar  217   5.306   2.812   4.406
    1   AR   Ar  218   4.164   3.255   4.791
    1   AR   Ar  219   4.542   2.654   3.806
    1   AR   Ar  220   4.054   4.043   1.712
    1   AR   Ar  221   6.575   6.133   4.962
    1   AR   Ar  222   4.922   0.428   6.154
    1   AR   Ar  223   6.538   1.336   6.248
    1   AR   Ar  224   4.836   2.835   5.851
    1   AR   Ar  225   5.819   2.975   2.940
    1   AR   Ar  226   2.007   3.524   3.884
    1   AR   Ar  227   6.488   3.466   1.769
    1   AR   Ar  228   6.109   6.510   1.765
    1   AR   Ar  229   5.517   4.950  -1.330
    1   AR   Ar  230   3.842   3.954   3.891
    1   AR   Ar  231   5.554   1.486   3.645
    1   AR   Ar  232   4.863   2.097   1.417
    1   AR   Ar  233   6.181   2.391   3.804
    1   AR   Ar  234   6.411   2.861   4.706
    1   AR   Ar  235   6.562   1.034   3.500
    1   AR   Ar  236   5.620   5.395   5.643
    1   AR   Ar  237   5.875   3.214   5.962
    1   AR   Ar  238   5.024   4.656   6.421
    1   AR   Ar  239   6.741   4.081   8.873
    1   AR   Ar  240   6.789   3.060   7.139
    1   AR   Ar  241   1.436   6.523  -0.463
    1   AR   Ar  242   5.400   5.050   0.445
    1   AR   Ar  243   4.719   4.356   2.929
    1   AR   Ar  244   0.529   5.511  -0.222
    1   AR   Ar  245   4.503   0.407   1.109
    1   AR   Ar  246   5.360   6.748  -0.070
    1   AR   Ar  247   5.980   4.142   1.084
    1   AR   Ar  248   6.002   6.025  -0.368
    1   AR   Ar  249   4.327   5.791   1.479
    1   AR   Ar  250   4.968   5.706   4.420
    1   AR   Ar  251   4.991   4.497   4.130
    1   AR   Ar  252   4.355   5.263   3.397
    1   AR   Ar  253   6.853   3.996   6.506
    1   AR   Ar  254   2.166   2.195   9.457
    1   AR   Ar  255   3.632   4.444   9.540
    1   AR   Ar  256   6.487   4.882   2.945
    7.12000  7.12000 12.00000
Argon-slab step 3470
  256
    1   AR   Ar    1   5.994   2.376  -1.805
    1   AR   Ar    2   6.287   0.470   0.436
    1   AR   Ar    3   3.116   1.270  -0.546
    1   AR   Ar    4   1.597   0.838  -0.150
    1   AR   Ar    5   6.785   6.943   1.009
    1   AR   Ar    6   7.075   1.000   2.588
    1   AR   Ar    7   5.857   4.073   2.841
    1   AR   Ar    8   5.662   0.322   1.209
    1   AR   Ar    9   1.209   6.715   3.332
    1   AR   Ar   10   0.582   0.835   3.973
    1   AR   Ar   11   2.145   6.502   4.346
    1   AR   Ar   12   0.786   1.769   3.218
    1   AR   Ar   13   0.206   0.605   5.429
    1   AR   Ar   14   6.326   2.027   7.487
    1   AR   Ar   15   5.084   6.661   8.187
    1   AR   Ar   16   0.806   6.947   5.090
    1   AR   Ar   17   6.630   2.146   0.680
    1   AR   Ar   18   5.932   4.759  -0.435
    1   AR   Ar   19   2.813   3.507   0.752
    1   AR   Ar   20   4.254   5.290  -1.957
    1   AR   Ar   21   3.766   1.695   1.495
    1   AR   Ar   22   6.321   1.788   2.825
    1   AR   Ar   23   0.382   0.941   0.058
    1   AR   Ar   24   6.377   2.396   1.778
    1   AR   Ar   25   0.771   2.104   4.532
    1   AR   Ar   26   6.214   0.175   3.937
    1   AR   Ar   27   1.520   0.866   2.846
    1   AR   Ar   28   0.291   2.836   5.131
    1   AR   Ar   29   5.252   2.951   6.957
    1   AR   Ar   30   2.040   1.250   4.080
    1   AR   Ar   31   3.322   0.733   7.004
    1   AR   Ar   32   1.189   2.865   6.648
    1   AR   Ar   33   0.877   4.317   0.310
    1   AR   Ar   34   0.424   5.207   2.343
    1   AR   Ar   35   5.861   5.652   1.284
    1   AR   Ar   36   5.934   0.954  -3.584
    1   AR   Ar   37   5.492   2.450   2.198
    1   AR   Ar   38   7.050   4.091   2.346
    1   AR   Ar   39   1.001   3.858   2.414
    1   AR   Ar   40   2.345   3.463   1.922
    1   AR   Ar   41   0.045   2.375   3.660
    1   AR   Ar   42   5.898   4.972   4.699
    1   AR   Ar   43   6.866   2.361   5.869
    1   AR   Ar   44   0.648   4.368   3.383
    1   AR   Ar   45   0.845   3.600   5.554
    1   AR   Ar   46   7.010   5.017   4.823
    1   AR   Ar   47   5.947   4.253   7.308
    1   AR   Ar   48   6.348   5.084   6.498
    1   AR   Ar   49   5.355   0.893  -1.264
    1   AR   Ar   50   4.440   4.608   0.623
    1   AR   Ar   51   6.699   4.843   1.474
    1   AR   Ar   52   6.416   3.587  -2.810
    1   AR   Ar   53   5.386   5.353   2.829
    1   AR   Ar   54   0.518   6.401   2.474
    1   AR   Ar   55   6.647   5.723   2.035
    1   AR   Ar   56   6.899   0.914   1.312
    1   AR   Ar   57   5.013   3.550   3.519
    1   AR   Ar   58   6.929   3.290   3.985
    1   AR   Ar   59   2.129   5.252   5.631
    1   AR   Ar   60   0.078   5.694   3.153
    1   AR   Ar   61   0.139   4.728   5.837
    1   AR   Ar   62   6.981   4.360   4.089
    1   AR   Ar   63   2.041   0.865   6.622
    1   AR   Ar   64   1.365   5.449   4.933
    1   AR   Ar   65   3.731   6.815   0.854
    1   AR   Ar   66   0.908   1.333   1.750
    1   AR   Ar   67   3.689   6.697  -0.586
    1   AR   Ar   68   1.931   1.990  -1.025
    1   AR   Ar   69   2.496   1.090   0.750
    1   AR   Ar   70   0.754   0.285   2.315
    1   AR   Ar   71   2.965   0.672   3.844
    1   AR   Ar   72   4.038   6.877   2.489
    1   AR   Ar   73   3.870   0.570   3.257
    1   AR   Ar   74   1.641   0.714   4.801
    1   AR   Ar   75   3.603   0.793   5.012
    1   AR   Ar   76   1.600   0.592   1.905
    1   AR   Ar   77   1.912   6.942   5.290
    1   AR   Ar   78   0.256   6.335   5.693
    1   AR   Ar   79   3.444   6.046   6.155
    1   AR   Ar   80   3.446   4.985   5.549
    1   AR   Ar   81   2.626   5.910   0.310
    1   AR   Ar   82   6.541   5.092   0.376
    1   AR   Ar   83   0.596   2.175   0.722
    1   AR   Ar   84   0.183   3.961   1.271
    1   AR   Ar   85   1.488   3.432   1.347
    1   AR   Ar   86   1.727   5.092   0.819
    1   AR   Ar   87   1.851   2.377   0.897
    1   AR   Ar   88   2.141   4.600   1.613
    1   AR   Ar   89   0.065   3.156   3.016
    1   AR   Ar   90   2.470   2.183   4.465
    1   AR   Ar   91   1.395   2.644   3.391
    1   AR   Ar   92   1.333   2.520   2.013
    1   AR   Ar   93   1.292   0.493   5.958
    1   AR   Ar   94   0.244   0.309  11.508
    1   AR   Ar   95   3.900   0.722   5.969
    1   AR   Ar   96   2.783   0.030   4.748
    1   AR   Ar   97   4.628   1.772  -0.242
    1   AR   Ar   98   1.741   4.700   2.670
    1   AR   Ar   99   6.761   1.454  -0.273
    1   AR   Ar  100   1.342   2.901  -0.590
    1   AR   Ar  101   3.557   4.893   1.504
    1   AR   Ar  102   3.585   2.412   3.147
    1   AR   Ar  103   0.767   4.883   1.396
    1   AR   Ar  104   3.041   3.951  -1.738
    1   AR   Ar  105   1.072   3.265   4.225
    1   AR   Ar  106   3.436   3.165   5.709
    1   AR   Ar  107   0.809   4.553   4.841
    1   AR   Ar  108   2.643   1.253   4.963
    1   AR   Ar  109   1.944   4.309   4.885
    1   AR   Ar  110   2.311   2.906   5.413
    1   AR   Ar  111   4.577   4.921   7.762
    1   AR   Ar  112   1.387   6.109   6.131
    1   AR   Ar  113   3.300   4.915   0.452
    1   AR   Ar  114   2.843   0.049  -0.923
    1   AR   Ar  115   2.343   4.853  -0.919
    1   AR   Ar  116   6.173   0.526  -0.586
    1   AR   Ar  117   0.646   5.308   3.902
    1   AR   Ar  118   1.252   5.674   3.070
    1   AR   Ar  119   1.820   3.285   2.780
    1   AR   Ar  120   1.797   6.585   1.904
    1   AR   Ar  121   5.597   3.659   4.892
    1   AR   Ar  122   2.831   6.090   5.133
    1   AR   Ar  123   3.359   4.029   4.975
    1   AR   Ar  124   1.409   5.560   1.995
    1   AR   Ar  125   6.926   3.871   5.103
    1   AR   Ar  126   7.103   7.086   4.555
    1   AR   Ar  127   4.323   3.716   6.474
    1   AR   Ar  128   3.337   4.886   6.635
    1   AR   Ar  129   2.521   5.909   3.100
    1   AR   Ar  130   4.393   2.583  -2.542
    1   AR   Ar  131   3.657   2.191  -0.346
    1   AR   Ar  132   6.959   2.449  -0.222
    1   AR   Ar  133   4.666   6.402   3.148
    1   AR   Ar  134   4.359   0.890   4.171
    1   AR   Ar  135   5.931   0.769   2.349
    1   AR   Ar  136   5.367   7.054   2.511
    1   AR   Ar  137   2.007   5.031   3.974
    1   AR   Ar  138   4.707   1.434   5.729
    1   AR   Ar  139   5.833   2.270   5.445
    1   AR   Ar  140   4.184   6.860   4.115
    1   AR   Ar  141   4.111   4.945   4.573
    1   AR   Ar  142   2.824   0.008   6.273
    1   AR   Ar  143   6.490   7.065   5.596
    1   AR   Ar  144   6.723   1.634   4.999
    1   AR   Ar  145   5.023   4.201  -0.555
    1   AR   Ar  146   2.757   2.641   2.469
    1   AR   Ar  147   4.558   1.812  -1.685
    1   AR   Ar  148   3.420   5.816  -1.095
    1   AR   Ar  149   2.607   2.037   0.297
    1   AR   Ar  150   2.536   1.239   2.237
    1   AR   Ar  151   2.395   1.682   3.176
    1   AR   Ar  152   2.837   2.544  -0.976
    1   AR   Ar  153   5.099   0.200   3.558
    1   AR   Ar  154   3.737   1.817   4.459
    1   AR   Ar  155   6.508   6.343   6.621
    1   AR   Ar  156   3.386   3.428   2.925
    1   AR   Ar  157   1.488   3.874   6.573
    1   AR   Ar  158   0.364   2.145   6.801
    1   AR   Ar  159   4.652   1.783   7.469
    1   AR   Ar  160   1.775   1.887   5.216
    1   AR   Ar  161   5.330   3.714   1.854
    1   AR   Ar  162   4.778   5.847  -0.685
    1   AR   Ar  163   5.719   3.657   0.135
    1   AR   Ar  164   2.901   5.192   2.436
    1   AR   Ar  165   4.254   2.520   0.725
    1   AR   Ar  166   3.166   2.939   4.648
    1   AR   Ar  167   4.871   0.861   2.726
    1   AR   Ar  168   5.494   3.752  -1.388
    1   AR   Ar  169   2.784   4.286   2.555
    1   AR   Ar  170   2.288   4.186   5.975
    1   AR   Ar  171   6.046   3.968   3.824
    1   AR   Ar  172   4.342   4.369   5.511
    1   AR   Ar  173   3.258   3.550   6.923
    1   AR   Ar  174   2.480   6.047   6.659
    1   AR   Ar  175   2.936   2.036   6.514
    1   AR   Ar  176   3.856   1.950   5.584
    1   AR   Ar  177   6.931   5.018  -1.029
    1   AR   Ar  178   4.027   4.947  -0.385
    1   AR   Ar  179   4.073   5.822   0.108
    1   AR   Ar  180   1.851   1.552  -3.012
    1   AR   Ar  181   0.292   6.009   1.452
    1   AR   Ar  182   2.455   7.089   3.036
    1   AR   Ar  183   3.891   4.937   2.448
    1   AR   Ar  184   4.961   6.605   1.231
    1   AR   Ar  185   2.709   4.953   4.658
    1   AR   Ar  186   2.930   4.524   3.656
    1   AR   Ar  187   3.402   6.596   3.231
    1   AR   Ar  188   2.956   6.981   1.743
    1   AR   Ar  189   4.020   2.552   6.611
    1   AR   Ar  190   3.279   5.636   4.089
    1   AR   Ar  191   2.867   6.734   7.737
    1   AR   Ar  192   3.944   5.983   4.870
    1   AR   Ar  193   2.945   5.870   1.396
    1   AR   Ar  194   3.895   3.733  -0.914
    1   AR   Ar  195   5.729   1.709   0.338
    1   AR   Ar  196   4.391   0.399  -0.010
    1   AR   Ar  197   3.646   1.442   0.478
    1   AR   Ar  198   6.043   1.486   1.341
    1   AR   Ar  199   3.417   1.373   2.939
    1   AR   Ar  200   5.974   2.643  -0.156
    1   AR   Ar  201   5.874   6.326   3.965
    1   AR   Ar  202   5.745   1.170   4.829
    1   AR   Ar  203   6.425   6.484   3.053
    1   AR   Ar  204   4.862   6.545   5.257
    1   AR   Ar  205   6.742   0.166   2.076
    1   AR   Ar  206   4.923   0.542   4.970
    1   AR   Ar  207   0.596   1.372   6.060
    1   AR   Ar  208   0.230   6.964   3.510
    1   AR   Ar  209   0.097   2.713  -1.996
    1   AR   Ar  210   3.000   0.102   0.249
    1   AR   Ar  211   6.702   3.139   0.824
    1   AR   Ar  212   6.704   3.567  -1.012
    1   AR   Ar  213   3.601   0.624   2.114
    1   AR   Ar  214   4.494   3.383   2.517
    1   AR   Ar  215   5.453   2.940   1.242
    1   AR   Ar  216   0.334   3.068   1.691
    1   AR   Ar  217   5.305   2.787   4.414
    1   AR   Ar  218   4.155   3.247   4.770
    1   AR   Ar  219   4.503   2.669   3.815
    1   AR   Ar  220   4.044   4.026   1.681
    1   AR   Ar  221   6.565   6.110   4.950
    1   AR   Ar  222   4.954   0.418   6.183
    1   AR   Ar  223   6.505   1.342   6.257
    1   AR   Ar  224   4.833   2.836   5.844
    1   AR   Ar  225   5.817   3.039   2.935
    1   AR   Ar  226   1.999   3.522   3.903
    1   AR   Ar  227   6.502   3.423   1.778
    1   AR   Ar  228   6.086   6.516   1.731
    1   AR   Ar  229   5.506   4.993  -1.314
    1   AR   Ar  230   3.883   3.941   3.898
    1   AR   Ar  231   5.580   1.475   3.658
    1   AR   Ar  232   4.872   2.102   1.440
    1   AR   Ar  233   6.148   2.384   3.817
    1   AR   Ar  234   6.396   2.901   4.714
    1   AR   Ar  235   6.557   1.018   3.505
    1   AR   Ar  236   5.613   5.387   5.618
    1   AR   Ar  237   5.888   3.197   5.965
    1   AR   Ar  238   5.030   4.623   6.393
    1   AR   Ar  239   6.729   4.080   8.908
    1   AR   Ar  240   6.764   3.031   7.128
    1   AR   Ar  241   1.436   6.515  -0.431
    1   AR   Ar  242   5.440   5.053   0.487
    1   AR   Ar  243   4.735   4.369   2.898
    1   AR   Ar  244   0.520   5.508  -0.217
    1   AR   Ar  245   4.513   0.393   1.113
    1   AR   Ar  246   5.380   6.739  -0.085
    1   AR   Ar  247   5.952   4.137   1.069
    1   AR   Ar  248   5.986   6.025  -0.372
    1   AR   Ar  249   4.340   5.782   1.471
    1   AR   Ar  250   4.961   5.711   4.418
    1   AR   Ar  251   4.970   4.455   4.144
    1   AR   Ar  252   4.369   5.268   3.388
    1   AR   Ar  253   6.872   3.959   6.482
    1   AR   Ar  254   2.179   2.200   9.457
    1   AR   Ar  255   3.622   4.479   9.557
    1   AR   Ar  256   6.463   4.897   2.952
    7.12000  7.12000 12.00000
Argon-slab step 3475
  256
    1   AR   Ar    1   5.995   2.430  -1.834
    1   AR   Ar    2   6.238   0.507   0.428
    1   AR   Ar    3   3.140   1.269  -0.556
    1   AR   Ar    4   1.591   0.851  -0.201
    1   AR   Ar    5   6.788   6.921   1.006
    1   AR   Ar    6   7.062   1.006   2.587
    1   AR   Ar    7   5.813   4.073   2.853
    1   AR   Ar    8   5.657   0.336   1.235
    1   AR   Ar    9   1.222   6.697   3.312
    1   AR   Ar   10   0.566   0.826   3.976
    1   AR   Ar   11   2.138   6.495   4.351
    1   AR   Ar   12   0.805   1.760   3.224
    1   AR   Ar   13   0.204   0.601   5.401
    1   AR   Ar   14   6.320   2.029   7.480
    1   AR   Ar   15   5.104   6.677   8.164
    1   AR   Ar   16   0.794   6.921   5.119
    1   AR   Ar   17   6.649   2.187   0.683
    1   AR   Ar   18   5.935   4.742  -0.452
    1   AR   Ar   19   2.812   3.520   0.729
    1   AR   Ar   20   4.226   5.306  -1.938
    1   AR   Ar   21   3.756   1.693   1.481
    1   AR   Ar   22   6.329   1.815   2.823
    1   AR   Ar   23   0.390   0.932   0.083
    1   AR   Ar   24   6.404   2.435   1.795
    1   AR   Ar   25   0.757   2.070   4.525
    1   AR   Ar   26   6.251   0.158   3.950
    1   AR   Ar   27   1.498   0.873   2.818
    1   AR   Ar   28   0.310   2.819   5.134
    1   AR   Ar   29   5.262   2.949   6.974
    1   AR   Ar   30   2.046   1.258   4.086
    1   AR   Ar   31   3.300   0.778   6.995
    1   AR   Ar   32   1.178   2.842   6.656
    1   AR   Ar   33   0.853   4.308   0.371
    1   AR   Ar   34   0.410   5.216   2.329
    1   AR   Ar   35   5.886   5.683   1.295
    1   AR   Ar   36   5.931   0.957  -3.544
    1   AR   Ar   37   5.471   2.424   2.203
    1   AR   Ar   38   7.057   4.070   2.364
    1   AR   Ar   39   0.961   3.851   2.365
    1   AR   Ar   40   2.343   3.455   1.928
    1   AR   Ar   41   0.074   2.389   3.645
    1   AR   Ar   42   5.875   4.970   4.707
    1   AR   Ar   43   6.880   2.364   5.891
    1   AR   Ar   44   0.657   4.368   3.378
    1   AR   Ar   45   0.832   3.587   5.559
    1   AR   Ar   46   6.986   5.027   4.826
    1   AR   Ar   47   5.925   4.255   7.320
    1   AR   Ar   48   6.348   5.049   6.511
    1   AR   Ar   49   5.369   0.877  -1.257
    1   AR   Ar   50   4.417   4.596   0.623
    1   AR   Ar   51   6.694   4.817   1.518
    1   AR   Ar   52   6.421   3.527  -2.826
    1   AR   Ar   53   5.396   5.364   2.806
    1   AR   Ar   54   0.495   6.415   2.465
    1   AR   Ar   55   6.639   5.739   2.066
    1   AR   Ar   56   6.914   0.886   1.334
    1   AR   Ar   57   5.009   3.554   3.517
    1   AR   Ar   58   6.936   3.263   3.981
    1   AR   Ar   59   2.147   5.225   5.669
    1   AR   Ar   60   0.099   5.683   3.169
    1   AR   Ar   61   0.153   4.720   5.870
    1   AR   Ar   62   6.947   4.370   4.098
    1   AR   Ar   63   2.074   0.850   6.616
    1   AR   Ar   64   1.365   5.461   4.925
    1   AR   Ar   65   3.744   6.779   0.835
    1   AR   Ar   66   0.915   1.357   1.767
    1   AR   Ar   67   3.707   6.667  -0.576
    1   AR   Ar   68   1.923   1.968  -1.030
    1   AR   Ar   69   2.457   1.090   0.718
    1   AR   Ar   70   0.755   0.266   2.313
    1   AR   Ar   71   2.922   0.700   3.844
    1   AR   Ar   72   4.045   6.859   2.482
    1   AR   Ar   73   3.914   0.553   3.298
    1   AR   Ar   74   1.651   0.684   4.812
    1   AR   Ar   75   3.575   0.778   5.010
    1   AR   Ar   76   1.599   0.597   1.905
    1   AR   Ar   77   1.907   6.935   5.300
    1   AR   Ar   78   0.266   6.339   5.709
    1   AR   Ar   79   3.432   6.038   6.146
    1   AR   Ar   80   3.459   4.976   5.568
    1   AR   Ar   81   2.613   5.906   0.300
    1   AR   Ar   82   6.538   5.072   0.406
    1   AR   Ar   83   0.630   2.166   0.759
    1   AR   Ar   84   0.177   3.996   1.274
    1   AR   Ar   85   1.507   3.410   1.336
    1   AR   Ar   86   1.725   5.113   0.842
    1   AR   Ar   87   1.866   2.385   0.897
    1   AR   Ar   88   2.151   4.580   1.646
    1   AR   Ar   89   0.082   3.143   3.006
    1   AR   Ar   90   2.460   2.161   4.453
    1   AR   Ar   91   1.381   2.630   3.400
    1   AR   Ar   92   1.320   2.547   2.017
    1   AR   Ar   93   1.290   0.471   5.925
    1   AR   Ar   94   0.235   0.272  11.508
    1   AR   Ar   95   3.897   0.715   5.950
    1   AR   Ar   96   2.752   0.030   4.732
    1   AR   Ar   97   4.623   1.769  -0.252
    1   AR   Ar   98   1.719   4.702   2.690
    1   AR   Ar   99   6.762   1.447  -0.285
    1   AR   Ar  100   1.361   2.884  -0.605
    1   AR   Ar  101   3.552   4.896   1.493
    1   AR   Ar  102   3.582   2.421   3.140
    1   AR   Ar  103   0.754   4.866   1.417
    1   AR   Ar  104   3.034   3.919  -1.710
    1   AR   Ar  105   1.087   3.244   4.229
    1   AR   Ar  106   3.446   3.180   5.724
    1   AR   Ar  107   0.813   4.554   4.813
    1   AR   Ar  108   2.624   1.194   4.970
    1   AR   Ar  109   1.940   4.261   4.929
    1   AR   Ar  110   2.301   2.900   5.404
    1   AR   Ar  111   4.584   4.938   7.783
    1   AR   Ar  112   1.380   6.070   6.165
    1   AR   Ar  113   3.289   4.912   0.469
    1   AR   Ar  114   2.848   0.052  -0.905
    1   AR   Ar  115   2.347   4.824  -0.903
    1   AR   Ar  116   6.167   0.517  -0.559
    1   AR   Ar  117   0.634   5.309   3.916
    1   AR   Ar  118   1.266   5.676   3.073
    1   AR   Ar  119   1.820   3.246   2.783
    1   AR   Ar  120   1.797   6.589   1.886
    1   AR   Ar  121   5.582   3.659   4.917
    1   AR   Ar  122   2.809   6.079   5.105
    1   AR   Ar  123   3.357   4.025   4.976
    1   AR   Ar  124   1.448   5.583   1.995
    1   AR   Ar  125   6.898   3.885   5.091
    1   AR   Ar  126   7.113   7.071   4.557
    1   AR   Ar  127   4.348   3.716   6.431
    1   AR   Ar  128   3.354   4.889   6.611
    1   AR   Ar  129   2.506   5.890   3.109
    1   AR   Ar  130   4.382   2.567  -2.571
    1   AR   Ar  131   3.628   2.217  -0.347
    1   AR   Ar  132   6.945   2.471  -0.222
    1   AR   Ar  133   4.715   6.390   3.135
    1   AR   Ar  134   4.379   0.878   4.196
    1   AR   Ar  135   5.925   0.775   2.357
    1   AR   Ar  136   5.379   7.032   2.543
    1   AR   Ar  137   2.043   5.030   3.987
    1   AR   Ar  138   4.716   1.435   5.743
    1   AR   Ar  139   5.839   2.237   5.464
    1   AR   Ar  140   4.196   6.861   4.130
    1   AR   Ar  141   4.141   4.946   4.581
    1   AR   Ar  142   2.824   7.107   6.278
    1   AR   Ar  143   6.479   7.037   5.556
    1   AR   Ar  144   6.753   1.624   4.991
    1   AR   Ar  145   5.029   4.221  -0.552
    1   AR   Ar  146   2.770   2.664   2.480
    1   AR   Ar  147   4.548   1.839  -1.681
    1   AR   Ar  148   3.419   5.829  -1.089
    1   AR   Ar  149   2.608   2.057   0.297
    1   AR   Ar  150   2.490   1.247   2.230
    1   AR   Ar  151   2.350   1.658   3.188
    1   AR   Ar  152   2.836   2.545  -0.999
    1   AR   Ar  153   5.090   0.207   3.574
    1   AR   Ar  154   3.718   1.810   4.433
    1   AR   Ar  155   6.501   6.291   6.575
    1   AR   Ar  156   3.374   3.405   2.902
    1   AR   Ar  157   1.464   3.876   6.563
    1   AR   Ar  158   0.358   2.123   6.781
    1   AR   Ar  159   4.669   1.812   7.454
    1   AR   Ar  160   1.768   1.925   5.228
    1   AR   Ar  161   5.302   3.734   1.834
    1   AR   Ar  162   4.760   5.848  -0.691
    1   AR   Ar  163   5.744   3.691   0.108
    1   AR   Ar  164   2.886   5.204   2.458
    1   AR   Ar  165   4.274   2.514   0.695
    1   AR   Ar  166   3.197   2.906   4.639
    1   AR   Ar  167   4.832   0.872   2.730
    1   AR   Ar  168   5.535   3.743  -1.389
    1   AR   Ar  169   2.828   4.235   2.545
    1   AR   Ar  170   2.312   4.163   5.959
    1   AR   Ar  171   6.042   3.983   3.799
    1   AR   Ar  172   4.324   4.375   5.539
    1   AR   Ar  173   3.231   3.542   6.927
    1   AR   Ar  174   2.477   6.060   6.661
    1   AR   Ar  175   2.957   2.007   6.551
    1   AR   Ar  176   3.879   1.969   5.560
    1   AR   Ar  177   6.949   5.057  -1.054
    1   AR   Ar  178   4.016   4.961  -0.389
    1   AR   Ar  179   4.046   5.842   0.094
    1   AR   Ar  180   1.875   1.576  -3.006
    1   AR   Ar  181   0.289   5.992   1.452
    1   AR   Ar  182   2.437   7.073   2.988
    1   AR   Ar  183   3.904   4.921   2.471
    1   AR   Ar  184   4.954   6.614   1.217
    1   AR   Ar  185   2.696   4.978   4.696
    1   AR   Ar  186   2.922   4.548   3.636
    1   AR   Ar  187   3.394   6.601   3.236
    1   AR   Ar  188   2.952   6.965   1.758
    1   AR   Ar  189   4.024   2.543   6.611
    1   AR   Ar  190   3.275   5.639   4.092
    1   AR   Ar  191   2.848   6.732   7.758
    1   AR   Ar  192   3.955   6.000   4.863
    1   AR   Ar  193   2.982   5.844   1.431
    1   AR   Ar  194   3.872   3.734  -0.910
    1   AR   Ar  195   5.705   1.733   0.309
    1   AR   Ar  196   4.430   0.383  -0.011
    1   AR   Ar  197   3.645   1.448   0.448
    1   AR   Ar  198   6.028   1.488   1.328
    1   AR   Ar  199   3.404   1.344   2.922
    1   AR   Ar  200   5.982   2.630  -0.171
    1   AR   Ar  201   5.870   6.348   3.977
    1   AR   Ar  202   5.767   1.143   4.824
    1   AR   Ar  203   6.429   6.465   3.069
    1   AR   Ar  204   4.849   6.513   5.285
    1   AR   Ar  205   6.769   0.150   2.045
    1   AR   Ar  206   4.951   0.539   4.979
    1   AR   Ar  207   0.630   1.381   6.042
    1   AR   Ar  208   0.221   6.963   3.516
    1   AR   Ar  209   0.057   2.717  -2.026
    1   AR   Ar  210   2.959   0.119   0.237
    1   AR   Ar  211   6.702   3.138   0.835
    1   AR   Ar  212   6.694   3.510  -1.004
    1   AR   Ar  213   3.558   0.626   2.070
    1   AR   Ar  214   4.488   3.391   2.520
    1   AR   Ar  215   5.460   2.902   1.237
    1   AR   Ar  216   0.344   3.074   1.711
    1   AR   Ar  217   5.311   2.776   4.416
    1   AR   Ar  218   4.151   3.242   4.750
    1   AR   Ar  219   4.454   2.682   3.820
    1   AR   Ar  220   4.039   4.003   1.652
    1   AR   Ar  221   6.555   6.086   4.936
    1   AR   Ar  222   4.985   0.408   6.210
    1   AR   Ar  223   6.474   1.350   6.264
    1   AR   Ar  224   4.829   2.836   5.836
    1   AR   Ar  225   5.843   3.032   2.968
    1   AR   Ar  226   1.999   3.522   3.920
    1   AR   Ar  227   6.504   3.386   1.794
    1   AR   Ar  228   6.059   6.536   1.701
    1   AR   Ar  229   5.490   5.038  -1.304
    1   AR   Ar  230   3.926   3.928   3.906
    1   AR   Ar  231   5.597   1.470   3.661
    1   AR   Ar  232   4.868   2.094   1.454
    1   AR   Ar  233   6.110   2.378   3.829
    1   AR   Ar  234   6.375   2.937   4.733
    1   AR   Ar  235   6.559   1.008   3.510
    1   AR   Ar  236   5.604   5.381   5.596
    1   AR   Ar  237   5.896   3.183   5.986
    1   AR   Ar  238   5.037   4.589   6.365
    1   AR   Ar  239   6.717   4.080   8.943
    1   AR   Ar  240   6.738   3.000   7.117
    1   AR   Ar  241   1.458   6.524  -0.409
    1   AR   Ar  242   5.479   5.056   0.528
    1   AR   Ar  243   4.751   4.384   2.866
    1   AR   Ar  244   0.509   5.503  -0.212
    1   AR   Ar  245   4.520   0.387   1.117
    1   AR   Ar  246   5.392   6.742  -0.096
    1   AR   Ar  247   5.926   4.134   1.053
    1   AR   Ar  248   5.977   6.013  -0.379
    1   AR   Ar  249   4.339   5.774   1.471
    1   AR   Ar  250   4.948   5.719   4.418
    1   AR   Ar  251   4.950   4.412   4.157
    1   AR   Ar  252   4.383   5.275   3.383
    1   AR   Ar  253   6.865   3.951   6.519
    1   AR   Ar  254   2.193   2.206   9.456
    1   AR   Ar  255   3.612   4.515   9.574
    1   AR   Ar  256   6.443   4.915   2.959
    7.12000  7.12000 12.00000
Argon-slab step 3480
  256
    1   AR   Ar    1   5.997   2.484  -1.863
    1   AR   Ar    2   6.193   0.549   0.424
    1   AR   Ar    3   3.161   1.267  -0.564
    1   AR   Ar    4   1.587   0.864  -0.252
    1   AR   Ar    5   6.793   6.898   1.005
    1   AR   Ar    6   7.050   1.015   2.583
    1   AR   Ar    7   5.785   4.072   2.864
    1   AR   Ar    8   5.650   0.350   1.269
    1   AR   Ar    9   1.238   6.683   3.291
    1   AR   Ar   10   0.549   0.817   3.979
    1   AR   Ar   11   2.121   6.477   4.346
    1   AR   Ar   12   0.826   1.745   3.228
    1   AR   Ar   13   0.201   0.601   5.375
    1   AR   Ar   14   6.315   2.031   7.472
    1   AR   Ar   15   5.123   6.694   8.142
    1   AR   Ar   16   0.803   6.897   5.144
    1   AR   Ar   17   6.662   2.208   0.693
    1   AR   Ar   18   5.944   4.724  -0.463
    1   AR   Ar   19   2.810   3.533   0.708
    1   AR   Ar   20   4.199   5.323  -1.916
    1   AR   Ar   21   3.747   1.691   1.469
    1   AR   Ar   22   6.336   1.844   2.819
    1   AR   Ar   23   0.408   0.916   0.114
    1   AR   Ar   24   6.435   2.455   1.808
    1   AR   Ar   25   0.744   2.033   4.515
    1   AR   Ar   26   6.287   0.142   3.964
    1   AR   Ar   27   1.475   0.886   2.809
    1   AR   Ar   28   0.303   2.793   5.150
    1   AR   Ar   29   5.272   2.948   6.989
    1   AR   Ar   30   2.044   1.275   4.091
    1   AR   Ar   31   3.278   0.824   6.984
    1   AR   Ar   32   1.167   2.819   6.663
    1   AR   Ar   33   0.829   4.299   0.434
    1   AR   Ar   34   0.399   5.221   2.314
    1   AR   Ar   35   5.908   5.699   1.297
    1   AR   Ar   36   5.929   0.961  -3.503
    1   AR   Ar   37   5.448   2.397   2.214
    1   AR   Ar   38   7.063   4.054   2.385
    1   AR   Ar   39   0.924   3.843   2.314
    1   AR   Ar   40   2.347   3.451   1.930
    1   AR   Ar   41   0.106   2.382   3.634
    1   AR   Ar   42   5.853   4.965   4.706
    1   AR   Ar   43   6.891   2.365   5.916
    1   AR   Ar   44   0.666   4.366   3.369
    1   AR   Ar   45   0.823   3.580   5.567
    1   AR   Ar   46   6.962   5.048   4.837
    1   AR   Ar   47   5.903   4.257   7.329
    1   AR   Ar   48   6.348   5.012   6.523
    1   AR   Ar   49   5.382   0.863  -1.248
    1   AR   Ar   50   4.394   4.585   0.624
    1   AR   Ar   51   6.690   4.815   1.540
    1   AR   Ar   52   6.427   3.467  -2.840
    1   AR   Ar   53   5.405   5.375   2.783
    1   AR   Ar   54   0.500   6.418   2.488
    1   AR   Ar   55   6.628   5.754   2.107
    1   AR   Ar   56   6.931   0.860   1.353
    1   AR   Ar   57   5.006   3.557   3.516
    1   AR   Ar   58   6.942   3.254   3.982
    1   AR   Ar   59   2.167   5.200   5.707
    1   AR   Ar   60   0.112   5.679   3.183
    1   AR   Ar   61   0.168   4.712   5.902
    1   AR   Ar   62   6.917   4.375   4.099
    1   AR   Ar   63   2.107   0.835   6.609
    1   AR   Ar   64   1.363   5.474   4.922
    1   AR   Ar   65   3.758   6.740   0.816
    1   AR   Ar   66   0.918   1.384   1.785
    1   AR   Ar   67   3.730   6.641  -0.561
    1   AR   Ar   68   1.913   1.945  -1.034
    1   AR   Ar   69   2.419   1.088   0.686
    1   AR   Ar   70   0.751   0.268   2.332
    1   AR   Ar   71   2.882   0.728   3.843
    1   AR   Ar   72   4.054   6.845   2.469
    1   AR   Ar   73   3.961   0.527   3.340
    1   AR   Ar   74   1.655   0.653   4.827
    1   AR   Ar   75   3.548   0.761   4.998
    1   AR   Ar   76   1.612   0.595   1.884
    1   AR   Ar   77   1.890   6.919   5.281
    1   AR   Ar   78   0.269   6.336   5.733
    1   AR   Ar   79   3.429   6.066   6.154
    1   AR   Ar   80   3.469   4.971   5.582
    1   AR   Ar   81   2.595   5.910   0.291
    1   AR   Ar   82   6.537   5.052   0.437
    1   AR   Ar   83   0.664   2.158   0.798
    1   AR   Ar   84   0.170   4.030   1.275
    1   AR   Ar   85   1.520   3.389   1.323
    1   AR   Ar   86   1.712   5.116   0.860
    1   AR   Ar   87   1.874   2.396   0.903
    1   AR   Ar   88   2.163   4.558   1.682
    1   AR   Ar   89   0.097   3.149   2.978
    1   AR   Ar   90   2.452   2.141   4.440
    1   AR   Ar   91   1.361   2.608   3.416
    1   AR   Ar   92   1.307   2.574   2.022
    1   AR   Ar   93   1.287   0.450   5.890
    1   AR   Ar   94   0.226   0.234  11.508
    1   AR   Ar   95   3.897   0.707   5.941
    1   AR   Ar   96   2.734   0.042   4.720
    1   AR   Ar   97   4.619   1.764  -0.260
    1   AR   Ar   98   1.697   4.705   2.711
    1   AR   Ar   99   6.750   1.445  -0.300
    1   AR   Ar  100   1.380   2.867  -0.619
    1   AR   Ar  101   3.545   4.903   1.479
    1   AR   Ar  102   3.584   2.424   3.132
    1   AR   Ar  103   0.744   4.851   1.434
    1   AR   Ar  104   3.028   3.888  -1.680
    1   AR   Ar  105   1.091   3.223   4.238
    1   AR   Ar  106   3.457   3.195   5.740
    1   AR   Ar  107   0.816   4.551   4.785
    1   AR   Ar  108   2.603   1.136   4.980
    1   AR   Ar  109   1.935   4.211   4.971
    1   AR   Ar  110   2.284   2.890   5.416
    1   AR   Ar  111   4.592   4.956   7.804
    1   AR   Ar  112   1.373   6.031   6.198
    1   AR   Ar  113   3.278   4.910   0.483
    1   AR   Ar  114   2.852   0.057  -0.887
    1   AR   Ar  115   2.353   4.796  -0.887
    1   AR   Ar  116   6.161   0.509  -0.542
    1   AR   Ar  117   0.629   5.306   3.941
    1   AR   Ar  118   1.280   5.675   3.076
    1   AR   Ar  119   1.823   3.216   2.783
    1   AR   Ar  120   1.797   6.595   1.870
    1   AR   Ar  121   5.567   3.663   4.944
    1   AR   Ar  122   2.789   6.066   5.079
    1   AR   Ar  123   3.355   4.021   4.975
    1   AR   Ar  124   1.485   5.602   1.995
    1   AR   Ar  125   6.870   3.899   5.078
    1   AR   Ar  126   7.115   7.056   4.555
    1   AR   Ar  127   4.372   3.712   6.389
    1   AR   Ar  128   3.370   4.891   6.589
    1   AR   Ar  129   2.488   5.876   3.123
    1   AR   Ar  130   4.371   2.551  -2.599
    1   AR   Ar  131   3.600   2.245  -0.347
    1   AR   Ar  132   6.949   2.498  -0.230
    1   AR   Ar  133   4.764   6.373   3.125
    1   AR   Ar  134   4.397   0.868   4.218
    1   AR   Ar  135   5.921   0.787   2.365
    1   AR   Ar  136   5.390   7.006   2.574
    1   AR   Ar  137   2.064   5.032   3.989
    1   AR   Ar  138   4.732   1.432   5.757
    1   AR   Ar  139   5.846   2.203   5.481
    1   AR   Ar  140   4.209   6.862   4.144
    1   AR   Ar  141   4.166   4.947   4.589
    1   AR   Ar  142   2.825   7.086   6.281
    1   AR   Ar  143   6.469   7.009   5.515
    1   AR   Ar  144   6.784   1.616   4.984
    1   AR   Ar  145   5.029   4.243  -0.549
    1   AR   Ar  146   2.779   2.681   2.491
    1   AR   Ar  147   4.539   1.866  -1.677
    1   AR   Ar  148   3.418   5.836  -1.085
    1   AR   Ar  149   2.617   2.077   0.290
    1   AR   Ar  150   2.444   1.253   2.221
    1   AR   Ar  151   2.325   1.653   3.199
    1   AR   Ar  152   2.835   2.548  -1.022
    1   AR   Ar  153   5.081   0.215   3.592
    1   AR   Ar  154   3.698   1.803   4.408
    1   AR   Ar  155   6.496   6.238   6.528
    1   AR   Ar  156   3.366   3.387   2.881
    1   AR   Ar  157   1.439   3.879   6.552
    1   AR   Ar  158   0.350   2.102   6.762
    1   AR   Ar  159   4.687   1.843   7.437
    1   AR   Ar  160   1.758   1.961   5.241
    1   AR   Ar  161   5.273   3.757   1.820
    1   AR   Ar  162   4.744   5.848  -0.699
    1   AR   Ar  163   5.769   3.724   0.080
    1   AR   Ar  164   2.870   5.229   2.473
    1   AR   Ar  165   4.292   2.507   0.663
    1   AR   Ar  166   3.223   2.872   4.631
    1   AR   Ar  167   4.816   0.892   2.732
    1   AR   Ar  168   5.577   3.735  -1.390
    1   AR   Ar  169   2.869   4.171   2.536
    1   AR   Ar  170   2.338   4.139   5.941
    1   AR   Ar  171   6.035   3.990   3.789
    1   AR   Ar  172   4.313   4.385   5.557
    1   AR   Ar  173   3.205   3.533   6.928
    1   AR   Ar  174   2.472   6.074   6.662
    1   AR   Ar  175   2.980   1.977   6.588
    1   AR   Ar  176   3.894   1.994   5.535
    1   AR   Ar  177   6.965   5.097  -1.078
    1   AR   Ar  178   4.017   4.966  -0.392
    1   AR   Ar  179   4.015   5.869   0.088
    1   AR   Ar  180   1.899   1.600  -3.000
    1   AR   Ar  181   0.239   5.951   1.443
    1   AR   Ar  182   2.418   7.057   2.938
    1   AR   Ar  183   3.881   4.915   2.462
    1   AR   Ar  184   4.953   6.615   1.203
    1   AR   Ar  185   2.696   5.002   4.748
    1   AR   Ar  186   2.918   4.571   3.615
    1   AR   Ar  187   3.384   6.604   3.247
    1   AR   Ar  188   2.946   6.944   1.772
    1   AR   Ar  189   4.029   2.535   6.611
    1   AR   Ar  190   3.270   5.643   4.093
    1   AR   Ar  191   2.829   6.730   7.777
    1   AR   Ar  192   3.964   6.019   4.857
    1   AR   Ar  193   3.020   5.818   1.465
    1   AR   Ar  194   3.850   3.735  -0.905
    1   AR   Ar  195   5.679   1.754   0.280
    1   AR   Ar  196   4.461   0.381   0.039
    1   AR   Ar  197   3.633   1.469   0.440
    1   AR   Ar  198   6.011   1.491   1.317
    1   AR   Ar  199   3.386   1.320   2.903
    1   AR   Ar  200   5.979   2.623  -0.185
    1   AR   Ar  201   5.861   6.362   3.991
    1   AR   Ar  202   5.767   1.129   4.840
    1   AR   Ar  203   6.435   6.446   3.081
    1   AR   Ar  204   4.836   6.481   5.313
    1   AR   Ar  205   6.796   0.127   2.018
    1   AR   Ar  206   4.912   0.531   4.992
    1   AR   Ar  207   0.620   1.398   6.041
    1   AR   Ar  208   0.210   6.963   3.519
    1   AR   Ar  209   0.016   2.721  -2.055
    1   AR   Ar  210   2.918   0.137   0.223
    1   AR   Ar  211   6.703   3.152   0.841
    1   AR   Ar  212   6.681   3.452  -0.997
    1   AR   Ar  213   3.518   0.633   2.028
    1   AR   Ar  214   4.482   3.397   2.523
    1   AR   Ar  215   5.474   2.866   1.226
    1   AR   Ar  216   0.362   3.074   1.733
    1   AR   Ar  217   5.325   2.797   4.408
    1   AR   Ar  218   4.154   3.238   4.732
    1   AR   Ar  219   4.402   2.693   3.823
    1   AR   Ar  220   4.036   3.976   1.625
    1   AR   Ar  221   6.544   6.062   4.922
    1   AR   Ar  222   5.017   0.399   6.235
    1   AR   Ar  223   6.443   1.358   6.269
    1   AR   Ar  224   4.827   2.831   5.820
    1   AR   Ar  225   5.872   3.024   3.004
    1   AR   Ar  226   2.007   3.525   3.933
    1   AR   Ar  227   6.496   3.374   1.816
    1   AR   Ar  228   6.031   6.573   1.680
    1   AR   Ar  229   5.469   5.084  -1.299
    1   AR   Ar  230   3.970   3.916   3.912
    1   AR   Ar  231   5.606   1.467   3.655
    1   AR   Ar  232   4.859   2.078   1.466
    1   AR   Ar  233   6.076   2.374   3.839
    1   AR   Ar  234   6.349   2.969   4.762
    1   AR   Ar  235   6.571   1.013   3.510
    1   AR   Ar  236   5.595   5.378   5.580
    1   AR   Ar  237   5.904   3.170   6.006
    1   AR   Ar  238   5.045   4.557   6.337
    1   AR   Ar  239   6.706   4.080   8.978
    1   AR   Ar  240   6.713   2.970   7.103
    1   AR   Ar  241   1.480   6.532  -0.387
    1   AR   Ar  242   5.514   5.057   0.568
    1   AR   Ar  243   4.769   4.399   2.835
    1   AR   Ar  244   0.499   5.498  -0.206
    1   AR   Ar  245   4.524   0.390   1.122
    1   AR   Ar  246   5.393   6.756  -0.102
    1   AR   Ar  247   5.902   4.131   1.039
    1   AR   Ar  248   5.977   5.988  -0.390
    1   AR   Ar  249   4.330   5.765   1.478
    1   AR   Ar  250   4.936   5.728   4.416
    1   AR   Ar  251   4.933   4.370   4.169
    1   AR   Ar  252   4.395   5.286   3.386
    1   AR   Ar  253   6.856   3.942   6.557
    1   AR   Ar  254   2.207   2.212   9.455
    1   AR   Ar  255   3.602   4.550   9.591
    1   AR   Ar  256   6.426   4.936   2.965
    7.12000  7.12000 12.00000
Argon-slab step 3485
  256
    1   AR   Ar    1   5.999   2.541  -1.891
    1   AR   Ar    2   6.151   0.594   0.433
    1   AR   Ar    3   3.182   1.264  -0.571
    1   AR   Ar    4   1.583   0.878  -0.302
    1   AR   Ar    5   6.798   6.875   1.001
    1   AR   Ar    6   7.042   1.024   2.577
    1   AR   Ar    7   5.785   4.069   2.879
    1   AR   Ar    8   5.640   0.367   1.309
    1   AR   Ar    9   1.257   6.674   3.269
    1   AR   Ar   10   0.531   0.809   3.982
    1   AR   Ar   11   2.097   6.450   4.333
    1   AR   Ar   12   0.846   1.722   3.230
    1   AR   Ar   13   0.195   0.605   5.360
    1   AR   Ar   14   6.309   2.032   7.463
    1   AR   Ar   15   5.142   6.710   8.119
    1   AR   Ar   16   0.827   6.877   5.163
    1   AR   Ar   17   6.671   2.205   0.707
    1   AR   Ar   18   5.961   4.707  -0.469
    1   AR   Ar   19   2.807   3.546   0.688
    1   AR   Ar   20   4.171   5.340  -1.893
    1   AR   Ar   21   3.738   1.690   1.460
    1   AR   Ar   22   6.342   1.875   2.815
    1   AR   Ar   23   0.430   0.897   0.148
    1   AR   Ar   24   6.466   2.439   1.820
    1   AR   Ar   25   0.732   1.996   4.503
    1   AR   Ar   26   6.320   0.139   3.972
    1   AR   Ar   27   1.451   0.886   2.805
    1   AR   Ar   28   0.295   2.767   5.159
    1   AR   Ar   29   5.281   2.946   7.002
    1   AR   Ar   30   2.030   1.293   4.098
    1   AR   Ar   31   3.254   0.869   6.971
    1   AR   Ar   32   1.156   2.795   6.669
    1   AR   Ar   33   0.806   4.292   0.498
    1   AR   Ar   34   0.390   5.224   2.301
    1   AR   Ar   35   5.929   5.699   1.294
    1   AR   Ar   36   5.927   0.964  -3.462
    1   AR   Ar   37   5.428   2.372   2.233
    1   AR   Ar   38   7.061   4.045   2.408
    1   AR   Ar   39   0.897   3.833   2.263
    1   AR   Ar   40   2.355   3.450   1.928
    1   AR   Ar   41   0.139   2.360   3.626
    1   AR   Ar   42   5.833   4.955   4.697
    1   AR   Ar   43   6.896   2.365   5.942
    1   AR   Ar   44   0.675   4.364   3.358
    1   AR   Ar   45   0.816   3.579   5.576
    1   AR   Ar   46   6.938   5.074   4.856
    1   AR   Ar   47   5.881   4.258   7.337
    1   AR   Ar   48   6.347   4.976   6.534
    1   AR   Ar   49   5.394   0.849  -1.239
    1   AR   Ar   50   4.370   4.575   0.625
    1   AR   Ar   51   6.682   4.823   1.558
    1   AR   Ar   52   6.432   3.406  -2.853
    1   AR   Ar   53   5.414   5.387   2.761
    1   AR   Ar   54   0.503   6.421   2.519
    1   AR   Ar   55   6.610   5.770   2.157
    1   AR   Ar   56   6.949   0.841   1.366
    1   AR   Ar   57   5.004   3.558   3.513
    1   AR   Ar   58   6.948   3.260   3.987
    1   AR   Ar   59   2.187   5.176   5.744
    1   AR   Ar   60   0.118   5.682   3.195
    1   AR   Ar   61   0.181   4.710   5.929
    1   AR   Ar   62   6.887   4.369   4.112
    1   AR   Ar   63   2.143   0.820   6.601
    1   AR   Ar   64   1.353   5.490   4.948
    1   AR   Ar   65   3.773   6.700   0.798
    1   AR   Ar   66   0.919   1.414   1.804
    1   AR   Ar   67   3.757   6.623  -0.541
    1   AR   Ar   68   1.903   1.921  -1.036
    1   AR   Ar   69   2.381   1.084   0.653
    1   AR   Ar   70   0.743   0.273   2.351
    1   AR   Ar   71   2.848   0.755   3.840
    1   AR   Ar   72   4.063   6.833   2.453
    1   AR   Ar   73   4.007   0.495   3.379
    1   AR   Ar   74   1.653   0.626   4.841
    1   AR   Ar   75   3.525   0.744   4.977
    1   AR   Ar   76   1.636   0.588   1.848
    1   AR   Ar   77   1.874   6.892   5.271
    1   AR   Ar   78   0.262   6.325   5.764
    1   AR   Ar   79   3.449   6.090   6.156
    1   AR   Ar   80   3.474   4.971   5.588
    1   AR   Ar   81   2.578   5.913   0.283
    1   AR   Ar   82   6.542   5.032   0.468
    1   AR   Ar   83   0.697   2.150   0.838
    1   AR   Ar   84   0.161   4.055   1.274
    1   AR   Ar   85   1.527   3.369   1.307
    1   AR   Ar   86   1.697   5.115   0.876
    1   AR   Ar   87   1.876   2.410   0.913
    1   AR   Ar   88   2.176   4.536   1.721
    1   AR   Ar   89   0.114   3.160   2.941
    1   AR   Ar   90   2.447   2.125   4.427
    1   AR   Ar   91   1.340   2.582   3.439
    1   AR   Ar   92   1.294   2.600   2.028
    1   AR   Ar   93   1.282   0.431   5.856
    1   AR   Ar   94   0.217   0.197  11.508
    1   AR   Ar   95   3.900   0.698   5.940
    1   AR   Ar   96   2.724   0.052   4.734
    1   AR   Ar   97   4.614   1.759  -0.267
    1   AR   Ar   98   1.676   4.706   2.731
    1   AR   Ar   99   6.731   1.444  -0.315
    1   AR   Ar  100   1.399   2.849  -0.633
    1   AR   Ar  101   3.520   4.906   1.470
    1   AR   Ar  102   3.600   2.417   3.119
    1   AR   Ar  103   0.740   4.839   1.447
    1   AR   Ar  104   3.022   3.857  -1.650
    1   AR   Ar  105   1.085   3.200   4.252
    1   AR   Ar  106   3.469   3.209   5.756
    1   AR   Ar  107   0.819   4.545   4.756
    1   AR   Ar  108   2.580   1.081   4.990
    1   AR   Ar  109   1.927   4.162   5.010
    1   AR   Ar  110   2.269   2.883   5.426
    1   AR   Ar  111   4.600   4.973   7.824
    1   AR   Ar  112   1.368   5.993   6.228
    1   AR   Ar  113   3.267   4.910   0.492
    1   AR   Ar  114   2.854   0.062  -0.869
    1   AR   Ar  115   2.360   4.768  -0.870
    1   AR   Ar  116   6.158   0.507  -0.544
    1   AR   Ar  117   0.620   5.300   3.969
    1   AR   Ar  118   1.271   5.661   3.104
    1   AR   Ar  119   1.828   3.193   2.780
    1   AR   Ar  120   1.799   6.605   1.854
    1   AR   Ar  121   5.558   3.672   4.969
    1   AR   Ar  122   2.769   6.052   5.055
    1   AR   Ar  123   3.354   4.019   4.974
    1   AR   Ar  124   1.521   5.616   1.995
    1   AR   Ar  125   6.843   3.913   5.067
    1   AR   Ar  126   0.009   7.034   4.565
    1   AR   Ar  127   4.394   3.705   6.347
    1   AR   Ar  128   3.385   4.892   6.573
    1   AR   Ar  129   2.465   5.868   3.146
    1   AR   Ar  130   4.360   2.534  -2.626
    1   AR   Ar  131   3.606   2.255  -0.358
    1   AR   Ar  132   6.968   2.529  -0.246
    1   AR   Ar  133   4.812   6.353   3.120
    1   AR   Ar  134   4.411   0.865   4.234
    1   AR   Ar  135   5.919   0.800   2.372
    1   AR   Ar  136   5.403   6.980   2.603
    1   AR   Ar  137   2.069   5.031   3.992
    1   AR   Ar  138   4.753   1.427   5.771
    1   AR   Ar  139   5.852   2.167   5.497
    1   AR   Ar  140   4.221   6.864   4.158
    1   AR   Ar  141   4.186   4.949   4.598
    1   AR   Ar  142   2.825   7.066   6.284
    1   AR   Ar  143   6.458   6.980   5.475
    1   AR   Ar  144   6.815   1.608   4.977
    1   AR   Ar  145   5.024   4.264  -0.546
    1   AR   Ar  146   2.781   2.689   2.499
    1   AR   Ar  147   4.530   1.893  -1.671
    1   AR   Ar  148   3.416   5.835  -1.083
    1   AR   Ar  149   2.633   2.095   0.277
    1   AR   Ar  150   2.399   1.258   2.210
    1   AR   Ar  151   2.331   1.678   3.205
    1   AR   Ar  152   2.833   2.551  -1.045
    1   AR   Ar  153   5.073   0.223   3.610
    1   AR   Ar  154   3.677   1.797   4.382
    1   AR   Ar  155   6.490   6.184   6.479
    1   AR   Ar  156   3.370   3.374   2.867
    1   AR   Ar  157   1.413   3.882   6.540
    1   AR   Ar  158   0.341   2.083   6.749
    1   AR   Ar  159   4.705   1.875   7.420
    1   AR   Ar  160   1.746   1.993   5.253
    1   AR   Ar  161   5.244   3.779   1.810
    1   AR   Ar  162   4.730   5.847  -0.708
    1   AR   Ar  163   5.796   3.756   0.049
    1   AR   Ar  164   2.854   5.250   2.480
    1   AR   Ar  165   4.308   2.499   0.629
    1   AR   Ar  166   3.243   2.837   4.622
    1   AR   Ar  167   4.801   0.912   2.733
    1   AR   Ar  168   5.621   3.726  -1.389
    1   AR   Ar  169   2.904   4.115   2.523
    1   AR   Ar  170   2.369   4.115   5.925
    1   AR   Ar  171   6.029   3.975   3.804
    1   AR   Ar  172   4.330   4.418   5.543
    1   AR   Ar  173   3.181   3.524   6.927
    1   AR   Ar  174   2.465   6.087   6.662
    1   AR   Ar  175   3.004   1.946   6.623
    1   AR   Ar  176   3.904   2.022   5.508
    1   AR   Ar  177   6.980   5.136  -1.100
    1   AR   Ar  178   4.059   4.956  -0.376
    1   AR   Ar  179   3.984   5.898   0.090
    1   AR   Ar  180   1.923   1.623  -2.993
    1   AR   Ar  181   0.195   5.910   1.429
    1   AR   Ar  182   2.435   7.028   2.943
    1   AR   Ar  183   3.860   4.908   2.456
    1   AR   Ar  184   4.962   6.594   1.200
    1   AR   Ar  185   2.704   5.024   4.809
    1   AR   Ar  186   2.917   4.593   3.592
    1   AR   Ar  187   3.374   6.607   3.261
    1   AR   Ar  188   2.937   6.918   1.785
    1   AR   Ar  189   4.034   2.527   6.608
    1   AR   Ar  190   3.265   5.647   4.092
    1   AR   Ar  191   2.811   6.729   7.795
    1   AR   Ar  192   3.971   6.036   4.852
    1   AR   Ar  193   3.056   5.796   1.498
    1   AR   Ar  194   3.829   3.737  -0.900
    1   AR   Ar  195   5.653   1.769   0.253
    1   AR   Ar  196   4.491   0.379   0.089
    1   AR   Ar  197   3.618   1.489   0.423
    1   AR   Ar  198   5.993   1.493   1.306
    1   AR   Ar  199   3.367   1.297   2.883
    1   AR   Ar  200   5.965   2.622  -0.199
    1   AR   Ar  201   5.846   6.367   4.006
    1   AR   Ar  202   5.770   1.118   4.855
    1   AR   Ar  203   6.440   6.429   3.091
    1   AR   Ar  204   4.825   6.451   5.340
    1   AR   Ar  205   6.823   0.096   2.000
    1   AR   Ar  206   4.887   0.534   5.000
    1   AR   Ar  207   0.599   1.415   6.041
    1   AR   Ar  208   0.197   6.962   3.518
    1   AR   Ar  209   7.094   2.727  -2.083
    1   AR   Ar  210   2.877   0.155   0.210
    1   AR   Ar  211   6.706   3.184   0.844
    1   AR   Ar  212   6.668   3.393  -0.988
    1   AR   Ar  213   3.481   0.646   1.987
    1   AR   Ar  214   4.475   3.402   2.527
    1   AR   Ar  215   5.494   2.834   1.212
    1   AR   Ar  216   0.383   3.071   1.756
    1   AR   Ar  217   5.335   2.818   4.402
    1   AR   Ar  218   4.166   3.237   4.718
    1   AR   Ar  219   4.347   2.704   3.825
    1   AR   Ar  220   4.036   3.948   1.600
    1   AR   Ar  221   6.533   6.039   4.908
    1   AR   Ar  222   5.047   0.390   6.257
    1   AR   Ar  223   6.414   1.369   6.273
    1   AR   Ar  224   4.835   2.806   5.768
    1   AR   Ar  225   5.902   3.016   3.039
    1   AR   Ar  226   2.021   3.531   3.944
    1   AR   Ar  227   6.480   3.398   1.842
    1   AR   Ar  228   6.003   6.624   1.668
    1   AR   Ar  229   5.445   5.133  -1.297
    1   AR   Ar  230   4.012   3.904   3.917
    1   AR   Ar  231   5.611   1.460   3.667
    1   AR   Ar  232   4.843   2.053   1.473
    1   AR   Ar  233   6.048   2.370   3.848
    1   AR   Ar  234   6.323   2.997   4.797
    1   AR   Ar  235   6.586   1.022   3.511
    1   AR   Ar  236   5.583   5.379   5.572
    1   AR   Ar  237   5.913   3.158   6.027
    1   AR   Ar  238   5.056   4.526   6.311
    1   AR   Ar  239   6.717   4.082   8.991
    1   AR   Ar  240   6.688   2.940   7.087
    1   AR   Ar  241   1.502   6.541  -0.364
    1   AR   Ar  242   5.542   5.056   0.603
    1   AR   Ar  243   4.786   4.415   2.804
    1   AR   Ar  244   0.487   5.493  -0.200
    1   AR   Ar  245   4.523   0.402   1.128
    1   AR   Ar  246   5.390   6.777  -0.104
    1   AR   Ar  247   5.883   4.129   1.027
    1   AR   Ar  248   5.980   5.953  -0.402
    1   AR   Ar  249   4.318   5.754   1.484
    1   AR   Ar  250   4.925   5.736   4.414
    1   AR   Ar  251   4.921   4.330   4.183
    1   AR   Ar  252   4.399   5.306   3.409
    1   AR   Ar  253   6.846   3.932   6.594
    1   AR   Ar  254   2.220   2.218   9.455
    1   AR   Ar  255   3.598   4.559   9.551
    1   AR   Ar  256   6.412   4.956   2.971
    7.12000  7.12000 12.00000
Argon-slab step 3490
  256
    1   AR   Ar    1   6.001   2.598  -1.919
    1   AR   Ar    2   6.113   0.642   0.452
    1   AR   Ar    3   3.201   1.260  -0.578
    1   AR   Ar    4   1.580   0.893  -0.352
    1   AR   Ar    5   6.804   6.852   0.994
    1   AR   Ar    6   7.036   1.034   2.565
    1   AR   Ar    7   5.781   4.068   2.875
    1   AR   Ar    8   5.642   0.392   1.316
    1   AR   Ar    9   1.277   6.672   3.249
    1   AR   Ar   10   0.514   0.801   3.985
    1   AR   Ar   11   2.077   6.450   4.320
    1   AR   Ar   12   0.866   1.690   3.229
    1   AR   Ar   13   0.181   0.604   5.387
    1   AR   Ar   14   6.302   2.030   7.453
    1   AR   Ar   15   5.161   6.726   8.096
    1   AR   Ar   16   0.860   6.860   5.176
    1   AR   Ar   17   6.677   2.189   0.723
    1   AR   Ar   18   5.983   4.692  -0.472
    1   AR   Ar   19   2.804   3.560   0.670
    1   AR   Ar   20   4.144   5.357  -1.867
    1   AR   Ar   21   3.730   1.688   1.453
    1   AR   Ar   22   6.347   1.907   2.811
    1   AR   Ar   23   0.453   0.879   0.184
    1   AR   Ar   24   6.497   2.403   1.830
    1   AR   Ar   25   0.721   1.958   4.490
    1   AR   Ar   26   6.348   0.144   3.974
    1   AR   Ar   27   1.430   0.891   2.809
    1   AR   Ar   28   0.287   2.741   5.161
    1   AR   Ar   29   5.291   2.944   7.014
    1   AR   Ar   30   2.002   1.305   4.105
    1   AR   Ar   31   3.230   0.914   6.957
    1   AR   Ar   32   1.145   2.773   6.673
    1   AR   Ar   33   0.803   4.311   0.502
    1   AR   Ar   34   0.381   5.227   2.294
    1   AR   Ar   35   5.952   5.694   1.290
    1   AR   Ar   36   5.925   0.967  -3.420
    1   AR   Ar   37   5.413   2.350   2.259
    1   AR   Ar   38   7.051   4.046   2.433
    1   AR   Ar   39   0.883   3.825   2.211
    1   AR   Ar   40   2.365   3.451   1.920
    1   AR   Ar   41   0.170   2.332   3.619
    1   AR   Ar   42   5.815   4.941   4.678
    1   AR   Ar   43   6.894   2.364   5.968
    1   AR   Ar   44   0.683   4.362   3.346
    1   AR   Ar   45   0.811   3.581   5.586
    1   AR   Ar   46   6.916   5.101   4.879
    1   AR   Ar   47   5.860   4.260   7.342
    1   AR   Ar   48   6.346   4.939   6.544
    1   AR   Ar   49   5.404   0.836  -1.231
    1   AR   Ar   50   4.347   4.566   0.627
    1   AR   Ar   51   6.671   4.836   1.579
    1   AR   Ar   52   6.438   3.344  -2.864
    1   AR   Ar   53   5.423   5.398   2.739
    1   AR   Ar   54   0.482   6.445   2.548
    1   AR   Ar   55   6.587   5.787   2.213
    1   AR   Ar   56   6.968   0.832   1.372
    1   AR   Ar   57   5.004   3.553   3.507
    1   AR   Ar   58   6.952   3.272   3.994
    1   AR   Ar   59   2.207   5.154   5.782
    1   AR   Ar   60   0.119   5.689   3.203
    1   AR   Ar   61   0.183   4.733   5.950
    1   AR   Ar   62   6.868   4.366   4.122
    1   AR   Ar   63   2.178   0.804   6.592
    1   AR   Ar   64   1.345   5.507   4.974
    1   AR   Ar   65   3.787   6.661   0.781
    1   AR   Ar   66   0.918   1.444   1.824
    1   AR   Ar   67   3.761   6.618  -0.516
    1   AR   Ar   68   1.894   1.896  -1.038
    1   AR   Ar   69   2.387   1.080   0.657
    1   AR   Ar   70   0.731   0.282   2.369
    1   AR   Ar   71   2.820   0.777   3.836
    1   AR   Ar   72   4.074   6.823   2.435
    1   AR   Ar   73   4.047   0.460   3.411
    1   AR   Ar   74   1.643   0.608   4.848
    1   AR   Ar   75   3.512   0.726   4.950
    1   AR   Ar   76   1.662   0.578   1.803
    1   AR   Ar   77   1.864   6.851   5.271
    1   AR   Ar   78   0.250   6.308   5.801
    1   AR   Ar   79   3.453   6.070   6.156
    1   AR   Ar   80   3.475   4.977   5.583
    1   AR   Ar   81   2.562   5.916   0.275
    1   AR   Ar   82   6.555   5.011   0.498
    1   AR   Ar   83   0.731   2.142   0.878
    1   AR   Ar   84   0.147   4.065   1.273
    1   AR   Ar   85   1.534   3.357   1.290
    1   AR   Ar   86   1.684   5.111   0.890
    1   AR   Ar   87   1.874   2.424   0.928
    1   AR   Ar   88   2.188   4.515   1.761
    1   AR   Ar   89   0.131   3.170   2.901
    1   AR   Ar   90   2.447   2.119   4.417
    1   AR   Ar   91   1.319   2.556   3.466
    1   AR   Ar   92   1.297   2.607   2.041
    1   AR   Ar   93   1.276   0.415   5.826
    1   AR   Ar   94   0.208   0.159  11.508
    1   AR   Ar   95   3.904   0.690   5.944
    1   AR   Ar   96   2.718   0.056   4.763
    1   AR   Ar   97   4.609   1.754  -0.274
    1   AR   Ar   98   1.654   4.707   2.751
    1   AR   Ar   99   6.709   1.442  -0.323
    1   AR   Ar  100   1.419   2.831  -0.646
    1   AR   Ar  101   3.498   4.902   1.464
    1   AR   Ar  102   3.618   2.403   3.107
    1   AR   Ar  103   0.747   4.833   1.456
    1   AR   Ar  104   3.015   3.825  -1.619
    1   AR   Ar  105   1.072   3.177   4.270
    1   AR   Ar  106   3.482   3.222   5.771
    1   AR   Ar  107   0.821   4.536   4.727
    1   AR   Ar  108   2.552   1.034   5.003
    1   AR   Ar  109   1.915   4.114   5.042
    1   AR   Ar  110   2.257   2.881   5.437
    1   AR   Ar  111   4.608   4.990   7.844
    1   AR   Ar  112   1.363   5.955   6.255
    1   AR   Ar  113   3.247   4.877   0.484
    1   AR   Ar  114   2.856   0.069  -0.851
    1   AR   Ar  115   2.367   4.740  -0.854
    1   AR   Ar  116   6.172   0.537  -0.571
    1   AR   Ar  117   0.610   5.290   4.000
    1   AR   Ar  118   1.257   5.641   3.138
    1   AR   Ar  119   1.834   3.174   2.778
    1   AR   Ar  120   1.803   6.619   1.840
    1   AR   Ar  121   5.573   3.688   4.982
    1   AR   Ar  122   2.752   6.040   5.033
    1   AR   Ar  123   3.353   4.017   4.972
    1   AR   Ar  124   1.554   5.623   1.995
    1   AR   Ar  125   6.817   3.926   5.058
    1   AR   Ar  126   0.022   7.010   4.583
    1   AR   Ar  127   4.413   3.693   6.307
    1   AR   Ar  128   3.399   4.893   6.566
    1   AR   Ar  129   2.436   5.867   3.177
    1   AR   Ar  130   4.350   2.517  -2.652
    1   AR   Ar  131   3.621   2.262  -0.372
    1   AR   Ar  132   6.997   2.561  -0.264
    1   AR   Ar  133   4.848   6.333   3.125
    1   AR   Ar  134   4.416   0.871   4.242
    1   AR   Ar  135   5.920   0.816   2.379
    1   AR   Ar  136   5.422   6.959   2.627
    1   AR   Ar  137   2.050   5.010   4.033
    1   AR   Ar  138   4.777   1.420   5.785
    1   AR   Ar  139   5.866   2.162   5.521
    1   AR   Ar  140   4.234   6.864   4.171
    1   AR   Ar  141   4.201   4.953   4.607
    1   AR   Ar  142   2.826   7.046   6.286
    1   AR   Ar  143   6.448   6.951   5.434
    1   AR   Ar  144   6.847   1.602   4.972
    1   AR   Ar  145   5.014   4.285  -0.544
    1   AR   Ar  146   2.774   2.683   2.502
    1   AR   Ar  147   4.522   1.920  -1.665
    1   AR   Ar  148   3.414   5.829  -1.084
    1   AR   Ar  149   2.654   2.112   0.259
    1   AR   Ar  150   2.356   1.263   2.199
    1   AR   Ar  151   2.339   1.707   3.207
    1   AR   Ar  152   2.830   2.554  -1.069
    1   AR   Ar  153   5.067   0.231   3.630
    1   AR   Ar  154   3.655   1.789   4.356
    1   AR   Ar  155   6.485   6.130   6.428
    1   AR   Ar  156   3.394   3.358   2.867
    1   AR   Ar  157   1.387   3.886   6.527
    1   AR   Ar  158   0.329   2.067   6.746
    1   AR   Ar  159   4.672   1.864   7.404
    1   AR   Ar  160   1.731   2.021   5.264
    1   AR   Ar  161   5.213   3.802   1.802
    1   AR   Ar  162   4.716   5.846  -0.717
    1   AR   Ar  163   5.823   3.784   0.016
    1   AR   Ar  164   2.840   5.264   2.478
    1   AR   Ar  165   4.324   2.489   0.593
    1   AR   Ar  166   3.258   2.800   4.614
    1   AR   Ar  167   4.787   0.931   2.735
    1   AR   Ar  168   5.665   3.718  -1.387
    1   AR   Ar  169   2.928   4.084   2.503
    1   AR   Ar  170   2.404   4.089   5.915
    1   AR   Ar  171   6.037   3.988   3.814
    1   AR   Ar  172   4.349   4.447   5.526
    1   AR   Ar  173   3.158   3.514   6.923
    1   AR   Ar  174   2.458   6.100   6.662
    1   AR   Ar  175   3.029   1.916   6.657
    1   AR   Ar  176   3.912   2.052   5.482
    1   AR   Ar  177   6.993   5.175  -1.120
    1   AR   Ar  178   4.102   4.943  -0.362
    1   AR   Ar  179   3.954   5.919   0.102
    1   AR   Ar  180   1.947   1.647  -2.987
    1   AR   Ar  181   0.154   5.870   1.412
    1   AR   Ar  182   2.458   6.997   2.959
    1   AR   Ar  183   3.842   4.899   2.453
    1   AR   Ar  184   4.982   6.547   1.213
    1   AR   Ar  185   2.715   5.041   4.872
    1   AR   Ar  186   2.921   4.614   3.568
    1   AR   Ar  187   3.364   6.609   3.278
    1   AR   Ar  188   2.924   6.888   1.798
    1   AR   Ar  189   4.040   2.521   6.604
    1   AR   Ar  190   3.260   5.651   4.089
    1   AR   Ar  191   2.792   6.728   7.811
    1   AR   Ar  192   3.969   6.023   4.878
    1   AR   Ar  193   3.088   5.781   1.532
    1   AR   Ar  194   3.808   3.740  -0.894
    1   AR   Ar  195   5.626   1.779   0.230
    1   AR   Ar  196   4.521   0.376   0.135
    1   AR   Ar  197   3.592   1.508   0.382
    1   AR   Ar  198   5.975   1.496   1.297
    1   AR   Ar  199   3.346   1.275   2.865
    1   AR   Ar  200   5.945   2.629  -0.215
    1   AR   Ar  201   5.825   6.365   4.023
    1   AR   Ar  202   5.776   1.108   4.869
    1   AR   Ar  203   6.445   6.413   3.098
    1   AR   Ar  204   4.816   6.421   5.367
    1   AR   Ar  205   6.848   0.058   1.994
    1   AR   Ar  206   4.886   0.555   4.999
    1   AR   Ar  207   0.580   1.427   6.034
    1   AR   Ar  208   0.184   6.961   3.513
    1   AR   Ar  209   7.050   2.733  -2.112
    1   AR   Ar  210   2.838   0.173   0.198
    1   AR   Ar  211   6.708   3.227   0.846
    1   AR   Ar  212   6.653   3.333  -0.980
    1   AR   Ar  213   3.447   0.663   1.947
    1   AR   Ar  214   4.468   3.406   2.532
    1   AR   Ar  215   5.519   2.804   1.195
    1   AR   Ar  216   0.401   3.065   1.775
    1   AR   Ar  217   5.335   2.840   4.397
    1   AR   Ar  218   4.187   3.239   4.712
    1   AR   Ar  219   4.294   2.715   3.827
    1   AR   Ar  220   4.036   3.919   1.576
    1   AR   Ar  221   6.520   6.020   4.893
    1   AR   Ar  222   5.076   0.382   6.278
    1   AR   Ar  223   6.386   1.381   6.276
    1   AR   Ar  224   4.842   2.780   5.717
    1   AR   Ar  225   5.933   3.008   3.072
    1   AR   Ar  226   2.040   3.538   3.954
    1   AR   Ar  227   6.459   3.442   1.871
    1   AR   Ar  228   5.976   6.673   1.665
    1   AR   Ar  229   5.419   5.182  -1.295
    1   AR   Ar  230   4.048   3.893   3.919
    1   AR   Ar  231   5.610   1.447   3.703
    1   AR   Ar  232   4.822   2.022   1.476
    1   AR   Ar  233   6.032   2.366   3.857
    1   AR   Ar  234   6.299   3.018   4.834
    1   AR   Ar  235   6.602   1.035   3.513
    1   AR   Ar  236   5.569   5.383   5.571
    1   AR   Ar  237   5.923   3.146   6.047
    1   AR   Ar  238   5.073   4.497   6.285
    1   AR   Ar  239   6.718   4.094   9.002
    1   AR   Ar  240   6.663   2.912   7.067
    1   AR   Ar  241   1.526   6.550  -0.340
    1   AR   Ar  242   5.559   5.051   0.634
    1   AR   Ar  243   4.801   4.432   2.773
    1   AR   Ar  244   0.475   5.486  -0.192
    1   AR   Ar  245   4.519   0.420   1.138
    1   AR   Ar  246   5.384   6.802  -0.104
    1   AR   Ar  247   5.872   4.130   1.019
    1   AR   Ar  248   5.985   5.914  -0.415
    1   AR   Ar  249   4.306   5.735   1.495
    1   AR   Ar  250   4.916   5.744   4.410
    1   AR   Ar  251   4.916   4.294   4.200
    1   AR   Ar  252   4.404   5.325   3.432
    1   AR   Ar  253   6.835   3.923   6.630
    1   AR   Ar  254   2.234   2.224   9.454
    1   AR   Ar  255   3.594   4.569   9.512
    1   AR   Ar  256   6.400   4.977   2.977
    7.12000  7.12000 12.00000
Argon-slab step 3495
  256
    1   AR   Ar    1   6.001   2.657  -1.946
    1   AR   Ar    2   6.078   0.694   0.471
    1   AR   Ar    3   3.217   1.255  -0.586
    1   AR   Ar    4   1.577   0.907  -0.400
    1   AR   Ar    5   6.809   6.828   0.983
    1   AR   Ar    6   7.032   1.044   2.550
    1   AR   Ar    7   5.777   4.067   2.855
    1   AR   Ar    8   5.604   0.445   1.298
    1   AR   Ar    9   1.272   6.686   3.222
    1   AR   Ar   10   0.496   0.795   3.989
    1   AR   Ar   11   2.058   6.467   4.305
    1   AR   Ar   12   0.861   1.667   3.226
    1   AR   Ar   13   0.168   0.604   5.414
    1   AR   Ar   14   6.293   2.024   7.444
    1   AR   Ar   15   5.180   6.742   8.073
    1   AR   Ar   16   0.889   6.842   5.184
    1   AR   Ar   17   6.682   2.167   0.739
    1   AR   Ar   18   6.009   4.683  -0.476
    1   AR   Ar   19   2.797   3.569   0.656
    1   AR   Ar   20   4.145   5.353  -1.883
    1   AR   Ar   21   3.722   1.687   1.448
    1   AR   Ar   22   6.351   1.940   2.809
    1   AR   Ar   23   0.475   0.860   0.220
    1   AR   Ar   24   6.528   2.363   1.838
    1   AR   Ar   25   0.711   1.919   4.477
    1   AR   Ar   26   6.372   0.151   3.975
    1   AR   Ar   27   1.414   0.897   2.817
    1   AR   Ar   28   0.280   2.717   5.156
    1   AR   Ar   29   5.300   2.942   7.023
    1   AR   Ar   30   1.959   1.309   4.111
    1   AR   Ar   31   3.207   0.955   6.942
    1   AR   Ar   32   1.135   2.751   6.675
    1   AR   Ar   33   0.803   4.331   0.504
    1   AR   Ar   34   0.372   5.230   2.295
    1   AR   Ar   35   5.980   5.692   1.291
    1   AR   Ar   36   5.923   0.971  -3.379
    1   AR   Ar   37   5.403   2.330   2.287
    1   AR   Ar   38   7.032   4.061   2.457
    1   AR   Ar   39   0.882   3.822   2.162
    1   AR   Ar   40   2.376   3.451   1.906
    1   AR   Ar   41   0.196   2.305   3.613
    1   AR   Ar   42   5.799   4.923   4.654
    1   AR   Ar   43   6.883   2.364   5.991
    1   AR   Ar   44   0.697   4.361   3.329
    1   AR   Ar   45   0.806   3.585   5.596
    1   AR   Ar   46   6.900   5.119   4.905
    1   AR   Ar   47   5.838   4.260   7.345
    1   AR   Ar   48   6.344   4.902   6.552
    1   AR   Ar   49   5.412   0.824  -1.223
    1   AR   Ar   50   4.324   4.557   0.631
    1   AR   Ar   51   6.658   4.853   1.603
    1   AR   Ar   52   6.443   3.281  -2.875
    1   AR   Ar   53   5.430   5.411   2.718
    1   AR   Ar   54   0.457   6.460   2.576
    1   AR   Ar   55   6.561   5.805   2.270
    1   AR   Ar   56   6.987   0.830   1.371
    1   AR   Ar   57   5.005   3.543   3.497
    1   AR   Ar   58   6.956   3.286   4.002
    1   AR   Ar   59   2.225   5.135   5.821
    1   AR   Ar   60   0.116   5.697   3.210
    1   AR   Ar   61   0.185   4.754   5.968
    1   AR   Ar   62   6.866   4.371   4.130
    1   AR   Ar   63   2.214   0.788   6.582
    1   AR   Ar   64   1.339   5.524   5.000
    1   AR   Ar   65   3.801   6.628   0.769
    1   AR   Ar   66   0.916   1.474   1.846
    1   AR   Ar   67   3.749   6.632  -0.495
    1   AR   Ar   68   1.888   1.884  -1.039
    1   AR   Ar   69   2.394   1.076   0.661
    1   AR   Ar   70   0.719   0.296   2.384
    1   AR   Ar   71   2.799   0.796   3.830
    1   AR   Ar   72   4.085   6.815   2.417
    1   AR   Ar   73   4.080   0.423   3.432
    1   AR   Ar   74   1.626   0.593   4.849
    1   AR   Ar   75   3.508   0.708   4.919
    1   AR   Ar   76   1.687   0.566   1.756
    1   AR   Ar   77   1.855   6.823   5.283
    1   AR   Ar   78   0.234   6.288   5.839
    1   AR   Ar   79   3.435   6.020   6.156
    1   AR   Ar   80   3.474   4.989   5.568
    1   AR   Ar   81   2.548   5.919   0.268
    1   AR   Ar   82   6.575   4.990   0.527
    1   AR   Ar   83   0.755   2.145   0.909
    1   AR   Ar   84   0.127   4.061   1.273
    1   AR   Ar   85   1.553   3.368   1.277
    1   AR   Ar   86   1.673   5.104   0.889
    1   AR   Ar   87   1.872   2.436   0.943
    1   AR   Ar   88   2.201   4.496   1.801
    1   AR   Ar   89   0.149   3.175   2.863
    1   AR   Ar   90   2.453   2.121   4.410
    1   AR   Ar   91   1.309   2.557   3.474
    1   AR   Ar   92   1.323   2.587   2.063
    1   AR   Ar   93   1.270   0.405   5.802
    1   AR   Ar   94   0.199   0.122  11.508
    1   AR   Ar   95   3.910   0.681   5.949
    1   AR   Ar   96   2.715   0.056   4.789
    1   AR   Ar   97   4.603   1.748  -0.279
    1   AR   Ar   98   1.633   4.707   2.771
    1   AR   Ar   99   6.685   1.441  -0.319
    1   AR   Ar  100   1.439   2.812  -0.659
    1   AR   Ar  101   3.484   4.884   1.462
    1   AR   Ar  102   3.635   2.377   3.096
    1   AR   Ar  103   0.759   4.830   1.467
    1   AR   Ar  104   3.006   3.794  -1.589
    1   AR   Ar  105   1.055   3.156   4.293
    1   AR   Ar  106   3.496   3.236   5.786
    1   AR   Ar  107   0.822   4.524   4.700
    1   AR   Ar  108   2.522   0.999   5.020
    1   AR   Ar  109   1.900   4.067   5.065
    1   AR   Ar  110   2.250   2.884   5.447
    1   AR   Ar  111   4.617   5.007   7.862
    1   AR   Ar  112   1.358   5.917   6.281
    1   AR   Ar  113   3.226   4.846   0.469
    1   AR   Ar  114   2.857   0.075  -0.836
    1   AR   Ar  115   2.376   4.711  -0.837
    1   AR   Ar  116   6.188   0.564  -0.601
    1   AR   Ar  117   0.603   5.278   4.035
    1   AR   Ar  118   1.241   5.617   3.170
    1   AR   Ar  119   1.839   3.159   2.779
    1   AR   Ar  120   1.808   6.636   1.827
    1   AR   Ar  121   5.581   3.713   4.997
    1   AR   Ar  122   2.737   6.034   5.016
    1   AR   Ar  123   3.352   4.015   4.970
    1   AR   Ar  124   1.586   5.624   1.997
    1   AR   Ar  125   6.793   3.947   5.060
    1   AR   Ar  126   0.017   6.989   4.617
    1   AR   Ar  127   4.429   3.674   6.266
    1   AR   Ar  128   3.411   4.892   6.570
    1   AR   Ar  129   2.403   5.871   3.215
    1   AR   Ar  130   4.340   2.499  -2.678
    1   AR   Ar  131   3.636   2.271  -0.385
    1   AR   Ar  132   7.029   2.593  -0.281
    1   AR   Ar  133   4.848   6.330   3.152
    1   AR   Ar  134   4.413   0.891   4.239
    1   AR   Ar  135   5.921   0.831   2.385
    1   AR   Ar  136   5.447   6.945   2.644
    1   AR   Ar  137   2.028   4.990   4.074
    1   AR   Ar  138   4.802   1.413   5.799
    1   AR   Ar  139   5.870   2.161   5.522
    1   AR   Ar  140   4.247   6.862   4.187
    1   AR   Ar  141   4.211   4.958   4.614
    1   AR   Ar  142   2.838   7.041   6.286
    1   AR   Ar  143   6.438   6.924   5.395
    1   AR   Ar  144   6.879   1.597   4.967
    1   AR   Ar  145   5.001   4.306  -0.542
    1   AR   Ar  146   2.759   2.666   2.502
    1   AR   Ar  147   4.513   1.947  -1.659
    1   AR   Ar  148   3.411   5.818  -1.086
    1   AR   Ar  149   2.677   2.128   0.239
    1   AR   Ar  150   2.316   1.269   2.188
    1   AR   Ar  151   2.348   1.737   3.207
    1   AR   Ar  152   2.826   2.558  -1.092
    1   AR   Ar  153   5.066   0.239   3.649
    1   AR   Ar  154   3.633   1.781   4.331
    1   AR   Ar  155   6.478   6.074   6.375
    1   AR   Ar  156   3.438   3.336   2.881
    1   AR   Ar  157   1.362   3.889   6.511
    1   AR   Ar  158   0.317   2.056   6.758
    1   AR   Ar  159   4.627   1.844   7.389
    1   AR   Ar  160   1.712   2.043   5.273
    1   AR   Ar  161   5.183   3.823   1.797
    1   AR   Ar  162   4.681   5.838  -0.737
    1   AR   Ar  163   5.851   3.807  -0.017
    1   AR   Ar  164   2.826   5.272   2.471
    1   AR   Ar  165   4.339   2.478   0.556
    1   AR   Ar  166   3.249   2.794   4.609
    1   AR   Ar  167   4.774   0.949   2.737
    1   AR   Ar  168   5.710   3.710  -1.384
    1   AR   Ar  169   2.941   4.082   2.491
    1   AR   Ar  170   2.445   4.061   5.912
    1   AR   Ar  171   6.045   4.015   3.820
    1   AR   Ar  172   4.372   4.471   5.506
    1   AR   Ar  173   3.136   3.505   6.917
    1   AR   Ar  174   2.449   6.111   6.661
    1   AR   Ar  175   3.054   1.889   6.690
    1   AR   Ar  176   3.920   2.085   5.455
    1   AR   Ar  177   7.005   5.214  -1.139
    1   AR   Ar  178   4.144   4.931  -0.349
    1   AR   Ar  179   3.928   5.920   0.124
    1   AR   Ar  180   1.971   1.671  -2.980
    1   AR   Ar  181   0.113   5.830   1.394
    1   AR   Ar  182   2.476   6.968   2.974
    1   AR   Ar  183   3.827   4.889   2.454
    1   AR   Ar  184   5.003   6.501   1.226
    1   AR   Ar  185   2.725   5.050   4.929
    1   AR   Ar  186   2.927   4.634   3.541
    1   AR   Ar  187   3.360   6.609   3.298
    1   AR   Ar  188   2.910   6.853   1.811
    1   AR   Ar  189   4.046   2.515   6.598
    1   AR   Ar  190   3.254   5.655   4.085
    1   AR   Ar  191   2.773   6.726   7.826
    1   AR   Ar  192   3.958   5.990   4.923
    1   AR   Ar  193   3.115   5.781   1.565
    1   AR   Ar  194   3.789   3.743  -0.886
    1   AR   Ar  195   5.598   1.781   0.212
    1   AR   Ar  196   4.550   0.372   0.172
    1   AR   Ar  197   3.567   1.526   0.343
    1   AR   Ar  198   5.957   1.499   1.287
    1   AR   Ar  199   3.325   1.253   2.848
    1   AR   Ar  200   5.926   2.642  -0.234
    1   AR   Ar  201   5.802   6.359   4.040
    1   AR   Ar  202   5.784   1.101   4.883
    1   AR   Ar  203   6.448   6.399   3.104
    1   AR   Ar  204   4.810   6.393   5.394
    1   AR   Ar  205   6.873   0.013   1.999
    1   AR   Ar  206   4.893   0.565   5.019
    1   AR   Ar  207   0.563   1.432   6.018
    1   AR   Ar  208   0.173   6.961   3.506
    1   AR   Ar  209   7.042   2.737  -2.103
    1   AR   Ar  210   2.800   0.190   0.189
    1   AR   Ar  211   6.708   3.272   0.846
    1   AR   Ar  212   6.636   3.273  -0.971
    1   AR   Ar  213   3.416   0.682   1.907
    1   AR   Ar  214   4.461   3.409   2.537
    1   AR   Ar  215   5.547   2.776   1.179
    1   AR   Ar  216   0.410   3.054   1.789
    1   AR   Ar  217   5.329   2.865   4.397
    1   AR   Ar  218   4.213   3.244   4.715
    1   AR   Ar  219   4.245   2.725   3.829
    1   AR   Ar  220   4.038   3.892   1.553
    1   AR   Ar  221   6.503   6.008   4.878
    1   AR   Ar  222   5.105   0.375   6.297
    1   AR   Ar  223   6.369   1.375   6.285
    1   AR   Ar  224   4.849   2.754   5.665
    1   AR   Ar  225   5.965   3.004   3.099
    1   AR   Ar  226   2.061   3.546   3.962
    1   AR   Ar  227   6.431   3.488   1.898
    1   AR   Ar  228   5.952   6.711   1.671
    1   AR   Ar  229   5.393   5.231  -1.293
    1   AR   Ar  230   4.074   3.881   3.914
    1   AR   Ar  231   5.607   1.427   3.739
    1   AR   Ar  232   4.798   1.987   1.475
    1   AR   Ar  233   6.027   2.360   3.867
    1   AR   Ar  234   6.284   3.031   4.871
    1   AR   Ar  235   6.619   1.051   3.517
    1   AR   Ar  236   5.554   5.390   5.575
    1   AR   Ar  237   5.934   3.134   6.066
    1   AR   Ar  238   5.096   4.472   6.262
    1   AR   Ar  239   6.696   4.122   9.015
    1   AR   Ar  240   6.640   2.887   7.044
    1   AR   Ar  241   1.550   6.559  -0.316
    1   AR   Ar  242   5.562   5.044   0.656
    1   AR   Ar  243   4.814   4.451   2.743
    1   AR   Ar  244   0.462   5.479  -0.184
    1   AR   Ar  245   4.514   0.439   1.158
    1   AR   Ar  246   5.358   6.805  -0.083
    1   AR   Ar  247   5.882   4.137   1.021
    1   AR   Ar  248   5.989   5.885  -0.427
    1   AR   Ar  249   4.297   5.705   1.514
    1   AR   Ar  250   4.909   5.753   4.405
    1   AR   Ar  251   4.922   4.264   4.223
    1   AR   Ar  252   4.408   5.344   3.457
    1   AR   Ar  253   6.823   3.913   6.665
    1   AR   Ar  254   2.248   2.230   9.454
    1   AR   Ar  255   3.590   4.578   9.472
    1   AR   Ar  256   6.391   4.996   2.983
    7.12000  7.12000 12.00000
Argon-slab step 3500
  256
    1   AR   Ar    1   5.999   2.717  -1.971
    1   AR   Ar    2   6.050   0.750   0.482
    1   AR   Ar    3   3.231   1.248  -0.597
    1   AR   Ar    4   1.575   0.923  -0.448
    1   AR   Ar    5   6.814   6.805   0.971
    1   AR   Ar    6   7.031   1.054   2.531
    1   AR   Ar    7   5.774   4.065   2.826
    1   AR   Ar    8   5.558   0.503   1.287
    1   AR   Ar    9   1.270   6.704   3.196
    1   AR   Ar   10   0.478   0.789   3.993
    1   AR   Ar   11   2.045   6.472   4.299
    1   AR   Ar   12   0.851   1.641   3.221
    1   AR   Ar   13   0.154   0.604   5.440
    1   AR   Ar   14   6.282   2.012   7.435
    1   AR   Ar   15   5.199   6.758   8.049
    1   AR   Ar   16   0.903   6.816   5.183
    1   AR   Ar   17   6.685   2.145   0.753
    1   AR   Ar   18   6.038   4.684  -0.483
    1   AR   Ar   19   2.779   3.563   0.657
    1   AR   Ar   20   4.166   5.336  -1.926
    1   AR   Ar   21   3.714   1.683   1.441
    1   AR   Ar   22   6.355   1.971   2.811
    1   AR   Ar   23   0.496   0.843   0.258
    1   AR   Ar   24   6.559   2.325   1.845
    1   AR   Ar   25   0.704   1.879   4.464
    1   AR   Ar   26   6.391   0.157   3.976
    1   AR   Ar   27   1.406   0.905   2.825
    1   AR   Ar   28   0.273   2.694   5.147
    1   AR   Ar   29   5.309   2.940   7.031
    1   AR   Ar   30   1.904   1.308   4.116
    1   AR   Ar   31   3.189   0.981   6.930
    1   AR   Ar   32   1.130   2.732   6.676
    1   AR   Ar   33   0.805   4.352   0.503
    1   AR   Ar   34   0.361   5.235   2.303
    1   AR   Ar   35   6.013   5.695   1.298
    1   AR   Ar   36   5.920   0.974  -3.338
    1   AR   Ar   37   5.396   2.311   2.317
    1   AR   Ar   38   7.032   4.065   2.467
    1   AR   Ar   39   0.894   3.829   2.116
    1   AR   Ar   40   2.387   3.449   1.888
    1   AR   Ar   41   0.214   2.285   3.610
    1   AR   Ar   42   5.783   4.902   4.626
    1   AR   Ar   43   6.864   2.365   6.008
    1   AR   Ar   44   0.730   4.377   3.318
    1   AR   Ar   45   0.801   3.591   5.604
    1   AR   Ar   46   6.891   5.124   4.932
    1   AR   Ar   47   5.817   4.260   7.347
    1   AR   Ar   48   6.340   4.867   6.560
    1   AR   Ar   49   5.416   0.815  -1.218
    1   AR   Ar   50   4.301   4.549   0.638
    1   AR   Ar   51   6.647   4.872   1.611
    1   AR   Ar   52   6.443   3.231  -2.888
    1   AR   Ar   53   5.436   5.425   2.696
    1   AR   Ar   54   0.429   6.467   2.600
    1   AR   Ar   55   6.554   5.831   2.279
    1   AR   Ar   56   7.005   0.833   1.369
    1   AR   Ar   57   5.010   3.529   3.484
    1   AR   Ar   58   6.959   3.300   4.010
    1   AR   Ar   59   2.232   5.138   5.823
    1   AR   Ar   60   0.111   5.705   3.219
    1   AR   Ar   61   0.187   4.775   5.985
    1   AR   Ar   62   6.885   4.388   4.139
    1   AR   Ar   63   2.241   0.779   6.567
    1   AR   Ar   64   1.333   5.542   5.025
    1   AR   Ar   65   3.813   6.607   0.769
    1   AR   Ar   66   0.914   1.503   1.869
    1   AR   Ar   67   3.735   6.662  -0.483
    1   AR   Ar   68   1.887   1.890  -1.040
    1   AR   Ar   69   2.401   1.075   0.666
    1   AR   Ar   70   0.706   0.313   2.396
    1   AR   Ar   71   2.785   0.812   3.823
    1   AR   Ar   72   4.112   6.810   2.405
    1   AR   Ar   73   4.101   0.384   3.438
    1   AR   Ar   74   1.599   0.580   4.842
    1   AR   Ar   75   3.513   0.692   4.886
    1   AR   Ar   76   1.708   0.555   1.708
    1   AR   Ar   77   1.853   6.820   5.307
    1   AR   Ar   78   0.221   6.268   5.875
    1   AR   Ar   79   3.432   5.991   6.159
    1   AR   Ar   80   3.480   5.005   5.553
    1   AR   Ar   81   2.572   5.935   0.252
    1   AR   Ar   82   6.602   4.968   0.555
    1   AR   Ar   83   0.766   2.161   0.924
    1   AR   Ar   84   0.105   4.050   1.277
    1   AR   Ar   85   1.566   3.383   1.264
    1   AR   Ar   86   1.656   5.107   0.888
    1   AR   Ar   87   1.869   2.444   0.959
    1   AR   Ar   88   2.212   4.481   1.840
    1   AR   Ar   89   0.170   3.173   2.829
    1   AR   Ar   90   2.462   2.130   4.405
    1   AR   Ar   91   1.306   2.575   3.470
    1   AR   Ar   92   1.350   2.563   2.083
    1   AR   Ar   93   1.251   0.378   5.801
    1   AR   Ar   94   0.201   0.099  11.492
    1   AR   Ar   95   3.916   0.674   5.955
    1   AR   Ar   96   2.713   0.044   4.810
    1   AR   Ar   97   4.597   1.741  -0.285
    1   AR   Ar   98   1.614   4.706   2.788
    1   AR   Ar   99   6.662   1.443  -0.313
    1   AR   Ar  100   1.458   2.794  -0.670
    1   AR   Ar  101   3.483   4.859   1.457
    1   AR   Ar  102   3.650   2.340   3.083
    1   AR   Ar  103   0.773   4.826   1.483
    1   AR   Ar  104   2.995   3.763  -1.559
    1   AR   Ar  105   1.035   3.136   4.320
    1   AR   Ar  106   3.510   3.248   5.800
    1   AR   Ar  107   0.824   4.506   4.677
    1   AR   Ar  108   2.495   0.981   5.040
    1   AR   Ar  109   1.879   4.021   5.081
    1   AR   Ar  110   2.247   2.896   5.457
    1   AR   Ar  111   4.625   5.023   7.881
    1   AR   Ar  112   1.354   5.879   6.304
    1   AR   Ar  113   3.204   4.816   0.448
    1   AR   Ar  114   2.871   0.081  -0.817
    1   AR   Ar  115   2.386   4.683  -0.820
    1   AR   Ar  116   6.206   0.586  -0.630
    1   AR   Ar  117   0.597   5.268   4.070
    1   AR   Ar  118   1.237   5.597   3.208
    1   AR   Ar  119   1.844   3.154   2.792
    1   AR   Ar  120   1.814   6.654   1.815
    1   AR   Ar  121   5.581   3.749   5.015
    1   AR   Ar  122   2.724   6.039   5.003
    1   AR   Ar  123   3.367   4.001   4.970
    1   AR   Ar  124   1.617   5.620   2.001
    1   AR   Ar  125   6.770   3.972   5.071
    1   AR   Ar  126   0.015   6.967   4.648
    1   AR   Ar  127   4.442   3.650   6.226
    1   AR   Ar  128   3.423   4.891   6.580
    1   AR   Ar  129   2.368   5.877   3.257
    1   AR   Ar  130   4.330   2.482  -2.702
    1   AR   Ar  131   3.652   2.284  -0.401
    1   AR   Ar  132   7.063   2.621  -0.294
    1   AR   Ar  133   4.842   6.322   3.186
    1   AR   Ar  134   4.404   0.922   4.232
    1   AR   Ar  135   5.923   0.847   2.390
    1   AR   Ar  136   5.479   6.938   2.656
    1   AR   Ar  137   2.003   4.971   4.114
    1   AR   Ar  138   4.827   1.406   5.811
    1   AR   Ar  139   5.866   2.158   5.505
    1   AR   Ar  140   4.260   6.855   4.207
    1   AR   Ar  141   4.216   4.965   4.617
    1   AR   Ar  142   2.860   7.045   6.284
    1   AR   Ar  143   6.427   6.898   5.360
    1   AR   Ar  144   6.909   1.592   4.964
    1   AR   Ar  145   4.988   4.326  -0.541
    1   AR   Ar  146   2.741   2.641   2.501
    1   AR   Ar  147   4.505   1.974  -1.651
    1   AR   Ar  148   3.408   5.804  -1.087
    1   AR   Ar  149   2.699   2.144   0.217
    1   AR   Ar  150   2.306   1.282   2.182
    1   AR   Ar  151   2.358   1.769   3.206
    1   AR   Ar  152   2.822   2.562  -1.115
    1   AR   Ar  153   5.073   0.245   3.668
    1   AR   Ar  154   3.610   1.772   4.305
    1   AR   Ar  155   6.468   6.018   6.323
    1   AR   Ar  156   3.491   3.316   2.903
    1   AR   Ar  157   1.337   3.892   6.495
    1   AR   Ar  158   0.305   2.046   6.785
    1   AR   Ar  159   4.581   1.824   7.372
    1   AR   Ar  160   1.688   2.057   5.280
    1   AR   Ar  161   5.153   3.844   1.794
    1   AR   Ar  162   4.644   5.830  -0.756
    1   AR   Ar  163   5.879   3.821  -0.046
    1   AR   Ar  164   2.810   5.275   2.463
    1   AR   Ar  165   4.340   2.455   0.534
    1   AR   Ar  166   3.228   2.810   4.607
    1   AR   Ar  167   4.762   0.965   2.739
    1   AR   Ar  168   5.754   3.703  -1.379
    1   AR   Ar  169   2.948   4.102   2.501
    1   AR   Ar  170   2.492   4.031   5.916
    1   AR   Ar  171   6.033   4.031   3.828
    1   AR   Ar  172   4.396   4.490   5.486
    1   AR   Ar  173   3.114   3.496   6.908
    1   AR   Ar  174   2.440   6.120   6.660
    1   AR   Ar  175   3.078   1.876   6.717
    1   AR   Ar  176   3.927   2.118   5.427
    1   AR   Ar  177   7.016   5.252  -1.157
    1   AR   Ar  178   4.183   4.920  -0.339
    1   AR   Ar  179   3.908   5.893   0.147
    1   AR   Ar  180   1.994   1.695  -2.974
    1   AR   Ar  181   0.073   5.789   1.376
    1   AR   Ar  182   2.487   6.942   2.985
    1   AR   Ar  183   3.836   4.871   2.494
    1   AR   Ar  184   5.022   6.456   1.236
    1   AR   Ar  185   2.730   5.046   4.971
    1   AR   Ar  186   2.934   4.655   3.514
    1   AR   Ar  187   3.363   6.605   3.321
    1   AR   Ar  188   2.896   6.818   1.825
    1   AR   Ar  189   4.052   2.510   6.590
    1   AR   Ar  190   3.249   5.658   4.080
    1   AR   Ar  191   2.758   6.720   7.837
    1   AR   Ar  192   3.942   5.955   4.968
    1   AR   Ar  193   3.137   5.794   1.597
    1   AR   Ar  194   3.796   3.746  -0.853
    1   AR   Ar  195   5.570   1.778   0.199
    1   AR   Ar  196   4.578   0.368   0.198
    1   AR   Ar  197   3.558   1.533   0.314
    1   AR   Ar  198   5.938   1.503   1.279
    1   AR   Ar  199   3.304   1.231   2.832
    1   AR   Ar  200   5.909   2.662  -0.254
    1   AR   Ar  201   5.776   6.352   4.056
    1   AR   Ar  202   5.796   1.097   4.895
    1   AR   Ar  203   6.448   6.390   3.113
    1   AR   Ar  204   4.792   6.414   5.389
    1   AR   Ar  205   6.897   7.085   2.011
    1   AR   Ar  206   4.904   0.568   5.052
    1   AR   Ar  207   0.547   1.433   5.993
    1   AR   Ar  208   0.164   6.960   3.497
    1   AR   Ar  209   7.058   2.738  -2.069
    1   AR   Ar  210   2.764   0.206   0.184
    1   AR   Ar  211   6.706   3.315   0.845
    1   AR   Ar  212   6.617   3.215  -0.965
    1   AR   Ar  213   3.386   0.703   1.867
    1   AR   Ar  214   4.454   3.412   2.541
    1   AR   Ar  215   5.578   2.747   1.163
    1   AR   Ar  216   0.408   3.033   1.795
    1   AR   Ar  217   5.328   2.897   4.405
    1   AR   Ar  218   4.243   3.250   4.728
    1   AR   Ar  219   4.199   2.737   3.832
    1   AR   Ar  220   4.072   3.882   1.548
    1   AR   Ar  221   6.481   6.007   4.861
    1   AR   Ar  222   5.132   0.368   6.313
    1   AR   Ar  223   6.359   1.359   6.299
    1   AR   Ar  224   4.857   2.729   5.613
    1   AR   Ar  225   5.997   3.005   3.120
    1   AR   Ar  226   2.081   3.554   3.970
    1   AR   Ar  227   6.397   3.531   1.921
    1   AR   Ar  228   5.933   6.740   1.683
    1   AR   Ar  229   5.367   5.278  -1.289
    1   AR   Ar  230   4.085   3.867   3.901
    1   AR   Ar  231   5.600   1.402   3.774
    1   AR   Ar  232   4.774   1.951   1.473
    1   AR   Ar  233   6.032   2.350   3.881
    1   AR   Ar  234   6.277   3.032   4.907
    1   AR   Ar  235   6.637   1.072   3.521
    1   AR   Ar  236   5.538   5.398   5.581
    1   AR   Ar  237   5.945   3.123   6.085
    1   AR   Ar  238   5.125   4.451   6.241
    1   AR   Ar  239   6.675   4.149   9.028
    1   AR   Ar  240   6.619   2.868   7.015
    1   AR   Ar  241   1.575   6.568  -0.292
    1   AR   Ar  242   5.553   5.034   0.671
    1   AR   Ar  243   4.824   4.470   2.714
    1   AR   Ar  244   0.449   5.471  -0.174
    1   AR   Ar  245   4.506   0.459   1.189
    1   AR   Ar  246   5.333   6.808  -0.061
    1   AR   Ar  247   5.896   4.141   1.027
    1   AR   Ar  248   5.991   5.872  -0.437
    1   AR   Ar  249   4.285   5.673   1.533
    1   AR   Ar  250   4.905   5.764   4.400
    1   AR   Ar  251   4.942   4.242   4.255
    1   AR   Ar  252   4.412   5.361   3.482
    1   AR   Ar  253   6.811   3.903   6.698
    1   AR   Ar  254   2.260   2.233   9.457
    1   AR   Ar  255   3.586   4.588   9.433
    1   AR   Ar  256   6.385   5.014   2.990
    7.12000  7.12000 12.00000
Argon-slab step 3505
  256
    1   AR   Ar    1   6.006   2.719  -1.985
    1   AR   Ar    2   6.030   0.809   0.480
    1   AR   Ar    3   3.242   1.239  -0.615
    1   AR   Ar    4   1.574   0.938  -0.495
    1   AR   Ar    5   6.818   6.782   0.957
    1   AR   Ar    6   7.030   1.065   2.510
    1   AR   Ar    7   5.775   4.062   2.790
    1   AR   Ar    8   5.505   0.559   1.287
    1   AR   Ar    9   1.271   6.723   3.171
    1   AR   Ar   10   0.461   0.784   3.999
    1   AR   Ar   11   2.033   6.468   4.298
    1   AR   Ar   12   0.843   1.611   3.215
    1   AR   Ar   13   0.149   0.609   5.463
    1   AR   Ar   14   6.269   1.993   7.428
    1   AR   Ar   15   5.216   6.768   8.028
    1   AR   Ar   16   0.897   6.783   5.175
    1   AR   Ar   17   6.689   2.123   0.765
    1   AR   Ar   18   6.060   4.705  -0.472
    1   AR   Ar   19   2.761   3.557   0.660
    1   AR   Ar   20   4.187   5.319  -1.967
    1   AR   Ar   21   3.670   1.699   1.440
    1   AR   Ar   22   6.358   2.000   2.816
    1   AR   Ar   23   0.516   0.827   0.295
    1   AR   Ar   24   6.558   2.298   1.843
    1   AR   Ar   25   0.701   1.839   4.451
    1   AR   Ar   26   6.404   0.162   3.977
    1   AR   Ar   27   1.410   0.910   2.833
    1   AR   Ar   28   0.267   2.671   5.134
    1   AR   Ar   29   5.319   2.937   7.037
    1   AR   Ar   30   1.843   1.307   4.120
    1   AR   Ar   31   3.179   0.975   6.925
    1   AR   Ar   32   1.148   2.716   6.674
    1   AR   Ar   33   0.807   4.374   0.502
    1   AR   Ar   34   0.348   5.240   2.318
    1   AR   Ar   35   6.048   5.703   1.309
    1   AR   Ar   36   5.918   0.978  -3.297
    1   AR   Ar   37   5.391   2.293   2.347
    1   AR   Ar   38   7.047   4.067   2.469
    1   AR   Ar   39   0.914   3.847   2.075
    1   AR   Ar   40   2.368   3.451   1.864
    1   AR   Ar   41   0.223   2.274   3.612
    1   AR   Ar   42   5.768   4.881   4.597
    1   AR   Ar   43   6.839   2.368   6.021
    1   AR   Ar   44   0.759   4.393   3.308
    1   AR   Ar   45   0.795   3.596   5.610
    1   AR   Ar   46   6.889   5.116   4.962
    1   AR   Ar   47   5.796   4.260   7.347
    1   AR   Ar   48   6.336   4.833   6.565
    1   AR   Ar   49   5.413   0.807  -1.216
    1   AR   Ar   50   4.279   4.540   0.649
    1   AR   Ar   51   6.639   4.888   1.610
    1   AR   Ar   52   6.424   3.231  -2.913
    1   AR   Ar   53   5.441   5.440   2.674
    1   AR   Ar   54   0.400   6.467   2.618
    1   AR   Ar   55   6.547   5.855   2.281
    1   AR   Ar   56   7.022   0.837   1.365
    1   AR   Ar   57   5.019   3.511   3.468
    1   AR   Ar   58   6.962   3.313   4.018
    1   AR   Ar   59   2.235   5.143   5.833
    1   AR   Ar   60   0.107   5.709   3.232
    1   AR   Ar   61   0.173   4.786   5.983
    1   AR   Ar   62   6.920   4.414   4.146
    1   AR   Ar   63   2.239   0.800   6.540
    1   AR   Ar   64   1.329   5.559   5.050
    1   AR   Ar   65   3.823   6.603   0.784
    1   AR   Ar   66   0.913   1.531   1.893
    1   AR   Ar   67   3.723   6.698  -0.473
    1   AR   Ar   68   1.887   1.895  -1.041
    1   AR   Ar   69   2.407   1.077   0.671
    1   AR   Ar   70   0.705   0.325   2.398
    1   AR   Ar   71   2.774   0.826   3.816
    1   AR   Ar   72   4.150   6.809   2.397
    1   AR   Ar   73   4.109   0.344   3.429
    1   AR   Ar   74   1.563   0.567   4.827
    1   AR   Ar   75   3.525   0.678   4.852
    1   AR   Ar   76   1.727   0.548   1.659
    1   AR   Ar   77   1.872   6.809   5.337
    1   AR   Ar   78   0.213   6.250   5.905
    1   AR   Ar   79   3.451   5.994   6.167
    1   AR   Ar   80   3.500   5.022   5.545
    1   AR   Ar   81   2.606   5.953   0.234
    1   AR   Ar   82   6.632   4.946   0.580
    1   AR   Ar   83   0.776   2.179   0.941
    1   AR   Ar   84   0.085   4.041   1.286
    1   AR   Ar   85   1.572   3.403   1.251
    1   AR   Ar   86   1.630   5.082   0.901
    1   AR   Ar   87   1.869   2.448   0.974
    1   AR   Ar   88   2.219   4.472   1.876
    1   AR   Ar   89   0.191   3.161   2.801
    1   AR   Ar   90   2.471   2.139   4.401
    1   AR   Ar   91   1.304   2.590   3.466
    1   AR   Ar   92   1.377   2.538   2.101
    1   AR   Ar   93   1.230   0.387   5.828
    1   AR   Ar   94   0.206   0.080  11.471
    1   AR   Ar   95   3.922   0.666   5.961
    1   AR   Ar   96   2.714   0.020   4.826
    1   AR   Ar   97   4.590   1.733  -0.290
    1   AR   Ar   98   1.598   4.702   2.803
    1   AR   Ar   99   6.642   1.452  -0.301
    1   AR   Ar  100   1.478   2.777  -0.681
    1   AR   Ar  101   3.492   4.842   1.446
    1   AR   Ar  102   3.662   2.291   3.066
    1   AR   Ar  103   0.793   4.822   1.496
    1   AR   Ar  104   2.982   3.732  -1.530
    1   AR   Ar  105   1.013   3.117   4.351
    1   AR   Ar  106   3.524   3.259   5.813
    1   AR   Ar  107   0.827   4.482   4.660
    1   AR   Ar  108   2.477   0.962   5.034
    1   AR   Ar  109   1.856   3.975   5.092
    1   AR   Ar  110   2.249   2.914   5.467
    1   AR   Ar  111   4.635   5.040   7.899
    1   AR   Ar  112   1.351   5.842   6.325
    1   AR   Ar  113   3.182   4.786   0.423
    1   AR   Ar  114   2.901   0.087  -0.793
    1   AR   Ar  115   2.397   4.654  -0.803
    1   AR   Ar  116   6.226   0.601  -0.655
    1   AR   Ar  117   0.589   5.264   4.103
    1   AR   Ar  118   1.251   5.588   3.254
    1   AR   Ar  119   1.851   3.162   2.821
    1   AR   Ar  120   1.820   6.669   1.805
    1   AR   Ar  121   5.577   3.793   5.035
    1   AR   Ar  122   2.711   6.053   4.992
    1   AR   Ar  123   3.386   3.985   4.969
    1   AR   Ar  124   1.618   5.620   2.007
    1   AR   Ar  125   6.749   3.986   5.085
    1   AR   Ar  126   0.018   6.945   4.672
    1   AR   Ar  127   4.454   3.622   6.186
    1   AR   Ar  128   3.434   4.892   6.578
    1   AR   Ar  129   2.332   5.883   3.302
    1   AR   Ar  130   4.321   2.464  -2.726
    1   AR   Ar  131   3.668   2.300  -0.418
    1   AR   Ar  132   7.087   2.641  -0.307
    1   AR   Ar  133   4.833   6.313   3.224
    1   AR   Ar  134   4.409   0.937   4.206
    1   AR   Ar  135   5.925   0.863   2.395
    1   AR   Ar  136   5.474   6.927   2.641
    1   AR   Ar  137   1.978   4.954   4.154
    1   AR   Ar  138   4.852   1.400   5.823
    1   AR   Ar  139   5.852   2.161   5.506
    1   AR   Ar  140   4.274   6.844   4.234
    1   AR   Ar  141   4.217   4.974   4.612
    1   AR   Ar  142   2.883   7.050   6.281
    1   AR   Ar  143   6.409   6.878   5.335
    1   AR   Ar  144   6.938   1.588   4.962
    1   AR   Ar  145   4.980   4.343  -0.542
    1   AR   Ar  146   2.723   2.613   2.500
    1   AR   Ar  147   4.497   2.002  -1.643
    1   AR   Ar  148   3.407   5.789  -1.088
    1   AR   Ar  149   2.719   2.161   0.194
    1   AR   Ar  150   2.296   1.316   2.209
    1   AR   Ar  151   2.368   1.801   3.205
    1   AR   Ar  152   2.817   2.566  -1.136
    1   AR   Ar  153   5.089   0.250   3.687
    1   AR   Ar  154   3.587   1.762   4.279
    1   AR   Ar  155   6.452   5.958   6.272
    1   AR   Ar  156   3.541   3.302   2.929
    1   AR   Ar  157   1.313   3.895   6.479
    1   AR   Ar  158   0.290   2.038   6.817
    1   AR   Ar  159   4.536   1.805   7.353
    1   AR   Ar  160   1.660   2.065   5.284
    1   AR   Ar  161   5.125   3.864   1.791
    1   AR   Ar  162   4.605   5.825  -0.772
    1   AR   Ar  163   5.906   3.822  -0.070
    1   AR   Ar  164   2.777   5.301   2.470
    1   AR   Ar  165   4.318   2.413   0.533
    1   AR   Ar  166   3.210   2.829   4.606
    1   AR   Ar  167   4.752   0.929   2.704
    1   AR   Ar  168   5.781   3.699  -1.379
    1   AR   Ar  169   2.957   4.127   2.513
    1   AR   Ar  170   2.543   4.001   5.923
    1   AR   Ar  171   6.009   4.040   3.837
    1   AR   Ar  172   4.421   4.503   5.469
    1   AR   Ar  173   3.094   3.487   6.898
    1   AR   Ar  174   2.429   6.127   6.659
    1   AR   Ar  175   3.098   1.895   6.737
    1   AR   Ar  176   3.934   2.152   5.399
    1   AR   Ar  177   7.025   5.291  -1.173
    1   AR   Ar  178   4.216   4.914  -0.331
    1   AR   Ar  179   3.890   5.843   0.161
    1   AR   Ar  180   2.018   1.719  -2.967
    1   AR   Ar  181   0.032   5.748   1.356
    1   AR   Ar  182   2.485   6.931   2.977
    1   AR   Ar  183   3.844   4.852   2.534
    1   AR   Ar  184   5.039   6.412   1.245
    1   AR   Ar  185   2.723   5.030   4.990
    1   AR   Ar  186   2.942   4.677   3.486
    1   AR   Ar  187   3.375   6.600   3.343
    1   AR   Ar  188   2.883   6.784   1.841
    1   AR   Ar  189   4.059   2.505   6.581
    1   AR   Ar  190   3.243   5.660   4.076
    1   AR   Ar  191   2.759   6.695   7.841
    1   AR   Ar  192   3.921   5.919   5.011
    1   AR   Ar  193   3.158   5.815   1.628
    1   AR   Ar  194   3.822   3.775  -0.867
    1   AR   Ar  195   5.543   1.771   0.189
    1   AR   Ar  196   4.604   0.364   0.216
    1   AR   Ar  197   3.554   1.537   0.297
    1   AR   Ar  198   5.921   1.510   1.272
    1   AR   Ar  199   3.282   1.209   2.818
    1   AR   Ar  200   5.894   2.685  -0.275
    1   AR   Ar  201   5.750   6.346   4.071
    1   AR   Ar  202   5.820   1.096   4.887
    1   AR   Ar  203   6.442   6.387   3.127
    1   AR   Ar  204   4.777   6.436   5.384
    1   AR   Ar  205   6.918   7.038   2.025
    1   AR   Ar  206   4.914   0.565   5.091
    1   AR   Ar  207   0.533   1.432   5.964
    1   AR   Ar  208   0.166   6.947   3.507
    1   AR   Ar  209   7.077   2.741  -2.034
    1   AR   Ar  210   2.728   0.220   0.185
    1   AR   Ar  211   6.698   3.349   0.840
    1   AR   Ar  212   6.594   3.161  -0.964
    1   AR   Ar  213   3.356   0.723   1.827
    1   AR   Ar  214   4.452   3.415   2.545
    1   AR   Ar  215   5.610   2.718   1.148
    1   AR   Ar  216   0.398   3.004   1.794
    1   AR   Ar  217   5.321   2.931   4.414
    1   AR   Ar  218   4.275   3.257   4.750
    1   AR   Ar  219   4.189   2.766   3.849
    1   AR   Ar  220   4.105   3.873   1.545
    1   AR   Ar  221   6.459   6.012   4.843
    1   AR   Ar  222   5.158   0.363   6.327
    1   AR   Ar  223   6.350   1.345   6.312
    1   AR   Ar  224   4.865   2.705   5.560
    1   AR   Ar  225   6.029   3.013   3.135
    1   AR   Ar  226   2.100   3.561   3.979
    1   AR   Ar  227   6.367   3.540   1.917
    1   AR   Ar  228   5.918   6.765   1.697
    1   AR   Ar  229   5.344   5.322  -1.284
    1   AR   Ar  230   4.086   3.854   3.883
    1   AR   Ar  231   5.591   1.372   3.808
    1   AR   Ar  232   4.752   1.915   1.468
    1   AR   Ar  233   6.044   2.335   3.899
    1   AR   Ar  234   6.277   3.025   4.943
    1   AR   Ar  235   6.655   1.097   3.525
    1   AR   Ar  236   5.522   5.406   5.588
    1   AR   Ar  237   5.956   3.112   6.103
    1   AR   Ar  238   5.161   4.432   6.222
    1   AR   Ar  239   6.653   4.177   9.041
    1   AR   Ar  240   6.599   2.855   6.982
    1   AR   Ar  241   1.601   6.577  -0.267
    1   AR   Ar  242   5.536   5.026   0.678
    1   AR   Ar  243   4.830   4.490   2.686
    1   AR   Ar  244   0.430   5.462  -0.167
    1   AR   Ar  245   4.495   0.478   1.231
    1   AR   Ar  246   5.311   6.808  -0.040
    1   AR   Ar  247   5.916   4.138   1.035
    1   AR   Ar  248   5.992   5.887  -0.456
    1   AR   Ar  249   4.271   5.642   1.552
    1   AR   Ar  250   4.901   5.776   4.396
    1   AR   Ar  251   4.971   4.225   4.291
    1   AR   Ar  252   4.416   5.376   3.507
    1   AR   Ar  253   6.797   3.873   6.707
    1   AR   Ar  254   2.270   2.233   9.462
    1   AR   Ar  255   3.599   4.581   9.454
    1   AR   Ar  256   6.381   5.029   2.997
    7.12000  7.12000 12.00000
Argon-slab step 3510
  256
    1   AR   Ar    1   6.018   2.684  -1.991
    1   AR   Ar    2   6.019   0.790   0.478
    1   AR   Ar    3   3.249   1.228  -0.639
    1   AR   Ar    4   1.574   0.953  -0.540
    1   AR   Ar    5   6.821   6.759   0.945
    1   AR   Ar    6   7.030   1.077   2.486
    1   AR   Ar    7   5.779   4.057   2.753
    1   AR   Ar    8   5.451   0.610   1.297
    1   AR   Ar    9   1.274   6.743   3.147
    1   AR   Ar   10   0.445   0.780   4.005
    1   AR   Ar   11   2.019   6.466   4.293
    1   AR   Ar   12   0.833   1.582   3.209
    1   AR   Ar   13   0.174   0.633   5.475
    1   AR   Ar   14   6.254   1.970   7.421
    1   AR   Ar   15   5.226   6.754   8.015
    1   AR   Ar   16   0.883   6.745   5.163
    1   AR   Ar   17   6.692   2.101   0.776
    1   AR   Ar   18   6.083   4.738  -0.465
    1   AR   Ar   19   2.742   3.551   0.664
    1   AR   Ar   20   4.208   5.303  -2.006
    1   AR   Ar   21   3.626   1.716   1.437
    1   AR   Ar   22   6.362   2.025   2.828
    1   AR   Ar   23   0.535   0.811   0.334
    1   AR   Ar   24   6.557   2.274   1.838
    1   AR   Ar   25   0.703   1.799   4.438
    1   AR   Ar   26   6.411   0.167   3.979
    1   AR   Ar   27   1.427   0.910   2.838
    1   AR   Ar   28   0.261   2.649   5.119
    1   AR   Ar   29   5.330   2.934   7.042
    1   AR   Ar   30   1.780   1.308   4.121
    1   AR   Ar   31   3.177   0.944   6.927
    1   AR   Ar   32   1.166   2.701   6.671
    1   AR   Ar   33   0.809   4.396   0.500
    1   AR   Ar   34   0.334   5.246   2.336
    1   AR   Ar   35   6.082   5.716   1.319
    1   AR   Ar   36   5.916   0.981  -3.255
    1   AR   Ar   37   5.386   2.276   2.376
    1   AR   Ar   38   7.062   4.083   2.471
    1   AR   Ar   39   0.939   3.869   2.035
    1   AR   Ar   40   2.348   3.450   1.843
    1   AR   Ar   41   0.231   2.274   3.624
    1   AR   Ar   42   5.756   4.861   4.569
    1   AR   Ar   43   6.810   2.371   6.030
    1   AR   Ar   44   0.783   4.408   3.300
    1   AR   Ar   45   0.787   3.602   5.611
    1   AR   Ar   46   6.891   5.100   4.994
    1   AR   Ar   47   5.774   4.258   7.346
    1   AR   Ar   48   6.329   4.801   6.569
    1   AR   Ar   49   5.404   0.802  -1.217
    1   AR   Ar   50   4.258   4.531   0.663
    1   AR   Ar   51   6.616   4.906   1.615
    1   AR   Ar   52   6.404   3.230  -2.937
    1   AR   Ar   53   5.445   5.457   2.652
    1   AR   Ar   54   0.373   6.460   2.633
    1   AR   Ar   55   6.541   5.876   2.277
    1   AR   Ar   56   7.019   0.816   1.351
    1   AR   Ar   57   5.030   3.492   3.451
    1   AR   Ar   58   6.964   3.324   4.026
    1   AR   Ar   59   2.231   5.150   5.854
    1   AR   Ar   60   0.102   5.708   3.250
    1   AR   Ar   61   0.154   4.793   5.975
    1   AR   Ar   62   6.948   4.443   4.143
    1   AR   Ar   63   2.233   0.820   6.510
    1   AR   Ar   64   1.325   5.577   5.074
    1   AR   Ar   65   3.834   6.610   0.807
    1   AR   Ar   66   0.912   1.554   1.911
    1   AR   Ar   67   3.716   6.731  -0.461
    1   AR   Ar   68   1.890   1.896  -1.042
    1   AR   Ar   69   2.412   1.081   0.680
    1   AR   Ar   70   0.670   0.341   2.384
    1   AR   Ar   71   2.764   0.841   3.809
    1   AR   Ar   72   4.188   6.808   2.391
    1   AR   Ar   73   4.108   0.305   3.409
    1   AR   Ar   74   1.519   0.551   4.809
    1   AR   Ar   75   3.541   0.668   4.818
    1   AR   Ar   76   1.744   0.548   1.609
    1   AR   Ar   77   1.903   6.791   5.373
    1   AR   Ar   78   0.214   6.235   5.930
    1   AR   Ar   79   3.469   5.997   6.174
    1   AR   Ar   80   3.521   5.038   5.548
    1   AR   Ar   81   2.641   5.973   0.216
    1   AR   Ar   82   6.663   4.924   0.600
    1   AR   Ar   83   0.784   2.197   0.959
    1   AR   Ar   84   0.073   4.040   1.304
    1   AR   Ar   85   1.570   3.427   1.235
    1   AR   Ar   86   1.603   5.054   0.917
    1   AR   Ar   87   1.870   2.448   0.989
    1   AR   Ar   88   2.222   4.470   1.910
    1   AR   Ar   89   0.215   3.142   2.781
    1   AR   Ar   90   2.477   2.146   4.397
    1   AR   Ar   91   1.299   2.601   3.465
    1   AR   Ar   92   1.403   2.512   2.117
    1   AR   Ar   93   1.209   0.402   5.861
    1   AR   Ar   94   0.211   0.060  11.450
    1   AR   Ar   95   3.928   0.659   5.967
    1   AR   Ar   96   2.717   7.107   4.838
    1   AR   Ar   97   4.581   1.723  -0.297
    1   AR   Ar   98   1.588   4.699   2.813
    1   AR   Ar   99   6.628   1.466  -0.286
    1   AR   Ar  100   1.493   2.811  -0.669
    1   AR   Ar  101   3.498   4.819   1.441
    1   AR   Ar  102   3.672   2.234   3.049
    1   AR   Ar  103   0.812   4.817   1.508
    1   AR   Ar  104   2.968   3.700  -1.501
    1   AR   Ar  105   0.990   3.100   4.383
    1   AR   Ar  106   3.536   3.269   5.825
    1   AR   Ar  107   0.833   4.448   4.650
    1   AR   Ar  108   2.464   0.952   5.023
    1   AR   Ar  109   1.830   3.929   5.100
    1   AR   Ar  110   2.254   2.936   5.477
    1   AR   Ar  111   4.644   5.056   7.917
    1   AR   Ar  112   1.348   5.805   6.343
    1   AR   Ar  113   3.166   4.764   0.428
    1   AR   Ar  114   2.927   0.096  -0.780
    1   AR   Ar  115   2.409   4.626  -0.785
    1   AR   Ar  116   6.248   0.608  -0.676
    1   AR   Ar  117   0.578   5.267   4.130
    1   AR   Ar  118   1.262   5.580   3.300
    1   AR   Ar  119   1.861   3.177   2.849
    1   AR   Ar  120   1.824   6.678   1.797
    1   AR   Ar  121   5.572   3.839   5.059
    1   AR   Ar  122   2.705   6.068   4.995
    1   AR   Ar  123   3.405   3.969   4.969
    1   AR   Ar  124   1.600   5.622   2.015
    1   AR   Ar  125   6.736   3.958   5.098
    1   AR   Ar  126   0.026   6.924   4.686
    1   AR   Ar  127   4.467   3.592   6.146
    1   AR   Ar  128   3.446   4.897   6.556
    1   AR   Ar  129   2.296   5.887   3.349
    1   AR   Ar  130   4.312   2.445  -2.749
    1   AR   Ar  131   3.682   2.318  -0.438
    1   AR   Ar  132   7.093   2.636  -0.310
    1   AR   Ar  133   4.823   6.305   3.264
    1   AR   Ar  134   4.423   0.941   4.168
    1   AR   Ar  135   5.930   0.876   2.402
    1   AR   Ar  136   5.460   6.917   2.620
    1   AR   Ar  137   1.951   4.937   4.193
    1   AR   Ar  138   4.877   1.395   5.835
    1   AR   Ar  139   5.836   2.165   5.510
    1   AR   Ar  140   4.290   6.828   4.265
    1   AR   Ar  141   4.213   4.984   4.598
    1   AR   Ar  142   2.907   7.056   6.276
    1   AR   Ar  143   6.384   6.865   5.321
    1   AR   Ar  144   6.964   1.583   4.963
    1   AR   Ar  145   4.984   4.351  -0.545
    1   AR   Ar  146   2.712   2.596   2.498
    1   AR   Ar  147   4.489   2.029  -1.635
    1   AR   Ar  148   3.408   5.773  -1.087
    1   AR   Ar  149   2.736   2.180   0.170
    1   AR   Ar  150   2.287   1.352   2.237
    1   AR   Ar  151   2.377   1.834   3.205
    1   AR   Ar  152   2.813   2.570  -1.157
    1   AR   Ar  153   5.114   0.253   3.708
    1   AR   Ar  154   3.563   1.753   4.253
    1   AR   Ar  155   6.426   5.894   6.222
    1   AR   Ar  156   3.583   3.291   2.959
    1   AR   Ar  157   1.292   3.899   6.464
    1   AR   Ar  158   0.292   2.037   6.821
    1   AR   Ar  159   4.490   1.787   7.333
    1   AR   Ar  160   1.630   2.070   5.285
    1   AR   Ar  161   5.103   3.885   1.790
    1   AR   Ar  162   4.561   5.825  -0.786
    1   AR   Ar  163   5.931   3.811  -0.088
    1   AR   Ar  164   2.771   5.309   2.471
    1   AR   Ar  165   4.296   2.371   0.533
    1   AR   Ar  166   3.197   2.852   4.607
    1   AR   Ar  167   4.743   0.878   2.661
    1   AR   Ar  168   5.746   3.703  -1.401
    1   AR   Ar  169   2.969   4.153   2.527
    1   AR   Ar  170   2.597   3.972   5.931
    1   AR   Ar  171   5.980   4.046   3.847
    1   AR   Ar  172   4.449   4.510   5.456
    1   AR   Ar  173   3.074   3.478   6.884
    1   AR   Ar  174   2.418   6.134   6.657
    1   AR   Ar  175   3.117   1.940   6.750
    1   AR   Ar  176   3.940   2.187   5.371
    1   AR   Ar  177   7.034   5.329  -1.188
    1   AR   Ar  178   4.236   4.915  -0.322
    1   AR   Ar  179   3.873   5.781   0.169
    1   AR   Ar  180   2.042   1.743  -2.960
    1   AR   Ar  181   7.115   5.712   1.336
    1   AR   Ar  182   2.473   6.937   2.941
    1   AR   Ar  183   3.834   4.875   2.540
    1   AR   Ar  184   5.048   6.369   1.224
    1   AR   Ar  185   2.706   5.006   4.984
    1   AR   Ar  186   2.949   4.700   3.458
    1   AR   Ar  187   3.391   6.596   3.358
    1   AR   Ar  188   2.871   6.756   1.858
    1   AR   Ar  189   4.066   2.502   6.569
    1   AR   Ar  190   3.237   5.662   4.071
    1   AR   Ar  191   2.761   6.671   7.844
    1   AR   Ar  192   3.897   5.885   5.054
    1   AR   Ar  193   3.180   5.836   1.655
    1   AR   Ar  194   3.851   3.806  -0.878
    1   AR   Ar  195   5.519   1.763   0.183
    1   AR   Ar  196   4.625   0.366   0.231
    1   AR   Ar  197   3.556   1.539   0.289
    1   AR   Ar  198   5.904   1.523   1.268
    1   AR   Ar  199   3.260   1.188   2.805
    1   AR   Ar  200   5.880   2.708  -0.294
    1   AR   Ar  201   5.717   6.333   4.071
    1   AR   Ar  202   5.849   1.096   4.873
    1   AR   Ar  203   6.430   6.392   3.147
    1   AR   Ar  204   4.765   6.460   5.378
    1   AR   Ar  205   6.933   6.993   2.037
    1   AR   Ar  206   4.922   0.559   5.132
    1   AR   Ar  207   0.520   1.436   5.934
    1   AR   Ar  208   0.182   6.915   3.544
    1   AR   Ar  209   7.096   2.744  -1.999
    1   AR   Ar  210   2.693   0.231   0.192
    1   AR   Ar  211   6.680   3.369   0.827
    1   AR   Ar  212   6.565   3.114  -0.975
    1   AR   Ar  213   3.326   0.741   1.787
    1   AR   Ar  214   4.459   3.419   2.544
    1   AR   Ar  215   5.644   2.687   1.133
    1   AR   Ar  216   0.385   2.969   1.785
    1   AR   Ar  217   5.310   2.967   4.423
    1   AR   Ar  218   4.308   3.266   4.780
    1   AR   Ar  219   4.187   2.798   3.867
    1   AR   Ar  220   4.134   3.865   1.542
    1   AR   Ar  221   6.460   6.009   4.830
    1   AR   Ar  222   5.184   0.359   6.340
    1   AR   Ar  223   6.342   1.332   6.323
    1   AR   Ar  224   4.874   2.683   5.509
    1   AR   Ar  225   6.062   3.027   3.145
    1   AR   Ar  226   2.119   3.569   3.987
    1   AR   Ar  227   6.340   3.527   1.895
    1   AR   Ar  228   5.907   6.789   1.711
    1   AR   Ar  229   5.324   5.363  -1.280
    1   AR   Ar  230   4.080   3.842   3.862
    1   AR   Ar  231   5.580   1.338   3.841
    1   AR   Ar  232   4.733   1.878   1.463
    1   AR   Ar  233   6.060   2.317   3.921
    1   AR   Ar  234   6.281   3.013   4.978
    1   AR   Ar  235   6.644   1.075   3.539
    1   AR   Ar  236   5.507   5.415   5.593
    1   AR   Ar  237   5.968   3.101   6.120
    1   AR   Ar  238   5.202   4.414   6.204
    1   AR   Ar  239   6.631   4.204   9.054
    1   AR   Ar  240   6.581   2.844   6.947
    1   AR   Ar  241   1.629   6.587  -0.241
    1   AR   Ar  242   5.516   5.025   0.674
    1   AR   Ar  243   4.835   4.509   2.658
    1   AR   Ar  244   0.405   5.451  -0.162
    1   AR   Ar  245   4.474   0.496   1.279
    1   AR   Ar  246   5.295   6.802  -0.021
    1   AR   Ar  247   5.939   4.132   1.045
    1   AR   Ar  248   5.987   5.883  -0.431
    1   AR   Ar  249   4.258   5.610   1.570
    1   AR   Ar  250   4.897   5.789   4.393
    1   AR   Ar  251   4.999   4.209   4.327
    1   AR   Ar  252   4.414   5.387   3.529
    1   AR   Ar  253   6.782   3.829   6.698
    1   AR   Ar  254   2.281   2.234   9.467
    1   AR   Ar  255   3.616   4.571   9.491
    1   AR   Ar  256   6.370   5.026   2.985
    7.12000  7.12000 12.00000
Argon-slab step 3515
  256
    1   AR   Ar    1   6.030   2.650  -1.995
    1   AR   Ar    2   6.012   0.770   0.467
    1   AR   Ar    3   3.254   1.216  -0.666
    1   AR   Ar    4   1.566   0.928  -0.538
    1   AR   Ar    5   6.822   6.736   0.934
    1   AR   Ar    6   7.029   1.092   2.463
    1   AR   Ar    7   5.787   4.051   2.714
    1   AR   Ar    8   5.403   0.655   1.314
    1   AR   Ar    9   1.279   6.764   3.123
    1   AR   Ar   10   0.431   0.775   4.013
    1   AR   Ar   11   2.007   6.474   4.286
    1   AR   Ar   12   0.817   1.558   3.206
    1   AR   Ar   13   0.195   0.646   5.480
    1   AR   Ar   14   6.238   1.945   7.413
    1   AR   Ar   15   5.236   6.740   8.002
    1   AR   Ar   16   0.873   6.703   5.154
    1   AR   Ar   17   6.696   2.081   0.783
    1   AR   Ar   18   6.107   4.779  -0.461
    1   AR   Ar   19   2.769   3.543   0.660
    1   AR   Ar   20   4.229   5.287  -2.042
    1   AR   Ar   21   3.582   1.734   1.433
    1   AR   Ar   22   6.370   2.036   2.844
    1   AR   Ar   23   0.553   0.796   0.373
    1   AR   Ar   24   6.566   2.274   1.857
    1   AR   Ar   25   0.712   1.760   4.424
    1   AR   Ar   26   6.414   0.169   3.983
    1   AR   Ar   27   1.456   0.900   2.838
    1   AR   Ar   28   0.255   2.627   5.103
    1   AR   Ar   29   5.341   2.931   7.046
    1   AR   Ar   30   1.716   1.311   4.119
    1   AR   Ar   31   3.180   0.904   6.930
    1   AR   Ar   32   1.184   2.687   6.666
    1   AR   Ar   33   0.810   4.418   0.498
    1   AR   Ar   34   0.320   5.251   2.354
    1   AR   Ar   35   6.107   5.736   1.326
    1   AR   Ar   36   5.914   0.985  -3.214
    1   AR   Ar   37   5.383   2.270   2.391
    1   AR   Ar   38   7.076   4.108   2.472
    1   AR   Ar   39   0.965   3.891   1.998
    1   AR   Ar   40   2.337   3.443   1.830
    1   AR   Ar   41   0.230   2.283   3.638
    1   AR   Ar   42   5.749   4.845   4.543
    1   AR   Ar   43   6.780   2.373   6.032
    1   AR   Ar   44   0.794   4.420   3.299
    1   AR   Ar   45   0.776   3.606   5.607
    1   AR   Ar   46   6.896   5.078   5.027
    1   AR   Ar   47   5.752   4.255   7.344
    1   AR   Ar   48   6.321   4.772   6.570
    1   AR   Ar   49   5.389   0.799  -1.221
    1   AR   Ar   50   4.237   4.523   0.679
    1   AR   Ar   51   6.582   4.914   1.632
    1   AR   Ar   52   6.385   3.229  -2.960
    1   AR   Ar   53   5.447   5.476   2.629
    1   AR   Ar   54   0.355   6.445   2.646
    1   AR   Ar   55   6.536   5.895   2.268
    1   AR   Ar   56   7.016   0.796   1.338
    1   AR   Ar   57   5.043   3.474   3.436
    1   AR   Ar   58   6.966   3.334   4.035
    1   AR   Ar   59   2.224   5.159   5.882
    1   AR   Ar   60   0.098   5.701   3.276
    1   AR   Ar   61   0.136   4.800   5.967
    1   AR   Ar   62   6.932   4.468   4.116
    1   AR   Ar   63   2.222   0.840   6.477
    1   AR   Ar   64   1.322   5.594   5.098
    1   AR   Ar   65   3.844   6.620   0.833
    1   AR   Ar   66   0.917   1.564   1.894
    1   AR   Ar   67   3.720   6.757  -0.442
    1   AR   Ar   68   1.895   1.895  -1.044
    1   AR   Ar   69   2.412   1.077   0.695
    1   AR   Ar   70   0.639   0.358   2.370
    1   AR   Ar   71   2.762   0.861   3.807
    1   AR   Ar   72   4.227   6.808   2.385
    1   AR   Ar   73   4.102   0.265   3.383
    1   AR   Ar   74   1.472   0.531   4.792
    1   AR   Ar   75   3.559   0.659   4.782
    1   AR   Ar   76   1.760   0.556   1.559
    1   AR   Ar   77   1.934   6.771   5.413
    1   AR   Ar   78   0.222   6.222   5.951
    1   AR   Ar   79   3.486   5.999   6.178
    1   AR   Ar   80   3.545   5.052   5.553
    1   AR   Ar   81   2.678   5.992   0.197
    1   AR   Ar   82   6.650   4.899   0.604
    1   AR   Ar   83   0.791   2.215   0.979
    1   AR   Ar   84   0.068   4.049   1.330
    1   AR   Ar   85   1.557   3.453   1.213
    1   AR   Ar   86   1.582   5.027   0.930
    1   AR   Ar   87   1.873   2.445   1.004
    1   AR   Ar   88   2.218   4.477   1.939
    1   AR   Ar   89   0.238   3.118   2.769
    1   AR   Ar   90   2.479   2.148   4.391
    1   AR   Ar   91   1.290   2.606   3.467
    1   AR   Ar   92   1.430   2.488   2.131
    1   AR   Ar   93   1.188   0.418   5.895
    1   AR   Ar   94   0.216   0.041  11.429
    1   AR   Ar   95   3.935   0.652   5.971
    1   AR   Ar   96   2.726   7.072   4.845
    1   AR   Ar   97   4.570   1.711  -0.306
    1   AR   Ar   98   1.590   4.697   2.814
    1   AR   Ar   99   6.637   1.474  -0.270
    1   AR   Ar  100   1.508   2.846  -0.655
    1   AR   Ar  101   3.503   4.793   1.439
    1   AR   Ar  102   3.663   2.214   3.026
    1   AR   Ar  103   0.828   4.811   1.523
    1   AR   Ar  104   2.952   3.668  -1.471
    1   AR   Ar  105   0.965   3.084   4.417
    1   AR   Ar  106   3.543   3.276   5.834
    1   AR   Ar  107   0.841   4.406   4.645
    1   AR   Ar  108   2.451   0.952   5.012
    1   AR   Ar  109   1.804   3.884   5.108
    1   AR   Ar  110   2.261   2.960   5.487
    1   AR   Ar  111   4.654   5.071   7.934
    1   AR   Ar  112   1.346   5.768   6.359
    1   AR   Ar  113   3.153   4.747   0.451
    1   AR   Ar  114   2.944   0.110  -0.778
    1   AR   Ar  115   2.423   4.596  -0.767
    1   AR   Ar  116   6.273   0.608  -0.695
    1   AR   Ar  117   0.566   5.277   4.154
    1   AR   Ar  118   1.271   5.575   3.347
    1   AR   Ar  119   1.875   3.198   2.873
    1   AR   Ar  120   1.826   6.680   1.792
    1   AR   Ar  121   5.571   3.883   5.091
    1   AR   Ar  122   2.717   6.074   5.042
    1   AR   Ar  123   3.425   3.955   4.968
    1   AR   Ar  124   1.581   5.621   2.024
    1   AR   Ar  125   6.724   3.932   5.113
    1   AR   Ar  126   0.035   6.905   4.689
    1   AR   Ar  127   4.484   3.562   6.106
    1   AR   Ar  128   3.456   4.901   6.539
    1   AR   Ar  129   2.263   5.892   3.396
    1   AR   Ar  130   4.303   2.427  -2.772
    1   AR   Ar  131   3.696   2.338  -0.460
    1   AR   Ar  132   7.113   2.614  -0.299
    1   AR   Ar  133   4.814   6.302   3.304
    1   AR   Ar  134   4.432   0.959   4.185
    1   AR   Ar  135   5.944   0.876   2.416
    1   AR   Ar  136   5.444   6.908   2.606
    1   AR   Ar  137   1.923   4.920   4.231
    1   AR   Ar  138   4.890   1.378   5.844
    1   AR   Ar  139   5.821   2.166   5.515
    1   AR   Ar  140   4.306   6.809   4.298
    1   AR   Ar  141   4.206   4.994   4.576
    1   AR   Ar  142   2.932   7.063   6.269
    1   AR   Ar  143   6.350   6.862   5.321
    1   AR   Ar  144   6.984   1.578   4.968
    1   AR   Ar  145   5.003   4.350  -0.553
    1   AR   Ar  146   2.710   2.598   2.493
    1   AR   Ar  147   4.481   2.057  -1.625
    1   AR   Ar  148   3.411   5.758  -1.084
    1   AR   Ar  149   2.750   2.200   0.146
    1   AR   Ar  150   2.278   1.386   2.263
    1   AR   Ar  151   2.386   1.865   3.210
    1   AR   Ar  152   2.808   2.574  -1.176
    1   AR   Ar  153   5.145   0.255   3.727
    1   AR   Ar  154   3.538   1.744   4.227
    1   AR   Ar  155   6.394   5.827   6.173
    1   AR   Ar  156   3.611   3.282   2.996
    1   AR   Ar  157   1.273   3.903   6.452
    1   AR   Ar  158   0.308   2.039   6.812
    1   AR   Ar  159   4.445   1.769   7.313
    1   AR   Ar  160   1.598   2.072   5.284
    1   AR   Ar  161   5.092   3.906   1.790
    1   AR   Ar  162   4.512   5.828  -0.796
    1   AR   Ar  163   5.955   3.793  -0.103
    1   AR   Ar  164   2.763   5.315   2.475
    1   AR   Ar  165   4.274   2.328   0.535
    1   AR   Ar  166   3.190   2.879   4.610
    1   AR   Ar  167   4.734   0.825   2.619
    1   AR   Ar  168   5.710   3.708  -1.423
    1   AR   Ar  169   2.986   4.175   2.542
    1   AR   Ar  170   2.652   3.943   5.937
    1   AR   Ar  171   5.950   4.048   3.857
    1   AR   Ar  172   4.479   4.510   5.448
    1   AR   Ar  173   3.055   3.468   6.869
    1   AR   Ar  174   2.406   6.139   6.654
    1   AR   Ar  175   3.136   1.992   6.761
    1   AR   Ar  176   3.944   2.221   5.342
    1   AR   Ar  177   7.041   5.367  -1.202
    1   AR   Ar  178   4.241   4.925  -0.313
    1   AR   Ar  179   3.863   5.779   0.173
    1   AR   Ar  180   2.065   1.766  -2.954
    1   AR   Ar  181   7.089   5.684   1.312
    1   AR   Ar  182   2.458   6.944   2.903
    1   AR   Ar  183   3.819   4.909   2.537
    1   AR   Ar  184   5.054   6.327   1.184
    1   AR   Ar  185   2.686   4.978   4.964
    1   AR   Ar  186   2.956   4.726   3.431
    1   AR   Ar  187   3.410   6.589   3.374
    1   AR   Ar  188   2.859   6.740   1.879
    1   AR   Ar  189   4.075   2.500   6.554
    1   AR   Ar  190   3.231   5.664   4.067
    1   AR   Ar  191   2.762   6.646   7.845
    1   AR   Ar  192   3.871   5.856   5.094
    1   AR   Ar  193   3.207   5.849   1.678
    1   AR   Ar  194   3.882   3.837  -0.888
    1   AR   Ar  195   5.499   1.755   0.179
    1   AR   Ar  196   4.638   0.374   0.247
    1   AR   Ar  197   3.562   1.538   0.290
    1   AR   Ar  198   5.889   1.544   1.266
    1   AR   Ar  199   3.237   1.167   2.794
    1   AR   Ar  200   5.865   2.730  -0.311
    1   AR   Ar  201   5.681   6.318   4.076
    1   AR   Ar  202   5.880   1.098   4.861
    1   AR   Ar  203   6.414   6.402   3.171
    1   AR   Ar  204   4.753   6.484   5.370
    1   AR   Ar  205   6.935   6.954   2.039
    1   AR   Ar  206   4.929   0.551   5.172
    1   AR   Ar  207   0.511   1.449   5.908
    1   AR   Ar  208   0.201   6.884   3.583
    1   AR   Ar  209   7.116   2.748  -1.964
    1   AR   Ar  210   2.659   0.237   0.203
    1   AR   Ar  211   6.653   3.376   0.806
    1   AR   Ar  212   6.531   3.076  -0.998
    1   AR   Ar  213   3.295   0.756   1.747
    1   AR   Ar  214   4.476   3.425   2.537
    1   AR   Ar  215   5.680   2.656   1.119
    1   AR   Ar  216   0.371   2.933   1.770
    1   AR   Ar  217   5.299   3.003   4.431
    1   AR   Ar  218   4.341   3.279   4.815
    1   AR   Ar  219   4.186   2.825   3.881
    1   AR   Ar  220   4.153   3.857   1.538
    1   AR   Ar  221   6.459   6.002   4.812
    1   AR   Ar  222   5.209   0.355   6.350
    1   AR   Ar  223   6.334   1.322   6.333
    1   AR   Ar  224   4.885   2.662   5.458
    1   AR   Ar  225   6.095   3.045   3.152
    1   AR   Ar  226   2.137   3.576   3.996
    1   AR   Ar  227   6.312   3.513   1.873
    1   AR   Ar  228   5.901   6.812   1.720
    1   AR   Ar  229   5.308   5.400  -1.278
    1   AR   Ar  230   4.071   3.834   3.841
    1   AR   Ar  231   5.569   1.303   3.873
    1   AR   Ar  232   4.716   1.840   1.458
    1   AR   Ar  233   6.079   2.298   3.946
    1   AR   Ar  234   6.286   2.998   5.012
    1   AR   Ar  235   6.626   1.047   3.553
    1   AR   Ar  236   5.492   5.422   5.597
    1   AR   Ar  237   5.977   3.093   6.132
    1   AR   Ar  238   5.246   4.396   6.188
    1   AR   Ar  239   6.610   4.231   9.067
    1   AR   Ar  240   6.563   2.832   6.916
    1   AR   Ar  241   1.658   6.597  -0.215
    1   AR   Ar  242   5.498   5.046   0.643
    1   AR   Ar  243   4.837   4.530   2.632
    1   AR   Ar  244   0.378   5.439  -0.157
    1   AR   Ar  245   4.440   0.513   1.330
    1   AR   Ar  246   5.326   6.820  -0.049
    1   AR   Ar  247   5.964   4.125   1.056
    1   AR   Ar  248   5.982   5.878  -0.405
    1   AR   Ar  249   4.245   5.578   1.589
    1   AR   Ar  250   4.891   5.802   4.393
    1   AR   Ar  251   5.017   4.193   4.356
    1   AR   Ar  252   4.398   5.394   3.544
    1   AR   Ar  253   6.767   3.788   6.686
    1   AR   Ar  254   2.291   2.235   9.472
    1   AR   Ar  255   3.634   4.561   9.528
    1   AR   Ar  256   6.353   5.011   2.961
    7.12000  7.12000 12.00000
Argon-slab step 3520
  256
    1   AR   Ar    1   6.027   2.638  -2.006
    1   AR   Ar    2   6.039   0.759   0.496
    1   AR   Ar    3   3.258   1.204  -0.695
    1   AR   Ar    4   1.560   0.902  -0.534
    1   AR   Ar    5   6.822   6.714   0.924
    1   AR   Ar    6   7.026   1.110   2.440
    1   AR   Ar    7   5.796   4.043   2.676
    1   AR   Ar    8   5.375   0.680   1.330
    1   AR   Ar    9   1.286   6.786   3.099
    1   AR   Ar   10   0.418   0.769   4.023
    1   AR   Ar   11   1.993   6.481   4.279
    1   AR   Ar   12   0.797   1.537   3.206
    1   AR   Ar   13   0.191   0.645   5.478
    1   AR   Ar   14   6.222   1.917   7.405
    1   AR   Ar   15   5.246   6.726   7.988
    1   AR   Ar   16   0.874   6.660   5.151
    1   AR   Ar   17   6.700   2.061   0.788
    1   AR   Ar   18   6.130   4.823  -0.458
    1   AR   Ar   19   2.795   3.534   0.657
    1   AR   Ar   20   4.251   5.271  -2.076
    1   AR   Ar   21   3.539   1.754   1.428
    1   AR   Ar   22   6.387   1.995   2.866
    1   AR   Ar   23   0.571   0.782   0.412
    1   AR   Ar   24   6.581   2.290   1.891
    1   AR   Ar   25   0.728   1.721   4.410
    1   AR   Ar   26   6.418   0.168   3.975
    1   AR   Ar   27   1.494   0.883   2.835
    1   AR   Ar   28   0.248   2.605   5.087
    1   AR   Ar   29   5.353   2.928   7.049
    1   AR   Ar   30   1.653   1.317   4.115
    1   AR   Ar   31   3.186   0.862   6.933
    1   AR   Ar   32   1.203   2.675   6.659
    1   AR   Ar   33   0.808   4.438   0.495
    1   AR   Ar   34   0.305   5.255   2.372
    1   AR   Ar   35   6.113   5.765   1.327
    1   AR   Ar   36   5.911   0.989  -3.172
    1   AR   Ar   37   5.381   2.272   2.395
    1   AR   Ar   38   7.089   4.136   2.472
    1   AR   Ar   39   0.992   3.911   1.965
    1   AR   Ar   40   2.333   3.433   1.822
    1   AR   Ar   41   0.224   2.297   3.653
    1   AR   Ar   42   5.749   4.839   4.521
    1   AR   Ar   43   6.752   2.370   6.027
    1   AR   Ar   44   0.792   4.430   3.306
    1   AR   Ar   45   0.762   3.608   5.596
    1   AR   Ar   46   6.902   5.063   5.054
    1   AR   Ar   47   5.729   4.251   7.341
    1   AR   Ar   48   6.312   4.743   6.570
    1   AR   Ar   49   5.370   0.796  -1.226
    1   AR   Ar   50   4.218   4.515   0.696
    1   AR   Ar   51   6.545   4.904   1.664
    1   AR   Ar   52   6.366   3.227  -2.981
    1   AR   Ar   53   5.449   5.497   2.606
    1   AR   Ar   54   0.349   6.422   2.663
    1   AR   Ar   55   6.532   5.914   2.260
    1   AR   Ar   56   7.011   0.776   1.326
    1   AR   Ar   57   5.059   3.456   3.423
    1   AR   Ar   58   6.966   3.344   4.044
    1   AR   Ar   59   2.218   5.169   5.903
    1   AR   Ar   60   0.092   5.689   3.308
    1   AR   Ar   61   0.120   4.805   5.961
    1   AR   Ar   62   6.917   4.492   4.088
    1   AR   Ar   63   2.209   0.858   6.441
    1   AR   Ar   64   1.320   5.612   5.122
    1   AR   Ar   65   3.850   6.594   0.835
    1   AR   Ar   66   0.925   1.567   1.875
    1   AR   Ar   67   3.738   6.773  -0.416
    1   AR   Ar   68   1.902   1.893  -1.046
    1   AR   Ar   69   2.410   1.082   0.714
    1   AR   Ar   70   0.633   0.353   2.346
    1   AR   Ar   71   2.770   0.889   3.811
    1   AR   Ar   72   4.266   6.809   2.380
    1   AR   Ar   73   4.097   0.227   3.354
    1   AR   Ar   74   1.421   0.508   4.775
    1   AR   Ar   75   3.553   0.674   4.760
    1   AR   Ar   76   1.776   0.572   1.510
    1   AR   Ar   77   1.955   6.754   5.450
    1   AR   Ar   78   0.234   6.210   5.969
    1   AR   Ar   79   3.502   6.001   6.182
    1   AR   Ar   80   3.567   5.055   5.557
    1   AR   Ar   81   2.716   6.012   0.179
    1   AR   Ar   82   6.638   4.875   0.603
    1   AR   Ar   83   0.797   2.234   0.999
    1   AR   Ar   84   0.067   4.063   1.360
    1   AR   Ar   85   1.535   3.481   1.185
    1   AR   Ar   86   1.573   5.004   0.938
    1   AR   Ar   87   1.878   2.440   1.019
    1   AR   Ar   88   2.209   4.489   1.963
    1   AR   Ar   89   0.260   3.092   2.764
    1   AR   Ar   90   2.477   2.147   4.384
    1   AR   Ar   91   1.279   2.606   3.472
    1   AR   Ar   92   1.457   2.465   2.144
    1   AR   Ar   93   1.169   0.435   5.928
    1   AR   Ar   94   0.221   0.022  11.408
    1   AR   Ar   95   3.942   0.645   5.975
    1   AR   Ar   96   2.741   7.043   4.847
    1   AR   Ar   97   4.557   1.696  -0.318
    1   AR   Ar   98   1.604   4.699   2.806
    1   AR   Ar   99   6.646   1.487  -0.250
    1   AR   Ar  100   1.524   2.882  -0.641
    1   AR   Ar  101   3.507   4.767   1.442
    1   AR   Ar  102   3.648   2.201   3.004
    1   AR   Ar  103   0.834   4.807   1.544
    1   AR   Ar  104   2.935   3.636  -1.441
    1   AR   Ar  105   0.942   3.069   4.451
    1   AR   Ar  106   3.509   3.247   5.836
    1   AR   Ar  107   0.850   4.359   4.643
    1   AR   Ar  108   2.439   0.956   5.002
    1   AR   Ar  109   1.802   3.888   5.083
    1   AR   Ar  110   2.269   2.985   5.495
    1   AR   Ar  111   4.664   5.087   7.951
    1   AR   Ar  112   1.343   5.732   6.373
    1   AR   Ar  113   3.140   4.730   0.471
    1   AR   Ar  114   2.949   0.132  -0.786
    1   AR   Ar  115   2.438   4.567  -0.749
    1   AR   Ar  116   6.298   0.603  -0.713
    1   AR   Ar  117   0.554   5.291   4.178
    1   AR   Ar  118   1.274   5.570   3.394
    1   AR   Ar  119   1.891   3.225   2.893
    1   AR   Ar  120   1.827   6.657   1.793
    1   AR   Ar  121   5.579   3.922   5.135
    1   AR   Ar  122   2.730   6.072   5.091
    1   AR   Ar  123   3.446   3.943   4.968
    1   AR   Ar  124   1.562   5.618   2.035
    1   AR   Ar  125   6.714   3.910   5.127
    1   AR   Ar  126   0.038   6.890   4.683
    1   AR   Ar  127   4.478   3.583   6.108
    1   AR   Ar  128   3.465   4.904   6.529
    1   AR   Ar  129   2.235   5.896   3.442
    1   AR   Ar  130   4.294   2.408  -2.793
    1   AR   Ar  131   3.708   2.359  -0.483
    1   AR   Ar  132   0.014   2.588  -0.281
    1   AR   Ar  133   4.807   6.305   3.345
    1   AR   Ar  134   4.441   0.981   4.215
    1   AR   Ar  135   5.956   0.876   2.430
    1   AR   Ar  136   5.424   6.901   2.600
    1   AR   Ar  137   1.892   4.904   4.266
    1   AR   Ar  138   4.900   1.361   5.854
    1   AR   Ar  139   5.807   2.162   5.520
    1   AR   Ar  140   4.322   6.790   4.333
    1   AR   Ar  141   4.196   5.001   4.550
    1   AR   Ar  142   2.957   7.070   6.262
    1   AR   Ar  143   6.311   6.865   5.328
    1   AR   Ar  144   6.998   1.573   4.975
    1   AR   Ar  145   5.033   4.342  -0.564
    1   AR   Ar  146   2.705   2.597   2.483
    1   AR   Ar  147   4.472   2.085  -1.615
    1   AR   Ar  148   3.414   5.742  -1.079
    1   AR   Ar  149   2.762   2.221   0.121
    1   AR   Ar  150   2.269   1.421   2.287
    1   AR   Ar  151   2.394   1.896   3.219
    1   AR   Ar  152   2.803   2.578  -1.193
    1   AR   Ar  153   5.178   0.254   3.746
    1   AR   Ar  154   3.513   1.735   4.201
    1   AR   Ar  155   6.359   5.759   6.122
    1   AR   Ar  156   3.629   3.273   3.038
    1   AR   Ar  157   1.257   3.908   6.443
    1   AR   Ar  158   0.324   2.041   6.805
    1   AR   Ar  159   4.399   1.751   7.291
    1   AR   Ar  160   1.565   2.074   5.282
    1   AR   Ar  161   5.099   3.927   1.792
    1   AR   Ar  162   4.458   5.837  -0.804
    1   AR   Ar  163   5.979   3.774  -0.117
    1   AR   Ar  164   2.768   5.305   2.459
    1   AR   Ar  165   4.252   2.286   0.537
    1   AR   Ar  166   3.187   2.910   4.614
    1   AR   Ar  167   4.727   0.771   2.575
    1   AR   Ar  168   5.674   3.712  -1.443
    1   AR   Ar  169   3.007   4.194   2.558
    1   AR   Ar  170   2.707   3.916   5.942
    1   AR   Ar  171   5.922   4.047   3.864
    1   AR   Ar  172   4.511   4.507   5.440
    1   AR   Ar  173   3.036   3.458   6.852
    1   AR   Ar  174   2.396   6.144   6.649
    1   AR   Ar  175   3.154   2.046   6.771
    1   AR   Ar  176   3.944   2.256   5.312
    1   AR   Ar  177   7.046   5.405  -1.214
    1   AR   Ar  178   4.236   4.937  -0.303
    1   AR   Ar  179   3.862   5.797   0.182
    1   AR   Ar  180   2.077   1.785  -2.960
    1   AR   Ar  181   7.085   5.666   1.285
    1   AR   Ar  182   2.441   6.952   2.866
    1   AR   Ar  183   3.802   4.945   2.534
    1   AR   Ar  184   5.058   6.285   1.143
    1   AR   Ar  185   2.692   4.994   4.970
    1   AR   Ar  186   2.962   4.754   3.408
    1   AR   Ar  187   3.428   6.579   3.391
    1   AR   Ar  188   2.847   6.737   1.902
    1   AR   Ar  189   4.084   2.501   6.537
    1   AR   Ar  190   3.225   5.665   4.064
    1   AR   Ar  191   2.763   6.621   7.844
    1   AR   Ar  192   3.849   5.840   5.128
    1   AR   Ar  193   3.238   5.852   1.695
    1   AR   Ar  194   3.913   3.870  -0.896
    1   AR   Ar  195   5.483   1.748   0.179
    1   AR   Ar  196   4.646   0.388   0.266
    1   AR   Ar  197   3.570   1.534   0.294
    1   AR   Ar  198   5.876   1.570   1.265
    1   AR   Ar  199   3.215   1.147   2.783
    1   AR   Ar  200   5.846   2.748  -0.322
    1   AR   Ar  201   5.653   6.310   4.088
    1   AR   Ar  202   5.912   1.099   4.851
    1   AR   Ar  203   6.395   6.416   3.198
    1   AR   Ar  204   4.742   6.509   5.362
    1   AR   Ar  205   6.923   6.924   2.029
    1   AR   Ar  206   4.934   0.539   5.211
    1   AR   Ar  207   0.507   1.478   5.888
    1   AR   Ar  208   0.222   6.854   3.624
    1   AR   Ar  209   0.016   2.752  -1.928
    1   AR   Ar  210   2.626   0.235   0.215
    1   AR   Ar  211   6.624   3.373   0.780
    1   AR   Ar  212   6.497   3.043  -1.031
    1   AR   Ar  213   3.263   0.769   1.707
    1   AR   Ar  214   4.502   3.433   2.525
    1   AR   Ar  215   5.717   2.624   1.105
    1   AR   Ar  216   0.358   2.898   1.748
    1   AR   Ar  217   5.299   3.023   4.422
    1   AR   Ar  218   4.369   3.297   4.853
    1   AR   Ar  219   4.184   2.845   3.893
    1   AR   Ar  220   4.157   3.849   1.532
    1   AR   Ar  221   6.458   5.991   4.788
    1   AR   Ar  222   5.233   0.353   6.358
    1   AR   Ar  223   6.328   1.313   6.341
    1   AR   Ar  224   4.900   2.643   5.412
    1   AR   Ar  225   6.128   3.066   3.159
    1   AR   Ar  226   2.151   3.578   3.996
    1   AR   Ar  227   6.286   3.496   1.853
    1   AR   Ar  228   5.900   6.834   1.721
    1   AR   Ar  229   5.297   5.433  -1.276
    1   AR   Ar  230   4.104   3.879   3.821
    1   AR   Ar  231   5.556   1.268   3.901
    1   AR   Ar  232   4.735   1.820   1.433
    1   AR   Ar  233   6.099   2.279   3.973
    1   AR   Ar  234   6.290   2.979   5.044
    1   AR   Ar  235   6.608   1.029   3.561
    1   AR   Ar  236   5.478   5.429   5.600
    1   AR   Ar  237   5.980   3.088   6.138
    1   AR   Ar  238   5.294   4.378   6.173
    1   AR   Ar  239   6.588   4.259   9.079
    1   AR   Ar  240   6.547   2.814   6.897
    1   AR   Ar  241   1.689   6.607  -0.188
    1   AR   Ar  242   5.480   5.068   0.610
    1   AR   Ar  243   4.838   4.550   2.608
    1   AR   Ar  244   0.350   5.426  -0.150
    1   AR   Ar  245   4.390   0.528   1.382
    1   AR   Ar  246   5.363   6.832  -0.079
    1   AR   Ar  247   5.987   4.121   1.068
    1   AR   Ar  248   5.975   5.873  -0.379
    1   AR   Ar  249   4.235   5.547   1.607
    1   AR   Ar  250   4.878   5.812   4.400
    1   AR   Ar  251   5.016   4.174   4.373
    1   AR   Ar  252   4.378   5.394   3.558
    1   AR   Ar  253   6.755   3.755   6.672
    1   AR   Ar  254   2.301   2.235   9.477
    1   AR   Ar  255   3.651   4.551   9.565
    1   AR   Ar  256   6.341   4.994   2.937
    7.12000  7.12000 12.00000
Argon-slab step 3525
  256
    1   AR   Ar    1   6.017   2.641  -2.022
    1   AR   Ar    2   6.068   0.748   0.523
    1   AR   Ar    3   3.261   1.193  -0.724
    1   AR   Ar    4   1.553   0.877  -0.529
    1   AR   Ar    5   6.820   6.691   0.916
    1   AR   Ar    6   7.022   1.132   2.418
    1   AR   Ar    7   5.807   4.035   2.639
    1   AR   Ar    8   5.370   0.680   1.345
    1   AR   Ar    9   1.293   6.807   3.076
    1   AR   Ar   10   0.408   0.761   4.033
    1   AR   Ar   11   1.977   6.489   4.275
    1   AR   Ar   12   0.774   1.517   3.207
    1   AR   Ar   13   0.170   0.631   5.470
    1   AR   Ar   14   6.205   1.889   7.395
    1   AR   Ar   15   5.256   6.711   7.974
    1   AR   Ar   16   0.886   6.615   5.154
    1   AR   Ar   17   6.706   2.043   0.792
    1   AR   Ar   18   6.154   4.865  -0.454
    1   AR   Ar   19   2.820   3.526   0.655
    1   AR   Ar   20   4.273   5.256  -2.109
    1   AR   Ar   21   3.497   1.776   1.421
    1   AR   Ar   22   6.404   1.952   2.893
    1   AR   Ar   23   0.579   0.764   0.437
    1   AR   Ar   24   6.594   2.307   1.921
    1   AR   Ar   25   0.747   1.687   4.396
    1   AR   Ar   26   6.419   0.157   3.969
    1   AR   Ar   27   1.536   0.861   2.830
    1   AR   Ar   28   0.239   2.582   5.073
    1   AR   Ar   29   5.365   2.924   7.050
    1   AR   Ar   30   1.595   1.323   4.107
    1   AR   Ar   31   3.194   0.821   6.936
    1   AR   Ar   32   1.221   2.664   6.651
    1   AR   Ar   33   0.802   4.457   0.492
    1   AR   Ar   34   0.291   5.257   2.388
    1   AR   Ar   35   6.100   5.799   1.321
    1   AR   Ar   36   5.909   0.993  -3.130
    1   AR   Ar   37   5.380   2.274   2.399
    1   AR   Ar   38   7.099   4.164   2.472
    1   AR   Ar   39   1.019   3.924   1.941
    1   AR   Ar   40   2.335   3.420   1.819
    1   AR   Ar   41   0.212   2.315   3.668
    1   AR   Ar   42   5.756   4.844   4.504
    1   AR   Ar   43   6.728   2.362   6.011
    1   AR   Ar   44   0.779   4.438   3.319
    1   AR   Ar   45   0.744   3.608   5.578
    1   AR   Ar   46   6.911   5.056   5.044
    1   AR   Ar   47   5.706   4.246   7.337
    1   AR   Ar   48   6.302   4.716   6.567
    1   AR   Ar   49   5.350   0.795  -1.231
    1   AR   Ar   50   4.202   4.509   0.711
    1   AR   Ar   51   6.507   4.881   1.705
    1   AR   Ar   52   6.347   3.224  -3.001
    1   AR   Ar   53   5.449   5.520   2.582
    1   AR   Ar   54   0.352   6.396   2.681
    1   AR   Ar   55   6.529   5.931   2.254
    1   AR   Ar   56   7.005   0.756   1.315
    1   AR   Ar   57   5.057   3.458   3.410
    1   AR   Ar   58   6.968   3.343   4.050
    1   AR   Ar   59   2.222   5.174   5.883
    1   AR   Ar   60   0.108   5.680   3.287
    1   AR   Ar   61   0.107   4.807   5.963
    1   AR   Ar   62   6.901   4.516   4.059
    1   AR   Ar   63   2.195   0.876   6.403
    1   AR   Ar   64   1.319   5.630   5.145
    1   AR   Ar   65   3.855   6.563   0.834
    1   AR   Ar   66   0.946   1.554   1.851
    1   AR   Ar   67   3.764   6.783  -0.385
    1   AR   Ar   68   1.909   1.891  -1.046
    1   AR   Ar   69   2.408   1.095   0.738
    1   AR   Ar   70   0.644   0.333   2.316
    1   AR   Ar   71   2.777   0.918   3.816
    1   AR   Ar   72   4.305   6.809   2.374
    1   AR   Ar   73   4.098   0.196   3.326
    1   AR   Ar   74   1.369   0.482   4.761
    1   AR   Ar   75   3.547   0.689   4.739
    1   AR   Ar   76   1.787   0.585   1.473
    1   AR   Ar   77   1.950   6.782   5.456
    1   AR   Ar   78   0.246   6.197   5.985
    1   AR   Ar   79   3.515   6.004   6.184
    1   AR   Ar   80   3.583   5.038   5.562
    1   AR   Ar   81   2.756   6.033   0.160
    1   AR   Ar   82   6.627   4.851   0.599
    1   AR   Ar   83   0.801   2.252   1.019
    1   AR   Ar   84   0.066   4.077   1.390
    1   AR   Ar   85   1.510   3.508   1.150
    1   AR   Ar   86   1.588   5.021   0.930
    1   AR   Ar   87   1.884   2.436   1.035
    1   AR   Ar   88   2.196   4.504   1.981
    1   AR   Ar   89   0.282   3.066   2.764
    1   AR   Ar   90   2.473   2.142   4.377
    1   AR   Ar   91   1.265   2.603   3.478
    1   AR   Ar   92   1.486   2.445   2.158
    1   AR   Ar   93   1.150   0.449   5.954
    1   AR   Ar   94   0.226   0.003  11.387
    1   AR   Ar   95   3.949   0.638   5.978
    1   AR   Ar   96   2.760   7.023   4.844
    1   AR   Ar   97   4.541   1.679  -0.331
    1   AR   Ar   98   1.627   4.704   2.793
    1   AR   Ar   99   6.656   1.504  -0.227
    1   AR   Ar  100   1.499   2.906  -0.646
    1   AR   Ar  101   3.499   4.754   1.442
    1   AR   Ar  102   3.632   2.186   2.983
    1   AR   Ar  103   0.828   4.809   1.570
    1   AR   Ar  104   2.918   3.606  -1.411
    1   AR   Ar  105   0.920   3.056   4.483
    1   AR   Ar  106   3.475   3.214   5.837
    1   AR   Ar  107   0.859   4.311   4.641
    1   AR   Ar  108   2.426   0.961   4.990
    1   AR   Ar  109   1.799   3.894   5.057
    1   AR   Ar  110   2.279   3.008   5.503
    1   AR   Ar  111   4.674   5.103   7.967
    1   AR   Ar  112   1.341   5.696   6.384
    1   AR   Ar  113   3.126   4.714   0.486
    1   AR   Ar  114   2.946   0.158  -0.800
    1   AR   Ar  115   2.454   4.537  -0.730
    1   AR   Ar  116   6.323   0.595  -0.730
    1   AR   Ar  117   0.553   5.288   4.181
    1   AR   Ar  118   1.270   5.563   3.440
    1   AR   Ar  119   1.910   3.254   2.911
    1   AR   Ar  120   1.821   6.620   1.802
    1   AR   Ar  121   5.593   3.956   5.190
    1   AR   Ar  122   2.745   6.060   5.142
    1   AR   Ar  123   3.468   3.932   4.968
    1   AR   Ar  124   1.552   5.618   2.060
    1   AR   Ar  125   6.708   3.894   5.140
    1   AR   Ar  126   0.033   6.878   4.672
    1   AR   Ar  127   4.468   3.618   6.119
    1   AR   Ar  128   3.472   4.904   6.530
    1   AR   Ar  129   2.215   5.901   3.485
    1   AR   Ar  130   4.285   2.389  -2.813
    1   AR   Ar  131   3.719   2.379  -0.506
    1   AR   Ar  132   0.035   2.560  -0.260
    1   AR   Ar  133   4.802   6.314   3.385
    1   AR   Ar  134   4.452   1.002   4.244
    1   AR   Ar  135   5.967   0.876   2.443
    1   AR   Ar  136   5.400   6.896   2.603
    1   AR   Ar  137   1.858   4.888   4.299
    1   AR   Ar  138   4.911   1.348   5.860
    1   AR   Ar  139   5.801   2.149   5.523
    1   AR   Ar  140   4.325   6.773   4.336
    1   AR   Ar  141   4.184   5.005   4.522
    1   AR   Ar  142   2.984   7.065   6.266
    1   AR   Ar  143   6.282   6.882   5.351
    1   AR   Ar  144   7.006   1.567   4.984
    1   AR   Ar  145   5.069   4.330  -0.576
    1   AR   Ar  146   2.694   2.589   2.465
    1   AR   Ar  147   4.463   2.113  -1.605
    1   AR   Ar  148   3.426   5.766  -1.101
    1   AR   Ar  149   2.771   2.243   0.096
    1   AR   Ar  150   2.259   1.455   2.305
    1   AR   Ar  151   2.402   1.926   3.233
    1   AR   Ar  152   2.799   2.579  -1.209
    1   AR   Ar  153   5.211   0.251   3.764
    1   AR   Ar  154   3.488   1.726   4.174
    1   AR   Ar  155   6.326   5.690   6.070
    1   AR   Ar  156   3.640   3.266   3.082
    1   AR   Ar  157   1.244   3.915   6.439
    1   AR   Ar  158   0.333   2.022   6.811
    1   AR   Ar  159   4.353   1.733   7.268
    1   AR   Ar  160   1.531   2.076   5.277
    1   AR   Ar  161   5.122   3.949   1.794
    1   AR   Ar  162   4.403   5.851  -0.811
    1   AR   Ar  163   6.004   3.758  -0.129
    1   AR   Ar  164   2.773   5.290   2.438
    1   AR   Ar  165   4.232   2.247   0.542
    1   AR   Ar  166   3.187   2.942   4.620
    1   AR   Ar  167   4.720   0.715   2.531
    1   AR   Ar  168   5.639   3.717  -1.462
    1   AR   Ar  169   3.031   4.205   2.569
    1   AR   Ar  170   2.758   3.894   5.943
    1   AR   Ar  171   5.898   4.041   3.867
    1   AR   Ar  172   4.543   4.501   5.431
    1   AR   Ar  173   3.019   3.446   6.836
    1   AR   Ar  174   2.385   6.149   6.642
    1   AR   Ar  175   3.170   2.098   6.782
    1   AR   Ar  176   3.939   2.291   5.282
    1   AR   Ar  177   7.051   5.443  -1.225
    1   AR   Ar  178   4.227   4.948  -0.292
    1   AR   Ar  179   3.872   5.820   0.200
    1   AR   Ar  180   2.066   1.814  -2.999
    1   AR   Ar  181   7.098   5.652   1.255
    1   AR   Ar  182   2.423   6.959   2.831
    1   AR   Ar  183   3.786   4.981   2.531
    1   AR   Ar  184   5.062   6.243   1.103
    1   AR   Ar  185   2.714   5.013   4.945
    1   AR   Ar  186   2.969   4.786   3.391
    1   AR   Ar  187   3.443   6.596   3.381
    1   AR   Ar  188   2.838   6.746   1.926
    1   AR   Ar  189   4.097   2.504   6.517
    1   AR   Ar  190   3.220   5.667   4.062
    1   AR   Ar  191   2.765   6.596   7.843
    1   AR   Ar  192   3.834   5.849   5.148
    1   AR   Ar  193   3.272   5.847   1.707
    1   AR   Ar  194   3.945   3.904  -0.903
    1   AR   Ar  195   5.471   1.740   0.182
    1   AR   Ar  196   4.651   0.405   0.287
    1   AR   Ar  197   3.578   1.526   0.299
    1   AR   Ar  198   5.864   1.599   1.266
    1   AR   Ar  199   3.193   1.126   2.774
    1   AR   Ar  200   5.823   2.759  -0.327
    1   AR   Ar  201   5.637   6.312   4.095
    1   AR   Ar  202   5.947   1.100   4.847
    1   AR   Ar  203   6.400   6.422   3.202
    1   AR   Ar  204   4.732   6.533   5.352
    1   AR   Ar  205   6.900   6.900   2.010
    1   AR   Ar  206   4.939   0.525   5.246
    1   AR   Ar  207   0.508   1.519   5.872
    1   AR   Ar  208   0.245   6.823   3.664
    1   AR   Ar  209   0.035   2.757  -1.891
    1   AR   Ar  210   2.594   0.227   0.225
    1   AR   Ar  211   6.597   3.363   0.751
    1   AR   Ar  212   6.466   3.013  -1.070
    1   AR   Ar  213   3.264   0.770   1.685
    1   AR   Ar  214   4.507   3.434   2.531
    1   AR   Ar  215   5.755   2.594   1.091
    1   AR   Ar  216   0.355   2.881   1.735
    1   AR   Ar  217   5.297   3.037   4.433
    1   AR   Ar  218   4.368   3.295   4.851
    1   AR   Ar  219   4.183   2.858   3.905
    1   AR   Ar  220   4.148   3.839   1.526
    1   AR   Ar  221   6.439   5.987   4.753
    1   AR   Ar  222   5.256   0.352   6.365
    1   AR   Ar  223   6.322   1.307   6.349
    1   AR   Ar  224   4.919   2.624   5.370
    1   AR   Ar  225   6.160   3.080   3.165
    1   AR   Ar  226   2.151   3.560   3.962
    1   AR   Ar  227   6.262   3.476   1.835
    1   AR   Ar  228   5.902   6.855   1.713
    1   AR   Ar  229   5.290   5.464  -1.275
    1   AR   Ar  230   4.137   3.928   3.803
    1   AR   Ar  231   5.542   1.233   3.924
    1   AR   Ar  232   4.778   1.811   1.396
    1   AR   Ar  233   6.121   2.260   4.000
    1   AR   Ar  234   6.292   2.957   5.074
    1   AR   Ar  235   6.592   1.026   3.560
    1   AR   Ar  236   5.461   5.434   5.599
    1   AR   Ar  237   5.974   3.090   6.133
    1   AR   Ar  238   5.344   4.359   6.158
    1   AR   Ar  239   6.587   4.277   9.086
    1   AR   Ar  240   6.533   2.787   6.896
    1   AR   Ar  241   1.716   6.607  -0.171
    1   AR   Ar  242   5.492   5.085   0.572
    1   AR   Ar  243   4.837   4.572   2.587
    1   AR   Ar  244   0.321   5.412  -0.141
    1   AR   Ar  245   4.330   0.541   1.436
    1   AR   Ar  246   5.403   6.842  -0.109
    1   AR   Ar  247   6.004   4.123   1.079
    1   AR   Ar  248   5.968   5.870  -0.352
    1   AR   Ar  249   4.230   5.516   1.625
    1   AR   Ar  250   4.856   5.817   4.414
    1   AR   Ar  251   4.997   4.153   4.381
    1   AR   Ar  252   4.354   5.388   3.568
    1   AR   Ar  253   6.744   3.731   6.653
    1   AR   Ar  254   2.312   2.236   9.482
    1   AR   Ar  255   3.669   4.541   9.602
    1   AR   Ar  256   6.331   4.977   2.913
    7.12000  7.12000 12.00000
Argon-slab step 3530
  256
    1   AR   Ar    1   6.006   2.646  -2.038
    1   AR   Ar    2   6.098   0.738   0.549
    1   AR   Ar    3   3.265   1.184  -0.752
    1   AR   Ar    4   1.540   0.876  -0.527
    1   AR   Ar    5   6.817   6.670   0.909
    1   AR   Ar    6   7.020   1.155   2.396
    1   AR   Ar    7   5.818   4.027   2.605
    1   AR   Ar    8   5.371   0.683   1.368
    1   AR   Ar    9   1.302   6.828   3.053
    1   AR   Ar   10   0.397   0.750   4.044
    1   AR   Ar   11   1.958   6.501   4.278
    1   AR   Ar   12   0.751   1.498   3.208
    1   AR   Ar   13   0.146   0.611   5.457
    1   AR   Ar   14   6.189   1.860   7.384
    1   AR   Ar   15   5.266   6.697   7.960
    1   AR   Ar   16   0.903   6.571   5.160
    1   AR   Ar   17   6.714   2.026   0.794
    1   AR   Ar   18   6.177   4.901  -0.450
    1   AR   Ar   19   2.845   3.518   0.654
    1   AR   Ar   20   4.296   5.242  -2.140
    1   AR   Ar   21   3.456   1.800   1.413
    1   AR   Ar   22   6.421   1.908   2.924
    1   AR   Ar   23   0.575   0.739   0.439
    1   AR   Ar   24   6.606   2.325   1.947
    1   AR   Ar   25   0.754   1.664   4.388
    1   AR   Ar   26   6.414   0.134   3.969
    1   AR   Ar   27   1.578   0.837   2.825
    1   AR   Ar   28   0.226   2.558   5.063
    1   AR   Ar   29   5.378   2.921   7.051
    1   AR   Ar   30   1.555   1.324   4.092
    1   AR   Ar   31   3.202   0.780   6.937
    1   AR   Ar   32   1.240   2.654   6.641
    1   AR   Ar   33   0.792   4.475   0.490
    1   AR   Ar   34   0.277   5.256   2.397
    1   AR   Ar   35   6.077   5.836   1.311
    1   AR   Ar   36   5.906   0.997  -3.088
    1   AR   Ar   37   5.380   2.276   2.401
    1   AR   Ar   38   7.087   4.144   2.469
    1   AR   Ar   39   1.045   3.927   1.928
    1   AR   Ar   40   2.337   3.406   1.818
    1   AR   Ar   41   0.198   2.335   3.684
    1   AR   Ar   42   5.766   4.856   4.492
    1   AR   Ar   43   6.711   2.347   5.986
    1   AR   Ar   44   0.760   4.446   3.335
    1   AR   Ar   45   0.744   3.576   5.623
    1   AR   Ar   46   6.919   5.047   5.009
    1   AR   Ar   47   5.682   4.239   7.332
    1   AR   Ar   48   6.293   4.689   6.564
    1   AR   Ar   49   5.329   0.793  -1.234
    1   AR   Ar   50   4.190   4.505   0.722
    1   AR   Ar   51   6.475   4.861   1.745
    1   AR   Ar   52   6.328   3.221  -3.019
    1   AR   Ar   53   5.450   5.546   2.558
    1   AR   Ar   54   0.363   6.376   2.691
    1   AR   Ar   55   6.528   5.945   2.251
    1   AR   Ar   56   6.998   0.735   1.305
    1   AR   Ar   57   5.027   3.489   3.397
    1   AR   Ar   58   6.977   3.302   4.040
    1   AR   Ar   59   2.227   5.181   5.865
    1   AR   Ar   60   0.117   5.662   3.281
    1   AR   Ar   61   0.096   4.807   5.972
    1   AR   Ar   62   6.893   4.534   4.047
    1   AR   Ar   63   2.182   0.892   6.364
    1   AR   Ar   64   1.320   5.646   5.168
    1   AR   Ar   65   3.854   6.553   0.835
    1   AR   Ar   66   0.984   1.521   1.823
    1   AR   Ar   67   3.794   6.789  -0.351
    1   AR   Ar   68   1.916   1.889  -1.046
    1   AR   Ar   69   2.407   1.115   0.764
    1   AR   Ar   70   0.658   0.314   2.287
    1   AR   Ar   71   2.784   0.947   3.821
    1   AR   Ar   72   4.342   6.809   2.375
    1   AR   Ar   73   4.109   0.175   3.299
    1   AR   Ar   74   1.317   0.455   4.749
    1   AR   Ar   75   3.539   0.704   4.718
    1   AR   Ar   76   1.778   0.578   1.487
    1   AR   Ar   77   1.942   6.817   5.464
    1   AR   Ar   78   0.258   6.184   6.000
    1   AR   Ar   79   3.527   6.006   6.187
    1   AR   Ar   80   3.595   5.000   5.566
    1   AR   Ar   81   2.797   6.056   0.141
    1   AR   Ar   82   6.618   4.828   0.595
    1   AR   Ar   83   0.805   2.269   1.037
    1   AR   Ar   84   0.063   4.090   1.419
    1   AR   Ar   85   1.486   3.533   1.110
    1   AR   Ar   86   1.617   5.065   0.913
    1   AR   Ar   87   1.892   2.431   1.053
    1   AR   Ar   88   2.190   4.522   1.978
    1   AR   Ar   89   0.304   3.041   2.768
    1   AR   Ar   90   2.466   2.136   4.369
    1   AR   Ar   91   1.251   2.597   3.485
    1   AR   Ar   92   1.516   2.427   2.173
    1   AR   Ar   93   1.127   0.454   5.955
    1   AR   Ar   94   0.231   7.104  11.366
    1   AR   Ar   95   3.957   0.631   5.980
    1   AR   Ar   96   2.751   7.020   4.830
    1   AR   Ar   97   4.524   1.660  -0.347
    1   AR   Ar   98   1.650   4.713   2.784
    1   AR   Ar   99   6.664   1.523  -0.201
    1   AR   Ar  100   1.465   2.927  -0.655
    1   AR   Ar  101   3.480   4.748   1.445
    1   AR   Ar  102   3.615   2.170   2.963
    1   AR   Ar  103   0.816   4.823   1.596
    1   AR   Ar  104   2.902   3.579  -1.379
    1   AR   Ar  105   0.903   3.046   4.511
    1   AR   Ar  106   3.449   3.171   5.834
    1   AR   Ar  107   0.867   4.263   4.638
    1   AR   Ar  108   2.412   0.967   4.977
    1   AR   Ar  109   1.785   3.889   5.047
    1   AR   Ar  110   2.290   3.030   5.510
    1   AR   Ar  111   4.685   5.118   7.984
    1   AR   Ar  112   1.339   5.660   6.394
    1   AR   Ar  113   3.110   4.698   0.495
    1   AR   Ar  114   2.940   0.185  -0.816
    1   AR   Ar  115   2.471   4.506  -0.711
    1   AR   Ar  116   6.348   0.586  -0.745
    1   AR   Ar  117   0.564   5.261   4.154
    1   AR   Ar  118   1.259   5.554   3.482
    1   AR   Ar  119   1.929   3.285   2.927
    1   AR   Ar  120   1.810   6.584   1.811
    1   AR   Ar  121   5.611   3.986   5.248
    1   AR   Ar  122   2.758   6.042   5.197
    1   AR   Ar  123   3.490   3.926   4.969
    1   AR   Ar  124   1.541   5.615   2.087
    1   AR   Ar  125   6.705   3.884   5.154
    1   AR   Ar  126   0.023   6.869   4.663
    1   AR   Ar  127   4.459   3.651   6.129
    1   AR   Ar  128   3.477   4.902   6.542
    1   AR   Ar  129   2.206   5.903   3.521
    1   AR   Ar  130   4.277   2.370  -2.832
    1   AR   Ar  131   3.729   2.399  -0.529
    1   AR   Ar  132   0.054   2.532  -0.239
    1   AR   Ar  133   4.797   6.328   3.422
    1   AR   Ar  134   4.464   1.022   4.273
    1   AR   Ar  135   5.976   0.874   2.456
    1   AR   Ar  136   5.374   6.890   2.612
    1   AR   Ar  137   1.822   4.873   4.331
    1   AR   Ar  138   4.924   1.341   5.862
    1   AR   Ar  139   5.802   2.124   5.526
    1   AR   Ar  140   4.323   6.757   4.330
    1   AR   Ar  141   4.169   5.003   4.497
    1   AR   Ar  142   3.004   7.033   6.268
    1   AR   Ar  143   6.270   6.914   5.395
    1   AR   Ar  144   7.008   1.560   4.992
    1   AR   Ar  145   5.107   4.318  -0.589
    1   AR   Ar  146   2.684   2.582   2.446
    1   AR   Ar  147   4.454   2.141  -1.593
    1   AR   Ar  148   3.435   5.800  -1.129
    1   AR   Ar  149   2.780   2.265   0.071
    1   AR   Ar  150   2.249   1.489   2.318
    1   AR   Ar  151   2.409   1.955   3.254
    1   AR   Ar  152   2.794   2.577  -1.222
    1   AR   Ar  153   5.243   0.242   3.781
    1   AR   Ar  154   3.464   1.718   4.147
    1   AR   Ar  155   6.300   5.624   6.018
    1   AR   Ar  156   3.645   3.260   3.125
    1   AR   Ar  157   1.233   3.922   6.437
    1   AR   Ar  158   0.340   2.003   6.818
    1   AR   Ar  159   4.351   1.743   7.256
    1   AR   Ar  160   1.496   2.077   5.271
    1   AR   Ar  161   5.154   3.970   1.793
    1   AR   Ar  162   4.353   5.869  -0.815
    1   AR   Ar  163   6.030   3.747  -0.140
    1   AR   Ar  164   2.774   5.277   2.420
    1   AR   Ar  165   4.217   2.214   0.549
    1   AR   Ar  166   3.189   2.973   4.626
    1   AR   Ar  167   4.715   0.669   2.500
    1   AR   Ar  168   5.604   3.720  -1.479
    1   AR   Ar  169   3.057   4.209   2.575
    1   AR   Ar  170   2.801   3.884   5.940
    1   AR   Ar  171   5.879   4.029   3.865
    1   AR   Ar  172   4.576   4.494   5.421
    1   AR   Ar  173   3.004   3.432   6.823
    1   AR   Ar  174   2.376   6.154   6.634
    1   AR   Ar  175   3.186   2.131   6.776
    1   AR   Ar  176   3.930   2.326   5.251
    1   AR   Ar  177   7.055   5.480  -1.234
    1   AR   Ar  178   4.216   4.956  -0.283
    1   AR   Ar  179   3.882   5.833   0.210
    1   AR   Ar  180   2.054   1.843  -3.038
    1   AR   Ar  181   0.002   5.637   1.226
    1   AR   Ar  182   2.401   6.968   2.803
    1   AR   Ar  183   3.760   4.992   2.523
    1   AR   Ar  184   5.066   6.201   1.062
    1   AR   Ar  185   2.738   5.029   4.917
    1   AR   Ar  186   2.974   4.824   3.381
    1   AR   Ar  187   3.443   6.600   3.375
    1   AR   Ar  188   2.850   6.756   1.946
    1   AR   Ar  189   4.113   2.510   6.493
    1   AR   Ar  190   3.215   5.668   4.062
    1   AR   Ar  191   2.766   6.571   7.840
    1   AR   Ar  192   3.827   5.879   5.154
    1   AR   Ar  193   3.305   5.840   1.716
    1   AR   Ar  194   3.977   3.938  -0.910
    1   AR   Ar  195   5.463   1.733   0.188
    1   AR   Ar  196   4.654   0.423   0.309
    1   AR   Ar  197   3.580   1.511   0.303
    1   AR   Ar  198   5.855   1.622   1.270
    1   AR   Ar  199   3.172   1.105   2.765
    1   AR   Ar  200   5.795   2.763  -0.326
    1   AR   Ar  201   5.632   6.322   4.097
    1   AR   Ar  202   5.985   1.099   4.849
    1   AR   Ar  203   6.411   6.449   3.195
    1   AR   Ar  204   4.722   6.557   5.341
    1   AR   Ar  205   6.876   6.882   1.986
    1   AR   Ar  206   4.944   0.506   5.276
    1   AR   Ar  207   0.500   1.510   5.865
    1   AR   Ar  208   0.270   6.792   3.699
    1   AR   Ar  209   0.054   2.762  -1.856
    1   AR   Ar  210   2.563   0.212   0.233
    1   AR   Ar  211   6.573   3.346   0.719
    1   AR   Ar  212   6.440   2.986  -1.112
    1   AR   Ar  213   3.262   0.768   1.664
    1   AR   Ar  214   4.491   3.430   2.539
    1   AR   Ar  215   5.794   2.572   1.076
    1   AR   Ar  216   0.364   2.877   1.728
    1   AR   Ar  217   5.294   3.048   4.456
    1   AR   Ar  218   4.361   3.301   4.850
    1   AR   Ar  219   4.182   2.868   3.917
    1   AR   Ar  220   4.131   3.828   1.520
    1   AR   Ar  221   6.420   5.982   4.717
    1   AR   Ar  222   5.279   0.351   6.369
    1   AR   Ar  223   6.316   1.303   6.355
    1   AR   Ar  224   4.940   2.606   5.333
    1   AR   Ar  225   6.186   3.065   3.166
    1   AR   Ar  226   2.150   3.543   3.930
    1   AR   Ar  227   6.241   3.452   1.820
    1   AR   Ar  228   5.904   6.875   1.698
    1   AR   Ar  229   5.283   5.493  -1.272
    1   AR   Ar  230   4.167   3.980   3.784
    1   AR   Ar  231   5.527   1.204   3.942
    1   AR   Ar  232   4.821   1.801   1.358
    1   AR   Ar  233   6.144   2.242   4.027
    1   AR   Ar  234   6.293   2.932   5.101
    1   AR   Ar  235   6.578   1.037   3.552
    1   AR   Ar  236   5.438   5.436   5.594
    1   AR   Ar  237   5.960   3.098   6.119
    1   AR   Ar  238   5.394   4.341   6.146
    1   AR   Ar  239   6.601   4.288   9.088
    1   AR   Ar  240   6.522   2.752   6.913
    1   AR   Ar  241   1.737   6.593  -0.169
    1   AR   Ar  242   5.525   5.100   0.531
    1   AR   Ar  243   4.834   4.596   2.569
    1   AR   Ar  244   0.291   5.397  -0.131
    1   AR   Ar  245   4.266   0.553   1.490
    1   AR   Ar  246   5.444   6.850  -0.139
    1   AR   Ar  247   6.016   4.132   1.088
    1   AR   Ar  248   5.958   5.872  -0.324
    1   AR   Ar  249   4.233   5.484   1.642
    1   AR   Ar  250   4.825   5.816   4.436
    1   AR   Ar  251   4.968   4.129   4.387
    1   AR   Ar  252   4.327   5.380   3.573
    1   AR   Ar  253   6.736   3.716   6.631
    1   AR   Ar  254   2.295   2.250   9.460
    1   AR   Ar  255   3.686   4.530   9.638
    1   AR   Ar  256   6.325   4.960   2.888
    7.12000  7.12000 12.00000
Argon-slab step 3535
  256
    1   AR   Ar    1   5.995   2.651  -2.055
    1   AR   Ar    2   6.129   0.729   0.573
    1   AR   Ar    3   3.271   1.181  -0.778
    1   AR   Ar    4   1.521   0.891  -0.526
    1   AR   Ar    5   6.812   6.649   0.902
    1   AR   Ar    6   7.020   1.178   2.374
    1   AR   Ar    7   5.830   4.019   2.576
    1   AR   Ar    8   5.370   0.683   1.393
    1   AR   Ar    9   1.311   6.849   3.031
    1   AR   Ar   10   0.386   0.734   4.055
    1   AR   Ar   11   1.935   6.519   4.290
    1   AR   Ar   12   0.727   1.478   3.210
    1   AR   Ar   13   0.121   0.585   5.442
    1   AR   Ar   14   6.172   1.830   7.372
    1   AR   Ar   15   5.276   6.682   7.946
    1   AR   Ar   16   0.920   6.534   5.167
    1   AR   Ar   17   6.725   2.011   0.796
    1   AR   Ar   18   6.202   4.928  -0.446
    1   AR   Ar   19   2.869   3.510   0.654
    1   AR   Ar   20   4.319   5.228  -2.168
    1   AR   Ar   21   3.416   1.826   1.404
    1   AR   Ar   22   6.436   1.867   2.957
    1   AR   Ar   23   0.570   0.716   0.441
    1   AR   Ar   24   6.614   2.341   1.972
    1   AR   Ar   25   0.733   1.659   4.392
    1   AR   Ar   26   6.405   0.104   3.972
    1   AR   Ar   27   1.619   0.810   2.821
    1   AR   Ar   28   0.208   2.531   5.057
    1   AR   Ar   29   5.392   2.917   7.051
    1   AR   Ar   30   1.548   1.313   4.064
    1   AR   Ar   31   3.211   0.740   6.938
    1   AR   Ar   32   1.258   2.645   6.629
    1   AR   Ar   33   0.780   4.492   0.490
    1   AR   Ar   34   0.263   5.250   2.398
    1   AR   Ar   35   6.051   5.872   1.297
    1   AR   Ar   36   5.904   1.001  -3.046
    1   AR   Ar   37   5.383   2.278   2.402
    1   AR   Ar   38   7.075   4.125   2.468
    1   AR   Ar   39   1.072   3.921   1.929
    1   AR   Ar   40   2.339   3.393   1.816
    1   AR   Ar   41   0.181   2.353   3.700
    1   AR   Ar   42   5.779   4.874   4.483
    1   AR   Ar   43   6.749   2.346   5.984
    1   AR   Ar   44   0.738   4.456   3.352
    1   AR   Ar   45   0.739   3.541   5.659
    1   AR   Ar   46   6.926   5.038   4.972
    1   AR   Ar   47   5.657   4.230   7.327
    1   AR   Ar   48   6.285   4.665   6.560
    1   AR   Ar   49   5.308   0.792  -1.237
    1   AR   Ar   50   4.181   4.503   0.728
    1   AR   Ar   51   6.475   4.863   1.762
    1   AR   Ar   52   6.309   3.218  -3.037
    1   AR   Ar   53   5.450   5.573   2.533
    1   AR   Ar   54   0.380   6.368   2.690
    1   AR   Ar   55   6.525   5.953   2.251
    1   AR   Ar   56   6.989   0.714   1.297
    1   AR   Ar   57   5.004   3.518   3.389
    1   AR   Ar   58   6.984   3.263   4.031
    1   AR   Ar   59   2.231   5.189   5.846
    1   AR   Ar   60   0.118   5.635   3.296
    1   AR   Ar   61   0.087   4.805   5.984
    1   AR   Ar   62   6.897   4.542   4.058
    1   AR   Ar   63   2.168   0.907   6.323
    1   AR   Ar   64   1.325   5.654   5.191
    1   AR   Ar   65   3.848   6.566   0.846
    1   AR   Ar   66   1.016   1.493   1.798
    1   AR   Ar   67   3.824   6.794  -0.315
    1   AR   Ar   68   1.924   1.887  -1.044
    1   AR   Ar   69   2.407   1.138   0.791
    1   AR   Ar   70   0.674   0.296   2.259
    1   AR   Ar   71   2.788   0.976   3.828
    1   AR   Ar   72   4.367   6.810   2.399
    1   AR   Ar   73   4.133   0.168   3.274
    1   AR   Ar   74   1.264   0.426   4.737
    1   AR   Ar   75   3.545   0.729   4.729
    1   AR   Ar   76   1.769   0.573   1.474
    1   AR   Ar   77   1.932   6.851   5.474
    1   AR   Ar   78   0.271   6.170   6.013
    1   AR   Ar   79   3.536   6.009   6.189
    1   AR   Ar   80   3.605   4.955   5.563
    1   AR   Ar   81   2.838   6.079   0.122
    1   AR   Ar   82   6.612   4.808   0.589
    1   AR   Ar   83   0.811   2.283   1.050
    1   AR   Ar   84   0.058   4.100   1.442
    1   AR   Ar   85   1.464   3.555   1.063
    1   AR   Ar   86   1.649   5.110   0.897
    1   AR   Ar   87   1.902   2.427   1.072
    1   AR   Ar   88   2.192   4.538   1.958
    1   AR   Ar   89   0.324   3.017   2.776
    1   AR   Ar   90   2.458   2.130   4.361
    1   AR   Ar   91   1.237   2.591   3.492
    1   AR   Ar   92   1.547   2.410   2.188
    1   AR   Ar   93   1.105   0.460   5.954
    1   AR   Ar   94   0.236   7.085  11.345
    1   AR   Ar   95   3.965   0.624   5.982
    1   AR   Ar   96   2.747   7.022   4.812
    1   AR   Ar   97   4.505   1.639  -0.364
    1   AR   Ar   98   1.669   4.724   2.782
    1   AR   Ar   99   6.672   1.541  -0.174
    1   AR   Ar  100   1.431   2.947  -0.665
    1   AR   Ar  101   3.459   4.743   1.457
    1   AR   Ar  102   3.597   2.152   2.944
    1   AR   Ar  103   0.821   4.820   1.581
    1   AR   Ar  104   2.887   3.560  -1.348
    1   AR   Ar  105   0.892   3.041   4.534
    1   AR   Ar  106   3.435   3.125   5.822
    1   AR   Ar  107   0.871   4.215   4.634
    1   AR   Ar  108   2.397   0.973   4.962
    1   AR   Ar  109   1.754   3.866   5.061
    1   AR   Ar  110   2.301   3.050   5.516
    1   AR   Ar  111   4.699   5.130   7.983
    1   AR   Ar  112   1.337   5.626   6.401
    1   AR   Ar  113   3.092   4.682   0.498
    1   AR   Ar  114   2.931   0.208  -0.833
    1   AR   Ar  115   2.478   4.491  -0.697
    1   AR   Ar  116   6.371   0.578  -0.760
    1   AR   Ar  117   0.574   5.230   4.134
    1   AR   Ar  118   1.245   5.579   3.483
    1   AR   Ar  119   1.947   3.315   2.937
    1   AR   Ar  120   1.798   6.553   1.820
    1   AR   Ar  121   5.631   4.009   5.294
    1   AR   Ar  122   2.770   6.023   5.254
    1   AR   Ar  123   3.512   3.924   4.972
    1   AR   Ar  124   1.529   5.606   2.116
    1   AR   Ar  125   6.706   3.879   5.167
    1   AR   Ar  126   0.008   6.862   4.663
    1   AR   Ar  127   4.450   3.682   6.137
    1   AR   Ar  128   3.479   4.899   6.563
    1   AR   Ar  129   2.208   5.901   3.550
    1   AR   Ar  130   4.269   2.350  -2.849
    1   AR   Ar  131   3.738   2.418  -0.552
    1   AR   Ar  132   0.072   2.504  -0.216
    1   AR   Ar  133   4.791   6.345   3.457
    1   AR   Ar  134   4.477   1.042   4.301
    1   AR   Ar  135   5.983   0.872   2.468
    1   AR   Ar  136   5.350   6.886   2.626
    1   AR   Ar  137   1.784   4.858   4.362
    1   AR   Ar  138   4.937   1.339   5.867
    1   AR   Ar  139   5.806   2.090   5.530
    1   AR   Ar  140   4.320   6.745   4.323
    1   AR   Ar  141   4.148   4.995   4.481
    1   AR   Ar  142   3.030   6.999   6.285
    1   AR   Ar  143   6.259   6.945   5.438
    1   AR   Ar  144   7.005   1.552   5.000
    1   AR   Ar  145   5.088   4.326  -0.579
    1   AR   Ar  146   2.675   2.575   2.425
    1   AR   Ar  147   4.444   2.169  -1.580
    1   AR   Ar  148   3.430   5.832  -1.160
    1   AR   Ar  149   2.784   2.282   0.043
    1   AR   Ar  150   2.246   1.506   2.333
    1   AR   Ar  151   2.416   1.982   3.280
    1   AR   Ar  152   2.789   2.568  -1.233
    1   AR   Ar  153   5.271   0.226   3.797
    1   AR   Ar  154   3.443   1.711   4.121
    1   AR   Ar  155   6.287   5.561   5.970
    1   AR   Ar  156   3.643   3.257   3.166
    1   AR   Ar  157   1.226   3.931   6.440
    1   AR   Ar  158   0.324   1.992   6.798
    1   AR   Ar  159   4.363   1.748   7.252
    1   AR   Ar  160   1.460   2.079   5.264
    1   AR   Ar  161   5.188   3.989   1.787
    1   AR   Ar  162   4.358   5.869  -0.817
    1   AR   Ar  163   6.056   3.744  -0.151
    1   AR   Ar  164   2.768   5.267   2.405
    1   AR   Ar  165   4.210   2.192   0.559
    1   AR   Ar  166   3.191   3.002   4.631
    1   AR   Ar  167   4.709   0.665   2.524
    1   AR   Ar  168   5.569   3.723  -1.494
    1   AR   Ar  169   3.081   4.205   2.576
    1   AR   Ar  170   2.833   3.891   5.931
    1   AR   Ar  171   5.863   4.012   3.859
    1   AR   Ar  172   4.609   4.486   5.408
    1   AR   Ar  173   2.991   3.413   6.816
    1   AR   Ar  174   2.367   6.158   6.624
    1   AR   Ar  175   3.202   2.134   6.747
    1   AR   Ar  176   3.918   2.360   5.219
    1   AR   Ar  177   7.057   5.517  -1.242
    1   AR   Ar  178   4.205   4.960  -0.274
    1   AR   Ar  179   3.873   5.834   0.225
    1   AR   Ar  180   2.043   1.871  -3.076
    1   AR   Ar  181   0.028   5.621   1.198
    1   AR   Ar  182   2.373   6.980   2.785
    1   AR   Ar  183   3.736   4.997   2.514
    1   AR   Ar  184   5.069   6.160   1.022
    1   AR   Ar  185   2.762   5.041   4.886
    1   AR   Ar  186   2.980   4.865   3.378
    1   AR   Ar  187   3.431   6.592   3.371
    1   AR   Ar  188   2.861   6.778   1.974
    1   AR   Ar  189   4.133   2.519   6.466
    1   AR   Ar  190   3.211   5.670   4.063
    1   AR   Ar  191   2.767   6.546   7.836
    1   AR   Ar  192   3.825   5.918   5.153
    1   AR   Ar  193   3.332   5.835   1.722
    1   AR   Ar  194   4.009   3.973  -0.916
    1   AR   Ar  195   5.457   1.726   0.197
    1   AR   Ar  196   4.658   0.442   0.333
    1   AR   Ar  197   3.574   1.486   0.303
    1   AR   Ar  198   5.851   1.631   1.279
    1   AR   Ar  199   3.151   1.085   2.758
    1   AR   Ar  200   5.764   2.760  -0.322
    1   AR   Ar  201   5.634   6.338   4.095
    1   AR   Ar  202   6.025   1.098   4.857
    1   AR   Ar  203   6.423   6.477   3.188
    1   AR   Ar  204   4.712   6.579   5.331
    1   AR   Ar  205   6.858   6.870   1.962
    1   AR   Ar  206   4.948   0.483   5.302
    1   AR   Ar  207   0.491   1.491   5.860
    1   AR   Ar  208   0.298   6.759   3.724
    1   AR   Ar  209   0.073   2.766  -1.821
    1   AR   Ar  210   2.532   0.194   0.240
    1   AR   Ar  211   6.553   3.323   0.688
    1   AR   Ar  212   6.414   2.961  -1.154
    1   AR   Ar  213   3.254   0.765   1.644
    1   AR   Ar  214   4.471   3.424   2.534
    1   AR   Ar  215   5.831   2.565   1.059
    1   AR   Ar  216   0.372   2.879   1.721
    1   AR   Ar  217   5.298   3.060   4.474
    1   AR   Ar  218   4.348   3.313   4.851
    1   AR   Ar  219   4.184   2.874   3.929
    1   AR   Ar  220   4.112   3.814   1.518
    1   AR   Ar  221   6.429   5.975   4.707
    1   AR   Ar  222   5.301   0.351   6.372
    1   AR   Ar  223   6.269   1.300   6.340
    1   AR   Ar  224   4.959   2.587   5.303
    1   AR   Ar  225   6.213   3.049   3.166
    1   AR   Ar  226   2.150   3.525   3.901
    1   AR   Ar  227   6.223   3.422   1.808
    1   AR   Ar  228   5.901   6.894   1.679
    1   AR   Ar  229   5.278   5.521  -1.268
    1   AR   Ar  230   4.190   4.034   3.763
    1   AR   Ar  231   5.513   1.181   3.955
    1   AR   Ar  232   4.863   1.790   1.322
    1   AR   Ar  233   6.168   2.224   4.055
    1   AR   Ar  234   6.294   2.908   5.122
    1   AR   Ar  235   6.564   1.056   3.540
    1   AR   Ar  236   5.402   5.434   5.580
    1   AR   Ar  237   5.939   3.110   6.100
    1   AR   Ar  238   5.439   4.325   6.144
    1   AR   Ar  239   6.614   4.299   9.090
    1   AR   Ar  240   6.520   2.744   6.927
    1   AR   Ar  241   1.760   6.579  -0.167
    1   AR   Ar  242   5.557   5.116   0.489
    1   AR   Ar  243   4.828   4.621   2.555
    1   AR   Ar  244   0.259   5.380  -0.120
    1   AR   Ar  245   4.207   0.563   1.543
    1   AR   Ar  246   5.485   6.860  -0.169
    1   AR   Ar  247   6.021   4.145   1.095
    1   AR   Ar  248   5.945   5.860  -0.307
    1   AR   Ar  249   4.248   5.450   1.657
    1   AR   Ar  250   4.792   5.813   4.462
    1   AR   Ar  251   4.939   4.107   4.398
    1   AR   Ar  252   4.298   5.371   3.570
    1   AR   Ar  253   6.730   3.709   6.609
    1   AR   Ar  254   2.278   2.264   9.437
    1   AR   Ar  255   3.704   4.520   9.675
    1   AR   Ar  256   6.323   4.943   2.864
    7.12000  7.12000 12.00000
Argon-slab step 3540
  256
    1   AR   Ar    1   5.983   2.655  -2.076
    1   AR   Ar    2   6.129   0.721   0.596
    1   AR   Ar    3   3.278   1.184  -0.802
    1   AR   Ar    4   1.503   0.906  -0.524
    1   AR   Ar    5   6.805   6.628   0.895
    1   AR   Ar    6   7.021   1.183   2.370
    1   AR   Ar    7   5.846   4.013   2.555
    1   AR   Ar    8   5.379   0.672   1.397
    1   AR   Ar    9   1.319   6.869   3.009
    1   AR   Ar   10   0.373   0.715   4.066
    1   AR   Ar   11   1.907   6.541   4.309
    1   AR   Ar   12   0.703   1.458   3.213
    1   AR   Ar   13   0.095   0.556   5.425
    1   AR   Ar   14   6.154   1.799   7.359
    1   AR   Ar   15   5.286   6.667   7.932
    1   AR   Ar   16   0.931   6.513   5.174
    1   AR   Ar   17   6.750   2.034   0.783
    1   AR   Ar   18   6.230   4.941  -0.444
    1   AR   Ar   19   2.893   3.503   0.655
    1   AR   Ar   20   4.342   5.214  -2.196
    1   AR   Ar   21   3.375   1.851   1.394
    1   AR   Ar   22   6.449   1.835   2.987
    1   AR   Ar   23   0.565   0.692   0.442
    1   AR   Ar   24   6.619   2.356   1.995
    1   AR   Ar   25   0.693   1.669   4.405
    1   AR   Ar   26   6.394   0.074   3.978
    1   AR   Ar   27   1.657   0.782   2.817
    1   AR   Ar   28   0.187   2.504   5.055
    1   AR   Ar   29   5.405   2.914   7.050
    1   AR   Ar   30   1.564   1.292   4.027
    1   AR   Ar   31   3.220   0.701   6.937
    1   AR   Ar   32   1.275   2.636   6.616
    1   AR   Ar   33   0.767   4.509   0.491
    1   AR   Ar   34   0.250   5.239   2.389
    1   AR   Ar   35   6.027   5.905   1.282
    1   AR   Ar   36   5.901   1.006  -3.004
    1   AR   Ar   37   5.388   2.280   2.402
    1   AR   Ar   38   7.062   4.106   2.472
    1   AR   Ar   39   1.099   3.907   1.939
    1   AR   Ar   40   2.339   3.382   1.814
    1   AR   Ar   41   0.165   2.365   3.714
    1   AR   Ar   42   5.791   4.894   4.478
    1   AR   Ar   43   6.789   2.343   5.980
    1   AR   Ar   44   0.715   4.466   3.369
    1   AR   Ar   45   0.725   3.511   5.653
    1   AR   Ar   46   6.933   5.030   4.937
    1   AR   Ar   47   5.631   4.220   7.321
    1   AR   Ar   48   6.284   4.645   6.560
    1   AR   Ar   49   5.288   0.792  -1.238
    1   AR   Ar   50   4.174   4.503   0.731
    1   AR   Ar   51   6.476   4.868   1.780
    1   AR   Ar   52   6.290   3.214  -3.053
    1   AR   Ar   53   5.451   5.602   2.508
    1   AR   Ar   54   0.400   6.368   2.682
    1   AR   Ar   55   6.522   5.954   2.254
    1   AR   Ar   56   6.980   0.693   1.290
    1   AR   Ar   57   4.988   3.546   3.387
    1   AR   Ar   58   6.988   3.231   4.026
    1   AR   Ar   59   2.236   5.198   5.828
    1   AR   Ar   60   0.110   5.605   3.325
    1   AR   Ar   61   0.068   4.800   6.003
    1   AR   Ar   62   6.897   4.546   4.064
    1   AR   Ar   63   2.156   0.921   6.281
    1   AR   Ar   64   1.339   5.647   5.214
    1   AR   Ar   65   3.842   6.593   0.869
    1   AR   Ar   66   1.022   1.488   1.780
    1   AR   Ar   67   3.845   6.847  -0.316
    1   AR   Ar   68   1.932   1.885  -1.041
    1   AR   Ar   69   2.410   1.164   0.819
    1   AR   Ar   70   0.691   0.279   2.230
    1   AR   Ar   71   2.788   1.001   3.833
    1   AR   Ar   72   4.384   6.802   2.415
    1   AR   Ar   73   4.164   0.170   3.257
    1   AR   Ar   74   1.211   0.398   4.727
    1   AR   Ar   75   3.550   0.753   4.741
    1   AR   Ar   76   1.760   0.568   1.445
    1   AR   Ar   77   1.920   6.885   5.485
    1   AR   Ar   78   0.283   6.155   6.025
    1   AR   Ar   79   3.543   6.010   6.191
    1   AR   Ar   80   3.617   4.907   5.552
    1   AR   Ar   81   2.878   6.105   0.103
    1   AR   Ar   82   6.611   4.791   0.582
    1   AR   Ar   83   0.818   2.292   1.056
    1   AR   Ar   84   0.050   4.106   1.459
    1   AR   Ar   85   1.445   3.544   1.042
    1   AR   Ar   86   1.681   5.154   0.883
    1   AR   Ar   87   1.912   2.424   1.092
    1   AR   Ar   88   2.190   4.538   1.947
    1   AR   Ar   89   0.344   2.993   2.786
    1   AR   Ar   90   2.448   2.123   4.355
    1   AR   Ar   91   1.224   2.583   3.499
    1   AR   Ar   92   1.578   2.395   2.203
    1   AR   Ar   93   1.084   0.465   5.951
    1   AR   Ar   94   0.240   7.065  11.324
    1   AR   Ar   95   3.973   0.616   5.983
    1   AR   Ar   96   2.745   7.026   4.792
    1   AR   Ar   97   4.487   1.617  -0.382
    1   AR   Ar   98   1.683   4.738   2.790
    1   AR   Ar   99   6.677   1.557  -0.147
    1   AR   Ar  100   1.398   2.966  -0.674
    1   AR   Ar  101   3.435   4.738   1.478
    1   AR   Ar  102   3.577   2.134   2.926
    1   AR   Ar  103   0.825   4.827   1.562
    1   AR   Ar  104   2.874   3.550  -1.316
    1   AR   Ar  105   0.887   3.041   4.552
    1   AR   Ar  106   3.430   3.100   5.784
    1   AR   Ar  107   0.870   4.169   4.628
    1   AR   Ar  108   2.378   0.968   4.966
    1   AR   Ar  109   1.726   3.843   5.077
    1   AR   Ar  110   2.313   3.067   5.522
    1   AR   Ar  111   4.719   5.137   7.957
    1   AR   Ar  112   1.335   5.591   6.407
    1   AR   Ar  113   3.072   4.667   0.496
    1   AR   Ar  114   2.918   0.225  -0.850
    1   AR   Ar  115   2.467   4.498  -0.690
    1   AR   Ar  116   6.393   0.569  -0.772
    1   AR   Ar  117   0.583   5.197   4.127
    1   AR   Ar  118   1.231   5.604   3.476
    1   AR   Ar  119   1.962   3.351   2.930
    1   AR   Ar  120   1.786   6.528   1.829
    1   AR   Ar  121   5.657   4.021   5.310
    1   AR   Ar  122   2.779   6.007   5.314
    1   AR   Ar  123   3.524   3.927   4.984
    1   AR   Ar  124   1.516   5.590   2.147
    1   AR   Ar  125   6.706   3.873   5.178
    1   AR   Ar  126   7.111   6.857   4.676
    1   AR   Ar  127   4.441   3.712   6.145
    1   AR   Ar  128   3.480   4.895   6.592
    1   AR   Ar  129   2.220   5.896   3.571
    1   AR   Ar  130   4.261   2.331  -2.866
    1   AR   Ar  131   3.719   2.454  -0.570
    1   AR   Ar  132   0.089   2.478  -0.193
    1   AR   Ar  133   4.784   6.363   3.487
    1   AR   Ar  134   4.492   1.060   4.328
    1   AR   Ar  135   5.989   0.869   2.480
    1   AR   Ar  136   5.335   6.881   2.644
    1   AR   Ar  137   1.744   4.844   4.393
    1   AR   Ar  138   4.951   1.343   5.875
    1   AR   Ar  139   5.813   2.047   5.538
    1   AR   Ar  140   4.313   6.737   4.316
    1   AR   Ar  141   4.123   4.979   4.474
    1   AR   Ar  142   3.056   6.965   6.299
    1   AR   Ar  143   6.248   6.977   5.480
    1   AR   Ar  144   6.996   1.541   5.006
    1   AR   Ar  145   5.071   4.335  -0.569
    1   AR   Ar  146   2.666   2.567   2.404
    1   AR   Ar  147   4.434   2.197  -1.567
    1   AR   Ar  148   3.415   5.865  -1.194
    1   AR   Ar  149   2.776   2.284   0.006
    1   AR   Ar  150   2.245   1.520   2.345
    1   AR   Ar  151   2.423   2.009   3.308
    1   AR   Ar  152   2.772   2.574  -1.222
    1   AR   Ar  153   5.296   0.200   3.810
    1   AR   Ar  154   3.439   1.708   4.100
    1   AR   Ar  155   6.290   5.501   5.924
    1   AR   Ar  156   3.634   3.256   3.203
    1   AR   Ar  157   1.224   3.943   6.450
    1   AR   Ar  158   0.301   1.984   6.771
    1   AR   Ar  159   4.387   1.709   7.264
    1   AR   Ar  160   1.423   2.080   5.255
    1   AR   Ar  161   5.219   4.006   1.775
    1   AR   Ar  162   4.401   5.858  -0.817
    1   AR   Ar  163   6.083   3.743  -0.161
    1   AR   Ar  164   2.755   5.261   2.390
    1   AR   Ar  165   4.209   2.179   0.572
    1   AR   Ar  166   3.192   3.026   4.636
    1   AR   Ar  167   4.707   0.666   2.547
    1   AR   Ar  168   5.536   3.725  -1.508
    1   AR   Ar  169   3.103   4.193   2.573
    1   AR   Ar  170   2.857   3.916   5.917
    1   AR   Ar  171   5.852   3.993   3.851
    1   AR   Ar  172   4.642   4.479   5.393
    1   AR   Ar  173   2.979   3.391   6.813
    1   AR   Ar  174   2.359   6.162   6.612
    1   AR   Ar  175   3.216   2.137   6.718
    1   AR   Ar  176   3.904   2.392   5.186
    1   AR   Ar  177   7.059   5.554  -1.248
    1   AR   Ar  178   4.194   4.960  -0.266
    1   AR   Ar  179   3.871   5.828   0.211
    1   AR   Ar  180   2.032   1.900  -3.114
    1   AR   Ar  181   0.054   5.603   1.171
    1   AR   Ar  182   2.338   6.995   2.781
    1   AR   Ar  183   3.724   5.004   2.507
    1   AR   Ar  184   5.068   6.120   0.981
    1   AR   Ar  185   2.787   5.050   4.852
    1   AR   Ar  186   2.985   4.907   3.378
    1   AR   Ar  187   3.412   6.574   3.368
    1   AR   Ar  188   2.880   6.799   1.988
    1   AR   Ar  189   4.158   2.531   6.436
    1   AR   Ar  190   3.209   5.674   4.067
    1   AR   Ar  191   2.767   6.521   7.831
    1   AR   Ar  192   3.826   5.959   5.146
    1   AR   Ar  193   3.354   5.834   1.726
    1   AR   Ar  194   4.042   4.009  -0.922
    1   AR   Ar  195   5.453   1.719   0.208
    1   AR   Ar  196   4.661   0.460   0.358
    1   AR   Ar  197   3.559   1.452   0.300
    1   AR   Ar  198   5.856   1.620   1.292
    1   AR   Ar  199   3.132   1.064   2.751
    1   AR   Ar  200   5.731   2.752  -0.315
    1   AR   Ar  201   5.639   6.356   4.093
    1   AR   Ar  202   6.067   1.096   4.869
    1   AR   Ar  203   6.434   6.504   3.181
    1   AR   Ar  204   4.703   6.597   5.321
    1   AR   Ar  205   6.845   6.860   1.937
    1   AR   Ar  206   4.954   0.459   5.323
    1   AR   Ar  207   0.485   1.474   5.857
    1   AR   Ar  208   0.329   6.725   3.739
    1   AR   Ar  209   0.094   2.770  -1.790
    1   AR   Ar  210   2.502   0.176   0.246
    1   AR   Ar  211   6.537   3.298   0.659
    1   AR   Ar  212   6.389   2.939  -1.190
    1   AR   Ar  213   3.231   0.764   1.627
    1   AR   Ar  214   4.460   3.410   2.527
    1   AR   Ar  215   5.867   2.576   1.038
    1   AR   Ar  216   0.379   2.889   1.717
    1   AR   Ar  217   5.308   3.076   4.484
    1   AR   Ar  218   4.333   3.330   4.857
    1   AR   Ar  219   4.188   2.875   3.944
    1   AR   Ar  220   4.092   3.800   1.519
    1   AR   Ar  221   6.449   5.957   4.691
    1   AR   Ar  222   5.323   0.352   6.373
    1   AR   Ar  223   6.223   1.299   6.323
    1   AR   Ar  224   4.974   2.568   5.279
    1   AR   Ar  225   6.225   3.032   3.159
    1   AR   Ar  226   2.151   3.510   3.882
    1   AR   Ar  227   6.209   3.386   1.796
    1   AR   Ar  228   5.890   6.913   1.656
    1   AR   Ar  229   5.274   5.547  -1.264
    1   AR   Ar  230   4.199   4.089   3.737
    1   AR   Ar  231   5.500   1.169   3.965
    1   AR   Ar  232   4.897   1.779   1.287
    1   AR   Ar  233   6.193   2.205   4.083
    1   AR   Ar  234   6.295   2.884   5.138
    1   AR   Ar  235   6.553   1.070   3.532
    1   AR   Ar  236   5.353   5.428   5.559
    1   AR   Ar  237   5.916   3.125   6.080
    1   AR   Ar  238   5.471   4.317   6.168
    1   AR   Ar  239   6.628   4.310   9.092
    1   AR   Ar  240   6.535   2.732   6.933
    1   AR   Ar  241   1.784   6.565  -0.164
    1   AR   Ar  242   5.590   5.131   0.448
    1   AR   Ar  243   4.822   4.646   2.543
    1   AR   Ar  244   0.225   5.363  -0.107
    1   AR   Ar  245   4.163   0.571   1.593
    1   AR   Ar  246   5.526   6.871  -0.198
    1   AR   Ar  247   6.021   4.160   1.101
    1   AR   Ar  248   5.929   5.860  -0.288
    1   AR   Ar  249   4.275   5.414   1.671
    1   AR   Ar  250   4.761   5.809   4.492
    1   AR   Ar  251   4.918   4.087   4.417
    1   AR   Ar  252   4.270   5.364   3.556
    1   AR   Ar  253   6.727   3.722   6.595
    1   AR   Ar  254   2.262   2.278   9.414
    1   AR   Ar  255   3.722   4.510   9.712
    1   AR   Ar  256   6.322   4.928   2.840
    7.12000  7.12000 12.00000
Argon-slab step 3545
  256
    1   AR   Ar    1   5.967   2.653  -2.091
    1   AR   Ar    2   6.128   0.714   0.618
    1   AR   Ar    3   3.288   1.194  -0.824
    1   AR   Ar    4   1.485   0.922  -0.521
    1   AR   Ar    5   6.798   6.609   0.887
    1   AR   Ar    6   7.021   1.159   2.393
    1   AR   Ar    7   5.865   4.007   2.545
    1   AR   Ar    8   5.390   0.654   1.388
    1   AR   Ar    9   1.324   6.887   2.989
    1   AR   Ar   10   0.359   0.693   4.076
    1   AR   Ar   11   1.876   6.566   4.333
    1   AR   Ar   12   0.679   1.438   3.216
    1   AR   Ar   13   0.068   0.525   5.406
    1   AR   Ar   14   6.147   1.792   7.363
    1   AR   Ar   15   5.295   6.652   7.918
    1   AR   Ar   16   0.934   6.510   5.179
    1   AR   Ar   17   6.776   2.058   0.773
    1   AR   Ar   18   6.262   4.940  -0.446
    1   AR   Ar   19   2.916   3.496   0.657
    1   AR   Ar   20   4.365   5.200  -2.221
    1   AR   Ar   21   3.335   1.876   1.383
    1   AR   Ar   22   6.458   1.826   3.004
    1   AR   Ar   23   0.561   0.670   0.443
    1   AR   Ar   24   6.622   2.370   2.019
    1   AR   Ar   25   0.653   1.685   4.419
    1   AR   Ar   26   6.381   0.047   3.984
    1   AR   Ar   27   1.691   0.758   2.812
    1   AR   Ar   28   0.167   2.481   5.055
    1   AR   Ar   29   5.419   2.910   7.048
    1   AR   Ar   30   1.564   1.274   4.018
    1   AR   Ar   31   3.229   0.664   6.937
    1   AR   Ar   32   1.292   2.628   6.601
    1   AR   Ar   33   0.753   4.527   0.494
    1   AR   Ar   34   0.239   5.225   2.374
    1   AR   Ar   35   6.009   5.934   1.268
    1   AR   Ar   36   5.899   1.010  -2.961
    1   AR   Ar   37   5.395   2.282   2.401
    1   AR   Ar   38   7.048   4.087   2.482
    1   AR   Ar   39   1.118   3.909   1.961
    1   AR   Ar   40   2.336   3.374   1.810
    1   AR   Ar   41   0.152   2.361   3.723
    1   AR   Ar   42   5.804   4.915   4.474
    1   AR   Ar   43   6.829   2.338   5.974
    1   AR   Ar   44   0.705   4.472   3.369
    1   AR   Ar   45   0.706   3.486   5.619
    1   AR   Ar   46   6.940   5.024   4.911
    1   AR   Ar   47   5.604   4.209   7.315
    1   AR   Ar   48   6.296   4.635   6.567
    1   AR   Ar   49   5.268   0.791  -1.238
    1   AR   Ar   50   4.170   4.505   0.732
    1   AR   Ar   51   6.476   4.875   1.797
    1   AR   Ar   52   6.270   3.209  -3.068
    1   AR   Ar   53   5.452   5.631   2.483
    1   AR   Ar   54   0.420   6.369   2.670
    1   AR   Ar   55   6.517   5.947   2.258
    1   AR   Ar   56   6.969   0.672   1.287
    1   AR   Ar   57   4.979   3.571   3.388
    1   AR   Ar   58   6.986   3.214   4.027
    1   AR   Ar   59   2.230   5.210   5.817
    1   AR   Ar   60   0.096   5.577   3.358
    1   AR   Ar   61   0.045   4.794   6.025
    1   AR   Ar   62   6.893   4.541   4.062
    1   AR   Ar   63   2.143   0.933   6.238
    1   AR   Ar   64   1.361   5.622   5.238
    1   AR   Ar   65   3.836   6.626   0.899
    1   AR   Ar   66   1.022   1.483   1.761
    1   AR   Ar   67   3.865   6.898  -0.317
    1   AR   Ar   68   1.939   1.883  -1.036
    1   AR   Ar   69   2.415   1.192   0.846
    1   AR   Ar   70   0.707   0.264   2.202
    1   AR   Ar   71   2.780   1.021   3.837
    1   AR   Ar   72   4.353   6.805   2.429
    1   AR   Ar   73   4.193   0.177   3.253
    1   AR   Ar   74   1.158   0.369   4.717
    1   AR   Ar   75   3.552   0.776   4.753
    1   AR   Ar   76   1.749   0.563   1.417
    1   AR   Ar   77   1.909   6.919   5.497
    1   AR   Ar   78   0.295   6.139   6.036
    1   AR   Ar   79   3.550   6.008   6.194
    1   AR   Ar   80   3.628   4.860   5.538
    1   AR   Ar   81   2.879   6.117   0.108
    1   AR   Ar   82   6.618   4.779   0.572
    1   AR   Ar   83   0.831   2.267   1.031
    1   AR   Ar   84   0.041   4.107   1.471
    1   AR   Ar   85   1.430   3.510   1.037
    1   AR   Ar   86   1.713   5.197   0.870
    1   AR   Ar   87   1.924   2.422   1.113
    1   AR   Ar   88   2.188   4.531   1.925
    1   AR   Ar   89   0.362   2.969   2.799
    1   AR   Ar   90   2.437   2.115   4.353
    1   AR   Ar   91   1.212   2.575   3.506
    1   AR   Ar   92   1.608   2.381   2.218
    1   AR   Ar   93   1.064   0.469   5.946
    1   AR   Ar   94   0.290   7.071  11.343
    1   AR   Ar   95   3.982   0.608   5.983
    1   AR   Ar   96   2.746   7.031   4.773
    1   AR   Ar   97   4.467   1.595  -0.400
    1   AR   Ar   98   1.692   4.752   2.806
    1   AR   Ar   99   6.679   1.569  -0.122
    1   AR   Ar  100   1.365   2.983  -0.683
    1   AR   Ar  101   3.418   4.736   1.500
    1   AR   Ar  102   3.556   2.115   2.909
    1   AR   Ar  103   0.831   4.840   1.542
    1   AR   Ar  104   2.863   3.552  -1.284
    1   AR   Ar  105   0.887   3.044   4.566
    1   AR   Ar  106   3.429   3.073   5.746
    1   AR   Ar  107   0.861   4.126   4.618
    1   AR   Ar  108   2.356   0.961   4.975
    1   AR   Ar  109   1.702   3.820   5.094
    1   AR   Ar  110   2.331   3.070   5.524
    1   AR   Ar  111   4.739   5.144   7.931
    1   AR   Ar  112   1.332   5.558   6.410
    1   AR   Ar  113   3.051   4.651   0.489
    1   AR   Ar  114   2.896   0.225  -0.863
    1   AR   Ar  115   2.458   4.504  -0.683
    1   AR   Ar  116   6.414   0.561  -0.783
    1   AR   Ar  117   0.593   5.162   4.134
    1   AR   Ar  118   1.240   5.601   3.440
    1   AR   Ar  119   1.963   3.411   2.879
    1   AR   Ar  120   1.775   6.509   1.839
    1   AR   Ar  121   5.688   4.021   5.294
    1   AR   Ar  122   2.786   5.994   5.375
    1   AR   Ar  123   3.494   3.923   5.024
    1   AR   Ar  124   1.500   5.570   2.179
    1   AR   Ar  125   6.703   3.863   5.189
    1   AR   Ar  126   7.094   6.853   4.698
    1   AR   Ar  127   4.431   3.739   6.151
    1   AR   Ar  128   3.480   4.891   6.622
    1   AR   Ar  129   2.239   5.887   3.588
    1   AR   Ar  130   4.261   2.349  -2.885
    1   AR   Ar  131   3.701   2.488  -0.589
    1   AR   Ar  132   0.106   2.455  -0.169
    1   AR   Ar  133   4.776   6.380   3.509
    1   AR   Ar  134   4.506   1.078   4.355
    1   AR   Ar  135   5.992   0.865   2.492
    1   AR   Ar  136   5.333   6.876   2.666
    1   AR   Ar  137   1.703   4.830   4.423
    1   AR   Ar  138   4.965   1.351   5.885
    1   AR   Ar  139   5.825   1.997   5.548
    1   AR   Ar  140   4.302   6.735   4.311
    1   AR   Ar  141   4.093   4.956   4.477
    1   AR   Ar  142   3.080   6.932   6.311
    1   AR   Ar  143   6.238   7.009   5.520
    1   AR   Ar  144   6.980   1.527   5.012
    1   AR   Ar  145   5.056   4.344  -0.559
    1   AR   Ar  146   2.658   2.558   2.383
    1   AR   Ar  147   4.423   2.225  -1.553
    1   AR   Ar  148   3.397   5.876  -1.181
    1   AR   Ar  149   2.767   2.285  -0.030
    1   AR   Ar  150   2.244   1.535   2.353
    1   AR   Ar  151   2.431   2.034   3.335
    1   AR   Ar  152   2.746   2.583  -1.197
    1   AR   Ar  153   5.309   0.191   3.838
    1   AR   Ar  154   3.464   1.710   4.086
    1   AR   Ar  155   6.301   5.444   5.879
    1   AR   Ar  156   3.618   3.260   3.234
    1   AR   Ar  157   1.224   3.957   6.462
    1   AR   Ar  158   0.302   1.980   6.759
    1   AR   Ar  159   4.391   1.687   7.264
    1   AR   Ar  160   1.385   2.082   5.244
    1   AR   Ar  161   5.242   4.022   1.757
    1   AR   Ar  162   4.442   5.850  -0.812
    1   AR   Ar  163   6.111   3.737  -0.166
    1   AR   Ar  164   2.735   5.262   2.378
    1   AR   Ar  165   4.212   2.171   0.584
    1   AR   Ar  166   3.191   3.045   4.637
    1   AR   Ar  167   4.712   0.674   2.566
    1   AR   Ar  168   5.503   3.726  -1.520
    1   AR   Ar  169   3.122   4.175   2.568
    1   AR   Ar  170   2.877   3.951   5.900
    1   AR   Ar  171   5.843   3.972   3.843
    1   AR   Ar  172   4.674   4.473   5.377
    1   AR   Ar  173   2.969   3.365   6.812
    1   AR   Ar  174   2.350   6.164   6.598
    1   AR   Ar  175   3.228   2.140   6.689
    1   AR   Ar  176   3.891   2.420   5.151
    1   AR   Ar  177   7.060   5.590  -1.252
    1   AR   Ar  178   4.165   4.946  -0.265
    1   AR   Ar  179   3.885   5.821   0.171
    1   AR   Ar  180   2.021   1.929  -3.153
    1   AR   Ar  181   0.079   5.583   1.146
    1   AR   Ar  182   2.299   7.013   2.787
    1   AR   Ar  183   3.742   5.016   2.521
    1   AR   Ar  184   5.062   6.080   0.937
    1   AR   Ar  185   2.811   5.056   4.818
    1   AR   Ar  186   3.001   4.932   3.370
    1   AR   Ar  187   3.390   6.554   3.365
    1   AR   Ar  188   2.908   6.818   1.992
    1   AR   Ar  189   4.177   2.543   6.405
    1   AR   Ar  190   3.210   5.681   4.073
    1   AR   Ar  191   2.768   6.496   7.824
    1   AR   Ar  192   3.829   5.997   5.135
    1   AR   Ar  193   3.370   5.837   1.728
    1   AR   Ar  194   4.073   4.045  -0.927
    1   AR   Ar  195   5.451   1.712   0.221
    1   AR   Ar  196   4.665   0.479   0.384
    1   AR   Ar  197   3.539   1.412   0.294
    1   AR   Ar  198   5.879   1.597   1.310
    1   AR   Ar  199   3.113   1.043   2.744
    1   AR   Ar  200   5.698   2.741  -0.308
    1   AR   Ar  201   5.647   6.373   4.092
    1   AR   Ar  202   6.105   1.091   4.882
    1   AR   Ar  203   6.446   6.529   3.172
    1   AR   Ar  204   4.693   6.607   5.312
    1   AR   Ar  205   6.828   6.840   1.908
    1   AR   Ar  206   4.961   0.439   5.340
    1   AR   Ar  207   0.482   1.457   5.853
    1   AR   Ar  208   0.364   6.689   3.745
    1   AR   Ar  209   0.118   2.773  -1.760
    1   AR   Ar  210   2.473   0.157   0.252
    1   AR   Ar  211   6.525   3.271   0.632
    1   AR   Ar  212   6.362   2.921  -1.215
    1   AR   Ar  213   3.186   0.767   1.610
    1   AR   Ar  214   4.448   3.396   2.513
    1   AR   Ar  215   5.899   2.598   1.017
    1   AR   Ar  216   0.383   2.908   1.718
    1   AR   Ar  217   5.324   3.096   4.486
    1   AR   Ar  218   4.320   3.346   4.868
    1   AR   Ar  219   4.198   2.872   3.963
    1   AR   Ar  220   4.071   3.784   1.523
    1   AR   Ar  221   6.483   5.924   4.666
    1   AR   Ar  222   5.346   0.355   6.374
    1   AR   Ar  223   6.177   1.299   6.305
    1   AR   Ar  224   4.983   2.547   5.262
    1   AR   Ar  225   6.229   3.014   3.146
    1   AR   Ar  226   2.153   3.496   3.876
    1   AR   Ar  227   6.199   3.347   1.784
    1   AR   Ar  228   5.872   6.931   1.632
    1   AR   Ar  229   5.275   5.571  -1.260
    1   AR   Ar  230   4.195   4.148   3.706
    1   AR   Ar  231   5.492   1.165   3.974
    1   AR   Ar  232   4.919   1.769   1.252
    1   AR   Ar  233   6.220   2.187   4.112
    1   AR   Ar  234   6.296   2.861   5.147
    1   AR   Ar  235   6.545   1.066   3.538
    1   AR   Ar  236   5.296   5.420   5.533
    1   AR   Ar  237   5.890   3.141   6.062
    1   AR   Ar  238   5.479   4.312   6.215
    1   AR   Ar  239   6.641   4.321   9.095
    1   AR   Ar  240   6.550   2.719   6.941
    1   AR   Ar  241   1.809   6.551  -0.162
    1   AR   Ar  242   5.585   5.119   0.434
    1   AR   Ar  243   4.814   4.672   2.532
    1   AR   Ar  244   0.204   5.348  -0.100
    1   AR   Ar  245   4.140   0.573   1.642
    1   AR   Ar  246   5.494   6.909  -0.222
    1   AR   Ar  247   6.018   4.172   1.107
    1   AR   Ar  248   5.908   5.872  -0.267
    1   AR   Ar  249   4.311   5.375   1.683
    1   AR   Ar  250   4.733   5.803   4.523
    1   AR   Ar  251   4.906   4.071   4.442
    1   AR   Ar  252   4.241   5.360   3.535
    1   AR   Ar  253   6.726   3.733   6.578
    1   AR   Ar  254   2.245   2.292   9.391
    1   AR   Ar  255   3.739   4.500   9.748
    1   AR   Ar  256   6.316   4.917   2.841
    7.12000  7.12000 12.00000
Argon-slab step 3550
  256
    1   AR   Ar    1   5.944   2.624  -2.075
    1   AR   Ar    2   6.128   0.708   0.637
    1   AR   Ar    3   3.300   1.209  -0.845
    1   AR   Ar    4   1.481   0.914  -0.484
    1   AR   Ar    5   6.789   6.590   0.876
    1   AR   Ar    6   7.026   1.134   2.415
    1   AR   Ar    7   5.887   4.000   2.542
    1   AR   Ar    8   5.394   0.643   1.379
    1   AR   Ar    9   1.321   6.902   2.972
    1   AR   Ar   10   0.342   0.670   4.086
    1   AR   Ar   11   1.841   6.592   4.360
    1   AR   Ar   12   0.654   1.419   3.220
    1   AR   Ar   13   0.041   0.494   5.387
    1   AR   Ar   14   6.148   1.802   7.378
    1   AR   Ar   15   5.305   6.637   7.903
    1   AR   Ar   16   0.930   6.518   5.184
    1   AR   Ar   17   6.799   2.078   0.768
    1   AR   Ar   18   6.289   4.954  -0.478
    1   AR   Ar   19   2.939   3.489   0.660
    1   AR   Ar   20   4.389   5.187  -2.246
    1   AR   Ar   21   3.294   1.901   1.372
    1   AR   Ar   22   6.463   1.843   3.007
    1   AR   Ar   23   0.556   0.648   0.444
    1   AR   Ar   24   6.622   2.380   2.043
    1   AR   Ar   25   0.620   1.705   4.428
    1   AR   Ar   26   6.369   0.024   3.993
    1   AR   Ar   27   1.710   0.760   2.797
    1   AR   Ar   28   0.150   2.463   5.052
    1   AR   Ar   29   5.434   2.910   7.047
    1   AR   Ar   30   1.561   1.276   3.995
    1   AR   Ar   31   3.238   0.630   6.936
    1   AR   Ar   32   1.307   2.621   6.585
    1   AR   Ar   33   0.737   4.545   0.498
    1   AR   Ar   34   0.228   5.210   2.357
    1   AR   Ar   35   5.999   5.958   1.255
    1   AR   Ar   36   5.896   1.020  -2.927
    1   AR   Ar   37   5.404   2.285   2.399
    1   AR   Ar   38   7.032   4.069   2.498
    1   AR   Ar   39   1.127   3.936   1.993
    1   AR   Ar   40   2.331   3.368   1.803
    1   AR   Ar   41   0.144   2.336   3.725
    1   AR   Ar   42   5.818   4.936   4.472
    1   AR   Ar   43   6.864   2.333   5.967
    1   AR   Ar   44   0.721   4.475   3.364
    1   AR   Ar   45   0.684   3.459   5.583
    1   AR   Ar   46   6.948   5.020   4.900
    1   AR   Ar   47   5.577   4.197   7.308
    1   AR   Ar   48   6.320   4.639   6.587
    1   AR   Ar   49   5.248   0.791  -1.236
    1   AR   Ar   50   4.169   4.514   0.731
    1   AR   Ar   51   6.476   4.884   1.812
    1   AR   Ar   52   6.251   3.204  -3.082
    1   AR   Ar   53   5.454   5.661   2.457
    1   AR   Ar   54   0.439   6.370   2.656
    1   AR   Ar   55   6.510   5.931   2.264
    1   AR   Ar   56   6.959   0.650   1.287
    1   AR   Ar   57   4.975   3.591   3.390
    1   AR   Ar   58   6.977   3.218   4.037
    1   AR   Ar   59   2.220   5.219   5.809
    1   AR   Ar   60   0.077   5.552   3.388
    1   AR   Ar   61   0.026   4.787   6.044
    1   AR   Ar   62   6.884   4.525   4.046
    1   AR   Ar   63   2.131   0.945   6.194
    1   AR   Ar   64   1.389   5.586   5.262
    1   AR   Ar   65   3.816   6.651   0.879
    1   AR   Ar   66   0.996   1.482   1.734
    1   AR   Ar   67   3.884   6.948  -0.316
    1   AR   Ar   68   1.928   1.882  -1.023
    1   AR   Ar   69   2.422   1.222   0.873
    1   AR   Ar   70   0.724   0.249   2.173
    1   AR   Ar   71   2.765   1.034   3.839
    1   AR   Ar   72   4.305   6.801   2.431
    1   AR   Ar   73   4.216   0.187   3.270
    1   AR   Ar   74   1.107   0.340   4.710
    1   AR   Ar   75   3.551   0.798   4.766
    1   AR   Ar   76   1.738   0.557   1.393
    1   AR   Ar   77   1.898   6.954   5.508
    1   AR   Ar   78   0.307   6.121   6.045
    1   AR   Ar   79   3.557   6.001   6.196
    1   AR   Ar   80   3.640   4.816   5.524
    1   AR   Ar   81   2.867   6.127   0.118
    1   AR   Ar   82   6.617   4.767   0.567
    1   AR   Ar   83   0.843   2.240   1.003
    1   AR   Ar   84   0.030   4.104   1.477
    1   AR   Ar   85   1.415   3.474   1.031
    1   AR   Ar   86   1.744   5.240   0.858
    1   AR   Ar   87   1.938   2.419   1.135
    1   AR   Ar   88   2.184   4.518   1.895
    1   AR   Ar   89   0.380   2.945   2.814
    1   AR   Ar   90   2.425   2.108   4.357
    1   AR   Ar   91   1.202   2.567   3.512
    1   AR   Ar   92   1.635   2.370   2.233
    1   AR   Ar   93   1.045   0.474   5.939
    1   AR   Ar   94   0.340   7.076  11.362
    1   AR   Ar   95   3.991   0.600   5.983
    1   AR   Ar   96   2.750   7.037   4.754
    1   AR   Ar   97   4.446   1.573  -0.417
    1   AR   Ar   98   1.720   4.735   2.835
    1   AR   Ar   99   6.677   1.573  -0.101
    1   AR   Ar  100   1.333   3.000  -0.693
    1   AR   Ar  101   3.440   4.751   1.505
    1   AR   Ar  102   3.533   2.097   2.894
    1   AR   Ar  103   0.838   4.857   1.521
    1   AR   Ar  104   2.853   3.569  -1.252
    1   AR   Ar  105   0.891   3.047   4.578
    1   AR   Ar  106   3.427   3.049   5.715
    1   AR   Ar  107   0.843   4.086   4.605
    1   AR   Ar  108   2.334   0.953   4.982
    1   AR   Ar  109   1.682   3.796   5.112
    1   AR   Ar  110   2.358   3.052   5.522
    1   AR   Ar  111   4.760   5.150   7.905
    1   AR   Ar  112   1.330   5.525   6.412
    1   AR   Ar  113   3.031   4.636   0.481
    1   AR   Ar  114   2.874   0.221  -0.874
    1   AR   Ar  115   2.451   4.510  -0.675
    1   AR   Ar  116   6.433   0.554  -0.793
    1   AR   Ar  117   0.609   5.129   4.153
    1   AR   Ar  118   1.247   5.599   3.399
    1   AR   Ar  119   1.963   3.470   2.821
    1   AR   Ar  120   1.766   6.496   1.848
    1   AR   Ar  121   5.717   4.017   5.265
    1   AR   Ar  122   2.791   5.985   5.436
    1   AR   Ar  123   3.463   3.930   5.065
    1   AR   Ar  124   1.481   5.546   2.211
    1   AR   Ar  125   6.706   3.855   5.198
    1   AR   Ar  126   7.077   6.848   4.725
    1   AR   Ar  127   4.421   3.765   6.156
    1   AR   Ar  128   3.479   4.887   6.652
    1   AR   Ar  129   2.261   5.878   3.603
    1   AR   Ar  130   4.264   2.377  -2.904
    1   AR   Ar  131   3.684   2.521  -0.607
    1   AR   Ar  132   0.124   2.436  -0.145
    1   AR   Ar  133   4.769   6.391   3.521
    1   AR   Ar  134   4.520   1.094   4.383
    1   AR   Ar  135   5.992   0.859   2.504
    1   AR   Ar  136   5.341   6.873   2.690
    1   AR   Ar  137   1.663   4.818   4.452
    1   AR   Ar  138   4.979   1.361   5.897
    1   AR   Ar  139   5.839   1.945   5.559
    1   AR   Ar  140   4.284   6.740   4.312
    1   AR   Ar  141   4.059   4.929   4.486
    1   AR   Ar  142   3.103   6.901   6.321
    1   AR   Ar  143   6.228   7.042   5.558
    1   AR   Ar  144   6.963   1.510   5.022
    1   AR   Ar  145   5.043   4.355  -0.548
    1   AR   Ar  146   2.653   2.548   2.365
    1   AR   Ar  147   4.412   2.253  -1.537
    1   AR   Ar  148   3.378   5.888  -1.166
    1   AR   Ar  149   2.758   2.285  -0.067
    1   AR   Ar  150   2.244   1.550   2.358
    1   AR   Ar  151   2.438   2.057   3.356
    1   AR   Ar  152   2.720   2.580  -1.169
    1   AR   Ar  153   5.305   0.212   3.890
    1   AR   Ar  154   3.478   1.713   4.071
    1   AR   Ar  155   6.316   5.388   5.830
    1   AR   Ar  156   3.597   3.266   3.259
    1   AR   Ar  157   1.225   3.971   6.474
    1   AR   Ar  158   0.320   1.979   6.759
    1   AR   Ar  159   4.364   1.691   7.247
    1   AR   Ar  160   1.344   2.085   5.233
    1   AR   Ar  161   5.255   4.035   1.735
    1   AR   Ar  162   4.468   5.859  -0.794
    1   AR   Ar  163   6.136   3.737  -0.177
    1   AR   Ar  164   2.712   5.267   2.368
    1   AR   Ar  165   4.214   2.166   0.594
    1   AR   Ar  166   3.186   3.057   4.634
    1   AR   Ar  167   4.724   0.691   2.579
    1   AR   Ar  168   5.470   3.726  -1.531
    1   AR   Ar  169   3.138   4.153   2.562
    1   AR   Ar  170   2.894   3.993   5.884
    1   AR   Ar  171   5.839   3.952   3.835
    1   AR   Ar  172   4.705   4.469   5.363
    1   AR   Ar  173   2.960   3.338   6.811
    1   AR   Ar  174   2.342   6.165   6.582
    1   AR   Ar  175   3.239   2.142   6.660
    1   AR   Ar  176   3.882   2.438   5.110
    1   AR   Ar  177   7.060   5.625  -1.254
    1   AR   Ar  178   4.123   4.921  -0.270
    1   AR   Ar  179   3.901   5.817   0.134
    1   AR   Ar  180   2.010   1.958  -3.191
    1   AR   Ar  181   0.102   5.562   1.123
    1   AR   Ar  182   2.267   7.030   2.797
    1   AR   Ar  183   3.771   5.031   2.542
    1   AR   Ar  184   5.049   6.042   0.892
    1   AR   Ar  185   2.834   5.058   4.785
    1   AR   Ar  186   3.025   4.945   3.355
    1   AR   Ar  187   3.367   6.532   3.362
    1   AR   Ar  188   2.939   6.837   1.990
    1   AR   Ar  189   4.187   2.555   6.373
    1   AR   Ar  190   3.172   5.685   4.094
    1   AR   Ar  191   2.769   6.471   7.816
    1   AR   Ar  192   3.832   6.034   5.121
    1   AR   Ar  193   3.386   5.843   1.730
    1   AR   Ar  194   4.103   4.081  -0.932
    1   AR   Ar  195   5.449   1.705   0.236
    1   AR   Ar  196   4.669   0.498   0.410
    1   AR   Ar  197   3.516   1.371   0.288
    1   AR   Ar  198   5.917   1.569   1.329
    1   AR   Ar  199   3.095   1.021   2.738
    1   AR   Ar  200   5.665   2.728  -0.299
    1   AR   Ar  201   5.661   6.393   4.077
    1   AR   Ar  202   6.133   1.079   4.895
    1   AR   Ar  203   6.458   6.552   3.161
    1   AR   Ar  204   4.685   6.601   5.304
    1   AR   Ar  205   6.822   6.827   1.882
    1   AR   Ar  206   4.971   0.429   5.354
    1   AR   Ar  207   0.482   1.441   5.849
    1   AR   Ar  208   0.399   6.652   3.747
    1   AR   Ar  209   0.111   2.779  -1.751
    1   AR   Ar  210   2.447   0.141   0.260
    1   AR   Ar  211   6.524   3.247   0.609
    1   AR   Ar  212   6.335   2.906  -1.229
    1   AR   Ar  213   3.124   0.773   1.593
    1   AR   Ar  214   4.461   3.376   2.475
    1   AR   Ar  215   5.921   2.616   0.999
    1   AR   Ar  216   0.387   2.933   1.719
    1   AR   Ar  217   5.298   3.106   4.460
    1   AR   Ar  218   4.309   3.361   4.886
    1   AR   Ar  219   4.211   2.864   3.983
    1   AR   Ar  220   4.050   3.769   1.530
    1   AR   Ar  221   6.515   5.894   4.639
    1   AR   Ar  222   5.368   0.358   6.373
    1   AR   Ar  223   6.131   1.299   6.286
    1   AR   Ar  224   4.968   2.540   5.264
    1   AR   Ar  225   6.234   2.996   3.132
    1   AR   Ar  226   2.157   3.493   3.885
    1   AR   Ar  227   6.196   3.314   1.773
    1   AR   Ar  228   5.850   6.943   1.608
    1   AR   Ar  229   5.307   5.588  -1.274
    1   AR   Ar  230   4.182   4.211   3.672
    1   AR   Ar  231   5.488   1.172   3.982
    1   AR   Ar  232   4.930   1.759   1.219
    1   AR   Ar  233   6.247   2.169   4.141
    1   AR   Ar  234   6.296   2.839   5.150
    1   AR   Ar  235   6.540   1.038   3.561
    1   AR   Ar  236   5.306   5.400   5.548
    1   AR   Ar  237   5.864   3.159   6.046
    1   AR   Ar  238   5.464   4.302   6.263
    1   AR   Ar  239   6.655   4.332   9.097
    1   AR   Ar  240   6.564   2.706   6.949
    1   AR   Ar  241   1.833   6.535  -0.160
    1   AR   Ar  242   5.570   5.100   0.427
    1   AR   Ar  243   4.805   4.697   2.523
    1   AR   Ar  244   0.203   5.337  -0.102
    1   AR   Ar  245   4.132   0.571   1.689
    1   AR   Ar  246   5.461   6.949  -0.246
    1   AR   Ar  247   6.014   4.181   1.111
    1   AR   Ar  248   5.885   5.892  -0.245
    1   AR   Ar  249   4.355   5.345   1.696
    1   AR   Ar  250   4.709   5.795   4.553
    1   AR   Ar  251   4.900   4.061   4.465
    1   AR   Ar  252   4.213   5.358   3.509
    1   AR   Ar  253   6.729   3.736   6.560
    1   AR   Ar  254   2.228   2.306   9.368
    1   AR   Ar  255   3.757   4.490   9.785
    1   AR   Ar  256   6.310   4.909   2.851
    7.12000  7.12000 12.00000
Argon-slab step 3555
  256
    1   AR   Ar    1   5.915   2.592  -2.070
    1   AR   Ar    2   6.128   0.703   0.651
    1   AR   Ar    3   3.313   1.227  -0.864
    1   AR   Ar    4   1.477   0.906  -0.447
    1   AR   Ar    5   6.781   6.572   0.861
    1   AR   Ar    6   7.033   1.109   2.434
    1   AR   Ar    7   5.911   3.991   2.546
    1   AR   Ar    8   5.384   0.645   1.369
    1   AR   Ar    9   1.302   6.911   2.959
    1   AR   Ar   10   0.337   0.669   4.093
    1   AR   Ar   11   1.804   6.617   4.387
    1   AR   Ar   12   0.629   1.399   3.226
    1   AR   Ar   13   0.033   0.500   5.376
    1   AR   Ar   14   6.148   1.811   7.391
    1   AR   Ar   15   5.314   6.622   7.889
    1   AR   Ar   16   0.909   6.547   5.170
    1   AR   Ar   17   6.796   2.075   0.764
    1   AR   Ar   18   6.316   4.963  -0.511
    1   AR   Ar   19   2.962   3.483   0.664
    1   AR   Ar   20   4.413   5.174  -2.269
    1   AR   Ar   21   3.251   1.924   1.360
    1   AR   Ar   22   6.466   1.875   3.002
    1   AR   Ar   23   0.552   0.626   0.445
    1   AR   Ar   24   6.622   2.388   2.068
    1   AR   Ar   25   0.596   1.724   4.433
    1   AR   Ar   26   6.360   0.010   4.005
    1   AR   Ar   27   1.724   0.768   2.782
    1   AR   Ar   28   0.133   2.467   5.050
    1   AR   Ar   29   5.449   2.923   7.051
    1   AR   Ar   30   1.560   1.279   3.971
    1   AR   Ar   31   3.245   0.598   6.934
    1   AR   Ar   32   1.322   2.613   6.567
    1   AR   Ar   33   0.721   4.562   0.502
    1   AR   Ar   34   0.218   5.195   2.341
    1   AR   Ar   35   5.995   5.975   1.244
    1   AR   Ar   36   5.893   1.053  -2.927
    1   AR   Ar   37   5.416   2.288   2.396
    1   AR   Ar   38   7.017   4.051   2.520
    1   AR   Ar   39   1.136   3.962   2.028
    1   AR   Ar   40   2.324   3.366   1.793
    1   AR   Ar   41   0.138   2.299   3.721
    1   AR   Ar   42   5.831   4.956   4.472
    1   AR   Ar   43   6.893   2.327   5.962
    1   AR   Ar   44   0.737   4.476   3.355
    1   AR   Ar   45   0.662   3.432   5.546
    1   AR   Ar   46   6.972   5.017   4.907
    1   AR   Ar   47   5.551   4.184   7.304
    1   AR   Ar   48   6.345   4.655   6.617
    1   AR   Ar   49   5.229   0.790  -1.233
    1   AR   Ar   50   4.182   4.543   0.727
    1   AR   Ar   51   6.476   4.894   1.816
    1   AR   Ar   52   6.231   3.199  -3.095
    1   AR   Ar   53   5.456   5.685   2.433
    1   AR   Ar   54   0.455   6.368   2.642
    1   AR   Ar   55   6.502   5.926   2.284
    1   AR   Ar   56   6.951   0.628   1.290
    1   AR   Ar   57   4.971   3.592   3.399
    1   AR   Ar   58   6.963   3.234   4.052
    1   AR   Ar   59   2.211   5.223   5.805
    1   AR   Ar   60   0.054   5.529   3.415
    1   AR   Ar   61   0.018   4.778   6.056
    1   AR   Ar   62   6.871   4.501   4.020
    1   AR   Ar   63   2.119   0.954   6.148
    1   AR   Ar   64   1.416   5.548   5.284
    1   AR   Ar   65   3.792   6.673   0.848
    1   AR   Ar   66   0.971   1.477   1.709
    1   AR   Ar   67   3.903   6.990  -0.314
    1   AR   Ar   68   1.923   1.889  -1.005
    1   AR   Ar   69   2.431   1.254   0.898
    1   AR   Ar   70   0.739   0.236   2.144
    1   AR   Ar   71   2.743   1.044   3.841
    1   AR   Ar   72   4.256   6.790   2.422
    1   AR   Ar   73   4.233   0.199   3.307
    1   AR   Ar   74   1.100   0.313   4.726
    1   AR   Ar   75   3.548   0.819   4.779
    1   AR   Ar   76   1.726   0.550   1.371
    1   AR   Ar   77   1.888   6.988   5.519
    1   AR   Ar   78   0.320   6.102   6.053
    1   AR   Ar   79   3.579   5.997   6.222
    1   AR   Ar   80   3.653   4.780   5.514
    1   AR   Ar   81   2.856   6.138   0.128
    1   AR   Ar   82   6.603   4.753   0.566
    1   AR   Ar   83   0.855   2.216   0.972
    1   AR   Ar   84   0.020   4.100   1.477
    1   AR   Ar   85   1.400   3.437   1.026
    1   AR   Ar   86   1.774   5.281   0.848
    1   AR   Ar   87   1.952   2.417   1.159
    1   AR   Ar   88   2.178   4.501   1.861
    1   AR   Ar   89   0.396   2.922   2.829
    1   AR   Ar   90   2.414   2.100   4.370
    1   AR   Ar   91   1.192   2.558   3.519
    1   AR   Ar   92   1.653   2.364   2.247
    1   AR   Ar   93   1.026   0.478   5.930
    1   AR   Ar   94   0.391   7.082  11.381
    1   AR   Ar   95   4.000   0.592   5.982
    1   AR   Ar   96   2.755   7.042   4.735
    1   AR   Ar   97   4.425   1.552  -0.433
    1   AR   Ar   98   1.760   4.695   2.872
    1   AR   Ar   99   6.670   1.568  -0.086
    1   AR   Ar  100   1.305   3.012  -0.700
    1   AR   Ar  101   3.460   4.764   1.514
    1   AR   Ar  102   3.509   2.078   2.881
    1   AR   Ar  103   0.847   4.875   1.502
    1   AR   Ar  104   2.846   3.595  -1.220
    1   AR   Ar  105   0.897   3.045   4.586
    1   AR   Ar  106   3.421   3.034   5.695
    1   AR   Ar  107   0.818   4.054   4.588
    1   AR   Ar  108   2.311   0.945   4.988
    1   AR   Ar  109   1.666   3.771   5.133
    1   AR   Ar  110   2.385   3.034   5.519
    1   AR   Ar  111   4.781   5.157   7.878
    1   AR   Ar  112   1.328   5.493   6.413
    1   AR   Ar  113   3.012   4.630   0.481
    1   AR   Ar  114   2.851   0.214  -0.883
    1   AR   Ar  115   2.444   4.516  -0.666
    1   AR   Ar  116   6.453   0.552  -0.802
    1   AR   Ar  117   0.632   5.098   4.182
    1   AR   Ar  118   1.252   5.597   3.357
    1   AR   Ar  119   1.961   3.529   2.760
    1   AR   Ar  120   1.758   6.488   1.858
    1   AR   Ar  121   5.738   4.012   5.233
    1   AR   Ar  122   2.796   5.982   5.494
    1   AR   Ar  123   3.436   3.939   5.097
    1   AR   Ar  124   1.461   5.522   2.243
    1   AR   Ar  125   6.720   3.846   5.207
    1   AR   Ar  126   7.061   6.838   4.750
    1   AR   Ar  127   4.409   3.789   6.160
    1   AR   Ar  128   3.478   4.883   6.679
    1   AR   Ar  129   2.284   5.870   3.615
    1   AR   Ar  130   4.267   2.405  -2.923
    1   AR   Ar  131   3.669   2.552  -0.625
    1   AR   Ar  132   0.145   2.422  -0.121
    1   AR   Ar  133   4.765   6.398   3.522
    1   AR   Ar  134   4.532   1.110   4.412
    1   AR   Ar  135   5.983   0.870   2.513
    1   AR   Ar  136   5.353   6.869   2.715
    1   AR   Ar  137   1.639   4.817   4.478
    1   AR   Ar  138   4.993   1.372   5.909
    1   AR   Ar  139   5.853   1.897   5.564
    1   AR   Ar  140   4.259   6.753   4.318
    1   AR   Ar  141   4.024   4.901   4.498
    1   AR   Ar  142   3.122   6.875   6.327
    1   AR   Ar  143   6.216   7.076   5.596
    1   AR   Ar  144   6.954   1.497   5.037
    1   AR   Ar  145   5.036   4.366  -0.536
    1   AR   Ar  146   2.654   2.537   2.349
    1   AR   Ar  147   4.401   2.281  -1.520
    1   AR   Ar  148   3.360   5.900  -1.149
    1   AR   Ar  149   2.748   2.284  -0.103
    1   AR   Ar  150   2.247   1.563   2.360
    1   AR   Ar  151   2.446   2.079   3.368
    1   AR   Ar  152   2.695   2.568  -1.140
    1   AR   Ar  153   5.294   0.227   3.939
    1   AR   Ar  154   3.487   1.718   4.055
    1   AR   Ar  155   6.331   5.336   5.779
    1   AR   Ar  156   3.573   3.276   3.280
    1   AR   Ar  157   1.215   3.992   6.447
    1   AR   Ar  158   0.340   1.978   6.763
    1   AR   Ar  159   4.337   1.696   7.228
    1   AR   Ar  160   1.311   2.079   5.225
    1   AR   Ar  161   5.256   4.047   1.717
    1   AR   Ar  162   4.484   5.877  -0.766
    1   AR   Ar  163   6.147   3.743  -0.185
    1   AR   Ar  164   2.690   5.275   2.359
    1   AR   Ar  165   4.213   2.163   0.600
    1   AR   Ar  166   3.177   3.064   4.625
    1   AR   Ar  167   4.744   0.713   2.586
    1   AR   Ar  168   5.438   3.725  -1.541
    1   AR   Ar  169   3.152   4.129   2.555
    1   AR   Ar  170   2.892   4.008   5.902
    1   AR   Ar  171   5.839   3.933   3.830
    1   AR   Ar  172   4.734   4.469   5.355
    1   AR   Ar  173   2.951   3.310   6.807
    1   AR   Ar  174   2.334   6.165   6.565
    1   AR   Ar  175   3.249   2.145   6.631
    1   AR   Ar  176   3.881   2.440   5.062
    1   AR   Ar  177   7.059   5.660  -1.254
    1   AR   Ar  178   4.083   4.892  -0.278
    1   AR   Ar  179   3.916   5.820   0.102
    1   AR   Ar  180   1.999   1.986  -3.229
    1   AR   Ar  181   0.123   5.540   1.100
    1   AR   Ar  182   2.254   7.044   2.806
    1   AR   Ar  183   3.799   5.046   2.564
    1   AR   Ar  184   5.029   6.003   0.843
    1   AR   Ar  185   2.823   5.076   4.772
    1   AR   Ar  186   3.049   4.956   3.341
    1   AR   Ar  187   3.357   6.504   3.355
    1   AR   Ar  188   2.973   6.856   1.987
    1   AR   Ar  189   4.200   2.567   6.339
    1   AR   Ar  190   3.132   5.695   4.115
    1   AR   Ar  191   2.769   6.445   7.807
    1   AR   Ar  192   3.836   6.041   5.116
    1   AR   Ar  193   3.401   5.849   1.731
    1   AR   Ar  194   4.130   4.114  -0.940
    1   AR   Ar  195   5.445   1.715   0.266
    1   AR   Ar  196   4.673   0.517   0.437
    1   AR   Ar  197   3.515   1.335   0.283
    1   AR   Ar  198   5.966   1.541   1.351
    1   AR   Ar  199   3.078   0.998   2.733
    1   AR   Ar  200   5.638   2.714  -0.292
    1   AR   Ar  201   5.676   6.406   4.063
    1   AR   Ar  202   6.139   1.055   4.904
    1   AR   Ar  203   6.471   6.572   3.146
    1   AR   Ar  204   4.681   6.583   5.299
    1   AR   Ar  205   6.825   6.819   1.862
    1   AR   Ar  206   4.984   0.429   5.366
    1   AR   Ar  207   0.489   1.428   5.850
    1   AR   Ar  208   0.435   6.615   3.747
    1   AR   Ar  209   0.106   2.784  -1.744
    1   AR   Ar  210   2.424   0.128   0.268
    1   AR   Ar  211   6.540   3.232   0.585
    1   AR   Ar  212   6.310   2.898  -1.226
    1   AR   Ar  213   3.057   0.780   1.577
    1   AR   Ar  214   4.480   3.354   2.430
    1   AR   Ar  215   5.927   2.620   0.991
    1   AR   Ar  216   0.391   2.960   1.719
    1   AR   Ar  217   5.266   3.112   4.425
    1   AR   Ar  218   4.298   3.376   4.912
    1   AR   Ar  219   4.227   2.853   4.005
    1   AR   Ar  220   4.029   3.755   1.537
    1   AR   Ar  221   6.543   5.870   4.610
    1   AR   Ar  222   5.392   0.362   6.371
    1   AR   Ar  223   6.088   1.294   6.272
    1   AR   Ar  224   4.950   2.528   5.270
    1   AR   Ar  225   6.239   2.977   3.119
    1   AR   Ar  226   2.160   3.508   3.910
    1   AR   Ar  227   6.219   3.310   1.770
    1   AR   Ar  228   5.828   6.944   1.590
    1   AR   Ar  229   5.353   5.601  -1.294
    1   AR   Ar  230   4.164   4.274   3.636
    1   AR   Ar  231   5.491   1.191   3.990
    1   AR   Ar  232   4.950   1.736   1.203
    1   AR   Ar  233   6.275   2.150   4.172
    1   AR   Ar  234   6.294   2.817   5.148
    1   AR   Ar  235   6.528   1.047   3.578
    1   AR   Ar  236   5.313   5.380   5.561
    1   AR   Ar  237   5.837   3.178   6.032
    1   AR   Ar  238   5.435   4.288   6.304
    1   AR   Ar  239   6.668   4.343   9.099
    1   AR   Ar  240   6.577   2.695   6.956
    1   AR   Ar  241   1.856   6.517  -0.159
    1   AR   Ar  242   5.554   5.079   0.422
    1   AR   Ar  243   4.798   4.722   2.515
    1   AR   Ar  244   0.198   5.335  -0.118
    1   AR   Ar  245   4.130   0.567   1.735
    1   AR   Ar  246   5.428   6.990  -0.269
    1   AR   Ar  247   6.014   4.186   1.113
    1   AR   Ar  248   5.883   5.909  -0.230
    1   AR   Ar  249   4.417   5.358   1.724
    1   AR   Ar  250   4.690   5.785   4.582
    1   AR   Ar  251   4.901   4.057   4.478
    1   AR   Ar  252   4.183   5.357   3.482
    1   AR   Ar  253   6.736   3.730   6.538
    1   AR   Ar  254   2.212   2.320   9.345
    1   AR   Ar  255   3.774   4.480   9.821
    1   AR   Ar  256   6.305   4.906   2.865
    7.12000  7.12000 12.00000
Argon-slab step 3560
  256
    1   AR   Ar    1   5.881   2.557  -2.078
    1   AR   Ar    2   6.128   0.698   0.658
    1   AR   Ar    3   3.327   1.247  -0.881
    1   AR   Ar    4   1.473   0.898  -0.409
    1   AR   Ar    5   6.774   6.555   0.841
    1   AR   Ar    6   7.042   1.082   2.452
    1   AR   Ar    7   5.934   3.980   2.552
    1   AR   Ar    8   5.360   0.662   1.358
    1   AR   Ar    9   1.271   6.916   2.952
    1   AR   Ar   10   0.354   0.701   4.098
    1   AR   Ar   11   1.765   6.641   4.415
    1   AR   Ar   12   0.605   1.381   3.234
    1   AR   Ar   13   0.038   0.531   5.373
    1   AR   Ar   14   6.147   1.819   7.402
    1   AR   Ar   15   5.323   6.606   7.874
    1   AR   Ar   16   0.883   6.573   5.156
    1   AR   Ar   17   6.795   2.075   0.770
    1   AR   Ar   18   6.343   4.972  -0.543
    1   AR   Ar   19   2.985   3.476   0.669
    1   AR   Ar   20   4.437   5.161  -2.291
    1   AR   Ar   21   3.209   1.947   1.348
    1   AR   Ar   22   6.468   1.914   2.995
    1   AR   Ar   23   0.548   0.606   0.446
    1   AR   Ar   24   6.622   2.393   2.091
    1   AR   Ar   25   0.583   1.741   4.434
    1   AR   Ar   26   6.358   0.007   4.020
    1   AR   Ar   27   1.730   0.783   2.768
    1   AR   Ar   28   0.114   2.496   5.049
    1   AR   Ar   29   5.465   2.937   7.055
    1   AR   Ar   30   1.558   1.281   3.947
    1   AR   Ar   31   3.240   0.571   6.928
    1   AR   Ar   32   1.336   2.606   6.548
    1   AR   Ar   33   0.703   4.579   0.506
    1   AR   Ar   34   0.212   5.180   2.328
    1   AR   Ar   35   5.994   5.986   1.235
    1   AR   Ar   36   5.889   1.086  -2.927
    1   AR   Ar   37   5.430   2.291   2.393
    1   AR   Ar   38   7.002   4.033   2.545
    1   AR   Ar   39   1.145   3.987   2.063
    1   AR   Ar   40   2.316   3.365   1.776
    1   AR   Ar   41   0.130   2.261   3.712
    1   AR   Ar   42   5.822   4.966   4.481
    1   AR   Ar   43   6.915   2.319   5.963
    1   AR   Ar   44   0.753   4.475   3.341
    1   AR   Ar   45   0.638   3.406   5.512
    1   AR   Ar   46   7.009   5.011   4.927
    1   AR   Ar   47   5.526   4.169   7.306
    1   AR   Ar   48   6.360   4.677   6.658
    1   AR   Ar   49   5.210   0.790  -1.228
    1   AR   Ar   50   4.197   4.573   0.725
    1   AR   Ar   51   6.461   4.893   1.792
    1   AR   Ar   52   6.211   3.193  -3.107
    1   AR   Ar   53   5.459   5.684   2.420
    1   AR   Ar   54   0.468   6.363   2.626
    1   AR   Ar   55   6.494   5.927   2.312
    1   AR   Ar   56   6.944   0.607   1.297
    1   AR   Ar   57   4.964   3.564   3.418
    1   AR   Ar   58   6.947   3.255   4.071
    1   AR   Ar   59   2.206   5.218   5.806
    1   AR   Ar   60   0.029   5.509   3.439
    1   AR   Ar   61   0.027   4.767   6.062
    1   AR   Ar   62   6.890   4.512   4.014
    1   AR   Ar   63   2.107   0.963   6.100
    1   AR   Ar   64   1.428   5.523   5.292
    1   AR   Ar   65   3.768   6.696   0.816
    1   AR   Ar   66   0.966   1.471   1.722
    1   AR   Ar   67   3.921   7.005  -0.313
    1   AR   Ar   68   1.927   1.897  -0.986
    1   AR   Ar   69   2.457   1.266   0.893
    1   AR   Ar   70   0.755   0.224   2.112
    1   AR   Ar   71   2.716   1.050   3.842
    1   AR   Ar   72   4.207   6.775   2.408
    1   AR   Ar   73   4.247   0.211   3.352
    1   AR   Ar   74   1.095   0.293   4.742
    1   AR   Ar   75   3.543   0.840   4.793
    1   AR   Ar   76   1.714   0.542   1.350
    1   AR   Ar   77   1.879   7.023   5.529
    1   AR   Ar   78   0.333   6.083   6.059
    1   AR   Ar   79   3.608   5.986   6.253
    1   AR   Ar   80   3.670   4.760   5.513
    1   AR   Ar   81   2.845   6.151   0.139
    1   AR   Ar   82   6.597   4.747   0.559
    1   AR   Ar   83   0.880   2.213   0.951
    1   AR   Ar   84   0.011   4.094   1.472
    1   AR   Ar   85   1.385   3.400   1.022
    1   AR   Ar   86   1.804   5.321   0.840
    1   AR   Ar   87   1.968   2.415   1.184
    1   AR   Ar   88   2.170   4.481   1.825
    1   AR   Ar   89   0.411   2.900   2.843
    1   AR   Ar   90   2.402   2.092   4.392
    1   AR   Ar   91   1.184   2.548   3.527
    1   AR   Ar   92   1.651   2.351   2.247
    1   AR   Ar   93   1.009   0.480   5.919
    1   AR   Ar   94   0.441   7.087  11.399
    1   AR   Ar   95   4.010   0.583   5.980
    1   AR   Ar   96   2.761   7.048   4.718
    1   AR   Ar   97   4.403   1.531  -0.448
    1   AR   Ar   98   1.726   4.686   2.835
    1   AR   Ar   99   6.657   1.554  -0.077
    1   AR   Ar  100   1.284   3.018  -0.704
    1   AR   Ar  101   3.456   4.754   1.512
    1   AR   Ar  102   3.484   2.059   2.868
    1   AR   Ar  103   0.858   4.894   1.486
    1   AR   Ar  104   2.840   3.625  -1.187
    1   AR   Ar  105   0.906   3.035   4.590
    1   AR   Ar  106   3.412   3.026   5.686
    1   AR   Ar  107   0.788   4.030   4.568
    1   AR   Ar  108   2.288   0.937   4.993
    1   AR   Ar  109   1.653   3.746   5.155
    1   AR   Ar  110   2.410   3.015   5.516
    1   AR   Ar  111   4.803   5.163   7.850
    1   AR   Ar  112   1.324   5.462   6.413
    1   AR   Ar  113   3.002   4.658   0.505
    1   AR   Ar  114   2.828   0.206  -0.890
    1   AR   Ar  115   2.438   4.521  -0.656
    1   AR   Ar  116   6.474   0.556  -0.812
    1   AR   Ar  117   0.657   5.071   4.215
    1   AR   Ar  118   1.254   5.596   3.314
    1   AR   Ar  119   1.959   3.588   2.702
    1   AR   Ar  120   1.751   6.482   1.868
    1   AR   Ar  121   5.749   4.009   5.201
    1   AR   Ar  122   2.804   5.986   5.547
    1   AR   Ar  123   3.412   3.941   5.111
    1   AR   Ar  124   1.439   5.496   2.274
    1   AR   Ar  125   6.745   3.837   5.216
    1   AR   Ar  126   7.045   6.824   4.771
    1   AR   Ar  127   4.397   3.812   6.162
    1   AR   Ar  128   3.477   4.879   6.705
    1   AR   Ar  129   2.299   5.863   3.621
    1   AR   Ar  130   4.270   2.433  -2.940
    1   AR   Ar  131   3.656   2.582  -0.643
    1   AR   Ar  132   0.170   2.414  -0.100
    1   AR   Ar  133   4.762   6.400   3.515
    1   AR   Ar  134   4.542   1.124   4.442
    1   AR   Ar  135   5.971   0.880   2.521
    1   AR   Ar  136   5.366   6.866   2.741
    1   AR   Ar  137   1.642   4.833   4.496
    1   AR   Ar  138   5.000   1.367   5.883
    1   AR   Ar  139   5.866   1.864   5.554
    1   AR   Ar  140   4.252   6.748   4.312
    1   AR   Ar  141   3.987   4.873   4.511
    1   AR   Ar  142   3.138   6.863   6.332
    1   AR   Ar  143   6.204   7.110   5.631
    1   AR   Ar  144   6.957   1.490   5.059
    1   AR   Ar  145   5.036   4.380  -0.520
    1   AR   Ar  146   2.662   2.528   2.334
    1   AR   Ar  147   4.389   2.308  -1.502
    1   AR   Ar  148   3.344   5.912  -1.129
    1   AR   Ar  149   2.738   2.281  -0.136
    1   AR   Ar  150   2.255   1.570   2.360
    1   AR   Ar  151   2.454   2.100   3.371
    1   AR   Ar  152   2.672   2.555  -1.113
    1   AR   Ar  153   5.275   0.235   3.986
    1   AR   Ar  154   3.500   1.729   4.040
    1   AR   Ar  155   6.346   5.288   5.724
    1   AR   Ar  156   3.547   3.286   3.299
    1   AR   Ar  157   1.205   4.012   6.417
    1   AR   Ar  158   0.361   1.978   6.772
    1   AR   Ar  159   4.310   1.702   7.207
    1   AR   Ar  160   1.290   2.060   5.224
    1   AR   Ar  161   5.244   4.057   1.705
    1   AR   Ar  162   4.499   5.897  -0.740
    1   AR   Ar  163   6.140   3.753  -0.185
    1   AR   Ar  164   2.667   5.285   2.352
    1   AR   Ar  165   4.209   2.160   0.604
    1   AR   Ar  166   3.163   3.069   4.610
    1   AR   Ar  167   4.770   0.738   2.591
    1   AR   Ar  168   5.407   3.723  -1.549
    1   AR   Ar  169   3.165   4.107   2.547
    1   AR   Ar  170   2.874   4.005   5.948
    1   AR   Ar  171   5.846   3.915   3.827
    1   AR   Ar  172   4.759   4.473   5.357
    1   AR   Ar  173   2.943   3.281   6.800
    1   AR   Ar  174   2.325   6.163   6.546
    1   AR   Ar  175   3.257   2.148   6.601
    1   AR   Ar  176   3.886   2.428   5.008
    1   AR   Ar  177   7.057   5.694  -1.253
    1   AR   Ar  178   4.043   4.863  -0.287
    1   AR   Ar  179   3.928   5.829   0.076
    1   AR   Ar  180   1.988   2.015  -3.267
    1   AR   Ar  181   0.140   5.519   1.077
    1   AR   Ar  182   2.260   7.051   2.813
    1   AR   Ar  183   3.822   5.061   2.582
    1   AR   Ar  184   5.005   5.965   0.793
    1   AR   Ar  185   2.805   5.080   4.774
    1   AR   Ar  186   3.073   4.965   3.327
    1   AR   Ar  187   3.363   6.469   3.340
    1   AR   Ar  188   3.007   6.876   1.983
    1   AR   Ar  189   4.215   2.580   6.304
    1   AR   Ar  190   3.109   5.719   4.130
    1   AR   Ar  191   2.770   6.420   7.796
    1   AR   Ar  192   3.833   6.038   5.112
    1   AR   Ar  193   3.418   5.856   1.732
    1   AR   Ar  194   4.152   4.140  -0.954
    1   AR   Ar  195   5.446   1.727   0.276
    1   AR   Ar  196   4.677   0.537   0.464
    1   AR   Ar  197   3.528   1.304   0.280
    1   AR   Ar  198   6.021   1.515   1.373
    1   AR   Ar  199   3.062   0.974   2.729
    1   AR   Ar  200   5.651   2.710  -0.288
    1   AR   Ar  201   5.689   6.405   4.050
    1   AR   Ar  202   6.122   1.017   4.909
    1   AR   Ar  203   6.485   6.589   3.128
    1   AR   Ar  204   4.680   6.562   5.298
    1   AR   Ar  205   6.833   6.815   1.848
    1   AR   Ar  206   5.020   0.445   5.358
    1   AR   Ar  207   0.505   1.421   5.861
    1   AR   Ar  208   0.470   6.578   3.748
    1   AR   Ar  209   0.103   2.789  -1.738
    1   AR   Ar  210   2.405   0.121   0.280
    1   AR   Ar  211   6.556   3.220   0.577
    1   AR   Ar  212   6.287   2.894  -1.208
    1   AR   Ar  213   2.991   0.786   1.564
    1   AR   Ar  214   4.500   3.334   2.387
    1   AR   Ar  215   5.918   2.604   1.004
    1   AR   Ar  216   0.396   2.988   1.718
    1   AR   Ar  217   5.238   3.113   4.388
    1   AR   Ar  218   4.286   3.390   4.943
    1   AR   Ar  219   4.245   2.840   4.026
    1   AR   Ar  220   4.007   3.743   1.543
    1   AR   Ar  221   6.567   5.853   4.578
    1   AR   Ar  222   5.416   0.367   6.369
    1   AR   Ar  223   6.049   1.278   6.271
    1   AR   Ar  224   4.945   2.488   5.266
    1   AR   Ar  225   6.245   2.959   3.105
    1   AR   Ar  226   2.162   3.522   3.935
    1   AR   Ar  227   6.242   3.310   1.767
    1   AR   Ar  228   5.808   6.936   1.586
    1   AR   Ar  229   5.402   5.613  -1.314
    1   AR   Ar  230   4.145   4.336   3.598
    1   AR   Ar  231   5.501   1.223   3.997
    1   AR   Ar  232   4.973   1.709   1.195
    1   AR   Ar  233   6.303   2.130   4.204
    1   AR   Ar  234   6.286   2.797   5.141
    1   AR   Ar  235   6.517   1.051   3.599
    1   AR   Ar  236   5.317   5.359   5.571
    1   AR   Ar  237   5.829   3.190   6.018
    1   AR   Ar  238   5.400   4.271   6.333
    1   AR   Ar  239   6.681   4.354   9.101
    1   AR   Ar  240   6.585   2.688   6.959
    1   AR   Ar  241   1.875   6.495  -0.162
    1   AR   Ar  242   5.560   5.066   0.424
    1   AR   Ar  243   4.801   4.740   2.512
    1   AR   Ar  244   0.190   5.339  -0.144
    1   AR   Ar  245   4.127   0.563   1.778
    1   AR   Ar  246   5.429   7.004  -0.259
    1   AR   Ar  247   6.017   4.184   1.111
    1   AR   Ar  248   5.891   5.901  -0.234
    1   AR   Ar  249   4.479   5.372   1.749
    1   AR   Ar  250   4.676   5.771   4.606
    1   AR   Ar  251   4.905   4.060   4.476
    1   AR   Ar  252   4.155   5.359   3.460
    1   AR   Ar  253   6.745   3.717   6.514
    1   AR   Ar  254   2.195   2.334   9.322
    1   AR   Ar  255   3.792   4.470   9.858
    1   AR   Ar  256   6.304   4.906   2.882
    7.12000  7.12000 12.00000
Argon-slab step 3565
  256
    1   AR   Ar    1   5.844   2.520  -2.091
    1   AR   Ar    2   6.127   0.693   0.659
    1   AR   Ar    3   3.341   1.268  -0.893
    1   AR   Ar    4   1.470   0.890  -0.369
    1   AR   Ar    5   6.768   6.540   0.816
    1   AR   Ar    6   7.051   1.056   2.468
    1   AR   Ar    7   5.954   3.966   2.560
    1   AR   Ar    8   5.325   0.689   1.349
    1   AR   Ar    9   1.237   6.921   2.950
    1   AR   Ar   10   0.368   0.733   4.103
    1   AR   Ar   11   1.728   6.663   4.443
    1   AR   Ar   12   0.582   1.363   3.244
    1   AR   Ar   13   0.045   0.562   5.372
    1   AR   Ar   14   6.146   1.825   7.413
    1   AR   Ar   15   5.332   6.591   7.859
    1   AR   Ar   16   0.855   6.582   5.152
    1   AR   Ar   17   6.797   2.077   0.787
    1   AR   Ar   18   6.373   4.975  -0.567
    1   AR   Ar   19   3.007   3.470   0.675
    1   AR   Ar   20   4.461   5.148  -2.312
    1   AR   Ar   21   3.165   1.969   1.336
    1   AR   Ar   22   6.469   1.950   2.991
    1   AR   Ar   23   0.544   0.585   0.447
    1   AR   Ar   24   6.624   2.396   2.111
    1   AR   Ar   25   0.582   1.755   4.435
    1   AR   Ar   26   6.364   0.016   4.036
    1   AR   Ar   27   1.729   0.803   2.756
    1   AR   Ar   28   0.106   2.528   5.037
    1   AR   Ar   29   5.482   2.950   7.057
    1   AR   Ar   30   1.557   1.284   3.923
    1   AR   Ar   31   3.236   0.549   6.925
    1   AR   Ar   32   1.348   2.599   6.527
    1   AR   Ar   33   0.683   4.595   0.507
    1   AR   Ar   34   0.208   5.166   2.317
    1   AR   Ar   35   5.994   5.988   1.228
    1   AR   Ar   36   5.886   1.119  -2.927
    1   AR   Ar   37   5.429   2.294   2.395
    1   AR   Ar   38   6.989   4.016   2.570
    1   AR   Ar   39   1.153   4.012   2.098
    1   AR   Ar   40   2.310   3.365   1.751
    1   AR   Ar   41   0.119   2.226   3.696
    1   AR   Ar   42   5.776   4.963   4.502
    1   AR   Ar   43   6.930   2.311   5.971
    1   AR   Ar   44   0.767   4.474   3.326
    1   AR   Ar   45   0.611   3.382   5.484
    1   AR   Ar   46   7.047   4.997   4.954
    1   AR   Ar   47   5.502   4.153   7.319
    1   AR   Ar   48   6.365   4.701   6.706
    1   AR   Ar   49   5.191   0.790  -1.222
    1   AR   Ar   50   4.212   4.602   0.725
    1   AR   Ar   51   6.453   4.909   1.782
    1   AR   Ar   52   6.205   3.191  -3.088
    1   AR   Ar   53   5.459   5.683   2.406
    1   AR   Ar   54   0.475   6.353   2.609
    1   AR   Ar   55   6.488   5.924   2.339
    1   AR   Ar   56   6.940   0.588   1.307
    1   AR   Ar   57   4.952   3.535   3.434
    1   AR   Ar   58   6.931   3.277   4.090
    1   AR   Ar   59   2.209   5.202   5.815
    1   AR   Ar   60   0.009   5.512   3.470
    1   AR   Ar   61   0.050   4.752   6.062
    1   AR   Ar   62   6.902   4.553   4.033
    1   AR   Ar   63   2.094   0.970   6.052
    1   AR   Ar   64   1.414   5.518   5.281
    1   AR   Ar   65   3.744   6.718   0.785
    1   AR   Ar   66   0.966   1.462   1.746
    1   AR   Ar   67   3.938   7.018  -0.311
    1   AR   Ar   68   1.937   1.891  -0.997
    1   AR   Ar   69   2.476   1.286   0.878
    1   AR   Ar   70   0.769   0.215   2.079
    1   AR   Ar   71   2.686   1.055   3.842
    1   AR   Ar   72   4.157   6.759   2.395
    1   AR   Ar   73   4.254   0.224   3.378
    1   AR   Ar   74   1.095   0.291   4.753
    1   AR   Ar   75   3.536   0.859   4.806
    1   AR   Ar   76   1.701   0.535   1.331
    1   AR   Ar   77   1.871   7.057   5.538
    1   AR   Ar   78   0.347   6.062   6.064
    1   AR   Ar   79   3.642   5.966   6.283
    1   AR   Ar   80   3.691   4.761   5.525
    1   AR   Ar   81   2.837   6.164   0.150
    1   AR   Ar   82   6.602   4.748   0.546
    1   AR   Ar   83   0.904   2.213   0.928
    1   AR   Ar   84   0.000   4.096   1.463
    1   AR   Ar   85   1.369   3.362   1.020
    1   AR   Ar   86   1.834   5.361   0.833
    1   AR   Ar   87   1.985   2.412   1.210
    1   AR   Ar   88   2.161   4.460   1.789
    1   AR   Ar   89   0.423   2.878   2.857
    1   AR   Ar   90   2.410   2.092   4.404
    1   AR   Ar   91   1.190   2.535   3.509
    1   AR   Ar   92   1.632   2.337   2.237
    1   AR   Ar   93   0.993   0.480   5.906
    1   AR   Ar   94   0.477   7.095  11.413
    1   AR   Ar   95   4.021   0.574   5.978
    1   AR   Ar   96   2.768   7.054   4.701
    1   AR   Ar   97   4.382   1.520  -0.446
    1   AR   Ar   98   1.715   4.709   2.833
    1   AR   Ar   99   6.641   1.533  -0.075
    1   AR   Ar  100   1.262   3.023  -0.708
    1   AR   Ar  101   3.440   4.757   1.521
    1   AR   Ar  102   3.459   2.039   2.857
    1   AR   Ar  103   0.875   4.910   1.476
    1   AR   Ar  104   2.834   3.656  -1.154
    1   AR   Ar  105   0.925   3.029   4.607
    1   AR   Ar  106   3.409   3.023   5.684
    1   AR   Ar  107   0.753   4.015   4.547
    1   AR   Ar  108   2.265   0.928   4.996
    1   AR   Ar  109   1.641   3.721   5.177
    1   AR   Ar  110   2.429   2.997   5.511
    1   AR   Ar  111   4.828   5.163   7.835
    1   AR   Ar  112   1.320   5.431   6.412
    1   AR   Ar  113   2.998   4.659   0.488
    1   AR   Ar  114   2.805   0.198  -0.895
    1   AR   Ar  115   2.436   4.525  -0.629
    1   AR   Ar  116   6.494   0.561  -0.821
    1   AR   Ar  117   0.685   5.049   4.248
    1   AR   Ar  118   1.253   5.594   3.274
    1   AR   Ar  119   1.955   3.648   2.650
    1   AR   Ar  120   1.744   6.479   1.881
    1   AR   Ar  121   5.754   4.007   5.169
    1   AR   Ar  122   2.814   5.996   5.596
    1   AR   Ar  123   3.386   3.930   5.108
    1   AR   Ar  124   1.416   5.475   2.299
    1   AR   Ar  125   6.778   3.827   5.224
    1   AR   Ar  126   7.030   6.806   4.789
    1   AR   Ar  127   4.395   3.803   6.149
    1   AR   Ar  128   3.475   4.864   6.723
    1   AR   Ar  129   2.302   5.859   3.619
    1   AR   Ar  130   4.274   2.461  -2.957
    1   AR   Ar  131   3.645   2.612  -0.661
    1   AR   Ar  132   0.197   2.408  -0.079
    1   AR   Ar  133   4.760   6.396   3.502
    1   AR   Ar  134   4.551   1.138   4.473
    1   AR   Ar  135   5.958   0.890   2.529
    1   AR   Ar  136   5.381   6.864   2.765
    1   AR   Ar  137   1.648   4.846   4.513
    1   AR   Ar  138   5.004   1.364   5.860
    1   AR   Ar  139   5.878   1.848   5.524
    1   AR   Ar  140   4.255   6.732   4.299
    1   AR   Ar  141   3.951   4.846   4.524
    1   AR   Ar  142   3.157   6.885   6.337
    1   AR   Ar  143   6.185   0.023   5.660
    1   AR   Ar  144   6.961   1.493   5.083
    1   AR   Ar  145   5.044   4.395  -0.502
    1   AR   Ar  146   2.677   2.523   2.320
    1   AR   Ar  147   4.377   2.335  -1.484
    1   AR   Ar  148   3.328   5.924  -1.108
    1   AR   Ar  149   2.728   2.275  -0.161
    1   AR   Ar  150   2.270   1.570   2.358
    1   AR   Ar  151   2.462   2.120   3.367
    1   AR   Ar  152   2.654   2.549  -1.094
    1   AR   Ar  153   5.251   0.239   4.033
    1   AR   Ar  154   3.515   1.742   4.026
    1   AR   Ar  155   6.342   5.252   5.690
    1   AR   Ar  156   3.521   3.298   3.318
    1   AR   Ar  157   1.195   4.032   6.385
    1   AR   Ar  158   0.383   1.978   6.784
    1   AR   Ar  159   4.302   1.704   7.207
    1   AR   Ar  160   1.268   2.042   5.222
    1   AR   Ar  161   5.229   4.063   1.708
    1   AR   Ar  162   4.519   5.918  -0.720
    1   AR   Ar  163   6.129   3.768  -0.190
    1   AR   Ar  164   2.645   5.295   2.345
    1   AR   Ar  165   4.203   2.158   0.605
    1   AR   Ar  166   3.145   3.072   4.589
    1   AR   Ar  167   4.801   0.764   2.596
    1   AR   Ar  168   5.403   3.724  -1.533
    1   AR   Ar  169   3.178   4.085   2.538
    1   AR   Ar  170   2.850   4.003   6.001
    1   AR   Ar  171   5.858   3.900   3.826
    1   AR   Ar  172   4.780   4.480   5.369
    1   AR   Ar  173   2.937   3.251   6.792
    1   AR   Ar  174   2.315   6.159   6.526
    1   AR   Ar  175   3.266   2.151   6.571
    1   AR   Ar  176   3.894   2.406   4.950
    1   AR   Ar  177   7.054   5.728  -1.250
    1   AR   Ar  178   4.002   4.840  -0.291
    1   AR   Ar  179   3.934   5.842   0.060
    1   AR   Ar  180   2.016   1.993  -3.279
    1   AR   Ar  181   0.153   5.499   1.053
    1   AR   Ar  182   2.280   7.052   2.819
    1   AR   Ar  183   3.837   5.074   2.586
    1   AR   Ar  184   4.987   5.960   0.764
    1   AR   Ar  185   2.781   5.070   4.791
    1   AR   Ar  186   3.095   4.974   3.316
    1   AR   Ar  187   3.371   6.434   3.325
    1   AR   Ar  188   3.041   6.895   1.981
    1   AR   Ar  189   4.232   2.594   6.267
    1   AR   Ar  190   3.109   5.754   4.142
    1   AR   Ar  191   2.771   6.396   7.783
    1   AR   Ar  192   3.829   6.041   5.106
    1   AR   Ar  193   3.436   5.864   1.733
    1   AR   Ar  194   4.168   4.157  -0.979
    1   AR   Ar  195   5.452   1.741   0.271
    1   AR   Ar  196   4.681   0.557   0.490
    1   AR   Ar  197   3.558   1.283   0.271
    1   AR   Ar  198   6.079   1.491   1.398
    1   AR   Ar  199   3.047   0.948   2.725
    1   AR   Ar  200   5.681   2.713  -0.279
    1   AR   Ar  201   5.697   6.391   4.040
    1   AR   Ar  202   6.090   0.968   4.911
    1   AR   Ar  203   6.500   6.607   3.109
    1   AR   Ar  204   4.686   6.545   5.300
    1   AR   Ar  205   6.846   6.812   1.840
    1   AR   Ar  206   5.057   0.463   5.346
    1   AR   Ar  207   0.523   1.416   5.871
    1   AR   Ar  208   0.505   6.540   3.749
    1   AR   Ar  209   0.100   2.794  -1.732
    1   AR   Ar  210   2.391   0.120   0.295
    1   AR   Ar  211   6.559   3.204   0.593
    1   AR   Ar  212   6.265   2.894  -1.184
    1   AR   Ar  213   2.931   0.787   1.561
    1   AR   Ar  214   4.521   3.313   2.348
    1   AR   Ar  215   5.897   2.580   1.023
    1   AR   Ar  216   0.400   3.018   1.716
    1   AR   Ar  217   5.215   3.107   4.352
    1   AR   Ar  218   4.275   3.403   4.980
    1   AR   Ar  219   4.271   2.815   3.994
    1   AR   Ar  220   3.983   3.734   1.548
    1   AR   Ar  221   6.587   5.842   4.542
    1   AR   Ar  222   5.439   0.372   6.368
    1   AR   Ar  223   6.018   1.247   6.288
    1   AR   Ar  224   4.923   2.472   5.262
    1   AR   Ar  225   6.252   2.944   3.091
    1   AR   Ar  226   2.165   3.536   3.961
    1   AR   Ar  227   6.267   3.313   1.762
    1   AR   Ar  228   5.791   6.922   1.586
    1   AR   Ar  229   5.452   5.624  -1.333
    1   AR   Ar  230   4.125   4.391   3.558
    1   AR   Ar  231   5.516   1.263   4.003
    1   AR   Ar  232   4.994   1.681   1.193
    1   AR   Ar  233   6.309   2.129   4.217
    1   AR   Ar  234   6.270   2.781   5.133
    1   AR   Ar  235   6.508   1.053   3.621
    1   AR   Ar  236   5.317   5.339   5.579
    1   AR   Ar  237   5.852   3.188   6.001
    1   AR   Ar  238   5.364   4.255   6.348
    1   AR   Ar  239   6.695   4.365   9.103
    1   AR   Ar  240   6.573   2.698   6.948
    1   AR   Ar  241   1.889   6.469  -0.167
    1   AR   Ar  242   5.552   5.076   0.407
    1   AR   Ar  243   4.835   4.743   2.527
    1   AR   Ar  244   0.182   5.343  -0.169
    1   AR   Ar  245   4.121   0.558   1.817
    1   AR   Ar  246   5.439   7.011  -0.239
    1   AR   Ar  247   6.022   4.175   1.108
    1   AR   Ar  248   5.884   5.883  -0.243
    1   AR   Ar  249   4.540   5.388   1.769
    1   AR   Ar  250   4.668   5.752   4.624
    1   AR   Ar  251   4.911   4.071   4.459
    1   AR   Ar  252   4.131   5.372   3.449
    1   AR   Ar  253   6.755   3.699   6.487
    1   AR   Ar  254   2.178   2.348   9.299
    1   AR   Ar  255   3.806   4.458   9.879
    1   AR   Ar  256   6.304   4.910   2.901
    7.12000  7.12000 12.00000
Argon-slab step 3570
  256
    1   AR   Ar    1   5.807   2.483  -2.107
    1   AR   Ar    2   6.125   0.688   0.654
    1   AR   Ar    3   3.355   1.287  -0.888
    1   AR   Ar    4   1.469   0.882  -0.329
    1   AR   Ar    5   6.765   6.527   0.788
    1   AR   Ar    6   7.059   1.028   2.482
    1   AR   Ar    7   5.967   3.951   2.569
    1   AR   Ar    8   5.287   0.717   1.343
    1   AR   Ar    9   1.206   6.928   2.952
    1   AR   Ar   10   0.379   0.763   4.108
    1   AR   Ar   11   1.712   6.688   4.457
    1   AR   Ar   12   0.562   1.346   3.254
    1   AR   Ar   13   0.053   0.585   5.373
    1   AR   Ar   14   6.143   1.831   7.423
    1   AR   Ar   15   5.341   6.574   7.843
    1   AR   Ar   16   0.826   6.572   5.159
    1   AR   Ar   17   6.802   2.081   0.811
    1   AR   Ar   18   6.407   4.971  -0.577
    1   AR   Ar   19   3.029   3.464   0.682
    1   AR   Ar   20   4.486   5.135  -2.332
    1   AR   Ar   21   3.122   1.992   1.325
    1   AR   Ar   22   6.469   1.975   2.993
    1   AR   Ar   23   0.541   0.566   0.448
    1   AR   Ar   24   6.628   2.401   2.123
    1   AR   Ar   25   0.590   1.764   4.437
    1   AR   Ar   26   6.374   0.035   4.053
    1   AR   Ar   27   1.721   0.823   2.746
    1   AR   Ar   28   0.108   2.560   5.015
    1   AR   Ar   29   5.499   2.965   7.058
    1   AR   Ar   30   1.555   1.288   3.900
    1   AR   Ar   31   3.231   0.544   6.931
    1   AR   Ar   32   1.360   2.593   6.505
    1   AR   Ar   33   0.661   4.610   0.506
    1   AR   Ar   34   0.206   5.152   2.310
    1   AR   Ar   35   5.993   5.980   1.222
    1   AR   Ar   36   5.882   1.152  -2.926
    1   AR   Ar   37   5.427   2.298   2.399
    1   AR   Ar   38   6.982   3.999   2.596
    1   AR   Ar   39   1.157   4.038   2.131
    1   AR   Ar   40   2.304   3.363   1.719
    1   AR   Ar   41   0.104   2.199   3.674
    1   AR   Ar   42   5.731   4.959   4.524
    1   AR   Ar   43   6.921   2.298   5.964
    1   AR   Ar   44   0.779   4.473   3.309
    1   AR   Ar   45   0.590   3.367   5.470
    1   AR   Ar   46   7.086   4.981   4.987
    1   AR   Ar   47   5.481   4.135   7.343
    1   AR   Ar   48   6.365   4.725   6.757
    1   AR   Ar   49   5.172   0.789  -1.214
    1   AR   Ar   50   4.227   4.632   0.729
    1   AR   Ar   51   6.446   4.931   1.775
    1   AR   Ar   52   6.202   3.191  -3.061
    1   AR   Ar   53   5.458   5.681   2.393
    1   AR   Ar   54   0.475   6.336   2.590
    1   AR   Ar   55   6.485   5.916   2.361
    1   AR   Ar   56   6.938   0.572   1.319
    1   AR   Ar   57   4.935   3.508   3.445
    1   AR   Ar   58   6.915   3.299   4.111
    1   AR   Ar   59   2.216   5.178   5.829
    1   AR   Ar   60   0.057   5.498   3.481
    1   AR   Ar   61   0.081   4.733   6.059
    1   AR   Ar   62   6.910   4.590   4.046
    1   AR   Ar   63   2.079   0.977   6.005
    1   AR   Ar   64   1.393   5.518   5.267
    1   AR   Ar   65   3.720   6.740   0.753
    1   AR   Ar   66   0.954   1.453   1.757
    1   AR   Ar   67   3.956   7.030  -0.308
    1   AR   Ar   68   1.940   1.874  -1.015
    1   AR   Ar   69   2.469   1.257   0.866
    1   AR   Ar   70   0.782   0.207   2.044
    1   AR   Ar   71   2.654   1.060   3.843
    1   AR   Ar   72   4.108   6.741   2.384
    1   AR   Ar   73   4.253   0.238   3.370
    1   AR   Ar   74   1.098   0.313   4.759
    1   AR   Ar   75   3.527   0.878   4.819
    1   AR   Ar   76   1.689   0.528   1.314
    1   AR   Ar   77   1.864   7.091   5.544
    1   AR   Ar   78   0.361   6.040   6.067
    1   AR   Ar   79   3.680   5.940   6.313
    1   AR   Ar   80   3.715   4.774   5.548
    1   AR   Ar   81   2.834   6.176   0.162
    1   AR   Ar   82   6.615   4.754   0.527
    1   AR   Ar   83   0.928   2.214   0.906
    1   AR   Ar   84   7.103   4.124   1.445
    1   AR   Ar   85   1.353   3.324   1.021
    1   AR   Ar   86   1.864   5.400   0.826
    1   AR   Ar   87   2.004   2.409   1.236
    1   AR   Ar   88   2.152   4.440   1.754
    1   AR   Ar   89   0.431   2.858   2.868
    1   AR   Ar   90   2.448   2.104   4.394
    1   AR   Ar   91   1.176   2.530   3.481
    1   AR   Ar   92   1.603   2.329   2.228
    1   AR   Ar   93   0.980   0.477   5.892
    1   AR   Ar   94   0.461   7.112  11.405
    1   AR   Ar   95   4.032   0.564   5.974
    1   AR   Ar   96   2.775   7.060   4.684
    1   AR   Ar   97   4.362   1.512  -0.438
    1   AR   Ar   98   1.715   4.731   2.846
    1   AR   Ar   99   6.622   1.507  -0.076
    1   AR   Ar  100   1.241   3.026  -0.711
    1   AR   Ar  101   3.423   4.760   1.532
    1   AR   Ar  102   3.435   2.018   2.849
    1   AR   Ar  103   0.897   4.924   1.472
    1   AR   Ar  104   2.830   3.685  -1.120
    1   AR   Ar  105   0.951   3.010   4.612
    1   AR   Ar  106   3.414   3.020   5.687
    1   AR   Ar  107   0.714   4.009   4.525
    1   AR   Ar  108   2.241   0.919   4.994
    1   AR   Ar  109   1.628   3.697   5.199
    1   AR   Ar  110   2.440   2.979   5.504
    1   AR   Ar  111   4.854   5.161   7.823
    1   AR   Ar  112   1.315   5.400   6.411
    1   AR   Ar  113   3.008   4.660   0.473
    1   AR   Ar  114   2.783   0.189  -0.897
    1   AR   Ar  115   2.440   4.529  -0.575
    1   AR   Ar  116   6.513   0.567  -0.828
    1   AR   Ar  117   0.713   5.033   4.277
    1   AR   Ar  118   1.247   5.595   3.246
    1   AR   Ar  119   1.953   3.708   2.608
    1   AR   Ar  120   1.737   6.477   1.895
    1   AR   Ar  121   5.765   4.025   5.163
    1   AR   Ar  122   2.828   6.012   5.640
    1   AR   Ar  123   3.356   3.915   5.098
    1   AR   Ar  124   1.390   5.461   2.306
    1   AR   Ar  125   6.793   3.821   5.210
    1   AR   Ar  126   7.012   6.788   4.806
    1   AR   Ar  127   4.393   3.785   6.131
    1   AR   Ar  128   3.473   4.810   6.721
    1   AR   Ar  129   2.290   5.856   3.607
    1   AR   Ar  130   4.277   2.489  -2.973
    1   AR   Ar  131   3.636   2.640  -0.678
    1   AR   Ar  132   0.225   2.405  -0.060
    1   AR   Ar  133   4.761   6.387   3.483
    1   AR   Ar  134   4.560   1.150   4.506
    1   AR   Ar  135   5.944   0.900   2.537
    1   AR   Ar  136   5.397   6.863   2.788
    1   AR   Ar  137   1.662   4.855   4.530
    1   AR   Ar  138   5.006   1.362   5.841
    1   AR   Ar  139   5.891   1.843   5.483
    1   AR   Ar  140   4.254   6.720   4.294
    1   AR   Ar  141   3.946   4.844   4.537
    1   AR   Ar  142   3.173   6.900   6.332
    1   AR   Ar  143   6.144   0.047   5.666
    1   AR   Ar  144   6.959   1.505   5.106
    1   AR   Ar  145   5.058   4.413  -0.480
    1   AR   Ar  146   2.694   2.522   2.306
    1   AR   Ar  147   4.365   2.362  -1.464
    1   AR   Ar  148   3.314   5.936  -1.084
    1   AR   Ar  149   2.719   2.262  -0.171
    1   AR   Ar  150   2.291   1.565   2.357
    1   AR   Ar  151   2.470   2.139   3.359
    1   AR   Ar  152   2.634   2.564  -1.094
    1   AR   Ar  153   5.223   0.243   4.080
    1   AR   Ar  154   3.531   1.758   4.013
    1   AR   Ar  155   6.315   5.229   5.692
    1   AR   Ar  156   3.495   3.309   3.336
    1   AR   Ar  157   1.184   4.052   6.352
    1   AR   Ar  158   0.406   1.978   6.799
    1   AR   Ar  159   4.306   1.704   7.219
    1   AR   Ar  160   1.245   2.026   5.221
    1   AR   Ar  161   5.239   4.063   1.747
    1   AR   Ar  162   4.546   5.939  -0.710
    1   AR   Ar  163   6.116   3.785  -0.196
    1   AR   Ar  164   2.623   5.305   2.339
    1   AR   Ar  165   4.196   2.154   0.604
    1   AR   Ar  166   3.125   3.071   4.565
    1   AR   Ar  167   4.836   0.789   2.602
    1   AR   Ar  168   5.393   3.735  -1.554
    1   AR   Ar  169   3.190   4.064   2.527
    1   AR   Ar  170   2.825   4.003   6.056
    1   AR   Ar  171   5.874   3.886   3.827
    1   AR   Ar  172   4.796   4.488   5.385
    1   AR   Ar  173   2.941   3.229   6.770
    1   AR   Ar  174   2.304   6.155   6.508
    1   AR   Ar  175   3.278   2.172   6.544
    1   AR   Ar  176   3.902   2.378   4.892
    1   AR   Ar  177   7.050   5.760  -1.245
    1   AR   Ar  178   3.958   4.824  -0.290
    1   AR   Ar  179   3.932   5.857   0.057
    1   AR   Ar  180   2.044   1.971  -3.291
    1   AR   Ar  181   0.160   5.482   1.027
    1   AR   Ar  182   2.307   7.049   2.825
    1   AR   Ar  183   3.844   5.082   2.571
    1   AR   Ar  184   4.973   5.978   0.748
    1   AR   Ar  185   2.755   5.054   4.816
    1   AR   Ar  186   3.114   4.982   3.308
    1   AR   Ar  187   3.380   6.399   3.309
    1   AR   Ar  188   3.077   6.914   1.978
    1   AR   Ar  189   4.247   2.581   6.263
    1   AR   Ar  190   3.128   5.793   4.157
    1   AR   Ar  191   2.771   6.371   7.770
    1   AR   Ar  192   3.819   6.048   5.099
    1   AR   Ar  193   3.455   5.871   1.735
    1   AR   Ar  194   4.182   4.163  -1.016
    1   AR   Ar  195   5.461   1.753   0.261
    1   AR   Ar  196   4.683   0.577   0.515
    1   AR   Ar  197   3.587   1.277   0.268
    1   AR   Ar  198   6.138   1.468   1.424
    1   AR   Ar  199   3.033   0.920   2.722
    1   AR   Ar  200   5.711   2.716  -0.267
    1   AR   Ar  201   5.701   6.368   4.029
    1   AR   Ar  202   6.055   0.914   4.911
    1   AR   Ar  203   6.515   6.626   3.093
    1   AR   Ar  204   4.698   6.534   5.307
    1   AR   Ar  205   6.860   6.807   1.836
    1   AR   Ar  206   5.095   0.478   5.331
    1   AR   Ar  207   0.543   1.416   5.882
    1   AR   Ar  208   0.539   6.503   3.751
    1   AR   Ar  209   0.098   2.799  -1.726
    1   AR   Ar  210   2.377   0.118   0.310
    1   AR   Ar  211   6.569   3.193   0.610
    1   AR   Ar  212   6.243   2.895  -1.156
    1   AR   Ar  213   2.963   0.788   1.528
    1   AR   Ar  214   4.546   3.292   2.311
    1   AR   Ar  215   5.868   2.549   1.045
    1   AR   Ar  216   0.420   3.001   1.723
    1   AR   Ar  217   5.200   3.094   4.321
    1   AR   Ar  218   4.267   3.415   5.018
    1   AR   Ar  219   4.293   2.788   3.961
    1   AR   Ar  220   3.956   3.727   1.549
    1   AR   Ar  221   6.605   5.832   4.504
    1   AR   Ar  222   5.432   0.381   6.375
    1   AR   Ar  223   5.991   1.212   6.314
    1   AR   Ar  224   4.899   2.462   5.257
    1   AR   Ar  225   6.258   2.936   3.077
    1   AR   Ar  226   2.167   3.549   3.987
    1   AR   Ar  227   6.291   3.319   1.756
    1   AR   Ar  228   5.776   6.910   1.590
    1   AR   Ar  229   5.502   5.634  -1.351
    1   AR   Ar  230   4.105   4.433   3.517
    1   AR   Ar  231   5.532   1.306   4.009
    1   AR   Ar  232   5.013   1.655   1.195
    1   AR   Ar  233   6.281   2.156   4.202
    1   AR   Ar  234   6.246   2.767   5.121
    1   AR   Ar  235   6.501   1.054   3.644
    1   AR   Ar  236   5.314   5.324   5.587
    1   AR   Ar  237   5.873   3.188   5.987
    1   AR   Ar  238   5.328   4.240   6.348
    1   AR   Ar  239   6.673   4.394   9.091
    1   AR   Ar  240   6.561   2.708   6.935
    1   AR   Ar  241   1.897   6.440  -0.176
    1   AR   Ar  242   5.535   5.095   0.376
    1   AR   Ar  243   4.872   4.741   2.545
    1   AR   Ar  244   0.174   5.348  -0.192
    1   AR   Ar  245   4.113   0.553   1.853
    1   AR   Ar  246   5.449   7.018  -0.219
    1   AR   Ar  247   6.028   4.160   1.104
    1   AR   Ar  248   5.875   5.868  -0.252
    1   AR   Ar  249   4.599   5.407   1.785
    1   AR   Ar  250   4.668   5.726   4.635
    1   AR   Ar  251   4.932   4.096   4.456
    1   AR   Ar  252   4.113   5.405   3.455
    1   AR   Ar  253   6.764   3.682   6.458
    1   AR   Ar  254   2.162   2.362   9.277
    1   AR   Ar  255   3.816   4.456   9.905
    1   AR   Ar  256   6.306   4.917   2.922
    7.12000  7.12000 12.00000
Argon-slab step 3575
  256
    1   AR   Ar    1   5.770   2.448  -2.123
    1   AR   Ar    2   6.121   0.683   0.645
    1   AR   Ar    3   3.368   1.306  -0.882
    1   AR   Ar    4   1.467   0.874  -0.288
    1   AR   Ar    5   6.765   6.517   0.758
    1   AR   Ar    6   7.064   1.000   2.491
    1   AR   Ar    7   5.972   3.936   2.579
    1   AR   Ar    8   5.254   0.736   1.345
    1   AR   Ar    9   1.183   6.939   2.957
    1   AR   Ar   10   0.387   0.790   4.116
    1   AR   Ar   11   1.706   6.708   4.468
    1   AR   Ar   12   0.576   1.336   3.273
    1   AR   Ar   13   0.061   0.595   5.375
    1   AR   Ar   14   6.140   1.836   7.432
    1   AR   Ar   15   5.337   6.584   7.848
    1   AR   Ar   16   0.800   6.549   5.173
    1   AR   Ar   17   6.808   2.085   0.838
    1   AR   Ar   18   6.437   4.965  -0.589
    1   AR   Ar   19   3.051   3.459   0.690
    1   AR   Ar   20   4.511   5.123  -2.351
    1   AR   Ar   21   3.078   2.016   1.315
    1   AR   Ar   22   6.466   1.981   3.003
    1   AR   Ar   23   0.554   0.552   0.437
    1   AR   Ar   24   6.635   2.407   2.125
    1   AR   Ar   25   0.565   1.740   4.440
    1   AR   Ar   26   6.386   0.059   4.068
    1   AR   Ar   27   1.707   0.840   2.739
    1   AR   Ar   28   0.142   2.557   5.001
    1   AR   Ar   29   5.515   2.980   7.059
    1   AR   Ar   30   1.552   1.292   3.876
    1   AR   Ar   31   3.223   0.559   6.949
    1   AR   Ar   32   1.371   2.586   6.480
    1   AR   Ar   33   0.637   4.623   0.503
    1   AR   Ar   34   0.208   5.138   2.306
    1   AR   Ar   35   5.992   5.963   1.216
    1   AR   Ar   36   5.878   1.186  -2.925
    1   AR   Ar   37   5.428   2.300   2.396
    1   AR   Ar   38   6.982   3.982   2.621
    1   AR   Ar   39   1.148   4.068   2.157
    1   AR   Ar   40   2.301   3.358   1.679
    1   AR   Ar   41   0.087   2.179   3.650
    1   AR   Ar   42   5.687   4.955   4.547
    1   AR   Ar   43   6.897   2.282   5.945
    1   AR   Ar   44   0.788   4.473   3.293
    1   AR   Ar   45   0.597   3.379   5.483
    1   AR   Ar   46   0.005   4.963   5.027
    1   AR   Ar   47   5.461   4.116   7.373
    1   AR   Ar   48   6.362   4.748   6.807
    1   AR   Ar   49   5.154   0.789  -1.204
    1   AR   Ar   50   4.243   4.661   0.734
    1   AR   Ar   51   6.435   4.953   1.767
    1   AR   Ar   52   6.199   3.190  -3.033
    1   AR   Ar   53   5.457   5.680   2.380
    1   AR   Ar   54   0.469   6.313   2.569
    1   AR   Ar   55   6.484   5.903   2.379
    1   AR   Ar   56   6.939   0.560   1.331
    1   AR   Ar   57   4.915   3.485   3.447
    1   AR   Ar   58   6.899   3.320   4.134
    1   AR   Ar   59   2.225   5.149   5.845
    1   AR   Ar   60   0.107   5.485   3.491
    1   AR   Ar   61   0.112   4.720   6.053
    1   AR   Ar   62   6.914   4.621   4.055
    1   AR   Ar   63   2.064   0.983   5.964
    1   AR   Ar   64   1.367   5.525   5.255
    1   AR   Ar   65   3.695   6.761   0.723
    1   AR   Ar   66   0.941   1.443   1.765
    1   AR   Ar   67   3.974   7.041  -0.304
    1   AR   Ar   68   1.948   1.873  -1.025
    1   AR   Ar   69   2.449   1.239   0.838
    1   AR   Ar   70   0.794   0.200   2.008
    1   AR   Ar   71   2.622   1.066   3.844
    1   AR   Ar   72   4.059   6.720   2.375
    1   AR   Ar   73   4.252   0.253   3.362
    1   AR   Ar   74   1.101   0.350   4.763
    1   AR   Ar   75   3.517   0.897   4.832
    1   AR   Ar   76   1.677   0.521   1.297
    1   AR   Ar   77   1.860   0.003   5.549
    1   AR   Ar   78   0.376   6.016   6.068
    1   AR   Ar   79   3.718   5.912   6.343
    1   AR   Ar   80   3.739   4.791   5.578
    1   AR   Ar   81   2.837   6.187   0.176
    1   AR   Ar   82   6.631   4.765   0.504
    1   AR   Ar   83   0.954   2.214   0.905
    1   AR   Ar   84   7.088   4.152   1.426
    1   AR   Ar   85   1.337   3.286   1.024
    1   AR   Ar   86   1.893   5.438   0.821
    1   AR   Ar   87   2.024   2.404   1.260
    1   AR   Ar   88   2.142   4.421   1.719
    1   AR   Ar   89   0.433   2.841   2.873
    1   AR   Ar   90   2.486   2.116   4.389
    1   AR   Ar   91   1.152   2.528   3.451
    1   AR   Ar   92   1.569   2.325   2.220
    1   AR   Ar   93   0.969   0.471   5.878
    1   AR   Ar   94   0.444   0.008  11.397
    1   AR   Ar   95   4.043   0.555   5.971
    1   AR   Ar   96   2.782   7.066   4.669
    1   AR   Ar   97   4.344   1.505  -0.431
    1   AR   Ar   98   1.724   4.740   2.866
    1   AR   Ar   99   6.601   1.480  -0.078
    1   AR   Ar  100   1.220   3.029  -0.715
    1   AR   Ar  101   3.406   4.763   1.546
    1   AR   Ar  102   3.413   1.994   2.842
    1   AR   Ar  103   0.924   4.934   1.474
    1   AR   Ar  104   2.828   3.713  -1.087
    1   AR   Ar  105   0.984   2.983   4.607
    1   AR   Ar  106   3.430   3.018   5.694
    1   AR   Ar  107   0.673   4.006   4.504
    1   AR   Ar  108   2.218   0.909   4.985
    1   AR   Ar  109   1.616   3.674   5.220
    1   AR   Ar  110   2.440   2.961   5.495
    1   AR   Ar  111   4.881   5.159   7.810
    1   AR   Ar  112   1.309   5.370   6.409
    1   AR   Ar  113   3.029   4.657   0.461
    1   AR   Ar  114   2.762   0.181  -0.898
    1   AR   Ar  115   2.444   4.534  -0.520
    1   AR   Ar  116   6.531   0.573  -0.834
    1   AR   Ar  117   0.738   5.024   4.300
    1   AR   Ar  118   1.235   5.601   3.238
    1   AR   Ar  119   1.970   3.737   2.594
    1   AR   Ar  120   1.729   6.476   1.911
    1   AR   Ar  121   5.774   4.042   5.158
    1   AR   Ar  122   2.881   6.006   5.643
    1   AR   Ar  123   3.323   3.905   5.086
    1   AR   Ar  124   1.360   5.459   2.285
    1   AR   Ar  125   6.794   3.818   5.179
    1   AR   Ar  126   6.991   6.765   4.836
    1   AR   Ar  127   4.387   3.765   6.111
    1   AR   Ar  128   3.471   4.755   6.716
    1   AR   Ar  129   2.272   5.854   3.589
    1   AR   Ar  130   4.281   2.516  -2.988
    1   AR   Ar  131   3.628   2.668  -0.694
    1   AR   Ar  132   0.254   2.403  -0.041
    1   AR   Ar  133   4.762   6.374   3.459
    1   AR   Ar  134   4.568   1.162   4.539
    1   AR   Ar  135   5.931   0.910   2.544
    1   AR   Ar  136   5.415   6.864   2.809
    1   AR   Ar  137   1.686   4.857   4.545
    1   AR   Ar  138   5.009   1.362   5.835
    1   AR   Ar  139   5.906   1.839   5.438
    1   AR   Ar  140   4.248   6.710   4.293
    1   AR   Ar  141   3.945   4.840   4.540
    1   AR   Ar  142   3.186   6.904   6.317
    1   AR   Ar  143   6.105   0.071   5.669
    1   AR   Ar  144   6.948   1.529   5.126
    1   AR   Ar  145   5.076   4.433  -0.456
    1   AR   Ar  146   2.710   2.526   2.288
    1   AR   Ar  147   4.353   2.388  -1.445
    1   AR   Ar  148   3.301   5.949  -1.057
    1   AR   Ar  149   2.713   2.247  -0.167
    1   AR   Ar  150   2.318   1.561   2.368
    1   AR   Ar  151   2.476   2.157   3.346
    1   AR   Ar  152   2.606   2.605  -1.113
    1   AR   Ar  153   5.195   0.246   4.126
    1   AR   Ar  154   3.545   1.774   3.999
    1   AR   Ar  155   6.293   5.206   5.694
    1   AR   Ar  156   3.491   3.320   3.355
    1   AR   Ar  157   1.172   4.072   6.316
    1   AR   Ar  158   0.429   1.979   6.816
    1   AR   Ar  159   4.310   1.705   7.230
    1   AR   Ar  160   1.223   2.010   5.222
    1   AR   Ar  161   5.245   4.062   1.790
    1   AR   Ar  162   4.581   5.961  -0.709
    1   AR   Ar  163   6.102   3.805  -0.204
    1   AR   Ar  164   2.602   5.314   2.333
    1   AR   Ar  165   4.189   2.150   0.603
    1   AR   Ar  166   3.104   3.066   4.536
    1   AR   Ar  167   4.872   0.813   2.609
    1   AR   Ar  168   5.377   3.747  -1.588
    1   AR   Ar  169   3.202   4.045   2.516
    1   AR   Ar  170   2.800   4.005   6.109
    1   AR   Ar  171   5.892   3.873   3.829
    1   AR   Ar  172   4.805   4.495   5.391
    1   AR   Ar  173   2.963   3.219   6.731
    1   AR   Ar  174   2.291   6.152   6.493
    1   AR   Ar  175   3.289   2.202   6.518
    1   AR   Ar  176   3.908   2.348   4.834
    1   AR   Ar  177   7.046   5.792  -1.239
    1   AR   Ar  178   3.917   4.821  -0.283
    1   AR   Ar  179   3.923   5.873   0.064
    1   AR   Ar  180   2.072   1.949  -3.302
    1   AR   Ar  181   0.162   5.469   1.001
    1   AR   Ar  182   2.336   7.044   2.830
    1   AR   Ar  183   3.848   5.085   2.539
    1   AR   Ar  184   4.958   5.996   0.731
    1   AR   Ar  185   2.729   5.035   4.844
    1   AR   Ar  186   3.138   4.985   3.303
    1   AR   Ar  187   3.391   6.364   3.291
    1   AR   Ar  188   3.112   6.933   1.977
    1   AR   Ar  189   4.264   2.569   6.256
    1   AR   Ar  190   3.158   5.832   4.178
    1   AR   Ar  191   2.775   6.342   7.758
    1   AR   Ar  192   3.798   6.052   5.093
    1   AR   Ar  193   3.465   5.873   1.730
    1   AR   Ar  194   4.195   4.163  -1.059
    1   AR   Ar  195   5.453   1.770   0.265
    1   AR   Ar  196   4.683   0.597   0.535
    1   AR   Ar  197   3.596   1.323   0.294
    1   AR   Ar  198   6.196   1.446   1.452
    1   AR   Ar  199   3.021   0.890   2.720
    1   AR   Ar  200   5.740   2.718  -0.251
    1   AR   Ar  201   5.703   6.339   4.019
    1   AR   Ar  202   6.020   0.858   4.911
    1   AR   Ar  203   6.532   6.649   3.081
    1   AR   Ar  204   4.713   6.535   5.314
    1   AR   Ar  205   6.833   6.795   1.828
    1   AR   Ar  206   5.115   0.492   5.322
    1   AR   Ar  207   0.563   1.420   5.893
    1   AR   Ar  208   0.572   6.465   3.754
    1   AR   Ar  209   0.113   2.829  -1.708
    1   AR   Ar  210   2.364   0.116   0.324
    1   AR   Ar  211   6.581   3.183   0.626
    1   AR   Ar  212   6.223   2.899  -1.131
    1   AR   Ar  213   3.006   0.779   1.510
    1   AR   Ar  214   4.572   3.271   2.279
    1   AR   Ar  215   5.834   2.515   1.070
    1   AR   Ar  216   0.444   2.972   1.731
    1   AR   Ar  217   5.178   3.107   4.313
    1   AR   Ar  218   4.262   3.426   5.056
    1   AR   Ar  219   4.309   2.760   3.927
    1   AR   Ar  220   3.928   3.724   1.549
    1   AR   Ar  221   6.623   5.820   4.463
    1   AR   Ar  222   5.400   0.387   6.389
    1   AR   Ar  223   5.971   1.181   6.343
    1   AR   Ar  224   4.878   2.453   5.254
    1   AR   Ar  225   6.263   2.941   3.065
    1   AR   Ar  226   2.169   3.561   4.014
    1   AR   Ar  227   6.317   3.328   1.748
    1   AR   Ar  228   5.760   6.901   1.596
    1   AR   Ar  229   5.552   5.644  -1.366
    1   AR   Ar  230   4.086   4.459   3.475
    1   AR   Ar  231   5.547   1.351   4.016
    1   AR   Ar  232   5.028   1.640   1.199
    1   AR   Ar  233   6.253   2.182   4.187
    1   AR   Ar  234   6.218   2.758   5.105
    1   AR   Ar  235   6.497   1.057   3.666
    1   AR   Ar  236   5.308   5.316   5.593
    1   AR   Ar  237   5.893   3.191   5.978
    1   AR   Ar  238   5.296   4.227   6.340
    1   AR   Ar  239   6.651   4.422   9.078
    1   AR   Ar  240   6.543   2.713   6.939
    1   AR   Ar  241   1.900   6.410  -0.188
    1   AR   Ar  242   5.518   5.111   0.348
    1   AR   Ar  243   4.911   4.736   2.568
    1   AR   Ar  244   0.168   5.355  -0.212
    1   AR   Ar  245   4.103   0.549   1.885
    1   AR   Ar  246   5.459   7.025  -0.198
    1   AR   Ar  247   6.035   4.141   1.099
    1   AR   Ar  248   5.866   5.856  -0.261
    1   AR   Ar  249   4.654   5.428   1.797
    1   AR   Ar  250   4.673   5.694   4.640
    1   AR   Ar  251   4.961   4.129   4.461
    1   AR   Ar  252   4.099   5.458   3.474
    1   AR   Ar  253   6.774   3.665   6.426
    1   AR   Ar  254   2.145   2.376   9.254
    1   AR   Ar  255   3.824   4.462   9.942
    1   AR   Ar  256   6.310   4.925   2.942
    7.12000  7.12000 12.00000
Argon-slab step 3580
  256
    1   AR   Ar    1   5.733   2.413  -2.139
    1   AR   Ar    2   6.116   0.678   0.635
    1   AR   Ar    3   3.380   1.326  -0.875
    1   AR   Ar    4   1.467   0.866  -0.246
    1   AR   Ar    5   6.766   6.508   0.727
    1   AR   Ar    6   7.068   0.971   2.498
    1   AR   Ar    7   5.970   3.920   2.591
    1   AR   Ar    8   5.231   0.733   1.360
    1   AR   Ar    9   1.164   6.953   2.966
    1   AR   Ar   10   0.389   0.807   4.126
    1   AR   Ar   11   1.704   6.722   4.476
    1   AR   Ar   12   0.613   1.331   3.292
    1   AR   Ar   13   0.067   0.596   5.375
    1   AR   Ar   14   6.136   1.841   7.439
    1   AR   Ar   15   5.332   6.594   7.853
    1   AR   Ar   16   0.795   6.562   5.160
    1   AR   Ar   17   6.817   2.090   0.865
    1   AR   Ar   18   6.459   4.956  -0.603
    1   AR   Ar   19   3.073   3.455   0.700
    1   AR   Ar   20   4.537   5.110  -2.370
    1   AR   Ar   21   3.035   2.039   1.306
    1   AR   Ar   22   6.457   1.967   3.016
    1   AR   Ar   23   0.566   0.539   0.428
    1   AR   Ar   24   6.642   2.410   2.120
    1   AR   Ar   25   0.544   1.716   4.430
    1   AR   Ar   26   6.397   0.085   4.084
    1   AR   Ar   27   1.688   0.852   2.734
    1   AR   Ar   28   0.174   2.553   4.985
    1   AR   Ar   29   5.530   2.997   7.058
    1   AR   Ar   30   1.547   1.297   3.853
    1   AR   Ar   31   3.216   0.581   6.971
    1   AR   Ar   32   1.381   2.579   6.454
    1   AR   Ar   33   0.611   4.634   0.498
    1   AR   Ar   34   0.203   5.126   2.302
    1   AR   Ar   35   5.990   5.938   1.211
    1   AR   Ar   36   5.875   1.220  -2.924
    1   AR   Ar   37   5.433   2.302   2.391
    1   AR   Ar   38   6.990   3.967   2.645
    1   AR   Ar   39   1.129   4.103   2.178
    1   AR   Ar   40   2.300   3.358   1.646
    1   AR   Ar   41   0.071   2.165   3.631
    1   AR   Ar   42   5.643   4.952   4.571
    1   AR   Ar   43   6.871   2.266   5.929
    1   AR   Ar   44   0.794   4.473   3.277
    1   AR   Ar   45   0.603   3.395   5.504
    1   AR   Ar   46   0.041   4.946   5.069
    1   AR   Ar   47   5.443   4.097   7.406
    1   AR   Ar   48   6.358   4.769   6.856
    1   AR   Ar   49   5.135   0.789  -1.193
    1   AR   Ar   50   4.259   4.692   0.742
    1   AR   Ar   51   6.421   4.976   1.758
    1   AR   Ar   52   6.196   3.189  -3.004
    1   AR   Ar   53   5.458   5.681   2.371
    1   AR   Ar   54   0.458   6.285   2.546
    1   AR   Ar   55   6.488   5.887   2.392
    1   AR   Ar   56   6.946   0.551   1.346
    1   AR   Ar   57   4.893   3.471   3.435
    1   AR   Ar   58   6.883   3.340   4.157
    1   AR   Ar   59   2.236   5.120   5.860
    1   AR   Ar   60   0.156   5.473   3.498
    1   AR   Ar   61   0.103   4.715   6.050
    1   AR   Ar   62   6.913   4.648   4.060
    1   AR   Ar   63   2.045   0.991   5.933
    1   AR   Ar   64   1.337   5.535   5.246
    1   AR   Ar   65   3.670   6.783   0.694
    1   AR   Ar   66   0.927   1.432   1.774
    1   AR   Ar   67   3.991   7.052  -0.301
    1   AR   Ar   68   1.973   1.901  -1.026
    1   AR   Ar   69   2.422   1.226   0.801
    1   AR   Ar   70   0.805   0.194   1.971
    1   AR   Ar   71   2.592   1.072   3.845
    1   AR   Ar   72   4.014   6.697   2.370
    1   AR   Ar   73   4.251   0.266   3.353
    1   AR   Ar   74   1.103   0.397   4.770
    1   AR   Ar   75   3.505   0.916   4.844
    1   AR   Ar   76   1.666   0.514   1.281
    1   AR   Ar   77   1.857   0.031   5.550
    1   AR   Ar   78   0.392   5.992   6.068
    1   AR   Ar   79   3.756   5.883   6.371
    1   AR   Ar   80   3.762   4.810   5.612
    1   AR   Ar   81   2.845   6.198   0.192
    1   AR   Ar   82   6.649   4.777   0.480
    1   AR   Ar   83   0.987   2.211   0.933
    1   AR   Ar   84   7.075   4.180   1.408
    1   AR   Ar   85   1.332   3.295   1.016
    1   AR   Ar   86   1.923   5.476   0.817
    1   AR   Ar   87   2.045   2.397   1.283
    1   AR   Ar   88   2.132   4.406   1.686
    1   AR   Ar   89   0.422   2.830   2.867
    1   AR   Ar   90   2.524   2.127   4.388
    1   AR   Ar   91   1.140   2.520   3.431
    1   AR   Ar   92   1.547   2.323   2.215
    1   AR   Ar   93   0.969   0.466   5.866
    1   AR   Ar   94   0.428   0.024  11.390
    1   AR   Ar   95   4.055   0.545   5.966
    1   AR   Ar   96   2.789   7.071   4.653
    1   AR   Ar   97   4.329   1.499  -0.425
    1   AR   Ar   98   1.741   4.742   2.890
    1   AR   Ar   99   6.580   1.453  -0.079
    1   AR   Ar  100   1.232   3.030  -0.735
    1   AR   Ar  101   3.389   4.764   1.560
    1   AR   Ar  102   3.394   1.967   2.838
    1   AR   Ar  103   0.954   4.942   1.478
    1   AR   Ar  104   2.827   3.739  -1.054
    1   AR   Ar  105   1.024   2.954   4.594
    1   AR   Ar  106   3.454   3.015   5.702
    1   AR   Ar  107   0.631   4.001   4.484
    1   AR   Ar  108   2.196   0.898   4.964
    1   AR   Ar  109   1.605   3.653   5.240
    1   AR   Ar  110   2.434   2.944   5.484
    1   AR   Ar  111   4.909   5.157   7.796
    1   AR   Ar  112   1.302   5.341   6.406
    1   AR   Ar  113   3.012   4.642   0.446
    1   AR   Ar  114   2.741   0.172  -0.897
    1   AR   Ar  115   2.449   4.541  -0.463
    1   AR   Ar  116   6.548   0.579  -0.839
    1   AR   Ar  117   0.760   5.025   4.317
    1   AR   Ar  118   1.217   5.612   3.246
    1   AR   Ar  119   2.013   3.720   2.611
    1   AR   Ar  120   1.721   6.477   1.928
    1   AR   Ar  121   5.782   4.059   5.155
    1   AR   Ar  122   2.942   5.994   5.634
    1   AR   Ar  123   3.293   3.893   5.081
    1   AR   Ar  124   1.329   5.463   2.245
    1   AR   Ar  125   6.798   3.814   5.148
    1   AR   Ar  126   6.964   6.743   4.865
    1   AR   Ar  127   4.376   3.742   6.089
    1   AR   Ar  128   3.469   4.701   6.709
    1   AR   Ar  129   2.252   5.852   3.570
    1   AR   Ar  130   4.285   2.544  -3.003
    1   AR   Ar  131   3.619   2.696  -0.708
    1   AR   Ar  132   0.283   2.402  -0.022
    1   AR   Ar  133   4.761   6.357   3.433
    1   AR   Ar  134   4.577   1.174   4.573
    1   AR   Ar  135   5.921   0.920   2.551
    1   AR   Ar  136   5.435   6.868   2.827
    1   AR   Ar  137   1.718   4.857   4.551
    1   AR   Ar  138   5.009   1.367   5.832
    1   AR   Ar  139   5.920   1.833   5.394
    1   AR   Ar  140   4.240   6.701   4.296
    1   AR   Ar  141   3.920   4.826   4.539
    1   AR   Ar  142   3.199   6.900   6.295
    1   AR   Ar  143   6.070   0.095   5.668
    1   AR   Ar  144   6.929   1.561   5.144
    1   AR   Ar  145   5.095   4.453  -0.432
    1   AR   Ar  146   2.725   2.536   2.268
    1   AR   Ar  147   4.343   2.414  -1.425
    1   AR   Ar  148   3.290   5.962  -1.028
    1   AR   Ar  149   2.714   2.233  -0.157
    1   AR   Ar  150   2.346   1.560   2.374
    1   AR   Ar  151   2.481   2.174   3.330
    1   AR   Ar  152   2.584   2.658  -1.140
    1   AR   Ar  153   5.166   0.249   4.173
    1   AR   Ar  154   3.558   1.789   3.984
    1   AR   Ar  155   6.279   5.181   5.697
    1   AR   Ar  156   3.487   3.330   3.375
    1   AR   Ar  157   1.160   4.092   6.278
    1   AR   Ar  158   0.452   1.982   6.833
    1   AR   Ar  159   4.314   1.706   7.239
    1   AR   Ar  160   1.203   1.997   5.224
    1   AR   Ar  161   5.247   4.060   1.833
    1   AR   Ar  162   4.621   5.983  -0.712
    1   AR   Ar  163   6.088   3.826  -0.211
    1   AR   Ar  164   2.580   5.322   2.327
    1   AR   Ar  165   4.184   2.148   0.601
    1   AR   Ar  166   3.082   3.056   4.505
    1   AR   Ar  167   4.894   0.815   2.609
    1   AR   Ar  168   5.361   3.758  -1.620
    1   AR   Ar  169   3.214   4.028   2.504
    1   AR   Ar  170   2.775   4.012   6.155
    1   AR   Ar  171   5.913   3.860   3.832
    1   AR   Ar  172   4.804   4.497   5.395
    1   AR   Ar  173   2.986   3.205   6.694
    1   AR   Ar  174   2.276   6.148   6.480
    1   AR   Ar  175   3.283   2.221   6.487
    1   AR   Ar  176   3.912   2.318   4.780
    1   AR   Ar  177   7.040   5.823  -1.231
    1   AR   Ar  178   3.897   4.845  -0.272
    1   AR   Ar  179   3.909   5.889   0.076
    1   AR   Ar  180   2.101   1.927  -3.314
    1   AR   Ar  181   0.178   5.497   0.991
    1   AR   Ar  182   2.365   7.039   2.835
    1   AR   Ar  183   3.851   5.088   2.500
    1   AR   Ar  184   4.942   6.015   0.714
    1   AR   Ar  185   2.706   5.017   4.873
    1   AR   Ar  186   3.189   4.966   3.303
    1   AR   Ar  187   3.403   6.331   3.270
    1   AR   Ar  188   3.144   6.952   1.975
    1   AR   Ar  189   4.285   2.557   6.249
    1   AR   Ar  190   3.190   5.870   4.203
    1   AR   Ar  191   2.781   6.310   7.748
    1   AR   Ar  192   3.773   6.055   5.088
    1   AR   Ar  193   3.438   5.857   1.692
    1   AR   Ar  194   4.208   4.160  -1.106
    1   AR   Ar  195   5.446   1.764   0.253
    1   AR   Ar  196   4.677   0.617   0.547
    1   AR   Ar  197   3.601   1.367   0.321
    1   AR   Ar  198   6.252   1.423   1.482
    1   AR   Ar  199   3.011   0.856   2.720
    1   AR   Ar  200   5.767   2.720  -0.228
    1   AR   Ar  201   5.705   6.310   4.010
    1   AR   Ar  202   5.988   0.804   4.908
    1   AR   Ar  203   6.549   6.676   3.072
    1   AR   Ar  204   4.721   6.564   5.308
    1   AR   Ar  205   6.796   6.777   1.822
    1   AR   Ar  206   5.107   0.503   5.326
    1   AR   Ar  207   0.583   1.429   5.904
    1   AR   Ar  208   0.604   6.428   3.758
    1   AR   Ar  209   0.132   2.819  -1.698
    1   AR   Ar  210   2.352   0.117   0.339
    1   AR   Ar  211   6.593   3.180   0.639
    1   AR   Ar  212   6.205   2.904  -1.112
    1   AR   Ar  213   3.055   0.766   1.502
    1   AR   Ar  214   4.601   3.250   2.248
    1   AR   Ar  215   5.798   2.480   1.096
    1   AR   Ar  216   0.467   2.944   1.739
    1   AR   Ar  217   5.156   3.136   4.328
    1   AR   Ar  218   4.261   3.434   5.093
    1   AR   Ar  219   4.317   2.729   3.891
    1   AR   Ar  220   3.898   3.723   1.548
    1   AR   Ar  221   6.640   5.806   4.421
    1   AR   Ar  222   5.357   0.384   6.406
    1   AR   Ar  223   5.961   1.162   6.370
    1   AR   Ar  224   4.861   2.444   5.251
    1   AR   Ar  225   6.266   2.958   3.054
    1   AR   Ar  226   2.171   3.573   4.041
    1   AR   Ar  227   6.343   3.339   1.739
    1   AR   Ar  228   5.744   6.897   1.605
    1   AR   Ar  229   5.602   5.653  -1.379
    1   AR   Ar  230   4.068   4.473   3.434
    1   AR   Ar  231   5.560   1.395   4.023
    1   AR   Ar  232   5.036   1.648   1.204
    1   AR   Ar  233   6.226   2.209   4.172
    1   AR   Ar  234   6.221   2.783   5.072
    1   AR   Ar  235   6.497   1.062   3.685
    1   AR   Ar  236   5.298   5.318   5.600
    1   AR   Ar  237   5.910   3.196   5.972
    1   AR   Ar  238   5.268   4.215   6.329
    1   AR   Ar  239   6.629   4.451   9.066
    1   AR   Ar  240   6.521   2.713   6.952
    1   AR   Ar  241   1.895   6.387  -0.203
    1   AR   Ar  242   5.501   5.122   0.323
    1   AR   Ar  243   4.951   4.729   2.595
    1   AR   Ar  244   0.169   5.365  -0.227
    1   AR   Ar  245   4.091   0.547   1.915
    1   AR   Ar  246   5.468   7.033  -0.176
    1   AR   Ar  247   6.041   4.121   1.091
    1   AR   Ar  248   5.859   5.850  -0.274
    1   AR   Ar  249   4.677   5.456   1.792
    1   AR   Ar  250   4.683   5.659   4.641
    1   AR   Ar  251   4.987   4.161   4.458
    1   AR   Ar  252   4.088   5.524   3.500
    1   AR   Ar  253   6.785   3.651   6.392
    1   AR   Ar  254   2.129   2.390   9.231
    1   AR   Ar  255   3.833   4.467   9.979
    1   AR   Ar  256   6.316   4.935   2.961
    7.12000  7.12000 12.00000
Argon-slab step 3585
  256
    1   AR   Ar    1   5.696   2.379  -2.155
    1   AR   Ar    2   6.102   0.666   0.627
    1   AR   Ar    3   3.372   1.340  -0.867
    1   AR   Ar    4   1.468   0.857  -0.202
    1   AR   Ar    5   6.768   6.501   0.695
    1   AR   Ar    6   7.071   0.941   2.504
    1   AR   Ar    7   5.963   3.906   2.606
    1   AR   Ar    8   5.220   0.710   1.389
    1   AR   Ar    9   1.150   6.968   2.975
    1   AR   Ar   10   0.384   0.808   4.136
    1   AR   Ar   11   1.704   6.733   4.483
    1   AR   Ar   12   0.652   1.329   3.305
    1   AR   Ar   13   0.071   0.592   5.373
    1   AR   Ar   14   6.131   1.844   7.446
    1   AR   Ar   15   5.327   6.603   7.857
    1   AR   Ar   16   0.797   6.572   5.149
    1   AR   Ar   17   6.818   2.100   0.883
    1   AR   Ar   18   6.471   4.942  -0.620
    1   AR   Ar   19   3.095   3.451   0.711
    1   AR   Ar   20   4.562   5.097  -2.387
    1   AR   Ar   21   2.996   2.059   1.296
    1   AR   Ar   22   6.438   1.938   3.026
    1   AR   Ar   23   0.579   0.526   0.419
    1   AR   Ar   24   6.645   2.406   2.115
    1   AR   Ar   25   0.531   1.704   4.423
    1   AR   Ar   26   6.406   0.110   4.099
    1   AR   Ar   27   1.666   0.861   2.732
    1   AR   Ar   28   0.199   2.546   4.969
    1   AR   Ar   29   5.540   3.015   7.056
    1   AR   Ar   30   1.541   1.303   3.832
    1   AR   Ar   31   3.209   0.607   6.996
    1   AR   Ar   32   1.375   2.569   6.455
    1   AR   Ar   33   0.587   4.643   0.492
    1   AR   Ar   34   0.189   5.116   2.298
    1   AR   Ar   35   5.988   5.909   1.207
    1   AR   Ar   36   5.871   1.255  -2.922
    1   AR   Ar   37   5.440   2.305   2.386
    1   AR   Ar   38   6.999   3.956   2.673
    1   AR   Ar   39   1.103   4.122   2.174
    1   AR   Ar   40   2.291   3.364   1.676
    1   AR   Ar   41   0.061   2.159   3.620
    1   AR   Ar   42   5.604   4.955   4.595
    1   AR   Ar   43   6.843   2.252   5.917
    1   AR   Ar   44   0.796   4.478   3.262
    1   AR   Ar   45   0.608   3.412   5.527
    1   AR   Ar   46   0.064   4.932   5.087
    1   AR   Ar   47   5.424   4.079   7.439
    1   AR   Ar   48   6.359   4.785   6.863
    1   AR   Ar   49   5.116   0.789  -1.180
    1   AR   Ar   50   4.275   4.723   0.752
    1   AR   Ar   51   6.404   5.000   1.747
    1   AR   Ar   52   6.192   3.187  -2.974
    1   AR   Ar   53   5.465   5.685   2.367
    1   AR   Ar   54   0.445   6.253   2.522
    1   AR   Ar   55   6.494   5.868   2.403
    1   AR   Ar   56   6.919   0.538   1.354
    1   AR   Ar   57   4.869   3.464   3.410
    1   AR   Ar   58   6.867   3.358   4.179
    1   AR   Ar   59   2.247   5.090   5.876
    1   AR   Ar   60   0.204   5.462   3.501
    1   AR   Ar   61   0.080   4.697   6.060
    1   AR   Ar   62   6.907   4.671   4.065
    1   AR   Ar   63   2.024   1.004   5.915
    1   AR   Ar   64   1.305   5.549   5.241
    1   AR   Ar   65   3.644   6.805   0.668
    1   AR   Ar   66   0.915   1.421   1.784
    1   AR   Ar   67   4.007   7.046  -0.304
    1   AR   Ar   68   1.989   1.918  -1.024
    1   AR   Ar   69   2.392   1.216   0.760
    1   AR   Ar   70   0.816   0.189   1.933
    1   AR   Ar   71   2.564   1.079   3.846
    1   AR   Ar   72   4.038   6.728   2.374
    1   AR   Ar   73   4.250   0.278   3.344
    1   AR   Ar   74   1.105   0.448   4.780
    1   AR   Ar   75   3.493   0.936   4.855
    1   AR   Ar   76   1.654   0.508   1.265
    1   AR   Ar   77   1.857   0.052   5.549
    1   AR   Ar   78   0.408   5.965   6.067
    1   AR   Ar   79   3.794   5.853   6.398
    1   AR   Ar   80   3.783   4.830   5.646
    1   AR   Ar   81   2.857   6.208   0.209
    1   AR   Ar   82   6.664   4.788   0.456
    1   AR   Ar   83   1.019   2.208   0.962
    1   AR   Ar   84   7.065   4.207   1.391
    1   AR   Ar   85   1.327   3.303   1.010
    1   AR   Ar   86   1.952   5.514   0.813
    1   AR   Ar   87   2.064   2.389   1.303
    1   AR   Ar   88   2.122   4.395   1.653
    1   AR   Ar   89   0.397   2.825   2.849
    1   AR   Ar   90   2.562   2.136   4.389
    1   AR   Ar   91   1.141   2.505   3.421
    1   AR   Ar   92   1.580   2.320   2.216
    1   AR   Ar   93   0.975   0.462   5.858
    1   AR   Ar   94   0.412   0.041  11.382
    1   AR   Ar   95   4.069   0.535   5.960
    1   AR   Ar   96   2.796   7.077   4.639
    1   AR   Ar   97   4.331   1.507  -0.406
    1   AR   Ar   98   1.763   4.742   2.914
    1   AR   Ar   99   6.566   1.461  -0.085
    1   AR   Ar  100   1.266   3.031  -0.767
    1   AR   Ar  101   3.370   4.764   1.573
    1   AR   Ar  102   3.379   1.937   2.834
    1   AR   Ar  103   0.983   4.943   1.477
    1   AR   Ar  104   2.825   3.766  -1.016
    1   AR   Ar  105   1.069   2.925   4.576
    1   AR   Ar  106   3.481   3.013   5.710
    1   AR   Ar  107   0.587   3.992   4.466
    1   AR   Ar  108   2.176   0.887   4.928
    1   AR   Ar  109   1.595   3.633   5.259
    1   AR   Ar  110   2.426   2.926   5.472
    1   AR   Ar  111   4.937   5.154   7.782
    1   AR   Ar  112   1.295   5.311   6.401
    1   AR   Ar  113   2.997   4.627   0.434
    1   AR   Ar  114   2.721   0.163  -0.893
    1   AR   Ar  115   2.452   4.550  -0.406
    1   AR   Ar  116   6.564   0.586  -0.842
    1   AR   Ar  117   0.778   5.032   4.328
    1   AR   Ar  118   1.196   5.625   3.261
    1   AR   Ar  119   2.058   3.702   2.631
    1   AR   Ar  120   1.712   6.479   1.947
    1   AR   Ar  121   5.789   4.074   5.155
    1   AR   Ar  122   2.995   5.980   5.628
    1   AR   Ar  123   3.278   3.856   5.098
    1   AR   Ar  124   1.301   5.473   2.204
    1   AR   Ar  125   6.797   3.822   5.133
    1   AR   Ar  126   6.932   6.724   4.893
    1   AR   Ar  127   4.363   3.722   6.078
    1   AR   Ar  128   3.467   4.647   6.700
    1   AR   Ar  129   2.233   5.849   3.549
    1   AR   Ar  130   4.295   2.561  -3.018
    1   AR   Ar  131   3.608   2.724  -0.719
    1   AR   Ar  132   0.311   2.401  -0.003
    1   AR   Ar  133   4.759   6.339   3.407
    1   AR   Ar  134   4.587   1.187   4.607
    1   AR   Ar  135   5.915   0.932   2.557
    1   AR   Ar  136   5.459   6.874   2.843
    1   AR   Ar  137   1.745   4.868   4.527
    1   AR   Ar  138   5.008   1.379   5.832
    1   AR   Ar  139   5.930   1.827   5.354
    1   AR   Ar  140   4.230   6.692   4.300
    1   AR   Ar  141   3.896   4.813   4.536
    1   AR   Ar  142   3.212   6.892   6.269
    1   AR   Ar  143   6.038   0.116   5.669
    1   AR   Ar  144   6.904   1.593   5.159
    1   AR   Ar  145   5.113   4.472  -0.408
    1   AR   Ar  146   2.737   2.551   2.246
    1   AR   Ar  147   4.335   2.438  -1.408
    1   AR   Ar  148   3.279   5.976  -0.996
    1   AR   Ar  149   2.744   2.201  -0.134
    1   AR   Ar  150   2.374   1.563   2.376
    1   AR   Ar  151   2.483   2.191   3.312
    1   AR   Ar  152   2.570   2.721  -1.170
    1   AR   Ar  153   5.138   0.252   4.221
    1   AR   Ar  154   3.568   1.801   3.964
    1   AR   Ar  155   6.275   5.153   5.700
    1   AR   Ar  156   3.483   3.340   3.395
    1   AR   Ar  157   1.147   4.112   6.238
    1   AR   Ar  158   0.473   1.987   6.849
    1   AR   Ar  159   4.318   1.708   7.246
    1   AR   Ar  160   1.183   1.985   5.227
    1   AR   Ar  161   5.248   4.057   1.872
    1   AR   Ar  162   4.616   5.971  -0.718
    1   AR   Ar  163   6.074   3.848  -0.217
    1   AR   Ar  164   2.560   5.329   2.321
    1   AR   Ar  165   4.183   2.149   0.602
    1   AR   Ar  166   3.061   3.043   4.471
    1   AR   Ar  167   4.904   0.799   2.604
    1   AR   Ar  168   5.345   3.769  -1.650
    1   AR   Ar  169   3.225   4.013   2.492
    1   AR   Ar  170   2.748   4.028   6.192
    1   AR   Ar  171   5.933   3.848   3.834
    1   AR   Ar  172   4.794   4.491   5.399
    1   AR   Ar  173   3.011   3.186   6.662
    1   AR   Ar  174   2.260   6.145   6.467
    1   AR   Ar  175   3.277   2.236   6.455
    1   AR   Ar  176   3.915   2.292   4.733
    1   AR   Ar  177   7.032   5.854  -1.222
    1   AR   Ar  178   3.877   4.870  -0.261
    1   AR   Ar  179   3.894   5.905   0.090
    1   AR   Ar  180   2.129   1.905  -3.326
    1   AR   Ar  181   0.191   5.528   0.983
    1   AR   Ar  182   2.394   7.032   2.839
    1   AR   Ar  183   3.856   5.091   2.457
    1   AR   Ar  184   4.926   6.033   0.697
    1   AR   Ar  185   2.688   4.999   4.903
    1   AR   Ar  186   3.228   4.952   3.304
    1   AR   Ar  187   3.415   6.300   3.245
    1   AR   Ar  188   3.167   6.971   1.972
    1   AR   Ar  189   4.307   2.546   6.241
    1   AR   Ar  190   3.223   5.905   4.228
    1   AR   Ar  191   2.787   6.278   7.736
    1   AR   Ar  192   3.756   6.058   5.079
    1   AR   Ar  193   3.412   5.842   1.655
    1   AR   Ar  194   4.222   4.157  -1.153
    1   AR   Ar  195   5.440   1.757   0.238
    1   AR   Ar  196   4.664   0.637   0.549
    1   AR   Ar  197   3.630   1.391   0.323
    1   AR   Ar  198   6.301   1.403   1.513
    1   AR   Ar  199   3.004   0.818   2.720
    1   AR   Ar  200   5.791   2.720  -0.196
    1   AR   Ar  201   5.707   6.282   4.000
    1   AR   Ar  202   5.962   0.755   4.898
    1   AR   Ar  203   6.567   6.705   3.066
    1   AR   Ar  204   4.717   6.577   5.299
    1   AR   Ar  205   6.761   6.754   1.820
    1   AR   Ar  206   5.092   0.506   5.328
    1   AR   Ar  207   0.601   1.443   5.915
    1   AR   Ar  208   0.636   6.391   3.763
    1   AR   Ar  209   0.152   2.783  -1.694
    1   AR   Ar  210   2.340   0.119   0.355
    1   AR   Ar  211   6.597   3.204   0.635
    1   AR   Ar  212   6.191   2.911  -1.101
    1   AR   Ar  213   3.094   0.756   1.494
    1   AR   Ar  214   4.631   3.228   2.220
    1   AR   Ar  215   5.764   2.445   1.123
    1   AR   Ar  216   0.490   2.916   1.747
    1   AR   Ar  217   5.143   3.159   4.357
    1   AR   Ar  218   4.263   3.441   5.124
    1   AR   Ar  219   4.318   2.694   3.854
    1   AR   Ar  220   3.866   3.724   1.546
    1   AR   Ar  221   6.658   5.790   4.378
    1   AR   Ar  222   5.304   0.373   6.424
    1   AR   Ar  223   5.959   1.153   6.395
    1   AR   Ar  224   4.846   2.435   5.250
    1   AR   Ar  225   6.269   2.983   3.043
    1   AR   Ar  226   2.173   3.584   4.070
    1   AR   Ar  227   6.370   3.350   1.731
    1   AR   Ar  228   5.727   6.894   1.616
    1   AR   Ar  229   5.651   5.662  -1.391
    1   AR   Ar  230   4.058   4.479   3.392
    1   AR   Ar  231   5.568   1.438   4.031
    1   AR   Ar  232   5.038   1.678   1.208
    1   AR   Ar  233   6.201   2.235   4.156
    1   AR   Ar  234   6.234   2.820   5.033
    1   AR   Ar  235   6.502   1.069   3.703
    1   AR   Ar  236   5.309   5.321   5.621
    1   AR   Ar  237   5.925   3.202   5.970
    1   AR   Ar  238   5.246   4.205   6.317
    1   AR   Ar  239   6.628   4.453   9.071
    1   AR   Ar  240   6.505   2.714   6.962
    1   AR   Ar  241   1.880   6.392  -0.222
    1   AR   Ar  242   5.482   5.127   0.305
    1   AR   Ar  243   4.989   4.722   2.626
    1   AR   Ar  244   0.176   5.380  -0.238
    1   AR   Ar  245   4.079   0.546   1.943
    1   AR   Ar  246   5.477   7.040  -0.153
    1   AR   Ar  247   6.046   4.102   1.081
    1   AR   Ar  248   5.853   5.849  -0.291
    1   AR   Ar  249   4.673   5.488   1.773
    1   AR   Ar  250   4.694   5.623   4.641
    1   AR   Ar  251   5.008   4.191   4.445
    1   AR   Ar  252   4.078   5.592   3.529
    1   AR   Ar  253   6.797   3.638   6.356
    1   AR   Ar  254   2.112   2.405   9.208
    1   AR   Ar  255   3.841   4.473  10.016
    1   AR   Ar  256   6.323   4.943   2.980
    7.12000  7.12000 12.00000
Argon-slab step 3590
  256
    1   AR   Ar    1   5.660   2.346  -2.170
    1   AR   Ar    2   6.075   0.644   0.626
    1   AR   Ar    3   3.337   1.345  -0.860
    1   AR   Ar    4   1.470   0.849  -0.158
    1   AR   Ar    5   6.770   6.495   0.664
    1   AR   Ar    6   7.078   0.934   2.502
    1   AR   Ar    7   5.952   3.893   2.623
    1   AR   Ar    8   5.212   0.662   1.413
    1   AR   Ar    9   1.137   6.984   2.983
    1   AR   Ar   10   0.370   0.786   4.143
    1   AR   Ar   11   1.705   6.742   4.490
    1   AR   Ar   12   0.691   1.330   3.308
    1   AR   Ar   13   0.070   0.585   5.366
    1   AR   Ar   14   6.126   1.845   7.452
    1   AR   Ar   15   5.322   6.612   7.861
    1   AR   Ar   16   0.805   6.582   5.141
    1   AR   Ar   17   6.784   2.122   0.861
    1   AR   Ar   18   6.476   4.926  -0.641
    1   AR   Ar   19   3.116   3.448   0.723
    1   AR   Ar   20   4.588   5.084  -2.404
    1   AR   Ar   21   2.998   2.092   1.279
    1   AR   Ar   22   6.408   1.901   3.031
    1   AR   Ar   23   0.590   0.514   0.412
    1   AR   Ar   24   6.650   2.401   2.106
    1   AR   Ar   25   0.526   1.707   4.420
    1   AR   Ar   26   6.413   0.131   4.114
    1   AR   Ar   27   1.641   0.868   2.731
    1   AR   Ar   28   0.213   2.529   4.961
    1   AR   Ar   29   5.546   3.035   7.053
    1   AR   Ar   30   1.534   1.310   3.814
    1   AR   Ar   31   3.203   0.633   7.020
    1   AR   Ar   32   1.369   2.559   6.453
    1   AR   Ar   33   0.565   4.650   0.487
    1   AR   Ar   34   0.178   5.106   2.297
    1   AR   Ar   35   5.985   5.878   1.204
    1   AR   Ar   36   5.867   1.290  -2.920
    1   AR   Ar   37   5.449   2.308   2.380
    1   AR   Ar   38   7.004   3.950   2.706
    1   AR   Ar   39   1.073   4.130   2.156
    1   AR   Ar   40   2.276   3.359   1.719
    1   AR   Ar   41   0.058   2.158   3.616
    1   AR   Ar   42   5.573   4.971   4.620
    1   AR   Ar   43   6.814   2.245   5.912
    1   AR   Ar   44   0.797   4.494   3.249
    1   AR   Ar   45   0.610   3.427   5.552
    1   AR   Ar   46   0.067   4.924   5.069
    1   AR   Ar   47   5.407   4.061   7.470
    1   AR   Ar   48   6.362   4.795   6.842
    1   AR   Ar   49   5.098   0.789  -1.165
    1   AR   Ar   50   4.291   4.755   0.764
    1   AR   Ar   51   6.384   5.022   1.735
    1   AR   Ar   52   6.187   3.184  -2.942
    1   AR   Ar   53   5.476   5.691   2.367
    1   AR   Ar   54   0.432   6.220   2.500
    1   AR   Ar   55   6.504   5.849   2.413
    1   AR   Ar   56   6.886   0.526   1.357
    1   AR   Ar   57   4.847   3.464   3.379
    1   AR   Ar   58   6.850   3.372   4.200
    1   AR   Ar   59   2.258   5.060   5.893
    1   AR   Ar   60   0.246   5.449   3.500
    1   AR   Ar   61   0.058   4.676   6.079
    1   AR   Ar   62   6.898   4.691   4.069
    1   AR   Ar   63   2.002   1.021   5.906
    1   AR   Ar   64   1.272   5.563   5.237
    1   AR   Ar   65   3.618   6.828   0.646
    1   AR   Ar   66   0.900   1.419   1.799
    1   AR   Ar   67   4.020   7.017  -0.318
    1   AR   Ar   68   2.000   1.929  -1.019
    1   AR   Ar   69   2.363   1.206   0.719
    1   AR   Ar   70   0.822   0.193   1.923
    1   AR   Ar   71   2.541   1.086   3.846
    1   AR   Ar   72   4.066   6.747   2.383
    1   AR   Ar   73   4.249   0.288   3.336
    1   AR   Ar   74   1.110   0.501   4.792
    1   AR   Ar   75   3.484   0.945   4.867
    1   AR   Ar   76   1.643   0.502   1.250
    1   AR   Ar   77   1.862   0.064   5.542
    1   AR   Ar   78   0.435   5.942   6.061
    1   AR   Ar   79   3.831   5.823   6.424
    1   AR   Ar   80   3.802   4.850   5.681
    1   AR   Ar   81   2.868   6.217   0.226
    1   AR   Ar   82   6.660   4.781   0.469
    1   AR   Ar   83   1.049   2.206   0.993
    1   AR   Ar   84   7.058   4.235   1.375
    1   AR   Ar   85   1.322   3.310   1.006
    1   AR   Ar   86   1.983   5.551   0.810
    1   AR   Ar   87   2.074   2.382   1.319
    1   AR   Ar   88   2.111   4.389   1.623
    1   AR   Ar   89   0.362   2.826   2.823
    1   AR   Ar   90   2.598   2.140   4.392
    1   AR   Ar   91   1.151   2.484   3.419
    1   AR   Ar   92   1.610   2.318   2.222
    1   AR   Ar   93   0.981   0.456   5.853
    1   AR   Ar   94   0.395   0.057  11.374
    1   AR   Ar   95   4.083   0.526   5.954
    1   AR   Ar   96   2.794   7.081   4.627
    1   AR   Ar   97   4.344   1.520  -0.388
    1   AR   Ar   98   1.788   4.743   2.937
    1   AR   Ar   99   6.561   1.489  -0.098
    1   AR   Ar  100   1.300   3.031  -0.798
    1   AR   Ar  101   3.349   4.761   1.584
    1   AR   Ar  102   3.367   1.904   2.831
    1   AR   Ar  103   1.005   4.933   1.460
    1   AR   Ar  104   2.821   3.774  -1.001
    1   AR   Ar  105   1.119   2.897   4.556
    1   AR   Ar  106   3.509   3.009   5.717
    1   AR   Ar  107   0.545   3.983   4.449
    1   AR   Ar  108   2.157   0.875   4.881
    1   AR   Ar  109   1.589   3.616   5.277
    1   AR   Ar  110   2.417   2.909   5.459
    1   AR   Ar  111   4.966   5.150   7.767
    1   AR   Ar  112   1.286   5.281   6.395
    1   AR   Ar  113   2.988   4.614   0.432
    1   AR   Ar  114   2.701   0.154  -0.887
    1   AR   Ar  115   2.449   4.560  -0.355
    1   AR   Ar  116   6.579   0.593  -0.844
    1   AR   Ar  117   0.792   5.044   4.335
    1   AR   Ar  118   1.180   5.638   3.276
    1   AR   Ar  119   2.104   3.684   2.655
    1   AR   Ar  120   1.703   6.482   1.967
    1   AR   Ar  121   5.794   4.086   5.159
    1   AR   Ar  122   2.993   5.976   5.642
    1   AR   Ar  123   3.263   3.826   5.117
    1   AR   Ar  124   1.280   5.493   2.177
    1   AR   Ar  125   6.796   3.837   5.130
    1   AR   Ar  126   6.896   6.706   4.921
    1   AR   Ar  127   4.355   3.718   6.107
    1   AR   Ar  128   3.466   4.594   6.691
    1   AR   Ar  129   2.252   5.868   3.547
    1   AR   Ar  130   4.325   2.537  -3.033
    1   AR   Ar  131   3.593   2.752  -0.727
    1   AR   Ar  132   0.340   2.400   0.017
    1   AR   Ar  133   4.759   6.325   3.381
    1   AR   Ar  134   4.596   1.201   4.642
    1   AR   Ar  135   5.945   0.928   2.533
    1   AR   Ar  136   5.486   6.882   2.856
    1   AR   Ar  137   1.776   4.876   4.502
    1   AR   Ar  138   5.005   1.398   5.835
    1   AR   Ar  139   5.934   1.831   5.340
    1   AR   Ar  140   4.227   6.698   4.289
    1   AR   Ar  141   3.871   4.799   4.532
    1   AR   Ar  142   3.224   6.883   6.242
    1   AR   Ar  143   6.009   0.132   5.675
    1   AR   Ar  144   6.882   1.617   5.167
    1   AR   Ar  145   5.129   4.489  -0.389
    1   AR   Ar  146   2.747   2.570   2.224
    1   AR   Ar  147   4.329   2.460  -1.392
    1   AR   Ar  148   3.269   5.990  -0.961
    1   AR   Ar  149   2.779   2.174  -0.129
    1   AR   Ar  150   2.401   1.569   2.375
    1   AR   Ar  151   2.481   2.208   3.295
    1   AR   Ar  152   2.562   2.789  -1.201
    1   AR   Ar  153   5.111   0.254   4.267
    1   AR   Ar  154   3.571   1.806   3.932
    1   AR   Ar  155   6.282   5.122   5.703
    1   AR   Ar  156   3.480   3.351   3.416
    1   AR   Ar  157   1.133   4.134   6.196
    1   AR   Ar  158   0.493   1.993   6.866
    1   AR   Ar  159   4.321   1.710   7.252
    1   AR   Ar  160   1.167   1.976   5.229
    1   AR   Ar  161   5.248   4.053   1.904
    1   AR   Ar  162   4.612   5.959  -0.724
    1   AR   Ar  163   6.060   3.870  -0.222
    1   AR   Ar  164   2.539   5.335   2.316
    1   AR   Ar  165   4.190   2.161   0.605
    1   AR   Ar  166   3.045   3.065   4.482
    1   AR   Ar  167   4.910   0.783   2.600
    1   AR   Ar  168   5.329   3.780  -1.680
    1   AR   Ar  169   3.236   3.999   2.479
    1   AR   Ar  170   2.718   4.051   6.222
    1   AR   Ar  171   5.953   3.836   3.837
    1   AR   Ar  172   4.777   4.479   5.403
    1   AR   Ar  173   3.035   3.168   6.637
    1   AR   Ar  174   2.245   6.140   6.453
    1   AR   Ar  175   3.272   2.242   6.422
    1   AR   Ar  176   3.919   2.272   4.701
    1   AR   Ar  177   7.023   5.883  -1.213
    1   AR   Ar  178   3.856   4.894  -0.252
    1   AR   Ar  179   3.880   5.921   0.105
    1   AR   Ar  180   2.157   1.884  -3.337
    1   AR   Ar  181   0.201   5.560   0.976
    1   AR   Ar  182   2.422   7.025   2.843
    1   AR   Ar  183   3.864   5.095   2.416
    1   AR   Ar  184   4.910   6.051   0.680
    1   AR   Ar  185   2.680   4.982   4.934
    1   AR   Ar  186   3.248   4.947   3.305
    1   AR   Ar  187   3.423   6.287   3.229
    1   AR   Ar  188   3.181   6.987   1.967
    1   AR   Ar  189   4.332   2.535   6.233
    1   AR   Ar  190   3.251   5.938   4.249
    1   AR   Ar  191   2.793   6.246   7.723
    1   AR   Ar  192   3.762   6.062   5.062
    1   AR   Ar  193   3.387   5.829   1.619
    1   AR   Ar  194   4.236   4.154  -1.199
    1   AR   Ar  195   5.436   1.748   0.222
    1   AR   Ar  196   4.647   0.656   0.544
    1   AR   Ar  197   3.667   1.395   0.309
    1   AR   Ar  198   6.329   1.395   1.544
    1   AR   Ar  199   3.001   0.778   2.722
    1   AR   Ar  200   5.809   2.731  -0.173
    1   AR   Ar  201   5.709   6.254   3.989
    1   AR   Ar  202   5.944   0.715   4.878
    1   AR   Ar  203   6.585   6.736   3.061
    1   AR   Ar  204   4.696   6.565   5.283
    1   AR   Ar  205   6.728   6.726   1.821
    1   AR   Ar  206   5.069   0.501   5.330
    1   AR   Ar  207   0.616   1.457   5.927
    1   AR   Ar  208   0.667   6.358   3.771
    1   AR   Ar  209   0.171   2.747  -1.689
    1   AR   Ar  210   2.329   0.123   0.371
    1   AR   Ar  211   6.601   3.227   0.632
    1   AR   Ar  212   6.180   2.921  -1.098
    1   AR   Ar  213   3.122   0.751   1.482
    1   AR   Ar  214   4.661   3.206   2.194
    1   AR   Ar  215   5.739   2.416   1.152
    1   AR   Ar  216   0.512   2.889   1.753
    1   AR   Ar  217   5.135   3.177   4.393
    1   AR   Ar  218   4.255   3.430   5.131
    1   AR   Ar  219   4.315   2.656   3.815
    1   AR   Ar  220   3.833   3.727   1.544
    1   AR   Ar  221   6.676   5.771   4.335
    1   AR   Ar  222   5.245   0.358   6.441
    1   AR   Ar  223   5.962   1.149   6.418
    1   AR   Ar  224   4.834   2.427   5.249
    1   AR   Ar  225   6.273   3.009   3.035
    1   AR   Ar  226   2.174   3.596   4.099
    1   AR   Ar  227   6.397   3.361   1.724
    1   AR   Ar  228   5.708   6.892   1.627
    1   AR   Ar  229   5.701   5.671  -1.401
    1   AR   Ar  230   4.065   4.477   3.354
    1   AR   Ar  231   5.570   1.475   4.041
    1   AR   Ar  232   5.036   1.714   1.215
    1   AR   Ar  233   6.198   2.260   4.149
    1   AR   Ar  234   6.248   2.859   4.993
    1   AR   Ar  235   6.510   1.079   3.718
    1   AR   Ar  236   5.329   5.325   5.651
    1   AR   Ar  237   5.936   3.207   5.968
    1   AR   Ar  238   5.232   4.196   6.308
    1   AR   Ar  239   6.640   4.438   9.087
    1   AR   Ar  240   6.497   2.714   6.967
    1   AR   Ar  241   1.864   6.398  -0.240
    1   AR   Ar  242   5.463   5.129   0.295
    1   AR   Ar  243   4.994   4.719   2.661
    1   AR   Ar  244   0.190   5.399  -0.245
    1   AR   Ar  245   4.066   0.549   1.968
    1   AR   Ar  246   5.485   7.048  -0.130
    1   AR   Ar  247   6.047   4.087   1.067
    1   AR   Ar  248   5.851   5.855  -0.312
    1   AR   Ar  249   4.663   5.518   1.749
    1   AR   Ar  250   4.704   5.587   4.640
    1   AR   Ar  251   5.018   4.211   4.422
    1   AR   Ar  252   4.070   5.650   3.562
    1   AR   Ar  253   6.815   3.627   6.351
    1   AR   Ar  254   2.095   2.419   9.185
    1   AR   Ar  255   3.850   4.479  10.053
    1   AR   Ar  256   6.331   4.951   2.999
    7.12000  7.12000 12.00000
Argon-slab step 3595
  256
    1   AR   Ar    1   5.624   2.313  -2.185
    1   AR   Ar    2   6.046   0.623   0.625
    1   AR   Ar    3   3.302   1.352  -0.851
    1   AR   Ar    4   1.474   0.840  -0.112
    1   AR   Ar    5   6.771   6.489   0.635
    1   AR   Ar    6   7.088   0.940   2.495
    1   AR   Ar    7   5.942   3.885   2.643
    1   AR   Ar    8   5.205   0.612   1.437
    1   AR   Ar    9   1.125   7.000   2.989
    1   AR   Ar   10   0.348   0.749   4.146
    1   AR   Ar   11   1.706   6.751   4.496
    1   AR   Ar   12   0.719   1.332   3.301
    1   AR   Ar   13   0.066   0.579   5.357
    1   AR   Ar   14   6.119   1.845   7.458
    1   AR   Ar   15   5.317   6.620   7.864
    1   AR   Ar   16   0.816   6.593   5.133
    1   AR   Ar   17   6.751   2.145   0.840
    1   AR   Ar   18   6.475   4.908  -0.662
    1   AR   Ar   19   3.143   3.446   0.700
    1   AR   Ar   20   4.614   5.070  -2.420
    1   AR   Ar   21   3.009   2.089   1.301
    1   AR   Ar   22   6.369   1.861   3.030
    1   AR   Ar   23   0.601   0.501   0.407
    1   AR   Ar   24   6.655   2.393   2.097
    1   AR   Ar   25   0.528   1.717   4.418
    1   AR   Ar   26   6.421   0.147   4.128
    1   AR   Ar   27   1.615   0.874   2.730
    1   AR   Ar   28   0.225   2.521   4.954
    1   AR   Ar   29   5.553   3.051   7.048
    1   AR   Ar   30   1.533   1.318   3.803
    1   AR   Ar   31   3.197   0.659   7.042
    1   AR   Ar   32   1.362   2.549   6.449
    1   AR   Ar   33   0.548   4.655   0.482
    1   AR   Ar   34   0.170   5.093   2.296
    1   AR   Ar   35   5.982   5.848   1.201
    1   AR   Ar   36   5.863   1.326  -2.917
    1   AR   Ar   37   5.460   2.311   2.373
    1   AR   Ar   38   7.013   3.944   2.738
    1   AR   Ar   39   1.094   4.136   2.150
    1   AR   Ar   40   2.261   3.351   1.753
    1   AR   Ar   41   0.058   2.162   3.616
    1   AR   Ar   42   5.555   5.002   4.648
    1   AR   Ar   43   6.784   2.248   5.919
    1   AR   Ar   44   0.807   4.498   3.258
    1   AR   Ar   45   0.606   3.441   5.576
    1   AR   Ar   46   0.068   4.917   5.052
    1   AR   Ar   47   5.389   4.045   7.501
    1   AR   Ar   48   6.364   4.804   6.819
    1   AR   Ar   49   5.079   0.790  -1.149
    1   AR   Ar   50   4.306   4.788   0.777
    1   AR   Ar   51   6.361   5.041   1.723
    1   AR   Ar   52   6.183   3.180  -2.910
    1   AR   Ar   53   5.489   5.698   2.370
    1   AR   Ar   54   0.419   6.186   2.478
    1   AR   Ar   55   6.517   5.833   2.424
    1   AR   Ar   56   6.857   0.515   1.359
    1   AR   Ar   57   4.826   3.467   3.345
    1   AR   Ar   58   6.833   3.380   4.216
    1   AR   Ar   59   2.269   5.031   5.912
    1   AR   Ar   60   0.272   5.433   3.496
    1   AR   Ar   61   0.039   4.651   6.102
    1   AR   Ar   62   6.886   4.706   4.071
    1   AR   Ar   63   1.978   1.044   5.901
    1   AR   Ar   64   1.238   5.577   5.234
    1   AR   Ar   65   3.590   6.827   0.630
    1   AR   Ar   66   0.884   1.424   1.818
    1   AR   Ar   67   4.034   6.986  -0.333
    1   AR   Ar   68   2.010   1.936  -1.012
    1   AR   Ar   69   2.334   1.198   0.679
    1   AR   Ar   70   0.826   0.199   1.919
    1   AR   Ar   71   2.524   1.093   3.846
    1   AR   Ar   72   4.075   6.733   2.386
    1   AR   Ar   73   4.249   0.295   3.328
    1   AR   Ar   74   1.118   0.541   4.800
    1   AR   Ar   75   3.488   0.917   4.883
    1   AR   Ar   76   1.632   0.496   1.234
    1   AR   Ar   77   1.872   0.067   5.532
    1   AR   Ar   78   0.477   5.923   6.052
    1   AR   Ar   79   3.867   5.792   6.448
    1   AR   Ar   80   3.820   4.870   5.714
    1   AR   Ar   81   2.874   6.225   0.242
    1   AR   Ar   82   6.641   4.762   0.505
    1   AR   Ar   83   1.077   2.203   1.023
    1   AR   Ar   84   7.055   4.263   1.360
    1   AR   Ar   85   1.303   3.308   0.988
    1   AR   Ar   86   2.013   5.588   0.807
    1   AR   Ar   87   2.072   2.379   1.329
    1   AR   Ar   88   2.099   4.388   1.593
    1   AR   Ar   89   0.322   2.829   2.794
    1   AR   Ar   90   2.632   2.139   4.395
    1   AR   Ar   91   1.164   2.460   3.420
    1   AR   Ar   92   1.636   2.316   2.234
    1   AR   Ar   93   0.985   0.451   5.853
    1   AR   Ar   94   0.379   0.074  11.367
    1   AR   Ar   95   4.098   0.516   5.946
    1   AR   Ar   96   2.761   7.076   4.626
    1   AR   Ar   97   4.367   1.534  -0.378
    1   AR   Ar   98   1.816   4.744   2.958
    1   AR   Ar   99   6.554   1.510  -0.108
    1   AR   Ar  100   1.335   3.029  -0.830
    1   AR   Ar  101   3.326   4.753   1.591
    1   AR   Ar  102   3.359   1.869   2.826
    1   AR   Ar  103   1.021   4.911   1.426
    1   AR   Ar  104   2.815   3.757  -1.019
    1   AR   Ar  105   1.169   2.871   4.534
    1   AR   Ar  106   3.536   3.002   5.723
    1   AR   Ar  107   0.507   3.973   4.435
    1   AR   Ar  108   2.139   0.865   4.829
    1   AR   Ar  109   1.585   3.611   5.290
    1   AR   Ar  110   2.410   2.893   5.446
    1   AR   Ar  111   4.995   5.146   7.751
    1   AR   Ar  112   1.278   5.251   6.388
    1   AR   Ar  113   2.993   4.606   0.441
    1   AR   Ar  114   2.681   0.144  -0.880
    1   AR   Ar  115   2.435   4.570  -0.319
    1   AR   Ar  116   6.593   0.600  -0.845
    1   AR   Ar  117   0.803   5.059   4.336
    1   AR   Ar  118   1.180   5.648   3.285
    1   AR   Ar  119   2.148   3.670   2.686
    1   AR   Ar  120   1.678   6.466   1.973
    1   AR   Ar  121   5.797   4.097   5.166
    1   AR   Ar  122   2.955   5.976   5.671
    1   AR   Ar  123   3.245   3.808   5.139
    1   AR   Ar  124   1.264   5.525   2.167
    1   AR   Ar  125   6.798   3.854   5.132
    1   AR   Ar  126   6.858   6.688   4.950
    1   AR   Ar  127   4.341   3.713   6.140
    1   AR   Ar  128   3.467   4.574   6.675
    1   AR   Ar  129   2.271   5.887   3.545
    1   AR   Ar  130   4.355   2.513  -3.047
    1   AR   Ar  131   3.574   2.782  -0.732
    1   AR   Ar  132   0.368   2.399   0.038
    1   AR   Ar  133   4.764   6.319   3.354
    1   AR   Ar  134   4.605   1.216   4.676
    1   AR   Ar  135   5.980   0.925   2.508
    1   AR   Ar  136   5.514   6.892   2.866
    1   AR   Ar  137   1.807   4.880   4.474
    1   AR   Ar  138   5.006   1.394   5.836
    1   AR   Ar  139   5.937   1.829   5.346
    1   AR   Ar  140   4.224   6.707   4.272
    1   AR   Ar  141   3.847   4.787   4.529
    1   AR   Ar  142   3.237   6.873   6.215
    1   AR   Ar  143   5.985   0.141   5.689
    1   AR   Ar  144   6.868   1.626   5.163
    1   AR   Ar  145   5.145   4.502  -0.346
    1   AR   Ar  146   2.757   2.589   2.204
    1   AR   Ar  147   4.328   2.481  -1.379
    1   AR   Ar  148   3.259   6.005  -0.923
    1   AR   Ar  149   2.816   2.149  -0.129
    1   AR   Ar  150   2.426   1.576   2.371
    1   AR   Ar  151   2.475   2.225   3.279
    1   AR   Ar  152   2.554   2.856  -1.231
    1   AR   Ar  153   5.092   0.258   4.293
    1   AR   Ar  154   3.567   1.801   3.887
    1   AR   Ar  155   6.301   5.087   5.705
    1   AR   Ar  156   3.472   3.358   3.430
    1   AR   Ar  157   1.120   4.157   6.154
    1   AR   Ar  158   0.510   2.000   6.882
    1   AR   Ar  159   4.324   1.713   7.255
    1   AR   Ar  160   1.175   1.946   5.236
    1   AR   Ar  161   5.247   4.050   1.927
    1   AR   Ar  162   4.608   5.946  -0.729
    1   AR   Ar  163   6.047   3.893  -0.225
    1   AR   Ar  164   2.520   5.341   2.310
    1   AR   Ar  165   4.206   2.183   0.612
    1   AR   Ar  166   3.034   3.094   4.501
    1   AR   Ar  167   4.914   0.765   2.595
    1   AR   Ar  168   5.312   3.790  -1.708
    1   AR   Ar  169   3.241   3.994   2.477
    1   AR   Ar  170   2.683   4.076   6.245
    1   AR   Ar  171   5.970   3.824   3.839
    1   AR   Ar  172   4.756   4.466   5.405
    1   AR   Ar  173   3.057   3.159   6.619
    1   AR   Ar  174   2.230   6.136   6.439
    1   AR   Ar  175   3.296   2.265   6.407
    1   AR   Ar  176   3.927   2.260   4.686
    1   AR   Ar  177   7.013   5.912  -1.202
    1   AR   Ar  178   3.837   4.917  -0.245
    1   AR   Ar  179   3.870   5.937   0.121
    1   AR   Ar  180   2.185   1.862  -3.349
    1   AR   Ar  181   0.210   5.592   0.970
    1   AR   Ar  182   2.447   7.014   2.848
    1   AR   Ar  183   3.874   5.102   2.378
    1   AR   Ar  184   4.894   6.069   0.662
    1   AR   Ar  185   2.682   4.967   4.965
    1   AR   Ar  186   3.244   4.954   3.305
    1   AR   Ar  187   3.424   6.330   3.255
    1   AR   Ar  188   3.186   6.998   1.962
    1   AR   Ar  189   4.359   2.524   6.225
    1   AR   Ar  190   3.270   5.967   4.258
    1   AR   Ar  191   2.799   6.214   7.709
    1   AR   Ar  192   3.790   6.068   5.049
    1   AR   Ar  193   3.362   5.819   1.584
    1   AR   Ar  194   4.245   4.140  -1.222
    1   AR   Ar  195   5.433   1.739   0.204
    1   AR   Ar  196   4.627   0.677   0.534
    1   AR   Ar  197   3.686   1.385   0.301
    1   AR   Ar  198   6.354   1.390   1.577
    1   AR   Ar  199   3.002   0.738   2.723
    1   AR   Ar  200   5.818   2.760  -0.168
    1   AR   Ar  201   5.710   6.228   3.979
    1   AR   Ar  202   5.965   0.714   4.882
    1   AR   Ar  203   6.605   6.768   3.056
    1   AR   Ar  204   4.676   6.553   5.268
    1   AR   Ar  205   6.698   6.695   1.824
    1   AR   Ar  206   5.038   0.491   5.334
    1   AR   Ar  207   0.627   1.471   5.940
    1   AR   Ar  208   0.695   6.334   3.785
    1   AR   Ar  209   0.156   2.744  -1.698
    1   AR   Ar  210   2.319   0.098   0.387
    1   AR   Ar  211   6.605   3.250   0.628
    1   AR   Ar  212   6.172   2.932  -1.102
    1   AR   Ar  213   3.147   0.754   1.467
    1   AR   Ar  214   4.691   3.182   2.169
    1   AR   Ar  215   5.745   2.407   1.185
    1   AR   Ar  216   0.535   2.861   1.757
    1   AR   Ar  217   5.128   3.191   4.432
    1   AR   Ar  218   4.253   3.419   5.129
    1   AR   Ar  219   4.312   2.619   3.774
    1   AR   Ar  220   3.801   3.730   1.543
    1   AR   Ar  221   6.696   5.752   4.291
    1   AR   Ar  222   5.183   0.341   6.458
    1   AR   Ar  223   5.966   1.149   6.439
    1   AR   Ar  224   4.825   2.419   5.247
    1   AR   Ar  225   6.280   3.030   3.028
    1   AR   Ar  226   2.184   3.598   4.102
    1   AR   Ar  227   6.426   3.371   1.721
    1   AR   Ar  228   5.689   6.886   1.639
    1   AR   Ar  229   5.751   5.679  -1.410
    1   AR   Ar  230   4.096   4.478   3.320
    1   AR   Ar  231   5.566   1.507   4.052
    1   AR   Ar  232   5.026   1.743   1.223
    1   AR   Ar  233   6.224   2.279   4.155
    1   AR   Ar  234   6.263   2.901   4.956
    1   AR   Ar  235   6.521   1.094   3.731
    1   AR   Ar  236   5.336   5.334   5.681
    1   AR   Ar  237   5.943   3.200   5.972
    1   AR   Ar  238   5.227   4.189   6.301
    1   AR   Ar  239   6.653   4.423   9.103
    1   AR   Ar  240   6.499   2.714   6.969
    1   AR   Ar  241   1.848   6.404  -0.259
    1   AR   Ar  242   5.447   5.133   0.298
    1   AR   Ar  243   4.950   4.724   2.701
    1   AR   Ar  244   0.206   5.420  -0.248
    1   AR   Ar  245   4.062   0.539   1.986
    1   AR   Ar  246   5.493   7.056  -0.105
    1   AR   Ar  247   6.045   4.075   1.051
    1   AR   Ar  248   5.851   5.866  -0.335
    1   AR   Ar  249   4.648   5.547   1.721
    1   AR   Ar  250   4.712   5.553   4.639
    1   AR   Ar  251   5.015   4.221   4.391
    1   AR   Ar  252   4.065   5.687   3.605
    1   AR   Ar  253   6.837   3.618   6.353
    1   AR   Ar  254   2.079   2.433   9.162
    1   AR   Ar  255   3.861   4.483  10.061
    1   AR   Ar  256   6.340   4.956   3.018
    7.12000  7.12000 12.00000
Argon-slab step 3600
  256
    1   AR   Ar    1   5.589   2.281  -2.201
    1   AR   Ar    2   6.017   0.602   0.624
    1   AR   Ar    3   3.266   1.359  -0.840
    1   AR   Ar    4   1.482   0.832  -0.066
    1   AR   Ar    5   6.770   6.485   0.606
    1   AR   Ar    6   7.099   0.948   2.487
    1   AR   Ar    7   5.930   3.886   2.665
    1   AR   Ar    8   5.195   0.572   1.462
    1   AR   Ar    9   1.113   7.015   2.995
    1   AR   Ar   10   0.320   0.706   4.146
    1   AR   Ar   11   1.700   6.771   4.506
    1   AR   Ar   12   0.731   1.335   3.283
    1   AR   Ar   13   0.060   0.573   5.343
    1   AR   Ar   14   6.111   1.843   7.463
    1   AR   Ar   15   5.311   6.629   7.868
    1   AR   Ar   16   0.827   6.605   5.126
    1   AR   Ar   17   6.718   2.168   0.818
    1   AR   Ar   18   6.470   4.891  -0.683
    1   AR   Ar   19   3.172   3.445   0.667
    1   AR   Ar   20   4.640   5.057  -2.436
    1   AR   Ar   21   3.030   2.072   1.332
    1   AR   Ar   22   6.327   1.822   3.025
    1   AR   Ar   23   0.609   0.488   0.405
    1   AR   Ar   24   6.660   2.384   2.087
    1   AR   Ar   25   0.537   1.725   4.415
    1   AR   Ar   26   6.428   0.156   4.141
    1   AR   Ar   27   1.617   0.863   2.729
    1   AR   Ar   28   0.234   2.523   4.951
    1   AR   Ar   29   5.552   3.070   7.042
    1   AR   Ar   30   1.542   1.329   3.804
    1   AR   Ar   31   3.192   0.684   7.063
    1   AR   Ar   32   1.351   2.547   6.460
    1   AR   Ar   33   0.535   4.659   0.476
    1   AR   Ar   34   0.166   5.079   2.297
    1   AR   Ar   35   5.975   5.824   1.208
    1   AR   Ar   36   5.858   1.364  -2.913
    1   AR   Ar   37   5.474   2.315   2.365
    1   AR   Ar   38   7.024   3.940   2.770
    1   AR   Ar   39   1.115   4.140   2.146
    1   AR   Ar   40   2.245   3.344   1.775
    1   AR   Ar   41   0.059   2.170   3.616
    1   AR   Ar   42   5.552   5.039   4.679
    1   AR   Ar   43   6.754   2.260   5.936
    1   AR   Ar   44   0.816   4.501   3.267
    1   AR   Ar   45   0.595   3.450   5.599
    1   AR   Ar   46   0.068   4.910   5.039
    1   AR   Ar   47   5.372   4.030   7.530
    1   AR   Ar   48   6.363   4.806   6.805
    1   AR   Ar   49   5.059   0.790  -1.131
    1   AR   Ar   50   4.321   4.822   0.790
    1   AR   Ar   51   6.339   5.055   1.711
    1   AR   Ar   52   6.177   3.176  -2.877
    1   AR   Ar   53   5.499   5.705   2.373
    1   AR   Ar   54   0.408   6.154   2.458
    1   AR   Ar   55   6.532   5.819   2.436
    1   AR   Ar   56   6.865   0.488   1.355
    1   AR   Ar   57   4.806   3.473   3.310
    1   AR   Ar   58   6.815   3.381   4.224
    1   AR   Ar   59   2.277   5.005   5.934
    1   AR   Ar   60   0.276   5.411   3.488
    1   AR   Ar   61   0.026   4.624   6.125
    1   AR   Ar   62   6.869   4.684   4.094
    1   AR   Ar   63   1.953   1.070   5.898
    1   AR   Ar   64   1.205   5.589   5.232
    1   AR   Ar   65   3.562   6.791   0.622
    1   AR   Ar   66   0.869   1.428   1.839
    1   AR   Ar   67   4.049   6.955  -0.349
    1   AR   Ar   68   2.019   1.943  -1.003
    1   AR   Ar   69   2.307   1.191   0.638
    1   AR   Ar   70   0.829   0.206   1.918
    1   AR   Ar   71   2.516   1.100   3.843
    1   AR   Ar   72   4.091   6.711   2.396
    1   AR   Ar   73   4.248   0.300   3.320
    1   AR   Ar   74   1.132   0.523   4.784
    1   AR   Ar   75   3.492   0.889   4.897
    1   AR   Ar   76   1.622   0.491   1.217
    1   AR   Ar   77   1.887   0.062   5.517
    1   AR   Ar   78   0.519   5.904   6.040
    1   AR   Ar   79   3.902   5.760   6.469
    1   AR   Ar   80   3.835   4.893   5.743
    1   AR   Ar   81   2.871   6.229   0.255
    1   AR   Ar   82   6.617   4.748   0.538
    1   AR   Ar   83   1.102   2.200   1.052
    1   AR   Ar   84   7.057   4.290   1.348
    1   AR   Ar   85   1.275   3.300   0.963
    1   AR   Ar   86   2.045   5.625   0.805
    1   AR   Ar   87   2.064   2.380   1.332
    1   AR   Ar   88   2.086   4.390   1.565
    1   AR   Ar   89   0.280   2.833   2.767
    1   AR   Ar   90   2.663   2.133   4.398
    1   AR   Ar   91   1.177   2.434   3.422
    1   AR   Ar   92   1.657   2.324   2.241
    1   AR   Ar   93   0.987   0.446   5.857
    1   AR   Ar   94   0.362   0.090  11.359
    1   AR   Ar   95   4.114   0.506   5.938
    1   AR   Ar   96   2.728   7.071   4.626
    1   AR   Ar   97   4.400   1.551  -0.378
    1   AR   Ar   98   1.844   4.747   2.978
    1   AR   Ar   99   6.546   1.531  -0.117
    1   AR   Ar  100   1.371   3.027  -0.861
    1   AR   Ar  101   3.320   4.748   1.571
    1   AR   Ar  102   3.354   1.832   2.820
    1   AR   Ar  103   1.033   4.885   1.384
    1   AR   Ar  104   2.814   3.758  -1.032
    1   AR   Ar  105   1.220   2.845   4.511
    1   AR   Ar  106   3.562   2.993   5.724
    1   AR   Ar  107   0.476   3.968   4.422
    1   AR   Ar  108   2.130   0.865   4.797
    1   AR   Ar  109   1.582   3.625   5.297
    1   AR   Ar  110   2.405   2.876   5.433
    1   AR   Ar  111   5.025   5.141   7.735
    1   AR   Ar  112   1.270   5.220   6.379
    1   AR   Ar  113   3.017   4.621   0.441
    1   AR   Ar  114   2.662   0.134  -0.870
    1   AR   Ar  115   2.407   4.580  -0.304
    1   AR   Ar  116   6.607   0.608  -0.845
    1   AR   Ar  117   0.812   5.076   4.335
    1   AR   Ar  118   1.205   5.652   3.281
    1   AR   Ar  119   2.191   3.659   2.726
    1   AR   Ar  120   1.643   6.441   1.969
    1   AR   Ar  121   5.796   4.106   5.175
    1   AR   Ar  122   2.914   5.973   5.699
    1   AR   Ar  123   3.227   3.803   5.169
    1   AR   Ar  124   1.250   5.557   2.168
    1   AR   Ar  125   6.804   3.874   5.140
    1   AR   Ar  126   6.836   6.674   4.955
    1   AR   Ar  127   4.345   3.724   6.149
    1   AR   Ar  128   3.468   4.603   6.650
    1   AR   Ar  129   2.292   5.906   3.542
    1   AR   Ar  130   4.386   2.489  -3.060
    1   AR   Ar  131   3.550   2.812  -0.733
    1   AR   Ar  132   0.394   2.390   0.046
    1   AR   Ar  133   4.778   6.321   3.323
    1   AR   Ar  134   4.620   1.216   4.693
    1   AR   Ar  135   6.016   0.921   2.483
    1   AR   Ar  136   5.544   6.904   2.875
    1   AR   Ar  137   1.835   4.883   4.443
    1   AR   Ar  138   5.010   1.377   5.837
    1   AR   Ar  139   5.923   1.829   5.354
    1   AR   Ar  140   4.220   6.715   4.252
    1   AR   Ar  141   3.823   4.775   4.526
    1   AR   Ar  142   3.250   6.864   6.188
    1   AR   Ar  143   5.963   0.144   5.713
    1   AR   Ar  144   6.867   1.620   5.147
    1   AR   Ar  145   5.156   4.503  -0.298
    1   AR   Ar  146   2.747   2.589   2.198
    1   AR   Ar  147   4.329   2.500  -1.368
    1   AR   Ar  148   3.251   6.020  -0.883
    1   AR   Ar  149   2.853   2.122  -0.129
    1   AR   Ar  150   2.444   1.566   2.359
    1   AR   Ar  151   2.467   2.243   3.265
    1   AR   Ar  152   2.542   2.905  -1.266
    1   AR   Ar  153   5.086   0.270   4.286
    1   AR   Ar  154   3.558   1.790   3.834
    1   AR   Ar  155   6.325   5.049   5.704
    1   AR   Ar  156   3.444   3.355   3.414
    1   AR   Ar  157   1.108   4.182   6.113
    1   AR   Ar  158   0.526   2.007   6.899
    1   AR   Ar  159   4.327   1.716   7.257
    1   AR   Ar  160   1.188   1.919   5.239
    1   AR   Ar  161   5.243   4.048   1.943
    1   AR   Ar  162   4.606   5.933  -0.732
    1   AR   Ar  163   6.036   3.916  -0.228
    1   AR   Ar  164   2.501   5.346   2.304
    1   AR   Ar  165   4.225   2.212   0.621
    1   AR   Ar  166   3.026   3.078   4.505
    1   AR   Ar  167   4.920   0.747   2.591
    1   AR   Ar  168   5.296   3.800  -1.735
    1   AR   Ar  169   3.240   3.996   2.484
    1   AR   Ar  170   2.653   4.093   6.258
    1   AR   Ar  171   5.984   3.815   3.839
    1   AR   Ar  172   4.734   4.452   5.402
    1   AR   Ar  173   3.072   3.170   6.611
    1   AR   Ar  174   2.214   6.131   6.426
    1   AR   Ar  175   3.331   2.272   6.396
    1   AR   Ar  176   3.934   2.253   4.683
    1   AR   Ar  177   7.002   5.905  -1.194
    1   AR   Ar  178   3.817   4.940  -0.238
    1   AR   Ar  179   3.863   5.950   0.135
    1   AR   Ar  180   2.213   1.840  -3.360
    1   AR   Ar  181   0.217   5.622   0.966
    1   AR   Ar  182   2.468   6.997   2.853
    1   AR   Ar  183   3.887   5.110   2.346
    1   AR   Ar  184   4.878   6.086   0.644
    1   AR   Ar  185   2.696   4.952   4.997
    1   AR   Ar  186   3.226   4.970   3.304
    1   AR   Ar  187   3.416   6.385   3.274
    1   AR   Ar  188   3.186   7.001   1.954
    1   AR   Ar  189   4.358   2.512   6.224
    1   AR   Ar  190   3.275   5.994   4.252
    1   AR   Ar  191   2.805   6.182   7.693
    1   AR   Ar  192   3.828   6.072   5.051
    1   AR   Ar  193   3.338   5.812   1.550
    1   AR   Ar  194   4.246   4.108  -1.211
    1   AR   Ar  195   5.430   1.729   0.186
    1   AR   Ar  196   4.606   0.698   0.521
    1   AR   Ar  197   3.688   1.379   0.296
    1   AR   Ar  198   6.375   1.390   1.610
    1   AR   Ar  199   3.009   0.702   2.724
    1   AR   Ar  200   5.826   2.787  -0.155
    1   AR   Ar  201   5.711   6.203   3.969
    1   AR   Ar  202   5.997   0.731   4.888
    1   AR   Ar  203   6.625   6.799   3.052
    1   AR   Ar  204   4.661   6.544   5.254
    1   AR   Ar  205   6.673   6.661   1.829
    1   AR   Ar  206   5.003   0.476   5.339
    1   AR   Ar  207   0.632   1.483   5.955
    1   AR   Ar  208   0.718   6.323   3.809
    1   AR   Ar  209   0.140   2.740  -1.707
    1   AR   Ar  210   2.309   0.066   0.403
    1   AR   Ar  211   6.609   3.271   0.623
    1   AR   Ar  212   6.166   2.946  -1.113
    1   AR   Ar  213   3.170   0.766   1.446
    1   AR   Ar  214   4.720   3.157   2.145
    1   AR   Ar  215   5.762   2.408   1.219
    1   AR   Ar  216   0.558   2.834   1.759
    1   AR   Ar  217   5.130   3.182   4.421
    1   AR   Ar  218   4.257   3.409   5.119
    1   AR   Ar  219   4.310   2.582   3.732
    1   AR   Ar  220   3.769   3.734   1.543
    1   AR   Ar  221   6.715   5.733   4.249
    1   AR   Ar  222   5.119   0.326   6.473
    1   AR   Ar  223   5.971   1.149   6.458
    1   AR   Ar  224   4.818   2.411   5.246
    1   AR   Ar  225   6.292   3.042   3.026
    1   AR   Ar  226   2.198   3.594   4.089
    1   AR   Ar  227   6.456   3.380   1.721
    1   AR   Ar  228   5.672   6.872   1.653
    1   AR   Ar  229   5.801   5.686  -1.418
    1   AR   Ar  230   4.138   4.470   3.289
    1   AR   Ar  231   5.557   1.532   4.064
    1   AR   Ar  232   5.006   1.762   1.233
    1   AR   Ar  233   6.255   2.299   4.157
    1   AR   Ar  234   6.275   2.944   4.928
    1   AR   Ar  235   6.534   1.112   3.744
    1   AR   Ar  236   5.333   5.347   5.710
    1   AR   Ar  237   5.930   3.178   5.973
    1   AR   Ar  238   5.231   4.184   6.298
    1   AR   Ar  239   6.665   4.408   9.119
    1   AR   Ar  240   6.518   2.712   6.968
    1   AR   Ar  241   1.834   6.410  -0.276
    1   AR   Ar  242   5.444   5.171   0.316
    1   AR   Ar  243   4.917   4.747   2.725
    1   AR   Ar  244   0.222   5.442  -0.249
    1   AR   Ar  245   4.062   0.522   1.998
    1   AR   Ar  246   5.500   7.063  -0.080
    1   AR   Ar  247   6.036   4.065   1.034
    1   AR   Ar  248   5.852   5.879  -0.358
    1   AR   Ar  249   4.632   5.575   1.691
    1   AR   Ar  250   4.711   5.523   4.638
    1   AR   Ar  251   5.004   4.224   4.353
    1   AR   Ar  252   4.062   5.703   3.656
    1   AR   Ar  253   6.860   3.610   6.355
    1   AR   Ar  254   2.062   2.447   9.139
    1   AR   Ar  255   3.873   4.488  10.061
    1   AR   Ar  256   6.349   4.960   3.037
    7.12000  7.12000 12.00000
Argon-slab step 3605
  256
    1   AR   Ar    1   5.553   2.250  -2.217
    1   AR   Ar    2   5.987   0.584   0.624
    1   AR   Ar    3   3.231   1.366  -0.828
    1   AR   Ar    4   1.494   0.825  -0.020
    1   AR   Ar    5   6.768   6.481   0.578
    1   AR   Ar    6   7.112   0.955   2.479
    1   AR   Ar    7   5.919   3.895   2.689
    1   AR   Ar    8   5.176   0.547   1.485
    1   AR   Ar    9   1.102   7.029   3.000
    1   AR   Ar   10   0.292   0.660   4.145
    1   AR   Ar   11   1.688   6.797   4.517
    1   AR   Ar   12   0.727   1.339   3.254
    1   AR   Ar   13   0.051   0.567   5.327
    1   AR   Ar   14   6.096   1.840   7.494
    1   AR   Ar   15   5.306   6.637   7.870
    1   AR   Ar   16   0.836   6.620   5.121
    1   AR   Ar   17   6.687   2.191   0.798
    1   AR   Ar   18   6.465   4.875  -0.702
    1   AR   Ar   19   3.199   3.444   0.635
    1   AR   Ar   20   4.667   5.042  -2.450
    1   AR   Ar   21   3.059   2.049   1.359
    1   AR   Ar   22   6.283   1.789   3.016
    1   AR   Ar   23   0.615   0.473   0.406
    1   AR   Ar   24   6.663   2.374   2.077
    1   AR   Ar   25   0.535   1.736   4.427
    1   AR   Ar   26   6.436   0.159   4.150
    1   AR   Ar   27   1.619   0.853   2.728
    1   AR   Ar   28   0.242   2.536   4.951
    1   AR   Ar   29   5.546   3.090   7.034
    1   AR   Ar   30   1.556   1.341   3.816
    1   AR   Ar   31   3.187   0.709   7.083
    1   AR   Ar   32   1.336   2.557   6.496
    1   AR   Ar   33   0.524   4.661   0.468
    1   AR   Ar   34   0.165   5.061   2.298
    1   AR   Ar   35   5.960   5.814   1.231
    1   AR   Ar   36   5.853   1.402  -2.909
    1   AR   Ar   37   5.490   2.319   2.357
    1   AR   Ar   38   7.026   3.949   2.794
    1   AR   Ar   39   1.135   4.143   2.145
    1   AR   Ar   40   2.225   3.341   1.785
    1   AR   Ar   41   0.059   2.179   3.614
    1   AR   Ar   42   5.567   5.074   4.711
    1   AR   Ar   43   6.724   2.278   5.957
    1   AR   Ar   44   0.822   4.505   3.276
    1   AR   Ar   45   0.578   3.455   5.619
    1   AR   Ar   46   0.067   4.904   5.033
    1   AR   Ar   47   5.354   4.017   7.558
    1   AR   Ar   48   6.355   4.785   6.821
    1   AR   Ar   49   5.040   0.791  -1.112
    1   AR   Ar   50   4.335   4.858   0.804
    1   AR   Ar   51   6.320   5.057   1.703
    1   AR   Ar   52   6.171   3.171  -2.842
    1   AR   Ar   53   5.507   5.712   2.376
    1   AR   Ar   54   0.399   6.125   2.440
    1   AR   Ar   55   6.546   5.807   2.451
    1   AR   Ar   56   6.876   0.460   1.351
    1   AR   Ar   57   4.788   3.482   3.275
    1   AR   Ar   58   6.803   3.374   4.221
    1   AR   Ar   59   2.282   4.984   5.960
    1   AR   Ar   60   0.266   5.386   3.477
    1   AR   Ar   61   0.021   4.597   6.149
    1   AR   Ar   62   6.848   4.650   4.117
    1   AR   Ar   63   1.926   1.097   5.894
    1   AR   Ar   64   1.174   5.600   5.230
    1   AR   Ar   65   3.545   6.772   0.626
    1   AR   Ar   66   0.854   1.431   1.861
    1   AR   Ar   67   4.065   6.924  -0.365
    1   AR   Ar   68   2.030   1.951  -0.993
    1   AR   Ar   69   2.279   1.185   0.605
    1   AR   Ar   70   0.829   0.213   1.918
    1   AR   Ar   71   2.519   1.107   3.837
    1   AR   Ar   72   4.110   6.680   2.413
    1   AR   Ar   73   4.247   0.303   3.313
    1   AR   Ar   74   1.145   0.508   4.769
    1   AR   Ar   75   3.496   0.861   4.911
    1   AR   Ar   76   1.609   0.489   1.213
    1   AR   Ar   77   1.906   0.053   5.500
    1   AR   Ar   78   0.545   5.895   6.028
    1   AR   Ar   79   3.935   5.729   6.490
    1   AR   Ar   80   3.850   4.918   5.766
    1   AR   Ar   81   2.850   6.223   0.261
    1   AR   Ar   82   6.589   4.742   0.564
    1   AR   Ar   83   1.121   2.195   1.079
    1   AR   Ar   84   7.062   4.315   1.342
    1   AR   Ar   85   1.247   3.292   0.940
    1   AR   Ar   86   2.077   5.662   0.803
    1   AR   Ar   87   2.058   2.382   1.328
    1   AR   Ar   88   2.077   4.399   1.542
    1   AR   Ar   89   0.238   2.838   2.744
    1   AR   Ar   90   2.692   2.121   4.401
    1   AR   Ar   91   1.191   2.406   3.424
    1   AR   Ar   92   1.698   2.320   2.279
    1   AR   Ar   93   0.987   0.441   5.864
    1   AR   Ar   94   0.370   0.103  11.353
    1   AR   Ar   95   4.128   0.496   5.930
    1   AR   Ar   96   2.698   7.066   4.626
    1   AR   Ar   97   4.442   1.570  -0.385
    1   AR   Ar   98   1.843   4.741   2.995
    1   AR   Ar   99   6.538   1.553  -0.125
    1   AR   Ar  100   1.408   3.023  -0.893
    1   AR   Ar  101   3.318   4.754   1.565
    1   AR   Ar  102   3.351   1.796   2.810
    1   AR   Ar  103   1.045   4.858   1.341
    1   AR   Ar  104   2.824   3.789  -1.035
    1   AR   Ar  105   1.271   2.819   4.489
    1   AR   Ar  106   3.586   2.984   5.720
    1   AR   Ar  107   0.457   3.967   4.412
    1   AR   Ar  108   2.135   0.882   4.798
    1   AR   Ar  109   1.584   3.639   5.300
    1   AR   Ar  110   2.401   2.860   5.419
    1   AR   Ar  111   5.055   5.136   7.717
    1   AR   Ar  112   1.263   5.191   6.370
    1   AR   Ar  113   3.052   4.636   0.458
    1   AR   Ar  114   2.643   0.123  -0.857
    1   AR   Ar  115   2.368   4.589  -0.303
    1   AR   Ar  116   6.619   0.616  -0.843
    1   AR   Ar  117   0.822   5.094   4.329
    1   AR   Ar  118   1.248   5.649   3.268
    1   AR   Ar  119   2.234   3.651   2.775
    1   AR   Ar  120   1.612   6.428   1.963
    1   AR   Ar  121   5.791   4.114   5.186
    1   AR   Ar  122   2.877   5.965   5.721
    1   AR   Ar  123   3.209   3.811   5.202
    1   AR   Ar  124   1.234   5.578   2.173
    1   AR   Ar  125   6.813   3.895   5.154
    1   AR   Ar  126   6.827   6.662   4.944
    1   AR   Ar  127   4.352   3.736   6.174
    1   AR   Ar  128   3.470   4.631   6.630
    1   AR   Ar  129   2.313   5.924   3.538
    1   AR   Ar  130   4.417   2.464  -3.073
    1   AR   Ar  131   3.524   2.843  -0.732
    1   AR   Ar  132   0.418   2.376   0.047
    1   AR   Ar  133   4.794   6.329   3.290
    1   AR   Ar  134   4.641   1.194   4.682
    1   AR   Ar  135   6.022   0.914   2.466
    1   AR   Ar  136   5.574   6.918   2.882
    1   AR   Ar  137   1.861   4.885   4.409
    1   AR   Ar  138   5.012   1.363   5.839
    1   AR   Ar  139   5.897   1.832   5.362
    1   AR   Ar  140   4.215   6.721   4.231
    1   AR   Ar  141   3.800   4.763   4.523
    1   AR   Ar  142   3.263   6.857   6.162
    1   AR   Ar  143   6.020   0.104   5.720
    1   AR   Ar  144   6.875   1.604   5.124
    1   AR   Ar  145   5.157   4.491  -0.264
    1   AR   Ar  146   2.737   2.568   2.190
    1   AR   Ar  147   4.334   2.518  -1.359
    1   AR   Ar  148   3.244   6.036  -0.839
    1   AR   Ar  149   2.891   2.096  -0.129
    1   AR   Ar  150   2.458   1.551   2.343
    1   AR   Ar  151   2.456   2.261   3.252
    1   AR   Ar  152   2.518   2.919  -1.290
    1   AR   Ar  153   5.085   0.290   4.275
    1   AR   Ar  154   3.546   1.776   3.782
    1   AR   Ar  155   6.347   5.012   5.700
    1   AR   Ar  156   3.417   3.350   3.400
    1   AR   Ar  157   1.097   4.211   6.074
    1   AR   Ar  158   0.529   2.026   6.881
    1   AR   Ar  159   4.329   1.720   7.258
    1   AR   Ar  160   1.208   1.897   5.238
    1   AR   Ar  161   5.237   4.050   1.951
    1   AR   Ar  162   4.603   5.920  -0.734
    1   AR   Ar  163   6.028   3.937  -0.228
    1   AR   Ar  164   2.482   5.350   2.298
    1   AR   Ar  165   4.247   2.244   0.631
    1   AR   Ar  166   3.022   3.050   4.503
    1   AR   Ar  167   4.928   0.729   2.586
    1   AR   Ar  168   5.279   3.810  -1.762
    1   AR   Ar  169   3.251   4.009   2.460
    1   AR   Ar  170   2.659   4.080   6.254
    1   AR   Ar  171   5.991   3.809   3.837
    1   AR   Ar  172   4.712   4.437   5.395
    1   AR   Ar  173   3.081   3.199   6.610
    1   AR   Ar  174   2.193   6.126   6.416
    1   AR   Ar  175   3.367   2.255   6.385
    1   AR   Ar  176   3.940   2.249   4.685
    1   AR   Ar  177   6.988   5.885  -1.173
    1   AR   Ar  178   3.799   4.961  -0.233
    1   AR   Ar  179   3.864   5.957   0.146
    1   AR   Ar  180   2.242   1.818  -3.372
    1   AR   Ar  181   0.223   5.649   0.963
    1   AR   Ar  182   2.482   6.971   2.859
    1   AR   Ar  183   3.901   5.119   2.320
    1   AR   Ar  184   4.863   6.103   0.626
    1   AR   Ar  185   2.719   4.938   5.027
    1   AR   Ar  186   3.204   4.989   3.303
    1   AR   Ar  187   3.404   6.447   3.288
    1   AR   Ar  188   3.185   6.996   1.929
    1   AR   Ar  189   4.354   2.499   6.227
    1   AR   Ar  190   3.267   6.020   4.239
    1   AR   Ar  191   2.809   6.206   7.697
    1   AR   Ar  192   3.862   6.068   5.063
    1   AR   Ar  193   3.315   5.807   1.515
    1   AR   Ar  194   4.247   4.076  -1.199
    1   AR   Ar  195   5.427   1.719   0.170
    1   AR   Ar  196   4.586   0.721   0.507
    1   AR   Ar  197   3.679   1.388   0.290
    1   AR   Ar  198   6.396   1.394   1.641
    1   AR   Ar  199   3.005   0.686   2.712
    1   AR   Ar  200   5.833   2.812  -0.135
    1   AR   Ar  201   5.712   6.179   3.958
    1   AR   Ar  202   6.027   0.757   4.890
    1   AR   Ar  203   6.647   6.829   3.047
    1   AR   Ar  204   4.659   6.542   5.243
    1   AR   Ar  205   6.651   6.627   1.832
    1   AR   Ar  206   5.003   0.462   5.315
    1   AR   Ar  207   0.631   1.491   5.973
    1   AR   Ar  208   0.735   6.323   3.841
    1   AR   Ar  209   0.124   2.736  -1.715
    1   AR   Ar  210   2.299   0.035   0.419
    1   AR   Ar  211   6.613   3.291   0.616
    1   AR   Ar  212   6.167   2.959  -1.124
    1   AR   Ar  213   3.190   0.784   1.420
    1   AR   Ar  214   4.747   3.129   2.123
    1   AR   Ar  215   5.787   2.416   1.254
    1   AR   Ar  216   0.582   2.808   1.758
    1   AR   Ar  217   5.136   3.158   4.377
    1   AR   Ar  218   4.267   3.401   5.102
    1   AR   Ar  219   4.314   2.579   3.692
    1   AR   Ar  220   3.739   3.738   1.543
    1   AR   Ar  221   6.734   5.717   4.208
    1   AR   Ar  222   5.056   0.312   6.486
    1   AR   Ar  223   5.973   1.156   6.476
    1   AR   Ar  224   4.790   2.415   5.244
    1   AR   Ar  225   6.309   3.042   3.027
    1   AR   Ar  226   2.210   3.591   4.075
    1   AR   Ar  227   6.486   3.389   1.725
    1   AR   Ar  228   5.659   6.844   1.670
    1   AR   Ar  229   5.852   5.692  -1.426
    1   AR   Ar  230   4.176   4.457   3.263
    1   AR   Ar  231   5.546   1.554   4.078
    1   AR   Ar  232   5.005   1.781   1.244
    1   AR   Ar  233   6.288   2.316   4.154
    1   AR   Ar  234   6.279   2.986   4.914
    1   AR   Ar  235   6.549   1.132   3.758
    1   AR   Ar  236   5.324   5.360   5.739
    1   AR   Ar  237   5.907   3.160   5.966
    1   AR   Ar  238   5.245   4.182   6.298
    1   AR   Ar  239   6.677   4.393   9.135
    1   AR   Ar  240   6.581   2.706   6.970
    1   AR   Ar  241   1.822   6.417  -0.292
    1   AR   Ar  242   5.450   5.228   0.350
    1   AR   Ar  243   4.896   4.779   2.740
    1   AR   Ar  244   0.237   5.465  -0.248
    1   AR   Ar  245   4.064   0.512   2.007
    1   AR   Ar  246   5.506   7.068  -0.055
    1   AR   Ar  247   6.020   4.056   1.018
    1   AR   Ar  248   5.854   5.894  -0.381
    1   AR   Ar  249   4.615   5.604   1.659
    1   AR   Ar  250   4.697   5.501   4.635
    1   AR   Ar  251   4.988   4.226   4.313
    1   AR   Ar  252   4.058   5.710   3.694
    1   AR   Ar  253   6.884   3.601   6.355
    1   AR   Ar  254   2.045   2.461   9.116
    1   AR   Ar  255   3.869   4.486  10.059
    1   AR   Ar  256   6.360   4.960   3.057
    7.12000  7.12000 12.00000
Argon-slab step 3610
  256
    1   AR   Ar    1   5.518   2.220  -2.233
    1   AR   Ar    2   5.959   0.568   0.629
    1   AR   Ar    3   3.207   1.375  -0.820
    1   AR   Ar    4   1.509   0.817   0.023
    1   AR   Ar    5   6.763   6.479   0.551
    1   AR   Ar    6   0.005   0.963   2.470
    1   AR   Ar    7   5.908   3.913   2.714
    1   AR   Ar    8   5.151   0.536   1.505
    1   AR   Ar    9   1.089   7.042   3.005
    1   AR   Ar   10   0.264   0.615   4.145
    1   AR   Ar   11   1.677   6.816   4.522
    1   AR   Ar   12   0.714   1.343   3.221
    1   AR   Ar   13   0.042   0.560   5.309
    1   AR   Ar   14   6.079   1.839   7.530
    1   AR   Ar   15   5.300   6.644   7.873
    1   AR   Ar   16   0.843   6.636   5.116
    1   AR   Ar   17   6.660   2.212   0.776
    1   AR   Ar   18   6.458   4.860  -0.720
    1   AR   Ar   19   3.225   3.443   0.601
    1   AR   Ar   20   4.694   5.028  -2.464
    1   AR   Ar   21   3.092   2.021   1.381
    1   AR   Ar   22   6.239   1.762   3.004
    1   AR   Ar   23   0.616   0.457   0.411
    1   AR   Ar   24   6.665   2.361   2.067
    1   AR   Ar   25   0.536   1.740   4.437
    1   AR   Ar   26   6.443   0.157   4.156
    1   AR   Ar   27   1.622   0.844   2.726
    1   AR   Ar   28   0.246   2.560   4.956
    1   AR   Ar   29   5.540   3.109   7.025
    1   AR   Ar   30   1.567   1.357   3.833
    1   AR   Ar   31   3.183   0.733   7.102
    1   AR   Ar   32   1.323   2.569   6.527
    1   AR   Ar   33   0.513   4.662   0.457
    1   AR   Ar   34   0.167   5.039   2.299
    1   AR   Ar   35   5.939   5.819   1.246
    1   AR   Ar   36   5.849   1.440  -2.905
    1   AR   Ar   37   5.508   2.323   2.348
    1   AR   Ar   38   7.016   3.980   2.806
    1   AR   Ar   39   1.156   4.146   2.147
    1   AR   Ar   40   2.200   3.343   1.789
    1   AR   Ar   41   0.059   2.189   3.607
    1   AR   Ar   42   5.596   5.103   4.743
    1   AR   Ar   43   6.695   2.298   5.979
    1   AR   Ar   44   0.828   4.506   3.285
    1   AR   Ar   45   0.556   3.454   5.636
    1   AR   Ar   46   0.070   4.901   5.036
    1   AR   Ar   47   5.337   4.007   7.585
    1   AR   Ar   48   6.342   4.764   6.839
    1   AR   Ar   49   5.021   0.793  -1.091
    1   AR   Ar   50   4.349   4.896   0.817
    1   AR   Ar   51   6.307   5.043   1.703
    1   AR   Ar   52   6.164   3.165  -2.806
    1   AR   Ar   53   5.512   5.719   2.379
    1   AR   Ar   54   0.392   6.103   2.424
    1   AR   Ar   55   6.557   5.795   2.469
    1   AR   Ar   56   6.887   0.431   1.347
    1   AR   Ar   57   4.771   3.492   3.240
    1   AR   Ar   58   6.812   3.355   4.209
    1   AR   Ar   59   2.282   4.969   5.988
    1   AR   Ar   60   0.248   5.363   3.464
    1   AR   Ar   61   0.017   4.577   6.179
    1   AR   Ar   62   6.821   4.613   4.132
    1   AR   Ar   63   1.898   1.126   5.889
    1   AR   Ar   64   1.145   5.608   5.228
    1   AR   Ar   65   3.538   6.772   0.643
    1   AR   Ar   66   0.840   1.433   1.884
    1   AR   Ar   67   4.081   6.892  -0.382
    1   AR   Ar   68   2.041   1.958  -0.982
    1   AR   Ar   69   2.255   1.161   0.601
    1   AR   Ar   70   0.829   0.220   1.920
    1   AR   Ar   71   2.535   1.113   3.827
    1   AR   Ar   72   4.132   6.644   2.432
    1   AR   Ar   73   4.245   0.303   3.307
    1   AR   Ar   74   1.153   0.497   4.757
    1   AR   Ar   75   3.500   0.833   4.925
    1   AR   Ar   76   1.595   0.489   1.217
    1   AR   Ar   77   1.928   0.042   5.483
    1   AR   Ar   78   0.513   5.922   6.021
    1   AR   Ar   79   3.967   5.698   6.509
    1   AR   Ar   80   3.866   4.947   5.776
    1   AR   Ar   81   2.815   6.206   0.258
    1   AR   Ar   82   6.559   4.748   0.579
    1   AR   Ar   83   1.129   2.185   1.102
    1   AR   Ar   84   7.073   4.336   1.344
    1   AR   Ar   85   1.226   3.285   0.935
    1   AR   Ar   86   2.108   5.697   0.802
    1   AR   Ar   87   2.063   2.386   1.319
    1   AR   Ar   88   2.083   4.428   1.539
    1   AR   Ar   89   0.196   2.845   2.726
    1   AR   Ar   90   2.716   2.098   4.402
    1   AR   Ar   91   1.204   2.379   3.422
    1   AR   Ar   92   1.733   2.316   2.323
    1   AR   Ar   93   0.987   0.437   5.871
    1   AR   Ar   94   0.394   0.112  11.349
    1   AR   Ar   95   4.140   0.487   5.922
    1   AR   Ar   96   2.673   7.061   4.626
    1   AR   Ar   97   4.486   1.590  -0.394
    1   AR   Ar   98   1.799   4.723   3.008
    1   AR   Ar   99   6.529   1.575  -0.132
    1   AR   Ar  100   1.446   3.019  -0.924
    1   AR   Ar  101   3.313   4.759   1.560
    1   AR   Ar  102   3.350   1.760   2.790
    1   AR   Ar  103   1.058   4.833   1.301
    1   AR   Ar  104   2.842   3.839  -1.032
    1   AR   Ar  105   1.322   2.792   4.468
    1   AR   Ar  106   3.606   2.975   5.711
    1   AR   Ar  107   0.451   3.971   4.404
    1   AR   Ar  108   2.140   0.900   4.801
    1   AR   Ar  109   1.623   3.610   5.319
    1   AR   Ar  110   2.399   2.844   5.405
    1   AR   Ar  111   5.085   5.130   7.700
    1   AR   Ar  112   1.259   5.165   6.362
    1   AR   Ar  113   3.091   4.652   0.484
    1   AR   Ar  114   2.624   0.111  -0.843
    1   AR   Ar  115   2.387   4.562  -0.306
    1   AR   Ar  116   6.632   0.624  -0.840
    1   AR   Ar  117   0.834   5.104   4.304
    1   AR   Ar  118   1.298   5.643   3.251
    1   AR   Ar  119   2.276   3.644   2.828
    1   AR   Ar  120   1.590   6.435   1.955
    1   AR   Ar  121   5.782   4.121   5.197
    1   AR   Ar  122   2.849   5.953   5.733
    1   AR   Ar  123   3.190   3.825   5.238
    1   AR   Ar  124   1.221   5.575   2.180
    1   AR   Ar  125   6.823   3.917   5.172
    1   AR   Ar  126   6.819   6.649   4.933
    1   AR   Ar  127   4.349   3.743   6.198
    1   AR   Ar  128   3.471   4.658   6.621
    1   AR   Ar  129   2.316   5.946   3.559
    1   AR   Ar  130   4.449   2.440  -3.086
    1   AR   Ar  131   3.494   2.874  -0.729
    1   AR   Ar  132   0.442   2.362   0.050
    1   AR   Ar  133   4.811   6.339   3.257
    1   AR   Ar  134   4.660   1.177   4.669
    1   AR   Ar  135   6.005   0.902   2.456
    1   AR   Ar  136   5.606   6.933   2.886
    1   AR   Ar  137   1.888   4.887   4.372
    1   AR   Ar  138   5.015   1.353   5.844
    1   AR   Ar  139   5.866   1.837   5.370
    1   AR   Ar  140   4.209   6.726   4.208
    1   AR   Ar  141   3.778   4.753   4.521
    1   AR   Ar  142   3.278   6.851   6.137
    1   AR   Ar  143   6.076   0.063   5.730
    1   AR   Ar  144   6.884   1.583   5.099
    1   AR   Ar  145   5.151   4.475  -0.237
    1   AR   Ar  146   2.740   2.574   2.180
    1   AR   Ar  147   4.340   2.535  -1.350
    1   AR   Ar  148   3.238   6.052  -0.793
    1   AR   Ar  149   2.927   2.071  -0.126
    1   AR   Ar  150   2.468   1.532   2.324
    1   AR   Ar  151   2.444   2.279   3.240
    1   AR   Ar  152   2.487   2.908  -1.294
    1   AR   Ar  153   5.086   0.308   4.261
    1   AR   Ar  154   3.548   1.796   3.773
    1   AR   Ar  155   6.362   4.976   5.691
    1   AR   Ar  156   3.390   3.346   3.386
    1   AR   Ar  157   1.087   4.241   6.037
    1   AR   Ar  158   0.527   2.045   6.867
    1   AR   Ar  159   4.332   1.724   7.256
    1   AR   Ar  160   1.232   1.878   5.233
    1   AR   Ar  161   5.228   4.056   1.953
    1   AR   Ar  162   4.601   5.907  -0.733
    1   AR   Ar  163   6.025   3.956  -0.227
    1   AR   Ar  164   2.465   5.355   2.290
    1   AR   Ar  165   4.267   2.277   0.638
    1   AR   Ar  166   3.025   3.028   4.501
    1   AR   Ar  167   4.940   0.710   2.581
    1   AR   Ar  168   5.262   3.819  -1.787
    1   AR   Ar  169   3.261   4.025   2.437
    1   AR   Ar  170   2.663   4.064   6.245
    1   AR   Ar  171   5.990   3.808   3.833
    1   AR   Ar  172   4.693   4.423   5.383
    1   AR   Ar  173   3.088   3.234   6.615
    1   AR   Ar  174   2.165   6.123   6.413
    1   AR   Ar  175   3.399   2.223   6.377
    1   AR   Ar  176   3.941   2.244   4.686
    1   AR   Ar  177   6.972   5.865  -1.151
    1   AR   Ar  178   3.783   4.982  -0.231
    1   AR   Ar  179   3.926   5.984   0.152
    1   AR   Ar  180   2.270   1.796  -3.383
    1   AR   Ar  181   0.229   5.674   0.962
    1   AR   Ar  182   2.490   6.936   2.866
    1   AR   Ar  183   3.920   5.127   2.305
    1   AR   Ar  184   4.848   6.121   0.608
    1   AR   Ar  185   2.748   4.923   5.055
    1   AR   Ar  186   3.180   5.010   3.301
    1   AR   Ar  187   3.391   6.512   3.297
    1   AR   Ar  188   3.182   6.995   1.921
    1   AR   Ar  189   4.359   2.486   6.232
    1   AR   Ar  190   3.248   6.046   4.228
    1   AR   Ar  191   2.812   6.229   7.700
    1   AR   Ar  192   3.878   6.052   5.077
    1   AR   Ar  193   3.292   5.806   1.481
    1   AR   Ar  194   4.249   4.045  -1.186
    1   AR   Ar  195   5.425   1.708   0.155
    1   AR   Ar  196   4.566   0.744   0.493
    1   AR   Ar  197   3.666   1.395   0.288
    1   AR   Ar  198   6.417   1.402   1.667
    1   AR   Ar  199   2.983   0.694   2.682
    1   AR   Ar  200   5.840   2.836  -0.110
    1   AR   Ar  201   5.713   6.155   3.947
    1   AR   Ar  202   6.056   0.790   4.892
    1   AR   Ar  203   6.671   6.859   3.041
    1   AR   Ar  204   4.678   6.551   5.236
    1   AR   Ar  205   6.636   6.594   1.835
    1   AR   Ar  206   5.013   0.442   5.318
    1   AR   Ar  207   0.626   1.497   5.991
    1   AR   Ar  208   0.748   6.328   3.878
    1   AR   Ar  209   0.106   2.733  -1.723
    1   AR   Ar  210   2.289   0.006   0.434
    1   AR   Ar  211   6.620   3.309   0.608
    1   AR   Ar  212   6.190   2.971  -1.115
    1   AR   Ar  213   3.185   0.794   1.415
    1   AR   Ar  214   4.773   3.100   2.102
    1   AR   Ar  215   5.815   2.431   1.291
    1   AR   Ar  216   0.588   2.791   1.753
    1   AR   Ar  217   5.144   3.132   4.334
    1   AR   Ar  218   4.283   3.396   5.080
    1   AR   Ar  219   4.318   2.586   3.652
    1   AR   Ar  220   3.711   3.741   1.543
    1   AR   Ar  221   6.745   5.708   4.187
    1   AR   Ar  222   4.995   0.299   6.498
    1   AR   Ar  223   5.966   1.185   6.499
    1   AR   Ar  224   4.769   2.419   5.243
    1   AR   Ar  225   6.330   3.033   3.033
    1   AR   Ar  226   2.220   3.589   4.060
    1   AR   Ar  227   6.517   3.397   1.731
    1   AR   Ar  228   5.649   6.803   1.690
    1   AR   Ar  229   5.903   5.698  -1.435
    1   AR   Ar  230   4.196   4.435   3.251
    1   AR   Ar  231   5.533   1.574   4.092
    1   AR   Ar  232   5.014   1.798   1.256
    1   AR   Ar  233   6.322   2.331   4.147
    1   AR   Ar  234   6.271   3.023   4.923
    1   AR   Ar  235   6.563   1.155   3.775
    1   AR   Ar  236   5.313   5.372   5.769
    1   AR   Ar  237   5.884   3.143   5.959
    1   AR   Ar  238   5.269   4.184   6.300
    1   AR   Ar  239   6.690   4.378   9.151
    1   AR   Ar  240   6.644   2.700   6.971
    1   AR   Ar  241   1.811   6.423  -0.307
    1   AR   Ar  242   5.458   5.288   0.393
    1   AR   Ar  243   4.893   4.819   2.741
    1   AR   Ar  244   0.252   5.487  -0.244
    1   AR   Ar  245   4.065   0.506   2.013
    1   AR   Ar  246   5.510   7.071  -0.032
    1   AR   Ar  247   6.014   4.071   1.001
    1   AR   Ar  248   5.857   5.910  -0.402
    1   AR   Ar  249   4.600   5.633   1.627
    1   AR   Ar  250   4.669   5.486   4.632
    1   AR   Ar  251   4.972   4.229   4.272
    1   AR   Ar  252   4.047   5.725   3.669
    1   AR   Ar  253   6.906   3.588   6.355
    1   AR   Ar  254   2.029   2.475   9.093
    1   AR   Ar  255   3.861   4.483  10.055
    1   AR   Ar  256   6.371   4.957   3.078
    7.12000  7.12000 12.00000
Argon-slab step 3615
  256
    1   AR   Ar    1   5.482   2.193  -2.247
    1   AR   Ar    2   5.935   0.559   0.639
    1   AR   Ar    3   3.227   1.392  -0.833
    1   AR   Ar    4   1.522   0.807   0.060
    1   AR   Ar    5   6.757   6.478   0.525
    1   AR   Ar    6   0.017   0.969   2.461
    1   AR   Ar    7   5.897   3.936   2.740
    1   AR   Ar    8   5.121   0.535   1.523
    1   AR   Ar    9   1.077   7.052   3.009
    1   AR   Ar   10   0.243   0.571   4.145
    1   AR   Ar   11   1.670   6.824   4.517
    1   AR   Ar   12   0.699   1.347   3.187
    1   AR   Ar   13   0.033   0.552   5.288
    1   AR   Ar   14   6.063   1.837   7.565
    1   AR   Ar   15   5.294   6.652   7.875
    1   AR   Ar   16   0.845   6.653   5.115
    1   AR   Ar   17   6.638   2.231   0.752
    1   AR   Ar   18   6.451   4.849  -0.737
    1   AR   Ar   19   3.251   3.443   0.567
    1   AR   Ar   20   4.720   5.013  -2.478
    1   AR   Ar   21   3.127   1.989   1.400
    1   AR   Ar   22   6.196   1.742   2.991
    1   AR   Ar   23   0.613   0.439   0.419
    1   AR   Ar   24   6.663   2.348   2.055
    1   AR   Ar   25   0.545   1.741   4.447
    1   AR   Ar   26   6.447   0.149   4.158
    1   AR   Ar   27   1.625   0.836   2.724
    1   AR   Ar   28   0.248   2.591   4.964
    1   AR   Ar   29   5.535   3.126   7.013
    1   AR   Ar   30   1.570   1.375   3.853
    1   AR   Ar   31   3.180   0.757   7.120
    1   AR   Ar   32   1.316   2.584   6.555
    1   AR   Ar   33   0.500   4.662   0.440
    1   AR   Ar   34   0.171   5.013   2.300
    1   AR   Ar   35   5.912   5.837   1.254
    1   AR   Ar   36   5.844   1.478  -2.901
    1   AR   Ar   37   5.487   2.327   2.342
    1   AR   Ar   38   7.005   4.011   2.818
    1   AR   Ar   39   1.177   4.148   2.150
    1   AR   Ar   40   2.172   3.350   1.789
    1   AR   Ar   41   0.062   2.199   3.595
    1   AR   Ar   42   5.634   5.128   4.775
    1   AR   Ar   43   6.667   2.317   5.999
    1   AR   Ar   44   0.829   4.505   3.295
    1   AR   Ar   45   0.534   3.448   5.648
    1   AR   Ar   46   0.077   4.902   5.043
    1   AR   Ar   47   5.319   3.998   7.611
    1   AR   Ar   48   6.326   4.741   6.857
    1   AR   Ar   49   5.001   0.794  -1.068
    1   AR   Ar   50   4.362   4.934   0.829
    1   AR   Ar   51   6.299   5.017   1.711
    1   AR   Ar   52   6.157   3.158  -2.770
    1   AR   Ar   53   5.513   5.727   2.381
    1   AR   Ar   54   0.389   6.088   2.412
    1   AR   Ar   55   6.562   5.781   2.491
    1   AR   Ar   56   6.900   0.403   1.343
    1   AR   Ar   57   4.756   3.503   3.205
    1   AR   Ar   58   6.839   3.327   4.186
    1   AR   Ar   59   2.279   4.961   6.017
    1   AR   Ar   60   0.229   5.348   3.452
    1   AR   Ar   61   0.030   4.577   6.224
    1   AR   Ar   62   6.787   4.576   4.138
    1   AR   Ar   63   1.868   1.154   5.882
    1   AR   Ar   64   1.119   5.612   5.224
    1   AR   Ar   65   3.535   6.785   0.669
    1   AR   Ar   66   0.830   1.438   1.893
    1   AR   Ar   67   4.097   6.862  -0.398
    1   AR   Ar   68   2.039   1.967  -0.984
    1   AR   Ar   69   2.239   1.136   0.605
    1   AR   Ar   70   0.826   0.227   1.924
    1   AR   Ar   71   2.562   1.117   3.814
    1   AR   Ar   72   4.154   6.606   2.453
    1   AR   Ar   73   4.241   0.300   3.301
    1   AR   Ar   74   1.154   0.499   4.749
    1   AR   Ar   75   3.505   0.804   4.938
    1   AR   Ar   76   1.582   0.490   1.220
    1   AR   Ar   77   1.951   0.031   5.469
    1   AR   Ar   78   0.480   5.949   6.015
    1   AR   Ar   79   3.998   5.670   6.529
    1   AR   Ar   80   3.884   4.979   5.771
    1   AR   Ar   81   2.777   6.184   0.247
    1   AR   Ar   82   6.533   4.770   0.579
    1   AR   Ar   83   1.126   2.170   1.119
    1   AR   Ar   84   7.088   4.353   1.353
    1   AR   Ar   85   1.208   3.277   0.936
    1   AR   Ar   86   2.120   5.700   0.810
    1   AR   Ar   87   2.079   2.392   1.310
    1   AR   Ar   88   2.090   4.458   1.537
    1   AR   Ar   89   0.159   2.853   2.711
    1   AR   Ar   90   2.735   2.063   4.402
    1   AR   Ar   91   1.218   2.361   3.403
    1   AR   Ar   92   1.761   2.313   2.371
    1   AR   Ar   93   0.998   0.430   5.878
    1   AR   Ar   94   0.419   0.122  11.344
    1   AR   Ar   95   4.147   0.479   5.911
    1   AR   Ar   96   2.653   7.057   4.627
    1   AR   Ar   97   4.530   1.609  -0.404
    1   AR   Ar   98   1.760   4.704   3.018
    1   AR   Ar   99   6.520   1.596  -0.139
    1   AR   Ar  100   1.484   3.013  -0.955
    1   AR   Ar  101   3.304   4.760   1.552
    1   AR   Ar  102   3.352   1.726   2.765
    1   AR   Ar  103   1.073   4.811   1.266
    1   AR   Ar  104   2.862   3.893  -1.026
    1   AR   Ar  105   1.372   2.765   4.448
    1   AR   Ar  106   3.622   2.967   5.698
    1   AR   Ar  107   0.455   3.986   4.419
    1   AR   Ar  108   2.147   0.920   4.805
    1   AR   Ar  109   1.646   3.598   5.338
    1   AR   Ar  110   2.398   2.829   5.392
    1   AR   Ar  111   5.116   5.124   7.681
    1   AR   Ar  112   1.256   5.149   6.356
    1   AR   Ar  113   3.130   4.666   0.514
    1   AR   Ar  114   2.605   0.099  -0.826
    1   AR   Ar  115   2.404   4.536  -0.310
    1   AR   Ar  116   6.641   0.630  -0.836
    1   AR   Ar  117   0.847   5.110   4.264
    1   AR   Ar  118   1.347   5.638   3.235
    1   AR   Ar  119   2.319   3.638   2.883
    1   AR   Ar  120   1.574   6.459   1.942
    1   AR   Ar  121   5.771   4.127   5.208
    1   AR   Ar  122   2.831   5.935   5.733
    1   AR   Ar  123   3.169   3.843   5.273
    1   AR   Ar  124   1.227   5.559   2.189
    1   AR   Ar  125   6.832   3.939   5.193
    1   AR   Ar  126   6.812   6.635   4.924
    1   AR   Ar  127   4.340   3.747   6.221
    1   AR   Ar  128   3.467   4.681   6.624
    1   AR   Ar  129   2.320   5.968   3.580
    1   AR   Ar  130   4.482   2.415  -3.097
    1   AR   Ar  131   3.464   2.906  -0.725
    1   AR   Ar  132   0.466   2.348   0.054
    1   AR   Ar  133   4.827   6.349   3.225
    1   AR   Ar  134   4.675   1.166   4.657
    1   AR   Ar  135   5.987   0.882   2.448
    1   AR   Ar  136   5.638   6.950   2.888
    1   AR   Ar  137   1.914   4.888   4.335
    1   AR   Ar  138   5.015   1.344   5.849
    1   AR   Ar  139   5.833   1.843   5.377
    1   AR   Ar  140   4.203   6.729   4.184
    1   AR   Ar  141   3.756   4.744   4.519
    1   AR   Ar  142   3.293   6.846   6.111
    1   AR   Ar  143   6.132   0.024   5.738
    1   AR   Ar  144   6.890   1.562   5.077
    1   AR   Ar  145   5.142   4.463  -0.219
    1   AR   Ar  146   2.750   2.591   2.179
    1   AR   Ar  147   4.347   2.552  -1.341
    1   AR   Ar  148   3.233   6.070  -0.745
    1   AR   Ar  149   2.960   2.051  -0.120
    1   AR   Ar  150   2.472   1.528   2.318
    1   AR   Ar  151   2.432   2.296   3.228
    1   AR   Ar  152   2.456   2.891  -1.299
    1   AR   Ar  153   5.090   0.324   4.242
    1   AR   Ar  154   3.539   1.800   3.787
    1   AR   Ar  155   6.366   4.942   5.678
    1   AR   Ar  156   3.362   3.341   3.372
    1   AR   Ar  157   1.078   4.266   5.998
    1   AR   Ar  158   0.516   2.062   6.858
    1   AR   Ar  159   4.334   1.728   7.253
    1   AR   Ar  160   1.260   1.860   5.226
    1   AR   Ar  161   5.218   4.065   1.951
    1   AR   Ar  162   4.598   5.893  -0.731
    1   AR   Ar  163   6.029   3.971  -0.228
    1   AR   Ar  164   2.447   5.358   2.283
    1   AR   Ar  165   4.287   2.309   0.645
    1   AR   Ar  166   3.035   3.016   4.500
    1   AR   Ar  167   4.954   0.691   2.578
    1   AR   Ar  168   5.244   3.828  -1.812
    1   AR   Ar  169   3.269   4.042   2.420
    1   AR   Ar  170   2.665   4.047   6.233
    1   AR   Ar  171   5.984   3.799   3.843
    1   AR   Ar  172   4.676   4.409   5.367
    1   AR   Ar  173   3.098   3.263   6.624
    1   AR   Ar  174   2.127   6.122   6.419
    1   AR   Ar  175   3.422   2.183   6.374
    1   AR   Ar  176   3.948   2.260   4.676
    1   AR   Ar  177   6.954   5.846  -1.131
    1   AR   Ar  178   3.769   5.003  -0.231
    1   AR   Ar  179   3.986   6.002   0.155
    1   AR   Ar  180   2.298   1.774  -3.394
    1   AR   Ar  181   0.234   5.694   0.963
    1   AR   Ar  182   2.493   6.896   2.874
    1   AR   Ar  183   3.949   5.127   2.312
    1   AR   Ar  184   4.836   6.141   0.593
    1   AR   Ar  185   2.782   4.909   5.081
    1   AR   Ar  186   3.158   5.032   3.299
    1   AR   Ar  187   3.380   6.579   3.303
    1   AR   Ar  188   3.179   6.996   1.926
    1   AR   Ar  189   4.374   2.474   6.239
    1   AR   Ar  190   3.222   6.073   4.220
    1   AR   Ar  191   2.815   6.253   7.702
    1   AR   Ar  192   3.876   6.026   5.092
    1   AR   Ar  193   3.269   5.809   1.445
    1   AR   Ar  194   4.251   4.013  -1.173
    1   AR   Ar  195   5.423   1.698   0.142
    1   AR   Ar  196   4.547   0.768   0.478
    1   AR   Ar  197   3.651   1.400   0.288
    1   AR   Ar  198   6.439   1.412   1.687
    1   AR   Ar  199   2.967   0.704   2.652
    1   AR   Ar  200   5.846   2.859  -0.082
    1   AR   Ar  201   5.713   6.132   3.936
    1   AR   Ar  202   6.083   0.826   4.895
    1   AR   Ar  203   6.697   6.889   3.035
    1   AR   Ar  204   4.714   6.568   5.231
    1   AR   Ar  205   6.627   6.563   1.835
    1   AR   Ar  206   5.033   0.413   5.337
    1   AR   Ar  207   0.618   1.498   6.007
    1   AR   Ar  208   0.760   6.333   3.918
    1   AR   Ar  209   0.088   2.730  -1.729
    1   AR   Ar  210   2.279   7.099   0.450
    1   AR   Ar  211   6.628   3.325   0.599
    1   AR   Ar  212   6.213   2.984  -1.109
    1   AR   Ar  213   3.172   0.805   1.413
    1   AR   Ar  214   4.797   3.070   2.082
    1   AR   Ar  215   5.843   2.452   1.332
    1   AR   Ar  216   0.583   2.782   1.748
    1   AR   Ar  217   5.152   3.105   4.290
    1   AR   Ar  218   4.303   3.395   5.052
    1   AR   Ar  219   4.322   2.592   3.614
    1   AR   Ar  220   3.690   3.736   1.543
    1   AR   Ar  221   6.732   5.717   4.228
    1   AR   Ar  222   4.937   0.287   6.510
    1   AR   Ar  223   5.959   1.215   6.520
    1   AR   Ar  224   4.755   2.423   5.245
    1   AR   Ar  225   6.350   3.018   3.042
    1   AR   Ar  226   2.229   3.587   4.044
    1   AR   Ar  227   6.548   3.405   1.739
    1   AR   Ar  228   5.638   6.756   1.712
    1   AR   Ar  229   5.954   5.702  -1.446
    1   AR   Ar  230   4.196   4.405   3.253
    1   AR   Ar  231   5.521   1.592   4.107
    1   AR   Ar  232   5.021   1.809   1.269
    1   AR   Ar  233   6.352   2.344   4.140
    1   AR   Ar  234   6.250   3.054   4.949
    1   AR   Ar  235   6.578   1.179   3.794
    1   AR   Ar  236   5.299   5.383   5.797
    1   AR   Ar  237   5.861   3.127   5.951
    1   AR   Ar  238   5.301   4.187   6.302
    1   AR   Ar  239   6.702   4.364   9.166
    1   AR   Ar  240   6.707   2.694   6.974
    1   AR   Ar  241   1.802   6.431  -0.322
    1   AR   Ar  242   5.469   5.346   0.437
    1   AR   Ar  243   4.910   4.868   2.730
    1   AR   Ar  244   0.265   5.508  -0.236
    1   AR   Ar  245   4.066   0.502   2.019
    1   AR   Ar  246   5.509   7.068  -0.014
    1   AR   Ar  247   6.007   4.095   0.989
    1   AR   Ar  248   5.860   5.928  -0.421
    1   AR   Ar  249   4.585   5.663   1.593
    1   AR   Ar  250   4.635   5.472   4.627
    1   AR   Ar  251   4.955   4.233   4.232
    1   AR   Ar  252   4.039   5.735   3.643
    1   AR   Ar  253   6.923   3.572   6.355
    1   AR   Ar  254   2.018   2.480   9.075
    1   AR   Ar  255   3.856   4.509  10.055
    1   AR   Ar  256   6.382   4.951   3.101
    7.12000  7.12000 12.00000
Argon-slab step 3620
  256
    1   AR   Ar    1   5.444   2.170  -2.259
    1   AR   Ar    2   5.914   0.557   0.659
    1   AR   Ar    3   3.249   1.403  -0.850
    1   AR   Ar    4   1.524   0.790   0.086
    1   AR   Ar    5   6.748   6.478   0.499
    1   AR   Ar    6   0.026   0.975   2.450
    1   AR   Ar    7   5.887   3.960   2.768
    1   AR   Ar    8   5.090   0.536   1.537
    1   AR   Ar    9   1.077   7.053   3.017
    1   AR   Ar   10   0.230   0.529   4.147
    1   AR   Ar   11   1.667   6.819   4.501
    1   AR   Ar   12   0.683   1.353   3.155
    1   AR   Ar   13   0.025   0.542   5.267
    1   AR   Ar   14   6.046   1.837   7.597
    1   AR   Ar   15   5.289   6.659   7.877
    1   AR   Ar   16   0.842   6.670   5.117
    1   AR   Ar   17   6.623   2.249   0.725
    1   AR   Ar   18   6.443   4.840  -0.752
    1   AR   Ar   19   3.276   3.442   0.533
    1   AR   Ar   20   4.748   4.998  -2.490
    1   AR   Ar   21   3.164   1.954   1.417
    1   AR   Ar   22   6.185   1.760   2.976
    1   AR   Ar   23   0.617   0.436   0.423
    1   AR   Ar   24   6.661   2.336   2.044
    1   AR   Ar   25   0.562   1.739   4.454
    1   AR   Ar   26   6.442   0.137   4.156
    1   AR   Ar   27   1.630   0.830   2.721
    1   AR   Ar   28   0.248   2.626   4.973
    1   AR   Ar   29   5.530   3.143   7.000
    1   AR   Ar   30   1.569   1.395   3.876
    1   AR   Ar   31   3.177   0.781   7.136
    1   AR   Ar   32   1.315   2.604   6.578
    1   AR   Ar   33   0.483   4.661   0.418
    1   AR   Ar   34   0.177   4.984   2.302
    1   AR   Ar   35   5.885   5.860   1.260
    1   AR   Ar   36   5.841   1.513  -2.901
    1   AR   Ar   37   5.441   2.329   2.341
    1   AR   Ar   38   6.995   4.042   2.830
    1   AR   Ar   39   1.198   4.152   2.154
    1   AR   Ar   40   2.140   3.363   1.789
    1   AR   Ar   41   0.095   2.196   3.603
    1   AR   Ar   42   5.675   5.152   4.806
    1   AR   Ar   43   6.653   2.340   6.005
    1   AR   Ar   44   0.821   4.500   3.307
    1   AR   Ar   45   0.516   3.436   5.656
    1   AR   Ar   46   0.090   4.908   5.052
    1   AR   Ar   47   5.302   3.991   7.637
    1   AR   Ar   48   6.306   4.718   6.876
    1   AR   Ar   49   4.981   0.796  -1.043
    1   AR   Ar   50   4.374   4.973   0.840
    1   AR   Ar   51   6.332   5.011   1.720
    1   AR   Ar   52   6.149   3.151  -2.732
    1   AR   Ar   53   5.513   5.737   2.381
    1   AR   Ar   54   0.405   6.082   2.415
    1   AR   Ar   55   6.559   5.765   2.516
    1   AR   Ar   56   6.912   0.376   1.339
    1   AR   Ar   57   4.745   3.514   3.169
    1   AR   Ar   58   6.870   3.295   4.156
    1   AR   Ar   59   2.274   4.961   6.047
    1   AR   Ar   60   0.228   5.349   3.433
    1   AR   Ar   61   0.052   4.578   6.268
    1   AR   Ar   62   6.748   4.541   4.139
    1   AR   Ar   63   1.837   1.182   5.875
    1   AR   Ar   64   1.094   5.614   5.219
    1   AR   Ar   65   3.532   6.803   0.699
    1   AR   Ar   66   0.825   1.448   1.877
    1   AR   Ar   67   4.114   6.835  -0.416
    1   AR   Ar   68   2.014   1.977  -1.005
    1   AR   Ar   69   2.239   1.119   0.619
    1   AR   Ar   70   0.820   0.234   1.931
    1   AR   Ar   71   2.595   1.120   3.799
    1   AR   Ar   72   4.174   6.568   2.471
    1   AR   Ar   73   4.237   0.296   3.295
    1   AR   Ar   74   1.146   0.514   4.744
    1   AR   Ar   75   3.510   0.776   4.950
    1   AR   Ar   76   1.570   0.491   1.221
    1   AR   Ar   77   1.973   0.021   5.458
    1   AR   Ar   78   0.445   5.977   6.009
    1   AR   Ar   79   4.030   5.645   6.551
    1   AR   Ar   80   3.903   5.012   5.752
    1   AR   Ar   81   2.745   6.163   0.229
    1   AR   Ar   82   6.516   4.812   0.566
    1   AR   Ar   83   1.116   2.150   1.131
    1   AR   Ar   84   7.106   4.368   1.367
    1   AR   Ar   85   1.190   3.270   0.939
    1   AR   Ar   86   2.122   5.690   0.825
    1   AR   Ar   87   2.104   2.398   1.301
    1   AR   Ar   88   2.099   4.489   1.536
    1   AR   Ar   89   0.132   2.863   2.700
    1   AR   Ar   90   2.748   2.022   4.404
    1   AR   Ar   91   1.231   2.341   3.384
    1   AR   Ar   92   1.781   2.311   2.419
    1   AR   Ar   93   1.027   0.419   5.886
    1   AR   Ar   94   0.432   0.128  11.337
    1   AR   Ar   95   4.146   0.472   5.896
    1   AR   Ar   96   2.642   7.054   4.627
    1   AR   Ar   97   4.571   1.628  -0.416
    1   AR   Ar   98   1.735   4.684   3.024
    1   AR   Ar   99   6.528   1.577  -0.122
    1   AR   Ar  100   1.517   3.008  -0.984
    1   AR   Ar  101   3.293   4.758   1.545
    1   AR   Ar  102   3.360   1.694   2.739
    1   AR   Ar  103   1.090   4.792   1.238
    1   AR   Ar  104   2.885   3.946  -1.021
    1   AR   Ar  105   1.422   2.738   4.429
    1   AR   Ar  106   3.633   2.959   5.683
    1   AR   Ar  107   0.469   4.005   4.441
    1   AR   Ar  108   2.141   0.883   4.835
    1   AR   Ar  109   1.664   3.591   5.356
    1   AR   Ar  110   2.400   2.812   5.378
    1   AR   Ar  111   5.147   5.117   7.662
    1   AR   Ar  112   1.248   5.148   6.357
    1   AR   Ar  113   3.167   4.679   0.546
    1   AR   Ar  114   2.586   0.085  -0.807
    1   AR   Ar  115   2.421   4.511  -0.312
    1   AR   Ar  116   6.645   0.621  -0.835
    1   AR   Ar  117   0.861   5.115   4.226
    1   AR   Ar  118   1.392   5.634   3.222
    1   AR   Ar  119   2.347   3.631   2.925
    1   AR   Ar  120   1.561   6.493   1.929
    1   AR   Ar  121   5.757   4.131   5.219
    1   AR   Ar  122   2.820   5.913   5.726
    1   AR   Ar  123   3.150   3.863   5.307
    1   AR   Ar  124   1.240   5.533   2.201
    1   AR   Ar  125   6.839   3.960   5.215
    1   AR   Ar  126   6.807   6.620   4.917
    1   AR   Ar  127   4.326   3.748   6.242
    1   AR   Ar  128   3.460   4.701   6.634
    1   AR   Ar  129   2.325   5.990   3.600
    1   AR   Ar  130   4.515   2.391  -3.108
    1   AR   Ar  131   3.439   2.937  -0.718
    1   AR   Ar  132   0.488   2.334   0.059
    1   AR   Ar  133   4.845   6.358   3.195
    1   AR   Ar  134   4.686   1.163   4.648
    1   AR   Ar  135   5.968   0.855   2.441
    1   AR   Ar  136   5.669   6.968   2.889
    1   AR   Ar  137   1.942   4.890   4.296
    1   AR   Ar  138   5.013   1.337   5.857
    1   AR   Ar  139   5.804   1.847   5.381
    1   AR   Ar  140   4.216   6.743   4.179
    1   AR   Ar  141   3.736   4.734   4.518
    1   AR   Ar  142   3.309   6.842   6.086
    1   AR   Ar  143   6.187   7.105   5.745
    1   AR   Ar  144   6.900   1.553   5.088
    1   AR   Ar  145   5.134   4.457  -0.214
    1   AR   Ar  146   2.766   2.609   2.183
    1   AR   Ar  147   4.354   2.568  -1.332
    1   AR   Ar  148   3.230   6.087  -0.696
    1   AR   Ar  149   2.967   2.066  -0.121
    1   AR   Ar  150   2.480   1.585   2.322
    1   AR   Ar  151   2.421   2.312   3.219
    1   AR   Ar  152   2.431   2.876  -1.305
    1   AR   Ar  153   5.097   0.334   4.220
    1   AR   Ar  154   3.529   1.796   3.804
    1   AR   Ar  155   6.363   4.910   5.664
    1   AR   Ar  156   3.334   3.336   3.358
    1   AR   Ar  157   1.067   4.280   5.953
    1   AR   Ar  158   0.498   2.079   6.855
    1   AR   Ar  159   4.336   1.733   7.248
    1   AR   Ar  160   1.291   1.843   5.219
    1   AR   Ar  161   5.206   4.077   1.946
    1   AR   Ar  162   4.597   5.879  -0.728
    1   AR   Ar  163   6.039   3.982  -0.246
    1   AR   Ar  164   2.429   5.361   2.276
    1   AR   Ar  165   4.306   2.341   0.649
    1   AR   Ar  166   3.051   3.011   4.500
    1   AR   Ar  167   4.967   0.672   2.577
    1   AR   Ar  168   5.227   3.836  -1.836
    1   AR   Ar  169   3.275   4.063   2.409
    1   AR   Ar  170   2.662   4.035   6.215
    1   AR   Ar  171   5.977   3.776   3.877
    1   AR   Ar  172   4.663   4.394   5.350
    1   AR   Ar  173   3.116   3.281   6.637
    1   AR   Ar  174   2.083   6.121   6.430
    1   AR   Ar  175   3.438   2.139   6.374
    1   AR   Ar  176   3.956   2.288   4.655
    1   AR   Ar  177   6.937   5.827  -1.112
    1   AR   Ar  178   3.759   5.026  -0.234
    1   AR   Ar  179   4.030   6.009   0.153
    1   AR   Ar  180   2.327   1.752  -3.406
    1   AR   Ar  181   0.240   5.711   0.965
    1   AR   Ar  182   2.489   6.855   2.880
    1   AR   Ar  183   3.977   5.127   2.323
    1   AR   Ar  184   4.837   6.169   0.587
    1   AR   Ar  185   2.818   4.895   5.106
    1   AR   Ar  186   3.136   5.054   3.296
    1   AR   Ar  187   3.374   6.647   3.310
    1   AR   Ar  188   3.175   6.993   1.932
    1   AR   Ar  189   4.400   2.463   6.249
    1   AR   Ar  190   3.194   6.099   4.217
    1   AR   Ar  191   2.818   6.276   7.703
    1   AR   Ar  192   3.863   5.995   5.109
    1   AR   Ar  193   3.247   5.815   1.409
    1   AR   Ar  194   4.253   3.981  -1.159
    1   AR   Ar  195   5.425   1.689   0.132
    1   AR   Ar  196   4.530   0.792   0.464
    1   AR   Ar  197   3.638   1.402   0.290
    1   AR   Ar  198   6.461   1.421   1.701
    1   AR   Ar  199   2.954   0.710   2.623
    1   AR   Ar  200   5.853   2.880  -0.051
    1   AR   Ar  201   5.714   6.110   3.925
    1   AR   Ar  202   6.108   0.863   4.899
    1   AR   Ar  203   6.725   6.918   3.029
    1   AR   Ar  204   4.754   6.584   5.227
    1   AR   Ar  205   6.626   6.534   1.832
    1   AR   Ar  206   5.061   0.386   5.348
    1   AR   Ar  207   0.609   1.496   6.017
    1   AR   Ar  208   0.772   6.338   3.958
    1   AR   Ar  209   0.069   2.728  -1.736
    1   AR   Ar  210   2.268   7.076   0.467
    1   AR   Ar  211   6.637   3.340   0.589
    1   AR   Ar  212   6.236   2.997  -1.103
    1   AR   Ar  213   3.158   0.820   1.410
    1   AR   Ar  214   4.819   3.042   2.061
    1   AR   Ar  215   5.869   2.477   1.376
    1   AR   Ar  216   0.575   2.776   1.744
    1   AR   Ar  217   5.161   3.078   4.247
    1   AR   Ar  218   4.325   3.398   5.022
    1   AR   Ar  219   4.326   2.599   3.577
    1   AR   Ar  220   3.693   3.705   1.549
    1   AR   Ar  221   6.718   5.725   4.272
    1   AR   Ar  222   4.887   0.274   6.525
    1   AR   Ar  223   5.951   1.246   6.540
    1   AR   Ar  224   4.751   2.427   5.249
    1   AR   Ar  225   6.363   3.002   3.055
    1   AR   Ar  226   2.236   3.586   4.028
    1   AR   Ar  227   6.579   3.414   1.749
    1   AR   Ar  228   5.620   6.710   1.736
    1   AR   Ar  229   6.002   5.704  -1.460
    1   AR   Ar  230   4.186   4.373   3.261
    1   AR   Ar  231   5.511   1.609   4.122
    1   AR   Ar  232   5.026   1.815   1.281
    1   AR   Ar  233   6.375   2.355   4.137
    1   AR   Ar  234   6.223   3.081   4.982
    1   AR   Ar  235   6.591   1.206   3.815
    1   AR   Ar  236   5.285   5.393   5.826
    1   AR   Ar  237   5.860   3.109   5.943
    1   AR   Ar  238   5.337   4.192   6.304
    1   AR   Ar  239   6.714   4.349   9.182
    1   AR   Ar  240   6.768   2.689   6.979
    1   AR   Ar  241   1.794   6.438  -0.336
    1   AR   Ar  242   5.482   5.397   0.478
    1   AR   Ar  243   4.936   4.921   2.713
    1   AR   Ar  244   0.278   5.528  -0.224
    1   AR   Ar  245   4.065   0.499   2.025
    1   AR   Ar  246   5.509   7.072  -0.000
    1   AR   Ar  247   5.987   4.106   0.988
    1   AR   Ar  248   5.864   5.946  -0.435
    1   AR   Ar  249   4.573   5.696   1.561
    1   AR   Ar  250   4.600   5.457   4.621
    1   AR   Ar  251   4.937   4.237   4.192
    1   AR   Ar  252   4.033   5.741   3.615
    1   AR   Ar  253   6.934   3.552   6.358
    1   AR   Ar  254   2.018   2.470   9.064
    1   AR   Ar  255   3.854   4.554  10.058
    1   AR   Ar  256   6.393   4.940   3.125
    7.12000  7.12000 12.00000
Argon-slab step 3625
  256
    1   AR   Ar    1   5.402   2.154  -2.265
    1   AR   Ar    2   5.900   0.563   0.689
    1   AR   Ar    3   3.273   1.411  -0.870
    1   AR   Ar    4   1.516   0.767   0.099
    1   AR   Ar    5   6.737   6.479   0.474
    1   AR   Ar    6   0.031   0.976   2.438
    1   AR   Ar    7   5.877   3.985   2.797
    1   AR   Ar    8   5.061   0.539   1.548
    1   AR   Ar    9   1.099   7.041   3.029
    1   AR   Ar   10   0.229   0.491   4.149
    1   AR   Ar   11   1.664   6.802   4.477
    1   AR   Ar   12   0.671   1.359   3.126
    1   AR   Ar   13   0.018   0.528   5.245
    1   AR   Ar   14   6.030   1.837   7.628
    1   AR   Ar   15   5.283   6.666   7.878
    1   AR   Ar   16   0.833   6.687   5.122
    1   AR   Ar   17   6.613   2.265   0.696
    1   AR   Ar   18   6.436   4.834  -0.767
    1   AR   Ar   19   3.302   3.443   0.498
    1   AR   Ar   20   4.775   4.982  -2.503
    1   AR   Ar   21   3.200   1.917   1.433
    1   AR   Ar   22   6.184   1.789   2.961
    1   AR   Ar   23   0.632   0.454   0.418
    1   AR   Ar   24   6.659   2.330   2.036
    1   AR   Ar   25   0.584   1.734   4.454
    1   AR   Ar   26   6.426   0.121   4.151
    1   AR   Ar   27   1.635   0.826   2.718
    1   AR   Ar   28   0.245   2.662   4.983
    1   AR   Ar   29   5.527   3.158   6.985
    1   AR   Ar   30   1.565   1.415   3.899
    1   AR   Ar   31   3.175   0.805   7.152
    1   AR   Ar   32   1.320   2.628   6.597
    1   AR   Ar   33   0.464   4.659   0.393
    1   AR   Ar   34   0.185   4.955   2.304
    1   AR   Ar   35   5.864   5.883   1.271
    1   AR   Ar   36   5.842   1.542  -2.906
    1   AR   Ar   37   5.404   2.322   2.344
    1   AR   Ar   38   6.993   4.057   2.837
    1   AR   Ar   39   1.218   4.156   2.159
    1   AR   Ar   40   2.105   3.380   1.789
    1   AR   Ar   41   0.132   2.192   3.605
    1   AR   Ar   42   5.717   5.177   4.835
    1   AR   Ar   43   6.650   2.364   6.001
    1   AR   Ar   44   0.801   4.489   3.322
    1   AR   Ar   45   0.505   3.420   5.657
    1   AR   Ar   46   0.107   4.915   5.061
    1   AR   Ar   47   5.284   3.986   7.662
    1   AR   Ar   48   6.283   4.695   6.894
    1   AR   Ar   49   4.962   0.797  -1.017
    1   AR   Ar   50   4.384   5.010   0.846
    1   AR   Ar   51   6.389   5.020   1.729
    1   AR   Ar   52   6.140   3.142  -2.692
    1   AR   Ar   53   5.511   5.750   2.379
    1   AR   Ar   54   0.433   6.083   2.428
    1   AR   Ar   55   6.554   5.749   2.544
    1   AR   Ar   56   6.925   0.349   1.336
    1   AR   Ar   57   4.738   3.522   3.132
    1   AR   Ar   58   6.905   3.263   4.124
    1   AR   Ar   59   2.266   4.967   6.075
    1   AR   Ar   60   0.236   5.355   3.405
    1   AR   Ar   61   0.079   4.581   6.309
    1   AR   Ar   62   6.705   4.508   4.138
    1   AR   Ar   63   1.806   1.208   5.867
    1   AR   Ar   64   1.080   5.625   5.224
    1   AR   Ar   65   3.529   6.823   0.731
    1   AR   Ar   66   0.822   1.457   1.865
    1   AR   Ar   67   4.130   6.816  -0.437
    1   AR   Ar   68   1.988   1.983  -1.025
    1   AR   Ar   69   2.259   1.109   0.647
    1   AR   Ar   70   0.812   0.242   1.940
    1   AR   Ar   71   2.632   1.122   3.781
    1   AR   Ar   72   4.188   6.532   2.484
    1   AR   Ar   73   4.233   0.290   3.288
    1   AR   Ar   74   1.132   0.539   4.742
    1   AR   Ar   75   3.514   0.747   4.962
    1   AR   Ar   76   1.559   0.492   1.220
    1   AR   Ar   77   1.995   0.011   5.453
    1   AR   Ar   78   0.411   6.004   6.002
    1   AR   Ar   79   4.062   5.625   6.576
    1   AR   Ar   80   3.921   5.045   5.723
    1   AR   Ar   81   2.723   6.145   0.207
    1   AR   Ar   82   6.504   4.866   0.546
    1   AR   Ar   83   1.105   2.127   1.137
    1   AR   Ar   84   0.007   4.380   1.381
    1   AR   Ar   85   1.172   3.263   0.943
    1   AR   Ar   86   2.116   5.673   0.849
    1   AR   Ar   87   2.135   2.403   1.294
    1   AR   Ar   88   2.110   4.520   1.537
    1   AR   Ar   89   0.127   2.875   2.687
    1   AR   Ar   90   2.752   1.978   4.411
    1   AR   Ar   91   1.244   2.321   3.366
    1   AR   Ar   92   1.789   2.314   2.461
    1   AR   Ar   93   1.054   0.408   5.891
    1   AR   Ar   94   0.403   0.117  11.318
    1   AR   Ar   95   4.135   0.469   5.874
    1   AR   Ar   96   2.641   7.052   4.626
    1   AR   Ar   97   4.603   1.648  -0.429
    1   AR   Ar   98   1.726   4.663   3.023
    1   AR   Ar   99   6.539   1.548  -0.099
    1   AR   Ar  100   1.537   3.004  -1.008
    1   AR   Ar  101   3.282   4.755   1.546
    1   AR   Ar  102   3.379   1.667   2.716
    1   AR   Ar  103   1.108   4.774   1.215
    1   AR   Ar  104   2.912   3.994  -1.021
    1   AR   Ar  105   1.471   2.710   4.411
    1   AR   Ar  106   3.637   2.954   5.665
    1   AR   Ar  107   0.490   4.025   4.465
    1   AR   Ar  108   2.134   0.835   4.869
    1   AR   Ar  109   1.682   3.584   5.373
    1   AR   Ar  110   2.404   2.794   5.363
    1   AR   Ar  111   5.178   5.111   7.642
    1   AR   Ar  112   1.212   5.158   6.377
    1   AR   Ar  113   3.200   4.691   0.574
    1   AR   Ar  114   2.568   0.071  -0.786
    1   AR   Ar  115   2.428   4.519  -0.294
    1   AR   Ar  116   6.648   0.613  -0.832
    1   AR   Ar  117   0.875   5.120   4.191
    1   AR   Ar  118   1.433   5.635   3.215
    1   AR   Ar  119   2.353   3.624   2.945
    1   AR   Ar  120   1.556   6.524   1.909
    1   AR   Ar  121   5.741   4.132   5.230
    1   AR   Ar  122   2.813   5.888   5.714
    1   AR   Ar  123   3.133   3.881   5.338
    1   AR   Ar  124   1.257   5.498   2.208
    1   AR   Ar  125   6.841   3.978   5.239
    1   AR   Ar  126   6.804   6.605   4.911
    1   AR   Ar  127   4.339   3.772   6.232
    1   AR   Ar  128   3.450   4.719   6.648
    1   AR   Ar  129   2.331   6.012   3.620
    1   AR   Ar  130   4.550   2.366  -3.118
    1   AR   Ar  131   3.438   2.963  -0.698
    1   AR   Ar  132   0.510   2.320   0.066
    1   AR   Ar  133   4.866   6.366   3.172
    1   AR   Ar  134   4.693   1.164   4.644
    1   AR   Ar  135   5.954   0.826   2.434
    1   AR   Ar  136   5.683   6.979   2.878
    1   AR   Ar  137   1.970   4.891   4.256
    1   AR   Ar  138   5.008   1.329   5.865
    1   AR   Ar  139   5.784   1.836   5.383
    1   AR   Ar  140   4.242   6.761   4.187
    1   AR   Ar  141   3.718   4.725   4.517
    1   AR   Ar  142   3.326   6.838   6.059
    1   AR   Ar  143   6.242   7.069   5.750
    1   AR   Ar  144   6.867   1.553   5.124
    1   AR   Ar  145   5.119   4.454  -0.207
    1   AR   Ar  146   2.787   2.628   2.190
    1   AR   Ar  147   4.362   2.585  -1.321
    1   AR   Ar  148   3.230   6.105  -0.648
    1   AR   Ar  149   2.955   2.106  -0.128
    1   AR   Ar  150   2.479   1.636   2.317
    1   AR   Ar  151   2.415   2.327   3.216
    1   AR   Ar  152   2.422   2.863  -1.317
    1   AR   Ar  153   5.108   0.339   4.195
    1   AR   Ar  154   3.523   1.789   3.816
    1   AR   Ar  155   6.355   4.879   5.652
    1   AR   Ar  156   3.306   3.331   3.345
    1   AR   Ar  157   1.055   4.285   5.903
    1   AR   Ar  158   0.474   2.092   6.857
    1   AR   Ar  159   4.337   1.738   7.240
    1   AR   Ar  160   1.323   1.828   5.210
    1   AR   Ar  161   5.194   4.089   1.940
    1   AR   Ar  162   4.598   5.864  -0.726
    1   AR   Ar  163   6.056   3.990  -0.262
    1   AR   Ar  164   2.411   5.363   2.268
    1   AR   Ar  165   4.328   2.365   0.659
    1   AR   Ar  166   3.070   3.010   4.500
    1   AR   Ar  167   4.977   0.652   2.580
    1   AR   Ar  168   5.209   3.845  -1.860
    1   AR   Ar  169   3.278   4.086   2.405
    1   AR   Ar  170   2.652   4.029   6.194
    1   AR   Ar  171   5.966   3.753   3.911
    1   AR   Ar  172   4.652   4.380   5.330
    1   AR   Ar  173   3.103   3.268   6.619
    1   AR   Ar  174   2.035   6.120   6.443
    1   AR   Ar  175   3.447   2.092   6.375
    1   AR   Ar  176   3.957   2.317   4.630
    1   AR   Ar  177   6.931   5.816  -1.103
    1   AR   Ar  178   3.751   5.050  -0.241
    1   AR   Ar  179   4.045   6.004   0.144
    1   AR   Ar  180   2.355   1.731  -3.417
    1   AR   Ar  181   0.246   5.722   0.968
    1   AR   Ar  182   2.478   6.816   2.882
    1   AR   Ar  183   4.001   5.127   2.334
    1   AR   Ar  184   4.861   6.209   0.594
    1   AR   Ar  185   2.854   4.882   5.130
    1   AR   Ar  186   3.114   5.076   3.292
    1   AR   Ar  187   3.378   6.714   3.318
    1   AR   Ar  188   3.170   6.986   1.938
    1   AR   Ar  189   4.432   2.454   6.262
    1   AR   Ar  190   3.166   6.124   4.217
    1   AR   Ar  191   2.821   6.300   7.704
    1   AR   Ar  192   3.845   5.965   5.128
    1   AR   Ar  193   3.225   5.824   1.372
    1   AR   Ar  194   4.255   3.948  -1.144
    1   AR   Ar  195   5.432   1.679   0.128
    1   AR   Ar  196   4.516   0.815   0.450
    1   AR   Ar  197   3.628   1.402   0.295
    1   AR   Ar  198   6.482   1.423   1.708
    1   AR   Ar  199   2.943   0.712   2.595
    1   AR   Ar  200   5.860   2.900  -0.019
    1   AR   Ar  201   5.714   6.088   3.913
    1   AR   Ar  202   6.130   0.899   4.903
    1   AR   Ar  203   6.756   6.946   3.022
    1   AR   Ar  204   4.792   6.588   5.220
    1   AR   Ar  205   6.631   6.507   1.827
    1   AR   Ar  206   5.096   0.370   5.360
    1   AR   Ar  207   0.600   1.491   6.022
    1   AR   Ar  208   0.783   6.343   3.998
    1   AR   Ar  209   0.048   2.725  -1.741
    1   AR   Ar  210   2.269   7.087   0.462
    1   AR   Ar  211   6.647   3.356   0.580
    1   AR   Ar  212   6.260   3.011  -1.097
    1   AR   Ar  213   3.143   0.836   1.406
    1   AR   Ar  214   4.802   3.031   2.063
    1   AR   Ar  215   5.891   2.507   1.418
    1   AR   Ar  216   0.564   2.772   1.740
    1   AR   Ar  217   5.169   3.051   4.205
    1   AR   Ar  218   4.348   3.402   4.988
    1   AR   Ar  219   4.328   2.604   3.543
    1   AR   Ar  220   3.698   3.671   1.550
    1   AR   Ar  221   6.704   5.732   4.316
    1   AR   Ar  222   4.845   0.260   6.544
    1   AR   Ar  223   5.943   1.277   6.558
    1   AR   Ar  224   4.756   2.431   5.257
    1   AR   Ar  225   6.361   2.987   3.075
    1   AR   Ar  226   2.243   3.585   4.013
    1   AR   Ar  227   6.610   3.423   1.759
    1   AR   Ar  228   5.595   6.671   1.765
    1   AR   Ar  229   6.042   5.703  -1.479
    1   AR   Ar  230   4.170   4.345   3.270
    1   AR   Ar  231   5.504   1.627   4.137
    1   AR   Ar  232   5.032   1.820   1.294
    1   AR   Ar  233   6.391   2.365   4.138
    1   AR   Ar  234   6.196   3.107   5.010
    1   AR   Ar  235   6.605   1.235   3.838
    1   AR   Ar  236   5.269   5.400   5.854
    1   AR   Ar  237   5.886   3.090   5.935
    1   AR   Ar  238   5.374   4.196   6.305
    1   AR   Ar  239   6.726   4.334   9.197
    1   AR   Ar  240   6.825   2.686   6.989
    1   AR   Ar  241   1.787   6.447  -0.348
    1   AR   Ar  242   5.494   5.435   0.510
    1   AR   Ar  243   4.965   4.971   2.698
    1   AR   Ar  244   0.290   5.547  -0.207
    1   AR   Ar  245   4.063   0.496   2.030
    1   AR   Ar  246   5.514   7.087   0.010
    1   AR   Ar  247   5.958   4.107   0.994
    1   AR   Ar  248   5.855   5.957  -0.452
    1   AR   Ar  249   4.561   5.732   1.533
    1   AR   Ar  250   4.575   5.456   4.615
    1   AR   Ar  251   4.920   4.240   4.153
    1   AR   Ar  252   4.027   5.747   3.588
    1   AR   Ar  253   6.937   3.532   6.365
    1   AR   Ar  254   2.018   2.461   9.052
    1   AR   Ar  255   3.852   4.600  10.061
    1   AR   Ar  256   6.401   4.926   3.151
    7.12000  7.12000 12.00000
Argon-slab step 3630
  256
    1   AR   Ar    1   5.354   2.147  -2.264
    1   AR   Ar    2   5.890   0.579   0.728
    1   AR   Ar    3   3.297   1.418  -0.891
    1   AR   Ar    4   1.509   0.742   0.100
    1   AR   Ar    5   6.724   6.480   0.449
    1   AR   Ar    6   0.030   0.974   2.421
    1   AR   Ar    7   5.867   4.010   2.826
    1   AR   Ar    8   5.033   0.542   1.554
    1   AR   Ar    9   1.119   7.027   3.041
    1   AR   Ar   10   0.238   0.456   4.150
    1   AR   Ar   11   1.660   6.782   4.447
    1   AR   Ar   12   0.664   1.368   3.103
    1   AR   Ar   13   0.013   0.511   5.223
    1   AR   Ar   14   6.014   1.837   7.657
    1   AR   Ar   15   5.267   6.668   7.881
    1   AR   Ar   16   0.822   6.705   5.128
    1   AR   Ar   17   6.604   2.281   0.668
    1   AR   Ar   18   6.430   4.833  -0.781
    1   AR   Ar   19   3.322   3.442   0.463
    1   AR   Ar   20   4.803   4.966  -2.514
    1   AR   Ar   21   3.236   1.881   1.448
    1   AR   Ar   22   6.184   1.819   2.945
    1   AR   Ar   23   0.637   0.468   0.420
    1   AR   Ar   24   6.664   2.332   2.036
    1   AR   Ar   25   0.587   1.731   4.481
    1   AR   Ar   26   6.399   0.102   4.143
    1   AR   Ar   27   1.641   0.823   2.714
    1   AR   Ar   28   0.236   2.688   4.988
    1   AR   Ar   29   5.524   3.173   6.968
    1   AR   Ar   30   1.560   1.435   3.924
    1   AR   Ar   31   3.173   0.829   7.167
    1   AR   Ar   32   1.329   2.655   6.613
    1   AR   Ar   33   0.442   4.657   0.366
    1   AR   Ar   34   0.212   4.951   2.311
    1   AR   Ar   35   5.855   5.903   1.288
    1   AR   Ar   36   5.847   1.564  -2.919
    1   AR   Ar   37   5.377   2.303   2.354
    1   AR   Ar   38   7.002   4.049   2.835
    1   AR   Ar   39   1.238   4.160   2.165
    1   AR   Ar   40   2.069   3.399   1.791
    1   AR   Ar   41   0.171   2.190   3.603
    1   AR   Ar   42   5.758   5.202   4.862
    1   AR   Ar   43   6.650   2.385   5.992
    1   AR   Ar   44   0.771   4.472   3.338
    1   AR   Ar   45   0.504   3.402   5.653
    1   AR   Ar   46   0.119   4.911   5.077
    1   AR   Ar   47   5.277   3.993   7.668
    1   AR   Ar   48   6.258   4.670   6.912
    1   AR   Ar   49   4.943   0.798  -0.990
    1   AR   Ar   50   4.391   5.043   0.846
    1   AR   Ar   51   6.441   5.032   1.738
    1   AR   Ar   52   6.131   3.133  -2.652
    1   AR   Ar   53   5.512   5.770   2.373
    1   AR   Ar   54   0.461   6.088   2.443
    1   AR   Ar   55   6.549   5.733   2.573
    1   AR   Ar   56   6.901   0.345   1.365
    1   AR   Ar   57   4.738   3.526   3.094
    1   AR   Ar   58   6.942   3.234   4.092
    1   AR   Ar   59   2.257   4.979   6.103
    1   AR   Ar   60   0.240   5.366   3.373
    1   AR   Ar   61   0.107   4.585   6.348
    1   AR   Ar   62   6.663   4.477   4.138
    1   AR   Ar   63   1.778   1.231   5.863
    1   AR   Ar   64   1.072   5.643   5.235
    1   AR   Ar   65   3.525   6.842   0.763
    1   AR   Ar   66   0.818   1.461   1.856
    1   AR   Ar   67   4.137   6.815  -0.446
    1   AR   Ar   68   1.961   1.984  -1.041
    1   AR   Ar   69   2.290   1.106   0.682
    1   AR   Ar   70   0.801   0.251   1.952
    1   AR   Ar   71   2.668   1.122   3.762
    1   AR   Ar   72   4.192   6.499   2.488
    1   AR   Ar   73   4.229   0.283   3.281
    1   AR   Ar   74   1.114   0.570   4.743
    1   AR   Ar   75   3.519   0.718   4.973
    1   AR   Ar   76   1.548   0.493   1.218
    1   AR   Ar   77   2.013   7.115   5.455
    1   AR   Ar   78   0.376   6.031   5.995
    1   AR   Ar   79   4.076   5.623   6.591
    1   AR   Ar   80   3.937   5.076   5.689
    1   AR   Ar   81   2.703   6.131   0.188
    1   AR   Ar   82   6.495   4.925   0.523
    1   AR   Ar   83   1.095   2.105   1.135
    1   AR   Ar   84   0.030   4.389   1.393
    1   AR   Ar   85   1.155   3.255   0.947
    1   AR   Ar   86   2.105   5.652   0.881
    1   AR   Ar   87   2.167   2.407   1.288
    1   AR   Ar   88   2.123   4.552   1.538
    1   AR   Ar   89   0.142   2.892   2.672
    1   AR   Ar   90   2.748   1.938   4.425
    1   AR   Ar   91   1.254   2.302   3.350
    1   AR   Ar   92   1.779   2.327   2.491
    1   AR   Ar   93   1.064   0.404   5.893
    1   AR   Ar   94   0.377   0.111  11.301
    1   AR   Ar   95   4.118   0.468   5.845
    1   AR   Ar   96   2.691   7.047   4.615
    1   AR   Ar   97   4.626   1.668  -0.446
    1   AR   Ar   98   1.730   4.640   3.018
    1   AR   Ar   99   6.551   1.517  -0.078
    1   AR   Ar  100   1.535   3.004  -1.025
    1   AR   Ar  101   3.272   4.753   1.561
    1   AR   Ar  102   3.409   1.644   2.699
    1   AR   Ar  103   1.126   4.759   1.196
    1   AR   Ar  104   2.943   4.037  -1.024
    1   AR   Ar  105   1.521   2.682   4.395
    1   AR   Ar  106   3.638   2.950   5.646
    1   AR   Ar  107   0.515   4.045   4.489
    1   AR   Ar  108   2.130   0.797   4.899
    1   AR   Ar  109   1.699   3.577   5.389
    1   AR   Ar  110   2.411   2.792   5.389
    1   AR   Ar  111   5.210   5.104   7.621
    1   AR   Ar  112   1.176   5.177   6.399
    1   AR   Ar  113   3.231   4.700   0.591
    1   AR   Ar  114   2.549   0.056  -0.763
    1   AR   Ar  115   2.419   4.572  -0.247
    1   AR   Ar  116   6.650   0.605  -0.827
    1   AR   Ar  117   0.890   5.126   4.160
    1   AR   Ar  118   1.468   5.640   3.213
    1   AR   Ar  119   2.358   3.618   2.961
    1   AR   Ar  120   1.576   6.526   1.868
    1   AR   Ar  121   5.723   4.130   5.238
    1   AR   Ar  122   2.808   5.863   5.700
    1   AR   Ar  123   3.122   3.895   5.358
    1   AR   Ar  124   1.275   5.456   2.209
    1   AR   Ar  125   6.839   3.991   5.262
    1   AR   Ar  126   6.804   6.591   4.909
    1   AR   Ar  127   4.351   3.796   6.221
    1   AR   Ar  128   3.438   4.734   6.660
    1   AR   Ar  129   2.336   6.033   3.639
    1   AR   Ar  130   4.544   2.390  -3.135
    1   AR   Ar  131   3.437   2.989  -0.678
    1   AR   Ar  132   0.530   2.306   0.075
    1   AR   Ar  133   4.894   6.370   3.159
    1   AR   Ar  134   4.695   1.170   4.646
    1   AR   Ar  135   5.949   0.796   2.426
    1   AR   Ar  136   5.684   6.983   2.859
    1   AR   Ar  137   1.998   4.893   4.215
    1   AR   Ar  138   4.999   1.320   5.876
    1   AR   Ar  139   5.766   1.830   5.384
    1   AR   Ar  140   4.240   6.800   4.194
    1   AR   Ar  141   3.702   4.716   4.516
    1   AR   Ar  142   3.342   6.833   6.032
    1   AR   Ar  143   6.226   7.027   5.755
    1   AR   Ar  144   6.839   1.562   5.162
    1   AR   Ar  145   5.102   4.455  -0.200
    1   AR   Ar  146   2.811   2.652   2.197
    1   AR   Ar  147   4.369   2.602  -1.310
    1   AR   Ar  148   3.237   6.123  -0.608
    1   AR   Ar  149   2.939   2.136  -0.140
    1   AR   Ar  150   2.474   1.676   2.304
    1   AR   Ar  151   2.418   2.342   3.225
    1   AR   Ar  152   2.439   2.852  -1.336
    1   AR   Ar  153   5.122   0.339   4.167
    1   AR   Ar  154   3.524   1.784   3.826
    1   AR   Ar  155   6.345   4.850   5.645
    1   AR   Ar  156   3.280   3.324   3.332
    1   AR   Ar  157   1.042   4.282   5.859
    1   AR   Ar  158   0.457   2.097   6.861
    1   AR   Ar  159   4.338   1.743   7.231
    1   AR   Ar  160   1.354   1.817   5.198
    1   AR   Ar  161   5.182   4.103   1.933
    1   AR   Ar  162   4.602   5.858  -0.725
    1   AR   Ar  163   6.075   3.992  -0.275
    1   AR   Ar  164   2.393   5.365   2.261
    1   AR   Ar  165   4.368   2.365   0.692
    1   AR   Ar  166   3.091   3.011   4.500
    1   AR   Ar  167   4.980   0.631   2.588
    1   AR   Ar  168   5.194   3.852  -1.874
    1   AR   Ar  169   3.279   4.110   2.407
    1   AR   Ar  170   2.634   4.029   6.176
    1   AR   Ar  171   5.940   3.749   3.936
    1   AR   Ar  172   4.643   4.367   5.309
    1   AR   Ar  173   3.098   3.245   6.605
    1   AR   Ar  174   1.986   6.119   6.455
    1   AR   Ar  175   3.455   2.045   6.377
    1   AR   Ar  176   3.955   2.347   4.604
    1   AR   Ar  177   6.942   5.811  -1.098
    1   AR   Ar  178   3.745   5.074  -0.251
    1   AR   Ar  179   4.027   6.029   0.158
    1   AR   Ar  180   2.383   1.709  -3.428
    1   AR   Ar  181   0.251   5.729   0.972
    1   AR   Ar  182   2.458   6.778   2.879
    1   AR   Ar  183   4.021   5.128   2.344
    1   AR   Ar  184   4.898   6.260   0.612
    1   AR   Ar  185   2.874   4.889   5.128
    1   AR   Ar  186   3.092   5.099   3.288
    1   AR   Ar  187   3.388   6.751   3.340
    1   AR   Ar  188   3.166   6.975   1.945
    1   AR   Ar  189   4.468   2.446   6.277
    1   AR   Ar  190   3.144   6.150   4.221
    1   AR   Ar  191   2.824   6.323   7.703
    1   AR   Ar  192   3.821   5.939   5.148
    1   AR   Ar  193   3.203   5.834   1.334
    1   AR   Ar  194   4.257   3.915  -1.129
    1   AR   Ar  195   5.447   1.670   0.132
    1   AR   Ar  196   4.505   0.838   0.436
    1   AR   Ar  197   3.618   1.402   0.301
    1   AR   Ar  198   6.501   1.415   1.708
    1   AR   Ar  199   2.933   0.712   2.577
    1   AR   Ar  200   5.884   2.869  -0.024
    1   AR   Ar  201   5.713   6.067   3.901
    1   AR   Ar  202   6.144   0.929   4.905
    1   AR   Ar  203   6.789   6.974   3.014
    1   AR   Ar  204   4.823   6.575   5.209
    1   AR   Ar  205   6.639   6.481   1.820
    1   AR   Ar  206   5.140   0.371   5.373
    1   AR   Ar  207   0.591   1.483   6.020
    1   AR   Ar  208   0.793   6.346   4.038
    1   AR   Ar  209   0.028   2.723  -1.747
    1   AR   Ar  210   2.279   0.000   0.442
    1   AR   Ar  211   6.657   3.372   0.569
    1   AR   Ar  212   6.283   3.026  -1.091
    1   AR   Ar  213   3.128   0.851   1.402
    1   AR   Ar  214   4.783   3.026   2.060
    1   AR   Ar  215   5.905   2.541   1.456
    1   AR   Ar  216   0.570   2.771   1.741
    1   AR   Ar  217   5.177   3.024   4.164
    1   AR   Ar  218   4.371   3.407   4.952
    1   AR   Ar  219   4.328   2.609   3.509
    1   AR   Ar  220   3.705   3.636   1.548
    1   AR   Ar  221   6.691   5.734   4.358
    1   AR   Ar  222   4.811   0.244   6.569
    1   AR   Ar  223   5.934   1.310   6.575
    1   AR   Ar  224   4.769   2.433   5.265
    1   AR   Ar  225   6.345   2.972   3.101
    1   AR   Ar  226   2.250   3.583   4.000
    1   AR   Ar  227   6.641   3.431   1.770
    1   AR   Ar  228   5.561   6.648   1.802
    1   AR   Ar  229   6.068   5.700  -1.504
    1   AR   Ar  230   4.149   4.325   3.280
    1   AR   Ar  231   5.500   1.645   4.153
    1   AR   Ar  232   5.039   1.822   1.308
    1   AR   Ar  233   6.400   2.370   4.142
    1   AR   Ar  234   6.174   3.133   5.024
    1   AR   Ar  235   6.618   1.265   3.863
    1   AR   Ar  236   5.252   5.405   5.880
    1   AR   Ar  237   5.907   3.074   5.941
    1   AR   Ar  238   5.414   4.201   6.306
    1   AR   Ar  239   6.738   4.319   9.213
    1   AR   Ar  240   6.870   2.690   7.005
    1   AR   Ar  241   1.782   6.455  -0.361
    1   AR   Ar  242   5.504   5.457   0.525
    1   AR   Ar  243   4.993   5.012   2.686
    1   AR   Ar  244   0.302   5.567  -0.187
    1   AR   Ar  245   4.059   0.493   2.037
    1   AR   Ar  246   5.513   7.094   0.011
    1   AR   Ar  247   5.927   4.106   1.004
    1   AR   Ar  248   5.839   5.963  -0.469
    1   AR   Ar  249   4.552   5.773   1.512
    1   AR   Ar  250   4.563   5.477   4.611
    1   AR   Ar  251   4.914   4.245   4.131
    1   AR   Ar  252   4.020   5.753   3.560
    1   AR   Ar  253   6.930   3.514   6.375
    1   AR   Ar  254   2.018   2.452   9.040
    1   AR   Ar  255   3.850   4.645  10.064
    1   AR   Ar  256   6.407   4.908   3.178
    7.12000  7.12000 12.00000
Argon-slab step 3635
  256
    1   AR   Ar    1   5.302   2.145  -2.257
    1   AR   Ar    2   5.897   0.588   0.759
    1   AR   Ar    3   3.323   1.425  -0.911
    1   AR   Ar    4   1.513   0.720   0.094
    1   AR   Ar    5   6.711   6.481   0.425
    1   AR   Ar    6   0.024   0.965   2.403
    1   AR   Ar    7   5.865   4.020   2.863
    1   AR   Ar    8   5.007   0.545   1.554
    1   AR   Ar    9   1.139   7.011   3.053
    1   AR   Ar   10   0.251   0.422   4.149
    1   AR   Ar   11   1.659   6.761   4.416
    1   AR   Ar   12   0.664   1.378   3.084
    1   AR   Ar   13   0.010   0.493   5.202
    1   AR   Ar   14   5.993   1.835   7.686
    1   AR   Ar   15   5.211   6.649   7.895
    1   AR   Ar   16   0.808   6.723   5.136
    1   AR   Ar   17   6.597   2.297   0.640
    1   AR   Ar   18   6.425   4.837  -0.797
    1   AR   Ar   19   3.325   3.435   0.435
    1   AR   Ar   20   4.831   4.949  -2.525
    1   AR   Ar   21   3.272   1.849   1.464
    1   AR   Ar   22   6.187   1.849   2.931
    1   AR   Ar   23   0.626   0.478   0.428
    1   AR   Ar   24   6.678   2.339   2.046
    1   AR   Ar   25   0.584   1.726   4.514
    1   AR   Ar   26   6.364   0.083   4.134
    1   AR   Ar   27   1.647   0.822   2.709
    1   AR   Ar   28   0.205   2.681   4.982
    1   AR   Ar   29   5.521   3.188   6.951
    1   AR   Ar   30   1.555   1.453   3.951
    1   AR   Ar   31   3.173   0.853   7.182
    1   AR   Ar   32   1.338   2.682   6.627
    1   AR   Ar   33   0.419   4.653   0.340
    1   AR   Ar   34   0.243   4.947   2.320
    1   AR   Ar   35   5.861   5.915   1.311
    1   AR   Ar   36   5.856   1.582  -2.937
    1   AR   Ar   37   5.358   2.274   2.369
    1   AR   Ar   38   7.010   4.039   2.833
    1   AR   Ar   39   1.257   4.166   2.169
    1   AR   Ar   40   2.032   3.419   1.793
    1   AR   Ar   41   0.210   2.189   3.599
    1   AR   Ar   42   5.796   5.228   4.884
    1   AR   Ar   43   6.665   2.362   5.995
    1   AR   Ar   44   0.737   4.449   3.353
    1   AR   Ar   45   0.511   3.383   5.648
    1   AR   Ar   46   0.136   4.913   5.090
    1   AR   Ar   47   5.277   4.008   7.660
    1   AR   Ar   48   6.231   4.645   6.928
    1   AR   Ar   49   4.924   0.797  -0.963
    1   AR   Ar   50   4.396   5.071   0.838
    1   AR   Ar   51   6.485   5.048   1.747
    1   AR   Ar   52   6.121   3.123  -2.610
    1   AR   Ar   53   5.498   5.798   2.366
    1   AR   Ar   54   0.487   6.095   2.460
    1   AR   Ar   55   6.547   5.721   2.603
    1   AR   Ar   56   6.868   0.347   1.402
    1   AR   Ar   57   4.745   3.525   3.054
    1   AR   Ar   58   6.957   3.200   4.079
    1   AR   Ar   59   2.245   4.996   6.130
    1   AR   Ar   60   0.239   5.354   3.350
    1   AR   Ar   61   0.134   4.590   6.384
    1   AR   Ar   62   6.624   4.448   4.141
    1   AR   Ar   63   1.754   1.246   5.867
    1   AR   Ar   64   1.065   5.658   5.246
    1   AR   Ar   65   3.520   6.861   0.795
    1   AR   Ar   66   0.812   1.461   1.855
    1   AR   Ar   67   4.138   6.829  -0.450
    1   AR   Ar   68   1.933   1.980  -1.055
    1   AR   Ar   69   2.326   1.105   0.720
    1   AR   Ar   70   0.788   0.259   1.966
    1   AR   Ar   71   2.702   1.119   3.739
    1   AR   Ar   72   4.186   6.468   2.482
    1   AR   Ar   73   4.250   0.308   3.281
    1   AR   Ar   74   1.095   0.603   4.745
    1   AR   Ar   75   3.522   0.688   4.982
    1   AR   Ar   76   1.538   0.494   1.216
    1   AR   Ar   77   2.028   7.089   5.465
    1   AR   Ar   78   0.341   6.057   5.986
    1   AR   Ar   79   4.060   5.647   6.588
    1   AR   Ar   80   3.951   5.101   5.656
    1   AR   Ar   81   2.678   6.119   0.183
    1   AR   Ar   82   6.487   4.986   0.500
    1   AR   Ar   83   1.090   2.085   1.125
    1   AR   Ar   84   0.057   4.393   1.402
    1   AR   Ar   85   1.139   3.248   0.953
    1   AR   Ar   86   2.110   5.644   0.889
    1   AR   Ar   87   2.199   2.410   1.283
    1   AR   Ar   88   2.138   4.583   1.541
    1   AR   Ar   89   0.153   2.895   2.681
    1   AR   Ar   90   2.733   1.901   4.448
    1   AR   Ar   91   1.261   2.283   3.341
    1   AR   Ar   92   1.751   2.350   2.504
    1   AR   Ar   93   1.049   0.411   5.890
    1   AR   Ar   94   0.357   0.112  11.285
    1   AR   Ar   95   4.099   0.468   5.812
    1   AR   Ar   96   2.745   7.043   4.603
    1   AR   Ar   97   4.640   1.689  -0.466
    1   AR   Ar   98   1.743   4.616   3.011
    1   AR   Ar   99   6.562   1.485  -0.057
    1   AR   Ar  100   1.518   3.006  -1.035
    1   AR   Ar  101   3.262   4.753   1.589
    1   AR   Ar  102   3.446   1.623   2.684
    1   AR   Ar  103   1.142   4.744   1.178
    1   AR   Ar  104   2.976   4.078  -1.028
    1   AR   Ar  105   1.572   2.652   4.379
    1   AR   Ar  106   3.640   2.945   5.627
    1   AR   Ar  107   0.546   4.055   4.505
    1   AR   Ar  108   2.128   0.771   4.920
    1   AR   Ar  109   1.715   3.571   5.404
    1   AR   Ar  110   2.420   2.780   5.412
    1   AR   Ar  111   5.205   5.082   7.595
    1   AR   Ar  112   1.139   5.199   6.420
    1   AR   Ar  113   3.260   4.708   0.596
    1   AR   Ar  114   2.546   0.044  -0.714
    1   AR   Ar  115   2.411   4.627  -0.197
    1   AR   Ar  116   6.651   0.597  -0.822
    1   AR   Ar  117   0.908   5.133   4.135
    1   AR   Ar  118   1.498   5.646   3.215
    1   AR   Ar  119   2.358   3.613   2.970
    1   AR   Ar  120   1.597   6.528   1.828
    1   AR   Ar  121   5.703   4.124   5.244
    1   AR   Ar  122   2.805   5.838   5.685
    1   AR   Ar  123   3.123   3.903   5.363
    1   AR   Ar  124   1.295   5.410   2.205
    1   AR   Ar  125   6.834   3.998   5.286
    1   AR   Ar  126   6.808   6.581   4.910
    1   AR   Ar  127   4.361   3.818   6.209
    1   AR   Ar  128   3.425   4.748   6.671
    1   AR   Ar  129   2.337   6.054   3.655
    1   AR   Ar  130   4.538   2.414  -3.150
    1   AR   Ar  131   3.436   3.016  -0.658
    1   AR   Ar  132   0.550   2.291   0.085
    1   AR   Ar  133   4.929   6.371   3.157
    1   AR   Ar  134   4.693   1.178   4.652
    1   AR   Ar  135   5.955   0.771   2.415
    1   AR   Ar  136   5.689   6.986   2.842
    1   AR   Ar  137   2.027   4.895   4.173
    1   AR   Ar  138   4.987   1.311   5.889
    1   AR   Ar  139   5.751   1.827   5.382
    1   AR   Ar  140   4.218   6.850   4.200
    1   AR   Ar  141   3.691   4.706   4.513
    1   AR   Ar  142   3.357   6.827   6.004
    1   AR   Ar  143   6.190   6.985   5.757
    1   AR   Ar  144   6.821   1.583   5.203
    1   AR   Ar  145   5.083   4.458  -0.192
    1   AR   Ar  146   2.837   2.680   2.206
    1   AR   Ar  147   4.376   2.619  -1.298
    1   AR   Ar  148   3.254   6.141  -0.584
    1   AR   Ar  149   2.923   2.116  -0.181
    1   AR   Ar  150   2.471   1.701   2.285
    1   AR   Ar  151   2.432   2.357   3.246
    1   AR   Ar  152   2.476   2.843  -1.362
    1   AR   Ar  153   5.139   0.337   4.138
    1   AR   Ar  154   3.530   1.787   3.849
    1   AR   Ar  155   6.337   4.824   5.646
    1   AR   Ar  156   3.259   3.316   3.322
    1   AR   Ar  157   1.023   4.265   5.851
    1   AR   Ar  158   0.458   2.085   6.863
    1   AR   Ar  159   4.339   1.749   7.220
    1   AR   Ar  160   1.381   1.812   5.177
    1   AR   Ar  161   5.170   4.116   1.928
    1   AR   Ar  162   4.608   5.865  -0.724
    1   AR   Ar  163   6.096   3.991  -0.284
    1   AR   Ar  164   2.376   5.366   2.255
    1   AR   Ar  165   4.405   2.364   0.724
    1   AR   Ar  166   3.112   3.014   4.501
    1   AR   Ar  167   4.974   0.610   2.602
    1   AR   Ar  168   5.192   3.859  -1.854
    1   AR   Ar  169   3.279   4.135   2.414
    1   AR   Ar  170   2.601   4.014   6.156
    1   AR   Ar  171   5.890   3.771   3.948
    1   AR   Ar  172   4.637   4.357   5.288
    1   AR   Ar  173   3.098   3.214   6.592
    1   AR   Ar  174   1.938   6.116   6.467
    1   AR   Ar  175   3.462   2.024   6.378
    1   AR   Ar  176   3.952   2.379   4.579
    1   AR   Ar  177   6.965   5.808  -1.088
    1   AR   Ar  178   3.741   5.099  -0.264
    1   AR   Ar  179   3.997   6.056   0.184
    1   AR   Ar  180   2.412   1.687  -3.439
    1   AR   Ar  181   0.260   5.737   0.975
    1   AR   Ar  182   2.433   6.742   2.871
    1   AR   Ar  183   4.036   5.130   2.354
    1   AR   Ar  184   4.940   6.320   0.633
    1   AR   Ar  185   2.879   4.912   5.110
    1   AR   Ar  186   3.071   5.122   3.283
    1   AR   Ar  187   3.401   6.768   3.371
    1   AR   Ar  188   3.161   6.963   1.951
    1   AR   Ar  189   4.504   2.439   6.294
    1   AR   Ar  190   3.131   6.173   4.230
    1   AR   Ar  191   2.827   6.347   7.701
    1   AR   Ar  192   3.792   5.921   5.168
    1   AR   Ar  193   3.180   5.845   1.294
    1   AR   Ar  194   4.258   3.881  -1.113
    1   AR   Ar  195   5.469   1.660   0.142
    1   AR   Ar  196   4.497   0.860   0.422
    1   AR   Ar  197   3.607   1.403   0.308
    1   AR   Ar  198   6.515   1.398   1.702
    1   AR   Ar  199   2.926   0.716   2.593
    1   AR   Ar  200   5.907   2.838  -0.028
    1   AR   Ar  201   5.713   6.046   3.889
    1   AR   Ar  202   6.147   0.948   4.900
    1   AR   Ar  203   6.823   7.002   3.006
    1   AR   Ar  204   4.849   6.549   5.195
    1   AR   Ar  205   6.650   6.457   1.812
    1   AR   Ar  206   5.164   0.374   5.383
    1   AR   Ar  207   0.611   1.504   6.005
    1   AR   Ar  208   0.800   6.346   4.076
    1   AR   Ar  209   0.006   2.721  -1.753
    1   AR   Ar  210   2.290   0.035   0.423
    1   AR   Ar  211   6.665   3.381   0.550
    1   AR   Ar  212   6.305   3.041  -1.084
    1   AR   Ar  213   3.112   0.861   1.399
    1   AR   Ar  214   4.778   3.018   2.040
    1   AR   Ar  215   5.909   2.579   1.484
    1   AR   Ar  216   0.600   2.771   1.750
    1   AR   Ar  217   5.183   2.996   4.124
    1   AR   Ar  218   4.394   3.410   4.915
    1   AR   Ar  219   4.311   2.651   3.524
    1   AR   Ar  220   3.712   3.600   1.543
    1   AR   Ar  221   6.679   5.730   4.396
    1   AR   Ar  222   4.781   0.229   6.596
    1   AR   Ar  223   5.925   1.343   6.590
    1   AR   Ar  224   4.787   2.435   5.273
    1   AR   Ar  225   6.323   2.959   3.131
    1   AR   Ar  226   2.256   3.580   3.991
    1   AR   Ar  227   6.672   3.440   1.781
    1   AR   Ar  228   5.525   6.644   1.836
    1   AR   Ar  229   6.080   5.694  -1.537
    1   AR   Ar  230   4.121   4.312   3.291
    1   AR   Ar  231   5.501   1.665   4.168
    1   AR   Ar  232   5.048   1.822   1.323
    1   AR   Ar  233   6.402   2.371   4.149
    1   AR   Ar  234   6.158   3.157   5.017
    1   AR   Ar  235   6.632   1.296   3.888
    1   AR   Ar  236   5.235   5.408   5.905
    1   AR   Ar  237   5.918   3.062   5.964
    1   AR   Ar  238   5.453   4.206   6.306
    1   AR   Ar  239   6.750   4.304   9.228
    1   AR   Ar  240   6.891   2.710   7.029
    1   AR   Ar  241   1.776   6.464  -0.372
    1   AR   Ar  242   5.510   5.461   0.521
    1   AR   Ar  243   5.017   5.040   2.682
    1   AR   Ar  244   0.313   5.587  -0.164
    1   AR   Ar  245   4.051   0.489   2.044
    1   AR   Ar  246   5.515   7.089   0.009
    1   AR   Ar  247   5.897   4.105   1.015
    1   AR   Ar  248   5.822   5.969  -0.483
    1   AR   Ar  249   4.544   5.821   1.499
    1   AR   Ar  250   4.555   5.495   4.604
    1   AR   Ar  251   4.909   4.249   4.113
    1   AR   Ar  252   4.014   5.759   3.533
    1   AR   Ar  253   6.917   3.499   6.387
    1   AR   Ar  254   2.017   2.443   9.029
    1   AR   Ar  255   3.847   4.691  10.068
    1   AR   Ar  256   6.411   4.887   3.207
    7.12000  7.12000 12.00000
Argon-slab step 3640
  256
    1   AR   Ar    1   5.248   2.148  -2.248
    1   AR   Ar    2   5.926   0.582   0.771
    1   AR   Ar    3   3.350   1.431  -0.930
    1   AR   Ar    4   1.529   0.702   0.083
    1   AR   Ar    5   6.695   6.481   0.402
    1   AR   Ar    6   0.025   0.958   2.387
    1   AR   Ar    7   5.861   4.028   2.898
    1   AR   Ar    8   4.985   0.548   1.550
    1   AR   Ar    9   1.158   6.994   3.066
    1   AR   Ar   10   0.264   0.389   4.145
    1   AR   Ar   11   1.665   6.744   4.388
    1   AR   Ar   12   0.669   1.388   3.068
    1   AR   Ar   13   0.009   0.475   5.181
    1   AR   Ar   14   5.964   1.828   7.717
    1   AR   Ar   15   5.154   6.630   7.908
    1   AR   Ar   16   0.792   6.742   5.144
    1   AR   Ar   17   6.591   2.313   0.616
    1   AR   Ar   18   6.421   4.846  -0.812
    1   AR   Ar   19   3.328   3.430   0.406
    1   AR   Ar   20   4.869   4.934  -2.534
    1   AR   Ar   21   3.308   1.827   1.481
    1   AR   Ar   22   6.192   1.878   2.917
    1   AR   Ar   23   0.603   0.484   0.443
    1   AR   Ar   24   6.702   2.347   2.063
    1   AR   Ar   25   0.580   1.720   4.530
    1   AR   Ar   26   6.326   0.065   4.124
    1   AR   Ar   27   1.668   0.816   2.703
    1   AR   Ar   28   0.171   2.668   4.971
    1   AR   Ar   29   5.518   3.204   6.933
    1   AR   Ar   30   1.551   1.470   3.980
    1   AR   Ar   31   3.172   0.878   7.195
    1   AR   Ar   32   1.348   2.711   6.640
    1   AR   Ar   33   0.395   4.647   0.315
    1   AR   Ar   34   0.277   4.945   2.332
    1   AR   Ar   35   5.882   5.912   1.333
    1   AR   Ar   36   5.868   1.599  -2.957
    1   AR   Ar   37   5.344   2.237   2.388
    1   AR   Ar   38   7.016   4.026   2.830
    1   AR   Ar   39   1.255   4.179   2.171
    1   AR   Ar   40   1.994   3.439   1.797
    1   AR   Ar   41   0.245   2.191   3.595
    1   AR   Ar   42   5.829   5.255   4.901
    1   AR   Ar   43   6.685   2.332   5.977
    1   AR   Ar   44   0.704   4.421   3.367
    1   AR   Ar   45   0.522   3.365   5.643
    1   AR   Ar   46   0.137   4.914   5.098
    1   AR   Ar   47   5.270   4.017   7.651
    1   AR   Ar   48   6.205   4.619   6.944
    1   AR   Ar   49   4.907   0.793  -0.935
    1   AR   Ar   50   4.399   5.094   0.825
    1   AR   Ar   51   6.521   5.068   1.755
    1   AR   Ar   52   6.110   3.112  -2.567
    1   AR   Ar   53   5.487   5.836   2.356
    1   AR   Ar   54   0.512   6.104   2.477
    1   AR   Ar   55   6.547   5.712   2.633
    1   AR   Ar   56   6.835   0.350   1.440
    1   AR   Ar   57   4.757   3.522   3.014
    1   AR   Ar   58   6.977   3.175   4.064
    1   AR   Ar   59   2.232   5.017   6.157
    1   AR   Ar   60   0.235   5.340   3.329
    1   AR   Ar   61   0.160   4.595   6.419
    1   AR   Ar   62   6.593   4.423   4.149
    1   AR   Ar   63   1.737   1.252   5.882
    1   AR   Ar   64   1.074   5.662   5.253
    1   AR   Ar   65   3.514   6.880   0.828
    1   AR   Ar   66   0.806   1.455   1.861
    1   AR   Ar   67   4.139   6.850  -0.457
    1   AR   Ar   68   1.905   1.973  -1.068
    1   AR   Ar   69   2.362   1.108   0.758
    1   AR   Ar   70   0.775   0.268   1.982
    1   AR   Ar   71   2.715   1.125   3.724
    1   AR   Ar   72   4.174   6.438   2.472
    1   AR   Ar   73   4.287   0.353   3.287
    1   AR   Ar   74   1.076   0.638   4.750
    1   AR   Ar   75   3.526   0.675   4.983
    1   AR   Ar   76   1.528   0.495   1.213
    1   AR   Ar   77   2.040   7.051   5.483
    1   AR   Ar   78   0.306   6.083   5.976
    1   AR   Ar   79   4.045   5.671   6.584
    1   AR   Ar   80   3.966   5.111   5.629
    1   AR   Ar   81   2.648   6.109   0.189
    1   AR   Ar   82   6.480   5.046   0.478
    1   AR   Ar   83   1.089   2.070   1.106
    1   AR   Ar   84   0.089   4.392   1.406
    1   AR   Ar   85   1.125   3.240   0.958
    1   AR   Ar   86   2.123   5.644   0.884
    1   AR   Ar   87   2.220   2.451   1.271
    1   AR   Ar   88   2.155   4.613   1.544
    1   AR   Ar   89   0.169   2.901   2.696
    1   AR   Ar   90   2.711   1.870   4.477
    1   AR   Ar   91   1.260   2.265   3.344
    1   AR   Ar   92   1.717   2.382   2.498
    1   AR   Ar   93   1.032   0.417   5.886
    1   AR   Ar   94   0.336   0.113  11.269
    1   AR   Ar   95   4.084   0.470   5.780
    1   AR   Ar   96   2.797   7.044   4.593
    1   AR   Ar   97   4.647   1.713  -0.486
    1   AR   Ar   98   1.759   4.593   3.004
    1   AR   Ar   99   6.574   1.450  -0.037
    1   AR   Ar  100   1.493   3.010  -1.043
    1   AR   Ar  101   3.272   4.768   1.558
    1   AR   Ar  102   3.486   1.606   2.671
    1   AR   Ar  103   1.156   4.731   1.162
    1   AR   Ar  104   3.010   4.117  -1.032
    1   AR   Ar  105   1.623   2.621   4.363
    1   AR   Ar  106   3.642   2.939   5.607
    1   AR   Ar  107   0.582   4.049   4.508
    1   AR   Ar  108   2.130   0.760   4.933
    1   AR   Ar  109   1.720   3.565   5.414
    1   AR   Ar  110   2.433   2.767   5.435
    1   AR   Ar  111   5.190   5.059   7.568
    1   AR   Ar  112   1.103   5.224   6.441
    1   AR   Ar  113   3.287   4.716   0.591
    1   AR   Ar  114   2.548   0.033  -0.657
    1   AR   Ar  115   2.404   4.683  -0.147
    1   AR   Ar  116   6.652   0.590  -0.815
    1   AR   Ar  117   0.927   5.143   4.115
    1   AR   Ar  118   1.522   5.653   3.218
    1   AR   Ar  119   2.382   3.656   2.938
    1   AR   Ar  120   1.616   6.530   1.790
    1   AR   Ar  121   5.680   4.115   5.245
    1   AR   Ar  122   2.802   5.816   5.672
    1   AR   Ar  123   3.136   3.906   5.351
    1   AR   Ar  124   1.314   5.360   2.198
    1   AR   Ar  125   6.832   3.995   5.299
    1   AR   Ar  126   6.814   6.578   4.916
    1   AR   Ar  127   4.371   3.839   6.196
    1   AR   Ar  128   3.411   4.761   6.679
    1   AR   Ar  129   2.332   6.072   3.670
    1   AR   Ar  130   4.534   2.438  -3.165
    1   AR   Ar  131   3.443   3.032  -0.645
    1   AR   Ar  132   0.567   2.281   0.095
    1   AR   Ar  133   4.957   6.368   3.160
    1   AR   Ar  134   4.688   1.185   4.662
    1   AR   Ar  135   5.971   0.750   2.401
    1   AR   Ar  136   5.681   6.978   2.819
    1   AR   Ar  137   2.057   4.898   4.130
    1   AR   Ar  138   4.971   1.302   5.903
    1   AR   Ar  139   5.738   1.828   5.379
    1   AR   Ar  140   4.194   6.898   4.208
    1   AR   Ar  141   3.685   4.696   4.508
    1   AR   Ar  142   3.371   6.819   5.974
    1   AR   Ar  143   6.155   6.944   5.759
    1   AR   Ar  144   6.815   1.614   5.247
    1   AR   Ar  145   5.064   4.462  -0.183
    1   AR   Ar  146   2.865   2.711   2.214
    1   AR   Ar  147   4.383   2.636  -1.285
    1   AR   Ar  148   3.282   6.159  -0.576
    1   AR   Ar  149   2.905   2.097  -0.221
    1   AR   Ar  150   2.472   1.716   2.262
    1   AR   Ar  151   2.452   2.371   3.274
    1   AR   Ar  152   2.472   2.846  -1.354
    1   AR   Ar  153   5.159   0.333   4.109
    1   AR   Ar  154   3.543   1.789   3.863
    1   AR   Ar  155   6.331   4.803   5.659
    1   AR   Ar  156   3.244   3.305   3.315
    1   AR   Ar  157   1.005   4.253   5.842
    1   AR   Ar  158   0.475   2.057   6.862
    1   AR   Ar  159   4.346   1.751   7.239
    1   AR   Ar  160   1.405   1.818   5.146
    1   AR   Ar  161   5.158   4.130   1.923
    1   AR   Ar  162   4.614   5.872  -0.722
    1   AR   Ar  163   6.115   3.985  -0.290
    1   AR   Ar  164   2.360   5.368   2.250
    1   AR   Ar  165   4.439   2.364   0.751
    1   AR   Ar  166   3.127   3.022   4.499
    1   AR   Ar  167   4.994   0.611   2.595
    1   AR   Ar  168   5.189   3.865  -1.832
    1   AR   Ar  169   3.279   4.158   2.428
    1   AR   Ar  170   2.556   4.002   6.149
    1   AR   Ar  171   5.840   3.788   3.958
    1   AR   Ar  172   4.632   4.351   5.265
    1   AR   Ar  173   3.100   3.180   6.580
    1   AR   Ar  174   1.889   6.113   6.476
    1   AR   Ar  175   3.469   2.044   6.378
    1   AR   Ar  176   3.953   2.413   4.557
    1   AR   Ar  177   6.994   5.807  -1.075
    1   AR   Ar  178   3.737   5.124  -0.278
    1   AR   Ar  179   3.965   6.076   0.218
    1   AR   Ar  180   2.440   1.665  -3.450
    1   AR   Ar  181   0.275   5.749   0.976
    1   AR   Ar  182   2.407   6.710   2.859
    1   AR   Ar  183   4.046   5.132   2.362
    1   AR   Ar  184   4.913   6.330   0.641
    1   AR   Ar  185   2.881   4.937   5.095
    1   AR   Ar  186   3.033   5.156   3.313
    1   AR   Ar  187   3.402   6.752   3.366
    1   AR   Ar  188   3.157   6.949   1.957
    1   AR   Ar  189   4.540   2.432   6.314
    1   AR   Ar  190   3.130   6.191   4.246
    1   AR   Ar  191   2.830   6.370   7.699
    1   AR   Ar  192   3.768   5.916   5.179
    1   AR   Ar  193   3.159   5.857   1.254
    1   AR   Ar  194   4.260   3.846  -1.097
    1   AR   Ar  195   5.462   1.659   0.153
    1   AR   Ar  196   4.495   0.881   0.409
    1   AR   Ar  197   3.593   1.406   0.315
    1   AR   Ar  198   6.526   1.378   1.689
    1   AR   Ar  199   2.917   0.717   2.609
    1   AR   Ar  200   5.929   2.806  -0.033
    1   AR   Ar  201   5.713   6.025   3.877
    1   AR   Ar  202   6.139   0.955   4.889
    1   AR   Ar  203   6.858   7.030   2.998
    1   AR   Ar  204   4.871   6.516   5.179
    1   AR   Ar  205   6.662   6.433   1.805
    1   AR   Ar  206   5.154   0.371   5.386
    1   AR   Ar  207   0.638   1.532   5.983
    1   AR   Ar  208   0.799   6.343   4.112
    1   AR   Ar  209   7.105   2.719  -1.759
    1   AR   Ar  210   2.302   0.067   0.405
    1   AR   Ar  211   6.674   3.392   0.532
    1   AR   Ar  212   6.327   3.056  -1.076
    1   AR   Ar  213   3.098   0.861   1.398
    1   AR   Ar  214   4.767   3.018   2.016
    1   AR   Ar  215   5.903   2.620   1.505
    1   AR   Ar  216   0.630   2.771   1.759
    1   AR   Ar  217   5.188   2.966   4.086
    1   AR   Ar  218   4.415   3.411   4.875
    1   AR   Ar  219   4.291   2.691   3.539
    1   AR   Ar  220   3.719   3.565   1.539
    1   AR   Ar  221   6.667   5.716   4.429
    1   AR   Ar  222   4.753   0.214   6.623
    1   AR   Ar  223   5.915   1.378   6.604
    1   AR   Ar  224   4.806   2.436   5.279
    1   AR   Ar  225   6.298   2.946   3.163
    1   AR   Ar  226   2.262   3.577   3.987
    1   AR   Ar  227   6.703   3.448   1.792
    1   AR   Ar  228   5.504   6.658   1.823
    1   AR   Ar  229   6.083   5.686  -1.572
    1   AR   Ar  230   4.090   4.304   3.302
    1   AR   Ar  231   5.505   1.685   4.183
    1   AR   Ar  232   5.062   1.819   1.342
    1   AR   Ar  233   6.399   2.364   4.158
    1   AR   Ar  234   6.147   3.181   4.996
    1   AR   Ar  235   6.646   1.327   3.915
    1   AR   Ar  236   5.217   5.410   5.929
    1   AR   Ar  237   5.921   3.054   5.998
    1   AR   Ar  238   5.492   4.209   6.305
    1   AR   Ar  239   6.760   4.294   9.242
    1   AR   Ar  240   6.898   2.715   7.037
    1   AR   Ar  241   1.771   6.473  -0.381
    1   AR   Ar  242   5.510   5.454   0.505
    1   AR   Ar  243   5.034   5.049   2.687
    1   AR   Ar  244   0.323   5.608  -0.139
    1   AR   Ar  245   4.040   0.517   2.022
    1   AR   Ar  246   5.526   7.072   0.007
    1   AR   Ar  247   5.868   4.105   1.026
    1   AR   Ar  248   5.810   5.970  -0.491
    1   AR   Ar  249   4.538   5.874   1.495
    1   AR   Ar  250   4.551   5.511   4.596
    1   AR   Ar  251   4.904   4.253   4.096
    1   AR   Ar  252   4.007   5.766   3.505
    1   AR   Ar  253   6.899   3.490   6.396
    1   AR   Ar  254   2.017   2.434   9.017
    1   AR   Ar  255   3.845   4.736  10.071
    1   AR   Ar  256   6.412   4.865   3.235
    7.12000  7.12000 12.00000
Argon-slab step 3645
  256
    1   AR   Ar    1   5.192   2.152  -2.238
    1   AR   Ar    2   5.956   0.579   0.785
    1   AR   Ar    3   3.378   1.437  -0.950
    1   AR   Ar    4   1.550   0.687   0.068
    1   AR   Ar    5   6.679   6.479   0.379
    1   AR   Ar    6   0.029   0.950   2.376
    1   AR   Ar    7   5.855   4.034   2.931
    1   AR   Ar    8   4.966   0.551   1.539
    1   AR   Ar    9   1.176   6.975   3.077
    1   AR   Ar   10   0.275   0.354   4.137
    1   AR   Ar   11   1.681   6.732   4.363
    1   AR   Ar   12   0.678   1.396   3.054
    1   AR   Ar   13   0.002   0.475   5.147
    1   AR   Ar   14   5.935   1.821   7.746
    1   AR   Ar   15   5.098   6.611   7.920
    1   AR   Ar   16   0.777   6.762   5.152
    1   AR   Ar   17   6.587   2.326   0.596
    1   AR   Ar   18   6.417   4.859  -0.828
    1   AR   Ar   19   3.338   3.418   0.374
    1   AR   Ar   20   4.914   4.921  -2.541
    1   AR   Ar   21   3.345   1.815   1.499
    1   AR   Ar   22   6.200   1.904   2.906
    1   AR   Ar   23   0.572   0.488   0.462
    1   AR   Ar   24   6.729   2.353   2.082
    1   AR   Ar   25   0.578   1.717   4.492
    1   AR   Ar   26   6.286   0.047   4.113
    1   AR   Ar   27   1.694   0.808   2.695
    1   AR   Ar   28   0.133   2.650   4.959
    1   AR   Ar   29   5.513   3.220   6.919
    1   AR   Ar   30   1.573   1.451   3.984
    1   AR   Ar   31   3.173   0.903   7.208
    1   AR   Ar   32   1.349   2.700   6.661
    1   AR   Ar   33   0.370   4.640   0.293
    1   AR   Ar   34   0.307   4.943   2.341
    1   AR   Ar   35   5.913   5.893   1.350
    1   AR   Ar   36   5.879   1.615  -2.978
    1   AR   Ar   37   5.331   2.198   2.407
    1   AR   Ar   38   7.018   4.010   2.825
    1   AR   Ar   39   1.225   4.204   2.169
    1   AR   Ar   40   1.958   3.458   1.801
    1   AR   Ar   41   0.274   2.196   3.592
    1   AR   Ar   42   5.856   5.284   4.913
    1   AR   Ar   43   6.706   2.305   5.963
    1   AR   Ar   44   0.707   4.407   3.368
    1   AR   Ar   45   0.536   3.344   5.639
    1   AR   Ar   46   0.111   4.907   5.099
    1   AR   Ar   47   5.276   3.975   7.640
    1   AR   Ar   48   6.181   4.594   6.961
    1   AR   Ar   49   4.920   0.770  -0.935
    1   AR   Ar   50   4.401   5.115   0.807
    1   AR   Ar   51   6.551   5.093   1.762
    1   AR   Ar   52   6.099   3.100  -2.523
    1   AR   Ar   53   5.484   5.876   2.348
    1   AR   Ar   54   0.536   6.112   2.494
    1   AR   Ar   55   6.549   5.707   2.661
    1   AR   Ar   56   6.803   0.353   1.478
    1   AR   Ar   57   4.772   3.519   2.973
    1   AR   Ar   58   7.001   3.160   4.048
    1   AR   Ar   59   2.218   5.040   6.183
    1   AR   Ar   60   0.229   5.334   3.308
    1   AR   Ar   61   0.183   4.600   6.452
    1   AR   Ar   62   6.570   4.401   4.165
    1   AR   Ar   63   1.724   1.251   5.905
    1   AR   Ar   64   1.092   5.658   5.259
    1   AR   Ar   65   3.507   6.899   0.861
    1   AR   Ar   66   0.799   1.468   1.867
    1   AR   Ar   67   4.143   6.875  -0.465
    1   AR   Ar   68   1.877   1.965  -1.079
    1   AR   Ar   69   2.393   1.114   0.790
    1   AR   Ar   70   0.749   0.286   1.987
    1   AR   Ar   71   2.721   1.131   3.709
    1   AR   Ar   72   4.159   6.410   2.458
    1   AR   Ar   73   4.320   0.395   3.295
    1   AR   Ar   74   1.062   0.642   4.763
    1   AR   Ar   75   3.523   0.692   4.967
    1   AR   Ar   76   1.535   0.492   1.209
    1   AR   Ar   77   2.050   7.004   5.505
    1   AR   Ar   78   0.272   6.109   5.965
    1   AR   Ar   79   4.031   5.697   6.579
    1   AR   Ar   80   3.984   5.100   5.614
    1   AR   Ar   81   2.619   6.105   0.197
    1   AR   Ar   82   6.477   5.105   0.456
    1   AR   Ar   83   1.092   2.058   1.080
    1   AR   Ar   84   0.125   4.386   1.407
    1   AR   Ar   85   1.112   3.234   0.962
    1   AR   Ar   86   2.130   5.636   0.889
    1   AR   Ar   87   2.235   2.469   1.268
    1   AR   Ar   88   2.172   4.641   1.547
    1   AR   Ar   89   0.187   2.911   2.718
    1   AR   Ar   90   2.684   1.842   4.512
    1   AR   Ar   91   1.256   2.248   3.359
    1   AR   Ar   92   1.686   2.420   2.475
    1   AR   Ar   93   1.015   0.424   5.879
    1   AR   Ar   94   0.315   0.114  11.253
    1   AR   Ar   95   4.077   0.472   5.755
    1   AR   Ar   96   2.845   7.056   4.586
    1   AR   Ar   97   4.649   1.740  -0.508
    1   AR   Ar   98   1.778   4.572   2.999
    1   AR   Ar   99   6.584   1.415  -0.017
    1   AR   Ar  100   1.465   3.015  -1.049
    1   AR   Ar  101   3.276   4.795   1.545
    1   AR   Ar  102   3.528   1.592   2.658
    1   AR   Ar  103   1.168   4.719   1.147
    1   AR   Ar  104   3.045   4.155  -1.033
    1   AR   Ar  105   1.675   2.589   4.348
    1   AR   Ar  106   3.645   2.933   5.586
    1   AR   Ar  107   0.618   4.043   4.512
    1   AR   Ar  108   2.134   0.759   4.939
    1   AR   Ar  109   1.707   3.542   5.419
    1   AR   Ar  110   2.448   2.752   5.456
    1   AR   Ar  111   5.176   5.038   7.539
    1   AR   Ar  112   1.067   5.249   6.459
    1   AR   Ar  113   3.313   4.722   0.572
    1   AR   Ar  114   2.553   0.022  -0.601
    1   AR   Ar  115   2.398   4.739  -0.096
    1   AR   Ar  116   6.653   0.583  -0.807
    1   AR   Ar  117   0.948   5.154   4.099
    1   AR   Ar  118   1.540   5.658   3.220
    1   AR   Ar  119   2.399   3.700   2.898
    1   AR   Ar  120   1.636   6.532   1.752
    1   AR   Ar  121   5.656   4.103   5.243
    1   AR   Ar  122   2.798   5.797   5.660
    1   AR   Ar  123   3.157   3.907   5.329
    1   AR   Ar  124   1.323   5.314   2.191
    1   AR   Ar  125   6.837   3.980   5.295
    1   AR   Ar  126   6.823   6.582   4.927
    1   AR   Ar  127   4.430   3.845   6.200
    1   AR   Ar  128   3.396   4.772   6.684
    1   AR   Ar  129   2.324   6.089   3.686
    1   AR   Ar  130   4.530   2.454  -3.177
    1   AR   Ar  131   3.462   3.029  -0.643
    1   AR   Ar  132   0.570   2.282   0.100
    1   AR   Ar  133   4.953   6.359   3.157
    1   AR   Ar  134   4.692   1.209   4.651
    1   AR   Ar  135   5.998   0.734   2.382
    1   AR   Ar  136   5.654   6.957   2.789
    1   AR   Ar  137   2.086   4.901   4.084
    1   AR   Ar  138   4.960   1.318   5.899
    1   AR   Ar  139   5.726   1.832   5.376
    1   AR   Ar  140   4.169   6.943   4.218
    1   AR   Ar  141   3.686   4.685   4.500
    1   AR   Ar  142   3.384   6.808   5.943
    1   AR   Ar  143   6.119   6.904   5.758
    1   AR   Ar  144   6.816   1.646   5.289
    1   AR   Ar  145   5.045   4.467  -0.174
    1   AR   Ar  146   2.891   2.744   2.224
    1   AR   Ar  147   4.390   2.654  -1.271
    1   AR   Ar  148   3.314   6.178  -0.578
    1   AR   Ar  149   2.885   2.080  -0.260
    1   AR   Ar  150   2.475   1.725   2.238
    1   AR   Ar  151   2.466   2.377   3.295
    1   AR   Ar  152   2.474   2.849  -1.346
    1   AR   Ar  153   5.179   0.329   4.079
    1   AR   Ar  154   3.554   1.790   3.867
    1   AR   Ar  155   6.327   4.786   5.683
    1   AR   Ar  156   3.266   3.291   3.302
    1   AR   Ar  157   0.989   4.247   5.833
    1   AR   Ar  158   0.502   2.022   6.861
    1   AR   Ar  159   4.355   1.751   7.264
    1   AR   Ar  160   1.429   1.830   5.108
    1   AR   Ar  161   5.147   4.143   1.920
    1   AR   Ar  162   4.621   5.879  -0.718
    1   AR   Ar  163   6.134   3.976  -0.293
    1   AR   Ar  164   2.349   5.372   2.248
    1   AR   Ar  165   4.469   2.367   0.775
    1   AR   Ar  166   3.124   3.047   4.487
    1   AR   Ar  167   5.008   0.614   2.589
    1   AR   Ar  168   5.187   3.871  -1.811
    1   AR   Ar  169   3.278   4.179   2.444
    1   AR   Ar  170   2.504   3.990   6.150
    1   AR   Ar  171   5.788   3.799   3.968
    1   AR   Ar  172   4.628   4.349   5.242
    1   AR   Ar  173   3.105   3.144   6.566
    1   AR   Ar  174   1.841   6.108   6.484
    1   AR   Ar  175   3.476   2.065   6.379
    1   AR   Ar  176   3.960   2.448   4.541
    1   AR   Ar  177   7.025   5.807  -1.061
    1   AR   Ar  178   3.735   5.151  -0.295
    1   AR   Ar  179   3.932   6.091   0.258
    1   AR   Ar  180   2.469   1.644  -3.462
    1   AR   Ar  181   0.289   5.760   0.979
    1   AR   Ar  182   2.381   6.681   2.842
    1   AR   Ar  183   4.051   5.135   2.370
    1   AR   Ar  184   4.889   6.345   0.647
    1   AR   Ar  185   2.878   4.963   5.082
    1   AR   Ar  186   2.994   5.191   3.343
    1   AR   Ar  187   3.413   6.735   3.344
    1   AR   Ar  188   3.154   6.940   1.960
    1   AR   Ar  189   4.575   2.425   6.335
    1   AR   Ar  190   3.145   6.196   4.265
    1   AR   Ar  191   2.833   6.394   7.696
    1   AR   Ar  192   3.781   5.920   5.171
    1   AR   Ar  193   3.138   5.868   1.213
    1   AR   Ar  194   4.261   3.811  -1.080
    1   AR   Ar  195   5.454   1.666   0.166
    1   AR   Ar  196   4.497   0.900   0.396
    1   AR   Ar  197   3.576   1.410   0.323
    1   AR   Ar  198   6.532   1.359   1.670
    1   AR   Ar  199   2.906   0.715   2.625
    1   AR   Ar  200   5.948   2.776  -0.040
    1   AR   Ar  201   5.714   6.005   3.866
    1   AR   Ar  202   6.126   0.955   4.874
    1   AR   Ar  203   6.892   7.059   2.988
    1   AR   Ar  204   4.891   6.477   5.161
    1   AR   Ar  205   6.677   6.410   1.800
    1   AR   Ar  206   5.146   0.372   5.388
    1   AR   Ar  207   0.665   1.557   5.954
    1   AR   Ar  208   0.789   6.334   4.143
    1   AR   Ar  209   7.084   2.717  -1.766
    1   AR   Ar  210   2.316   0.096   0.389
    1   AR   Ar  211   6.682   3.405   0.517
    1   AR   Ar  212   6.327   3.067  -1.067
    1   AR   Ar  213   3.088   0.847   1.402
    1   AR   Ar  214   4.754   3.022   1.990
    1   AR   Ar  215   5.892   2.664   1.520
    1   AR   Ar  216   0.657   2.772   1.770
    1   AR   Ar  217   5.193   2.935   4.050
    1   AR   Ar  218   4.435   3.408   4.833
    1   AR   Ar  219   4.269   2.731   3.555
    1   AR   Ar  220   3.726   3.530   1.535
    1   AR   Ar  221   6.657   5.694   4.456
    1   AR   Ar  222   4.726   0.199   6.649
    1   AR   Ar  223   5.905   1.415   6.617
    1   AR   Ar  224   4.827   2.436   5.282
    1   AR   Ar  225   6.272   2.935   3.196
    1   AR   Ar  226   2.268   3.573   3.986
    1   AR   Ar  227   6.734   3.456   1.804
    1   AR   Ar  228   5.477   6.697   1.809
    1   AR   Ar  229   6.082   5.677  -1.609
    1   AR   Ar  230   4.089   4.298   3.309
    1   AR   Ar  231   5.512   1.707   4.198
    1   AR   Ar  232   5.080   1.811   1.364
    1   AR   Ar  233   6.389   2.351   4.168
    1   AR   Ar  234   6.139   3.202   4.966
    1   AR   Ar  235   6.648   1.343   3.894
    1   AR   Ar  236   5.199   5.409   5.951
    1   AR   Ar  237   5.924   3.047   6.030
    1   AR   Ar  238   5.527   4.211   6.303
    1   AR   Ar  239   6.764   4.306   9.249
    1   AR   Ar  240   6.898   2.708   7.034
    1   AR   Ar  241   1.764   6.482  -0.389
    1   AR   Ar  242   5.529   5.455   0.508
    1   AR   Ar  243   5.047   5.042   2.700
    1   AR   Ar  244   0.333   5.631  -0.111
    1   AR   Ar  245   4.024   0.553   1.995
    1   AR   Ar  246   5.536   7.053   0.003
    1   AR   Ar  247   5.842   4.105   1.036
    1   AR   Ar  248   5.798   5.970  -0.497
    1   AR   Ar  249   4.531   5.929   1.498
    1   AR   Ar  250   4.549   5.525   4.586
    1   AR   Ar  251   4.896   4.258   4.081
    1   AR   Ar  252   4.000   5.774   3.478
    1   AR   Ar  253   6.879   3.489   6.399
    1   AR   Ar  254   2.017   2.424   9.005
    1   AR   Ar  255   3.843   4.781  10.074
    1   AR   Ar  256   6.410   4.844   3.262
    7.12000  7.12000 12.00000
Argon-slab step 3650
  256
    1   AR   Ar    1   5.136   2.157  -2.229
    1   AR   Ar    2   5.986   0.578   0.800
    1   AR   Ar    3   3.408   1.441  -0.969
    1   AR   Ar    4   1.569   0.675   0.052
    1   AR   Ar    5   6.662   6.477   0.357
    1   AR   Ar    6   0.029   0.937   2.370
    1   AR   Ar    7   5.847   4.036   2.960
    1   AR   Ar    8   4.952   0.555   1.523
    1   AR   Ar    9   1.194   6.955   3.089
    1   AR   Ar   10   0.284   0.317   4.123
    1   AR   Ar   11   1.705   6.726   4.342
    1   AR   Ar   12   0.692   1.402   3.040
    1   AR   Ar   13   7.113   0.482   5.111
    1   AR   Ar   14   5.905   1.815   7.774
    1   AR   Ar   15   5.041   6.591   7.932
    1   AR   Ar   16   0.763   6.782   5.160
    1   AR   Ar   17   6.588   2.335   0.584
    1   AR   Ar   18   6.413   4.876  -0.843
    1   AR   Ar   19   3.348   3.408   0.343
    1   AR   Ar   20   4.960   4.907  -2.547
    1   AR   Ar   21   3.384   1.811   1.519
    1   AR   Ar   22   6.218   1.925   2.899
    1   AR   Ar   23   0.540   0.492   0.484
    1   AR   Ar   24   6.757   2.357   2.098
    1   AR   Ar   25   0.573   1.711   4.454
    1   AR   Ar   26   6.279   0.041   4.117
    1   AR   Ar   27   1.719   0.802   2.688
    1   AR   Ar   28   0.093   2.629   4.946
    1   AR   Ar   29   5.504   3.237   6.911
    1   AR   Ar   30   1.602   1.422   3.984
    1   AR   Ar   31   3.182   0.903   7.229
    1   AR   Ar   32   1.347   2.679   6.683
    1   AR   Ar   33   0.345   4.631   0.274
    1   AR   Ar   34   0.306   4.941   2.332
    1   AR   Ar   35   5.944   5.870   1.365
    1   AR   Ar   36   5.891   1.632  -2.999
    1   AR   Ar   37   5.317   2.160   2.424
    1   AR   Ar   38   7.018   3.992   2.819
    1   AR   Ar   39   1.191   4.228   2.165
    1   AR   Ar   40   1.921   3.476   1.806
    1   AR   Ar   41   0.291   2.205   3.592
    1   AR   Ar   42   5.874   5.311   4.926
    1   AR   Ar   43   6.727   2.295   5.967
    1   AR   Ar   44   0.736   4.403   3.359
    1   AR   Ar   45   0.551   3.320   5.635
    1   AR   Ar   46   0.090   4.905   5.098
    1   AR   Ar   47   5.287   3.920   7.628
    1   AR   Ar   48   6.163   4.572   6.982
    1   AR   Ar   49   4.934   0.745  -0.933
    1   AR   Ar   50   4.402   5.136   0.786
    1   AR   Ar   51   6.576   5.120   1.768
    1   AR   Ar   52   6.087   3.088  -2.477
    1   AR   Ar   53   5.484   5.913   2.343
    1   AR   Ar   54   0.561   6.120   2.512
    1   AR   Ar   55   6.551   5.705   2.689
    1   AR   Ar   56   6.772   0.353   1.516
    1   AR   Ar   57   4.790   3.517   2.933
    1   AR   Ar   58   7.027   3.153   4.030
    1   AR   Ar   59   2.260   5.077   6.175
    1   AR   Ar   60   0.225   5.334   3.290
    1   AR   Ar   61   0.201   4.602   6.481
    1   AR   Ar   62   6.557   4.381   4.191
    1   AR   Ar   63   1.714   1.246   5.931
    1   AR   Ar   64   1.109   5.655   5.264
    1   AR   Ar   65   3.499   6.919   0.894
    1   AR   Ar   66   0.794   1.474   1.868
    1   AR   Ar   67   4.148   6.902  -0.472
    1   AR   Ar   68   1.850   1.956  -1.089
    1   AR   Ar   69   2.411   1.126   0.810
    1   AR   Ar   70   0.717   0.310   1.982
    1   AR   Ar   71   2.724   1.134   3.692
    1   AR   Ar   72   4.142   6.382   2.444
    1   AR   Ar   73   4.348   0.435   3.308
    1   AR   Ar   74   1.052   0.640   4.779
    1   AR   Ar   75   3.511   0.702   4.960
    1   AR   Ar   76   1.546   0.487   1.204
    1   AR   Ar   77   2.059   6.954   5.529
    1   AR   Ar   78   0.239   6.134   5.951
    1   AR   Ar   79   4.016   5.722   6.573
    1   AR   Ar   80   4.003   5.072   5.609
    1   AR   Ar   81   2.598   6.109   0.197
    1   AR   Ar   82   6.481   5.162   0.435
    1   AR   Ar   83   1.098   2.049   1.049
    1   AR   Ar   84   0.162   4.378   1.406
    1   AR   Ar   85   1.101   3.229   0.964
    1   AR   Ar   86   2.126   5.620   0.907
    1   AR   Ar   87   2.241   2.453   1.275
    1   AR   Ar   88   2.189   4.665   1.547
    1   AR   Ar   89   0.207   2.924   2.746
    1   AR   Ar   90   2.654   1.816   4.549
    1   AR   Ar   91   1.255   2.233   3.381
    1   AR   Ar   92   1.658   2.461   2.442
    1   AR   Ar   93   0.997   0.430   5.871
    1   AR   Ar   94   0.295   0.114  11.237
    1   AR   Ar   95   4.080   0.473   5.738
    1   AR   Ar   96   2.862   7.084   4.591
    1   AR   Ar   97   4.616   1.750  -0.502
    1   AR   Ar   98   1.797   4.555   2.996
    1   AR   Ar   99   6.595   1.378   0.003
    1   AR   Ar  100   1.434   3.020  -1.055
    1   AR   Ar  101   3.280   4.824   1.546
    1   AR   Ar  102   3.570   1.579   2.646
    1   AR   Ar  103   1.178   4.708   1.133
    1   AR   Ar  104   3.072   4.180  -1.036
    1   AR   Ar  105   1.729   2.557   4.332
    1   AR   Ar  106   3.649   2.926   5.564
    1   AR   Ar  107   0.652   4.037   4.516
    1   AR   Ar  108   2.139   0.762   4.942
    1   AR   Ar  109   1.693   3.519   5.424
    1   AR   Ar  110   2.465   2.737   5.477
    1   AR   Ar  111   5.163   5.019   7.509
    1   AR   Ar  112   1.033   5.275   6.475
    1   AR   Ar  113   3.339   4.726   0.541
    1   AR   Ar  114   2.563   0.012  -0.551
    1   AR   Ar  115   2.394   4.796  -0.044
    1   AR   Ar  116   6.653   0.576  -0.798
    1   AR   Ar  117   0.970   5.167   4.086
    1   AR   Ar  118   1.551   5.660   3.220
    1   AR   Ar  119   2.412   3.744   2.855
    1   AR   Ar  120   1.655   6.534   1.715
    1   AR   Ar  121   5.632   4.091   5.236
    1   AR   Ar  122   2.796   5.785   5.652
    1   AR   Ar  123   3.180   3.906   5.304
    1   AR   Ar  124   1.305   5.286   2.195
    1   AR   Ar  125   6.836   3.968   5.282
    1   AR   Ar  126   6.833   6.590   4.939
    1   AR   Ar  127   4.489   3.850   6.203
    1   AR   Ar  128   3.380   4.784   6.687
    1   AR   Ar  129   2.316   6.105   3.705
    1   AR   Ar  130   4.528   2.442  -3.182
    1   AR   Ar  131   3.483   3.039  -0.644
    1   AR   Ar  132   0.573   2.284   0.105
    1   AR   Ar  133   4.941   6.345   3.161
    1   AR   Ar  134   4.694   1.232   4.643
    1   AR   Ar  135   5.995   0.739   2.405
    1   AR   Ar  136   5.647   6.936   2.778
    1   AR   Ar  137   2.116   4.905   4.038
    1   AR   Ar  138   4.949   1.341   5.892
    1   AR   Ar  139   5.717   1.839   5.372
    1   AR   Ar  140   4.144   6.987   4.229
    1   AR   Ar  141   3.693   4.672   4.490
    1   AR   Ar  142   3.395   6.794   5.911
    1   AR   Ar  143   6.083   6.865   5.756
    1   AR   Ar  144   6.824   1.663   5.313
    1   AR   Ar  145   5.027   4.473  -0.164
    1   AR   Ar  146   2.917   2.779   2.234
    1   AR   Ar  147   4.397   2.671  -1.257
    1   AR   Ar  148   3.345   6.197  -0.586
    1   AR   Ar  149   2.865   2.066  -0.299
    1   AR   Ar  150   2.454   1.729   2.216
    1   AR   Ar  151   2.480   2.383   3.317
    1   AR   Ar  152   2.480   2.852  -1.338
    1   AR   Ar  153   5.200   0.325   4.050
    1   AR   Ar  154   3.549   1.797   3.854
    1   AR   Ar  155   6.323   4.772   5.716
    1   AR   Ar  156   3.300   3.276   3.288
    1   AR   Ar  157   0.975   4.246   5.823
    1   AR   Ar  158   0.533   1.983   6.862
    1   AR   Ar  159   4.363   1.752   7.288
    1   AR   Ar  160   1.453   1.843   5.066
    1   AR   Ar  161   5.134   4.156   1.919
    1   AR   Ar  162   4.627   5.885  -0.711
    1   AR   Ar  163   6.152   3.964  -0.294
    1   AR   Ar  164   2.345   5.380   2.251
    1   AR   Ar  165   4.494   2.373   0.794
    1   AR   Ar  166   3.117   3.074   4.476
    1   AR   Ar  167   5.016   0.622   2.581
    1   AR   Ar  168   5.184   3.877  -1.789
    1   AR   Ar  169   3.279   4.200   2.462
    1   AR   Ar  170   2.451   3.977   6.153
    1   AR   Ar  171   5.740   3.802   3.978
    1   AR   Ar  172   4.624   4.350   5.218
    1   AR   Ar  173   3.110   3.108   6.551
    1   AR   Ar  174   1.871   6.099   6.459
    1   AR   Ar  175   3.485   2.086   6.379
    1   AR   Ar  176   3.973   2.482   4.532
    1   AR   Ar  177   7.054   5.807  -1.048
    1   AR   Ar  178   3.734   5.178  -0.314
    1   AR   Ar  179   3.899   6.103   0.302
    1   AR   Ar  180   2.497   1.622  -3.473
    1   AR   Ar  181   0.309   5.768   0.985
    1   AR   Ar  182   2.366   6.651   2.837
    1   AR   Ar  183   4.053   5.138   2.377
    1   AR   Ar  184   4.870   6.363   0.648
    1   AR   Ar  185   2.873   4.985   5.068
    1   AR   Ar  186   2.955   5.225   3.372
    1   AR   Ar  187   3.424   6.724   3.336
    1   AR   Ar  188   3.154   6.955   1.952
    1   AR   Ar  189   4.596   2.421   6.331
    1   AR   Ar  190   3.172   6.186   4.283
    1   AR   Ar  191   2.836   6.417   7.693
    1   AR   Ar  192   3.786   5.944   5.155
    1   AR   Ar  193   3.120   5.880   1.172
    1   AR   Ar  194   4.261   3.775  -1.062
    1   AR   Ar  195   5.458   1.676   0.184
    1   AR   Ar  196   4.503   0.919   0.383
    1   AR   Ar  197   3.555   1.417   0.331
    1   AR   Ar  198   6.533   1.345   1.646
    1   AR   Ar  199   2.894   0.711   2.641
    1   AR   Ar  200   5.962   2.749  -0.052
    1   AR   Ar  201   5.720   5.992   3.854
    1   AR   Ar  202   6.109   0.951   4.856
    1   AR   Ar  203   6.926   7.087   2.978
    1   AR   Ar  204   4.910   6.436   5.142
    1   AR   Ar  205   6.696   6.389   1.797
    1   AR   Ar  206   5.140   0.375   5.389
    1   AR   Ar  207   0.691   1.580   5.919
    1   AR   Ar  208   0.801   6.320   4.142
    1   AR   Ar  209   7.063   2.714  -1.774
    1   AR   Ar  210   2.334   0.120   0.383
    1   AR   Ar  211   6.691   3.421   0.503
    1   AR   Ar  212   6.326   3.079  -1.057
    1   AR   Ar  213   3.089   0.819   1.418
    1   AR   Ar  214   4.741   3.027   1.961
    1   AR   Ar  215   5.879   2.709   1.533
    1   AR   Ar  216   0.682   2.770   1.784
    1   AR   Ar  217   5.198   2.902   4.015
    1   AR   Ar  218   4.454   3.403   4.789
    1   AR   Ar  219   4.243   2.770   3.568
    1   AR   Ar  220   3.733   3.495   1.531
    1   AR   Ar  221   6.654   5.669   4.475
    1   AR   Ar  222   4.699   0.185   6.673
    1   AR   Ar  223   5.895   1.452   6.628
    1   AR   Ar  224   4.847   2.437   5.283
    1   AR   Ar  225   6.246   2.927   3.230
    1   AR   Ar  226   2.275   3.568   3.986
    1   AR   Ar  227   6.765   3.463   1.816
    1   AR   Ar  228   5.446   6.750   1.786
    1   AR   Ar  229   6.080   5.668  -1.644
    1   AR   Ar  230   4.095   4.294   3.314
    1   AR   Ar  231   5.507   1.712   4.195
    1   AR   Ar  232   5.105   1.799   1.390
    1   AR   Ar  233   6.377   2.336   4.181
    1   AR   Ar  234   6.132   3.220   4.933
    1   AR   Ar  235   6.641   1.340   3.884
    1   AR   Ar  236   5.180   5.407   5.971
    1   AR   Ar  237   5.928   3.041   6.054
    1   AR   Ar  238   5.556   4.208   6.296
    1   AR   Ar  239   6.767   4.319   9.256
    1   AR   Ar  240   6.891   2.698   7.037
    1   AR   Ar  241   1.755   6.489  -0.395
    1   AR   Ar  242   5.538   5.456   0.506
    1   AR   Ar  243   5.060   5.028   2.717
    1   AR   Ar  244   0.342   5.656  -0.081
    1   AR   Ar  245   4.004   0.589   1.970
    1   AR   Ar  246   5.544   7.033  -0.002
    1   AR   Ar  247   5.817   4.105   1.046
    1   AR   Ar  248   5.787   5.969  -0.502
    1   AR   Ar  249   4.522   5.982   1.510
    1   AR   Ar  250   4.549   5.537   4.574
    1   AR   Ar  251   4.880   4.265   4.069
    1   AR   Ar  252   3.993   5.781   3.451
    1   AR   Ar  253   6.857   3.495   6.397
    1   AR   Ar  254   2.045   2.441   8.971
    1   AR   Ar  255   3.841   4.827  10.077
    1   AR   Ar  256   6.421   4.834   3.296
    7.12000  7.12000 12.00000
Argon-slab step 3655
  256
    1   AR   Ar    1   5.081   2.163  -2.219
    1   AR   Ar    2   6.014   0.577   0.815
    1   AR   Ar    3   3.440   1.445  -0.989
    1   AR   Ar    4   1.582   0.668   0.033
    1   AR   Ar    5   6.644   6.473   0.337
    1   AR   Ar    6   0.022   0.926   2.370
    1   AR   Ar    7   5.836   4.036   2.984
    1   AR   Ar    8   4.941   0.560   1.502
    1   AR   Ar    9   1.199   6.940   3.094
    1   AR   Ar   10   0.292   0.278   4.105
    1   AR   Ar   11   1.735   6.724   4.324
    1   AR   Ar   12   0.708   1.404   3.026
    1   AR   Ar   13   7.104   0.493   5.079
    1   AR   Ar   14   5.876   1.808   7.800
    1   AR   Ar   15   4.984   6.572   7.943
    1   AR   Ar   16   0.749   6.799   5.166
    1   AR   Ar   17   6.597   2.338   0.581
    1   AR   Ar   18   6.410   4.895  -0.858
    1   AR   Ar   19   3.359   3.400   0.315
    1   AR   Ar   20   5.005   4.892  -2.553
    1   AR   Ar   21   3.423   1.811   1.538
    1   AR   Ar   22   6.265   1.933   2.896
    1   AR   Ar   23   0.507   0.496   0.506
    1   AR   Ar   24   6.785   2.359   2.110
    1   AR   Ar   25   0.556   1.725   4.427
    1   AR   Ar   26   6.273   0.035   4.120
    1   AR   Ar   27   1.744   0.796   2.680
    1   AR   Ar   28   0.052   2.607   4.933
    1   AR   Ar   29   5.491   3.252   6.909
    1   AR   Ar   30   1.632   1.391   3.987
    1   AR   Ar   31   3.194   0.897   7.252
    1   AR   Ar   32   1.346   2.659   6.704
    1   AR   Ar   33   0.327   4.625   0.255
    1   AR   Ar   34   0.308   4.936   2.324
    1   AR   Ar   35   5.971   5.845   1.376
    1   AR   Ar   36   5.901   1.650  -3.019
    1   AR   Ar   37   5.311   2.143   2.438
    1   AR   Ar   38   7.015   3.974   2.811
    1   AR   Ar   39   1.156   4.251   2.161
    1   AR   Ar   40   1.885   3.493   1.811
    1   AR   Ar   41   0.292   2.217   3.592
    1   AR   Ar   42   5.876   5.333   4.943
    1   AR   Ar   43   6.745   2.311   5.998
    1   AR   Ar   44   0.766   4.396   3.350
    1   AR   Ar   45   0.564   3.293   5.632
    1   AR   Ar   46   0.072   4.909   5.095
    1   AR   Ar   47   5.289   3.895   7.614
    1   AR   Ar   48   6.151   4.553   7.011
    1   AR   Ar   49   4.947   0.720  -0.929
    1   AR   Ar   50   4.402   5.158   0.764
    1   AR   Ar   51   6.598   5.147   1.770
    1   AR   Ar   52   6.075   3.074  -2.429
    1   AR   Ar   53   5.487   5.946   2.341
    1   AR   Ar   54   0.563   6.138   2.515
    1   AR   Ar   55   6.552   5.707   2.714
    1   AR   Ar   56   6.743   0.347   1.555
    1   AR   Ar   57   4.810   3.516   2.895
    1   AR   Ar   58   7.053   3.151   4.010
    1   AR   Ar   59   2.300   5.110   6.170
    1   AR   Ar   60   0.225   5.339   3.277
    1   AR   Ar   61   0.199   4.584   6.471
    1   AR   Ar   62   6.536   4.396   4.183
    1   AR   Ar   63   1.707   1.241   5.957
    1   AR   Ar   64   1.125   5.652   5.269
    1   AR   Ar   65   3.490   6.941   0.928
    1   AR   Ar   66   0.789   1.480   1.871
    1   AR   Ar   67   4.156   6.931  -0.478
    1   AR   Ar   68   1.834   1.941  -1.098
    1   AR   Ar   69   2.416   1.146   0.820
    1   AR   Ar   70   0.692   0.329   1.975
    1   AR   Ar   71   2.725   1.136   3.673
    1   AR   Ar   72   4.122   6.355   2.430
    1   AR   Ar   73   4.369   0.472   3.325
    1   AR   Ar   74   1.045   0.642   4.796
    1   AR   Ar   75   3.495   0.716   4.974
    1   AR   Ar   76   1.558   0.483   1.199
    1   AR   Ar   77   2.067   6.902   5.552
    1   AR   Ar   78   0.236   6.142   5.948
    1   AR   Ar   79   4.002   5.748   6.564
    1   AR   Ar   80   4.021   5.040   5.610
    1   AR   Ar   81   2.585   6.120   0.190
    1   AR   Ar   82   6.496   5.202   0.416
    1   AR   Ar   83   1.106   2.042   1.016
    1   AR   Ar   84   0.200   4.369   1.404
    1   AR   Ar   85   1.093   3.227   0.962
    1   AR   Ar   86   2.114   5.595   0.934
    1   AR   Ar   87   2.247   2.437   1.285
    1   AR   Ar   88   2.204   4.684   1.545
    1   AR   Ar   89   0.228   2.940   2.779
    1   AR   Ar   90   2.674   1.816   4.576
    1   AR   Ar   91   1.265   2.221   3.402
    1   AR   Ar   92   1.632   2.504   2.405
    1   AR   Ar   93   0.979   0.437   5.863
    1   AR   Ar   94   0.274   0.115  11.221
    1   AR   Ar   95   4.092   0.474   5.729
    1   AR   Ar   96   2.839   0.001   4.609
    1   AR   Ar   97   4.581   1.760  -0.496
    1   AR   Ar   98   1.814   4.545   2.994
    1   AR   Ar   99   6.604   1.341   0.025
    1   AR   Ar  100   1.402   3.025  -1.060
    1   AR   Ar  101   3.284   4.854   1.555
    1   AR   Ar  102   3.611   1.566   2.633
    1   AR   Ar  103   1.188   4.698   1.119
    1   AR   Ar  104   3.061   4.152  -1.049
    1   AR   Ar  105   1.785   2.526   4.314
    1   AR   Ar  106   3.654   2.918   5.541
    1   AR   Ar  107   0.683   4.032   4.521
    1   AR   Ar  108   2.144   0.768   4.944
    1   AR   Ar  109   1.679   3.495   5.428
    1   AR   Ar  110   2.485   2.722   5.497
    1   AR   Ar  111   5.149   5.000   7.477
    1   AR   Ar  112   1.000   5.303   6.488
    1   AR   Ar  113   3.328   4.733   0.522
    1   AR   Ar  114   2.580   0.002  -0.516
    1   AR   Ar  115   2.391   4.854   0.008
    1   AR   Ar  116   6.653   0.568  -0.788
    1   AR   Ar  117   0.993   5.181   4.076
    1   AR   Ar  118   1.555   5.659   3.215
    1   AR   Ar  119   2.425   3.781   2.811
    1   AR   Ar  120   1.675   6.536   1.679
    1   AR   Ar  121   5.610   4.079   5.227
    1   AR   Ar  122   2.795   5.787   5.647
    1   AR   Ar  123   3.204   3.920   5.308
    1   AR   Ar  124   1.285   5.261   2.198
    1   AR   Ar  125   6.826   3.968   5.255
    1   AR   Ar  126   6.842   6.599   4.953
    1   AR   Ar  127   4.548   3.855   6.206
    1   AR   Ar  128   3.364   4.796   6.688
    1   AR   Ar  129   2.311   6.119   3.729
    1   AR   Ar  130   4.527   2.429  -3.186
    1   AR   Ar  131   3.509   3.100  -0.649
    1   AR   Ar  132   0.575   2.286   0.111
    1   AR   Ar  133   4.922   6.327   3.171
    1   AR   Ar  134   4.694   1.252   4.638
    1   AR   Ar  135   5.993   0.751   2.435
    1   AR   Ar  136   5.646   6.903   2.776
    1   AR   Ar  137   2.145   4.910   3.991
    1   AR   Ar  138   4.935   1.363   5.886
    1   AR   Ar  139   5.713   1.847   5.366
    1   AR   Ar  140   4.117   7.030   4.242
    1   AR   Ar  141   3.703   4.659   4.479
    1   AR   Ar  142   3.404   6.778   5.878
    1   AR   Ar  143   6.104   6.855   5.764
    1   AR   Ar  144   6.838   1.652   5.307
    1   AR   Ar  145   5.014   4.483  -0.164
    1   AR   Ar  146   2.942   2.814   2.245
    1   AR   Ar  147   4.404   2.688  -1.241
    1   AR   Ar  148   3.375   6.216  -0.596
    1   AR   Ar  149   2.842   2.053  -0.336
    1   AR   Ar  150   2.428   1.732   2.194
    1   AR   Ar  151   2.494   2.389   3.338
    1   AR   Ar  152   2.488   2.856  -1.329
    1   AR   Ar  153   5.218   0.312   4.039
    1   AR   Ar  154   3.544   1.804   3.839
    1   AR   Ar  155   6.319   4.770   5.745
    1   AR   Ar  156   3.333   3.261   3.275
    1   AR   Ar  157   0.963   4.251   5.812
    1   AR   Ar  158   0.563   1.944   6.865
    1   AR   Ar  159   4.371   1.753   7.310
    1   AR   Ar  160   1.478   1.854   5.025
    1   AR   Ar  161   5.122   4.169   1.921
    1   AR   Ar  162   4.632   5.891  -0.702
    1   AR   Ar  163   6.168   3.953  -0.294
    1   AR   Ar  164   2.345   5.393   2.260
    1   AR   Ar  165   4.516   2.381   0.810
    1   AR   Ar  166   3.108   3.102   4.465
    1   AR   Ar  167   5.019   0.632   2.569
    1   AR   Ar  168   5.189   3.890  -1.778
    1   AR   Ar  169   3.282   4.223   2.479
    1   AR   Ar  170   2.398   3.964   6.155
    1   AR   Ar  171   5.701   3.797   3.989
    1   AR   Ar  172   4.619   4.353   5.192
    1   AR   Ar  173   3.114   3.072   6.534
    1   AR   Ar  174   1.901   6.090   6.433
    1   AR   Ar  175   3.496   2.107   6.378
    1   AR   Ar  176   3.980   2.480   4.519
    1   AR   Ar  177   7.081   5.807  -1.037
    1   AR   Ar  178   3.736   5.208  -0.336
    1   AR   Ar  179   3.866   6.111   0.348
    1   AR   Ar  180   2.526   1.600  -3.484
    1   AR   Ar  181   0.342   5.772   0.996
    1   AR   Ar  182   2.376   6.649   2.852
    1   AR   Ar  183   4.052   5.142   2.383
    1   AR   Ar  184   4.856   6.385   0.642
    1   AR   Ar  185   2.866   5.000   5.050
    1   AR   Ar  186   2.917   5.260   3.401
    1   AR   Ar  187   3.434   6.723   3.352
    1   AR   Ar  188   3.153   6.969   1.946
    1   AR   Ar  189   4.613   2.417   6.322
    1   AR   Ar  190   3.207   6.166   4.299
    1   AR   Ar  191   2.833   6.429   7.691
    1   AR   Ar  192   3.788   5.978   5.137
    1   AR   Ar  193   3.105   5.892   1.131
    1   AR   Ar  194   4.262   3.740  -1.044
    1   AR   Ar  195   5.463   1.686   0.205
    1   AR   Ar  196   4.512   0.936   0.370
    1   AR   Ar  197   3.562   1.429   0.341
    1   AR   Ar  198   6.530   1.339   1.619
    1   AR   Ar  199   2.882   0.706   2.655
    1   AR   Ar  200   5.967   2.726  -0.072
    1   AR   Ar  201   5.742   6.009   3.839
    1   AR   Ar  202   6.101   0.946   4.852
    1   AR   Ar  203   6.960   7.115   2.967
    1   AR   Ar  204   4.907   6.419   5.129
    1   AR   Ar  205   6.720   6.371   1.799
    1   AR   Ar  206   5.134   0.378   5.389
    1   AR   Ar  207   0.716   1.602   5.877
    1   AR   Ar  208   0.778   6.306   4.156
    1   AR   Ar  209   7.041   2.712  -1.783
    1   AR   Ar  210   2.356   0.138   0.397
    1   AR   Ar  211   6.701   3.439   0.491
    1   AR   Ar  212   6.324   3.092  -1.045
    1   AR   Ar  213   3.100   0.782   1.444
    1   AR   Ar  214   4.728   3.030   1.930
    1   AR   Ar  215   5.864   2.753   1.546
    1   AR   Ar  216   0.706   2.766   1.803
    1   AR   Ar  217   5.205   2.866   3.983
    1   AR   Ar  218   4.474   3.396   4.744
    1   AR   Ar  219   4.217   2.810   3.577
    1   AR   Ar  220   3.739   3.461   1.528
    1   AR   Ar  221   6.664   5.645   4.483
    1   AR   Ar  222   4.671   0.171   6.696
    1   AR   Ar  223   5.884   1.491   6.638
    1   AR   Ar  224   4.865   2.440   5.282
    1   AR   Ar  225   6.220   2.923   3.264
    1   AR   Ar  226   2.280   3.564   3.984
    1   AR   Ar  227   6.797   3.470   1.829
    1   AR   Ar  228   5.413   6.809   1.754
    1   AR   Ar  229   6.078   5.658  -1.678
    1   AR   Ar  230   4.099   4.290   3.319
    1   AR   Ar  231   5.495   1.707   4.181
    1   AR   Ar  232   5.133   1.783   1.418
    1   AR   Ar  233   6.365   2.321   4.196
    1   AR   Ar  234   6.127   3.232   4.897
    1   AR   Ar  235   6.627   1.324   3.882
    1   AR   Ar  236   5.166   5.400   5.968
    1   AR   Ar  237   5.937   3.032   6.063
    1   AR   Ar  238   5.577   4.201   6.282
    1   AR   Ar  239   6.771   4.331   9.262
    1   AR   Ar  240   6.882   2.686   7.043
    1   AR   Ar  241   1.747   6.500  -0.399
    1   AR   Ar  242   5.533   5.458   0.501
    1   AR   Ar  243   5.073   5.009   2.737
    1   AR   Ar  244   0.350   5.680  -0.051
    1   AR   Ar  245   3.981   0.625   1.949
    1   AR   Ar  246   5.553   7.011  -0.006
    1   AR   Ar  247   5.800   4.103   1.048
    1   AR   Ar  248   5.776   5.968  -0.507
    1   AR   Ar  249   4.512   6.032   1.528
    1   AR   Ar  250   4.552   5.545   4.560
    1   AR   Ar  251   4.853   4.278   4.059
    1   AR   Ar  252   3.986   5.788   3.424
    1   AR   Ar  253   6.835   3.507   6.389
    1   AR   Ar  254   2.072   2.458   8.937
    1   AR   Ar  255   3.838   4.872  10.080
    1   AR   Ar  256   6.440   4.834   3.332
    7.12000  7.12000 12.00000
Argon-slab step 3660
  256
    1   AR   Ar    1   5.026   2.170  -2.210
    1   AR   Ar    2   6.040   0.578   0.829
    1   AR   Ar    3   3.474   1.448  -1.008
    1   AR   Ar    4   1.590   0.665   0.012
    1   AR   Ar    5   6.625   6.467   0.316
    1   AR   Ar    6   0.004   0.921   2.380
    1   AR   Ar    7   5.823   4.033   3.003
    1   AR   Ar    8   4.930   0.571   1.475
    1   AR   Ar    9   1.151   6.944   3.071
    1   AR   Ar   10   0.299   0.238   4.082
    1   AR   Ar   11   1.764   6.729   4.312
    1   AR   Ar   12   0.725   1.403   3.012
    1   AR   Ar   13   7.094   0.508   5.052
    1   AR   Ar   14   5.846   1.802   7.825
    1   AR   Ar   15   4.928   6.553   7.954
    1   AR   Ar   16   0.738   6.812   5.170
    1   AR   Ar   17   6.613   2.334   0.587
    1   AR   Ar   18   6.406   4.916  -0.871
    1   AR   Ar   19   3.368   3.393   0.294
    1   AR   Ar   20   5.051   4.877  -2.558
    1   AR   Ar   21   3.462   1.813   1.558
    1   AR   Ar   22   6.312   1.936   2.898
    1   AR   Ar   23   0.474   0.500   0.530
    1   AR   Ar   24   6.813   2.361   2.116
    1   AR   Ar   25   0.533   1.749   4.412
    1   AR   Ar   26   6.269   0.030   4.124
    1   AR   Ar   27   1.768   0.790   2.673
    1   AR   Ar   28   0.010   2.584   4.921
    1   AR   Ar   29   5.495   3.253   6.902
    1   AR   Ar   30   1.663   1.359   3.991
    1   AR   Ar   31   3.206   0.891   7.275
    1   AR   Ar   32   1.345   2.640   6.722
    1   AR   Ar   33   0.337   4.635   0.233
    1   AR   Ar   34   0.309   4.942   2.311
    1   AR   Ar   35   5.966   5.830   1.372
    1   AR   Ar   36   5.911   1.669  -3.039
    1   AR   Ar   37   5.312   2.142   2.451
    1   AR   Ar   38   7.010   3.959   2.804
    1   AR   Ar   39   1.118   4.266   2.155
    1   AR   Ar   40   1.850   3.509   1.817
    1   AR   Ar   41   0.277   2.233   3.588
    1   AR   Ar   42   5.863   5.349   4.967
    1   AR   Ar   43   6.762   2.342   6.043
    1   AR   Ar   44   0.796   4.388   3.339
    1   AR   Ar   45   0.576   3.263   5.628
    1   AR   Ar   46   0.059   4.917   5.090
    1   AR   Ar   47   5.279   3.915   7.599
    1   AR   Ar   48   6.146   4.536   7.047
    1   AR   Ar   49   4.960   0.696  -0.924
    1   AR   Ar   50   4.402   5.181   0.742
    1   AR   Ar   51   6.619   5.171   1.771
    1   AR   Ar   52   6.063   3.060  -2.380
    1   AR   Ar   53   5.494   5.964   2.330
    1   AR   Ar   54   0.578   6.148   2.508
    1   AR   Ar   55   6.550   5.713   2.736
    1   AR   Ar   56   6.716   0.334   1.594
    1   AR   Ar   57   4.831   3.516   2.859
    1   AR   Ar   58   7.061   3.165   3.992
    1   AR   Ar   59   2.334   5.134   6.169
    1   AR   Ar   60   0.231   5.347   3.270
    1   AR   Ar   61   0.188   4.579   6.447
    1   AR   Ar   62   6.520   4.404   4.194
    1   AR   Ar   63   1.703   1.235   5.981
    1   AR   Ar   64   1.139   5.649   5.274
    1   AR   Ar   65   3.481   6.963   0.960
    1   AR   Ar   66   0.785   1.485   1.875
    1   AR   Ar   67   4.166   6.961  -0.482
    1   AR   Ar   68   1.825   1.922  -1.106
    1   AR   Ar   69   2.414   1.172   0.823
    1   AR   Ar   70   0.672   0.338   1.972
    1   AR   Ar   71   2.724   1.138   3.654
    1   AR   Ar   72   4.113   6.359   2.395
    1   AR   Ar   73   4.385   0.508   3.347
    1   AR   Ar   74   1.040   0.647   4.812
    1   AR   Ar   75   3.476   0.736   4.979
    1   AR   Ar   76   1.569   0.479   1.194
    1   AR   Ar   77   2.075   6.850   5.573
    1   AR   Ar   78   0.241   6.144   5.945
    1   AR   Ar   79   3.987   5.773   6.554
    1   AR   Ar   80   4.033   5.013   5.615
    1   AR   Ar   81   2.576   6.134   0.178
    1   AR   Ar   82   6.520   5.219   0.401
    1   AR   Ar   83   1.117   2.037   0.984
    1   AR   Ar   84   0.237   4.359   1.400
    1   AR   Ar   85   1.087   3.226   0.958
    1   AR   Ar   86   2.096   5.566   0.966
    1   AR   Ar   87   2.251   2.421   1.296
    1   AR   Ar   88   2.206   4.659   1.552
    1   AR   Ar   89   0.214   2.962   2.790
    1   AR   Ar   90   2.705   1.824   4.601
    1   AR   Ar   91   1.286   2.212   3.423
    1   AR   Ar   92   1.606   2.548   2.366
    1   AR   Ar   93   0.970   0.450   5.847
    1   AR   Ar   94   0.254   0.116  11.205
    1   AR   Ar   95   4.112   0.474   5.729
    1   AR   Ar   96   2.813   0.036   4.625
    1   AR   Ar   97   4.544   1.769  -0.489
    1   AR   Ar   98   1.826   4.544   2.993
    1   AR   Ar   99   6.613   1.305   0.048
    1   AR   Ar  100   1.385   3.027  -1.056
    1   AR   Ar  101   3.289   4.887   1.568
    1   AR   Ar  102   3.650   1.553   2.621
    1   AR   Ar  103   1.198   4.690   1.105
    1   AR   Ar  104   3.051   4.123  -1.060
    1   AR   Ar  105   1.845   2.499   4.293
    1   AR   Ar  106   3.659   2.924   5.534
    1   AR   Ar  107   0.714   4.028   4.526
    1   AR   Ar  108   2.147   0.775   4.945
    1   AR   Ar  109   1.665   3.471   5.431
    1   AR   Ar  110   2.506   2.707   5.515
    1   AR   Ar  111   5.137   4.980   7.443
    1   AR   Ar  112   0.970   5.332   6.500
    1   AR   Ar  113   3.294   4.742   0.513
    1   AR   Ar  114   2.605   7.110  -0.502
    1   AR   Ar  115   2.395   4.842   0.022
    1   AR   Ar  116   6.652   0.561  -0.777
    1   AR   Ar  117   1.017   5.195   4.067
    1   AR   Ar  118   1.555   5.654   3.208
    1   AR   Ar  119   2.438   3.806   2.766
    1   AR   Ar  120   1.694   6.537   1.644
    1   AR   Ar  121   5.592   4.069   5.215
    1   AR   Ar  122   2.800   5.808   5.644
    1   AR   Ar  123   3.228   3.943   5.332
    1   AR   Ar  124   1.269   5.243   2.200
    1   AR   Ar  125   6.821   3.962   5.235
    1   AR   Ar  126   6.851   6.607   4.965
    1   AR   Ar  127   4.584   3.855   6.203
    1   AR   Ar  128   3.348   4.807   6.685
    1   AR   Ar  129   2.311   6.130   3.757
    1   AR   Ar  130   4.526   2.417  -3.190
    1   AR   Ar  131   3.488   3.110  -0.656
    1   AR   Ar  132   0.574   2.289   0.116
    1   AR   Ar  133   4.896   6.305   3.186
    1   AR   Ar  134   4.689   1.270   4.638
    1   AR   Ar  135   6.004   0.766   2.463
    1   AR   Ar  136   5.652   6.875   2.777
    1   AR   Ar  137   2.170   4.914   3.948
    1   AR   Ar  138   4.936   1.377   5.888
    1   AR   Ar  139   5.714   1.860   5.370
    1   AR   Ar  140   4.105   7.056   4.255
    1   AR   Ar  141   3.718   4.646   4.467
    1   AR   Ar  142   3.411   6.758   5.843
    1   AR   Ar  143   6.124   6.845   5.771
    1   AR   Ar  144   6.853   1.625   5.286
    1   AR   Ar  145   5.011   4.498  -0.181
    1   AR   Ar  146   2.965   2.849   2.256
    1   AR   Ar  147   4.411   2.703  -1.226
    1   AR   Ar  148   3.402   6.234  -0.608
    1   AR   Ar  149   2.819   2.043  -0.373
    1   AR   Ar  150   2.433   1.744   2.181
    1   AR   Ar  151   2.507   2.394   3.360
    1   AR   Ar  152   2.497   2.859  -1.318
    1   AR   Ar  153   5.235   0.297   4.034
    1   AR   Ar  154   3.539   1.811   3.821
    1   AR   Ar  155   6.314   4.776   5.769
    1   AR   Ar  156   3.361   3.249   3.260
    1   AR   Ar  157   0.952   4.259   5.800
    1   AR   Ar  158   0.591   1.904   6.870
    1   AR   Ar  159   4.379   1.755   7.330
    1   AR   Ar  160   1.502   1.861   4.989
    1   AR   Ar  161   5.109   4.181   1.924
    1   AR   Ar  162   4.636   5.897  -0.690
    1   AR   Ar  163   6.183   3.941  -0.294
    1   AR   Ar  164   2.348   5.411   2.275
    1   AR   Ar  165   4.526   2.395   0.815
    1   AR   Ar  166   3.099   3.130   4.456
    1   AR   Ar  167   5.014   0.644   2.554
    1   AR   Ar  168   5.194   3.902  -1.766
    1   AR   Ar  169   3.291   4.248   2.495
    1   AR   Ar  170   2.346   3.951   6.157
    1   AR   Ar  171   5.682   3.790   4.002
    1   AR   Ar  172   4.615   4.354   5.162
    1   AR   Ar  173   3.117   3.041   6.515
    1   AR   Ar  174   1.931   6.081   6.405
    1   AR   Ar  175   3.508   2.125   6.376
    1   AR   Ar  176   3.980   2.453   4.507
    1   AR   Ar  177   7.105   5.807  -1.027
    1   AR   Ar  178   3.739   5.238  -0.358
    1   AR   Ar  179   3.833   6.117   0.394
    1   AR   Ar  180   2.554   1.579  -3.495
    1   AR   Ar  181   0.372   5.776   1.011
    1   AR   Ar  182   2.398   6.697   2.864
    1   AR   Ar  183   4.049   5.148   2.390
    1   AR   Ar  184   4.848   6.409   0.630
    1   AR   Ar  185   2.857   5.012   5.031
    1   AR   Ar  186   2.883   5.297   3.425
    1   AR   Ar  187   3.443   6.723   3.366
    1   AR   Ar  188   3.153   6.980   1.945
    1   AR   Ar  189   4.630   2.414   6.315
    1   AR   Ar  190   3.242   6.144   4.312
    1   AR   Ar  191   2.820   6.421   7.691
    1   AR   Ar  192   3.789   6.014   5.125
    1   AR   Ar  193   3.093   5.904   1.092
    1   AR   Ar  194   4.263   3.708  -1.026
    1   AR   Ar  195   5.469   1.696   0.227
    1   AR   Ar  196   4.525   0.953   0.358
    1   AR   Ar  197   3.609   1.451   0.354
    1   AR   Ar  198   6.524   1.342   1.589
    1   AR   Ar  199   2.870   0.701   2.668
    1   AR   Ar  200   5.965   2.709  -0.098
    1   AR   Ar  201   5.765   6.027   3.824
    1   AR   Ar  202   6.098   0.940   4.859
    1   AR   Ar  203   6.994   0.023   2.955
    1   AR   Ar  204   4.900   6.408   5.118
    1   AR   Ar  205   6.751   6.357   1.804
    1   AR   Ar  206   5.156   0.366   5.397
    1   AR   Ar  207   0.738   1.625   5.831
    1   AR   Ar  208   0.752   6.291   4.168
    1   AR   Ar  209   7.020   2.710  -1.792
    1   AR   Ar  210   2.379   0.154   0.436
    1   AR   Ar  211   6.710   3.456   0.481
    1   AR   Ar  212   6.321   3.106  -1.034
    1   AR   Ar  213   3.113   0.743   1.474
    1   AR   Ar  214   4.717   3.033   1.898
    1   AR   Ar  215   5.850   2.798   1.558
    1   AR   Ar  216   0.723   2.755   1.816
    1   AR   Ar  217   5.213   2.827   3.953
    1   AR   Ar  218   4.494   3.389   4.698
    1   AR   Ar  219   4.194   2.850   3.583
    1   AR   Ar  220   3.744   3.427   1.526
    1   AR   Ar  221   6.687   5.626   4.480
    1   AR   Ar  222   4.644   0.158   6.718
    1   AR   Ar  223   5.873   1.532   6.646
    1   AR   Ar  224   4.888   2.420   5.261
    1   AR   Ar  225   6.195   2.923   3.299
    1   AR   Ar  226   2.284   3.560   3.980
    1   AR   Ar  227   6.828   3.475   1.841
    1   AR   Ar  228   5.383   6.865   1.718
    1   AR   Ar  229   6.077   5.648  -1.710
    1   AR   Ar  230   4.101   4.293   3.323
    1   AR   Ar  231   5.486   1.703   4.165
    1   AR   Ar  232   5.164   1.764   1.447
    1   AR   Ar  233   6.353   2.309   4.212
    1   AR   Ar  234   6.123   3.239   4.859
    1   AR   Ar  235   6.614   1.307   3.880
    1   AR   Ar  236   5.153   5.392   5.964
    1   AR   Ar  237   5.948   3.021   6.059
    1   AR   Ar  238   5.592   4.189   6.264
    1   AR   Ar  239   6.774   4.343   9.269
    1   AR   Ar  240   6.871   2.672   7.050
    1   AR   Ar  241   1.753   6.528  -0.397
    1   AR   Ar  242   5.517   5.461   0.493
    1   AR   Ar  243   5.087   4.989   2.758
    1   AR   Ar  244   0.358   5.706  -0.021
    1   AR   Ar  245   3.961   0.660   1.934
    1   AR   Ar  246   5.562   6.989  -0.010
    1   AR   Ar  247   5.807   4.092   1.023
    1   AR   Ar  248   5.767   5.966  -0.510
    1   AR   Ar  249   4.502   6.077   1.548
    1   AR   Ar  250   4.557   5.550   4.543
    1   AR   Ar  251   4.816   4.297   4.054
    1   AR   Ar  252   3.979   5.793   3.398
    1   AR   Ar  253   6.814   3.524   6.378
    1   AR   Ar  254   2.100   2.475   8.902
    1   AR   Ar  255   3.836   4.917  10.084
    1   AR   Ar  256   6.454   4.841   3.354
    7.12000  7.12000 12.00000
Argon-slab step 3665
  256
    1   AR   Ar    1   4.972   2.177  -2.200
    1   AR   Ar    2   6.063   0.580   0.840
    1   AR   Ar    3   3.510   1.451  -1.026
    1   AR   Ar    4   1.594   0.663  -0.009
    1   AR   Ar    5   6.605   6.460   0.297
    1   AR   Ar    6   7.095   0.927   2.397
    1   AR   Ar    7   5.811   4.031   3.017
    1   AR   Ar    8   4.914   0.596   1.440
    1   AR   Ar    9   1.102   6.949   3.049
    1   AR   Ar   10   0.307   0.195   4.056
    1   AR   Ar   11   1.784   6.743   4.305
    1   AR   Ar   12   0.744   1.401   2.998
    1   AR   Ar   13   7.084   0.528   5.027
    1   AR   Ar   14   5.817   1.797   7.848
    1   AR   Ar   15   4.870   6.533   7.964
    1   AR   Ar   16   0.730   6.820   5.173
    1   AR   Ar   17   6.634   2.328   0.599
    1   AR   Ar   18   6.401   4.938  -0.882
    1   AR   Ar   19   3.377   3.391   0.283
    1   AR   Ar   20   5.098   4.861  -2.561
    1   AR   Ar   21   3.499   1.814   1.577
    1   AR   Ar   22   6.358   1.933   2.904
    1   AR   Ar   23   0.441   0.505   0.555
    1   AR   Ar   24   6.842   2.362   2.113
    1   AR   Ar   25   0.513   1.766   4.407
    1   AR   Ar   26   6.268   0.024   4.129
    1   AR   Ar   27   1.790   0.785   2.665
    1   AR   Ar   28   7.088   2.565   4.911
    1   AR   Ar   29   5.509   3.242   6.891
    1   AR   Ar   30   1.694   1.326   3.997
    1   AR   Ar   31   3.219   0.885   7.297
    1   AR   Ar   32   1.346   2.623   6.739
    1   AR   Ar   33   0.345   4.632   0.229
    1   AR   Ar   34   0.308   4.954   2.298
    1   AR   Ar   35   5.954   5.819   1.363
    1   AR   Ar   36   5.919   1.678  -3.057
    1   AR   Ar   37   5.314   2.142   2.464
    1   AR   Ar   38   7.004   3.948   2.798
    1   AR   Ar   39   1.080   4.269   2.149
    1   AR   Ar   40   1.815   3.525   1.822
    1   AR   Ar   41   0.252   2.251   3.578
    1   AR   Ar   42   5.882   5.343   4.989
    1   AR   Ar   43   6.782   2.374   6.088
    1   AR   Ar   44   0.825   4.380   3.328
    1   AR   Ar   45   0.585   3.232   5.624
    1   AR   Ar   46   0.050   4.927   5.086
    1   AR   Ar   47   5.286   3.935   7.575
    1   AR   Ar   48   6.143   4.521   7.086
    1   AR   Ar   49   4.972   0.671  -0.916
    1   AR   Ar   50   4.401   5.206   0.718
    1   AR   Ar   51   6.638   5.193   1.768
    1   AR   Ar   52   6.050   3.046  -2.330
    1   AR   Ar   53   5.502   5.975   2.316
    1   AR   Ar   54   0.593   6.153   2.507
    1   AR   Ar   55   6.545   5.723   2.754
    1   AR   Ar   56   6.691   0.312   1.635
    1   AR   Ar   57   4.852   3.517   2.826
    1   AR   Ar   58   7.039   3.201   3.978
    1   AR   Ar   59   2.363   5.144   6.175
    1   AR   Ar   60   0.246   5.359   3.269
    1   AR   Ar   61   0.175   4.608   6.427
    1   AR   Ar   62   6.510   4.404   4.228
    1   AR   Ar   63   1.703   1.230   6.004
    1   AR   Ar   64   1.153   5.648   5.279
    1   AR   Ar   65   3.472   6.987   0.989
    1   AR   Ar   66   0.782   1.492   1.880
    1   AR   Ar   67   4.178   6.992  -0.484
    1   AR   Ar   68   1.818   1.904  -1.114
    1   AR   Ar   69   2.425   1.186   0.821
    1   AR   Ar   70   0.657   0.335   1.977
    1   AR   Ar   71   2.720   1.139   3.637
    1   AR   Ar   72   4.096   6.369   2.373
    1   AR   Ar   73   4.384   0.518   3.357
    1   AR   Ar   74   1.038   0.657   4.823
    1   AR   Ar   75   3.456   0.761   4.980
    1   AR   Ar   76   1.580   0.475   1.188
    1   AR   Ar   77   2.082   6.799   5.593
    1   AR   Ar   78   0.247   6.146   5.941
    1   AR   Ar   79   3.972   5.797   6.541
    1   AR   Ar   80   4.037   4.993   5.625
    1   AR   Ar   81   2.570   6.150   0.164
    1   AR   Ar   82   6.549   5.236   0.386
    1   AR   Ar   83   1.131   2.032   0.955
    1   AR   Ar   84   0.272   4.347   1.396
    1   AR   Ar   85   1.081   3.227   0.951
    1   AR   Ar   86   2.075   5.535   0.998
    1   AR   Ar   87   2.255   2.404   1.309
    1   AR   Ar   88   2.199   4.606   1.568
    1   AR   Ar   89   0.189   2.976   2.793
    1   AR   Ar   90   2.735   1.831   4.625
    1   AR   Ar   91   1.314   2.205   3.440
    1   AR   Ar   92   1.584   2.590   2.328
    1   AR   Ar   93   0.976   0.470   5.821
    1   AR   Ar   94   0.233   0.117  11.189
    1   AR   Ar   95   4.137   0.473   5.733
    1   AR   Ar   96   2.797   0.046   4.643
    1   AR   Ar   97   4.507   1.778  -0.482
    1   AR   Ar   98   1.829   4.531   3.031
    1   AR   Ar   99   6.621   1.269   0.073
    1   AR   Ar  100   1.392   3.026  -1.039
    1   AR   Ar  101   3.295   4.920   1.584
    1   AR   Ar  102   3.689   1.540   2.609
    1   AR   Ar  103   1.209   4.701   1.098
    1   AR   Ar  104   3.042   4.093  -1.070
    1   AR   Ar  105   1.909   2.478   4.267
    1   AR   Ar  106   3.662   2.951   5.551
    1   AR   Ar  107   0.742   4.024   4.532
    1   AR   Ar  108   2.148   0.787   4.947
    1   AR   Ar  109   1.650   3.446   5.433
    1   AR   Ar  110   2.528   2.692   5.533
    1   AR   Ar  111   5.146   4.983   7.436
    1   AR   Ar  112   0.941   5.362   6.508
    1   AR   Ar  113   3.287   4.739   0.496
    1   AR   Ar  114   2.639   7.097  -0.500
    1   AR   Ar  115   2.395   4.831   0.034
    1   AR   Ar  116   6.651   0.552  -0.765
    1   AR   Ar  117   1.041   5.210   4.059
    1   AR   Ar  118   1.552   5.648   3.198
    1   AR   Ar  119   2.447   3.828   2.740
    1   AR   Ar  120   1.715   6.538   1.610
    1   AR   Ar  121   5.580   4.059   5.201
    1   AR   Ar  122   2.812   5.846   5.637
    1   AR   Ar  123   3.253   3.966   5.356
    1   AR   Ar  124   1.260   5.238   2.201
    1   AR   Ar  125   6.825   3.954   5.224
    1   AR   Ar  126   6.856   6.611   4.975
    1   AR   Ar  127   4.592   3.859   6.193
    1   AR   Ar  128   3.331   4.820   6.681
    1   AR   Ar  129   2.318   6.135   3.781
    1   AR   Ar  130   4.526   2.404  -3.194
    1   AR   Ar  131   3.465   3.114  -0.672
    1   AR   Ar  132   0.571   2.293   0.120
    1   AR   Ar  133   4.867   6.283   3.203
    1   AR   Ar  134   4.680   1.284   4.641
    1   AR   Ar  135   6.025   0.782   2.489
    1   AR   Ar  136   5.665   6.854   2.780
    1   AR   Ar  137   2.180   4.913   3.916
    1   AR   Ar  138   4.945   1.385   5.896
    1   AR   Ar  139   5.724   1.879   5.389
    1   AR   Ar  140   4.103   7.073   4.270
    1   AR   Ar  141   3.730   4.652   4.480
    1   AR   Ar  142   3.417   6.739   5.808
    1   AR   Ar  143   6.144   6.836   5.777
    1   AR   Ar  144   6.869   1.593   5.260
    1   AR   Ar  145   5.008   4.514  -0.197
    1   AR   Ar  146   2.987   2.883   2.268
    1   AR   Ar  147   4.419   2.712  -1.212
    1   AR   Ar  148   3.426   6.253  -0.620
    1   AR   Ar  149   2.795   2.034  -0.409
    1   AR   Ar  150   2.447   1.758   2.170
    1   AR   Ar  151   2.504   2.414   3.374
    1   AR   Ar  152   2.508   2.861  -1.305
    1   AR   Ar  153   5.250   0.282   4.029
    1   AR   Ar  154   3.533   1.818   3.799
    1   AR   Ar  155   6.311   4.782   5.795
    1   AR   Ar  156   3.375   3.242   3.242
    1   AR   Ar  157   0.943   4.269   5.784
    1   AR   Ar  158   0.617   1.863   6.876
    1   AR   Ar  159   4.364   1.737   7.347
    1   AR   Ar  160   1.523   1.860   4.958
    1   AR   Ar  161   5.095   4.193   1.930
    1   AR   Ar  162   4.639   5.904  -0.676
    1   AR   Ar  163   6.196   3.932  -0.295
    1   AR   Ar  164   2.353   5.432   2.293
    1   AR   Ar  165   4.530   2.411   0.814
    1   AR   Ar  166   3.095   3.155   4.449
    1   AR   Ar  167   5.004   0.654   2.535
    1   AR   Ar  168   5.199   3.914  -1.753
    1   AR   Ar  169   3.298   4.272   2.509
    1   AR   Ar  170   2.296   3.938   6.157
    1   AR   Ar  171   5.703   3.801   4.014
    1   AR   Ar  172   4.611   4.351   5.127
    1   AR   Ar  173   3.115   3.019   6.496
    1   AR   Ar  174   1.960   6.074   6.376
    1   AR   Ar  175   3.526   2.135   6.373
    1   AR   Ar  176   3.982   2.426   4.504
    1   AR   Ar  177   0.007   5.807  -1.018
    1   AR   Ar  178   3.743   5.267  -0.379
    1   AR   Ar  179   3.803   6.122   0.435
    1   AR   Ar  180   2.583   1.557  -3.506
    1   AR   Ar  181   0.400   5.778   1.033
    1   AR   Ar  182   2.400   6.723   2.852
    1   AR   Ar  183   4.046   5.153   2.397
    1   AR   Ar  184   4.842   6.435   0.615
    1   AR   Ar  185   2.839   5.036   5.021
    1   AR   Ar  186   2.871   5.319   3.439
    1   AR   Ar  187   3.445   6.721   3.364
    1   AR   Ar  188   3.151   6.981   1.953
    1   AR   Ar  189   4.646   2.411   6.309
    1   AR   Ar  190   3.275   6.124   4.315
    1   AR   Ar  191   2.808   6.414   7.691
    1   AR   Ar  192   3.796   6.049   5.123
    1   AR   Ar  193   3.082   5.916   1.059
    1   AR   Ar  194   4.267   3.684  -1.009
    1   AR   Ar  195   5.474   1.705   0.251
    1   AR   Ar  196   4.542   0.969   0.345
    1   AR   Ar  197   3.652   1.475   0.366
    1   AR   Ar  198   6.514   1.352   1.559
    1   AR   Ar  199   2.860   0.695   2.679
    1   AR   Ar  200   5.958   2.694  -0.126
    1   AR   Ar  201   5.790   6.044   3.810
    1   AR   Ar  202   6.092   0.934   4.863
    1   AR   Ar  203   7.028   0.048   2.944
    1   AR   Ar  204   4.894   6.387   5.117
    1   AR   Ar  205   6.750   6.329   1.816
    1   AR   Ar  206   5.196   0.343   5.410
    1   AR   Ar  207   0.757   1.648   5.781
    1   AR   Ar  208   0.725   6.276   4.181
    1   AR   Ar  209   6.998   2.708  -1.802
    1   AR   Ar  210   2.403   0.166   0.492
    1   AR   Ar  211   6.721   3.472   0.475
    1   AR   Ar  212   6.318   3.121  -1.024
    1   AR   Ar  213   3.113   0.713   1.494
    1   AR   Ar  214   4.707   3.034   1.864
    1   AR   Ar  215   5.836   2.841   1.572
    1   AR   Ar  216   0.720   2.724   1.798
    1   AR   Ar  217   5.223   2.787   3.923
    1   AR   Ar  218   4.516   3.382   4.651
    1   AR   Ar  219   4.183   2.887   3.589
    1   AR   Ar  220   3.748   3.393   1.524
    1   AR   Ar  221   6.719   5.610   4.469
    1   AR   Ar  222   4.616   0.145   6.739
    1   AR   Ar  223   5.861   1.574   6.653
    1   AR   Ar  224   4.905   2.405   5.237
    1   AR   Ar  225   6.169   2.926   3.334
    1   AR   Ar  226   2.285   3.557   3.972
    1   AR   Ar  227   6.830   3.467   1.838
    1   AR   Ar  228   5.360   6.909   1.684
    1   AR   Ar  229   6.075   5.637  -1.740
    1   AR   Ar  230   4.102   4.316   3.334
    1   AR   Ar  231   5.481   1.699   4.147
    1   AR   Ar  232   5.196   1.743   1.474
    1   AR   Ar  233   6.343   2.298   4.228
    1   AR   Ar  234   6.120   3.240   4.818
    1   AR   Ar  235   6.602   1.289   3.878
    1   AR   Ar  236   5.139   5.382   5.958
    1   AR   Ar  237   5.960   3.007   6.041
    1   AR   Ar  238   5.604   4.174   6.245
    1   AR   Ar  239   6.778   4.355   9.276
    1   AR   Ar  240   6.860   2.658   7.059
    1   AR   Ar  241   1.755   6.555  -0.394
    1   AR   Ar  242   5.494   5.464   0.482
    1   AR   Ar  243   5.101   4.967   2.781
    1   AR   Ar  244   0.365   5.731   0.006
    1   AR   Ar  245   3.954   0.694   1.928
    1   AR   Ar  246   5.571   6.968  -0.014
    1   AR   Ar  247   5.815   4.080   0.997
    1   AR   Ar  248   5.758   5.964  -0.512
    1   AR   Ar  249   4.497   6.116   1.558
    1   AR   Ar  250   4.562   5.551   4.525
    1   AR   Ar  251   4.776   4.321   4.054
    1   AR   Ar  252   3.970   5.795   3.372
    1   AR   Ar  253   6.795   3.545   6.365
    1   AR   Ar  254   2.128   2.491   8.868
    1   AR   Ar  255   3.834   4.963  10.087
    1   AR   Ar  256   6.464   4.855   3.357
    7.12000  7.12000 12.00000
Argon-slab step 3670
  256
    1   AR   Ar    1   4.918   2.185  -2.189
    1   AR   Ar    2   6.083   0.582   0.849
    1   AR   Ar    3   3.547   1.455  -1.043
    1   AR   Ar    4   1.598   0.662  -0.030
    1   AR   Ar    5   6.584   6.451   0.278
    1   AR   Ar    6   7.071   0.939   2.408
    1   AR   Ar    7   5.800   4.030   3.026
    1   AR   Ar    8   4.890   0.639   1.398
    1   AR   Ar    9   1.054   6.955   3.028
    1   AR   Ar   10   0.315   0.152   4.029
    1   AR   Ar   11   1.787   6.766   4.297
    1   AR   Ar   12   0.762   1.398   2.985
    1   AR   Ar   13   7.075   0.549   5.004
    1   AR   Ar   14   5.787   1.791   7.870
    1   AR   Ar   15   4.813   6.514   7.973
    1   AR   Ar   16   0.726   6.823   5.173
    1   AR   Ar   17   6.656   2.319   0.615
    1   AR   Ar   18   6.396   4.961  -0.892
    1   AR   Ar   19   3.390   3.392   0.284
    1   AR   Ar   20   5.144   4.844  -2.564
    1   AR   Ar   21   3.536   1.815   1.595
    1   AR   Ar   22   6.402   1.926   2.916
    1   AR   Ar   23   0.408   0.510   0.581
    1   AR   Ar   24   6.871   2.361   2.103
    1   AR   Ar   25   0.496   1.775   4.409
    1   AR   Ar   26   6.271   0.019   4.134
    1   AR   Ar   27   1.810   0.780   2.658
    1   AR   Ar   28   7.049   2.551   4.903
    1   AR   Ar   29   5.520   3.228   6.882
    1   AR   Ar   30   1.724   1.294   4.004
    1   AR   Ar   31   3.233   0.880   7.319
    1   AR   Ar   32   1.345   2.617   6.762
    1   AR   Ar   33   0.351   4.619   0.237
    1   AR   Ar   34   0.306   4.962   2.293
    1   AR   Ar   35   5.937   5.813   1.349
    1   AR   Ar   36   5.926   1.673  -3.073
    1   AR   Ar   37   5.316   2.145   2.479
    1   AR   Ar   38   6.996   3.945   2.794
    1   AR   Ar   39   1.044   4.259   2.144
    1   AR   Ar   40   1.781   3.541   1.827
    1   AR   Ar   41   0.220   2.271   3.560
    1   AR   Ar   42   5.905   5.332   5.012
    1   AR   Ar   43   6.805   2.401   6.125
    1   AR   Ar   44   0.850   4.372   3.316
    1   AR   Ar   45   0.591   3.200   5.620
    1   AR   Ar   46   0.045   4.937   5.085
    1   AR   Ar   47   5.297   3.958   7.552
    1   AR   Ar   48   6.142   4.506   7.125
    1   AR   Ar   49   4.984   0.646  -0.906
    1   AR   Ar   50   4.400   5.231   0.694
    1   AR   Ar   51   6.652   5.214   1.760
    1   AR   Ar   52   6.036   3.031  -2.278
    1   AR   Ar   53   5.506   5.979   2.300
    1   AR   Ar   54   0.607   6.157   2.505
    1   AR   Ar   55   6.536   5.738   2.768
    1   AR   Ar   56   6.668   0.286   1.677
    1   AR   Ar   57   4.872   3.519   2.795
    1   AR   Ar   58   7.016   3.238   3.964
    1   AR   Ar   59   2.389   5.141   6.185
    1   AR   Ar   60   0.270   5.372   3.273
    1   AR   Ar   61   0.157   4.636   6.408
    1   AR   Ar   62   6.505   4.400   4.276
    1   AR   Ar   63   1.707   1.225   6.026
    1   AR   Ar   64   1.165   5.647   5.284
    1   AR   Ar   65   3.467   7.008   1.009
    1   AR   Ar   66   0.778   1.499   1.885
    1   AR   Ar   67   4.194   7.024  -0.484
    1   AR   Ar   68   1.812   1.888  -1.120
    1   AR   Ar   69   2.457   1.181   0.816
    1   AR   Ar   70   0.649   0.326   1.979
    1   AR   Ar   71   2.715   1.141   3.621
    1   AR   Ar   72   4.069   6.385   2.374
    1   AR   Ar   73   4.363   0.493   3.345
    1   AR   Ar   74   1.037   0.672   4.826
    1   AR   Ar   75   3.437   0.791   4.980
    1   AR   Ar   76   1.590   0.472   1.183
    1   AR   Ar   77   2.090   6.749   5.608
    1   AR   Ar   78   0.254   6.147   5.935
    1   AR   Ar   79   3.957   5.821   6.526
    1   AR   Ar   80   4.034   4.981   5.640
    1   AR   Ar   81   2.566   6.166   0.150
    1   AR   Ar   82   6.578   5.253   0.372
    1   AR   Ar   83   1.147   2.027   0.930
    1   AR   Ar   84   0.302   4.334   1.391
    1   AR   Ar   85   1.077   3.229   0.943
    1   AR   Ar   86   2.052   5.505   1.031
    1   AR   Ar   87   2.258   2.389   1.323
    1   AR   Ar   88   2.193   4.551   1.585
    1   AR   Ar   89   0.213   2.944   2.816
    1   AR   Ar   90   2.765   1.838   4.648
    1   AR   Ar   91   1.343   2.198   3.456
    1   AR   Ar   92   1.568   2.630   2.294
    1   AR   Ar   93   0.981   0.490   5.802
    1   AR   Ar   94   0.212   0.118  11.173
    1   AR   Ar   95   4.155   0.478   5.735
    1   AR   Ar   96   2.784   0.043   4.660
    1   AR   Ar   97   4.469   1.786  -0.473
    1   AR   Ar   98   1.824   4.528   3.066
    1   AR   Ar   99   6.628   1.234   0.101
    1   AR   Ar  100   1.398   3.024  -1.022
    1   AR   Ar  101   3.299   4.955   1.601
    1   AR   Ar  102   3.726   1.525   2.600
    1   AR   Ar  103   1.222   4.726   1.097
    1   AR   Ar  104   3.034   4.062  -1.079
    1   AR   Ar  105   1.978   2.463   4.240
    1   AR   Ar  106   3.666   2.977   5.565
    1   AR   Ar  107   0.769   4.021   4.540
    1   AR   Ar  108   2.145   0.803   4.951
    1   AR   Ar  109   1.636   3.421   5.433
    1   AR   Ar  110   2.551   2.678   5.549
    1   AR   Ar  111   5.156   4.988   7.427
    1   AR   Ar  112   0.914   5.394   6.515
    1   AR   Ar  113   3.288   4.725   0.468
    1   AR   Ar  114   2.677   7.085  -0.503
    1   AR   Ar  115   2.388   4.823   0.043
    1   AR   Ar  116   6.649   0.543  -0.752
    1   AR   Ar  117   1.064   5.223   4.053
    1   AR   Ar  118   1.549   5.641   3.186
    1   AR   Ar  119   2.450   3.841   2.725
    1   AR   Ar  120   1.735   6.538   1.576
    1   AR   Ar  121   5.573   4.049   5.185
    1   AR   Ar  122   2.848   5.895   5.654
    1   AR   Ar  123   3.278   3.991   5.379
    1   AR   Ar  124   1.263   5.246   2.201
    1   AR   Ar  125   6.830   3.941   5.216
    1   AR   Ar  126   6.858   6.612   4.983
    1   AR   Ar  127   4.610   3.879   6.188
    1   AR   Ar  128   3.321   4.820   6.682
    1   AR   Ar  129   2.334   6.132   3.798
    1   AR   Ar  130   4.526   2.391  -3.198
    1   AR   Ar  131   3.439   3.112  -0.696
    1   AR   Ar  132   0.565   2.299   0.120
    1   AR   Ar  133   4.840   6.262   3.220
    1   AR   Ar  134   4.667   1.295   4.649
    1   AR   Ar  135   6.051   0.799   2.513
    1   AR   Ar  136   5.694   6.848   2.771
    1   AR   Ar  137   2.171   4.901   3.904
    1   AR   Ar  138   4.953   1.391   5.903
    1   AR   Ar  139   5.748   1.893   5.408
    1   AR   Ar  140   4.101   7.087   4.286
    1   AR   Ar  141   3.742   4.665   4.499
    1   AR   Ar  142   3.422   6.723   5.775
    1   AR   Ar  143   6.163   6.828   5.782
    1   AR   Ar  144   6.884   1.560   5.234
    1   AR   Ar  145   5.005   4.531  -0.212
    1   AR   Ar  146   3.013   2.907   2.270
    1   AR   Ar  147   4.428   2.712  -1.199
    1   AR   Ar  148   3.447   6.272  -0.632
    1   AR   Ar  149   2.771   2.026  -0.445
    1   AR   Ar  150   2.462   1.771   2.160
    1   AR   Ar  151   2.478   2.456   3.372
    1   AR   Ar  152   2.518   2.864  -1.291
    1   AR   Ar  153   5.262   0.269   4.025
    1   AR   Ar  154   3.526   1.824   3.774
    1   AR   Ar  155   6.325   4.774   5.810
    1   AR   Ar  156   3.369   3.246   3.216
    1   AR   Ar  157   0.942   4.283   5.784
    1   AR   Ar  158   0.639   1.821   6.880
    1   AR   Ar  159   4.349   1.720   7.363
    1   AR   Ar  160   1.542   1.853   4.934
    1   AR   Ar  161   5.082   4.204   1.936
    1   AR   Ar  162   4.656   5.914  -0.654
    1   AR   Ar  163   6.205   3.926  -0.299
    1   AR   Ar  164   2.359   5.452   2.312
    1   AR   Ar  165   4.533   2.427   0.813
    1   AR   Ar  166   3.095   3.176   4.446
    1   AR   Ar  167   4.996   0.639   2.509
    1   AR   Ar  168   5.195   3.920  -1.728
    1   AR   Ar  169   3.283   4.271   2.519
    1   AR   Ar  170   2.248   3.926   6.158
    1   AR   Ar  171   5.721   3.806   4.028
    1   AR   Ar  172   4.606   4.346   5.089
    1   AR   Ar  173   3.108   3.009   6.478
    1   AR   Ar  174   1.986   6.070   6.349
    1   AR   Ar  175   3.549   2.134   6.367
    1   AR   Ar  176   3.985   2.398   4.508
    1   AR   Ar  177   0.027   5.807  -1.009
    1   AR   Ar  178   3.748   5.294  -0.397
    1   AR   Ar  179   3.784   6.127   0.465
    1   AR   Ar  180   2.612   1.535  -3.517
    1   AR   Ar  181   0.427   5.779   1.061
    1   AR   Ar  182   2.388   6.733   2.824
    1   AR   Ar  183   4.043   5.160   2.405
    1   AR   Ar  184   4.838   6.460   0.597
    1   AR   Ar  185   2.821   5.055   5.008
    1   AR   Ar  186   2.891   5.321   3.438
    1   AR   Ar  187   3.443   6.720   3.350
    1   AR   Ar  188   3.148   6.967   1.976
    1   AR   Ar  189   4.663   2.408   6.303
    1   AR   Ar  190   3.306   6.110   4.300
    1   AR   Ar  191   2.796   6.407   7.690
    1   AR   Ar  192   3.814   6.079   5.133
    1   AR   Ar  193   3.063   5.923   1.039
    1   AR   Ar  194   4.273   3.671  -0.990
    1   AR   Ar  195   5.480   1.715   0.275
    1   AR   Ar  196   4.566   0.981   0.332
    1   AR   Ar  197   3.689   1.503   0.380
    1   AR   Ar  198   6.504   1.366   1.528
    1   AR   Ar  199   2.853   0.687   2.685
    1   AR   Ar  200   5.948   2.680  -0.154
    1   AR   Ar  201   5.816   6.062   3.796
    1   AR   Ar  202   6.084   0.928   4.866
    1   AR   Ar  203   7.062   0.070   2.934
    1   AR   Ar  204   4.911   6.364   5.111
    1   AR   Ar  205   6.744   6.299   1.830
    1   AR   Ar  206   5.237   0.321   5.422
    1   AR   Ar  207   0.773   1.672   5.729
    1   AR   Ar  208   0.697   6.261   4.193
    1   AR   Ar  209   6.977   2.705  -1.812
    1   AR   Ar  210   2.429   0.175   0.553
    1   AR   Ar  211   6.734   3.487   0.473
    1   AR   Ar  212   6.315   3.136  -1.018
    1   AR   Ar  213   3.090   0.701   1.499
    1   AR   Ar  214   4.699   3.034   1.829
    1   AR   Ar  215   5.822   2.884   1.586
    1   AR   Ar  216   0.698   2.688   1.806
    1   AR   Ar  217   5.229   2.763   3.894
    1   AR   Ar  218   4.538   3.373   4.604
    1   AR   Ar  219   4.192   2.918   3.600
    1   AR   Ar  220   3.750   3.359   1.523
    1   AR   Ar  221   6.754   5.600   4.449
    1   AR   Ar  222   4.588   0.133   6.758
    1   AR   Ar  223   5.848   1.618   6.658
    1   AR   Ar  224   4.910   2.396   5.209
    1   AR   Ar  225   6.144   2.931   3.369
    1   AR   Ar  226   2.282   3.557   3.960
    1   AR   Ar  227   6.839   3.447   1.834
    1   AR   Ar  228   5.347   6.934   1.655
    1   AR   Ar  229   6.074   5.626  -1.768
    1   AR   Ar  230   4.095   4.338   3.335
    1   AR   Ar  231   5.479   1.696   4.127
    1   AR   Ar  232   5.228   1.722   1.500
    1   AR   Ar  233   6.333   2.289   4.243
    1   AR   Ar  234   6.133   3.222   4.814
    1   AR   Ar  235   6.591   1.271   3.877
    1   AR   Ar  236   5.124   5.371   5.950
    1   AR   Ar  237   5.970   2.992   6.010
    1   AR   Ar  238   5.614   4.155   6.229
    1   AR   Ar  239   6.781   4.368   9.282
    1   AR   Ar  240   6.849   2.645   7.074
    1   AR   Ar  241   1.752   6.582  -0.390
    1   AR   Ar  242   5.468   5.467   0.468
    1   AR   Ar  243   5.116   4.946   2.804
    1   AR   Ar  244   0.371   5.757   0.029
    1   AR   Ar  245   3.966   0.727   1.933
    1   AR   Ar  246   5.581   6.947  -0.017
    1   AR   Ar  247   5.824   4.068   0.972
    1   AR   Ar  248   5.751   5.960  -0.514
    1   AR   Ar  249   4.502   6.147   1.549
    1   AR   Ar  250   4.566   5.549   4.504
    1   AR   Ar  251   4.742   4.346   4.062
    1   AR   Ar  252   3.958   5.792   3.348
    1   AR   Ar  253   6.779   3.569   6.351
    1   AR   Ar  254   2.109   2.495   8.870
    1   AR   Ar  255   3.832   5.008  10.090
    1   AR   Ar  256   6.469   4.871   3.351
    7.12000  7.12000 12.00000
Argon-slab step 3675
  256
    1   AR   Ar    1   4.865   2.194  -2.177
    1   AR   Ar    2   6.099   0.585   0.855
    1   AR   Ar    3   3.584   1.459  -1.059
    1   AR   Ar    4   1.602   0.660  -0.049
    1   AR   Ar    5   6.563   6.441   0.259
    1   AR   Ar    6   7.084   0.946   2.381
    1   AR   Ar    7   5.791   4.029   3.030
    1   AR   Ar    8   4.862   0.694   1.351
    1   AR   Ar    9   1.008   6.964   3.009
    1   AR   Ar   10   0.322   0.110   4.003
    1   AR   Ar   11   1.781   6.801   4.297
    1   AR   Ar   12   0.781   1.394   2.973
    1   AR   Ar   13   7.069   0.568   4.981
    1   AR   Ar   14   5.757   1.786   7.890
    1   AR   Ar   15   4.755   6.494   7.981
    1   AR   Ar   16   0.726   6.822   5.170
    1   AR   Ar   17   6.678   2.310   0.632
    1   AR   Ar   18   6.391   4.984  -0.899
    1   AR   Ar   19   3.420   3.401   0.300
    1   AR   Ar   20   5.192   4.828  -2.566
    1   AR   Ar   21   3.525   1.847   1.587
    1   AR   Ar   22   6.445   1.916   2.933
    1   AR   Ar   23   0.375   0.515   0.608
    1   AR   Ar   24   6.895   2.357   2.086
    1   AR   Ar   25   0.483   1.779   4.416
    1   AR   Ar   26   6.279   0.012   4.140
    1   AR   Ar   27   1.826   0.775   2.651
    1   AR   Ar   28   7.015   2.543   4.901
    1   AR   Ar   29   5.530   3.211   6.874
    1   AR   Ar   30   1.752   1.262   4.012
    1   AR   Ar   31   3.248   0.875   7.340
    1   AR   Ar   32   1.340   2.628   6.795
    1   AR   Ar   33   0.358   4.606   0.247
    1   AR   Ar   34   0.303   4.967   2.298
    1   AR   Ar   35   5.915   5.811   1.330
    1   AR   Ar   36   5.922   1.670  -3.062
    1   AR   Ar   37   5.320   2.149   2.496
    1   AR   Ar   38   6.987   3.947   2.791
    1   AR   Ar   39   1.010   4.238   2.141
    1   AR   Ar   40   1.748   3.558   1.829
    1   AR   Ar   41   0.183   2.286   3.545
    1   AR   Ar   42   5.924   5.320   5.035
    1   AR   Ar   43   6.832   2.418   6.152
    1   AR   Ar   44   0.868   4.365   3.305
    1   AR   Ar   45   0.601   3.182   5.615
    1   AR   Ar   46   0.046   4.944   5.088
    1   AR   Ar   47   5.307   3.981   7.533
    1   AR   Ar   48   6.132   4.483   7.129
    1   AR   Ar   49   4.995   0.622  -0.893
    1   AR   Ar   50   4.397   5.258   0.670
    1   AR   Ar   51   6.659   5.233   1.746
    1   AR   Ar   52   6.020   3.016  -2.226
    1   AR   Ar   53   5.508   5.975   2.282
    1   AR   Ar   54   0.618   6.157   2.501
    1   AR   Ar   55   6.525   5.757   2.778
    1   AR   Ar   56   6.632   0.278   1.736
    1   AR   Ar   57   4.891   3.520   2.768
    1   AR   Ar   58   6.993   3.262   3.952
    1   AR   Ar   59   2.414   5.128   6.196
    1   AR   Ar   60   0.299   5.387   3.281
    1   AR   Ar   61   0.135   4.662   6.388
    1   AR   Ar   62   6.505   4.380   4.299
    1   AR   Ar   63   1.714   1.232   6.040
    1   AR   Ar   64   1.175   5.646   5.289
    1   AR   Ar   65   3.466   7.026   1.021
    1   AR   Ar   66   0.784   1.487   1.897
    1   AR   Ar   67   4.212   7.057  -0.482
    1   AR   Ar   68   1.806   1.873  -1.126
    1   AR   Ar   69   2.487   1.183   0.809
    1   AR   Ar   70   0.647   0.312   1.979
    1   AR   Ar   71   2.709   1.143   3.608
    1   AR   Ar   72   4.033   6.407   2.391
    1   AR   Ar   73   4.340   0.467   3.335
    1   AR   Ar   74   1.039   0.693   4.817
    1   AR   Ar   75   3.420   0.824   4.979
    1   AR   Ar   76   1.599   0.470   1.178
    1   AR   Ar   77   2.099   6.706   5.616
    1   AR   Ar   78   0.261   6.147   5.927
    1   AR   Ar   79   3.941   5.845   6.508
    1   AR   Ar   80   4.027   4.973   5.657
    1   AR   Ar   81   2.563   6.181   0.135
    1   AR   Ar   82   6.606   5.272   0.358
    1   AR   Ar   83   1.167   2.022   0.911
    1   AR   Ar   84   0.325   4.320   1.385
    1   AR   Ar   85   1.073   3.231   0.935
    1   AR   Ar   86   2.059   5.491   1.027
    1   AR   Ar   87   2.260   2.374   1.335
    1   AR   Ar   88   2.187   4.496   1.605
    1   AR   Ar   89   0.240   2.919   2.836
    1   AR   Ar   90   2.795   1.843   4.672
    1   AR   Ar   91   1.370   2.192   3.468
    1   AR   Ar   92   1.560   2.664   2.266
    1   AR   Ar   93   0.983   0.511   5.794
    1   AR   Ar   94   0.192   0.118  11.157
    1   AR   Ar   95   4.160   0.494   5.734
    1   AR   Ar   96   2.787   0.037   4.662
    1   AR   Ar   97   4.432   1.794  -0.464
    1   AR   Ar   98   1.814   4.530   3.090
    1   AR   Ar   99   6.635   1.200   0.131
    1   AR   Ar  100   1.406   3.021  -1.004
    1   AR   Ar  101   3.303   4.990   1.617
    1   AR   Ar  102   3.762   1.511   2.595
    1   AR   Ar  103   1.236   4.753   1.095
    1   AR   Ar  104   3.027   4.031  -1.087
    1   AR   Ar  105   2.046   2.454   4.220
    1   AR   Ar  106   3.673   3.001   5.576
    1   AR   Ar  107   0.793   4.018   4.548
    1   AR   Ar  108   2.140   0.823   4.956
    1   AR   Ar  109   1.622   3.394   5.431
    1   AR   Ar  110   2.574   2.664   5.564
    1   AR   Ar  111   5.165   4.996   7.416
    1   AR   Ar  112   0.890   5.427   6.519
    1   AR   Ar  113   3.298   4.711   0.445
    1   AR   Ar  114   2.718   7.075  -0.505
    1   AR   Ar  115   2.374   4.816   0.050
    1   AR   Ar  116   6.646   0.533  -0.739
    1   AR   Ar  117   1.087   5.234   4.049
    1   AR   Ar  118   1.545   5.635   3.172
    1   AR   Ar  119   2.444   3.836   2.710
    1   AR   Ar  120   1.756   6.537   1.543
    1   AR   Ar  121   5.573   4.040   5.165
    1   AR   Ar  122   2.886   5.944   5.675
    1   AR   Ar  123   3.303   4.017   5.401
    1   AR   Ar  124   1.276   5.264   2.199
    1   AR   Ar  125   6.835   3.925   5.210
    1   AR   Ar  126   6.856   6.609   4.987
    1   AR   Ar  127   4.624   3.897   6.181
    1   AR   Ar  128   3.294   4.803   6.655
    1   AR   Ar  129   2.356   6.122   3.809
    1   AR   Ar  130   4.526   2.378  -3.202
    1   AR   Ar  131   3.411   3.104  -0.724
    1   AR   Ar  132   0.556   2.306   0.118
    1   AR   Ar  133   4.834   6.253   3.223
    1   AR   Ar  134   4.652   1.305   4.660
    1   AR   Ar  135   6.076   0.815   2.538
    1   AR   Ar  136   5.735   6.855   2.756
    1   AR   Ar  137   2.149   4.886   3.915
    1   AR   Ar  138   4.958   1.396   5.911
    1   AR   Ar  139   5.784   1.904   5.426
    1   AR   Ar  140   4.097   7.101   4.304
    1   AR   Ar  141   3.755   4.678   4.517
    1   AR   Ar  142   3.423   6.703   5.779
    1   AR   Ar  143   6.181   6.820   5.786
    1   AR   Ar  144   6.899   1.529   5.210
    1   AR   Ar  145   5.003   4.549  -0.227
    1   AR   Ar  146   3.038   2.927   2.269
    1   AR   Ar  147   4.451   2.706  -1.213
    1   AR   Ar  148   3.467   6.292  -0.644
    1   AR   Ar  149   2.748   2.019  -0.481
    1   AR   Ar  150   2.479   1.782   2.154
    1   AR   Ar  151   2.457   2.497   3.361
    1   AR   Ar  152   2.528   2.865  -1.276
    1   AR   Ar  153   5.269   0.256   4.021
    1   AR   Ar  154   3.518   1.830   3.746
    1   AR   Ar  155   6.346   4.763   5.821
    1   AR   Ar  156   3.348   3.257   3.186
    1   AR   Ar  157   0.952   4.301   5.807
    1   AR   Ar  158   0.660   1.779   6.883
    1   AR   Ar  159   4.334   1.703   7.378
    1   AR   Ar  160   1.558   1.840   4.915
    1   AR   Ar  161   5.069   4.214   1.942
    1   AR   Ar  162   4.674   5.924  -0.627
    1   AR   Ar  163   6.212   3.924  -0.303
    1   AR   Ar  164   2.364   5.472   2.331
    1   AR   Ar  165   4.536   2.441   0.812
    1   AR   Ar  166   3.102   3.193   4.446
    1   AR   Ar  167   4.991   0.607   2.479
    1   AR   Ar  168   5.180   3.916  -1.685
    1   AR   Ar  169   3.298   4.289   2.532
    1   AR   Ar  170   2.202   3.914   6.159
    1   AR   Ar  171   5.732   3.807   4.043
    1   AR   Ar  172   4.600   4.339   5.054
    1   AR   Ar  173   3.093   3.010   6.462
    1   AR   Ar  174   2.008   6.065   6.328
    1   AR   Ar  175   3.579   2.123   6.359
    1   AR   Ar  176   3.989   2.373   4.519
    1   AR   Ar  177   0.045   5.806  -1.001
    1   AR   Ar  178   3.755   5.319  -0.413
    1   AR   Ar  179   3.784   6.137   0.479
    1   AR   Ar  180   2.640   1.514  -3.528
    1   AR   Ar  181   0.453   5.778   1.096
    1   AR   Ar  182   2.376   6.743   2.796
    1   AR   Ar  183   4.041   5.167   2.415
    1   AR   Ar  184   4.835   6.486   0.578
    1   AR   Ar  185   2.817   5.070   4.995
    1   AR   Ar  186   2.929   5.329   3.424
    1   AR   Ar  187   3.439   6.721   3.335
    1   AR   Ar  188   3.145   6.941   2.013
    1   AR   Ar  189   4.649   2.431   6.295
    1   AR   Ar  190   3.330   6.097   4.273
    1   AR   Ar  191   2.783   6.400   7.688
    1   AR   Ar  192   3.841   6.096   5.151
    1   AR   Ar  193   3.028   5.925   1.037
    1   AR   Ar  194   4.279   3.671  -0.971
    1   AR   Ar  195   5.480   1.715   0.292
    1   AR   Ar  196   4.596   0.990   0.319
    1   AR   Ar  197   3.721   1.534   0.393
    1   AR   Ar  198   6.493   1.381   1.498
    1   AR   Ar  199   2.852   0.679   2.688
    1   AR   Ar  200   5.936   2.665  -0.178
    1   AR   Ar  201   5.839   6.075   3.778
    1   AR   Ar  202   6.071   0.921   4.866
    1   AR   Ar  203   7.095   0.085   2.927
    1   AR   Ar  204   4.941   6.350   5.095
    1   AR   Ar  205   6.740   6.272   1.847
    1   AR   Ar  206   5.278   0.300   5.433
    1   AR   Ar  207   0.786   1.697   5.676
    1   AR   Ar  208   0.670   6.244   4.206
    1   AR   Ar  209   6.956   2.703  -1.822
    1   AR   Ar  210   2.457   0.179   0.614
    1   AR   Ar  211   6.749   3.498   0.476
    1   AR   Ar  212   6.314   3.153  -1.016
    1   AR   Ar  213   3.053   0.704   1.498
    1   AR   Ar  214   4.696   3.031   1.794
    1   AR   Ar  215   5.809   2.926   1.600
    1   AR   Ar  216   0.664   2.651   1.828
    1   AR   Ar  217   5.219   2.799   3.861
    1   AR   Ar  218   4.560   3.364   4.556
    1   AR   Ar  219   4.214   2.944   3.617
    1   AR   Ar  220   3.748   3.327   1.520
    1   AR   Ar  221   6.733   5.615   4.442
    1   AR   Ar  222   4.560   0.120   6.776
    1   AR   Ar  223   5.836   1.663   6.662
    1   AR   Ar  224   4.908   2.392   5.178
    1   AR   Ar  225   6.121   2.938   3.401
    1   AR   Ar  226   2.269   3.552   3.949
    1   AR   Ar  227   6.849   3.427   1.829
    1   AR   Ar  228   5.342   6.946   1.631
    1   AR   Ar  229   6.064   5.609  -1.792
    1   AR   Ar  230   4.072   4.344   3.326
    1   AR   Ar  231   5.478   1.692   4.107
    1   AR   Ar  232   5.261   1.700   1.522
    1   AR   Ar  233   6.322   2.279   4.252
    1   AR   Ar  234   6.157   3.223   4.783
    1   AR   Ar  235   6.581   1.252   3.876
    1   AR   Ar  236   5.109   5.358   5.940
    1   AR   Ar  237   5.976   2.977   5.970
    1   AR   Ar  238   5.625   4.134   6.218
    1   AR   Ar  239   6.784   4.380   9.289
    1   AR   Ar  240   6.838   2.635   7.101
    1   AR   Ar  241   1.745   6.609  -0.386
    1   AR   Ar  242   5.440   5.470   0.452
    1   AR   Ar  243   5.131   4.925   2.828
    1   AR   Ar  244   0.378   5.782   0.049
    1   AR   Ar  245   3.989   0.758   1.945
    1   AR   Ar  246   5.592   6.928  -0.021
    1   AR   Ar  247   5.834   4.056   0.946
    1   AR   Ar  248   5.746   5.955  -0.515
    1   AR   Ar  249   4.515   6.172   1.526
    1   AR   Ar  250   4.569   5.544   4.482
    1   AR   Ar  251   4.719   4.371   4.076
    1   AR   Ar  252   3.939   5.782   3.327
    1   AR   Ar  253   6.764   3.595   6.337
    1   AR   Ar  254   2.089   2.498   8.872
    1   AR   Ar  255   3.829   5.054  10.093
    1   AR   Ar  256   6.471   4.885   3.342
    7.12000  7.12000 12.00000
Argon-slab step 3680
  256
    1   AR   Ar    1   4.813   2.203  -2.164
    1   AR   Ar    2   6.113   0.586   0.860
    1   AR   Ar    3   3.620   1.463  -1.075
    1   AR   Ar    4   1.608   0.657  -0.067
    1   AR   Ar    5   6.541   6.429   0.241
    1   AR   Ar    6   7.098   0.967   2.355
    1   AR   Ar    7   5.785   4.031   3.030
    1   AR   Ar    8   4.834   0.753   1.300
    1   AR   Ar    9   0.967   6.976   2.993
    1   AR   Ar   10   0.329   0.071   3.977
    1   AR   Ar   11   1.768   6.840   4.302
    1   AR   Ar   12   0.800   1.389   2.963
    1   AR   Ar   13   7.066   0.577   4.954
    1   AR   Ar   14   5.727   1.781   7.908
    1   AR   Ar   15   4.698   6.475   7.989
    1   AR   Ar   16   0.731   6.819   5.165
    1   AR   Ar   17   6.699   2.301   0.649
    1   AR   Ar   18   6.384   5.007  -0.905
    1   AR   Ar   19   3.451   3.411   0.319
    1   AR   Ar   20   5.239   4.810  -2.566
    1   AR   Ar   21   3.497   1.835   1.558
    1   AR   Ar   22   6.486   1.904   2.951
    1   AR   Ar   23   0.341   0.521   0.636
    1   AR   Ar   24   6.902   2.345   2.068
    1   AR   Ar   25   0.473   1.779   4.424
    1   AR   Ar   26   6.291   0.006   4.144
    1   AR   Ar   27   1.835   0.772   2.643
    1   AR   Ar   28   6.990   2.542   4.908
    1   AR   Ar   29   5.538   3.191   6.865
    1   AR   Ar   30   1.775   1.231   4.020
    1   AR   Ar   31   3.263   0.871   7.360
    1   AR   Ar   32   1.336   2.640   6.827
    1   AR   Ar   33   0.364   4.593   0.259
    1   AR   Ar   34   0.301   4.970   2.311
    1   AR   Ar   35   5.890   5.813   1.307
    1   AR   Ar   36   5.909   1.667  -3.033
    1   AR   Ar   37   5.325   2.153   2.503
    1   AR   Ar   38   6.979   3.952   2.790
    1   AR   Ar   39   0.982   4.213   2.143
    1   AR   Ar   40   1.718   3.577   1.828
    1   AR   Ar   41   0.164   2.294   3.546
    1   AR   Ar   42   5.939   5.308   5.057
    1   AR   Ar   43   6.864   2.413   6.181
    1   AR   Ar   44   0.873   4.360   3.299
    1   AR   Ar   45   0.616   3.184   5.611
    1   AR   Ar   46   0.051   4.949   5.095
    1   AR   Ar   47   5.313   4.001   7.517
    1   AR   Ar   48   6.136   4.484   7.147
    1   AR   Ar   49   5.005   0.598  -0.879
    1   AR   Ar   50   4.393   5.284   0.645
    1   AR   Ar   51   6.660   5.249   1.725
    1   AR   Ar   52   6.002   3.003  -2.173
    1   AR   Ar   53   5.507   5.968   2.265
    1   AR   Ar   54   0.626   6.152   2.495
    1   AR   Ar   55   6.513   5.780   2.786
    1   AR   Ar   56   6.596   0.266   1.793
    1   AR   Ar   57   4.908   3.520   2.743
    1   AR   Ar   58   6.972   3.262   3.940
    1   AR   Ar   59   2.437   5.109   6.203
    1   AR   Ar   60   0.333   5.404   3.291
    1   AR   Ar   61   0.110   4.688   6.369
    1   AR   Ar   62   6.513   4.352   4.305
    1   AR   Ar   63   1.718   1.239   6.038
    1   AR   Ar   64   1.184   5.647   5.294
    1   AR   Ar   65   3.469   7.039   1.028
    1   AR   Ar   66   0.792   1.471   1.908
    1   AR   Ar   67   4.231   7.090  -0.477
    1   AR   Ar   68   1.802   1.860  -1.131
    1   AR   Ar   69   2.512   1.194   0.799
    1   AR   Ar   70   0.638   0.313   1.970
    1   AR   Ar   71   2.704   1.146   3.598
    1   AR   Ar   72   3.995   6.429   2.416
    1   AR   Ar   73   4.316   0.440   3.325
    1   AR   Ar   74   1.041   0.717   4.797
    1   AR   Ar   75   3.403   0.860   4.977
    1   AR   Ar   76   1.605   0.469   1.175
    1   AR   Ar   77   2.109   6.677   5.607
    1   AR   Ar   78   0.267   6.147   5.917
    1   AR   Ar   79   3.924   5.867   6.488
    1   AR   Ar   80   4.016   4.969   5.676
    1   AR   Ar   81   2.563   6.195   0.120
    1   AR   Ar   82   6.630   5.291   0.346
    1   AR   Ar   83   1.189   2.016   0.898
    1   AR   Ar   84   0.341   4.304   1.374
    1   AR   Ar   85   1.068   3.233   0.928
    1   AR   Ar   86   2.073   5.480   1.013
    1   AR   Ar   87   2.260   2.363   1.345
    1   AR   Ar   88   2.183   4.446   1.627
    1   AR   Ar   89   0.269   2.909   2.843
    1   AR   Ar   90   2.827   1.847   4.695
    1   AR   Ar   91   1.394   2.185   3.478
    1   AR   Ar   92   1.561   2.690   2.247
    1   AR   Ar   93   0.984   0.531   5.796
    1   AR   Ar   94   0.171   0.119  11.141
    1   AR   Ar   95   4.166   0.510   5.731
    1   AR   Ar   96   2.795   0.027   4.660
    1   AR   Ar   97   4.396   1.803  -0.453
    1   AR   Ar   98   1.804   4.533   3.095
    1   AR   Ar   99   6.642   1.169   0.163
    1   AR   Ar  100   1.409   3.026  -0.992
    1   AR   Ar  101   3.304   5.025   1.632
    1   AR   Ar  102   3.795   1.501   2.596
    1   AR   Ar  103   1.243   4.764   1.062
    1   AR   Ar  104   3.045   4.021  -1.088
    1   AR   Ar  105   2.109   2.448   4.219
    1   AR   Ar  106   3.666   3.001   5.555
    1   AR   Ar  107   0.817   4.016   4.556
    1   AR   Ar  108   2.133   0.845   4.962
    1   AR   Ar  109   1.609   3.367   5.427
    1   AR   Ar  110   2.596   2.651   5.576
    1   AR   Ar  111   5.173   5.009   7.404
    1   AR   Ar  112   0.867   5.461   6.522
    1   AR   Ar  113   3.316   4.698   0.427
    1   AR   Ar  114   2.760   7.067  -0.506
    1   AR   Ar  115   2.353   4.812   0.055
    1   AR   Ar  116   6.643   0.521  -0.725
    1   AR   Ar  117   1.110   5.244   4.046
    1   AR   Ar  118   1.543   5.630   3.159
    1   AR   Ar  119   2.431   3.820   2.695
    1   AR   Ar  120   1.779   6.536   1.510
    1   AR   Ar  121   5.579   4.030   5.145
    1   AR   Ar  122   2.910   5.969   5.692
    1   AR   Ar  123   3.328   4.045   5.423
    1   AR   Ar  124   1.295   5.284   2.195
    1   AR   Ar  125   6.841   3.908   5.208
    1   AR   Ar  126   6.851   6.604   4.987
    1   AR   Ar  127   4.633   3.915   6.172
    1   AR   Ar  128   3.295   4.770   6.620
    1   AR   Ar  129   2.380   6.109   3.815
    1   AR   Ar  130   4.527   2.365  -3.207
    1   AR   Ar  131   3.384   3.091  -0.753
    1   AR   Ar  132   0.544   2.315   0.114
    1   AR   Ar  133   4.834   6.248   3.224
    1   AR   Ar  134   4.634   1.314   4.674
    1   AR   Ar  135   6.096   0.832   2.563
    1   AR   Ar  136   5.776   6.867   2.743
    1   AR   Ar  137   2.129   4.876   3.945
    1   AR   Ar  138   4.962   1.400   5.918
    1   AR   Ar  139   5.827   1.913   5.445
    1   AR   Ar  140   4.093   7.113   4.323
    1   AR   Ar  141   3.765   4.693   4.535
    1   AR   Ar  142   3.434   6.712   5.804
    1   AR   Ar  143   6.198   6.813   5.791
    1   AR   Ar  144   6.910   1.506   5.190
    1   AR   Ar  145   5.001   4.569  -0.241
    1   AR   Ar  146   3.058   2.943   2.262
    1   AR   Ar  147   4.476   2.694  -1.234
    1   AR   Ar  148   3.485   6.314  -0.654
    1   AR   Ar  149   2.726   2.012  -0.518
    1   AR   Ar  150   2.498   1.789   2.152
    1   AR   Ar  151   2.446   2.540   3.331
    1   AR   Ar  152   2.536   2.866  -1.260
    1   AR   Ar  153   5.252   0.264   4.007
    1   AR   Ar  154   3.510   1.837   3.715
    1   AR   Ar  155   6.369   4.751   5.832
    1   AR   Ar  156   3.321   3.274   3.159
    1   AR   Ar  157   0.962   4.318   5.828
    1   AR   Ar  158   0.658   1.784   6.904
    1   AR   Ar  159   4.319   1.686   7.390
    1   AR   Ar  160   1.574   1.825   4.899
    1   AR   Ar  161   5.057   4.224   1.948
    1   AR   Ar  162   4.690   5.936  -0.599
    1   AR   Ar  163   6.215   3.926  -0.308
    1   AR   Ar  164   2.370   5.491   2.351
    1   AR   Ar  165   4.540   2.453   0.813
    1   AR   Ar  166   3.114   3.207   4.449
    1   AR   Ar  167   4.987   0.573   2.446
    1   AR   Ar  168   5.174   3.913  -1.663
    1   AR   Ar  169   3.340   4.332   2.554
    1   AR   Ar  170   2.158   3.905   6.160
    1   AR   Ar  171   5.732   3.803   4.057
    1   AR   Ar  172   4.590   4.331   5.031
    1   AR   Ar  173   3.074   3.020   6.448
    1   AR   Ar  174   2.025   6.051   6.321
    1   AR   Ar  175   3.596   2.108   6.345
    1   AR   Ar  176   3.994   2.349   4.533
    1   AR   Ar  177   0.036   5.816  -0.987
    1   AR   Ar  178   3.762   5.340  -0.426
    1   AR   Ar  179   3.797   6.151   0.479
    1   AR   Ar  180   2.669   1.492  -3.539
    1   AR   Ar  181   0.477   5.776   1.135
    1   AR   Ar  182   2.363   6.753   2.768
    1   AR   Ar  183   4.039   5.174   2.424
    1   AR   Ar  184   4.831   6.510   0.556
    1   AR   Ar  185   2.861   5.077   4.986
    1   AR   Ar  186   2.974   5.338   3.404
    1   AR   Ar  187   3.434   6.725   3.321
    1   AR   Ar  188   3.140   6.910   2.055
    1   AR   Ar  189   4.628   2.461   6.286
    1   AR   Ar  190   3.353   6.084   4.240
    1   AR   Ar  191   2.771   6.393   7.686
    1   AR   Ar  192   3.869   6.077   5.175
    1   AR   Ar  193   2.984   5.924   1.049
    1   AR   Ar  194   4.287   3.680  -0.949
    1   AR   Ar  195   5.472   1.704   0.298
    1   AR   Ar  196   4.630   0.996   0.305
    1   AR   Ar  197   3.731   1.564   0.440
    1   AR   Ar  198   6.483   1.399   1.469
    1   AR   Ar  199   2.857   0.668   2.686
    1   AR   Ar  200   5.924   2.648  -0.197
    1   AR   Ar  201   5.848   6.071   3.751
    1   AR   Ar  202   6.046   0.914   4.860
    1   AR   Ar  203   0.004   0.095   2.921
    1   AR   Ar  204   4.971   6.338   5.079
    1   AR   Ar  205   6.739   6.250   1.864
    1   AR   Ar  206   5.319   0.279   5.443
    1   AR   Ar  207   0.797   1.722   5.623
    1   AR   Ar  208   0.642   6.226   4.219
    1   AR   Ar  209   6.937   2.700  -1.830
    1   AR   Ar  210   2.486   0.174   0.673
    1   AR   Ar  211   6.766   3.508   0.484
    1   AR   Ar  212   6.313   3.169  -1.020
    1   AR   Ar  213   3.012   0.715   1.500
    1   AR   Ar  214   4.698   3.026   1.761
    1   AR   Ar  215   5.796   2.968   1.614
    1   AR   Ar  216   0.637   2.619   1.840
    1   AR   Ar  217   5.208   2.833   3.833
    1   AR   Ar  218   4.583   3.354   4.510
    1   AR   Ar  219   4.229   2.949   3.627
    1   AR   Ar  220   3.742   3.296   1.515
    1   AR   Ar  221   6.713   5.635   4.428
    1   AR   Ar  222   4.531   0.108   6.794
    1   AR   Ar  223   5.822   1.710   6.665
    1   AR   Ar  224   4.904   2.352   5.192
    1   AR   Ar  225   6.103   2.946   3.428
    1   AR   Ar  226   2.245   3.538   3.941
    1   AR   Ar  227   6.859   3.407   1.823
    1   AR   Ar  228   5.337   6.952   1.619
    1   AR   Ar  229   6.039   5.581  -1.812
    1   AR   Ar  230   4.045   4.334   3.316
    1   AR   Ar  231   5.476   1.686   4.085
    1   AR   Ar  232   5.295   1.678   1.541
    1   AR   Ar  233   6.306   2.267   4.255
    1   AR   Ar  234   6.182   3.219   4.754
    1   AR   Ar  235   6.571   1.233   3.876
    1   AR   Ar  236   5.094   5.343   5.929
    1   AR   Ar  237   5.979   2.962   5.921
    1   AR   Ar  238   5.638   4.110   6.211
    1   AR   Ar  239   6.788   4.392   9.295
    1   AR   Ar  240   6.842   2.626   7.123
    1   AR   Ar  241   1.736   6.639  -0.382
    1   AR   Ar  242   5.412   5.472   0.431
    1   AR   Ar  243   5.144   4.905   2.852
    1   AR   Ar  244   0.385   5.808   0.065
    1   AR   Ar  245   4.014   0.783   1.957
    1   AR   Ar  246   5.604   6.911  -0.026
    1   AR   Ar  247   5.844   4.043   0.920
    1   AR   Ar  248   5.745   5.949  -0.516
    1   AR   Ar  249   4.530   6.193   1.499
    1   AR   Ar  250   4.571   5.536   4.459
    1   AR   Ar  251   4.707   4.397   4.086
    1   AR   Ar  252   3.917   5.766   3.307
    1   AR   Ar  253   6.751   3.622   6.323
    1   AR   Ar  254   2.070   2.501   8.874
    1   AR   Ar  255   3.830   5.069  10.088
    1   AR   Ar  256   6.472   4.895   3.334
    7.12000  7.12000 12.00000
Argon-slab step 3685
  256
    1   AR   Ar    1   4.831   2.204  -2.194
    1   AR   Ar    2   6.122   0.584   0.866
    1   AR   Ar    3   3.654   1.467  -1.092
    1   AR   Ar    4   1.615   0.653  -0.083
    1   AR   Ar    5   6.519   6.415   0.224
    1   AR   Ar    6   7.110   1.001   2.333
    1   AR   Ar    7   5.783   4.032   3.028
    1   AR   Ar    8   4.808   0.808   1.250
    1   AR   Ar    9   0.939   6.991   2.981
    1   AR   Ar   10   0.334   0.035   3.953
    1   AR   Ar   11   1.753   6.882   4.309
    1   AR   Ar   12   0.818   1.385   2.956
    1   AR   Ar   13   7.068   0.571   4.923
    1   AR   Ar   14   5.697   1.776   7.925
    1   AR   Ar   15   4.640   6.456   7.996
    1   AR   Ar   16   0.740   6.816   5.159
    1   AR   Ar   17   6.719   2.291   0.669
    1   AR   Ar   18   6.374   4.992  -0.913
    1   AR   Ar   19   3.482   3.421   0.339
    1   AR   Ar   20   5.287   4.793  -2.565
    1   AR   Ar   21   3.469   1.822   1.529
    1   AR   Ar   22   6.525   1.890   2.971
    1   AR   Ar   23   0.307   0.528   0.666
    1   AR   Ar   24   6.879   2.321   2.055
    1   AR   Ar   25   0.467   1.776   4.433
    1   AR   Ar   26   6.305   7.120   4.146
    1   AR   Ar   27   1.839   0.769   2.636
    1   AR   Ar   28   6.974   2.547   4.925
    1   AR   Ar   29   5.547   3.170   6.856
    1   AR   Ar   30   1.793   1.201   4.028
    1   AR   Ar   31   3.280   0.866   7.381
    1   AR   Ar   32   1.331   2.652   6.857
    1   AR   Ar   33   0.370   4.580   0.272
    1   AR   Ar   34   0.300   4.973   2.331
    1   AR   Ar   35   5.879   5.819   1.300
    1   AR   Ar   36   5.896   1.665  -3.003
    1   AR   Ar   37   5.332   2.157   2.496
    1   AR   Ar   38   6.957   3.927   2.805
    1   AR   Ar   39   0.959   4.187   2.154
    1   AR   Ar   40   1.689   3.594   1.821
    1   AR   Ar   41   0.155   2.292   3.567
    1   AR   Ar   42   5.949   5.295   5.078
    1   AR   Ar   43   6.891   2.407   6.177
    1   AR   Ar   44   0.868   4.371   3.312
    1   AR   Ar   45   0.613   3.228   5.622
    1   AR   Ar   46   0.058   4.953   5.104
    1   AR   Ar   47   5.315   4.015   7.504
    1   AR   Ar   48   6.147   4.450   7.149
    1   AR   Ar   49   5.017   0.576  -0.864
    1   AR   Ar   50   4.387   5.310   0.620
    1   AR   Ar   51   6.657   5.258   1.700
    1   AR   Ar   52   5.978   2.990  -2.120
    1   AR   Ar   53   5.503   5.958   2.251
    1   AR   Ar   54   0.631   6.141   2.485
    1   AR   Ar   55   6.501   5.806   2.793
    1   AR   Ar   56   6.558   0.248   1.848
    1   AR   Ar   57   4.921   3.516   2.721
    1   AR   Ar   58   6.952   3.265   3.930
    1   AR   Ar   59   2.455   5.088   6.206
    1   AR   Ar   60   0.367   5.422   3.303
    1   AR   Ar   61   0.090   4.686   6.378
    1   AR   Ar   62   6.529   4.332   4.312
    1   AR   Ar   63   1.713   1.223   6.029
    1   AR   Ar   64   1.192   5.649   5.300
    1   AR   Ar   65   3.475   7.044   1.030
    1   AR   Ar   66   0.802   1.458   1.915
    1   AR   Ar   67   4.250   0.001  -0.470
    1   AR   Ar   68   1.797   1.848  -1.136
    1   AR   Ar   69   2.532   1.218   0.781
    1   AR   Ar   70   0.626   0.320   1.952
    1   AR   Ar   71   2.702   1.150   3.589
    1   AR   Ar   72   3.960   6.450   2.443
    1   AR   Ar   73   4.291   0.412   3.314
    1   AR   Ar   74   1.044   0.744   4.769
    1   AR   Ar   75   3.388   0.897   4.975
    1   AR   Ar   76   1.609   0.471   1.173
    1   AR   Ar   77   2.128   6.676   5.566
    1   AR   Ar   78   0.272   6.146   5.906
    1   AR   Ar   79   3.906   5.890   6.465
    1   AR   Ar   80   3.996   4.951   5.667
    1   AR   Ar   81   2.565   6.209   0.105
    1   AR   Ar   82   6.650   5.310   0.335
    1   AR   Ar   83   1.213   2.010   0.889
    1   AR   Ar   84   0.349   4.288   1.359
    1   AR   Ar   85   1.062   3.234   0.923
    1   AR   Ar   86   2.082   5.467   1.000
    1   AR   Ar   87   2.254   2.355   1.358
    1   AR   Ar   88   2.174   4.433   1.654
    1   AR   Ar   89   0.302   2.917   2.831
    1   AR   Ar   90   2.860   1.849   4.719
    1   AR   Ar   91   1.415   2.177   3.486
    1   AR   Ar   92   1.567   2.707   2.235
    1   AR   Ar   93   0.965   0.523   5.798
    1   AR   Ar   94   0.151   0.120  11.125
    1   AR   Ar   95   4.173   0.525   5.729
    1   AR   Ar   96   2.803   0.013   4.657
    1   AR   Ar   97   4.364   1.813  -0.439
    1   AR   Ar   98   1.804   4.541   3.078
    1   AR   Ar   99   6.651   1.141   0.194
    1   AR   Ar  100   1.413   3.029  -0.980
    1   AR   Ar  101   3.303   5.059   1.646
    1   AR   Ar  102   3.824   1.499   2.606
    1   AR   Ar  103   1.250   4.775   1.029
    1   AR   Ar  104   3.069   4.018  -1.087
    1   AR   Ar  105   2.166   2.444   4.236
    1   AR   Ar  106   3.657   2.995   5.524
    1   AR   Ar  107   0.839   4.015   4.566
    1   AR   Ar  108   2.126   0.868   4.970
    1   AR   Ar  109   1.601   3.340   5.420
    1   AR   Ar  110   2.615   2.641   5.578
    1   AR   Ar  111   5.180   5.028   7.390
    1   AR   Ar  112   0.847   5.495   6.523
    1   AR   Ar  113   3.339   4.686   0.410
    1   AR   Ar  114   2.800   7.062  -0.506
    1   AR   Ar  115   2.348   4.823   0.062
    1   AR   Ar  116   6.640   0.509  -0.711
    1   AR   Ar  117   1.131   5.251   4.047
    1   AR   Ar  118   1.542   5.627   3.146
    1   AR   Ar  119   2.417   3.797   2.678
    1   AR   Ar  120   1.802   6.533   1.477
    1   AR   Ar  121   5.598   3.978   5.165
    1   AR   Ar  122   2.915   5.961   5.704
    1   AR   Ar  123   3.353   4.075   5.445
    1   AR   Ar  124   1.300   5.301   2.203
    1   AR   Ar  125   6.851   3.890   5.210
    1   AR   Ar  126   6.845   6.597   4.983
    1   AR   Ar  127   4.637   3.931   6.162
    1   AR   Ar  128   3.309   4.731   6.584
    1   AR   Ar  129   2.400   6.096   3.820
    1   AR   Ar  130   4.527   2.352  -3.212
    1   AR   Ar  131   3.365   3.075  -0.777
    1   AR   Ar  132   0.531   2.326   0.107
    1   AR   Ar  133   4.839   6.246   3.224
    1   AR   Ar  134   4.616   1.323   4.689
    1   AR   Ar  135   6.112   0.850   2.591
    1   AR   Ar  136   5.819   6.881   2.732
    1   AR   Ar  137   2.115   4.872   3.989
    1   AR   Ar  138   4.966   1.404   5.924
    1   AR   Ar  139   5.875   1.922   5.464
    1   AR   Ar  140   4.088   0.005   4.343
    1   AR   Ar  141   3.771   4.710   4.550
    1   AR   Ar  142   3.461   6.760   5.839
    1   AR   Ar  143   6.214   6.806   5.796
    1   AR   Ar  144   6.917   1.497   5.175
    1   AR   Ar  145   4.999   4.590  -0.255
    1   AR   Ar  146   3.073   2.955   2.248
    1   AR   Ar  147   4.502   2.678  -1.255
    1   AR   Ar  148   3.504   6.337  -0.664
    1   AR   Ar  149   2.705   2.006  -0.555
    1   AR   Ar  150   2.518   1.792   2.157
    1   AR   Ar  151   2.444   2.586   3.281
    1   AR   Ar  152   2.537   2.865  -1.248
    1   AR   Ar  153   5.220   0.285   3.987
    1   AR   Ar  154   3.502   1.845   3.683
    1   AR   Ar  155   6.390   4.739   5.841
    1   AR   Ar  156   3.298   3.290   3.162
    1   AR   Ar  157   0.974   4.334   5.846
    1   AR   Ar  158   0.641   1.792   6.918
    1   AR   Ar  159   4.304   1.669   7.401
    1   AR   Ar  160   1.578   1.834   4.888
    1   AR   Ar  161   5.045   4.235   1.953
    1   AR   Ar  162   4.703   5.949  -0.567
    1   AR   Ar  163   6.211   3.935  -0.313
    1   AR   Ar  164   2.377   5.509   2.371
    1   AR   Ar  165   4.539   2.464   0.802
    1   AR   Ar  166   3.130   3.219   4.453
    1   AR   Ar  167   4.984   0.540   2.412
    1   AR   Ar  168   5.184   3.909  -1.672
    1   AR   Ar  169   3.381   4.376   2.571
    1   AR   Ar  170   2.117   3.896   6.163
    1   AR   Ar  171   5.719   3.796   4.066
    1   AR   Ar  172   4.580   4.320   5.030
    1   AR   Ar  173   3.053   3.033   6.438
    1   AR   Ar  174   2.036   6.029   6.331
    1   AR   Ar  175   3.603   2.094   6.328
    1   AR   Ar  176   3.999   2.325   4.550
    1   AR   Ar  177   0.009   5.833  -0.968
    1   AR   Ar  178   3.772   5.357  -0.435
    1   AR   Ar  179   3.814   6.167   0.472
    1   AR   Ar  180   2.698   1.471  -3.550
    1   AR   Ar  181   0.501   5.772   1.178
    1   AR   Ar  182   2.349   6.762   2.743
    1   AR   Ar  183   4.041   5.181   2.434
    1   AR   Ar  184   4.827   6.534   0.532
    1   AR   Ar  185   2.904   5.084   4.978
    1   AR   Ar  186   2.994   5.336   3.393
    1   AR   Ar  187   3.427   6.731   3.306
    1   AR   Ar  188   3.134   6.879   2.096
    1   AR   Ar  189   4.610   2.491   6.277
    1   AR   Ar  190   3.377   6.070   4.207
    1   AR   Ar  191   2.759   6.386   7.683
    1   AR   Ar  192   3.904   6.051   5.194
    1   AR   Ar  193   2.969   5.956   1.064
    1   AR   Ar  194   4.294   3.695  -0.926
    1   AR   Ar  195   5.465   1.692   0.304
    1   AR   Ar  196   4.665   1.000   0.286
    1   AR   Ar  197   3.740   1.595   0.489
    1   AR   Ar  198   6.484   1.409   1.447
    1   AR   Ar  199   2.870   0.656   2.679
    1   AR   Ar  200   5.911   2.630  -0.213
    1   AR   Ar  201   5.859   6.068   3.723
    1   AR   Ar  202   6.016   0.908   4.850
    1   AR   Ar  203   0.022   0.104   2.915
    1   AR   Ar  204   5.002   6.327   5.064
    1   AR   Ar  205   6.740   6.237   1.880
    1   AR   Ar  206   5.357   0.260   5.451
    1   AR   Ar  207   0.805   1.746   5.570
    1   AR   Ar  208   0.615   6.204   4.233
    1   AR   Ar  209   6.921   2.695  -1.837
    1   AR   Ar  210   2.515   0.162   0.727
    1   AR   Ar  211   6.785   3.516   0.495
    1   AR   Ar  212   6.314   3.185  -1.030
    1   AR   Ar  213   2.974   0.727   1.514
    1   AR   Ar  214   4.706   3.019   1.729
    1   AR   Ar  215   5.785   3.009   1.629
    1   AR   Ar  216   0.634   2.596   1.840
    1   AR   Ar  217   5.210   2.856   3.848
    1   AR   Ar  218   4.606   3.347   4.471
    1   AR   Ar  219   4.212   2.956   3.639
    1   AR   Ar  220   3.731   3.266   1.506
    1   AR   Ar  221   6.695   5.658   4.408
    1   AR   Ar  222   4.502   0.095   6.810
    1   AR   Ar  223   5.809   1.759   6.667
    1   AR   Ar  224   4.898   2.313   5.205
    1   AR   Ar  225   6.094   2.954   3.448
    1   AR   Ar  226   2.220   3.525   3.930
    1   AR   Ar  227   6.882   3.408   1.800
    1   AR   Ar  228   5.333   6.955   1.614
    1   AR   Ar  229   6.014   5.553  -1.831
    1   AR   Ar  230   4.034   4.340   3.309
    1   AR   Ar  231   5.472   1.677   4.063
    1   AR   Ar  232   5.316   1.674   1.556
    1   AR   Ar  233   6.288   2.253   4.251
    1   AR   Ar  234   6.207   3.211   4.728
    1   AR   Ar  235   6.562   1.214   3.877
    1   AR   Ar  236   5.079   5.328   5.917
    1   AR   Ar  237   5.980   2.947   5.868
    1   AR   Ar  238   5.655   4.085   6.207
    1   AR   Ar  239   6.791   4.404   9.302
    1   AR   Ar  240   6.848   2.621   7.155
    1   AR   Ar  241   1.724   6.669  -0.377
    1   AR   Ar  242   5.385   5.475   0.407
    1   AR   Ar  243   5.156   4.885   2.877
    1   AR   Ar  244   0.395   5.835   0.080
    1   AR   Ar  245   4.039   0.799   1.963
    1   AR   Ar  246   5.616   6.898  -0.032
    1   AR   Ar  247   5.856   4.030   0.894
    1   AR   Ar  248   5.748   5.941  -0.516
    1   AR   Ar  249   4.544   6.211   1.474
    1   AR   Ar  250   4.571   5.526   4.435
    1   AR   Ar  251   4.704   4.425   4.079
    1   AR   Ar  252   3.896   5.750   3.290
    1   AR   Ar  253   6.737   3.651   6.308
    1   AR   Ar  254   2.051   2.505   8.876
    1   AR   Ar  255   3.836   5.038  10.069
    1   AR   Ar  256   6.472   4.901   3.328
    7.12000  7.12000 12.00000
Argon-slab step 3690
  256
    1   AR   Ar    1   4.866   2.203  -2.234
    1   AR   Ar    2   6.126   0.577   0.875
    1   AR   Ar    3   3.684   1.470  -1.111
    1   AR   Ar    4   1.623   0.648  -0.096
    1   AR   Ar    5   6.500   6.400   0.208
    1   AR   Ar    6   7.117   1.043   2.317
    1   AR   Ar    7   5.786   4.034   3.026
    1   AR   Ar    8   4.786   0.859   1.209
    1   AR   Ar    9   0.936   7.005   2.974
    1   AR   Ar   10   0.339   0.005   3.931
    1   AR   Ar   11   1.736   6.925   4.317
    1   AR   Ar   12   0.837   1.380   2.955
    1   AR   Ar   13   7.073   0.549   4.887
    1   AR   Ar   14   5.667   1.772   7.941
    1   AR   Ar   15   4.582   6.436   8.002
    1   AR   Ar   16   0.753   6.813   5.150
    1   AR   Ar   17   6.737   2.281   0.689
    1   AR   Ar   18   6.362   4.967  -0.921
    1   AR   Ar   19   3.513   3.432   0.359
    1   AR   Ar   20   5.336   4.775  -2.563
    1   AR   Ar   21   3.440   1.808   1.502
    1   AR   Ar   22   6.560   1.874   2.990
    1   AR   Ar   23   0.277   0.532   0.689
    1   AR   Ar   24   6.831   2.288   2.046
    1   AR   Ar   25   0.465   1.772   4.441
    1   AR   Ar   26   6.320   7.115   4.149
    1   AR   Ar   27   1.837   0.766   2.629
    1   AR   Ar   28   6.974   2.551   4.945
    1   AR   Ar   29   5.557   3.148   6.845
    1   AR   Ar   30   1.803   1.173   4.035
    1   AR   Ar   31   3.298   0.862   7.400
    1   AR   Ar   32   1.311   2.652   6.881
    1   AR   Ar   33   0.377   4.568   0.286
    1   AR   Ar   34   0.296   4.977   2.354
    1   AR   Ar   35   5.875   5.828   1.300
    1   AR   Ar   36   5.882   1.664  -2.973
    1   AR   Ar   37   5.340   2.164   2.492
    1   AR   Ar   38   6.935   3.904   2.821
    1   AR   Ar   39   0.936   4.163   2.174
    1   AR   Ar   40   1.663   3.605   1.809
    1   AR   Ar   41   0.145   2.280   3.600
    1   AR   Ar   42   5.956   5.283   5.097
    1   AR   Ar   43   6.907   2.405   6.143
    1   AR   Ar   44   0.848   4.380   3.327
    1   AR   Ar   45   0.601   3.272   5.635
    1   AR   Ar   46   0.067   4.956   5.113
    1   AR   Ar   47   5.311   4.020   7.495
    1   AR   Ar   48   6.166   4.419   7.146
    1   AR   Ar   49   5.033   0.556  -0.848
    1   AR   Ar   50   4.378   5.332   0.596
    1   AR   Ar   51   6.654   5.258   1.671
    1   AR   Ar   52   5.949   2.979  -2.068
    1   AR   Ar   53   5.496   5.949   2.246
    1   AR   Ar   54   0.633   6.126   2.472
    1   AR   Ar   55   6.489   5.833   2.803
    1   AR   Ar   56   6.548   0.242   1.838
    1   AR   Ar   57   4.889   3.515   2.715
    1   AR   Ar   58   6.936   3.271   3.923
    1   AR   Ar   59   2.467   5.064   6.203
    1   AR   Ar   60   0.401   5.441   3.316
    1   AR   Ar   61   0.080   4.683   6.393
    1   AR   Ar   62   6.552   4.318   4.321
    1   AR   Ar   63   1.709   1.210   6.018
    1   AR   Ar   64   1.199   5.651   5.305
    1   AR   Ar   65   3.481   7.030   1.024
    1   AR   Ar   66   0.817   1.448   1.914
    1   AR   Ar   67   4.267   0.029  -0.459
    1   AR   Ar   68   1.792   1.838  -1.141
    1   AR   Ar   69   2.546   1.251   0.756
    1   AR   Ar   70   0.619   0.321   1.932
    1   AR   Ar   71   2.726   1.155   3.572
    1   AR   Ar   72   3.938   6.466   2.471
    1   AR   Ar   73   4.265   0.383   3.302
    1   AR   Ar   74   1.046   0.773   4.738
    1   AR   Ar   75   3.373   0.933   4.972
    1   AR   Ar   76   1.611   0.475   1.172
    1   AR   Ar   77   2.147   6.683   5.515
    1   AR   Ar   78   0.276   6.146   5.891
    1   AR   Ar   79   3.887   5.911   6.440
    1   AR   Ar   80   3.975   4.936   5.658
    1   AR   Ar   81   2.568   6.220   0.092
    1   AR   Ar   82   6.665   5.327   0.325
    1   AR   Ar   83   1.230   2.003   0.875
    1   AR   Ar   84   0.350   4.273   1.338
    1   AR   Ar   85   1.056   3.235   0.919
    1   AR   Ar   86   2.087   5.451   0.987
    1   AR   Ar   87   2.233   2.350   1.393
    1   AR   Ar   88   2.179   4.435   1.678
    1   AR   Ar   89   0.336   2.936   2.810
    1   AR   Ar   90   2.896   1.848   4.744
    1   AR   Ar   91   1.435   2.168   3.494
    1   AR   Ar   92   1.579   2.712   2.232
    1   AR   Ar   93   0.933   0.497   5.799
    1   AR   Ar   94   0.130   0.121  11.109
    1   AR   Ar   95   4.182   0.541   5.725
    1   AR   Ar   96   2.812   7.116   4.653
    1   AR   Ar   97   4.336   1.825  -0.421
    1   AR   Ar   98   1.798   4.568   3.073
    1   AR   Ar   99   6.661   1.119   0.223
    1   AR   Ar  100   1.417   3.032  -0.968
    1   AR   Ar  101   3.300   5.094   1.660
    1   AR   Ar  102   3.849   1.507   2.626
    1   AR   Ar  103   1.257   4.787   0.998
    1   AR   Ar  104   3.092   4.019  -1.087
    1   AR   Ar  105   2.219   2.441   4.260
    1   AR   Ar  106   3.651   2.987   5.491
    1   AR   Ar  107   0.859   4.014   4.577
    1   AR   Ar  108   2.122   0.890   4.981
    1   AR   Ar  109   1.599   3.311   5.409
    1   AR   Ar  110   2.623   2.649   5.552
    1   AR   Ar  111   5.187   5.052   7.375
    1   AR   Ar  112   0.829   5.527   6.524
    1   AR   Ar  113   3.365   4.674   0.396
    1   AR   Ar  114   2.834   7.069  -0.498
    1   AR   Ar  115   2.354   4.844   0.069
    1   AR   Ar  116   6.636   0.496  -0.696
    1   AR   Ar  117   1.124   5.271   4.046
    1   AR   Ar  118   1.543   5.628   3.137
    1   AR   Ar  119   2.405   3.770   2.659
    1   AR   Ar  120   1.827   6.529   1.445
    1   AR   Ar  121   5.563   3.959   5.176
    1   AR   Ar  122   2.914   5.938   5.713
    1   AR   Ar  123   3.379   4.104   5.466
    1   AR   Ar  124   1.302   5.315   2.210
    1   AR   Ar  125   6.863   3.871   5.217
    1   AR   Ar  126   6.838   6.588   4.975
    1   AR   Ar  127   4.636   3.947   6.150
    1   AR   Ar  128   3.332   4.689   6.549
    1   AR   Ar  129   2.416   6.086   3.824
    1   AR   Ar  130   4.526   2.338  -3.213
    1   AR   Ar  131   3.360   3.057  -0.791
    1   AR   Ar  132   0.514   2.338   0.098
    1   AR   Ar  133   4.846   6.245   3.223
    1   AR   Ar  134   4.601   1.336   4.697
    1   AR   Ar  135   6.123   0.869   2.621
    1   AR   Ar  136   5.858   6.892   2.733
    1   AR   Ar  137   2.106   4.869   4.038
    1   AR   Ar  138   4.969   1.408   5.929
    1   AR   Ar  139   5.926   1.930   5.481
    1   AR   Ar  140   4.083   0.015   4.363
    1   AR   Ar  141   3.775   4.729   4.560
    1   AR   Ar  142   3.496   6.823   5.878
    1   AR   Ar  143   6.229   6.798   5.804
    1   AR   Ar  144   6.918   1.502   5.167
    1   AR   Ar  145   4.998   4.611  -0.268
    1   AR   Ar  146   3.082   2.961   2.228
    1   AR   Ar  147   4.527   2.660  -1.275
    1   AR   Ar  148   3.527   6.358  -0.674
    1   AR   Ar  149   2.686   2.000  -0.590
    1   AR   Ar  150   2.542   1.790   2.168
    1   AR   Ar  151   2.445   2.632   3.221
    1   AR   Ar  152   2.525   2.861  -1.242
    1   AR   Ar  153   5.187   0.306   3.967
    1   AR   Ar  154   3.495   1.856   3.652
    1   AR   Ar  155   6.403   4.726   5.844
    1   AR   Ar  156   3.273   3.306   3.174
    1   AR   Ar  157   0.986   4.349   5.862
    1   AR   Ar  158   0.611   1.787   6.914
    1   AR   Ar  159   4.289   1.652   7.410
    1   AR   Ar  160   1.582   1.848   4.878
    1   AR   Ar  161   5.034   4.246   1.956
    1   AR   Ar  162   4.712   5.963  -0.533
    1   AR   Ar  163   6.201   3.948  -0.316
    1   AR   Ar  164   2.385   5.528   2.391
    1   AR   Ar  165   4.542   2.484   0.800
    1   AR   Ar  166   3.147   3.228   4.458
    1   AR   Ar  167   4.983   0.505   2.379
    1   AR   Ar  168   5.194   3.904  -1.682
    1   AR   Ar  169   3.411   4.418   2.580
    1   AR   Ar  170   2.078   3.890   6.166
    1   AR   Ar  171   5.694   3.790   4.071
    1   AR   Ar  172   4.571   4.305   5.050
    1   AR   Ar  173   3.033   3.051   6.431
    1   AR   Ar  174   2.043   6.004   6.347
    1   AR   Ar  175   3.611   2.078   6.309
    1   AR   Ar  176   4.003   2.304   4.568
    1   AR   Ar  177   7.100   5.850  -0.948
    1   AR   Ar  178   3.782   5.369  -0.441
    1   AR   Ar  179   3.830   6.185   0.461
    1   AR   Ar  180   2.727   1.449  -3.561
    1   AR   Ar  181   0.524   5.766   1.224
    1   AR   Ar  182   2.329   6.770   2.723
    1   AR   Ar  183   4.046   5.189   2.441
    1   AR   Ar  184   4.822   6.557   0.506
    1   AR   Ar  185   2.945   5.094   4.973
    1   AR   Ar  186   2.973   5.318   3.396
    1   AR   Ar  187   3.417   6.740   3.294
    1   AR   Ar  188   3.124   6.853   2.129
    1   AR   Ar  189   4.593   2.522   6.267
    1   AR   Ar  190   3.404   6.056   4.177
    1   AR   Ar  191   2.748   6.379   7.679
    1   AR   Ar  192   3.919   6.054   5.178
    1   AR   Ar  193   2.966   5.999   1.081
    1   AR   Ar  194   4.301   3.711  -0.903
    1   AR   Ar  195   5.461   1.682   0.312
    1   AR   Ar  196   4.666   1.007   0.285
    1   AR   Ar  197   3.748   1.626   0.536
    1   AR   Ar  198   6.527   1.390   1.445
    1   AR   Ar  199   2.890   0.642   2.669
    1   AR   Ar  200   5.898   2.612  -0.225
    1   AR   Ar  201   5.869   6.065   3.695
    1   AR   Ar  202   5.998   0.926   4.853
    1   AR   Ar  203   0.015   0.116   2.906
    1   AR   Ar  204   5.048   6.296   5.077
    1   AR   Ar  205   6.743   6.236   1.895
    1   AR   Ar  206   5.393   0.242   5.460
    1   AR   Ar  207   0.809   1.769   5.521
    1   AR   Ar  208   0.589   6.177   4.249
    1   AR   Ar  209   6.911   2.689  -1.842
    1   AR   Ar  210   2.541   0.144   0.776
    1   AR   Ar  211   6.806   3.522   0.509
    1   AR   Ar  212   6.315   3.199  -1.044
    1   AR   Ar  213   2.941   0.738   1.540
    1   AR   Ar  214   4.718   3.011   1.701
    1   AR   Ar  215   5.776   3.049   1.644
    1   AR   Ar  216   0.649   2.581   1.829
    1   AR   Ar  217   5.214   2.869   3.873
    1   AR   Ar  218   4.627   3.349   4.448
    1   AR   Ar  219   4.186   2.959   3.642
    1   AR   Ar  220   3.719   3.240   1.493
    1   AR   Ar  221   6.680   5.681   4.385
    1   AR   Ar  222   4.472   0.083   6.825
    1   AR   Ar  223   5.795   1.810   6.667
    1   AR   Ar  224   4.891   2.275   5.217
    1   AR   Ar  225   6.095   2.964   3.458
    1   AR   Ar  226   2.194   3.514   3.917
    1   AR   Ar  227   6.857   3.416   1.781
    1   AR   Ar  228   5.332   6.958   1.610
    1   AR   Ar  229   5.989   5.525  -1.849
    1   AR   Ar  230   4.028   4.345   3.307
    1   AR   Ar  231   5.463   1.665   4.041
    1   AR   Ar  232   5.317   1.694   1.562
    1   AR   Ar  233   6.271   2.237   4.242
    1   AR   Ar  234   6.229   3.200   4.705
    1   AR   Ar  235   6.554   1.195   3.879
    1   AR   Ar  236   5.064   5.311   5.903
    1   AR   Ar  237   5.980   2.934   5.813
    1   AR   Ar  238   5.676   4.058   6.208
    1   AR   Ar  239   6.794   4.416   9.308
    1   AR   Ar  240   6.854   2.618   7.195
    1   AR   Ar  241   1.711   6.701  -0.373
    1   AR   Ar  242   5.362   5.479   0.381
    1   AR   Ar  243   5.166   4.868   2.902
    1   AR   Ar  244   0.407   5.863   0.094
    1   AR   Ar  245   4.061   0.804   1.960
    1   AR   Ar  246   5.629   6.890  -0.041
    1   AR   Ar  247   5.867   4.017   0.869
    1   AR   Ar  248   5.756   5.931  -0.517
    1   AR   Ar  249   4.555   6.227   1.453
    1   AR   Ar  250   4.588   5.516   4.435
    1   AR   Ar  251   4.719   4.434   4.054
    1   AR   Ar  252   3.882   5.736   3.277
    1   AR   Ar  253   6.722   3.680   6.293
    1   AR   Ar  254   2.032   2.508   8.878
    1   AR   Ar  255   3.841   5.008  10.051
    1   AR   Ar  256   6.472   4.904   3.323
    7.12000  7.12000 12.00000
Argon-slab step 3695
  256
    1   AR   Ar    1   4.904   2.202  -2.270
    1   AR   Ar    2   6.124   0.562   0.888
    1   AR   Ar    3   3.709   1.472  -1.134
    1   AR   Ar    4   1.632   0.644  -0.108
    1   AR   Ar    5   6.485   6.383   0.193
    1   AR   Ar    6   7.115   1.089   2.306
    1   AR   Ar    7   5.793   4.033   3.023
    1   AR   Ar    8   4.768   0.902   1.189
    1   AR   Ar    9   0.955   7.017   2.968
    1   AR   Ar   10   0.342   7.099   3.910
    1   AR   Ar   11   1.718   6.969   4.327
    1   AR   Ar   12   0.856   1.375   2.957
    1   AR   Ar   13   7.081   0.519   4.848
    1   AR   Ar   14   5.636   1.767   7.955
    1   AR   Ar   15   4.524   6.417   8.007
    1   AR   Ar   16   0.768   6.808   5.138
    1   AR   Ar   17   6.752   2.271   0.712
    1   AR   Ar   18   6.349   4.943  -0.927
    1   AR   Ar   19   3.549   3.444   0.364
    1   AR   Ar   20   5.385   4.757  -2.560
    1   AR   Ar   21   3.409   1.795   1.481
    1   AR   Ar   22   6.589   1.855   3.006
    1   AR   Ar   23   0.267   0.531   0.682
    1   AR   Ar   24   6.775   2.253   2.037
    1   AR   Ar   25   0.470   1.764   4.447
    1   AR   Ar   26   6.335   7.110   4.151
    1   AR   Ar   27   1.833   0.764   2.621
    1   AR   Ar   28   6.986   2.554   4.967
    1   AR   Ar   29   5.566   3.125   6.833
    1   AR   Ar   30   1.807   1.146   4.039
    1   AR   Ar   31   3.316   0.858   7.419
    1   AR   Ar   32   1.291   2.653   6.903
    1   AR   Ar   33   0.382   4.556   0.300
    1   AR   Ar   34   0.290   4.981   2.378
    1   AR   Ar   35   5.870   5.841   1.293
    1   AR   Ar   36   5.867   1.664  -2.942
    1   AR   Ar   37   5.349   2.174   2.492
    1   AR   Ar   38   6.914   3.883   2.838
    1   AR   Ar   39   0.911   4.144   2.204
    1   AR   Ar   40   1.651   3.621   1.807
    1   AR   Ar   41   0.138   2.269   3.637
    1   AR   Ar   42   5.959   5.272   5.113
    1   AR   Ar   43   6.925   2.403   6.105
    1   AR   Ar   44   0.818   4.388   3.343
    1   AR   Ar   45   0.581   3.316   5.648
    1   AR   Ar   46   0.076   4.962   5.117
    1   AR   Ar   47   5.300   4.018   7.487
    1   AR   Ar   48   6.192   4.392   7.138
    1   AR   Ar   49   5.055   0.541  -0.833
    1   AR   Ar   50   4.365   5.349   0.573
    1   AR   Ar   51   6.653   5.247   1.640
    1   AR   Ar   52   5.913   2.970  -2.017
    1   AR   Ar   53   5.485   5.941   2.268
    1   AR   Ar   54   0.632   6.109   2.457
    1   AR   Ar   55   6.479   5.825   2.792
    1   AR   Ar   56   6.545   0.238   1.811
    1   AR   Ar   57   4.855   3.512   2.713
    1   AR   Ar   58   6.927   3.281   3.918
    1   AR   Ar   59   2.474   5.039   6.195
    1   AR   Ar   60   0.431   5.462   3.327
    1   AR   Ar   61   0.081   4.679   6.417
    1   AR   Ar   62   6.577   4.308   4.328
    1   AR   Ar   63   1.715   1.224   6.041
    1   AR   Ar   64   1.204   5.655   5.311
    1   AR   Ar   65   3.496   7.015   1.023
    1   AR   Ar   66   0.840   1.443   1.905
    1   AR   Ar   67   4.278   0.053  -0.442
    1   AR   Ar   68   1.785   1.828  -1.146
    1   AR   Ar   69   2.557   1.288   0.726
    1   AR   Ar   70   0.616   0.318   1.910
    1   AR   Ar   71   2.752   1.160   3.557
    1   AR   Ar   72   3.935   6.473   2.498
    1   AR   Ar   73   4.245   0.371   3.296
    1   AR   Ar   74   1.048   0.802   4.706
    1   AR   Ar   75   3.361   0.967   4.969
    1   AR   Ar   76   1.610   0.481   1.172
    1   AR   Ar   77   2.165   6.693   5.461
    1   AR   Ar   78   0.277   6.148   5.873
    1   AR   Ar   79   3.868   5.932   6.412
    1   AR   Ar   80   3.955   4.928   5.651
    1   AR   Ar   81   2.573   6.229   0.080
    1   AR   Ar   82   6.675   5.341   0.317
    1   AR   Ar   83   1.245   1.997   0.861
    1   AR   Ar   84   0.346   4.257   1.314
    1   AR   Ar   85   1.047   3.234   0.917
    1   AR   Ar   86   2.090   5.435   0.976
    1   AR   Ar   87   2.204   2.361   1.399
    1   AR   Ar   88   2.194   4.451   1.701
    1   AR   Ar   89   0.313   2.945   2.801
    1   AR   Ar   90   2.928   1.846   4.752
    1   AR   Ar   91   1.455   2.159   3.502
    1   AR   Ar   92   1.591   2.715   2.231
    1   AR   Ar   93   0.900   0.473   5.800
    1   AR   Ar   94   0.109   0.122  11.093
    1   AR   Ar   95   4.193   0.557   5.721
    1   AR   Ar   96   2.821   7.099   4.650
    1   AR   Ar   97   4.313   1.841  -0.398
    1   AR   Ar   98   1.796   4.600   3.069
    1   AR   Ar   99   6.673   1.106   0.246
    1   AR   Ar  100   1.423   3.033  -0.955
    1   AR   Ar  101   3.295   5.128   1.672
    1   AR   Ar  102   3.870   1.522   2.653
    1   AR   Ar  103   1.262   4.798   0.968
    1   AR   Ar  104   3.115   4.023  -1.088
    1   AR   Ar  105   2.271   2.444   4.282
    1   AR   Ar  106   3.648   2.979   5.458
    1   AR   Ar  107   0.879   4.013   4.588
    1   AR   Ar  108   2.120   0.910   4.996
    1   AR   Ar  109   1.601   3.282   5.394
    1   AR   Ar  110   2.627   2.655   5.522
    1   AR   Ar  111   5.194   5.079   7.357
    1   AR   Ar  112   0.814   5.556   6.525
    1   AR   Ar  113   3.394   4.663   0.382
    1   AR   Ar  114   2.856   7.103  -0.465
    1   AR   Ar  115   2.358   4.866   0.077
    1   AR   Ar  116   6.631   0.482  -0.680
    1   AR   Ar  117   1.118   5.288   4.049
    1   AR   Ar  118   1.547   5.633   3.133
    1   AR   Ar  119   2.393   3.743   2.640
    1   AR   Ar  120   1.854   6.525   1.412
    1   AR   Ar  121   5.530   3.970   5.194
    1   AR   Ar  122   2.916   5.912   5.720
    1   AR   Ar  123   3.402   4.131   5.486
    1   AR   Ar  124   1.304   5.324   2.207
    1   AR   Ar  125   6.877   3.853   5.227
    1   AR   Ar  126   6.833   6.578   4.964
    1   AR   Ar  127   4.632   3.963   6.136
    1   AR   Ar  128   3.362   4.645   6.516
    1   AR   Ar  129   2.426   6.079   3.827
    1   AR   Ar  130   4.522   2.324  -3.207
    1   AR   Ar  131   3.371   3.037  -0.797
    1   AR   Ar  132   0.480   2.354   0.079
    1   AR   Ar  133   4.854   6.246   3.221
    1   AR   Ar  134   4.591   1.356   4.692
    1   AR   Ar  135   6.130   0.888   2.652
    1   AR   Ar  136   5.897   6.903   2.733
    1   AR   Ar  137   2.101   4.868   4.090
    1   AR   Ar  138   4.972   1.412   5.933
    1   AR   Ar  139   5.916   1.935   5.470
    1   AR   Ar  140   4.076   0.024   4.384
    1   AR   Ar  141   3.783   4.746   4.563
    1   AR   Ar  142   3.531   6.888   5.918
    1   AR   Ar  143   6.245   6.790   5.813
    1   AR   Ar  144   6.912   1.512   5.165
    1   AR   Ar  145   4.996   4.634  -0.282
    1   AR   Ar  146   3.082   2.961   2.208
    1   AR   Ar  147   4.552   2.643  -1.293
    1   AR   Ar  148   3.553   6.377  -0.684
    1   AR   Ar  149   2.672   1.994  -0.624
    1   AR   Ar  150   2.567   1.783   2.187
    1   AR   Ar  151   2.445   2.678   3.157
    1   AR   Ar  152   2.499   2.854  -1.244
    1   AR   Ar  153   5.154   0.327   3.947
    1   AR   Ar  154   3.490   1.871   3.621
    1   AR   Ar  155   6.405   4.710   5.841
    1   AR   Ar  156   3.250   3.326   3.192
    1   AR   Ar  157   0.998   4.363   5.877
    1   AR   Ar  158   0.580   1.783   6.908
    1   AR   Ar  159   4.274   1.634   7.418
    1   AR   Ar  160   1.590   1.863   4.863
    1   AR   Ar  161   5.024   4.259   1.958
    1   AR   Ar  162   4.717   5.978  -0.495
    1   AR   Ar  163   6.190   3.965  -0.316
    1   AR   Ar  164   2.394   5.545   2.411
    1   AR   Ar  165   4.544   2.501   0.795
    1   AR   Ar  166   3.165   3.236   4.463
    1   AR   Ar  167   4.985   0.471   2.348
    1   AR   Ar  168   5.205   3.899  -1.691
    1   AR   Ar  169   3.421   4.454   2.575
    1   AR   Ar  170   2.050   3.889   6.167
    1   AR   Ar  171   5.662   3.787   4.073
    1   AR   Ar  172   4.564   4.287   5.079
    1   AR   Ar  173   3.013   3.070   6.426
    1   AR   Ar  174   2.046   5.981   6.367
    1   AR   Ar  175   3.617   2.063   6.289
    1   AR   Ar  176   4.006   2.283   4.585
    1   AR   Ar  177   7.085   5.862  -0.931
    1   AR   Ar  178   3.793   5.378  -0.443
    1   AR   Ar  179   3.842   6.206   0.446
    1   AR   Ar  180   2.756   1.428  -3.571
    1   AR   Ar  181   0.547   5.758   1.272
    1   AR   Ar  182   2.301   6.776   2.709
    1   AR   Ar  183   4.060   5.200   2.444
    1   AR   Ar  184   4.817   6.580   0.479
    1   AR   Ar  185   2.978   5.107   4.972
    1   AR   Ar  186   2.947   5.293   3.398
    1   AR   Ar  187   3.410   6.729   3.312
    1   AR   Ar  188   3.108   6.834   2.148
    1   AR   Ar  189   4.579   2.554   6.257
    1   AR   Ar  190   3.434   6.042   4.151
    1   AR   Ar  191   2.736   6.371   7.675
    1   AR   Ar  192   3.934   6.056   5.162
    1   AR   Ar  193   2.965   6.046   1.102
    1   AR   Ar  194   4.308   3.728  -0.879
    1   AR   Ar  195   5.450   1.674   0.320
    1   AR   Ar  196   4.660   1.014   0.259
    1   AR   Ar  197   3.758   1.655   0.579
    1   AR   Ar  198   6.571   1.371   1.443
    1   AR   Ar  199   2.914   0.628   2.656
    1   AR   Ar  200   5.885   2.593  -0.236
    1   AR   Ar  201   5.880   6.063   3.666
    1   AR   Ar  202   5.988   0.961   4.863
    1   AR   Ar  203   7.106   0.133   2.893
    1   AR   Ar  204   5.104   6.251   5.108
    1   AR   Ar  205   6.749   6.245   1.908
    1   AR   Ar  206   5.425   0.224   5.467
    1   AR   Ar  207   0.808   1.792   5.477
    1   AR   Ar  208   0.562   6.147   4.266
    1   AR   Ar  209   6.905   2.682  -1.846
    1   AR   Ar  210   2.558   0.123   0.819
    1   AR   Ar  211   6.829   3.528   0.524
    1   AR   Ar  212   6.317   3.211  -1.061
    1   AR   Ar  213   2.913   0.747   1.577
    1   AR   Ar  214   4.733   3.003   1.677
    1   AR   Ar  215   5.769   3.090   1.660
    1   AR   Ar  216   0.669   2.567   1.811
    1   AR   Ar  217   5.222   2.866   3.892
    1   AR   Ar  218   4.639   3.366   4.446
    1   AR   Ar  219   4.154   2.959   3.637
    1   AR   Ar  220   3.708   3.215   1.474
    1   AR   Ar  221   6.665   5.703   4.359
    1   AR   Ar  222   4.441   0.070   6.839
    1   AR   Ar  223   5.781   1.863   6.666
    1   AR   Ar  224   4.885   2.239   5.228
    1   AR   Ar  225   6.102   2.972   3.456
    1   AR   Ar  226   2.169   3.502   3.902
    1   AR   Ar  227   6.820   3.425   1.762
    1   AR   Ar  228   5.333   6.961   1.604
    1   AR   Ar  229   5.964   5.496  -1.866
    1   AR   Ar  230   4.031   4.348   3.315
    1   AR   Ar  231   5.475   1.677   4.025
    1   AR   Ar  232   5.320   1.716   1.565
    1   AR   Ar  233   6.259   2.223   4.232
    1   AR   Ar  234   6.246   3.189   4.686
    1   AR   Ar  235   6.546   1.176   3.883
    1   AR   Ar  236   5.047   5.293   5.887
    1   AR   Ar  237   5.980   2.926   5.758
    1   AR   Ar  238   5.698   4.030   6.214
    1   AR   Ar  239   6.797   4.429   9.314
    1   AR   Ar  240   6.860   2.616   7.236
    1   AR   Ar  241   1.705   6.724  -0.368
    1   AR   Ar  242   5.345   5.484   0.353
    1   AR   Ar  243   5.173   4.854   2.928
    1   AR   Ar  244   0.422   5.893   0.108
    1   AR   Ar  245   4.063   0.813   1.971
    1   AR   Ar  246   5.640   6.888  -0.053
    1   AR   Ar  247   5.879   4.004   0.843
    1   AR   Ar  248   5.770   5.919  -0.520
    1   AR   Ar  249   4.564   6.239   1.435
    1   AR   Ar  250   4.617   5.505   4.452
    1   AR   Ar  251   4.744   4.438   4.023
    1   AR   Ar  252   3.874   5.726   3.269
    1   AR   Ar  253   6.707   3.707   6.277
    1   AR   Ar  254   2.013   2.511   8.880
    1   AR   Ar  255   3.847   4.978  10.032
    1   AR   Ar  256   6.473   4.904   3.319
    7.12000  7.12000 12.00000
Argon-slab step 3700
  256
    1   AR   Ar    1   4.946   2.200  -2.300
    1   AR   Ar    2   6.113   0.542   0.903
    1   AR   Ar    3   3.729   1.471  -1.161
    1   AR   Ar    4   1.643   0.642  -0.118
    1   AR   Ar    5   6.476   6.364   0.180
    1   AR   Ar    6   7.107   1.134   2.301
    1   AR   Ar    7   5.803   4.027   3.020
    1   AR   Ar    8   4.754   0.939   1.191
    1   AR   Ar    9   0.961   7.025   2.979
    1   AR   Ar   10   0.345   7.078   3.892
    1   AR   Ar   11   1.745   6.985   4.344
    1   AR   Ar   12   0.874   1.369   2.964
    1   AR   Ar   13   7.089   0.487   4.807
    1   AR   Ar   14   5.605   1.764   7.967
    1   AR   Ar   15   4.465   6.399   8.012
    1   AR   Ar   16   0.784   6.802   5.120
    1   AR   Ar   17   6.765   2.260   0.737
    1   AR   Ar   18   6.336   4.920  -0.931
    1   AR   Ar   19   3.586   3.456   0.364
    1   AR   Ar   20   5.434   4.739  -2.555
    1   AR   Ar   21   3.373   1.783   1.473
    1   AR   Ar   22   6.612   1.833   3.020
    1   AR   Ar   23   0.262   0.526   0.680
    1   AR   Ar   24   6.718   2.220   2.027
    1   AR   Ar   25   0.481   1.753   4.454
    1   AR   Ar   26   6.349   7.107   4.152
    1   AR   Ar   27   1.827   0.762   2.614
    1   AR   Ar   28   7.004   2.556   4.992
    1   AR   Ar   29   5.577   3.102   6.819
    1   AR   Ar   30   1.809   1.122   4.038
    1   AR   Ar   31   3.336   0.854   7.438
    1   AR   Ar   32   1.271   2.654   6.925
    1   AR   Ar   33   0.387   4.546   0.313
    1   AR   Ar   34   0.282   4.985   2.402
    1   AR   Ar   35   5.882   5.836   1.279
    1   AR   Ar   36   5.856   1.673  -2.922
    1   AR   Ar   37   5.359   2.187   2.496
    1   AR   Ar   38   6.892   3.864   2.856
    1   AR   Ar   39   0.881   4.128   2.241
    1   AR   Ar   40   1.650   3.640   1.809
    1   AR   Ar   41   0.133   2.264   3.673
    1   AR   Ar   42   5.959   5.264   5.125
    1   AR   Ar   43   6.942   2.400   6.065
    1   AR   Ar   44   0.783   4.397   3.361
    1   AR   Ar   45   0.558   3.358   5.663
    1   AR   Ar   46   0.087   4.982   5.099
    1   AR   Ar   47   5.284   4.012   7.479
    1   AR   Ar   48   6.224   4.366   7.126
    1   AR   Ar   49   5.084   0.530  -0.820
    1   AR   Ar   50   4.349   5.360   0.551
    1   AR   Ar   51   6.655   5.230   1.608
    1   AR   Ar   52   5.926   2.976  -2.018
    1   AR   Ar   53   5.473   5.935   2.294
    1   AR   Ar   54   0.628   6.093   2.442
    1   AR   Ar   55   6.471   5.807   2.779
    1   AR   Ar   56   6.543   0.233   1.788
    1   AR   Ar   57   4.820   3.506   2.714
    1   AR   Ar   58   6.929   3.295   3.915
    1   AR   Ar   59   2.476   5.011   6.185
    1   AR   Ar   60   0.455   5.485   3.336
    1   AR   Ar   61   0.093   4.676   6.447
    1   AR   Ar   62   6.602   4.300   4.333
    1   AR   Ar   63   1.720   1.239   6.062
    1   AR   Ar   64   1.208   5.659   5.317
    1   AR   Ar   65   3.522   7.000   1.027
    1   AR   Ar   66   0.871   1.442   1.889
    1   AR   Ar   67   4.283   0.071  -0.419
    1   AR   Ar   68   1.775   1.819  -1.153
    1   AR   Ar   69   2.568   1.327   0.695
    1   AR   Ar   70   0.614   0.314   1.888
    1   AR   Ar   71   2.775   1.162   3.542
    1   AR   Ar   72   3.953   6.472   2.522
    1   AR   Ar   73   4.232   0.385   3.299
    1   AR   Ar   74   1.046   0.830   4.677
    1   AR   Ar   75   3.352   0.991   4.967
    1   AR   Ar   76   1.607   0.489   1.173
    1   AR   Ar   77   2.182   6.704   5.406
    1   AR   Ar   78   0.275   6.152   5.850
    1   AR   Ar   79   3.848   5.951   6.382
    1   AR   Ar   80   3.942   4.934   5.647
    1   AR   Ar   81   2.579   6.236   0.072
    1   AR   Ar   82   6.682   5.351   0.310
    1   AR   Ar   83   1.260   1.991   0.850
    1   AR   Ar   84   0.367   4.219   1.356
    1   AR   Ar   85   1.038   3.234   0.917
    1   AR   Ar   86   2.095   5.422   0.966
    1   AR   Ar   87   2.173   2.375   1.394
    1   AR   Ar   88   2.214   4.477   1.725
    1   AR   Ar   89   0.290   2.952   2.791
    1   AR   Ar   90   2.952   1.845   4.734
    1   AR   Ar   91   1.474   2.150   3.511
    1   AR   Ar   92   1.593   2.735   2.242
    1   AR   Ar   93   0.867   0.453   5.803
    1   AR   Ar   94   0.089   0.122  11.078
    1   AR   Ar   95   4.203   0.551   5.729
    1   AR   Ar   96   2.831   7.082   4.646
    1   AR   Ar   97   4.295   1.860  -0.369
    1   AR   Ar   98   1.798   4.632   3.061
    1   AR   Ar   99   6.683   1.103   0.263
    1   AR   Ar  100   1.428   3.033  -0.943
    1   AR   Ar  101   3.287   5.163   1.683
    1   AR   Ar  102   3.888   1.543   2.685
    1   AR   Ar  103   1.265   4.807   0.940
    1   AR   Ar  104   3.138   4.028  -1.088
    1   AR   Ar  105   2.318   2.452   4.298
    1   AR   Ar  106   3.647   2.972   5.424
    1   AR   Ar  107   0.897   4.013   4.601
    1   AR   Ar  108   2.122   0.927   5.015
    1   AR   Ar  109   1.606   3.252   5.377
    1   AR   Ar  110   2.629   2.660   5.487
    1   AR   Ar  111   5.202   5.107   7.339
    1   AR   Ar  112   0.802   5.582   6.527
    1   AR   Ar  113   3.424   4.653   0.369
    1   AR   Ar  114   2.874   0.024  -0.430
    1   AR   Ar  115   2.362   4.888   0.085
    1   AR   Ar  116   6.625   0.466  -0.663
    1   AR   Ar  117   1.116   5.300   4.059
    1   AR   Ar  118   1.552   5.644   3.136
    1   AR   Ar  119   2.380   3.715   2.621
    1   AR   Ar  120   1.882   6.519   1.381
    1   AR   Ar  121   5.503   3.998   5.214
    1   AR   Ar  122   2.921   5.888   5.726
    1   AR   Ar  123   3.419   4.146   5.503
    1   AR   Ar  124   1.307   5.327   2.195
    1   AR   Ar  125   6.892   3.837   5.239
    1   AR   Ar  126   6.830   6.567   4.951
    1   AR   Ar  127   4.625   3.980   6.121
    1   AR   Ar  128   3.398   4.597   6.484
    1   AR   Ar  129   2.431   6.076   3.831
    1   AR   Ar  130   4.516   2.310  -3.207
    1   AR   Ar  131   3.392   3.016  -0.796
    1   AR   Ar  132   0.449   2.370   0.060
    1   AR   Ar  133   4.862   6.247   3.218
    1   AR   Ar  134   4.582   1.372   4.687
    1   AR   Ar  135   6.164   0.896   2.670
    1   AR   Ar  136   5.937   6.913   2.733
    1   AR   Ar  137   2.126   4.847   4.042
    1   AR   Ar  138   4.976   1.416   5.936
    1   AR   Ar  139   5.908   1.936   5.458
    1   AR   Ar  140   4.069   0.033   4.405
    1   AR   Ar  141   3.800   4.760   4.556
    1   AR   Ar  142   3.552   6.926   5.929
    1   AR   Ar  143   6.263   6.781   5.825
    1   AR   Ar  144   6.901   1.521   5.168
    1   AR   Ar  145   4.994   4.658  -0.295
    1   AR   Ar  146   3.075   2.957   2.193
    1   AR   Ar  147   4.576   2.626  -1.310
    1   AR   Ar  148   3.583   6.393  -0.694
    1   AR   Ar  149   2.662   1.988  -0.654
    1   AR   Ar  150   2.594   1.772   2.211
    1   AR   Ar  151   2.442   2.719   3.093
    1   AR   Ar  152   2.463   2.847  -1.252
    1   AR   Ar  153   5.122   0.349   3.929
    1   AR   Ar  154   3.503   1.873   3.611
    1   AR   Ar  155   6.401   4.693   5.833
    1   AR   Ar  156   3.230   3.352   3.212
    1   AR   Ar  157   1.011   4.377   5.889
    1   AR   Ar  158   0.548   1.780   6.901
    1   AR   Ar  159   4.258   1.617   7.424
    1   AR   Ar  160   1.604   1.877   4.844
    1   AR   Ar  161   5.032   4.256   1.952
    1   AR   Ar  162   4.718   5.995  -0.455
    1   AR   Ar  163   6.176   3.983  -0.325
    1   AR   Ar  164   2.404   5.563   2.430
    1   AR   Ar  165   4.545   2.514   0.786
    1   AR   Ar  166   3.184   3.242   4.468
    1   AR   Ar  167   4.989   0.439   2.322
    1   AR   Ar  168   5.186   3.899  -1.678
    1   AR   Ar  169   3.423   4.475   2.572
    1   AR   Ar  170   2.064   3.902   6.156
    1   AR   Ar  171   5.628   3.790   4.074
    1   AR   Ar  172   4.559   4.246   5.091
    1   AR   Ar  173   2.995   3.091   6.421
    1   AR   Ar  174   2.046   5.962   6.387
    1   AR   Ar  175   3.621   2.047   6.269
    1   AR   Ar  176   4.006   2.265   4.601
    1   AR   Ar  177   0.011   5.854  -0.928
    1   AR   Ar  178   3.804   5.384  -0.443
    1   AR   Ar  179   3.849   6.229   0.425
    1   AR   Ar  180   2.784   1.406  -3.582
    1   AR   Ar  181   0.569   5.749   1.321
    1   AR   Ar  182   2.272   6.791   2.705
    1   AR   Ar  183   4.085   5.214   2.438
    1   AR   Ar  184   4.813   6.603   0.450
    1   AR   Ar  185   2.999   5.127   4.977
    1   AR   Ar  186   2.918   5.262   3.397
    1   AR   Ar  187   3.397   6.718   3.328
    1   AR   Ar  188   3.088   6.820   2.151
    1   AR   Ar  189   4.567   2.587   6.246
    1   AR   Ar  190   3.464   6.029   4.132
    1   AR   Ar  191   2.725   6.364   7.670
    1   AR   Ar  192   3.948   6.057   5.147
    1   AR   Ar  193   2.965   6.094   1.125
    1   AR   Ar  194   4.314   3.745  -0.856
    1   AR   Ar  195   5.405   1.667   0.322
    1   AR   Ar  196   4.648   1.019   0.207
    1   AR   Ar  197   3.774   1.682   0.609
    1   AR   Ar  198   6.614   1.352   1.439
    1   AR   Ar  199   2.940   0.616   2.644
    1   AR   Ar  200   5.872   2.573  -0.245
    1   AR   Ar  201   5.890   6.062   3.638
    1   AR   Ar  202   5.978   0.996   4.872
    1   AR   Ar  203   7.064   0.153   2.876
    1   AR   Ar  204   5.160   6.206   5.140
    1   AR   Ar  205   6.756   6.263   1.916
    1   AR   Ar  206   5.453   0.209   5.472
    1   AR   Ar  207   0.809   1.792   5.429
    1   AR   Ar  208   0.534   6.116   4.286
    1   AR   Ar  209   6.903   2.673  -1.849
    1   AR   Ar  210   2.564   0.101   0.855
    1   AR   Ar  211   6.852   3.534   0.541
    1   AR   Ar  212   6.319   3.224  -1.078
    1   AR   Ar  213   2.887   0.758   1.617
    1   AR   Ar  214   4.747   2.997   1.658
    1   AR   Ar  215   5.767   3.130   1.676
    1   AR   Ar  216   0.685   2.554   1.789
    1   AR   Ar  217   5.234   2.845   3.902
    1   AR   Ar  218   4.639   3.398   4.463
    1   AR   Ar  219   4.119   2.956   3.629
    1   AR   Ar  220   3.701   3.192   1.446
    1   AR   Ar  221   6.652   5.722   4.332
    1   AR   Ar  222   4.416   0.054   6.847
    1   AR   Ar  223   5.767   1.918   6.664
    1   AR   Ar  224   4.880   2.207   5.240
    1   AR   Ar  225   6.113   2.979   3.443
    1   AR   Ar  226   2.144   3.492   3.886
    1   AR   Ar  227   6.786   3.433   1.744
    1   AR   Ar  228   5.339   6.963   1.595
    1   AR   Ar  229   5.938   5.466  -1.882
    1   AR   Ar  230   4.040   4.350   3.332
    1   AR   Ar  231   5.476   1.681   4.007
    1   AR   Ar  232   5.325   1.738   1.564
    1   AR   Ar  233   6.259   2.213   4.224
    1   AR   Ar  234   6.253   3.180   4.671
    1   AR   Ar  235   6.539   1.156   3.889
    1   AR   Ar  236   5.031   5.274   5.870
    1   AR   Ar  237   5.980   2.923   5.704
    1   AR   Ar  238   5.729   4.004   6.225
    1   AR   Ar  239   6.800   4.441   9.321
    1   AR   Ar  240   6.868   2.590   7.252
    1   AR   Ar  241   1.707   6.733  -0.362
    1   AR   Ar  242   5.335   5.492   0.326
    1   AR   Ar  243   5.175   4.845   2.954
    1   AR   Ar  244   0.439   5.923   0.122
    1   AR   Ar  245   4.057   0.820   1.971
    1   AR   Ar  246   5.649   6.894  -0.068
    1   AR   Ar  247   5.891   3.991   0.819
    1   AR   Ar  248   5.789   5.905  -0.526
    1   AR   Ar  249   4.570   6.249   1.421
    1   AR   Ar  250   4.645   5.493   4.468
    1   AR   Ar  251   4.771   4.436   4.030
    1   AR   Ar  252   3.872   5.719   3.266
    1   AR   Ar  253   6.693   3.731   6.263
    1   AR   Ar  254   1.994   2.515   8.882
    1   AR   Ar  255   3.852   4.948  10.014
    1   AR   Ar  256   6.475   4.902   3.318
    7.12000  7.12000 12.00000
Argon-slab step 3705
  256
    1   AR   Ar    1   4.993   2.198  -2.323
    1   AR   Ar    2   6.096   0.519   0.917
    1   AR   Ar    3   3.748   1.471  -1.190
    1   AR   Ar    4   1.654   0.642  -0.125
    1   AR   Ar    5   6.472   6.345   0.171
    1   AR   Ar    6   7.100   1.177   2.303
    1   AR   Ar    7   5.816   4.018   3.017
    1   AR   Ar    8   4.742   0.972   1.201
    1   AR   Ar    9   0.954   7.031   3.000
    1   AR   Ar   10   0.347   7.059   3.875
    1   AR   Ar   11   1.783   6.994   4.365
    1   AR   Ar   12   0.892   1.362   2.972
    1   AR   Ar   13   7.098   0.457   4.766
    1   AR   Ar   14   5.574   1.760   7.978
    1   AR   Ar   15   4.407   6.380   8.015
    1   AR   Ar   16   0.802   6.793   5.098
    1   AR   Ar   17   6.775   2.249   0.765
    1   AR   Ar   18   6.323   4.898  -0.935
    1   AR   Ar   19   3.623   3.469   0.363
    1   AR   Ar   20   5.484   4.720  -2.549
    1   AR   Ar   21   3.330   1.773   1.483
    1   AR   Ar   22   6.631   1.810   3.032
    1   AR   Ar   23   0.263   0.515   0.684
    1   AR   Ar   24   6.662   2.191   2.016
    1   AR   Ar   25   0.497   1.738   4.458
    1   AR   Ar   26   6.362   7.105   4.151
    1   AR   Ar   27   1.820   0.760   2.606
    1   AR   Ar   28   7.026   2.560   5.017
    1   AR   Ar   29   5.588   3.077   6.805
    1   AR   Ar   30   1.812   1.101   4.030
    1   AR   Ar   31   3.358   0.851   7.456
    1   AR   Ar   32   1.250   2.654   6.945
    1   AR   Ar   33   0.390   4.535   0.325
    1   AR   Ar   34   0.270   4.991   2.426
    1   AR   Ar   35   5.881   5.818   1.263
    1   AR   Ar   36   5.850   1.695  -2.919
    1   AR   Ar   37   5.370   2.203   2.504
    1   AR   Ar   38   6.869   3.850   2.874
    1   AR   Ar   39   0.849   4.114   2.287
    1   AR   Ar   40   1.650   3.656   1.804
    1   AR   Ar   41   0.128   2.265   3.707
    1   AR   Ar   42   5.956   5.259   5.131
    1   AR   Ar   43   6.959   2.397   6.026
    1   AR   Ar   44   0.746   4.406   3.378
    1   AR   Ar   45   0.547   3.354   5.690
    1   AR   Ar   46   0.097   5.003   5.082
    1   AR   Ar   47   5.267   4.005   7.471
    1   AR   Ar   48   6.258   4.341   7.112
    1   AR   Ar   49   5.121   0.524  -0.809
    1   AR   Ar   50   4.330   5.364   0.531
    1   AR   Ar   51   6.661   5.209   1.577
    1   AR   Ar   52   5.947   2.987  -2.034
    1   AR   Ar   53   5.460   5.930   2.320
    1   AR   Ar   54   0.622   6.079   2.427
    1   AR   Ar   55   6.465   5.788   2.768
    1   AR   Ar   56   6.544   0.228   1.770
    1   AR   Ar   57   4.785   3.500   2.716
    1   AR   Ar   58   6.944   3.314   3.912
    1   AR   Ar   59   2.476   4.981   6.171
    1   AR   Ar   60   0.472   5.510   3.339
    1   AR   Ar   61   0.109   4.674   6.480
    1   AR   Ar   62   6.627   4.293   4.336
    1   AR   Ar   63   1.723   1.254   6.081
    1   AR   Ar   64   1.184   5.640   5.315
    1   AR   Ar   65   3.557   6.989   1.036
    1   AR   Ar   66   0.907   1.442   1.867
    1   AR   Ar   67   4.282   0.084  -0.390
    1   AR   Ar   68   1.761   1.811  -1.163
    1   AR   Ar   69   2.579   1.365   0.665
    1   AR   Ar   70   0.611   0.308   1.866
    1   AR   Ar   71   2.794   1.162   3.529
    1   AR   Ar   72   3.984   6.468   2.541
    1   AR   Ar   73   4.218   0.398   3.300
    1   AR   Ar   74   1.042   0.856   4.651
    1   AR   Ar   75   3.352   1.001   4.969
    1   AR   Ar   76   1.603   0.498   1.175
    1   AR   Ar   77   2.196   6.713   5.352
    1   AR   Ar   78   0.270   6.157   5.822
    1   AR   Ar   79   3.829   5.969   6.351
    1   AR   Ar   80   3.940   4.960   5.644
    1   AR   Ar   81   2.588   6.241   0.066
    1   AR   Ar   82   6.686   5.355   0.304
    1   AR   Ar   83   1.277   2.010   0.847
    1   AR   Ar   84   0.386   4.181   1.394
    1   AR   Ar   85   1.027   3.233   0.917
    1   AR   Ar   86   2.108   5.439   0.978
    1   AR   Ar   87   2.143   2.389   1.389
    1   AR   Ar   88   2.237   4.511   1.748
    1   AR   Ar   89   0.268   2.957   2.780
    1   AR   Ar   90   2.978   1.850   4.718
    1   AR   Ar   91   1.495   2.140   3.521
    1   AR   Ar   92   1.591   2.763   2.261
    1   AR   Ar   93   0.834   0.439   5.806
    1   AR   Ar   94   0.068   0.123  11.062
    1   AR   Ar   95   4.233   0.538   5.715
    1   AR   Ar   96   2.844   7.066   4.639
    1   AR   Ar   97   4.279   1.883  -0.339
    1   AR   Ar   98   1.801   4.660   3.047
    1   AR   Ar   99   6.690   1.110   0.273
    1   AR   Ar  100   1.433   3.033  -0.929
    1   AR   Ar  101   3.278   5.198   1.693
    1   AR   Ar  102   3.886   1.534   2.693
    1   AR   Ar  103   1.264   4.813   0.915
    1   AR   Ar  104   3.161   4.035  -1.087
    1   AR   Ar  105   2.359   2.470   4.307
    1   AR   Ar  106   3.650   2.964   5.392
    1   AR   Ar  107   0.913   4.014   4.615
    1   AR   Ar  108   2.128   0.937   5.014
    1   AR   Ar  109   1.612   3.222   5.359
    1   AR   Ar  110   2.628   2.664   5.450
    1   AR   Ar  111   5.210   5.135   7.319
    1   AR   Ar  112   0.794   5.604   6.531
    1   AR   Ar  113   3.455   4.644   0.357
    1   AR   Ar  114   2.891   0.067  -0.393
    1   AR   Ar  115   2.367   4.911   0.091
    1   AR   Ar  116   6.609   0.476  -0.640
    1   AR   Ar  117   1.123   5.305   4.076
    1   AR   Ar  118   1.558   5.661   3.141
    1   AR   Ar  119   2.367   3.690   2.602
    1   AR   Ar  120   1.916   6.495   1.381
    1   AR   Ar  121   5.488   4.023   5.230
    1   AR   Ar  122   2.929   5.866   5.731
    1   AR   Ar  123   3.421   4.145   5.501
    1   AR   Ar  124   1.312   5.324   2.177
    1   AR   Ar  125   6.903   3.824   5.248
    1   AR   Ar  126   6.830   6.555   4.939
    1   AR   Ar  127   4.618   3.996   6.108
    1   AR   Ar  128   3.435   4.549   6.456
    1   AR   Ar  129   2.431   6.077   3.835
    1   AR   Ar  130   4.507   2.297  -3.214
    1   AR   Ar  131   3.419   2.993  -0.792
    1   AR   Ar  132   0.420   2.387   0.041
    1   AR   Ar  133   4.870   6.249   3.215
    1   AR   Ar  134   4.573   1.381   4.680
    1   AR   Ar  135   6.212   0.894   2.678
    1   AR   Ar  136   5.977   6.922   2.732
    1   AR   Ar  137   2.152   4.826   3.998
    1   AR   Ar  138   4.980   1.418   5.941
    1   AR   Ar  139   5.901   1.931   5.445
    1   AR   Ar  140   4.060   0.042   4.426
    1   AR   Ar  141   3.827   4.771   4.541
    1   AR   Ar  142   3.558   6.924   5.936
    1   AR   Ar  143   6.283   6.769   5.839
    1   AR   Ar  144   6.885   1.528   5.175
    1   AR   Ar  145   4.991   4.681  -0.310
    1   AR   Ar  146   3.066   2.957   2.181
    1   AR   Ar  147   4.599   2.610  -1.326
    1   AR   Ar  148   3.605   6.412  -0.704
    1   AR   Ar  149   2.659   1.980  -0.681
    1   AR   Ar  150   2.620   1.760   2.238
    1   AR   Ar  151   2.432   2.755   3.029
    1   AR   Ar  152   2.425   2.840  -1.262
    1   AR   Ar  153   5.093   0.370   3.912
    1   AR   Ar  154   3.523   1.876   3.611
    1   AR   Ar  155   6.397   4.674   5.824
    1   AR   Ar  156   3.213   3.384   3.235
    1   AR   Ar  157   1.023   4.391   5.901
    1   AR   Ar  158   0.515   1.778   6.892
    1   AR   Ar  159   4.242   1.599   7.430
    1   AR   Ar  160   1.624   1.891   4.819
    1   AR   Ar  161   5.041   4.253   1.946
    1   AR   Ar  162   4.717   6.012  -0.415
    1   AR   Ar  163   6.157   4.000  -0.349
    1   AR   Ar  164   2.415   5.580   2.449
    1   AR   Ar  165   4.544   2.523   0.771
    1   AR   Ar  166   3.202   3.247   4.471
    1   AR   Ar  167   4.992   0.411   2.304
    1   AR   Ar  168   5.161   3.900  -1.660
    1   AR   Ar  169   3.428   4.475   2.582
    1   AR   Ar  170   2.078   3.917   6.145
    1   AR   Ar  171   5.596   3.797   4.075
    1   AR   Ar  172   4.544   4.205   5.098
    1   AR   Ar  173   2.978   3.112   6.415
    1   AR   Ar  174   2.044   5.945   6.406
    1   AR   Ar  175   3.625   2.032   6.247
    1   AR   Ar  176   4.004   2.250   4.616
    1   AR   Ar  177   0.055   5.846  -0.924
    1   AR   Ar  178   3.815   5.388  -0.440
    1   AR   Ar  179   3.848   6.253   0.399
    1   AR   Ar  180   2.814   1.385  -3.593
    1   AR   Ar  181   0.590   5.738   1.371
    1   AR   Ar  182   2.248   6.821   2.713
    1   AR   Ar  183   4.119   5.230   2.423
    1   AR   Ar  184   4.808   6.627   0.424
    1   AR   Ar  185   3.009   5.150   4.988
    1   AR   Ar  186   2.890   5.226   3.394
    1   AR   Ar  187   3.379   6.699   3.317
    1   AR   Ar  188   3.070   6.807   2.141
    1   AR   Ar  189   4.558   2.620   6.235
    1   AR   Ar  190   3.494   6.015   4.123
    1   AR   Ar  191   2.714   6.357   7.664
    1   AR   Ar  192   3.962   6.057   5.134
    1   AR   Ar  193   2.963   6.142   1.149
    1   AR   Ar  194   4.320   3.761  -0.832
    1   AR   Ar  195   5.411   1.669   0.305
    1   AR   Ar  196   4.629   1.017   0.143
    1   AR   Ar  197   3.799   1.707   0.622
    1   AR   Ar  198   6.654   1.332   1.428
    1   AR   Ar  199   2.968   0.604   2.635
    1   AR   Ar  200   5.860   2.554  -0.253
    1   AR   Ar  201   5.911   6.064   3.634
    1   AR   Ar  202   5.967   1.031   4.878
    1   AR   Ar  203   7.018   0.173   2.858
    1   AR   Ar  204   5.216   6.162   5.173
    1   AR   Ar  205   6.766   6.284   1.919
    1   AR   Ar  206   5.476   0.196   5.475
    1   AR   Ar  207   0.807   1.786   5.391
    1   AR   Ar  208   0.514   6.094   4.306
    1   AR   Ar  209   6.905   2.663  -1.852
    1   AR   Ar  210   2.562   0.078   0.885
    1   AR   Ar  211   6.878   3.539   0.559
    1   AR   Ar  212   6.321   3.236  -1.091
    1   AR   Ar  213   2.862   0.771   1.656
    1   AR   Ar  214   4.759   2.993   1.647
    1   AR   Ar  215   5.767   3.171   1.692
    1   AR   Ar  216   0.696   2.540   1.764
    1   AR   Ar  217   5.244   2.810   3.909
    1   AR   Ar  218   4.632   3.434   4.488
    1   AR   Ar  219   4.085   2.952   3.622
    1   AR   Ar  220   3.699   3.171   1.412
    1   AR   Ar  221   6.649   5.748   4.302
    1   AR   Ar  222   4.420   0.021   6.835
    1   AR   Ar  223   5.753   1.974   6.660
    1   AR   Ar  224   4.876   2.180   5.251
    1   AR   Ar  225   6.125   2.985   3.420
    1   AR   Ar  226   2.121   3.481   3.868
    1   AR   Ar  227   6.755   3.441   1.726
    1   AR   Ar  228   5.352   6.960   1.580
    1   AR   Ar  229   5.913   5.437  -1.896
    1   AR   Ar  230   4.052   4.349   3.353
    1   AR   Ar  231   5.467   1.681   3.983
    1   AR   Ar  232   5.328   1.765   1.556
    1   AR   Ar  233   6.272   2.209   4.220
    1   AR   Ar  234   6.253   3.173   4.659
    1   AR   Ar  235   6.533   1.135   3.895
    1   AR   Ar  236   5.014   5.254   5.851
    1   AR   Ar  237   5.982   2.928   5.653
    1   AR   Ar  238   5.758   3.981   6.242
    1   AR   Ar  239   6.804   4.453   9.327
    1   AR   Ar  240   6.876   2.557   7.259
    1   AR   Ar  241   1.710   6.740  -0.356
    1   AR   Ar  242   5.330   5.501   0.301
    1   AR   Ar  243   5.173   4.840   2.979
    1   AR   Ar  244   0.458   5.955   0.137
    1   AR   Ar  245   4.034   0.835   1.942
    1   AR   Ar  246   5.656   6.906  -0.088
    1   AR   Ar  247   5.902   3.977   0.795
    1   AR   Ar  248   5.811   5.890  -0.535
    1   AR   Ar  249   4.573   6.255   1.408
    1   AR   Ar  250   4.672   5.481   4.483
    1   AR   Ar  251   4.801   4.434   4.050
    1   AR   Ar  252   3.872   5.713   3.266
    1   AR   Ar  253   6.688   3.749   6.252
    1   AR   Ar  254   1.975   2.518   8.884
    1   AR   Ar  255   3.858   4.918   9.995
    1   AR   Ar  256   6.477   4.898   3.318
    7.12000  7.12000 12.00000
Argon-slab step 3710
  256
    1   AR   Ar    1   4.991   2.167  -2.308
    1   AR   Ar    2   6.073   0.496   0.925
    1   AR   Ar    3   3.766   1.470  -1.219
    1   AR   Ar    4   1.666   0.646  -0.130
    1   AR   Ar    5   6.474   6.330   0.163
    1   AR   Ar    6   7.104   1.217   2.310
    1   AR   Ar    7   5.828   4.004   3.014
    1   AR   Ar    8   4.732   1.003   1.209
    1   AR   Ar    9   0.951   7.037   3.017
    1   AR   Ar   10   0.348   7.042   3.859
    1   AR   Ar   11   1.818   7.004   4.384
    1   AR   Ar   12   0.909   1.355   2.982
    1   AR   Ar   13   7.109   0.432   4.727
    1   AR   Ar   14   5.543   1.757   7.988
    1   AR   Ar   15   4.348   6.361   8.018
    1   AR   Ar   16   0.820   6.784   5.071
    1   AR   Ar   17   6.782   2.238   0.795
    1   AR   Ar   18   6.309   4.880  -0.939
    1   AR   Ar   19   3.661   3.481   0.360
    1   AR   Ar   20   5.531   4.698  -2.544
    1   AR   Ar   21   3.284   1.764   1.501
    1   AR   Ar   22   6.645   1.788   3.042
    1   AR   Ar   23   0.269   0.499   0.694
    1   AR   Ar   24   6.607   2.168   2.007
    1   AR   Ar   25   0.514   1.720   4.456
    1   AR   Ar   26   6.371   7.103   4.146
    1   AR   Ar   27   1.813   0.759   2.599
    1   AR   Ar   28   7.051   2.566   5.036
    1   AR   Ar   29   5.599   3.052   6.789
    1   AR   Ar   30   1.817   1.081   4.015
    1   AR   Ar   31   3.379   0.847   7.473
    1   AR   Ar   32   1.228   2.655   6.965
    1   AR   Ar   33   0.391   4.525   0.337
    1   AR   Ar   34   0.256   4.999   2.449
    1   AR   Ar   35   5.844   5.799   1.258
    1   AR   Ar   36   5.843   1.718  -2.915
    1   AR   Ar   37   5.383   2.222   2.515
    1   AR   Ar   38   6.847   3.839   2.893
    1   AR   Ar   39   0.820   4.099   2.342
    1   AR   Ar   40   1.649   3.673   1.791
    1   AR   Ar   41   0.123   2.275   3.736
    1   AR   Ar   42   5.949   5.259   5.131
    1   AR   Ar   43   6.974   2.394   5.994
    1   AR   Ar   44   0.707   4.417   3.395
    1   AR   Ar   45   0.544   3.335   5.723
    1   AR   Ar   46   0.108   5.023   5.064
    1   AR   Ar   47   5.250   3.996   7.460
    1   AR   Ar   48   6.294   4.317   7.098
    1   AR   Ar   49   5.161   0.519  -0.797
    1   AR   Ar   50   4.311   5.364   0.513
    1   AR   Ar   51   6.671   5.186   1.548
    1   AR   Ar   52   5.959   2.999  -2.054
    1   AR   Ar   53   5.447   5.926   2.346
    1   AR   Ar   54   0.614   6.069   2.413
    1   AR   Ar   55   6.460   5.769   2.758
    1   AR   Ar   56   6.548   0.222   1.762
    1   AR   Ar   57   4.750   3.494   2.721
    1   AR   Ar   58   6.968   3.336   3.909
    1   AR   Ar   59   2.477   4.948   6.157
    1   AR   Ar   60   0.481   5.537   3.339
    1   AR   Ar   61   0.128   4.672   6.515
    1   AR   Ar   62   6.650   4.289   4.337
    1   AR   Ar   63   1.725   1.269   6.098
    1   AR   Ar   64   1.158   5.621   5.313
    1   AR   Ar   65   3.598   6.985   1.052
    1   AR   Ar   66   0.946   1.443   1.843
    1   AR   Ar   67   4.278   0.095  -0.358
    1   AR   Ar   68   1.743   1.804  -1.173
    1   AR   Ar   69   2.590   1.403   0.637
    1   AR   Ar   70   0.608   0.304   1.846
    1   AR   Ar   71   2.809   1.159   3.516
    1   AR   Ar   72   4.024   6.464   2.552
    1   AR   Ar   73   4.201   0.410   3.298
    1   AR   Ar   74   1.034   0.877   4.632
    1   AR   Ar   75   3.359   0.993   4.976
    1   AR   Ar   76   1.598   0.509   1.178
    1   AR   Ar   77   2.204   6.719   5.308
    1   AR   Ar   78   0.273   6.171   5.835
    1   AR   Ar   79   3.811   5.985   6.319
    1   AR   Ar   80   3.947   5.002   5.640
    1   AR   Ar   81   2.598   6.244   0.063
    1   AR   Ar   82   6.689   5.353   0.300
    1   AR   Ar   83   1.295   2.045   0.849
    1   AR   Ar   84   0.402   4.144   1.425
    1   AR   Ar   85   1.016   3.231   0.919
    1   AR   Ar   86   2.128   5.476   1.007
    1   AR   Ar   87   2.115   2.404   1.384
    1   AR   Ar   88   2.263   4.551   1.773
    1   AR   Ar   89   0.247   2.957   2.768
    1   AR   Ar   90   3.005   1.860   4.703
    1   AR   Ar   91   1.516   2.131   3.532
    1   AR   Ar   92   1.592   2.784   2.276
    1   AR   Ar   93   0.802   0.428   5.810
    1   AR   Ar   94   0.047   0.124  11.046
    1   AR   Ar   95   4.271   0.527   5.694
    1   AR   Ar   96   2.863   7.051   4.628
    1   AR   Ar   97   4.263   1.910  -0.310
    1   AR   Ar   98   1.804   4.683   3.026
    1   AR   Ar   99   6.691   1.126   0.279
    1   AR   Ar  100   1.436   3.031  -0.915
    1   AR   Ar  101   3.266   5.233   1.704
    1   AR   Ar  102   3.879   1.519   2.694
    1   AR   Ar  103   1.261   4.817   0.892
    1   AR   Ar  104   3.185   4.041  -1.086
    1   AR   Ar  105   2.391   2.500   4.306
    1   AR   Ar  106   3.657   2.957   5.364
    1   AR   Ar  107   0.929   4.014   4.629
    1   AR   Ar  108   2.136   0.943   5.000
    1   AR   Ar  109   1.618   3.191   5.340
    1   AR   Ar  110   2.624   2.667   5.411
    1   AR   Ar  111   5.218   5.162   7.298
    1   AR   Ar  112   0.789   5.611   6.532
    1   AR   Ar  113   3.487   4.634   0.344
    1   AR   Ar  114   2.889   0.104  -0.381
    1   AR   Ar  115   2.374   4.933   0.097
    1   AR   Ar  116   6.589   0.490  -0.613
    1   AR   Ar  117   1.138   5.302   4.099
    1   AR   Ar  118   1.562   5.684   3.142
    1   AR   Ar  119   2.352   3.672   2.582
    1   AR   Ar  120   1.950   6.470   1.384
    1   AR   Ar  121   5.489   4.044   5.244
    1   AR   Ar  122   2.938   5.849   5.739
    1   AR   Ar  123   3.409   4.131   5.469
    1   AR   Ar  124   1.319   5.316   2.153
    1   AR   Ar  125   6.909   3.815   5.249
    1   AR   Ar  126   6.831   6.542   4.928
    1   AR   Ar  127   4.611   4.012   6.098
    1   AR   Ar  128   3.472   4.500   6.434
    1   AR   Ar  129   2.430   6.080   3.839
    1   AR   Ar  130   4.496   2.284  -3.226
    1   AR   Ar  131   3.447   2.970  -0.787
    1   AR   Ar  132   0.394   2.405   0.021
    1   AR   Ar  133   4.877   6.252   3.211
    1   AR   Ar  134   4.565   1.383   4.671
    1   AR   Ar  135   6.237   0.894   2.681
    1   AR   Ar  136   6.015   6.928   2.730
    1   AR   Ar  137   2.177   4.805   3.962
    1   AR   Ar  138   4.984   1.416   5.948
    1   AR   Ar  139   5.897   1.922   5.438
    1   AR   Ar  140   4.051   0.050   4.447
    1   AR   Ar  141   3.860   4.778   4.521
    1   AR   Ar  142   3.558   6.904   5.954
    1   AR   Ar  143   6.306   6.754   5.854
    1   AR   Ar  144   6.867   1.531   5.183
    1   AR   Ar  145   4.987   4.704  -0.325
    1   AR   Ar  146   3.054   2.957   2.172
    1   AR   Ar  147   4.621   2.594  -1.341
    1   AR   Ar  148   3.590   6.443  -0.717
    1   AR   Ar  149   2.661   1.972  -0.703
    1   AR   Ar  150   2.643   1.748   2.270
    1   AR   Ar  151   2.417   2.780   2.969
    1   AR   Ar  152   2.388   2.835  -1.274
    1   AR   Ar  153   5.065   0.392   3.896
    1   AR   Ar  154   3.545   1.887   3.615
    1   AR   Ar  155   6.395   4.655   5.815
    1   AR   Ar  156   3.199   3.422   3.259
    1   AR   Ar  157   1.035   4.405   5.910
    1   AR   Ar  158   0.482   1.776   6.882
    1   AR   Ar  159   4.227   1.581   7.434
    1   AR   Ar  160   1.650   1.905   4.789
    1   AR   Ar  161   5.051   4.250   1.941
    1   AR   Ar  162   4.714   6.029  -0.377
    1   AR   Ar  163   6.138   4.018  -0.368
    1   AR   Ar  164   2.426   5.597   2.466
    1   AR   Ar  165   4.543   2.469   0.746
    1   AR   Ar  166   3.220   3.252   4.470
    1   AR   Ar  167   4.991   0.389   2.295
    1   AR   Ar  168   5.137   3.900  -1.640
    1   AR   Ar  169   3.422   4.472   2.586
    1   AR   Ar  170   2.093   3.930   6.132
    1   AR   Ar  171   5.570   3.803   4.078
    1   AR   Ar  172   4.513   4.176   5.108
    1   AR   Ar  173   2.966   3.105   6.409
    1   AR   Ar  174   2.041   5.929   6.425
    1   AR   Ar  175   3.628   2.018   6.223
    1   AR   Ar  176   3.998   2.240   4.627
    1   AR   Ar  177   0.097   5.837  -0.918
    1   AR   Ar  178   3.827   5.389  -0.437
    1   AR   Ar  179   3.842   6.276   0.367
    1   AR   Ar  180   2.843   1.364  -3.604
    1   AR   Ar  181   0.611   5.726   1.420
    1   AR   Ar  182   2.217   6.850   2.726
    1   AR   Ar  183   4.161   5.246   2.402
    1   AR   Ar  184   4.832   6.627   0.415
    1   AR   Ar  185   3.014   5.174   4.999
    1   AR   Ar  186   2.867   5.190   3.387
    1   AR   Ar  187   3.354   6.684   3.309
    1   AR   Ar  188   3.058   6.792   2.121
    1   AR   Ar  189   4.550   2.654   6.223
    1   AR   Ar  190   3.519   6.003   4.128
    1   AR   Ar  191   2.703   6.350   7.657
    1   AR   Ar  192   3.975   6.057   5.122
    1   AR   Ar  193   2.960   6.187   1.173
    1   AR   Ar  194   4.326   3.777  -0.808
    1   AR   Ar  195   5.419   1.674   0.290
    1   AR   Ar  196   4.606   1.010   0.077
    1   AR   Ar  197   3.829   1.728   0.625
    1   AR   Ar  198   6.689   1.310   1.405
    1   AR   Ar  199   2.999   0.593   2.636
    1   AR   Ar  200   5.848   2.536  -0.262
    1   AR   Ar  201   5.929   6.067   3.629
    1   AR   Ar  202   5.956   1.064   4.881
    1   AR   Ar  203   6.973   0.192   2.838
    1   AR   Ar  204   5.273   6.118   5.206
    1   AR   Ar  205   6.777   6.308   1.918
    1   AR   Ar  206   5.495   0.186   5.476
    1   AR   Ar  207   0.802   1.779   5.371
    1   AR   Ar  208   0.522   6.098   4.320
    1   AR   Ar  209   6.912   2.651  -1.854
    1   AR   Ar  210   2.557   0.055   0.911
    1   AR   Ar  211   6.905   3.543   0.577
    1   AR   Ar  212   6.325   3.248  -1.102
    1   AR   Ar  213   2.837   0.786   1.686
    1   AR   Ar  214   4.768   2.991   1.643
    1   AR   Ar  215   5.768   3.210   1.709
    1   AR   Ar  216   0.702   2.526   1.737
    1   AR   Ar  217   5.252   2.770   3.917
    1   AR   Ar  218   4.623   3.461   4.508
    1   AR   Ar  219   4.055   2.945   3.616
    1   AR   Ar  220   3.701   3.151   1.373
    1   AR   Ar  221   6.664   5.785   4.270
    1   AR   Ar  222   4.423   7.108   6.821
    1   AR   Ar  223   5.739   2.031   6.655
    1   AR   Ar  224   4.874   2.163   5.261
    1   AR   Ar  225   6.136   2.989   3.390
    1   AR   Ar  226   2.098   3.471   3.850
    1   AR   Ar  227   6.731   3.449   1.710
    1   AR   Ar  228   5.372   6.952   1.556
    1   AR   Ar  229   5.890   5.409  -1.906
    1   AR   Ar  230   4.067   4.347   3.377
    1   AR   Ar  231   5.455   1.681   3.952
    1   AR   Ar  232   5.328   1.816   1.562
    1   AR   Ar  233   6.294   2.207   4.219
    1   AR   Ar  234   6.246   3.171   4.648
    1   AR   Ar  235   6.527   1.115   3.903
    1   AR   Ar  236   4.997   5.232   5.831
    1   AR   Ar  237   5.983   2.940   5.606
    1   AR   Ar  238   5.764   3.959   6.260
    1   AR   Ar  239   6.807   4.465   9.333
    1   AR   Ar  240   6.884   2.525   7.265
    1   AR   Ar  241   1.713   6.744  -0.350
    1   AR   Ar  242   5.331   5.511   0.282
    1   AR   Ar  243   5.168   4.837   3.005
    1   AR   Ar  244   0.439   5.952   0.138
    1   AR   Ar  245   4.005   0.846   1.912
    1   AR   Ar  246   5.662   6.924  -0.112
    1   AR   Ar  247   5.908   3.963   0.773
    1   AR   Ar  248   5.836   5.874  -0.549
    1   AR   Ar  249   4.572   6.258   1.396
    1   AR   Ar  250   4.699   5.467   4.498
    1   AR   Ar  251   4.831   4.437   4.072
    1   AR   Ar  252   3.880   5.708   3.249
    1   AR   Ar  253   6.700   3.757   6.247
    1   AR   Ar  254   1.956   2.521   8.886
    1   AR   Ar  255   3.863   4.887   9.977
    1   AR   Ar  256   6.481   4.890   3.321
    7.12000  7.12000 12.00000
Argon-slab step 3715
  256
    1   AR   Ar    1   4.993   2.137  -2.288
    1   AR   Ar    2   6.044   0.474   0.926
    1   AR   Ar    3   3.784   1.471  -1.247
    1   AR   Ar    4   1.680   0.653  -0.132
    1   AR   Ar    5   6.478   6.321   0.158
    1   AR   Ar    6   0.002   1.256   2.320
    1   AR   Ar    7   5.838   3.990   3.010
    1   AR   Ar    8   4.726   1.033   1.211
    1   AR   Ar    9   0.951   7.043   3.030
    1   AR   Ar   10   0.352   7.031   3.850
    1   AR   Ar   11   1.849   7.017   4.400
    1   AR   Ar   12   0.925   1.348   2.991
    1   AR   Ar   13   0.003   0.413   4.692
    1   AR   Ar   14   5.511   1.754   7.997
    1   AR   Ar   15   4.289   6.343   8.020
    1   AR   Ar   16   0.840   6.775   5.043
    1   AR   Ar   17   6.789   2.227   0.828
    1   AR   Ar   18   6.295   4.865  -0.943
    1   AR   Ar   19   3.700   3.495   0.353
    1   AR   Ar   20   5.577   4.671  -2.543
    1   AR   Ar   21   3.242   1.756   1.517
    1   AR   Ar   22   6.656   1.771   3.056
    1   AR   Ar   23   0.278   0.480   0.708
    1   AR   Ar   24   6.551   2.148   1.998
    1   AR   Ar   25   0.527   1.701   4.441
    1   AR   Ar   26   6.377   7.101   4.136
    1   AR   Ar   27   1.837   0.762   2.589
    1   AR   Ar   28   7.079   2.576   5.040
    1   AR   Ar   29   5.609   3.031   6.774
    1   AR   Ar   30   1.824   1.076   4.005
    1   AR   Ar   31   3.402   0.843   7.490
    1   AR   Ar   32   1.206   2.655   6.984
    1   AR   Ar   33   0.389   4.515   0.349
    1   AR   Ar   34   0.239   5.007   2.471
    1   AR   Ar   35   5.811   5.784   1.265
    1   AR   Ar   36   5.836   1.742  -2.910
    1   AR   Ar   37   5.397   2.245   2.531
    1   AR   Ar   38   6.827   3.833   2.912
    1   AR   Ar   39   0.793   4.083   2.405
    1   AR   Ar   40   1.646   3.694   1.772
    1   AR   Ar   41   0.118   2.294   3.758
    1   AR   Ar   42   5.940   5.261   5.125
    1   AR   Ar   43   6.988   2.388   5.975
    1   AR   Ar   44   0.668   4.428   3.413
    1   AR   Ar   45   0.545   3.313   5.759
    1   AR   Ar   46   0.118   5.043   5.046
    1   AR   Ar   47   5.234   3.988   7.448
    1   AR   Ar   48   6.330   4.295   7.085
    1   AR   Ar   49   5.203   0.516  -0.785
    1   AR   Ar   50   4.293   5.361   0.498
    1   AR   Ar   51   6.685   5.162   1.519
    1   AR   Ar   52   5.964   3.012  -2.077
    1   AR   Ar   53   5.434   5.923   2.370
    1   AR   Ar   54   0.604   6.063   2.403
    1   AR   Ar   55   6.457   5.751   2.746
    1   AR   Ar   56   6.555   0.217   1.764
    1   AR   Ar   57   4.716   3.488   2.726
    1   AR   Ar   58   6.998   3.359   3.905
    1   AR   Ar   59   2.478   4.916   6.140
    1   AR   Ar   60   0.485   5.565   3.338
    1   AR   Ar   61   0.146   4.670   6.549
    1   AR   Ar   62   6.671   4.286   4.336
    1   AR   Ar   63   1.726   1.284   6.112
    1   AR   Ar   64   1.131   5.602   5.311
    1   AR   Ar   65   3.644   6.990   1.073
    1   AR   Ar   66   0.987   1.443   1.818
    1   AR   Ar   67   4.272   0.102  -0.325
    1   AR   Ar   68   1.722   1.797  -1.185
    1   AR   Ar   69   2.601   1.441   0.610
    1   AR   Ar   70   0.603   0.300   1.826
    1   AR   Ar   71   2.821   1.154   3.505
    1   AR   Ar   72   4.069   6.462   2.556
    1   AR   Ar   73   4.180   0.421   3.292
    1   AR   Ar   74   1.026   0.889   4.619
    1   AR   Ar   75   3.372   0.971   4.985
    1   AR   Ar   76   1.592   0.520   1.182
    1   AR   Ar   77   2.203   6.743   5.300
    1   AR   Ar   78   0.275   6.189   5.855
    1   AR   Ar   79   3.798   5.994   6.289
    1   AR   Ar   80   3.957   5.051   5.633
    1   AR   Ar   81   2.611   6.247   0.063
    1   AR   Ar   82   6.690   5.341   0.297
    1   AR   Ar   83   1.308   2.079   0.850
    1   AR   Ar   84   0.416   4.109   1.448
    1   AR   Ar   85   1.003   3.230   0.922
    1   AR   Ar   86   2.149   5.513   1.037
    1   AR   Ar   87   2.092   2.419   1.383
    1   AR   Ar   88   2.289   4.595   1.799
    1   AR   Ar   89   0.229   2.952   2.755
    1   AR   Ar   90   3.035   1.873   4.690
    1   AR   Ar   91   1.538   2.122   3.544
    1   AR   Ar   92   1.593   2.799   2.295
    1   AR   Ar   93   0.771   0.420   5.814
    1   AR   Ar   94   0.037   0.114  11.035
    1   AR   Ar   95   4.312   0.518   5.672
    1   AR   Ar   96   2.875   7.055   4.618
    1   AR   Ar   97   4.249   1.942  -0.285
    1   AR   Ar   98   1.804   4.707   3.022
    1   AR   Ar   99   6.688   1.148   0.284
    1   AR   Ar  100   1.435   3.029  -0.899
    1   AR   Ar  101   3.253   5.268   1.715
    1   AR   Ar  102   3.871   1.503   2.696
    1   AR   Ar  103   1.254   4.852   0.862
    1   AR   Ar  104   3.210   4.046  -1.084
    1   AR   Ar  105   2.415   2.540   4.298
    1   AR   Ar  106   3.668   2.950   5.341
    1   AR   Ar  107   0.943   4.015   4.644
    1   AR   Ar  108   2.147   0.947   4.990
    1   AR   Ar  109   1.625   3.160   5.321
    1   AR   Ar  110   2.647   2.661   5.444
    1   AR   Ar  111   5.227   5.188   7.277
    1   AR   Ar  112   0.784   5.570   6.518
    1   AR   Ar  113   3.518   4.625   0.331
    1   AR   Ar  114   2.858   0.132  -0.406
    1   AR   Ar  115   2.381   4.955   0.102
    1   AR   Ar  116   6.563   0.495  -0.584
    1   AR   Ar  117   1.160   5.292   4.126
    1   AR   Ar  118   1.565   5.713   3.146
    1   AR   Ar  119   2.340   3.677   2.558
    1   AR   Ar  120   1.979   6.444   1.390
    1   AR   Ar  121   5.501   4.064   5.256
    1   AR   Ar  122   2.946   5.839   5.749
    1   AR   Ar  123   3.395   4.110   5.432
    1   AR   Ar  124   1.328   5.304   2.129
    1   AR   Ar  125   6.911   3.809   5.244
    1   AR   Ar  126   6.835   6.531   4.923
    1   AR   Ar  127   4.606   4.027   6.095
    1   AR   Ar  128   3.508   4.451   6.418
    1   AR   Ar  129   2.427   6.084   3.844
    1   AR   Ar  130   4.483   2.272  -3.241
    1   AR   Ar  131   3.476   2.946  -0.782
    1   AR   Ar  132   0.369   2.424   0.001
    1   AR   Ar  133   4.885   6.255   3.209
    1   AR   Ar  134   4.559   1.374   4.660
    1   AR   Ar  135   6.197   0.914   2.659
    1   AR   Ar  136   6.049   6.931   2.727
    1   AR   Ar  137   2.193   4.780   3.940
    1   AR   Ar  138   4.989   1.411   5.958
    1   AR   Ar  139   5.902   1.908   5.463
    1   AR   Ar  140   4.034   0.060   4.452
    1   AR   Ar  141   3.893   4.785   4.497
    1   AR   Ar  142   3.554   6.888   5.969
    1   AR   Ar  143   6.332   6.738   5.871
    1   AR   Ar  144   6.850   1.532   5.192
    1   AR   Ar  145   4.983   4.726  -0.342
    1   AR   Ar  146   3.043   2.954   2.162
    1   AR   Ar  147   4.643   2.579  -1.355
    1   AR   Ar  148   3.575   6.472  -0.729
    1   AR   Ar  149   2.669   1.963  -0.722
    1   AR   Ar  150   2.648   1.731   2.288
    1   AR   Ar  151   2.399   2.787   2.919
    1   AR   Ar  152   2.355   2.830  -1.288
    1   AR   Ar  153   5.041   0.414   3.884
    1   AR   Ar  154   3.569   1.903   3.625
    1   AR   Ar  155   6.398   4.638   5.807
    1   AR   Ar  156   3.184   3.464   3.283
    1   AR   Ar  157   1.037   4.399   5.947
    1   AR   Ar  158   0.449   1.776   6.870
    1   AR   Ar  159   4.212   1.564   7.437
    1   AR   Ar  160   1.678   1.919   4.756
    1   AR   Ar  161   5.061   4.246   1.937
    1   AR   Ar  162   4.707   6.044  -0.348
    1   AR   Ar  163   6.117   4.034  -0.384
    1   AR   Ar  164   2.437   5.614   2.481
    1   AR   Ar  165   4.546   2.416   0.719
    1   AR   Ar  166   3.237   3.257   4.466
    1   AR   Ar  167   4.987   0.371   2.293
    1   AR   Ar  168   5.135   3.913  -1.636
    1   AR   Ar  169   3.410   4.470   2.586
    1   AR   Ar  170   2.108   3.942   6.119
    1   AR   Ar  171   5.558   3.801   4.079
    1   AR   Ar  172   4.469   4.170   5.127
    1   AR   Ar  173   2.956   3.091   6.401
    1   AR   Ar  174   2.036   5.914   6.443
    1   AR   Ar  175   3.632   2.004   6.199
    1   AR   Ar  176   3.990   2.236   4.636
    1   AR   Ar  177   0.137   5.827  -0.911
    1   AR   Ar  178   3.819   5.387  -0.459
    1   AR   Ar  179   3.832   6.297   0.329
    1   AR   Ar  180   2.872   1.342  -3.615
    1   AR   Ar  181   0.630   5.711   1.466
    1   AR   Ar  182   2.183   6.878   2.743
    1   AR   Ar  183   4.206   5.259   2.374
    1   AR   Ar  184   4.856   6.632   0.416
    1   AR   Ar  185   3.018   5.193   5.005
    1   AR   Ar  186   2.856   5.159   3.371
    1   AR   Ar  187   3.325   6.673   3.302
    1   AR   Ar  188   3.049   6.774   2.095
    1   AR   Ar  189   4.543   2.689   6.210
    1   AR   Ar  190   3.540   5.992   4.143
    1   AR   Ar  191   2.692   6.342   7.649
    1   AR   Ar  192   3.987   6.060   5.112
    1   AR   Ar  193   2.957   6.226   1.197
    1   AR   Ar  194   4.331   3.793  -0.784
    1   AR   Ar  195   5.429   1.679   0.278
    1   AR   Ar  196   4.584   1.000   0.014
    1   AR   Ar  197   3.857   1.744   0.627
    1   AR   Ar  198   6.721   1.285   1.373
    1   AR   Ar  199   3.032   0.581   2.647
    1   AR   Ar  200   5.837   2.519  -0.270
    1   AR   Ar  201   5.941   6.075   3.620
    1   AR   Ar  202   5.942   1.091   4.878
    1   AR   Ar  203   6.936   0.211   2.819
    1   AR   Ar  204   5.329   6.076   5.239
    1   AR   Ar  205   6.788   6.331   1.914
    1   AR   Ar  206   5.511   0.178   5.475
    1   AR   Ar  207   0.799   1.773   5.372
    1   AR   Ar  208   0.521   6.072   4.351
    1   AR   Ar  209   6.923   2.638  -1.854
    1   AR   Ar  210   2.552   0.034   0.933
    1   AR   Ar  211   6.934   3.547   0.596
    1   AR   Ar  212   6.329   3.260  -1.110
    1   AR   Ar  213   2.802   0.762   1.667
    1   AR   Ar  214   4.773   2.989   1.642
    1   AR   Ar  215   5.759   3.217   1.717
    1   AR   Ar  216   0.706   2.512   1.709
    1   AR   Ar  217   5.256   2.728   3.926
    1   AR   Ar  218   4.615   3.467   4.514
    1   AR   Ar  219   4.029   2.938   3.613
    1   AR   Ar  220   3.705   3.129   1.333
    1   AR   Ar  221   6.677   5.812   4.237
    1   AR   Ar  222   4.432   7.081   6.809
    1   AR   Ar  223   5.725   2.084   6.647
    1   AR   Ar  224   4.872   2.157   5.271
    1   AR   Ar  225   6.148   2.992   3.357
    1   AR   Ar  226   2.077   3.462   3.830
    1   AR   Ar  227   6.717   3.458   1.694
    1   AR   Ar  228   5.398   6.939   1.526
    1   AR   Ar  229   5.868   5.385  -1.911
    1   AR   Ar  230   4.076   4.358   3.384
    1   AR   Ar  231   5.439   1.677   3.921
    1   AR   Ar  232   5.329   1.868   1.563
    1   AR   Ar  233   6.320   2.206   4.220
    1   AR   Ar  234   6.236   3.172   4.633
    1   AR   Ar  235   6.548   1.119   3.934
    1   AR   Ar  236   4.981   5.208   5.810
    1   AR   Ar  237   5.985   2.956   5.568
    1   AR   Ar  238   5.747   3.939   6.280
    1   AR   Ar  239   6.810   4.477   9.339
    1   AR   Ar  240   6.891   2.493   7.268
    1   AR   Ar  241   1.717   6.745  -0.345
    1   AR   Ar  242   5.321   5.522   0.255
    1   AR   Ar  243   5.161   4.838   3.031
    1   AR   Ar  244   0.397   5.927   0.129
    1   AR   Ar  245   3.970   0.853   1.883
    1   AR   Ar  246   5.669   6.945  -0.139
    1   AR   Ar  247   5.910   3.948   0.753
    1   AR   Ar  248   5.861   5.857  -0.568
    1   AR   Ar  249   4.570   6.259   1.386
    1   AR   Ar  250   4.726   5.454   4.514
    1   AR   Ar  251   4.854   4.452   4.096
    1   AR   Ar  252   3.892   5.703   3.223
    1   AR   Ar  253   6.731   3.754   6.246
    1   AR   Ar  254   1.937   2.525   8.887
    1   AR   Ar  255   3.868   4.857   9.958
    1   AR   Ar  256   6.486   4.878   3.326
    7.12000  7.12000 12.00000
Argon-slab step 3720
  256
    1   AR   Ar    1   4.997   2.106  -2.267
    1   AR   Ar    2   6.011   0.454   0.919
    1   AR   Ar    3   3.802   1.472  -1.273
    1   AR   Ar    4   1.694   0.664  -0.133
    1   AR   Ar    5   6.482   6.319   0.155
    1   AR   Ar    6   0.029   1.289   2.327
    1   AR   Ar    7   5.838   3.976   3.007
    1   AR   Ar    8   4.723   1.063   1.209
    1   AR   Ar    9   0.956   7.049   3.035
    1   AR   Ar   10   0.362   7.026   3.848
    1   AR   Ar   11   1.851   7.024   4.408
    1   AR   Ar   12   0.941   1.340   3.001
    1   AR   Ar   13   0.021   0.401   4.664
    1   AR   Ar   14   5.480   1.751   8.004
    1   AR   Ar   15   4.230   6.325   8.021
    1   AR   Ar   16   0.862   6.768   5.016
    1   AR   Ar   17   6.794   2.217   0.862
    1   AR   Ar   18   6.282   4.857  -0.951
    1   AR   Ar   19   3.739   3.509   0.341
    1   AR   Ar   20   5.619   4.636  -2.546
    1   AR   Ar   21   3.209   1.750   1.523
    1   AR   Ar   22   6.663   1.761   3.074
    1   AR   Ar   23   0.288   0.460   0.726
    1   AR   Ar   24   6.494   2.132   1.990
    1   AR   Ar   25   0.531   1.689   4.415
    1   AR   Ar   26   6.377   7.096   4.121
    1   AR   Ar   27   1.861   0.769   2.579
    1   AR   Ar   28   7.108   2.592   5.024
    1   AR   Ar   29   5.617   3.026   6.762
    1   AR   Ar   30   1.826   1.119   4.036
    1   AR   Ar   31   3.423   0.838   7.507
    1   AR   Ar   32   1.182   2.656   7.002
    1   AR   Ar   33   0.384   4.503   0.361
    1   AR   Ar   34   0.221   5.014   2.490
    1   AR   Ar   35   5.777   5.770   1.273
    1   AR   Ar   36   5.828   1.767  -2.906
    1   AR   Ar   37   5.413   2.270   2.551
    1   AR   Ar   38   6.815   3.831   2.930
    1   AR   Ar   39   0.770   4.064   2.471
    1   AR   Ar   40   1.639   3.719   1.747
    1   AR   Ar   41   0.115   2.321   3.772
    1   AR   Ar   42   5.933   5.260   5.114
    1   AR   Ar   43   7.000   2.378   5.975
    1   AR   Ar   44   0.628   4.441   3.433
    1   AR   Ar   45   0.549   3.288   5.797
    1   AR   Ar   46   0.128   5.064   5.028
    1   AR   Ar   47   5.219   3.980   7.433
    1   AR   Ar   48   6.366   4.275   7.075
    1   AR   Ar   49   5.244   0.514  -0.775
    1   AR   Ar   50   4.278   5.358   0.486
    1   AR   Ar   51   6.702   5.138   1.491
    1   AR   Ar   52   5.964   3.025  -2.104
    1   AR   Ar   53   5.422   5.919   2.391
    1   AR   Ar   54   0.595   6.062   2.402
    1   AR   Ar   55   6.457   5.734   2.731
    1   AR   Ar   56   6.556   0.220   1.782
    1   AR   Ar   57   4.682   3.482   2.733
    1   AR   Ar   58   7.031   3.382   3.901
    1   AR   Ar   59   2.482   4.886   6.123
    1   AR   Ar   60   0.487   5.594   3.340
    1   AR   Ar   61   0.164   4.669   6.582
    1   AR   Ar   62   6.690   4.286   4.333
    1   AR   Ar   63   1.725   1.300   6.124
    1   AR   Ar   64   1.102   5.585   5.308
    1   AR   Ar   65   3.693   7.002   1.099
    1   AR   Ar   66   1.028   1.441   1.793
    1   AR   Ar   67   4.263   0.100  -0.293
    1   AR   Ar   68   1.699   1.791  -1.198
    1   AR   Ar   69   2.612   1.478   0.585
    1   AR   Ar   70   0.597   0.298   1.807
    1   AR   Ar   71   2.831   1.151   3.496
    1   AR   Ar   72   4.114   6.465   2.552
    1   AR   Ar   73   4.155   0.431   3.284
    1   AR   Ar   74   1.021   0.885   4.614
    1   AR   Ar   75   3.389   0.940   4.997
    1   AR   Ar   76   1.585   0.531   1.186
    1   AR   Ar   77   2.199   6.761   5.305
    1   AR   Ar   78   0.276   6.208   5.870
    1   AR   Ar   79   3.794   5.991   6.266
    1   AR   Ar   80   3.964   5.100   5.624
    1   AR   Ar   81   2.626   6.249   0.065
    1   AR   Ar   82   6.688   5.319   0.296
    1   AR   Ar   83   1.314   2.111   0.847
    1   AR   Ar   84   0.428   4.082   1.448
    1   AR   Ar   85   0.989   3.229   0.926
    1   AR   Ar   86   2.171   5.541   1.065
    1   AR   Ar   87   2.076   2.436   1.387
    1   AR   Ar   88   2.316   4.641   1.827
    1   AR   Ar   89   0.211   2.943   2.741
    1   AR   Ar   90   3.062   1.884   4.678
    1   AR   Ar   91   1.562   2.112   3.558
    1   AR   Ar   92   1.595   2.788   2.285
    1   AR   Ar   93   0.739   0.414   5.816
    1   AR   Ar   94   0.041   0.089  11.033
    1   AR   Ar   95   4.354   0.510   5.647
    1   AR   Ar   96   2.884   7.063   4.613
    1   AR   Ar   97   4.237   1.980  -0.269
    1   AR   Ar   98   1.787   4.724   3.019
    1   AR   Ar   99   6.683   1.173   0.289
    1   AR   Ar  100   1.428   3.028  -0.880
    1   AR   Ar  101   3.240   5.304   1.727
    1   AR   Ar  102   3.861   1.488   2.697
    1   AR   Ar  103   1.248   4.880   0.836
    1   AR   Ar  104   3.236   4.050  -1.080
    1   AR   Ar  105   2.433   2.588   4.283
    1   AR   Ar  106   3.683   2.944   5.326
    1   AR   Ar  107   0.955   4.016   4.660
    1   AR   Ar  108   2.160   0.949   4.983
    1   AR   Ar  109   1.630   3.130   5.301
    1   AR   Ar  110   2.674   2.652   5.492
    1   AR   Ar  111   5.236   5.213   7.254
    1   AR   Ar  112   0.782   5.526   6.504
    1   AR   Ar  113   3.547   4.616   0.317
    1   AR   Ar  114   2.827   0.159  -0.430
    1   AR   Ar  115   2.389   4.977   0.108
    1   AR   Ar  116   6.528   0.485  -0.551
    1   AR   Ar  117   1.186   5.277   4.152
    1   AR   Ar  118   1.568   5.746   3.151
    1   AR   Ar  119   2.328   3.701   2.531
    1   AR   Ar  120   1.998   6.424   1.405
    1   AR   Ar  121   5.518   4.084   5.265
    1   AR   Ar  122   2.948   5.837   5.764
    1   AR   Ar  123   3.380   4.088   5.391
    1   AR   Ar  124   1.342   5.288   2.106
    1   AR   Ar  125   6.912   3.804   5.232
    1   AR   Ar  126   6.840   6.524   4.924
    1   AR   Ar  127   4.601   4.041   6.103
    1   AR   Ar  128   3.544   4.402   6.405
    1   AR   Ar  129   2.425   6.089   3.847
    1   AR   Ar  130   4.471   2.259  -3.256
    1   AR   Ar  131   3.505   2.922  -0.776
    1   AR   Ar  132   0.345   2.443  -0.018
    1   AR   Ar  133   4.892   6.258   3.211
    1   AR   Ar  134   4.554   1.356   4.647
    1   AR   Ar  135   6.200   0.906   2.678
    1   AR   Ar  136   6.032   6.896   2.676
    1   AR   Ar  137   2.197   4.747   3.941
    1   AR   Ar  138   4.995   1.402   5.972
    1   AR   Ar  139   5.907   1.900   5.493
    1   AR   Ar  140   4.011   0.071   4.445
    1   AR   Ar  141   3.922   4.793   4.471
    1   AR   Ar  142   3.547   6.883   5.978
    1   AR   Ar  143   6.359   6.719   5.888
    1   AR   Ar  144   6.837   1.531   5.200
    1   AR   Ar  145   4.976   4.746  -0.360
    1   AR   Ar  146   3.036   2.951   2.147
    1   AR   Ar  147   4.664   2.564  -1.366
    1   AR   Ar  148   3.560   6.500  -0.741
    1   AR   Ar  149   2.681   1.953  -0.739
    1   AR   Ar  150   2.626   1.704   2.288
    1   AR   Ar  151   2.380   2.775   2.887
    1   AR   Ar  152   2.329   2.824  -1.305
    1   AR   Ar  153   5.020   0.437   3.874
    1   AR   Ar  154   3.592   1.921   3.639
    1   AR   Ar  155   6.403   4.622   5.798
    1   AR   Ar  156   3.166   3.509   3.306
    1   AR   Ar  157   1.037   4.400   5.966
    1   AR   Ar  158   0.418   1.774   6.855
    1   AR   Ar  159   4.199   1.547   7.440
    1   AR   Ar  160   1.705   1.932   4.724
    1   AR   Ar  161   5.072   4.242   1.935
    1   AR   Ar  162   4.692   6.055  -0.335
    1   AR   Ar  163   6.095   4.045  -0.394
    1   AR   Ar  164   2.448   5.631   2.494
    1   AR   Ar  165   4.562   2.374   0.694
    1   AR   Ar  166   3.252   3.263   4.456
    1   AR   Ar  167   4.981   0.375   2.305
    1   AR   Ar  168   5.139   3.928  -1.635
    1   AR   Ar  169   3.393   4.468   2.584
    1   AR   Ar  170   2.122   3.949   6.104
    1   AR   Ar  171   5.561   3.787   4.080
    1   AR   Ar  172   4.418   4.184   5.152
    1   AR   Ar  173   2.948   3.078   6.392
    1   AR   Ar  174   2.032   5.898   6.460
    1   AR   Ar  175   3.635   1.992   6.172
    1   AR   Ar  176   3.985   2.237   4.640
    1   AR   Ar  177   0.175   5.817  -0.904
    1   AR   Ar  178   3.811   5.385  -0.483
    1   AR   Ar  179   3.819   6.316   0.287
    1   AR   Ar  180   2.901   1.321  -3.626
    1   AR   Ar  181   0.645   5.694   1.500
    1   AR   Ar  182   2.156   6.903   2.756
    1   AR   Ar  183   4.256   5.270   2.340
    1   AR   Ar  184   4.881   6.644   0.430
    1   AR   Ar  185   3.022   5.206   5.003
    1   AR   Ar  186   2.846   5.202   3.403
    1   AR   Ar  187   3.294   6.664   3.296
    1   AR   Ar  188   3.041   6.757   2.070
    1   AR   Ar  189   4.537   2.724   6.196
    1   AR   Ar  190   3.557   6.016   4.132
    1   AR   Ar  191   2.682   6.335   7.641
    1   AR   Ar  192   3.999   6.084   5.101
    1   AR   Ar  193   2.960   6.257   1.217
    1   AR   Ar  194   4.336   3.808  -0.759
    1   AR   Ar  195   5.437   1.684   0.268
    1   AR   Ar  196   4.565   0.993  -0.043
    1   AR   Ar  197   3.871   1.744   0.632
    1   AR   Ar  198   6.752   1.256   1.337
    1   AR   Ar  199   3.069   0.569   2.663
    1   AR   Ar  200   5.827   2.504  -0.279
    1   AR   Ar  201   5.943   6.086   3.606
    1   AR   Ar  202   5.926   1.109   4.869
    1   AR   Ar  203   6.920   0.228   2.808
    1   AR   Ar  204   5.382   6.041   5.273
    1   AR   Ar  205   6.799   6.352   1.909
    1   AR   Ar  206   5.524   0.171   5.472
    1   AR   Ar  207   0.799   1.768   5.388
    1   AR   Ar  208   0.525   6.047   4.382
    1   AR   Ar  209   6.937   2.623  -1.853
    1   AR   Ar  210   2.549   0.020   0.948
    1   AR   Ar  211   6.964   3.551   0.615
    1   AR   Ar  212   6.334   3.272  -1.116
    1   AR   Ar  213   2.780   0.735   1.682
    1   AR   Ar  214   4.772   2.985   1.642
    1   AR   Ar  215   5.742   3.178   1.710
    1   AR   Ar  216   0.708   2.498   1.682
    1   AR   Ar  217   5.260   2.688   3.937
    1   AR   Ar  218   4.609   3.453   4.504
    1   AR   Ar  219   4.006   2.929   3.613
    1   AR   Ar  220   3.711   3.105   1.295
    1   AR   Ar  221   6.689   5.827   4.204
    1   AR   Ar  222   4.471   7.077   6.806
    1   AR   Ar  223   5.714   2.117   6.635
    1   AR   Ar  224   4.863   2.154   5.292
    1   AR   Ar  225   6.161   2.993   3.323
    1   AR   Ar  226   2.057   3.454   3.809
    1   AR   Ar  227   6.714   3.468   1.680
    1   AR   Ar  228   5.422   6.928   1.499
    1   AR   Ar  229   5.850   5.368  -1.908
    1   AR   Ar  230   4.075   4.371   3.383
    1   AR   Ar  231   5.422   1.668   3.891
    1   AR   Ar  232   5.331   1.921   1.560
    1   AR   Ar  233   6.343   2.202   4.223
    1   AR   Ar  234   6.227   3.177   4.610
    1   AR   Ar  235   6.569   1.124   3.966
    1   AR   Ar  236   4.978   5.175   5.785
    1   AR   Ar  237   5.986   2.968   5.548
    1   AR   Ar  238   5.719   3.921   6.298
    1   AR   Ar  239   6.813   4.489   9.346
    1   AR   Ar  240   6.895   2.464   7.271
    1   AR   Ar  241   1.721   6.743  -0.339
    1   AR   Ar  242   5.295   5.531   0.217
    1   AR   Ar  243   5.151   4.839   3.057
    1   AR   Ar  244   0.361   5.905   0.123
    1   AR   Ar  245   3.930   0.856   1.855
    1   AR   Ar  246   5.679   6.966  -0.167
    1   AR   Ar  247   5.913   3.933   0.734
    1   AR   Ar  248   5.887   5.841  -0.591
    1   AR   Ar  249   4.564   6.259   1.376
    1   AR   Ar  250   4.754   5.443   4.530
    1   AR   Ar  251   4.867   4.479   4.121
    1   AR   Ar  252   3.903   5.693   3.201
    1   AR   Ar  253   6.771   3.742   6.251
    1   AR   Ar  254   1.917   2.528   8.889
    1   AR   Ar  255   3.874   4.827   9.940
    1   AR   Ar  256   6.493   4.864   3.333
    7.12000  7.12000 12.00000
Argon-slab step 3725
  256
    1   AR   Ar    1   5.001   2.075  -2.248
    1   AR   Ar    2   5.979   0.438   0.906
    1   AR   Ar    3   3.820   1.475  -1.298
    1   AR   Ar    4   1.710   0.677  -0.131
    1   AR   Ar    5   6.486   6.323   0.154
    1   AR   Ar    6   0.064   1.318   2.330
    1   AR   Ar    7   5.827   3.964   3.004
    1   AR   Ar    8   4.723   1.094   1.202
    1   AR   Ar    9   0.965   7.055   3.032
    1   AR   Ar   10   0.395   7.020   3.866
    1   AR   Ar   11   1.846   7.035   4.406
    1   AR   Ar   12   0.956   1.331   3.010
    1   AR   Ar   13   0.040   0.399   4.645
    1   AR   Ar   14   5.447   1.749   8.010
    1   AR   Ar   15   4.171   6.307   8.021
    1   AR   Ar   16   0.885   6.766   4.992
    1   AR   Ar   17   6.800   2.209   0.896
    1   AR   Ar   18   6.270   4.857  -0.963
    1   AR   Ar   19   3.779   3.524   0.324
    1   AR   Ar   20   5.659   4.593  -2.555
    1   AR   Ar   21   3.187   1.745   1.516
    1   AR   Ar   22   6.665   1.758   3.097
    1   AR   Ar   23   0.298   0.439   0.745
    1   AR   Ar   24   6.437   2.117   1.982
    1   AR   Ar   25   0.529   1.683   4.384
    1   AR   Ar   26   6.372   7.090   4.102
    1   AR   Ar   27   1.885   0.780   2.567
    1   AR   Ar   28   0.019   2.612   4.994
    1   AR   Ar   29   5.620   3.049   6.757
    1   AR   Ar   30   1.831   1.162   4.055
    1   AR   Ar   31   3.443   0.830   7.523
    1   AR   Ar   32   1.157   2.655   7.018
    1   AR   Ar   33   0.376   4.492   0.372
    1   AR   Ar   34   0.201   5.021   2.507
    1   AR   Ar   35   5.766   5.764   1.288
    1   AR   Ar   36   5.821   1.792  -2.901
    1   AR   Ar   37   5.430   2.297   2.574
    1   AR   Ar   38   6.812   3.833   2.946
    1   AR   Ar   39   0.749   4.043   2.535
    1   AR   Ar   40   1.626   3.744   1.731
    1   AR   Ar   41   0.115   2.356   3.777
    1   AR   Ar   42   5.933   5.248   5.097
    1   AR   Ar   43   7.009   2.366   5.988
    1   AR   Ar   44   0.587   4.457   3.456
    1   AR   Ar   45   0.555   3.262   5.834
    1   AR   Ar   46   0.137   5.084   5.010
    1   AR   Ar   47   5.205   3.972   7.415
    1   AR   Ar   48   6.401   4.256   7.068
    1   AR   Ar   49   5.266   0.508  -0.782
    1   AR   Ar   50   4.264   5.356   0.477
    1   AR   Ar   51   6.720   5.115   1.463
    1   AR   Ar   52   5.961   3.037  -2.132
    1   AR   Ar   53   5.421   5.919   2.405
    1   AR   Ar   54   0.587   6.070   2.413
    1   AR   Ar   55   6.459   5.719   2.715
    1   AR   Ar   56   6.558   0.228   1.801
    1   AR   Ar   57   4.650   3.476   2.740
    1   AR   Ar   58   7.066   3.399   3.894
    1   AR   Ar   59   2.490   4.865   6.105
    1   AR   Ar   60   0.486   5.622   3.347
    1   AR   Ar   61   0.179   4.665   6.614
    1   AR   Ar   62   6.714   4.277   4.328
    1   AR   Ar   63   1.723   1.315   6.133
    1   AR   Ar   64   1.072   5.568   5.305
    1   AR   Ar   65   3.744   7.018   1.126
    1   AR   Ar   66   1.070   1.438   1.769
    1   AR   Ar   67   4.250   0.085  -0.264
    1   AR   Ar   68   1.676   1.787  -1.210
    1   AR   Ar   69   2.624   1.514   0.561
    1   AR   Ar   70   0.591   0.296   1.790
    1   AR   Ar   71   2.839   1.148   3.490
    1   AR   Ar   72   4.139   6.489   2.543
    1   AR   Ar   73   4.125   0.441   3.272
    1   AR   Ar   74   1.022   0.864   4.618
    1   AR   Ar   75   3.408   0.905   5.009
    1   AR   Ar   76   1.578   0.543   1.192
    1   AR   Ar   77   2.195   6.775   5.324
    1   AR   Ar   78   0.276   6.230   5.881
    1   AR   Ar   79   3.803   5.975   6.253
    1   AR   Ar   80   3.966   5.148   5.613
    1   AR   Ar   81   2.643   6.250   0.069
    1   AR   Ar   82   6.677   5.286   0.297
    1   AR   Ar   83   1.310   2.138   0.838
    1   AR   Ar   84   0.440   4.059   1.441
    1   AR   Ar   85   0.975   3.228   0.929
    1   AR   Ar   86   2.195   5.551   1.088
    1   AR   Ar   87   2.070   2.456   1.397
    1   AR   Ar   88   2.341   4.688   1.856
    1   AR   Ar   89   0.195   2.930   2.727
    1   AR   Ar   90   3.080   1.891   4.668
    1   AR   Ar   91   1.586   2.104   3.572
    1   AR   Ar   92   1.591   2.761   2.253
    1   AR   Ar   93   0.707   0.409   5.817
    1   AR   Ar   94   0.045   0.064  11.031
    1   AR   Ar   95   4.395   0.502   5.622
    1   AR   Ar   96   2.890   7.068   4.617
    1   AR   Ar   97   4.227   2.023  -0.263
    1   AR   Ar   98   1.761   4.736   3.010
    1   AR   Ar   99   6.676   1.199   0.291
    1   AR   Ar  100   1.415   3.026  -0.858
    1   AR   Ar  101   3.226   5.340   1.740
    1   AR   Ar  102   3.850   1.473   2.698
    1   AR   Ar  103   1.251   4.854   0.821
    1   AR   Ar  104   3.263   4.054  -1.075
    1   AR   Ar  105   2.446   2.609   4.268
    1   AR   Ar  106   3.703   2.941   5.320
    1   AR   Ar  107   0.966   4.018   4.677
    1   AR   Ar  108   2.175   0.948   4.982
    1   AR   Ar  109   1.636   3.100   5.281
    1   AR   Ar  110   2.698   2.640   5.533
    1   AR   Ar  111   5.245   5.236   7.231
    1   AR   Ar  112   0.785   5.482   6.489
    1   AR   Ar  113   3.574   4.605   0.302
    1   AR   Ar  114   2.794   0.186  -0.452
    1   AR   Ar  115   2.398   5.001   0.114
    1   AR   Ar  116   6.492   0.474  -0.517
    1   AR   Ar  117   1.214   5.259   4.178
    1   AR   Ar  118   1.570   5.783   3.156
    1   AR   Ar  119   2.318   3.738   2.505
    1   AR   Ar  120   1.999   6.418   1.433
    1   AR   Ar  121   5.524   4.094   5.274
    1   AR   Ar  122   2.943   5.842   5.781
    1   AR   Ar  123   3.363   4.065   5.347
    1   AR   Ar  124   1.363   5.268   2.089
    1   AR   Ar  125   6.913   3.797   5.217
    1   AR   Ar  126   6.847   6.519   4.931
    1   AR   Ar  127   4.600   4.054   6.123
    1   AR   Ar  128   3.579   4.354   6.391
    1   AR   Ar  129   2.422   6.097   3.852
    1   AR   Ar  130   4.458   2.247  -3.272
    1   AR   Ar  131   3.534   2.897  -0.770
    1   AR   Ar  132   0.321   2.463  -0.035
    1   AR   Ar  133   4.882   6.253   3.182
    1   AR   Ar  134   4.551   1.334   4.632
    1   AR   Ar  135   6.214   0.923   2.685
    1   AR   Ar  136   6.007   6.856   2.623
    1   AR   Ar  137   2.191   4.706   3.959
    1   AR   Ar  138   5.002   1.389   5.989
    1   AR   Ar  139   5.909   1.899   5.529
    1   AR   Ar  140   3.989   0.082   4.439
    1   AR   Ar  141   3.926   4.803   4.485
    1   AR   Ar  142   3.536   6.891   5.981
    1   AR   Ar  143   6.387   6.700   5.905
    1   AR   Ar  144   6.830   1.529   5.206
    1   AR   Ar  145   4.968   4.763  -0.382
    1   AR   Ar  146   3.033   2.947   2.127
    1   AR   Ar  147   4.684   2.551  -1.373
    1   AR   Ar  148   3.545   6.527  -0.752
    1   AR   Ar  149   2.677   1.928  -0.770
    1   AR   Ar  150   2.592   1.676   2.303
    1   AR   Ar  151   2.366   2.749   2.873
    1   AR   Ar  152   2.309   2.818  -1.324
    1   AR   Ar  153   5.003   0.460   3.867
    1   AR   Ar  154   3.615   1.941   3.656
    1   AR   Ar  155   6.392   4.594   5.777
    1   AR   Ar  156   3.146   3.556   3.329
    1   AR   Ar  157   1.037   4.405   5.976
    1   AR   Ar  158   0.391   1.770   6.837
    1   AR   Ar  159   4.188   1.533   7.441
    1   AR   Ar  160   1.730   1.946   4.693
    1   AR   Ar  161   5.083   4.236   1.934
    1   AR   Ar  162   4.667   6.068  -0.341
    1   AR   Ar  163   6.077   4.047  -0.400
    1   AR   Ar  164   2.458   5.649   2.504
    1   AR   Ar  165   4.598   2.351   0.672
    1   AR   Ar  166   3.267   3.272   4.440
    1   AR   Ar  167   4.974   0.379   2.319
    1   AR   Ar  168   5.144   3.943  -1.632
    1   AR   Ar  169   3.373   4.468   2.580
    1   AR   Ar  170   2.133   3.946   6.088
    1   AR   Ar  171   5.573   3.766   4.078
    1   AR   Ar  172   4.366   4.207   5.174
    1   AR   Ar  173   2.941   3.067   6.386
    1   AR   Ar  174   2.027   5.883   6.477
    1   AR   Ar  175   3.640   1.981   6.145
    1   AR   Ar  176   3.990   2.244   4.640
    1   AR   Ar  177   0.210   5.806  -0.900
    1   AR   Ar  178   3.803   5.383  -0.506
    1   AR   Ar  179   3.805   6.335   0.247
    1   AR   Ar  180   2.930   1.300  -3.637
    1   AR   Ar  181   0.655   5.673   1.516
    1   AR   Ar  182   2.162   6.924   2.751
    1   AR   Ar  183   4.308   5.278   2.301
    1   AR   Ar  184   4.908   6.663   0.456
    1   AR   Ar  185   3.028   5.212   4.992
    1   AR   Ar  186   2.852   5.252   3.423
    1   AR   Ar  187   3.261   6.656   3.288
    1   AR   Ar  188   3.035   6.745   2.054
    1   AR   Ar  189   4.532   2.759   6.182
    1   AR   Ar  190   3.572   6.039   4.124
    1   AR   Ar  191   2.671   6.327   7.632
    1   AR   Ar  192   4.011   6.107   5.094
    1   AR   Ar  193   2.974   6.272   1.228
    1   AR   Ar  194   4.340   3.824  -0.734
    1   AR   Ar  195   5.443   1.685   0.261
    1   AR   Ar  196   4.575   0.982  -0.024
    1   AR   Ar  197   3.862   1.723   0.644
    1   AR   Ar  198   6.782   1.224   1.303
    1   AR   Ar  199   3.107   0.554   2.680
    1   AR   Ar  200   5.818   2.491  -0.289
    1   AR   Ar  201   5.937   6.101   3.586
    1   AR   Ar  202   5.906   1.121   4.853
    1   AR   Ar  203   6.937   0.234   2.825
    1   AR   Ar  204   5.420   6.044   5.299
    1   AR   Ar  205   6.810   6.367   1.903
    1   AR   Ar  206   5.536   0.165   5.468
    1   AR   Ar  207   0.800   1.764   5.413
    1   AR   Ar  208   0.512   6.050   4.388
    1   AR   Ar  209   6.952   2.608  -1.852
    1   AR   Ar  210   2.548   0.014   0.955
    1   AR   Ar  211   6.995   3.553   0.633
    1   AR   Ar  212   6.338   3.282  -1.122
    1   AR   Ar  213   2.767   0.705   1.722
    1   AR   Ar  214   4.761   2.978   1.642
    1   AR   Ar  215   5.728   3.138   1.706
    1   AR   Ar  216   0.707   2.484   1.656
    1   AR   Ar  217   5.263   2.654   3.948
    1   AR   Ar  218   4.607   3.447   4.533
    1   AR   Ar  219   3.986   2.920   3.615
    1   AR   Ar  220   3.718   3.078   1.261
    1   AR   Ar  221   6.699   5.830   4.170
    1   AR   Ar  222   4.509   7.073   6.801
    1   AR   Ar  223   5.706   2.117   6.616
    1   AR   Ar  224   4.851   2.155   5.320
    1   AR   Ar  225   6.174   2.991   3.291
    1   AR   Ar  226   2.037   3.448   3.784
    1   AR   Ar  227   6.717   3.479   1.669
    1   AR   Ar  228   5.419   6.930   1.498
    1   AR   Ar  229   5.835   5.357  -1.898
    1   AR   Ar  230   4.050   4.348   3.398
    1   AR   Ar  231   5.414   1.670   3.880
    1   AR   Ar  232   5.334   1.974   1.553
    1   AR   Ar  233   6.360   2.195   4.230
    1   AR   Ar  234   6.201   3.162   4.626
    1   AR   Ar  235   6.591   1.128   3.999
    1   AR   Ar  236   4.986   5.136   5.760
    1   AR   Ar  237   5.993   2.958   5.568
    1   AR   Ar  238   5.742   3.911   6.311
    1   AR   Ar  239   6.816   4.502   9.352
    1   AR   Ar  240   6.896   2.438   7.274
    1   AR   Ar  241   1.726   6.739  -0.333
    1   AR   Ar  242   5.281   5.536   0.195
    1   AR   Ar  243   5.140   4.842   3.083
    1   AR   Ar  244   0.333   5.886   0.119
    1   AR   Ar  245   3.885   0.855   1.827
    1   AR   Ar  246   5.693   6.983  -0.190
    1   AR   Ar  247   5.916   3.918   0.716
    1   AR   Ar  248   5.913   5.825  -0.617
    1   AR   Ar  249   4.557   6.256   1.368
    1   AR   Ar  250   4.784   5.436   4.549
    1   AR   Ar  251   4.874   4.512   4.146
    1   AR   Ar  252   3.910   5.680   3.185
    1   AR   Ar  253   6.814   3.725   6.260
    1   AR   Ar  254   1.898   2.531   8.891
    1   AR   Ar  255   3.879   4.797   9.921
    1   AR   Ar  256   6.500   4.848   3.342
    7.12000  7.12000 12.00000
Argon-slab step 3730
  256
    1   AR   Ar    1   5.005   2.044  -2.231
    1   AR   Ar    2   5.950   0.426   0.888
    1   AR   Ar    3   3.823   1.492  -1.322
    1   AR   Ar    4   1.727   0.692  -0.128
    1   AR   Ar    5   6.488   6.330   0.155
    1   AR   Ar    6   0.101   1.344   2.328
    1   AR   Ar    7   5.805   3.955   3.001
    1   AR   Ar    8   4.724   1.124   1.193
    1   AR   Ar    9   0.979   7.061   3.022
    1   AR   Ar   10   0.422   7.027   3.864
    1   AR   Ar   11   1.835   7.048   4.398
    1   AR   Ar   12   0.927   1.317   3.014
    1   AR   Ar   13   0.058   0.405   4.637
    1   AR   Ar   14   5.415   1.746   8.016
    1   AR   Ar   15   4.112   6.289   8.020
    1   AR   Ar   16   0.911   6.770   4.972
    1   AR   Ar   17   6.807   2.204   0.929
    1   AR   Ar   18   6.259   4.863  -0.980
    1   AR   Ar   19   3.819   3.540   0.301
    1   AR   Ar   20   5.697   4.545  -2.566
    1   AR   Ar   21   3.173   1.741   1.501
    1   AR   Ar   22   6.666   1.761   3.125
    1   AR   Ar   23   0.306   0.420   0.764
    1   AR   Ar   24   6.379   2.102   1.975
    1   AR   Ar   25   0.522   1.682   4.355
    1   AR   Ar   26   6.372   7.085   4.084
    1   AR   Ar   27   1.908   0.796   2.554
    1   AR   Ar   28   0.050   2.633   4.957
    1   AR   Ar   29   5.620   3.085   6.761
    1   AR   Ar   30   1.838   1.201   4.060
    1   AR   Ar   31   3.459   0.818   7.539
    1   AR   Ar   32   1.131   2.654   7.034
    1   AR   Ar   33   0.364   4.480   0.384
    1   AR   Ar   34   0.181   5.026   2.521
    1   AR   Ar   35   5.754   5.759   1.302
    1   AR   Ar   36   5.814   1.817  -2.897
    1   AR   Ar   37   5.449   2.327   2.599
    1   AR   Ar   38   6.819   3.837   2.961
    1   AR   Ar   39   0.729   4.018   2.593
    1   AR   Ar   40   1.604   3.768   1.728
    1   AR   Ar   41   0.120   2.398   3.772
    1   AR   Ar   42   5.946   5.251   5.087
    1   AR   Ar   43   7.015   2.353   6.006
    1   AR   Ar   44   0.543   4.476   3.486
    1   AR   Ar   45   0.565   3.235   5.870
    1   AR   Ar   46   0.145   5.104   4.990
    1   AR   Ar   47   5.193   3.965   7.394
    1   AR   Ar   48   6.434   4.239   7.064
    1   AR   Ar   49   5.262   0.495  -0.817
    1   AR   Ar   50   4.254   5.358   0.470
    1   AR   Ar   51   6.739   5.093   1.436
    1   AR   Ar   52   5.955   3.050  -2.160
    1   AR   Ar   53   5.435   5.921   2.405
    1   AR   Ar   54   0.580   6.084   2.434
    1   AR   Ar   55   6.463   5.705   2.697
    1   AR   Ar   56   6.558   0.243   1.820
    1   AR   Ar   57   4.618   3.472   2.747
    1   AR   Ar   58   7.099   3.395   3.876
    1   AR   Ar   59   2.500   4.850   6.099
    1   AR   Ar   60   0.484   5.649   3.360
    1   AR   Ar   61   0.190   4.657   6.646
    1   AR   Ar   62   6.744   4.254   4.321
    1   AR   Ar   63   1.721   1.331   6.140
    1   AR   Ar   64   1.042   5.552   5.303
    1   AR   Ar   65   3.796   7.036   1.155
    1   AR   Ar   66   1.112   1.434   1.745
    1   AR   Ar   67   4.235   0.059  -0.238
    1   AR   Ar   68   1.653   1.784  -1.222
    1   AR   Ar   69   2.635   1.550   0.537
    1   AR   Ar   70   0.583   0.296   1.776
    1   AR   Ar   71   2.845   1.149   3.486
    1   AR   Ar   72   4.169   6.496   2.545
    1   AR   Ar   73   4.140   0.426   3.259
    1   AR   Ar   74   1.027   0.830   4.629
    1   AR   Ar   75   3.428   0.869   5.021
    1   AR   Ar   76   1.572   0.555   1.199
    1   AR   Ar   77   2.190   6.784   5.352
    1   AR   Ar   78   0.277   6.252   5.889
    1   AR   Ar   79   3.825   5.953   6.248
    1   AR   Ar   80   3.954   5.160   5.611
    1   AR   Ar   81   2.662   6.252   0.076
    1   AR   Ar   82   6.659   5.244   0.300
    1   AR   Ar   83   1.299   2.161   0.822
    1   AR   Ar   84   0.457   4.039   1.435
    1   AR   Ar   85   0.961   3.229   0.932
    1   AR   Ar   86   2.223   5.540   1.105
    1   AR   Ar   87   2.075   2.477   1.410
    1   AR   Ar   88   2.377   4.710   1.861
    1   AR   Ar   89   0.179   2.914   2.712
    1   AR   Ar   90   3.087   1.885   4.662
    1   AR   Ar   91   1.610   2.097   3.585
    1   AR   Ar   92   1.577   2.735   2.220
    1   AR   Ar   93   0.675   0.404   5.815
    1   AR   Ar   94   0.049   0.038  11.029
    1   AR   Ar   95   4.436   0.493   5.595
    1   AR   Ar   96   2.955   7.050   4.608
    1   AR   Ar   97   4.218   2.067  -0.267
    1   AR   Ar   98   1.732   4.746   2.997
    1   AR   Ar   99   6.668   1.226   0.289
    1   AR   Ar  100   1.397   3.024  -0.833
    1   AR   Ar  101   3.213   5.376   1.754
    1   AR   Ar  102   3.837   1.457   2.700
    1   AR   Ar  103   1.258   4.829   0.809
    1   AR   Ar  104   3.291   4.056  -1.069
    1   AR   Ar  105   2.440   2.582   4.248
    1   AR   Ar  106   3.726   2.942   5.323
    1   AR   Ar  107   0.970   4.004   4.685
    1   AR   Ar  108   2.180   0.943   4.982
    1   AR   Ar  109   1.642   3.069   5.261
    1   AR   Ar  110   2.717   2.621   5.561
    1   AR   Ar  111   5.254   5.258   7.206
    1   AR   Ar  112   0.793   5.442   6.473
    1   AR   Ar  113   3.589   4.612   0.303
    1   AR   Ar  114   2.761   0.213  -0.472
    1   AR   Ar  115   2.408   5.026   0.122
    1   AR   Ar  116   6.457   0.464  -0.484
    1   AR   Ar  117   1.229   5.256   4.176
    1   AR   Ar  118   1.571   5.821   3.162
    1   AR   Ar  119   2.310   3.778   2.481
    1   AR   Ar  120   1.986   6.428   1.474
    1   AR   Ar  121   5.512   4.087   5.284
    1   AR   Ar  122   2.928   5.851   5.798
    1   AR   Ar  123   3.341   4.042   5.304
    1   AR   Ar  124   1.392   5.243   2.077
    1   AR   Ar  125   6.916   3.788   5.203
    1   AR   Ar  126   6.854   6.517   4.942
    1   AR   Ar  127   4.594   4.049   6.144
    1   AR   Ar  128   3.603   4.328   6.376
    1   AR   Ar  129   2.411   6.105   3.849
    1   AR   Ar  130   4.432   2.259  -3.293
    1   AR   Ar  131   3.565   2.873  -0.763
    1   AR   Ar  132   0.298   2.483  -0.051
    1   AR   Ar  133   4.872   6.246   3.154
    1   AR   Ar  134   4.549   1.307   4.617
    1   AR   Ar  135   6.219   0.941   2.688
    1   AR   Ar  136   5.978   6.814   2.571
    1   AR   Ar  137   2.180   4.660   3.986
    1   AR   Ar  138   5.010   1.372   6.008
    1   AR   Ar  139   5.910   1.901   5.568
    1   AR   Ar  140   3.967   0.093   4.433
    1   AR   Ar  141   3.933   4.827   4.501
    1   AR   Ar  142   3.523   6.910   5.979
    1   AR   Ar  143   6.414   6.681   5.922
    1   AR   Ar  144   6.829   1.527   5.210
    1   AR   Ar  145   4.957   4.774  -0.408
    1   AR   Ar  146   3.033   2.944   2.102
    1   AR   Ar  147   4.701   2.540  -1.376
    1   AR   Ar  148   3.529   6.552  -0.766
    1   AR   Ar  149   2.675   1.902  -0.800
    1   AR   Ar  150   2.565   1.711   2.286
    1   AR   Ar  151   2.356   2.719   2.874
    1   AR   Ar  152   2.294   2.810  -1.346
    1   AR   Ar  153   4.988   0.475   3.862
    1   AR   Ar  154   3.635   1.957   3.674
    1   AR   Ar  155   6.381   4.568   5.757
    1   AR   Ar  156   3.125   3.604   3.350
    1   AR   Ar  157   1.042   4.413   5.975
    1   AR   Ar  158   0.369   1.762   6.814
    1   AR   Ar  159   4.192   1.518   7.456
    1   AR   Ar  160   1.751   1.964   4.668
    1   AR   Ar  161   5.090   4.238   1.959
    1   AR   Ar  162   4.632   6.086  -0.360
    1   AR   Ar  163   6.083   4.027  -0.411
    1   AR   Ar  164   2.468   5.669   2.511
    1   AR   Ar  165   4.649   2.339   0.654
    1   AR   Ar  166   3.280   3.276   4.431
    1   AR   Ar  167   4.966   0.383   2.334
    1   AR   Ar  168   5.151   3.957  -1.630
    1   AR   Ar  169   3.350   4.469   2.574
    1   AR   Ar  170   2.140   3.931   6.071
    1   AR   Ar  171   5.568   3.748   4.062
    1   AR   Ar  172   4.320   4.232   5.192
    1   AR   Ar  173   2.939   3.063   6.389
    1   AR   Ar  174   2.023   5.866   6.492
    1   AR   Ar  175   3.644   1.972   6.115
    1   AR   Ar  176   4.008   2.255   4.634
    1   AR   Ar  177   0.243   5.794  -0.899
    1   AR   Ar  178   3.793   5.382  -0.530
    1   AR   Ar  179   3.790   6.353   0.211
    1   AR   Ar  180   2.960   1.279  -3.648
    1   AR   Ar  181   0.658   5.650   1.514
    1   AR   Ar  182   2.170   6.940   2.747
    1   AR   Ar  183   4.361   5.286   2.261
    1   AR   Ar  184   4.935   6.685   0.487
    1   AR   Ar  185   3.035   5.213   4.976
    1   AR   Ar  186   2.866   5.303   3.438
    1   AR   Ar  187   3.227   6.650   3.278
    1   AR   Ar  188   3.029   6.743   2.055
    1   AR   Ar  189   4.527   2.795   6.167
    1   AR   Ar  190   3.584   6.062   4.117
    1   AR   Ar  191   2.661   6.319   7.622
    1   AR   Ar  192   4.021   6.128   5.092
    1   AR   Ar  193   3.000   6.268   1.220
    1   AR   Ar  194   4.344   3.839  -0.709
    1   AR   Ar  195   5.446   1.683   0.258
    1   AR   Ar  196   4.589   0.983   0.001
    1   AR   Ar  197   3.839   1.688   0.661
    1   AR   Ar  198   6.780   1.192   1.290
    1   AR   Ar  199   3.149   0.536   2.699
    1   AR   Ar  200   5.810   2.482  -0.302
    1   AR   Ar  201   5.923   6.119   3.560
    1   AR   Ar  202   5.883   1.128   4.833
    1   AR   Ar  203   6.963   0.236   2.844
    1   AR   Ar  204   5.447   6.069   5.325
    1   AR   Ar  205   6.821   6.377   1.896
    1   AR   Ar  206   5.547   0.160   5.463
    1   AR   Ar  207   0.803   1.759   5.439
    1   AR   Ar  208   0.510   6.049   4.392
    1   AR   Ar  209   6.966   2.594  -1.850
    1   AR   Ar  210   2.547   0.018   0.953
    1   AR   Ar  211   7.026   3.553   0.650
    1   AR   Ar  212   6.343   3.291  -1.127
    1   AR   Ar  213   2.753   0.678   1.760
    1   AR   Ar  214   4.738   2.969   1.642
    1   AR   Ar  215   5.723   3.099   1.703
    1   AR   Ar  216   0.703   2.470   1.633
    1   AR   Ar  217   5.265   2.631   3.961
    1   AR   Ar  218   4.606   3.440   4.570
    1   AR   Ar  219   3.970   2.916   3.619
    1   AR   Ar  220   3.724   3.047   1.229
    1   AR   Ar  221   6.704   5.825   4.136
    1   AR   Ar  222   4.545   7.069   6.795
    1   AR   Ar  223   5.700   2.093   6.592
    1   AR   Ar  224   4.838   2.161   5.343
    1   AR   Ar  225   6.188   2.986   3.260
    1   AR   Ar  226   2.017   3.446   3.757
    1   AR   Ar  227   6.720   3.487   1.660
    1   AR   Ar  228   5.415   6.927   1.500
    1   AR   Ar  229   5.820   5.351  -1.881
    1   AR   Ar  230   4.028   4.325   3.414
    1   AR   Ar  231   5.418   1.684   3.900
    1   AR   Ar  232   5.337   2.027   1.543
    1   AR   Ar  233   6.369   2.184   4.241
    1   AR   Ar  234   6.180   3.149   4.633
    1   AR   Ar  235   6.614   1.132   4.031
    1   AR   Ar  236   4.998   5.093   5.733
    1   AR   Ar  237   5.998   2.948   5.600
    1   AR   Ar  238   5.778   3.912   6.317
    1   AR   Ar  239   6.819   4.514   9.358
    1   AR   Ar  240   6.891   2.418   7.278
    1   AR   Ar  241   1.732   6.734  -0.327
    1   AR   Ar  242   5.281   5.541   0.187
    1   AR   Ar  243   5.128   4.845   3.108
    1   AR   Ar  244   0.317   5.873   0.120
    1   AR   Ar  245   3.839   0.851   1.799
    1   AR   Ar  246   5.712   6.988  -0.205
    1   AR   Ar  247   5.919   3.902   0.700
    1   AR   Ar  248   5.938   5.810  -0.645
    1   AR   Ar  249   4.548   6.251   1.363
    1   AR   Ar  250   4.815   5.437   4.573
    1   AR   Ar  251   4.881   4.541   4.168
    1   AR   Ar  252   3.916   5.664   3.171
    1   AR   Ar  253   6.857   3.703   6.270
    1   AR   Ar  254   1.926   2.520   8.871
    1   AR   Ar  255   3.885   4.767   9.903
    1   AR   Ar  256   6.509   4.831   3.353
    7.12000  7.12000 12.00000
Argon-slab step 3735
  256
    1   AR   Ar    1   5.010   2.011  -2.217
    1   AR   Ar    2   5.924   0.419   0.865
    1   AR   Ar    3   3.817   1.518  -1.345
    1   AR   Ar    4   1.746   0.708  -0.124
    1   AR   Ar    5   6.487   6.339   0.156
    1   AR   Ar    6   0.139   1.367   2.322
    1   AR   Ar    7   5.775   3.948   2.996
    1   AR   Ar    8   4.726   1.156   1.182
    1   AR   Ar    9   0.998   7.068   3.004
    1   AR   Ar   10   0.448   7.032   3.854
    1   AR   Ar   11   1.823   7.064   4.385
    1   AR   Ar   12   0.890   1.301   3.017
    1   AR   Ar   13   0.072   0.417   4.641
    1   AR   Ar   14   5.381   1.744   8.020
    1   AR   Ar   15   4.052   6.272   8.019
    1   AR   Ar   16   0.938   6.781   4.956
    1   AR   Ar   17   6.814   2.201   0.962
    1   AR   Ar   18   6.251   4.871  -0.999
    1   AR   Ar   19   3.861   3.555   0.274
    1   AR   Ar   20   5.735   4.494  -2.578
    1   AR   Ar   21   3.164   1.738   1.479
    1   AR   Ar   22   6.665   1.771   3.156
    1   AR   Ar   23   0.313   0.401   0.781
    1   AR   Ar   24   6.322   2.087   1.969
    1   AR   Ar   25   0.515   1.679   4.328
    1   AR   Ar   26   6.379   7.083   4.072
    1   AR   Ar   27   1.930   0.818   2.540
    1   AR   Ar   28   0.080   2.654   4.919
    1   AR   Ar   29   5.615   3.111   6.775
    1   AR   Ar   30   1.848   1.229   4.051
    1   AR   Ar   31   3.471   0.801   7.556
    1   AR   Ar   32   1.104   2.653   7.049
    1   AR   Ar   33   0.350   4.470   0.394
    1   AR   Ar   34   0.163   5.029   2.534
    1   AR   Ar   35   5.742   5.755   1.317
    1   AR   Ar   36   5.809   1.843  -2.893
    1   AR   Ar   37   5.469   2.358   2.625
    1   AR   Ar   38   6.831   3.845   2.973
    1   AR   Ar   39   0.712   3.991   2.644
    1   AR   Ar   40   1.577   3.792   1.723
    1   AR   Ar   41   0.130   2.441   3.760
    1   AR   Ar   42   5.964   5.253   5.075
    1   AR   Ar   43   7.020   2.339   6.025
    1   AR   Ar   44   0.497   4.499   3.522
    1   AR   Ar   45   0.578   3.207   5.902
    1   AR   Ar   46   0.148   5.122   4.969
    1   AR   Ar   47   5.183   3.958   7.371
    1   AR   Ar   48   6.464   4.224   7.066
    1   AR   Ar   49   5.251   0.489  -0.857
    1   AR   Ar   50   4.248   5.367   0.465
    1   AR   Ar   51   6.755   5.052   1.442
    1   AR   Ar   52   5.949   3.062  -2.187
    1   AR   Ar   53   5.452   5.917   2.397
    1   AR   Ar   54   0.576   6.103   2.458
    1   AR   Ar   55   6.469   5.692   2.679
    1   AR   Ar   56   6.558   0.265   1.837
    1   AR   Ar   57   4.587   3.467   2.755
    1   AR   Ar   58   0.014   3.393   3.861
    1   AR   Ar   59   2.503   4.835   6.116
    1   AR   Ar   60   0.480   5.673   3.378
    1   AR   Ar   61   0.198   4.644   6.676
    1   AR   Ar   62   6.765   4.242   4.325
    1   AR   Ar   63   1.717   1.347   6.146
    1   AR   Ar   64   1.014   5.538   5.301
    1   AR   Ar   65   3.847   7.055   1.183
    1   AR   Ar   66   1.154   1.430   1.722
    1   AR   Ar   67   4.221   0.031  -0.214
    1   AR   Ar   68   1.659   1.767  -1.194
    1   AR   Ar   69   2.647   1.586   0.514
    1   AR   Ar   70   0.576   0.296   1.766
    1   AR   Ar   71   2.850   1.152   3.485
    1   AR   Ar   72   4.192   6.502   2.537
    1   AR   Ar   73   4.182   0.393   3.245
    1   AR   Ar   74   1.036   0.792   4.644
    1   AR   Ar   75   3.448   0.833   5.033
    1   AR   Ar   76   1.565   0.567   1.206
    1   AR   Ar   77   2.183   6.780   5.377
    1   AR   Ar   78   0.281   6.274   5.895
    1   AR   Ar   79   3.855   5.932   6.251
    1   AR   Ar   80   3.926   5.121   5.623
    1   AR   Ar   81   2.682   6.255   0.084
    1   AR   Ar   82   6.633   5.197   0.304
    1   AR   Ar   83   1.302   2.163   0.810
    1   AR   Ar   84   0.478   4.025   1.430
    1   AR   Ar   85   0.947   3.229   0.932
    1   AR   Ar   86   2.230   5.527   1.094
    1   AR   Ar   87   2.092   2.496   1.418
    1   AR   Ar   88   2.415   4.725   1.860
    1   AR   Ar   89   0.163   2.897   2.696
    1   AR   Ar   90   3.087   1.849   4.663
    1   AR   Ar   91   1.633   2.095   3.595
    1   AR   Ar   92   1.553   2.714   2.193
    1   AR   Ar   93   0.643   0.400   5.811
    1   AR   Ar   94   0.053   0.013  11.027
    1   AR   Ar   95   4.476   0.485   5.568
    1   AR   Ar   96   3.015   7.031   4.598
    1   AR   Ar   97   4.209   2.111  -0.276
    1   AR   Ar   98   1.704   4.755   2.982
    1   AR   Ar   99   6.658   1.254   0.280
    1   AR   Ar  100   1.377   3.022  -0.807
    1   AR   Ar  101   3.202   5.411   1.769
    1   AR   Ar  102   3.823   1.440   2.703
    1   AR   Ar  103   1.268   4.806   0.801
    1   AR   Ar  104   3.319   4.058  -1.061
    1   AR   Ar  105   2.437   2.560   4.224
    1   AR   Ar  106   3.751   2.947   5.335
    1   AR   Ar  107   0.970   3.979   4.687
    1   AR   Ar  108   2.180   0.935   4.985
    1   AR   Ar  109   1.648   3.039   5.241
    1   AR   Ar  110   2.731   2.594   5.573
    1   AR   Ar  111   5.263   5.279   7.181
    1   AR   Ar  112   0.806   5.408   6.454
    1   AR   Ar  113   3.598   4.615   0.302
    1   AR   Ar  114   2.727   0.238  -0.490
    1   AR   Ar  115   2.418   5.051   0.130
    1   AR   Ar  116   6.429   0.460  -0.453
    1   AR   Ar  117   1.240   5.257   4.166
    1   AR   Ar  118   1.571   5.844   3.169
    1   AR   Ar  119   2.306   3.818   2.463
    1   AR   Ar  120   1.992   6.405   1.456
    1   AR   Ar  121   5.498   4.081   5.291
    1   AR   Ar  122   2.907   5.862   5.813
    1   AR   Ar  123   3.311   4.018   5.261
    1   AR   Ar  124   1.425   5.216   2.070
    1   AR   Ar  125   6.920   3.773   5.192
    1   AR   Ar  126   6.860   6.516   4.955
    1   AR   Ar  127   4.591   4.038   6.168
    1   AR   Ar  128   3.583   4.388   6.353
    1   AR   Ar  129   2.388   6.116   3.837
    1   AR   Ar  130   4.404   2.277  -3.314
    1   AR   Ar  131   3.596   2.849  -0.756
    1   AR   Ar  132   0.300   2.488  -0.056
    1   AR   Ar  133   4.872   6.240   3.139
    1   AR   Ar  134   4.548   1.279   4.603
    1   AR   Ar  135   6.219   0.958   2.688
    1   AR   Ar  136   5.951   6.774   2.520
    1   AR   Ar  137   2.169   4.613   4.014
    1   AR   Ar  138   5.018   1.353   6.029
    1   AR   Ar  139   5.908   1.903   5.607
    1   AR   Ar  140   3.951   0.097   4.424
    1   AR   Ar  141   3.921   4.849   4.476
    1   AR   Ar  142   3.509   6.932   5.975
    1   AR   Ar  143   6.439   6.662   5.938
    1   AR   Ar  144   6.832   1.526   5.210
    1   AR   Ar  145   4.944   4.782  -0.438
    1   AR   Ar  146   3.034   2.940   2.076
    1   AR   Ar  147   4.716   2.532  -1.374
    1   AR   Ar  148   3.511   6.576  -0.784
    1   AR   Ar  149   2.675   1.876  -0.829
    1   AR   Ar  150   2.531   1.745   2.278
    1   AR   Ar  151   2.350   2.687   2.883
    1   AR   Ar  152   2.282   2.800  -1.368
    1   AR   Ar  153   4.979   0.457   3.860
    1   AR   Ar  154   3.652   1.967   3.692
    1   AR   Ar  155   6.374   4.563   5.752
    1   AR   Ar  156   3.101   3.652   3.370
    1   AR   Ar  157   1.055   4.426   5.958
    1   AR   Ar  158   0.353   1.747   6.786
    1   AR   Ar  159   4.192   1.504   7.474
    1   AR   Ar  160   1.766   1.988   4.657
    1   AR   Ar  161   5.095   4.240   1.991
    1   AR   Ar  162   4.595   6.107  -0.387
    1   AR   Ar  163   6.088   4.017  -0.424
    1   AR   Ar  164   2.476   5.689   2.517
    1   AR   Ar  165   4.705   2.332   0.641
    1   AR   Ar  166   3.281   3.254   4.455
    1   AR   Ar  167   4.961   0.374   2.343
    1   AR   Ar  168   5.158   3.971  -1.626
    1   AR   Ar  169   3.325   4.471   2.567
    1   AR   Ar  170   2.142   3.904   6.052
    1   AR   Ar  171   5.549   3.734   4.036
    1   AR   Ar  172   4.285   4.257   5.210
    1   AR   Ar  173   2.941   3.068   6.405
    1   AR   Ar  174   2.018   5.849   6.506
    1   AR   Ar  175   3.650   1.965   6.083
    1   AR   Ar  176   4.020   2.259   4.654
    1   AR   Ar  177   0.274   5.781  -0.904
    1   AR   Ar  178   3.784   5.382  -0.553
    1   AR   Ar  179   3.771   6.367   0.186
    1   AR   Ar  180   2.989   1.257  -3.658
    1   AR   Ar  181   0.654   5.627   1.502
    1   AR   Ar  182   2.181   6.949   2.744
    1   AR   Ar  183   4.415   5.294   2.219
    1   AR   Ar  184   4.962   6.708   0.517
    1   AR   Ar  185   3.042   5.212   4.958
    1   AR   Ar  186   2.886   5.347   3.449
    1   AR   Ar  187   3.194   6.644   3.266
    1   AR   Ar  188   3.025   6.749   2.072
    1   AR   Ar  189   4.522   2.832   6.153
    1   AR   Ar  190   3.595   6.084   4.112
    1   AR   Ar  191   2.652   6.312   7.611
    1   AR   Ar  192   4.023   6.134   5.104
    1   AR   Ar  193   3.032   6.252   1.195
    1   AR   Ar  194   4.347   3.853  -0.683
    1   AR   Ar  195   5.449   1.676   0.258
    1   AR   Ar  196   4.606   0.991   0.029
    1   AR   Ar  197   3.812   1.648   0.679
    1   AR   Ar  198   6.769   1.158   1.290
    1   AR   Ar  199   3.194   0.515   2.719
    1   AR   Ar  200   5.804   2.477  -0.317
    1   AR   Ar  201   5.902   6.141   3.529
    1   AR   Ar  202   5.858   1.133   4.811
    1   AR   Ar  203   6.995   0.235   2.864
    1   AR   Ar  204   5.468   6.104   5.355
    1   AR   Ar  205   6.832   6.382   1.889
    1   AR   Ar  206   5.557   0.155   5.457
    1   AR   Ar  207   0.805   1.755   5.466
    1   AR   Ar  208   0.517   6.045   4.395
    1   AR   Ar  209   6.979   2.580  -1.848
    1   AR   Ar  210   2.546   0.028   0.945
    1   AR   Ar  211   7.056   3.550   0.663
    1   AR   Ar  212   6.347   3.298  -1.134
    1   AR   Ar  213   2.735   0.654   1.795
    1   AR   Ar  214   4.706   2.959   1.643
    1   AR   Ar  215   5.727   3.059   1.701
    1   AR   Ar  216   0.694   2.456   1.613
    1   AR   Ar  217   5.266   2.628   3.976
    1   AR   Ar  218   4.605   3.430   4.605
    1   AR   Ar  219   3.958   2.918   3.623
    1   AR   Ar  220   3.731   3.015   1.200
    1   AR   Ar  221   6.704   5.812   4.100
    1   AR   Ar  222   4.581   7.065   6.787
    1   AR   Ar  223   5.695   2.062   6.569
    1   AR   Ar  224   4.826   2.169   5.363
    1   AR   Ar  225   6.204   2.977   3.233
    1   AR   Ar  226   1.997   3.445   3.729
    1   AR   Ar  227   6.722   3.494   1.656
    1   AR   Ar  228   5.410   6.920   1.506
    1   AR   Ar  229   5.806   5.347  -1.863
    1   AR   Ar  230   4.007   4.303   3.432
    1   AR   Ar  231   5.426   1.679   3.919
    1   AR   Ar  232   5.340   2.080   1.531
    1   AR   Ar  233   6.373   2.169   4.255
    1   AR   Ar  234   6.164   3.137   4.635
    1   AR   Ar  235   6.639   1.136   4.063
    1   AR   Ar  236   5.014   5.048   5.706
    1   AR   Ar  237   6.003   2.941   5.643
    1   AR   Ar  238   5.811   3.924   6.317
    1   AR   Ar  239   6.822   4.526   9.364
    1   AR   Ar  240   6.880   2.404   7.285
    1   AR   Ar  241   1.738   6.728  -0.321
    1   AR   Ar  242   5.289   5.547   0.188
    1   AR   Ar  243   5.115   4.849   3.133
    1   AR   Ar  244   0.308   5.862   0.126
    1   AR   Ar  245   3.809   0.853   1.776
    1   AR   Ar  246   5.727   6.979  -0.209
    1   AR   Ar  247   5.924   3.886   0.684
    1   AR   Ar  248   5.963   5.797  -0.672
    1   AR   Ar  249   4.537   6.242   1.361
    1   AR   Ar  250   4.846   5.450   4.604
    1   AR   Ar  251   4.891   4.560   4.181
    1   AR   Ar  252   3.920   5.646   3.159
    1   AR   Ar  253   6.897   3.680   6.280
    1   AR   Ar  254   1.966   2.504   8.846
    1   AR   Ar  255   3.890   4.737   9.884
    1   AR   Ar  256   6.518   4.813   3.366
    7.12000  7.12000 12.00000
Argon-slab step 3740
  256
    1   AR   Ar    1   5.014   1.977  -2.206
    1   AR   Ar    2   5.901   0.414   0.837
    1   AR   Ar    3   3.810   1.546  -1.367
    1   AR   Ar    4   1.765   0.724  -0.119
    1   AR   Ar    5   6.486   6.347   0.160
    1   AR   Ar    6   0.160   1.382   2.313
    1   AR   Ar    7   5.742   3.943   2.990
    1   AR   Ar    8   4.729   1.187   1.170
    1   AR   Ar    9   1.022   7.081   2.981
    1   AR   Ar   10   0.472   7.032   3.846
    1   AR   Ar   11   1.798   7.059   4.382
    1   AR   Ar   12   0.857   1.284   3.025
    1   AR   Ar   13   0.080   0.431   4.654
    1   AR   Ar   14   5.348   1.742   8.023
    1   AR   Ar   15   3.992   6.255   8.016
    1   AR   Ar   16   0.965   6.796   4.946
    1   AR   Ar   17   6.822   2.200   0.994
    1   AR   Ar   18   6.245   4.876  -1.021
    1   AR   Ar   19   3.904   3.569   0.245
    1   AR   Ar   20   5.773   4.443  -2.589
    1   AR   Ar   21   3.155   1.736   1.458
    1   AR   Ar   22   6.665   1.786   3.189
    1   AR   Ar   23   0.317   0.384   0.793
    1   AR   Ar   24   6.269   2.072   1.964
    1   AR   Ar   25   0.509   1.673   4.305
    1   AR   Ar   26   6.386   7.080   4.059
    1   AR   Ar   27   1.950   0.844   2.525
    1   AR   Ar   28   0.109   2.675   4.880
    1   AR   Ar   29   5.606   3.120   6.798
    1   AR   Ar   30   1.860   1.238   4.031
    1   AR   Ar   31   3.477   0.778   7.573
    1   AR   Ar   32   1.074   2.651   7.062
    1   AR   Ar   33   0.335   4.463   0.403
    1   AR   Ar   34   0.147   5.030   2.545
    1   AR   Ar   35   5.731   5.753   1.330
    1   AR   Ar   36   5.805   1.869  -2.891
    1   AR   Ar   37   5.488   2.390   2.652
    1   AR   Ar   38   6.842   3.856   2.982
    1   AR   Ar   39   0.698   3.962   2.690
    1   AR   Ar   40   1.546   3.817   1.715
    1   AR   Ar   41   0.144   2.473   3.741
    1   AR   Ar   42   5.984   5.251   5.057
    1   AR   Ar   43   7.025   2.334   6.040
    1   AR   Ar   44   0.450   4.524   3.563
    1   AR   Ar   45   0.599   3.175   5.930
    1   AR   Ar   46   0.144   5.137   4.944
    1   AR   Ar   47   5.173   3.952   7.346
    1   AR   Ar   48   6.489   4.208   7.074
    1   AR   Ar   49   5.236   0.488  -0.899
    1   AR   Ar   50   4.247   5.383   0.462
    1   AR   Ar   51   6.771   5.012   1.449
    1   AR   Ar   52   5.942   3.075  -2.214
    1   AR   Ar   53   5.467   5.902   2.379
    1   AR   Ar   54   0.578   6.119   2.460
    1   AR   Ar   55   6.475   5.681   2.662
    1   AR   Ar   56   6.555   0.290   1.854
    1   AR   Ar   57   4.571   3.477   2.745
    1   AR   Ar   58   7.115   3.405   3.872
    1   AR   Ar   59   2.512   4.833   6.127
    1   AR   Ar   60   0.475   5.694   3.402
    1   AR   Ar   61   0.204   4.625   6.705
    1   AR   Ar   62   6.773   4.244   4.344
    1   AR   Ar   63   1.721   1.366   6.156
    1   AR   Ar   64   0.992   5.528   5.303
    1   AR   Ar   65   3.897   7.074   1.210
    1   AR   Ar   66   1.195   1.426   1.701
    1   AR   Ar   67   4.214   0.011  -0.194
    1   AR   Ar   68   1.664   1.752  -1.167
    1   AR   Ar   69   2.657   1.621   0.490
    1   AR   Ar   70   0.570   0.296   1.764
    1   AR   Ar   71   2.854   1.158   3.486
    1   AR   Ar   72   4.196   6.516   2.513
    1   AR   Ar   73   4.218   0.359   3.225
    1   AR   Ar   74   1.050   0.752   4.661
    1   AR   Ar   75   3.469   0.800   5.046
    1   AR   Ar   76   1.560   0.577   1.213
    1   AR   Ar   77   2.169   6.726   5.373
    1   AR   Ar   78   0.290   6.294   5.899
    1   AR   Ar   79   3.889   5.914   6.258
    1   AR   Ar   80   3.896   5.083   5.632
    1   AR   Ar   81   2.702   6.257   0.094
    1   AR   Ar   82   6.603   5.149   0.308
    1   AR   Ar   83   1.314   2.152   0.789
    1   AR   Ar   84   0.502   4.018   1.430
    1   AR   Ar   85   0.937   3.229   0.931
    1   AR   Ar   86   2.226   5.510   1.065
    1   AR   Ar   87   2.121   2.512   1.416
    1   AR   Ar   88   2.449   4.738   1.861
    1   AR   Ar   89   0.147   2.878   2.680
    1   AR   Ar   90   3.082   1.810   4.666
    1   AR   Ar   91   1.654   2.100   3.598
    1   AR   Ar   92   1.519   2.697   2.178
    1   AR   Ar   93   0.612   0.391   5.808
    1   AR   Ar   94   0.057   7.107  11.025
    1   AR   Ar   95   4.512   0.490   5.555
    1   AR   Ar   96   3.058   7.007   4.591
    1   AR   Ar   97   4.201   2.151  -0.287
    1   AR   Ar   98   1.677   4.761   2.969
    1   AR   Ar   99   6.646   1.283   0.267
    1   AR   Ar  100   1.385   3.001  -0.799
    1   AR   Ar  101   3.197   5.444   1.786
    1   AR   Ar  102   3.808   1.424   2.707
    1   AR   Ar  103   1.280   4.784   0.797
    1   AR   Ar  104   3.348   4.060  -1.052
    1   AR   Ar  105   2.442   2.547   4.193
    1   AR   Ar  106   3.776   2.958   5.355
    1   AR   Ar  107   0.968   3.955   4.690
    1   AR   Ar  108   2.182   0.924   4.992
    1   AR   Ar  109   1.654   3.008   5.220
    1   AR   Ar  110   2.742   2.559   5.570
    1   AR   Ar  111   5.272   5.298   7.155
    1   AR   Ar  112   0.827   5.381   6.431
    1   AR   Ar  113   3.602   4.613   0.298
    1   AR   Ar  114   2.693   0.262  -0.506
    1   AR   Ar  115   2.430   5.077   0.139
    1   AR   Ar  116   6.414   0.468  -0.426
    1   AR   Ar  117   1.251   5.257   4.155
    1   AR   Ar  118   1.567   5.800   3.186
    1   AR   Ar  119   2.305   3.857   2.450
    1   AR   Ar  120   1.999   6.381   1.429
    1   AR   Ar  121   5.487   4.073   5.291
    1   AR   Ar  122   2.883   5.875   5.826
    1   AR   Ar  123   3.273   3.994   5.220
    1   AR   Ar  124   1.462   5.190   2.063
    1   AR   Ar  125   6.927   3.753   5.188
    1   AR   Ar  126   6.865   6.516   4.966
    1   AR   Ar  127   4.593   4.025   6.196
    1   AR   Ar  128   3.561   4.446   6.329
    1   AR   Ar  129   2.365   6.113   3.820
    1   AR   Ar  130   4.397   2.293  -3.328
    1   AR   Ar  131   3.626   2.828  -0.750
    1   AR   Ar  132   0.327   2.473  -0.056
    1   AR   Ar  133   4.894   6.246   3.124
    1   AR   Ar  134   4.547   1.250   4.589
    1   AR   Ar  135   6.216   0.973   2.684
    1   AR   Ar  136   5.929   6.742   2.470
    1   AR   Ar  137   2.158   4.566   4.041
    1   AR   Ar  138   5.027   1.332   6.051
    1   AR   Ar  139   5.908   1.901   5.636
    1   AR   Ar  140   3.953   0.076   4.408
    1   AR   Ar  141   3.901   4.874   4.437
    1   AR   Ar  142   3.520   6.959   5.963
    1   AR   Ar  143   6.457   6.646   5.955
    1   AR   Ar  144   6.839   1.524   5.207
    1   AR   Ar  145   4.936   4.785  -0.443
    1   AR   Ar  146   3.034   2.936   2.049
    1   AR   Ar  147   4.729   2.526  -1.366
    1   AR   Ar  148   3.491   6.599  -0.806
    1   AR   Ar  149   2.677   1.851  -0.856
    1   AR   Ar  150   2.493   1.780   2.274
    1   AR   Ar  151   2.345   2.656   2.896
    1   AR   Ar  152   2.272   2.790  -1.390
    1   AR   Ar  153   4.977   0.440   3.863
    1   AR   Ar  154   3.665   1.967   3.709
    1   AR   Ar  155   6.380   4.550   5.765
    1   AR   Ar  156   3.077   3.699   3.390
    1   AR   Ar  157   1.068   4.438   5.939
    1   AR   Ar  158   0.343   1.728   6.755
    1   AR   Ar  159   4.180   1.489   7.493
    1   AR   Ar  160   1.770   2.014   4.664
    1   AR   Ar  161   5.100   4.242   2.026
    1   AR   Ar  162   4.581   6.107  -0.374
    1   AR   Ar  163   6.092   4.024  -0.442
    1   AR   Ar  164   2.481   5.712   2.522
    1   AR   Ar  165   4.760   2.327   0.632
    1   AR   Ar  166   3.281   3.233   4.475
    1   AR   Ar  167   4.959   0.355   2.348
    1   AR   Ar  168   5.167   3.985  -1.621
    1   AR   Ar  169   3.298   4.475   2.561
    1   AR   Ar  170   2.142   3.867   6.032
    1   AR   Ar  171   5.530   3.719   4.009
    1   AR   Ar  172   4.262   4.276   5.226
    1   AR   Ar  173   2.947   3.080   6.431
    1   AR   Ar  174   2.023   5.841   6.498
    1   AR   Ar  175   3.656   1.960   6.050
    1   AR   Ar  176   4.034   2.260   4.676
    1   AR   Ar  177   0.304   5.768  -0.912
    1   AR   Ar  178   3.774   5.381  -0.575
    1   AR   Ar  179   3.746   6.371   0.175
    1   AR   Ar  180   3.019   1.237  -3.669
    1   AR   Ar  181   0.647   5.603   1.486
    1   AR   Ar  182   2.192   6.953   2.743
    1   AR   Ar  183   4.471   5.303   2.178
    1   AR   Ar  184   4.989   6.731   0.545
    1   AR   Ar  185   3.047   5.210   4.938
    1   AR   Ar  186   2.913   5.383   3.459
    1   AR   Ar  187   3.161   6.638   3.251
    1   AR   Ar  188   3.023   6.758   2.095
    1   AR   Ar  189   4.517   2.870   6.140
    1   AR   Ar  190   3.604   6.106   4.108
    1   AR   Ar  191   2.642   6.303   7.599
    1   AR   Ar  192   4.024   6.140   5.118
    1   AR   Ar  193   3.069   6.233   1.159
    1   AR   Ar  194   4.351   3.868  -0.658
    1   AR   Ar  195   5.453   1.664   0.260
    1   AR   Ar  196   4.608   0.995   0.037
    1   AR   Ar  197   3.789   1.606   0.693
    1   AR   Ar  198   6.760   1.124   1.298
    1   AR   Ar  199   3.207   0.534   2.707
    1   AR   Ar  200   5.799   2.475  -0.333
    1   AR   Ar  201   5.879   6.164   3.495
    1   AR   Ar  202   5.830   1.137   4.790
    1   AR   Ar  203   7.028   0.232   2.885
    1   AR   Ar  204   5.487   6.144   5.385
    1   AR   Ar  205   6.830   6.395   1.869
    1   AR   Ar  206   5.569   0.151   5.450
    1   AR   Ar  207   0.807   1.751   5.491
    1   AR   Ar  208   0.530   6.037   4.397
    1   AR   Ar  209   6.991   2.567  -1.845
    1   AR   Ar  210   2.544   0.042   0.933
    1   AR   Ar  211   7.075   3.542   0.672
    1   AR   Ar  212   6.352   3.301  -1.144
    1   AR   Ar  213   2.714   0.632   1.826
    1   AR   Ar  214   4.669   2.949   1.645
    1   AR   Ar  215   5.736   3.022   1.701
    1   AR   Ar  216   0.679   2.440   1.598
    1   AR   Ar  217   5.264   2.643   3.993
    1   AR   Ar  218   4.604   3.418   4.639
    1   AR   Ar  219   3.949   2.930   3.628
    1   AR   Ar  220   3.735   2.979   1.171
    1   AR   Ar  221   6.700   5.795   4.064
    1   AR   Ar  222   4.615   7.061   6.778
    1   AR   Ar  223   5.688   2.031   6.554
    1   AR   Ar  224   4.819   2.177   5.382
    1   AR   Ar  225   6.220   2.965   3.207
    1   AR   Ar  226   1.979   3.445   3.699
    1   AR   Ar  227   6.722   3.498   1.657
    1   AR   Ar  228   5.403   6.908   1.517
    1   AR   Ar  229   5.791   5.343  -1.844
    1   AR   Ar  230   3.987   4.280   3.452
    1   AR   Ar  231   5.437   1.656   3.937
    1   AR   Ar  232   5.341   2.129   1.517
    1   AR   Ar  233   6.370   2.160   4.268
    1   AR   Ar  234   6.152   3.127   4.634
    1   AR   Ar  235   6.664   1.139   4.093
    1   AR   Ar  236   5.031   5.003   5.677
    1   AR   Ar  237   6.008   2.938   5.692
    1   AR   Ar  238   5.835   3.937   6.322
    1   AR   Ar  239   6.826   4.538   9.370
    1   AR   Ar  240   6.866   2.396   7.293
    1   AR   Ar  241   1.745   6.723  -0.314
    1   AR   Ar  242   5.303   5.556   0.195
    1   AR   Ar  243   5.101   4.854   3.156
    1   AR   Ar  244   0.306   5.851   0.138
    1   AR   Ar  245   3.805   0.863   1.761
    1   AR   Ar  246   5.728   6.954  -0.204
    1   AR   Ar  247   5.930   3.870   0.670
    1   AR   Ar  248   5.986   5.791  -0.696
    1   AR   Ar  249   4.526   6.230   1.362
    1   AR   Ar  250   4.876   5.473   4.642
    1   AR   Ar  251   4.905   4.575   4.172
    1   AR   Ar  252   3.923   5.626   3.147
    1   AR   Ar  253   6.931   3.658   6.291
    1   AR   Ar  254   2.004   2.516   8.824
    1   AR   Ar  255   3.881   4.725   9.883
    1   AR   Ar  256   6.527   4.797   3.379
    7.12000  7.12000 12.00000
Argon-slab step 3745
  256
    1   AR   Ar    1   5.015   1.942  -2.197
    1   AR   Ar    2   5.881   0.413   0.805
    1   AR   Ar    3   3.804   1.575  -1.388
    1   AR   Ar    4   1.770   0.727  -0.115
    1   AR   Ar    5   6.484   6.353   0.166
    1   AR   Ar    6   0.155   1.387   2.302
    1   AR   Ar    7   5.708   3.939   2.981
    1   AR   Ar    8   4.732   1.219   1.157
    1   AR   Ar    9   1.052   0.002   2.963
    1   AR   Ar   10   0.495   7.029   3.840
    1   AR   Ar   11   1.768   7.040   4.383
    1   AR   Ar   12   0.830   1.266   3.040
    1   AR   Ar   13   0.084   0.445   4.674
    1   AR   Ar   14   5.313   1.740   8.025
    1   AR   Ar   15   3.932   6.238   8.013
    1   AR   Ar   16   0.989   6.813   4.940
    1   AR   Ar   17   6.845   2.166   1.007
    1   AR   Ar   18   6.243   4.875  -1.043
    1   AR   Ar   19   3.945   3.581   0.218
    1   AR   Ar   20   5.790   4.430  -2.596
    1   AR   Ar   21   3.143   1.735   1.443
    1   AR   Ar   22   6.664   1.802   3.221
    1   AR   Ar   23   0.318   0.367   0.798
    1   AR   Ar   24   6.223   2.054   1.962
    1   AR   Ar   25   0.504   1.665   4.285
    1   AR   Ar   26   6.394   7.077   4.046
    1   AR   Ar   27   1.967   0.874   2.512
    1   AR   Ar   28   0.137   2.695   4.842
    1   AR   Ar   29   5.595   3.116   6.826
    1   AR   Ar   30   1.874   1.230   4.008
    1   AR   Ar   31   3.477   0.749   7.590
    1   AR   Ar   32   1.043   2.648   7.074
    1   AR   Ar   33   0.320   4.459   0.411
    1   AR   Ar   34   0.136   5.027   2.556
    1   AR   Ar   35   5.719   5.752   1.343
    1   AR   Ar   36   5.803   1.896  -2.890
    1   AR   Ar   37   5.506   2.423   2.679
    1   AR   Ar   38   6.849   3.867   2.988
    1   AR   Ar   39   0.691   3.933   2.730
    1   AR   Ar   40   1.514   3.842   1.705
    1   AR   Ar   41   0.161   2.489   3.717
    1   AR   Ar   42   6.004   5.248   5.037
    1   AR   Ar   43   7.039   2.358   6.051
    1   AR   Ar   44   0.404   4.551   3.606
    1   AR   Ar   45   0.613   3.107   5.912
    1   AR   Ar   46   0.131   5.148   4.915
    1   AR   Ar   47   5.163   3.948   7.319
    1   AR   Ar   48   6.507   4.192   7.091
    1   AR   Ar   49   5.221   0.487  -0.940
    1   AR   Ar   50   4.250   5.406   0.459
    1   AR   Ar   51   6.789   4.972   1.456
    1   AR   Ar   52   5.935   3.086  -2.239
    1   AR   Ar   53   5.476   5.869   2.353
    1   AR   Ar   54   0.581   6.132   2.456
    1   AR   Ar   55   6.480   5.674   2.646
    1   AR   Ar   56   6.551   0.314   1.873
    1   AR   Ar   57   4.557   3.486   2.736
    1   AR   Ar   58   7.083   3.430   3.894
    1   AR   Ar   59   2.521   4.832   6.130
    1   AR   Ar   60   0.469   5.711   3.427
    1   AR   Ar   61   0.214   4.604   6.731
    1   AR   Ar   62   6.777   4.256   4.357
    1   AR   Ar   63   1.737   1.391   6.173
    1   AR   Ar   64   0.976   5.522   5.307
    1   AR   Ar   65   3.944   7.091   1.236
    1   AR   Ar   66   1.235   1.426   1.683
    1   AR   Ar   67   4.215   0.004  -0.180
    1   AR   Ar   68   1.667   1.738  -1.139
    1   AR   Ar   69   2.668   1.656   0.466
    1   AR   Ar   70   0.565   0.297   1.772
    1   AR   Ar   71   2.857   1.167   3.488
    1   AR   Ar   72   4.188   6.535   2.475
    1   AR   Ar   73   4.244   0.323   3.197
    1   AR   Ar   74   1.070   0.716   4.678
    1   AR   Ar   75   3.489   0.768   5.060
    1   AR   Ar   76   1.557   0.583   1.218
    1   AR   Ar   77   2.156   6.671   5.370
    1   AR   Ar   78   0.308   6.310   5.901
    1   AR   Ar   79   3.925   5.899   6.267
    1   AR   Ar   80   3.864   5.061   5.636
    1   AR   Ar   81   2.719   6.260   0.104
    1   AR   Ar   82   6.584   5.105   0.311
    1   AR   Ar   83   1.325   2.141   0.766
    1   AR   Ar   84   0.527   4.020   1.436
    1   AR   Ar   85   0.932   3.225   0.926
    1   AR   Ar   86   2.223   5.479   1.035
    1   AR   Ar   87   2.158   2.525   1.407
    1   AR   Ar   88   2.479   4.750   1.861
    1   AR   Ar   89   0.131   2.859   2.664
    1   AR   Ar   90   3.072   1.776   4.669
    1   AR   Ar   91   1.671   2.115   3.594
    1   AR   Ar   92   1.480   2.684   2.173
    1   AR   Ar   93   0.625   0.406   5.774
    1   AR   Ar   94   0.061   7.082  11.023
    1   AR   Ar   95   4.546   0.494   5.540
    1   AR   Ar   96   3.071   6.976   4.589
    1   AR   Ar   97   4.199   2.184  -0.294
    1   AR   Ar   98   1.652   4.763   2.961
    1   AR   Ar   99   6.637   1.296   0.270
    1   AR   Ar  100   1.399   2.973  -0.795
    1   AR   Ar  101   3.197   5.476   1.807
    1   AR   Ar  102   3.793   1.408   2.712
    1   AR   Ar  103   1.294   4.764   0.796
    1   AR   Ar  104   3.377   4.061  -1.042
    1   AR   Ar  105   2.457   2.542   4.156
    1   AR   Ar  106   3.800   2.974   5.384
    1   AR   Ar  107   0.957   3.946   4.685
    1   AR   Ar  108   2.184   0.913   5.001
    1   AR   Ar  109   1.660   2.977   5.199
    1   AR   Ar  110   2.751   2.522   5.561
    1   AR   Ar  111   5.280   5.316   7.128
    1   AR   Ar  112   0.851   5.361   6.405
    1   AR   Ar  113   3.600   4.609   0.292
    1   AR   Ar  114   2.660   0.285  -0.522
    1   AR   Ar  115   2.444   5.102   0.144
    1   AR   Ar  116   6.412   0.487  -0.403
    1   AR   Ar  117   1.261   5.256   4.142
    1   AR   Ar  118   1.560   5.759   3.202
    1   AR   Ar  119   2.307   3.893   2.442
    1   AR   Ar  120   2.002   6.371   1.411
    1   AR   Ar  121   5.494   4.062   5.277
    1   AR   Ar  122   2.861   5.888   5.838
    1   AR   Ar  123   3.230   3.971   5.182
    1   AR   Ar  124   1.498   5.166   2.052
    1   AR   Ar  125   6.936   3.726   5.194
    1   AR   Ar  126   6.871   6.517   4.975
    1   AR   Ar  127   4.598   4.011   6.226
    1   AR   Ar  128   3.534   4.498   6.310
    1   AR   Ar  129   2.337   6.114   3.808
    1   AR   Ar  130   4.423   2.304  -3.329
    1   AR   Ar  131   3.651   2.814  -0.749
    1   AR   Ar  132   0.354   2.458  -0.053
    1   AR   Ar  133   4.921   6.251   3.126
    1   AR   Ar  134   4.546   1.220   4.577
    1   AR   Ar  135   6.212   0.986   2.679
    1   AR   Ar  136   5.915   6.725   2.425
    1   AR   Ar  137   2.148   4.519   4.068
    1   AR   Ar  138   5.035   1.311   6.072
    1   AR   Ar  139   5.912   1.894   5.643
    1   AR   Ar  140   3.985   0.060   4.385
    1   AR   Ar  141   3.882   4.901   4.394
    1   AR   Ar  142   3.532   6.985   5.950
    1   AR   Ar  143   6.468   6.631   5.972
    1   AR   Ar  144   6.847   1.523   5.202
    1   AR   Ar  145   4.924   4.792  -0.443
    1   AR   Ar  146   3.032   2.931   2.022
    1   AR   Ar  147   4.740   2.522  -1.353
    1   AR   Ar  148   3.469   6.622  -0.831
    1   AR   Ar  149   2.683   1.826  -0.883
    1   AR   Ar  150   2.454   1.813   2.273
    1   AR   Ar  151   2.341   2.627   2.912
    1   AR   Ar  152   2.262   2.778  -1.412
    1   AR   Ar  153   4.983   0.424   3.874
    1   AR   Ar  154   3.674   1.958   3.725
    1   AR   Ar  155   6.404   4.529   5.799
    1   AR   Ar  156   3.050   3.744   3.410
    1   AR   Ar  157   1.081   4.448   5.919
    1   AR   Ar  158   0.338   1.704   6.724
    1   AR   Ar  159   4.185   1.461   7.497
    1   AR   Ar  160   1.764   2.038   4.685
    1   AR   Ar  161   5.106   4.244   2.062
    1   AR   Ar  162   4.575   6.101  -0.353
    1   AR   Ar  163   6.094   4.032  -0.454
    1   AR   Ar  164   2.484   5.736   2.526
    1   AR   Ar  165   4.810   2.326   0.625
    1   AR   Ar  166   3.281   3.210   4.490
    1   AR   Ar  167   4.956   0.336   2.353
    1   AR   Ar  168   5.177   3.999  -1.615
    1   AR   Ar  169   3.271   4.480   2.555
    1   AR   Ar  170   2.140   3.826   6.010
    1   AR   Ar  171   5.511   3.704   3.982
    1   AR   Ar  172   4.252   4.284   5.237
    1   AR   Ar  173   2.955   3.096   6.460
    1   AR   Ar  174   2.032   5.839   6.475
    1   AR   Ar  175   3.663   1.956   6.014
    1   AR   Ar  176   4.052   2.260   4.692
    1   AR   Ar  177   0.332   5.754  -0.922
    1   AR   Ar  178   3.763   5.381  -0.595
    1   AR   Ar  179   3.714   6.362   0.180
    1   AR   Ar  180   3.049   1.216  -3.680
    1   AR   Ar  181   0.637   5.578   1.469
    1   AR   Ar  182   2.203   6.954   2.743
    1   AR   Ar  183   4.514   5.316   2.150
    1   AR   Ar  184   5.014   6.755   0.570
    1   AR   Ar  185   3.050   5.210   4.920
    1   AR   Ar  186   2.945   5.408   3.465
    1   AR   Ar  187   3.129   6.632   3.235
    1   AR   Ar  188   3.022   6.763   2.119
    1   AR   Ar  189   4.514   2.910   6.129
    1   AR   Ar  190   3.612   6.126   4.103
    1   AR   Ar  191   2.634   6.295   7.587
    1   AR   Ar  192   4.024   6.146   5.134
    1   AR   Ar  193   3.107   6.219   1.117
    1   AR   Ar  194   4.358   3.882  -0.636
    1   AR   Ar  195   5.460   1.646   0.264
    1   AR   Ar  196   4.601   0.995   0.033
    1   AR   Ar  197   3.773   1.563   0.700
    1   AR   Ar  198   6.752   1.095   1.307
    1   AR   Ar  199   3.223   0.548   2.699
    1   AR   Ar  200   5.795   2.476  -0.352
    1   AR   Ar  201   5.858   6.188   3.460
    1   AR   Ar  202   5.802   1.141   4.771
    1   AR   Ar  203   7.063   0.228   2.906
    1   AR   Ar  204   5.504   6.185   5.417
    1   AR   Ar  205   6.821   6.412   1.842
    1   AR   Ar  206   5.581   0.147   5.443
    1   AR   Ar  207   0.808   1.747   5.516
    1   AR   Ar  208   0.546   6.029   4.401
    1   AR   Ar  209   7.002   2.554  -1.841
    1   AR   Ar  210   2.544   0.057   0.919
    1   AR   Ar  211   7.089   3.528   0.676
    1   AR   Ar  212   6.357   3.301  -1.158
    1   AR   Ar  213   2.691   0.614   1.850
    1   AR   Ar  214   4.659   2.942   1.633
    1   AR   Ar  215   5.752   2.996   1.704
    1   AR   Ar  216   0.664   2.433   1.568
    1   AR   Ar  217   5.261   2.668   4.010
    1   AR   Ar  218   4.603   3.404   4.671
    1   AR   Ar  219   3.943   2.951   3.633
    1   AR   Ar  220   3.738   2.942   1.140
    1   AR   Ar  221   6.694   5.775   4.029
    1   AR   Ar  222   4.648   7.057   6.768
    1   AR   Ar  223   5.677   2.005   6.560
    1   AR   Ar  224   4.833   2.181   5.402
    1   AR   Ar  225   6.239   2.953   3.185
    1   AR   Ar  226   1.960   3.445   3.668
    1   AR   Ar  227   6.719   3.501   1.663
    1   AR   Ar  228   5.404   6.902   1.517
    1   AR   Ar  229   5.775   5.341  -1.826
    1   AR   Ar  230   3.971   4.259   3.471
    1   AR   Ar  231   5.450   1.624   3.953
    1   AR   Ar  232   5.336   2.165   1.500
    1   AR   Ar  233   6.361   2.162   4.278
    1   AR   Ar  234   6.141   3.119   4.634
    1   AR   Ar  235   6.689   1.143   4.120
    1   AR   Ar  236   5.048   4.958   5.647
    1   AR   Ar  237   6.014   2.940   5.743
    1   AR   Ar  238   5.853   3.953   6.322
    1   AR   Ar  239   6.829   4.550   9.376
    1   AR   Ar  240   6.848   2.390   7.301
    1   AR   Ar  241   1.754   6.718  -0.306
    1   AR   Ar  242   5.321   5.567   0.204
    1   AR   Ar  243   5.087   4.860   3.176
    1   AR   Ar  244   0.306   5.840   0.154
    1   AR   Ar  245   3.801   0.875   1.746
    1   AR   Ar  246   5.714   6.918  -0.195
    1   AR   Ar  247   5.937   3.853   0.657
    1   AR   Ar  248   6.006   5.791  -0.716
    1   AR   Ar  249   4.515   6.213   1.366
    1   AR   Ar  250   4.906   5.503   4.684
    1   AR   Ar  251   4.919   4.582   4.163
    1   AR   Ar  252   3.928   5.605   3.133
    1   AR   Ar  253   6.957   3.639   6.303
    1   AR   Ar  254   2.042   2.545   8.804
    1   AR   Ar  255   3.887   4.732   9.873
    1   AR   Ar  256   6.535   4.783   3.393
    7.12000  7.12000 12.00000
Argon-slab step 3750
  256
    1   AR   Ar    1   5.015   1.906  -2.187
    1   AR   Ar    2   5.863   0.413   0.771
    1   AR   Ar    3   3.799   1.606  -1.406
    1   AR   Ar    4   1.754   0.708  -0.113
    1   AR   Ar    5   6.485   6.356   0.174
    1   AR   Ar    6   0.144   1.393   2.284
    1   AR   Ar    7   5.675   3.935   2.969
    1   AR   Ar    8   4.737   1.252   1.143
    1   AR   Ar    9   1.084   0.043   2.940
    1   AR   Ar   10   0.520   7.041   3.854
    1   AR   Ar   11   1.749   7.024   4.375
    1   AR   Ar   12   0.810   1.246   3.062
    1   AR   Ar   13   0.084   0.455   4.699
    1   AR   Ar   14   5.278   1.738   8.026
    1   AR   Ar   15   3.871   6.221   8.010
    1   AR   Ar   16   1.003   6.827   4.945
    1   AR   Ar   17   6.871   2.125   1.014
    1   AR   Ar   18   6.246   4.866  -1.066
    1   AR   Ar   19   3.926   3.546   0.226
    1   AR   Ar   20   5.802   4.427  -2.601
    1   AR   Ar   21   3.125   1.737   1.437
    1   AR   Ar   22   6.661   1.820   3.251
    1   AR   Ar   23   0.317   0.352   0.795
    1   AR   Ar   24   6.189   2.033   1.964
    1   AR   Ar   25   0.501   1.655   4.268
    1   AR   Ar   26   6.404   7.073   4.032
    1   AR   Ar   27   1.973   0.901   2.501
    1   AR   Ar   28   0.164   2.714   4.804
    1   AR   Ar   29   5.583   3.103   6.856
    1   AR   Ar   30   1.889   1.212   3.987
    1   AR   Ar   31   3.472   0.713   7.607
    1   AR   Ar   32   1.011   2.645   7.084
    1   AR   Ar   33   0.318   4.449   0.423
    1   AR   Ar   34   0.133   5.018   2.565
    1   AR   Ar   35   5.709   5.752   1.351
    1   AR   Ar   36   5.804   1.923  -2.891
    1   AR   Ar   37   5.520   2.454   2.704
    1   AR   Ar   38   6.846   3.878   2.990
    1   AR   Ar   39   0.694   3.905   2.766
    1   AR   Ar   40   1.485   3.866   1.697
    1   AR   Ar   41   0.181   2.496   3.692
    1   AR   Ar   42   6.024   5.244   5.016
    1   AR   Ar   43   7.047   2.383   6.057
    1   AR   Ar   44   0.363   4.579   3.651
    1   AR   Ar   45   0.647   3.107   5.899
    1   AR   Ar   46   0.110   5.154   4.883
    1   AR   Ar   47   5.153   3.946   7.291
    1   AR   Ar   48   6.517   4.172   7.115
    1   AR   Ar   49   5.205   0.487  -0.979
    1   AR   Ar   50   4.255   5.432   0.458
    1   AR   Ar   51   6.808   4.932   1.463
    1   AR   Ar   52   5.928   3.098  -2.263
    1   AR   Ar   53   5.476   5.820   2.325
    1   AR   Ar   54   0.580   6.149   2.470
    1   AR   Ar   55   6.483   5.672   2.632
    1   AR   Ar   56   6.544   0.331   1.898
    1   AR   Ar   57   4.543   3.496   2.727
    1   AR   Ar   58   7.051   3.458   3.919
    1   AR   Ar   59   2.522   4.819   6.100
    1   AR   Ar   60   0.462   5.725   3.448
    1   AR   Ar   61   0.229   4.585   6.752
    1   AR   Ar   62   6.775   4.282   4.369
    1   AR   Ar   63   1.752   1.416   6.188
    1   AR   Ar   64   0.969   5.520   5.314
    1   AR   Ar   65   3.990   7.107   1.259
    1   AR   Ar   66   1.254   1.440   1.676
    1   AR   Ar   67   4.224   0.007  -0.170
    1   AR   Ar   68   1.668   1.724  -1.112
    1   AR   Ar   69   2.676   1.691   0.441
    1   AR   Ar   70   0.562   0.298   1.789
    1   AR   Ar   71   2.860   1.178   3.492
    1   AR   Ar   72   4.173   6.557   2.433
    1   AR   Ar   73   4.262   0.286   3.165
    1   AR   Ar   74   1.095   0.685   4.695
    1   AR   Ar   75   3.510   0.737   5.075
    1   AR   Ar   76   1.556   0.583   1.221
    1   AR   Ar   77   2.143   6.616   5.365
    1   AR   Ar   78   0.334   6.324   5.902
    1   AR   Ar   79   3.960   5.888   6.277
    1   AR   Ar   80   3.834   5.069   5.626
    1   AR   Ar   81   2.726   6.262   0.112
    1   AR   Ar   82   6.613   5.076   0.312
    1   AR   Ar   83   1.336   2.129   0.742
    1   AR   Ar   84   0.548   4.029   1.445
    1   AR   Ar   85   0.933   3.218   0.919
    1   AR   Ar   86   2.222   5.444   1.012
    1   AR   Ar   87   2.199   2.537   1.395
    1   AR   Ar   88   2.504   4.760   1.859
    1   AR   Ar   89   0.114   2.840   2.646
    1   AR   Ar   90   3.053   1.773   4.673
    1   AR   Ar   91   1.681   2.137   3.583
    1   AR   Ar   92   1.441   2.672   2.173
    1   AR   Ar   93   0.648   0.432   5.725
    1   AR   Ar   94   0.065   7.056  11.021
    1   AR   Ar   95   4.576   0.498   5.524
    1   AR   Ar   96   3.064   6.939   4.591
    1   AR   Ar   97   4.210   2.201  -0.290
    1   AR   Ar   98   1.629   4.755   2.959
    1   AR   Ar   99   6.628   1.301   0.283
    1   AR   Ar  100   1.412   2.945  -0.790
    1   AR   Ar  101   3.206   5.507   1.829
    1   AR   Ar  102   3.779   1.397   2.718
    1   AR   Ar  103   1.310   4.744   0.797
    1   AR   Ar  104   3.405   4.062  -1.032
    1   AR   Ar  105   2.480   2.542   4.115
    1   AR   Ar  106   3.820   2.993   5.415
    1   AR   Ar  107   0.935   3.962   4.669
    1   AR   Ar  108   2.186   0.901   5.009
    1   AR   Ar  109   1.662   2.958   5.182
    1   AR   Ar  110   2.761   2.484   5.547
    1   AR   Ar  111   5.289   5.333   7.100
    1   AR   Ar  112   0.878   5.348   6.379
    1   AR   Ar  113   3.596   4.603   0.283
    1   AR   Ar  114   2.629   0.306  -0.536
    1   AR   Ar  115   2.462   5.123   0.140
    1   AR   Ar  116   6.416   0.511  -0.382
    1   AR   Ar  117   1.272   5.253   4.130
    1   AR   Ar  118   1.551   5.722   3.214
    1   AR   Ar  119   2.308   3.926   2.438
    1   AR   Ar  120   2.003   6.369   1.399
    1   AR   Ar  121   5.501   4.049   5.260
    1   AR   Ar  122   2.844   5.901   5.846
    1   AR   Ar  123   3.186   3.953   5.149
    1   AR   Ar  124   1.532   5.146   2.034
    1   AR   Ar  125   6.946   3.693   5.207
    1   AR   Ar  126   6.876   6.517   4.981
    1   AR   Ar  127   4.606   3.998   6.257
    1   AR   Ar  128   3.500   4.532   6.309
    1   AR   Ar  129   2.306   6.125   3.802
    1   AR   Ar  130   4.450   2.316  -3.329
    1   AR   Ar  131   3.663   2.815  -0.759
    1   AR   Ar  132   0.381   2.444  -0.049
    1   AR   Ar  133   4.939   6.256   3.131
    1   AR   Ar  134   4.545   1.191   4.565
    1   AR   Ar  135   6.208   0.998   2.672
    1   AR   Ar  136   5.909   6.723   2.385
    1   AR   Ar  137   2.138   4.473   4.092
    1   AR   Ar  138   5.042   1.288   6.091
    1   AR   Ar  139   5.907   1.866   5.630
    1   AR   Ar  140   4.038   0.047   4.356
    1   AR   Ar  141   3.866   4.928   4.349
    1   AR   Ar  142   3.545   7.011   5.935
    1   AR   Ar  143   6.471   6.620   5.990
    1   AR   Ar  144   6.856   1.523   5.194
    1   AR   Ar  145   4.913   4.800  -0.443
    1   AR   Ar  146   3.028   2.925   1.996
    1   AR   Ar  147   4.750   2.519  -1.336
    1   AR   Ar  148   3.446   6.643  -0.856
    1   AR   Ar  149   2.701   1.828  -0.896
    1   AR   Ar  150   2.414   1.844   2.269
    1   AR   Ar  151   2.338   2.604   2.930
    1   AR   Ar  152   2.255   2.764  -1.435
    1   AR   Ar  153   4.995   0.410   3.891
    1   AR   Ar  154   3.680   1.943   3.741
    1   AR   Ar  155   6.440   4.521   5.821
    1   AR   Ar  156   3.020   3.787   3.430
    1   AR   Ar  157   1.094   4.456   5.897
    1   AR   Ar  158   0.338   1.677   6.694
    1   AR   Ar  159   4.203   1.427   7.491
    1   AR   Ar  160   1.752   2.057   4.713
    1   AR   Ar  161   5.111   4.246   2.100
    1   AR   Ar  162   4.573   6.095  -0.334
    1   AR   Ar  163   6.093   4.039  -0.461
    1   AR   Ar  164   2.483   5.762   2.532
    1   AR   Ar  165   4.851   2.330   0.617
    1   AR   Ar  166   3.280   3.183   4.500
    1   AR   Ar  167   4.954   0.316   2.358
    1   AR   Ar  168   5.189   4.014  -1.609
    1   AR   Ar  169   3.245   4.486   2.551
    1   AR   Ar  170   2.138   3.782   5.987
    1   AR   Ar  171   5.492   3.691   3.958
    1   AR   Ar  172   4.251   4.277   5.238
    1   AR   Ar  173   2.964   3.113   6.488
    1   AR   Ar  174   2.039   5.837   6.455
    1   AR   Ar  175   3.671   1.954   5.976
    1   AR   Ar  176   4.071   2.257   4.703
    1   AR   Ar  177   0.358   5.740  -0.934
    1   AR   Ar  178   3.753   5.381  -0.613
    1   AR   Ar  179   3.683   6.343   0.195
    1   AR   Ar  180   3.079   1.195  -3.690
    1   AR   Ar  181   0.627   5.553   1.451
    1   AR   Ar  182   2.179   6.921   2.735
    1   AR   Ar  183   4.540   5.333   2.139
    1   AR   Ar  184   5.035   6.777   0.591
    1   AR   Ar  185   3.048   5.212   4.903
    1   AR   Ar  186   2.982   5.424   3.469
    1   AR   Ar  187   3.099   6.626   3.218
    1   AR   Ar  188   3.026   6.764   2.140
    1   AR   Ar  189   4.515   2.950   6.122
    1   AR   Ar  190   3.619   6.145   4.098
    1   AR   Ar  191   2.625   6.286   7.573
    1   AR   Ar  192   4.024   6.151   5.151
    1   AR   Ar  193   3.145   6.209   1.072
    1   AR   Ar  194   4.369   3.898  -0.621
    1   AR   Ar  195   5.472   1.621   0.267
    1   AR   Ar  196   4.594   0.997   0.029
    1   AR   Ar  197   3.766   1.519   0.698
    1   AR   Ar  198   6.746   1.075   1.312
    1   AR   Ar  199   3.241   0.557   2.697
    1   AR   Ar  200   5.791   2.478  -0.370
    1   AR   Ar  201   5.846   6.212   3.426
    1   AR   Ar  202   5.776   1.141   4.759
    1   AR   Ar  203   7.097   0.225   2.925
    1   AR   Ar  204   5.521   6.224   5.448
    1   AR   Ar  205   6.811   6.427   1.815
    1   AR   Ar  206   5.595   0.145   5.435
    1   AR   Ar  207   0.809   1.743   5.539
    1   AR   Ar  208   0.563   6.022   4.408
    1   AR   Ar  209   7.011   2.543  -1.837
    1   AR   Ar  210   2.545   0.072   0.903
    1   AR   Ar  211   7.097   3.509   0.676
    1   AR   Ar  212   6.362   3.298  -1.174
    1   AR   Ar  213   2.668   0.598   1.862
    1   AR   Ar  214   4.648   2.945   1.612
    1   AR   Ar  215   5.776   2.989   1.712
    1   AR   Ar  216   0.644   2.424   1.540
    1   AR   Ar  217   5.257   2.693   4.027
    1   AR   Ar  218   4.602   3.389   4.703
    1   AR   Ar  219   3.939   2.978   3.638
    1   AR   Ar  220   3.737   2.904   1.107
    1   AR   Ar  221   6.685   5.754   3.994
    1   AR   Ar  222   4.680   7.054   6.756
    1   AR   Ar  223   5.663   1.984   6.586
    1   AR   Ar  224   4.848   2.184   5.423
    1   AR   Ar  225   6.262   2.941   3.167
    1   AR   Ar  226   1.943   3.445   3.636
    1   AR   Ar  227   6.716   3.504   1.672
    1   AR   Ar  228   5.433   6.929   1.467
    1   AR   Ar  229   5.755   5.340  -1.812
    1   AR   Ar  230   3.958   4.240   3.491
    1   AR   Ar  231   5.460   1.591   3.962
    1   AR   Ar  232   5.320   2.178   1.477
    1   AR   Ar  233   6.354   2.162   4.288
    1   AR   Ar  234   6.152   3.114   4.646
    1   AR   Ar  235   6.696   1.153   4.111
    1   AR   Ar  236   5.064   4.914   5.619
    1   AR   Ar  237   6.021   2.946   5.795
    1   AR   Ar  238   5.857   3.962   6.327
    1   AR   Ar  239   6.832   4.562   9.382
    1   AR   Ar  240   6.830   2.386   7.308
    1   AR   Ar  241   1.763   6.713  -0.297
    1   AR   Ar  242   5.342   5.580   0.216
    1   AR   Ar  243   5.072   4.869   3.190
    1   AR   Ar  244   0.308   5.826   0.172
    1   AR   Ar  245   3.796   0.889   1.733
    1   AR   Ar  246   5.751   6.895  -0.162
    1   AR   Ar  247   5.946   3.835   0.644
    1   AR   Ar  248   6.017   5.796  -0.724
    1   AR   Ar  249   4.505   6.193   1.372
    1   AR   Ar  250   4.935   5.535   4.729
    1   AR   Ar  251   4.931   4.586   4.158
    1   AR   Ar  252   3.936   5.586   3.118
    1   AR   Ar  253   6.977   3.620   6.315
    1   AR   Ar  254   2.080   2.574   8.783
    1   AR   Ar  255   3.892   4.739   9.863
    1   AR   Ar  256   6.536   4.774   3.407
    7.12000  7.12000 12.00000
Argon-slab step 3755
  256
    1   AR   Ar    1   5.015   1.876  -2.233
    1   AR   Ar    2   5.848   0.419   0.733
    1   AR   Ar    3   3.793   1.639  -1.424
    1   AR   Ar    4   1.736   0.691  -0.108
    1   AR   Ar    5   6.496   6.350   0.189
    1   AR   Ar    6   0.129   1.398   2.262
    1   AR   Ar    7   5.645   3.932   2.954
    1   AR   Ar    8   4.742   1.284   1.129
    1   AR   Ar    9   1.110   0.057   2.947
    1   AR   Ar   10   0.549   7.061   3.881
    1   AR   Ar   11   1.747   7.011   4.355
    1   AR   Ar   12   0.793   1.225   3.088
    1   AR   Ar   13   0.067   0.478   4.717
    1   AR   Ar   14   5.243   1.736   8.026
    1   AR   Ar   15   3.809   6.205   8.005
    1   AR   Ar   16   1.001   6.831   4.964
    1   AR   Ar   17   6.896   2.085   1.020
    1   AR   Ar   18   6.254   4.851  -1.088
    1   AR   Ar   19   3.915   3.517   0.233
    1   AR   Ar   20   5.814   4.424  -2.604
    1   AR   Ar   21   3.101   1.741   1.439
    1   AR   Ar   22   6.656   1.836   3.278
    1   AR   Ar   23   0.313   0.338   0.787
    1   AR   Ar   24   6.165   2.007   1.970
    1   AR   Ar   25   0.501   1.643   4.254
    1   AR   Ar   26   6.415   7.070   4.018
    1   AR   Ar   27   1.956   0.914   2.483
    1   AR   Ar   28   0.190   2.731   4.767
    1   AR   Ar   29   5.571   3.083   6.883
    1   AR   Ar   30   1.904   1.188   3.968
    1   AR   Ar   31   3.463   0.673   7.625
    1   AR   Ar   32   0.976   2.642   7.092
    1   AR   Ar   33   0.337   4.426   0.439
    1   AR   Ar   34   0.136   5.005   2.575
    1   AR   Ar   35   5.700   5.753   1.350
    1   AR   Ar   36   5.806   1.952  -2.894
    1   AR   Ar   37   5.526   2.481   2.725
    1   AR   Ar   38   6.833   3.887   2.989
    1   AR   Ar   39   0.707   3.877   2.799
    1   AR   Ar   40   1.467   3.889   1.692
    1   AR   Ar   41   0.204   2.501   3.667
    1   AR   Ar   42   6.045   5.239   4.995
    1   AR   Ar   43   7.048   2.408   6.060
    1   AR   Ar   44   0.334   4.606   3.696
    1   AR   Ar   45   0.688   3.109   5.881
    1   AR   Ar   46   0.083   5.158   4.848
    1   AR   Ar   47   5.143   3.949   7.263
    1   AR   Ar   48   6.519   4.150   7.146
    1   AR   Ar   49   5.189   0.487  -1.016
    1   AR   Ar   50   4.262   5.460   0.458
    1   AR   Ar   51   6.827   4.892   1.470
    1   AR   Ar   52   5.924   3.110  -2.278
    1   AR   Ar   53   5.471   5.764   2.303
    1   AR   Ar   54   0.579   6.166   2.482
    1   AR   Ar   55   6.483   5.675   2.620
    1   AR   Ar   56   6.537   0.338   1.926
    1   AR   Ar   57   4.530   3.506   2.720
    1   AR   Ar   58   7.021   3.480   3.943
    1   AR   Ar   59   2.554   4.806   6.115
    1   AR   Ar   60   0.457   5.734   3.462
    1   AR   Ar   61   0.252   4.568   6.769
    1   AR   Ar   62   6.766   4.320   4.386
    1   AR   Ar   63   1.726   1.441   6.202
    1   AR   Ar   64   0.965   5.520   5.322
    1   AR   Ar   65   4.035   0.000   1.279
    1   AR   Ar   66   1.242   1.462   1.631
    1   AR   Ar   67   4.236   0.014  -0.161
    1   AR   Ar   68   1.666   1.712  -1.084
    1   AR   Ar   69   2.684   1.726   0.414
    1   AR   Ar   70   0.559   0.300   1.814
    1   AR   Ar   71   2.864   1.190   3.496
    1   AR   Ar   72   4.157   6.579   2.388
    1   AR   Ar   73   4.274   0.248   3.132
    1   AR   Ar   74   1.124   0.666   4.710
    1   AR   Ar   75   3.532   0.708   5.090
    1   AR   Ar   76   1.558   0.577   1.222
    1   AR   Ar   77   2.130   6.561   5.359
    1   AR   Ar   78   0.367   6.336   5.900
    1   AR   Ar   79   3.994   5.879   6.288
    1   AR   Ar   80   3.809   5.105   5.597
    1   AR   Ar   81   2.714   6.264   0.116
    1   AR   Ar   82   6.638   5.050   0.312
    1   AR   Ar   83   1.347   2.117   0.719
    1   AR   Ar   84   0.556   4.046   1.454
    1   AR   Ar   85   0.942   3.208   0.909
    1   AR   Ar   86   2.217   5.410   1.005
    1   AR   Ar   87   2.240   2.547   1.382
    1   AR   Ar   88   2.526   4.771   1.853
    1   AR   Ar   89   0.098   2.821   2.627
    1   AR   Ar   90   3.034   1.769   4.677
    1   AR   Ar   91   1.684   2.160   3.570
    1   AR   Ar   92   1.418   2.684   2.156
    1   AR   Ar   93   0.670   0.459   5.675
    1   AR   Ar   94   0.069   7.031  11.019
    1   AR   Ar   95   4.604   0.501   5.506
    1   AR   Ar   96   3.048   6.901   4.596
    1   AR   Ar   97   4.235   2.201  -0.275
    1   AR   Ar   98   1.607   4.735   2.963
    1   AR   Ar   99   6.619   1.307   0.297
    1   AR   Ar  100   1.423   2.916  -0.784
    1   AR   Ar  101   3.221   5.539   1.853
    1   AR   Ar  102   3.780   1.393   2.709
    1   AR   Ar  103   1.326   4.724   0.802
    1   AR   Ar  104   3.431   4.063  -1.021
    1   AR   Ar  105   2.508   2.546   4.073
    1   AR   Ar  106   3.833   3.015   5.442
    1   AR   Ar  107   0.911   3.979   4.652
    1   AR   Ar  108   2.189   0.889   5.018
    1   AR   Ar  109   1.648   2.982   5.175
    1   AR   Ar  110   2.771   2.447   5.531
    1   AR   Ar  111   5.297   5.349   7.071
    1   AR   Ar  112   0.905   5.340   6.355
    1   AR   Ar  113   3.590   4.597   0.273
    1   AR   Ar  114   2.601   0.324  -0.551
    1   AR   Ar  115   2.486   5.139   0.119
    1   AR   Ar  116   6.422   0.537  -0.363
    1   AR   Ar  117   1.281   5.247   4.119
    1   AR   Ar  118   1.539   5.694   3.223
    1   AR   Ar  119   2.308   3.953   2.439
    1   AR   Ar  120   2.005   6.372   1.390
    1   AR   Ar  121   5.500   4.044   5.272
    1   AR   Ar  122   2.835   5.913   5.849
    1   AR   Ar  123   3.141   3.942   5.121
    1   AR   Ar  124   1.563   5.131   2.009
    1   AR   Ar  125   6.957   3.659   5.223
    1   AR   Ar  126   6.882   6.518   4.984
    1   AR   Ar  127   4.598   3.975   6.274
    1   AR   Ar  128   3.461   4.546   6.330
    1   AR   Ar  129   2.274   6.142   3.801
    1   AR   Ar  130   4.478   2.326  -3.328
    1   AR   Ar  131   3.663   2.832  -0.780
    1   AR   Ar  132   0.408   2.431  -0.042
    1   AR   Ar  133   4.936   6.264   3.133
    1   AR   Ar  134   4.544   1.161   4.554
    1   AR   Ar  135   6.204   1.011   2.666
    1   AR   Ar  136   5.907   6.726   2.350
    1   AR   Ar  137   2.128   4.427   4.116
    1   AR   Ar  138   5.047   1.264   6.109
    1   AR   Ar  139   5.901   1.833   5.605
    1   AR   Ar  140   4.097   0.036   4.327
    1   AR   Ar  141   3.855   4.955   4.303
    1   AR   Ar  142   3.559   7.035   5.918
    1   AR   Ar  143   6.467   6.610   6.007
    1   AR   Ar  144   6.867   1.523   5.185
    1   AR   Ar  145   4.902   4.810  -0.443
    1   AR   Ar  146   3.025   2.918   1.972
    1   AR   Ar  147   4.758   2.518  -1.317
    1   AR   Ar  148   3.423   6.664  -0.879
    1   AR   Ar  149   2.726   1.838  -0.905
    1   AR   Ar  150   2.384   1.862   2.263
    1   AR   Ar  151   2.338   2.590   2.950
    1   AR   Ar  152   2.249   2.749  -1.457
    1   AR   Ar  153   5.011   0.397   3.911
    1   AR   Ar  154   3.684   1.926   3.757
    1   AR   Ar  155   6.490   4.524   5.832
    1   AR   Ar  156   2.985   3.828   3.450
    1   AR   Ar  157   1.104   4.456   5.878
    1   AR   Ar  158   0.340   1.648   6.666
    1   AR   Ar  159   4.226   1.397   7.484
    1   AR   Ar  160   1.739   2.068   4.741
    1   AR   Ar  161   5.115   4.249   2.137
    1   AR   Ar  162   4.573   6.090  -0.318
    1   AR   Ar  163   6.091   4.045  -0.463
    1   AR   Ar  164   2.478   5.789   2.541
    1   AR   Ar  165   4.881   2.342   0.604
    1   AR   Ar  166   3.280   3.151   4.504
    1   AR   Ar  167   4.952   0.295   2.361
    1   AR   Ar  168   5.201   4.028  -1.601
    1   AR   Ar  169   3.250   4.474   2.524
    1   AR   Ar  170   2.136   3.737   5.962
    1   AR   Ar  171   5.475   3.680   3.937
    1   AR   Ar  172   4.257   4.258   5.232
    1   AR   Ar  173   2.973   3.130   6.514
    1   AR   Ar  174   2.039   5.833   6.438
    1   AR   Ar  175   3.680   1.954   5.937
    1   AR   Ar  176   4.089   2.255   4.711
    1   AR   Ar  177   0.384   5.725  -0.945
    1   AR   Ar  178   3.743   5.380  -0.628
    1   AR   Ar  179   3.667   6.322   0.211
    1   AR   Ar  180   3.109   1.174  -3.701
    1   AR   Ar  181   0.616   5.527   1.434
    1   AR   Ar  182   2.152   6.889   2.728
    1   AR   Ar  183   4.564   5.350   2.128
    1   AR   Ar  184   5.046   6.795   0.600
    1   AR   Ar  185   3.042   5.215   4.889
    1   AR   Ar  186   3.018   5.434   3.474
    1   AR   Ar  187   3.072   6.618   3.202
    1   AR   Ar  188   3.033   6.759   2.155
    1   AR   Ar  189   4.523   2.987   6.122
    1   AR   Ar  190   3.627   6.161   4.092
    1   AR   Ar  191   2.618   6.278   7.559
    1   AR   Ar  192   4.023   6.156   5.168
    1   AR   Ar  193   3.182   6.202   1.033
    1   AR   Ar  194   4.384   3.913  -0.611
    1   AR   Ar  195   5.484   1.589   0.280
    1   AR   Ar  196   4.588   1.001   0.026
    1   AR   Ar  197   3.765   1.474   0.689
    1   AR   Ar  198   6.744   1.066   1.312
    1   AR   Ar  199   3.258   0.555   2.700
    1   AR   Ar  200   5.787   2.481  -0.389
    1   AR   Ar  201   5.854   6.235   3.398
    1   AR   Ar  202   5.755   1.133   4.762
    1   AR   Ar  203   0.010   0.223   2.943
    1   AR   Ar  204   5.538   6.258   5.478
    1   AR   Ar  205   6.803   6.438   1.787
    1   AR   Ar  206   5.611   0.148   5.427
    1   AR   Ar  207   0.809   1.740   5.562
    1   AR   Ar  208   0.580   6.019   4.420
    1   AR   Ar  209   7.019   2.533  -1.833
    1   AR   Ar  210   2.547   0.086   0.885
    1   AR   Ar  211   7.097   3.486   0.673
    1   AR   Ar  212   6.367   3.292  -1.193
    1   AR   Ar  213   2.647   0.583   1.861
    1   AR   Ar  214   4.638   2.952   1.594
    1   AR   Ar  215   5.807   3.000   1.724
    1   AR   Ar  216   0.620   2.412   1.514
    1   AR   Ar  217   5.253   2.714   4.046
    1   AR   Ar  218   4.602   3.373   4.734
    1   AR   Ar  219   3.937   3.008   3.644
    1   AR   Ar  220   3.732   2.862   1.072
    1   AR   Ar  221   6.674   5.732   3.963
    1   AR   Ar  222   4.712   7.050   6.742
    1   AR   Ar  223   5.672   1.979   6.610
    1   AR   Ar  224   4.866   2.186   5.444
    1   AR   Ar  225   6.291   2.934   3.156
    1   AR   Ar  226   1.926   3.445   3.603
    1   AR   Ar  227   6.715   3.507   1.684
    1   AR   Ar  228   5.432   6.905   1.485
    1   AR   Ar  229   5.732   5.342  -1.803
    1   AR   Ar  230   3.950   4.221   3.510
    1   AR   Ar  231   5.465   1.566   3.957
    1   AR   Ar  232   5.296   2.170   1.455
    1   AR   Ar  233   6.348   2.159   4.297
    1   AR   Ar  234   6.169   3.107   4.664
    1   AR   Ar  235   6.712   1.149   4.107
    1   AR   Ar  236   5.077   4.874   5.594
    1   AR   Ar  237   6.029   2.954   5.848
    1   AR   Ar  238   5.846   3.961   6.338
    1   AR   Ar  239   6.835   4.575   9.388
    1   AR   Ar  240   6.812   2.383   7.313
    1   AR   Ar  241   1.774   6.709  -0.287
    1   AR   Ar  242   5.351   5.598   0.222
    1   AR   Ar  243   5.058   4.879   3.197
    1   AR   Ar  244   0.311   5.812   0.192
    1   AR   Ar  245   3.790   0.905   1.721
    1   AR   Ar  246   5.773   6.876  -0.136
    1   AR   Ar  247   5.957   3.818   0.633
    1   AR   Ar  248   5.999   5.786  -0.694
    1   AR   Ar  249   4.500   6.187   1.348
    1   AR   Ar  250   4.963   5.568   4.773
    1   AR   Ar  251   4.941   4.588   4.161
    1   AR   Ar  252   3.938   5.570   3.118
    1   AR   Ar  253   6.992   3.603   6.327
    1   AR   Ar  254   2.118   2.604   8.763
    1   AR   Ar  255   3.898   4.746   9.853
    1   AR   Ar  256   6.526   4.772   3.421
    7.12000  7.12000 12.00000
Argon-slab step 3760
  256
    1   AR   Ar    1   5.011   1.847  -2.276
    1   AR   Ar    2   5.837   0.428   0.693
    1   AR   Ar    3   3.788   1.673  -1.439
    1   AR   Ar    4   1.714   0.676  -0.101
    1   AR   Ar    5   6.519   6.340   0.210
    1   AR   Ar    6   0.111   1.404   2.238
    1   AR   Ar    7   5.658   3.933   2.965
    1   AR   Ar    8   4.748   1.314   1.114
    1   AR   Ar    9   1.125   0.031   3.001
    1   AR   Ar   10   0.568   7.075   3.891
    1   AR   Ar   11   1.757   6.998   4.325
    1   AR   Ar   12   0.777   1.203   3.116
    1   AR   Ar   13   0.040   0.509   4.731
    1   AR   Ar   14   5.207   1.734   8.025
    1   AR   Ar   15   3.746   6.189   8.000
    1   AR   Ar   16   0.986   6.823   4.994
    1   AR   Ar   17   6.917   2.047   1.025
    1   AR   Ar   18   6.265   4.838  -1.103
    1   AR   Ar   19   3.944   3.521   0.217
    1   AR   Ar   20   5.826   4.420  -2.605
    1   AR   Ar   21   3.075   1.747   1.446
    1   AR   Ar   22   6.647   1.849   3.299
    1   AR   Ar   23   0.308   0.324   0.777
    1   AR   Ar   24   6.142   2.002   1.980
    1   AR   Ar   25   0.505   1.632   4.242
    1   AR   Ar   26   6.427   7.066   4.004
    1   AR   Ar   27   1.928   0.928   2.473
    1   AR   Ar   28   0.216   2.747   4.730
    1   AR   Ar   29   5.561   3.058   6.909
    1   AR   Ar   30   1.916   1.163   3.951
    1   AR   Ar   31   3.452   0.631   7.643
    1   AR   Ar   32   0.940   2.637   7.099
    1   AR   Ar   33   0.361   4.406   0.456
    1   AR   Ar   34   0.145   4.987   2.585
    1   AR   Ar   35   5.694   5.756   1.336
    1   AR   Ar   36   5.812   1.982  -2.900
    1   AR   Ar   37   5.527   2.503   2.736
    1   AR   Ar   38   6.814   3.893   2.984
    1   AR   Ar   39   0.727   3.851   2.830
    1   AR   Ar   40   1.469   3.909   1.693
    1   AR   Ar   41   0.231   2.508   3.643
    1   AR   Ar   42   6.057   5.231   4.984
    1   AR   Ar   43   7.044   2.433   6.061
    1   AR   Ar   44   0.328   4.604   3.709
    1   AR   Ar   45   0.735   3.111   5.860
    1   AR   Ar   46   0.059   5.166   4.817
    1   AR   Ar   47   5.132   3.955   7.235
    1   AR   Ar   48   6.516   4.126   7.180
    1   AR   Ar   49   5.172   0.486  -1.050
    1   AR   Ar   50   4.268   5.486   0.460
    1   AR   Ar   51   6.847   4.850   1.476
    1   AR   Ar   52   5.933   3.122  -2.260
    1   AR   Ar   53   5.466   5.709   2.295
    1   AR   Ar   54   0.578   6.183   2.492
    1   AR   Ar   55   6.482   5.683   2.609
    1   AR   Ar   56   6.539   0.340   1.942
    1   AR   Ar   57   4.518   3.516   2.714
    1   AR   Ar   58   6.994   3.492   3.966
    1   AR   Ar   59   2.570   4.799   6.124
    1   AR   Ar   60   0.453   5.739   3.466
    1   AR   Ar   61   0.277   4.572   6.787
    1   AR   Ar   62   6.746   4.364   4.411
    1   AR   Ar   63   1.689   1.466   6.214
    1   AR   Ar   64   0.965   5.522   5.328
    1   AR   Ar   65   4.080   0.012   1.298
    1   AR   Ar   66   1.228   1.489   1.590
    1   AR   Ar   67   4.250   0.021  -0.153
    1   AR   Ar   68   1.663   1.701  -1.056
    1   AR   Ar   69   2.691   1.761   0.388
    1   AR   Ar   70   0.556   0.303   1.844
    1   AR   Ar   71   2.868   1.204   3.499
    1   AR   Ar   72   4.139   6.599   2.341
    1   AR   Ar   73   4.280   0.209   3.103
    1   AR   Ar   74   1.155   0.660   4.722
    1   AR   Ar   75   3.554   0.679   5.104
    1   AR   Ar   76   1.562   0.564   1.220
    1   AR   Ar   77   2.115   6.508   5.351
    1   AR   Ar   78   0.404   6.347   5.897
    1   AR   Ar   79   4.029   5.873   6.299
    1   AR   Ar   80   3.790   5.151   5.559
    1   AR   Ar   81   2.681   6.264   0.115
    1   AR   Ar   82   6.657   5.027   0.311
    1   AR   Ar   83   1.359   2.106   0.695
    1   AR   Ar   84   0.543   4.069   1.461
    1   AR   Ar   85   0.958   3.197   0.898
    1   AR   Ar   86   2.209   5.379   1.014
    1   AR   Ar   87   2.267   2.565   1.394
    1   AR   Ar   88   2.544   4.783   1.841
    1   AR   Ar   89   0.083   2.803   2.605
    1   AR   Ar   90   3.014   1.765   4.681
    1   AR   Ar   91   1.677   2.178   3.561
    1   AR   Ar   92   1.386   2.716   2.140
    1   AR   Ar   93   0.691   0.486   5.626
    1   AR   Ar   94   0.073   7.006  11.016
    1   AR   Ar   95   4.627   0.502   5.486
    1   AR   Ar   96   3.029   6.864   4.603
    1   AR   Ar   97   4.267   2.193  -0.254
    1   AR   Ar   98   1.587   4.703   2.970
    1   AR   Ar   99   6.609   1.317   0.311
    1   AR   Ar  100   1.432   2.885  -0.776
    1   AR   Ar  101   3.243   5.572   1.877
    1   AR   Ar  102   3.788   1.400   2.698
    1   AR   Ar  103   1.322   4.705   0.788
    1   AR   Ar  104   3.455   4.064  -1.009
    1   AR   Ar  105   2.510   2.540   4.066
    1   AR   Ar  106   3.832   3.038   5.460
    1   AR   Ar  107   0.885   3.995   4.636
    1   AR   Ar  108   2.192   0.877   5.026
    1   AR   Ar  109   1.633   3.013   5.172
    1   AR   Ar  110   2.780   2.411   5.514
    1   AR   Ar  111   5.305   5.364   7.041
    1   AR   Ar  112   0.932   5.339   6.335
    1   AR   Ar  113   3.584   4.592   0.261
    1   AR   Ar  114   2.577   0.340  -0.567
    1   AR   Ar  115   2.515   5.151   0.083
    1   AR   Ar  116   6.429   0.562  -0.347
    1   AR   Ar  117   1.289   5.238   4.112
    1   AR   Ar  118   1.524   5.676   3.226
    1   AR   Ar  119   2.306   3.975   2.445
    1   AR   Ar  120   2.008   6.378   1.384
    1   AR   Ar  121   5.505   4.028   5.280
    1   AR   Ar  122   2.839   5.924   5.846
    1   AR   Ar  123   3.096   3.938   5.099
    1   AR   Ar  124   1.589   5.119   1.979
    1   AR   Ar  125   6.969   3.624   5.241
    1   AR   Ar  126   6.888   6.519   4.984
    1   AR   Ar  127   4.604   3.975   6.279
    1   AR   Ar  128   3.435   4.548   6.363
    1   AR   Ar  129   2.244   6.162   3.802
    1   AR   Ar  130   4.506   2.337  -3.326
    1   AR   Ar  131   3.657   2.858  -0.807
    1   AR   Ar  132   0.437   2.390  -0.046
    1   AR   Ar  133   4.913   6.272   3.129
    1   AR   Ar  134   4.542   1.133   4.544
    1   AR   Ar  135   6.200   1.026   2.662
    1   AR   Ar  136   5.909   6.729   2.327
    1   AR   Ar  137   2.119   4.382   4.139
    1   AR   Ar  138   5.053   1.241   6.126
    1   AR   Ar  139   5.910   1.825   5.563
    1   AR   Ar  140   4.114   0.037   4.323
    1   AR   Ar  141   3.848   4.983   4.255
    1   AR   Ar  142   3.574   7.057   5.900
    1   AR   Ar  143   6.461   6.601   6.024
    1   AR   Ar  144   6.879   1.524   5.173
    1   AR   Ar  145   4.892   4.825  -0.443
    1   AR   Ar  146   3.033   2.911   1.956
    1   AR   Ar  147   4.765   2.516  -1.297
    1   AR   Ar  148   3.401   6.685  -0.900
    1   AR   Ar  149   2.752   1.848  -0.914
    1   AR   Ar  150   2.393   1.841   2.263
    1   AR   Ar  151   2.344   2.587   2.969
    1   AR   Ar  152   2.244   2.733  -1.479
    1   AR   Ar  153   5.024   0.383   3.927
    1   AR   Ar  154   3.688   1.908   3.772
    1   AR   Ar  155   6.548   4.532   5.836
    1   AR   Ar  156   2.946   3.867   3.471
    1   AR   Ar  157   1.114   4.450   5.857
    1   AR   Ar  158   0.344   1.617   6.638
    1   AR   Ar  159   4.252   1.369   7.476
    1   AR   Ar  160   1.726   2.071   4.766
    1   AR   Ar  161   5.117   4.254   2.169
    1   AR   Ar  162   4.575   6.088  -0.307
    1   AR   Ar  163   6.088   4.048  -0.461
    1   AR   Ar  164   2.470   5.818   2.552
    1   AR   Ar  165   4.898   2.362   0.578
    1   AR   Ar  166   3.282   3.113   4.505
    1   AR   Ar  167   4.954   0.273   2.360
    1   AR   Ar  168   5.216   4.043  -1.593
    1   AR   Ar  169   3.267   4.457   2.497
    1   AR   Ar  170   2.134   3.691   5.937
    1   AR   Ar  171   5.461   3.676   3.921
    1   AR   Ar  172   4.264   4.234   5.224
    1   AR   Ar  173   2.983   3.147   6.538
    1   AR   Ar  174   2.036   5.831   6.423
    1   AR   Ar  175   3.692   1.955   5.895
    1   AR   Ar  176   4.107   2.253   4.718
    1   AR   Ar  177   0.409   5.711  -0.955
    1   AR   Ar  178   3.734   5.380  -0.641
    1   AR   Ar  179   3.676   6.305   0.215
    1   AR   Ar  180   3.139   1.154  -3.712
    1   AR   Ar  181   0.606   5.501   1.417
    1   AR   Ar  182   2.123   6.857   2.721
    1   AR   Ar  183   4.581   5.364   2.118
    1   AR   Ar  184   5.047   6.810   0.597
    1   AR   Ar  185   3.042   5.222   4.893
    1   AR   Ar  186   3.045   5.442   3.483
    1   AR   Ar  187   3.049   6.609   3.189
    1   AR   Ar  188   3.044   6.749   2.165
    1   AR   Ar  189   4.543   3.014   6.133
    1   AR   Ar  190   3.636   6.174   4.085
    1   AR   Ar  191   2.611   6.269   7.545
    1   AR   Ar  192   4.020   6.160   5.185
    1   AR   Ar  193   3.210   6.196   1.013
    1   AR   Ar  194   4.403   3.926  -0.605
    1   AR   Ar  195   5.491   1.551   0.310
    1   AR   Ar  196   4.582   1.007   0.024
    1   AR   Ar  197   3.767   1.428   0.676
    1   AR   Ar  198   6.744   1.066   1.307
    1   AR   Ar  199   3.271   0.543   2.705
    1   AR   Ar  200   5.781   2.484  -0.408
    1   AR   Ar  201   5.882   6.257   3.373
    1   AR   Ar  202   5.740   1.117   4.780
    1   AR   Ar  203   0.042   0.222   2.959
    1   AR   Ar  204   5.554   6.284   5.508
    1   AR   Ar  205   6.797   6.447   1.759
    1   AR   Ar  206   5.630   0.158   5.418
    1   AR   Ar  207   0.809   1.737   5.583
    1   AR   Ar  208   0.589   6.024   4.437
    1   AR   Ar  209   7.026   2.523  -1.829
    1   AR   Ar  210   2.549   0.099   0.865
    1   AR   Ar  211   7.096   3.461   0.668
    1   AR   Ar  212   6.371   3.285  -1.212
    1   AR   Ar  213   2.631   0.567   1.848
    1   AR   Ar  214   4.628   2.963   1.579
    1   AR   Ar  215   5.838   3.017   1.739
    1   AR   Ar  216   0.599   2.402   1.495
    1   AR   Ar  217   5.247   2.724   4.065
    1   AR   Ar  218   4.603   3.356   4.763
    1   AR   Ar  219   3.936   3.032   3.648
    1   AR   Ar  220   3.725   2.818   1.036
    1   AR   Ar  221   6.660   5.710   3.935
    1   AR   Ar  222   4.742   7.047   6.727
    1   AR   Ar  223   5.688   1.980   6.633
    1   AR   Ar  224   4.860   2.197   5.461
    1   AR   Ar  225   6.328   2.932   3.153
    1   AR   Ar  226   1.909   3.443   3.570
    1   AR   Ar  227   6.719   3.508   1.683
    1   AR   Ar  228   5.424   6.871   1.526
    1   AR   Ar  229   5.705   5.346  -1.799
    1   AR   Ar  230   3.947   4.204   3.528
    1   AR   Ar  231   5.464   1.548   3.937
    1   AR   Ar  232   5.275   2.149   1.444
    1   AR   Ar  233   6.344   2.153   4.305
    1   AR   Ar  234   6.151   3.084   4.672
    1   AR   Ar  235   6.713   1.125   4.108
    1   AR   Ar  236   5.087   4.845   5.574
    1   AR   Ar  237   6.037   2.962   5.899
    1   AR   Ar  238   5.826   3.954   6.352
    1   AR   Ar  239   6.838   4.587   9.394
    1   AR   Ar  240   6.794   2.379   7.315
    1   AR   Ar  241   1.780   6.697  -0.281
    1   AR   Ar  242   5.340   5.625   0.218
    1   AR   Ar  243   5.044   4.892   3.196
    1   AR   Ar  244   0.316   5.795   0.212
    1   AR   Ar  245   3.783   0.925   1.711
    1   AR   Ar  246   5.777   6.864  -0.121
    1   AR   Ar  247   5.979   3.818   0.621
    1   AR   Ar  248   5.980   5.780  -0.661
    1   AR   Ar  249   4.498   6.178   1.323
    1   AR   Ar  250   4.976   5.565   4.777
    1   AR   Ar  251   4.948   4.588   4.172
    1   AR   Ar  252   3.943   5.557   3.106
    1   AR   Ar  253   7.004   3.585   6.340
    1   AR   Ar  254   2.156   2.633   8.742
    1   AR   Ar  255   3.904   4.753   9.842
    1   AR   Ar  256   6.501   4.776   3.431
    7.12000  7.12000 12.00000
Argon-slab step 3765
  256
    1   AR   Ar    1   5.009   1.827  -2.312
    1   AR   Ar    2   5.832   0.432   0.688
    1   AR   Ar    3   3.784   1.709  -1.453
    1   AR   Ar    4   1.689   0.664  -0.090
    1   AR   Ar    5   6.551   6.326   0.236
    1   AR   Ar    6   0.093   1.410   2.214
    1   AR   Ar    7   5.686   3.935   2.982
    1   AR   Ar    8   4.752   1.341   1.098
    1   AR   Ar    9   1.141   0.006   3.051
    1   AR   Ar   10   0.558   7.075   3.889
    1   AR   Ar   11   1.772   6.986   4.291
    1   AR   Ar   12   0.761   1.181   3.146
    1   AR   Ar   13   0.018   0.531   4.753
    1   AR   Ar   14   5.170   1.732   8.023
    1   AR   Ar   15   3.695   6.174   7.995
    1   AR   Ar   16   0.968   6.805   5.029
    1   AR   Ar   17   6.923   2.012   1.023
    1   AR   Ar   18   6.273   4.846  -1.099
    1   AR   Ar   19   3.969   3.522   0.204
    1   AR   Ar   20   5.837   4.416  -2.604
    1   AR   Ar   21   3.048   1.755   1.452
    1   AR   Ar   22   6.635   1.860   3.316
    1   AR   Ar   23   0.302   0.311   0.767
    1   AR   Ar   24   6.116   2.032   1.994
    1   AR   Ar   25   0.511   1.621   4.232
    1   AR   Ar   26   6.442   7.063   3.991
    1   AR   Ar   27   1.892   0.941   2.469
    1   AR   Ar   28   0.242   2.760   4.694
    1   AR   Ar   29   5.553   3.029   6.933
    1   AR   Ar   30   1.924   1.137   3.936
    1   AR   Ar   31   3.442   0.588   7.661
    1   AR   Ar   32   0.902   2.632   7.103
    1   AR   Ar   33   0.385   4.387   0.471
    1   AR   Ar   34   0.158   4.966   2.595
    1   AR   Ar   35   5.690   5.761   1.310
    1   AR   Ar   36   5.823   2.013  -2.908
    1   AR   Ar   37   5.535   2.513   2.716
    1   AR   Ar   38   6.793   3.898   2.976
    1   AR   Ar   39   0.751   3.825   2.859
    1   AR   Ar   40   1.487   3.926   1.699
    1   AR   Ar   41   0.261   2.519   3.622
    1   AR   Ar   42   6.066   5.222   4.976
    1   AR   Ar   43   7.038   2.458   6.061
    1   AR   Ar   44   0.339   4.582   3.701
    1   AR   Ar   45   0.782   3.114   5.837
    1   AR   Ar   46   0.057   5.190   4.806
    1   AR   Ar   47   5.120   3.965   7.208
    1   AR   Ar   48   6.509   4.100   7.215
    1   AR   Ar   49   5.156   0.485  -1.081
    1   AR   Ar   50   4.274   5.504   0.468
    1   AR   Ar   51   6.831   4.826   1.474
    1   AR   Ar   52   5.943   3.134  -2.241
    1   AR   Ar   53   5.486   5.693   2.285
    1   AR   Ar   54   0.577   6.201   2.502
    1   AR   Ar   55   6.481   5.694   2.599
    1   AR   Ar   56   6.542   0.335   1.963
    1   AR   Ar   57   4.506   3.526   2.709
    1   AR   Ar   58   6.968   3.498   3.987
    1   AR   Ar   59   2.558   4.801   6.124
    1   AR   Ar   60   0.452   5.741   3.464
    1   AR   Ar   61   0.304   4.590   6.806
    1   AR   Ar   62   6.715   4.406   4.442
    1   AR   Ar   63   1.651   1.492   6.225
    1   AR   Ar   64   0.960   5.524   5.325
    1   AR   Ar   65   4.088   7.113   1.301
    1   AR   Ar   66   1.213   1.518   1.552
    1   AR   Ar   67   4.264   0.026  -0.146
    1   AR   Ar   68   1.661   1.690  -1.027
    1   AR   Ar   69   2.698   1.796   0.362
    1   AR   Ar   70   0.553   0.307   1.876
    1   AR   Ar   71   2.875   1.219   3.501
    1   AR   Ar   72   4.121   6.616   2.292
    1   AR   Ar   73   4.279   0.171   3.083
    1   AR   Ar   74   1.186   0.665   4.725
    1   AR   Ar   75   3.576   0.651   5.116
    1   AR   Ar   76   1.568   0.549   1.219
    1   AR   Ar   77   2.097   6.457   5.341
    1   AR   Ar   78   0.443   6.357   5.892
    1   AR   Ar   79   4.062   5.865   6.310
    1   AR   Ar   80   3.777   5.196   5.524
    1   AR   Ar   81   2.639   6.265   0.111
    1   AR   Ar   82   6.672   5.006   0.310
    1   AR   Ar   83   1.370   2.096   0.672
    1   AR   Ar   84   0.530   4.088   1.458
    1   AR   Ar   85   0.978   3.186   0.886
    1   AR   Ar   86   2.198   5.352   1.030
    1   AR   Ar   87   2.284   2.582   1.408
    1   AR   Ar   88   2.564   4.795   1.825
    1   AR   Ar   89   0.071   2.785   2.579
    1   AR   Ar   90   2.995   1.759   4.684
    1   AR   Ar   91   1.656   2.190   3.558
    1   AR   Ar   92   1.357   2.749   2.126
    1   AR   Ar   93   0.708   0.516   5.584
    1   AR   Ar   94   0.077   6.980  11.014
    1   AR   Ar   95   4.646   0.502   5.464
    1   AR   Ar   96   3.008   6.828   4.611
    1   AR   Ar   97   4.299   2.181  -0.234
    1   AR   Ar   98   1.567   4.661   2.977
    1   AR   Ar   99   6.598   1.331   0.325
    1   AR   Ar  100   1.419   2.862  -0.770
    1   AR   Ar  101   3.270   5.606   1.903
    1   AR   Ar  102   3.800   1.414   2.688
    1   AR   Ar  103   1.320   4.664   0.749
    1   AR   Ar  104   3.476   4.066  -0.998
    1   AR   Ar  105   2.508   2.533   4.070
    1   AR   Ar  106   3.821   3.062   5.470
    1   AR   Ar  107   0.857   4.012   4.620
    1   AR   Ar  108   2.196   0.866   5.033
    1   AR   Ar  109   1.617   3.049   5.170
    1   AR   Ar  110   2.788   2.380   5.497
    1   AR   Ar  111   5.313   5.378   7.010
    1   AR   Ar  112   0.959   5.343   6.323
    1   AR   Ar  113   3.578   4.588   0.247
    1   AR   Ar  114   2.558   0.354  -0.583
    1   AR   Ar  115   2.549   5.161   0.039
    1   AR   Ar  116   6.435   0.584  -0.334
    1   AR   Ar  117   1.295   5.224   4.110
    1   AR   Ar  118   1.509   5.668   3.222
    1   AR   Ar  119   2.300   3.992   2.454
    1   AR   Ar  120   2.012   6.386   1.380
    1   AR   Ar  121   5.517   3.997   5.280
    1   AR   Ar  122   2.857   5.934   5.837
    1   AR   Ar  123   3.051   3.938   5.081
    1   AR   Ar  124   1.610   5.110   1.948
    1   AR   Ar  125   6.980   3.590   5.259
    1   AR   Ar  126   6.897   6.522   4.976
    1   AR   Ar  127   4.634   4.018   6.271
    1   AR   Ar  128   3.431   4.532   6.373
    1   AR   Ar  129   2.241   6.134   3.812
    1   AR   Ar  130   4.535   2.346  -3.323
    1   AR   Ar  131   3.649   2.886  -0.836
    1   AR   Ar  132   0.466   2.342  -0.052
    1   AR   Ar  133   4.879   6.281   3.121
    1   AR   Ar  134   4.540   1.106   4.536
    1   AR   Ar  135   6.194   1.040   2.665
    1   AR   Ar  136   5.919   6.724   2.326
    1   AR   Ar  137   2.109   4.337   4.161
    1   AR   Ar  138   5.059   1.219   6.143
    1   AR   Ar  139   5.918   1.819   5.521
    1   AR   Ar  140   4.100   0.046   4.338
    1   AR   Ar  141   3.844   5.013   4.208
    1   AR   Ar  142   3.590   7.077   5.881
    1   AR   Ar  143   6.454   6.594   6.041
    1   AR   Ar  144   6.893   1.525   5.159
    1   AR   Ar  145   4.884   4.845  -0.442
    1   AR   Ar  146   3.062   2.904   1.955
    1   AR   Ar  147   4.771   2.514  -1.275
    1   AR   Ar  148   3.378   6.705  -0.917
    1   AR   Ar  149   2.780   1.859  -0.921
    1   AR   Ar  150   2.375   1.816   2.283
    1   AR   Ar  151   2.359   2.595   2.983
    1   AR   Ar  152   2.241   2.714  -1.502
    1   AR   Ar  153   5.008   0.363   3.920
    1   AR   Ar  154   3.690   1.890   3.786
    1   AR   Ar  155   6.607   4.541   5.837
    1   AR   Ar  156   2.905   3.904   3.491
    1   AR   Ar  157   1.125   4.438   5.833
    1   AR   Ar  158   0.348   1.587   6.610
    1   AR   Ar  159   4.279   1.342   7.468
    1   AR   Ar  160   1.708   2.071   4.745
    1   AR   Ar  161   5.115   4.264   2.197
    1   AR   Ar  162   4.579   6.091  -0.302
    1   AR   Ar  163   6.082   4.049  -0.456
    1   AR   Ar  164   2.460   5.846   2.566
    1   AR   Ar  165   4.908   2.389   0.541
    1   AR   Ar  166   3.287   3.072   4.504
    1   AR   Ar  167   4.962   0.250   2.353
    1   AR   Ar  168   5.231   4.058  -1.583
    1   AR   Ar  169   3.290   4.441   2.474
    1   AR   Ar  170   2.133   3.647   5.910
    1   AR   Ar  171   5.453   3.699   3.924
    1   AR   Ar  172   4.269   4.211   5.216
    1   AR   Ar  173   2.994   3.165   6.559
    1   AR   Ar  174   2.048   5.839   6.405
    1   AR   Ar  175   3.705   1.957   5.851
    1   AR   Ar  176   4.108   2.252   4.693
    1   AR   Ar  177   0.432   5.696  -0.964
    1   AR   Ar  178   3.725   5.380  -0.651
    1   AR   Ar  179   3.705   6.293   0.194
    1   AR   Ar  180   3.170   1.133  -3.722
    1   AR   Ar  181   0.597   5.474   1.400
    1   AR   Ar  182   2.092   6.827   2.713
    1   AR   Ar  183   4.582   5.374   2.106
    1   AR   Ar  184   5.040   6.821   0.587
    1   AR   Ar  185   3.053   5.234   4.919
    1   AR   Ar  186   3.061   5.448   3.496
    1   AR   Ar  187   3.029   6.598   3.182
    1   AR   Ar  188   3.057   6.736   2.167
    1   AR   Ar  189   4.573   3.027   6.150
    1   AR   Ar  190   3.646   6.184   4.076
    1   AR   Ar  191   2.605   6.259   7.529
    1   AR   Ar  192   4.017   6.166   5.200
    1   AR   Ar  193   3.200   6.217   1.003
    1   AR   Ar  194   4.426   3.936  -0.602
    1   AR   Ar  195   5.502   1.511   0.339
    1   AR   Ar  196   4.576   1.016   0.023
    1   AR   Ar  197   3.769   1.382   0.661
    1   AR   Ar  198   6.746   1.068   1.300
    1   AR   Ar  199   3.281   0.522   2.712
    1   AR   Ar  200   5.768   2.475  -0.423
    1   AR   Ar  201   5.920   6.280   3.351
    1   AR   Ar  202   5.728   1.093   4.807
    1   AR   Ar  203   0.072   0.222   2.973
    1   AR   Ar  204   5.568   6.298   5.537
    1   AR   Ar  205   6.791   6.451   1.730
    1   AR   Ar  206   5.653   0.176   5.407
    1   AR   Ar  207   0.807   1.734   5.603
    1   AR   Ar  208   0.587   6.041   4.455
    1   AR   Ar  209   7.031   2.514  -1.824
    1   AR   Ar  210   2.552   0.110   0.844
    1   AR   Ar  211   7.097   3.436   0.661
    1   AR   Ar  212   6.375   3.277  -1.233
    1   AR   Ar  213   2.620   0.551   1.829
    1   AR   Ar  214   4.620   2.977   1.565
    1   AR   Ar  215   5.862   3.034   1.755
    1   AR   Ar  216   0.593   2.404   1.490
    1   AR   Ar  217   5.239   2.722   4.086
    1   AR   Ar  218   4.606   3.335   4.789
    1   AR   Ar  219   3.936   3.026   3.647
    1   AR   Ar  220   3.715   2.772   1.000
    1   AR   Ar  221   6.643   5.690   3.913
    1   AR   Ar  222   4.772   7.044   6.710
    1   AR   Ar  223   5.704   1.983   6.658
    1   AR   Ar  224   4.849   2.209   5.477
    1   AR   Ar  225   6.368   2.934   3.158
    1   AR   Ar  226   1.892   3.440   3.536
    1   AR   Ar  227   6.730   3.512   1.672
    1   AR   Ar  228   5.407   6.839   1.553
    1   AR   Ar  229   5.675   5.352  -1.797
    1   AR   Ar  230   3.948   4.186   3.544
    1   AR   Ar  231   5.460   1.537   3.905
    1   AR   Ar  232   5.260   2.125   1.444
    1   AR   Ar  233   6.342   2.143   4.313
    1   AR   Ar  234   6.133   3.068   4.683
    1   AR   Ar  235   6.705   1.105   4.101
    1   AR   Ar  236   5.090   4.830   5.562
    1   AR   Ar  237   6.047   2.970   5.950
    1   AR   Ar  238   5.803   3.947   6.365
    1   AR   Ar  239   6.841   4.599   9.400
    1   AR   Ar  240   6.776   2.376   7.314
    1   AR   Ar  241   1.784   6.711  -0.274
    1   AR   Ar  242   5.334   5.650   0.219
    1   AR   Ar  243   5.029   4.908   3.188
    1   AR   Ar  244   0.324   5.778   0.234
    1   AR   Ar  245   3.774   0.947   1.701
    1   AR   Ar  246   5.770   6.858  -0.117
    1   AR   Ar  247   5.971   3.812   0.608
    1   AR   Ar  248   5.962   5.775  -0.628
    1   AR   Ar  249   4.497   6.165   1.300
    1   AR   Ar  250   4.989   5.562   4.781
    1   AR   Ar  251   4.952   4.587   4.191
    1   AR   Ar  252   3.968   5.545   3.066
    1   AR   Ar  253   7.013   3.567   6.352
    1   AR   Ar  254   2.194   2.663   8.722
    1   AR   Ar  255   3.909   4.761   9.832
    1   AR   Ar  256   6.466   4.785   3.437
    7.12000  7.12000 12.00000
Argon-slab step 3770
  256
    1   AR   Ar    1   5.013   1.817  -2.340
    1   AR   Ar    2   5.830   0.438   0.684
    1   AR   Ar    3   3.781   1.747  -1.466
    1   AR   Ar    4   1.670   0.654  -0.083
    1   AR   Ar    5   6.585   6.309   0.266
    1   AR   Ar    6   0.074   1.416   2.191
    1   AR   Ar    7   5.719   3.937   2.995
    1   AR   Ar    8   4.752   1.359   1.081
    1   AR   Ar    9   1.158   7.103   3.098
    1   AR   Ar   10   0.522   7.056   3.890
    1   AR   Ar   11   1.787   6.974   4.257
    1   AR   Ar   12   0.745   1.157   3.177
    1   AR   Ar   13   0.004   0.542   4.783
    1   AR   Ar   14   5.134   1.730   8.021
    1   AR   Ar   15   3.688   6.167   7.995
    1   AR   Ar   16   0.951   6.784   5.065
    1   AR   Ar   17   6.911   1.989   1.016
    1   AR   Ar   18   6.272   4.847  -1.097
    1   AR   Ar   19   3.992   3.519   0.196
    1   AR   Ar   20   5.847   4.411  -2.600
    1   AR   Ar   21   3.023   1.762   1.457
    1   AR   Ar   22   6.621   1.868   3.328
    1   AR   Ar   23   0.295   0.298   0.757
    1   AR   Ar   24   6.100   2.057   2.009
    1   AR   Ar   25   0.519   1.611   4.223
    1   AR   Ar   26   6.458   7.060   3.978
    1   AR   Ar   27   1.849   0.949   2.470
    1   AR   Ar   28   0.268   2.770   4.659
    1   AR   Ar   29   5.544   2.999   6.957
    1   AR   Ar   30   1.928   1.111   3.924
    1   AR   Ar   31   3.431   0.544   7.678
    1   AR   Ar   32   0.862   2.627   7.106
    1   AR   Ar   33   0.407   4.369   0.481
    1   AR   Ar   34   0.172   4.943   2.606
    1   AR   Ar   35   5.688   5.768   1.275
    1   AR   Ar   36   5.837   2.047  -2.919
    1   AR   Ar   37   5.538   2.524   2.698
    1   AR   Ar   38   6.774   3.902   2.965
    1   AR   Ar   39   0.776   3.799   2.889
    1   AR   Ar   40   1.513   3.943   1.706
    1   AR   Ar   41   0.293   2.532   3.602
    1   AR   Ar   42   6.075   5.212   4.968
    1   AR   Ar   43   7.032   2.483   6.059
    1   AR   Ar   44   0.356   4.560   3.693
    1   AR   Ar   45   0.829   3.118   5.815
    1   AR   Ar   46   0.061   5.221   4.799
    1   AR   Ar   47   5.109   3.977   7.184
    1   AR   Ar   48   6.502   4.073   7.250
    1   AR   Ar   49   5.167   0.466  -1.092
    1   AR   Ar   50   4.281   5.512   0.481
    1   AR   Ar   51   6.792   4.813   1.466
    1   AR   Ar   52   5.952   3.146  -2.222
    1   AR   Ar   53   5.465   5.709   2.331
    1   AR   Ar   54   0.578   6.218   2.509
    1   AR   Ar   55   6.484   5.706   2.591
    1   AR   Ar   56   6.548   0.330   1.985
    1   AR   Ar   57   4.496   3.504   2.712
    1   AR   Ar   58   6.943   3.502   4.006
    1   AR   Ar   59   2.526   4.809   6.117
    1   AR   Ar   60   0.453   5.740   3.458
    1   AR   Ar   61   0.330   4.607   6.823
    1   AR   Ar   62   6.675   4.439   4.473
    1   AR   Ar   63   1.614   1.517   6.235
    1   AR   Ar   64   0.934   5.522   5.305
    1   AR   Ar   65   4.094   7.096   1.303
    1   AR   Ar   66   1.197   1.545   1.519
    1   AR   Ar   67   4.277   0.030  -0.140
    1   AR   Ar   68   1.659   1.681  -0.997
    1   AR   Ar   69   2.705   1.831   0.336
    1   AR   Ar   70   0.549   0.312   1.909
    1   AR   Ar   71   2.884   1.235   3.500
    1   AR   Ar   72   4.104   6.630   2.242
    1   AR   Ar   73   4.272   0.134   3.072
    1   AR   Ar   74   1.219   0.677   4.717
    1   AR   Ar   75   3.598   0.628   5.123
    1   AR   Ar   76   1.575   0.531   1.217
    1   AR   Ar   77   2.076   6.408   5.327
    1   AR   Ar   78   0.482   6.367   5.886
    1   AR   Ar   79   4.095   5.859   6.321
    1   AR   Ar   80   3.782   5.235   5.503
    1   AR   Ar   81   2.596   6.266   0.106
    1   AR   Ar   82   6.682   4.987   0.309
    1   AR   Ar   83   1.382   2.088   0.647
    1   AR   Ar   84   0.529   4.095   1.446
    1   AR   Ar   85   1.002   3.177   0.875
    1   AR   Ar   86   2.190   5.352   1.055
    1   AR   Ar   87   2.293   2.595   1.418
    1   AR   Ar   88   2.588   4.806   1.807
    1   AR   Ar   89   0.069   2.771   2.553
    1   AR   Ar   90   2.977   1.750   4.683
    1   AR   Ar   91   1.624   2.197   3.560
    1   AR   Ar   92   1.331   2.784   2.113
    1   AR   Ar   93   0.720   0.550   5.554
    1   AR   Ar   94   0.081   6.955  11.012
    1   AR   Ar   95   4.662   0.501   5.441
    1   AR   Ar   96   2.985   6.794   4.622
    1   AR   Ar   97   4.315   2.183  -0.232
    1   AR   Ar   98   1.546   4.615   2.984
    1   AR   Ar   99   6.587   1.348   0.334
    1   AR   Ar  100   1.405   2.838  -0.764
    1   AR   Ar  101   3.300   5.641   1.929
    1   AR   Ar  102   3.814   1.433   2.679
    1   AR   Ar  103   1.349   4.688   0.793
    1   AR   Ar  104   3.493   4.068  -0.987
    1   AR   Ar  105   2.504   2.525   4.073
    1   AR   Ar  106   3.803   3.085   5.477
    1   AR   Ar  107   0.828   4.029   4.603
    1   AR   Ar  108   2.202   0.856   5.039
    1   AR   Ar  109   1.603   3.086   5.166
    1   AR   Ar  110   2.793   2.353   5.480
    1   AR   Ar  111   5.321   5.391   6.979
    1   AR   Ar  112   0.985   5.350   6.319
    1   AR   Ar  113   3.573   4.585   0.232
    1   AR   Ar  114   2.543   0.365  -0.601
    1   AR   Ar  115   2.585   5.170  -0.006
    1   AR   Ar  116   6.439   0.600  -0.324
    1   AR   Ar  117   1.298   5.207   4.114
    1   AR   Ar  118   1.493   5.666   3.209
    1   AR   Ar  119   2.292   4.005   2.467
    1   AR   Ar  120   2.018   6.394   1.377
    1   AR   Ar  121   5.535   3.952   5.276
    1   AR   Ar  122   2.888   5.941   5.822
    1   AR   Ar  123   3.006   3.941   5.065
    1   AR   Ar  124   1.623   5.103   1.918
    1   AR   Ar  125   6.990   3.558   5.276
    1   AR   Ar  126   6.906   6.525   4.948
    1   AR   Ar  127   4.665   4.071   6.259
    1   AR   Ar  128   3.486   4.470   6.383
    1   AR   Ar  129   2.246   6.094   3.825
    1   AR   Ar  130   4.566   2.355  -3.319
    1   AR   Ar  131   3.642   2.915  -0.865
    1   AR   Ar  132   0.495   2.295  -0.055
    1   AR   Ar  133   4.841   6.290   3.110
    1   AR   Ar  134   4.536   1.082   4.529
    1   AR   Ar  135   6.179   1.041   2.696
    1   AR   Ar  136   5.941   6.712   2.353
    1   AR   Ar  137   2.099   4.294   4.184
    1   AR   Ar  138   5.066   1.200   6.159
    1   AR   Ar  139   5.925   1.818   5.483
    1   AR   Ar  140   4.082   0.053   4.354
    1   AR   Ar  141   3.842   5.045   4.162
    1   AR   Ar  142   3.607   7.092   5.865
    1   AR   Ar  143   6.449   6.587   6.057
    1   AR   Ar  144   6.908   1.527   5.145
    1   AR   Ar  145   4.879   4.871  -0.440
    1   AR   Ar  146   3.097   2.899   1.959
    1   AR   Ar  147   4.777   2.511  -1.253
    1   AR   Ar  148   3.357   6.724  -0.932
    1   AR   Ar  149   2.782   1.854  -0.920
    1   AR   Ar  150   2.341   1.793   2.316
    1   AR   Ar  151   2.381   2.610   2.991
    1   AR   Ar  152   2.238   2.695  -1.523
    1   AR   Ar  153   4.997   0.342   3.912
    1   AR   Ar  154   3.692   1.872   3.799
    1   AR   Ar  155   6.668   4.550   5.837
    1   AR   Ar  156   2.863   3.941   3.510
    1   AR   Ar  157   1.135   4.422   5.806
    1   AR   Ar  158   0.353   1.558   6.582
    1   AR   Ar  159   4.306   1.314   7.459
    1   AR   Ar  160   1.690   2.067   4.711
    1   AR   Ar  161   5.110   4.277   2.220
    1   AR   Ar  162   4.585   6.099  -0.309
    1   AR   Ar  163   6.076   4.048  -0.449
    1   AR   Ar  164   2.446   5.869   2.573
    1   AR   Ar  165   4.917   2.421   0.504
    1   AR   Ar  166   3.263   3.053   4.521
    1   AR   Ar  167   4.974   0.229   2.341
    1   AR   Ar  168   5.248   4.073  -1.572
    1   AR   Ar  169   3.318   4.424   2.456
    1   AR   Ar  170   2.133   3.604   5.884
    1   AR   Ar  171   5.448   3.729   3.938
    1   AR   Ar  172   4.271   4.192   5.208
    1   AR   Ar  173   3.004   3.183   6.578
    1   AR   Ar  174   2.050   5.845   6.391
    1   AR   Ar  175   3.722   1.959   5.806
    1   AR   Ar  176   4.108   2.252   4.669
    1   AR   Ar  177   0.455   5.681  -0.971
    1   AR   Ar  178   3.717   5.380  -0.658
    1   AR   Ar  179   3.738   6.290   0.157
    1   AR   Ar  180   3.200   1.113  -3.733
    1   AR   Ar  181   0.579   5.488   1.415
    1   AR   Ar  182   2.060   6.799   2.704
    1   AR   Ar  183   4.569   5.379   2.093
    1   AR   Ar  184   5.032   6.828   0.573
    1   AR   Ar  185   3.041   5.230   4.922
    1   AR   Ar  186   3.069   5.437   3.502
    1   AR   Ar  187   3.013   6.586   3.181
    1   AR   Ar  188   3.069   6.721   2.161
    1   AR   Ar  189   4.609   3.032   6.171
    1   AR   Ar  190   3.659   6.190   4.065
    1   AR   Ar  191   2.599   6.250   7.513
    1   AR   Ar  192   4.013   6.176   5.214
    1   AR   Ar  193   3.181   6.238   1.013
    1   AR   Ar  194   4.454   3.944  -0.604
    1   AR   Ar  195   5.515   1.470   0.368
    1   AR   Ar  196   4.573   1.027   0.021
    1   AR   Ar  197   3.769   1.338   0.646
    1   AR   Ar  198   6.748   1.064   1.296
    1   AR   Ar  199   3.289   0.497   2.720
    1   AR   Ar  200   5.754   2.466  -0.438
    1   AR   Ar  201   5.959   6.303   3.328
    1   AR   Ar  202   5.717   1.066   4.833
    1   AR   Ar  203   0.099   0.223   2.985
    1   AR   Ar  204   5.579   6.304   5.565
    1   AR   Ar  205   6.788   6.453   1.701
    1   AR   Ar  206   5.679   0.201   5.396
    1   AR   Ar  207   0.804   1.732   5.620
    1   AR   Ar  208   0.585   6.057   4.470
    1   AR   Ar  209   7.035   2.506  -1.819
    1   AR   Ar  210   2.562   0.072   0.860
    1   AR   Ar  211   7.094   3.408   0.654
    1   AR   Ar  212   6.378   3.269  -1.252
    1   AR   Ar  213   2.612   0.538   1.817
    1   AR   Ar  214   4.612   2.994   1.553
    1   AR   Ar  215   5.875   3.048   1.772
    1   AR   Ar  216   0.589   2.409   1.489
    1   AR   Ar  217   5.230   2.711   4.108
    1   AR   Ar  218   4.613   3.310   4.812
    1   AR   Ar  219   3.938   3.021   3.646
    1   AR   Ar  220   3.704   2.722   0.963
    1   AR   Ar  221   6.624   5.671   3.896
    1   AR   Ar  222   4.802   7.041   6.692
    1   AR   Ar  223   5.721   1.986   6.681
    1   AR   Ar  224   4.839   2.220   5.495
    1   AR   Ar  225   6.405   2.938   3.171
    1   AR   Ar  226   1.888   3.443   3.506
    1   AR   Ar  227   6.751   3.521   1.663
    1   AR   Ar  228   5.395   6.825   1.563
    1   AR   Ar  229   5.643   5.358  -1.797
    1   AR   Ar  230   3.952   4.167   3.558
    1   AR   Ar  231   5.456   1.527   3.871
    1   AR   Ar  232   5.233   2.134   1.465
    1   AR   Ar  233   6.328   2.148   4.295
    1   AR   Ar  234   6.113   3.060   4.697
    1   AR   Ar  235   6.687   1.092   4.084
    1   AR   Ar  236   5.088   4.826   5.555
    1   AR   Ar  237   6.057   2.977   5.998
    1   AR   Ar  238   5.781   3.941   6.376
    1   AR   Ar  239   6.844   4.611   9.406
    1   AR   Ar  240   6.759   2.374   7.311
    1   AR   Ar  241   1.785   6.726  -0.268
    1   AR   Ar  242   5.332   5.675   0.225
    1   AR   Ar  243   5.015   4.924   3.175
    1   AR   Ar  244   0.336   5.758   0.256
    1   AR   Ar  245   3.765   0.968   1.692
    1   AR   Ar  246   5.759   6.853  -0.122
    1   AR   Ar  247   5.956   3.802   0.595
    1   AR   Ar  248   5.944   5.772  -0.594
    1   AR   Ar  249   4.499   6.148   1.278
    1   AR   Ar  250   5.000   5.561   4.784
    1   AR   Ar  251   4.954   4.588   4.215
    1   AR   Ar  252   4.001   5.534   3.022
    1   AR   Ar  253   7.021   3.550   6.365
    1   AR   Ar  254   2.232   2.692   8.701
    1   AR   Ar  255   3.915   4.768   9.822
    1   AR   Ar  256   6.425   4.794   3.441
    7.12000  7.12000 12.00000
Argon-slab step 3775
  256
    1   AR   Ar    1   5.012   1.808  -2.365
    1   AR   Ar    2   5.829   0.448   0.683
    1   AR   Ar    3   3.778   1.786  -1.478
    1   AR   Ar    4   1.680   0.649  -0.106
    1   AR   Ar    5   6.615   6.293   0.298
    1   AR   Ar    6   0.057   1.423   2.170
    1   AR   Ar    7   5.754   3.940   3.003
    1   AR   Ar    8   4.745   1.368   1.062
    1   AR   Ar    9   1.175   7.081   3.141
    1   AR   Ar   10   0.483   7.034   3.903
    1   AR   Ar   11   1.804   6.968   4.228
    1   AR   Ar   12   0.740   1.133   3.215
    1   AR   Ar   13   7.106   0.520   4.804
    1   AR   Ar   14   5.100   1.729   8.018
    1   AR   Ar   15   3.681   6.160   7.995
    1   AR   Ar   16   0.940   6.766   5.097
    1   AR   Ar   17   6.900   1.983   1.010
    1   AR   Ar   18   6.273   4.849  -1.097
    1   AR   Ar   19   3.984   3.506   0.179
    1   AR   Ar   20   5.873   4.384  -2.633
    1   AR   Ar   21   2.999   1.770   1.462
    1   AR   Ar   22   6.612   1.861   3.337
    1   AR   Ar   23   0.286   0.286   0.748
    1   AR   Ar   24   6.098   2.071   2.022
    1   AR   Ar   25   0.509   1.635   4.193
    1   AR   Ar   26   6.476   7.059   3.965
    1   AR   Ar   27   1.798   0.946   2.473
    1   AR   Ar   28   0.294   2.777   4.627
    1   AR   Ar   29   5.536   2.971   6.981
    1   AR   Ar   30   1.929   1.085   3.914
    1   AR   Ar   31   3.422   0.501   7.696
    1   AR   Ar   32   0.820   2.621   7.107
    1   AR   Ar   33   0.426   4.352   0.484
    1   AR   Ar   34   0.188   4.920   2.618
    1   AR   Ar   35   5.686   5.777   1.240
    1   AR   Ar   36   5.854   2.083  -2.933
    1   AR   Ar   37   5.533   2.539   2.685
    1   AR   Ar   38   6.761   3.907   2.952
    1   AR   Ar   39   0.801   3.773   2.918
    1   AR   Ar   40   1.543   3.959   1.715
    1   AR   Ar   41   0.326   2.545   3.582
    1   AR   Ar   42   6.072   5.229   4.962
    1   AR   Ar   43   7.026   2.507   6.056
    1   AR   Ar   44   0.373   4.539   3.683
    1   AR   Ar   45   0.867   3.122   5.797
    1   AR   Ar   46   0.065   5.258   4.795
    1   AR   Ar   47   5.098   3.990   7.167
    1   AR   Ar   48   6.494   4.046   7.282
    1   AR   Ar   49   5.197   0.434  -1.088
    1   AR   Ar   50   4.288   5.507   0.497
    1   AR   Ar   51   6.753   4.800   1.458
    1   AR   Ar   52   5.951   3.152  -2.202
    1   AR   Ar   53   5.456   5.752   2.371
    1   AR   Ar   54   0.594   6.228   2.513
    1   AR   Ar   55   6.508   5.689   2.557
    1   AR   Ar   56   6.557   0.326   2.009
    1   AR   Ar   57   4.487   3.475   2.717
    1   AR   Ar   58   6.918   3.506   4.024
    1   AR   Ar   59   2.490   4.820   6.106
    1   AR   Ar   60   0.454   5.737   3.450
    1   AR   Ar   61   0.355   4.621   6.838
    1   AR   Ar   62   6.629   4.462   4.501
    1   AR   Ar   63   1.580   1.541   6.248
    1   AR   Ar   64   0.912   5.520   5.283
    1   AR   Ar   65   4.098   7.085   1.301
    1   AR   Ar   66   1.183   1.569   1.491
    1   AR   Ar   67   4.290   0.034  -0.136
    1   AR   Ar   68   1.657   1.673  -0.966
    1   AR   Ar   69   2.712   1.866   0.311
    1   AR   Ar   70   0.559   0.322   1.930
    1   AR   Ar   71   2.895   1.251   3.498
    1   AR   Ar   72   4.091   6.643   2.197
    1   AR   Ar   73   4.261   0.097   3.069
    1   AR   Ar   74   1.254   0.693   4.697
    1   AR   Ar   75   3.619   0.614   5.121
    1   AR   Ar   76   1.582   0.513   1.216
    1   AR   Ar   77   2.052   6.360   5.311
    1   AR   Ar   78   0.518   6.375   5.884
    1   AR   Ar   79   4.128   5.855   6.333
    1   AR   Ar   80   3.806   5.265   5.499
    1   AR   Ar   81   2.560   6.263   0.105
    1   AR   Ar   82   6.688   4.968   0.307
    1   AR   Ar   83   1.395   2.083   0.620
    1   AR   Ar   84   0.526   4.102   1.439
    1   AR   Ar   85   1.029   3.170   0.864
    1   AR   Ar   86   2.183   5.365   1.074
    1   AR   Ar   87   2.295   2.605   1.425
    1   AR   Ar   88   2.618   4.813   1.791
    1   AR   Ar   89   0.090   2.769   2.545
    1   AR   Ar   90   2.961   1.735   4.677
    1   AR   Ar   91   1.587   2.199   3.564
    1   AR   Ar   92   1.309   2.820   2.102
    1   AR   Ar   93   0.726   0.586   5.540
    1   AR   Ar   94   0.085   6.929  11.010
    1   AR   Ar   95   4.674   0.498   5.417
    1   AR   Ar   96   2.960   6.761   4.634
    1   AR   Ar   97   4.316   2.193  -0.249
    1   AR   Ar   98   1.525   4.567   2.992
    1   AR   Ar   99   6.573   1.365   0.335
    1   AR   Ar  100   1.391   2.812  -0.757
    1   AR   Ar  101   3.332   5.676   1.956
    1   AR   Ar  102   3.827   1.453   2.673
    1   AR   Ar  103   1.381   4.713   0.840
    1   AR   Ar  104   3.480   4.043  -0.994
    1   AR   Ar  105   2.499   2.515   4.076
    1   AR   Ar  106   3.781   3.108   5.483
    1   AR   Ar  107   0.797   4.046   4.587
    1   AR   Ar  108   2.211   0.847   5.045
    1   AR   Ar  109   1.592   3.120   5.152
    1   AR   Ar  110   2.795   2.333   5.467
    1   AR   Ar  111   5.328   5.403   6.945
    1   AR   Ar  112   1.012   5.360   6.320
    1   AR   Ar  113   3.568   4.583   0.215
    1   AR   Ar  114   2.531   0.376  -0.619
    1   AR   Ar  115   2.622   5.179  -0.051
    1   AR   Ar  116   6.441   0.609  -0.319
    1   AR   Ar  117   1.298   5.187   4.122
    1   AR   Ar  118   1.479   5.669   3.189
    1   AR   Ar  119   2.285   4.015   2.483
    1   AR   Ar  120   2.025   6.402   1.375
    1   AR   Ar  121   5.555   3.901   5.269
    1   AR   Ar  122   2.929   5.947   5.803
    1   AR   Ar  123   2.969   3.946   5.054
    1   AR   Ar  124   1.627   5.097   1.891
    1   AR   Ar  125   6.999   3.528   5.293
    1   AR   Ar  126   6.899   6.515   4.933
    1   AR   Ar  127   4.693   4.128   6.242
    1   AR   Ar  128   3.546   4.407   6.392
    1   AR   Ar  129   2.254   6.055   3.839
    1   AR   Ar  130   4.585   2.360  -3.319
    1   AR   Ar  131   3.636   2.943  -0.893
    1   AR   Ar  132   0.525   2.248  -0.057
    1   AR   Ar  133   4.804   6.299   3.097
    1   AR   Ar  134   4.532   1.061   4.523
    1   AR   Ar  135   6.165   1.044   2.728
    1   AR   Ar  136   5.968   6.696   2.393
    1   AR   Ar  137   2.087   4.252   4.207
    1   AR   Ar  138   5.074   1.181   6.175
    1   AR   Ar  139   5.933   1.824   5.450
    1   AR   Ar  140   4.063   0.059   4.370
    1   AR   Ar  141   3.842   5.078   4.118
    1   AR   Ar  142   3.626   7.098   5.856
    1   AR   Ar  143   6.449   6.582   6.074
    1   AR   Ar  144   6.897   1.507   5.151
    1   AR   Ar  145   4.874   4.903  -0.436
    1   AR   Ar  146   3.137   2.894   1.967
    1   AR   Ar  147   4.782   2.508  -1.230
    1   AR   Ar  148   3.336   6.742  -0.944
    1   AR   Ar  149   2.745   1.825  -0.908
    1   AR   Ar  150   2.312   1.777   2.345
    1   AR   Ar  151   2.396   2.613   3.012
    1   AR   Ar  152   2.231   2.677  -1.539
    1   AR   Ar  153   4.990   0.322   3.901
    1   AR   Ar  154   3.694   1.855   3.808
    1   AR   Ar  155   6.728   4.557   5.836
    1   AR   Ar  156   2.823   3.978   3.528
    1   AR   Ar  157   1.146   4.404   5.777
    1   AR   Ar  158   0.358   1.530   6.556
    1   AR   Ar  159   4.332   1.285   7.449
    1   AR   Ar  160   1.672   2.062   4.677
    1   AR   Ar  161   5.103   4.293   2.240
    1   AR   Ar  162   4.599   6.110  -0.329
    1   AR   Ar  163   6.090   4.089  -0.432
    1   AR   Ar  164   2.433   5.881   2.577
    1   AR   Ar  165   4.933   2.457   0.474
    1   AR   Ar  166   3.248   3.052   4.489
    1   AR   Ar  167   4.989   0.211   2.329
    1   AR   Ar  168   5.267   4.089  -1.561
    1   AR   Ar  169   3.349   4.408   2.442
    1   AR   Ar  170   2.137   3.565   5.862
    1   AR   Ar  171   5.444   3.756   3.960
    1   AR   Ar  172   4.269   4.177   5.202
    1   AR   Ar  173   3.016   3.201   6.595
    1   AR   Ar  174   2.047   5.851   6.381
    1   AR   Ar  175   3.743   1.961   5.760
    1   AR   Ar  176   4.109   2.255   4.649
    1   AR   Ar  177   0.477   5.666  -0.977
    1   AR   Ar  178   3.705   5.373  -0.615
    1   AR   Ar  179   3.757   6.293   0.118
    1   AR   Ar  180   3.231   1.092  -3.743
    1   AR   Ar  181   0.562   5.502   1.429
    1   AR   Ar  182   2.031   6.777   2.692
    1   AR   Ar  183   4.545   5.380   2.077
    1   AR   Ar  184   5.017   6.832   0.563
    1   AR   Ar  185   3.023   5.204   4.901
    1   AR   Ar  186   3.074   5.415   3.502
    1   AR   Ar  187   3.000   6.573   3.186
    1   AR   Ar  188   3.077   6.704   2.147
    1   AR   Ar  189   4.647   3.034   6.194
    1   AR   Ar  190   3.673   6.194   4.053
    1   AR   Ar  191   2.589   6.242   7.512
    1   AR   Ar  192   4.010   6.193   5.224
    1   AR   Ar  193   3.159   6.259   1.032
    1   AR   Ar  194   4.486   3.950  -0.611
    1   AR   Ar  195   5.530   1.430   0.395
    1   AR   Ar  196   4.572   1.041   0.018
    1   AR   Ar  197   3.765   1.296   0.631
    1   AR   Ar  198   6.740   1.070   1.295
    1   AR   Ar  199   3.295   0.471   2.727
    1   AR   Ar  200   5.738   2.457  -0.453
    1   AR   Ar  201   5.996   6.325   3.307
    1   AR   Ar  202   5.706   1.037   4.852
    1   AR   Ar  203   0.122   0.226   2.991
    1   AR   Ar  204   5.586   6.302   5.591
    1   AR   Ar  205   6.786   6.451   1.671
    1   AR   Ar  206   5.709   0.225   5.387
    1   AR   Ar  207   0.798   1.732   5.631
    1   AR   Ar  208   0.584   6.072   4.476
    1   AR   Ar  209   7.038   2.499  -1.814
    1   AR   Ar  210   2.572   0.032   0.873
    1   AR   Ar  211   7.089   3.379   0.646
    1   AR   Ar  212   6.391   3.279  -1.236
    1   AR   Ar  213   2.615   0.534   1.839
    1   AR   Ar  214   4.606   3.006   1.542
    1   AR   Ar  215   5.880   3.062   1.789
    1   AR   Ar  216   0.584   2.416   1.490
    1   AR   Ar  217   5.221   2.696   4.130
    1   AR   Ar  218   4.623   3.280   4.831
    1   AR   Ar  219   3.941   3.015   3.646
    1   AR   Ar  220   3.692   2.671   0.926
    1   AR   Ar  221   6.605   5.659   3.886
    1   AR   Ar  222   4.831   7.038   6.671
    1   AR   Ar  223   5.744   1.993   6.705
    1   AR   Ar  224   4.829   2.230   5.511
    1   AR   Ar  225   6.437   2.942   3.190
    1   AR   Ar  226   1.904   3.453   3.482
    1   AR   Ar  227   6.778   3.533   1.655
    1   AR   Ar  228   5.404   6.834   1.562
    1   AR   Ar  229   5.610   5.364  -1.798
    1   AR   Ar  230   3.960   4.128   3.549
    1   AR   Ar  231   5.474   1.526   3.863
    1   AR   Ar  232   5.215   2.148   1.486
    1   AR   Ar  233   6.315   2.148   4.279
    1   AR   Ar  234   6.098   3.089   4.692
    1   AR   Ar  235   6.663   1.084   4.060
    1   AR   Ar  236   5.084   4.828   5.552
    1   AR   Ar  237   6.067   2.982   6.043
    1   AR   Ar  238   5.761   3.937   6.384
    1   AR   Ar  239   6.854   4.624   9.410
    1   AR   Ar  240   6.743   2.370   7.309
    1   AR   Ar  241   1.780   6.743  -0.264
    1   AR   Ar  242   5.334   5.698   0.240
    1   AR   Ar  243   5.000   4.941   3.161
    1   AR   Ar  244   0.353   5.735   0.278
    1   AR   Ar  245   3.755   0.988   1.684
    1   AR   Ar  246   5.750   6.847  -0.136
    1   AR   Ar  247   5.942   3.791   0.585
    1   AR   Ar  248   5.928   5.770  -0.564
    1   AR   Ar  249   4.504   6.129   1.258
    1   AR   Ar  250   5.009   5.561   4.787
    1   AR   Ar  251   4.952   4.592   4.243
    1   AR   Ar  252   4.035   5.524   2.978
    1   AR   Ar  253   7.028   3.534   6.380
    1   AR   Ar  254   2.260   2.712   8.698
    1   AR   Ar  255   3.921   4.775   9.811
    1   AR   Ar  256   6.381   4.797   3.441
    7.12000  7.12000 12.00000
Argon-slab step 3780
  256
    1   AR   Ar    1   5.008   1.799  -2.387
    1   AR   Ar    2   5.831   0.456   0.684
    1   AR   Ar    3   3.776   1.827  -1.488
    1   AR   Ar    4   1.685   0.650  -0.124
    1   AR   Ar    5   6.639   6.279   0.330
    1   AR   Ar    6   0.041   1.431   2.154
    1   AR   Ar    7   5.784   3.942   3.008
    1   AR   Ar    8   4.731   1.370   1.044
    1   AR   Ar    9   1.191   7.062   3.184
    1   AR   Ar   10   0.444   7.012   3.926
    1   AR   Ar   11   1.832   6.981   4.220
    1   AR   Ar   12   0.742   1.108   3.258
    1   AR   Ar   13   7.076   0.458   4.805
    1   AR   Ar   14   5.067   1.729   8.016
    1   AR   Ar   15   3.674   6.154   7.993
    1   AR   Ar   16   0.940   6.759   5.121
    1   AR   Ar   17   6.906   2.023   0.992
    1   AR   Ar   18   6.274   4.854  -1.099
    1   AR   Ar   19   3.966   3.490   0.162
    1   AR   Ar   20   5.898   4.356  -2.663
    1   AR   Ar   21   2.977   1.778   1.465
    1   AR   Ar   22   6.608   1.844   3.342
    1   AR   Ar   23   0.335   0.266   0.751
    1   AR   Ar   24   6.109   2.075   2.031
    1   AR   Ar   25   0.495   1.668   4.160
    1   AR   Ar   26   6.496   7.058   3.954
    1   AR   Ar   27   1.740   0.932   2.479
    1   AR   Ar   28   0.322   2.781   4.598
    1   AR   Ar   29   5.526   2.947   7.006
    1   AR   Ar   30   1.927   1.060   3.905
    1   AR   Ar   31   3.413   0.457   7.712
    1   AR   Ar   32   0.783   2.620   7.107
    1   AR   Ar   33   0.445   4.339   0.478
    1   AR   Ar   34   0.204   4.896   2.631
    1   AR   Ar   35   5.685   5.787   1.207
    1   AR   Ar   36   5.874   2.120  -2.948
    1   AR   Ar   37   5.522   2.558   2.680
    1   AR   Ar   38   6.759   3.915   2.937
    1   AR   Ar   39   0.824   3.746   2.947
    1   AR   Ar   40   1.574   3.974   1.723
    1   AR   Ar   41   0.360   2.560   3.561
    1   AR   Ar   42   6.075   5.219   4.964
    1   AR   Ar   43   7.023   2.527   6.053
    1   AR   Ar   44   0.390   4.518   3.674
    1   AR   Ar   45   0.893   3.126   5.789
    1   AR   Ar   46   0.071   5.273   4.795
    1   AR   Ar   47   5.086   4.008   7.143
    1   AR   Ar   48   6.486   4.019   7.312
    1   AR   Ar   49   5.226   0.402  -1.082
    1   AR   Ar   50   4.295   5.490   0.510
    1   AR   Ar   51   6.715   4.786   1.450
    1   AR   Ar   52   5.937   3.149  -2.179
    1   AR   Ar   53   5.449   5.796   2.412
    1   AR   Ar   54   0.609   6.240   2.515
    1   AR   Ar   55   6.545   5.653   2.506
    1   AR   Ar   56   6.568   0.324   2.033
    1   AR   Ar   57   4.479   3.445   2.723
    1   AR   Ar   58   6.892   3.512   4.041
    1   AR   Ar   59   2.454   4.830   6.094
    1   AR   Ar   60   0.454   5.731   3.444
    1   AR   Ar   61   0.378   4.635   6.852
    1   AR   Ar   62   6.580   4.477   4.526
    1   AR   Ar   63   1.550   1.564   6.264
    1   AR   Ar   64   0.898   5.519   5.264
    1   AR   Ar   65   4.101   7.081   1.290
    1   AR   Ar   66   1.177   1.583   1.475
    1   AR   Ar   67   4.303   0.039  -0.135
    1   AR   Ar   68   1.655   1.666  -0.935
    1   AR   Ar   69   2.720   1.900   0.286
    1   AR   Ar   70   0.587   0.342   1.933
    1   AR   Ar   71   2.904   1.266   3.492
    1   AR   Ar   72   4.085   6.655   2.165
    1   AR   Ar   73   4.269   0.076   3.081
    1   AR   Ar   74   1.286   0.709   4.666
    1   AR   Ar   75   3.622   0.615   5.123
    1   AR   Ar   76   1.589   0.495   1.216
    1   AR   Ar   77   2.030   6.324   5.298
    1   AR   Ar   78   0.547   6.376   5.892
    1   AR   Ar   79   4.161   5.852   6.345
    1   AR   Ar   80   3.837   5.282   5.504
    1   AR   Ar   81   2.534   6.257   0.108
    1   AR   Ar   82   6.691   4.951   0.305
    1   AR   Ar   83   1.409   2.082   0.590
    1   AR   Ar   84   0.525   4.107   1.441
    1   AR   Ar   85   1.057   3.164   0.854
    1   AR   Ar   86   2.179   5.386   1.083
    1   AR   Ar   87   2.291   2.615   1.430
    1   AR   Ar   88   2.654   4.816   1.779
    1   AR   Ar   89   0.117   2.766   2.531
    1   AR   Ar   90   2.948   1.715   4.664
    1   AR   Ar   91   1.545   2.200   3.569
    1   AR   Ar   92   1.290   2.860   2.094
    1   AR   Ar   93   0.729   0.624   5.537
    1   AR   Ar   94   0.089   6.904  11.008
    1   AR   Ar   95   4.684   0.493   5.394
    1   AR   Ar   96   2.934   6.729   4.648
    1   AR   Ar   97   4.308   2.200  -0.275
    1   AR   Ar   98   1.503   4.522   3.001
    1   AR   Ar   99   6.557   1.380   0.325
    1   AR   Ar  100   1.376   2.785  -0.750
    1   AR   Ar  101   3.367   5.710   1.985
    1   AR   Ar  102   3.840   1.474   2.668
    1   AR   Ar  103   1.412   4.737   0.888
    1   AR   Ar  104   3.467   4.020  -1.001
    1   AR   Ar  105   2.489   2.502   4.077
    1   AR   Ar  106   3.757   3.130   5.490
    1   AR   Ar  107   0.766   4.063   4.572
    1   AR   Ar  108   2.226   0.839   5.052
    1   AR   Ar  109   1.587   3.150   5.119
    1   AR   Ar  110   2.793   2.321   5.458
    1   AR   Ar  111   5.334   5.414   6.911
    1   AR   Ar  112   1.039   5.370   6.323
    1   AR   Ar  113   3.565   4.582   0.196
    1   AR   Ar  114   2.524   0.385  -0.639
    1   AR   Ar  115   2.627   5.171  -0.087
    1   AR   Ar  116   6.441   0.612  -0.317
    1   AR   Ar  117   1.297   5.166   4.132
    1   AR   Ar  118   1.466   5.673   3.164
    1   AR   Ar  119   2.280   4.024   2.501
    1   AR   Ar  120   2.032   6.409   1.377
    1   AR   Ar  121   5.576   3.848   5.261
    1   AR   Ar  122   2.976   5.953   5.783
    1   AR   Ar  123   2.947   3.953   5.054
    1   AR   Ar  124   1.623   5.091   1.871
    1   AR   Ar  125   7.006   3.499   5.308
    1   AR   Ar  126   6.902   6.530   4.912
    1   AR   Ar  127   4.667   4.144   6.247
    1   AR   Ar  128   3.606   4.344   6.398
    1   AR   Ar  129   2.262   6.017   3.853
    1   AR   Ar  130   4.598   2.362  -3.320
    1   AR   Ar  131   3.632   2.970  -0.920
    1   AR   Ar  132   0.555   2.202  -0.058
    1   AR   Ar  133   4.768   6.307   3.084
    1   AR   Ar  134   4.526   1.067   4.503
    1   AR   Ar  135   6.151   1.048   2.760
    1   AR   Ar  136   5.996   6.680   2.430
    1   AR   Ar  137   2.072   4.213   4.235
    1   AR   Ar  138   5.083   1.165   6.190
    1   AR   Ar  139   5.938   1.838   5.423
    1   AR   Ar  140   4.044   0.062   4.385
    1   AR   Ar  141   3.846   5.111   4.077
    1   AR   Ar  142   3.646   7.092   5.857
    1   AR   Ar  143   6.454   6.579   6.091
    1   AR   Ar  144   6.871   1.472   5.171
    1   AR   Ar  145   4.871   4.940  -0.432
    1   AR   Ar  146   3.180   2.890   1.977
    1   AR   Ar  147   4.787   2.505  -1.206
    1   AR   Ar  148   3.315   6.760  -0.953
    1   AR   Ar  149   2.709   1.796  -0.894
    1   AR   Ar  150   2.289   1.771   2.371
    1   AR   Ar  151   2.404   2.629   3.046
    1   AR   Ar  152   2.210   2.668  -1.535
    1   AR   Ar  153   4.944   0.345   3.904
    1   AR   Ar  154   3.695   1.837   3.814
    1   AR   Ar  155   6.788   4.563   5.834
    1   AR   Ar  156   2.789   4.015   3.542
    1   AR   Ar  157   1.156   4.384   5.747
    1   AR   Ar  158   0.361   1.503   6.532
    1   AR   Ar  159   4.356   1.254   7.436
    1   AR   Ar  160   1.654   2.055   4.643
    1   AR   Ar  161   5.095   4.310   2.259
    1   AR   Ar  162   4.624   6.121  -0.361
    1   AR   Ar  163   6.103   4.127  -0.414
    1   AR   Ar  164   2.423   5.881   2.578
    1   AR   Ar  165   4.957   2.456   0.449
    1   AR   Ar  166   3.245   3.054   4.445
    1   AR   Ar  167   5.003   0.196   2.320
    1   AR   Ar  168   5.288   4.105  -1.548
    1   AR   Ar  169   3.382   4.391   2.432
    1   AR   Ar  170   2.146   3.530   5.845
    1   AR   Ar  171   5.443   3.775   3.986
    1   AR   Ar  172   4.265   4.166   5.197
    1   AR   Ar  173   3.027   3.220   6.609
    1   AR   Ar  174   2.041   5.856   6.371
    1   AR   Ar  175   3.767   1.963   5.712
    1   AR   Ar  176   4.112   2.262   4.635
    1   AR   Ar  177   0.498   5.650  -0.982
    1   AR   Ar  178   3.695   5.365  -0.569
    1   AR   Ar  179   3.759   6.301   0.084
    1   AR   Ar  180   3.261   1.072  -3.753
    1   AR   Ar  181   0.544   5.514   1.444
    1   AR   Ar  182   2.003   6.763   2.678
    1   AR   Ar  183   4.516   5.379   2.057
    1   AR   Ar  184   5.021   6.837   0.599
    1   AR   Ar  185   3.006   5.172   4.871
    1   AR   Ar  186   3.080   5.404   3.501
    1   AR   Ar  187   2.990   6.560   3.197
    1   AR   Ar  188   3.077   6.688   2.128
    1   AR   Ar  189   4.687   3.037   6.218
    1   AR   Ar  190   3.688   6.196   4.039
    1   AR   Ar  191   2.572   6.239   7.535
    1   AR   Ar  192   4.008   6.222   5.231
    1   AR   Ar  193   3.138   6.279   1.053
    1   AR   Ar  194   4.521   3.954  -0.623
    1   AR   Ar  195   5.513   1.399   0.411
    1   AR   Ar  196   4.575   1.057   0.013
    1   AR   Ar  197   3.753   1.285   0.623
    1   AR   Ar  198   6.734   1.085   1.307
    1   AR   Ar  199   3.301   0.446   2.735
    1   AR   Ar  200   5.721   2.448  -0.467
    1   AR   Ar  201   6.031   6.343   3.297
    1   AR   Ar  202   5.692   1.017   4.858
    1   AR   Ar  203   0.141   0.231   2.992
    1   AR   Ar  204   5.581   6.302   5.606
    1   AR   Ar  205   6.784   6.447   1.641
    1   AR   Ar  206   5.742   0.238   5.387
    1   AR   Ar  207   0.786   1.735   5.633
    1   AR   Ar  208   0.586   6.085   4.467
    1   AR   Ar  209   7.029   2.478  -1.841
    1   AR   Ar  210   2.583   7.115   0.883
    1   AR   Ar  211   7.084   3.348   0.637
    1   AR   Ar  212   6.405   3.289  -1.218
    1   AR   Ar  213   2.618   0.531   1.862
    1   AR   Ar  214   4.619   3.012   1.581
    1   AR   Ar  215   5.877   3.078   1.805
    1   AR   Ar  216   0.576   2.426   1.492
    1   AR   Ar  217   5.212   2.677   4.152
    1   AR   Ar  218   4.636   3.247   4.849
    1   AR   Ar  219   3.945   3.008   3.646
    1   AR   Ar  220   3.681   2.618   0.889
    1   AR   Ar  221   6.590   5.651   3.885
    1   AR   Ar  222   4.859   7.036   6.649
    1   AR   Ar  223   5.771   2.000   6.729
    1   AR   Ar  224   4.821   2.239   5.526
    1   AR   Ar  225   6.462   2.945   3.215
    1   AR   Ar  226   1.915   3.461   3.457
    1   AR   Ar  227   6.808   3.547   1.651
    1   AR   Ar  228   5.414   6.838   1.550
    1   AR   Ar  229   5.576   5.369  -1.798
    1   AR   Ar  230   3.970   4.079   3.524
    1   AR   Ar  231   5.492   1.525   3.856
    1   AR   Ar  232   5.217   2.157   1.494
    1   AR   Ar  233   6.302   2.147   4.267
    1   AR   Ar  234   6.083   3.121   4.689
    1   AR   Ar  235   6.636   1.077   4.034
    1   AR   Ar  236   5.081   4.831   5.548
    1   AR   Ar  237   6.076   2.986   6.084
    1   AR   Ar  238   5.751   3.932   6.389
    1   AR   Ar  239   6.855   4.628   9.405
    1   AR   Ar  240   6.735   2.376   7.315
    1   AR   Ar  241   1.766   6.762  -0.265
    1   AR   Ar  242   5.335   5.719   0.264
    1   AR   Ar  243   4.985   4.958   3.145
    1   AR   Ar  244   0.375   5.708   0.301
    1   AR   Ar  245   3.746   1.005   1.675
    1   AR   Ar  246   5.745   6.840  -0.156
    1   AR   Ar  247   5.930   3.779   0.578
    1   AR   Ar  248   5.918   5.769  -0.540
    1   AR   Ar  249   4.512   6.112   1.245
    1   AR   Ar  250   5.018   5.564   4.788
    1   AR   Ar  251   4.940   4.598   4.275
    1   AR   Ar  252   4.018   5.525   2.954
    1   AR   Ar  253   7.034   3.520   6.395
    1   AR   Ar  254   2.281   2.726   8.707
    1   AR   Ar  255   3.927   4.783   9.801
    1   AR   Ar  256   6.334   4.794   3.436
    7.12000  7.12000 12.00000
Argon-slab step 3785
  256
    1   AR   Ar    1   4.998   1.800  -2.391
    1   AR   Ar    2   5.836   0.461   0.687
    1   AR   Ar    3   3.775   1.869  -1.496
    1   AR   Ar    4   1.686   0.660  -0.137
    1   AR   Ar    5   6.657   6.267   0.363
    1   AR   Ar    6   0.028   1.442   2.144
    1   AR   Ar    7   5.801   3.943   3.011
    1   AR   Ar    8   4.709   1.369   1.030
    1   AR   Ar    9   1.202   7.045   3.229
    1   AR   Ar   10   0.406   6.989   3.955
    1   AR   Ar   11   1.858   6.994   4.212
    1   AR   Ar   12   0.745   1.082   3.301
    1   AR   Ar   13   7.047   0.396   4.806
    1   AR   Ar   14   5.039   1.732   8.016
    1   AR   Ar   15   3.670   6.167   7.985
    1   AR   Ar   16   0.950   6.776   5.126
    1   AR   Ar   17   6.913   2.076   0.976
    1   AR   Ar   18   6.276   4.863  -1.106
    1   AR   Ar   19   3.947   3.471   0.146
    1   AR   Ar   20   5.923   4.328  -2.692
    1   AR   Ar   21   2.955   1.784   1.468
    1   AR   Ar   22   6.608   1.830   3.337
    1   AR   Ar   23   0.383   0.247   0.756
    1   AR   Ar   24   6.133   2.070   2.037
    1   AR   Ar   25   0.480   1.700   4.129
    1   AR   Ar   26   6.515   7.059   3.944
    1   AR   Ar   27   1.676   0.910   2.485
    1   AR   Ar   28   0.351   2.783   4.572
    1   AR   Ar   29   5.514   2.931   7.034
    1   AR   Ar   30   1.924   1.037   3.895
    1   AR   Ar   31   3.405   0.413   7.729
    1   AR   Ar   32   0.770   2.644   7.111
    1   AR   Ar   33   0.464   4.328   0.462
    1   AR   Ar   34   0.221   4.871   2.643
    1   AR   Ar   35   5.687   5.800   1.183
    1   AR   Ar   36   5.888   2.146  -2.958
    1   AR   Ar   37   5.505   2.582   2.684
    1   AR   Ar   38   6.774   3.924   2.920
    1   AR   Ar   39   0.843   3.714   2.975
    1   AR   Ar   40   1.602   3.988   1.729
    1   AR   Ar   41   0.393   2.575   3.539
    1   AR   Ar   42   6.072   5.216   4.971
    1   AR   Ar   43   7.024   2.542   6.047
    1   AR   Ar   44   0.405   4.500   3.663
    1   AR   Ar   45   0.904   3.130   5.793
    1   AR   Ar   46   0.074   5.254   4.798
    1   AR   Ar   47   5.073   4.024   7.132
    1   AR   Ar   48   6.477   3.990   7.340
    1   AR   Ar   49   5.255   0.370  -1.073
    1   AR   Ar   50   4.299   5.463   0.514
    1   AR   Ar   51   6.679   4.773   1.441
    1   AR   Ar   52   5.921   3.146  -2.158
    1   AR   Ar   53   5.440   5.837   2.452
    1   AR   Ar   54   0.624   6.253   2.516
    1   AR   Ar   55   6.583   5.618   2.456
    1   AR   Ar   56   6.582   0.325   2.057
    1   AR   Ar   57   4.472   3.416   2.729
    1   AR   Ar   58   6.867   3.521   4.057
    1   AR   Ar   59   2.419   4.841   6.080
    1   AR   Ar   60   0.451   5.724   3.438
    1   AR   Ar   61   0.401   4.646   6.863
    1   AR   Ar   62   6.535   4.479   4.545
    1   AR   Ar   63   1.537   1.579   6.279
    1   AR   Ar   64   0.898   5.517   5.254
    1   AR   Ar   65   4.103   7.087   1.265
    1   AR   Ar   66   1.183   1.586   1.473
    1   AR   Ar   67   4.316   0.045  -0.135
    1   AR   Ar   68   1.659   1.669  -0.917
    1   AR   Ar   69   2.728   1.935   0.263
    1   AR   Ar   70   0.616   0.362   1.936
    1   AR   Ar   71   2.911   1.279   3.484
    1   AR   Ar   72   4.086   6.659   2.146
    1   AR   Ar   73   4.288   0.070   3.102
    1   AR   Ar   74   1.311   0.724   4.632
    1   AR   Ar   75   3.617   0.619   5.112
    1   AR   Ar   76   1.572   0.466   1.230
    1   AR   Ar   77   2.010   6.297   5.286
    1   AR   Ar   78   0.565   6.367   5.918
    1   AR   Ar   79   4.196   5.851   6.357
    1   AR   Ar   80   3.870   5.286   5.512
    1   AR   Ar   81   2.518   6.246   0.117
    1   AR   Ar   82   6.691   4.934   0.302
    1   AR   Ar   83   1.425   2.083   0.559
    1   AR   Ar   84   0.528   4.114   1.451
    1   AR   Ar   85   1.085   3.159   0.845
    1   AR   Ar   86   2.182   5.416   1.080
    1   AR   Ar   87   2.283   2.623   1.434
    1   AR   Ar   88   2.692   4.817   1.771
    1   AR   Ar   89   0.145   2.764   2.511
    1   AR   Ar   90   2.936   1.689   4.646
    1   AR   Ar   91   1.501   2.200   3.573
    1   AR   Ar   92   1.276   2.902   2.089
    1   AR   Ar   93   0.730   0.664   5.539
    1   AR   Ar   94   0.093   6.878  11.006
    1   AR   Ar   95   4.694   0.487   5.372
    1   AR   Ar   96   2.908   6.697   4.662
    1   AR   Ar   97   4.294   2.203  -0.305
    1   AR   Ar   98   1.481   4.483   3.013
    1   AR   Ar   99   6.541   1.394   0.309
    1   AR   Ar  100   1.362   2.756  -0.742
    1   AR   Ar  101   3.405   5.738   2.013
    1   AR   Ar  102   3.851   1.495   2.664
    1   AR   Ar  103   1.436   4.756   0.935
    1   AR   Ar  104   3.453   3.999  -1.006
    1   AR   Ar  105   2.473   2.486   4.079
    1   AR   Ar  106   3.732   3.152   5.497
    1   AR   Ar  107   0.734   4.079   4.559
    1   AR   Ar  108   2.246   0.833   5.058
    1   AR   Ar  109   1.589   3.176   5.065
    1   AR   Ar  110   2.788   2.316   5.453
    1   AR   Ar  111   5.339   5.425   6.875
    1   AR   Ar  112   1.066   5.381   6.327
    1   AR   Ar  113   3.541   4.602   0.172
    1   AR   Ar  114   2.522   0.393  -0.661
    1   AR   Ar  115   2.633   5.162  -0.122
    1   AR   Ar  116   6.438   0.608  -0.318
    1   AR   Ar  117   1.294   5.144   4.143
    1   AR   Ar  118   1.458   5.683   3.156
    1   AR   Ar  119   2.280   4.030   2.520
    1   AR   Ar  120   2.037   6.415   1.384
    1   AR   Ar  121   5.594   3.797   5.254
    1   AR   Ar  122   3.024   5.958   5.761
    1   AR   Ar  123   2.940   3.957   5.080
    1   AR   Ar  124   1.613   5.084   1.862
    1   AR   Ar  125   7.012   3.480   5.324
    1   AR   Ar  126   6.910   6.559   4.889
    1   AR   Ar  127   4.603   4.133   6.261
    1   AR   Ar  128   3.664   4.281   6.403
    1   AR   Ar  129   2.270   5.979   3.869
    1   AR   Ar  130   4.612   2.363  -3.321
    1   AR   Ar  131   3.630   2.993  -0.946
    1   AR   Ar  132   0.583   2.156  -0.059
    1   AR   Ar  133   4.736   6.311   3.070
    1   AR   Ar  134   4.518   1.080   4.485
    1   AR   Ar  135   6.137   1.052   2.792
    1   AR   Ar  136   6.013   6.679   2.443
    1   AR   Ar  137   2.051   4.175   4.269
    1   AR   Ar  138   5.093   1.149   6.205
    1   AR   Ar  139   5.940   1.860   5.401
    1   AR   Ar  140   4.025   0.059   4.397
    1   AR   Ar  141   3.859   5.139   4.042
    1   AR   Ar  142   3.667   7.075   5.869
    1   AR   Ar  143   6.463   6.577   6.108
    1   AR   Ar  144   6.854   1.460   5.182
    1   AR   Ar  145   4.869   4.982  -0.427
    1   AR   Ar  146   3.224   2.885   1.988
    1   AR   Ar  147   4.791   2.503  -1.183
    1   AR   Ar  148   3.295   6.778  -0.959
    1   AR   Ar  149   2.676   1.769  -0.880
    1   AR   Ar  150   2.270   1.770   2.395
    1   AR   Ar  151   2.414   2.644   3.074
    1   AR   Ar  152   2.188   2.657  -1.530
    1   AR   Ar  153   4.904   0.365   3.903
    1   AR   Ar  154   3.697   1.821   3.815
    1   AR   Ar  155   6.848   4.567   5.831
    1   AR   Ar  156   2.765   4.053   3.551
    1   AR   Ar  157   1.158   4.366   5.712
    1   AR   Ar  158   0.362   1.477   6.512
    1   AR   Ar  159   4.376   1.220   7.420
    1   AR   Ar  160   1.635   2.047   4.612
    1   AR   Ar  161   5.085   4.328   2.277
    1   AR   Ar  162   4.638   6.120  -0.379
    1   AR   Ar  163   6.115   4.161  -0.394
    1   AR   Ar  164   2.417   5.867   2.577
    1   AR   Ar  165   4.986   2.445   0.430
    1   AR   Ar  166   3.247   3.059   4.407
    1   AR   Ar  167   5.014   0.184   2.318
    1   AR   Ar  168   5.310   4.121  -1.534
    1   AR   Ar  169   3.418   4.374   2.425
    1   AR   Ar  170   2.162   3.500   5.835
    1   AR   Ar  171   5.446   3.787   4.014
    1   AR   Ar  172   4.259   4.158   5.193
    1   AR   Ar  173   3.026   3.239   6.618
    1   AR   Ar  174   2.036   5.861   6.361
    1   AR   Ar  175   3.792   1.964   5.663
    1   AR   Ar  176   4.116   2.272   4.627
    1   AR   Ar  177   0.518   5.635  -0.985
    1   AR   Ar  178   3.685   5.359  -0.521
    1   AR   Ar  179   3.745   6.310   0.056
    1   AR   Ar  180   3.292   1.052  -3.763
    1   AR   Ar  181   0.526   5.525   1.459
    1   AR   Ar  182   1.977   6.759   2.660
    1   AR   Ar  183   4.489   5.377   2.035
    1   AR   Ar  184   5.024   6.860   0.654
    1   AR   Ar  185   2.986   5.139   4.838
    1   AR   Ar  186   3.088   5.409   3.500
    1   AR   Ar  187   2.981   6.547   3.209
    1   AR   Ar  188   3.068   6.676   2.107
    1   AR   Ar  189   4.728   3.042   6.242
    1   AR   Ar  190   3.703   6.198   4.024
    1   AR   Ar  191   2.555   6.236   7.557
    1   AR   Ar  192   4.008   6.260   5.233
    1   AR   Ar  193   3.121   6.293   1.076
    1   AR   Ar  194   4.557   3.956  -0.636
    1   AR   Ar  195   5.491   1.375   0.420
    1   AR   Ar  196   4.580   1.074   0.004
    1   AR   Ar  197   3.730   1.317   0.623
    1   AR   Ar  198   6.725   1.090   1.318
    1   AR   Ar  199   3.306   0.423   2.742
    1   AR   Ar  200   5.703   2.438  -0.480
    1   AR   Ar  201   6.065   6.350   3.312
    1   AR   Ar  202   5.676   1.013   4.845
    1   AR   Ar  203   0.156   0.236   2.988
    1   AR   Ar  204   5.564   6.309   5.608
    1   AR   Ar  205   6.783   6.442   1.610
    1   AR   Ar  206   5.778   0.231   5.400
    1   AR   Ar  207   0.771   1.743   5.622
    1   AR   Ar  208   0.593   6.097   4.445
    1   AR   Ar  209   7.020   2.457  -1.867
    1   AR   Ar  210   2.594   7.088   0.888
    1   AR   Ar  211   7.078   3.316   0.626
    1   AR   Ar  212   6.418   3.299  -1.197
    1   AR   Ar  213   2.620   0.529   1.884
    1   AR   Ar  214   4.629   3.020   1.620
    1   AR   Ar  215   5.871   3.096   1.820
    1   AR   Ar  216   0.565   2.439   1.495
    1   AR   Ar  217   5.204   2.657   4.171
    1   AR   Ar  218   4.651   3.213   4.866
    1   AR   Ar  219   3.951   2.999   3.646
    1   AR   Ar  220   3.670   2.564   0.852
    1   AR   Ar  221   6.582   5.639   3.896
    1   AR   Ar  222   4.887   7.034   6.624
    1   AR   Ar  223   5.801   2.001   6.749
    1   AR   Ar  224   4.815   2.246   5.538
    1   AR   Ar  225   6.482   2.945   3.243
    1   AR   Ar  226   1.920   3.470   3.432
    1   AR   Ar  227   6.837   3.560   1.650
    1   AR   Ar  228   5.428   6.838   1.533
    1   AR   Ar  229   5.542   5.373  -1.797
    1   AR   Ar  230   3.981   4.033   3.500
    1   AR   Ar  231   5.510   1.523   3.849
    1   AR   Ar  232   5.221   2.168   1.502
    1   AR   Ar  233   6.289   2.147   4.261
    1   AR   Ar  234   6.070   3.153   4.685
    1   AR   Ar  235   6.608   1.067   4.011
    1   AR   Ar  236   5.080   4.836   5.545
    1   AR   Ar  237   6.084   2.987   6.122
    1   AR   Ar  238   5.753   3.925   6.389
    1   AR   Ar  239   6.848   4.629   9.398
    1   AR   Ar  240   6.727   2.386   7.316
    1   AR   Ar  241   1.745   6.780  -0.270
    1   AR   Ar  242   5.332   5.740   0.291
    1   AR   Ar  243   4.971   4.975   3.131
    1   AR   Ar  244   0.403   5.677   0.324
    1   AR   Ar  245   3.736   1.020   1.668
    1   AR   Ar  246   5.741   6.831  -0.178
    1   AR   Ar  247   5.918   3.767   0.574
    1   AR   Ar  248   5.913   5.768  -0.524
    1   AR   Ar  249   4.524   6.100   1.240
    1   AR   Ar  250   5.025   5.573   4.796
    1   AR   Ar  251   4.906   4.598   4.310
    1   AR   Ar  252   3.998   5.526   2.934
    1   AR   Ar  253   7.039   3.511   6.413
    1   AR   Ar  254   2.301   2.740   8.716
    1   AR   Ar  255   3.932   4.790   9.791
    1   AR   Ar  256   6.286   4.783   3.428
    7.12000  7.12000 12.00000
Argon-slab step 3790
  256
    1   AR   Ar    1   4.979   1.816  -2.367
    1   AR   Ar    2   5.845   0.461   0.692
    1   AR   Ar    3   3.773   1.912  -1.503
    1   AR   Ar    4   1.681   0.680  -0.145
    1   AR   Ar    5   6.669   6.258   0.398
    1   AR   Ar    6   0.019   1.457   2.144
    1   AR   Ar    7   5.804   3.941   3.013
    1   AR   Ar    8   4.680   1.365   1.025
    1   AR   Ar    9   1.212   7.039   3.266
    1   AR   Ar   10   0.375   6.968   3.987
    1   AR   Ar   11   1.885   7.006   4.204
    1   AR   Ar   12   0.750   1.057   3.343
    1   AR   Ar   13   7.021   0.352   4.805
    1   AR   Ar   14   5.014   1.738   8.018
    1   AR   Ar   15   3.670   6.178   7.977
    1   AR   Ar   16   0.966   6.810   5.118
    1   AR   Ar   17   6.916   2.133   0.959
    1   AR   Ar   18   6.279   4.877  -1.117
    1   AR   Ar   19   3.928   3.451   0.129
    1   AR   Ar   20   5.948   4.299  -2.718
    1   AR   Ar   21   2.936   1.790   1.470
    1   AR   Ar   22   6.611   1.822   3.324
    1   AR   Ar   23   0.423   0.234   0.759
    1   AR   Ar   24   6.164   2.060   2.042
    1   AR   Ar   25   0.465   1.732   4.103
    1   AR   Ar   26   6.528   7.062   3.935
    1   AR   Ar   27   1.609   0.883   2.492
    1   AR   Ar   28   0.380   2.784   4.551
    1   AR   Ar   29   5.500   2.923   7.064
    1   AR   Ar   30   1.925   1.017   3.880
    1   AR   Ar   31   3.397   0.369   7.745
    1   AR   Ar   32   0.755   2.668   7.112
    1   AR   Ar   33   0.449   4.347   0.450
    1   AR   Ar   34   0.240   4.846   2.656
    1   AR   Ar   35   5.696   5.814   1.178
    1   AR   Ar   36   5.892   2.152  -2.963
    1   AR   Ar   37   5.484   2.608   2.692
    1   AR   Ar   38   6.806   3.933   2.902
    1   AR   Ar   39   0.833   3.714   2.991
    1   AR   Ar   40   1.629   4.001   1.734
    1   AR   Ar   41   0.426   2.592   3.514
    1   AR   Ar   42   6.060   5.234   4.974
    1   AR   Ar   43   7.029   2.549   6.040
    1   AR   Ar   44   0.418   4.483   3.649
    1   AR   Ar   45   0.907   3.134   5.804
    1   AR   Ar   46   0.066   5.230   4.797
    1   AR   Ar   47   5.060   4.035   7.128
    1   AR   Ar   48   6.468   3.961   7.365
    1   AR   Ar   49   5.284   0.337  -1.062
    1   AR   Ar   50   4.300   5.429   0.509
    1   AR   Ar   51   6.644   4.759   1.434
    1   AR   Ar   52   5.905   3.142  -2.137
    1   AR   Ar   53   5.431   5.871   2.490
    1   AR   Ar   54   0.639   6.268   2.515
    1   AR   Ar   55   6.599   5.588   2.431
    1   AR   Ar   56   6.600   0.330   2.081
    1   AR   Ar   57   4.466   3.387   2.733
    1   AR   Ar   58   6.844   3.533   4.072
    1   AR   Ar   59   2.384   4.852   6.065
    1   AR   Ar   60   0.445   5.714   3.434
    1   AR   Ar   61   0.422   4.657   6.873
    1   AR   Ar   62   6.495   4.466   4.555
    1   AR   Ar   63   1.524   1.573   6.296
    1   AR   Ar   64   0.911   5.518   5.251
    1   AR   Ar   65   4.104   7.101   1.228
    1   AR   Ar   66   1.190   1.585   1.475
    1   AR   Ar   67   4.331   0.054  -0.136
    1   AR   Ar   68   1.668   1.687  -0.921
    1   AR   Ar   69   2.741   1.949   0.249
    1   AR   Ar   70   0.644   0.384   1.940
    1   AR   Ar   71   2.912   1.288   3.472
    1   AR   Ar   72   4.093   6.655   2.140
    1   AR   Ar   73   4.299   0.072   3.124
    1   AR   Ar   74   1.312   0.733   4.608
    1   AR   Ar   75   3.606   0.635   5.101
    1   AR   Ar   76   1.556   0.437   1.246
    1   AR   Ar   77   1.990   6.269   5.274
    1   AR   Ar   78   0.576   6.352   5.956
    1   AR   Ar   79   4.231   5.851   6.369
    1   AR   Ar   80   3.904   5.281   5.519
    1   AR   Ar   81   2.509   6.232   0.129
    1   AR   Ar   82   6.688   4.918   0.299
    1   AR   Ar   83   1.446   2.086   0.528
    1   AR   Ar   84   0.540   4.124   1.467
    1   AR   Ar   85   1.113   3.155   0.837
    1   AR   Ar   86   2.195   5.454   1.070
    1   AR   Ar   87   2.272   2.633   1.438
    1   AR   Ar   88   2.731   4.817   1.765
    1   AR   Ar   89   0.173   2.763   2.489
    1   AR   Ar   90   2.926   1.658   4.624
    1   AR   Ar   91   1.456   2.200   3.574
    1   AR   Ar   92   1.265   2.947   2.086
    1   AR   Ar   93   0.730   0.703   5.543
    1   AR   Ar   94   0.097   6.853  11.004
    1   AR   Ar   95   4.704   0.478   5.351
    1   AR   Ar   96   2.883   6.664   4.677
    1   AR   Ar   97   4.274   2.205  -0.334
    1   AR   Ar   98   1.462   4.454   3.027
    1   AR   Ar   99   6.526   1.410   0.291
    1   AR   Ar  100   1.348   2.726  -0.732
    1   AR   Ar  101   3.445   5.758   2.041
    1   AR   Ar  102   3.860   1.515   2.662
    1   AR   Ar  103   1.450   4.767   0.971
    1   AR   Ar  104   3.439   3.985  -1.009
    1   AR   Ar  105   2.453   2.466   4.083
    1   AR   Ar  106   3.707   3.173   5.504
    1   AR   Ar  107   0.703   4.092   4.551
    1   AR   Ar  108   2.270   0.827   5.066
    1   AR   Ar  109   1.593   3.200   4.997
    1   AR   Ar  110   2.781   2.316   5.450
    1   AR   Ar  111   5.324   5.432   6.859
    1   AR   Ar  112   1.092   5.390   6.330
    1   AR   Ar  113   3.519   4.618   0.151
    1   AR   Ar  114   2.525   0.399  -0.686
    1   AR   Ar  115   2.638   5.155  -0.156
    1   AR   Ar  116   6.433   0.597  -0.323
    1   AR   Ar  117   1.289   5.122   4.154
    1   AR   Ar  118   1.452   5.693   3.145
    1   AR   Ar  119   2.286   4.036   2.540
    1   AR   Ar  120   2.038   6.418   1.397
    1   AR   Ar  121   5.563   3.813   5.276
    1   AR   Ar  122   3.073   5.963   5.737
    1   AR   Ar  123   2.934   3.961   5.106
    1   AR   Ar  124   1.600   5.080   1.868
    1   AR   Ar  125   7.011   3.499   5.346
    1   AR   Ar  126   6.911   6.572   4.869
    1   AR   Ar  127   4.559   4.120   6.262
    1   AR   Ar  128   3.699   4.221   6.410
    1   AR   Ar  129   2.276   5.943   3.885
    1   AR   Ar  130   4.627   2.364  -3.321
    1   AR   Ar  131   3.631   3.008  -0.970
    1   AR   Ar  132   0.608   2.111  -0.060
    1   AR   Ar  133   4.708   6.306   3.057
    1   AR   Ar  134   4.506   1.102   4.472
    1   AR   Ar  135   6.124   1.054   2.823
    1   AR   Ar  136   6.018   6.682   2.452
    1   AR   Ar  137   2.026   4.139   4.308
    1   AR   Ar  138   5.103   1.134   6.218
    1   AR   Ar  139   5.937   1.888   5.382
    1   AR   Ar  140   4.008   0.049   4.404
    1   AR   Ar  141   3.884   5.161   4.014
    1   AR   Ar  142   3.688   7.053   5.886
    1   AR   Ar  143   6.475   6.576   6.125
    1   AR   Ar  144   6.847   1.461   5.185
    1   AR   Ar  145   4.867   5.025  -0.421
    1   AR   Ar  146   3.230   2.877   1.976
    1   AR   Ar  147   4.796   2.501  -1.163
    1   AR   Ar  148   3.276   6.794  -0.964
    1   AR   Ar  149   2.651   1.746  -0.871
    1   AR   Ar  150   2.254   1.773   2.418
    1   AR   Ar  151   2.427   2.656   3.093
    1   AR   Ar  152   2.167   2.645  -1.524
    1   AR   Ar  153   4.874   0.381   3.898
    1   AR   Ar  154   3.703   1.806   3.815
    1   AR   Ar  155   6.908   4.570   5.827
    1   AR   Ar  156   2.771   4.084   3.563
    1   AR   Ar  157   1.133   4.359   5.660
    1   AR   Ar  158   0.373   1.518   6.501
    1   AR   Ar  159   4.356   1.179   7.423
    1   AR   Ar  160   1.615   2.036   4.584
    1   AR   Ar  161   5.074   4.345   2.292
    1   AR   Ar  162   4.632   6.102  -0.369
    1   AR   Ar  163   6.125   4.191  -0.371
    1   AR   Ar  164   2.416   5.843   2.573
    1   AR   Ar  165   5.017   2.434   0.415
    1   AR   Ar  166   3.251   3.068   4.376
    1   AR   Ar  167   5.023   0.176   2.321
    1   AR   Ar  168   5.329   4.137  -1.522
    1   AR   Ar  169   3.454   4.356   2.422
    1   AR   Ar  170   2.182   3.473   5.831
    1   AR   Ar  171   5.440   3.789   4.017
    1   AR   Ar  172   4.251   4.152   5.190
    1   AR   Ar  173   2.973   3.253   6.614
    1   AR   Ar  174   2.031   5.867   6.350
    1   AR   Ar  175   3.817   1.965   5.613
    1   AR   Ar  176   4.123   2.286   4.624
    1   AR   Ar  177   0.538   5.619  -0.987
    1   AR   Ar  178   3.678   5.356  -0.477
    1   AR   Ar  179   3.722   6.318   0.033
    1   AR   Ar  180   3.323   1.032  -3.774
    1   AR   Ar  181   0.507   5.535   1.476
    1   AR   Ar  182   1.955   6.761   2.637
    1   AR   Ar  183   4.464   5.373   2.011
    1   AR   Ar  184   5.019   6.882   0.693
    1   AR   Ar  185   2.966   5.106   4.805
    1   AR   Ar  186   3.086   5.415   3.491
    1   AR   Ar  187   2.974   6.534   3.223
    1   AR   Ar  188   3.048   6.672   2.085
    1   AR   Ar  189   4.769   3.049   6.266
    1   AR   Ar  190   3.718   6.200   4.009
    1   AR   Ar  191   2.539   6.233   7.579
    1   AR   Ar  192   4.008   6.304   5.231
    1   AR   Ar  193   3.115   6.294   1.101
    1   AR   Ar  194   4.592   3.957  -0.651
    1   AR   Ar  195   5.476   1.360   0.423
    1   AR   Ar  196   4.584   1.091  -0.008
    1   AR   Ar  197   3.704   1.352   0.622
    1   AR   Ar  198   6.712   1.089   1.322
    1   AR   Ar  199   3.311   0.400   2.750
    1   AR   Ar  200   5.684   2.429  -0.493
    1   AR   Ar  201   6.097   6.343   3.352
    1   AR   Ar  202   5.661   1.023   4.830
    1   AR   Ar  203   0.168   0.240   2.980
    1   AR   Ar  204   5.543   6.313   5.608
    1   AR   Ar  205   6.781   6.435   1.580
    1   AR   Ar  206   5.817   0.211   5.424
    1   AR   Ar  207   0.753   1.756   5.599
    1   AR   Ar  208   0.604   6.104   4.415
    1   AR   Ar  209   7.009   2.438  -1.893
    1   AR   Ar  210   2.600   7.079   0.886
    1   AR   Ar  211   7.074   3.284   0.616
    1   AR   Ar  212   6.430   3.310  -1.175
    1   AR   Ar  213   2.621   0.528   1.906
    1   AR   Ar  214   4.638   3.032   1.660
    1   AR   Ar  215   5.864   3.116   1.833
    1   AR   Ar  216   0.556   2.457   1.501
    1   AR   Ar  217   5.198   2.633   4.189
    1   AR   Ar  218   4.665   3.178   4.880
    1   AR   Ar  219   3.960   2.984   3.644
    1   AR   Ar  220   3.659   2.508   0.815
    1   AR   Ar  221   6.578   5.631   3.913
    1   AR   Ar  222   4.915   7.033   6.598
    1   AR   Ar  223   5.832   1.997   6.766
    1   AR   Ar  224   4.811   2.252   5.547
    1   AR   Ar  225   6.499   2.942   3.271
    1   AR   Ar  226   1.917   3.479   3.408
    1   AR   Ar  227   6.860   3.568   1.653
    1   AR   Ar  228   5.452   6.832   1.524
    1   AR   Ar  229   5.508   5.376  -1.795
    1   AR   Ar  230   3.991   3.993   3.476
    1   AR   Ar  231   5.528   1.521   3.841
    1   AR   Ar  232   5.223   2.177   1.504
    1   AR   Ar  233   6.277   2.150   4.261
    1   AR   Ar  234   6.062   3.177   4.678
    1   AR   Ar  235   6.579   1.053   3.992
    1   AR   Ar  236   5.080   4.837   5.543
    1   AR   Ar  237   6.091   2.985   6.155
    1   AR   Ar  238   5.758   3.922   6.385
    1   AR   Ar  239   6.841   4.631   9.392
    1   AR   Ar  240   6.720   2.396   7.315
    1   AR   Ar  241   1.720   6.794  -0.278
    1   AR   Ar  242   5.320   5.759   0.312
    1   AR   Ar  243   4.956   4.994   3.118
    1   AR   Ar  244   0.380   5.689   0.291
    1   AR   Ar  245   3.726   1.032   1.662
    1   AR   Ar  246   5.736   6.822  -0.200
    1   AR   Ar  247   5.908   3.753   0.573
    1   AR   Ar  248   5.912   5.767  -0.514
    1   AR   Ar  249   4.540   6.094   1.243
    1   AR   Ar  250   5.034   5.597   4.832
    1   AR   Ar  251   4.867   4.601   4.348
    1   AR   Ar  252   3.975   5.528   2.917
    1   AR   Ar  253   7.045   3.506   6.434
    1   AR   Ar  254   2.316   2.749   8.728
    1   AR   Ar  255   3.938   4.797   9.780
    1   AR   Ar  256   6.239   4.771   3.418
    7.12000  7.12000 12.00000
Argon-slab step 3795
  256
    1   AR   Ar    1   4.978   1.827  -2.397
    1   AR   Ar    2   5.859   0.454   0.699
    1   AR   Ar    3   3.773   1.957  -1.508
    1   AR   Ar    4   1.679   0.704  -0.153
    1   AR   Ar    5   6.672   6.252   0.433
    1   AR   Ar    6   0.015   1.475   2.153
    1   AR   Ar    7   5.798   3.932   3.013
    1   AR   Ar    8   4.645   1.361   1.028
    1   AR   Ar    9   1.223   7.049   3.288
    1   AR   Ar   10   0.358   6.955   4.014
    1   AR   Ar   11   1.905   7.015   4.201
    1   AR   Ar   12   0.759   1.030   3.383
    1   AR   Ar   13   7.000   0.353   4.804
    1   AR   Ar   14   4.992   1.746   8.021
    1   AR   Ar   15   3.689   6.177   7.974
    1   AR   Ar   16   0.986   6.849   5.105
    1   AR   Ar   17   6.911   2.190   0.938
    1   AR   Ar   18   6.281   4.895  -1.133
    1   AR   Ar   19   3.908   3.431   0.111
    1   AR   Ar   20   5.971   4.270  -2.743
    1   AR   Ar   21   2.917   1.795   1.472
    1   AR   Ar   22   6.620   1.822   3.305
    1   AR   Ar   23   0.432   0.248   0.751
    1   AR   Ar   24   6.200   2.048   2.047
    1   AR   Ar   25   0.448   1.761   4.082
    1   AR   Ar   26   6.529   7.071   3.927
    1   AR   Ar   27   1.552   0.846   2.497
    1   AR   Ar   28   0.410   2.785   4.534
    1   AR   Ar   29   5.486   2.921   7.098
    1   AR   Ar   30   1.931   1.000   3.857
    1   AR   Ar   31   3.391   0.324   7.761
    1   AR   Ar   32   0.738   2.691   7.112
    1   AR   Ar   33   0.435   4.366   0.435
    1   AR   Ar   34   0.261   4.821   2.666
    1   AR   Ar   35   5.715   5.831   1.195
    1   AR   Ar   36   5.896   2.160  -2.966
    1   AR   Ar   37   5.462   2.635   2.703
    1   AR   Ar   38   6.847   3.941   2.883
    1   AR   Ar   39   0.813   3.701   3.005
    1   AR   Ar   40   1.652   4.012   1.736
    1   AR   Ar   41   0.458   2.612   3.485
    1   AR   Ar   42   6.048   5.287   4.982
    1   AR   Ar   43   7.039   2.550   6.030
    1   AR   Ar   44   0.427   4.470   3.634
    1   AR   Ar   45   0.906   3.138   5.817
    1   AR   Ar   46   0.052   5.204   4.791
    1   AR   Ar   47   5.094   4.046   7.124
    1   AR   Ar   48   6.458   3.931   7.388
    1   AR   Ar   49   5.314   0.304  -1.049
    1   AR   Ar   50   4.297   5.391   0.499
    1   AR   Ar   51   6.611   4.745   1.426
    1   AR   Ar   52   5.888   3.139  -2.117
    1   AR   Ar   53   5.421   5.895   2.523
    1   AR   Ar   54   0.654   6.284   2.514
    1   AR   Ar   55   6.601   5.562   2.423
    1   AR   Ar   56   6.620   0.337   2.103
    1   AR   Ar   57   4.462   3.357   2.736
    1   AR   Ar   58   6.826   3.549   4.086
    1   AR   Ar   59   2.349   4.862   6.048
    1   AR   Ar   60   0.435   5.702   3.430
    1   AR   Ar   61   0.442   4.666   6.881
    1   AR   Ar   62   6.460   4.438   4.558
    1   AR   Ar   63   1.506   1.542   6.302
    1   AR   Ar   64   0.933   5.520   5.254
    1   AR   Ar   65   4.103   7.119   1.185
    1   AR   Ar   66   1.136   1.575   1.440
    1   AR   Ar   67   4.348   0.061  -0.138
    1   AR   Ar   68   1.658   1.680  -0.931
    1   AR   Ar   69   2.753   1.934   0.232
    1   AR   Ar   70   0.671   0.405   1.943
    1   AR   Ar   71   2.907   1.294   3.457
    1   AR   Ar   72   4.105   6.647   2.141
    1   AR   Ar   73   4.297   0.084   3.143
    1   AR   Ar   74   1.283   0.734   4.603
    1   AR   Ar   75   3.588   0.611   5.095
    1   AR   Ar   76   1.540   0.408   1.261
    1   AR   Ar   77   1.969   6.241   5.260
    1   AR   Ar   78   0.584   6.333   5.997
    1   AR   Ar   79   4.267   5.854   6.382
    1   AR   Ar   80   3.938   5.271   5.524
    1   AR   Ar   81   2.503   6.210   0.134
    1   AR   Ar   82   6.682   4.904   0.296
    1   AR   Ar   83   1.472   2.089   0.501
    1   AR   Ar   84   0.561   4.140   1.485
    1   AR   Ar   85   1.140   3.152   0.830
    1   AR   Ar   86   2.215   5.494   1.055
    1   AR   Ar   87   2.258   2.643   1.443
    1   AR   Ar   88   2.769   4.818   1.761
    1   AR   Ar   89   0.201   2.763   2.464
    1   AR   Ar   90   2.918   1.625   4.599
    1   AR   Ar   91   1.412   2.199   3.571
    1   AR   Ar   92   1.256   2.995   2.086
    1   AR   Ar   93   0.728   0.740   5.547
    1   AR   Ar   94   0.101   6.828  11.002
    1   AR   Ar   95   4.706   0.460   5.331
    1   AR   Ar   96   2.859   6.631   4.691
    1   AR   Ar   97   4.249   2.204  -0.360
    1   AR   Ar   98   1.450   4.440   3.045
    1   AR   Ar   99   6.512   1.430   0.275
    1   AR   Ar  100   1.333   2.696  -0.722
    1   AR   Ar  101   3.485   5.770   2.065
    1   AR   Ar  102   3.868   1.535   2.662
    1   AR   Ar  103   1.455   4.767   0.990
    1   AR   Ar  104   3.425   3.982  -1.011
    1   AR   Ar  105   2.431   2.444   4.092
    1   AR   Ar  106   3.686   3.188   5.508
    1   AR   Ar  107   0.673   4.104   4.549
    1   AR   Ar  108   2.297   0.821   5.072
    1   AR   Ar  109   1.596   3.224   4.923
    1   AR   Ar  110   2.774   2.320   5.448
    1   AR   Ar  111   5.308   5.438   6.841
    1   AR   Ar  112   1.116   5.397   6.333
    1   AR   Ar  113   3.497   4.623   0.139
    1   AR   Ar  114   2.530   0.406  -0.711
    1   AR   Ar  115   2.642   5.148  -0.189
    1   AR   Ar  116   6.426   0.582  -0.331
    1   AR   Ar  117   1.283   5.100   4.164
    1   AR   Ar  118   1.450   5.703   3.134
    1   AR   Ar  119   2.298   4.041   2.560
    1   AR   Ar  120   2.034   6.422   1.418
    1   AR   Ar  121   5.527   3.834   5.302
    1   AR   Ar  122   3.120   5.969   5.714
    1   AR   Ar  123   2.928   3.965   5.131
    1   AR   Ar  124   1.588   5.082   1.896
    1   AR   Ar  125   7.026   3.499   5.345
    1   AR   Ar  126   6.905   6.543   4.855
    1   AR   Ar  127   4.577   4.102   6.244
    1   AR   Ar  128   3.668   4.168   6.425
    1   AR   Ar  129   2.279   5.909   3.904
    1   AR   Ar  130   4.642   2.364  -3.320
    1   AR   Ar  131   3.636   3.013  -0.993
    1   AR   Ar  132   0.629   2.067  -0.064
    1   AR   Ar  133   4.682   6.294   3.047
    1   AR   Ar  134   4.490   1.134   4.464
    1   AR   Ar  135   6.109   1.053   2.852
    1   AR   Ar  136   6.047   6.682   2.457
    1   AR   Ar  137   1.997   4.104   4.350
    1   AR   Ar  138   5.114   1.119   6.231
    1   AR   Ar  139   5.928   1.923   5.365
    1   AR   Ar  140   3.993   0.034   4.406
    1   AR   Ar  141   3.919   5.175   3.993
    1   AR   Ar  142   3.710   7.030   5.908
    1   AR   Ar  143   6.489   6.575   6.140
    1   AR   Ar  144   6.845   1.460   5.186
    1   AR   Ar  145   4.865   5.068  -0.415
    1   AR   Ar  146   3.221   2.862   1.972
    1   AR   Ar  147   4.803   2.502  -1.148
    1   AR   Ar  148   3.259   6.808  -0.967
    1   AR   Ar  149   2.640   1.738  -0.881
    1   AR   Ar  150   2.239   1.776   2.440
    1   AR   Ar  151   2.444   2.665   3.103
    1   AR   Ar  152   2.145   2.632  -1.516
    1   AR   Ar  153   4.854   0.393   3.892
    1   AR   Ar  154   3.713   1.794   3.813
    1   AR   Ar  155   6.969   4.572   5.821
    1   AR   Ar  156   2.783   4.117   3.574
    1   AR   Ar  157   1.108   4.352   5.606
    1   AR   Ar  158   0.381   1.559   6.497
    1   AR   Ar  159   4.334   1.136   7.424
    1   AR   Ar  160   1.593   2.022   4.562
    1   AR   Ar  161   5.063   4.360   2.306
    1   AR   Ar  162   4.629   6.086  -0.364
    1   AR   Ar  163   6.135   4.218  -0.346
    1   AR   Ar  164   2.418   5.812   2.569
    1   AR   Ar  165   5.048   2.423   0.402
    1   AR   Ar  166   3.255   3.080   4.351
    1   AR   Ar  167   5.010   0.189   2.356
    1   AR   Ar  168   5.330   4.146  -1.524
    1   AR   Ar  169   3.460   4.365   2.428
    1   AR   Ar  170   2.204   3.448   5.828
    1   AR   Ar  171   5.436   3.788   4.020
    1   AR   Ar  172   4.242   4.146   5.186
    1   AR   Ar  173   2.922   3.267   6.609
    1   AR   Ar  174   2.031   5.876   6.339
    1   AR   Ar  175   3.837   1.965   5.564
    1   AR   Ar  176   4.131   2.301   4.623
    1   AR   Ar  177   0.557   5.604  -0.987
    1   AR   Ar  178   3.632   5.356  -0.441
    1   AR   Ar  179   3.690   6.326   0.016
    1   AR   Ar  180   3.354   1.012  -3.784
    1   AR   Ar  181   0.488   5.544   1.493
    1   AR   Ar  182   1.937   6.765   2.609
    1   AR   Ar  183   4.443   5.368   1.987
    1   AR   Ar  184   5.004   6.904   0.705
    1   AR   Ar  185   2.947   5.075   4.771
    1   AR   Ar  186   3.075   5.423   3.474
    1   AR   Ar  187   2.968   6.522   3.236
    1   AR   Ar  188   3.020   6.676   2.066
    1   AR   Ar  189   4.811   3.059   6.289
    1   AR   Ar  190   3.732   6.205   3.993
    1   AR   Ar  191   2.524   6.229   7.600
    1   AR   Ar  192   4.010   6.348   5.225
    1   AR   Ar  193   3.119   6.279   1.127
    1   AR   Ar  194   4.626   3.957  -0.666
    1   AR   Ar  195   5.468   1.354   0.420
    1   AR   Ar  196   4.583   1.109  -0.025
    1   AR   Ar  197   3.674   1.388   0.620
    1   AR   Ar  198   6.695   1.085   1.318
    1   AR   Ar  199   3.318   0.378   2.758
    1   AR   Ar  200   5.665   2.420  -0.505
    1   AR   Ar  201   6.125   6.330   3.401
    1   AR   Ar  202   5.661   1.044   4.851
    1   AR   Ar  203   0.177   0.242   2.971
    1   AR   Ar  204   5.520   6.315   5.608
    1   AR   Ar  205   6.779   6.427   1.550
    1   AR   Ar  206   5.808   0.207   5.406
    1   AR   Ar  207   0.735   1.776   5.565
    1   AR   Ar  208   0.620   6.099   4.385
    1   AR   Ar  209   6.996   2.420  -1.918
    1   AR   Ar  210   2.602   7.091   0.876
    1   AR   Ar  211   7.070   3.251   0.606
    1   AR   Ar  212   6.442   3.321  -1.152
    1   AR   Ar  213   2.628   0.527   1.922
    1   AR   Ar  214   4.646   3.045   1.701
    1   AR   Ar  215   5.856   3.137   1.844
    1   AR   Ar  216   0.551   2.477   1.510
    1   AR   Ar  217   5.215   2.651   4.174
    1   AR   Ar  218   4.673   3.143   4.875
    1   AR   Ar  219   3.973   2.961   3.641
    1   AR   Ar  220   3.649   2.451   0.778
    1   AR   Ar  221   6.578   5.621   3.937
    1   AR   Ar  222   4.942   7.031   6.569
    1   AR   Ar  223   5.864   1.988   6.779
    1   AR   Ar  224   4.814   2.258   5.554
    1   AR   Ar  225   6.513   2.937   3.297
    1   AR   Ar  226   1.908   3.490   3.387
    1   AR   Ar  227   6.875   3.571   1.660
    1   AR   Ar  228   5.490   6.822   1.533
    1   AR   Ar  229   5.475   5.377  -1.791
    1   AR   Ar  230   3.999   3.961   3.452
    1   AR   Ar  231   5.545   1.516   3.832
    1   AR   Ar  232   5.209   2.182   1.483
    1   AR   Ar  233   6.266   2.154   4.266
    1   AR   Ar  234   6.058   3.194   4.668
    1   AR   Ar  235   6.551   1.035   3.978
    1   AR   Ar  236   5.067   4.881   5.527
    1   AR   Ar  237   6.096   2.979   6.186
    1   AR   Ar  238   5.765   3.923   6.377
    1   AR   Ar  239   6.834   4.632   9.385
    1   AR   Ar  240   6.713   2.409   7.312
    1   AR   Ar  241   1.692   6.803  -0.287
    1   AR   Ar  242   5.300   5.777   0.321
    1   AR   Ar  243   4.945   5.016   3.109
    1   AR   Ar  244   0.372   5.701   0.269
    1   AR   Ar  245   3.716   1.042   1.657
    1   AR   Ar  246   5.731   6.813  -0.221
    1   AR   Ar  247   5.903   3.742   0.576
    1   AR   Ar  248   5.915   5.765  -0.508
    1   AR   Ar  249   4.580   6.122   1.269
    1   AR   Ar  250   5.041   5.626   4.866
    1   AR   Ar  251   4.827   4.608   4.387
    1   AR   Ar  252   3.953   5.529   2.906
    1   AR   Ar  253   7.045   3.489   6.445
    1   AR   Ar  254   2.311   2.739   8.753
    1   AR   Ar  255   3.944   4.804   9.770
    1   AR   Ar  256   6.194   4.760   3.410
    7.12000  7.12000 12.00000
Argon-slab step 3800
  256
    1   AR   Ar    1   4.977   1.838  -2.425
    1   AR   Ar    2   5.877   0.443   0.708
    1   AR   Ar    3   3.773   2.003  -1.510
    1   AR   Ar    4   1.680   0.733  -0.160
    1   AR   Ar    5   6.666   6.251   0.470
    1   AR   Ar    6   0.014   1.496   2.167
    1   AR   Ar    7   5.785   3.914   3.008
    1   AR   Ar    8   4.607   1.357   1.036
    1   AR   Ar    9   1.229   7.060   3.313
    1   AR   Ar   10   0.358   6.953   4.034
    1   AR   Ar   11   1.898   7.015   4.220
    1   AR   Ar   12   0.759   1.033   3.407
    1   AR   Ar   13   6.983   0.387   4.806
    1   AR   Ar   14   4.971   1.755   8.025
    1   AR   Ar   15   3.707   6.176   7.969
    1   AR   Ar   16   1.005   6.888   5.090
    1   AR   Ar   17   6.899   2.243   0.914
    1   AR   Ar   18   6.283   4.915  -1.150
    1   AR   Ar   19   3.889   3.410   0.091
    1   AR   Ar   20   5.995   4.240  -2.767
    1   AR   Ar   21   2.901   1.799   1.473
    1   AR   Ar   22   6.632   1.828   3.283
    1   AR   Ar   23   0.441   0.262   0.745
    1   AR   Ar   24   6.236   2.036   2.053
    1   AR   Ar   25   0.430   1.789   4.066
    1   AR   Ar   26   6.514   7.088   3.920
    1   AR   Ar   27   1.540   0.778   2.493
    1   AR   Ar   28   0.441   2.788   4.521
    1   AR   Ar   29   5.472   2.923   7.134
    1   AR   Ar   30   1.939   0.986   3.831
    1   AR   Ar   31   3.385   0.279   7.777
    1   AR   Ar   32   0.719   2.714   7.109
    1   AR   Ar   33   0.425   4.382   0.421
    1   AR   Ar   34   0.285   4.800   2.672
    1   AR   Ar   35   5.742   5.848   1.227
    1   AR   Ar   36   5.899   2.168  -2.968
    1   AR   Ar   37   5.439   2.662   2.716
    1   AR   Ar   38   6.862   3.951   2.880
    1   AR   Ar   39   0.784   3.674   3.016
    1   AR   Ar   40   1.673   4.019   1.737
    1   AR   Ar   41   0.479   2.634   3.449
    1   AR   Ar   42   6.036   5.343   4.992
    1   AR   Ar   43   7.053   2.542   6.017
    1   AR   Ar   44   0.435   4.461   3.617
    1   AR   Ar   45   0.904   3.142   5.830
    1   AR   Ar   46   0.037   5.177   4.783
    1   AR   Ar   47   5.140   4.056   7.130
    1   AR   Ar   48   6.448   3.900   7.408
    1   AR   Ar   49   5.342   0.272  -1.034
    1   AR   Ar   50   4.292   5.353   0.488
    1   AR   Ar   51   6.579   4.732   1.419
    1   AR   Ar   52   5.871   3.135  -2.097
    1   AR   Ar   53   5.414   5.907   2.549
    1   AR   Ar   54   0.669   6.300   2.512
    1   AR   Ar   55   6.570   5.554   2.414
    1   AR   Ar   56   6.644   0.349   2.124
    1   AR   Ar   57   4.462   3.336   2.741
    1   AR   Ar   58   6.831   3.553   4.101
    1   AR   Ar   59   2.315   4.871   6.029
    1   AR   Ar   60   0.437   5.697   3.433
    1   AR   Ar   61   0.461   4.674   6.887
    1   AR   Ar   62   6.425   4.406   4.559
    1   AR   Ar   63   1.487   1.510   6.308
    1   AR   Ar   64   0.960   5.523   5.258
    1   AR   Ar   65   4.104   0.013   1.165
    1   AR   Ar   66   1.082   1.562   1.406
    1   AR   Ar   67   4.365   0.068  -0.140
    1   AR   Ar   68   1.631   1.655  -0.946
    1   AR   Ar   69   2.763   1.916   0.212
    1   AR   Ar   70   0.696   0.428   1.948
    1   AR   Ar   71   2.897   1.298   3.438
    1   AR   Ar   72   4.119   6.639   2.145
    1   AR   Ar   73   4.282   0.100   3.156
    1   AR   Ar   74   1.249   0.734   4.601
    1   AR   Ar   75   3.564   0.583   5.095
    1   AR   Ar   76   1.526   0.379   1.277
    1   AR   Ar   77   1.959   6.220   5.255
    1   AR   Ar   78   0.591   6.314   6.037
    1   AR   Ar   79   4.303   5.857   6.393
    1   AR   Ar   80   3.974   5.257   5.526
    1   AR   Ar   81   2.499   6.186   0.138
    1   AR   Ar   82   6.672   4.894   0.293
    1   AR   Ar   83   1.504   2.094   0.477
    1   AR   Ar   84   0.551   4.124   1.469
    1   AR   Ar   85   1.167   3.149   0.825
    1   AR   Ar   86   2.240   5.531   1.038
    1   AR   Ar   87   2.241   2.654   1.448
    1   AR   Ar   88   2.803   4.821   1.756
    1   AR   Ar   89   0.225   2.765   2.440
    1   AR   Ar   90   2.937   1.594   4.586
    1   AR   Ar   91   1.371   2.197   3.562
    1   AR   Ar   92   1.251   3.046   2.088
    1   AR   Ar   93   0.724   0.773   5.551
    1   AR   Ar   94   0.105   6.802  11.000
    1   AR   Ar   95   4.695   0.427   5.313
    1   AR   Ar   96   2.837   6.598   4.705
    1   AR   Ar   97   4.219   2.201  -0.378
    1   AR   Ar   98   1.443   4.440   3.064
    1   AR   Ar   99   6.501   1.451   0.260
    1   AR   Ar  100   1.318   2.666  -0.710
    1   AR   Ar  101   3.517   5.778   2.081
    1   AR   Ar  102   3.875   1.553   2.662
    1   AR   Ar  103   1.453   4.761   0.992
    1   AR   Ar  104   3.410   3.989  -1.011
    1   AR   Ar  105   2.410   2.422   4.105
    1   AR   Ar  106   3.684   3.179   5.511
    1   AR   Ar  107   0.644   4.112   4.553
    1   AR   Ar  108   2.324   0.815   5.077
    1   AR   Ar  109   1.599   3.246   4.847
    1   AR   Ar  110   2.766   2.327   5.445
    1   AR   Ar  111   5.290   5.444   6.821
    1   AR   Ar  112   1.135   5.401   6.334
    1   AR   Ar  113   3.476   4.607   0.141
    1   AR   Ar  114   2.535   0.415  -0.737
    1   AR   Ar  115   2.640   5.143  -0.221
    1   AR   Ar  116   6.417   0.563  -0.339
    1   AR   Ar  117   1.275   5.079   4.173
    1   AR   Ar  118   1.451   5.713   3.121
    1   AR   Ar  119   2.317   4.047   2.580
    1   AR   Ar  120   2.027   6.429   1.446
    1   AR   Ar  121   5.488   3.857   5.329
    1   AR   Ar  122   3.164   5.976   5.690
    1   AR   Ar  123   2.922   3.969   5.156
    1   AR   Ar  124   1.587   5.100   1.911
    1   AR   Ar  125   7.062   3.471   5.312
    1   AR   Ar  126   6.893   6.485   4.846
    1   AR   Ar  127   4.629   4.082   6.212
    1   AR   Ar  128   3.600   4.116   6.446
    1   AR   Ar  129   2.277   5.879   3.925
    1   AR   Ar  130   4.659   2.365  -3.318
    1   AR   Ar  131   3.644   3.005  -1.014
    1   AR   Ar  132   0.643   2.023  -0.070
    1   AR   Ar  133   4.653   6.277   3.042
    1   AR   Ar  134   4.427   1.122   4.471
    1   AR   Ar  135   6.093   1.049   2.879
    1   AR   Ar  136   6.078   6.687   2.457
    1   AR   Ar  137   1.967   4.069   4.392
    1   AR   Ar  138   5.125   1.104   6.242
    1   AR   Ar  139   5.917   1.963   5.351
    1   AR   Ar  140   3.981   0.013   4.402
    1   AR   Ar  141   3.942   5.179   3.976
    1   AR   Ar  142   3.715   7.021   5.902
    1   AR   Ar  143   6.502   6.575   6.153
    1   AR   Ar  144   6.847   1.457   5.184
    1   AR   Ar  145   4.848   5.076  -0.426
    1   AR   Ar  146   3.204   2.838   1.991
    1   AR   Ar  147   4.812   2.505  -1.140
    1   AR   Ar  148   3.245   6.819  -0.968
    1   AR   Ar  149   2.641   1.731  -0.891
    1   AR   Ar  150   2.224   1.779   2.462
    1   AR   Ar  151   2.464   2.670   3.103
    1   AR   Ar  152   2.124   2.617  -1.506
    1   AR   Ar  153   4.849   0.403   3.890
    1   AR   Ar  154   3.728   1.785   3.811
    1   AR   Ar  155   7.031   4.573   5.814
    1   AR   Ar  156   2.798   4.151   3.584
    1   AR   Ar  157   1.084   4.337   5.566
    1   AR   Ar  158   0.386   1.601   6.498
    1   AR   Ar  159   4.311   1.090   7.422
    1   AR   Ar  160   1.569   2.006   4.547
    1   AR   Ar  161   5.050   4.373   2.317
    1   AR   Ar  162   4.623   6.075  -0.365
    1   AR   Ar  163   6.144   4.243  -0.323
    1   AR   Ar  164   2.421   5.778   2.563
    1   AR   Ar  165   5.078   2.410   0.390
    1   AR   Ar  166   3.256   3.093   4.333
    1   AR   Ar  167   4.992   0.206   2.399
    1   AR   Ar  168   5.334   4.155  -1.525
    1   AR   Ar  169   3.468   4.374   2.437
    1   AR   Ar  170   2.225   3.422   5.823
    1   AR   Ar  171   5.432   3.786   4.024
    1   AR   Ar  172   4.229   4.165   5.171
    1   AR   Ar  173   2.872   3.282   6.603
    1   AR   Ar  174   2.034   5.887   6.327
    1   AR   Ar  175   3.850   1.962   5.517
    1   AR   Ar  176   4.138   2.317   4.620
    1   AR   Ar  177   0.576   5.588  -0.986
    1   AR   Ar  178   3.565   5.370  -0.422
    1   AR   Ar  179   3.653   6.336   0.002
    1   AR   Ar  180   3.385   0.992  -3.794
    1   AR   Ar  181   0.469   5.551   1.510
    1   AR   Ar  182   1.930   6.755   2.597
    1   AR   Ar  183   4.428   5.358   1.963
    1   AR   Ar  184   4.984   6.926   0.697
    1   AR   Ar  185   2.929   5.044   4.738
    1   AR   Ar  186   3.059   5.428   3.453
    1   AR   Ar  187   2.962   6.510   3.248
    1   AR   Ar  188   2.986   6.685   2.052
    1   AR   Ar  189   4.841   3.048   6.306
    1   AR   Ar  190   3.735   6.208   3.981
    1   AR   Ar  191   2.510   6.226   7.621
    1   AR   Ar  192   4.016   6.387   5.211
    1   AR   Ar  193   3.131   6.252   1.150
    1   AR   Ar  194   4.659   3.958  -0.680
    1   AR   Ar  195   5.453   1.354   0.414
    1   AR   Ar  196   4.578   1.127  -0.045
    1   AR   Ar  197   3.641   1.423   0.615
    1   AR   Ar  198   6.675   1.079   1.307
    1   AR   Ar  199   3.324   0.358   2.766
    1   AR   Ar  200   5.648   2.410  -0.517
    1   AR   Ar  201   6.145   6.311   3.445
    1   AR   Ar  202   5.659   1.068   4.866
    1   AR   Ar  203   0.185   0.242   2.962
    1   AR   Ar  204   5.497   6.314   5.608
    1   AR   Ar  205   6.776   6.420   1.521
    1   AR   Ar  206   5.817   0.173   5.385
    1   AR   Ar  207   0.719   1.804   5.524
    1   AR   Ar  208   0.643   6.080   4.361
    1   AR   Ar  209   6.982   2.402  -1.944
    1   AR   Ar  210   2.600   7.114   0.862
    1   AR   Ar  211   7.067   3.220   0.597
    1   AR   Ar  212   6.453   3.332  -1.128
    1   AR   Ar  213   2.649   0.539   1.928
    1   AR   Ar  214   4.652   3.061   1.742
    1   AR   Ar  215   5.848   3.158   1.854
    1   AR   Ar  216   0.551   2.499   1.520
    1   AR   Ar  217   5.240   2.675   4.148
    1   AR   Ar  218   4.680   3.118   4.876
    1   AR   Ar  219   3.992   2.930   3.636
    1   AR   Ar  220   3.639   2.396   0.741
    1   AR   Ar  221   6.584   5.606   3.968
    1   AR   Ar  222   4.969   7.030   6.538
    1   AR   Ar  223   5.897   1.976   6.789
    1   AR   Ar  224   4.823   2.265   5.559
    1   AR   Ar  225   6.524   2.930   3.321
    1   AR   Ar  226   1.892   3.503   3.369
    1   AR   Ar  227   6.883   3.568   1.670
    1   AR   Ar  228   5.538   6.810   1.555
    1   AR   Ar  229   5.442   5.378  -1.786
    1   AR   Ar  230   3.965   3.981   3.469
    1   AR   Ar  231   5.560   1.510   3.822
    1   AR   Ar  232   5.198   2.185   1.463
    1   AR   Ar  233   6.258   2.161   4.274
    1   AR   Ar  234   6.052   3.207   4.661
    1   AR   Ar  235   6.524   1.016   3.968
    1   AR   Ar  236   5.051   4.927   5.514
    1   AR   Ar  237   6.098   2.967   6.214
    1   AR   Ar  238   5.775   3.929   6.366
    1   AR   Ar  239   6.833   4.632   9.358
    1   AR   Ar  240   6.708   2.423   7.306
    1   AR   Ar  241   1.684   6.817  -0.303
    1   AR   Ar  242   5.276   5.795   0.325
    1   AR   Ar  243   4.946   5.044   3.109
    1   AR   Ar  244   0.373   5.718   0.262
    1   AR   Ar  245   3.707   1.050   1.652
    1   AR   Ar  246   5.724   6.803  -0.238
    1   AR   Ar  247   5.903   3.751   0.590
    1   AR   Ar  248   5.921   5.761  -0.506
    1   AR   Ar  249   4.585   6.109   1.247
    1   AR   Ar  250   5.043   5.662   4.892
    1   AR   Ar  251   4.786   4.616   4.426
    1   AR   Ar  252   3.936   5.527   2.906
    1   AR   Ar  253   7.035   3.451   6.440
    1   AR   Ar  254   2.305   2.729   8.777
    1   AR   Ar  255   3.949   4.812   9.759
    1   AR   Ar  256   6.152   4.755   3.405
    7.12000  7.12000 12.00000
Argon-slab step 3805
  256
    1   AR   Ar    1   4.976   1.849  -2.451
    1   AR   Ar    2   5.898   0.428   0.717
    1   AR   Ar    3   3.773   2.049  -1.512
    1   AR   Ar    4   1.680   0.768  -0.167
    1   AR   Ar    5   6.651   6.254   0.507
    1   AR   Ar    6   0.018   1.515   2.185
    1   AR   Ar    7   5.768   3.886   2.999
    1   AR   Ar    8   4.581   1.341   1.018
    1   AR   Ar    9   1.233   7.073   3.341
    1   AR   Ar   10   0.370   6.962   4.049
    1   AR   Ar   11   1.891   7.013   4.239
    1   AR   Ar   12   0.759   1.041   3.426
    1   AR   Ar   13   6.991   0.413   4.809
    1   AR   Ar   14   4.950   1.765   8.028
    1   AR   Ar   15   3.724   6.176   7.964
    1   AR   Ar   16   1.022   6.926   5.074
    1   AR   Ar   17   6.880   2.289   0.888
    1   AR   Ar   18   6.284   4.935  -1.169
    1   AR   Ar   19   3.869   3.388   0.070
    1   AR   Ar   20   6.018   4.209  -2.789
    1   AR   Ar   21   2.885   1.802   1.473
    1   AR   Ar   22   6.650   1.841   3.261
    1   AR   Ar   23   0.450   0.276   0.741
    1   AR   Ar   24   6.269   2.027   2.058
    1   AR   Ar   25   0.409   1.814   4.054
    1   AR   Ar   26   6.491   7.112   3.916
    1   AR   Ar   27   1.530   0.710   2.491
    1   AR   Ar   28   0.452   2.787   4.507
    1   AR   Ar   29   5.455   2.896   7.156
    1   AR   Ar   30   1.946   0.973   3.804
    1   AR   Ar   31   3.380   0.233   7.792
    1   AR   Ar   32   0.699   2.736   7.103
    1   AR   Ar   33   0.420   4.396   0.408
    1   AR   Ar   34   0.311   4.785   2.670
    1   AR   Ar   35   5.773   5.861   1.265
    1   AR   Ar   36   5.901   2.177  -2.970
    1   AR   Ar   37   5.417   2.688   2.730
    1   AR   Ar   38   6.831   3.964   2.903
    1   AR   Ar   39   0.752   3.637   3.025
    1   AR   Ar   40   1.693   4.025   1.737
    1   AR   Ar   41   0.465   2.649   3.389
    1   AR   Ar   42   6.027   5.399   5.002
    1   AR   Ar   43   7.069   2.525   6.000
    1   AR   Ar   44   0.440   4.455   3.605
    1   AR   Ar   45   0.902   3.146   5.842
    1   AR   Ar   46   0.024   5.150   4.776
    1   AR   Ar   47   5.183   4.066   7.145
    1   AR   Ar   48   6.437   3.868   7.426
    1   AR   Ar   49   5.370   0.240  -1.019
    1   AR   Ar   50   4.285   5.316   0.476
    1   AR   Ar   51   6.550   4.718   1.413
    1   AR   Ar   52   5.855   3.132  -2.077
    1   AR   Ar   53   5.415   5.911   2.568
    1   AR   Ar   54   0.684   6.318   2.510
    1   AR   Ar   55   6.531   5.551   2.405
    1   AR   Ar   56   6.671   0.365   2.141
    1   AR   Ar   57   4.464   3.353   2.764
    1   AR   Ar   58   6.870   3.537   4.119
    1   AR   Ar   59   2.280   4.879   6.009
    1   AR   Ar   60   0.456   5.703   3.444
    1   AR   Ar   61   0.480   4.681   6.892
    1   AR   Ar   62   6.387   4.373   4.561
    1   AR   Ar   63   1.468   1.478   6.312
    1   AR   Ar   64   0.989   5.526   5.262
    1   AR   Ar   65   4.110   0.021   1.180
    1   AR   Ar   66   1.028   1.546   1.372
    1   AR   Ar   67   4.382   0.073  -0.143
    1   AR   Ar   68   1.598   1.629  -0.960
    1   AR   Ar   69   2.772   1.899   0.193
    1   AR   Ar   70   0.716   0.449   1.952
    1   AR   Ar   71   2.884   1.300   3.416
    1   AR   Ar   72   4.134   6.632   2.151
    1   AR   Ar   73   4.255   0.116   3.162
    1   AR   Ar   74   1.213   0.734   4.599
    1   AR   Ar   75   3.535   0.564   5.101
    1   AR   Ar   76   1.515   0.350   1.293
    1   AR   Ar   77   1.966   6.210   5.262
    1   AR   Ar   78   0.598   6.295   6.074
    1   AR   Ar   79   4.341   5.862   6.404
    1   AR   Ar   80   3.967   5.263   5.507
    1   AR   Ar   81   2.497   6.164   0.144
    1   AR   Ar   82   6.658   4.891   0.292
    1   AR   Ar   83   1.543   2.099   0.457
    1   AR   Ar   84   0.543   4.106   1.444
    1   AR   Ar   85   1.192   3.146   0.821
    1   AR   Ar   86   2.269   5.561   1.017
    1   AR   Ar   87   2.221   2.666   1.453
    1   AR   Ar   88   2.833   4.827   1.750
    1   AR   Ar   89   0.244   2.770   2.420
    1   AR   Ar   90   2.912   1.625   4.588
    1   AR   Ar   91   1.350   2.202   3.552
    1   AR   Ar   92   1.251   3.069   2.087
    1   AR   Ar   93   0.719   0.802   5.556
    1   AR   Ar   94   0.109   6.777  10.998
    1   AR   Ar   95   4.685   0.394   5.295
    1   AR   Ar   96   2.839   6.579   4.691
    1   AR   Ar   97   4.184   2.195  -0.390
    1   AR   Ar   98   1.438   4.450   3.084
    1   AR   Ar   99   6.492   1.474   0.246
    1   AR   Ar  100   1.303   2.636  -0.697
    1   AR   Ar  101   3.533   5.788   2.081
    1   AR   Ar  102   3.880   1.571   2.663
    1   AR   Ar  103   1.447   4.752   0.983
    1   AR   Ar  104   3.394   4.005  -1.008
    1   AR   Ar  105   2.390   2.401   4.120
    1   AR   Ar  106   3.694   3.162   5.535
    1   AR   Ar  107   0.616   4.118   4.564
    1   AR   Ar  108   2.350   0.808   5.080
    1   AR   Ar  109   1.597   3.260   4.776
    1   AR   Ar  110   2.759   2.335   5.440
    1   AR   Ar  111   5.272   5.450   6.800
    1   AR   Ar  112   1.150   5.400   6.336
    1   AR   Ar  113   3.455   4.572   0.157
    1   AR   Ar  114   2.537   0.427  -0.761
    1   AR   Ar  115   2.621   5.135  -0.250
    1   AR   Ar  116   6.407   0.542  -0.347
    1   AR   Ar  117   1.262   5.050   4.180
    1   AR   Ar  118   1.454   5.722   3.108
    1   AR   Ar  119   2.340   4.054   2.597
    1   AR   Ar  120   2.015   6.446   1.437
    1   AR   Ar  121   5.446   3.882   5.355
    1   AR   Ar  122   3.204   5.982   5.666
    1   AR   Ar  123   2.918   3.973   5.180
    1   AR   Ar  124   1.594   5.128   1.920
    1   AR   Ar  125   7.098   3.443   5.279
    1   AR   Ar  126   6.879   6.419   4.838
    1   AR   Ar  127   4.685   4.066   6.174
    1   AR   Ar  128   3.529   4.066   6.465
    1   AR   Ar  129   2.270   5.853   3.950
    1   AR   Ar  130   4.676   2.365  -3.318
    1   AR   Ar  131   3.656   2.990  -1.034
    1   AR   Ar  132   0.652   1.979  -0.079
    1   AR   Ar  133   4.618   6.261   3.043
    1   AR   Ar  134   4.361   1.117   4.481
    1   AR   Ar  135   6.075   1.039   2.904
    1   AR   Ar  136   6.111   6.692   2.457
    1   AR   Ar  137   1.941   4.044   4.430
    1   AR   Ar  138   5.136   1.089   6.251
    1   AR   Ar  139   5.904   2.009   5.339
    1   AR   Ar  140   3.974   7.109   4.391
    1   AR   Ar  141   3.941   5.170   3.962
    1   AR   Ar  142   3.705   7.039   5.902
    1   AR   Ar  143   6.516   6.575   6.163
    1   AR   Ar  144   6.850   1.453   5.180
    1   AR   Ar  145   4.824   5.057  -0.448
    1   AR   Ar  146   3.187   2.812   2.009
    1   AR   Ar  147   4.829   2.497  -1.129
    1   AR   Ar  148   3.234   6.827  -0.969
    1   AR   Ar  149   2.651   1.724  -0.900
    1   AR   Ar  150   2.210   1.781   2.484
    1   AR   Ar  151   2.486   2.674   3.098
    1   AR   Ar  152   2.104   2.601  -1.495
    1   AR   Ar  153   4.856   0.414   3.894
    1   AR   Ar  154   3.735   1.786   3.803
    1   AR   Ar  155   7.094   4.573   5.806
    1   AR   Ar  156   2.813   4.185   3.594
    1   AR   Ar  157   1.063   4.308   5.546
    1   AR   Ar  158   0.389   1.642   6.501
    1   AR   Ar  159   4.288   1.044   7.421
    1   AR   Ar  160   1.545   1.995   4.542
    1   AR   Ar  161   5.037   4.384   2.325
    1   AR   Ar  162   4.637   6.063  -0.372
    1   AR   Ar  163   6.151   4.264  -0.304
    1   AR   Ar  164   2.426   5.743   2.556
    1   AR   Ar  165   5.065   2.396   0.382
    1   AR   Ar  166   3.255   3.108   4.320
    1   AR   Ar  167   4.977   0.222   2.438
    1   AR   Ar  168   5.340   4.165  -1.526
    1   AR   Ar  169   3.472   4.370   2.428
    1   AR   Ar  170   2.241   3.397   5.812
    1   AR   Ar  171   5.427   3.786   4.029
    1   AR   Ar  172   4.211   4.186   5.156
    1   AR   Ar  173   2.827   3.295   6.601
    1   AR   Ar  174   2.044   5.902   6.314
    1   AR   Ar  175   3.854   1.954   5.476
    1   AR   Ar  176   4.144   2.329   4.609
    1   AR   Ar  177   0.594   5.572  -0.984
    1   AR   Ar  178   3.517   5.403  -0.419
    1   AR   Ar  179   3.615   6.348  -0.007
    1   AR   Ar  180   3.416   0.972  -3.804
    1   AR   Ar  181   0.448   5.558   1.528
    1   AR   Ar  182   1.926   6.744   2.582
    1   AR   Ar  183   4.448   5.350   1.960
    1   AR   Ar  184   4.968   6.947   0.680
    1   AR   Ar  185   2.930   5.023   4.756
    1   AR   Ar  186   3.042   5.430   3.430
    1   AR   Ar  187   2.956   6.498   3.258
    1   AR   Ar  188   2.950   6.695   2.046
    1   AR   Ar  189   4.853   3.009   6.315
    1   AR   Ar  190   3.700   6.200   3.988
    1   AR   Ar  191   2.497   6.223   7.642
    1   AR   Ar  192   4.028   6.419   5.188
    1   AR   Ar  193   3.146   6.220   1.165
    1   AR   Ar  194   4.690   3.958  -0.693
    1   AR   Ar  195   5.437   1.358   0.408
    1   AR   Ar  196   4.567   1.145  -0.068
    1   AR   Ar  197   3.607   1.446   0.607
    1   AR   Ar  198   6.655   1.073   1.293
    1   AR   Ar  199   3.329   0.338   2.773
    1   AR   Ar  200   5.661   2.436  -0.502
    1   AR   Ar  201   6.155   6.290   3.478
    1   AR   Ar  202   5.656   1.094   4.876
    1   AR   Ar  203   0.193   0.240   2.954
    1   AR   Ar  204   5.472   6.312   5.611
    1   AR   Ar  205   6.772   6.412   1.496
    1   AR   Ar  206   5.832   0.204   5.386
    1   AR   Ar  207   0.705   1.839   5.478
    1   AR   Ar  208   0.672   6.048   4.347
    1   AR   Ar  209   6.967   2.386  -1.969
    1   AR   Ar  210   2.598   0.022   0.847
    1   AR   Ar  211   7.066   3.194   0.588
    1   AR   Ar  212   6.462   3.343  -1.105
    1   AR   Ar  213   2.676   0.572   1.926
    1   AR   Ar  214   4.660   3.077   1.781
    1   AR   Ar  215   5.840   3.180   1.863
    1   AR   Ar  216   0.556   2.521   1.525
    1   AR   Ar  217   5.268   2.695   4.116
    1   AR   Ar  218   4.689   3.104   4.884
    1   AR   Ar  219   4.014   2.894   3.630
    1   AR   Ar  220   3.656   2.422   0.752
    1   AR   Ar  221   6.595   5.582   4.007
    1   AR   Ar  222   4.996   7.028   6.505
    1   AR   Ar  223   5.927   1.963   6.796
    1   AR   Ar  224   4.839   2.272   5.563
    1   AR   Ar  225   6.534   2.921   3.342
    1   AR   Ar  226   1.873   3.516   3.356
    1   AR   Ar  227   6.882   3.557   1.683
    1   AR   Ar  228   5.587   6.802   1.582
    1   AR   Ar  229   5.409   5.376  -1.780
    1   AR   Ar  230   3.930   4.007   3.486
    1   AR   Ar  231   5.572   1.503   3.811
    1   AR   Ar  232   5.191   2.187   1.444
    1   AR   Ar  233   6.253   2.169   4.284
    1   AR   Ar  234   6.046   3.215   4.659
    1   AR   Ar  235   6.498   0.999   3.961
    1   AR   Ar  236   5.034   4.949   5.505
    1   AR   Ar  237   6.099   2.950   6.241
    1   AR   Ar  238   5.790   3.938   6.351
    1   AR   Ar  239   6.833   4.632   9.325
    1   AR   Ar  240   6.704   2.439   7.300
    1   AR   Ar  241   1.706   6.842  -0.328
    1   AR   Ar  242   5.255   5.811   0.334
    1   AR   Ar  243   4.946   5.075   3.113
    1   AR   Ar  244   0.382   5.729   0.253
    1   AR   Ar  245   3.697   1.056   1.649
    1   AR   Ar  246   5.716   6.792  -0.250
    1   AR   Ar  247   5.890   3.770   0.612
    1   AR   Ar  248   5.927   5.756  -0.506
    1   AR   Ar  249   4.598   6.083   1.205
    1   AR   Ar  250   5.039   5.712   4.905
    1   AR   Ar  251   4.749   4.626   4.462
    1   AR   Ar  252   3.926   5.519   2.921
    1   AR   Ar  253   7.027   3.422   6.440
    1   AR   Ar  254   2.299   2.720   8.802
    1   AR   Ar  255   3.955   4.819   9.749
    1   AR   Ar  256   6.115   4.757   3.403
    7.12000  7.12000 12.00000
Argon-slab step 3810
  256
    1   AR   Ar    1   4.976   1.860  -2.474
    1   AR   Ar    2   5.920   0.411   0.726
    1   AR   Ar    3   3.775   2.093  -1.513
    1   AR   Ar    4   1.680   0.807  -0.171
    1   AR   Ar    5   6.627   6.258   0.537
    1   AR   Ar    6   0.029   1.531   2.205
    1   AR   Ar    7   5.747   3.851   2.986
    1   AR   Ar    8   4.564   1.316   0.983
    1   AR   Ar    9   1.235   7.086   3.369
    1   AR   Ar   10   0.396   6.973   4.061
    1   AR   Ar   11   1.883   7.011   4.259
    1   AR   Ar   12   0.763   1.048   3.444
    1   AR   Ar   13   7.015   0.428   4.814
    1   AR   Ar   14   4.930   1.775   8.030
    1   AR   Ar   15   3.739   6.178   7.958
    1   AR   Ar   16   1.039   6.960   5.057
    1   AR   Ar   17   6.856   2.319   0.866
    1   AR   Ar   18   6.284   4.955  -1.188
    1   AR   Ar   19   3.850   3.366   0.046
    1   AR   Ar   20   6.040   4.178  -2.809
    1   AR   Ar   21   2.871   1.804   1.473
    1   AR   Ar   22   6.670   1.855   3.240
    1   AR   Ar   23   0.459   0.291   0.738
    1   AR   Ar   24   6.297   2.022   2.063
    1   AR   Ar   25   0.386   1.837   4.046
    1   AR   Ar   26   6.466   0.018   3.916
    1   AR   Ar   27   1.527   0.643   2.494
    1   AR   Ar   28   0.452   2.784   4.494
    1   AR   Ar   29   5.438   2.851   7.172
    1   AR   Ar   30   1.950   0.959   3.777
    1   AR   Ar   31   3.368   0.237   7.806
    1   AR   Ar   32   0.676   2.758   7.095
    1   AR   Ar   33   0.421   4.407   0.396
    1   AR   Ar   34   0.339   4.778   2.658
    1   AR   Ar   35   5.808   5.869   1.304
    1   AR   Ar   36   5.903   2.187  -2.972
    1   AR   Ar   37   5.394   2.715   2.746
    1   AR   Ar   38   6.800   3.972   2.928
    1   AR   Ar   39   0.721   3.597   3.031
    1   AR   Ar   40   1.711   4.029   1.738
    1   AR   Ar   41   0.446   2.666   3.337
    1   AR   Ar   42   6.022   5.454   5.013
    1   AR   Ar   43   7.087   2.500   5.977
    1   AR   Ar   44   0.443   4.451   3.600
    1   AR   Ar   45   0.899   3.151   5.854
    1   AR   Ar   46   0.015   5.122   4.771
    1   AR   Ar   47   5.182   4.082   7.144
    1   AR   Ar   48   6.424   3.835   7.441
    1   AR   Ar   49   5.341   0.230  -1.024
    1   AR   Ar   50   4.280   5.287   0.464
    1   AR   Ar   51   6.522   4.704   1.406
    1   AR   Ar   52   5.859   3.116  -2.065
    1   AR   Ar   53   5.423   5.909   2.580
    1   AR   Ar   54   0.699   6.337   2.508
    1   AR   Ar   55   6.492   5.549   2.397
    1   AR   Ar   56   6.699   0.386   2.153
    1   AR   Ar   57   4.467   3.372   2.789
    1   AR   Ar   58   6.915   3.523   4.134
    1   AR   Ar   59   2.246   4.886   5.986
    1   AR   Ar   60   0.467   5.698   3.437
    1   AR   Ar   61   0.498   4.687   6.895
    1   AR   Ar   62   6.348   4.341   4.563
    1   AR   Ar   63   1.449   1.447   6.315
    1   AR   Ar   64   1.017   5.528   5.265
    1   AR   Ar   65   4.108   0.030   1.198
    1   AR   Ar   66   0.973   1.529   1.338
    1   AR   Ar   67   4.396   0.077  -0.149
    1   AR   Ar   68   1.562   1.602  -0.973
    1   AR   Ar   69   2.777   1.884   0.174
    1   AR   Ar   70   0.725   0.470   1.955
    1   AR   Ar   71   2.871   1.302   3.391
    1   AR   Ar   72   4.150   6.629   2.157
    1   AR   Ar   73   4.220   0.130   3.168
    1   AR   Ar   74   1.176   0.737   4.592
    1   AR   Ar   75   3.502   0.551   5.108
    1   AR   Ar   76   1.508   0.320   1.306
    1   AR   Ar   77   1.972   6.200   5.267
    1   AR   Ar   78   0.604   6.278   6.109
    1   AR   Ar   79   4.377   5.869   6.411
    1   AR   Ar   80   3.933   5.282   5.473
    1   AR   Ar   81   2.496   6.143   0.150
    1   AR   Ar   82   6.653   4.893   0.280
    1   AR   Ar   83   1.585   2.105   0.440
    1   AR   Ar   84   0.545   4.095   1.419
    1   AR   Ar   85   1.214   3.135   0.824
    1   AR   Ar   86   2.299   5.583   0.996
    1   AR   Ar   87   2.199   2.679   1.458
    1   AR   Ar   88   2.858   4.837   1.742
    1   AR   Ar   89   0.255   2.780   2.404
    1   AR   Ar   90   2.890   1.652   4.591
    1   AR   Ar   91   1.347   2.202   3.556
    1   AR   Ar   92   1.261   3.048   2.084
    1   AR   Ar   93   0.729   0.820   5.563
    1   AR   Ar   94   0.113   6.751  10.995
    1   AR   Ar   95   4.673   0.359   5.277
    1   AR   Ar   96   2.858   6.569   4.658
    1   AR   Ar   97   4.145   2.188  -0.396
    1   AR   Ar   98   1.434   4.465   3.104
    1   AR   Ar   99   6.484   1.496   0.232
    1   AR   Ar  100   1.289   2.608  -0.683
    1   AR   Ar  101   3.534   5.800   2.069
    1   AR   Ar  102   3.883   1.588   2.664
    1   AR   Ar  103   1.439   4.741   0.966
    1   AR   Ar  104   3.379   4.024  -1.004
    1   AR   Ar  105   2.372   2.385   4.134
    1   AR   Ar  106   3.704   3.144   5.557
    1   AR   Ar  107   0.588   4.122   4.579
    1   AR   Ar  108   2.375   0.800   5.081
    1   AR   Ar  109   1.581   3.243   4.717
    1   AR   Ar  110   2.752   2.344   5.434
    1   AR   Ar  111   5.255   5.454   6.778
    1   AR   Ar  112   1.161   5.394   6.337
    1   AR   Ar  113   3.436   4.529   0.178
    1   AR   Ar  114   2.535   0.443  -0.783
    1   AR   Ar  115   2.580   5.122  -0.275
    1   AR   Ar  116   6.396   0.521  -0.354
    1   AR   Ar  117   1.253   5.022   4.192
    1   AR   Ar  118   1.460   5.732   3.095
    1   AR   Ar  119   2.367   4.064   2.611
    1   AR   Ar  120   2.001   6.469   1.433
    1   AR   Ar  121   5.402   3.906   5.376
    1   AR   Ar  122   3.239   5.989   5.644
    1   AR   Ar  123   2.922   3.986   5.190
    1   AR   Ar  124   1.602   5.159   1.935
    1   AR   Ar  125   0.013   3.417   5.244
    1   AR   Ar  126   6.864   6.351   4.830
    1   AR   Ar  127   4.740   4.051   6.134
    1   AR   Ar  128   3.461   4.017   6.481
    1   AR   Ar  129   2.258   5.830   3.978
    1   AR   Ar  130   4.693   2.368  -3.320
    1   AR   Ar  131   3.669   2.973  -1.051
    1   AR   Ar  132   0.658   1.934  -0.088
    1   AR   Ar  133   4.580   6.250   3.051
    1   AR   Ar  134   4.293   1.114   4.495
    1   AR   Ar  135   6.056   1.027   2.927
    1   AR   Ar  136   6.145   6.694   2.463
    1   AR   Ar  137   1.929   4.049   4.454
    1   AR   Ar  138   5.147   1.074   6.260
    1   AR   Ar  139   5.890   2.050   5.330
    1   AR   Ar  140   3.971   7.087   4.376
    1   AR   Ar  141   3.940   5.157   3.949
    1   AR   Ar  142   3.693   7.063   5.916
    1   AR   Ar  143   6.529   6.575   6.172
    1   AR   Ar  144   6.853   1.448   5.175
    1   AR   Ar  145   4.802   5.033  -0.472
    1   AR   Ar  146   3.171   2.786   2.028
    1   AR   Ar  147   4.850   2.483  -1.117
    1   AR   Ar  148   3.228   6.830  -0.970
    1   AR   Ar  149   2.663   1.718  -0.909
    1   AR   Ar  150   2.196   1.782   2.505
    1   AR   Ar  151   2.509   2.677   3.090
    1   AR   Ar  152   2.083   2.584  -1.483
    1   AR   Ar  153   4.855   0.440   3.922
    1   AR   Ar  154   3.728   1.802   3.786
    1   AR   Ar  155   0.037   4.571   5.797
    1   AR   Ar  156   2.828   4.220   3.605
    1   AR   Ar  157   1.042   4.280   5.526
    1   AR   Ar  158   0.377   1.647   6.505
    1   AR   Ar  159   4.265   0.998   7.419
    1   AR   Ar  160   1.530   2.020   4.546
    1   AR   Ar  161   5.023   4.392   2.331
    1   AR   Ar  162   4.656   6.053  -0.387
    1   AR   Ar  163   6.152   4.280  -0.292
    1   AR   Ar  164   2.433   5.708   2.546
    1   AR   Ar  165   5.050   2.381   0.375
    1   AR   Ar  166   3.250   3.124   4.311
    1   AR   Ar  167   4.967   0.237   2.474
    1   AR   Ar  168   5.349   4.176  -1.528
    1   AR   Ar  169   3.459   4.358   2.423
    1   AR   Ar  170   2.249   3.373   5.790
    1   AR   Ar  171   5.420   3.788   4.035
    1   AR   Ar  172   4.187   4.200   5.151
    1   AR   Ar  173   2.787   3.305   6.607
    1   AR   Ar  174   2.058   5.921   6.302
    1   AR   Ar  175   3.850   1.941   5.443
    1   AR   Ar  176   4.148   2.339   4.588
    1   AR   Ar  177   0.611   5.556  -0.980
    1   AR   Ar  178   3.491   5.444  -0.426
    1   AR   Ar  179   3.576   6.364  -0.013
    1   AR   Ar  180   3.447   0.952  -3.814
    1   AR   Ar  181   0.428   5.563   1.546
    1   AR   Ar  182   1.923   6.733   2.565
    1   AR   Ar  183   4.433   5.328   1.979
    1   AR   Ar  184   4.961   6.966   0.660
    1   AR   Ar  185   2.940   5.006   4.756
    1   AR   Ar  186   3.024   5.427   3.406
    1   AR   Ar  187   2.948   6.488   3.266
    1   AR   Ar  188   2.912   6.705   2.046
    1   AR   Ar  189   4.864   2.971   6.322
    1   AR   Ar  190   3.664   6.189   3.994
    1   AR   Ar  191   2.495   6.220   7.650
    1   AR   Ar  192   4.046   6.444   5.158
    1   AR   Ar  193   3.162   6.185   1.174
    1   AR   Ar  194   4.718   3.956  -0.704
    1   AR   Ar  195   5.428   1.364   0.403
    1   AR   Ar  196   4.549   1.164  -0.094
    1   AR   Ar  197   3.575   1.456   0.598
    1   AR   Ar  198   6.634   1.067   1.279
    1   AR   Ar  199   3.330   0.320   2.779
    1   AR   Ar  200   5.695   2.484  -0.470
    1   AR   Ar  201   6.155   6.268   3.499
    1   AR   Ar  202   5.651   1.120   4.882
    1   AR   Ar  203   0.202   0.236   2.949
    1   AR   Ar  204   5.451   6.309   5.611
    1   AR   Ar  205   6.768   6.407   1.482
    1   AR   Ar  206   5.851   0.230   5.393
    1   AR   Ar  207   0.692   1.880   5.430
    1   AR   Ar  208   0.708   6.012   4.344
    1   AR   Ar  209   6.974   2.387  -1.980
    1   AR   Ar  210   2.597   0.051   0.831
    1   AR   Ar  211   7.069   3.185   0.575
    1   AR   Ar  212   6.470   3.355  -1.081
    1   AR   Ar  213   2.699   0.610   1.923
    1   AR   Ar  214   4.668   3.093   1.817
    1   AR   Ar  215   5.833   3.201   1.871
    1   AR   Ar  216   0.564   2.541   1.518
    1   AR   Ar  217   5.296   2.711   4.080
    1   AR   Ar  218   4.702   3.105   4.898
    1   AR   Ar  219   4.036   2.899   3.628
    1   AR   Ar  220   3.675   2.459   0.765
    1   AR   Ar  221   6.588   5.584   4.025
    1   AR   Ar  222   5.022   7.026   6.469
    1   AR   Ar  223   5.954   1.948   6.798
    1   AR   Ar  224   4.859   2.277   5.565
    1   AR   Ar  225   6.540   2.913   3.359
    1   AR   Ar  226   1.858   3.504   3.368
    1   AR   Ar  227   6.872   3.539   1.700
    1   AR   Ar  228   5.612   6.790   1.586
    1   AR   Ar  229   5.376   5.374  -1.772
    1   AR   Ar  230   3.895   4.034   3.504
    1   AR   Ar  231   5.556   1.466   3.777
    1   AR   Ar  232   5.185   2.189   1.425
    1   AR   Ar  233   6.252   2.178   4.295
    1   AR   Ar  234   6.039   3.221   4.663
    1   AR   Ar  235   6.475   0.990   3.956
    1   AR   Ar  236   5.014   4.915   5.474
    1   AR   Ar  237   6.096   2.928   6.266
    1   AR   Ar  238   5.809   3.949   6.333
    1   AR   Ar  239   6.833   4.632   9.293
    1   AR   Ar  240   6.704   2.460   7.292
    1   AR   Ar  241   1.729   6.864  -0.353
    1   AR   Ar  242   5.243   5.826   0.352
    1   AR   Ar  243   4.946   5.107   3.120
    1   AR   Ar  244   0.414   5.729   0.255
    1   AR   Ar  245   3.686   1.061   1.647
    1   AR   Ar  246   5.709   6.778  -0.254
    1   AR   Ar  247   5.878   3.789   0.636
    1   AR   Ar  248   5.934   5.748  -0.506
    1   AR   Ar  249   4.611   6.059   1.164
    1   AR   Ar  250   5.027   5.771   4.904
    1   AR   Ar  251   4.722   4.641   4.489
    1   AR   Ar  252   3.924   5.503   2.947
    1   AR   Ar  253   7.020   3.403   6.444
    1   AR   Ar  254   2.293   2.710   8.826
    1   AR   Ar  255   3.961   4.827   9.738
    1   AR   Ar  256   6.080   4.765   3.404
    7.12000  7.12000 12.00000
Argon-slab step 3815
  256
    1   AR   Ar    1   4.977   1.867  -2.490
    1   AR   Ar    2   5.943   0.394   0.734
    1   AR   Ar    3   3.778   2.128  -1.517
    1   AR   Ar    4   1.691   0.781  -0.196
    1   AR   Ar    5   6.599   6.259   0.550
    1   AR   Ar    6   0.050   1.541   2.226
    1   AR   Ar    7   5.723   3.812   2.971
    1   AR   Ar    8   4.545   1.292   0.953
    1   AR   Ar    9   1.236   7.100   3.396
    1   AR   Ar   10   0.426   6.984   4.072
    1   AR   Ar   11   1.876   7.009   4.280
    1   AR   Ar   12   0.768   1.053   3.461
    1   AR   Ar   13   7.040   0.444   4.820
    1   AR   Ar   14   4.910   1.784   8.031
    1   AR   Ar   15   3.754   6.180   7.951
    1   AR   Ar   16   1.053   6.987   5.042
    1   AR   Ar   17   6.825   2.323   0.854
    1   AR   Ar   18   6.281   4.975  -1.196
    1   AR   Ar   19   3.831   3.343   0.021
    1   AR   Ar   20   6.062   4.146  -2.828
    1   AR   Ar   21   2.857   1.806   1.473
    1   AR   Ar   22   6.692   1.870   3.218
    1   AR   Ar   23   0.486   0.296   0.749
    1   AR   Ar   24   6.315   2.022   2.067
    1   AR   Ar   25   0.361   1.858   4.039
    1   AR   Ar   26   6.441   0.035   3.917
    1   AR   Ar   27   1.535   0.580   2.504
    1   AR   Ar   28   0.456   2.781   4.482
    1   AR   Ar   29   5.423   2.806   7.191
    1   AR   Ar   30   1.949   0.945   3.752
    1   AR   Ar   31   3.357   0.241   7.820
    1   AR   Ar   32   0.652   2.780   7.085
    1   AR   Ar   33   0.427   4.416   0.384
    1   AR   Ar   34   0.368   4.775   2.637
    1   AR   Ar   35   5.845   5.864   1.340
    1   AR   Ar   36   5.905   2.199  -2.972
    1   AR   Ar   37   5.373   2.742   2.763
    1   AR   Ar   38   6.770   3.979   2.952
    1   AR   Ar   39   0.693   3.561   3.033
    1   AR   Ar   40   1.728   4.032   1.739
    1   AR   Ar   41   0.426   2.677   3.305
    1   AR   Ar   42   6.021   5.508   5.024
    1   AR   Ar   43   7.104   2.469   5.951
    1   AR   Ar   44   0.445   4.449   3.602
    1   AR   Ar   45   0.896   3.155   5.865
    1   AR   Ar   46   0.010   5.092   4.770
    1   AR   Ar   47   5.169   4.099   7.141
    1   AR   Ar   48   6.411   3.800   7.453
    1   AR   Ar   49   5.310   0.222  -1.032
    1   AR   Ar   50   4.280   5.270   0.451
    1   AR   Ar   51   6.496   4.691   1.400
    1   AR   Ar   52   5.878   3.093  -2.058
    1   AR   Ar   53   5.435   5.905   2.588
    1   AR   Ar   54   0.705   6.357   2.495
    1   AR   Ar   55   6.453   5.548   2.388
    1   AR   Ar   56   6.726   0.412   2.159
    1   AR   Ar   57   4.471   3.396   2.817
    1   AR   Ar   58   6.961   3.513   4.145
    1   AR   Ar   59   2.211   4.893   5.962
    1   AR   Ar   60   0.471   5.688   3.422
    1   AR   Ar   61   0.516   4.692   6.896
    1   AR   Ar   62   6.307   4.311   4.565
    1   AR   Ar   63   1.428   1.415   6.316
    1   AR   Ar   64   1.046   5.530   5.268
    1   AR   Ar   65   4.113   0.023   1.208
    1   AR   Ar   66   0.919   1.511   1.305
    1   AR   Ar   67   4.408   0.081  -0.160
    1   AR   Ar   68   1.526   1.574  -0.986
    1   AR   Ar   69   2.774   1.873   0.152
    1   AR   Ar   70   0.717   0.490   1.955
    1   AR   Ar   71   2.858   1.304   3.365
    1   AR   Ar   72   4.131   6.640   2.138
    1   AR   Ar   73   4.187   0.140   3.178
    1   AR   Ar   74   1.141   0.747   4.580
    1   AR   Ar   75   3.467   0.544   5.112
    1   AR   Ar   76   1.505   0.292   1.317
    1   AR   Ar   77   1.977   6.190   5.269
    1   AR   Ar   78   0.610   6.261   6.142
    1   AR   Ar   79   4.409   5.878   6.414
    1   AR   Ar   80   3.906   5.294   5.436
    1   AR   Ar   81   2.497   6.127   0.153
    1   AR   Ar   82   6.652   4.907   0.271
    1   AR   Ar   83   1.628   2.111   0.423
    1   AR   Ar   84   0.555   4.087   1.392
    1   AR   Ar   85   1.229   3.093   0.848
    1   AR   Ar   86   2.327   5.595   0.978
    1   AR   Ar   87   2.174   2.692   1.463
    1   AR   Ar   88   2.879   4.852   1.731
    1   AR   Ar   89   0.253   2.796   2.384
    1   AR   Ar   90   2.874   1.673   4.596
    1   AR   Ar   91   1.348   2.202   3.555
    1   AR   Ar   92   1.275   3.030   2.084
    1   AR   Ar   93   0.749   0.832   5.572
    1   AR   Ar   94   0.117   6.726  10.993
    1   AR   Ar   95   4.662   0.324   5.259
    1   AR   Ar   96   2.878   6.560   4.625
    1   AR   Ar   97   4.103   2.181  -0.397
    1   AR   Ar   98   1.428   4.484   3.124
    1   AR   Ar   99   6.498   1.507   0.236
    1   AR   Ar  100   1.276   2.607  -0.692
    1   AR   Ar  101   3.523   5.811   2.054
    1   AR   Ar  102   3.885   1.605   2.666
    1   AR   Ar  103   1.428   4.730   0.947
    1   AR   Ar  104   3.364   4.045  -0.997
    1   AR   Ar  105   2.357   2.377   4.141
    1   AR   Ar  106   3.715   3.127   5.578
    1   AR   Ar  107   0.551   4.128   4.594
    1   AR   Ar  108   2.399   0.791   5.081
    1   AR   Ar  109   1.549   3.191   4.671
    1   AR   Ar  110   2.746   2.356   5.428
    1   AR   Ar  111   5.244   5.455   6.760
    1   AR   Ar  112   1.171   5.384   6.339
    1   AR   Ar  113   3.460   4.546   0.156
    1   AR   Ar  114   2.529   0.464  -0.804
    1   AR   Ar  115   2.527   5.104  -0.296
    1   AR   Ar  116   6.383   0.500  -0.359
    1   AR   Ar  117   1.243   4.994   4.204
    1   AR   Ar  118   1.475   5.747   3.082
    1   AR   Ar  119   2.396   4.076   2.624
    1   AR   Ar  120   1.987   6.494   1.434
    1   AR   Ar  121   5.362   3.927   5.384
    1   AR   Ar  122   3.264   6.001   5.624
    1   AR   Ar  123   2.929   4.001   5.196
    1   AR   Ar  124   1.611   5.192   1.954
    1   AR   Ar  125   0.045   3.392   5.212
    1   AR   Ar  126   6.850   6.284   4.821
    1   AR   Ar  127   4.786   4.037   6.099
    1   AR   Ar  128   3.402   3.977   6.493
    1   AR   Ar  129   2.242   5.809   4.008
    1   AR   Ar  130   4.709   2.372  -3.325
    1   AR   Ar  131   3.683   2.964  -1.062
    1   AR   Ar  132   0.661   1.888  -0.097
    1   AR   Ar  133   4.545   6.244   3.065
    1   AR   Ar  134   4.222   1.115   4.512
    1   AR   Ar  135   6.039   1.012   2.946
    1   AR   Ar  136   6.182   6.692   2.474
    1   AR   Ar  137   1.943   4.068   4.457
    1   AR   Ar  138   5.158   1.058   6.267
    1   AR   Ar  139   5.872   2.060   5.328
    1   AR   Ar  140   3.970   7.074   4.354
    1   AR   Ar  141   3.940   5.141   3.938
    1   AR   Ar  142   3.687   7.079   5.947
    1   AR   Ar  143   6.542   6.575   6.179
    1   AR   Ar  144   6.853   1.445   5.168
    1   AR   Ar  145   4.786   5.011  -0.501
    1   AR   Ar  146   3.154   2.758   2.048
    1   AR   Ar  147   4.870   2.471  -1.108
    1   AR   Ar  148   3.225   6.828  -0.970
    1   AR   Ar  149   2.677   1.680  -0.895
    1   AR   Ar  150   2.182   1.783   2.525
    1   AR   Ar  151   2.534   2.679   3.081
    1   AR   Ar  152   2.063   2.565  -1.470
    1   AR   Ar  153   4.861   0.465   3.952
    1   AR   Ar  154   3.721   1.817   3.769
    1   AR   Ar  155   0.061   4.554   5.790
    1   AR   Ar  156   2.825   4.220   3.580
    1   AR   Ar  157   1.024   4.252   5.507
    1   AR   Ar  158   0.369   1.654   6.511
    1   AR   Ar  159   4.242   0.951   7.416
    1   AR   Ar  160   1.508   2.041   4.560
    1   AR   Ar  161   5.009   4.398   2.335
    1   AR   Ar  162   4.666   6.054  -0.413
    1   AR   Ar  163   6.146   4.288  -0.290
    1   AR   Ar  164   2.465   5.685   2.535
    1   AR   Ar  165   5.030   2.366   0.367
    1   AR   Ar  166   3.244   3.140   4.305
    1   AR   Ar  167   4.962   0.251   2.506
    1   AR   Ar  168   5.361   4.189  -1.532
    1   AR   Ar  169   3.450   4.344   2.423
    1   AR   Ar  170   2.248   3.349   5.757
    1   AR   Ar  171   5.411   3.795   4.040
    1   AR   Ar  172   4.151   4.204   5.159
    1   AR   Ar  173   2.746   3.304   6.624
    1   AR   Ar  174   2.077   5.943   6.291
    1   AR   Ar  175   3.840   1.924   5.418
    1   AR   Ar  176   4.151   2.347   4.556
    1   AR   Ar  177   0.627   5.541  -0.975
    1   AR   Ar  178   3.479   5.486  -0.439
    1   AR   Ar  179   3.540   6.387  -0.013
    1   AR   Ar  180   3.478   0.932  -3.824
    1   AR   Ar  181   0.407   5.568   1.565
    1   AR   Ar  182   1.921   6.720   2.548
    1   AR   Ar  183   4.413   5.301   2.005
    1   AR   Ar  184   4.964   6.982   0.642
    1   AR   Ar  185   2.957   4.993   4.743
    1   AR   Ar  186   3.003   5.419   3.385
    1   AR   Ar  187   2.937   6.480   3.271
    1   AR   Ar  188   2.875   6.713   2.051
    1   AR   Ar  189   4.875   2.939   6.328
    1   AR   Ar  190   3.628   6.174   3.999
    1   AR   Ar  191   2.500   6.217   7.650
    1   AR   Ar  192   4.070   6.462   5.128
    1   AR   Ar  193   3.181   6.153   1.175
    1   AR   Ar  194   4.744   3.953  -0.713
    1   AR   Ar  195   5.425   1.370   0.399
    1   AR   Ar  196   4.526   1.183  -0.123
    1   AR   Ar  197   3.549   1.456   0.591
    1   AR   Ar  198   6.614   1.064   1.264
    1   AR   Ar  199   3.322   0.304   2.780
    1   AR   Ar  200   5.732   2.533  -0.438
    1   AR   Ar  201   6.146   6.251   3.506
    1   AR   Ar  202   5.645   1.147   4.883
    1   AR   Ar  203   0.214   0.230   2.950
    1   AR   Ar  204   5.439   6.302   5.588
    1   AR   Ar  205   6.766   6.405   1.485
    1   AR   Ar  206   5.865   0.193   5.390
    1   AR   Ar  207   0.682   1.924   5.380
    1   AR   Ar  208   0.747   5.977   4.351
    1   AR   Ar  209   6.994   2.399  -1.983
    1   AR   Ar  210   2.589   0.067   0.819
    1   AR   Ar  211   7.079   3.202   0.556
    1   AR   Ar  212   6.477   3.367  -1.057
    1   AR   Ar  213   2.720   0.650   1.919
    1   AR   Ar  214   4.678   3.108   1.848
    1   AR   Ar  215   5.825   3.223   1.878
    1   AR   Ar  216   0.574   2.554   1.494
    1   AR   Ar  217   5.322   2.724   4.042
    1   AR   Ar  218   4.720   3.117   4.916
    1   AR   Ar  219   4.060   2.902   3.628
    1   AR   Ar  220   3.694   2.501   0.778
    1   AR   Ar  221   6.582   5.585   4.042
    1   AR   Ar  222   5.048   7.024   6.430
    1   AR   Ar  223   5.977   1.930   6.797
    1   AR   Ar  224   4.880   2.278   5.564
    1   AR   Ar  225   6.540   2.905   3.375
    1   AR   Ar  226   1.845   3.476   3.396
    1   AR   Ar  227   6.856   3.516   1.718
    1   AR   Ar  228   5.600   6.772   1.560
    1   AR   Ar  229   5.344   5.370  -1.762
    1   AR   Ar  230   3.861   4.062   3.522
    1   AR   Ar  231   5.535   1.426   3.738
    1   AR   Ar  232   5.181   2.189   1.409
    1   AR   Ar  233   6.253   2.186   4.304
    1   AR   Ar  234   6.059   3.229   4.658
    1   AR   Ar  235   6.456   0.997   3.954
    1   AR   Ar  236   4.994   4.880   5.450
    1   AR   Ar  237   6.091   2.902   6.290
    1   AR   Ar  238   5.834   3.960   6.315
    1   AR   Ar  239   6.833   4.632   9.261
    1   AR   Ar  240   6.707   2.484   7.284
    1   AR   Ar  241   1.753   6.883  -0.377
    1   AR   Ar  242   5.243   5.837   0.380
    1   AR   Ar  243   4.944   5.140   3.130
    1   AR   Ar  244   0.460   5.724   0.264
    1   AR   Ar  245   3.677   1.064   1.646
    1   AR   Ar  246   5.701   6.761  -0.252
    1   AR   Ar  247   5.867   3.807   0.662
    1   AR   Ar  248   5.940   5.740  -0.506
    1   AR   Ar  249   4.622   6.038   1.127
    1   AR   Ar  250   5.003   5.828   4.889
    1   AR   Ar  251   4.706   4.664   4.501
    1   AR   Ar  252   3.924   5.480   2.974
    1   AR   Ar  253   7.016   3.392   6.451
    1   AR   Ar  254   2.294   2.693   8.844
    1   AR   Ar  255   3.966   4.834   9.728
    1   AR   Ar  256   6.047   4.774   3.407
    7.12000  7.12000 12.00000
Argon-slab step 3820
  256
    1   AR   Ar    1   4.979   1.872  -2.500
    1   AR   Ar    2   5.966   0.375   0.741
    1   AR   Ar    3   3.783   2.146  -1.529
    1   AR   Ar    4   1.705   0.744  -0.224
    1   AR   Ar    5   6.565   6.258   0.545
    1   AR   Ar    6   0.048   1.553   2.261
    1   AR   Ar    7   5.696   3.769   2.956
    1   AR   Ar    8   4.525   1.268   0.926
    1   AR   Ar    9   1.239   7.114   3.421
    1   AR   Ar   10   0.455   6.997   4.083
    1   AR   Ar   11   1.869   7.006   4.302
    1   AR   Ar   12   0.775   1.055   3.478
    1   AR   Ar   13   7.064   0.459   4.827
    1   AR   Ar   14   4.889   1.794   8.031
    1   AR   Ar   15   3.767   6.183   7.944
    1   AR   Ar   16   1.066   7.003   5.032
    1   AR   Ar   17   6.820   2.320   0.846
    1   AR   Ar   18   6.267   4.999  -1.159
    1   AR   Ar   19   3.813   3.321  -0.005
    1   AR   Ar   20   6.084   4.113  -2.846
    1   AR   Ar   21   2.844   1.807   1.473
    1   AR   Ar   22   6.713   1.882   3.199
    1   AR   Ar   23   0.525   0.297   0.770
    1   AR   Ar   24   6.325   2.029   2.069
    1   AR   Ar   25   0.334   1.874   4.033
    1   AR   Ar   26   6.418   0.039   3.920
    1   AR   Ar   27   1.551   0.522   2.521
    1   AR   Ar   28   0.468   2.774   4.472
    1   AR   Ar   29   5.413   2.763   7.214
    1   AR   Ar   30   1.945   0.930   3.728
    1   AR   Ar   31   3.346   0.244   7.833
    1   AR   Ar   32   0.626   2.802   7.072
    1   AR   Ar   33   0.437   4.423   0.371
    1   AR   Ar   34   0.398   4.775   2.610
    1   AR   Ar   35   5.886   5.842   1.373
    1   AR   Ar   36   5.907   2.211  -2.972
    1   AR   Ar   37   5.352   2.769   2.781
    1   AR   Ar   38   6.741   3.984   2.977
    1   AR   Ar   39   0.671   3.541   3.030
    1   AR   Ar   40   1.744   4.035   1.740
    1   AR   Ar   41   0.408   2.668   3.302
    1   AR   Ar   42   6.022   5.559   5.035
    1   AR   Ar   43   7.117   2.440   5.924
    1   AR   Ar   44   0.445   4.447   3.609
    1   AR   Ar   45   0.893   3.159   5.875
    1   AR   Ar   46   0.008   5.061   4.771
    1   AR   Ar   47   5.155   4.115   7.139
    1   AR   Ar   48   6.398   3.764   7.463
    1   AR   Ar   49   5.278   0.217  -1.039
    1   AR   Ar   50   4.279   5.253   0.436
    1   AR   Ar   51   6.470   4.677   1.394
    1   AR   Ar   52   5.897   3.080  -2.057
    1   AR   Ar   53   5.449   5.902   2.592
    1   AR   Ar   54   0.707   6.379   2.476
    1   AR   Ar   55   6.417   5.546   2.378
    1   AR   Ar   56   6.751   0.442   2.158
    1   AR   Ar   57   4.477   3.424   2.846
    1   AR   Ar   58   7.003   3.508   4.150
    1   AR   Ar   59   2.175   4.898   5.937
    1   AR   Ar   60   0.470   5.675   3.400
    1   AR   Ar   61   0.533   4.696   6.896
    1   AR   Ar   62   6.267   4.281   4.567
    1   AR   Ar   63   1.407   1.384   6.315
    1   AR   Ar   64   1.074   5.530   5.272
    1   AR   Ar   65   4.121   0.007   1.209
    1   AR   Ar   66   0.864   1.491   1.271
    1   AR   Ar   67   4.414   0.084  -0.179
    1   AR   Ar   68   1.496   1.547  -0.989
    1   AR   Ar   69   2.761   1.869   0.128
    1   AR   Ar   70   0.696   0.510   1.951
    1   AR   Ar   71   2.848   1.308   3.335
    1   AR   Ar   72   4.088   6.661   2.105
    1   AR   Ar   73   4.162   0.147   3.199
    1   AR   Ar   74   1.135   0.746   4.580
    1   AR   Ar   75   3.433   0.539   5.114
    1   AR   Ar   76   1.504   0.266   1.325
    1   AR   Ar   77   1.981   6.181   5.266
    1   AR   Ar   78   0.613   6.247   6.172
    1   AR   Ar   79   4.418   5.892   6.407
    1   AR   Ar   80   3.891   5.296   5.394
    1   AR   Ar   81   2.500   6.117   0.149
    1   AR   Ar   82   6.653   4.933   0.270
    1   AR   Ar   83   1.672   2.116   0.407
    1   AR   Ar   84   0.569   4.080   1.368
    1   AR   Ar   85   1.244   3.052   0.871
    1   AR   Ar   86   2.351   5.596   0.967
    1   AR   Ar   87   2.148   2.705   1.468
    1   AR   Ar   88   2.895   4.871   1.718
    1   AR   Ar   89   0.239   2.816   2.355
    1   AR   Ar   90   2.867   1.685   4.604
    1   AR   Ar   91   1.351   2.201   3.550
    1   AR   Ar   92   1.293   3.016   2.086
    1   AR   Ar   93   0.767   0.844   5.582
    1   AR   Ar   94   0.121   6.699  10.988
    1   AR   Ar   95   4.650   0.289   5.240
    1   AR   Ar   96   2.897   6.553   4.595
    1   AR   Ar   97   4.060   2.173  -0.396
    1   AR   Ar   98   1.423   4.504   3.143
    1   AR   Ar   99   6.543   1.498   0.267
    1   AR   Ar  100   1.264   2.623  -0.717
    1   AR   Ar  101   3.507   5.818   2.044
    1   AR   Ar  102   3.886   1.620   2.668
    1   AR   Ar  103   1.404   4.705   0.928
    1   AR   Ar  104   3.351   4.067  -0.989
    1   AR   Ar  105   2.342   2.382   4.140
    1   AR   Ar  106   3.725   3.111   5.598
    1   AR   Ar  107   0.516   4.135   4.610
    1   AR   Ar  108   2.420   0.781   5.080
    1   AR   Ar  109   1.511   3.126   4.627
    1   AR   Ar  110   2.741   2.370   5.421
    1   AR   Ar  111   5.252   5.450   6.760
    1   AR   Ar  112   1.185   5.388   6.328
    1   AR   Ar  113   3.484   4.562   0.134
    1   AR   Ar  114   2.522   0.489  -0.825
    1   AR   Ar  115   2.470   5.085  -0.316
    1   AR   Ar  116   6.369   0.480  -0.364
    1   AR   Ar  117   1.233   4.965   4.215
    1   AR   Ar  118   1.495   5.762   3.069
    1   AR   Ar  119   2.423   4.087   2.633
    1   AR   Ar  120   1.974   6.516   1.436
    1   AR   Ar  121   5.345   3.937   5.360
    1   AR   Ar  122   3.275   6.024   5.608
    1   AR   Ar  123   2.938   4.014   5.202
    1   AR   Ar  124   1.621   5.226   1.974
    1   AR   Ar  125   0.074   3.370   5.186
    1   AR   Ar  126   6.836   6.219   4.813
    1   AR   Ar  127   4.808   4.027   6.091
    1   AR   Ar  128   3.359   3.953   6.499
    1   AR   Ar  129   2.200   5.831   4.020
    1   AR   Ar  130   4.724   2.381  -3.337
    1   AR   Ar  131   3.696   2.973  -1.063
    1   AR   Ar  132   0.664   1.842  -0.105
    1   AR   Ar  133   4.515   6.246   3.081
    1   AR   Ar  134   4.200   1.122   4.525
    1   AR   Ar  135   6.025   0.993   2.959
    1   AR   Ar  136   6.218   6.688   2.486
    1   AR   Ar  137   1.981   4.067   4.444
    1   AR   Ar  138   5.169   1.043   6.272
    1   AR   Ar  139   5.859   2.074   5.328
    1   AR   Ar  140   3.970   7.072   4.326
    1   AR   Ar  141   3.938   5.122   3.932
    1   AR   Ar  142   3.683   7.091   5.980
    1   AR   Ar  143   6.554   6.575   6.183
    1   AR   Ar  144   6.852   1.444   5.160
    1   AR   Ar  145   4.776   4.995  -0.540
    1   AR   Ar  146   3.136   2.730   2.068
    1   AR   Ar  147   4.889   2.459  -1.101
    1   AR   Ar  148   3.225   6.823  -0.970
    1   AR   Ar  149   2.663   1.662  -0.888
    1   AR   Ar  150   2.169   1.782   2.546
    1   AR   Ar  151   2.559   2.681   3.071
    1   AR   Ar  152   2.044   2.544  -1.456
    1   AR   Ar  153   4.870   0.491   3.983
    1   AR   Ar  154   3.712   1.832   3.750
    1   AR   Ar  155   0.057   4.526   5.786
    1   AR   Ar  156   2.818   4.223   3.558
    1   AR   Ar  157   1.010   4.256   5.491
    1   AR   Ar  158   0.383   1.653   6.509
    1   AR   Ar  159   4.219   0.904   7.414
    1   AR   Ar  160   1.478   2.058   4.583
    1   AR   Ar  161   4.994   4.402   2.340
    1   AR   Ar  162   4.669   6.060  -0.443
    1   AR   Ar  163   6.133   4.287  -0.298
    1   AR   Ar  164   2.512   5.672   2.518
    1   AR   Ar  165   5.006   2.352   0.358
    1   AR   Ar  166   3.237   3.156   4.300
    1   AR   Ar  167   4.961   0.264   2.534
    1   AR   Ar  168   5.376   4.202  -1.537
    1   AR   Ar  169   3.446   4.329   2.428
    1   AR   Ar  170   2.242   3.324   5.714
    1   AR   Ar  171   5.400   3.805   4.044
    1   AR   Ar  172   4.106   4.200   5.178
    1   AR   Ar  173   2.694   3.287   6.652
    1   AR   Ar  174   2.098   5.965   6.282
    1   AR   Ar  175   3.825   1.902   5.399
    1   AR   Ar  176   4.154   2.355   4.521
    1   AR   Ar  177   0.643   5.525  -0.969
    1   AR   Ar  178   3.473   5.521  -0.455
    1   AR   Ar  179   3.507   6.418  -0.008
    1   AR   Ar  180   3.509   0.913  -3.834
    1   AR   Ar  181   0.386   5.572   1.584
    1   AR   Ar  182   1.918   6.703   2.532
    1   AR   Ar  183   4.399   5.272   2.031
    1   AR   Ar  184   4.977   6.994   0.627
    1   AR   Ar  185   2.975   4.981   4.728
    1   AR   Ar  186   2.980   5.405   3.368
    1   AR   Ar  187   2.924   6.474   3.272
    1   AR   Ar  188   2.840   6.720   2.056
    1   AR   Ar  189   4.883   2.913   6.334
    1   AR   Ar  190   3.595   6.152   4.001
    1   AR   Ar  191   2.506   6.214   7.649
    1   AR   Ar  192   4.098   6.475   5.104
    1   AR   Ar  193   3.189   6.121   1.177
    1   AR   Ar  194   4.768   3.947  -0.719
    1   AR   Ar  195   5.429   1.375   0.396
    1   AR   Ar  196   4.501   1.203  -0.154
    1   AR   Ar  197   3.531   1.449   0.588
    1   AR   Ar  198   6.596   1.062   1.250
    1   AR   Ar  199   3.299   0.292   2.775
    1   AR   Ar  200   5.772   2.582  -0.406
    1   AR   Ar  201   6.125   6.243   3.498
    1   AR   Ar  202   5.639   1.171   4.881
    1   AR   Ar  203   0.184   0.186   2.960
    1   AR   Ar  204   5.437   6.306   5.582
    1   AR   Ar  205   6.768   6.407   1.509
    1   AR   Ar  206   5.858   0.191   5.390
    1   AR   Ar  207   0.675   1.969   5.328
    1   AR   Ar  208   0.778   5.957   4.367
    1   AR   Ar  209   7.014   2.412  -1.986
    1   AR   Ar  210   2.556   0.038   0.818
    1   AR   Ar  211   7.095   3.237   0.533
    1   AR   Ar  212   6.482   3.379  -1.033
    1   AR   Ar  213   2.737   0.692   1.914
    1   AR   Ar  214   4.683   3.147   1.859
    1   AR   Ar  215   5.815   3.243   1.886
    1   AR   Ar  216   0.583   2.562   1.456
    1   AR   Ar  217   5.347   2.735   4.001
    1   AR   Ar  218   4.741   3.136   4.935
    1   AR   Ar  219   4.083   2.904   3.629
    1   AR   Ar  220   3.713   2.543   0.791
    1   AR   Ar  221   6.563   5.586   4.025
    1   AR   Ar  222   5.074   7.022   6.389
    1   AR   Ar  223   5.997   1.909   6.793
    1   AR   Ar  224   4.893   2.294   5.549
    1   AR   Ar  225   6.534   2.901   3.390
    1   AR   Ar  226   1.832   3.449   3.427
    1   AR   Ar  227   6.839   3.492   1.737
    1   AR   Ar  228   5.584   6.770   1.536
    1   AR   Ar  229   5.313   5.365  -1.750
    1   AR   Ar  230   3.831   4.089   3.539
    1   AR   Ar  231   5.508   1.391   3.704
    1   AR   Ar  232   5.177   2.189   1.395
    1   AR   Ar  233   6.256   2.193   4.311
    1   AR   Ar  234   6.086   3.236   4.653
    1   AR   Ar  235   6.443   1.021   3.956
    1   AR   Ar  236   4.975   4.853   5.433
    1   AR   Ar  237   6.083   2.874   6.313
    1   AR   Ar  238   5.864   3.972   6.300
    1   AR   Ar  239   6.833   4.632   9.228
    1   AR   Ar  240   6.712   2.512   7.276
    1   AR   Ar  241   1.778   6.898  -0.402
    1   AR   Ar  242   5.256   5.846   0.405
    1   AR   Ar  243   4.942   5.171   3.143
    1   AR   Ar  244   0.506   5.716   0.274
    1   AR   Ar  245   3.669   1.067   1.644
    1   AR   Ar  246   5.693   6.742  -0.243
    1   AR   Ar  247   5.857   3.824   0.689
    1   AR   Ar  248   5.946   5.729  -0.503
    1   AR   Ar  249   4.626   6.022   1.102
    1   AR   Ar  250   4.966   5.875   4.857
    1   AR   Ar  251   4.699   4.675   4.501
    1   AR   Ar  252   3.922   5.450   2.995
    1   AR   Ar  253   7.014   3.385   6.461
    1   AR   Ar  254   2.298   2.671   8.848
    1   AR   Ar  255   3.972   4.841   9.717
    1   AR   Ar  256   6.014   4.785   3.410
    7.12000  7.12000 12.00000
Argon-slab step 3825
  256
    1   AR   Ar    1   4.982   1.872  -2.502
    1   AR   Ar    2   5.987   0.354   0.745
    1   AR   Ar    3   3.791   2.145  -1.550
    1   AR   Ar    4   1.715   0.722  -0.247
    1   AR   Ar    5   6.527   6.254   0.529
    1   AR   Ar    6   0.049   1.559   2.299
    1   AR   Ar    7   5.668   3.728   2.941
    1   AR   Ar    8   4.504   1.243   0.903
    1   AR   Ar    9   1.244   0.008   3.442
    1   AR   Ar   10   0.481   7.008   4.095
    1   AR   Ar   11   1.864   7.003   4.324
    1   AR   Ar   12   0.784   1.056   3.495
    1   AR   Ar   13   7.089   0.472   4.833
    1   AR   Ar   14   4.869   1.803   8.030
    1   AR   Ar   15   3.780   6.188   7.936
    1   AR   Ar   16   1.076   7.005   5.028
    1   AR   Ar   17   6.834   2.317   0.843
    1   AR   Ar   18   6.254   5.019  -1.125
    1   AR   Ar   19   3.796   3.299  -0.033
    1   AR   Ar   20   6.105   4.079  -2.863
    1   AR   Ar   21   2.831   1.808   1.472
    1   AR   Ar   22   6.723   1.890   3.189
    1   AR   Ar   23   0.564   0.298   0.792
    1   AR   Ar   24   6.325   2.043   2.069
    1   AR   Ar   25   0.306   1.883   4.028
    1   AR   Ar   26   6.397   0.031   3.924
    1   AR   Ar   27   1.569   0.473   2.539
    1   AR   Ar   28   0.490   2.762   4.462
    1   AR   Ar   29   5.406   2.719   7.241
    1   AR   Ar   30   1.935   0.913   3.706
    1   AR   Ar   31   3.336   0.246   7.846
    1   AR   Ar   32   0.631   2.786   7.080
    1   AR   Ar   33   0.450   4.429   0.358
    1   AR   Ar   34   0.427   4.777   2.579
    1   AR   Ar   35   5.926   5.808   1.404
    1   AR   Ar   36   5.909   2.225  -2.972
    1   AR   Ar   37   5.331   2.793   2.799
    1   AR   Ar   38   6.716   3.989   3.003
    1   AR   Ar   39   0.657   3.543   3.021
    1   AR   Ar   40   1.759   4.037   1.742
    1   AR   Ar   41   0.391   2.639   3.320
    1   AR   Ar   42   6.023   5.607   5.045
    1   AR   Ar   43   0.004   2.416   5.898
    1   AR   Ar   44   0.443   4.446   3.618
    1   AR   Ar   45   0.890   3.162   5.886
    1   AR   Ar   46   0.007   5.032   4.773
    1   AR   Ar   47   5.142   4.130   7.137
    1   AR   Ar   48   6.383   3.727   7.469
    1   AR   Ar   49   5.244   0.212  -1.047
    1   AR   Ar   50   4.277   5.237   0.420
    1   AR   Ar   51   6.446   4.663   1.387
    1   AR   Ar   52   5.918   3.112  -2.077
    1   AR   Ar   53   5.461   5.902   2.593
    1   AR   Ar   54   0.708   6.401   2.456
    1   AR   Ar   55   6.384   5.544   2.367
    1   AR   Ar   56   6.770   0.476   2.151
    1   AR   Ar   57   4.485   3.459   2.874
    1   AR   Ar   58   6.980   3.494   4.135
    1   AR   Ar   59   2.139   4.904   5.910
    1   AR   Ar   60   0.467   5.659   3.376
    1   AR   Ar   61   0.548   4.700   6.894
    1   AR   Ar   62   6.228   4.255   4.569
    1   AR   Ar   63   1.388   1.353   6.313
    1   AR   Ar   64   1.103   5.528   5.277
    1   AR   Ar   65   4.126   7.115   1.206
    1   AR   Ar   66   0.807   1.470   1.238
    1   AR   Ar   67   4.417   0.088  -0.204
    1   AR   Ar   68   1.469   1.522  -0.985
    1   AR   Ar   69   2.740   1.871   0.104
    1   AR   Ar   70   0.667   0.531   1.946
    1   AR   Ar   71   2.839   1.313   3.305
    1   AR   Ar   72   4.048   6.684   2.081
    1   AR   Ar   73   4.147   0.151   3.228
    1   AR   Ar   74   1.149   0.746   4.582
    1   AR   Ar   75   3.403   0.533   5.113
    1   AR   Ar   76   1.503   0.250   1.331
    1   AR   Ar   77   1.986   6.173   5.258
    1   AR   Ar   78   0.615   6.236   6.200
    1   AR   Ar   79   4.364   5.905   6.376
    1   AR   Ar   80   3.885   5.287   5.348
    1   AR   Ar   81   2.503   6.115   0.135
    1   AR   Ar   82   6.655   4.969   0.275
    1   AR   Ar   83   1.715   2.122   0.391
    1   AR   Ar   84   0.584   4.072   1.346
    1   AR   Ar   85   1.263   3.017   0.891
    1   AR   Ar   86   2.366   5.585   0.966
    1   AR   Ar   87   2.123   2.717   1.472
    1   AR   Ar   88   2.908   4.893   1.704
    1   AR   Ar   89   0.218   2.836   2.322
    1   AR   Ar   90   2.868   1.687   4.615
    1   AR   Ar   91   1.355   2.200   3.543
    1   AR   Ar   92   1.313   3.005   2.091
    1   AR   Ar   93   0.782   0.857   5.593
    1   AR   Ar   94   0.123   6.670  10.977
    1   AR   Ar   95   4.639   0.255   5.222
    1   AR   Ar   96   2.910   6.549   4.571
    1   AR   Ar   97   4.015   2.166  -0.392
    1   AR   Ar   98   1.420   4.524   3.161
    1   AR   Ar   99   6.587   1.487   0.294
    1   AR   Ar  100   1.251   2.638  -0.739
    1   AR   Ar  101   3.489   5.817   2.049
    1   AR   Ar  102   3.885   1.635   2.669
    1   AR   Ar  103   1.360   4.658   0.908
    1   AR   Ar  104   3.338   4.088  -0.978
    1   AR   Ar  105   2.326   2.398   4.130
    1   AR   Ar  106   3.737   3.094   5.617
    1   AR   Ar  107   0.486   4.144   4.625
    1   AR   Ar  108   2.436   0.772   5.076
    1   AR   Ar  109   1.493   3.083   4.634
    1   AR   Ar  110   2.737   2.386   5.415
    1   AR   Ar  111   5.266   5.440   6.761
    1   AR   Ar  112   1.201   5.392   6.314
    1   AR   Ar  113   3.507   4.578   0.110
    1   AR   Ar  114   2.516   0.516  -0.847
    1   AR   Ar  115   2.413   5.065  -0.335
    1   AR   Ar  116   6.355   0.462  -0.366
    1   AR   Ar  117   1.223   4.936   4.227
    1   AR   Ar  118   1.504   5.764   3.046
    1   AR   Ar  119   2.444   4.098   2.637
    1   AR   Ar  120   1.964   6.527   1.441
    1   AR   Ar  121   5.356   3.934   5.298
    1   AR   Ar  122   3.275   6.056   5.594
    1   AR   Ar  123   2.947   4.025   5.209
    1   AR   Ar  124   1.631   5.258   1.994
    1   AR   Ar  125   0.098   3.350   5.169
    1   AR   Ar  126   6.827   6.158   4.806
    1   AR   Ar  127   4.802   4.019   6.115
    1   AR   Ar  128   3.332   3.943   6.500
    1   AR   Ar  129   2.151   5.863   4.027
    1   AR   Ar  130   4.738   2.393  -3.354
    1   AR   Ar  131   3.707   3.001  -1.054
    1   AR   Ar  132   0.668   1.796  -0.112
    1   AR   Ar  133   4.490   6.255   3.099
    1   AR   Ar  134   4.209   1.135   4.535
    1   AR   Ar  135   6.017   0.969   2.962
    1   AR   Ar  136   6.254   6.683   2.498
    1   AR   Ar  137   2.021   4.069   4.429
    1   AR   Ar  138   5.140   1.020   6.297
    1   AR   Ar  139   5.854   2.092   5.330
    1   AR   Ar  140   3.968   7.080   4.290
    1   AR   Ar  141   3.934   5.100   3.935
    1   AR   Ar  142   3.681   7.102   6.015
    1   AR   Ar  143   6.558   6.577   6.191
    1   AR   Ar  144   6.849   1.445   5.152
    1   AR   Ar  145   4.768   4.980  -0.578
    1   AR   Ar  146   3.118   2.701   2.089
    1   AR   Ar  147   4.907   2.448  -1.094
    1   AR   Ar  148   3.227   6.816  -0.971
    1   AR   Ar  149   2.629   1.658  -0.889
    1   AR   Ar  150   2.156   1.781   2.565
    1   AR   Ar  151   2.585   2.683   3.062
    1   AR   Ar  152   2.026   2.522  -1.442
    1   AR   Ar  153   4.882   0.516   4.013
    1   AR   Ar  154   3.701   1.844   3.728
    1   AR   Ar  155   0.049   4.499   5.782
    1   AR   Ar  156   2.808   4.227   3.543
    1   AR   Ar  157   1.003   4.283   5.479
    1   AR   Ar  158   0.396   1.633   6.479
    1   AR   Ar  159   4.190   0.869   7.419
    1   AR   Ar  160   1.443   2.069   4.610
    1   AR   Ar  161   4.979   4.404   2.345
    1   AR   Ar  162   4.664   6.075  -0.449
    1   AR   Ar  163   6.114   4.279  -0.312
    1   AR   Ar  164   2.554   5.662   2.495
    1   AR   Ar  165   4.979   2.339   0.346
    1   AR   Ar  166   3.230   3.172   4.296
    1   AR   Ar  167   4.964   0.275   2.560
    1   AR   Ar  168   5.395   4.218  -1.545
    1   AR   Ar  169   3.446   4.314   2.438
    1   AR   Ar  170   2.232   3.301   5.667
    1   AR   Ar  171   5.388   3.819   4.048
    1   AR   Ar  172   4.058   4.191   5.202
    1   AR   Ar  173   2.629   3.255   6.685
    1   AR   Ar  174   2.094   5.976   6.256
    1   AR   Ar  175   3.809   1.880   5.381
    1   AR   Ar  176   4.160   2.364   4.489
    1   AR   Ar  177   0.659   5.509  -0.961
    1   AR   Ar  178   3.468   5.550  -0.473
    1   AR   Ar  179   3.478   6.458   0.005
    1   AR   Ar  180   3.541   0.893  -3.844
    1   AR   Ar  181   0.365   5.575   1.604
    1   AR   Ar  182   1.899   6.716   2.540
    1   AR   Ar  183   4.388   5.244   2.056
    1   AR   Ar  184   4.998   7.002   0.615
    1   AR   Ar  185   2.993   4.973   4.712
    1   AR   Ar  186   2.954   5.386   3.362
    1   AR   Ar  187   2.908   6.470   3.270
    1   AR   Ar  188   2.810   6.726   2.060
    1   AR   Ar  189   4.891   2.896   6.343
    1   AR   Ar  190   3.570   6.122   3.999
    1   AR   Ar  191   2.513   6.212   7.649
    1   AR   Ar  192   4.126   6.480   5.088
    1   AR   Ar  193   3.155   6.082   1.206
    1   AR   Ar  194   4.788   3.937  -0.723
    1   AR   Ar  195   5.437   1.377   0.392
    1   AR   Ar  196   4.476   1.222  -0.186
    1   AR   Ar  197   3.521   1.437   0.589
    1   AR   Ar  198   6.580   1.062   1.240
    1   AR   Ar  199   3.263   0.283   2.763
    1   AR   Ar  200   5.812   2.631  -0.373
    1   AR   Ar  201   6.101   6.240   3.493
    1   AR   Ar  202   5.632   1.191   4.875
    1   AR   Ar  203   0.159   0.140   2.978
    1   AR   Ar  204   5.441   6.318   5.590
    1   AR   Ar  205   6.773   6.414   1.544
    1   AR   Ar  206   5.850   0.189   5.391
    1   AR   Ar  207   0.673   2.011   5.273
    1   AR   Ar  208   0.797   5.956   4.386
    1   AR   Ar  209   7.032   2.426  -1.988
    1   AR   Ar  210   2.524   0.010   0.816
    1   AR   Ar  211   7.114   3.282   0.509
    1   AR   Ar  212   6.485   3.390  -1.009
    1   AR   Ar  213   2.724   0.703   1.915
    1   AR   Ar  214   4.684   3.201   1.856
    1   AR   Ar  215   5.804   3.264   1.894
    1   AR   Ar  216   0.588   2.563   1.411
    1   AR   Ar  217   5.370   2.743   3.960
    1   AR   Ar  218   4.762   3.136   4.955
    1   AR   Ar  219   4.104   2.904   3.633
    1   AR   Ar  220   3.733   2.584   0.804
    1   AR   Ar  221   6.554   5.571   4.017
    1   AR   Ar  222   5.099   7.019   6.346
    1   AR   Ar  223   6.014   1.885   6.786
    1   AR   Ar  224   4.899   2.310   5.527
    1   AR   Ar  225   6.520   2.902   3.405
    1   AR   Ar  226   1.818   3.422   3.458
    1   AR   Ar  227   6.823   3.470   1.753
    1   AR   Ar  228   5.564   6.778   1.514
    1   AR   Ar  229   5.282   5.359  -1.736
    1   AR   Ar  230   3.808   4.115   3.557
    1   AR   Ar  231   5.472   1.363   3.678
    1   AR   Ar  232   5.175   2.188   1.383
    1   AR   Ar  233   6.262   2.197   4.316
    1   AR   Ar  234   6.059   3.233   4.653
    1   AR   Ar  235   6.461   1.017   3.941
    1   AR   Ar  236   4.955   4.842   5.426
    1   AR   Ar  237   6.074   2.845   6.334
    1   AR   Ar  238   5.898   3.982   6.287
    1   AR   Ar  239   6.833   4.632   9.195
    1   AR   Ar  240   6.718   2.543   7.266
    1   AR   Ar  241   1.805   6.899  -0.427
    1   AR   Ar  242   5.285   5.852   0.418
    1   AR   Ar  243   4.939   5.199   3.158
    1   AR   Ar  244   0.550   5.708   0.285
    1   AR   Ar  245   3.665   1.070   1.642
    1   AR   Ar  246   5.682   6.722  -0.230
    1   AR   Ar  247   5.849   3.841   0.718
    1   AR   Ar  248   5.949   5.721  -0.497
    1   AR   Ar  249   4.625   6.011   1.087
    1   AR   Ar  250   4.920   5.911   4.812
    1   AR   Ar  251   4.698   4.662   4.490
    1   AR   Ar  252   3.918   5.417   3.003
    1   AR   Ar  253   7.013   3.381   6.470
    1   AR   Ar  254   2.309   2.657   8.864
    1   AR   Ar  255   3.978   4.849   9.707
    1   AR   Ar  256   5.980   4.795   3.414
    7.12000  7.12000 12.00000
Argon-slab step 3830
  256
    1   AR   Ar    1   4.985   1.871  -2.499
    1   AR   Ar    2   6.008   0.331   0.746
    1   AR   Ar    3   3.801   2.134  -1.576
    1   AR   Ar    4   1.719   0.719  -0.262
    1   AR   Ar    5   6.486   6.249   0.510
    1   AR   Ar    6   0.061   1.559   2.336
    1   AR   Ar    7   5.641   3.695   2.928
    1   AR   Ar    8   4.486   1.217   0.882
    1   AR   Ar    9   1.249   0.019   3.442
    1   AR   Ar   10   0.501   7.017   4.110
    1   AR   Ar   11   1.862   6.999   4.346
    1   AR   Ar   12   0.792   1.055   3.511
    1   AR   Ar   13   7.114   0.483   4.838
    1   AR   Ar   14   4.849   1.813   8.027
    1   AR   Ar   15   3.785   6.192   7.936
    1   AR   Ar   16   1.083   6.993   5.034
    1   AR   Ar   17   6.847   2.315   0.845
    1   AR   Ar   18   6.243   5.031  -1.098
    1   AR   Ar   19   3.779   3.278  -0.060
    1   AR   Ar   20   6.126   4.045  -2.878
    1   AR   Ar   21   2.818   1.808   1.471
    1   AR   Ar   22   6.730   1.895   3.182
    1   AR   Ar   23   0.600   0.300   0.814
    1   AR   Ar   24   6.317   2.062   2.067
    1   AR   Ar   25   0.274   1.880   4.024
    1   AR   Ar   26   6.377   0.016   3.929
    1   AR   Ar   27   1.580   0.453   2.557
    1   AR   Ar   28   0.519   2.747   4.451
    1   AR   Ar   29   5.401   2.675   7.270
    1   AR   Ar   30   1.923   0.895   3.685
    1   AR   Ar   31   3.326   0.247   7.859
    1   AR   Ar   32   0.637   2.770   7.086
    1   AR   Ar   33   0.462   4.434   0.342
    1   AR   Ar   34   0.457   4.779   2.548
    1   AR   Ar   35   5.965   5.768   1.433
    1   AR   Ar   36   5.911   2.240  -2.972
    1   AR   Ar   37   5.309   2.807   2.817
    1   AR   Ar   38   6.693   3.993   3.030
    1   AR   Ar   39   0.647   3.556   3.009
    1   AR   Ar   40   1.772   4.039   1.745
    1   AR   Ar   41   0.376   2.601   3.344
    1   AR   Ar   42   6.020   5.636   5.046
    1   AR   Ar   43   0.002   2.399   5.876
    1   AR   Ar   44   0.437   4.446   3.627
    1   AR   Ar   45   0.887   3.165   5.897
    1   AR   Ar   46   0.005   5.008   4.776
    1   AR   Ar   47   5.131   4.145   7.135
    1   AR   Ar   48   6.368   3.687   7.474
    1   AR   Ar   49   5.211   0.207  -1.052
    1   AR   Ar   50   4.276   5.223   0.402
    1   AR   Ar   51   6.423   4.649   1.381
    1   AR   Ar   52   5.940   3.145  -2.097
    1   AR   Ar   53   5.468   5.908   2.593
    1   AR   Ar   54   0.710   6.424   2.437
    1   AR   Ar   55   6.359   5.540   2.355
    1   AR   Ar   56   6.783   0.512   2.140
    1   AR   Ar   57   4.495   3.501   2.899
    1   AR   Ar   58   6.952   3.485   4.113
    1   AR   Ar   59   2.103   4.909   5.880
    1   AR   Ar   60   0.465   5.696   3.339
    1   AR   Ar   61   0.564   4.702   6.891
    1   AR   Ar   62   6.193   4.235   4.571
    1   AR   Ar   63   1.382   1.349   6.297
    1   AR   Ar   64   1.131   5.522   5.282
    1   AR   Ar   65   4.130   7.109   1.191
    1   AR   Ar   66   0.750   1.448   1.204
    1   AR   Ar   67   4.416   0.091  -0.234
    1   AR   Ar   68   1.443   1.498  -0.980
    1   AR   Ar   69   2.716   1.877   0.083
    1   AR   Ar   70   0.647   0.537   1.915
    1   AR   Ar   71   2.833   1.318   3.272
    1   AR   Ar   72   4.031   6.702   2.079
    1   AR   Ar   73   4.136   0.155   3.261
    1   AR   Ar   74   1.164   0.760   4.575
    1   AR   Ar   75   3.383   0.525   5.111
    1   AR   Ar   76   1.509   0.255   1.330
    1   AR   Ar   77   1.991   6.168   5.242
    1   AR   Ar   78   0.614   6.228   6.225
    1   AR   Ar   79   4.308   5.920   6.343
    1   AR   Ar   80   3.887   5.274   5.299
    1   AR   Ar   81   2.504   6.118   0.114
    1   AR   Ar   82   6.656   5.010   0.281
    1   AR   Ar   83   1.757   2.127   0.374
    1   AR   Ar   84   0.598   4.060   1.328
    1   AR   Ar   85   1.292   2.991   0.901
    1   AR   Ar   86   2.364   5.557   0.970
    1   AR   Ar   87   2.101   2.727   1.477
    1   AR   Ar   88   2.920   4.918   1.689
    1   AR   Ar   89   0.197   2.851   2.295
    1   AR   Ar   90   2.874   1.684   4.627
    1   AR   Ar   91   1.361   2.199   3.534
    1   AR   Ar   92   1.331   2.996   2.099
    1   AR   Ar   93   0.794   0.870   5.602
    1   AR   Ar   94   0.125   6.642  10.967
    1   AR   Ar   95   4.630   0.225   5.204
    1   AR   Ar   96   2.913   6.552   4.556
    1   AR   Ar   97   3.970   2.162  -0.387
    1   AR   Ar   98   1.418   4.544   3.178
    1   AR   Ar   99   6.630   1.471   0.313
    1   AR   Ar  100   1.235   2.652  -0.758
    1   AR   Ar  101   3.478   5.807   2.074
    1   AR   Ar  102   3.882   1.649   2.669
    1   AR   Ar  103   1.319   4.614   0.889
    1   AR   Ar  104   3.327   4.109  -0.966
    1   AR   Ar  105   2.309   2.421   4.115
    1   AR   Ar  106   3.748   3.078   5.634
    1   AR   Ar  107   0.460   4.152   4.636
    1   AR   Ar  108   2.430   0.785   5.095
    1   AR   Ar  109   1.527   3.079   4.628
    1   AR   Ar  110   2.734   2.402   5.407
    1   AR   Ar  111   5.282   5.429   6.762
    1   AR   Ar  112   1.219   5.390   6.303
    1   AR   Ar  113   3.528   4.591   0.084
    1   AR   Ar  114   2.515   0.543  -0.872
    1   AR   Ar  115   2.357   5.045  -0.352
    1   AR   Ar  116   6.340   0.444  -0.367
    1   AR   Ar  117   1.213   4.908   4.239
    1   AR   Ar  118   1.514   5.764   3.023
    1   AR   Ar  119   2.456   4.107   2.631
    1   AR   Ar  120   1.981   6.479   1.463
    1   AR   Ar  121   5.380   3.923   5.222
    1   AR   Ar  122   3.269   6.094   5.583
    1   AR   Ar  123   2.957   4.034   5.216
    1   AR   Ar  124   1.641   5.291   2.013
    1   AR   Ar  125   0.115   3.333   5.163
    1   AR   Ar  126   6.828   6.107   4.801
    1   AR   Ar  127   4.787   4.010   6.149
    1   AR   Ar  128   3.317   3.937   6.518
    1   AR   Ar  129   2.102   5.897   4.034
    1   AR   Ar  130   4.752   2.408  -3.376
    1   AR   Ar  131   3.718   3.038  -1.041
    1   AR   Ar  132   0.673   1.750  -0.118
    1   AR   Ar  133   4.468   6.268   3.116
    1   AR   Ar  134   4.215   1.149   4.548
    1   AR   Ar  135   6.018   0.939   2.952
    1   AR   Ar  136   6.291   6.679   2.509
    1   AR   Ar  137   2.062   4.072   4.413
    1   AR   Ar  138   5.118   0.999   6.316
    1   AR   Ar  139   5.861   2.113   5.333
    1   AR   Ar  140   3.965   7.094   4.250
    1   AR   Ar  141   3.927   5.078   3.949
    1   AR   Ar  142   3.677   7.092   6.034
    1   AR   Ar  143   6.531   6.587   6.218
    1   AR   Ar  144   6.845   1.451   5.144
    1   AR   Ar  145   4.760   4.969  -0.615
    1   AR   Ar  146   3.100   2.672   2.109
    1   AR   Ar  147   4.923   2.437  -1.086
    1   AR   Ar  148   3.229   6.808  -0.972
    1   AR   Ar  149   2.595   1.653  -0.895
    1   AR   Ar  150   2.143   1.780   2.584
    1   AR   Ar  151   2.611   2.686   3.054
    1   AR   Ar  152   2.011   2.498  -1.429
    1   AR   Ar  153   4.897   0.538   4.043
    1   AR   Ar  154   3.687   1.855   3.706
    1   AR   Ar  155   0.036   4.471   5.779
    1   AR   Ar  156   2.794   4.234   3.540
    1   AR   Ar  157   1.006   4.310   5.471
    1   AR   Ar  158   0.407   1.612   6.450
    1   AR   Ar  159   4.169   0.871   7.414
    1   AR   Ar  160   1.410   2.071   4.634
    1   AR   Ar  161   4.966   4.403   2.352
    1   AR   Ar  162   4.658   6.094  -0.448
    1   AR   Ar  163   6.094   4.269  -0.328
    1   AR   Ar  164   2.589   5.655   2.464
    1   AR   Ar  165   4.949   2.328   0.331
    1   AR   Ar  166   3.222   3.188   4.292
    1   AR   Ar  167   4.965   0.281   2.592
    1   AR   Ar  168   5.417   4.234  -1.553
    1   AR   Ar  169   3.452   4.301   2.450
    1   AR   Ar  170   2.220   3.279   5.617
    1   AR   Ar  171   5.372   3.834   4.051
    1   AR   Ar  172   4.009   4.179   5.227
    1   AR   Ar  173   2.558   3.215   6.720
    1   AR   Ar  174   2.092   5.986   6.236
    1   AR   Ar  175   3.792   1.857   5.364
    1   AR   Ar  176   4.168   2.371   4.466
    1   AR   Ar  177   0.674   5.493  -0.953
    1   AR   Ar  178   3.465   5.574  -0.494
    1   AR   Ar  179   3.455   6.503   0.022
    1   AR   Ar  180   3.572   0.874  -3.854
    1   AR   Ar  181   0.344   5.576   1.625
    1   AR   Ar  182   1.883   6.710   2.557
    1   AR   Ar  183   4.380   5.217   2.080
    1   AR   Ar  184   5.023   7.009   0.606
    1   AR   Ar  185   3.012   4.967   4.693
    1   AR   Ar  186   2.929   5.361   3.366
    1   AR   Ar  187   2.910   6.476   3.271
    1   AR   Ar  188   2.786   6.730   2.063
    1   AR   Ar  189   4.908   2.884   6.366
    1   AR   Ar  190   3.558   6.083   3.989
    1   AR   Ar  191   2.521   6.210   7.648
    1   AR   Ar  192   4.147   6.482   5.078
    1   AR   Ar  193   3.127   6.061   1.217
    1   AR   Ar  194   4.807   3.922  -0.724
    1   AR   Ar  195   5.450   1.378   0.387
    1   AR   Ar  196   4.450   1.239  -0.218
    1   AR   Ar  197   3.513   1.424   0.592
    1   AR   Ar  198   6.568   1.065   1.236
    1   AR   Ar  199   3.221   0.276   2.749
    1   AR   Ar  200   5.852   2.680  -0.341
    1   AR   Ar  201   6.106   6.243   3.509
    1   AR   Ar  202   5.624   1.207   4.865
    1   AR   Ar  203   0.136   0.093   3.000
    1   AR   Ar  204   5.447   6.333   5.605
    1   AR   Ar  205   6.787   6.416   1.565
    1   AR   Ar  206   5.843   0.188   5.391
    1   AR   Ar  207   0.671   2.049   5.218
    1   AR   Ar  208   0.814   5.959   4.402
    1   AR   Ar  209   7.048   2.441  -1.991
    1   AR   Ar  210   2.495   7.102   0.812
    1   AR   Ar  211   0.015   3.330   0.486
    1   AR   Ar  212   6.487   3.403  -0.985
    1   AR   Ar  213   2.699   0.706   1.917
    1   AR   Ar  214   4.687   3.255   1.851
    1   AR   Ar  215   5.789   3.275   1.901
    1   AR   Ar  216   0.582   2.554   1.370
    1   AR   Ar  217   5.391   2.750   3.917
    1   AR   Ar  218   4.780   3.125   4.971
    1   AR   Ar  219   4.123   2.905   3.636
    1   AR   Ar  220   3.752   2.622   0.817
    1   AR   Ar  221   6.552   5.538   4.012
    1   AR   Ar  222   5.101   7.008   6.322
    1   AR   Ar  223   6.030   1.858   6.778
    1   AR   Ar  224   4.896   2.315   5.503
    1   AR   Ar  225   6.498   2.904   3.418
    1   AR   Ar  226   1.803   3.395   3.490
    1   AR   Ar  227   6.804   3.456   1.762
    1   AR   Ar  228   5.543   6.788   1.495
    1   AR   Ar  229   5.252   5.352  -1.719
    1   AR   Ar  230   3.793   4.138   3.573
    1   AR   Ar  231   5.428   1.343   3.663
    1   AR   Ar  232   5.174   2.187   1.373
    1   AR   Ar  233   6.271   2.198   4.319
    1   AR   Ar  234   6.033   3.225   4.657
    1   AR   Ar  235   6.489   1.016   3.923
    1   AR   Ar  236   4.936   4.843   5.431
    1   AR   Ar  237   6.064   2.819   6.353
    1   AR   Ar  238   5.933   3.992   6.274
    1   AR   Ar  239   6.833   4.632   9.163
    1   AR   Ar  240   6.723   2.576   7.256
    1   AR   Ar  241   1.835   6.883  -0.454
    1   AR   Ar  242   5.330   5.855   0.418
    1   AR   Ar  243   4.936   5.223   3.177
    1   AR   Ar  244   0.592   5.698   0.296
    1   AR   Ar  245   3.665   1.074   1.640
    1   AR   Ar  246   5.671   6.704  -0.215
    1   AR   Ar  247   5.843   3.859   0.747
    1   AR   Ar  248   5.948   5.717  -0.482
    1   AR   Ar  249   4.623   6.004   1.081
    1   AR   Ar  250   4.876   5.939   4.759
    1   AR   Ar  251   4.698   4.645   4.469
    1   AR   Ar  252   3.910   5.383   2.999
    1   AR   Ar  253   6.993   3.382   6.485
    1   AR   Ar  254   2.336   2.638   8.881
    1   AR   Ar  255   3.976   4.858   9.688
    1   AR   Ar  256   5.947   4.804   3.417
    7.12000  7.12000 12.00000
Argon-slab step 3835
  256
    1   AR   Ar    1   4.989   1.868  -2.492
    1   AR   Ar    2   6.028   0.306   0.744
    1   AR   Ar    3   3.812   2.121  -1.602
    1   AR   Ar    4   1.717   0.730  -0.269
    1   AR   Ar    5   6.444   6.244   0.490
    1   AR   Ar    6   0.080   1.555   2.367
    1   AR   Ar    7   5.621   3.681   2.919
    1   AR   Ar    8   4.472   1.191   0.864
    1   AR   Ar    9   1.254   0.026   3.428
    1   AR   Ar   10   0.500   7.027   4.129
    1   AR   Ar   11   1.864   6.995   4.365
    1   AR   Ar   12   0.801   1.053   3.527
    1   AR   Ar   13   0.019   0.492   4.843
    1   AR   Ar   14   4.828   1.822   8.023
    1   AR   Ar   15   3.762   6.196   7.965
    1   AR   Ar   16   1.073   7.010   5.046
    1   AR   Ar   17   6.856   2.315   0.848
    1   AR   Ar   18   6.236   5.031  -1.082
    1   AR   Ar   19   3.763   3.260  -0.081
    1   AR   Ar   20   6.147   4.010  -2.893
    1   AR   Ar   21   2.805   1.808   1.469
    1   AR   Ar   22   6.730   1.897   3.178
    1   AR   Ar   23   0.633   0.303   0.836
    1   AR   Ar   24   6.306   2.084   2.063
    1   AR   Ar   25   0.240   1.862   4.026
    1   AR   Ar   26   6.361   7.118   3.936
    1   AR   Ar   27   1.579   0.472   2.570
    1   AR   Ar   28   0.554   2.737   4.436
    1   AR   Ar   29   5.399   2.631   7.302
    1   AR   Ar   30   1.908   0.876   3.665
    1   AR   Ar   31   3.317   0.246   7.872
    1   AR   Ar   32   0.644   2.754   7.089
    1   AR   Ar   33   0.470   4.439   0.321
    1   AR   Ar   34   0.488   4.781   2.516
    1   AR   Ar   35   5.999   5.727   1.456
    1   AR   Ar   36   5.913   2.256  -2.970
    1   AR   Ar   37   5.282   2.801   2.831
    1   AR   Ar   38   6.672   3.996   3.057
    1   AR   Ar   39   0.639   3.574   2.997
    1   AR   Ar   40   1.785   4.040   1.748
    1   AR   Ar   41   0.366   2.569   3.363
    1   AR   Ar   42   6.015   5.604   5.011
    1   AR   Ar   43   7.112   2.388   5.858
    1   AR   Ar   44   0.428   4.448   3.634
    1   AR   Ar   45   0.884   3.167   5.907
    1   AR   Ar   46   7.118   4.997   4.781
    1   AR   Ar   47   5.122   4.160   7.135
    1   AR   Ar   48   6.353   3.647   7.475
    1   AR   Ar   49   5.177   0.202  -1.056
    1   AR   Ar   50   4.280   5.214   0.383
    1   AR   Ar   51   6.400   4.636   1.374
    1   AR   Ar   52   5.952   3.166  -2.121
    1   AR   Ar   53   5.456   5.933   2.599
    1   AR   Ar   54   0.714   6.446   2.418
    1   AR   Ar   55   6.347   5.531   2.347
    1   AR   Ar   56   6.786   0.547   2.131
    1   AR   Ar   57   4.506   3.550   2.921
    1   AR   Ar   58   6.924   3.480   4.091
    1   AR   Ar   59   2.066   4.914   5.849
    1   AR   Ar   60   0.462   5.733   3.302
    1   AR   Ar   61   0.578   4.704   6.887
    1   AR   Ar   62   6.164   4.223   4.572
    1   AR   Ar   63   1.384   1.345   6.283
    1   AR   Ar   64   1.159   5.513   5.287
    1   AR   Ar   65   4.133   7.108   1.165
    1   AR   Ar   66   0.691   1.426   1.170
    1   AR   Ar   67   4.414   0.094  -0.265
    1   AR   Ar   68   1.418   1.477  -0.974
    1   AR   Ar   69   2.696   1.885   0.066
    1   AR   Ar   70   0.618   0.545   1.877
    1   AR   Ar   71   2.829   1.323   3.240
    1   AR   Ar   72   4.047   6.714   2.105
    1   AR   Ar   73   4.126   0.161   3.290
    1   AR   Ar   74   1.180   0.783   4.561
    1   AR   Ar   75   3.377   0.513   5.106
    1   AR   Ar   76   1.535   0.281   1.322
    1   AR   Ar   77   1.997   6.165   5.216
    1   AR   Ar   78   0.613   6.236   6.220
    1   AR   Ar   79   4.252   5.937   6.306
    1   AR   Ar   80   3.892   5.260   5.248
    1   AR   Ar   81   2.502   6.122   0.089
    1   AR   Ar   82   6.656   5.046   0.282
    1   AR   Ar   83   1.792   2.133   0.359
    1   AR   Ar   84   0.606   4.041   1.317
    1   AR   Ar   85   1.330   2.977   0.900
    1   AR   Ar   86   2.342   5.514   0.973
    1   AR   Ar   87   2.088   2.734   1.481
    1   AR   Ar   88   2.930   4.944   1.675
    1   AR   Ar   89   0.184   2.853   2.283
    1   AR   Ar   90   2.885   1.677   4.637
    1   AR   Ar   91   1.367   2.197   3.526
    1   AR   Ar   92   1.344   2.990   2.110
    1   AR   Ar   93   0.801   0.882   5.606
    1   AR   Ar   94   0.127   6.613  10.956
    1   AR   Ar   95   4.626   0.204   5.186
    1   AR   Ar   96   2.907   6.563   4.549
    1   AR   Ar   97   3.924   2.160  -0.382
    1   AR   Ar   98   1.418   4.564   3.194
    1   AR   Ar   99   6.671   1.453   0.322
    1   AR   Ar  100   1.217   2.665  -0.772
    1   AR   Ar  101   3.484   5.793   2.111
    1   AR   Ar  102   3.879   1.663   2.667
    1   AR   Ar  103   1.289   4.577   0.870
    1   AR   Ar  104   3.316   4.114  -0.958
    1   AR   Ar  105   2.300   2.418   4.097
    1   AR   Ar  106   3.760   3.063   5.650
    1   AR   Ar  107   0.439   4.152   4.640
    1   AR   Ar  108   2.404   0.815   5.127
    1   AR   Ar  109   1.564   3.083   4.621
    1   AR   Ar  110   2.734   2.416   5.399
    1   AR   Ar  111   5.296   5.417   6.762
    1   AR   Ar  112   1.237   5.383   6.296
    1   AR   Ar  113   3.545   4.602   0.056
    1   AR   Ar  114   2.518   0.570  -0.901
    1   AR   Ar  115   2.303   5.027  -0.368
    1   AR   Ar  116   6.324   0.427  -0.366
    1   AR   Ar  117   1.204   4.880   4.253
    1   AR   Ar  118   1.526   5.765   3.001
    1   AR   Ar  119   2.458   4.113   2.613
    1   AR   Ar  120   1.996   6.421   1.487
    1   AR   Ar  121   5.407   3.912   5.148
    1   AR   Ar  122   3.259   6.135   5.572
    1   AR   Ar  123   2.964   4.040   5.223
    1   AR   Ar  124   1.651   5.323   2.032
    1   AR   Ar  125   0.126   3.317   5.167
    1   AR   Ar  126   6.846   6.069   4.798
    1   AR   Ar  127   4.769   3.999   6.179
    1   AR   Ar  128   3.306   3.932   6.537
    1   AR   Ar  129   2.053   5.930   4.040
    1   AR   Ar  130   4.766   2.424  -3.399
    1   AR   Ar  131   3.729   3.077  -1.034
    1   AR   Ar  132   0.679   1.705  -0.122
    1   AR   Ar  133   4.448   6.281   3.133
    1   AR   Ar  134   4.218   1.166   4.562
    1   AR   Ar  135   6.024   0.906   2.936
    1   AR   Ar  136   6.327   6.675   2.521
    1   AR   Ar  137   2.102   4.075   4.398
    1   AR   Ar  138   5.128   0.980   6.322
    1   AR   Ar  139   5.879   2.136   5.338
    1   AR   Ar  140   3.960   7.109   4.216
    1   AR   Ar  141   3.916   5.060   3.971
    1   AR   Ar  142   3.670   7.053   6.030
    1   AR   Ar  143   6.503   6.597   6.244
    1   AR   Ar  144   6.839   1.461   5.136
    1   AR   Ar  145   4.753   4.962  -0.653
    1   AR   Ar  146   3.083   2.642   2.127
    1   AR   Ar  147   4.938   2.426  -1.077
    1   AR   Ar  148   3.230   6.800  -0.974
    1   AR   Ar  149   2.558   1.646  -0.909
    1   AR   Ar  150   2.130   1.779   2.601
    1   AR   Ar  151   2.612   2.660   3.076
    1   AR   Ar  152   1.999   2.472  -1.418
    1   AR   Ar  153   4.912   0.554   4.074
    1   AR   Ar  154   3.687   1.826   3.719
    1   AR   Ar  155   0.018   4.442   5.777
    1   AR   Ar  156   2.775   4.244   3.550
    1   AR   Ar  157   1.018   4.337   5.468
    1   AR   Ar  158   0.412   1.593   6.422
    1   AR   Ar  159   4.113   0.845   7.389
    1   AR   Ar  160   1.397   2.066   4.642
    1   AR   Ar  161   4.955   4.398   2.361
    1   AR   Ar  162   4.671   6.091  -0.452
    1   AR   Ar  163   6.071   4.258  -0.343
    1   AR   Ar  164   2.609   5.651   2.431
    1   AR   Ar  165   4.915   2.318   0.313
    1   AR   Ar  166   3.213   3.204   4.289
    1   AR   Ar  167   4.963   0.279   2.637
    1   AR   Ar  168   5.442   4.251  -1.562
    1   AR   Ar  169   3.464   4.289   2.464
    1   AR   Ar  170   2.206   3.261   5.568
    1   AR   Ar  171   5.354   3.850   4.051
    1   AR   Ar  172   3.996   4.172   5.228
    1   AR   Ar  173   2.486   3.174   6.755
    1   AR   Ar  174   2.094   5.997   6.221
    1   AR   Ar  175   3.774   1.834   5.345
    1   AR   Ar  176   4.178   2.374   4.456
    1   AR   Ar  177   0.688   5.476  -0.942
    1   AR   Ar  178   3.461   5.596  -0.514
    1   AR   Ar  179   3.439   6.552   0.045
    1   AR   Ar  180   3.604   0.854  -3.863
    1   AR   Ar  181   0.324   5.575   1.647
    1   AR   Ar  182   1.876   6.668   2.576
    1   AR   Ar  183   4.373   5.201   2.091
    1   AR   Ar  184   5.048   7.014   0.595
    1   AR   Ar  185   3.031   4.962   4.672
    1   AR   Ar  186   2.903   5.333   3.380
    1   AR   Ar  187   2.941   6.494   3.279
    1   AR   Ar  188   2.771   6.732   2.063
    1   AR   Ar  189   4.930   2.877   6.398
    1   AR   Ar  190   3.579   6.077   3.982
    1   AR   Ar  191   2.530   6.208   7.646
    1   AR   Ar  192   4.150   6.483   5.077
    1   AR   Ar  193   3.111   6.058   1.216
    1   AR   Ar  194   4.825   3.903  -0.723
    1   AR   Ar  195   5.465   1.376   0.383
    1   AR   Ar  196   4.427   1.255  -0.249
    1   AR   Ar  197   3.505   1.412   0.595
    1   AR   Ar  198   6.560   1.070   1.241
    1   AR   Ar  199   3.179   0.272   2.736
    1   AR   Ar  200   5.892   2.730  -0.309
    1   AR   Ar  201   6.109   6.254   3.518
    1   AR   Ar  202   5.615   1.219   4.852
    1   AR   Ar  203   0.115   0.045   3.026
    1   AR   Ar  204   5.444   6.334   5.627
    1   AR   Ar  205   6.810   6.411   1.558
    1   AR   Ar  206   5.842   0.172   5.399
    1   AR   Ar  207   0.655   2.081   5.176
    1   AR   Ar  208   0.829   5.964   4.414
    1   AR   Ar  209   7.064   2.456  -1.993
    1   AR   Ar  210   2.470   7.076   0.806
    1   AR   Ar  211   0.036   3.380   0.465
    1   AR   Ar  212   6.487   3.415  -0.961
    1   AR   Ar  213   2.671   0.710   1.919
    1   AR   Ar  214   4.690   3.308   1.846
    1   AR   Ar  215   5.771   3.286   1.908
    1   AR   Ar  216   0.567   2.537   1.339
    1   AR   Ar  217   5.411   2.755   3.875
    1   AR   Ar  218   4.794   3.123   4.979
    1   AR   Ar  219   4.140   2.909   3.634
    1   AR   Ar  220   3.772   2.657   0.830
    1   AR   Ar  221   6.551   5.520   4.030
    1   AR   Ar  222   5.071   6.984   6.329
    1   AR   Ar  223   6.045   1.828   6.771
    1   AR   Ar  224   4.902   2.306   5.504
    1   AR   Ar  225   6.466   2.907   3.427
    1   AR   Ar  226   1.788   3.368   3.522
    1   AR   Ar  227   6.780   3.455   1.758
    1   AR   Ar  228   5.524   6.797   1.480
    1   AR   Ar  229   5.248   5.366  -1.727
    1   AR   Ar  230   3.786   4.153   3.587
    1   AR   Ar  231   5.383   1.330   3.653
    1   AR   Ar  232   5.193   2.228   1.409
    1   AR   Ar  233   6.283   2.198   4.320
    1   AR   Ar  234   6.007   3.211   4.663
    1   AR   Ar  235   6.520   1.024   3.908
    1   AR   Ar  236   4.916   4.851   5.444
    1   AR   Ar  237   6.053   2.795   6.370
    1   AR   Ar  238   5.967   4.000   6.261
    1   AR   Ar  239   6.833   4.632   9.130
    1   AR   Ar  240   6.725   2.610   7.245
    1   AR   Ar  241   1.868   6.853  -0.483
    1   AR   Ar  242   5.385   5.856   0.410
    1   AR   Ar  243   4.933   5.244   3.198
    1   AR   Ar  244   0.634   5.686   0.308
    1   AR   Ar  245   3.667   1.077   1.638
    1   AR   Ar  246   5.657   6.687  -0.198
    1   AR   Ar  247   5.838   3.876   0.777
    1   AR   Ar  248   5.942   5.722  -0.457
    1   AR   Ar  249   4.611   6.002   1.086
    1   AR   Ar  250   4.844   5.955   4.700
    1   AR   Ar  251   4.701   4.625   4.444
    1   AR   Ar  252   3.897   5.349   2.987
    1   AR   Ar  253   6.962   3.387   6.502
    1   AR   Ar  254   2.363   2.619   8.899
    1   AR   Ar  255   3.963   4.869   9.656
    1   AR   Ar  256   5.914   4.812   3.420
    7.12000  7.12000 12.00000
Argon-slab step 3840
  256
    1   AR   Ar    1   4.986   1.872  -2.486
    1   AR   Ar    2   6.048   0.279   0.738
    1   AR   Ar    3   3.824   2.107  -1.626
    1   AR   Ar    4   1.711   0.747  -0.269
    1   AR   Ar    5   6.410   6.237   0.473
    1   AR   Ar    6   0.106   1.546   2.390
    1   AR   Ar    7   5.609   3.688   2.915
    1   AR   Ar    8   4.463   1.164   0.848
    1   AR   Ar    9   1.252   0.025   3.427
    1   AR   Ar   10   0.491   7.033   4.147
    1   AR   Ar   11   1.868   6.991   4.382
    1   AR   Ar   12   0.810   1.051   3.542
    1   AR   Ar   13   0.044   0.501   4.849
    1   AR   Ar   14   4.809   1.831   8.017
    1   AR   Ar   15   3.739   6.200   7.993
    1   AR   Ar   16   1.060   7.020   5.065
    1   AR   Ar   17   6.858   2.318   0.849
    1   AR   Ar   18   6.232   5.021  -1.076
    1   AR   Ar   19   3.748   3.246  -0.088
    1   AR   Ar   20   6.157   4.002  -2.879
    1   AR   Ar   21   2.792   1.807   1.466
    1   AR   Ar   22   6.719   1.897   3.178
    1   AR   Ar   23   0.660   0.307   0.852
    1   AR   Ar   24   6.295   2.109   2.059
    1   AR   Ar   25   0.219   1.837   4.035
    1   AR   Ar   26   6.347   7.105   3.948
    1   AR   Ar   27   1.576   0.511   2.578
    1   AR   Ar   28   0.590   2.736   4.411
    1   AR   Ar   29   5.401   2.586   7.337
    1   AR   Ar   30   1.892   0.858   3.646
    1   AR   Ar   31   3.308   0.244   7.884
    1   AR   Ar   32   0.653   2.739   7.090
    1   AR   Ar   33   0.469   4.444   0.294
    1   AR   Ar   34   0.518   4.783   2.486
    1   AR   Ar   35   6.026   5.688   1.464
    1   AR   Ar   36   5.915   2.274  -2.969
    1   AR   Ar   37   5.247   2.772   2.839
    1   AR   Ar   38   6.651   3.999   3.084
    1   AR   Ar   39   0.632   3.593   2.984
    1   AR   Ar   40   1.796   4.041   1.750
    1   AR   Ar   41   0.361   2.550   3.374
    1   AR   Ar   42   5.998   5.565   4.978
    1   AR   Ar   43   7.095   2.398   5.837
    1   AR   Ar   44   0.416   4.451   3.637
    1   AR   Ar   45   0.882   3.169   5.919
    1   AR   Ar   46   7.106   4.994   4.789
    1   AR   Ar   47   5.117   4.175   7.138
    1   AR   Ar   48   6.336   3.606   7.474
    1   AR   Ar   49   5.144   0.197  -1.058
    1   AR   Ar   50   4.290   5.211   0.366
    1   AR   Ar   51   6.379   4.624   1.368
    1   AR   Ar   52   5.937   3.162  -2.149
    1   AR   Ar   53   5.436   5.968   2.606
    1   AR   Ar   54   0.718   6.469   2.399
    1   AR   Ar   55   6.348   5.515   2.350
    1   AR   Ar   56   6.778   0.580   2.128
    1   AR   Ar   57   4.518   3.603   2.941
    1   AR   Ar   58   6.908   3.499   4.087
    1   AR   Ar   59   2.032   4.918   5.814
    1   AR   Ar   60   0.459   5.768   3.266
    1   AR   Ar   61   0.592   4.705   6.880
    1   AR   Ar   62   6.149   4.223   4.569
    1   AR   Ar   63   1.398   1.345   6.273
    1   AR   Ar   64   1.185   5.500   5.289
    1   AR   Ar   65   4.138   0.019   1.178
    1   AR   Ar   66   0.631   1.404   1.136
    1   AR   Ar   67   4.411   0.096  -0.296
    1   AR   Ar   68   1.394   1.459  -0.969
    1   AR   Ar   69   2.689   1.892   0.051
    1   AR   Ar   70   0.600   0.553   1.841
    1   AR   Ar   71   2.833   1.326   3.253
    1   AR   Ar   72   4.063   6.725   2.139
    1   AR   Ar   73   4.118   0.172   3.301
    1   AR   Ar   74   1.195   0.811   4.542
    1   AR   Ar   75   3.379   0.499   5.100
    1   AR   Ar   76   1.566   0.309   1.317
    1   AR   Ar   77   2.004   6.165   5.183
    1   AR   Ar   78   0.611   6.245   6.212
    1   AR   Ar   79   4.196   5.954   6.267
    1   AR   Ar   80   3.888   5.266   5.253
    1   AR   Ar   81   2.497   6.125   0.064
    1   AR   Ar   82   6.655   5.056   0.262
    1   AR   Ar   83   1.815   2.141   0.348
    1   AR   Ar   84   0.597   4.020   1.310
    1   AR   Ar   85   1.367   2.974   0.888
    1   AR   Ar   86   2.314   5.471   0.976
    1   AR   Ar   87   2.092   2.735   1.488
    1   AR   Ar   88   2.941   4.968   1.662
    1   AR   Ar   89   0.181   2.840   2.284
    1   AR   Ar   90   2.898   1.668   4.645
    1   AR   Ar   91   1.375   2.195   3.518
    1   AR   Ar   92   1.350   2.987   2.127
    1   AR   Ar   93   0.803   0.891   5.604
    1   AR   Ar   94   0.129   6.584  10.946
    1   AR   Ar   95   4.630   0.196   5.170
    1   AR   Ar   96   2.896   6.577   4.548
    1   AR   Ar   97   3.875   2.162  -0.375
    1   AR   Ar   98   1.420   4.583   3.208
    1   AR   Ar   99   6.712   1.432   0.320
    1   AR   Ar  100   1.194   2.676  -0.783
    1   AR   Ar  101   3.512   5.782   2.147
    1   AR   Ar  102   3.873   1.675   2.663
    1   AR   Ar  103   1.277   4.550   0.851
    1   AR   Ar  104   3.309   4.101  -0.962
    1   AR   Ar  105   2.294   2.410   4.078
    1   AR   Ar  106   3.772   3.047   5.664
    1   AR   Ar  107   0.426   4.138   4.640
    1   AR   Ar  108   2.370   0.845   5.159
    1   AR   Ar  109   1.602   3.093   4.615
    1   AR   Ar  110   2.740   2.426   5.390
    1   AR   Ar  111   5.310   5.405   6.760
    1   AR   Ar  112   1.252   5.372   6.296
    1   AR   Ar  113   3.557   4.608   0.024
    1   AR   Ar  114   2.525   0.594  -0.931
    1   AR   Ar  115   2.251   5.010  -0.383
    1   AR   Ar  116   6.307   0.411  -0.364
    1   AR   Ar  117   1.195   4.854   4.268
    1   AR   Ar  118   1.537   5.763   2.982
    1   AR   Ar  119   2.451   4.118   2.589
    1   AR   Ar  120   2.005   6.357   1.511
    1   AR   Ar  121   5.428   3.907   5.083
    1   AR   Ar  122   3.246   6.174   5.560
    1   AR   Ar  123   2.966   4.043   5.231
    1   AR   Ar  124   1.660   5.353   2.047
    1   AR   Ar  125   0.131   3.301   5.175
    1   AR   Ar  126   6.881   6.047   4.799
    1   AR   Ar  127   4.750   3.987   6.203
    1   AR   Ar  128   3.296   3.926   6.555
    1   AR   Ar  129   2.004   5.964   4.047
    1   AR   Ar  130   4.806   2.440  -3.409
    1   AR   Ar  131   3.741   3.112  -1.041
    1   AR   Ar  132   0.685   1.660  -0.126
    1   AR   Ar  133   4.429   6.293   3.149
    1   AR   Ar  134   4.218   1.184   4.578
    1   AR   Ar  135   6.043   0.920   2.918
    1   AR   Ar  136   6.363   6.671   2.531
    1   AR   Ar  137   2.142   4.077   4.384
    1   AR   Ar  138   5.138   0.961   6.327
    1   AR   Ar  139   5.906   2.161   5.343
    1   AR   Ar  140   3.949   0.002   4.202
    1   AR   Ar  141   3.903   5.051   4.001
    1   AR   Ar  142   3.665   7.014   6.026
    1   AR   Ar  143   6.474   6.607   6.268
    1   AR   Ar  144   6.831   1.475   5.127
    1   AR   Ar  145   4.747   4.958  -0.690
    1   AR   Ar  146   3.067   2.612   2.143
    1   AR   Ar  147   4.951   2.416  -1.066
    1   AR   Ar  148   3.221   6.788  -1.002
    1   AR   Ar  149   2.521   1.640  -0.929
    1   AR   Ar  150   2.114   1.779   2.616
    1   AR   Ar  151   2.606   2.628   3.107
    1   AR   Ar  152   1.991   2.444  -1.409
    1   AR   Ar  153   4.926   0.560   4.107
    1   AR   Ar  154   3.689   1.787   3.740
    1   AR   Ar  155   7.118   4.412   5.776
    1   AR   Ar  156   2.754   4.256   3.569
    1   AR   Ar  157   1.037   4.366   5.468
    1   AR   Ar  158   0.410   1.574   6.396
    1   AR   Ar  159   4.057   0.820   7.364
    1   AR   Ar  160   1.415   2.053   4.627
    1   AR   Ar  161   4.947   4.397   2.366
    1   AR   Ar  162   4.697   6.072  -0.460
    1   AR   Ar  163   6.048   4.246  -0.357
    1   AR   Ar  164   2.604   5.648   2.405
    1   AR   Ar  165   4.880   2.307   0.294
    1   AR   Ar  166   3.205   3.219   4.286
    1   AR   Ar  167   4.963   0.276   2.680
    1   AR   Ar  168   5.467   4.269  -1.570
    1   AR   Ar  169   3.482   4.280   2.479
    1   AR   Ar  170   2.186   3.251   5.519
    1   AR   Ar  171   5.338   3.864   4.051
    1   AR   Ar  172   4.010   4.169   5.210
    1   AR   Ar  173   2.413   3.133   6.788
    1   AR   Ar  174   2.098   6.008   6.212
    1   AR   Ar  175   3.756   1.812   5.327
    1   AR   Ar  176   4.191   2.371   4.460
    1   AR   Ar  177   0.702   5.460  -0.930
    1   AR   Ar  178   3.458   5.617  -0.532
    1   AR   Ar  179   3.428   6.604   0.070
    1   AR   Ar  180   3.635   0.835  -3.873
    1   AR   Ar  181   0.305   5.571   1.669
    1   AR   Ar  182   1.871   6.610   2.597
    1   AR   Ar  183   4.369   5.192   2.090
    1   AR   Ar  184   5.069   7.018   0.582
    1   AR   Ar  185   3.048   4.959   4.647
    1   AR   Ar  186   2.877   5.305   3.400
    1   AR   Ar  187   2.969   6.511   3.285
    1   AR   Ar  188   2.763   6.731   2.062
    1   AR   Ar  189   4.951   2.874   6.428
    1   AR   Ar  190   3.609   6.066   3.972
    1   AR   Ar  191   2.532   6.217   7.644
    1   AR   Ar  192   4.130   6.482   5.084
    1   AR   Ar  193   3.103   6.067   1.211
    1   AR   Ar  194   4.842   3.881  -0.722
    1   AR   Ar  195   5.481   1.372   0.379
    1   AR   Ar  196   4.406   1.267  -0.278
    1   AR   Ar  197   3.494   1.402   0.596
    1   AR   Ar  198   6.556   1.077   1.257
    1   AR   Ar  199   3.141   0.272   2.728
    1   AR   Ar  200   5.930   2.779  -0.275
    1   AR   Ar  201   6.104   6.261   3.516
    1   AR   Ar  202   5.606   1.229   4.837
    1   AR   Ar  203   0.095   7.118   3.053
    1   AR   Ar  204   5.444   6.337   5.642
    1   AR   Ar  205   6.834   6.411   1.551
    1   AR   Ar  206   5.844   0.156   5.408
    1   AR   Ar  207   0.614   2.103   5.158
    1   AR   Ar  208   0.843   5.971   4.421
    1   AR   Ar  209   7.079   2.472  -1.995
    1   AR   Ar  210   2.446   7.049   0.798
    1   AR   Ar  211   0.057   3.429   0.447
    1   AR   Ar  212   6.487   3.427  -0.938
    1   AR   Ar  213   2.638   0.715   1.918
    1   AR   Ar  214   4.693   3.361   1.842
    1   AR   Ar  215   5.749   3.295   1.915
    1   AR   Ar  216   0.553   2.517   1.317
    1   AR   Ar  217   5.430   2.761   3.834
    1   AR   Ar  218   4.803   3.130   4.976
    1   AR   Ar  219   4.159   2.919   3.636
    1   AR   Ar  220   3.792   2.689   0.844
    1   AR   Ar  221   6.548   5.507   4.057
    1   AR   Ar  222   5.040   6.966   6.341
    1   AR   Ar  223   6.060   1.795   6.763
    1   AR   Ar  224   4.893   2.313   5.496
    1   AR   Ar  225   6.427   2.907   3.429
    1   AR   Ar  226   1.773   3.341   3.555
    1   AR   Ar  227   6.750   3.469   1.741
    1   AR   Ar  228   5.507   6.802   1.471
    1   AR   Ar  229   5.244   5.378  -1.732
    1   AR   Ar  230   3.786   4.158   3.597
    1   AR   Ar  231   5.341   1.327   3.643
    1   AR   Ar  232   5.212   2.269   1.444
    1   AR   Ar  233   6.296   2.195   4.320
    1   AR   Ar  234   5.984   3.187   4.670
    1   AR   Ar  235   6.553   1.039   3.895
    1   AR   Ar  236   4.898   4.862   5.460
    1   AR   Ar  237   6.041   2.774   6.384
    1   AR   Ar  238   6.002   4.006   6.249
    1   AR   Ar  239   6.834   4.649   9.148
    1   AR   Ar  240   6.724   2.643   7.233
    1   AR   Ar  241   1.902   6.818  -0.513
    1   AR   Ar  242   5.440   5.856   0.405
    1   AR   Ar  243   4.929   5.262   3.221
    1   AR   Ar  244   0.674   5.672   0.321
    1   AR   Ar  245   3.669   1.080   1.638
    1   AR   Ar  246   5.644   6.675  -0.184
    1   AR   Ar  247   5.835   3.893   0.807
    1   AR   Ar  248   5.936   5.731  -0.427
    1   AR   Ar  249   4.596   6.003   1.095
    1   AR   Ar  250   4.828   5.957   4.632
    1   AR   Ar  251   4.708   4.602   4.419
    1   AR   Ar  252   3.881   5.316   2.976
    1   AR   Ar  253   6.932   3.394   6.518
    1   AR   Ar  254   2.390   2.600   8.916
    1   AR   Ar  255   3.950   4.880   9.625
    1   AR   Ar  256   5.882   4.819   3.424
    7.12000  7.12000 12.00000
Argon-slab step 3845
  256
    1   AR   Ar    1   4.975   1.890  -2.483
    1   AR   Ar    2   6.071   0.253   0.730
    1   AR   Ar    3   3.837   2.093  -1.648
    1   AR   Ar    4   1.704   0.764  -0.265
    1   AR   Ar    5   6.419   6.228   0.465
    1   AR   Ar    6   0.137   1.535   2.406
    1   AR   Ar    7   5.614   3.664   2.928
    1   AR   Ar    8   4.460   1.134   0.832
    1   AR   Ar    9   1.249   0.067   3.392
    1   AR   Ar   10   0.483   7.037   4.161
    1   AR   Ar   11   1.868   6.986   4.405
    1   AR   Ar   12   0.817   1.048   3.556
    1   AR   Ar   13   0.066   0.509   4.867
    1   AR   Ar   14   4.789   1.841   8.011
    1   AR   Ar   15   3.714   6.205   8.021
    1   AR   Ar   16   1.045   7.027   5.088
    1   AR   Ar   17   6.844   2.320   0.845
    1   AR   Ar   18   6.229   5.006  -1.077
    1   AR   Ar   19   3.734   3.236  -0.079
    1   AR   Ar   20   6.165   4.001  -2.858
    1   AR   Ar   21   2.778   1.804   1.463
    1   AR   Ar   22   6.705   1.912   3.187
    1   AR   Ar   23   0.680   0.309   0.860
    1   AR   Ar   24   6.284   2.134   2.055
    1   AR   Ar   25   0.257   1.833   4.037
    1   AR   Ar   26   6.390   7.108   3.916
    1   AR   Ar   27   1.573   0.557   2.580
    1   AR   Ar   28   0.627   2.747   4.376
    1   AR   Ar   29   5.405   2.540   7.373
    1   AR   Ar   30   1.879   0.841   3.627
    1   AR   Ar   31   3.315   0.226   7.882
    1   AR   Ar   32   0.663   2.723   7.088
    1   AR   Ar   33   0.459   4.449   0.260
    1   AR   Ar   34   0.549   4.785   2.456
    1   AR   Ar   35   6.045   5.654   1.454
    1   AR   Ar   36   5.916   2.292  -2.966
    1   AR   Ar   37   5.206   2.732   2.837
    1   AR   Ar   38   6.669   4.008   3.124
    1   AR   Ar   39   0.626   3.611   2.972
    1   AR   Ar   40   1.796   4.035   1.758
    1   AR   Ar   41   0.355   2.562   3.358
    1   AR   Ar   42   5.973   5.522   4.948
    1   AR   Ar   43   7.066   2.424   5.819
    1   AR   Ar   44   0.400   4.455   3.638
    1   AR   Ar   45   0.880   3.175   5.936
    1   AR   Ar   46   7.096   4.982   4.801
    1   AR   Ar   47   5.114   4.191   7.146
    1   AR   Ar   48   6.318   3.567   7.471
    1   AR   Ar   49   5.114   0.191  -1.060
    1   AR   Ar   50   4.306   5.214   0.349
    1   AR   Ar   51   6.360   4.613   1.363
    1   AR   Ar   52   5.944   3.184  -2.158
    1   AR   Ar   53   5.413   6.006   2.612
    1   AR   Ar   54   0.723   6.491   2.380
    1   AR   Ar   55   6.360   5.496   2.370
    1   AR   Ar   56   6.759   0.609   2.133
    1   AR   Ar   57   4.529   3.659   2.959
    1   AR   Ar   58   6.899   3.533   4.095
    1   AR   Ar   59   2.002   4.919   5.775
    1   AR   Ar   60   0.454   5.803   3.231
    1   AR   Ar   61   0.606   4.705   6.873
    1   AR   Ar   62   6.161   4.237   4.553
    1   AR   Ar   63   1.423   1.347   6.267
    1   AR   Ar   64   1.210   5.484   5.288
    1   AR   Ar   65   4.145   0.070   1.217
    1   AR   Ar   66   0.569   1.382   1.101
    1   AR   Ar   67   4.405   0.097  -0.324
    1   AR   Ar   68   1.369   1.445  -0.966
    1   AR   Ar   69   2.701   1.896   0.035
    1   AR   Ar   70   0.593   0.561   1.809
    1   AR   Ar   71   2.839   1.328   3.277
    1   AR   Ar   72   4.078   6.735   2.177
    1   AR   Ar   73   4.112   0.191   3.286
    1   AR   Ar   74   1.211   0.842   4.522
    1   AR   Ar   75   3.385   0.484   5.093
    1   AR   Ar   76   1.603   0.336   1.318
    1   AR   Ar   77   2.005   6.170   5.152
    1   AR   Ar   78   0.608   6.256   6.203
    1   AR   Ar   79   4.141   5.972   6.225
    1   AR   Ar   80   3.883   5.278   5.271
    1   AR   Ar   81   2.491   6.124   0.041
    1   AR   Ar   82   6.652   5.068   0.242
    1   AR   Ar   83   1.818   2.153   0.342
    1   AR   Ar   84   0.570   4.002   1.305
    1   AR   Ar   85   1.396   2.979   0.864
    1   AR   Ar   86   2.310   5.459   0.990
    1   AR   Ar   87   2.113   2.730   1.501
    1   AR   Ar   88   2.954   4.989   1.651
    1   AR   Ar   89   0.177   2.825   2.286
    1   AR   Ar   90   2.912   1.658   4.649
    1   AR   Ar   91   1.383   2.193   3.510
    1   AR   Ar   92   1.349   2.986   2.149
    1   AR   Ar   93   0.799   0.897   5.594
    1   AR   Ar   94   0.158   6.567  10.907
    1   AR   Ar   95   4.641   0.201   5.156
    1   AR   Ar   96   2.883   6.593   4.549
    1   AR   Ar   97   3.825   2.168  -0.369
    1   AR   Ar   98   1.423   4.603   3.221
    1   AR   Ar   99   6.753   1.410   0.310
    1   AR   Ar  100   1.169   2.687  -0.789
    1   AR   Ar  101   3.555   5.780   2.176
    1   AR   Ar  102   3.879   1.682   2.651
    1   AR   Ar  103   1.286   4.532   0.833
    1   AR   Ar  104   3.313   4.125  -0.985
    1   AR   Ar  105   2.288   2.401   4.062
    1   AR   Ar  106   3.786   3.032   5.676
    1   AR   Ar  107   0.420   4.113   4.638
    1   AR   Ar  108   2.332   0.875   5.189
    1   AR   Ar  109   1.640   3.106   4.609
    1   AR   Ar  110   2.751   2.431   5.379
    1   AR   Ar  111   5.323   5.393   6.757
    1   AR   Ar  112   1.262   5.360   6.305
    1   AR   Ar  113   3.562   4.610  -0.012
    1   AR   Ar  114   2.534   0.614  -0.963
    1   AR   Ar  115   2.201   4.994  -0.396
    1   AR   Ar  116   6.290   0.396  -0.361
    1   AR   Ar  117   1.188   4.829   4.286
    1   AR   Ar  118   1.544   5.752   2.974
    1   AR   Ar  119   2.440   4.124   2.562
    1   AR   Ar  120   2.008   6.290   1.533
    1   AR   Ar  121   5.428   3.907   5.045
    1   AR   Ar  122   3.229   6.208   5.548
    1   AR   Ar  123   2.965   4.044   5.240
    1   AR   Ar  124   1.667   5.380   2.056
    1   AR   Ar  125   0.130   3.283   5.187
    1   AR   Ar  126   6.927   6.038   4.809
    1   AR   Ar  127   4.729   3.973   6.219
    1   AR   Ar  128   3.285   3.920   6.571
    1   AR   Ar  129   1.955   5.996   4.053
    1   AR   Ar  130   4.853   2.456  -3.414
    1   AR   Ar  131   3.755   3.142  -1.066
    1   AR   Ar  132   0.692   1.615  -0.127
    1   AR   Ar  133   4.410   6.301   3.165
    1   AR   Ar  134   4.217   1.203   4.594
    1   AR   Ar  135   6.063   0.934   2.900
    1   AR   Ar  136   6.398   6.668   2.540
    1   AR   Ar  137   2.179   4.079   4.375
    1   AR   Ar  138   5.149   0.943   6.330
    1   AR   Ar  139   5.938   2.188   5.350
    1   AR   Ar  140   3.933   0.009   4.218
    1   AR   Ar  141   3.887   5.054   4.033
    1   AR   Ar  142   3.663   6.978   6.021
    1   AR   Ar  143   6.444   6.617   6.290
    1   AR   Ar  144   6.822   1.492   5.117
    1   AR   Ar  145   4.741   4.956  -0.727
    1   AR   Ar  146   3.051   2.582   2.158
    1   AR   Ar  147   4.964   2.406  -1.054
    1   AR   Ar  148   3.209   6.780  -1.019
    1   AR   Ar  149   2.483   1.634  -0.953
    1   AR   Ar  150   2.096   1.780   2.629
    1   AR   Ar  151   2.601   2.597   3.137
    1   AR   Ar  152   1.985   2.416  -1.403
    1   AR   Ar  153   4.937   0.556   4.145
    1   AR   Ar  154   3.689   1.748   3.762
    1   AR   Ar  155   7.096   4.380   5.775
    1   AR   Ar  156   2.732   4.267   3.589
    1   AR   Ar  157   1.059   4.397   5.469
    1   AR   Ar  158   0.403   1.557   6.370
    1   AR   Ar  159   4.003   0.796   7.337
    1   AR   Ar  160   1.448   2.034   4.601
    1   AR   Ar  161   4.944   4.425   2.349
    1   AR   Ar  162   4.724   6.053  -0.465
    1   AR   Ar  163   6.023   4.234  -0.369
    1   AR   Ar  164   2.580   5.646   2.386
    1   AR   Ar  165   4.843   2.297   0.275
    1   AR   Ar  166   3.196   3.235   4.283
    1   AR   Ar  167   4.966   0.272   2.721
    1   AR   Ar  168   5.495   4.287  -1.577
    1   AR   Ar  169   3.505   4.274   2.495
    1   AR   Ar  170   2.163   3.249   5.472
    1   AR   Ar  171   5.351   3.869   4.064
    1   AR   Ar  172   4.028   4.165   5.193
    1   AR   Ar  173   2.366   3.092   6.810
    1   AR   Ar  174   2.105   6.019   6.204
    1   AR   Ar  175   3.738   1.793   5.310
    1   AR   Ar  176   4.205   2.363   4.477
    1   AR   Ar  177   0.716   5.444  -0.917
    1   AR   Ar  178   3.455   5.639  -0.550
    1   AR   Ar  179   3.403   6.616   0.079
    1   AR   Ar  180   3.667   0.816  -3.883
    1   AR   Ar  181   0.289   5.563   1.693
    1   AR   Ar  182   1.869   6.558   2.616
    1   AR   Ar  183   4.368   5.187   2.083
    1   AR   Ar  184   5.081   7.025   0.567
    1   AR   Ar  185   3.063   4.956   4.621
    1   AR   Ar  186   2.851   5.280   3.421
    1   AR   Ar  187   2.993   6.527   3.288
    1   AR   Ar  188   2.763   6.728   2.059
    1   AR   Ar  189   4.970   2.873   6.455
    1   AR   Ar  190   3.644   6.053   3.962
    1   AR   Ar  191   2.533   6.229   7.643
    1   AR   Ar  192   4.095   6.476   5.094
    1   AR   Ar  193   3.099   6.082   1.205
    1   AR   Ar  194   4.858   3.856  -0.720
    1   AR   Ar  195   5.498   1.367   0.376
    1   AR   Ar  196   4.388   1.277  -0.305
    1   AR   Ar  197   3.479   1.393   0.596
    1   AR   Ar  198   6.552   1.087   1.276
    1   AR   Ar  199   3.108   0.279   2.725
    1   AR   Ar  200   5.967   2.828  -0.240
    1   AR   Ar  201   6.094   6.259   3.505
    1   AR   Ar  202   5.598   1.238   4.820
    1   AR   Ar  203   0.075   7.073   3.082
    1   AR   Ar  204   5.455   6.351   5.644
    1   AR   Ar  205   6.855   6.416   1.544
    1   AR   Ar  206   5.846   0.143   5.417
    1   AR   Ar  207   0.567   2.113   5.152
    1   AR   Ar  208   0.857   5.981   4.425
    1   AR   Ar  209   7.092   2.489  -1.997
    1   AR   Ar  210   2.426   7.022   0.789
    1   AR   Ar  211   0.078   3.478   0.430
    1   AR   Ar  212   6.488   3.440  -0.917
    1   AR   Ar  213   2.603   0.722   1.915
    1   AR   Ar  214   4.694   3.413   1.839
    1   AR   Ar  215   5.726   3.302   1.922
    1   AR   Ar  216   0.550   2.499   1.307
    1   AR   Ar  217   5.447   2.766   3.802
    1   AR   Ar  218   4.805   3.144   4.965
    1   AR   Ar  219   4.177   2.933   3.633
    1   AR   Ar  220   3.813   2.719   0.858
    1   AR   Ar  221   6.542   5.483   4.071
    1   AR   Ar  222   5.010   6.956   6.358
    1   AR   Ar  223   6.074   1.760   6.756
    1   AR   Ar  224   4.876   2.314   5.490
    1   AR   Ar  225   6.383   2.904   3.426
    1   AR   Ar  226   1.759   3.315   3.586
    1   AR   Ar  227   6.729   3.509   1.732
    1   AR   Ar  228   5.493   6.803   1.469
    1   AR   Ar  229   5.241   5.390  -1.734
    1   AR   Ar  230   3.789   4.153   3.603
    1   AR   Ar  231   5.304   1.334   3.630
    1   AR   Ar  232   5.232   2.312   1.479
    1   AR   Ar  233   6.311   2.191   4.317
    1   AR   Ar  234   5.966   3.154   4.675
    1   AR   Ar  235   6.587   1.056   3.884
    1   AR   Ar  236   4.880   4.873   5.477
    1   AR   Ar  237   6.030   2.757   6.395
    1   AR   Ar  238   6.035   4.011   6.236
    1   AR   Ar  239   6.835   4.671   9.179
    1   AR   Ar  240   6.753   2.664   7.244
    1   AR   Ar  241   1.937   6.783  -0.543
    1   AR   Ar  242   5.483   5.853   0.416
    1   AR   Ar  243   4.922   5.278   3.246
    1   AR   Ar  244   0.713   5.657   0.334
    1   AR   Ar  245   3.671   1.083   1.639
    1   AR   Ar  246   5.631   6.672  -0.176
    1   AR   Ar  247   5.831   3.907   0.836
    1   AR   Ar  248   5.936   5.738  -0.405
    1   AR   Ar  249   4.580   6.006   1.106
    1   AR   Ar  250   4.821   5.950   4.560
    1   AR   Ar  251   4.717   4.578   4.397
    1   AR   Ar  252   3.862   5.281   2.973
    1   AR   Ar  253   6.907   3.398   6.526
    1   AR   Ar  254   2.416   2.581   8.934
    1   AR   Ar  255   3.937   4.891   9.594
    1   AR   Ar  256   5.852   4.823   3.428
    7.12000  7.12000 12.00000
Argon-slab step 3850
  256
    1   AR   Ar    1   4.963   1.907  -2.478
    1   AR   Ar    2   6.097   0.226   0.722
    1   AR   Ar    3   3.850   2.081  -1.668
    1   AR   Ar    4   1.698   0.779  -0.256
    1   AR   Ar    5   6.425   6.244   0.495
    1   AR   Ar    6   0.172   1.523   2.417
    1   AR   Ar    7   5.622   3.647   2.944
    1   AR   Ar    8   4.462   1.104   0.816
    1   AR   Ar    9   1.240   0.098   3.363
    1   AR   Ar   10   0.477   7.036   4.168
    1   AR   Ar   11   1.863   6.983   4.431
    1   AR   Ar   12   0.821   1.046   3.567
    1   AR   Ar   13   0.084   0.513   4.903
    1   AR   Ar   14   4.768   1.822   7.985
    1   AR   Ar   15   3.688   6.212   8.049
    1   AR   Ar   16   1.029   7.032   5.114
    1   AR   Ar   17   6.814   2.320   0.834
    1   AR   Ar   18   6.227   4.989  -1.082
    1   AR   Ar   19   3.720   3.229  -0.061
    1   AR   Ar   20   6.173   4.000  -2.836
    1   AR   Ar   21   2.765   1.800   1.458
    1   AR   Ar   22   6.681   1.923   3.198
    1   AR   Ar   23   0.697   0.308   0.854
    1   AR   Ar   24   6.274   2.160   2.052
    1   AR   Ar   25   0.294   1.820   4.048
    1   AR   Ar   26   6.437   7.120   3.889
    1   AR   Ar   27   1.573   0.606   2.574
    1   AR   Ar   28   0.666   2.768   4.336
    1   AR   Ar   29   5.412   2.494   7.409
    1   AR   Ar   30   1.870   0.829   3.610
    1   AR   Ar   31   3.332   0.197   7.871
    1   AR   Ar   32   0.677   2.709   7.082
    1   AR   Ar   33   0.443   4.457   0.222
    1   AR   Ar   34   0.581   4.787   2.428
    1   AR   Ar   35   6.059   5.624   1.430
    1   AR   Ar   36   5.917   2.311  -2.963
    1   AR   Ar   37   5.162   2.686   2.825
    1   AR   Ar   38   6.694   4.019   3.166
    1   AR   Ar   39   0.620   3.630   2.959
    1   AR   Ar   40   1.780   4.019   1.772
    1   AR   Ar   41   0.352   2.586   3.336
    1   AR   Ar   42   5.944   5.478   4.921
    1   AR   Ar   43   7.025   2.455   5.815
    1   AR   Ar   44   0.384   4.461   3.637
    1   AR   Ar   45   0.878   3.187   5.963
    1   AR   Ar   46   7.084   4.976   4.817
    1   AR   Ar   47   5.116   4.207   7.157
    1   AR   Ar   48   6.304   3.591   7.425
    1   AR   Ar   49   5.088   0.185  -1.064
    1   AR   Ar   50   4.327   5.222   0.332
    1   AR   Ar   51   6.346   4.605   1.361
    1   AR   Ar   52   5.951   3.205  -2.166
    1   AR   Ar   53   5.390   6.047   2.617
    1   AR   Ar   54   0.729   6.514   2.360
    1   AR   Ar   55   6.379   5.474   2.402
    1   AR   Ar   56   6.735   0.630   2.148
    1   AR   Ar   57   4.540   3.716   2.975
    1   AR   Ar   58   6.888   3.564   4.103
    1   AR   Ar   59   1.979   4.917   5.732
    1   AR   Ar   60   0.449   5.838   3.197
    1   AR   Ar   61   0.618   4.704   6.864
    1   AR   Ar   62   6.200   4.266   4.527
    1   AR   Ar   63   1.456   1.352   6.263
    1   AR   Ar   64   1.231   5.467   5.282
    1   AR   Ar   65   4.150   0.092   1.237
    1   AR   Ar   66   0.505   1.363   1.064
    1   AR   Ar   67   4.395   0.096  -0.346
    1   AR   Ar   68   1.341   1.451  -0.981
    1   AR   Ar   69   2.719   1.899  -0.010
    1   AR   Ar   70   0.593   0.571   1.790
    1   AR   Ar   71   2.844   1.329   3.300
    1   AR   Ar   72   4.093   6.746   2.218
    1   AR   Ar   73   4.103   0.215   3.256
    1   AR   Ar   74   1.227   0.873   4.505
    1   AR   Ar   75   3.393   0.468   5.084
    1   AR   Ar   76   1.634   0.356   1.324
    1   AR   Ar   77   1.974   6.189   5.145
    1   AR   Ar   78   0.605   6.266   6.192
    1   AR   Ar   79   4.087   5.991   6.181
    1   AR   Ar   80   3.879   5.292   5.288
    1   AR   Ar   81   2.483   6.118   0.021
    1   AR   Ar   82   6.647   5.080   0.222
    1   AR   Ar   83   1.807   2.167   0.340
    1   AR   Ar   84   0.536   3.978   1.305
    1   AR   Ar   85   1.416   2.991   0.835
    1   AR   Ar   86   2.299   5.443   0.998
    1   AR   Ar   87   2.146   2.720   1.517
    1   AR   Ar   88   2.971   5.006   1.641
    1   AR   Ar   89   0.157   2.828   2.268
    1   AR   Ar   90   2.926   1.646   4.650
    1   AR   Ar   91   1.355   2.216   3.506
    1   AR   Ar   92   1.352   3.007   2.148
    1   AR   Ar   93   0.791   0.901   5.578
    1   AR   Ar   94   0.187   6.550  10.868
    1   AR   Ar   95   4.656   0.212   5.143
    1   AR   Ar   96   2.872   6.610   4.549
    1   AR   Ar   97   3.773   2.175  -0.363
    1   AR   Ar   98   1.427   4.622   3.233
    1   AR   Ar   99   6.795   1.385   0.295
    1   AR   Ar  100   1.141   2.696  -0.793
    1   AR   Ar  101   3.596   5.789   2.196
    1   AR   Ar  102   3.882   1.689   2.639
    1   AR   Ar  103   1.307   4.521   0.816
    1   AR   Ar  104   3.317   4.150  -1.007
    1   AR   Ar  105   2.284   2.392   4.056
    1   AR   Ar  106   3.838   3.048   5.648
    1   AR   Ar  107   0.424   4.084   4.638
    1   AR   Ar  108   2.292   0.905   5.219
    1   AR   Ar  109   1.674   3.119   4.601
    1   AR   Ar  110   2.766   2.430   5.368
    1   AR   Ar  111   5.341   5.373   6.756
    1   AR   Ar  112   1.266   5.349   6.321
    1   AR   Ar  113   3.570   4.624  -0.009
    1   AR   Ar  114   2.543   0.627  -0.995
    1   AR   Ar  115   2.151   4.979  -0.409
    1   AR   Ar  116   6.273   0.383  -0.356
    1   AR   Ar  117   1.182   4.807   4.307
    1   AR   Ar  118   1.541   5.723   2.984
    1   AR   Ar  119   2.430   4.130   2.538
    1   AR   Ar  120   2.006   6.225   1.554
    1   AR   Ar  121   5.417   3.902   5.034
    1   AR   Ar  122   3.200   6.233   5.534
    1   AR   Ar  123   2.962   4.043   5.248
    1   AR   Ar  124   1.667   5.400   2.053
    1   AR   Ar  125   0.126   3.263   5.200
    1   AR   Ar  126   6.978   6.038   4.826
    1   AR   Ar  127   4.707   3.958   6.227
    1   AR   Ar  128   3.274   3.912   6.584
    1   AR   Ar  129   1.907   6.025   4.056
    1   AR   Ar  130   4.900   2.473  -3.420
    1   AR   Ar  131   3.770   3.169  -1.102
    1   AR   Ar  132   0.715   1.591  -0.096
    1   AR   Ar  133   4.391   6.307   3.180
    1   AR   Ar  134   4.216   1.220   4.608
    1   AR   Ar  135   6.083   0.947   2.883
    1   AR   Ar  136   6.430   6.663   2.546
    1   AR   Ar  137   2.208   4.077   4.377
    1   AR   Ar  138   5.161   0.925   6.333
    1   AR   Ar  139   5.974   2.215   5.358
    1   AR   Ar  140   3.913   0.013   4.251
    1   AR   Ar  141   3.874   5.063   4.065
    1   AR   Ar  142   3.666   6.948   6.020
    1   AR   Ar  143   6.414   6.627   6.310
    1   AR   Ar  144   6.811   1.510   5.107
    1   AR   Ar  145   4.737   4.955  -0.764
    1   AR   Ar  146   3.036   2.552   2.173
    1   AR   Ar  147   4.974   2.396  -1.041
    1   AR   Ar  148   3.196   6.775  -1.027
    1   AR   Ar  149   2.446   1.629  -0.977
    1   AR   Ar  150   2.076   1.780   2.640
    1   AR   Ar  151   2.608   2.589   3.160
    1   AR   Ar  152   1.978   2.390  -1.400
    1   AR   Ar  153   4.946   0.542   4.185
    1   AR   Ar  154   3.690   1.709   3.785
    1   AR   Ar  155   7.074   4.347   5.772
    1   AR   Ar  156   2.716   4.277   3.600
    1   AR   Ar  157   1.081   4.426   5.471
    1   AR   Ar  158   0.391   1.543   6.344
    1   AR   Ar  159   3.953   0.774   7.308
    1   AR   Ar  160   1.483   2.011   4.574
    1   AR   Ar  161   4.949   4.445   2.335
    1   AR   Ar  162   4.751   6.035  -0.469
    1   AR   Ar  163   5.995   4.221  -0.377
    1   AR   Ar  164   2.553   5.649   2.374
    1   AR   Ar  165   4.804   2.285   0.255
    1   AR   Ar  166   3.186   3.252   4.280
    1   AR   Ar  167   4.977   0.248   2.739
    1   AR   Ar  168   5.522   4.304  -1.583
    1   AR   Ar  169   3.530   4.270   2.513
    1   AR   Ar  170   2.139   3.254   5.432
    1   AR   Ar  171   5.361   3.865   4.057
    1   AR   Ar  172   4.049   4.159   5.175
    1   AR   Ar  173   2.358   3.052   6.816
    1   AR   Ar  174   2.112   6.033   6.193
    1   AR   Ar  175   3.720   1.776   5.297
    1   AR   Ar  176   4.207   2.379   4.482
    1   AR   Ar  177   0.730   5.464  -0.918
    1   AR   Ar  178   3.452   5.661  -0.565
    1   AR   Ar  179   3.379   6.620   0.085
    1   AR   Ar  180   3.699   0.796  -3.893
    1   AR   Ar  181   0.275   5.551   1.718
    1   AR   Ar  182   1.875   6.529   2.626
    1   AR   Ar  183   4.369   5.186   2.067
    1   AR   Ar  184   5.081   7.035   0.554
    1   AR   Ar  185   3.070   4.953   4.596
    1   AR   Ar  186   2.826   5.260   3.443
    1   AR   Ar  187   3.015   6.539   3.290
    1   AR   Ar  188   2.768   6.721   2.053
    1   AR   Ar  189   4.986   2.874   6.480
    1   AR   Ar  190   3.681   6.042   3.955
    1   AR   Ar  191   2.536   6.242   7.641
    1   AR   Ar  192   4.058   6.466   5.104
    1   AR   Ar  193   3.099   6.101   1.199
    1   AR   Ar  194   4.846   3.855  -0.737
    1   AR   Ar  195   5.516   1.361   0.373
    1   AR   Ar  196   4.372   1.284  -0.331
    1   AR   Ar  197   3.462   1.386   0.594
    1   AR   Ar  198   6.547   1.101   1.293
    1   AR   Ar  199   3.080   0.293   2.729
    1   AR   Ar  200   6.000   2.874  -0.203
    1   AR   Ar  201   6.079   6.248   3.489
    1   AR   Ar  202   5.589   1.247   4.802
    1   AR   Ar  203   0.059   7.030   3.114
    1   AR   Ar  204   5.465   6.354   5.644
    1   AR   Ar  205   6.872   6.427   1.537
    1   AR   Ar  206   5.850   0.137   5.425
    1   AR   Ar  207   0.529   2.114   5.143
    1   AR   Ar  208   0.870   5.991   4.425
    1   AR   Ar  209   7.105   2.507  -1.998
    1   AR   Ar  210   2.409   6.993   0.779
    1   AR   Ar  211   0.097   3.522   0.415
    1   AR   Ar  212   6.490   3.454  -0.899
    1   AR   Ar  213   2.565   0.730   1.910
    1   AR   Ar  214   4.690   3.401   1.840
    1   AR   Ar  215   5.703   3.306   1.928
    1   AR   Ar  216   0.560   2.484   1.306
    1   AR   Ar  217   5.458   2.770   3.781
    1   AR   Ar  218   4.800   3.161   4.945
    1   AR   Ar  219   4.193   2.949   3.626
    1   AR   Ar  220   3.835   2.745   0.874
    1   AR   Ar  221   6.535   5.453   4.073
    1   AR   Ar  222   4.977   6.949   6.377
    1   AR   Ar  223   6.089   1.724   6.749
    1   AR   Ar  224   4.857   2.305   5.490
    1   AR   Ar  225   6.343   2.903   3.417
    1   AR   Ar  226   1.745   3.288   3.614
    1   AR   Ar  227   6.713   3.557   1.723
    1   AR   Ar  228   5.482   6.799   1.474
    1   AR   Ar  229   5.239   5.401  -1.734
    1   AR   Ar  230   3.793   4.139   3.606
    1   AR   Ar  231   5.271   1.348   3.613
    1   AR   Ar  232   5.253   2.355   1.515
    1   AR   Ar  233   6.329   2.184   4.312
    1   AR   Ar  234   5.954   3.114   4.677
    1   AR   Ar  235   6.621   1.075   3.875
    1   AR   Ar  236   4.864   4.883   5.494
    1   AR   Ar  237   6.020   2.741   6.404
    1   AR   Ar  238   6.012   4.067   6.273
    1   AR   Ar  239   6.836   4.692   9.210
    1   AR   Ar  240   6.779   2.676   7.256
    1   AR   Ar  241   1.971   6.752  -0.575
    1   AR   Ar  242   5.506   5.845   0.452
    1   AR   Ar  243   4.914   5.273   3.241
    1   AR   Ar  244   0.751   5.640   0.347
    1   AR   Ar  245   3.673   1.084   1.641
    1   AR   Ar  246   5.621   6.677  -0.178
    1   AR   Ar  247   5.825   3.917   0.862
    1   AR   Ar  248   5.947   5.737  -0.403
    1   AR   Ar  249   4.564   6.011   1.118
    1   AR   Ar  250   4.815   5.940   4.485
    1   AR   Ar  251   4.727   4.558   4.380
    1   AR   Ar  252   3.843   5.241   2.982
    1   AR   Ar  253   6.883   3.398   6.528
    1   AR   Ar  254   2.443   2.562   8.951
    1   AR   Ar  255   3.924   4.902   9.562
    1   AR   Ar  256   5.825   4.824   3.433
    7.12000  7.12000 12.00000
Argon-slab step 3855
  256
    1   AR   Ar    1   4.952   1.925  -2.472
    1   AR   Ar    2   6.124   0.200   0.713
    1   AR   Ar    3   3.865   2.069  -1.687
    1   AR   Ar    4   1.694   0.793  -0.244
    1   AR   Ar    5   6.438   6.263   0.526
    1   AR   Ar    6   0.208   1.512   2.426
    1   AR   Ar    7   5.632   3.632   2.963
    1   AR   Ar    8   4.466   1.073   0.799
    1   AR   Ar    9   1.223   0.112   3.338
    1   AR   Ar   10   0.473   7.032   4.171
    1   AR   Ar   11   1.857   6.988   4.455
    1   AR   Ar   12   0.821   1.046   3.572
    1   AR   Ar   13   0.098   0.519   4.939
    1   AR   Ar   14   4.747   1.794   7.955
    1   AR   Ar   15   3.661   6.219   8.076
    1   AR   Ar   16   1.013   7.036   5.140
    1   AR   Ar   17   6.777   2.320   0.821
    1   AR   Ar   18   6.227   4.972  -1.089
    1   AR   Ar   19   3.705   3.225  -0.042
    1   AR   Ar   20   6.181   4.000  -2.815
    1   AR   Ar   21   2.754   1.800   1.456
    1   AR   Ar   22   6.654   1.931   3.208
    1   AR   Ar   23   0.711   0.303   0.833
    1   AR   Ar   24   6.266   2.186   2.049
    1   AR   Ar   25   0.329   1.805   4.064
    1   AR   Ar   26   6.485   0.016   3.866
    1   AR   Ar   27   1.577   0.661   2.557
    1   AR   Ar   28   0.706   2.795   4.294
    1   AR   Ar   29   5.422   2.448   7.444
    1   AR   Ar   30   1.871   0.824   3.596
    1   AR   Ar   31   3.304   0.167   7.876
    1   AR   Ar   32   0.693   2.695   7.074
    1   AR   Ar   33   0.426   4.472   0.181
    1   AR   Ar   34   0.614   4.787   2.402
    1   AR   Ar   35   6.070   5.599   1.401
    1   AR   Ar   36   5.917   2.332  -2.959
    1   AR   Ar   37   5.114   2.639   2.803
    1   AR   Ar   38   6.713   4.028   3.203
    1   AR   Ar   39   0.613   3.658   2.988
    1   AR   Ar   40   1.757   4.002   1.780
    1   AR   Ar   41   0.350   2.616   3.309
    1   AR   Ar   42   5.912   5.433   4.898
    1   AR   Ar   43   6.973   2.488   5.825
    1   AR   Ar   44   0.369   4.472   3.637
    1   AR   Ar   45   0.876   3.200   5.990
    1   AR   Ar   46   7.072   4.972   4.836
    1   AR   Ar   47   5.120   4.225   7.170
    1   AR   Ar   48   6.288   3.633   7.368
    1   AR   Ar   49   5.069   0.179  -1.073
    1   AR   Ar   50   4.354   5.236   0.317
    1   AR   Ar   51   6.339   4.601   1.364
    1   AR   Ar   52   5.958   3.223  -2.171
    1   AR   Ar   53   5.368   6.088   2.621
    1   AR   Ar   54   0.736   6.537   2.340
    1   AR   Ar   55   6.400   5.453   2.440
    1   AR   Ar   56   6.712   0.643   2.169
    1   AR   Ar   57   4.552   3.771   2.991
    1   AR   Ar   58   6.874   3.585   4.107
    1   AR   Ar   59   1.968   4.912   5.687
    1   AR   Ar   60   0.455   5.867   3.169
    1   AR   Ar   61   0.628   4.700   6.855
    1   AR   Ar   62   6.249   4.302   4.497
    1   AR   Ar   63   1.491   1.358   6.260
    1   AR   Ar   64   1.246   5.452   5.272
    1   AR   Ar   65   4.154   0.068   1.230
    1   AR   Ar   66   0.440   1.346   1.027
    1   AR   Ar   67   4.379   0.094  -0.361
    1   AR   Ar   68   1.309   1.472  -1.007
    1   AR   Ar   69   2.742   1.901  -0.061
    1   AR   Ar   70   0.595   0.583   1.784
    1   AR   Ar   71   2.846   1.329   3.321
    1   AR   Ar   72   4.107   6.758   2.260
    1   AR   Ar   73   4.087   0.241   3.225
    1   AR   Ar   74   1.244   0.902   4.492
    1   AR   Ar   75   3.401   0.452   5.076
    1   AR   Ar   76   1.623   0.345   1.329
    1   AR   Ar   77   1.946   6.209   5.137
    1   AR   Ar   78   0.593   6.262   6.175
    1   AR   Ar   79   4.036   6.007   6.137
    1   AR   Ar   80   3.874   5.308   5.304
    1   AR   Ar   81   2.476   6.103   0.007
    1   AR   Ar   82   6.642   5.096   0.192
    1   AR   Ar   83   1.789   2.178   0.338
    1   AR   Ar   84   0.502   3.953   1.307
    1   AR   Ar   85   1.430   3.009   0.806
    1   AR   Ar   86   2.285   5.420   0.997
    1   AR   Ar   87   2.183   2.708   1.535
    1   AR   Ar   88   2.992   5.020   1.635
    1   AR   Ar   89   0.137   2.829   2.252
    1   AR   Ar   90   2.937   1.632   4.645
    1   AR   Ar   91   1.346   2.202   3.519
    1   AR   Ar   92   1.344   3.017   2.150
    1   AR   Ar   93   0.784   0.905   5.559
    1   AR   Ar   94   0.216   6.533  10.829
    1   AR   Ar   95   4.672   0.226   5.134
    1   AR   Ar   96   2.863   6.626   4.549
    1   AR   Ar   97   3.722   2.184  -0.356
    1   AR   Ar   98   1.432   4.640   3.244
    1   AR   Ar   99   6.837   1.359   0.277
    1   AR   Ar  100   1.113   2.704  -0.794
    1   AR   Ar  101   3.626   5.811   2.208
    1   AR   Ar  102   3.884   1.695   2.627
    1   AR   Ar  103   1.333   4.512   0.800
    1   AR   Ar  104   3.321   4.176  -1.028
    1   AR   Ar  105   2.281   2.382   4.061
    1   AR   Ar  106   3.891   3.064   5.619
    1   AR   Ar  107   0.437   4.056   4.641
    1   AR   Ar  108   2.251   0.935   5.247
    1   AR   Ar  109   1.699   3.129   4.586
    1   AR   Ar  110   2.785   2.429   5.355
    1   AR   Ar  111   5.341   5.380   6.750
    1   AR   Ar  112   1.266   5.341   6.343
    1   AR   Ar  113   3.574   4.635  -0.009
    1   AR   Ar  114   2.538   0.618  -1.016
    1   AR   Ar  115   2.102   4.965  -0.420
    1   AR   Ar  116   6.257   0.371  -0.352
    1   AR   Ar  117   1.177   4.786   4.329
    1   AR   Ar  118   1.529   5.675   3.014
    1   AR   Ar  119   2.423   4.138   2.521
    1   AR   Ar  120   2.000   6.171   1.574
    1   AR   Ar  121   5.429   3.858   5.035
    1   AR   Ar  122   3.154   6.245   5.518
    1   AR   Ar  123   2.958   4.041   5.256
    1   AR   Ar  124   1.652   5.406   2.039
    1   AR   Ar  125   0.119   3.244   5.210
    1   AR   Ar  126   7.030   6.044   4.845
    1   AR   Ar  127   4.683   3.942   6.230
    1   AR   Ar  128   3.264   3.904   6.596
    1   AR   Ar  129   1.860   6.048   4.056
    1   AR   Ar  130   4.911   2.451  -3.443
    1   AR   Ar  131   3.787   3.193  -1.141
    1   AR   Ar  132   0.739   1.567  -0.064
    1   AR   Ar  133   4.374   6.309   3.194
    1   AR   Ar  134   4.218   1.232   4.619
    1   AR   Ar  135   6.101   0.963   2.870
    1   AR   Ar  136   6.456   6.655   2.545
    1   AR   Ar  137   2.225   4.071   4.399
    1   AR   Ar  138   5.173   0.908   6.335
    1   AR   Ar  139   6.009   2.243   5.367
    1   AR   Ar  140   3.893   0.016   4.288
    1   AR   Ar  141   3.871   5.068   4.084
    1   AR   Ar  142   3.675   6.932   6.024
    1   AR   Ar  143   6.382   6.637   6.329
    1   AR   Ar  144   6.795   1.526   5.096
    1   AR   Ar  145   4.732   4.954  -0.800
    1   AR   Ar  146   3.023   2.523   2.189
    1   AR   Ar  147   4.983   2.386  -1.027
    1   AR   Ar  148   3.183   6.769  -1.034
    1   AR   Ar  149   2.419   1.617  -0.993
    1   AR   Ar  150   2.056   1.779   2.651
    1   AR   Ar  151   2.623   2.591   3.172
    1   AR   Ar  152   1.967   2.372  -1.402
    1   AR   Ar  153   4.955   0.525   4.223
    1   AR   Ar  154   3.692   1.672   3.808
    1   AR   Ar  155   7.053   4.312   5.770
    1   AR   Ar  156   2.714   4.285   3.617
    1   AR   Ar  157   1.100   4.453   5.473
    1   AR   Ar  158   0.375   1.532   6.317
    1   AR   Ar  159   3.906   0.755   7.275
    1   AR   Ar  160   1.497   2.000   4.563
    1   AR   Ar  161   4.963   4.456   2.324
    1   AR   Ar  162   4.779   6.017  -0.471
    1   AR   Ar  163   5.965   4.210  -0.382
    1   AR   Ar  164   2.536   5.657   2.370
    1   AR   Ar  165   4.765   2.272   0.234
    1   AR   Ar  166   3.176   3.269   4.277
    1   AR   Ar  167   4.996   0.209   2.740
    1   AR   Ar  168   5.550   4.321  -1.587
    1   AR   Ar  169   3.556   4.267   2.530
    1   AR   Ar  170   2.125   3.277   5.434
    1   AR   Ar  171   5.375   3.851   4.030
    1   AR   Ar  172   4.072   4.153   5.157
    1   AR   Ar  173   2.367   3.063   6.801
    1   AR   Ar  174   2.117   6.052   6.172
    1   AR   Ar  175   3.702   1.765   5.291
    1   AR   Ar  176   4.206   2.397   4.488
    1   AR   Ar  177   0.744   5.493  -0.920
    1   AR   Ar  178   3.450   5.681  -0.569
    1   AR   Ar  179   3.359   6.627   0.092
    1   AR   Ar  180   3.730   0.777  -3.902
    1   AR   Ar  181   0.262   5.536   1.744
    1   AR   Ar  182   1.888   6.522   2.628
    1   AR   Ar  183   4.372   5.189   2.045
    1   AR   Ar  184   5.069   7.050   0.546
    1   AR   Ar  185   3.064   4.946   4.578
    1   AR   Ar  186   2.803   5.251   3.464
    1   AR   Ar  187   3.035   6.547   3.293
    1   AR   Ar  188   2.776   6.712   2.044
    1   AR   Ar  189   4.999   2.876   6.503
    1   AR   Ar  190   3.717   6.038   3.949
    1   AR   Ar  191   2.539   6.256   7.639
    1   AR   Ar  192   4.028   6.454   5.108
    1   AR   Ar  193   3.101   6.122   1.193
    1   AR   Ar  194   4.825   3.875  -0.738
    1   AR   Ar  195   5.534   1.354   0.370
    1   AR   Ar  196   4.357   1.290  -0.355
    1   AR   Ar  197   3.444   1.381   0.592
    1   AR   Ar  198   6.540   1.121   1.302
    1   AR   Ar  199   3.056   0.315   2.737
    1   AR   Ar  200   6.012   2.862  -0.201
    1   AR   Ar  201   6.061   6.231   3.469
    1   AR   Ar  202   5.582   1.257   4.783
    1   AR   Ar  203   0.051   6.990   3.148
    1   AR   Ar  204   5.471   6.348   5.642
    1   AR   Ar  205   6.887   6.442   1.529
    1   AR   Ar  206   5.856   0.139   5.430
    1   AR   Ar  207   0.502   2.110   5.127
    1   AR   Ar  208   0.884   6.004   4.423
    1   AR   Ar  209   7.116   2.525  -2.000
    1   AR   Ar  210   2.394   6.961   0.768
    1   AR   Ar  211   0.112   3.559   0.402
    1   AR   Ar  212   6.496   3.469  -0.888
    1   AR   Ar  213   2.526   0.740   1.902
    1   AR   Ar  214   4.680   3.372   1.843
    1   AR   Ar  215   5.684   3.308   1.935
    1   AR   Ar  216   0.580   2.471   1.309
    1   AR   Ar  217   5.455   2.773   3.775
    1   AR   Ar  218   4.784   3.173   4.920
    1   AR   Ar  219   4.209   2.966   3.616
    1   AR   Ar  220   3.857   2.769   0.891
    1   AR   Ar  221   6.528   5.420   4.066
    1   AR   Ar  222   4.973   6.941   6.394
    1   AR   Ar  223   6.103   1.688   6.742
    1   AR   Ar  224   4.857   2.304   5.526
    1   AR   Ar  225   6.318   2.907   3.402
    1   AR   Ar  226   1.731   3.264   3.632
    1   AR   Ar  227   6.698   3.607   1.713
    1   AR   Ar  228   5.473   6.793   1.483
    1   AR   Ar  229   5.237   5.411  -1.732
    1   AR   Ar  230   3.797   4.123   3.609
    1   AR   Ar  231   5.241   1.366   3.595
    1   AR   Ar  232   5.273   2.399   1.550
    1   AR   Ar  233   6.348   2.175   4.304
    1   AR   Ar  234   5.946   3.071   4.678
    1   AR   Ar  235   6.642   1.082   3.871
    1   AR   Ar  236   4.850   4.892   5.510
    1   AR   Ar  237   6.013   2.728   6.412
    1   AR   Ar  238   5.988   4.122   6.310
    1   AR   Ar  239   6.837   4.714   9.241
    1   AR   Ar  240   6.799   2.680   7.270
    1   AR   Ar  241   2.002   6.728  -0.611
    1   AR   Ar  242   5.510   5.834   0.505
    1   AR   Ar  243   4.880   5.278   3.221
    1   AR   Ar  244   0.789   5.621   0.360
    1   AR   Ar  245   3.674   1.085   1.644
    1   AR   Ar  246   5.615   6.685  -0.190
    1   AR   Ar  247   5.815   3.920   0.883
    1   AR   Ar  248   5.965   5.730  -0.414
    1   AR   Ar  249   4.549   6.018   1.131
    1   AR   Ar  250   4.810   5.929   4.409
    1   AR   Ar  251   4.734   4.544   4.367
    1   AR   Ar  252   3.824   5.196   3.003
    1   AR   Ar  253   6.851   3.406   6.534
    1   AR   Ar  254   2.470   2.543   8.968
    1   AR   Ar  255   3.911   4.913   9.531
    1   AR   Ar  256   5.802   4.822   3.439
    7.12000  7.12000 12.00000
Argon-slab step 3860
  256
    1   AR   Ar    1   4.940   1.943  -2.465
    1   AR   Ar    2   6.152   0.174   0.706
    1   AR   Ar    3   3.876   2.060  -1.701
    1   AR   Ar    4   1.691   0.806  -0.231
    1   AR   Ar    5   6.456   6.283   0.556
    1   AR   Ar    6   0.244   1.501   2.435
    1   AR   Ar    7   5.643   3.620   2.983
    1   AR   Ar    8   4.473   1.042   0.781
    1   AR   Ar    9   1.198   0.110   3.316
    1   AR   Ar   10   0.470   7.027   4.170
    1   AR   Ar   11   1.854   7.003   4.459
    1   AR   Ar   12   0.817   1.047   3.569
    1   AR   Ar   13   0.104   0.524   4.970
    1   AR   Ar   14   4.724   1.766   7.925
    1   AR   Ar   15   3.633   6.226   8.102
    1   AR   Ar   16   0.997   7.037   5.166
    1   AR   Ar   17   6.736   2.320   0.807
    1   AR   Ar   18   6.228   4.954  -1.099
    1   AR   Ar   19   3.691   3.223  -0.025
    1   AR   Ar   20   6.190   4.004  -2.797
    1   AR   Ar   21   2.754   1.828   1.470
    1   AR   Ar   22   6.625   1.936   3.216
    1   AR   Ar   23   0.722   0.294   0.800
    1   AR   Ar   24   6.259   2.213   2.046
    1   AR   Ar   25   0.362   1.793   4.083
    1   AR   Ar   26   6.528   0.034   3.850
    1   AR   Ar   27   1.583   0.719   2.534
    1   AR   Ar   28   0.745   2.824   4.254
    1   AR   Ar   29   5.436   2.404   7.477
    1   AR   Ar   30   1.881   0.827   3.585
    1   AR   Ar   31   3.262   0.135   7.887
    1   AR   Ar   32   0.714   2.681   7.062
    1   AR   Ar   33   0.413   4.497   0.138
    1   AR   Ar   34   0.649   4.785   2.380
    1   AR   Ar   35   6.081   5.580   1.372
    1   AR   Ar   36   5.918   2.353  -2.954
    1   AR   Ar   37   5.064   2.594   2.777
    1   AR   Ar   38   6.722   4.035   3.230
    1   AR   Ar   39   0.608   3.684   3.016
    1   AR   Ar   40   1.727   3.984   1.782
    1   AR   Ar   41   0.348   2.647   3.281
    1   AR   Ar   42   5.877   5.388   4.878
    1   AR   Ar   43   6.916   2.517   5.844
    1   AR   Ar   44   0.361   4.489   3.641
    1   AR   Ar   45   0.873   3.212   6.017
    1   AR   Ar   46   7.062   4.966   4.858
    1   AR   Ar   47   5.113   4.243   7.186
    1   AR   Ar   48   6.268   3.677   7.313
    1   AR   Ar   49   5.057   0.173  -1.087
    1   AR   Ar   50   4.385   5.253   0.301
    1   AR   Ar   51   6.341   4.602   1.373
    1   AR   Ar   52   5.963   3.238  -2.173
    1   AR   Ar   53   5.345   6.130   2.623
    1   AR   Ar   54   0.727   6.525   2.318
    1   AR   Ar   55   6.421   5.432   2.479
    1   AR   Ar   56   6.697   0.645   2.190
    1   AR   Ar   57   4.566   3.824   3.006
    1   AR   Ar   58   6.856   3.593   4.110
    1   AR   Ar   59   1.969   4.926   5.672
    1   AR   Ar   60   0.463   5.885   3.178
    1   AR   Ar   61   0.635   4.694   6.846
    1   AR   Ar   62   6.298   4.344   4.468
    1   AR   Ar   63   1.527   1.365   6.256
    1   AR   Ar   64   1.251   5.445   5.256
    1   AR   Ar   65   4.157   0.044   1.222
    1   AR   Ar   66   0.379   1.333   0.993
    1   AR   Ar   67   4.356   0.090  -0.367
    1   AR   Ar   68   1.277   1.495  -1.033
    1   AR   Ar   69   2.765   1.904  -0.107
    1   AR   Ar   70   0.598   0.596   1.790
    1   AR   Ar   71   2.845   1.328   3.340
    1   AR   Ar   72   4.122   6.773   2.301
    1   AR   Ar   73   4.067   0.268   3.196
    1   AR   Ar   74   1.261   0.929   4.486
    1   AR   Ar   75   3.406   0.438   5.073
    1   AR   Ar   76   1.616   0.334   1.340
    1   AR   Ar   77   1.921   6.229   5.129
    1   AR   Ar   78   0.582   6.257   6.157
    1   AR   Ar   79   3.990   6.014   6.093
    1   AR   Ar   80   3.868   5.324   5.316
    1   AR   Ar   81   2.470   6.079  -0.001
    1   AR   Ar   82   6.635   5.114   0.155
    1   AR   Ar   83   1.772   2.165   0.336
    1   AR   Ar   84   0.471   3.930   1.311
    1   AR   Ar   85   1.441   3.033   0.780
    1   AR   Ar   86   2.269   5.391   0.987
    1   AR   Ar   87   2.220   2.697   1.552
    1   AR   Ar   88   3.017   5.032   1.633
    1   AR   Ar   89   0.117   2.829   2.237
    1   AR   Ar   90   2.943   1.615   4.633
    1   AR   Ar   91   1.336   2.187   3.530
    1   AR   Ar   92   1.300   3.009   2.154
    1   AR   Ar   93   0.784   0.913   5.542
    1   AR   Ar   94   0.245   6.516  10.791
    1   AR   Ar   95   4.685   0.237   5.134
    1   AR   Ar   96   2.857   6.642   4.547
    1   AR   Ar   97   3.673   2.194  -0.351
    1   AR   Ar   98   1.437   4.654   3.254
    1   AR   Ar   99   6.873   1.331   0.254
    1   AR   Ar  100   1.083   2.710  -0.794
    1   AR   Ar  101   3.644   5.844   2.217
    1   AR   Ar  102   3.884   1.701   2.616
    1   AR   Ar  103   1.361   4.504   0.786
    1   AR   Ar  104   3.326   4.203  -1.048
    1   AR   Ar  105   2.282   2.370   4.076
    1   AR   Ar  106   3.945   3.080   5.588
    1   AR   Ar  107   0.460   4.032   4.650
    1   AR   Ar  108   2.209   0.964   5.274
    1   AR   Ar  109   1.714   3.134   4.573
    1   AR   Ar  110   2.805   2.428   5.342
    1   AR   Ar  111   5.335   5.410   6.724
    1   AR   Ar  112   1.266   5.337   6.365
    1   AR   Ar  113   3.575   4.645  -0.011
    1   AR   Ar  114   2.510   0.583  -1.021
    1   AR   Ar  115   2.054   4.953  -0.430
    1   AR   Ar  116   6.242   0.364  -0.348
    1   AR   Ar  117   1.174   4.767   4.353
    1   AR   Ar  118   1.514   5.623   3.054
    1   AR   Ar  119   2.421   4.148   2.510
    1   AR   Ar  120   1.996   6.141   1.589
    1   AR   Ar  121   5.450   3.837   5.052
    1   AR   Ar  122   3.092   6.248   5.503
    1   AR   Ar  123   2.950   4.038   5.259
    1   AR   Ar  124   1.618   5.392   2.023
    1   AR   Ar  125   0.112   3.228   5.216
    1   AR   Ar  126   7.079   6.052   4.865
    1   AR   Ar  127   4.659   3.925   6.229
    1   AR   Ar  128   3.253   3.894   6.607
    1   AR   Ar  129   1.819   6.065   4.050
    1   AR   Ar  130   4.899   2.404  -3.476
    1   AR   Ar  131   3.807   3.214  -1.180
    1   AR   Ar  132   0.765   1.545  -0.030
    1   AR   Ar  133   4.360   6.310   3.206
    1   AR   Ar  134   4.225   1.238   4.627
    1   AR   Ar  135   6.111   0.983   2.868
    1   AR   Ar  136   6.474   6.645   2.538
    1   AR   Ar  137   2.230   4.061   4.439
    1   AR   Ar  138   5.185   0.891   6.336
    1   AR   Ar  139   6.042   2.269   5.377
    1   AR   Ar  140   3.876   0.016   4.319
    1   AR   Ar  141   3.883   5.067   4.094
    1   AR   Ar  142   3.693   6.938   6.012
    1   AR   Ar  143   6.350   6.647   6.346
    1   AR   Ar  144   6.775   1.539   5.084
    1   AR   Ar  145   4.723   4.950  -0.819
    1   AR   Ar  146   3.012   2.493   2.205
    1   AR   Ar  147   4.991   2.377  -1.011
    1   AR   Ar  148   3.169   6.763  -1.038
    1   AR   Ar  149   2.416   1.578  -0.984
    1   AR   Ar  150   2.036   1.777   2.661
    1   AR   Ar  151   2.641   2.596   3.175
    1   AR   Ar  152   1.949   2.365  -1.410
    1   AR   Ar  153   4.966   0.508   4.252
    1   AR   Ar  154   3.698   1.638   3.831
    1   AR   Ar  155   7.033   4.275   5.766
    1   AR   Ar  156   2.724   4.288   3.630
    1   AR   Ar  157   1.109   4.469   5.473
    1   AR   Ar  158   0.358   1.525   6.291
    1   AR   Ar  159   3.864   0.739   7.239
    1   AR   Ar  160   1.500   1.989   4.562
    1   AR   Ar  161   4.988   4.460   2.316
    1   AR   Ar  162   4.807   6.000  -0.472
    1   AR   Ar  163   5.932   4.201  -0.384
    1   AR   Ar  164   2.533   5.669   2.374
    1   AR   Ar  165   4.724   2.259   0.214
    1   AR   Ar  166   3.166   3.286   4.275
    1   AR   Ar  167   5.001   0.170   2.747
    1   AR   Ar  168   5.570   4.316  -1.602
    1   AR   Ar  169   3.583   4.264   2.547
    1   AR   Ar  170   2.122   3.312   5.471
    1   AR   Ar  171   5.392   3.830   3.991
    1   AR   Ar  172   4.095   4.146   5.139
    1   AR   Ar  173   2.380   3.087   6.778
    1   AR   Ar  174   2.142   6.059   6.197
    1   AR   Ar  175   3.686   1.760   5.296
    1   AR   Ar  176   4.202   2.412   4.497
    1   AR   Ar  177   0.757   5.521  -0.921
    1   AR   Ar  178   3.447   5.697  -0.554
    1   AR   Ar  179   3.344   6.636   0.100
    1   AR   Ar  180   3.762   0.758  -3.912
    1   AR   Ar  181   0.249   5.521   1.769
    1   AR   Ar  182   1.903   6.525   2.627
    1   AR   Ar  183   4.376   5.195   2.017
    1   AR   Ar  184   5.048   7.070   0.544
    1   AR   Ar  185   3.039   4.937   4.569
    1   AR   Ar  186   2.781   5.255   3.483
    1   AR   Ar  187   3.054   6.552   3.295
    1   AR   Ar  188   2.784   6.737   2.031
    1   AR   Ar  189   5.006   2.880   6.525
    1   AR   Ar  190   3.750   6.042   3.948
    1   AR   Ar  191   2.544   6.269   7.637
    1   AR   Ar  192   4.008   6.443   5.107
    1   AR   Ar  193   3.103   6.143   1.187
    1   AR   Ar  194   4.805   3.897  -0.734
    1   AR   Ar  195   5.552   1.346   0.368
    1   AR   Ar  196   4.344   1.295  -0.377
    1   AR   Ar  197   3.425   1.376   0.589
    1   AR   Ar  198   6.530   1.145   1.306
    1   AR   Ar  199   3.034   0.342   2.747
    1   AR   Ar  200   6.016   2.834  -0.207
    1   AR   Ar  201   6.042   6.212   3.450
    1   AR   Ar  202   5.580   1.268   4.783
    1   AR   Ar  203   0.057   6.952   3.181
    1   AR   Ar  204   5.475   6.334   5.641
    1   AR   Ar  205   6.900   6.460   1.522
    1   AR   Ar  206   5.862   0.127   5.433
    1   AR   Ar  207   0.485   2.107   5.109
    1   AR   Ar  208   0.896   6.017   4.420
    1   AR   Ar  209   0.007   2.543  -2.001
    1   AR   Ar  210   2.381   6.926   0.757
    1   AR   Ar  211   0.122   3.584   0.390
    1   AR   Ar  212   6.505   3.484  -0.881
    1   AR   Ar  213   2.486   0.750   1.894
    1   AR   Ar  214   4.664   3.344   1.846
    1   AR   Ar  215   5.672   3.311   1.943
    1   AR   Ar  216   0.602   2.458   1.315
    1   AR   Ar  217   5.431   2.772   3.780
    1   AR   Ar  218   4.754   3.174   4.890
    1   AR   Ar  219   4.226   2.985   3.605
    1   AR   Ar  220   3.880   2.790   0.911
    1   AR   Ar  221   6.522   5.388   4.051
    1   AR   Ar  222   4.976   6.933   6.409
    1   AR   Ar  223   6.117   1.653   6.735
    1   AR   Ar  224   4.876   2.307   5.585
    1   AR   Ar  225   6.314   2.917   3.379
    1   AR   Ar  226   1.719   3.245   3.615
    1   AR   Ar  227   6.681   3.656   1.702
    1   AR   Ar  228   5.465   6.783   1.496
    1   AR   Ar  229   5.235   5.420  -1.728
    1   AR   Ar  230   3.789   4.104   3.617
    1   AR   Ar  231   5.212   1.386   3.577
    1   AR   Ar  232   5.292   2.441   1.585
    1   AR   Ar  233   6.369   2.162   4.294
    1   AR   Ar  234   5.943   3.029   4.678
    1   AR   Ar  235   6.653   1.081   3.870
    1   AR   Ar  236   4.838   4.900   5.526
    1   AR   Ar  237   6.011   2.714   6.419
    1   AR   Ar  238   5.963   4.176   6.347
    1   AR   Ar  239   6.837   4.736   9.272
    1   AR   Ar  240   6.815   2.679   7.286
    1   AR   Ar  241   2.031   6.711  -0.652
    1   AR   Ar  242   5.505   5.822   0.562
    1   AR   Ar  243   4.843   5.284   3.201
    1   AR   Ar  244   0.826   5.601   0.373
    1   AR   Ar  245   3.674   1.085   1.648
    1   AR   Ar  246   5.612   6.690  -0.209
    1   AR   Ar  247   5.800   3.913   0.898
    1   AR   Ar  248   5.979   5.712  -0.430
    1   AR   Ar  249   4.540   5.987   1.129
    1   AR   Ar  250   4.802   5.917   4.333
    1   AR   Ar  251   4.738   4.534   4.358
    1   AR   Ar  252   3.806   5.149   3.030
    1   AR   Ar  253   6.824   3.417   6.529
    1   AR   Ar  254   2.497   2.524   8.986
    1   AR   Ar  255   3.917   4.938   9.528
    1   AR   Ar  256   5.783   4.817   3.446
    7.12000  7.12000 12.00000
Argon-slab step 3865
  256
    1   AR   Ar    1   4.929   1.962  -2.456
    1   AR   Ar    2   6.178   0.150   0.702
    1   AR   Ar    3   3.868   2.058  -1.704
    1   AR   Ar    4   1.688   0.821  -0.218
    1   AR   Ar    5   6.475   6.301   0.584
    1   AR   Ar    6   0.280   1.492   2.444
    1   AR   Ar    7   5.653   3.610   3.001
    1   AR   Ar    8   4.480   1.010   0.763
    1   AR   Ar    9   1.170   0.098   3.293
    1   AR   Ar   10   0.471   7.021   4.170
    1   AR   Ar   11   1.848   7.030   4.460
    1   AR   Ar   12   0.811   1.047   3.559
    1   AR   Ar   13   0.097   0.524   4.991
    1   AR   Ar   14   4.699   1.735   7.895
    1   AR   Ar   15   3.605   6.234   8.128
    1   AR   Ar   16   0.982   7.035   5.191
    1   AR   Ar   17   6.695   2.318   0.793
    1   AR   Ar   18   6.231   4.937  -1.109
    1   AR   Ar   19   3.677   3.225  -0.012
    1   AR   Ar   20   6.200   4.014  -2.782
    1   AR   Ar   21   2.756   1.844   1.479
    1   AR   Ar   22   6.598   1.938   3.222
    1   AR   Ar   23   0.730   0.284   0.761
    1   AR   Ar   24   6.255   2.239   2.045
    1   AR   Ar   25   0.391   1.785   4.104
    1   AR   Ar   26   6.557   0.054   3.849
    1   AR   Ar   27   1.588   0.777   2.508
    1   AR   Ar   28   0.784   2.855   4.216
    1   AR   Ar   29   5.453   2.362   7.506
    1   AR   Ar   30   1.896   0.833   3.576
    1   AR   Ar   31   3.219   0.101   7.899
    1   AR   Ar   32   0.738   2.668   7.048
    1   AR   Ar   33   0.405   4.533   0.093
    1   AR   Ar   34   0.687   4.780   2.362
    1   AR   Ar   35   6.095   5.569   1.349
    1   AR   Ar   36   5.918   2.374  -2.948
    1   AR   Ar   37   5.015   2.549   2.748
    1   AR   Ar   38   6.714   4.040   3.243
    1   AR   Ar   39   0.621   3.698   3.039
    1   AR   Ar   40   1.692   3.965   1.778
    1   AR   Ar   41   0.359   2.679   3.301
    1   AR   Ar   42   5.840   5.342   4.860
    1   AR   Ar   43   6.863   2.541   5.874
    1   AR   Ar   44   0.363   4.517   3.654
    1   AR   Ar   45   0.870   3.225   6.044
    1   AR   Ar   46   7.057   4.960   4.883
    1   AR   Ar   47   5.098   4.260   7.202
    1   AR   Ar   48   6.240   3.723   7.266
    1   AR   Ar   49   5.052   0.167  -1.105
    1   AR   Ar   50   4.380   5.228   0.295
    1   AR   Ar   51   6.351   4.607   1.385
    1   AR   Ar   52   5.968   3.246  -2.169
    1   AR   Ar   53   5.321   6.172   2.623
    1   AR   Ar   54   0.709   6.491   2.295
    1   AR   Ar   55   6.435   5.416   2.508
    1   AR   Ar   56   6.694   0.636   2.202
    1   AR   Ar   57   4.582   3.873   3.020
    1   AR   Ar   58   6.838   3.584   4.114
    1   AR   Ar   59   1.989   4.943   5.669
    1   AR   Ar   60   0.469   5.903   3.187
    1   AR   Ar   61   0.638   4.683   6.839
    1   AR   Ar   62   6.341   4.391   4.439
    1   AR   Ar   63   1.563   1.371   6.251
    1   AR   Ar   64   1.244   5.449   5.234
    1   AR   Ar   65   4.159   0.047   1.226
    1   AR   Ar   66   0.334   1.323   0.971
    1   AR   Ar   67   4.336   0.086  -0.376
    1   AR   Ar   68   1.247   1.519  -1.059
    1   AR   Ar   69   2.766   1.887  -0.128
    1   AR   Ar   70   0.601   0.610   1.801
    1   AR   Ar   71   2.840   1.327   3.357
    1   AR   Ar   72   4.136   6.792   2.337
    1   AR   Ar   73   4.041   0.297   3.171
    1   AR   Ar   74   1.279   0.953   4.487
    1   AR   Ar   75   3.406   0.430   5.079
    1   AR   Ar   76   1.610   0.323   1.354
    1   AR   Ar   77   1.899   6.249   5.124
    1   AR   Ar   78   0.572   6.252   6.136
    1   AR   Ar   79   3.950   6.010   6.056
    1   AR   Ar   80   3.859   5.338   5.322
    1   AR   Ar   81   2.465   6.046  -0.004
    1   AR   Ar   82   6.628   5.131   0.121
    1   AR   Ar   83   1.755   2.146   0.333
    1   AR   Ar   84   0.448   3.909   1.317
    1   AR   Ar   85   1.449   3.063   0.758
    1   AR   Ar   86   2.252   5.356   0.969
    1   AR   Ar   87   2.250   2.693   1.568
    1   AR   Ar   88   3.046   5.044   1.633
    1   AR   Ar   89   0.126   2.822   2.211
    1   AR   Ar   90   2.942   1.596   4.614
    1   AR   Ar   91   1.326   2.171   3.539
    1   AR   Ar   92   1.248   3.001   2.159
    1   AR   Ar   93   0.795   0.928   5.531
    1   AR   Ar   94   0.256   6.499  10.793
    1   AR   Ar   95   4.692   0.243   5.151
    1   AR   Ar   96   2.853   6.658   4.542
    1   AR   Ar   97   3.638   2.206  -0.349
    1   AR   Ar   98   1.442   4.656   3.267
    1   AR   Ar   99   6.895   1.302   0.220
    1   AR   Ar  100   1.054   2.715  -0.794
    1   AR   Ar  101   3.651   5.882   2.227
    1   AR   Ar  102   3.883   1.707   2.605
    1   AR   Ar  103   1.388   4.496   0.772
    1   AR   Ar  104   3.331   4.231  -1.066
    1   AR   Ar  105   2.300   2.366   4.104
    1   AR   Ar  106   3.997   3.096   5.558
    1   AR   Ar  107   0.490   4.011   4.663
    1   AR   Ar  108   2.166   0.994   5.300
    1   AR   Ar  109   1.724   3.134   4.571
    1   AR   Ar  110   2.825   2.428   5.329
    1   AR   Ar  111   5.328   5.439   6.696
    1   AR   Ar  112   1.268   5.338   6.384
    1   AR   Ar  113   3.573   4.652  -0.015
    1   AR   Ar  114   2.483   0.538  -1.025
    1   AR   Ar  115   2.006   4.942  -0.439
    1   AR   Ar  116   6.230   0.362  -0.345
    1   AR   Ar  117   1.173   4.751   4.377
    1   AR   Ar  118   1.500   5.581   3.094
    1   AR   Ar  119   2.424   4.161   2.506
    1   AR   Ar  120   1.998   6.139   1.595
    1   AR   Ar  121   5.477   3.833   5.077
    1   AR   Ar  122   3.054   6.232   5.476
    1   AR   Ar  123   2.943   4.036   5.260
    1   AR   Ar  124   1.568   5.356   2.014
    1   AR   Ar  125   0.104   3.214   5.217
    1   AR   Ar  126   0.005   6.062   4.887
    1   AR   Ar  127   4.635   3.908   6.224
    1   AR   Ar  128   3.243   3.884   6.615
    1   AR   Ar  129   1.787   6.078   4.036
    1   AR   Ar  130   4.886   2.357  -3.509
    1   AR   Ar  131   3.827   3.234  -1.218
    1   AR   Ar  132   0.794   1.522   0.004
    1   AR   Ar  133   4.352   6.310   3.214
    1   AR   Ar  134   4.238   1.237   4.632
    1   AR   Ar  135   6.109   1.010   2.880
    1   AR   Ar  136   6.486   6.631   2.523
    1   AR   Ar  137   2.227   4.048   4.492
    1   AR   Ar  138   5.199   0.875   6.336
    1   AR   Ar  139   6.068   2.292   5.387
    1   AR   Ar  140   3.865   0.013   4.338
    1   AR   Ar  141   3.906   5.063   4.099
    1   AR   Ar  142   3.719   6.970   5.973
    1   AR   Ar  143   6.316   6.657   6.362
    1   AR   Ar  144   6.750   1.545   5.071
    1   AR   Ar  145   4.709   4.944  -0.826
    1   AR   Ar  146   3.007   2.465   2.225
    1   AR   Ar  147   4.997   2.367  -0.995
    1   AR   Ar  148   3.154   6.757  -1.040
    1   AR   Ar  149   2.412   1.538  -0.979
    1   AR   Ar  150   2.017   1.776   2.672
    1   AR   Ar  151   2.660   2.603   3.172
    1   AR   Ar  152   1.927   2.364  -1.421
    1   AR   Ar  153   4.981   0.495   4.264
    1   AR   Ar  154   3.706   1.607   3.852
    1   AR   Ar  155   7.014   4.237   5.761
    1   AR   Ar  156   2.740   4.281   3.633
    1   AR   Ar  157   1.107   4.474   5.473
    1   AR   Ar  158   0.339   1.520   6.266
    1   AR   Ar  159   3.823   0.724   7.201
    1   AR   Ar  160   1.494   1.976   4.567
    1   AR   Ar  161   5.021   4.459   2.308
    1   AR   Ar  162   4.834   5.983  -0.471
    1   AR   Ar  163   5.895   4.194  -0.382
    1   AR   Ar  164   2.537   5.681   2.383
    1   AR   Ar  165   4.682   2.244   0.192
    1   AR   Ar  166   3.154   3.304   4.272
    1   AR   Ar  167   4.982   0.133   2.764
    1   AR   Ar  168   5.587   4.308  -1.618
    1   AR   Ar  169   3.609   4.258   2.561
    1   AR   Ar  170   2.122   3.349   5.515
    1   AR   Ar  171   5.412   3.807   3.949
    1   AR   Ar  172   4.118   4.138   5.121
    1   AR   Ar  173   2.394   3.112   6.755
    1   AR   Ar  174   2.168   6.064   6.222
    1   AR   Ar  175   3.674   1.761   5.311
    1   AR   Ar  176   4.195   2.419   4.508
    1   AR   Ar  177   0.771   5.549  -0.920
    1   AR   Ar  178   3.445   5.714  -0.538
    1   AR   Ar  179   3.331   6.642   0.108
    1   AR   Ar  180   3.794   0.739  -3.922
    1   AR   Ar  181   0.235   5.508   1.793
    1   AR   Ar  182   1.910   6.522   2.626
    1   AR   Ar  183   4.382   5.203   1.986
    1   AR   Ar  184   5.022   7.092   0.546
    1   AR   Ar  185   3.002   4.925   4.567
    1   AR   Ar  186   2.760   5.274   3.500
    1   AR   Ar  187   3.072   6.555   3.296
    1   AR   Ar  188   2.793   6.762   2.018
    1   AR   Ar  189   5.008   2.886   6.548
    1   AR   Ar  190   3.775   6.053   3.954
    1   AR   Ar  191   2.550   6.284   7.634
    1   AR   Ar  192   3.996   6.431   5.100
    1   AR   Ar  193   3.106   6.162   1.180
    1   AR   Ar  194   4.786   3.916  -0.730
    1   AR   Ar  195   5.570   1.337   0.365
    1   AR   Ar  196   4.331   1.300  -0.398
    1   AR   Ar  197   3.408   1.371   0.587
    1   AR   Ar  198   6.515   1.171   1.307
    1   AR   Ar  199   3.014   0.374   2.759
    1   AR   Ar  200   6.018   2.804  -0.209
    1   AR   Ar  201   6.025   6.192   3.431
    1   AR   Ar  202   5.583   1.281   4.796
    1   AR   Ar  203   0.085   6.913   3.203
    1   AR   Ar  204   5.476   6.311   5.640
    1   AR   Ar  205   6.913   6.481   1.516
    1   AR   Ar  206   5.868   0.116   5.434
    1   AR   Ar  207   0.477   2.109   5.092
    1   AR   Ar  208   0.903   6.030   4.418
    1   AR   Ar  209   0.017   2.562  -2.002
    1   AR   Ar  210   2.370   6.891   0.746
    1   AR   Ar  211   0.130   3.604   0.412
    1   AR   Ar  212   6.517   3.499  -0.879
    1   AR   Ar  213   2.455   0.757   1.890
    1   AR   Ar  214   4.651   3.326   1.820
    1   AR   Ar  215   5.670   3.320   1.953
    1   AR   Ar  216   0.626   2.445   1.320
    1   AR   Ar  217   5.394   2.767   3.790
    1   AR   Ar  218   4.720   3.171   4.857
    1   AR   Ar  219   4.243   3.005   3.593
    1   AR   Ar  220   3.905   2.808   0.934
    1   AR   Ar  221   6.519   5.356   4.031
    1   AR   Ar  222   4.978   6.925   6.423
    1   AR   Ar  223   6.131   1.618   6.727
    1   AR   Ar  224   4.895   2.309   5.643
    1   AR   Ar  225   6.324   2.931   3.354
    1   AR   Ar  226   1.707   3.231   3.569
    1   AR   Ar  227   6.670   3.685   1.699
    1   AR   Ar  228   5.458   6.772   1.511
    1   AR   Ar  229   5.235   5.429  -1.722
    1   AR   Ar  230   3.764   4.082   3.633
    1   AR   Ar  231   5.183   1.406   3.559
    1   AR   Ar  232   5.308   2.477   1.617
    1   AR   Ar  233   6.392   2.147   4.280
    1   AR   Ar  234   5.942   2.990   4.674
    1   AR   Ar  235   6.666   1.082   3.872
    1   AR   Ar  236   4.828   4.907   5.541
    1   AR   Ar  237   6.012   2.699   6.427
    1   AR   Ar  238   5.937   4.229   6.383
    1   AR   Ar  239   6.838   4.757   9.303
    1   AR   Ar  240   6.825   2.675   7.303
    1   AR   Ar  241   2.057   6.700  -0.698
    1   AR   Ar  242   5.492   5.811   0.613
    1   AR   Ar  243   4.807   5.291   3.182
    1   AR   Ar  244   0.862   5.578   0.387
    1   AR   Ar  245   3.673   1.085   1.653
    1   AR   Ar  246   5.609   6.691  -0.231
    1   AR   Ar  247   5.781   3.899   0.909
    1   AR   Ar  248   5.980   5.685  -0.444
    1   AR   Ar  249   4.533   5.948   1.124
    1   AR   Ar  250   4.794   5.903   4.257
    1   AR   Ar  251   4.744   4.527   4.350
    1   AR   Ar  252   3.786   5.106   3.059
    1   AR   Ar  253   6.806   3.428   6.514
    1   AR   Ar  254   2.524   2.505   9.003
    1   AR   Ar  255   3.936   4.972   9.543
    1   AR   Ar  256   5.765   4.809   3.454
    7.12000  7.12000 12.00000
Argon-slab step 3870
  256
    1   AR   Ar    1   4.917   1.981  -2.448
    1   AR   Ar    2   6.202   0.133   0.701
    1   AR   Ar    3   3.862   2.057  -1.706
    1   AR   Ar    4   1.687   0.836  -0.206
    1   AR   Ar    5   6.494   6.312   0.606
    1   AR   Ar    6   0.315   1.483   2.454
    1   AR   Ar    7   5.661   3.602   3.008
    1   AR   Ar    8   4.488   0.979   0.742
    1   AR   Ar    9   1.141   0.079   3.270
    1   AR   Ar   10   0.475   7.017   4.172
    1   AR   Ar   11   1.858   7.046   4.450
    1   AR   Ar   12   0.803   1.045   3.541
    1   AR   Ar   13   0.080   0.522   4.997
    1   AR   Ar   14   4.673   1.702   7.866
    1   AR   Ar   15   3.576   6.240   8.153
    1   AR   Ar   16   0.969   7.030   5.215
    1   AR   Ar   17   6.655   2.316   0.781
    1   AR   Ar   18   6.239   4.920  -1.120
    1   AR   Ar   19   3.663   3.230  -0.002
    1   AR   Ar   20   6.211   4.029  -2.771
    1   AR   Ar   21   2.763   1.845   1.481
    1   AR   Ar   22   6.573   1.938   3.225
    1   AR   Ar   23   0.736   0.274   0.719
    1   AR   Ar   24   6.254   2.266   2.045
    1   AR   Ar   25   0.394   1.785   4.110
    1   AR   Ar   26   6.569   0.075   3.862
    1   AR   Ar   27   1.591   0.834   2.483
    1   AR   Ar   28   0.820   2.887   4.184
    1   AR   Ar   29   5.473   2.322   7.531
    1   AR   Ar   30   1.913   0.841   3.568
    1   AR   Ar   31   3.176   0.067   7.910
    1   AR   Ar   32   0.763   2.654   7.031
    1   AR   Ar   33   0.400   4.574   0.047
    1   AR   Ar   34   0.726   4.770   2.349
    1   AR   Ar   35   6.116   5.566   1.336
    1   AR   Ar   36   5.917   2.396  -2.941
    1   AR   Ar   37   4.967   2.507   2.719
    1   AR   Ar   38   6.695   4.045   3.243
    1   AR   Ar   39   0.659   3.695   3.055
    1   AR   Ar   40   1.652   3.946   1.770
    1   AR   Ar   41   0.366   2.709   3.318
    1   AR   Ar   42   5.801   5.295   4.844
    1   AR   Ar   43   6.827   2.562   5.914
    1   AR   Ar   44   0.370   4.553   3.673
    1   AR   Ar   45   0.864   3.238   6.071
    1   AR   Ar   46   7.058   4.957   4.912
    1   AR   Ar   47   5.105   4.262   7.160
    1   AR   Ar   48   6.206   3.770   7.229
    1   AR   Ar   49   5.052   0.162  -1.125
    1   AR   Ar   50   4.384   5.215   0.289
    1   AR   Ar   51   6.365   4.611   1.399
    1   AR   Ar   52   5.975   3.251  -2.160
    1   AR   Ar   53   5.296   6.214   2.621
    1   AR   Ar   54   0.690   6.458   2.271
    1   AR   Ar   55   6.417   5.410   2.495
    1   AR   Ar   56   6.701   0.619   2.206
    1   AR   Ar   57   4.599   3.919   3.037
    1   AR   Ar   58   6.824   3.560   4.122
    1   AR   Ar   59   2.024   4.958   5.669
    1   AR   Ar   60   0.474   5.918   3.198
    1   AR   Ar   61   0.627   4.686   6.839
    1   AR   Ar   62   6.373   4.437   4.411
    1   AR   Ar   63   1.587   1.379   6.247
    1   AR   Ar   64   1.229   5.461   5.209
    1   AR   Ar   65   4.159   0.066   1.238
    1   AR   Ar   66   0.311   1.315   0.971
    1   AR   Ar   67   4.324   0.083  -0.397
    1   AR   Ar   68   1.218   1.543  -1.084
    1   AR   Ar   69   2.743   1.854  -0.125
    1   AR   Ar   70   0.605   0.623   1.813
    1   AR   Ar   71   2.837   1.311   3.366
    1   AR   Ar   72   4.147   6.813   2.364
    1   AR   Ar   73   4.011   0.328   3.153
    1   AR   Ar   74   1.296   0.972   4.492
    1   AR   Ar   75   3.399   0.429   5.097
    1   AR   Ar   76   1.606   0.312   1.370
    1   AR   Ar   77   1.880   6.268   5.123
    1   AR   Ar   78   0.562   6.247   6.114
    1   AR   Ar   79   3.916   5.999   6.030
    1   AR   Ar   80   3.847   5.346   5.318
    1   AR   Ar   81   2.460   6.007  -0.002
    1   AR   Ar   82   6.622   5.146   0.090
    1   AR   Ar   83   1.738   2.124   0.327
    1   AR   Ar   84   0.436   3.894   1.327
    1   AR   Ar   85   1.455   3.096   0.738
    1   AR   Ar   86   2.235   5.318   0.948
    1   AR   Ar   87   2.269   2.699   1.581
    1   AR   Ar   88   3.077   5.056   1.635
    1   AR   Ar   89   0.133   2.814   2.186
    1   AR   Ar   90   2.936   1.574   4.591
    1   AR   Ar   91   1.317   2.153   3.545
    1   AR   Ar   92   1.195   2.993   2.164
    1   AR   Ar   93   0.788   0.950   5.533
    1   AR   Ar   94   0.272   6.463  10.800
    1   AR   Ar   95   4.694   0.245   5.185
    1   AR   Ar   96   2.852   6.673   4.533
    1   AR   Ar   97   3.622   2.223  -0.352
    1   AR   Ar   98   1.445   4.633   3.283
    1   AR   Ar   99   6.898   1.271   0.165
    1   AR   Ar  100   1.025   2.718  -0.792
    1   AR   Ar  101   3.652   5.920   2.238
    1   AR   Ar  102   3.880   1.713   2.596
    1   AR   Ar  103   1.414   4.489   0.759
    1   AR   Ar  104   3.337   4.259  -1.082
    1   AR   Ar  105   2.330   2.369   4.139
    1   AR   Ar  106   4.043   3.110   5.533
    1   AR   Ar  107   0.521   3.992   4.676
    1   AR   Ar  108   2.123   1.024   5.323
    1   AR   Ar  109   1.734   3.131   4.576
    1   AR   Ar  110   2.843   2.432   5.314
    1   AR   Ar  111   5.328   5.462   6.676
    1   AR   Ar  112   1.274   5.344   6.399
    1   AR   Ar  113   3.568   4.658  -0.022
    1   AR   Ar  114   2.457   0.486  -1.029
    1   AR   Ar  115   1.958   4.932  -0.447
    1   AR   Ar  116   6.222   0.367  -0.344
    1   AR   Ar  117   1.174   4.737   4.400
    1   AR   Ar  118   1.488   5.563   3.129
    1   AR   Ar  119   2.430   4.175   2.505
    1   AR   Ar  120   2.002   6.151   1.595
    1   AR   Ar  121   5.445   3.836   5.083
    1   AR   Ar  122   3.019   6.209   5.450
    1   AR   Ar  123   2.939   4.033   5.264
    1   AR   Ar  124   1.513   5.309   2.008
    1   AR   Ar  125   0.098   3.204   5.213
    1   AR   Ar  126   7.094   6.053   4.890
    1   AR   Ar  127   4.611   3.891   6.217
    1   AR   Ar  128   3.233   3.874   6.623
    1   AR   Ar  129   1.772   6.087   4.013
    1   AR   Ar  130   4.874   2.310  -3.541
    1   AR   Ar  131   3.848   3.252  -1.255
    1   AR   Ar  132   0.827   1.501   0.036
    1   AR   Ar  133   4.354   6.312   3.216
    1   AR   Ar  134   4.258   1.230   4.640
    1   AR   Ar  135   6.097   1.042   2.904
    1   AR   Ar  136   6.494   6.615   2.506
    1   AR   Ar  137   2.220   4.037   4.546
    1   AR   Ar  138   5.213   0.861   6.334
    1   AR   Ar  139   6.062   2.302   5.417
    1   AR   Ar  140   3.864   0.005   4.340
    1   AR   Ar  141   3.932   5.055   4.106
    1   AR   Ar  142   3.744   7.015   5.934
    1   AR   Ar  143   6.281   6.668   6.376
    1   AR   Ar  144   6.723   1.545   5.059
    1   AR   Ar  145   4.695   4.942  -0.834
    1   AR   Ar  146   3.011   2.439   2.249
    1   AR   Ar  147   5.002   2.358  -0.977
    1   AR   Ar  148   3.140   6.749  -1.040
    1   AR   Ar  149   2.404   1.500  -0.982
    1   AR   Ar  150   2.010   1.771   2.682
    1   AR   Ar  151   2.679   2.611   3.172
    1   AR   Ar  152   1.903   2.364  -1.432
    1   AR   Ar  153   5.001   0.485   4.259
    1   AR   Ar  154   3.708   1.602   3.869
    1   AR   Ar  155   6.996   4.198   5.755
    1   AR   Ar  156   2.756   4.267   3.631
    1   AR   Ar  157   1.096   4.468   5.474
    1   AR   Ar  158   0.318   1.520   6.241
    1   AR   Ar  159   3.782   0.709   7.162
    1   AR   Ar  160   1.482   1.963   4.578
    1   AR   Ar  161   5.060   4.456   2.299
    1   AR   Ar  162   4.860   5.965  -0.469
    1   AR   Ar  163   5.856   4.188  -0.378
    1   AR   Ar  164   2.545   5.692   2.396
    1   AR   Ar  165   4.639   2.229   0.170
    1   AR   Ar  166   3.142   3.322   4.269
    1   AR   Ar  167   4.969   0.095   2.781
    1   AR   Ar  168   5.602   4.297  -1.635
    1   AR   Ar  169   3.633   4.245   2.570
    1   AR   Ar  170   2.126   3.348   5.508
    1   AR   Ar  171   5.433   3.787   3.917
    1   AR   Ar  172   4.139   4.130   5.105
    1   AR   Ar  173   2.384   3.107   6.716
    1   AR   Ar  174   2.193   6.069   6.245
    1   AR   Ar  175   3.664   1.766   5.333
    1   AR   Ar  176   4.180   2.415   4.516
    1   AR   Ar  177   0.780   5.567  -0.916
    1   AR   Ar  178   3.443   5.731  -0.521
    1   AR   Ar  179   3.318   6.641   0.118
    1   AR   Ar  180   3.826   0.720  -3.931
    1   AR   Ar  181   0.217   5.498   1.814
    1   AR   Ar  182   1.886   6.480   2.618
    1   AR   Ar  183   4.408   5.215   1.981
    1   AR   Ar  184   4.995   7.116   0.548
    1   AR   Ar  185   2.960   4.912   4.567
    1   AR   Ar  186   2.740   5.303   3.515
    1   AR   Ar  187   3.091   6.556   3.297
    1   AR   Ar  188   2.804   6.786   2.005
    1   AR   Ar  189   5.005   2.894   6.573
    1   AR   Ar  190   3.788   6.067   3.972
    1   AR   Ar  191   2.557   6.299   7.632
    1   AR   Ar  192   3.988   6.418   5.086
    1   AR   Ar  193   3.108   6.146   1.157
    1   AR   Ar  194   4.766   3.931  -0.726
    1   AR   Ar  195   5.588   1.327   0.364
    1   AR   Ar  196   4.318   1.305  -0.417
    1   AR   Ar  197   3.392   1.368   0.585
    1   AR   Ar  198   6.492   1.198   1.307
    1   AR   Ar  199   2.994   0.409   2.773
    1   AR   Ar  200   6.013   2.784  -0.210
    1   AR   Ar  201   6.009   6.171   3.414
    1   AR   Ar  202   5.586   1.295   4.809
    1   AR   Ar  203   0.129   6.871   3.209
    1   AR   Ar  204   5.474   6.283   5.639
    1   AR   Ar  205   6.927   6.503   1.514
    1   AR   Ar  206   5.876   0.112   5.434
    1   AR   Ar  207   0.494   2.105   5.093
    1   AR   Ar  208   0.899   6.043   4.417
    1   AR   Ar  209   7.116   2.574  -2.005
    1   AR   Ar  210   2.359   6.854   0.736
    1   AR   Ar  211   0.119   3.591   0.421
    1   AR   Ar  212   6.531   3.514  -0.879
    1   AR   Ar  213   2.458   0.748   1.907
    1   AR   Ar  214   4.617   3.328   1.816
    1   AR   Ar  215   5.678   3.339   1.969
    1   AR   Ar  216   0.650   2.431   1.323
    1   AR   Ar  217   5.351   2.758   3.801
    1   AR   Ar  218   4.696   3.176   4.820
    1   AR   Ar  219   4.261   3.025   3.581
    1   AR   Ar  220   3.930   2.824   0.959
    1   AR   Ar  221   6.518   5.328   4.007
    1   AR   Ar  222   4.979   6.915   6.436
    1   AR   Ar  223   6.145   1.585   6.718
    1   AR   Ar  224   4.913   2.312   5.697
    1   AR   Ar  225   6.331   2.933   3.331
    1   AR   Ar  226   1.696   3.217   3.514
    1   AR   Ar  227   6.665   3.683   1.708
    1   AR   Ar  228   5.452   6.759   1.525
    1   AR   Ar  229   5.235   5.436  -1.714
    1   AR   Ar  230   3.741   4.060   3.652
    1   AR   Ar  231   5.156   1.426   3.543
    1   AR   Ar  232   5.316   2.501   1.644
    1   AR   Ar  233   6.416   2.130   4.262
    1   AR   Ar  234   5.942   2.959   4.666
    1   AR   Ar  235   6.680   1.088   3.876
    1   AR   Ar  236   4.821   4.912   5.556
    1   AR   Ar  237   6.013   2.684   6.439
    1   AR   Ar  238   5.911   4.283   6.416
    1   AR   Ar  239   6.839   4.779   9.334
    1   AR   Ar  240   6.830   2.671   7.320
    1   AR   Ar  241   2.082   6.691  -0.746
    1   AR   Ar  242   5.470   5.804   0.653
    1   AR   Ar  243   4.772   5.297   3.163
    1   AR   Ar  244   0.899   5.554   0.400
    1   AR   Ar  245   3.671   1.084   1.657
    1   AR   Ar  246   5.603   6.687  -0.252
    1   AR   Ar  247   5.758   3.880   0.918
    1   AR   Ar  248   5.975   5.663  -0.458
    1   AR   Ar  249   4.525   5.912   1.120
    1   AR   Ar  250   4.787   5.889   4.181
    1   AR   Ar  251   4.755   4.520   4.343
    1   AR   Ar  252   3.764   5.071   3.088
    1   AR   Ar  253   6.819   3.450   6.515
    1   AR   Ar  254   2.551   2.486   9.020
    1   AR   Ar  255   3.955   5.006   9.558
    1   AR   Ar  256   5.747   4.799   3.461
    7.12000  7.12000 12.00000
Argon-slab step 3875
  256
    1   AR   Ar    1   4.906   2.001  -2.438
    1   AR   Ar    2   6.221   0.126   0.704
    1   AR   Ar    3   3.857   2.056  -1.706
    1   AR   Ar    4   1.686   0.852  -0.195
    1   AR   Ar    5   6.513   6.311   0.621
    1   AR   Ar    6   0.350   1.476   2.465
    1   AR   Ar    7   5.667   3.598   2.994
    1   AR   Ar    8   4.496   0.949   0.720
    1   AR   Ar    9   1.116   0.057   3.245
    1   AR   Ar   10   0.483   7.013   4.179
    1   AR   Ar   11   1.864   7.070   4.438
    1   AR   Ar   12   0.795   1.042   3.517
    1   AR   Ar   13   0.057   0.520   4.987
    1   AR   Ar   14   4.644   1.667   7.837
    1   AR   Ar   15   3.548   6.244   8.179
    1   AR   Ar   16   0.957   7.023   5.237
    1   AR   Ar   17   6.615   2.312   0.769
    1   AR   Ar   18   6.251   4.902  -1.131
    1   AR   Ar   19   3.649   3.238   0.005
    1   AR   Ar   20   6.223   4.050  -2.763
    1   AR   Ar   21   2.755   1.840   1.489
    1   AR   Ar   22   6.552   1.936   3.224
    1   AR   Ar   23   0.740   0.265   0.678
    1   AR   Ar   24   6.257   2.292   2.048
    1   AR   Ar   25   0.387   1.784   4.107
    1   AR   Ar   26   6.572   0.093   3.881
    1   AR   Ar   27   1.587   0.887   2.459
    1   AR   Ar   28   0.854   2.921   4.159
    1   AR   Ar   29   5.497   2.284   7.554
    1   AR   Ar   30   1.928   0.848   3.561
    1   AR   Ar   31   3.131   0.037   7.920
    1   AR   Ar   32   0.788   2.641   7.013
    1   AR   Ar   33   0.398   4.615   0.001
    1   AR   Ar   34   0.762   4.750   2.343
    1   AR   Ar   35   6.123   5.569   1.350
    1   AR   Ar   36   5.915   2.419  -2.933
    1   AR   Ar   37   4.919   2.467   2.691
    1   AR   Ar   38   6.670   4.051   3.234
    1   AR   Ar   39   0.699   3.693   3.071
    1   AR   Ar   40   1.611   3.927   1.762
    1   AR   Ar   41   0.365   2.734   3.326
    1   AR   Ar   42   5.760   5.248   4.828
    1   AR   Ar   43   6.822   2.581   5.962
    1   AR   Ar   44   0.380   4.592   3.696
    1   AR   Ar   45   0.858   3.251   6.096
    1   AR   Ar   46   7.068   4.957   4.945
    1   AR   Ar   47   5.112   4.263   7.118
    1   AR   Ar   48   6.195   3.774   7.236
    1   AR   Ar   49   5.055   0.156  -1.147
    1   AR   Ar   50   4.409   5.240   0.283
    1   AR   Ar   51   6.383   4.612   1.414
    1   AR   Ar   52   5.984   3.252  -2.146
    1   AR   Ar   53   5.271   6.253   2.616
    1   AR   Ar   54   0.673   6.426   2.247
    1   AR   Ar   55   6.400   5.405   2.482
    1   AR   Ar   56   6.713   0.596   2.206
    1   AR   Ar   57   4.616   3.962   3.057
    1   AR   Ar   58   6.812   3.526   4.135
    1   AR   Ar   59   2.065   4.973   5.670
    1   AR   Ar   60   0.480   5.926   3.210
    1   AR   Ar   61   0.610   4.690   6.842
    1   AR   Ar   62   6.393   4.470   4.383
    1   AR   Ar   63   1.565   1.393   6.250
    1   AR   Ar   64   1.208   5.476   5.187
    1   AR   Ar   65   4.157   0.083   1.253
    1   AR   Ar   66   0.305   1.310   0.984
    1   AR   Ar   67   4.309   0.078  -0.412
    1   AR   Ar   68   1.190   1.568  -1.106
    1   AR   Ar   69   2.710   1.821  -0.109
    1   AR   Ar   70   0.611   0.636   1.826
    1   AR   Ar   71   2.840   1.276   3.367
    1   AR   Ar   72   4.153   6.835   2.376
    1   AR   Ar   73   4.012   0.341   3.180
    1   AR   Ar   74   1.311   0.982   4.498
    1   AR   Ar   75   3.385   0.436   5.120
    1   AR   Ar   76   1.603   0.300   1.388
    1   AR   Ar   77   1.867   6.290   5.126
    1   AR   Ar   78   0.554   6.240   6.090
    1   AR   Ar   79   3.885   5.993   6.021
    1   AR   Ar   80   3.824   5.344   5.300
    1   AR   Ar   81   2.454   5.965   0.001
    1   AR   Ar   82   6.620   5.157   0.067
    1   AR   Ar   83   1.721   2.100   0.321
    1   AR   Ar   84   0.439   3.883   1.342
    1   AR   Ar   85   1.460   3.131   0.721
    1   AR   Ar   86   2.231   5.303   0.935
    1   AR   Ar   87   2.277   2.717   1.592
    1   AR   Ar   88   3.108   5.069   1.639
    1   AR   Ar   89   0.137   2.808   2.164
    1   AR   Ar   90   2.926   1.549   4.568
    1   AR   Ar   91   1.308   2.134   3.548
    1   AR   Ar   92   1.144   2.986   2.170
    1   AR   Ar   93   0.793   0.977   5.537
    1   AR   Ar   94   0.288   6.426  10.807
    1   AR   Ar   95   4.692   0.295   5.188
    1   AR   Ar   96   2.853   6.689   4.520
    1   AR   Ar   97   3.620   2.243  -0.360
    1   AR   Ar   98   1.447   4.584   3.303
    1   AR   Ar   99   6.887   1.238   0.097
    1   AR   Ar  100   0.996   2.720  -0.790
    1   AR   Ar  101   3.647   5.955   2.250
    1   AR   Ar  102   3.876   1.719   2.587
    1   AR   Ar  103   1.439   4.483   0.747
    1   AR   Ar  104   3.344   4.287  -1.098
    1   AR   Ar  105   2.363   2.372   4.172
    1   AR   Ar  106   4.079   3.123   5.519
    1   AR   Ar  107   0.551   3.972   4.689
    1   AR   Ar  108   2.079   1.054   5.345
    1   AR   Ar  109   1.743   3.125   4.582
    1   AR   Ar  110   2.859   2.439   5.297
    1   AR   Ar  111   5.356   5.461   6.688
    1   AR   Ar  112   1.284   5.355   6.409
    1   AR   Ar  113   3.561   4.661  -0.031
    1   AR   Ar  114   2.432   0.433  -1.034
    1   AR   Ar  115   1.919   4.928  -0.454
    1   AR   Ar  116   6.209   0.365  -0.345
    1   AR   Ar  117   1.180   4.728   4.421
    1   AR   Ar  118   1.480   5.568   3.157
    1   AR   Ar  119   2.437   4.192   2.506
    1   AR   Ar  120   2.007   6.169   1.592
    1   AR   Ar  121   5.416   3.844   5.091
    1   AR   Ar  122   2.981   6.185   5.427
    1   AR   Ar  123   2.943   4.030   5.271
    1   AR   Ar  124   1.463   5.264   2.001
    1   AR   Ar  125   0.091   3.193   5.207
    1   AR   Ar  126   7.059   6.046   4.896
    1   AR   Ar  127   4.588   3.874   6.208
    1   AR   Ar  128   3.217   3.848   6.628
    1   AR   Ar  129   1.774   6.096   3.984
    1   AR   Ar  130   4.863   2.263  -3.573
    1   AR   Ar  131   3.871   3.269  -1.290
    1   AR   Ar  132   0.862   1.481   0.067
    1   AR   Ar  133   4.364   6.315   3.213
    1   AR   Ar  134   4.283   1.218   4.651
    1   AR   Ar  135   6.079   1.075   2.933
    1   AR   Ar  136   6.500   6.599   2.487
    1   AR   Ar  137   2.209   4.031   4.597
    1   AR   Ar  138   5.228   0.847   6.332
    1   AR   Ar  139   6.034   2.300   5.447
    1   AR   Ar  140   3.869   7.116   4.328
    1   AR   Ar  141   3.955   5.048   4.116
    1   AR   Ar  142   3.769   7.064   5.899
    1   AR   Ar  143   6.245   6.678   6.389
    1   AR   Ar  144   6.696   1.539   5.050
    1   AR   Ar  145   4.681   4.946  -0.841
    1   AR   Ar  146   3.024   2.414   2.275
    1   AR   Ar  147   5.006   2.349  -0.958
    1   AR   Ar  148   3.127   6.740  -1.039
    1   AR   Ar  149   2.391   1.464  -0.993
    1   AR   Ar  150   2.016   1.769   2.704
    1   AR   Ar  151   2.694   2.622   3.179
    1   AR   Ar  152   1.879   2.366  -1.443
    1   AR   Ar  153   5.034   0.481   4.270
    1   AR   Ar  154   3.707   1.613   3.880
    1   AR   Ar  155   6.979   4.159   5.747
    1   AR   Ar  156   2.764   4.251   3.628
    1   AR   Ar  157   1.083   4.457   5.478
    1   AR   Ar  158   0.294   1.525   6.219
    1   AR   Ar  159   3.747   0.697   7.129
    1   AR   Ar  160   1.467   1.955   4.594
    1   AR   Ar  161   5.105   4.454   2.288
    1   AR   Ar  162   4.885   5.947  -0.467
    1   AR   Ar  163   5.815   4.184  -0.373
    1   AR   Ar  164   2.557   5.700   2.410
    1   AR   Ar  165   4.596   2.213   0.149
    1   AR   Ar  166   3.129   3.341   4.267
    1   AR   Ar  167   4.966   0.063   2.801
    1   AR   Ar  168   5.613   4.282  -1.653
    1   AR   Ar  169   3.655   4.223   2.572
    1   AR   Ar  170   2.132   3.338   5.492
    1   AR   Ar  171   5.450   3.773   3.905
    1   AR   Ar  172   4.158   4.121   5.090
    1   AR   Ar  173   2.374   3.104   6.676
    1   AR   Ar  174   2.217   6.073   6.267
    1   AR   Ar  175   3.658   1.771   5.358
    1   AR   Ar  176   4.156   2.397   4.520
    1   AR   Ar  177   0.773   5.545  -0.903
    1   AR   Ar  178   3.442   5.747  -0.503
    1   AR   Ar  179   3.307   6.641   0.128
    1   AR   Ar  180   3.858   0.701  -3.941
    1   AR   Ar  181   0.198   5.492   1.834
    1   AR   Ar  182   1.860   6.442   2.613
    1   AR   Ar  183   4.433   5.227   1.977
    1   AR   Ar  184   4.969   0.018   0.550
    1   AR   Ar  185   2.918   4.899   4.568
    1   AR   Ar  186   2.720   5.338   3.529
    1   AR   Ar  187   3.109   6.556   3.296
    1   AR   Ar  188   2.815   6.809   1.992
    1   AR   Ar  189   4.999   2.905   6.600
    1   AR   Ar  190   3.787   6.082   4.000
    1   AR   Ar  191   2.554   6.286   7.621
    1   AR   Ar  192   3.986   6.404   5.067
    1   AR   Ar  193   3.108   6.106   1.122
    1   AR   Ar  194   4.748   3.938  -0.722
    1   AR   Ar  195   5.606   1.316   0.362
    1   AR   Ar  196   4.305   1.310  -0.435
    1   AR   Ar  197   3.378   1.364   0.584
    1   AR   Ar  198   6.461   1.225   1.308
    1   AR   Ar  199   2.973   0.444   2.787
    1   AR   Ar  200   5.987   2.807  -0.205
    1   AR   Ar  201   5.995   6.149   3.399
    1   AR   Ar  202   5.590   1.310   4.821
    1   AR   Ar  203   0.175   6.834   3.205
    1   AR   Ar  204   5.470   6.251   5.639
    1   AR   Ar  205   6.967   6.547   1.525
    1   AR   Ar  206   5.884   0.112   5.434
    1   AR   Ar  207   0.514   2.104   5.097
    1   AR   Ar  208   0.882   6.058   4.419
    1   AR   Ar  209   7.087   2.583  -2.007
    1   AR   Ar  210   2.348   6.817   0.727
    1   AR   Ar  211   0.096   3.557   0.413
    1   AR   Ar  212   6.546   3.528  -0.881
    1   AR   Ar  213   2.464   0.741   1.921
    1   AR   Ar  214   4.581   3.331   1.813
    1   AR   Ar  215   5.693   3.372   1.990
    1   AR   Ar  216   0.674   2.417   1.325
    1   AR   Ar  217   5.305   2.745   3.810
    1   AR   Ar  218   4.689   3.191   4.773
    1   AR   Ar  219   4.279   3.046   3.570
    1   AR   Ar  220   3.957   2.838   0.986
    1   AR   Ar  221   6.523   5.312   3.977
    1   AR   Ar  222   4.979   6.905   6.446
    1   AR   Ar  223   6.159   1.554   6.708
    1   AR   Ar  224   4.920   2.292   5.700
    1   AR   Ar  225   6.329   2.916   3.314
    1   AR   Ar  226   1.684   3.203   3.457
    1   AR   Ar  227   6.653   3.672   1.723
    1   AR   Ar  228   5.446   6.744   1.539
    1   AR   Ar  229   5.237   5.442  -1.704
    1   AR   Ar  230   3.725   4.037   3.675
    1   AR   Ar  231   5.128   1.446   3.527
    1   AR   Ar  232   5.316   2.511   1.663
    1   AR   Ar  233   6.441   2.113   4.241
    1   AR   Ar  234   5.940   2.938   4.653
    1   AR   Ar  235   6.696   1.098   3.882
    1   AR   Ar  236   4.800   4.898   5.554
    1   AR   Ar  237   6.005   2.671   6.460
    1   AR   Ar  238   5.882   4.339   6.441
    1   AR   Ar  239   6.840   4.801   9.365
    1   AR   Ar  240   6.833   2.667   7.336
    1   AR   Ar  241   2.104   6.678  -0.792
    1   AR   Ar  242   5.440   5.802   0.678
    1   AR   Ar  243   4.742   5.303   3.144
    1   AR   Ar  244   0.936   5.529   0.413
    1   AR   Ar  245   3.668   1.083   1.662
    1   AR   Ar  246   5.596   6.680  -0.270
    1   AR   Ar  247   5.736   3.858   0.927
    1   AR   Ar  248   5.960   5.650  -0.472
    1   AR   Ar  249   4.515   5.879   1.120
    1   AR   Ar  250   4.783   5.872   4.106
    1   AR   Ar  251   4.774   4.511   4.336
    1   AR   Ar  252   3.738   5.047   3.119
    1   AR   Ar  253   6.839   3.469   6.510
    1   AR   Ar  254   2.577   2.468   9.037
    1   AR   Ar  255   3.974   5.040   9.574
    1   AR   Ar  256   5.729   4.787   3.469
    7.12000  7.12000 12.00000
Argon-slab step 3880
  256
    1   AR   Ar    1   4.874   2.018  -2.459
    1   AR   Ar    2   6.235   0.132   0.710
    1   AR   Ar    3   3.853   2.057  -1.704
    1   AR   Ar    4   1.688   0.867  -0.185
    1   AR   Ar    5   6.537   6.297   0.625
    1   AR   Ar    6   0.383   1.469   2.477
    1   AR   Ar    7   5.672   3.597   2.964
    1   AR   Ar    8   4.502   0.925   0.697
    1   AR   Ar    9   1.103   0.045   3.228
    1   AR   Ar   10   0.494   7.013   4.190
    1   AR   Ar   11   1.866   7.101   4.422
    1   AR   Ar   12   0.790   1.043   3.484
    1   AR   Ar   13   0.029   0.517   4.972
    1   AR   Ar   14   4.614   1.632   7.808
    1   AR   Ar   15   3.522   6.244   8.206
    1   AR   Ar   16   0.950   7.009   5.261
    1   AR   Ar   17   6.575   2.307   0.759
    1   AR   Ar   18   6.266   4.884  -1.142
    1   AR   Ar   19   3.636   3.249   0.012
    1   AR   Ar   20   6.236   4.074  -2.757
    1   AR   Ar   21   2.724   1.837   1.512
    1   AR   Ar   22   6.538   1.933   3.219
    1   AR   Ar   23   0.743   0.258   0.636
    1   AR   Ar   24   6.265   2.311   2.063
    1   AR   Ar   25   0.412   1.760   4.121
    1   AR   Ar   26   6.571   0.104   3.901
    1   AR   Ar   27   1.575   0.932   2.436
    1   AR   Ar   28   0.884   2.955   4.144
    1   AR   Ar   29   5.522   2.248   7.573
    1   AR   Ar   30   1.937   0.853   3.554
    1   AR   Ar   31   3.086   0.012   7.929
    1   AR   Ar   32   0.813   2.627   6.994
    1   AR   Ar   33   0.400   4.655  -0.044
    1   AR   Ar   34   0.776   4.711   2.350
    1   AR   Ar   35   6.136   5.580   1.373
    1   AR   Ar   36   5.912   2.441  -2.925
    1   AR   Ar   37   4.871   2.428   2.664
    1   AR   Ar   38   6.642   4.058   3.223
    1   AR   Ar   39   0.740   3.694   3.086
    1   AR   Ar   40   1.606   3.950   1.756
    1   AR   Ar   41   0.357   2.752   3.324
    1   AR   Ar   42   5.718   5.201   4.812
    1   AR   Ar   43   6.842   2.595   6.007
    1   AR   Ar   44   0.388   4.631   3.719
    1   AR   Ar   45   0.849   3.265   6.119
    1   AR   Ar   46   7.085   4.960   4.981
    1   AR   Ar   47   5.090   4.265   7.118
    1   AR   Ar   48   6.181   3.775   7.252
    1   AR   Ar   49   5.062   0.149  -1.170
    1   AR   Ar   50   4.436   5.265   0.274
    1   AR   Ar   51   6.403   4.608   1.428
    1   AR   Ar   52   5.992   3.249  -2.128
    1   AR   Ar   53   5.248   6.281   2.605
    1   AR   Ar   54   0.657   6.394   2.225
    1   AR   Ar   55   6.381   5.401   2.470
    1   AR   Ar   56   6.726   0.571   2.206
    1   AR   Ar   57   4.633   4.005   3.080
    1   AR   Ar   58   6.803   3.487   4.150
    1   AR   Ar   59   2.107   4.988   5.670
    1   AR   Ar   60   0.489   5.915   3.224
    1   AR   Ar   61   0.589   4.691   6.844
    1   AR   Ar   62   6.403   4.476   4.360
    1   AR   Ar   63   1.559   1.391   6.261
    1   AR   Ar   64   1.187   5.488   5.171
    1   AR   Ar   65   4.153   0.097   1.270
    1   AR   Ar   66   0.308   1.307   1.001
    1   AR   Ar   67   4.323   0.096  -0.395
    1   AR   Ar   68   1.163   1.593  -1.126
    1   AR   Ar   69   2.674   1.789  -0.086
    1   AR   Ar   70   0.618   0.646   1.837
    1   AR   Ar   71   2.845   1.249   3.369
    1   AR   Ar   72   4.149   6.859   2.371
    1   AR   Ar   73   4.032   0.342   3.240
    1   AR   Ar   74   1.323   0.981   4.505
    1   AR   Ar   75   3.365   0.450   5.139
    1   AR   Ar   76   1.600   0.286   1.408
    1   AR   Ar   77   1.872   6.329   5.136
    1   AR   Ar   78   0.546   6.234   6.063
    1   AR   Ar   79   3.857   5.994   6.028
    1   AR   Ar   80   3.786   5.336   5.266
    1   AR   Ar   81   2.448   5.922   0.005
    1   AR   Ar   82   6.623   5.163   0.051
    1   AR   Ar   83   1.705   2.077   0.315
    1   AR   Ar   84   0.453   3.876   1.357
    1   AR   Ar   85   1.463   3.166   0.707
    1   AR   Ar   86   2.237   5.303   0.929
    1   AR   Ar   87   2.277   2.743   1.603
    1   AR   Ar   88   3.140   5.083   1.645
    1   AR   Ar   89   0.134   2.801   2.145
    1   AR   Ar   90   2.914   1.523   4.548
    1   AR   Ar   91   1.300   2.114   3.549
    1   AR   Ar   92   1.100   2.980   2.177
    1   AR   Ar   93   0.806   1.003   5.536
    1   AR   Ar   94   0.304   6.390  10.814
    1   AR   Ar   95   4.686   0.356   5.191
    1   AR   Ar   96   2.856   6.704   4.504
    1   AR   Ar   97   3.623   2.262  -0.370
    1   AR   Ar   98   1.449   4.523   3.324
    1   AR   Ar   99   6.873   1.205   0.026
    1   AR   Ar  100   0.968   2.720  -0.788
    1   AR   Ar  101   3.638   5.986   2.261
    1   AR   Ar  102   3.872   1.725   2.580
    1   AR   Ar  103   1.463   4.476   0.734
    1   AR   Ar  104   3.353   4.315  -1.113
    1   AR   Ar  105   2.398   2.375   4.204
    1   AR   Ar  106   4.104   3.132   5.519
    1   AR   Ar  107   0.577   3.950   4.699
    1   AR   Ar  108   2.034   1.084   5.363
    1   AR   Ar  109   1.753   3.114   4.586
    1   AR   Ar  110   2.871   2.450   5.279
    1   AR   Ar  111   5.373   5.435   6.705
    1   AR   Ar  112   1.296   5.368   6.414
    1   AR   Ar  113   3.576   4.637  -0.032
    1   AR   Ar  114   2.411   0.394  -1.043
    1   AR   Ar  115   1.916   4.944  -0.465
    1   AR   Ar  116   6.187   0.352  -0.351
    1   AR   Ar  117   1.192   4.723   4.437
    1   AR   Ar  118   1.472   5.579   3.179
    1   AR   Ar  119   2.444   4.209   2.508
    1   AR   Ar  120   2.012   6.187   1.585
    1   AR   Ar  121   5.389   3.858   5.099
    1   AR   Ar  122   2.942   6.158   5.406
    1   AR   Ar  123   2.956   4.028   5.285
    1   AR   Ar  124   1.436   5.237   1.983
    1   AR   Ar  125   0.084   3.181   5.199
    1   AR   Ar  126   7.024   6.040   4.901
    1   AR   Ar  127   4.565   3.858   6.196
    1   AR   Ar  128   3.192   3.801   6.628
    1   AR   Ar  129   1.780   6.126   3.964
    1   AR   Ar  130   4.852   2.222  -3.590
    1   AR   Ar  131   3.893   3.286  -1.322
    1   AR   Ar  132   0.896   1.462   0.097
    1   AR   Ar  133   4.377   6.317   3.208
    1   AR   Ar  134   4.311   1.204   4.664
    1   AR   Ar  135   6.058   1.104   2.962
    1   AR   Ar  136   6.504   6.581   2.469
    1   AR   Ar  137   2.193   4.031   4.641
    1   AR   Ar  138   5.244   0.834   6.328
    1   AR   Ar  139   5.994   2.290   5.472
    1   AR   Ar  140   3.879   7.110   4.308
    1   AR   Ar  141   3.973   5.043   4.133
    1   AR   Ar  142   3.799   7.111   5.872
    1   AR   Ar  143   6.208   6.689   6.401
    1   AR   Ar  144   6.672   1.528   5.044
    1   AR   Ar  145   4.667   4.956  -0.848
    1   AR   Ar  146   3.045   2.389   2.297
    1   AR   Ar  147   5.008   2.340  -0.938
    1   AR   Ar  148   3.117   6.754  -1.037
    1   AR   Ar  149   2.374   1.430  -1.011
    1   AR   Ar  150   2.024   1.777   2.737
    1   AR   Ar  151   2.704   2.635   3.196
    1   AR   Ar  152   1.855   2.367  -1.453
    1   AR   Ar  153   5.071   0.478   4.271
    1   AR   Ar  154   3.709   1.627   3.887
    1   AR   Ar  155   6.964   4.123   5.735
    1   AR   Ar  156   2.760   4.236   3.624
    1   AR   Ar  157   1.122   4.439   5.471
    1   AR   Ar  158   0.275   1.537   6.201
    1   AR   Ar  159   3.732   0.699   7.116
    1   AR   Ar  160   1.454   1.958   4.613
    1   AR   Ar  161   5.154   4.450   2.275
    1   AR   Ar  162   4.906   5.927  -0.464
    1   AR   Ar  163   5.774   4.181  -0.368
    1   AR   Ar  164   2.564   5.714   2.407
    1   AR   Ar  165   4.554   2.197   0.128
    1   AR   Ar  166   3.114   3.358   4.267
    1   AR   Ar  167   4.974   0.044   2.828
    1   AR   Ar  168   5.621   4.264  -1.672
    1   AR   Ar  169   3.675   4.192   2.567
    1   AR   Ar  170   2.140   3.328   5.483
    1   AR   Ar  171   5.465   3.767   3.915
    1   AR   Ar  172   4.173   4.112   5.077
    1   AR   Ar  173   2.363   3.100   6.635
    1   AR   Ar  174   2.241   6.075   6.287
    1   AR   Ar  175   3.656   1.774   5.383
    1   AR   Ar  176   4.126   2.371   4.522
    1   AR   Ar  177   0.766   5.523  -0.887
    1   AR   Ar  178   3.442   5.762  -0.485
    1   AR   Ar  179   3.297   6.643   0.139
    1   AR   Ar  180   3.890   0.683  -3.950
    1   AR   Ar  181   0.176   5.488   1.852
    1   AR   Ar  182   1.831   6.409   2.611
    1   AR   Ar  183   4.456   5.241   1.975
    1   AR   Ar  184   4.948   0.037   0.550
    1   AR   Ar  185   2.877   4.887   4.568
    1   AR   Ar  186   2.699   5.375   3.543
    1   AR   Ar  187   3.128   6.557   3.294
    1   AR   Ar  188   2.826   6.830   1.979
    1   AR   Ar  189   4.999   2.893   6.617
    1   AR   Ar  190   3.774   6.097   4.035
    1   AR   Ar  191   2.562   6.288   7.635
    1   AR   Ar  192   3.985   6.390   5.046
    1   AR   Ar  193   3.107   6.065   1.089
    1   AR   Ar  194   4.746   3.955  -0.694
    1   AR   Ar  195   5.625   1.305   0.361
    1   AR   Ar  196   4.292   1.315  -0.452
    1   AR   Ar  197   3.367   1.359   0.584
    1   AR   Ar  198   6.425   1.252   1.309
    1   AR   Ar  199   2.955   0.473   2.801
    1   AR   Ar  200   5.960   2.831  -0.201
    1   AR   Ar  201   5.982   6.126   3.385
    1   AR   Ar  202   5.594   1.325   4.833
    1   AR   Ar  203   0.207   6.810   3.194
    1   AR   Ar  204   5.464   6.217   5.640
    1   AR   Ar  205   7.016   6.598   1.541
    1   AR   Ar  206   5.891   0.114   5.433
    1   AR   Ar  207   0.534   2.105   5.107
    1   AR   Ar  208   0.895   6.083   4.407
    1   AR   Ar  209   7.057   2.594  -2.010
    1   AR   Ar  210   2.337   6.780   0.718
    1   AR   Ar  211   0.071   3.522   0.402
    1   AR   Ar  212   6.561   3.543  -0.883
    1   AR   Ar  213   2.473   0.736   1.930
    1   AR   Ar  214   4.545   3.335   1.812
    1   AR   Ar  215   5.708   3.412   2.010
    1   AR   Ar  216   0.699   2.402   1.323
    1   AR   Ar  217   5.258   2.726   3.816
    1   AR   Ar  218   4.696   3.213   4.713
    1   AR   Ar  219   4.296   3.066   3.559
    1   AR   Ar  220   3.985   2.850   1.012
    1   AR   Ar  221   6.533   5.318   3.937
    1   AR   Ar  222   4.980   6.893   6.455
    1   AR   Ar  223   6.172   1.524   6.697
    1   AR   Ar  224   4.918   2.259   5.669
    1   AR   Ar  225   6.331   2.901   3.301
    1   AR   Ar  226   1.672   3.189   3.399
    1   AR   Ar  227   6.639   3.655   1.742
    1   AR   Ar  228   5.440   6.727   1.553
    1   AR   Ar  229   5.239   5.447  -1.692
    1   AR   Ar  230   3.721   4.013   3.699
    1   AR   Ar  231   5.101   1.467   3.512
    1   AR   Ar  232   5.309   2.514   1.676
    1   AR   Ar  233   6.464   2.099   4.219
    1   AR   Ar  234   5.938   2.925   4.638
    1   AR   Ar  235   6.713   1.113   3.890
    1   AR   Ar  236   4.781   4.882   5.552
    1   AR   Ar  237   5.993   2.668   6.506
    1   AR   Ar  238   5.857   4.399   6.457
    1   AR   Ar  239   6.841   4.823   9.396
    1   AR   Ar  240   6.834   2.663   7.348
    1   AR   Ar  241   2.116   6.649  -0.831
    1   AR   Ar  242   5.407   5.805   0.691
    1   AR   Ar  243   4.717   5.308   3.125
    1   AR   Ar  244   0.974   5.502   0.426
    1   AR   Ar  245   3.665   1.080   1.666
    1   AR   Ar  246   5.587   6.670  -0.286
    1   AR   Ar  247   5.713   3.836   0.936
    1   AR   Ar  248   5.936   5.646  -0.490
    1   AR   Ar  249   4.499   5.851   1.123
    1   AR   Ar  250   4.786   5.852   4.033
    1   AR   Ar  251   4.802   4.499   4.329
    1   AR   Ar  252   3.708   5.031   3.149
    1   AR   Ar  253   6.863   3.485   6.504
    1   AR   Ar  254   2.604   2.449   9.055
    1   AR   Ar  255   3.993   5.074   9.589
    1   AR   Ar  256   5.709   4.773   3.475
    7.12000  7.12000 12.00000
Argon-slab step 3885
  256
    1   AR   Ar    1   4.842   2.036  -2.480
    1   AR   Ar    2   6.246   0.145   0.719
    1   AR   Ar    3   3.850   2.058  -1.702
    1   AR   Ar    4   1.695   0.881  -0.177
    1   AR   Ar    5   6.583   6.274   0.609
    1   AR   Ar    6   0.415   1.465   2.492
    1   AR   Ar    7   5.673   3.601   2.935
    1   AR   Ar    8   4.504   0.912   0.672
    1   AR   Ar    9   1.113   0.076   3.241
    1   AR   Ar   10   0.506   7.018   4.202
    1   AR   Ar   11   1.864   0.017   4.405
    1   AR   Ar   12   0.787   1.043   3.447
    1   AR   Ar   13   7.119   0.513   4.955
    1   AR   Ar   14   4.585   1.597   7.778
    1   AR   Ar   15   3.498   6.239   8.235
    1   AR   Ar   16   0.963   6.976   5.299
    1   AR   Ar   17   6.537   2.301   0.749
    1   AR   Ar   18   6.284   4.866  -1.151
    1   AR   Ar   19   3.625   3.262   0.019
    1   AR   Ar   20   6.250   4.099  -2.751
    1   AR   Ar   21   2.694   1.822   1.529
    1   AR   Ar   22   6.533   1.929   3.206
    1   AR   Ar   23   0.744   0.234   0.615
    1   AR   Ar   24   6.278   2.320   2.095
    1   AR   Ar   25   0.437   1.740   4.135
    1   AR   Ar   26   6.568   0.110   3.922
    1   AR   Ar   27   1.556   0.970   2.413
    1   AR   Ar   28   0.908   2.989   4.133
    1   AR   Ar   29   5.549   2.212   7.590
    1   AR   Ar   30   1.937   0.855   3.547
    1   AR   Ar   31   3.108   7.105   7.894
    1   AR   Ar   32   0.836   2.612   6.975
    1   AR   Ar   33   0.416   4.668  -0.051
    1   AR   Ar   34   0.766   4.650   2.374
    1   AR   Ar   35   6.152   5.598   1.400
    1   AR   Ar   36   5.907   2.464  -2.916
    1   AR   Ar   37   4.823   2.391   2.641
    1   AR   Ar   38   6.615   4.066   3.213
    1   AR   Ar   39   0.780   3.699   3.099
    1   AR   Ar   40   1.608   3.984   1.751
    1   AR   Ar   41   0.340   2.764   3.315
    1   AR   Ar   42   5.675   5.154   4.796
    1   AR   Ar   43   6.877   2.601   6.047
    1   AR   Ar   44   0.394   4.671   3.742
    1   AR   Ar   45   0.839   3.281   6.139
    1   AR   Ar   46   7.107   4.962   5.018
    1   AR   Ar   47   5.046   4.267   7.146
    1   AR   Ar   48   6.166   3.774   7.272
    1   AR   Ar   49   5.071   0.143  -1.192
    1   AR   Ar   50   4.463   5.288   0.261
    1   AR   Ar   51   6.421   4.622   1.452
    1   AR   Ar   52   6.000   3.245  -2.107
    1   AR   Ar   53   5.232   6.288   2.587
    1   AR   Ar   54   0.645   6.363   2.206
    1   AR   Ar   55   6.362   5.397   2.459
    1   AR   Ar   56   6.738   0.546   2.206
    1   AR   Ar   57   4.651   4.049   3.107
    1   AR   Ar   58   6.794   3.445   4.165
    1   AR   Ar   59   2.145   5.000   5.668
    1   AR   Ar   60   0.503   5.879   3.240
    1   AR   Ar   61   0.566   4.689   6.847
    1   AR   Ar   62   6.407   4.460   4.343
    1   AR   Ar   63   1.578   1.367   6.283
    1   AR   Ar   64   1.176   5.500   5.169
    1   AR   Ar   65   4.147   0.109   1.290
    1   AR   Ar   66   0.313   1.304   1.018
    1   AR   Ar   67   4.336   0.113  -0.375
    1   AR   Ar   68   1.136   1.617  -1.143
    1   AR   Ar   69   2.637   1.760  -0.060
    1   AR   Ar   70   0.627   0.653   1.847
    1   AR   Ar   71   2.854   1.240   3.379
    1   AR   Ar   72   4.138   6.886   2.355
    1   AR   Ar   73   4.050   0.344   3.303
    1   AR   Ar   74   1.332   0.969   4.509
    1   AR   Ar   75   3.337   0.473   5.146
    1   AR   Ar   76   1.597   0.272   1.427
    1   AR   Ar   77   1.877   6.366   5.147
    1   AR   Ar   78   0.539   6.226   6.034
    1   AR   Ar   79   3.829   6.000   6.042
    1   AR   Ar   80   3.745   5.321   5.224
    1   AR   Ar   81   2.446   5.929  -0.014
    1   AR   Ar   82   6.627   5.168   0.041
    1   AR   Ar   83   1.691   2.056   0.311
    1   AR   Ar   84   0.473   3.869   1.374
    1   AR   Ar   85   1.466   3.201   0.694
    1   AR   Ar   86   2.242   5.304   0.924
    1   AR   Ar   87   2.271   2.777   1.613
    1   AR   Ar   88   3.158   5.106   1.630
    1   AR   Ar   89   0.113   2.795   2.148
    1   AR   Ar   90   2.900   1.492   4.531
    1   AR   Ar   91   1.293   2.093   3.549
    1   AR   Ar   92   1.069   2.978   2.186
    1   AR   Ar   93   0.826   1.026   5.528
    1   AR   Ar   94   0.321   6.354  10.821
    1   AR   Ar   95   4.677   0.412   5.206
    1   AR   Ar   96   2.861   6.719   4.485
    1   AR   Ar   97   3.624   2.278  -0.383
    1   AR   Ar   98   1.452   4.459   3.346
    1   AR   Ar   99   6.857   1.171  -0.042
    1   AR   Ar  100   0.940   2.718  -0.785
    1   AR   Ar  101   3.626   6.010   2.272
    1   AR   Ar  102   3.868   1.730   2.575
    1   AR   Ar  103   1.486   4.470   0.722
    1   AR   Ar  104   3.362   4.343  -1.126
    1   AR   Ar  105   2.433   2.379   4.235
    1   AR   Ar  106   4.123   3.137   5.525
    1   AR   Ar  107   0.599   3.925   4.707
    1   AR   Ar  108   1.991   1.114   5.378
    1   AR   Ar  109   1.764   3.100   4.587
    1   AR   Ar  110   2.879   2.464   5.257
    1   AR   Ar  111   5.384   5.391   6.725
    1   AR   Ar  112   1.310   5.384   6.417
    1   AR   Ar  113   3.592   4.612  -0.035
    1   AR   Ar  114   2.396   0.379  -1.056
    1   AR   Ar  115   1.912   4.962  -0.474
    1   AR   Ar  116   6.168   0.346  -0.357
    1   AR   Ar  117   1.209   4.721   4.449
    1   AR   Ar  118   1.466   5.584   3.193
    1   AR   Ar  119   2.452   4.228   2.511
    1   AR   Ar  120   2.016   6.204   1.575
    1   AR   Ar  121   5.365   3.876   5.109
    1   AR   Ar  122   2.904   6.130   5.387
    1   AR   Ar  123   2.978   4.026   5.305
    1   AR   Ar  124   1.436   5.231   1.952
    1   AR   Ar  125   0.076   3.166   5.190
    1   AR   Ar  126   6.988   6.036   4.906
    1   AR   Ar  127   4.543   3.843   6.183
    1   AR   Ar  128   3.168   3.754   6.626
    1   AR   Ar  129   1.798   6.159   3.946
    1   AR   Ar  130   4.841   2.191  -3.586
    1   AR   Ar  131   3.917   3.303  -1.353
    1   AR   Ar  132   0.921   1.443   0.126
    1   AR   Ar  133   4.386   6.322   3.203
    1   AR   Ar  134   4.338   1.192   4.677
    1   AR   Ar  135   6.031   1.124   2.989
    1   AR   Ar  136   6.507   6.563   2.453
    1   AR   Ar  137   2.171   4.037   4.677
    1   AR   Ar  138   5.261   0.821   6.322
    1   AR   Ar  139   5.953   2.276   5.497
    1   AR   Ar  140   3.890   7.110   4.284
    1   AR   Ar  141   3.986   5.041   4.154
    1   AR   Ar  142   3.837   0.029   5.857
    1   AR   Ar  143   6.169   6.699   6.412
    1   AR   Ar  144   6.652   1.514   5.042
    1   AR   Ar  145   4.652   4.970  -0.856
    1   AR   Ar  146   3.072   2.365   2.317
    1   AR   Ar  147   4.987   2.357  -0.918
    1   AR   Ar  148   3.116   6.763  -1.035
    1   AR   Ar  149   2.353   1.399  -1.031
    1   AR   Ar  150   2.036   1.793   2.772
    1   AR   Ar  151   2.709   2.642   3.207
    1   AR   Ar  152   1.832   2.369  -1.463
    1   AR   Ar  153   5.071   0.450   4.287
    1   AR   Ar  154   3.713   1.641   3.887
    1   AR   Ar  155   6.950   4.093   5.716
    1   AR   Ar  156   2.745   4.225   3.620
    1   AR   Ar  157   1.175   4.419   5.465
    1   AR   Ar  158   0.293   1.560   6.183
    1   AR   Ar  159   3.717   0.701   7.104
    1   AR   Ar  160   1.444   1.971   4.632
    1   AR   Ar  161   5.206   4.447   2.262
    1   AR   Ar  162   4.922   5.907  -0.461
    1   AR   Ar  163   5.788   4.184  -0.342
    1   AR   Ar  164   2.564   5.737   2.378
    1   AR   Ar  165   4.514   2.182   0.109
    1   AR   Ar  166   3.089   3.359   4.267
    1   AR   Ar  167   4.986   0.049   2.865
    1   AR   Ar  168   5.626   4.243  -1.692
    1   AR   Ar  169   3.693   4.158   2.559
    1   AR   Ar  170   2.152   3.320   5.483
    1   AR   Ar  171   5.479   3.762   3.937
    1   AR   Ar  172   4.186   4.104   5.064
    1   AR   Ar  173   2.351   3.096   6.592
    1   AR   Ar  174   2.264   6.077   6.306
    1   AR   Ar  175   3.657   1.775   5.407
    1   AR   Ar  176   4.094   2.342   4.525
    1   AR   Ar  177   0.759   5.499  -0.870
    1   AR   Ar  178   3.443   5.775  -0.467
    1   AR   Ar  179   3.288   6.646   0.149
    1   AR   Ar  180   3.922   0.664  -3.960
    1   AR   Ar  181   0.153   5.484   1.868
    1   AR   Ar  182   1.808   6.380   2.613
    1   AR   Ar  183   4.462   5.244   1.990
    1   AR   Ar  184   4.933   0.047   0.548
    1   AR   Ar  185   2.837   4.876   4.568
    1   AR   Ar  186   2.679   5.413   3.557
    1   AR   Ar  187   3.147   6.557   3.289
    1   AR   Ar  188   2.839   6.848   1.967
    1   AR   Ar  189   4.996   2.876   6.632
    1   AR   Ar  190   3.754   6.108   4.071
    1   AR   Ar  191   2.568   6.286   7.646
    1   AR   Ar  192   3.987   6.376   5.026
    1   AR   Ar  193   3.106   6.023   1.057
    1   AR   Ar  194   4.744   3.964  -0.666
    1   AR   Ar  195   5.644   1.292   0.360
    1   AR   Ar  196   4.279   1.318  -0.468
    1   AR   Ar  197   3.359   1.354   0.587
    1   AR   Ar  198   6.385   1.279   1.311
    1   AR   Ar  199   2.942   0.486   2.810
    1   AR   Ar  200   5.933   2.855  -0.196
    1   AR   Ar  201   5.971   6.103   3.372
    1   AR   Ar  202   5.598   1.341   4.845
    1   AR   Ar  203   0.219   6.796   3.190
    1   AR   Ar  204   5.458   6.182   5.641
    1   AR   Ar  205   7.062   6.651   1.554
    1   AR   Ar  206   5.897   0.117   5.432
    1   AR   Ar  207   0.550   2.107   5.122
    1   AR   Ar  208   0.900   6.130   4.388
    1   AR   Ar  209   7.026   2.605  -2.012
    1   AR   Ar  210   2.326   6.745   0.709
    1   AR   Ar  211   0.050   3.502   0.426
    1   AR   Ar  212   6.572   3.559  -0.873
    1   AR   Ar  213   2.484   0.734   1.933
    1   AR   Ar  214   4.512   3.340   1.814
    1   AR   Ar  215   5.716   3.450   2.019
    1   AR   Ar  216   0.724   2.385   1.319
    1   AR   Ar  217   5.214   2.704   3.822
    1   AR   Ar  218   4.710   3.237   4.642
    1   AR   Ar  219   4.311   3.086   3.550
    1   AR   Ar  220   4.012   2.861   1.038
    1   AR   Ar  221   6.548   5.345   3.889
    1   AR   Ar  222   4.980   6.880   6.462
    1   AR   Ar  223   6.186   1.496   6.685
    1   AR   Ar  224   4.916   2.232   5.637
    1   AR   Ar  225   6.336   2.893   3.293
    1   AR   Ar  226   1.662   3.175   3.342
    1   AR   Ar  227   6.631   3.634   1.761
    1   AR   Ar  228   5.434   6.710   1.565
    1   AR   Ar  229   5.242   5.451  -1.677
    1   AR   Ar  230   3.730   3.990   3.725
    1   AR   Ar  231   5.074   1.489   3.499
    1   AR   Ar  232   5.298   2.513   1.685
    1   AR   Ar  233   6.486   2.091   4.199
    1   AR   Ar  234   5.934   2.918   4.622
    1   AR   Ar  235   6.732   1.129   3.900
    1   AR   Ar  236   4.764   4.867   5.549
    1   AR   Ar  237   5.977   2.665   6.560
    1   AR   Ar  238   5.835   4.460   6.466
    1   AR   Ar  239   6.842   4.844   9.427
    1   AR   Ar  240   6.834   2.660   7.359
    1   AR   Ar  241   2.116   6.594  -0.862
    1   AR   Ar  242   5.377   5.810   0.693
    1   AR   Ar  243   4.696   5.309   3.103
    1   AR   Ar  244   1.013   5.475   0.439
    1   AR   Ar  245   3.660   1.078   1.670
    1   AR   Ar  246   5.575   6.658  -0.298
    1   AR   Ar  247   5.692   3.813   0.946
    1   AR   Ar  248   5.905   5.647  -0.511
    1   AR   Ar  249   4.476   5.829   1.131
    1   AR   Ar  250   4.793   5.835   3.982
    1   AR   Ar  251   4.838   4.486   4.320
    1   AR   Ar  252   3.673   5.021   3.176
    1   AR   Ar  253   6.889   3.500   6.505
    1   AR   Ar  254   2.631   2.430   9.072
    1   AR   Ar  255   4.011   5.108   9.604
    1   AR   Ar  256   5.687   4.758   3.481
    7.12000  7.12000 12.00000
Argon-slab step 3890
  256
    1   AR   Ar    1   4.811   2.054  -2.500
    1   AR   Ar    2   6.255   0.163   0.730
    1   AR   Ar    3   3.849   2.060  -1.698
    1   AR   Ar    4   1.710   0.891  -0.173
    1   AR   Ar    5   6.628   6.246   0.590
    1   AR   Ar    6   0.446   1.463   2.508
    1   AR   Ar    7   5.668   3.613   2.931
    1   AR   Ar    8   4.499   0.914   0.646
    1   AR   Ar    9   1.137   0.108   3.254
    1   AR   Ar   10   0.516   7.034   4.213
    1   AR   Ar   11   1.859   0.056   4.386
    1   AR   Ar   12   0.784   1.044   3.409
    1   AR   Ar   13   7.089   0.510   4.937
    1   AR   Ar   14   4.555   1.561   7.748
    1   AR   Ar   15   3.478   6.227   8.266
    1   AR   Ar   16   0.974   6.943   5.334
    1   AR   Ar   17   6.498   2.294   0.739
    1   AR   Ar   18   6.304   4.848  -1.158
    1   AR   Ar   19   3.614   3.278   0.026
    1   AR   Ar   20   6.262   4.125  -2.744
    1   AR   Ar   21   2.664   1.799   1.541
    1   AR   Ar   22   6.540   1.927   3.187
    1   AR   Ar   23   0.744   0.207   0.601
    1   AR   Ar   24   6.291   2.328   2.129
    1   AR   Ar   25   0.462   1.724   4.151
    1   AR   Ar   26   6.564   0.110   3.942
    1   AR   Ar   27   1.530   1.002   2.390
    1   AR   Ar   28   0.920   3.022   4.121
    1   AR   Ar   29   5.576   2.176   7.605
    1   AR   Ar   30   1.929   0.855   3.542
    1   AR   Ar   31   3.149   7.088   7.847
    1   AR   Ar   32   0.857   2.596   6.957
    1   AR   Ar   33   0.451   4.641  -0.002
    1   AR   Ar   34   0.746   4.579   2.405
    1   AR   Ar   35   6.168   5.625   1.429
    1   AR   Ar   36   5.902   2.487  -2.907
    1   AR   Ar   37   4.775   2.354   2.620
    1   AR   Ar   38   6.589   4.075   3.205
    1   AR   Ar   39   0.815   3.705   3.110
    1   AR   Ar   40   1.609   4.017   1.747
    1   AR   Ar   41   0.353   2.757   3.302
    1   AR   Ar   42   5.630   5.107   4.778
    1   AR   Ar   43   6.917   2.598   6.083
    1   AR   Ar   44   0.398   4.709   3.765
    1   AR   Ar   45   0.827   3.299   6.156
    1   AR   Ar   46   0.012   4.964   5.055
    1   AR   Ar   47   5.000   4.268   7.175
    1   AR   Ar   48   6.149   3.772   7.291
    1   AR   Ar   49   5.080   0.136  -1.213
    1   AR   Ar   50   4.488   5.306   0.244
    1   AR   Ar   51   6.438   4.644   1.484
    1   AR   Ar   52   6.009   3.239  -2.085
    1   AR   Ar   53   5.224   6.275   2.560
    1   AR   Ar   54   0.642   6.332   2.196
    1   AR   Ar   55   6.341   5.394   2.451
    1   AR   Ar   56   6.749   0.521   2.207
    1   AR   Ar   57   4.670   4.093   3.137
    1   AR   Ar   58   6.788   3.403   4.179
    1   AR   Ar   59   2.164   4.997   5.659
    1   AR   Ar   60   0.514   5.828   3.258
    1   AR   Ar   61   0.543   4.686   6.847
    1   AR   Ar   62   6.409   4.434   4.328
    1   AR   Ar   63   1.594   1.345   6.310
    1   AR   Ar   64   1.204   5.522   5.194
    1   AR   Ar   65   4.138   0.119   1.313
    1   AR   Ar   66   0.318   1.301   1.036
    1   AR   Ar   67   4.346   0.127  -0.360
    1   AR   Ar   68   1.109   1.640  -1.157
    1   AR   Ar   69   2.647   1.730  -0.066
    1   AR   Ar   70   0.638   0.657   1.855
    1   AR   Ar   71   2.866   1.252   3.400
    1   AR   Ar   72   4.124   6.918   2.333
    1   AR   Ar   73   4.065   0.348   3.364
    1   AR   Ar   74   1.337   0.950   4.511
    1   AR   Ar   75   3.305   0.484   5.137
    1   AR   Ar   76   1.595   0.256   1.448
    1   AR   Ar   77   1.882   6.401   5.159
    1   AR   Ar   78   0.533   6.217   6.004
    1   AR   Ar   79   3.802   6.008   6.058
    1   AR   Ar   80   3.705   5.303   5.179
    1   AR   Ar   81   2.446   5.969  -0.047
    1   AR   Ar   82   6.630   5.171   0.035
    1   AR   Ar   83   1.681   2.042   0.309
    1   AR   Ar   84   0.485   3.880   1.376
    1   AR   Ar   85   1.468   3.236   0.683
    1   AR   Ar   86   2.246   5.306   0.919
    1   AR   Ar   87   2.261   2.814   1.624
    1   AR   Ar   88   3.166   5.132   1.604
    1   AR   Ar   89   0.080   2.787   2.152
    1   AR   Ar   90   2.884   1.458   4.519
    1   AR   Ar   91   1.287   2.072   3.548
    1   AR   Ar   92   1.053   2.981   2.196
    1   AR   Ar   93   0.851   1.044   5.512
    1   AR   Ar   94   0.335   6.329  10.817
    1   AR   Ar   95   4.667   0.460   5.234
    1   AR   Ar   96   2.868   6.734   4.465
    1   AR   Ar   97   3.620   2.291  -0.401
    1   AR   Ar   98   1.458   4.398   3.368
    1   AR   Ar   99   6.842   1.138  -0.109
    1   AR   Ar  100   0.913   2.716  -0.782
    1   AR   Ar  101   3.611   6.029   2.284
    1   AR   Ar  102   3.865   1.732   2.572
    1   AR   Ar  103   1.508   4.464   0.711
    1   AR   Ar  104   3.373   4.371  -1.138
    1   AR   Ar  105   2.468   2.384   4.263
    1   AR   Ar  106   4.139   3.136   5.531
    1   AR   Ar  107   0.618   3.900   4.711
    1   AR   Ar  108   1.985   1.136   5.350
    1   AR   Ar  109   1.777   3.086   4.587
    1   AR   Ar  110   2.885   2.481   5.234
    1   AR   Ar  111   5.394   5.350   6.744
    1   AR   Ar  112   1.325   5.400   6.416
    1   AR   Ar  113   3.609   4.589  -0.038
    1   AR   Ar  114   2.382   0.378  -1.072
    1   AR   Ar  115   1.907   4.980  -0.482
    1   AR   Ar  116   6.153   0.348  -0.364
    1   AR   Ar  117   1.230   4.723   4.457
    1   AR   Ar  118   1.463   5.578   3.201
    1   AR   Ar  119   2.459   4.247   2.514
    1   AR   Ar  120   2.019   6.220   1.565
    1   AR   Ar  121   5.345   3.898   5.121
    1   AR   Ar  122   2.869   6.100   5.369
    1   AR   Ar  123   3.006   4.023   5.327
    1   AR   Ar  124   1.448   5.235   1.914
    1   AR   Ar  125   0.067   3.147   5.182
    1   AR   Ar  126   6.954   6.033   4.910
    1   AR   Ar  127   4.523   3.831   6.171
    1   AR   Ar  128   3.147   3.710   6.623
    1   AR   Ar  129   1.804   6.151   3.946
    1   AR   Ar  130   4.830   2.160  -3.582
    1   AR   Ar  131   3.941   3.319  -1.383
    1   AR   Ar  132   0.933   1.423   0.155
    1   AR   Ar  133   4.387   6.330   3.197
    1   AR   Ar  134   4.362   1.187   4.686
    1   AR   Ar  135   5.998   1.131   3.013
    1   AR   Ar  136   6.508   6.543   2.439
    1   AR   Ar  137   2.145   4.049   4.708
    1   AR   Ar  138   5.279   0.809   6.315
    1   AR   Ar  139   5.915   2.262   5.521
    1   AR   Ar  140   3.903   7.116   4.261
    1   AR   Ar  141   3.992   5.030   4.168
    1   AR   Ar  142   3.883   0.060   5.853
    1   AR   Ar  143   6.129   6.710   6.422
    1   AR   Ar  144   6.630   1.506   5.041
    1   AR   Ar  145   4.636   4.987  -0.865
    1   AR   Ar  146   3.101   2.343   2.331
    1   AR   Ar  147   4.959   2.381  -0.898
    1   AR   Ar  148   3.124   6.766  -1.027
    1   AR   Ar  149   2.331   1.375  -1.053
    1   AR   Ar  150   2.054   1.813   2.810
    1   AR   Ar  151   2.708   2.640   3.202
    1   AR   Ar  152   1.810   2.371  -1.472
    1   AR   Ar  153   5.075   0.424   4.294
    1   AR   Ar  154   3.720   1.652   3.881
    1   AR   Ar  155   6.938   4.070   5.687
    1   AR   Ar  156   2.724   4.216   3.615
    1   AR   Ar  157   1.228   4.398   5.463
    1   AR   Ar  158   0.274   1.576   6.191
    1   AR   Ar  159   3.702   0.702   7.092
    1   AR   Ar  160   1.441   1.990   4.650
    1   AR   Ar  161   5.259   4.443   2.249
    1   AR   Ar  162   4.928   5.887  -0.460
    1   AR   Ar  163   5.803   4.187  -0.317
    1   AR   Ar  164   2.568   5.755   2.349
    1   AR   Ar  165   4.480   2.169   0.096
    1   AR   Ar  166   3.050   3.337   4.269
    1   AR   Ar  167   5.001   0.074   2.910
    1   AR   Ar  168   5.630   4.221  -1.713
    1   AR   Ar  169   3.712   4.121   2.550
    1   AR   Ar  170   2.166   3.312   5.493
    1   AR   Ar  171   5.496   3.755   3.963
    1   AR   Ar  172   4.195   4.097   5.052
    1   AR   Ar  173   2.336   3.089   6.547
    1   AR   Ar  174   2.286   6.077   6.324
    1   AR   Ar  175   3.662   1.773   5.430
    1   AR   Ar  176   4.063   2.318   4.533
    1   AR   Ar  177   0.753   5.474  -0.850
    1   AR   Ar  178   3.446   5.787  -0.449
    1   AR   Ar  179   3.279   6.652   0.159
    1   AR   Ar  180   3.954   0.646  -3.969
    1   AR   Ar  181   0.130   5.479   1.883
    1   AR   Ar  182   1.803   6.378   2.610
    1   AR   Ar  183   4.442   5.232   2.030
    1   AR   Ar  184   4.929   0.042   0.543
    1   AR   Ar  185   2.799   4.867   4.567
    1   AR   Ar  186   2.658   5.452   3.570
    1   AR   Ar  187   3.166   6.558   3.283
    1   AR   Ar  188   2.853   6.862   1.956
    1   AR   Ar  189   4.985   2.861   6.646
    1   AR   Ar  190   3.729   6.113   4.101
    1   AR   Ar  191   2.569   6.279   7.654
    1   AR   Ar  192   3.989   6.363   5.014
    1   AR   Ar  193   3.105   5.981   1.028
    1   AR   Ar  194   4.742   3.968  -0.637
    1   AR   Ar  195   5.664   1.277   0.359
    1   AR   Ar  196   4.266   1.319  -0.485
    1   AR   Ar  197   3.354   1.348   0.592
    1   AR   Ar  198   6.345   1.306   1.313
    1   AR   Ar  199   2.933   0.480   2.811
    1   AR   Ar  200   5.906   2.879  -0.190
    1   AR   Ar  201   5.959   6.080   3.358
    1   AR   Ar  202   5.599   1.356   4.856
    1   AR   Ar  203   0.216   6.779   3.200
    1   AR   Ar  204   5.452   6.147   5.642
    1   AR   Ar  205   7.104   6.707   1.558
    1   AR   Ar  206   5.902   0.122   5.432
    1   AR   Ar  207   0.560   2.111   5.142
    1   AR   Ar  208   0.901   6.169   4.373
    1   AR   Ar  209   6.994   2.612  -2.015
    1   AR   Ar  210   2.315   6.711   0.701
    1   AR   Ar  211   0.030   3.485   0.458
    1   AR   Ar  212   6.579   3.576  -0.844
    1   AR   Ar  213   2.494   0.737   1.930
    1   AR   Ar  214   4.482   3.347   1.821
    1   AR   Ar  215   5.709   3.481   2.002
    1   AR   Ar  216   0.749   2.368   1.314
    1   AR   Ar  217   5.177   2.677   3.826
    1   AR   Ar  218   4.722   3.258   4.566
    1   AR   Ar  219   4.321   3.108   3.539
    1   AR   Ar  220   4.038   2.869   1.059
    1   AR   Ar  221   6.567   5.378   3.837
    1   AR   Ar  222   4.981   6.866   6.467
    1   AR   Ar  223   6.199   1.470   6.672
    1   AR   Ar  224   4.918   2.228   5.607
    1   AR   Ar  225   6.340   2.893   3.288
    1   AR   Ar  226   1.654   3.158   3.287
    1   AR   Ar  227   6.635   3.612   1.778
    1   AR   Ar  228   5.428   6.691   1.576
    1   AR   Ar  229   5.246   5.454  -1.661
    1   AR   Ar  230   3.747   3.969   3.750
    1   AR   Ar  231   5.046   1.511   3.486
    1   AR   Ar  232   5.285   2.512   1.690
    1   AR   Ar  233   6.506   2.091   4.184
    1   AR   Ar  234   5.929   2.914   4.605
    1   AR   Ar  235   6.751   1.143   3.908
    1   AR   Ar  236   4.749   4.852   5.546
    1   AR   Ar  237   5.965   2.661   6.616
    1   AR   Ar  238   5.816   4.518   6.470
    1   AR   Ar  239   6.868   4.857   9.449
    1   AR   Ar  240   6.832   2.658   7.366
    1   AR   Ar  241   2.106   6.522  -0.888
    1   AR   Ar  242   5.355   5.817   0.689
    1   AR   Ar  243   4.678   5.305   3.077
    1   AR   Ar  244   1.053   5.448   0.452
    1   AR   Ar  245   3.653   1.075   1.673
    1   AR   Ar  246   5.563   6.647  -0.307
    1   AR   Ar  247   5.672   3.791   0.956
    1   AR   Ar  248   5.876   5.648  -0.533
    1   AR   Ar  249   4.445   5.815   1.146
    1   AR   Ar  250   4.796   5.838   3.995
    1   AR   Ar  251   4.877   4.474   4.312
    1   AR   Ar  252   3.633   5.012   3.200
    1   AR   Ar  253   6.915   3.514   6.518
    1   AR   Ar  254   2.658   2.411   9.089
    1   AR   Ar  255   4.030   5.142   9.619
    1   AR   Ar  256   5.664   4.742   3.486
    7.12000  7.12000 12.00000
Argon-slab step 3895
  256
    1   AR   Ar    1   4.779   2.073  -2.518
    1   AR   Ar    2   6.254   0.167   0.733
    1   AR   Ar    3   3.848   2.064  -1.692
    1   AR   Ar    4   1.734   0.897  -0.173
    1   AR   Ar    5   6.664   6.236   0.585
    1   AR   Ar    6   0.475   1.466   2.523
    1   AR   Ar    7   5.658   3.630   2.949
    1   AR   Ar    8   4.488   0.930   0.620
    1   AR   Ar    9   1.170   0.135   3.267
    1   AR   Ar   10   0.522   7.067   4.222
    1   AR   Ar   11   1.855   0.092   4.365
    1   AR   Ar   12   0.781   1.049   3.374
    1   AR   Ar   13   7.059   0.507   4.920
    1   AR   Ar   14   4.526   1.525   7.717
    1   AR   Ar   15   3.461   6.209   8.301
    1   AR   Ar   16   0.984   6.914   5.366
    1   AR   Ar   17   6.460   2.288   0.731
    1   AR   Ar   18   6.325   4.830  -1.163
    1   AR   Ar   19   3.604   3.296   0.034
    1   AR   Ar   20   6.275   4.151  -2.736
    1   AR   Ar   21   2.634   1.772   1.551
    1   AR   Ar   22   6.559   1.925   3.159
    1   AR   Ar   23   0.744   0.182   0.588
    1   AR   Ar   24   6.298   2.334   2.163
    1   AR   Ar   25   0.487   1.711   4.169
    1   AR   Ar   26   6.561   0.107   3.963
    1   AR   Ar   27   1.503   1.031   2.369
    1   AR   Ar   28   0.933   3.023   4.118
    1   AR   Ar   29   5.604   2.141   7.617
    1   AR   Ar   30   1.916   0.853   3.536
    1   AR   Ar   31   3.192   7.083   7.797
    1   AR   Ar   32   0.877   2.579   6.939
    1   AR   Ar   33   0.487   4.613   0.048
    1   AR   Ar   34   0.724   4.507   2.438
    1   AR   Ar   35   6.180   5.647   1.443
    1   AR   Ar   36   5.895   2.509  -2.898
    1   AR   Ar   37   4.727   2.319   2.603
    1   AR   Ar   38   6.565   4.084   3.198
    1   AR   Ar   39   0.835   3.706   3.117
    1   AR   Ar   40   1.609   4.050   1.744
    1   AR   Ar   41   0.371   2.742   3.286
    1   AR   Ar   42   5.625   5.118   4.786
    1   AR   Ar   43   6.959   2.588   6.117
    1   AR   Ar   44   0.400   4.747   3.786
    1   AR   Ar   45   0.814   3.318   6.169
    1   AR   Ar   46   0.039   4.963   5.089
    1   AR   Ar   47   4.955   4.269   7.203
    1   AR   Ar   48   6.131   3.769   7.310
    1   AR   Ar   49   5.090   0.128  -1.232
    1   AR   Ar   50   4.509   5.317   0.227
    1   AR   Ar   51   6.456   4.660   1.517
    1   AR   Ar   52   6.018   3.234  -2.062
    1   AR   Ar   53   5.232   6.270   2.537
    1   AR   Ar   54   0.649   6.300   2.196
    1   AR   Ar   55   6.319   5.390   2.447
    1   AR   Ar   56   6.759   0.496   2.208
    1   AR   Ar   57   4.690   4.140   3.168
    1   AR   Ar   58   6.784   3.361   4.191
    1   AR   Ar   59   2.152   5.007   5.647
    1   AR   Ar   60   0.515   5.769   3.278
    1   AR   Ar   61   0.519   4.683   6.847
    1   AR   Ar   62   6.411   4.406   4.313
    1   AR   Ar   63   1.607   1.324   6.338
    1   AR   Ar   64   1.232   5.543   5.223
    1   AR   Ar   65   4.129   0.128   1.334
    1   AR   Ar   66   0.322   1.299   1.053
    1   AR   Ar   67   4.343   0.131  -0.365
    1   AR   Ar   68   1.082   1.661  -1.169
    1   AR   Ar   69   2.688   1.701  -0.094
    1   AR   Ar   70   0.650   0.656   1.861
    1   AR   Ar   71   2.881   1.279   3.428
    1   AR   Ar   72   4.111   6.955   2.313
    1   AR   Ar   73   4.080   0.357   3.411
    1   AR   Ar   74   1.336   0.932   4.510
    1   AR   Ar   75   3.270   0.495   5.120
    1   AR   Ar   76   1.593   0.239   1.468
    1   AR   Ar   77   1.885   6.435   5.169
    1   AR   Ar   78   0.528   6.205   5.972
    1   AR   Ar   79   3.774   6.017   6.074
    1   AR   Ar   80   3.663   5.284   5.134
    1   AR   Ar   81   2.446   6.004  -0.079
    1   AR   Ar   82   6.639   5.201   0.059
    1   AR   Ar   83   1.679   2.036   0.310
    1   AR   Ar   84   0.491   3.901   1.371
    1   AR   Ar   85   1.469   3.271   0.674
    1   AR   Ar   86   2.249   5.308   0.914
    1   AR   Ar   87   2.251   2.853   1.636
    1   AR   Ar   88   3.175   5.155   1.582
    1   AR   Ar   89   0.044   2.778   2.158
    1   AR   Ar   90   2.869   1.421   4.510
    1   AR   Ar   91   1.281   2.057   3.553
    1   AR   Ar   92   1.049   2.987   2.208
    1   AR   Ar   93   0.878   1.061   5.491
    1   AR   Ar   94   0.346   6.324  10.810
    1   AR   Ar   95   4.663   0.493   5.278
    1   AR   Ar   96   2.879   6.746   4.441
    1   AR   Ar   97   3.609   2.303  -0.425
    1   AR   Ar   98   1.474   4.347   3.394
    1   AR   Ar   99   6.828   1.106  -0.172
    1   AR   Ar  100   0.886   2.712  -0.778
    1   AR   Ar  101   3.595   6.043   2.295
    1   AR   Ar  102   3.868   1.728   2.572
    1   AR   Ar  103   1.529   4.457   0.699
    1   AR   Ar  104   3.386   4.399  -1.150
    1   AR   Ar  105   2.453   2.422   4.223
    1   AR   Ar  106   4.153   3.129   5.533
    1   AR   Ar  107   0.636   3.875   4.714
    1   AR   Ar  108   1.978   1.157   5.317
    1   AR   Ar  109   1.793   3.084   4.577
    1   AR   Ar  110   2.891   2.500   5.211
    1   AR   Ar  111   5.395   5.324   6.767
    1   AR   Ar  112   1.341   5.417   6.413
    1   AR   Ar  113   3.626   4.566  -0.042
    1   AR   Ar  114   2.367   0.376  -1.089
    1   AR   Ar  115   1.902   5.000  -0.487
    1   AR   Ar  116   6.157   0.351  -0.349
    1   AR   Ar  117   1.255   4.727   4.460
    1   AR   Ar  118   1.469   5.560   3.203
    1   AR   Ar  119   2.466   4.267   2.519
    1   AR   Ar  120   2.020   6.234   1.554
    1   AR   Ar  121   5.326   3.922   5.135
    1   AR   Ar  122   2.838   6.068   5.351
    1   AR   Ar  123   3.038   4.021   5.350
    1   AR   Ar  124   1.462   5.242   1.875
    1   AR   Ar  125   0.057   3.124   5.174
    1   AR   Ar  126   6.921   6.032   4.914
    1   AR   Ar  127   4.507   3.825   6.161
    1   AR   Ar  128   3.130   3.676   6.613
    1   AR   Ar  129   1.821   6.149   3.949
    1   AR   Ar  130   4.820   2.129  -3.578
    1   AR   Ar  131   3.965   3.335  -1.410
    1   AR   Ar  132   0.928   1.400   0.184
    1   AR   Ar  133   4.381   6.342   3.189
    1   AR   Ar  134   4.354   1.159   4.691
    1   AR   Ar  135   5.958   1.126   3.035
    1   AR   Ar  136   6.508   6.521   2.426
    1   AR   Ar  137   2.116   4.065   4.737
    1   AR   Ar  138   5.297   0.798   6.306
    1   AR   Ar  139   5.899   2.258   5.526
    1   AR   Ar  140   3.915   0.004   4.253
    1   AR   Ar  141   3.995   5.014   4.178
    1   AR   Ar  142   3.932   0.085   5.855
    1   AR   Ar  143   6.087   6.721   6.430
    1   AR   Ar  144   6.596   1.526   5.036
    1   AR   Ar  145   4.618   5.002  -0.875
    1   AR   Ar  146   3.123   2.322   2.334
    1   AR   Ar  147   4.930   2.406  -0.878
    1   AR   Ar  148   3.132   6.773  -1.037
    1   AR   Ar  149   2.306   1.360  -1.074
    1   AR   Ar  150   2.074   1.836   2.848
    1   AR   Ar  151   2.703   2.640   3.205
    1   AR   Ar  152   1.789   2.374  -1.481
    1   AR   Ar  153   5.081   0.397   4.294
    1   AR   Ar  154   3.727   1.657   3.867
    1   AR   Ar  155   6.927   4.052   5.651
    1   AR   Ar  156   2.699   4.209   3.611
    1   AR   Ar  157   1.282   4.377   5.464
    1   AR   Ar  158   0.245   1.592   6.208
    1   AR   Ar  159   3.688   0.702   7.080
    1   AR   Ar  160   1.444   2.012   4.666
    1   AR   Ar  161   5.312   4.441   2.237
    1   AR   Ar  162   4.920   5.873  -0.462
    1   AR   Ar  163   5.818   4.192  -0.292
    1   AR   Ar  164   2.577   5.768   2.320
    1   AR   Ar  165   4.454   2.157   0.090
    1   AR   Ar  166   3.009   3.314   4.272
    1   AR   Ar  167   5.017   0.109   2.958
    1   AR   Ar  168   5.632   4.198  -1.733
    1   AR   Ar  169   3.730   4.085   2.541
    1   AR   Ar  170   2.182   3.305   5.509
    1   AR   Ar  171   5.518   3.744   3.989
    1   AR   Ar  172   4.200   4.090   5.038
    1   AR   Ar  173   2.315   3.079   6.503
    1   AR   Ar  174   2.307   6.077   6.340
    1   AR   Ar  175   3.668   1.769   5.452
    1   AR   Ar  176   4.037   2.302   4.547
    1   AR   Ar  177   0.747   5.448  -0.828
    1   AR   Ar  178   3.451   5.796  -0.432
    1   AR   Ar  179   3.272   6.660   0.169
    1   AR   Ar  180   3.986   0.627  -3.978
    1   AR   Ar  181   0.105   5.470   1.896
    1   AR   Ar  182   1.788   6.389   2.603
    1   AR   Ar  183   4.421   5.220   2.070
    1   AR   Ar  184   4.933   0.023   0.537
    1   AR   Ar  185   2.786   4.886   4.561
    1   AR   Ar  186   2.637   5.491   3.583
    1   AR   Ar  187   3.186   6.559   3.276
    1   AR   Ar  188   2.869   6.872   1.944
    1   AR   Ar  189   4.965   2.848   6.659
    1   AR   Ar  190   3.699   6.108   4.118
    1   AR   Ar  191   2.569   6.293   7.659
    1   AR   Ar  192   3.994   6.348   5.014
    1   AR   Ar  193   3.113   5.952   1.026
    1   AR   Ar  194   4.739   3.968  -0.609
    1   AR   Ar  195   5.685   1.262   0.359
    1   AR   Ar  196   4.251   1.318  -0.502
    1   AR   Ar  197   3.354   1.340   0.600
    1   AR   Ar  198   6.305   1.332   1.315
    1   AR   Ar  199   2.930   0.459   2.809
    1   AR   Ar  200   5.879   2.905  -0.184
    1   AR   Ar  201   5.945   6.059   3.342
    1   AR   Ar  202   5.597   1.371   4.867
    1   AR   Ar  203   0.214   6.777   3.149
    1   AR   Ar  204   5.445   6.113   5.644
    1   AR   Ar  205   0.018   6.768   1.554
    1   AR   Ar  206   5.906   0.127   5.431
    1   AR   Ar  207   0.564   2.116   5.168
    1   AR   Ar  208   0.900   6.192   4.365
    1   AR   Ar  209   6.962   2.620  -2.018
    1   AR   Ar  210   2.304   6.682   0.692
    1   AR   Ar  211   0.009   3.468   0.490
    1   AR   Ar  212   6.585   3.594  -0.815
    1   AR   Ar  213   2.501   0.744   1.921
    1   AR   Ar  214   4.458   3.359   1.837
    1   AR   Ar  215   5.689   3.506   1.974
    1   AR   Ar  216   0.774   2.351   1.307
    1   AR   Ar  217   5.149   2.643   3.829
    1   AR   Ar  218   4.726   3.279   4.499
    1   AR   Ar  219   4.325   3.130   3.525
    1   AR   Ar  220   4.060   2.872   1.072
    1   AR   Ar  221   6.589   5.410   3.787
    1   AR   Ar  222   4.981   6.852   6.469
    1   AR   Ar  223   6.212   1.447   6.658
    1   AR   Ar  224   4.911   2.225   5.577
    1   AR   Ar  225   6.324   2.888   3.279
    1   AR   Ar  226   1.653   3.137   3.232
    1   AR   Ar  227   6.654   3.593   1.791
    1   AR   Ar  228   5.422   6.673   1.584
    1   AR   Ar  229   5.252   5.456  -1.643
    1   AR   Ar  230   3.768   3.954   3.776
    1   AR   Ar  231   5.017   1.533   3.474
    1   AR   Ar  232   5.273   2.511   1.694
    1   AR   Ar  233   6.525   2.102   4.174
    1   AR   Ar  234   5.922   2.911   4.590
    1   AR   Ar  235   6.752   1.151   3.915
    1   AR   Ar  236   4.724   4.839   5.564
    1   AR   Ar  237   5.963   2.655   6.672
    1   AR   Ar  238   5.805   4.561   6.467
    1   AR   Ar  239   6.906   4.857   9.467
    1   AR   Ar  240   6.830   2.656   7.371
    1   AR   Ar  241   2.090   6.444  -0.913
    1   AR   Ar  242   5.341   5.827   0.679
    1   AR   Ar  243   4.663   5.297   3.051
    1   AR   Ar  244   1.089   5.423   0.462
    1   AR   Ar  245   3.645   1.072   1.677
    1   AR   Ar  246   5.550   6.639  -0.311
    1   AR   Ar  247   5.653   3.769   0.966
    1   AR   Ar  248   5.872   5.626  -0.490
    1   AR   Ar  249   4.466   5.845   1.146
    1   AR   Ar  250   4.803   5.837   4.016
    1   AR   Ar  251   4.914   4.467   4.303
    1   AR   Ar  252   3.591   5.003   3.220
    1   AR   Ar  253   6.940   3.527   6.542
    1   AR   Ar  254   2.685   2.392   9.106
    1   AR   Ar  255   4.049   5.176   9.634
    1   AR   Ar  256   5.645   4.731   3.493
    7.12000  7.12000 12.00000
Argon-slab step 3900
  256
    1   AR   Ar    1   4.748   2.092  -2.533
    1   AR   Ar    2   6.241   0.150   0.724
    1   AR   Ar    3   3.849   2.068  -1.685
    1   AR   Ar    4   1.757   0.898  -0.175
    1   AR   Ar    5   6.688   6.254   0.600
    1   AR   Ar    6   0.498   1.477   2.531
    1   AR   Ar    7   5.642   3.649   2.977
    1   AR   Ar    8   4.473   0.954   0.594
    1   AR   Ar    9   1.208   0.152   3.279
    1   AR   Ar   10   0.523   7.117   4.226
    1   AR   Ar   11   1.854   0.120   4.343
    1   AR   Ar   12   0.778   1.056   3.349
    1   AR   Ar   13   7.033   0.536   4.918
    1   AR   Ar   14   4.498   1.490   7.684
    1   AR   Ar   15   3.445   6.188   8.338
    1   AR   Ar   16   0.992   6.890   5.393
    1   AR   Ar   17   6.421   2.281   0.722
    1   AR   Ar   18   6.345   4.812  -1.166
    1   AR   Ar   19   3.596   3.314   0.042
    1   AR   Ar   20   6.286   4.176  -2.727
    1   AR   Ar   21   2.604   1.745   1.560
    1   AR   Ar   22   6.587   1.921   3.127
    1   AR   Ar   23   0.743   0.158   0.577
    1   AR   Ar   24   6.290   2.334   2.197
    1   AR   Ar   25   0.512   1.700   4.189
    1   AR   Ar   26   6.554   0.133   3.961
    1   AR   Ar   27   1.477   1.060   2.350
    1   AR   Ar   28   0.941   3.001   4.117
    1   AR   Ar   29   5.631   2.106   7.628
    1   AR   Ar   30   1.902   0.853   3.530
    1   AR   Ar   31   3.239   7.087   7.746
    1   AR   Ar   32   0.888   2.563   6.934
    1   AR   Ar   33   0.522   4.584   0.097
    1   AR   Ar   34   0.702   4.438   2.467
    1   AR   Ar   35   6.181   5.655   1.446
    1   AR   Ar   36   5.847   2.488  -2.908
    1   AR   Ar   37   4.681   2.287   2.589
    1   AR   Ar   38   6.544   4.094   3.194
    1   AR   Ar   39   0.832   3.695   3.119
    1   AR   Ar   40   1.607   4.083   1.741
    1   AR   Ar   41   0.382   2.729   3.269
    1   AR   Ar   42   5.617   5.122   4.792
    1   AR   Ar   43   7.000   2.574   6.148
    1   AR   Ar   44   0.401   4.783   3.807
    1   AR   Ar   45   0.801   3.339   6.178
    1   AR   Ar   46   0.068   4.962   5.122
    1   AR   Ar   47   4.911   4.270   7.229
    1   AR   Ar   48   6.112   3.765   7.326
    1   AR   Ar   49   5.101   0.119  -1.249
    1   AR   Ar   50   4.522   5.317   0.216
    1   AR   Ar   51   6.475   4.671   1.551
    1   AR   Ar   52   6.016   3.236  -2.039
    1   AR   Ar   53   5.245   6.264   2.518
    1   AR   Ar   54   0.664   6.269   2.203
    1   AR   Ar   55   6.294   5.384   2.449
    1   AR   Ar   56   6.768   0.471   2.210
    1   AR   Ar   57   4.711   4.187   3.200
    1   AR   Ar   58   6.783   3.320   4.199
    1   AR   Ar   59   2.120   5.026   5.634
    1   AR   Ar   60   0.504   5.711   3.299
    1   AR   Ar   61   0.495   4.678   6.845
    1   AR   Ar   62   6.412   4.377   4.298
    1   AR   Ar   63   1.620   1.303   6.365
    1   AR   Ar   64   1.258   5.565   5.252
    1   AR   Ar   65   4.120   0.137   1.348
    1   AR   Ar   66   0.323   1.297   1.072
    1   AR   Ar   67   4.340   0.131  -0.367
    1   AR   Ar   68   1.053   1.679  -1.178
    1   AR   Ar   69   2.724   1.674  -0.125
    1   AR   Ar   70   0.661   0.651   1.865
    1   AR   Ar   71   2.892   1.311   3.454
    1   AR   Ar   72   4.098   6.993   2.299
    1   AR   Ar   73   4.098   0.378   3.430
    1   AR   Ar   74   1.326   0.919   4.511
    1   AR   Ar   75   3.235   0.506   5.099
    1   AR   Ar   76   1.592   0.221   1.488
    1   AR   Ar   77   1.889   6.468   5.176
    1   AR   Ar   78   0.521   6.189   5.942
    1   AR   Ar   79   3.746   6.026   6.088
    1   AR   Ar   80   3.621   5.265   5.093
    1   AR   Ar   81   2.447   6.031  -0.106
    1   AR   Ar   82   6.652   5.236   0.092
    1   AR   Ar   83   1.697   2.040   0.291
    1   AR   Ar   84   0.500   3.923   1.366
    1   AR   Ar   85   1.469   3.306   0.667
    1   AR   Ar   86   2.249   5.310   0.910
    1   AR   Ar   87   2.239   2.891   1.649
    1   AR   Ar   88   3.180   5.139   1.568
    1   AR   Ar   89   0.029   2.772   2.155
    1   AR   Ar   90   2.852   1.383   4.504
    1   AR   Ar   91   1.275   2.050   3.567
    1   AR   Ar   92   1.050   2.996   2.222
    1   AR   Ar   93   0.905   1.076   5.468
    1   AR   Ar   94   0.354   6.321  10.824
    1   AR   Ar   95   4.673   0.511   5.335
    1   AR   Ar   96   2.894   6.753   4.412
    1   AR   Ar   97   3.591   2.314  -0.454
    1   AR   Ar   98   1.507   4.313   3.427
    1   AR   Ar   99   6.811   1.077  -0.221
    1   AR   Ar  100   0.860   2.707  -0.775
    1   AR   Ar  101   3.580   6.053   2.306
    1   AR   Ar  102   3.857   1.695   2.565
    1   AR   Ar  103   1.549   4.449   0.688
    1   AR   Ar  104   3.400   4.426  -1.160
    1   AR   Ar  105   2.440   2.450   4.180
    1   AR   Ar  106   4.163   3.113   5.529
    1   AR   Ar  107   0.653   3.854   4.716
    1   AR   Ar  108   1.963   1.172   5.279
    1   AR   Ar  109   1.790   3.070   4.574
    1   AR   Ar  110   2.908   2.514   5.191
    1   AR   Ar  111   5.388   5.321   6.794
    1   AR   Ar  112   1.356   5.433   6.407
    1   AR   Ar  113   3.646   4.543  -0.047
    1   AR   Ar  114   2.350   0.366  -1.105
    1   AR   Ar  115   1.895   5.022  -0.490
    1   AR   Ar  116   6.163   0.352  -0.330
    1   AR   Ar  117   1.281   4.733   4.461
    1   AR   Ar  118   1.485   5.532   3.199
    1   AR   Ar  119   2.472   4.288   2.523
    1   AR   Ar  120   2.018   6.246   1.547
    1   AR   Ar  121   5.309   3.946   5.150
    1   AR   Ar  122   2.813   6.033   5.333
    1   AR   Ar  123   3.071   4.019   5.373
    1   AR   Ar  124   1.476   5.249   1.837
    1   AR   Ar  125   0.046   3.097   5.167
    1   AR   Ar  126   6.892   6.034   4.912
    1   AR   Ar  127   4.495   3.825   6.156
    1   AR   Ar  128   3.114   3.675   6.583
    1   AR   Ar  129   1.848   6.151   3.956
    1   AR   Ar  130   4.810   2.098  -3.577
    1   AR   Ar  131   3.989   3.350  -1.436
    1   AR   Ar  132   0.910   1.373   0.212
    1   AR   Ar  133   4.370   6.356   3.181
    1   AR   Ar  134   4.335   1.162   4.676
    1   AR   Ar  135   5.914   1.114   3.055
    1   AR   Ar  136   6.507   6.498   2.414
    1   AR   Ar  137   2.087   4.084   4.764
    1   AR   Ar  138   5.316   0.785   6.295
    1   AR   Ar  139   5.903   2.262   5.517
    1   AR   Ar  140   3.923   0.006   4.273
    1   AR   Ar  141   3.999   4.997   4.187
    1   AR   Ar  142   3.978   0.105   5.862
    1   AR   Ar  143   6.045   6.732   6.438
    1   AR   Ar  144   6.570   1.544   5.034
    1   AR   Ar  145   4.596   5.011  -0.888
    1   AR   Ar  146   3.132   2.324   2.335
    1   AR   Ar  147   4.900   2.431  -0.857
    1   AR   Ar  148   3.144   6.777  -1.046
    1   AR   Ar  149   2.278   1.359  -1.096
    1   AR   Ar  150   2.096   1.857   2.885
    1   AR   Ar  151   2.696   2.645   3.214
    1   AR   Ar  152   1.771   2.379  -1.489
    1   AR   Ar  153   5.087   0.371   4.292
    1   AR   Ar  154   3.736   1.657   3.847
    1   AR   Ar  155   6.915   4.038   5.611
    1   AR   Ar  156   2.673   4.203   3.608
    1   AR   Ar  157   1.334   4.355   5.468
    1   AR   Ar  158   0.216   1.608   6.224
    1   AR   Ar  159   3.674   0.702   7.067
    1   AR   Ar  160   1.454   2.034   4.678
    1   AR   Ar  161   5.364   4.444   2.228
    1   AR   Ar  162   4.905   5.867  -0.467
    1   AR   Ar  163   5.833   4.197  -0.267
    1   AR   Ar  164   2.587   5.776   2.293
    1   AR   Ar  165   4.435   2.146   0.093
    1   AR   Ar  166   2.968   3.293   4.278
    1   AR   Ar  167   5.036   0.145   3.006
    1   AR   Ar  168   5.633   4.176  -1.753
    1   AR   Ar  169   3.749   4.049   2.534
    1   AR   Ar  170   2.199   3.300   5.524
    1   AR   Ar  171   5.550   3.726   4.013
    1   AR   Ar  172   4.202   4.083   5.022
    1   AR   Ar  173   2.290   3.063   6.462
    1   AR   Ar  174   2.328   6.076   6.356
    1   AR   Ar  175   3.676   1.764   5.472
    1   AR   Ar  176   4.015   2.295   4.570
    1   AR   Ar  177   0.741   5.421  -0.805
    1   AR   Ar  178   3.459   5.803  -0.416
    1   AR   Ar  179   3.267   6.671   0.180
    1   AR   Ar  180   4.019   0.609  -3.987
    1   AR   Ar  181   0.081   5.458   1.907
    1   AR   Ar  182   1.770   6.405   2.598
    1   AR   Ar  183   4.398   5.206   2.105
    1   AR   Ar  184   4.944   7.116   0.533
    1   AR   Ar  185   2.774   4.907   4.555
    1   AR   Ar  186   2.617   5.530   3.595
    1   AR   Ar  187   3.206   6.560   3.266
    1   AR   Ar  188   2.886   6.877   1.933
    1   AR   Ar  189   4.939   2.837   6.671
    1   AR   Ar  190   3.665   6.093   4.121
    1   AR   Ar  191   2.565   6.308   7.661
    1   AR   Ar  192   4.003   6.335   5.027
    1   AR   Ar  193   3.134   5.963   1.048
    1   AR   Ar  194   4.735   3.966  -0.580
    1   AR   Ar  195   5.706   1.245   0.358
    1   AR   Ar  196   4.236   1.314  -0.521
    1   AR   Ar  197   3.359   1.331   0.612
    1   AR   Ar  198   6.265   1.358   1.317
    1   AR   Ar  199   2.929   0.433   2.809
    1   AR   Ar  200   5.851   2.931  -0.178
    1   AR   Ar  201   5.946   6.043   3.342
    1   AR   Ar  202   5.588   1.385   4.876
    1   AR   Ar  203   0.210   6.777   3.098
    1   AR   Ar  204   5.438   6.079   5.646
    1   AR   Ar  205   0.048   6.833   1.544
    1   AR   Ar  206   5.908   0.133   5.430
    1   AR   Ar  207   0.561   2.122   5.199
    1   AR   Ar  208   0.899   6.199   4.362
    1   AR   Ar  209   6.930   2.629  -2.020
    1   AR   Ar  210   2.293   6.659   0.681
    1   AR   Ar  211   7.107   3.452   0.521
    1   AR   Ar  212   6.591   3.611  -0.786
    1   AR   Ar  213   2.505   0.756   1.907
    1   AR   Ar  214   4.440   3.376   1.863
    1   AR   Ar  215   5.668   3.534   1.980
    1   AR   Ar  216   0.799   2.334   1.300
    1   AR   Ar  217   5.132   2.601   3.830
    1   AR   Ar  218   4.702   3.301   4.470
    1   AR   Ar  219   4.324   3.151   3.504
    1   AR   Ar  220   4.077   2.868   1.076
    1   AR   Ar  221   6.616   5.437   3.739
    1   AR   Ar  222   4.981   6.837   6.470
    1   AR   Ar  223   6.224   1.425   6.643
    1   AR   Ar  224   4.891   2.221   5.546
    1   AR   Ar  225   6.307   2.891   3.273
    1   AR   Ar  226   1.658   3.111   3.180
    1   AR   Ar  227   6.682   3.579   1.800
    1   AR   Ar  228   5.417   6.654   1.588
    1   AR   Ar  229   5.260   5.458  -1.623
    1   AR   Ar  230   3.785   3.950   3.799
    1   AR   Ar  231   4.987   1.556   3.464
    1   AR   Ar  232   5.261   2.512   1.696
    1   AR   Ar  233   6.542   2.123   4.168
    1   AR   Ar  234   5.911   2.907   4.577
    1   AR   Ar  235   6.750   1.152   3.920
    1   AR   Ar  236   4.688   4.828   5.577
    1   AR   Ar  237   5.968   2.647   6.727
    1   AR   Ar  238   5.811   4.570   6.452
    1   AR   Ar  239   6.945   4.857   9.485
    1   AR   Ar  240   6.828   2.655   7.373
    1   AR   Ar  241   2.071   6.369  -0.945
    1   AR   Ar  242   5.340   5.838   0.664
    1   AR   Ar  243   4.651   5.287   3.032
    1   AR   Ar  244   1.101   5.411   0.456
    1   AR   Ar  245   3.636   1.069   1.681
    1   AR   Ar  246   5.538   6.636  -0.312
    1   AR   Ar  247   5.635   3.747   0.976
    1   AR   Ar  248   5.880   5.597  -0.432
    1   AR   Ar  249   4.477   5.878   1.154
    1   AR   Ar  250   4.811   5.835   4.040
    1   AR   Ar  251   4.943   4.465   4.294
    1   AR   Ar  252   3.547   4.994   3.236
    1   AR   Ar  253   6.963   3.542   6.573
    1   AR   Ar  254   2.712   2.373   9.123
    1   AR   Ar  255   4.067   5.210   9.648
    1   AR   Ar  256   5.649   4.735   3.511
    7.12000  7.12000 12.00000
Argon-slab step 3905
  256
    1   AR   Ar    1   4.717   2.112  -2.543
    1   AR   Ar    2   6.226   0.133   0.717
    1   AR   Ar    3   3.851   2.072  -1.676
    1   AR   Ar    4   1.754   0.889  -0.177
    1   AR   Ar    5   6.710   6.271   0.616
    1   AR   Ar    6   0.514   1.499   2.525
    1   AR   Ar    7   5.620   3.668   3.008
    1   AR   Ar    8   4.457   0.980   0.566
    1   AR   Ar    9   1.245   0.155   3.289
    1   AR   Ar   10   0.524   0.055   4.227
    1   AR   Ar   11   1.860   0.135   4.319
    1   AR   Ar   12   0.778   1.062   3.340
    1   AR   Ar   13   7.010   0.586   4.928
    1   AR   Ar   14   4.470   1.454   7.651
    1   AR   Ar   15   3.428   6.187   8.363
    1   AR   Ar   16   0.997   6.875   5.415
    1   AR   Ar   17   6.383   2.275   0.714
    1   AR   Ar   18   6.363   4.794  -1.167
    1   AR   Ar   19   3.589   3.334   0.050
    1   AR   Ar   20   6.297   4.200  -2.716
    1   AR   Ar   21   2.574   1.720   1.567
    1   AR   Ar   22   6.621   1.911   3.093
    1   AR   Ar   23   0.743   0.136   0.567
    1   AR   Ar   24   6.267   2.328   2.229
    1   AR   Ar   25   0.520   1.698   4.213
    1   AR   Ar   26   6.548   0.154   3.960
    1   AR   Ar   27   1.457   1.088   2.335
    1   AR   Ar   28   0.936   2.977   4.110
    1   AR   Ar   29   5.659   2.071   7.637
    1   AR   Ar   30   1.890   0.860   3.525
    1   AR   Ar   31   3.288   7.095   7.696
    1   AR   Ar   32   0.887   2.554   6.950
    1   AR   Ar   33   0.557   4.553   0.147
    1   AR   Ar   34   0.680   4.376   2.490
    1   AR   Ar   35   6.165   5.638   1.433
    1   AR   Ar   36   5.798   2.466  -2.918
    1   AR   Ar   37   4.641   2.260   2.578
    1   AR   Ar   38   6.528   4.106   3.192
    1   AR   Ar   39   0.812   3.670   3.122
    1   AR   Ar   40   1.656   4.107   1.750
    1   AR   Ar   41   0.378   2.733   3.255
    1   AR   Ar   42   5.606   5.116   4.797
    1   AR   Ar   43   7.019   2.575   6.173
    1   AR   Ar   44   0.402   4.815   3.828
    1   AR   Ar   45   0.790   3.360   6.183
    1   AR   Ar   46   0.099   4.962   5.151
    1   AR   Ar   47   4.869   4.270   7.252
    1   AR   Ar   48   6.093   3.760   7.341
    1   AR   Ar   49   5.112   0.111  -1.264
    1   AR   Ar   50   4.524   5.304   0.217
    1   AR   Ar   51   6.470   4.669   1.592
    1   AR   Ar   52   5.967   3.270  -2.018
    1   AR   Ar   53   5.257   6.255   2.503
    1   AR   Ar   54   0.683   6.240   2.215
    1   AR   Ar   55   6.266   5.377   2.458
    1   AR   Ar   56   6.775   0.448   2.215
    1   AR   Ar   57   4.732   4.235   3.232
    1   AR   Ar   58   6.786   3.281   4.202
    1   AR   Ar   59   2.097   5.041   5.625
    1   AR   Ar   60   0.485   5.658   3.318
    1   AR   Ar   61   0.472   4.673   6.841
    1   AR   Ar   62   6.414   4.350   4.283
    1   AR   Ar   63   1.631   1.283   6.392
    1   AR   Ar   64   1.283   5.586   5.281
    1   AR   Ar   65   4.111   0.148   1.350
    1   AR   Ar   66   0.321   1.296   1.093
    1   AR   Ar   67   4.363   0.130  -0.325
    1   AR   Ar   68   1.024   1.695  -1.185
    1   AR   Ar   69   2.757   1.648  -0.160
    1   AR   Ar   70   0.670   0.641   1.866
    1   AR   Ar   71   2.896   1.341   3.474
    1   AR   Ar   72   4.085   7.030   2.298
    1   AR   Ar   73   4.118   0.411   3.424
    1   AR   Ar   74   1.296   0.910   4.528
    1   AR   Ar   75   3.201   0.518   5.078
    1   AR   Ar   76   1.592   0.201   1.508
    1   AR   Ar   77   1.895   6.500   5.180
    1   AR   Ar   78   0.511   6.166   5.915
    1   AR   Ar   79   3.718   6.036   6.100
    1   AR   Ar   80   3.579   5.249   5.058
    1   AR   Ar   81   2.446   6.054  -0.123
    1   AR   Ar   82   6.671   5.267   0.130
    1   AR   Ar   83   1.727   2.048   0.260
    1   AR   Ar   84   0.512   3.947   1.363
    1   AR   Ar   85   1.467   3.340   0.661
    1   AR   Ar   86   2.249   5.314   0.905
    1   AR   Ar   87   2.226   2.929   1.662
    1   AR   Ar   88   3.183   5.095   1.561
    1   AR   Ar   89   0.046   2.767   2.138
    1   AR   Ar   90   2.878   1.381   4.498
    1   AR   Ar   91   1.272   2.044   3.579
    1   AR   Ar   92   1.056   3.007   2.236
    1   AR   Ar   93   0.927   1.092   5.448
    1   AR   Ar   94   0.363   6.318  10.838
    1   AR   Ar   95   4.702   0.528   5.391
    1   AR   Ar   96   2.906   6.762   4.384
    1   AR   Ar   97   3.581   2.313  -0.468
    1   AR   Ar   98   1.551   4.289   3.466
    1   AR   Ar   99   6.774   1.050  -0.225
    1   AR   Ar  100   0.835   2.702  -0.771
    1   AR   Ar  101   3.571   6.063   2.317
    1   AR   Ar  102   3.835   1.663   2.559
    1   AR   Ar  103   1.568   4.441   0.677
    1   AR   Ar  104   3.415   4.452  -1.170
    1   AR   Ar  105   2.428   2.458   4.136
    1   AR   Ar  106   4.171   3.090   5.518
    1   AR   Ar  107   0.669   3.835   4.717
    1   AR   Ar  108   1.953   1.188   5.244
    1   AR   Ar  109   1.774   3.056   4.590
    1   AR   Ar  110   2.941   2.518   5.174
    1   AR   Ar  111   5.403   5.316   6.805
    1   AR   Ar  112   1.371   5.450   6.399
    1   AR   Ar  113   3.666   4.522  -0.053
    1   AR   Ar  114   2.332   0.347  -1.119
    1   AR   Ar  115   1.888   5.045  -0.492
    1   AR   Ar  116   6.160   0.347  -0.313
    1   AR   Ar  117   1.307   4.742   4.461
    1   AR   Ar  118   1.509   5.498   3.192
    1   AR   Ar  119   2.478   4.310   2.527
    1   AR   Ar  120   2.011   6.254   1.544
    1   AR   Ar  121   5.292   3.970   5.167
    1   AR   Ar  122   2.794   5.996   5.314
    1   AR   Ar  123   3.105   4.017   5.394
    1   AR   Ar  124   1.492   5.256   1.799
    1   AR   Ar  125   0.035   3.067   5.162
    1   AR   Ar  126   6.877   6.042   4.892
    1   AR   Ar  127   4.486   3.832   6.156
    1   AR   Ar  128   3.103   3.677   6.552
    1   AR   Ar  129   1.879   6.159   3.965
    1   AR   Ar  130   4.802   2.067  -3.579
    1   AR   Ar  131   4.015   3.365  -1.460
    1   AR   Ar  132   0.885   1.345   0.237
    1   AR   Ar  133   4.355   6.372   3.174
    1   AR   Ar  134   4.313   1.180   4.651
    1   AR   Ar  135   5.870   1.098   3.076
    1   AR   Ar  136   6.506   6.473   2.400
    1   AR   Ar  137   2.062   4.102   4.789
    1   AR   Ar  138   5.335   0.773   6.283
    1   AR   Ar  139   5.915   2.267   5.510
    1   AR   Ar  140   3.927   7.119   4.319
    1   AR   Ar  141   4.006   4.979   4.193
    1   AR   Ar  142   4.011   0.116   5.880
    1   AR   Ar  143   6.041   6.722   6.440
    1   AR   Ar  144   6.555   1.562   5.036
    1   AR   Ar  145   4.570   5.013  -0.902
    1   AR   Ar  146   3.134   2.327   2.331
    1   AR   Ar  147   4.869   2.456  -0.837
    1   AR   Ar  148   3.158   6.779  -1.052
    1   AR   Ar  149   2.249   1.369  -1.116
    1   AR   Ar  150   2.117   1.875   2.920
    1   AR   Ar  151   2.691   2.655   3.223
    1   AR   Ar  152   1.754   2.386  -1.497
    1   AR   Ar  153   5.092   0.345   4.289
    1   AR   Ar  154   3.753   1.654   3.823
    1   AR   Ar  155   6.938   4.057   5.575
    1   AR   Ar  156   2.647   4.198   3.606
    1   AR   Ar  157   1.382   4.330   5.475
    1   AR   Ar  158   0.188   1.619   6.239
    1   AR   Ar  159   3.662   0.703   7.053
    1   AR   Ar  160   1.469   2.055   4.688
    1   AR   Ar  161   5.383   4.439   2.251
    1   AR   Ar  162   4.898   5.861  -0.470
    1   AR   Ar  163   5.848   4.204  -0.241
    1   AR   Ar  164   2.596   5.781   2.268
    1   AR   Ar  165   4.422   2.136   0.103
    1   AR   Ar  166   2.932   3.282   4.285
    1   AR   Ar  167   5.056   0.180   3.054
    1   AR   Ar  168   5.633   4.158  -1.770
    1   AR   Ar  169   3.732   4.019   2.536
    1   AR   Ar  170   2.216   3.301   5.526
    1   AR   Ar  171   5.588   3.704   4.033
    1   AR   Ar  172   4.200   4.076   5.004
    1   AR   Ar  173   2.262   3.040   6.436
    1   AR   Ar  174   2.348   6.074   6.370
    1   AR   Ar  175   3.685   1.754   5.499
    1   AR   Ar  176   4.007   2.275   4.555
    1   AR   Ar  177   0.736   5.393  -0.779
    1   AR   Ar  178   3.469   5.807  -0.401
    1   AR   Ar  179   3.264   6.685   0.191
    1   AR   Ar  180   4.051   0.591  -3.997
    1   AR   Ar  181   0.057   5.444   1.916
    1   AR   Ar  182   1.750   6.424   2.594
    1   AR   Ar  183   4.419   5.198   2.076
    1   AR   Ar  184   4.957   7.086   0.530
    1   AR   Ar  185   2.761   4.927   4.547
    1   AR   Ar  186   2.601   5.568   3.605
    1   AR   Ar  187   3.226   6.562   3.256
    1   AR   Ar  188   2.904   6.879   1.921
    1   AR   Ar  189   4.909   2.826   6.682
    1   AR   Ar  190   3.630   6.070   4.115
    1   AR   Ar  191   2.558   6.320   7.662
    1   AR   Ar  192   4.015   6.325   5.051
    1   AR   Ar  193   3.154   5.988   1.063
    1   AR   Ar  194   4.741   3.982  -0.574
    1   AR   Ar  195   5.727   1.227   0.357
    1   AR   Ar  196   4.219   1.308  -0.540
    1   AR   Ar  197   3.368   1.320   0.628
    1   AR   Ar  198   6.243   1.371   1.308
    1   AR   Ar  199   2.931   0.404   2.812
    1   AR   Ar  200   5.824   2.958  -0.171
    1   AR   Ar  201   5.952   6.035   3.350
    1   AR   Ar  202   5.569   1.397   4.883
    1   AR   Ar  203   0.206   6.779   3.048
    1   AR   Ar  204   5.431   6.045   5.649
    1   AR   Ar  205   0.076   6.898   1.531
    1   AR   Ar  206   5.909   0.139   5.429
    1   AR   Ar  207   0.553   2.127   5.234
    1   AR   Ar  208   0.897   6.198   4.365
    1   AR   Ar  209   6.897   2.637  -2.023
    1   AR   Ar  210   2.289   6.671   0.688
    1   AR   Ar  211   7.083   3.435   0.552
    1   AR   Ar  212   6.597   3.629  -0.758
    1   AR   Ar  213   2.507   0.767   1.892
    1   AR   Ar  214   4.427   3.397   1.898
    1   AR   Ar  215   5.645   3.548   1.981
    1   AR   Ar  216   0.824   2.317   1.294
    1   AR   Ar  217   5.121   2.555   3.829
    1   AR   Ar  218   4.679   3.320   4.450
    1   AR   Ar  219   4.323   3.169   3.476
    1   AR   Ar  220   4.092   2.859   1.072
    1   AR   Ar  221   6.651   5.455   3.697
    1   AR   Ar  222   4.983   6.825   6.466
    1   AR   Ar  223   6.237   1.405   6.627
    1   AR   Ar  224   4.863   2.217   5.514
    1   AR   Ar  225   6.292   2.898   3.269
    1   AR   Ar  226   1.669   3.080   3.130
    1   AR   Ar  227   6.708   3.572   1.805
    1   AR   Ar  228   5.414   6.637   1.585
    1   AR   Ar  229   5.269   5.459  -1.601
    1   AR   Ar  230   3.792   3.978   3.806
    1   AR   Ar  231   4.955   1.579   3.454
    1   AR   Ar  232   5.250   2.513   1.697
    1   AR   Ar  233   6.559   2.154   4.161
    1   AR   Ar  234   5.896   2.901   4.568
    1   AR   Ar  235   6.749   1.150   3.923
    1   AR   Ar  236   4.654   4.819   5.580
    1   AR   Ar  237   5.976   2.640   6.780
    1   AR   Ar  238   5.833   4.550   6.424
    1   AR   Ar  239   6.983   4.857   9.503
    1   AR   Ar  240   6.828   2.655   7.374
    1   AR   Ar  241   2.048   6.298  -0.987
    1   AR   Ar  242   5.350   5.852   0.643
    1   AR   Ar  243   4.640   5.287   3.029
    1   AR   Ar  244   1.115   5.402   0.451
    1   AR   Ar  245   3.624   1.066   1.685
    1   AR   Ar  246   5.529   6.636  -0.311
    1   AR   Ar  247   5.617   3.725   0.995
    1   AR   Ar  248   5.867   5.580  -0.432
    1   AR   Ar  249   4.479   5.913   1.169
    1   AR   Ar  250   4.819   5.831   4.064
    1   AR   Ar  251   4.965   4.470   4.285
    1   AR   Ar  252   3.502   4.985   3.249
    1   AR   Ar  253   6.983   3.559   6.608
    1   AR   Ar  254   2.739   2.354   9.140
    1   AR   Ar  255   4.086   5.245   9.663
    1   AR   Ar  256   5.655   4.740   3.527
    7.12000  7.12000 12.00000
Argon-slab step 3910
  256
    1   AR   Ar    1   4.685   2.132  -2.549
    1   AR   Ar    2   6.210   0.116   0.714
    1   AR   Ar    3   3.854   2.078  -1.666
    1   AR   Ar    4   1.754   0.881  -0.181
    1   AR   Ar    5   6.732   6.288   0.633
    1   AR   Ar    6   0.519   1.532   2.505
    1   AR   Ar    7   5.592   3.687   3.038
    1   AR   Ar    8   4.440   1.006   0.538
    1   AR   Ar    9   1.277   0.143   3.296
    1   AR   Ar   10   0.526   0.116   4.226
    1   AR   Ar   11   1.872   0.137   4.293
    1   AR   Ar   12   0.780   1.064   3.347
    1   AR   Ar   13   6.987   0.637   4.937
    1   AR   Ar   14   4.442   1.418   7.618
    1   AR   Ar   15   3.408   6.219   8.370
    1   AR   Ar   16   0.998   6.872   5.430
    1   AR   Ar   17   6.345   2.270   0.704
    1   AR   Ar   18   6.381   4.774  -1.166
    1   AR   Ar   19   3.583   3.353   0.058
    1   AR   Ar   20   6.308   4.224  -2.704
    1   AR   Ar   21   2.546   1.702   1.572
    1   AR   Ar   22   6.662   1.898   3.063
    1   AR   Ar   23   0.742   0.116   0.560
    1   AR   Ar   24   6.232   2.322   2.256
    1   AR   Ar   25   0.515   1.704   4.240
    1   AR   Ar   26   6.540   0.169   3.958
    1   AR   Ar   27   1.446   1.118   2.324
    1   AR   Ar   28   0.918   2.951   4.096
    1   AR   Ar   29   5.686   2.035   7.647
    1   AR   Ar   30   1.879   0.874   3.522
    1   AR   Ar   31   3.337   7.101   7.648
    1   AR   Ar   32   0.885   2.545   6.958
    1   AR   Ar   33   0.590   4.520   0.196
    1   AR   Ar   34   0.655   4.330   2.498
    1   AR   Ar   35   6.147   5.629   1.417
    1   AR   Ar   36   5.748   2.445  -2.928
    1   AR   Ar   37   4.608   2.240   2.568
    1   AR   Ar   38   6.518   4.120   3.192
    1   AR   Ar   39   0.812   3.638   3.130
    1   AR   Ar   40   1.703   4.131   1.760
    1   AR   Ar   41   0.370   2.732   3.239
    1   AR   Ar   42   5.597   5.111   4.802
    1   AR   Ar   43   7.021   2.591   6.192
    1   AR   Ar   44   0.402   4.834   3.856
    1   AR   Ar   45   0.781   3.381   6.184
    1   AR   Ar   46   0.133   4.966   5.177
    1   AR   Ar   47   4.829   4.271   7.274
    1   AR   Ar   48   6.074   3.754   7.353
    1   AR   Ar   49   5.122   0.101  -1.277
    1   AR   Ar   50   4.483   5.305   0.217
    1   AR   Ar   51   6.460   4.658   1.635
    1   AR   Ar   52   5.922   3.291  -2.000
    1   AR   Ar   53   5.267   6.242   2.495
    1   AR   Ar   54   0.705   6.212   2.228
    1   AR   Ar   55   6.235   5.369   2.472
    1   AR   Ar   56   6.781   0.427   2.222
    1   AR   Ar   57   4.749   4.281   3.265
    1   AR   Ar   58   6.793   3.246   4.199
    1   AR   Ar   59   2.097   5.039   5.640
    1   AR   Ar   60   0.467   5.618   3.330
    1   AR   Ar   61   0.448   4.667   6.836
    1   AR   Ar   62   6.417   4.325   4.270
    1   AR   Ar   63   1.641   1.263   6.417
    1   AR   Ar   64   1.303   5.609   5.308
    1   AR   Ar   65   4.103   0.161   1.338
    1   AR   Ar   66   0.311   1.298   1.084
    1   AR   Ar   67   4.381   0.127  -0.300
    1   AR   Ar   68   0.993   1.707  -1.190
    1   AR   Ar   69   2.786   1.623  -0.196
    1   AR   Ar   70   0.675   0.627   1.866
    1   AR   Ar   71   2.888   1.367   3.483
    1   AR   Ar   72   4.072   7.064   2.312
    1   AR   Ar   73   4.134   0.448   3.411
    1   AR   Ar   74   1.256   0.908   4.533
    1   AR   Ar   75   3.168   0.528   5.056
    1   AR   Ar   76   1.594   0.180   1.529
    1   AR   Ar   77   1.906   6.531   5.179
    1   AR   Ar   78   0.496   6.134   5.891
    1   AR   Ar   79   3.689   6.046   6.111
    1   AR   Ar   80   3.545   5.236   5.040
    1   AR   Ar   81   2.423   6.093  -0.120
    1   AR   Ar   82   6.695   5.295   0.170
    1   AR   Ar   83   1.759   2.057   0.229
    1   AR   Ar   84   0.527   3.971   1.360
    1   AR   Ar   85   1.465   3.374   0.658
    1   AR   Ar   86   2.248   5.320   0.901
    1   AR   Ar   87   2.212   2.967   1.677
    1   AR   Ar   88   3.185   5.047   1.560
    1   AR   Ar   89   0.074   2.753   2.125
    1   AR   Ar   90   2.876   1.410   4.511
    1   AR   Ar   91   1.271   2.041   3.589
    1   AR   Ar   92   1.064   3.019   2.249
    1   AR   Ar   93   0.943   1.110   5.435
    1   AR   Ar   94   0.371   6.315  10.852
    1   AR   Ar   95   4.751   0.554   5.435
    1   AR   Ar   96   2.919   6.778   4.370
    1   AR   Ar   97   3.589   2.292  -0.458
    1   AR   Ar   98   1.600   4.271   3.506
    1   AR   Ar   99   6.787   1.073  -0.216
    1   AR   Ar  100   0.823   2.687  -0.775
    1   AR   Ar  101   3.569   6.072   2.328
    1   AR   Ar  102   3.811   1.635   2.562
    1   AR   Ar  103   1.588   4.433   0.667
    1   AR   Ar  104   3.432   4.479  -1.178
    1   AR   Ar  105   2.410   2.443   4.100
    1   AR   Ar  106   4.176   3.062   5.502
    1   AR   Ar  107   0.686   3.819   4.719
    1   AR   Ar  108   1.952   1.207   5.212
    1   AR   Ar  109   1.766   3.052   4.616
    1   AR   Ar  110   2.975   2.522   5.156
    1   AR   Ar  111   5.402   5.337   6.821
    1   AR   Ar  112   1.385   5.466   6.390
    1   AR   Ar  113   3.688   4.501  -0.060
    1   AR   Ar  114   2.313   0.323  -1.133
    1   AR   Ar  115   1.881   5.070  -0.491
    1   AR   Ar  116   6.142   0.327  -0.300
    1   AR   Ar  117   1.272   4.768   4.462
    1   AR   Ar  118   1.537   5.461   3.183
    1   AR   Ar  119   2.484   4.333   2.531
    1   AR   Ar  120   2.001   6.259   1.547
    1   AR   Ar  121   5.277   3.993   5.184
    1   AR   Ar  122   2.778   5.956   5.295
    1   AR   Ar  123   3.138   4.016   5.414
    1   AR   Ar  124   1.507   5.264   1.761
    1   AR   Ar  125   0.024   3.035   5.160
    1   AR   Ar  126   6.863   6.050   4.872
    1   AR   Ar  127   4.494   3.848   6.137
    1   AR   Ar  128   3.094   3.681   6.519
    1   AR   Ar  129   1.906   6.175   3.979
    1   AR   Ar  130   4.794   2.037  -3.584
    1   AR   Ar  131   4.040   3.380  -1.482
    1   AR   Ar  132   0.861   1.317   0.258
    1   AR   Ar  133   4.375   6.349   3.208
    1   AR   Ar  134   4.289   1.199   4.625
    1   AR   Ar  135   5.854   1.076   3.056
    1   AR   Ar  136   6.503   6.447   2.385
    1   AR   Ar  137   2.048   4.117   4.806
    1   AR   Ar  138   5.355   0.760   6.270
    1   AR   Ar  139   5.930   2.274   5.504
    1   AR   Ar  140   3.932   7.112   4.372
    1   AR   Ar  141   4.018   4.960   4.194
    1   AR   Ar  142   4.026   0.115   5.910
    1   AR   Ar  143   6.048   6.706   6.440
    1   AR   Ar  144   6.549   1.580   5.041
    1   AR   Ar  145   4.539   5.008  -0.918
    1   AR   Ar  146   3.134   2.312   2.333
    1   AR   Ar  147   4.838   2.482  -0.817
    1   AR   Ar  148   3.159   6.788  -1.039
    1   AR   Ar  149   2.217   1.385  -1.137
    1   AR   Ar  150   2.134   1.888   2.952
    1   AR   Ar  151   2.694   2.675   3.223
    1   AR   Ar  152   1.740   2.393  -1.505
    1   AR   Ar  153   5.096   0.320   4.286
    1   AR   Ar  154   3.780   1.649   3.794
    1   AR   Ar  155   6.960   4.073   5.540
    1   AR   Ar  156   2.624   4.193   3.608
    1   AR   Ar  157   1.416   4.303   5.490
    1   AR   Ar  158   0.161   1.612   6.240
    1   AR   Ar  159   3.652   0.707   7.036
    1   AR   Ar  160   1.484   2.072   4.696
    1   AR   Ar  161   5.388   4.420   2.278
    1   AR   Ar  162   4.889   5.869  -0.484
    1   AR   Ar  163   5.861   4.212  -0.215
    1   AR   Ar  164   2.600   5.781   2.246
    1   AR   Ar  165   4.413   2.126   0.119
    1   AR   Ar  166   2.902   3.283   4.295
    1   AR   Ar  167   5.081   0.214   3.101
    1   AR   Ar  168   5.628   4.154  -1.783
    1   AR   Ar  169   3.716   3.991   2.540
    1   AR   Ar  170   2.232   3.309   5.508
    1   AR   Ar  171   5.628   3.683   4.052
    1   AR   Ar  172   4.192   4.057   4.992
    1   AR   Ar  173   2.232   3.010   6.431
    1   AR   Ar  174   2.369   6.072   6.383
    1   AR   Ar  175   3.705   1.789   5.484
    1   AR   Ar  176   4.004   2.259   4.538
    1   AR   Ar  177   0.732   5.365  -0.751
    1   AR   Ar  178   3.482   5.809  -0.386
    1   AR   Ar  179   3.264   6.702   0.202
    1   AR   Ar  180   4.084   0.573  -4.006
    1   AR   Ar  181   0.034   5.429   1.924
    1   AR   Ar  182   1.729   6.443   2.591
    1   AR   Ar  183   4.436   5.189   2.035
    1   AR   Ar  184   4.973   7.054   0.531
    1   AR   Ar  185   2.742   4.946   4.535
    1   AR   Ar  186   2.592   5.600   3.612
    1   AR   Ar  187   3.246   6.564   3.244
    1   AR   Ar  188   2.923   6.877   1.908
    1   AR   Ar  189   4.878   2.817   6.691
    1   AR   Ar  190   3.598   6.039   4.105
    1   AR   Ar  191   2.549   6.330   7.662
    1   AR   Ar  192   4.027   6.316   5.079
    1   AR   Ar  193   3.173   6.019   1.076
    1   AR   Ar  194   4.746   3.997  -0.568
    1   AR   Ar  195   5.749   1.207   0.355
    1   AR   Ar  196   4.201   1.307  -0.564
    1   AR   Ar  197   3.379   1.309   0.646
    1   AR   Ar  198   6.230   1.394   1.317
    1   AR   Ar  199   2.932   0.387   2.807
    1   AR   Ar  200   5.797   2.987  -0.164
    1   AR   Ar  201   5.947   6.035   3.352
    1   AR   Ar  202   5.542   1.407   4.890
    1   AR   Ar  203   0.227   6.758   3.040
    1   AR   Ar  204   5.424   6.012   5.653
    1   AR   Ar  205   0.105   6.959   1.513
    1   AR   Ar  206   5.909   0.147   5.429
    1   AR   Ar  207   0.542   2.132   5.270
    1   AR   Ar  208   0.894   6.198   4.378
    1   AR   Ar  209   6.864   2.646  -2.025
    1   AR   Ar  210   2.287   6.697   0.696
    1   AR   Ar  211   7.059   3.417   0.583
    1   AR   Ar  212   6.603   3.646  -0.731
    1   AR   Ar  213   2.508   0.773   1.878
    1   AR   Ar  214   4.418   3.421   1.937
    1   AR   Ar  215   5.625   3.544   1.982
    1   AR   Ar  216   0.848   2.301   1.288
    1   AR   Ar  217   5.115   2.510   3.829
    1   AR   Ar  218   4.667   3.320   4.441
    1   AR   Ar  219   4.322   3.182   3.442
    1   AR   Ar  220   4.106   2.848   1.063
    1   AR   Ar  221   6.686   5.460   3.670
    1   AR   Ar  222   5.003   6.825   6.452
    1   AR   Ar  223   6.249   1.387   6.610
    1   AR   Ar  224   4.831   2.212   5.482
    1   AR   Ar  225   6.277   2.906   3.267
    1   AR   Ar  226   1.684   3.046   3.082
    1   AR   Ar  227   6.729   3.575   1.807
    1   AR   Ar  228   5.411   6.622   1.572
    1   AR   Ar  229   5.279   5.460  -1.578
    1   AR   Ar  230   3.795   4.010   3.816
    1   AR   Ar  231   4.920   1.598   3.444
    1   AR   Ar  232   5.239   2.517   1.697
    1   AR   Ar  233   6.575   2.169   4.156
    1   AR   Ar  234   5.878   2.889   4.565
    1   AR   Ar  235   6.750   1.151   3.925
    1   AR   Ar  236   4.622   4.813   5.584
    1   AR   Ar  237   5.985   2.633   6.827
    1   AR   Ar  238   5.852   4.523   6.407
    1   AR   Ar  239   7.021   4.857   9.522
    1   AR   Ar  240   6.831   2.655   7.375
    1   AR   Ar  241   2.020   6.231  -1.039
    1   AR   Ar  242   5.369   5.868   0.617
    1   AR   Ar  243   4.631   5.294   3.038
    1   AR   Ar  244   1.131   5.395   0.446
    1   AR   Ar  245   3.606   1.058   1.691
    1   AR   Ar  246   5.520   6.640  -0.308
    1   AR   Ar  247   5.600   3.704   1.006
    1   AR   Ar  248   5.856   5.561  -0.436
    1   AR   Ar  249   4.474   5.951   1.188
    1   AR   Ar  250   4.826   5.825   4.089
    1   AR   Ar  251   4.977   4.476   4.276
    1   AR   Ar  252   3.457   4.975   3.259
    1   AR   Ar  253   6.998   3.578   6.646
    1   AR   Ar  254   2.765   2.335   9.158
    1   AR   Ar  255   4.105   5.279   9.677
    1   AR   Ar  256   5.693   4.743   3.571
    7.12000  7.12000 12.00000
Argon-slab step 3915
  256
    1   AR   Ar    1   4.653   2.153  -2.550
    1   AR   Ar    2   6.193   0.100   0.715
    1   AR   Ar    3   3.858   2.085  -1.654
    1   AR   Ar    4   1.756   0.873  -0.186
    1   AR   Ar    5   6.754   6.305   0.651
    1   AR   Ar    6   0.517   1.575   2.478
    1   AR   Ar    7   5.559   3.702   3.063
    1   AR   Ar    8   4.423   1.031   0.509
    1   AR   Ar    9   1.300   0.115   3.299
    1   AR   Ar   10   0.528   0.142   4.239
    1   AR   Ar   11   1.889   0.131   4.268
    1   AR   Ar   12   0.782   1.064   3.365
    1   AR   Ar   13   6.966   0.685   4.946
    1   AR   Ar   14   4.414   1.382   7.583
    1   AR   Ar   15   3.389   6.251   8.377
    1   AR   Ar   16   0.996   6.878   5.441
    1   AR   Ar   17   6.306   2.267   0.694
    1   AR   Ar   18   6.397   4.755  -1.164
    1   AR   Ar   19   3.579   3.371   0.065
    1   AR   Ar   20   6.317   4.246  -2.691
    1   AR   Ar   21   2.519   1.698   1.573
    1   AR   Ar   22   6.707   1.880   3.039
    1   AR   Ar   23   0.741   0.097   0.555
    1   AR   Ar   24   6.191   2.318   2.277
    1   AR   Ar   25   0.507   1.709   4.269
    1   AR   Ar   26   6.530   0.175   3.956
    1   AR   Ar   27   1.446   1.147   2.316
    1   AR   Ar   28   0.894   2.924   4.081
    1   AR   Ar   29   5.713   1.997   7.657
    1   AR   Ar   30   1.846   0.886   3.532
    1   AR   Ar   31   3.384   7.101   7.607
    1   AR   Ar   32   0.884   2.542   6.942
    1   AR   Ar   33   0.620   4.484   0.245
    1   AR   Ar   34   0.622   4.335   2.477
    1   AR   Ar   35   6.128   5.626   1.400
    1   AR   Ar   36   5.698   2.424  -2.936
    1   AR   Ar   37   4.581   2.227   2.560
    1   AR   Ar   38   6.512   4.135   3.191
    1   AR   Ar   39   0.812   3.633   3.118
    1   AR   Ar   40   1.748   4.153   1.769
    1   AR   Ar   41   0.356   2.722   3.220
    1   AR   Ar   42   5.589   5.109   4.809
    1   AR   Ar   43   7.022   2.613   6.212
    1   AR   Ar   44   0.400   4.831   3.896
    1   AR   Ar   45   0.776   3.401   6.180
    1   AR   Ar   46   0.171   4.977   5.199
    1   AR   Ar   47   4.789   4.271   7.293
    1   AR   Ar   48   6.055   3.747   7.363
    1   AR   Ar   49   5.133   0.091  -1.287
    1   AR   Ar   50   4.436   5.299   0.225
    1   AR   Ar   51   6.449   4.641   1.679
    1   AR   Ar   52   5.886   3.287  -1.989
    1   AR   Ar   53   5.276   6.245   2.488
    1   AR   Ar   54   0.728   6.184   2.240
    1   AR   Ar   55   6.202   5.360   2.490
    1   AR   Ar   56   6.783   0.409   2.235
    1   AR   Ar   57   4.763   4.323   3.296
    1   AR   Ar   58   6.803   3.213   4.191
    1   AR   Ar   59   2.106   5.039   5.656
    1   AR   Ar   60   0.469   5.610   3.328
    1   AR   Ar   61   0.425   4.661   6.829
    1   AR   Ar   62   6.425   4.303   4.259
    1   AR   Ar   63   1.650   1.243   6.439
    1   AR   Ar   64   1.318   5.634   5.331
    1   AR   Ar   65   4.096   0.174   1.314
    1   AR   Ar   66   0.287   1.303   1.033
    1   AR   Ar   67   4.382   0.114  -0.333
    1   AR   Ar   68   0.962   1.715  -1.194
    1   AR   Ar   69   2.772   1.648  -0.183
    1   AR   Ar   70   0.678   0.614   1.866
    1   AR   Ar   71   2.872   1.389   3.483
    1   AR   Ar   72   4.057   7.097   2.337
    1   AR   Ar   73   4.144   0.488   3.398
    1   AR   Ar   74   1.211   0.907   4.520
    1   AR   Ar   75   3.137   0.537   5.035
    1   AR   Ar   76   1.597   0.158   1.549
    1   AR   Ar   77   1.923   6.559   5.174
    1   AR   Ar   78   0.478   6.095   5.870
    1   AR   Ar   79   3.659   6.057   6.120
    1   AR   Ar   80   3.563   5.225   5.049
    1   AR   Ar   81   2.403   6.126  -0.115
    1   AR   Ar   82   6.720   5.321   0.212
    1   AR   Ar   83   1.790   2.064   0.197
    1   AR   Ar   84   0.545   3.996   1.358
    1   AR   Ar   85   1.462   3.405   0.656
    1   AR   Ar   86   2.246   5.327   0.896
    1   AR   Ar   87   2.196   3.005   1.692
    1   AR   Ar   88   3.188   4.998   1.560
    1   AR   Ar   89   0.105   2.731   2.115
    1   AR   Ar   90   2.873   1.442   4.528
    1   AR   Ar   91   1.272   2.038   3.597
    1   AR   Ar   92   1.075   3.032   2.257
    1   AR   Ar   93   0.949   1.130   5.436
    1   AR   Ar   94   0.379   6.312  10.866
    1   AR   Ar   95   4.812   0.585   5.466
    1   AR   Ar   96   2.928   6.796   4.359
    1   AR   Ar   97   3.594   2.273  -0.451
    1   AR   Ar   98   1.644   4.253   3.546
    1   AR   Ar   99   6.807   1.104  -0.203
    1   AR   Ar  100   0.811   2.673  -0.778
    1   AR   Ar  101   3.575   6.081   2.339
    1   AR   Ar  102   3.789   1.593   2.572
    1   AR   Ar  103   1.608   4.426   0.658
    1   AR   Ar  104   3.451   4.505  -1.185
    1   AR   Ar  105   2.383   2.409   4.080
    1   AR   Ar  106   4.179   3.033   5.483
    1   AR   Ar  107   0.703   3.804   4.721
    1   AR   Ar  108   1.961   1.228   5.183
    1   AR   Ar  109   1.762   3.057   4.644
    1   AR   Ar  110   2.966   2.525   5.146
    1   AR   Ar  111   5.390   5.379   6.835
    1   AR   Ar  112   1.399   5.483   6.381
    1   AR   Ar  113   3.712   4.480  -0.068
    1   AR   Ar  114   2.292   0.297  -1.145
    1   AR   Ar  115   1.872   5.097  -0.489
    1   AR   Ar  116   6.119   0.304  -0.293
    1   AR   Ar  117   1.238   4.796   4.465
    1   AR   Ar  118   1.566   5.424   3.174
    1   AR   Ar  119   2.491   4.356   2.534
    1   AR   Ar  120   1.986   6.261   1.554
    1   AR   Ar  121   5.263   4.014   5.203
    1   AR   Ar  122   2.765   5.915   5.275
    1   AR   Ar  123   3.170   4.014   5.433
    1   AR   Ar  124   1.522   5.272   1.723
    1   AR   Ar  125   0.005   3.038   5.154
    1   AR   Ar  126   6.851   6.058   4.852
    1   AR   Ar  127   4.504   3.866   6.119
    1   AR   Ar  128   3.086   3.685   6.484
    1   AR   Ar  129   1.923   6.202   4.000
    1   AR   Ar  130   4.788   2.006  -3.592
    1   AR   Ar  131   4.066   3.395  -1.503
    1   AR   Ar  132   0.842   1.290   0.271
    1   AR   Ar  133   4.371   6.340   3.202
    1   AR   Ar  134   4.266   1.216   4.599
    1   AR   Ar  135   5.847   1.053   3.026
    1   AR   Ar  136   6.501   6.420   2.368
    1   AR   Ar  137   2.034   4.108   4.806
    1   AR   Ar  138   5.378   0.747   6.259
    1   AR   Ar  139   5.944   2.285   5.502
    1   AR   Ar  140   3.939   7.106   4.426
    1   AR   Ar  141   4.034   4.943   4.189
    1   AR   Ar  142   4.050   0.113   5.929
    1   AR   Ar  143   6.057   6.691   6.439
    1   AR   Ar  144   6.551   1.598   5.047
    1   AR   Ar  145   4.505   4.998  -0.934
    1   AR   Ar  146   3.135   2.289   2.337
    1   AR   Ar  147   4.805   2.508  -0.799
    1   AR   Ar  148   3.158   6.797  -1.019
    1   AR   Ar  149   2.184   1.404  -1.156
    1   AR   Ar  150   2.144   1.894   2.979
    1   AR   Ar  151   2.709   2.707   3.209
    1   AR   Ar  152   1.727   2.402  -1.512
    1   AR   Ar  153   5.098   0.297   4.283
    1   AR   Ar  154   3.815   1.641   3.758
    1   AR   Ar  155   6.980   4.080   5.508
    1   AR   Ar  156   2.623   4.181   3.608
    1   AR   Ar  157   1.429   4.275   5.519
    1   AR   Ar  158   0.136   1.592   6.231
    1   AR   Ar  159   3.654   0.719   7.048
    1   AR   Ar  160   1.498   2.083   4.704
    1   AR   Ar  161   5.388   4.421   2.311
    1   AR   Ar  162   4.880   5.893  -0.499
    1   AR   Ar  163   5.872   4.221  -0.189
    1   AR   Ar  164   2.602   5.787   2.246
    1   AR   Ar  165   4.408   2.116   0.142
    1   AR   Ar  166   2.876   3.294   4.308
    1   AR   Ar  167   5.111   0.246   3.146
    1   AR   Ar  168   5.615   4.176  -1.788
    1   AR   Ar  169   3.699   3.965   2.547
    1   AR   Ar  170   2.251   3.323   5.479
    1   AR   Ar  171   5.665   3.668   4.067
    1   AR   Ar  172   4.178   4.021   4.992
    1   AR   Ar  173   2.201   2.973   6.440
    1   AR   Ar  174   2.389   6.069   6.395
    1   AR   Ar  175   3.727   1.821   5.469
    1   AR   Ar  176   4.005   2.253   4.529
    1   AR   Ar  177   0.728   5.335  -0.720
    1   AR   Ar  178   3.496   5.810  -0.372
    1   AR   Ar  179   3.266   6.721   0.213
    1   AR   Ar  180   4.117   0.556  -4.015
    1   AR   Ar  181   0.013   5.414   1.931
    1   AR   Ar  182   1.709   6.464   2.590
    1   AR   Ar  183   4.447   5.175   2.000
    1   AR   Ar  184   4.992   7.021   0.537
    1   AR   Ar  185   2.717   4.962   4.518
    1   AR   Ar  186   2.596   5.623   3.612
    1   AR   Ar  187   3.265   6.566   3.233
    1   AR   Ar  188   2.942   6.873   1.894
    1   AR   Ar  189   4.848   2.808   6.699
    1   AR   Ar  190   3.578   6.013   4.095
    1   AR   Ar  191   2.543   6.343   7.666
    1   AR   Ar  192   4.039   6.304   5.109
    1   AR   Ar  193   3.190   6.053   1.089
    1   AR   Ar  194   4.753   4.002  -0.561
    1   AR   Ar  195   5.770   1.186   0.352
    1   AR   Ar  196   4.180   1.315  -0.593
    1   AR   Ar  197   3.391   1.298   0.665
    1   AR   Ar  198   6.218   1.415   1.328
    1   AR   Ar  199   2.925   0.410   2.765
    1   AR   Ar  200   5.769   3.016  -0.157
    1   AR   Ar  201   5.933   6.042   3.350
    1   AR   Ar  202   5.508   1.415   4.895
    1   AR   Ar  203   0.249   6.738   3.035
    1   AR   Ar  204   5.423   6.000   5.660
    1   AR   Ar  205   0.133   7.012   1.490
    1   AR   Ar  206   5.908   0.155   5.428
    1   AR   Ar  207   0.531   2.134   5.308
    1   AR   Ar  208   0.890   6.196   4.392
    1   AR   Ar  209   6.831   2.655  -2.027
    1   AR   Ar  210   2.287   6.731   0.703
    1   AR   Ar  211   7.035   3.400   0.614
    1   AR   Ar  212   6.610   3.662  -0.705
    1   AR   Ar  213   2.506   0.767   1.868
    1   AR   Ar  214   4.413   3.443   1.977
    1   AR   Ar  215   5.611   3.517   1.987
    1   AR   Ar  216   0.872   2.285   1.283
    1   AR   Ar  217   5.107   2.473   3.834
    1   AR   Ar  218   4.658   3.318   4.432
    1   AR   Ar  219   4.323   3.194   3.403
    1   AR   Ar  220   4.120   2.835   1.053
    1   AR   Ar  221   6.697   5.445   3.686
    1   AR   Ar  222   5.019   6.826   6.435
    1   AR   Ar  223   6.261   1.372   6.593
    1   AR   Ar  224   4.826   2.216   5.447
    1   AR   Ar  225   6.264   2.914   3.267
    1   AR   Ar  226   1.701   3.009   3.040
    1   AR   Ar  227   6.745   3.585   1.805
    1   AR   Ar  228   5.410   6.609   1.550
    1   AR   Ar  229   5.292   5.461  -1.554
    1   AR   Ar  230   3.791   4.023   3.821
    1   AR   Ar  231   4.882   1.609   3.431
    1   AR   Ar  232   5.229   2.521   1.696
    1   AR   Ar  233   6.583   2.110   4.160
    1   AR   Ar  234   5.859   2.865   4.571
    1   AR   Ar  235   6.752   1.156   3.927
    1   AR   Ar  236   4.597   4.819   5.579
    1   AR   Ar  237   5.988   2.628   6.866
    1   AR   Ar  238   5.864   4.494   6.382
    1   AR   Ar  239   7.060   4.857   9.540
    1   AR   Ar  240   6.841   2.656   7.379
    1   AR   Ar  241   1.991   6.166  -1.098
    1   AR   Ar  242   5.390   5.886   0.589
    1   AR   Ar  243   4.622   5.305   3.053
    1   AR   Ar  244   1.149   5.392   0.441
    1   AR   Ar  245   3.581   1.046   1.699
    1   AR   Ar  246   5.513   6.643  -0.303
    1   AR   Ar  247   5.584   3.685   1.005
    1   AR   Ar  248   5.848   5.539  -0.440
    1   AR   Ar  249   4.467   5.989   1.209
    1   AR   Ar  250   4.832   5.817   4.113
    1   AR   Ar  251   4.982   4.482   4.270
    1   AR   Ar  252   3.412   4.965   3.269
    1   AR   Ar  253   7.008   3.599   6.687
    1   AR   Ar  254   2.792   2.316   9.175
    1   AR   Ar  255   4.123   5.314   9.692
    1   AR   Ar  256   5.734   4.750   3.612
    7.12000  7.12000 12.00000
Argon-slab step 3920
  256
    1   AR   Ar    1   4.621   2.175  -2.547
    1   AR   Ar    2   6.175   0.085   0.722
    1   AR   Ar    3   3.864   2.092  -1.641
    1   AR   Ar    4   1.759   0.866  -0.191
    1   AR   Ar    5   6.776   6.322   0.671
    1   AR   Ar    6   0.510   1.622   2.449
    1   AR   Ar    7   5.526   3.714   3.083
    1   AR   Ar    8   4.409   1.055   0.479
    1   AR   Ar    9   1.315   0.074   3.300
    1   AR   Ar   10   0.529   0.159   4.255
    1   AR   Ar   11   1.906   0.123   4.244
    1   AR   Ar   12   0.782   1.064   3.385
    1   AR   Ar   13   6.949   0.726   4.954
    1   AR   Ar   14   4.387   1.346   7.548
    1   AR   Ar   15   3.370   6.283   8.383
    1   AR   Ar   16   0.990   6.890   5.450
    1   AR   Ar   17   6.268   2.266   0.683
    1   AR   Ar   18   6.412   4.735  -1.160
    1   AR   Ar   19   3.576   3.388   0.072
    1   AR   Ar   20   6.327   4.268  -2.676
    1   AR   Ar   21   2.492   1.707   1.570
    1   AR   Ar   22   6.757   1.859   3.021
    1   AR   Ar   23   0.740   0.079   0.551
    1   AR   Ar   24   6.147   2.318   2.293
    1   AR   Ar   25   0.499   1.715   4.300
    1   AR   Ar   26   6.520   0.173   3.955
    1   AR   Ar   27   1.455   1.177   2.310
    1   AR   Ar   28   0.896   2.934   4.082
    1   AR   Ar   29   5.739   1.958   7.669
    1   AR   Ar   30   1.823   0.914   3.543
    1   AR   Ar   31   3.426   7.086   7.575
    1   AR   Ar   32   0.887   2.536   6.917
    1   AR   Ar   33   0.647   4.447   0.293
    1   AR   Ar   34   0.583   4.361   2.441
    1   AR   Ar   35   6.109   5.626   1.381
    1   AR   Ar   36   5.647   2.404  -2.943
    1   AR   Ar   37   4.560   2.220   2.552
    1   AR   Ar   38   6.511   4.149   3.189
    1   AR   Ar   39   0.797   3.607   3.118
    1   AR   Ar   40   1.791   4.174   1.776
    1   AR   Ar   41   0.336   2.706   3.199
    1   AR   Ar   42   5.585   5.109   4.819
    1   AR   Ar   43   7.021   2.637   6.230
    1   AR   Ar   44   0.393   4.811   3.943
    1   AR   Ar   45   0.773   3.420   6.173
    1   AR   Ar   46   0.213   4.998   5.216
    1   AR   Ar   47   4.751   4.271   7.311
    1   AR   Ar   48   6.036   3.739   7.372
    1   AR   Ar   49   5.144   0.080  -1.295
    1   AR   Ar   50   4.387   5.291   0.236
    1   AR   Ar   51   6.437   4.620   1.723
    1   AR   Ar   52   5.857   3.262  -1.983
    1   AR   Ar   53   5.283   6.274   2.477
    1   AR   Ar   54   0.751   6.157   2.251
    1   AR   Ar   55   6.183   5.348   2.479
    1   AR   Ar   56   6.782   0.395   2.253
    1   AR   Ar   57   4.771   4.359   3.322
    1   AR   Ar   58   6.815   3.184   4.177
    1   AR   Ar   59   2.124   5.041   5.671
    1   AR   Ar   60   0.473   5.611   3.308
    1   AR   Ar   61   0.402   4.653   6.821
    1   AR   Ar   62   6.441   4.285   4.254
    1   AR   Ar   63   1.659   1.224   6.460
    1   AR   Ar   64   1.331   5.660   5.348
    1   AR   Ar   65   4.090   0.185   1.284
    1   AR   Ar   66   0.247   1.309   1.003
    1   AR   Ar   67   4.382   0.101  -0.368
    1   AR   Ar   68   0.961   1.717  -1.144
    1   AR   Ar   69   2.756   1.672  -0.171
    1   AR   Ar   70   0.684   0.610   1.870
    1   AR   Ar   71   2.854   1.405   3.479
    1   AR   Ar   72   4.041   0.009   2.369
    1   AR   Ar   73   4.149   0.529   3.387
    1   AR   Ar   74   1.227   0.901   4.496
    1   AR   Ar   75   3.107   0.544   5.014
    1   AR   Ar   76   1.601   0.137   1.569
    1   AR   Ar   77   1.945   6.587   5.165
    1   AR   Ar   78   0.457   6.050   5.850
    1   AR   Ar   79   3.628   6.068   6.129
    1   AR   Ar   80   3.592   5.216   5.065
    1   AR   Ar   81   2.385   6.154  -0.111
    1   AR   Ar   82   6.746   5.345   0.254
    1   AR   Ar   83   1.819   2.071   0.165
    1   AR   Ar   84   0.564   4.021   1.355
    1   AR   Ar   85   1.457   3.431   0.657
    1   AR   Ar   86   2.246   5.336   0.891
    1   AR   Ar   87   2.180   3.042   1.709
    1   AR   Ar   88   3.190   4.951   1.561
    1   AR   Ar   89   0.133   2.702   2.107
    1   AR   Ar   90   2.871   1.479   4.548
    1   AR   Ar   91   1.286   2.026   3.610
    1   AR   Ar   92   1.085   3.047   2.258
    1   AR   Ar   93   0.953   1.151   5.454
    1   AR   Ar   94   0.388   6.309  10.880
    1   AR   Ar   95   4.872   0.619   5.481
    1   AR   Ar   96   2.932   6.815   4.349
    1   AR   Ar   97   3.597   2.257  -0.450
    1   AR   Ar   98   1.675   4.237   3.586
    1   AR   Ar   99   6.831   1.139  -0.188
    1   AR   Ar  100   0.799   2.662  -0.780
    1   AR   Ar  101   3.589   6.089   2.347
    1   AR   Ar  102   3.769   1.539   2.590
    1   AR   Ar  103   1.631   4.424   0.651
    1   AR   Ar  104   3.472   4.532  -1.191
    1   AR   Ar  105   2.350   2.362   4.069
    1   AR   Ar  106   4.178   3.006   5.463
    1   AR   Ar  107   0.720   3.792   4.723
    1   AR   Ar  108   1.977   1.248   5.155
    1   AR   Ar  109   1.757   3.070   4.667
    1   AR   Ar  110   2.930   2.526   5.140
    1   AR   Ar  111   5.377   5.422   6.848
    1   AR   Ar  112   1.412   5.499   6.374
    1   AR   Ar  113   3.736   4.461  -0.077
    1   AR   Ar  114   2.269   0.271  -1.156
    1   AR   Ar  115   1.862   5.126  -0.485
    1   AR   Ar  116   6.100   0.289  -0.290
    1   AR   Ar  117   1.210   4.824   4.474
    1   AR   Ar  118   1.595   5.386   3.165
    1   AR   Ar  119   2.499   4.381   2.539
    1   AR   Ar  120   1.969   6.260   1.563
    1   AR   Ar  121   5.245   4.030   5.216
    1   AR   Ar  122   2.762   5.879   5.264
    1   AR   Ar  123   3.201   4.012   5.449
    1   AR   Ar  124   1.537   5.280   1.687
    1   AR   Ar  125   0.006   3.014   5.167
    1   AR   Ar  126   6.840   6.065   4.831
    1   AR   Ar  127   4.514   3.883   6.102
    1   AR   Ar  128   3.078   3.689   6.448
    1   AR   Ar  129   1.918   6.215   4.007
    1   AR   Ar  130   4.782   1.975  -3.603
    1   AR   Ar  131   4.093   3.410  -1.522
    1   AR   Ar  132   0.837   1.263   0.263
    1   AR   Ar  133   4.367   6.333   3.196
    1   AR   Ar  134   4.246   1.228   4.577
    1   AR   Ar  135   5.842   1.031   2.997
    1   AR   Ar  136   6.498   6.392   2.351
    1   AR   Ar  137   2.031   4.092   4.788
    1   AR   Ar  138   5.408   0.736   6.257
    1   AR   Ar  139   5.957   2.299   5.503
    1   AR   Ar  140   3.949   7.104   4.478
    1   AR   Ar  141   4.053   4.932   4.181
    1   AR   Ar  142   4.083   0.111   5.938
    1   AR   Ar  143   6.069   6.675   6.436
    1   AR   Ar  144   6.558   1.618   5.056
    1   AR   Ar  145   4.468   4.986  -0.950
    1   AR   Ar  146   3.128   2.273   2.336
    1   AR   Ar  147   4.771   2.536  -0.781
    1   AR   Ar  148   3.159   6.804  -0.997
    1   AR   Ar  149   2.151   1.425  -1.174
    1   AR   Ar  150   2.147   1.899   2.999
    1   AR   Ar  151   2.734   2.750   3.187
    1   AR   Ar  152   1.714   2.412  -1.519
    1   AR   Ar  153   5.099   0.275   4.281
    1   AR   Ar  154   3.852   1.630   3.714
    1   AR   Ar  155   6.998   4.078   5.479
    1   AR   Ar  156   2.658   4.157   3.606
    1   AR   Ar  157   1.424   4.246   5.564
    1   AR   Ar  158   0.113   1.569   6.220
    1   AR   Ar  159   3.663   0.745   7.057
    1   AR   Ar  160   1.509   2.087   4.711
    1   AR   Ar  161   5.385   4.439   2.347
    1   AR   Ar  162   4.871   5.925  -0.509
    1   AR   Ar  163   5.880   4.233  -0.161
    1   AR   Ar  164   2.601   5.792   2.252
    1   AR   Ar  165   4.407   2.104   0.171
    1   AR   Ar  166   2.853   3.311   4.322
    1   AR   Ar  167   5.144   0.274   3.189
    1   AR   Ar  168   5.596   4.220  -1.787
    1   AR   Ar  169   3.680   3.942   2.559
    1   AR   Ar  170   2.276   3.340   5.452
    1   AR   Ar  171   5.695   3.660   4.079
    1   AR   Ar  172   4.161   3.989   4.992
    1   AR   Ar  173   2.169   2.935   6.455
    1   AR   Ar  174   2.409   6.065   6.404
    1   AR   Ar  175   3.750   1.853   5.454
    1   AR   Ar  176   4.008   2.256   4.525
    1   AR   Ar  177   0.725   5.305  -0.688
    1   AR   Ar  178   3.511   5.810  -0.358
    1   AR   Ar  179   3.243   6.809   0.251
    1   AR   Ar  180   4.149   0.539  -4.024
    1   AR   Ar  181   7.114   5.400   1.939
    1   AR   Ar  182   1.691   6.484   2.591
    1   AR   Ar  183   4.452   5.153   1.979
    1   AR   Ar  184   5.010   6.988   0.548
    1   AR   Ar  185   2.727   4.955   4.547
    1   AR   Ar  186   2.612   5.636   3.605
    1   AR   Ar  187   3.282   6.571   3.222
    1   AR   Ar  188   2.961   6.867   1.878
    1   AR   Ar  189   4.818   2.799   6.705
    1   AR   Ar  190   3.594   6.027   4.094
    1   AR   Ar  191   2.540   6.362   7.679
    1   AR   Ar  192   4.051   6.291   5.140
    1   AR   Ar  193   3.207   6.086   1.105
    1   AR   Ar  194   4.767   3.972  -0.550
    1   AR   Ar  195   5.791   1.164   0.348
    1   AR   Ar  196   4.158   1.323  -0.622
    1   AR   Ar  197   3.401   1.288   0.683
    1   AR   Ar  198   6.223   1.390   1.314
    1   AR   Ar  199   2.920   0.435   2.726
    1   AR   Ar  200   5.749   3.039  -0.152
    1   AR   Ar  201   5.913   6.051   3.347
    1   AR   Ar  202   5.472   1.423   4.900
    1   AR   Ar  203   0.270   6.719   3.032
    1   AR   Ar  204   5.426   6.001   5.669
    1   AR   Ar  205   0.155   7.051   1.457
    1   AR   Ar  206   5.905   0.164   5.427
    1   AR   Ar  207   0.521   2.134   5.345
    1   AR   Ar  208   0.885   6.194   4.408
    1   AR   Ar  209   6.797   2.664  -2.029
    1   AR   Ar  210   2.288   6.771   0.712
    1   AR   Ar  211   7.010   3.384   0.646
    1   AR   Ar  212   6.618   3.677  -0.680
    1   AR   Ar  213   2.502   0.749   1.860
    1   AR   Ar  214   4.412   3.463   2.017
    1   AR   Ar  215   5.628   3.517   2.006
    1   AR   Ar  216   0.896   2.270   1.278
    1   AR   Ar  217   5.088   2.455   3.852
    1   AR   Ar  218   4.653   3.313   4.422
    1   AR   Ar  219   4.314   3.179   3.387
    1   AR   Ar  220   4.135   2.821   1.042
    1   AR   Ar  221   6.693   5.426   3.703
    1   AR   Ar  222   5.031   6.826   6.416
    1   AR   Ar  223   6.238   1.372   6.573
    1   AR   Ar  224   4.863   2.235   5.410
    1   AR   Ar  225   6.247   2.925   3.280
    1   AR   Ar  226   1.723   2.972   3.006
    1   AR   Ar  227   6.757   3.600   1.802
    1   AR   Ar  228   5.410   6.597   1.520
    1   AR   Ar  229   5.305   5.461  -1.528
    1   AR   Ar  230   3.781   4.021   3.821
    1   AR   Ar  231   4.841   1.607   3.414
    1   AR   Ar  232   5.218   2.527   1.695
    1   AR   Ar  233   6.590   2.064   4.161
    1   AR   Ar  234   5.842   2.828   4.586
    1   AR   Ar  235   6.758   1.159   3.925
    1   AR   Ar  236   4.575   4.833   5.565
    1   AR   Ar  237   5.985   2.625   6.896
    1   AR   Ar  238   5.874   4.461   6.344
    1   AR   Ar  239   7.098   4.857   9.558
    1   AR   Ar  240   6.859   2.657   7.385
    1   AR   Ar  241   1.961   6.101  -1.158
    1   AR   Ar  242   5.413   5.906   0.559
    1   AR   Ar  243   4.614   5.320   3.070
    1   AR   Ar  244   1.169   5.391   0.436
    1   AR   Ar  245   3.555   1.033   1.707
    1   AR   Ar  246   5.505   6.643  -0.298
    1   AR   Ar  247   5.599   3.680   1.006
    1   AR   Ar  248   5.844   5.516  -0.444
    1   AR   Ar  249   4.458   6.030   1.230
    1   AR   Ar  250   4.838   5.808   4.137
    1   AR   Ar  251   4.983   4.483   4.270
    1   AR   Ar  252   3.400   4.945   3.265
    1   AR   Ar  253   7.020   3.610   6.722
    1   AR   Ar  254   2.819   2.297   9.192
    1   AR   Ar  255   4.142   5.348   9.706
    1   AR   Ar  256   5.758   4.750   3.639
    7.12000  7.12000 12.00000
Argon-slab step 3925
  256
    1   AR   Ar    1   4.591   2.192  -2.542
    1   AR   Ar    2   6.154   0.071   0.734
    1   AR   Ar    3   3.870   2.100  -1.625
    1   AR   Ar    4   1.764   0.860  -0.198
    1   AR   Ar    5   6.799   6.340   0.694
    1   AR   Ar    6   0.501   1.670   2.418
    1   AR   Ar    7   5.493   3.720   3.099
    1   AR   Ar    8   4.398   1.075   0.449
    1   AR   Ar    9   1.324   0.028   3.301
    1   AR   Ar   10   0.529   0.173   4.269
    1   AR   Ar   11   1.925   0.114   4.224
    1   AR   Ar   12   0.780   1.063   3.407
    1   AR   Ar   13   6.938   0.755   4.960
    1   AR   Ar   14   4.377   1.360   7.540
    1   AR   Ar   15   3.351   6.316   8.390
    1   AR   Ar   16   0.981   6.906   5.456
    1   AR   Ar   17   6.229   2.266   0.670
    1   AR   Ar   18   6.425   4.714  -1.155
    1   AR   Ar   19   3.574   3.403   0.079
    1   AR   Ar   20   6.335   4.289  -2.660
    1   AR   Ar   21   2.466   1.725   1.565
    1   AR   Ar   22   6.801   1.842   3.006
    1   AR   Ar   23   0.740   0.064   0.547
    1   AR   Ar   24   6.101   2.321   2.307
    1   AR   Ar   25   0.491   1.721   4.332
    1   AR   Ar   26   6.508   0.164   3.954
    1   AR   Ar   27   1.471   1.206   2.307
    1   AR   Ar   28   0.915   2.966   4.091
    1   AR   Ar   29   5.764   1.917   7.681
    1   AR   Ar   30   1.806   0.952   3.554
    1   AR   Ar   31   3.440   7.072   7.553
    1   AR   Ar   32   0.890   2.531   6.888
    1   AR   Ar   33   0.669   4.409   0.340
    1   AR   Ar   34   0.552   4.390   2.406
    1   AR   Ar   35   6.090   5.628   1.364
    1   AR   Ar   36   5.661   2.408  -2.924
    1   AR   Ar   37   4.539   2.229   2.534
    1   AR   Ar   38   6.513   4.161   3.185
    1   AR   Ar   39   0.786   3.586   3.124
    1   AR   Ar   40   1.830   4.194   1.782
    1   AR   Ar   41   0.313   2.682   3.177
    1   AR   Ar   42   5.583   5.112   4.831
    1   AR   Ar   43   7.020   2.661   6.248
    1   AR   Ar   44   0.375   4.783   3.987
    1   AR   Ar   45   0.773   3.439   6.163
    1   AR   Ar   46   0.260   5.026   5.229
    1   AR   Ar   47   4.714   4.271   7.326
    1   AR   Ar   48   6.017   3.730   7.378
    1   AR   Ar   49   5.154   0.069  -1.300
    1   AR   Ar   50   4.357   5.278   0.237
    1   AR   Ar   51   6.422   4.595   1.766
    1   AR   Ar   52   5.830   3.229  -1.979
    1   AR   Ar   53   5.289   6.300   2.472
    1   AR   Ar   54   0.772   6.127   2.260
    1   AR   Ar   55   6.161   5.337   2.472
    1   AR   Ar   56   6.779   0.382   2.275
    1   AR   Ar   57   4.771   4.388   3.339
    1   AR   Ar   58   6.827   3.155   4.160
    1   AR   Ar   59   2.147   5.042   5.685
    1   AR   Ar   60   0.493   5.618   3.285
    1   AR   Ar   61   0.378   4.645   6.811
    1   AR   Ar   62   6.470   4.273   4.256
    1   AR   Ar   63   1.667   1.206   6.479
    1   AR   Ar   64   1.341   5.681   5.357
    1   AR   Ar   65   4.085   0.195   1.251
    1   AR   Ar   66   0.193   1.314   0.992
    1   AR   Ar   67   4.383   0.088  -0.402
    1   AR   Ar   68   0.961   1.713  -1.095
    1   AR   Ar   69   2.739   1.692  -0.159
    1   AR   Ar   70   0.698   0.620   1.882
    1   AR   Ar   71   2.841   1.416   3.478
    1   AR   Ar   72   4.023   0.040   2.402
    1   AR   Ar   73   4.149   0.571   3.378
    1   AR   Ar   74   1.243   0.897   4.464
    1   AR   Ar   75   3.078   0.551   4.995
    1   AR   Ar   76   1.606   0.116   1.589
    1   AR   Ar   77   1.970   6.614   5.154
    1   AR   Ar   78   0.433   6.004   5.830
    1   AR   Ar   79   3.596   6.079   6.136
    1   AR   Ar   80   3.624   5.208   5.086
    1   AR   Ar   81   2.368   6.178  -0.111
    1   AR   Ar   82   6.771   5.365   0.296
    1   AR   Ar   83   1.846   2.077   0.133
    1   AR   Ar   84   0.586   4.047   1.352
    1   AR   Ar   85   1.449   3.449   0.658
    1   AR   Ar   86   2.248   5.348   0.885
    1   AR   Ar   87   2.162   3.080   1.727
    1   AR   Ar   88   3.191   4.905   1.564
    1   AR   Ar   89   0.157   2.667   2.098
    1   AR   Ar   90   2.871   1.518   4.569
    1   AR   Ar   91   1.316   1.999   3.633
    1   AR   Ar   92   1.094   3.063   2.248
    1   AR   Ar   93   0.954   1.174   5.478
    1   AR   Ar   94   0.396   6.306  10.893
    1   AR   Ar   95   4.922   0.652   5.475
    1   AR   Ar   96   2.930   6.832   4.338
    1   AR   Ar   97   3.598   2.244  -0.452
    1   AR   Ar   98   1.694   4.222   3.626
    1   AR   Ar   99   6.855   1.173  -0.171
    1   AR   Ar  100   0.793   2.669  -0.809
    1   AR   Ar  101   3.610   6.095   2.353
    1   AR   Ar  102   3.752   1.476   2.615
    1   AR   Ar  103   1.658   4.430   0.646
    1   AR   Ar  104   3.493   4.557  -1.196
    1   AR   Ar  105   2.316   2.312   4.060
    1   AR   Ar  106   4.174   2.980   5.442
    1   AR   Ar  107   0.737   3.781   4.726
    1   AR   Ar  108   1.997   1.267   5.130
    1   AR   Ar  109   1.749   3.085   4.681
    1   AR   Ar  110   2.893   2.527   5.133
    1   AR   Ar  111   5.364   5.465   6.860
    1   AR   Ar  112   1.423   5.515   6.369
    1   AR   Ar  113   3.762   4.443  -0.088
    1   AR   Ar  114   2.244   0.247  -1.166
    1   AR   Ar  115   1.852   5.155  -0.479
    1   AR   Ar  116   6.079   0.283  -0.304
    1   AR   Ar  117   1.195   4.854   4.492
    1   AR   Ar  118   1.625   5.349   3.156
    1   AR   Ar  119   2.509   4.408   2.545
    1   AR   Ar  120   1.952   6.258   1.571
    1   AR   Ar  121   5.221   4.039   5.224
    1   AR   Ar  122   2.796   5.867   5.286
    1   AR   Ar  123   3.230   4.012   5.461
    1   AR   Ar  124   1.549   5.286   1.653
    1   AR   Ar  125   0.006   2.993   5.182
    1   AR   Ar  126   6.811   6.074   4.840
    1   AR   Ar  127   4.524   3.900   6.084
    1   AR   Ar  128   3.074   3.700   6.423
    1   AR   Ar  129   1.897   6.217   4.005
    1   AR   Ar  130   4.777   1.943  -3.614
    1   AR   Ar  131   4.120   3.424  -1.539
    1   AR   Ar  132   0.846   1.234   0.237
    1   AR   Ar  133   4.362   6.330   3.190
    1   AR   Ar  134   4.229   1.234   4.559
    1   AR   Ar  135   5.840   1.013   2.969
    1   AR   Ar  136   6.496   6.364   2.333
    1   AR   Ar  137   2.030   4.082   4.763
    1   AR   Ar  138   5.449   0.727   6.272
    1   AR   Ar  139   5.964   2.294   5.496
    1   AR   Ar  140   3.962   7.106   4.526
    1   AR   Ar  141   4.072   4.928   4.171
    1   AR   Ar  142   4.113   0.107   5.948
    1   AR   Ar  143   6.083   6.660   6.432
    1   AR   Ar  144   6.565   1.642   5.071
    1   AR   Ar  145   4.431   4.974  -0.964
    1   AR   Ar  146   3.119   2.265   2.333
    1   AR   Ar  147   4.754   2.558  -0.774
    1   AR   Ar  148   3.160   6.809  -0.972
    1   AR   Ar  149   2.116   1.445  -1.190
    1   AR   Ar  150   2.142   1.905   3.012
    1   AR   Ar  151   2.764   2.799   3.166
    1   AR   Ar  152   1.702   2.421  -1.526
    1   AR   Ar  153   5.099   0.254   4.281
    1   AR   Ar  154   3.885   1.619   3.664
    1   AR   Ar  155   7.004   4.083   5.463
    1   AR   Ar  156   2.705   4.133   3.605
    1   AR   Ar  157   1.409   4.217   5.616
    1   AR   Ar  158   0.093   1.546   6.206
    1   AR   Ar  159   3.675   0.783   7.055
    1   AR   Ar  160   1.515   2.085   4.717
    1   AR   Ar  161   5.379   4.467   2.384
    1   AR   Ar  162   4.852   5.950  -0.522
    1   AR   Ar  163   5.887   4.246  -0.133
    1   AR   Ar  164   2.579   5.781   2.269
    1   AR   Ar  165   4.410   2.093   0.203
    1   AR   Ar  166   2.829   3.328   4.338
    1   AR   Ar  167   5.177   0.297   3.231
    1   AR   Ar  168   5.575   4.272  -1.783
    1   AR   Ar  169   3.656   3.922   2.576
    1   AR   Ar  170   2.309   3.360   5.437
    1   AR   Ar  171   5.715   3.655   4.089
    1   AR   Ar  172   4.141   3.965   4.993
    1   AR   Ar  173   2.136   2.897   6.470
    1   AR   Ar  174   2.430   6.061   6.412
    1   AR   Ar  175   3.774   1.882   5.441
    1   AR   Ar  176   4.013   2.269   4.522
    1   AR   Ar  177   0.723   5.275  -0.653
    1   AR   Ar  178   3.527   5.810  -0.343
    1   AR   Ar  179   3.223   6.897   0.287
    1   AR   Ar  180   4.182   0.522  -4.032
    1   AR   Ar  181   7.097   5.390   1.946
    1   AR   Ar  182   1.677   6.503   2.592
    1   AR   Ar  183   4.429   5.151   1.969
    1   AR   Ar  184   5.026   6.956   0.563
    1   AR   Ar  185   2.734   4.947   4.574
    1   AR   Ar  186   2.637   5.644   3.594
    1   AR   Ar  187   3.298   6.578   3.212
    1   AR   Ar  188   2.967   6.870   1.864
    1   AR   Ar  189   4.788   2.792   6.710
    1   AR   Ar  190   3.613   6.037   4.093
    1   AR   Ar  191   2.537   6.381   7.689
    1   AR   Ar  192   4.062   6.275   5.171
    1   AR   Ar  193   3.222   6.119   1.122
    1   AR   Ar  194   4.781   3.942  -0.540
    1   AR   Ar  195   5.812   1.142   0.343
    1   AR   Ar  196   4.137   1.331  -0.651
    1   AR   Ar  197   3.408   1.279   0.700
    1   AR   Ar  198   6.235   1.351   1.295
    1   AR   Ar  199   2.920   0.459   2.696
    1   AR   Ar  200   5.717   3.036  -0.176
    1   AR   Ar  201   5.892   6.062   3.342
    1   AR   Ar  202   5.434   1.430   4.904
    1   AR   Ar  203   0.290   6.703   3.030
    1   AR   Ar  204   5.429   6.002   5.680
    1   AR   Ar  205   0.166   7.072   1.413
    1   AR   Ar  206   5.903   0.173   5.426
    1   AR   Ar  207   0.512   2.132   5.383
    1   AR   Ar  208   0.880   6.192   4.424
    1   AR   Ar  209   6.763   2.673  -2.031
    1   AR   Ar  210   2.287   6.816   0.723
    1   AR   Ar  211   6.984   3.368   0.679
    1   AR   Ar  212   6.627   3.691  -0.656
    1   AR   Ar  213   2.493   0.726   1.849
    1   AR   Ar  214   4.416   3.480   2.054
    1   AR   Ar  215   5.655   3.518   2.033
    1   AR   Ar  216   0.920   2.254   1.275
    1   AR   Ar  217   5.072   2.447   3.876
    1   AR   Ar  218   4.652   3.303   4.410
    1   AR   Ar  219   4.299   3.146   3.386
    1   AR   Ar  220   4.147   2.813   1.037
    1   AR   Ar  221   6.668   5.405   3.704
    1   AR   Ar  222   5.040   6.827   6.395
    1   AR   Ar  223   6.205   1.378   6.554
    1   AR   Ar  224   4.902   2.249   5.371
    1   AR   Ar  225   6.235   2.945   3.296
    1   AR   Ar  226   1.749   2.934   2.982
    1   AR   Ar  227   6.768   3.613   1.799
    1   AR   Ar  228   5.413   6.586   1.483
    1   AR   Ar  229   5.319   5.461  -1.499
    1   AR   Ar  230   3.769   4.013   3.819
    1   AR   Ar  231   4.803   1.591   3.391
    1   AR   Ar  232   5.207   2.533   1.693
    1   AR   Ar  233   6.592   2.046   4.159
    1   AR   Ar  234   5.826   2.781   4.605
    1   AR   Ar  235   6.770   1.147   3.917
    1   AR   Ar  236   4.554   4.849   5.550
    1   AR   Ar  237   5.998   2.635   6.873
    1   AR   Ar  238   5.884   4.427   6.306
    1   AR   Ar  239   0.016   4.857   9.576
    1   AR   Ar  240   6.886   2.659   7.394
    1   AR   Ar  241   1.932   6.036  -1.216
    1   AR   Ar  242   5.434   5.926   0.529
    1   AR   Ar  243   4.610   5.324   3.054
    1   AR   Ar  244   1.190   5.393   0.431
    1   AR   Ar  245   3.528   1.018   1.715
    1   AR   Ar  246   5.497   6.638  -0.293
    1   AR   Ar  247   5.623   3.696   1.003
    1   AR   Ar  248   5.843   5.491  -0.448
    1   AR   Ar  249   4.448   6.063   1.237
    1   AR   Ar  250   4.842   5.797   4.160
    1   AR   Ar  251   4.981   4.480   4.284
    1   AR   Ar  252   3.400   4.926   3.264
    1   AR   Ar  253   7.038   3.607   6.750
    1   AR   Ar  254   2.829   2.276   9.215
    1   AR   Ar  255   4.160   5.383   9.720
    1   AR   Ar  256   5.755   4.741   3.646
    7.12000  7.12000 12.00000
Argon-slab step 3930
  256
    1   AR   Ar    1   4.571   2.190  -2.532
    1   AR   Ar    2   6.131   0.058   0.749
    1   AR   Ar    3   3.878   2.108  -1.608
    1   AR   Ar    4   1.772   0.855  -0.207
    1   AR   Ar    5   6.821   6.359   0.718
    1   AR   Ar    6   0.497   1.718   2.384
    1   AR   Ar    7   5.463   3.719   3.110
    1   AR   Ar    8   4.391   1.088   0.418
    1   AR   Ar    9   1.328   7.103   3.307
    1   AR   Ar   10   0.526   0.184   4.281
    1   AR   Ar   11   1.944   0.108   4.206
    1   AR   Ar   12   0.772   1.062   3.429
    1   AR   Ar   13   6.935   0.769   4.963
    1   AR   Ar   14   4.370   1.378   7.534
    1   AR   Ar   15   3.335   6.336   8.404
    1   AR   Ar   16   0.970   6.921   5.461
    1   AR   Ar   17   6.205   2.269   0.662
    1   AR   Ar   18   6.436   4.693  -1.149
    1   AR   Ar   19   3.573   3.415   0.086
    1   AR   Ar   20   6.343   4.309  -2.643
    1   AR   Ar   21   2.441   1.746   1.560
    1   AR   Ar   22   6.836   1.826   2.994
    1   AR   Ar   23   0.742   0.050   0.541
    1   AR   Ar   24   6.056   2.324   2.321
    1   AR   Ar   25   0.484   1.727   4.366
    1   AR   Ar   26   6.494   0.148   3.953
    1   AR   Ar   27   1.491   1.236   2.307
    1   AR   Ar   28   0.930   2.995   4.095
    1   AR   Ar   29   5.790   1.875   7.693
    1   AR   Ar   30   1.796   0.994   3.563
    1   AR   Ar   31   3.418   7.072   7.536
    1   AR   Ar   32   0.891   2.526   6.857
    1   AR   Ar   33   0.687   4.371   0.384
    1   AR   Ar   34   0.554   4.411   2.393
    1   AR   Ar   35   6.072   5.630   1.347
    1   AR   Ar   36   5.692   2.420  -2.898
    1   AR   Ar   37   4.517   2.243   2.514
    1   AR   Ar   38   6.517   4.172   3.177
    1   AR   Ar   39   0.778   3.569   3.133
    1   AR   Ar   40   1.854   4.209   1.784
    1   AR   Ar   41   0.288   2.653   3.157
    1   AR   Ar   42   5.583   5.117   4.845
    1   AR   Ar   43   7.019   2.683   6.265
    1   AR   Ar   44   0.332   4.765   3.993
    1   AR   Ar   45   0.774   3.456   6.149
    1   AR   Ar   46   0.310   5.058   5.239
    1   AR   Ar   47   4.678   4.271   7.340
    1   AR   Ar   48   5.999   3.721   7.383
    1   AR   Ar   49   5.164   0.057  -1.303
    1   AR   Ar   50   4.358   5.260   0.223
    1   AR   Ar   51   6.404   4.570   1.807
    1   AR   Ar   52   5.803   3.196  -1.975
    1   AR   Ar   53   5.294   6.324   2.470
    1   AR   Ar   54   0.756   6.132   2.272
    1   AR   Ar   55   6.135   5.326   2.470
    1   AR   Ar   56   6.776   0.369   2.299
    1   AR   Ar   57   4.761   4.409   3.346
    1   AR   Ar   58   6.840   3.129   4.142
    1   AR   Ar   59   2.173   5.043   5.698
    1   AR   Ar   60   0.538   5.616   3.289
    1   AR   Ar   61   0.355   4.636   6.799
    1   AR   Ar   62   6.510   4.267   4.264
    1   AR   Ar   63   1.674   1.187   6.496
    1   AR   Ar   64   1.353   5.674   5.356
    1   AR   Ar   65   4.079   0.203   1.218
    1   AR   Ar   66   0.132   1.320   0.990
    1   AR   Ar   67   4.385   0.074  -0.435
    1   AR   Ar   68   0.963   1.701  -1.046
    1   AR   Ar   69   2.727   1.707  -0.149
    1   AR   Ar   70   0.717   0.640   1.900
    1   AR   Ar   71   2.848   1.429   3.492
    1   AR   Ar   72   4.004   0.071   2.435
    1   AR   Ar   73   4.155   0.608   3.383
    1   AR   Ar   74   1.258   0.899   4.433
    1   AR   Ar   75   3.050   0.557   4.976
    1   AR   Ar   76   1.610   0.098   1.609
    1   AR   Ar   77   1.997   6.639   5.140
    1   AR   Ar   78   0.409   5.957   5.809
    1   AR   Ar   79   3.563   6.090   6.143
    1   AR   Ar   80   3.658   5.201   5.110
    1   AR   Ar   81   2.352   6.199  -0.114
    1   AR   Ar   82   6.795   5.382   0.336
    1   AR   Ar   83   1.865   2.084   0.103
    1   AR   Ar   84   0.591   4.072   1.319
    1   AR   Ar   85   1.438   3.459   0.662
    1   AR   Ar   86   2.253   5.361   0.876
    1   AR   Ar   87   2.162   3.103   1.734
    1   AR   Ar   88   3.191   4.861   1.568
    1   AR   Ar   89   0.175   2.631   2.088
    1   AR   Ar   90   2.874   1.560   4.588
    1   AR   Ar   91   1.342   1.973   3.657
    1   AR   Ar   92   1.101   3.083   2.229
    1   AR   Ar   93   0.954   1.194   5.503
    1   AR   Ar   94   0.404   6.303  10.907
    1   AR   Ar   95   4.961   0.684   5.451
    1   AR   Ar   96   2.926   6.846   4.326
    1   AR   Ar   97   3.600   2.235  -0.457
    1   AR   Ar   98   1.705   4.207   3.666
    1   AR   Ar   99   6.878   1.207  -0.152
    1   AR   Ar  100   0.787   2.683  -0.835
    1   AR   Ar  101   3.635   6.099   2.354
    1   AR   Ar  102   3.737   1.410   2.644
    1   AR   Ar  103   1.692   4.444   0.644
    1   AR   Ar  104   3.512   4.581  -1.201
    1   AR   Ar  105   2.283   2.263   4.050
    1   AR   Ar  106   4.165   2.960   5.425
    1   AR   Ar  107   0.755   3.774   4.732
    1   AR   Ar  108   2.021   1.283   5.108
    1   AR   Ar  109   1.738   3.098   4.686
    1   AR   Ar  110   2.858   2.526   5.122
    1   AR   Ar  111   5.352   5.508   6.870
    1   AR   Ar  112   1.435   5.530   6.370
    1   AR   Ar  113   3.788   4.426  -0.102
    1   AR   Ar  114   2.218   0.223  -1.174
    1   AR   Ar  115   1.842   5.186  -0.471
    1   AR   Ar  116   6.068   0.292  -0.325
    1   AR   Ar  117   1.195   4.884   4.520
    1   AR   Ar  118   1.654   5.313   3.146
    1   AR   Ar  119   2.523   4.437   2.555
    1   AR   Ar  120   1.935   6.254   1.577
    1   AR   Ar  121   5.198   4.046   5.231
    1   AR   Ar  122   2.830   5.856   5.308
    1   AR   Ar  123   3.254   4.015   5.469
    1   AR   Ar  124   1.558   5.289   1.622
    1   AR   Ar  125   0.002   2.976   5.197
    1   AR   Ar  126   6.782   6.083   4.850
    1   AR   Ar  127   4.533   3.914   6.067
    1   AR   Ar  128   3.067   3.708   6.403
    1   AR   Ar  129   1.873   6.219   4.004
    1   AR   Ar  130   4.772   1.912  -3.625
    1   AR   Ar  131   4.148   3.438  -1.555
    1   AR   Ar  132   0.849   1.246   0.223
    1   AR   Ar  133   4.357   6.332   3.186
    1   AR   Ar  134   4.215   1.234   4.547
    1   AR   Ar  135   5.845   1.001   2.939
    1   AR   Ar  136   6.494   6.337   2.314
    1   AR   Ar  137   2.012   4.082   4.757
    1   AR   Ar  138   5.498   0.716   6.302
    1   AR   Ar  139   5.966   2.279   5.492
    1   AR   Ar  140   3.976   7.111   4.573
    1   AR   Ar  141   4.088   4.932   4.160
    1   AR   Ar  142   4.141   0.101   5.958
    1   AR   Ar  143   6.099   6.644   6.426
    1   AR   Ar  144   6.575   1.669   5.091
    1   AR   Ar  145   4.398   4.963  -0.975
    1   AR   Ar  146   3.118   2.278   2.335
    1   AR   Ar  147   4.762   2.572  -0.783
    1   AR   Ar  148   3.162   6.812  -0.944
    1   AR   Ar  149   2.084   1.465  -1.201
    1   AR   Ar  150   2.134   1.918   3.018
    1   AR   Ar  151   2.799   2.850   3.148
    1   AR   Ar  152   1.690   2.432  -1.531
    1   AR   Ar  153   5.097   0.234   4.285
    1   AR   Ar  154   3.903   1.616   3.626
    1   AR   Ar  155   7.001   4.092   5.456
    1   AR   Ar  156   2.738   4.126   3.606
    1   AR   Ar  157   1.392   4.188   5.668
    1   AR   Ar  158   0.073   1.523   6.192
    1   AR   Ar  159   3.686   0.826   7.044
    1   AR   Ar  160   1.514   2.080   4.724
    1   AR   Ar  161   5.373   4.502   2.421
    1   AR   Ar  162   4.820   5.964  -0.538
    1   AR   Ar  163   5.891   4.260  -0.104
    1   AR   Ar  164   2.557   5.768   2.287
    1   AR   Ar  165   4.414   2.085   0.237
    1   AR   Ar  166   2.805   3.346   4.354
    1   AR   Ar  167   5.207   0.314   3.271
    1   AR   Ar  168   5.580   4.272  -1.756
    1   AR   Ar  169   3.628   3.907   2.598
    1   AR   Ar  170   2.349   3.383   5.437
    1   AR   Ar  171   5.728   3.648   4.099
    1   AR   Ar  172   4.123   3.947   4.992
    1   AR   Ar  173   2.104   2.859   6.485
    1   AR   Ar  174   2.451   6.056   6.418
    1   AR   Ar  175   3.796   1.909   5.432
    1   AR   Ar  176   4.019   2.288   4.515
    1   AR   Ar  177   0.721   5.244  -0.617
    1   AR   Ar  178   3.542   5.811  -0.327
    1   AR   Ar  179   3.209   6.985   0.321
    1   AR   Ar  180   4.215   0.505  -4.041
    1   AR   Ar  181   7.084   5.381   1.954
    1   AR   Ar  182   1.670   6.519   2.591
    1   AR   Ar  183   4.406   5.149   1.959
    1   AR   Ar  184   5.038   6.929   0.579
    1   AR   Ar  185   2.738   4.938   4.599
    1   AR   Ar  186   2.667   5.649   3.580
    1   AR   Ar  187   3.309   6.590   3.205
    1   AR   Ar  188   2.953   6.885   1.854
    1   AR   Ar  189   4.773   2.782   6.698
    1   AR   Ar  190   3.636   6.043   4.094
    1   AR   Ar  191   2.526   6.391   7.673
    1   AR   Ar  192   4.076   6.263   5.211
    1   AR   Ar  193   3.237   6.150   1.139
    1   AR   Ar  194   4.794   3.912  -0.530
    1   AR   Ar  195   5.832   1.118   0.337
    1   AR   Ar  196   4.117   1.338  -0.678
    1   AR   Ar  197   3.411   1.272   0.714
    1   AR   Ar  198   6.247   1.313   1.280
    1   AR   Ar  199   2.927   0.480   2.677
    1   AR   Ar  200   5.684   3.035  -0.200
    1   AR   Ar  201   5.870   6.072   3.338
    1   AR   Ar  202   5.399   1.438   4.906
    1   AR   Ar  203   0.307   6.696   3.030
    1   AR   Ar  204   5.432   6.003   5.690
    1   AR   Ar  205   0.167   7.082   1.365
    1   AR   Ar  206   5.902   0.181   5.425
    1   AR   Ar  207   0.505   2.128   5.420
    1   AR   Ar  208   0.874   6.190   4.441
    1   AR   Ar  209   6.744   2.675  -2.025
    1   AR   Ar  210   2.283   6.863   0.739
    1   AR   Ar  211   6.959   3.352   0.713
    1   AR   Ar  212   6.637   3.703  -0.633
    1   AR   Ar  213   2.477   0.702   1.829
    1   AR   Ar  214   4.428   3.493   2.089
    1   AR   Ar  215   5.684   3.515   2.063
    1   AR   Ar  216   0.943   2.238   1.273
    1   AR   Ar  217   5.057   2.444   3.903
    1   AR   Ar  218   4.655   3.291   4.395
    1   AR   Ar  219   4.276   3.128   3.394
    1   AR   Ar  220   4.148   2.828   1.054
    1   AR   Ar  221   6.640   5.382   3.706
    1   AR   Ar  222   5.046   6.827   6.373
    1   AR   Ar  223   6.174   1.389   6.536
    1   AR   Ar  224   4.940   2.262   5.330
    1   AR   Ar  225   6.223   2.964   3.310
    1   AR   Ar  226   1.777   2.895   2.967
    1   AR   Ar  227   6.780   3.624   1.796
    1   AR   Ar  228   5.418   6.576   1.443
    1   AR   Ar  229   5.334   5.459  -1.469
    1   AR   Ar  230   3.758   4.000   3.818
    1   AR   Ar  231   4.782   1.567   3.360
    1   AR   Ar  232   5.195   2.541   1.690
    1   AR   Ar  233   6.589   2.055   4.153
    1   AR   Ar  234   5.810   2.732   4.623
    1   AR   Ar  235   6.783   1.121   3.907
    1   AR   Ar  236   4.534   4.868   5.534
    1   AR   Ar  237   6.006   2.646   6.845
    1   AR   Ar  238   5.893   4.393   6.269
    1   AR   Ar  239   0.055   4.857   9.595
    1   AR   Ar  240   6.917   2.662   7.405
    1   AR   Ar  241   1.903   5.972  -1.273
    1   AR   Ar  242   5.455   5.946   0.499
    1   AR   Ar  243   4.610   5.361   3.071
    1   AR   Ar  244   1.181   5.378   0.403
    1   AR   Ar  245   3.499   1.000   1.723
    1   AR   Ar  246   5.491   6.629  -0.290
    1   AR   Ar  247   5.648   3.711   0.997
    1   AR   Ar  248   5.841   5.464  -0.451
    1   AR   Ar  249   4.434   6.085   1.222
    1   AR   Ar  250   4.845   5.785   4.183
    1   AR   Ar  251   4.980   4.472   4.311
    1   AR   Ar  252   3.418   4.925   3.287
    1   AR   Ar  253   7.051   3.605   6.779
    1   AR   Ar  254   2.815   2.253   9.248
    1   AR   Ar  255   4.178   5.418   9.734
    1   AR   Ar  256   5.751   4.736   3.650
    7.12000  7.12000 12.00000
Argon-slab step 3935
  256
    1   AR   Ar    1   4.552   2.189  -2.521
    1   AR   Ar    2   6.116   0.050   0.761
    1   AR   Ar    3   3.886   2.118  -1.589
    1   AR   Ar    4   1.781   0.850  -0.216
    1   AR   Ar    5   6.843   6.378   0.742
    1   AR   Ar    6   0.503   1.757   2.348
    1   AR   Ar    7   5.435   3.712   3.118
    1   AR   Ar    8   4.388   1.093   0.387
    1   AR   Ar    9   1.327   7.066   3.322
    1   AR   Ar   10   0.520   0.193   4.291
    1   AR   Ar   11   1.962   0.106   4.188
    1   AR   Ar   12   0.758   1.060   3.449
    1   AR   Ar   13   6.937   0.771   4.963
    1   AR   Ar   14   4.370   1.400   7.533
    1   AR   Ar   15   3.321   6.338   8.425
    1   AR   Ar   16   0.959   6.936   5.463
    1   AR   Ar   17   6.242   2.278   0.675
    1   AR   Ar   18   6.446   4.673  -1.142
    1   AR   Ar   19   3.572   3.422   0.094
    1   AR   Ar   20   6.350   4.328  -2.624
    1   AR   Ar   21   2.416   1.770   1.556
    1   AR   Ar   22   6.860   1.806   2.989
    1   AR   Ar   23   0.744   0.041   0.526
    1   AR   Ar   24   6.014   2.329   2.336
    1   AR   Ar   25   0.479   1.732   4.400
    1   AR   Ar   26   6.479   0.126   3.953
    1   AR   Ar   27   1.515   1.267   2.308
    1   AR   Ar   28   0.939   3.015   4.090
    1   AR   Ar   29   5.817   1.834   7.702
    1   AR   Ar   30   1.794   1.036   3.567
    1   AR   Ar   31   3.395   7.068   7.521
    1   AR   Ar   32   0.890   2.521   6.824
    1   AR   Ar   33   0.702   4.336   0.413
    1   AR   Ar   34   0.548   4.405   2.393
    1   AR   Ar   35   6.057   5.633   1.332
    1   AR   Ar   36   5.721   2.432  -2.871
    1   AR   Ar   37   4.495   2.258   2.495
    1   AR   Ar   38   6.523   4.182   3.167
    1   AR   Ar   39   0.772   3.558   3.144
    1   AR   Ar   40   1.868   4.218   1.784
    1   AR   Ar   41   0.266   2.626   3.142
    1   AR   Ar   42   5.586   5.125   4.860
    1   AR   Ar   43   7.014   2.660   6.242
    1   AR   Ar   44   0.278   4.755   3.975
    1   AR   Ar   45   0.775   3.471   6.134
    1   AR   Ar   46   0.350   5.086   5.241
    1   AR   Ar   47   4.643   4.270   7.353
    1   AR   Ar   48   5.981   3.710   7.385
    1   AR   Ar   49   5.175   0.044  -1.303
    1   AR   Ar   50   4.360   5.245   0.209
    1   AR   Ar   51   6.382   4.545   1.846
    1   AR   Ar   52   5.773   3.163  -1.972
    1   AR   Ar   53   5.297   6.346   2.470
    1   AR   Ar   54   0.739   6.133   2.279
    1   AR   Ar   55   6.106   5.317   2.473
    1   AR   Ar   56   6.773   0.357   2.323
    1   AR   Ar   57   4.742   4.425   3.348
    1   AR   Ar   58   6.856   3.104   4.126
    1   AR   Ar   59   2.200   5.042   5.709
    1   AR   Ar   60   0.583   5.614   3.293
    1   AR   Ar   61   0.333   4.627   6.786
    1   AR   Ar   62   6.557   4.265   4.277
    1   AR   Ar   63   1.685   1.164   6.511
    1   AR   Ar   64   1.360   5.672   5.344
    1   AR   Ar   65   4.073   0.201   1.204
    1   AR   Ar   66   0.073   1.326   0.989
    1   AR   Ar   67   4.387   0.060  -0.467
    1   AR   Ar   68   0.967   1.683  -0.998
    1   AR   Ar   69   2.725   1.714  -0.142
    1   AR   Ar   70   0.735   0.665   1.921
    1   AR   Ar   71   2.870   1.443   3.516
    1   AR   Ar   72   3.983   0.102   2.467
    1   AR   Ar   73   4.171   0.635   3.409
    1   AR   Ar   74   1.272   0.905   4.406
    1   AR   Ar   75   3.022   0.565   4.959
    1   AR   Ar   76   1.612   0.084   1.629
    1   AR   Ar   77   2.024   6.663   5.126
    1   AR   Ar   78   0.384   5.913   5.790
    1   AR   Ar   79   3.529   6.101   6.151
    1   AR   Ar   80   3.689   5.196   5.133
    1   AR   Ar   81   2.338   6.218  -0.117
    1   AR   Ar   82   6.819   5.396   0.375
    1   AR   Ar   83   1.869   2.096   0.076
    1   AR   Ar   84   0.592   4.092   1.292
    1   AR   Ar   85   1.425   3.463   0.668
    1   AR   Ar   86   2.264   5.377   0.863
    1   AR   Ar   87   2.191   3.106   1.725
    1   AR   Ar   88   3.188   4.837   1.569
    1   AR   Ar   89   0.185   2.600   2.073
    1   AR   Ar   90   2.883   1.602   4.606
    1   AR   Ar   91   1.360   1.950   3.682
    1   AR   Ar   92   1.107   3.104   2.203
    1   AR   Ar   93   0.956   1.210   5.527
    1   AR   Ar   94   0.413   6.299  10.921
    1   AR   Ar   95   4.976   0.724   5.446
    1   AR   Ar   96   2.922   6.857   4.313
    1   AR   Ar   97   3.602   2.230  -0.464
    1   AR   Ar   98   1.710   4.193   3.707
    1   AR   Ar   99   6.902   1.241  -0.131
    1   AR   Ar  100   0.780   2.703  -0.860
    1   AR   Ar  101   3.662   6.100   2.350
    1   AR   Ar  102   3.721   1.343   2.673
    1   AR   Ar  103   1.698   4.464   0.638
    1   AR   Ar  104   3.521   4.600  -1.208
    1   AR   Ar  105   2.254   2.218   4.038
    1   AR   Ar  106   4.152   2.949   5.426
    1   AR   Ar  107   0.771   3.773   4.742
    1   AR   Ar  108   2.045   1.292   5.090
    1   AR   Ar  109   1.728   3.108   4.690
    1   AR   Ar  110   2.825   2.522   5.110
    1   AR   Ar  111   5.339   5.551   6.878
    1   AR   Ar  112   1.445   5.545   6.374
    1   AR   Ar  113   3.815   4.411  -0.118
    1   AR   Ar  114   2.191   0.201  -1.182
    1   AR   Ar  115   1.833   5.217  -0.462
    1   AR   Ar  116   6.065   0.313  -0.347
    1   AR   Ar  117   1.202   4.915   4.553
    1   AR   Ar  118   1.685   5.277   3.137
    1   AR   Ar  119   2.540   4.468   2.567
    1   AR   Ar  120   1.923   6.247   1.580
    1   AR   Ar  121   5.180   4.051   5.239
    1   AR   Ar  122   2.862   5.847   5.330
    1   AR   Ar  123   3.272   4.022   5.471
    1   AR   Ar  124   1.560   5.287   1.596
    1   AR   Ar  125   7.116   2.967   5.210
    1   AR   Ar  126   6.756   6.091   4.859
    1   AR   Ar  127   4.541   3.926   6.051
    1   AR   Ar  128   3.059   3.714   6.390
    1   AR   Ar  129   1.847   6.218   4.003
    1   AR   Ar  130   4.768   1.881  -3.635
    1   AR   Ar  131   4.177   3.451  -1.569
    1   AR   Ar  132   0.845   1.286   0.220
    1   AR   Ar  133   4.352   6.342   3.183
    1   AR   Ar  134   4.204   1.230   4.537
    1   AR   Ar  135   5.858   0.997   2.906
    1   AR   Ar  136   6.493   6.311   2.295
    1   AR   Ar  137   1.995   4.092   4.746
    1   AR   Ar  138   5.543   0.697   6.337
    1   AR   Ar  139   5.961   2.274   5.508
    1   AR   Ar  140   3.991   7.118   4.617
    1   AR   Ar  141   4.103   4.944   4.150
    1   AR   Ar  142   4.167   0.095   5.965
    1   AR   Ar  143   6.116   6.628   6.418
    1   AR   Ar  144   6.596   1.692   5.110
    1   AR   Ar  145   4.376   4.957  -0.981
    1   AR   Ar  146   3.121   2.282   2.337
    1   AR   Ar  147   4.768   2.587  -0.792
    1   AR   Ar  148   3.165   6.814  -0.914
    1   AR   Ar  149   2.063   1.483  -1.202
    1   AR   Ar  150   2.147   1.933   3.035
    1   AR   Ar  151   2.837   2.903   3.137
    1   AR   Ar  152   1.676   2.443  -1.536
    1   AR   Ar  153   5.093   0.215   4.296
    1   AR   Ar  154   3.909   1.640   3.633
    1   AR   Ar  155   6.999   4.099   5.449
    1   AR   Ar  156   2.739   4.143   3.606
    1   AR   Ar  157   1.375   4.161   5.718
    1   AR   Ar  158   0.054   1.500   6.177
    1   AR   Ar  159   3.693   0.868   7.026
    1   AR   Ar  160   1.504   2.074   4.732
    1   AR   Ar  161   5.366   4.542   2.455
    1   AR   Ar  162   4.778   5.969  -0.558
    1   AR   Ar  163   5.893   4.276  -0.074
    1   AR   Ar  164   2.537   5.753   2.307
    1   AR   Ar  165   4.419   2.083   0.269
    1   AR   Ar  166   2.781   3.363   4.372
    1   AR   Ar  167   5.231   0.323   3.308
    1   AR   Ar  168   5.585   4.272  -1.727
    1   AR   Ar  169   3.596   3.894   2.626
    1   AR   Ar  170   2.394   3.408   5.448
    1   AR   Ar  171   5.735   3.639   4.112
    1   AR   Ar  172   4.112   3.935   4.986
    1   AR   Ar  173   2.070   2.822   6.497
    1   AR   Ar  174   2.472   6.050   6.423
    1   AR   Ar  175   3.818   1.933   5.427
    1   AR   Ar  176   4.028   2.313   4.502
    1   AR   Ar  177   0.719   5.212  -0.579
    1   AR   Ar  178   3.558   5.813  -0.312
    1   AR   Ar  179   3.200   7.073   0.352
    1   AR   Ar  180   4.249   0.488  -4.050
    1   AR   Ar  181   7.074   5.374   1.962
    1   AR   Ar  182   1.683   6.515   2.605
    1   AR   Ar  183   4.383   5.149   1.950
    1   AR   Ar  184   5.042   6.908   0.593
    1   AR   Ar  185   2.742   4.929   4.622
    1   AR   Ar  186   2.699   5.654   3.566
    1   AR   Ar  187   3.317   6.605   3.201
    1   AR   Ar  188   2.943   6.896   1.846
    1   AR   Ar  189   4.779   2.768   6.664
    1   AR   Ar  190   3.660   6.047   4.096
    1   AR   Ar  191   2.513   6.399   7.649
    1   AR   Ar  192   4.092   6.254   5.255
    1   AR   Ar  193   3.238   6.151   1.141
    1   AR   Ar  194   4.807   3.882  -0.521
    1   AR   Ar  195   5.851   1.095   0.329
    1   AR   Ar  196   4.098   1.343  -0.705
    1   AR   Ar  197   3.410   1.266   0.726
    1   AR   Ar  198   6.257   1.274   1.270
    1   AR   Ar  199   2.941   0.501   2.670
    1   AR   Ar  200   5.651   3.035  -0.223
    1   AR   Ar  201   5.848   6.082   3.335
    1   AR   Ar  202   5.368   1.446   4.903
    1   AR   Ar  203   0.309   6.724   3.038
    1   AR   Ar  204   5.434   6.004   5.700
    1   AR   Ar  205   0.161   7.088   1.322
    1   AR   Ar  206   5.902   0.188   5.423
    1   AR   Ar  207   0.500   2.122   5.457
    1   AR   Ar  208   0.867   6.188   4.460
    1   AR   Ar  209   6.774   2.655  -2.016
    1   AR   Ar  210   2.275   6.910   0.760
    1   AR   Ar  211   6.933   3.338   0.747
    1   AR   Ar  212   6.648   3.714  -0.610
    1   AR   Ar  213   2.453   0.682   1.799
    1   AR   Ar  214   4.445   3.503   2.123
    1   AR   Ar  215   5.714   3.510   2.093
    1   AR   Ar  216   0.966   2.223   1.273
    1   AR   Ar  217   5.042   2.441   3.929
    1   AR   Ar  218   4.660   3.280   4.381
    1   AR   Ar  219   4.248   3.119   3.406
    1   AR   Ar  220   4.149   2.843   1.071
    1   AR   Ar  221   6.597   5.360   3.716
    1   AR   Ar  222   5.052   6.827   6.351
    1   AR   Ar  223   6.151   1.410   6.520
    1   AR   Ar  224   4.973   2.277   5.289
    1   AR   Ar  225   6.210   2.981   3.323
    1   AR   Ar  226   1.802   2.860   2.957
    1   AR   Ar  227   6.795   3.628   1.795
    1   AR   Ar  228   5.428   6.562   1.408
    1   AR   Ar  229   5.348   5.457  -1.437
    1   AR   Ar  230   3.750   3.984   3.817
    1   AR   Ar  231   4.795   1.538   3.318
    1   AR   Ar  232   5.182   2.551   1.685
    1   AR   Ar  233   6.582   2.080   4.142
    1   AR   Ar  234   5.794   2.685   4.633
    1   AR   Ar  235   6.780   1.097   3.912
    1   AR   Ar  236   4.516   4.881   5.519
    1   AR   Ar  237   6.013   2.657   6.815
    1   AR   Ar  238   5.902   4.358   6.231
    1   AR   Ar  239   0.093   4.857   9.613
    1   AR   Ar  240   6.949   2.665   7.414
    1   AR   Ar  241   1.875   5.908  -1.329
    1   AR   Ar  242   5.475   5.961   0.470
    1   AR   Ar  243   4.613   5.405   3.094
    1   AR   Ar  244   1.164   5.360   0.369
    1   AR   Ar  245   3.471   0.979   1.731
    1   AR   Ar  246   5.487   6.618  -0.291
    1   AR   Ar  247   5.675   3.727   0.988
    1   AR   Ar  248   5.840   5.438  -0.454
    1   AR   Ar  249   4.419   6.107   1.207
    1   AR   Ar  250   4.847   5.772   4.204
    1   AR   Ar  251   4.980   4.458   4.345
    1   AR   Ar  252   3.432   4.907   3.289
    1   AR   Ar  253   7.062   3.605   6.811
    1   AR   Ar  254   2.800   2.229   9.281
    1   AR   Ar  255   4.196   5.453   9.748
    1   AR   Ar  256   5.740   4.710   3.648
    7.12000  7.12000 12.00000
Argon-slab step 3940
  256
    1   AR   Ar    1   4.533   2.188  -2.510
    1   AR   Ar    2   6.135   0.060   0.760
    1   AR   Ar    3   3.896   2.127  -1.568
    1   AR   Ar    4   1.791   0.847  -0.227
    1   AR   Ar    5   6.863   6.393   0.765
    1   AR   Ar    6   0.525   1.775   2.312
    1   AR   Ar    7   5.409   3.701   3.125
    1   AR   Ar    8   4.388   1.085   0.356
    1   AR   Ar    9   1.319   7.039   3.349
    1   AR   Ar   10   0.512   0.199   4.300
    1   AR   Ar   11   1.978   0.111   4.172
    1   AR   Ar   12   0.738   1.059   3.469
    1   AR   Ar   13   6.944   0.763   4.963
    1   AR   Ar   14   4.376   1.428   7.535
    1   AR   Ar   15   3.308   6.340   8.447
    1   AR   Ar   16   0.948   6.951   5.463
    1   AR   Ar   17   6.279   2.287   0.688
    1   AR   Ar   18   6.455   4.653  -1.133
    1   AR   Ar   19   3.572   3.423   0.102
    1   AR   Ar   20   6.357   4.348  -2.604
    1   AR   Ar   21   2.391   1.793   1.552
    1   AR   Ar   22   6.869   1.776   2.989
    1   AR   Ar   23   0.734   0.049   0.491
    1   AR   Ar   24   5.973   2.334   2.353
    1   AR   Ar   25   0.474   1.737   4.434
    1   AR   Ar   26   6.463   0.098   3.954
    1   AR   Ar   27   1.543   1.299   2.311
    1   AR   Ar   28   0.942   3.003   4.078
    1   AR   Ar   29   5.844   1.794   7.710
    1   AR   Ar   30   1.804   1.073   3.562
    1   AR   Ar   31   3.372   7.062   7.507
    1   AR   Ar   32   0.888   2.518   6.790
    1   AR   Ar   33   0.715   4.311   0.405
    1   AR   Ar   34   0.534   4.380   2.403
    1   AR   Ar   35   6.044   5.636   1.320
    1   AR   Ar   36   5.750   2.444  -2.844
    1   AR   Ar   37   4.470   2.274   2.478
    1   AR   Ar   38   6.530   4.189   3.155
    1   AR   Ar   39   0.767   3.550   3.155
    1   AR   Ar   40   1.879   4.227   1.781
    1   AR   Ar   41   0.249   2.607   3.132
    1   AR   Ar   42   5.590   5.135   4.878
    1   AR   Ar   43   7.003   2.647   6.230
    1   AR   Ar   44   0.232   4.745   3.956
    1   AR   Ar   45   0.770   3.478   6.120
    1   AR   Ar   46   0.340   5.092   5.211
    1   AR   Ar   47   4.609   4.269   7.364
    1   AR   Ar   48   5.964   3.699   7.386
    1   AR   Ar   49   5.186   0.030  -1.301
    1   AR   Ar   50   4.366   5.233   0.196
    1   AR   Ar   51   6.357   4.522   1.883
    1   AR   Ar   52   5.744   3.131  -1.969
    1   AR   Ar   53   5.298   6.368   2.469
    1   AR   Ar   54   0.722   6.132   2.283
    1   AR   Ar   55   6.085   5.304   2.473
    1   AR   Ar   56   6.771   0.343   2.348
    1   AR   Ar   57   4.715   4.437   3.348
    1   AR   Ar   58   6.876   3.084   4.113
    1   AR   Ar   59   2.227   5.039   5.719
    1   AR   Ar   60   0.629   5.613   3.297
    1   AR   Ar   61   0.311   4.618   6.771
    1   AR   Ar   62   6.601   4.261   4.293
    1   AR   Ar   63   1.714   1.118   6.526
    1   AR   Ar   64   1.349   5.684   5.312
    1   AR   Ar   65   4.069   0.184   1.222
    1   AR   Ar   66   0.028   1.332   0.985
    1   AR   Ar   67   4.391   0.046  -0.497
    1   AR   Ar   68   0.973   1.660  -0.948
    1   AR   Ar   69   2.738   1.711  -0.139
    1   AR   Ar   70   0.750   0.690   1.943
    1   AR   Ar   71   2.897   1.451   3.543
    1   AR   Ar   72   3.960   0.131   2.498
    1   AR   Ar   73   4.187   0.659   3.437
    1   AR   Ar   74   1.281   0.916   4.389
    1   AR   Ar   75   2.994   0.575   4.943
    1   AR   Ar   76   1.609   0.075   1.650
    1   AR   Ar   77   2.052   6.685   5.111
    1   AR   Ar   78   0.360   5.878   5.776
    1   AR   Ar   79   3.497   6.113   6.160
    1   AR   Ar   80   3.705   5.195   5.149
    1   AR   Ar   81   2.324   6.237  -0.122
    1   AR   Ar   82   6.841   5.405   0.413
    1   AR   Ar   83   1.856   2.114   0.053
    1   AR   Ar   84   0.589   4.102   1.301
    1   AR   Ar   85   1.409   3.464   0.676
    1   AR   Ar   86   2.279   5.395   0.846
    1   AR   Ar   87   2.219   3.107   1.718
    1   AR   Ar   88   3.184   4.839   1.565
    1   AR   Ar   89   0.162   2.641   2.078
    1   AR   Ar   90   2.901   1.643   4.621
    1   AR   Ar   91   1.359   1.932   3.708
    1   AR   Ar   92   1.114   3.127   2.173
    1   AR   Ar   93   0.961   1.221   5.550
    1   AR   Ar   94   0.421   6.296  10.935
    1   AR   Ar   95   4.980   0.759   5.450
    1   AR   Ar   96   2.922   6.862   4.298
    1   AR   Ar   97   3.604   2.231  -0.470
    1   AR   Ar   98   1.709   4.179   3.748
    1   AR   Ar   99   6.925   1.274  -0.109
    1   AR   Ar  100   0.772   2.726  -0.885
    1   AR   Ar  101   3.690   6.099   2.342
    1   AR   Ar  102   3.705   1.276   2.700
    1   AR   Ar  103   1.690   4.486   0.630
    1   AR   Ar  104   3.512   4.611  -1.219
    1   AR   Ar  105   2.237   2.181   4.029
    1   AR   Ar  106   4.137   2.941   5.428
    1   AR   Ar  107   0.787   3.778   4.757
    1   AR   Ar  108   2.067   1.293   5.078
    1   AR   Ar  109   1.720   3.115   4.690
    1   AR   Ar  110   2.793   2.518   5.097
    1   AR   Ar  111   5.326   5.594   6.885
    1   AR   Ar  112   1.456   5.559   6.382
    1   AR   Ar  113   3.842   4.398  -0.137
    1   AR   Ar  114   2.163   0.179  -1.188
    1   AR   Ar  115   1.825   5.248  -0.452
    1   AR   Ar  116   6.068   0.339  -0.372
    1   AR   Ar  117   1.211   4.944   4.585
    1   AR   Ar  118   1.716   5.241   3.127
    1   AR   Ar  119   2.559   4.501   2.582
    1   AR   Ar  120   1.915   6.239   1.580
    1   AR   Ar  121   5.167   4.052   5.251
    1   AR   Ar  122   2.891   5.840   5.349
    1   AR   Ar  123   3.281   4.035   5.470
    1   AR   Ar  124   1.555   5.279   1.575
    1   AR   Ar  125   7.105   2.963   5.219
    1   AR   Ar  126   6.731   6.099   4.868
    1   AR   Ar  127   4.546   3.936   6.039
    1   AR   Ar  128   3.048   3.715   6.386
    1   AR   Ar  129   1.822   6.213   4.000
    1   AR   Ar  130   4.764   1.850  -3.644
    1   AR   Ar  131   4.206   3.464  -1.581
    1   AR   Ar  132   0.843   1.325   0.216
    1   AR   Ar  133   4.346   6.366   3.182
    1   AR   Ar  134   4.194   1.223   4.532
    1   AR   Ar  135   5.877   1.000   2.871
    1   AR   Ar  136   6.492   6.287   2.275
    1   AR   Ar  137   1.978   4.110   4.736
    1   AR   Ar  138   5.576   0.664   6.370
    1   AR   Ar  139   5.951   2.276   5.548
    1   AR   Ar  140   4.007   0.008   4.660
    1   AR   Ar  141   4.119   4.969   4.147
    1   AR   Ar  142   4.189   0.089   5.970
    1   AR   Ar  143   6.133   6.612   6.410
    1   AR   Ar  144   6.629   1.711   5.124
    1   AR   Ar  145   4.373   4.959  -0.980
    1   AR   Ar  146   3.130   2.268   2.345
    1   AR   Ar  147   4.772   2.602  -0.800
    1   AR   Ar  148   3.168   6.815  -0.882
    1   AR   Ar  149   2.042   1.500  -1.200
    1   AR   Ar  150   2.163   1.943   3.039
    1   AR   Ar  151   2.877   2.959   3.129
    1   AR   Ar  152   1.662   2.454  -1.540
    1   AR   Ar  153   5.087   0.195   4.318
    1   AR   Ar  154   3.894   1.673   3.650
    1   AR   Ar  155   6.997   4.104   5.442
    1   AR   Ar  156   2.741   4.160   3.606
    1   AR   Ar  157   1.364   4.141   5.762
    1   AR   Ar  158   0.057   1.503   6.172
    1   AR   Ar  159   3.695   0.905   7.002
    1   AR   Ar  160   1.486   2.071   4.744
    1   AR   Ar  161   5.359   4.583   2.488
    1   AR   Ar  162   4.730   5.967  -0.579
    1   AR   Ar  163   5.894   4.293  -0.044
    1   AR   Ar  164   2.517   5.737   2.329
    1   AR   Ar  165   4.425   2.091   0.299
    1   AR   Ar  166   2.757   3.379   4.389
    1   AR   Ar  167   5.251   0.327   3.340
    1   AR   Ar  168   5.590   4.273  -1.697
    1   AR   Ar  169   3.560   3.883   2.658
    1   AR   Ar  170   2.437   3.435   5.465
    1   AR   Ar  171   5.740   3.628   4.127
    1   AR   Ar  172   4.099   3.952   4.985
    1   AR   Ar  173   2.037   2.786   6.509
    1   AR   Ar  174   2.491   6.044   6.428
    1   AR   Ar  175   3.837   1.952   5.425
    1   AR   Ar  176   4.038   2.343   4.483
    1   AR   Ar  177   0.732   5.195  -0.576
    1   AR   Ar  178   3.574   5.815  -0.297
    1   AR   Ar  179   3.198   0.041   0.381
    1   AR   Ar  180   4.282   0.472  -4.058
    1   AR   Ar  181   7.090   5.383   1.957
    1   AR   Ar  182   1.712   6.492   2.624
    1   AR   Ar  183   4.359   5.149   1.942
    1   AR   Ar  184   5.033   6.898   0.596
    1   AR   Ar  185   2.746   4.919   4.645
    1   AR   Ar  186   2.719   5.665   3.554
    1   AR   Ar  187   3.321   6.624   3.200
    1   AR   Ar  188   2.942   6.901   1.842
    1   AR   Ar  189   4.785   2.756   6.627
    1   AR   Ar  190   3.686   6.049   4.100
    1   AR   Ar  191   2.499   6.407   7.624
    1   AR   Ar  192   4.108   6.244   5.297
    1   AR   Ar  193   3.232   6.132   1.132
    1   AR   Ar  194   4.820   3.852  -0.511
    1   AR   Ar  195   5.868   1.074   0.319
    1   AR   Ar  196   4.081   1.346  -0.732
    1   AR   Ar  197   3.405   1.262   0.735
    1   AR   Ar  198   6.255   1.235   1.267
    1   AR   Ar  199   2.958   0.521   2.672
    1   AR   Ar  200   5.618   3.037  -0.245
    1   AR   Ar  201   5.831   6.094   3.336
    1   AR   Ar  202   5.347   1.456   4.888
    1   AR   Ar  203   0.308   6.754   3.048
    1   AR   Ar  204   5.437   6.005   5.710
    1   AR   Ar  205   0.149   7.098   1.292
    1   AR   Ar  206   5.905   0.193   5.421
    1   AR   Ar  207   0.498   2.118   5.492
    1   AR   Ar  208   0.858   6.185   4.480
    1   AR   Ar  209   6.803   2.635  -2.008
    1   AR   Ar  210   2.262   6.957   0.784
    1   AR   Ar  211   6.907   3.323   0.780
    1   AR   Ar  212   6.659   3.724  -0.587
    1   AR   Ar  213   2.424   0.670   1.764
    1   AR   Ar  214   4.467   3.510   2.156
    1   AR   Ar  215   5.743   3.505   2.122
    1   AR   Ar  216   0.993   2.251   1.297
    1   AR   Ar  217   5.027   2.433   3.951
    1   AR   Ar  218   4.667   3.272   4.371
    1   AR   Ar  219   4.220   3.108   3.415
    1   AR   Ar  220   4.151   2.859   1.089
    1   AR   Ar  221   6.553   5.341   3.725
    1   AR   Ar  222   5.061   6.825   6.329
    1   AR   Ar  223   6.140   1.449   6.509
    1   AR   Ar  224   4.986   2.315   5.265
    1   AR   Ar  225   6.196   2.996   3.332
    1   AR   Ar  226   1.822   2.834   2.949
    1   AR   Ar  227   6.814   3.624   1.794
    1   AR   Ar  228   5.446   6.543   1.387
    1   AR   Ar  229   5.350   5.456  -1.450
    1   AR   Ar  230   3.745   3.966   3.818
    1   AR   Ar  231   4.832   1.505   3.267
    1   AR   Ar  232   5.168   2.562   1.678
    1   AR   Ar  233   6.573   2.110   4.128
    1   AR   Ar  234   5.778   2.643   4.633
    1   AR   Ar  235   6.781   1.075   3.915
    1   AR   Ar  236   4.502   4.873   5.513
    1   AR   Ar  237   6.020   2.668   6.784
    1   AR   Ar  238   5.910   4.322   6.192
    1   AR   Ar  239   0.132   4.858   9.632
    1   AR   Ar  240   6.937   2.689   7.429
    1   AR   Ar  241   1.852   5.861  -1.369
    1   AR   Ar  242   5.495   5.968   0.447
    1   AR   Ar  243   4.618   5.441   3.115
    1   AR   Ar  244   1.148   5.344   0.342
    1   AR   Ar  245   3.443   0.956   1.741
    1   AR   Ar  246   5.487   6.610  -0.298
    1   AR   Ar  247   5.703   3.742   0.980
    1   AR   Ar  248   5.839   5.411  -0.456
    1   AR   Ar  249   4.405   6.129   1.191
    1   AR   Ar  250   4.848   5.758   4.225
    1   AR   Ar  251   4.979   4.441   4.379
    1   AR   Ar  252   3.446   4.885   3.283
    1   AR   Ar  253   7.071   3.606   6.824
    1   AR   Ar  254   2.785   2.205   9.314
    1   AR   Ar  255   4.209   5.462   9.751
    1   AR   Ar  256   5.725   4.669   3.642
    7.12000  7.12000 12.00000
Argon-slab step 3945
  256
    1   AR   Ar    1   4.516   2.188  -2.500
    1   AR   Ar    2   6.153   0.071   0.758
    1   AR   Ar    3   3.906   2.138  -1.546
    1   AR   Ar    4   1.802   0.845  -0.238
    1   AR   Ar    5   6.875   6.399   0.781
    1   AR   Ar    6   0.558   1.778   2.277
    1   AR   Ar    7   5.383   3.687   3.130
    1   AR   Ar    8   4.414   1.112   0.331
    1   AR   Ar    9   1.306   7.020   3.384
    1   AR   Ar   10   0.502   0.202   4.306
    1   AR   Ar   11   1.991   0.123   4.156
    1   AR   Ar   12   0.715   1.056   3.486
    1   AR   Ar   13   6.954   0.749   4.961
    1   AR   Ar   14   4.380   1.445   7.536
    1   AR   Ar   15   3.294   6.343   8.467
    1   AR   Ar   16   0.937   6.964   5.461
    1   AR   Ar   17   6.316   2.296   0.702
    1   AR   Ar   18   6.463   4.635  -1.124
    1   AR   Ar   19   3.572   3.419   0.111
    1   AR   Ar   20   6.362   4.366  -2.582
    1   AR   Ar   21   2.366   1.816   1.550
    1   AR   Ar   22   6.867   1.736   2.991
    1   AR   Ar   23   0.721   0.048   0.473
    1   AR   Ar   24   5.935   2.339   2.372
    1   AR   Ar   25   0.469   1.740   4.468
    1   AR   Ar   26   6.445   0.064   3.955
    1   AR   Ar   27   1.575   1.333   2.316
    1   AR   Ar   28   0.940   2.977   4.059
    1   AR   Ar   29   5.856   1.776   7.707
    1   AR   Ar   30   1.820   1.081   3.567
    1   AR   Ar   31   3.349   7.056   7.492
    1   AR   Ar   32   0.885   2.515   6.754
    1   AR   Ar   33   0.726   4.293   0.364
    1   AR   Ar   34   0.519   4.365   2.411
    1   AR   Ar   35   6.035   5.638   1.309
    1   AR   Ar   36   5.778   2.455  -2.816
    1   AR   Ar   37   4.444   2.291   2.463
    1   AR   Ar   38   6.538   4.195   3.141
    1   AR   Ar   39   0.763   3.545   3.166
    1   AR   Ar   40   1.880   4.235   1.774
    1   AR   Ar   41   0.239   2.597   3.128
    1   AR   Ar   42   5.595   5.146   4.896
    1   AR   Ar   43   6.970   2.676   6.261
    1   AR   Ar   44   0.209   4.742   3.932
    1   AR   Ar   45   0.752   3.471   6.111
    1   AR   Ar   46   0.330   5.086   5.172
    1   AR   Ar   47   4.575   4.268   7.374
    1   AR   Ar   48   5.948   3.687   7.384
    1   AR   Ar   49   5.197   0.015  -1.297
    1   AR   Ar   50   4.375   5.225   0.185
    1   AR   Ar   51   6.330   4.501   1.917
    1   AR   Ar   52   5.714   3.100  -1.965
    1   AR   Ar   53   5.298   6.390   2.467
    1   AR   Ar   54   0.705   6.130   2.285
    1   AR   Ar   55   6.080   5.286   2.468
    1   AR   Ar   56   6.769   0.330   2.372
    1   AR   Ar   57   4.681   4.446   3.348
    1   AR   Ar   58   6.900   3.071   4.103
    1   AR   Ar   59   2.254   5.036   5.728
    1   AR   Ar   60   0.675   5.613   3.301
    1   AR   Ar   61   0.290   4.611   6.754
    1   AR   Ar   62   6.629   4.247   4.317
    1   AR   Ar   63   1.677   1.113   6.532
    1   AR   Ar   64   1.345   5.697   5.282
    1   AR   Ar   65   4.067   0.167   1.232
    1   AR   Ar   66   0.025   1.330   0.979
    1   AR   Ar   67   4.394   0.030  -0.525
    1   AR   Ar   68   0.961   1.625  -0.973
    1   AR   Ar   69   2.759   1.701  -0.137
    1   AR   Ar   70   0.762   0.714   1.965
    1   AR   Ar   71   2.924   1.453   3.570
    1   AR   Ar   72   3.935   0.125   2.531
    1   AR   Ar   73   4.203   0.679   3.469
    1   AR   Ar   74   1.287   0.929   4.384
    1   AR   Ar   75   2.966   0.586   4.928
    1   AR   Ar   76   1.598   0.070   1.672
    1   AR   Ar   77   2.080   6.705   5.096
    1   AR   Ar   78   0.337   5.857   5.770
    1   AR   Ar   79   3.470   6.126   6.172
    1   AR   Ar   80   3.699   5.202   5.153
    1   AR   Ar   81   2.312   6.256  -0.125
    1   AR   Ar   82   6.863   5.411   0.450
    1   AR   Ar   83   1.830   2.135   0.032
    1   AR   Ar   84   0.583   4.105   1.341
    1   AR   Ar   85   1.424   3.456   0.680
    1   AR   Ar   86   2.298   5.416   0.826
    1   AR   Ar   87   2.246   3.109   1.711
    1   AR   Ar   88   3.178   4.843   1.563
    1   AR   Ar   89   0.130   2.695   2.077
    1   AR   Ar   90   2.931   1.676   4.630
    1   AR   Ar   91   1.341   1.956   3.719
    1   AR   Ar   92   1.122   3.152   2.141
    1   AR   Ar   93   0.969   1.226   5.570
    1   AR   Ar   94   0.429   6.293  10.948
    1   AR   Ar   95   4.974   0.782   5.462
    1   AR   Ar   96   2.927   6.862   4.281
    1   AR   Ar   97   3.608   2.237  -0.476
    1   AR   Ar   98   1.686   4.134   3.717
    1   AR   Ar   99   6.945   1.307  -0.087
    1   AR   Ar  100   0.764   2.750  -0.909
    1   AR   Ar  101   3.718   6.096   2.330
    1   AR   Ar  102   3.691   1.213   2.727
    1   AR   Ar  103   1.689   4.510   0.625
    1   AR   Ar  104   3.487   4.614  -1.234
    1   AR   Ar  105   2.234   2.155   4.026
    1   AR   Ar  106   4.123   2.941   5.431
    1   AR   Ar  107   0.802   3.788   4.775
    1   AR   Ar  108   2.087   1.289   5.070
    1   AR   Ar  109   1.713   3.119   4.687
    1   AR   Ar  110   2.760   2.518   5.086
    1   AR   Ar  111   5.314   5.638   6.889
    1   AR   Ar  112   1.465   5.572   6.390
    1   AR   Ar  113   3.858   4.346  -0.159
    1   AR   Ar  114   2.136   0.157  -1.193
    1   AR   Ar  115   1.820   5.278  -0.442
    1   AR   Ar  116   6.075   0.365  -0.399
    1   AR   Ar  117   1.221   4.970   4.613
    1   AR   Ar  118   1.748   5.207   3.118
    1   AR   Ar  119   2.580   4.536   2.597
    1   AR   Ar  120   1.912   6.228   1.578
    1   AR   Ar  121   5.164   4.046   5.269
    1   AR   Ar  122   2.917   5.835   5.366
    1   AR   Ar  123   3.278   4.058   5.468
    1   AR   Ar  124   1.545   5.266   1.558
    1   AR   Ar  125   7.093   2.965   5.224
    1   AR   Ar  126   6.707   6.105   4.877
    1   AR   Ar  127   4.545   3.943   6.034
    1   AR   Ar  128   3.034   3.712   6.389
    1   AR   Ar  129   1.798   6.204   3.996
    1   AR   Ar  130   4.761   1.819  -3.651
    1   AR   Ar  131   4.237   3.477  -1.591
    1   AR   Ar  132   0.843   1.365   0.212
    1   AR   Ar  133   4.339   6.407   3.184
    1   AR   Ar  134   4.187   1.213   4.532
    1   AR   Ar  135   5.901   1.007   2.834
    1   AR   Ar  136   6.492   6.264   2.255
    1   AR   Ar  137   1.962   4.134   4.730
    1   AR   Ar  138   5.602   0.619   6.402
    1   AR   Ar  139   5.942   2.283   5.606
    1   AR   Ar  140   4.022   0.019   4.702
    1   AR   Ar  141   4.130   4.996   4.144
    1   AR   Ar  142   4.205   0.086   5.972
    1   AR   Ar  143   6.149   6.596   6.400
    1   AR   Ar  144   6.670   1.729   5.136
    1   AR   Ar  145   4.390   4.968  -0.973
    1   AR   Ar  146   3.117   2.284   2.373
    1   AR   Ar  147   4.773   2.617  -0.809
    1   AR   Ar  148   3.168   6.806  -0.862
    1   AR   Ar  149   2.023   1.515  -1.196
    1   AR   Ar  150   2.184   1.938   3.031
    1   AR   Ar  151   2.918   3.017   3.125
    1   AR   Ar  152   1.646   2.466  -1.544
    1   AR   Ar  153   5.080   0.180   4.339
    1   AR   Ar  154   3.876   1.713   3.669
    1   AR   Ar  155   6.996   4.108   5.434
    1   AR   Ar  156   2.741   4.177   3.606
    1   AR   Ar  157   1.366   4.135   5.796
    1   AR   Ar  158   0.073   1.521   6.178
    1   AR   Ar  159   3.691   0.938   6.974
    1   AR   Ar  160   1.462   2.068   4.759
    1   AR   Ar  161   5.348   4.620   2.521
    1   AR   Ar  162   4.678   5.962  -0.601
    1   AR   Ar  163   5.893   4.309  -0.015
    1   AR   Ar  164   2.499   5.720   2.352
    1   AR   Ar  165   4.430   2.108   0.327
    1   AR   Ar  166   2.734   3.395   4.406
    1   AR   Ar  167   5.269   0.327   3.365
    1   AR   Ar  168   5.595   4.274  -1.668
    1   AR   Ar  169   3.524   3.872   2.692
    1   AR   Ar  170   2.476   3.461   5.485
    1   AR   Ar  171   5.744   3.618   4.145
    1   AR   Ar  172   4.096   3.988   4.983
    1   AR   Ar  173   2.002   2.751   6.519
    1   AR   Ar  174   2.506   6.037   6.432
    1   AR   Ar  175   3.854   1.964   5.426
    1   AR   Ar  176   4.048   2.375   4.462
    1   AR   Ar  177   0.754   5.186  -0.600
    1   AR   Ar  178   3.583   5.815  -0.299
    1   AR   Ar  179   3.200   0.129   0.409
    1   AR   Ar  180   4.315   0.457  -4.067
    1   AR   Ar  181   7.105   5.390   1.953
    1   AR   Ar  182   1.747   6.463   2.636
    1   AR   Ar  183   4.335   5.150   1.936
    1   AR   Ar  184   5.013   6.900   0.587
    1   AR   Ar  185   2.750   4.909   4.666
    1   AR   Ar  186   2.721   5.686   3.546
    1   AR   Ar  187   3.325   6.665   3.165
    1   AR   Ar  188   2.944   6.901   1.839
    1   AR   Ar  189   4.792   2.743   6.590
    1   AR   Ar  190   3.712   6.050   4.104
    1   AR   Ar  191   2.486   6.414   7.599
    1   AR   Ar  192   4.126   6.233   5.338
    1   AR   Ar  193   3.211   6.152   1.138
    1   AR   Ar  194   4.832   3.822  -0.503
    1   AR   Ar  195   5.882   1.056   0.309
    1   AR   Ar  196   4.067   1.345  -0.758
    1   AR   Ar  197   3.397   1.259   0.741
    1   AR   Ar  198   6.231   1.194   1.276
    1   AR   Ar  199   2.974   0.540   2.677
    1   AR   Ar  200   5.587   3.041  -0.266
    1   AR   Ar  201   5.831   6.120   3.353
    1   AR   Ar  202   5.337   1.471   4.860
    1   AR   Ar  203   0.306   6.785   3.059
    1   AR   Ar  204   5.439   6.005   5.719
    1   AR   Ar  205   0.137   7.120   1.281
    1   AR   Ar  206   5.908   0.197   5.418
    1   AR   Ar  207   0.499   2.121   5.522
    1   AR   Ar  208   0.846   6.184   4.500
    1   AR   Ar  209   6.832   2.615  -2.000
    1   AR   Ar  210   2.246   7.002   0.811
    1   AR   Ar  211   6.881   3.309   0.811
    1   AR   Ar  212   6.669   3.732  -0.563
    1   AR   Ar  213   2.425   0.664   1.768
    1   AR   Ar  214   4.475   3.505   2.170
    1   AR   Ar  215   5.773   3.499   2.151
    1   AR   Ar  216   1.019   2.280   1.322
    1   AR   Ar  217   5.011   2.417   3.967
    1   AR   Ar  218   4.674   3.272   4.365
    1   AR   Ar  219   4.207   3.092   3.407
    1   AR   Ar  220   4.153   2.874   1.107
    1   AR   Ar  221   6.507   5.324   3.732
    1   AR   Ar  222   5.073   6.820   6.308
    1   AR   Ar  223   6.136   1.502   6.499
    1   AR   Ar  224   4.979   2.371   5.253
    1   AR   Ar  225   6.182   3.009   3.338
    1   AR   Ar  226   1.832   2.826   2.941
    1   AR   Ar  227   6.835   3.616   1.796
    1   AR   Ar  228   5.471   6.517   1.381
    1   AR   Ar  229   5.348   5.455  -1.472
    1   AR   Ar  230   3.744   3.948   3.822
    1   AR   Ar  231   4.877   1.473   3.214
    1   AR   Ar  232   5.153   2.576   1.670
    1   AR   Ar  233   6.563   2.136   4.111
    1   AR   Ar  234   5.765   2.607   4.627
    1   AR   Ar  235   6.786   1.056   3.917
    1   AR   Ar  236   4.506   4.868   5.511
    1   AR   Ar  237   6.026   2.677   6.753
    1   AR   Ar  238   5.918   4.286   6.153
    1   AR   Ar  239   0.170   4.858   9.650
    1   AR   Ar  240   6.925   2.712   7.442
    1   AR   Ar  241   1.848   5.875  -1.349
    1   AR   Ar  242   5.515   5.965   0.431
    1   AR   Ar  243   4.617   5.475   3.123
    1   AR   Ar  244   1.131   5.333   0.323
    1   AR   Ar  245   3.417   0.930   1.750
    1   AR   Ar  246   5.494   6.611  -0.302
    1   AR   Ar  247   5.732   3.757   0.972
    1   AR   Ar  248   5.837   5.383  -0.457
    1   AR   Ar  249   4.393   6.152   1.184
    1   AR   Ar  250   4.851   5.745   4.245
    1   AR   Ar  251   4.975   4.424   4.401
    1   AR   Ar  252   3.463   4.865   3.274
    1   AR   Ar  253   7.078   3.608   6.825
    1   AR   Ar  254   2.797   2.190   9.329
    1   AR   Ar  255   4.217   5.455   9.746
    1   AR   Ar  256   5.709   4.630   3.637
    7.12000  7.12000 12.00000
Argon-slab step 3950
  256
    1   AR   Ar    1   4.500   2.187  -2.490
    1   AR   Ar    2   6.169   0.084   0.756
    1   AR   Ar    3   3.918   2.149  -1.523
    1   AR   Ar    4   1.813   0.844  -0.249
    1   AR   Ar    5   6.881   6.391   0.788
    1   AR   Ar    6   0.594   1.776   2.243
    1   AR   Ar    7   5.355   3.672   3.135
    1   AR   Ar    8   4.448   1.139   0.307
    1   AR   Ar    9   1.289   7.004   3.423
    1   AR   Ar   10   0.490   0.210   4.298
    1   AR   Ar   11   2.000   0.141   4.141
    1   AR   Ar   12   0.689   1.054   3.502
    1   AR   Ar   13   6.965   0.731   4.960
    1   AR   Ar   14   4.375   1.445   7.531
    1   AR   Ar   15   3.280   6.347   8.486
    1   AR   Ar   16   0.926   6.976   5.457
    1   AR   Ar   17   6.353   2.303   0.716
    1   AR   Ar   18   6.471   4.619  -1.113
    1   AR   Ar   19   3.571   3.406   0.123
    1   AR   Ar   20   6.366   4.403  -2.607
    1   AR   Ar   21   2.377   1.819   1.564
    1   AR   Ar   22   6.858   1.687   2.994
    1   AR   Ar   23   0.700   0.033   0.484
    1   AR   Ar   24   5.900   2.345   2.394
    1   AR   Ar   25   0.462   1.742   4.500
    1   AR   Ar   26   6.426   0.027   3.956
    1   AR   Ar   27   1.608   1.366   2.321
    1   AR   Ar   28   0.930   2.947   4.035
    1   AR   Ar   29   5.847   1.789   7.690
    1   AR   Ar   30   1.815   1.082   3.562
    1   AR   Ar   31   3.328   7.051   7.478
    1   AR   Ar   32   0.880   2.512   6.717
    1   AR   Ar   33   0.731   4.275   0.311
    1   AR   Ar   34   0.500   4.390   2.412
    1   AR   Ar   35   6.027   5.651   1.320
    1   AR   Ar   36   5.806   2.465  -2.789
    1   AR   Ar   37   4.417   2.307   2.450
    1   AR   Ar   38   6.547   4.200   3.126
    1   AR   Ar   39   0.759   3.541   3.176
    1   AR   Ar   40   1.876   4.243   1.766
    1   AR   Ar   41   0.232   2.593   3.129
    1   AR   Ar   42   5.601   5.158   4.915
    1   AR   Ar   43   6.939   2.703   6.290
    1   AR   Ar   44   0.211   4.748   3.898
    1   AR   Ar   45   0.721   3.449   6.106
    1   AR   Ar   46   0.318   5.069   5.123
    1   AR   Ar   47   4.542   4.266   7.383
    1   AR   Ar   48   5.933   3.673   7.381
    1   AR   Ar   49   5.209   7.120  -1.292
    1   AR   Ar   50   4.377   5.219   0.170
    1   AR   Ar   51   6.303   4.475   1.946
    1   AR   Ar   52   5.707   3.115  -1.965
    1   AR   Ar   53   5.296   6.411   2.464
    1   AR   Ar   54   0.691   6.129   2.287
    1   AR   Ar   55   6.080   5.284   2.470
    1   AR   Ar   56   6.769   0.316   2.395
    1   AR   Ar   57   4.704   4.478   3.371
    1   AR   Ar   58   6.931   3.069   4.095
    1   AR   Ar   59   2.279   5.031   5.735
    1   AR   Ar   60   0.720   5.613   3.305
    1   AR   Ar   61   0.283   4.624   6.775
    1   AR   Ar   62   6.640   4.252   4.335
    1   AR   Ar   63   1.638   1.109   6.536
    1   AR   Ar   64   1.344   5.717   5.261
    1   AR   Ar   65   4.084   0.157   1.209
    1   AR   Ar   66   0.063   1.316   0.976
    1   AR   Ar   67   4.398   0.014  -0.552
    1   AR   Ar   68   0.948   1.591  -0.996
    1   AR   Ar   69   2.782   1.687  -0.136
    1   AR   Ar   70   0.770   0.738   1.986
    1   AR   Ar   71   2.945   1.447   3.596
    1   AR   Ar   72   3.914   0.097   2.562
    1   AR   Ar   73   4.219   0.693   3.505
    1   AR   Ar   74   1.287   0.943   4.391
    1   AR   Ar   75   2.939   0.599   4.913
    1   AR   Ar   76   1.581   0.066   1.695
    1   AR   Ar   77   2.107   6.723   5.081
    1   AR   Ar   78   0.315   5.848   5.772
    1   AR   Ar   79   3.454   6.141   6.188
    1   AR   Ar   80   3.676   5.213   5.146
    1   AR   Ar   81   2.300   6.275  -0.128
    1   AR   Ar   82   6.885   5.413   0.486
    1   AR   Ar   83   1.800   2.157   0.011
    1   AR   Ar   84   0.577   4.104   1.390
    1   AR   Ar   85   1.460   3.445   0.682
    1   AR   Ar   86   2.316   5.436   0.771
    1   AR   Ar   87   2.271   3.110   1.706
    1   AR   Ar   88   3.171   4.848   1.561
    1   AR   Ar   89   0.096   2.751   2.073
    1   AR   Ar   90   2.973   1.698   4.634
    1   AR   Ar   91   1.302   1.993   3.722
    1   AR   Ar   92   1.129   3.177   2.109
    1   AR   Ar   93   0.982   1.224   5.587
    1   AR   Ar   94   0.438   6.289  10.962
    1   AR   Ar   95   4.963   0.795   5.481
    1   AR   Ar   96   2.938   6.855   4.264
    1   AR   Ar   97   3.613   2.248  -0.480
    1   AR   Ar   98   1.667   4.115   3.701
    1   AR   Ar   99   6.962   1.338  -0.065
    1   AR   Ar  100   0.756   2.773  -0.933
    1   AR   Ar  101   3.745   6.093   2.316
    1   AR   Ar  102   3.685   1.162   2.754
    1   AR   Ar  103   1.697   4.534   0.624
    1   AR   Ar  104   3.454   4.614  -1.250
    1   AR   Ar  105   2.245   2.137   4.033
    1   AR   Ar  106   4.108   2.952   5.433
    1   AR   Ar  107   0.816   3.799   4.795
    1   AR   Ar  108   2.103   1.280   5.064
    1   AR   Ar  109   1.711   3.122   4.689
    1   AR   Ar  110   2.726   2.529   5.081
    1   AR   Ar  111   5.302   5.684   6.892
    1   AR   Ar  112   1.475   5.586   6.396
    1   AR   Ar  113   3.876   4.300  -0.185
    1   AR   Ar  114   2.109   0.136  -1.196
    1   AR   Ar  115   1.820   5.307  -0.433
    1   AR   Ar  116   6.084   0.389  -0.431
    1   AR   Ar  117   1.231   4.987   4.632
    1   AR   Ar  118   1.781   5.172   3.108
    1   AR   Ar  119   2.601   4.573   2.612
    1   AR   Ar  120   1.914   6.216   1.573
    1   AR   Ar  121   5.174   4.033   5.293
    1   AR   Ar  122   2.935   5.833   5.376
    1   AR   Ar  123   3.267   4.091   5.468
    1   AR   Ar  124   1.531   5.247   1.541
    1   AR   Ar  125   7.078   2.971   5.225
    1   AR   Ar  126   6.691   6.136   4.899
    1   AR   Ar  127   4.536   3.945   6.038
    1   AR   Ar  128   3.019   3.707   6.400
    1   AR   Ar  129   1.775   6.192   3.991
    1   AR   Ar  130   4.757   1.789  -3.658
    1   AR   Ar  131   4.269   3.489  -1.600
    1   AR   Ar  132   0.847   1.405   0.208
    1   AR   Ar  133   4.330   6.404   3.157
    1   AR   Ar  134   4.181   1.201   4.535
    1   AR   Ar  135   5.926   1.016   2.802
    1   AR   Ar  136   6.492   6.244   2.234
    1   AR   Ar  137   1.947   4.162   4.729
    1   AR   Ar  138   5.626   0.571   6.433
    1   AR   Ar  139   5.936   2.291   5.673
    1   AR   Ar  140   4.035   0.031   4.743
    1   AR   Ar  141   4.137   5.021   4.140
    1   AR   Ar  142   4.213   0.085   5.970
    1   AR   Ar  143   6.165   6.581   6.389
    1   AR   Ar  144   6.713   1.748   5.145
    1   AR   Ar  145   4.405   4.969  -0.955
    1   AR   Ar  146   3.105   2.298   2.400
    1   AR   Ar  147   4.771   2.631  -0.819
    1   AR   Ar  148   3.163   6.783  -0.862
    1   AR   Ar  149   2.006   1.527  -1.189
    1   AR   Ar  150   2.212   1.918   3.014
    1   AR   Ar  151   2.959   3.076   3.125
    1   AR   Ar  152   1.630   2.478  -1.547
    1   AR   Ar  153   5.072   0.178   4.331
    1   AR   Ar  154   3.868   1.758   3.684
    1   AR   Ar  155   6.996   4.110   5.427
    1   AR   Ar  156   2.758   4.188   3.609
    1   AR   Ar  157   1.380   4.143   5.822
    1   AR   Ar  158   0.072   1.520   6.169
    1   AR   Ar  159   3.684   0.966   6.941
    1   AR   Ar  160   1.434   2.068   4.779
    1   AR   Ar  161   5.330   4.650   2.552
    1   AR   Ar  162   4.627   5.958  -0.622
    1   AR   Ar  163   5.892   4.326   0.013
    1   AR   Ar  164   2.483   5.701   2.375
    1   AR   Ar  165   4.435   2.134   0.354
    1   AR   Ar  166   2.714   3.412   4.421
    1   AR   Ar  167   5.288   0.328   3.381
    1   AR   Ar  168   5.598   4.274  -1.638
    1   AR   Ar  169   3.488   3.863   2.728
    1   AR   Ar  170   2.504   3.484   5.506
    1   AR   Ar  171   5.748   3.607   4.165
    1   AR   Ar  172   4.110   4.023   4.967
    1   AR   Ar  173   1.967   2.717   6.527
    1   AR   Ar  174   2.512   6.029   6.438
    1   AR   Ar  175   3.869   1.969   5.427
    1   AR   Ar  176   4.058   2.409   4.442
    1   AR   Ar  177   0.771   5.175  -0.630
    1   AR   Ar  178   3.570   5.820  -0.312
    1   AR   Ar  179   3.205   0.218   0.437
    1   AR   Ar  180   4.349   0.442  -4.075
    1   AR   Ar  181   7.119   5.395   1.947
    1   AR   Ar  182   1.782   6.431   2.646
    1   AR   Ar  183   4.311   5.152   1.931
    1   AR   Ar  184   5.033   6.884   0.549
    1   AR   Ar  185   2.754   4.899   4.687
    1   AR   Ar  186   2.723   5.707   3.538
    1   AR   Ar  187   3.323   6.711   3.125
    1   AR   Ar  188   2.949   6.899   1.839
    1   AR   Ar  189   4.800   2.732   6.550
    1   AR   Ar  190   3.739   6.051   4.108
    1   AR   Ar  191   2.472   6.419   7.572
    1   AR   Ar  192   4.146   6.220   5.376
    1   AR   Ar  193   3.188   6.180   1.148
    1   AR   Ar  194   4.844   3.794  -0.495
    1   AR   Ar  195   5.894   1.071   0.293
    1   AR   Ar  196   4.056   1.347  -0.773
    1   AR   Ar  197   3.389   1.256   0.745
    1   AR   Ar  198   6.193   1.151   1.294
    1   AR   Ar  199   2.978   0.550   2.685
    1   AR   Ar  200   5.559   3.046  -0.286
    1   AR   Ar  201   5.829   6.140   3.364
    1   AR   Ar  202   5.332   1.494   4.822
    1   AR   Ar  203   0.301   6.817   3.071
    1   AR   Ar  204   5.442   6.003   5.727
    1   AR   Ar  205   0.126   0.037   1.290
    1   AR   Ar  206   5.912   0.200   5.415
    1   AR   Ar  207   0.506   2.135   5.545
    1   AR   Ar  208   0.831   6.184   4.518
    1   AR   Ar  209   6.859   2.596  -1.992
    1   AR   Ar  210   2.230   7.046   0.839
    1   AR   Ar  211   6.855   3.294   0.838
    1   AR   Ar  212   6.680   3.738  -0.538
    1   AR   Ar  213   2.421   0.666   1.771
    1   AR   Ar  214   4.481   3.497   2.180
    1   AR   Ar  215   5.804   3.493   2.178
    1   AR   Ar  216   1.046   2.310   1.349
    1   AR   Ar  217   4.995   2.391   3.974
    1   AR   Ar  218   4.680   3.281   4.366
    1   AR   Ar  219   4.216   3.069   3.377
    1   AR   Ar  220   4.156   2.890   1.127
    1   AR   Ar  221   6.499   5.315   3.753
    1   AR   Ar  222   5.089   6.812   6.290
    1   AR   Ar  223   6.140   1.543   6.499
    1   AR   Ar  224   4.981   2.392   5.248
    1   AR   Ar  225   6.167   3.019   3.341
    1   AR   Ar  226   1.835   2.835   2.933
    1   AR   Ar  227   6.858   3.607   1.803
    1   AR   Ar  228   5.500   6.491   1.386
    1   AR   Ar  229   5.345   5.454  -1.493
    1   AR   Ar  230   3.746   3.932   3.829
    1   AR   Ar  231   4.922   1.441   3.160
    1   AR   Ar  232   5.137   2.593   1.660
    1   AR   Ar  233   6.552   2.152   4.091
    1   AR   Ar  234   5.758   2.575   4.620
    1   AR   Ar  235   6.793   1.042   3.918
    1   AR   Ar  236   4.523   4.876   5.508
    1   AR   Ar  237   6.029   2.687   6.722
    1   AR   Ar  238   5.926   4.249   6.113
    1   AR   Ar  239   0.209   4.858   9.669
    1   AR   Ar  240   6.912   2.734   7.454
    1   AR   Ar  241   1.844   5.891  -1.330
    1   AR   Ar  242   5.536   5.950   0.424
    1   AR   Ar  243   4.604   5.509   3.113
    1   AR   Ar  244   1.112   5.327   0.316
    1   AR   Ar  245   3.395   0.904   1.759
    1   AR   Ar  246   5.490   6.600  -0.304
    1   AR   Ar  247   5.763   3.771   0.965
    1   AR   Ar  248   5.835   5.356  -0.457
    1   AR   Ar  249   4.392   6.173   1.211
    1   AR   Ar  250   4.855   5.734   4.265
    1   AR   Ar  251   4.967   4.411   4.411
    1   AR   Ar  252   3.482   4.849   3.264
    1   AR   Ar  253   7.072   3.599   6.819
    1   AR   Ar  254   2.816   2.176   9.341
    1   AR   Ar  255   4.212   5.455   9.750
    1   AR   Ar  256   5.691   4.591   3.631
    7.12000  7.12000 12.00000
Argon-slab step 3955
  256
    1   AR   Ar    1   4.484   2.187  -2.480
    1   AR   Ar    2   6.184   0.097   0.754
    1   AR   Ar    3   3.931   2.162  -1.501
    1   AR   Ar    4   1.824   0.845  -0.261
    1   AR   Ar    5   6.881   6.378   0.792
    1   AR   Ar    6   0.630   1.777   2.210
    1   AR   Ar    7   5.325   3.656   3.141
    1   AR   Ar    8   4.480   1.155   0.282
    1   AR   Ar    9   1.270   6.991   3.462
    1   AR   Ar   10   0.478   0.217   4.284
    1   AR   Ar   11   2.007   0.164   4.127
    1   AR   Ar   12   0.662   1.052   3.516
    1   AR   Ar   13   6.976   0.713   4.961
    1   AR   Ar   14   4.376   1.435   7.515
    1   AR   Ar   15   3.265   6.351   8.503
    1   AR   Ar   16   0.915   6.988   5.450
    1   AR   Ar   17   6.390   2.308   0.730
    1   AR   Ar   18   6.447   4.591  -1.115
    1   AR   Ar   19   3.568   3.382   0.137
    1   AR   Ar   20   6.368   4.443  -2.643
    1   AR   Ar   21   2.407   1.815   1.592
    1   AR   Ar   22   6.847   1.635   2.997
    1   AR   Ar   23   0.685   0.019   0.486
    1   AR   Ar   24   5.866   2.351   2.417
    1   AR   Ar   25   0.479   1.769   4.486
    1   AR   Ar   26   6.407   7.109   3.957
    1   AR   Ar   27   1.643   1.399   2.326
    1   AR   Ar   28   0.917   2.916   4.011
    1   AR   Ar   29   5.839   1.803   7.671
    1   AR   Ar   30   1.817   1.081   3.548
    1   AR   Ar   31   3.308   7.047   7.463
    1   AR   Ar   32   0.873   2.510   6.678
    1   AR   Ar   33   0.733   4.257   0.256
    1   AR   Ar   34   0.479   4.416   2.415
    1   AR   Ar   35   6.027   5.659   1.339
    1   AR   Ar   36   5.833   2.473  -2.764
    1   AR   Ar   37   4.389   2.324   2.439
    1   AR   Ar   38   6.557   4.204   3.110
    1   AR   Ar   39   0.756   3.541   3.184
    1   AR   Ar   40   1.871   4.248   1.758
    1   AR   Ar   41   0.228   2.592   3.134
    1   AR   Ar   42   5.606   5.169   4.935
    1   AR   Ar   43   6.916   2.726   6.314
    1   AR   Ar   44   0.234   4.761   3.856
    1   AR   Ar   45   0.684   3.419   6.100
    1   AR   Ar   46   0.303   5.047   5.070
    1   AR   Ar   47   4.510   4.264   7.391
    1   AR   Ar   48   5.935   3.671   7.344
    1   AR   Ar   49   5.221   7.104  -1.285
    1   AR   Ar   50   4.346   5.216   0.144
    1   AR   Ar   51   6.277   4.444   1.970
    1   AR   Ar   52   5.707   3.144  -1.963
    1   AR   Ar   53   5.292   6.431   2.461
    1   AR   Ar   54   0.679   6.129   2.288
    1   AR   Ar   55   6.085   5.297   2.479
    1   AR   Ar   56   6.768   0.302   2.418
    1   AR   Ar   57   4.733   4.513   3.401
    1   AR   Ar   58   6.966   3.078   4.089
    1   AR   Ar   59   2.303   5.026   5.742
    1   AR   Ar   60   0.766   5.614   3.311
    1   AR   Ar   61   0.277   4.639   6.794
    1   AR   Ar   62   6.637   4.293   4.337
    1   AR   Ar   63   1.599   1.105   6.539
    1   AR   Ar   64   1.350   5.746   5.256
    1   AR   Ar   65   4.099   0.156   1.191
    1   AR   Ar   66   0.105   1.302   0.974
    1   AR   Ar   67   4.401   7.117  -0.576
    1   AR   Ar   68   0.935   1.558  -1.016
    1   AR   Ar   69   2.803   1.669  -0.134
    1   AR   Ar   70   0.776   0.760   2.006
    1   AR   Ar   71   2.956   1.435   3.615
    1   AR   Ar   72   3.907   0.079   2.578
    1   AR   Ar   73   4.236   0.704   3.545
    1   AR   Ar   74   1.281   0.959   4.408
    1   AR   Ar   75   2.912   0.611   4.898
    1   AR   Ar   76   1.558   0.064   1.720
    1   AR   Ar   77   2.134   6.739   5.066
    1   AR   Ar   78   0.293   5.846   5.778
    1   AR   Ar   79   3.468   6.168   6.202
    1   AR   Ar   80   3.651   5.223   5.131
    1   AR   Ar   81   2.290   6.294  -0.131
    1   AR   Ar   82   6.905   5.408   0.520
    1   AR   Ar   83   1.767   2.177  -0.011
    1   AR   Ar   84   0.585   4.126   1.409
    1   AR   Ar   85   1.494   3.433   0.686
    1   AR   Ar   86   2.334   5.457   0.715
    1   AR   Ar   87   2.295   3.110   1.702
    1   AR   Ar   88   3.163   4.855   1.562
    1   AR   Ar   89   0.068   2.791   2.072
    1   AR   Ar   90   3.026   1.706   4.633
    1   AR   Ar   91   1.279   2.025   3.712
    1   AR   Ar   92   1.137   3.204   2.077
    1   AR   Ar   93   0.998   1.217   5.602
    1   AR   Ar   94   0.446   6.286  10.976
    1   AR   Ar   95   4.948   0.804   5.502
    1   AR   Ar   96   2.954   6.845   4.246
    1   AR   Ar   97   3.620   2.265  -0.482
    1   AR   Ar   98   1.660   4.135   3.709
    1   AR   Ar   99   6.974   1.370  -0.047
    1   AR   Ar  100   0.748   2.796  -0.956
    1   AR   Ar  101   3.771   6.089   2.299
    1   AR   Ar  102   3.695   1.133   2.782
    1   AR   Ar  103   1.709   4.555   0.627
    1   AR   Ar  104   3.419   4.612  -1.265
    1   AR   Ar  105   2.261   2.125   4.045
    1   AR   Ar  106   4.092   2.974   5.436
    1   AR   Ar  107   0.830   3.812   4.816
    1   AR   Ar  108   2.117   1.269   5.060
    1   AR   Ar  109   1.713   3.123   4.694
    1   AR   Ar  110   2.688   2.548   5.080
    1   AR   Ar  111   5.290   5.730   6.893
    1   AR   Ar  112   1.485   5.598   6.401
    1   AR   Ar  113   3.898   4.264  -0.215
    1   AR   Ar  114   2.083   0.115  -1.198
    1   AR   Ar  115   1.826   5.335  -0.424
    1   AR   Ar  116   6.095   0.408  -0.467
    1   AR   Ar  117   1.243   4.992   4.638
    1   AR   Ar  118   1.814   5.139   3.099
    1   AR   Ar  119   2.621   4.611   2.625
    1   AR   Ar  120   1.920   6.204   1.567
    1   AR   Ar  121   5.195   4.015   5.316
    1   AR   Ar  122   2.941   5.837   5.382
    1   AR   Ar  123   3.257   4.138   5.469
    1   AR   Ar  124   1.515   5.226   1.525
    1   AR   Ar  125   7.062   2.979   5.224
    1   AR   Ar  126   6.678   6.173   4.924
    1   AR   Ar  127   4.519   3.943   6.051
    1   AR   Ar  128   3.004   3.701   6.416
    1   AR   Ar  129   1.755   6.179   3.985
    1   AR   Ar  130   4.753   1.758  -3.664
    1   AR   Ar  131   4.301   3.501  -1.606
    1   AR   Ar  132   0.857   1.445   0.204
    1   AR   Ar  133   4.330   6.432   3.167
    1   AR   Ar  134   4.176   1.188   4.540
    1   AR   Ar  135   5.949   1.023   2.792
    1   AR   Ar  136   6.491   6.227   2.213
    1   AR   Ar  137   1.933   4.190   4.732
    1   AR   Ar  138   5.623   0.567   6.405
    1   AR   Ar  139   5.933   2.300   5.742
    1   AR   Ar  140   4.048   0.044   4.784
    1   AR   Ar  141   4.136   5.042   4.136
    1   AR   Ar  142   4.216   0.087   5.964
    1   AR   Ar  143   6.213   6.568   6.417
    1   AR   Ar  144   6.753   1.769   5.154
    1   AR   Ar  145   4.422   4.963  -0.937
    1   AR   Ar  146   3.092   2.309   2.427
    1   AR   Ar  147   4.762   2.644  -0.831
    1   AR   Ar  148   3.157   6.759  -0.860
    1   AR   Ar  149   1.991   1.538  -1.180
    1   AR   Ar  150   2.243   1.891   2.993
    1   AR   Ar  151   2.997   3.131   3.130
    1   AR   Ar  152   1.612   2.490  -1.550
    1   AR   Ar  153   5.061   0.176   4.335
    1   AR   Ar  154   3.871   1.806   3.694
    1   AR   Ar  155   6.996   4.110   5.421
    1   AR   Ar  156   2.773   4.184   3.619
    1   AR   Ar  157   1.402   4.158   5.842
    1   AR   Ar  158   0.068   1.501   6.159
    1   AR   Ar  159   3.673   0.991   6.905
    1   AR   Ar  160   1.406   2.068   4.802
    1   AR   Ar  161   5.305   4.673   2.582
    1   AR   Ar  162   4.578   5.957  -0.643
    1   AR   Ar  163   5.891   4.343   0.040
    1   AR   Ar  164   2.471   5.679   2.398
    1   AR   Ar  165   4.439   2.171   0.380
    1   AR   Ar  166   2.696   3.430   4.434
    1   AR   Ar  167   5.308   0.328   3.386
    1   AR   Ar  168   5.599   4.273  -1.608
    1   AR   Ar  169   3.456   3.859   2.762
    1   AR   Ar  170   2.518   3.500   5.525
    1   AR   Ar  171   5.750   3.596   4.186
    1   AR   Ar  172   4.132   4.057   4.944
    1   AR   Ar  173   1.933   2.683   6.534
    1   AR   Ar  174   2.505   6.018   6.446
    1   AR   Ar  175   3.882   1.965   5.426
    1   AR   Ar  176   4.065   2.447   4.428
    1   AR   Ar  177   0.784   5.163  -0.666
    1   AR   Ar  178   3.540   5.838  -0.298
    1   AR   Ar  179   3.212   0.305   0.465
    1   AR   Ar  180   4.383   0.427  -4.083
    1   AR   Ar  181   0.011   5.396   1.941
    1   AR   Ar  182   1.816   6.401   2.656
    1   AR   Ar  183   4.310   5.155   1.933
    1   AR   Ar  184   5.046   6.875   0.512
    1   AR   Ar  185   2.758   4.888   4.707
    1   AR   Ar  186   2.726   5.728   3.530
    1   AR   Ar  187   3.304   6.746   3.099
    1   AR   Ar  188   2.955   6.896   1.844
    1   AR   Ar  189   4.809   2.720   6.509
    1   AR   Ar  190   3.766   6.052   4.112
    1   AR   Ar  191   2.456   6.423   7.546
    1   AR   Ar  192   4.167   6.208   5.411
    1   AR   Ar  193   3.165   6.204   1.154
    1   AR   Ar  194   4.853   3.768  -0.489
    1   AR   Ar  195   5.903   1.110   0.272
    1   AR   Ar  196   4.053   1.366  -0.745
    1   AR   Ar  197   3.381   1.255   0.747
    1   AR   Ar  198   6.153   1.107   1.317
    1   AR   Ar  199   2.958   0.544   2.696
    1   AR   Ar  200   5.544   3.057  -0.265
    1   AR   Ar  201   5.819   6.141   3.352
    1   AR   Ar  202   5.331   1.518   4.778
    1   AR   Ar  203   0.300   6.844   3.085
    1   AR   Ar  204   5.445   5.997   5.732
    1   AR   Ar  205   0.112   0.086   1.315
    1   AR   Ar  206   5.916   0.202   5.411
    1   AR   Ar  207   0.521   2.161   5.561
    1   AR   Ar  208   0.810   6.187   4.532
    1   AR   Ar  209   6.885   2.577  -1.984
    1   AR   Ar  210   2.215   7.089   0.867
    1   AR   Ar  211   6.829   3.278   0.859
    1   AR   Ar  212   6.691   3.742  -0.512
    1   AR   Ar  213   2.409   0.673   1.771
    1   AR   Ar  214   4.488   3.487   2.192
    1   AR   Ar  215   5.834   3.486   2.204
    1   AR   Ar  216   1.034   2.332   1.365
    1   AR   Ar  217   4.978   2.358   3.973
    1   AR   Ar  218   4.686   3.298   4.370
    1   AR   Ar  219   4.227   3.044   3.345
    1   AR   Ar  220   4.159   2.906   1.146
    1   AR   Ar  221   6.497   5.310   3.766
    1   AR   Ar  222   5.109   6.801   6.274
    1   AR   Ar  223   6.155   1.560   6.514
    1   AR   Ar  224   4.987   2.390   5.249
    1   AR   Ar  225   6.161   3.014   3.343
    1   AR   Ar  226   1.833   2.854   2.925
    1   AR   Ar  227   6.874   3.613   1.812
    1   AR   Ar  228   5.527   6.473   1.394
    1   AR   Ar  229   5.342   5.451  -1.513
    1   AR   Ar  230   3.752   3.915   3.839
    1   AR   Ar  231   4.967   1.412   3.107
    1   AR   Ar  232   5.120   2.611   1.649
    1   AR   Ar  233   6.542   2.157   4.068
    1   AR   Ar  234   5.760   2.548   4.613
    1   AR   Ar  235   6.800   1.030   3.920
    1   AR   Ar  236   4.552   4.883   5.509
    1   AR   Ar  237   6.025   2.696   6.696
    1   AR   Ar  238   5.916   4.216   6.090
    1   AR   Ar  239   0.247   4.859   9.687
    1   AR   Ar  240   6.898   2.755   7.464
    1   AR   Ar  241   1.841   5.908  -1.310
    1   AR   Ar  242   5.556   5.925   0.425
    1   AR   Ar  243   4.598   5.520   3.102
    1   AR   Ar  244   1.089   5.326   0.319
    1   AR   Ar  245   3.381   0.878   1.767
    1   AR   Ar  246   5.488   6.605  -0.347
    1   AR   Ar  247   5.795   3.783   0.960
    1   AR   Ar  248   5.832   5.328  -0.459
    1   AR   Ar  249   4.392   6.195   1.240
    1   AR   Ar  250   4.863   5.727   4.284
    1   AR   Ar  251   4.958   4.400   4.410
    1   AR   Ar  252   3.444   4.875   3.268
    1   AR   Ar  253   7.047   3.578   6.804
    1   AR   Ar  254   2.835   2.163   9.352
    1   AR   Ar  255   4.185   5.468   9.766
    1   AR   Ar  256   5.688   4.590   3.646
    7.12000  7.12000 12.00000
Argon-slab step 3960
  256
    1   AR   Ar    1   4.496   2.190  -2.476
    1   AR   Ar    2   6.197   0.111   0.751
    1   AR   Ar    3   3.945   2.176  -1.480
    1   AR   Ar    4   1.834   0.847  -0.273
    1   AR   Ar    5   6.879   6.369   0.797
    1   AR   Ar    6   0.662   1.781   2.180
    1   AR   Ar    7   5.293   3.640   3.146
    1   AR   Ar    8   4.513   1.163   0.257
    1   AR   Ar    9   1.249   6.979   3.499
    1   AR   Ar   10   0.468   0.222   4.267
    1   AR   Ar   11   2.016   0.189   4.116
    1   AR   Ar   12   0.638   1.051   3.529
    1   AR   Ar   13   6.985   0.696   4.965
    1   AR   Ar   14   4.395   1.412   7.521
    1   AR   Ar   15   3.250   6.355   8.519
    1   AR   Ar   16   0.904   6.999   5.440
    1   AR   Ar   17   6.363   2.312   0.742
    1   AR   Ar   18   6.419   4.564  -1.117
    1   AR   Ar   19   3.563   3.349   0.155
    1   AR   Ar   20   6.369   4.483  -2.677
    1   AR   Ar   21   2.438   1.811   1.621
    1   AR   Ar   22   6.837   1.582   3.000
    1   AR   Ar   23   0.674   0.004   0.483
    1   AR   Ar   24   5.833   2.357   2.442
    1   AR   Ar   25   0.491   1.794   4.468
    1   AR   Ar   26   6.388   7.070   3.958
    1   AR   Ar   27   1.667   1.421   2.330
    1   AR   Ar   28   0.902   2.889   3.992
    1   AR   Ar   29   5.841   1.786   7.674
    1   AR   Ar   30   1.859   1.076   3.551
    1   AR   Ar   31   3.302   7.039   7.466
    1   AR   Ar   32   0.862   2.506   6.638
    1   AR   Ar   33   0.734   4.239   0.201
    1   AR   Ar   34   0.457   4.441   2.422
    1   AR   Ar   35   6.025   5.648   1.359
    1   AR   Ar   36   5.861   2.479  -2.741
    1   AR   Ar   37   4.360   2.341   2.429
    1   AR   Ar   38   6.568   4.207   3.093
    1   AR   Ar   39   0.753   3.544   3.188
    1   AR   Ar   40   1.867   4.251   1.750
    1   AR   Ar   41   0.210   2.562   3.143
    1   AR   Ar   42   5.610   5.179   4.954
    1   AR   Ar   43   6.906   2.737   6.325
    1   AR   Ar   44   0.272   4.777   3.809
    1   AR   Ar   45   0.646   3.387   6.090
    1   AR   Ar   46   0.285   5.024   5.015
    1   AR   Ar   47   4.478   4.262   7.397
    1   AR   Ar   48   5.938   3.668   7.306
    1   AR   Ar   49   5.235   7.088  -1.279
    1   AR   Ar   50   4.316   5.213   0.120
    1   AR   Ar   51   6.251   4.413   1.992
    1   AR   Ar   52   5.705   3.175  -1.958
    1   AR   Ar   53   5.287   6.451   2.458
    1   AR   Ar   54   0.671   6.133   2.291
    1   AR   Ar   55   6.095   5.320   2.493
    1   AR   Ar   56   6.768   0.289   2.439
    1   AR   Ar   57   4.744   4.543   3.431
    1   AR   Ar   58   7.004   3.096   4.084
    1   AR   Ar   59   2.326   5.020   5.748
    1   AR   Ar   60   0.813   5.616   3.316
    1   AR   Ar   61   0.271   4.654   6.811
    1   AR   Ar   62   6.614   4.292   4.307
    1   AR   Ar   63   1.560   1.102   6.541
    1   AR   Ar   64   1.362   5.781   5.265
    1   AR   Ar   65   4.106   0.194   1.196
    1   AR   Ar   66   0.147   1.287   0.978
    1   AR   Ar   67   4.404   7.099  -0.598
    1   AR   Ar   68   0.920   1.526  -1.035
    1   AR   Ar   69   2.823   1.650  -0.133
    1   AR   Ar   70   0.780   0.778   2.026
    1   AR   Ar   71   2.947   1.411   3.585
    1   AR   Ar   72   3.925   0.079   2.569
    1   AR   Ar   73   4.254   0.710   3.589
    1   AR   Ar   74   1.273   0.976   4.432
    1   AR   Ar   75   2.889   0.622   4.881
    1   AR   Ar   76   1.531   0.061   1.748
    1   AR   Ar   77   2.162   6.755   5.051
    1   AR   Ar   78   0.273   5.845   5.783
    1   AR   Ar   79   3.495   6.199   6.219
    1   AR   Ar   80   3.635   5.225   5.112
    1   AR   Ar   81   2.281   6.314  -0.133
    1   AR   Ar   82   6.926   5.395   0.553
    1   AR   Ar   83   1.733   2.197  -0.034
    1   AR   Ar   84   0.596   4.148   1.424
    1   AR   Ar   85   1.528   3.421   0.692
    1   AR   Ar   86   2.330   5.474   0.694
    1   AR   Ar   87   2.317   3.110   1.699
    1   AR   Ar   88   3.154   4.863   1.563
    1   AR   Ar   89   0.053   2.797   2.080
    1   AR   Ar   90   3.087   1.709   4.632
    1   AR   Ar   91   1.293   2.044   3.684
    1   AR   Ar   92   1.145   3.231   2.044
    1   AR   Ar   93   1.015   1.208   5.614
    1   AR   Ar   94   0.454   6.282  10.989
    1   AR   Ar   95   4.933   0.812   5.524
    1   AR   Ar   96   2.973   6.831   4.227
    1   AR   Ar   97   3.634   2.289  -0.482
    1   AR   Ar   98   1.652   4.154   3.716
    1   AR   Ar   99   6.980   1.400  -0.032
    1   AR   Ar  100   0.738   2.817  -0.979
    1   AR   Ar  101   3.795   6.085   2.280
    1   AR   Ar  102   3.710   1.119   2.810
    1   AR   Ar  103   1.726   4.572   0.633
    1   AR   Ar  104   3.385   4.610  -1.280
    1   AR   Ar  105   2.277   2.117   4.060
    1   AR   Ar  106   4.077   3.004   5.438
    1   AR   Ar  107   0.843   3.826   4.836
    1   AR   Ar  108   2.122   1.288   5.057
    1   AR   Ar  109   1.715   3.122   4.702
    1   AR   Ar  110   2.646   2.571   5.081
    1   AR   Ar  111   5.279   5.778   6.891
    1   AR   Ar  112   1.493   5.610   6.403
    1   AR   Ar  113   3.922   4.236  -0.250
    1   AR   Ar  114   2.057   0.093  -1.198
    1   AR   Ar  115   1.836   5.361  -0.413
    1   AR   Ar  116   6.107   0.423  -0.505
    1   AR   Ar  117   1.256   4.983   4.629
    1   AR   Ar  118   1.812   5.143   3.092
    1   AR   Ar  119   2.635   4.639   2.630
    1   AR   Ar  120   1.913   6.198   1.558
    1   AR   Ar  121   5.224   3.993   5.336
    1   AR   Ar  122   2.907   5.867   5.392
    1   AR   Ar  123   3.252   4.196   5.469
    1   AR   Ar  124   1.496   5.204   1.507
    1   AR   Ar  125   7.045   2.989   5.222
    1   AR   Ar  126   6.666   6.209   4.949
    1   AR   Ar  127   4.495   3.938   6.071
    1   AR   Ar  128   2.997   3.684   6.416
    1   AR   Ar  129   1.736   6.164   3.980
    1   AR   Ar  130   4.750   1.727  -3.668
    1   AR   Ar  131   4.335   3.512  -1.611
    1   AR   Ar  132   0.873   1.486   0.199
    1   AR   Ar  133   4.329   6.479   3.182
    1   AR   Ar  134   4.163   1.181   4.536
    1   AR   Ar  135   5.973   1.030   2.781
    1   AR   Ar  136   6.491   6.216   2.191
    1   AR   Ar  137   1.920   4.216   4.739
    1   AR   Ar  138   5.622   0.568   6.378
    1   AR   Ar  139   5.937   2.309   5.792
    1   AR   Ar  140   4.060   0.056   4.824
    1   AR   Ar  141   4.128   5.049   4.138
    1   AR   Ar  142   4.212   0.090   5.956
    1   AR   Ar  143   6.268   6.555   6.453
    1   AR   Ar  144   6.789   1.791   5.163
    1   AR   Ar  145   4.440   4.953  -0.919
    1   AR   Ar  146   3.080   2.319   2.452
    1   AR   Ar  147   4.783   2.665  -0.861
    1   AR   Ar  148   3.151   6.735  -0.857
    1   AR   Ar  149   1.979   1.548  -1.169
    1   AR   Ar  150   2.277   1.867   2.971
    1   AR   Ar  151   3.019   3.164   3.149
    1   AR   Ar  152   1.595   2.502  -1.553
    1   AR   Ar  153   5.048   0.173   4.351
    1   AR   Ar  154   3.883   1.851   3.696
    1   AR   Ar  155   6.997   4.108   5.415
    1   AR   Ar  156   2.773   4.171   3.626
    1   AR   Ar  157   1.427   4.177   5.858
    1   AR   Ar  158   0.074   1.481   6.167
    1   AR   Ar  159   3.658   1.012   6.866
    1   AR   Ar  160   1.383   2.070   4.826
    1   AR   Ar  161   5.278   4.691   2.607
    1   AR   Ar  162   4.532   5.960  -0.663
    1   AR   Ar  163   5.889   4.360   0.064
    1   AR   Ar  164   2.466   5.653   2.417
    1   AR   Ar  165   4.443   2.214   0.405
    1   AR   Ar  166   2.682   3.450   4.444
    1   AR   Ar  167   5.331   0.330   3.380
    1   AR   Ar  168   5.596   4.270  -1.581
    1   AR   Ar  169   3.440   3.878   2.785
    1   AR   Ar  170   2.516   3.509   5.541
    1   AR   Ar  171   5.753   3.586   4.207
    1   AR   Ar  172   4.155   4.089   4.919
    1   AR   Ar  173   1.899   2.651   6.539
    1   AR   Ar  174   2.494   6.007   6.438
    1   AR   Ar  175   3.894   1.956   5.424
    1   AR   Ar  176   4.067   2.489   4.425
    1   AR   Ar  177   0.794   5.149  -0.704
    1   AR   Ar  178   3.509   5.857  -0.285
    1   AR   Ar  179   3.204   0.355   0.477
    1   AR   Ar  180   4.417   0.413  -4.091
    1   AR   Ar  181   0.018   5.401   1.946
    1   AR   Ar  182   1.843   6.377   2.669
    1   AR   Ar  183   4.345   5.158   1.945
    1   AR   Ar  184   5.053   6.871   0.483
    1   AR   Ar  185   2.761   4.876   4.724
    1   AR   Ar  186   2.729   5.749   3.521
    1   AR   Ar  187   3.259   6.759   3.096
    1   AR   Ar  188   2.960   6.897   1.856
    1   AR   Ar  189   4.820   2.709   6.465
    1   AR   Ar  190   3.779   6.055   4.114
    1   AR   Ar  191   2.440   6.426   7.519
    1   AR   Ar  192   4.191   6.194   5.443
    1   AR   Ar  193   3.143   6.222   1.153
    1   AR   Ar  194   4.858   3.747  -0.486
    1   AR   Ar  195   5.911   1.153   0.254
    1   AR   Ar  196   4.052   1.381  -0.716
    1   AR   Ar  197   3.378   1.265   0.732
    1   AR   Ar  198   6.115   1.062   1.341
    1   AR   Ar  199   2.916   0.527   2.707
    1   AR   Ar  200   5.532   3.049  -0.223
    1   AR   Ar  201   5.809   6.142   3.341
    1   AR   Ar  202   5.331   1.541   4.732
    1   AR   Ar  203   0.296   6.871   3.101
    1   AR   Ar  204   5.449   5.988   5.733
    1   AR   Ar  205   0.095   0.140   1.351
    1   AR   Ar  206   5.920   0.203   5.407
    1   AR   Ar  207   0.543   2.196   5.573
    1   AR   Ar  208   0.783   6.194   4.541
    1   AR   Ar  209   6.910   2.559  -1.975
    1   AR   Ar  210   2.202   0.011   0.896
    1   AR   Ar  211   6.804   3.262   0.873
    1   AR   Ar  212   6.701   3.745  -0.483
    1   AR   Ar  213   2.387   0.683   1.771
    1   AR   Ar  214   4.496   3.476   2.206
    1   AR   Ar  215   5.864   3.477   2.229
    1   AR   Ar  216   1.013   2.352   1.377
    1   AR   Ar  217   4.963   2.321   3.965
    1   AR   Ar  218   4.685   3.314   4.371
    1   AR   Ar  219   4.237   3.019   3.313
    1   AR   Ar  220   4.162   2.923   1.167
    1   AR   Ar  221   6.497   5.314   3.739
    1   AR   Ar  222   5.118   6.790   6.253
    1   AR   Ar  223   6.169   1.578   6.530
    1   AR   Ar  224   4.983   2.390   5.254
    1   AR   Ar  225   6.134   2.997   3.378
    1   AR   Ar  226   1.829   2.876   2.917
    1   AR   Ar  227   6.879   3.651   1.819
    1   AR   Ar  228   5.544   6.472   1.404
    1   AR   Ar  229   5.338   5.447  -1.529
    1   AR   Ar  230   3.763   3.898   3.852
    1   AR   Ar  231   5.011   1.384   3.055
    1   AR   Ar  232   5.104   2.631   1.638
    1   AR   Ar  233   6.533   2.153   4.042
    1   AR   Ar  234   5.767   2.526   4.608
    1   AR   Ar  235   6.797   1.025   3.929
    1   AR   Ar  236   4.586   4.892   5.509
    1   AR   Ar  237   6.007   2.708   6.681
    1   AR   Ar  238   5.882   4.190   6.091
    1   AR   Ar  239   0.285   4.859   9.706
    1   AR   Ar  240   6.883   2.774   7.474
    1   AR   Ar  241   1.837   5.928  -1.292
    1   AR   Ar  242   5.576   5.896   0.428
    1   AR   Ar  243   4.598   5.512   3.088
    1   AR   Ar  244   1.080   5.306   0.333
    1   AR   Ar  245   3.378   0.853   1.773
    1   AR   Ar  246   5.488   6.611  -0.400
    1   AR   Ar  247   5.828   3.795   0.957
    1   AR   Ar  248   5.828   5.301  -0.462
    1   AR   Ar  249   4.392   6.215   1.268
    1   AR   Ar  250   4.876   5.724   4.304
    1   AR   Ar  251   4.951   4.393   4.407
    1   AR   Ar  252   3.413   4.906   3.271
    1   AR   Ar  253   7.020   3.568   6.795
    1   AR   Ar  254   2.854   2.149   9.363
    1   AR   Ar  255   4.159   5.481   9.782
    1   AR   Ar  256   5.698   4.600   3.668
    7.12000  7.12000 12.00000
Argon-slab step 3965
  256
    1   AR   Ar    1   4.521   2.194  -2.482
    1   AR   Ar    2   6.209   0.124   0.747
    1   AR   Ar    3   3.961   2.191  -1.463
    1   AR   Ar    4   1.845   0.851  -0.285
    1   AR   Ar    5   6.876   6.366   0.804
    1   AR   Ar    6   0.689   1.791   2.155
    1   AR   Ar    7   5.259   3.624   3.153
    1   AR   Ar    8   4.545   1.168   0.233
    1   AR   Ar    9   1.228   6.968   3.534
    1   AR   Ar   10   0.461   0.223   4.246
    1   AR   Ar   11   2.026   0.215   4.109
    1   AR   Ar   12   0.618   1.050   3.538
    1   AR   Ar   13   6.992   0.681   4.973
    1   AR   Ar   14   4.417   1.389   7.528
    1   AR   Ar   15   3.234   6.360   8.533
    1   AR   Ar   16   0.894   7.010   5.429
    1   AR   Ar   17   6.320   2.312   0.753
    1   AR   Ar   18   6.399   4.541  -1.114
    1   AR   Ar   19   3.559   3.311   0.174
    1   AR   Ar   20   6.370   4.523  -2.710
    1   AR   Ar   21   2.469   1.807   1.651
    1   AR   Ar   22   6.831   1.533   3.002
    1   AR   Ar   23   0.664   7.110   0.478
    1   AR   Ar   24   5.801   2.363   2.469
    1   AR   Ar   25   0.495   1.816   4.446
    1   AR   Ar   26   6.369   7.031   3.958
    1   AR   Ar   27   1.648   1.414   2.337
    1   AR   Ar   28   0.885   2.868   3.980
    1   AR   Ar   29   5.845   1.761   7.681
    1   AR   Ar   30   1.902   1.073   3.551
    1   AR   Ar   31   3.304   7.030   7.481
    1   AR   Ar   32   0.847   2.499   6.599
    1   AR   Ar   33   0.734   4.221   0.147
    1   AR   Ar   34   0.434   4.467   2.432
    1   AR   Ar   35   6.035   5.618   1.380
    1   AR   Ar   36   5.888   2.483  -2.719
    1   AR   Ar   37   4.330   2.357   2.420
    1   AR   Ar   38   6.579   4.211   3.076
    1   AR   Ar   39   0.749   3.549   3.188
    1   AR   Ar   40   1.863   4.250   1.743
    1   AR   Ar   41   0.193   2.532   3.154
    1   AR   Ar   42   5.614   5.187   4.972
    1   AR   Ar   43   6.910   2.731   6.319
    1   AR   Ar   44   0.318   4.791   3.760
    1   AR   Ar   45   0.643   3.410   6.087
    1   AR   Ar   46   0.264   5.003   4.959
    1   AR   Ar   47   4.446   4.259   7.403
    1   AR   Ar   48   5.942   3.664   7.265
    1   AR   Ar   49   5.249   7.075  -1.278
    1   AR   Ar   50   4.286   5.210   0.097
    1   AR   Ar   51   6.221   4.391   2.013
    1   AR   Ar   52   5.684   3.194  -1.957
    1   AR   Ar   53   5.281   6.470   2.456
    1   AR   Ar   54   0.665   6.140   2.296
    1   AR   Ar   55   6.106   5.344   2.511
    1   AR   Ar   56   6.767   0.277   2.459
    1   AR   Ar   57   4.735   4.568   3.459
    1   AR   Ar   58   7.038   3.117   4.080
    1   AR   Ar   59   2.347   5.013   5.754
    1   AR   Ar   60   0.861   5.620   3.322
    1   AR   Ar   61   0.277   4.682   6.814
    1   AR   Ar   62   6.589   4.289   4.279
    1   AR   Ar   63   1.521   1.099   6.544
    1   AR   Ar   64   1.379   5.819   5.283
    1   AR   Ar   65   4.113   0.231   1.201
    1   AR   Ar   66   0.189   1.270   0.987
    1   AR   Ar   67   4.406   7.081  -0.618
    1   AR   Ar   68   0.904   1.495  -1.052
    1   AR   Ar   69   2.841   1.629  -0.129
    1   AR   Ar   70   0.783   0.791   2.046
    1   AR   Ar   71   2.933   1.373   3.540
    1   AR   Ar   72   3.957   0.093   2.544
    1   AR   Ar   73   4.254   0.703   3.617
    1   AR   Ar   74   1.251   0.982   4.400
    1   AR   Ar   75   2.869   0.628   4.862
    1   AR   Ar   76   1.502   0.057   1.777
    1   AR   Ar   77   2.188   6.768   5.036
    1   AR   Ar   78   0.255   5.845   5.788
    1   AR   Ar   79   3.525   6.233   6.239
    1   AR   Ar   80   3.629   5.226   5.093
    1   AR   Ar   81   2.273   6.335  -0.134
    1   AR   Ar   82   6.947   5.373   0.585
    1   AR   Ar   83   1.700   2.215  -0.058
    1   AR   Ar   84   0.612   4.170   1.433
    1   AR   Ar   85   1.561   3.411   0.700
    1   AR   Ar   86   2.311   5.489   0.697
    1   AR   Ar   87   2.338   3.110   1.697
    1   AR   Ar   88   3.143   4.873   1.566
    1   AR   Ar   89   0.047   2.778   2.095
    1   AR   Ar   90   3.153   1.709   4.631
    1   AR   Ar   91   1.310   2.050   3.652
    1   AR   Ar   92   1.152   3.261   2.013
    1   AR   Ar   93   1.032   1.199   5.621
    1   AR   Ar   94   0.460   6.268  10.999
    1   AR   Ar   95   4.918   0.819   5.543
    1   AR   Ar   96   2.995   6.816   4.208
    1   AR   Ar   97   3.655   2.319  -0.480
    1   AR   Ar   98   1.642   4.173   3.720
    1   AR   Ar   99   6.981   1.431  -0.020
    1   AR   Ar  100   0.727   2.838  -1.000
    1   AR   Ar  101   3.819   6.082   2.260
    1   AR   Ar  102   3.731   1.117   2.837
    1   AR   Ar  103   1.745   4.584   0.640
    1   AR   Ar  104   3.352   4.608  -1.293
    1   AR   Ar  105   2.292   2.112   4.077
    1   AR   Ar  106   4.063   3.039   5.439
    1   AR   Ar  107   0.856   3.840   4.856
    1   AR   Ar  108   2.124   1.310   5.055
    1   AR   Ar  109   1.716   3.121   4.710
    1   AR   Ar  110   2.604   2.592   5.082
    1   AR   Ar  111   5.277   5.807   6.882
    1   AR   Ar  112   1.501   5.621   6.404
    1   AR   Ar  113   3.946   4.213  -0.287
    1   AR   Ar  114   2.032   0.072  -1.196
    1   AR   Ar  115   1.848   5.383  -0.399
    1   AR   Ar  116   6.119   0.437  -0.544
    1   AR   Ar  117   1.270   4.956   4.598
    1   AR   Ar  118   1.785   5.171   3.088
    1   AR   Ar  119   2.637   4.650   2.625
    1   AR   Ar  120   1.897   6.196   1.548
    1   AR   Ar  121   5.253   3.967   5.349
    1   AR   Ar  122   2.866   5.903   5.400
    1   AR   Ar  123   3.252   4.260   5.468
    1   AR   Ar  124   1.476   5.185   1.490
    1   AR   Ar  125   7.026   3.001   5.219
    1   AR   Ar  126   6.654   6.245   4.973
    1   AR   Ar  127   4.467   3.932   6.094
    1   AR   Ar  128   3.000   3.652   6.390
    1   AR   Ar  129   1.719   6.146   3.975
    1   AR   Ar  130   4.746   1.696  -3.672
    1   AR   Ar  131   4.370   3.523  -1.614
    1   AR   Ar  132   0.895   1.527   0.194
    1   AR   Ar  133   4.329   6.530   3.202
    1   AR   Ar  134   4.147   1.176   4.532
    1   AR   Ar  135   5.996   1.014   2.791
    1   AR   Ar  136   6.491   6.213   2.169
    1   AR   Ar  137   1.912   4.237   4.751
    1   AR   Ar  138   5.624   0.572   6.353
    1   AR   Ar  139   5.966   2.324   5.771
    1   AR   Ar  140   4.070   0.069   4.865
    1   AR   Ar  141   4.111   5.021   4.169
    1   AR   Ar  142   4.205   0.094   5.947
    1   AR   Ar  143   6.321   6.542   6.488
    1   AR   Ar  144   6.820   1.814   5.170
    1   AR   Ar  145   4.459   4.939  -0.905
    1   AR   Ar  146   3.071   2.329   2.476
    1   AR   Ar  147   4.808   2.686  -0.897
    1   AR   Ar  148   3.144   6.712  -0.853
    1   AR   Ar  149   1.969   1.556  -1.156
    1   AR   Ar  150   2.312   1.850   2.951
    1   AR   Ar  151   3.020   3.162   3.189
    1   AR   Ar  152   1.587   2.508  -1.559
    1   AR   Ar  153   5.033   0.170   4.372
    1   AR   Ar  154   3.897   1.892   3.688
    1   AR   Ar  155   6.997   4.104   5.410
    1   AR   Ar  156   2.765   4.156   3.605
    1   AR   Ar  157   1.453   4.195   5.872
    1   AR   Ar  158   0.078   1.460   6.177
    1   AR   Ar  159   3.642   1.031   6.825
    1   AR   Ar  160   1.411   2.079   4.831
    1   AR   Ar  161   5.253   4.706   2.624
    1   AR   Ar  162   4.489   5.968  -0.683
    1   AR   Ar  163   5.888   4.376   0.086
    1   AR   Ar  164   2.470   5.623   2.430
    1   AR   Ar  165   4.446   2.259   0.427
    1   AR   Ar  166   2.671   3.471   4.453
    1   AR   Ar  167   5.356   0.331   3.368
    1   AR   Ar  168   5.582   4.264  -1.558
    1   AR   Ar  169   3.447   3.932   2.789
    1   AR   Ar  170   2.502   3.515   5.551
    1   AR   Ar  171   5.754   3.577   4.230
    1   AR   Ar  172   4.171   4.118   4.898
    1   AR   Ar  173   1.869   2.619   6.543
    1   AR   Ar  174   2.495   5.996   6.360
    1   AR   Ar  175   3.907   1.945   5.420
    1   AR   Ar  176   4.062   2.535   4.434
    1   AR   Ar  177   0.804   5.135  -0.744
    1   AR   Ar  178   3.476   5.875  -0.270
    1   AR   Ar  179   3.175   0.349   0.465
    1   AR   Ar  180   4.451   0.400  -4.098
    1   AR   Ar  181   0.021   5.403   1.952
    1   AR   Ar  182   1.843   6.388   2.676
    1   AR   Ar  183   4.379   5.162   1.958
    1   AR   Ar  184   5.056   6.869   0.458
    1   AR   Ar  185   2.759   4.863   4.737
    1   AR   Ar  186   2.732   5.772   3.512
    1   AR   Ar  187   3.200   6.757   3.107
    1   AR   Ar  188   2.965   6.904   1.877
    1   AR   Ar  189   4.831   2.699   6.420
    1   AR   Ar  190   3.761   6.053   4.116
    1   AR   Ar  191   2.422   6.426   7.492
    1   AR   Ar  192   4.218   6.180   5.471
    1   AR   Ar  193   3.124   6.232   1.146
    1   AR   Ar  194   4.859   3.732  -0.486
    1   AR   Ar  195   5.919   1.196   0.238
    1   AR   Ar  196   4.053   1.391  -0.687
    1   AR   Ar  197   3.383   1.294   0.710
    1   AR   Ar  198   6.078   1.018   1.366
    1   AR   Ar  199   2.862   0.508   2.718
    1   AR   Ar  200   5.520   3.025  -0.181
    1   AR   Ar  201   5.800   6.141   3.332
    1   AR   Ar  202   5.331   1.560   4.683
    1   AR   Ar  203   0.285   6.867   3.096
    1   AR   Ar  204   5.456   5.972   5.731
    1   AR   Ar  205   0.075   0.196   1.391
    1   AR   Ar  206   5.924   0.203   5.401
    1   AR   Ar  207   0.571   2.236   5.585
    1   AR   Ar  208   0.751   6.204   4.546
    1   AR   Ar  209   6.934   2.541  -1.966
    1   AR   Ar  210   2.190   0.051   0.923
    1   AR   Ar  211   6.781   3.247   0.883
    1   AR   Ar  212   6.711   3.746  -0.452
    1   AR   Ar  213   2.384   0.696   1.768
    1   AR   Ar  214   4.505   3.464   2.221
    1   AR   Ar  215   5.892   3.464   2.256
    1   AR   Ar  216   0.994   2.375   1.387
    1   AR   Ar  217   4.950   2.281   3.951
    1   AR   Ar  218   4.651   3.314   4.355
    1   AR   Ar  219   4.247   2.994   3.283
    1   AR   Ar  220   4.164   2.942   1.190
    1   AR   Ar  221   6.495   5.320   3.712
    1   AR   Ar  222   5.126   6.780   6.235
    1   AR   Ar  223   6.182   1.595   6.547
    1   AR   Ar  224   4.973   2.393   5.262
    1   AR   Ar  225   6.130   2.976   3.379
    1   AR   Ar  226   1.824   2.899   2.910
    1   AR   Ar  227   6.879   3.707   1.824
    1   AR   Ar  228   5.552   6.488   1.414
    1   AR   Ar  229   5.334   5.442  -1.544
    1   AR   Ar  230   3.778   3.882   3.867
    1   AR   Ar  231   5.050   1.358   3.005
    1   AR   Ar  232   5.089   2.652   1.627
    1   AR   Ar  233   6.529   2.142   4.012
    1   AR   Ar  234   5.779   2.509   4.605
    1   AR   Ar  235   6.779   1.032   3.951
    1   AR   Ar  236   4.623   4.903   5.508
    1   AR   Ar  237   5.994   2.714   6.688
    1   AR   Ar  238   5.853   4.164   6.098
    1   AR   Ar  239   0.324   4.860   9.725
    1   AR   Ar  240   6.867   2.791   7.484
    1   AR   Ar  241   1.835   5.951  -1.275
    1   AR   Ar  242   5.574   5.927   0.407
    1   AR   Ar  243   4.600   5.499   3.073
    1   AR   Ar  244   1.069   5.284   0.350
    1   AR   Ar  245   3.384   0.828   1.778
    1   AR   Ar  246   5.491   6.612  -0.455
    1   AR   Ar  247   5.862   3.804   0.959
    1   AR   Ar  248   5.823   5.275  -0.466
    1   AR   Ar  249   4.392   6.254   1.267
    1   AR   Ar  250   4.892   5.725   4.324
    1   AR   Ar  251   4.952   4.389   4.404
    1   AR   Ar  252   3.389   4.941   3.275
    1   AR   Ar  253   6.991   3.577   6.794
    1   AR   Ar  254   2.873   2.135   9.375
    1   AR   Ar  255   4.132   5.494   9.798
    1   AR   Ar  256   5.719   4.609   3.691
    7.12000  7.12000 12.00000
Argon-slab step 3970
  256
    1   AR   Ar    1   4.539   2.197  -2.499
    1   AR   Ar    2   6.220   0.137   0.742
    1   AR   Ar    3   3.978   2.206  -1.450
    1   AR   Ar    4   1.856   0.855  -0.297
    1   AR   Ar    5   6.872   6.369   0.815
    1   AR   Ar    6   0.709   1.806   2.136
    1   AR   Ar    7   5.224   3.610   3.162
    1   AR   Ar    8   4.578   1.171   0.211
    1   AR   Ar    9   1.206   6.959   3.568
    1   AR   Ar   10   0.455   0.220   4.223
    1   AR   Ar   11   2.039   0.238   4.106
    1   AR   Ar   12   0.601   1.051   3.544
    1   AR   Ar   13   6.998   0.669   4.984
    1   AR   Ar   14   4.439   1.366   7.535
    1   AR   Ar   15   3.218   6.366   8.546
    1   AR   Ar   16   0.883   7.020   5.415
    1   AR   Ar   17   6.296   2.313   0.745
    1   AR   Ar   18   6.391   4.525  -1.104
    1   AR   Ar   19   3.555   3.270   0.194
    1   AR   Ar   20   6.370   4.563  -2.742
    1   AR   Ar   21   2.500   1.803   1.682
    1   AR   Ar   22   6.832   1.489   3.005
    1   AR   Ar   23   0.655   7.096   0.473
    1   AR   Ar   24   5.769   2.368   2.496
    1   AR   Ar   25   0.495   1.837   4.419
    1   AR   Ar   26   6.351   6.993   3.959
    1   AR   Ar   27   1.629   1.401   2.341
    1   AR   Ar   28   0.872   2.855   3.976
    1   AR   Ar   29   5.850   1.737   7.686
    1   AR   Ar   30   1.941   1.073   3.548
    1   AR   Ar   31   3.308   7.021   7.495
    1   AR   Ar   32   0.826   2.489   6.562
    1   AR   Ar   33   0.735   4.204   0.094
    1   AR   Ar   34   0.409   4.492   2.447
    1   AR   Ar   35   6.053   5.578   1.400
    1   AR   Ar   36   5.917   2.485  -2.698
    1   AR   Ar   37   4.300   2.372   2.411
    1   AR   Ar   38   6.589   4.214   3.059
    1   AR   Ar   39   0.745   3.557   3.186
    1   AR   Ar   40   1.860   4.245   1.737
    1   AR   Ar   41   0.175   2.501   3.167
    1   AR   Ar   42   5.618   5.193   4.989
    1   AR   Ar   43   6.922   2.710   6.301
    1   AR   Ar   44   0.312   4.807   3.746
    1   AR   Ar   45   0.641   3.435   6.078
    1   AR   Ar   46   0.258   4.976   4.951
    1   AR   Ar   47   4.415   4.256   7.407
    1   AR   Ar   48   5.947   3.660   7.224
    1   AR   Ar   49   5.261   7.069  -1.289
    1   AR   Ar   50   4.257   5.208   0.078
    1   AR   Ar   51   6.188   4.381   2.029
    1   AR   Ar   52   5.630   3.192  -1.964
    1   AR   Ar   53   5.272   6.489   2.454
    1   AR   Ar   54   0.664   6.151   2.302
    1   AR   Ar   55   6.115   5.364   2.533
    1   AR   Ar   56   6.765   0.267   2.475
    1   AR   Ar   57   4.714   4.580   3.481
    1   AR   Ar   58   7.064   3.143   4.078
    1   AR   Ar   59   2.366   5.004   5.760
    1   AR   Ar   60   0.906   5.627   3.329
    1   AR   Ar   61   0.283   4.708   6.816
    1   AR   Ar   62   6.586   4.288   4.273
    1   AR   Ar   63   1.484   1.097   6.549
    1   AR   Ar   64   1.399   5.856   5.305
    1   AR   Ar   65   4.119   0.267   1.205
    1   AR   Ar   66   0.230   1.253   1.000
    1   AR   Ar   67   4.406   7.063  -0.634
    1   AR   Ar   68   0.887   1.466  -1.067
    1   AR   Ar   69   2.864   1.607  -0.120
    1   AR   Ar   70   0.782   0.798   2.066
    1   AR   Ar   71   2.929   1.327   3.503
    1   AR   Ar   72   3.989   0.112   2.510
    1   AR   Ar   73   4.242   0.685   3.631
    1   AR   Ar   74   1.230   0.990   4.371
    1   AR   Ar   75   2.853   0.630   4.840
    1   AR   Ar   76   1.472   0.051   1.807
    1   AR   Ar   77   2.215   6.781   5.021
    1   AR   Ar   78   0.237   5.846   5.791
    1   AR   Ar   79   3.555   6.269   6.262
    1   AR   Ar   80   3.633   5.229   5.078
    1   AR   Ar   81   2.267   6.358  -0.135
    1   AR   Ar   82   6.967   5.345   0.616
    1   AR   Ar   83   1.668   2.232  -0.083
    1   AR   Ar   84   0.616   4.184   1.436
    1   AR   Ar   85   1.593   3.401   0.710
    1   AR   Ar   86   2.292   5.506   0.700
    1   AR   Ar   87   2.339   3.108   1.698
    1   AR   Ar   88   3.132   4.884   1.571
    1   AR   Ar   89   0.044   2.751   2.111
    1   AR   Ar   90   3.219   1.709   4.629
    1   AR   Ar   91   1.330   2.044   3.613
    1   AR   Ar   92   1.158   3.292   1.981
    1   AR   Ar   93   1.047   1.190   5.622
    1   AR   Ar   94   0.464   6.240  11.003
    1   AR   Ar   95   4.903   0.827   5.560
    1   AR   Ar   96   3.015   6.801   4.189
    1   AR   Ar   97   3.675   2.356  -0.472
    1   AR   Ar   98   1.631   4.192   3.723
    1   AR   Ar   99   6.979   1.461  -0.010
    1   AR   Ar  100   0.715   2.859  -1.021
    1   AR   Ar  101   3.842   6.080   2.242
    1   AR   Ar  102   3.752   1.120   2.859
    1   AR   Ar  103   1.767   4.587   0.648
    1   AR   Ar  104   3.321   4.606  -1.305
    1   AR   Ar  105   2.295   2.101   4.071
    1   AR   Ar  106   4.050   3.076   5.440
    1   AR   Ar  107   0.868   3.854   4.877
    1   AR   Ar  108   2.123   1.335   5.052
    1   AR   Ar  109   1.713   3.120   4.718
    1   AR   Ar  110   2.563   2.606   5.081
    1   AR   Ar  111   5.280   5.836   6.873
    1   AR   Ar  112   1.506   5.630   6.403
    1   AR   Ar  113   3.966   4.191  -0.324
    1   AR   Ar  114   2.007   0.049  -1.193
    1   AR   Ar  115   1.861   5.402  -0.382
    1   AR   Ar  116   6.129   0.450  -0.582
    1   AR   Ar  117   1.277   4.938   4.563
    1   AR   Ar  118   1.760   5.198   3.086
    1   AR   Ar  119   2.637   4.652   2.618
    1   AR   Ar  120   1.885   6.194   1.538
    1   AR   Ar  121   5.274   3.938   5.350
    1   AR   Ar  122   2.826   5.940   5.401
    1   AR   Ar  123   3.254   4.324   5.469
    1   AR   Ar  124   1.452   5.169   1.472
    1   AR   Ar  125   7.007   3.012   5.215
    1   AR   Ar  126   6.643   6.282   4.997
    1   AR   Ar  127   4.438   3.925   6.116
    1   AR   Ar  128   3.010   3.621   6.374
    1   AR   Ar  129   1.705   6.127   3.971
    1   AR   Ar  130   4.742   1.665  -3.675
    1   AR   Ar  131   4.407   3.537  -1.609
    1   AR   Ar  132   0.920   1.567   0.188
    1   AR   Ar  133   4.331   6.580   3.227
    1   AR   Ar  134   4.132   1.174   4.533
    1   AR   Ar  135   6.015   0.977   2.812
    1   AR   Ar  136   6.493   6.221   2.145
    1   AR   Ar  137   1.912   4.244   4.769
    1   AR   Ar  138   5.627   0.580   6.331
    1   AR   Ar  139   5.994   2.337   5.739
    1   AR   Ar  140   4.078   0.082   4.904
    1   AR   Ar  141   4.089   4.992   4.199
    1   AR   Ar  142   4.194   0.099   5.939
    1   AR   Ar  143   6.372   6.530   6.521
    1   AR   Ar  144   6.846   1.836   5.177
    1   AR   Ar  145   4.475   4.963  -0.938
    1   AR   Ar  146   3.071   2.312   2.487
    1   AR   Ar  147   4.830   2.707  -0.935
    1   AR   Ar  148   3.136   6.690  -0.849
    1   AR   Ar  149   1.965   1.568  -1.141
    1   AR   Ar  150   2.345   1.850   2.950
    1   AR   Ar  151   3.012   3.145   3.238
    1   AR   Ar  152   1.591   2.506  -1.571
    1   AR   Ar  153   5.018   0.168   4.395
    1   AR   Ar  154   3.911   1.926   3.672
    1   AR   Ar  155   6.996   4.098   5.406
    1   AR   Ar  156   2.764   4.198   3.629
    1   AR   Ar  157   1.479   4.214   5.884
    1   AR   Ar  158   0.084   1.439   6.186
    1   AR   Ar  159   3.626   1.049   6.783
    1   AR   Ar  160   1.454   2.091   4.831
    1   AR   Ar  161   5.234   4.721   2.632
    1   AR   Ar  162   4.449   5.981  -0.702
    1   AR   Ar  163   5.887   4.391   0.104
    1   AR   Ar  164   2.480   5.597   2.437
    1   AR   Ar  165   4.449   2.303   0.446
    1   AR   Ar  166   2.665   3.495   4.459
    1   AR   Ar  167   5.380   0.331   3.355
    1   AR   Ar  168   5.554   4.254  -1.542
    1   AR   Ar  169   3.465   4.000   2.784
    1   AR   Ar  170   2.478   3.521   5.552
    1   AR   Ar  171   5.754   3.569   4.252
    1   AR   Ar  172   4.172   4.142   4.887
    1   AR   Ar  173   1.843   2.588   6.545
    1   AR   Ar  174   2.494   5.986   6.288
    1   AR   Ar  175   3.921   1.932   5.414
    1   AR   Ar  176   4.046   2.576   4.454
    1   AR   Ar  177   0.814   5.120  -0.782
    1   AR   Ar  178   3.443   5.892  -0.254
    1   AR   Ar  179   3.143   0.333   0.451
    1   AR   Ar  180   4.485   0.387  -4.106
    1   AR   Ar  181   0.022   5.399   1.955
    1   AR   Ar  182   1.809   6.447   2.669
    1   AR   Ar  183   4.414   5.166   1.972
    1   AR   Ar  184   5.066   6.860   0.469
    1   AR   Ar  185   2.741   4.858   4.732
    1   AR   Ar  186   2.734   5.796   3.504
    1   AR   Ar  187   3.169   6.745   3.119
    1   AR   Ar  188   2.969   6.914   1.904
    1   AR   Ar  189   4.825   2.696   6.390
    1   AR   Ar  190   3.744   6.050   4.118
    1   AR   Ar  191   2.403   6.424   7.465
    1   AR   Ar  192   4.249   6.165   5.495
    1   AR   Ar  193   3.105   6.237   1.132
    1   AR   Ar  194   4.858   3.722  -0.490
    1   AR   Ar  195   5.927   1.239   0.223
    1   AR   Ar  196   4.054   1.397  -0.661
    1   AR   Ar  197   3.387   1.314   0.698
    1   AR   Ar  198   6.042   0.975   1.392
    1   AR   Ar  199   2.804   0.495   2.728
    1   AR   Ar  200   5.515   2.997  -0.135
    1   AR   Ar  201   5.792   6.140   3.324
    1   AR   Ar  202   5.329   1.574   4.635
    1   AR   Ar  203   0.271   6.853   3.089
    1   AR   Ar  204   5.465   5.952   5.725
    1   AR   Ar  205   0.054   0.252   1.431
    1   AR   Ar  206   5.928   0.202   5.393
    1   AR   Ar  207   0.603   2.278   5.596
    1   AR   Ar  208   0.716   6.216   4.547
    1   AR   Ar  209   6.958   2.524  -1.957
    1   AR   Ar  210   2.180   0.088   0.949
    1   AR   Ar  211   6.760   3.233   0.891
    1   AR   Ar  212   6.721   3.746  -0.420
    1   AR   Ar  213   2.413   0.712   1.761
    1   AR   Ar  214   4.514   3.451   2.237
    1   AR   Ar  215   5.917   3.445   2.284
    1   AR   Ar  216   0.976   2.402   1.389
    1   AR   Ar  217   4.939   2.241   3.933
    1   AR   Ar  218   4.627   3.323   4.338
    1   AR   Ar  219   4.258   2.970   3.255
    1   AR   Ar  220   4.162   2.963   1.213
    1   AR   Ar  221   6.494   5.328   3.683
    1   AR   Ar  222   5.132   6.771   6.220
    1   AR   Ar  223   6.194   1.613   6.566
    1   AR   Ar  224   4.957   2.396   5.272
    1   AR   Ar  225   6.131   2.955   3.371
    1   AR   Ar  226   1.820   2.922   2.903
    1   AR   Ar  227   6.887   3.761   1.828
    1   AR   Ar  228   5.556   6.514   1.423
    1   AR   Ar  229   5.330   5.436  -1.556
    1   AR   Ar  230   3.796   3.866   3.882
    1   AR   Ar  231   5.083   1.335   2.956
    1   AR   Ar  232   5.071   2.667   1.620
    1   AR   Ar  233   6.531   2.129   3.979
    1   AR   Ar  234   5.793   2.499   4.604
    1   AR   Ar  235   6.758   1.038   3.976
    1   AR   Ar  236   4.661   4.915   5.506
    1   AR   Ar  237   5.984   2.716   6.711
    1   AR   Ar  238   5.832   4.141   6.115
    1   AR   Ar  239   0.362   4.861   9.743
    1   AR   Ar  240   6.849   2.806   7.494
    1   AR   Ar  241   1.832   5.976  -1.260
    1   AR   Ar  242   5.572   5.957   0.387
    1   AR   Ar  243   4.601   5.491   3.056
    1   AR   Ar  244   1.053   5.268   0.368
    1   AR   Ar  245   3.397   0.805   1.784
    1   AR   Ar  246   5.499   6.604  -0.501
    1   AR   Ar  247   5.895   3.812   0.965
    1   AR   Ar  248   5.817   5.252  -0.474
    1   AR   Ar  249   4.392   6.293   1.265
    1   AR   Ar  250   4.909   5.727   4.344
    1   AR   Ar  251   4.971   4.388   4.404
    1   AR   Ar  252   3.372   4.979   3.282
    1   AR   Ar  253   6.964   3.601   6.798
    1   AR   Ar  254   2.892   2.122   9.386
    1   AR   Ar  255   4.106   5.507   9.814
    1   AR   Ar  256   5.746   4.617   3.714
    7.12000  7.12000 12.00000
Argon-slab step 3975
  256
    1   AR   Ar    1   4.557   2.201  -2.516
    1   AR   Ar    2   6.240   0.164   0.750
    1   AR   Ar    3   3.998   2.220  -1.442
    1   AR   Ar    4   1.867   0.860  -0.309
    1   AR   Ar    5   6.867   6.375   0.828
    1   AR   Ar    6   0.720   1.825   2.127
    1   AR   Ar    7   5.208   3.600   3.149
    1   AR   Ar    8   4.612   1.173   0.193
    1   AR   Ar    9   1.186   6.952   3.598
    1   AR   Ar   10   0.447   0.215   4.200
    1   AR   Ar   11   2.054   0.257   4.107
    1   AR   Ar   12   0.597   1.062   3.528
    1   AR   Ar   13   7.003   0.658   4.998
    1   AR   Ar   14   4.461   1.344   7.542
    1   AR   Ar   15   3.214   6.365   8.562
    1   AR   Ar   16   0.873   7.029   5.399
    1   AR   Ar   17   6.301   2.318   0.709
    1   AR   Ar   18   6.382   4.521  -1.092
    1   AR   Ar   19   3.551   3.241   0.200
    1   AR   Ar   20   6.370   4.602  -2.773
    1   AR   Ar   21   2.531   1.800   1.714
    1   AR   Ar   22   6.845   1.452   3.009
    1   AR   Ar   23   0.645   7.082   0.469
    1   AR   Ar   24   5.736   2.373   2.524
    1   AR   Ar   25   0.494   1.858   4.389
    1   AR   Ar   26   6.333   6.956   3.959
    1   AR   Ar   27   1.614   1.384   2.345
    1   AR   Ar   28   0.869   2.843   3.977
    1   AR   Ar   29   5.856   1.713   7.690
    1   AR   Ar   30   1.973   1.076   3.541
    1   AR   Ar   31   3.314   7.012   7.510
    1   AR   Ar   32   0.802   2.478   6.534
    1   AR   Ar   33   0.736   4.187   0.042
    1   AR   Ar   34   0.384   4.517   2.464
    1   AR   Ar   35   6.073   5.534   1.419
    1   AR   Ar   36   5.945   2.486  -2.679
    1   AR   Ar   37   4.270   2.384   2.398
    1   AR   Ar   38   6.599   4.217   3.043
    1   AR   Ar   39   0.740   3.566   3.182
    1   AR   Ar   40   1.858   4.235   1.732
    1   AR   Ar   41   0.158   2.470   3.181
    1   AR   Ar   42   5.617   5.200   5.005
    1   AR   Ar   43   6.937   2.682   6.276
    1   AR   Ar   44   0.314   4.796   3.729
    1   AR   Ar   45   0.639   3.461   6.066
    1   AR   Ar   46   0.256   4.948   4.953
    1   AR   Ar   47   4.384   4.253   7.410
    1   AR   Ar   48   5.952   3.657   7.182
    1   AR   Ar   49   5.269   7.074  -1.320
    1   AR   Ar   50   4.229   5.207   0.061
    1   AR   Ar   51   6.162   4.373   2.027
    1   AR   Ar   52   5.576   3.191  -1.967
    1   AR   Ar   53   5.262   6.507   2.453
    1   AR   Ar   54   0.666   6.164   2.310
    1   AR   Ar   55   6.123   5.379   2.560
    1   AR   Ar   56   6.759   0.259   2.488
    1   AR   Ar   57   4.690   4.569   3.482
    1   AR   Ar   58   7.075   3.174   4.076
    1   AR   Ar   59   2.384   4.995   5.765
    1   AR   Ar   60   0.940   5.643   3.338
    1   AR   Ar   61   0.238   4.686   6.809
    1   AR   Ar   62   6.599   4.287   4.282
    1   AR   Ar   63   1.448   1.095   6.558
    1   AR   Ar   64   1.421   5.893   5.328
    1   AR   Ar   65   4.126   0.302   1.208
    1   AR   Ar   66   0.271   1.235   1.016
    1   AR   Ar   67   4.405   7.046  -0.648
    1   AR   Ar   68   0.869   1.437  -1.079
    1   AR   Ar   69   2.883   1.586  -0.117
    1   AR   Ar   70   0.778   0.799   2.086
    1   AR   Ar   71   2.944   1.322   3.526
    1   AR   Ar   72   4.018   0.133   2.472
    1   AR   Ar   73   4.235   0.661   3.647
    1   AR   Ar   74   1.212   0.998   4.347
    1   AR   Ar   75   2.842   0.628   4.816
    1   AR   Ar   76   1.444   0.043   1.838
    1   AR   Ar   77   2.240   6.793   5.006
    1   AR   Ar   78   0.220   5.846   5.792
    1   AR   Ar   79   3.584   6.305   6.287
    1   AR   Ar   80   3.640   5.238   5.069
    1   AR   Ar   81   2.263   6.383  -0.136
    1   AR   Ar   82   6.988   5.312   0.647
    1   AR   Ar   83   1.639   2.252  -0.111
    1   AR   Ar   84   0.560   4.170   1.429
    1   AR   Ar   85   1.624   3.393   0.721
    1   AR   Ar   86   2.274   5.527   0.704
    1   AR   Ar   87   2.326   3.105   1.699
    1   AR   Ar   88   3.120   4.897   1.576
    1   AR   Ar   89   0.022   2.751   2.114
    1   AR   Ar   90   3.281   1.711   4.624
    1   AR   Ar   91   1.352   2.029   3.570
    1   AR   Ar   92   1.165   3.324   1.952
    1   AR   Ar   93   1.059   1.183   5.616
    1   AR   Ar   94   0.467   6.212  11.008
    1   AR   Ar   95   4.888   0.835   5.573
    1   AR   Ar   96   3.033   6.788   4.173
    1   AR   Ar   97   3.689   2.364  -0.481
    1   AR   Ar   98   1.619   4.211   3.726
    1   AR   Ar   99   6.975   1.492  -0.001
    1   AR   Ar  100   0.702   2.878  -1.040
    1   AR   Ar  101   3.863   6.080   2.225
    1   AR   Ar  102   3.770   1.128   2.874
    1   AR   Ar  103   1.792   4.582   0.655
    1   AR   Ar  104   3.292   4.604  -1.315
    1   AR   Ar  105   2.291   2.088   4.049
    1   AR   Ar  106   4.037   3.115   5.440
    1   AR   Ar  107   0.879   3.868   4.897
    1   AR   Ar  108   2.101   1.347   5.038
    1   AR   Ar  109   1.706   3.122   4.725
    1   AR   Ar  110   2.524   2.611   5.079
    1   AR   Ar  111   5.266   5.827   6.888
    1   AR   Ar  112   1.508   5.638   6.402
    1   AR   Ar  113   3.981   4.172  -0.361
    1   AR   Ar  114   1.983   0.026  -1.188
    1   AR   Ar  115   1.873   5.416  -0.361
    1   AR   Ar  116   6.139   0.463  -0.619
    1   AR   Ar  117   1.273   4.933   4.524
    1   AR   Ar  118   1.748   5.212   3.081
    1   AR   Ar  119   2.634   4.640   2.609
    1   AR   Ar  120   1.874   6.192   1.528
    1   AR   Ar  121   5.285   3.904   5.337
    1   AR   Ar  122   2.826   5.945   5.391
    1   AR   Ar  123   3.256   4.384   5.474
    1   AR   Ar  124   1.427   5.158   1.456
    1   AR   Ar  125   6.987   3.023   5.211
    1   AR   Ar  126   6.633   6.305   5.020
    1   AR   Ar  127   4.409   3.918   6.137
    1   AR   Ar  128   3.027   3.592   6.366
    1   AR   Ar  129   1.693   6.104   3.968
    1   AR   Ar  130   4.738   1.634  -3.678
    1   AR   Ar  131   4.449   3.571  -1.579
    1   AR   Ar  132   0.944   1.604   0.182
    1   AR   Ar  133   4.335   6.627   3.256
    1   AR   Ar  134   4.119   1.174   4.539
    1   AR   Ar  135   6.033   0.935   2.829
    1   AR   Ar  136   6.497   6.239   2.120
    1   AR   Ar  137   1.920   4.236   4.794
    1   AR   Ar  138   5.632   0.592   6.312
    1   AR   Ar  139   6.023   2.349   5.702
    1   AR   Ar  140   4.084   0.094   4.939
    1   AR   Ar  141   4.066   4.962   4.225
    1   AR   Ar  142   4.181   0.102   5.935
    1   AR   Ar  143   6.420   6.517   6.552
    1   AR   Ar  144   6.868   1.858   5.183
    1   AR   Ar  145   4.492   4.983  -0.976
    1   AR   Ar  146   3.086   2.282   2.485
    1   AR   Ar  147   4.850   2.728  -0.973
    1   AR   Ar  148   3.126   6.672  -0.846
    1   AR   Ar  149   1.979   1.590  -1.123
    1   AR   Ar  150   2.361   1.859   2.949
    1   AR   Ar  151   3.004   3.125   3.290
    1   AR   Ar  152   1.596   2.503  -1.583
    1   AR   Ar  153   5.004   0.167   4.418
    1   AR   Ar  154   3.924   1.955   3.651
    1   AR   Ar  155   6.995   4.089   5.403
    1   AR   Ar  156   2.759   4.239   3.655
    1   AR   Ar  157   1.505   4.232   5.893
    1   AR   Ar  158   0.091   1.420   6.194
    1   AR   Ar  159   3.610   1.066   6.740
    1   AR   Ar  160   1.494   2.105   4.830
    1   AR   Ar  161   5.226   4.731   2.640
    1   AR   Ar  162   4.414   5.978  -0.675
    1   AR   Ar  163   5.887   4.405   0.120
    1   AR   Ar  164   2.491   5.588   2.436
    1   AR   Ar  165   4.452   2.345   0.461
    1   AR   Ar  166   2.664   3.520   4.463
    1   AR   Ar  167   5.403   0.327   3.343
    1   AR   Ar  168   5.513   4.241  -1.530
    1   AR   Ar  169   3.488   4.068   2.778
    1   AR   Ar  170   2.445   3.532   5.544
    1   AR   Ar  171   5.753   3.560   4.274
    1   AR   Ar  172   4.158   4.161   4.886
    1   AR   Ar  173   1.824   2.558   6.545
    1   AR   Ar  174   2.485   5.978   6.239
    1   AR   Ar  175   3.927   1.919   5.404
    1   AR   Ar  176   4.018   2.604   4.481
    1   AR   Ar  177   0.825   5.105  -0.818
    1   AR   Ar  178   3.408   5.906  -0.235
    1   AR   Ar  179   3.112   0.312   0.437
    1   AR   Ar  180   4.519   0.375  -4.113
    1   AR   Ar  181   0.021   5.390   1.956
    1   AR   Ar  182   1.774   6.506   2.663
    1   AR   Ar  183   4.448   5.171   1.987
    1   AR   Ar  184   5.072   6.856   0.482
    1   AR   Ar  185   2.717   4.857   4.717
    1   AR   Ar  186   2.731   5.806   3.504
    1   AR   Ar  187   3.182   6.727   3.126
    1   AR   Ar  188   2.974   6.925   1.936
    1   AR   Ar  189   4.794   2.706   6.385
    1   AR   Ar  190   3.709   6.036   4.111
    1   AR   Ar  191   2.383   6.422   7.437
    1   AR   Ar  192   4.283   6.149   5.514
    1   AR   Ar  193   3.086   6.239   1.115
    1   AR   Ar  194   4.861   3.713  -0.497
    1   AR   Ar  195   5.927   1.270   0.242
    1   AR   Ar  196   4.054   1.401  -0.637
    1   AR   Ar  197   3.406   1.322   0.693
    1   AR   Ar  198   6.008   0.932   1.418
    1   AR   Ar  199   2.744   0.489   2.740
    1   AR   Ar  200   5.514   2.966  -0.086
    1   AR   Ar  201   5.784   6.138   3.317
    1   AR   Ar  202   5.327   1.579   4.590
    1   AR   Ar  203   0.234   6.873   3.075
    1   AR   Ar  204   5.475   5.927   5.717
    1   AR   Ar  205   0.032   0.306   1.471
    1   AR   Ar  206   5.932   0.199   5.381
    1   AR   Ar  207   0.635   2.318   5.600
    1   AR   Ar  208   0.680   6.228   4.547
    1   AR   Ar  209   6.981   2.507  -1.948
    1   AR   Ar  210   2.170   0.122   0.973
    1   AR   Ar  211   6.746   3.221   0.899
    1   AR   Ar  212   6.730   3.745  -0.385
    1   AR   Ar  213   2.429   0.729   1.756
    1   AR   Ar  214   4.524   3.440   2.255
    1   AR   Ar  215   5.940   3.418   2.315
    1   AR   Ar  216   0.961   2.434   1.384
    1   AR   Ar  217   4.927   2.205   3.912
    1   AR   Ar  218   4.618   3.347   4.317
    1   AR   Ar  219   4.267   2.950   3.233
    1   AR   Ar  220   4.155   2.988   1.238
    1   AR   Ar  221   6.494   5.339   3.654
    1   AR   Ar  222   5.137   6.766   6.208
    1   AR   Ar  223   6.206   1.631   6.584
    1   AR   Ar  224   4.938   2.401   5.282
    1   AR   Ar  225   6.134   2.934   3.363
    1   AR   Ar  226   1.815   2.944   2.897
    1   AR   Ar  227   6.903   3.801   1.832
    1   AR   Ar  228   5.560   6.543   1.428
    1   AR   Ar  229   5.313   5.437  -1.556
    1   AR   Ar  230   3.813   3.850   3.895
    1   AR   Ar  231   5.107   1.316   2.910
    1   AR   Ar  232   5.036   2.656   1.623
    1   AR   Ar  233   6.538   2.113   3.944
    1   AR   Ar  234   5.807   2.496   4.605
    1   AR   Ar  235   6.735   1.042   4.003
    1   AR   Ar  236   4.699   4.927   5.503
    1   AR   Ar  237   5.969   2.719   6.740
    1   AR   Ar  238   5.821   4.119   6.145
    1   AR   Ar  239   0.352   4.856   9.747
    1   AR   Ar  240   6.830   2.818   7.503
    1   AR   Ar  241   1.830   6.005  -1.247
    1   AR   Ar  242   5.573   5.983   0.368
    1   AR   Ar  243   4.600   5.492   3.036
    1   AR   Ar  244   1.033   5.255   0.386
    1   AR   Ar  245   3.419   0.785   1.792
    1   AR   Ar  246   5.500   6.585  -0.509
    1   AR   Ar  247   5.925   3.819   0.977
    1   AR   Ar  248   5.808   5.233  -0.484
    1   AR   Ar  249   4.393   6.332   1.264
    1   AR   Ar  250   4.925   5.728   4.362
    1   AR   Ar  251   5.006   4.389   4.411
    1   AR   Ar  252   3.364   5.021   3.290
    1   AR   Ar  253   6.946   3.631   6.800
    1   AR   Ar  254   2.911   2.108   9.397
    1   AR   Ar  255   4.079   5.521   9.829
    1   AR   Ar  256   5.770   4.623   3.733
    7.12000  7.12000 12.00000
Argon-slab step 3980
  256
    1   AR   Ar    1   4.575   2.205  -2.532
    1   AR   Ar    2   6.267   0.198   0.763
    1   AR   Ar    3   4.019   2.234  -1.440
    1   AR   Ar    4   1.877   0.865  -0.319
    1   AR   Ar    5   6.862   6.383   0.843
    1   AR   Ar    6   0.720   1.846   2.126
    1   AR   Ar    7   5.192   3.592   3.138
    1   AR   Ar    8   4.649   1.173   0.180
    1   AR   Ar    9   1.168   6.945   3.625
    1   AR   Ar   10   0.435   0.209   4.179
    1   AR   Ar   11   2.056   0.247   4.092
    1   AR   Ar   12   0.597   1.077   3.501
    1   AR   Ar   13   7.008   0.648   5.015
    1   AR   Ar   14   4.484   1.321   7.548
    1   AR   Ar   15   3.210   6.364   8.576
    1   AR   Ar   16   0.861   7.039   5.380
    1   AR   Ar   17   6.303   2.316   0.672
    1   AR   Ar   18   6.364   4.534  -1.083
    1   AR   Ar   19   3.545   3.230   0.186
    1   AR   Ar   20   6.370   4.641  -2.803
    1   AR   Ar   21   2.561   1.796   1.745
    1   AR   Ar   22   6.868   1.424   3.012
    1   AR   Ar   23   0.633   7.069   0.468
    1   AR   Ar   24   5.702   2.375   2.552
    1   AR   Ar   25   0.492   1.878   4.357
    1   AR   Ar   26   6.316   6.919   3.960
    1   AR   Ar   27   1.607   1.365   2.351
    1   AR   Ar   28   0.878   2.830   3.980
    1   AR   Ar   29   5.861   1.691   7.692
    1   AR   Ar   30   1.994   1.083   3.530
    1   AR   Ar   31   3.320   7.004   7.524
    1   AR   Ar   32   0.779   2.469   6.531
    1   AR   Ar   33   0.737   4.171  -0.009
    1   AR   Ar   34   0.359   4.540   2.484
    1   AR   Ar   35   6.093   5.489   1.437
    1   AR   Ar   36   5.975   2.485  -2.660
    1   AR   Ar   37   4.239   2.389   2.380
    1   AR   Ar   38   6.609   4.221   3.028
    1   AR   Ar   39   0.734   3.576   3.176
    1   AR   Ar   40   1.858   4.222   1.728
    1   AR   Ar   41   0.142   2.439   3.197
    1   AR   Ar   42   5.599   5.214   5.008
    1   AR   Ar   43   6.950   2.652   6.249
    1   AR   Ar   44   0.319   4.778   3.711
    1   AR   Ar   45   0.636   3.487   6.051
    1   AR   Ar   46   0.255   4.925   4.953
    1   AR   Ar   47   4.353   4.250   7.411
    1   AR   Ar   48   5.955   3.657   7.142
    1   AR   Ar   49   5.274   7.086  -1.364
    1   AR   Ar   50   4.197   5.219   0.054
    1   AR   Ar   51   6.122   4.385   2.026
    1   AR   Ar   52   5.519   3.192  -1.968
    1   AR   Ar   53   5.249   6.526   2.454
    1   AR   Ar   54   0.669   6.180   2.319
    1   AR   Ar   55   6.130   5.390   2.588
    1   AR   Ar   56   6.747   0.257   2.491
    1   AR   Ar   57   4.659   4.552   3.480
    1   AR   Ar   58   7.072   3.210   4.076
    1   AR   Ar   59   2.400   4.984   5.769
    1   AR   Ar   60   0.956   5.669   3.353
    1   AR   Ar   61   0.199   4.659   6.806
    1   AR   Ar   62   6.617   4.285   4.293
    1   AR   Ar   63   1.413   1.094   6.572
    1   AR   Ar   64   1.402   5.887   5.332
    1   AR   Ar   65   4.135   0.335   1.208
    1   AR   Ar   66   0.313   1.220   1.031
    1   AR   Ar   67   4.404   7.030  -0.660
    1   AR   Ar   68   0.852   1.410  -1.090
    1   AR   Ar   69   2.896   1.568  -0.123
    1   AR   Ar   70   0.773   0.798   2.085
    1   AR   Ar   71   2.974   1.312   3.558
    1   AR   Ar   72   4.045   0.155   2.431
    1   AR   Ar   73   4.233   0.630   3.663
    1   AR   Ar   74   1.198   1.008   4.329
    1   AR   Ar   75   2.834   0.625   4.790
    1   AR   Ar   76   1.419   0.033   1.867
    1   AR   Ar   77   2.265   6.804   4.991
    1   AR   Ar   78   0.205   5.846   5.792
    1   AR   Ar   79   3.609   6.342   6.314
    1   AR   Ar   80   3.649   5.258   5.068
    1   AR   Ar   81   2.261   6.410  -0.136
    1   AR   Ar   82   7.002   5.300   0.677
    1   AR   Ar   83   1.618   2.278  -0.143
    1   AR   Ar   84   0.526   4.165   1.410
    1   AR   Ar   85   1.655   3.385   0.735
    1   AR   Ar   86   2.256   5.550   0.708
    1   AR   Ar   87   2.311   3.102   1.702
    1   AR   Ar   88   3.106   4.911   1.584
    1   AR   Ar   89   7.115   2.759   2.114
    1   AR   Ar   90   3.330   1.717   4.615
    1   AR   Ar   91   1.374   2.009   3.524
    1   AR   Ar   92   1.172   3.359   1.923
    1   AR   Ar   93   1.069   1.178   5.601
    1   AR   Ar   94   0.470   6.184  11.012
    1   AR   Ar   95   4.873   0.844   5.583
    1   AR   Ar   96   3.045   6.781   4.160
    1   AR   Ar   97   3.698   2.355  -0.499
    1   AR   Ar   98   1.606   4.229   3.727
    1   AR   Ar   99   6.971   1.523   0.009
    1   AR   Ar  100   0.687   2.897  -1.060
    1   AR   Ar  101   3.884   6.082   2.209
    1   AR   Ar  102   3.786   1.139   2.883
    1   AR   Ar  103   1.818   4.571   0.660
    1   AR   Ar  104   3.265   4.602  -1.324
    1   AR   Ar  105   2.291   2.074   4.030
    1   AR   Ar  106   4.025   3.155   5.441
    1   AR   Ar  107   0.889   3.883   4.918
    1   AR   Ar  108   2.070   1.344   5.019
    1   AR   Ar  109   1.693   3.129   4.731
    1   AR   Ar  110   2.521   2.614   5.072
    1   AR   Ar  111   5.230   5.801   6.912
    1   AR   Ar  112   1.508   5.644   6.400
    1   AR   Ar  113   3.988   4.158  -0.397
    1   AR   Ar  114   1.960   0.003  -1.181
    1   AR   Ar  115   1.884   5.427  -0.337
    1   AR   Ar  116   6.148   0.475  -0.654
    1   AR   Ar  117   1.261   4.937   4.480
    1   AR   Ar  118   1.772   5.192   3.059
    1   AR   Ar  119   2.627   4.615   2.601
    1   AR   Ar  120   1.865   6.190   1.520
    1   AR   Ar  121   5.295   3.879   5.318
    1   AR   Ar  122   2.848   5.941   5.348
    1   AR   Ar  123   3.257   4.435   5.484
    1   AR   Ar  124   1.398   5.151   1.441
    1   AR   Ar  125   6.968   3.031   5.205
    1   AR   Ar  126   6.630   6.275   5.039
    1   AR   Ar  127   4.380   3.912   6.156
    1   AR   Ar  128   3.050   3.565   6.364
    1   AR   Ar  129   1.684   6.080   3.967
    1   AR   Ar  130   4.733   1.603  -3.680
    1   AR   Ar  131   4.442   3.590  -1.618
    1   AR   Ar  132   0.961   1.633   0.179
    1   AR   Ar  133   4.341   6.671   3.287
    1   AR   Ar  134   4.116   1.171   4.547
    1   AR   Ar  135   6.049   0.889   2.840
    1   AR   Ar  136   6.485   6.261   2.110
    1   AR   Ar  137   1.931   4.216   4.825
    1   AR   Ar  138   5.634   0.605   6.311
    1   AR   Ar  139   6.052   2.361   5.663
    1   AR   Ar  140   4.060   0.089   4.963
    1   AR   Ar  141   4.045   4.933   4.239
    1   AR   Ar  142   4.192   0.097   5.962
    1   AR   Ar  143   6.467   6.504   6.581
    1   AR   Ar  144   6.890   1.880   5.188
    1   AR   Ar  145   4.510   4.997  -1.014
    1   AR   Ar  146   3.117   2.261   2.476
    1   AR   Ar  147   4.850   2.737  -0.992
    1   AR   Ar  148   3.114   6.659  -0.846
    1   AR   Ar  149   1.994   1.613  -1.104
    1   AR   Ar  150   2.357   1.871   2.950
    1   AR   Ar  151   2.995   3.106   3.343
    1   AR   Ar  152   1.600   2.499  -1.595
    1   AR   Ar  153   4.992   0.168   4.440
    1   AR   Ar  154   3.933   1.980   3.628
    1   AR   Ar  155   6.992   4.078   5.403
    1   AR   Ar  156   2.753   4.279   3.682
    1   AR   Ar  157   1.532   4.250   5.900
    1   AR   Ar  158   0.099   1.402   6.201
    1   AR   Ar  159   3.596   1.082   6.698
    1   AR   Ar  160   1.525   2.122   4.827
    1   AR   Ar  161   5.244   4.725   2.667
    1   AR   Ar  162   4.381   5.978  -0.649
    1   AR   Ar  163   5.888   4.415   0.134
    1   AR   Ar  164   2.503   5.594   2.430
    1   AR   Ar  165   4.456   2.385   0.473
    1   AR   Ar  166   2.666   3.545   4.466
    1   AR   Ar  167   5.420   0.317   3.335
    1   AR   Ar  168   5.465   4.226  -1.520
    1   AR   Ar  169   3.516   4.132   2.774
    1   AR   Ar  170   2.406   3.548   5.532
    1   AR   Ar  171   5.751   3.552   4.294
    1   AR   Ar  172   4.138   4.175   4.895
    1   AR   Ar  173   1.809   2.529   6.544
    1   AR   Ar  174   2.466   5.974   6.225
    1   AR   Ar  175   3.922   1.905   5.390
    1   AR   Ar  176   3.980   2.620   4.512
    1   AR   Ar  177   0.837   5.090  -0.852
    1   AR   Ar  178   3.374   5.916  -0.211
    1   AR   Ar  179   3.081   0.289   0.422
    1   AR   Ar  180   4.554   0.363  -4.120
    1   AR   Ar  181   0.017   5.378   1.954
    1   AR   Ar  182   1.739   6.563   2.660
    1   AR   Ar  183   4.482   5.176   2.001
    1   AR   Ar  184   5.066   6.853   0.490
    1   AR   Ar  185   2.694   4.861   4.696
    1   AR   Ar  186   2.722   5.815   3.507
    1   AR   Ar  187   3.199   6.724   3.134
    1   AR   Ar  188   2.978   6.904   1.945
    1   AR   Ar  189   4.763   2.716   6.378
    1   AR   Ar  190   3.664   6.009   4.099
    1   AR   Ar  191   2.364   6.418   7.407
    1   AR   Ar  192   4.321   6.133   5.529
    1   AR   Ar  193   3.087   6.251   1.104
    1   AR   Ar  194   4.870   3.703  -0.507
    1   AR   Ar  195   5.920   1.291   0.284
    1   AR   Ar  196   4.052   1.403  -0.618
    1   AR   Ar  197   3.431   1.329   0.696
    1   AR   Ar  198   5.974   0.893   1.447
    1   AR   Ar  199   2.719   0.489   2.750
    1   AR   Ar  200   5.515   2.935  -0.034
    1   AR   Ar  201   5.776   6.136   3.312
    1   AR   Ar  202   5.324   1.574   4.551
    1   AR   Ar  203   0.194   6.897   3.073
    1   AR   Ar  204   5.485   5.902   5.710
    1   AR   Ar  205   0.008   0.357   1.509
    1   AR   Ar  206   5.937   0.193   5.367
    1   AR   Ar  207   0.667   2.354   5.586
    1   AR   Ar  208   0.668   6.239   4.519
    1   AR   Ar  209   7.004   2.491  -1.938
    1   AR   Ar  210   2.158   0.151   0.993
    1   AR   Ar  211   6.739   3.210   0.907
    1   AR   Ar  212   6.740   3.745  -0.348
    1   AR   Ar  213   2.434   0.749   1.752
    1   AR   Ar  214   4.534   3.429   2.273
    1   AR   Ar  215   5.963   3.387   2.347
    1   AR   Ar  216   0.948   2.472   1.368
    1   AR   Ar  217   4.913   2.175   3.886
    1   AR   Ar  218   4.624   3.379   4.296
    1   AR   Ar  219   4.276   2.935   3.220
    1   AR   Ar  220   4.142   3.017   1.263
    1   AR   Ar  221   6.474   5.352   3.627
    1   AR   Ar  222   5.140   6.762   6.197
    1   AR   Ar  223   6.219   1.635   6.567
    1   AR   Ar  224   4.919   2.407   5.291
    1   AR   Ar  225   6.137   2.916   3.356
    1   AR   Ar  226   1.810   2.965   2.891
    1   AR   Ar  227   6.915   3.820   1.843
    1   AR   Ar  228   5.566   6.571   1.432
    1   AR   Ar  229   5.278   5.449  -1.541
    1   AR   Ar  230   3.826   3.837   3.905
    1   AR   Ar  231   5.121   1.301   2.865
    1   AR   Ar  232   5.008   2.644   1.629
    1   AR   Ar  233   6.548   2.096   3.909
    1   AR   Ar  234   5.824   2.498   4.607
    1   AR   Ar  235   6.710   1.044   4.032
    1   AR   Ar  236   4.735   4.939   5.500
    1   AR   Ar  237   5.952   2.718   6.768
    1   AR   Ar  238   5.817   4.100   6.184
    1   AR   Ar  239   0.316   4.839   9.743
    1   AR   Ar  240   6.810   2.830   7.510
    1   AR   Ar  241   1.828   6.035  -1.233
    1   AR   Ar  242   5.578   6.001   0.351
    1   AR   Ar  243   4.597   5.501   3.017
    1   AR   Ar  244   1.010   5.244   0.402
    1   AR   Ar  245   3.449   0.769   1.803
    1   AR   Ar  246   5.491   6.579  -0.499
    1   AR   Ar  247   5.937   3.817   0.989
    1   AR   Ar  248   5.798   5.220  -0.497
    1   AR   Ar  249   4.395   6.370   1.264
    1   AR   Ar  250   4.937   5.734   4.377
    1   AR   Ar  251   5.050   4.392   4.423
    1   AR   Ar  252   3.363   5.062   3.299
    1   AR   Ar  253   6.930   3.663   6.799
    1   AR   Ar  254   2.930   2.095   9.409
    1   AR   Ar  255   4.052   5.534   9.845
    1   AR   Ar  256   5.790   4.625   3.748
    7.12000  7.12000 12.00000
Argon-slab step 3985
  256
    1   AR   Ar    1   4.604   2.214  -2.539
    1   AR   Ar    2   6.295   0.228   0.772
    1   AR   Ar    3   4.043   2.246  -1.449
    1   AR   Ar    4   1.888   0.870  -0.329
    1   AR   Ar    5   6.861   6.352   0.839
    1   AR   Ar    6   0.714   1.867   2.131
    1   AR   Ar    7   5.178   3.584   3.129
    1   AR   Ar    8   4.690   1.172   0.172
    1   AR   Ar    9   1.156   6.935   3.644
    1   AR   Ar   10   0.415   0.206   4.162
    1   AR   Ar   11   2.054   0.227   4.075
    1   AR   Ar   12   0.597   1.091   3.472
    1   AR   Ar   13   7.013   0.639   5.034
    1   AR   Ar   14   4.507   1.298   7.553
    1   AR   Ar   15   3.206   6.364   8.588
    1   AR   Ar   16   0.850   7.049   5.360
    1   AR   Ar   17   6.285   2.320   0.660
    1   AR   Ar   18   6.349   4.545  -1.072
    1   AR   Ar   19   3.541   3.219   0.172
    1   AR   Ar   20   6.369   4.680  -2.833
    1   AR   Ar   21   2.588   1.792   1.774
    1   AR   Ar   22   6.897   1.403   3.015
    1   AR   Ar   23   0.621   7.056   0.468
    1   AR   Ar   24   5.665   2.373   2.579
    1   AR   Ar   25   0.489   1.898   4.324
    1   AR   Ar   26   6.300   6.884   3.960
    1   AR   Ar   27   1.608   1.345   2.358
    1   AR   Ar   28   0.895   2.816   3.986
    1   AR   Ar   29   5.866   1.669   7.692
    1   AR   Ar   30   2.005   1.091   3.516
    1   AR   Ar   31   3.327   6.995   7.538
    1   AR   Ar   32   0.766   2.466   6.574
    1   AR   Ar   33   0.738   4.157  -0.059
    1   AR   Ar   34   0.338   4.561   2.505
    1   AR   Ar   35   6.111   5.506   1.450
    1   AR   Ar   36   6.005   2.483  -2.642
    1   AR   Ar   37   4.207   2.388   2.355
    1   AR   Ar   38   6.616   4.223   3.015
    1   AR   Ar   39   0.728   3.587   3.170
    1   AR   Ar   40   1.850   4.210   1.727
    1   AR   Ar   41   0.129   2.410   3.212
    1   AR   Ar   42   5.595   5.209   4.985
    1   AR   Ar   43   6.955   2.623   6.220
    1   AR   Ar   44   0.326   4.758   3.694
    1   AR   Ar   45   0.633   3.512   6.034
    1   AR   Ar   46   0.256   4.905   4.950
    1   AR   Ar   47   4.322   4.246   7.412
    1   AR   Ar   48   5.953   3.663   7.118
    1   AR   Ar   49   5.263   7.088  -1.388
    1   AR   Ar   50   4.164   5.238   0.054
    1   AR   Ar   51   6.074   4.407   2.027
    1   AR   Ar   52   5.460   3.194  -1.967
    1   AR   Ar   53   5.234   6.545   2.456
    1   AR   Ar   54   0.675   6.197   2.329
    1   AR   Ar   55   6.137   5.396   2.615
    1   AR   Ar   56   6.726   0.261   2.478
    1   AR   Ar   57   4.625   4.529   3.479
    1   AR   Ar   58   7.060   3.248   4.076
    1   AR   Ar   59   2.426   4.968   5.758
    1   AR   Ar   60   0.958   5.700   3.368
    1   AR   Ar   61   0.187   4.614   6.818
    1   AR   Ar   62   6.638   4.282   4.306
    1   AR   Ar   63   1.380   1.093   6.590
    1   AR   Ar   64   1.374   5.870   5.331
    1   AR   Ar   65   4.148   0.364   1.202
    1   AR   Ar   66   0.356   1.209   1.046
    1   AR   Ar   67   4.403   7.017  -0.671
    1   AR   Ar   68   0.852   1.370  -1.088
    1   AR   Ar   69   2.905   1.551  -0.136
    1   AR   Ar   70   0.769   0.798   2.054
    1   AR   Ar   71   3.016   1.301   3.596
    1   AR   Ar   72   4.072   0.174   2.391
    1   AR   Ar   73   4.222   0.616   3.675
    1   AR   Ar   74   1.188   1.017   4.316
    1   AR   Ar   75   2.829   0.622   4.762
    1   AR   Ar   76   1.397   0.022   1.892
    1   AR   Ar   77   2.288   6.814   4.976
    1   AR   Ar   78   0.191   5.846   5.791
    1   AR   Ar   79   3.632   6.379   6.341
    1   AR   Ar   80   3.658   5.289   5.076
    1   AR   Ar   81   2.260   6.439  -0.135
    1   AR   Ar   82   7.003   5.321   0.706
    1   AR   Ar   83   1.607   2.313  -0.181
    1   AR   Ar   84   0.523   4.175   1.373
    1   AR   Ar   85   1.684   3.377   0.751
    1   AR   Ar   86   2.239   5.575   0.712
    1   AR   Ar   87   2.295   3.099   1.705
    1   AR   Ar   88   3.091   4.926   1.592
    1   AR   Ar   89   7.089   2.767   2.113
    1   AR   Ar   90   3.354   1.732   4.597
    1   AR   Ar   91   1.392   1.985   3.476
    1   AR   Ar   92   1.178   3.395   1.896
    1   AR   Ar   93   1.076   1.174   5.579
    1   AR   Ar   94   0.474   6.155  11.017
    1   AR   Ar   95   4.857   0.854   5.588
    1   AR   Ar   96   3.050   6.784   4.152
    1   AR   Ar   97   3.703   2.353  -0.506
    1   AR   Ar   98   1.593   4.247   3.728
    1   AR   Ar   99   6.968   1.553   0.019
    1   AR   Ar  100   0.673   2.915  -1.079
    1   AR   Ar  101   3.903   6.086   2.196
    1   AR   Ar  102   3.801   1.154   2.885
    1   AR   Ar  103   1.844   4.554   0.663
    1   AR   Ar  104   3.252   4.609  -1.328
    1   AR   Ar  105   2.294   2.061   4.014
    1   AR   Ar  106   4.014   3.195   5.442
    1   AR   Ar  107   0.897   3.898   4.939
    1   AR   Ar  108   2.047   1.331   5.000
    1   AR   Ar  109   1.676   3.144   4.734
    1   AR   Ar  110   2.522   2.610   5.065
    1   AR   Ar  111   5.194   5.775   6.935
    1   AR   Ar  112   1.503   5.646   6.399
    1   AR   Ar  113   3.987   4.148  -0.434
    1   AR   Ar  114   1.938   7.101  -1.172
    1   AR   Ar  115   1.893   5.434  -0.312
    1   AR   Ar  116   6.155   0.486  -0.688
    1   AR   Ar  117   1.246   4.947   4.435
    1   AR   Ar  118   1.804   5.165   3.037
    1   AR   Ar  119   2.616   4.583   2.593
    1   AR   Ar  120   1.857   6.188   1.512
    1   AR   Ar  121   5.301   3.932   5.293
    1   AR   Ar  122   2.879   5.936   5.284
    1   AR   Ar  123   3.247   4.444   5.511
    1   AR   Ar  124   1.367   5.147   1.429
    1   AR   Ar  125   6.948   3.037   5.199
    1   AR   Ar  126   6.630   6.292   5.058
    1   AR   Ar  127   4.351   3.906   6.174
    1   AR   Ar  128   3.075   3.538   6.363
    1   AR   Ar  129   1.689   6.071   3.931
    1   AR   Ar  130   4.729   1.571  -3.681
    1   AR   Ar  131   4.424   3.606  -1.672
    1   AR   Ar  132   0.969   1.652   0.181
    1   AR   Ar  133   4.347   6.714   3.319
    1   AR   Ar  134   4.129   1.160   4.558
    1   AR   Ar  135   6.066   0.847   2.846
    1   AR   Ar  136   6.450   6.282   2.121
    1   AR   Ar  137   1.937   4.191   4.858
    1   AR   Ar  138   5.610   0.608   6.327
    1   AR   Ar  139   6.080   2.374   5.627
    1   AR   Ar  140   4.089   0.081   4.927
    1   AR   Ar  141   4.027   4.907   4.238
    1   AR   Ar  142   4.201   0.092   5.996
    1   AR   Ar  143   6.513   6.491   6.608
    1   AR   Ar  144   6.911   1.900   5.193
    1   AR   Ar  145   4.524   5.004  -1.051
    1   AR   Ar  146   3.162   2.249   2.466
    1   AR   Ar  147   4.820   2.731  -0.980
    1   AR   Ar  148   3.102   6.658  -0.864
    1   AR   Ar  149   2.008   1.636  -1.083
    1   AR   Ar  150   2.340   1.885   2.951
    1   AR   Ar  151   2.988   3.087   3.396
    1   AR   Ar  152   1.603   2.497  -1.606
    1   AR   Ar  153   4.983   0.169   4.460
    1   AR   Ar  154   3.935   2.002   3.602
    1   AR   Ar  155   6.987   4.064   5.405
    1   AR   Ar  156   2.747   4.318   3.709
    1   AR   Ar  157   1.521   4.242   5.909
    1   AR   Ar  158   0.110   1.387   6.205
    1   AR   Ar  159   3.582   1.098   6.655
    1   AR   Ar  160   1.545   2.147   4.820
    1   AR   Ar  161   5.269   4.718   2.689
    1   AR   Ar  162   4.351   5.981  -0.623
    1   AR   Ar  163   5.889   4.424   0.147
    1   AR   Ar  164   2.516   5.613   2.419
    1   AR   Ar  165   4.461   2.424   0.481
    1   AR   Ar  166   2.672   3.569   4.466
    1   AR   Ar  167   5.428   0.298   3.334
    1   AR   Ar  168   5.412   4.210  -1.510
    1   AR   Ar  169   3.549   4.191   2.772
    1   AR   Ar  170   2.364   3.567   5.520
    1   AR   Ar  171   5.750   3.544   4.313
    1   AR   Ar  172   4.116   4.182   4.912
    1   AR   Ar  173   1.800   2.500   6.542
    1   AR   Ar  174   2.443   5.974   6.231
    1   AR   Ar  175   3.923   1.893   5.384
    1   AR   Ar  176   3.938   2.631   4.543
    1   AR   Ar  177   0.849   5.074  -0.884
    1   AR   Ar  178   3.339   5.921  -0.181
    1   AR   Ar  179   3.051   0.266   0.408
    1   AR   Ar  180   4.583   0.366  -4.124
    1   AR   Ar  181   0.010   5.368   1.948
    1   AR   Ar  182   1.706   6.616   2.660
    1   AR   Ar  183   4.516   5.180   2.013
    1   AR   Ar  184   5.027   6.832   0.480
    1   AR   Ar  185   2.676   4.871   4.671
    1   AR   Ar  186   2.708   5.829   3.512
    1   AR   Ar  187   3.220   6.746   3.143
    1   AR   Ar  188   2.981   6.875   1.949
    1   AR   Ar  189   4.756   2.703   6.347
    1   AR   Ar  190   3.627   5.973   4.086
    1   AR   Ar  191   2.344   6.414   7.377
    1   AR   Ar  192   4.360   6.116   5.543
    1   AR   Ar  193   3.101   6.268   1.097
    1   AR   Ar  194   4.889   3.691  -0.518
    1   AR   Ar  195   5.913   1.311   0.327
    1   AR   Ar  196   4.048   1.401  -0.604
    1   AR   Ar  197   3.462   1.334   0.707
    1   AR   Ar  198   5.939   0.857   1.481
    1   AR   Ar  199   2.705   0.483   2.760
    1   AR   Ar  200   5.515   2.903   0.018
    1   AR   Ar  201   5.767   6.134   3.308
    1   AR   Ar  202   5.325   1.559   4.520
    1   AR   Ar  203   0.170   6.909   3.087
    1   AR   Ar  204   5.495   5.882   5.710
    1   AR   Ar  205   7.100   0.401   1.545
    1   AR   Ar  206   5.942   0.187   5.350
    1   AR   Ar  207   0.698   2.388   5.552
    1   AR   Ar  208   0.662   6.250   4.484
    1   AR   Ar  209   7.027   2.474  -1.928
    1   AR   Ar  210   2.144   0.173   1.008
    1   AR   Ar  211   6.743   3.200   0.916
    1   AR   Ar  212   6.749   3.744  -0.310
    1   AR   Ar  213   2.432   0.771   1.754
    1   AR   Ar  214   4.527   3.421   2.285
    1   AR   Ar  215   5.986   3.356   2.379
    1   AR   Ar  216   0.936   2.513   1.346
    1   AR   Ar  217   4.900   2.156   3.853
    1   AR   Ar  218   4.644   3.410   4.275
    1   AR   Ar  219   4.284   2.926   3.217
    1   AR   Ar  220   4.121   3.050   1.288
    1   AR   Ar  221   6.461   5.369   3.601
    1   AR   Ar  222   5.143   6.760   6.187
    1   AR   Ar  223   6.232   1.640   6.549
    1   AR   Ar  224   4.899   2.413   5.298
    1   AR   Ar  225   6.145   2.906   3.353
    1   AR   Ar  226   1.805   2.985   2.885
    1   AR   Ar  227   6.906   3.818   1.871
    1   AR   Ar  228   5.574   6.599   1.432
    1   AR   Ar  229   5.248   5.462  -1.526
    1   AR   Ar  230   3.830   3.829   3.910
    1   AR   Ar  231   5.130   1.301   2.825
    1   AR   Ar  232   4.988   2.629   1.637
    1   AR   Ar  233   6.559   2.078   3.875
    1   AR   Ar  234   5.841   2.504   4.608
    1   AR   Ar  235   6.687   1.044   4.060
    1   AR   Ar  236   4.766   4.949   5.497
    1   AR   Ar  237   5.935   2.710   6.792
    1   AR   Ar  238   5.814   4.082   6.224
    1   AR   Ar  239   0.299   4.824   9.770
    1   AR   Ar  240   6.788   2.841   7.516
    1   AR   Ar  241   1.827   6.065  -1.220
    1   AR   Ar  242   5.589   6.008   0.339
    1   AR   Ar  243   4.592   5.516   3.000
    1   AR   Ar  244   0.987   5.233   0.418
    1   AR   Ar  245   3.477   0.761   1.817
    1   AR   Ar  246   5.483   6.573  -0.489
    1   AR   Ar  247   5.955   3.823   0.991
    1   AR   Ar  248   5.784   5.214  -0.513
    1   AR   Ar  249   4.397   6.409   1.263
    1   AR   Ar  250   4.936   5.760   4.382
    1   AR   Ar  251   5.093   4.397   4.439
    1   AR   Ar  252   3.370   5.103   3.308
    1   AR   Ar  253   6.916   3.692   6.795
    1   AR   Ar  254   2.949   2.081   9.420
    1   AR   Ar  255   4.026   5.547   9.860
    1   AR   Ar  256   5.804   4.622   3.757
    7.12000  7.12000 12.00000
Argon-slab step 3990
  256
    1   AR   Ar    1   4.647   2.233  -2.532
    1   AR   Ar    2   6.324   0.253   0.776
    1   AR   Ar    3   4.065   2.255  -1.467
    1   AR   Ar    4   1.898   0.874  -0.337
    1   AR   Ar    5   6.859   6.316   0.832
    1   AR   Ar    6   0.703   1.890   2.140
    1   AR   Ar    7   5.181   3.572   3.140
    1   AR   Ar    8   4.733   1.171   0.170
    1   AR   Ar    9   1.150   6.922   3.656
    1   AR   Ar   10   0.385   0.208   4.152
    1   AR   Ar   11   2.052   0.204   4.059
    1   AR   Ar   12   0.606   1.102   3.444
    1   AR   Ar   13   7.018   0.631   5.054
    1   AR   Ar   14   4.529   1.276   7.557
    1   AR   Ar   15   3.201   6.365   8.600
    1   AR   Ar   16   0.838   7.058   5.338
    1   AR   Ar   17   6.252   2.326   0.665
    1   AR   Ar   18   6.338   4.554  -1.062
    1   AR   Ar   19   3.539   3.208   0.159
    1   AR   Ar   20   6.368   4.719  -2.862
    1   AR   Ar   21   2.611   1.790   1.799
    1   AR   Ar   22   6.922   1.388   3.012
    1   AR   Ar   23   0.608   7.044   0.469
    1   AR   Ar   24   5.625   2.367   2.605
    1   AR   Ar   25   0.486   1.915   4.291
    1   AR   Ar   26   6.285   6.850   3.960
    1   AR   Ar   27   1.630   1.329   2.376
    1   AR   Ar   28   0.916   2.803   3.991
    1   AR   Ar   29   5.871   1.647   7.691
    1   AR   Ar   30   2.009   1.097   3.501
    1   AR   Ar   31   3.333   6.986   7.551
    1   AR   Ar   32   0.759   2.462   6.613
    1   AR   Ar   33   0.740   4.143  -0.109
    1   AR   Ar   34   0.322   4.579   2.527
    1   AR   Ar   35   6.127   5.564   1.459
    1   AR   Ar   36   6.035   2.481  -2.622
    1   AR   Ar   37   4.177   2.382   2.327
    1   AR   Ar   38   6.619   4.225   3.005
    1   AR   Ar   39   0.721   3.598   3.163
    1   AR   Ar   40   1.829   4.203   1.731
    1   AR   Ar   41   0.122   2.386   3.223
    1   AR   Ar   42   5.625   5.197   4.986
    1   AR   Ar   43   6.953   2.595   6.191
    1   AR   Ar   44   0.333   4.738   3.676
    1   AR   Ar   45   0.629   3.536   6.016
    1   AR   Ar   46   0.260   4.889   4.945
    1   AR   Ar   47   4.292   4.241   7.411
    1   AR   Ar   48   5.939   3.672   7.138
    1   AR   Ar   49   5.253   7.091  -1.413
    1   AR   Ar   50   4.131   5.251   0.057
    1   AR   Ar   51   6.023   4.433   2.027
    1   AR   Ar   52   5.400   3.195  -1.965
    1   AR   Ar   53   5.217   6.564   2.459
    1   AR   Ar   54   0.680   6.215   2.339
    1   AR   Ar   55   6.142   5.399   2.638
    1   AR   Ar   56   6.704   0.262   2.450
    1   AR   Ar   57   4.588   4.502   3.476
    1   AR   Ar   58   7.044   3.287   4.075
    1   AR   Ar   59   2.453   4.952   5.737
    1   AR   Ar   60   0.949   5.729   3.379
    1   AR   Ar   61   0.179   4.577   6.830
    1   AR   Ar   62   6.660   4.278   4.321
    1   AR   Ar   63   1.346   1.093   6.609
    1   AR   Ar   64   1.331   5.859   5.317
    1   AR   Ar   65   4.168   0.389   1.189
    1   AR   Ar   66   0.402   1.203   1.057
    1   AR   Ar   67   4.403   7.009  -0.680
    1   AR   Ar   68   0.862   1.320  -1.076
    1   AR   Ar   69   2.911   1.535  -0.154
    1   AR   Ar   70   0.762   0.803   2.027
    1   AR   Ar   71   3.045   1.303   3.606
    1   AR   Ar   72   4.102   0.187   2.354
    1   AR   Ar   73   4.196   0.631   3.679
    1   AR   Ar   74   1.183   1.027   4.308
    1   AR   Ar   75   2.828   0.614   4.735
    1   AR   Ar   76   1.375   0.013   1.905
    1   AR   Ar   77   2.310   6.821   4.963
    1   AR   Ar   78   0.179   5.846   5.790
    1   AR   Ar   79   3.653   6.414   6.369
    1   AR   Ar   80   3.670   5.325   5.090
    1   AR   Ar   81   2.261   6.469  -0.134
    1   AR   Ar   82   6.995   5.310   0.692
    1   AR   Ar   83   1.603   2.355  -0.224
    1   AR   Ar   84   0.537   4.194   1.326
    1   AR   Ar   85   1.713   3.371   0.769
    1   AR   Ar   86   2.223   5.600   0.717
    1   AR   Ar   87   2.278   3.096   1.710
    1   AR   Ar   88   3.075   4.942   1.602
    1   AR   Ar   89   7.063   2.775   2.113
    1   AR   Ar   90   3.355   1.754   4.569
    1   AR   Ar   91   1.405   1.961   3.427
    1   AR   Ar   92   1.184   3.432   1.871
    1   AR   Ar   93   1.081   1.172   5.553
    1   AR   Ar   94   0.487   6.144  11.015
    1   AR   Ar   95   4.841   0.865   5.590
    1   AR   Ar   96   3.047   6.794   4.151
    1   AR   Ar   97   3.681   2.360  -0.501
    1   AR   Ar   98   1.609   4.246   3.718
    1   AR   Ar   99   6.965   1.584   0.030
    1   AR   Ar  100   0.677   2.933  -1.092
    1   AR   Ar  101   3.904   6.091   2.213
    1   AR   Ar  102   3.814   1.170   2.883
    1   AR   Ar  103   1.879   4.552   0.656
    1   AR   Ar  104   3.260   4.630  -1.325
    1   AR   Ar  105   2.301   2.049   4.003
    1   AR   Ar  106   4.003   3.235   5.443
    1   AR   Ar  107   0.902   3.913   4.960
    1   AR   Ar  108   2.030   1.307   4.983
    1   AR   Ar  109   1.658   3.166   4.734
    1   AR   Ar  110   2.528   2.601   5.056
    1   AR   Ar  111   5.158   5.751   6.955
    1   AR   Ar  112   1.490   5.646   6.398
    1   AR   Ar  113   3.979   4.142  -0.471
    1   AR   Ar  114   1.917   7.083  -1.161
    1   AR   Ar  115   1.901   5.440  -0.287
    1   AR   Ar  116   6.162   0.497  -0.721
    1   AR   Ar  117   1.230   4.959   4.392
    1   AR   Ar  118   1.836   5.136   3.019
    1   AR   Ar  119   2.601   4.550   2.584
    1   AR   Ar  120   1.850   6.188   1.507
    1   AR   Ar  121   5.306   3.979   5.276
    1   AR   Ar  122   2.909   5.932   5.216
    1   AR   Ar  123   3.234   4.423   5.546
    1   AR   Ar  124   1.336   5.145   1.419
    1   AR   Ar  125   6.928   3.040   5.191
    1   AR   Ar  126   6.630   6.310   5.075
    1   AR   Ar  127   4.324   3.902   6.192
    1   AR   Ar  128   3.102   3.512   6.360
    1   AR   Ar  129   1.709   6.073   3.877
    1   AR   Ar  130   4.731   1.557  -3.688
    1   AR   Ar  131   4.407   3.621  -1.724
    1   AR   Ar  132   0.969   1.663   0.186
    1   AR   Ar  133   4.353   6.754   3.351
    1   AR   Ar  134   4.127   1.144   4.566
    1   AR   Ar  135   6.076   0.821   2.852
    1   AR   Ar  136   6.416   6.306   2.132
    1   AR   Ar  137   1.934   4.173   4.888
    1   AR   Ar  138   5.584   0.612   6.335
    1   AR   Ar  139   6.103   2.388   5.596
    1   AR   Ar  140   4.111   0.072   4.892
    1   AR   Ar  141   4.010   4.886   4.224
    1   AR   Ar  142   4.210   0.088   6.031
    1   AR   Ar  143   6.558   6.478   6.634
    1   AR   Ar  144   6.933   1.917   5.196
    1   AR   Ar  145   4.529   5.001  -1.080
    1   AR   Ar  146   3.215   2.242   2.461
    1   AR   Ar  147   4.794   2.727  -0.966
    1   AR   Ar  148   3.089   6.665  -0.892
    1   AR   Ar  149   2.029   1.620  -1.056
    1   AR   Ar  150   2.322   1.901   2.950
    1   AR   Ar  151   2.981   3.067   3.450
    1   AR   Ar  152   1.605   2.494  -1.617
    1   AR   Ar  153   4.981   0.173   4.476
    1   AR   Ar  154   3.929   2.020   3.576
    1   AR   Ar  155   6.981   4.049   5.410
    1   AR   Ar  156   2.740   4.357   3.734
    1   AR   Ar  157   1.494   4.227   5.927
    1   AR   Ar  158   0.123   1.374   6.206
    1   AR   Ar  159   3.570   1.112   6.612
    1   AR   Ar  160   1.552   2.175   4.810
    1   AR   Ar  161   5.297   4.709   2.711
    1   AR   Ar  162   4.323   5.986  -0.601
    1   AR   Ar  163   5.900   4.431   0.154
    1   AR   Ar  164   2.533   5.638   2.404
    1   AR   Ar  165   4.466   2.461   0.487
    1   AR   Ar  166   2.683   3.590   4.465
    1   AR   Ar  167   5.425   0.269   3.341
    1   AR   Ar  168   5.355   4.195  -1.499
    1   AR   Ar  169   3.589   4.246   2.771
    1   AR   Ar  170   2.326   3.583   5.514
    1   AR   Ar  171   5.750   3.537   4.330
    1   AR   Ar  172   4.096   4.183   4.937
    1   AR   Ar  173   1.794   2.471   6.539
    1   AR   Ar  174   2.426   5.977   6.240
    1   AR   Ar  175   3.932   1.884   5.388
    1   AR   Ar  176   3.897   2.641   4.570
    1   AR   Ar  177   0.863   5.059  -0.914
    1   AR   Ar  178   3.325   5.923  -0.145
    1   AR   Ar  179   3.022   0.243   0.395
    1   AR   Ar  180   4.610   0.380  -4.125
    1   AR   Ar  181   0.001   5.361   1.940
    1   AR   Ar  182   1.678   6.661   2.673
    1   AR   Ar  183   4.549   5.184   2.022
    1   AR   Ar  184   4.983   6.819   0.471
    1   AR   Ar  185   2.699   4.858   4.658
    1   AR   Ar  186   2.685   5.849   3.519
    1   AR   Ar  187   3.243   6.767   3.146
    1   AR   Ar  188   2.985   6.847   1.957
    1   AR   Ar  189   4.749   2.691   6.316
    1   AR   Ar  190   3.597   5.928   4.072
    1   AR   Ar  191   2.326   6.410   7.346
    1   AR   Ar  192   4.401   6.099   5.555
    1   AR   Ar  193   3.115   6.284   1.087
    1   AR   Ar  194   4.914   3.679  -0.531
    1   AR   Ar  195   5.906   1.329   0.371
    1   AR   Ar  196   4.042   1.394  -0.593
    1   AR   Ar  197   3.496   1.335   0.722
    1   AR   Ar  198   5.903   0.825   1.520
    1   AR   Ar  199   2.684   0.474   2.772
    1   AR   Ar  200   5.516   2.872   0.071
    1   AR   Ar  201   5.735   6.129   3.293
    1   AR   Ar  202   5.328   1.535   4.498
    1   AR   Ar  203   0.158   6.910   3.115
    1   AR   Ar  204   5.503   5.867   5.715
    1   AR   Ar  205   7.068   0.438   1.573
    1   AR   Ar  206   5.946   0.180   5.332
    1   AR   Ar  207   0.730   2.421   5.511
    1   AR   Ar  208   0.657   6.260   4.449
    1   AR   Ar  209   7.049   2.459  -1.918
    1   AR   Ar  210   2.126   0.187   1.018
    1   AR   Ar  211   6.756   3.191   0.927
    1   AR   Ar  212   6.758   3.745  -0.271
    1   AR   Ar  213   2.427   0.793   1.762
    1   AR   Ar  214   4.512   3.441   2.291
    1   AR   Ar  215   6.010   3.329   2.409
    1   AR   Ar  216   0.924   2.556   1.319
    1   AR   Ar  217   4.889   2.145   3.814
    1   AR   Ar  218   4.674   3.437   4.258
    1   AR   Ar  219   4.293   2.923   3.222
    1   AR   Ar  220   4.094   3.086   1.313
    1   AR   Ar  221   6.457   5.389   3.578
    1   AR   Ar  222   5.147   6.757   6.177
    1   AR   Ar  223   6.240   1.642   6.550
    1   AR   Ar  224   4.880   2.420   5.303
    1   AR   Ar  225   6.171   2.914   3.360
    1   AR   Ar  226   1.800   3.004   2.880
    1   AR   Ar  227   6.883   3.807   1.908
    1   AR   Ar  228   5.584   6.627   1.431
    1   AR   Ar  229   5.228   5.482  -1.515
    1   AR   Ar  230   3.824   3.824   3.908
    1   AR   Ar  231   5.145   1.346   2.797
    1   AR   Ar  232   4.975   2.612   1.647
    1   AR   Ar  233   6.566   2.059   3.848
    1   AR   Ar  234   5.857   2.510   4.607
    1   AR   Ar  235   6.665   1.042   4.089
    1   AR   Ar  236   4.790   4.957   5.496
    1   AR   Ar  237   5.918   2.694   6.812
    1   AR   Ar  238   5.812   4.068   6.256
    1   AR   Ar  239   0.282   4.809   9.798
    1   AR   Ar  240   6.766   2.851   7.520
    1   AR   Ar  241   1.825   6.091  -1.206
    1   AR   Ar  242   5.597   6.009   0.360
    1   AR   Ar  243   4.586   5.536   2.988
    1   AR   Ar  244   0.963   5.222   0.431
    1   AR   Ar  245   3.496   0.761   1.835
    1   AR   Ar  246   5.474   6.569  -0.483
    1   AR   Ar  247   5.967   3.830   0.999
    1   AR   Ar  248   5.765   5.214  -0.530
    1   AR   Ar  249   4.401   6.417   1.254
    1   AR   Ar  250   4.928   5.780   4.385
    1   AR   Ar  251   5.128   4.408   4.452
    1   AR   Ar  252   3.384   5.140   3.315
    1   AR   Ar  253   6.904   3.710   6.786
    1   AR   Ar  254   2.968   2.068   9.431
    1   AR   Ar  255   3.999   5.561   9.875
    1   AR   Ar  256   5.815   4.616   3.759
    7.12000  7.12000 12.00000
Argon-slab step 3995
  256
    1   AR   Ar    1   4.683   2.253  -2.525
    1   AR   Ar    2   6.355   0.273   0.775
    1   AR   Ar    3   4.084   2.259  -1.493
    1   AR   Ar    4   1.930   0.852  -0.326
    1   AR   Ar    5   6.855   6.286   0.828
    1   AR   Ar    6   0.691   1.912   2.152
    1   AR   Ar    7   5.187   3.562   3.154
    1   AR   Ar    8   4.778   1.168   0.170
    1   AR   Ar    9   1.147   6.908   3.660
    1   AR   Ar   10   0.348   0.214   4.146
    1   AR   Ar   11   2.050   0.181   4.051
    1   AR   Ar   12   0.629   1.108   3.422
    1   AR   Ar   13   7.024   0.623   5.075
    1   AR   Ar   14   4.552   1.253   7.560
    1   AR   Ar   15   3.197   6.365   8.610
    1   AR   Ar   16   0.825   7.068   5.313
    1   AR   Ar   17   6.219   2.328   0.669
    1   AR   Ar   18   6.329   4.559  -1.054
    1   AR   Ar   19   3.539   3.198   0.147
    1   AR   Ar   20   6.366   4.757  -2.891
    1   AR   Ar   21   2.630   1.789   1.819
    1   AR   Ar   22   6.935   1.379   3.000
    1   AR   Ar   23   0.594   7.032   0.473
    1   AR   Ar   24   5.582   2.358   2.631
    1   AR   Ar   25   0.466   1.918   4.268
    1   AR   Ar   26   6.270   6.817   3.960
    1   AR   Ar   27   1.663   1.314   2.401
    1   AR   Ar   28   0.940   2.794   3.994
    1   AR   Ar   29   5.877   1.627   7.688
    1   AR   Ar   30   2.010   1.098   3.487
    1   AR   Ar   31   3.339   6.975   7.564
    1   AR   Ar   32   0.771   2.463   6.604
    1   AR   Ar   33   0.741   4.131  -0.157
    1   AR   Ar   34   0.313   4.595   2.550
    1   AR   Ar   35   6.141   5.619   1.465
    1   AR   Ar   36   6.058   2.484  -2.598
    1   AR   Ar   37   4.160   2.375   2.295
    1   AR   Ar   38   6.615   4.224   2.998
    1   AR   Ar   39   0.713   3.609   3.157
    1   AR   Ar   40   1.814   4.200   1.734
    1   AR   Ar   41   0.127   2.369   3.226
    1   AR   Ar   42   5.665   5.180   4.976
    1   AR   Ar   43   6.947   2.568   6.162
    1   AR   Ar   44   0.341   4.718   3.658
    1   AR   Ar   45   0.624   3.558   5.997
    1   AR   Ar   46   0.265   4.878   4.936
    1   AR   Ar   47   4.262   4.237   7.409
    1   AR   Ar   48   5.922   3.679   7.175
    1   AR   Ar   49   5.243   7.094  -1.439
    1   AR   Ar   50   4.099   5.257   0.065
    1   AR   Ar   51   5.975   4.460   2.025
    1   AR   Ar   52   5.340   3.195  -1.963
    1   AR   Ar   53   5.198   6.583   2.462
    1   AR   Ar   54   0.686   6.234   2.349
    1   AR   Ar   55   6.146   5.398   2.648
    1   AR   Ar   56   6.689   0.248   2.419
    1   AR   Ar   57   4.555   4.471   3.471
    1   AR   Ar   58   7.027   3.325   4.073
    1   AR   Ar   59   2.465   4.947   5.719
    1   AR   Ar   60   0.927   5.754   3.382
    1   AR   Ar   61   0.180   4.559   6.842
    1   AR   Ar   62   6.684   4.274   4.336
    1   AR   Ar   63   1.312   1.095   6.629
    1   AR   Ar   64   1.265   5.855   5.286
    1   AR   Ar   65   4.193   0.411   1.170
    1   AR   Ar   66   0.450   1.202   1.065
    1   AR   Ar   67   4.424   7.008  -0.689
    1   AR   Ar   68   0.875   1.272  -1.062
    1   AR   Ar   69   2.916   1.519  -0.175
    1   AR   Ar   70   0.755   0.815   2.006
    1   AR   Ar   71   3.053   1.326   3.571
    1   AR   Ar   72   4.139   0.191   2.325
    1   AR   Ar   73   4.172   0.642   3.684
    1   AR   Ar   74   1.180   1.037   4.303
    1   AR   Ar   75   2.837   0.590   4.721
    1   AR   Ar   76   1.351   0.009   1.899
    1   AR   Ar   77   2.329   6.826   4.952
    1   AR   Ar   78   0.168   5.845   5.788
    1   AR   Ar   79   3.670   6.444   6.398
    1   AR   Ar   80   3.692   5.356   5.105
    1   AR   Ar   81   2.260   6.475  -0.137
    1   AR   Ar   82   6.984   5.285   0.667
    1   AR   Ar   83   1.604   2.400  -0.271
    1   AR   Ar   84   0.556   4.216   1.276
    1   AR   Ar   85   1.740   3.354   0.783
    1   AR   Ar   86   2.225   5.575   0.749
    1   AR   Ar   87   2.260   3.093   1.716
    1   AR   Ar   88   3.057   4.960   1.613
    1   AR   Ar   89   7.038   2.781   2.113
    1   AR   Ar   90   3.336   1.779   4.534
    1   AR   Ar   91   1.408   1.939   3.379
    1   AR   Ar   92   1.185   3.464   1.849
    1   AR   Ar   93   1.083   1.171   5.524
    1   AR   Ar   94   0.516   6.159  11.004
    1   AR   Ar   95   4.824   0.876   5.587
    1   AR   Ar   96   3.042   6.809   4.155
    1   AR   Ar   97   3.642   2.372  -0.490
    1   AR   Ar   98   1.625   4.242   3.706
    1   AR   Ar   99   6.961   1.614   0.042
    1   AR   Ar  100   0.682   2.951  -1.105
    1   AR   Ar  101   3.894   6.097   2.250
    1   AR   Ar  102   3.827   1.188   2.873
    1   AR   Ar  103   1.919   4.560   0.642
    1   AR   Ar  104   3.269   4.650  -1.322
    1   AR   Ar  105   2.310   2.038   3.996
    1   AR   Ar  106   3.992   3.272   5.445
    1   AR   Ar  107   0.904   3.929   4.980
    1   AR   Ar  108   2.018   1.277   4.966
    1   AR   Ar  109   1.639   3.194   4.733
    1   AR   Ar  110   2.536   2.590   5.046
    1   AR   Ar  111   5.123   5.727   6.973
    1   AR   Ar  112   1.471   5.642   6.399
    1   AR   Ar  113   3.968   4.139  -0.508
    1   AR   Ar  114   1.898   7.075  -1.148
    1   AR   Ar  115   1.907   5.443  -0.263
    1   AR   Ar  116   6.166   0.508  -0.752
    1   AR   Ar  117   1.214   4.975   4.350
    1   AR   Ar  118   1.864   5.107   3.005
    1   AR   Ar  119   2.585   4.515   2.574
    1   AR   Ar  120   1.844   6.190   1.506
    1   AR   Ar  121   5.315   4.015   5.278
    1   AR   Ar  122   2.929   5.935   5.149
    1   AR   Ar  123   3.238   4.399   5.552
    1   AR   Ar  124   1.305   5.144   1.412
    1   AR   Ar  125   6.909   3.038   5.180
    1   AR   Ar  126   6.629   6.330   5.090
    1   AR   Ar  127   4.298   3.900   6.211
    1   AR   Ar  128   3.130   3.486   6.355
    1   AR   Ar  129   1.740   6.078   3.832
    1   AR   Ar  130   4.744   1.570  -3.703
    1   AR   Ar  131   4.390   3.636  -1.774
    1   AR   Ar  132   0.966   1.669   0.193
    1   AR   Ar  133   4.361   6.791   3.382
    1   AR   Ar  134   4.128   1.125   4.578
    1   AR   Ar  135   6.072   0.817   2.864
    1   AR   Ar  136   6.384   6.336   2.146
    1   AR   Ar  137   1.919   4.175   4.903
    1   AR   Ar  138   5.560   0.618   6.343
    1   AR   Ar  139   6.121   2.403   5.571
    1   AR   Ar  140   4.117   0.061   4.863
    1   AR   Ar  141   3.991   4.871   4.204
    1   AR   Ar  142   4.220   0.086   6.051
    1   AR   Ar  143   6.602   6.464   6.658
    1   AR   Ar  144   6.913   1.912   5.204
    1   AR   Ar  145   4.518   4.986  -1.098
    1   AR   Ar  146   3.261   2.237   2.464
    1   AR   Ar  147   4.773   2.724  -0.948
    1   AR   Ar  148   3.075   6.673  -0.920
    1   AR   Ar  149   2.050   1.606  -1.029
    1   AR   Ar  150   2.310   1.922   2.942
    1   AR   Ar  151   2.974   3.048   3.504
    1   AR   Ar  152   1.606   2.491  -1.626
    1   AR   Ar  153   4.993   0.179   4.485
    1   AR   Ar  154   3.910   2.033   3.551
    1   AR   Ar  155   6.972   4.035   5.418
    1   AR   Ar  156   2.734   4.395   3.754
    1   AR   Ar  157   1.467   4.213   5.942
    1   AR   Ar  158   0.142   1.375   6.218
    1   AR   Ar  159   3.559   1.126   6.569
    1   AR   Ar  160   1.552   2.199   4.797
    1   AR   Ar  161   5.324   4.700   2.735
    1   AR   Ar  162   4.299   5.993  -0.584
    1   AR   Ar  163   5.926   4.438   0.150
    1   AR   Ar  164   2.551   5.666   2.387
    1   AR   Ar  165   4.471   2.497   0.491
    1   AR   Ar  166   2.697   3.606   4.464
    1   AR   Ar  167   5.412   0.231   3.355
    1   AR   Ar  168   5.298   4.182  -1.486
    1   AR   Ar  169   3.634   4.298   2.772
    1   AR   Ar  170   2.298   3.586   5.526
    1   AR   Ar  171   5.754   3.531   4.345
    1   AR   Ar  172   4.080   4.179   4.967
    1   AR   Ar  173   1.793   2.443   6.533
    1   AR   Ar  174   2.418   5.984   6.247
    1   AR   Ar  175   3.946   1.875   5.398
    1   AR   Ar  176   3.859   2.654   4.594
    1   AR   Ar  177   0.856   5.056  -0.906
    1   AR   Ar  178   3.338   5.925  -0.104
    1   AR   Ar  179   2.994   0.219   0.381
    1   AR   Ar  180   4.637   0.394  -4.127
    1   AR   Ar  181   7.109   5.358   1.928
    1   AR   Ar  182   1.666   6.689   2.695
    1   AR   Ar  183   4.582   5.186   2.027
    1   AR   Ar  184   4.936   6.813   0.461
    1   AR   Ar  185   2.748   4.832   4.657
    1   AR   Ar  186   2.659   5.872   3.525
    1   AR   Ar  187   3.270   6.784   3.142
    1   AR   Ar  188   2.988   6.822   1.969
    1   AR   Ar  189   4.742   2.681   6.286
    1   AR   Ar  190   3.573   5.880   4.060
    1   AR   Ar  191   2.309   6.406   7.314
    1   AR   Ar  192   4.442   6.082   5.566
    1   AR   Ar  193   3.128   6.299   1.073
    1   AR   Ar  194   4.943   3.668  -0.543
    1   AR   Ar  195   5.898   1.345   0.415
    1   AR   Ar  196   4.035   1.385  -0.584
    1   AR   Ar  197   3.533   1.335   0.740
    1   AR   Ar  198   5.866   0.795   1.563
    1   AR   Ar  199   2.662   0.467   2.784
    1   AR   Ar  200   5.514   2.842   0.123
    1   AR   Ar  201   5.711   6.129   3.273
    1   AR   Ar  202   5.333   1.506   4.481
    1   AR   Ar  203   0.152   6.906   3.150
    1   AR   Ar  204   5.511   5.857   5.727
    1   AR   Ar  205   7.032   0.470   1.583
    1   AR   Ar  206   5.949   0.172   5.314
    1   AR   Ar  207   0.762   2.455   5.470
    1   AR   Ar  208   0.653   6.270   4.414
    1   AR   Ar  209   7.072   2.443  -1.907
    1   AR   Ar  210   2.119   0.195   1.022
    1   AR   Ar  211   6.777   3.183   0.940
    1   AR   Ar  212   6.744   3.740  -0.239
    1   AR   Ar  213   2.422   0.813   1.775
    1   AR   Ar  214   4.502   3.481   2.295
    1   AR   Ar  215   6.036   3.307   2.436
    1   AR   Ar  216   0.912   2.598   1.289
    1   AR   Ar  217   4.884   2.142   3.774
    1   AR   Ar  218   4.711   3.458   4.244
    1   AR   Ar  219   4.303   2.926   3.230
    1   AR   Ar  220   4.064   3.123   1.337
    1   AR   Ar  221   6.463   5.412   3.565
    1   AR   Ar  222   5.152   6.753   6.168
    1   AR   Ar  223   6.246   1.643   6.564
    1   AR   Ar  224   4.863   2.427   5.302
    1   AR   Ar  225   6.198   2.925   3.371
    1   AR   Ar  226   1.795   3.022   2.875
    1   AR   Ar  227   6.858   3.795   1.948
    1   AR   Ar  228   5.599   6.647   1.435
    1   AR   Ar  229   5.223   5.511  -1.513
    1   AR   Ar  230   3.807   3.823   3.902
    1   AR   Ar  231   5.157   1.391   2.771
    1   AR   Ar  232   4.966   2.595   1.657
    1   AR   Ar  233   6.565   2.037   3.831
    1   AR   Ar  234   5.874   2.517   4.600
    1   AR   Ar  235   6.696   1.062   4.075
    1   AR   Ar  236   4.805   4.964   5.498
    1   AR   Ar  237   5.902   2.673   6.829
    1   AR   Ar  238   5.810   4.059   6.275
    1   AR   Ar  239   0.266   4.795   9.825
    1   AR   Ar  240   6.744   2.862   7.521
    1   AR   Ar  241   1.817   6.093  -1.197
    1   AR   Ar  242   5.604   6.004   0.405
    1   AR   Ar  243   4.580   5.559   2.981
    1   AR   Ar  244   0.940   5.211   0.442
    1   AR   Ar  245   3.503   0.772   1.853
    1   AR   Ar  246   5.474   6.555  -0.485
    1   AR   Ar  247   5.975   3.839   1.012
    1   AR   Ar  248   5.746   5.214  -0.538
    1   AR   Ar  249   4.404   6.404   1.241
    1   AR   Ar  250   4.904   5.781   4.387
    1   AR   Ar  251   5.148   4.430   4.451
    1   AR   Ar  252   3.403   5.174   3.321
    1   AR   Ar  253   6.888   3.708   6.773
    1   AR   Ar  254   2.987   2.054   9.443
    1   AR   Ar  255   3.972   5.574   9.891
    1   AR   Ar  256   5.825   4.607   3.753
    7.12000  7.12000 12.00000
Argon-slab step 4000
  256
    1   AR   Ar    1   4.690   2.281  -2.521
    1   AR   Ar    2   6.385   0.292   0.771
    1   AR   Ar    3   4.096   2.258  -1.526
    1   AR   Ar    4   1.968   0.824  -0.312
    1   AR   Ar    5   6.849   6.263   0.826
    1   AR   Ar    6   0.685   1.927   2.155
    1   AR   Ar    7   5.196   3.553   3.170
    1   AR   Ar    8   4.824   1.166   0.173
    1   AR   Ar    9   1.144   6.895   3.660
    1   AR   Ar   10   0.307   0.223   4.144
    1   AR   Ar   11   2.047   0.159   4.055
    1   AR   Ar   12   0.667   1.108   3.406
    1   AR   Ar   13   7.031   0.616   5.097
    1   AR   Ar   14   4.576   1.230   7.562
    1   AR   Ar   15   3.193   6.366   8.620
    1   AR   Ar   16   0.812   7.077   5.287
    1   AR   Ar   17   6.189   2.327   0.677
    1   AR   Ar   18   6.323   4.558  -1.048
    1   AR   Ar   19   3.541   3.202   0.130
    1   AR   Ar   20   6.380   4.770  -2.899
    1   AR   Ar   21   2.645   1.794   1.836
    1   AR   Ar   22   6.933   1.376   2.979
    1   AR   Ar   23   0.579   7.020   0.477
    1   AR   Ar   24   5.538   2.350   2.657
    1   AR   Ar   25   0.420   1.903   4.260
    1   AR   Ar   26   6.257   6.785   3.961
    1   AR   Ar   27   1.694   1.296   2.425
    1   AR   Ar   28   0.965   2.789   3.995
    1   AR   Ar   29   5.882   1.607   7.683
    1   AR   Ar   30   2.009   1.091   3.475
    1   AR   Ar   31   3.344   6.964   7.576
    1   AR   Ar   32   0.779   2.463   6.595
    1   AR   Ar   33   0.742   4.119  -0.204
    1   AR   Ar   34   0.313   4.610   2.570
    1   AR   Ar   35   6.153   5.669   1.467
    1   AR   Ar   36   6.069   2.493  -2.568
    1   AR   Ar   37   4.173   2.371   2.260
    1   AR   Ar   38   6.602   4.221   2.996
    1   AR   Ar   39   0.704   3.621   3.151
    1   AR   Ar   40   1.809   4.208   1.735
    1   AR   Ar   41   0.145   2.360   3.221
    1   AR   Ar   42   5.712   5.161   4.959
    1   AR   Ar   43   6.943   2.542   6.136
    1   AR   Ar   44   0.349   4.697   3.640
    1   AR   Ar   45   0.617   3.574   5.979
    1   AR   Ar   46   0.273   4.870   4.927
    1   AR   Ar   47   4.232   4.232   7.405
    1   AR   Ar   48   5.904   3.683   7.225
    1   AR   Ar   49   5.233   7.098  -1.464
    1   AR   Ar   50   4.069   5.251   0.078
    1   AR   Ar   51   5.935   4.484   2.015
    1   AR   Ar   52   5.282   3.191  -1.961
    1   AR   Ar   53   5.176   6.603   2.465
    1   AR   Ar   54   0.692   6.253   2.360
    1   AR   Ar   55   6.148   5.394   2.641
    1   AR   Ar   56   6.676   0.215   2.401
    1   AR   Ar   57   4.526   4.438   3.460
    1   AR   Ar   58   7.011   3.357   4.070
    1   AR   Ar   59   2.460   4.952   5.704
    1   AR   Ar   60   0.894   5.775   3.380
    1   AR   Ar   61   0.191   4.561   6.854
    1   AR   Ar   62   6.705   4.272   4.352
    1   AR   Ar   63   1.277   1.097   6.647
    1   AR   Ar   64   1.200   5.851   5.255
    1   AR   Ar   65   4.200   0.420   1.148
    1   AR   Ar   66   0.498   1.205   1.069
    1   AR   Ar   67   4.424   6.966  -0.713
    1   AR   Ar   68   0.889   1.225  -1.047
    1   AR   Ar   69   2.921   1.503  -0.197
    1   AR   Ar   70   0.750   0.835   1.993
    1   AR   Ar   71   3.060   1.348   3.538
    1   AR   Ar   72   4.184   0.185   2.304
    1   AR   Ar   73   4.149   0.653   3.687
    1   AR   Ar   74   1.179   1.046   4.301
    1   AR   Ar   75   2.843   0.596   4.719
    1   AR   Ar   76   1.327   0.008   1.877
    1   AR   Ar   77   2.345   6.826   4.946
    1   AR   Ar   78   0.160   5.843   5.787
    1   AR   Ar   79   3.682   6.467   6.430
    1   AR   Ar   80   3.729   5.374   5.122
    1   AR   Ar   81   2.260   6.476  -0.142
    1   AR   Ar   82   6.973   5.254   0.643
    1   AR   Ar   83   1.605   2.447  -0.320
    1   AR   Ar   84   0.580   4.229   1.242
    1   AR   Ar   85   1.765   3.330   0.794
    1   AR   Ar   86   2.238   5.535   0.790
    1   AR   Ar   87   2.241   3.089   1.724
    1   AR   Ar   88   3.039   4.978   1.624
    1   AR   Ar   89   7.015   2.782   2.114
    1   AR   Ar   90   3.308   1.803   4.496
    1   AR   Ar   91   1.399   1.921   3.334
    1   AR   Ar   92   1.176   3.486   1.831
    1   AR   Ar   93   1.083   1.170   5.493
    1   AR   Ar   94   0.545   6.173  10.993
    1   AR   Ar   95   4.806   0.888   5.582
    1   AR   Ar   96   3.037   6.823   4.161
    1   AR   Ar   97   3.603   2.383  -0.479
    1   AR   Ar   98   1.642   4.236   3.693
    1   AR   Ar   99   6.958   1.644   0.056
    1   AR   Ar  100   0.686   2.967  -1.118
    1   AR   Ar  101   3.883   6.104   2.288
    1   AR   Ar  102   3.841   1.208   2.856
    1   AR   Ar  103   1.956   4.565   0.629
    1   AR   Ar  104   3.280   4.671  -1.317
    1   AR   Ar  105   2.321   2.029   3.994
    1   AR   Ar  106   3.979   3.302   5.448
    1   AR   Ar  107   0.900   3.946   5.001
    1   AR   Ar  108   2.035   1.243   4.971
    1   AR   Ar  109   1.621   3.226   4.730
    1   AR   Ar  110   2.546   2.580   5.034
    1   AR   Ar  111   5.087   5.704   6.989
    1   AR   Ar  112   1.445   5.635   6.399
    1   AR   Ar  113   3.957   4.137  -0.546
    1   AR   Ar  114   1.882   7.079  -1.132
    1   AR   Ar  115   1.911   5.445  -0.241
    1   AR   Ar  116   6.170   0.517  -0.783
    1   AR   Ar  117   1.197   4.993   4.310
    1   AR   Ar  118   1.887   5.082   2.995
    1   AR   Ar  119   2.571   4.478   2.563
    1   AR   Ar  120   1.836   6.195   1.508
    1   AR   Ar  121   5.326   4.039   5.302
    1   AR   Ar  122   2.929   5.967   5.101
    1   AR   Ar  123   3.256   4.370   5.538
    1   AR   Ar  124   1.276   5.143   1.409
    1   AR   Ar  125   6.891   3.033   5.166
    1   AR   Ar  126   6.626   6.352   5.103
    1   AR   Ar  127   4.273   3.901   6.231
    1   AR   Ar  128   3.160   3.462   6.348
    1   AR   Ar  129   1.773   6.086   3.798
    1   AR   Ar  130   4.756   1.582  -3.718
    1   AR   Ar  131   4.371   3.651  -1.821
    1   AR   Ar  132   0.962   1.673   0.200
    1   AR   Ar  133   4.371   6.822   3.410
    1   AR   Ar  134   4.134   1.106   4.595
    1   AR   Ar  135   6.056   0.828   2.883
    1   AR   Ar  136   6.354   6.371   2.164
    1   AR   Ar  137   1.895   4.201   4.901
    1   AR   Ar  138   5.538   0.626   6.352
    1   AR   Ar  139   6.128   2.420   5.556
    1   AR   Ar  140   4.106   0.048   4.842
    1   AR   Ar  141   3.969   4.861   4.185
    1   AR   Ar  142   4.233   0.090   6.064
    1   AR   Ar  143   6.646   6.450   6.680
    1   AR   Ar  144   6.890   1.897   5.209
    1   AR   Ar  145   4.496   4.962  -1.108
    1   AR   Ar  146   3.280   2.231   2.482
    1   AR   Ar  147   4.758   2.724  -0.926
    1   AR   Ar  148   3.060   6.681  -0.948
    1   AR   Ar  149   2.071   1.596  -1.005
    1   AR   Ar  150   2.310   1.949   2.928
    1   AR   Ar  151   2.968   3.027   3.559
    1   AR   Ar  152   1.607   2.488  -1.634
    1   AR   Ar  153   5.022   0.189   4.486
    1   AR   Ar  154   3.880   2.041   3.526
    1   AR   Ar  155   6.961   4.025   5.427
    1   AR   Ar  156   2.728   4.431   3.763
    1   AR   Ar  157   1.443   4.201   5.957
    1   AR   Ar  158   0.165   1.380   6.231
    1   AR   Ar  159   3.550   1.140   6.524
    1   AR   Ar  160   1.548   2.216   4.782
    1   AR   Ar  161   5.343   4.693   2.767
    1   AR   Ar  162   4.289   6.018  -0.567
    1   AR   Ar  163   5.953   4.445   0.145
    1   AR   Ar  164   2.572   5.696   2.369
    1   AR   Ar  165   4.475   2.533   0.494
    1   AR   Ar  166   2.695   3.620   4.446
    1   AR   Ar  167   5.393   0.188   3.373
    1   AR   Ar  168   5.242   4.171  -1.472
    1   AR   Ar  169   3.644   4.296   2.786
    1   AR   Ar  170   2.283   3.573   5.557
    1   AR   Ar  171   5.763   3.528   4.358
    1   AR   Ar  172   4.070   4.176   4.995
    1   AR   Ar  173   1.796   2.414   6.526
    1   AR   Ar  174   2.416   5.993   6.252
    1   AR   Ar  175   3.964   1.856   5.399
    1   AR   Ar  176   3.824   2.672   4.615
    1   AR   Ar  177   0.851   5.053  -0.896
    1   AR   Ar  178   3.344   5.932  -0.062
    1   AR   Ar  179   2.967   0.195   0.366
    1   AR   Ar  180   4.664   0.410  -4.127
    1   AR   Ar  181   7.096   5.358   1.913
    1   AR   Ar  182   1.689   6.691   2.703
    1   AR   Ar  183   4.615   5.186   2.026
    1   AR   Ar  184   4.889   6.813   0.447
    1   AR   Ar  185   2.801   4.811   4.662
    1   AR   Ar  186   2.639   5.896   3.527
    1   AR   Ar  187   3.299   6.800   3.134
    1   AR   Ar  188   2.990   6.800   1.985
    1   AR   Ar  189   4.751   2.688   6.265
    1   AR   Ar  190   3.546   5.871   4.042
    1   AR   Ar  191   2.292   6.401   7.281
    1   AR   Ar  192   4.482   6.066   5.577
    1   AR   Ar  193   3.142   6.311   1.055
    1   AR   Ar  194   4.975   3.661  -0.554
    1   AR   Ar  195   5.890   1.358   0.458
    1   AR   Ar  196   4.027   1.374  -0.576
    1   AR   Ar  197   3.570   1.334   0.759
    1   AR   Ar  198   5.828   0.765   1.610
    1   AR   Ar  199   2.639   0.463   2.796
    1   AR   Ar  200   5.507   2.815   0.172
    1   AR   Ar  201   5.710   6.137   3.251
    1   AR   Ar  202   5.339   1.474   4.467
    1   AR   Ar  203   0.148   6.900   3.188
    1   AR   Ar  204   5.519   5.849   5.742
    1   AR   Ar  205   7.000   0.504   1.565
    1   AR   Ar  206   5.951   0.164   5.296
    1   AR   Ar  207   0.791   2.490   5.429
    1   AR   Ar  208   0.649   6.280   4.379
    1   AR   Ar  209   7.094   2.428  -1.896
    1   AR   Ar  210   2.160   0.201   1.021
    1   AR   Ar  211   6.800   3.176   0.955
    1   AR   Ar  212   6.716   3.731  -0.213
    1   AR   Ar  213   2.415   0.826   1.792
    1   AR   Ar  214   4.492   3.521   2.298
    1   AR   Ar  215   6.060   3.290   2.457
    1   AR   Ar  216   0.899   2.639   1.258
    1   AR   Ar  217   4.887   2.141   3.733
    1   AR   Ar  218   4.748   3.476   4.231
    1   AR   Ar  219   4.312   2.934   3.240
    1   AR   Ar  220   4.046   3.145   1.349
    1   AR   Ar  221   6.478   5.435   3.567
    1   AR   Ar  222   5.160   6.748   6.159
    1   AR   Ar  223   6.251   1.645   6.577
    1   AR   Ar  224   4.849   2.434   5.293
    1   AR   Ar  225   6.225   2.937   3.388
    1   AR   Ar  226   1.789   3.040   2.870
    1   AR   Ar  227   6.834   3.787   1.986
    1   AR   Ar  228   5.634   6.638   1.467
    1   AR   Ar  229   5.230   5.549  -1.516
    1   AR   Ar  230   3.783   3.822   3.894
    1   AR   Ar  231   5.165   1.435   2.747
    1   AR   Ar  232   4.961   2.578   1.665
    1   AR   Ar  233   6.551   2.015   3.824
    1   AR   Ar  234   5.888   2.520   4.586
    1   AR   Ar  235   6.742   1.083   4.053
    1   AR   Ar  236   4.815   4.969   5.501
    1   AR   Ar  237   5.886   2.650   6.843
    1   AR   Ar  238   5.806   4.054   6.282
    1   AR   Ar  239   0.249   4.780   9.852
    1   AR   Ar  240   6.722   2.873   7.522
    1   AR   Ar  241   1.809   6.084  -1.187
    1   AR   Ar  242   5.614   5.994   0.453
    1   AR   Ar  243   4.574   5.584   2.982
    1   AR   Ar  244   0.923   5.205   0.468
    1   AR   Ar  245   3.497   0.793   1.868
    1   AR   Ar  246   5.491   6.523  -0.495
    1   AR   Ar  247   5.980   3.848   1.029
    1   AR   Ar  248   5.742   5.190  -0.511
    1   AR   Ar  249   4.385   6.391   1.230
    1   AR   Ar  250   4.877   5.780   4.389
    1   AR   Ar  251   5.152   4.462   4.433
    1   AR   Ar  252   3.422   5.171   3.333
    1   AR   Ar  253   6.865   3.683   6.754
    1   AR   Ar  254   3.006   2.041   9.454
    1   AR   Ar  255   3.944   5.582   9.902
    1   AR   Ar  256   5.840   4.596   3.739
    7.12000  7.12000 12.00000
Argon-slab step 4005
  256
    1   AR   Ar    1   4.698   2.309  -2.517
    1   AR   Ar    2   6.412   0.308   0.761
    1   AR   Ar    3   4.103   2.254  -1.562
    1   AR   Ar    4   1.967   0.820  -0.324
    1   AR   Ar    5   6.842   6.246   0.826
    1   AR   Ar    6   0.684   1.937   2.153
    1   AR   Ar    7   5.207   3.545   3.186
    1   AR   Ar    8   4.828   1.174   0.174
    1   AR   Ar    9   1.139   6.886   3.655
    1   AR   Ar   10   0.277   0.225   4.152
    1   AR   Ar   11   2.043   0.140   4.056
    1   AR   Ar   12   0.712   1.104   3.391
    1   AR   Ar   13   7.037   0.611   5.119
    1   AR   Ar   14   4.599   1.207   7.564
    1   AR   Ar   15   3.188   6.368   8.629
    1   AR   Ar   16   0.819   7.083   5.275
    1   AR   Ar   17   6.169   2.322   0.692
    1   AR   Ar   18   6.321   4.552  -1.045
    1   AR   Ar   19   3.547   3.230   0.104
    1   AR   Ar   20   6.417   4.744  -2.878
    1   AR   Ar   21   2.656   1.805   1.849
    1   AR   Ar   22   6.926   1.376   2.952
    1   AR   Ar   23   0.563   7.010   0.484
    1   AR   Ar   24   5.496   2.354   2.684
    1   AR   Ar   25   0.376   1.886   4.252
    1   AR   Ar   26   6.245   6.755   3.962
    1   AR   Ar   27   1.720   1.277   2.448
    1   AR   Ar   28   0.989   2.785   3.994
    1   AR   Ar   29   5.887   1.588   7.676
    1   AR   Ar   30   2.007   1.079   3.466
    1   AR   Ar   31   3.349   6.952   7.588
    1   AR   Ar   32   0.782   2.463   6.586
    1   AR   Ar   33   0.743   4.109  -0.250
    1   AR   Ar   34   0.320   4.624   2.587
    1   AR   Ar   35   6.163   5.713   1.462
    1   AR   Ar   36   6.080   2.503  -2.536
    1   AR   Ar   37   4.210   2.370   2.223
    1   AR   Ar   38   6.583   4.214   2.998
    1   AR   Ar   39   0.695   3.633   3.146
    1   AR   Ar   40   1.815   4.229   1.733
    1   AR   Ar   41   0.172   2.358   3.210
    1   AR   Ar   42   5.764   5.143   4.941
    1   AR   Ar   43   6.943   2.517   6.116
    1   AR   Ar   44   0.356   4.677   3.625
    1   AR   Ar   45   0.607   3.584   5.964
    1   AR   Ar   46   0.282   4.865   4.917
    1   AR   Ar   47   4.203   4.227   7.400
    1   AR   Ar   48   5.906   3.666   7.207
    1   AR   Ar   49   5.233   7.105  -1.483
    1   AR   Ar   50   4.045   5.235   0.095
    1   AR   Ar   51   5.904   4.505   1.996
    1   AR   Ar   52   5.227   3.182  -1.959
    1   AR   Ar   53   5.170   6.607   2.469
    1   AR   Ar   54   0.698   6.272   2.371
    1   AR   Ar   55   6.148   5.387   2.620
    1   AR   Ar   56   6.661   0.173   2.401
    1   AR   Ar   57   4.504   4.403   3.443
    1   AR   Ar   58   6.999   3.381   4.064
    1   AR   Ar   59   2.447   4.962   5.689
    1   AR   Ar   60   0.856   5.793   3.376
    1   AR   Ar   61   0.208   4.573   6.865
    1   AR   Ar   62   6.722   4.277   4.370
    1   AR   Ar   63   1.241   1.102   6.664
    1   AR   Ar   64   1.134   5.847   5.224
    1   AR   Ar   65   4.175   0.410   1.125
    1   AR   Ar   66   0.546   1.212   1.068
    1   AR   Ar   67   4.427   6.940  -0.739
    1   AR   Ar   68   0.904   1.179  -1.030
    1   AR   Ar   69   2.926   1.486  -0.219
    1   AR   Ar   70   0.748   0.860   1.990
    1   AR   Ar   71   3.064   1.368   3.505
    1   AR   Ar   72   4.233   0.174   2.286
    1   AR   Ar   73   4.125   0.665   3.690
    1   AR   Ar   74   1.180   1.055   4.302
    1   AR   Ar   75   2.853   0.607   4.716
    1   AR   Ar   76   1.304   0.006   1.846
    1   AR   Ar   77   2.354   6.824   4.945
    1   AR   Ar   78   0.153   5.840   5.787
    1   AR   Ar   79   3.696   6.487   6.453
    1   AR   Ar   80   3.774   5.385   5.138
    1   AR   Ar   81   2.257   6.477  -0.149
    1   AR   Ar   82   6.961   5.216   0.620
    1   AR   Ar   83   1.606   2.493  -0.370
    1   AR   Ar   84   0.611   4.226   1.233
    1   AR   Ar   85   1.789   3.309   0.804
    1   AR   Ar   86   2.256   5.500   0.832
    1   AR   Ar   87   2.222   3.085   1.735
    1   AR   Ar   88   3.019   4.997   1.636
    1   AR   Ar   89   6.993   2.779   2.117
    1   AR   Ar   90   3.274   1.822   4.458
    1   AR   Ar   91   1.378   1.907   3.294
    1   AR   Ar   92   1.157   3.498   1.816
    1   AR   Ar   93   1.093   1.144   5.456
    1   AR   Ar   94   0.574   6.188  10.982
    1   AR   Ar   95   4.788   0.900   5.573
    1   AR   Ar   96   3.035   6.836   4.166
    1   AR   Ar   97   3.566   2.390  -0.471
    1   AR   Ar   98   1.658   4.227   3.680
    1   AR   Ar   99   6.954   1.674   0.071
    1   AR   Ar  100   0.691   2.983  -1.130
    1   AR   Ar  101   3.872   6.113   2.326
    1   AR   Ar  102   3.856   1.227   2.832
    1   AR   Ar  103   1.990   4.565   0.615
    1   AR   Ar  104   3.293   4.691  -1.312
    1   AR   Ar  105   2.331   2.021   3.995
    1   AR   Ar  106   3.971   3.313   5.455
    1   AR   Ar  107   0.890   3.963   5.020
    1   AR   Ar  108   2.071   1.209   4.991
    1   AR   Ar  109   1.605   3.258   4.726
    1   AR   Ar  110   2.558   2.570   5.021
    1   AR   Ar  111   5.052   5.682   7.003
    1   AR   Ar  112   1.415   5.627   6.398
    1   AR   Ar  113   3.945   4.134  -0.584
    1   AR   Ar  114   1.867   7.093  -1.114
    1   AR   Ar  115   1.913   5.445  -0.218
    1   AR   Ar  116   6.172   0.526  -0.812
    1   AR   Ar  117   1.180   5.014   4.271
    1   AR   Ar  118   1.881   5.079   2.980
    1   AR   Ar  119   2.562   4.438   2.549
    1   AR   Ar  120   1.829   6.202   1.514
    1   AR   Ar  121   5.340   4.055   5.336
    1   AR   Ar  122   2.925   5.978   5.065
    1   AR   Ar  123   3.275   4.334   5.529
    1   AR   Ar  124   1.250   5.142   1.414
    1   AR   Ar  125   6.875   3.024   5.147
    1   AR   Ar  126   6.622   6.375   5.115
    1   AR   Ar  127   4.250   3.905   6.254
    1   AR   Ar  128   3.190   3.439   6.338
    1   AR   Ar  129   1.761   6.084   3.785
    1   AR   Ar  130   4.769   1.594  -3.733
    1   AR   Ar  131   4.346   3.667  -1.866
    1   AR   Ar  132   0.958   1.678   0.206
    1   AR   Ar  133   4.383   6.846   3.436
    1   AR   Ar  134   4.143   1.090   4.617
    1   AR   Ar  135   6.034   0.845   2.905
    1   AR   Ar  136   6.328   6.405   2.191
    1   AR   Ar  137   1.871   4.244   4.891
    1   AR   Ar  138   5.524   0.634   6.359
    1   AR   Ar  139   6.118   2.439   5.551
    1   AR   Ar  140   4.084   0.031   4.825
    1   AR   Ar  141   3.944   4.855   4.173
    1   AR   Ar  142   4.233   0.095   6.073
    1   AR   Ar  143   6.690   6.436   6.701
    1   AR   Ar  144   6.876   1.874   5.210
    1   AR   Ar  145   4.469   4.933  -1.114
    1   AR   Ar  146   3.276   2.222   2.514
    1   AR   Ar  147   4.747   2.723  -0.901
    1   AR   Ar  148   3.045   6.689  -0.973
    1   AR   Ar  149   2.091   1.590  -0.983
    1   AR   Ar  150   2.312   1.981   2.906
    1   AR   Ar  151   2.963   3.005   3.613
    1   AR   Ar  152   1.607   2.484  -1.640
    1   AR   Ar  153   5.061   0.201   4.482
    1   AR   Ar  154   3.844   2.048   3.503
    1   AR   Ar  155   6.946   4.019   5.438
    1   AR   Ar  156   2.723   4.464   3.758
    1   AR   Ar  157   1.422   4.192   5.970
    1   AR   Ar  158   0.188   1.387   6.242
    1   AR   Ar  159   3.541   1.153   6.480
    1   AR   Ar  160   1.547   2.225   4.773
    1   AR   Ar  161   5.353   4.687   2.809
    1   AR   Ar  162   4.287   6.042  -0.546
    1   AR   Ar  163   5.981   4.448   0.142
    1   AR   Ar  164   2.566   5.701   2.360
    1   AR   Ar  165   4.479   2.569   0.496
    1   AR   Ar  166   2.688   3.631   4.427
    1   AR   Ar  167   5.372   0.141   3.392
    1   AR   Ar  168   5.188   4.164  -1.456
    1   AR   Ar  169   3.646   4.278   2.803
    1   AR   Ar  170   2.275   3.553   5.595
    1   AR   Ar  171   5.779   3.531   4.369
    1   AR   Ar  172   4.071   4.181   5.013
    1   AR   Ar  173   1.806   2.384   6.517
    1   AR   Ar  174   2.413   6.006   6.251
    1   AR   Ar  175   3.989   1.821   5.381
    1   AR   Ar  176   3.793   2.695   4.631
    1   AR   Ar  177   0.846   5.050  -0.884
    1   AR   Ar  178   3.340   5.945  -0.020
    1   AR   Ar  179   2.944   0.171   0.348
    1   AR   Ar  180   4.691   0.426  -4.128
    1   AR   Ar  181   7.082   5.361   1.896
    1   AR   Ar  182   1.717   6.688   2.719
    1   AR   Ar  183   4.648   5.186   2.023
    1   AR   Ar  184   4.845   6.816   0.428
    1   AR   Ar  185   2.856   4.797   4.677
    1   AR   Ar  186   2.644   5.914   3.516
    1   AR   Ar  187   3.308   6.798   3.130
    1   AR   Ar  188   2.992   6.780   2.004
    1   AR   Ar  189   4.784   2.719   6.253
    1   AR   Ar  190   3.524   5.878   4.029
    1   AR   Ar  191   2.276   6.397   7.248
    1   AR   Ar  192   4.519   6.052   5.587
    1   AR   Ar  193   3.155   6.323   1.035
    1   AR   Ar  194   5.009   3.657  -0.562
    1   AR   Ar  195   5.881   1.365   0.502
    1   AR   Ar  196   4.018   1.364  -0.569
    1   AR   Ar  197   3.607   1.331   0.777
    1   AR   Ar  198   5.792   0.734   1.657
    1   AR   Ar  199   2.616   0.460   2.808
    1   AR   Ar  200   5.491   2.797   0.213
    1   AR   Ar  201   5.707   6.147   3.230
    1   AR   Ar  202   5.344   1.442   4.454
    1   AR   Ar  203   0.145   6.891   3.224
    1   AR   Ar  204   5.530   5.840   5.758
    1   AR   Ar  205   6.973   0.543   1.528
    1   AR   Ar  206   5.952   0.156   5.278
    1   AR   Ar  207   0.816   2.527   5.392
    1   AR   Ar  208   0.644   6.288   4.345
    1   AR   Ar  209   7.117   2.413  -1.885
    1   AR   Ar  210   2.196   0.201   1.020
    1   AR   Ar  211   6.809   3.176   0.975
    1   AR   Ar  212   6.687   3.722  -0.185
    1   AR   Ar  213   2.407   0.831   1.811
    1   AR   Ar  214   4.482   3.560   2.303
    1   AR   Ar  215   6.079   3.276   2.473
    1   AR   Ar  216   0.900   2.670   1.229
    1   AR   Ar  217   4.896   2.142   3.693
    1   AR   Ar  218   4.778   3.492   4.218
    1   AR   Ar  219   4.295   2.938   3.231
    1   AR   Ar  220   4.036   3.157   1.352
    1   AR   Ar  221   6.500   5.459   3.581
    1   AR   Ar  222   5.169   6.743   6.150
    1   AR   Ar  223   6.256   1.647   6.588
    1   AR   Ar  224   4.838   2.441   5.274
    1   AR   Ar  225   6.252   2.948   3.412
    1   AR   Ar  226   1.782   3.056   2.865
    1   AR   Ar  227   6.814   3.788   2.020
    1   AR   Ar  228   5.665   6.631   1.493
    1   AR   Ar  229   5.242   5.590  -1.520
    1   AR   Ar  230   3.754   3.818   3.887
    1   AR   Ar  231   5.167   1.468   2.724
    1   AR   Ar  232   4.963   2.563   1.669
    1   AR   Ar  233   6.527   2.002   3.821
    1   AR   Ar  234   5.894   2.521   4.562
    1   AR   Ar  235   6.791   1.091   4.034
    1   AR   Ar  236   4.820   4.976   5.504
    1   AR   Ar  237   5.870   2.626   6.854
    1   AR   Ar  238   5.804   4.052   6.282
    1   AR   Ar  239   0.264   4.765   9.818
    1   AR   Ar  240   6.700   2.884   7.521
    1   AR   Ar  241   1.800   6.064  -1.175
    1   AR   Ar  242   5.627   5.983   0.503
    1   AR   Ar  243   4.569   5.611   2.989
    1   AR   Ar  244   0.911   5.203   0.499
    1   AR   Ar  245   3.485   0.819   1.882
    1   AR   Ar  246   5.506   6.490  -0.506
    1   AR   Ar  247   5.984   3.857   1.049
    1   AR   Ar  248   5.730   5.177  -0.486
    1   AR   Ar  249   4.363   6.375   1.225
    1   AR   Ar  250   4.850   5.777   4.391
    1   AR   Ar  251   5.125   4.485   4.425
    1   AR   Ar  252   3.428   5.161   3.321
    1   AR   Ar  253   6.838   3.646   6.730
    1   AR   Ar  254   3.025   2.027   9.465
    1   AR   Ar  255   3.913   5.562   9.899
    1   AR   Ar  256   5.860   4.584   3.717
    7.12000  7.12000 12.00000
Argon-slab step 4010
  256
    1   AR   Ar    1   4.706   2.337  -2.512
    1   AR   Ar    2   6.431   0.319   0.741
    1   AR   Ar    3   4.107   2.248  -1.601
    1   AR   Ar    4   1.956   0.817  -0.339
    1   AR   Ar    5   6.834   6.234   0.827
    1   AR   Ar    6   0.684   1.948   2.153
    1   AR   Ar    7   5.220   3.538   3.204
    1   AR   Ar    8   4.804   1.190   0.174
    1   AR   Ar    9   1.160   6.872   3.642
    1   AR   Ar   10   0.268   0.213   4.174
    1   AR   Ar   11   2.039   0.124   4.054
    1   AR   Ar   12   0.755   1.097   3.373
    1   AR   Ar   13   7.043   0.607   5.141
    1   AR   Ar   14   4.624   1.184   7.564
    1   AR   Ar   15   3.184   6.370   8.637
    1   AR   Ar   16   0.825   7.088   5.261
    1   AR   Ar   17   6.180   2.323   0.683
    1   AR   Ar   18   6.320   4.541  -1.043
    1   AR   Ar   19   3.554   3.262   0.083
    1   AR   Ar   20   6.453   4.718  -2.857
    1   AR   Ar   21   2.665   1.818   1.856
    1   AR   Ar   22   6.919   1.378   2.922
    1   AR   Ar   23   0.547   6.999   0.492
    1   AR   Ar   24   5.462   2.381   2.711
    1   AR   Ar   25   0.344   1.872   4.250
    1   AR   Ar   26   6.234   6.725   3.964
    1   AR   Ar   27   1.740   1.255   2.469
    1   AR   Ar   28   1.011   2.781   3.989
    1   AR   Ar   29   5.891   1.570   7.668
    1   AR   Ar   30   2.005   1.064   3.461
    1   AR   Ar   31   3.354   6.938   7.599
    1   AR   Ar   32   0.780   2.464   6.577
    1   AR   Ar   33   0.743   4.099  -0.295
    1   AR   Ar   34   0.331   4.638   2.598
    1   AR   Ar   35   6.150   5.720   1.445
    1   AR   Ar   36   6.090   2.513  -2.503
    1   AR   Ar   37   4.242   2.367   2.197
    1   AR   Ar   38   6.559   4.206   3.002
    1   AR   Ar   39   0.685   3.645   3.142
    1   AR   Ar   40   1.830   4.258   1.729
    1   AR   Ar   41   0.204   2.359   3.198
    1   AR   Ar   42   5.818   5.125   4.921
    1   AR   Ar   43   6.948   2.493   6.101
    1   AR   Ar   44   0.363   4.656   3.613
    1   AR   Ar   45   0.593   3.585   5.954
    1   AR   Ar   46   0.277   4.856   4.905
    1   AR   Ar   47   4.174   4.221   7.394
    1   AR   Ar   48   5.906   3.647   7.198
    1   AR   Ar   49   5.267   0.010  -1.483
    1   AR   Ar   50   4.026   5.210   0.114
    1   AR   Ar   51   5.880   4.524   1.969
    1   AR   Ar   52   5.203   3.163  -1.957
    1   AR   Ar   53   5.172   6.601   2.473
    1   AR   Ar   54   0.703   6.292   2.382
    1   AR   Ar   55   6.149   5.378   2.592
    1   AR   Ar   56   6.650   0.141   2.411
    1   AR   Ar   57   4.489   4.367   3.423
    1   AR   Ar   58   6.991   3.394   4.055
    1   AR   Ar   59   2.429   4.975   5.675
    1   AR   Ar   60   0.814   5.810   3.369
    1   AR   Ar   61   0.226   4.588   6.876
    1   AR   Ar   62   6.733   4.290   4.389
    1   AR   Ar   63   1.204   1.107   6.680
    1   AR   Ar   64   1.068   5.841   5.192
    1   AR   Ar   65   4.150   0.399   1.102
    1   AR   Ar   66   0.592   1.222   1.060
    1   AR   Ar   67   4.434   6.944  -0.769
    1   AR   Ar   68   0.922   1.133  -1.012
    1   AR   Ar   69   2.931   1.468  -0.240
    1   AR   Ar   70   0.746   0.886   1.998
    1   AR   Ar   71   3.064   1.382   3.473
    1   AR   Ar   72   4.283   0.160   2.271
    1   AR   Ar   73   4.099   0.680   3.691
    1   AR   Ar   74   1.185   1.063   4.308
    1   AR   Ar   75   2.871   0.621   4.709
    1   AR   Ar   76   1.284   0.001   1.811
    1   AR   Ar   77   2.358   6.822   4.952
    1   AR   Ar   78   0.148   5.836   5.787
    1   AR   Ar   79   3.716   6.506   6.461
    1   AR   Ar   80   3.823   5.392   5.153
    1   AR   Ar   81   2.237   6.476  -0.170
    1   AR   Ar   82   6.946   5.176   0.598
    1   AR   Ar   83   1.607   2.538  -0.421
    1   AR   Ar   84   0.640   4.225   1.223
    1   AR   Ar   85   1.809   3.289   0.813
    1   AR   Ar   86   2.277   5.474   0.875
    1   AR   Ar   87   2.203   3.080   1.750
    1   AR   Ar   88   2.998   5.017   1.648
    1   AR   Ar   89   6.974   2.770   2.119
    1   AR   Ar   90   3.239   1.837   4.421
    1   AR   Ar   91   1.352   1.911   3.267
    1   AR   Ar   92   1.131   3.502   1.807
    1   AR   Ar   93   1.100   1.118   5.418
    1   AR   Ar   94   0.603   6.202  10.971
    1   AR   Ar   95   4.769   0.913   5.561
    1   AR   Ar   96   3.037   6.847   4.168
    1   AR   Ar   97   3.530   2.392  -0.468
    1   AR   Ar   98   1.673   4.216   3.667
    1   AR   Ar   99   6.949   1.704   0.088
    1   AR   Ar  100   0.697   2.999  -1.142
    1   AR   Ar  101   3.885   6.110   2.337
    1   AR   Ar  102   3.873   1.247   2.802
    1   AR   Ar  103   2.019   4.556   0.601
    1   AR   Ar  104   3.307   4.712  -1.306
    1   AR   Ar  105   2.338   2.014   3.996
    1   AR   Ar  106   3.988   3.280   5.472
    1   AR   Ar  107   0.872   3.982   5.037
    1   AR   Ar  108   2.089   1.182   5.010
    1   AR   Ar  109   1.593   3.288   4.721
    1   AR   Ar  110   2.571   2.562   5.006
    1   AR   Ar  111   5.016   5.660   7.015
    1   AR   Ar  112   1.384   5.618   6.396
    1   AR   Ar  113   3.934   4.131  -0.622
    1   AR   Ar  114   1.854   7.112  -1.094
    1   AR   Ar  115   1.914   5.443  -0.196
    1   AR   Ar  116   6.174   0.534  -0.841
    1   AR   Ar  117   1.164   5.036   4.233
    1   AR   Ar  118   1.871   5.081   2.968
    1   AR   Ar  119   2.563   4.404   2.548
    1   AR   Ar  120   1.822   6.209   1.522
    1   AR   Ar  121   5.353   4.066   5.369
    1   AR   Ar  122   2.926   5.943   5.041
    1   AR   Ar  123   3.275   4.308   5.524
    1   AR   Ar  124   1.230   5.141   1.432
    1   AR   Ar  125   6.863   3.015   5.124
    1   AR   Ar  126   6.617   6.399   5.124
    1   AR   Ar  127   4.227   3.913   6.280
    1   AR   Ar  128   3.220   3.416   6.326
    1   AR   Ar  129   1.715   6.072   3.789
    1   AR   Ar  130   4.781   1.606  -3.748
    1   AR   Ar  131   4.312   3.685  -1.909
    1   AR   Ar  132   0.957   1.684   0.208
    1   AR   Ar  133   4.396   6.860   3.460
    1   AR   Ar  134   4.152   1.077   4.643
    1   AR   Ar  135   6.009   0.862   2.928
    1   AR   Ar  136   6.305   6.426   2.227
    1   AR   Ar  137   1.864   4.234   4.906
    1   AR   Ar  138   5.538   0.645   6.357
    1   AR   Ar  139   6.091   2.459   5.553
    1   AR   Ar  140   4.058   0.012   4.810
    1   AR   Ar  141   3.918   4.852   4.167
    1   AR   Ar  142   4.234   0.108   6.077
    1   AR   Ar  143   6.733   6.421   6.720
    1   AR   Ar  144   6.870   1.847   5.207
    1   AR   Ar  145   4.441   4.905  -1.118
    1   AR   Ar  146   3.268   2.216   2.557
    1   AR   Ar  147   4.724   2.725  -0.921
    1   AR   Ar  148   3.029   6.696  -0.997
    1   AR   Ar  149   2.110   1.589  -0.964
    1   AR   Ar  150   2.306   2.014   2.877
    1   AR   Ar  151   2.971   2.991   3.645
    1   AR   Ar  152   1.606   2.479  -1.644
    1   AR   Ar  153   5.103   0.215   4.477
    1   AR   Ar  154   3.807   2.056   3.483
    1   AR   Ar  155   6.928   4.017   5.449
    1   AR   Ar  156   2.718   4.494   3.739
    1   AR   Ar  157   1.408   4.188   5.982
    1   AR   Ar  158   0.212   1.396   6.251
    1   AR   Ar  159   3.534   1.165   6.434
    1   AR   Ar  160   1.551   2.227   4.766
    1   AR   Ar  161   5.355   4.682   2.856
    1   AR   Ar  162   4.283   6.037  -0.521
    1   AR   Ar  163   6.011   4.447   0.145
    1   AR   Ar  164   2.585   5.715   2.339
    1   AR   Ar  165   4.481   2.605   0.498
    1   AR   Ar  166   2.681   3.643   4.412
    1   AR   Ar  167   5.351   0.094   3.413
    1   AR   Ar  168   5.137   4.161  -1.441
    1   AR   Ar  169   3.648   4.257   2.818
    1   AR   Ar  170   2.269   3.531   5.634
    1   AR   Ar  171   5.803   3.539   4.379
    1   AR   Ar  172   4.090   4.194   5.016
    1   AR   Ar  173   1.820   2.354   6.507
    1   AR   Ar  174   2.404   6.024   6.239
    1   AR   Ar  175   4.011   1.786   5.365
    1   AR   Ar  176   3.765   2.720   4.645
    1   AR   Ar  177   0.842   5.047  -0.871
    1   AR   Ar  178   3.328   5.966   0.022
    1   AR   Ar  179   2.947   0.162   0.344
    1   AR   Ar  180   4.718   0.443  -4.128
    1   AR   Ar  181   7.068   5.365   1.879
    1   AR   Ar  182   1.748   6.683   2.737
    1   AR   Ar  183   4.682   5.185   2.018
    1   AR   Ar  184   4.803   6.822   0.404
    1   AR   Ar  185   2.913   4.788   4.699
    1   AR   Ar  186   2.670   5.928   3.494
    1   AR   Ar  187   3.286   6.773   3.134
    1   AR   Ar  188   2.992   6.762   2.026
    1   AR   Ar  189   4.817   2.753   6.248
    1   AR   Ar  190   3.509   5.888   4.026
    1   AR   Ar  191   2.261   6.394   7.217
    1   AR   Ar  192   4.553   6.039   5.596
    1   AR   Ar  193   3.168   6.334   1.014
    1   AR   Ar  194   5.042   3.656  -0.564
    1   AR   Ar  195   5.872   1.365   0.545
    1   AR   Ar  196   4.009   1.354  -0.560
    1   AR   Ar  197   3.644   1.328   0.795
    1   AR   Ar  198   5.757   0.701   1.705
    1   AR   Ar  199   2.613   0.455   2.813
    1   AR   Ar  200   5.461   2.791   0.243
    1   AR   Ar  201   5.704   6.156   3.213
    1   AR   Ar  202   5.350   1.410   4.442
    1   AR   Ar  203   0.140   6.880   3.258
    1   AR   Ar  204   5.546   5.827   5.774
    1   AR   Ar  205   6.952   0.586   1.492
    1   AR   Ar  206   5.953   0.148   5.260
    1   AR   Ar  207   0.832   2.567   5.359
    1   AR   Ar  208   0.636   6.297   4.324
    1   AR   Ar  209   0.019   2.399  -1.873
    1   AR   Ar  210   2.225   0.197   1.022
    1   AR   Ar  211   6.802   3.136   0.961
    1   AR   Ar  212   6.661   3.712  -0.158
    1   AR   Ar  213   2.399   0.829   1.830
    1   AR   Ar  214   4.473   3.599   2.309
    1   AR   Ar  215   6.089   3.262   2.486
    1   AR   Ar  216   0.921   2.684   1.205
    1   AR   Ar  217   4.907   2.144   3.652
    1   AR   Ar  218   4.800   3.506   4.204
    1   AR   Ar  219   4.278   2.947   3.220
    1   AR   Ar  220   4.026   3.168   1.356
    1   AR   Ar  221   6.527   5.482   3.601
    1   AR   Ar  222   5.181   6.739   6.143
    1   AR   Ar  223   6.262   1.649   6.598
    1   AR   Ar  224   4.830   2.448   5.247
    1   AR   Ar  225   6.278   2.959   3.441
    1   AR   Ar  226   1.764   3.073   2.889
    1   AR   Ar  227   6.800   3.799   2.048
    1   AR   Ar  228   5.687   6.632   1.508
    1   AR   Ar  229   5.254   5.631  -1.522
    1   AR   Ar  230   3.722   3.811   3.882
    1   AR   Ar  231   5.157   1.480   2.702
    1   AR   Ar  232   4.984   2.550   1.661
    1   AR   Ar  233   6.495   2.000   3.817
    1   AR   Ar  234   5.869   2.519   4.524
    1   AR   Ar  235   6.842   1.085   4.018
    1   AR   Ar  236   4.822   4.983   5.505
    1   AR   Ar  237   5.853   2.603   6.863
    1   AR   Ar  238   5.802   4.051   6.278
    1   AR   Ar  239   0.280   4.750   9.785
    1   AR   Ar  240   6.677   2.895   7.520
    1   AR   Ar  241   1.792   6.040  -1.163
    1   AR   Ar  242   5.639   5.972   0.554
    1   AR   Ar  243   4.565   5.638   3.000
    1   AR   Ar  244   0.896   5.200   0.516
    1   AR   Ar  245   3.471   0.846   1.895
    1   AR   Ar  246   5.519   6.458  -0.517
    1   AR   Ar  247   5.988   3.866   1.071
    1   AR   Ar  248   5.711   5.175  -0.465
    1   AR   Ar  249   4.338   6.358   1.226
    1   AR   Ar  250   4.822   5.773   4.394
    1   AR   Ar  251   5.079   4.503   4.426
    1   AR   Ar  252   3.432   5.159   3.308
    1   AR   Ar  253   6.812   3.606   6.702
    1   AR   Ar  254   3.044   2.014   9.477
    1   AR   Ar  255   3.882   5.543   9.895
    1   AR   Ar  256   5.884   4.571   3.696
    7.12000  7.12000 12.00000
Argon-slab step 4015
  256
    1   AR   Ar    1   4.716   2.366  -2.508
    1   AR   Ar    2   6.437   0.324   0.706
    1   AR   Ar    3   4.108   2.240  -1.641
    1   AR   Ar    4   1.944   0.808  -0.348
    1   AR   Ar    5   6.828   6.225   0.827
    1   AR   Ar    6   0.683   1.961   2.155
    1   AR   Ar    7   5.237   3.532   3.220
    1   AR   Ar    8   4.780   1.205   0.176
    1   AR   Ar    9   1.174   6.870   3.623
    1   AR   Ar   10   0.263   0.201   4.202
    1   AR   Ar   11   2.016   0.114   4.056
    1   AR   Ar   12   0.792   1.083   3.353
    1   AR   Ar   13   7.048   0.604   5.164
    1   AR   Ar   14   4.649   1.161   7.564
    1   AR   Ar   15   3.180   6.373   8.640
    1   AR   Ar   16   0.831   7.093   5.245
    1   AR   Ar   17   6.204   2.319   0.683
    1   AR   Ar   18   6.327   4.549  -1.033
    1   AR   Ar   19   3.563   3.299   0.065
    1   AR   Ar   20   6.490   4.692  -2.835
    1   AR   Ar   21   2.669   1.834   1.858
    1   AR   Ar   22   6.915   1.381   2.892
    1   AR   Ar   23   0.529   6.989   0.501
    1   AR   Ar   24   5.434   2.430   2.739
    1   AR   Ar   25   0.347   1.876   4.265
    1   AR   Ar   26   6.226   6.697   3.967
    1   AR   Ar   27   1.750   1.232   2.489
    1   AR   Ar   28   1.030   2.776   3.981
    1   AR   Ar   29   5.895   1.553   7.659
    1   AR   Ar   30   2.002   1.049   3.462
    1   AR   Ar   31   3.358   6.924   7.610
    1   AR   Ar   32   0.776   2.464   6.567
    1   AR   Ar   33   0.742   4.088  -0.339
    1   AR   Ar   34   0.345   4.651   2.603
    1   AR   Ar   35   6.123   5.699   1.424
    1   AR   Ar   36   6.101   2.525  -2.491
    1   AR   Ar   37   4.256   2.360   2.189
    1   AR   Ar   38   6.535   4.195   3.007
    1   AR   Ar   39   0.675   3.656   3.133
    1   AR   Ar   40   1.847   4.290   1.724
    1   AR   Ar   41   0.239   2.362   3.185
    1   AR   Ar   42   5.872   5.107   4.902
    1   AR   Ar   43   6.957   2.470   6.091
    1   AR   Ar   44   0.367   4.635   3.608
    1   AR   Ar   45   0.575   3.576   5.950
    1   AR   Ar   46   0.252   4.841   4.892
    1   AR   Ar   47   4.145   4.215   7.387
    1   AR   Ar   48   5.911   3.617   7.216
    1   AR   Ar   49   5.303   0.034  -1.481
    1   AR   Ar   50   4.010   5.180   0.133
    1   AR   Ar   51   5.874   4.546   1.928
    1   AR   Ar   52   5.217   3.132  -1.954
    1   AR   Ar   53   5.169   6.597   2.473
    1   AR   Ar   54   0.708   6.313   2.392
    1   AR   Ar   55   6.152   5.370   2.561
    1   AR   Ar   56   6.652   0.141   2.429
    1   AR   Ar   57   4.480   4.332   3.402
    1   AR   Ar   58   6.990   3.399   4.044
    1   AR   Ar   59   2.410   4.990   5.661
    1   AR   Ar   60   0.836   5.824   3.374
    1   AR   Ar   61   0.245   4.602   6.885
    1   AR   Ar   62   6.734   4.309   4.407
    1   AR   Ar   63   1.168   1.113   6.694
    1   AR   Ar   64   1.005   5.835   5.162
    1   AR   Ar   65   4.126   0.386   1.078
    1   AR   Ar   66   0.635   1.233   1.049
    1   AR   Ar   67   4.445   6.969  -0.804
    1   AR   Ar   68   0.941   1.089  -0.992
    1   AR   Ar   69   2.936   1.449  -0.260
    1   AR   Ar   70   0.745   0.910   2.015
    1   AR   Ar   71   3.055   1.390   3.438
    1   AR   Ar   72   4.333   0.145   2.256
    1   AR   Ar   73   4.071   0.699   3.692
    1   AR   Ar   74   1.191   1.072   4.317
    1   AR   Ar   75   2.896   0.635   4.701
    1   AR   Ar   76   1.265   7.116   1.776
    1   AR   Ar   77   2.356   6.820   4.965
    1   AR   Ar   78   0.138   5.842   5.785
    1   AR   Ar   79   3.727   6.511   6.477
    1   AR   Ar   80   3.872   5.393   5.166
    1   AR   Ar   81   2.219   6.477  -0.191
    1   AR   Ar   82   6.929   5.133   0.578
    1   AR   Ar   83   1.607   2.582  -0.473
    1   AR   Ar   84   0.668   4.226   1.211
    1   AR   Ar   85   1.821   3.285   0.811
    1   AR   Ar   86   2.302   5.458   0.922
    1   AR   Ar   87   2.185   3.075   1.771
    1   AR   Ar   88   2.977   5.035   1.659
    1   AR   Ar   89   6.958   2.756   2.122
    1   AR   Ar   90   3.199   1.806   4.431
    1   AR   Ar   91   1.373   1.913   3.279
    1   AR   Ar   92   1.116   3.505   1.812
    1   AR   Ar   93   1.103   1.093   5.382
    1   AR   Ar   94   0.632   6.217  10.960
    1   AR   Ar   95   4.751   0.925   5.547
    1   AR   Ar   96   3.043   6.856   4.168
    1   AR   Ar   97   3.496   2.389  -0.467
    1   AR   Ar   98   1.687   4.204   3.655
    1   AR   Ar   99   6.944   1.733   0.106
    1   AR   Ar  100   0.703   3.014  -1.153
    1   AR   Ar  101   3.903   6.105   2.341
    1   AR   Ar  102   3.893   1.266   2.768
    1   AR   Ar  103   2.044   4.538   0.584
    1   AR   Ar  104   3.322   4.734  -1.300
    1   AR   Ar  105   2.339   2.005   3.998
    1   AR   Ar  106   4.005   3.243   5.493
    1   AR   Ar  107   0.848   4.000   5.051
    1   AR   Ar  108   2.046   1.172   5.025
    1   AR   Ar  109   1.584   3.311   4.715
    1   AR   Ar  110   2.585   2.555   4.990
    1   AR   Ar  111   4.981   5.639   7.025
    1   AR   Ar  112   1.352   5.608   6.393
    1   AR   Ar  113   3.923   4.123  -0.657
    1   AR   Ar  114   1.842   0.013  -1.072
    1   AR   Ar  115   1.914   5.440  -0.173
    1   AR   Ar  116   6.174   0.542  -0.870
    1   AR   Ar  117   1.150   5.060   4.197
    1   AR   Ar  118   1.860   5.087   2.963
    1   AR   Ar  119   2.574   4.381   2.567
    1   AR   Ar  120   1.816   6.218   1.532
    1   AR   Ar  121   5.364   4.075   5.396
    1   AR   Ar  122   2.926   5.905   5.015
    1   AR   Ar  123   3.265   4.277   5.531
    1   AR   Ar  124   1.233   5.128   1.446
    1   AR   Ar  125   6.855   3.004   5.098
    1   AR   Ar  126   6.612   6.424   5.132
    1   AR   Ar  127   4.207   3.922   6.305
    1   AR   Ar  128   3.251   3.394   6.312
    1   AR   Ar  129   1.674   6.053   3.801
    1   AR   Ar  130   4.793   1.616  -3.762
    1   AR   Ar  131   4.272   3.704  -1.951
    1   AR   Ar  132   0.957   1.692   0.206
    1   AR   Ar  133   4.404   6.863   3.481
    1   AR   Ar  134   4.161   1.076   4.661
    1   AR   Ar  135   5.981   0.877   2.952
    1   AR   Ar  136   6.279   6.413   2.271
    1   AR   Ar  137   1.841   4.216   4.958
    1   AR   Ar  138   5.552   0.657   6.354
    1   AR   Ar  139   6.053   2.480   5.559
    1   AR   Ar  140   4.031   7.111   4.795
    1   AR   Ar  141   3.894   4.850   4.167
    1   AR   Ar  142   4.242   0.114   6.064
    1   AR   Ar  143   6.777   6.406   6.738
    1   AR   Ar  144   6.850   1.809   5.187
    1   AR   Ar  145   4.413   4.882  -1.122
    1   AR   Ar  146   3.265   2.213   2.606
    1   AR   Ar  147   4.701   2.727  -0.938
    1   AR   Ar  148   3.012   6.703  -1.018
    1   AR   Ar  149   2.093   1.605  -0.978
    1   AR   Ar  150   2.302   2.051   2.852
    1   AR   Ar  151   2.980   2.984   3.643
    1   AR   Ar  152   1.605   2.473  -1.647
    1   AR   Ar  153   5.145   0.230   4.472
    1   AR   Ar  154   3.774   2.069   3.467
    1   AR   Ar  155   6.905   4.020   5.459
    1   AR   Ar  156   2.712   4.522   3.714
    1   AR   Ar  157   1.399   4.189   5.994
    1   AR   Ar  158   0.236   1.406   6.258
    1   AR   Ar  159   3.528   1.177   6.386
    1   AR   Ar  160   1.562   2.219   4.753
    1   AR   Ar  161   5.350   4.678   2.898
    1   AR   Ar  162   4.279   6.013  -0.492
    1   AR   Ar  163   6.040   4.443   0.155
    1   AR   Ar  164   2.602   5.731   2.320
    1   AR   Ar  165   4.481   2.629   0.497
    1   AR   Ar  166   2.673   3.656   4.403
    1   AR   Ar  167   5.336   0.050   3.432
    1   AR   Ar  168   5.090   4.162  -1.431
    1   AR   Ar  169   3.648   4.232   2.831
    1   AR   Ar  170   2.264   3.508   5.672
    1   AR   Ar  171   5.834   3.554   4.389
    1   AR   Ar  172   4.125   4.211   5.006
    1   AR   Ar  173   1.837   2.324   6.495
    1   AR   Ar  174   2.396   6.040   6.224
    1   AR   Ar  175   4.029   1.754   5.353
    1   AR   Ar  176   3.736   2.744   4.652
    1   AR   Ar  177   0.839   5.046  -0.857
    1   AR   Ar  178   3.311   5.991   0.061
    1   AR   Ar  179   2.963   0.157   0.337
    1   AR   Ar  180   4.745   0.461  -4.128
    1   AR   Ar  181   7.055   5.370   1.861
    1   AR   Ar  182   1.781   6.676   2.756
    1   AR   Ar  183   4.717   5.184   2.012
    1   AR   Ar  184   4.762   6.829   0.377
    1   AR   Ar  185   2.970   4.783   4.721
    1   AR   Ar  186   2.694   5.941   3.463
    1   AR   Ar  187   3.267   6.747   3.136
    1   AR   Ar  188   2.993   6.745   2.048
    1   AR   Ar  189   4.850   2.790   6.245
    1   AR   Ar  190   3.504   5.902   4.033
    1   AR   Ar  191   2.247   6.391   7.188
    1   AR   Ar  192   4.582   6.031   5.603
    1   AR   Ar  193   3.180   6.346   0.994
    1   AR   Ar  194   5.076   3.655  -0.559
    1   AR   Ar  195   5.861   1.358   0.587
    1   AR   Ar  196   3.999   1.345  -0.552
    1   AR   Ar  197   3.680   1.325   0.812
    1   AR   Ar  198   5.724   0.668   1.754
    1   AR   Ar  199   2.589   0.470   2.830
    1   AR   Ar  200   5.424   2.795   0.263
    1   AR   Ar  201   5.703   6.161   3.200
    1   AR   Ar  202   5.354   1.377   4.431
    1   AR   Ar  203   0.134   6.865   3.287
    1   AR   Ar  204   5.567   5.811   5.789
    1   AR   Ar  205   6.942   0.635   1.471
    1   AR   Ar  206   5.951   0.141   5.243
    1   AR   Ar  207   0.839   2.554   5.351
    1   AR   Ar  208   0.624   6.312   4.341
    1   AR   Ar  209   0.042   2.384  -1.861
    1   AR   Ar  210   2.245   0.189   1.029
    1   AR   Ar  211   6.794   3.087   0.941
    1   AR   Ar  212   6.638   3.698  -0.132
    1   AR   Ar  213   2.393   0.819   1.846
    1   AR   Ar  214   4.464   3.637   2.317
    1   AR   Ar  215   6.089   3.247   2.499
    1   AR   Ar  216   0.941   2.695   1.178
    1   AR   Ar  217   4.919   2.145   3.613
    1   AR   Ar  218   4.812   3.512   4.195
    1   AR   Ar  219   4.267   2.936   3.220
    1   AR   Ar  220   4.017   3.178   1.360
    1   AR   Ar  221   6.555   5.505   3.622
    1   AR   Ar  222   5.192   6.737   6.138
    1   AR   Ar  223   6.269   1.650   6.606
    1   AR   Ar  224   4.825   2.457   5.215
    1   AR   Ar  225   6.301   2.969   3.474
    1   AR   Ar  226   1.764   3.085   2.882
    1   AR   Ar  227   6.795   3.820   2.067
    1   AR   Ar  228   5.697   6.642   1.511
    1   AR   Ar  229   5.267   5.672  -1.522
    1   AR   Ar  230   3.710   3.814   3.871
    1   AR   Ar  231   5.138   1.472   2.680
    1   AR   Ar  232   5.033   2.525   1.635
    1   AR   Ar  233   6.458   2.002   3.810
    1   AR   Ar  234   5.843   2.513   4.484
    1   AR   Ar  235   6.892   1.069   4.002
    1   AR   Ar  236   4.824   4.990   5.506
    1   AR   Ar  237   5.835   2.581   6.870
    1   AR   Ar  238   5.804   4.054   6.272
    1   AR   Ar  239   0.295   4.735   9.751
    1   AR   Ar  240   6.674   2.900   7.522
    1   AR   Ar  241   1.784   6.014  -1.149
    1   AR   Ar  242   5.651   5.962   0.601
    1   AR   Ar  243   4.559   5.627   2.972
    1   AR   Ar  244   0.880   5.198   0.520
    1   AR   Ar  245   3.456   0.872   1.906
    1   AR   Ar  246   5.530   6.425  -0.528
    1   AR   Ar  247   5.993   3.875   1.095
    1   AR   Ar  248   5.685   5.185  -0.447
    1   AR   Ar  249   4.311   6.340   1.230
    1   AR   Ar  250   4.793   5.767   4.398
    1   AR   Ar  251   5.029   4.523   4.425
    1   AR   Ar  252   3.432   5.191   3.316
    1   AR   Ar  253   6.791   3.564   6.668
    1   AR   Ar  254   3.063   2.000   9.488
    1   AR   Ar  255   3.851   5.524   9.891
    1   AR   Ar  256   5.905   4.570   3.693
    7.12000  7.12000 12.00000
Argon-slab step 4020
  256
    1   AR   Ar    1   4.690   2.386  -2.524
    1   AR   Ar    2   6.434   0.324   0.658
    1   AR   Ar    3   4.105   2.230  -1.680
    1   AR   Ar    4   1.931   0.796  -0.352
    1   AR   Ar    5   6.821   6.219   0.827
    1   AR   Ar    6   0.671   1.962   2.157
    1   AR   Ar    7   5.255   3.525   3.234
    1   AR   Ar    8   4.756   1.220   0.181
    1   AR   Ar    9   1.174   6.880   3.599
    1   AR   Ar   10   0.263   0.187   4.234
    1   AR   Ar   11   1.997   0.108   4.057
    1   AR   Ar   12   0.824   1.064   3.329
    1   AR   Ar   13   7.053   0.604   5.186
    1   AR   Ar   14   4.675   1.138   7.563
    1   AR   Ar   15   3.187   6.404   8.630
    1   AR   Ar   16   0.838   7.097   5.227
    1   AR   Ar   17   6.218   2.292   0.700
    1   AR   Ar   18   6.342   4.588  -1.009
    1   AR   Ar   19   3.574   3.338   0.049
    1   AR   Ar   20   6.526   4.665  -2.813
    1   AR   Ar   21   2.672   1.849   1.856
    1   AR   Ar   22   6.913   1.384   2.861
    1   AR   Ar   23   0.510   6.980   0.512
    1   AR   Ar   24   5.409   2.489   2.766
    1   AR   Ar   25   0.357   1.884   4.280
    1   AR   Ar   26   6.219   6.670   3.972
    1   AR   Ar   27   1.732   1.229   2.499
    1   AR   Ar   28   1.047   2.769   3.970
    1   AR   Ar   29   5.932   1.539   7.680
    1   AR   Ar   30   1.997   1.035   3.472
    1   AR   Ar   31   3.361   6.909   7.619
    1   AR   Ar   32   0.772   2.465   6.557
    1   AR   Ar   33   0.740   4.077  -0.382
    1   AR   Ar   34   0.358   4.664   2.597
    1   AR   Ar   35   6.098   5.681   1.424
    1   AR   Ar   36   6.111   2.538  -2.484
    1   AR   Ar   37   4.258   2.349   2.191
    1   AR   Ar   38   6.540   4.178   3.018
    1   AR   Ar   39   0.662   3.662   3.109
    1   AR   Ar   40   1.868   4.322   1.717
    1   AR   Ar   41   0.273   2.366   3.174
    1   AR   Ar   42   5.926   5.088   4.882
    1   AR   Ar   43   6.966   2.449   6.081
    1   AR   Ar   44   0.357   4.658   3.591
    1   AR   Ar   45   0.554   3.557   5.952
    1   AR   Ar   46   0.238   4.841   4.887
    1   AR   Ar   47   4.116   4.209   7.379
    1   AR   Ar   48   5.918   3.581   7.250
    1   AR   Ar   49   5.340   0.058  -1.478
    1   AR   Ar   50   3.995   5.147   0.152
    1   AR   Ar   51   5.870   4.577   1.882
    1   AR   Ar   52   5.233   3.102  -1.949
    1   AR   Ar   53   5.163   6.594   2.465
    1   AR   Ar   54   0.714   6.334   2.403
    1   AR   Ar   55   6.155   5.360   2.531
    1   AR   Ar   56   6.664   0.165   2.453
    1   AR   Ar   57   4.480   4.298   3.385
    1   AR   Ar   58   6.999   3.402   4.036
    1   AR   Ar   59   2.389   5.008   5.662
    1   AR   Ar   60   0.843   5.833   3.371
    1   AR   Ar   61   0.264   4.615   6.893
    1   AR   Ar   62   6.720   4.325   4.417
    1   AR   Ar   63   1.133   1.121   6.707
    1   AR   Ar   64   0.945   5.824   5.135
    1   AR   Ar   65   4.103   0.369   1.056
    1   AR   Ar   66   0.676   1.244   1.038
    1   AR   Ar   67   4.458   7.001  -0.838
    1   AR   Ar   68   0.962   1.045  -0.971
    1   AR   Ar   69   2.941   1.429  -0.279
    1   AR   Ar   70   0.745   0.932   2.041
    1   AR   Ar   71   3.037   1.388   3.402
    1   AR   Ar   72   4.379   0.131   2.242
    1   AR   Ar   73   4.040   0.721   3.690
    1   AR   Ar   74   1.199   1.080   4.327
    1   AR   Ar   75   2.924   0.651   4.691
    1   AR   Ar   76   1.247   7.110   1.742
    1   AR   Ar   77   2.352   6.817   4.982
    1   AR   Ar   78   0.123   5.860   5.775
    1   AR   Ar   79   3.731   6.507   6.497
    1   AR   Ar   80   3.918   5.392   5.175
    1   AR   Ar   81   2.204   6.480  -0.211
    1   AR   Ar   82   6.908   5.090   0.558
    1   AR   Ar   83   1.605   2.624  -0.526
    1   AR   Ar   84   0.694   4.230   1.197
    1   AR   Ar   85   1.829   3.287   0.804
    1   AR   Ar   86   2.274   5.444   0.941
    1   AR   Ar   87   2.168   3.069   1.796
    1   AR   Ar   88   2.957   5.049   1.668
    1   AR   Ar   89   6.944   2.740   2.124
    1   AR   Ar   90   3.171   1.771   4.448
    1   AR   Ar   91   1.391   1.923   3.293
    1   AR   Ar   92   1.120   3.510   1.837
    1   AR   Ar   93   1.097   1.068   5.352
    1   AR   Ar   94   0.661   6.231  10.949
    1   AR   Ar   95   4.735   0.938   5.533
    1   AR   Ar   96   3.051   6.864   4.166
    1   AR   Ar   97   3.496   2.394  -0.462
    1   AR   Ar   98   1.698   4.189   3.644
    1   AR   Ar   99   6.939   1.761   0.125
    1   AR   Ar  100   0.710   3.028  -1.163
    1   AR   Ar  101   3.918   6.104   2.340
    1   AR   Ar  102   3.917   1.285   2.734
    1   AR   Ar  103   2.065   4.513   0.567
    1   AR   Ar  104   3.336   4.757  -1.294
    1   AR   Ar  105   2.331   1.980   4.004
    1   AR   Ar  106   4.024   3.207   5.520
    1   AR   Ar  107   0.834   3.987   5.063
    1   AR   Ar  108   2.009   1.165   5.038
    1   AR   Ar  109   1.574   3.319   4.708
    1   AR   Ar  110   2.599   2.550   4.973
    1   AR   Ar  111   4.945   5.618   7.033
    1   AR   Ar  112   1.320   5.598   6.388
    1   AR   Ar  113   3.912   4.109  -0.688
    1   AR   Ar  114   1.830   0.033  -1.051
    1   AR   Ar  115   1.913   5.435  -0.148
    1   AR   Ar  116   6.173   0.548  -0.898
    1   AR   Ar  117   1.137   5.085   4.162
    1   AR   Ar  118   1.851   5.099   2.974
    1   AR   Ar  119   2.586   4.359   2.586
    1   AR   Ar  120   1.811   6.225   1.544
    1   AR   Ar  121   5.369   4.082   5.409
    1   AR   Ar  122   2.926   5.866   4.990
    1   AR   Ar  123   3.252   4.242   5.550
    1   AR   Ar  124   1.265   5.100   1.445
    1   AR   Ar  125   6.848   2.993   5.069
    1   AR   Ar  126   6.609   6.448   5.137
    1   AR   Ar  127   4.188   3.933   6.330
    1   AR   Ar  128   3.243   3.404   6.306
    1   AR   Ar  129   1.653   6.027   3.823
    1   AR   Ar  130   4.805   1.627  -3.776
    1   AR   Ar  131   4.230   3.722  -1.993
    1   AR   Ar  132   0.961   1.705   0.197
    1   AR   Ar  133   4.402   6.857   3.501
    1   AR   Ar  134   4.169   1.077   4.666
    1   AR   Ar  135   5.953   0.890   2.976
    1   AR   Ar  136   6.251   6.374   2.320
    1   AR   Ar  137   1.829   4.216   5.011
    1   AR   Ar  138   5.567   0.669   6.350
    1   AR   Ar  139   6.009   2.499   5.566
    1   AR   Ar  140   4.028   7.104   4.799
    1   AR   Ar  141   3.873   4.848   4.170
    1   AR   Ar  142   4.255   0.126   6.043
    1   AR   Ar  143   6.820   6.390   6.754
    1   AR   Ar  144   6.831   1.771   5.166
    1   AR   Ar  145   4.387   4.868  -1.127
    1   AR   Ar  146   3.268   2.214   2.651
    1   AR   Ar  147   4.679   2.729  -0.953
    1   AR   Ar  148   2.994   6.709  -1.038
    1   AR   Ar  149   2.066   1.627  -1.002
    1   AR   Ar  150   2.297   2.090   2.830
    1   AR   Ar  151   2.963   2.965   3.638
    1   AR   Ar  152   1.603   2.467  -1.647
    1   AR   Ar  153   5.184   0.247   4.469
    1   AR   Ar  154   3.751   2.085   3.463
    1   AR   Ar  155   6.885   4.025   5.472
    1   AR   Ar  156   2.713   4.545   3.691
    1   AR   Ar  157   1.384   4.162   5.992
    1   AR   Ar  158   0.258   1.419   6.262
    1   AR   Ar  159   3.519   1.172   6.397
    1   AR   Ar  160   1.579   2.204   4.734
    1   AR   Ar  161   5.337   4.676   2.928
    1   AR   Ar  162   4.275   5.983  -0.462
    1   AR   Ar  163   6.036   4.440   0.155
    1   AR   Ar  164   2.617   5.751   2.305
    1   AR   Ar  165   4.489   2.613   0.483
    1   AR   Ar  166   2.665   3.670   4.397
    1   AR   Ar  167   5.347   0.033   3.455
    1   AR   Ar  168   5.072   4.171  -1.432
    1   AR   Ar  169   3.642   4.206   2.840
    1   AR   Ar  170   2.261   3.485   5.709
    1   AR   Ar  171   5.871   3.574   4.398
    1   AR   Ar  172   4.168   4.227   4.993
    1   AR   Ar  173   1.856   2.293   6.482
    1   AR   Ar  174   2.390   6.055   6.202
    1   AR   Ar  175   4.043   1.732   5.351
    1   AR   Ar  176   3.706   2.767   4.653
    1   AR   Ar  177   0.837   5.046  -0.842
    1   AR   Ar  178   3.293   6.015   0.091
    1   AR   Ar  179   2.986   0.150   0.322
    1   AR   Ar  180   4.772   0.480  -4.128
    1   AR   Ar  181   7.044   5.375   1.842
    1   AR   Ar  182   1.816   6.669   2.773
    1   AR   Ar  183   4.753   5.183   2.006
    1   AR   Ar  184   4.723   6.835   0.347
    1   AR   Ar  185   3.024   4.783   4.738
    1   AR   Ar  186   2.705   5.952   3.426
    1   AR   Ar  187   3.252   6.723   3.134
    1   AR   Ar  188   2.992   6.730   2.070
    1   AR   Ar  189   4.883   2.828   6.243
    1   AR   Ar  190   3.487   5.898   4.032
    1   AR   Ar  191   2.233   6.406   7.165
    1   AR   Ar  192   4.597   6.032   5.611
    1   AR   Ar  193   3.189   6.361   0.984
    1   AR   Ar  194   5.111   3.653  -0.547
    1   AR   Ar  195   5.849   1.344   0.629
    1   AR   Ar  196   3.989   1.337  -0.545
    1   AR   Ar  197   3.716   1.324   0.828
    1   AR   Ar  198   5.692   0.633   1.803
    1   AR   Ar  199   2.569   0.481   2.847
    1   AR   Ar  200   5.391   2.806   0.275
    1   AR   Ar  201   5.704   6.161   3.193
    1   AR   Ar  202   5.355   1.351   4.426
    1   AR   Ar  203   0.127   6.846   3.311
    1   AR   Ar  204   5.596   5.791   5.803
    1   AR   Ar  205   6.939   0.688   1.464
    1   AR   Ar  206   5.949   0.135   5.226
    1   AR   Ar  207   0.836   2.506   5.360
    1   AR   Ar  208   0.609   6.327   4.355
    1   AR   Ar  209   0.058   2.371  -1.862
    1   AR   Ar  210   2.257   0.177   1.040
    1   AR   Ar  211   6.792   3.046   0.923
    1   AR   Ar  212   6.621   3.678  -0.107
    1   AR   Ar  213   2.390   0.805   1.858
    1   AR   Ar  214   4.456   3.675   2.326
    1   AR   Ar  215   6.081   3.232   2.511
    1   AR   Ar  216   0.960   2.702   1.150
    1   AR   Ar  217   4.931   2.144   3.577
    1   AR   Ar  218   4.816   3.501   4.213
    1   AR   Ar  219   4.260   2.914   3.225
    1   AR   Ar  220   4.008   3.187   1.365
    1   AR   Ar  221   6.584   5.528   3.643
    1   AR   Ar  222   5.196   6.735   6.139
    1   AR   Ar  223   6.278   1.649   6.612
    1   AR   Ar  224   4.821   2.467   5.179
    1   AR   Ar  225   6.314   2.978   3.502
    1   AR   Ar  226   1.762   3.095   2.876
    1   AR   Ar  227   6.784   3.827   2.102
    1   AR   Ar  228   5.699   6.660   1.504
    1   AR   Ar  229   5.279   5.713  -1.519
    1   AR   Ar  230   3.701   3.815   3.861
    1   AR   Ar  231   5.112   1.456   2.658
    1   AR   Ar  232   5.096   2.504   1.600
    1   AR   Ar  233   6.422   2.002   3.802
    1   AR   Ar  234   5.814   2.505   4.446
    1   AR   Ar  235   6.938   1.052   3.984
    1   AR   Ar  236   4.826   4.996   5.505
    1   AR   Ar  237   5.817   2.559   6.876
    1   AR   Ar  238   5.812   4.056   6.274
    1   AR   Ar  239   0.311   4.720   9.717
    1   AR   Ar  240   6.693   2.903   7.520
    1   AR   Ar  241   1.777   5.987  -1.135
    1   AR   Ar  242   5.656   5.957   0.636
    1   AR   Ar  243   4.557   5.615   2.950
    1   AR   Ar  244   0.864   5.195   0.513
    1   AR   Ar  245   3.441   0.896   1.914
    1   AR   Ar  246   5.539   6.392  -0.539
    1   AR   Ar  247   5.998   3.881   1.117
    1   AR   Ar  248   5.656   5.202  -0.434
    1   AR   Ar  249   4.283   6.322   1.237
    1   AR   Ar  250   4.763   5.760   4.403
    1   AR   Ar  251   4.980   4.546   4.424
    1   AR   Ar  252   3.433   5.220   3.312
    1   AR   Ar  253   6.773   3.522   6.629
    1   AR   Ar  254   3.082   1.987   9.499
    1   AR   Ar  255   3.819   5.505   9.887
    1   AR   Ar  256   5.918   4.587   3.721
    7.12000  7.12000 12.00000
Argon-slab step 4025
  256
    1   AR   Ar    1   4.666   2.405  -2.544
    1   AR   Ar    2   6.428   0.320   0.605
    1   AR   Ar    3   4.098   2.219  -1.717
    1   AR   Ar    4   1.919   0.785  -0.351
    1   AR   Ar    5   6.815   6.213   0.827
    1   AR   Ar    6   0.656   1.965   2.161
    1   AR   Ar    7   5.276   3.519   3.246
    1   AR   Ar    8   4.734   1.235   0.188
    1   AR   Ar    9   1.163   6.898   3.570
    1   AR   Ar   10   0.267   0.171   4.271
    1   AR   Ar   11   1.984   0.105   4.061
    1   AR   Ar   12   0.852   1.041   3.303
    1   AR   Ar   13   7.056   0.605   5.208
    1   AR   Ar   14   4.702   1.115   7.562
    1   AR   Ar   15   3.193   6.435   8.620
    1   AR   Ar   16   0.844   7.099   5.207
    1   AR   Ar   17   6.225   2.260   0.717
    1   AR   Ar   18   6.357   4.626  -0.984
    1   AR   Ar   19   3.586   3.378   0.034
    1   AR   Ar   20   6.562   4.639  -2.791
    1   AR   Ar   21   2.675   1.863   1.851
    1   AR   Ar   22   6.915   1.389   2.831
    1   AR   Ar   23   0.490   6.971   0.525
    1   AR   Ar   24   5.384   2.551   2.786
    1   AR   Ar   25   0.371   1.896   4.295
    1   AR   Ar   26   6.216   6.644   3.980
    1   AR   Ar   27   1.702   1.233   2.506
    1   AR   Ar   28   1.060   2.762   3.955
    1   AR   Ar   29   5.973   1.513   7.696
    1   AR   Ar   30   1.989   1.024   3.492
    1   AR   Ar   31   3.365   6.893   7.628
    1   AR   Ar   32   0.770   2.465   6.547
    1   AR   Ar   33   0.738   4.063  -0.423
    1   AR   Ar   34   0.371   4.676   2.582
    1   AR   Ar   35   6.080   5.673   1.459
    1   AR   Ar   36   6.121   2.551  -2.476
    1   AR   Ar   37   4.256   2.338   2.199
    1   AR   Ar   38   6.585   4.153   3.045
    1   AR   Ar   39   0.650   3.669   3.084
    1   AR   Ar   40   1.892   4.350   1.712
    1   AR   Ar   41   0.308   2.370   3.163
    1   AR   Ar   42   5.980   5.068   4.862
    1   AR   Ar   43   6.973   2.428   6.070
    1   AR   Ar   44   0.343   4.681   3.583
    1   AR   Ar   45   0.531   3.528   5.961
    1   AR   Ar   46   0.239   4.858   4.893
    1   AR   Ar   47   4.088   4.228   7.389
    1   AR   Ar   48   5.921   3.547   7.285
    1   AR   Ar   49   5.377   0.080  -1.475
    1   AR   Ar   50   3.980   5.111   0.171
    1   AR   Ar   51   5.866   4.608   1.839
    1   AR   Ar   52   5.249   3.074  -1.941
    1   AR   Ar   53   5.160   6.589   2.439
    1   AR   Ar   54   0.720   6.356   2.413
    1   AR   Ar   55   6.159   5.348   2.506
    1   AR   Ar   56   6.679   0.199   2.477
    1   AR   Ar   57   4.487   4.266   3.373
    1   AR   Ar   58   7.022   3.408   4.035
    1   AR   Ar   59   2.368   5.028   5.667
    1   AR   Ar   60   0.830   5.837   3.358
    1   AR   Ar   61   0.276   4.598   6.909
    1   AR   Ar   62   6.690   4.331   4.416
    1   AR   Ar   63   1.103   1.127   6.722
    1   AR   Ar   64   0.893   5.807   5.113
    1   AR   Ar   65   4.080   0.350   1.035
    1   AR   Ar   66   0.714   1.253   1.032
    1   AR   Ar   67   4.471   7.033  -0.872
    1   AR   Ar   68   0.985   1.001  -0.949
    1   AR   Ar   69   2.943   1.408  -0.296
    1   AR   Ar   70   0.745   0.949   2.071
    1   AR   Ar   71   3.013   1.379   3.365
    1   AR   Ar   72   4.422   0.118   2.227
    1   AR   Ar   73   4.007   0.744   3.687
    1   AR   Ar   74   1.180   1.065   4.314
    1   AR   Ar   75   2.954   0.670   4.680
    1   AR   Ar   76   1.230   7.107   1.708
    1   AR   Ar   77   2.346   6.814   5.002
    1   AR   Ar   78   0.105   5.886   5.762
    1   AR   Ar   79   3.731   6.496   6.521
    1   AR   Ar   80   3.958   5.386   5.180
    1   AR   Ar   81   2.190   6.485  -0.230
    1   AR   Ar   82   6.886   5.046   0.540
    1   AR   Ar   83   1.604   2.666  -0.578
    1   AR   Ar   84   0.717   4.235   1.181
    1   AR   Ar   85   1.837   3.292   0.795
    1   AR   Ar   86   2.233   5.435   0.954
    1   AR   Ar   87   2.150   3.062   1.824
    1   AR   Ar   88   2.941   5.056   1.674
    1   AR   Ar   89   6.934   2.721   2.126
    1   AR   Ar   90   3.163   1.760   4.441
    1   AR   Ar   91   1.406   1.938   3.311
    1   AR   Ar   92   1.126   3.515   1.867
    1   AR   Ar   93   1.075   1.050   5.343
    1   AR   Ar   94   0.690   6.245  10.938
    1   AR   Ar   95   4.725   0.949   5.521
    1   AR   Ar   96   3.061   6.871   4.164
    1   AR   Ar   97   3.518   2.404  -0.454
    1   AR   Ar   98   1.707   4.174   3.633
    1   AR   Ar   99   6.936   1.787   0.144
    1   AR   Ar  100   0.718   3.042  -1.173
    1   AR   Ar  101   3.927   6.108   2.336
    1   AR   Ar  102   3.945   1.307   2.703
    1   AR   Ar  103   2.082   4.483   0.549
    1   AR   Ar  104   3.346   4.781  -1.290
    1   AR   Ar  105   2.311   1.958   4.002
    1   AR   Ar  106   4.046   3.174   5.550
    1   AR   Ar  107   0.813   3.973   5.070
    1   AR   Ar  108   2.005   1.164   5.039
    1   AR   Ar  109   1.565   3.314   4.697
    1   AR   Ar  110   2.613   2.548   4.955
    1   AR   Ar  111   4.910   5.598   7.039
    1   AR   Ar  112   1.289   5.588   6.381
    1   AR   Ar  113   3.899   4.086  -0.713
    1   AR   Ar  114   1.819   0.049  -1.032
    1   AR   Ar  115   1.910   5.428  -0.123
    1   AR   Ar  116   6.173   0.555  -0.925
    1   AR   Ar  117   1.126   5.112   4.129
    1   AR   Ar  118   1.843   5.113   2.987
    1   AR   Ar  119   2.598   4.337   2.605
    1   AR   Ar  120   1.808   6.232   1.557
    1   AR   Ar  121   5.369   4.087   5.406
    1   AR   Ar  122   2.926   5.827   4.964
    1   AR   Ar  123   3.239   4.200   5.577
    1   AR   Ar  124   1.280   5.140   1.458
    1   AR   Ar  125   6.843   2.981   5.039
    1   AR   Ar  126   6.607   6.471   5.139
    1   AR   Ar  127   4.171   3.946   6.352
    1   AR   Ar  128   3.210   3.435   6.305
    1   AR   Ar  129   1.656   5.999   3.858
    1   AR   Ar  130   4.818   1.636  -3.789
    1   AR   Ar  131   4.188   3.739  -2.033
    1   AR   Ar  132   0.968   1.722   0.178
    1   AR   Ar  133   4.389   6.844   3.521
    1   AR   Ar  134   4.178   1.067   4.656
    1   AR   Ar  135   5.949   0.884   2.991
    1   AR   Ar  136   6.225   6.329   2.368
    1   AR   Ar  137   1.828   4.230   5.064
    1   AR   Ar  138   5.580   0.682   6.345
    1   AR   Ar  139   5.961   2.518   5.574
    1   AR   Ar  140   4.061   0.004   4.812
    1   AR   Ar  141   3.860   4.847   4.173
    1   AR   Ar  142   4.269   0.142   6.017
    1   AR   Ar  143   6.864   6.374   6.769
    1   AR   Ar  144   6.812   1.733   5.147
    1   AR   Ar  145   4.383   4.871  -1.117
    1   AR   Ar  146   3.272   2.220   2.680
    1   AR   Ar  147   4.659   2.734  -0.965
    1   AR   Ar  148   2.975   6.715  -1.055
    1   AR   Ar  149   2.038   1.653  -1.027
    1   AR   Ar  150   2.287   2.130   2.811
    1   AR   Ar  151   2.979   2.980   3.660
    1   AR   Ar  152   1.605   2.467  -1.646
    1   AR   Ar  153   5.220   0.263   4.469
    1   AR   Ar  154   3.740   2.098   3.482
    1   AR   Ar  155   6.893   4.035   5.493
    1   AR   Ar  156   2.735   4.549   3.682
    1   AR   Ar  157   1.370   4.129   5.989
    1   AR   Ar  158   0.274   1.434   6.262
    1   AR   Ar  159   3.511   1.165   6.406
    1   AR   Ar  160   1.599   2.185   4.713
    1   AR   Ar  161   5.321   4.677   2.946
    1   AR   Ar  162   4.273   5.953  -0.433
    1   AR   Ar  163   6.006   4.441   0.150
    1   AR   Ar  164   2.628   5.775   2.296
    1   AR   Ar  165   4.473   2.592   0.475
    1   AR   Ar  166   2.655   3.686   4.394
    1   AR   Ar  167   5.373   0.026   3.475
    1   AR   Ar  168   5.064   4.181  -1.441
    1   AR   Ar  169   3.629   4.180   2.845
    1   AR   Ar  170   2.258   3.461   5.744
    1   AR   Ar  171   5.910   3.598   4.407
    1   AR   Ar  172   4.209   4.240   4.982
    1   AR   Ar  173   1.874   2.262   6.468
    1   AR   Ar  174   2.384   6.067   6.175
    1   AR   Ar  175   4.051   1.726   5.362
    1   AR   Ar  176   3.673   2.786   4.647
    1   AR   Ar  177   0.835   5.047  -0.826
    1   AR   Ar  178   3.274   6.035   0.105
    1   AR   Ar  179   3.014   0.143   0.303
    1   AR   Ar  180   4.799   0.500  -4.127
    1   AR   Ar  181   7.033   5.379   1.823
    1   AR   Ar  182   1.853   6.660   2.789
    1   AR   Ar  183   4.790   5.180   1.999
    1   AR   Ar  184   4.736   6.818   0.370
    1   AR   Ar  185   3.071   4.787   4.750
    1   AR   Ar  186   2.697   5.959   3.386
    1   AR   Ar  187   3.245   6.708   3.126
    1   AR   Ar  188   2.991   6.719   2.090
    1   AR   Ar  189   4.917   2.867   6.240
    1   AR   Ar  190   3.476   5.895   4.041
    1   AR   Ar  191   2.221   6.432   7.146
    1   AR   Ar  192   4.577   6.061   5.618
    1   AR   Ar  193   3.195   6.383   0.991
    1   AR   Ar  194   5.145   3.649  -0.528
    1   AR   Ar  195   5.834   1.324   0.671
    1   AR   Ar  196   3.977   1.330  -0.540
    1   AR   Ar  197   3.751   1.325   0.842
    1   AR   Ar  198   5.665   0.600   1.845
    1   AR   Ar  199   2.553   0.488   2.862
    1   AR   Ar  200   5.380   2.824   0.282
    1   AR   Ar  201   5.707   6.152   3.193
    1   AR   Ar  202   5.347   1.347   4.451
    1   AR   Ar  203   0.119   6.830   3.324
    1   AR   Ar  204   5.628   5.768   5.816
    1   AR   Ar  205   6.937   0.743   1.462
    1   AR   Ar  206   5.945   0.133   5.211
    1   AR   Ar  207   0.826   2.460   5.373
    1   AR   Ar  208   0.590   6.345   4.360
    1   AR   Ar  209   0.066   2.359  -1.883
    1   AR   Ar  210   2.265   0.161   1.053
    1   AR   Ar  211   6.799   3.017   0.910
    1   AR   Ar  212   6.610   3.649  -0.085
    1   AR   Ar  213   2.386   0.788   1.858
    1   AR   Ar  214   4.450   3.711   2.337
    1   AR   Ar  215   6.069   3.243   2.522
    1   AR   Ar  216   0.976   2.707   1.122
    1   AR   Ar  217   4.940   2.139   3.550
    1   AR   Ar  218   4.816   3.487   4.233
    1   AR   Ar  219   4.257   2.902   3.228
    1   AR   Ar  220   4.001   3.195   1.371
    1   AR   Ar  221   6.613   5.550   3.664
    1   AR   Ar  222   5.202   6.735   6.142
    1   AR   Ar  223   6.289   1.646   6.615
    1   AR   Ar  224   4.820   2.479   5.141
    1   AR   Ar  225   6.316   2.984   3.523
    1   AR   Ar  226   1.760   3.106   2.871
    1   AR   Ar  227   6.778   3.834   2.131
    1   AR   Ar  228   5.697   6.682   1.490
    1   AR   Ar  229   5.289   5.738  -1.517
    1   AR   Ar  230   3.688   3.813   3.856
    1   AR   Ar  231   5.083   1.441   2.634
    1   AR   Ar  232   5.116   2.516   1.603
    1   AR   Ar  233   6.391   1.994   3.790
    1   AR   Ar  234   5.781   2.498   4.411
    1   AR   Ar  235   6.980   1.037   3.962
    1   AR   Ar  236   4.832   5.001   5.503
    1   AR   Ar  237   5.798   2.540   6.881
    1   AR   Ar  238   5.828   4.058   6.288
    1   AR   Ar  239   0.326   4.706   9.683
    1   AR   Ar  240   6.710   2.909   7.512
    1   AR   Ar  241   1.783   5.993  -1.102
    1   AR   Ar  242   5.650   5.959   0.649
    1   AR   Ar  243   4.561   5.600   2.938
    1   AR   Ar  244   0.847   5.191   0.500
    1   AR   Ar  245   3.426   0.918   1.918
    1   AR   Ar  246   5.546   6.359  -0.550
    1   AR   Ar  247   6.005   3.883   1.137
    1   AR   Ar  248   5.622   5.224  -0.422
    1   AR   Ar  249   4.255   6.305   1.245
    1   AR   Ar  250   4.731   5.751   4.409
    1   AR   Ar  251   4.934   4.573   4.420
    1   AR   Ar  252   3.437   5.242   3.293
    1   AR   Ar  253   6.758   3.480   6.586
    1   AR   Ar  254   3.101   1.973   9.511
    1   AR   Ar  255   3.788   5.486   9.883
    1   AR   Ar  256   5.933   4.605   3.763
    7.12000  7.12000 12.00000
Argon-slab step 4030
  256
    1   AR   Ar    1   4.644   2.424  -2.571
    1   AR   Ar    2   6.421   0.314   0.551
    1   AR   Ar    3   4.087   2.207  -1.749
    1   AR   Ar    4   1.909   0.780  -0.343
    1   AR   Ar    5   6.808   6.207   0.827
    1   AR   Ar    6   0.641   1.972   2.165
    1   AR   Ar    7   5.298   3.514   3.260
    1   AR   Ar    8   4.714   1.249   0.199
    1   AR   Ar    9   1.145   6.917   3.538
    1   AR   Ar   10   0.273   0.157   4.310
    1   AR   Ar   11   1.977   0.104   4.068
    1   AR   Ar   12   0.876   1.014   3.274
    1   AR   Ar   13   7.059   0.608   5.231
    1   AR   Ar   14   4.729   1.093   7.559
    1   AR   Ar   15   3.199   6.465   8.610
    1   AR   Ar   16   0.852   7.099   5.185
    1   AR   Ar   17   6.222   2.224   0.735
    1   AR   Ar   18   6.372   4.663  -0.958
    1   AR   Ar   19   3.598   3.417   0.022
    1   AR   Ar   20   6.598   4.613  -2.768
    1   AR   Ar   21   2.677   1.876   1.844
    1   AR   Ar   22   6.918   1.393   2.801
    1   AR   Ar   23   0.470   6.964   0.539
    1   AR   Ar   24   5.360   2.612   2.797
    1   AR   Ar   25   0.388   1.912   4.310
    1   AR   Ar   26   6.215   6.620   3.990
    1   AR   Ar   27   1.670   1.239   2.512
    1   AR   Ar   28   1.071   2.755   3.937
    1   AR   Ar   29   6.006   1.485   7.726
    1   AR   Ar   30   1.975   1.017   3.520
    1   AR   Ar   31   3.368   6.876   7.634
    1   AR   Ar   32   0.771   2.466   6.537
    1   AR   Ar   33   0.735   4.047  -0.463
    1   AR   Ar   34   0.384   4.687   2.556
    1   AR   Ar   35   6.068   5.658   1.509
    1   AR   Ar   36   6.131   2.564  -2.467
    1   AR   Ar   37   4.253   2.327   2.210
    1   AR   Ar   38   6.629   4.130   3.082
    1   AR   Ar   39   0.636   3.675   3.060
    1   AR   Ar   40   1.919   4.374   1.706
    1   AR   Ar   41   0.342   2.373   3.154
    1   AR   Ar   42   5.973   5.084   4.853
    1   AR   Ar   43   6.975   2.410   6.055
    1   AR   Ar   44   0.325   4.702   3.583
    1   AR   Ar   45   0.518   3.533   5.976
    1   AR   Ar   46   0.251   4.886   4.904
    1   AR   Ar   47   4.062   4.262   7.413
    1   AR   Ar   48   5.919   3.516   7.321
    1   AR   Ar   49   5.393   0.077  -1.460
    1   AR   Ar   50   3.965   5.075   0.190
    1   AR   Ar   51   5.860   4.641   1.799
    1   AR   Ar   52   5.264   3.047  -1.931
    1   AR   Ar   53   5.158   6.579   2.413
    1   AR   Ar   54   0.726   6.380   2.423
    1   AR   Ar   55   6.163   5.327   2.487
    1   AR   Ar   56   6.694   0.235   2.500
    1   AR   Ar   57   4.498   4.234   3.367
    1   AR   Ar   58   7.058   3.419   4.040
    1   AR   Ar   59   2.341   5.044   5.674
    1   AR   Ar   60   0.804   5.837   3.338
    1   AR   Ar   61   0.285   4.561   6.930
    1   AR   Ar   62   6.654   4.332   4.412
    1   AR   Ar   63   1.074   1.131   6.733
    1   AR   Ar   64   0.850   5.781   5.099
    1   AR   Ar   65   4.057   0.325   1.016
    1   AR   Ar   66   0.750   1.258   1.032
    1   AR   Ar   67   4.483   7.064  -0.903
    1   AR   Ar   68   1.010   0.958  -0.926
    1   AR   Ar   69   2.907   1.417  -0.294
    1   AR   Ar   70   0.743   0.959   2.103
    1   AR   Ar   71   2.987   1.367   3.326
    1   AR   Ar   72   4.457   0.112   2.210
    1   AR   Ar   73   3.971   0.767   3.679
    1   AR   Ar   74   1.161   1.051   4.297
    1   AR   Ar   75   2.983   0.690   4.670
    1   AR   Ar   76   1.220   7.100   1.676
    1   AR   Ar   77   2.341   6.810   5.024
    1   AR   Ar   78   0.084   5.910   5.753
    1   AR   Ar   79   3.730   6.483   6.546
    1   AR   Ar   80   3.985   5.378   5.177
    1   AR   Ar   81   2.179   6.493  -0.247
    1   AR   Ar   82   6.861   5.003   0.524
    1   AR   Ar   83   1.602   2.707  -0.628
    1   AR   Ar   84   0.739   4.241   1.163
    1   AR   Ar   85   1.844   3.299   0.787
    1   AR   Ar   86   2.193   5.429   0.967
    1   AR   Ar   87   2.133   3.054   1.853
    1   AR   Ar   88   2.927   5.056   1.676
    1   AR   Ar   89   6.925   2.702   2.127
    1   AR   Ar   90   3.161   1.786   4.419
    1   AR   Ar   91   1.417   1.955   3.331
    1   AR   Ar   92   1.132   3.518   1.899
    1   AR   Ar   93   1.042   1.037   5.350
    1   AR   Ar   94   0.708   6.263  10.915
    1   AR   Ar   95   4.723   0.958   5.512
    1   AR   Ar   96   3.070   6.877   4.162
    1   AR   Ar   97   3.542   2.412  -0.446
    1   AR   Ar   98   1.715   4.157   3.622
    1   AR   Ar   99   6.938   1.811   0.161
    1   AR   Ar  100   0.726   3.056  -1.183
    1   AR   Ar  101   3.931   6.117   2.328
    1   AR   Ar  102   3.976   1.332   2.677
    1   AR   Ar  103   2.098   4.450   0.531
    1   AR   Ar  104   3.354   4.806  -1.288
    1   AR   Ar  105   2.282   1.940   3.990
    1   AR   Ar  106   4.068   3.143   5.582
    1   AR   Ar  107   0.789   3.959   5.072
    1   AR   Ar  108   2.040   1.170   5.029
    1   AR   Ar  109   1.559   3.304   4.687
    1   AR   Ar  110   2.626   2.548   4.936
    1   AR   Ar  111   4.895   5.582   7.040
    1   AR   Ar  112   1.256   5.590   6.374
    1   AR   Ar  113   3.887   4.055  -0.736
    1   AR   Ar  114   1.807   0.059  -1.019
    1   AR   Ar  115   1.907   5.420  -0.096
    1   AR   Ar  116   6.165   0.561  -0.939
    1   AR   Ar  117   1.141   5.120   4.113
    1   AR   Ar  118   1.835   5.128   3.000
    1   AR   Ar  119   2.607   4.317   2.623
    1   AR   Ar  120   1.794   6.241   1.557
    1   AR   Ar  121   5.364   4.090   5.391
    1   AR   Ar  122   2.912   5.799   4.949
    1   AR   Ar  123   3.244   4.183   5.558
    1   AR   Ar  124   1.289   5.200   1.476
    1   AR   Ar  125   6.839   2.968   5.010
    1   AR   Ar  126   6.608   6.492   5.138
    1   AR   Ar  127   4.155   3.958   6.370
    1   AR   Ar  128   3.177   3.463   6.305
    1   AR   Ar  129   1.674   5.974   3.900
    1   AR   Ar  130   4.830   1.646  -3.803
    1   AR   Ar  131   4.148   3.756  -2.071
    1   AR   Ar  132   0.978   1.743   0.152
    1   AR   Ar  133   4.370   6.828   3.541
    1   AR   Ar  134   4.187   1.050   4.634
    1   AR   Ar  135   5.952   0.873   3.003
    1   AR   Ar  136   6.208   6.295   2.406
    1   AR   Ar  137   1.835   4.252   5.114
    1   AR   Ar  138   5.594   0.695   6.339
    1   AR   Ar  139   5.914   2.538   5.581
    1   AR   Ar  140   4.101   0.028   4.825
    1   AR   Ar  141   3.859   4.848   4.169
    1   AR   Ar  142   4.282   0.159   5.991
    1   AR   Ar  143   6.907   6.358   6.782
    1   AR   Ar  144   6.793   1.697   5.127
    1   AR   Ar  145   4.396   4.889  -1.097
    1   AR   Ar  146   3.272   2.232   2.687
    1   AR   Ar  147   4.638   2.739  -0.976
    1   AR   Ar  148   2.955   6.720  -1.071
    1   AR   Ar  149   2.010   1.678  -1.051
    1   AR   Ar  150   2.272   2.169   2.796
    1   AR   Ar  151   3.004   3.000   3.687
    1   AR   Ar  152   1.620   2.489  -1.641
    1   AR   Ar  153   5.250   0.281   4.470
    1   AR   Ar  154   3.742   2.103   3.529
    1   AR   Ar  155   6.883   4.036   5.496
    1   AR   Ar  156   2.758   4.553   3.675
    1   AR   Ar  157   1.358   4.100   5.991
    1   AR   Ar  158   0.282   1.453   6.254
    1   AR   Ar  159   3.505   1.159   6.414
    1   AR   Ar  160   1.616   2.164   4.692
    1   AR   Ar  161   5.307   4.681   2.955
    1   AR   Ar  162   4.273   5.925  -0.405
    1   AR   Ar  163   5.975   4.443   0.148
    1   AR   Ar  164   2.634   5.802   2.295
    1   AR   Ar  165   4.436   2.565   0.470
    1   AR   Ar  166   2.645   3.703   4.394
    1   AR   Ar  167   5.403   0.021   3.490
    1   AR   Ar  168   5.060   4.188  -1.453
    1   AR   Ar  169   3.609   4.155   2.848
    1   AR   Ar  170   2.254   3.437   5.777
    1   AR   Ar  171   5.948   3.621   4.416
    1   AR   Ar  172   4.240   4.246   4.981
    1   AR   Ar  173   1.892   2.231   6.452
    1   AR   Ar  174   2.379   6.077   6.143
    1   AR   Ar  175   4.052   1.732   5.383
    1   AR   Ar  176   3.640   2.805   4.636
    1   AR   Ar  177   0.835   5.052  -0.809
    1   AR   Ar  178   3.262   6.024   0.108
    1   AR   Ar  179   3.044   0.135   0.281
    1   AR   Ar  180   4.826   0.520  -4.126
    1   AR   Ar  181   7.025   5.384   1.805
    1   AR   Ar  182   1.892   6.650   2.802
    1   AR   Ar  183   4.829   5.178   1.990
    1   AR   Ar  184   4.738   6.802   0.394
    1   AR   Ar  185   3.107   4.790   4.765
    1   AR   Ar  186   2.670   5.955   3.348
    1   AR   Ar  187   3.250   6.705   3.115
    1   AR   Ar  188   2.991   6.713   2.106
    1   AR   Ar  189   4.945   2.905   6.235
    1   AR   Ar  190   3.473   5.896   4.061
    1   AR   Ar  191   2.209   6.460   7.130
    1   AR   Ar  192   4.558   6.095   5.627
    1   AR   Ar  193   3.197   6.413   1.018
    1   AR   Ar  194   5.180   3.644  -0.507
    1   AR   Ar  195   5.818   1.296   0.712
    1   AR   Ar  196   3.965   1.324  -0.536
    1   AR   Ar  197   3.784   1.329   0.855
    1   AR   Ar  198   5.657   0.577   1.856
    1   AR   Ar  199   2.543   0.488   2.873
    1   AR   Ar  200   5.387   2.849   0.284
    1   AR   Ar  201   5.706   6.136   3.203
    1   AR   Ar  202   5.338   1.345   4.475
    1   AR   Ar  203   0.115   6.832   3.302
    1   AR   Ar  204   5.662   5.744   5.828
    1   AR   Ar  205   6.936   0.799   1.463
    1   AR   Ar  206   5.939   0.135   5.200
    1   AR   Ar  207   0.813   2.416   5.389
    1   AR   Ar  208   0.569   6.361   4.354
    1   AR   Ar  209   0.074   2.348  -1.903
    1   AR   Ar  210   2.270   0.139   1.065
    1   AR   Ar  211   6.816   3.002   0.900
    1   AR   Ar  212   6.603   3.617  -0.063
    1   AR   Ar  213   2.377   0.773   1.847
    1   AR   Ar  214   4.447   3.744   2.349
    1   AR   Ar  215   6.062   3.260   2.524
    1   AR   Ar  216   0.991   2.709   1.094
    1   AR   Ar  217   4.943   2.127   3.535
    1   AR   Ar  218   4.813   3.473   4.252
    1   AR   Ar  219   4.243   2.948   3.239
    1   AR   Ar  220   3.994   3.201   1.377
    1   AR   Ar  221   6.648   5.525   3.639
    1   AR   Ar  222   5.212   6.738   6.145
    1   AR   Ar  223   6.302   1.641   6.616
    1   AR   Ar  224   4.820   2.491   5.102
    1   AR   Ar  225   6.304   2.989   3.536
    1   AR   Ar  226   1.757   3.118   2.867
    1   AR   Ar  227   6.780   3.843   2.145
    1   AR   Ar  228   5.695   6.706   1.475
    1   AR   Ar  229   5.298   5.739  -1.518
    1   AR   Ar  230   3.672   3.808   3.855
    1   AR   Ar  231   5.052   1.426   2.610
    1   AR   Ar  232   5.138   2.529   1.605
    1   AR   Ar  233   6.406   1.984   3.772
    1   AR   Ar  234   5.742   2.494   4.382
    1   AR   Ar  235   7.017   1.026   3.936
    1   AR   Ar  236   4.845   5.003   5.504
    1   AR   Ar  237   5.779   2.523   6.885
    1   AR   Ar  238   5.848   4.060   6.310
    1   AR   Ar  239   0.342   4.691   9.650
    1   AR   Ar  240   6.730   2.911   7.504
    1   AR   Ar  241   1.792   6.007  -1.065
    1   AR   Ar  242   5.636   5.967   0.645
    1   AR   Ar  243   4.569   5.583   2.933
    1   AR   Ar  244   0.832   5.188   0.483
    1   AR   Ar  245   3.411   0.937   1.917
    1   AR   Ar  246   5.550   6.326  -0.561
    1   AR   Ar  247   6.015   3.879   1.153
    1   AR   Ar  248   5.585   5.250  -0.413
    1   AR   Ar  249   4.228   6.288   1.255
    1   AR   Ar  250   4.698   5.741   4.416
    1   AR   Ar  251   4.901   4.606   4.408
    1   AR   Ar  252   3.458   5.232   3.278
    1   AR   Ar  253   6.743   3.438   6.540
    1   AR   Ar  254   3.120   1.960   9.522
    1   AR   Ar  255   3.756   5.468   9.879
    1   AR   Ar  256   5.952   4.615   3.796
    7.12000  7.12000 12.00000
Argon-slab step 4035
  256
    1   AR   Ar    1   4.627   2.445  -2.604
    1   AR   Ar    2   6.414   0.308   0.499
    1   AR   Ar    3   4.071   2.192  -1.776
    1   AR   Ar    4   1.901   0.782  -0.327
    1   AR   Ar    5   6.799   6.200   0.829
    1   AR   Ar    6   0.627   1.994   2.166
    1   AR   Ar    7   5.320   3.516   3.277
    1   AR   Ar    8   4.696   1.264   0.213
    1   AR   Ar    9   1.123   6.937   3.505
    1   AR   Ar   10   0.276   0.155   4.347
    1   AR   Ar   11   1.975   0.104   4.077
    1   AR   Ar   12   0.897   0.986   3.243
    1   AR   Ar   13   7.061   0.611   5.254
    1   AR   Ar   14   4.758   1.070   7.557
    1   AR   Ar   15   3.205   6.495   8.602
    1   AR   Ar   16   0.861   7.096   5.165
    1   AR   Ar   17   6.210   2.190   0.756
    1   AR   Ar   18   6.387   4.698  -0.931
    1   AR   Ar   19   3.611   3.452   0.014
    1   AR   Ar   20   6.634   4.586  -2.746
    1   AR   Ar   21   2.680   1.888   1.835
    1   AR   Ar   22   6.924   1.397   2.771
    1   AR   Ar   23   0.450   6.957   0.553
    1   AR   Ar   24   5.333   2.665   2.796
    1   AR   Ar   25   0.337   1.901   4.322
    1   AR   Ar   26   6.219   6.597   4.005
    1   AR   Ar   27   1.639   1.248   2.519
    1   AR   Ar   28   1.078   2.749   3.918
    1   AR   Ar   29   6.030   1.470   7.771
    1   AR   Ar   30   1.957   1.015   3.554
    1   AR   Ar   31   3.371   6.860   7.638
    1   AR   Ar   32   0.775   2.467   6.528
    1   AR   Ar   33   0.731   4.029  -0.501
    1   AR   Ar   34   0.397   4.698   2.526
    1   AR   Ar   35   6.055   5.644   1.560
    1   AR   Ar   36   6.141   2.578  -2.457
    1   AR   Ar   37   4.251   2.316   2.223
    1   AR   Ar   38   6.670   4.108   3.130
    1   AR   Ar   39   0.622   3.680   3.037
    1   AR   Ar   40   1.947   4.396   1.701
    1   AR   Ar   41   0.376   2.377   3.147
    1   AR   Ar   42   5.965   5.100   4.844
    1   AR   Ar   43   6.971   2.394   6.037
    1   AR   Ar   44   0.304   4.721   3.589
    1   AR   Ar   45   0.512   3.556   5.996
    1   AR   Ar   46   0.264   4.918   4.917
    1   AR   Ar   47   4.036   4.297   7.436
    1   AR   Ar   48   5.914   3.490   7.354
    1   AR   Ar   49   5.404   0.066  -1.443
    1   AR   Ar   50   3.948   5.038   0.209
    1   AR   Ar   51   5.848   4.623   1.811
    1   AR   Ar   52   5.279   3.023  -1.918
    1   AR   Ar   53   5.162   6.561   2.389
    1   AR   Ar   54   0.740   6.401   2.424
    1   AR   Ar   55   6.167   5.294   2.481
    1   AR   Ar   56   6.710   0.272   2.522
    1   AR   Ar   57   4.509   4.203   3.366
    1   AR   Ar   58   7.103   3.433   4.046
    1   AR   Ar   59   2.314   5.061   5.682
    1   AR   Ar   60   0.774   5.835   3.318
    1   AR   Ar   61   0.293   4.523   6.949
    1   AR   Ar   62   6.632   4.334   4.413
    1   AR   Ar   63   1.027   1.127   6.723
    1   AR   Ar   64   0.818   5.748   5.089
    1   AR   Ar   65   4.034   0.297   0.998
    1   AR   Ar   66   0.784   1.261   1.037
    1   AR   Ar   67   4.495   7.093  -0.931
    1   AR   Ar   68   1.035   0.916  -0.903
    1   AR   Ar   69   2.869   1.426  -0.291
    1   AR   Ar   70   0.739   0.961   2.135
    1   AR   Ar   71   2.961   1.354   3.288
    1   AR   Ar   72   4.482   0.114   2.190
    1   AR   Ar   73   3.933   0.788   3.665
    1   AR   Ar   74   1.142   1.036   4.280
    1   AR   Ar   75   3.014   0.713   4.659
    1   AR   Ar   76   1.223   0.000   1.654
    1   AR   Ar   77   2.336   6.806   5.045
    1   AR   Ar   78   0.093   5.887   5.733
    1   AR   Ar   79   3.729   6.470   6.570
    1   AR   Ar   80   3.999   5.368   5.166
    1   AR   Ar   81   2.172   6.503  -0.257
    1   AR   Ar   82   6.836   4.960   0.509
    1   AR   Ar   83   1.601   2.748  -0.672
    1   AR   Ar   84   0.762   4.249   1.145
    1   AR   Ar   85   1.852   3.308   0.779
    1   AR   Ar   86   2.156   5.425   0.979
    1   AR   Ar   87   2.116   3.046   1.881
    1   AR   Ar   88   2.915   5.050   1.675
    1   AR   Ar   89   6.917   2.683   2.129
    1   AR   Ar   90   3.155   1.841   4.399
    1   AR   Ar   91   1.423   1.971   3.353
    1   AR   Ar   92   1.138   3.522   1.932
    1   AR   Ar   93   1.003   1.026   5.362
    1   AR   Ar   94   0.724   6.281  10.890
    1   AR   Ar   95   4.730   0.965   5.503
    1   AR   Ar   96   3.079   6.884   4.160
    1   AR   Ar   97   3.567   2.419  -0.439
    1   AR   Ar   98   1.701   4.151   3.630
    1   AR   Ar   99   6.941   1.828   0.181
    1   AR   Ar  100   0.732   3.071  -1.193
    1   AR   Ar  101   3.931   6.128   2.317
    1   AR   Ar  102   4.008   1.359   2.657
    1   AR   Ar  103   2.094   4.444   0.530
    1   AR   Ar  104   3.358   4.833  -1.287
    1   AR   Ar  105   2.252   1.922   3.966
    1   AR   Ar  106   4.089   3.115   5.615
    1   AR   Ar  107   0.763   3.946   5.069
    1   AR   Ar  108   2.078   1.177   5.015
    1   AR   Ar  109   1.556   3.292   4.678
    1   AR   Ar  110   2.637   2.551   4.919
    1   AR   Ar  111   4.912   5.572   7.036
    1   AR   Ar  112   1.221   5.639   6.368
    1   AR   Ar  113   3.876   4.023  -0.760
    1   AR   Ar  114   1.795   0.062  -1.013
    1   AR   Ar  115   1.895   5.405  -0.072
    1   AR   Ar  116   6.129   0.565  -0.904
    1   AR   Ar  117   1.170   5.113   4.109
    1   AR   Ar  118   1.828   5.144   3.015
    1   AR   Ar  119   2.611   4.298   2.640
    1   AR   Ar  120   1.783   6.249   1.559
    1   AR   Ar  121   5.357   4.090   5.369
    1   AR   Ar  122   2.878   5.790   4.951
    1   AR   Ar  123   3.250   4.163   5.542
    1   AR   Ar  124   1.294   5.262   1.496
    1   AR   Ar  125   6.834   2.954   4.983
    1   AR   Ar  126   6.612   6.511   5.133
    1   AR   Ar  127   4.141   3.970   6.385
    1   AR   Ar  128   3.145   3.488   6.309
    1   AR   Ar  129   1.699   5.955   3.942
    1   AR   Ar  130   4.842   1.654  -3.816
    1   AR   Ar  131   4.108   3.773  -2.107
    1   AR   Ar  132   0.988   1.766   0.121
    1   AR   Ar  133   4.349   6.810   3.560
    1   AR   Ar  134   4.197   1.035   4.608
    1   AR   Ar  135   5.954   0.862   3.016
    1   AR   Ar  136   6.213   6.294   2.423
    1   AR   Ar  137   1.849   4.276   5.156
    1   AR   Ar  138   5.606   0.708   6.331
    1   AR   Ar  139   5.866   2.557   5.589
    1   AR   Ar  140   4.141   0.049   4.839
    1   AR   Ar  141   3.874   4.865   4.152
    1   AR   Ar  142   4.293   0.172   5.965
    1   AR   Ar  143   6.951   6.341   6.794
    1   AR   Ar  144   6.775   1.662   5.109
    1   AR   Ar  145   4.410   4.914  -1.075
    1   AR   Ar  146   3.272   2.247   2.680
    1   AR   Ar  147   4.618   2.747  -0.985
    1   AR   Ar  148   2.933   6.726  -1.084
    1   AR   Ar  149   1.982   1.701  -1.073
    1   AR   Ar  150   2.253   2.206   2.781
    1   AR   Ar  151   3.029   3.013   3.711
    1   AR   Ar  152   1.634   2.511  -1.642
    1   AR   Ar  153   5.273   0.298   4.472
    1   AR   Ar  154   3.751   2.102   3.592
    1   AR   Ar  155   6.869   4.046   5.495
    1   AR   Ar  156   2.781   4.555   3.671
    1   AR   Ar  157   1.350   4.074   6.000
    1   AR   Ar  158   0.279   1.475   6.238
    1   AR   Ar  159   3.499   1.152   6.420
    1   AR   Ar  160   1.625   2.144   4.682
    1   AR   Ar  161   5.297   4.688   2.959
    1   AR   Ar  162   4.269   5.903  -0.390
    1   AR   Ar  163   5.942   4.445   0.148
    1   AR   Ar  164   2.634   5.824   2.298
    1   AR   Ar  165   4.391   2.536   0.466
    1   AR   Ar  166   2.634   3.722   4.397
    1   AR   Ar  167   5.434   0.016   3.497
    1   AR   Ar  168   5.058   4.191  -1.467
    1   AR   Ar  169   3.587   4.131   2.850
    1   AR   Ar  170   2.249   3.412   5.806
    1   AR   Ar  171   5.979   3.637   4.424
    1   AR   Ar  172   4.253   4.241   4.994
    1   AR   Ar  173   1.909   2.200   6.436
    1   AR   Ar  174   2.355   6.100   6.154
    1   AR   Ar  175   4.049   1.747   5.408
    1   AR   Ar  176   3.609   2.824   4.622
    1   AR   Ar  177   0.836   5.059  -0.792
    1   AR   Ar  178   3.252   6.003   0.103
    1   AR   Ar  179   3.045   0.124   0.272
    1   AR   Ar  180   4.854   0.542  -4.125
    1   AR   Ar  181   7.022   5.387   1.786
    1   AR   Ar  182   1.934   6.639   2.815
    1   AR   Ar  183   4.871   5.175   1.980
    1   AR   Ar  184   4.724   6.788   0.421
    1   AR   Ar  185   3.128   4.793   4.782
    1   AR   Ar  186   2.631   5.942   3.315
    1   AR   Ar  187   3.265   6.713   3.101
    1   AR   Ar  188   2.991   6.718   2.117
    1   AR   Ar  189   4.945   2.935   6.231
    1   AR   Ar  190   3.475   5.899   4.083
    1   AR   Ar  191   2.197   6.488   7.116
    1   AR   Ar  192   4.540   6.132   5.636
    1   AR   Ar  193   3.195   6.449   1.056
    1   AR   Ar  194   5.214   3.639  -0.485
    1   AR   Ar  195   5.798   1.261   0.754
    1   AR   Ar  196   3.952   1.318  -0.535
    1   AR   Ar  197   3.816   1.336   0.868
    1   AR   Ar  198   5.649   0.557   1.868
    1   AR   Ar  199   2.537   0.481   2.880
    1   AR   Ar  200   5.403   2.875   0.284
    1   AR   Ar  201   5.694   6.111   3.230
    1   AR   Ar  202   5.328   1.347   4.499
    1   AR   Ar  203   0.108   6.833   3.280
    1   AR   Ar  204   5.695   5.720   5.840
    1   AR   Ar  205   6.934   0.853   1.465
    1   AR   Ar  206   5.934   0.141   5.196
    1   AR   Ar  207   0.797   2.373   5.404
    1   AR   Ar  208   0.550   6.367   4.338
    1   AR   Ar  209   0.081   2.338  -1.923
    1   AR   Ar  210   2.274   0.111   1.073
    1   AR   Ar  211   6.839   2.996   0.894
    1   AR   Ar  212   6.597   3.582  -0.041
    1   AR   Ar  213   2.366   0.761   1.840
    1   AR   Ar  214   4.446   3.776   2.361
    1   AR   Ar  215   6.068   3.230   2.513
    1   AR   Ar  216   1.003   2.711   1.068
    1   AR   Ar  217   4.940   2.107   3.532
    1   AR   Ar  218   4.809   3.458   4.273
    1   AR   Ar  219   4.232   3.002   3.248
    1   AR   Ar  220   3.990   3.207   1.384
    1   AR   Ar  221   6.684   5.501   3.613
    1   AR   Ar  222   5.224   6.742   6.149
    1   AR   Ar  223   6.316   1.634   6.615
    1   AR   Ar  224   4.821   2.500   5.089
    1   AR   Ar  225   6.286   2.995   3.544
    1   AR   Ar  226   1.750   3.131   2.865
    1   AR   Ar  227   6.792   3.855   2.145
    1   AR   Ar  228   5.693   6.729   1.457
    1   AR   Ar  229   5.307   5.740  -1.517
    1   AR   Ar  230   3.656   3.802   3.860
    1   AR   Ar  231   5.022   1.412   2.586
    1   AR   Ar  232   5.161   2.544   1.607
    1   AR   Ar  233   6.427   1.967   3.753
    1   AR   Ar  234   5.700   2.494   4.357
    1   AR   Ar  235   7.051   1.020   3.907
    1   AR   Ar  236   4.866   5.005   5.507
    1   AR   Ar  237   5.761   2.507   6.889
    1   AR   Ar  238   5.871   4.060   6.336
    1   AR   Ar  239   0.357   4.676   9.616
    1   AR   Ar  240   6.727   2.905   7.503
    1   AR   Ar  241   1.798   6.019  -1.032
    1   AR   Ar  242   5.618   5.977   0.633
    1   AR   Ar  243   4.580   5.564   2.936
    1   AR   Ar  244   0.822   5.203   0.476
    1   AR   Ar  245   3.396   0.955   1.912
    1   AR   Ar  246   5.554   6.295  -0.571
    1   AR   Ar  247   6.027   3.868   1.163
    1   AR   Ar  248   5.547   5.277  -0.405
    1   AR   Ar  249   4.204   6.272   1.265
    1   AR   Ar  250   4.664   5.730   4.422
    1   AR   Ar  251   4.887   4.647   4.381
    1   AR   Ar  252   3.482   5.220   3.252
    1   AR   Ar  253   6.726   3.395   6.493
    1   AR   Ar  254   3.139   1.946   9.533
    1   AR   Ar  255   3.739   5.457   9.871
    1   AR   Ar  256   5.960   4.618   3.802
    7.12000  7.12000 12.00000
Argon-slab step 4040
  256
    1   AR   Ar    1   4.612   2.466  -2.641
    1   AR   Ar    2   6.407   0.302   0.448
    1   AR   Ar    3   4.053   2.177  -1.797
    1   AR   Ar    4   1.899   0.790  -0.302
    1   AR   Ar    5   6.788   6.192   0.832
    1   AR   Ar    6   0.616   1.996   2.172
    1   AR   Ar    7   5.343   3.529   3.302
    1   AR   Ar    8   4.681   1.278   0.230
    1   AR   Ar    9   1.102   6.956   3.473
    1   AR   Ar   10   0.277   0.165   4.386
    1   AR   Ar   11   1.974   0.101   4.089
    1   AR   Ar   12   0.914   0.957   3.211
    1   AR   Ar   13   7.062   0.615   5.279
    1   AR   Ar   14   4.787   1.048   7.553
    1   AR   Ar   15   3.210   6.523   8.597
    1   AR   Ar   16   0.873   7.090   5.148
    1   AR   Ar   17   6.189   2.162   0.783
    1   AR   Ar   18   6.401   4.734  -0.902
    1   AR   Ar   19   3.622   3.481   0.014
    1   AR   Ar   20   6.670   4.560  -2.723
    1   AR   Ar   21   2.683   1.898   1.826
    1   AR   Ar   22   6.932   1.402   2.743
    1   AR   Ar   23   0.429   6.951   0.569
    1   AR   Ar   24   5.297   2.702   2.787
    1   AR   Ar   25   0.289   1.894   4.333
    1   AR   Ar   26   6.227   6.575   4.022
    1   AR   Ar   27   1.623   1.254   2.543
    1   AR   Ar   28   1.082   2.746   3.899
    1   AR   Ar   29   6.053   1.456   7.814
    1   AR   Ar   30   1.935   1.013   3.589
    1   AR   Ar   31   3.374   6.845   7.636
    1   AR   Ar   32   0.782   2.468   6.521
    1   AR   Ar   33   0.726   4.008  -0.538
    1   AR   Ar   34   0.410   4.708   2.493
    1   AR   Ar   35   6.037   5.636   1.599
    1   AR   Ar   36   6.151   2.590  -2.447
    1   AR   Ar   37   4.252   2.307   2.237
    1   AR   Ar   38   6.710   4.086   3.184
    1   AR   Ar   39   0.608   3.686   3.013
    1   AR   Ar   40   1.976   4.417   1.695
    1   AR   Ar   41   0.407   2.381   3.141
    1   AR   Ar   42   5.955   5.116   4.836
    1   AR   Ar   43   6.961   2.383   6.016
    1   AR   Ar   44   0.285   4.739   3.598
    1   AR   Ar   45   0.500   3.568   6.020
    1   AR   Ar   46   0.274   4.945   4.928
    1   AR   Ar   47   4.009   4.332   7.460
    1   AR   Ar   48   5.903   3.469   7.385
    1   AR   Ar   49   5.382   0.070  -1.438
    1   AR   Ar   50   3.932   5.000   0.226
    1   AR   Ar   51   5.826   4.615   1.826
    1   AR   Ar   52   5.292   2.999  -1.904
    1   AR   Ar   53   5.180   6.531   2.387
    1   AR   Ar   54   0.765   6.419   2.412
    1   AR   Ar   55   6.174   5.253   2.494
    1   AR   Ar   56   6.725   0.309   2.541
    1   AR   Ar   57   4.517   4.171   3.372
    1   AR   Ar   58   0.032   3.448   4.052
    1   AR   Ar   59   2.290   5.079   5.689
    1   AR   Ar   60   0.743   5.832   3.301
    1   AR   Ar   61   0.302   4.484   6.967
    1   AR   Ar   62   6.638   4.345   4.426
    1   AR   Ar   63   1.034   1.125   6.730
    1   AR   Ar   64   0.804   5.715   5.077
    1   AR   Ar   65   4.009   0.266   0.981
    1   AR   Ar   66   0.802   1.283   1.030
    1   AR   Ar   67   4.503   0.001  -0.956
    1   AR   Ar   68   1.058   0.875  -0.881
    1   AR   Ar   69   2.830   1.435  -0.289
    1   AR   Ar   70   0.728   0.956   2.165
    1   AR   Ar   71   2.937   1.345   3.251
    1   AR   Ar   72   4.496   0.126   2.166
    1   AR   Ar   73   3.892   0.807   3.645
    1   AR   Ar   74   1.124   1.022   4.264
    1   AR   Ar   75   3.046   0.737   4.647
    1   AR   Ar   76   1.225   0.024   1.634
    1   AR   Ar   77   2.332   6.802   5.066
    1   AR   Ar   78   0.095   5.864   5.723
    1   AR   Ar   79   3.729   6.457   6.594
    1   AR   Ar   80   4.001   5.358   5.152
    1   AR   Ar   81   2.172   6.519  -0.256
    1   AR   Ar   82   6.811   4.918   0.495
    1   AR   Ar   83   1.601   2.789  -0.706
    1   AR   Ar   84   0.786   4.257   1.128
    1   AR   Ar   85   1.860   3.320   0.771
    1   AR   Ar   86   2.125   5.423   0.988
    1   AR   Ar   87   2.102   3.037   1.907
    1   AR   Ar   88   2.904   5.039   1.673
    1   AR   Ar   89   6.910   2.665   2.130
    1   AR   Ar   90   3.157   1.887   4.383
    1   AR   Ar   91   1.422   1.982   3.371
    1   AR   Ar   92   1.142   3.526   1.966
    1   AR   Ar   93   0.963   1.019   5.375
    1   AR   Ar   94   0.740   6.299  10.865
    1   AR   Ar   95   4.720   0.973   5.494
    1   AR   Ar   96   3.088   6.891   4.158
    1   AR   Ar   97   3.594   2.425  -0.432
    1   AR   Ar   98   1.699   4.159   3.646
    1   AR   Ar   99   6.946   1.839   0.206
    1   AR   Ar  100   0.737   3.085  -1.204
    1   AR   Ar  101   3.925   6.139   2.311
    1   AR   Ar  102   4.033   1.386   2.643
    1   AR   Ar  103   2.076   4.458   0.542
    1   AR   Ar  104   3.361   4.860  -1.286
    1   AR   Ar  105   2.229   1.907   3.933
    1   AR   Ar  106   4.107   3.089   5.646
    1   AR   Ar  107   0.737   3.934   5.060
    1   AR   Ar  108   2.116   1.184   4.999
    1   AR   Ar  109   1.557   3.282   4.672
    1   AR   Ar  110   2.640   2.560   4.904
    1   AR   Ar  111   4.928   5.562   7.029
    1   AR   Ar  112   1.185   5.688   6.360
    1   AR   Ar  113   3.869   3.994  -0.792
    1   AR   Ar  114   1.781   0.059  -1.014
    1   AR   Ar  115   1.855   5.368  -0.057
    1   AR   Ar  116   6.096   0.572  -0.866
    1   AR   Ar  117   1.197   5.100   4.107
    1   AR   Ar  118   1.821   5.161   3.031
    1   AR   Ar  119   2.606   4.281   2.654
    1   AR   Ar  120   1.775   6.256   1.563
    1   AR   Ar  121   5.352   4.087   5.343
    1   AR   Ar  122   2.841   5.784   4.955
    1   AR   Ar  123   3.258   4.140   5.529
    1   AR   Ar  124   1.292   5.321   1.519
    1   AR   Ar  125   6.828   2.940   4.957
    1   AR   Ar  126   6.620   6.526   5.124
    1   AR   Ar  127   4.128   3.982   6.398
    1   AR   Ar  128   3.118   3.509   6.318
    1   AR   Ar  129   1.724   5.940   3.965
    1   AR   Ar  130   4.854   1.663  -3.828
    1   AR   Ar  131   4.070   3.789  -2.141
    1   AR   Ar  132   1.000   1.792   0.087
    1   AR   Ar  133   4.327   6.792   3.579
    1   AR   Ar  134   4.206   1.029   4.582
    1   AR   Ar  135   5.955   0.853   3.029
    1   AR   Ar  136   6.228   6.305   2.428
    1   AR   Ar  137   1.867   4.300   5.187
    1   AR   Ar  138   5.618   0.721   6.322
    1   AR   Ar  139   5.820   2.577   5.597
    1   AR   Ar  140   4.181   0.063   4.853
    1   AR   Ar  141   3.900   4.886   4.129
    1   AR   Ar  142   4.299   0.181   5.942
    1   AR   Ar  143   6.994   6.323   6.805
    1   AR   Ar  144   6.755   1.629   5.094
    1   AR   Ar  145   4.425   4.945  -1.050
    1   AR   Ar  146   3.276   2.264   2.672
    1   AR   Ar  147   4.598   2.755  -0.993
    1   AR   Ar  148   2.910   6.731  -1.096
    1   AR   Ar  149   1.974   1.700  -1.083
    1   AR   Ar  150   2.233   2.241   2.767
    1   AR   Ar  151   3.050   3.018   3.731
    1   AR   Ar  152   1.646   2.534  -1.653
    1   AR   Ar  153   5.286   0.315   4.471
    1   AR   Ar  154   3.764   2.100   3.655
    1   AR   Ar  155   6.891   4.051   5.494
    1   AR   Ar  156   2.804   4.557   3.669
    1   AR   Ar  157   1.348   4.053   6.016
    1   AR   Ar  158   0.264   1.499   6.211
    1   AR   Ar  159   3.495   1.144   6.425
    1   AR   Ar  160   1.624   2.131   4.698
    1   AR   Ar  161   5.292   4.698   2.956
    1   AR   Ar  162   4.257   5.889  -0.395
    1   AR   Ar  163   5.908   4.445   0.148
    1   AR   Ar  164   2.610   5.821   2.309
    1   AR   Ar  165   4.343   2.506   0.463
    1   AR   Ar  166   2.622   3.743   4.404
    1   AR   Ar  167   5.465   0.011   3.498
    1   AR   Ar  168   5.057   4.194  -1.480
    1   AR   Ar  169   3.567   4.108   2.853
    1   AR   Ar  170   2.239   3.388   5.831
    1   AR   Ar  171   5.996   3.639   4.433
    1   AR   Ar  172   4.255   4.227   5.017
    1   AR   Ar  173   1.925   2.170   6.418
    1   AR   Ar  174   2.331   6.122   6.160
    1   AR   Ar  175   4.041   1.767   5.432
    1   AR   Ar  176   3.582   2.845   4.608
    1   AR   Ar  177   0.838   5.069  -0.773
    1   AR   Ar  178   3.242   5.982   0.095
    1   AR   Ar  179   3.039   0.112   0.266
    1   AR   Ar  180   4.881   0.564  -4.124
    1   AR   Ar  181   7.024   5.389   1.767
    1   AR   Ar  182   1.975   6.627   2.826
    1   AR   Ar  183   4.914   5.172   1.969
    1   AR   Ar  184   4.710   6.772   0.446
    1   AR   Ar  185   3.137   4.796   4.799
    1   AR   Ar  186   2.588   5.925   3.290
    1   AR   Ar  187   3.286   6.725   3.091
    1   AR   Ar  188   2.993   6.737   2.119
    1   AR   Ar  189   4.947   2.965   6.227
    1   AR   Ar  190   3.480   5.901   4.105
    1   AR   Ar  191   2.197   6.494   7.116
    1   AR   Ar  192   4.522   6.170   5.645
    1   AR   Ar  193   3.188   6.486   1.097
    1   AR   Ar  194   5.248   3.635  -0.463
    1   AR   Ar  195   5.776   1.218   0.796
    1   AR   Ar  196   3.937   1.314  -0.535
    1   AR   Ar  197   3.847   1.345   0.881
    1   AR   Ar  198   5.641   0.540   1.884
    1   AR   Ar  199   2.523   0.463   2.888
    1   AR   Ar  200   5.382   2.884   0.297
    1   AR   Ar  201   5.674   6.079   3.266
    1   AR   Ar  202   5.321   1.340   4.533
    1   AR   Ar  203   0.100   6.839   3.265
    1   AR   Ar  204   5.728   5.696   5.850
    1   AR   Ar  205   6.931   0.908   1.467
    1   AR   Ar  206   5.931   0.152   5.200
    1   AR   Ar  207   0.779   2.329   5.419
    1   AR   Ar  208   0.547   6.365   4.322
    1   AR   Ar  209   0.089   2.328  -1.943
    1   AR   Ar  210   2.275   0.082   1.082
    1   AR   Ar  211   6.866   2.994   0.889
    1   AR   Ar  212   6.590   3.548  -0.018
    1   AR   Ar  213   2.353   0.753   1.838
    1   AR   Ar  214   4.450   3.804   2.371
    1   AR   Ar  215   6.081   3.209   2.498
    1   AR   Ar  216   1.014   2.711   1.043
    1   AR   Ar  217   4.933   2.083   3.536
    1   AR   Ar  218   4.804   3.445   4.294
    1   AR   Ar  219   4.226   3.030   3.249
    1   AR   Ar  220   3.986   3.211   1.391
    1   AR   Ar  221   6.717   5.478   3.587
    1   AR   Ar  222   5.240   6.748   6.154
    1   AR   Ar  223   6.332   1.626   6.613
    1   AR   Ar  224   4.822   2.508   5.081
    1   AR   Ar  225   6.265   3.003   3.550
    1   AR   Ar  226   1.740   3.148   2.868
    1   AR   Ar  227   6.809   3.870   2.136
    1   AR   Ar  228   5.693   6.746   1.437
    1   AR   Ar  229   5.315   5.740  -1.514
    1   AR   Ar  230   3.643   3.800   3.871
    1   AR   Ar  231   5.000   1.400   2.561
    1   AR   Ar  232   5.184   2.558   1.608
    1   AR   Ar  233   6.438   1.964   3.736
    1   AR   Ar  234   5.656   2.495   4.332
    1   AR   Ar  235   7.067   1.041   3.935
    1   AR   Ar  236   4.890   5.009   5.510
    1   AR   Ar  237   5.743   2.493   6.892
    1   AR   Ar  238   5.871   4.060   6.316
    1   AR   Ar  239   0.373   4.662   9.582
    1   AR   Ar  240   6.688   2.891   7.511
    1   AR   Ar  241   1.801   6.025  -1.007
    1   AR   Ar  242   5.599   5.988   0.618
    1   AR   Ar  243   4.583   5.563   2.927
    1   AR   Ar  244   0.829   5.233   0.478
    1   AR   Ar  245   3.382   0.970   1.904
    1   AR   Ar  246   5.555   6.271  -0.581
    1   AR   Ar  247   6.043   3.851   1.168
    1   AR   Ar  248   5.506   5.301  -0.397
    1   AR   Ar  249   4.199   6.267   1.284
    1   AR   Ar  250   4.631   5.720   4.426
    1   AR   Ar  251   4.887   4.693   4.345
    1   AR   Ar  252   3.507   5.209   3.220
    1   AR   Ar  253   6.696   3.409   6.489
    1   AR   Ar  254   3.158   1.933   9.545
    1   AR   Ar  255   3.782   5.469   9.872
    1   AR   Ar  256   5.940   4.601   3.748
    7.12000  7.12000 12.00000
Argon-slab step 4045
  256
    1   AR   Ar    1   4.599   2.489  -2.680
    1   AR   Ar    2   6.401   0.295   0.398
    1   AR   Ar    3   4.033   2.162  -1.815
    1   AR   Ar    4   1.902   0.803  -0.269
    1   AR   Ar    5   6.775   6.182   0.836
    1   AR   Ar    6   0.609   1.998   2.177
    1   AR   Ar    7   5.368   3.555   3.335
    1   AR   Ar    8   4.670   1.293   0.247
    1   AR   Ar    9   1.085   6.976   3.443
    1   AR   Ar   10   0.275   0.181   4.426
    1   AR   Ar   11   1.974   0.096   4.102
    1   AR   Ar   12   0.924   0.926   3.186
    1   AR   Ar   13   7.068   0.613   5.297
    1   AR   Ar   14   4.817   1.026   7.549
    1   AR   Ar   15   3.215   6.549   8.598
    1   AR   Ar   16   0.893   7.079   5.138
    1   AR   Ar   17   6.161   2.142   0.815
    1   AR   Ar   18   6.414   4.769  -0.871
    1   AR   Ar   19   3.617   3.488   0.006
    1   AR   Ar   20   6.706   4.533  -2.700
    1   AR   Ar   21   2.685   1.906   1.817
    1   AR   Ar   22   6.941   1.407   2.715
    1   AR   Ar   23   0.408   6.947   0.586
    1   AR   Ar   24   5.249   2.722   2.770
    1   AR   Ar   25   0.251   1.897   4.344
    1   AR   Ar   26   6.239   6.553   4.043
    1   AR   Ar   27   1.620   1.254   2.571
    1   AR   Ar   28   1.080   2.752   3.885
    1   AR   Ar   29   6.076   1.442   7.855
    1   AR   Ar   30   1.913   1.007   3.618
    1   AR   Ar   31   3.378   6.832   7.628
    1   AR   Ar   32   0.790   2.469   6.513
    1   AR   Ar   33   0.721   3.986  -0.575
    1   AR   Ar   34   0.422   4.717   2.460
    1   AR   Ar   35   6.011   5.636   1.623
    1   AR   Ar   36   6.163   2.603  -2.437
    1   AR   Ar   37   4.256   2.304   2.248
    1   AR   Ar   38   6.745   4.061   3.238
    1   AR   Ar   39   0.594   3.690   2.990
    1   AR   Ar   40   2.003   4.437   1.688
    1   AR   Ar   41   0.435   2.385   3.137
    1   AR   Ar   42   5.943   5.130   4.828
    1   AR   Ar   43   6.943   2.382   5.990
    1   AR   Ar   44   0.273   4.752   3.611
    1   AR   Ar   45   0.483   3.568   6.049
    1   AR   Ar   46   0.271   4.953   4.935
    1   AR   Ar   47   3.983   4.367   7.483
    1   AR   Ar   48   5.883   3.456   7.413
    1   AR   Ar   49   5.359   0.069  -1.439
    1   AR   Ar   50   3.915   4.964   0.243
    1   AR   Ar   51   5.801   4.600   1.838
    1   AR   Ar   52   5.302   2.977  -1.889
    1   AR   Ar   53   5.203   6.494   2.392
    1   AR   Ar   54   0.791   6.439   2.399
    1   AR   Ar   55   6.209   5.228   2.490
    1   AR   Ar   56   6.741   0.346   2.555
    1   AR   Ar   57   4.479   4.180   3.383
    1   AR   Ar   58   0.082   3.464   4.056
    1   AR   Ar   59   2.270   5.071   5.684
    1   AR   Ar   60   0.712   5.830   3.305
    1   AR   Ar   61   0.310   4.443   6.982
    1   AR   Ar   62   6.665   4.368   4.443
    1   AR   Ar   63   1.049   1.120   6.742
    1   AR   Ar   64   0.817   5.696   5.061
    1   AR   Ar   65   3.983   0.234   0.967
    1   AR   Ar   66   0.830   1.306   1.012
    1   AR   Ar   67   4.504   0.028  -0.976
    1   AR   Ar   68   1.076   0.837  -0.862
    1   AR   Ar   69   2.791   1.443  -0.286
    1   AR   Ar   70   0.711   0.945   2.189
    1   AR   Ar   71   2.916   1.340   3.215
    1   AR   Ar   72   4.520   0.147   2.129
    1   AR   Ar   73   3.847   0.824   3.617
    1   AR   Ar   74   1.103   1.008   4.252
    1   AR   Ar   75   3.079   0.762   4.634
    1   AR   Ar   76   1.225   0.053   1.614
    1   AR   Ar   77   2.328   6.798   5.087
    1   AR   Ar   78   0.086   5.841   5.724
    1   AR   Ar   79   3.729   6.445   6.618
    1   AR   Ar   80   3.992   5.346   5.137
    1   AR   Ar   81   2.179   6.542  -0.240
    1   AR   Ar   82   6.789   4.876   0.483
    1   AR   Ar   83   1.603   2.831  -0.724
    1   AR   Ar   84   0.810   4.267   1.111
    1   AR   Ar   85   1.861   3.323   0.768
    1   AR   Ar   86   2.103   5.423   0.994
    1   AR   Ar   87   2.091   3.025   1.928
    1   AR   Ar   88   2.894   5.026   1.669
    1   AR   Ar   89   6.903   2.648   2.130
    1   AR   Ar   90   3.158   1.920   4.375
    1   AR   Ar   91   1.419   1.985   3.357
    1   AR   Ar   92   1.151   3.532   1.995
    1   AR   Ar   93   0.923   1.015   5.388
    1   AR   Ar   94   0.755   6.317  10.840
    1   AR   Ar   95   4.702   0.983   5.482
    1   AR   Ar   96   3.095   6.898   4.157
    1   AR   Ar   97   3.621   2.430  -0.425
    1   AR   Ar   98   1.710   4.174   3.663
    1   AR   Ar   99   6.958   1.847   0.227
    1   AR   Ar  100   0.738   3.100  -1.217
    1   AR   Ar  101   3.898   6.139   2.323
    1   AR   Ar  102   4.041   1.409   2.635
    1   AR   Ar  103   2.056   4.468   0.554
    1   AR   Ar  104   3.364   4.888  -1.284
    1   AR   Ar  105   2.220   1.897   3.901
    1   AR   Ar  106   4.118   3.066   5.674
    1   AR   Ar  107   0.750   3.916   5.073
    1   AR   Ar  108   2.152   1.192   4.981
    1   AR   Ar  109   1.560   3.272   4.668
    1   AR   Ar  110   2.632   2.575   4.895
    1   AR   Ar  111   4.944   5.552   7.021
    1   AR   Ar  112   1.150   5.737   6.351
    1   AR   Ar  113   3.868   3.971  -0.833
    1   AR   Ar  114   1.768   0.051  -1.019
    1   AR   Ar  115   1.814   5.333  -0.043
    1   AR   Ar  116   6.066   0.580  -0.825
    1   AR   Ar  117   1.222   5.091   4.115
    1   AR   Ar  118   1.815   5.177   3.047
    1   AR   Ar  119   2.590   4.266   2.664
    1   AR   Ar  120   1.772   6.265   1.570
    1   AR   Ar  121   5.348   4.081   5.313
    1   AR   Ar  122   2.802   5.782   4.962
    1   AR   Ar  123   3.269   4.130   5.515
    1   AR   Ar  124   1.280   5.376   1.549
    1   AR   Ar  125   6.822   2.925   4.933
    1   AR   Ar  126   6.633   6.538   5.112
    1   AR   Ar  127   4.116   3.994   6.408
    1   AR   Ar  128   3.097   3.527   6.335
    1   AR   Ar  129   1.747   5.929   3.958
    1   AR   Ar  130   4.866   1.672  -3.841
    1   AR   Ar  131   4.034   3.805  -2.174
    1   AR   Ar  132   1.002   1.805   0.071
    1   AR   Ar  133   4.305   6.773   3.599
    1   AR   Ar  134   4.216   1.033   4.557
    1   AR   Ar  135   5.955   0.847   3.043
    1   AR   Ar  136   6.249   6.323   2.429
    1   AR   Ar  137   1.886   4.319   5.207
    1   AR   Ar  138   5.629   0.734   6.312
    1   AR   Ar  139   5.776   2.597   5.605
    1   AR   Ar  140   4.221   0.069   4.868
    1   AR   Ar  141   3.927   4.905   4.102
    1   AR   Ar  142   4.302   0.181   5.924
    1   AR   Ar  143   7.038   6.306   6.814
    1   AR   Ar  144   6.732   1.598   5.081
    1   AR   Ar  145   4.442   4.978  -1.024
    1   AR   Ar  146   3.282   2.281   2.665
    1   AR   Ar  147   4.577   2.765  -1.000
    1   AR   Ar  148   2.886   6.736  -1.106
    1   AR   Ar  149   1.980   1.681  -1.086
    1   AR   Ar  150   2.215   2.272   2.752
    1   AR   Ar  151   3.064   3.012   3.745
    1   AR   Ar  152   1.652   2.528  -1.667
    1   AR   Ar  153   5.288   0.330   4.466
    1   AR   Ar  154   3.789   2.100   3.707
    1   AR   Ar  155   6.914   4.053   5.489
    1   AR   Ar  156   2.826   4.566   3.670
    1   AR   Ar  157   1.350   4.073   6.050
    1   AR   Ar  158   0.245   1.519   6.178
    1   AR   Ar  159   3.493   1.136   6.428
    1   AR   Ar  160   1.615   2.120   4.719
    1   AR   Ar  161   5.289   4.711   2.947
    1   AR   Ar  162   4.248   5.875  -0.400
    1   AR   Ar  163   5.874   4.442   0.148
    1   AR   Ar  164   2.582   5.812   2.311
    1   AR   Ar  165   4.294   2.476   0.459
    1   AR   Ar  166   2.609   3.765   4.413
    1   AR   Ar  167   5.493   0.005   3.493
    1   AR   Ar  168   5.050   4.212  -1.482
    1   AR   Ar  169   3.551   4.085   2.858
    1   AR   Ar  170   2.222   3.362   5.849
    1   AR   Ar  171   5.999   3.625   4.441
    1   AR   Ar  172   4.252   4.211   5.043
    1   AR   Ar  173   1.939   2.140   6.399
    1   AR   Ar  174   2.307   6.141   6.161
    1   AR   Ar  175   4.031   1.790   5.456
    1   AR   Ar  176   3.565   2.870   4.595
    1   AR   Ar  177   0.841   5.080  -0.753
    1   AR   Ar  178   3.230   5.962   0.086
    1   AR   Ar  179   3.033   0.100   0.259
    1   AR   Ar  180   4.908   0.586  -4.123
    1   AR   Ar  181   7.031   5.390   1.748
    1   AR   Ar  182   2.014   6.617   2.834
    1   AR   Ar  183   4.957   5.171   1.958
    1   AR   Ar  184   4.698   6.754   0.469
    1   AR   Ar  185   3.140   4.801   4.809
    1   AR   Ar  186   2.548   5.904   3.280
    1   AR   Ar  187   3.311   6.737   3.087
    1   AR   Ar  188   2.994   6.764   2.116
    1   AR   Ar  189   4.954   2.996   6.224
    1   AR   Ar  190   3.488   5.902   4.125
    1   AR   Ar  191   2.206   6.485   7.124
    1   AR   Ar  192   4.503   6.207   5.653
    1   AR   Ar  193   3.179   6.525   1.137
    1   AR   Ar  194   5.282   3.633  -0.444
    1   AR   Ar  195   5.752   1.171   0.839
    1   AR   Ar  196   3.920   1.310  -0.535
    1   AR   Ar  197   3.875   1.356   0.895
    1   AR   Ar  198   5.633   0.529   1.905
    1   AR   Ar  199   2.508   0.438   2.895
    1   AR   Ar  200   5.352   2.887   0.314
    1   AR   Ar  201   5.650   6.041   3.305
    1   AR   Ar  202   5.323   1.349   4.519
    1   AR   Ar  203   0.094   6.875   3.275
    1   AR   Ar  204   5.760   5.673   5.859
    1   AR   Ar  205   6.928   0.962   1.470
    1   AR   Ar  206   5.931   0.166   5.214
    1   AR   Ar  207   0.760   2.285   5.433
    1   AR   Ar  208   0.551   6.352   4.301
    1   AR   Ar  209   0.097   2.319  -1.962
    1   AR   Ar  210   2.267   0.065   1.110
    1   AR   Ar  211   6.894   2.993   0.886
    1   AR   Ar  212   6.583   3.515   0.004
    1   AR   Ar  213   2.337   0.749   1.841
    1   AR   Ar  214   4.457   3.830   2.380
    1   AR   Ar  215   6.100   3.195   2.480
    1   AR   Ar  216   1.022   2.711   1.019
    1   AR   Ar  217   4.923   2.056   3.544
    1   AR   Ar  218   4.799   3.432   4.314
    1   AR   Ar  219   4.223   3.041   3.244
    1   AR   Ar  220   3.996   3.214   1.398
    1   AR   Ar  221   6.744   5.462   3.560
    1   AR   Ar  222   5.259   6.756   6.159
    1   AR   Ar  223   6.348   1.617   6.611
    1   AR   Ar  224   4.833   2.520   5.072
    1   AR   Ar  225   6.245   3.012   3.556
    1   AR   Ar  226   1.725   3.169   2.878
    1   AR   Ar  227   6.829   3.888   2.124
    1   AR   Ar  228   5.694   6.758   1.414
    1   AR   Ar  229   5.322   5.739  -1.509
    1   AR   Ar  230   3.636   3.805   3.888
    1   AR   Ar  231   4.994   1.388   2.536
    1   AR   Ar  232   5.208   2.573   1.609
    1   AR   Ar  233   6.447   1.964   3.721
    1   AR   Ar  234   5.611   2.496   4.309
    1   AR   Ar  235   7.075   1.062   3.972
    1   AR   Ar  236   4.899   5.016   5.507
    1   AR   Ar  237   5.726   2.480   6.894
    1   AR   Ar  238   5.870   4.060   6.296
    1   AR   Ar  239   0.391   4.647   9.565
    1   AR   Ar  240   6.660   2.868   7.519
    1   AR   Ar  241   1.808   6.047  -1.007
    1   AR   Ar  242   5.581   6.016   0.635
    1   AR   Ar  243   4.574   5.590   2.896
    1   AR   Ar  244   0.850   5.240   0.473
    1   AR   Ar  245   3.384   0.970   1.900
    1   AR   Ar  246   5.557   6.259  -0.592
    1   AR   Ar  247   6.060   3.829   1.168
    1   AR   Ar  248   5.463   5.314  -0.389
    1   AR   Ar  249   4.208   6.271   1.307
    1   AR   Ar  250   4.599   5.715   4.427
    1   AR   Ar  251   4.898   4.737   4.306
    1   AR   Ar  252   3.532   5.201   3.181
    1   AR   Ar  253   6.664   3.419   6.487
    1   AR   Ar  254   3.177   1.919   9.556
    1   AR   Ar  255   3.826   5.481   9.874
    1   AR   Ar  256   5.916   4.586   3.693
    7.12000  7.12000 12.00000
Argon-slab step 4050
  256
    1   AR   Ar    1   4.588   2.513  -2.720
    1   AR   Ar    2   6.394   0.288   0.349
    1   AR   Ar    3   4.034   2.189  -1.814
    1   AR   Ar    4   1.927   0.806  -0.277
    1   AR   Ar    5   6.760   6.171   0.841
    1   AR   Ar    6   0.605   1.999   2.178
    1   AR   Ar    7   5.392   3.589   3.372
    1   AR   Ar    8   4.665   1.307   0.263
    1   AR   Ar    9   1.076   6.996   3.414
    1   AR   Ar   10   0.263   0.204   4.451
    1   AR   Ar   11   1.974   0.086   4.117
    1   AR   Ar   12   0.923   0.891   3.173
    1   AR   Ar   13   7.079   0.601   5.306
    1   AR   Ar   14   4.830   1.023   7.548
    1   AR   Ar   15   3.218   6.574   8.604
    1   AR   Ar   16   0.923   7.063   5.139
    1   AR   Ar   17   6.131   2.127   0.851
    1   AR   Ar   18   6.425   4.804  -0.838
    1   AR   Ar   19   3.602   3.479  -0.006
    1   AR   Ar   20   6.741   4.507  -2.676
    1   AR   Ar   21   2.686   1.913   1.807
    1   AR   Ar   22   6.951   1.413   2.689
    1   AR   Ar   23   0.388   6.943   0.604
    1   AR   Ar   24   5.193   2.734   2.751
    1   AR   Ar   25   0.224   1.919   4.358
    1   AR   Ar   26   6.254   6.532   4.066
    1   AR   Ar   27   1.622   1.231   2.576
    1   AR   Ar   28   1.075   2.765   3.877
    1   AR   Ar   29   6.098   1.429   7.895
    1   AR   Ar   30   1.892   0.995   3.641
    1   AR   Ar   31   3.382   6.820   7.614
    1   AR   Ar   32   0.772   2.489   6.535
    1   AR   Ar   33   0.716   3.965  -0.609
    1   AR   Ar   34   0.435   4.726   2.429
    1   AR   Ar   35   5.978   5.644   1.634
    1   AR   Ar   36   6.177   2.598  -2.428
    1   AR   Ar   37   4.267   2.311   2.256
    1   AR   Ar   38   6.774   4.032   3.289
    1   AR   Ar   39   0.582   3.694   2.967
    1   AR   Ar   40   2.026   4.456   1.682
    1   AR   Ar   41   0.458   2.390   3.134
    1   AR   Ar   42   5.930   5.144   4.819
    1   AR   Ar   43   6.917   2.395   5.961
    1   AR   Ar   44   0.278   4.756   3.627
    1   AR   Ar   45   0.466   3.558   6.083
    1   AR   Ar   46   0.253   4.938   4.938
    1   AR   Ar   47   3.958   4.402   7.506
    1   AR   Ar   48   5.852   3.451   7.437
    1   AR   Ar   49   5.355   0.086  -1.452
    1   AR   Ar   50   3.898   4.928   0.257
    1   AR   Ar   51   5.777   4.576   1.847
    1   AR   Ar   52   5.311   2.955  -1.872
    1   AR   Ar   53   5.224   6.456   2.397
    1   AR   Ar   54   0.819   6.460   2.385
    1   AR   Ar   55   6.254   5.207   2.498
    1   AR   Ar   56   6.727   0.347   2.528
    1   AR   Ar   57   4.443   4.190   3.399
    1   AR   Ar   58   0.133   3.480   4.059
    1   AR   Ar   59   2.258   5.068   5.682
    1   AR   Ar   60   0.684   5.831   3.339
    1   AR   Ar   61   0.318   4.402   6.996
    1   AR   Ar   62   6.697   4.396   4.458
    1   AR   Ar   63   1.055   1.142   6.743
    1   AR   Ar   64   0.858   5.698   5.046
    1   AR   Ar   65   3.953   0.204   0.955
    1   AR   Ar   66   0.857   1.329   0.998
    1   AR   Ar   67   4.491   0.053  -0.987
    1   AR   Ar   68   1.088   0.802  -0.845
    1   AR   Ar   69   2.755   1.453  -0.284
    1   AR   Ar   70   0.712   0.911   2.197
    1   AR   Ar   71   2.898   1.341   3.180
    1   AR   Ar   72   4.551   0.174   2.081
    1   AR   Ar   73   3.799   0.840   3.585
    1   AR   Ar   74   1.077   0.995   4.245
    1   AR   Ar   75   3.115   0.787   4.619
    1   AR   Ar   76   1.224   0.085   1.594
    1   AR   Ar   77   2.324   6.794   5.106
    1   AR   Ar   78   0.071   5.819   5.732
    1   AR   Ar   79   3.731   6.432   6.639
    1   AR   Ar   80   3.975   5.334   5.126
    1   AR   Ar   81   2.193   6.570  -0.212
    1   AR   Ar   82   6.768   4.837   0.473
    1   AR   Ar   83   1.609   2.875  -0.729
    1   AR   Ar   84   0.836   4.277   1.095
    1   AR   Ar   85   1.860   3.327   0.766
    1   AR   Ar   86   2.091   5.425   0.996
    1   AR   Ar   87   2.083   3.012   1.943
    1   AR   Ar   88   2.887   5.013   1.665
    1   AR   Ar   89   6.898   2.630   2.129
    1   AR   Ar   90   3.148   1.936   4.381
    1   AR   Ar   91   1.409   1.979   3.318
    1   AR   Ar   92   1.182   3.541   2.007
    1   AR   Ar   93   0.886   1.016   5.401
    1   AR   Ar   94   0.771   6.336  10.815
    1   AR   Ar   95   4.693   0.997   5.468
    1   AR   Ar   96   3.101   6.907   4.155
    1   AR   Ar   97   3.632   2.429  -0.409
    1   AR   Ar   98   1.708   4.186   3.677
    1   AR   Ar   99   6.974   1.853   0.246
    1   AR   Ar  100   0.734   3.115  -1.234
    1   AR   Ar  101   3.868   6.141   2.336
    1   AR   Ar  102   4.027   1.425   2.636
    1   AR   Ar  103   2.036   4.475   0.567
    1   AR   Ar  104   3.366   4.915  -1.282
    1   AR   Ar  105   2.227   1.897   3.876
    1   AR   Ar  106   4.120   3.045   5.697
    1   AR   Ar  107   0.774   3.896   5.089
    1   AR   Ar  108   2.186   1.200   4.962
    1   AR   Ar  109   1.567   3.265   4.668
    1   AR   Ar  110   2.612   2.597   4.893
    1   AR   Ar  111   4.961   5.543   7.012
    1   AR   Ar  112   1.114   5.786   6.340
    1   AR   Ar  113   3.870   3.953  -0.883
    1   AR   Ar  114   1.758   0.041  -1.028
    1   AR   Ar  115   1.772   5.300  -0.033
    1   AR   Ar  116   6.037   0.588  -0.781
    1   AR   Ar  117   1.217   5.060   4.122
    1   AR   Ar  118   1.807   5.192   3.063
    1   AR   Ar  119   2.563   4.254   2.670
    1   AR   Ar  120   1.774   6.279   1.579
    1   AR   Ar  121   5.345   4.071   5.281
    1   AR   Ar  122   2.762   5.783   4.970
    1   AR   Ar  123   3.274   4.131   5.502
    1   AR   Ar  124   1.254   5.423   1.585
    1   AR   Ar  125   6.816   2.908   4.911
    1   AR   Ar  126   6.650   6.548   5.098
    1   AR   Ar  127   4.104   4.004   6.416
    1   AR   Ar  128   3.082   3.543   6.358
    1   AR   Ar  129   1.771   5.927   3.952
    1   AR   Ar  130   4.878   1.681  -3.852
    1   AR   Ar  131   3.998   3.821  -2.204
    1   AR   Ar  132   0.998   1.810   0.067
    1   AR   Ar  133   4.288   6.751   3.598
    1   AR   Ar  134   4.209   1.037   4.539
    1   AR   Ar  135   5.954   0.845   3.056
    1   AR   Ar  136   6.274   6.343   2.431
    1   AR   Ar  137   1.903   4.324   5.213
    1   AR   Ar  138   5.640   0.747   6.300
    1   AR   Ar  139   5.735   2.617   5.612
    1   AR   Ar  140   4.251   0.069   4.878
    1   AR   Ar  141   3.949   4.921   4.075
    1   AR   Ar  142   4.288   0.200   5.907
    1   AR   Ar  143   7.056   6.282   6.802
    1   AR   Ar  144   6.706   1.568   5.073
    1   AR   Ar  145   4.459   5.012  -0.995
    1   AR   Ar  146   3.289   2.298   2.661
    1   AR   Ar  147   4.556   2.776  -1.007
    1   AR   Ar  148   2.861   6.741  -1.115
    1   AR   Ar  149   1.986   1.661  -1.087
    1   AR   Ar  150   2.200   2.298   2.736
    1   AR   Ar  151   3.066   2.996   3.747
    1   AR   Ar  152   1.655   2.502  -1.685
    1   AR   Ar  153   5.303   0.347   4.457
    1   AR   Ar  154   3.831   2.105   3.738
    1   AR   Ar  155   6.929   4.059   5.481
    1   AR   Ar  156   2.849   4.609   3.671
    1   AR   Ar  157   1.357   4.097   6.087
    1   AR   Ar  158   0.230   1.529   6.144
    1   AR   Ar  159   3.491   1.128   6.430
    1   AR   Ar  160   1.603   2.110   4.742
    1   AR   Ar  161   5.280   4.726   2.926
    1   AR   Ar  162   4.239   5.863  -0.405
    1   AR   Ar  163   5.838   4.438   0.148
    1   AR   Ar  164   2.552   5.800   2.301
    1   AR   Ar  165   4.246   2.445   0.457
    1   AR   Ar  166   2.596   3.787   4.424
    1   AR   Ar  167   5.519   7.116   3.484
    1   AR   Ar  168   5.044   4.228  -1.483
    1   AR   Ar  169   3.541   4.062   2.866
    1   AR   Ar  170   2.199   3.335   5.862
    1   AR   Ar  171   5.993   3.603   4.450
    1   AR   Ar  172   4.249   4.194   5.068
    1   AR   Ar  173   1.952   2.110   6.380
    1   AR   Ar  174   2.284   6.158   6.155
    1   AR   Ar  175   4.018   1.816   5.479
    1   AR   Ar  176   3.561   2.898   4.589
    1   AR   Ar  177   0.844   5.092  -0.732
    1   AR   Ar  178   3.218   5.942   0.078
    1   AR   Ar  179   3.027   0.086   0.252
    1   AR   Ar  180   4.935   0.608  -4.121
    1   AR   Ar  181   7.040   5.391   1.728
    1   AR   Ar  182   1.988   6.619   2.844
    1   AR   Ar  183   4.997   5.174   1.947
    1   AR   Ar  184   4.690   6.734   0.489
    1   AR   Ar  185   3.137   4.808   4.809
    1   AR   Ar  186   2.520   5.880   3.288
    1   AR   Ar  187   3.336   6.749   3.088
    1   AR   Ar  188   2.991   6.798   2.112
    1   AR   Ar  189   4.969   3.028   6.226
    1   AR   Ar  190   3.497   5.902   4.142
    1   AR   Ar  191   2.216   6.477   7.138
    1   AR   Ar  192   4.483   6.243   5.659
    1   AR   Ar  193   3.186   6.504   1.159
    1   AR   Ar  194   5.315   3.633  -0.426
    1   AR   Ar  195   5.727   1.119   0.882
    1   AR   Ar  196   3.902   1.307  -0.536
    1   AR   Ar  197   3.898   1.368   0.913
    1   AR   Ar  198   5.625   0.524   1.929
    1   AR   Ar  199   2.492   0.411   2.900
    1   AR   Ar  200   5.322   2.888   0.334
    1   AR   Ar  201   5.624   6.000   3.343
    1   AR   Ar  202   5.324   1.366   4.507
    1   AR   Ar  203   0.082   6.906   3.288
    1   AR   Ar  204   5.791   5.651   5.867
    1   AR   Ar  205   6.924   1.016   1.473
    1   AR   Ar  206   5.933   0.183   5.236
    1   AR   Ar  207   0.741   2.239   5.444
    1   AR   Ar  208   0.556   6.331   4.275
    1   AR   Ar  209   0.105   2.311  -1.980
    1   AR   Ar  210   2.259   0.042   1.133
    1   AR   Ar  211   6.875   3.028   0.889
    1   AR   Ar  212   6.574   3.484   0.025
    1   AR   Ar  213   2.320   0.750   1.852
    1   AR   Ar  214   4.468   3.854   2.386
    1   AR   Ar  215   6.119   3.188   2.462
    1   AR   Ar  216   1.028   2.708   0.997
    1   AR   Ar  217   4.912   2.028   3.552
    1   AR   Ar  218   4.793   3.420   4.334
    1   AR   Ar  219   4.221   3.052   3.239
    1   AR   Ar  220   4.011   3.216   1.405
    1   AR   Ar  221   6.758   5.459   3.532
    1   AR   Ar  222   5.280   6.765   6.165
    1   AR   Ar  223   6.365   1.608   6.608
    1   AR   Ar  224   4.847   2.535   5.062
    1   AR   Ar  225   6.229   3.022   3.563
    1   AR   Ar  226   1.704   3.195   2.896
    1   AR   Ar  227   6.850   3.907   2.111
    1   AR   Ar  228   5.696   6.764   1.388
    1   AR   Ar  229   5.327   5.737  -1.505
    1   AR   Ar  230   3.633   3.818   3.911
    1   AR   Ar  231   5.007   1.377   2.508
    1   AR   Ar  232   5.231   2.589   1.611
    1   AR   Ar  233   6.460   1.961   3.709
    1   AR   Ar  234   5.568   2.499   4.285
    1   AR   Ar  235   7.077   1.071   3.999
    1   AR   Ar  236   4.911   5.026   5.505
    1   AR   Ar  237   5.710   2.468   6.895
    1   AR   Ar  238   5.865   4.061   6.275
    1   AR   Ar  239   0.410   4.633   9.551
    1   AR   Ar  240   6.641   2.837   7.526
    1   AR   Ar  241   1.816   6.066  -0.998
    1   AR   Ar  242   5.563   6.043   0.650
    1   AR   Ar  243   4.569   5.615   2.870
    1   AR   Ar  244   0.870   5.247   0.470
    1   AR   Ar  245   3.407   0.944   1.902
    1   AR   Ar  246   5.558   6.264  -0.604
    1   AR   Ar  247   6.080   3.804   1.166
    1   AR   Ar  248   5.418   5.313  -0.378
    1   AR   Ar  249   4.220   6.274   1.330
    1   AR   Ar  250   4.572   5.718   4.423
    1   AR   Ar  251   4.920   4.773   4.269
    1   AR   Ar  252   3.557   5.196   3.138
    1   AR   Ar  253   6.632   3.425   6.486
    1   AR   Ar  254   3.195   1.905   9.567
    1   AR   Ar  255   3.869   5.494   9.875
    1   AR   Ar  256   5.898   4.571   3.649
    7.12000  7.12000 12.00000
Argon-slab step 4055
  256
    1   AR   Ar    1   4.578   2.537  -2.760
    1   AR   Ar    2   6.388   0.281   0.301
    1   AR   Ar    3   4.034   2.217  -1.811
    1   AR   Ar    4   1.960   0.806  -0.292
    1   AR   Ar    5   6.742   6.158   0.849
    1   AR   Ar    6   0.607   1.997   2.175
    1   AR   Ar    7   5.413   3.628   3.409
    1   AR   Ar    8   4.667   1.322   0.274
    1   AR   Ar    9   1.076   7.012   3.388
    1   AR   Ar   10   0.248   0.225   4.460
    1   AR   Ar   11   1.975   0.072   4.133
    1   AR   Ar   12   0.912   0.856   3.175
    1   AR   Ar   13   7.081   0.589   5.323
    1   AR   Ar   14   4.816   1.050   7.552
    1   AR   Ar   15   3.221   6.597   8.615
    1   AR   Ar   16   0.960   7.042   5.146
    1   AR   Ar   17   6.098   2.115   0.888
    1   AR   Ar   18   6.436   4.839  -0.803
    1   AR   Ar   19   3.587   3.467  -0.013
    1   AR   Ar   20   6.777   4.480  -2.653
    1   AR   Ar   21   2.688   1.918   1.799
    1   AR   Ar   22   6.961   1.420   2.665
    1   AR   Ar   23   0.368   6.941   0.623
    1   AR   Ar   24   5.136   2.743   2.730
    1   AR   Ar   25   0.209   1.962   4.376
    1   AR   Ar   26   6.252   6.536   4.092
    1   AR   Ar   27   1.640   1.213   2.573
    1   AR   Ar   28   1.069   2.784   3.873
    1   AR   Ar   29   6.120   1.416   7.933
    1   AR   Ar   30   1.874   0.977   3.655
    1   AR   Ar   31   3.386   6.809   7.595
    1   AR   Ar   32   0.754   2.508   6.556
    1   AR   Ar   33   0.711   3.946  -0.642
    1   AR   Ar   34   0.447   4.733   2.400
    1   AR   Ar   35   5.943   5.658   1.637
    1   AR   Ar   36   6.171   2.592  -2.425
    1   AR   Ar   37   4.283   2.328   2.259
    1   AR   Ar   38   6.793   3.999   3.337
    1   AR   Ar   39   0.574   3.695   2.943
    1   AR   Ar   40   2.043   4.473   1.675
    1   AR   Ar   41   0.473   2.396   3.130
    1   AR   Ar   42   5.916   5.157   4.811
    1   AR   Ar   43   6.890   2.418   5.941
    1   AR   Ar   44   0.294   4.758   3.627
    1   AR   Ar   45   0.452   3.541   6.119
    1   AR   Ar   46   0.234   4.919   4.945
    1   AR   Ar   47   3.932   4.437   7.527
    1   AR   Ar   48   5.814   3.452   7.458
    1   AR   Ar   49   5.366   0.108  -1.467
    1   AR   Ar   50   3.881   4.893   0.270
    1   AR   Ar   51   5.759   4.541   1.853
    1   AR   Ar   52   5.316   2.934  -1.854
    1   AR   Ar   53   5.242   6.417   2.401
    1   AR   Ar   54   0.847   6.482   2.372
    1   AR   Ar   55   6.305   5.185   2.519
    1   AR   Ar   56   6.714   0.347   2.497
    1   AR   Ar   57   4.413   4.203   3.416
    1   AR   Ar   58   0.186   3.494   4.064
    1   AR   Ar   59   2.254   5.083   5.690
    1   AR   Ar   60   0.657   5.831   3.371
    1   AR   Ar   61   0.326   4.359   7.008
    1   AR   Ar   62   6.724   4.420   4.465
    1   AR   Ar   63   1.053   1.183   6.738
    1   AR   Ar   64   0.912   5.709   5.032
    1   AR   Ar   65   3.921   0.176   0.946
    1   AR   Ar   66   0.880   1.357   0.995
    1   AR   Ar   67   4.468   0.077  -0.990
    1   AR   Ar   68   1.091   0.772  -0.831
    1   AR   Ar   69   2.734   1.472  -0.294
    1   AR   Ar   70   0.707   0.875   2.193
    1   AR   Ar   71   2.881   1.346   3.145
    1   AR   Ar   72   4.582   0.201   2.033
    1   AR   Ar   73   3.750   0.855   3.551
    1   AR   Ar   74   1.047   0.982   4.244
    1   AR   Ar   75   3.152   0.813   4.602
    1   AR   Ar   76   1.222   0.118   1.576
    1   AR   Ar   77   2.320   6.791   5.125
    1   AR   Ar   78   0.054   5.796   5.743
    1   AR   Ar   79   3.733   6.420   6.659
    1   AR   Ar   80   3.953   5.320   5.121
    1   AR   Ar   81   2.211   6.602  -0.176
    1   AR   Ar   82   6.792   4.833   0.501
    1   AR   Ar   83   1.619   2.919  -0.725
    1   AR   Ar   84   0.863   4.288   1.080
    1   AR   Ar   85   1.861   3.333   0.765
    1   AR   Ar   86   2.085   5.429   0.996
    1   AR   Ar   87   2.080   2.998   1.952
    1   AR   Ar   88   2.904   5.015   1.631
    1   AR   Ar   89   6.896   2.612   2.126
    1   AR   Ar   90   3.130   1.938   4.397
    1   AR   Ar   91   1.390   1.966   3.275
    1   AR   Ar   92   1.208   3.554   2.017
    1   AR   Ar   93   0.855   1.021   5.413
    1   AR   Ar   94   0.787   6.354  10.790
    1   AR   Ar   95   4.693   1.016   5.451
    1   AR   Ar   96   3.126   6.915   4.124
    1   AR   Ar   97   3.642   2.428  -0.396
    1   AR   Ar   98   1.693   4.213   3.684
    1   AR   Ar   99   6.993   1.860   0.266
    1   AR   Ar  100   0.728   3.127  -1.256
    1   AR   Ar  101   3.834   6.145   2.347
    1   AR   Ar  102   3.999   1.434   2.645
    1   AR   Ar  103   2.015   4.475   0.580
    1   AR   Ar  104   3.370   4.942  -1.279
    1   AR   Ar  105   2.244   1.907   3.858
    1   AR   Ar  106   4.113   3.027   5.713
    1   AR   Ar  107   0.804   3.914   5.086
    1   AR   Ar  108   2.218   1.209   4.940
    1   AR   Ar  109   1.577   3.259   4.669
    1   AR   Ar  110   2.581   2.627   4.896
    1   AR   Ar  111   4.977   5.534   7.001
    1   AR   Ar  112   1.078   5.836   6.328
    1   AR   Ar  113   3.875   3.938  -0.939
    1   AR   Ar  114   1.751   0.026  -1.038
    1   AR   Ar  115   1.778   5.275  -0.009
    1   AR   Ar  116   6.008   0.596  -0.735
    1   AR   Ar  117   1.210   5.027   4.132
    1   AR   Ar  118   1.794   5.201   3.078
    1   AR   Ar  119   2.528   4.243   2.676
    1   AR   Ar  120   1.781   6.300   1.591
    1   AR   Ar  121   5.343   4.059   5.247
    1   AR   Ar  122   2.721   5.786   4.978
    1   AR   Ar  123   3.247   4.146   5.494
    1   AR   Ar  124   1.219   5.460   1.624
    1   AR   Ar  125   6.809   2.892   4.889
    1   AR   Ar  126   6.672   6.556   5.083
    1   AR   Ar  127   4.092   4.015   6.421
    1   AR   Ar  128   3.071   3.558   6.385
    1   AR   Ar  129   1.789   5.930   3.951
    1   AR   Ar  130   4.890   1.691  -3.863
    1   AR   Ar  131   3.964   3.836  -2.233
    1   AR   Ar  132   0.995   1.817   0.060
    1   AR   Ar  133   4.277   6.725   3.585
    1   AR   Ar  134   4.197   1.047   4.521
    1   AR   Ar  135   5.953   0.849   3.069
    1   AR   Ar  136   6.302   6.364   2.433
    1   AR   Ar  137   1.912   4.311   5.203
    1   AR   Ar  138   5.650   0.760   6.287
    1   AR   Ar  139   5.701   2.636   5.620
    1   AR   Ar  140   4.241   0.073   4.870
    1   AR   Ar  141   3.962   4.935   4.048
    1   AR   Ar  142   4.262   0.228   5.896
    1   AR   Ar  143   7.058   6.253   6.776
    1   AR   Ar  144   6.677   1.540   5.069
    1   AR   Ar  145   4.476   5.044  -0.967
    1   AR   Ar  146   3.295   2.315   2.661
    1   AR   Ar  147   4.535   2.789  -1.012
    1   AR   Ar  148   2.842   6.740  -1.110
    1   AR   Ar  149   1.990   1.634  -1.071
    1   AR   Ar  150   2.190   2.318   2.721
    1   AR   Ar  151   3.057   2.973   3.737
    1   AR   Ar  152   1.656   2.476  -1.708
    1   AR   Ar  153   5.312   0.359   4.445
    1   AR   Ar  154   3.887   2.113   3.753
    1   AR   Ar  155   6.935   4.066   5.472
    1   AR   Ar  156   2.871   4.651   3.675
    1   AR   Ar  157   1.366   4.122   6.126
    1   AR   Ar  158   0.220   1.528   6.110
    1   AR   Ar  159   3.491   1.120   6.431
    1   AR   Ar  160   1.588   2.100   4.764
    1   AR   Ar  161   5.260   4.744   2.891
    1   AR   Ar  162   4.232   5.853  -0.407
    1   AR   Ar  163   5.802   4.431   0.147
    1   AR   Ar  164   2.522   5.788   2.281
    1   AR   Ar  165   4.199   2.414   0.456
    1   AR   Ar  166   2.583   3.808   4.436
    1   AR   Ar  167   5.544   7.102   3.472
    1   AR   Ar  168   5.037   4.241  -1.484
    1   AR   Ar  169   3.533   4.037   2.874
    1   AR   Ar  170   2.172   3.308   5.870
    1   AR   Ar  171   5.985   3.580   4.458
    1   AR   Ar  172   4.247   4.177   5.090
    1   AR   Ar  173   1.963   2.081   6.359
    1   AR   Ar  174   2.261   6.172   6.142
    1   AR   Ar  175   4.003   1.845   5.500
    1   AR   Ar  176   3.570   2.929   4.594
    1   AR   Ar  177   0.848   5.104  -0.709
    1   AR   Ar  178   3.198   5.953   0.073
    1   AR   Ar  179   3.020   0.073   0.246
    1   AR   Ar  180   4.957   0.635  -4.133
    1   AR   Ar  181   7.050   5.393   1.707
    1   AR   Ar  182   1.940   6.624   2.851
    1   AR   Ar  183   5.013   5.171   1.944
    1   AR   Ar  184   4.685   6.714   0.506
    1   AR   Ar  185   3.129   4.820   4.796
    1   AR   Ar  186   2.510   5.856   3.306
    1   AR   Ar  187   3.359   6.761   3.092
    1   AR   Ar  188   2.984   6.836   2.109
    1   AR   Ar  189   4.991   3.061   6.233
    1   AR   Ar  190   3.507   5.900   4.159
    1   AR   Ar  191   2.226   6.471   7.156
    1   AR   Ar  192   4.461   6.277   5.663
    1   AR   Ar  193   3.197   6.466   1.171
    1   AR   Ar  194   5.347   3.634  -0.412
    1   AR   Ar  195   5.702   1.065   0.926
    1   AR   Ar  196   3.883   1.305  -0.537
    1   AR   Ar  197   3.915   1.380   0.936
    1   AR   Ar  198   5.617   0.523   1.958
    1   AR   Ar  199   2.478   0.384   2.906
    1   AR   Ar  200   5.294   2.887   0.358
    1   AR   Ar  201   5.598   5.956   3.379
    1   AR   Ar  202   5.325   1.389   4.495
    1   AR   Ar  203   0.063   6.935   3.302
    1   AR   Ar  204   5.822   5.629   5.874
    1   AR   Ar  205   6.920   1.071   1.478
    1   AR   Ar  206   5.938   0.202   5.265
    1   AR   Ar  207   0.722   2.193   5.453
    1   AR   Ar  208   0.561   6.311   4.246
    1   AR   Ar  209   0.113   2.304  -1.998
    1   AR   Ar  210   2.252   0.014   1.149
    1   AR   Ar  211   6.857   3.058   0.898
    1   AR   Ar  212   6.560   3.458   0.038
    1   AR   Ar  213   2.302   0.756   1.868
    1   AR   Ar  214   4.483   3.875   2.389
    1   AR   Ar  215   6.133   3.185   2.447
    1   AR   Ar  216   1.030   2.704   0.976
    1   AR   Ar  217   4.900   1.999   3.559
    1   AR   Ar  218   4.787   3.408   4.354
    1   AR   Ar  219   4.218   3.064   3.236
    1   AR   Ar  220   4.027   3.217   1.413
    1   AR   Ar  221   6.756   5.471   3.502
    1   AR   Ar  222   5.303   6.776   6.170
    1   AR   Ar  223   6.380   1.599   6.605
    1   AR   Ar  224   4.856   2.549   5.051
    1   AR   Ar  225   6.218   3.030   3.569
    1   AR   Ar  226   1.679   3.226   2.921
    1   AR   Ar  227   6.873   3.926   2.098
    1   AR   Ar  228   5.699   6.768   1.364
    1   AR   Ar  229   5.332   5.733  -1.500
    1   AR   Ar  230   3.632   3.835   3.942
    1   AR   Ar  231   5.033   1.365   2.480
    1   AR   Ar  232   5.254   2.604   1.612
    1   AR   Ar  233   6.485   1.955   3.713
    1   AR   Ar  234   5.527   2.504   4.261
    1   AR   Ar  235   7.073   1.068   4.016
    1   AR   Ar  236   4.926   5.037   5.502
    1   AR   Ar  237   5.695   2.456   6.895
    1   AR   Ar  238   5.856   4.066   6.253
    1   AR   Ar  239   0.420   4.613   9.537
    1   AR   Ar  240   6.629   2.800   7.532
    1   AR   Ar  241   1.820   6.079  -0.995
    1   AR   Ar  242   5.544   6.066   0.661
    1   AR   Ar  243   4.568   5.638   2.848
    1   AR   Ar  244   0.887   5.252   0.469
    1   AR   Ar  245   3.430   0.917   1.904
    1   AR   Ar  246   5.561   6.283  -0.616
    1   AR   Ar  247   6.102   3.777   1.162
    1   AR   Ar  248   5.370   5.301  -0.365
    1   AR   Ar  249   4.234   6.277   1.354
    1   AR   Ar  250   4.550   5.733   4.414
    1   AR   Ar  251   4.953   4.800   4.233
    1   AR   Ar  252   3.581   5.194   3.091
    1   AR   Ar  253   6.601   3.426   6.489
    1   AR   Ar  254   3.214   1.892   9.579
    1   AR   Ar  255   3.913   5.506   9.877
    1   AR   Ar  256   5.890   4.553   3.619
    7.12000  7.12000 12.00000
Argon-slab step 4060
  256
    1   AR   Ar    1   4.568   2.562  -2.799
    1   AR   Ar    2   6.381   0.273   0.255
    1   AR   Ar    3   4.036   2.246  -1.808
    1   AR   Ar    4   1.938   0.834  -0.278
    1   AR   Ar    5   6.721   6.144   0.857
    1   AR   Ar    6   0.616   1.990   2.168
    1   AR   Ar    7   5.425   3.668   3.444
    1   AR   Ar    8   4.675   1.336   0.281
    1   AR   Ar    9   1.083   7.020   3.367
    1   AR   Ar   10   0.243   0.206   4.451
    1   AR   Ar   11   1.976   0.053   4.150
    1   AR   Ar   12   0.897   0.837   3.192
    1   AR   Ar   13   7.079   0.573   5.336
    1   AR   Ar   14   4.801   1.049   7.536
    1   AR   Ar   15   3.223   6.620   8.628
    1   AR   Ar   16   1.000   7.020   5.155
    1   AR   Ar   17   6.066   2.104   0.926
    1   AR   Ar   18   6.445   4.874  -0.767
    1   AR   Ar   19   3.572   3.454  -0.019
    1   AR   Ar   20   6.795   4.494  -2.631
    1   AR   Ar   21   2.690   1.922   1.791
    1   AR   Ar   22   6.970   1.427   2.643
    1   AR   Ar   23   0.348   6.940   0.642
    1   AR   Ar   24   5.081   2.753   2.712
    1   AR   Ar   25   0.204   2.016   4.396
    1   AR   Ar   26   6.246   6.546   4.117
    1   AR   Ar   27   1.648   1.193   2.562
    1   AR   Ar   28   1.064   2.806   3.873
    1   AR   Ar   29   6.124   1.417   7.917
    1   AR   Ar   30   1.860   0.960   3.662
    1   AR   Ar   31   3.378   6.829   7.627
    1   AR   Ar   32   0.735   2.526   6.576
    1   AR   Ar   33   0.733   3.952  -0.605
    1   AR   Ar   34   0.461   4.740   2.373
    1   AR   Ar   35   5.907   5.674   1.636
    1   AR   Ar   36   6.150   2.600  -2.427
    1   AR   Ar   37   4.302   2.350   2.258
    1   AR   Ar   38   6.800   3.967   3.380
    1   AR   Ar   39   0.567   3.692   2.926
    1   AR   Ar   40   2.052   4.486   1.670
    1   AR   Ar   41   0.478   2.404   3.126
    1   AR   Ar   42   5.901   5.168   4.802
    1   AR   Ar   43   6.885   2.449   5.968
    1   AR   Ar   44   0.313   4.767   3.601
    1   AR   Ar   45   0.441   3.522   6.156
    1   AR   Ar   46   0.232   4.912   4.964
    1   AR   Ar   47   3.907   4.472   7.547
    1   AR   Ar   48   5.778   3.459   7.475
    1   AR   Ar   49   5.380   0.099  -1.452
    1   AR   Ar   50   3.864   4.859   0.282
    1   AR   Ar   51   5.751   4.497   1.858
    1   AR   Ar   52   5.319   2.915  -1.836
    1   AR   Ar   53   5.258   6.378   2.404
    1   AR   Ar   54   0.877   6.501   2.361
    1   AR   Ar   55   6.356   5.162   2.544
    1   AR   Ar   56   6.702   0.370   2.492
    1   AR   Ar   57   4.394   4.218   3.433
    1   AR   Ar   58   0.241   3.507   4.073
    1   AR   Ar   59   2.255   5.109   5.706
    1   AR   Ar   60   0.634   5.827   3.394
    1   AR   Ar   61   0.334   4.315   7.018
    1   AR   Ar   62   6.731   4.428   4.454
    1   AR   Ar   63   1.052   1.224   6.732
    1   AR   Ar   64   0.972   5.722   5.021
    1   AR   Ar   65   3.887   0.150   0.939
    1   AR   Ar   66   0.898   1.392   1.010
    1   AR   Ar   67   4.462   0.089  -0.996
    1   AR   Ar   68   1.085   0.748  -0.819
    1   AR   Ar   69   2.727   1.500  -0.312
    1   AR   Ar   70   0.697   0.837   2.179
    1   AR   Ar   71   2.862   1.354   3.109
    1   AR   Ar   72   4.610   0.226   1.984
    1   AR   Ar   73   3.700   0.868   3.519
    1   AR   Ar   74   1.011   0.970   4.249
    1   AR   Ar   75   3.190   0.837   4.584
    1   AR   Ar   76   1.220   0.153   1.557
    1   AR   Ar   77   2.316   6.788   5.144
    1   AR   Ar   78   0.037   5.773   5.753
    1   AR   Ar   79   3.736   6.408   6.676
    1   AR   Ar   80   3.930   5.307   5.122
    1   AR   Ar   81   2.230   6.634  -0.137
    1   AR   Ar   82   6.817   4.830   0.529
    1   AR   Ar   83   1.629   2.962  -0.718
    1   AR   Ar   84   0.892   4.299   1.067
    1   AR   Ar   85   1.863   3.342   0.765
    1   AR   Ar   86   2.081   5.438   1.000
    1   AR   Ar   87   2.081   2.984   1.955
    1   AR   Ar   88   2.931   5.024   1.588
    1   AR   Ar   89   6.897   2.591   2.120
    1   AR   Ar   90   3.114   1.931   4.416
    1   AR   Ar   91   1.369   1.949   3.232
    1   AR   Ar   92   1.229   3.570   2.024
    1   AR   Ar   93   0.834   1.031   5.423
    1   AR   Ar   94   0.803   6.372  10.765
    1   AR   Ar   95   4.701   1.040   5.432
    1   AR   Ar   96   3.149   6.925   4.094
    1   AR   Ar   97   3.648   2.425  -0.390
    1   AR   Ar   98   1.681   4.241   3.689
    1   AR   Ar   99   7.013   1.866   0.288
    1   AR   Ar  100   0.719   3.134  -1.282
    1   AR   Ar  101   3.796   6.151   2.356
    1   AR   Ar  102   3.966   1.438   2.660
    1   AR   Ar  103   1.994   4.467   0.596
    1   AR   Ar  104   3.375   4.968  -1.276
    1   AR   Ar  105   2.264   1.923   3.842
    1   AR   Ar  106   4.098   3.010   5.726
    1   AR   Ar  107   0.836   3.958   5.071
    1   AR   Ar  108   2.247   1.218   4.917
    1   AR   Ar  109   1.591   3.253   4.673
    1   AR   Ar  110   2.568   2.640   4.894
    1   AR   Ar  111   4.992   5.525   6.989
    1   AR   Ar  112   1.042   5.885   6.313
    1   AR   Ar  113   3.866   3.934  -0.978
    1   AR   Ar  114   1.748   0.009  -1.050
    1   AR   Ar  115   1.788   5.281   0.016
    1   AR   Ar  116   5.980   0.605  -0.688
    1   AR   Ar  117   1.200   4.998   4.144
    1   AR   Ar  118   1.774   5.204   3.091
    1   AR   Ar  119   2.487   4.235   2.681
    1   AR   Ar  120   1.792   6.326   1.607
    1   AR   Ar  121   5.341   4.047   5.211
    1   AR   Ar  122   2.680   5.790   4.985
    1   AR   Ar  123   3.220   4.153   5.494
    1   AR   Ar  124   1.185   5.469   1.642
    1   AR   Ar  125   6.802   2.874   4.868
    1   AR   Ar  126   6.680   6.551   5.091
    1   AR   Ar  127   4.081   4.025   6.425
    1   AR   Ar  128   3.062   3.573   6.414
    1   AR   Ar  129   1.795   5.937   3.960
    1   AR   Ar  130   4.901   1.702  -3.874
    1   AR   Ar  131   3.930   3.852  -2.259
    1   AR   Ar  132   0.994   1.825   0.049
    1   AR   Ar  133   4.268   6.699   3.574
    1   AR   Ar  134   4.187   1.063   4.499
    1   AR   Ar  135   5.943   0.833   3.050
    1   AR   Ar  136   6.333   6.385   2.436
    1   AR   Ar  137   1.918   4.284   5.184
    1   AR   Ar  138   5.659   0.773   6.272
    1   AR   Ar  139   5.677   2.655   5.628
    1   AR   Ar  140   4.231   0.071   4.859
    1   AR   Ar  141   3.968   4.945   4.022
    1   AR   Ar  142   4.233   0.250   5.894
    1   AR   Ar  143   7.060   6.224   6.748
    1   AR   Ar  144   6.644   1.513   5.068
    1   AR   Ar  145   4.494   5.069  -0.943
    1   AR   Ar  146   3.300   2.332   2.664
    1   AR   Ar  147   4.515   2.803  -1.017
    1   AR   Ar  148   2.835   6.730  -1.088
    1   AR   Ar  149   1.994   1.600  -1.037
    1   AR   Ar  150   2.185   2.333   2.708
    1   AR   Ar  151   3.042   2.946   3.718
    1   AR   Ar  152   1.656   2.449  -1.733
    1   AR   Ar  153   5.316   0.368   4.433
    1   AR   Ar  154   3.944   2.123   3.763
    1   AR   Ar  155   6.936   4.073   5.462
    1   AR   Ar  156   2.891   4.692   3.681
    1   AR   Ar  157   1.375   4.148   6.164
    1   AR   Ar  158   0.211   1.520   6.077
    1   AR   Ar  159   3.492   1.111   6.430
    1   AR   Ar  160   1.572   2.091   4.785
    1   AR   Ar  161   5.233   4.763   2.850
    1   AR   Ar  162   4.223   5.848  -0.404
    1   AR   Ar  163   5.807   4.439   0.178
    1   AR   Ar  164   2.491   5.778   2.256
    1   AR   Ar  165   4.157   2.383   0.462
    1   AR   Ar  166   2.571   3.830   4.448
    1   AR   Ar  167   5.566   7.083   3.458
    1   AR   Ar  168   5.030   4.254  -1.484
    1   AR   Ar  169   3.524   4.012   2.883
    1   AR   Ar  170   2.141   3.281   5.875
    1   AR   Ar  171   5.976   3.557   4.467
    1   AR   Ar  172   4.246   4.161   5.110
    1   AR   Ar  173   1.973   2.052   6.337
    1   AR   Ar  174   2.237   6.185   6.125
    1   AR   Ar  175   3.987   1.875   5.519
    1   AR   Ar  176   3.587   2.961   4.607
    1   AR   Ar  177   0.853   5.116  -0.684
    1   AR   Ar  178   3.176   5.966   0.069
    1   AR   Ar  179   3.015   0.059   0.240
    1   AR   Ar  180   4.973   0.669  -4.163
    1   AR   Ar  181   7.059   5.395   1.685
    1   AR   Ar  182   1.889   6.626   2.855
    1   AR   Ar  183   5.021   5.165   1.952
    1   AR   Ar  184   4.682   6.693   0.518
    1   AR   Ar  185   3.115   4.835   4.770
    1   AR   Ar  186   2.522   5.835   3.324
    1   AR   Ar  187   3.379   6.773   3.097
    1   AR   Ar  188   2.972   6.877   2.108
    1   AR   Ar  189   5.010   3.091   6.243
    1   AR   Ar  190   3.514   5.899   4.174
    1   AR   Ar  191   2.237   6.466   7.177
    1   AR   Ar  192   4.441   6.297   5.663
    1   AR   Ar  193   3.206   6.427   1.178
    1   AR   Ar  194   5.379   3.636  -0.401
    1   AR   Ar  195   5.677   1.010   0.970
    1   AR   Ar  196   3.863   1.303  -0.537
    1   AR   Ar  197   3.925   1.392   0.966
    1   AR   Ar  198   5.612   0.525   1.989
    1   AR   Ar  199   2.465   0.359   2.911
    1   AR   Ar  200   5.265   2.885   0.383
    1   AR   Ar  201   5.572   5.911   3.414
    1   AR   Ar  202   5.325   1.419   4.483
    1   AR   Ar  203   0.053   6.937   3.314
    1   AR   Ar  204   5.843   5.626   5.879
    1   AR   Ar  205   6.917   1.126   1.483
    1   AR   Ar  206   5.944   0.222   5.298
    1   AR   Ar  207   0.704   2.149   5.460
    1   AR   Ar  208   0.564   6.297   4.223
    1   AR   Ar  209   0.121   2.298  -2.016
    1   AR   Ar  210   2.248   7.104   1.161
    1   AR   Ar  211   6.844   3.082   0.917
    1   AR   Ar  212   6.539   3.443   0.027
    1   AR   Ar  213   2.287   0.764   1.886
    1   AR   Ar  214   4.500   3.895   2.392
    1   AR   Ar  215   6.140   3.188   2.435
    1   AR   Ar  216   1.030   2.698   0.957
    1   AR   Ar  217   4.904   1.992   3.565
    1   AR   Ar  218   4.780   3.399   4.373
    1   AR   Ar  219   4.214   3.078   3.233
    1   AR   Ar  220   4.044   3.216   1.422
    1   AR   Ar  221   6.743   5.493   3.471
    1   AR   Ar  222   5.326   6.787   6.173
    1   AR   Ar  223   6.394   1.592   6.602
    1   AR   Ar  224   4.857   2.562   5.040
    1   AR   Ar  225   6.214   3.035   3.575
    1   AR   Ar  226   1.652   3.259   2.951
    1   AR   Ar  227   6.894   3.946   2.084
    1   AR   Ar  228   5.703   6.775   1.345
    1   AR   Ar  229   5.335   5.726  -1.495
    1   AR   Ar  230   3.627   3.853   3.979
    1   AR   Ar  231   5.062   1.354   2.452
    1   AR   Ar  232   5.277   2.620   1.613
    1   AR   Ar  233   6.509   1.948   3.716
    1   AR   Ar  234   5.491   2.510   4.235
    1   AR   Ar  235   7.063   1.062   4.024
    1   AR   Ar  236   4.941   5.048   5.498
    1   AR   Ar  237   5.681   2.446   6.894
    1   AR   Ar  238   5.841   4.075   6.228
    1   AR   Ar  239   0.416   4.584   9.523
    1   AR   Ar  240   6.619   2.760   7.536
    1   AR   Ar  241   1.824   6.088  -0.993
    1   AR   Ar  242   5.526   6.082   0.665
    1   AR   Ar  243   4.572   5.658   2.831
    1   AR   Ar  244   0.897   5.257   0.473
    1   AR   Ar  245   3.452   0.888   1.903
    1   AR   Ar  246   5.563   6.309  -0.627
    1   AR   Ar  247   6.120   3.759   1.147
    1   AR   Ar  248   5.321   5.285  -0.351
    1   AR   Ar  249   4.250   6.280   1.381
    1   AR   Ar  250   4.533   5.758   4.403
    1   AR   Ar  251   4.996   4.821   4.199
    1   AR   Ar  252   3.606   5.194   3.041
    1   AR   Ar  253   6.572   3.419   6.495
    1   AR   Ar  254   3.233   1.878   9.590
    1   AR   Ar  255   3.932   5.514   9.879
    1   AR   Ar  256   5.893   4.537   3.601
    7.12000  7.12000 12.00000
Argon-slab step 4065
  256
    1   AR   Ar    1   4.559   2.586  -2.837
    1   AR   Ar    2   6.375   0.264   0.213
    1   AR   Ar    3   4.037   2.274  -1.806
    1   AR   Ar    4   1.904   0.864  -0.253
    1   AR   Ar    5   6.699   6.129   0.867
    1   AR   Ar    6   0.632   1.980   2.157
    1   AR   Ar    7   5.427   3.704   3.477
    1   AR   Ar    8   4.689   1.351   0.283
    1   AR   Ar    9   1.095   7.015   3.353
    1   AR   Ar   10   0.248   0.159   4.431
    1   AR   Ar   11   1.976   0.030   4.168
    1   AR   Ar   12   0.893   0.869   3.231
    1   AR   Ar   13   7.066   0.553   5.357
    1   AR   Ar   14   4.786   1.030   7.505
    1   AR   Ar   15   3.224   6.641   8.647
    1   AR   Ar   16   1.041   6.997   5.164
    1   AR   Ar   17   6.033   2.095   0.965
    1   AR   Ar   18   6.453   4.909  -0.729
    1   AR   Ar   19   3.558   3.441  -0.023
    1   AR   Ar   20   6.812   4.508  -2.609
    1   AR   Ar   21   2.692   1.924   1.785
    1   AR   Ar   22   6.978   1.433   2.623
    1   AR   Ar   23   0.328   6.940   0.662
    1   AR   Ar   24   5.040   2.769   2.699
    1   AR   Ar   25   0.204   2.074   4.417
    1   AR   Ar   26   6.242   6.555   4.141
    1   AR   Ar   27   1.633   1.167   2.543
    1   AR   Ar   28   1.062   2.827   3.875
    1   AR   Ar   29   6.124   1.422   7.886
    1   AR   Ar   30   1.851   0.944   3.663
    1   AR   Ar   31   3.366   6.858   7.667
    1   AR   Ar   32   0.715   2.543   6.594
    1   AR   Ar   33   0.757   3.956  -0.556
    1   AR   Ar   34   0.476   4.747   2.349
    1   AR   Ar   35   5.874   5.692   1.636
    1   AR   Ar   36   6.131   2.608  -2.430
    1   AR   Ar   37   4.314   2.371   2.249
    1   AR   Ar   38   6.795   3.937   3.418
    1   AR   Ar   39   0.546   3.672   2.936
    1   AR   Ar   40   2.058   4.495   1.667
    1   AR   Ar   41   0.471   2.415   3.120
    1   AR   Ar   42   5.886   5.178   4.792
    1   AR   Ar   43   6.878   2.484   5.993
    1   AR   Ar   44   0.338   4.771   3.576
    1   AR   Ar   45   0.435   3.501   6.191
    1   AR   Ar   46   0.249   4.921   4.996
    1   AR   Ar   47   3.878   4.489   7.523
    1   AR   Ar   48   5.760   3.471   7.479
    1   AR   Ar   49   5.399   0.089  -1.439
    1   AR   Ar   50   3.847   4.826   0.292
    1   AR   Ar   51   5.751   4.447   1.864
    1   AR   Ar   52   5.318   2.896  -1.816
    1   AR   Ar   53   5.272   6.340   2.406
    1   AR   Ar   54   0.906   6.510   2.351
    1   AR   Ar   55   6.405   5.138   2.567
    1   AR   Ar   56   6.700   0.397   2.477
    1   AR   Ar   57   4.387   4.232   3.445
    1   AR   Ar   58   0.300   3.516   4.089
    1   AR   Ar   59   2.258   5.138   5.725
    1   AR   Ar   60   0.616   5.814   3.399
    1   AR   Ar   61   0.321   4.279   7.024
    1   AR   Ar   62   6.720   4.422   4.426
    1   AR   Ar   63   1.051   1.267   6.724
    1   AR   Ar   64   1.033   5.735   5.012
    1   AR   Ar   65   3.851   0.127   0.935
    1   AR   Ar   66   0.915   1.426   1.029
    1   AR   Ar   67   4.467   0.093  -1.002
    1   AR   Ar   68   1.070   0.729  -0.808
    1   AR   Ar   69   2.732   1.462  -0.311
    1   AR   Ar   70   0.682   0.802   2.162
    1   AR   Ar   71   2.842   1.366   3.070
    1   AR   Ar   72   4.635   0.250   1.935
    1   AR   Ar   73   3.652   0.877   3.490
    1   AR   Ar   74   0.974   0.959   4.260
    1   AR   Ar   75   3.224   0.859   4.564
    1   AR   Ar   76   1.218   0.187   1.538
    1   AR   Ar   77   2.311   6.787   5.161
    1   AR   Ar   78   0.020   5.749   5.762
    1   AR   Ar   79   3.741   6.396   6.691
    1   AR   Ar   80   3.911   5.296   5.128
    1   AR   Ar   81   2.245   6.664  -0.098
    1   AR   Ar   82   6.843   4.827   0.559
    1   AR   Ar   83   1.641   3.005  -0.710
    1   AR   Ar   84   0.922   4.311   1.054
    1   AR   Ar   85   1.866   3.352   0.766
    1   AR   Ar   86   2.077   5.441   1.007
    1   AR   Ar   87   2.084   2.973   1.949
    1   AR   Ar   88   2.963   5.036   1.545
    1   AR   Ar   89   6.899   2.570   2.112
    1   AR   Ar   90   3.105   1.919   4.436
    1   AR   Ar   91   1.350   1.927   3.193
    1   AR   Ar   92   1.245   3.591   2.028
    1   AR   Ar   93   0.826   1.043   5.428
    1   AR   Ar   94   0.818   6.390  10.740
    1   AR   Ar   95   4.713   1.067   5.412
    1   AR   Ar   96   3.128   6.946   4.095
    1   AR   Ar   97   3.649   2.421  -0.393
    1   AR   Ar   98   1.674   4.263   3.689
    1   AR   Ar   99   7.033   1.872   0.311
    1   AR   Ar  100   0.709   3.138  -1.312
    1   AR   Ar  101   3.754   6.157   2.362
    1   AR   Ar  102   3.933   1.442   2.677
    1   AR   Ar  103   1.972   4.451   0.613
    1   AR   Ar  104   3.382   4.994  -1.271
    1   AR   Ar  105   2.282   1.943   3.825
    1   AR   Ar  106   4.080   2.995   5.736
    1   AR   Ar  107   0.868   4.003   5.055
    1   AR   Ar  108   2.274   1.229   4.892
    1   AR   Ar  109   1.608   3.249   4.680
    1   AR   Ar  110   2.566   2.644   4.890
    1   AR   Ar  111   5.008   5.516   6.975
    1   AR   Ar  112   1.007   5.935   6.298
    1   AR   Ar  113   3.833   3.946  -0.991
    1   AR   Ar  114   1.751   7.111  -1.063
    1   AR   Ar  115   1.785   5.328   0.040
    1   AR   Ar  116   5.952   0.614  -0.641
    1   AR   Ar  117   1.229   5.012   4.140
    1   AR   Ar  118   1.748   5.202   3.102
    1   AR   Ar  119   2.445   4.227   2.687
    1   AR   Ar  120   1.802   6.348   1.627
    1   AR   Ar  121   5.340   4.033   5.174
    1   AR   Ar  122   2.654   5.797   4.989
    1   AR   Ar  123   3.193   4.153   5.500
    1   AR   Ar  124   1.154   5.461   1.646
    1   AR   Ar  125   6.795   2.858   4.847
    1   AR   Ar  126   6.667   6.527   5.136
    1   AR   Ar  127   4.071   4.034   6.427
    1   AR   Ar  128   3.058   3.583   6.425
    1   AR   Ar  129   1.761   5.924   3.958
    1   AR   Ar  130   4.913   1.715  -3.883
    1   AR   Ar  131   3.897   3.867  -2.285
    1   AR   Ar  132   0.993   1.834   0.036
    1   AR   Ar  133   4.266   6.671   3.568
    1   AR   Ar  134   4.182   1.085   4.475
    1   AR   Ar  135   5.933   0.824   3.032
    1   AR   Ar  136   6.365   6.405   2.440
    1   AR   Ar  137   1.921   4.253   5.162
    1   AR   Ar  138   5.668   0.785   6.256
    1   AR   Ar  139   5.662   2.664   5.662
    1   AR   Ar  140   4.222   0.066   4.845
    1   AR   Ar  141   3.967   4.954   4.000
    1   AR   Ar  142   4.201   0.269   5.898
    1   AR   Ar  143   7.062   6.196   6.720
    1   AR   Ar  144   6.611   1.488   5.068
    1   AR   Ar  145   4.512   5.084  -0.928
    1   AR   Ar  146   3.304   2.349   2.669
    1   AR   Ar  147   4.495   2.820  -1.019
    1   AR   Ar  148   2.826   6.720  -1.064
    1   AR   Ar  149   1.993   1.567  -1.005
    1   AR   Ar  150   2.184   2.340   2.701
    1   AR   Ar  151   3.025   2.917   3.695
    1   AR   Ar  152   1.655   2.423  -1.757
    1   AR   Ar  153   5.318   0.374   4.420
    1   AR   Ar  154   3.989   2.135   3.773
    1   AR   Ar  155   6.933   4.076   5.455
    1   AR   Ar  156   2.911   4.732   3.686
    1   AR   Ar  157   1.385   4.173   6.201
    1   AR   Ar  158   0.197   1.505   6.052
    1   AR   Ar  159   3.494   1.102   6.428
    1   AR   Ar  160   1.556   2.082   4.803
    1   AR   Ar  161   5.204   4.779   2.813
    1   AR   Ar  162   4.213   5.853  -0.394
    1   AR   Ar  163   5.840   4.458   0.229
    1   AR   Ar  164   2.460   5.768   2.230
    1   AR   Ar  165   4.121   2.351   0.477
    1   AR   Ar  166   2.562   3.850   4.459
    1   AR   Ar  167   5.586   7.059   3.443
    1   AR   Ar  168   5.022   4.265  -1.482
    1   AR   Ar  169   3.513   3.987   2.891
    1   AR   Ar  170   2.110   3.254   5.877
    1   AR   Ar  171   5.967   3.536   4.476
    1   AR   Ar  172   4.245   4.141   5.118
    1   AR   Ar  173   1.981   2.024   6.314
    1   AR   Ar  174   2.213   6.198   6.106
    1   AR   Ar  175   3.971   1.906   5.537
    1   AR   Ar  176   3.608   2.992   4.624
    1   AR   Ar  177   0.859   5.128  -0.657
    1   AR   Ar  178   3.155   5.979   0.065
    1   AR   Ar  179   3.013   0.047   0.238
    1   AR   Ar  180   4.988   0.701  -4.195
    1   AR   Ar  181   7.068   5.398   1.660
    1   AR   Ar  182   1.841   6.621   2.856
    1   AR   Ar  183   5.018   5.170   1.953
    1   AR   Ar  184   4.681   6.674   0.527
    1   AR   Ar  185   3.093   4.849   4.733
    1   AR   Ar  186   2.556   5.818   3.336
    1   AR   Ar  187   3.391   6.786   3.098
    1   AR   Ar  188   2.958   6.920   2.107
    1   AR   Ar  189   5.011   3.095   6.252
    1   AR   Ar  190   3.517   5.897   4.188
    1   AR   Ar  191   2.249   6.461   7.198
    1   AR   Ar  192   4.433   6.282   5.670
    1   AR   Ar  193   3.213   6.386   1.182
    1   AR   Ar  194   5.410   3.638  -0.392
    1   AR   Ar  195   5.652   0.954   1.013
    1   AR   Ar  196   3.843   1.301  -0.536
    1   AR   Ar  197   3.930   1.403   1.000
    1   AR   Ar  198   5.611   0.527   2.021
    1   AR   Ar  199   2.455   0.337   2.918
    1   AR   Ar  200   5.237   2.881   0.411
    1   AR   Ar  201   5.560   5.873   3.440
    1   AR   Ar  202   5.324   1.453   4.472
    1   AR   Ar  203   0.047   6.920   3.323
    1   AR   Ar  204   5.848   5.649   5.879
    1   AR   Ar  205   6.914   1.182   1.490
    1   AR   Ar  206   5.950   0.243   5.333
    1   AR   Ar  207   0.689   2.110   5.461
    1   AR   Ar  208   0.566   6.291   4.217
    1   AR   Ar  209   0.130   2.292  -2.033
    1   AR   Ar  210   2.250   7.078   1.166
    1   AR   Ar  211   6.839   3.097   0.942
    1   AR   Ar  212   6.513   3.435   0.015
    1   AR   Ar  213   2.275   0.771   1.902
    1   AR   Ar  214   4.519   3.913   2.395
    1   AR   Ar  215   6.140   3.195   2.426
    1   AR   Ar  216   1.027   2.689   0.939
    1   AR   Ar  217   4.916   1.982   3.564
    1   AR   Ar  218   4.773   3.393   4.389
    1   AR   Ar  219   4.207   3.093   3.232
    1   AR   Ar  220   4.062   3.214   1.431
    1   AR   Ar  221   6.722   5.521   3.442
    1   AR   Ar  222   5.349   6.798   6.176
    1   AR   Ar  223   6.407   1.585   6.600
    1   AR   Ar  224   4.849   2.573   5.031
    1   AR   Ar  225   6.216   3.034   3.579
    1   AR   Ar  226   1.625   3.292   2.985
    1   AR   Ar  227   6.912   3.957   2.072
    1   AR   Ar  228   5.710   6.789   1.335
    1   AR   Ar  229   5.337   5.718  -1.489
    1   AR   Ar  230   3.618   3.870   4.021
    1   AR   Ar  231   5.091   1.344   2.424
    1   AR   Ar  232   5.299   2.628   1.610
    1   AR   Ar  233   6.530   1.943   3.716
    1   AR   Ar  234   5.463   2.519   4.209
    1   AR   Ar  235   7.050   1.060   4.028
    1   AR   Ar  236   4.956   5.060   5.493
    1   AR   Ar  237   5.670   2.436   6.892
    1   AR   Ar  238   5.820   4.087   6.200
    1   AR   Ar  239   0.407   4.572   9.527
    1   AR   Ar  240   6.610   2.719   7.539
    1   AR   Ar  241   1.829   6.092  -0.991
    1   AR   Ar  242   5.509   6.088   0.661
    1   AR   Ar  243   4.549   5.614   2.848
    1   AR   Ar  244   0.899   5.261   0.482
    1   AR   Ar  245   3.471   0.857   1.902
    1   AR   Ar  246   5.566   6.338  -0.635
    1   AR   Ar  247   6.127   3.774   1.148
    1   AR   Ar  248   5.276   5.269  -0.335
    1   AR   Ar  249   4.268   6.281   1.410
    1   AR   Ar  250   4.522   5.789   4.390
    1   AR   Ar  251   5.042   4.837   4.166
    1   AR   Ar  252   3.622   5.190   3.008
    1   AR   Ar  253   6.544   3.407   6.504
    1   AR   Ar  254   3.252   1.865   9.601
    1   AR   Ar  255   3.915   5.513   9.884
    1   AR   Ar  256   5.905   4.529   3.589
    7.12000  7.12000 12.00000
Argon-slab step 4070
  256
    1   AR   Ar    1   4.550   2.611  -2.873
    1   AR   Ar    2   6.372   0.252   0.178
    1   AR   Ar    3   4.037   2.301  -1.806
    1   AR   Ar    4   1.871   0.887  -0.220
    1   AR   Ar    5   6.675   6.113   0.877
    1   AR   Ar    6   0.656   1.966   2.144
    1   AR   Ar    7   5.415   3.726   3.507
    1   AR   Ar    8   4.705   1.365   0.283
    1   AR   Ar    9   1.101   7.008   3.349
    1   AR   Ar   10   0.250   0.124   4.402
    1   AR   Ar   11   1.976   0.003   4.186
    1   AR   Ar   12   0.881   0.910   3.267
    1   AR   Ar   13   7.046   0.530   5.380
    1   AR   Ar   14   4.771   1.010   7.475
    1   AR   Ar   15   3.225   6.661   8.672
    1   AR   Ar   16   1.078   6.986   5.155
    1   AR   Ar   17   6.002   2.085   1.003
    1   AR   Ar   18   6.460   4.943  -0.688
    1   AR   Ar   19   3.545   3.429  -0.026
    1   AR   Ar   20   6.830   4.522  -2.587
    1   AR   Ar   21   2.694   1.926   1.781
    1   AR   Ar   22   6.984   1.441   2.606
    1   AR   Ar   23   0.308   6.941   0.683
    1   AR   Ar   24   5.021   2.795   2.698
    1   AR   Ar   25   0.211   2.129   4.438
    1   AR   Ar   26   6.238   6.564   4.163
    1   AR   Ar   27   1.616   1.144   2.528
    1   AR   Ar   28   1.063   2.846   3.877
    1   AR   Ar   29   6.124   1.428   7.854
    1   AR   Ar   30   1.845   0.928   3.655
    1   AR   Ar   31   3.355   6.889   7.700
    1   AR   Ar   32   0.711   2.525   6.608
    1   AR   Ar   33   0.765   3.921  -0.534
    1   AR   Ar   34   0.492   4.754   2.326
    1   AR   Ar   35   5.844   5.711   1.637
    1   AR   Ar   36   6.114   2.615  -2.434
    1   AR   Ar   37   4.308   2.382   2.228
    1   AR   Ar   38   6.781   3.910   3.451
    1   AR   Ar   39   0.530   3.652   2.944
    1   AR   Ar   40   2.068   4.495   1.668
    1   AR   Ar   41   0.452   2.430   3.113
    1   AR   Ar   42   5.871   5.188   4.783
    1   AR   Ar   43   6.869   2.521   6.017
    1   AR   Ar   44   0.365   4.772   3.550
    1   AR   Ar   45   0.451   3.496   6.183
    1   AR   Ar   46   0.274   4.939   5.032
    1   AR   Ar   47   3.850   4.506   7.497
    1   AR   Ar   48   5.753   3.442   7.482
    1   AR   Ar   49   5.423   0.077  -1.428
    1   AR   Ar   50   3.830   4.795   0.301
    1   AR   Ar   51   5.754   4.397   1.873
    1   AR   Ar   52   5.314   2.878  -1.794
    1   AR   Ar   53   5.286   6.303   2.407
    1   AR   Ar   54   0.934   6.519   2.340
    1   AR   Ar   55   6.451   5.110   2.583
    1   AR   Ar   56   6.702   0.421   2.458
    1   AR   Ar   57   4.390   4.243   3.451
    1   AR   Ar   58   0.361   3.526   4.111
    1   AR   Ar   59   2.261   5.165   5.745
    1   AR   Ar   60   0.605   5.792   3.383
    1   AR   Ar   61   0.303   4.245   7.027
    1   AR   Ar   62   6.701   4.410   4.390
    1   AR   Ar   63   1.050   1.312   6.715
    1   AR   Ar   64   1.006   5.722   4.991
    1   AR   Ar   65   3.816   0.106   0.934
    1   AR   Ar   66   0.931   1.460   1.052
    1   AR   Ar   67   4.467   0.097  -1.005
    1   AR   Ar   68   1.057   0.710  -0.800
    1   AR   Ar   69   2.747   1.427  -0.306
    1   AR   Ar   70   0.662   0.769   2.147
    1   AR   Ar   71   2.817   1.381   3.029
    1   AR   Ar   72   4.652   0.270   1.884
    1   AR   Ar   73   3.604   0.881   3.467
    1   AR   Ar   74   0.938   0.949   4.279
    1   AR   Ar   75   3.234   0.861   4.565
    1   AR   Ar   76   1.220   0.218   1.517
    1   AR   Ar   77   2.305   6.789   5.179
    1   AR   Ar   78   0.020   5.734   5.750
    1   AR   Ar   79   3.746   6.384   6.705
    1   AR   Ar   80   3.896   5.287   5.136
    1   AR   Ar   81   2.248   6.686  -0.063
    1   AR   Ar   82   6.869   4.825   0.589
    1   AR   Ar   83   1.644   3.023  -0.699
    1   AR   Ar   84   0.952   4.323   1.043
    1   AR   Ar   85   1.870   3.364   0.768
    1   AR   Ar   86   2.070   5.421   1.010
    1   AR   Ar   87   2.095   2.963   1.943
    1   AR   Ar   88   2.997   5.049   1.501
    1   AR   Ar   89   6.903   2.548   2.103
    1   AR   Ar   90   3.105   1.904   4.455
    1   AR   Ar   91   1.333   1.902   3.160
    1   AR   Ar   92   1.258   3.616   2.030
    1   AR   Ar   93   0.831   1.053   5.426
    1   AR   Ar   94   0.834   6.408  10.715
    1   AR   Ar   95   4.709   1.088   5.407
    1   AR   Ar   96   3.096   6.970   4.105
    1   AR   Ar   97   3.645   2.416  -0.406
    1   AR   Ar   98   1.674   4.272   3.684
    1   AR   Ar   99   7.052   1.879   0.336
    1   AR   Ar  100   0.700   3.141  -1.343
    1   AR   Ar  101   3.711   6.160   2.365
    1   AR   Ar  102   3.903   1.449   2.692
    1   AR   Ar  103   1.950   4.432   0.629
    1   AR   Ar  104   3.390   5.020  -1.265
    1   AR   Ar  105   2.294   1.965   3.806
    1   AR   Ar  106   4.059   2.982   5.743
    1   AR   Ar  107   0.898   4.046   5.039
    1   AR   Ar  108   2.300   1.240   4.865
    1   AR   Ar  109   1.626   3.246   4.688
    1   AR   Ar  110   2.559   2.655   4.888
    1   AR   Ar  111   5.024   5.508   6.959
    1   AR   Ar  112   0.971   5.985   6.281
    1   AR   Ar  113   3.802   3.958  -1.004
    1   AR   Ar  114   1.757   7.096  -1.077
    1   AR   Ar  115   1.789   5.378   0.050
    1   AR   Ar  116   5.919   0.625  -0.599
    1   AR   Ar  117   1.251   5.035   4.143
    1   AR   Ar  118   1.719   5.198   3.112
    1   AR   Ar  119   2.400   4.220   2.694
    1   AR   Ar  120   1.805   6.361   1.655
    1   AR   Ar  121   5.337   4.022   5.138
    1   AR   Ar  122   2.682   5.808   4.990
    1   AR   Ar  123   3.165   4.150   5.507
    1   AR   Ar  124   1.141   5.484   1.646
    1   AR   Ar  125   6.784   2.845   4.829
    1   AR   Ar  126   6.655   6.504   5.180
    1   AR   Ar  127   4.061   4.043   6.427
    1   AR   Ar  128   3.067   3.579   6.369
    1   AR   Ar  129   1.749   5.910   3.949
    1   AR   Ar  130   4.924   1.731  -3.891
    1   AR   Ar  131   3.865   3.882  -2.308
    1   AR   Ar  132   0.994   1.844   0.021
    1   AR   Ar  133   4.255   6.700   3.576
    1   AR   Ar  134   4.188   1.112   4.446
    1   AR   Ar  135   5.922   0.822   3.015
    1   AR   Ar  136   6.398   6.425   2.445
    1   AR   Ar  137   1.922   4.223   5.144
    1   AR   Ar  138   5.676   0.799   6.240
    1   AR   Ar  139   5.661   2.666   5.698
    1   AR   Ar  140   4.213   0.060   4.829
    1   AR   Ar  141   3.963   4.965   3.984
    1   AR   Ar  142   4.168   0.285   5.906
    1   AR   Ar  143   7.064   6.168   6.694
    1   AR   Ar  144   6.579   1.465   5.067
    1   AR   Ar  145   4.523   5.086  -0.927
    1   AR   Ar  146   3.313   2.352   2.649
    1   AR   Ar  147   4.476   2.840  -1.019
    1   AR   Ar  148   2.817   6.709  -1.038
    1   AR   Ar  149   2.000   1.579  -1.018
    1   AR   Ar  150   2.187   2.340   2.704
    1   AR   Ar  151   3.008   2.888   3.672
    1   AR   Ar  152   1.654   2.397  -1.779
    1   AR   Ar  153   5.318   0.378   4.409
    1   AR   Ar  154   4.016   2.149   3.787
    1   AR   Ar  155   6.928   4.076   5.449
    1   AR   Ar  156   2.928   4.770   3.690
    1   AR   Ar  157   1.393   4.198   6.236
    1   AR   Ar  158   0.173   1.485   6.038
    1   AR   Ar  159   3.497   1.092   6.425
    1   AR   Ar  160   1.540   2.074   4.818
    1   AR   Ar  161   5.180   4.785   2.792
    1   AR   Ar  162   4.199   5.868  -0.376
    1   AR   Ar  163   5.874   4.477   0.281
    1   AR   Ar  164   2.431   5.758   2.206
    1   AR   Ar  165   4.091   2.321   0.501
    1   AR   Ar  166   2.556   3.869   4.466
    1   AR   Ar  167   5.603   7.030   3.427
    1   AR   Ar  168   5.014   4.276  -1.480
    1   AR   Ar  169   3.500   3.961   2.901
    1   AR   Ar  170   2.083   3.237   5.882
    1   AR   Ar  171   5.958   3.515   4.485
    1   AR   Ar  172   4.243   4.122   5.124
    1   AR   Ar  173   1.988   1.996   6.290
    1   AR   Ar  174   2.189   6.209   6.085
    1   AR   Ar  175   3.955   1.937   5.553
    1   AR   Ar  176   3.620   3.010   4.642
    1   AR   Ar  177   0.865   5.139  -0.630
    1   AR   Ar  178   3.133   5.993   0.062
    1   AR   Ar  179   3.021   0.042   0.239
    1   AR   Ar  180   5.004   0.731  -4.226
    1   AR   Ar  181   7.075   5.402   1.635
    1   AR   Ar  182   1.804   6.605   2.850
    1   AR   Ar  183   5.005   5.184   1.940
    1   AR   Ar  184   4.676   6.659   0.531
    1   AR   Ar  185   3.066   4.862   4.691
    1   AR   Ar  186   2.600   5.803   3.346
    1   AR   Ar  187   3.392   6.802   3.096
    1   AR   Ar  188   2.942   6.963   2.104
    1   AR   Ar  189   5.004   3.107   6.269
    1   AR   Ar  190   3.513   5.898   4.201
    1   AR   Ar  191   2.262   6.457   7.220
    1   AR   Ar  192   4.439   6.245   5.694
    1   AR   Ar  193   3.216   6.344   1.185
    1   AR   Ar  194   5.440   3.639  -0.384
    1   AR   Ar  195   5.628   0.899   1.056
    1   AR   Ar  196   3.824   1.300  -0.534
    1   AR   Ar  197   3.931   1.413   1.038
    1   AR   Ar  198   5.620   0.526   2.054
    1   AR   Ar  199   2.446   0.319   2.927
    1   AR   Ar  200   5.209   2.876   0.441
    1   AR   Ar  201   5.605   5.873   3.433
    1   AR   Ar  202   5.323   1.488   4.462
    1   AR   Ar  203   0.038   6.903   3.333
    1   AR   Ar  204   5.854   5.673   5.879
    1   AR   Ar  205   6.911   1.238   1.497
    1   AR   Ar  206   5.957   0.264   5.367
    1   AR   Ar  207   0.679   2.082   5.454
    1   AR   Ar  208   0.571   6.280   4.239
    1   AR   Ar  209   0.138   2.288  -2.050
    1   AR   Ar  210   2.261   7.062   1.164
    1   AR   Ar  211   6.841   3.104   0.971
    1   AR   Ar  212   6.485   3.431  -0.000
    1   AR   Ar  213   2.272   0.774   1.913
    1   AR   Ar  214   4.529   3.893   2.418
    1   AR   Ar  215   6.135   3.207   2.419
    1   AR   Ar  216   1.023   2.679   0.921
    1   AR   Ar  217   4.924   1.977   3.552
    1   AR   Ar  218   4.773   3.394   4.408
    1   AR   Ar  219   4.197   3.110   3.233
    1   AR   Ar  220   4.082   3.211   1.442
    1   AR   Ar  221   6.697   5.555   3.421
    1   AR   Ar  222   5.371   6.809   6.177
    1   AR   Ar  223   6.417   1.580   6.599
    1   AR   Ar  224   4.862   2.588   5.028
    1   AR   Ar  225   6.221   3.022   3.580
    1   AR   Ar  226   1.598   3.325   3.022
    1   AR   Ar  227   6.927   3.963   2.060
    1   AR   Ar  228   5.724   6.813   1.343
    1   AR   Ar  229   5.338   5.708  -1.483
    1   AR   Ar  230   3.604   3.888   4.065
    1   AR   Ar  231   5.117   1.337   2.399
    1   AR   Ar  232   5.313   2.611   1.599
    1   AR   Ar  233   6.548   1.940   3.715
    1   AR   Ar  234   5.443   2.535   4.184
    1   AR   Ar  235   7.035   1.060   4.029
    1   AR   Ar  236   4.967   5.056   5.471
    1   AR   Ar  237   5.660   2.428   6.889
    1   AR   Ar  238   5.797   4.101   6.171
    1   AR   Ar  239   0.390   4.587   9.561
    1   AR   Ar  240   6.600   2.678   7.538
    1   AR   Ar  241   1.834   6.090  -0.987
    1   AR   Ar  242   5.494   6.082   0.649
    1   AR   Ar  243   4.527   5.588   2.848
    1   AR   Ar  244   0.893   5.264   0.498
    1   AR   Ar  245   3.489   0.824   1.900
    1   AR   Ar  246   5.567   6.369  -0.642
    1   AR   Ar  247   6.129   3.798   1.155
    1   AR   Ar  248   5.240   5.257  -0.311
    1   AR   Ar  249   4.288   6.283   1.442
    1   AR   Ar  250   4.518   5.822   4.377
    1   AR   Ar  251   5.087   4.852   4.133
    1   AR   Ar  252   3.624   5.224   2.977
    1   AR   Ar  253   6.523   3.396   6.511
    1   AR   Ar  254   3.271   1.851   9.613
    1   AR   Ar  255   3.898   5.513   9.889
    1   AR   Ar  256   5.929   4.538   3.582
    7.12000  7.12000 12.00000
Argon-slab step 4075
  256
    1   AR   Ar    1   4.542   2.635  -2.908
    1   AR   Ar    2   6.376   0.234   0.158
    1   AR   Ar    3   4.037   2.328  -1.808
    1   AR   Ar    4   1.839   0.907  -0.180
    1   AR   Ar    5   6.648   6.098   0.888
    1   AR   Ar    6   0.686   1.949   2.128
    1   AR   Ar    7   5.391   3.734   3.534
    1   AR   Ar    8   4.722   1.380   0.282
    1   AR   Ar    9   1.095   7.006   3.359
    1   AR   Ar   10   0.250   0.094   4.372
    1   AR   Ar   11   1.975   7.095   4.202
    1   AR   Ar   12   0.860   0.952   3.294
    1   AR   Ar   13   7.023   0.504   5.404
    1   AR   Ar   14   4.757   0.991   7.443
    1   AR   Ar   15   3.224   6.679   8.705
    1   AR   Ar   16   1.114   6.975   5.145
    1   AR   Ar   17   5.974   2.074   1.039
    1   AR   Ar   18   6.465   4.977  -0.646
    1   AR   Ar   19   3.565   3.425  -0.066
    1   AR   Ar   20   6.847   4.536  -2.565
    1   AR   Ar   21   2.696   1.926   1.778
    1   AR   Ar   22   6.993   1.446   2.593
    1   AR   Ar   23   0.289   6.942   0.704
    1   AR   Ar   24   5.025   2.831   2.707
    1   AR   Ar   25   0.227   2.174   4.453
    1   AR   Ar   26   6.237   6.572   4.185
    1   AR   Ar   27   1.593   1.124   2.518
    1   AR   Ar   28   1.070   2.857   3.877
    1   AR   Ar   29   6.123   1.435   7.820
    1   AR   Ar   30   1.835   0.904   3.622
    1   AR   Ar   31   3.345   6.921   7.723
    1   AR   Ar   32   0.710   2.507   6.620
    1   AR   Ar   33   0.774   3.887  -0.511
    1   AR   Ar   34   0.511   4.762   2.306
    1   AR   Ar   35   5.825   5.724   1.638
    1   AR   Ar   36   6.100   2.621  -2.440
    1   AR   Ar   37   4.287   2.384   2.195
    1   AR   Ar   38   6.762   3.886   3.479
    1   AR   Ar   39   0.517   3.630   2.950
    1   AR   Ar   40   2.075   4.494   1.672
    1   AR   Ar   41   0.426   2.447   3.105
    1   AR   Ar   42   5.856   5.197   4.783
    1   AR   Ar   43   6.860   2.556   6.039
    1   AR   Ar   44   0.391   4.768   3.525
    1   AR   Ar   45   0.474   3.495   6.162
    1   AR   Ar   46   0.300   4.959   5.066
    1   AR   Ar   47   3.822   4.523   7.470
    1   AR   Ar   48   5.748   3.413   7.482
    1   AR   Ar   49   5.442   0.074  -1.436
    1   AR   Ar   50   3.813   4.764   0.308
    1   AR   Ar   51   5.757   4.351   1.890
    1   AR   Ar   52   5.306   2.861  -1.771
    1   AR   Ar   53   5.299   6.266   2.407
    1   AR   Ar   54   0.954   6.527   2.326
    1   AR   Ar   55   6.492   5.076   2.588
    1   AR   Ar   56   6.707   0.441   2.436
    1   AR   Ar   57   4.402   4.249   3.452
    1   AR   Ar   58   0.418   3.540   4.138
    1   AR   Ar   59   2.263   5.189   5.765
    1   AR   Ar   60   0.599   5.769   3.356
    1   AR   Ar   61   0.285   4.211   7.029
    1   AR   Ar   62   6.681   4.398   4.354
    1   AR   Ar   63   1.049   1.358   6.703
    1   AR   Ar   64   0.976   5.708   4.973
    1   AR   Ar   65   3.783   0.087   0.936
    1   AR   Ar   66   0.945   1.494   1.077
    1   AR   Ar   67   4.465   0.100  -1.005
    1   AR   Ar   68   1.069   0.681  -0.793
    1   AR   Ar   69   2.769   1.394  -0.298
    1   AR   Ar   70   0.637   0.742   2.137
    1   AR   Ar   71   2.787   1.399   2.983
    1   AR   Ar   72   4.662   0.289   1.831
    1   AR   Ar   73   3.558   0.876   3.455
    1   AR   Ar   74   0.906   0.940   4.306
    1   AR   Ar   75   3.227   0.846   4.579
    1   AR   Ar   76   1.227   0.245   1.491
    1   AR   Ar   77   2.298   6.793   5.195
    1   AR   Ar   78   0.015   5.714   5.735
    1   AR   Ar   79   3.752   6.373   6.718
    1   AR   Ar   80   3.878   5.286   5.134
    1   AR   Ar   81   2.234   6.699  -0.034
    1   AR   Ar   82   6.882   4.824   0.615
    1   AR   Ar   83   1.641   3.025  -0.686
    1   AR   Ar   84   0.983   4.334   1.035
    1   AR   Ar   85   1.873   3.376   0.772
    1   AR   Ar   86   2.071   5.408   1.015
    1   AR   Ar   87   2.112   2.952   1.941
    1   AR   Ar   88   2.983   5.041   1.505
    1   AR   Ar   89   6.905   2.526   2.092
    1   AR   Ar   90   3.112   1.888   4.473
    1   AR   Ar   91   1.318   1.879   3.132
    1   AR   Ar   92   1.268   3.644   2.030
    1   AR   Ar   93   0.847   1.057   5.417
    1   AR   Ar   94   0.850   6.426  10.690
    1   AR   Ar   95   4.693   1.104   5.413
    1   AR   Ar   96   3.063   6.994   4.117
    1   AR   Ar   97   3.637   2.409  -0.426
    1   AR   Ar   98   1.680   4.270   3.674
    1   AR   Ar   99   7.071   1.886   0.364
    1   AR   Ar  100   0.690   3.142  -1.374
    1   AR   Ar  101   3.669   6.160   2.364
    1   AR   Ar  102   3.876   1.460   2.702
    1   AR   Ar  103   1.928   4.414   0.640
    1   AR   Ar  104   3.400   5.045  -1.258
    1   AR   Ar  105   2.303   1.988   3.786
    1   AR   Ar  106   4.037   2.974   5.750
    1   AR   Ar  107   0.925   4.088   5.022
    1   AR   Ar  108   2.321   1.253   4.838
    1   AR   Ar  109   1.646   3.244   4.699
    1   AR   Ar  110   2.548   2.670   4.887
    1   AR   Ar  111   5.039   5.500   6.942
    1   AR   Ar  112   0.937   6.035   6.262
    1   AR   Ar  113   3.772   3.971  -1.019
    1   AR   Ar  114   1.766   7.087  -1.090
    1   AR   Ar  115   1.798   5.429   0.047
    1   AR   Ar  116   5.880   0.642  -0.569
    1   AR   Ar  117   1.269   5.059   4.147
    1   AR   Ar  118   1.688   5.194   3.119
    1   AR   Ar  119   2.355   4.213   2.704
    1   AR   Ar  120   1.798   6.367   1.688
    1   AR   Ar  121   5.333   4.013   5.105
    1   AR   Ar  122   2.711   5.820   4.989
    1   AR   Ar  123   3.137   4.149   5.510
    1   AR   Ar  124   1.132   5.513   1.644
    1   AR   Ar  125   6.767   2.842   4.816
    1   AR   Ar  126   6.644   6.483   5.224
    1   AR   Ar  127   4.053   4.052   6.425
    1   AR   Ar  128   3.075   3.570   6.316
    1   AR   Ar  129   1.751   5.911   3.950
    1   AR   Ar  130   4.935   1.750  -3.897
    1   AR   Ar  131   3.890   3.880  -2.318
    1   AR   Ar  132   0.996   1.854   0.004
    1   AR   Ar  133   4.253   6.728   3.590
    1   AR   Ar  134   4.205   1.144   4.415
    1   AR   Ar  135   5.911   0.826   3.002
    1   AR   Ar  136   6.431   6.444   2.450
    1   AR   Ar  137   1.922   4.197   5.133
    1   AR   Ar  138   5.682   0.813   6.226
    1   AR   Ar  139   5.674   2.662   5.727
    1   AR   Ar  140   4.204   0.053   4.811
    1   AR   Ar  141   3.948   4.981   3.977
    1   AR   Ar  142   4.135   0.300   5.915
    1   AR   Ar  143   7.066   6.141   6.670
    1   AR   Ar  144   6.547   1.443   5.066
    1   AR   Ar  145   4.521   5.079  -0.942
    1   AR   Ar  146   3.319   2.356   2.632
    1   AR   Ar  147   4.458   2.862  -1.016
    1   AR   Ar  148   2.807   6.698  -1.010
    1   AR   Ar  149   2.004   1.593  -1.034
    1   AR   Ar  150   2.193   2.333   2.716
    1   AR   Ar  151   2.992   2.857   3.649
    1   AR   Ar  152   1.651   2.371  -1.799
    1   AR   Ar  153   5.317   0.383   4.398
    1   AR   Ar  154   4.021   2.166   3.806
    1   AR   Ar  155   6.921   4.073   5.445
    1   AR   Ar  156   2.942   4.806   3.687
    1   AR   Ar  157   1.402   4.222   6.269
    1   AR   Ar  158   0.137   1.460   6.035
    1   AR   Ar  159   3.501   1.083   6.420
    1   AR   Ar  160   1.526   2.066   4.831
    1   AR   Ar  161   5.162   4.780   2.789
    1   AR   Ar  162   4.184   5.889  -0.352
    1   AR   Ar  163   5.908   4.495   0.332
    1   AR   Ar  164   2.405   5.745   2.184
    1   AR   Ar  165   4.066   2.292   0.530
    1   AR   Ar  166   2.559   3.882   4.465
    1   AR   Ar  167   5.619   6.997   3.409
    1   AR   Ar  168   5.005   4.285  -1.477
    1   AR   Ar  169   3.487   3.936   2.911
    1   AR   Ar  170   2.064   3.235   5.894
    1   AR   Ar  171   5.951   3.494   4.492
    1   AR   Ar  172   4.242   4.100   5.133
    1   AR   Ar  173   1.985   1.970   6.271
    1   AR   Ar  174   2.164   6.220   6.066
    1   AR   Ar  175   3.946   1.959   5.565
    1   AR   Ar  176   3.616   3.009   4.661
    1   AR   Ar  177   0.871   5.150  -0.601
    1   AR   Ar  178   3.111   6.008   0.060
    1   AR   Ar  179   3.043   0.045   0.246
    1   AR   Ar  180   5.020   0.759  -4.259
    1   AR   Ar  181   7.090   5.396   1.617
    1   AR   Ar  182   1.794   6.581   2.836
    1   AR   Ar  183   4.985   5.207   1.910
    1   AR   Ar  184   4.667   6.649   0.531
    1   AR   Ar  185   3.027   4.831   4.674
    1   AR   Ar  186   2.650   5.789   3.353
    1   AR   Ar  187   3.383   6.822   3.091
    1   AR   Ar  188   2.925   7.005   2.098
    1   AR   Ar  189   4.990   3.127   6.294
    1   AR   Ar  190   3.501   5.901   4.212
    1   AR   Ar  191   2.276   6.452   7.241
    1   AR   Ar  192   4.445   6.211   5.717
    1   AR   Ar  193   3.217   6.301   1.189
    1   AR   Ar  194   5.470   3.641  -0.377
    1   AR   Ar  195   5.604   0.844   1.097
    1   AR   Ar  196   3.806   1.300  -0.531
    1   AR   Ar  197   3.931   1.421   1.079
    1   AR   Ar  198   5.639   0.531   2.083
    1   AR   Ar  199   2.439   0.304   2.938
    1   AR   Ar  200   5.181   2.871   0.472
    1   AR   Ar  201   5.650   5.871   3.426
    1   AR   Ar  202   5.320   1.522   4.454
    1   AR   Ar  203   0.026   6.884   3.344
    1   AR   Ar  204   5.860   5.697   5.878
    1   AR   Ar  205   6.908   1.259   1.508
    1   AR   Ar  206   5.964   0.284   5.398
    1   AR   Ar  207   0.673   2.067   5.441
    1   AR   Ar  208   0.576   6.274   4.266
    1   AR   Ar  209   0.146   2.284  -2.066
    1   AR   Ar  210   2.281   7.056   1.152
    1   AR   Ar  211   6.849   3.104   1.001
    1   AR   Ar  212   6.455   3.428  -0.015
    1   AR   Ar  213   2.280   0.771   1.914
    1   AR   Ar  214   4.539   3.872   2.441
    1   AR   Ar  215   6.127   3.221   2.413
    1   AR   Ar  216   1.016   2.667   0.904
    1   AR   Ar  217   4.941   1.966   3.526
    1   AR   Ar  218   4.785   3.406   4.430
    1   AR   Ar  219   4.182   3.130   3.238
    1   AR   Ar  220   4.103   3.207   1.453
    1   AR   Ar  221   6.673   5.594   3.412
    1   AR   Ar  222   5.392   6.820   6.176
    1   AR   Ar  223   6.424   1.577   6.600
    1   AR   Ar  224   4.888   2.605   5.034
    1   AR   Ar  225   6.224   2.980   3.577
    1   AR   Ar  226   1.573   3.357   3.059
    1   AR   Ar  227   6.940   3.966   2.048
    1   AR   Ar  228   5.743   6.842   1.362
    1   AR   Ar  229   5.338   5.696  -1.476
    1   AR   Ar  230   3.586   3.900   4.079
    1   AR   Ar  231   5.138   1.337   2.375
    1   AR   Ar  232   5.312   2.630   1.616
    1   AR   Ar  233   6.564   1.939   3.711
    1   AR   Ar  234   5.433   2.558   4.161
    1   AR   Ar  235   7.019   1.061   4.029
    1   AR   Ar  236   4.972   5.027   5.427
    1   AR   Ar  237   5.652   2.419   6.886
    1   AR   Ar  238   5.782   4.092   6.162
    1   AR   Ar  239   0.384   4.604   9.593
    1   AR   Ar  240   6.589   2.636   7.536
    1   AR   Ar  241   1.840   6.080  -0.981
    1   AR   Ar  242   5.486   6.068   0.634
    1   AR   Ar  243   4.508   5.592   2.818
    1   AR   Ar  244   0.879   5.267   0.518
    1   AR   Ar  245   3.506   0.790   1.897
    1   AR   Ar  246   5.563   6.390  -0.638
    1   AR   Ar  247   6.129   3.822   1.158
    1   AR   Ar  248   5.219   5.249  -0.276
    1   AR   Ar  249   4.309   6.284   1.477
    1   AR   Ar  250   4.521   5.846   4.369
    1   AR   Ar  251   5.129   4.866   4.100
    1   AR   Ar  252   3.633   5.222   2.983
    1   AR   Ar  253   6.526   3.402   6.502
    1   AR   Ar  254   3.290   1.838   9.624
    1   AR   Ar  255   3.881   5.513   9.893
    1   AR   Ar  256   5.964   4.563   3.574
    7.12000  7.12000 12.00000
Argon-slab step 4080
  256
    1   AR   Ar    1   4.534   2.659  -2.942
    1   AR   Ar    2   6.387   0.207   0.150
    1   AR   Ar    3   4.037   2.353  -1.813
    1   AR   Ar    4   1.811   0.926  -0.135
    1   AR   Ar    5   6.620   6.082   0.899
    1   AR   Ar    6   0.721   1.930   2.111
    1   AR   Ar    7   5.373   3.766   3.548
    1   AR   Ar    8   4.739   1.394   0.281
    1   AR   Ar    9   1.080   7.011   3.380
    1   AR   Ar   10   0.246   0.070   4.344
    1   AR   Ar   11   1.970   7.067   4.217
    1   AR   Ar   12   0.829   0.992   3.314
    1   AR   Ar   13   7.002   0.476   5.426
    1   AR   Ar   14   4.744   0.972   7.411
    1   AR   Ar   15   3.223   6.695   8.745
    1   AR   Ar   16   1.151   6.964   5.133
    1   AR   Ar   17   5.950   2.060   1.073
    1   AR   Ar   18   6.470   5.011  -0.603
    1   AR   Ar   19   3.586   3.423  -0.106
    1   AR   Ar   20   6.870   4.544  -2.570
    1   AR   Ar   21   2.682   1.942   1.781
    1   AR   Ar   22   7.007   1.451   2.585
    1   AR   Ar   23   0.268   6.943   0.726
    1   AR   Ar   24   5.041   2.870   2.719
    1   AR   Ar   25   0.257   2.205   4.459
    1   AR   Ar   26   6.237   6.580   4.207
    1   AR   Ar   27   1.566   1.103   2.512
    1   AR   Ar   28   1.086   2.857   3.874
    1   AR   Ar   29   6.122   1.443   7.784
    1   AR   Ar   30   1.829   0.881   3.590
    1   AR   Ar   31   3.335   6.953   7.739
    1   AR   Ar   32   0.716   2.509   6.596
    1   AR   Ar   33   0.782   3.853  -0.488
    1   AR   Ar   34   0.531   4.769   2.289
    1   AR   Ar   35   5.820   5.727   1.638
    1   AR   Ar   36   6.089   2.626  -2.446
    1   AR   Ar   37   4.263   2.381   2.157
    1   AR   Ar   38   6.743   3.860   3.501
    1   AR   Ar   39   0.506   3.608   2.955
    1   AR   Ar   40   2.080   4.493   1.679
    1   AR   Ar   41   0.396   2.465   3.096
    1   AR   Ar   42   5.834   5.208   4.817
    1   AR   Ar   43   6.853   2.584   6.056
    1   AR   Ar   44   0.415   4.758   3.499
    1   AR   Ar   45   0.496   3.494   6.140
    1   AR   Ar   46   0.322   4.972   5.096
    1   AR   Ar   47   3.795   4.540   7.442
    1   AR   Ar   48   5.743   3.383   7.481
    1   AR   Ar   49   5.459   0.076  -1.455
    1   AR   Ar   50   3.796   4.734   0.314
    1   AR   Ar   51   5.755   4.313   1.919
    1   AR   Ar   52   5.296   2.845  -1.746
    1   AR   Ar   53   5.301   6.232   2.410
    1   AR   Ar   54   0.962   6.536   2.307
    1   AR   Ar   55   6.531   5.035   2.582
    1   AR   Ar   56   6.714   0.456   2.413
    1   AR   Ar   57   4.404   4.244   3.449
    1   AR   Ar   58   0.467   3.563   4.170
    1   AR   Ar   59   2.264   5.210   5.783
    1   AR   Ar   60   0.599   5.748   3.323
    1   AR   Ar   61   0.264   4.159   6.992
    1   AR   Ar   62   6.662   4.389   4.327
    1   AR   Ar   63   1.048   1.405   6.690
    1   AR   Ar   64   0.956   5.695   4.964
    1   AR   Ar   65   3.756   0.069   0.946
    1   AR   Ar   66   0.957   1.527   1.103
    1   AR   Ar   67   4.460   0.103  -1.004
    1   AR   Ar   68   1.060   0.657  -0.788
    1   AR   Ar   69   2.793   1.363  -0.288
    1   AR   Ar   70   0.606   0.720   2.132
    1   AR   Ar   71   2.752   1.418   2.935
    1   AR   Ar   72   4.668   0.306   1.776
    1   AR   Ar   73   3.510   0.863   3.452
    1   AR   Ar   74   0.879   0.933   4.341
    1   AR   Ar   75   3.222   0.826   4.593
    1   AR   Ar   76   1.240   0.267   1.461
    1   AR   Ar   77   2.291   6.800   5.208
    1   AR   Ar   78   0.011   5.692   5.718
    1   AR   Ar   79   3.757   6.363   6.730
    1   AR   Ar   80   3.873   5.294   5.125
    1   AR   Ar   81   2.238   6.687  -0.056
    1   AR   Ar   82   6.860   4.834   0.618
    1   AR   Ar   83   1.636   3.026  -0.673
    1   AR   Ar   84   1.008   4.343   1.032
    1   AR   Ar   85   1.876   3.385   0.778
    1   AR   Ar   86   2.073   5.399   1.029
    1   AR   Ar   87   2.130   2.946   1.931
    1   AR   Ar   88   2.959   5.029   1.521
    1   AR   Ar   89   6.899   2.527   2.071
    1   AR   Ar   90   3.126   1.874   4.490
    1   AR   Ar   91   1.304   1.863   3.110
    1   AR   Ar   92   1.276   3.674   2.030
    1   AR   Ar   93   0.869   1.053   5.404
    1   AR   Ar   94   0.865   6.444  10.664
    1   AR   Ar   95   4.679   1.121   5.418
    1   AR   Ar   96   3.032   7.017   4.130
    1   AR   Ar   97   3.636   2.402  -0.450
    1   AR   Ar   98   1.690   4.260   3.662
    1   AR   Ar   99   7.090   1.893   0.394
    1   AR   Ar  100   0.682   3.142  -1.405
    1   AR   Ar  101   3.626   6.157   2.358
    1   AR   Ar  102   3.856   1.474   2.707
    1   AR   Ar  103   1.910   4.399   0.644
    1   AR   Ar  104   3.410   5.061  -1.251
    1   AR   Ar  105   2.308   2.011   3.766
    1   AR   Ar  106   4.015   2.971   5.755
    1   AR   Ar  107   0.944   4.127   5.005
    1   AR   Ar  108   2.335   1.268   4.811
    1   AR   Ar  109   1.664   3.242   4.710
    1   AR   Ar  110   2.536   2.687   4.888
    1   AR   Ar  111   5.055   5.492   6.924
    1   AR   Ar  112   0.906   6.084   6.241
    1   AR   Ar  113   3.744   3.984  -1.034
    1   AR   Ar  114   1.777   7.082  -1.103
    1   AR   Ar  115   1.796   5.452   0.046
    1   AR   Ar  116   5.831   0.664  -0.550
    1   AR   Ar  117   1.291   5.065   4.131
    1   AR   Ar  118   1.658   5.191   3.123
    1   AR   Ar  119   2.309   4.206   2.715
    1   AR   Ar  120   1.784   6.373   1.722
    1   AR   Ar  121   5.311   4.005   5.129
    1   AR   Ar  122   2.741   5.833   4.987
    1   AR   Ar  123   3.111   4.153   5.504
    1   AR   Ar  124   1.122   5.541   1.642
    1   AR   Ar  125   6.738   2.852   4.811
    1   AR   Ar  126   6.631   6.465   5.267
    1   AR   Ar  127   4.079   4.058   6.419
    1   AR   Ar  128   3.082   3.555   6.270
    1   AR   Ar  129   1.753   5.929   3.961
    1   AR   Ar  130   4.945   1.772  -3.902
    1   AR   Ar  131   3.916   3.878  -2.327
    1   AR   Ar  132   1.000   1.864  -0.013
    1   AR   Ar  133   4.258   6.753   3.609
    1   AR   Ar  134   4.225   1.178   4.382
    1   AR   Ar  135   5.901   0.836   3.000
    1   AR   Ar  136   6.463   6.463   2.456
    1   AR   Ar  137   1.922   4.180   5.135
    1   AR   Ar  138   5.687   0.832   6.215
    1   AR   Ar  139   5.697   2.655   5.754
    1   AR   Ar  140   4.195   0.046   4.792
    1   AR   Ar  141   3.924   4.998   3.980
    1   AR   Ar  142   4.104   0.291   5.928
    1   AR   Ar  143   7.057   6.134   6.656
    1   AR   Ar  144   6.516   1.423   5.064
    1   AR   Ar  145   4.509   5.069  -0.967
    1   AR   Ar  146   3.322   2.362   2.616
    1   AR   Ar  147   4.443   2.889  -1.009
    1   AR   Ar  148   2.798   6.687  -0.981
    1   AR   Ar  149   2.006   1.608  -1.052
    1   AR   Ar  150   2.201   2.320   2.736
    1   AR   Ar  151   2.977   2.827   3.627
    1   AR   Ar  152   1.648   2.346  -1.818
    1   AR   Ar  153   5.316   0.387   4.388
    1   AR   Ar  154   4.012   2.186   3.829
    1   AR   Ar  155   6.913   4.068   5.440
    1   AR   Ar  156   2.951   4.837   3.674
    1   AR   Ar  157   1.410   4.245   6.300
    1   AR   Ar  158   0.098   1.432   6.037
    1   AR   Ar  159   3.506   1.074   6.414
    1   AR   Ar  160   1.515   2.058   4.841
    1   AR   Ar  161   5.150   4.766   2.798
    1   AR   Ar  162   4.168   5.913  -0.327
    1   AR   Ar  163   5.939   4.512   0.379
    1   AR   Ar  164   2.384   5.727   2.168
    1   AR   Ar  165   4.043   2.268   0.560
    1   AR   Ar  166   2.547   3.874   4.463
    1   AR   Ar  167   5.633   6.963   3.390
    1   AR   Ar  168   4.996   4.292  -1.474
    1   AR   Ar  169   3.471   3.912   2.923
    1   AR   Ar  170   2.045   3.234   5.903
    1   AR   Ar  171   5.940   3.482   4.490
    1   AR   Ar  172   4.243   4.074   5.147
    1   AR   Ar  173   1.969   1.944   6.260
    1   AR   Ar  174   2.137   6.230   6.049
    1   AR   Ar  175   3.966   1.952   5.569
    1   AR   Ar  176   3.613   3.006   4.680
    1   AR   Ar  177   0.878   5.161  -0.572
    1   AR   Ar  178   3.089   6.023   0.058
    1   AR   Ar  179   3.071   0.054   0.252
    1   AR   Ar  180   5.036   0.784  -4.293
    1   AR   Ar  181   7.089   5.377   1.619
    1   AR   Ar  182   1.813   6.553   2.819
    1   AR   Ar  183   4.958   5.232   1.872
    1   AR   Ar  184   4.653   6.644   0.529
    1   AR   Ar  185   3.052   4.845   4.682
    1   AR   Ar  186   2.702   5.778   3.358
    1   AR   Ar  187   3.365   6.847   3.086
    1   AR   Ar  188   2.909   7.043   2.089
    1   AR   Ar  189   4.970   3.153   6.324
    1   AR   Ar  190   3.519   5.917   4.173
    1   AR   Ar  191   2.291   6.448   7.262
    1   AR   Ar  192   4.448   6.187   5.745
    1   AR   Ar  193   3.215   6.258   1.193
    1   AR   Ar  194   5.482   3.642  -0.372
    1   AR   Ar  195   5.579   0.791   1.133
    1   AR   Ar  196   3.791   1.299  -0.527
    1   AR   Ar  197   3.930   1.424   1.123
    1   AR   Ar  198   5.671   0.567   2.098
    1   AR   Ar  199   2.419   0.265   2.947
    1   AR   Ar  200   5.153   2.865   0.503
    1   AR   Ar  201   5.691   5.868   3.418
    1   AR   Ar  202   5.318   1.555   4.448
    1   AR   Ar  203   0.013   6.865   3.353
    1   AR   Ar  204   5.866   5.722   5.876
    1   AR   Ar  205   6.898   1.250   1.514
    1   AR   Ar  206   5.971   0.301   5.423
    1   AR   Ar  207   0.667   2.064   5.427
    1   AR   Ar  208   0.580   6.268   4.287
    1   AR   Ar  209   0.154   2.282  -2.081
    1   AR   Ar  210   2.302   7.047   1.126
    1   AR   Ar  211   6.861   3.099   1.032
    1   AR   Ar  212   6.427   3.425  -0.028
    1   AR   Ar  213   2.298   0.764   1.908
    1   AR   Ar  214   4.526   3.857   2.467
    1   AR   Ar  215   6.117   3.237   2.408
    1   AR   Ar  216   1.009   2.654   0.887
    1   AR   Ar  217   4.964   1.947   3.488
    1   AR   Ar  218   4.793   3.423   4.444
    1   AR   Ar  219   4.164   3.150   3.247
    1   AR   Ar  220   4.125   3.202   1.464
    1   AR   Ar  221   6.651   5.638   3.413
    1   AR   Ar  222   5.413   6.830   6.175
    1   AR   Ar  223   6.424   1.577   6.606
    1   AR   Ar  224   4.909   2.615   5.047
    1   AR   Ar  225   6.227   2.936   3.573
    1   AR   Ar  226   1.593   3.365   3.061
    1   AR   Ar  227   6.950   3.969   2.036
    1   AR   Ar  228   5.762   6.871   1.383
    1   AR   Ar  229   5.338   5.684  -1.468
    1   AR   Ar  230   3.567   3.908   4.072
    1   AR   Ar  231   5.151   1.347   2.355
    1   AR   Ar  232   5.309   2.653   1.635
    1   AR   Ar  233   6.578   1.942   3.706
    1   AR   Ar  234   5.429   2.587   4.140
    1   AR   Ar  235   7.002   1.059   4.030
    1   AR   Ar  236   4.989   5.019   5.397
    1   AR   Ar  237   5.646   2.412   6.882
    1   AR   Ar  238   5.768   4.088   6.148
    1   AR   Ar  239   0.417   4.629   9.620
    1   AR   Ar  240   6.578   2.594   7.531
    1   AR   Ar  241   1.847   6.063  -0.971
    1   AR   Ar  242   5.483   6.047   0.617
    1   AR   Ar  243   4.503   5.605   2.789
    1   AR   Ar  244   0.862   5.270   0.541
    1   AR   Ar  245   3.522   0.756   1.894
    1   AR   Ar  246   5.542   6.374  -0.598
    1   AR   Ar  247   6.132   3.841   1.151
    1   AR   Ar  248   5.208   5.245  -0.232
    1   AR   Ar  249   4.331   6.285   1.513
    1   AR   Ar  250   4.529   5.831   4.373
    1   AR   Ar  251   5.162   4.880   4.067
    1   AR   Ar  252   3.626   5.213   2.989
    1   AR   Ar  253   6.532   3.386   6.479
    1   AR   Ar  254   3.309   1.824   9.635
    1   AR   Ar  255   3.864   5.513   9.898
    1   AR   Ar  256   6.004   4.598   3.563
    7.12000  7.12000 12.00000
Argon-slab step 4085
  256
    1   AR   Ar    1   4.526   2.683  -2.975
    1   AR   Ar    2   6.403   0.176   0.151
    1   AR   Ar    3   4.036   2.377  -1.821
    1   AR   Ar    4   1.786   0.945  -0.086
    1   AR   Ar    5   6.591   6.067   0.910
    1   AR   Ar    6   0.758   1.911   2.095
    1   AR   Ar    7   5.358   3.801   3.558
    1   AR   Ar    8   4.755   1.409   0.281
    1   AR   Ar    9   1.063   7.018   3.405
    1   AR   Ar   10   0.252   0.064   4.319
    1   AR   Ar   11   1.962   7.039   4.229
    1   AR   Ar   12   0.788   1.026   3.329
    1   AR   Ar   13   6.985   0.449   5.447
    1   AR   Ar   14   4.731   0.952   7.377
    1   AR   Ar   15   3.221   6.711   8.788
    1   AR   Ar   16   1.186   6.953   5.118
    1   AR   Ar   17   5.929   2.044   1.105
    1   AR   Ar   18   6.473   5.045  -0.557
    1   AR   Ar   19   3.608   3.421  -0.143
    1   AR   Ar   20   6.902   4.545  -2.617
    1   AR   Ar   21   2.670   1.957   1.785
    1   AR   Ar   22   7.021   1.459   2.580
    1   AR   Ar   23   0.247   6.945   0.749
    1   AR   Ar   24   5.061   2.910   2.733
    1   AR   Ar   25   0.296   2.225   4.456
    1   AR   Ar   26   6.239   6.587   4.229
    1   AR   Ar   27   1.547   1.086   2.499
    1   AR   Ar   28   1.113   2.846   3.883
    1   AR   Ar   29   6.121   1.453   7.746
    1   AR   Ar   30   1.826   0.861   3.560
    1   AR   Ar   31   3.319   6.973   7.751
    1   AR   Ar   32   0.722   2.510   6.571
    1   AR   Ar   33   0.791   3.819  -0.464
    1   AR   Ar   34   0.554   4.775   2.274
    1   AR   Ar   35   5.823   5.733   1.637
    1   AR   Ar   36   6.079   2.631  -2.454
    1   AR   Ar   37   4.240   2.377   2.117
    1   AR   Ar   38   6.726   3.827   3.513
    1   AR   Ar   39   0.496   3.587   2.959
    1   AR   Ar   40   2.078   4.489   1.690
    1   AR   Ar   41   0.362   2.483   3.087
    1   AR   Ar   42   5.818   5.220   4.849
    1   AR   Ar   43   6.852   2.595   6.065
    1   AR   Ar   44   0.437   4.741   3.475
    1   AR   Ar   45   0.519   3.493   6.116
    1   AR   Ar   46   0.334   4.970   5.122
    1   AR   Ar   47   3.768   4.556   7.413
    1   AR   Ar   48   5.738   3.352   7.477
    1   AR   Ar   49   5.476   0.077  -1.474
    1   AR   Ar   50   3.779   4.704   0.319
    1   AR   Ar   51   5.748   4.282   1.960
    1   AR   Ar   52   5.282   2.829  -1.720
    1   AR   Ar   53   5.288   6.203   2.415
    1   AR   Ar   54   0.955   6.545   2.287
    1   AR   Ar   55   6.569   4.990   2.572
    1   AR   Ar   56   6.721   0.467   2.389
    1   AR   Ar   57   4.351   4.215   3.445
    1   AR   Ar   58   0.508   3.595   4.206
    1   AR   Ar   59   2.266   5.227   5.800
    1   AR   Ar   60   0.604   5.734   3.288
    1   AR   Ar   61   0.242   4.107   6.955
    1   AR   Ar   62   6.646   4.385   4.314
    1   AR   Ar   63   1.046   1.454   6.675
    1   AR   Ar   64   0.954   5.684   4.967
    1   AR   Ar   65   3.740   0.052   0.969
    1   AR   Ar   66   0.969   1.560   1.129
    1   AR   Ar   67   4.455   0.105  -1.001
    1   AR   Ar   68   1.073   0.651  -0.717
    1   AR   Ar   69   2.814   1.332  -0.278
    1   AR   Ar   70   0.572   0.701   2.132
    1   AR   Ar   71   2.716   1.434   2.885
    1   AR   Ar   72   4.672   0.322   1.720
    1   AR   Ar   73   3.461   0.845   3.456
    1   AR   Ar   74   0.858   0.926   4.380
    1   AR   Ar   75   3.223   0.801   4.607
    1   AR   Ar   76   1.226   0.298   1.473
    1   AR   Ar   77   2.284   6.811   5.217
    1   AR   Ar   78   0.006   5.671   5.704
    1   AR   Ar   79   3.767   6.349   6.740
    1   AR   Ar   80   3.893   5.307   5.120
    1   AR   Ar   81   2.233   6.673  -0.078
    1   AR   Ar   82   6.851   4.850   0.623
    1   AR   Ar   83   1.630   3.027  -0.661
    1   AR   Ar   84   1.023   4.349   1.037
    1   AR   Ar   85   1.877   3.388   0.786
    1   AR   Ar   86   2.074   5.393   1.049
    1   AR   Ar   87   2.146   2.945   1.917
    1   AR   Ar   88   2.939   5.020   1.536
    1   AR   Ar   89   6.889   2.544   2.043
    1   AR   Ar   90   3.146   1.865   4.504
    1   AR   Ar   91   1.291   1.858   3.093
    1   AR   Ar   92   1.268   3.702   2.021
    1   AR   Ar   93   0.894   1.044   5.392
    1   AR   Ar   94   0.881   6.462  10.639
    1   AR   Ar   95   4.666   1.136   5.422
    1   AR   Ar   96   3.003   7.037   4.141
    1   AR   Ar   97   3.667   2.399  -0.474
    1   AR   Ar   98   1.702   4.243   3.650
    1   AR   Ar   99   7.108   1.901   0.427
    1   AR   Ar  100   0.675   3.141  -1.435
    1   AR   Ar  101   3.582   6.150   2.349
    1   AR   Ar  102   3.840   1.490   2.708
    1   AR   Ar  103   1.902   4.390   0.638
    1   AR   Ar  104   3.420   5.040  -1.250
    1   AR   Ar  105   2.309   2.031   3.748
    1   AR   Ar  106   3.993   2.976   5.760
    1   AR   Ar  107   0.953   4.163   4.986
    1   AR   Ar  108   2.339   1.284   4.785
    1   AR   Ar  109   1.679   3.239   4.720
    1   AR   Ar  110   2.526   2.704   4.888
    1   AR   Ar  111   5.070   5.484   6.904
    1   AR   Ar  112   0.880   6.134   6.218
    1   AR   Ar  113   3.719   3.998  -1.050
    1   AR   Ar  114   1.791   7.081  -1.116
    1   AR   Ar  115   1.775   5.430   0.056
    1   AR   Ar  116   5.777   0.690  -0.537
    1   AR   Ar  117   1.309   5.061   4.126
    1   AR   Ar  118   1.629   5.191   3.124
    1   AR   Ar  119   2.263   4.200   2.728
    1   AR   Ar  120   1.769   6.384   1.748
    1   AR   Ar  121   5.287   4.000   5.171
    1   AR   Ar  122   2.771   5.845   4.984
    1   AR   Ar  123   3.084   4.165   5.485
    1   AR   Ar  124   1.111   5.566   1.641
    1   AR   Ar  125   6.701   2.871   4.812
    1   AR   Ar  126   6.616   6.453   5.306
    1   AR   Ar  127   4.113   4.062   6.409
    1   AR   Ar  128   3.089   3.531   6.235
    1   AR   Ar  129   1.758   5.958   3.971
    1   AR   Ar  130   4.955   1.796  -3.906
    1   AR   Ar  131   3.942   3.875  -2.334
    1   AR   Ar  132   1.005   1.873  -0.029
    1   AR   Ar  133   4.266   6.777   3.632
    1   AR   Ar  134   4.248   1.213   4.348
    1   AR   Ar  135   5.895   0.853   3.014
    1   AR   Ar  136   6.493   6.480   2.462
    1   AR   Ar  137   1.924   4.170   5.153
    1   AR   Ar  138   5.688   0.855   6.212
    1   AR   Ar  139   5.727   2.647   5.781
    1   AR   Ar  140   4.185   0.040   4.772
    1   AR   Ar  141   3.906   5.011   3.988
    1   AR   Ar  142   4.073   0.279   5.940
    1   AR   Ar  143   7.034   6.152   6.653
    1   AR   Ar  144   6.486   1.403   5.062
    1   AR   Ar  145   4.491   5.059  -0.994
    1   AR   Ar  146   3.319   2.373   2.604
    1   AR   Ar  147   4.429   2.919  -0.999
    1   AR   Ar  148   2.791   6.675  -0.951
    1   AR   Ar  149   2.007   1.621  -1.068
    1   AR   Ar  150   2.209   2.306   2.759
    1   AR   Ar  151   2.966   2.799   3.606
    1   AR   Ar  152   1.644   2.321  -1.836
    1   AR   Ar  153   5.314   0.391   4.378
    1   AR   Ar  154   3.997   2.208   3.854
    1   AR   Ar  155   6.904   4.061   5.435
    1   AR   Ar  156   2.952   4.859   3.658
    1   AR   Ar  157   1.418   4.267   6.328
    1   AR   Ar  158   0.072   1.402   6.033
    1   AR   Ar  159   3.511   1.066   6.408
    1   AR   Ar  160   1.508   2.051   4.846
    1   AR   Ar  161   5.142   4.749   2.812
    1   AR   Ar  162   4.153   5.937  -0.300
    1   AR   Ar  163   5.960   4.530   0.420
    1   AR   Ar  164   2.370   5.702   2.157
    1   AR   Ar  165   4.023   2.250   0.588
    1   AR   Ar  166   2.531   3.850   4.454
    1   AR   Ar  167   5.646   6.929   3.368
    1   AR   Ar  168   4.988   4.296  -1.471
    1   AR   Ar  169   3.454   3.890   2.935
    1   AR   Ar  170   2.026   3.233   5.910
    1   AR   Ar  171   5.920   3.488   4.476
    1   AR   Ar  172   4.240   4.048   5.161
    1   AR   Ar  173   1.952   1.919   6.247
    1   AR   Ar  174   2.109   6.240   6.037
    1   AR   Ar  175   3.963   1.939   5.562
    1   AR   Ar  176   3.610   3.001   4.700
    1   AR   Ar  177   0.885   5.171  -0.542
    1   AR   Ar  178   3.067   6.038   0.056
    1   AR   Ar  179   3.095   0.067   0.251
    1   AR   Ar  180   5.052   0.807  -4.327
    1   AR   Ar  181   7.080   5.358   1.623
    1   AR   Ar  182   1.844   6.517   2.805
    1   AR   Ar  183   4.926   5.256   1.832
    1   AR   Ar  184   4.634   6.642   0.526
    1   AR   Ar  185   3.074   4.857   4.694
    1   AR   Ar  186   2.752   5.774   3.361
    1   AR   Ar  187   3.342   6.874   3.083
    1   AR   Ar  188   2.893   7.072   2.077
    1   AR   Ar  189   4.949   3.182   6.354
    1   AR   Ar  190   3.526   5.930   4.136
    1   AR   Ar  191   2.307   6.444   7.281
    1   AR   Ar  192   4.452   6.163   5.771
    1   AR   Ar  193   3.212   6.215   1.199
    1   AR   Ar  194   5.479   3.644  -0.369
    1   AR   Ar  195   5.552   0.743   1.158
    1   AR   Ar  196   3.782   1.297  -0.524
    1   AR   Ar  197   3.929   1.422   1.170
    1   AR   Ar  198   5.685   0.557   2.087
    1   AR   Ar  199   2.397   0.225   2.957
    1   AR   Ar  200   5.125   2.860   0.535
    1   AR   Ar  201   5.718   5.866   3.410
    1   AR   Ar  202   5.315   1.586   4.444
    1   AR   Ar  203   7.116   6.843   3.360
    1   AR   Ar  204   5.893   5.703   5.858
    1   AR   Ar  205   6.881   1.228   1.509
    1   AR   Ar  206   5.978   0.312   5.437
    1   AR   Ar  207   0.658   2.069   5.418
    1   AR   Ar  208   0.582   6.262   4.295
    1   AR   Ar  209   0.163   2.280  -2.097
    1   AR   Ar  210   2.319   7.027   1.085
    1   AR   Ar  211   6.876   3.090   1.063
    1   AR   Ar  212   6.403   3.423  -0.036
    1   AR   Ar  213   2.320   0.756   1.897
    1   AR   Ar  214   4.514   3.842   2.492
    1   AR   Ar  215   6.107   3.255   2.403
    1   AR   Ar  216   1.000   2.640   0.871
    1   AR   Ar  217   4.970   1.947   3.502
    1   AR   Ar  218   4.796   3.445   4.450
    1   AR   Ar  219   4.144   3.169   3.258
    1   AR   Ar  220   4.148   3.197   1.475
    1   AR   Ar  221   6.640   5.683   3.418
    1   AR   Ar  222   5.433   6.840   6.173
    1   AR   Ar  223   6.415   1.581   6.618
    1   AR   Ar  224   4.925   2.619   5.066
    1   AR   Ar  225   6.231   2.895   3.564
    1   AR   Ar  226   1.615   3.366   3.056
    1   AR   Ar  227   6.959   3.971   2.024
    1   AR   Ar  228   5.781   6.895   1.403
    1   AR   Ar  229   5.336   5.671  -1.458
    1   AR   Ar  230   3.547   3.918   4.064
    1   AR   Ar  231   5.156   1.370   2.338
    1   AR   Ar  232   5.302   2.679   1.658
    1   AR   Ar  233   6.591   1.947   3.699
    1   AR   Ar  234   5.416   2.608   4.166
    1   AR   Ar  235   6.983   1.055   4.031
    1   AR   Ar  236   5.010   5.023   5.379
    1   AR   Ar  237   5.637   2.411   6.880
    1   AR   Ar  238   5.753   4.084   6.133
    1   AR   Ar  239   0.451   4.655   9.647
    1   AR   Ar  240   6.565   2.551   7.524
    1   AR   Ar  241   1.855   6.041  -0.959
    1   AR   Ar  242   5.486   6.024   0.601
    1   AR   Ar  243   4.507   5.626   2.759
    1   AR   Ar  244   0.843   5.275   0.565
    1   AR   Ar  245   3.539   0.723   1.891
    1   AR   Ar  246   5.519   6.358  -0.558
    1   AR   Ar  247   6.140   3.852   1.138
    1   AR   Ar  248   5.202   5.243  -0.184
    1   AR   Ar  249   4.355   6.287   1.550
    1   AR   Ar  250   4.542   5.816   4.378
    1   AR   Ar  251   5.188   4.893   4.035
    1   AR   Ar  252   3.610   5.201   2.993
    1   AR   Ar  253   6.533   3.378   6.461
    1   AR   Ar  254   3.328   1.811   9.647
    1   AR   Ar  255   3.847   5.513   9.902
    1   AR   Ar  256   6.047   4.639   3.544
    7.12000  7.12000 12.00000
Argon-slab step 4090
  256
    1   AR   Ar    1   4.518   2.707  -3.006
    1   AR   Ar    2   6.421   0.143   0.155
    1   AR   Ar    3   4.034   2.401  -1.830
    1   AR   Ar    4   1.768   0.968  -0.031
    1   AR   Ar    5   6.561   6.053   0.921
    1   AR   Ar    6   0.794   1.893   2.082
    1   AR   Ar    7   5.343   3.835   3.566
    1   AR   Ar    8   4.771   1.424   0.282
    1   AR   Ar    9   1.047   7.026   3.431
    1   AR   Ar   10   0.258   0.070   4.297
    1   AR   Ar   11   1.948   7.012   4.238
    1   AR   Ar   12   0.739   1.052   3.341
    1   AR   Ar   13   6.976   0.423   5.467
    1   AR   Ar   14   4.718   0.933   7.343
    1   AR   Ar   15   3.219   6.725   8.833
    1   AR   Ar   16   1.219   6.941   5.102
    1   AR   Ar   17   5.911   2.025   1.135
    1   AR   Ar   18   6.476   5.078  -0.509
    1   AR   Ar   19   3.631   3.420  -0.180
    1   AR   Ar   20   6.933   4.545  -2.664
    1   AR   Ar   21   2.657   1.970   1.791
    1   AR   Ar   22   7.035   1.470   2.579
    1   AR   Ar   23   0.226   6.946   0.773
    1   AR   Ar   24   5.082   2.949   2.748
    1   AR   Ar   25   0.339   2.241   4.447
    1   AR   Ar   26   6.243   6.593   4.250
    1   AR   Ar   27   1.535   1.071   2.480
    1   AR   Ar   28   1.147   2.826   3.900
    1   AR   Ar   29   6.120   1.463   7.706
    1   AR   Ar   30   1.823   0.844   3.534
    1   AR   Ar   31   3.296   6.973   7.761
    1   AR   Ar   32   0.728   2.510   6.544
    1   AR   Ar   33   0.801   3.785  -0.440
    1   AR   Ar   34   0.580   4.779   2.263
    1   AR   Ar   35   5.832   5.739   1.633
    1   AR   Ar   36   6.069   2.635  -2.462
    1   AR   Ar   37   4.223   2.368   2.078
    1   AR   Ar   38   6.711   3.788   3.514
    1   AR   Ar   39   0.489   3.566   2.963
    1   AR   Ar   40   2.071   4.483   1.703
    1   AR   Ar   41   0.328   2.501   3.078
    1   AR   Ar   42   5.814   5.233   4.875
    1   AR   Ar   43   6.861   2.581   6.060
    1   AR   Ar   44   0.457   4.717   3.450
    1   AR   Ar   45   0.541   3.492   6.089
    1   AR   Ar   46   0.336   4.946   5.139
    1   AR   Ar   47   3.741   4.572   7.383
    1   AR   Ar   48   5.735   3.322   7.471
    1   AR   Ar   49   5.493   0.078  -1.491
    1   AR   Ar   50   3.762   4.676   0.323
    1   AR   Ar   51   5.739   4.256   2.010
    1   AR   Ar   52   5.267   2.814  -1.694
    1   AR   Ar   53   5.278   6.179   2.420
    1   AR   Ar   54   0.949   6.525   2.282
    1   AR   Ar   55   6.576   4.967   2.560
    1   AR   Ar   56   6.724   0.473   2.365
    1   AR   Ar   57   4.301   4.191   3.444
    1   AR   Ar   58   0.542   3.632   4.241
    1   AR   Ar   59   2.268   5.239   5.814
    1   AR   Ar   60   0.612   5.727   3.251
    1   AR   Ar   61   0.219   4.055   6.918
    1   AR   Ar   62   6.634   4.387   4.319
    1   AR   Ar   63   1.042   1.501   6.658
    1   AR   Ar   64   0.972   5.678   4.980
    1   AR   Ar   65   3.744   0.027   0.967
    1   AR   Ar   66   0.980   1.590   1.152
    1   AR   Ar   67   4.451   0.107  -0.996
    1   AR   Ar   68   1.078   0.644  -0.651
    1   AR   Ar   69   2.825   1.302  -0.264
    1   AR   Ar   70   0.540   0.686   2.135
    1   AR   Ar   71   2.682   1.444   2.834
    1   AR   Ar   72   4.675   0.338   1.662
    1   AR   Ar   73   3.411   0.824   3.463
    1   AR   Ar   74   0.842   0.921   4.416
    1   AR   Ar   75   3.231   0.777   4.621
    1   AR   Ar   76   1.210   0.328   1.492
    1   AR   Ar   77   2.312   6.824   5.208
    1   AR   Ar   78   7.120   5.655   5.700
    1   AR   Ar   79   3.774   6.337   6.738
    1   AR   Ar   80   3.918   5.323   5.116
    1   AR   Ar   81   2.219   6.658  -0.097
    1   AR   Ar   82   6.858   4.872   0.632
    1   AR   Ar   83   1.623   3.027  -0.649
    1   AR   Ar   84   1.023   4.353   1.052
    1   AR   Ar   85   1.877   3.385   0.796
    1   AR   Ar   86   2.075   5.391   1.074
    1   AR   Ar   87   2.162   2.947   1.901
    1   AR   Ar   88   2.927   5.013   1.551
    1   AR   Ar   89   6.879   2.560   2.015
    1   AR   Ar   90   3.170   1.860   4.515
    1   AR   Ar   91   1.287   1.862   3.091
    1   AR   Ar   92   1.260   3.731   2.011
    1   AR   Ar   93   0.921   1.032   5.384
    1   AR   Ar   94   0.897   6.480  10.614
    1   AR   Ar   95   4.655   1.150   5.424
    1   AR   Ar   96   2.977   7.050   4.148
    1   AR   Ar   97   3.696   2.393  -0.498
    1   AR   Ar   98   1.717   4.222   3.640
    1   AR   Ar   99   0.007   1.909   0.463
    1   AR   Ar  100   0.668   3.140  -1.465
    1   AR   Ar  101   3.537   6.142   2.338
    1   AR   Ar  102   3.845   1.498   2.711
    1   AR   Ar  103   1.909   4.390   0.622
    1   AR   Ar  104   3.429   5.019  -1.248
    1   AR   Ar  105   2.306   2.043   3.738
    1   AR   Ar  106   3.972   2.985   5.765
    1   AR   Ar  107   0.955   4.195   4.965
    1   AR   Ar  108   2.333   1.300   4.759
    1   AR   Ar  109   1.685   3.238   4.730
    1   AR   Ar  110   2.521   2.719   4.889
    1   AR   Ar  111   5.086   5.477   6.882
    1   AR   Ar  112   0.857   6.184   6.191
    1   AR   Ar  113   3.695   4.012  -1.069
    1   AR   Ar  114   1.805   7.082  -1.130
    1   AR   Ar  115   1.756   5.409   0.062
    1   AR   Ar  116   5.720   0.716  -0.527
    1   AR   Ar  117   1.321   5.053   4.128
    1   AR   Ar  118   1.601   5.192   3.121
    1   AR   Ar  119   2.219   4.194   2.741
    1   AR   Ar  120   1.759   6.402   1.763
    1   AR   Ar  121   5.267   3.997   5.215
    1   AR   Ar  122   2.785   5.850   4.983
    1   AR   Ar  123   3.058   4.183   5.458
    1   AR   Ar  124   1.098   5.587   1.640
    1   AR   Ar  125   6.662   2.893   4.817
    1   AR   Ar  126   6.597   6.447   5.343
    1   AR   Ar  127   4.148   4.066   6.398
    1   AR   Ar  128   3.097   3.497   6.208
    1   AR   Ar  129   1.766   5.994   3.979
    1   AR   Ar  130   4.965   1.823  -3.908
    1   AR   Ar  131   3.969   3.872  -2.340
    1   AR   Ar  132   1.012   1.882  -0.045
    1   AR   Ar  133   4.275   6.800   3.657
    1   AR   Ar  134   4.269   1.248   4.314
    1   AR   Ar  135   5.892   0.873   3.038
    1   AR   Ar  136   6.521   6.497   2.470
    1   AR   Ar  137   1.931   4.169   5.184
    1   AR   Ar  138   5.684   0.885   6.217
    1   AR   Ar  139   5.760   2.640   5.808
    1   AR   Ar  140   4.176   0.036   4.751
    1   AR   Ar  141   3.897   5.018   4.001
    1   AR   Ar  142   4.044   0.265   5.951
    1   AR   Ar  143   7.008   6.172   6.653
    1   AR   Ar  144   6.457   1.383   5.060
    1   AR   Ar  145   4.470   5.053  -1.018
    1   AR   Ar  146   3.310   2.389   2.594
    1   AR   Ar  147   4.419   2.944  -1.002
    1   AR   Ar  148   2.788   6.662  -0.923
    1   AR   Ar  149   2.008   1.634  -1.082
    1   AR   Ar  150   2.215   2.299   2.779
    1   AR   Ar  151   2.960   2.776   3.585
    1   AR   Ar  152   1.638   2.298  -1.853
    1   AR   Ar  153   5.312   0.396   4.368
    1   AR   Ar  154   3.980   2.231   3.879
    1   AR   Ar  155   6.895   4.052   5.429
    1   AR   Ar  156   2.942   4.862   3.647
    1   AR   Ar  157   1.425   4.288   6.354
    1   AR   Ar  158   0.082   1.399   6.046
    1   AR   Ar  159   3.517   1.059   6.401
    1   AR   Ar  160   1.505   2.045   4.847
    1   AR   Ar  161   5.135   4.730   2.827
    1   AR   Ar  162   4.139   5.960  -0.272
    1   AR   Ar  163   5.965   4.548   0.450
    1   AR   Ar  164   2.362   5.671   2.153
    1   AR   Ar  165   4.004   2.238   0.611
    1   AR   Ar  166   2.524   3.822   4.436
    1   AR   Ar  167   5.659   6.897   3.345
    1   AR   Ar  168   4.994   4.279  -1.473
    1   AR   Ar  169   3.433   3.871   2.947
    1   AR   Ar  170   2.010   3.229   5.916
    1   AR   Ar  171   5.900   3.497   4.460
    1   AR   Ar  172   4.231   4.024   5.177
    1   AR   Ar  173   1.934   1.895   6.233
    1   AR   Ar  174   2.091   6.244   6.029
    1   AR   Ar  175   3.942   1.923   5.547
    1   AR   Ar  176   3.608   2.995   4.718
    1   AR   Ar  177   0.892   5.180  -0.513
    1   AR   Ar  178   3.048   6.052   0.056
    1   AR   Ar  179   3.109   0.080   0.237
    1   AR   Ar  180   5.069   0.829  -4.362
    1   AR   Ar  181   7.070   5.340   1.624
    1   AR   Ar  182   1.877   6.473   2.795
    1   AR   Ar  183   4.891   5.278   1.792
    1   AR   Ar  184   4.613   6.642   0.521
    1   AR   Ar  185   3.092   4.866   4.703
    1   AR   Ar  186   2.797   5.784   3.358
    1   AR   Ar  187   3.318   6.902   3.082
    1   AR   Ar  188   2.880   7.086   2.064
    1   AR   Ar  189   4.927   3.212   6.384
    1   AR   Ar  190   3.518   5.920   4.109
    1   AR   Ar  191   2.314   6.445   7.302
    1   AR   Ar  192   4.456   6.139   5.798
    1   AR   Ar  193   3.207   6.172   1.205
    1   AR   Ar  194   5.466   3.647  -0.369
    1   AR   Ar  195   5.528   0.712   1.159
    1   AR   Ar  196   3.784   1.295  -0.522
    1   AR   Ar  197   3.929   1.415   1.221
    1   AR   Ar  198   5.704   0.535   2.086
    1   AR   Ar  199   2.378   0.192   2.970
    1   AR   Ar  200   5.097   2.854   0.568
    1   AR   Ar  201   5.714   5.864   3.397
    1   AR   Ar  202   5.313   1.613   4.444
    1   AR   Ar  203   7.097   6.819   3.364
    1   AR   Ar  204   5.924   5.673   5.836
    1   AR   Ar  205   6.863   1.207   1.503
    1   AR   Ar  206   5.982   0.317   5.440
    1   AR   Ar  207   0.646   2.078   5.416
    1   AR   Ar  208   0.582   6.255   4.288
    1   AR   Ar  209   0.171   2.280  -2.112
    1   AR   Ar  210   2.337   7.008   1.042
    1   AR   Ar  211   6.892   3.080   1.093
    1   AR   Ar  212   6.387   3.420  -0.040
    1   AR   Ar  213   2.341   0.755   1.882
    1   AR   Ar  214   4.505   3.825   2.511
    1   AR   Ar  215   6.096   3.273   2.399
    1   AR   Ar  216   0.991   2.627   0.855
    1   AR   Ar  217   4.965   1.924   3.484
    1   AR   Ar  218   4.793   3.468   4.449
    1   AR   Ar  219   4.124   3.182   3.273
    1   AR   Ar  220   4.173   3.195   1.484
    1   AR   Ar  221   6.655   5.723   3.425
    1   AR   Ar  222   5.453   6.847   6.171
    1   AR   Ar  223   6.397   1.589   6.637
    1   AR   Ar  224   4.936   2.620   5.092
    1   AR   Ar  225   6.234   2.859   3.553
    1   AR   Ar  226   1.597   3.366   3.065
    1   AR   Ar  227   6.967   3.972   2.011
    1   AR   Ar  228   5.801   6.908   1.423
    1   AR   Ar  229   5.335   5.657  -1.446
    1   AR   Ar  230   3.527   3.928   4.058
    1   AR   Ar  231   5.154   1.401   2.323
    1   AR   Ar  232   5.292   2.707   1.683
    1   AR   Ar  233   6.604   1.950   3.690
    1   AR   Ar  234   5.401   2.628   4.201
    1   AR   Ar  235   6.965   1.047   4.033
    1   AR   Ar  236   5.020   5.027   5.367
    1   AR   Ar  237   5.613   2.438   6.895
    1   AR   Ar  238   5.738   4.080   6.120
    1   AR   Ar  239   0.438   4.644   9.635
    1   AR   Ar  240   6.552   2.508   7.515
    1   AR   Ar  241   1.863   6.015  -0.945
    1   AR   Ar  242   5.491   5.999   0.585
    1   AR   Ar  243   4.518   5.645   2.735
    1   AR   Ar  244   0.822   5.282   0.591
    1   AR   Ar  245   3.559   0.694   1.890
    1   AR   Ar  246   5.495   6.342  -0.517
    1   AR   Ar  247   6.151   3.855   1.124
    1   AR   Ar  248   5.197   5.242  -0.135
    1   AR   Ar  249   4.379   6.289   1.589
    1   AR   Ar  250   4.559   5.801   4.384
    1   AR   Ar  251   5.206   4.907   4.004
    1   AR   Ar  252   3.594   5.189   2.989
    1   AR   Ar  253   6.524   3.393   6.455
    1   AR   Ar  254   3.327   1.804   9.660
    1   AR   Ar  255   3.829   5.513   9.906
    1   AR   Ar  256   6.088   4.685   3.516
    7.12000  7.12000 12.00000
Argon-slab step 4095
  256
    1   AR   Ar    1   4.511   2.731  -3.037
    1   AR   Ar    2   6.437   0.109   0.161
    1   AR   Ar    3   4.033   2.425  -1.842
    1   AR   Ar    4   1.759   0.995   0.032
    1   AR   Ar    5   6.534   6.040   0.930
    1   AR   Ar    6   0.829   1.878   2.080
    1   AR   Ar    7   5.328   3.867   3.572
    1   AR   Ar    8   4.785   1.439   0.283
    1   AR   Ar    9   1.033   7.034   3.459
    1   AR   Ar   10   0.248   0.051   4.306
    1   AR   Ar   11   1.927   6.988   4.243
    1   AR   Ar   12   0.684   1.072   3.352
    1   AR   Ar   13   6.977   0.399   5.485
    1   AR   Ar   14   4.706   0.914   7.308
    1   AR   Ar   15   3.216   6.740   8.878
    1   AR   Ar   16   1.250   6.929   5.085
    1   AR   Ar   17   5.895   2.005   1.165
    1   AR   Ar   18   6.477   5.110  -0.459
    1   AR   Ar   19   3.654   3.420  -0.214
    1   AR   Ar   20   6.951   4.541  -2.718
    1   AR   Ar   21   2.645   1.980   1.797
    1   AR   Ar   22   7.048   1.485   2.582
    1   AR   Ar   23   0.204   6.948   0.798
    1   AR   Ar   24   5.104   2.986   2.765
    1   AR   Ar   25   0.381   2.256   4.430
    1   AR   Ar   26   6.248   6.600   4.271
    1   AR   Ar   27   1.522   1.052   2.459
    1   AR   Ar   28   1.182   2.802   3.914
    1   AR   Ar   29   6.119   1.475   7.666
    1   AR   Ar   30   1.817   0.831   3.511
    1   AR   Ar   31   3.272   6.972   7.769
    1   AR   Ar   32   0.733   2.511   6.516
    1   AR   Ar   33   0.811   3.752  -0.416
    1   AR   Ar   34   0.609   4.782   2.254
    1   AR   Ar   35   5.845   5.744   1.629
    1   AR   Ar   36   6.061   2.640  -2.469
    1   AR   Ar   37   4.211   2.354   2.042
    1   AR   Ar   38   6.698   3.747   3.509
    1   AR   Ar   39   0.483   3.548   2.966
    1   AR   Ar   40   2.055   4.474   1.717
    1   AR   Ar   41   0.318   2.489   3.083
    1   AR   Ar   42   5.827   5.250   4.887
    1   AR   Ar   43   6.877   2.550   6.047
    1   AR   Ar   44   0.475   4.687   3.427
    1   AR   Ar   45   0.564   3.489   6.058
    1   AR   Ar   46   0.328   4.909   5.150
    1   AR   Ar   47   3.714   4.588   7.351
    1   AR   Ar   48   5.732   3.293   7.465
    1   AR   Ar   49   5.511   0.078  -1.507
    1   AR   Ar   50   3.745   4.647   0.327
    1   AR   Ar   51   5.729   4.233   2.063
    1   AR   Ar   52   5.252   2.799  -1.669
    1   AR   Ar   53   5.278   6.164   2.421
    1   AR   Ar   54   0.932   6.500   2.287
    1   AR   Ar   55   6.562   4.959   2.548
    1   AR   Ar   56   6.717   0.474   2.351
    1   AR   Ar   57   4.260   4.176   3.446
    1   AR   Ar   58   0.570   3.665   4.269
    1   AR   Ar   59   2.271   5.245   5.826
    1   AR   Ar   60   0.622   5.725   3.214
    1   AR   Ar   61   0.196   4.004   6.882
    1   AR   Ar   62   6.626   4.392   4.338
    1   AR   Ar   63   1.037   1.546   6.641
    1   AR   Ar   64   1.004   5.675   5.002
    1   AR   Ar   65   3.758   7.119   0.969
    1   AR   Ar   66   0.991   1.614   1.165
    1   AR   Ar   67   4.447   0.109  -0.991
    1   AR   Ar   68   1.075   0.634  -0.593
    1   AR   Ar   69   2.826   1.271  -0.249
    1   AR   Ar   70   0.513   0.678   2.143
    1   AR   Ar   71   2.654   1.439   2.783
    1   AR   Ar   72   4.674   0.351   1.606
    1   AR   Ar   73   3.378   0.818   3.464
    1   AR   Ar   74   0.830   0.917   4.440
    1   AR   Ar   75   3.246   0.756   4.639
    1   AR   Ar   76   1.203   0.355   1.505
    1   AR   Ar   77   2.342   6.839   5.196
    1   AR   Ar   78   7.110   5.645   5.707
    1   AR   Ar   79   3.770   6.338   6.725
    1   AR   Ar   80   3.945   5.340   5.114
    1   AR   Ar   81   2.196   6.646  -0.109
    1   AR   Ar   82   6.880   4.899   0.645
    1   AR   Ar   83   1.614   3.026  -0.637
    1   AR   Ar   84   1.014   4.354   1.076
    1   AR   Ar   85   1.876   3.376   0.810
    1   AR   Ar   86   2.072   5.392   1.100
    1   AR   Ar   87   2.193   2.975   1.932
    1   AR   Ar   88   2.926   5.007   1.565
    1   AR   Ar   89   6.870   2.573   1.991
    1   AR   Ar   90   3.198   1.860   4.526
    1   AR   Ar   91   1.296   1.870   3.106
    1   AR   Ar   92   1.274   3.757   2.002
    1   AR   Ar   93   0.948   1.020   5.391
    1   AR   Ar   94   0.912   6.497  10.589
    1   AR   Ar   95   4.646   1.160   5.425
    1   AR   Ar   96   2.954   7.055   4.150
    1   AR   Ar   97   3.723   2.384  -0.520
    1   AR   Ar   98   1.730   4.201   3.637
    1   AR   Ar   99   0.026   1.918   0.501
    1   AR   Ar  100   0.663   3.138  -1.494
    1   AR   Ar  101   3.491   6.132   2.326
    1   AR   Ar  102   3.880   1.495   2.719
    1   AR   Ar  103   1.927   4.397   0.599
    1   AR   Ar  104   3.436   5.001  -1.246
    1   AR   Ar  105   2.296   2.045   3.740
    1   AR   Ar  106   3.953   2.997   5.770
    1   AR   Ar  107   0.960   4.223   4.947
    1   AR   Ar  108   2.321   1.316   4.734
    1   AR   Ar  109   1.680   3.239   4.740
    1   AR   Ar  110   2.524   2.728   4.890
    1   AR   Ar  111   5.101   5.470   6.858
    1   AR   Ar  112   0.836   6.234   6.161
    1   AR   Ar  113   3.675   4.024  -1.088
    1   AR   Ar  114   1.819   7.085  -1.142
    1   AR   Ar  115   1.740   5.390   0.067
    1   AR   Ar  116   5.662   0.742  -0.516
    1   AR   Ar  117   1.327   5.043   4.136
    1   AR   Ar  118   1.574   5.195   3.114
    1   AR   Ar  119   2.178   4.190   2.750
    1   AR   Ar  120   1.761   6.424   1.763
    1   AR   Ar  121   5.251   3.993   5.256
    1   AR   Ar  122   2.775   5.842   4.985
    1   AR   Ar  123   3.032   4.200   5.428
    1   AR   Ar  124   1.084   5.606   1.639
    1   AR   Ar  125   6.626   2.912   4.824
    1   AR   Ar  126   6.575   6.447   5.377
    1   AR   Ar  127   4.183   4.068   6.384
    1   AR   Ar  128   3.105   3.460   6.187
    1   AR   Ar  129   1.740   5.998   3.966
    1   AR   Ar  130   4.974   1.850  -3.910
    1   AR   Ar  131   3.997   3.869  -2.343
    1   AR   Ar  132   1.020   1.891  -0.061
    1   AR   Ar  133   4.283   6.822   3.683
    1   AR   Ar  134   4.290   1.282   4.280
    1   AR   Ar  135   5.891   0.896   3.068
    1   AR   Ar  136   6.547   6.512   2.477
    1   AR   Ar  137   1.945   4.172   5.224
    1   AR   Ar  138   5.677   0.919   6.227
    1   AR   Ar  139   5.795   2.634   5.835
    1   AR   Ar  140   4.166   0.032   4.730
    1   AR   Ar  141   3.900   5.014   4.016
    1   AR   Ar  142   4.018   0.248   5.959
    1   AR   Ar  143   6.979   6.192   6.652
    1   AR   Ar  144   6.429   1.363   5.059
    1   AR   Ar  145   4.449   5.050  -1.039
    1   AR   Ar  146   3.311   2.395   2.590
    1   AR   Ar  147   4.420   2.936  -1.060
    1   AR   Ar  148   2.791   6.649  -0.900
    1   AR   Ar  149   2.008   1.645  -1.093
    1   AR   Ar  150   2.213   2.308   2.790
    1   AR   Ar  151   2.962   2.762   3.563
    1   AR   Ar  152   1.631   2.277  -1.870
    1   AR   Ar  153   5.310   0.401   4.359
    1   AR   Ar  154   3.962   2.256   3.904
    1   AR   Ar  155   6.885   4.042   5.424
    1   AR   Ar  156   2.921   4.846   3.645
    1   AR   Ar  157   1.432   4.308   6.378
    1   AR   Ar  158   0.097   1.401   6.061
    1   AR   Ar  159   3.521   1.056   6.395
    1   AR   Ar  160   1.506   2.039   4.844
    1   AR   Ar  161   5.129   4.710   2.845
    1   AR   Ar  162   4.127   5.982  -0.245
    1   AR   Ar  163   5.951   4.569   0.467
    1   AR   Ar  164   2.355   5.637   2.152
    1   AR   Ar  165   3.987   2.231   0.631
    1   AR   Ar  166   2.523   3.793   4.412
    1   AR   Ar  167   5.673   6.870   3.321
    1   AR   Ar  168   5.010   4.248  -1.479
    1   AR   Ar  169   3.404   3.855   2.956
    1   AR   Ar  170   2.014   3.209   5.924
    1   AR   Ar  171   5.881   3.513   4.443
    1   AR   Ar  172   4.215   4.001   5.193
    1   AR   Ar  173   1.917   1.873   6.216
    1   AR   Ar  174   2.118   6.232   6.014
    1   AR   Ar  175   3.919   1.907   5.529
    1   AR   Ar  176   3.607   2.990   4.735
    1   AR   Ar  177   0.897   5.188  -0.484
    1   AR   Ar  178   3.032   6.064   0.056
    1   AR   Ar  179   3.113   0.094   0.210
    1   AR   Ar  180   5.085   0.850  -4.397
    1   AR   Ar  181   7.058   5.323   1.625
    1   AR   Ar  182   1.909   6.420   2.791
    1   AR   Ar  183   4.904   5.299   1.805
    1   AR   Ar  184   4.592   6.643   0.517
    1   AR   Ar  185   3.106   4.875   4.708
    1   AR   Ar  186   2.835   5.809   3.349
    1   AR   Ar  187   3.298   6.926   3.082
    1   AR   Ar  188   2.871   7.080   2.052
    1   AR   Ar  189   4.928   3.222   6.385
    1   AR   Ar  190   3.506   5.921   4.085
    1   AR   Ar  191   2.279   6.470   7.330
    1   AR   Ar  192   4.461   6.115   5.823
    1   AR   Ar  193   3.201   6.130   1.213
    1   AR   Ar  194   5.446   3.653  -0.372
    1   AR   Ar  195   5.508   0.707   1.134
    1   AR   Ar  196   3.788   1.286  -0.529
    1   AR   Ar  197   3.931   1.406   1.273
    1   AR   Ar  198   5.724   0.510   2.103
    1   AR   Ar  199   2.361   0.169   2.983
    1   AR   Ar  200   5.069   2.847   0.601
    1   AR   Ar  201   5.686   5.859   3.384
    1   AR   Ar  202   5.311   1.636   4.449
    1   AR   Ar  203   7.075   6.793   3.365
    1   AR   Ar  204   5.956   5.645   5.817
    1   AR   Ar  205   6.845   1.187   1.504
    1   AR   Ar  206   5.980   0.317   5.434
    1   AR   Ar  207   0.630   2.090   5.422
    1   AR   Ar  208   0.582   6.245   4.271
    1   AR   Ar  209   0.179   2.280  -2.126
    1   AR   Ar  210   2.357   6.989   1.000
    1   AR   Ar  211   6.910   3.069   1.120
    1   AR   Ar  212   6.379   3.415  -0.039
    1   AR   Ar  213   2.356   0.764   1.864
    1   AR   Ar  214   4.496   3.809   2.522
    1   AR   Ar  215   6.086   3.292   2.395
    1   AR   Ar  216   0.981   2.615   0.838
    1   AR   Ar  217   4.958   1.901   3.462
    1   AR   Ar  218   4.786   3.492   4.442
    1   AR   Ar  219   4.105   3.186   3.292
    1   AR   Ar  220   4.198   3.196   1.490
    1   AR   Ar  221   6.691   5.760   3.433
    1   AR   Ar  222   5.471   6.854   6.168
    1   AR   Ar  223   6.375   1.602   6.660
    1   AR   Ar  224   4.941   2.620   5.126
    1   AR   Ar  225   6.232   2.831   3.540
    1   AR   Ar  226   1.579   3.360   3.070
    1   AR   Ar  227   6.973   3.973   1.999
    1   AR   Ar  228   5.825   6.904   1.439
    1   AR   Ar  229   5.333   5.641  -1.423
    1   AR   Ar  230   3.505   3.936   4.056
    1   AR   Ar  231   5.146   1.426   2.315
    1   AR   Ar  232   5.280   2.738   1.709
    1   AR   Ar  233   6.620   1.948   3.682
    1   AR   Ar  234   5.390   2.646   4.226
    1   AR   Ar  235   6.946   1.036   4.036
    1   AR   Ar  236   5.011   5.029   5.366
    1   AR   Ar  237   5.590   2.461   6.907
    1   AR   Ar  238   5.725   4.077   6.110
    1   AR   Ar  239   0.433   4.652   9.638
    1   AR   Ar  240   6.539   2.465   7.504
    1   AR   Ar  241   1.871   5.987  -0.930
    1   AR   Ar  242   5.497   5.975   0.570
    1   AR   Ar  243   4.548   5.645   2.726
    1   AR   Ar  244   0.800   5.291   0.618
    1   AR   Ar  245   3.582   0.667   1.889
    1   AR   Ar  246   5.470   6.326  -0.475
    1   AR   Ar  247   6.166   3.849   1.116
    1   AR   Ar  248   5.192   5.240  -0.089
    1   AR   Ar  249   4.403   6.292   1.627
    1   AR   Ar  250   4.581   5.786   4.390
    1   AR   Ar  251   5.218   4.922   3.974
    1   AR   Ar  252   3.586   5.178   2.975
    1   AR   Ar  253   6.510   3.422   6.457
    1   AR   Ar  254   3.302   1.816   9.671
    1   AR   Ar  255   3.812   5.513   9.910
    1   AR   Ar  256   6.130   4.734   3.480
    7.12000  7.12000 12.00000
Argon-slab step 4100
  256
    1   AR   Ar    1   4.504   2.754  -3.066
    1   AR   Ar    2   6.452   0.074   0.168
    1   AR   Ar    3   4.030   2.445  -1.860
    1   AR   Ar    4   1.758   1.026   0.101
    1   AR   Ar    5   6.511   6.029   0.935
    1   AR   Ar    6   0.860   1.867   2.094
    1   AR   Ar    7   5.314   3.899   3.576
    1   AR   Ar    8   4.799   1.454   0.286
    1   AR   Ar    9   1.021   7.042   3.487
    1   AR   Ar   10   0.226   0.020   4.336
    1   AR   Ar   11   1.901   6.970   4.243
    1   AR   Ar   12   0.628   1.088   3.362
    1   AR   Ar   13   6.988   0.376   5.502
    1   AR   Ar   14   4.694   0.895   7.272
    1   AR   Ar   15   3.231   6.756   8.887
    1   AR   Ar   16   1.255   6.941   5.091
    1   AR   Ar   17   5.880   1.984   1.194
    1   AR   Ar   18   6.478   5.143  -0.407
    1   AR   Ar   19   3.679   3.419  -0.245
    1   AR   Ar   20   6.950   4.531  -2.783
    1   AR   Ar   21   2.633   1.989   1.804
    1   AR   Ar   22   7.061   1.503   2.587
    1   AR   Ar   23   0.183   6.949   0.824
    1   AR   Ar   24   5.095   3.019   2.752
    1   AR   Ar   25   0.421   2.271   4.409
    1   AR   Ar   26   6.254   6.606   4.292
    1   AR   Ar   27   1.524   1.050   2.435
    1   AR   Ar   28   1.216   2.775   3.926
    1   AR   Ar   29   6.115   1.485   7.629
    1   AR   Ar   30   1.806   0.824   3.494
    1   AR   Ar   31   3.248   6.971   7.776
    1   AR   Ar   32   0.737   2.517   6.487
    1   AR   Ar   33   0.811   3.811  -0.408
    1   AR   Ar   34   0.639   4.783   2.248
    1   AR   Ar   35   5.859   5.749   1.628
    1   AR   Ar   36   6.052   2.644  -2.476
    1   AR   Ar   37   4.202   2.333   2.008
    1   AR   Ar   38   6.685   3.710   3.503
    1   AR   Ar   39   0.480   3.532   2.967
    1   AR   Ar   40   2.035   4.464   1.730
    1   AR   Ar   41   0.326   2.457   3.096
    1   AR   Ar   42   5.853   5.266   4.884
    1   AR   Ar   43   6.882   2.564   6.041
    1   AR   Ar   44   0.494   4.654   3.403
    1   AR   Ar   45   0.555   3.493   6.038
    1   AR   Ar   46   0.307   4.874   5.156
    1   AR   Ar   47   3.688   4.604   7.319
    1   AR   Ar   48   5.731   3.270   7.461
    1   AR   Ar   49   5.527   0.077  -1.520
    1   AR   Ar   50   3.728   4.618   0.329
    1   AR   Ar   51   5.719   4.212   2.116
    1   AR   Ar   52   5.239   2.784  -1.646
    1   AR   Ar   53   5.272   6.179   2.445
    1   AR   Ar   54   0.902   6.477   2.301
    1   AR   Ar   55   6.557   4.946   2.550
    1   AR   Ar   56   6.696   0.473   2.365
    1   AR   Ar   57   4.249   4.211   3.444
    1   AR   Ar   58   0.589   3.689   4.282
    1   AR   Ar   59   2.274   5.243   5.834
    1   AR   Ar   60   0.635   5.727   3.175
    1   AR   Ar   61   0.173   3.957   6.849
    1   AR   Ar   62   6.621   4.397   4.363
    1   AR   Ar   63   1.028   1.582   6.626
    1   AR   Ar   64   1.043   5.673   5.029
    1   AR   Ar   65   3.777   7.091   0.982
    1   AR   Ar   66   1.005   1.629   1.163
    1   AR   Ar   67   4.444   0.111  -0.984
    1   AR   Ar   68   1.064   0.622  -0.541
    1   AR   Ar   69   2.817   1.240  -0.230
    1   AR   Ar   70   0.498   0.678   2.154
    1   AR   Ar   71   2.631   1.421   2.733
    1   AR   Ar   72   4.668   0.362   1.552
    1   AR   Ar   73   3.371   0.835   3.454
    1   AR   Ar   74   0.820   0.914   4.447
    1   AR   Ar   75   3.263   0.743   4.657
    1   AR   Ar   76   1.204   0.377   1.513
    1   AR   Ar   77   2.376   6.857   5.182
    1   AR   Ar   78   7.100   5.640   5.722
    1   AR   Ar   79   3.767   6.340   6.711
    1   AR   Ar   80   3.974   5.357   5.115
    1   AR   Ar   81   2.210   6.671  -0.128
    1   AR   Ar   82   6.910   4.929   0.658
    1   AR   Ar   83   1.605   3.024  -0.625
    1   AR   Ar   84   1.000   4.354   1.104
    1   AR   Ar   85   1.873   3.363   0.825
    1   AR   Ar   86   2.066   5.396   1.126
    1   AR   Ar   87   2.227   3.011   1.974
    1   AR   Ar   88   2.935   5.001   1.577
    1   AR   Ar   89   6.862   2.579   1.976
    1   AR   Ar   90   3.228   1.863   4.536
    1   AR   Ar   91   1.306   1.883   3.123
    1   AR   Ar   92   1.293   3.782   1.994
    1   AR   Ar   93   0.978   1.010   5.414
    1   AR   Ar   94   0.928   6.515  10.563
    1   AR   Ar   95   4.640   1.167   5.424
    1   AR   Ar   96   2.933   7.052   4.146
    1   AR   Ar   97   3.747   2.371  -0.541
    1   AR   Ar   98   1.740   4.182   3.646
    1   AR   Ar   99   0.038   1.920   0.517
    1   AR   Ar  100   0.658   3.135  -1.522
    1   AR   Ar  101   3.445   6.121   2.314
    1   AR   Ar  102   3.915   1.492   2.727
    1   AR   Ar  103   1.949   4.410   0.573
    1   AR   Ar  104   3.437   4.990  -1.245
    1   AR   Ar  105   2.279   2.035   3.756
    1   AR   Ar  106   3.939   3.010   5.773
    1   AR   Ar  107   0.980   4.247   4.936
    1   AR   Ar  108   2.304   1.330   4.708
    1   AR   Ar  109   1.665   3.244   4.750
    1   AR   Ar  110   2.534   2.732   4.893
    1   AR   Ar  111   5.116   5.463   6.833
    1   AR   Ar  112   0.839   6.281   6.155
    1   AR   Ar  113   3.658   4.031  -1.110
    1   AR   Ar  114   1.832   7.089  -1.154
    1   AR   Ar  115   1.730   5.373   0.073
    1   AR   Ar  116   5.603   0.766  -0.504
    1   AR   Ar  117   1.330   5.032   4.148
    1   AR   Ar  118   1.549   5.199   3.104
    1   AR   Ar  119   2.144   4.187   2.751
    1   AR   Ar  120   1.773   6.449   1.751
    1   AR   Ar  121   5.261   3.977   5.258
    1   AR   Ar  122   2.765   5.836   4.986
    1   AR   Ar  123   3.006   4.211   5.404
    1   AR   Ar  124   1.059   5.602   1.659
    1   AR   Ar  125   6.593   2.929   4.832
    1   AR   Ar  126   6.549   6.453   5.408
    1   AR   Ar  127   4.216   4.070   6.369
    1   AR   Ar  128   3.110   3.423   6.167
    1   AR   Ar  129   1.714   6.002   3.951
    1   AR   Ar  130   4.983   1.879  -3.911
    1   AR   Ar  131   4.025   3.865  -2.345
    1   AR   Ar  132   1.029   1.898  -0.076
    1   AR   Ar  133   4.291   6.843   3.709
    1   AR   Ar  134   4.309   1.314   4.247
    1   AR   Ar  135   5.891   0.920   3.101
    1   AR   Ar  136   6.570   6.525   2.482
    1   AR   Ar  137   1.963   4.178   5.269
    1   AR   Ar  138   5.667   0.953   6.238
    1   AR   Ar  139   5.830   2.630   5.862
    1   AR   Ar  140   4.156   0.030   4.709
    1   AR   Ar  141   3.911   5.002   4.031
    1   AR   Ar  142   3.994   0.228   5.964
    1   AR   Ar  143   6.948   6.212   6.651
    1   AR   Ar  144   6.401   1.342   5.057
    1   AR   Ar  145   4.431   5.049  -1.057
    1   AR   Ar  146   3.309   2.403   2.588
    1   AR   Ar  147   4.422   2.938  -1.111
    1   AR   Ar  148   2.803   6.635  -0.886
    1   AR   Ar  149   2.009   1.654  -1.100
    1   AR   Ar  150   2.206   2.334   2.791
    1   AR   Ar  151   2.972   2.756   3.542
    1   AR   Ar  152   1.622   2.257  -1.888
    1   AR   Ar  153   5.307   0.406   4.350
    1   AR   Ar  154   3.945   2.283   3.926
    1   AR   Ar  155   6.873   4.028   5.418
    1   AR   Ar  156   2.891   4.818   3.648
    1   AR   Ar  157   1.439   4.327   6.400
    1   AR   Ar  158   0.112   1.403   6.073
    1   AR   Ar  159   3.525   1.055   6.389
    1   AR   Ar  160   1.509   2.035   4.838
    1   AR   Ar  161   5.123   4.692   2.864
    1   AR   Ar  162   4.115   6.004  -0.219
    1   AR   Ar  163   5.927   4.595   0.474
    1   AR   Ar  164   2.348   5.604   2.157
    1   AR   Ar  165   3.971   2.228   0.649
    1   AR   Ar  166   2.523   3.764   4.386
    1   AR   Ar  167   5.687   6.851   3.295
    1   AR   Ar  168   5.025   4.214  -1.484
    1   AR   Ar  169   3.367   3.842   2.961
    1   AR   Ar  170   2.017   3.189   5.930
    1   AR   Ar  171   5.864   3.538   4.425
    1   AR   Ar  172   4.193   3.979   5.210
    1   AR   Ar  173   1.904   1.854   6.196
    1   AR   Ar  174   2.143   6.224   6.004
    1   AR   Ar  175   3.900   1.894   5.511
    1   AR   Ar  176   3.606   2.985   4.750
    1   AR   Ar  177   0.898   5.195  -0.459
    1   AR   Ar  178   3.019   6.074   0.059
    1   AR   Ar  179   3.111   0.109   0.176
    1   AR   Ar  180   5.102   0.871  -4.432
    1   AR   Ar  181   7.089   5.317   1.612
    1   AR   Ar  182   1.937   6.357   2.791
    1   AR   Ar  183   4.916   5.317   1.816
    1   AR   Ar  184   4.574   6.642   0.513
    1   AR   Ar  185   3.116   4.880   4.710
    1   AR   Ar  186   2.862   5.844   3.330
    1   AR   Ar  187   3.295   6.901   3.105
    1   AR   Ar  188   2.866   7.055   2.042
    1   AR   Ar  189   4.962   3.203   6.341
    1   AR   Ar  190   3.495   5.933   4.069
    1   AR   Ar  191   2.246   6.494   7.356
    1   AR   Ar  192   4.466   6.091   5.849
    1   AR   Ar  193   3.194   6.089   1.221
    1   AR   Ar  194   5.418   3.661  -0.376
    1   AR   Ar  195   5.490   0.712   1.097
    1   AR   Ar  196   3.766   1.251  -0.569
    1   AR   Ar  197   3.936   1.398   1.325
    1   AR   Ar  198   5.738   0.490   2.131
    1   AR   Ar  199   2.345   0.152   2.994
    1   AR   Ar  200   5.041   2.840   0.634
    1   AR   Ar  201   5.650   5.845   3.371
    1   AR   Ar  202   5.311   1.655   4.457
    1   AR   Ar  203   7.054   6.767   3.366
    1   AR   Ar  204   5.987   5.619   5.804
    1   AR   Ar  205   6.824   1.167   1.526
    1   AR   Ar  206   5.971   0.316   5.420
    1   AR   Ar  207   0.613   2.102   5.434
    1   AR   Ar  208   0.583   6.228   4.246
    1   AR   Ar  209   0.188   2.281  -2.140
    1   AR   Ar  210   2.370   6.975   0.970
    1   AR   Ar  211   6.929   3.062   1.140
    1   AR   Ar  212   6.377   3.410  -0.033
    1   AR   Ar  213   2.366   0.785   1.842
    1   AR   Ar  214   4.489   3.795   2.526
    1   AR   Ar  215   6.078   3.309   2.393
    1   AR   Ar  216   0.970   2.606   0.821
    1   AR   Ar  217   4.951   1.878   3.437
    1   AR   Ar  218   4.774   3.515   4.432
    1   AR   Ar  219   4.088   3.178   3.314
    1   AR   Ar  220   4.225   3.204   1.491
    1   AR   Ar  221   6.732   5.796   3.441
    1   AR   Ar  222   5.488   6.858   6.167
    1   AR   Ar  223   6.352   1.619   6.681
    1   AR   Ar  224   4.941   2.619   5.167
    1   AR   Ar  225   6.221   2.812   3.524
    1   AR   Ar  226   1.561   3.348   3.071
    1   AR   Ar  227   6.978   3.974   1.988
    1   AR   Ar  228   5.852   6.884   1.450
    1   AR   Ar  229   5.332   5.624  -1.398
    1   AR   Ar  230   3.479   3.943   4.060
    1   AR   Ar  231   5.133   1.446   2.310
    1   AR   Ar  232   5.268   2.769   1.735
    1   AR   Ar  233   6.642   1.937   3.674
    1   AR   Ar  234   5.380   2.662   4.241
    1   AR   Ar  235   6.926   1.021   4.042
    1   AR   Ar  236   4.989   5.029   5.372
    1   AR   Ar  237   5.568   2.478   6.915
    1   AR   Ar  238   5.717   4.075   6.111
    1   AR   Ar  239   0.435   4.665   9.649
    1   AR   Ar  240   6.526   2.423   7.490
    1   AR   Ar  241   1.879   5.958  -0.913
    1   AR   Ar  242   5.505   5.954   0.561
    1   AR   Ar  243   4.557   5.635   2.729
    1   AR   Ar  244   0.776   5.302   0.645
    1   AR   Ar  245   3.608   0.641   1.893
    1   AR   Ar  246   5.443   6.310  -0.433
    1   AR   Ar  247   6.183   3.836   1.116
    1   AR   Ar  248   5.186   5.236  -0.047
    1   AR   Ar  249   4.428   6.296   1.666
    1   AR   Ar  250   4.605   5.774   4.394
    1   AR   Ar  251   5.226   4.936   3.946
    1   AR   Ar  252   3.586   5.168   2.953
    1   AR   Ar  253   6.492   3.453   6.461
    1   AR   Ar  254   3.278   1.842   9.673
    1   AR   Ar  255   3.795   5.514   9.914
    1   AR   Ar  256   6.170   4.783   3.442
    7.12000  7.12000 12.00000
Argon-slab step 4105
  256
    1   AR   Ar    1   4.497   2.777  -3.094
    1   AR   Ar    2   6.465   0.039   0.175
    1   AR   Ar    3   4.022   2.459  -1.887
    1   AR   Ar    4   1.760   1.059   0.174
    1   AR   Ar    5   6.497   6.021   0.932
    1   AR   Ar    6   0.887   1.860   2.124
    1   AR   Ar    7   5.302   3.929   3.576
    1   AR   Ar    8   4.812   1.469   0.289
    1   AR   Ar    9   1.010   7.050   3.515
    1   AR   Ar   10   0.204   7.119   4.363
    1   AR   Ar   11   1.871   6.957   4.240
    1   AR   Ar   12   0.573   1.101   3.370
    1   AR   Ar   13   7.006   0.355   5.519
    1   AR   Ar   14   4.682   0.876   7.235
    1   AR   Ar   15   3.250   6.773   8.888
    1   AR   Ar   16   1.241   6.969   5.112
    1   AR   Ar   17   5.865   1.963   1.225
    1   AR   Ar   18   6.477   5.176  -0.353
    1   AR   Ar   19   3.704   3.418  -0.275
    1   AR   Ar   20   6.949   4.521  -2.848
    1   AR   Ar   21   2.621   1.996   1.811
    1   AR   Ar   22   7.052   1.514   2.575
    1   AR   Ar   23   0.161   6.950   0.853
    1   AR   Ar   24   5.086   3.053   2.728
    1   AR   Ar   25   0.458   2.284   4.386
    1   AR   Ar   26   6.241   6.582   4.251
    1   AR   Ar   27   1.536   1.059   2.410
    1   AR   Ar   28   1.250   2.746   3.933
    1   AR   Ar   29   6.104   1.486   7.605
    1   AR   Ar   30   1.789   0.824   3.483
    1   AR   Ar   31   3.224   6.969   7.782
    1   AR   Ar   32   0.740   2.532   6.457
    1   AR   Ar   33   0.813   3.871  -0.400
    1   AR   Ar   34   0.671   4.782   2.244
    1   AR   Ar   35   5.870   5.751   1.634
    1   AR   Ar   36   6.043   2.648  -2.483
    1   AR   Ar   37   4.196   2.304   1.978
    1   AR   Ar   38   6.692   3.727   3.504
    1   AR   Ar   39   0.477   3.519   2.967
    1   AR   Ar   40   2.014   4.456   1.740
    1   AR   Ar   41   0.334   2.425   3.110
    1   AR   Ar   42   5.878   5.269   4.887
    1   AR   Ar   43   6.890   2.574   6.033
    1   AR   Ar   44   0.512   4.619   3.380
    1   AR   Ar   45   0.527   3.500   6.019
    1   AR   Ar   46   0.274   4.851   5.161
    1   AR   Ar   47   3.662   4.619   7.286
    1   AR   Ar   48   5.733   3.259   7.463
    1   AR   Ar   49   5.543   0.077  -1.532
    1   AR   Ar   50   3.711   4.590   0.330
    1   AR   Ar   51   5.707   4.197   2.166
    1   AR   Ar   52   5.235   2.768  -1.631
    1   AR   Ar   53   5.281   6.204   2.457
    1   AR   Ar   54   0.867   6.456   2.320
    1   AR   Ar   55   6.563   4.934   2.551
    1   AR   Ar   56   6.670   0.468   2.388
    1   AR   Ar   57   4.247   4.252   3.442
    1   AR   Ar   58   0.585   3.695   4.274
    1   AR   Ar   59   2.279   5.231   5.840
    1   AR   Ar   60   0.641   5.709   3.153
    1   AR   Ar   61   0.151   3.915   6.823
    1   AR   Ar   62   6.616   4.403   4.390
    1   AR   Ar   63   1.017   1.606   6.614
    1   AR   Ar   64   1.083   5.672   5.058
    1   AR   Ar   65   3.792   7.063   1.001
    1   AR   Ar   66   1.021   1.635   1.148
    1   AR   Ar   67   4.442   0.112  -0.977
    1   AR   Ar   68   1.049   0.603  -0.506
    1   AR   Ar   69   2.801   1.208  -0.209
    1   AR   Ar   70   0.494   0.683   2.168
    1   AR   Ar   71   2.613   1.393   2.686
    1   AR   Ar   72   4.656   0.370   1.502
    1   AR   Ar   73   3.363   0.852   3.445
    1   AR   Ar   74   0.820   0.901   4.456
    1   AR   Ar   75   3.276   0.742   4.661
    1   AR   Ar   76   1.213   0.397   1.515
    1   AR   Ar   77   2.412   6.877   5.168
    1   AR   Ar   78   7.091   5.637   5.741
    1   AR   Ar   79   3.763   6.343   6.697
    1   AR   Ar   80   4.000   5.374   5.118
    1   AR   Ar   81   2.214   6.677  -0.129
    1   AR   Ar   82   6.939   4.958   0.668
    1   AR   Ar   83   1.595   3.021  -0.613
    1   AR   Ar   84   0.986   4.354   1.134
    1   AR   Ar   85   1.868   3.350   0.843
    1   AR   Ar   86   2.057   5.402   1.150
    1   AR   Ar   87   2.260   3.051   2.014
    1   AR   Ar   88   2.952   4.993   1.587
    1   AR   Ar   89   6.860   2.569   1.975
    1   AR   Ar   90   3.255   1.865   4.549
    1   AR   Ar   91   1.316   1.896   3.143
    1   AR   Ar   92   1.308   3.803   1.989
    1   AR   Ar   93   0.987   1.022   5.429
    1   AR   Ar   94   0.944   6.533  10.538
    1   AR   Ar   95   4.637   1.171   5.421
    1   AR   Ar   96   2.915   7.043   4.138
    1   AR   Ar   97   3.769   2.355  -0.559
    1   AR   Ar   98   1.746   4.165   3.670
    1   AR   Ar   99   0.038   1.912   0.500
    1   AR   Ar  100   0.654   3.132  -1.550
    1   AR   Ar  101   3.398   6.109   2.303
    1   AR   Ar  102   3.951   1.488   2.734
    1   AR   Ar  103   1.972   4.424   0.547
    1   AR   Ar  104   3.428   4.989  -1.247
    1   AR   Ar  105   2.258   2.018   3.781
    1   AR   Ar  106   3.935   3.020   5.773
    1   AR   Ar  107   1.024   4.270   4.934
    1   AR   Ar  108   2.347   1.354   4.694
    1   AR   Ar  109   1.643   3.253   4.763
    1   AR   Ar  110   2.549   2.732   4.895
    1   AR   Ar  111   5.130   5.457   6.805
    1   AR   Ar  112   0.848   6.326   6.153
    1   AR   Ar  113   3.646   4.029  -1.132
    1   AR   Ar  114   1.845   7.094  -1.163
    1   AR   Ar  115   1.728   5.359   0.082
    1   AR   Ar  116   5.544   0.789  -0.492
    1   AR   Ar  117   1.329   5.020   4.163
    1   AR   Ar  118   1.529   5.200   3.091
    1   AR   Ar  119   2.117   4.186   2.742
    1   AR   Ar  120   1.791   6.475   1.734
    1   AR   Ar  121   5.275   3.957   5.242
    1   AR   Ar  122   2.754   5.832   4.988
    1   AR   Ar  123   2.982   4.210   5.390
    1   AR   Ar  124   1.035   5.597   1.678
    1   AR   Ar  125   6.565   2.943   4.843
    1   AR   Ar  126   6.521   6.465   5.437
    1   AR   Ar  127   4.250   4.071   6.353
    1   AR   Ar  128   3.110   3.389   6.150
    1   AR   Ar  129   1.688   6.003   3.932
    1   AR   Ar  130   4.992   1.907  -3.911
    1   AR   Ar  131   4.054   3.860  -2.346
    1   AR   Ar  132   1.039   1.906  -0.090
    1   AR   Ar  133   4.299   6.862   3.732
    1   AR   Ar  134   4.314   1.316   4.264
    1   AR   Ar  135   5.892   0.945   3.136
    1   AR   Ar  136   6.589   6.534   2.484
    1   AR   Ar  137   1.982   4.183   5.316
    1   AR   Ar  138   5.655   0.986   6.249
    1   AR   Ar  139   5.864   2.627   5.888
    1   AR   Ar  140   4.145   0.029   4.692
    1   AR   Ar  141   3.926   4.985   4.047
    1   AR   Ar  142   4.000   0.248   5.976
    1   AR   Ar  143   6.916   6.233   6.649
    1   AR   Ar  144   6.374   1.320   5.056
    1   AR   Ar  145   4.420   5.048  -1.071
    1   AR   Ar  146   3.305   2.411   2.586
    1   AR   Ar  147   4.422   2.952  -1.145
    1   AR   Ar  148   2.827   6.621  -0.885
    1   AR   Ar  149   2.011   1.661  -1.104
    1   AR   Ar  150   2.195   2.369   2.787
    1   AR   Ar  151   2.983   2.743   3.549
    1   AR   Ar  152   1.611   2.239  -1.907
    1   AR   Ar  153   5.304   0.411   4.341
    1   AR   Ar  154   3.932   2.312   3.945
    1   AR   Ar  155   6.859   4.009   5.414
    1   AR   Ar  156   2.865   4.787   3.647
    1   AR   Ar  157   1.445   4.345   6.419
    1   AR   Ar  158   0.126   1.404   6.084
    1   AR   Ar  159   3.527   1.059   6.385
    1   AR   Ar  160   1.512   2.033   4.830
    1   AR   Ar  161   5.116   4.676   2.883
    1   AR   Ar  162   4.103   6.024  -0.194
    1   AR   Ar  163   5.898   4.625   0.477
    1   AR   Ar  164   2.339   5.573   2.165
    1   AR   Ar  165   3.956   2.227   0.665
    1   AR   Ar  166   2.521   3.736   4.361
    1   AR   Ar  167   5.703   6.840   3.268
    1   AR   Ar  168   5.039   4.179  -1.488
    1   AR   Ar  169   3.325   3.831   2.964
    1   AR   Ar  170   2.019   3.169   5.933
    1   AR   Ar  171   5.850   3.571   4.407
    1   AR   Ar  172   4.165   3.958   5.228
    1   AR   Ar  173   1.896   1.838   6.171
    1   AR   Ar  174   2.166   6.223   5.996
    1   AR   Ar  175   3.903   1.886   5.490
    1   AR   Ar  176   3.606   2.981   4.762
    1   AR   Ar  177   0.891   5.200  -0.437
    1   AR   Ar  178   3.011   6.081   0.064
    1   AR   Ar  179   3.107   0.124   0.138
    1   AR   Ar  180   5.118   0.892  -4.467
    1   AR   Ar  181   7.096   5.325   1.603
    1   AR   Ar  182   1.962   6.291   2.795
    1   AR   Ar  183   4.929   5.331   1.825
    1   AR   Ar  184   4.570   6.632   0.504
    1   AR   Ar  185   3.121   4.873   4.725
    1   AR   Ar  186   2.877   5.883   3.301
    1   AR   Ar  187   3.299   6.861   3.135
    1   AR   Ar  188   2.861   7.016   2.033
    1   AR   Ar  189   4.996   3.184   6.295
    1   AR   Ar  190   3.491   5.953   4.064
    1   AR   Ar  191   2.218   6.514   7.376
    1   AR   Ar  192   4.455   6.054   5.857
    1   AR   Ar  193   3.186   6.049   1.230
    1   AR   Ar  194   5.386   3.670  -0.382
    1   AR   Ar  195   5.478   0.724   1.053
    1   AR   Ar  196   3.753   1.216  -0.611
    1   AR   Ar  197   3.944   1.395   1.374
    1   AR   Ar  198   5.739   0.475   2.162
    1   AR   Ar  199   2.364   0.178   2.986
    1   AR   Ar  200   5.012   2.833   0.668
    1   AR   Ar  201   5.613   5.822   3.362
    1   AR   Ar  202   5.312   1.668   4.468
    1   AR   Ar  203   7.036   6.747   3.368
    1   AR   Ar  204   5.979   5.625   5.794
    1   AR   Ar  205   6.803   1.149   1.547
    1   AR   Ar  206   5.970   0.316   5.419
    1   AR   Ar  207   0.596   2.116   5.450
    1   AR   Ar  208   0.588   6.200   4.217
    1   AR   Ar  209   0.196   2.283  -2.154
    1   AR   Ar  210   2.352   6.983   0.980
    1   AR   Ar  211   6.951   3.061   1.145
    1   AR   Ar  212   6.378   3.405  -0.024
    1   AR   Ar  213   2.374   0.812   1.818
    1   AR   Ar  214   4.479   3.786   2.523
    1   AR   Ar  215   6.075   3.319   2.392
    1   AR   Ar  216   0.958   2.602   0.803
    1   AR   Ar  217   4.943   1.856   3.412
    1   AR   Ar  218   4.773   3.541   4.440
    1   AR   Ar  219   4.073   3.164   3.339
    1   AR   Ar  220   4.253   3.217   1.489
    1   AR   Ar  221   6.771   5.825   3.450
    1   AR   Ar  222   5.503   6.861   6.166
    1   AR   Ar  223   6.333   1.643   6.690
    1   AR   Ar  224   4.937   2.619   5.214
    1   AR   Ar  225   6.201   2.802   3.505
    1   AR   Ar  226   1.542   3.329   3.068
    1   AR   Ar  227   6.982   3.974   1.976
    1   AR   Ar  228   5.880   6.855   1.456
    1   AR   Ar  229   5.331   5.607  -1.371
    1   AR   Ar  230   3.456   3.949   4.067
    1   AR   Ar  231   5.120   1.467   2.306
    1   AR   Ar  232   5.255   2.800   1.760
    1   AR   Ar  233   6.634   1.964   3.671
    1   AR   Ar  234   5.371   2.676   4.248
    1   AR   Ar  235   6.905   1.002   4.050
    1   AR   Ar  236   4.961   5.029   5.382
    1   AR   Ar  237   5.544   2.481   6.915
    1   AR   Ar  238   5.713   4.075   6.124
    1   AR   Ar  239   0.436   4.679   9.659
    1   AR   Ar  240   6.515   2.387   7.474
    1   AR   Ar  241   1.887   5.929  -0.895
    1   AR   Ar  242   5.514   5.941   0.561
    1   AR   Ar  243   4.546   5.613   2.745
    1   AR   Ar  244   0.755   5.315   0.673
    1   AR   Ar  245   3.633   0.612   1.902
    1   AR   Ar  246   5.416   6.294  -0.395
    1   AR   Ar  247   6.200   3.820   1.119
    1   AR   Ar  248   5.175   5.225  -0.014
    1   AR   Ar  249   4.451   6.301   1.704
    1   AR   Ar  250   4.632   5.764   4.395
    1   AR   Ar  251   5.231   4.951   3.919
    1   AR   Ar  252   3.590   5.156   2.928
    1   AR   Ar  253   6.471   3.480   6.464
    1   AR   Ar  254   3.257   1.864   9.670
    1   AR   Ar  255   3.777   5.514   9.918
    1   AR   Ar  256   6.192   4.809   3.412
    7.12000  7.12000 12.00000
Argon-slab step 4110
  256
    1   AR   Ar    1   4.490   2.799  -3.122
    1   AR   Ar    2   6.475   0.004   0.182
    1   AR   Ar    3   4.009   2.467  -1.926
    1   AR   Ar    4   1.763   1.092   0.248
    1   AR   Ar    5   6.496   6.018   0.921
    1   AR   Ar    6   0.911   1.857   2.160
    1   AR   Ar    7   5.291   3.955   3.575
    1   AR   Ar    8   4.825   1.484   0.294
    1   AR   Ar    9   0.988   7.048   3.544
    1   AR   Ar   10   0.199   7.103   4.369
    1   AR   Ar   11   1.840   6.951   4.234
    1   AR   Ar   12   0.521   1.114   3.375
    1   AR   Ar   13   7.030   0.336   5.535
    1   AR   Ar   14   4.671   0.857   7.196
    1   AR   Ar   15   3.269   6.791   8.889
    1   AR   Ar   16   1.225   6.997   5.134
    1   AR   Ar   17   5.851   1.941   1.256
    1   AR   Ar   18   6.475   5.209  -0.298
    1   AR   Ar   19   3.731   3.415  -0.302
    1   AR   Ar   20   6.948   4.511  -2.913
    1   AR   Ar   21   2.606   1.993   1.827
    1   AR   Ar   22   7.028   1.523   2.553
    1   AR   Ar   23   0.140   6.950   0.883
    1   AR   Ar   24   5.082   3.076   2.716
    1   AR   Ar   25   0.490   2.295   4.362
    1   AR   Ar   26   6.229   6.557   4.209
    1   AR   Ar   27   1.547   1.067   2.388
    1   AR   Ar   28   1.288   2.718   3.936
    1   AR   Ar   29   6.078   1.459   7.605
    1   AR   Ar   30   1.766   0.833   3.478
    1   AR   Ar   31   3.199   6.966   7.787
    1   AR   Ar   32   0.741   2.559   6.425
    1   AR   Ar   33   0.814   3.931  -0.392
    1   AR   Ar   34   0.703   4.776   2.244
    1   AR   Ar   35   5.877   5.750   1.649
    1   AR   Ar   36   6.034   2.653  -2.488
    1   AR   Ar   37   4.193   2.272   1.949
    1   AR   Ar   38   6.703   3.760   3.508
    1   AR   Ar   39   0.476   3.507   2.966
    1   AR   Ar   40   1.998   4.455   1.743
    1   AR   Ar   41   0.343   2.392   3.124
    1   AR   Ar   42   5.897   5.249   4.903
    1   AR   Ar   43   6.899   2.584   6.024
    1   AR   Ar   44   0.530   4.583   3.358
    1   AR   Ar   45   0.503   3.501   5.989
    1   AR   Ar   46   0.233   4.837   5.163
    1   AR   Ar   47   3.637   4.634   7.251
    1   AR   Ar   48   5.740   3.260   7.472
    1   AR   Ar   49   5.557   0.076  -1.542
    1   AR   Ar   50   3.698   4.582   0.333
    1   AR   Ar   51   5.694   4.194   2.210
    1   AR   Ar   52   5.245   2.749  -1.624
    1   AR   Ar   53   5.312   6.200   2.424
    1   AR   Ar   54   0.831   6.436   2.341
    1   AR   Ar   55   6.579   4.924   2.531
    1   AR   Ar   56   6.653   0.462   2.419
    1   AR   Ar   57   4.249   4.290   3.436
    1   AR   Ar   58   0.566   3.690   4.252
    1   AR   Ar   59   2.284   5.210   5.843
    1   AR   Ar   60   0.631   5.706   3.118
    1   AR   Ar   61   0.136   3.885   6.813
    1   AR   Ar   62   6.611   4.409   4.417
    1   AR   Ar   63   1.005   1.616   6.607
    1   AR   Ar   64   1.124   5.671   5.088
    1   AR   Ar   65   3.801   7.037   1.024
    1   AR   Ar   66   1.037   1.633   1.125
    1   AR   Ar   67   4.441   0.113  -0.968
    1   AR   Ar   68   1.027   0.570  -0.527
    1   AR   Ar   69   2.780   1.176  -0.187
    1   AR   Ar   70   0.496   0.692   2.185
    1   AR   Ar   71   2.596   1.362   2.644
    1   AR   Ar   72   4.637   0.374   1.457
    1   AR   Ar   73   3.355   0.868   3.432
    1   AR   Ar   74   0.827   0.881   4.472
    1   AR   Ar   75   3.291   0.745   4.667
    1   AR   Ar   76   1.228   0.414   1.513
    1   AR   Ar   77   2.449   6.899   5.153
    1   AR   Ar   78   7.083   5.636   5.764
    1   AR   Ar   79   3.759   6.347   6.683
    1   AR   Ar   80   4.021   5.390   5.122
    1   AR   Ar   81   2.211   6.653  -0.112
    1   AR   Ar   82   6.959   4.981   0.673
    1   AR   Ar   83   1.584   3.018  -0.601
    1   AR   Ar   84   0.971   4.355   1.164
    1   AR   Ar   85   1.863   3.336   0.862
    1   AR   Ar   86   2.045   5.410   1.172
    1   AR   Ar   87   2.292   3.096   2.052
    1   AR   Ar   88   2.975   4.981   1.594
    1   AR   Ar   89   6.857   2.550   1.988
    1   AR   Ar   90   3.281   1.867   4.564
    1   AR   Ar   91   1.324   1.908   3.164
    1   AR   Ar   92   1.299   3.797   2.008
    1   AR   Ar   93   0.983   1.049   5.439
    1   AR   Ar   94   0.959   6.551  10.513
    1   AR   Ar   95   4.602   1.159   5.447
    1   AR   Ar   96   2.899   7.030   4.127
    1   AR   Ar   97   3.790   2.337  -0.575
    1   AR   Ar   98   1.749   4.149   3.705
    1   AR   Ar   99   0.039   1.905   0.484
    1   AR   Ar  100   0.652   3.128  -1.576
    1   AR   Ar  101   3.352   6.095   2.293
    1   AR   Ar  102   3.988   1.484   2.741
    1   AR   Ar  103   1.994   4.438   0.523
    1   AR   Ar  104   3.410   4.998  -1.251
    1   AR   Ar  105   2.235   1.997   3.810
    1   AR   Ar  106   3.943   3.025   5.771
    1   AR   Ar  107   1.081   4.291   4.938
    1   AR   Ar  108   2.387   1.377   4.680
    1   AR   Ar  109   1.616   3.265   4.779
    1   AR   Ar  110   2.569   2.745   4.915
    1   AR   Ar  111   5.123   5.510   6.833
    1   AR   Ar  112   0.857   6.371   6.149
    1   AR   Ar  113   3.637   4.018  -1.157
    1   AR   Ar  114   1.830   7.096  -1.165
    1   AR   Ar  115   1.734   5.349   0.097
    1   AR   Ar  116   5.484   0.811  -0.480
    1   AR   Ar  117   1.326   5.008   4.180
    1   AR   Ar  118   1.514   5.199   3.076
    1   AR   Ar  119   2.095   4.185   2.728
    1   AR   Ar  120   1.808   6.501   1.716
    1   AR   Ar  121   5.286   3.937   5.222
    1   AR   Ar  122   2.743   5.831   4.989
    1   AR   Ar  123   2.965   4.192   5.392
    1   AR   Ar  124   1.040   5.599   1.678
    1   AR   Ar  125   6.539   2.954   4.856
    1   AR   Ar  126   6.493   6.482   5.463
    1   AR   Ar  127   4.283   4.071   6.335
    1   AR   Ar  128   3.098   3.360   6.137
    1   AR   Ar  129   1.660   6.001   3.910
    1   AR   Ar  130   4.980   1.888  -3.890
    1   AR   Ar  131   4.084   3.855  -2.344
    1   AR   Ar  132   1.049   1.913  -0.104
    1   AR   Ar  133   4.307   6.878   3.748
    1   AR   Ar  134   4.312   1.310   4.292
    1   AR   Ar  135   5.894   0.971   3.172
    1   AR   Ar  136   6.603   6.539   2.479
    1   AR   Ar  137   1.996   4.188   5.365
    1   AR   Ar  138   5.638   1.017   6.258
    1   AR   Ar  139   5.896   2.625   5.911
    1   AR   Ar  140   4.133   0.031   4.682
    1   AR   Ar  141   3.942   4.973   4.064
    1   AR   Ar  142   4.010   0.263   5.984
    1   AR   Ar  143   6.884   6.255   6.645
    1   AR   Ar  144   6.347   1.299   5.055
    1   AR   Ar  145   4.417   5.048  -1.082
    1   AR   Ar  146   3.305   2.420   2.587
    1   AR   Ar  147   4.414   2.980  -1.161
    1   AR   Ar  148   2.861   6.607  -0.894
    1   AR   Ar  149   2.014   1.667  -1.104
    1   AR   Ar  150   2.185   2.406   2.784
    1   AR   Ar  151   2.989   2.715   3.599
    1   AR   Ar  152   1.598   2.223  -1.926
    1   AR   Ar  153   5.301   0.417   4.331
    1   AR   Ar  154   3.925   2.342   3.960
    1   AR   Ar  155   6.841   3.985   5.410
    1   AR   Ar  156   2.843   4.758   3.641
    1   AR   Ar  157   1.452   4.362   6.436
    1   AR   Ar  158   0.136   1.403   6.094
    1   AR   Ar  159   3.528   1.068   6.381
    1   AR   Ar  160   1.514   2.032   4.821
    1   AR   Ar  161   5.107   4.665   2.899
    1   AR   Ar  162   4.090   6.041  -0.173
    1   AR   Ar  163   5.894   4.645   0.485
    1   AR   Ar  164   2.329   5.541   2.177
    1   AR   Ar  165   3.943   2.227   0.680
    1   AR   Ar  166   2.512   3.707   4.339
    1   AR   Ar  167   5.721   6.836   3.240
    1   AR   Ar  168   5.052   4.143  -1.492
    1   AR   Ar  169   3.281   3.822   2.967
    1   AR   Ar  170   2.021   3.150   5.934
    1   AR   Ar  171   5.840   3.610   4.389
    1   AR   Ar  172   4.135   3.938   5.246
    1   AR   Ar  173   1.893   1.825   6.140
    1   AR   Ar  174   2.187   6.229   5.990
    1   AR   Ar  175   3.897   1.880   5.471
    1   AR   Ar  176   3.606   2.979   4.772
    1   AR   Ar  177   0.877   5.203  -0.421
    1   AR   Ar  178   3.008   6.084   0.072
    1   AR   Ar  179   3.104   0.139   0.099
    1   AR   Ar  180   5.134   0.914  -4.502
    1   AR   Ar  181   7.081   5.340   1.602
    1   AR   Ar  182   1.984   6.228   2.805
    1   AR   Ar  183   4.941   5.340   1.830
    1   AR   Ar  184   4.589   6.608   0.490
    1   AR   Ar  185   3.128   4.877   4.725
    1   AR   Ar  186   2.881   5.920   3.261
    1   AR   Ar  187   3.308   6.821   3.164
    1   AR   Ar  188   2.854   6.973   2.024
    1   AR   Ar  189   5.002   3.184   6.245
    1   AR   Ar  190   3.493   5.976   4.070
    1   AR   Ar  191   2.213   6.513   7.369
    1   AR   Ar  192   4.433   6.009   5.856
    1   AR   Ar  193   3.177   6.010   1.237
    1   AR   Ar  194   5.352   3.680  -0.389
    1   AR   Ar  195   5.474   0.739   1.005
    1   AR   Ar  196   3.745   1.180  -0.654
    1   AR   Ar  197   3.957   1.399   1.418
    1   AR   Ar  198   5.720   0.463   2.190
    1   AR   Ar  199   2.385   0.200   2.974
    1   AR   Ar  200   4.982   2.825   0.703
    1   AR   Ar  201   5.577   5.791   3.357
    1   AR   Ar  202   5.315   1.677   4.481
    1   AR   Ar  203   7.026   6.746   3.375
    1   AR   Ar  204   5.961   5.642   5.795
    1   AR   Ar  205   6.781   1.132   1.567
    1   AR   Ar  206   5.983   0.319   5.438
    1   AR   Ar  207   0.581   2.129   5.465
    1   AR   Ar  208   0.583   6.184   4.205
    1   AR   Ar  209   0.204   2.285  -2.167
    1   AR   Ar  210   2.357   6.956   1.021
    1   AR   Ar  211   6.976   3.067   1.136
    1   AR   Ar  212   6.380   3.401  -0.012
    1   AR   Ar  213   2.382   0.839   1.789
    1   AR   Ar  214   4.461   3.787   2.514
    1   AR   Ar  215   6.080   3.318   2.395
    1   AR   Ar  216   0.944   2.603   0.783
    1   AR   Ar  217   4.934   1.835   3.387
    1   AR   Ar  218   4.790   3.568   4.474
    1   AR   Ar  219   4.060   3.150   3.364
    1   AR   Ar  220   4.282   3.234   1.486
    1   AR   Ar  221   6.787   5.818   3.470
    1   AR   Ar  222   5.518   6.861   6.167
    1   AR   Ar  223   6.322   1.674   6.681
    1   AR   Ar  224   4.931   2.620   5.263
    1   AR   Ar  225   6.170   2.806   3.483
    1   AR   Ar  226   1.523   3.305   3.062
    1   AR   Ar  227   6.986   3.975   1.966
    1   AR   Ar  228   5.909   6.821   1.459
    1   AR   Ar  229   5.329   5.590  -1.343
    1   AR   Ar  230   3.439   3.954   4.076
    1   AR   Ar  231   5.103   1.484   2.312
    1   AR   Ar  232   5.245   2.829   1.779
    1   AR   Ar  233   6.627   1.986   3.673
    1   AR   Ar  234   5.362   2.688   4.249
    1   AR   Ar  235   6.881   0.980   4.061
    1   AR   Ar  236   4.934   5.028   5.394
    1   AR   Ar  237   5.518   2.470   6.907
    1   AR   Ar  238   5.709   4.081   6.144
    1   AR   Ar  239   0.437   4.693   9.669
    1   AR   Ar  240   6.513   2.372   7.460
    1   AR   Ar  241   1.895   5.900  -0.877
    1   AR   Ar  242   5.526   5.935   0.575
    1   AR   Ar  243   4.525   5.586   2.768
    1   AR   Ar  244   0.743   5.332   0.700
    1   AR   Ar  245   3.625   0.597   1.873
    1   AR   Ar  246   5.386   6.281  -0.361
    1   AR   Ar  247   6.216   3.804   1.126
    1   AR   Ar  248   5.158   5.206   0.009
    1   AR   Ar  249   4.473   6.309   1.741
    1   AR   Ar  250   4.632   5.750   4.396
    1   AR   Ar  251   5.235   4.967   3.897
    1   AR   Ar  252   3.594   5.142   2.904
    1   AR   Ar  253   6.442   3.497   6.463
    1   AR   Ar  254   3.247   1.875   9.648
    1   AR   Ar  255   3.760   5.515   9.922
    1   AR   Ar  256   6.186   4.801   3.399
    7.12000  7.12000 12.00000
Argon-slab step 4115
  256
    1   AR   Ar    1   4.483   2.822  -3.148
    1   AR   Ar    2   6.482   7.088   0.188
    1   AR   Ar    3   3.994   2.472  -1.970
    1   AR   Ar    4   1.765   1.126   0.323
    1   AR   Ar    5   6.507   6.019   0.903
    1   AR   Ar    6   0.931   1.857   2.199
    1   AR   Ar    7   5.280   3.971   3.581
    1   AR   Ar    8   4.837   1.499   0.299
    1   AR   Ar    9   0.960   7.040   3.573
    1   AR   Ar   10   0.190   7.095   4.377
    1   AR   Ar   11   1.807   6.951   4.229
    1   AR   Ar   12   0.475   1.127   3.376
    1   AR   Ar   13   7.036   0.350   5.541
    1   AR   Ar   14   4.660   0.838   7.155
    1   AR   Ar   15   3.288   6.808   8.889
    1   AR   Ar   16   1.207   7.025   5.157
    1   AR   Ar   17   5.836   1.920   1.288
    1   AR   Ar   18   6.472   5.242  -0.242
    1   AR   Ar   19   3.759   3.411  -0.326
    1   AR   Ar   20   6.947   4.501  -2.977
    1   AR   Ar   21   2.585   1.978   1.857
    1   AR   Ar   22   7.002   1.533   2.532
    1   AR   Ar   23   0.121   6.949   0.917
    1   AR   Ar   24   5.085   3.072   2.707
    1   AR   Ar   25   0.513   2.301   4.341
    1   AR   Ar   26   6.233   6.562   4.213
    1   AR   Ar   27   1.558   1.073   2.370
    1   AR   Ar   28   1.333   2.691   3.933
    1   AR   Ar   29   6.044   1.425   7.618
    1   AR   Ar   30   1.738   0.846   3.476
    1   AR   Ar   31   3.175   6.963   7.790
    1   AR   Ar   32   0.744   2.594   6.396
    1   AR   Ar   33   0.816   3.991  -0.383
    1   AR   Ar   34   0.725   4.769   2.249
    1   AR   Ar   35   5.884   5.745   1.669
    1   AR   Ar   36   6.025   2.657  -2.493
    1   AR   Ar   37   4.193   2.241   1.923
    1   AR   Ar   38   6.713   3.796   3.513
    1   AR   Ar   39   0.474   3.495   2.964
    1   AR   Ar   40   1.986   4.464   1.738
    1   AR   Ar   41   0.352   2.359   3.137
    1   AR   Ar   42   5.915   5.223   4.905
    1   AR   Ar   43   6.910   2.593   6.016
    1   AR   Ar   44   0.549   4.547   3.336
    1   AR   Ar   45   0.485   3.498   5.946
    1   AR   Ar   46   0.192   4.827   5.162
    1   AR   Ar   47   3.613   4.649   7.215
    1   AR   Ar   48   5.749   3.269   7.485
    1   AR   Ar   49   5.571   0.075  -1.550
    1   AR   Ar   50   3.689   4.605   0.339
    1   AR   Ar   51   5.678   4.200   2.248
    1   AR   Ar   52   5.266   2.728  -1.625
    1   AR   Ar   53   5.346   6.202   2.390
    1   AR   Ar   54   0.795   6.419   2.363
    1   AR   Ar   55   6.604   4.916   2.494
    1   AR   Ar   56   6.647   0.456   2.458
    1   AR   Ar   57   4.254   4.319   3.423
    1   AR   Ar   58   0.545   3.682   4.227
    1   AR   Ar   59   2.290   5.183   5.843
    1   AR   Ar   60   0.621   5.705   3.084
    1   AR   Ar   61   0.130   3.866   6.819
    1   AR   Ar   62   6.607   4.416   4.444
    1   AR   Ar   63   0.995   1.617   6.606
    1   AR   Ar   64   1.165   5.670   5.117
    1   AR   Ar   65   3.802   7.009   1.047
    1   AR   Ar   66   1.054   1.624   1.102
    1   AR   Ar   67   4.441   0.115  -0.958
    1   AR   Ar   68   1.005   0.537  -0.547
    1   AR   Ar   69   2.756   1.144  -0.164
    1   AR   Ar   70   0.503   0.704   2.204
    1   AR   Ar   71   2.581   1.331   2.613
    1   AR   Ar   72   4.617   0.377   1.417
    1   AR   Ar   73   3.353   0.882   3.395
    1   AR   Ar   74   0.821   0.870   4.475
    1   AR   Ar   75   3.308   0.750   4.674
    1   AR   Ar   76   1.248   0.430   1.508
    1   AR   Ar   77   2.486   6.921   5.137
    1   AR   Ar   78   7.076   5.637   5.789
    1   AR   Ar   79   3.755   6.352   6.669
    1   AR   Ar   80   4.029   5.403   5.126
    1   AR   Ar   81   2.194   6.635  -0.092
    1   AR   Ar   82   6.963   4.995   0.670
    1   AR   Ar   83   1.572   3.014  -0.589
    1   AR   Ar   84   0.956   4.359   1.193
    1   AR   Ar   85   1.856   3.324   0.883
    1   AR   Ar   86   2.031   5.419   1.190
    1   AR   Ar   87   2.325   3.147   2.086
    1   AR   Ar   88   3.001   4.968   1.600
    1   AR   Ar   89   6.853   2.526   2.011
    1   AR   Ar   90   3.305   1.868   4.583
    1   AR   Ar   91   1.332   1.918   3.188
    1   AR   Ar   92   1.270   3.771   2.044
    1   AR   Ar   93   0.981   1.079   5.460
    1   AR   Ar   94   0.975   6.568  10.487
    1   AR   Ar   95   4.572   1.142   5.472
    1   AR   Ar   96   2.884   7.015   4.115
    1   AR   Ar   97   3.811   2.316  -0.590
    1   AR   Ar   98   1.750   4.134   3.743
    1   AR   Ar   99   0.041   1.899   0.470
    1   AR   Ar  100   0.651   3.123  -1.601
    1   AR   Ar  101   3.308   6.077   2.284
    1   AR   Ar  102   4.024   1.482   2.746
    1   AR   Ar  103   2.017   4.448   0.503
    1   AR   Ar  104   3.384   5.014  -1.256
    1   AR   Ar  105   2.209   1.975   3.840
    1   AR   Ar  106   3.966   3.024   5.766
    1   AR   Ar  107   1.138   4.311   4.941
    1   AR   Ar  108   2.422   1.395   4.667
    1   AR   Ar  109   1.588   3.278   4.798
    1   AR   Ar  110   2.589   2.760   4.939
    1   AR   Ar  111   5.115   5.564   6.859
    1   AR   Ar  112   0.865   6.416   6.143
    1   AR   Ar  113   3.633   4.001  -1.184
    1   AR   Ar  114   1.799   7.097  -1.160
    1   AR   Ar  115   1.746   5.345   0.114
    1   AR   Ar  116   5.423   0.831  -0.467
    1   AR   Ar  117   1.315   4.999   4.191
    1   AR   Ar  118   1.522   5.176   3.070
    1   AR   Ar  119   2.075   4.185   2.715
    1   AR   Ar  120   1.821   6.520   1.707
    1   AR   Ar  121   5.300   3.922   5.212
    1   AR   Ar  122   2.730   5.832   4.991
    1   AR   Ar  123   2.962   4.163   5.404
    1   AR   Ar  124   1.053   5.592   1.662
    1   AR   Ar  125   6.514   2.965   4.870
    1   AR   Ar  126   6.466   6.501   5.488
    1   AR   Ar  127   4.316   4.071   6.316
    1   AR   Ar  128   3.076   3.337   6.128
    1   AR   Ar  129   1.632   5.993   3.884
    1   AR   Ar  130   4.968   1.869  -3.869
    1   AR   Ar  131   4.114   3.848  -2.341
    1   AR   Ar  132   1.034   1.903  -0.128
    1   AR   Ar  133   4.316   6.891   3.754
    1   AR   Ar  134   4.309   1.302   4.322
    1   AR   Ar  135   5.896   0.996   3.209
    1   AR   Ar  136   6.612   6.537   2.468
    1   AR   Ar  137   2.001   4.192   5.415
    1   AR   Ar  138   5.619   1.045   6.264
    1   AR   Ar  139   5.888   2.602   5.914
    1   AR   Ar  140   4.119   0.036   4.683
    1   AR   Ar  141   3.955   4.969   4.088
    1   AR   Ar  142   4.023   0.273   5.989
    1   AR   Ar  143   6.852   6.277   6.640
    1   AR   Ar  144   6.321   1.277   5.054
    1   AR   Ar  145   4.419   5.046  -1.091
    1   AR   Ar  146   3.326   2.432   2.599
    1   AR   Ar  147   4.399   3.019  -1.165
    1   AR   Ar  148   2.898   6.592  -0.908
    1   AR   Ar  149   2.016   1.671  -1.101
    1   AR   Ar  150   2.193   2.427   2.777
    1   AR   Ar  151   2.995   2.691   3.649
    1   AR   Ar  152   1.583   2.209  -1.947
    1   AR   Ar  153   5.298   0.423   4.322
    1   AR   Ar  154   3.926   2.368   3.974
    1   AR   Ar  155   6.819   3.955   5.409
    1   AR   Ar  156   2.820   4.729   3.634
    1   AR   Ar  157   1.458   4.378   6.450
    1   AR   Ar  158   0.139   1.400   6.102
    1   AR   Ar  159   3.527   1.082   6.379
    1   AR   Ar  160   1.516   2.032   4.812
    1   AR   Ar  161   5.095   4.664   2.909
    1   AR   Ar  162   4.074   6.052  -0.158
    1   AR   Ar  163   5.908   4.659   0.498
    1   AR   Ar  164   2.321   5.505   2.188
    1   AR   Ar  165   3.932   2.228   0.696
    1   AR   Ar  166   2.497   3.677   4.320
    1   AR   Ar  167   5.741   6.835   3.211
    1   AR   Ar  168   5.064   4.106  -1.495
    1   AR   Ar  169   3.236   3.814   2.971
    1   AR   Ar  170   2.022   3.131   5.933
    1   AR   Ar  171   5.838   3.651   4.369
    1   AR   Ar  172   4.103   3.921   5.263
    1   AR   Ar  173   1.894   1.813   6.105
    1   AR   Ar  174   2.199   6.233   5.983
    1   AR   Ar  175   3.870   1.877   5.458
    1   AR   Ar  176   3.606   2.978   4.778
    1   AR   Ar  177   0.856   5.204  -0.407
    1   AR   Ar  178   3.012   6.081   0.084
    1   AR   Ar  179   3.101   0.153   0.062
    1   AR   Ar  180   5.151   0.936  -4.537
    1   AR   Ar  181   7.066   5.358   1.610
    1   AR   Ar  182   1.983   6.196   2.816
    1   AR   Ar  183   4.951   5.345   1.835
    1   AR   Ar  184   4.600   6.583   0.487
    1   AR   Ar  185   3.135   4.889   4.714
    1   AR   Ar  186   2.878   5.946   3.220
    1   AR   Ar  187   3.325   6.789   3.190
    1   AR   Ar  188   2.844   6.930   2.014
    1   AR   Ar  189   4.990   3.195   6.193
    1   AR   Ar  190   3.500   6.000   4.081
    1   AR   Ar  191   2.208   6.513   7.361
    1   AR   Ar  192   4.415   5.966   5.857
    1   AR   Ar  193   3.165   5.974   1.243
    1   AR   Ar  194   5.317   3.690  -0.395
    1   AR   Ar  195   5.476   0.757   0.955
    1   AR   Ar  196   3.739   1.144  -0.698
    1   AR   Ar  197   3.974   1.410   1.455
    1   AR   Ar  198   5.681   0.453   2.215
    1   AR   Ar  199   2.408   0.220   2.958
    1   AR   Ar  200   4.952   2.816   0.736
    1   AR   Ar  201   5.544   5.758   3.352
    1   AR   Ar  202   5.318   1.681   4.497
    1   AR   Ar  203   7.023   6.763   3.386
    1   AR   Ar  204   5.940   5.661   5.811
    1   AR   Ar  205   6.758   1.116   1.585
    1   AR   Ar  206   5.994   0.325   5.453
    1   AR   Ar  207   0.568   2.143   5.476
    1   AR   Ar  208   0.559   6.189   4.221
    1   AR   Ar  209   0.213   2.287  -2.181
    1   AR   Ar  210   2.368   6.934   1.053
    1   AR   Ar  211   7.005   3.075   1.119
    1   AR   Ar  212   6.383   3.397   0.001
    1   AR   Ar  213   2.375   0.830   1.767
    1   AR   Ar  214   4.434   3.800   2.500
    1   AR   Ar  215   6.093   3.304   2.400
    1   AR   Ar  216   0.930   2.609   0.762
    1   AR   Ar  217   4.925   1.815   3.362
    1   AR   Ar  218   4.793   3.589   4.494
    1   AR   Ar  219   4.048   3.142   3.386
    1   AR   Ar  220   4.310   3.252   1.482
    1   AR   Ar  221   6.789   5.788   3.495
    1   AR   Ar  222   5.531   6.859   6.170
    1   AR   Ar  223   6.316   1.711   6.657
    1   AR   Ar  224   4.923   2.622   5.311
    1   AR   Ar  225   6.129   2.828   3.456
    1   AR   Ar  226   1.520   3.329   3.069
    1   AR   Ar  227   6.990   3.975   1.956
    1   AR   Ar  228   5.938   6.786   1.460
    1   AR   Ar  229   5.329   5.574  -1.313
    1   AR   Ar  230   3.432   3.960   4.084
    1   AR   Ar  231   5.084   1.500   2.320
    1   AR   Ar  232   5.238   2.853   1.786
    1   AR   Ar  233   6.625   1.987   3.677
    1   AR   Ar  234   5.352   2.700   4.247
    1   AR   Ar  235   6.854   0.956   4.076
    1   AR   Ar  236   4.912   5.023   5.407
    1   AR   Ar  237   5.492   2.449   6.895
    1   AR   Ar  238   5.699   4.093   6.165
    1   AR   Ar  239   0.438   4.707   9.679
    1   AR   Ar  240   6.534   2.415   7.461
    1   AR   Ar  241   1.904   5.873  -0.858
    1   AR   Ar  242   5.528   5.943   0.590
    1   AR   Ar  243   4.508   5.577   2.775
    1   AR   Ar  244   0.745   5.355   0.725
    1   AR   Ar  245   3.613   0.573   1.852
    1   AR   Ar  246   5.355   6.270  -0.335
    1   AR   Ar  247   6.232   3.787   1.140
    1   AR   Ar  248   5.141   5.196   0.017
    1   AR   Ar  249   4.493   6.319   1.776
    1   AR   Ar  250   4.617   5.737   4.394
    1   AR   Ar  251   5.236   4.981   3.881
    1   AR   Ar  252   3.595   5.126   2.880
    1   AR   Ar  253   6.407   3.499   6.460
    1   AR   Ar  254   3.245   1.884   9.636
    1   AR   Ar  255   3.742   5.516   9.925
    1   AR   Ar  256   6.173   4.789   3.402
    7.12000  7.12000 12.00000
Argon-slab step 4120
  256
    1   AR   Ar    1   4.477   2.844  -3.174
    1   AR   Ar    2   6.486   7.051   0.194
    1   AR   Ar    3   3.978   2.476  -2.017
    1   AR   Ar    4   1.766   1.159   0.398
    1   AR   Ar    5   6.527   6.021   0.881
    1   AR   Ar    6   0.945   1.862   2.235
    1   AR   Ar    7   5.269   3.978   3.599
    1   AR   Ar    8   4.849   1.515   0.306
    1   AR   Ar    9   0.930   7.033   3.600
    1   AR   Ar   10   0.176   7.096   4.390
    1   AR   Ar   11   1.775   6.956   4.226
    1   AR   Ar   12   0.434   1.141   3.373
    1   AR   Ar   13   7.032   0.387   5.542
    1   AR   Ar   14   4.649   0.819   7.113
    1   AR   Ar   15   3.296   6.824   8.891
    1   AR   Ar   16   1.191   7.033   5.159
    1   AR   Ar   17   5.828   1.898   1.312
    1   AR   Ar   18   6.467   5.278  -0.187
    1   AR   Ar   19   3.788   3.406  -0.346
    1   AR   Ar   20   6.946   4.491  -3.042
    1   AR   Ar   21   2.565   1.969   1.880
    1   AR   Ar   22   6.975   1.545   2.515
    1   AR   Ar   23   0.112   6.942   0.925
    1   AR   Ar   24   5.088   3.054   2.710
    1   AR   Ar   25   0.527   2.303   4.324
    1   AR   Ar   26   6.241   6.575   4.229
    1   AR   Ar   27   1.568   1.075   2.356
    1   AR   Ar   28   1.384   2.670   3.926
    1   AR   Ar   29   6.009   1.390   7.634
    1   AR   Ar   30   1.707   0.862   3.476
    1   AR   Ar   31   3.150   6.959   7.793
    1   AR   Ar   32   0.753   2.632   6.373
    1   AR   Ar   33   0.819   4.052  -0.374
    1   AR   Ar   34   0.709   4.764   2.270
    1   AR   Ar   35   5.897   5.734   1.689
    1   AR   Ar   36   6.016   2.661  -2.498
    1   AR   Ar   37   4.197   2.223   1.904
    1   AR   Ar   38   6.721   3.832   3.519
    1   AR   Ar   39   0.471   3.484   2.960
    1   AR   Ar   40   1.976   4.477   1.725
    1   AR   Ar   41   0.363   2.329   3.150
    1   AR   Ar   42   5.934   5.192   4.898
    1   AR   Ar   43   6.919   2.603   6.007
    1   AR   Ar   44   0.568   4.511   3.315
    1   AR   Ar   45   0.470   3.495   5.895
    1   AR   Ar   46   0.156   4.819   5.158
    1   AR   Ar   47   3.589   4.663   7.178
    1   AR   Ar   48   5.761   3.281   7.499
    1   AR   Ar   49   5.583   0.075  -1.557
    1   AR   Ar   50   3.673   4.614   0.334
    1   AR   Ar   51   5.665   4.210   2.278
    1   AR   Ar   52   5.292   2.705  -1.628
    1   AR   Ar   53   5.379   6.209   2.361
    1   AR   Ar   54   0.760   6.407   2.382
    1   AR   Ar   55   6.632   4.909   2.450
    1   AR   Ar   56   6.647   0.453   2.503
    1   AR   Ar   57   4.259   4.339   3.403
    1   AR   Ar   58   0.524   3.675   4.199
    1   AR   Ar   59   2.296   5.152   5.842
    1   AR   Ar   60   0.610   5.702   3.053
    1   AR   Ar   61   0.132   3.854   6.834
    1   AR   Ar   62   6.602   4.423   4.467
    1   AR   Ar   63   0.987   1.613   6.608
    1   AR   Ar   64   1.206   5.670   5.147
    1   AR   Ar   65   3.795   6.976   1.069
    1   AR   Ar   66   1.066   1.607   1.090
    1   AR   Ar   67   4.441   0.116  -0.947
    1   AR   Ar   68   0.985   0.505  -0.566
    1   AR   Ar   69   2.732   1.115  -0.142
    1   AR   Ar   70   0.513   0.718   2.225
    1   AR   Ar   71   2.569   1.297   2.599
    1   AR   Ar   72   4.601   0.381   1.382
    1   AR   Ar   73   3.348   0.895   3.359
    1   AR   Ar   74   0.815   0.859   4.470
    1   AR   Ar   75   3.326   0.756   4.680
    1   AR   Ar   76   1.272   0.444   1.501
    1   AR   Ar   77   2.522   6.944   5.121
    1   AR   Ar   78   7.070   5.640   5.814
    1   AR   Ar   79   3.751   6.357   6.655
    1   AR   Ar   80   4.019   5.411   5.127
    1   AR   Ar   81   2.169   6.623  -0.070
    1   AR   Ar   82   6.954   5.000   0.663
    1   AR   Ar   83   1.558   3.009  -0.577
    1   AR   Ar   84   0.942   4.364   1.222
    1   AR   Ar   85   1.848   3.313   0.905
    1   AR   Ar   86   1.999   5.417   1.192
    1   AR   Ar   87   2.357   3.204   2.114
    1   AR   Ar   88   3.029   4.951   1.604
    1   AR   Ar   89   6.848   2.500   2.037
    1   AR   Ar   90   3.328   1.871   4.601
    1   AR   Ar   91   1.341   1.924   3.212
    1   AR   Ar   92   1.238   3.741   2.083
    1   AR   Ar   93   0.980   1.110   5.486
    1   AR   Ar   94   0.990   6.586  10.462
    1   AR   Ar   95   4.548   1.119   5.496
    1   AR   Ar   96   2.870   7.000   4.104
    1   AR   Ar   97   3.831   2.294  -0.604
    1   AR   Ar   98   1.747   4.121   3.782
    1   AR   Ar   99   0.045   1.893   0.458
    1   AR   Ar  100   0.650   3.119  -1.626
    1   AR   Ar  101   3.271   6.053   2.277
    1   AR   Ar  102   4.059   1.479   2.751
    1   AR   Ar  103   2.040   4.452   0.488
    1   AR   Ar  104   3.354   5.035  -1.261
    1   AR   Ar  105   2.182   1.955   3.867
    1   AR   Ar  106   3.996   3.017   5.763
    1   AR   Ar  107   1.185   4.328   4.942
    1   AR   Ar  108   2.450   1.407   4.659
    1   AR   Ar  109   1.559   3.292   4.818
    1   AR   Ar  110   2.605   2.774   4.963
    1   AR   Ar  111   5.107   5.617   6.882
    1   AR   Ar  112   0.872   6.460   6.135
    1   AR   Ar  113   3.631   3.982  -1.214
    1   AR   Ar  114   1.776   7.094  -1.151
    1   AR   Ar  115   1.759   5.348   0.131
    1   AR   Ar  116   5.361   0.851  -0.453
    1   AR   Ar  117   1.282   5.003   4.181
    1   AR   Ar  118   1.544   5.139   3.070
    1   AR   Ar  119   2.073   4.182   2.709
    1   AR   Ar  120   1.820   6.528   1.715
    1   AR   Ar  121   5.325   3.917   5.222
    1   AR   Ar  122   2.718   5.835   4.992
    1   AR   Ar  123   2.977   4.127   5.419
    1   AR   Ar  124   1.071   5.587   1.653
    1   AR   Ar  125   6.491   2.974   4.886
    1   AR   Ar  126   6.441   6.521   5.511
    1   AR   Ar  127   4.350   4.071   6.298
    1   AR   Ar  128   3.048   3.317   6.120
    1   AR   Ar  129   1.602   5.983   3.856
    1   AR   Ar  130   4.956   1.851  -3.848
    1   AR   Ar  131   4.145   3.841  -2.335
    1   AR   Ar  132   1.015   1.889  -0.154
    1   AR   Ar  133   4.328   6.899   3.748
    1   AR   Ar  134   4.303   1.294   4.351
    1   AR   Ar  135   5.900   1.022   3.246
    1   AR   Ar  136   6.617   6.529   2.453
    1   AR   Ar  137   1.997   4.193   5.470
    1   AR   Ar  138   5.596   1.070   6.269
    1   AR   Ar  139   5.868   2.575   5.910
    1   AR   Ar  140   4.105   0.045   4.695
    1   AR   Ar  141   3.967   4.972   4.116
    1   AR   Ar  142   4.040   0.277   5.991
    1   AR   Ar  143   6.819   6.300   6.634
    1   AR   Ar  144   6.325   1.292   5.038
    1   AR   Ar  145   4.428   5.050  -1.098
    1   AR   Ar  146   3.346   2.444   2.613
    1   AR   Ar  147   4.381   3.064  -1.164
    1   AR   Ar  148   2.935   6.577  -0.922
    1   AR   Ar  149   2.019   1.674  -1.095
    1   AR   Ar  150   2.214   2.435   2.773
    1   AR   Ar  151   2.999   2.671   3.699
    1   AR   Ar  152   1.567   2.196  -1.967
    1   AR   Ar  153   5.294   0.430   4.313
    1   AR   Ar  154   3.937   2.383   3.989
    1   AR   Ar  155   6.790   3.920   5.408
    1   AR   Ar  156   2.796   4.700   3.626
    1   AR   Ar  157   1.464   4.394   6.462
    1   AR   Ar  158   0.134   1.395   6.107
    1   AR   Ar  159   3.524   1.101   6.378
    1   AR   Ar  160   1.517   2.033   4.804
    1   AR   Ar  161   5.078   4.677   2.911
    1   AR   Ar  162   4.054   6.057  -0.151
    1   AR   Ar  163   5.923   4.670   0.513
    1   AR   Ar  164   2.319   5.472   2.192
    1   AR   Ar  165   3.922   2.230   0.711
    1   AR   Ar  166   2.478   3.644   4.305
    1   AR   Ar  167   5.764   6.837   3.182
    1   AR   Ar  168   5.074   4.068  -1.496
    1   AR   Ar  169   3.191   3.806   2.975
    1   AR   Ar  170   2.002   3.134   5.922
    1   AR   Ar  171   5.845   3.690   4.350
    1   AR   Ar  172   4.071   3.908   5.275
    1   AR   Ar  173   1.896   1.804   6.067
    1   AR   Ar  174   2.179   6.215   5.973
    1   AR   Ar  175   3.841   1.879   5.448
    1   AR   Ar  176   3.608   2.981   4.783
    1   AR   Ar  177   0.832   5.204  -0.395
    1   AR   Ar  178   3.022   6.075   0.098
    1   AR   Ar  179   3.100   0.164   0.025
    1   AR   Ar  180   5.167   0.959  -4.571
    1   AR   Ar  181   7.053   5.379   1.624
    1   AR   Ar  182   1.948   6.209   2.823
    1   AR   Ar  183   4.959   5.344   1.839
    1   AR   Ar  184   4.597   6.559   0.504
    1   AR   Ar  185   3.139   4.903   4.699
    1   AR   Ar  186   2.867   5.951   3.185
    1   AR   Ar  187   3.353   6.773   3.213
    1   AR   Ar  188   2.830   6.893   2.005
    1   AR   Ar  189   4.979   3.210   6.143
    1   AR   Ar  190   3.509   6.026   4.096
    1   AR   Ar  191   2.204   6.512   7.353
    1   AR   Ar  192   4.402   5.928   5.864
    1   AR   Ar  193   3.153   5.941   1.245
    1   AR   Ar  194   5.282   3.700  -0.403
    1   AR   Ar  195   5.482   0.777   0.904
    1   AR   Ar  196   3.735   1.108  -0.741
    1   AR   Ar  197   3.993   1.416   1.482
    1   AR   Ar  198   5.632   0.442   2.237
    1   AR   Ar  199   2.433   0.239   2.941
    1   AR   Ar  200   4.923   2.805   0.768
    1   AR   Ar  201   5.514   5.733   3.342
    1   AR   Ar  202   5.323   1.682   4.513
    1   AR   Ar  203   7.024   6.790   3.399
    1   AR   Ar  204   5.916   5.682   5.836
    1   AR   Ar  205   6.744   1.118   1.600
    1   AR   Ar  206   6.008   0.333   5.466
    1   AR   Ar  207   0.559   2.155   5.480
    1   AR   Ar  208   0.539   6.184   4.233
    1   AR   Ar  209   0.215   2.287  -2.196
    1   AR   Ar  210   2.394   6.922   1.067
    1   AR   Ar  211   7.037   3.083   1.100
    1   AR   Ar  212   6.387   3.394   0.009
    1   AR   Ar  213   2.364   0.808   1.738
    1   AR   Ar  214   4.400   3.820   2.483
    1   AR   Ar  215   6.114   3.282   2.406
    1   AR   Ar  216   0.914   2.619   0.740
    1   AR   Ar  217   4.915   1.795   3.341
    1   AR   Ar  218   4.777   3.601   4.495
    1   AR   Ar  219   4.038   3.146   3.399
    1   AR   Ar  220   4.335   3.272   1.479
    1   AR   Ar  221   6.784   5.751   3.522
    1   AR   Ar  222   5.543   6.853   6.175
    1   AR   Ar  223   6.315   1.753   6.628
    1   AR   Ar  224   4.915   2.622   5.355
    1   AR   Ar  225   6.082   2.859   3.427
    1   AR   Ar  226   1.528   3.383   3.086
    1   AR   Ar  227   6.995   3.976   1.946
    1   AR   Ar  228   5.951   6.761   1.449
    1   AR   Ar  229   5.329   5.559  -1.281
    1   AR   Ar  230   3.435   3.965   4.092
    1   AR   Ar  231   5.066   1.517   2.327
    1   AR   Ar  232   5.237   2.872   1.778
    1   AR   Ar  233   6.628   1.984   3.677
    1   AR   Ar  234   5.342   2.713   4.243
    1   AR   Ar  235   6.822   0.932   4.094
    1   AR   Ar  236   4.898   5.015   5.423
    1   AR   Ar  237   5.465   2.425   6.882
    1   AR   Ar  238   5.678   4.116   6.183
    1   AR   Ar  239   0.439   4.721   9.689
    1   AR   Ar  240   6.555   2.461   7.460
    1   AR   Ar  241   1.913   5.846  -0.838
    1   AR   Ar  242   5.524   5.957   0.610
    1   AR   Ar  243   4.509   5.575   2.785
    1   AR   Ar  244   0.759   5.381   0.744
    1   AR   Ar  245   3.595   0.542   1.837
    1   AR   Ar  246   5.350   6.277  -0.344
    1   AR   Ar  247   6.244   3.773   1.155
    1   AR   Ar  248   5.124   5.192   0.014
    1   AR   Ar  249   4.509   6.332   1.810
    1   AR   Ar  250   4.609   5.729   4.385
    1   AR   Ar  251   5.231   4.989   3.879
    1   AR   Ar  252   3.590   5.106   2.859
    1   AR   Ar  253   6.373   3.485   6.456
    1   AR   Ar  254   3.275   1.888   9.665
    1   AR   Ar  255   3.724   5.517   9.929
    1   AR   Ar  256   6.157   4.775   3.412
    7.12000  7.12000 12.00000
Argon-slab step 4125
  256
    1   AR   Ar    1   4.470   2.865  -3.198
    1   AR   Ar    2   6.469   7.019   0.212
    1   AR   Ar    3   3.964   2.480  -2.064
    1   AR   Ar    4   1.766   1.191   0.473
    1   AR   Ar    5   6.554   6.024   0.856
    1   AR   Ar    6   0.951   1.872   2.268
    1   AR   Ar    7   5.255   3.976   3.612
    1   AR   Ar    8   4.860   1.531   0.315
    1   AR   Ar    9   0.902   7.026   3.625
    1   AR   Ar   10   0.158   7.107   4.408
    1   AR   Ar   11   1.746   6.965   4.224
    1   AR   Ar   12   0.396   1.156   3.368
    1   AR   Ar   13   7.035   0.426   5.542
    1   AR   Ar   14   4.638   0.800   7.069
    1   AR   Ar   15   3.286   6.840   8.894
    1   AR   Ar   16   1.177   7.010   5.133
    1   AR   Ar   17   5.833   1.878   1.325
    1   AR   Ar   18   6.458   5.318  -0.138
    1   AR   Ar   19   3.817   3.400  -0.362
    1   AR   Ar   20   6.945   4.480  -3.106
    1   AR   Ar   21   2.545   1.968   1.893
    1   AR   Ar   22   6.949   1.559   2.505
    1   AR   Ar   23   0.120   6.926   0.893
    1   AR   Ar   24   5.089   3.036   2.734
    1   AR   Ar   25   0.535   2.301   4.308
    1   AR   Ar   26   6.250   6.588   4.243
    1   AR   Ar   27   1.578   1.072   2.346
    1   AR   Ar   28   1.441   2.657   3.917
    1   AR   Ar   29   5.973   1.355   7.649
    1   AR   Ar   30   1.675   0.879   3.478
    1   AR   Ar   31   3.126   6.956   7.795
    1   AR   Ar   32   0.769   2.670   6.358
    1   AR   Ar   33   0.823   4.112  -0.364
    1   AR   Ar   34   0.692   4.758   2.290
    1   AR   Ar   35   5.924   5.713   1.700
    1   AR   Ar   36   6.007   2.665  -2.502
    1   AR   Ar   37   4.210   2.231   1.898
    1   AR   Ar   38   6.728   3.868   3.525
    1   AR   Ar   39   0.467   3.471   2.954
    1   AR   Ar   40   1.965   4.491   1.707
    1   AR   Ar   41   0.374   2.300   3.161
    1   AR   Ar   42   5.951   5.160   4.888
    1   AR   Ar   43   6.921   2.614   6.000
    1   AR   Ar   44   0.587   4.476   3.297
    1   AR   Ar   45   0.460   3.493   5.841
    1   AR   Ar   46   0.125   4.815   5.154
    1   AR   Ar   47   3.566   4.677   7.140
    1   AR   Ar   48   5.773   3.293   7.511
    1   AR   Ar   49   5.595   0.074  -1.562
    1   AR   Ar   50   3.657   4.624   0.328
    1   AR   Ar   51   5.659   4.218   2.300
    1   AR   Ar   52   5.317   2.683  -1.633
    1   AR   Ar   53   5.409   6.225   2.344
    1   AR   Ar   54   0.728   6.404   2.393
    1   AR   Ar   55   6.658   4.900   2.410
    1   AR   Ar   56   6.648   0.453   2.552
    1   AR   Ar   57   4.260   4.351   3.383
    1   AR   Ar   58   0.504   3.667   4.171
    1   AR   Ar   59   2.302   5.121   5.839
    1   AR   Ar   60   0.600   5.691   3.030
    1   AR   Ar   61   0.137   3.843   6.854
    1   AR   Ar   62   6.595   4.427   4.480
    1   AR   Ar   63   0.985   1.609   6.615
    1   AR   Ar   64   1.246   5.669   5.175
    1   AR   Ar   65   3.779   6.937   1.086
    1   AR   Ar   66   1.054   1.574   1.124
    1   AR   Ar   67   4.443   0.118  -0.934
    1   AR   Ar   68   0.966   0.474  -0.584
    1   AR   Ar   69   2.707   1.089  -0.122
    1   AR   Ar   70   0.526   0.733   2.246
    1   AR   Ar   71   2.562   1.260   2.603
    1   AR   Ar   72   4.600   0.396   1.407
    1   AR   Ar   73   3.343   0.906   3.325
    1   AR   Ar   74   0.809   0.847   4.461
    1   AR   Ar   75   3.343   0.763   4.686
    1   AR   Ar   76   1.298   0.459   1.492
    1   AR   Ar   77   2.557   6.966   5.106
    1   AR   Ar   78   7.064   5.644   5.838
    1   AR   Ar   79   3.747   6.364   6.640
    1   AR   Ar   80   3.990   5.413   5.122
    1   AR   Ar   81   2.139   6.613  -0.049
    1   AR   Ar   82   6.940   4.998   0.657
    1   AR   Ar   83   1.542   3.004  -0.564
    1   AR   Ar   84   0.927   4.371   1.250
    1   AR   Ar   85   1.839   3.303   0.928
    1   AR   Ar   86   1.957   5.409   1.181
    1   AR   Ar   87   2.368   3.228   2.130
    1   AR   Ar   88   3.058   4.931   1.609
    1   AR   Ar   89   6.844   2.476   2.063
    1   AR   Ar   90   3.349   1.875   4.613
    1   AR   Ar   91   1.350   1.923   3.234
    1   AR   Ar   92   1.206   3.710   2.123
    1   AR   Ar   93   0.981   1.142   5.515
    1   AR   Ar   94   1.006   6.604  10.437
    1   AR   Ar   95   4.527   1.094   5.518
    1   AR   Ar   96   2.856   6.986   4.094
    1   AR   Ar   97   3.850   2.271  -0.617
    1   AR   Ar   98   1.741   4.112   3.821
    1   AR   Ar   99   0.049   1.888   0.448
    1   AR   Ar  100   0.656   3.117  -1.647
    1   AR   Ar  101   3.245   6.019   2.268
    1   AR   Ar  102   4.092   1.478   2.753
    1   AR   Ar  103   2.065   4.449   0.479
    1   AR   Ar  104   3.323   5.057  -1.266
    1   AR   Ar  105   2.155   1.938   3.888
    1   AR   Ar  106   4.009   3.000   5.764
    1   AR   Ar  107   1.220   4.344   4.940
    1   AR   Ar  108   2.470   1.410   4.659
    1   AR   Ar  109   1.556   3.291   4.815
    1   AR   Ar  110   2.617   2.785   4.988
    1   AR   Ar  111   5.099   5.672   6.903
    1   AR   Ar  112   0.879   6.503   6.125
    1   AR   Ar  113   3.631   3.963  -1.247
    1   AR   Ar  114   1.753   7.090  -1.141
    1   AR   Ar  115   1.759   5.353   0.127
    1   AR   Ar  116   5.298   0.869  -0.440
    1   AR   Ar  117   1.247   5.012   4.167
    1   AR   Ar  118   1.568   5.100   3.069
    1   AR   Ar  119   2.084   4.179   2.708
    1   AR   Ar  120   1.805   6.525   1.739
    1   AR   Ar  121   5.355   3.918   5.247
    1   AR   Ar  122   2.727   5.863   4.978
    1   AR   Ar  123   3.004   4.089   5.432
    1   AR   Ar  124   1.072   5.587   1.654
    1   AR   Ar  125   6.467   2.983   4.902
    1   AR   Ar  126   6.422   6.540   5.533
    1   AR   Ar  127   4.383   4.072   6.280
    1   AR   Ar  128   3.020   3.296   6.113
    1   AR   Ar  129   1.572   5.971   3.826
    1   AR   Ar  130   4.943   1.832  -3.827
    1   AR   Ar  131   4.177   3.832  -2.327
    1   AR   Ar  132   0.997   1.875  -0.179
    1   AR   Ar  133   4.337   6.927   3.773
    1   AR   Ar  134   4.296   1.286   4.381
    1   AR   Ar  135   5.904   1.048   3.282
    1   AR   Ar  136   6.621   6.515   2.434
    1   AR   Ar  137   1.991   4.189   5.532
    1   AR   Ar  138   5.570   1.093   6.271
    1   AR   Ar  139   5.848   2.549   5.904
    1   AR   Ar  140   4.090   0.054   4.716
    1   AR   Ar  141   3.977   4.977   4.144
    1   AR   Ar  142   4.052   0.276   5.992
    1   AR   Ar  143   6.785   6.324   6.626
    1   AR   Ar  144   6.336   1.316   5.019
    1   AR   Ar  145   4.456   5.081  -1.101
    1   AR   Ar  146   3.365   2.456   2.627
    1   AR   Ar  147   4.364   3.112  -1.164
    1   AR   Ar  148   2.941   6.567  -0.923
    1   AR   Ar  149   2.022   1.677  -1.088
    1   AR   Ar  150   2.233   2.438   2.775
    1   AR   Ar  151   2.997   2.654   3.748
    1   AR   Ar  152   1.549   2.183  -1.987
    1   AR   Ar  153   5.290   0.438   4.304
    1   AR   Ar  154   3.960   2.386   4.008
    1   AR   Ar  155   6.755   3.884   5.408
    1   AR   Ar  156   2.771   4.672   3.617
    1   AR   Ar  157   1.471   4.409   6.473
    1   AR   Ar  158   0.149   1.396   6.111
    1   AR   Ar  159   3.521   1.124   6.378
    1   AR   Ar  160   1.519   2.033   4.798
    1   AR   Ar  161   5.058   4.702   2.906
    1   AR   Ar  162   4.031   6.056  -0.153
    1   AR   Ar  163   5.938   4.680   0.531
    1   AR   Ar  164   2.334   5.468   2.173
    1   AR   Ar  165   3.914   2.232   0.727
    1   AR   Ar  166   2.460   3.606   4.295
    1   AR   Ar  167   5.788   6.841   3.154
    1   AR   Ar  168   5.081   4.030  -1.497
    1   AR   Ar  169   3.146   3.799   2.981
    1   AR   Ar  170   1.967   3.152   5.903
    1   AR   Ar  171   5.862   3.725   4.334
    1   AR   Ar  172   4.038   3.902   5.283
    1   AR   Ar  173   1.899   1.796   6.025
    1   AR   Ar  174   2.159   6.199   5.961
    1   AR   Ar  175   3.816   1.885   5.446
    1   AR   Ar  176   3.612   2.987   4.786
    1   AR   Ar  177   0.806   5.204  -0.382
    1   AR   Ar  178   3.033   6.066   0.116
    1   AR   Ar  179   3.100   0.168  -0.010
    1   AR   Ar  180   5.183   0.983  -4.604
    1   AR   Ar  181   7.066   5.392   1.621
    1   AR   Ar  182   1.906   6.229   2.830
    1   AR   Ar  183   4.963   5.339   1.843
    1   AR   Ar  184   4.602   6.540   0.528
    1   AR   Ar  185   3.139   4.915   4.686
    1   AR   Ar  186   2.846   5.935   3.159
    1   AR   Ar  187   3.393   6.774   3.231
    1   AR   Ar  188   2.814   6.863   1.997
    1   AR   Ar  189   4.973   3.232   6.103
    1   AR   Ar  190   3.504   6.012   4.080
    1   AR   Ar  191   2.205   6.492   7.329
    1   AR   Ar  192   4.395   5.897   5.882
    1   AR   Ar  193   3.138   5.911   1.243
    1   AR   Ar  194   5.246   3.710  -0.410
    1   AR   Ar  195   5.491   0.780   0.894
    1   AR   Ar  196   3.730   1.072  -0.782
    1   AR   Ar  197   4.009   1.401   1.494
    1   AR   Ar  198   5.579   0.431   2.258
    1   AR   Ar  199   2.457   0.257   2.923
    1   AR   Ar  200   4.895   2.791   0.793
    1   AR   Ar  201   5.491   5.721   3.322
    1   AR   Ar  202   5.328   1.680   4.530
    1   AR   Ar  203   7.031   6.772   3.408
    1   AR   Ar  204   5.890   5.701   5.866
    1   AR   Ar  205   6.742   1.148   1.612
    1   AR   Ar  206   6.041   0.335   5.484
    1   AR   Ar  207   0.555   2.164   5.475
    1   AR   Ar  208   0.524   6.168   4.244
    1   AR   Ar  209   0.212   2.285  -2.211
    1   AR   Ar  210   2.431   6.919   1.061
    1   AR   Ar  211   7.072   3.090   1.080
    1   AR   Ar  212   6.400   3.394  -0.014
    1   AR   Ar  213   2.356   0.779   1.701
    1   AR   Ar  214   4.365   3.840   2.465
    1   AR   Ar  215   6.137   3.257   2.412
    1   AR   Ar  216   0.898   2.630   0.717
    1   AR   Ar  217   4.906   1.777   3.324
    1   AR   Ar  218   4.747   3.606   4.482
    1   AR   Ar  219   4.030   3.163   3.403
    1   AR   Ar  220   4.352   3.296   1.479
    1   AR   Ar  221   6.774   5.711   3.550
    1   AR   Ar  222   5.553   6.844   6.183
    1   AR   Ar  223   6.316   1.798   6.597
    1   AR   Ar  224   4.906   2.614   5.386
    1   AR   Ar  225   6.034   2.894   3.398
    1   AR   Ar  226   1.535   3.428   3.102
    1   AR   Ar  227   7.001   3.976   1.938
    1   AR   Ar  228   5.941   6.748   1.419
    1   AR   Ar  229   5.333   5.546  -1.249
    1   AR   Ar  230   3.445   3.970   4.100
    1   AR   Ar  231   5.050   1.532   2.329
    1   AR   Ar  232   5.245   2.890   1.770
    1   AR   Ar  233   6.640   2.006   3.654
    1   AR   Ar  234   5.332   2.726   4.239
    1   AR   Ar  235   6.788   0.906   4.113
    1   AR   Ar  236   4.893   5.002   5.440
    1   AR   Ar  237   5.438   2.399   6.870
    1   AR   Ar  238   5.648   4.148   6.200
    1   AR   Ar  239   0.440   4.735   9.699
    1   AR   Ar  240   6.585   2.483   7.457
    1   AR   Ar  241   1.922   5.820  -0.819
    1   AR   Ar  242   5.520   5.972   0.638
    1   AR   Ar  243   4.515   5.572   2.805
    1   AR   Ar  244   0.779   5.407   0.753
    1   AR   Ar  245   3.580   0.517   1.829
    1   AR   Ar  246   5.389   6.308  -0.396
    1   AR   Ar  247   6.253   3.761   1.170
    1   AR   Ar  248   5.113   5.191   0.012
    1   AR   Ar  249   4.520   6.347   1.839
    1   AR   Ar  250   4.609   5.729   4.371
    1   AR   Ar  251   5.240   4.996   3.894
    1   AR   Ar  252   3.581   5.084   2.839
    1   AR   Ar  253   6.344   3.459   6.453
    1   AR   Ar  254   3.306   1.892   9.693
    1   AR   Ar  255   3.707   5.518   9.932
    1   AR   Ar  256   6.141   4.761   3.423
    7.12000  7.12000 12.00000
Argon-slab step 4130
  256
    1   AR   Ar    1   4.464   2.887  -3.221
    1   AR   Ar    2   6.436   6.988   0.236
    1   AR   Ar    3   3.951   2.487  -2.111
    1   AR   Ar    4   1.769   1.221   0.545
    1   AR   Ar    5   6.583   6.027   0.830
    1   AR   Ar    6   0.951   1.885   2.297
    1   AR   Ar    7   5.236   3.971   3.614
    1   AR   Ar    8   4.872   1.540   0.318
    1   AR   Ar    9   0.875   7.021   3.646
    1   AR   Ar   10   0.137   0.001   4.432
    1   AR   Ar   11   1.721   6.975   4.224
    1   AR   Ar   12   0.362   1.171   3.361
    1   AR   Ar   13   7.048   0.465   5.540
    1   AR   Ar   14   4.627   0.782   7.023
    1   AR   Ar   15   3.277   6.855   8.897
    1   AR   Ar   16   1.160   6.988   5.106
    1   AR   Ar   17   5.837   1.857   1.340
    1   AR   Ar   18   6.444   5.364  -0.100
    1   AR   Ar   19   3.843   3.395  -0.370
    1   AR   Ar   20   6.944   4.470  -3.171
    1   AR   Ar   21   2.522   1.974   1.892
    1   AR   Ar   22   6.926   1.570   2.505
    1   AR   Ar   23   0.122   6.908   0.858
    1   AR   Ar   24   5.088   3.020   2.770
    1   AR   Ar   25   0.539   2.299   4.293
    1   AR   Ar   26   6.260   6.602   4.258
    1   AR   Ar   27   1.586   1.066   2.340
    1   AR   Ar   28   1.495   2.658   3.911
    1   AR   Ar   29   5.937   1.322   7.662
    1   AR   Ar   30   1.643   0.895   3.480
    1   AR   Ar   31   3.101   6.952   7.796
    1   AR   Ar   32   0.793   2.705   6.350
    1   AR   Ar   33   0.827   4.171  -0.353
    1   AR   Ar   34   0.675   4.753   2.308
    1   AR   Ar   35   5.963   5.684   1.701
    1   AR   Ar   36   5.998   2.638  -2.494
    1   AR   Ar   37   4.230   2.261   1.903
    1   AR   Ar   38   6.735   3.902   3.531
    1   AR   Ar   39   0.461   3.456   2.948
    1   AR   Ar   40   1.954   4.503   1.688
    1   AR   Ar   41   0.387   2.275   3.169
    1   AR   Ar   42   5.966   5.128   4.878
    1   AR   Ar   43   6.914   2.628   5.994
    1   AR   Ar   44   0.608   4.442   3.283
    1   AR   Ar   45   0.454   3.493   5.785
    1   AR   Ar   46   0.100   4.814   5.153
    1   AR   Ar   47   3.543   4.691   7.101
    1   AR   Ar   48   5.786   3.306   7.521
    1   AR   Ar   49   5.605   0.073  -1.565
    1   AR   Ar   50   3.640   4.635   0.322
    1   AR   Ar   51   5.660   4.220   2.315
    1   AR   Ar   52   5.342   2.662  -1.637
    1   AR   Ar   53   5.436   6.249   2.338
    1   AR   Ar   54   0.704   6.397   2.390
    1   AR   Ar   55   6.682   4.889   2.376
    1   AR   Ar   56   6.648   0.455   2.603
    1   AR   Ar   57   4.252   4.357   3.365
    1   AR   Ar   58   0.499   3.663   4.174
    1   AR   Ar   59   2.311   5.093   5.837
    1   AR   Ar   60   0.589   5.666   3.018
    1   AR   Ar   61   0.145   3.833   6.873
    1   AR   Ar   62   6.582   4.414   4.460
    1   AR   Ar   63   0.989   1.606   6.624
    1   AR   Ar   64   1.251   5.683   5.185
    1   AR   Ar   65   3.758   6.893   1.102
    1   AR   Ar   66   1.040   1.541   1.163
    1   AR   Ar   67   4.445   0.120  -0.920
    1   AR   Ar   68   0.946   0.444  -0.601
    1   AR   Ar   69   2.678   1.071  -0.104
    1   AR   Ar   70   0.539   0.748   2.268
    1   AR   Ar   71   2.560   1.224   2.617
    1   AR   Ar   72   4.606   0.415   1.449
    1   AR   Ar   73   3.337   0.915   3.293
    1   AR   Ar   74   0.804   0.836   4.450
    1   AR   Ar   75   3.356   0.772   4.691
    1   AR   Ar   76   1.324   0.472   1.482
    1   AR   Ar   77   2.591   6.989   5.093
    1   AR   Ar   78   7.058   5.648   5.862
    1   AR   Ar   79   3.742   6.372   6.626
    1   AR   Ar   80   3.950   5.409   5.113
    1   AR   Ar   81   2.107   6.606  -0.029
    1   AR   Ar   82   6.933   4.988   0.659
    1   AR   Ar   83   1.526   2.998  -0.550
    1   AR   Ar   84   0.913   4.380   1.278
    1   AR   Ar   85   1.830   3.294   0.952
    1   AR   Ar   86   1.921   5.402   1.166
    1   AR   Ar   87   2.374   3.245   2.142
    1   AR   Ar   88   3.087   4.908   1.614
    1   AR   Ar   89   6.840   2.456   2.086
    1   AR   Ar   90   3.362   1.881   4.611
    1   AR   Ar   91   1.358   1.915   3.252
    1   AR   Ar   92   1.173   3.681   2.161
    1   AR   Ar   93   0.985   1.173   5.542
    1   AR   Ar   94   1.022   6.621  10.411
    1   AR   Ar   95   4.509   1.069   5.539
    1   AR   Ar   96   2.841   6.973   4.083
    1   AR   Ar   97   3.871   2.247  -0.630
    1   AR   Ar   98   1.729   4.112   3.859
    1   AR   Ar   99   0.055   1.883   0.439
    1   AR   Ar  100   0.663   3.116  -1.667
    1   AR   Ar  101   3.232   5.978   2.256
    1   AR   Ar  102   4.117   1.476   2.754
    1   AR   Ar  103   2.090   4.440   0.474
    1   AR   Ar  104   3.292   5.079  -1.270
    1   AR   Ar  105   2.134   1.921   3.900
    1   AR   Ar  106   3.991   2.972   5.769
    1   AR   Ar  107   1.231   4.339   4.950
    1   AR   Ar  108   2.484   1.403   4.668
    1   AR   Ar  109   1.558   3.286   4.807
    1   AR   Ar  110   2.624   2.794   5.014
    1   AR   Ar  111   5.090   5.727   6.922
    1   AR   Ar  112   0.885   6.546   6.114
    1   AR   Ar  113   3.632   3.946  -1.283
    1   AR   Ar  114   1.763   7.090  -1.170
    1   AR   Ar  115   1.758   5.365   0.123
    1   AR   Ar  116   5.235   0.886  -0.426
    1   AR   Ar  117   1.210   5.024   4.149
    1   AR   Ar  118   1.554   5.117   3.056
    1   AR   Ar  119   2.100   4.182   2.708
    1   AR   Ar  120   1.783   6.517   1.770
    1   AR   Ar  121   5.386   3.919   5.273
    1   AR   Ar  122   2.737   5.892   4.963
    1   AR   Ar  123   3.034   4.053   5.441
    1   AR   Ar  124   1.061   5.592   1.672
    1   AR   Ar  125   6.443   2.989   4.919
    1   AR   Ar  126   6.409   6.552   5.554
    1   AR   Ar  127   4.414   4.077   6.263
    1   AR   Ar  128   2.992   3.273   6.107
    1   AR   Ar  129   1.541   5.960   3.796
    1   AR   Ar  130   4.931   1.814  -3.805
    1   AR   Ar  131   4.209   3.822  -2.318
    1   AR   Ar  132   0.979   1.861  -0.204
    1   AR   Ar  133   4.350   6.953   3.791
    1   AR   Ar  134   4.288   1.278   4.410
    1   AR   Ar  135   5.909   1.074   3.318
    1   AR   Ar  136   6.622   6.497   2.413
    1   AR   Ar  137   1.987   4.179   5.597
    1   AR   Ar  138   5.543   1.114   6.273
    1   AR   Ar  139   5.829   2.524   5.895
    1   AR   Ar  140   4.077   0.062   4.745
    1   AR   Ar  141   3.990   4.979   4.166
    1   AR   Ar  142   4.035   0.265   5.996
    1   AR   Ar  143   6.749   6.350   6.618
    1   AR   Ar  144   6.348   1.341   5.002
    1   AR   Ar  145   4.476   5.107  -1.103
    1   AR   Ar  146   3.385   2.467   2.642
    1   AR   Ar  147   4.352   3.159  -1.171
    1   AR   Ar  148   2.945   6.557  -0.922
    1   AR   Ar  149   2.024   1.679  -1.079
    1   AR   Ar  150   2.250   2.439   2.787
    1   AR   Ar  151   2.991   2.640   3.796
    1   AR   Ar  152   1.531   2.172  -2.007
    1   AR   Ar  153   5.285   0.446   4.295
    1   AR   Ar  154   3.995   2.380   4.027
    1   AR   Ar  155   6.712   3.849   5.407
    1   AR   Ar  156   2.745   4.645   3.607
    1   AR   Ar  157   1.477   4.424   6.483
    1   AR   Ar  158   0.158   1.399   6.112
    1   AR   Ar  159   3.519   1.134   6.375
    1   AR   Ar  160   1.520   2.033   4.794
    1   AR   Ar  161   5.040   4.737   2.897
    1   AR   Ar  162   4.009   6.051  -0.162
    1   AR   Ar  163   5.950   4.688   0.551
    1   AR   Ar  164   2.345   5.464   2.157
    1   AR   Ar  165   3.907   2.234   0.743
    1   AR   Ar  166   2.448   3.565   4.287
    1   AR   Ar  167   5.778   6.809   3.173
    1   AR   Ar  168   5.087   3.991  -1.497
    1   AR   Ar  169   3.101   3.791   2.988
    1   AR   Ar  170   1.930   3.169   5.882
    1   AR   Ar  171   5.884   3.752   4.324
    1   AR   Ar  172   4.009   3.900   5.285
    1   AR   Ar  173   1.901   1.789   5.981
    1   AR   Ar  174   2.137   6.185   5.948
    1   AR   Ar  175   3.800   1.894   5.461
    1   AR   Ar  176   3.618   2.997   4.787
    1   AR   Ar  177   0.779   5.205  -0.369
    1   AR   Ar  178   3.041   6.057   0.135
    1   AR   Ar  179   3.103   0.163  -0.044
    1   AR   Ar  180   5.199   1.007  -4.637
    1   AR   Ar  181   7.100   5.402   1.605
    1   AR   Ar  182   1.859   6.251   2.834
    1   AR   Ar  183   4.965   5.330   1.846
    1   AR   Ar  184   4.613   6.525   0.556
    1   AR   Ar  185   3.130   4.923   4.675
    1   AR   Ar  186   2.817   5.908   3.146
    1   AR   Ar  187   3.438   6.783   3.245
    1   AR   Ar  188   2.795   6.843   1.993
    1   AR   Ar  189   4.963   3.249   6.155
    1   AR   Ar  190   3.496   5.988   4.056
    1   AR   Ar  191   2.207   6.467   7.300
    1   AR   Ar  192   4.395   5.872   5.908
    1   AR   Ar  193   3.122   5.887   1.236
    1   AR   Ar  194   5.209   3.720  -0.417
    1   AR   Ar  195   5.490   0.817   0.842
    1   AR   Ar  196   3.726   1.035  -0.823
    1   AR   Ar  197   4.022   1.368   1.495
    1   AR   Ar  198   5.526   0.419   2.278
    1   AR   Ar  199   2.482   0.270   2.906
    1   AR   Ar  200   4.871   2.771   0.810
    1   AR   Ar  201   5.475   5.723   3.291
    1   AR   Ar  202   5.332   1.681   4.540
    1   AR   Ar  203   7.038   6.765   3.418
    1   AR   Ar  204   5.861   5.718   5.898
    1   AR   Ar  205   6.738   1.173   1.616
    1   AR   Ar  206   6.054   0.352   5.501
    1   AR   Ar  207   0.555   2.170   5.461
    1   AR   Ar  208   0.511   6.146   4.252
    1   AR   Ar  209   0.208   2.283  -2.227
    1   AR   Ar  210   2.474   6.919   1.041
    1   AR   Ar  211   7.107   3.094   1.060
    1   AR   Ar  212   6.412   3.394  -0.036
    1   AR   Ar  213   2.356   0.756   1.662
    1   AR   Ar  214   4.331   3.860   2.445
    1   AR   Ar  215   6.163   3.234   2.415
    1   AR   Ar  216   0.878   2.640   0.720
    1   AR   Ar  217   4.901   1.763   3.317
    1   AR   Ar  218   4.710   3.610   4.466
    1   AR   Ar  219   4.022   3.192   3.399
    1   AR   Ar  220   4.360   3.324   1.483
    1   AR   Ar  221   6.763   5.672   3.579
    1   AR   Ar  222   5.562   6.832   6.193
    1   AR   Ar  223   6.320   1.844   6.566
    1   AR   Ar  224   4.897   2.593   5.397
    1   AR   Ar  225   5.984   2.931   3.372
    1   AR   Ar  226   1.523   3.438   3.110
    1   AR   Ar  227   7.009   3.975   1.931
    1   AR   Ar  228   5.930   6.739   1.390
    1   AR   Ar  229   5.345   5.537  -1.216
    1   AR   Ar  230   3.459   3.973   4.109
    1   AR   Ar  231   5.038   1.547   2.324
    1   AR   Ar  232   5.261   2.909   1.767
    1   AR   Ar  233   6.649   2.024   3.633
    1   AR   Ar  234   5.321   2.740   4.235
    1   AR   Ar  235   6.753   0.882   4.132
    1   AR   Ar  236   4.892   4.986   5.457
    1   AR   Ar  237   5.411   2.374   6.860
    1   AR   Ar  238   5.613   4.186   6.220
    1   AR   Ar  239   0.433   4.723   9.716
    1   AR   Ar  240   6.620   2.489   7.452
    1   AR   Ar  241   1.933   5.797  -0.801
    1   AR   Ar  242   5.516   5.986   0.669
    1   AR   Ar  243   4.519   5.576   2.826
    1   AR   Ar  244   0.797   5.431   0.746
    1   AR   Ar  245   3.590   0.520   1.827
    1   AR   Ar  246   5.426   6.339  -0.448
    1   AR   Ar  247   6.260   3.751   1.186
    1   AR   Ar  248   5.101   5.206   0.010
    1   AR   Ar  249   4.525   6.364   1.866
    1   AR   Ar  250   4.617   5.739   4.354
    1   AR   Ar  251   5.246   4.993   3.927
    1   AR   Ar  252   3.567   5.059   2.819
    1   AR   Ar  253   6.317   3.424   6.450
    1   AR   Ar  254   3.337   1.896   9.722
    1   AR   Ar  255   3.689   5.519   9.935
    1   AR   Ar  256   6.126   4.746   3.432
    7.12000  7.12000 12.00000
Argon-slab step 4135
  256
    1   AR   Ar    1   4.457   2.908  -3.243
    1   AR   Ar    2   6.396   6.956   0.258
    1   AR   Ar    3   3.938   2.495  -2.156
    1   AR   Ar    4   1.777   1.248   0.613
    1   AR   Ar    5   6.614   6.029   0.804
    1   AR   Ar    6   0.946   1.901   2.321
    1   AR   Ar    7   5.213   3.965   3.606
    1   AR   Ar    8   4.866   1.558   0.329
    1   AR   Ar    9   0.851   7.019   3.664
    1   AR   Ar   10   0.114   0.015   4.459
    1   AR   Ar   11   1.703   6.985   4.224
    1   AR   Ar   12   0.330   1.186   3.355
    1   AR   Ar   13   7.071   0.505   5.536
    1   AR   Ar   14   4.617   0.763   6.975
    1   AR   Ar   15   3.268   6.871   8.900
    1   AR   Ar   16   1.141   6.966   5.082
    1   AR   Ar   17   5.841   1.837   1.355
    1   AR   Ar   18   6.422   5.418  -0.073
    1   AR   Ar   19   3.863   3.392  -0.365
    1   AR   Ar   20   6.942   4.429  -3.180
    1   AR   Ar   21   2.495   1.986   1.880
    1   AR   Ar   22   6.904   1.575   2.522
    1   AR   Ar   23   0.125   6.889   0.823
    1   AR   Ar   24   5.084   3.006   2.813
    1   AR   Ar   25   0.542   2.296   4.277
    1   AR   Ar   26   6.271   6.615   4.271
    1   AR   Ar   27   1.589   1.056   2.354
    1   AR   Ar   28   1.543   2.678   3.908
    1   AR   Ar   29   5.901   1.290   7.673
    1   AR   Ar   30   1.610   0.910   3.482
    1   AR   Ar   31   3.077   6.948   7.796
    1   AR   Ar   32   0.779   2.650   6.347
    1   AR   Ar   33   0.812   4.171  -0.360
    1   AR   Ar   34   0.660   4.749   2.320
    1   AR   Ar   35   6.010   5.648   1.697
    1   AR   Ar   36   6.011   2.633  -2.513
    1   AR   Ar   37   4.253   2.301   1.911
    1   AR   Ar   38   6.739   3.923   3.535
    1   AR   Ar   39   0.451   3.437   2.941
    1   AR   Ar   40   1.941   4.513   1.669
    1   AR   Ar   41   0.402   2.255   3.173
    1   AR   Ar   42   5.977   5.099   4.871
    1   AR   Ar   43   6.902   2.642   5.989
    1   AR   Ar   44   0.630   4.411   3.277
    1   AR   Ar   45   0.455   3.495   5.729
    1   AR   Ar   46   0.079   4.814   5.154
    1   AR   Ar   47   3.522   4.707   7.071
    1   AR   Ar   48   5.800   3.317   7.528
    1   AR   Ar   49   5.615   0.072  -1.567
    1   AR   Ar   50   3.624   4.646   0.315
    1   AR   Ar   51   5.668   4.218   2.324
    1   AR   Ar   52   5.364   2.642  -1.639
    1   AR   Ar   53   5.461   6.277   2.338
    1   AR   Ar   54   0.692   6.375   2.373
    1   AR   Ar   55   6.700   4.877   2.350
    1   AR   Ar   56   6.646   0.458   2.655
    1   AR   Ar   57   4.234   4.359   3.354
    1   AR   Ar   58   0.504   3.662   4.196
    1   AR   Ar   59   2.322   5.074   5.835
    1   AR   Ar   60   0.620   5.665   3.051
    1   AR   Ar   61   0.146   3.832   6.838
    1   AR   Ar   62   6.580   4.407   4.437
    1   AR   Ar   63   1.001   1.606   6.637
    1   AR   Ar   64   1.233   5.705   5.183
    1   AR   Ar   65   3.734   6.845   1.116
    1   AR   Ar   66   1.018   1.512   1.207
    1   AR   Ar   67   4.448   0.122  -0.906
    1   AR   Ar   68   0.927   0.415  -0.616
    1   AR   Ar   69   2.646   1.061  -0.087
    1   AR   Ar   70   0.552   0.765   2.290
    1   AR   Ar   71   2.564   1.198   2.635
    1   AR   Ar   72   4.614   0.432   1.490
    1   AR   Ar   73   3.316   0.918   3.280
    1   AR   Ar   74   0.800   0.827   4.437
    1   AR   Ar   75   3.365   0.784   4.696
    1   AR   Ar   76   1.349   0.484   1.470
    1   AR   Ar   77   2.623   7.013   5.084
    1   AR   Ar   78   7.052   5.653   5.883
    1   AR   Ar   79   3.737   6.381   6.613
    1   AR   Ar   80   3.905   5.406   5.105
    1   AR   Ar   81   2.076   6.599  -0.009
    1   AR   Ar   82   6.935   4.972   0.669
    1   AR   Ar   83   1.509   2.992  -0.537
    1   AR   Ar   84   0.898   4.390   1.307
    1   AR   Ar   85   1.819   3.287   0.978
    1   AR   Ar   86   1.892   5.398   1.146
    1   AR   Ar   87   2.380   3.267   2.151
    1   AR   Ar   88   3.115   4.882   1.621
    1   AR   Ar   89   6.836   2.447   2.104
    1   AR   Ar   90   3.366   1.888   4.596
    1   AR   Ar   91   1.364   1.899   3.263
    1   AR   Ar   92   1.140   3.655   2.194
    1   AR   Ar   93   0.994   1.203   5.565
    1   AR   Ar   94   1.037   6.639  10.386
    1   AR   Ar   95   4.494   1.047   5.556
    1   AR   Ar   96   2.827   6.960   4.071
    1   AR   Ar   97   3.891   2.223  -0.642
    1   AR   Ar   98   1.710   4.120   3.897
    1   AR   Ar   99   0.061   1.879   0.432
    1   AR   Ar  100   0.671   3.115  -1.687
    1   AR   Ar  101   3.233   5.934   2.240
    1   AR   Ar  102   4.129   1.472   2.750
    1   AR   Ar  103   2.116   4.428   0.473
    1   AR   Ar  104   3.261   5.101  -1.273
    1   AR   Ar  105   2.126   1.900   3.907
    1   AR   Ar  106   3.972   2.943   5.778
    1   AR   Ar  107   1.228   4.322   4.962
    1   AR   Ar  108   2.493   1.385   4.685
    1   AR   Ar  109   1.558   3.280   4.800
    1   AR   Ar  110   2.627   2.801   5.042
    1   AR   Ar  111   5.082   5.782   6.939
    1   AR   Ar  112   0.891   6.587   6.101
    1   AR   Ar  113   3.633   3.932  -1.320
    1   AR   Ar  114   1.782   7.089  -1.208
    1   AR   Ar  115   1.755   5.379   0.120
    1   AR   Ar  116   5.173   0.899  -0.415
    1   AR   Ar  117   1.170   5.037   4.130
    1   AR   Ar  118   1.530   5.146   3.038
    1   AR   Ar  119   2.118   4.189   2.708
    1   AR   Ar  120   1.759   6.506   1.802
    1   AR   Ar  121   5.415   3.918   5.294
    1   AR   Ar  122   2.746   5.922   4.949
    1   AR   Ar  123   3.057   4.021   5.446
    1   AR   Ar  124   1.051   5.599   1.708
    1   AR   Ar  125   6.417   2.990   4.933
    1   AR   Ar  126   6.404   6.555   5.572
    1   AR   Ar  127   4.443   4.090   6.248
    1   AR   Ar  128   2.964   3.246   6.103
    1   AR   Ar  129   1.508   5.951   3.767
    1   AR   Ar  130   4.920   1.808  -3.805
    1   AR   Ar  131   4.242   3.810  -2.306
    1   AR   Ar  132   0.964   1.847  -0.227
    1   AR   Ar  133   4.365   6.977   3.805
    1   AR   Ar  134   4.281   1.270   4.440
    1   AR   Ar  135   5.914   1.100   3.354
    1   AR   Ar  136   6.623   6.477   2.391
    1   AR   Ar  137   1.986   4.160   5.661
    1   AR   Ar  138   5.515   1.135   6.273
    1   AR   Ar  139   5.812   2.501   5.883
    1   AR   Ar  140   4.067   0.068   4.781
    1   AR   Ar  141   4.004   4.975   4.181
    1   AR   Ar  142   4.056   0.251   6.005
    1   AR   Ar  143   6.713   6.377   6.609
    1   AR   Ar  144   6.358   1.367   4.988
    1   AR   Ar  145   4.483   5.126  -1.101
    1   AR   Ar  146   3.404   2.479   2.659
    1   AR   Ar  147   4.349   3.200  -1.191
    1   AR   Ar  148   2.948   6.546  -0.919
    1   AR   Ar  149   2.026   1.682  -1.069
    1   AR   Ar  150   2.265   2.437   2.806
    1   AR   Ar  151   2.983   2.628   3.845
    1   AR   Ar  152   1.511   2.160  -2.026
    1   AR   Ar  153   5.281   0.456   4.285
    1   AR   Ar  154   4.042   2.371   4.041
    1   AR   Ar  155   6.662   3.822   5.407
    1   AR   Ar  156   2.719   4.620   3.597
    1   AR   Ar  157   1.481   4.440   6.494
    1   AR   Ar  158   0.154   1.401   6.111
    1   AR   Ar  159   3.519   1.126   6.369
    1   AR   Ar  160   1.521   2.032   4.793
    1   AR   Ar  161   5.030   4.773   2.887
    1   AR   Ar  162   3.993   6.044  -0.176
    1   AR   Ar  163   5.956   4.693   0.572
    1   AR   Ar  164   2.351   5.459   2.143
    1   AR   Ar  165   3.901   2.235   0.759
    1   AR   Ar  166   2.445   3.520   4.281
    1   AR   Ar  167   5.770   6.780   3.195
    1   AR   Ar  168   5.091   3.951  -1.497
    1   AR   Ar  169   3.079   3.786   2.994
    1   AR   Ar  170   1.891   3.182   5.861
    1   AR   Ar  171   5.903   3.765   4.319
    1   AR   Ar  172   3.989   3.901   5.281
    1   AR   Ar  173   1.902   1.782   5.935
    1   AR   Ar  174   2.115   6.171   5.934
    1   AR   Ar  175   3.792   1.905   5.493
    1   AR   Ar  176   3.625   3.010   4.785
    1   AR   Ar  177   0.752   5.210  -0.354
    1   AR   Ar  178   3.042   6.048   0.157
    1   AR   Ar  179   3.110   0.148  -0.077
    1   AR   Ar  180   5.214   1.031  -4.670
    1   AR   Ar  181   7.109   5.395   1.598
    1   AR   Ar  182   1.810   6.274   2.835
    1   AR   Ar  183   4.966   5.320   1.851
    1   AR   Ar  184   4.625   6.512   0.587
    1   AR   Ar  185   3.110   4.928   4.667
    1   AR   Ar  186   2.784   5.877   3.146
    1   AR   Ar  187   3.485   6.792   3.253
    1   AR   Ar  188   2.777   6.830   1.994
    1   AR   Ar  189   4.993   3.251   6.143
    1   AR   Ar  190   3.488   5.964   4.034
    1   AR   Ar  191   2.211   6.446   7.291
    1   AR   Ar  192   4.398   5.850   5.939
    1   AR   Ar  193   3.096   5.897   1.226
    1   AR   Ar  194   5.172   3.729  -0.425
    1   AR   Ar  195   5.490   0.852   0.792
    1   AR   Ar  196   3.731   1.014  -0.847
    1   AR   Ar  197   4.038   1.334   1.490
    1   AR   Ar  198   5.473   0.407   2.297
    1   AR   Ar  199   2.504   0.274   2.893
    1   AR   Ar  200   4.850   2.744   0.817
    1   AR   Ar  201   5.464   5.732   3.256
    1   AR   Ar  202   5.336   1.683   4.543
    1   AR   Ar  203   7.043   6.772   3.429
    1   AR   Ar  204   5.830   5.732   5.932
    1   AR   Ar  205   6.733   1.195   1.612
    1   AR   Ar  206   6.054   0.381   5.515
    1   AR   Ar  207   0.559   2.176   5.441
    1   AR   Ar  208   0.500   6.121   4.259
    1   AR   Ar  209   0.205   2.280  -2.243
    1   AR   Ar  210   2.516   6.921   1.011
    1   AR   Ar  211   0.021   3.100   1.043
    1   AR   Ar  212   6.423   3.395  -0.055
    1   AR   Ar  213   2.382   0.771   1.637
    1   AR   Ar  214   4.299   3.878   2.425
    1   AR   Ar  215   6.165   3.232   2.405
    1   AR   Ar  216   0.856   2.647   0.737
    1   AR   Ar  217   4.901   1.753   3.321
    1   AR   Ar  218   4.669   3.613   4.450
    1   AR   Ar  219   4.015   3.227   3.391
    1   AR   Ar  220   4.366   3.317   1.449
    1   AR   Ar  221   6.750   5.633   3.608
    1   AR   Ar  222   5.568   6.819   6.205
    1   AR   Ar  223   6.327   1.889   6.537
    1   AR   Ar  224   4.900   2.582   5.380
    1   AR   Ar  225   5.936   2.967   3.354
    1   AR   Ar  226   1.511   3.438   3.122
    1   AR   Ar  227   7.020   3.973   1.925
    1   AR   Ar  228   5.919   6.731   1.362
    1   AR   Ar  229   5.369   5.533  -1.184
    1   AR   Ar  230   3.474   3.975   4.119
    1   AR   Ar  231   5.032   1.561   2.309
    1   AR   Ar  232   5.285   2.925   1.763
    1   AR   Ar  233   6.652   2.039   3.617
    1   AR   Ar  234   5.310   2.754   4.231
    1   AR   Ar  235   6.716   0.858   4.148
    1   AR   Ar  236   4.903   4.982   5.479
    1   AR   Ar  237   5.383   2.349   6.852
    1   AR   Ar  238   5.578   4.229   6.245
    1   AR   Ar  239   0.436   4.750   9.733
    1   AR   Ar  240   6.653   2.496   7.445
    1   AR   Ar  241   1.945   5.777  -0.786
    1   AR   Ar  242   5.513   5.998   0.700
    1   AR   Ar  243   4.517   5.590   2.846
    1   AR   Ar  244   0.813   5.453   0.727
    1   AR   Ar  245   3.592   0.518   1.831
    1   AR   Ar  246   5.463   6.371  -0.499
    1   AR   Ar  247   6.245   3.737   1.189
    1   AR   Ar  248   5.069   5.238  -0.006
    1   AR   Ar  249   4.526   6.383   1.889
    1   AR   Ar  250   4.631   5.757   4.338
    1   AR   Ar  251   5.246   4.979   3.958
    1   AR   Ar  252   3.551   5.034   2.801
    1   AR   Ar  253   6.291   3.387   6.447
    1   AR   Ar  254   3.368   1.900   9.750
    1   AR   Ar  255   3.671   5.521   9.939
    1   AR   Ar  256   6.112   4.732   3.438
    7.12000  7.12000 12.00000
Argon-slab step 4140
  256
    1   AR   Ar    1   4.451   2.928  -3.263
    1   AR   Ar    2   6.349   6.925   0.277
    1   AR   Ar    3   3.922   2.482  -2.133
    1   AR   Ar    4   1.792   1.272   0.676
    1   AR   Ar    5   6.644   6.028   0.780
    1   AR   Ar    6   0.936   1.917   2.339
    1   AR   Ar    7   5.188   3.956   3.589
    1   AR   Ar    8   4.855   1.583   0.343
    1   AR   Ar    9   0.834   7.020   3.681
    1   AR   Ar   10   0.092   0.024   4.491
    1   AR   Ar   11   1.693   6.997   4.222
    1   AR   Ar   12   0.300   1.199   3.350
    1   AR   Ar   13   7.100   0.544   5.530
    1   AR   Ar   14   4.612   0.782   6.943
    1   AR   Ar   15   3.258   6.886   8.903
    1   AR   Ar   16   1.117   6.943   5.060
    1   AR   Ar   17   5.836   1.822   1.365
    1   AR   Ar   18   6.419   5.449  -0.072
    1   AR   Ar   19   3.877   3.392  -0.348
    1   AR   Ar   20   6.941   4.380  -3.176
    1   AR   Ar   21   2.490   2.023   1.896
    1   AR   Ar   22   6.885   1.569   2.552
    1   AR   Ar   23   0.133   6.871   0.792
    1   AR   Ar   24   5.070   2.994   2.854
    1   AR   Ar   25   0.545   2.292   4.262
    1   AR   Ar   26   6.282   6.629   4.283
    1   AR   Ar   27   1.586   1.043   2.396
    1   AR   Ar   28   1.584   2.715   3.907
    1   AR   Ar   29   5.865   1.259   7.683
    1   AR   Ar   30   1.578   0.921   3.486
    1   AR   Ar   31   3.054   6.943   7.795
    1   AR   Ar   32   0.763   2.648   6.354
    1   AR   Ar   33   0.816   4.156  -0.366
    1   AR   Ar   34   0.646   4.747   2.327
    1   AR   Ar   35   6.061   5.611   1.690
    1   AR   Ar   36   6.025   2.628  -2.532
    1   AR   Ar   37   4.277   2.343   1.921
    1   AR   Ar   38   6.736   3.900   3.537
    1   AR   Ar   39   0.435   3.414   2.936
    1   AR   Ar   40   1.929   4.517   1.653
    1   AR   Ar   41   0.421   2.242   3.173
    1   AR   Ar   42   5.983   5.074   4.866
    1   AR   Ar   43   6.887   2.656   5.982
    1   AR   Ar   44   0.653   4.380   3.278
    1   AR   Ar   45   0.461   3.495   5.674
    1   AR   Ar   46   0.063   4.816   5.159
    1   AR   Ar   47   3.509   4.733   7.084
    1   AR   Ar   48   5.814   3.326   7.533
    1   AR   Ar   49   5.623   0.070  -1.568
    1   AR   Ar   50   3.605   4.650   0.302
    1   AR   Ar   51   5.681   4.212   2.330
    1   AR   Ar   52   5.383   2.624  -1.640
    1   AR   Ar   53   5.488   6.306   2.335
    1   AR   Ar   54   0.681   6.363   2.349
    1   AR   Ar   55   6.712   4.863   2.333
    1   AR   Ar   56   6.645   0.461   2.709
    1   AR   Ar   57   4.225   4.358   3.355
    1   AR   Ar   58   0.511   3.661   4.219
    1   AR   Ar   59   2.337   5.064   5.834
    1   AR   Ar   60   0.646   5.656   3.092
    1   AR   Ar   61   0.148   3.830   6.802
    1   AR   Ar   62   6.597   4.413   4.414
    1   AR   Ar   63   1.018   1.608   6.651
    1   AR   Ar   64   1.214   5.728   5.180
    1   AR   Ar   65   3.729   6.809   1.134
    1   AR   Ar   66   0.998   1.524   1.211
    1   AR   Ar   67   4.451   0.123  -0.890
    1   AR   Ar   68   0.908   0.386  -0.632
    1   AR   Ar   69   2.612   1.056  -0.071
    1   AR   Ar   70   0.564   0.782   2.312
    1   AR   Ar   71   2.569   1.192   2.647
    1   AR   Ar   72   4.626   0.446   1.532
    1   AR   Ar   73   3.277   0.913   3.298
    1   AR   Ar   74   0.798   0.818   4.424
    1   AR   Ar   75   3.369   0.799   4.701
    1   AR   Ar   76   1.374   0.494   1.456
    1   AR   Ar   77   2.645   7.035   5.081
    1   AR   Ar   78   7.046   5.657   5.903
    1   AR   Ar   79   3.731   6.391   6.599
    1   AR   Ar   80   3.862   5.407   5.102
    1   AR   Ar   81   2.045   6.592   0.010
    1   AR   Ar   82   6.947   4.951   0.683
    1   AR   Ar   83   1.490   2.985  -0.522
    1   AR   Ar   84   0.882   4.402   1.335
    1   AR   Ar   85   1.808   3.281   1.004
    1   AR   Ar   86   1.867   5.397   1.125
    1   AR   Ar   87   2.388   3.274   2.159
    1   AR   Ar   88   3.132   4.871   1.616
    1   AR   Ar   89   6.833   2.451   2.114
    1   AR   Ar   90   3.365   1.896   4.576
    1   AR   Ar   91   1.368   1.881   3.268
    1   AR   Ar   92   1.109   3.633   2.218
    1   AR   Ar   93   1.008   1.229   5.584
    1   AR   Ar   94   1.053   6.656  10.360
    1   AR   Ar   95   4.482   1.030   5.571
    1   AR   Ar   96   2.813   6.948   4.056
    1   AR   Ar   97   3.913   2.200  -0.654
    1   AR   Ar   98   1.688   4.132   3.933
    1   AR   Ar   99   0.068   1.875   0.427
    1   AR   Ar  100   0.681   3.114  -1.705
    1   AR   Ar  101   3.249   5.891   2.225
    1   AR   Ar  102   4.127   1.466   2.744
    1   AR   Ar  103   2.141   4.415   0.474
    1   AR   Ar  104   3.232   5.122  -1.275
    1   AR   Ar  105   2.120   1.877   3.927
    1   AR   Ar  106   3.952   2.914   5.791
    1   AR   Ar  107   1.233   4.304   4.953
    1   AR   Ar  108   2.506   1.352   4.702
    1   AR   Ar  109   1.556   3.274   4.795
    1   AR   Ar  110   2.627   2.805   5.071
    1   AR   Ar  111   5.073   5.838   6.952
    1   AR   Ar  112   0.896   6.628   6.087
    1   AR   Ar  113   3.632   3.922  -1.358
    1   AR   Ar  114   1.803   7.087  -1.244
    1   AR   Ar  115   1.749   5.392   0.119
    1   AR   Ar  116   5.111   0.909  -0.406
    1   AR   Ar  117   1.127   5.048   4.110
    1   AR   Ar  118   1.511   5.172   3.019
    1   AR   Ar  119   2.135   4.200   2.707
    1   AR   Ar  120   1.733   6.495   1.830
    1   AR   Ar  121   5.442   3.915   5.309
    1   AR   Ar  122   2.754   5.953   4.935
    1   AR   Ar  123   3.060   3.997   5.448
    1   AR   Ar  124   1.041   5.607   1.754
    1   AR   Ar  125   6.387   2.980   4.944
    1   AR   Ar  126   6.405   6.554   5.587
    1   AR   Ar  127   4.467   4.110   6.233
    1   AR   Ar  128   2.936   3.216   6.101
    1   AR   Ar  129   1.506   5.981   3.766
    1   AR   Ar  130   4.913   1.821  -3.836
    1   AR   Ar  131   4.275   3.797  -2.293
    1   AR   Ar  132   0.949   1.833  -0.249
    1   AR   Ar  133   4.384   7.000   3.816
    1   AR   Ar  134   4.277   1.263   4.469
    1   AR   Ar  135   5.920   1.125   3.389
    1   AR   Ar  136   6.622   6.456   2.368
    1   AR   Ar  137   1.989   4.136   5.716
    1   AR   Ar  138   5.486   1.156   6.273
    1   AR   Ar  139   5.797   2.481   5.867
    1   AR   Ar  140   4.062   0.070   4.822
    1   AR   Ar  141   4.021   4.964   4.187
    1   AR   Ar  142   4.101   0.230   6.020
    1   AR   Ar  143   6.675   6.405   6.600
    1   AR   Ar  144   6.368   1.394   4.977
    1   AR   Ar  145   4.476   5.139  -1.097
    1   AR   Ar  146   3.422   2.490   2.677
    1   AR   Ar  147   4.358   3.234  -1.222
    1   AR   Ar  148   2.949   6.535  -0.913
    1   AR   Ar  149   2.027   1.685  -1.058
    1   AR   Ar  150   2.278   2.435   2.833
    1   AR   Ar  151   2.975   2.617   3.892
    1   AR   Ar  152   1.479   2.177  -1.999
    1   AR   Ar  153   5.276   0.466   4.275
    1   AR   Ar  154   4.098   2.363   4.050
    1   AR   Ar  155   6.607   3.806   5.411
    1   AR   Ar  156   2.692   4.595   3.587
    1   AR   Ar  157   1.482   4.457   6.509
    1   AR   Ar  158   0.138   1.405   6.111
    1   AR   Ar  159   3.520   1.119   6.362
    1   AR   Ar  160   1.521   2.031   4.795
    1   AR   Ar  161   5.030   4.801   2.877
    1   AR   Ar  162   3.983   6.037  -0.194
    1   AR   Ar  163   5.956   4.696   0.595
    1   AR   Ar  164   2.348   5.453   2.131
    1   AR   Ar  165   3.895   2.236   0.776
    1   AR   Ar  166   2.449   3.474   4.274
    1   AR   Ar  167   5.766   6.755   3.220
    1   AR   Ar  168   5.094   3.912  -1.498
    1   AR   Ar  169   3.098   3.798   3.009
    1   AR   Ar  170   1.850   3.185   5.840
    1   AR   Ar  171   5.908   3.759   4.314
    1   AR   Ar  172   3.990   3.903   5.272
    1   AR   Ar  173   1.902   1.778   5.887
    1   AR   Ar  174   2.092   6.158   5.918
    1   AR   Ar  175   3.789   1.915   5.533
    1   AR   Ar  176   3.632   3.024   4.780
    1   AR   Ar  177   0.724   5.220  -0.340
    1   AR   Ar  178   3.034   6.041   0.179
    1   AR   Ar  179   3.119   0.126  -0.108
    1   AR   Ar  180   5.230   1.056  -4.702
    1   AR   Ar  181   0.003   5.394   1.589
    1   AR   Ar  182   1.762   6.298   2.832
    1   AR   Ar  183   4.967   5.310   1.856
    1   AR   Ar  184   4.635   6.503   0.618
    1   AR   Ar  185   3.081   4.927   4.659
    1   AR   Ar  186   2.748   5.844   3.152
    1   AR   Ar  187   3.529   6.801   3.257
    1   AR   Ar  188   2.760   6.819   1.999
    1   AR   Ar  189   5.030   3.250   6.133
    1   AR   Ar  190   3.480   5.940   4.013
    1   AR   Ar  191   2.220   6.432   7.310
    1   AR   Ar  192   4.405   5.829   5.972
    1   AR   Ar  193   3.064   5.929   1.213
    1   AR   Ar  194   5.135   3.738  -0.432
    1   AR   Ar  195   5.491   0.885   0.744
    1   AR   Ar  196   3.743   1.005  -0.860
    1   AR   Ar  197   4.051   1.322   1.468
    1   AR   Ar  198   5.420   0.394   2.317
    1   AR   Ar  199   2.522   0.264   2.890
    1   AR   Ar  200   4.836   2.709   0.814
    1   AR   Ar  201   5.457   5.742   3.221
    1   AR   Ar  202   5.340   1.685   4.547
    1   AR   Ar  203   7.037   6.774   3.436
    1   AR   Ar  204   5.798   5.744   5.965
    1   AR   Ar  205   6.727   1.212   1.600
    1   AR   Ar  206   6.046   0.419   5.528
    1   AR   Ar  207   0.565   2.181   5.416
    1   AR   Ar  208   0.489   6.095   4.265
    1   AR   Ar  209   0.202   2.277  -2.259
    1   AR   Ar  210   2.557   6.922   0.975
    1   AR   Ar  211   0.046   3.110   1.029
    1   AR   Ar  212   6.435   3.397  -0.073
    1   AR   Ar  213   2.410   0.785   1.611
    1   AR   Ar  214   4.267   3.895   2.404
    1   AR   Ar  215   6.163   3.239   2.387
    1   AR   Ar  216   0.845   2.649   0.752
    1   AR   Ar  217   4.909   1.748   3.337
    1   AR   Ar  218   4.654   3.601   4.458
    1   AR   Ar  219   4.008   3.264   3.383
    1   AR   Ar  220   4.362   3.317   1.422
    1   AR   Ar  221   6.737   5.595   3.637
    1   AR   Ar  222   5.574   6.804   6.219
    1   AR   Ar  223   6.336   1.930   6.511
    1   AR   Ar  224   4.910   2.578   5.344
    1   AR   Ar  225   5.895   3.003   3.347
    1   AR   Ar  226   1.500   3.432   3.137
    1   AR   Ar  227   7.034   3.967   1.918
    1   AR   Ar  228   5.908   6.724   1.337
    1   AR   Ar  229   5.405   5.535  -1.152
    1   AR   Ar  230   3.491   3.976   4.129
    1   AR   Ar  231   5.035   1.574   2.285
    1   AR   Ar  232   5.314   2.938   1.761
    1   AR   Ar  233   6.647   2.050   3.603
    1   AR   Ar  234   5.300   2.768   4.227
    1   AR   Ar  235   6.679   0.835   4.159
    1   AR   Ar  236   4.922   4.985   5.503
    1   AR   Ar  237   5.355   2.326   6.845
    1   AR   Ar  238   5.543   4.273   6.276
    1   AR   Ar  239   0.439   4.777   9.751
    1   AR   Ar  240   6.685   2.503   7.436
    1   AR   Ar  241   1.960   5.760  -0.779
    1   AR   Ar  242   5.515   6.005   0.731
    1   AR   Ar  243   4.502   5.619   2.864
    1   AR   Ar  244   0.827   5.473   0.703
    1   AR   Ar  245   3.587   0.509   1.842
    1   AR   Ar  246   5.499   6.402  -0.547
    1   AR   Ar  247   6.218   3.722   1.184
    1   AR   Ar  248   5.036   5.271  -0.022
    1   AR   Ar  249   4.538   6.391   1.915
    1   AR   Ar  250   4.647   5.784   4.323
    1   AR   Ar  251   5.232   4.960   3.961
    1   AR   Ar  252   3.533   5.008   2.783
    1   AR   Ar  253   6.263   3.349   6.445
    1   AR   Ar  254   3.398   1.904   9.778
    1   AR   Ar  255   3.653   5.522   9.942
    1   AR   Ar  256   6.096   4.721   3.440
    7.12000  7.12000 12.00000
Argon-slab step 4145
  256
    1   AR   Ar    1   4.445   2.948  -3.282
    1   AR   Ar    2   6.296   6.894   0.293
    1   AR   Ar    3   3.907   2.472  -2.108
    1   AR   Ar    4   1.816   1.293   0.734
    1   AR   Ar    5   6.672   6.024   0.761
    1   AR   Ar    6   0.925   1.932   2.347
    1   AR   Ar    7   5.163   3.945   3.566
    1   AR   Ar    8   4.838   1.616   0.359
    1   AR   Ar    9   0.825   7.028   3.697
    1   AR   Ar   10   0.072   0.028   4.526
    1   AR   Ar   11   1.693   7.009   4.218
    1   AR   Ar   12   0.273   1.206   3.350
    1   AR   Ar   13   0.012   0.581   5.521
    1   AR   Ar   14   4.607   0.801   6.910
    1   AR   Ar   15   3.249   6.901   8.906
    1   AR   Ar   16   1.088   6.921   5.041
    1   AR   Ar   17   5.804   1.827   1.350
    1   AR   Ar   18   6.447   5.439  -0.104
    1   AR   Ar   19   3.888   3.393  -0.324
    1   AR   Ar   20   6.939   4.331  -3.172
    1   AR   Ar   21   2.485   2.058   1.909
    1   AR   Ar   22   6.864   1.557   2.590
    1   AR   Ar   23   0.147   6.854   0.776
    1   AR   Ar   24   5.040   2.982   2.886
    1   AR   Ar   25   0.549   2.288   4.247
    1   AR   Ar   26   6.292   6.642   4.295
    1   AR   Ar   27   1.566   1.055   2.384
    1   AR   Ar   28   1.620   2.759   3.906
    1   AR   Ar   29   5.829   1.229   7.690
    1   AR   Ar   30   1.548   0.923   3.492
    1   AR   Ar   31   3.048   6.947   7.791
    1   AR   Ar   32   0.751   2.648   6.363
    1   AR   Ar   33   0.808   4.131  -0.366
    1   AR   Ar   34   0.636   4.748   2.330
    1   AR   Ar   35   6.111   5.574   1.683
    1   AR   Ar   36   6.040   2.624  -2.552
    1   AR   Ar   37   4.303   2.384   1.931
    1   AR   Ar   38   6.736   3.872   3.533
    1   AR   Ar   39   0.412   3.385   2.935
    1   AR   Ar   40   1.917   4.517   1.640
    1   AR   Ar   41   0.437   2.238   3.172
    1   AR   Ar   42   5.984   5.054   4.866
    1   AR   Ar   43   6.873   2.670   5.972
    1   AR   Ar   44   0.679   4.351   3.288
    1   AR   Ar   45   0.471   3.495   5.618
    1   AR   Ar   46   0.050   4.819   5.166
    1   AR   Ar   47   3.495   4.759   7.096
    1   AR   Ar   48   5.830   3.335   7.537
    1   AR   Ar   49   5.631   0.068  -1.567
    1   AR   Ar   50   3.580   4.624   0.263
    1   AR   Ar   51   5.698   4.196   2.351
    1   AR   Ar   52   5.401   2.607  -1.640
    1   AR   Ar   53   5.516   6.335   2.326
    1   AR   Ar   54   0.668   6.360   2.325
    1   AR   Ar   55   6.714   4.848   2.327
    1   AR   Ar   56   6.637   0.470   2.753
    1   AR   Ar   57   4.233   4.358   3.368
    1   AR   Ar   58   0.520   3.660   4.241
    1   AR   Ar   59   2.352   5.070   5.835
    1   AR   Ar   60   0.663   5.648   3.140
    1   AR   Ar   61   0.148   3.826   6.763
    1   AR   Ar   62   6.630   4.428   4.390
    1   AR   Ar   63   1.038   1.611   6.666
    1   AR   Ar   64   1.195   5.752   5.175
    1   AR   Ar   65   3.752   6.794   1.158
    1   AR   Ar   66   0.970   1.550   1.209
    1   AR   Ar   67   4.455   0.124  -0.873
    1   AR   Ar   68   0.891   0.357  -0.646
    1   AR   Ar   69   2.576   1.053  -0.056
    1   AR   Ar   70   0.572   0.800   2.334
    1   AR   Ar   71   2.565   1.201   2.628
    1   AR   Ar   72   4.641   0.457   1.572
    1   AR   Ar   73   3.246   0.905   3.323
    1   AR   Ar   74   0.798   0.812   4.411
    1   AR   Ar   75   3.369   0.812   4.705
    1   AR   Ar   76   1.397   0.503   1.443
    1   AR   Ar   77   2.630   7.051   5.094
    1   AR   Ar   78   7.040   5.662   5.922
    1   AR   Ar   79   3.725   6.402   6.587
    1   AR   Ar   80   3.823   5.413   5.105
    1   AR   Ar   81   2.016   6.584   0.029
    1   AR   Ar   82   6.953   4.938   0.698
    1   AR   Ar   83   1.470   2.977  -0.508
    1   AR   Ar   84   0.865   4.415   1.361
    1   AR   Ar   85   1.799   3.274   1.028
    1   AR   Ar   86   1.845   5.402   1.108
    1   AR   Ar   87   2.407   3.263   2.162
    1   AR   Ar   88   3.140   4.871   1.604
    1   AR   Ar   89   6.832   2.465   2.118
    1   AR   Ar   90   3.361   1.904   4.557
    1   AR   Ar   91   1.370   1.865   3.270
    1   AR   Ar   92   1.082   3.617   2.230
    1   AR   Ar   93   1.025   1.251   5.599
    1   AR   Ar   94   1.068   6.673  10.335
    1   AR   Ar   95   4.475   1.022   5.580
    1   AR   Ar   96   2.799   6.935   4.037
    1   AR   Ar   97   3.935   2.178  -0.666
    1   AR   Ar   98   1.664   4.146   3.969
    1   AR   Ar   99   0.076   1.871   0.424
    1   AR   Ar  100   0.691   3.112  -1.723
    1   AR   Ar  101   3.275   5.851   2.213
    1   AR   Ar  102   4.113   1.458   2.735
    1   AR   Ar  103   2.165   4.403   0.478
    1   AR   Ar  104   3.204   5.144  -1.276
    1   AR   Ar  105   2.119   1.852   3.955
    1   AR   Ar  106   3.934   2.890   5.807
    1   AR   Ar  107   1.235   4.287   4.943
    1   AR   Ar  108   2.510   1.316   4.725
    1   AR   Ar  109   1.550   3.268   4.794
    1   AR   Ar  110   2.625   2.806   5.103
    1   AR   Ar  111   5.065   5.894   6.964
    1   AR   Ar  112   0.901   6.646   6.087
    1   AR   Ar  113   3.626   3.919  -1.397
    1   AR   Ar  114   1.840   7.067  -1.252
    1   AR   Ar  115   1.742   5.403   0.120
    1   AR   Ar  116   5.050   0.916  -0.399
    1   AR   Ar  117   1.081   5.059   4.091
    1   AR   Ar  118   1.501   5.191   2.997
    1   AR   Ar  119   2.151   4.214   2.707
    1   AR   Ar  120   1.707   6.485   1.851
    1   AR   Ar  121   5.468   3.910   5.320
    1   AR   Ar  122   2.764   5.982   4.920
    1   AR   Ar  123   3.043   3.978   5.449
    1   AR   Ar  124   1.034   5.611   1.801
    1   AR   Ar  125   6.354   2.958   4.948
    1   AR   Ar  126   6.410   6.550   5.597
    1   AR   Ar  127   4.488   4.134   6.218
    1   AR   Ar  128   2.906   3.181   6.102
    1   AR   Ar  129   1.509   6.021   3.777
    1   AR   Ar  130   4.906   1.834  -3.867
    1   AR   Ar  131   4.309   3.783  -2.279
    1   AR   Ar  132   0.937   1.820  -0.270
    1   AR   Ar  133   4.413   7.024   3.818
    1   AR   Ar  134   4.277   1.258   4.498
    1   AR   Ar  135   5.926   1.151   3.424
    1   AR   Ar  136   6.621   6.434   2.346
    1   AR   Ar  137   1.996   4.114   5.760
    1   AR   Ar  138   5.458   1.178   6.273
    1   AR   Ar  139   5.784   2.463   5.857
    1   AR   Ar  140   4.061   0.068   4.867
    1   AR   Ar  141   4.039   4.949   4.188
    1   AR   Ar  142   4.142   0.201   6.038
    1   AR   Ar  143   6.637   6.434   6.594
    1   AR   Ar  144   6.377   1.423   4.971
    1   AR   Ar  145   4.462   5.148  -1.092
    1   AR   Ar  146   3.441   2.502   2.696
    1   AR   Ar  147   4.362   3.249  -1.254
    1   AR   Ar  148   2.950   6.521  -0.907
    1   AR   Ar  149   2.028   1.687  -1.046
    1   AR   Ar  150   2.256   2.426   2.837
    1   AR   Ar  151   2.967   2.608   3.937
    1   AR   Ar  152   1.513   2.185  -1.990
    1   AR   Ar  153   5.272   0.478   4.265
    1   AR   Ar  154   4.161   2.357   4.055
    1   AR   Ar  155   6.552   3.804   5.420
    1   AR   Ar  156   2.664   4.573   3.579
    1   AR   Ar  157   1.478   4.478   6.531
    1   AR   Ar  158   0.114   1.414   6.113
    1   AR   Ar  159   3.522   1.112   6.353
    1   AR   Ar  160   1.520   2.030   4.800
    1   AR   Ar  161   5.038   4.820   2.866
    1   AR   Ar  162   3.981   6.030  -0.214
    1   AR   Ar  163   5.949   4.698   0.618
    1   AR   Ar  164   2.336   5.444   2.120
    1   AR   Ar  165   3.888   2.234   0.794
    1   AR   Ar  166   2.456   3.431   4.264
    1   AR   Ar  167   5.766   6.736   3.249
    1   AR   Ar  168   5.099   3.876  -1.502
    1   AR   Ar  169   3.120   3.807   3.023
    1   AR   Ar  170   1.805   3.172   5.822
    1   AR   Ar  171   5.900   3.738   4.309
    1   AR   Ar  172   4.013   3.905   5.258
    1   AR   Ar  173   1.901   1.775   5.838
    1   AR   Ar  174   2.069   6.146   5.901
    1   AR   Ar  175   3.788   1.922   5.574
    1   AR   Ar  176   3.640   3.038   4.771
    1   AR   Ar  177   0.696   5.232  -0.326
    1   AR   Ar  178   3.042   6.041   0.188
    1   AR   Ar  179   3.130   0.101  -0.138
    1   AR   Ar  180   5.236   1.083  -4.729
    1   AR   Ar  181   0.003   5.392   1.599
    1   AR   Ar  182   1.715   6.323   2.830
    1   AR   Ar  183   4.969   5.301   1.863
    1   AR   Ar  184   4.626   6.510   0.625
    1   AR   Ar  185   3.043   4.922   4.649
    1   AR   Ar  186   2.723   5.794   3.161
    1   AR   Ar  187   3.569   6.808   3.257
    1   AR   Ar  188   2.744   6.809   2.006
    1   AR   Ar  189   5.070   3.247   6.127
    1   AR   Ar  190   3.472   5.916   3.992
    1   AR   Ar  191   2.228   6.418   7.328
    1   AR   Ar  192   4.414   5.809   6.005
    1   AR   Ar  193   3.028   5.961   1.201
    1   AR   Ar  194   5.132   3.735  -0.445
    1   AR   Ar  195   5.495   0.913   0.699
    1   AR   Ar  196   3.755   0.996  -0.871
    1   AR   Ar  197   4.063   1.330   1.436
    1   AR   Ar  198   5.369   0.380   2.338
    1   AR   Ar  199   2.533   0.240   2.901
    1   AR   Ar  200   4.831   2.666   0.802
    1   AR   Ar  201   5.459   5.756   3.214
    1   AR   Ar  202   5.343   1.687   4.550
    1   AR   Ar  203   7.018   6.773   3.440
    1   AR   Ar  204   5.765   5.754   6.000
    1   AR   Ar  205   6.722   1.228   1.584
    1   AR   Ar  206   6.035   0.461   5.539
    1   AR   Ar  207   0.571   2.187   5.388
    1   AR   Ar  208   0.493   6.101   4.241
    1   AR   Ar  209   0.199   2.274  -2.275
    1   AR   Ar  210   2.599   6.924   0.935
    1   AR   Ar  211   0.055   3.128   1.022
    1   AR   Ar  212   6.446   3.399  -0.090
    1   AR   Ar  213   2.440   0.799   1.586
    1   AR   Ar  214   4.259   3.919   2.404
    1   AR   Ar  215   6.162   3.248   2.364
    1   AR   Ar  216   0.848   2.641   0.761
    1   AR   Ar  217   4.921   1.745   3.360
    1   AR   Ar  218   4.655   3.580   4.483
    1   AR   Ar  219   4.002   3.300   3.376
    1   AR   Ar  220   4.350   3.326   1.404
    1   AR   Ar  221   6.725   5.559   3.666
    1   AR   Ar  222   5.577   6.789   6.235
    1   AR   Ar  223   6.318   1.946   6.520
    1   AR   Ar  224   4.915   2.572   5.299
    1   AR   Ar  225   5.869   3.038   3.355
    1   AR   Ar  226   1.493   3.426   3.156
    1   AR   Ar  227   7.050   3.956   1.911
    1   AR   Ar  228   5.901   6.723   1.316
    1   AR   Ar  229   5.448   5.537  -1.121
    1   AR   Ar  230   3.508   3.975   4.140
    1   AR   Ar  231   5.044   1.587   2.255
    1   AR   Ar  232   5.344   2.951   1.760
    1   AR   Ar  233   6.634   2.058   3.593
    1   AR   Ar  234   5.288   2.782   4.225
    1   AR   Ar  235   6.641   0.814   4.164
    1   AR   Ar  236   4.943   4.986   5.526
    1   AR   Ar  237   5.327   2.303   6.839
    1   AR   Ar  238   5.510   4.319   6.310
    1   AR   Ar  239   0.427   4.771   9.777
    1   AR   Ar  240   6.716   2.511   7.425
    1   AR   Ar  241   1.980   5.745  -0.767
    1   AR   Ar  242   5.518   6.016   0.736
    1   AR   Ar  243   4.474   5.661   2.880
    1   AR   Ar  244   0.839   5.493   0.681
    1   AR   Ar  245   3.574   0.494   1.858
    1   AR   Ar  246   5.535   6.436  -0.591
    1   AR   Ar  247   6.190   3.706   1.180
    1   AR   Ar  248   5.005   5.306  -0.040
    1   AR   Ar  249   4.550   6.396   1.941
    1   AR   Ar  250   4.664   5.815   4.308
    1   AR   Ar  251   5.208   4.941   3.960
    1   AR   Ar  252   3.514   4.980   2.767
    1   AR   Ar  253   6.231   3.314   6.444
    1   AR   Ar  254   3.429   1.908   9.807
    1   AR   Ar  255   3.636   5.524   9.945
    1   AR   Ar  256   6.079   4.710   3.439
    7.12000  7.12000 12.00000
Argon-slab step 4150
  256
    1   AR   Ar    1   4.439   2.968  -3.300
    1   AR   Ar    2   6.283   6.863   0.300
    1   AR   Ar    3   3.893   2.463  -2.083
    1   AR   Ar    4   1.847   1.311   0.789
    1   AR   Ar    5   6.698   6.012   0.746
    1   AR   Ar    6   0.913   1.944   2.344
    1   AR   Ar    7   5.142   3.929   3.541
    1   AR   Ar    8   4.816   1.655   0.377
    1   AR   Ar    9   0.820   7.052   3.712
    1   AR   Ar   10   0.093   0.035   4.540
    1   AR   Ar   11   1.703   7.023   4.214
    1   AR   Ar   12   0.254   1.207   3.361
    1   AR   Ar   13   0.044   0.613   5.506
    1   AR   Ar   14   4.602   0.820   6.874
    1   AR   Ar   15   3.240   6.916   8.909
    1   AR   Ar   16   1.055   6.898   5.025
    1   AR   Ar   17   5.770   1.833   1.337
    1   AR   Ar   18   6.472   5.429  -0.139
    1   AR   Ar   19   3.898   3.394  -0.298
    1   AR   Ar   20   6.938   4.282  -3.167
    1   AR   Ar   21   2.482   2.091   1.917
    1   AR   Ar   22   6.839   1.543   2.625
    1   AR   Ar   23   0.160   6.833   0.806
    1   AR   Ar   24   4.990   2.969   2.907
    1   AR   Ar   25   0.554   2.285   4.233
    1   AR   Ar   26   6.300   6.654   4.306
    1   AR   Ar   27   1.550   1.067   2.370
    1   AR   Ar   28   1.655   2.799   3.905
    1   AR   Ar   29   5.815   1.218   7.716
    1   AR   Ar   30   1.527   0.920   3.497
    1   AR   Ar   31   3.068   6.961   7.781
    1   AR   Ar   32   0.740   2.648   6.371
    1   AR   Ar   33   0.815   4.090  -0.369
    1   AR   Ar   34   0.629   4.750   2.334
    1   AR   Ar   35   6.156   5.539   1.675
    1   AR   Ar   36   6.056   2.619  -2.571
    1   AR   Ar   37   4.329   2.423   1.942
    1   AR   Ar   38   6.737   3.839   3.525
    1   AR   Ar   39   0.381   3.351   2.939
    1   AR   Ar   40   1.906   4.513   1.629
    1   AR   Ar   41   0.448   2.243   3.172
    1   AR   Ar   42   5.980   5.036   4.868
    1   AR   Ar   43   6.862   2.684   5.956
    1   AR   Ar   44   0.706   4.322   3.303
    1   AR   Ar   45   0.482   3.494   5.562
    1   AR   Ar   46   0.040   4.823   5.178
    1   AR   Ar   47   3.482   4.785   7.107
    1   AR   Ar   48   5.845   3.342   7.538
    1   AR   Ar   49   5.637   0.066  -1.564
    1   AR   Ar   50   3.555   4.598   0.223
    1   AR   Ar   51   5.718   4.173   2.383
    1   AR   Ar   52   5.417   2.592  -1.639
    1   AR   Ar   53   5.546   6.362   2.312
    1   AR   Ar   54   0.650   6.368   2.307
    1   AR   Ar   55   6.707   4.831   2.331
    1   AR   Ar   56   6.648   0.480   2.760
    1   AR   Ar   57   4.236   4.357   3.381
    1   AR   Ar   58   0.529   3.660   4.263
    1   AR   Ar   59   2.362   5.090   5.839
    1   AR   Ar   60   0.665   5.647   3.191
    1   AR   Ar   61   0.149   3.821   6.722
    1   AR   Ar   62   6.671   4.446   4.364
    1   AR   Ar   63   1.059   1.614   6.680
    1   AR   Ar   64   1.164   5.773   5.158
    1   AR   Ar   65   3.773   6.779   1.183
    1   AR   Ar   66   0.934   1.578   1.213
    1   AR   Ar   67   4.460   0.123  -0.856
    1   AR   Ar   68   0.874   0.328  -0.661
    1   AR   Ar   69   2.540   1.050  -0.041
    1   AR   Ar   70   0.575   0.818   2.355
    1   AR   Ar   71   2.559   1.223   2.598
    1   AR   Ar   72   4.656   0.464   1.610
    1   AR   Ar   73   3.222   0.897   3.354
    1   AR   Ar   74   0.799   0.806   4.396
    1   AR   Ar   75   3.370   0.821   4.709
    1   AR   Ar   76   1.420   0.511   1.430
    1   AR   Ar   77   2.615   7.069   5.109
    1   AR   Ar   78   7.033   5.666   5.938
    1   AR   Ar   79   3.717   6.415   6.575
    1   AR   Ar   80   3.821   5.419   5.115
    1   AR   Ar   81   1.989   6.575   0.047
    1   AR   Ar   82   6.961   4.925   0.711
    1   AR   Ar   83   1.449   2.969  -0.493
    1   AR   Ar   84   0.847   4.428   1.385
    1   AR   Ar   85   1.806   3.261   1.035
    1   AR   Ar   86   1.827   5.410   1.098
    1   AR   Ar   87   2.433   3.260   2.158
    1   AR   Ar   88   3.148   4.872   1.593
    1   AR   Ar   89   6.833   2.481   2.119
    1   AR   Ar   90   3.360   1.910   4.542
    1   AR   Ar   91   1.374   1.858   3.270
    1   AR   Ar   92   1.058   3.606   2.230
    1   AR   Ar   93   1.043   1.269   5.610
    1   AR   Ar   94   1.084   6.691  10.309
    1   AR   Ar   95   4.470   1.022   5.585
    1   AR   Ar   96   2.798   6.934   4.055
    1   AR   Ar   97   3.957   2.156  -0.677
    1   AR   Ar   98   1.640   4.158   4.003
    1   AR   Ar   99   0.083   1.868   0.423
    1   AR   Ar  100   0.702   3.109  -1.741
    1   AR   Ar  101   3.309   5.815   2.203
    1   AR   Ar  102   4.092   1.450   2.724
    1   AR   Ar  103   2.189   4.391   0.483
    1   AR   Ar  104   3.177   5.166  -1.276
    1   AR   Ar  105   2.120   1.838   3.960
    1   AR   Ar  106   3.919   2.875   5.825
    1   AR   Ar  107   1.234   4.272   4.935
    1   AR   Ar  108   2.505   1.280   4.755
    1   AR   Ar  109   1.542   3.263   4.795
    1   AR   Ar  110   2.622   2.805   5.135
    1   AR   Ar  111   5.057   5.951   6.973
    1   AR   Ar  112   0.904   6.633   6.106
    1   AR   Ar  113   3.614   3.921  -1.436
    1   AR   Ar  114   1.863   7.060  -1.273
    1   AR   Ar  115   1.732   5.409   0.122
    1   AR   Ar  116   4.989   0.920  -0.394
    1   AR   Ar  117   1.033   5.071   4.072
    1   AR   Ar  118   1.507   5.201   2.972
    1   AR   Ar  119   2.163   4.229   2.705
    1   AR   Ar  120   1.682   6.476   1.861
    1   AR   Ar  121   5.492   3.904   5.327
    1   AR   Ar  122   2.773   6.010   4.905
    1   AR   Ar  123   3.016   3.962   5.446
    1   AR   Ar  124   1.034   5.605   1.844
    1   AR   Ar  125   6.318   2.931   4.942
    1   AR   Ar  126   6.416   6.547   5.599
    1   AR   Ar  127   4.504   4.159   6.202
    1   AR   Ar  128   2.876   3.143   6.104
    1   AR   Ar  129   1.508   6.050   3.798
    1   AR   Ar  130   4.909   1.851  -3.891
    1   AR   Ar  131   4.342   3.766  -2.264
    1   AR   Ar  132   0.926   1.808  -0.292
    1   AR   Ar  133   4.470   7.048   3.780
    1   AR   Ar  134   4.281   1.255   4.524
    1   AR   Ar  135   5.931   1.177   3.458
    1   AR   Ar  136   6.620   6.412   2.325
    1   AR   Ar  137   2.009   4.099   5.793
    1   AR   Ar  138   5.429   1.201   6.271
    1   AR   Ar  139   5.772   2.446   5.847
    1   AR   Ar  140   4.064   0.063   4.913
    1   AR   Ar  141   4.057   4.934   4.189
    1   AR   Ar  142   4.180   0.163   6.061
    1   AR   Ar  143   6.598   6.462   6.592
    1   AR   Ar  144   6.385   1.455   4.969
    1   AR   Ar  145   4.444   5.155  -1.084
    1   AR   Ar  146   3.458   2.514   2.715
    1   AR   Ar  147   4.364   3.248  -1.284
    1   AR   Ar  148   2.949   6.505  -0.901
    1   AR   Ar  149   2.027   1.690  -1.034
    1   AR   Ar  150   2.210   2.413   2.830
    1   AR   Ar  151   2.959   2.599   3.976
    1   AR   Ar  152   1.545   2.193  -1.980
    1   AR   Ar  153   5.268   0.491   4.255
    1   AR   Ar  154   4.228   2.353   4.058
    1   AR   Ar  155   6.499   3.812   5.435
    1   AR   Ar  156   2.683   4.597   3.562
    1   AR   Ar  157   1.469   4.501   6.560
    1   AR   Ar  158   0.088   1.429   6.118
    1   AR   Ar  159   3.527   1.104   6.344
    1   AR   Ar  160   1.517   2.031   4.808
    1   AR   Ar  161   5.050   4.835   2.856
    1   AR   Ar  162   3.984   6.022  -0.237
    1   AR   Ar  163   5.938   4.701   0.642
    1   AR   Ar  164   2.317   5.435   2.110
    1   AR   Ar  165   3.878   2.232   0.812
    1   AR   Ar  166   2.464   3.396   4.253
    1   AR   Ar  167   5.787   6.725   3.271
    1   AR   Ar  168   5.111   3.846  -1.510
    1   AR   Ar  169   3.144   3.815   3.036
    1   AR   Ar  170   1.757   3.140   5.806
    1   AR   Ar  171   5.887   3.712   4.304
    1   AR   Ar  172   4.046   3.909   5.244
    1   AR   Ar  173   1.903   1.775   5.788
    1   AR   Ar  174   2.045   6.134   5.882
    1   AR   Ar  175   3.786   1.920   5.612
    1   AR   Ar  176   3.646   3.050   4.759
    1   AR   Ar  177   0.667   5.244  -0.313
    1   AR   Ar  178   3.058   6.046   0.185
    1   AR   Ar  179   3.141   0.076  -0.164
    1   AR   Ar  180   5.237   1.112  -4.752
    1   AR   Ar  181   0.013   5.387   1.607
    1   AR   Ar  182   1.670   6.347   2.831
    1   AR   Ar  183   4.972   5.294   1.870
    1   AR   Ar  184   4.604   6.527   0.616
    1   AR   Ar  185   3.001   4.912   4.636
    1   AR   Ar  186   2.704   5.733   3.170
    1   AR   Ar  187   3.604   6.814   3.253
    1   AR   Ar  188   2.731   6.799   2.013
    1   AR   Ar  189   5.112   3.244   6.121
    1   AR   Ar  190   3.466   5.891   3.973
    1   AR   Ar  191   2.235   6.402   7.345
    1   AR   Ar  192   4.424   5.788   6.037
    1   AR   Ar  193   2.990   5.990   1.194
    1   AR   Ar  194   5.138   3.727  -0.458
    1   AR   Ar  195   5.504   0.936   0.657
    1   AR   Ar  196   3.767   0.987  -0.881
    1   AR   Ar  197   4.076   1.344   1.403
    1   AR   Ar  198   5.322   0.365   2.361
    1   AR   Ar  199   2.541   0.206   2.916
    1   AR   Ar  200   4.833   2.619   0.787
    1   AR   Ar  201   5.459   5.755   3.196
    1   AR   Ar  202   5.345   1.688   4.553
    1   AR   Ar  203   6.989   6.767   3.441
    1   AR   Ar  204   5.731   5.761   6.033
    1   AR   Ar  205   6.717   1.243   1.567
    1   AR   Ar  206   6.017   0.496   5.515
    1   AR   Ar  207   0.575   2.195   5.358
    1   AR   Ar  208   0.497   6.107   4.217
    1   AR   Ar  209   0.196   2.272  -2.291
    1   AR   Ar  210   2.640   6.927   0.894
    1   AR   Ar  211   0.050   3.156   1.020
    1   AR   Ar  212   6.457   3.402  -0.105
    1   AR   Ar  213   2.471   0.812   1.562
    1   AR   Ar  214   4.285   3.956   2.434
    1   AR   Ar  215   6.165   3.260   2.341
    1   AR   Ar  216   0.867   2.623   0.765
    1   AR   Ar  217   4.936   1.745   3.387
    1   AR   Ar  218   4.656   3.561   4.506
    1   AR   Ar  219   3.998   3.334   3.369
    1   AR   Ar  220   4.334   3.341   1.389
    1   AR   Ar  221   6.714   5.524   3.695
    1   AR   Ar  222   5.578   6.776   6.252
    1   AR   Ar  223   6.297   1.951   6.543
    1   AR   Ar  224   4.915   2.566   5.249
    1   AR   Ar  225   5.862   3.076   3.376
    1   AR   Ar  226   1.487   3.422   3.173
    1   AR   Ar  227   7.068   3.941   1.902
    1   AR   Ar  228   5.897   6.728   1.304
    1   AR   Ar  229   5.494   5.537  -1.090
    1   AR   Ar  230   3.524   3.973   4.152
    1   AR   Ar  231   5.034   1.592   2.235
    1   AR   Ar  232   5.372   2.963   1.759
    1   AR   Ar  233   6.617   2.065   3.585
    1   AR   Ar  234   5.278   2.793   4.222
    1   AR   Ar  235   6.627   0.788   4.162
    1   AR   Ar  236   4.964   4.985   5.548
    1   AR   Ar  237   5.299   2.281   6.833
    1   AR   Ar  238   5.482   4.366   6.345
    1   AR   Ar  239   0.416   4.765   9.804
    1   AR   Ar  240   6.746   2.519   7.412
    1   AR   Ar  241   2.007   5.728  -0.749
    1   AR   Ar  242   5.522   6.019   0.729
    1   AR   Ar  243   4.436   5.708   2.894
    1   AR   Ar  244   0.847   5.514   0.665
    1   AR   Ar  245   3.558   0.476   1.877
    1   AR   Ar  246   5.571   6.473  -0.632
    1   AR   Ar  247   6.162   3.691   1.177
    1   AR   Ar  248   4.974   5.342  -0.058
    1   AR   Ar  249   4.559   6.401   1.964
    1   AR   Ar  250   4.680   5.849   4.292
    1   AR   Ar  251   5.182   4.922   3.961
    1   AR   Ar  252   3.495   4.949   2.752
    1   AR   Ar  253   6.195   3.282   6.445
    1   AR   Ar  254   3.460   1.912   9.835
    1   AR   Ar  255   3.618   5.526   9.947
    1   AR   Ar  256   6.063   4.699   3.435
    7.12000  7.12000 12.00000
Argon-slab step 4155
  256
    1   AR   Ar    1   4.433   2.987  -3.317
    1   AR   Ar    2   6.295   6.833   0.301
    1   AR   Ar    3   3.880   2.455  -2.057
    1   AR   Ar    4   1.881   1.328   0.842
    1   AR   Ar    5   6.719   5.991   0.734
    1   AR   Ar    6   0.902   1.954   2.327
    1   AR   Ar    7   5.126   3.909   3.515
    1   AR   Ar    8   4.789   1.695   0.395
    1   AR   Ar    9   0.815   7.078   3.724
    1   AR   Ar   10   0.124   0.039   4.550
    1   AR   Ar   11   1.721   7.039   4.211
    1   AR   Ar   12   0.243   1.200   3.385
    1   AR   Ar   13   0.077   0.641   5.486
    1   AR   Ar   14   4.595   0.840   6.838
    1   AR   Ar   15   3.230   6.931   8.911
    1   AR   Ar   16   1.019   6.875   5.010
    1   AR   Ar   17   5.735   1.840   1.323
    1   AR   Ar   18   6.496   5.420  -0.174
    1   AR   Ar   19   3.909   3.396  -0.272
    1   AR   Ar   20   6.948   4.279  -3.154
    1   AR   Ar   21   2.480   2.121   1.918
    1   AR   Ar   22   6.806   1.534   2.650
    1   AR   Ar   23   0.177   6.818   0.838
    1   AR   Ar   24   4.931   2.956   2.923
    1   AR   Ar   25   0.557   2.303   4.230
    1   AR   Ar   26   6.306   6.666   4.317
    1   AR   Ar   27   1.570   1.049   2.408
    1   AR   Ar   28   1.688   2.817   3.907
    1   AR   Ar   29   5.816   1.219   7.753
    1   AR   Ar   30   1.539   0.938   3.485
    1   AR   Ar   31   3.089   6.976   7.771
    1   AR   Ar   32   0.730   2.649   6.380
    1   AR   Ar   33   0.824   4.048  -0.371
    1   AR   Ar   34   0.624   4.753   2.342
    1   AR   Ar   35   6.188   5.508   1.667
    1   AR   Ar   36   6.072   2.614  -2.591
    1   AR   Ar   37   4.356   2.460   1.954
    1   AR   Ar   38   6.738   3.803   3.514
    1   AR   Ar   39   0.344   3.313   2.947
    1   AR   Ar   40   1.896   4.505   1.622
    1   AR   Ar   41   0.449   2.257   3.175
    1   AR   Ar   42   5.972   5.019   4.873
    1   AR   Ar   43   6.855   2.694   5.936
    1   AR   Ar   44   0.735   4.293   3.320
    1   AR   Ar   45   0.494   3.492   5.506
    1   AR   Ar   46   0.033   4.829   5.194
    1   AR   Ar   47   3.469   4.812   7.117
    1   AR   Ar   48   5.862   3.348   7.537
    1   AR   Ar   49   5.643   0.062  -1.560
    1   AR   Ar   50   3.529   4.573   0.183
    1   AR   Ar   51   5.737   4.155   2.414
    1   AR   Ar   52   5.431   2.579  -1.638
    1   AR   Ar   53   5.577   6.388   2.294
    1   AR   Ar   54   0.626   6.387   2.297
    1   AR   Ar   55   6.699   4.843   2.318
    1   AR   Ar   56   6.719   0.463   2.774
    1   AR   Ar   57   4.233   4.361   3.393
    1   AR   Ar   58   0.539   3.661   4.284
    1   AR   Ar   59   2.374   5.112   5.841
    1   AR   Ar   60   0.653   5.652   3.244
    1   AR   Ar   61   0.149   3.813   6.679
    1   AR   Ar   62   6.714   4.462   4.334
    1   AR   Ar   63   1.080   1.617   6.693
    1   AR   Ar   64   1.112   5.788   5.123
    1   AR   Ar   65   3.789   6.765   1.211
    1   AR   Ar   66   0.894   1.607   1.220
    1   AR   Ar   67   4.468   0.118  -0.844
    1   AR   Ar   68   0.859   0.300  -0.675
    1   AR   Ar   69   2.504   1.047  -0.026
    1   AR   Ar   70   0.571   0.835   2.376
    1   AR   Ar   71   2.559   1.241   2.570
    1   AR   Ar   72   4.667   0.469   1.641
    1   AR   Ar   73   3.216   0.877   3.316
    1   AR   Ar   74   0.802   0.804   4.382
    1   AR   Ar   75   3.375   0.822   4.713
    1   AR   Ar   76   1.441   0.518   1.418
    1   AR   Ar   77   2.621   7.067   5.106
    1   AR   Ar   78   7.027   5.671   5.954
    1   AR   Ar   79   3.709   6.428   6.565
    1   AR   Ar   80   3.804   5.427   5.112
    1   AR   Ar   81   1.963   6.566   0.064
    1   AR   Ar   82   6.972   4.909   0.720
    1   AR   Ar   83   1.427   2.960  -0.477
    1   AR   Ar   84   0.829   4.441   1.403
    1   AR   Ar   85   1.811   3.250   1.043
    1   AR   Ar   86   1.814   5.421   1.101
    1   AR   Ar   87   2.458   3.259   2.155
    1   AR   Ar   88   3.154   4.874   1.582
    1   AR   Ar   89   6.839   2.493   2.117
    1   AR   Ar   90   3.364   1.908   4.537
    1   AR   Ar   91   1.378   1.861   3.266
    1   AR   Ar   92   1.039   3.600   2.221
    1   AR   Ar   93   1.055   1.281   5.618
    1   AR   Ar   94   1.099   6.708  10.284
    1   AR   Ar   95   4.468   1.026   5.588
    1   AR   Ar   96   2.805   6.939   4.096
    1   AR   Ar   97   3.980   2.135  -0.689
    1   AR   Ar   98   1.614   4.170   4.000
    1   AR   Ar   99   0.091   1.865   0.424
    1   AR   Ar  100   0.715   3.106  -1.758
    1   AR   Ar  101   3.345   5.785   2.193
    1   AR   Ar  102   4.069   1.442   2.713
    1   AR   Ar  103   2.212   4.380   0.490
    1   AR   Ar  104   3.176   5.177  -1.264
    1   AR   Ar  105   2.118   1.842   3.932
    1   AR   Ar  106   3.908   2.873   5.843
    1   AR   Ar  107   1.229   4.259   4.933
    1   AR   Ar  108   2.487   1.248   4.789
    1   AR   Ar  109   1.531   3.258   4.800
    1   AR   Ar  110   2.618   2.801   5.165
    1   AR   Ar  111   5.052   6.001   6.970
    1   AR   Ar  112   0.908   6.618   6.124
    1   AR   Ar  113   3.614   3.932  -1.405
    1   AR   Ar  114   1.873   7.063  -1.308
    1   AR   Ar  115   1.724   5.407   0.118
    1   AR   Ar  116   4.930   0.926  -0.388
    1   AR   Ar  117   0.985   5.083   4.054
    1   AR   Ar  118   1.525   5.204   2.943
    1   AR   Ar  119   2.173   4.245   2.702
    1   AR   Ar  120   1.658   6.469   1.856
    1   AR   Ar  121   5.507   3.900   5.333
    1   AR   Ar  122   2.783   6.037   4.890
    1   AR   Ar  123   3.024   3.958   5.457
    1   AR   Ar  124   1.042   5.586   1.879
    1   AR   Ar  125   6.284   2.923   4.909
    1   AR   Ar  126   6.423   6.545   5.592
    1   AR   Ar  127   4.513   4.184   6.184
    1   AR   Ar  128   2.845   3.106   6.110
    1   AR   Ar  129   1.493   6.035   3.837
    1   AR   Ar  130   4.926   1.875  -3.904
    1   AR   Ar  131   4.374   3.749  -2.252
    1   AR   Ar  132   0.917   1.796  -0.312
    1   AR   Ar  133   4.528   7.073   3.744
    1   AR   Ar  134   4.292   1.255   4.549
    1   AR   Ar  135   5.935   1.203   3.490
    1   AR   Ar  136   6.625   6.402   2.311
    1   AR   Ar  137   2.026   4.088   5.820
    1   AR   Ar  138   5.402   1.225   6.268
    1   AR   Ar  139   5.759   2.432   5.831
    1   AR   Ar  140   4.069   0.056   4.959
    1   AR   Ar  141   4.069   4.952   4.186
    1   AR   Ar  142   4.217   0.121   6.086
    1   AR   Ar  143   6.561   6.490   6.596
    1   AR   Ar  144   6.393   1.487   4.969
    1   AR   Ar  145   4.425   5.162  -1.076
    1   AR   Ar  146   3.476   2.526   2.735
    1   AR   Ar  147   4.363   3.233  -1.311
    1   AR   Ar  148   2.945   6.484  -0.897
    1   AR   Ar  149   2.024   1.693  -1.024
    1   AR   Ar  150   2.162   2.402   2.832
    1   AR   Ar  151   2.953   2.589   4.002
    1   AR   Ar  152   1.576   2.202  -1.970
    1   AR   Ar  153   5.266   0.506   4.246
    1   AR   Ar  154   4.296   2.350   4.060
    1   AR   Ar  155   6.455   3.825   5.453
    1   AR   Ar  156   2.722   4.602   3.599
    1   AR   Ar  157   1.457   4.528   6.592
    1   AR   Ar  158   0.073   1.449   6.123
    1   AR   Ar  159   3.533   1.096   6.333
    1   AR   Ar  160   1.513   2.033   4.815
    1   AR   Ar  161   5.051   4.829   2.845
    1   AR   Ar  162   3.994   6.015  -0.263
    1   AR   Ar  163   5.924   4.704   0.665
    1   AR   Ar  164   2.295   5.426   2.101
    1   AR   Ar  165   3.864   2.228   0.831
    1   AR   Ar  166   2.469   3.376   4.244
    1   AR   Ar  167   5.824   6.722   3.287
    1   AR   Ar  168   5.133   3.824  -1.522
    1   AR   Ar  169   3.166   3.822   3.046
    1   AR   Ar  170   1.706   3.096   5.794
    1   AR   Ar  171   5.873   3.722   4.336
    1   AR   Ar  172   4.079   3.916   5.233
    1   AR   Ar  173   1.911   1.780   5.741
    1   AR   Ar  174   2.019   6.124   5.862
    1   AR   Ar  175   3.783   1.908   5.646
    1   AR   Ar  176   3.652   3.060   4.746
    1   AR   Ar  177   0.637   5.254  -0.305
    1   AR   Ar  178   3.068   6.053   0.176
    1   AR   Ar  179   3.153   0.053  -0.185
    1   AR   Ar  180   5.238   1.141  -4.775
    1   AR   Ar  181   0.039   5.351   1.612
    1   AR   Ar  182   1.626   6.370   2.841
    1   AR   Ar  183   4.977   5.290   1.878
    1   AR   Ar  184   4.584   6.545   0.604
    1   AR   Ar  185   2.958   4.902   4.623
    1   AR   Ar  186   2.685   5.672   3.179
    1   AR   Ar  187   3.634   6.819   3.246
    1   AR   Ar  188   2.718   6.787   2.017
    1   AR   Ar  189   5.153   3.241   6.117
    1   AR   Ar  190   3.459   5.867   3.955
    1   AR   Ar  191   2.242   6.386   7.361
    1   AR   Ar  192   4.436   5.768   6.069
    1   AR   Ar  193   2.950   6.015   1.194
    1   AR   Ar  194   5.142   3.719  -0.469
    1   AR   Ar  195   5.514   0.955   0.617
    1   AR   Ar  196   3.779   0.978  -0.890
    1   AR   Ar  197   4.091   1.359   1.371
    1   AR   Ar  198   5.280   0.349   2.391
    1   AR   Ar  199   2.546   0.167   2.933
    1   AR   Ar  200   4.842   2.576   0.773
    1   AR   Ar  201   5.461   5.748   3.182
    1   AR   Ar  202   5.347   1.690   4.555
    1   AR   Ar  203   6.955   6.759   3.440
    1   AR   Ar  204   5.698   5.764   6.066
    1   AR   Ar  205   6.714   1.258   1.550
    1   AR   Ar  206   6.018   0.524   5.486
    1   AR   Ar  207   0.578   2.206   5.328
    1   AR   Ar  208   0.499   6.113   4.193
    1   AR   Ar  209   0.192   2.269  -2.307
    1   AR   Ar  210   2.681   6.935   0.852
    1   AR   Ar  211   0.037   3.189   1.022
    1   AR   Ar  212   6.468   3.406  -0.118
    1   AR   Ar  213   2.503   0.824   1.539
    1   AR   Ar  214   4.312   3.990   2.460
    1   AR   Ar  215   6.173   3.270   2.320
    1   AR   Ar  216   0.879   2.621   0.755
    1   AR   Ar  217   4.951   1.745   3.415
    1   AR   Ar  218   4.657   3.543   4.525
    1   AR   Ar  219   3.999   3.361   3.366
    1   AR   Ar  220   4.318   3.359   1.376
    1   AR   Ar  221   6.704   5.492   3.725
    1   AR   Ar  222   5.577   6.767   6.271
    1   AR   Ar  223   6.280   1.951   6.573
    1   AR   Ar  224   4.911   2.561   5.197
    1   AR   Ar  225   5.866   3.116   3.402
    1   AR   Ar  226   1.480   3.427   3.183
    1   AR   Ar  227   7.087   3.923   1.893
    1   AR   Ar  228   5.898   6.740   1.300
    1   AR   Ar  229   5.539   5.533  -1.059
    1   AR   Ar  230   3.539   3.971   4.165
    1   AR   Ar  231   5.011   1.592   2.222
    1   AR   Ar  232   5.396   2.972   1.755
    1   AR   Ar  233   6.597   2.072   3.580
    1   AR   Ar  234   5.300   2.789   4.225
    1   AR   Ar  235   6.619   0.761   4.157
    1   AR   Ar  236   4.986   4.981   5.564
    1   AR   Ar  237   5.279   2.266   6.817
    1   AR   Ar  238   5.462   4.413   6.380
    1   AR   Ar  239   0.405   4.759   9.830
    1   AR   Ar  240   6.774   2.529   7.396
    1   AR   Ar  241   2.041   5.718  -0.744
    1   AR   Ar  242   5.526   6.010   0.716
    1   AR   Ar  243   4.419   5.744   2.893
    1   AR   Ar  244   0.865   5.515   0.656
    1   AR   Ar  245   3.540   0.459   1.898
    1   AR   Ar  246   5.607   6.514  -0.670
    1   AR   Ar  247   6.135   3.676   1.175
    1   AR   Ar  248   4.944   5.380  -0.077
    1   AR   Ar  249   4.564   6.408   1.986
    1   AR   Ar  250   4.696   5.884   4.277
    1   AR   Ar  251   5.152   4.905   3.965
    1   AR   Ar  252   3.476   4.914   2.741
    1   AR   Ar  253   6.156   3.254   6.448
    1   AR   Ar  254   3.491   1.916   9.863
    1   AR   Ar  255   3.600   5.528   9.950
    1   AR   Ar  256   6.046   4.685   3.427
    7.12000  7.12000 12.00000
Argon-slab step 4160
  256
    1   AR   Ar    1   4.427   3.006  -3.333
    1   AR   Ar    2   6.305   6.806   0.298
    1   AR   Ar    3   3.868   2.449  -2.030
    1   AR   Ar    4   1.914   1.349   0.893
    1   AR   Ar    5   6.738   5.961   0.727
    1   AR   Ar    6   0.892   1.961   2.302
    1   AR   Ar    7   5.115   3.884   3.488
    1   AR   Ar    8   4.789   1.717   0.400
    1   AR   Ar    9   0.809   7.102   3.731
    1   AR   Ar   10   0.152   0.036   4.561
    1   AR   Ar   11   1.743   7.058   4.209
    1   AR   Ar   12   0.246   1.193   3.406
    1   AR   Ar   13   0.109   0.664   5.461
    1   AR   Ar   14   4.586   0.859   6.802
    1   AR   Ar   15   3.221   6.946   8.913
    1   AR   Ar   16   0.985   6.851   4.996
    1   AR   Ar   17   5.698   1.848   1.310
    1   AR   Ar   18   6.518   5.410  -0.209
    1   AR   Ar   19   3.921   3.398  -0.247
    1   AR   Ar   20   6.960   4.288  -3.138
    1   AR   Ar   21   2.481   2.149   1.911
    1   AR   Ar   22   6.766   1.530   2.665
    1   AR   Ar   23   0.199   6.808   0.872
    1   AR   Ar   24   4.887   2.946   2.928
    1   AR   Ar   25   0.562   2.322   4.228
    1   AR   Ar   26   6.312   6.677   4.328
    1   AR   Ar   27   1.591   1.033   2.444
    1   AR   Ar   28   1.711   2.788   3.911
    1   AR   Ar   29   5.816   1.221   7.789
    1   AR   Ar   30   1.553   0.938   3.479
    1   AR   Ar   31   3.111   6.991   7.761
    1   AR   Ar   32   0.721   2.651   6.386
    1   AR   Ar   33   0.832   4.007  -0.373
    1   AR   Ar   34   0.621   4.754   2.359
    1   AR   Ar   35   6.206   5.481   1.657
    1   AR   Ar   36   6.088   2.609  -2.610
    1   AR   Ar   37   4.383   2.495   1.966
    1   AR   Ar   38   6.736   3.767   3.503
    1   AR   Ar   39   0.308   3.274   2.954
    1   AR   Ar   40   1.887   4.494   1.616
    1   AR   Ar   41   0.442   2.277   3.180
    1   AR   Ar   42   5.963   5.002   4.879
    1   AR   Ar   43   6.850   2.703   5.912
    1   AR   Ar   44   0.763   4.264   3.338
    1   AR   Ar   45   0.507   3.489   5.449
    1   AR   Ar   46   0.028   4.835   5.213
    1   AR   Ar   47   3.456   4.838   7.127
    1   AR   Ar   48   5.879   3.353   7.534
    1   AR   Ar   49   5.648   0.060  -1.555
    1   AR   Ar   50   3.503   4.548   0.143
    1   AR   Ar   51   5.754   4.144   2.446
    1   AR   Ar   52   5.453   2.571  -1.646
    1   AR   Ar   53   5.606   6.411   2.275
    1   AR   Ar   54   0.597   6.413   2.293
    1   AR   Ar   55   6.682   4.848   2.317
    1   AR   Ar   56   6.787   0.444   2.788
    1   AR   Ar   57   4.225   4.371   3.405
    1   AR   Ar   58   0.550   3.662   4.304
    1   AR   Ar   59   2.387   5.134   5.842
    1   AR   Ar   60   0.628   5.617   3.256
    1   AR   Ar   61   0.148   3.804   6.634
    1   AR   Ar   62   6.756   4.477   4.302
    1   AR   Ar   63   1.101   1.622   6.704
    1   AR   Ar   64   1.061   5.803   5.087
    1   AR   Ar   65   3.801   6.751   1.242
    1   AR   Ar   66   0.852   1.635   1.229
    1   AR   Ar   67   4.491   0.106  -0.851
    1   AR   Ar   68   0.844   0.271  -0.690
    1   AR   Ar   69   2.468   1.043  -0.013
    1   AR   Ar   70   0.561   0.851   2.396
    1   AR   Ar   71   2.583   1.228   2.558
    1   AR   Ar   72   4.670   0.475   1.662
    1   AR   Ar   73   3.215   0.857   3.282
    1   AR   Ar   74   0.807   0.807   4.369
    1   AR   Ar   75   3.384   0.816   4.716
    1   AR   Ar   76   1.461   0.523   1.408
    1   AR   Ar   77   2.624   7.069   5.108
    1   AR   Ar   78   7.021   5.676   5.970
    1   AR   Ar   79   3.700   6.440   6.555
    1   AR   Ar   80   3.834   5.467   5.131
    1   AR   Ar   81   1.939   6.555   0.080
    1   AR   Ar   82   6.986   4.890   0.724
    1   AR   Ar   83   1.404   2.951  -0.461
    1   AR   Ar   84   0.810   4.453   1.413
    1   AR   Ar   85   1.777   3.253   1.065
    1   AR   Ar   86   1.804   5.435   1.116
    1   AR   Ar   87   2.483   3.258   2.153
    1   AR   Ar   88   3.158   4.876   1.571
    1   AR   Ar   89   6.855   2.486   2.107
    1   AR   Ar   90   3.377   1.894   4.543
    1   AR   Ar   91   1.376   1.877   3.258
    1   AR   Ar   92   1.021   3.597   2.208
    1   AR   Ar   93   1.058   1.286   5.623
    1   AR   Ar   94   1.115   6.725  10.258
    1   AR   Ar   95   4.466   1.032   5.591
    1   AR   Ar   96   2.815   6.944   4.132
    1   AR   Ar   97   4.004   2.114  -0.700
    1   AR   Ar   98   1.611   4.181   4.007
    1   AR   Ar   99   0.092   1.866   0.424
    1   AR   Ar  100   0.723   3.101  -1.749
    1   AR   Ar  101   3.382   5.760   2.183
    1   AR   Ar  102   4.043   1.434   2.702
    1   AR   Ar  103   2.234   4.371   0.498
    1   AR   Ar  104   3.212   5.171  -1.236
    1   AR   Ar  105   2.126   1.843   3.909
    1   AR   Ar  106   3.899   2.882   5.862
    1   AR   Ar  107   1.220   4.250   4.940
    1   AR   Ar  108   2.458   1.221   4.825
    1   AR   Ar  109   1.517   3.255   4.807
    1   AR   Ar  110   2.613   2.795   5.188
    1   AR   Ar  111   5.058   6.020   6.926
    1   AR   Ar  112   0.896   6.623   6.141
    1   AR   Ar  113   3.616   3.948  -1.356
    1   AR   Ar  114   1.883   7.067  -1.340
    1   AR   Ar  115   1.721   5.397   0.104
    1   AR   Ar  116   4.872   0.934  -0.381
    1   AR   Ar  117   0.937   5.093   4.040
    1   AR   Ar  118   1.549   5.204   2.913
    1   AR   Ar  119   2.181   4.261   2.698
    1   AR   Ar  120   1.664   6.444   1.870
    1   AR   Ar  121   5.501   3.897   5.337
    1   AR   Ar  122   2.793   6.061   4.873
    1   AR   Ar  123   3.040   3.925   5.461
    1   AR   Ar  124   1.059   5.561   1.909
    1   AR   Ar  125   6.250   2.910   4.878
    1   AR   Ar  126   6.429   6.544   5.575
    1   AR   Ar  127   4.513   4.206   6.165
    1   AR   Ar  128   2.814   3.069   6.122
    1   AR   Ar  129   1.480   6.019   3.878
    1   AR   Ar  130   4.939   1.865  -3.917
    1   AR   Ar  131   4.404   3.731  -2.242
    1   AR   Ar  132   0.910   1.785  -0.333
    1   AR   Ar  133   4.588   7.095   3.708
    1   AR   Ar  134   4.307   1.257   4.571
    1   AR   Ar  135   5.937   1.229   3.520
    1   AR   Ar  136   6.649   6.442   2.329
    1   AR   Ar  137   2.043   4.078   5.844
    1   AR   Ar  138   5.378   1.252   6.263
    1   AR   Ar  139   5.747   2.416   5.809
    1   AR   Ar  140   4.077   0.049   5.004
    1   AR   Ar  141   4.079   4.974   4.188
    1   AR   Ar  142   4.254   0.078   6.111
    1   AR   Ar  143   6.525   6.516   6.606
    1   AR   Ar  144   6.402   1.520   4.970
    1   AR   Ar  145   4.406   5.170  -1.067
    1   AR   Ar  146   3.492   2.538   2.756
    1   AR   Ar  147   4.359   3.216  -1.327
    1   AR   Ar  148   2.940   6.456  -0.897
    1   AR   Ar  149   2.014   1.702  -1.028
    1   AR   Ar  150   2.114   2.396   2.843
    1   AR   Ar  151   2.949   2.576   4.011
    1   AR   Ar  152   1.606   2.211  -1.958
    1   AR   Ar  153   5.268   0.525   4.238
    1   AR   Ar  154   4.364   2.350   4.064
    1   AR   Ar  155   6.432   3.838   5.475
    1   AR   Ar  156   2.763   4.600   3.651
    1   AR   Ar  157   1.444   4.555   6.625
    1   AR   Ar  158   0.110   1.470   6.121
    1   AR   Ar  159   3.541   1.086   6.322
    1   AR   Ar  160   1.509   2.037   4.818
    1   AR   Ar  161   5.042   4.809   2.834
    1   AR   Ar  162   4.010   6.008  -0.292
    1   AR   Ar  163   5.908   4.709   0.689
    1   AR   Ar  164   2.273   5.419   2.093
    1   AR   Ar  165   3.846   2.227   0.848
    1   AR   Ar  166   2.470   3.379   4.241
    1   AR   Ar  167   5.862   6.722   3.303
    1   AR   Ar  168   5.165   3.807  -1.537
    1   AR   Ar  169   3.184   3.831   3.052
    1   AR   Ar  170   1.738   3.082   5.798
    1   AR   Ar  171   5.859   3.745   4.376
    1   AR   Ar  172   4.108   3.930   5.229
    1   AR   Ar  173   1.875   1.794   5.712
    1   AR   Ar  174   1.993   6.116   5.840
    1   AR   Ar  175   3.778   1.886   5.674
    1   AR   Ar  176   3.657   3.066   4.732
    1   AR   Ar  177   0.611   5.265  -0.300
    1   AR   Ar  178   3.071   6.061   0.164
    1   AR   Ar  179   3.167   0.035  -0.201
    1   AR   Ar  180   5.238   1.171  -4.798
    1   AR   Ar  181   0.084   5.322   1.613
    1   AR   Ar  182   1.582   6.391   2.860
    1   AR   Ar  183   4.982   5.288   1.885
    1   AR   Ar  184   4.567   6.561   0.589
    1   AR   Ar  185   2.916   4.891   4.610
    1   AR   Ar  186   2.664   5.611   3.186
    1   AR   Ar  187   3.660   6.823   3.237
    1   AR   Ar  188   2.707   6.773   2.017
    1   AR   Ar  189   5.188   3.240   6.112
    1   AR   Ar  190   3.454   5.842   3.937
    1   AR   Ar  191   2.249   6.370   7.376
    1   AR   Ar  192   4.447   5.748   6.100
    1   AR   Ar  193   2.910   6.033   1.203
    1   AR   Ar  194   5.145   3.710  -0.477
    1   AR   Ar  195   5.527   0.972   0.579
    1   AR   Ar  196   3.786   0.974  -0.911
    1   AR   Ar  197   4.106   1.373   1.343
    1   AR   Ar  198   5.248   0.331   2.433
    1   AR   Ar  199   2.547   0.127   2.951
    1   AR   Ar  200   4.856   2.553   0.770
    1   AR   Ar  201   5.465   5.738   3.171
    1   AR   Ar  202   5.332   1.691   4.590
    1   AR   Ar  203   6.921   6.749   3.440
    1   AR   Ar  204   5.666   5.761   6.098
    1   AR   Ar  205   6.711   1.275   1.534
    1   AR   Ar  206   6.054   0.548   5.484
    1   AR   Ar  207   0.579   2.218   5.301
    1   AR   Ar  208   0.498   6.122   4.173
    1   AR   Ar  209   0.189   2.267  -2.323
    1   AR   Ar  210   2.721   6.948   0.809
    1   AR   Ar  211   0.020   3.223   1.025
    1   AR   Ar  212   6.447   3.435  -0.127
    1   AR   Ar  213   2.538   0.833   1.519
    1   AR   Ar  214   4.340   4.021   2.480
    1   AR   Ar  215   6.190   3.266   2.321
    1   AR   Ar  216   0.894   2.616   0.745
    1   AR   Ar  217   4.967   1.746   3.444
    1   AR   Ar  218   4.663   3.524   4.536
    1   AR   Ar  219   4.006   3.378   3.366
    1   AR   Ar  220   4.302   3.378   1.363
    1   AR   Ar  221   6.696   5.461   3.755
    1   AR   Ar  222   5.572   6.765   6.289
    1   AR   Ar  223   6.268   1.948   6.605
    1   AR   Ar  224   4.903   2.556   5.144
    1   AR   Ar  225   5.876   3.155   3.425
    1   AR   Ar  226   1.471   3.441   3.182
    1   AR   Ar  227   7.106   3.903   1.884
    1   AR   Ar  228   5.902   6.758   1.303
    1   AR   Ar  229   5.584   5.527  -1.028
    1   AR   Ar  230   3.552   3.969   4.178
    1   AR   Ar  231   5.008   1.608   2.197
    1   AR   Ar  232   5.412   2.978   1.747
    1   AR   Ar  233   6.576   2.079   3.576
    1   AR   Ar  234   5.332   2.778   4.229
    1   AR   Ar  235   6.610   0.735   4.150
    1   AR   Ar  236   5.009   4.969   5.560
    1   AR   Ar  237   5.270   2.263   6.786
    1   AR   Ar  238   5.453   4.461   6.417
    1   AR   Ar  239   0.393   4.753   9.857
    1   AR   Ar  240   6.802   2.540   7.379
    1   AR   Ar  241   2.081   5.715  -0.754
    1   AR   Ar  242   5.530   5.994   0.697
    1   AR   Ar  243   4.434   5.759   2.867
    1   AR   Ar  244   0.885   5.504   0.655
    1   AR   Ar  245   3.521   0.444   1.920
    1   AR   Ar  246   5.643   6.556  -0.705
    1   AR   Ar  247   6.108   3.660   1.175
    1   AR   Ar  248   4.914   5.419  -0.095
    1   AR   Ar  249   4.566   6.415   2.006
    1   AR   Ar  250   4.710   5.919   4.260
    1   AR   Ar  251   5.122   4.888   3.971
    1   AR   Ar  252   3.459   4.883   2.730
    1   AR   Ar  253   6.117   3.229   6.455
    1   AR   Ar  254   3.521   1.920   9.892
    1   AR   Ar  255   3.582   5.530   9.953
    1   AR   Ar  256   6.030   4.670   3.417
    7.12000  7.12000 12.00000
Argon-slab step 4165
  256
    1   AR   Ar    1   4.421   3.024  -3.347
    1   AR   Ar    2   6.312   6.781   0.292
    1   AR   Ar    3   3.857   2.445  -2.002
    1   AR   Ar    4   1.944   1.374   0.941
    1   AR   Ar    5   6.754   5.923   0.722
    1   AR   Ar    6   0.883   1.966   2.271
    1   AR   Ar    7   5.109   3.859   3.463
    1   AR   Ar    8   4.832   1.703   0.383
    1   AR   Ar    9   0.803   0.004   3.731
    1   AR   Ar   10   0.167   0.030   4.570
    1   AR   Ar   11   1.767   7.077   4.208
    1   AR   Ar   12   0.292   1.183   3.397
    1   AR   Ar   13   0.141   0.685   5.433
    1   AR   Ar   14   4.574   0.877   6.767
    1   AR   Ar   15   3.213   6.955   8.910
    1   AR   Ar   16   0.960   6.828   4.987
    1   AR   Ar   17   5.660   1.856   1.298
    1   AR   Ar   18   6.540   5.400  -0.243
    1   AR   Ar   19   3.933   3.400  -0.223
    1   AR   Ar   20   6.973   4.296  -3.123
    1   AR   Ar   21   2.483   2.175   1.900
    1   AR   Ar   22   6.724   1.529   2.673
    1   AR   Ar   23   0.223   6.801   0.907
    1   AR   Ar   24   4.919   2.953   2.893
    1   AR   Ar   25   0.568   2.341   4.227
    1   AR   Ar   26   6.316   6.688   4.341
    1   AR   Ar   27   1.610   1.017   2.475
    1   AR   Ar   28   1.730   2.751   3.913
    1   AR   Ar   29   5.817   1.224   7.823
    1   AR   Ar   30   1.569   0.923   3.480
    1   AR   Ar   31   3.133   7.006   7.751
    1   AR   Ar   32   0.712   2.652   6.391
    1   AR   Ar   33   0.840   3.966  -0.373
    1   AR   Ar   34   0.617   4.752   2.387
    1   AR   Ar   35   6.213   5.460   1.642
    1   AR   Ar   36   6.105   2.604  -2.628
    1   AR   Ar   37   4.402   2.526   1.964
    1   AR   Ar   38   6.733   3.751   3.504
    1   AR   Ar   39   0.275   3.235   2.957
    1   AR   Ar   40   1.878   4.481   1.612
    1   AR   Ar   41   0.423   2.242   3.201
    1   AR   Ar   42   5.989   5.007   4.904
    1   AR   Ar   43   6.846   2.710   5.885
    1   AR   Ar   44   0.789   4.234   3.355
    1   AR   Ar   45   0.519   3.485   5.393
    1   AR   Ar   46   0.024   4.842   5.234
    1   AR   Ar   47   3.444   4.865   7.135
    1   AR   Ar   48   5.896   3.357   7.531
    1   AR   Ar   49   5.652   0.059  -1.552
    1   AR   Ar   50   3.477   4.523   0.102
    1   AR   Ar   51   5.768   4.141   2.480
    1   AR   Ar   52   5.440   2.581  -1.648
    1   AR   Ar   53   5.633   6.432   2.256
    1   AR   Ar   54   0.568   6.443   2.291
    1   AR   Ar   55   6.659   4.845   2.328
    1   AR   Ar   56   6.852   0.425   2.803
    1   AR   Ar   57   4.211   4.388   3.419
    1   AR   Ar   58   0.560   3.662   4.322
    1   AR   Ar   59   2.402   5.152   5.842
    1   AR   Ar   60   0.597   5.587   3.255
    1   AR   Ar   61   0.147   3.792   6.587
    1   AR   Ar   62   6.798   4.491   4.267
    1   AR   Ar   63   1.121   1.626   6.712
    1   AR   Ar   64   1.010   5.815   5.050
    1   AR   Ar   65   3.807   6.738   1.277
    1   AR   Ar   66   0.810   1.662   1.239
    1   AR   Ar   67   4.513   0.089  -0.860
    1   AR   Ar   68   0.831   0.242  -0.704
    1   AR   Ar   69   2.433   1.038  -0.000
    1   AR   Ar   70   0.550   0.870   2.414
    1   AR   Ar   71   2.609   1.219   2.544
    1   AR   Ar   72   4.663   0.482   1.671
    1   AR   Ar   73   3.221   0.838   3.253
    1   AR   Ar   74   0.816   0.816   4.357
    1   AR   Ar   75   3.393   0.805   4.719
    1   AR   Ar   76   1.481   0.528   1.399
    1   AR   Ar   77   2.598   7.058   5.115
    1   AR   Ar   78   7.014   5.681   5.984
    1   AR   Ar   79   3.688   6.449   6.548
    1   AR   Ar   80   3.864   5.508   5.150
    1   AR   Ar   81   1.917   6.542   0.096
    1   AR   Ar   82   7.000   4.868   0.722
    1   AR   Ar   83   1.379   2.941  -0.445
    1   AR   Ar   84   0.793   4.465   1.416
    1   AR   Ar   85   1.743   3.257   1.089
    1   AR   Ar   86   1.801   5.452   1.137
    1   AR   Ar   87   2.507   3.258   2.153
    1   AR   Ar   88   3.158   4.893   1.560
    1   AR   Ar   89   6.874   2.478   2.097
    1   AR   Ar   90   3.397   1.870   4.560
    1   AR   Ar   91   1.361   1.897   3.246
    1   AR   Ar   92   1.004   3.597   2.192
    1   AR   Ar   93   1.048   1.281   5.625
    1   AR   Ar   94   1.130   6.742  10.233
    1   AR   Ar   95   4.465   1.037   5.598
    1   AR   Ar   96   2.830   6.948   4.157
    1   AR   Ar   97   4.029   2.094  -0.711
    1   AR   Ar   98   1.613   4.191   4.009
    1   AR   Ar   99   0.069   1.878   0.411
    1   AR   Ar  100   0.733   3.094  -1.741
    1   AR   Ar  101   3.418   5.741   2.171
    1   AR   Ar  102   4.016   1.426   2.691
    1   AR   Ar  103   2.256   4.363   0.508
    1   AR   Ar  104   3.248   5.166  -1.207
    1   AR   Ar  105   2.143   1.838   3.892
    1   AR   Ar  106   3.892   2.900   5.880
    1   AR   Ar  107   1.208   4.246   4.955
    1   AR   Ar  108   2.421   1.198   4.862
    1   AR   Ar  109   1.501   3.251   4.812
    1   AR   Ar  110   2.605   2.785   5.198
    1   AR   Ar  111   5.063   6.041   6.886
    1   AR   Ar  112   0.875   6.639   6.158
    1   AR   Ar  113   3.616   3.967  -1.307
    1   AR   Ar  114   1.894   7.069  -1.371
    1   AR   Ar  115   1.719   5.382   0.090
    1   AR   Ar  116   4.815   0.946  -0.371
    1   AR   Ar  117   0.892   5.096   4.036
    1   AR   Ar  118   1.574   5.204   2.882
    1   AR   Ar  119   2.192   4.266   2.690
    1   AR   Ar  120   1.679   6.415   1.881
    1   AR   Ar  121   5.469   3.899   5.340
    1   AR   Ar  122   2.804   6.079   4.856
    1   AR   Ar  123   3.062   3.883   5.479
    1   AR   Ar  124   1.083   5.534   1.938
    1   AR   Ar  125   6.216   2.894   4.850
    1   AR   Ar  126   6.435   6.544   5.553
    1   AR   Ar  127   4.506   4.226   6.146
    1   AR   Ar  128   2.786   3.036   6.142
    1   AR   Ar  129   1.473   6.004   3.918
    1   AR   Ar  130   4.951   1.846  -3.931
    1   AR   Ar  131   4.430   3.714  -2.238
    1   AR   Ar  132   0.904   1.775  -0.353
    1   AR   Ar  133   4.645   7.114   3.670
    1   AR   Ar  134   4.327   1.263   4.589
    1   AR   Ar  135   5.937   1.254   3.548
    1   AR   Ar  136   6.674   6.482   2.347
    1   AR   Ar  137   2.060   4.070   5.866
    1   AR   Ar  138   5.358   1.280   6.254
    1   AR   Ar  139   5.738   2.398   5.782
    1   AR   Ar  140   4.086   0.041   5.050
    1   AR   Ar  141   4.085   5.000   4.197
    1   AR   Ar  142   4.294   0.037   6.133
    1   AR   Ar  143   6.494   6.540   6.622
    1   AR   Ar  144   6.411   1.553   4.972
    1   AR   Ar  145   4.386   5.177  -1.057
    1   AR   Ar  146   3.509   2.550   2.777
    1   AR   Ar  147   4.354   3.197  -1.336
    1   AR   Ar  148   2.933   6.423  -0.901
    1   AR   Ar  149   2.003   1.710  -1.030
    1   AR   Ar  150   2.073   2.396   2.855
    1   AR   Ar  151   2.946   2.562   4.005
    1   AR   Ar  152   1.636   2.221  -1.946
    1   AR   Ar  153   5.275   0.549   4.234
    1   AR   Ar  154   4.427   2.351   4.071
    1   AR   Ar  155   6.434   3.850   5.500
    1   AR   Ar  156   2.801   4.598   3.696
    1   AR   Ar  157   1.433   4.581   6.649
    1   AR   Ar  158   0.146   1.497   6.120
    1   AR   Ar  159   3.550   1.073   6.312
    1   AR   Ar  160   1.504   2.045   4.811
    1   AR   Ar  161   5.032   4.790   2.827
    1   AR   Ar  162   4.027   6.001  -0.323
    1   AR   Ar  163   5.892   4.715   0.713
    1   AR   Ar  164   2.251   5.413   2.087
    1   AR   Ar  165   3.826   2.231   0.863
    1   AR   Ar  166   2.468   3.402   4.243
    1   AR   Ar  167   5.891   6.721   3.310
    1   AR   Ar  168   5.205   3.795  -1.552
    1   AR   Ar  169   3.194   3.843   3.053
    1   AR   Ar  170   1.790   3.072   5.809
    1   AR   Ar  171   5.846   3.771   4.409
    1   AR   Ar  172   4.130   3.949   5.232
    1   AR   Ar  173   1.856   1.816   5.693
    1   AR   Ar  174   1.965   6.112   5.816
    1   AR   Ar  175   3.773   1.862   5.697
    1   AR   Ar  176   3.661   3.069   4.720
    1   AR   Ar  177   0.606   5.284  -0.297
    1   AR   Ar  178   3.070   6.071   0.150
    1   AR   Ar  179   3.182   0.022  -0.211
    1   AR   Ar  180   5.239   1.200  -4.820
    1   AR   Ar  181   0.139   5.302   1.611
    1   AR   Ar  182   1.538   6.411   2.888
    1   AR   Ar  183   4.989   5.288   1.892
    1   AR   Ar  184   4.554   6.577   0.570
    1   AR   Ar  185   2.903   4.903   4.609
    1   AR   Ar  186   2.642   5.549   3.191
    1   AR   Ar  187   3.682   6.825   3.228
    1   AR   Ar  188   2.698   6.759   2.015
    1   AR   Ar  189   5.209   3.241   6.106
    1   AR   Ar  190   3.448   5.818   3.920
    1   AR   Ar  191   2.256   6.354   7.391
    1   AR   Ar  192   4.458   5.728   6.128
    1   AR   Ar  193   2.869   6.042   1.219
    1   AR   Ar  194   5.148   3.700  -0.483
    1   AR   Ar  195   5.541   0.987   0.542
    1   AR   Ar  196   3.791   0.971  -0.940
    1   AR   Ar  197   4.124   1.382   1.318
    1   AR   Ar  198   5.225   0.311   2.487
    1   AR   Ar  199   2.546   0.086   2.971
    1   AR   Ar  200   4.876   2.565   0.783
    1   AR   Ar  201   5.471   5.727   3.160
    1   AR   Ar  202   5.313   1.692   4.633
    1   AR   Ar  203   6.903   6.740   3.435
    1   AR   Ar  204   5.636   5.752   6.124
    1   AR   Ar  205   6.709   1.292   1.519
    1   AR   Ar  206   6.091   0.573   5.482
    1   AR   Ar  207   0.578   2.232   5.278
    1   AR   Ar  208   0.491   6.133   4.156
    1   AR   Ar  209   0.185   2.265  -2.339
    1   AR   Ar  210   2.759   6.969   0.765
    1   AR   Ar  211   0.003   3.258   1.028
    1   AR   Ar  212   6.425   3.465  -0.134
    1   AR   Ar  213   2.576   0.838   1.503
    1   AR   Ar  214   4.369   4.047   2.492
    1   AR   Ar  215   6.217   3.254   2.329
    1   AR   Ar  216   0.911   2.611   0.732
    1   AR   Ar  217   4.984   1.747   3.470
    1   AR   Ar  218   4.676   3.502   4.536
    1   AR   Ar  219   4.021   3.383   3.371
    1   AR   Ar  220   4.287   3.398   1.350
    1   AR   Ar  221   6.689   5.433   3.786
    1   AR   Ar  222   5.562   6.770   6.306
    1   AR   Ar  223   6.259   1.944   6.638
    1   AR   Ar  224   4.887   2.558   5.104
    1   AR   Ar  225   5.886   3.160   3.442
    1   AR   Ar  226   1.462   3.459   3.176
    1   AR   Ar  227   0.003   3.883   1.877
    1   AR   Ar  228   5.909   6.778   1.309
    1   AR   Ar  229   5.628   5.519  -0.995
    1   AR   Ar  230   3.564   3.970   4.192
    1   AR   Ar  231   5.010   1.627   2.169
    1   AR   Ar  232   5.420   2.981   1.735
    1   AR   Ar  233   6.556   2.089   3.575
    1   AR   Ar  234   5.367   2.765   4.229
    1   AR   Ar  235   6.602   0.709   4.145
    1   AR   Ar  236   5.032   4.958   5.553
    1   AR   Ar  237   5.264   2.260   6.760
    1   AR   Ar  238   5.452   4.509   6.454
    1   AR   Ar  239   0.382   4.747   9.883
    1   AR   Ar  240   6.829   2.552   7.360
    1   AR   Ar  241   2.112   5.716  -0.764
    1   AR   Ar  242   5.534   5.974   0.677
    1   AR   Ar  243   4.447   5.774   2.841
    1   AR   Ar  244   0.893   5.496   0.665
    1   AR   Ar  245   3.502   0.429   1.944
    1   AR   Ar  246   5.678   6.598  -0.734
    1   AR   Ar  247   6.083   3.646   1.177
    1   AR   Ar  248   4.887   5.458  -0.113
    1   AR   Ar  249   4.567   6.423   2.025
    1   AR   Ar  250   4.723   5.953   4.242
    1   AR   Ar  251   5.093   4.871   3.976
    1   AR   Ar  252   3.448   4.877   2.715
    1   AR   Ar  253   6.087   3.206   6.467
    1   AR   Ar  254   3.552   1.924   9.920
    1   AR   Ar  255   3.564   5.532   9.955
    1   AR   Ar  256   6.012   4.652   3.406
    7.12000  7.12000 12.00000
Argon-slab step 4170
  256
    1   AR   Ar    1   4.416   3.043  -3.361
    1   AR   Ar    2   6.319   6.757   0.284
    1   AR   Ar    3   3.847   2.440  -1.973
    1   AR   Ar    4   1.968   1.406   0.984
    1   AR   Ar    5   6.770   5.882   0.720
    1   AR   Ar    6   0.874   1.971   2.241
    1   AR   Ar    7   5.104   3.834   3.438
    1   AR   Ar    8   4.868   1.675   0.359
    1   AR   Ar    9   0.801   0.014   3.730
    1   AR   Ar   10   0.162   0.025   4.573
    1   AR   Ar   11   1.790   7.098   4.208
    1   AR   Ar   12   0.340   1.171   3.394
    1   AR   Ar   13   0.172   0.704   5.402
    1   AR   Ar   14   4.557   0.894   6.735
    1   AR   Ar   15   3.211   6.945   8.886
    1   AR   Ar   16   0.953   6.805   4.985
    1   AR   Ar   17   5.621   1.865   1.284
    1   AR   Ar   18   6.561   5.391  -0.276
    1   AR   Ar   19   3.947   3.402  -0.201
    1   AR   Ar   20   6.985   4.305  -3.107
    1   AR   Ar   21   2.485   2.198   1.887
    1   AR   Ar   22   6.680   1.527   2.678
    1   AR   Ar   23   0.247   6.795   0.942
    1   AR   Ar   24   4.951   2.959   2.856
    1   AR   Ar   25   0.576   2.362   4.225
    1   AR   Ar   26   6.320   6.700   4.355
    1   AR   Ar   27   1.625   1.002   2.497
    1   AR   Ar   28   1.743   2.715   3.914
    1   AR   Ar   29   5.817   1.227   7.856
    1   AR   Ar   30   1.585   0.900   3.492
    1   AR   Ar   31   3.155   7.020   7.740
    1   AR   Ar   32   0.703   2.653   6.395
    1   AR   Ar   33   0.848   3.925  -0.373
    1   AR   Ar   34   0.617   4.741   2.421
    1   AR   Ar   35   6.213   5.445   1.623
    1   AR   Ar   36   6.122   2.599  -2.645
    1   AR   Ar   37   4.406   2.554   1.939
    1   AR   Ar   38   6.732   3.743   3.500
    1   AR   Ar   39   0.247   3.197   2.953
    1   AR   Ar   40   1.870   4.466   1.609
    1   AR   Ar   41   0.395   2.195   3.222
    1   AR   Ar   42   6.024   5.018   4.934
    1   AR   Ar   43   6.843   2.722   5.862
    1   AR   Ar   44   0.808   4.207   3.370
    1   AR   Ar   45   0.531   3.479   5.339
    1   AR   Ar   46   0.021   4.848   5.255
    1   AR   Ar   47   3.432   4.891   7.142
    1   AR   Ar   48   5.913   3.360   7.527
    1   AR   Ar   49   5.655   0.063  -1.556
    1   AR   Ar   50   3.450   4.498   0.060
    1   AR   Ar   51   5.780   4.141   2.512
    1   AR   Ar   52   5.416   2.596  -1.649
    1   AR   Ar   53   5.655   6.449   2.241
    1   AR   Ar   54   0.547   6.472   2.290
    1   AR   Ar   55   6.636   4.841   2.343
    1   AR   Ar   56   6.910   0.406   2.818
    1   AR   Ar   57   4.194   4.411   3.434
    1   AR   Ar   58   0.570   3.662   4.336
    1   AR   Ar   59   2.418   5.167   5.841
    1   AR   Ar   60   0.561   5.565   3.238
    1   AR   Ar   61   0.144   3.778   6.537
    1   AR   Ar   62   6.840   4.503   4.235
    1   AR   Ar   63   1.141   1.632   6.719
    1   AR   Ar   64   0.961   5.819   5.015
    1   AR   Ar   65   3.808   6.724   1.314
    1   AR   Ar   66   0.769   1.685   1.249
    1   AR   Ar   67   4.534   0.067  -0.871
    1   AR   Ar   68   0.819   0.213  -0.718
    1   AR   Ar   69   2.399   1.031   0.012
    1   AR   Ar   70   0.545   0.892   2.427
    1   AR   Ar   71   2.638   1.214   2.525
    1   AR   Ar   72   4.650   0.488   1.673
    1   AR   Ar   73   3.233   0.817   3.232
    1   AR   Ar   74   0.821   0.828   4.378
    1   AR   Ar   75   3.400   0.789   4.722
    1   AR   Ar   76   1.499   0.530   1.393
    1   AR   Ar   77   2.567   7.053   5.133
    1   AR   Ar   78   7.006   5.688   5.999
    1   AR   Ar   79   3.691   6.459   6.555
    1   AR   Ar   80   3.894   5.548   5.168
    1   AR   Ar   81   1.896   6.528   0.112
    1   AR   Ar   82   7.014   4.842   0.715
    1   AR   Ar   83   1.354   2.930  -0.428
    1   AR   Ar   84   0.779   4.476   1.412
    1   AR   Ar   85   1.709   3.263   1.114
    1   AR   Ar   86   1.804   5.469   1.160
    1   AR   Ar   87   2.530   3.259   2.154
    1   AR   Ar   88   3.153   4.918   1.549
    1   AR   Ar   89   6.897   2.466   2.087
    1   AR   Ar   90   3.421   1.842   4.583
    1   AR   Ar   91   1.332   1.908   3.240
    1   AR   Ar   92   1.002   3.605   2.169
    1   AR   Ar   93   1.029   1.268   5.622
    1   AR   Ar   94   1.146   6.760  10.207
    1   AR   Ar   95   4.465   1.039   5.607
    1   AR   Ar   96   2.851   6.952   4.170
    1   AR   Ar   97   4.055   2.074  -0.722
    1   AR   Ar   98   1.621   4.199   4.008
    1   AR   Ar   99   0.047   1.890   0.399
    1   AR   Ar  100   0.743   3.087  -1.732
    1   AR   Ar  101   3.455   5.730   2.159
    1   AR   Ar  102   3.989   1.419   2.679
    1   AR   Ar  103   2.277   4.357   0.519
    1   AR   Ar  104   3.285   5.161  -1.175
    1   AR   Ar  105   2.170   1.824   3.879
    1   AR   Ar  106   3.886   2.921   5.896
    1   AR   Ar  107   1.193   4.248   4.976
    1   AR   Ar  108   2.400   1.186   4.880
    1   AR   Ar  109   1.485   3.244   4.817
    1   AR   Ar  110   2.598   2.772   5.195
    1   AR   Ar  111   5.065   6.065   6.859
    1   AR   Ar  112   0.863   6.654   6.173
    1   AR   Ar  113   3.616   3.989  -1.257
    1   AR   Ar  114   1.904   7.071  -1.400
    1   AR   Ar  115   1.719   5.363   0.078
    1   AR   Ar  116   4.759   0.962  -0.360
    1   AR   Ar  117   0.850   5.089   4.046
    1   AR   Ar  118   1.598   5.203   2.855
    1   AR   Ar  119   2.169   4.257   2.689
    1   AR   Ar  120   1.695   6.386   1.884
    1   AR   Ar  121   5.424   3.901   5.344
    1   AR   Ar  122   2.817   6.092   4.837
    1   AR   Ar  123   3.084   3.840   5.494
    1   AR   Ar  124   1.114   5.511   1.965
    1   AR   Ar  125   6.185   2.876   4.826
    1   AR   Ar  126   6.440   6.546   5.528
    1   AR   Ar  127   4.497   4.244   6.131
    1   AR   Ar  128   2.762   3.005   6.173
    1   AR   Ar  129   1.472   5.989   3.957
    1   AR   Ar  130   4.963   1.828  -3.944
    1   AR   Ar  131   4.453   3.696  -2.240
    1   AR   Ar  132   0.899   1.765  -0.373
    1   AR   Ar  133   4.698   0.009   3.628
    1   AR   Ar  134   4.351   1.264   4.600
    1   AR   Ar  135   5.934   1.276   3.574
    1   AR   Ar  136   6.694   6.522   2.365
    1   AR   Ar  137   2.078   4.065   5.887
    1   AR   Ar  138   5.344   1.312   6.241
    1   AR   Ar  139   5.732   2.376   5.752
    1   AR   Ar  140   4.096   0.034   5.095
    1   AR   Ar  141   4.081   5.011   4.213
    1   AR   Ar  142   4.338   7.120   6.153
    1   AR   Ar  143   6.470   6.561   6.641
    1   AR   Ar  144   6.421   1.587   4.973
    1   AR   Ar  145   4.366   5.184  -1.046
    1   AR   Ar  146   3.525   2.563   2.798
    1   AR   Ar  147   4.349   3.171  -1.339
    1   AR   Ar  148   2.924   6.386  -0.908
    1   AR   Ar  149   1.992   1.717  -1.031
    1   AR   Ar  150   2.046   2.409   2.862
    1   AR   Ar  151   2.944   2.548   3.991
    1   AR   Ar  152   1.663   2.231  -1.934
    1   AR   Ar  153   5.272   0.597   4.240
    1   AR   Ar  154   4.481   2.355   4.082
    1   AR   Ar  155   6.450   3.859   5.527
    1   AR   Ar  156   2.838   4.591   3.726
    1   AR   Ar  157   1.437   4.601   6.635
    1   AR   Ar  158   0.178   1.528   6.123
    1   AR   Ar  159   3.559   1.054   6.304
    1   AR   Ar  160   1.497   2.056   4.789
    1   AR   Ar  161   5.022   4.774   2.824
    1   AR   Ar  162   4.042   5.998  -0.357
    1   AR   Ar  163   5.877   4.722   0.738
    1   AR   Ar  164   2.234   5.409   2.083
    1   AR   Ar  165   3.805   2.242   0.876
    1   AR   Ar  166   2.465   3.439   4.250
    1   AR   Ar  167   5.914   6.721   3.316
    1   AR   Ar  168   5.250   3.783  -1.567
    1   AR   Ar  169   3.197   3.857   3.051
    1   AR   Ar  170   1.822   3.062   5.818
    1   AR   Ar  171   5.862   3.788   4.402
    1   AR   Ar  172   4.128   3.967   5.264
    1   AR   Ar  173   1.856   1.845   5.688
    1   AR   Ar  174   1.935   6.111   5.791
    1   AR   Ar  175   3.769   1.840   5.713
    1   AR   Ar  176   3.664   3.067   4.710
    1   AR   Ar  177   0.598   5.301  -0.299
    1   AR   Ar  178   3.076   6.074   0.139
    1   AR   Ar  179   3.200   0.013  -0.219
    1   AR   Ar  180   5.239   1.231  -4.841
    1   AR   Ar  181   0.194   5.287   1.606
    1   AR   Ar  182   1.493   6.430   2.923
    1   AR   Ar  183   4.996   5.292   1.898
    1   AR   Ar  184   4.545   6.590   0.547
    1   AR   Ar  185   2.911   4.935   4.627
    1   AR   Ar  186   2.619   5.489   3.193
    1   AR   Ar  187   3.703   6.827   3.218
    1   AR   Ar  188   2.690   6.744   2.011
    1   AR   Ar  189   5.206   3.244   6.094
    1   AR   Ar  190   3.441   5.796   3.903
    1   AR   Ar  191   2.263   6.337   7.405
    1   AR   Ar  192   4.465   5.706   6.151
    1   AR   Ar  193   2.893   6.047   1.208
    1   AR   Ar  194   5.149   3.690  -0.488
    1   AR   Ar  195   5.559   0.997   0.507
    1   AR   Ar  196   3.796   0.968  -0.967
    1   AR   Ar  197   4.146   1.386   1.299
    1   AR   Ar  198   5.206   0.289   2.549
    1   AR   Ar  199   2.541   0.043   2.993
    1   AR   Ar  200   4.898   2.598   0.809
    1   AR   Ar  201   5.478   5.714   3.151
    1   AR   Ar  202   5.296   1.692   4.675
    1   AR   Ar  203   6.910   6.733   3.426
    1   AR   Ar  204   5.614   5.735   6.142
    1   AR   Ar  205   6.708   1.310   1.504
    1   AR   Ar  206   6.127   0.597   5.480
    1   AR   Ar  207   0.574   2.248   5.260
    1   AR   Ar  208   0.475   6.149   4.142
    1   AR   Ar  209   0.182   2.264  -2.354
    1   AR   Ar  210   2.796   6.993   0.722
    1   AR   Ar  211   7.105   3.290   1.030
    1   AR   Ar  212   6.404   3.495  -0.140
    1   AR   Ar  213   2.619   0.837   1.492
    1   AR   Ar  214   4.398   4.066   2.495
    1   AR   Ar  215   6.249   3.240   2.341
    1   AR   Ar  216   0.927   2.607   0.719
    1   AR   Ar  217   5.003   1.744   3.493
    1   AR   Ar  218   4.693   3.478   4.528
    1   AR   Ar  219   4.044   3.377   3.381
    1   AR   Ar  220   4.272   3.418   1.336
    1   AR   Ar  221   6.684   5.408   3.816
    1   AR   Ar  222   5.546   6.784   6.318
    1   AR   Ar  223   6.254   1.938   6.669
    1   AR   Ar  224   4.847   2.579   5.105
    1   AR   Ar  225   5.899   3.153   3.453
    1   AR   Ar  226   1.455   3.475   3.168
    1   AR   Ar  227   0.017   3.865   1.875
    1   AR   Ar  228   5.916   6.799   1.314
    1   AR   Ar  229   5.672   5.511  -0.962
    1   AR   Ar  230   3.574   3.973   4.206
    1   AR   Ar  231   5.011   1.644   2.142
    1   AR   Ar  232   5.422   2.982   1.721
    1   AR   Ar  233   6.535   2.104   3.578
    1   AR   Ar  234   5.406   2.749   4.226
    1   AR   Ar  235   6.595   0.683   4.139
    1   AR   Ar  236   5.033   4.974   5.540
    1   AR   Ar  237   5.271   2.253   6.752
    1   AR   Ar  238   5.457   4.558   6.492
    1   AR   Ar  239   0.371   4.741   9.910
    1   AR   Ar  240   6.855   2.565   7.339
    1   AR   Ar  241   2.091   5.715  -0.747
    1   AR   Ar  242   5.539   5.952   0.656
    1   AR   Ar  243   4.457   5.786   2.819
    1   AR   Ar  244   0.890   5.489   0.684
    1   AR   Ar  245   3.484   0.416   1.970
    1   AR   Ar  246   5.712   6.635  -0.754
    1   AR   Ar  247   6.077   3.638   1.181
    1   AR   Ar  248   4.864   5.496  -0.129
    1   AR   Ar  249   4.568   6.434   2.040
    1   AR   Ar  250   4.736   5.987   4.222
    1   AR   Ar  251   5.068   4.854   3.981
    1   AR   Ar  252   3.437   4.866   2.703
    1   AR   Ar  253   6.099   3.184   6.463
    1   AR   Ar  254   3.583   1.928   9.948
    1   AR   Ar  255   3.546   5.535   9.958
    1   AR   Ar  256   5.995   4.633   3.396
    7.12000  7.12000 12.00000
Argon-slab step 4175
  256
    1   AR   Ar    1   4.411   3.061  -3.374
    1   AR   Ar    2   6.324   6.734   0.275
    1   AR   Ar    3   3.837   2.436  -1.944
    1   AR   Ar    4   1.986   1.446   1.024
    1   AR   Ar    5   6.786   5.840   0.719
    1   AR   Ar    6   0.865   1.976   2.215
    1   AR   Ar    7   5.098   3.814   3.417
    1   AR   Ar    8   4.893   1.655   0.336
    1   AR   Ar    9   0.814   7.112   3.746
    1   AR   Ar   10   0.140   0.022   4.569
    1   AR   Ar   11   1.811   7.118   4.209
    1   AR   Ar   12   0.389   1.156   3.399
    1   AR   Ar   13   0.199   0.721   5.369
    1   AR   Ar   14   4.551   0.880   6.714
    1   AR   Ar   15   3.210   6.935   8.862
    1   AR   Ar   16   0.967   6.794   5.007
    1   AR   Ar   17   5.583   1.874   1.269
    1   AR   Ar   18   6.582   5.381  -0.307
    1   AR   Ar   19   3.962   3.405  -0.179
    1   AR   Ar   20   6.998   4.313  -3.091
    1   AR   Ar   21   2.488   2.219   1.872
    1   AR   Ar   22   6.638   1.525   2.682
    1   AR   Ar   23   0.271   6.787   0.979
    1   AR   Ar   24   4.983   2.963   2.818
    1   AR   Ar   25   0.578   2.379   4.212
    1   AR   Ar   26   6.323   6.711   4.371
    1   AR   Ar   27   1.636   0.988   2.509
    1   AR   Ar   28   1.750   2.687   3.914
    1   AR   Ar   29   5.817   1.231   7.888
    1   AR   Ar   30   1.600   0.873   3.513
    1   AR   Ar   31   3.178   7.033   7.730
    1   AR   Ar   32   0.693   2.654   6.396
    1   AR   Ar   33   0.856   3.885  -0.373
    1   AR   Ar   34   0.630   4.713   2.446
    1   AR   Ar   35   6.213   5.452   1.626
    1   AR   Ar   36   6.139   2.594  -2.661
    1   AR   Ar   37   4.410   2.578   1.914
    1   AR   Ar   38   6.728   3.746   3.502
    1   AR   Ar   39   0.224   3.158   2.942
    1   AR   Ar   40   1.862   4.450   1.607
    1   AR   Ar   41   0.356   2.151   3.236
    1   AR   Ar   42   6.060   5.026   4.963
    1   AR   Ar   43   6.842   2.757   5.858
    1   AR   Ar   44   0.817   4.187   3.384
    1   AR   Ar   45   0.539   3.469   5.294
    1   AR   Ar   46   0.018   4.853   5.275
    1   AR   Ar   47   3.420   4.918   7.149
    1   AR   Ar   48   5.931   3.362   7.523
    1   AR   Ar   49   5.657   0.075  -1.572
    1   AR   Ar   50   3.463   4.480   0.031
    1   AR   Ar   51   5.792   4.139   2.540
    1   AR   Ar   52   5.390   2.613  -1.649
    1   AR   Ar   53   5.673   6.461   2.231
    1   AR   Ar   54   0.540   6.499   2.288
    1   AR   Ar   55   6.636   4.847   2.341
    1   AR   Ar   56   6.956   0.387   2.833
    1   AR   Ar   57   4.175   4.433   3.446
    1   AR   Ar   58   0.578   3.662   4.340
    1   AR   Ar   59   2.436   5.179   5.839
    1   AR   Ar   60   0.529   5.547   3.212
    1   AR   Ar   61   0.141   3.762   6.485
    1   AR   Ar   62   6.884   4.508   4.207
    1   AR   Ar   63   1.161   1.638   6.724
    1   AR   Ar   64   0.913   5.809   4.982
    1   AR   Ar   65   3.806   6.710   1.352
    1   AR   Ar   66   0.726   1.705   1.256
    1   AR   Ar   67   4.554   0.041  -0.882
    1   AR   Ar   68   0.808   0.184  -0.732
    1   AR   Ar   69   2.365   1.024   0.025
    1   AR   Ar   70   0.550   0.920   2.429
    1   AR   Ar   71   2.665   1.214   2.502
    1   AR   Ar   72   4.644   0.492   1.669
    1   AR   Ar   73   3.251   0.793   3.217
    1   AR   Ar   74   0.828   0.846   4.402
    1   AR   Ar   75   3.406   0.770   4.725
    1   AR   Ar   76   1.517   0.532   1.390
    1   AR   Ar   77   2.534   7.055   5.159
    1   AR   Ar   78   6.999   5.696   6.013
    1   AR   Ar   79   3.719   6.472   6.582
    1   AR   Ar   80   3.923   5.589   5.185
    1   AR   Ar   81   1.878   6.513   0.128
    1   AR   Ar   82   7.028   4.813   0.705
    1   AR   Ar   83   1.328   2.917  -0.410
    1   AR   Ar   84   0.769   4.483   1.403
    1   AR   Ar   85   1.676   3.271   1.141
    1   AR   Ar   86   1.811   5.489   1.179
    1   AR   Ar   87   2.553   3.261   2.157
    1   AR   Ar   88   3.146   4.942   1.537
    1   AR   Ar   89   6.924   2.451   2.076
    1   AR   Ar   90   3.447   1.815   4.609
    1   AR   Ar   91   1.296   1.905   3.241
    1   AR   Ar   92   1.050   3.641   2.120
    1   AR   Ar   93   1.011   1.251   5.616
    1   AR   Ar   94   1.161   6.777  10.182
    1   AR   Ar   95   4.466   1.038   5.620
    1   AR   Ar   96   2.877   6.955   4.173
    1   AR   Ar   97   4.081   2.055  -0.734
    1   AR   Ar   98   1.633   4.206   4.007
    1   AR   Ar   99   0.025   1.903   0.388
    1   AR   Ar  100   0.753   3.079  -1.723
    1   AR   Ar  101   3.491   5.729   2.144
    1   AR   Ar  102   3.963   1.413   2.665
    1   AR   Ar  103   2.298   4.352   0.531
    1   AR   Ar  104   3.321   5.157  -1.143
    1   AR   Ar  105   2.202   1.797   3.868
    1   AR   Ar  106   3.880   2.945   5.909
    1   AR   Ar  107   1.179   4.255   5.000
    1   AR   Ar  108   2.407   1.189   4.871
    1   AR   Ar  109   1.470   3.235   4.820
    1   AR   Ar  110   2.594   2.756   5.181
    1   AR   Ar  111   5.059   6.095   6.856
    1   AR   Ar  112   0.886   6.660   6.189
    1   AR   Ar  113   3.613   4.020  -1.222
    1   AR   Ar  114   1.915   7.073  -1.428
    1   AR   Ar  115   1.717   5.336   0.077
    1   AR   Ar  116   4.703   0.975  -0.352
    1   AR   Ar  117   0.811   5.073   4.069
    1   AR   Ar  118   1.616   5.199   2.836
    1   AR   Ar  119   2.147   4.248   2.687
    1   AR   Ar  120   1.711   6.359   1.883
    1   AR   Ar  121   5.392   3.895   5.353
    1   AR   Ar  122   2.830   6.098   4.818
    1   AR   Ar  123   3.106   3.795   5.508
    1   AR   Ar  124   1.150   5.491   1.992
    1   AR   Ar  125   6.164   2.857   4.812
    1   AR   Ar  126   6.451   6.559   5.524
    1   AR   Ar  127   4.491   4.263   6.126
    1   AR   Ar  128   2.747   2.975   6.212
    1   AR   Ar  129   1.476   5.974   3.995
    1   AR   Ar  130   4.975   1.811  -3.957
    1   AR   Ar  131   4.473   3.680  -2.247
    1   AR   Ar  132   0.896   1.757  -0.392
    1   AR   Ar  133   4.750   0.019   3.582
    1   AR   Ar  134   4.374   1.261   4.603
    1   AR   Ar  135   5.929   1.293   3.599
    1   AR   Ar  136   6.703   6.562   2.385
    1   AR   Ar  137   2.095   4.064   5.908
    1   AR   Ar  138   5.337   1.345   6.222
    1   AR   Ar  139   5.723   2.357   5.727
    1   AR   Ar  140   4.106   0.027   5.138
    1   AR   Ar  141   4.064   4.997   4.237
    1   AR   Ar  142   4.388   7.088   6.169
    1   AR   Ar  143   6.453   6.579   6.662
    1   AR   Ar  144   6.430   1.621   4.975
    1   AR   Ar  145   4.347   5.190  -1.037
    1   AR   Ar  146   3.542   2.576   2.819
    1   AR   Ar  147   4.345   3.144  -1.336
    1   AR   Ar  148   2.917   6.348  -0.918
    1   AR   Ar  149   1.974   1.718  -1.022
    1   AR   Ar  150   2.060   2.419   2.861
    1   AR   Ar  151   2.943   2.536   3.974
    1   AR   Ar  152   1.690   2.243  -1.922
    1   AR   Ar  153   5.264   0.661   4.253
    1   AR   Ar  154   4.523   2.364   4.099
    1   AR   Ar  155   6.472   3.868   5.554
    1   AR   Ar  156   2.871   4.578   3.742
    1   AR   Ar  157   1.442   4.622   6.620
    1   AR   Ar  158   0.204   1.565   6.128
    1   AR   Ar  159   3.567   1.028   6.300
    1   AR   Ar  160   1.489   2.068   4.755
    1   AR   Ar  161   5.014   4.766   2.829
    1   AR   Ar  162   4.048   6.003  -0.394
    1   AR   Ar  163   5.863   4.731   0.763
    1   AR   Ar  164   2.223   5.405   2.084
    1   AR   Ar  165   3.783   2.260   0.886
    1   AR   Ar  166   2.462   3.482   4.259
    1   AR   Ar  167   5.927   6.723   3.320
    1   AR   Ar  168   5.297   3.771  -1.581
    1   AR   Ar  169   3.197   3.870   3.046
    1   AR   Ar  170   1.793   3.066   5.812
    1   AR   Ar  171   5.878   3.809   4.389
    1   AR   Ar  172   4.111   3.963   5.269
    1   AR   Ar  173   1.865   1.879   5.693
    1   AR   Ar  174   1.902   6.113   5.764
    1   AR   Ar  175   3.765   1.826   5.723
    1   AR   Ar  176   3.668   3.060   4.703
    1   AR   Ar  177   0.590   5.316  -0.302
    1   AR   Ar  178   3.123   6.054   0.137
    1   AR   Ar  179   3.220   0.007  -0.229
    1   AR   Ar  180   5.239   1.261  -4.863
    1   AR   Ar  181   0.240   5.281   1.601
    1   AR   Ar  182   1.447   6.449   2.962
    1   AR   Ar  183   4.997   5.294   1.908
    1   AR   Ar  184   4.537   6.603   0.522
    1   AR   Ar  185   2.916   4.958   4.652
    1   AR   Ar  186   2.596   5.431   3.194
    1   AR   Ar  187   3.721   6.829   3.207
    1   AR   Ar  188   2.686   6.730   2.006
    1   AR   Ar  189   5.184   3.245   6.080
    1   AR   Ar  190   3.433   5.775   3.885
    1   AR   Ar  191   2.271   6.321   7.419
    1   AR   Ar  192   4.466   5.681   6.167
    1   AR   Ar  193   2.868   6.050   1.234
    1   AR   Ar  194   5.149   3.678  -0.492
    1   AR   Ar  195   5.586   0.997   0.474
    1   AR   Ar  196   3.802   0.965  -0.994
    1   AR   Ar  197   4.171   1.385   1.283
    1   AR   Ar  198   5.189   0.266   2.615
    1   AR   Ar  199   2.530   0.008   3.014
    1   AR   Ar  200   4.919   2.638   0.838
    1   AR   Ar  201   5.488   5.700   3.143
    1   AR   Ar  202   5.284   1.693   4.715
    1   AR   Ar  203   6.927   6.718   3.425
    1   AR   Ar  204   5.603   5.709   6.145
    1   AR   Ar  205   6.708   1.331   1.491
    1   AR   Ar  206   6.164   0.622   5.477
    1   AR   Ar  207   0.567   2.264   5.249
    1   AR   Ar  208   0.450   6.167   4.127
    1   AR   Ar  209   0.178   2.264  -2.369
    1   AR   Ar  210   2.765   6.993   0.714
    1   AR   Ar  211   7.090   3.318   1.026
    1   AR   Ar  212   6.382   3.526  -0.145
    1   AR   Ar  213   2.666   0.830   1.484
    1   AR   Ar  214   4.422   4.075   2.490
    1   AR   Ar  215   6.285   3.226   2.356
    1   AR   Ar  216   0.942   2.604   0.703
    1   AR   Ar  217   5.024   1.738   3.510
    1   AR   Ar  218   4.697   3.461   4.512
    1   AR   Ar  219   4.072   3.365   3.393
    1   AR   Ar  220   4.259   3.439   1.321
    1   AR   Ar  221   6.678   5.392   3.842
    1   AR   Ar  222   5.523   6.808   6.323
    1   AR   Ar  223   6.253   1.932   6.697
    1   AR   Ar  224   4.805   2.601   5.111
    1   AR   Ar  225   5.916   3.152   3.439
    1   AR   Ar  226   1.454   3.484   3.157
    1   AR   Ar  227   0.026   3.851   1.878
    1   AR   Ar  228   5.926   6.821   1.314
    1   AR   Ar  229   5.714   5.503  -0.928
    1   AR   Ar  230   3.582   3.927   4.209
    1   AR   Ar  231   5.011   1.661   2.116
    1   AR   Ar  232   5.421   2.980   1.707
    1   AR   Ar  233   6.515   2.125   3.583
    1   AR   Ar  234   5.440   2.730   4.220
    1   AR   Ar  235   6.589   0.657   4.134
    1   AR   Ar  236   5.030   4.997   5.524
    1   AR   Ar  237   5.274   2.250   6.744
    1   AR   Ar  238   5.464   4.606   6.529
    1   AR   Ar  239   0.360   4.736   9.936
    1   AR   Ar  240   6.882   2.580   7.317
    1   AR   Ar  241   2.075   5.721  -0.742
    1   AR   Ar  242   5.547   5.930   0.635
    1   AR   Ar  243   4.463   5.792   2.801
    1   AR   Ar  244   0.877   5.483   0.710
    1   AR   Ar  245   3.468   0.404   1.999
    1   AR   Ar  246   5.747   6.662  -0.761
    1   AR   Ar  247   6.101   3.640   1.188
    1   AR   Ar  248   4.852   5.529  -0.141
    1   AR   Ar  249   4.570   6.450   2.052
    1   AR   Ar  250   4.747   6.020   4.201
    1   AR   Ar  251   5.049   4.835   3.984
    1   AR   Ar  252   3.427   4.851   2.695
    1   AR   Ar  253   6.138   3.163   6.451
    1   AR   Ar  254   3.614   1.932   9.977
    1   AR   Ar  255   3.528   5.537   9.960
    1   AR   Ar  256   5.980   4.616   3.391
    7.12000  7.12000 12.00000
Argon-slab step 4180
  256
    1   AR   Ar    1   4.406   3.079  -3.386
    1   AR   Ar    2   6.329   6.708   0.263
    1   AR   Ar    3   3.827   2.431  -1.916
    1   AR   Ar    4   2.001   1.491   1.061
    1   AR   Ar    5   6.778   5.841   0.719
    1   AR   Ar    6   0.857   1.984   2.197
    1   AR   Ar    7   5.091   3.798   3.398
    1   AR   Ar    8   4.883   1.689   0.284
    1   AR   Ar    9   0.766   0.026   3.744
    1   AR   Ar   10   0.140   0.001   4.529
    1   AR   Ar   11   1.831   0.018   4.210
    1   AR   Ar   12   0.437   1.136   3.413
    1   AR   Ar   13   0.218   0.735   5.334
    1   AR   Ar   14   4.544   0.865   6.697
    1   AR   Ar   15   3.208   6.924   8.838
    1   AR   Ar   16   0.994   6.797   5.043
    1   AR   Ar   17   5.547   1.884   1.251
    1   AR   Ar   18   6.605   5.371  -0.334
    1   AR   Ar   19   3.978   3.409  -0.159
    1   AR   Ar   20   7.010   4.321  -3.075
    1   AR   Ar   21   2.491   2.236   1.857
    1   AR   Ar   22   6.598   1.521   2.685
    1   AR   Ar   23   0.294   6.779   1.016
    1   AR   Ar   24   5.014   2.964   2.778
    1   AR   Ar   25   0.570   2.391   4.183
    1   AR   Ar   26   6.323   6.721   4.386
    1   AR   Ar   27   1.646   0.975   2.513
    1   AR   Ar   28   1.753   2.669   3.913
    1   AR   Ar   29   5.819   1.228   7.901
    1   AR   Ar   30   1.614   0.845   3.543
    1   AR   Ar   31   3.200   7.046   7.718
    1   AR   Ar   32   0.683   2.654   6.396
    1   AR   Ar   33   0.863   3.847  -0.371
    1   AR   Ar   34   0.650   4.672   2.471
    1   AR   Ar   35   6.211   5.467   1.632
    1   AR   Ar   36   6.138   2.621  -2.683
    1   AR   Ar   37   4.414   2.599   1.891
    1   AR   Ar   38   6.719   3.780   3.530
    1   AR   Ar   39   0.200   3.128   2.933
    1   AR   Ar   40   1.853   4.434   1.606
    1   AR   Ar   41   0.318   2.133   3.228
    1   AR   Ar   42   6.095   5.032   4.992
    1   AR   Ar   43   6.847   2.789   5.848
    1   AR   Ar   44   0.810   4.177   3.397
    1   AR   Ar   45   0.543   3.453   5.267
    1   AR   Ar   46   0.024   4.839   5.276
    1   AR   Ar   47   3.408   4.946   7.155
    1   AR   Ar   48   5.950   3.364   7.518
    1   AR   Ar   49   5.656   0.096  -1.599
    1   AR   Ar   50   3.459   4.491   0.039
    1   AR   Ar   51   5.802   4.131   2.559
    1   AR   Ar   52   5.364   2.632  -1.650
    1   AR   Ar   53   5.686   6.469   2.227
    1   AR   Ar   54   0.552   6.525   2.285
    1   AR   Ar   55   6.648   4.843   2.335
    1   AR   Ar   56   6.993   0.372   2.849
    1   AR   Ar   57   4.154   4.451   3.449
    1   AR   Ar   58   0.584   3.665   4.327
    1   AR   Ar   59   2.454   5.189   5.836
    1   AR   Ar   60   0.526   5.528   3.203
    1   AR   Ar   61   0.137   3.744   6.431
    1   AR   Ar   62   6.917   4.496   4.194
    1   AR   Ar   63   1.180   1.645   6.726
    1   AR   Ar   64   0.866   5.786   4.953
    1   AR   Ar   65   3.801   6.696   1.389
    1   AR   Ar   66   0.682   1.720   1.257
    1   AR   Ar   67   4.575   0.013  -0.893
    1   AR   Ar   68   0.795   0.174  -0.744
    1   AR   Ar   69   2.331   1.016   0.037
    1   AR   Ar   70   0.564   0.955   2.418
    1   AR   Ar   71   2.692   1.218   2.475
    1   AR   Ar   72   4.643   0.492   1.663
    1   AR   Ar   73   3.274   0.766   3.207
    1   AR   Ar   74   0.836   0.866   4.427
    1   AR   Ar   75   3.423   0.757   4.729
    1   AR   Ar   76   1.536   0.533   1.388
    1   AR   Ar   77   2.497   7.060   5.188
    1   AR   Ar   78   6.991   5.704   6.026
    1   AR   Ar   79   3.740   6.478   6.614
    1   AR   Ar   80   3.951   5.629   5.201
    1   AR   Ar   81   1.861   6.496   0.144
    1   AR   Ar   82   7.042   4.781   0.693
    1   AR   Ar   83   1.302   2.902  -0.392
    1   AR   Ar   84   0.768   4.480   1.389
    1   AR   Ar   85   1.643   3.281   1.170
    1   AR   Ar   86   1.820   5.508   1.188
    1   AR   Ar   87   2.574   3.266   2.162
    1   AR   Ar   88   3.136   4.964   1.524
    1   AR   Ar   89   6.955   2.434   2.064
    1   AR   Ar   90   3.459   1.805   4.637
    1   AR   Ar   91   1.265   1.892   3.247
    1   AR   Ar   92   1.101   3.679   2.071
    1   AR   Ar   93   1.007   1.241   5.612
    1   AR   Ar   94   1.177   6.794  10.156
    1   AR   Ar   95   4.469   1.033   5.635
    1   AR   Ar   96   2.907   6.960   4.170
    1   AR   Ar   97   4.100   2.040  -0.741
    1   AR   Ar   98   1.650   4.213   4.008
    1   AR   Ar   99   0.003   1.917   0.379
    1   AR   Ar  100   0.764   3.069  -1.714
    1   AR   Ar  101   3.529   5.735   2.130
    1   AR   Ar  102   3.938   1.408   2.650
    1   AR   Ar  103   2.318   4.349   0.544
    1   AR   Ar  104   3.351   5.153  -1.108
    1   AR   Ar  105   2.236   1.759   3.857
    1   AR   Ar  106   3.873   2.944   5.902
    1   AR   Ar  107   1.166   4.267   5.026
    1   AR   Ar  108   2.413   1.193   4.862
    1   AR   Ar  109   1.458   3.223   4.819
    1   AR   Ar  110   2.590   2.739   5.161
    1   AR   Ar  111   5.046   6.128   6.874
    1   AR   Ar  112   0.908   6.666   6.202
    1   AR   Ar  113   3.611   4.054  -1.190
    1   AR   Ar  114   1.927   7.074  -1.454
    1   AR   Ar  115   1.712   5.304   0.087
    1   AR   Ar  116   4.646   0.981  -0.351
    1   AR   Ar  117   0.774   5.054   4.098
    1   AR   Ar  118   1.627   5.192   2.832
    1   AR   Ar  119   2.125   4.240   2.687
    1   AR   Ar  120   1.726   6.336   1.882
    1   AR   Ar  121   5.360   3.896   5.355
    1   AR   Ar  122   2.845   6.099   4.800
    1   AR   Ar  123   3.124   3.747   5.520
    1   AR   Ar  124   1.183   5.475   2.016
    1   AR   Ar  125   6.166   2.844   4.808
    1   AR   Ar  126   6.466   6.582   5.533
    1   AR   Ar  127   4.482   4.276   6.137
    1   AR   Ar  128   2.736   2.947   6.253
    1   AR   Ar  129   1.483   5.960   4.031
    1   AR   Ar  130   4.987   1.795  -3.968
    1   AR   Ar  131   4.492   3.670  -2.254
    1   AR   Ar  132   0.893   1.750  -0.410
    1   AR   Ar  133   4.800   0.027   3.536
    1   AR   Ar  134   4.393   1.257   4.602
    1   AR   Ar  135   5.926   1.303   3.623
    1   AR   Ar  136   6.696   6.601   2.404
    1   AR   Ar  137   2.114   4.066   5.927
    1   AR   Ar  138   5.334   1.378   6.198
    1   AR   Ar  139   5.698   2.360   5.729
    1   AR   Ar  140   4.115   0.020   5.179
    1   AR   Ar  141   4.040   4.990   4.275
    1   AR   Ar  142   4.402   7.084   6.153
    1   AR   Ar  143   6.443   6.595   6.683
    1   AR   Ar  144   6.440   1.655   4.977
    1   AR   Ar  145   4.333   5.194  -1.028
    1   AR   Ar  146   3.558   2.588   2.839
    1   AR   Ar  147   4.345   3.132  -1.347
    1   AR   Ar  148   2.911   6.309  -0.928
    1   AR   Ar  149   1.948   1.707  -0.999
    1   AR   Ar  150   2.066   2.419   2.863
    1   AR   Ar  151   2.944   2.528   3.955
    1   AR   Ar  152   1.712   2.255  -1.915
    1   AR   Ar  153   5.258   0.728   4.267
    1   AR   Ar  154   4.548   2.376   4.119
    1   AR   Ar  155   6.494   3.875   5.580
    1   AR   Ar  156   2.903   4.561   3.748
    1   AR   Ar  157   1.446   4.642   6.605
    1   AR   Ar  158   0.222   1.606   6.136
    1   AR   Ar  159   3.572   0.994   6.299
    1   AR   Ar  160   1.483   2.080   4.717
    1   AR   Ar  161   5.013   4.771   2.842
    1   AR   Ar  162   4.039   6.012  -0.388
    1   AR   Ar  163   5.850   4.741   0.789
    1   AR   Ar  164   2.227   5.402   2.088
    1   AR   Ar  165   3.761   2.282   0.894
    1   AR   Ar  166   2.460   3.526   4.269
    1   AR   Ar  167   5.932   6.726   3.321
    1   AR   Ar  168   5.346   3.759  -1.593
    1   AR   Ar  169   3.195   3.880   3.039
    1   AR   Ar  170   1.756   3.066   5.808
    1   AR   Ar  171   5.895   3.831   4.373
    1   AR   Ar  172   4.093   3.957   5.263
    1   AR   Ar  173   1.879   1.915   5.702
    1   AR   Ar  174   1.869   6.117   5.735
    1   AR   Ar  175   3.761   1.821   5.726
    1   AR   Ar  176   3.672   3.043   4.702
    1   AR   Ar  177   0.581   5.331  -0.306
    1   AR   Ar  178   3.166   6.034   0.137
    1   AR   Ar  179   3.242   0.002  -0.240
    1   AR   Ar  180   5.240   1.290  -4.886
    1   AR   Ar  181   0.271   5.287   1.598
    1   AR   Ar  182   1.401   6.466   3.001
    1   AR   Ar  183   4.972   5.280   1.942
    1   AR   Ar  184   4.530   6.615   0.497
    1   AR   Ar  185   2.900   4.927   4.660
    1   AR   Ar  186   2.573   5.375   3.193
    1   AR   Ar  187   3.739   6.830   3.196
    1   AR   Ar  188   2.689   6.771   2.047
    1   AR   Ar  189   5.153   3.240   6.070
    1   AR   Ar  190   3.424   5.756   3.868
    1   AR   Ar  191   2.280   6.306   7.432
    1   AR   Ar  192   4.461   5.652   6.177
    1   AR   Ar  193   2.842   6.048   1.260
    1   AR   Ar  194   5.143   3.673  -0.495
    1   AR   Ar  195   5.623   0.987   0.445
    1   AR   Ar  196   3.808   0.962  -1.020
    1   AR   Ar  197   4.198   1.382   1.269
    1   AR   Ar  198   5.173   0.243   2.679
    1   AR   Ar  199   2.503   0.006   3.030
    1   AR   Ar  200   4.929   2.655   0.829
    1   AR   Ar  201   5.500   5.687   3.135
    1   AR   Ar  202   5.280   1.698   4.756
    1   AR   Ar  203   6.954   6.694   3.433
    1   AR   Ar  204   5.595   5.681   6.144
    1   AR   Ar  205   6.709   1.353   1.478
    1   AR   Ar  206   6.201   0.646   5.473
    1   AR   Ar  207   0.582   2.249   5.209
    1   AR   Ar  208   0.425   6.186   4.108
    1   AR   Ar  209   0.173   2.265  -2.384
    1   AR   Ar  210   2.715   6.986   0.717
    1   AR   Ar  211   7.077   3.340   1.016
    1   AR   Ar  212   6.359   3.557  -0.148
    1   AR   Ar  213   2.712   0.820   1.476
    1   AR   Ar  214   4.437   4.071   2.478
    1   AR   Ar  215   6.320   3.213   2.372
    1   AR   Ar  216   0.955   2.601   0.685
    1   AR   Ar  217   5.043   1.729   3.522
    1   AR   Ar  218   4.682   3.457   4.489
    1   AR   Ar  219   4.053   3.351   3.378
    1   AR   Ar  220   4.245   3.462   1.305
    1   AR   Ar  221   6.671   5.390   3.863
    1   AR   Ar  222   5.498   6.840   6.320
    1   AR   Ar  223   6.257   1.925   6.723
    1   AR   Ar  224   4.762   2.622   5.123
    1   AR   Ar  225   5.935   3.158   3.393
    1   AR   Ar  226   1.463   3.480   3.144
    1   AR   Ar  227   0.032   3.841   1.891
    1   AR   Ar  228   5.937   6.845   1.309
    1   AR   Ar  229   5.753   5.496  -0.893
    1   AR   Ar  230   3.590   3.888   4.211
    1   AR   Ar  231   5.007   1.676   2.094
    1   AR   Ar  232   5.419   2.978   1.697
    1   AR   Ar  233   6.492   2.153   3.592
    1   AR   Ar  234   5.462   2.707   4.204
    1   AR   Ar  235   6.580   0.634   4.126
    1   AR   Ar  236   5.028   5.018   5.506
    1   AR   Ar  237   5.266   2.249   6.736
    1   AR   Ar  238   5.471   4.655   6.564
    1   AR   Ar  239   0.348   4.730   9.963
    1   AR   Ar  240   6.907   2.596   7.292
    1   AR   Ar  241   2.064   5.731  -0.748
    1   AR   Ar  242   5.556   5.908   0.616
    1   AR   Ar  243   4.461   5.789   2.790
    1   AR   Ar  244   0.859   5.477   0.740
    1   AR   Ar  245   3.455   0.392   2.031
    1   AR   Ar  246   5.783   6.681  -0.753
    1   AR   Ar  247   6.124   3.644   1.197
    1   AR   Ar  248   4.870   5.567  -0.160
    1   AR   Ar  249   4.574   6.471   2.058
    1   AR   Ar  250   4.758   6.051   4.179
    1   AR   Ar  251   5.036   4.816   3.986
    1   AR   Ar  252   3.416   4.833   2.690
    1   AR   Ar  253   6.178   3.144   6.445
    1   AR   Ar  254   3.644   1.936  10.005
    1   AR   Ar  255   3.510   5.540   9.963
    1   AR   Ar  256   5.966   4.602   3.395
    7.12000  7.12000 12.00000
Argon-slab step 4185
  256
    1   AR   Ar    1   4.402   3.098  -3.396
    1   AR   Ar    2   6.332   6.681   0.250
    1   AR   Ar    3   3.816   2.423  -1.889
    1   AR   Ar    4   2.023   1.513   1.060
    1   AR   Ar    5   6.770   5.840   0.720
    1   AR   Ar    6   0.851   1.996   2.192
    1   AR   Ar    7   5.083   3.789   3.384
    1   AR   Ar    8   4.871   1.735   0.241
    1   AR   Ar    9   0.727   0.062   3.733
    1   AR   Ar   10   0.140   7.099   4.498
    1   AR   Ar   11   1.822   0.032   4.205
    1   AR   Ar   12   0.485   1.111   3.435
    1   AR   Ar   13   0.225   0.742   5.297
    1   AR   Ar   14   4.539   0.851   6.684
    1   AR   Ar   15   3.206   6.913   8.814
    1   AR   Ar   16   1.006   6.802   5.043
    1   AR   Ar   17   5.515   1.893   1.228
    1   AR   Ar   18   6.631   5.361  -0.356
    1   AR   Ar   19   3.994   3.413  -0.140
    1   AR   Ar   20   7.022   4.329  -3.059
    1   AR   Ar   21   2.494   2.250   1.841
    1   AR   Ar   22   6.561   1.516   2.689
    1   AR   Ar   23   0.316   6.769   1.054
    1   AR   Ar   24   5.045   2.962   2.736
    1   AR   Ar   25   0.564   2.406   4.153
    1   AR   Ar   26   6.320   6.727   4.400
    1   AR   Ar   27   1.655   0.963   2.514
    1   AR   Ar   28   1.764   2.653   3.917
    1   AR   Ar   29   5.821   1.214   7.886
    1   AR   Ar   30   1.627   0.818   3.576
    1   AR   Ar   31   3.221   7.058   7.705
    1   AR   Ar   32   0.673   2.654   6.394
    1   AR   Ar   33   0.868   3.813  -0.369
    1   AR   Ar   34   0.675   4.625   2.491
    1   AR   Ar   35   6.206   5.486   1.634
    1   AR   Ar   36   6.139   2.648  -2.704
    1   AR   Ar   37   4.416   2.617   1.869
    1   AR   Ar   38   6.714   3.813   3.552
    1   AR   Ar   39   0.153   3.141   2.953
    1   AR   Ar   40   1.844   4.419   1.606
    1   AR   Ar   41   0.271   2.119   3.210
    1   AR   Ar   42   6.100   5.034   4.972
    1   AR   Ar   43   6.863   2.813   5.826
    1   AR   Ar   44   0.792   4.174   3.411
    1   AR   Ar   45   0.539   3.430   5.261
    1   AR   Ar   46   0.048   4.823   5.298
    1   AR   Ar   47   3.396   4.974   7.160
    1   AR   Ar   48   5.969   3.364   7.512
    1   AR   Ar   49   5.653   0.120  -1.632
    1   AR   Ar   50   3.448   4.529   0.063
    1   AR   Ar   51   5.810   4.114   2.566
    1   AR   Ar   52   5.337   2.651  -1.651
    1   AR   Ar   53   5.692   6.472   2.228
    1   AR   Ar   54   0.576   6.548   2.280
    1   AR   Ar   55   6.662   4.835   2.333
    1   AR   Ar   56   7.024   0.364   2.865
    1   AR   Ar   57   4.132   4.464   3.444
    1   AR   Ar   58   0.590   3.670   4.295
    1   AR   Ar   59   2.473   5.197   5.832
    1   AR   Ar   60   0.523   5.511   3.189
    1   AR   Ar   61   0.137   3.728   6.381
    1   AR   Ar   62   6.886   4.498   4.189
    1   AR   Ar   63   1.200   1.653   6.726
    1   AR   Ar   64   0.820   5.754   4.928
    1   AR   Ar   65   3.791   6.682   1.423
    1   AR   Ar   66   0.645   1.730   1.253
    1   AR   Ar   67   4.596   7.105  -0.904
    1   AR   Ar   68   0.779   0.191  -0.751
    1   AR   Ar   69   2.313   1.016   0.033
    1   AR   Ar   70   0.585   0.995   2.397
    1   AR   Ar   71   2.719   1.225   2.446
    1   AR   Ar   72   4.643   0.489   1.658
    1   AR   Ar   73   3.299   0.736   3.203
    1   AR   Ar   74   0.846   0.887   4.453
    1   AR   Ar   75   3.455   0.757   4.735
    1   AR   Ar   76   1.555   0.533   1.387
    1   AR   Ar   77   2.460   7.067   5.217
    1   AR   Ar   78   6.982   5.714   6.039
    1   AR   Ar   79   3.757   6.479   6.649
    1   AR   Ar   80   3.955   5.610   5.207
    1   AR   Ar   81   1.845   6.477   0.160
    1   AR   Ar   82   7.055   4.748   0.680
    1   AR   Ar   83   1.277   2.881  -0.374
    1   AR   Ar   84   0.776   4.466   1.370
    1   AR   Ar   85   1.612   3.293   1.201
    1   AR   Ar   86   1.831   5.528   1.184
    1   AR   Ar   87   2.595   3.273   2.169
    1   AR   Ar   88   3.123   4.984   1.510
    1   AR   Ar   89   6.989   2.413   2.052
    1   AR   Ar   90   3.451   1.818   4.665
    1   AR   Ar   91   1.244   1.872   3.255
    1   AR   Ar   92   1.153   3.716   2.026
    1   AR   Ar   93   1.020   1.252   5.632
    1   AR   Ar   94   1.192   6.811  10.131
    1   AR   Ar   95   4.472   1.014   5.627
    1   AR   Ar   96   2.939   6.967   4.163
    1   AR   Ar   97   4.118   2.026  -0.746
    1   AR   Ar   98   1.669   4.221   4.012
    1   AR   Ar   99   7.103   1.930   0.370
    1   AR   Ar  100   0.747   3.087  -1.725
    1   AR   Ar  101   3.568   5.747   2.116
    1   AR   Ar  102   3.914   1.404   2.632
    1   AR   Ar  103   2.338   4.347   0.558
    1   AR   Ar  104   3.369   5.151  -1.073
    1   AR   Ar  105   2.270   1.713   3.845
    1   AR   Ar  106   3.866   2.906   5.866
    1   AR   Ar  107   1.156   4.284   5.052
    1   AR   Ar  108   2.417   1.198   4.852
    1   AR   Ar  109   1.449   3.210   4.814
    1   AR   Ar  110   2.587   2.722   5.138
    1   AR   Ar  111   5.029   6.163   6.904
    1   AR   Ar  112   0.931   6.671   6.214
    1   AR   Ar  113   3.610   4.088  -1.157
    1   AR   Ar  114   1.938   7.074  -1.478
    1   AR   Ar  115   1.704   5.268   0.106
    1   AR   Ar  116   4.587   0.979  -0.356
    1   AR   Ar  117   0.737   5.032   4.131
    1   AR   Ar  118   1.629   5.177   2.852
    1   AR   Ar  119   2.104   4.232   2.686
    1   AR   Ar  120   1.741   6.319   1.879
    1   AR   Ar  121   5.328   3.904   5.349
    1   AR   Ar  122   2.859   6.096   4.782
    1   AR   Ar  123   3.137   3.698   5.532
    1   AR   Ar  124   1.207   5.461   2.031
    1   AR   Ar  125   6.192   2.843   4.813
    1   AR   Ar  126   6.481   6.606   5.542
    1   AR   Ar  127   4.447   4.260   6.182
    1   AR   Ar  128   2.728   2.918   6.294
    1   AR   Ar  129   1.491   5.947   4.067
    1   AR   Ar  130   4.998   1.780  -3.978
    1   AR   Ar  131   4.516   3.690  -2.254
    1   AR   Ar  132   0.891   1.745  -0.428
    1   AR   Ar  133   4.840   0.027   3.512
    1   AR   Ar  134   4.404   1.251   4.597
    1   AR   Ar  135   5.930   1.305   3.648
    1   AR   Ar  136   6.679   6.637   2.421
    1   AR   Ar  137   2.133   4.070   5.944
    1   AR   Ar  138   5.336   1.408   6.170
    1   AR   Ar  139   5.674   2.362   5.729
    1   AR   Ar  140   4.113   0.016   5.197
    1   AR   Ar  141   4.013   4.986   4.323
    1   AR   Ar  142   4.423   7.082   6.139
    1   AR   Ar  143   6.435   6.608   6.704
    1   AR   Ar  144   6.449   1.690   4.978
    1   AR   Ar  145   4.330   5.192  -1.015
    1   AR   Ar  146   3.572   2.598   2.858
    1   AR   Ar  147   4.350   3.146  -1.380
    1   AR   Ar  148   2.909   6.272  -0.938
    1   AR   Ar  149   1.921   1.695  -0.974
    1   AR   Ar  150   2.028   2.416   2.873
    1   AR   Ar  151   2.946   2.523   3.937
    1   AR   Ar  152   1.720   2.265  -1.923
    1   AR   Ar  153   5.254   0.793   4.281
    1   AR   Ar  154   4.553   2.387   4.142
    1   AR   Ar  155   6.517   3.881   5.605
    1   AR   Ar  156   2.935   4.542   3.748
    1   AR   Ar  157   1.450   4.662   6.588
    1   AR   Ar  158   0.234   1.652   6.147
    1   AR   Ar  159   3.574   0.955   6.299
    1   AR   Ar  160   1.480   2.087   4.680
    1   AR   Ar  161   5.017   4.785   2.865
    1   AR   Ar  162   4.022   6.029  -0.378
    1   AR   Ar  163   5.838   4.753   0.815
    1   AR   Ar  164   2.202   5.403   2.087
    1   AR   Ar  165   3.741   2.308   0.903
    1   AR   Ar  166   2.460   3.569   4.279
    1   AR   Ar  167   5.932   6.730   3.321
    1   AR   Ar  168   5.396   3.746  -1.604
    1   AR   Ar  169   3.193   3.882   3.029
    1   AR   Ar  170   1.721   3.061   5.800
    1   AR   Ar  171   5.911   3.855   4.354
    1   AR   Ar  172   4.078   3.948   5.248
    1   AR   Ar  173   1.894   1.952   5.713
    1   AR   Ar  174   1.834   6.123   5.704
    1   AR   Ar  175   3.758   1.824   5.724
    1   AR   Ar  176   3.677   3.014   4.708
    1   AR   Ar  177   0.573   5.346  -0.309
    1   AR   Ar  178   3.203   6.015   0.142
    1   AR   Ar  179   3.266   7.118  -0.252
    1   AR   Ar  180   5.241   1.319  -4.910
    1   AR   Ar  181   0.287   5.306   1.599
    1   AR   Ar  182   1.355   6.483   3.042
    1   AR   Ar  183   4.948   5.270   1.972
    1   AR   Ar  184   4.523   6.625   0.470
    1   AR   Ar  185   2.886   4.901   4.679
    1   AR   Ar  186   2.554   5.324   3.191
    1   AR   Ar  187   3.756   6.830   3.185
    1   AR   Ar  188   2.694   6.811   2.087
    1   AR   Ar  189   5.117   3.230   6.067
    1   AR   Ar  190   3.413   5.738   3.849
    1   AR   Ar  191   2.290   6.291   7.446
    1   AR   Ar  192   4.465   5.607   6.172
    1   AR   Ar  193   2.815   6.044   1.286
    1   AR   Ar  194   5.129   3.679  -0.499
    1   AR   Ar  195   5.664   0.972   0.417
    1   AR   Ar  196   3.812   0.957  -1.046
    1   AR   Ar  197   4.227   1.380   1.257
    1   AR   Ar  198   5.166   0.225   2.721
    1   AR   Ar  199   2.474   0.006   3.048
    1   AR   Ar  200   4.929   2.656   0.793
    1   AR   Ar  201   5.513   5.674   3.128
    1   AR   Ar  202   5.285   1.709   4.798
    1   AR   Ar  203   6.982   6.663   3.448
    1   AR   Ar  204   5.583   5.659   6.149
    1   AR   Ar  205   6.710   1.376   1.467
    1   AR   Ar  206   6.197   0.669   5.497
    1   AR   Ar  207   0.594   2.235   5.178
    1   AR   Ar  208   0.420   6.201   4.077
    1   AR   Ar  209   0.169   2.266  -2.398
    1   AR   Ar  210   2.665   6.980   0.722
    1   AR   Ar  211   7.072   3.357   0.997
    1   AR   Ar  212   6.336   3.589  -0.150
    1   AR   Ar  213   2.756   0.809   1.464
    1   AR   Ar  214   4.448   4.065   2.464
    1   AR   Ar  215   6.355   3.201   2.387
    1   AR   Ar  216   0.966   2.598   0.666
    1   AR   Ar  217   5.055   1.720   3.529
    1   AR   Ar  218   4.685   3.452   4.487
    1   AR   Ar  219   4.038   3.337   3.365
    1   AR   Ar  220   4.232   3.485   1.288
    1   AR   Ar  221   6.661   5.401   3.880
    1   AR   Ar  222   5.473   6.879   6.310
    1   AR   Ar  223   6.263   1.917   6.746
    1   AR   Ar  224   4.720   2.642   5.140
    1   AR   Ar  225   5.953   3.161   3.345
    1   AR   Ar  226   1.479   3.468   3.128
    1   AR   Ar  227   0.036   3.836   1.911
    1   AR   Ar  228   5.950   6.869   1.299
    1   AR   Ar  229   5.775   5.487  -0.878
    1   AR   Ar  230   3.597   3.859   4.208
    1   AR   Ar  231   4.999   1.690   2.077
    1   AR   Ar  232   5.420   2.976   1.691
    1   AR   Ar  233   6.466   2.188   3.605
    1   AR   Ar  234   5.475   2.682   4.174
    1   AR   Ar  235   6.570   0.614   4.117
    1   AR   Ar  236   5.025   5.037   5.484
    1   AR   Ar  237   5.244   2.248   6.729
    1   AR   Ar  238   5.478   4.704   6.597
    1   AR   Ar  239   0.317   4.734  10.006
    1   AR   Ar  240   6.933   2.614   7.266
    1   AR   Ar  241   2.054   5.744  -0.760
    1   AR   Ar  242   5.567   5.887   0.598
    1   AR   Ar  243   4.434   5.763   2.785
    1   AR   Ar  244   0.839   5.472   0.769
    1   AR   Ar  245   3.449   0.381   2.070
    1   AR   Ar  246   5.818   6.694  -0.738
    1   AR   Ar  247   6.142   3.653   1.207
    1   AR   Ar  248   4.906   5.601  -0.178
    1   AR   Ar  249   4.566   6.470   2.086
    1   AR   Ar  250   4.768   6.082   4.155
    1   AR   Ar  251   5.028   4.796   3.987
    1   AR   Ar  252   3.407   4.818   2.684
    1   AR   Ar  253   6.207   3.131   6.450
    1   AR   Ar  254   3.675   1.940  10.033
    1   AR   Ar  255   3.492   5.543   9.965
    1   AR   Ar  256   5.956   4.596   3.413
    7.12000  7.12000 12.00000
Argon-slab step 4190
  256
    1   AR   Ar    1   4.398   3.116  -3.406
    1   AR   Ar    2   6.335   6.655   0.236
    1   AR   Ar    3   3.803   2.412  -1.864
    1   AR   Ar    4   2.050   1.518   1.033
    1   AR   Ar    5   6.764   5.837   0.722
    1   AR   Ar    6   0.851   2.012   2.196
    1   AR   Ar    7   5.070   3.779   3.359
    1   AR   Ar    8   4.860   1.787   0.204
    1   AR   Ar    9   0.701   0.101   3.709
    1   AR   Ar   10   0.138   7.078   4.484
    1   AR   Ar   11   1.796   0.050   4.190
    1   AR   Ar   12   0.532   1.084   3.461
    1   AR   Ar   13   0.221   0.745   5.258
    1   AR   Ar   14   4.537   0.838   6.675
    1   AR   Ar   15   3.204   6.902   8.789
    1   AR   Ar   16   1.008   6.807   5.019
    1   AR   Ar   17   5.487   1.901   1.200
    1   AR   Ar   18   6.660   5.350  -0.371
    1   AR   Ar   19   4.012   3.418  -0.122
    1   AR   Ar   20   7.035   4.337  -3.042
    1   AR   Ar   21   2.497   2.262   1.825
    1   AR   Ar   22   6.525   1.511   2.692
    1   AR   Ar   23   0.332   6.763   1.087
    1   AR   Ar   24   5.075   2.959   2.693
    1   AR   Ar   25   0.560   2.425   4.123
    1   AR   Ar   26   6.310   6.729   4.414
    1   AR   Ar   27   1.665   0.952   2.512
    1   AR   Ar   28   1.774   2.641   3.920
    1   AR   Ar   29   5.824   1.201   7.869
    1   AR   Ar   30   1.637   0.795   3.607
    1   AR   Ar   31   3.243   7.069   7.692
    1   AR   Ar   32   0.663   2.654   6.391
    1   AR   Ar   33   0.851   3.831  -0.369
    1   AR   Ar   34   0.699   4.580   2.507
    1   AR   Ar   35   6.200   5.508   1.634
    1   AR   Ar   36   6.139   2.674  -2.724
    1   AR   Ar   37   4.417   2.631   1.848
    1   AR   Ar   38   6.708   3.835   3.561
    1   AR   Ar   39   0.109   3.156   2.971
    1   AR   Ar   40   1.837   4.407   1.605
    1   AR   Ar   41   0.221   2.105   3.182
    1   AR   Ar   42   6.097   5.034   4.939
    1   AR   Ar   43   6.891   2.830   5.790
    1   AR   Ar   44   0.768   4.176   3.425
    1   AR   Ar   45   0.529   3.404   5.268
    1   AR   Ar   46   0.073   4.806   5.318
    1   AR   Ar   47   3.385   5.002   7.164
    1   AR   Ar   48   5.981   3.359   7.498
    1   AR   Ar   49   5.649   0.146  -1.667
    1   AR   Ar   50   3.436   4.567   0.085
    1   AR   Ar   51   5.817   4.091   2.562
    1   AR   Ar   52   5.309   2.670  -1.652
    1   AR   Ar   53   5.690   6.471   2.232
    1   AR   Ar   54   0.604   6.571   2.275
    1   AR   Ar   55   6.678   4.825   2.333
    1   AR   Ar   56   7.055   0.365   2.882
    1   AR   Ar   57   4.110   4.473   3.435
    1   AR   Ar   58   0.595   3.676   4.256
    1   AR   Ar   59   2.492   5.205   5.828
    1   AR   Ar   60   0.521   5.496   3.173
    1   AR   Ar   61   0.152   3.732   6.354
    1   AR   Ar   62   6.861   4.503   4.205
    1   AR   Ar   63   1.219   1.662   6.724
    1   AR   Ar   64   0.774   5.719   4.908
    1   AR   Ar   65   3.782   6.681   1.446
    1   AR   Ar   66   0.639   1.733   1.254
    1   AR   Ar   67   4.617   7.075  -0.914
    1   AR   Ar   68   0.764   0.209  -0.759
    1   AR   Ar   69   2.305   1.024   0.017
    1   AR   Ar   70   0.605   1.035   2.371
    1   AR   Ar   71   2.745   1.234   2.418
    1   AR   Ar   72   4.642   0.483   1.656
    1   AR   Ar   73   3.317   0.711   3.209
    1   AR   Ar   74   0.859   0.910   4.478
    1   AR   Ar   75   3.486   0.754   4.742
    1   AR   Ar   76   1.575   0.533   1.388
    1   AR   Ar   77   2.422   7.074   5.245
    1   AR   Ar   78   6.972   5.724   6.051
    1   AR   Ar   79   3.772   6.477   6.686
    1   AR   Ar   80   3.958   5.592   5.212
    1   AR   Ar   81   1.830   6.456   0.176
    1   AR   Ar   82   7.068   4.715   0.667
    1   AR   Ar   83   1.243   2.880  -0.339
    1   AR   Ar   84   0.787   4.447   1.347
    1   AR   Ar   85   1.584   3.305   1.228
    1   AR   Ar   86   1.840   5.546   1.166
    1   AR   Ar   87   2.615   3.283   2.178
    1   AR   Ar   88   3.107   5.003   1.496
    1   AR   Ar   89   7.022   2.391   2.040
    1   AR   Ar   90   3.442   1.836   4.692
    1   AR   Ar   91   1.228   1.847   3.267
    1   AR   Ar   92   1.202   3.753   1.989
    1   AR   Ar   93   1.045   1.267   5.651
    1   AR   Ar   94   1.208   6.828  10.105
    1   AR   Ar   95   4.473   0.973   5.587
    1   AR   Ar   96   2.972   6.977   4.154
    1   AR   Ar   97   4.137   2.013  -0.752
    1   AR   Ar   98   1.688   4.230   4.015
    1   AR   Ar   99   7.084   1.945   0.362
    1   AR   Ar  100   0.729   3.104  -1.737
    1   AR   Ar  101   3.606   5.763   2.102
    1   AR   Ar  102   3.891   1.401   2.612
    1   AR   Ar  103   2.357   4.347   0.573
    1   AR   Ar  104   3.368   5.149  -1.037
    1   AR   Ar  105   2.302   1.664   3.833
    1   AR   Ar  106   3.858   2.869   5.828
    1   AR   Ar  107   1.151   4.303   5.050
    1   AR   Ar  108   2.421   1.204   4.842
    1   AR   Ar  109   1.444   3.196   4.802
    1   AR   Ar  110   2.584   2.705   5.113
    1   AR   Ar  111   5.008   6.196   6.939
    1   AR   Ar  112   0.942   6.672   6.212
    1   AR   Ar  113   3.612   4.121  -1.123
    1   AR   Ar  114   1.949   7.074  -1.501
    1   AR   Ar  115   1.695   5.230   0.127
    1   AR   Ar  116   4.529   0.970  -0.364
    1   AR   Ar  117   0.701   5.008   4.165
    1   AR   Ar  118   1.619   5.155   2.893
    1   AR   Ar  119   2.086   4.223   2.685
    1   AR   Ar  120   1.756   6.312   1.878
    1   AR   Ar  121   5.298   3.918   5.338
    1   AR   Ar  122   2.874   6.090   4.766
    1   AR   Ar  123   3.142   3.645   5.544
    1   AR   Ar  124   1.213   5.448   2.036
    1   AR   Ar  125   6.231   2.845   4.829
    1   AR   Ar  126   6.496   6.630   5.551
    1   AR   Ar  127   4.415   4.246   6.229
    1   AR   Ar  128   2.719   2.890   6.332
    1   AR   Ar  129   1.500   5.934   4.102
    1   AR   Ar  130   5.008   1.766  -3.986
    1   AR   Ar  131   4.540   3.710  -2.258
    1   AR   Ar  132   0.889   1.740  -0.444
    1   AR   Ar  133   4.855   0.011   3.549
    1   AR   Ar  134   4.405   1.247   4.590
    1   AR   Ar  135   5.945   1.300   3.671
    1   AR   Ar  136   6.659   6.669   2.435
    1   AR   Ar  137   2.154   4.073   5.960
    1   AR   Ar  138   5.341   1.432   6.137
    1   AR   Ar  139   5.654   2.364   5.726
    1   AR   Ar  140   4.100   0.013   5.194
    1   AR   Ar  141   3.983   4.982   4.376
    1   AR   Ar  142   4.449   7.081   6.130
    1   AR   Ar  143   6.430   6.620   6.725
    1   AR   Ar  144   6.457   1.726   4.980
    1   AR   Ar  145   4.341   5.183  -0.994
    1   AR   Ar  146   3.581   2.602   2.872
    1   AR   Ar  147   4.358   3.162  -1.405
    1   AR   Ar  148   2.913   6.237  -0.948
    1   AR   Ar  149   1.894   1.683  -0.948
    1   AR   Ar  150   1.995   2.416   2.881
    1   AR   Ar  151   2.950   2.523   3.920
    1   AR   Ar  152   1.725   2.283  -1.919
    1   AR   Ar  153   5.256   0.850   4.293
    1   AR   Ar  154   4.539   2.395   4.163
    1   AR   Ar  155   6.538   3.887   5.628
    1   AR   Ar  156   2.965   4.522   3.744
    1   AR   Ar  157   1.455   4.683   6.571
    1   AR   Ar  158   0.239   1.702   6.159
    1   AR   Ar  159   3.573   0.913   6.299
    1   AR   Ar  160   1.480   2.086   4.648
    1   AR   Ar  161   5.025   4.801   2.897
    1   AR   Ar  162   4.009   6.052  -0.378
    1   AR   Ar  163   5.829   4.765   0.842
    1   AR   Ar  164   2.191   5.403   2.088
    1   AR   Ar  165   3.723   2.334   0.913
    1   AR   Ar  166   2.466   3.603   4.284
    1   AR   Ar  167   5.928   6.734   3.321
    1   AR   Ar  168   5.445   3.733  -1.614
    1   AR   Ar  169   3.189   3.875   3.015
    1   AR   Ar  170   1.710   3.050   5.780
    1   AR   Ar  171   5.926   3.878   4.334
    1   AR   Ar  172   4.068   3.941   5.227
    1   AR   Ar  173   1.909   1.989   5.723
    1   AR   Ar  174   1.798   6.131   5.671
    1   AR   Ar  175   3.755   1.829   5.720
    1   AR   Ar  176   3.682   2.973   4.721
    1   AR   Ar  177   0.576   5.355  -0.315
    1   AR   Ar  178   3.224   5.997   0.156
    1   AR   Ar  179   3.290   7.112  -0.264
    1   AR   Ar  180   5.242   1.347  -4.936
    1   AR   Ar  181   0.287   5.331   1.607
    1   AR   Ar  182   1.310   6.499   3.084
    1   AR   Ar  183   4.925   5.263   1.996
    1   AR   Ar  184   4.516   6.635   0.444
    1   AR   Ar  185   2.873   4.879   4.708
    1   AR   Ar  186   2.543   5.278   3.189
    1   AR   Ar  187   3.772   6.830   3.172
    1   AR   Ar  188   2.696   6.847   2.121
    1   AR   Ar  189   5.078   3.215   6.069
    1   AR   Ar  190   3.401   5.721   3.829
    1   AR   Ar  191   2.301   6.276   7.459
    1   AR   Ar  192   4.474   5.554   6.161
    1   AR   Ar  193   2.789   6.039   1.312
    1   AR   Ar  194   5.115   3.683  -0.503
    1   AR   Ar  195   5.704   0.958   0.390
    1   AR   Ar  196   3.810   0.952  -1.067
    1   AR   Ar  197   4.256   1.381   1.244
    1   AR   Ar  198   5.184   0.222   2.702
    1   AR   Ar  199   2.443   0.007   3.072
    1   AR   Ar  200   4.926   2.661   0.756
    1   AR   Ar  201   5.528   5.664   3.122
    1   AR   Ar  202   5.283   1.706   4.827
    1   AR   Ar  203   6.998   6.633   3.456
    1   AR   Ar  204   5.575   5.641   6.151
    1   AR   Ar  205   6.712   1.398   1.469
    1   AR   Ar  206   6.192   0.692   5.521
    1   AR   Ar  207   0.601   2.221   5.155
    1   AR   Ar  208   0.425   6.203   4.054
    1   AR   Ar  209   0.165   2.269  -2.412
    1   AR   Ar  210   2.617   6.976   0.727
    1   AR   Ar  211   7.076   3.368   0.973
    1   AR   Ar  212   6.313   3.622  -0.151
    1   AR   Ar  213   2.794   0.797   1.446
    1   AR   Ar  214   4.469   4.089   2.463
    1   AR   Ar  215   6.389   3.191   2.398
    1   AR   Ar  216   0.976   2.595   0.646
    1   AR   Ar  217   5.056   1.715   3.532
    1   AR   Ar  218   4.713   3.443   4.520
    1   AR   Ar  219   4.032   3.327   3.357
    1   AR   Ar  220   4.220   3.510   1.270
    1   AR   Ar  221   6.649   5.425   3.892
    1   AR   Ar  222   5.481   6.897   6.317
    1   AR   Ar  223   6.271   1.908   6.766
    1   AR   Ar  224   4.678   2.660   5.163
    1   AR   Ar  225   5.967   3.161   3.298
    1   AR   Ar  226   1.499   3.449   3.112
    1   AR   Ar  227   0.039   3.833   1.937
    1   AR   Ar  228   5.964   6.894   1.285
    1   AR   Ar  229   5.783   5.479  -0.878
    1   AR   Ar  230   3.604   3.840   4.202
    1   AR   Ar  231   4.986   1.701   2.066
    1   AR   Ar  232   5.421   2.966   1.686
    1   AR   Ar  233   6.435   2.229   3.622
    1   AR   Ar  234   5.492   2.658   4.135
    1   AR   Ar  235   6.558   0.599   4.105
    1   AR   Ar  236   5.023   5.052   5.460
    1   AR   Ar  237   5.220   2.254   6.726
    1   AR   Ar  238   5.483   4.749   6.630
    1   AR   Ar  239   0.282   4.740  10.054
    1   AR   Ar  240   6.959   2.634   7.237
    1   AR   Ar  241   2.039   5.757  -0.772
    1   AR   Ar  242   5.582   5.867   0.583
    1   AR   Ar  243   4.405   5.733   2.789
    1   AR   Ar  244   0.816   5.471   0.776
    1   AR   Ar  245   3.453   0.372   2.114
    1   AR   Ar  246   5.853   6.705  -0.719
    1   AR   Ar  247   6.152   3.665   1.220
    1   AR   Ar  248   4.949   5.632  -0.195
    1   AR   Ar  249   4.556   6.532   2.105
    1   AR   Ar  250   4.777   6.111   4.130
    1   AR   Ar  251   5.021   4.775   3.989
    1   AR   Ar  252   3.398   4.808   2.676
    1   AR   Ar  253   6.223   3.122   6.466
    1   AR   Ar  254   3.710   1.963  10.032
    1   AR   Ar  255   3.474   5.545   9.967
    1   AR   Ar  256   5.947   4.592   3.432
    7.12000  7.12000 12.00000
Argon-slab step 4195
  256
    1   AR   Ar    1   4.394   3.134  -3.415
    1   AR   Ar    2   6.366   6.654   0.243
    1   AR   Ar    3   3.789   2.398  -1.840
    1   AR   Ar    4   2.064   1.516   1.015
    1   AR   Ar    5   6.760   5.829   0.727
    1   AR   Ar    6   0.858   2.034   2.211
    1   AR   Ar    7   5.039   3.759   3.284
    1   AR   Ar    8   4.850   1.838   0.168
    1   AR   Ar    9   0.690   0.138   3.674
    1   AR   Ar   10   0.134   7.060   4.487
    1   AR   Ar   11   1.773   0.051   4.187
    1   AR   Ar   12   0.576   1.061   3.486
    1   AR   Ar   13   0.210   0.746   5.223
    1   AR   Ar   14   4.541   0.829   6.671
    1   AR   Ar   15   3.202   6.891   8.765
    1   AR   Ar   16   1.013   6.812   4.995
    1   AR   Ar   17   5.464   1.908   1.168
    1   AR   Ar   18   6.691   5.339  -0.381
    1   AR   Ar   19   4.030   3.423  -0.104
    1   AR   Ar   20   7.047   4.344  -3.026
    1   AR   Ar   21   2.499   2.271   1.809
    1   AR   Ar   22   6.491   1.505   2.695
    1   AR   Ar   23   0.322   6.771   1.093
    1   AR   Ar   24   5.103   2.954   2.650
    1   AR   Ar   25   0.558   2.446   4.092
    1   AR   Ar   26   6.294   6.726   4.427
    1   AR   Ar   27   1.676   0.942   2.510
    1   AR   Ar   28   1.788   2.641   3.911
    1   AR   Ar   29   5.825   1.190   7.859
    1   AR   Ar   30   1.643   0.788   3.627
    1   AR   Ar   31   3.264   7.079   7.676
    1   AR   Ar   32   0.655   2.656   6.387
    1   AR   Ar   33   0.826   3.865  -0.370
    1   AR   Ar   34   0.721   4.538   2.515
    1   AR   Ar   35   6.193   5.532   1.633
    1   AR   Ar   36   6.138   2.680  -2.745
    1   AR   Ar   37   4.416   2.642   1.827
    1   AR   Ar   38   6.702   3.844   3.555
    1   AR   Ar   39   0.074   3.169   2.991
    1   AR   Ar   40   1.840   4.405   1.600
    1   AR   Ar   41   0.172   2.090   3.146
    1   AR   Ar   42   6.095   5.032   4.906
    1   AR   Ar   43   6.924   2.841   5.747
    1   AR   Ar   44   0.743   4.182   3.436
    1   AR   Ar   45   0.516   3.376   5.281
    1   AR   Ar   46   0.098   4.788   5.336
    1   AR   Ar   47   3.373   5.030   7.167
    1   AR   Ar   48   5.964   3.336   7.461
    1   AR   Ar   49   5.644   0.172  -1.701
    1   AR   Ar   50   3.425   4.605   0.106
    1   AR   Ar   51   5.822   4.063   2.551
    1   AR   Ar   52   5.281   2.688  -1.654
    1   AR   Ar   53   5.680   6.465   2.237
    1   AR   Ar   54   0.634   6.592   2.268
    1   AR   Ar   55   6.696   4.813   2.336
    1   AR   Ar   56   7.087   0.376   2.901
    1   AR   Ar   57   4.087   4.481   3.426
    1   AR   Ar   58   0.597   3.677   4.223
    1   AR   Ar   59   2.511   5.211   5.822
    1   AR   Ar   60   0.519   5.481   3.157
    1   AR   Ar   61   0.170   3.733   6.328
    1   AR   Ar   62   6.842   4.517   4.242
    1   AR   Ar   63   1.237   1.672   6.720
    1   AR   Ar   64   0.730   5.685   4.897
    1   AR   Ar   65   3.774   6.698   1.456
    1   AR   Ar   66   0.632   1.733   1.248
    1   AR   Ar   67   4.638   7.046  -0.922
    1   AR   Ar   68   0.749   0.227  -0.767
    1   AR   Ar   69   2.297   1.030   0.001
    1   AR   Ar   70   0.623   1.071   2.344
    1   AR   Ar   71   2.771   1.244   2.392
    1   AR   Ar   72   4.636   0.472   1.654
    1   AR   Ar   73   3.309   0.715   3.250
    1   AR   Ar   74   0.877   0.933   4.499
    1   AR   Ar   75   3.511   0.750   4.748
    1   AR   Ar   76   1.597   0.534   1.390
    1   AR   Ar   77   2.384   7.081   5.270
    1   AR   Ar   78   6.962   5.734   6.061
    1   AR   Ar   79   3.786   6.473   6.725
    1   AR   Ar   80   3.960   5.577   5.218
    1   AR   Ar   81   1.815   6.433   0.192
    1   AR   Ar   82   7.080   4.683   0.654
    1   AR   Ar   83   1.208   2.880  -0.303
    1   AR   Ar   84   0.750   4.442   1.344
    1   AR   Ar   85   1.564   3.310   1.241
    1   AR   Ar   86   1.854   5.578   1.157
    1   AR   Ar   87   2.634   3.294   2.189
    1   AR   Ar   88   3.089   5.020   1.482
    1   AR   Ar   89   7.052   2.369   2.027
    1   AR   Ar   90   3.432   1.857   4.717
    1   AR   Ar   91   1.215   1.820   3.281
    1   AR   Ar   92   1.238   3.787   1.976
    1   AR   Ar   93   1.076   1.284   5.668
    1   AR   Ar   94   1.223   6.845  10.079
    1   AR   Ar   95   4.478   0.945   5.557
    1   AR   Ar   96   3.004   6.988   4.143
    1   AR   Ar   97   4.156   2.000  -0.758
    1   AR   Ar   98   1.703   4.242   4.017
    1   AR   Ar   99   7.066   1.960   0.355
    1   AR   Ar  100   0.712   3.120  -1.748
    1   AR   Ar  101   3.642   5.781   2.087
    1   AR   Ar  102   3.868   1.398   2.594
    1   AR   Ar  103   2.359   4.371   0.587
    1   AR   Ar  104   3.352   5.152  -0.999
    1   AR   Ar  105   2.332   1.614   3.819
    1   AR   Ar  106   3.851   2.837   5.792
    1   AR   Ar  107   1.150   4.321   5.029
    1   AR   Ar  108   2.424   1.211   4.832
    1   AR   Ar  109   1.441   3.183   4.783
    1   AR   Ar  110   2.582   2.688   5.087
    1   AR   Ar  111   4.984   6.227   6.975
    1   AR   Ar  112   0.951   6.673   6.204
    1   AR   Ar  113   3.616   4.150  -1.087
    1   AR   Ar  114   1.961   7.073  -1.523
    1   AR   Ar  115   1.686   5.191   0.149
    1   AR   Ar  116   4.476   0.958  -0.366
    1   AR   Ar  117   0.665   4.981   4.195
    1   AR   Ar  118   1.593   5.127   2.947
    1   AR   Ar  119   2.071   4.216   2.683
    1   AR   Ar  120   1.771   6.316   1.877
    1   AR   Ar  121   5.269   3.935   5.323
    1   AR   Ar  122   2.888   6.082   4.751
    1   AR   Ar  123   3.141   3.590   5.556
    1   AR   Ar  124   1.202   5.435   2.035
    1   AR   Ar  125   6.273   2.848   4.849
    1   AR   Ar  126   6.511   6.655   5.559
    1   AR   Ar  127   4.385   4.233   6.275
    1   AR   Ar  128   2.711   2.862   6.368
    1   AR   Ar  129   1.513   5.920   4.097
    1   AR   Ar  130   5.018   1.753  -3.992
    1   AR   Ar  131   4.564   3.732  -2.265
    1   AR   Ar  132   0.888   1.736  -0.459
    1   AR   Ar  133   4.858   7.106   3.618
    1   AR   Ar  134   4.391   1.250   4.579
    1   AR   Ar  135   5.968   1.295   3.692
    1   AR   Ar  136   6.641   6.695   2.446
    1   AR   Ar  137   2.175   4.076   5.975
    1   AR   Ar  138   5.346   1.449   6.100
    1   AR   Ar  139   5.636   2.367   5.721
    1   AR   Ar  140   4.085   0.008   5.183
    1   AR   Ar  141   3.954   4.974   4.427
    1   AR   Ar  142   4.477   7.077   6.126
    1   AR   Ar  143   6.426   6.630   6.744
    1   AR   Ar  144   6.465   1.761   4.982
    1   AR   Ar  145   4.367   5.173  -0.973
    1   AR   Ar  146   3.585   2.597   2.880
    1   AR   Ar  147   4.367   3.179  -1.422
    1   AR   Ar  148   2.924   6.206  -0.958
    1   AR   Ar  149   1.866   1.671  -0.921
    1   AR   Ar  150   1.967   2.418   2.886
    1   AR   Ar  151   2.955   2.525   3.903
    1   AR   Ar  152   1.724   2.313  -1.897
    1   AR   Ar  153   5.266   0.867   4.309
    1   AR   Ar  154   4.530   2.421   4.153
    1   AR   Ar  155   6.556   3.893   5.646
    1   AR   Ar  156   2.994   4.505   3.744
    1   AR   Ar  157   1.459   4.704   6.553
    1   AR   Ar  158   0.239   1.752   6.172
    1   AR   Ar  159   3.569   0.869   6.296
    1   AR   Ar  160   1.481   2.072   4.628
    1   AR   Ar  161   5.033   4.816   2.936
    1   AR   Ar  162   4.009   6.080  -0.393
    1   AR   Ar  163   5.821   4.778   0.868
    1   AR   Ar  164   2.203   5.396   2.095
    1   AR   Ar  165   3.706   2.361   0.923
    1   AR   Ar  166   2.485   3.608   4.261
    1   AR   Ar  167   5.923   6.739   3.320
    1   AR   Ar  168   5.493   3.722  -1.623
    1   AR   Ar  169   3.184   3.856   2.997
    1   AR   Ar  170   1.714   3.049   5.769
    1   AR   Ar  171   5.938   3.901   4.314
    1   AR   Ar  172   4.064   3.934   5.205
    1   AR   Ar  173   1.917   2.009   5.722
    1   AR   Ar  174   1.762   6.138   5.636
    1   AR   Ar  175   3.730   1.842   5.713
    1   AR   Ar  176   3.687   2.926   4.737
    1   AR   Ar  177   0.612   5.343  -0.333
    1   AR   Ar  178   3.226   5.978   0.182
    1   AR   Ar  179   3.314   7.105  -0.276
    1   AR   Ar  180   5.244   1.374  -4.964
    1   AR   Ar  181   0.274   5.358   1.622
    1   AR   Ar  182   1.266   6.513   3.127
    1   AR   Ar  183   4.904   5.258   2.013
    1   AR   Ar  184   4.510   6.644   0.417
    1   AR   Ar  185   2.861   4.859   4.741
    1   AR   Ar  186   2.542   5.237   3.188
    1   AR   Ar  187   3.789   6.828   3.159
    1   AR   Ar  188   2.694   6.874   2.148
    1   AR   Ar  189   5.037   3.197   6.075
    1   AR   Ar  190   3.388   5.704   3.808
    1   AR   Ar  191   2.313   6.262   7.473
    1   AR   Ar  192   4.479   5.503   6.156
    1   AR   Ar  193   2.764   6.036   1.340
    1   AR   Ar  194   5.099   3.687  -0.507
    1   AR   Ar  195   5.744   0.944   0.363
    1   AR   Ar  196   3.787   0.945  -1.064
    1   AR   Ar  197   4.285   1.385   1.231
    1   AR   Ar  198   5.213   0.227   2.649
    1   AR   Ar  199   2.409   0.011   3.102
    1   AR   Ar  200   4.918   2.673   0.721
    1   AR   Ar  201   5.545   5.658   3.117
    1   AR   Ar  202   5.266   1.682   4.837
    1   AR   Ar  203   6.991   6.614   3.444
    1   AR   Ar  204   5.571   5.632   6.151
    1   AR   Ar  205   6.715   1.421   1.476
    1   AR   Ar  206   6.186   0.704   5.539
    1   AR   Ar  207   0.603   2.209   5.140
    1   AR   Ar  208   0.452   6.182   4.050
    1   AR   Ar  209   0.160   2.272  -2.425
    1   AR   Ar  210   2.570   6.972   0.734
    1   AR   Ar  211   7.089   3.376   0.945
    1   AR   Ar  212   6.289   3.654  -0.150
    1   AR   Ar  213   2.829   0.785   1.423
    1   AR   Ar  214   4.484   4.106   2.459
    1   AR   Ar  215   6.419   3.180   2.395
    1   AR   Ar  216   0.990   2.584   0.624
    1   AR   Ar  217   5.050   1.714   3.534
    1   AR   Ar  218   4.743   3.440   4.545
    1   AR   Ar  219   4.024   3.349   3.370
    1   AR   Ar  220   4.208   3.535   1.251
    1   AR   Ar  221   6.636   5.459   3.900
    1   AR   Ar  222   5.498   6.912   6.326
    1   AR   Ar  223   6.279   1.901   6.784
    1   AR   Ar  224   4.639   2.673   5.193
    1   AR   Ar  225   5.976   3.160   3.260
    1   AR   Ar  226   1.518   3.427   3.096
    1   AR   Ar  227   0.043   3.832   1.965
    1   AR   Ar  228   5.978   6.918   1.269
    1   AR   Ar  229   5.786   5.472  -0.881
    1   AR   Ar  230   3.612   3.826   4.195
    1   AR   Ar  231   4.970   1.712   2.061
    1   AR   Ar  232   5.419   2.946   1.689
    1   AR   Ar  233   6.400   2.272   3.642
    1   AR   Ar  234   5.514   2.636   4.095
    1   AR   Ar  235   6.548   0.586   4.091
    1   AR   Ar  236   5.022   5.060   5.429
    1   AR   Ar  237   5.194   2.267   6.727
    1   AR   Ar  238   5.486   4.789   6.663
    1   AR   Ar  239   0.246   4.746  10.101
    1   AR   Ar  240   6.984   2.655   7.207
    1   AR   Ar  241   2.029   5.765  -0.782
    1   AR   Ar  242   5.575   5.864   0.600
    1   AR   Ar  243   4.376   5.701   2.800
    1   AR   Ar  244   0.791   5.476   0.750
    1   AR   Ar  245   3.469   0.369   2.164
    1   AR   Ar  246   5.885   6.714  -0.702
    1   AR   Ar  247   6.154   3.681   1.236
    1   AR   Ar  248   4.992   5.662  -0.213
    1   AR   Ar  249   4.551   6.596   2.126
    1   AR   Ar  250   4.786   6.139   4.103
    1   AR   Ar  251   5.015   4.755   3.992
    1   AR   Ar  252   3.391   4.804   2.665
    1   AR   Ar  253   6.232   3.115   6.486
    1   AR   Ar  254   3.746   1.990  10.025
    1   AR   Ar  255   3.456   5.548   9.969
    1   AR   Ar  256   5.936   4.581   3.415
    7.12000  7.12000 12.00000
Argon-slab step 4200
  256
    1   AR   Ar    1   4.390   3.152  -3.422
    1   AR   Ar    2   6.380   6.654   0.260
    1   AR   Ar    3   3.774   2.382  -1.815
    1   AR   Ar    4   2.056   1.503   1.010
    1   AR   Ar    5   6.743   5.820   0.728
    1   AR   Ar    6   0.910   2.058   2.230
    1   AR   Ar    7   5.039   3.762   3.318
    1   AR   Ar    8   4.838   1.882   0.128
    1   AR   Ar    9   0.689   0.156   3.640
    1   AR   Ar   10   0.130   7.044   4.498
    1   AR   Ar   11   1.752   0.029   4.200
    1   AR   Ar   12   0.610   1.057   3.507
    1   AR   Ar   13   0.192   0.746   5.194
    1   AR   Ar   14   4.549   0.824   6.670
    1   AR   Ar   15   3.200   6.880   8.741
    1   AR   Ar   16   1.021   6.816   4.971
    1   AR   Ar   17   5.445   1.912   1.134
    1   AR   Ar   18   6.720   5.328  -0.387
    1   AR   Ar   19   4.049   3.428  -0.087
    1   AR   Ar   20   7.059   4.352  -3.009
    1   AR   Ar   21   2.500   2.270   1.805
    1   AR   Ar   22   6.458   1.500   2.698
    1   AR   Ar   23   0.334   6.785   1.100
    1   AR   Ar   24   5.128   2.946   2.613
    1   AR   Ar   25   0.556   2.469   4.060
    1   AR   Ar   26   6.270   6.733   4.426
    1   AR   Ar   27   1.689   0.931   2.509
    1   AR   Ar   28   1.808   2.651   3.891
    1   AR   Ar   29   5.823   1.181   7.876
    1   AR   Ar   30   1.644   0.802   3.629
    1   AR   Ar   31   3.286   7.088   7.659
    1   AR   Ar   32   0.652   2.665   6.383
    1   AR   Ar   33   0.800   3.903  -0.370
    1   AR   Ar   34   0.743   4.504   2.512
    1   AR   Ar   35   6.186   5.556   1.632
    1   AR   Ar   36   6.139   2.667  -2.740
    1   AR   Ar   37   4.412   2.651   1.806
    1   AR   Ar   38   6.696   3.847   3.541
    1   AR   Ar   39   0.053   3.177   3.014
    1   AR   Ar   40   1.858   4.422   1.585
    1   AR   Ar   41   0.127   2.072   3.105
    1   AR   Ar   42   6.092   5.029   4.873
    1   AR   Ar   43   6.951   2.843   5.705
    1   AR   Ar   44   0.722   4.197   3.436
    1   AR   Ar   45   0.508   3.354   5.292
    1   AR   Ar   46   0.124   4.770   5.352
    1   AR   Ar   47   3.362   5.060   7.169
    1   AR   Ar   48   5.947   3.312   7.427
    1   AR   Ar   49   5.638   0.198  -1.734
    1   AR   Ar   50   3.413   4.644   0.125
    1   AR   Ar   51   5.825   4.032   2.535
    1   AR   Ar   52   5.253   2.702  -1.657
    1   AR   Ar   53   5.662   6.455   2.241
    1   AR   Ar   54   0.663   6.613   2.259
    1   AR   Ar   55   6.714   4.799   2.339
    1   AR   Ar   56   0.000   0.394   2.919
    1   AR   Ar   57   4.064   4.488   3.417
    1   AR   Ar   58   0.595   3.666   4.208
    1   AR   Ar   59   2.529   5.218   5.815
    1   AR   Ar   60   0.517   5.466   3.140
    1   AR   Ar   61   0.171   3.713   6.332
    1   AR   Ar   62   6.825   4.534   4.293
    1   AR   Ar   63   1.255   1.683   6.714
    1   AR   Ar   64   0.688   5.655   4.899
    1   AR   Ar   65   3.762   6.717   1.461
    1   AR   Ar   66   0.595   1.736   1.258
    1   AR   Ar   67   4.659   7.017  -0.930
    1   AR   Ar   68   0.728   0.231  -0.785
    1   AR   Ar   69   2.290   1.037  -0.014
    1   AR   Ar   70   0.637   1.101   2.318
    1   AR   Ar   71   2.796   1.255   2.368
    1   AR   Ar   72   4.603   0.454   1.642
    1   AR   Ar   73   3.300   0.717   3.292
    1   AR   Ar   74   0.902   0.957   4.516
    1   AR   Ar   75   3.529   0.746   4.754
    1   AR   Ar   76   1.620   0.534   1.393
    1   AR   Ar   77   2.346   7.088   5.293
    1   AR   Ar   78   6.955   5.736   6.071
    1   AR   Ar   79   3.801   6.469   6.764
    1   AR   Ar   80   3.960   5.568   5.231
    1   AR   Ar   81   1.800   6.406   0.207
    1   AR   Ar   82   7.089   4.652   0.640
    1   AR   Ar   83   1.176   2.881  -0.276
    1   AR   Ar   84   0.732   4.458   1.339
    1   AR   Ar   85   1.554   3.301   1.233
    1   AR   Ar   86   1.868   5.617   1.152
    1   AR   Ar   87   2.651   3.307   2.202
    1   AR   Ar   88   3.070   5.035   1.468
    1   AR   Ar   89   7.075   2.349   2.013
    1   AR   Ar   90   3.443   1.885   4.744
    1   AR   Ar   91   1.206   1.795   3.296
    1   AR   Ar   92   1.252   3.814   1.999
    1   AR   Ar   93   1.109   1.300   5.682
    1   AR   Ar   94   1.238   6.862  10.054
    1   AR   Ar   95   4.497   0.962   5.558
    1   AR   Ar   96   3.037   7.001   4.131
    1   AR   Ar   97   4.176   1.987  -0.764
    1   AR   Ar   98   1.714   4.256   4.018
    1   AR   Ar   99   7.056   1.956   0.361
    1   AR   Ar  100   0.695   3.135  -1.759
    1   AR   Ar  101   3.674   5.800   2.068
    1   AR   Ar  102   3.843   1.389   2.595
    1   AR   Ar  103   2.350   4.413   0.601
    1   AR   Ar  104   3.327   5.159  -0.959
    1   AR   Ar  105   2.362   1.566   3.805
    1   AR   Ar  106   3.839   2.813   5.763
    1   AR   Ar  107   1.148   4.338   5.007
    1   AR   Ar  108   2.428   1.218   4.822
    1   AR   Ar  109   1.439   3.171   4.758
    1   AR   Ar  110   2.579   2.672   5.060
    1   AR   Ar  111   4.959   6.258   7.010
    1   AR   Ar  112   0.959   6.673   6.194
    1   AR   Ar  113   3.623   4.175  -1.051
    1   AR   Ar  114   1.973   7.072  -1.544
    1   AR   Ar  115   1.676   5.153   0.171
    1   AR   Ar  116   4.433   0.946  -0.360
    1   AR   Ar  117   0.633   4.949   4.219
    1   AR   Ar  118   1.554   5.099   3.004
    1   AR   Ar  119   2.072   4.203   2.692
    1   AR   Ar  120   1.784   6.330   1.879
    1   AR   Ar  121   5.241   3.954   5.308
    1   AR   Ar  122   2.902   6.072   4.737
    1   AR   Ar  123   3.134   3.536   5.567
    1   AR   Ar  124   1.184   5.421   2.033
    1   AR   Ar  125   6.316   2.853   4.870
    1   AR   Ar  126   6.525   6.682   5.568
    1   AR   Ar  127   4.357   4.219   6.319
    1   AR   Ar  128   2.702   2.835   6.400
    1   AR   Ar  129   1.528   5.905   4.082
    1   AR   Ar  130   5.028   1.742  -3.996
    1   AR   Ar  131   4.589   3.756  -2.278
    1   AR   Ar  132   0.885   1.734  -0.472
    1   AR   Ar  133   4.860   7.083   3.690
    1   AR   Ar  134   4.367   1.259   4.564
    1   AR   Ar  135   5.995   1.294   3.706
    1   AR   Ar  136   6.627   6.718   2.453
    1   AR   Ar  137   2.167   4.073   5.983
    1   AR   Ar  138   5.351   1.458   6.061
    1   AR   Ar  139   5.623   2.374   5.711
    1   AR   Ar  140   4.070   7.120   5.167
    1   AR   Ar  141   3.924   4.957   4.469
    1   AR   Ar  142   4.465   7.064   6.128
    1   AR   Ar  143   6.424   6.638   6.763
    1   AR   Ar  144   6.473   1.796   4.984
    1   AR   Ar  145   4.399   5.162  -0.952
    1   AR   Ar  146   3.584   2.585   2.883
    1   AR   Ar  147   4.375   3.198  -1.432
    1   AR   Ar  148   2.943   6.179  -0.967
    1   AR   Ar  149   1.840   1.660  -0.895
    1   AR   Ar  150   1.944   2.421   2.886
    1   AR   Ar  151   2.959   2.530   3.888
    1   AR   Ar  152   1.723   2.343  -1.874
    1   AR   Ar  153   5.283   0.848   4.323
    1   AR   Ar  154   4.517   2.450   4.137
    1   AR   Ar  155   6.568   3.899   5.658
    1   AR   Ar  156   3.021   4.493   3.747
    1   AR   Ar  157   1.464   4.725   6.533
    1   AR   Ar  158   0.234   1.798   6.182
    1   AR   Ar  159   3.562   0.825   6.291
    1   AR   Ar  160   1.483   2.045   4.618
    1   AR   Ar  161   5.039   4.827   2.977
    1   AR   Ar  162   4.018   6.109  -0.417
    1   AR   Ar  163   5.815   4.790   0.895
    1   AR   Ar  164   2.232   5.388   2.113
    1   AR   Ar  165   3.693   2.389   0.934
    1   AR   Ar  166   2.507   3.608   4.240
    1   AR   Ar  167   5.917   6.745   3.320
    1   AR   Ar  168   5.541   3.713  -1.631
    1   AR   Ar  169   3.176   3.828   2.975
    1   AR   Ar  170   1.718   3.050   5.762
    1   AR   Ar  171   5.947   3.922   4.296
    1   AR   Ar  172   4.064   3.930   5.183
    1   AR   Ar  173   1.921   2.014   5.714
    1   AR   Ar  174   1.726   6.146   5.600
    1   AR   Ar  175   3.700   1.850   5.708
    1   AR   Ar  176   3.690   2.878   4.752
    1   AR   Ar  177   0.653   5.331  -0.350
    1   AR   Ar  178   3.215   5.958   0.217
    1   AR   Ar  179   3.339   7.097  -0.287
    1   AR   Ar  180   5.246   1.400  -4.993
    1   AR   Ar  181   0.250   5.385   1.640
    1   AR   Ar  182   1.224   6.526   3.173
    1   AR   Ar  183   4.884   5.255   2.024
    1   AR   Ar  184   4.503   6.652   0.391
    1   AR   Ar  185   2.849   4.839   4.775
    1   AR   Ar  186   2.548   5.201   3.188
    1   AR   Ar  187   3.806   6.826   3.145
    1   AR   Ar  188   2.685   6.894   2.169
    1   AR   Ar  189   4.995   3.181   6.083
    1   AR   Ar  190   3.375   5.686   3.786
    1   AR   Ar  191   2.327   6.248   7.486
    1   AR   Ar  192   4.481   5.455   6.159
    1   AR   Ar  193   2.743   6.038   1.368
    1   AR   Ar  194   5.084   3.690  -0.513
    1   AR   Ar  195   5.782   0.931   0.338
    1   AR   Ar  196   3.778   0.942  -1.068
    1   AR   Ar  197   4.314   1.392   1.216
    1   AR   Ar  198   5.244   0.234   2.593
    1   AR   Ar  199   2.374   0.017   3.138
    1   AR   Ar  200   4.909   2.681   0.698
    1   AR   Ar  201   5.567   5.661   3.114
    1   AR   Ar  202   5.257   1.677   4.858
    1   AR   Ar  203   6.969   6.601   3.421
    1   AR   Ar  204   5.570   5.635   6.147
    1   AR   Ar  205   6.717   1.444   1.485
    1   AR   Ar  206   6.178   0.709   5.554
    1   AR   Ar  207   0.600   2.197   5.131
    1   AR   Ar  208   0.495   6.148   4.055
    1   AR   Ar  209   0.150   2.276  -2.424
    1   AR   Ar  210   2.525   6.969   0.743
    1   AR   Ar  211   7.108   3.382   0.915
    1   AR   Ar  212   6.265   3.688  -0.148
    1   AR   Ar  213   2.861   0.772   1.398
    1   AR   Ar  214   4.495   4.118   2.449
    1   AR   Ar  215   6.444   3.169   2.371
    1   AR   Ar  216   1.005   2.566   0.610
    1   AR   Ar  217   5.039   1.714   3.536
    1   AR   Ar  218   4.773   3.442   4.560
    1   AR   Ar  219   4.022   3.380   3.391
    1   AR   Ar  220   4.197   3.560   1.231
    1   AR   Ar  221   6.622   5.499   3.906
    1   AR   Ar  222   5.517   6.929   6.332
    1   AR   Ar  223   6.286   1.894   6.792
    1   AR   Ar  224   4.609   2.677   5.224
    1   AR   Ar  225   5.976   3.160   3.232
    1   AR   Ar  226   1.534   3.403   3.083
    1   AR   Ar  227   0.048   3.832   1.994
    1   AR   Ar  228   5.993   6.941   1.253
    1   AR   Ar  229   5.787   5.466  -0.887
    1   AR   Ar  230   3.622   3.813   4.193
    1   AR   Ar  231   4.951   1.721   2.061
    1   AR   Ar  232   5.441   2.931   1.700
    1   AR   Ar  233   6.367   2.315   3.664
    1   AR   Ar  234   5.538   2.616   4.056
    1   AR   Ar  235   6.538   0.570   4.067
    1   AR   Ar  236   5.024   5.063   5.390
    1   AR   Ar  237   5.169   2.283   6.730
    1   AR   Ar  238   5.486   4.819   6.701
    1   AR   Ar  239   0.210   4.752  10.149
    1   AR   Ar  240   7.009   2.676   7.174
    1   AR   Ar  241   2.027   5.768  -0.788
    1   AR   Ar  242   5.555   5.875   0.642
    1   AR   Ar  243   4.349   5.671   2.819
    1   AR   Ar  244   0.769   5.481   0.722
    1   AR   Ar  245   3.496   0.372   2.217
    1   AR   Ar  246   5.915   6.722  -0.686
    1   AR   Ar  247   6.152   3.699   1.255
    1   AR   Ar  248   5.031   5.692  -0.233
    1   AR   Ar  249   4.549   6.659   2.152
    1   AR   Ar  250   4.794   6.164   4.076
    1   AR   Ar  251   5.009   4.733   3.999
    1   AR   Ar  252   3.386   4.807   2.651
    1   AR   Ar  253   6.239   3.106   6.503
    1   AR   Ar  254   3.781   2.017  10.017
    1   AR   Ar  255   3.437   5.551   9.971
    1   AR   Ar  256   5.928   4.575   3.405
    7.12000  7.12000 12.00000
Argon-slab step 4205
  256
    1   AR   Ar    1   4.387   3.171  -3.429
    1   AR   Ar    2   6.383   6.658   0.283
    1   AR   Ar    3   3.787   2.356  -1.815
    1   AR   Ar    4   2.049   1.489   1.006
    1   AR   Ar    5   6.698   5.825   0.718
    1   AR   Ar    6   0.979   2.088   2.253
    1   AR   Ar    7   5.036   3.769   3.361
    1   AR   Ar    8   4.826   1.916   0.083
    1   AR   Ar    9   0.697   0.138   3.617
    1   AR   Ar   10   0.126   7.029   4.511
    1   AR   Ar   11   1.734   7.113   4.223
    1   AR   Ar   12   0.629   1.082   3.523
    1   AR   Ar   13   0.167   0.746   5.172
    1   AR   Ar   14   4.562   0.823   6.672
    1   AR   Ar   15   3.198   6.868   8.718
    1   AR   Ar   16   1.033   6.818   4.949
    1   AR   Ar   17   5.428   1.912   1.100
    1   AR   Ar   18   6.749   5.317  -0.389
    1   AR   Ar   19   4.069   3.434  -0.070
    1   AR   Ar   20   7.071   4.359  -2.993
    1   AR   Ar   21   2.500   2.262   1.810
    1   AR   Ar   22   6.424   1.493   2.700
    1   AR   Ar   23   0.354   6.791   1.106
    1   AR   Ar   24   5.146   2.937   2.590
    1   AR   Ar   25   0.557   2.493   4.027
    1   AR   Ar   26   6.240   6.740   4.421
    1   AR   Ar   27   1.702   0.928   2.509
    1   AR   Ar   28   1.830   2.667   3.867
    1   AR   Ar   29   5.821   1.173   7.892
    1   AR   Ar   30   1.643   0.828   3.620
    1   AR   Ar   31   3.307   7.097   7.640
    1   AR   Ar   32   0.656   2.684   6.380
    1   AR   Ar   33   0.773   3.942  -0.370
    1   AR   Ar   34   0.759   4.483   2.500
    1   AR   Ar   35   6.177   5.581   1.633
    1   AR   Ar   36   6.122   2.699  -2.732
    1   AR   Ar   37   4.405   2.658   1.785
    1   AR   Ar   38   6.702   3.886   3.553
    1   AR   Ar   39   0.051   3.177   3.040
    1   AR   Ar   40   1.889   4.455   1.563
    1   AR   Ar   41   0.087   2.054   3.064
    1   AR   Ar   42   6.087   5.026   4.841
    1   AR   Ar   43   6.959   2.839   5.679
    1   AR   Ar   44   0.703   4.220   3.430
    1   AR   Ar   45   0.517   3.346   5.293
    1   AR   Ar   46   0.149   4.752   5.367
    1   AR   Ar   47   3.352   5.089   7.170
    1   AR   Ar   48   5.926   3.290   7.403
    1   AR   Ar   49   5.632   0.222  -1.765
    1   AR   Ar   50   3.401   4.684   0.144
    1   AR   Ar   51   5.826   4.000   2.515
    1   AR   Ar   52   5.248   2.702  -1.663
    1   AR   Ar   53   5.640   6.439   2.242
    1   AR   Ar   54   0.690   6.633   2.250
    1   AR   Ar   55   6.732   4.785   2.343
    1   AR   Ar   56   0.030   0.418   2.934
    1   AR   Ar   57   4.044   4.496   3.410
    1   AR   Ar   58   0.589   3.643   4.213
    1   AR   Ar   59   2.547   5.224   5.807
    1   AR   Ar   60   0.515   5.452   3.123
    1   AR   Ar   61   0.173   3.685   6.349
    1   AR   Ar   62   6.809   4.549   4.347
    1   AR   Ar   63   1.273   1.696   6.707
    1   AR   Ar   64   0.649   5.630   4.918
    1   AR   Ar   65   3.745   6.736   1.463
    1   AR   Ar   66   0.560   1.738   1.266
    1   AR   Ar   67   4.680   6.987  -0.935
    1   AR   Ar   68   0.706   0.231  -0.805
    1   AR   Ar   69   2.298   1.003  -0.001
    1   AR   Ar   70   0.646   1.123   2.294
    1   AR   Ar   71   2.796   1.271   2.352
    1   AR   Ar   72   4.571   0.437   1.630
    1   AR   Ar   73   3.289   0.719   3.335
    1   AR   Ar   74   0.936   0.981   4.529
    1   AR   Ar   75   3.533   0.743   4.759
    1   AR   Ar   76   1.645   0.534   1.398
    1   AR   Ar   77   2.307   7.094   5.314
    1   AR   Ar   78   6.948   5.733   6.080
    1   AR   Ar   79   3.816   6.463   6.804
    1   AR   Ar   80   3.960   5.568   5.251
    1   AR   Ar   81   1.783   6.376   0.221
    1   AR   Ar   82   7.096   4.624   0.625
    1   AR   Ar   83   1.148   2.885  -0.268
    1   AR   Ar   84   0.716   4.475   1.336
    1   AR   Ar   85   1.550   3.285   1.213
    1   AR   Ar   86   1.872   5.647   1.137
    1   AR   Ar   87   2.659   3.313   2.209
    1   AR   Ar   88   3.051   5.048   1.454
    1   AR   Ar   89   7.093   2.331   1.998
    1   AR   Ar   90   3.449   1.908   4.762
    1   AR   Ar   91   1.206   1.781   3.310
    1   AR   Ar   92   1.252   3.826   2.043
    1   AR   Ar   93   1.139   1.316   5.694
    1   AR   Ar   94   1.254   6.879  10.028
    1   AR   Ar   95   4.503   0.992   5.543
    1   AR   Ar   96   3.069   7.016   4.119
    1   AR   Ar   97   4.196   1.975  -0.771
    1   AR   Ar   98   1.721   4.272   4.016
    1   AR   Ar   99   7.046   1.954   0.368
    1   AR   Ar  100   0.679   3.148  -1.770
    1   AR   Ar  101   3.701   5.819   2.046
    1   AR   Ar  102   3.821   1.381   2.595
    1   AR   Ar  103   2.342   4.454   0.616
    1   AR   Ar  104   3.299   5.171  -0.917
    1   AR   Ar  105   2.368   1.544   3.797
    1   AR   Ar  106   3.816   2.805   5.755
    1   AR   Ar  107   1.145   4.354   4.985
    1   AR   Ar  108   2.431   1.225   4.814
    1   AR   Ar  109   1.437   3.160   4.731
    1   AR   Ar  110   2.577   2.656   5.032
    1   AR   Ar  111   4.933   6.287   7.043
    1   AR   Ar  112   0.966   6.674   6.184
    1   AR   Ar  113   3.633   4.196  -1.014
    1   AR   Ar  114   1.984   7.070  -1.564
    1   AR   Ar  115   1.666   5.117   0.191
    1   AR   Ar  116   4.402   0.932  -0.340
    1   AR   Ar  117   0.605   4.911   4.232
    1   AR   Ar  118   1.516   5.072   3.056
    1   AR   Ar  119   2.084   4.189   2.708
    1   AR   Ar  120   1.794   6.352   1.885
    1   AR   Ar  121   5.217   3.977   5.297
    1   AR   Ar  122   2.916   6.062   4.725
    1   AR   Ar  123   3.120   3.484   5.577
    1   AR   Ar  124   1.168   5.407   2.031
    1   AR   Ar  125   6.355   2.860   4.887
    1   AR   Ar  126   6.539   6.709   5.577
    1   AR   Ar  127   4.330   4.207   6.361
    1   AR   Ar  128   2.693   2.807   6.428
    1   AR   Ar  129   1.545   5.889   4.067
    1   AR   Ar  130   5.037   1.731  -3.998
    1   AR   Ar  131   4.616   3.781  -2.293
    1   AR   Ar  132   0.878   1.733  -0.483
    1   AR   Ar  133   4.862   7.069   3.757
    1   AR   Ar  134   4.340   1.275   4.543
    1   AR   Ar  135   6.018   1.305   3.714
    1   AR   Ar  136   6.615   6.740   2.453
    1   AR   Ar  137   2.161   4.073   5.978
    1   AR   Ar  138   5.356   1.459   6.022
    1   AR   Ar  139   5.614   2.386   5.698
    1   AR   Ar  140   4.057   7.106   5.149
    1   AR   Ar  141   3.894   4.929   4.500
    1   AR   Ar  142   4.451   7.059   6.131
    1   AR   Ar  143   6.425   6.645   6.781
    1   AR   Ar  144   6.481   1.829   4.987
    1   AR   Ar  145   4.433   5.151  -0.931
    1   AR   Ar  146   3.556   2.583   2.838
    1   AR   Ar  147   4.379   3.219  -1.434
    1   AR   Ar  148   2.969   6.156  -0.975
    1   AR   Ar  149   1.817   1.648  -0.869
    1   AR   Ar  150   1.924   2.423   2.880
    1   AR   Ar  151   2.964   2.536   3.873
    1   AR   Ar  152   1.721   2.374  -1.850
    1   AR   Ar  153   5.304   0.815   4.332
    1   AR   Ar  154   4.497   2.478   4.121
    1   AR   Ar  155   6.574   3.906   5.662
    1   AR   Ar  156   3.045   4.486   3.754
    1   AR   Ar  157   1.468   4.747   6.513
    1   AR   Ar  158   0.222   1.834   6.189
    1   AR   Ar  159   3.555   0.781   6.282
    1   AR   Ar  160   1.486   2.010   4.612
    1   AR   Ar  161   5.038   4.832   3.012
    1   AR   Ar  162   4.029   6.140  -0.447
    1   AR   Ar  163   5.810   4.803   0.922
    1   AR   Ar  164   2.267   5.398   2.142
    1   AR   Ar  165   3.681   2.417   0.946
    1   AR   Ar  166   2.518   3.590   4.215
    1   AR   Ar  167   5.908   6.751   3.320
    1   AR   Ar  168   5.588   3.707  -1.638
    1   AR   Ar  169   3.167   3.796   2.952
    1   AR   Ar  170   1.717   3.079   5.761
    1   AR   Ar  171   5.951   3.942   4.280
    1   AR   Ar  172   4.064   3.926   5.163
    1   AR   Ar  173   1.926   2.018   5.704
    1   AR   Ar  174   1.690   6.153   5.562
    1   AR   Ar  175   3.671   1.842   5.711
    1   AR   Ar  176   3.691   2.838   4.761
    1   AR   Ar  177   0.697   5.318  -0.366
    1   AR   Ar  178   3.199   5.939   0.256
    1   AR   Ar  179   3.365   7.087  -0.297
    1   AR   Ar  180   5.249   1.426  -5.025
    1   AR   Ar  181   0.216   5.413   1.658
    1   AR   Ar  182   1.185   6.534   3.219
    1   AR   Ar  183   4.866   5.253   2.030
    1   AR   Ar  184   4.497   6.661   0.365
    1   AR   Ar  185   2.837   4.820   4.811
    1   AR   Ar  186   2.557   5.171   3.186
    1   AR   Ar  187   3.823   6.823   3.130
    1   AR   Ar  188   2.672   6.908   2.185
    1   AR   Ar  189   4.953   3.166   6.092
    1   AR   Ar  190   3.363   5.667   3.762
    1   AR   Ar  191   2.341   6.235   7.499
    1   AR   Ar  192   4.481   5.409   6.170
    1   AR   Ar  193   2.732   6.047   1.398
    1   AR   Ar  194   5.068   3.693  -0.520
    1   AR   Ar  195   5.820   0.919   0.313
    1   AR   Ar  196   3.791   0.948  -1.084
    1   AR   Ar  197   4.343   1.403   1.200
    1   AR   Ar  198   5.274   0.245   2.539
    1   AR   Ar  199   2.337   0.026   3.178
    1   AR   Ar  200   4.901   2.680   0.694
    1   AR   Ar  201   5.594   5.672   3.111
    1   AR   Ar  202   5.252   1.685   4.887
    1   AR   Ar  203   6.944   6.587   3.400
    1   AR   Ar  204   5.571   5.649   6.137
    1   AR   Ar  205   6.722   1.466   1.493
    1   AR   Ar  206   6.171   0.715   5.568
    1   AR   Ar  207   0.592   2.186   5.127
    1   AR   Ar  208   0.492   6.152   4.077
    1   AR   Ar  209   0.133   2.280  -2.402
    1   AR   Ar  210   2.516   6.968   0.736
    1   AR   Ar  211   0.011   3.388   0.884
    1   AR   Ar  212   6.240   3.722  -0.145
    1   AR   Ar  213   2.892   0.758   1.371
    1   AR   Ar  214   4.502   4.127   2.437
    1   AR   Ar  215   6.460   3.154   2.326
    1   AR   Ar  216   1.015   2.540   0.614
    1   AR   Ar  217   5.026   1.714   3.537
    1   AR   Ar  218   4.802   3.443   4.563
    1   AR   Ar  219   4.030   3.407   3.407
    1   AR   Ar  220   4.186   3.584   1.210
    1   AR   Ar  221   6.609   5.543   3.911
    1   AR   Ar  222   5.561   6.924   6.295
    1   AR   Ar  223   6.295   1.888   6.768
    1   AR   Ar  224   4.599   2.670   5.246
    1   AR   Ar  225   5.968   3.164   3.214
    1   AR   Ar  226   1.548   3.379   3.071
    1   AR   Ar  227   0.054   3.833   2.020
    1   AR   Ar  228   6.004   6.958   1.241
    1   AR   Ar  229   5.790   5.460  -0.897
    1   AR   Ar  230   3.632   3.801   4.202
    1   AR   Ar  231   4.937   1.733   2.057
    1   AR   Ar  232   5.477   2.918   1.697
    1   AR   Ar  233   6.353   2.350   3.682
    1   AR   Ar  234   5.549   2.602   4.027
    1   AR   Ar  235   6.565   0.593   4.080
    1   AR   Ar  236   5.028   5.062   5.346
    1   AR   Ar  237   5.145   2.301   6.733
    1   AR   Ar  238   5.484   4.840   6.743
    1   AR   Ar  239   0.174   4.759  10.196
    1   AR   Ar  240   7.031   2.688   7.147
    1   AR   Ar  241   2.019   5.770  -0.790
    1   AR   Ar  242   5.539   5.887   0.688
    1   AR   Ar  243   4.324   5.642   2.848
    1   AR   Ar  244   0.748   5.487   0.693
    1   AR   Ar  245   3.531   0.380   2.272
    1   AR   Ar  246   5.943   6.729  -0.674
    1   AR   Ar  247   6.148   3.720   1.277
    1   AR   Ar  248   5.064   5.724  -0.252
    1   AR   Ar  249   4.546   6.715   2.182
    1   AR   Ar  250   4.801   6.178   4.052
    1   AR   Ar  251   5.002   4.710   4.013
    1   AR   Ar  252   3.381   4.813   2.633
    1   AR   Ar  253   6.248   3.095   6.508
    1   AR   Ar  254   3.817   2.045  10.009
    1   AR   Ar  255   3.419   5.554   9.973
    1   AR   Ar  256   5.927   4.571   3.402
    7.12000  7.12000 12.00000
Argon-slab step 4210
  256
    1   AR   Ar    1   4.384   3.189  -3.435
    1   AR   Ar    2   6.383   6.670   0.303
    1   AR   Ar    3   3.806   2.327  -1.820
    1   AR   Ar    4   2.043   1.477   1.003
    1   AR   Ar    5   6.659   5.819   0.711
    1   AR   Ar    6   1.052   2.123   2.277
    1   AR   Ar    7   5.037   3.776   3.405
    1   AR   Ar    8   4.815   1.938   0.034
    1   AR   Ar    9   0.704   0.110   3.613
    1   AR   Ar   10   0.120   7.015   4.524
    1   AR   Ar   11   1.718   7.072   4.246
    1   AR   Ar   12   0.622   1.110   3.540
    1   AR   Ar   13   0.137   0.747   5.154
    1   AR   Ar   14   4.564   0.838   6.673
    1   AR   Ar   15   3.196   6.856   8.694
    1   AR   Ar   16   1.046   6.818   4.931
    1   AR   Ar   17   5.415   1.907   1.068
    1   AR   Ar   18   6.776   5.306  -0.389
    1   AR   Ar   19   4.089   3.439  -0.053
    1   AR   Ar   20   7.083   4.366  -2.976
    1   AR   Ar   21   2.499   2.253   1.815
    1   AR   Ar   22   6.387   1.484   2.699
    1   AR   Ar   23   0.352   6.762   1.106
    1   AR   Ar   24   5.155   2.929   2.586
    1   AR   Ar   25   0.558   2.517   3.994
    1   AR   Ar   26   6.208   6.744   4.415
    1   AR   Ar   27   1.708   0.954   2.508
    1   AR   Ar   28   1.855   2.685   3.845
    1   AR   Ar   29   5.819   1.165   7.908
    1   AR   Ar   30   1.641   0.852   3.609
    1   AR   Ar   31   3.329   7.104   7.620
    1   AR   Ar   32   0.670   2.715   6.377
    1   AR   Ar   33   0.746   3.982  -0.368
    1   AR   Ar   34   0.763   4.487   2.485
    1   AR   Ar   35   6.169   5.607   1.636
    1   AR   Ar   36   6.100   2.742  -2.724
    1   AR   Ar   37   4.398   2.664   1.764
    1   AR   Ar   38   6.712   3.935   3.572
    1   AR   Ar   39   0.061   3.169   3.067
    1   AR   Ar   40   1.923   4.494   1.542
    1   AR   Ar   41   0.053   2.037   3.025
    1   AR   Ar   42   6.074   5.027   4.814
    1   AR   Ar   43   6.938   2.854   5.688
    1   AR   Ar   44   0.685   4.245   3.425
    1   AR   Ar   45   0.548   3.355   5.283
    1   AR   Ar   46   0.173   4.734   5.381
    1   AR   Ar   47   3.341   5.120   7.170
    1   AR   Ar   48   5.901   3.270   7.391
    1   AR   Ar   49   5.626   0.246  -1.794
    1   AR   Ar   50   3.389   4.724   0.162
    1   AR   Ar   51   5.826   3.968   2.493
    1   AR   Ar   52   5.275   2.683  -1.672
    1   AR   Ar   53   5.615   6.416   2.242
    1   AR   Ar   54   0.716   6.653   2.239
    1   AR   Ar   55   6.749   4.771   2.349
    1   AR   Ar   56   0.053   0.447   2.941
    1   AR   Ar   57   4.028   4.504   3.404
    1   AR   Ar   58   0.581   3.612   4.228
    1   AR   Ar   59   2.564   5.230   5.800
    1   AR   Ar   60   0.495   5.441   3.115
    1   AR   Ar   61   0.179   3.656   6.369
    1   AR   Ar   62   6.795   4.558   4.402
    1   AR   Ar   63   1.290   1.711   6.699
    1   AR   Ar   64   0.612   5.610   4.951
    1   AR   Ar   65   3.726   6.756   1.463
    1   AR   Ar   66   0.533   1.742   1.274
    1   AR   Ar   67   4.701   6.958  -0.939
    1   AR   Ar   68   0.684   0.232  -0.825
    1   AR   Ar   69   2.307   0.970   0.012
    1   AR   Ar   70   0.651   1.140   2.271
    1   AR   Ar   71   2.758   1.293   2.348
    1   AR   Ar   72   4.538   0.426   1.616
    1   AR   Ar   73   3.276   0.721   3.378
    1   AR   Ar   74   0.962   0.993   4.530
    1   AR   Ar   75   3.523   0.743   4.763
    1   AR   Ar   76   1.670   0.533   1.403
    1   AR   Ar   77   2.268   7.100   5.332
    1   AR   Ar   78   6.942   5.730   6.088
    1   AR   Ar   79   3.830   6.458   6.844
    1   AR   Ar   80   3.959   5.576   5.279
    1   AR   Ar   81   1.765   6.342   0.236
    1   AR   Ar   82   7.099   4.597   0.607
    1   AR   Ar   83   1.123   2.896  -0.279
    1   AR   Ar   84   0.706   4.453   1.361
    1   AR   Ar   85   1.548   3.268   1.189
    1   AR   Ar   86   1.866   5.667   1.116
    1   AR   Ar   87   2.638   3.294   2.191
    1   AR   Ar   88   3.032   5.057   1.440
    1   AR   Ar   89   7.110   2.315   1.985
    1   AR   Ar   90   3.446   1.913   4.765
    1   AR   Ar   91   1.222   1.789   3.319
    1   AR   Ar   92   1.260   3.817   2.083
    1   AR   Ar   93   1.166   1.330   5.701
    1   AR   Ar   94   1.269   6.896  10.002
    1   AR   Ar   95   4.491   1.038   5.503
    1   AR   Ar   96   3.101   7.030   4.105
    1   AR   Ar   97   4.214   1.963  -0.781
    1   AR   Ar   98   1.725   4.290   4.011
    1   AR   Ar   99   7.027   1.942   0.364
    1   AR   Ar  100   0.663   3.160  -1.781
    1   AR   Ar  101   3.724   5.839   2.020
    1   AR   Ar  102   3.803   1.376   2.594
    1   AR   Ar  103   2.339   4.494   0.631
    1   AR   Ar  104   3.272   5.184  -0.872
    1   AR   Ar  105   2.361   1.543   3.792
    1   AR   Ar  106   3.784   2.806   5.770
    1   AR   Ar  107   1.142   4.367   4.963
    1   AR   Ar  108   2.434   1.232   4.808
    1   AR   Ar  109   1.436   3.149   4.703
    1   AR   Ar  110   2.574   2.640   5.002
    1   AR   Ar  111   4.906   6.316   7.073
    1   AR   Ar  112   0.971   6.674   6.172
    1   AR   Ar  113   3.646   4.211  -0.977
    1   AR   Ar  114   1.996   7.068  -1.583
    1   AR   Ar  115   1.653   5.084   0.208
    1   AR   Ar  116   4.382   0.917  -0.306
    1   AR   Ar  117   0.586   4.873   4.237
    1   AR   Ar  118   1.507   5.054   3.087
    1   AR   Ar  119   2.091   4.179   2.719
    1   AR   Ar  120   1.797   6.366   1.892
    1   AR   Ar  121   5.197   4.004   5.293
    1   AR   Ar  122   2.930   6.050   4.712
    1   AR   Ar  123   3.098   3.440   5.583
    1   AR   Ar  124   1.157   5.392   2.031
    1   AR   Ar  125   6.387   2.872   4.894
    1   AR   Ar  126   6.553   6.736   5.586
    1   AR   Ar  127   4.304   4.194   6.400
    1   AR   Ar  128   2.683   2.780   6.454
    1   AR   Ar  129   1.561   5.873   4.053
    1   AR   Ar  130   5.046   1.721  -3.999
    1   AR   Ar  131   4.644   3.807  -2.311
    1   AR   Ar  132   0.865   1.734  -0.489
    1   AR   Ar  133   4.867   7.081   3.815
    1   AR   Ar  134   4.318   1.298   4.514
    1   AR   Ar  135   6.035   1.328   3.716
    1   AR   Ar  136   6.604   6.763   2.447
    1   AR   Ar  137   2.171   4.077   5.958
    1   AR   Ar  138   5.360   1.454   5.986
    1   AR   Ar  139   5.608   2.405   5.682
    1   AR   Ar  140   4.048   7.086   5.133
    1   AR   Ar  141   3.864   4.893   4.520
    1   AR   Ar  142   4.434   7.070   6.134
    1   AR   Ar  143   6.430   6.649   6.800
    1   AR   Ar  144   6.488   1.857   4.990
    1   AR   Ar  145   4.466   5.138  -0.909
    1   AR   Ar  146   3.526   2.580   2.793
    1   AR   Ar  147   4.380   3.241  -1.430
    1   AR   Ar  148   2.997   6.140  -0.982
    1   AR   Ar  149   1.800   1.636  -0.846
    1   AR   Ar  150   1.910   2.422   2.865
    1   AR   Ar  151   2.970   2.542   3.860
    1   AR   Ar  152   1.718   2.404  -1.825
    1   AR   Ar  153   5.325   0.776   4.340
    1   AR   Ar  154   4.475   2.505   4.105
    1   AR   Ar  155   6.574   3.914   5.661
    1   AR   Ar  156   3.056   4.495   3.766
    1   AR   Ar  157   1.472   4.769   6.492
    1   AR   Ar  158   0.204   1.858   6.191
    1   AR   Ar  159   3.547   0.735   6.271
    1   AR   Ar  160   1.493   1.972   4.608
    1   AR   Ar  161   5.028   4.835   3.039
    1   AR   Ar  162   4.039   6.169  -0.479
    1   AR   Ar  163   5.807   4.816   0.949
    1   AR   Ar  164   2.279   5.433   2.129
    1   AR   Ar  165   3.665   2.449   0.942
    1   AR   Ar  166   2.527   3.565   4.188
    1   AR   Ar  167   5.895   6.758   3.321
    1   AR   Ar  168   5.606   3.701  -1.657
    1   AR   Ar  169   3.159   3.766   2.931
    1   AR   Ar  170   1.715   3.114   5.761
    1   AR   Ar  171   5.954   3.940   4.279
    1   AR   Ar  172   4.065   3.923   5.147
    1   AR   Ar  173   1.933   2.024   5.694
    1   AR   Ar  174   1.656   6.158   5.521
    1   AR   Ar  175   3.644   1.818   5.725
    1   AR   Ar  176   3.691   2.818   4.760
    1   AR   Ar  177   0.744   5.304  -0.384
    1   AR   Ar  178   3.182   5.919   0.295
    1   AR   Ar  179   3.391   7.075  -0.308
    1   AR   Ar  180   5.251   1.451  -5.057
    1   AR   Ar  181   0.176   5.441   1.674
    1   AR   Ar  182   1.157   6.526   3.257
    1   AR   Ar  183   4.850   5.250   2.033
    1   AR   Ar  184   4.491   6.670   0.341
    1   AR   Ar  185   2.826   4.800   4.845
    1   AR   Ar  186   2.563   5.145   3.182
    1   AR   Ar  187   3.848   6.831   3.147
    1   AR   Ar  188   2.659   6.921   2.198
    1   AR   Ar  189   4.958   3.160   6.068
    1   AR   Ar  190   3.347   5.651   3.733
    1   AR   Ar  191   2.356   6.222   7.512
    1   AR   Ar  192   4.479   5.364   6.187
    1   AR   Ar  193   2.733   6.067   1.430
    1   AR   Ar  194   5.077   3.722  -0.471
    1   AR   Ar  195   5.856   0.906   0.290
    1   AR   Ar  196   3.792   0.953  -1.112
    1   AR   Ar  197   4.371   1.418   1.182
    1   AR   Ar  198   5.306   0.261   2.488
    1   AR   Ar  199   2.299   0.035   3.221
    1   AR   Ar  200   4.889   2.695   0.697
    1   AR   Ar  201   5.624   5.689   3.110
    1   AR   Ar  202   5.250   1.701   4.920
    1   AR   Ar  203   6.950   6.569   3.389
    1   AR   Ar  204   5.574   5.671   6.123
    1   AR   Ar  205   6.728   1.484   1.501
    1   AR   Ar  206   6.163   0.720   5.580
    1   AR   Ar  207   0.582   2.176   5.126
    1   AR   Ar  208   0.479   6.165   4.097
    1   AR   Ar  209   0.116   2.286  -2.380
    1   AR   Ar  210   2.517   6.969   0.727
    1   AR   Ar  211   0.035   3.395   0.855
    1   AR   Ar  212   6.216   3.756  -0.141
    1   AR   Ar  213   2.922   0.742   1.344
    1   AR   Ar  214   4.508   4.134   2.424
    1   AR   Ar  215   6.470   3.136   2.269
    1   AR   Ar  216   1.021   2.505   0.637
    1   AR   Ar  217   5.012   1.714   3.539
    1   AR   Ar  218   4.830   3.442   4.554
    1   AR   Ar  219   4.045   3.426   3.414
    1   AR   Ar  220   4.164   3.590   1.210
    1   AR   Ar  221   6.597   5.587   3.914
    1   AR   Ar  222   5.601   6.921   6.254
    1   AR   Ar  223   6.302   1.884   6.742
    1   AR   Ar  224   4.611   2.654   5.254
    1   AR   Ar  225   5.956   3.175   3.200
    1   AR   Ar  226   1.556   3.357   3.063
    1   AR   Ar  227   0.063   3.834   2.045
    1   AR   Ar  228   6.013   6.974   1.232
    1   AR   Ar  229   5.797   5.453  -0.912
    1   AR   Ar  230   3.639   3.789   4.224
    1   AR   Ar  231   4.933   1.750   2.047
    1   AR   Ar  232   5.520   2.903   1.674
    1   AR   Ar  233   6.378   2.369   3.688
    1   AR   Ar  234   5.524   2.600   4.016
    1   AR   Ar  235   6.601   0.607   4.096
    1   AR   Ar  236   5.030   5.059   5.317
    1   AR   Ar  237   5.123   2.319   6.737
    1   AR   Ar  238   5.480   4.855   6.788
    1   AR   Ar  239   0.139   4.765  10.244
    1   AR   Ar  240   7.040   2.660   7.142
    1   AR   Ar  241   2.007   5.769  -0.790
    1   AR   Ar  242   5.526   5.901   0.737
    1   AR   Ar  243   4.300   5.614   2.884
    1   AR   Ar  244   0.727   5.493   0.668
    1   AR   Ar  245   3.570   0.388   2.326
    1   AR   Ar  246   5.967   6.736  -0.664
    1   AR   Ar  247   6.145   3.741   1.300
    1   AR   Ar  248   5.090   5.760  -0.267
    1   AR   Ar  249   4.540   6.761   2.218
    1   AR   Ar  250   4.804   6.174   4.045
    1   AR   Ar  251   4.995   4.685   4.036
    1   AR   Ar  252   3.378   4.821   2.612
    1   AR   Ar  253   6.262   3.080   6.496
    1   AR   Ar  254   3.853   2.072  10.001
    1   AR   Ar  255   3.401   5.558   9.974
    1   AR   Ar  256   5.931   4.570   3.403
    7.12000  7.12000 12.00000
Argon-slab step 4215
  256
    1   AR   Ar    1   4.382   3.208  -3.440
    1   AR   Ar    2   6.383   6.690   0.318
    1   AR   Ar    3   3.826   2.299  -1.823
    1   AR   Ar    4   2.037   1.465   1.000
    1   AR   Ar    5   6.625   5.801   0.708
    1   AR   Ar    6   1.125   2.160   2.300
    1   AR   Ar    7   5.041   3.784   3.450
    1   AR   Ar    8   4.807   1.953  -0.013
    1   AR   Ar    9   0.699   0.103   3.634
    1   AR   Ar   10   0.112   7.004   4.538
    1   AR   Ar   11   1.710   7.034   4.261
    1   AR   Ar   12   0.592   1.129   3.562
    1   AR   Ar   13   0.105   0.749   5.139
    1   AR   Ar   14   4.550   0.874   6.671
    1   AR   Ar   15   3.193   6.843   8.671
    1   AR   Ar   16   1.055   6.815   4.921
    1   AR   Ar   17   5.405   1.897   1.037
    1   AR   Ar   18   6.801   5.295  -0.386
    1   AR   Ar   19   4.109   3.444  -0.035
    1   AR   Ar   20   7.096   4.373  -2.959
    1   AR   Ar   21   2.498   2.244   1.821
    1   AR   Ar   22   6.347   1.471   2.694
    1   AR   Ar   23   0.349   6.732   1.106
    1   AR   Ar   24   5.155   2.921   2.593
    1   AR   Ar   25   0.561   2.541   3.960
    1   AR   Ar   26   6.174   6.746   4.409
    1   AR   Ar   27   1.715   0.980   2.508
    1   AR   Ar   28   1.880   2.701   3.830
    1   AR   Ar   29   5.817   1.157   7.922
    1   AR   Ar   30   1.636   0.870   3.598
    1   AR   Ar   31   3.350   7.112   7.599
    1   AR   Ar   32   0.693   2.753   6.372
    1   AR   Ar   33   0.718   4.023  -0.365
    1   AR   Ar   34   0.751   4.520   2.471
    1   AR   Ar   35   6.180   5.588   1.615
    1   AR   Ar   36   6.085   2.755  -2.713
    1   AR   Ar   37   4.392   2.670   1.743
    1   AR   Ar   38   6.728   3.981   3.587
    1   AR   Ar   39   0.074   3.158   3.093
    1   AR   Ar   40   1.953   4.535   1.530
    1   AR   Ar   41   0.028   2.023   2.988
    1   AR   Ar   42   6.045   5.037   4.795
    1   AR   Ar   43   6.915   2.858   5.716
    1   AR   Ar   44   0.668   4.267   3.426
    1   AR   Ar   45   0.589   3.372   5.269
    1   AR   Ar   46   0.197   4.713   5.395
    1   AR   Ar   47   3.331   5.151   7.169
    1   AR   Ar   48   5.871   3.252   7.390
    1   AR   Ar   49   5.627   0.248  -1.766
    1   AR   Ar   50   3.376   4.765   0.180
    1   AR   Ar   51   5.823   3.938   2.469
    1   AR   Ar   52   5.303   2.662  -1.681
    1   AR   Ar   53   5.590   6.389   2.239
    1   AR   Ar   54   0.741   6.673   2.229
    1   AR   Ar   55   6.765   4.758   2.356
    1   AR   Ar   56   0.068   0.479   2.941
    1   AR   Ar   57   4.018   4.514   3.398
    1   AR   Ar   58   0.570   3.581   4.246
    1   AR   Ar   59   2.579   5.237   5.793
    1   AR   Ar   60   0.463   5.434   3.113
    1   AR   Ar   61   0.185   3.627   6.391
    1   AR   Ar   62   6.787   4.556   4.452
    1   AR   Ar   63   1.306   1.728   6.690
    1   AR   Ar   64   0.579   5.593   4.992
    1   AR   Ar   65   3.705   6.779   1.461
    1   AR   Ar   66   0.518   1.748   1.278
    1   AR   Ar   67   4.690   6.954  -0.923
    1   AR   Ar   68   0.663   0.232  -0.844
    1   AR   Ar   69   2.315   0.936   0.026
    1   AR   Ar   70   0.653   1.157   2.249
    1   AR   Ar   71   2.718   1.313   2.344
    1   AR   Ar   72   4.505   0.422   1.596
    1   AR   Ar   73   3.263   0.723   3.420
    1   AR   Ar   74   0.993   1.004   4.531
    1   AR   Ar   75   3.501   0.745   4.766
    1   AR   Ar   76   1.697   0.530   1.410
    1   AR   Ar   77   2.229   7.106   5.349
    1   AR   Ar   78   6.940   5.727   6.093
    1   AR   Ar   79   3.844   6.451   6.884
    1   AR   Ar   80   3.957   5.587   5.308
    1   AR   Ar   81   1.747   6.306   0.249
    1   AR   Ar   82   7.100   4.571   0.587
    1   AR   Ar   83   1.098   2.910  -0.299
    1   AR   Ar   84   0.699   4.433   1.387
    1   AR   Ar   85   1.547   3.253   1.166
    1   AR   Ar   86   1.851   5.680   1.090
    1   AR   Ar   87   2.627   3.287   2.189
    1   AR   Ar   88   3.013   5.062   1.426
    1   AR   Ar   89   0.007   2.304   1.974
    1   AR   Ar   90   3.433   1.895   4.756
    1   AR   Ar   91   1.255   1.819   3.323
    1   AR   Ar   92   1.284   3.784   2.111
    1   AR   Ar   93   1.187   1.341   5.705
    1   AR   Ar   94   1.285   6.913   9.977
    1   AR   Ar   95   4.476   1.082   5.466
    1   AR   Ar   96   3.132   7.044   4.092
    1   AR   Ar   97   4.228   1.952  -0.798
    1   AR   Ar   98   1.728   4.307   4.005
    1   AR   Ar   99   7.009   1.931   0.362
    1   AR   Ar  100   0.647   3.172  -1.792
    1   AR   Ar  101   3.745   5.856   1.994
    1   AR   Ar  102   3.788   1.374   2.595
    1   AR   Ar  103   2.348   4.530   0.641
    1   AR   Ar  104   3.267   5.195  -0.855
    1   AR   Ar  105   2.358   1.549   3.786
    1   AR   Ar  106   3.782   2.797   5.766
    1   AR   Ar  107   1.141   4.377   4.944
    1   AR   Ar  108   2.437   1.239   4.804
    1   AR   Ar  109   1.436   3.139   4.674
    1   AR   Ar  110   2.570   2.624   4.970
    1   AR   Ar  111   4.897   6.323   7.104
    1   AR   Ar  112   0.980   6.681   6.224
    1   AR   Ar  113   3.662   4.223  -0.938
    1   AR   Ar  114   2.008   7.065  -1.600
    1   AR   Ar  115   1.640   5.067   0.223
    1   AR   Ar  116   4.369   0.902  -0.264
    1   AR   Ar  117   0.578   4.841   4.235
    1   AR   Ar  118   1.497   5.035   3.117
    1   AR   Ar  119   2.068   4.173   2.718
    1   AR   Ar  120   1.776   6.341   1.890
    1   AR   Ar  121   5.210   3.987   5.311
    1   AR   Ar  122   2.943   6.038   4.701
    1   AR   Ar  123   3.060   3.411   5.584
    1   AR   Ar  124   1.150   5.377   2.031
    1   AR   Ar  125   6.408   2.891   4.887
    1   AR   Ar  126   6.568   6.764   5.594
    1   AR   Ar  127   4.279   4.182   6.437
    1   AR   Ar  128   2.709   2.771   6.464
    1   AR   Ar  129   1.577   5.857   4.039
    1   AR   Ar  130   5.055   1.710  -3.999
    1   AR   Ar  131   4.673   3.833  -2.329
    1   AR   Ar  132   0.845   1.737  -0.491
    1   AR   Ar  133   4.872   7.117   3.864
    1   AR   Ar  134   4.304   1.328   4.479
    1   AR   Ar  135   6.046   1.359   3.715
    1   AR   Ar  136   6.594   6.786   2.434
    1   AR   Ar  137   2.182   4.083   5.936
    1   AR   Ar  138   5.364   1.445   5.954
    1   AR   Ar  139   5.609   2.428   5.664
    1   AR   Ar  140   4.042   7.061   5.117
    1   AR   Ar  141   3.836   4.851   4.533
    1   AR   Ar  142   4.418   7.078   6.136
    1   AR   Ar  143   6.440   6.651   6.820
    1   AR   Ar  144   6.505   1.865   4.989
    1   AR   Ar  145   4.496   5.126  -0.887
    1   AR   Ar  146   3.496   2.578   2.747
    1   AR   Ar  147   4.379   3.264  -1.424
    1   AR   Ar  148   3.026   6.134  -0.988
    1   AR   Ar  149   1.791   1.623  -0.826
    1   AR   Ar  150   1.905   2.415   2.841
    1   AR   Ar  151   2.975   2.550   3.847
    1   AR   Ar  152   1.713   2.434  -1.799
    1   AR   Ar  153   5.346   0.737   4.349
    1   AR   Ar  154   4.449   2.531   4.089
    1   AR   Ar  155   6.572   3.921   5.655
    1   AR   Ar  156   3.027   4.560   3.793
    1   AR   Ar  157   1.477   4.792   6.470
    1   AR   Ar  158   0.180   1.874   6.191
    1   AR   Ar  159   3.541   0.690   6.258
    1   AR   Ar  160   1.502   1.933   4.602
    1   AR   Ar  161   5.012   4.837   3.056
    1   AR   Ar  162   4.048   6.195  -0.514
    1   AR   Ar  163   5.805   4.829   0.975
    1   AR   Ar  164   2.290   5.463   2.121
    1   AR   Ar  165   3.647   2.485   0.929
    1   AR   Ar  166   2.537   3.538   4.163
    1   AR   Ar  167   5.880   6.766   3.321
    1   AR   Ar  168   5.604   3.695  -1.684
    1   AR   Ar  169   3.152   3.740   2.916
    1   AR   Ar  170   1.713   3.148   5.761
    1   AR   Ar  171   5.950   3.930   4.285
    1   AR   Ar  172   4.061   3.908   5.145
    1   AR   Ar  173   1.944   2.032   5.682
    1   AR   Ar  174   1.624   6.161   5.480
    1   AR   Ar  175   3.620   1.782   5.749
    1   AR   Ar  176   3.693   2.827   4.752
    1   AR   Ar  177   0.792   5.289  -0.402
    1   AR   Ar  178   3.163   5.900   0.333
    1   AR   Ar  179   3.418   7.064  -0.318
    1   AR   Ar  180   5.254   1.477  -5.089
    1   AR   Ar  181   0.134   5.469   1.688
    1   AR   Ar  182   1.150   6.486   3.279
    1   AR   Ar  183   4.835   5.247   2.035
    1   AR   Ar  184   4.487   6.680   0.317
    1   AR   Ar  185   2.814   4.778   4.876
    1   AR   Ar  186   2.561   5.125   3.173
    1   AR   Ar  187   3.874   6.839   3.166
    1   AR   Ar  188   2.648   6.935   2.209
    1   AR   Ar  189   4.964   3.160   6.048
    1   AR   Ar  190   3.335   5.634   3.704
    1   AR   Ar  191   2.373   6.210   7.524
    1   AR   Ar  192   4.478   5.319   6.209
    1   AR   Ar  193   2.745   6.096   1.461
    1   AR   Ar  194   5.085   3.747  -0.441
    1   AR   Ar  195   5.893   0.894   0.267
    1   AR   Ar  196   3.788   0.958  -1.148
    1   AR   Ar  197   4.398   1.434   1.163
    1   AR   Ar  198   5.323   0.275   2.454
    1   AR   Ar  199   2.261   0.046   3.265
    1   AR   Ar  200   4.871   2.723   0.705
    1   AR   Ar  201   5.656   5.708   3.110
    1   AR   Ar  202   5.248   1.718   4.951
    1   AR   Ar  203   6.965   6.549   3.382
    1   AR   Ar  204   5.577   5.697   6.107
    1   AR   Ar  205   6.721   1.496   1.511
    1   AR   Ar  206   6.155   0.726   5.592
    1   AR   Ar  207   0.569   2.167   5.127
    1   AR   Ar  208   0.470   6.174   4.112
    1   AR   Ar  209   0.098   2.292  -2.357
    1   AR   Ar  210   2.520   6.970   0.720
    1   AR   Ar  211   0.060   3.404   0.826
    1   AR   Ar  212   6.191   3.791  -0.136
    1   AR   Ar  213   2.952   0.725   1.319
    1   AR   Ar  214   4.513   4.139   2.411
    1   AR   Ar  215   6.475   3.114   2.211
    1   AR   Ar  216   1.023   2.466   0.667
    1   AR   Ar  217   5.026   1.702   3.555
    1   AR   Ar  218   4.855   3.437   4.534
    1   AR   Ar  219   4.066   3.435   3.410
    1   AR   Ar  220   4.141   3.592   1.222
    1   AR   Ar  221   6.585   5.632   3.917
    1   AR   Ar  222   5.636   6.918   6.210
    1   AR   Ar  223   6.308   1.882   6.714
    1   AR   Ar  224   4.633   2.631   5.251
    1   AR   Ar  225   5.947   3.190   3.189
    1   AR   Ar  226   1.559   3.339   3.057
    1   AR   Ar  227   0.074   3.836   2.066
    1   AR   Ar  228   6.021   6.990   1.228
    1   AR   Ar  229   5.810   5.444  -0.932
    1   AR   Ar  230   3.642   3.778   4.255
    1   AR   Ar  231   4.929   1.766   2.040
    1   AR   Ar  232   5.568   2.887   1.639
    1   AR   Ar  233   6.430   2.378   3.688
    1   AR   Ar  234   5.477   2.605   4.017
    1   AR   Ar  235   6.643   0.615   4.114
    1   AR   Ar  236   5.026   5.055   5.314
    1   AR   Ar  237   5.144   2.339   6.742
    1   AR   Ar  238   5.475   4.868   6.834
    1   AR   Ar  239   0.103   4.771  10.291
    1   AR   Ar  240   7.047   2.632   7.137
    1   AR   Ar  241   1.994   5.768  -0.787
    1   AR   Ar  242   5.514   5.916   0.787
    1   AR   Ar  243   4.274   5.588   2.924
    1   AR   Ar  244   0.706   5.500   0.646
    1   AR   Ar  245   3.609   0.394   2.377
    1   AR   Ar  246   5.988   6.741  -0.657
    1   AR   Ar  247   6.143   3.763   1.324
    1   AR   Ar  248   5.111   5.801  -0.276
    1   AR   Ar  249   4.529   6.793   2.261
    1   AR   Ar  250   4.800   6.156   4.059
    1   AR   Ar  251   4.986   4.658   4.068
    1   AR   Ar  252   3.377   4.830   2.587
    1   AR   Ar  253   6.277   3.062   6.471
    1   AR   Ar  254   3.888   2.099   9.993
    1   AR   Ar  255   3.383   5.561   9.976
    1   AR   Ar  256   5.938   4.573   3.406
    7.12000  7.12000 12.00000
Argon-slab step 4220
  256
    1   AR   Ar    1   4.380   3.227  -3.444
    1   AR   Ar    2   6.383   6.717   0.328
    1   AR   Ar    3   3.848   2.271  -1.826
    1   AR   Ar    4   2.032   1.455   0.998
    1   AR   Ar    5   6.598   5.774   0.704
    1   AR   Ar    6   1.185   2.193   2.313
    1   AR   Ar    7   5.050   3.793   3.493
    1   AR   Ar    8   4.808   1.965  -0.049
    1   AR   Ar    9   0.686   0.112   3.674
    1   AR   Ar   10   0.099   6.995   4.555
    1   AR   Ar   11   1.714   7.000   4.261
    1   AR   Ar   12   0.551   1.148   3.586
    1   AR   Ar   13   0.072   0.755   5.126
    1   AR   Ar   14   4.538   0.913   6.668
    1   AR   Ar   15   3.191   6.831   8.648
    1   AR   Ar   16   1.050   6.810   4.923
    1   AR   Ar   17   5.397   1.884   1.007
    1   AR   Ar   18   6.827   5.284  -0.380
    1   AR   Ar   19   4.128   3.449  -0.016
    1   AR   Ar   20   7.108   4.379  -2.942
    1   AR   Ar   21   2.496   2.235   1.827
    1   AR   Ar   22   6.303   1.456   2.685
    1   AR   Ar   23   0.345   6.700   1.107
    1   AR   Ar   24   5.150   2.913   2.601
    1   AR   Ar   25   0.564   2.562   3.926
    1   AR   Ar   26   6.140   6.748   4.402
    1   AR   Ar   27   1.706   0.961   2.515
    1   AR   Ar   28   1.906   2.714   3.819
    1   AR   Ar   29   5.815   1.150   7.936
    1   AR   Ar   30   1.628   0.880   3.589
    1   AR   Ar   31   3.370   7.119   7.578
    1   AR   Ar   32   0.725   2.788   6.366
    1   AR   Ar   33   0.690   4.065  -0.361
    1   AR   Ar   34   0.767   4.522   2.488
    1   AR   Ar   35   6.189   5.570   1.603
    1   AR   Ar   36   6.080   2.736  -2.700
    1   AR   Ar   37   4.386   2.675   1.723
    1   AR   Ar   38   6.753   4.022   3.598
    1   AR   Ar   39   0.089   3.145   3.119
    1   AR   Ar   40   1.975   4.579   1.533
    1   AR   Ar   41   0.012   2.009   2.956
    1   AR   Ar   42   5.998   5.058   4.784
    1   AR   Ar   43   6.902   2.854   5.751
    1   AR   Ar   44   0.652   4.281   3.428
    1   AR   Ar   45   0.632   3.392   5.260
    1   AR   Ar   46   0.218   4.689   5.411
    1   AR   Ar   47   3.321   5.183   7.167
    1   AR   Ar   48   5.840   3.234   7.393
    1   AR   Ar   49   5.649   0.237  -1.732
    1   AR   Ar   50   3.357   4.792   0.187
    1   AR   Ar   51   5.818   3.913   2.443
    1   AR   Ar   52   5.329   2.640  -1.691
    1   AR   Ar   53   5.564   6.359   2.235
    1   AR   Ar   54   0.765   6.692   2.220
    1   AR   Ar   55   6.780   4.745   2.366
    1   AR   Ar   56   0.075   0.511   2.933
    1   AR   Ar   57   4.010   4.524   3.394
    1   AR   Ar   58   0.557   3.554   4.260
    1   AR   Ar   59   2.594   5.244   5.789
    1   AR   Ar   60   0.430   5.426   3.112
    1   AR   Ar   61   0.189   3.604   6.413
    1   AR   Ar   62   6.786   4.541   4.499
    1   AR   Ar   63   1.322   1.747   6.682
    1   AR   Ar   64   0.547   5.581   5.035
    1   AR   Ar   65   3.681   6.804   1.459
    1   AR   Ar   66   0.519   1.752   1.278
    1   AR   Ar   67   4.672   6.957  -0.901
    1   AR   Ar   68   0.643   0.233  -0.864
    1   AR   Ar   69   2.324   0.901   0.041
    1   AR   Ar   70   0.654   1.175   2.228
    1   AR   Ar   71   2.680   1.332   2.341
    1   AR   Ar   72   4.472   0.425   1.571
    1   AR   Ar   73   3.252   0.730   3.455
    1   AR   Ar   74   1.023   1.012   4.535
    1   AR   Ar   75   3.473   0.750   4.770
    1   AR   Ar   76   1.725   0.525   1.419
    1   AR   Ar   77   2.188   7.112   5.363
    1   AR   Ar   78   6.957   5.723   6.093
    1   AR   Ar   79   3.858   6.444   6.922
    1   AR   Ar   80   3.954   5.601   5.336
    1   AR   Ar   81   1.729   6.271   0.260
    1   AR   Ar   82   7.099   4.546   0.566
    1   AR   Ar   83   1.072   2.925  -0.322
    1   AR   Ar   84   0.694   4.415   1.394
    1   AR   Ar   85   1.546   3.239   1.145
    1   AR   Ar   86   1.835   5.686   1.064
    1   AR   Ar   87   2.622   3.286   2.195
    1   AR   Ar   88   2.995   5.066   1.410
    1   AR   Ar   89   0.027   2.300   1.968
    1   AR   Ar   90   3.411   1.863   4.740
    1   AR   Ar   91   1.290   1.855   3.330
    1   AR   Ar   92   1.314   3.739   2.131
    1   AR   Ar   93   1.202   1.349   5.705
    1   AR   Ar   94   1.301   6.929   9.951
    1   AR   Ar   95   4.459   1.123   5.434
    1   AR   Ar   96   3.161   7.040   4.098
    1   AR   Ar   97   4.233   1.941  -0.827
    1   AR   Ar   98   1.730   4.325   3.996
    1   AR   Ar   99   6.992   1.920   0.360
    1   AR   Ar  100   0.639   3.163  -1.791
    1   AR   Ar  101   3.765   5.872   1.969
    1   AR   Ar  102   3.775   1.379   2.597
    1   AR   Ar  103   2.372   4.560   0.644
    1   AR   Ar  104   3.279   5.199  -0.854
    1   AR   Ar  105   2.360   1.562   3.779
    1   AR   Ar  106   3.804   2.779   5.750
    1   AR   Ar  107   1.143   4.382   4.929
    1   AR   Ar  108   2.440   1.247   4.803
    1   AR   Ar  109   1.440   3.127   4.648
    1   AR   Ar  110   2.566   2.608   4.936
    1   AR   Ar  111   4.901   6.314   7.137
    1   AR   Ar  112   0.989   6.689   6.291
    1   AR   Ar  113   3.669   4.233  -0.915
    1   AR   Ar  114   2.021   7.062  -1.617
    1   AR   Ar  115   1.640   5.093   0.238
    1   AR   Ar  116   4.357   0.886  -0.219
    1   AR   Ar  117   0.577   4.821   4.232
    1   AR   Ar  118   1.485   5.017   3.148
    1   AR   Ar  119   2.050   4.173   2.716
    1   AR   Ar  120   1.751   6.321   1.891
    1   AR   Ar  121   5.228   3.981   5.330
    1   AR   Ar  122   2.957   6.025   4.689
    1   AR   Ar  123   3.008   3.393   5.580
    1   AR   Ar  124   1.147   5.365   2.030
    1   AR   Ar  125   6.420   2.916   4.865
    1   AR   Ar  126   6.583   6.792   5.601
    1   AR   Ar  127   4.255   4.170   6.472
    1   AR   Ar  128   2.735   2.761   6.472
    1   AR   Ar  129   1.593   5.839   4.027
    1   AR   Ar  130   5.064   1.701  -4.000
    1   AR   Ar  131   4.702   3.858  -2.348
    1   AR   Ar  132   0.822   1.743  -0.485
    1   AR   Ar  133   4.874   0.039   3.904
    1   AR   Ar  134   4.295   1.362   4.436
    1   AR   Ar  135   6.055   1.393   3.715
    1   AR   Ar  136   6.582   6.810   2.417
    1   AR   Ar  137   2.195   4.091   5.913
    1   AR   Ar  138   5.369   1.433   5.927
    1   AR   Ar  139   5.616   2.453   5.646
    1   AR   Ar  140   4.039   7.032   5.102
    1   AR   Ar  141   3.815   4.827   4.546
    1   AR   Ar  142   4.403   7.084   6.139
    1   AR   Ar  143   6.452   6.651   6.840
    1   AR   Ar  144   6.521   1.854   4.999
    1   AR   Ar  145   4.476   5.103  -0.886
    1   AR   Ar  146   3.465   2.577   2.702
    1   AR   Ar  147   4.379   3.287  -1.416
    1   AR   Ar  148   3.051   6.142  -0.995
    1   AR   Ar  149   1.789   1.610  -0.809
    1   AR   Ar  150   1.913   2.413   2.820
    1   AR   Ar  151   2.983   2.557   3.836
    1   AR   Ar  152   1.708   2.465  -1.771
    1   AR   Ar  153   5.373   0.707   4.363
    1   AR   Ar  154   4.420   2.554   4.072
    1   AR   Ar  155   6.567   3.927   5.647
    1   AR   Ar  156   3.003   4.613   3.831
    1   AR   Ar  157   1.482   4.814   6.446
    1   AR   Ar  158   0.155   1.887   6.188
    1   AR   Ar  159   3.535   0.645   6.243
    1   AR   Ar  160   1.515   1.897   4.595
    1   AR   Ar  161   4.994   4.839   3.067
    1   AR   Ar  162   4.054   6.216  -0.550
    1   AR   Ar  163   5.804   4.839   1.000
    1   AR   Ar  164   2.295   5.475   2.118
    1   AR   Ar  165   3.631   2.520   0.916
    1   AR   Ar  166   2.547   3.511   4.137
    1   AR   Ar  167   5.863   6.775   3.322
    1   AR   Ar  168   5.601   3.691  -1.710
    1   AR   Ar  169   3.149   3.719   2.907
    1   AR   Ar  170   1.709   3.179   5.761
    1   AR   Ar  171   5.943   3.919   4.279
    1   AR   Ar  172   4.053   3.876   5.166
    1   AR   Ar  173   1.960   2.027   5.682
    1   AR   Ar  174   1.595   6.159   5.440
    1   AR   Ar  175   3.596   1.740   5.779
    1   AR   Ar  176   3.695   2.854   4.740
    1   AR   Ar  177   0.839   5.274  -0.423
    1   AR   Ar  178   3.144   5.882   0.372
    1   AR   Ar  179   3.445   7.052  -0.327
    1   AR   Ar  180   5.257   1.502  -5.121
    1   AR   Ar  181   0.092   5.498   1.699
    1   AR   Ar  182   1.157   6.422   3.288
    1   AR   Ar  183   4.820   5.245   2.037
    1   AR   Ar  184   4.484   6.691   0.295
    1   AR   Ar  185   2.806   4.770   4.857
    1   AR   Ar  186   2.548   5.116   3.153
    1   AR   Ar  187   3.899   6.845   3.187
    1   AR   Ar  188   2.637   6.950   2.219
    1   AR   Ar  189   4.969   3.167   6.034
    1   AR   Ar  190   3.323   5.618   3.684
    1   AR   Ar  191   2.391   6.198   7.537
    1   AR   Ar  192   4.478   5.274   6.234
    1   AR   Ar  193   2.763   6.132   1.487
    1   AR   Ar  194   5.086   3.756  -0.480
    1   AR   Ar  195   5.929   0.881   0.245
    1   AR   Ar  196   3.782   0.963  -1.186
    1   AR   Ar  197   4.424   1.452   1.141
    1   AR   Ar  198   5.318   0.278   2.442
    1   AR   Ar  199   2.224   0.056   3.308
    1   AR   Ar  200   4.851   2.757   0.714
    1   AR   Ar  201   5.689   5.727   3.110
    1   AR   Ar  202   5.247   1.737   4.975
    1   AR   Ar  203   6.980   6.531   3.377
    1   AR   Ar  204   5.580   5.724   6.090
    1   AR   Ar  205   6.698   1.499   1.521
    1   AR   Ar  206   6.147   0.732   5.603
    1   AR   Ar  207   0.555   2.159   5.128
    1   AR   Ar  208   0.468   6.175   4.124
    1   AR   Ar  209   0.080   2.299  -2.334
    1   AR   Ar  210   2.523   6.971   0.714
    1   AR   Ar  211   0.085   3.413   0.798
    1   AR   Ar  212   6.166   3.827  -0.130
    1   AR   Ar  213   2.980   0.707   1.295
    1   AR   Ar  214   4.517   4.142   2.399
    1   AR   Ar  215   6.476   3.088   2.154
    1   AR   Ar  216   1.024   2.425   0.698
    1   AR   Ar  217   5.046   1.686   3.576
    1   AR   Ar  218   4.878   3.430   4.507
    1   AR   Ar  219   4.088   3.437   3.400
    1   AR   Ar  220   4.127   3.605   1.233
    1   AR   Ar  221   6.574   5.675   3.920
    1   AR   Ar  222   5.667   6.917   6.163
    1   AR   Ar  223   6.313   1.881   6.685
    1   AR   Ar  224   4.659   2.601   5.237
    1   AR   Ar  225   5.943   3.208   3.184
    1   AR   Ar  226   1.555   3.327   3.053
    1   AR   Ar  227   0.087   3.835   2.084
    1   AR   Ar  228   6.026   7.005   1.231
    1   AR   Ar  229   5.826   5.433  -0.955
    1   AR   Ar  230   3.638   3.770   4.283
    1   AR   Ar  231   4.887   1.748   2.032
    1   AR   Ar  232   5.614   2.870   1.600
    1   AR   Ar  233   6.488   2.388   3.689
    1   AR   Ar  234   5.430   2.612   4.022
    1   AR   Ar  235   6.686   0.624   4.131
    1   AR   Ar  236   5.022   5.052   5.310
    1   AR   Ar  237   5.145   2.344   6.726
    1   AR   Ar  238   5.468   4.880   6.879
    1   AR   Ar  239   0.132   4.777  10.283
    1   AR   Ar  240   7.054   2.604   7.131
    1   AR   Ar  241   1.980   5.766  -0.782
    1   AR   Ar  242   5.502   5.933   0.836
    1   AR   Ar  243   4.246   5.563   2.966
    1   AR   Ar  244   0.683   5.507   0.629
    1   AR   Ar  245   3.646   0.395   2.425
    1   AR   Ar  246   6.007   6.746  -0.652
    1   AR   Ar  247   6.144   3.787   1.349
    1   AR   Ar  248   5.128   5.846  -0.281
    1   AR   Ar  249   4.511   6.812   2.308
    1   AR   Ar  250   4.795   6.123   4.075
    1   AR   Ar  251   4.978   4.631   4.108
    1   AR   Ar  252   3.378   4.839   2.559
    1   AR   Ar  253   6.289   3.044   6.445
    1   AR   Ar  254   3.924   2.127   9.985
    1   AR   Ar  255   3.365   5.564   9.978
    1   AR   Ar  256   5.943   4.580   3.409
    7.12000  7.12000 12.00000
Argon-slab step 4225
  256
    1   AR   Ar    1   4.378   3.246  -3.447
    1   AR   Ar    2   6.385   6.745   0.333
    1   AR   Ar    3   3.870   2.244  -1.828
    1   AR   Ar    4   2.028   1.447   0.997
    1   AR   Ar    5   6.576   5.744   0.695
    1   AR   Ar    6   1.212   2.218   2.303
    1   AR   Ar    7   5.064   3.800   3.532
    1   AR   Ar    8   4.818   1.977  -0.070
    1   AR   Ar    9   0.664   0.136   3.712
    1   AR   Ar   10   0.081   6.985   4.577
    1   AR   Ar   11   1.731   6.970   4.247
    1   AR   Ar   12   0.507   1.172   3.611
    1   AR   Ar   13   0.039   0.764   5.114
    1   AR   Ar   14   4.526   0.953   6.664
    1   AR   Ar   15   3.188   6.818   8.624
    1   AR   Ar   16   1.030   6.807   4.934
    1   AR   Ar   17   5.393   1.871   0.978
    1   AR   Ar   18   6.852   5.273  -0.373
    1   AR   Ar   19   4.147   3.453   0.004
    1   AR   Ar   20   7.120   4.386  -2.925
    1   AR   Ar   21   2.493   2.228   1.832
    1   AR   Ar   22   6.257   1.438   2.671
    1   AR   Ar   23   0.340   6.666   1.109
    1   AR   Ar   24   5.139   2.905   2.607
    1   AR   Ar   25   0.569   2.577   3.892
    1   AR   Ar   26   6.107   6.751   4.395
    1   AR   Ar   27   1.711   0.950   2.517
    1   AR   Ar   28   1.933   2.721   3.812
    1   AR   Ar   29   5.809   1.147   7.941
    1   AR   Ar   30   1.610   0.886   3.583
    1   AR   Ar   31   3.345   0.002   7.599
    1   AR   Ar   32   0.766   2.812   6.357
    1   AR   Ar   33   0.675   4.078  -0.340
    1   AR   Ar   34   0.774   4.538   2.497
    1   AR   Ar   35   6.192   5.556   1.602
    1   AR   Ar   36   6.081   2.760  -2.700
    1   AR   Ar   37   4.382   2.679   1.705
    1   AR   Ar   38   6.784   4.055   3.606
    1   AR   Ar   39   0.103   3.133   3.143
    1   AR   Ar   40   1.989   4.622   1.551
    1   AR   Ar   41   0.005   2.003   2.937
    1   AR   Ar   42   5.940   5.085   4.775
    1   AR   Ar   43   6.905   2.844   5.777
    1   AR   Ar   44   0.639   4.284   3.429
    1   AR   Ar   45   0.672   3.411   5.260
    1   AR   Ar   46   0.238   4.660   5.431
    1   AR   Ar   47   3.312   5.215   7.165
    1   AR   Ar   48   5.807   3.215   7.397
    1   AR   Ar   49   5.701   0.207  -1.690
    1   AR   Ar   50   3.329   4.797   0.180
    1   AR   Ar   51   5.812   3.891   2.415
    1   AR   Ar   52   5.354   2.617  -1.701
    1   AR   Ar   53   5.539   6.328   2.229
    1   AR   Ar   54   0.788   6.711   2.212
    1   AR   Ar   55   6.791   4.736   2.378
    1   AR   Ar   56   0.076   0.541   2.920
    1   AR   Ar   57   4.002   4.534   3.392
    1   AR   Ar   58   0.539   3.535   4.267
    1   AR   Ar   59   2.608   5.252   5.786
    1   AR   Ar   60   0.397   5.419   3.112
    1   AR   Ar   61   0.185   3.592   6.437
    1   AR   Ar   62   6.787   4.520   4.547
    1   AR   Ar   63   1.337   1.768   6.674
    1   AR   Ar   64   0.519   5.575   5.077
    1   AR   Ar   65   3.656   6.831   1.456
    1   AR   Ar   66   0.529   1.751   1.275
    1   AR   Ar   67   4.657   6.964  -0.879
    1   AR   Ar   68   0.622   0.234  -0.883
    1   AR   Ar   69   2.331   0.880   0.055
    1   AR   Ar   70   0.654   1.194   2.209
    1   AR   Ar   71   2.646   1.348   2.339
    1   AR   Ar   72   4.439   0.432   1.545
    1   AR   Ar   73   3.254   0.753   3.469
    1   AR   Ar   74   1.051   1.011   4.540
    1   AR   Ar   75   3.442   0.756   4.774
    1   AR   Ar   76   1.754   0.517   1.429
    1   AR   Ar   77   2.147   7.118   5.375
    1   AR   Ar   78   6.975   5.719   6.091
    1   AR   Ar   79   3.870   6.435   6.958
    1   AR   Ar   80   3.950   5.615   5.363
    1   AR   Ar   81   1.709   6.240   0.269
    1   AR   Ar   82   7.097   4.523   0.544
    1   AR   Ar   83   1.040   2.909  -0.296
    1   AR   Ar   84   0.693   4.400   1.369
    1   AR   Ar   85   1.547   3.228   1.125
    1   AR   Ar   86   1.822   5.684   1.048
    1   AR   Ar   87   2.608   3.280   2.193
    1   AR   Ar   88   2.979   5.069   1.393
    1   AR   Ar   89   0.048   2.305   1.965
    1   AR   Ar   90   3.386   1.827   4.722
    1   AR   Ar   91   1.294   1.874   3.324
    1   AR   Ar   92   1.343   3.690   2.141
    1   AR   Ar   93   1.211   1.352   5.699
    1   AR   Ar   94   1.316   6.946   9.925
    1   AR   Ar   95   4.440   1.161   5.405
    1   AR   Ar   96   3.188   7.023   4.119
    1   AR   Ar   97   4.229   1.929  -0.868
    1   AR   Ar   98   1.732   4.342   3.986
    1   AR   Ar   99   6.976   1.909   0.359
    1   AR   Ar  100   0.630   3.154  -1.791
    1   AR   Ar  101   3.785   5.885   1.946
    1   AR   Ar  102   3.763   1.393   2.600
    1   AR   Ar  103   2.409   4.585   0.638
    1   AR   Ar  104   3.281   5.199  -0.862
    1   AR   Ar  105   2.365   1.582   3.771
    1   AR   Ar  106   3.827   2.761   5.744
    1   AR   Ar  107   1.151   4.381   4.921
    1   AR   Ar  108   2.443   1.255   4.803
    1   AR   Ar  109   1.447   3.115   4.624
    1   AR   Ar  110   2.561   2.591   4.901
    1   AR   Ar  111   4.906   6.304   7.167
    1   AR   Ar  112   0.998   6.696   6.357
    1   AR   Ar  113   3.661   4.241  -0.900
    1   AR   Ar  114   2.033   7.059  -1.633
    1   AR   Ar  115   1.635   5.123   0.247
    1   AR   Ar  116   4.346   0.869  -0.174
    1   AR   Ar  117   0.581   4.816   4.230
    1   AR   Ar  118   1.471   5.000   3.180
    1   AR   Ar  119   2.038   4.179   2.715
    1   AR   Ar  120   1.724   6.307   1.894
    1   AR   Ar  121   5.249   3.992   5.344
    1   AR   Ar  122   2.972   6.011   4.678
    1   AR   Ar  123   2.953   3.380   5.573
    1   AR   Ar  124   1.148   5.356   2.027
    1   AR   Ar  125   6.427   2.945   4.836
    1   AR   Ar  126   6.596   6.815   5.606
    1   AR   Ar  127   4.245   4.158   6.486
    1   AR   Ar  128   2.760   2.751   6.477
    1   AR   Ar  129   1.609   5.819   4.019
    1   AR   Ar  130   5.072   1.691  -4.001
    1   AR   Ar  131   4.730   3.882  -2.367
    1   AR   Ar  132   0.813   1.757  -0.459
    1   AR   Ar  133   4.864   0.070   3.932
    1   AR   Ar  134   4.291   1.398   4.387
    1   AR   Ar  135   6.065   1.426   3.720
    1   AR   Ar  136   6.570   6.834   2.398
    1   AR   Ar  137   2.209   4.104   5.890
    1   AR   Ar  138   5.376   1.419   5.911
    1   AR   Ar  139   5.633   2.479   5.630
    1   AR   Ar  140   4.037   7.002   5.086
    1   AR   Ar  141   3.807   4.831   4.561
    1   AR   Ar  142   4.390   7.089   6.142
    1   AR   Ar  143   6.466   6.649   6.859
    1   AR   Ar  144   6.538   1.840   5.009
    1   AR   Ar  145   4.455   5.082  -0.885
    1   AR   Ar  146   3.433   2.576   2.656
    1   AR   Ar  147   4.379   3.310  -1.407
    1   AR   Ar  148   3.073   6.164  -1.003
    1   AR   Ar  149   1.793   1.596  -0.792
    1   AR   Ar  150   1.955   2.424   2.818
    1   AR   Ar  151   2.993   2.563   3.825
    1   AR   Ar  152   1.702   2.494  -1.743
    1   AR   Ar  153   5.412   0.694   4.388
    1   AR   Ar  154   4.386   2.574   4.052
    1   AR   Ar  155   6.562   3.932   5.637
    1   AR   Ar  156   2.987   4.651   3.879
    1   AR   Ar  157   1.487   4.837   6.422
    1   AR   Ar  158   0.131   1.899   6.184
    1   AR   Ar  159   3.530   0.600   6.226
    1   AR   Ar  160   1.532   1.869   4.587
    1   AR   Ar  161   4.976   4.841   3.076
    1   AR   Ar  162   4.058   6.227  -0.585
    1   AR   Ar  163   5.802   4.846   1.021
    1   AR   Ar  164   2.281   5.439   2.116
    1   AR   Ar  165   3.616   2.557   0.903
    1   AR   Ar  166   2.555   3.489   4.117
    1   AR   Ar  167   5.846   6.786   3.321
    1   AR   Ar  168   5.598   3.687  -1.735
    1   AR   Ar  169   3.151   3.704   2.910
    1   AR   Ar  170   1.703   3.205   5.758
    1   AR   Ar  171   5.931   3.906   4.276
    1   AR   Ar  172   4.052   3.843   5.199
    1   AR   Ar  173   1.986   2.013   5.680
    1   AR   Ar  174   1.609   6.159   5.435
    1   AR   Ar  175   3.572   1.694   5.810
    1   AR   Ar  176   3.693   2.883   4.727
    1   AR   Ar  177   0.885   5.258  -0.446
    1   AR   Ar  178   3.148   5.888   0.386
    1   AR   Ar  179   3.471   7.043  -0.335
    1   AR   Ar  180   5.260   1.528  -5.153
    1   AR   Ar  181   0.057   5.527   1.709
    1   AR   Ar  182   1.165   6.355   3.290
    1   AR   Ar  183   4.806   5.243   2.040
    1   AR   Ar  184   4.481   6.704   0.275
    1   AR   Ar  185   2.796   4.764   4.826
    1   AR   Ar  186   2.524   5.116   3.120
    1   AR   Ar  187   3.924   6.849   3.214
    1   AR   Ar  188   2.628   6.966   2.230
    1   AR   Ar  189   4.972   3.182   6.025
    1   AR   Ar  190   3.314   5.605   3.677
    1   AR   Ar  191   2.394   6.187   7.521
    1   AR   Ar  192   4.480   5.229   6.261
    1   AR   Ar  193   2.785   6.173   1.509
    1   AR   Ar  194   5.087   3.765  -0.521
    1   AR   Ar  195   5.953   0.876   0.231
    1   AR   Ar  196   3.776   0.967  -1.223
    1   AR   Ar  197   4.446   1.470   1.115
    1   AR   Ar  198   5.320   0.287   2.431
    1   AR   Ar  199   2.189   0.065   3.350
    1   AR   Ar  200   4.827   2.793   0.724
    1   AR   Ar  201   5.722   5.744   3.112
    1   AR   Ar  202   5.245   1.754   4.986
    1   AR   Ar  203   6.994   6.516   3.369
    1   AR   Ar  204   5.583   5.752   6.074
    1   AR   Ar  205   6.665   1.495   1.532
    1   AR   Ar  206   6.140   0.737   5.613
    1   AR   Ar  207   0.540   2.152   5.131
    1   AR   Ar  208   0.473   6.166   4.134
    1   AR   Ar  209   0.062   2.307  -2.311
    1   AR   Ar  210   2.526   6.971   0.709
    1   AR   Ar  211   0.111   3.423   0.772
    1   AR   Ar  212   6.143   3.863  -0.122
    1   AR   Ar  213   3.008   0.688   1.273
    1   AR   Ar  214   4.520   4.144   2.387
    1   AR   Ar  215   6.476   3.062   2.101
    1   AR   Ar  216   1.027   2.386   0.724
    1   AR   Ar  217   5.063   1.671   3.597
    1   AR   Ar  218   4.899   3.424   4.479
    1   AR   Ar  219   4.106   3.437   3.382
    1   AR   Ar  220   4.113   3.619   1.243
    1   AR   Ar  221   6.562   5.717   3.924
    1   AR   Ar  222   5.693   6.915   6.116
    1   AR   Ar  223   6.306   1.891   6.663
    1   AR   Ar  224   4.685   2.568   5.214
    1   AR   Ar  225   5.945   3.224   3.187
    1   AR   Ar  226   1.545   3.319   3.055
    1   AR   Ar  227   0.101   3.830   2.101
    1   AR   Ar  228   6.048   7.018   1.229
    1   AR   Ar  229   5.844   5.422  -0.979
    1   AR   Ar  230   3.627   3.766   4.298
    1   AR   Ar  231   4.805   1.757   2.006
    1   AR   Ar  232   5.656   2.850   1.558
    1   AR   Ar  233   6.547   2.399   3.693
    1   AR   Ar  234   5.391   2.621   4.027
    1   AR   Ar  235   6.727   0.636   4.144
    1   AR   Ar  236   5.017   5.050   5.304
    1   AR   Ar  237   5.144   2.343   6.703
    1   AR   Ar  238   5.463   4.891   6.906
    1   AR   Ar  239   0.178   4.783  10.262
    1   AR   Ar  240   7.060   2.576   7.123
    1   AR   Ar  241   1.967   5.764  -0.775
    1   AR   Ar  242   5.490   5.952   0.885
    1   AR   Ar  243   4.215   5.541   3.009
    1   AR   Ar  244   0.659   5.513   0.614
    1   AR   Ar  245   3.671   0.387   2.414
    1   AR   Ar  246   5.991   6.745  -0.648
    1   AR   Ar  247   6.146   3.813   1.374
    1   AR   Ar  248   5.142   5.894  -0.283
    1   AR   Ar  249   4.487   6.822   2.355
    1   AR   Ar  250   4.790   6.086   4.090
    1   AR   Ar  251   4.969   4.606   4.154
    1   AR   Ar  252   3.381   4.848   2.530
    1   AR   Ar  253   6.285   3.029   6.433
    1   AR   Ar  254   3.960   2.154   9.977
    1   AR   Ar  255   3.346   5.568   9.979
    1   AR   Ar  256   5.945   4.592   3.411
    7.12000  7.12000 12.00000
Argon-slab step 4230
  256
    1   AR   Ar    1   4.377   3.265  -3.449
    1   AR   Ar    2   6.391   6.771   0.332
    1   AR   Ar    3   3.893   2.217  -1.832
    1   AR   Ar    4   2.025   1.441   0.996
    1   AR   Ar    5   6.560   5.713   0.679
    1   AR   Ar    6   1.211   2.235   2.271
    1   AR   Ar    7   5.085   3.807   3.562
    1   AR   Ar    8   4.835   1.988  -0.081
    1   AR   Ar    9   0.643   0.155   3.744
    1   AR   Ar   10   0.059   6.972   4.602
    1   AR   Ar   11   1.751   6.941   4.230
    1   AR   Ar   12   0.463   1.203   3.639
    1   AR   Ar   13   0.008   0.778   5.106
    1   AR   Ar   14   4.515   0.994   6.658
    1   AR   Ar   15   3.184   6.804   8.601
    1   AR   Ar   16   0.989   6.839   4.957
    1   AR   Ar   17   5.392   1.858   0.949
    1   AR   Ar   18   6.877   5.261  -0.363
    1   AR   Ar   19   4.167   3.457   0.024
    1   AR   Ar   20   0.012   4.392  -2.908
    1   AR   Ar   21   2.488   2.225   1.835
    1   AR   Ar   22   6.210   1.419   2.655
    1   AR   Ar   23   0.334   6.629   1.111
    1   AR   Ar   24   5.125   2.896   2.611
    1   AR   Ar   25   0.578   2.585   3.859
    1   AR   Ar   26   6.074   6.754   4.388
    1   AR   Ar   27   1.734   0.950   2.513
    1   AR   Ar   28   1.958   2.719   3.808
    1   AR   Ar   29   5.787   1.160   7.915
    1   AR   Ar   30   1.576   0.893   3.589
    1   AR   Ar   31   3.307   0.005   7.630
    1   AR   Ar   32   0.815   2.824   6.344
    1   AR   Ar   33   0.659   4.092  -0.318
    1   AR   Ar   34   0.779   4.558   2.496
    1   AR   Ar   35   6.186   5.547   1.617
    1   AR   Ar   36   6.082   2.784  -2.698
    1   AR   Ar   37   4.377   2.684   1.688
    1   AR   Ar   38   6.815   4.081   3.612
    1   AR   Ar   39   0.115   3.124   3.163
    1   AR   Ar   40   1.994   4.662   1.576
    1   AR   Ar   41   0.002   2.026   2.955
    1   AR   Ar   42   5.881   5.112   4.764
    1   AR   Ar   43   6.929   2.826   5.781
    1   AR   Ar   44   0.633   4.273   3.428
    1   AR   Ar   45   0.708   3.429   5.273
    1   AR   Ar   46   0.258   4.626   5.454
    1   AR   Ar   47   3.303   5.249   7.161
    1   AR   Ar   48   5.774   3.195   7.401
    1   AR   Ar   49   5.753   0.176  -1.647
    1   AR   Ar   50   3.316   4.814   0.164
    1   AR   Ar   51   5.804   3.874   2.385
    1   AR   Ar   52   5.378   2.594  -1.711
    1   AR   Ar   53   5.513   6.297   2.220
    1   AR   Ar   54   0.807   6.730   2.205
    1   AR   Ar   55   6.801   4.729   2.392
    1   AR   Ar   56   0.073   0.568   2.902
    1   AR   Ar   57   3.992   4.542   3.392
    1   AR   Ar   58   0.518   3.524   4.267
    1   AR   Ar   59   2.621   5.261   5.784
    1   AR   Ar   60   0.364   5.412   3.112
    1   AR   Ar   61   0.173   3.592   6.461
    1   AR   Ar   62   6.785   4.495   4.598
    1   AR   Ar   63   1.351   1.792   6.667
    1   AR   Ar   64   0.492   5.575   5.117
    1   AR   Ar   65   3.628   6.860   1.453
    1   AR   Ar   66   0.540   1.737   1.273
    1   AR   Ar   67   4.649   6.980  -0.859
    1   AR   Ar   68   0.602   0.235  -0.902
    1   AR   Ar   69   2.330   0.912   0.065
    1   AR   Ar   70   0.653   1.215   2.191
    1   AR   Ar   71   2.617   1.361   2.339
    1   AR   Ar   72   4.408   0.441   1.519
    1   AR   Ar   73   3.255   0.777   3.483
    1   AR   Ar   74   1.073   0.998   4.546
    1   AR   Ar   75   3.411   0.762   4.779
    1   AR   Ar   76   1.783   0.506   1.442
    1   AR   Ar   77   2.105   0.006   5.385
    1   AR   Ar   78   6.992   5.716   6.087
    1   AR   Ar   79   3.874   6.403   6.970
    1   AR   Ar   80   3.945   5.629   5.388
    1   AR   Ar   81   1.683   6.222   0.290
    1   AR   Ar   82   7.095   4.501   0.521
    1   AR   Ar   83   1.006   2.894  -0.269
    1   AR   Ar   84   0.693   4.386   1.346
    1   AR   Ar   85   1.548   3.219   1.107
    1   AR   Ar   86   1.813   5.674   1.055
    1   AR   Ar   87   2.587   3.269   2.185
    1   AR   Ar   88   2.966   5.075   1.377
    1   AR   Ar   89   0.072   2.315   1.963
    1   AR   Ar   90   3.358   1.796   4.704
    1   AR   Ar   91   1.293   1.889   3.323
    1   AR   Ar   92   1.366   3.640   2.140
    1   AR   Ar   93   1.213   1.350   5.690
    1   AR   Ar   94   1.332   6.963   9.900
    1   AR   Ar   95   4.420   1.196   5.380
    1   AR   Ar   96   3.178   7.006   4.146
    1   AR   Ar   97   4.219   1.916  -0.916
    1   AR   Ar   98   1.735   4.357   3.976
    1   AR   Ar   99   6.964   1.892   0.351
    1   AR   Ar  100   0.623   3.144  -1.790
    1   AR   Ar  101   3.806   5.896   1.925
    1   AR   Ar  102   3.752   1.412   2.604
    1   AR   Ar  103   2.449   4.605   0.627
    1   AR   Ar  104   3.265   5.201  -0.885
    1   AR   Ar  105   2.373   1.606   3.763
    1   AR   Ar  106   3.847   2.743   5.746
    1   AR   Ar  107   1.165   4.374   4.919
    1   AR   Ar  108   2.443   1.263   4.805
    1   AR   Ar  109   1.457   3.102   4.603
    1   AR   Ar  110   2.555   2.575   4.863
    1   AR   Ar  111   4.915   6.294   7.196
    1   AR   Ar  112   1.003   6.729   6.381
    1   AR   Ar  113   3.691   4.262  -0.904
    1   AR   Ar  114   2.046   7.055  -1.648
    1   AR   Ar  115   1.627   5.150   0.249
    1   AR   Ar  116   4.335   0.853  -0.130
    1   AR   Ar  117   0.586   4.829   4.233
    1   AR   Ar  118   1.453   4.987   3.211
    1   AR   Ar  119   2.033   4.190   2.716
    1   AR   Ar  120   1.697   6.299   1.897
    1   AR   Ar  121   5.272   4.002   5.356
    1   AR   Ar  122   2.986   5.997   4.667
    1   AR   Ar  123   2.897   3.367   5.563
    1   AR   Ar  124   1.151   5.352   2.020
    1   AR   Ar  125   6.433   2.974   4.803
    1   AR   Ar  126   6.598   6.818   5.609
    1   AR   Ar  127   4.234   4.145   6.497
    1   AR   Ar  128   2.785   2.741   6.480
    1   AR   Ar  129   1.628   5.794   4.017
    1   AR   Ar  130   5.081   1.681  -4.002
    1   AR   Ar  131   4.758   3.905  -2.386
    1   AR   Ar  132   0.800   1.773  -0.431
    1   AR   Ar  133   4.841   0.085   3.948
    1   AR   Ar  134   4.289   1.434   4.335
    1   AR   Ar  135   6.063   1.438   3.722
    1   AR   Ar  136   6.558   6.859   2.379
    1   AR   Ar  137   2.225   4.122   5.867
    1   AR   Ar  138   5.383   1.404   5.906
    1   AR   Ar  139   5.660   2.505   5.616
    1   AR   Ar  140   4.034   6.972   5.069
    1   AR   Ar  141   3.805   4.836   4.576
    1   AR   Ar  142   4.379   7.093   6.145
    1   AR   Ar  143   6.479   6.647   6.877
    1   AR   Ar  144   6.553   1.826   5.020
    1   AR   Ar  145   4.434   5.061  -0.882
    1   AR   Ar  146   3.401   2.576   2.612
    1   AR   Ar  147   4.382   3.332  -1.397
    1   AR   Ar  148   3.090   6.195  -1.011
    1   AR   Ar  149   1.800   1.582  -0.777
    1   AR   Ar  150   2.034   2.440   2.824
    1   AR   Ar  151   3.007   2.568   3.814
    1   AR   Ar  152   1.694   2.524  -1.714
    1   AR   Ar  153   5.465   0.698   4.424
    1   AR   Ar  154   4.375   2.577   4.045
    1   AR   Ar  155   6.556   3.934   5.626
    1   AR   Ar  156   2.975   4.675   3.917
    1   AR   Ar  157   1.493   4.859   6.395
    1   AR   Ar  158   0.111   1.910   6.178
    1   AR   Ar  159   3.524   0.557   6.208
    1   AR   Ar  160   1.555   1.854   4.579
    1   AR   Ar  161   4.962   4.842   3.083
    1   AR   Ar  162   4.059   6.225  -0.620
    1   AR   Ar  163   5.798   4.846   1.037
    1   AR   Ar  164   2.261   5.449   2.132
    1   AR   Ar  165   3.604   2.593   0.891
    1   AR   Ar  166   2.552   3.479   4.116
    1   AR   Ar  167   5.830   6.799   3.320
    1   AR   Ar  168   5.595   3.683  -1.759
    1   AR   Ar  169   3.158   3.696   2.921
    1   AR   Ar  170   1.697   3.220   5.746
    1   AR   Ar  171   5.916   3.890   4.274
    1   AR   Ar  172   4.055   3.811   5.241
    1   AR   Ar  173   2.016   2.004   5.678
    1   AR   Ar  174   1.653   6.159   5.454
    1   AR   Ar  175   3.548   1.648   5.842
    1   AR   Ar  176   3.703   2.879   4.714
    1   AR   Ar  177   0.927   5.243  -0.472
    1   AR   Ar  178   3.141   5.892   0.395
    1   AR   Ar  179   3.496   7.037  -0.342
    1   AR   Ar  180   5.262   1.553  -5.184
    1   AR   Ar  181   0.035   5.556   1.719
    1   AR   Ar  182   1.170   6.291   3.285
    1   AR   Ar  183   4.792   5.243   2.043
    1   AR   Ar  184   4.474   6.710   0.258
    1   AR   Ar  185   2.780   4.759   4.812
    1   AR   Ar  186   2.495   5.119   3.082
    1   AR   Ar  187   3.947   6.852   3.248
    1   AR   Ar  188   2.618   6.985   2.240
    1   AR   Ar  189   4.972   3.201   6.019
    1   AR   Ar  190   3.307   5.596   3.670
    1   AR   Ar  191   2.398   6.176   7.506
    1   AR   Ar  192   4.482   5.185   6.290
    1   AR   Ar  193   2.807   6.213   1.527
    1   AR   Ar  194   5.088   3.774  -0.564
    1   AR   Ar  195   5.927   0.902   0.248
    1   AR   Ar  196   3.771   0.971  -1.259
    1   AR   Ar  197   4.460   1.485   1.082
    1   AR   Ar  198   5.339   0.279   2.429
    1   AR   Ar  199   2.160   0.071   3.384
    1   AR   Ar  200   4.803   2.831   0.733
    1   AR   Ar  201   5.755   5.756   3.115
    1   AR   Ar  202   5.246   1.767   4.981
    1   AR   Ar  203   7.010   6.503   3.376
    1   AR   Ar  204   5.586   5.780   6.057
    1   AR   Ar  205   6.626   1.488   1.542
    1   AR   Ar  206   6.134   0.742   5.621
    1   AR   Ar  207   0.526   2.147   5.133
    1   AR   Ar  208   0.485   6.148   4.144
    1   AR   Ar  209   0.043   2.316  -2.288
    1   AR   Ar  210   2.533   6.972   0.707
    1   AR   Ar  211   0.137   3.433   0.746
    1   AR   Ar  212   6.120   3.901  -0.114
    1   AR   Ar  213   3.035   0.669   1.253
    1   AR   Ar  214   4.522   4.144   2.377
    1   AR   Ar  215   6.479   3.039   2.056
    1   AR   Ar  216   1.034   2.354   0.740
    1   AR   Ar  217   5.075   1.656   3.619
    1   AR   Ar  218   4.916   3.420   4.458
    1   AR   Ar  219   4.125   3.440   3.410
    1   AR   Ar  220   4.099   3.632   1.252
    1   AR   Ar  221   6.549   5.756   3.929
    1   AR   Ar  222   5.715   6.915   6.070
    1   AR   Ar  223   6.295   1.902   6.640
    1   AR   Ar  224   4.707   2.539   5.184
    1   AR   Ar  225   5.953   3.240   3.196
    1   AR   Ar  226   1.530   3.314   3.066
    1   AR   Ar  227   0.116   3.819   2.117
    1   AR   Ar  228   6.071   7.032   1.235
    1   AR   Ar  229   5.869   5.407  -1.000
    1   AR   Ar  230   3.611   3.773   4.300
    1   AR   Ar  231   4.728   1.766   1.989
    1   AR   Ar  232   5.677   2.835   1.521
    1   AR   Ar  233   6.602   2.415   3.702
    1   AR   Ar  234   5.364   2.628   4.031
    1   AR   Ar  235   6.752   0.648   4.146
    1   AR   Ar  236   5.009   5.048   5.299
    1   AR   Ar  237   5.144   2.341   6.679
    1   AR   Ar  238   5.462   4.898   6.909
    1   AR   Ar  239   0.213   4.783  10.249
    1   AR   Ar  240   7.067   2.549   7.113
    1   AR   Ar  241   1.953   5.762  -0.767
    1   AR   Ar  242   5.477   5.972   0.932
    1   AR   Ar  243   4.181   5.523   3.050
    1   AR   Ar  244   0.635   5.520   0.602
    1   AR   Ar  245   3.692   0.376   2.399
    1   AR   Ar  246   5.952   6.740  -0.644
    1   AR   Ar  247   6.150   3.840   1.397
    1   AR   Ar  248   5.154   5.944  -0.284
    1   AR   Ar  249   4.463   6.825   2.397
    1   AR   Ar  250   4.786   6.047   4.104
    1   AR   Ar  251   4.960   4.585   4.206
    1   AR   Ar  252   3.385   4.858   2.499
    1   AR   Ar  253   6.257   3.021   6.444
    1   AR   Ar  254   3.996   2.181   9.969
    1   AR   Ar  255   3.328   5.571   9.981
    1   AR   Ar  256   5.943   4.607   3.412
    7.12000  7.12000 12.00000
Argon-slab step 4235
  256
    1   AR   Ar    1   4.376   3.285  -3.450
    1   AR   Ar    2   6.401   6.794   0.323
    1   AR   Ar    3   3.914   2.194  -1.841
    1   AR   Ar    4   2.023   1.439   0.995
    1   AR   Ar    5   6.547   5.681   0.659
    1   AR   Ar    6   1.202   2.250   2.234
    1   AR   Ar    7   5.110   3.815   3.577
    1   AR   Ar    8   4.854   1.999  -0.086
    1   AR   Ar    9   0.626   0.152   3.751
    1   AR   Ar   10   0.029   6.955   4.629
    1   AR   Ar   11   1.766   6.909   4.225
    1   AR   Ar   12   0.419   1.239   3.668
    1   AR   Ar   13   7.099   0.795   5.103
    1   AR   Ar   14   4.503   1.035   6.650
    1   AR   Ar   15   3.180   6.788   8.583
    1   AR   Ar   16   0.949   6.880   4.985
    1   AR   Ar   17   5.398   1.850   0.919
    1   AR   Ar   18   6.903   5.250  -0.352
    1   AR   Ar   19   4.186   3.461   0.044
    1   AR   Ar   20   0.024   4.397  -2.890
    1   AR   Ar   21   2.482   2.229   1.833
    1   AR   Ar   22   6.165   1.400   2.637
    1   AR   Ar   23   0.328   6.590   1.114
    1   AR   Ar   24   5.110   2.888   2.613
    1   AR   Ar   25   0.593   2.581   3.832
    1   AR   Ar   26   6.042   6.758   4.381
    1   AR   Ar   27   1.747   0.946   2.511
    1   AR   Ar   28   1.980   2.707   3.805
    1   AR   Ar   29   5.765   1.174   7.889
    1   AR   Ar   30   1.539   0.901   3.596
    1   AR   Ar   31   3.270   0.009   7.655
    1   AR   Ar   32   0.869   2.828   6.329
    1   AR   Ar   33   0.642   4.106  -0.295
    1   AR   Ar   34   0.784   4.574   2.487
    1   AR   Ar   35   6.168   5.545   1.645
    1   AR   Ar   36   6.083   2.809  -2.695
    1   AR   Ar   37   4.372   2.691   1.674
    1   AR   Ar   38   6.836   4.101   3.620
    1   AR   Ar   39   0.122   3.122   3.174
    1   AR   Ar   40   1.992   4.694   1.601
    1   AR   Ar   41   0.008   2.041   2.970
    1   AR   Ar   42   5.826   5.139   4.749
    1   AR   Ar   43   6.966   2.807   5.769
    1   AR   Ar   44   0.640   4.254   3.423
    1   AR   Ar   45   0.704   3.445   5.282
    1   AR   Ar   46   0.278   4.589   5.482
    1   AR   Ar   47   3.294   5.284   7.157
    1   AR   Ar   48   5.741   3.174   7.404
    1   AR   Ar   49   5.805   0.145  -1.602
    1   AR   Ar   50   3.313   4.835   0.142
    1   AR   Ar   51   5.793   3.861   2.357
    1   AR   Ar   52   5.379   2.604  -1.719
    1   AR   Ar   53   5.488   6.268   2.210
    1   AR   Ar   54   0.821   6.751   2.201
    1   AR   Ar   55   6.808   4.723   2.410
    1   AR   Ar   56   0.068   0.593   2.882
    1   AR   Ar   57   3.979   4.546   3.396
    1   AR   Ar   58   0.493   3.521   4.263
    1   AR   Ar   59   2.633   5.269   5.782
    1   AR   Ar   60   0.332   5.405   3.114
    1   AR   Ar   61   0.155   3.598   6.486
    1   AR   Ar   62   6.779   4.468   4.649
    1   AR   Ar   63   1.365   1.818   6.659
    1   AR   Ar   64   0.467   5.579   5.155
    1   AR   Ar   65   3.600   6.889   1.449
    1   AR   Ar   66   0.545   1.707   1.276
    1   AR   Ar   67   4.648   7.004  -0.839
    1   AR   Ar   68   0.592   0.241  -0.911
    1   AR   Ar   69   2.306   0.904   0.065
    1   AR   Ar   70   0.652   1.236   2.177
    1   AR   Ar   71   2.606   1.372   2.338
    1   AR   Ar   72   4.379   0.453   1.494
    1   AR   Ar   73   3.256   0.802   3.495
    1   AR   Ar   74   1.088   0.973   4.554
    1   AR   Ar   75   3.383   0.765   4.784
    1   AR   Ar   76   1.814   0.492   1.457
    1   AR   Ar   77   2.063   0.015   5.393
    1   AR   Ar   78   7.008   5.713   6.083
    1   AR   Ar   79   3.870   6.354   6.966
    1   AR   Ar   80   3.940   5.642   5.413
    1   AR   Ar   81   1.656   6.189   0.301
    1   AR   Ar   82   7.091   4.482   0.498
    1   AR   Ar   83   0.977   2.891  -0.267
    1   AR   Ar   84   0.695   4.400   1.342
    1   AR   Ar   85   1.549   3.212   1.090
    1   AR   Ar   86   1.812   5.655   1.090
    1   AR   Ar   87   2.560   3.257   2.175
    1   AR   Ar   88   2.958   5.085   1.364
    1   AR   Ar   89   0.098   2.326   1.963
    1   AR   Ar   90   3.330   1.772   4.685
    1   AR   Ar   91   1.289   1.904   3.325
    1   AR   Ar   92   1.385   3.591   2.127
    1   AR   Ar   93   1.211   1.346   5.676
    1   AR   Ar   94   1.347   6.980   9.874
    1   AR   Ar   95   4.398   1.229   5.356
    1   AR   Ar   96   3.143   6.990   4.177
    1   AR   Ar   97   4.210   1.902  -0.961
    1   AR   Ar   98   1.741   4.365   3.971
    1   AR   Ar   99   6.955   1.872   0.343
    1   AR   Ar  100   0.616   3.133  -1.789
    1   AR   Ar  101   3.805   5.892   1.932
    1   AR   Ar  102   3.740   1.435   2.609
    1   AR   Ar  103   2.445   4.581   0.627
    1   AR   Ar  104   3.248   5.201  -0.907
    1   AR   Ar  105   2.381   1.633   3.753
    1   AR   Ar  106   3.865   2.727   5.752
    1   AR   Ar  107   1.185   4.362   4.922
    1   AR   Ar  108   2.441   1.270   4.808
    1   AR   Ar  109   1.468   3.089   4.586
    1   AR   Ar  110   2.547   2.558   4.823
    1   AR   Ar  111   4.925   6.284   7.223
    1   AR   Ar  112   1.008   6.762   6.404
    1   AR   Ar  113   3.724   4.276  -0.907
    1   AR   Ar  114   2.058   7.051  -1.663
    1   AR   Ar  115   1.620   5.168   0.244
    1   AR   Ar  116   4.323   0.836  -0.086
    1   AR   Ar  117   0.588   4.855   4.239
    1   AR   Ar  118   1.431   4.979   3.239
    1   AR   Ar  119   2.031   4.205   2.718
    1   AR   Ar  120   1.673   6.294   1.901
    1   AR   Ar  121   5.296   4.012   5.366
    1   AR   Ar  122   3.001   5.981   4.656
    1   AR   Ar  123   2.845   3.352   5.551
    1   AR   Ar  124   1.157   5.355   2.009
    1   AR   Ar  125   6.438   3.004   4.769
    1   AR   Ar  126   6.609   6.820   5.606
    1   AR   Ar  127   4.226   4.126   6.536
    1   AR   Ar  128   2.821   2.739   6.451
    1   AR   Ar  129   1.651   5.764   4.022
    1   AR   Ar  130   5.091   1.672  -4.005
    1   AR   Ar  131   4.784   3.927  -2.406
    1   AR   Ar  132   0.785   1.790  -0.401
    1   AR   Ar  133   4.811   0.093   3.958
    1   AR   Ar  134   4.289   1.470   4.283
    1   AR   Ar  135   6.056   1.438   3.719
    1   AR   Ar  136   6.544   6.882   2.359
    1   AR   Ar  137   2.240   4.146   5.843
    1   AR   Ar  138   5.388   1.390   5.912
    1   AR   Ar  139   5.695   2.530   5.605
    1   AR   Ar  140   4.031   6.942   5.051
    1   AR   Ar  141   3.808   4.841   4.589
    1   AR   Ar  142   4.373   7.093   6.148
    1   AR   Ar  143   6.493   6.645   6.893
    1   AR   Ar  144   6.568   1.812   5.032
    1   AR   Ar  145   4.413   5.042  -0.878
    1   AR   Ar  146   3.367   2.576   2.567
    1   AR   Ar  147   4.385   3.355  -1.387
    1   AR   Ar  148   3.102   6.234  -1.021
    1   AR   Ar  149   1.808   1.568  -0.762
    1   AR   Ar  150   2.128   2.455   2.828
    1   AR   Ar  151   3.025   2.569   3.803
    1   AR   Ar  152   1.686   2.554  -1.684
    1   AR   Ar  153   5.492   0.704   4.440
    1   AR   Ar  154   4.376   2.565   4.044
    1   AR   Ar  155   6.549   3.934   5.613
    1   AR   Ar  156   2.968   4.685   3.921
    1   AR   Ar  157   1.500   4.881   6.367
    1   AR   Ar  158   0.096   1.919   6.170
    1   AR   Ar  159   3.516   0.517   6.190
    1   AR   Ar  160   1.584   1.852   4.570
    1   AR   Ar  161   4.953   4.843   3.091
    1   AR   Ar  162   4.059   6.207  -0.652
    1   AR   Ar  163   5.789   4.839   1.045
    1   AR   Ar  164   2.244   5.464   2.149
    1   AR   Ar  165   3.593   2.630   0.878
    1   AR   Ar  166   2.552   3.477   4.118
    1   AR   Ar  167   5.812   6.835   3.306
    1   AR   Ar  168   5.593   3.678  -1.780
    1   AR   Ar  169   3.167   3.692   2.937
    1   AR   Ar  170   1.693   3.224   5.720
    1   AR   Ar  171   5.900   3.875   4.273
    1   AR   Ar  172   4.062   3.778   5.286
    1   AR   Ar  173   2.049   2.000   5.674
    1   AR   Ar  174   1.697   6.155   5.474
    1   AR   Ar  175   3.522   1.602   5.872
    1   AR   Ar  176   3.710   2.860   4.707
    1   AR   Ar  177   0.963   5.229  -0.503
    1   AR   Ar  178   3.155   5.894   0.416
    1   AR   Ar  179   3.519   7.035  -0.346
    1   AR   Ar  180   5.265   1.579  -5.214
    1   AR   Ar  181   0.029   5.585   1.729
    1   AR   Ar  182   1.170   6.233   3.272
    1   AR   Ar  183   4.777   5.243   2.047
    1   AR   Ar  184   4.465   6.715   0.243
    1   AR   Ar  185   2.753   4.757   4.832
    1   AR   Ar  186   2.468   5.123   3.047
    1   AR   Ar  187   3.964   6.853   3.292
    1   AR   Ar  188   2.608   7.006   2.251
    1   AR   Ar  189   4.970   3.223   6.014
    1   AR   Ar  190   3.303   5.595   3.663
    1   AR   Ar  191   2.404   6.166   7.490
    1   AR   Ar  192   4.486   5.142   6.319
    1   AR   Ar  193   2.825   6.249   1.543
    1   AR   Ar  194   5.088   3.783  -0.607
    1   AR   Ar  195   5.902   0.927   0.266
    1   AR   Ar  196   3.767   0.974  -1.294
    1   AR   Ar  197   4.464   1.496   1.037
    1   AR   Ar  198   5.382   0.241   2.438
    1   AR   Ar  199   2.142   0.078   3.403
    1   AR   Ar  200   4.780   2.868   0.740
    1   AR   Ar  201   5.788   5.764   3.120
    1   AR   Ar  202   5.257   1.766   4.959
    1   AR   Ar  203   7.029   6.496   3.389
    1   AR   Ar  204   5.587   5.807   6.041
    1   AR   Ar  205   6.585   1.480   1.553
    1   AR   Ar  206   6.131   0.744   5.626
    1   AR   Ar  207   0.513   2.142   5.135
    1   AR   Ar  208   0.502   6.125   4.156
    1   AR   Ar  209   0.023   2.325  -2.265
    1   AR   Ar  210   2.537   6.978   0.705
    1   AR   Ar  211   0.124   3.456   0.750
    1   AR   Ar  212   6.098   3.939  -0.104
    1   AR   Ar  213   3.061   0.651   1.235
    1   AR   Ar  214   4.524   4.144   2.367
    1   AR   Ar  215   6.488   3.020   2.020
    1   AR   Ar  216   1.051   2.334   0.744
    1   AR   Ar  217   5.081   1.642   3.640
    1   AR   Ar  218   4.926   3.420   4.451
    1   AR   Ar  219   4.149   3.441   3.443
    1   AR   Ar  220   4.085   3.646   1.259
    1   AR   Ar  221   6.534   5.791   3.937
    1   AR   Ar  222   5.727   6.915   6.028
    1   AR   Ar  223   6.285   1.915   6.622
    1   AR   Ar  224   4.717   2.523   5.151
    1   AR   Ar  225   5.965   3.253   3.211
    1   AR   Ar  226   1.511   3.311   3.085
    1   AR   Ar  227   0.132   3.803   2.132
    1   AR   Ar  228   6.091   7.047   1.252
    1   AR   Ar  229   5.899   5.391  -1.017
    1   AR   Ar  230   3.591   3.791   4.293
    1   AR   Ar  231   4.657   1.773   1.984
    1   AR   Ar  232   5.639   2.852   1.512
    1   AR   Ar  233   6.650   2.435   3.721
    1   AR   Ar  234   5.354   2.631   4.032
    1   AR   Ar  235   6.724   0.641   4.124
    1   AR   Ar  236   4.994   5.048   5.296
    1   AR   Ar  237   5.147   2.338   6.653
    1   AR   Ar  238   5.459   4.906   6.911
    1   AR   Ar  239   0.208   4.763  10.273
    1   AR   Ar  240   7.074   2.524   7.100
    1   AR   Ar  241   1.940   5.759  -0.756
    1   AR   Ar  242   5.464   5.994   0.977
    1   AR   Ar  243   4.146   5.512   3.087
    1   AR   Ar  244   0.609   5.527   0.591
    1   AR   Ar  245   3.706   0.366   2.383
    1   AR   Ar  246   5.910   6.734  -0.641
    1   AR   Ar  247   6.158   3.869   1.416
    1   AR   Ar  248   5.167   5.996  -0.285
    1   AR   Ar  249   4.446   6.819   2.430
    1   AR   Ar  250   4.781   6.008   4.116
    1   AR   Ar  251   4.949   4.568   4.262
    1   AR   Ar  252   3.390   4.868   2.472
    1   AR   Ar  253   6.242   3.023   6.446
    1   AR   Ar  254   4.031   2.209   9.961
    1   AR   Ar  255   3.321   5.597   9.990
    1   AR   Ar  256   5.940   4.624   3.413
    7.12000  7.12000 12.00000
Argon-slab step 4240
  256
    1   AR   Ar    1   4.375   3.305  -3.450
    1   AR   Ar    2   6.392   6.807   0.322
    1   AR   Ar    3   3.931   2.175  -1.862
    1   AR   Ar    4   2.021   1.438   0.996
    1   AR   Ar    5   6.536   5.650   0.636
    1   AR   Ar    6   1.192   2.265   2.196
    1   AR   Ar    7   5.140   3.826   3.574
    1   AR   Ar    8   4.873   2.009  -0.089
    1   AR   Ar    9   0.610   0.149   3.760
    1   AR   Ar   10   7.108   6.935   4.654
    1   AR   Ar   11   1.771   6.870   4.239
    1   AR   Ar   12   0.377   1.278   3.699
    1   AR   Ar   13   7.072   0.814   5.102
    1   AR   Ar   14   4.492   1.076   6.639
    1   AR   Ar   15   3.175   6.768   8.575
    1   AR   Ar   16   0.918   6.920   5.017
    1   AR   Ar   17   5.412   1.844   0.889
    1   AR   Ar   18   6.929   5.238  -0.339
    1   AR   Ar   19   4.205   3.466   0.064
    1   AR   Ar   20   0.036   4.403  -2.873
    1   AR   Ar   21   2.474   2.238   1.825
    1   AR   Ar   22   6.121   1.381   2.618
    1   AR   Ar   23   0.320   6.550   1.117
    1   AR   Ar   24   5.093   2.880   2.615
    1   AR   Ar   25   0.618   2.565   3.814
    1   AR   Ar   26   6.012   6.763   4.375
    1   AR   Ar   27   1.747   0.936   2.511
    1   AR   Ar   28   1.999   2.684   3.802
    1   AR   Ar   29   5.743   1.188   7.862
    1   AR   Ar   30   1.499   0.911   3.605
    1   AR   Ar   31   3.234   0.015   7.669
    1   AR   Ar   32   0.922   2.828   6.313
    1   AR   Ar   33   0.626   4.120  -0.271
    1   AR   Ar   34   0.788   4.583   2.474
    1   AR   Ar   35   6.142   5.548   1.682
    1   AR   Ar   36   6.084   2.833  -2.690
    1   AR   Ar   37   4.364   2.703   1.664
    1   AR   Ar   38   6.841   4.115   3.631
    1   AR   Ar   39   0.125   3.134   3.173
    1   AR   Ar   40   1.978   4.704   1.622
    1   AR   Ar   41   0.021   2.047   2.976
    1   AR   Ar   42   5.780   5.166   4.727
    1   AR   Ar   43   7.006   2.793   5.747
    1   AR   Ar   44   0.665   4.228   3.418
    1   AR   Ar   45   0.673   3.459   5.289
    1   AR   Ar   46   0.300   4.550   5.514
    1   AR   Ar   47   3.285   5.321   7.151
    1   AR   Ar   48   5.749   3.184   7.401
    1   AR   Ar   49   5.856   0.114  -1.558
    1   AR   Ar   50   3.314   4.857   0.118
    1   AR   Ar   51   5.779   3.849   2.336
    1   AR   Ar   52   5.366   2.635  -1.724
    1   AR   Ar   53   5.462   6.239   2.198
    1   AR   Ar   54   0.829   6.775   2.200
    1   AR   Ar   55   6.812   4.716   2.432
    1   AR   Ar   56   0.063   0.608   2.865
    1   AR   Ar   57   3.963   4.544   3.404
    1   AR   Ar   58   0.465   3.524   4.256
    1   AR   Ar   59   2.645   5.278   5.780
    1   AR   Ar   60   0.301   5.398   3.117
    1   AR   Ar   61   0.134   3.605   6.509
    1   AR   Ar   62   6.770   4.441   4.697
    1   AR   Ar   63   1.378   1.846   6.650
    1   AR   Ar   64   0.444   5.586   5.189
    1   AR   Ar   65   3.576   6.918   1.445
    1   AR   Ar   66   0.542   1.666   1.280
    1   AR   Ar   67   4.652   7.035  -0.820
    1   AR   Ar   68   0.620   0.265  -0.880
    1   AR   Ar   69   2.297   0.919   0.069
    1   AR   Ar   70   0.653   1.256   2.170
    1   AR   Ar   71   2.616   1.362   2.330
    1   AR   Ar   72   4.354   0.468   1.470
    1   AR   Ar   73   3.256   0.827   3.508
    1   AR   Ar   74   1.097   0.940   4.564
    1   AR   Ar   75   3.359   0.760   4.791
    1   AR   Ar   76   1.847   0.475   1.473
    1   AR   Ar   77   2.022   0.029   5.399
    1   AR   Ar   78   7.024   5.716   6.078
    1   AR   Ar   79   3.864   6.306   6.961
    1   AR   Ar   80   3.936   5.656   5.437
    1   AR   Ar   81   1.628   6.165   0.300
    1   AR   Ar   82   7.085   4.467   0.474
    1   AR   Ar   83   0.970   2.895  -0.280
    1   AR   Ar   84   0.698   4.433   1.351
    1   AR   Ar   85   1.551   3.208   1.075
    1   AR   Ar   86   1.817   5.629   1.145
    1   AR   Ar   87   2.589   3.265   2.187
    1   AR   Ar   88   2.955   5.101   1.354
    1   AR   Ar   89   0.129   2.337   1.963
    1   AR   Ar   90   3.306   1.759   4.666
    1   AR   Ar   91   1.286   1.920   3.327
    1   AR   Ar   92   1.401   3.545   2.105
    1   AR   Ar   93   1.205   1.341   5.660
    1   AR   Ar   94   1.363   6.997   9.848
    1   AR   Ar   95   4.376   1.261   5.333
    1   AR   Ar   96   3.107   6.974   4.208
    1   AR   Ar   97   4.218   1.883  -0.954
    1   AR   Ar   98   1.752   4.355   3.986
    1   AR   Ar   99   6.947   1.852   0.335
    1   AR   Ar  100   0.610   3.123  -1.787
    1   AR   Ar  101   3.800   5.885   1.947
    1   AR   Ar  102   3.728   1.459   2.613
    1   AR   Ar  103   2.434   4.554   0.625
    1   AR   Ar  104   3.230   5.203  -0.927
    1   AR   Ar  105   2.389   1.660   3.743
    1   AR   Ar  106   3.867   2.713   5.760
    1   AR   Ar  107   1.208   4.348   4.928
    1   AR   Ar  108   2.433   1.274   4.813
    1   AR   Ar  109   1.477   3.079   4.574
    1   AR   Ar  110   2.539   2.541   4.783
    1   AR   Ar  111   4.937   6.273   7.250
    1   AR   Ar  112   1.019   6.772   6.420
    1   AR   Ar  113   3.742   4.293  -0.914
    1   AR   Ar  114   2.071   7.046  -1.676
    1   AR   Ar  115   1.616   5.175   0.238
    1   AR   Ar  116   4.309   0.836  -0.071
    1   AR   Ar  117   0.588   4.888   4.246
    1   AR   Ar  118   1.404   4.979   3.262
    1   AR   Ar  119   2.031   4.220   2.720
    1   AR   Ar  120   1.654   6.294   1.904
    1   AR   Ar  121   5.321   4.022   5.373
    1   AR   Ar  122   3.012   5.952   4.658
    1   AR   Ar  123   2.796   3.334   5.534
    1   AR   Ar  124   1.122   5.374   2.004
    1   AR   Ar  125   6.442   3.033   4.736
    1   AR   Ar  126   6.632   6.821   5.598
    1   AR   Ar  127   4.220   4.103   6.592
    1   AR   Ar  128   2.857   2.737   6.420
    1   AR   Ar  129   1.677   5.730   4.034
    1   AR   Ar  130   5.100   1.662  -4.008
    1   AR   Ar  131   4.778   3.947  -2.406
    1   AR   Ar  132   0.770   1.807  -0.369
    1   AR   Ar  133   4.778   0.097   3.966
    1   AR   Ar  134   4.287   1.504   4.233
    1   AR   Ar  135   6.065   1.445   3.711
    1   AR   Ar  136   6.529   6.905   2.341
    1   AR   Ar  137   2.253   4.176   5.820
    1   AR   Ar  138   5.389   1.380   5.924
    1   AR   Ar  139   5.734   2.554   5.595
    1   AR   Ar  140   4.028   6.912   5.033
    1   AR   Ar  141   3.815   4.848   4.603
    1   AR   Ar  142   4.373   7.090   6.151
    1   AR   Ar  143   6.506   6.642   6.906
    1   AR   Ar  144   6.581   1.799   5.044
    1   AR   Ar  145   4.396   5.029  -0.873
    1   AR   Ar  146   3.333   2.575   2.523
    1   AR   Ar  147   4.389   3.378  -1.377
    1   AR   Ar  148   3.107   6.276  -1.032
    1   AR   Ar  149   1.817   1.554  -0.747
    1   AR   Ar  150   2.225   2.466   2.827
    1   AR   Ar  151   3.049   2.569   3.790
    1   AR   Ar  152   1.676   2.584  -1.653
    1   AR   Ar  153   5.470   0.707   4.420
    1   AR   Ar  154   4.372   2.548   4.035
    1   AR   Ar  155   6.540   3.930   5.600
    1   AR   Ar  156   2.964   4.683   3.900
    1   AR   Ar  157   1.507   4.902   6.338
    1   AR   Ar  158   0.088   1.920   6.162
    1   AR   Ar  159   3.502   0.481   6.171
    1   AR   Ar  160   1.615   1.860   4.561
    1   AR   Ar  161   4.947   4.842   3.099
    1   AR   Ar  162   4.058   6.186  -0.679
    1   AR   Ar  163   5.778   4.827   1.048
    1   AR   Ar  164   2.230   5.491   2.165
    1   AR   Ar  165   3.584   2.668   0.866
    1   AR   Ar  166   2.554   3.484   4.122
    1   AR   Ar  167   5.794   6.875   3.290
    1   AR   Ar  168   5.592   3.673  -1.799
    1   AR   Ar  169   3.178   3.690   2.958
    1   AR   Ar  170   1.694   3.216   5.755
    1   AR   Ar  171   5.888   3.859   4.274
    1   AR   Ar  172   4.071   3.744   5.333
    1   AR   Ar  173   2.085   1.998   5.669
    1   AR   Ar  174   1.740   6.147   5.493
    1   AR   Ar  175   3.496   1.558   5.902
    1   AR   Ar  176   3.704   2.851   4.710
    1   AR   Ar  177   0.992   5.215  -0.539
    1   AR   Ar  178   3.167   5.899   0.437
    1   AR   Ar  179   3.523   7.025  -0.354
    1   AR   Ar  180   5.267   1.605  -5.243
    1   AR   Ar  181   0.036   5.614   1.740
    1   AR   Ar  182   1.165   6.179   3.252
    1   AR   Ar  183   4.763   5.244   2.053
    1   AR   Ar  184   4.456   6.721   0.229
    1   AR   Ar  185   2.718   4.755   4.878
    1   AR   Ar  186   2.445   5.125   3.024
    1   AR   Ar  187   3.987   6.844   3.308
    1   AR   Ar  188   2.598   7.031   2.263
    1   AR   Ar  189   4.965   3.244   6.010
    1   AR   Ar  190   3.298   5.600   3.656
    1   AR   Ar  191   2.412   6.156   7.474
    1   AR   Ar  192   4.490   5.103   6.346
    1   AR   Ar  193   2.835   6.277   1.556
    1   AR   Ar  194   5.087   3.792  -0.651
    1   AR   Ar  195   5.876   0.953   0.285
    1   AR   Ar  196   3.762   0.976  -1.328
    1   AR   Ar  197   4.458   1.502   0.985
    1   AR   Ar  198   5.426   0.204   2.445
    1   AR   Ar  199   2.135   0.088   3.401
    1   AR   Ar  200   4.759   2.904   0.743
    1   AR   Ar  201   5.820   5.769   3.126
    1   AR   Ar  202   5.281   1.750   4.924
    1   AR   Ar  203   7.048   6.495   3.396
    1   AR   Ar  204   5.558   5.821   6.057
    1   AR   Ar  205   6.545   1.473   1.563
    1   AR   Ar  206   6.132   0.745   5.628
    1   AR   Ar  207   0.502   2.137   5.137
    1   AR   Ar  208   0.524   6.098   4.169
    1   AR   Ar  209   0.003   2.334  -2.242
    1   AR   Ar  210   2.520   6.971   0.687
    1   AR   Ar  211   0.087   3.485   0.773
    1   AR   Ar  212   6.076   3.978  -0.093
    1   AR   Ar  213   3.085   0.637   1.219
    1   AR   Ar  214   4.526   4.142   2.358
    1   AR   Ar  215   6.497   3.008   1.992
    1   AR   Ar  216   1.076   2.323   0.738
    1   AR   Ar  217   5.084   1.645   3.655
    1   AR   Ar  218   4.925   3.423   4.463
    1   AR   Ar  219   4.171   3.442   3.473
    1   AR   Ar  220   4.071   3.660   1.266
    1   AR   Ar  221   6.518   5.822   3.949
    1   AR   Ar  222   5.727   6.916   5.993
    1   AR   Ar  223   6.293   1.933   6.622
    1   AR   Ar  224   4.715   2.521   5.128
    1   AR   Ar  225   5.981   3.266   3.230
    1   AR   Ar  226   1.513   3.315   3.102
    1   AR   Ar  227   0.148   3.783   2.145
    1   AR   Ar  228   6.130   7.075   1.270
    1   AR   Ar  229   5.928   5.376  -1.033
    1   AR   Ar  230   3.571   3.815   4.284
    1   AR   Ar  231   4.589   1.777   1.989
    1   AR   Ar  232   5.591   2.866   1.499
    1   AR   Ar  233   6.686   2.460   3.754
    1   AR   Ar  234   5.363   2.628   4.029
    1   AR   Ar  235   6.693   0.636   4.096
    1   AR   Ar  236   4.993   5.050   5.305
    1   AR   Ar  237   5.152   2.335   6.626
    1   AR   Ar  238   5.456   4.915   6.911
    1   AR   Ar  239   0.203   4.744  10.297
    1   AR   Ar  240   7.066   2.525   7.096
    1   AR   Ar  241   1.930   5.760  -0.727
    1   AR   Ar  242   5.450   6.017   1.022
    1   AR   Ar  243   4.114   5.508   3.119
    1   AR   Ar  244   0.583   5.533   0.581
    1   AR   Ar  245   3.704   0.358   2.376
    1   AR   Ar  246   5.867   6.728  -0.639
    1   AR   Ar  247   6.170   3.898   1.427
    1   AR   Ar  248   5.178   6.047  -0.286
    1   AR   Ar  249   4.440   6.805   2.451
    1   AR   Ar  250   4.776   5.969   4.128
    1   AR   Ar  251   4.938   4.555   4.321
    1   AR   Ar  252   3.400   4.883   2.463
    1   AR   Ar  253   6.222   3.026   6.450
    1   AR   Ar  254   4.067   2.236   9.954
    1   AR   Ar  255   3.321   5.637  10.006
    1   AR   Ar  256   5.936   4.641   3.415
    7.12000  7.12000 12.00000
Argon-slab step 4245
  256
    1   AR   Ar    1   4.376   3.325  -3.449
    1   AR   Ar    2   6.371   6.814   0.325
    1   AR   Ar    3   3.946   2.159  -1.892
    1   AR   Ar    4   2.020   1.466   0.990
    1   AR   Ar    5   6.525   5.619   0.615
    1   AR   Ar    6   1.184   2.280   2.159
    1   AR   Ar    7   5.169   3.842   3.556
    1   AR   Ar    8   4.892   2.020  -0.088
    1   AR   Ar    9   0.596   0.146   3.771
    1   AR   Ar   10   7.060   6.912   4.672
    1   AR   Ar   11   1.769   6.826   4.266
    1   AR   Ar   12   0.337   1.318   3.730
    1   AR   Ar   13   7.049   0.834   5.101
    1   AR   Ar   14   4.480   1.117   6.625
    1   AR   Ar   15   3.171   6.753   8.572
    1   AR   Ar   16   0.898   6.961   5.051
    1   AR   Ar   17   5.431   1.842   0.860
    1   AR   Ar   18   6.956   5.225  -0.325
    1   AR   Ar   19   4.221   3.473   0.081
    1   AR   Ar   20   0.042   4.422  -2.865
    1   AR   Ar   21   2.465   2.251   1.811
    1   AR   Ar   22   6.079   1.362   2.598
    1   AR   Ar   23   0.312   6.508   1.121
    1   AR   Ar   24   5.077   2.874   2.616
    1   AR   Ar   25   0.651   2.542   3.806
    1   AR   Ar   26   5.988   6.766   4.367
    1   AR   Ar   27   1.735   0.921   2.513
    1   AR   Ar   28   2.016   2.682   3.797
    1   AR   Ar   29   5.721   1.202   7.834
    1   AR   Ar   30   1.459   0.920   3.611
    1   AR   Ar   31   3.199   0.025   7.669
    1   AR   Ar   32   0.894   2.801   6.302
    1   AR   Ar   33   0.612   4.133  -0.248
    1   AR   Ar   34   0.790   4.593   2.466
    1   AR   Ar   35   6.113   5.552   1.725
    1   AR   Ar   36   6.084   2.858  -2.684
    1   AR   Ar   37   4.353   2.719   1.658
    1   AR   Ar   38   6.832   4.126   3.646
    1   AR   Ar   39   0.123   3.156   3.162
    1   AR   Ar   40   1.942   4.664   1.641
    1   AR   Ar   41   0.039   2.047   2.975
    1   AR   Ar   42   5.745   5.194   4.697
    1   AR   Ar   43   7.042   2.789   5.720
    1   AR   Ar   44   0.703   4.198   3.412
    1   AR   Ar   45   0.640   3.471   5.300
    1   AR   Ar   46   0.326   4.510   5.549
    1   AR   Ar   47   3.277   5.358   7.145
    1   AR   Ar   48   5.784   3.215   7.396
    1   AR   Ar   49   5.906   0.085  -1.516
    1   AR   Ar   50   3.318   4.879   0.092
    1   AR   Ar   51   5.759   3.837   2.325
    1   AR   Ar   52   5.351   2.664  -1.730
    1   AR   Ar   53   5.435   6.211   2.186
    1   AR   Ar   54   0.827   6.802   2.202
    1   AR   Ar   55   6.814   4.711   2.454
    1   AR   Ar   56   0.067   0.591   2.863
    1   AR   Ar   57   3.944   4.534   3.415
    1   AR   Ar   58   0.436   3.530   4.248
    1   AR   Ar   59   2.657   5.289   5.782
    1   AR   Ar   60   0.271   5.390   3.121
    1   AR   Ar   61   0.113   3.612   6.530
    1   AR   Ar   62   6.760   4.414   4.740
    1   AR   Ar   63   1.390   1.874   6.639
    1   AR   Ar   64   0.423   5.594   5.219
    1   AR   Ar   65   3.561   6.941   1.441
    1   AR   Ar   66   0.535   1.622   1.275
    1   AR   Ar   67   4.659   7.069  -0.801
    1   AR   Ar   68   0.649   0.289  -0.849
    1   AR   Ar   69   2.294   0.942   0.074
    1   AR   Ar   70   0.654   1.272   2.175
    1   AR   Ar   71   2.615   1.322   2.332
    1   AR   Ar   72   4.333   0.486   1.446
    1   AR   Ar   73   3.256   0.852   3.520
    1   AR   Ar   74   1.101   0.904   4.578
    1   AR   Ar   75   3.340   0.747   4.799
    1   AR   Ar   76   1.881   0.456   1.491
    1   AR   Ar   77   1.981   0.046   5.403
    1   AR   Ar   78   7.040   5.733   6.073
    1   AR   Ar   79   3.858   6.258   6.956
    1   AR   Ar   80   3.931   5.669   5.460
    1   AR   Ar   81   1.598   6.155   0.294
    1   AR   Ar   82   7.075   4.459   0.452
    1   AR   Ar   83   0.982   2.908  -0.272
    1   AR   Ar   84   0.701   4.467   1.361
    1   AR   Ar   85   1.554   3.205   1.060
    1   AR   Ar   86   1.800   5.661   1.142
    1   AR   Ar   87   2.628   3.282   2.203
    1   AR   Ar   88   2.954   5.120   1.347
    1   AR   Ar   89   0.164   2.346   1.963
    1   AR   Ar   90   3.288   1.759   4.644
    1   AR   Ar   91   1.285   1.937   3.326
    1   AR   Ar   92   1.415   3.501   2.079
    1   AR   Ar   93   1.198   1.336   5.641
    1   AR   Ar   94   1.379   7.014   9.823
    1   AR   Ar   95   4.353   1.292   5.309
    1   AR   Ar   96   3.072   6.958   4.236
    1   AR   Ar   97   4.233   1.862  -0.928
    1   AR   Ar   98   1.767   4.341   4.003
    1   AR   Ar   99   6.940   1.833   0.330
    1   AR   Ar  100   0.605   3.112  -1.784
    1   AR   Ar  101   3.795   5.878   1.964
    1   AR   Ar  102   3.714   1.483   2.618
    1   AR   Ar  103   2.419   4.525   0.623
    1   AR   Ar  104   3.212   5.208  -0.946
    1   AR   Ar  105   2.397   1.687   3.732
    1   AR   Ar  106   3.849   2.701   5.768
    1   AR   Ar  107   1.234   4.331   4.936
    1   AR   Ar  108   2.419   1.275   4.820
    1   AR   Ar  109   1.482   3.071   4.568
    1   AR   Ar  110   2.529   2.524   4.742
    1   AR   Ar  111   4.949   6.262   7.274
    1   AR   Ar  112   1.032   6.775   6.433
    1   AR   Ar  113   3.752   4.299  -0.923
    1   AR   Ar  114   2.085   7.041  -1.689
    1   AR   Ar  115   1.617   5.169   0.234
    1   AR   Ar  116   4.292   0.864  -0.099
    1   AR   Ar  117   0.588   4.925   4.253
    1   AR   Ar  118   1.375   4.987   3.281
    1   AR   Ar  119   2.030   4.232   2.720
    1   AR   Ar  120   1.641   6.302   1.907
    1   AR   Ar  121   5.347   4.031   5.377
    1   AR   Ar  122   3.030   5.937   4.655
    1   AR   Ar  123   2.750   3.314   5.514
    1   AR   Ar  124   1.090   5.401   1.993
    1   AR   Ar  125   6.448   3.062   4.703
    1   AR   Ar  126   6.664   6.820   5.587
    1   AR   Ar  127   4.214   4.077   6.647
    1   AR   Ar  128   2.893   2.732   6.389
    1   AR   Ar  129   1.705   5.693   4.050
    1   AR   Ar  130   5.109   1.653  -4.012
    1   AR   Ar  131   4.763   3.979  -2.404
    1   AR   Ar  132   0.755   1.825  -0.335
    1   AR   Ar  133   4.762   0.100   3.986
    1   AR   Ar  134   4.276   1.534   4.191
    1   AR   Ar  135   6.082   1.452   3.704
    1   AR   Ar  136   6.513   6.928   2.323
    1   AR   Ar  137   2.264   4.210   5.797
    1   AR   Ar  138   5.386   1.375   5.940
    1   AR   Ar  139   5.775   2.577   5.583
    1   AR   Ar  140   4.024   6.883   5.014
    1   AR   Ar  141   3.824   4.855   4.616
    1   AR   Ar  142   4.380   7.084   6.154
    1   AR   Ar  143   6.500   6.621   6.910
    1   AR   Ar  144   6.572   1.799   5.055
    1   AR   Ar  145   4.386   5.025  -0.866
    1   AR   Ar  146   3.307   2.569   2.495
    1   AR   Ar  147   4.394   3.400  -1.369
    1   AR   Ar  148   3.105   6.318  -1.045
    1   AR   Ar  149   1.826   1.540  -0.731
    1   AR   Ar  150   2.322   2.474   2.825
    1   AR   Ar  151   3.077   2.568   3.777
    1   AR   Ar  152   1.666   2.613  -1.622
    1   AR   Ar  153   5.453   0.714   4.401
    1   AR   Ar  154   4.364   2.527   4.021
    1   AR   Ar  155   6.530   3.921   5.590
    1   AR   Ar  156   2.940   4.682   3.895
    1   AR   Ar  157   1.514   4.924   6.306
    1   AR   Ar  158   0.089   1.911   6.155
    1   AR   Ar  159   3.484   0.449   6.151
    1   AR   Ar  160   1.643   1.876   4.549
    1   AR   Ar  161   4.943   4.842   3.106
    1   AR   Ar  162   4.046   6.198  -0.695
    1   AR   Ar  163   5.766   4.814   1.046
    1   AR   Ar  164   2.220   5.529   2.171
    1   AR   Ar  165   3.576   2.706   0.854
    1   AR   Ar  166   2.557   3.496   4.129
    1   AR   Ar  167   5.780   6.915   3.289
    1   AR   Ar  168   5.593   3.669  -1.816
    1   AR   Ar  169   3.190   3.689   2.982
    1   AR   Ar  170   1.699   3.209   5.787
    1   AR   Ar  171   5.880   3.846   4.278
    1   AR   Ar  172   4.081   3.710   5.378
    1   AR   Ar  173   2.121   1.997   5.664
    1   AR   Ar  174   1.780   6.136   5.512
    1   AR   Ar  175   3.483   1.538   5.890
    1   AR   Ar  176   3.678   2.881   4.725
    1   AR   Ar  177   1.013   5.201  -0.581
    1   AR   Ar  178   3.178   5.904   0.459
    1   AR   Ar  179   3.499   7.001  -0.368
    1   AR   Ar  180   5.269   1.631  -5.272
    1   AR   Ar  181   0.051   5.643   1.750
    1   AR   Ar  182   1.158   6.127   3.227
    1   AR   Ar  183   4.749   5.246   2.059
    1   AR   Ar  184   4.446   6.728   0.215
    1   AR   Ar  185   2.681   4.751   4.929
    1   AR   Ar  186   2.430   5.123   3.019
    1   AR   Ar  187   4.020   6.816   3.278
    1   AR   Ar  188   2.587   7.058   2.275
    1   AR   Ar  189   4.958   3.265   6.006
    1   AR   Ar  190   3.285   5.613   3.654
    1   AR   Ar  191   2.421   6.146   7.457
    1   AR   Ar  192   4.496   5.067   6.372
    1   AR   Ar  193   2.835   6.293   1.568
    1   AR   Ar  194   5.087   3.802  -0.695
    1   AR   Ar  195   5.851   0.978   0.305
    1   AR   Ar  196   3.758   0.976  -1.362
    1   AR   Ar  197   4.445   1.506   0.929
    1   AR   Ar  198   5.469   0.171   2.447
    1   AR   Ar  199   2.136   0.102   3.384
    1   AR   Ar  200   4.742   2.937   0.745
    1   AR   Ar  201   5.851   5.773   3.131
    1   AR   Ar  202   5.314   1.723   4.882
    1   AR   Ar  203   7.067   6.499   3.396
    1   AR   Ar  204   5.543   5.823   6.060
    1   AR   Ar  205   6.506   1.466   1.574
    1   AR   Ar  206   6.136   0.743   5.627
    1   AR   Ar  207   0.494   2.132   5.137
    1   AR   Ar  208   0.548   6.069   4.185
    1   AR   Ar  209   7.101   2.344  -2.220
    1   AR   Ar  210   2.504   6.964   0.670
    1   AR   Ar  211   0.051   3.511   0.798
    1   AR   Ar  212   6.056   4.018  -0.081
    1   AR   Ar  213   3.103   0.631   1.202
    1   AR   Ar  214   4.527   4.139   2.350
    1   AR   Ar  215   6.513   2.992   2.042
    1   AR   Ar  216   1.103   2.315   0.725
    1   AR   Ar  217   5.089   1.671   3.662
    1   AR   Ar  218   4.916   3.429   4.488
    1   AR   Ar  219   4.190   3.441   3.500
    1   AR   Ar  220   4.057   3.676   1.272
    1   AR   Ar  221   6.499   5.848   3.966
    1   AR   Ar  222   5.717   6.918   5.962
    1   AR   Ar  223   6.293   1.950   6.622
    1   AR   Ar  224   4.709   2.513   5.140
    1   AR   Ar  225   6.000   3.276   3.250
    1   AR   Ar  226   1.519   3.321   3.121
    1   AR   Ar  227   0.164   3.761   2.158
    1   AR   Ar  228   6.168   7.103   1.295
    1   AR   Ar  229   5.956   5.361  -1.048
    1   AR   Ar  230   3.551   3.842   4.274
    1   AR   Ar  231   4.525   1.774   2.000
    1   AR   Ar  232   5.539   2.881   1.485
    1   AR   Ar  233   6.711   2.487   3.799
    1   AR   Ar  234   5.388   2.621   4.024
    1   AR   Ar  235   6.661   0.630   4.067
    1   AR   Ar  236   5.015   5.053   5.334
    1   AR   Ar  237   5.161   2.334   6.609
    1   AR   Ar  238   5.452   4.925   6.909
    1   AR   Ar  239   0.198   4.724  10.322
    1   AR   Ar  240   7.049   2.545   7.097
    1   AR   Ar  241   1.922   5.762  -0.685
    1   AR   Ar  242   5.436   6.042   1.065
    1   AR   Ar  243   4.093   5.511   3.140
    1   AR   Ar  244   0.557   5.538   0.571
    1   AR   Ar  245   3.667   0.340   2.406
    1   AR   Ar  246   5.848   6.713  -0.664
    1   AR   Ar  247   6.188   3.927   1.428
    1   AR   Ar  248   5.185   6.094  -0.285
    1   AR   Ar  249   4.450   6.796   2.453
    1   AR   Ar  250   4.771   5.930   4.139
    1   AR   Ar  251   4.925   4.541   4.381
    1   AR   Ar  252   3.409   4.898   2.455
    1   AR   Ar  253   6.202   3.030   6.454
    1   AR   Ar  254   4.103   2.264   9.946
    1   AR   Ar  255   3.321   5.678  10.021
    1   AR   Ar  256   5.933   4.658   3.417
    7.12000  7.12000 12.00000
Argon-slab step 4250
  256
    1   AR   Ar    1   4.376   3.346  -3.447
    1   AR   Ar    2   6.350   6.818   0.323
    1   AR   Ar    3   3.953   2.148  -1.920
    1   AR   Ar    4   2.012   1.502   1.014
    1   AR   Ar    5   6.515   5.588   0.596
    1   AR   Ar    6   1.182   2.295   2.124
    1   AR   Ar    7   5.193   3.861   3.529
    1   AR   Ar    8   4.911   2.030  -0.086
    1   AR   Ar    9   0.584   0.145   3.784
    1   AR   Ar   10   7.011   6.890   4.677
    1   AR   Ar   11   1.763   6.780   4.299
    1   AR   Ar   12   0.299   1.358   3.762
    1   AR   Ar   13   7.031   0.852   5.098
    1   AR   Ar   14   4.467   1.157   6.609
    1   AR   Ar   15   3.171   6.748   8.568
    1   AR   Ar   16   0.882   7.001   5.086
    1   AR   Ar   17   5.455   1.843   0.832
    1   AR   Ar   18   6.984   5.213  -0.312
    1   AR   Ar   19   4.232   3.485   0.092
    1   AR   Ar   20   0.039   4.460  -2.874
    1   AR   Ar   21   2.474   2.237   1.804
    1   AR   Ar   22   6.037   1.342   2.579
    1   AR   Ar   23   0.303   6.465   1.126
    1   AR   Ar   24   5.061   2.869   2.617
    1   AR   Ar   25   0.685   2.522   3.806
    1   AR   Ar   26   5.991   6.756   4.353
    1   AR   Ar   27   1.712   0.901   2.519
    1   AR   Ar   28   2.028   2.710   3.786
    1   AR   Ar   29   5.698   1.216   7.805
    1   AR   Ar   30   1.442   0.935   3.584
    1   AR   Ar   31   3.165   0.039   7.657
    1   AR   Ar   32   0.864   2.773   6.297
    1   AR   Ar   33   0.603   4.145  -0.229
    1   AR   Ar   34   0.788   4.630   2.484
    1   AR   Ar   35   6.087   5.555   1.770
    1   AR   Ar   36   6.084   2.883  -2.676
    1   AR   Ar   37   4.340   2.738   1.658
    1   AR   Ar   38   6.818   4.135   3.661
    1   AR   Ar   39   0.120   3.184   3.146
    1   AR   Ar   40   1.903   4.621   1.659
    1   AR   Ar   41   0.060   2.044   2.972
    1   AR   Ar   42   5.759   5.184   4.700
    1   AR   Ar   43   7.072   2.797   5.691
    1   AR   Ar   44   0.746   4.163   3.410
    1   AR   Ar   45   0.609   3.482   5.313
    1   AR   Ar   46   0.354   4.472   5.585
    1   AR   Ar   47   3.268   5.395   7.139
    1   AR   Ar   48   5.818   3.246   7.392
    1   AR   Ar   49   5.957   0.062  -1.485
    1   AR   Ar   50   3.324   4.900   0.067
    1   AR   Ar   51   5.735   3.824   2.323
    1   AR   Ar   52   5.334   2.690  -1.735
    1   AR   Ar   53   5.436   6.215   2.194
    1   AR   Ar   54   0.817   6.834   2.207
    1   AR   Ar   55   6.815   4.706   2.476
    1   AR   Ar   56   0.071   0.574   2.863
    1   AR   Ar   57   3.923   4.518   3.428
    1   AR   Ar   58   0.406   3.536   4.239
    1   AR   Ar   59   2.668   5.305   5.789
    1   AR   Ar   60   0.242   5.383   3.127
    1   AR   Ar   61   0.090   3.617   6.549
    1   AR   Ar   62   6.750   4.390   4.773
    1   AR   Ar   63   1.403   1.902   6.626
    1   AR   Ar   64   0.408   5.601   5.238
    1   AR   Ar   65   3.559   6.950   1.441
    1   AR   Ar   66   0.524   1.580   1.256
    1   AR   Ar   67   4.667   7.106  -0.781
    1   AR   Ar   68   0.666   0.311  -0.828
    1   AR   Ar   69   2.292   0.962   0.081
    1   AR   Ar   70   0.657   1.284   2.195
    1   AR   Ar   71   2.625   1.285   2.333
    1   AR   Ar   72   4.316   0.509   1.423
    1   AR   Ar   73   3.258   0.842   3.516
    1   AR   Ar   74   1.131   0.930   4.548
    1   AR   Ar   75   3.325   0.728   4.808
    1   AR   Ar   76   1.917   0.437   1.509
    1   AR   Ar   77   1.939   0.067   5.405
    1   AR   Ar   78   7.051   5.752   6.077
    1   AR   Ar   79   3.852   6.213   6.950
    1   AR   Ar   80   3.926   5.681   5.483
    1   AR   Ar   81   1.566   6.162   0.282
    1   AR   Ar   82   7.060   4.461   0.435
    1   AR   Ar   83   0.996   2.924  -0.257
    1   AR   Ar   84   0.704   4.501   1.371
    1   AR   Ar   85   1.558   3.204   1.045
    1   AR   Ar   86   1.789   5.685   1.143
    1   AR   Ar   87   2.660   3.303   2.215
    1   AR   Ar   88   2.953   5.143   1.341
    1   AR   Ar   89   0.200   2.351   1.961
    1   AR   Ar   90   3.281   1.754   4.669
    1   AR   Ar   91   1.313   1.937   3.323
    1   AR   Ar   92   1.428   3.458   2.053
    1   AR   Ar   93   1.190   1.332   5.621
    1   AR   Ar   94   1.395   7.030   9.797
    1   AR   Ar   95   4.332   1.323   5.284
    1   AR   Ar   96   3.036   6.942   4.264
    1   AR   Ar   97   4.249   1.840  -0.899
    1   AR   Ar   98   1.784   4.324   4.020
    1   AR   Ar   99   6.934   1.813   0.325
    1   AR   Ar  100   0.601   3.102  -1.781
    1   AR   Ar  101   3.789   5.870   1.981
    1   AR   Ar  102   3.697   1.507   2.626
    1   AR   Ar  103   2.403   4.495   0.620
    1   AR   Ar  104   3.193   5.217  -0.966
    1   AR   Ar  105   2.405   1.711   3.721
    1   AR   Ar  106   3.829   2.689   5.778
    1   AR   Ar  107   1.259   4.314   4.945
    1   AR   Ar  108   2.400   1.269   4.830
    1   AR   Ar  109   1.475   3.084   4.584
    1   AR   Ar  110   2.518   2.507   4.705
    1   AR   Ar  111   4.962   6.250   7.297
    1   AR   Ar  112   1.040   6.773   6.437
    1   AR   Ar  113   3.752   4.290  -0.931
    1   AR   Ar  114   2.098   7.035  -1.701
    1   AR   Ar  115   1.620   5.150   0.233
    1   AR   Ar  116   4.275   0.891  -0.127
    1   AR   Ar  117   0.587   4.962   4.259
    1   AR   Ar  118   1.362   4.978   3.299
    1   AR   Ar  119   2.026   4.239   2.719
    1   AR   Ar  120   1.633   6.320   1.910
    1   AR   Ar  121   5.375   4.040   5.377
    1   AR   Ar  122   3.048   5.920   4.654
    1   AR   Ar  123   2.708   3.292   5.487
    1   AR   Ar  124   1.062   5.436   1.976
    1   AR   Ar  125   6.456   3.089   4.674
    1   AR   Ar  126   6.698   6.818   5.583
    1   AR   Ar  127   4.207   4.048   6.700
    1   AR   Ar  128   2.929   2.726   6.358
    1   AR   Ar  129   1.734   5.656   4.069
    1   AR   Ar  130   5.119   1.643  -4.017
    1   AR   Ar  131   4.768   4.029  -2.420
    1   AR   Ar  132   0.740   1.842  -0.301
    1   AR   Ar  133   4.737   0.126   4.012
    1   AR   Ar  134   4.254   1.554   4.159
    1   AR   Ar  135   6.106   1.461   3.700
    1   AR   Ar  136   6.499   6.949   2.308
    1   AR   Ar  137   2.273   4.247   5.774
    1   AR   Ar  138   5.379   1.375   5.958
    1   AR   Ar  139   5.789   2.592   5.584
    1   AR   Ar  140   4.019   6.854   4.994
    1   AR   Ar  141   3.832   4.863   4.628
    1   AR   Ar  142   4.394   7.074   6.157
    1   AR   Ar  143   6.488   6.594   6.910
    1   AR   Ar  144   6.555   1.806   5.065
    1   AR   Ar  145   4.387   5.035  -0.858
    1   AR   Ar  146   3.313   2.546   2.521
    1   AR   Ar  147   4.397   3.421  -1.364
    1   AR   Ar  148   3.093   6.359  -1.063
    1   AR   Ar  149   1.833   1.527  -0.716
    1   AR   Ar  150   2.321   2.468   2.823
    1   AR   Ar  151   3.092   2.560   3.770
    1   AR   Ar  152   1.654   2.642  -1.589
    1   AR   Ar  153   5.443   0.726   4.386
    1   AR   Ar  154   4.354   2.510   4.004
    1   AR   Ar  155   6.517   3.905   5.586
    1   AR   Ar  156   2.924   4.680   3.868
    1   AR   Ar  157   1.522   4.946   6.273
    1   AR   Ar  158   0.097   1.894   6.149
    1   AR   Ar  159   3.460   0.420   6.130
    1   AR   Ar  160   1.665   1.896   4.536
    1   AR   Ar  161   4.938   4.842   3.114
    1   AR   Ar  162   4.043   6.201  -0.710
    1   AR   Ar  163   5.752   4.802   1.041
    1   AR   Ar  164   2.213   5.569   2.166
    1   AR   Ar  165   3.570   2.745   0.842
    1   AR   Ar  166   2.560   3.512   4.137
    1   AR   Ar  167   5.770   6.949   3.316
    1   AR   Ar  168   5.597   3.668  -1.831
    1   AR   Ar  169   3.204   3.691   3.012
    1   AR   Ar  170   1.705   3.202   5.815
    1   AR   Ar  171   5.877   3.837   4.285
    1   AR   Ar  172   4.093   3.677   5.422
    1   AR   Ar  173   2.157   1.999   5.657
    1   AR   Ar  174   1.819   6.121   5.531
    1   AR   Ar  175   3.473   1.525   5.868
    1   AR   Ar  176   3.649   2.911   4.741
    1   AR   Ar  177   1.026   5.186  -0.627
    1   AR   Ar  178   3.167   5.904   0.484
    1   AR   Ar  179   3.475   6.985  -0.376
    1   AR   Ar  180   5.279   1.628  -5.302
    1   AR   Ar  181   0.068   5.671   1.761
    1   AR   Ar  182   1.148   6.077   3.201
    1   AR   Ar  183   4.736   5.248   2.067
    1   AR   Ar  184   4.435   6.736   0.204
    1   AR   Ar  185   2.645   4.743   4.973
    1   AR   Ar  186   2.422   5.119   3.032
    1   AR   Ar  187   4.037   6.788   3.276
    1   AR   Ar  188   2.575   7.088   2.289
    1   AR   Ar  189   4.949   3.283   6.002
    1   AR   Ar  190   3.260   5.633   3.658
    1   AR   Ar  191   2.432   6.137   7.441
    1   AR   Ar  192   4.501   5.034   6.396
    1   AR   Ar  193   2.823   6.299   1.579
    1   AR   Ar  194   5.088   3.813  -0.737
    1   AR   Ar  195   5.825   1.003   0.325
    1   AR   Ar  196   3.753   0.976  -1.395
    1   AR   Ar  197   4.429   1.508   0.871
    1   AR   Ar  198   5.507   0.144   2.436
    1   AR   Ar  199   2.141   0.118   3.362
    1   AR   Ar  200   4.731   2.964   0.745
    1   AR   Ar  201   5.881   5.776   3.134
    1   AR   Ar  202   5.351   1.693   4.836
    1   AR   Ar  203   7.086   6.506   3.391
    1   AR   Ar  204   5.550   5.807   6.044
    1   AR   Ar  205   6.468   1.461   1.584
    1   AR   Ar  206   6.143   0.739   5.625
    1   AR   Ar  207   0.490   2.126   5.134
    1   AR   Ar  208   0.573   6.040   4.201
    1   AR   Ar  209   7.077   2.353  -2.198
    1   AR   Ar  210   2.487   6.955   0.654
    1   AR   Ar  211   0.016   3.530   0.828
    1   AR   Ar  212   6.058   4.024  -0.073
    1   AR   Ar  213   3.130   0.647   1.217
    1   AR   Ar  214   4.528   4.136   2.344
    1   AR   Ar  215   6.522   2.981   2.095
    1   AR   Ar  216   1.131   2.306   0.709
    1   AR   Ar  217   5.098   1.698   3.662
    1   AR   Ar  218   4.932   3.428   4.498
    1   AR   Ar  219   4.208   3.441   3.526
    1   AR   Ar  220   4.085   3.654   1.281
    1   AR   Ar  221   6.481   5.871   3.988
    1   AR   Ar  222   5.700   6.919   5.935
    1   AR   Ar  223   6.286   1.967   6.622
    1   AR   Ar  224   4.701   2.510   5.151
    1   AR   Ar  225   6.024   3.285   3.271
    1   AR   Ar  226   1.523   3.328   3.142
    1   AR   Ar  227   0.181   3.737   2.171
    1   AR   Ar  228   6.204   0.012   1.324
    1   AR   Ar  229   5.985   5.347  -1.060
    1   AR   Ar  230   3.533   3.870   4.265
    1   AR   Ar  231   4.464   1.767   2.011
    1   AR   Ar  232   5.487   2.896   1.474
    1   AR   Ar  233   6.730   2.514   3.848
    1   AR   Ar  234   5.422   2.614   4.018
    1   AR   Ar  235   6.629   0.621   4.037
    1   AR   Ar  236   5.026   5.058   5.373
    1   AR   Ar  237   5.177   2.345   6.639
    1   AR   Ar  238   5.449   4.935   6.906
    1   AR   Ar  239   0.193   4.704  10.346
    1   AR   Ar  240   7.034   2.567   7.096
    1   AR   Ar  241   1.918   5.765  -0.644
    1   AR   Ar  242   5.422   6.068   1.105
    1   AR   Ar  243   4.088   5.527   3.142
    1   AR   Ar  244   0.541   5.518   0.561
    1   AR   Ar  245   3.626   0.327   2.436
    1   AR   Ar  246   5.840   6.698  -0.690
    1   AR   Ar  247   6.214   3.952   1.422
    1   AR   Ar  248   5.184   6.133  -0.280
    1   AR   Ar  249   4.480   6.786   2.427
    1   AR   Ar  250   4.765   5.889   4.149
    1   AR   Ar  251   4.912   4.527   4.438
    1   AR   Ar  252   3.418   4.913   2.448
    1   AR   Ar  253   6.185   3.035   6.455
    1   AR   Ar  254   4.138   2.291   9.938
    1   AR   Ar  255   3.321   5.718  10.036
    1   AR   Ar  256   5.931   4.675   3.421
    7.12000  7.12000 12.00000
Argon-slab step 4255
  256
    1   AR   Ar    1   4.385   3.361  -3.424
    1   AR   Ar    2   6.329   6.820   0.320
    1   AR   Ar    3   3.940   2.169  -1.914
    1   AR   Ar    4   2.003   1.537   1.039
    1   AR   Ar    5   6.503   5.558   0.580
    1   AR   Ar    6   1.191   2.309   2.091
    1   AR   Ar    7   5.212   3.881   3.498
    1   AR   Ar    8   4.930   2.041  -0.081
    1   AR   Ar    9   0.574   0.147   3.800
    1   AR   Ar   10   6.970   6.868   4.664
    1   AR   Ar   11   1.757   6.734   4.333
    1   AR   Ar   12   0.263   1.397   3.796
    1   AR   Ar   13   7.019   0.868   5.093
    1   AR   Ar   14   4.454   1.198   6.590
    1   AR   Ar   15   3.171   6.739   8.573
    1   AR   Ar   16   0.868   7.041   5.120
    1   AR   Ar   17   5.479   1.849   0.809
    1   AR   Ar   18   7.012   5.201  -0.302
    1   AR   Ar   19   4.236   3.506   0.092
    1   AR   Ar   20   0.037   4.498  -2.882
    1   AR   Ar   21   2.486   2.216   1.797
    1   AR   Ar   22   5.996   1.322   2.562
    1   AR   Ar   23   0.295   6.426   1.128
    1   AR   Ar   24   5.045   2.865   2.619
    1   AR   Ar   25   0.715   2.508   3.813
    1   AR   Ar   26   5.992   6.748   4.341
    1   AR   Ar   27   1.681   0.878   2.526
    1   AR   Ar   28   2.015   2.714   3.775
    1   AR   Ar   29   5.676   1.231   7.775
    1   AR   Ar   30   1.442   0.951   3.533
    1   AR   Ar   31   3.175   0.058   7.646
    1   AR   Ar   32   0.842   2.760   6.318
    1   AR   Ar   33   0.601   4.154  -0.217
    1   AR   Ar   34   0.784   4.659   2.502
    1   AR   Ar   35   6.066   5.553   1.814
    1   AR   Ar   36   6.084   2.908  -2.666
    1   AR   Ar   37   4.326   2.753   1.666
    1   AR   Ar   38   6.804   4.142   3.676
    1   AR   Ar   39   0.116   3.214   3.130
    1   AR   Ar   40   1.862   4.579   1.677
    1   AR   Ar   41   0.082   2.040   2.967
    1   AR   Ar   42   5.792   5.165   4.707
    1   AR   Ar   43   7.090   2.810   5.664
    1   AR   Ar   44   0.787   4.122   3.410
    1   AR   Ar   45   0.583   3.494   5.325
    1   AR   Ar   46   0.382   4.438   5.623
    1   AR   Ar   47   3.254   5.427   7.133
    1   AR   Ar   48   5.850   3.276   7.392
    1   AR   Ar   49   6.011   0.053  -1.477
    1   AR   Ar   50   3.330   4.921   0.042
    1   AR   Ar   51   5.707   3.810   2.327
    1   AR   Ar   52   5.314   2.711  -1.740
    1   AR   Ar   53   5.441   6.231   2.211
    1   AR   Ar   54   0.800   6.870   2.216
    1   AR   Ar   55   6.813   4.701   2.498
    1   AR   Ar   56   0.074   0.557   2.864
    1   AR   Ar   57   3.922   4.506   3.432
    1   AR   Ar   58   0.376   3.542   4.231
    1   AR   Ar   59   2.679   5.328   5.805
    1   AR   Ar   60   0.214   5.376   3.135
    1   AR   Ar   61   0.067   3.619   6.565
    1   AR   Ar   62   6.744   4.374   4.792
    1   AR   Ar   63   1.418   1.926   6.613
    1   AR   Ar   64   0.400   5.605   5.245
    1   AR   Ar   65   3.578   6.921   1.442
    1   AR   Ar   66   0.511   1.541   1.228
    1   AR   Ar   67   4.676   0.023  -0.762
    1   AR   Ar   68   0.639   0.325  -0.848
    1   AR   Ar   69   2.292   0.981   0.089
    1   AR   Ar   70   0.662   1.295   2.227
    1   AR   Ar   71   2.644   1.250   2.333
    1   AR   Ar   72   4.310   0.527   1.415
    1   AR   Ar   73   3.261   0.810   3.500
    1   AR   Ar   74   1.155   0.951   4.529
    1   AR   Ar   75   3.313   0.705   4.819
    1   AR   Ar   76   1.954   0.417   1.527
    1   AR   Ar   77   1.898   0.090   5.405
    1   AR   Ar   78   7.054   5.775   6.091
    1   AR   Ar   79   3.851   6.173   6.942
    1   AR   Ar   80   3.922   5.693   5.504
    1   AR   Ar   81   1.531   6.179   0.266
    1   AR   Ar   82   7.036   4.473   0.426
    1   AR   Ar   83   1.009   2.942  -0.242
    1   AR   Ar   84   0.707   4.535   1.381
    1   AR   Ar   85   1.563   3.206   1.029
    1   AR   Ar   86   1.782   5.700   1.146
    1   AR   Ar   87   2.687   3.327   2.222
    1   AR   Ar   88   2.951   5.168   1.337
    1   AR   Ar   89   0.230   2.355   1.955
    1   AR   Ar   90   3.284   1.746   4.723
    1   AR   Ar   91   1.363   1.926   3.316
    1   AR   Ar   92   1.440   3.417   2.031
    1   AR   Ar   93   1.182   1.330   5.599
    1   AR   Ar   94   1.404   7.044   9.771
    1   AR   Ar   95   4.314   1.355   5.257
    1   AR   Ar   96   3.000   6.927   4.289
    1   AR   Ar   97   4.264   1.817  -0.870
    1   AR   Ar   98   1.803   4.306   4.036
    1   AR   Ar   99   6.927   1.792   0.323
    1   AR   Ar  100   0.600   3.094  -1.776
    1   AR   Ar  101   3.784   5.864   1.999
    1   AR   Ar  102   3.674   1.527   2.638
    1   AR   Ar  103   2.387   4.466   0.619
    1   AR   Ar  104   3.181   5.226  -0.975
    1   AR   Ar  105   2.414   1.732   3.711
    1   AR   Ar  106   3.810   2.674   5.788
    1   AR   Ar  107   1.284   4.296   4.955
    1   AR   Ar  108   2.377   1.259   4.841
    1   AR   Ar  109   1.461   3.109   4.615
    1   AR   Ar  110   2.517   2.502   4.688
    1   AR   Ar  111   4.974   6.238   7.318
    1   AR   Ar  112   1.032   6.755   6.409
    1   AR   Ar  113   3.746   4.269  -0.939
    1   AR   Ar  114   2.112   7.029  -1.712
    1   AR   Ar  115   1.624   5.123   0.234
    1   AR   Ar  116   4.264   0.912  -0.148
    1   AR   Ar  117   0.586   4.996   4.264
    1   AR   Ar  118   1.362   4.962   3.317
    1   AR   Ar  119   2.019   4.240   2.716
    1   AR   Ar  120   1.624   6.352   1.913
    1   AR   Ar  121   5.405   4.048   5.374
    1   AR   Ar  122   3.066   5.902   4.658
    1   AR   Ar  123   2.671   3.270   5.456
    1   AR   Ar  124   1.041   5.476   1.956
    1   AR   Ar  125   6.467   3.114   4.651
    1   AR   Ar  126   6.729   6.815   5.595
    1   AR   Ar  127   4.201   4.017   6.753
    1   AR   Ar  128   2.962   2.717   6.329
    1   AR   Ar  129   1.762   5.618   4.088
    1   AR   Ar  130   5.128   1.634  -4.023
    1   AR   Ar  131   4.771   4.079  -2.436
    1   AR   Ar  132   0.726   1.858  -0.266
    1   AR   Ar  133   4.698   0.152   4.032
    1   AR   Ar  134   4.222   1.557   4.136
    1   AR   Ar  135   6.133   1.472   3.695
    1   AR   Ar  136   6.489   6.967   2.298
    1   AR   Ar  137   2.276   4.279   5.757
    1   AR   Ar  138   5.369   1.379   5.976
    1   AR   Ar  139   5.763   2.597   5.604
    1   AR   Ar  140   4.013   6.826   4.975
    1   AR   Ar  141   3.840   4.872   4.640
    1   AR   Ar  142   4.411   7.061   6.159
    1   AR   Ar  143   6.475   6.568   6.907
    1   AR   Ar  144   6.538   1.782   5.062
    1   AR   Ar  145   4.396   5.056  -0.849
    1   AR   Ar  146   3.326   2.522   2.549
    1   AR   Ar  147   4.397   3.439  -1.363
    1   AR   Ar  148   3.072   6.395  -1.089
    1   AR   Ar  149   1.839   1.516  -0.701
    1   AR   Ar  150   2.310   2.471   2.826
    1   AR   Ar  151   3.086   2.541   3.772
    1   AR   Ar  152   1.641   2.671  -1.556
    1   AR   Ar  153   5.441   0.743   4.372
    1   AR   Ar  154   4.345   2.505   3.987
    1   AR   Ar  155   6.500   3.878   5.593
    1   AR   Ar  156   2.915   4.678   3.830
    1   AR   Ar  157   1.552   4.926   6.247
    1   AR   Ar  158   0.110   1.871   6.144
    1   AR   Ar  159   3.434   0.393   6.108
    1   AR   Ar  160   1.669   1.914   4.530
    1   AR   Ar  161   4.932   4.843   3.121
    1   AR   Ar  162   4.048   6.196  -0.724
    1   AR   Ar  163   5.736   4.794   1.034
    1   AR   Ar  164   2.211   5.603   2.156
    1   AR   Ar  165   3.584   2.743   0.864
    1   AR   Ar  166   2.562   3.531   4.147
    1   AR   Ar  167   5.764   6.979   3.356
    1   AR   Ar  168   5.603   3.672  -1.846
    1   AR   Ar  169   3.220   3.695   3.046
    1   AR   Ar  170   1.712   3.195   5.840
    1   AR   Ar  171   5.879   3.834   4.294
    1   AR   Ar  172   4.105   3.645   5.464
    1   AR   Ar  173   2.193   2.001   5.650
    1   AR   Ar  174   1.858   6.104   5.548
    1   AR   Ar  175   3.460   1.513   5.846
    1   AR   Ar  176   3.617   2.938   4.755
    1   AR   Ar  177   1.034   5.169  -0.673
    1   AR   Ar  178   3.124   5.894   0.511
    1   AR   Ar  179   3.453   6.979  -0.376
    1   AR   Ar  180   5.291   1.617  -5.331
    1   AR   Ar  181   0.081   5.695   1.773
    1   AR   Ar  182   1.138   6.027   3.173
    1   AR   Ar  183   4.723   5.251   2.076
    1   AR   Ar  184   4.421   6.745   0.195
    1   AR   Ar  185   2.612   4.733   5.000
    1   AR   Ar  186   2.419   5.118   3.055
    1   AR   Ar  187   4.030   6.783   3.306
    1   AR   Ar  188   2.562   7.120   2.302
    1   AR   Ar  189   4.941   3.299   6.000
    1   AR   Ar  190   3.227   5.657   3.665
    1   AR   Ar  191   2.444   6.128   7.424
    1   AR   Ar  192   4.506   5.005   6.418
    1   AR   Ar  193   2.802   6.296   1.590
    1   AR   Ar  194   5.094   3.827  -0.774
    1   AR   Ar  195   5.801   1.024   0.344
    1   AR   Ar  196   3.749   0.975  -1.427
    1   AR   Ar  197   4.411   1.512   0.813
    1   AR   Ar  198   5.537   0.126   2.411
    1   AR   Ar  199   2.147   0.134   3.338
    1   AR   Ar  200   4.730   2.982   0.747
    1   AR   Ar  201   5.909   5.779   3.133
    1   AR   Ar  202   5.388   1.665   4.791
    1   AR   Ar  203   7.105   6.514   3.382
    1   AR   Ar  204   5.557   5.790   6.028
    1   AR   Ar  205   6.432   1.456   1.592
    1   AR   Ar  206   6.149   0.734   5.621
    1   AR   Ar  207   0.491   2.116   5.127
    1   AR   Ar  208   0.562   6.077   4.246
    1   AR   Ar  209   7.052   2.361  -2.177
    1   AR   Ar  210   2.482   6.948   0.656
    1   AR   Ar  211   7.101   3.544   0.861
    1   AR   Ar  212   6.065   4.023  -0.066
    1   AR   Ar  213   3.150   0.682   1.238
    1   AR   Ar  214   4.526   4.134   2.343
    1   AR   Ar  215   6.525   2.974   2.149
    1   AR   Ar  216   1.157   2.294   0.691
    1   AR   Ar  217   5.111   1.723   3.655
    1   AR   Ar  218   4.988   3.415   4.478
    1   AR   Ar  219   4.228   3.432   3.542
    1   AR   Ar  220   4.112   3.639   1.289
    1   AR   Ar  221   6.465   5.890   4.014
    1   AR   Ar  222   5.680   6.920   5.909
    1   AR   Ar  223   6.272   1.981   6.621
    1   AR   Ar  224   4.693   2.509   5.161
    1   AR   Ar  225   6.051   3.291   3.292
    1   AR   Ar  226   1.524   3.338   3.161
    1   AR   Ar  227   0.200   3.713   2.183
    1   AR   Ar  228   6.238   0.041   1.353
    1   AR   Ar  229   6.014   5.334  -1.071
    1   AR   Ar  230   3.519   3.900   4.256
    1   AR   Ar  231   4.409   1.757   2.019
    1   AR   Ar  232   5.503   2.879   1.486
    1   AR   Ar  233   6.746   2.539   3.896
    1   AR   Ar  234   5.462   2.611   4.014
    1   AR   Ar  235   6.598   0.608   4.009
    1   AR   Ar  236   5.027   5.063   5.419
    1   AR   Ar  237   5.195   2.356   6.667
    1   AR   Ar  238   5.446   4.946   6.903
    1   AR   Ar  239   0.188   4.684  10.370
    1   AR   Ar  240   7.020   2.592   7.093
    1   AR   Ar  241   1.917   5.768  -0.604
    1   AR   Ar  242   5.408   6.094   1.144
    1   AR   Ar  243   4.095   5.551   3.130
    1   AR   Ar  244   0.532   5.481   0.551
    1   AR   Ar  245   3.582   0.316   2.466
    1   AR   Ar  246   5.841   6.680  -0.700
    1   AR   Ar  247   6.245   3.975   1.413
    1   AR   Ar  248   5.169   6.159  -0.268
    1   AR   Ar  249   4.519   6.773   2.382
    1   AR   Ar  250   4.760   5.848   4.159
    1   AR   Ar  251   4.897   4.512   4.492
    1   AR   Ar  252   3.426   4.927   2.442
    1   AR   Ar  253   6.172   3.042   6.452
    1   AR   Ar  254   4.172   2.308   9.930
    1   AR   Ar  255   3.321   5.759  10.051
    1   AR   Ar  256   5.932   4.692   3.425
    7.12000  7.12000 12.00000
Argon-slab step 4260
  256
    1   AR   Ar    1   4.394   3.360  -3.388
    1   AR   Ar    2   6.308   6.820   0.316
    1   AR   Ar    3   3.931   2.201  -1.902
    1   AR   Ar    4   1.990   1.552   1.040
    1   AR   Ar    5   6.491   5.528   0.567
    1   AR   Ar    6   1.216   2.323   2.060
    1   AR   Ar    7   5.225   3.901   3.463
    1   AR   Ar    8   4.948   2.053  -0.075
    1   AR   Ar    9   0.567   0.152   3.819
    1   AR   Ar   10   6.937   6.848   4.633
    1   AR   Ar   11   1.749   6.689   4.368
    1   AR   Ar   12   0.228   1.435   3.832
    1   AR   Ar   13   7.015   0.879   5.083
    1   AR   Ar   14   4.440   1.238   6.569
    1   AR   Ar   15   3.170   6.727   8.583
    1   AR   Ar   16   0.851   7.081   5.153
    1   AR   Ar   17   5.505   1.836   0.787
    1   AR   Ar   18   7.042   5.191  -0.297
    1   AR   Ar   19   4.232   3.535   0.082
    1   AR   Ar   20   0.034   4.536  -2.890
    1   AR   Ar   21   2.498   2.196   1.789
    1   AR   Ar   22   5.954   1.300   2.547
    1   AR   Ar   23   0.288   6.393   1.125
    1   AR   Ar   24   5.032   2.858   2.621
    1   AR   Ar   25   0.741   2.499   3.826
    1   AR   Ar   26   5.988   6.744   4.333
    1   AR   Ar   27   1.649   0.852   2.529
    1   AR   Ar   28   2.000   2.714   3.771
    1   AR   Ar   29   5.654   1.246   7.745
    1   AR   Ar   30   1.441   0.960   3.485
    1   AR   Ar   31   3.197   0.080   7.632
    1   AR   Ar   32   0.805   2.740   6.310
    1   AR   Ar   33   0.569   4.155  -0.234
    1   AR   Ar   34   0.779   4.682   2.517
    1   AR   Ar   35   6.053   5.544   1.856
    1   AR   Ar   36   6.083   2.934  -2.654
    1   AR   Ar   37   4.314   2.758   1.684
    1   AR   Ar   38   6.789   4.150   3.691
    1   AR   Ar   39   0.112   3.243   3.115
    1   AR   Ar   40   1.821   4.539   1.694
    1   AR   Ar   41   0.103   2.038   2.963
    1   AR   Ar   42   5.827   5.145   4.709
    1   AR   Ar   43   7.093   2.821   5.644
    1   AR   Ar   44   0.812   4.106   3.416
    1   AR   Ar   45   0.566   3.507   5.330
    1   AR   Ar   46   0.409   4.411   5.663
    1   AR   Ar   47   3.233   5.447   7.128
    1   AR   Ar   48   5.880   3.307   7.396
    1   AR   Ar   49   6.069   0.059  -1.492
    1   AR   Ar   50   3.336   4.940   0.019
    1   AR   Ar   51   5.712   3.795   2.330
    1   AR   Ar   52   5.291   2.725  -1.744
    1   AR   Ar   53   5.441   6.247   2.232
    1   AR   Ar   54   0.777   6.908   2.227
    1   AR   Ar   55   6.808   4.694   2.518
    1   AR   Ar   56   0.077   0.540   2.866
    1   AR   Ar   57   3.934   4.497   3.428
    1   AR   Ar   58   0.346   3.545   4.225
    1   AR   Ar   59   2.690   5.357   5.828
    1   AR   Ar   60   0.188   5.371   3.146
    1   AR   Ar   61   0.043   3.621   6.577
    1   AR   Ar   62   6.701   4.364   4.789
    1   AR   Ar   63   1.441   1.935   6.603
    1   AR   Ar   64   0.398   5.606   5.239
    1   AR   Ar   65   3.604   6.884   1.446
    1   AR   Ar   66   0.498   1.503   1.196
    1   AR   Ar   67   4.685   0.060  -0.745
    1   AR   Ar   68   0.612   0.339  -0.867
    1   AR   Ar   69   2.292   0.997   0.100
    1   AR   Ar   70   0.667   1.305   2.264
    1   AR   Ar   71   2.665   1.214   2.333
    1   AR   Ar   72   4.308   0.547   1.410
    1   AR   Ar   73   3.264   0.777   3.483
    1   AR   Ar   74   1.169   0.958   4.525
    1   AR   Ar   75   3.304   0.679   4.832
    1   AR   Ar   76   1.989   0.397   1.544
    1   AR   Ar   77   1.858   0.115   5.405
    1   AR   Ar   78   7.050   5.801   6.118
    1   AR   Ar   79   3.860   6.145   6.930
    1   AR   Ar   80   3.917   5.704   5.525
    1   AR   Ar   81   1.493   6.204   0.252
    1   AR   Ar   82   7.004   4.491   0.427
    1   AR   Ar   83   1.022   2.960  -0.226
    1   AR   Ar   84   0.708   4.559   1.387
    1   AR   Ar   85   1.570   3.209   1.008
    1   AR   Ar   86   1.778   5.709   1.149
    1   AR   Ar   87   2.708   3.352   2.225
    1   AR   Ar   88   2.948   5.193   1.334
    1   AR   Ar   89   0.248   2.358   1.945
    1   AR   Ar   90   3.292   1.745   4.777
    1   AR   Ar   91   1.419   1.918   3.302
    1   AR   Ar   92   1.452   3.379   2.014
    1   AR   Ar   93   1.174   1.328   5.577
    1   AR   Ar   94   1.386   7.047   9.743
    1   AR   Ar   95   4.298   1.387   5.228
    1   AR   Ar   96   2.963   6.912   4.313
    1   AR   Ar   97   4.277   1.794  -0.843
    1   AR   Ar   98   1.824   4.287   4.049
    1   AR   Ar   99   6.920   1.772   0.323
    1   AR   Ar  100   0.599   3.086  -1.770
    1   AR   Ar  101   3.778   5.860   2.018
    1   AR   Ar  102   3.671   1.535   2.655
    1   AR   Ar  103   2.373   4.437   0.619
    1   AR   Ar  104   3.198   5.227  -0.942
    1   AR   Ar  105   2.421   1.747   3.701
    1   AR   Ar  106   3.797   2.656   5.796
    1   AR   Ar  107   1.308   4.277   4.968
    1   AR   Ar  108   2.351   1.246   4.851
    1   AR   Ar  109   1.445   3.136   4.646
    1   AR   Ar  110   2.512   2.504   4.668
    1   AR   Ar  111   4.986   6.225   7.338
    1   AR   Ar  112   1.024   6.736   6.380
    1   AR   Ar  113   3.737   4.242  -0.946
    1   AR   Ar  114   2.127   7.023  -1.722
    1   AR   Ar  115   1.626   5.093   0.236
    1   AR   Ar  116   4.275   0.907  -0.139
    1   AR   Ar  117   0.586   5.028   4.267
    1   AR   Ar  118   1.365   4.952   3.335
    1   AR   Ar  119   2.007   4.237   2.715
    1   AR   Ar  120   1.616   6.398   1.916
    1   AR   Ar  121   5.436   4.055   5.368
    1   AR   Ar  122   3.083   5.882   4.667
    1   AR   Ar  123   2.654   3.273   5.448
    1   AR   Ar  124   1.029   5.516   1.934
    1   AR   Ar  125   6.480   3.140   4.643
    1   AR   Ar  126   6.758   6.810   5.624
    1   AR   Ar  127   4.196   3.984   6.804
    1   AR   Ar  128   2.988   2.707   6.304
    1   AR   Ar  129   1.791   5.580   4.108
    1   AR   Ar  130   5.138   1.625  -4.030
    1   AR   Ar  131   4.774   4.127  -2.451
    1   AR   Ar  132   0.715   1.874  -0.232
    1   AR   Ar  133   4.653   0.173   4.050
    1   AR   Ar  134   4.204   1.552   4.134
    1   AR   Ar  135   6.162   1.487   3.690
    1   AR   Ar  136   6.491   6.979   2.298
    1   AR   Ar  137   2.271   4.298   5.759
    1   AR   Ar  138   5.358   1.386   5.994
    1   AR   Ar  139   5.736   2.600   5.620
    1   AR   Ar  140   4.020   6.807   4.962
    1   AR   Ar  141   3.847   4.884   4.651
    1   AR   Ar  142   4.430   7.048   6.162
    1   AR   Ar  143   6.462   6.540   6.902
    1   AR   Ar  144   6.519   1.755   5.056
    1   AR   Ar  145   4.402   5.063  -0.840
    1   AR   Ar  146   3.341   2.499   2.576
    1   AR   Ar  147   4.390   3.452  -1.370
    1   AR   Ar  148   3.044   6.425  -1.122
    1   AR   Ar  149   1.842   1.507  -0.688
    1   AR   Ar  150   2.297   2.472   2.827
    1   AR   Ar  151   3.084   2.526   3.772
    1   AR   Ar  152   1.628   2.700  -1.522
    1   AR   Ar  153   5.447   0.757   4.356
    1   AR   Ar  154   4.338   2.513   3.970
    1   AR   Ar  155   6.480   3.841   5.613
    1   AR   Ar  156   2.906   4.670   3.797
    1   AR   Ar  157   1.586   4.898   6.222
    1   AR   Ar  158   0.124   1.847   6.139
    1   AR   Ar  159   3.407   0.368   6.085
    1   AR   Ar  160   1.648   1.909   4.529
    1   AR   Ar  161   4.925   4.847   3.127
    1   AR   Ar  162   4.058   6.187  -0.737
    1   AR   Ar  163   5.720   4.790   1.026
    1   AR   Ar  164   2.215   5.626   2.146
    1   AR   Ar  165   3.599   2.741   0.884
    1   AR   Ar  166   2.563   3.550   4.157
    1   AR   Ar  167   5.761   7.006   3.400
    1   AR   Ar  168   5.610   3.683  -1.860
    1   AR   Ar  169   3.237   3.700   3.085
    1   AR   Ar  170   1.714   3.189   5.865
    1   AR   Ar  171   5.885   3.843   4.301
    1   AR   Ar  172   4.116   3.617   5.501
    1   AR   Ar  173   2.228   2.005   5.643
    1   AR   Ar  174   1.896   6.086   5.565
    1   AR   Ar  175   3.444   1.503   5.824
    1   AR   Ar  176   3.584   2.964   4.768
    1   AR   Ar  177   1.039   5.152  -0.719
    1   AR   Ar  178   3.080   5.886   0.539
    1   AR   Ar  179   3.432   6.982  -0.366
    1   AR   Ar  180   5.302   1.607  -5.360
    1   AR   Ar  181   0.083   5.713   1.791
    1   AR   Ar  182   1.127   5.978   3.146
    1   AR   Ar  183   4.710   5.255   2.086
    1   AR   Ar  184   4.405   6.756   0.189
    1   AR   Ar  185   2.587   4.730   4.996
    1   AR   Ar  186   2.417   5.123   3.078
    1   AR   Ar  187   4.012   6.778   3.342
    1   AR   Ar  188   2.549   0.031   2.315
    1   AR   Ar  189   4.908   3.334   5.991
    1   AR   Ar  190   3.190   5.683   3.670
    1   AR   Ar  191   2.457   6.120   7.408
    1   AR   Ar  192   4.508   4.978   6.437
    1   AR   Ar  193   2.774   6.289   1.599
    1   AR   Ar  194   5.108   3.846  -0.804
    1   AR   Ar  195   5.789   1.035   0.355
    1   AR   Ar  196   3.752   0.955  -1.421
    1   AR   Ar  197   4.390   1.507   0.788
    1   AR   Ar  198   5.557   0.118   2.380
    1   AR   Ar  199   2.154   0.151   3.315
    1   AR   Ar  200   4.739   2.990   0.751
    1   AR   Ar  201   5.935   5.783   3.130
    1   AR   Ar  202   5.426   1.645   4.748
    1   AR   Ar  203   0.001   6.520   3.371
    1   AR   Ar  204   5.548   5.793   6.034
    1   AR   Ar  205   6.397   1.452   1.597
    1   AR   Ar  206   6.153   0.729   5.618
    1   AR   Ar  207   0.496   2.102   5.115
    1   AR   Ar  208   0.551   6.117   4.289
    1   AR   Ar  209   7.025   2.368  -2.158
    1   AR   Ar  210   2.484   6.943   0.669
    1   AR   Ar  211   7.069   3.553   0.897
    1   AR   Ar  212   6.062   4.008  -0.066
    1   AR   Ar  213   3.165   0.726   1.258
    1   AR   Ar  214   4.520   4.134   2.351
    1   AR   Ar  215   6.524   2.970   2.205
    1   AR   Ar  216   1.183   2.279   0.674
    1   AR   Ar  217   5.125   1.745   3.644
    1   AR   Ar  218   5.033   3.399   4.463
    1   AR   Ar  219   4.252   3.410   3.543
    1   AR   Ar  220   4.135   3.637   1.294
    1   AR   Ar  221   6.455   5.905   4.042
    1   AR   Ar  222   5.658   6.920   5.883
    1   AR   Ar  223   6.255   1.994   6.619
    1   AR   Ar  224   4.685   2.507   5.169
    1   AR   Ar  225   6.083   3.296   3.312
    1   AR   Ar  226   1.520   3.351   3.175
    1   AR   Ar  227   0.220   3.693   2.192
    1   AR   Ar  228   6.268   0.073   1.374
    1   AR   Ar  229   6.043   5.321  -1.081
    1   AR   Ar  230   3.509   3.930   4.249
    1   AR   Ar  231   4.364   1.748   2.019
    1   AR   Ar  232   5.538   2.856   1.505
    1   AR   Ar  233   6.764   2.556   3.935
    1   AR   Ar  234   5.508   2.611   4.011
    1   AR   Ar  235   6.570   0.588   3.982
    1   AR   Ar  236   5.024   5.070   5.468
    1   AR   Ar  237   5.190   2.337   6.649
    1   AR   Ar  238   5.445   4.957   6.900
    1   AR   Ar  239   0.183   4.664  10.394
    1   AR   Ar  240   7.008   2.618   7.089
    1   AR   Ar  241   1.922   5.772  -0.569
    1   AR   Ar  242   5.394   6.121   1.179
    1   AR   Ar  243   4.107   5.576   3.114
    1   AR   Ar  244   0.525   5.444   0.542
    1   AR   Ar  245   3.540   0.307   2.496
    1   AR   Ar  246   5.852   6.658  -0.695
    1   AR   Ar  247   6.281   3.993   1.405
    1   AR   Ar  248   5.141   6.172  -0.248
    1   AR   Ar  249   4.559   6.760   2.331
    1   AR   Ar  250   4.754   5.806   4.168
    1   AR   Ar  251   4.882   4.496   4.542
    1   AR   Ar  252   3.434   4.941   2.438
    1   AR   Ar  253   6.162   3.050   6.444
    1   AR   Ar  254   4.201   2.311   9.923
    1   AR   Ar  255   3.321   5.800  10.066
    1   AR   Ar  256   5.934   4.710   3.431
    7.12000  7.12000 12.00000
Argon-slab step 4265
  256
    1   AR   Ar    1   4.404   3.356  -3.349
    1   AR   Ar    2   6.286   6.820   0.313
    1   AR   Ar    3   3.924   2.232  -1.888
    1   AR   Ar    4   1.976   1.552   1.024
    1   AR   Ar    5   6.478   5.500   0.557
    1   AR   Ar    6   1.257   2.333   2.032
    1   AR   Ar    7   5.239   3.916   3.435
    1   AR   Ar    8   4.967   2.066  -0.068
    1   AR   Ar    9   0.561   0.161   3.842
    1   AR   Ar   10   6.915   6.831   4.595
    1   AR   Ar   11   1.741   6.645   4.403
    1   AR   Ar   12   0.194   1.471   3.871
    1   AR   Ar   13   7.021   0.883   5.069
    1   AR   Ar   14   4.425   1.278   6.547
    1   AR   Ar   15   3.170   6.713   8.594
    1   AR   Ar   16   0.830   7.120   5.183
    1   AR   Ar   17   5.528   1.824   0.774
    1   AR   Ar   18   7.071   5.186  -0.301
    1   AR   Ar   19   4.223   3.569   0.065
    1   AR   Ar   20   0.031   4.574  -2.898
    1   AR   Ar   21   2.511   2.177   1.782
    1   AR   Ar   22   5.911   1.277   2.536
    1   AR   Ar   23   0.285   6.370   1.112
    1   AR   Ar   24   5.030   2.833   2.623
    1   AR   Ar   25   0.766   2.494   3.842
    1   AR   Ar   26   5.972   6.745   4.335
    1   AR   Ar   27   1.619   0.825   2.521
    1   AR   Ar   28   1.983   2.711   3.777
    1   AR   Ar   29   5.632   1.262   7.713
    1   AR   Ar   30   1.437   0.958   3.451
    1   AR   Ar   31   3.219   0.101   7.615
    1   AR   Ar   32   0.767   2.721   6.301
    1   AR   Ar   33   0.542   4.155  -0.255
    1   AR   Ar   34   0.772   4.700   2.525
    1   AR   Ar   35   6.045   5.528   1.896
    1   AR   Ar   36   6.082   2.959  -2.640
    1   AR   Ar   37   4.305   2.753   1.712
    1   AR   Ar   38   6.776   4.157   3.703
    1   AR   Ar   39   0.108   3.270   3.106
    1   AR   Ar   40   1.778   4.500   1.710
    1   AR   Ar   41   0.125   2.037   2.959
    1   AR   Ar   42   5.863   5.124   4.711
    1   AR   Ar   43   7.077   2.823   5.631
    1   AR   Ar   44   0.822   4.104   3.426
    1   AR   Ar   45   0.564   3.519   5.324
    1   AR   Ar   46   0.432   4.398   5.707
    1   AR   Ar   47   3.213   5.463   7.127
    1   AR   Ar   48   5.910   3.339   7.404
    1   AR   Ar   49   6.130   0.073  -1.520
    1   AR   Ar   50   3.343   4.956   0.002
    1   AR   Ar   51   5.739   3.780   2.332
    1   AR   Ar   52   5.265   2.733  -1.747
    1   AR   Ar   53   5.441   6.258   2.257
    1   AR   Ar   54   0.748   6.948   2.241
    1   AR   Ar   55   6.800   4.684   2.536
    1   AR   Ar   56   0.081   0.523   2.870
    1   AR   Ar   57   3.948   4.490   3.422
    1   AR   Ar   58   0.318   3.545   4.222
    1   AR   Ar   59   2.703   5.387   5.853
    1   AR   Ar   60   0.163   5.368   3.161
    1   AR   Ar   61   0.019   3.620   6.587
    1   AR   Ar   62   6.721   4.399   4.815
    1   AR   Ar   63   1.466   1.943   6.591
    1   AR   Ar   64   0.399   5.605   5.227
    1   AR   Ar   65   3.632   6.845   1.451
    1   AR   Ar   66   0.484   1.467   1.162
    1   AR   Ar   67   4.696   0.097  -0.729
    1   AR   Ar   68   0.636   0.363  -0.874
    1   AR   Ar   69   2.295   1.010   0.116
    1   AR   Ar   70   0.672   1.316   2.303
    1   AR   Ar   71   2.687   1.177   2.333
    1   AR   Ar   72   4.308   0.569   1.406
    1   AR   Ar   73   3.265   0.745   3.468
    1   AR   Ar   74   1.180   0.962   4.522
    1   AR   Ar   75   3.298   0.652   4.846
    1   AR   Ar   76   2.012   0.379   1.559
    1   AR   Ar   77   1.820   0.141   5.404
    1   AR   Ar   78   7.042   5.830   6.150
    1   AR   Ar   79   3.881   6.132   6.913
    1   AR   Ar   80   3.913   5.715   5.546
    1   AR   Ar   81   1.451   6.231   0.241
    1   AR   Ar   82   6.965   4.510   0.439
    1   AR   Ar   83   1.035   2.979  -0.210
    1   AR   Ar   84   0.701   4.541   1.376
    1   AR   Ar   85   1.578   3.213   0.984
    1   AR   Ar   86   1.777   5.713   1.151
    1   AR   Ar   87   2.727   3.375   2.227
    1   AR   Ar   88   2.943   5.218   1.335
    1   AR   Ar   89   0.254   2.361   1.931
    1   AR   Ar   90   3.302   1.749   4.828
    1   AR   Ar   91   1.474   1.922   3.281
    1   AR   Ar   92   1.464   3.345   2.005
    1   AR   Ar   93   1.168   1.328   5.554
    1   AR   Ar   94   1.368   7.050   9.715
    1   AR   Ar   95   4.287   1.420   5.198
    1   AR   Ar   96   2.926   6.897   4.335
    1   AR   Ar   97   4.274   1.779  -0.819
    1   AR   Ar   98   1.844   4.271   4.059
    1   AR   Ar   99   6.910   1.750   0.325
    1   AR   Ar  100   0.600   3.080  -1.763
    1   AR   Ar  101   3.772   5.859   2.035
    1   AR   Ar  102   3.677   1.529   2.684
    1   AR   Ar  103   2.353   4.411   0.619
    1   AR   Ar  104   3.171   5.222  -0.936
    1   AR   Ar  105   2.427   1.754   3.691
    1   AR   Ar  106   3.800   2.633   5.794
    1   AR   Ar  107   1.331   4.259   4.983
    1   AR   Ar  108   2.327   1.227   4.862
    1   AR   Ar  109   1.430   3.163   4.678
    1   AR   Ar  110   2.508   2.507   4.651
    1   AR   Ar  111   4.997   6.212   7.356
    1   AR   Ar  112   1.015   6.717   6.348
    1   AR   Ar  113   3.727   4.214  -0.952
    1   AR   Ar  114   2.143   7.016  -1.732
    1   AR   Ar  115   1.626   5.063   0.238
    1   AR   Ar  116   4.285   0.902  -0.130
    1   AR   Ar  117   0.586   5.056   4.269
    1   AR   Ar  118   1.369   4.927   3.363
    1   AR   Ar  119   1.988   4.235   2.719
    1   AR   Ar  120   1.608   6.455   1.919
    1   AR   Ar  121   5.468   4.061   5.361
    1   AR   Ar  122   3.100   5.860   4.684
    1   AR   Ar  123   2.643   3.278   5.434
    1   AR   Ar  124   1.030   5.555   1.914
    1   AR   Ar  125   6.496   3.169   4.653
    1   AR   Ar  126   6.742   6.810   5.610
    1   AR   Ar  127   4.191   3.950   6.853
    1   AR   Ar  128   2.996   2.694   6.299
    1   AR   Ar  129   1.821   5.542   4.128
    1   AR   Ar  130   5.147   1.616  -4.037
    1   AR   Ar  131   4.775   4.175  -2.466
    1   AR   Ar  132   0.705   1.890  -0.199
    1   AR   Ar  133   4.606   0.191   4.068
    1   AR   Ar  134   4.198   1.539   4.145
    1   AR   Ar  135   6.191   1.508   3.685
    1   AR   Ar  136   6.511   6.982   2.312
    1   AR   Ar  137   2.259   4.297   5.781
    1   AR   Ar  138   5.347   1.395   6.009
    1   AR   Ar  139   5.707   2.599   5.631
    1   AR   Ar  140   4.035   6.794   4.954
    1   AR   Ar  141   3.853   4.898   4.661
    1   AR   Ar  142   4.450   7.035   6.163
    1   AR   Ar  143   6.449   6.513   6.895
    1   AR   Ar  144   6.495   1.736   5.050
    1   AR   Ar  145   4.399   5.042  -0.834
    1   AR   Ar  146   3.357   2.483   2.603
    1   AR   Ar  147   4.377   3.461  -1.384
    1   AR   Ar  148   3.012   6.451  -1.160
    1   AR   Ar  149   1.842   1.500  -0.678
    1   AR   Ar  150   2.283   2.472   2.824
    1   AR   Ar  151   3.090   2.516   3.772
    1   AR   Ar  152   1.614   2.728  -1.487
    1   AR   Ar  153   5.455   0.753   4.353
    1   AR   Ar  154   4.334   2.525   3.958
    1   AR   Ar  155   6.461   3.797   5.641
    1   AR   Ar  156   2.933   4.702   3.802
    1   AR   Ar  157   1.619   4.878   6.200
    1   AR   Ar  158   0.140   1.823   6.133
    1   AR   Ar  159   3.380   0.343   6.060
    1   AR   Ar  160   1.621   1.910   4.525
    1   AR   Ar  161   4.915   4.854   3.131
    1   AR   Ar  162   4.071   6.176  -0.751
    1   AR   Ar  163   5.702   4.790   1.015
    1   AR   Ar  164   2.221   5.638   2.142
    1   AR   Ar  165   3.590   2.771   0.873
    1   AR   Ar  166   2.562   3.564   4.168
    1   AR   Ar  167   5.757   7.036   3.436
    1   AR   Ar  168   5.620   3.700  -1.874
    1   AR   Ar  169   3.254   3.705   3.128
    1   AR   Ar  170   1.719   3.179   5.880
    1   AR   Ar  171   5.896   3.869   4.302
    1   AR   Ar  172   4.116   3.597   5.528
    1   AR   Ar  173   2.263   2.011   5.635
    1   AR   Ar  174   1.933   6.070   5.581
    1   AR   Ar  175   3.425   1.494   5.806
    1   AR   Ar  176   3.551   2.987   4.779
    1   AR   Ar  177   1.041   5.133  -0.763
    1   AR   Ar  178   3.055   5.868   0.546
    1   AR   Ar  179   3.415   6.991  -0.350
    1   AR   Ar  180   5.314   1.597  -5.388
    1   AR   Ar  181   0.068   5.722   1.817
    1   AR   Ar  182   1.115   5.931   3.118
    1   AR   Ar  183   4.698   5.259   2.097
    1   AR   Ar  184   4.384   6.769   0.188
    1   AR   Ar  185   2.573   4.738   4.963
    1   AR   Ar  186   2.410   5.136   3.095
    1   AR   Ar  187   3.992   6.771   3.378
    1   AR   Ar  188   2.536   0.059   2.331
    1   AR   Ar  189   4.889   3.362   5.992
    1   AR   Ar  190   3.154   5.712   3.670
    1   AR   Ar  191   2.470   6.114   7.413
    1   AR   Ar  192   4.506   4.953   6.454
    1   AR   Ar  193   2.745   6.283   1.605
    1   AR   Ar  194   5.128   3.869  -0.829
    1   AR   Ar  195   5.821   1.020   0.343
    1   AR   Ar  196   3.759   0.921  -1.389
    1   AR   Ar  197   4.367   1.492   0.811
    1   AR   Ar  198   5.564   0.123   2.347
    1   AR   Ar  199   2.161   0.167   3.294
    1   AR   Ar  200   4.756   2.989   0.755
    1   AR   Ar  201   5.959   5.786   3.123
    1   AR   Ar  202   5.462   1.641   4.712
    1   AR   Ar  203   0.014   6.523   3.358
    1   AR   Ar  204   5.537   5.806   6.052
    1   AR   Ar  205   6.365   1.449   1.599
    1   AR   Ar  206   6.154   0.725   5.616
    1   AR   Ar  207   0.488   2.082   5.111
    1   AR   Ar  208   0.541   6.159   4.330
    1   AR   Ar  209   6.996   2.375  -2.139
    1   AR   Ar  210   2.487   6.936   0.685
    1   AR   Ar  211   7.041   3.557   0.933
    1   AR   Ar  212   6.051   3.985  -0.070
    1   AR   Ar  213   3.177   0.771   1.279
    1   AR   Ar  214   4.519   4.134   2.349
    1   AR   Ar  215   6.519   2.966   2.262
    1   AR   Ar  216   1.207   2.261   0.657
    1   AR   Ar  217   5.136   1.761   3.630
    1   AR   Ar  218   5.060   3.380   4.454
    1   AR   Ar  219   4.275   3.398   3.540
    1   AR   Ar  220   4.153   3.651   1.296
    1   AR   Ar  221   6.451   5.912   4.070
    1   AR   Ar  222   5.636   6.918   5.859
    1   AR   Ar  223   6.236   2.005   6.615
    1   AR   Ar  224   4.678   2.506   5.175
    1   AR   Ar  225   6.118   3.300   3.333
    1   AR   Ar  226   1.513   3.368   3.184
    1   AR   Ar  227   0.242   3.676   2.196
    1   AR   Ar  228   6.294   0.107   1.382
    1   AR   Ar  229   6.072   5.308  -1.089
    1   AR   Ar  230   3.507   3.958   4.244
    1   AR   Ar  231   4.331   1.740   2.008
    1   AR   Ar  232   5.551   2.877   1.484
    1   AR   Ar  233   6.786   2.561   3.960
    1   AR   Ar  234   5.560   2.613   4.009
    1   AR   Ar  235   6.544   0.563   3.957
    1   AR   Ar  236   5.019   5.076   5.515
    1   AR   Ar  237   5.184   2.318   6.630
    1   AR   Ar  238   5.447   4.970   6.898
    1   AR   Ar  239   0.178   4.644  10.418
    1   AR   Ar  240   6.996   2.646   7.082
    1   AR   Ar  241   1.931   5.774  -0.539
    1   AR   Ar  242   5.381   6.148   1.210
    1   AR   Ar  243   4.120   5.602   3.097
    1   AR   Ar  244   0.520   5.406   0.536
    1   AR   Ar  245   3.501   0.299   2.525
    1   AR   Ar  246   5.870   6.636  -0.685
    1   AR   Ar  247   6.297   4.013   1.410
    1   AR   Ar  248   5.104   6.174  -0.222
    1   AR   Ar  249   4.591   6.750   2.280
    1   AR   Ar  250   4.748   5.763   4.177
    1   AR   Ar  251   4.868   4.480   4.589
    1   AR   Ar  252   3.441   4.953   2.435
    1   AR   Ar  253   6.157   3.061   6.434
    1   AR   Ar  254   4.230   2.313   9.916
    1   AR   Ar  255   3.321   5.841  10.081
    1   AR   Ar  256   5.938   4.730   3.437
    7.12000  7.12000 12.00000
Argon-slab step 4270
  256
    1   AR   Ar    1   4.414   3.352  -3.309
    1   AR   Ar    2   6.264   6.818   0.312
    1   AR   Ar    3   3.917   2.264  -1.873
    1   AR   Ar    4   1.961   1.551   1.011
    1   AR   Ar    5   6.465   5.473   0.549
    1   AR   Ar    6   1.305   2.337   2.005
    1   AR   Ar    7   5.265   3.914   3.433
    1   AR   Ar    8   4.984   2.080  -0.061
    1   AR   Ar    9   0.558   0.173   3.867
    1   AR   Ar   10   6.905   6.818   4.556
    1   AR   Ar   11   1.733   6.601   4.439
    1   AR   Ar   12   0.161   1.505   3.912
    1   AR   Ar   13   7.037   0.879   5.050
    1   AR   Ar   14   4.408   1.319   6.524
    1   AR   Ar   15   3.169   6.699   8.606
    1   AR   Ar   16   0.806   0.031   5.209
    1   AR   Ar   17   5.548   1.827   0.775
    1   AR   Ar   18   7.100   5.184  -0.317
    1   AR   Ar   19   4.212   3.605   0.045
    1   AR   Ar   20   0.028   4.611  -2.905
    1   AR   Ar   21   2.523   2.158   1.775
    1   AR   Ar   22   5.868   1.253   2.529
    1   AR   Ar   23   0.284   6.355   1.091
    1   AR   Ar   24   5.028   2.810   2.627
    1   AR   Ar   25   0.790   2.491   3.859
    1   AR   Ar   26   5.943   6.750   4.351
    1   AR   Ar   27   1.594   0.793   2.493
    1   AR   Ar   28   1.966   2.709   3.792
    1   AR   Ar   29   5.610   1.278   7.680
    1   AR   Ar   30   1.427   0.946   3.439
    1   AR   Ar   31   3.241   0.121   7.597
    1   AR   Ar   32   0.729   2.704   6.293
    1   AR   Ar   33   0.518   4.154  -0.279
    1   AR   Ar   34   0.763   4.709   2.518
    1   AR   Ar   35   6.043   5.506   1.933
    1   AR   Ar   36   6.081   2.985  -2.625
    1   AR   Ar   37   4.298   2.742   1.746
    1   AR   Ar   38   6.765   4.164   3.713
    1   AR   Ar   39   0.103   3.292   3.106
    1   AR   Ar   40   1.735   4.463   1.724
    1   AR   Ar   41   0.145   2.038   2.956
    1   AR   Ar   42   5.898   5.101   4.711
    1   AR   Ar   43   7.061   2.814   5.617
    1   AR   Ar   44   0.824   4.096   3.438
    1   AR   Ar   45   0.572   3.526   5.308
    1   AR   Ar   46   0.453   4.399   5.757
    1   AR   Ar   47   3.205   5.483   7.128
    1   AR   Ar   48   5.922   3.319   7.374
    1   AR   Ar   49   6.193   0.090  -1.551
    1   AR   Ar   50   3.352   4.968  -0.004
    1   AR   Ar   51   5.764   3.765   2.337
    1   AR   Ar   52   5.237   2.738  -1.750
    1   AR   Ar   53   5.446   6.259   2.288
    1   AR   Ar   54   0.716   6.990   2.257
    1   AR   Ar   55   6.779   4.670   2.555
    1   AR   Ar   56   0.084   0.506   2.875
    1   AR   Ar   57   3.962   4.484   3.416
    1   AR   Ar   58   0.293   3.541   4.221
    1   AR   Ar   59   2.719   5.416   5.879
    1   AR   Ar   60   0.139   5.368   3.180
    1   AR   Ar   61   7.115   3.620   6.593
    1   AR   Ar   62   6.745   4.435   4.839
    1   AR   Ar   63   1.491   1.950   6.577
    1   AR   Ar   64   0.402   5.602   5.215
    1   AR   Ar   65   3.649   6.838   1.452
    1   AR   Ar   66   0.470   1.432   1.130
    1   AR   Ar   67   4.707   0.132  -0.715
    1   AR   Ar   68   0.660   0.387  -0.881
    1   AR   Ar   69   2.301   1.020   0.136
    1   AR   Ar   70   0.677   1.329   2.342
    1   AR   Ar   71   2.711   1.135   2.346
    1   AR   Ar   72   4.309   0.591   1.403
    1   AR   Ar   73   3.265   0.714   3.455
    1   AR   Ar   74   1.189   0.962   4.519
    1   AR   Ar   75   3.293   0.626   4.861
    1   AR   Ar   76   2.029   0.365   1.565
    1   AR   Ar   77   1.789   0.168   5.403
    1   AR   Ar   78   7.033   5.860   6.184
    1   AR   Ar   79   3.915   6.131   6.892
    1   AR   Ar   80   3.918   5.703   5.570
    1   AR   Ar   81   1.406   6.261   0.235
    1   AR   Ar   82   6.922   4.526   0.460
    1   AR   Ar   83   1.048   2.997  -0.193
    1   AR   Ar   84   0.693   4.523   1.365
    1   AR   Ar   85   1.586   3.219   0.956
    1   AR   Ar   86   1.778   5.715   1.150
    1   AR   Ar   87   2.743   3.398   2.230
    1   AR   Ar   88   2.936   5.238   1.340
    1   AR   Ar   89   0.252   2.364   1.914
    1   AR   Ar   90   3.312   1.758   4.871
    1   AR   Ar   91   1.525   1.935   3.254
    1   AR   Ar   92   1.477   3.318   2.002
    1   AR   Ar   93   1.162   1.328   5.532
    1   AR   Ar   94   1.350   7.053   9.687
    1   AR   Ar   95   4.279   1.452   5.169
    1   AR   Ar   96   2.887   6.881   4.355
    1   AR   Ar   97   4.247   1.777  -0.798
    1   AR   Ar   98   1.862   4.258   4.066
    1   AR   Ar   99   6.898   1.729   0.329
    1   AR   Ar  100   0.602   3.075  -1.755
    1   AR   Ar  101   3.765   5.863   2.051
    1   AR   Ar  102   3.672   1.510   2.726
    1   AR   Ar  103   2.308   4.398   0.613
    1   AR   Ar  104   3.132   5.220  -0.945
    1   AR   Ar  105   2.432   1.751   3.684
    1   AR   Ar  106   3.820   2.605   5.782
    1   AR   Ar  107   1.337   4.256   4.984
    1   AR   Ar  108   2.304   1.205   4.873
    1   AR   Ar  109   1.416   3.189   4.708
    1   AR   Ar  110   2.505   2.510   4.640
    1   AR   Ar  111   5.008   6.198   7.372
    1   AR   Ar  112   1.007   6.698   6.313
    1   AR   Ar  113   3.715   4.186  -0.956
    1   AR   Ar  114   2.159   7.009  -1.740
    1   AR   Ar  115   1.621   5.036   0.241
    1   AR   Ar  116   4.295   0.896  -0.121
    1   AR   Ar  117   0.587   5.083   4.269
    1   AR   Ar  118   1.376   4.897   3.397
    1   AR   Ar  119   2.020   4.216   2.717
    1   AR   Ar  120   1.604   6.516   1.920
    1   AR   Ar  121   5.500   4.066   5.353
    1   AR   Ar  122   3.117   5.837   4.707
    1   AR   Ar  123   2.637   3.283   5.416
    1   AR   Ar  124   1.044   5.589   1.895
    1   AR   Ar  125   6.513   3.200   4.681
    1   AR   Ar  126   6.723   6.805   5.597
    1   AR   Ar  127   4.191   3.954   6.849
    1   AR   Ar  128   2.986   2.678   6.317
    1   AR   Ar  129   1.851   5.503   4.149
    1   AR   Ar  130   5.157   1.607  -4.045
    1   AR   Ar  131   4.777   4.220  -2.481
    1   AR   Ar  132   0.692   1.893  -0.187
    1   AR   Ar  133   4.558   0.209   4.086
    1   AR   Ar  134   4.190   1.519   4.157
    1   AR   Ar  135   6.220   1.532   3.681
    1   AR   Ar  136   6.546   6.977   2.338
    1   AR   Ar  137   2.255   4.278   5.806
    1   AR   Ar  138   5.339   1.407   6.022
    1   AR   Ar  139   5.677   2.596   5.637
    1   AR   Ar  140   4.049   6.781   4.946
    1   AR   Ar  141   3.858   4.914   4.671
    1   AR   Ar  142   4.470   7.021   6.165
    1   AR   Ar  143   6.435   6.485   6.885
    1   AR   Ar  144   6.468   1.727   5.044
    1   AR   Ar  145   4.397   5.024  -0.828
    1   AR   Ar  146   3.371   2.474   2.629
    1   AR   Ar  147   4.362   3.466  -1.402
    1   AR   Ar  148   3.005   6.463  -1.185
    1   AR   Ar  149   1.839   1.497  -0.671
    1   AR   Ar  150   2.270   2.472   2.816
    1   AR   Ar  151   3.102   2.513   3.769
    1   AR   Ar  152   1.601   2.756  -1.451
    1   AR   Ar  153   5.465   0.728   4.355
    1   AR   Ar  154   4.324   2.528   3.946
    1   AR   Ar  155   6.445   3.749   5.670
    1   AR   Ar  156   2.961   4.727   3.816
    1   AR   Ar  157   1.649   4.890   6.188
    1   AR   Ar  158   0.155   1.798   6.127
    1   AR   Ar  159   3.354   0.320   6.034
    1   AR   Ar  160   1.590   1.918   4.518
    1   AR   Ar  161   4.906   4.866   3.133
    1   AR   Ar  162   4.083   6.164  -0.763
    1   AR   Ar  163   5.713   4.787   1.004
    1   AR   Ar  164   2.227   5.640   2.138
    1   AR   Ar  165   3.582   2.801   0.861
    1   AR   Ar  166   2.562   3.570   4.181
    1   AR   Ar  167   5.749   7.070   3.457
    1   AR   Ar  168   5.629   3.721  -1.888
    1   AR   Ar  169   3.270   3.710   3.173
    1   AR   Ar  170   1.729   3.162   5.881
    1   AR   Ar  171   5.911   3.910   4.298
    1   AR   Ar  172   4.089   3.588   5.541
    1   AR   Ar  173   2.298   2.018   5.627
    1   AR   Ar  174   1.967   6.055   5.595
    1   AR   Ar  175   3.405   1.483   5.795
    1   AR   Ar  176   3.517   3.009   4.788
    1   AR   Ar  177   1.042   5.114  -0.805
    1   AR   Ar  178   3.042   5.846   0.537
    1   AR   Ar  179   3.399   7.002  -0.330
    1   AR   Ar  180   5.325   1.586  -5.416
    1   AR   Ar  181   0.037   5.723   1.852
    1   AR   Ar  182   1.102   5.887   3.088
    1   AR   Ar  183   4.687   5.264   2.110
    1   AR   Ar  184   4.357   6.785   0.192
    1   AR   Ar  185   2.563   4.752   4.913
    1   AR   Ar  186   2.398   5.157   3.104
    1   AR   Ar  187   3.970   6.763   3.411
    1   AR   Ar  188   2.524   0.081   2.349
    1   AR   Ar  189   4.895   3.381   6.007
    1   AR   Ar  190   3.120   5.744   3.664
    1   AR   Ar  191   2.479   6.110   7.450
    1   AR   Ar  192   4.500   4.930   6.469
    1   AR   Ar  193   2.718   6.284   1.605
    1   AR   Ar  194   5.152   3.895  -0.850
    1   AR   Ar  195   5.859   0.989   0.322
    1   AR   Ar  196   3.767   0.887  -1.355
    1   AR   Ar  197   4.344   1.479   0.834
    1   AR   Ar  198   5.562   0.142   2.316
    1   AR   Ar  199   2.169   0.183   3.277
    1   AR   Ar  200   4.776   2.982   0.758
    1   AR   Ar  201   5.984   5.791   3.114
    1   AR   Ar  202   5.496   1.657   4.684
    1   AR   Ar  203   0.025   6.524   3.343
    1   AR   Ar  204   5.528   5.841   6.086
    1   AR   Ar  205   6.335   1.446   1.597
    1   AR   Ar  206   6.152   0.721   5.614
    1   AR   Ar  207   0.470   2.057   5.111
    1   AR   Ar  208   0.530   6.171   4.336
    1   AR   Ar  209   6.965   2.381  -2.121
    1   AR   Ar  210   2.491   6.929   0.701
    1   AR   Ar  211   7.055   3.572   0.935
    1   AR   Ar  212   6.041   3.963  -0.074
    1   AR   Ar  213   3.189   0.815   1.302
    1   AR   Ar  214   4.532   4.138   2.306
    1   AR   Ar  215   6.513   2.963   2.320
    1   AR   Ar  216   1.231   2.243   0.643
    1   AR   Ar  217   5.145   1.772   3.613
    1   AR   Ar  218   5.073   3.359   4.450
    1   AR   Ar  219   4.296   3.400   3.531
    1   AR   Ar  220   4.168   3.675   1.297
    1   AR   Ar  221   6.454   5.910   4.098
    1   AR   Ar  222   5.612   6.915   5.834
    1   AR   Ar  223   6.216   2.013   6.609
    1   AR   Ar  224   4.671   2.506   5.179
    1   AR   Ar  225   6.155   3.303   3.353
    1   AR   Ar  226   1.505   3.386   3.186
    1   AR   Ar  227   0.267   3.664   2.192
    1   AR   Ar  228   6.317   0.145   1.379
    1   AR   Ar  229   6.101   5.296  -1.095
    1   AR   Ar  230   3.511   3.983   4.241
    1   AR   Ar  231   4.310   1.734   1.984
    1   AR   Ar  232   5.560   2.909   1.455
    1   AR   Ar  233   6.813   2.556   3.972
    1   AR   Ar  234   5.619   2.615   4.008
    1   AR   Ar  235   6.521   0.534   3.933
    1   AR   Ar  236   5.011   5.080   5.559
    1   AR   Ar  237   5.179   2.300   6.609
    1   AR   Ar  238   5.452   4.983   6.895
    1   AR   Ar  239   0.187   4.674  10.411
    1   AR   Ar  240   6.984   2.673   7.074
    1   AR   Ar  241   1.945   5.775  -0.513
    1   AR   Ar  242   5.368   6.175   1.239
    1   AR   Ar  243   4.133   5.629   3.079
    1   AR   Ar  244   0.520   5.369   0.535
    1   AR   Ar  245   3.471   0.292   2.551
    1   AR   Ar  246   5.892   6.615  -0.676
    1   AR   Ar  247   6.301   4.033   1.414
    1   AR   Ar  248   5.064   6.170  -0.195
    1   AR   Ar  249   4.608   6.746   2.229
    1   AR   Ar  250   4.741   5.719   4.185
    1   AR   Ar  251   4.853   4.459   4.622
    1   AR   Ar  252   3.446   4.961   2.436
    1   AR   Ar  253   6.155   3.074   6.421
    1   AR   Ar  254   4.259   2.316   9.910
    1   AR   Ar  255   3.321   5.882  10.096
    1   AR   Ar  256   5.943   4.751   3.444
    7.12000  7.12000 12.00000
Argon-slab step 4275
  256
    1   AR   Ar    1   4.425   3.349  -3.268
    1   AR   Ar    2   6.206   6.821   0.317
    1   AR   Ar    3   3.911   2.296  -1.856
    1   AR   Ar    4   1.947   1.550   1.001
    1   AR   Ar    5   6.451   5.450   0.542
    1   AR   Ar    6   1.357   2.330   1.979
    1   AR   Ar    7   5.289   3.910   3.430
    1   AR   Ar    8   4.998   2.095  -0.055
    1   AR   Ar    9   0.555   0.187   3.895
    1   AR   Ar   10   6.902   6.812   4.518
    1   AR   Ar   11   1.723   6.558   4.475
    1   AR   Ar   12   0.130   1.538   3.956
    1   AR   Ar   13   7.061   0.870   5.029
    1   AR   Ar   14   4.388   1.360   6.501
    1   AR   Ar   15   3.168   6.685   8.617
    1   AR   Ar   16   0.789   0.032   5.226
    1   AR   Ar   17   5.566   1.839   0.784
    1   AR   Ar   18   0.007   5.183  -0.341
    1   AR   Ar   19   4.201   3.642   0.025
    1   AR   Ar   20   0.025   4.649  -2.913
    1   AR   Ar   21   2.536   2.140   1.770
    1   AR   Ar   22   5.824   1.228   2.526
    1   AR   Ar   23   0.286   6.343   1.064
    1   AR   Ar   24   5.026   2.787   2.630
    1   AR   Ar   25   0.816   2.490   3.878
    1   AR   Ar   26   5.902   6.755   4.382
    1   AR   Ar   27   1.574   0.759   2.451
    1   AR   Ar   28   1.947   2.709   3.812
    1   AR   Ar   29   5.588   1.295   7.646
    1   AR   Ar   30   1.411   0.932   3.443
    1   AR   Ar   31   3.263   0.140   7.577
    1   AR   Ar   32   0.693   2.689   6.286
    1   AR   Ar   33   0.504   4.155  -0.300
    1   AR   Ar   34   0.755   4.718   2.508
    1   AR   Ar   35   6.044   5.479   1.969
    1   AR   Ar   36   6.080   3.010  -2.609
    1   AR   Ar   37   4.292   2.732   1.781
    1   AR   Ar   38   6.756   4.174   3.720
    1   AR   Ar   39   0.098   3.309   3.116
    1   AR   Ar   40   1.717   4.466   1.741
    1   AR   Ar   41   0.165   2.042   2.956
    1   AR   Ar   42   5.930   5.078   4.710
    1   AR   Ar   43   7.044   2.799   5.601
    1   AR   Ar   44   0.815   4.082   3.451
    1   AR   Ar   45   0.585   3.528   5.285
    1   AR   Ar   46   0.472   4.410   5.811
    1   AR   Ar   47   3.195   5.490   7.128
    1   AR   Ar   48   5.933   3.301   7.349
    1   AR   Ar   49   6.256   0.107  -1.582
    1   AR   Ar   50   3.364   4.976  -0.003
    1   AR   Ar   51   5.788   3.749   2.343
    1   AR   Ar   52   5.207   2.742  -1.753
    1   AR   Ar   53   5.461   6.249   2.323
    1   AR   Ar   54   0.682   7.032   2.273
    1   AR   Ar   55   6.740   4.653   2.576
    1   AR   Ar   56   0.088   0.492   2.885
    1   AR   Ar   57   3.978   4.481   3.409
    1   AR   Ar   58   0.272   3.534   4.222
    1   AR   Ar   59   2.739   5.441   5.907
    1   AR   Ar   60   0.116   5.370   3.202
    1   AR   Ar   61   7.092   3.620   6.596
    1   AR   Ar   62   6.771   4.469   4.862
    1   AR   Ar   63   1.516   1.956   6.560
    1   AR   Ar   64   0.404   5.597   5.205
    1   AR   Ar   65   3.650   6.882   1.450
    1   AR   Ar   66   0.458   1.399   1.100
    1   AR   Ar   67   4.719   0.164  -0.704
    1   AR   Ar   68   0.683   0.411  -0.887
    1   AR   Ar   69   2.309   1.027   0.159
    1   AR   Ar   70   0.681   1.343   2.380
    1   AR   Ar   71   2.736   1.091   2.367
    1   AR   Ar   72   4.309   0.612   1.403
    1   AR   Ar   73   3.263   0.685   3.448
    1   AR   Ar   74   1.195   0.956   4.515
    1   AR   Ar   75   3.292   0.614   4.872
    1   AR   Ar   76   2.041   0.357   1.558
    1   AR   Ar   77   1.764   0.196   5.402
    1   AR   Ar   78   7.023   5.891   6.217
    1   AR   Ar   79   3.958   6.138   6.868
    1   AR   Ar   80   3.923   5.692   5.594
    1   AR   Ar   81   1.377   6.280   0.250
    1   AR   Ar   82   6.878   4.537   0.486
    1   AR   Ar   83   1.061   3.016  -0.176
    1   AR   Ar   84   0.683   4.506   1.354
    1   AR   Ar   85   1.595   3.226   0.926
    1   AR   Ar   86   1.783   5.717   1.146
    1   AR   Ar   87   2.757   3.419   2.232
    1   AR   Ar   88   2.927   5.254   1.352
    1   AR   Ar   89   0.247   2.366   1.896
    1   AR   Ar   90   3.317   1.775   4.897
    1   AR   Ar   91   1.564   1.949   3.223
    1   AR   Ar   92   1.491   3.302   2.004
    1   AR   Ar   93   1.157   1.328   5.511
    1   AR   Ar   94   1.333   7.056   9.659
    1   AR   Ar   95   4.277   1.483   5.147
    1   AR   Ar   96   2.849   6.864   4.374
    1   AR   Ar   97   4.220   1.775  -0.779
    1   AR   Ar   98   1.875   4.251   4.070
    1   AR   Ar   99   6.881   1.706   0.335
    1   AR   Ar  100   0.603   3.072  -1.746
    1   AR   Ar  101   3.759   5.873   2.064
    1   AR   Ar  102   3.664   1.483   2.777
    1   AR   Ar  103   2.269   4.380   0.612
    1   AR   Ar  104   3.092   5.220  -0.962
    1   AR   Ar  105   2.439   1.740   3.680
    1   AR   Ar  106   3.845   2.571   5.765
    1   AR   Ar  107   1.331   4.266   4.976
    1   AR   Ar  108   2.282   1.182   4.884
    1   AR   Ar  109   1.404   3.212   4.737
    1   AR   Ar  110   2.504   2.512   4.636
    1   AR   Ar  111   5.018   6.183   7.386
    1   AR   Ar  112   0.999   6.678   6.277
    1   AR   Ar  113   3.701   4.159  -0.958
    1   AR   Ar  114   2.176   7.001  -1.748
    1   AR   Ar  115   1.609   5.014   0.241
    1   AR   Ar  116   4.304   0.892  -0.109
    1   AR   Ar  117   0.588   5.105   4.266
    1   AR   Ar  118   1.389   4.879   3.428
    1   AR   Ar  119   2.052   4.197   2.717
    1   AR   Ar  120   1.603   6.578   1.921
    1   AR   Ar  121   5.531   4.071   5.345
    1   AR   Ar  122   3.133   5.813   4.735
    1   AR   Ar  123   2.635   3.289   5.395
    1   AR   Ar  124   1.061   5.621   1.879
    1   AR   Ar  125   6.529   3.231   4.720
    1   AR   Ar  126   6.707   6.798   5.589
    1   AR   Ar  127   4.192   3.957   6.843
    1   AR   Ar  128   2.966   2.662   6.340
    1   AR   Ar  129   1.883   5.463   4.171
    1   AR   Ar  130   5.167   1.598  -4.054
    1   AR   Ar  131   4.778   4.265  -2.495
    1   AR   Ar  132   0.676   1.888  -0.191
    1   AR   Ar  133   4.509   0.228   4.106
    1   AR   Ar  134   4.179   1.494   4.162
    1   AR   Ar  135   6.248   1.560   3.676
    1   AR   Ar  136   6.587   6.967   2.369
    1   AR   Ar  137   2.265   4.240   5.823
    1   AR   Ar  138   5.333   1.419   6.032
    1   AR   Ar  139   5.647   2.590   5.640
    1   AR   Ar  140   4.061   6.768   4.938
    1   AR   Ar  141   3.861   4.933   4.681
    1   AR   Ar  142   4.489   7.006   6.165
    1   AR   Ar  143   6.420   6.457   6.874
    1   AR   Ar  144   6.442   1.723   5.040
    1   AR   Ar  145   4.394   5.006  -0.821
    1   AR   Ar  146   3.382   2.472   2.654
    1   AR   Ar  147   4.347   3.467  -1.424
    1   AR   Ar  148   3.017   6.466  -1.202
    1   AR   Ar  149   1.834   1.495  -0.666
    1   AR   Ar  150   2.264   2.477   2.802
    1   AR   Ar  151   3.122   2.516   3.764
    1   AR   Ar  152   1.583   2.777  -1.439
    1   AR   Ar  153   5.476   0.692   4.352
    1   AR   Ar  154   4.310   2.518   3.936
    1   AR   Ar  155   6.433   3.701   5.698
    1   AR   Ar  156   2.974   4.744   3.830
    1   AR   Ar  157   1.663   4.918   6.184
    1   AR   Ar  158   0.168   1.773   6.120
    1   AR   Ar  159   3.330   0.296   6.006
    1   AR   Ar  160   1.558   1.932   4.510
    1   AR   Ar  161   4.898   4.880   3.134
    1   AR   Ar  162   4.085   6.196  -0.755
    1   AR   Ar  163   5.723   4.787   0.991
    1   AR   Ar  164   2.226   5.631   2.142
    1   AR   Ar  165   3.576   2.831   0.849
    1   AR   Ar  166   2.566   3.566   4.194
    1   AR   Ar  167   5.728   7.054   3.466
    1   AR   Ar  168   5.639   3.744  -1.902
    1   AR   Ar  169   3.283   3.714   3.219
    1   AR   Ar  170   1.733   3.145   5.883
    1   AR   Ar  171   5.925   3.960   4.293
    1   AR   Ar  172   4.034   3.588   5.549
    1   AR   Ar  173   2.333   2.027   5.619
    1   AR   Ar  174   1.997   6.044   5.606
    1   AR   Ar  175   3.384   1.469   5.800
    1   AR   Ar  176   3.483   3.028   4.794
    1   AR   Ar  177   1.043   5.095  -0.845
    1   AR   Ar  178   3.027   5.831   0.524
    1   AR   Ar  179   3.384   7.014  -0.309
    1   AR   Ar  180   5.337   1.576  -5.442
    1   AR   Ar  181   7.117   5.720   1.892
    1   AR   Ar  182   1.090   5.845   3.058
    1   AR   Ar  183   4.678   5.269   2.123
    1   AR   Ar  184   4.325   6.806   0.200
    1   AR   Ar  185   2.554   4.767   4.859
    1   AR   Ar  186   2.382   5.181   3.108
    1   AR   Ar  187   3.946   6.752   3.442
    1   AR   Ar  188   2.512   0.091   2.368
    1   AR   Ar  189   4.919   3.393   6.033
    1   AR   Ar  190   3.088   5.780   3.655
    1   AR   Ar  191   2.483   6.112   7.490
    1   AR   Ar  192   4.488   4.908   6.485
    1   AR   Ar  193   2.698   6.296   1.596
    1   AR   Ar  194   5.179   3.922  -0.869
    1   AR   Ar  195   5.900   0.949   0.298
    1   AR   Ar  196   3.775   0.853  -1.320
    1   AR   Ar  197   4.323   1.470   0.856
    1   AR   Ar  198   5.556   0.171   2.285
    1   AR   Ar  199   2.175   0.200   3.270
    1   AR   Ar  200   4.795   2.972   0.757
    1   AR   Ar  201   6.010   5.796   3.105
    1   AR   Ar  202   5.526   1.685   4.658
    1   AR   Ar  203   0.035   6.524   3.328
    1   AR   Ar  204   5.520   5.876   6.123
    1   AR   Ar  205   6.306   1.443   1.591
    1   AR   Ar  206   6.148   0.718   5.612
    1   AR   Ar  207   0.454   2.031   5.106
    1   AR   Ar  208   0.506   6.166   4.337
    1   AR   Ar  209   6.932   2.387  -2.104
    1   AR   Ar  210   2.495   6.922   0.717
    1   AR   Ar  211   7.076   3.581   0.935
    1   AR   Ar  212   6.031   3.942  -0.076
    1   AR   Ar  213   3.199   0.858   1.326
    1   AR   Ar  214   4.546   4.141   2.266
    1   AR   Ar  215   6.506   2.960   2.378
    1   AR   Ar  216   1.254   2.225   0.632
    1   AR   Ar  217   5.151   1.781   3.595
    1   AR   Ar  218   5.075   3.337   4.450
    1   AR   Ar  219   4.317   3.418   3.515
    1   AR   Ar  220   4.182   3.704   1.296
    1   AR   Ar  221   6.462   5.903   4.123
    1   AR   Ar  222   5.589   6.912   5.810
    1   AR   Ar  223   6.196   2.017   6.605
    1   AR   Ar  224   4.668   2.506   5.179
    1   AR   Ar  225   6.192   3.306   3.374
    1   AR   Ar  226   1.497   3.402   3.184
    1   AR   Ar  227   0.294   3.657   2.179
    1   AR   Ar  228   6.338   0.184   1.371
    1   AR   Ar  229   6.130   5.285  -1.100
    1   AR   Ar  230   3.522   4.002   4.243
    1   AR   Ar  231   4.294   1.724   1.954
    1   AR   Ar  232   5.572   2.941   1.430
    1   AR   Ar  233   6.841   2.544   3.977
    1   AR   Ar  234   5.682   2.615   4.007
    1   AR   Ar  235   6.501   0.505   3.911
    1   AR   Ar  236   5.003   5.082   5.598
    1   AR   Ar  237   5.171   2.285   6.588
    1   AR   Ar  238   5.460   4.997   6.893
    1   AR   Ar  239   0.196   4.703  10.404
    1   AR   Ar  240   6.972   2.698   7.066
    1   AR   Ar  241   1.963   5.773  -0.491
    1   AR   Ar  242   5.355   6.201   1.266
    1   AR   Ar  243   4.145   5.656   3.062
    1   AR   Ar  244   0.524   5.333   0.540
    1   AR   Ar  245   3.453   0.285   2.573
    1   AR   Ar  246   5.915   6.594  -0.668
    1   AR   Ar  247   6.317   4.029   1.396
    1   AR   Ar  248   5.027   6.160  -0.170
    1   AR   Ar  249   4.610   6.748   2.176
    1   AR   Ar  250   4.734   5.673   4.193
    1   AR   Ar  251   4.857   4.445   4.637
    1   AR   Ar  252   3.450   4.964   2.440
    1   AR   Ar  253   6.155   3.085   6.406
    1   AR   Ar  254   4.288   2.318   9.903
    1   AR   Ar  255   3.321   5.923  10.110
    1   AR   Ar  256   5.949   4.774   3.451
    7.12000  7.12000 12.00000
Argon-slab step 4280
  256
    1   AR   Ar    1   4.436   3.346  -3.226
    1   AR   Ar    2   6.148   6.823   0.327
    1   AR   Ar    3   3.907   2.328  -1.838
    1   AR   Ar    4   1.935   1.545   0.996
    1   AR   Ar    5   6.436   5.437   0.537
    1   AR   Ar    6   1.407   2.309   1.953
    1   AR   Ar    7   5.312   3.904   3.426
    1   AR   Ar    8   5.017   2.088  -0.056
    1   AR   Ar    9   0.553   0.203   3.924
    1   AR   Ar   10   6.901   6.816   4.484
    1   AR   Ar   11   1.713   6.515   4.513
    1   AR   Ar   12   0.105   1.568   4.002
    1   AR   Ar   13   7.089   0.858   5.006
    1   AR   Ar   14   4.366   1.401   6.477
    1   AR   Ar   15   3.167   6.670   8.627
    1   AR   Ar   16   0.762   0.031   5.239
    1   AR   Ar   17   5.585   1.852   0.800
    1   AR   Ar   18   0.031   5.182  -0.370
    1   AR   Ar   19   4.190   3.679   0.004
    1   AR   Ar   20   0.004   4.641  -2.917
    1   AR   Ar   21   2.549   2.122   1.767
    1   AR   Ar   22   5.779   1.202   2.526
    1   AR   Ar   23   0.289   6.331   1.037
    1   AR   Ar   24   5.026   2.766   2.635
    1   AR   Ar   25   0.841   2.489   3.895
    1   AR   Ar   26   5.855   6.758   4.426
    1   AR   Ar   27   1.557   0.722   2.404
    1   AR   Ar   28   1.928   2.713   3.833
    1   AR   Ar   29   5.565   1.313   7.610
    1   AR   Ar   30   1.392   0.917   3.455
    1   AR   Ar   31   3.285   0.158   7.558
    1   AR   Ar   32   0.662   2.677   6.281
    1   AR   Ar   33   0.478   4.188  -0.284
    1   AR   Ar   34   0.747   4.726   2.498
    1   AR   Ar   35   6.047   5.447   2.003
    1   AR   Ar   36   6.078   3.035  -2.592
    1   AR   Ar   37   4.286   2.726   1.815
    1   AR   Ar   38   6.754   4.186   3.723
    1   AR   Ar   39   0.096   3.324   3.133
    1   AR   Ar   40   1.715   4.495   1.760
    1   AR   Ar   41   0.183   2.050   2.959
    1   AR   Ar   42   5.958   5.055   4.708
    1   AR   Ar   43   7.019   2.780   5.586
    1   AR   Ar   44   0.808   4.067   3.457
    1   AR   Ar   45   0.596   3.530   5.262
    1   AR   Ar   46   0.490   4.426   5.865
    1   AR   Ar   47   3.186   5.489   7.126
    1   AR   Ar   48   5.942   3.283   7.333
    1   AR   Ar   49   6.318   0.124  -1.612
    1   AR   Ar   50   3.378   4.979   0.003
    1   AR   Ar   51   5.809   3.735   2.352
    1   AR   Ar   52   5.177   2.747  -1.755
    1   AR   Ar   53   5.479   6.236   2.363
    1   AR   Ar   54   0.649   7.071   2.287
    1   AR   Ar   55   6.699   4.634   2.595
    1   AR   Ar   56   0.091   0.485   2.902
    1   AR   Ar   57   3.993   4.481   3.401
    1   AR   Ar   58   0.258   3.524   4.224
    1   AR   Ar   59   2.766   5.459   5.935
    1   AR   Ar   60   0.092   5.373   3.227
    1   AR   Ar   61   7.071   3.623   6.595
    1   AR   Ar   62   6.801   4.499   4.885
    1   AR   Ar   63   1.541   1.964   6.541
    1   AR   Ar   64   0.404   5.591   5.200
    1   AR   Ar   65   3.648   6.924   1.449
    1   AR   Ar   66   0.447   1.367   1.072
    1   AR   Ar   67   4.733   0.191  -0.696
    1   AR   Ar   68   0.707   0.436  -0.893
    1   AR   Ar   69   2.320   1.029   0.182
    1   AR   Ar   70   0.687   1.355   2.416
    1   AR   Ar   71   2.759   1.053   2.388
    1   AR   Ar   72   4.311   0.627   1.407
    1   AR   Ar   73   3.257   0.662   3.454
    1   AR   Ar   74   1.196   0.959   4.510
    1   AR   Ar   75   3.297   0.646   4.866
    1   AR   Ar   76   2.048   0.355   1.536
    1   AR   Ar   77   1.746   0.221   5.399
    1   AR   Ar   78   7.016   5.920   6.247
    1   AR   Ar   79   4.005   6.147   6.840
    1   AR   Ar   80   3.929   5.680   5.618
    1   AR   Ar   81   1.375   6.281   0.293
    1   AR   Ar   82   6.844   4.554   0.506
    1   AR   Ar   83   1.074   3.035  -0.158
    1   AR   Ar   84   0.676   4.487   1.338
    1   AR   Ar   85   1.604   3.234   0.895
    1   AR   Ar   86   1.792   5.719   1.137
    1   AR   Ar   87   2.771   3.439   2.236
    1   AR   Ar   88   2.918   5.264   1.370
    1   AR   Ar   89   0.243   2.369   1.878
    1   AR   Ar   90   3.315   1.800   4.902
    1   AR   Ar   91   1.576   1.951   3.213
    1   AR   Ar   92   1.508   3.301   2.009
    1   AR   Ar   93   1.162   1.345   5.511
    1   AR   Ar   94   1.315   7.059   9.632
    1   AR   Ar   95   4.278   1.512   5.143
    1   AR   Ar   96   2.810   6.846   4.391
    1   AR   Ar   97   4.191   1.773  -0.760
    1   AR   Ar   98   1.883   4.250   4.073
    1   AR   Ar   99   6.861   1.684   0.342
    1   AR   Ar  100   0.602   3.069  -1.738
    1   AR   Ar  101   3.752   5.889   2.074
    1   AR   Ar  102   3.656   1.450   2.831
    1   AR   Ar  103   2.276   4.371   0.618
    1   AR   Ar  104   3.094   5.216  -0.971
    1   AR   Ar  105   2.450   1.722   3.679
    1   AR   Ar  106   3.866   2.532   5.751
    1   AR   Ar  107   1.325   4.279   4.971
    1   AR   Ar  108   2.260   1.159   4.895
    1   AR   Ar  109   1.397   3.232   4.760
    1   AR   Ar  110   2.504   2.512   4.637
    1   AR   Ar  111   5.029   6.167   7.398
    1   AR   Ar  112   0.990   6.659   6.238
    1   AR   Ar  113   3.686   4.135  -0.958
    1   AR   Ar  114   2.192   6.993  -1.755
    1   AR   Ar  115   1.596   5.011   0.233
    1   AR   Ar  116   4.310   0.890  -0.094
    1   AR   Ar  117   0.575   5.072   4.269
    1   AR   Ar  118   1.405   4.871   3.454
    1   AR   Ar  119   2.085   4.177   2.719
    1   AR   Ar  120   1.604   6.638   1.923
    1   AR   Ar  121   5.561   4.076   5.336
    1   AR   Ar  122   3.150   5.788   4.765
    1   AR   Ar  123   2.637   3.296   5.373
    1   AR   Ar  124   1.078   5.650   1.867
    1   AR   Ar  125   6.543   3.259   4.763
    1   AR   Ar  126   6.690   6.791   5.582
    1   AR   Ar  127   4.192   3.956   6.837
    1   AR   Ar  128   2.943   2.647   6.362
    1   AR   Ar  129   1.917   5.424   4.193
    1   AR   Ar  130   5.177   1.590  -4.063
    1   AR   Ar  131   4.780   4.308  -2.508
    1   AR   Ar  132   0.661   1.883  -0.198
    1   AR   Ar  133   4.462   0.250   4.127
    1   AR   Ar  134   4.167   1.466   4.158
    1   AR   Ar  135   6.271   1.588   3.672
    1   AR   Ar  136   6.627   6.950   2.401
    1   AR   Ar  137   2.284   4.192   5.832
    1   AR   Ar  138   5.332   1.428   6.036
    1   AR   Ar  139   5.620   2.581   5.657
    1   AR   Ar  140   4.071   6.755   4.931
    1   AR   Ar  141   3.864   4.953   4.691
    1   AR   Ar  142   4.515   7.024   6.190
    1   AR   Ar  143   6.401   6.431   6.863
    1   AR   Ar  144   6.425   1.724   5.040
    1   AR   Ar  145   4.391   4.990  -0.813
    1   AR   Ar  146   3.393   2.476   2.678
    1   AR   Ar  147   4.334   3.466  -1.448
    1   AR   Ar  148   3.029   6.467  -1.218
    1   AR   Ar  149   1.826   1.496  -0.663
    1   AR   Ar  150   2.268   2.491   2.781
    1   AR   Ar  151   3.145   2.524   3.759
    1   AR   Ar  152   1.560   2.787  -1.462
    1   AR   Ar  153   5.489   0.652   4.347
    1   AR   Ar  154   4.297   2.502   3.933
    1   AR   Ar  155   6.430   3.663   5.716
    1   AR   Ar  156   2.979   4.748   3.823
    1   AR   Ar  157   1.668   4.958   6.185
    1   AR   Ar  158   0.179   1.747   6.113
    1   AR   Ar  159   3.306   0.274   5.978
    1   AR   Ar  160   1.526   1.950   4.502
    1   AR   Ar  161   4.894   4.895   3.135
    1   AR   Ar  162   4.085   6.227  -0.746
    1   AR   Ar  163   5.730   4.790   0.978
    1   AR   Ar  164   2.218   5.612   2.152
    1   AR   Ar  165   3.571   2.861   0.839
    1   AR   Ar  166   2.578   3.551   4.210
    1   AR   Ar  167   5.701   7.028   3.461
    1   AR   Ar  168   5.647   3.768  -1.916
    1   AR   Ar  169   3.292   3.714   3.264
    1   AR   Ar  170   1.734   3.132   5.889
    1   AR   Ar  171   5.936   4.015   4.289
    1   AR   Ar  172   3.975   3.593   5.553
    1   AR   Ar  173   2.368   2.036   5.611
    1   AR   Ar  174   2.019   6.039   5.613
    1   AR   Ar  175   3.364   1.448   5.824
    1   AR   Ar  176   3.450   3.045   4.797
    1   AR   Ar  177   1.043   5.076  -0.882
    1   AR   Ar  178   3.012   5.824   0.507
    1   AR   Ar  179   3.369   7.026  -0.288
    1   AR   Ar  180   5.348   1.566  -5.468
    1   AR   Ar  181   7.076   5.715   1.935
    1   AR   Ar  182   1.078   5.804   3.026
    1   AR   Ar  183   4.681   5.259   2.155
    1   AR   Ar  184   4.288   6.831   0.212
    1   AR   Ar  185   2.545   4.783   4.805
    1   AR   Ar  186   2.363   5.207   3.109
    1   AR   Ar  187   3.919   6.740   3.471
    1   AR   Ar  188   2.499   0.087   2.380
    1   AR   Ar  189   4.951   3.403   6.061
    1   AR   Ar  190   3.058   5.821   3.644
    1   AR   Ar  191   2.484   6.119   7.532
    1   AR   Ar  192   4.486   4.894   6.471
    1   AR   Ar  193   2.683   6.318   1.582
    1   AR   Ar  194   5.205   3.950  -0.887
    1   AR   Ar  195   5.943   0.907   0.273
    1   AR   Ar  196   3.785   0.819  -1.283
    1   AR   Ar  197   4.302   1.468   0.874
    1   AR   Ar  198   5.551   0.204   2.253
    1   AR   Ar  199   2.177   0.218   3.277
    1   AR   Ar  200   4.810   2.961   0.753
    1   AR   Ar  201   6.039   5.802   3.096
    1   AR   Ar  202   5.544   1.718   4.631
    1   AR   Ar  203   0.043   6.523   3.313
    1   AR   Ar  204   5.513   5.911   6.163
    1   AR   Ar  205   6.306   1.444   1.599
    1   AR   Ar  206   6.144   0.716   5.609
    1   AR   Ar  207   0.438   2.004   5.096
    1   AR   Ar  208   0.491   6.159   4.330
    1   AR   Ar  209   6.899   2.393  -2.087
    1   AR   Ar  210   2.501   6.913   0.733
    1   AR   Ar  211   7.100   3.565   0.915
    1   AR   Ar  212   6.021   3.922  -0.078
    1   AR   Ar  213   3.208   0.900   1.351
    1   AR   Ar  214   4.561   4.145   2.227
    1   AR   Ar  215   6.500   2.954   2.433
    1   AR   Ar  216   1.274   2.210   0.622
    1   AR   Ar  217   5.156   1.788   3.577
    1   AR   Ar  218   5.072   3.317   4.453
    1   AR   Ar  219   4.337   3.445   3.495
    1   AR   Ar  220   4.195   3.734   1.295
    1   AR   Ar  221   6.466   5.909   4.125
    1   AR   Ar  222   5.565   6.909   5.785
    1   AR   Ar  223   6.171   2.011   6.618
    1   AR   Ar  224   4.664   2.528   5.147
    1   AR   Ar  225   6.196   3.283   3.384
    1   AR   Ar  226   1.493   3.412   3.177
    1   AR   Ar  227   0.322   3.654   2.159
    1   AR   Ar  228   6.358   0.223   1.361
    1   AR   Ar  229   6.160   5.273  -1.104
    1   AR   Ar  230   3.539   4.014   4.251
    1   AR   Ar  231   4.265   1.717   1.966
    1   AR   Ar  232   5.587   2.974   1.410
    1   AR   Ar  233   6.869   2.533   3.978
    1   AR   Ar  234   5.748   2.613   4.007
    1   AR   Ar  235   6.485   0.478   3.889
    1   AR   Ar  236   4.997   5.083   5.631
    1   AR   Ar  237   5.161   2.275   6.569
    1   AR   Ar  238   5.470   5.013   6.891
    1   AR   Ar  239   0.205   4.733  10.397
    1   AR   Ar  240   6.959   2.720   7.057
    1   AR   Ar  241   1.982   5.771  -0.470
    1   AR   Ar  242   5.343   6.228   1.290
    1   AR   Ar  243   4.156   5.684   3.046
    1   AR   Ar  244   0.532   5.298   0.550
    1   AR   Ar  245   3.452   0.274   2.584
    1   AR   Ar  246   5.938   6.573  -0.665
    1   AR   Ar  247   6.313   3.998   1.394
    1   AR   Ar  248   4.995   6.146  -0.146
    1   AR   Ar  249   4.600   6.754   2.121
    1   AR   Ar  250   4.726   5.625   4.201
    1   AR   Ar  251   4.852   4.431   4.679
    1   AR   Ar  252   3.452   4.963   2.448
    1   AR   Ar  253   6.153   3.087   6.392
    1   AR   Ar  254   4.317   2.320   9.896
    1   AR   Ar  255   3.319   5.952  10.130
    1   AR   Ar  256   5.953   4.793   3.443
    7.12000  7.12000 12.00000
Argon-slab step 4285
  256
    1   AR   Ar    1   4.448   3.344  -3.183
    1   AR   Ar    2   6.089   6.827   0.342
    1   AR   Ar    3   3.904   2.361  -1.819
    1   AR   Ar    4   1.926   1.538   0.999
    1   AR   Ar    5   6.418   5.440   0.530
    1   AR   Ar    6   1.458   2.277   1.927
    1   AR   Ar    7   5.332   3.897   3.421
    1   AR   Ar    8   5.045   2.047  -0.065
    1   AR   Ar    9   0.552   0.221   3.953
    1   AR   Ar   10   6.894   6.829   4.455
    1   AR   Ar   11   1.715   6.556   4.523
    1   AR   Ar   12   0.091   1.592   4.053
    1   AR   Ar   13   7.119   0.844   4.981
    1   AR   Ar   14   4.341   1.443   6.451
    1   AR   Ar   15   3.166   6.656   8.636
    1   AR   Ar   16   0.727   0.029   5.248
    1   AR   Ar   17   5.605   1.865   0.818
    1   AR   Ar   18   0.053   5.183  -0.403
    1   AR   Ar   19   4.179   3.716  -0.016
    1   AR   Ar   20   7.098   4.622  -2.920
    1   AR   Ar   21   2.563   2.124   1.781
    1   AR   Ar   22   5.735   1.180   2.529
    1   AR   Ar   23   0.292   6.319   1.010
    1   AR   Ar   24   5.026   2.746   2.641
    1   AR   Ar   25   0.864   2.491   3.912
    1   AR   Ar   26   5.805   6.759   4.477
    1   AR   Ar   27   1.542   0.683   2.358
    1   AR   Ar   28   1.908   2.720   3.853
    1   AR   Ar   29   5.543   1.331   7.573
    1   AR   Ar   30   1.370   0.903   3.467
    1   AR   Ar   31   3.307   0.174   7.539
    1   AR   Ar   32   0.653   2.665   6.275
    1   AR   Ar   33   0.447   4.230  -0.258
    1   AR   Ar   34   0.739   4.735   2.489
    1   AR   Ar   35   6.049   5.410   2.035
    1   AR   Ar   36   6.076   3.058  -2.575
    1   AR   Ar   37   4.279   2.728   1.847
    1   AR   Ar   38   6.759   4.201   3.720
    1   AR   Ar   39   0.097   3.336   3.155
    1   AR   Ar   40   1.712   4.526   1.777
    1   AR   Ar   41   0.197   2.065   2.969
    1   AR   Ar   42   5.980   5.035   4.705
    1   AR   Ar   43   6.988   2.759   5.572
    1   AR   Ar   44   0.789   4.055   3.467
    1   AR   Ar   45   0.597   3.534   5.244
    1   AR   Ar   46   0.508   4.442   5.919
    1   AR   Ar   47   3.180   5.484   7.120
    1   AR   Ar   48   5.953   3.272   7.336
    1   AR   Ar   49   6.381   0.140  -1.642
    1   AR   Ar   50   3.395   4.979   0.010
    1   AR   Ar   51   5.827   3.724   2.361
    1   AR   Ar   52   5.146   2.752  -1.758
    1   AR   Ar   53   5.495   6.226   2.403
    1   AR   Ar   54   0.623   7.104   2.295
    1   AR   Ar   55   6.659   4.614   2.615
    1   AR   Ar   56   0.092   0.490   2.931
    1   AR   Ar   57   4.007   4.485   3.393
    1   AR   Ar   58   0.250   3.511   4.226
    1   AR   Ar   59   2.800   5.470   5.966
    1   AR   Ar   60   0.067   5.375   3.253
    1   AR   Ar   61   7.052   3.631   6.591
    1   AR   Ar   62   6.837   4.524   4.909
    1   AR   Ar   63   1.565   1.972   6.519
    1   AR   Ar   64   0.403   5.584   5.201
    1   AR   Ar   65   3.644   6.964   1.449
    1   AR   Ar   66   0.439   1.336   1.047
    1   AR   Ar   67   4.750   0.212  -0.692
    1   AR   Ar   68   0.731   0.461  -0.899
    1   AR   Ar   69   2.333   1.029   0.204
    1   AR   Ar   70   0.695   1.365   2.448
    1   AR   Ar   71   2.780   1.025   2.408
    1   AR   Ar   72   4.314   0.637   1.418
    1   AR   Ar   73   3.247   0.643   3.475
    1   AR   Ar   74   1.193   0.961   4.506
    1   AR   Ar   75   3.303   0.680   4.860
    1   AR   Ar   76   2.054   0.363   1.503
    1   AR   Ar   77   1.725   0.229   5.382
    1   AR   Ar   78   7.014   5.946   6.271
    1   AR   Ar   79   4.055   6.158   6.811
    1   AR   Ar   80   3.935   5.668   5.642
    1   AR   Ar   81   1.371   6.282   0.337
    1   AR   Ar   82   6.830   4.576   0.516
    1   AR   Ar   83   1.087   3.054  -0.140
    1   AR   Ar   84   0.675   4.463   1.313
    1   AR   Ar   85   1.612   3.242   0.864
    1   AR   Ar   86   1.806   5.721   1.124
    1   AR   Ar   87   2.783   3.457   2.241
    1   AR   Ar   88   2.907   5.272   1.392
    1   AR   Ar   89   0.239   2.372   1.861
    1   AR   Ar   90   3.308   1.833   4.895
    1   AR   Ar   91   1.574   1.949   3.223
    1   AR   Ar   92   1.526   3.311   2.017
    1   AR   Ar   93   1.175   1.371   5.525
    1   AR   Ar   94   1.298   7.061   9.604
    1   AR   Ar   95   4.274   1.542   5.171
    1   AR   Ar   96   2.772   6.828   4.408
    1   AR   Ar   97   4.163   1.771  -0.743
    1   AR   Ar   98   1.890   4.250   4.077
    1   AR   Ar   99   6.846   1.639   0.340
    1   AR   Ar  100   0.586   3.071  -1.756
    1   AR   Ar  101   3.744   5.911   2.079
    1   AR   Ar  102   3.649   1.417   2.887
    1   AR   Ar  103   2.313   4.366   0.631
    1   AR   Ar  104   3.094   5.211  -0.984
    1   AR   Ar  105   2.465   1.701   3.683
    1   AR   Ar  106   3.880   2.491   5.740
    1   AR   Ar  107   1.339   4.290   4.953
    1   AR   Ar  108   2.238   1.137   4.906
    1   AR   Ar  109   1.401   3.245   4.776
    1   AR   Ar  110   2.507   2.509   4.644
    1   AR   Ar  111   5.040   6.151   7.408
    1   AR   Ar  112   0.981   6.638   6.197
    1   AR   Ar  113   3.669   4.113  -0.954
    1   AR   Ar  114   2.209   6.986  -1.762
    1   AR   Ar  115   1.610   5.053   0.203
    1   AR   Ar  116   4.312   0.891  -0.075
    1   AR   Ar  117   0.558   5.022   4.270
    1   AR   Ar  118   1.418   4.873   3.472
    1   AR   Ar  119   2.118   4.159   2.724
    1   AR   Ar  120   1.604   6.692   1.926
    1   AR   Ar  121   5.590   4.080   5.329
    1   AR   Ar  122   3.164   5.764   4.796
    1   AR   Ar  123   2.638   3.302   5.350
    1   AR   Ar  124   1.091   5.678   1.859
    1   AR   Ar  125   6.553   3.286   4.803
    1   AR   Ar  126   6.674   6.785   5.574
    1   AR   Ar  127   4.193   3.952   6.830
    1   AR   Ar  128   2.918   2.631   6.382
    1   AR   Ar  129   1.952   5.386   4.216
    1   AR   Ar  130   5.165   1.578  -4.053
    1   AR   Ar  131   4.782   4.349  -2.520
    1   AR   Ar  132   0.648   1.877  -0.206
    1   AR   Ar  133   4.433   0.270   4.152
    1   AR   Ar  134   4.153   1.434   4.143
    1   AR   Ar  135   6.286   1.618   3.666
    1   AR   Ar  136   6.662   6.928   2.430
    1   AR   Ar  137   2.304   4.143   5.839
    1   AR   Ar  138   5.359   1.427   6.018
    1   AR   Ar  139   5.597   2.569   5.680
    1   AR   Ar  140   4.080   6.740   4.925
    1   AR   Ar  141   3.866   4.975   4.699
    1   AR   Ar  142   4.540   7.042   6.214
    1   AR   Ar  143   6.389   6.429   6.863
    1   AR   Ar  144   6.422   1.727   5.046
    1   AR   Ar  145   4.394   4.973  -0.801
    1   AR   Ar  146   3.403   2.482   2.700
    1   AR   Ar  147   4.325   3.462  -1.473
    1   AR   Ar  148   3.042   6.467  -1.233
    1   AR   Ar  149   1.816   1.497  -0.659
    1   AR   Ar  150   2.280   2.474   2.784
    1   AR   Ar  151   3.171   2.535   3.754
    1   AR   Ar  152   1.540   2.796  -1.483
    1   AR   Ar  153   5.502   0.615   4.342
    1   AR   Ar  154   4.285   2.485   3.932
    1   AR   Ar  155   6.439   3.645   5.716
    1   AR   Ar  156   2.982   4.753   3.815
    1   AR   Ar  157   1.671   5.001   6.184
    1   AR   Ar  158   0.188   1.719   6.105
    1   AR   Ar  159   3.284   0.252   5.948
    1   AR   Ar  160   1.498   1.969   4.497
    1   AR   Ar  161   4.895   4.912   3.136
    1   AR   Ar  162   4.092   6.230  -0.726
    1   AR   Ar  163   5.736   4.792   0.966
    1   AR   Ar  164   2.205   5.590   2.164
    1   AR   Ar  165   3.569   2.892   0.829
    1   AR   Ar  166   2.595   3.528   4.227
    1   AR   Ar  167   5.671   7.001   3.446
    1   AR   Ar  168   5.654   3.793  -1.929
    1   AR   Ar  169   3.296   3.711   3.306
    1   AR   Ar  170   1.739   3.137   5.910
    1   AR   Ar  171   5.941   4.069   4.290
    1   AR   Ar  172   3.916   3.600   5.557
    1   AR   Ar  173   2.403   2.046   5.603
    1   AR   Ar  174   2.033   6.040   5.616
    1   AR   Ar  175   3.345   1.423   5.859
    1   AR   Ar  176   3.444   3.038   4.782
    1   AR   Ar  177   1.030   5.072  -0.899
    1   AR   Ar  178   2.994   5.824   0.488
    1   AR   Ar  179   3.353   7.039  -0.268
    1   AR   Ar  180   5.359   1.555  -5.494
    1   AR   Ar  181   7.037   5.710   1.979
    1   AR   Ar  182   1.065   5.765   2.993
    1   AR   Ar  183   4.692   5.239   2.197
    1   AR   Ar  184   4.251   6.858   0.227
    1   AR   Ar  185   2.538   4.798   4.753
    1   AR   Ar  186   2.342   5.231   3.109
    1   AR   Ar  187   3.889   6.726   3.498
    1   AR   Ar  188   2.485   0.065   2.381
    1   AR   Ar  189   4.983   3.411   6.089
    1   AR   Ar  190   3.031   5.864   3.634
    1   AR   Ar  191   2.481   6.130   7.577
    1   AR   Ar  192   4.487   4.890   6.458
    1   AR   Ar  193   2.672   6.345   1.566
    1   AR   Ar  194   5.230   3.978  -0.906
    1   AR   Ar  195   5.967   0.882   0.258
    1   AR   Ar  196   3.795   0.785  -1.244
    1   AR   Ar  197   4.282   1.476   0.886
    1   AR   Ar  198   5.546   0.236   2.221
    1   AR   Ar  199   2.177   0.237   3.301
    1   AR   Ar  200   4.819   2.948   0.743
    1   AR   Ar  201   6.072   5.807   3.092
    1   AR   Ar  202   5.548   1.753   4.598
    1   AR   Ar  203   0.050   6.521   3.298
    1   AR   Ar  204   5.506   5.945   6.204
    1   AR   Ar  205   6.325   1.446   1.614
    1   AR   Ar  206   6.141   0.715   5.605
    1   AR   Ar  207   0.423   1.978   5.080
    1   AR   Ar  208   0.486   6.146   4.318
    1   AR   Ar  209   6.891   2.395  -2.078
    1   AR   Ar  210   2.507   6.906   0.744
    1   AR   Ar  211   0.009   3.542   0.890
    1   AR   Ar  212   6.013   3.904  -0.078
    1   AR   Ar  213   3.218   0.941   1.370
    1   AR   Ar  214   4.577   4.149   2.193
    1   AR   Ar  215   6.498   2.943   2.484
    1   AR   Ar  216   1.289   2.200   0.611
    1   AR   Ar  217   5.160   1.795   3.558
    1   AR   Ar  218   5.068   3.299   4.455
    1   AR   Ar  219   4.357   3.474   3.474
    1   AR   Ar  220   4.208   3.763   1.293
    1   AR   Ar  221   6.460   5.940   4.094
    1   AR   Ar  222   5.541   6.908   5.759
    1   AR   Ar  223   6.149   2.003   6.630
    1   AR   Ar  224   4.666   2.557   5.102
    1   AR   Ar  225   6.200   3.265   3.396
    1   AR   Ar  226   1.495   3.415   3.167
    1   AR   Ar  227   0.351   3.652   2.136
    1   AR   Ar  228   6.361   0.232   1.362
    1   AR   Ar  229   6.190   5.261  -1.106
    1   AR   Ar  230   3.562   4.021   4.266
    1   AR   Ar  231   4.232   1.706   1.991
    1   AR   Ar  232   5.608   3.007   1.395
    1   AR   Ar  233   6.894   2.526   3.979
    1   AR   Ar  234   5.814   2.606   4.011
    1   AR   Ar  235   6.472   0.453   3.866
    1   AR   Ar  236   4.995   5.086   5.655
    1   AR   Ar  237   5.144   2.272   6.553
    1   AR   Ar  238   5.481   5.030   6.889
    1   AR   Ar  239   0.214   4.762  10.390
    1   AR   Ar  240   6.951   2.736   7.057
    1   AR   Ar  241   2.004   5.768  -0.449
    1   AR   Ar  242   5.331   6.254   1.314
    1   AR   Ar  243   4.165   5.711   3.034
    1   AR   Ar  244   0.543   5.264   0.563
    1   AR   Ar  245   3.466   0.258   2.582
    1   AR   Ar  246   5.958   6.550  -0.664
    1   AR   Ar  247   6.306   3.968   1.397
    1   AR   Ar  248   4.966   6.131  -0.122
    1   AR   Ar  249   4.585   6.761   2.065
    1   AR   Ar  250   4.718   5.576   4.208
    1   AR   Ar  251   4.845   4.419   4.717
    1   AR   Ar  252   3.453   4.959   2.458
    1   AR   Ar  253   6.146   3.068   6.390
    1   AR   Ar  254   4.346   2.323   9.889
    1   AR   Ar  255   3.317   5.962  10.157
    1   AR   Ar  256   5.957   4.811   3.424
    7.12000  7.12000 12.00000
Argon-slab step 4290
  256
    1   AR   Ar    1   4.461   3.342  -3.138
    1   AR   Ar    2   6.031   6.831   0.361
    1   AR   Ar    3   3.903   2.395  -1.798
    1   AR   Ar    4   1.921   1.526   1.013
    1   AR   Ar    5   6.395   5.464   0.522
    1   AR   Ar    6   1.507   2.240   1.900
    1   AR   Ar    7   5.352   3.891   3.414
    1   AR   Ar    8   5.070   2.007  -0.076
    1   AR   Ar    9   0.552   0.240   3.981
    1   AR   Ar   10   6.924   6.832   4.464
    1   AR   Ar   11   1.707   6.584   4.538
    1   AR   Ar   12   0.089   1.603   4.109
    1   AR   Ar   13   7.115   0.836   4.981
    1   AR   Ar   14   4.315   1.486   6.425
    1   AR   Ar   15   3.164   6.642   8.643
    1   AR   Ar   16   0.685   0.026   5.254
    1   AR   Ar   17   5.626   1.878   0.839
    1   AR   Ar   18   0.071   5.187  -0.435
    1   AR   Ar   19   4.169   3.753  -0.035
    1   AR   Ar   20   7.073   4.602  -2.922
    1   AR   Ar   21   2.578   2.126   1.795
    1   AR   Ar   22   5.693   1.165   2.536
    1   AR   Ar   23   0.296   6.304   0.985
    1   AR   Ar   24   5.028   2.728   2.650
    1   AR   Ar   25   0.880   2.498   3.923
    1   AR   Ar   26   5.756   6.756   4.533
    1   AR   Ar   27   1.526   0.645   2.315
    1   AR   Ar   28   1.890   2.732   3.869
    1   AR   Ar   29   5.521   1.351   7.534
    1   AR   Ar   30   1.346   0.890   3.477
    1   AR   Ar   31   3.329   0.189   7.520
    1   AR   Ar   32   0.659   2.656   6.267
    1   AR   Ar   33   0.417   4.268  -0.231
    1   AR   Ar   34   0.732   4.743   2.479
    1   AR   Ar   35   6.048   5.369   2.065
    1   AR   Ar   36   6.073   3.078  -2.563
    1   AR   Ar   37   4.271   2.735   1.876
    1   AR   Ar   38   6.772   4.219   3.713
    1   AR   Ar   39   0.101   3.344   3.177
    1   AR   Ar   40   1.709   4.559   1.793
    1   AR   Ar   41   0.206   2.087   2.985
    1   AR   Ar   42   5.995   5.020   4.700
    1   AR   Ar   43   6.957   2.734   5.563
    1   AR   Ar   44   0.763   4.050   3.479
    1   AR   Ar   45   0.585   3.541   5.236
    1   AR   Ar   46   0.525   4.458   5.971
    1   AR   Ar   47   3.176   5.477   7.111
    1   AR   Ar   48   5.967   3.269   7.360
    1   AR   Ar   49   6.426   0.151  -1.663
    1   AR   Ar   50   3.415   4.975   0.018
    1   AR   Ar   51   5.840   3.716   2.369
    1   AR   Ar   52   5.114   2.759  -1.762
    1   AR   Ar   53   5.503   6.223   2.437
    1   AR   Ar   54   0.607   0.008   2.293
    1   AR   Ar   55   6.620   4.592   2.633
    1   AR   Ar   56   0.089   0.508   2.977
    1   AR   Ar   57   4.017   4.492   3.385
    1   AR   Ar   58   0.248   3.497   4.227
    1   AR   Ar   59   2.840   5.477   5.998
    1   AR   Ar   60   0.041   5.377   3.279
    1   AR   Ar   61   7.037   3.645   6.583
    1   AR   Ar   62   6.879   4.543   4.933
    1   AR   Ar   63   1.590   1.980   6.495
    1   AR   Ar   64   0.402   5.574   5.205
    1   AR   Ar   65   3.635   7.000   1.450
    1   AR   Ar   66   0.433   1.305   1.025
    1   AR   Ar   67   4.768   0.227  -0.692
    1   AR   Ar   68   0.756   0.486  -0.905
    1   AR   Ar   69   2.349   1.024   0.223
    1   AR   Ar   70   0.707   1.369   2.476
    1   AR   Ar   71   2.790   1.029   2.410
    1   AR   Ar   72   4.320   0.641   1.435
    1   AR   Ar   73   3.233   0.625   3.507
    1   AR   Ar   74   1.190   0.983   4.525
    1   AR   Ar   75   3.311   0.714   4.854
    1   AR   Ar   76   2.064   0.380   1.459
    1   AR   Ar   77   1.709   0.237   5.365
    1   AR   Ar   78   7.025   5.967   6.267
    1   AR   Ar   79   4.051   6.199   6.803
    1   AR   Ar   80   3.941   5.655   5.666
    1   AR   Ar   81   1.350   6.314   0.382
    1   AR   Ar   82   6.823   4.578   0.525
    1   AR   Ar   83   1.099   3.072  -0.121
    1   AR   Ar   84   0.674   4.439   1.290
    1   AR   Ar   85   1.621   3.252   0.834
    1   AR   Ar   86   1.827   5.721   1.109
    1   AR   Ar   87   2.796   3.472   2.247
    1   AR   Ar   88   2.897   5.277   1.416
    1   AR   Ar   89   0.235   2.375   1.844
    1   AR   Ar   90   3.299   1.868   4.882
    1   AR   Ar   91   1.580   1.963   3.213
    1   AR   Ar   92   1.545   3.326   2.026
    1   AR   Ar   93   1.190   1.396   5.541
    1   AR   Ar   94   1.280   7.064   9.576
    1   AR   Ar   95   4.273   1.571   5.205
    1   AR   Ar   96   2.736   6.810   4.424
    1   AR   Ar   97   4.134   1.770  -0.727
    1   AR   Ar   98   1.899   4.245   4.080
    1   AR   Ar   99   6.826   1.595   0.337
    1   AR   Ar  100   0.565   3.076  -1.775
    1   AR   Ar  101   3.756   5.918   2.066
    1   AR   Ar  102   3.644   1.386   2.943
    1   AR   Ar  103   2.351   4.361   0.646
    1   AR   Ar  104   3.094   5.207  -1.000
    1   AR   Ar  105   2.483   1.678   3.689
    1   AR   Ar  106   3.888   2.448   5.733
    1   AR   Ar  107   1.356   4.304   4.936
    1   AR   Ar  108   2.217   1.116   4.916
    1   AR   Ar  109   1.419   3.251   4.783
    1   AR   Ar  110   2.510   2.502   4.652
    1   AR   Ar  111   5.050   6.134   7.416
    1   AR   Ar  112   0.973   6.617   6.155
    1   AR   Ar  113   3.650   4.094  -0.949
    1   AR   Ar  114   2.226   6.978  -1.768
    1   AR   Ar  115   1.619   5.095   0.176
    1   AR   Ar  116   4.312   0.897  -0.051
    1   AR   Ar  117   0.541   4.969   4.269
    1   AR   Ar  118   1.425   4.882   3.483
    1   AR   Ar  119   2.152   4.144   2.731
    1   AR   Ar  120   1.601   6.737   1.933
    1   AR   Ar  121   5.620   4.084   5.324
    1   AR   Ar  122   3.176   5.742   4.826
    1   AR   Ar  123   2.638   3.306   5.329
    1   AR   Ar  124   1.099   5.704   1.855
    1   AR   Ar  125   6.556   3.309   4.829
    1   AR   Ar  126   6.658   6.780   5.565
    1   AR   Ar  127   4.193   3.945   6.822
    1   AR   Ar  128   2.894   2.616   6.400
    1   AR   Ar  129   1.982   5.359   4.234
    1   AR   Ar  130   5.147   1.566  -4.039
    1   AR   Ar  131   4.784   4.388  -2.532
    1   AR   Ar  132   0.636   1.872  -0.215
    1   AR   Ar  133   4.431   0.285   4.179
    1   AR   Ar  134   4.138   1.401   4.124
    1   AR   Ar  135   6.294   1.647   3.657
    1   AR   Ar  136   6.689   6.900   2.454
    1   AR   Ar  137   2.322   4.099   5.847
    1   AR   Ar  138   5.387   1.421   5.995
    1   AR   Ar  139   5.576   2.556   5.695
    1   AR   Ar  140   4.087   6.724   4.921
    1   AR   Ar  141   3.871   4.996   4.708
    1   AR   Ar  142   4.564   7.059   6.239
    1   AR   Ar  143   6.387   6.464   6.880
    1   AR   Ar  144   6.432   1.731   5.058
    1   AR   Ar  145   4.408   4.955  -0.784
    1   AR   Ar  146   3.413   2.490   2.720
    1   AR   Ar  147   4.318   3.457  -1.500
    1   AR   Ar  148   3.056   6.466  -1.246
    1   AR   Ar  149   1.805   1.500  -0.656
    1   AR   Ar  150   2.300   2.465   2.784
    1   AR   Ar  151   3.195   2.549   3.751
    1   AR   Ar  152   1.525   2.803  -1.502
    1   AR   Ar  153   5.513   0.583   4.336
    1   AR   Ar  154   4.273   2.468   3.932
    1   AR   Ar  155   6.457   3.651   5.705
    1   AR   Ar  156   2.986   4.760   3.803
    1   AR   Ar  157   1.674   5.045   6.183
    1   AR   Ar  158   0.195   1.690   6.097
    1   AR   Ar  159   3.262   0.230   5.917
    1   AR   Ar  160   1.475   1.986   4.498
    1   AR   Ar  161   4.905   4.928   3.143
    1   AR   Ar  162   4.098   6.226  -0.705
    1   AR   Ar  163   5.739   4.792   0.955
    1   AR   Ar  164   2.188   5.568   2.173
    1   AR   Ar  165   3.569   2.923   0.820
    1   AR   Ar  166   2.610   3.509   4.242
    1   AR   Ar  167   5.640   6.974   3.428
    1   AR   Ar  168   5.659   3.820  -1.940
    1   AR   Ar  169   3.294   3.703   3.344
    1   AR   Ar  170   1.743   3.141   5.932
    1   AR   Ar  171   5.940   4.118   4.294
    1   AR   Ar  172   3.859   3.608   5.562
    1   AR   Ar  173   2.437   2.055   5.595
    1   AR   Ar  174   2.041   6.045   5.615
    1   AR   Ar  175   3.326   1.398   5.896
    1   AR   Ar  176   3.459   3.014   4.752
    1   AR   Ar  177   1.009   5.079  -0.903
    1   AR   Ar  178   2.973   5.830   0.469
    1   AR   Ar  179   3.334   7.052  -0.250
    1   AR   Ar  180   5.370   1.545  -5.518
    1   AR   Ar  181   7.003   5.706   2.025
    1   AR   Ar  182   1.053   5.727   2.958
    1   AR   Ar  183   4.703   5.223   2.232
    1   AR   Ar  184   4.216   6.887   0.245
    1   AR   Ar  185   2.537   4.804   4.715
    1   AR   Ar  186   2.322   5.253   3.113
    1   AR   Ar  187   3.857   6.710   3.523
    1   AR   Ar  188   2.472   0.064   2.367
    1   AR   Ar  189   5.015   3.419   6.117
    1   AR   Ar  190   3.005   5.908   3.627
    1   AR   Ar  191   2.478   6.143   7.623
    1   AR   Ar  192   4.480   4.890   6.467
    1   AR   Ar  193   2.654   6.360   1.599
    1   AR   Ar  194   5.253   4.007  -0.924
    1   AR   Ar  195   5.964   0.885   0.256
    1   AR   Ar  196   3.806   0.750  -1.202
    1   AR   Ar  197   4.261   1.493   0.892
    1   AR   Ar  198   5.540   0.258   2.186
    1   AR   Ar  199   2.175   0.258   3.336
    1   AR   Ar  200   4.809   2.975   0.727
    1   AR   Ar  201   6.113   5.811   3.092
    1   AR   Ar  202   5.540   1.786   4.561
    1   AR   Ar  203   0.057   6.519   3.286
    1   AR   Ar  204   5.499   5.976   6.247
    1   AR   Ar  205   6.345   1.448   1.629
    1   AR   Ar  206   6.138   0.715   5.599
    1   AR   Ar  207   0.407   1.951   5.059
    1   AR   Ar  208   0.489   6.129   4.299
    1   AR   Ar  209   6.922   2.389  -2.080
    1   AR   Ar  210   2.514   6.899   0.748
    1   AR   Ar  211   0.036   3.518   0.894
    1   AR   Ar  212   6.005   3.886  -0.076
    1   AR   Ar  213   3.229   0.976   1.357
    1   AR   Ar  214   4.594   4.153   2.164
    1   AR   Ar  215   6.499   2.926   2.526
    1   AR   Ar  216   1.298   2.197   0.598
    1   AR   Ar  217   5.163   1.802   3.540
    1   AR   Ar  218   5.064   3.285   4.455
    1   AR   Ar  219   4.376   3.502   3.453
    1   AR   Ar  220   4.219   3.789   1.286
    1   AR   Ar  221   6.454   5.967   4.062
    1   AR   Ar  222   5.519   6.908   5.731
    1   AR   Ar  223   6.131   1.994   6.641
    1   AR   Ar  224   4.671   2.586   5.052
    1   AR   Ar  225   6.205   3.258   3.407
    1   AR   Ar  226   1.501   3.411   3.153
    1   AR   Ar  227   0.380   3.651   2.112
    1   AR   Ar  228   6.363   0.241   1.363
    1   AR   Ar  229   6.204   5.243  -1.106
    1   AR   Ar  230   3.590   4.025   4.287
    1   AR   Ar  231   4.198   1.690   2.015
    1   AR   Ar  232   5.634   3.041   1.386
    1   AR   Ar  233   6.915   2.531   3.979
    1   AR   Ar  234   5.873   2.593   4.023
    1   AR   Ar  235   6.462   0.433   3.842
    1   AR   Ar  236   5.002   5.091   5.665
    1   AR   Ar  237   5.120   2.274   6.545
    1   AR   Ar  238   5.493   5.047   6.885
    1   AR   Ar  239   0.222   4.792  10.383
    1   AR   Ar  240   6.953   2.743   7.065
    1   AR   Ar  241   2.027   5.767  -0.431
    1   AR   Ar  242   5.319   6.281   1.338
    1   AR   Ar  243   4.174   5.739   3.025
    1   AR   Ar  244   0.556   5.233   0.577
    1   AR   Ar  245   3.492   0.235   2.573
    1   AR   Ar  246   5.978   6.527  -0.667
    1   AR   Ar  247   6.298   3.940   1.401
    1   AR   Ar  248   4.941   6.116  -0.099
    1   AR   Ar  249   4.568   6.769   2.009
    1   AR   Ar  250   4.709   5.525   4.214
    1   AR   Ar  251   4.834   4.408   4.749
    1   AR   Ar  252   3.482   4.967   2.469
    1   AR   Ar  253   6.132   3.032   6.398
    1   AR   Ar  254   4.375   2.325   9.882
    1   AR   Ar  255   3.286   5.940  10.156
    1   AR   Ar  256   5.958   4.828   3.407
    7.12000  7.12000 12.00000
Argon-slab step 4295
  256
    1   AR   Ar    1   4.474   3.341  -3.093
    1   AR   Ar    2   5.972   6.836   0.382
    1   AR   Ar    3   3.903   2.429  -1.777
    1   AR   Ar    4   1.920   1.511   1.035
    1   AR   Ar    5   6.372   5.503   0.512
    1   AR   Ar    6   1.553   2.201   1.874
    1   AR   Ar    7   5.372   3.888   3.406
    1   AR   Ar    8   5.093   1.966  -0.088
    1   AR   Ar    9   0.554   0.261   4.007
    1   AR   Ar   10   6.944   6.835   4.456
    1   AR   Ar   11   1.680   6.587   4.557
    1   AR   Ar   12   0.096   1.601   4.167
    1   AR   Ar   13   7.103   0.830   4.987
    1   AR   Ar   14   4.290   1.529   6.396
    1   AR   Ar   15   3.162   6.627   8.649
    1   AR   Ar   16   0.639   0.023   5.256
    1   AR   Ar   17   5.648   1.891   0.861
    1   AR   Ar   18   0.081   5.199  -0.467
    1   AR   Ar   19   4.160   3.789  -0.054
    1   AR   Ar   20   7.047   4.583  -2.925
    1   AR   Ar   21   2.596   2.125   1.808
    1   AR   Ar   22   5.653   1.161   2.549
    1   AR   Ar   23   0.300   6.288   0.960
    1   AR   Ar   24   5.038   2.714   2.664
    1   AR   Ar   25   0.882   2.513   3.926
    1   AR   Ar   26   5.725   6.733   4.571
    1   AR   Ar   27   1.510   0.610   2.277
    1   AR   Ar   28   1.876   2.748   3.882
    1   AR   Ar   29   5.500   1.371   7.493
    1   AR   Ar   30   1.318   0.880   3.484
    1   AR   Ar   31   3.351   0.203   7.501
    1   AR   Ar   32   0.668   2.648   6.260
    1   AR   Ar   33   0.393   4.298  -0.201
    1   AR   Ar   34   0.724   4.752   2.470
    1   AR   Ar   35   6.040   5.323   2.095
    1   AR   Ar   36   6.064   3.087  -2.568
    1   AR   Ar   37   4.262   2.746   1.903
    1   AR   Ar   38   6.765   4.244   3.717
    1   AR   Ar   39   0.106   3.348   3.196
    1   AR   Ar   40   1.705   4.593   1.810
    1   AR   Ar   41   0.212   2.115   3.007
    1   AR   Ar   42   6.006   5.018   4.698
    1   AR   Ar   43   6.927   2.701   5.558
    1   AR   Ar   44   0.737   4.054   3.494
    1   AR   Ar   45   0.563   3.551   5.237
    1   AR   Ar   46   0.521   4.434   6.001
    1   AR   Ar   47   3.174   5.471   7.101
    1   AR   Ar   48   5.981   3.268   7.391
    1   AR   Ar   49   6.405   0.144  -1.655
    1   AR   Ar   50   3.435   4.968   0.025
    1   AR   Ar   51   5.844   3.706   2.364
    1   AR   Ar   52   5.084   2.765  -1.766
    1   AR   Ar   53   5.503   6.227   2.465
    1   AR   Ar   54   0.597   0.027   2.284
    1   AR   Ar   55   6.584   4.569   2.648
    1   AR   Ar   56   0.084   0.536   3.033
    1   AR   Ar   57   4.023   4.502   3.378
    1   AR   Ar   58   0.251   3.483   4.228
    1   AR   Ar   59   2.883   5.482   6.031
    1   AR   Ar   60   0.013   5.378   3.307
    1   AR   Ar   61   7.025   3.663   6.574
    1   AR   Ar   62   6.886   4.547   4.941
    1   AR   Ar   63   1.614   1.990   6.468
    1   AR   Ar   64   0.399   5.564   5.212
    1   AR   Ar   65   3.620   7.032   1.451
    1   AR   Ar   66   0.430   1.274   1.006
    1   AR   Ar   67   4.788   0.238  -0.694
    1   AR   Ar   68   0.780   0.512  -0.910
    1   AR   Ar   69   2.367   1.016   0.240
    1   AR   Ar   70   0.723   1.369   2.500
    1   AR   Ar   71   2.800   1.054   2.394
    1   AR   Ar   72   4.330   0.642   1.456
    1   AR   Ar   73   3.215   0.606   3.547
    1   AR   Ar   74   1.184   1.007   4.552
    1   AR   Ar   75   3.318   0.722   4.849
    1   AR   Ar   76   2.077   0.407   1.409
    1   AR   Ar   77   1.695   0.246   5.349
    1   AR   Ar   78   7.035   5.940   6.259
    1   AR   Ar   79   4.034   6.246   6.799
    1   AR   Ar   80   3.948   5.642   5.690
    1   AR   Ar   81   1.328   6.347   0.425
    1   AR   Ar   82   6.818   4.567   0.537
    1   AR   Ar   83   1.110   3.089  -0.103
    1   AR   Ar   84   0.672   4.413   1.268
    1   AR   Ar   85   1.629   3.262   0.807
    1   AR   Ar   86   1.853   5.720   1.093
    1   AR   Ar   87   2.811   3.484   2.253
    1   AR   Ar   88   2.887   5.281   1.440
    1   AR   Ar   89   0.232   2.377   1.828
    1   AR   Ar   90   3.291   1.902   4.868
    1   AR   Ar   91   1.570   1.969   3.205
    1   AR   Ar   92   1.564   3.344   2.036
    1   AR   Ar   93   1.206   1.421   5.557
    1   AR   Ar   94   1.263   7.067   9.548
    1   AR   Ar   95   4.275   1.597   5.241
    1   AR   Ar   96   2.704   6.792   4.439
    1   AR   Ar   97   4.106   1.768  -0.710
    1   AR   Ar   98   1.912   4.234   4.079
    1   AR   Ar   99   6.803   1.553   0.333
    1   AR   Ar  100   0.541   3.083  -1.795
    1   AR   Ar  101   3.782   5.918   2.040
    1   AR   Ar  102   3.641   1.348   2.927
    1   AR   Ar  103   2.389   4.357   0.662
    1   AR   Ar  104   3.095   5.203  -1.015
    1   AR   Ar  105   2.502   1.654   3.697
    1   AR   Ar  106   3.891   2.405   5.729
    1   AR   Ar  107   1.370   4.322   4.925
    1   AR   Ar  108   2.197   1.098   4.926
    1   AR   Ar  109   1.448   3.249   4.783
    1   AR   Ar  110   2.510   2.495   4.659
    1   AR   Ar  111   5.058   6.188   7.401
    1   AR   Ar  112   0.964   6.595   6.113
    1   AR   Ar  113   3.631   4.079  -0.942
    1   AR   Ar  114   2.242   6.970  -1.774
    1   AR   Ar  115   1.626   5.111   0.165
    1   AR   Ar  116   4.309   0.904  -0.025
    1   AR   Ar  117   0.525   4.916   4.266
    1   AR   Ar  118   1.422   4.893   3.486
    1   AR   Ar  119   2.184   4.134   2.741
    1   AR   Ar  120   1.594   6.773   1.941
    1   AR   Ar  121   5.647   4.088   5.320
    1   AR   Ar  122   3.183   5.724   4.857
    1   AR   Ar  123   2.640   3.304   5.306
    1   AR   Ar  124   1.104   5.729   1.852
    1   AR   Ar  125   6.555   3.327   4.830
    1   AR   Ar  126   6.655   6.777   5.558
    1   AR   Ar  127   4.193   3.934   6.814
    1   AR   Ar  128   2.870   2.601   6.417
    1   AR   Ar  129   1.993   5.355   4.235
    1   AR   Ar  130   5.128   1.553  -4.025
    1   AR   Ar  131   4.787   4.425  -2.543
    1   AR   Ar  132   0.625   1.866  -0.225
    1   AR   Ar  133   4.429   0.303   4.205
    1   AR   Ar  134   4.122   1.366   4.105
    1   AR   Ar  135   6.295   1.675   3.645
    1   AR   Ar  136   6.708   6.868   2.471
    1   AR   Ar  137   2.336   4.063   5.858
    1   AR   Ar  138   5.416   1.415   5.969
    1   AR   Ar  139   5.557   2.540   5.696
    1   AR   Ar  140   4.091   6.705   4.919
    1   AR   Ar  141   3.877   5.013   4.716
    1   AR   Ar  142   4.586   7.075   6.263
    1   AR   Ar  143   6.394   6.505   6.900
    1   AR   Ar  144   6.447   1.736   5.073
    1   AR   Ar  145   4.420   4.937  -0.766
    1   AR   Ar  146   3.433   2.493   2.743
    1   AR   Ar  147   4.312   3.452  -1.527
    1   AR   Ar  148   3.071   6.465  -1.256
    1   AR   Ar  149   1.792   1.502  -0.651
    1   AR   Ar  150   2.330   2.465   2.779
    1   AR   Ar  151   3.218   2.564   3.751
    1   AR   Ar  152   1.514   2.809  -1.518
    1   AR   Ar  153   5.521   0.563   4.330
    1   AR   Ar  154   4.263   2.453   3.934
    1   AR   Ar  155   6.481   3.674   5.707
    1   AR   Ar  156   2.991   4.766   3.785
    1   AR   Ar  157   1.677   5.090   6.179
    1   AR   Ar  158   0.201   1.660   6.089
    1   AR   Ar  159   3.242   0.209   5.885
    1   AR   Ar  160   1.462   1.996   4.510
    1   AR   Ar  161   4.923   4.941   3.161
    1   AR   Ar  162   4.100   6.224  -0.685
    1   AR   Ar  163   5.740   4.789   0.947
    1   AR   Ar  164   2.167   5.549   2.174
    1   AR   Ar  165   3.571   2.954   0.812
    1   AR   Ar  166   2.610   3.521   4.244
    1   AR   Ar  167   5.610   6.944   3.407
    1   AR   Ar  168   5.658   3.830  -1.934
    1   AR   Ar  169   3.287   3.693   3.378
    1   AR   Ar  170   1.745   3.142   5.952
    1   AR   Ar  171   5.943   4.131   4.322
    1   AR   Ar  172   3.803   3.616   5.568
    1   AR   Ar  173   2.469   2.062   5.589
    1   AR   Ar  174   2.047   6.051   5.611
    1   AR   Ar  175   3.308   1.373   5.931
    1   AR   Ar  176   3.480   2.986   4.719
    1   AR   Ar  177   1.030   5.094  -0.904
    1   AR   Ar  178   2.949   5.839   0.450
    1   AR   Ar  179   3.319   7.065  -0.236
    1   AR   Ar  180   5.381   1.535  -5.543
    1   AR   Ar  181   6.978   5.705   2.072
    1   AR   Ar  182   1.039   5.691   2.923
    1   AR   Ar  183   4.712   5.214   2.253
    1   AR   Ar  184   4.207   6.889   0.240
    1   AR   Ar  185   2.558   4.788   4.703
    1   AR   Ar  186   2.304   5.272   3.122
    1   AR   Ar  187   3.824   6.695   3.548
    1   AR   Ar  188   2.460   0.063   2.350
    1   AR   Ar  189   5.048   3.426   6.144
    1   AR   Ar  190   2.981   5.953   3.621
    1   AR   Ar  191   2.474   6.158   7.669
    1   AR   Ar  192   4.490   4.890   6.471
    1   AR   Ar  193   2.639   6.367   1.615
    1   AR   Ar  194   5.274   4.035  -0.942
    1   AR   Ar  195   5.960   0.887   0.255
    1   AR   Ar  196   3.819   0.714  -1.159
    1   AR   Ar  197   4.278   1.504   0.871
    1   AR   Ar  198   5.533   0.268   2.146
    1   AR   Ar  199   2.174   0.279   3.374
    1   AR   Ar  200   4.796   3.002   0.710
    1   AR   Ar  201   6.163   5.813   3.095
    1   AR   Ar  202   5.523   1.815   4.527
    1   AR   Ar  203   0.067   6.515   3.279
    1   AR   Ar  204   5.491   6.006   6.292
    1   AR   Ar  205   6.365   1.449   1.643
    1   AR   Ar  206   6.194   0.729   5.597
    1   AR   Ar  207   0.393   1.927   5.038
    1   AR   Ar  208   0.499   6.106   4.276
    1   AR   Ar  209   6.951   2.382  -2.084
    1   AR   Ar  210   2.523   6.893   0.743
    1   AR   Ar  211   0.064   3.496   0.905
    1   AR   Ar  212   5.997   3.870  -0.073
    1   AR   Ar  213   3.240   1.011   1.346
    1   AR   Ar  214   4.603   4.160   2.180
    1   AR   Ar  215   6.506   2.900   2.557
    1   AR   Ar  216   1.302   2.198   0.583
    1   AR   Ar  217   5.178   1.794   3.535
    1   AR   Ar  218   5.066   3.278   4.448
    1   AR   Ar  219   4.394   3.525   3.434
    1   AR   Ar  220   4.230   3.817   1.281
    1   AR   Ar  221   6.450   5.993   4.033
    1   AR   Ar  222   5.499   6.911   5.700
    1   AR   Ar  223   6.117   1.983   6.652
    1   AR   Ar  224   4.680   2.596   5.010
    1   AR   Ar  225   6.212   3.266   3.421
    1   AR   Ar  226   1.508   3.403   3.137
    1   AR   Ar  227   0.409   3.650   2.088
    1   AR   Ar  228   6.365   0.251   1.365
    1   AR   Ar  229   6.207   5.221  -1.105
    1   AR   Ar  230   3.594   4.026   4.309
    1   AR   Ar  231   4.189   1.677   2.019
    1   AR   Ar  232   5.661   3.074   1.380
    1   AR   Ar  233   6.935   2.548   3.978
    1   AR   Ar  234   5.925   2.574   4.045
    1   AR   Ar  235   6.454   0.415   3.817
    1   AR   Ar  236   5.020   5.103   5.662
    1   AR   Ar  237   5.089   2.279   6.545
    1   AR   Ar  238   5.504   5.066   6.881
    1   AR   Ar  239   0.231   4.821  10.376
    1   AR   Ar  240   6.966   2.732   7.064
    1   AR   Ar  241   2.056   5.774  -0.419
    1   AR   Ar  242   5.309   6.307   1.361
    1   AR   Ar  243   4.182   5.767   3.020
    1   AR   Ar  244   0.570   5.205   0.591
    1   AR   Ar  245   3.525   0.209   2.560
    1   AR   Ar  246   5.997   6.503  -0.672
    1   AR   Ar  247   6.290   3.913   1.406
    1   AR   Ar  248   4.921   6.101  -0.073
    1   AR   Ar  249   4.551   6.776   1.954
    1   AR   Ar  250   4.700   5.474   4.219
    1   AR   Ar  251   4.819   4.399   4.777
    1   AR   Ar  252   3.510   4.973   2.482
    1   AR   Ar  253   6.117   2.990   6.410
    1   AR   Ar  254   4.404   2.328   9.875
    1   AR   Ar  255   3.254   5.918  10.155
    1   AR   Ar  256   5.957   4.844   3.394
    7.12000  7.12000 12.00000
Argon-slab step 4300
  256
    1   AR   Ar    1   4.487   3.341  -3.045
    1   AR   Ar    2   5.912   6.841   0.406
    1   AR   Ar    3   3.905   2.463  -1.754
    1   AR   Ar    4   1.920   1.494   1.065
    1   AR   Ar    5   6.349   5.550   0.499
    1   AR   Ar    6   1.596   2.162   1.850
    1   AR   Ar    7   5.392   3.887   3.397
    1   AR   Ar    8   5.115   1.924  -0.098
    1   AR   Ar    9   0.559   0.284   4.032
    1   AR   Ar   10   6.954   6.839   4.440
    1   AR   Ar   11   1.648   6.588   4.577
    1   AR   Ar   12   0.105   1.585   4.212
    1   AR   Ar   13   7.091   0.825   4.990
    1   AR   Ar   14   4.266   1.573   6.366
    1   AR   Ar   15   3.160   6.613   8.654
    1   AR   Ar   16   0.591   0.019   5.254
    1   AR   Ar   17   5.671   1.903   0.885
    1   AR   Ar   18   0.084   5.222  -0.498
    1   AR   Ar   19   4.152   3.825  -0.070
    1   AR   Ar   20   7.021   4.563  -2.927
    1   AR   Ar   21   2.618   2.123   1.819
    1   AR   Ar   22   5.615   1.169   2.567
    1   AR   Ar   23   0.305   6.271   0.936
    1   AR   Ar   24   5.064   2.706   2.671
    1   AR   Ar   25   0.878   2.528   3.916
    1   AR   Ar   26   5.707   6.695   4.597
    1   AR   Ar   27   1.493   0.584   2.245
    1   AR   Ar   28   1.870   2.767   3.892
    1   AR   Ar   29   5.478   1.392   7.451
    1   AR   Ar   30   1.288   0.872   3.488
    1   AR   Ar   31   3.373   0.216   7.482
    1   AR   Ar   32   0.676   2.642   6.251
    1   AR   Ar   33   0.375   4.318  -0.170
    1   AR   Ar   34   0.716   4.759   2.460
    1   AR   Ar   35   6.023   5.276   2.124
    1   AR   Ar   36   6.055   3.093  -2.573
    1   AR   Ar   37   4.252   2.761   1.928
    1   AR   Ar   38   6.747   4.273   3.730
    1   AR   Ar   39   0.111   3.344   3.209
    1   AR   Ar   40   1.700   4.627   1.826
    1   AR   Ar   41   0.201   2.124   3.008
    1   AR   Ar   42   6.012   5.034   4.701
    1   AR   Ar   43   6.898   2.665   5.558
    1   AR   Ar   44   0.731   4.078   3.512
    1   AR   Ar   45   0.536   3.563   5.242
    1   AR   Ar   46   0.521   4.423   6.009
    1   AR   Ar   47   3.173   5.465   7.090
    1   AR   Ar   48   5.994   3.267   7.426
    1   AR   Ar   49   6.384   0.137  -1.646
    1   AR   Ar   50   3.457   4.959   0.031
    1   AR   Ar   51   5.844   3.699   2.362
    1   AR   Ar   52   5.071   2.776  -1.753
    1   AR   Ar   53   5.495   6.236   2.488
    1   AR   Ar   54   0.591   0.043   2.272
    1   AR   Ar   55   6.555   4.542   2.659
    1   AR   Ar   56   0.078   0.568   3.092
    1   AR   Ar   57   4.023   4.514   3.372
    1   AR   Ar   58   0.259   3.469   4.230
    1   AR   Ar   59   2.927   5.486   6.062
    1   AR   Ar   60   7.108   5.376   3.335
    1   AR   Ar   61   7.016   3.683   6.567
    1   AR   Ar   62   6.871   4.539   4.939
    1   AR   Ar   63   1.638   2.002   6.438
    1   AR   Ar   64   0.395   5.552   5.221
    1   AR   Ar   65   3.598   7.059   1.451
    1   AR   Ar   66   0.431   1.244   0.990
    1   AR   Ar   67   4.807   0.245  -0.696
    1   AR   Ar   68   0.805   0.539  -0.915
    1   AR   Ar   69   2.391   1.011   0.242
    1   AR   Ar   70   0.743   1.365   2.523
    1   AR   Ar   71   2.826   1.057   2.385
    1   AR   Ar   72   4.345   0.645   1.480
    1   AR   Ar   73   3.197   0.586   3.590
    1   AR   Ar   74   1.174   1.024   4.579
    1   AR   Ar   75   3.326   0.713   4.845
    1   AR   Ar   76   2.092   0.441   1.357
    1   AR   Ar   77   1.681   0.255   5.332
    1   AR   Ar   78   7.047   5.911   6.249
    1   AR   Ar   79   4.017   6.292   6.794
    1   AR   Ar   80   3.956   5.629   5.715
    1   AR   Ar   81   1.305   6.380   0.468
    1   AR   Ar   82   6.812   4.551   0.552
    1   AR   Ar   83   1.119   3.105  -0.088
    1   AR   Ar   84   0.670   4.385   1.249
    1   AR   Ar   85   1.638   3.273   0.783
    1   AR   Ar   86   1.883   5.716   1.078
    1   AR   Ar   87   2.828   3.490   2.257
    1   AR   Ar   88   2.878   5.284   1.462
    1   AR   Ar   89   0.230   2.380   1.813
    1   AR   Ar   90   3.291   1.930   4.854
    1   AR   Ar   91   1.552   1.969   3.200
    1   AR   Ar   92   1.584   3.362   2.045
    1   AR   Ar   93   1.215   1.441   5.572
    1   AR   Ar   94   1.246   7.070   9.520
    1   AR   Ar   95   4.280   1.616   5.274
    1   AR   Ar   96   2.676   6.775   4.453
    1   AR   Ar   97   4.079   1.766  -0.694
    1   AR   Ar   98   1.925   4.221   4.072
    1   AR   Ar   99   6.778   1.513   0.327
    1   AR   Ar  100   0.517   3.094  -1.814
    1   AR   Ar  101   3.806   5.919   2.011
    1   AR   Ar  102   3.643   1.311   2.894
    1   AR   Ar  103   2.427   4.355   0.679
    1   AR   Ar  104   3.096   5.201  -1.029
    1   AR   Ar  105   2.523   1.631   3.706
    1   AR   Ar  106   3.889   2.368   5.728
    1   AR   Ar  107   1.378   4.335   4.915
    1   AR   Ar  108   2.180   1.084   4.935
    1   AR   Ar  109   1.482   3.244   4.781
    1   AR   Ar  110   2.504   2.490   4.659
    1   AR   Ar  111   5.066   6.241   7.384
    1   AR   Ar  112   0.956   6.571   6.071
    1   AR   Ar  113   3.643   4.091  -0.948
    1   AR   Ar  114   2.258   6.963  -1.780
    1   AR   Ar  115   1.632   5.089   0.176
    1   AR   Ar  116   4.305   0.911   0.002
    1   AR   Ar  117   0.511   4.862   4.261
    1   AR   Ar  118   1.411   4.903   3.486
    1   AR   Ar  119   2.213   4.130   2.755
    1   AR   Ar  120   1.583   6.795   1.947
    1   AR   Ar  121   5.671   4.094   5.319
    1   AR   Ar  122   3.182   5.713   4.888
    1   AR   Ar  123   2.645   3.296   5.281
    1   AR   Ar  124   1.106   5.754   1.849
    1   AR   Ar  125   6.548   3.338   4.807
    1   AR   Ar  126   6.700   6.786   5.558
    1   AR   Ar  127   4.192   3.920   6.806
    1   AR   Ar  128   2.847   2.588   6.433
    1   AR   Ar  129   1.987   5.373   4.221
    1   AR   Ar  130   5.111   1.541  -4.012
    1   AR   Ar  131   4.790   4.461  -2.553
    1   AR   Ar  132   0.639   1.871  -0.187
    1   AR   Ar  133   4.428   0.321   4.229
    1   AR   Ar  134   4.104   1.332   4.085
    1   AR   Ar  135   6.296   1.699   3.632
    1   AR   Ar  136   6.718   6.838   2.482
    1   AR   Ar  137   2.347   4.038   5.875
    1   AR   Ar  138   5.445   1.408   5.942
    1   AR   Ar  139   5.540   2.522   5.684
    1   AR   Ar  140   4.094   6.685   4.918
    1   AR   Ar  141   3.887   5.022   4.723
    1   AR   Ar  142   4.607   7.091   6.287
    1   AR   Ar  143   6.378   6.548   6.921
    1   AR   Ar  144   6.462   1.741   5.089
    1   AR   Ar  145   4.431   4.918  -0.748
    1   AR   Ar  146   3.457   2.494   2.762
    1   AR   Ar  147   4.306   3.449  -1.554
    1   AR   Ar  148   3.086   6.451  -1.223
    1   AR   Ar  149   1.777   1.504  -0.643
    1   AR   Ar  150   2.365   2.472   2.774
    1   AR   Ar  151   3.234   2.579   3.756
    1   AR   Ar  152   1.507   2.813  -1.533
    1   AR   Ar  153   5.538   0.560   4.318
    1   AR   Ar  154   4.256   2.439   3.937
    1   AR   Ar  155   6.508   3.706   5.725
    1   AR   Ar  156   2.998   4.772   3.761
    1   AR   Ar  157   1.681   5.134   6.174
    1   AR   Ar  158   0.204   1.631   6.079
    1   AR   Ar  159   3.222   0.188   5.852
    1   AR   Ar  160   1.459   2.002   4.533
    1   AR   Ar  161   4.947   4.952   3.192
    1   AR   Ar  162   4.097   6.222  -0.668
    1   AR   Ar  163   5.739   4.784   0.942
    1   AR   Ar  164   2.143   5.533   2.169
    1   AR   Ar  165   3.575   2.986   0.806
    1   AR   Ar  166   2.616   3.530   4.243
    1   AR   Ar  167   5.580   6.914   3.386
    1   AR   Ar  168   5.656   3.842  -1.927
    1   AR   Ar  169   3.289   3.675   3.410
    1   AR   Ar  170   1.745   3.142   5.971
    1   AR   Ar  171   5.944   4.122   4.348
    1   AR   Ar  172   3.748   3.623   5.573
    1   AR   Ar  173   2.499   2.066   5.585
    1   AR   Ar  174   2.051   6.059   5.606
    1   AR   Ar  175   3.289   1.349   5.963
    1   AR   Ar  176   3.504   2.957   4.686
    1   AR   Ar  177   1.063   5.111  -0.904
    1   AR   Ar  178   2.923   5.851   0.433
    1   AR   Ar  179   3.301   7.077  -0.225
    1   AR   Ar  180   5.392   1.525  -5.567
    1   AR   Ar  181   6.981   5.696   2.045
    1   AR   Ar  182   1.025   5.660   2.888
    1   AR   Ar  183   4.718   5.212   2.260
    1   AR   Ar  184   4.218   6.876   0.221
    1   AR   Ar  185   2.599   4.753   4.717
    1   AR   Ar  186   2.290   5.289   3.136
    1   AR   Ar  187   3.790   6.681   3.574
    1   AR   Ar  188   2.451   0.058   2.334
    1   AR   Ar  189   5.081   3.434   6.170
    1   AR   Ar  190   2.958   5.998   3.617
    1   AR   Ar  191   2.472   6.174   7.716
    1   AR   Ar  192   4.493   4.890   6.483
    1   AR   Ar  193   2.629   6.369   1.619
    1   AR   Ar  194   5.294   4.063  -0.959
    1   AR   Ar  195   5.954   0.889   0.255
    1   AR   Ar  196   3.831   0.678  -1.113
    1   AR   Ar  197   4.294   1.520   0.849
    1   AR   Ar  198   5.525   0.264   2.102
    1   AR   Ar  199   2.176   0.298   3.414
    1   AR   Ar  200   4.780   3.029   0.692
    1   AR   Ar  201   6.216   5.816   3.092
    1   AR   Ar  202   5.500   1.834   4.501
    1   AR   Ar  203   0.079   6.508   3.281
    1   AR   Ar  204   5.482   6.035   6.338
    1   AR   Ar  205   6.386   1.449   1.656
    1   AR   Ar  206   6.250   0.742   5.595
    1   AR   Ar  207   0.385   1.909   5.028
    1   AR   Ar  208   0.514   6.078   4.248
    1   AR   Ar  209   6.976   2.374  -2.089
    1   AR   Ar  210   2.534   6.886   0.729
    1   AR   Ar  211   0.093   3.474   0.917
    1   AR   Ar  212   5.975   3.833  -0.065
    1   AR   Ar  213   3.251   1.045   1.335
    1   AR   Ar  214   4.607   4.158   2.196
    1   AR   Ar  215   6.520   2.872   2.574
    1   AR   Ar  216   1.303   2.204   0.567
    1   AR   Ar  217   5.200   1.777   3.536
    1   AR   Ar  218   5.075   3.285   4.431
    1   AR   Ar  219   4.410   3.542   3.415
    1   AR   Ar  220   4.273   3.843   1.290
    1   AR   Ar  221   6.448   6.018   4.013
    1   AR   Ar  222   5.480   6.914   5.666
    1   AR   Ar  223   6.105   1.968   6.663
    1   AR   Ar  224   4.703   2.550   4.991
    1   AR   Ar  225   6.218   3.289   3.438
    1   AR   Ar  226   1.515   3.394   3.122
    1   AR   Ar  227   0.437   3.649   2.065
    1   AR   Ar  228   6.366   0.260   1.367
    1   AR   Ar  229   6.211   5.199  -1.102
    1   AR   Ar  230   3.595   4.026   4.336
    1   AR   Ar  231   4.199   1.674   2.008
    1   AR   Ar  232   5.686   3.105   1.375
    1   AR   Ar  233   6.956   2.571   3.974
    1   AR   Ar  234   5.968   2.558   4.072
    1   AR   Ar  235   6.448   0.399   3.791
    1   AR   Ar  236   5.051   5.123   5.648
    1   AR   Ar  237   5.053   2.285   6.551
    1   AR   Ar  238   5.515   5.085   6.877
    1   AR   Ar  239   0.240   4.851  10.369
    1   AR   Ar  240   6.979   2.718   7.063
    1   AR   Ar  241   2.092   5.789  -0.412
    1   AR   Ar  242   5.301   6.333   1.383
    1   AR   Ar  243   4.189   5.794   3.018
    1   AR   Ar  244   0.566   5.177   0.599
    1   AR   Ar  245   3.559   0.184   2.546
    1   AR   Ar  246   6.015   6.478  -0.677
    1   AR   Ar  247   6.287   3.890   1.410
    1   AR   Ar  248   4.907   6.085  -0.045
    1   AR   Ar  249   4.534   6.783   1.901
    1   AR   Ar  250   4.694   5.422   4.223
    1   AR   Ar  251   4.801   4.392   4.801
    1   AR   Ar  252   3.537   4.979   2.497
    1   AR   Ar  253   6.105   2.951   6.422
    1   AR   Ar  254   4.433   2.330   9.868
    1   AR   Ar  255   3.223   5.896  10.153
    1   AR   Ar  256   5.951   4.860   3.388
    7.12000  7.12000 12.00000
Argon-slab step 4305
  256
    1   AR   Ar    1   4.501   3.341  -2.997
    1   AR   Ar    2   5.852   6.845   0.430
    1   AR   Ar    3   3.907   2.496  -1.732
    1   AR   Ar    4   1.922   1.476   1.098
    1   AR   Ar    5   6.329   5.599   0.486
    1   AR   Ar    6   1.631   2.126   1.827
    1   AR   Ar    7   5.410   3.892   3.388
    1   AR   Ar    8   5.134   1.881  -0.108
    1   AR   Ar    9   0.568   0.311   4.056
    1   AR   Ar   10   6.957   6.842   4.430
    1   AR   Ar   11   1.613   6.588   4.597
    1   AR   Ar   12   0.106   1.553   4.227
    1   AR   Ar   13   7.083   0.821   4.989
    1   AR   Ar   14   4.244   1.614   6.337
    1   AR   Ar   15   3.157   6.598   8.658
    1   AR   Ar   16   0.546   0.013   5.249
    1   AR   Ar   17   5.694   1.915   0.908
    1   AR   Ar   18   0.082   5.253  -0.529
    1   AR   Ar   19   4.146   3.860  -0.082
    1   AR   Ar   20   6.995   4.543  -2.929
    1   AR   Ar   21   2.649   2.119   1.828
    1   AR   Ar   22   5.579   1.184   2.588
    1   AR   Ar   23   0.309   6.251   0.913
    1   AR   Ar   24   5.099   2.701   2.672
    1   AR   Ar   25   0.884   2.518   3.882
    1   AR   Ar   26   5.692   6.653   4.623
    1   AR   Ar   27   1.476   0.578   2.222
    1   AR   Ar   28   1.870   2.788   3.898
    1   AR   Ar   29   5.456   1.415   7.406
    1   AR   Ar   30   1.255   0.868   3.490
    1   AR   Ar   31   3.394   0.227   7.462
    1   AR   Ar   32   0.676   2.642   6.245
    1   AR   Ar   33   0.364   4.329  -0.139
    1   AR   Ar   34   0.706   4.762   2.450
    1   AR   Ar   35   6.001   5.228   2.152
    1   AR   Ar   36   6.048   3.097  -2.579
    1   AR   Ar   37   4.241   2.777   1.951
    1   AR   Ar   38   6.736   4.301   3.742
    1   AR   Ar   39   0.116   3.335   3.215
    1   AR   Ar   40   1.693   4.660   1.841
    1   AR   Ar   41   0.186   2.130   3.006
    1   AR   Ar   42   6.013   5.065   4.705
    1   AR   Ar   43   6.870   2.627   5.560
    1   AR   Ar   44   0.734   4.111   3.531
    1   AR   Ar   45   0.506   3.575   5.251
    1   AR   Ar   46   0.536   4.447   5.996
    1   AR   Ar   47   3.174   5.459   7.082
    1   AR   Ar   48   5.991   3.264   7.423
    1   AR   Ar   49   6.362   0.129  -1.636
    1   AR   Ar   50   3.480   4.949   0.035
    1   AR   Ar   51   5.842   3.692   2.363
    1   AR   Ar   52   5.065   2.786  -1.737
    1   AR   Ar   53   5.490   6.249   2.505
    1   AR   Ar   54   0.583   0.058   2.260
    1   AR   Ar   55   6.534   4.510   2.664
    1   AR   Ar   56   0.075   0.602   3.149
    1   AR   Ar   57   4.020   4.529   3.367
    1   AR   Ar   58   0.273   3.460   4.234
    1   AR   Ar   59   2.968   5.489   6.089
    1   AR   Ar   60   7.091   5.373   3.352
    1   AR   Ar   61   7.013   3.701   6.571
    1   AR   Ar   62   6.860   4.524   4.939
    1   AR   Ar   63   1.663   2.015   6.407
    1   AR   Ar   64   0.392   5.540   5.229
    1   AR   Ar   65   3.568   7.081   1.450
    1   AR   Ar   66   0.434   1.214   0.977
    1   AR   Ar   67   4.810   0.259  -0.730
    1   AR   Ar   68   0.830   0.567  -0.919
    1   AR   Ar   69   2.419   1.014   0.226
    1   AR   Ar   70   0.764   1.359   2.545
    1   AR   Ar   71   2.836   1.065   2.389
    1   AR   Ar   72   4.362   0.648   1.474
    1   AR   Ar   73   3.181   0.565   3.634
    1   AR   Ar   74   1.157   1.036   4.606
    1   AR   Ar   75   3.334   0.706   4.841
    1   AR   Ar   76   2.071   0.452   1.370
    1   AR   Ar   77   1.665   0.261   5.318
    1   AR   Ar   78   7.060   5.883   6.237
    1   AR   Ar   79   4.000   6.337   6.789
    1   AR   Ar   80   3.966   5.616   5.740
    1   AR   Ar   81   1.284   6.412   0.509
    1   AR   Ar   82   6.801   4.533   0.572
    1   AR   Ar   83   1.124   3.121  -0.076
    1   AR   Ar   84   0.669   4.353   1.234
    1   AR   Ar   85   1.650   3.285   0.766
    1   AR   Ar   86   1.916   5.712   1.063
    1   AR   Ar   87   2.850   3.491   2.260
    1   AR   Ar   88   2.871   5.287   1.483
    1   AR   Ar   89   0.227   2.383   1.800
    1   AR   Ar   90   3.265   1.920   4.848
    1   AR   Ar   91   1.529   1.966   3.196
    1   AR   Ar   92   1.605   3.381   2.053
    1   AR   Ar   93   1.222   1.459   5.586
    1   AR   Ar   94   1.228   7.072   9.492
    1   AR   Ar   95   4.288   1.621   5.283
    1   AR   Ar   96   2.668   6.750   4.440
    1   AR   Ar   97   4.052   1.765  -0.679
    1   AR   Ar   98   1.937   4.209   4.057
    1   AR   Ar   99   6.754   1.477   0.321
    1   AR   Ar  100   0.495   3.111  -1.832
    1   AR   Ar  101   3.829   5.923   1.979
    1   AR   Ar  102   3.652   1.278   2.868
    1   AR   Ar  103   2.463   4.355   0.696
    1   AR   Ar  104   3.098   5.199  -1.042
    1   AR   Ar  105   2.544   1.609   3.716
    1   AR   Ar  106   3.876   2.347   5.734
    1   AR   Ar  107   1.378   4.340   4.903
    1   AR   Ar  108   2.167   1.075   4.944
    1   AR   Ar  109   1.466   3.246   4.790
    1   AR   Ar  110   2.489   2.488   4.650
    1   AR   Ar  111   5.073   6.294   7.365
    1   AR   Ar  112   0.949   6.544   6.029
    1   AR   Ar  113   3.662   4.113  -0.959
    1   AR   Ar  114   2.274   6.956  -1.786
    1   AR   Ar  115   1.635   5.064   0.192
    1   AR   Ar  116   4.282   0.921  -0.021
    1   AR   Ar  117   0.498   4.809   4.254
    1   AR   Ar  118   1.392   4.909   3.484
    1   AR   Ar  119   2.239   4.133   2.772
    1   AR   Ar  120   1.570   6.794   1.945
    1   AR   Ar  121   5.688   4.102   5.323
    1   AR   Ar  122   3.174   5.710   4.920
    1   AR   Ar  123   2.653   3.283   5.255
    1   AR   Ar  124   1.085   5.781   1.844
    1   AR   Ar  125   6.537   3.345   4.774
    1   AR   Ar  126   6.741   6.799   5.562
    1   AR   Ar  127   4.192   3.904   6.796
    1   AR   Ar  128   2.833   2.586   6.450
    1   AR   Ar  129   1.977   5.400   4.204
    1   AR   Ar  130   5.093   1.529  -3.999
    1   AR   Ar  131   4.794   4.495  -2.562
    1   AR   Ar  132   0.652   1.875  -0.150
    1   AR   Ar  133   4.427   0.339   4.252
    1   AR   Ar  134   4.084   1.300   4.066
    1   AR   Ar  135   6.299   1.718   3.615
    1   AR   Ar  136   6.718   6.809   2.483
    1   AR   Ar  137   2.355   4.023   5.895
    1   AR   Ar  138   5.471   1.404   5.914
    1   AR   Ar  139   5.525   2.502   5.662
    1   AR   Ar  140   4.095   6.662   4.919
    1   AR   Ar  141   3.898   5.024   4.731
    1   AR   Ar  142   4.627   7.107   6.312
    1   AR   Ar  143   6.360   6.591   6.941
    1   AR   Ar  144   6.480   1.744   5.091
    1   AR   Ar  145   4.441   4.898  -0.729
    1   AR   Ar  146   3.484   2.495   2.775
    1   AR   Ar  147   4.300   3.452  -1.581
    1   AR   Ar  148   3.101   6.434  -1.177
    1   AR   Ar  149   1.755   1.503  -0.622
    1   AR   Ar  150   2.400   2.483   2.772
    1   AR   Ar  151   3.243   2.594   3.762
    1   AR   Ar  152   1.500   2.817  -1.547
    1   AR   Ar  153   5.561   0.569   4.304
    1   AR   Ar  154   4.253   2.426   3.941
    1   AR   Ar  155   6.530   3.726   5.741
    1   AR   Ar  156   3.008   4.778   3.735
    1   AR   Ar  157   1.686   5.177   6.168
    1   AR   Ar  158   0.207   1.602   6.068
    1   AR   Ar  159   3.212   0.170   5.826
    1   AR   Ar  160   1.464   2.007   4.563
    1   AR   Ar  161   4.973   4.961   3.231
    1   AR   Ar  162   4.088   6.221  -0.654
    1   AR   Ar  163   5.733   4.784   0.942
    1   AR   Ar  164   2.115   5.522   2.160
    1   AR   Ar  165   3.582   3.019   0.800
    1   AR   Ar  166   2.626   3.530   4.242
    1   AR   Ar  167   5.588   6.886   3.395
    1   AR   Ar  168   5.652   3.854  -1.921
    1   AR   Ar  169   3.308   3.649   3.442
    1   AR   Ar  170   1.745   3.138   5.989
    1   AR   Ar  171   5.941   4.099   4.364
    1   AR   Ar  172   3.692   3.630   5.578
    1   AR   Ar  173   2.525   2.067   5.586
    1   AR   Ar  174   2.043   6.061   5.604
    1   AR   Ar  175   3.269   1.325   5.993
    1   AR   Ar  176   3.533   2.932   4.656
    1   AR   Ar  177   1.100   5.128  -0.903
    1   AR   Ar  178   2.895   5.863   0.417
    1   AR   Ar  179   3.280   7.090  -0.217
    1   AR   Ar  180   5.403   1.514  -5.590
    1   AR   Ar  181   6.988   5.689   2.020
    1   AR   Ar  182   1.010   5.634   2.856
    1   AR   Ar  183   4.723   5.216   2.256
    1   AR   Ar  184   4.219   6.864   0.219
    1   AR   Ar  185   2.628   4.736   4.725
    1   AR   Ar  186   2.281   5.306   3.155
    1   AR   Ar  187   3.756   6.670   3.600
    1   AR   Ar  188   2.448   0.054   2.322
    1   AR   Ar  189   5.114   3.441   6.195
    1   AR   Ar  190   2.935   6.041   3.615
    1   AR   Ar  191   2.470   6.190   7.763
    1   AR   Ar  192   4.494   4.893   6.498
    1   AR   Ar  193   2.619   6.368   1.626
    1   AR   Ar  194   5.310   4.093  -0.973
    1   AR   Ar  195   5.943   0.888   0.256
    1   AR   Ar  196   3.844   0.642  -1.064
    1   AR   Ar  197   4.290   1.499   0.866
    1   AR   Ar  198   5.516   0.253   2.056
    1   AR   Ar  199   2.178   0.316   3.453
    1   AR   Ar  200   4.764   3.055   0.674
    1   AR   Ar  201   6.266   5.821   3.074
    1   AR   Ar  202   5.469   1.841   4.492
    1   AR   Ar  203   0.097   6.498   3.292
    1   AR   Ar  204   5.473   6.065   6.384
    1   AR   Ar  205   6.408   1.449   1.669
    1   AR   Ar  206   6.303   0.754   5.594
    1   AR   Ar  207   0.393   1.904   5.046
    1   AR   Ar  208   0.532   6.047   4.219
    1   AR   Ar  209   6.996   2.360  -2.096
    1   AR   Ar  210   2.519   6.885   0.707
    1   AR   Ar  211   0.122   3.454   0.929
    1   AR   Ar  212   5.954   3.798  -0.056
    1   AR   Ar  213   3.262   1.079   1.325
    1   AR   Ar  214   4.608   4.144   2.197
    1   AR   Ar  215   6.544   2.867   2.577
    1   AR   Ar  216   1.304   2.212   0.553
    1   AR   Ar  217   5.218   1.761   3.531
    1   AR   Ar  218   5.088   3.300   4.406
    1   AR   Ar  219   4.423   3.554   3.398
    1   AR   Ar  220   4.314   3.866   1.293
    1   AR   Ar  221   6.449   6.044   4.005
    1   AR   Ar  222   5.464   6.919   5.632
    1   AR   Ar  223   6.094   1.946   6.674
    1   AR   Ar  224   4.722   2.497   4.976
    1   AR   Ar  225   6.226   3.319   3.458
    1   AR   Ar  226   1.520   3.384   3.107
    1   AR   Ar  227   0.465   3.648   2.042
    1   AR   Ar  228   6.367   0.270   1.368
    1   AR   Ar  229   6.214   5.177  -1.098
    1   AR   Ar  230   3.598   4.027   4.367
    1   AR   Ar  231   4.183   1.673   2.024
    1   AR   Ar  232   5.704   3.125   1.371
    1   AR   Ar  233   6.980   2.593   3.969
    1   AR   Ar  234   6.005   2.554   4.102
    1   AR   Ar  235   6.441   0.382   3.766
    1   AR   Ar  236   5.066   5.112   5.644
    1   AR   Ar  237   5.016   2.291   6.563
    1   AR   Ar  238   5.526   5.104   6.872
    1   AR   Ar  239   0.249   4.880  10.362
    1   AR   Ar  240   6.991   2.702   7.062
    1   AR   Ar  241   2.130   5.809  -0.409
    1   AR   Ar  242   5.298   6.357   1.402
    1   AR   Ar  243   4.197   5.821   3.019
    1   AR   Ar  244   0.536   5.150   0.600
    1   AR   Ar  245   3.593   0.158   2.531
    1   AR   Ar  246   6.032   6.453  -0.682
    1   AR   Ar  247   6.292   3.879   1.412
    1   AR   Ar  248   4.898   6.069  -0.014
    1   AR   Ar  249   4.515   6.791   1.854
    1   AR   Ar  250   4.691   5.371   4.223
    1   AR   Ar  251   4.782   4.384   4.823
    1   AR   Ar  252   3.558   4.988   2.514
    1   AR   Ar  253   6.096   2.921   6.432
    1   AR   Ar  254   4.463   2.333   9.861
    1   AR   Ar  255   3.192   5.875  10.151
    1   AR   Ar  256   5.942   4.877   3.392
    7.12000  7.12000 12.00000
Argon-slab step 4310
  256
    1   AR   Ar    1   4.516   3.341  -2.946
    1   AR   Ar    2   5.791   6.848   0.455
    1   AR   Ar    3   3.908   2.525  -1.709
    1   AR   Ar    4   1.926   1.455   1.127
    1   AR   Ar    5   6.310   5.650   0.473
    1   AR   Ar    6   1.657   2.094   1.811
    1   AR   Ar    7   5.424   3.904   3.379
    1   AR   Ar    8   5.153   1.837  -0.117
    1   AR   Ar    9   0.580   0.338   4.081
    1   AR   Ar   10   6.956   6.845   4.427
    1   AR   Ar   11   1.574   6.585   4.615
    1   AR   Ar   12   0.100   1.510   4.213
    1   AR   Ar   13   7.082   0.820   4.980
    1   AR   Ar   14   4.224   1.649   6.315
    1   AR   Ar   15   3.154   6.584   8.661
    1   AR   Ar   16   0.508   0.008   5.239
    1   AR   Ar   17   5.717   1.927   0.930
    1   AR   Ar   18   0.077   5.287  -0.559
    1   AR   Ar   19   4.143   3.895  -0.089
    1   AR   Ar   20   6.969   4.523  -2.931
    1   AR   Ar   21   2.687   2.111   1.834
    1   AR   Ar   22   5.543   1.201   2.612
    1   AR   Ar   23   0.311   6.230   0.893
    1   AR   Ar   24   5.134   2.697   2.675
    1   AR   Ar   25   0.884   2.510   3.845
    1   AR   Ar   26   5.679   6.610   4.646
    1   AR   Ar   27   1.460   0.597   2.209
    1   AR   Ar   28   1.875   2.810   3.899
    1   AR   Ar   29   5.433   1.438   7.361
    1   AR   Ar   30   1.223   0.868   3.489
    1   AR   Ar   31   3.416   0.237   7.443
    1   AR   Ar   32   0.667   2.643   6.225
    1   AR   Ar   33   0.361   4.334  -0.112
    1   AR   Ar   34   0.693   4.759   2.436
    1   AR   Ar   35   5.973   5.184   2.179
    1   AR   Ar   36   6.041   3.099  -2.585
    1   AR   Ar   37   4.230   2.795   1.973
    1   AR   Ar   38   6.733   4.327   3.753
    1   AR   Ar   39   0.125   3.324   3.216
    1   AR   Ar   40   1.682   4.686   1.853
    1   AR   Ar   41   0.170   2.139   3.005
    1   AR   Ar   42   6.010   5.104   4.710
    1   AR   Ar   43   6.841   2.593   5.566
    1   AR   Ar   44   0.738   4.141   3.544
    1   AR   Ar   45   0.476   3.588   5.265
    1   AR   Ar   46   0.551   4.472   5.981
    1   AR   Ar   47   3.176   5.455   7.081
    1   AR   Ar   48   5.988   3.261   7.422
    1   AR   Ar   49   6.348   0.132  -1.640
    1   AR   Ar   50   3.502   4.939   0.039
    1   AR   Ar   51   5.838   3.685   2.366
    1   AR   Ar   52   5.064   2.794  -1.723
    1   AR   Ar   53   5.509   6.274   2.516
    1   AR   Ar   54   0.573   0.071   2.249
    1   AR   Ar   55   6.557   4.496   2.667
    1   AR   Ar   56   0.080   0.639   3.198
    1   AR   Ar   57   4.014   4.545   3.365
    1   AR   Ar   58   0.295   3.460   4.239
    1   AR   Ar   59   3.005   5.493   6.109
    1   AR   Ar   60   7.091   5.367   3.354
    1   AR   Ar   61   7.019   3.717   6.588
    1   AR   Ar   62   6.852   4.504   4.943
    1   AR   Ar   63   1.690   2.030   6.376
    1   AR   Ar   64   0.387   5.526   5.237
    1   AR   Ar   65   3.532   7.102   1.447
    1   AR   Ar   66   0.440   1.185   0.966
    1   AR   Ar   67   4.838   0.300  -0.701
    1   AR   Ar   68   0.856   0.595  -0.923
    1   AR   Ar   69   2.449   1.016   0.211
    1   AR   Ar   70   0.786   1.352   2.567
    1   AR   Ar   71   2.818   1.076   2.414
    1   AR   Ar   72   4.379   0.651   1.449
    1   AR   Ar   73   3.169   0.545   3.680
    1   AR   Ar   74   1.136   1.041   4.632
    1   AR   Ar   75   3.343   0.699   4.835
    1   AR   Ar   76   2.053   0.462   1.382
    1   AR   Ar   77   1.646   0.265   5.306
    1   AR   Ar   78   7.072   5.857   6.223
    1   AR   Ar   79   3.982   6.381   6.784
    1   AR   Ar   80   3.980   5.604   5.763
    1   AR   Ar   81   1.265   6.445   0.550
    1   AR   Ar   82   6.781   4.515   0.598
    1   AR   Ar   83   1.124   3.134  -0.072
    1   AR   Ar   84   0.659   4.333   1.241
    1   AR   Ar   85   1.666   3.299   0.757
    1   AR   Ar   86   1.943   5.699   1.046
    1   AR   Ar   87   2.874   3.486   2.261
    1   AR   Ar   88   2.868   5.289   1.500
    1   AR   Ar   89   0.225   2.385   1.788
    1   AR   Ar   90   3.252   1.899   4.843
    1   AR   Ar   91   1.505   1.961   3.192
    1   AR   Ar   92   1.627   3.400   2.058
    1   AR   Ar   93   1.231   1.476   5.600
    1   AR   Ar   94   1.211   7.075   9.464
    1   AR   Ar   95   4.297   1.609   5.257
    1   AR   Ar   96   2.655   6.754   4.423
    1   AR   Ar   97   4.026   1.763  -0.664
    1   AR   Ar   98   1.943   4.203   4.034
    1   AR   Ar   99   6.735   1.447   0.315
    1   AR   Ar  100   0.477   3.134  -1.848
    1   AR   Ar  101   3.811   5.948   1.959
    1   AR   Ar  102   3.673   1.247   2.852
    1   AR   Ar  103   2.475   4.371   0.702
    1   AR   Ar  104   3.101   5.198  -1.053
    1   AR   Ar  105   2.564   1.588   3.726
    1   AR   Ar  106   3.850   2.349   5.747
    1   AR   Ar  107   1.375   4.347   4.896
    1   AR   Ar  108   2.160   1.073   4.950
    1   AR   Ar  109   1.438   3.249   4.803
    1   AR   Ar  110   2.466   2.487   4.633
    1   AR   Ar  111   5.080   6.348   7.345
    1   AR   Ar  112   0.943   6.516   5.988
    1   AR   Ar  113   3.691   4.100  -0.960
    1   AR   Ar  114   2.291   6.949  -1.791
    1   AR   Ar  115   1.635   5.037   0.209
    1   AR   Ar  116   4.258   0.928  -0.045
    1   AR   Ar  117   0.487   4.762   4.249
    1   AR   Ar  118   1.369   4.914   3.483
    1   AR   Ar  119   2.206   4.106   2.740
    1   AR   Ar  120   1.555   6.767   1.934
    1   AR   Ar  121   5.698   4.111   5.335
    1   AR   Ar  122   3.160   5.712   4.952
    1   AR   Ar  123   2.663   3.269   5.234
    1   AR   Ar  124   1.064   5.809   1.833
    1   AR   Ar  125   6.522   3.347   4.740
    1   AR   Ar  126   6.766   6.823   5.583
    1   AR   Ar  127   4.191   3.886   6.785
    1   AR   Ar  128   2.854   2.625   6.471
    1   AR   Ar  129   1.967   5.430   4.190
    1   AR   Ar  130   5.075   1.517  -3.986
    1   AR   Ar  131   4.797   4.527  -2.570
    1   AR   Ar  132   0.651   1.879  -0.128
    1   AR   Ar  133   4.427   0.353   4.275
    1   AR   Ar  134   4.062   1.273   4.047
    1   AR   Ar  135   6.307   1.731   3.595
    1   AR   Ar  136   6.710   6.782   2.478
    1   AR   Ar  137   2.362   4.014   5.918
    1   AR   Ar  138   5.476   1.420   5.917
    1   AR   Ar  139   5.513   2.481   5.636
    1   AR   Ar  140   4.094   6.638   4.921
    1   AR   Ar  141   3.906   5.019   4.743
    1   AR   Ar  142   4.646   0.003   6.337
    1   AR   Ar  143   6.341   6.633   6.959
    1   AR   Ar  144   6.502   1.741   5.069
    1   AR   Ar  145   4.450   4.878  -0.708
    1   AR   Ar  146   3.513   2.495   2.781
    1   AR   Ar  147   4.292   3.462  -1.606
    1   AR   Ar  148   3.115   6.416  -1.130
    1   AR   Ar  149   1.732   1.502  -0.600
    1   AR   Ar  150   2.434   2.496   2.775
    1   AR   Ar  151   3.241   2.606   3.766
    1   AR   Ar  152   1.495   2.820  -1.560
    1   AR   Ar  153   5.580   0.580   4.291
    1   AR   Ar  154   4.254   2.413   3.946
    1   AR   Ar  155   6.541   3.721   5.742
    1   AR   Ar  156   3.018   4.782   3.707
    1   AR   Ar  157   1.690   5.219   6.160
    1   AR   Ar  158   0.207   1.575   6.057
    1   AR   Ar  159   3.239   0.165   5.829
    1   AR   Ar  160   1.474   2.014   4.597
    1   AR   Ar  161   4.990   4.971   3.271
    1   AR   Ar  162   4.076   6.220  -0.643
    1   AR   Ar  163   5.724   4.788   0.947
    1   AR   Ar  164   2.087   5.520   2.152
    1   AR   Ar  165   3.589   3.047   0.791
    1   AR   Ar  166   2.641   3.517   4.240
    1   AR   Ar  167   5.622   6.859   3.425
    1   AR   Ar  168   5.648   3.866  -1.919
    1   AR   Ar  169   3.325   3.622   3.467
    1   AR   Ar  170   1.744   3.131   6.005
    1   AR   Ar  171   5.933   4.071   4.368
    1   AR   Ar  172   3.636   3.636   5.581
    1   AR   Ar  173   2.548   2.065   5.590
    1   AR   Ar  174   1.989   6.038   5.619
    1   AR   Ar  175   3.249   1.302   6.019
    1   AR   Ar  176   3.566   2.912   4.635
    1   AR   Ar  177   1.137   5.144  -0.899
    1   AR   Ar  178   2.866   5.875   0.401
    1   AR   Ar  179   3.258   7.103  -0.210
    1   AR   Ar  180   5.414   1.504  -5.614
    1   AR   Ar  181   6.998   5.683   1.996
    1   AR   Ar  182   0.994   5.619   2.831
    1   AR   Ar  183   4.727   5.223   2.248
    1   AR   Ar  184   4.204   6.862   0.240
    1   AR   Ar  185   2.633   4.756   4.712
    1   AR   Ar  186   2.274   5.321   3.173
    1   AR   Ar  187   3.726   6.663   3.627
    1   AR   Ar  188   2.451   0.052   2.313
    1   AR   Ar  189   5.148   3.448   6.219
    1   AR   Ar  190   2.908   6.081   3.614
    1   AR   Ar  191   2.471   6.205   7.809
    1   AR   Ar  192   4.493   4.898   6.514
    1   AR   Ar  193   2.610   6.367   1.635
    1   AR   Ar  194   5.324   4.124  -0.982
    1   AR   Ar  195   5.924   0.881   0.258
    1   AR   Ar  196   3.857   0.606  -1.015
    1   AR   Ar  197   4.286   1.483   0.883
    1   AR   Ar  198   5.505   0.238   2.008
    1   AR   Ar  199   2.179   0.333   3.491
    1   AR   Ar  200   4.748   3.080   0.656
    1   AR   Ar  201   6.306   5.832   3.038
    1   AR   Ar  202   5.454   1.829   4.503
    1   AR   Ar  203   0.119   6.487   3.311
    1   AR   Ar  204   5.464   6.095   6.427
    1   AR   Ar  205   6.430   1.448   1.681
    1   AR   Ar  206   6.326   0.759   5.594
    1   AR   Ar  207   0.413   1.912   5.085
    1   AR   Ar  208   0.551   6.014   4.189
    1   AR   Ar  209   7.010   2.342  -2.105
    1   AR   Ar  210   2.487   6.890   0.680
    1   AR   Ar  211   0.152   3.433   0.941
    1   AR   Ar  212   5.933   3.764  -0.045
    1   AR   Ar  213   3.272   1.110   1.316
    1   AR   Ar  214   4.612   4.132   2.210
    1   AR   Ar  215   6.569   2.858   2.574
    1   AR   Ar  216   1.309   2.221   0.544
    1   AR   Ar  217   5.232   1.745   3.516
    1   AR   Ar  218   5.105   3.318   4.377
    1   AR   Ar  219   4.434   3.560   3.381
    1   AR   Ar  220   4.351   3.884   1.285
    1   AR   Ar  221   6.451   6.070   4.010
    1   AR   Ar  222   5.450   6.925   5.599
    1   AR   Ar  223   6.084   1.918   6.686
    1   AR   Ar  224   4.738   2.448   4.960
    1   AR   Ar  225   6.238   3.351   3.482
    1   AR   Ar  226   1.522   3.375   3.093
    1   AR   Ar  227   0.492   3.645   2.022
    1   AR   Ar  228   6.369   0.280   1.369
    1   AR   Ar  229   6.217   5.154  -1.094
    1   AR   Ar  230   3.603   4.030   4.402
    1   AR   Ar  231   4.168   1.673   2.037
    1   AR   Ar  232   5.709   3.129   1.367
    1   AR   Ar  233   7.005   2.608   3.961
    1   AR   Ar  234   6.033   2.564   4.137
    1   AR   Ar  235   6.429   0.364   3.744
    1   AR   Ar  236   5.079   5.093   5.641
    1   AR   Ar  237   4.980   2.299   6.576
    1   AR   Ar  238   5.536   5.122   6.867
    1   AR   Ar  239   0.258   4.910  10.354
    1   AR   Ar  240   7.002   2.685   7.059
    1   AR   Ar  241   2.170   5.829  -0.406
    1   AR   Ar  242   5.302   6.379   1.416
    1   AR   Ar  243   4.204   5.846   3.021
    1   AR   Ar  244   0.508   5.130   0.598
    1   AR   Ar  245   3.627   0.133   2.518
    1   AR   Ar  246   6.049   6.427  -0.686
    1   AR   Ar  247   6.311   3.884   1.413
    1   AR   Ar  248   4.882   6.058   0.007
    1   AR   Ar  249   4.491   6.800   1.814
    1   AR   Ar  250   4.696   5.323   4.219
    1   AR   Ar  251   4.762   4.376   4.842
    1   AR   Ar  252   3.551   4.997   2.526
    1   AR   Ar  253   6.089   2.900   6.438
    1   AR   Ar  254   4.492   2.335   9.854
    1   AR   Ar  255   3.161   5.853  10.149
    1   AR   Ar  256   5.937   4.894   3.404
    7.12000  7.12000 12.00000
Argon-slab step 4315
  256
    1   AR   Ar    1   4.532   3.343  -2.894
    1   AR   Ar    2   5.760   6.845   0.488
    1   AR   Ar    3   3.895   2.525  -1.696
    1   AR   Ar    4   1.929   1.436   1.125
    1   AR   Ar    5   6.292   5.700   0.459
    1   AR   Ar    6   1.673   2.073   1.807
    1   AR   Ar    7   5.432   3.923   3.368
    1   AR   Ar    8   5.170   1.791  -0.125
    1   AR   Ar    9   0.590   0.362   4.109
    1   AR   Ar   10   6.953   6.850   4.429
    1   AR   Ar   11   1.533   6.579   4.633
    1   AR   Ar   12   0.093   1.466   4.188
    1   AR   Ar   13   7.089   0.821   4.962
    1   AR   Ar   14   4.208   1.671   6.302
    1   AR   Ar   15   3.151   6.569   8.663
    1   AR   Ar   16   0.488   0.003   5.223
    1   AR   Ar   17   5.740   1.938   0.952
    1   AR   Ar   18   0.071   5.322  -0.588
    1   AR   Ar   19   4.145   3.928  -0.087
    1   AR   Ar   20   6.942   4.502  -2.933
    1   AR   Ar   21   2.732   2.101   1.837
    1   AR   Ar   22   5.508   1.217   2.634
    1   AR   Ar   23   0.308   6.206   0.875
    1   AR   Ar   24   5.169   2.695   2.678
    1   AR   Ar   25   0.883   2.504   3.808
    1   AR   Ar   26   5.668   6.565   4.663
    1   AR   Ar   27   1.446   0.630   2.203
    1   AR   Ar   28   1.881   2.834   3.893
    1   AR   Ar   29   5.408   1.460   7.315
    1   AR   Ar   30   1.203   0.886   3.492
    1   AR   Ar   31   3.439   0.245   7.422
    1   AR   Ar   32   0.668   2.642   6.181
    1   AR   Ar   33   0.368   4.332  -0.099
    1   AR   Ar   34   0.677   4.745   2.419
    1   AR   Ar   35   5.941   5.143   2.203
    1   AR   Ar   36   6.034   3.101  -2.591
    1   AR   Ar   37   4.228   2.823   1.966
    1   AR   Ar   38   6.737   4.350   3.763
    1   AR   Ar   39   0.140   3.315   3.212
    1   AR   Ar   40   1.664   4.699   1.862
    1   AR   Ar   41   0.154   2.147   3.006
    1   AR   Ar   42   6.003   5.145   4.713
    1   AR   Ar   43   6.812   2.563   5.574
    1   AR   Ar   44   0.744   4.158   3.546
    1   AR   Ar   45   0.444   3.601   5.281
    1   AR   Ar   46   0.564   4.496   5.963
    1   AR   Ar   47   3.181   5.452   7.091
    1   AR   Ar   48   5.985   3.258   7.422
    1   AR   Ar   49   6.346   0.152  -1.665
    1   AR   Ar   50   3.525   4.928   0.041
    1   AR   Ar   51   5.833   3.677   2.372
    1   AR   Ar   52   5.066   2.800  -1.711
    1   AR   Ar   53   5.524   6.299   2.524
    1   AR   Ar   54   0.558   0.083   2.239
    1   AR   Ar   55   6.630   4.511   2.669
    1   AR   Ar   56   0.094   0.679   3.238
    1   AR   Ar   57   4.009   4.561   3.365
    1   AR   Ar   58   0.326   3.471   4.247
    1   AR   Ar   59   3.035   5.497   6.116
    1   AR   Ar   60   7.102   5.348   3.362
    1   AR   Ar   61   7.033   3.732   6.619
    1   AR   Ar   62   6.843   4.478   4.948
    1   AR   Ar   63   1.717   2.048   6.345
    1   AR   Ar   64   0.384   5.513   5.244
    1   AR   Ar   65   3.490   0.001   1.442
    1   AR   Ar   66   0.446   1.156   0.956
    1   AR   Ar   67   4.868   0.338  -0.671
    1   AR   Ar   68   0.882   0.624  -0.926
    1   AR   Ar   69   2.478   1.016   0.197
    1   AR   Ar   70   0.806   1.349   2.569
    1   AR   Ar   71   2.789   1.086   2.431
    1   AR   Ar   72   4.398   0.653   1.427
    1   AR   Ar   73   3.163   0.528   3.726
    1   AR   Ar   74   1.110   1.042   4.657
    1   AR   Ar   75   3.352   0.694   4.828
    1   AR   Ar   76   2.040   0.469   1.390
    1   AR   Ar   77   1.619   0.268   5.318
    1   AR   Ar   78   7.084   5.831   6.209
    1   AR   Ar   79   3.964   6.422   6.778
    1   AR   Ar   80   3.998   5.592   5.785
    1   AR   Ar   81   1.252   6.478   0.591
    1   AR   Ar   82   6.754   4.496   0.630
    1   AR   Ar   83   1.118   3.147  -0.075
    1   AR   Ar   84   0.650   4.317   1.253
    1   AR   Ar   85   1.686   3.315   0.756
    1   AR   Ar   86   1.941   5.656   1.014
    1   AR   Ar   87   2.902   3.476   2.261
    1   AR   Ar   88   2.867   5.289   1.515
    1   AR   Ar   89   0.212   2.375   1.788
    1   AR   Ar   90   3.250   1.870   4.835
    1   AR   Ar   91   1.484   1.956   3.187
    1   AR   Ar   92   1.649   3.420   2.058
    1   AR   Ar   93   1.242   1.492   5.614
    1   AR   Ar   94   1.194   7.078   9.436
    1   AR   Ar   95   4.306   1.579   5.224
    1   AR   Ar   96   2.652   6.763   4.415
    1   AR   Ar   97   4.000   1.763  -0.650
    1   AR   Ar   98   1.946   4.200   4.005
    1   AR   Ar   99   6.724   1.424   0.309
    1   AR   Ar  100   0.461   3.163  -1.862
    1   AR   Ar  101   3.782   5.978   1.941
    1   AR   Ar  102   3.705   1.219   2.847
    1   AR   Ar  103   2.449   4.414   0.691
    1   AR   Ar  104   3.105   5.198  -1.062
    1   AR   Ar  105   2.585   1.568   3.737
    1   AR   Ar  106   3.811   2.370   5.754
    1   AR   Ar  107   1.368   4.355   4.892
    1   AR   Ar  108   2.159   1.078   4.955
    1   AR   Ar  109   1.412   3.251   4.816
    1   AR   Ar  110   2.441   2.484   4.613
    1   AR   Ar  111   5.083   6.389   7.335
    1   AR   Ar  112   0.938   6.484   5.946
    1   AR   Ar  113   3.715   4.090  -0.968
    1   AR   Ar  114   2.308   6.941  -1.795
    1   AR   Ar  115   1.635   5.010   0.226
    1   AR   Ar  116   4.235   0.932  -0.067
    1   AR   Ar  117   0.474   4.726   4.255
    1   AR   Ar  118   1.347   4.920   3.482
    1   AR   Ar  119   2.172   4.087   2.712
    1   AR   Ar  120   1.540   6.729   1.918
    1   AR   Ar  121   5.702   4.124   5.354
    1   AR   Ar  122   3.178   5.699   4.882
    1   AR   Ar  123   2.675   3.256   5.221
    1   AR   Ar  124   1.041   5.835   1.814
    1   AR   Ar  125   6.508   3.343   4.710
    1   AR   Ar  126   6.777   6.842   5.608
    1   AR   Ar  127   4.191   3.866   6.773
    1   AR   Ar  128   2.874   2.664   6.490
    1   AR   Ar  129   1.959   5.462   4.179
    1   AR   Ar  130   5.057   1.505  -3.973
    1   AR   Ar  131   4.802   4.557  -2.577
    1   AR   Ar  132   0.638   1.882  -0.119
    1   AR   Ar  133   4.428   0.362   4.300
    1   AR   Ar  134   4.036   1.254   4.026
    1   AR   Ar  135   6.318   1.739   3.574
    1   AR   Ar  136   6.697   6.756   2.470
    1   AR   Ar  137   2.370   4.009   5.942
    1   AR   Ar  138   5.475   1.441   5.927
    1   AR   Ar  139   5.519   2.474   5.622
    1   AR   Ar  140   4.092   6.613   4.923
    1   AR   Ar  141   3.908   5.009   4.759
    1   AR   Ar  142   4.667   0.019   6.362
    1   AR   Ar  143   6.322   6.674   6.976
    1   AR   Ar  144   6.508   1.741   5.065
    1   AR   Ar  145   4.461   4.885  -0.699
    1   AR   Ar  146   3.546   2.494   2.782
    1   AR   Ar  147   4.285   3.481  -1.630
    1   AR   Ar  148   3.128   6.398  -1.082
    1   AR   Ar  149   1.708   1.501  -0.577
    1   AR   Ar  150   2.454   2.512   2.775
    1   AR   Ar  151   3.227   2.612   3.765
    1   AR   Ar  152   1.490   2.822  -1.572
    1   AR   Ar  153   5.596   0.593   4.281
    1   AR   Ar  154   4.261   2.398   3.951
    1   AR   Ar  155   6.552   3.713   5.734
    1   AR   Ar  156   3.029   4.784   3.681
    1   AR   Ar  157   1.693   5.256   6.156
    1   AR   Ar  158   0.206   1.547   6.047
    1   AR   Ar  159   3.266   0.159   5.831
    1   AR   Ar  160   1.486   2.025   4.633
    1   AR   Ar  161   4.991   4.982   3.305
    1   AR   Ar  162   4.060   6.220  -0.633
    1   AR   Ar  163   5.715   4.792   0.953
    1   AR   Ar  164   2.060   5.532   2.149
    1   AR   Ar  165   3.594   3.056   0.772
    1   AR   Ar  166   2.659   3.500   4.237
    1   AR   Ar  167   5.657   6.831   3.457
    1   AR   Ar  168   5.643   3.877  -1.922
    1   AR   Ar  169   3.344   3.597   3.484
    1   AR   Ar  170   1.742   3.121   6.020
    1   AR   Ar  171   5.921   4.048   4.361
    1   AR   Ar  172   3.581   3.642   5.584
    1   AR   Ar  173   2.560   2.065   5.593
    1   AR   Ar  174   1.938   6.020   5.630
    1   AR   Ar  175   3.228   1.280   6.042
    1   AR   Ar  176   3.603   2.899   4.628
    1   AR   Ar  177   1.176   5.160  -0.894
    1   AR   Ar  178   2.840   5.886   0.389
    1   AR   Ar  179   3.234   7.116  -0.203
    1   AR   Ar  180   5.425   1.494  -5.637
    1   AR   Ar  181   7.009   5.676   1.975
    1   AR   Ar  182   0.980   5.615   2.813
    1   AR   Ar  183   4.732   5.233   2.239
    1   AR   Ar  184   4.190   6.864   0.262
    1   AR   Ar  185   2.638   4.773   4.702
    1   AR   Ar  186   2.269   5.337   3.189
    1   AR   Ar  187   3.703   6.663   3.655
    1   AR   Ar  188   2.457   0.052   2.308
    1   AR   Ar  189   5.182   3.454   6.242
    1   AR   Ar  190   2.875   6.114   3.613
    1   AR   Ar  191   2.472   6.221   7.855
    1   AR   Ar  192   4.490   4.904   6.530
    1   AR   Ar  193   2.603   6.365   1.642
    1   AR   Ar  194   5.335   4.156  -0.986
    1   AR   Ar  195   5.895   0.868   0.260
    1   AR   Ar  196   3.866   0.569  -0.965
    1   AR   Ar  197   4.281   1.474   0.898
    1   AR   Ar  198   5.492   0.222   1.962
    1   AR   Ar  199   2.177   0.348   3.528
    1   AR   Ar  200   4.732   3.105   0.638
    1   AR   Ar  201   6.335   5.850   2.989
    1   AR   Ar  202   5.469   1.798   4.531
    1   AR   Ar  203   0.143   6.476   3.334
    1   AR   Ar  204   5.456   6.127   6.462
    1   AR   Ar  205   6.452   1.446   1.693
    1   AR   Ar  206   6.305   0.757   5.592
    1   AR   Ar  207   0.440   1.925   5.126
    1   AR   Ar  208   0.570   5.979   4.160
    1   AR   Ar  209   7.020   2.319  -2.117
    1   AR   Ar  210   2.456   6.894   0.652
    1   AR   Ar  211   0.180   3.412   0.953
    1   AR   Ar  212   5.912   3.731  -0.033
    1   AR   Ar  213   3.276   1.131   1.314
    1   AR   Ar  214   4.620   4.120   2.236
    1   AR   Ar  215   6.591   2.846   2.567
    1   AR   Ar  216   1.320   2.234   0.543
    1   AR   Ar  217   5.242   1.730   3.496
    1   AR   Ar  218   5.121   3.337   4.348
    1   AR   Ar  219   4.444   3.563   3.365
    1   AR   Ar  220   4.384   3.900   1.268
    1   AR   Ar  221   6.451   6.091   4.019
    1   AR   Ar  222   5.436   6.933   5.571
    1   AR   Ar  223   6.077   1.886   6.697
    1   AR   Ar  224   4.752   2.408   4.939
    1   AR   Ar  225   6.256   3.381   3.507
    1   AR   Ar  226   1.520   3.366   3.084
    1   AR   Ar  227   0.518   3.641   2.005
    1   AR   Ar  228   6.372   0.290   1.369
    1   AR   Ar  229   6.220   5.132  -1.088
    1   AR   Ar  230   3.609   4.034   4.438
    1   AR   Ar  231   4.153   1.673   2.047
    1   AR   Ar  232   5.702   3.120   1.361
    1   AR   Ar  233   7.027   2.611   3.952
    1   AR   Ar  234   6.052   2.580   4.175
    1   AR   Ar  235   6.415   0.344   3.727
    1   AR   Ar  236   5.094   5.074   5.636
    1   AR   Ar  237   4.950   2.310   6.591
    1   AR   Ar  238   5.546   5.139   6.862
    1   AR   Ar  239   0.267   4.939  10.347
    1   AR   Ar  240   7.012   2.668   7.054
    1   AR   Ar  241   2.209   5.850  -0.406
    1   AR   Ar  242   5.315   6.396   1.427
    1   AR   Ar  243   4.212   5.869   3.023
    1   AR   Ar  244   0.483   5.118   0.594
    1   AR   Ar  245   3.661   0.109   2.506
    1   AR   Ar  246   6.065   6.402  -0.688
    1   AR   Ar  247   6.343   3.904   1.415
    1   AR   Ar  248   4.861   6.050   0.022
    1   AR   Ar  249   4.462   6.810   1.781
    1   AR   Ar  250   4.708   5.278   4.212
    1   AR   Ar  251   4.744   4.366   4.859
    1   AR   Ar  252   3.543   4.969   2.549
    1   AR   Ar  253   6.085   2.885   6.440
    1   AR   Ar  254   4.521   2.338   9.847
    1   AR   Ar  255   3.129   5.832  10.147
    1   AR   Ar  256   5.946   4.913   3.421
    7.12000  7.12000 12.00000
Argon-slab step 4320
  256
    1   AR   Ar    1   4.548   3.345  -2.839
    1   AR   Ar    2   5.773   6.830   0.534
    1   AR   Ar    3   3.879   2.514  -1.686
    1   AR   Ar    4   1.929   1.426   1.080
    1   AR   Ar    5   6.274   5.750   0.445
    1   AR   Ar    6   1.681   2.062   1.815
    1   AR   Ar    7   5.434   3.949   3.357
    1   AR   Ar    8   5.187   1.745  -0.131
    1   AR   Ar    9   0.596   0.379   4.140
    1   AR   Ar   10   6.944   6.860   4.435
    1   AR   Ar   11   1.491   6.572   4.649
    1   AR   Ar   12   0.101   1.441   4.160
    1   AR   Ar   13   7.099   0.825   4.942
    1   AR   Ar   14   4.196   1.678   6.296
    1   AR   Ar   15   3.148   6.554   8.664
    1   AR   Ar   16   0.491   7.119   5.200
    1   AR   Ar   17   5.763   1.949   0.973
    1   AR   Ar   18   0.066   5.357  -0.614
    1   AR   Ar   19   4.152   3.960  -0.076
    1   AR   Ar   20   6.915   4.481  -2.934
    1   AR   Ar   21   2.782   2.089   1.838
    1   AR   Ar   22   5.474   1.231   2.652
    1   AR   Ar   23   0.300   6.179   0.861
    1   AR   Ar   24   5.205   2.693   2.682
    1   AR   Ar   25   0.886   2.500   3.773
    1   AR   Ar   26   5.660   6.519   4.672
    1   AR   Ar   27   1.436   0.665   2.202
    1   AR   Ar   28   1.883   2.859   3.880
    1   AR   Ar   29   5.377   1.479   7.274
    1   AR   Ar   30   1.195   0.916   3.496
    1   AR   Ar   31   3.462   0.253   7.401
    1   AR   Ar   32   0.669   2.640   6.135
    1   AR   Ar   33   0.394   4.321  -0.094
    1   AR   Ar   34   0.658   4.724   2.399
    1   AR   Ar   35   5.906   5.105   2.226
    1   AR   Ar   36   6.027   3.101  -2.596
    1   AR   Ar   37   4.230   2.853   1.951
    1   AR   Ar   38   6.746   4.369   3.775
    1   AR   Ar   39   0.162   3.309   3.205
    1   AR   Ar   40   1.639   4.698   1.864
    1   AR   Ar   41   0.140   2.154   3.008
    1   AR   Ar   42   5.996   5.185   4.714
    1   AR   Ar   43   6.784   2.542   5.588
    1   AR   Ar   44   0.748   4.151   3.529
    1   AR   Ar   45   0.412   3.615   5.301
    1   AR   Ar   46   0.577   4.521   5.944
    1   AR   Ar   47   3.188   5.449   7.112
    1   AR   Ar   48   5.983   3.256   7.423
    1   AR   Ar   49   6.347   0.146  -1.650
    1   AR   Ar   50   3.547   4.917   0.042
    1   AR   Ar   51   5.827   3.669   2.378
    1   AR   Ar   52   5.071   2.804  -1.699
    1   AR   Ar   53   5.536   6.324   2.528
    1   AR   Ar   54   0.541   0.092   2.230
    1   AR   Ar   55   6.708   4.524   2.671
    1   AR   Ar   56   0.090   0.683   3.244
    1   AR   Ar   57   4.008   4.573   3.371
    1   AR   Ar   58   0.363   3.490   4.257
    1   AR   Ar   59   3.030   5.494   6.111
    1   AR   Ar   60   7.097   5.324   3.366
    1   AR   Ar   61   7.051   3.746   6.655
    1   AR   Ar   62   6.834   4.450   4.955
    1   AR   Ar   63   1.747   2.069   6.316
    1   AR   Ar   64   0.380   5.498   5.250
    1   AR   Ar   65   3.445   0.020   1.435
    1   AR   Ar   66   0.453   1.128   0.947
    1   AR   Ar   67   4.896   0.364  -0.652
    1   AR   Ar   68   0.909   0.655  -0.928
    1   AR   Ar   69   2.507   1.015   0.184
    1   AR   Ar   70   0.818   1.356   2.541
    1   AR   Ar   71   2.753   1.096   2.445
    1   AR   Ar   72   4.418   0.649   1.410
    1   AR   Ar   73   3.163   0.512   3.773
    1   AR   Ar   74   1.083   1.044   4.684
    1   AR   Ar   75   3.361   0.690   4.821
    1   AR   Ar   76   2.031   0.460   1.391
    1   AR   Ar   77   1.587   0.270   5.338
    1   AR   Ar   78   7.097   5.807   6.195
    1   AR   Ar   79   3.945   6.462   6.773
    1   AR   Ar   80   4.022   5.581   5.803
    1   AR   Ar   81   1.246   6.511   0.631
    1   AR   Ar   82   6.722   4.476   0.663
    1   AR   Ar   83   1.108   3.158  -0.082
    1   AR   Ar   84   0.643   4.305   1.263
    1   AR   Ar   85   1.709   3.333   0.763
    1   AR   Ar   86   1.939   5.615   0.985
    1   AR   Ar   87   2.915   3.486   2.247
    1   AR   Ar   88   2.919   5.314   1.514
    1   AR   Ar   89   0.192   2.356   1.795
    1   AR   Ar   90   3.254   1.837   4.826
    1   AR   Ar   91   1.468   1.948   3.178
    1   AR   Ar   92   1.672   3.438   2.051
    1   AR   Ar   93   1.255   1.504   5.628
    1   AR   Ar   94   1.177   7.080   9.408
    1   AR   Ar   95   4.310   1.536   5.192
    1   AR   Ar   96   2.650   6.776   4.409
    1   AR   Ar   97   3.974   1.766  -0.639
    1   AR   Ar   98   1.947   4.200   3.972
    1   AR   Ar   99   6.720   1.408   0.305
    1   AR   Ar  100   0.473   3.163  -1.869
    1   AR   Ar  101   3.751   6.007   1.924
    1   AR   Ar  102   3.740   1.188   2.851
    1   AR   Ar  103   2.424   4.457   0.681
    1   AR   Ar  104   3.110   5.198  -1.069
    1   AR   Ar  105   2.606   1.548   3.748
    1   AR   Ar  106   3.764   2.405   5.753
    1   AR   Ar  107   1.360   4.364   4.890
    1   AR   Ar  108   2.177   1.083   4.949
    1   AR   Ar  109   1.386   3.251   4.828
    1   AR   Ar  110   2.422   2.473   4.595
    1   AR   Ar  111   5.074   6.383   7.358
    1   AR   Ar  112   0.933   6.451   5.904
    1   AR   Ar  113   3.726   4.103  -0.987
    1   AR   Ar  114   2.326   6.933  -1.798
    1   AR   Ar  115   1.632   4.983   0.241
    1   AR   Ar  116   4.213   0.936  -0.080
    1   AR   Ar  117   0.461   4.706   4.276
    1   AR   Ar  118   1.330   4.933   3.481
    1   AR   Ar  119   2.138   4.076   2.687
    1   AR   Ar  120   1.528   6.690   1.901
    1   AR   Ar  121   5.699   4.139   5.376
    1   AR   Ar  122   3.191   5.693   4.814
    1   AR   Ar  123   2.688   3.242   5.221
    1   AR   Ar  124   1.059   5.845   1.789
    1   AR   Ar  125   6.502   3.333   4.687
    1   AR   Ar  126   6.772   6.855   5.640
    1   AR   Ar  127   4.191   3.846   6.760
    1   AR   Ar  128   2.895   2.703   6.507
    1   AR   Ar  129   1.939   5.461   4.188
    1   AR   Ar  130   5.039   1.493  -3.961
    1   AR   Ar  131   4.806   4.585  -2.584
    1   AR   Ar  132   0.621   1.882  -0.114
    1   AR   Ar  133   4.431   0.363   4.315
    1   AR   Ar  134   4.006   1.243   4.005
    1   AR   Ar  135   6.331   1.746   3.551
    1   AR   Ar  136   6.681   6.730   2.459
    1   AR   Ar  137   2.378   4.006   5.964
    1   AR   Ar  138   5.471   1.461   5.936
    1   AR   Ar  139   5.538   2.477   5.615
    1   AR   Ar  140   4.088   6.588   4.925
    1   AR   Ar  141   3.905   4.995   4.779
    1   AR   Ar  142   4.688   0.034   6.386
    1   AR   Ar  143   6.333   6.665   6.965
    1   AR   Ar  144   6.496   1.748   5.087
    1   AR   Ar  145   4.483   4.914  -0.686
    1   AR   Ar  146   3.581   2.491   2.780
    1   AR   Ar  147   4.279   3.508  -1.656
    1   AR   Ar  148   3.137   6.381  -1.034
    1   AR   Ar  149   1.682   1.499  -0.552
    1   AR   Ar  150   2.452   2.526   2.796
    1   AR   Ar  151   3.202   2.609   3.758
    1   AR   Ar  152   1.485   2.825  -1.583
    1   AR   Ar  153   5.606   0.608   4.275
    1   AR   Ar  154   4.271   2.382   3.953
    1   AR   Ar  155   6.564   3.701   5.721
    1   AR   Ar  156   3.039   4.785   3.656
    1   AR   Ar  157   1.691   5.276   6.161
    1   AR   Ar  158   0.201   1.518   6.041
    1   AR   Ar  159   3.294   0.154   5.833
    1   AR   Ar  160   1.497   2.038   4.670
    1   AR   Ar  161   4.980   4.991   3.326
    1   AR   Ar  162   4.045   6.219  -0.624
    1   AR   Ar  163   5.707   4.795   0.960
    1   AR   Ar  164   2.038   5.560   2.151
    1   AR   Ar  165   3.594   3.069   0.773
    1   AR   Ar  166   2.678   3.481   4.234
    1   AR   Ar  167   5.688   6.799   3.488
    1   AR   Ar  168   5.638   3.887  -1.930
    1   AR   Ar  169   3.366   3.577   3.495
    1   AR   Ar  170   1.741   3.110   6.032
    1   AR   Ar  171   5.901   4.035   4.344
    1   AR   Ar  172   3.529   3.648   5.587
    1   AR   Ar  173   2.544   2.073   5.579
    1   AR   Ar  174   1.893   6.019   5.628
    1   AR   Ar  175   3.206   1.258   6.062
    1   AR   Ar  176   3.642   2.891   4.634
    1   AR   Ar  177   1.214   5.176  -0.887
    1   AR   Ar  178   2.818   5.897   0.383
    1   AR   Ar  179   3.209   0.009  -0.196
    1   AR   Ar  180   5.436   1.484  -5.660
    1   AR   Ar  181   7.020   5.670   1.955
    1   AR   Ar  182   0.965   5.621   2.801
    1   AR   Ar  183   4.736   5.243   2.230
    1   AR   Ar  184   4.175   6.867   0.281
    1   AR   Ar  185   2.644   4.786   4.693
    1   AR   Ar  186   2.265   5.352   3.199
    1   AR   Ar  187   3.688   6.669   3.684
    1   AR   Ar  188   2.461   0.059   2.315
    1   AR   Ar  189   5.215   3.460   6.265
    1   AR   Ar  190   2.836   6.140   3.611
    1   AR   Ar  191   2.474   6.236   7.900
    1   AR   Ar  192   4.487   4.911   6.547
    1   AR   Ar  193   2.596   6.361   1.647
    1   AR   Ar  194   5.344   4.190  -0.984
    1   AR   Ar  195   5.862   0.862   0.264
    1   AR   Ar  196   3.872   0.531  -0.918
    1   AR   Ar  197   4.275   1.477   0.906
    1   AR   Ar  198   5.476   0.206   1.918
    1   AR   Ar  199   2.169   0.362   3.563
    1   AR   Ar  200   4.717   3.128   0.619
    1   AR   Ar  201   6.358   5.872   2.936
    1   AR   Ar  202   5.485   1.761   4.562
    1   AR   Ar  203   0.165   6.466   3.357
    1   AR   Ar  204   5.452   6.158   6.485
    1   AR   Ar  205   6.475   1.444   1.704
    1   AR   Ar  206   6.278   0.754   5.595
    1   AR   Ar  207   0.469   1.941   5.159
    1   AR   Ar  208   0.589   5.942   4.133
    1   AR   Ar  209   7.028   2.293  -2.129
    1   AR   Ar  210   2.425   6.898   0.624
    1   AR   Ar  211   0.207   3.389   0.964
    1   AR   Ar  212   5.891   3.699  -0.020
    1   AR   Ar  213   3.279   1.152   1.313
    1   AR   Ar  214   4.629   4.110   2.271
    1   AR   Ar  215   6.609   2.835   2.557
    1   AR   Ar  216   1.337   2.248   0.548
    1   AR   Ar  217   5.248   1.718   3.479
    1   AR   Ar  218   5.137   3.354   4.318
    1   AR   Ar  219   4.451   3.563   3.349
    1   AR   Ar  220   4.415   3.914   1.245
    1   AR   Ar  221   6.446   6.105   4.025
    1   AR   Ar  222   5.441   6.994   5.563
    1   AR   Ar  223   6.078   1.854   6.703
    1   AR   Ar  224   4.762   2.383   4.914
    1   AR   Ar  225   6.280   3.407   3.534
    1   AR   Ar  226   1.512   3.356   3.078
    1   AR   Ar  227   0.543   3.632   1.995
    1   AR   Ar  228   6.370   0.299   1.369
    1   AR   Ar  229   6.221   5.109  -1.082
    1   AR   Ar  230   3.615   4.036   4.476
    1   AR   Ar  231   4.139   1.675   2.052
    1   AR   Ar  232   5.690   3.105   1.356
    1   AR   Ar  233   7.041   2.606   3.945
    1   AR   Ar  234   6.060   2.596   4.215
    1   AR   Ar  235   6.402   0.323   3.712
    1   AR   Ar  236   5.109   5.056   5.630
    1   AR   Ar  237   4.927   2.325   6.606
    1   AR   Ar  238   5.556   5.135   6.839
    1   AR   Ar  239   0.276   4.969  10.340
    1   AR   Ar  240   7.020   2.652   7.047
    1   AR   Ar  241   2.244   5.869  -0.410
    1   AR   Ar  242   5.335   6.409   1.434
    1   AR   Ar  243   4.219   5.891   3.025
    1   AR   Ar  244   0.460   5.113   0.589
    1   AR   Ar  245   3.693   0.085   2.496
    1   AR   Ar  246   6.069   6.424  -0.663
    1   AR   Ar  247   6.379   3.929   1.418
    1   AR   Ar  248   4.846   6.041   0.040
    1   AR   Ar  249   4.431   6.818   1.753
    1   AR   Ar  250   4.723   5.239   4.210
    1   AR   Ar  251   4.726   4.352   4.875
    1   AR   Ar  252   3.536   4.927   2.580
    1   AR   Ar  253   6.085   2.875   6.438
    1   AR   Ar  254   4.550   2.340   9.840
    1   AR   Ar  255   3.098   5.811  10.144
    1   AR   Ar  256   5.968   4.934   3.441
    7.12000  7.12000 12.00000
Argon-slab step 4325
  256
    1   AR   Ar    1   4.565   3.347  -2.782
    1   AR   Ar    2   5.788   6.816   0.579
    1   AR   Ar    3   3.862   2.501  -1.676
    1   AR   Ar    4   1.931   1.416   1.027
    1   AR   Ar    5   6.257   5.800   0.432
    1   AR   Ar    6   1.685   2.058   1.831
    1   AR   Ar    7   5.432   3.980   3.345
    1   AR   Ar    8   5.202   1.696  -0.135
    1   AR   Ar    9   0.596   0.387   4.167
    1   AR   Ar   10   6.906   6.886   4.438
    1   AR   Ar   11   1.448   6.562   4.664
    1   AR   Ar   12   0.129   1.442   4.134
    1   AR   Ar   13   7.107   0.831   4.925
    1   AR   Ar   14   4.185   1.676   6.293
    1   AR   Ar   15   3.137   6.549   8.649
    1   AR   Ar   16   0.512   7.115   5.173
    1   AR   Ar   17   5.786   1.960   0.993
    1   AR   Ar   18   0.062   5.392  -0.638
    1   AR   Ar   19   4.163   3.990  -0.057
    1   AR   Ar   20   6.888   4.460  -2.935
    1   AR   Ar   21   2.834   2.076   1.840
    1   AR   Ar   22   5.445   1.239   2.659
    1   AR   Ar   23   0.286   6.150   0.849
    1   AR   Ar   24   5.241   2.693   2.687
    1   AR   Ar   25   0.893   2.501   3.742
    1   AR   Ar   26   5.652   6.511   4.657
    1   AR   Ar   27   1.434   0.695   2.202
    1   AR   Ar   28   1.881   2.886   3.861
    1   AR   Ar   29   5.335   1.494   7.238
    1   AR   Ar   30   1.189   0.949   3.497
    1   AR   Ar   31   3.485   0.259   7.379
    1   AR   Ar   32   0.670   2.638   6.088
    1   AR   Ar   33   0.421   4.308  -0.090
    1   AR   Ar   34   0.636   4.698   2.377
    1   AR   Ar   35   5.869   5.068   2.250
    1   AR   Ar   36   6.020   3.101  -2.601
    1   AR   Ar   37   4.232   2.884   1.936
    1   AR   Ar   38   6.759   4.381   3.786
    1   AR   Ar   39   0.189   3.305   3.194
    1   AR   Ar   40   1.608   4.688   1.863
    1   AR   Ar   41   0.129   2.158   3.009
    1   AR   Ar   42   5.987   5.225   4.714
    1   AR   Ar   43   6.758   2.533   5.608
    1   AR   Ar   44   0.751   4.127   3.499
    1   AR   Ar   45   0.382   3.627   5.322
    1   AR   Ar   46   0.590   4.546   5.923
    1   AR   Ar   47   3.198   5.447   7.140
    1   AR   Ar   48   5.979   3.270   7.413
    1   AR   Ar   49   6.350   0.134  -1.625
    1   AR   Ar   50   3.568   4.907   0.041
    1   AR   Ar   51   5.822   3.662   2.384
    1   AR   Ar   52   5.073   2.795  -1.678
    1   AR   Ar   53   5.543   6.351   2.527
    1   AR   Ar   54   0.522   0.101   2.223
    1   AR   Ar   55   6.785   4.535   2.674
    1   AR   Ar   56   0.076   0.665   3.226
    1   AR   Ar   57   4.015   4.580   3.386
    1   AR   Ar   58   0.402   3.513   4.267
    1   AR   Ar   59   3.020   5.492   6.098
    1   AR   Ar   60   7.095   5.302   3.371
    1   AR   Ar   61   7.069   3.758   6.693
    1   AR   Ar   62   6.821   4.420   4.963
    1   AR   Ar   63   1.779   2.093   6.292
    1   AR   Ar   64   0.378   5.482   5.252
    1   AR   Ar   65   3.398   0.039   1.426
    1   AR   Ar   66   0.462   1.101   0.939
    1   AR   Ar   67   4.909   0.391  -0.677
    1   AR   Ar   68   0.936   0.686  -0.930
    1   AR   Ar   69   2.537   1.014   0.172
    1   AR   Ar   70   0.821   1.371   2.517
    1   AR   Ar   71   2.715   1.107   2.457
    1   AR   Ar   72   4.438   0.642   1.399
    1   AR   Ar   73   3.169   0.498   3.819
    1   AR   Ar   74   1.059   1.052   4.714
    1   AR   Ar   75   3.371   0.686   4.815
    1   AR   Ar   76   2.020   0.438   1.397
    1   AR   Ar   77   1.554   0.272   5.360
    1   AR   Ar   78   7.108   5.785   6.182
    1   AR   Ar   79   3.930   6.491   6.766
    1   AR   Ar   80   4.050   5.571   5.819
    1   AR   Ar   81   1.247   6.545   0.672
    1   AR   Ar   82   6.694   4.461   0.687
    1   AR   Ar   83   1.104   3.136  -0.064
    1   AR   Ar   84   0.644   4.284   1.260
    1   AR   Ar   85   1.733   3.351   0.773
    1   AR   Ar   86   1.938   5.578   0.963
    1   AR   Ar   87   2.929   3.493   2.233
    1   AR   Ar   88   2.948   5.337   1.502
    1   AR   Ar   89   0.172   2.336   1.803
    1   AR   Ar   90   3.262   1.801   4.814
    1   AR   Ar   91   1.459   1.937   3.165
    1   AR   Ar   92   1.691   3.451   2.036
    1   AR   Ar   93   1.272   1.510   5.641
    1   AR   Ar   94   1.160   7.083   9.380
    1   AR   Ar   95   4.310   1.485   5.161
    1   AR   Ar   96   2.647   6.792   4.406
    1   AR   Ar   97   3.948   1.772  -0.631
    1   AR   Ar   98   1.948   4.200   3.937
    1   AR   Ar   99   6.722   1.396   0.301
    1   AR   Ar  100   0.485   3.165  -1.874
    1   AR   Ar  101   3.718   6.035   1.909
    1   AR   Ar  102   3.773   1.155   2.862
    1   AR   Ar  103   2.401   4.500   0.674
    1   AR   Ar  104   3.116   5.199  -1.074
    1   AR   Ar  105   2.627   1.530   3.760
    1   AR   Ar  106   3.712   2.446   5.745
    1   AR   Ar  107   1.350   4.374   4.888
    1   AR   Ar  108   2.200   1.090   4.940
    1   AR   Ar  109   1.361   3.250   4.839
    1   AR   Ar  110   2.413   2.456   4.582
    1   AR   Ar  111   5.060   6.381   7.392
    1   AR   Ar  112   0.927   6.416   5.863
    1   AR   Ar  113   3.727   4.132  -1.013
    1   AR   Ar  114   2.344   6.924  -1.800
    1   AR   Ar  115   1.623   4.955   0.250
    1   AR   Ar  116   4.195   0.940  -0.078
    1   AR   Ar  117   0.450   4.698   4.309
    1   AR   Ar  118   1.317   4.953   3.482
    1   AR   Ar  119   2.109   4.075   2.667
    1   AR   Ar  120   1.524   6.665   1.884
    1   AR   Ar  121   5.693   4.156   5.398
    1   AR   Ar  122   3.198   5.697   4.745
    1   AR   Ar  123   2.708   3.220   5.241
    1   AR   Ar  124   1.069   5.841   1.755
    1   AR   Ar  125   6.509   3.325   4.675
    1   AR   Ar  126   6.775   6.883   5.662
    1   AR   Ar  127   4.191   3.825   6.745
    1   AR   Ar  128   2.914   2.742   6.521
    1   AR   Ar  129   1.917   5.453   4.206
    1   AR   Ar  130   5.022   1.481  -3.948
    1   AR   Ar  131   4.812   4.611  -2.589
    1   AR   Ar  132   0.614   1.883  -0.113
    1   AR   Ar  133   4.433   0.359   4.325
    1   AR   Ar  134   3.972   1.238   3.982
    1   AR   Ar  135   6.333   1.745   3.550
    1   AR   Ar  136   6.665   6.709   2.446
    1   AR   Ar  137   2.387   4.004   5.986
    1   AR   Ar  138   5.465   1.479   5.942
    1   AR   Ar  139   5.559   2.482   5.609
    1   AR   Ar  140   4.083   6.562   4.927
    1   AR   Ar  141   3.902   4.978   4.803
    1   AR   Ar  142   4.711   0.050   6.411
    1   AR   Ar  143   6.343   6.656   6.954
    1   AR   Ar  144   6.480   1.752   5.100
    1   AR   Ar  145   4.511   4.931  -0.658
    1   AR   Ar  146   3.616   2.488   2.775
    1   AR   Ar  147   4.274   3.537  -1.685
    1   AR   Ar  148   3.138   6.364  -0.989
    1   AR   Ar  149   1.697   1.478  -0.529
    1   AR   Ar  150   2.448   2.542   2.818
    1   AR   Ar  151   3.171   2.597   3.750
    1   AR   Ar  152   1.480   2.827  -1.594
    1   AR   Ar  153   5.611   0.624   4.273
    1   AR   Ar  154   4.283   2.364   3.952
    1   AR   Ar  155   6.576   3.686   5.710
    1   AR   Ar  156   3.045   4.785   3.634
    1   AR   Ar  157   1.683   5.274   6.181
    1   AR   Ar  158   0.193   1.487   6.039
    1   AR   Ar  159   3.323   0.148   5.834
    1   AR   Ar  160   1.504   2.051   4.705
    1   AR   Ar  161   4.967   4.996   3.325
    1   AR   Ar  162   4.048   6.241  -0.606
    1   AR   Ar  163   5.699   4.799   0.967
    1   AR   Ar  164   2.019   5.598   2.157
    1   AR   Ar  165   3.594   3.084   0.781
    1   AR   Ar  166   2.677   3.473   4.221
    1   AR   Ar  167   5.713   6.760   3.520
    1   AR   Ar  168   5.633   3.895  -1.942
    1   AR   Ar  169   3.393   3.565   3.497
    1   AR   Ar  170   1.739   3.099   6.042
    1   AR   Ar  171   5.879   4.036   4.323
    1   AR   Ar  172   3.533   3.658   5.588
    1   AR   Ar  173   2.526   2.083   5.567
    1   AR   Ar  174   1.854   6.039   5.608
    1   AR   Ar  175   3.183   1.237   6.080
    1   AR   Ar  176   3.682   2.887   4.649
    1   AR   Ar  177   1.252   5.192  -0.877
    1   AR   Ar  178   2.806   5.907   0.388
    1   AR   Ar  179   3.184   0.022  -0.188
    1   AR   Ar  180   5.446   1.473  -5.682
    1   AR   Ar  181   6.997   5.650   1.947
    1   AR   Ar  182   0.950   5.634   2.793
    1   AR   Ar  183   4.739   5.254   2.222
    1   AR   Ar  184   4.153   6.866   0.283
    1   AR   Ar  185   2.650   4.796   4.683
    1   AR   Ar  186   2.261   5.365   3.204
    1   AR   Ar  187   3.681   6.680   3.715
    1   AR   Ar  188   2.462   0.070   2.329
    1   AR   Ar  189   5.246   3.468   6.286
    1   AR   Ar  190   2.791   6.160   3.606
    1   AR   Ar  191   2.475   6.251   7.943
    1   AR   Ar  192   4.484   4.918   6.564
    1   AR   Ar  193   2.590   6.357   1.649
    1   AR   Ar  194   5.351   4.226  -0.977
    1   AR   Ar  195   5.840   0.899   0.274
    1   AR   Ar  196   3.873   0.488  -0.881
    1   AR   Ar  197   4.268   1.492   0.907
    1   AR   Ar  198   5.457   0.193   1.878
    1   AR   Ar  199   2.183   0.353   3.575
    1   AR   Ar  200   4.703   3.150   0.599
    1   AR   Ar  201   6.380   5.890   2.884
    1   AR   Ar  202   5.506   1.717   4.593
    1   AR   Ar  203   0.186   6.460   3.375
    1   AR   Ar  204   5.452   6.188   6.493
    1   AR   Ar  205   6.481   1.456   1.718
    1   AR   Ar  206   6.249   0.751   5.599
    1   AR   Ar  207   0.496   1.965   5.177
    1   AR   Ar  208   0.611   5.902   4.112
    1   AR   Ar  209   7.034   2.267  -2.142
    1   AR   Ar  210   2.394   6.902   0.596
    1   AR   Ar  211   0.233   3.365   0.974
    1   AR   Ar  212   5.869   3.668  -0.006
    1   AR   Ar  213   3.282   1.172   1.314
    1   AR   Ar  214   4.640   4.099   2.311
    1   AR   Ar  215   6.621   2.825   2.544
    1   AR   Ar  216   1.357   2.263   0.557
    1   AR   Ar  217   5.248   1.714   3.472
    1   AR   Ar  218   5.148   3.367   4.287
    1   AR   Ar  219   4.458   3.560   3.333
    1   AR   Ar  220   4.445   3.929   1.222
    1   AR   Ar  221   6.438   6.109   4.026
    1   AR   Ar  222   5.447   7.059   5.560
    1   AR   Ar  223   6.090   1.828   6.703
    1   AR   Ar  224   4.769   2.371   4.888
    1   AR   Ar  225   6.307   3.430   3.560
    1   AR   Ar  226   1.496   3.346   3.073
    1   AR   Ar  227   0.566   3.617   1.994
    1   AR   Ar  228   6.383   0.304   1.375
    1   AR   Ar  229   6.221   5.086  -1.076
    1   AR   Ar  230   3.620   4.036   4.512
    1   AR   Ar  231   4.128   1.681   2.050
    1   AR   Ar  232   5.676   3.087   1.351
    1   AR   Ar  233   7.046   2.597   3.941
    1   AR   Ar  234   6.056   2.603   4.251
    1   AR   Ar  235   6.397   0.305   3.700
    1   AR   Ar  236   5.124   5.040   5.625
    1   AR   Ar  237   4.910   2.344   6.621
    1   AR   Ar  238   5.565   5.117   6.803
    1   AR   Ar  239   0.285   4.998  10.333
    1   AR   Ar  240   7.027   2.635   7.039
    1   AR   Ar  241   2.272   5.888  -0.425
    1   AR   Ar  242   5.357   6.417   1.438
    1   AR   Ar  243   4.227   5.912   3.027
    1   AR   Ar  244   0.440   5.115   0.585
    1   AR   Ar  245   3.724   0.061   2.487
    1   AR   Ar  246   6.088   6.450  -0.636
    1   AR   Ar  247   6.414   3.950   1.431
    1   AR   Ar  248   4.834   6.031   0.059
    1   AR   Ar  249   4.399   6.821   1.730
    1   AR   Ar  250   4.738   5.206   4.224
    1   AR   Ar  251   4.712   4.335   4.890
    1   AR   Ar  252   3.524   4.890   2.602
    1   AR   Ar  253   6.088   2.866   6.434
    1   AR   Ar  254   4.579   2.342   9.834
    1   AR   Ar  255   3.067   5.790  10.141
    1   AR   Ar  256   5.997   4.958   3.460
    7.12000  7.12000 12.00000
Argon-slab step 4330
  256
    1   AR   Ar    1   4.584   3.350  -2.723
    1   AR   Ar    2   5.803   6.805   0.619
    1   AR   Ar    3   3.847   2.488  -1.664
    1   AR   Ar    4   1.934   1.407   0.971
    1   AR   Ar    5   6.240   5.849   0.418
    1   AR   Ar    6   1.689   2.055   1.851
    1   AR   Ar    7   5.429   4.014   3.332
    1   AR   Ar    8   5.215   1.648  -0.139
    1   AR   Ar    9   0.592   0.384   4.185
    1   AR   Ar   10   6.870   6.915   4.446
    1   AR   Ar   11   1.404   6.551   4.679
    1   AR   Ar   12   0.160   1.449   4.101
    1   AR   Ar   13   7.109   0.838   4.913
    1   AR   Ar   14   4.174   1.668   6.289
    1   AR   Ar   15   3.131   6.554   8.615
    1   AR   Ar   16   0.543   7.108   5.145
    1   AR   Ar   17   5.808   1.970   1.011
    1   AR   Ar   18   0.060   5.426  -0.660
    1   AR   Ar   19   4.164   4.000  -0.042
    1   AR   Ar   20   6.861   4.439  -2.935
    1   AR   Ar   21   2.886   2.063   1.843
    1   AR   Ar   22   5.419   1.238   2.650
    1   AR   Ar   23   0.269   6.121   0.840
    1   AR   Ar   24   5.276   2.693   2.693
    1   AR   Ar   25   0.901   2.508   3.717
    1   AR   Ar   26   5.646   6.513   4.637
    1   AR   Ar   27   1.442   0.715   2.201
    1   AR   Ar   28   1.877   2.910   3.843
    1   AR   Ar   29   5.284   1.505   7.208
    1   AR   Ar   30   1.183   0.983   3.498
    1   AR   Ar   31   3.508   0.264   7.356
    1   AR   Ar   32   0.671   2.635   6.039
    1   AR   Ar   33   0.449   4.293  -0.087
    1   AR   Ar   34   0.620   4.672   2.354
    1   AR   Ar   35   5.833   5.030   2.275
    1   AR   Ar   36   6.010   3.106  -2.577
    1   AR   Ar   37   4.235   2.916   1.919
    1   AR   Ar   38   6.773   4.384   3.798
    1   AR   Ar   39   0.218   3.301   3.180
    1   AR   Ar   40   1.576   4.673   1.859
    1   AR   Ar   41   0.123   2.155   3.010
    1   AR   Ar   42   5.979   5.262   4.713
    1   AR   Ar   43   6.737   2.538   5.637
    1   AR   Ar   44   0.753   4.099   3.463
    1   AR   Ar   45   0.361   3.638   5.341
    1   AR   Ar   46   0.608   4.527   5.909
    1   AR   Ar   47   3.208   5.446   7.170
    1   AR   Ar   48   5.975   3.294   7.396
    1   AR   Ar   49   6.352   0.121  -1.599
    1   AR   Ar   50   3.589   4.899   0.040
    1   AR   Ar   51   5.848   3.656   2.402
    1   AR   Ar   52   5.090   2.786  -1.661
    1   AR   Ar   53   5.545   6.380   2.524
    1   AR   Ar   54   0.503   0.110   2.216
    1   AR   Ar   55   6.829   4.553   2.700
    1   AR   Ar   56   0.071   0.651   3.203
    1   AR   Ar   57   4.020   4.577   3.401
    1   AR   Ar   58   0.441   3.535   4.278
    1   AR   Ar   59   3.007   5.489   6.082
    1   AR   Ar   60   7.099   5.281   3.379
    1   AR   Ar   61   7.088   3.768   6.730
    1   AR   Ar   62   6.804   4.389   4.972
    1   AR   Ar   63   1.812   2.118   6.277
    1   AR   Ar   64   0.378   5.465   5.250
    1   AR   Ar   65   3.396   0.042   1.432
    1   AR   Ar   66   0.470   1.075   0.931
    1   AR   Ar   67   4.925   0.416  -0.701
    1   AR   Ar   68   0.963   0.718  -0.931
    1   AR   Ar   69   2.567   1.010   0.161
    1   AR   Ar   70   0.811   1.396   2.497
    1   AR   Ar   71   2.677   1.120   2.469
    1   AR   Ar   72   4.460   0.634   1.390
    1   AR   Ar   73   3.178   0.486   3.861
    1   AR   Ar   74   1.041   1.067   4.749
    1   AR   Ar   75   3.382   0.683   4.813
    1   AR   Ar   76   2.012   0.411   1.402
    1   AR   Ar   77   1.521   0.275   5.382
    1   AR   Ar   78   7.118   5.765   6.170
    1   AR   Ar   79   3.935   6.480   6.753
    1   AR   Ar   80   4.080   5.563   5.833
    1   AR   Ar   81   1.254   6.579   0.715
    1   AR   Ar   82   6.674   4.458   0.693
    1   AR   Ar   83   1.099   3.115  -0.047
    1   AR   Ar   84   0.652   4.259   1.245
    1   AR   Ar   85   1.758   3.371   0.787
    1   AR   Ar   86   1.939   5.548   0.950
    1   AR   Ar   87   2.944   3.498   2.221
    1   AR   Ar   88   2.943   5.357   1.476
    1   AR   Ar   89   0.152   2.317   1.812
    1   AR   Ar   90   3.268   1.787   4.830
    1   AR   Ar   91   1.460   1.923   3.146
    1   AR   Ar   92   1.707   3.457   2.008
    1   AR   Ar   93   1.291   1.509   5.655
    1   AR   Ar   94   1.143   7.085   9.352
    1   AR   Ar   95   4.306   1.430   5.130
    1   AR   Ar   96   2.644   6.811   4.408
    1   AR   Ar   97   3.947   1.781  -0.649
    1   AR   Ar   98   1.950   4.184   3.915
    1   AR   Ar   99   6.729   1.388   0.299
    1   AR   Ar  100   0.497   3.169  -1.880
    1   AR   Ar  101   3.683   6.062   1.895
    1   AR   Ar  102   3.784   1.142   2.864
    1   AR   Ar  103   2.386   4.539   0.672
    1   AR   Ar  104   3.123   5.201  -1.076
    1   AR   Ar  105   2.648   1.511   3.773
    1   AR   Ar  106   3.657   2.489   5.733
    1   AR   Ar  107   1.340   4.383   4.886
    1   AR   Ar  108   2.224   1.100   4.930
    1   AR   Ar  109   1.341   3.240   4.853
    1   AR   Ar  110   2.417   2.436   4.570
    1   AR   Ar  111   5.042   6.380   7.432
    1   AR   Ar  112   0.917   6.381   5.822
    1   AR   Ar  113   3.726   4.166  -1.038
    1   AR   Ar  114   2.363   6.914  -1.801
    1   AR   Ar  115   1.602   4.926   0.247
    1   AR   Ar  116   4.181   0.946  -0.060
    1   AR   Ar  117   0.447   4.698   4.345
    1   AR   Ar  118   1.306   4.976   3.483
    1   AR   Ar  119   2.088   4.085   2.655
    1   AR   Ar  120   1.531   6.658   1.871
    1   AR   Ar  121   5.686   4.172   5.419
    1   AR   Ar  122   3.201   5.710   4.675
    1   AR   Ar  123   2.722   3.193   5.263
    1   AR   Ar  124   1.065   5.818   1.715
    1   AR   Ar  125   6.531   3.328   4.675
    1   AR   Ar  126   6.802   6.936   5.665
    1   AR   Ar  127   4.193   3.803   6.728
    1   AR   Ar  128   2.933   2.781   6.532
    1   AR   Ar  129   1.894   5.447   4.228
    1   AR   Ar  130   5.004   1.469  -3.936
    1   AR   Ar  131   4.817   4.635  -2.594
    1   AR   Ar  132   0.626   1.888  -0.117
    1   AR   Ar  133   4.436   0.352   4.337
    1   AR   Ar  134   3.937   1.238   3.960
    1   AR   Ar  135   6.333   1.743   3.555
    1   AR   Ar  136   6.648   6.723   2.433
    1   AR   Ar  137   2.396   4.002   6.007
    1   AR   Ar  138   5.455   1.495   5.947
    1   AR   Ar  139   5.582   2.487   5.600
    1   AR   Ar  140   4.078   6.535   4.929
    1   AR   Ar  141   3.899   4.963   4.831
    1   AR   Ar  142   4.734   0.065   6.435
    1   AR   Ar  143   6.354   6.647   6.941
    1   AR   Ar  144   6.460   1.745   5.106
    1   AR   Ar  145   4.537   4.947  -0.629
    1   AR   Ar  146   3.651   2.485   2.769
    1   AR   Ar  147   4.272   3.566  -1.715
    1   AR   Ar  148   3.129   6.348  -0.948
    1   AR   Ar  149   1.738   1.444  -0.507
    1   AR   Ar  150   2.443   2.558   2.841
    1   AR   Ar  151   3.135   2.578   3.744
    1   AR   Ar  152   1.476   2.829  -1.604
    1   AR   Ar  153   5.611   0.642   4.274
    1   AR   Ar  154   4.295   2.370   3.958
    1   AR   Ar  155   6.581   3.667   5.705
    1   AR   Ar  156   3.048   4.783   3.615
    1   AR   Ar  157   1.671   5.259   6.209
    1   AR   Ar  158   0.182   1.456   6.039
    1   AR   Ar  159   3.353   0.147   5.840
    1   AR   Ar  160   1.504   2.063   4.741
    1   AR   Ar  161   4.958   4.998   3.301
    1   AR   Ar  162   4.068   6.278  -0.582
    1   AR   Ar  163   5.691   4.802   0.976
    1   AR   Ar  164   2.003   5.638   2.165
    1   AR   Ar  165   3.595   3.099   0.789
    1   AR   Ar  166   2.671   3.469   4.209
    1   AR   Ar  167   5.727   6.710   3.549
    1   AR   Ar  168   5.626   3.902  -1.956
    1   AR   Ar  169   3.423   3.559   3.494
    1   AR   Ar  170   1.738   3.091   6.048
    1   AR   Ar  171   5.859   4.053   4.304
    1   AR   Ar  172   3.578   3.673   5.591
    1   AR   Ar  173   2.512   2.091   5.555
    1   AR   Ar  174   1.824   6.071   5.576
    1   AR   Ar  175   3.161   1.218   6.096
    1   AR   Ar  176   3.719   2.886   4.667
    1   AR   Ar  177   1.290   5.209  -0.865
    1   AR   Ar  178   2.803   5.917   0.406
    1   AR   Ar  179   3.158   0.034  -0.178
    1   AR   Ar  180   5.457   1.463  -5.705
    1   AR   Ar  181   6.966   5.626   1.944
    1   AR   Ar  182   0.940   5.653   2.783
    1   AR   Ar  183   4.743   5.265   2.216
    1   AR   Ar  184   4.130   6.868   0.287
    1   AR   Ar  185   2.655   4.801   4.674
    1   AR   Ar  186   2.255   5.375   3.203
    1   AR   Ar  187   3.679   6.692   3.747
    1   AR   Ar  188   2.463   0.081   2.345
    1   AR   Ar  189   5.275   3.476   6.306
    1   AR   Ar  190   2.746   6.177   3.600
    1   AR   Ar  191   2.497   6.242   7.945
    1   AR   Ar  192   4.481   4.924   6.582
    1   AR   Ar  193   2.585   6.355   1.647
    1   AR   Ar  194   5.356   4.262  -0.967
    1   AR   Ar  195   5.811   0.931   0.285
    1   AR   Ar  196   3.866   0.440  -0.856
    1   AR   Ar  197   4.259   1.515   0.904
    1   AR   Ar  198   5.437   0.188   1.843
    1   AR   Ar  199   2.198   0.339   3.587
    1   AR   Ar  200   4.692   3.167   0.576
    1   AR   Ar  201   6.401   5.894   2.840
    1   AR   Ar  202   5.529   1.670   4.622
    1   AR   Ar  203   0.197   6.463   3.392
    1   AR   Ar  204   5.455   6.216   6.491
    1   AR   Ar  205   6.467   1.453   1.736
    1   AR   Ar  206   6.219   0.749   5.603
    1   AR   Ar  207   0.518   1.997   5.169
    1   AR   Ar  208   0.635   5.857   4.095
    1   AR   Ar  209   7.039   2.240  -2.155
    1   AR   Ar  210   2.363   6.905   0.569
    1   AR   Ar  211   0.257   3.338   0.982
    1   AR   Ar  212   5.847   3.639   0.008
    1   AR   Ar  213   3.277   1.187   1.316
    1   AR   Ar  214   4.652   4.088   2.353
    1   AR   Ar  215   6.628   2.819   2.528
    1   AR   Ar  216   1.379   2.278   0.568
    1   AR   Ar  217   5.243   1.720   3.481
    1   AR   Ar  218   5.152   3.372   4.256
    1   AR   Ar  219   4.464   3.555   3.317
    1   AR   Ar  220   4.473   3.946   1.201
    1   AR   Ar  221   6.427   6.103   4.022
    1   AR   Ar  222   5.453   0.004   5.559
    1   AR   Ar  223   6.114   1.807   6.697
    1   AR   Ar  224   4.774   2.367   4.863
    1   AR   Ar  225   6.336   3.448   3.585
    1   AR   Ar  226   1.472   3.337   3.065
    1   AR   Ar  227   0.589   3.595   2.003
    1   AR   Ar  228   6.455   0.313   1.383
    1   AR   Ar  229   6.220   5.062  -1.069
    1   AR   Ar  230   3.623   4.030   4.545
    1   AR   Ar  231   4.117   1.689   2.044
    1   AR   Ar  232   5.661   3.071   1.346
    1   AR   Ar  233   7.041   2.586   3.943
    1   AR   Ar  234   6.036   2.593   4.280
    1   AR   Ar  235   6.398   0.294   3.689
    1   AR   Ar  236   5.138   5.027   5.620
    1   AR   Ar  237   4.898   2.366   6.635
    1   AR   Ar  238   5.575   5.098   6.767
    1   AR   Ar  239   0.294   5.028  10.326
    1   AR   Ar  240   7.033   2.619   7.028
    1   AR   Ar  241   2.291   5.905  -0.451
    1   AR   Ar  242   5.378   6.414   1.441
    1   AR   Ar  243   4.234   5.931   3.027
    1   AR   Ar  244   0.422   5.119   0.581
    1   AR   Ar  245   3.753   0.038   2.480
    1   AR   Ar  246   6.057   6.418  -0.656
    1   AR   Ar  247   6.443   3.958   1.464
    1   AR   Ar  248   4.826   6.020   0.080
    1   AR   Ar  249   4.370   6.817   1.708
    1   AR   Ar  250   4.752   5.179   4.256
    1   AR   Ar  251   4.701   4.312   4.904
    1   AR   Ar  252   3.506   4.859   2.613
    1   AR   Ar  253   6.096   2.858   6.430
    1   AR   Ar  254   4.608   2.345   9.827
    1   AR   Ar  255   3.035   5.769  10.138
    1   AR   Ar  256   6.025   4.987   3.478
    7.12000  7.12000 12.00000
Argon-slab step 4335
  256
    1   AR   Ar    1   4.604   3.353  -2.664
    1   AR   Ar    2   5.821   6.800   0.653
    1   AR   Ar    3   3.834   2.475  -1.653
    1   AR   Ar    4   1.937   1.398   0.916
    1   AR   Ar    5   6.225   5.896   0.404
    1   AR   Ar    6   1.691   2.048   1.862
    1   AR   Ar    7   5.426   4.049   3.317
    1   AR   Ar    8   5.223   1.603  -0.145
    1   AR   Ar    9   0.586   0.374   4.191
    1   AR   Ar   10   6.836   6.945   4.462
    1   AR   Ar   11   1.359   6.540   4.691
    1   AR   Ar   12   0.192   1.460   4.064
    1   AR   Ar   13   7.105   0.847   4.908
    1   AR   Ar   14   4.162   1.658   6.284
    1   AR   Ar   15   3.154   6.555   8.599
    1   AR   Ar   16   0.579   7.099   5.117
    1   AR   Ar   17   5.831   1.979   1.029
    1   AR   Ar   18   0.051   5.431  -0.648
    1   AR   Ar   19   4.165   4.003  -0.028
    1   AR   Ar   20   6.833   4.416  -2.935
    1   AR   Ar   21   2.938   2.050   1.847
    1   AR   Ar   22   5.397   1.230   2.629
    1   AR   Ar   23   0.267   6.115   0.838
    1   AR   Ar   24   5.312   2.694   2.699
    1   AR   Ar   25   0.909   2.521   3.699
    1   AR   Ar   26   5.639   6.516   4.617
    1   AR   Ar   27   1.459   0.726   2.200
    1   AR   Ar   28   1.876   2.929   3.830
    1   AR   Ar   29   5.227   1.513   7.179
    1   AR   Ar   30   1.176   1.013   3.500
    1   AR   Ar   31   3.532   0.268   7.333
    1   AR   Ar   32   0.672   2.632   5.990
    1   AR   Ar   33   0.477   4.276  -0.084
    1   AR   Ar   34   0.614   4.647   2.327
    1   AR   Ar   35   5.799   4.993   2.301
    1   AR   Ar   36   5.999   3.111  -2.546
    1   AR   Ar   37   4.239   2.949   1.903
    1   AR   Ar   38   6.796   4.382   3.810
    1   AR   Ar   39   0.246   3.291   3.164
    1   AR   Ar   40   1.544   4.659   1.853
    1   AR   Ar   41   0.122   2.147   3.011
    1   AR   Ar   42   5.969   5.299   4.711
    1   AR   Ar   43   6.719   2.550   5.669
    1   AR   Ar   44   0.759   4.078   3.425
    1   AR   Ar   45   0.355   3.644   5.356
    1   AR   Ar   46   0.626   4.509   5.894
    1   AR   Ar   47   3.219   5.446   7.201
    1   AR   Ar   48   5.965   3.306   7.388
    1   AR   Ar   49   6.353   0.108  -1.572
    1   AR   Ar   50   3.607   4.893   0.037
    1   AR   Ar   51   5.875   3.650   2.419
    1   AR   Ar   52   5.106   2.779  -1.646
    1   AR   Ar   53   5.542   6.409   2.518
    1   AR   Ar   54   0.483   0.118   2.210
    1   AR   Ar   55   6.819   4.581   2.759
    1   AR   Ar   56   0.076   0.641   3.176
    1   AR   Ar   57   4.017   4.563   3.410
    1   AR   Ar   58   0.477   3.556   4.290
    1   AR   Ar   59   2.992   5.486   6.064
    1   AR   Ar   60   7.109   5.266   3.389
    1   AR   Ar   61   7.106   3.777   6.765
    1   AR   Ar   62   6.782   4.361   4.979
    1   AR   Ar   63   1.843   2.139   6.272
    1   AR   Ar   64   0.380   5.446   5.243
    1   AR   Ar   65   3.423   0.034   1.446
    1   AR   Ar   66   0.479   1.049   0.925
    1   AR   Ar   67   4.944   0.441  -0.724
    1   AR   Ar   68   0.991   0.751  -0.931
    1   AR   Ar   69   2.598   1.005   0.150
    1   AR   Ar   70   0.789   1.431   2.479
    1   AR   Ar   71   2.639   1.136   2.481
    1   AR   Ar   72   4.485   0.633   1.380
    1   AR   Ar   73   3.188   0.475   3.894
    1   AR   Ar   74   1.027   1.087   4.785
    1   AR   Ar   75   3.395   0.683   4.822
    1   AR   Ar   76   2.008   0.381   1.402
    1   AR   Ar   77   1.491   0.279   5.406
    1   AR   Ar   78   0.007   5.747   6.162
    1   AR   Ar   79   3.931   6.460   6.727
    1   AR   Ar   80   4.110   5.556   5.843
    1   AR   Ar   81   1.263   6.613   0.760
    1   AR   Ar   82   6.662   4.465   0.679
    1   AR   Ar   83   1.089   3.101  -0.051
    1   AR   Ar   84   0.662   4.245   1.226
    1   AR   Ar   85   1.782   3.391   0.803
    1   AR   Ar   86   1.942   5.525   0.947
    1   AR   Ar   87   2.959   3.502   2.210
    1   AR   Ar   88   2.937   5.374   1.450
    1   AR   Ar   89   0.134   2.297   1.820
    1   AR   Ar   90   3.274   1.787   4.863
    1   AR   Ar   91   1.471   1.909   3.120
    1   AR   Ar   92   1.717   3.454   1.970
    1   AR   Ar   93   1.311   1.502   5.670
    1   AR   Ar   94   1.127   7.088   9.323
    1   AR   Ar   95   4.301   1.374   5.099
    1   AR   Ar   96   2.641   6.833   4.414
    1   AR   Ar   97   3.948   1.787  -0.668
    1   AR   Ar   98   1.957   4.144   3.910
    1   AR   Ar   99   6.741   1.384   0.298
    1   AR   Ar  100   0.506   3.173  -1.887
    1   AR   Ar  101   3.645   6.086   1.884
    1   AR   Ar  102   3.761   1.163   2.848
    1   AR   Ar  103   2.409   4.542   0.667
    1   AR   Ar  104   3.130   5.203  -1.077
    1   AR   Ar  105   2.670   1.494   3.787
    1   AR   Ar  106   3.601   2.532   5.718
    1   AR   Ar  107   1.330   4.393   4.883
    1   AR   Ar  108   2.248   1.112   4.920
    1   AR   Ar  109   1.326   3.217   4.873
    1   AR   Ar  110   2.431   2.416   4.557
    1   AR   Ar  111   5.021   6.381   7.475
    1   AR   Ar  112   0.896   6.348   5.784
    1   AR   Ar  113   3.724   4.202  -1.062
    1   AR   Ar  114   2.383   6.905  -1.801
    1   AR   Ar  115   1.565   4.898   0.230
    1   AR   Ar  116   4.172   0.954  -0.030
    1   AR   Ar  117   0.452   4.703   4.382
    1   AR   Ar  118   1.293   4.999   3.486
    1   AR   Ar  119   2.078   4.095   2.649
    1   AR   Ar  120   1.545   6.665   1.860
    1   AR   Ar  121   5.679   4.184   5.437
    1   AR   Ar  122   3.202   5.730   4.604
    1   AR   Ar  123   2.734   3.170   5.284
    1   AR   Ar  124   1.051   5.781   1.667
    1   AR   Ar  125   6.563   3.341   4.682
    1   AR   Ar  126   6.825   6.986   5.671
    1   AR   Ar  127   4.194   3.782   6.710
    1   AR   Ar  128   2.950   2.820   6.540
    1   AR   Ar  129   1.872   5.443   4.252
    1   AR   Ar  130   4.986   1.457  -3.924
    1   AR   Ar  131   4.823   4.658  -2.597
    1   AR   Ar  132   0.637   1.892  -0.121
    1   AR   Ar  133   4.439   0.345   4.349
    1   AR   Ar  134   3.902   1.243   3.940
    1   AR   Ar  135   6.334   1.740   3.561
    1   AR   Ar  136   6.617   6.745   2.435
    1   AR   Ar  137   2.407   4.000   6.026
    1   AR   Ar  138   5.441   1.509   5.949
    1   AR   Ar  139   5.601   2.512   5.592
    1   AR   Ar  140   4.052   6.525   4.911
    1   AR   Ar  141   3.886   4.949   4.850
    1   AR   Ar  142   4.758   0.079   6.459
    1   AR   Ar  143   6.365   6.638   6.927
    1   AR   Ar  144   6.441   1.730   5.107
    1   AR   Ar  145   4.562   4.964  -0.600
    1   AR   Ar  146   3.686   2.481   2.763
    1   AR   Ar  147   4.272   3.594  -1.745
    1   AR   Ar  148   3.115   6.334  -0.910
    1   AR   Ar  149   1.779   1.411  -0.484
    1   AR   Ar  150   2.429   2.573   2.860
    1   AR   Ar  151   3.099   2.555   3.739
    1   AR   Ar  152   1.473   2.829  -1.613
    1   AR   Ar  153   5.608   0.659   4.278
    1   AR   Ar  154   4.305   2.390   3.963
    1   AR   Ar  155   6.573   3.644   5.710
    1   AR   Ar  156   3.044   4.781   3.601
    1   AR   Ar  157   1.658   5.239   6.240
    1   AR   Ar  158   0.169   1.425   6.038
    1   AR   Ar  159   3.383   0.170   5.865
    1   AR   Ar  160   1.499   2.073   4.775
    1   AR   Ar  161   4.953   5.000   3.264
    1   AR   Ar  162   4.091   6.313  -0.560
    1   AR   Ar  163   5.683   4.806   0.986
    1   AR   Ar  164   1.987   5.678   2.174
    1   AR   Ar  165   3.597   3.115   0.799
    1   AR   Ar  166   2.668   3.466   4.202
    1   AR   Ar  167   5.731   6.654   3.575
    1   AR   Ar  168   5.617   3.910  -1.971
    1   AR   Ar  169   3.448   3.558   3.490
    1   AR   Ar  170   1.736   3.092   6.050
    1   AR   Ar  171   5.846   4.083   4.288
    1   AR   Ar  172   3.626   3.689   5.595
    1   AR   Ar  173   2.502   2.100   5.541
    1   AR   Ar  174   1.806   6.103   5.538
    1   AR   Ar  175   3.138   1.200   6.109
    1   AR   Ar  176   3.753   2.886   4.689
    1   AR   Ar  177   1.328   5.225  -0.852
    1   AR   Ar  178   2.808   5.926   0.432
    1   AR   Ar  179   3.130   0.045  -0.166
    1   AR   Ar  180   5.468   1.453  -5.727
    1   AR   Ar  181   6.947   5.606   1.943
    1   AR   Ar  182   0.959   5.679   2.763
    1   AR   Ar  183   4.747   5.254   2.224
    1   AR   Ar  184   4.108   6.873   0.294
    1   AR   Ar  185   2.660   4.801   4.665
    1   AR   Ar  186   2.247   5.381   3.198
    1   AR   Ar  187   3.680   6.702   3.780
    1   AR   Ar  188   2.464   0.090   2.361
    1   AR   Ar  189   5.300   3.487   6.324
    1   AR   Ar  190   2.702   6.195   3.593
    1   AR   Ar  191   2.526   6.213   7.914
    1   AR   Ar  192   4.478   4.929   6.600
    1   AR   Ar  193   2.620   6.329   1.640
    1   AR   Ar  194   5.361   4.299  -0.955
    1   AR   Ar  195   5.780   0.954   0.300
    1   AR   Ar  196   3.857   0.386  -0.840
    1   AR   Ar  197   4.250   1.544   0.897
    1   AR   Ar  198   5.416   0.195   1.814
    1   AR   Ar  199   2.207   0.325   3.596
    1   AR   Ar  200   4.683   3.180   0.549
    1   AR   Ar  201   6.418   5.879   2.809
    1   AR   Ar  202   5.551   1.621   4.650
    1   AR   Ar  203   0.181   6.507   3.374
    1   AR   Ar  204   5.457   6.244   6.484
    1   AR   Ar  205   6.454   1.450   1.754
    1   AR   Ar  206   6.190   0.750   5.607
    1   AR   Ar  207   0.534   2.031   5.154
    1   AR   Ar  208   0.661   5.809   4.083
    1   AR   Ar  209   7.044   2.213  -2.169
    1   AR   Ar  210   2.332   6.909   0.542
    1   AR   Ar  211   0.279   3.307   0.989
    1   AR   Ar  212   5.824   3.610   0.024
    1   AR   Ar  213   3.241   1.181   1.321
    1   AR   Ar  214   4.665   4.078   2.396
    1   AR   Ar  215   6.628   2.817   2.510
    1   AR   Ar  216   1.401   2.292   0.582
    1   AR   Ar  217   5.232   1.730   3.496
    1   AR   Ar  218   5.146   3.367   4.224
    1   AR   Ar  219   4.472   3.548   3.301
    1   AR   Ar  220   4.499   3.968   1.185
    1   AR   Ar  221   6.419   6.087   4.014
    1   AR   Ar  222   5.457   0.068   5.557
    1   AR   Ar  223   6.146   1.789   6.689
    1   AR   Ar  224   4.780   2.367   4.843
    1   AR   Ar  225   6.366   3.461   3.607
    1   AR   Ar  226   1.439   3.331   3.048
    1   AR   Ar  227   0.610   3.568   2.020
    1   AR   Ar  228   6.527   0.322   1.391
    1   AR   Ar  229   6.217   5.038  -1.062
    1   AR   Ar  230   3.624   4.019   4.574
    1   AR   Ar  231   4.106   1.700   2.033
    1   AR   Ar  232   5.646   3.055   1.343
    1   AR   Ar  233   7.029   2.577   3.951
    1   AR   Ar  234   6.005   2.571   4.304
    1   AR   Ar  235   6.402   0.290   3.679
    1   AR   Ar  236   5.128   5.044   5.633
    1   AR   Ar  237   4.891   2.391   6.647
    1   AR   Ar  238   5.583   5.081   6.729
    1   AR   Ar  239   0.312   5.005  10.336
    1   AR   Ar  240   7.038   2.603   7.014
    1   AR   Ar  241   2.303   5.921  -0.485
    1   AR   Ar  242   5.396   6.396   1.445
    1   AR   Ar  243   4.240   5.950   3.027
    1   AR   Ar  244   0.406   5.123   0.577
    1   AR   Ar  245   3.779   0.016   2.476
    1   AR   Ar  246   6.026   6.385  -0.675
    1   AR   Ar  247   6.467   3.954   1.517
    1   AR   Ar  248   4.823   6.007   0.105
    1   AR   Ar  249   4.348   6.804   1.687
    1   AR   Ar  250   4.766   5.155   4.296
    1   AR   Ar  251   4.693   4.284   4.917
    1   AR   Ar  252   3.481   4.832   2.611
    1   AR   Ar  253   6.110   2.849   6.428
    1   AR   Ar  254   4.637   2.347   9.820
    1   AR   Ar  255   3.004   5.748  10.135
    1   AR   Ar  256   6.040   5.025   3.480
    7.12000  7.12000 12.00000
Argon-slab step 4340
  256
    1   AR   Ar    1   4.629   3.354  -2.612
    1   AR   Ar    2   5.820   6.805   0.652
    1   AR   Ar    3   3.821   2.463  -1.640
    1   AR   Ar    4   1.940   1.389   0.863
    1   AR   Ar    5   6.213   5.936   0.389
    1   AR   Ar    6   1.690   2.022   1.833
    1   AR   Ar    7   5.425   4.083   3.301
    1   AR   Ar    8   5.219   1.570  -0.159
    1   AR   Ar    9   0.581   0.362   4.182
    1   AR   Ar   10   6.815   6.963   4.485
    1   AR   Ar   11   1.316   6.527   4.699
    1   AR   Ar   12   0.227   1.473   4.024
    1   AR   Ar   13   7.096   0.857   4.908
    1   AR   Ar   14   4.150   1.648   6.276
    1   AR   Ar   15   3.183   6.560   8.590
    1   AR   Ar   16   0.608   7.088   5.091
    1   AR   Ar   17   5.852   1.988   1.044
    1   AR   Ar   18   0.041   5.428  -0.625
    1   AR   Ar   19   4.167   4.004  -0.013
    1   AR   Ar   20   6.805   4.394  -2.935
    1   AR   Ar   21   2.989   2.040   1.855
    1   AR   Ar   22   5.376   1.218   2.600
    1   AR   Ar   23   0.269   6.119   0.840
    1   AR   Ar   24   5.348   2.696   2.705
    1   AR   Ar   25   0.915   2.538   3.684
    1   AR   Ar   26   5.624   6.519   4.605
    1   AR   Ar   27   1.479   0.733   2.202
    1   AR   Ar   28   1.877   2.943   3.824
    1   AR   Ar   29   5.169   1.520   7.151
    1   AR   Ar   30   1.166   1.039   3.504
    1   AR   Ar   31   3.556   0.272   7.308
    1   AR   Ar   32   0.673   2.632   5.945
    1   AR   Ar   33   0.505   4.259  -0.081
    1   AR   Ar   34   0.611   4.624   2.301
    1   AR   Ar   35   5.766   4.954   2.329
    1   AR   Ar   36   5.989   3.114  -2.515
    1   AR   Ar   37   4.234   2.960   1.925
    1   AR   Ar   38   6.828   4.377   3.822
    1   AR   Ar   39   0.267   3.270   3.144
    1   AR   Ar   40   1.529   4.651   1.859
    1   AR   Ar   41   0.123   2.135   3.011
    1   AR   Ar   42   5.960   5.333   4.708
    1   AR   Ar   43   6.709   2.564   5.698
    1   AR   Ar   44   0.770   4.070   3.388
    1   AR   Ar   45   0.365   3.646   5.366
    1   AR   Ar   46   0.644   4.495   5.879
    1   AR   Ar   47   3.230   5.447   7.231
    1   AR   Ar   48   5.947   3.299   7.394
    1   AR   Ar   49   6.355   0.094  -1.545
    1   AR   Ar   50   3.623   4.891   0.034
    1   AR   Ar   51   5.896   3.636   2.429
    1   AR   Ar   52   5.121   2.774  -1.631
    1   AR   Ar   53   5.537   6.440   2.513
    1   AR   Ar   54   0.465   0.127   2.204
    1   AR   Ar   55   6.796   4.598   2.809
    1   AR   Ar   56   0.089   0.634   3.144
    1   AR   Ar   57   4.022   4.543   3.427
    1   AR   Ar   58   0.511   3.576   4.300
    1   AR   Ar   59   2.977   5.484   6.045
    1   AR   Ar   60   0.007   5.267   3.407
    1   AR   Ar   61   0.003   3.785   6.798
    1   AR   Ar   62   6.770   4.335   4.966
    1   AR   Ar   63   1.870   2.154   6.282
    1   AR   Ar   64   0.385   5.450   5.262
    1   AR   Ar   65   3.442   0.029   1.458
    1   AR   Ar   66   0.489   1.024   0.919
    1   AR   Ar   67   4.963   0.467  -0.745
    1   AR   Ar   68   1.019   0.784  -0.931
    1   AR   Ar   69   2.630   0.998   0.140
    1   AR   Ar   70   0.760   1.470   2.463
    1   AR   Ar   71   2.602   1.154   2.494
    1   AR   Ar   72   4.510   0.638   1.368
    1   AR   Ar   73   3.196   0.466   3.913
    1   AR   Ar   74   1.014   1.107   4.817
    1   AR   Ar   75   3.412   0.685   4.845
    1   AR   Ar   76   2.009   0.352   1.397
    1   AR   Ar   77   1.478   0.281   5.415
    1   AR   Ar   78   7.099   5.734   6.167
    1   AR   Ar   79   3.926   6.438   6.698
    1   AR   Ar   80   4.108   5.561   5.854
    1   AR   Ar   81   1.273   6.645   0.806
    1   AR   Ar   82   6.654   4.476   0.656
    1   AR   Ar   83   1.076   3.092  -0.068
    1   AR   Ar   84   0.676   4.240   1.201
    1   AR   Ar   85   1.805   3.412   0.819
    1   AR   Ar   86   1.945   5.507   0.951
    1   AR   Ar   87   2.974   3.505   2.200
    1   AR   Ar   88   2.930   5.384   1.421
    1   AR   Ar   89   0.115   2.294   1.818
    1   AR   Ar   90   3.281   1.787   4.895
    1   AR   Ar   91   1.492   1.899   3.090
    1   AR   Ar   92   1.725   3.446   1.925
    1   AR   Ar   93   1.332   1.493   5.690
    1   AR   Ar   94   1.110   7.090   9.295
    1   AR   Ar   95   4.293   1.334   5.077
    1   AR   Ar   96   2.637   6.855   4.426
    1   AR   Ar   97   3.926   1.774  -0.656
    1   AR   Ar   98   1.958   4.108   3.902
    1   AR   Ar   99   6.756   1.381   0.297
    1   AR   Ar  100   0.513   3.177  -1.894
    1   AR   Ar  101   3.606   6.108   1.875
    1   AR   Ar  102   3.735   1.180   2.834
    1   AR   Ar  103   2.446   4.535   0.664
    1   AR   Ar  104   3.138   5.205  -1.075
    1   AR   Ar  105   2.692   1.476   3.802
    1   AR   Ar  106   3.545   2.573   5.702
    1   AR   Ar  107   1.321   4.400   4.882
    1   AR   Ar  108   2.272   1.125   4.909
    1   AR   Ar  109   1.314   3.193   4.893
    1   AR   Ar  110   2.450   2.397   4.541
    1   AR   Ar  111   5.000   6.381   7.517
    1   AR   Ar  112   0.862   6.316   5.750
    1   AR   Ar  113   3.721   4.241  -1.082
    1   AR   Ar  114   2.404   6.894  -1.799
    1   AR   Ar  115   1.517   4.868   0.207
    1   AR   Ar  116   4.165   0.961   0.004
    1   AR   Ar  117   0.464   4.712   4.418
    1   AR   Ar  118   1.277   5.018   3.491
    1   AR   Ar  119   2.073   4.114   2.651
    1   AR   Ar  120   1.561   6.675   1.851
    1   AR   Ar  121   5.678   4.183   5.443
    1   AR   Ar  122   3.201   5.755   4.530
    1   AR   Ar  123   2.754   3.172   5.294
    1   AR   Ar  124   1.032   5.738   1.616
    1   AR   Ar  125   6.591   3.351   4.688
    1   AR   Ar  126   6.844   7.035   5.677
    1   AR   Ar  127   4.196   3.760   6.690
    1   AR   Ar  128   2.965   2.860   6.547
    1   AR   Ar  129   1.878   5.451   4.236
    1   AR   Ar  130   4.969   1.445  -3.912
    1   AR   Ar  131   4.829   4.678  -2.599
    1   AR   Ar  132   0.649   1.895  -0.124
    1   AR   Ar  133   4.441   0.337   4.362
    1   AR   Ar  134   3.869   1.251   3.922
    1   AR   Ar  135   6.335   1.738   3.568
    1   AR   Ar  136   6.589   6.783   2.431
    1   AR   Ar  137   2.418   3.998   6.044
    1   AR   Ar  138   5.424   1.521   5.949
    1   AR   Ar  139   5.613   2.563   5.586
    1   AR   Ar  140   4.022   6.518   4.888
    1   AR   Ar  141   3.841   4.925   4.822
    1   AR   Ar  142   4.782   0.093   6.484
    1   AR   Ar  143   6.376   6.629   6.913
    1   AR   Ar  144   6.429   1.713   5.109
    1   AR   Ar  145   4.570   4.977  -0.590
    1   AR   Ar  146   3.719   2.477   2.758
    1   AR   Ar  147   4.272   3.623  -1.768
    1   AR   Ar  148   3.103   6.325  -0.877
    1   AR   Ar  149   1.819   1.378  -0.460
    1   AR   Ar  150   2.404   2.587   2.870
    1   AR   Ar  151   3.065   2.530   3.734
    1   AR   Ar  152   1.464   2.818  -1.602
    1   AR   Ar  153   5.604   0.650   4.274
    1   AR   Ar  154   4.313   2.408   3.956
    1   AR   Ar  155   6.551   3.619   5.727
    1   AR   Ar  156   3.033   4.778   3.591
    1   AR   Ar  157   1.645   5.219   6.269
    1   AR   Ar  158   0.143   1.468   6.057
    1   AR   Ar  159   3.414   0.192   5.889
    1   AR   Ar  160   1.493   2.084   4.808
    1   AR   Ar  161   4.952   5.005   3.224
    1   AR   Ar  162   4.114   6.348  -0.545
    1   AR   Ar  163   5.673   4.810   0.997
    1   AR   Ar  164   1.972   5.714   2.184
    1   AR   Ar  165   3.600   3.131   0.809
    1   AR   Ar  166   2.672   3.463   4.201
    1   AR   Ar  167   5.724   6.599   3.592
    1   AR   Ar  168   5.606   3.920  -1.985
    1   AR   Ar  169   3.449   3.560   3.495
    1   AR   Ar  170   1.711   3.119   5.997
    1   AR   Ar  171   5.837   4.124   4.279
    1   AR   Ar  172   3.661   3.700   5.592
    1   AR   Ar  173   2.500   2.106   5.523
    1   AR   Ar  174   1.803   6.131   5.497
    1   AR   Ar  175   3.115   1.185   6.120
    1   AR   Ar  176   3.782   2.889   4.713
    1   AR   Ar  177   1.366   5.242  -0.837
    1   AR   Ar  178   2.817   5.935   0.462
    1   AR   Ar  179   3.102   0.055  -0.151
    1   AR   Ar  180   5.478   1.443  -5.750
    1   AR   Ar  181   6.969   5.602   1.951
    1   AR   Ar  182   0.970   5.701   2.739
    1   AR   Ar  183   4.750   5.228   2.242
    1   AR   Ar  184   4.086   6.883   0.306
    1   AR   Ar  185   2.666   4.798   4.655
    1   AR   Ar  186   2.236   5.381   3.188
    1   AR   Ar  187   3.684   6.707   3.813
    1   AR   Ar  188   2.466   0.097   2.378
    1   AR   Ar  189   5.322   3.500   6.342
    1   AR   Ar  190   2.661   6.216   3.586
    1   AR   Ar  191   2.549   6.181   7.875
    1   AR   Ar  192   4.477   4.931   6.620
    1   AR   Ar  193   2.661   6.304   1.628
    1   AR   Ar  194   5.366   4.334  -0.942
    1   AR   Ar  195   5.757   0.964   0.325
    1   AR   Ar  196   3.847   0.329  -0.828
    1   AR   Ar  197   4.240   1.576   0.890
    1   AR   Ar  198   5.396   0.211   1.789
    1   AR   Ar  199   2.212   0.312   3.603
    1   AR   Ar  200   4.677   3.190   0.520
    1   AR   Ar  201   6.431   5.847   2.789
    1   AR   Ar  202   5.565   1.575   4.677
    1   AR   Ar  203   0.164   6.552   3.355
    1   AR   Ar  204   5.458   6.271   6.474
    1   AR   Ar  205   6.442   1.446   1.772
    1   AR   Ar  206   6.170   0.759   5.610
    1   AR   Ar  207   0.542   2.064   5.136
    1   AR   Ar  208   0.689   5.759   4.072
    1   AR   Ar  209   7.048   2.188  -2.182
    1   AR   Ar  210   2.301   6.911   0.517
    1   AR   Ar  211   0.299   3.273   0.994
    1   AR   Ar  212   5.801   3.582   0.041
    1   AR   Ar  213   3.206   1.172   1.325
    1   AR   Ar  214   4.679   4.070   2.438
    1   AR   Ar  215   6.623   2.820   2.491
    1   AR   Ar  216   1.425   2.307   0.597
    1   AR   Ar  217   5.232   1.714   3.504
    1   AR   Ar  218   5.135   3.356   4.191
    1   AR   Ar  219   4.483   3.537   3.287
    1   AR   Ar  220   4.502   3.977   1.183
    1   AR   Ar  221   6.420   6.060   4.006
    1   AR   Ar  222   5.455   0.124   5.555
    1   AR   Ar  223   6.183   1.773   6.680
    1   AR   Ar  224   4.789   2.369   4.832
    1   AR   Ar  225   6.394   3.468   3.625
    1   AR   Ar  226   1.399   3.327   3.021
    1   AR   Ar  227   0.630   3.537   2.042
    1   AR   Ar  228   6.598   0.331   1.399
    1   AR   Ar  229   6.214   5.014  -1.054
    1   AR   Ar  230   3.593   4.001   4.579
    1   AR   Ar  231   4.096   1.714   2.018
    1   AR   Ar  232   5.630   3.040   1.339
    1   AR   Ar  233   7.013   2.569   3.964
    1   AR   Ar  234   5.969   2.545   4.326
    1   AR   Ar  235   6.403   0.289   3.667
    1   AR   Ar  236   5.110   5.072   5.650
    1   AR   Ar  237   4.886   2.418   6.657
    1   AR   Ar  238   5.592   5.064   6.690
    1   AR   Ar  239   0.330   4.983  10.342
    1   AR   Ar  240   7.042   2.588   6.998
    1   AR   Ar  241   2.305   5.932  -0.517
    1   AR   Ar  242   5.407   6.362   1.453
    1   AR   Ar  243   4.247   5.967   3.027
    1   AR   Ar  244   0.391   5.125   0.574
    1   AR   Ar  245   3.801   7.115   2.478
    1   AR   Ar  246   5.995   6.351  -0.692
    1   AR   Ar  247   6.489   3.945   1.578
    1   AR   Ar  248   4.823   5.994   0.132
    1   AR   Ar  249   4.339   6.784   1.665
    1   AR   Ar  250   4.783   5.134   4.336
    1   AR   Ar  251   4.687   4.251   4.931
    1   AR   Ar  252   3.452   4.808   2.601
    1   AR   Ar  253   6.125   2.842   6.432
    1   AR   Ar  254   4.666   2.350   9.813
    1   AR   Ar  255   2.973   5.727  10.132
    1   AR   Ar  256   6.045   5.070   3.473
    7.12000  7.12000 12.00000
Argon-slab step 4345
  256
    1   AR   Ar    1   4.663   3.350  -2.577
    1   AR   Ar    2   5.802   6.823   0.629
    1   AR   Ar    3   3.811   2.452  -1.627
    1   AR   Ar    4   1.943   1.379   0.812
    1   AR   Ar    5   6.205   5.965   0.371
    1   AR   Ar    6   1.690   2.009   1.834
    1   AR   Ar    7   5.425   4.115   3.285
    1   AR   Ar    8   5.199   1.551  -0.184
    1   AR   Ar    9   0.577   0.353   4.159
    1   AR   Ar   10   6.842   6.940   4.512
    1   AR   Ar   11   1.277   6.510   4.695
    1   AR   Ar   12   0.231   1.485   3.995
    1   AR   Ar   13   7.083   0.868   4.910
    1   AR   Ar   14   4.139   1.638   6.267
    1   AR   Ar   15   3.217   6.567   8.585
    1   AR   Ar   16   0.619   7.079   5.073
    1   AR   Ar   17   5.874   1.995   1.057
    1   AR   Ar   18   0.032   5.425  -0.601
    1   AR   Ar   19   4.173   4.002   0.001
    1   AR   Ar   20   6.777   4.371  -2.935
    1   AR   Ar   21   3.040   2.034   1.867
    1   AR   Ar   22   5.356   1.204   2.567
    1   AR   Ar   23   0.269   6.127   0.844
    1   AR   Ar   24   5.380   2.691   2.700
    1   AR   Ar   25   0.919   2.556   3.672
    1   AR   Ar   26   5.582   6.524   4.614
    1   AR   Ar   27   1.499   0.740   2.207
    1   AR   Ar   28   1.878   2.952   3.822
    1   AR   Ar   29   5.112   1.525   7.121
    1   AR   Ar   30   1.153   1.057   3.511
    1   AR   Ar   31   3.581   0.274   7.282
    1   AR   Ar   32   0.677   2.637   5.907
    1   AR   Ar   33   0.534   4.241  -0.076
    1   AR   Ar   34   0.624   4.628   2.286
    1   AR   Ar   35   5.737   4.914   2.359
    1   AR   Ar   36   5.980   3.113  -2.486
    1   AR   Ar   37   4.230   2.972   1.946
    1   AR   Ar   38   6.857   4.366   3.839
    1   AR   Ar   39   0.282   3.239   3.121
    1   AR   Ar   40   1.538   4.653   1.885
    1   AR   Ar   41   0.127   2.121   3.012
    1   AR   Ar   42   5.949   5.365   4.704
    1   AR   Ar   43   6.708   2.573   5.717
    1   AR   Ar   44   0.786   4.078   3.354
    1   AR   Ar   45   0.384   3.641   5.371
    1   AR   Ar   46   0.663   4.485   5.865
    1   AR   Ar   47   3.242   5.450   7.259
    1   AR   Ar   48   5.928   3.292   7.400
    1   AR   Ar   49   6.356   0.080  -1.516
    1   AR   Ar   50   3.636   4.892   0.029
    1   AR   Ar   51   5.912   3.618   2.436
    1   AR   Ar   52   5.135   2.771  -1.619
    1   AR   Ar   53   5.531   6.469   2.508
    1   AR   Ar   54   0.447   0.136   2.198
    1   AR   Ar   55   6.764   4.601   2.843
    1   AR   Ar   56   0.108   0.630   3.111
    1   AR   Ar   57   4.025   4.518   3.439
    1   AR   Ar   58   0.542   3.595   4.308
    1   AR   Ar   59   2.962   5.481   6.027
    1   AR   Ar   60   0.036   5.285   3.435
    1   AR   Ar   61   7.110   3.802   6.820
    1   AR   Ar   62   6.759   4.315   4.948
    1   AR   Ar   63   1.893   2.167   6.304
    1   AR   Ar   64   0.391   5.469   5.297
    1   AR   Ar   65   3.450   0.029   1.465
    1   AR   Ar   66   0.498   0.999   0.915
    1   AR   Ar   67   4.982   0.493  -0.763
    1   AR   Ar   68   1.046   0.818  -0.931
    1   AR   Ar   69   2.666   0.990   0.131
    1   AR   Ar   70   0.727   1.508   2.444
    1   AR   Ar   71   2.564   1.174   2.506
    1   AR   Ar   72   4.533   0.647   1.355
    1   AR   Ar   73   3.199   0.461   3.919
    1   AR   Ar   74   1.002   1.125   4.842
    1   AR   Ar   75   3.431   0.689   4.880
    1   AR   Ar   76   2.015   0.328   1.386
    1   AR   Ar   77   1.482   0.285   5.417
    1   AR   Ar   78   7.069   5.723   6.176
    1   AR   Ar   79   3.921   6.416   6.669
    1   AR   Ar   80   4.084   5.575   5.865
    1   AR   Ar   81   1.284   6.676   0.853
    1   AR   Ar   82   6.647   4.486   0.631
    1   AR   Ar   83   1.062   3.085  -0.085
    1   AR   Ar   84   0.698   4.249   1.161
    1   AR   Ar   85   1.827   3.433   0.835
    1   AR   Ar   86   1.946   5.491   0.959
    1   AR   Ar   87   2.988   3.506   2.192
    1   AR   Ar   88   2.938   5.389   1.414
    1   AR   Ar   89   0.095   2.316   1.800
    1   AR   Ar   90   3.291   1.786   4.924
    1   AR   Ar   91   1.520   1.896   3.055
    1   AR   Ar   92   1.731   3.435   1.879
    1   AR   Ar   93   1.352   1.484   5.714
    1   AR   Ar   94   1.093   7.093   9.267
    1   AR   Ar   95   4.277   1.359   5.089
    1   AR   Ar   96   2.633   6.877   4.443
    1   AR   Ar   97   3.905   1.762  -0.645
    1   AR   Ar   98   1.952   4.079   3.892
    1   AR   Ar   99   6.772   1.380   0.297
    1   AR   Ar  100   0.516   3.182  -1.902
    1   AR   Ar  101   3.576   6.118   1.876
    1   AR   Ar  102   3.706   1.196   2.824
    1   AR   Ar  103   2.483   4.527   0.662
    1   AR   Ar  104   3.146   5.208  -1.072
    1   AR   Ar  105   2.714   1.458   3.818
    1   AR   Ar  106   3.492   2.610   5.687
    1   AR   Ar  107   1.316   4.402   4.875
    1   AR   Ar  108   2.296   1.140   4.899
    1   AR   Ar  109   1.303   3.168   4.914
    1   AR   Ar  110   2.469   2.379   4.524
    1   AR   Ar  111   4.978   6.383   7.557
    1   AR   Ar  112   0.819   6.285   5.721
    1   AR   Ar  113   3.719   4.282  -1.100
    1   AR   Ar  114   2.425   6.884  -1.796
    1   AR   Ar  115   1.465   4.838   0.182
    1   AR   Ar  116   4.159   0.965   0.040
    1   AR   Ar  117   0.478   4.725   4.451
    1   AR   Ar  118   1.259   5.034   3.496
    1   AR   Ar  119   2.070   4.135   2.657
    1   AR   Ar  120   1.575   6.683   1.847
    1   AR   Ar  121   5.698   4.174   5.426
    1   AR   Ar  122   3.199   5.782   4.456
    1   AR   Ar  123   2.771   3.174   5.304
    1   AR   Ar  124   1.011   5.694   1.563
    1   AR   Ar  125   6.583   3.339   4.682
    1   AR   Ar  126   6.862   7.083   5.684
    1   AR   Ar  127   4.199   3.739   6.668
    1   AR   Ar  128   2.978   2.900   6.552
    1   AR   Ar  129   1.885   5.462   4.223
    1   AR   Ar  130   4.951   1.433  -3.900
    1   AR   Ar  131   4.836   4.697  -2.601
    1   AR   Ar  132   0.661   1.898  -0.127
    1   AR   Ar  133   4.441   0.330   4.376
    1   AR   Ar  134   3.838   1.265   3.907
    1   AR   Ar  135   6.338   1.735   3.576
    1   AR   Ar  136   6.563   6.829   2.424
    1   AR   Ar  137   2.431   3.994   6.061
    1   AR   Ar  138   5.405   1.533   5.948
    1   AR   Ar  139   5.622   2.613   5.576
    1   AR   Ar  140   4.046   6.521   4.878
    1   AR   Ar  141   3.838   4.951   4.828
    1   AR   Ar  142   4.806   0.106   6.509
    1   AR   Ar  143   6.389   6.620   6.897
    1   AR   Ar  144   6.429   1.699   5.117
    1   AR   Ar  145   4.553   4.984  -0.609
    1   AR   Ar  146   3.751   2.473   2.755
    1   AR   Ar  147   4.266   3.656  -1.774
    1   AR   Ar  148   3.105   6.323  -0.852
    1   AR   Ar  149   1.857   1.346  -0.434
    1   AR   Ar  150   2.378   2.601   2.878
    1   AR   Ar  151   3.036   2.506   3.726
    1   AR   Ar  152   1.439   2.796  -1.581
    1   AR   Ar  153   5.598   0.602   4.257
    1   AR   Ar  154   4.318   2.425   3.936
    1   AR   Ar  155   6.520   3.593   5.751
    1   AR   Ar  156   3.018   4.775   3.586
    1   AR   Ar  157   1.632   5.199   6.296
    1   AR   Ar  158   0.116   1.512   6.074
    1   AR   Ar  159   3.448   0.211   5.913
    1   AR   Ar  160   1.494   2.096   4.837
    1   AR   Ar  161   4.952   5.014   3.187
    1   AR   Ar  162   4.136   6.379  -0.538
    1   AR   Ar  163   5.663   4.814   1.010
    1   AR   Ar  164   1.955   5.748   2.193
    1   AR   Ar  165   3.604   3.148   0.821
    1   AR   Ar  166   2.684   3.458   4.207
    1   AR   Ar  167   5.706   6.551   3.597
    1   AR   Ar  168   5.590   3.932  -1.996
    1   AR   Ar  169   3.448   3.563   3.498
    1   AR   Ar  170   1.684   3.153   5.941
    1   AR   Ar  171   5.832   4.170   4.274
    1   AR   Ar  172   3.675   3.706   5.577
    1   AR   Ar  173   2.502   2.111   5.503
    1   AR   Ar  174   1.814   6.153   5.459
    1   AR   Ar  175   3.091   1.174   6.130
    1   AR   Ar  176   3.808   2.895   4.736
    1   AR   Ar  177   1.403   5.259  -0.820
    1   AR   Ar  178   2.827   5.944   0.491
    1   AR   Ar  179   3.072   0.063  -0.135
    1   AR   Ar  180   5.489   1.432  -5.772
    1   AR   Ar  181   6.995   5.596   1.955
    1   AR   Ar  182   0.958   5.703   2.700
    1   AR   Ar  183   4.748   5.204   2.254
    1   AR   Ar  184   4.063   6.899   0.327
    1   AR   Ar  185   2.671   4.792   4.645
    1   AR   Ar  186   2.223   5.376   3.176
    1   AR   Ar  187   3.691   6.705   3.846
    1   AR   Ar  188   2.467   0.100   2.394
    1   AR   Ar  189   5.342   3.515   6.359
    1   AR   Ar  190   2.624   6.240   3.580
    1   AR   Ar  191   2.568   6.146   7.830
    1   AR   Ar  192   4.477   4.932   6.641
    1   AR   Ar  193   2.689   6.297   1.614
    1   AR   Ar  194   5.371   4.367  -0.930
    1   AR   Ar  195   5.745   0.957   0.364
    1   AR   Ar  196   3.839   0.272  -0.819
    1   AR   Ar  197   4.230   1.610   0.884
    1   AR   Ar  198   5.379   0.232   1.766
    1   AR   Ar  199   2.213   0.300   3.607
    1   AR   Ar  200   4.673   3.195   0.490
    1   AR   Ar  201   6.440   5.810   2.778
    1   AR   Ar  202   5.566   1.534   4.701
    1   AR   Ar  203   0.144   6.597   3.337
    1   AR   Ar  204   5.436   6.279   6.460
    1   AR   Ar  205   6.431   1.440   1.792
    1   AR   Ar  206   6.163   0.783   5.613
    1   AR   Ar  207   0.538   2.090   5.111
    1   AR   Ar  208   0.717   5.711   4.063
    1   AR   Ar  209   7.053   2.164  -2.195
    1   AR   Ar  210   2.271   6.914   0.493
    1   AR   Ar  211   0.319   3.237   0.999
    1   AR   Ar  212   5.777   3.556   0.059
    1   AR   Ar  213   3.173   1.158   1.327
    1   AR   Ar  214   4.694   4.066   2.475
    1   AR   Ar  215   6.615   2.826   2.474
    1   AR   Ar  216   1.448   2.321   0.614
    1   AR   Ar  217   5.214   1.703   3.512
    1   AR   Ar  218   5.120   3.340   4.158
    1   AR   Ar  219   4.494   3.521   3.278
    1   AR   Ar  220   4.488   3.979   1.193
    1   AR   Ar  221   6.434   6.024   4.001
    1   AR   Ar  222   5.439   0.168   5.551
    1   AR   Ar  223   6.221   1.758   6.671
    1   AR   Ar  224   4.803   2.370   4.828
    1   AR   Ar  225   6.419   3.468   3.639
    1   AR   Ar  226   1.378   3.312   3.033
    1   AR   Ar  227   0.634   3.541   2.075
    1   AR   Ar  228   6.669   0.341   1.408
    1   AR   Ar  229   6.211   4.991  -1.046
    1   AR   Ar  230   3.542   3.977   4.566
    1   AR   Ar  231   4.087   1.729   1.998
    1   AR   Ar  232   5.614   3.027   1.337
    1   AR   Ar  233   6.995   2.563   3.979
    1   AR   Ar  234   5.931   2.517   4.348
    1   AR   Ar  235   6.402   0.290   3.652
    1   AR   Ar  236   5.090   5.101   5.667
    1   AR   Ar  237   4.883   2.449   6.664
    1   AR   Ar  238   5.600   5.048   6.650
    1   AR   Ar  239   0.348   4.964  10.335
    1   AR   Ar  240   7.045   2.573   6.980
    1   AR   Ar  241   2.292   5.934  -0.542
    1   AR   Ar  242   5.415   6.318   1.464
    1   AR   Ar  243   4.253   5.984   3.025
    1   AR   Ar  244   0.371   5.117   0.580
    1   AR   Ar  245   3.821   7.096   2.486
    1   AR   Ar  246   5.964   6.318  -0.709
    1   AR   Ar  247   6.513   3.935   1.640
    1   AR   Ar  248   4.827   5.979   0.162
    1   AR   Ar  249   4.349   6.757   1.640
    1   AR   Ar  250   4.796   5.196   4.307
    1   AR   Ar  251   4.683   4.215   4.944
    1   AR   Ar  252   3.422   4.786   2.585
    1   AR   Ar  253   6.137   2.838   6.450
    1   AR   Ar  254   4.695   2.352   9.806
    1   AR   Ar  255   2.941   5.706  10.128
    1   AR   Ar  256   6.048   5.115   3.468
    7.12000  7.12000 12.00000
Argon-slab step 4350
  256
    1   AR   Ar    1   4.710   3.338  -2.561
    1   AR   Ar    2   5.781   6.855   0.606
    1   AR   Ar    3   3.801   2.442  -1.614
    1   AR   Ar    4   1.944   1.367   0.764
    1   AR   Ar    5   6.203   5.983   0.350
    1   AR   Ar    6   1.690   1.995   1.836
    1   AR   Ar    7   5.430   4.142   3.269
    1   AR   Ar    8   5.170   1.541  -0.218
    1   AR   Ar    9   0.573   0.347   4.124
    1   AR   Ar   10   6.864   6.914   4.540
    1   AR   Ar   11   1.249   6.482   4.675
    1   AR   Ar   12   0.244   1.507   3.981
    1   AR   Ar   13   7.068   0.877   4.914
    1   AR   Ar   14   4.129   1.628   6.256
    1   AR   Ar   15   3.251   6.574   8.581
    1   AR   Ar   16   0.606   7.079   5.066
    1   AR   Ar   17   5.889   1.997   1.044
    1   AR   Ar   18   0.023   5.421  -0.575
    1   AR   Ar   19   4.179   3.998   0.013
    1   AR   Ar   20   6.747   4.348  -2.933
    1   AR   Ar   21   3.088   2.032   1.883
    1   AR   Ar   22   5.337   1.189   2.531
    1   AR   Ar   23   0.268   6.138   0.850
    1   AR   Ar   24   5.409   2.678   2.675
    1   AR   Ar   25   0.920   2.572   3.664
    1   AR   Ar   26   5.540   6.529   4.629
    1   AR   Ar   27   1.519   0.748   2.216
    1   AR   Ar   28   1.882   2.956   3.825
    1   AR   Ar   29   5.056   1.528   7.090
    1   AR   Ar   30   1.138   1.072   3.520
    1   AR   Ar   31   3.606   0.276   7.254
    1   AR   Ar   32   0.683   2.650   5.880
    1   AR   Ar   33   0.555   4.224  -0.068
    1   AR   Ar   34   0.628   4.633   2.275
    1   AR   Ar   35   5.714   4.872   2.391
    1   AR   Ar   36   5.971   3.108  -2.459
    1   AR   Ar   37   4.228   2.985   1.965
    1   AR   Ar   38   6.886   4.354   3.860
    1   AR   Ar   39   0.292   3.202   3.097
    1   AR   Ar   40   1.554   4.658   1.905
    1   AR   Ar   41   0.128   2.109   3.016
    1   AR   Ar   42   5.937   5.394   4.700
    1   AR   Ar   43   6.720   2.573   5.724
    1   AR   Ar   44   0.800   4.099   3.324
    1   AR   Ar   45   0.405   3.629   5.373
    1   AR   Ar   46   0.684   4.481   5.853
    1   AR   Ar   47   3.254   5.452   7.286
    1   AR   Ar   48   5.918   3.290   7.387
    1   AR   Ar   49   6.362   0.065  -1.486
    1   AR   Ar   50   3.645   4.898   0.024
    1   AR   Ar   51   5.924   3.603   2.446
    1   AR   Ar   52   5.148   2.770  -1.607
    1   AR   Ar   53   5.523   6.499   2.506
    1   AR   Ar   54   0.431   0.145   2.190
    1   AR   Ar   55   6.727   4.596   2.863
    1   AR   Ar   56   0.130   0.628   3.077
    1   AR   Ar   57   3.993   4.488   3.416
    1   AR   Ar   58   0.570   3.615   4.312
    1   AR   Ar   59   2.948   5.478   6.008
    1   AR   Ar   60   0.068   5.312   3.465
    1   AR   Ar   61   7.053   3.833   6.824
    1   AR   Ar   62   6.746   4.300   4.932
    1   AR   Ar   63   1.914   2.181   6.333
    1   AR   Ar   64   0.397   5.479   5.321
    1   AR   Ar   65   3.448   0.033   1.469
    1   AR   Ar   66   0.509   0.974   0.911
    1   AR   Ar   67   5.000   0.520  -0.780
    1   AR   Ar   68   1.072   0.851  -0.930
    1   AR   Ar   69   2.704   0.982   0.125
    1   AR   Ar   70   0.696   1.542   2.421
    1   AR   Ar   71   2.527   1.197   2.518
    1   AR   Ar   72   4.550   0.660   1.339
    1   AR   Ar   73   3.200   0.460   3.918
    1   AR   Ar   74   0.988   1.138   4.859
    1   AR   Ar   75   3.450   0.693   4.920
    1   AR   Ar   76   2.027   0.310   1.369
    1   AR   Ar   77   1.496   0.293   5.423
    1   AR   Ar   78   7.036   5.714   6.190
    1   AR   Ar   79   3.917   6.394   6.639
    1   AR   Ar   80   4.059   5.590   5.873
    1   AR   Ar   81   1.292   6.706   0.897
    1   AR   Ar   82   6.640   4.494   0.605
    1   AR   Ar   83   1.048   3.078  -0.100
    1   AR   Ar   84   0.721   4.259   1.122
    1   AR   Ar   85   1.849   3.455   0.847
    1   AR   Ar   86   1.946   5.477   0.968
    1   AR   Ar   87   3.007   3.501   2.193
    1   AR   Ar   88   2.967   5.389   1.439
    1   AR   Ar   89   0.077   2.337   1.779
    1   AR   Ar   90   3.305   1.785   4.948
    1   AR   Ar   91   1.552   1.898   3.017
    1   AR   Ar   92   1.738   3.424   1.837
    1   AR   Ar   93   1.374   1.475   5.744
    1   AR   Ar   94   1.077   7.095   9.239
    1   AR   Ar   95   4.262   1.384   5.100
    1   AR   Ar   96   2.629   6.896   4.465
    1   AR   Ar   97   3.884   1.751  -0.635
    1   AR   Ar   98   1.940   4.056   3.878
    1   AR   Ar   99   6.788   1.380   0.298
    1   AR   Ar  100   0.516   3.188  -1.911
    1   AR   Ar  101   3.575   6.097   1.897
    1   AR   Ar  102   3.700   1.203   2.827
    1   AR   Ar  103   2.521   4.521   0.661
    1   AR   Ar  104   3.154   5.213  -1.066
    1   AR   Ar  105   2.735   1.439   3.834
    1   AR   Ar  106   3.449   2.636   5.676
    1   AR   Ar  107   1.315   4.394   4.863
    1   AR   Ar  108   2.319   1.156   4.887
    1   AR   Ar  109   1.294   3.142   4.935
    1   AR   Ar  110   2.485   2.362   4.511
    1   AR   Ar  111   4.955   6.384   7.595
    1   AR   Ar  112   0.776   6.259   5.698
    1   AR   Ar  113   3.718   4.324  -1.114
    1   AR   Ar  114   2.446   6.872  -1.792
    1   AR   Ar  115   1.413   4.807   0.160
    1   AR   Ar  116   4.154   0.965   0.075
    1   AR   Ar  117   0.489   4.743   4.481
    1   AR   Ar  118   1.240   5.043   3.498
    1   AR   Ar  119   2.068   4.157   2.668
    1   AR   Ar  120   1.585   6.685   1.853
    1   AR   Ar  121   5.716   4.165   5.407
    1   AR   Ar  122   3.197   5.810   4.380
    1   AR   Ar  123   2.778   3.183   5.308
    1   AR   Ar  124   0.990   5.648   1.511
    1   AR   Ar  125   6.575   3.323   4.677
    1   AR   Ar  126   6.880   0.009   5.692
    1   AR   Ar  127   4.202   3.718   6.645
    1   AR   Ar  128   2.987   2.942   6.557
    1   AR   Ar  129   1.894   5.474   4.213
    1   AR   Ar  130   4.934   1.422  -3.888
    1   AR   Ar  131   4.843   4.714  -2.601
    1   AR   Ar  132   0.674   1.900  -0.129
    1   AR   Ar  133   4.441   0.325   4.389
    1   AR   Ar  134   3.810   1.284   3.895
    1   AR   Ar  135   6.342   1.731   3.582
    1   AR   Ar  136   6.538   6.877   2.418
    1   AR   Ar  137   2.444   3.990   6.077
    1   AR   Ar  138   5.386   1.547   5.946
    1   AR   Ar  139   5.629   2.661   5.561
    1   AR   Ar  140   4.070   6.523   4.869
    1   AR   Ar  141   3.835   4.980   4.835
    1   AR   Ar  142   4.829   0.119   6.533
    1   AR   Ar  143   6.403   6.611   6.881
    1   AR   Ar  144   6.442   1.691   5.130
    1   AR   Ar  145   4.533   4.992  -0.627
    1   AR   Ar  146   3.779   2.468   2.755
    1   AR   Ar  147   4.318   3.652  -1.740
    1   AR   Ar  148   3.124   6.330  -0.834
    1   AR   Ar  149   1.892   1.317  -0.408
    1   AR   Ar  150   2.351   2.616   2.884
    1   AR   Ar  151   3.018   2.484   3.710
    1   AR   Ar  152   1.407   2.787  -1.585
    1   AR   Ar  153   5.591   0.550   4.240
    1   AR   Ar  154   4.320   2.441   3.907
    1   AR   Ar  155   6.487   3.569   5.779
    1   AR   Ar  156   3.011   4.773   3.561
    1   AR   Ar  157   1.619   5.180   6.322
    1   AR   Ar  158   0.088   1.558   6.089
    1   AR   Ar  159   3.484   0.227   5.936
    1   AR   Ar  160   1.506   2.109   4.860
    1   AR   Ar  161   4.950   5.017   3.169
    1   AR   Ar  162   4.159   6.407  -0.538
    1   AR   Ar  163   5.653   4.819   1.024
    1   AR   Ar  164   1.939   5.778   2.202
    1   AR   Ar  165   3.609   3.166   0.834
    1   AR   Ar  166   2.702   3.449   4.220
    1   AR   Ar  167   5.681   6.509   3.592
    1   AR   Ar  168   5.571   3.949  -2.005
    1   AR   Ar  169   3.447   3.566   3.499
    1   AR   Ar  170   1.659   3.188   5.883
    1   AR   Ar  171   5.829   4.218   4.273
    1   AR   Ar  172   3.691   3.712   5.565
    1   AR   Ar  173   2.505   2.115   5.487
    1   AR   Ar  174   1.835   6.171   5.426
    1   AR   Ar  175   3.066   1.168   6.137
    1   AR   Ar  176   3.812   2.914   4.732
    1   AR   Ar  177   1.440   5.277  -0.804
    1   AR   Ar  178   2.839   5.955   0.519
    1   AR   Ar  179   3.045   0.066  -0.119
    1   AR   Ar  180   5.499   1.422  -5.794
    1   AR   Ar  181   7.027   5.588   1.954
    1   AR   Ar  182   0.944   5.706   2.660
    1   AR   Ar  183   4.738   5.185   2.252
    1   AR   Ar  184   4.040   6.920   0.354
    1   AR   Ar  185   2.678   4.784   4.635
    1   AR   Ar  186   2.209   5.367   3.160
    1   AR   Ar  187   3.701   6.696   3.878
    1   AR   Ar  188   2.470   0.102   2.410
    1   AR   Ar  189   5.359   3.531   6.374
    1   AR   Ar  190   2.589   6.268   3.575
    1   AR   Ar  191   2.587   6.111   7.785
    1   AR   Ar  192   4.477   4.932   6.662
    1   AR   Ar  193   2.688   6.314   1.595
    1   AR   Ar  194   5.374   4.396  -0.918
    1   AR   Ar  195   5.742   0.939   0.412
    1   AR   Ar  196   3.836   0.226  -0.806
    1   AR   Ar  197   4.219   1.645   0.880
    1   AR   Ar  198   5.367   0.252   1.747
    1   AR   Ar  199   2.210   0.289   3.608
    1   AR   Ar  200   4.672   3.197   0.460
    1   AR   Ar  201   6.449   5.792   2.769
    1   AR   Ar  202   5.552   1.494   4.721
    1   AR   Ar  203   0.123   6.641   3.320
    1   AR   Ar  204   5.399   6.275   6.445
    1   AR   Ar  205   6.422   1.434   1.813
    1   AR   Ar  206   6.172   0.821   5.616
    1   AR   Ar  207   0.521   2.109   5.077
    1   AR   Ar  208   0.748   5.671   4.061
    1   AR   Ar  209   7.058   2.141  -2.208
    1   AR   Ar  210   2.240   6.914   0.469
    1   AR   Ar  211   0.339   3.200   1.005
    1   AR   Ar  212   5.752   3.530   0.077
    1   AR   Ar  213   3.140   1.140   1.327
    1   AR   Ar  214   4.712   4.069   2.503
    1   AR   Ar  215   6.603   2.833   2.459
    1   AR   Ar  216   1.470   2.336   0.632
    1   AR   Ar  217   5.172   1.698   3.516
    1   AR   Ar  218   5.106   3.324   4.127
    1   AR   Ar  219   4.504   3.497   3.276
    1   AR   Ar  220   4.475   3.981   1.204
    1   AR   Ar  221   6.458   5.982   3.998
    1   AR   Ar  222   5.432   0.144   5.561
    1   AR   Ar  223   6.259   1.743   6.660
    1   AR   Ar  224   4.821   2.370   4.830
    1   AR   Ar  225   6.441   3.463   3.649
    1   AR   Ar  226   1.371   3.291   3.065
    1   AR   Ar  227   0.638   3.544   2.109
    1   AR   Ar  228   6.739   0.350   1.418
    1   AR   Ar  229   6.210   4.970  -1.038
    1   AR   Ar  230   3.491   3.952   4.549
    1   AR   Ar  231   4.080   1.745   1.976
    1   AR   Ar  232   5.598   3.017   1.336
    1   AR   Ar  233   6.976   2.557   3.996
    1   AR   Ar  234   5.892   2.490   4.371
    1   AR   Ar  235   6.401   0.290   3.636
    1   AR   Ar  236   5.070   5.129   5.683
    1   AR   Ar  237   4.881   2.482   6.668
    1   AR   Ar  238   5.608   5.032   6.609
    1   AR   Ar  239   0.365   4.946  10.327
    1   AR   Ar  240   7.048   2.558   6.960
    1   AR   Ar  241   2.261   5.928  -0.559
    1   AR   Ar  242   5.420   6.270   1.474
    1   AR   Ar  243   4.260   6.001   3.023
    1   AR   Ar  244   0.354   5.109   0.584
    1   AR   Ar  245   3.838   7.078   2.497
    1   AR   Ar  246   5.934   6.284  -0.725
    1   AR   Ar  247   6.534   3.934   1.681
    1   AR   Ar  248   4.834   5.964   0.195
    1   AR   Ar  249   4.373   6.726   1.614
    1   AR   Ar  250   4.809   5.258   4.278
    1   AR   Ar  251   4.678   4.179   4.957
    1   AR   Ar  252   3.391   4.764   2.566
    1   AR   Ar  253   6.142   2.835   6.482
    1   AR   Ar  254   4.724   2.355   9.799
    1   AR   Ar  255   2.910   5.686  10.124
    1   AR   Ar  256   6.047   5.152   3.459
    7.12000  7.12000 12.00000
Argon-slab step 4355
  256
    1   AR   Ar    1   4.766   3.321  -2.561
    1   AR   Ar    2   5.755   6.897   0.587
    1   AR   Ar    3   3.785   2.435  -1.589
    1   AR   Ar    4   1.945   1.355   0.720
    1   AR   Ar    5   6.205   5.991   0.327
    1   AR   Ar    6   1.691   1.980   1.838
    1   AR   Ar    7   5.442   4.162   3.257
    1   AR   Ar    8   5.136   1.533  -0.254
    1   AR   Ar    9   0.569   0.344   4.083
    1   AR   Ar   10   6.880   6.887   4.565
    1   AR   Ar   11   1.246   6.499   4.687
    1   AR   Ar   12   0.279   1.543   3.984
    1   AR   Ar   13   7.053   0.883   4.917
    1   AR   Ar   14   4.119   1.618   6.244
    1   AR   Ar   15   3.286   6.582   8.576
    1   AR   Ar   16   0.581   7.092   5.070
    1   AR   Ar   17   5.892   2.010   1.022
    1   AR   Ar   18   0.015   5.417  -0.546
    1   AR   Ar   19   4.186   3.996   0.024
    1   AR   Ar   20   6.724   4.331  -2.933
    1   AR   Ar   21   3.132   2.034   1.901
    1   AR   Ar   22   5.318   1.174   2.494
    1   AR   Ar   23   0.266   6.151   0.856
    1   AR   Ar   24   5.437   2.664   2.651
    1   AR   Ar   25   0.915   2.580   3.664
    1   AR   Ar   26   5.498   6.534   4.647
    1   AR   Ar   27   1.537   0.757   2.226
    1   AR   Ar   28   1.892   2.953   3.840
    1   AR   Ar   29   5.000   1.528   7.059
    1   AR   Ar   30   1.123   1.083   3.530
    1   AR   Ar   31   3.632   0.276   7.225
    1   AR   Ar   32   0.689   2.667   5.867
    1   AR   Ar   33   0.543   4.214  -0.051
    1   AR   Ar   34   0.623   4.640   2.269
    1   AR   Ar   35   5.697   4.827   2.424
    1   AR   Ar   36   5.964   3.100  -2.433
    1   AR   Ar   37   4.227   3.001   1.981
    1   AR   Ar   38   6.914   4.343   3.883
    1   AR   Ar   39   0.296   3.165   3.073
    1   AR   Ar   40   1.577   4.665   1.917
    1   AR   Ar   41   0.125   2.100   3.025
    1   AR   Ar   42   5.922   5.421   4.697
    1   AR   Ar   43   6.741   2.564   5.721
    1   AR   Ar   44   0.811   4.125   3.295
    1   AR   Ar   45   0.422   3.611   5.374
    1   AR   Ar   46   0.691   4.478   5.865
    1   AR   Ar   47   3.269   5.454   7.310
    1   AR   Ar   48   5.917   3.290   7.351
    1   AR   Ar   49   6.371   0.050  -1.456
    1   AR   Ar   50   3.651   4.908   0.019
    1   AR   Ar   51   5.930   3.593   2.459
    1   AR   Ar   52   5.161   2.771  -1.597
    1   AR   Ar   53   5.515   6.527   2.505
    1   AR   Ar   54   0.417   0.152   2.180
    1   AR   Ar   55   6.688   4.586   2.874
    1   AR   Ar   56   0.154   0.631   3.046
    1   AR   Ar   57   3.969   4.458   3.394
    1   AR   Ar   58   0.581   3.621   4.347
    1   AR   Ar   59   2.933   5.475   5.989
    1   AR   Ar   60   0.093   5.337   3.487
    1   AR   Ar   61   6.994   3.863   6.827
    1   AR   Ar   62   6.732   4.290   4.920
    1   AR   Ar   63   1.933   2.197   6.367
    1   AR   Ar   64   0.398   5.466   5.328
    1   AR   Ar   65   3.440   0.040   1.471
    1   AR   Ar   66   0.519   0.949   0.909
    1   AR   Ar   67   5.016   0.546  -0.795
    1   AR   Ar   68   1.097   0.885  -0.930
    1   AR   Ar   69   2.747   0.978   0.124
    1   AR   Ar   70   0.669   1.569   2.393
    1   AR   Ar   71   2.490   1.222   2.531
    1   AR   Ar   72   4.558   0.678   1.318
    1   AR   Ar   73   3.200   0.461   3.914
    1   AR   Ar   74   0.973   1.148   4.869
    1   AR   Ar   75   3.469   0.697   4.962
    1   AR   Ar   76   2.047   0.302   1.348
    1   AR   Ar   77   1.517   0.302   5.430
    1   AR   Ar   78   6.999   5.707   6.210
    1   AR   Ar   79   3.913   6.374   6.610
    1   AR   Ar   80   4.035   5.606   5.880
    1   AR   Ar   81   1.295   6.734   0.934
    1   AR   Ar   82   6.635   4.506   0.610
    1   AR   Ar   83   1.033   3.072  -0.115
    1   AR   Ar   84   0.746   4.268   1.085
    1   AR   Ar   85   1.869   3.478   0.849
    1   AR   Ar   86   1.945   5.463   0.979
    1   AR   Ar   87   3.029   3.492   2.201
    1   AR   Ar   88   2.989   5.374   1.453
    1   AR   Ar   89   0.063   2.354   1.757
    1   AR   Ar   90   3.321   1.784   4.968
    1   AR   Ar   91   1.586   1.902   2.978
    1   AR   Ar   92   1.742   3.413   1.807
    1   AR   Ar   93   1.396   1.466   5.777
    1   AR   Ar   94   1.060   7.097   9.211
    1   AR   Ar   95   4.253   1.409   5.112
    1   AR   Ar   96   2.625   6.911   4.484
    1   AR   Ar   97   3.864   1.740  -0.625
    1   AR   Ar   98   1.918   4.069   3.872
    1   AR   Ar   99   6.803   1.380   0.300
    1   AR   Ar  100   0.511   3.194  -1.922
    1   AR   Ar  101   3.591   6.073   1.927
    1   AR   Ar  102   3.708   1.207   2.839
    1   AR   Ar  103   2.550   4.510   0.655
    1   AR   Ar  104   3.160   5.222  -1.059
    1   AR   Ar  105   2.754   1.421   3.851
    1   AR   Ar  106   3.425   2.645   5.675
    1   AR   Ar  107   1.327   4.380   4.855
    1   AR   Ar  108   2.343   1.174   4.876
    1   AR   Ar  109   1.284   3.117   4.949
    1   AR   Ar  110   2.493   2.345   4.503
    1   AR   Ar  111   4.933   6.386   7.631
    1   AR   Ar  112   0.742   6.252   5.686
    1   AR   Ar  113   3.719   4.364  -1.126
    1   AR   Ar  114   2.468   6.860  -1.787
    1   AR   Ar  115   1.363   4.778   0.142
    1   AR   Ar  116   4.149   0.960   0.109
    1   AR   Ar  117   0.493   4.766   4.507
    1   AR   Ar  118   1.225   5.042   3.491
    1   AR   Ar  119   2.068   4.177   2.683
    1   AR   Ar  120   1.592   6.683   1.871
    1   AR   Ar  121   5.731   4.158   5.387
    1   AR   Ar  122   3.199   5.825   4.340
    1   AR   Ar  123   2.766   3.206   5.300
    1   AR   Ar  124   0.970   5.601   1.460
    1   AR   Ar  125   6.567   3.303   4.676
    1   AR   Ar  126   6.896   0.054   5.700
    1   AR   Ar  127   4.206   3.696   6.620
    1   AR   Ar  128   2.995   2.985   6.563
    1   AR   Ar  129   1.903   5.488   4.206
    1   AR   Ar  130   4.916   1.410  -3.876
    1   AR   Ar  131   4.851   4.729  -2.599
    1   AR   Ar  132   0.689   1.902  -0.129
    1   AR   Ar  133   4.440   0.321   4.402
    1   AR   Ar  134   3.789   1.309   3.888
    1   AR   Ar  135   6.353   1.717   3.575
    1   AR   Ar  136   6.519   6.912   2.405
    1   AR   Ar  137   2.458   3.985   6.092
    1   AR   Ar  138   5.366   1.562   5.943
    1   AR   Ar  139   5.635   2.709   5.544
    1   AR   Ar  140   4.093   6.524   4.861
    1   AR   Ar  141   3.832   5.010   4.843
    1   AR   Ar  142   4.851   0.131   6.558
    1   AR   Ar  143   6.416   6.602   6.863
    1   AR   Ar  144   6.463   1.693   5.145
    1   AR   Ar  145   4.512   5.002  -0.644
    1   AR   Ar  146   3.805   2.462   2.761
    1   AR   Ar  147   4.366   3.653  -1.691
    1   AR   Ar  148   3.151   6.343  -0.819
    1   AR   Ar  149   1.924   1.291  -0.383
    1   AR   Ar  150   2.325   2.632   2.887
    1   AR   Ar  151   3.011   2.466   3.683
    1   AR   Ar  152   1.380   2.776  -1.586
    1   AR   Ar  153   5.580   0.496   4.224
    1   AR   Ar  154   4.321   2.457   3.873
    1   AR   Ar  155   6.455   3.549   5.809
    1   AR   Ar  156   3.007   4.773   3.526
    1   AR   Ar  157   1.607   5.166   6.347
    1   AR   Ar  158   0.060   1.606   6.100
    1   AR   Ar  159   3.522   0.238   5.960
    1   AR   Ar  160   1.539   2.123   4.865
    1   AR   Ar  161   4.932   4.987   3.189
    1   AR   Ar  162   4.184   6.427  -0.541
    1   AR   Ar  163   5.642   4.823   1.039
    1   AR   Ar  164   1.924   5.803   2.209
    1   AR   Ar  165   3.616   3.185   0.848
    1   AR   Ar  166   2.705   3.441   4.221
    1   AR   Ar  167   5.653   6.469   3.580
    1   AR   Ar  168   5.548   3.969  -2.012
    1   AR   Ar  169   3.446   3.567   3.498
    1   AR   Ar  170   1.638   3.222   5.830
    1   AR   Ar  171   5.826   4.267   4.272
    1   AR   Ar  172   3.708   3.718   5.555
    1   AR   Ar  173   2.503   2.117   5.478
    1   AR   Ar  174   1.862   6.185   5.399
    1   AR   Ar  175   3.040   1.166   6.143
    1   AR   Ar  176   3.816   2.933   4.725
    1   AR   Ar  177   1.475   5.294  -0.790
    1   AR   Ar  178   2.851   5.967   0.544
    1   AR   Ar  179   3.023   0.063  -0.105
    1   AR   Ar  180   5.510   1.412  -5.816
    1   AR   Ar  181   7.064   5.578   1.948
    1   AR   Ar  182   0.928   5.707   2.620
    1   AR   Ar  183   4.719   5.171   2.231
    1   AR   Ar  184   4.049   6.929   0.384
    1   AR   Ar  185   2.684   4.776   4.624
    1   AR   Ar  186   2.218   5.364   3.145
    1   AR   Ar  187   3.704   6.679   3.878
    1   AR   Ar  188   2.472   0.102   2.424
    1   AR   Ar  189   5.375   3.550   6.388
    1   AR   Ar  190   2.554   6.298   3.569
    1   AR   Ar  191   2.587   6.096   7.743
    1   AR   Ar  192   4.477   4.931   6.683
    1   AR   Ar  193   2.664   6.351   1.572
    1   AR   Ar  194   5.373   4.419  -0.906
    1   AR   Ar  195   5.740   0.918   0.464
    1   AR   Ar  196   3.837   0.200  -0.789
    1   AR   Ar  197   4.208   1.682   0.878
    1   AR   Ar  198   5.364   0.267   1.731
    1   AR   Ar  199   2.204   0.278   3.606
    1   AR   Ar  200   4.674   3.195   0.431
    1   AR   Ar  201   6.460   5.804   2.759
    1   AR   Ar  202   5.529   1.455   4.739
    1   AR   Ar  203   0.100   6.685   3.303
    1   AR   Ar  204   5.362   6.269   6.429
    1   AR   Ar  205   6.414   1.426   1.835
    1   AR   Ar  206   6.190   0.854   5.616
    1   AR   Ar  207   0.491   2.122   5.033
    1   AR   Ar  208   0.783   5.650   4.076
    1   AR   Ar  209   7.063   2.119  -2.220
    1   AR   Ar  210   2.210   6.912   0.445
    1   AR   Ar  211   0.359   3.163   1.011
    1   AR   Ar  212   5.726   3.504   0.097
    1   AR   Ar  213   3.161   1.128   1.326
    1   AR   Ar  214   4.730   4.080   2.518
    1   AR   Ar  215   6.591   2.839   2.448
    1   AR   Ar  216   1.491   2.353   0.650
    1   AR   Ar  217   5.164   1.724   3.505
    1   AR   Ar  218   5.094   3.307   4.098
    1   AR   Ar  219   4.511   3.465   3.281
    1   AR   Ar  220   4.461   3.982   1.216
    1   AR   Ar  221   6.491   5.941   3.996
    1   AR   Ar  222   5.419   0.114   5.570
    1   AR   Ar  223   6.297   1.729   6.647
    1   AR   Ar  224   4.840   2.370   4.835
    1   AR   Ar  225   6.458   3.454   3.652
    1   AR   Ar  226   1.363   3.273   3.080
    1   AR   Ar  227   0.641   3.547   2.142
    1   AR   Ar  228   6.808   0.360   1.427
    1   AR   Ar  229   6.214   4.953  -1.030
    1   AR   Ar  230   3.448   3.935   4.533
    1   AR   Ar  231   4.078   1.760   1.952
    1   AR   Ar  232   5.590   3.006   1.338
    1   AR   Ar  233   6.958   2.553   4.014
    1   AR   Ar  234   5.853   2.462   4.393
    1   AR   Ar  235   6.402   0.287   3.618
    1   AR   Ar  236   5.048   5.157   5.695
    1   AR   Ar  237   4.880   2.518   6.668
    1   AR   Ar  238   5.610   5.056   6.568
    1   AR   Ar  239   0.383   4.928  10.320
    1   AR   Ar  240   7.053   2.543   6.938
    1   AR   Ar  241   2.223   5.918  -0.570
    1   AR   Ar  242   5.426   6.220   1.483
    1   AR   Ar  243   4.266   6.017   3.019
    1   AR   Ar  244   0.341   5.104   0.588
    1   AR   Ar  245   3.854   7.060   2.511
    1   AR   Ar  246   5.921   6.278  -0.733
    1   AR   Ar  247   6.547   3.949   1.690
    1   AR   Ar  248   4.841   5.949   0.228
    1   AR   Ar  249   4.407   6.694   1.586
    1   AR   Ar  250   4.824   5.319   4.249
    1   AR   Ar  251   4.673   4.143   4.969
    1   AR   Ar  252   3.360   4.743   2.543
    1   AR   Ar  253   6.142   2.832   6.521
    1   AR   Ar  254   4.753   2.357   9.792
    1   AR   Ar  255   2.879   5.665  10.120
    1   AR   Ar  256   6.042   5.170   3.442
    7.12000  7.12000 12.00000
Argon-slab step 4360
  256
    1   AR   Ar    1   4.826   3.301  -2.565
    1   AR   Ar    2   5.727   6.942   0.569
    1   AR   Ar    3   3.764   2.430  -1.557
    1   AR   Ar    4   1.944   1.342   0.678
    1   AR   Ar    5   6.208   5.995   0.304
    1   AR   Ar    6   1.691   1.965   1.841
    1   AR   Ar    7   5.466   4.168   3.250
    1   AR   Ar    8   5.100   1.525  -0.289
    1   AR   Ar    9   0.564   0.343   4.040
    1   AR   Ar   10   6.885   6.857   4.583
    1   AR   Ar   11   1.251   6.508   4.686
    1   AR   Ar   12   0.313   1.579   3.990
    1   AR   Ar   13   7.041   0.885   4.918
    1   AR   Ar   14   4.107   1.625   6.275
    1   AR   Ar   15   3.320   6.589   8.570
    1   AR   Ar   16   0.556   7.118   5.082
    1   AR   Ar   17   5.893   2.025   1.003
    1   AR   Ar   18   0.006   5.412  -0.516
    1   AR   Ar   19   4.191   3.996   0.032
    1   AR   Ar   20   6.720   4.335  -2.926
    1   AR   Ar   21   3.113   2.027   1.929
    1   AR   Ar   22   5.299   1.158   2.456
    1   AR   Ar   23   0.263   6.166   0.862
    1   AR   Ar   24   5.463   2.648   2.627
    1   AR   Ar   25   0.896   2.575   3.687
    1   AR   Ar   26   5.516   6.528   4.657
    1   AR   Ar   27   1.554   0.766   2.236
    1   AR   Ar   28   1.905   2.944   3.863
    1   AR   Ar   29   4.945   1.526   7.025
    1   AR   Ar   30   1.109   1.095   3.537
    1   AR   Ar   31   3.659   0.275   7.194
    1   AR   Ar   32   0.685   2.676   5.873
    1   AR   Ar   33   0.525   4.198  -0.035
    1   AR   Ar   34   0.610   4.648   2.266
    1   AR   Ar   35   5.698   4.793   2.439
    1   AR   Ar   36   5.957   3.089  -2.408
    1   AR   Ar   37   4.228   3.020   1.994
    1   AR   Ar   38   6.942   4.334   3.903
    1   AR   Ar   39   0.295   3.131   3.051
    1   AR   Ar   40   1.604   4.676   1.923
    1   AR   Ar   41   0.115   2.097   3.040
    1   AR   Ar   42   5.905   5.444   4.696
    1   AR   Ar   43   6.766   2.551   5.714
    1   AR   Ar   44   0.816   4.150   3.266
    1   AR   Ar   45   0.431   3.598   5.373
    1   AR   Ar   46   0.695   4.479   5.883
    1   AR   Ar   47   3.289   5.454   7.330
    1   AR   Ar   48   5.913   3.297   7.328
    1   AR   Ar   49   6.383   0.044  -1.434
    1   AR   Ar   50   3.654   4.921   0.013
    1   AR   Ar   51   5.929   3.591   2.475
    1   AR   Ar   52   5.173   2.774  -1.589
    1   AR   Ar   53   5.505   6.555   2.505
    1   AR   Ar   54   0.408   0.157   2.167
    1   AR   Ar   55   6.652   4.574   2.879
    1   AR   Ar   56   0.147   0.608   3.053
    1   AR   Ar   57   3.954   4.429   3.372
    1   AR   Ar   58   0.586   3.625   4.383
    1   AR   Ar   59   2.917   5.472   5.971
    1   AR   Ar   60   0.108   5.356   3.496
    1   AR   Ar   61   6.935   3.891   6.827
    1   AR   Ar   62   6.719   4.284   4.912
    1   AR   Ar   63   1.951   2.216   6.402
    1   AR   Ar   64   0.389   5.427   5.320
    1   AR   Ar   65   3.453   0.026   1.466
    1   AR   Ar   66   0.530   0.925   0.907
    1   AR   Ar   67   5.032   0.573  -0.809
    1   AR   Ar   68   1.120   0.918  -0.929
    1   AR   Ar   69   2.795   0.983   0.129
    1   AR   Ar   70   0.650   1.589   2.358
    1   AR   Ar   71   2.454   1.248   2.544
    1   AR   Ar   72   4.543   0.694   1.265
    1   AR   Ar   73   3.200   0.463   3.909
    1   AR   Ar   74   0.958   1.155   4.874
    1   AR   Ar   75   3.486   0.699   5.002
    1   AR   Ar   76   2.071   0.302   1.326
    1   AR   Ar   77   1.541   0.313   5.436
    1   AR   Ar   78   6.960   5.702   6.231
    1   AR   Ar   79   3.909   6.355   6.583
    1   AR   Ar   80   4.011   5.619   5.885
    1   AR   Ar   81   1.282   6.747   0.952
    1   AR   Ar   82   6.617   4.518   0.622
    1   AR   Ar   83   1.017   3.066  -0.128
    1   AR   Ar   84   0.772   4.275   1.051
    1   AR   Ar   85   1.896   3.477   0.839
    1   AR   Ar   86   1.945   5.449   0.991
    1   AR   Ar   87   3.051   3.483   2.210
    1   AR   Ar   88   2.976   5.364   1.429
    1   AR   Ar   89   0.052   2.369   1.732
    1   AR   Ar   90   3.335   1.783   4.982
    1   AR   Ar   91   1.617   1.905   2.939
    1   AR   Ar   92   1.744   3.401   1.795
    1   AR   Ar   93   1.419   1.459   5.810
    1   AR   Ar   94   1.044   7.099   9.182
    1   AR   Ar   95   4.253   1.433   5.125
    1   AR   Ar   96   2.622   6.919   4.476
    1   AR   Ar   97   3.844   1.729  -0.616
    1   AR   Ar   98   1.905   4.104   3.883
    1   AR   Ar   99   6.818   1.380   0.302
    1   AR   Ar  100   0.500   3.203  -1.935
    1   AR   Ar  101   3.610   6.052   1.959
    1   AR   Ar  102   3.717   1.206   2.849
    1   AR   Ar  103   2.567   4.491   0.643
    1   AR   Ar  104   3.163   5.236  -1.049
    1   AR   Ar  105   2.767   1.405   3.868
    1   AR   Ar  106   3.422   2.636   5.683
    1   AR   Ar  107   1.348   4.359   4.851
    1   AR   Ar  108   2.367   1.192   4.865
    1   AR   Ar  109   1.268   3.092   4.944
    1   AR   Ar  110   2.499   2.329   4.498
    1   AR   Ar  111   4.910   6.388   7.664
    1   AR   Ar  112   0.720   6.269   5.688
    1   AR   Ar  113   3.723   4.400  -1.137
    1   AR   Ar  114   2.491   6.848  -1.780
    1   AR   Ar  115   1.319   4.751   0.130
    1   AR   Ar  116   4.144   0.951   0.140
    1   AR   Ar  117   0.499   4.788   4.519
    1   AR   Ar  118   1.221   5.030   3.472
    1   AR   Ar  119   2.070   4.194   2.703
    1   AR   Ar  120   1.595   6.683   1.901
    1   AR   Ar  121   5.725   4.165   5.361
    1   AR   Ar  122   3.204   5.830   4.325
    1   AR   Ar  123   2.734   3.243   5.283
    1   AR   Ar  124   0.951   5.553   1.411
    1   AR   Ar  125   6.558   3.279   4.680
    1   AR   Ar  126   6.909   0.097   5.711
    1   AR   Ar  127   4.211   3.675   6.593
    1   AR   Ar  128   3.000   3.030   6.570
    1   AR   Ar  129   1.914   5.503   4.200
    1   AR   Ar  130   4.899   1.398  -3.865
    1   AR   Ar  131   4.859   4.742  -2.597
    1   AR   Ar  132   0.704   1.904  -0.129
    1   AR   Ar  133   4.438   0.319   4.415
    1   AR   Ar  134   3.774   1.339   3.885
    1   AR   Ar  135   6.362   1.704   3.569
    1   AR   Ar  136   6.528   6.939   2.363
    1   AR   Ar  137   2.472   3.978   6.106
    1   AR   Ar  138   5.345   1.579   5.939
    1   AR   Ar  139   5.642   2.729   5.531
    1   AR   Ar  140   4.116   6.523   4.857
    1   AR   Ar  141   3.840   5.025   4.847
    1   AR   Ar  142   4.871   0.143   6.583
    1   AR   Ar  143   6.429   6.592   6.844
    1   AR   Ar  144   6.487   1.708   5.158
    1   AR   Ar  145   4.490   5.012  -0.661
    1   AR   Ar  146   3.828   2.454   2.772
    1   AR   Ar  147   4.411   3.656  -1.635
    1   AR   Ar  148   3.181   6.357  -0.805
    1   AR   Ar  149   1.951   1.268  -0.361
    1   AR   Ar  150   2.300   2.652   2.887
    1   AR   Ar  151   3.015   2.450   3.645
    1   AR   Ar  152   1.357   2.762  -1.585
    1   AR   Ar  153   5.566   0.440   4.212
    1   AR   Ar  154   4.321   2.472   3.836
    1   AR   Ar  155   6.426   3.534   5.838
    1   AR   Ar  156   2.997   4.773   3.497
    1   AR   Ar  157   1.608   5.174   6.377
    1   AR   Ar  158   0.035   1.655   6.106
    1   AR   Ar  159   3.563   0.247   5.984
    1   AR   Ar  160   1.572   2.131   4.871
    1   AR   Ar  161   4.908   4.969   3.218
    1   AR   Ar  162   4.210   6.435  -0.541
    1   AR   Ar  163   5.632   4.828   1.055
    1   AR   Ar  164   1.913   5.819   2.215
    1   AR   Ar  165   3.623   3.205   0.863
    1   AR   Ar  166   2.678   3.433   4.198
    1   AR   Ar  167   5.625   6.430   3.568
    1   AR   Ar  168   5.522   3.992  -2.016
    1   AR   Ar  169   3.444   3.564   3.493
    1   AR   Ar  170   1.644   3.255   5.808
    1   AR   Ar  171   5.823   4.316   4.272
    1   AR   Ar  172   3.727   3.725   5.547
    1   AR   Ar  173   2.496   2.119   5.478
    1   AR   Ar  174   1.896   6.196   5.380
    1   AR   Ar  175   3.013   1.168   6.147
    1   AR   Ar  176   3.818   2.952   4.716
    1   AR   Ar  177   1.502   5.305  -0.778
    1   AR   Ar  178   2.863   5.980   0.567
    1   AR   Ar  179   3.010   0.048  -0.095
    1   AR   Ar  180   5.521   1.402  -5.838
    1   AR   Ar  181   7.105   5.566   1.939
    1   AR   Ar  182   0.909   5.708   2.581
    1   AR   Ar  183   4.694   5.161   2.200
    1   AR   Ar  184   4.056   6.940   0.417
    1   AR   Ar  185   2.691   4.767   4.612
    1   AR   Ar  186   2.233   5.363   3.130
    1   AR   Ar  187   3.702   6.658   3.855
    1   AR   Ar  188   2.474   0.101   2.438
    1   AR   Ar  189   5.388   3.569   6.400
    1   AR   Ar  190   2.520   6.330   3.564
    1   AR   Ar  191   2.568   6.109   7.708
    1   AR   Ar  192   4.477   4.930   6.703
    1   AR   Ar  193   2.631   6.395   1.546
    1   AR   Ar  194   5.366   4.436  -0.894
    1   AR   Ar  195   5.739   0.898   0.518
    1   AR   Ar  196   3.836   0.185  -0.774
    1   AR   Ar  197   4.197   1.721   0.876
    1   AR   Ar  198   5.363   0.277   1.723
    1   AR   Ar  199   2.195   0.269   3.602
    1   AR   Ar  200   4.680   3.188   0.407
    1   AR   Ar  201   6.470   5.821   2.750
    1   AR   Ar  202   5.502   1.416   4.758
    1   AR   Ar  203   0.077   6.726   3.287
    1   AR   Ar  204   5.324   6.263   6.413
    1   AR   Ar  205   6.406   1.418   1.857
    1   AR   Ar  206   6.221   0.850   5.595
    1   AR   Ar  207   0.455   2.131   4.984
    1   AR   Ar  208   0.822   5.653   4.114
    1   AR   Ar  209   7.069   2.098  -2.232
    1   AR   Ar  210   2.179   6.907   0.421
    1   AR   Ar  211   0.376   3.141   0.997
    1   AR   Ar  212   5.699   3.480   0.117
    1   AR   Ar  213   3.196   1.117   1.324
    1   AR   Ar  214   4.747   4.095   2.523
    1   AR   Ar  215   6.581   2.841   2.440
    1   AR   Ar  216   1.498   2.363   0.665
    1   AR   Ar  217   5.138   1.752   3.492
    1   AR   Ar  218   5.086   3.289   4.076
    1   AR   Ar  219   4.514   3.427   3.286
    1   AR   Ar  220   4.447   3.983   1.228
    1   AR   Ar  221   6.528   5.906   3.994
    1   AR   Ar  222   5.404   0.082   5.578
    1   AR   Ar  223   6.330   1.716   6.635
    1   AR   Ar  224   4.859   2.370   4.841
    1   AR   Ar  225   6.471   3.441   3.648
    1   AR   Ar  226   1.357   3.261   3.079
    1   AR   Ar  227   0.645   3.550   2.173
    1   AR   Ar  228   6.809   0.370   1.438
    1   AR   Ar  229   6.226   4.941  -1.023
    1   AR   Ar  230   3.425   3.932   4.523
    1   AR   Ar  231   4.087   1.772   1.928
    1   AR   Ar  232   5.606   3.013   1.359
    1   AR   Ar  233   6.957   2.563   4.013
    1   AR   Ar  234   5.816   2.435   4.415
    1   AR   Ar  235   6.407   0.281   3.599
    1   AR   Ar  236   5.025   5.185   5.703
    1   AR   Ar  237   4.880   2.556   6.666
    1   AR   Ar  238   5.615   5.081   6.530
    1   AR   Ar  239   0.400   4.909  10.313
    1   AR   Ar  240   7.060   2.527   6.915
    1   AR   Ar  241   2.191   5.914  -0.577
    1   AR   Ar  242   5.431   6.171   1.488
    1   AR   Ar  243   4.273   6.033   3.016
    1   AR   Ar  244   0.332   5.104   0.590
    1   AR   Ar  245   3.869   7.042   2.525
    1   AR   Ar  246   5.922   6.291  -0.735
    1   AR   Ar  247   6.564   3.965   1.697
    1   AR   Ar  248   4.850   5.934   0.262
    1   AR   Ar  249   4.444   6.663   1.558
    1   AR   Ar  250   4.839   5.379   4.221
    1   AR   Ar  251   4.667   4.107   4.980
    1   AR   Ar  252   3.329   4.722   2.516
    1   AR   Ar  253   6.141   2.820   6.550
    1   AR   Ar  254   4.783   2.360   9.785
    1   AR   Ar  255   2.847   5.645  10.116
    1   AR   Ar  256   6.035   5.173   3.426
    7.12000  7.12000 12.00000
Argon-slab step 4365
  256
    1   AR   Ar    1   4.888   3.281  -2.571
    1   AR   Ar    2   5.696   6.986   0.552
    1   AR   Ar    3   3.745   2.425  -1.525
    1   AR   Ar    4   1.941   1.328   0.644
    1   AR   Ar    5   6.213   5.998   0.281
    1   AR   Ar    6   1.692   1.948   1.844
    1   AR   Ar    7   5.501   4.162   3.252
    1   AR   Ar    8   5.063   1.517  -0.322
    1   AR   Ar    9   0.565   0.334   4.031
    1   AR   Ar   10   6.876   6.823   4.593
    1   AR   Ar   11   1.270   6.502   4.681
    1   AR   Ar   12   0.344   1.615   3.999
    1   AR   Ar   13   7.032   0.882   4.914
    1   AR   Ar   14   4.090   1.636   6.309
    1   AR   Ar   15   3.354   6.596   8.563
    1   AR   Ar   16   0.545   0.035   5.098
    1   AR   Ar   17   5.896   2.037   0.983
    1   AR   Ar   18   7.118   5.407  -0.483
    1   AR   Ar   19   4.194   4.000   0.038
    1   AR   Ar   20   6.715   4.338  -2.918
    1   AR   Ar   21   3.089   2.022   1.960
    1   AR   Ar   22   5.280   1.144   2.418
    1   AR   Ar   23   0.258   6.183   0.869
    1   AR   Ar   24   5.488   2.630   2.605
    1   AR   Ar   25   0.876   2.563   3.716
    1   AR   Ar   26   5.535   6.521   4.668
    1   AR   Ar   27   1.568   0.774   2.246
    1   AR   Ar   28   1.909   2.926   3.888
    1   AR   Ar   29   4.891   1.523   6.991
    1   AR   Ar   30   1.100   1.106   3.540
    1   AR   Ar   31   3.686   0.274   7.160
    1   AR   Ar   32   0.684   2.684   5.882
    1   AR   Ar   33   0.522   4.193  -0.020
    1   AR   Ar   34   0.594   4.658   2.264
    1   AR   Ar   35   5.723   4.778   2.426
    1   AR   Ar   36   5.950   3.076  -2.383
    1   AR   Ar   37   4.230   3.042   2.003
    1   AR   Ar   38   6.968   4.325   3.916
    1   AR   Ar   39   0.288   3.151   3.065
    1   AR   Ar   40   1.630   4.691   1.922
    1   AR   Ar   41   0.102   2.095   3.058
    1   AR   Ar   42   5.892   5.465   4.699
    1   AR   Ar   43   6.790   2.539   5.706
    1   AR   Ar   44   0.815   4.167   3.237
    1   AR   Ar   45   0.412   3.617   5.371
    1   AR   Ar   46   0.701   4.483   5.901
    1   AR   Ar   47   3.311   5.452   7.347
    1   AR   Ar   48   5.905   3.316   7.325
    1   AR   Ar   49   6.398   0.045  -1.419
    1   AR   Ar   50   3.653   4.935   0.008
    1   AR   Ar   51   5.922   3.598   2.491
    1   AR   Ar   52   5.146   2.782  -1.585
    1   AR   Ar   53   5.495   6.583   2.504
    1   AR   Ar   54   0.407   0.160   2.152
    1   AR   Ar   55   6.622   4.556   2.880
    1   AR   Ar   56   0.133   0.588   3.071
    1   AR   Ar   57   3.950   4.403   3.349
    1   AR   Ar   58   0.587   3.631   4.405
    1   AR   Ar   59   2.901   5.469   5.952
    1   AR   Ar   60   0.119   5.367   3.493
    1   AR   Ar   61   6.965   3.905   6.803
    1   AR   Ar   62   6.708   4.281   4.910
    1   AR   Ar   63   1.970   2.236   6.437
    1   AR   Ar   64   0.375   5.377   5.309
    1   AR   Ar   65   3.471   0.005   1.460
    1   AR   Ar   66   0.542   0.900   0.906
    1   AR   Ar   67   5.046   0.597  -0.821
    1   AR   Ar   68   1.141   0.951  -0.929
    1   AR   Ar   69   2.848   0.995   0.141
    1   AR   Ar   70   0.636   1.604   2.318
    1   AR   Ar   71   2.421   1.277   2.558
    1   AR   Ar   72   4.519   0.711   1.202
    1   AR   Ar   73   3.203   0.464   3.903
    1   AR   Ar   74   0.945   1.160   4.877
    1   AR   Ar   75   3.500   0.700   5.039
    1   AR   Ar   76   2.099   0.307   1.307
    1   AR   Ar   77   1.565   0.323   5.441
    1   AR   Ar   78   6.921   5.697   6.254
    1   AR   Ar   79   3.905   6.342   6.560
    1   AR   Ar   80   3.989   5.628   5.884
    1   AR   Ar   81   1.249   6.738   0.950
    1   AR   Ar   82   6.589   4.527   0.639
    1   AR   Ar   83   1.002   3.060  -0.139
    1   AR   Ar   84   0.800   4.278   1.020
    1   AR   Ar   85   1.928   3.462   0.816
    1   AR   Ar   86   1.946   5.435   1.003
    1   AR   Ar   87   3.072   3.473   2.220
    1   AR   Ar   88   2.963   5.349   1.406
    1   AR   Ar   89   0.043   2.380   1.705
    1   AR   Ar   90   3.344   1.785   4.991
    1   AR   Ar   91   1.642   1.903   2.902
    1   AR   Ar   92   1.714   3.406   1.782
    1   AR   Ar   93   1.442   1.452   5.842
    1   AR   Ar   94   1.027   7.102   9.154
    1   AR   Ar   95   4.265   1.455   5.139
    1   AR   Ar   96   2.619   6.924   4.474
    1   AR   Ar   97   3.825   1.717  -0.606
    1   AR   Ar   98   1.890   4.141   3.893
    1   AR   Ar   99   6.827   1.385   0.303
    1   AR   Ar  100   0.483   3.213  -1.950
    1   AR   Ar  101   3.610   6.041   1.982
    1   AR   Ar  102   3.735   1.190   2.859
    1   AR   Ar  103   2.583   4.473   0.630
    1   AR   Ar  104   3.163   5.257  -1.037
    1   AR   Ar  105   2.770   1.392   3.884
    1   AR   Ar  106   3.428   2.620   5.694
    1   AR   Ar  107   1.376   4.334   4.850
    1   AR   Ar  108   2.374   1.212   4.862
    1   AR   Ar  109   1.248   3.067   4.922
    1   AR   Ar  110   2.507   2.314   4.491
    1   AR   Ar  111   4.886   6.391   7.696
    1   AR   Ar  112   0.703   6.297   5.695
    1   AR   Ar  113   3.732   4.428  -1.148
    1   AR   Ar  114   2.515   6.835  -1.771
    1   AR   Ar  115   1.287   4.733   0.124
    1   AR   Ar  116   4.139   0.939   0.170
    1   AR   Ar  117   0.504   4.805   4.526
    1   AR   Ar  118   1.225   5.019   3.445
    1   AR   Ar  119   2.073   4.208   2.729
    1   AR   Ar  120   1.595   6.694   1.938
    1   AR   Ar  121   5.712   4.176   5.334
    1   AR   Ar  122   3.207   5.833   4.311
    1   AR   Ar  123   2.711   3.275   5.263
    1   AR   Ar  124   0.934   5.503   1.365
    1   AR   Ar  125   6.549   3.253   4.690
    1   AR   Ar  126   6.918   0.136   5.729
    1   AR   Ar  127   4.216   3.653   6.565
    1   AR   Ar  128   3.003   3.077   6.577
    1   AR   Ar  129   1.927   5.519   4.195
    1   AR   Ar  130   4.881   1.387  -3.853
    1   AR   Ar  131   4.867   4.754  -2.594
    1   AR   Ar  132   0.720   1.905  -0.127
    1   AR   Ar  133   4.436   0.321   4.427
    1   AR   Ar  134   3.770   1.373   3.889
    1   AR   Ar  135   6.371   1.690   3.564
    1   AR   Ar  136   6.536   6.965   2.322
    1   AR   Ar  137   2.488   3.971   6.119
    1   AR   Ar  138   5.325   1.597   5.934
    1   AR   Ar  139   5.650   2.729   5.521
    1   AR   Ar  140   4.138   6.519   4.855
    1   AR   Ar  141   3.864   5.019   4.847
    1   AR   Ar  142   4.891   0.155   6.608
    1   AR   Ar  143   6.441   6.582   6.822
    1   AR   Ar  144   6.511   1.736   5.166
    1   AR   Ar  145   4.467   5.025  -0.677
    1   AR   Ar  146   3.849   2.444   2.788
    1   AR   Ar  147   4.458   3.660  -1.577
    1   AR   Ar  148   3.205   6.365  -0.794
    1   AR   Ar  149   1.974   1.247  -0.344
    1   AR   Ar  150   2.280   2.678   2.883
    1   AR   Ar  151   3.026   2.438   3.603
    1   AR   Ar  152   1.339   2.746  -1.581
    1   AR   Ar  153   5.550   0.385   4.201
    1   AR   Ar  154   4.319   2.487   3.799
    1   AR   Ar  155   6.400   3.522   5.865
    1   AR   Ar  156   2.983   4.770   3.477
    1   AR   Ar  157   1.623   5.171   6.408
    1   AR   Ar  158   0.071   1.642   6.091
    1   AR   Ar  159   3.606   0.254   6.010
    1   AR   Ar  160   1.601   2.131   4.879
    1   AR   Ar  161   4.877   4.962   3.249
    1   AR   Ar  162   4.227   6.427  -0.532
    1   AR   Ar  163   5.621   4.832   1.072
    1   AR   Ar  164   1.908   5.821   2.223
    1   AR   Ar  165   3.632   3.225   0.879
    1   AR   Ar  166   2.647   3.420   4.176
    1   AR   Ar  167   5.599   6.391   3.556
    1   AR   Ar  168   5.494   4.016  -2.018
    1   AR   Ar  169   3.440   3.553   3.485
    1   AR   Ar  170   1.684   3.284   5.821
    1   AR   Ar  171   5.821   4.365   4.270
    1   AR   Ar  172   3.746   3.731   5.540
    1   AR   Ar  173   2.485   2.119   5.489
    1   AR   Ar  174   1.935   6.204   5.366
    1   AR   Ar  175   2.987   1.172   6.149
    1   AR   Ar  176   3.820   2.969   4.706
    1   AR   Ar  177   1.510   5.300  -0.773
    1   AR   Ar  178   2.875   5.996   0.586
    1   AR   Ar  179   3.005   0.024  -0.089
    1   AR   Ar  180   5.531   1.392  -5.860
    1   AR   Ar  181   0.027   5.553   1.928
    1   AR   Ar  182   0.889   5.707   2.542
    1   AR   Ar  183   4.667   5.153   2.167
    1   AR   Ar  184   4.063   6.952   0.452
    1   AR   Ar  185   2.698   4.757   4.600
    1   AR   Ar  186   2.244   5.362   3.114
    1   AR   Ar  187   3.692   6.662   3.851
    1   AR   Ar  188   2.477   0.099   2.450
    1   AR   Ar  189   5.401   3.590   6.409
    1   AR   Ar  190   2.487   6.361   3.559
    1   AR   Ar  191   2.577   6.122   7.689
    1   AR   Ar  192   4.477   4.929   6.721
    1   AR   Ar  193   2.595   6.442   1.522
    1   AR   Ar  194   5.352   4.446  -0.882
    1   AR   Ar  195   5.743   0.890   0.570
    1   AR   Ar  196   3.831   0.184  -0.761
    1   AR   Ar  197   4.186   1.760   0.874
    1   AR   Ar  198   5.360   0.282   1.722
    1   AR   Ar  199   2.183   0.262   3.595
    1   AR   Ar  200   4.689   3.176   0.386
    1   AR   Ar  201   6.481   5.842   2.742
    1   AR   Ar  202   5.473   1.376   4.777
    1   AR   Ar  203   0.053   6.759   3.272
    1   AR   Ar  204   5.286   6.256   6.397
    1   AR   Ar  205   6.399   1.410   1.880
    1   AR   Ar  206   6.243   0.844   5.579
    1   AR   Ar  207   0.418   2.140   4.933
    1   AR   Ar  208   0.865   5.676   4.165
    1   AR   Ar  209   7.074   2.079  -2.244
    1   AR   Ar  210   2.145   6.898   0.397
    1   AR   Ar  211   0.386   3.140   0.952
    1   AR   Ar  212   5.673   3.456   0.138
    1   AR   Ar  213   3.231   1.105   1.320
    1   AR   Ar  214   4.762   4.112   2.520
    1   AR   Ar  215   6.574   2.837   2.434
    1   AR   Ar  216   1.485   2.364   0.673
    1   AR   Ar  217   5.113   1.780   3.479
    1   AR   Ar  218   5.087   3.269   4.064
    1   AR   Ar  219   4.509   3.389   3.283
    1   AR   Ar  220   4.433   3.982   1.241
    1   AR   Ar  221   6.565   5.879   3.994
    1   AR   Ar  222   5.388   0.050   5.585
    1   AR   Ar  223   6.352   1.704   6.626
    1   AR   Ar  224   4.874   2.370   4.847
    1   AR   Ar  225   6.476   3.419   3.640
    1   AR   Ar  226   1.353   3.255   3.066
    1   AR   Ar  227   0.651   3.555   2.199
    1   AR   Ar  228   6.789   0.380   1.445
    1   AR   Ar  229   6.244   4.934  -1.016
    1   AR   Ar  230   3.417   3.943   4.520
    1   AR   Ar  231   4.104   1.781   1.907
    1   AR   Ar  232   5.633   3.034   1.393
    1   AR   Ar  233   6.969   2.582   3.998
    1   AR   Ar  234   5.783   2.408   4.434
    1   AR   Ar  235   6.412   0.275   3.580
    1   AR   Ar  236   4.998   5.212   5.705
    1   AR   Ar  237   4.881   2.596   6.661
    1   AR   Ar  238   5.622   5.105   6.497
    1   AR   Ar  239   0.418   4.891  10.306
    1   AR   Ar  240   7.072   2.511   6.891
    1   AR   Ar  241   2.179   5.927  -0.577
    1   AR   Ar  242   5.437   6.121   1.492
    1   AR   Ar  243   4.280   6.048   3.011
    1   AR   Ar  244   0.327   5.111   0.589
    1   AR   Ar  245   3.884   7.023   2.538
    1   AR   Ar  246   5.922   6.304  -0.738
    1   AR   Ar  247   6.583   3.982   1.703
    1   AR   Ar  248   4.859   5.921   0.296
    1   AR   Ar  249   4.482   6.633   1.530
    1   AR   Ar  250   4.854   5.440   4.194
    1   AR   Ar  251   4.660   4.072   4.991
    1   AR   Ar  252   3.299   4.701   2.483
    1   AR   Ar  253   6.140   2.792   6.560
    1   AR   Ar  254   4.812   2.362   9.778
    1   AR   Ar  255   2.816   5.624  10.112
    1   AR   Ar  256   6.019   5.174   3.417
    7.12000  7.12000 12.00000
Argon-slab step 4370
  256
    1   AR   Ar    1   4.948   3.262  -2.576
    1   AR   Ar    2   5.665   7.023   0.537
    1   AR   Ar    3   3.726   2.421  -1.492
    1   AR   Ar    4   1.937   1.315   0.623
    1   AR   Ar    5   6.218   5.999   0.259
    1   AR   Ar    6   1.694   1.931   1.844
    1   AR   Ar    7   5.540   4.149   3.263
    1   AR   Ar    8   5.025   1.512  -0.351
    1   AR   Ar    9   0.566   0.321   4.034
    1   AR   Ar   10   6.859   6.787   4.596
    1   AR   Ar   11   1.286   6.500   4.669
    1   AR   Ar   12   0.370   1.649   4.011
    1   AR   Ar   13   7.028   0.877   4.904
    1   AR   Ar   14   4.069   1.647   6.338
    1   AR   Ar   15   3.387   6.602   8.555
    1   AR   Ar   16   0.551   0.076   5.111
    1   AR   Ar   17   5.899   2.047   0.963
    1   AR   Ar   18   7.109   5.401  -0.449
    1   AR   Ar   19   4.196   4.009   0.042
    1   AR   Ar   20   6.710   4.341  -2.909
    1   AR   Ar   21   3.061   2.019   1.992
    1   AR   Ar   22   5.262   1.131   2.381
    1   AR   Ar   23   0.252   6.200   0.875
    1   AR   Ar   24   5.510   2.611   2.583
    1   AR   Ar   25   0.860   2.548   3.750
    1   AR   Ar   26   5.553   6.513   4.678
    1   AR   Ar   27   1.577   0.781   2.255
    1   AR   Ar   28   1.890   2.893   3.907
    1   AR   Ar   29   4.840   1.519   6.958
    1   AR   Ar   30   1.097   1.117   3.539
    1   AR   Ar   31   3.715   0.272   7.126
    1   AR   Ar   32   0.688   2.691   5.891
    1   AR   Ar   33   0.521   4.181  -0.019
    1   AR   Ar   34   0.577   4.668   2.262
    1   AR   Ar   35   5.743   4.765   2.408
    1   AR   Ar   36   5.944   3.063  -2.357
    1   AR   Ar   37   4.234   3.066   2.011
    1   AR   Ar   38   6.993   4.315   3.920
    1   AR   Ar   39   0.276   3.172   3.083
    1   AR   Ar   40   1.655   4.708   1.917
    1   AR   Ar   41   0.099   2.101   3.092
    1   AR   Ar   42   5.890   5.486   4.708
    1   AR   Ar   43   6.812   2.534   5.698
    1   AR   Ar   44   0.819   4.173   3.249
    1   AR   Ar   45   0.388   3.633   5.379
    1   AR   Ar   46   0.708   4.489   5.919
    1   AR   Ar   47   3.337   5.448   7.362
    1   AR   Ar   48   5.892   3.347   7.338
    1   AR   Ar   49   6.412   0.045  -1.402
    1   AR   Ar   50   3.649   4.952   0.003
    1   AR   Ar   51   5.911   3.613   2.505
    1   AR   Ar   52   5.118   2.791  -1.582
    1   AR   Ar   53   5.483   6.611   2.501
    1   AR   Ar   54   0.413   0.161   2.135
    1   AR   Ar   55   6.600   4.533   2.879
    1   AR   Ar   56   0.123   0.588   3.084
    1   AR   Ar   57   3.954   4.383   3.325
    1   AR   Ar   58   0.585   3.642   4.409
    1   AR   Ar   59   2.884   5.465   5.934
    1   AR   Ar   60   0.135   5.369   3.481
    1   AR   Ar   61   6.995   3.918   6.777
    1   AR   Ar   62   6.698   4.279   4.915
    1   AR   Ar   63   1.988   2.259   6.472
    1   AR   Ar   64   0.357   5.332   5.306
    1   AR   Ar   65   3.489   7.105   1.453
    1   AR   Ar   66   0.548   0.883   0.905
    1   AR   Ar   67   5.059   0.618  -0.835
    1   AR   Ar   68   1.160   0.985  -0.930
    1   AR   Ar   69   2.907   1.013   0.158
    1   AR   Ar   70   0.626   1.616   2.275
    1   AR   Ar   71   2.445   1.228   2.570
    1   AR   Ar   72   4.492   0.727   1.138
    1   AR   Ar   73   3.210   0.464   3.897
    1   AR   Ar   74   0.934   1.165   4.879
    1   AR   Ar   75   3.512   0.700   5.072
    1   AR   Ar   76   2.127   0.316   1.290
    1   AR   Ar   77   1.590   0.334   5.444
    1   AR   Ar   78   6.882   5.693   6.275
    1   AR   Ar   79   3.900   6.339   6.546
    1   AR   Ar   80   3.968   5.628   5.874
    1   AR   Ar   81   1.213   6.729   0.946
    1   AR   Ar   82   6.560   4.534   0.656
    1   AR   Ar   83   0.986   3.054  -0.148
    1   AR   Ar   84   0.830   4.279   0.995
    1   AR   Ar   85   1.960   3.448   0.782
    1   AR   Ar   86   1.947   5.422   1.014
    1   AR   Ar   87   3.094   3.462   2.232
    1   AR   Ar   88   2.949   5.331   1.386
    1   AR   Ar   89   0.029   2.378   1.684
    1   AR   Ar   90   3.346   1.790   4.994
    1   AR   Ar   91   1.658   1.896   2.869
    1   AR   Ar   92   1.661   3.423   1.768
    1   AR   Ar   93   1.465   1.446   5.872
    1   AR   Ar   94   1.010   7.105   9.128
    1   AR   Ar   95   4.290   1.474   5.154
    1   AR   Ar   96   2.615   6.927   4.475
    1   AR   Ar   97   3.806   1.705  -0.595
    1   AR   Ar   98   1.874   4.179   3.899
    1   AR   Ar   99   6.816   1.408   0.291
    1   AR   Ar  100   0.462   3.225  -1.967
    1   AR   Ar  101   3.611   6.029   2.001
    1   AR   Ar  102   3.752   1.175   2.865
    1   AR   Ar  103   2.581   4.476   0.636
    1   AR   Ar  104   3.158   5.286  -1.022
    1   AR   Ar  105   2.762   1.385   3.897
    1   AR   Ar  106   3.427   2.609   5.717
    1   AR   Ar  107   1.395   4.317   4.845
    1   AR   Ar  108   2.376   1.232   4.863
    1   AR   Ar  109   1.227   3.044   4.897
    1   AR   Ar  110   2.524   2.301   4.481
    1   AR   Ar  111   4.862   6.393   7.725
    1   AR   Ar  112   0.689   6.328   5.705
    1   AR   Ar  113   3.744   4.449  -1.159
    1   AR   Ar  114   2.539   6.821  -1.761
    1   AR   Ar  115   1.274   4.728   0.123
    1   AR   Ar  116   4.133   0.924   0.198
    1   AR   Ar  117   0.510   4.811   4.526
    1   AR   Ar  118   1.226   5.026   3.439
    1   AR   Ar  119   2.078   4.220   2.759
    1   AR   Ar  120   1.589   6.719   1.975
    1   AR   Ar  121   5.697   4.188   5.308
    1   AR   Ar  122   3.208   5.834   4.298
    1   AR   Ar  123   2.708   3.293   5.246
    1   AR   Ar  124   0.922   5.452   1.324
    1   AR   Ar  125   6.543   3.218   4.703
    1   AR   Ar  126   6.926   0.167   5.756
    1   AR   Ar  127   4.222   3.630   6.537
    1   AR   Ar  128   3.006   3.124   6.582
    1   AR   Ar  129   1.942   5.534   4.191
    1   AR   Ar  130   4.864   1.375  -3.841
    1   AR   Ar  131   4.875   4.765  -2.590
    1   AR   Ar  132   0.738   1.906  -0.125
    1   AR   Ar  133   4.433   0.326   4.438
    1   AR   Ar  134   3.777   1.410   3.898
    1   AR   Ar  135   6.379   1.673   3.566
    1   AR   Ar  136   6.541   6.989   2.287
    1   AR   Ar  137   2.504   3.965   6.131
    1   AR   Ar  138   5.306   1.616   5.928
    1   AR   Ar  139   5.660   2.730   5.513
    1   AR   Ar  140   4.160   6.512   4.854
    1   AR   Ar  141   3.888   5.013   4.846
    1   AR   Ar  142   4.908   0.168   6.633
    1   AR   Ar  143   6.452   6.571   6.799
    1   AR   Ar  144   6.526   1.766   5.170
    1   AR   Ar  145   4.446   5.041  -0.692
    1   AR   Ar  146   3.867   2.433   2.807
    1   AR   Ar  147   4.505   3.665  -1.519
    1   AR   Ar  148   3.218   6.348  -0.795
    1   AR   Ar  149   1.995   1.227  -0.338
    1   AR   Ar  150   2.264   2.711   2.875
    1   AR   Ar  151   3.043   2.427   3.558
    1   AR   Ar  152   1.324   2.727  -1.576
    1   AR   Ar  153   5.533   0.330   4.192
    1   AR   Ar  154   4.316   2.498   3.764
    1   AR   Ar  155   6.376   3.514   5.890
    1   AR   Ar  156   2.968   4.764   3.465
    1   AR   Ar  157   1.638   5.167   6.437
    1   AR   Ar  158   0.117   1.627   6.069
    1   AR   Ar  159   3.650   0.259   6.037
    1   AR   Ar  160   1.623   2.120   4.888
    1   AR   Ar  161   4.844   4.961   3.277
    1   AR   Ar  162   4.251   6.409  -0.519
    1   AR   Ar  163   5.609   4.837   1.090
    1   AR   Ar  164   1.909   5.809   2.230
    1   AR   Ar  165   3.620   3.271   0.871
    1   AR   Ar  166   2.630   3.415   4.160
    1   AR   Ar  167   5.574   6.350   3.546
    1   AR   Ar  168   5.466   4.040  -2.019
    1   AR   Ar  169   3.431   3.533   3.477
    1   AR   Ar  170   1.726   3.312   5.839
    1   AR   Ar  171   5.819   4.414   4.267
    1   AR   Ar  172   3.763   3.737   5.535
    1   AR   Ar  173   2.472   2.120   5.509
    1   AR   Ar  174   1.981   6.209   5.359
    1   AR   Ar  175   2.966   1.172   6.149
    1   AR   Ar  176   3.823   2.984   4.695
    1   AR   Ar  177   1.498   5.277  -0.774
    1   AR   Ar  178   2.887   6.013   0.599
    1   AR   Ar  179   3.006   7.114  -0.084
    1   AR   Ar  180   5.542   1.381  -5.882
    1   AR   Ar  181   0.065   5.540   1.915
    1   AR   Ar  182   0.869   5.706   2.506
    1   AR   Ar  183   4.640   5.146   2.133
    1   AR   Ar  184   4.070   6.965   0.487
    1   AR   Ar  185   2.706   4.749   4.595
    1   AR   Ar  186   2.250   5.362   3.097
    1   AR   Ar  187   3.685   6.660   3.846
    1   AR   Ar  188   2.460   0.099   2.469
    1   AR   Ar  189   5.412   3.612   6.415
    1   AR   Ar  190   2.455   6.389   3.553
    1   AR   Ar  191   2.605   6.143   7.689
    1   AR   Ar  192   4.477   4.929   6.738
    1   AR   Ar  193   2.558   6.489   1.498
    1   AR   Ar  194   5.334   4.452  -0.870
    1   AR   Ar  195   5.772   0.928   0.612
    1   AR   Ar  196   3.823   0.195  -0.750
    1   AR   Ar  197   4.175   1.800   0.868
    1   AR   Ar  198   5.358   0.285   1.722
    1   AR   Ar  199   2.168   0.259   3.586
    1   AR   Ar  200   4.697   3.157   0.370
    1   AR   Ar  201   6.492   5.866   2.734
    1   AR   Ar  202   5.445   1.337   4.797
    1   AR   Ar  203   0.030   6.773   3.260
    1   AR   Ar  204   5.248   6.247   6.380
    1   AR   Ar  205   6.392   1.403   1.902
    1   AR   Ar  206   6.251   0.842   5.566
    1   AR   Ar  207   0.380   2.151   4.884
    1   AR   Ar  208   0.908   5.707   4.218
    1   AR   Ar  209   7.080   2.060  -2.255
    1   AR   Ar  210   2.109   6.886   0.373
    1   AR   Ar  211   0.398   3.140   0.907
    1   AR   Ar  212   5.650   3.434   0.160
    1   AR   Ar  213   3.267   1.093   1.316
    1   AR   Ar  214   4.773   4.128   2.514
    1   AR   Ar  215   6.571   2.829   2.430
    1   AR   Ar  216   1.470   2.365   0.682
    1   AR   Ar  217   5.090   1.809   3.466
    1   AR   Ar  218   5.096   3.249   4.064
    1   AR   Ar  219   4.497   3.354   3.268
    1   AR   Ar  220   4.419   3.980   1.254
    1   AR   Ar  221   6.597   5.863   3.999
    1   AR   Ar  222   5.373   0.018   5.592
    1   AR   Ar  223   6.365   1.693   6.620
    1   AR   Ar  224   4.878   2.368   4.855
    1   AR   Ar  225   6.475   3.394   3.627
    1   AR   Ar  226   1.351   3.251   3.048
    1   AR   Ar  227   0.659   3.561   2.220
    1   AR   Ar  228   6.766   0.394   1.448
    1   AR   Ar  229   6.267   4.930  -1.010
    1   AR   Ar  230   3.417   3.957   4.514
    1   AR   Ar  231   4.124   1.788   1.891
    1   AR   Ar  232   5.609   3.025   1.403
    1   AR   Ar  233   6.981   2.597   3.986
    1   AR   Ar  234   5.762   2.382   4.449
    1   AR   Ar  235   6.389   0.284   3.581
    1   AR   Ar  236   4.967   5.240   5.700
    1   AR   Ar  237   4.884   2.635   6.655
    1   AR   Ar  238   5.633   5.128   6.468
    1   AR   Ar  239   0.435   4.873  10.298
    1   AR   Ar  240   7.065   2.474   6.896
    1   AR   Ar  241   2.189   5.958  -0.570
    1   AR   Ar  242   5.444   6.071   1.494
    1   AR   Ar  243   4.291   6.065   2.994
    1   AR   Ar  244   0.336   5.120   0.577
    1   AR   Ar  245   3.899   7.003   2.551
    1   AR   Ar  246   5.922   6.317  -0.740
    1   AR   Ar  247   6.576   3.970   1.693
    1   AR   Ar  248   4.868   5.909   0.330
    1   AR   Ar  249   4.480   6.607   1.520
    1   AR   Ar  250   4.870   5.502   4.171
    1   AR   Ar  251   4.651   4.055   4.994
    1   AR   Ar  252   3.269   4.679   2.446
    1   AR   Ar  253   6.137   2.752   6.553
    1   AR   Ar  254   4.841   2.364   9.771
    1   AR   Ar  255   2.785   5.604  10.108
    1   AR   Ar  256   5.998   5.175   3.414
    7.12000  7.12000 12.00000
Argon-slab step 4375
  256
    1   AR   Ar    1   5.003   3.243  -2.583
    1   AR   Ar    2   5.634   7.038   0.528
    1   AR   Ar    3   3.709   2.416  -1.458
    1   AR   Ar    4   1.932   1.302   0.620
    1   AR   Ar    5   6.224   5.999   0.240
    1   AR   Ar    6   1.696   1.913   1.839
    1   AR   Ar    7   5.579   4.137   3.283
    1   AR   Ar    8   4.985   1.512  -0.376
    1   AR   Ar    9   0.565   0.308   4.039
    1   AR   Ar   10   6.838   6.751   4.597
    1   AR   Ar   11   1.303   6.510   4.659
    1   AR   Ar   12   0.391   1.676   4.023
    1   AR   Ar   13   7.025   0.872   4.886
    1   AR   Ar   14   4.041   1.659   6.359
    1   AR   Ar   15   3.420   6.608   8.546
    1   AR   Ar   16   0.570   0.119   5.118
    1   AR   Ar   17   5.903   2.056   0.944
    1   AR   Ar   18   7.100   5.395  -0.413
    1   AR   Ar   19   4.196   4.020   0.044
    1   AR   Ar   20   6.705   4.343  -2.900
    1   AR   Ar   21   3.031   2.015   2.026
    1   AR   Ar   22   5.243   1.120   2.344
    1   AR   Ar   23   0.243   6.217   0.883
    1   AR   Ar   24   5.530   2.589   2.563
    1   AR   Ar   25   0.852   2.534   3.785
    1   AR   Ar   26   5.572   6.503   4.689
    1   AR   Ar   27   1.581   0.786   2.262
    1   AR   Ar   28   1.876   2.887   3.908
    1   AR   Ar   29   4.797   1.513   6.931
    1   AR   Ar   30   1.100   1.126   3.532
    1   AR   Ar   31   3.744   0.269   7.091
    1   AR   Ar   32   0.697   2.698   5.901
    1   AR   Ar   33   0.499   4.153  -0.024
    1   AR   Ar   34   0.560   4.677   2.261
    1   AR   Ar   35   5.755   4.755   2.384
    1   AR   Ar   36   5.942   3.049  -2.330
    1   AR   Ar   37   4.238   3.092   2.017
    1   AR   Ar   38   7.012   4.303   3.914
    1   AR   Ar   39   0.260   3.194   3.106
    1   AR   Ar   40   1.678   4.728   1.910
    1   AR   Ar   41   0.101   2.108   3.123
    1   AR   Ar   42   5.887   5.503   4.718
    1   AR   Ar   43   6.829   2.532   5.717
    1   AR   Ar   44   0.824   4.165   3.289
    1   AR   Ar   45   0.360   3.648   5.395
    1   AR   Ar   46   0.715   4.496   5.938
    1   AR   Ar   47   3.366   5.443   7.374
    1   AR   Ar   48   5.879   3.381   7.357
    1   AR   Ar   49   6.426   0.044  -1.385
    1   AR   Ar   50   3.641   4.970  -0.000
    1   AR   Ar   51   5.900   3.629   2.513
    1   AR   Ar   52   5.092   2.798  -1.580
    1   AR   Ar   53   5.472   6.638   2.498
    1   AR   Ar   54   0.427   0.162   2.119
    1   AR   Ar   55   6.590   4.504   2.880
    1   AR   Ar   56   0.118   0.611   3.092
    1   AR   Ar   57   3.963   4.366   3.300
    1   AR   Ar   58   0.581   3.659   4.368
    1   AR   Ar   59   2.866   5.462   5.914
    1   AR   Ar   60   0.162   5.361   3.459
    1   AR   Ar   61   7.023   3.929   6.750
    1   AR   Ar   62   6.691   4.278   4.924
    1   AR   Ar   63   2.006   2.282   6.506
    1   AR   Ar   64   0.336   5.300   5.320
    1   AR   Ar   65   3.500   0.030   1.441
    1   AR   Ar   66   0.530   0.898   0.900
    1   AR   Ar   67   5.070   0.632  -0.850
    1   AR   Ar   68   1.177   1.018  -0.932
    1   AR   Ar   69   2.970   1.033   0.178
    1   AR   Ar   70   0.617   1.626   2.232
    1   AR   Ar   71   2.477   1.181   2.583
    1   AR   Ar   72   4.466   0.742   1.080
    1   AR   Ar   73   3.219   0.464   3.890
    1   AR   Ar   74   0.926   1.171   4.880
    1   AR   Ar   75   3.504   0.704   5.080
    1   AR   Ar   76   2.156   0.329   1.275
    1   AR   Ar   77   1.592   0.325   5.470
    1   AR   Ar   78   6.843   5.688   6.294
    1   AR   Ar   79   3.896   6.346   6.542
    1   AR   Ar   80   3.949   5.618   5.855
    1   AR   Ar   81   1.177   6.719   0.944
    1   AR   Ar   82   6.531   4.539   0.673
    1   AR   Ar   83   0.970   3.049  -0.156
    1   AR   Ar   84   0.862   4.277   0.976
    1   AR   Ar   85   1.993   3.434   0.743
    1   AR   Ar   86   1.948   5.408   1.025
    1   AR   Ar   87   3.117   3.451   2.246
    1   AR   Ar   88   2.936   5.310   1.371
    1   AR   Ar   89   0.016   2.375   1.661
    1   AR   Ar   90   3.342   1.797   4.994
    1   AR   Ar   91   1.667   1.884   2.844
    1   AR   Ar   92   1.608   3.439   1.761
    1   AR   Ar   93   1.488   1.440   5.899
    1   AR   Ar   94   0.989   7.114   9.114
    1   AR   Ar   95   4.323   1.491   5.172
    1   AR   Ar   96   2.611   6.928   4.481
    1   AR   Ar   97   3.789   1.691  -0.583
    1   AR   Ar   98   1.858   4.218   3.903
    1   AR   Ar   99   6.804   1.430   0.281
    1   AR   Ar  100   0.439   3.237  -1.985
    1   AR   Ar  101   3.611   6.004   2.005
    1   AR   Ar  102   3.767   1.159   2.869
    1   AR   Ar  103   2.565   4.492   0.655
    1   AR   Ar  104   3.151   5.317  -1.006
    1   AR   Ar  105   2.746   1.384   3.907
    1   AR   Ar  106   3.425   2.604   5.734
    1   AR   Ar  107   1.370   4.341   4.818
    1   AR   Ar  108   2.376   1.251   4.867
    1   AR   Ar  109   1.207   3.022   4.874
    1   AR   Ar  110   2.549   2.290   4.468
    1   AR   Ar  111   4.854   6.431   7.727
    1   AR   Ar  112   0.675   6.356   5.715
    1   AR   Ar  113   3.757   4.463  -1.171
    1   AR   Ar  114   2.563   6.807  -1.750
    1   AR   Ar  115   1.283   4.738   0.128
    1   AR   Ar  116   4.141   0.946   0.194
    1   AR   Ar  117   0.519   4.805   4.512
    1   AR   Ar  118   1.215   5.058   3.464
    1   AR   Ar  119   2.084   4.231   2.794
    1   AR   Ar  120   1.578   6.753   2.011
    1   AR   Ar  121   5.680   4.199   5.286
    1   AR   Ar  122   3.206   5.831   4.286
    1   AR   Ar  123   2.722   3.281   5.256
    1   AR   Ar  124   0.917   5.402   1.289
    1   AR   Ar  125   6.537   3.184   4.722
    1   AR   Ar  126   6.935   0.187   5.793
    1   AR   Ar  127   4.229   3.607   6.508
    1   AR   Ar  128   3.009   3.170   6.588
    1   AR   Ar  129   1.962   5.549   4.186
    1   AR   Ar  130   4.846   1.363  -3.829
    1   AR   Ar  131   4.883   4.775  -2.586
    1   AR   Ar  132   0.756   1.907  -0.121
    1   AR   Ar  133   4.429   0.334   4.448
    1   AR   Ar  134   3.791   1.450   3.912
    1   AR   Ar  135   6.386   1.651   3.576
    1   AR   Ar  136   6.540   7.007   2.259
    1   AR   Ar  137   2.523   3.963   6.142
    1   AR   Ar  138   5.287   1.636   5.921
    1   AR   Ar  139   5.672   2.731   5.507
    1   AR   Ar  140   4.180   6.502   4.855
    1   AR   Ar  141   3.911   5.006   4.846
    1   AR   Ar  142   4.924   0.181   6.657
    1   AR   Ar  143   6.463   6.561   6.775
    1   AR   Ar  144   6.518   1.785   5.172
    1   AR   Ar  145   4.429   5.061  -0.705
    1   AR   Ar  146   3.883   2.421   2.824
    1   AR   Ar  147   4.552   3.673  -1.461
    1   AR   Ar  148   3.228   6.330  -0.796
    1   AR   Ar  149   2.017   1.207  -0.349
    1   AR   Ar  150   2.255   2.749   2.865
    1   AR   Ar  151   3.063   2.416   3.514
    1   AR   Ar  152   1.310   2.708  -1.569
    1   AR   Ar  153   5.513   0.278   4.184
    1   AR   Ar  154   4.310   2.503   3.739
    1   AR   Ar  155   6.355   3.511   5.910
    1   AR   Ar  156   2.956   4.752   3.460
    1   AR   Ar  157   1.654   5.163   6.465
    1   AR   Ar  158   0.167   1.610   6.043
    1   AR   Ar  159   3.696   0.264   6.066
    1   AR   Ar  160   1.637   2.099   4.899
    1   AR   Ar  161   4.813   4.961   3.301
    1   AR   Ar  162   4.257   6.398  -0.511
    1   AR   Ar  163   5.596   4.843   1.110
    1   AR   Ar  164   1.914   5.790   2.233
    1   AR   Ar  165   3.609   3.317   0.864
    1   AR   Ar  166   2.628   3.420   4.151
    1   AR   Ar  167   5.551   6.307   3.539
    1   AR   Ar  168   5.438   4.065  -2.017
    1   AR   Ar  169   3.419   3.506   3.467
    1   AR   Ar  170   1.767   3.337   5.857
    1   AR   Ar  171   5.818   4.465   4.262
    1   AR   Ar  172   3.779   3.745   5.540
    1   AR   Ar  173   2.458   2.121   5.535
    1   AR   Ar  174   2.031   6.212   5.354
    1   AR   Ar  175   2.969   1.157   6.153
    1   AR   Ar  176   3.825   2.995   4.684
    1   AR   Ar  177   1.478   5.247  -0.779
    1   AR   Ar  178   2.899   6.033   0.607
    1   AR   Ar  179   3.011   7.082  -0.078
    1   AR   Ar  180   5.523   1.388  -5.884
    1   AR   Ar  181   0.095   5.528   1.900
    1   AR   Ar  182   0.878   5.729   2.525
    1   AR   Ar  183   4.614   5.141   2.100
    1   AR   Ar  184   4.076   6.977   0.522
    1   AR   Ar  185   2.717   4.743   4.605
    1   AR   Ar  186   2.251   5.364   3.081
    1   AR   Ar  187   3.682   6.657   3.838
    1   AR   Ar  188   2.447   0.090   2.487
    1   AR   Ar  189   5.421   3.635   6.418
    1   AR   Ar  190   2.450   6.380   3.543
    1   AR   Ar  191   2.632   6.166   7.690
    1   AR   Ar  192   4.494   4.938   6.720
    1   AR   Ar  193   2.522   6.533   1.477
    1   AR   Ar  194   5.313   4.454  -0.858
    1   AR   Ar  195   5.802   0.971   0.656
    1   AR   Ar  196   3.816   0.211  -0.740
    1   AR   Ar  197   4.163   1.839   0.856
    1   AR   Ar  198   5.358   0.286   1.718
    1   AR   Ar  199   2.152   0.262   3.575
    1   AR   Ar  200   4.700   3.134   0.358
    1   AR   Ar  201   6.503   5.892   2.727
    1   AR   Ar  202   5.416   1.299   4.818
    1   AR   Ar  203   0.008   6.763   3.249
    1   AR   Ar  204   5.210   6.238   6.363
    1   AR   Ar  205   6.386   1.395   1.923
    1   AR   Ar  206   6.241   0.847   5.557
    1   AR   Ar  207   0.344   2.168   4.842
    1   AR   Ar  208   0.943   5.733   4.265
    1   AR   Ar  209   7.086   2.043  -2.267
    1   AR   Ar  210   2.072   6.871   0.349
    1   AR   Ar  211   0.411   3.142   0.862
    1   AR   Ar  212   5.633   3.415   0.181
    1   AR   Ar  213   3.304   1.081   1.312
    1   AR   Ar  214   4.784   4.143   2.505
    1   AR   Ar  215   6.581   2.816   2.425
    1   AR   Ar  216   1.455   2.367   0.692
    1   AR   Ar  217   5.068   1.837   3.453
    1   AR   Ar  218   5.087   3.246   4.074
    1   AR   Ar  219   4.482   3.327   3.240
    1   AR   Ar  220   4.406   3.978   1.266
    1   AR   Ar  221   6.620   5.857   4.011
    1   AR   Ar  222   5.359   7.107   5.599
    1   AR   Ar  223   6.371   1.680   6.613
    1   AR   Ar  224   4.866   2.367   4.868
    1   AR   Ar  225   6.468   3.376   3.609
    1   AR   Ar  226   1.350   3.249   3.029
    1   AR   Ar  227   0.667   3.570   2.235
    1   AR   Ar  228   6.742   0.413   1.442
    1   AR   Ar  229   6.292   4.927  -1.003
    1   AR   Ar  230   3.419   3.952   4.491
    1   AR   Ar  231   4.145   1.795   1.881
    1   AR   Ar  232   5.585   3.017   1.415
    1   AR   Ar  233   6.991   2.607   3.979
    1   AR   Ar  234   5.755   2.356   4.457
    1   AR   Ar  235   6.356   0.297   3.590
    1   AR   Ar  236   4.934   5.268   5.690
    1   AR   Ar  237   4.888   2.675   6.647
    1   AR   Ar  238   5.648   5.151   6.443
    1   AR   Ar  239   0.449   4.881  10.285
    1   AR   Ar  240   7.058   2.432   6.906
    1   AR   Ar  241   2.208   5.998  -0.560
    1   AR   Ar  242   5.452   6.020   1.496
    1   AR   Ar  243   4.302   6.082   2.975
    1   AR   Ar  244   0.360   5.127   0.546
    1   AR   Ar  245   3.913   6.985   2.563
    1   AR   Ar  246   5.921   6.330  -0.743
    1   AR   Ar  247   6.563   3.951   1.680
    1   AR   Ar  248   4.878   5.897   0.365
    1   AR   Ar  249   4.467   6.583   1.514
    1   AR   Ar  250   4.887   5.567   4.150
    1   AR   Ar  251   4.638   4.064   4.987
    1   AR   Ar  252   3.239   4.657   2.407
    1   AR   Ar  253   6.147   2.741   6.552
    1   AR   Ar  254   4.870   2.367   9.764
    1   AR   Ar  255   2.780   5.601  10.112
    1   AR   Ar  256   5.971   5.178   3.416
    7.12000  7.12000 12.00000
Argon-slab step 4380
  256
    1   AR   Ar    1   5.047   3.226  -2.592
    1   AR   Ar    2   5.603   7.045   0.520
    1   AR   Ar    3   3.693   2.413  -1.425
    1   AR   Ar    4   1.925   1.291   0.632
    1   AR   Ar    5   6.230   5.999   0.222
    1   AR   Ar    6   1.699   1.895   1.826
    1   AR   Ar    7   5.613   4.130   3.313
    1   AR   Ar    8   4.943   1.520  -0.396
    1   AR   Ar    9   0.564   0.294   4.047
    1   AR   Ar   10   6.817   6.718   4.597
    1   AR   Ar   11   1.328   6.543   4.658
    1   AR   Ar   12   0.404   1.682   4.026
    1   AR   Ar   13   7.023   0.869   4.862
    1   AR   Ar   14   3.997   1.675   6.367
    1   AR   Ar   15   3.453   6.613   8.536
    1   AR   Ar   16   0.598   0.159   5.121
    1   AR   Ar   17   5.908   2.064   0.925
    1   AR   Ar   18   7.091   5.390  -0.378
    1   AR   Ar   19   4.195   4.034   0.045
    1   AR   Ar   20   6.699   4.345  -2.891
    1   AR   Ar   21   3.002   2.012   2.062
    1   AR   Ar   22   5.239   1.108   2.308
    1   AR   Ar   23   0.232   6.233   0.890
    1   AR   Ar   24   5.548   2.567   2.542
    1   AR   Ar   25   0.856   2.527   3.818
    1   AR   Ar   26   5.589   6.491   4.702
    1   AR   Ar   27   1.579   0.789   2.267
    1   AR   Ar   28   1.851   2.880   3.902
    1   AR   Ar   29   4.770   1.505   6.913
    1   AR   Ar   30   1.085   1.133   3.540
    1   AR   Ar   31   3.775   0.265   7.062
    1   AR   Ar   32   0.713   2.704   5.911
    1   AR   Ar   33   0.465   4.117  -0.031
    1   AR   Ar   34   0.546   4.682   2.262
    1   AR   Ar   35   5.759   4.748   2.354
    1   AR   Ar   36   5.951   3.034  -2.299
    1   AR   Ar   37   4.242   3.119   2.024
    1   AR   Ar   38   7.023   4.289   3.898
    1   AR   Ar   39   0.245   3.215   3.134
    1   AR   Ar   40   1.699   4.749   1.900
    1   AR   Ar   41   0.105   2.114   3.142
    1   AR   Ar   42   5.884   5.516   4.728
    1   AR   Ar   43   6.841   2.535   5.755
    1   AR   Ar   44   0.823   4.148   3.327
    1   AR   Ar   45   0.330   3.659   5.414
    1   AR   Ar   46   0.725   4.504   5.958
    1   AR   Ar   47   3.396   5.438   7.385
    1   AR   Ar   48   5.866   3.416   7.379
    1   AR   Ar   49   6.439   0.044  -1.367
    1   AR   Ar   50   3.630   4.988  -0.003
    1   AR   Ar   51   5.892   3.641   2.511
    1   AR   Ar   52   5.068   2.802  -1.577
    1   AR   Ar   53   5.461   6.664   2.493
    1   AR   Ar   54   0.470   0.156   2.097
    1   AR   Ar   55   6.590   4.470   2.883
    1   AR   Ar   56   0.116   0.649   3.096
    1   AR   Ar   57   3.973   4.349   3.273
    1   AR   Ar   58   0.577   3.678   4.301
    1   AR   Ar   59   2.846   5.458   5.895
    1   AR   Ar   60   0.193   5.347   3.430
    1   AR   Ar   61   7.051   3.940   6.720
    1   AR   Ar   62   6.666   4.297   4.930
    1   AR   Ar   63   2.024   2.307   6.539
    1   AR   Ar   64   0.311   5.277   5.347
    1   AR   Ar   65   3.508   0.088   1.430
    1   AR   Ar   66   0.512   0.913   0.895
    1   AR   Ar   67   5.082   0.637  -0.868
    1   AR   Ar   68   1.189   1.051  -0.935
    1   AR   Ar   69   3.035   1.053   0.199
    1   AR   Ar   70   0.610   1.635   2.190
    1   AR   Ar   71   2.514   1.137   2.599
    1   AR   Ar   72   4.446   0.753   1.040
    1   AR   Ar   73   3.230   0.465   3.882
    1   AR   Ar   74   0.921   1.177   4.881
    1   AR   Ar   75   3.481   0.712   5.070
    1   AR   Ar   76   2.181   0.350   1.260
    1   AR   Ar   77   1.588   0.311   5.500
    1   AR   Ar   78   6.806   5.681   6.311
    1   AR   Ar   79   3.891   6.360   6.544
    1   AR   Ar   80   3.929   5.603   5.829
    1   AR   Ar   81   1.189   6.729   0.935
    1   AR   Ar   82   6.513   4.537   0.681
    1   AR   Ar   83   0.956   3.048  -0.159
    1   AR   Ar   84   0.895   4.272   0.965
    1   AR   Ar   85   2.025   3.421   0.703
    1   AR   Ar   86   1.949   5.396   1.035
    1   AR   Ar   87   3.140   3.440   2.261
    1   AR   Ar   88   2.926   5.288   1.361
    1   AR   Ar   89   0.005   2.369   1.634
    1   AR   Ar   90   3.337   1.804   4.991
    1   AR   Ar   91   1.654   1.883   2.846
    1   AR   Ar   92   1.555   3.456   1.755
    1   AR   Ar   93   1.512   1.436   5.924
    1   AR   Ar   94   0.968   0.002   9.100
    1   AR   Ar   95   4.359   1.504   5.191
    1   AR   Ar   96   2.606   6.927   4.490
    1   AR   Ar   97   3.773   1.683  -0.590
    1   AR   Ar   98   1.844   4.257   3.903
    1   AR   Ar   99   6.792   1.453   0.272
    1   AR   Ar  100   0.415   3.248  -2.004
    1   AR   Ar  101   3.611   5.980   2.009
    1   AR   Ar  102   3.782   1.145   2.870
    1   AR   Ar  103   2.549   4.510   0.673
    1   AR   Ar  104   3.142   5.347  -0.988
    1   AR   Ar  105   2.725   1.385   3.912
    1   AR   Ar  106   3.422   2.614   5.718
    1   AR   Ar  107   1.347   4.362   4.797
    1   AR   Ar  108   2.374   1.267   4.875
    1   AR   Ar  109   1.188   3.003   4.853
    1   AR   Ar  110   2.555   2.291   4.460
    1   AR   Ar  111   4.844   6.469   7.727
    1   AR   Ar  112   0.661   6.383   5.725
    1   AR   Ar  113   3.767   4.469  -1.186
    1   AR   Ar  114   2.588   6.792  -1.737
    1   AR   Ar  115   1.305   4.756   0.136
    1   AR   Ar  116   4.141   0.971   0.173
    1   AR   Ar  117   0.530   4.793   4.485
    1   AR   Ar  118   1.210   5.099   3.489
    1   AR   Ar  119   2.091   4.241   2.829
    1   AR   Ar  120   1.564   6.792   2.045
    1   AR   Ar  121   5.663   4.209   5.268
    1   AR   Ar  122   3.202   5.826   4.276
    1   AR   Ar  123   2.736   3.268   5.266
    1   AR   Ar  124   0.925   5.356   1.266
    1   AR   Ar  125   6.529   3.152   4.745
    1   AR   Ar  126   6.948   0.199   5.837
    1   AR   Ar  127   4.236   3.584   6.480
    1   AR   Ar  128   3.004   3.207   6.599
    1   AR   Ar  129   1.986   5.563   4.181
    1   AR   Ar  130   4.829   1.352  -3.818
    1   AR   Ar  131   4.890   4.787  -2.583
    1   AR   Ar  132   0.775   1.907  -0.117
    1   AR   Ar  133   4.425   0.345   4.458
    1   AR   Ar  134   3.810   1.493   3.928
    1   AR   Ar  135   6.397   1.639   3.581
    1   AR   Ar  136   6.534   7.019   2.242
    1   AR   Ar  137   2.544   3.968   6.152
    1   AR   Ar  138   5.269   1.658   5.912
    1   AR   Ar  139   5.686   2.732   5.502
    1   AR   Ar  140   4.201   6.488   4.856
    1   AR   Ar  141   3.935   4.999   4.845
    1   AR   Ar  142   4.938   0.194   6.681
    1   AR   Ar  143   6.471   6.554   6.750
    1   AR   Ar  144   6.503   1.797   5.166
    1   AR   Ar  145   4.417   5.086  -0.716
    1   AR   Ar  146   3.897   2.407   2.833
    1   AR   Ar  147   4.597   3.685  -1.402
    1   AR   Ar  148   3.238   6.316  -0.799
    1   AR   Ar  149   2.043   1.186  -0.370
    1   AR   Ar  150   2.251   2.790   2.852
    1   AR   Ar  151   3.083   2.405   3.472
    1   AR   Ar  152   1.296   2.687  -1.561
    1   AR   Ar  153   5.489   0.231   4.177
    1   AR   Ar  154   4.300   2.499   3.729
    1   AR   Ar  155   6.338   3.513   5.923
    1   AR   Ar  156   2.947   4.735   3.461
    1   AR   Ar  157   1.669   5.159   6.492
    1   AR   Ar  158   0.220   1.593   6.015
    1   AR   Ar  159   3.742   0.268   6.088
    1   AR   Ar  160   1.644   2.071   4.909
    1   AR   Ar  161   4.786   4.963   3.321
    1   AR   Ar  162   4.260   6.388  -0.503
    1   AR   Ar  163   5.581   4.850   1.133
    1   AR   Ar  164   1.919   5.770   2.228
    1   AR   Ar  165   3.600   3.363   0.857
    1   AR   Ar  166   2.615   3.403   4.163
    1   AR   Ar  167   5.529   6.264   3.533
    1   AR   Ar  168   5.413   4.088  -2.012
    1   AR   Ar  169   3.406   3.474   3.454
    1   AR   Ar  170   1.802   3.357   5.871
    1   AR   Ar  171   5.818   4.516   4.256
    1   AR   Ar  172   3.793   3.757   5.559
    1   AR   Ar  173   2.447   2.122   5.565
    1   AR   Ar  174   2.083   6.214   5.351
    1   AR   Ar  175   2.990   1.166   6.157
    1   AR   Ar  176   3.827   3.003   4.673
    1   AR   Ar  177   1.456   5.216  -0.785
    1   AR   Ar  178   2.911   6.056   0.609
    1   AR   Ar  179   3.018   7.051  -0.070
    1   AR   Ar  180   5.498   1.399  -5.881
    1   AR   Ar  181   0.113   5.519   1.881
    1   AR   Ar  182   0.889   5.752   2.548
    1   AR   Ar  183   4.615   5.124   2.066
    1   AR   Ar  184   4.082   6.989   0.554
    1   AR   Ar  185   2.725   4.738   4.613
    1   AR   Ar  186   2.249   5.366   3.070
    1   AR   Ar  187   3.681   6.653   3.829
    1   AR   Ar  188   2.462   0.049   2.496
    1   AR   Ar  189   5.428   3.657   6.419
    1   AR   Ar  190   2.447   6.367   3.533
    1   AR   Ar  191   2.659   6.191   7.693
    1   AR   Ar  192   4.515   4.950   6.693
    1   AR   Ar  193   2.488   6.568   1.459
    1   AR   Ar  194   5.340   4.493  -0.846
    1   AR   Ar  195   5.832   1.016   0.701
    1   AR   Ar  196   3.809   0.231  -0.729
    1   AR   Ar  197   4.152   1.879   0.839
    1   AR   Ar  198   5.358   0.283   1.710
    1   AR   Ar  199   2.134   0.271   3.564
    1   AR   Ar  200   4.692   3.105   0.350
    1   AR   Ar  201   6.514   5.918   2.721
    1   AR   Ar  202   5.389   1.261   4.840
    1   AR   Ar  203   7.105   6.739   3.240
    1   AR   Ar  204   5.171   6.228   6.346
    1   AR   Ar  205   6.379   1.388   1.945
    1   AR   Ar  206   6.217   0.858   5.549
    1   AR   Ar  207   0.312   2.196   4.819
    1   AR   Ar  208   0.965   5.743   4.303
    1   AR   Ar  209   7.093   2.027  -2.277
    1   AR   Ar  210   2.035   6.853   0.326
    1   AR   Ar  211   0.426   3.144   0.817
    1   AR   Ar  212   5.627   3.399   0.200
    1   AR   Ar  213   3.342   1.072   1.306
    1   AR   Ar  214   4.795   4.157   2.497
    1   AR   Ar  215   6.598   2.808   2.399
    1   AR   Ar  216   1.461   2.384   0.687
    1   AR   Ar  217   5.049   1.864   3.440
    1   AR   Ar  218   5.064   3.256   4.089
    1   AR   Ar  219   4.467   3.312   3.200
    1   AR   Ar  220   4.395   3.975   1.280
    1   AR   Ar  221   6.637   5.856   4.025
    1   AR   Ar  222   5.344   7.076   5.607
    1   AR   Ar  223   6.374   1.664   6.604
    1   AR   Ar  224   4.842   2.367   4.884
    1   AR   Ar  225   6.451   3.366   3.588
    1   AR   Ar  226   1.378   3.237   3.028
    1   AR   Ar  227   0.674   3.582   2.247
    1   AR   Ar  228   6.719   0.439   1.426
    1   AR   Ar  229   6.317   4.925  -0.997
    1   AR   Ar  230   3.427   3.952   4.470
    1   AR   Ar  231   4.165   1.801   1.878
    1   AR   Ar  232   5.561   3.011   1.428
    1   AR   Ar  233   6.995   2.615   3.979
    1   AR   Ar  234   5.763   2.329   4.458
    1   AR   Ar  235   6.325   0.310   3.598
    1   AR   Ar  236   4.901   5.295   5.675
    1   AR   Ar  237   4.893   2.713   6.637
    1   AR   Ar  238   5.665   5.174   6.421
    1   AR   Ar  239   0.461   4.897  10.270
    1   AR   Ar  240   7.058   2.391   6.917
    1   AR   Ar  241   2.230   6.040  -0.547
    1   AR   Ar  242   5.459   5.969   1.498
    1   AR   Ar  243   4.316   6.095   2.956
    1   AR   Ar  244   0.374   5.132   0.505
    1   AR   Ar  245   3.925   6.968   2.573
    1   AR   Ar  246   5.921   6.344  -0.747
    1   AR   Ar  247   6.550   3.932   1.668
    1   AR   Ar  248   4.888   5.887   0.400
    1   AR   Ar  249   4.456   6.560   1.509
    1   AR   Ar  250   4.905   5.634   4.134
    1   AR   Ar  251   4.626   4.074   4.978
    1   AR   Ar  252   3.209   4.635   2.367
    1   AR   Ar  253   6.162   2.749   6.559
    1   AR   Ar  254   4.889   2.361   9.748
    1   AR   Ar  255   2.793   5.610  10.122
    1   AR   Ar  256   5.942   5.183   3.420
    7.12000  7.12000 12.00000
Argon-slab step 4385
  256
    1   AR   Ar    1   5.075   3.213  -2.606
    1   AR   Ar    2   5.570   7.050   0.513
    1   AR   Ar    3   3.677   2.409  -1.391
    1   AR   Ar    4   1.917   1.280   0.653
    1   AR   Ar    5   6.236   5.997   0.207
    1   AR   Ar    6   1.696   1.892   1.818
    1   AR   Ar    7   5.641   4.126   3.350
    1   AR   Ar    8   4.899   1.535  -0.411
    1   AR   Ar    9   0.561   0.280   4.055
    1   AR   Ar   10   6.797   6.689   4.599
    1   AR   Ar   11   1.360   6.598   4.664
    1   AR   Ar   12   0.409   1.666   4.024
    1   AR   Ar   13   7.017   0.869   4.834
    1   AR   Ar   14   3.939   1.694   6.361
    1   AR   Ar   15   3.485   6.618   8.524
    1   AR   Ar   16   0.616   0.113   5.104
    1   AR   Ar   17   5.914   2.073   0.907
    1   AR   Ar   18   7.078   5.388  -0.349
    1   AR   Ar   19   4.195   4.048   0.047
    1   AR   Ar   20   6.693   4.346  -2.881
    1   AR   Ar   21   2.973   2.009   2.099
    1   AR   Ar   22   5.256   1.097   2.274
    1   AR   Ar   23   0.220   6.245   0.899
    1   AR   Ar   24   5.564   2.545   2.522
    1   AR   Ar   25   0.875   2.531   3.848
    1   AR   Ar   26   5.606   6.479   4.716
    1   AR   Ar   27   1.574   0.792   2.271
    1   AR   Ar   28   1.814   2.863   3.893
    1   AR   Ar   29   4.758   1.493   6.905
    1   AR   Ar   30   1.071   1.135   3.547
    1   AR   Ar   31   3.808   0.261   7.047
    1   AR   Ar   32   0.736   2.711   5.920
    1   AR   Ar   33   0.437   4.096  -0.033
    1   AR   Ar   34   0.535   4.682   2.267
    1   AR   Ar   35   5.758   4.743   2.322
    1   AR   Ar   36   5.974   3.017  -2.262
    1   AR   Ar   37   4.247   3.146   2.031
    1   AR   Ar   38   7.019   4.278   3.871
    1   AR   Ar   39   0.232   3.236   3.162
    1   AR   Ar   40   1.719   4.768   1.891
    1   AR   Ar   41   0.112   2.118   3.145
    1   AR   Ar   42   5.881   5.522   4.739
    1   AR   Ar   43   6.849   2.544   5.795
    1   AR   Ar   44   0.822   4.129   3.362
    1   AR   Ar   45   0.298   3.668   5.432
    1   AR   Ar   46   0.735   4.511   5.980
    1   AR   Ar   47   3.428   5.433   7.394
    1   AR   Ar   48   5.853   3.451   7.401
    1   AR   Ar   49   6.451   0.043  -1.349
    1   AR   Ar   50   3.617   5.008  -0.004
    1   AR   Ar   51   5.888   3.645   2.478
    1   AR   Ar   52   5.048   2.800  -1.576
    1   AR   Ar   53   5.451   6.689   2.489
    1   AR   Ar   54   0.515   0.151   2.075
    1   AR   Ar   55   6.596   4.434   2.889
    1   AR   Ar   56   0.116   0.694   3.097
    1   AR   Ar   57   3.987   4.370   3.273
    1   AR   Ar   58   0.577   3.689   4.237
    1   AR   Ar   59   2.825   5.455   5.875
    1   AR   Ar   60   0.225   5.329   3.398
    1   AR   Ar   61   7.079   3.949   6.689
    1   AR   Ar   62   6.639   4.322   4.934
    1   AR   Ar   63   2.041   2.333   6.572
    1   AR   Ar   64   0.283   5.261   5.379
    1   AR   Ar   65   3.516   0.137   1.421
    1   AR   Ar   66   0.495   0.928   0.892
    1   AR   Ar   67   5.094   0.636  -0.889
    1   AR   Ar   68   1.198   1.085  -0.940
    1   AR   Ar   69   3.099   1.072   0.220
    1   AR   Ar   70   0.605   1.642   2.149
    1   AR   Ar   71   2.554   1.096   2.616
    1   AR   Ar   72   4.434   0.759   1.024
    1   AR   Ar   73   3.243   0.469   3.874
    1   AR   Ar   74   0.903   1.196   4.877
    1   AR   Ar   75   3.459   0.721   5.059
    1   AR   Ar   76   2.202   0.386   1.244
    1   AR   Ar   77   1.586   0.298   5.529
    1   AR   Ar   78   6.771   5.670   6.324
    1   AR   Ar   79   3.888   6.377   6.549
    1   AR   Ar   80   3.906   5.587   5.801
    1   AR   Ar   81   1.211   6.745   0.928
    1   AR   Ar   82   6.509   4.527   0.674
    1   AR   Ar   83   0.945   3.051  -0.158
    1   AR   Ar   84   0.927   4.264   0.959
    1   AR   Ar   85   2.056   3.409   0.663
    1   AR   Ar   86   1.950   5.403   1.027
    1   AR   Ar   87   3.163   3.429   2.278
    1   AR   Ar   88   2.922   5.278   1.347
    1   AR   Ar   89   7.115   2.362   1.604
    1   AR   Ar   90   3.318   1.802   5.003
    1   AR   Ar   91   1.658   1.882   2.852
    1   AR   Ar   92   1.509   3.474   1.747
    1   AR   Ar   93   1.536   1.432   5.945
    1   AR   Ar   94   0.966   0.017   9.092
    1   AR   Ar   95   4.394   1.513   5.212
    1   AR   Ar   96   2.601   6.925   4.499
    1   AR   Ar   97   3.758   1.675  -0.600
    1   AR   Ar   98   1.833   4.295   3.898
    1   AR   Ar   99   6.781   1.475   0.264
    1   AR   Ar  100   0.390   3.259  -2.022
    1   AR   Ar  101   3.612   5.957   2.012
    1   AR   Ar  102   3.795   1.131   2.870
    1   AR   Ar  103   2.532   4.527   0.691
    1   AR   Ar  104   3.132   5.367  -0.970
    1   AR   Ar  105   2.706   1.366   3.898
    1   AR   Ar  106   3.422   2.624   5.702
    1   AR   Ar  107   1.334   4.376   4.785
    1   AR   Ar  108   2.371   1.280   4.889
    1   AR   Ar  109   1.172   2.991   4.841
    1   AR   Ar  110   2.549   2.301   4.455
    1   AR   Ar  111   4.822   6.484   7.738
    1   AR   Ar  112   0.647   6.409   5.734
    1   AR   Ar  113   3.774   4.471  -1.204
    1   AR   Ar  114   2.584   6.796  -1.742
    1   AR   Ar  115   1.332   4.775   0.147
    1   AR   Ar  116   4.135   0.999   0.130
    1   AR   Ar  117   0.535   4.787   4.452
    1   AR   Ar  118   1.212   5.141   3.514
    1   AR   Ar  119   2.097   4.251   2.865
    1   AR   Ar  120   1.547   6.830   2.077
    1   AR   Ar  121   5.644   4.217   5.253
    1   AR   Ar  122   3.195   5.818   4.267
    1   AR   Ar  123   2.749   3.256   5.274
    1   AR   Ar  124   0.943   5.313   1.256
    1   AR   Ar  125   6.520   3.121   4.773
    1   AR   Ar  126   6.963   0.207   5.884
    1   AR   Ar  127   4.246   3.560   6.456
    1   AR   Ar  128   2.962   3.218   6.635
    1   AR   Ar  129   2.015   5.575   4.175
    1   AR   Ar  130   4.814   1.344  -3.829
    1   AR   Ar  131   4.895   4.800  -2.581
    1   AR   Ar  132   0.794   1.906  -0.112
    1   AR   Ar  133   4.419   0.358   4.467
    1   AR   Ar  134   3.829   1.536   3.946
    1   AR   Ar  135   6.426   1.665   3.551
    1   AR   Ar  136   6.524   7.025   2.235
    1   AR   Ar  137   2.568   3.986   6.158
    1   AR   Ar  138   5.252   1.681   5.902
    1   AR   Ar  139   5.702   2.731   5.498
    1   AR   Ar  140   4.221   6.472   4.858
    1   AR   Ar  141   3.958   4.991   4.844
    1   AR   Ar  142   4.951   0.206   6.705
    1   AR   Ar  143   6.459   6.548   6.744
    1   AR   Ar  144   6.484   1.806   5.154
    1   AR   Ar  145   4.410   5.117  -0.724
    1   AR   Ar  146   3.910   2.392   2.828
    1   AR   Ar  147   4.638   3.704  -1.341
    1   AR   Ar  148   3.249   6.312  -0.802
    1   AR   Ar  149   2.074   1.165  -0.396
    1   AR   Ar  150   2.258   2.827   2.838
    1   AR   Ar  151   3.100   2.394   3.434
    1   AR   Ar  152   1.282   2.667  -1.552
    1   AR   Ar  153   5.460   0.189   4.170
    1   AR   Ar  154   4.287   2.491   3.740
    1   AR   Ar  155   6.327   3.521   5.929
    1   AR   Ar  156   2.941   4.712   3.467
    1   AR   Ar  157   1.684   5.154   6.517
    1   AR   Ar  158   0.273   1.575   5.983
    1   AR   Ar  159   3.789   0.273   6.095
    1   AR   Ar  160   1.643   2.040   4.919
    1   AR   Ar  161   4.767   4.968   3.338
    1   AR   Ar  162   4.266   6.376  -0.492
    1   AR   Ar  163   5.564   4.858   1.158
    1   AR   Ar  164   1.909   5.758   2.240
    1   AR   Ar  165   3.590   3.409   0.850
    1   AR   Ar  166   2.605   3.385   4.183
    1   AR   Ar  167   5.510   6.221   3.528
    1   AR   Ar  168   5.391   4.108  -2.004
    1   AR   Ar  169   3.393   3.439   3.440
    1   AR   Ar  170   1.830   3.369   5.882
    1   AR   Ar  171   5.819   4.567   4.253
    1   AR   Ar  172   3.802   3.769   5.574
    1   AR   Ar  173   2.438   2.125   5.597
    1   AR   Ar  174   2.136   6.216   5.348
    1   AR   Ar  175   3.011   1.177   6.160
    1   AR   Ar  176   3.830   3.008   4.663
    1   AR   Ar  177   1.435   5.187  -0.795
    1   AR   Ar  178   2.922   6.080   0.608
    1   AR   Ar  179   3.026   7.021  -0.057
    1   AR   Ar  180   5.473   1.411  -5.877
    1   AR   Ar  181   0.122   5.517   1.860
    1   AR   Ar  182   0.902   5.775   2.575
    1   AR   Ar  183   4.636   5.099   2.031
    1   AR   Ar  184   4.088   6.999   0.582
    1   AR   Ar  185   2.732   4.735   4.620
    1   AR   Ar  186   2.245   5.366   3.066
    1   AR   Ar  187   3.684   6.648   3.818
    1   AR   Ar  188   2.479   0.008   2.505
    1   AR   Ar  189   5.431   3.681   6.418
    1   AR   Ar  190   2.445   6.353   3.522
    1   AR   Ar  191   2.687   6.216   7.695
    1   AR   Ar  192   4.537   4.963   6.664
    1   AR   Ar  193   2.459   6.590   1.446
    1   AR   Ar  194   5.377   4.540  -0.835
    1   AR   Ar  195   5.861   1.059   0.747
    1   AR   Ar  196   3.803   0.254  -0.718
    1   AR   Ar  197   4.140   1.918   0.818
    1   AR   Ar  198   5.359   0.276   1.696
    1   AR   Ar  199   2.115   0.283   3.553
    1   AR   Ar  200   4.674   3.073   0.347
    1   AR   Ar  201   6.525   5.944   2.716
    1   AR   Ar  202   5.362   1.224   4.861
    1   AR   Ar  203   7.083   6.709   3.232
    1   AR   Ar  204   5.131   6.217   6.328
    1   AR   Ar  205   6.373   1.381   1.966
    1   AR   Ar  206   6.185   0.871   5.542
    1   AR   Ar  207   0.282   2.236   4.820
    1   AR   Ar  208   0.972   5.737   4.334
    1   AR   Ar  209   7.099   2.012  -2.288
    1   AR   Ar  210   2.000   6.835   0.302
    1   AR   Ar  211   0.441   3.147   0.774
    1   AR   Ar  212   5.631   3.386   0.220
    1   AR   Ar  213   3.379   1.072   1.300
    1   AR   Ar  214   4.754   4.156   2.504
    1   AR   Ar  215   6.615   2.802   2.377
    1   AR   Ar  216   1.473   2.407   0.678
    1   AR   Ar  217   5.034   1.888   3.424
    1   AR   Ar  218   5.043   3.266   4.107
    1   AR   Ar  219   4.455   3.308   3.150
    1   AR   Ar  220   4.385   3.973   1.293
    1   AR   Ar  221   6.650   5.856   4.038
    1   AR   Ar  222   5.329   7.047   5.614
    1   AR   Ar  223   6.374   1.646   6.592
    1   AR   Ar  224   4.812   2.371   4.901
    1   AR   Ar  225   6.426   3.364   3.565
    1   AR   Ar  226   1.396   3.231   3.026
    1   AR   Ar  227   0.675   3.595   2.259
    1   AR   Ar  228   6.696   0.471   1.401
    1   AR   Ar  229   6.343   4.923  -0.991
    1   AR   Ar  230   3.441   3.957   4.450
    1   AR   Ar  231   4.185   1.805   1.879
    1   AR   Ar  232   5.537   3.006   1.441
    1   AR   Ar  233   6.990   2.622   3.985
    1   AR   Ar  234   5.778   2.302   4.455
    1   AR   Ar  235   6.310   0.300   3.603
    1   AR   Ar  236   4.871   5.320   5.657
    1   AR   Ar  237   4.900   2.749   6.627
    1   AR   Ar  238   5.683   5.197   6.399
    1   AR   Ar  239   0.473   4.912  10.256
    1   AR   Ar  240   7.093   2.367   6.896
    1   AR   Ar  241   2.251   6.082  -0.532
    1   AR   Ar  242   5.436   5.994   1.500
    1   AR   Ar  243   4.301   6.107   2.979
    1   AR   Ar  244   0.379   5.130   0.460
    1   AR   Ar  245   3.935   6.956   2.580
    1   AR   Ar  246   5.919   6.358  -0.752
    1   AR   Ar  247   6.537   3.914   1.656
    1   AR   Ar  248   4.901   5.896   0.420
    1   AR   Ar  249   4.457   6.546   1.521
    1   AR   Ar  250   4.922   5.702   4.121
    1   AR   Ar  251   4.614   4.084   4.967
    1   AR   Ar  252   3.179   4.612   2.328
    1   AR   Ar  253   6.168   2.754   6.568
    1   AR   Ar  254   4.880   2.333   9.777
    1   AR   Ar  255   2.806   5.620  10.131
    1   AR   Ar  256   5.913   5.191   3.423
    7.12000  7.12000 12.00000
Argon-slab step 4390
  256
    1   AR   Ar    1   5.091   3.204  -2.625
    1   AR   Ar    2   5.537   7.056   0.508
    1   AR   Ar    3   3.663   2.408  -1.358
    1   AR   Ar    4   1.908   1.271   0.676
    1   AR   Ar    5   6.244   5.995   0.195
    1   AR   Ar    6   1.693   1.893   1.809
    1   AR   Ar    7   5.664   4.123   3.386
    1   AR   Ar    8   4.855   1.555  -0.424
    1   AR   Ar    9   0.557   0.267   4.061
    1   AR   Ar   10   6.779   6.668   4.605
    1   AR   Ar   11   1.398   6.660   4.672
    1   AR   Ar   12   0.400   1.639   4.024
    1   AR   Ar   13   7.009   0.869   4.805
    1   AR   Ar   14   3.875   1.716   6.348
    1   AR   Ar   15   3.517   6.622   8.511
    1   AR   Ar   16   0.633   0.069   5.087
    1   AR   Ar   17   5.921   2.088   0.891
    1   AR   Ar   18   7.055   5.393  -0.339
    1   AR   Ar   19   4.195   4.062   0.048
    1   AR   Ar   20   6.686   4.346  -2.870
    1   AR   Ar   21   2.945   2.005   2.137
    1   AR   Ar   22   5.272   1.093   2.243
    1   AR   Ar   23   0.206   6.256   0.908
    1   AR   Ar   24   5.578   2.523   2.503
    1   AR   Ar   25   0.894   2.541   3.876
    1   AR   Ar   26   5.621   6.468   4.732
    1   AR   Ar   27   1.568   0.796   2.275
    1   AR   Ar   28   1.780   2.843   3.885
    1   AR   Ar   29   4.754   1.479   6.902
    1   AR   Ar   30   1.068   1.130   3.547
    1   AR   Ar   31   3.842   0.257   7.053
    1   AR   Ar   32   0.764   2.718   5.928
    1   AR   Ar   33   0.456   4.124  -0.027
    1   AR   Ar   34   0.527   4.678   2.275
    1   AR   Ar   35   5.753   4.739   2.289
    1   AR   Ar   36   6.009   2.997  -2.221
    1   AR   Ar   37   4.251   3.173   2.039
    1   AR   Ar   38   6.996   4.271   3.834
    1   AR   Ar   39   0.225   3.256   3.190
    1   AR   Ar   40   1.737   4.784   1.882
    1   AR   Ar   41   0.126   2.124   3.133
    1   AR   Ar   42   5.880   5.518   4.751
    1   AR   Ar   43   6.856   2.555   5.833
    1   AR   Ar   44   0.825   4.115   3.388
    1   AR   Ar   45   0.295   3.673   5.395
    1   AR   Ar   46   0.748   4.517   6.002
    1   AR   Ar   47   3.461   5.429   7.402
    1   AR   Ar   48   5.841   3.485   7.422
    1   AR   Ar   49   6.463   0.042  -1.330
    1   AR   Ar   50   3.601   5.028  -0.004
    1   AR   Ar   51   5.883   3.646   2.441
    1   AR   Ar   52   5.030   2.794  -1.576
    1   AR   Ar   53   5.440   6.711   2.486
    1   AR   Ar   54   0.552   0.153   2.058
    1   AR   Ar   55   6.607   4.397   2.895
    1   AR   Ar   56   0.116   0.739   3.098
    1   AR   Ar   57   3.993   4.392   3.279
    1   AR   Ar   58   0.585   3.686   4.186
    1   AR   Ar   59   2.803   5.450   5.854
    1   AR   Ar   60   0.216   5.325   3.386
    1   AR   Ar   61   7.106   3.957   6.656
    1   AR   Ar   62   6.618   4.346   4.938
    1   AR   Ar   63   2.058   2.360   6.604
    1   AR   Ar   64   0.253   5.248   5.410
    1   AR   Ar   65   3.524   0.165   1.418
    1   AR   Ar   66   0.477   0.943   0.889
    1   AR   Ar   67   5.106   0.629  -0.911
    1   AR   Ar   68   1.202   1.118  -0.946
    1   AR   Ar   69   3.159   1.091   0.242
    1   AR   Ar   70   0.600   1.648   2.110
    1   AR   Ar   71   2.596   1.056   2.636
    1   AR   Ar   72   4.429   0.756   1.027
    1   AR   Ar   73   3.256   0.475   3.867
    1   AR   Ar   74   0.866   1.235   4.867
    1   AR   Ar   75   3.445   0.698   5.056
    1   AR   Ar   76   2.219   0.435   1.226
    1   AR   Ar   77   1.586   0.285   5.557
    1   AR   Ar   78   6.737   5.653   6.333
    1   AR   Ar   79   3.886   6.394   6.556
    1   AR   Ar   80   3.878   5.571   5.773
    1   AR   Ar   81   1.222   6.760   0.925
    1   AR   Ar   82   6.507   4.517   0.667
    1   AR   Ar   83   0.934   3.053  -0.159
    1   AR   Ar   84   0.958   4.253   0.958
    1   AR   Ar   85   2.086   3.398   0.623
    1   AR   Ar   86   1.952   5.423   1.005
    1   AR   Ar   87   3.184   3.452   2.281
    1   AR   Ar   88   2.926   5.290   1.324
    1   AR   Ar   89   7.108   2.353   1.567
    1   AR   Ar   90   3.302   1.801   5.014
    1   AR   Ar   91   1.698   1.876   2.851
    1   AR   Ar   92   1.473   3.490   1.732
    1   AR   Ar   93   1.561   1.430   5.965
    1   AR   Ar   94   0.990   0.042   9.092
    1   AR   Ar   95   4.420   1.514   5.236
    1   AR   Ar   96   2.596   6.921   4.509
    1   AR   Ar   97   3.743   1.666  -0.610
    1   AR   Ar   98   1.825   4.332   3.890
    1   AR   Ar   99   6.760   1.487   0.250
    1   AR   Ar  100   0.365   3.269  -2.041
    1   AR   Ar  101   3.612   5.934   2.016
    1   AR   Ar  102   3.807   1.118   2.870
    1   AR   Ar  103   2.514   4.542   0.708
    1   AR   Ar  104   3.120   5.370  -0.955
    1   AR   Ar  105   2.687   1.334   3.872
    1   AR   Ar  106   3.429   2.631   5.691
    1   AR   Ar  107   1.333   4.381   4.785
    1   AR   Ar  108   2.368   1.288   4.906
    1   AR   Ar  109   1.174   2.998   4.858
    1   AR   Ar  110   2.545   2.315   4.450
    1   AR   Ar  111   4.791   6.485   7.756
    1   AR   Ar  112   0.632   6.430   5.744
    1   AR   Ar  113   3.778   4.468  -1.222
    1   AR   Ar  114   2.561   6.811  -1.760
    1   AR   Ar  115   1.363   4.794   0.160
    1   AR   Ar  116   4.127   1.027   0.076
    1   AR   Ar  117   0.529   4.789   4.414
    1   AR   Ar  118   1.221   5.180   3.535
    1   AR   Ar  119   2.103   4.261   2.898
    1   AR   Ar  120   1.529   6.867   2.108
    1   AR   Ar  121   5.624   4.225   5.243
    1   AR   Ar  122   3.185   5.807   4.259
    1   AR   Ar  123   2.760   3.247   5.278
    1   AR   Ar  124   0.967   5.272   1.254
    1   AR   Ar  125   6.511   3.093   4.805
    1   AR   Ar  126   6.979   0.213   5.931
    1   AR   Ar  127   4.257   3.538   6.437
    1   AR   Ar  128   2.925   3.218   6.674
    1   AR   Ar  129   2.048   5.586   4.171
    1   AR   Ar  130   4.800   1.339  -3.856
    1   AR   Ar  131   4.897   4.816  -2.582
    1   AR   Ar  132   0.813   1.904  -0.111
    1   AR   Ar  133   4.411   0.374   4.477
    1   AR   Ar  134   3.846   1.577   3.966
    1   AR   Ar  135   6.443   1.685   3.538
    1   AR   Ar  136   6.513   7.027   2.235
    1   AR   Ar  137   2.570   3.991   6.168
    1   AR   Ar  138   5.236   1.705   5.892
    1   AR   Ar  139   5.718   2.730   5.494
    1   AR   Ar  140   4.241   6.454   4.860
    1   AR   Ar  141   3.980   4.984   4.843
    1   AR   Ar  142   4.962   0.217   6.727
    1   AR   Ar  143   6.440   6.548   6.744
    1   AR   Ar  144   6.461   1.815   5.140
    1   AR   Ar  145   4.407   5.153  -0.730
    1   AR   Ar  146   3.922   2.388   2.832
    1   AR   Ar  147   4.676   3.729  -1.277
    1   AR   Ar  148   3.234   6.311  -0.822
    1   AR   Ar  149   2.110   1.144  -0.420
    1   AR   Ar  150   2.279   2.859   2.819
    1   AR   Ar  151   3.068   2.378   3.443
    1   AR   Ar  152   1.267   2.647  -1.544
    1   AR   Ar  153   5.430   0.163   4.161
    1   AR   Ar  154   4.271   2.485   3.768
    1   AR   Ar  155   6.323   3.536   5.926
    1   AR   Ar  156   2.937   4.685   3.476
    1   AR   Ar  157   1.700   5.149   6.541
    1   AR   Ar  158   0.306   1.575   5.968
    1   AR   Ar  159   3.836   0.280   6.080
    1   AR   Ar  160   1.634   2.008   4.927
    1   AR   Ar  161   4.758   4.979   3.353
    1   AR   Ar  162   4.273   6.364  -0.479
    1   AR   Ar  163   5.547   4.866   1.184
    1   AR   Ar  164   1.889   5.757   2.255
    1   AR   Ar  165   3.580   3.454   0.841
    1   AR   Ar  166   2.600   3.372   4.205
    1   AR   Ar  167   5.500   6.187   3.514
    1   AR   Ar  168   5.372   4.124  -1.993
    1   AR   Ar  169   3.381   3.405   3.425
    1   AR   Ar  170   1.849   3.373   5.890
    1   AR   Ar  171   5.820   4.618   4.254
    1   AR   Ar  172   3.802   3.780   5.583
    1   AR   Ar  173   2.432   2.128   5.630
    1   AR   Ar  174   2.190   6.218   5.344
    1   AR   Ar  175   3.031   1.187   6.159
    1   AR   Ar  176   3.834   3.008   4.653
    1   AR   Ar  177   1.414   5.161  -0.808
    1   AR   Ar  178   2.914   6.087   0.608
    1   AR   Ar  179   3.033   6.992  -0.041
    1   AR   Ar  180   5.456   1.408  -5.887
    1   AR   Ar  181   0.123   5.520   1.838
    1   AR   Ar  182   0.902   5.780   2.584
    1   AR   Ar  183   4.657   5.077   1.995
    1   AR   Ar  184   4.093   7.005   0.602
    1   AR   Ar  185   2.737   4.735   4.626
    1   AR   Ar  186   2.242   5.361   3.072
    1   AR   Ar  187   3.690   6.640   3.807
    1   AR   Ar  188   2.498   7.086   2.514
    1   AR   Ar  189   5.430   3.706   6.417
    1   AR   Ar  190   2.445   6.339   3.512
    1   AR   Ar  191   2.715   6.242   7.698
    1   AR   Ar  192   4.559   4.977   6.634
    1   AR   Ar  193   2.433   6.597   1.437
    1   AR   Ar  194   5.343   4.555  -0.836
    1   AR   Ar  195   5.889   1.094   0.794
    1   AR   Ar  196   3.798   0.278  -0.707
    1   AR   Ar  197   4.128   1.956   0.794
    1   AR   Ar  198   5.361   0.264   1.674
    1   AR   Ar  199   2.098   0.297   3.541
    1   AR   Ar  200   4.648   3.038   0.345
    1   AR   Ar  201   6.534   5.967   2.711
    1   AR   Ar  202   5.338   1.187   4.881
    1   AR   Ar  203   7.061   6.680   3.225
    1   AR   Ar  204   5.089   6.206   6.311
    1   AR   Ar  205   6.367   1.400   1.946
    1   AR   Ar  206   6.149   0.883   5.537
    1   AR   Ar  207   0.256   2.282   4.837
    1   AR   Ar  208   0.973   5.727   4.365
    1   AR   Ar  209   7.106   1.999  -2.298
    1   AR   Ar  210   1.972   6.817   0.275
    1   AR   Ar  211   0.456   3.151   0.734
    1   AR   Ar  212   5.638   3.380   0.230
    1   AR   Ar  213   3.414   1.095   1.291
    1   AR   Ar  214   4.715   4.153   2.512
    1   AR   Ar  215   6.630   2.800   2.361
    1   AR   Ar  216   1.483   2.429   0.671
    1   AR   Ar  217   5.025   1.908   3.407
    1   AR   Ar  218   5.023   3.276   4.126
    1   AR   Ar  219   4.443   3.310   3.097
    1   AR   Ar  220   4.377   3.972   1.308
    1   AR   Ar  221   6.661   5.851   4.046
    1   AR   Ar  222   5.314   7.019   5.621
    1   AR   Ar  223   6.372   1.627   6.575
    1   AR   Ar  224   4.783   2.383   4.915
    1   AR   Ar  225   6.391   3.367   3.542
    1   AR   Ar  226   1.398   3.233   3.024
    1   AR   Ar  227   0.665   3.611   2.276
    1   AR   Ar  228   6.674   0.506   1.371
    1   AR   Ar  229   6.370   4.922  -0.986
    1   AR   Ar  230   3.459   3.966   4.430
    1   AR   Ar  231   4.204   1.809   1.884
    1   AR   Ar  232   5.513   3.001   1.456
    1   AR   Ar  233   6.978   2.631   3.994
    1   AR   Ar  234   5.795   2.275   4.450
    1   AR   Ar  235   6.303   0.285   3.606
    1   AR   Ar  236   4.848   5.343   5.636
    1   AR   Ar  237   4.912   2.772   6.621
    1   AR   Ar  238   5.701   5.221   6.376
    1   AR   Ar  239   0.485   4.928  10.241
    1   AR   Ar  240   0.032   2.355   6.852
    1   AR   Ar  241   2.271   6.124  -0.516
    1   AR   Ar  242   5.410   6.019   1.496
    1   AR   Ar  243   4.289   6.112   3.005
    1   AR   Ar  244   0.386   5.122   0.428
    1   AR   Ar  245   3.941   6.952   2.583
    1   AR   Ar  246   5.917   6.373  -0.758
    1   AR   Ar  247   6.526   3.896   1.645
    1   AR   Ar  248   4.917   5.918   0.430
    1   AR   Ar  249   4.476   6.547   1.559
    1   AR   Ar  250   4.931   5.764   4.119
    1   AR   Ar  251   4.602   4.094   4.952
    1   AR   Ar  252   3.148   4.590   2.290
    1   AR   Ar  253   6.167   2.756   6.582
    1   AR   Ar  254   4.872   2.305   9.806
    1   AR   Ar  255   2.818   5.629  10.141
    1   AR   Ar  256   5.885   5.202   3.423
    7.12000  7.12000 12.00000
Argon-slab step 4395
  256
    1   AR   Ar    1   5.102   3.196  -2.645
    1   AR   Ar    2   5.503   7.060   0.504
    1   AR   Ar    3   3.649   2.408  -1.327
    1   AR   Ar    4   1.898   1.265   0.698
    1   AR   Ar    5   6.251   5.992   0.185
    1   AR   Ar    6   1.689   1.892   1.795
    1   AR   Ar    7   5.682   4.118   3.416
    1   AR   Ar    8   4.813   1.579  -0.438
    1   AR   Ar    9   0.551   0.254   4.064
    1   AR   Ar   10   6.765   6.648   4.607
    1   AR   Ar   11   1.443   6.723   4.678
    1   AR   Ar   12   0.376   1.614   4.030
    1   AR   Ar   13   6.998   0.868   4.774
    1   AR   Ar   14   3.816   1.743   6.333
    1   AR   Ar   15   3.549   6.626   8.497
    1   AR   Ar   16   0.643   0.036   5.068
    1   AR   Ar   17   5.930   2.112   0.876
    1   AR   Ar   18   7.019   5.407  -0.351
    1   AR   Ar   19   4.196   4.077   0.049
    1   AR   Ar   20   6.679   4.347  -2.859
    1   AR   Ar   21   2.918   2.002   2.177
    1   AR   Ar   22   5.288   1.096   2.217
    1   AR   Ar   23   0.193   6.265   0.917
    1   AR   Ar   24   5.565   2.495   2.495
    1   AR   Ar   25   0.892   2.545   3.901
    1   AR   Ar   26   5.634   6.462   4.750
    1   AR   Ar   27   1.561   0.803   2.279
    1   AR   Ar   28   1.770   2.827   3.880
    1   AR   Ar   29   4.752   1.465   6.898
    1   AR   Ar   30   1.078   1.117   3.537
    1   AR   Ar   31   3.877   0.254   7.075
    1   AR   Ar   32   0.796   2.726   5.935
    1   AR   Ar   33   0.483   4.159  -0.022
    1   AR   Ar   34   0.522   4.671   2.286
    1   AR   Ar   35   5.746   4.735   2.257
    1   AR   Ar   36   6.049   2.978  -2.176
    1   AR   Ar   37   4.256   3.198   2.046
    1   AR   Ar   38   6.959   4.268   3.796
    1   AR   Ar   39   0.222   3.274   3.216
    1   AR   Ar   40   1.754   4.795   1.874
    1   AR   Ar   41   0.149   2.133   3.110
    1   AR   Ar   42   5.881   5.506   4.766
    1   AR   Ar   43   6.860   2.566   5.865
    1   AR   Ar   44   0.838   4.117   3.389
    1   AR   Ar   45   0.299   3.676   5.345
    1   AR   Ar   46   0.762   4.521   6.025
    1   AR   Ar   47   3.495   5.425   7.408
    1   AR   Ar   48   5.830   3.519   7.442
    1   AR   Ar   49   6.475   0.041  -1.311
    1   AR   Ar   50   3.584   5.048  -0.003
    1   AR   Ar   51   5.876   3.643   2.406
    1   AR   Ar   52   5.014   2.784  -1.577
    1   AR   Ar   53   5.429   6.730   2.485
    1   AR   Ar   54   0.547   0.168   2.056
    1   AR   Ar   55   6.618   4.361   2.895
    1   AR   Ar   56   0.115   0.785   3.099
    1   AR   Ar   57   3.985   4.402   3.285
    1   AR   Ar   58   0.595   3.661   4.164
    1   AR   Ar   59   2.780   5.445   5.834
    1   AR   Ar   60   0.180   5.329   3.387
    1   AR   Ar   61   7.094   3.956   6.669
    1   AR   Ar   62   6.603   4.370   4.941
    1   AR   Ar   63   2.074   2.388   6.637
    1   AR   Ar   64   0.222   5.237   5.440
    1   AR   Ar   65   3.533   0.169   1.423
    1   AR   Ar   66   0.459   0.960   0.887
    1   AR   Ar   67   5.116   0.625  -0.922
    1   AR   Ar   68   1.202   1.153  -0.953
    1   AR   Ar   69   3.205   1.109   0.264
    1   AR   Ar   70   0.597   1.652   2.073
    1   AR   Ar   71   2.638   1.018   2.657
    1   AR   Ar   72   4.436   0.722   1.045
    1   AR   Ar   73   3.270   0.480   3.860
    1   AR   Ar   74   0.833   1.272   4.861
    1   AR   Ar   75   3.438   0.656   5.057
    1   AR   Ar   76   2.235   0.488   1.209
    1   AR   Ar   77   1.586   0.273   5.584
    1   AR   Ar   78   6.706   5.631   6.339
    1   AR   Ar   79   3.885   6.409   6.563
    1   AR   Ar   80   3.845   5.559   5.747
    1   AR   Ar   81   1.215   6.774   0.926
    1   AR   Ar   82   6.506   4.507   0.659
    1   AR   Ar   83   0.928   3.055  -0.165
    1   AR   Ar   84   0.988   4.236   0.961
    1   AR   Ar   85   2.114   3.388   0.585
    1   AR   Ar   86   1.945   5.408   0.990
    1   AR   Ar   87   3.186   3.452   2.274
    1   AR   Ar   88   2.936   5.302   1.308
    1   AR   Ar   89   7.102   2.342   1.526
    1   AR   Ar   90   3.291   1.798   5.024
    1   AR   Ar   91   1.738   1.870   2.855
    1   AR   Ar   92   1.447   3.506   1.709
    1   AR   Ar   93   1.585   1.429   5.981
    1   AR   Ar   94   0.988   0.059   9.091
    1   AR   Ar   95   4.436   1.507   5.263
    1   AR   Ar   96   2.590   6.917   4.517
    1   AR   Ar   97   3.725   1.660  -0.622
    1   AR   Ar   98   1.820   4.369   3.882
    1   AR   Ar   99   6.734   1.488   0.224
    1   AR   Ar  100   0.340   3.278  -2.059
    1   AR   Ar  101   3.611   5.903   2.026
    1   AR   Ar  102   3.817   1.106   2.870
    1   AR   Ar  103   2.495   4.553   0.723
    1   AR   Ar  104   3.106   5.355  -0.941
    1   AR   Ar  105   2.666   1.307   3.843
    1   AR   Ar  106   3.443   2.634   5.685
    1   AR   Ar  107   1.340   4.381   4.796
    1   AR   Ar  108   2.368   1.290   4.925
    1   AR   Ar  109   1.176   3.007   4.876
    1   AR   Ar  110   2.543   2.328   4.445
    1   AR   Ar  111   4.760   6.487   7.773
    1   AR   Ar  112   0.617   6.445   5.759
    1   AR   Ar  113   3.781   4.464  -1.241
    1   AR   Ar  114   2.566   6.830  -1.764
    1   AR   Ar  115   1.398   4.814   0.175
    1   AR   Ar  116   4.129   1.046   0.023
    1   AR   Ar  117   0.513   4.797   4.373
    1   AR   Ar  118   1.225   5.168   3.546
    1   AR   Ar  119   2.109   4.269   2.925
    1   AR   Ar  120   1.511   6.899   2.136
    1   AR   Ar  121   5.602   4.231   5.237
    1   AR   Ar  122   3.174   5.794   4.253
    1   AR   Ar  123   2.766   3.244   5.278
    1   AR   Ar  124   0.992   5.234   1.258
    1   AR   Ar  125   6.502   3.068   4.841
    1   AR   Ar  126   6.995   0.219   5.976
    1   AR   Ar  127   4.269   3.517   6.424
    1   AR   Ar  128   2.892   3.209   6.716
    1   AR   Ar  129   2.080   5.595   4.168
    1   AR   Ar  130   4.786   1.334  -3.883
    1   AR   Ar  131   4.897   4.836  -2.585
    1   AR   Ar  132   0.822   1.912  -0.079
    1   AR   Ar  133   4.401   0.390   4.487
    1   AR   Ar  134   3.859   1.613   3.987
    1   AR   Ar  135   6.428   1.685   3.575
    1   AR   Ar  136   6.502   7.028   2.238
    1   AR   Ar  137   2.571   4.005   6.175
    1   AR   Ar  138   5.223   1.731   5.883
    1   AR   Ar  139   5.733   2.726   5.492
    1   AR   Ar  140   4.262   6.435   4.862
    1   AR   Ar  141   4.001   4.977   4.840
    1   AR   Ar  142   4.971   0.228   6.749
    1   AR   Ar  143   6.418   6.553   6.744
    1   AR   Ar  144   6.438   1.824   5.127
    1   AR   Ar  145   4.405   5.191  -0.734
    1   AR   Ar  146   3.932   2.392   2.840
    1   AR   Ar  147   4.711   3.757  -1.210
    1   AR   Ar  148   3.226   6.329  -0.842
    1   AR   Ar  149   2.149   1.122  -0.442
    1   AR   Ar  150   2.314   2.886   2.799
    1   AR   Ar  151   3.033   2.359   3.454
    1   AR   Ar  152   1.251   2.627  -1.534
    1   AR   Ar  153   5.409   0.183   4.145
    1   AR   Ar  154   4.255   2.488   3.806
    1   AR   Ar  155   6.325   3.556   5.916
    1   AR   Ar  156   2.935   4.656   3.488
    1   AR   Ar  157   1.715   5.143   6.563
    1   AR   Ar  158   0.327   1.588   5.963
    1   AR   Ar  159   3.884   0.289   6.048
    1   AR   Ar  160   1.619   1.980   4.935
    1   AR   Ar  161   4.767   4.996   3.370
    1   AR   Ar  162   4.281   6.351  -0.464
    1   AR   Ar  163   5.528   4.875   1.211
    1   AR   Ar  164   1.868   5.765   2.256
    1   AR   Ar  165   3.569   3.498   0.832
    1   AR   Ar  166   2.598   3.363   4.227
    1   AR   Ar  167   5.509   6.169   3.483
    1   AR   Ar  168   5.377   4.123  -1.960
    1   AR   Ar  169   3.370   3.372   3.410
    1   AR   Ar  170   1.859   3.369   5.894
    1   AR   Ar  171   5.821   4.664   4.261
    1   AR   Ar  172   3.795   3.792   5.583
    1   AR   Ar  173   2.428   2.133   5.662
    1   AR   Ar  174   2.243   6.220   5.337
    1   AR   Ar  175   3.045   1.193   6.154
    1   AR   Ar  176   3.838   3.006   4.645
    1   AR   Ar  177   1.394   5.136  -0.824
    1   AR   Ar  178   2.876   6.067   0.609
    1   AR   Ar  179   3.039   6.966  -0.020
    1   AR   Ar  180   5.446   1.397  -5.905
    1   AR   Ar  181   0.119   5.529   1.816
    1   AR   Ar  182   0.883   5.760   2.568
    1   AR   Ar  183   4.678   5.058   1.959
    1   AR   Ar  184   4.099   7.005   0.614
    1   AR   Ar  185   2.740   4.737   4.631
    1   AR   Ar  186   2.241   5.351   3.090
    1   AR   Ar  187   3.697   6.632   3.794
    1   AR   Ar  188   2.518   7.043   2.524
    1   AR   Ar  189   5.426   3.733   6.417
    1   AR   Ar  190   2.447   6.328   3.501
    1   AR   Ar  191   2.744   6.268   7.701
    1   AR   Ar  192   4.580   4.991   6.603
    1   AR   Ar  193   2.407   6.595   1.431
    1   AR   Ar  194   5.307   4.569  -0.838
    1   AR   Ar  195   5.916   1.119   0.842
    1   AR   Ar  196   3.795   0.301  -0.694
    1   AR   Ar  197   4.115   1.992   0.768
    1   AR   Ar  198   5.364   0.247   1.643
    1   AR   Ar  199   2.081   0.313   3.530
    1   AR   Ar  200   4.649   3.003   0.350
    1   AR   Ar  201   6.540   5.985   2.705
    1   AR   Ar  202   5.317   1.149   4.899
    1   AR   Ar  203   7.043   6.654   3.222
    1   AR   Ar  204   5.047   6.194   6.295
    1   AR   Ar  205   6.361   1.419   1.925
    1   AR   Ar  206   6.167   0.882   5.538
    1   AR   Ar  207   0.237   2.327   4.867
    1   AR   Ar  208   0.971   5.721   4.399
    1   AR   Ar  209   7.112   1.986  -2.308
    1   AR   Ar  210   1.953   6.801   0.244
    1   AR   Ar  211   0.452   3.193   0.716
    1   AR   Ar  212   5.644   3.381   0.227
    1   AR   Ar  213   3.445   1.142   1.281
    1   AR   Ar  214   4.729   4.169   2.510
    1   AR   Ar  215   6.645   2.801   2.351
    1   AR   Ar  216   1.492   2.451   0.663
    1   AR   Ar  217   5.021   1.925   3.387
    1   AR   Ar  218   5.002   3.285   4.145
    1   AR   Ar  219   4.433   3.313   3.046
    1   AR   Ar  220   4.373   3.974   1.323
    1   AR   Ar  221   6.670   5.838   4.048
    1   AR   Ar  222   5.298   6.994   5.628
    1   AR   Ar  223   6.369   1.608   6.555
    1   AR   Ar  224   4.758   2.404   4.926
    1   AR   Ar  225   6.350   3.372   3.519
    1   AR   Ar  226   1.385   3.243   3.021
    1   AR   Ar  227   0.645   3.627   2.299
    1   AR   Ar  228   6.652   0.542   1.338
    1   AR   Ar  229   6.395   4.920  -0.983
    1   AR   Ar  230   3.480   3.979   4.409
    1   AR   Ar  231   4.222   1.812   1.890
    1   AR   Ar  232   5.495   3.003   1.473
    1   AR   Ar  233   6.959   2.641   3.999
    1   AR   Ar  234   5.812   2.249   4.442
    1   AR   Ar  235   6.300   0.270   3.606
    1   AR   Ar  236   4.834   5.364   5.611
    1   AR   Ar  237   4.935   2.760   6.637
    1   AR   Ar  238   5.718   5.244   6.353
    1   AR   Ar  239   0.498   4.943  10.227
    1   AR   Ar  240   0.092   2.344   6.809
    1   AR   Ar  241   2.287   6.163  -0.498
    1   AR   Ar  242   5.386   6.042   1.493
    1   AR   Ar  243   4.283   6.108   3.035
    1   AR   Ar  244   0.402   5.104   0.418
    1   AR   Ar  245   3.944   6.954   2.581
    1   AR   Ar  246   5.914   6.387  -0.764
    1   AR   Ar  247   6.516   3.880   1.632
    1   AR   Ar  248   4.934   5.941   0.440
    1   AR   Ar  249   4.492   6.550   1.598
    1   AR   Ar  250   4.923   5.813   4.137
    1   AR   Ar  251   4.590   4.103   4.935
    1   AR   Ar  252   3.116   4.568   2.253
    1   AR   Ar  253   6.160   2.756   6.601
    1   AR   Ar  254   4.863   2.277   9.835
    1   AR   Ar  255   2.835   5.631  10.153
    1   AR   Ar  256   5.860   5.215   3.417
    7.12000  7.12000 12.00000
Argon-slab step 4400
  256
    1   AR   Ar    1   5.111   3.190  -2.664
    1   AR   Ar    2   5.468   7.065   0.501
    1   AR   Ar    3   3.635   2.412  -1.300
    1   AR   Ar    4   1.883   1.270   0.714
    1   AR   Ar    5   6.258   5.988   0.178
    1   AR   Ar    6   1.686   1.891   1.778
    1   AR   Ar    7   5.690   4.115   3.439
    1   AR   Ar    8   4.827   1.582  -0.452
    1   AR   Ar    9   0.545   0.243   4.063
    1   AR   Ar   10   6.772   6.644   4.612
    1   AR   Ar   11   1.497   6.780   4.679
    1   AR   Ar   12   0.338   1.593   4.036
    1   AR   Ar   13   6.984   0.866   4.743
    1   AR   Ar   14   3.772   1.780   6.318
    1   AR   Ar   15   3.581   6.629   8.482
    1   AR   Ar   16   0.643   0.014   5.051
    1   AR   Ar   17   5.939   2.147   0.863
    1   AR   Ar   18   6.980   5.430  -0.372
    1   AR   Ar   19   4.197   4.091   0.050
    1   AR   Ar   20   6.671   4.346  -2.847
    1   AR   Ar   21   2.891   2.000   2.218
    1   AR   Ar   22   5.303   1.104   2.193
    1   AR   Ar   23   0.180   6.272   0.927
    1   AR   Ar   24   5.551   2.467   2.489
    1   AR   Ar   25   0.859   2.540   3.926
    1   AR   Ar   26   5.621   6.450   4.761
    1   AR   Ar   27   1.554   0.815   2.284
    1   AR   Ar   28   1.785   2.796   3.873
    1   AR   Ar   29   4.751   1.450   6.893
    1   AR   Ar   30   1.097   1.099   3.522
    1   AR   Ar   31   3.913   0.250   7.103
    1   AR   Ar   32   0.829   2.733   5.941
    1   AR   Ar   33   0.511   4.190  -0.017
    1   AR   Ar   34   0.519   4.667   2.300
    1   AR   Ar   35   5.740   4.731   2.228
    1   AR   Ar   36   6.090   2.958  -2.130
    1   AR   Ar   37   4.261   3.220   2.049
    1   AR   Ar   38   6.918   4.265   3.770
    1   AR   Ar   39   0.220   3.290   3.240
    1   AR   Ar   40   1.763   4.810   1.852
    1   AR   Ar   41   0.174   2.143   3.082
    1   AR   Ar   42   5.886   5.494   4.787
    1   AR   Ar   43   6.864   2.577   5.887
    1   AR   Ar   44   0.861   4.137   3.364
    1   AR   Ar   45   0.302   3.678   5.293
    1   AR   Ar   46   0.777   4.522   6.048
    1   AR   Ar   47   3.529   5.423   7.414
    1   AR   Ar   48   5.818   3.552   7.461
    1   AR   Ar   49   6.487   0.040  -1.292
    1   AR   Ar   50   3.566   5.069  -0.001
    1   AR   Ar   51   5.865   3.639   2.375
    1   AR   Ar   52   5.005   2.804  -1.548
    1   AR   Ar   53   5.418   6.746   2.486
    1   AR   Ar   54   0.529   0.159   2.046
    1   AR   Ar   55   6.624   4.326   2.879
    1   AR   Ar   56   0.114   0.832   3.100
    1   AR   Ar   57   3.967   4.404   3.291
    1   AR   Ar   58   0.601   3.618   4.171
    1   AR   Ar   59   2.755   5.436   5.815
    1   AR   Ar   60   0.144   5.330   3.385
    1   AR   Ar   61   7.055   3.948   6.714
    1   AR   Ar   62   6.593   4.394   4.944
    1   AR   Ar   63   2.090   2.417   6.669
    1   AR   Ar   64   0.189   5.227   5.467
    1   AR   Ar   65   3.538   0.161   1.435
    1   AR   Ar   66   0.442   0.977   0.885
    1   AR   Ar   67   5.125   0.636  -0.891
    1   AR   Ar   68   1.178   1.184  -0.948
    1   AR   Ar   69   3.231   1.127   0.287
    1   AR   Ar   70   0.600   1.629   2.053
    1   AR   Ar   71   2.679   0.980   2.679
    1   AR   Ar   72   4.447   0.695   1.067
    1   AR   Ar   73   3.287   0.484   3.853
    1   AR   Ar   74   0.806   1.306   4.862
    1   AR   Ar   75   3.430   0.615   5.057
    1   AR   Ar   76   2.256   0.535   1.198
    1   AR   Ar   77   1.586   0.262   5.610
    1   AR   Ar   78   6.681   5.605   6.335
    1   AR   Ar   79   3.886   6.422   6.569
    1   AR   Ar   80   3.807   5.549   5.723
    1   AR   Ar   81   1.202   6.789   0.936
    1   AR   Ar   82   6.507   4.497   0.651
    1   AR   Ar   83   0.925   3.056  -0.176
    1   AR   Ar   84   1.018   4.214   0.966
    1   AR   Ar   85   2.141   3.379   0.548
    1   AR   Ar   86   1.939   5.390   0.973
    1   AR   Ar   87   3.183   3.446   2.266
    1   AR   Ar   88   2.951   5.313   1.299
    1   AR   Ar   89   7.096   2.331   1.480
    1   AR   Ar   90   3.283   1.795   5.034
    1   AR   Ar   91   1.778   1.863   2.862
    1   AR   Ar   92   1.430   3.521   1.682
    1   AR   Ar   93   1.609   1.428   5.996
    1   AR   Ar   94   0.969   0.071   9.089
    1   AR   Ar   95   4.436   1.493   5.292
    1   AR   Ar   96   2.585   6.913   4.524
    1   AR   Ar   97   3.701   1.657  -0.638
    1   AR   Ar   98   1.818   4.405   3.879
    1   AR   Ar   99   6.742   1.509   0.192
    1   AR   Ar  100   0.314   3.285  -2.077
    1   AR   Ar  101   3.607   5.860   2.044
    1   AR   Ar  102   3.827   1.096   2.871
    1   AR   Ar  103   2.474   4.559   0.735
    1   AR   Ar  104   3.131   5.358  -0.962
    1   AR   Ar  105   2.643   1.287   3.814
    1   AR   Ar  106   3.464   2.633   5.683
    1   AR   Ar  107   1.351   4.390   4.802
    1   AR   Ar  108   2.369   1.286   4.944
    1   AR   Ar  109   1.171   3.004   4.883
    1   AR   Ar  110   2.542   2.335   4.443
    1   AR   Ar  111   4.727   6.489   7.788
    1   AR   Ar  112   0.601   6.452   5.781
    1   AR   Ar  113   3.775   4.467  -1.242
    1   AR   Ar  114   2.577   6.849  -1.764
    1   AR   Ar  115   1.436   4.833   0.194
    1   AR   Ar  116   4.147   1.049  -0.017
    1   AR   Ar  117   0.491   4.805   4.331
    1   AR   Ar  118   1.221   5.126   3.548
    1   AR   Ar  119   2.115   4.273   2.942
    1   AR   Ar  120   1.497   6.923   2.163
    1   AR   Ar  121   5.580   4.237   5.234
    1   AR   Ar  122   3.163   5.780   4.247
    1   AR   Ar  123   2.767   3.245   5.276
    1   AR   Ar  124   1.011   5.199   1.268
    1   AR   Ar  125   6.493   3.056   4.861
    1   AR   Ar  126   7.012   0.225   6.020
    1   AR   Ar  127   4.282   3.497   6.417
    1   AR   Ar  128   2.861   3.193   6.759
    1   AR   Ar  129   2.112   5.602   4.167
    1   AR   Ar  130   4.772   1.329  -3.911
    1   AR   Ar  131   4.896   4.856  -2.589
    1   AR   Ar  132   0.831   1.919  -0.046
    1   AR   Ar  133   4.389   0.408   4.498
    1   AR   Ar  134   3.865   1.636   4.011
    1   AR   Ar  135   6.411   1.684   3.615
    1   AR   Ar  136   6.492   7.029   2.242
    1   AR   Ar  137   2.591   4.020   6.178
    1   AR   Ar  138   5.216   1.759   5.876
    1   AR   Ar  139   5.747   2.721   5.492
    1   AR   Ar  140   4.283   6.414   4.864
    1   AR   Ar  141   4.034   4.982   4.820
    1   AR   Ar  142   4.980   0.238   6.769
    1   AR   Ar  143   6.395   6.561   6.744
    1   AR   Ar  144   6.419   1.833   5.118
    1   AR   Ar  145   4.403   5.231  -0.737
    1   AR   Ar  146   3.940   2.393   2.841
    1   AR   Ar  147   4.742   3.786  -1.142
    1   AR   Ar  148   3.227   6.360  -0.865
    1   AR   Ar  149   2.191   1.100  -0.461
    1   AR   Ar  150   2.355   2.911   2.777
    1   AR   Ar  151   3.014   2.341   3.443
    1   AR   Ar  152   1.234   2.606  -1.525
    1   AR   Ar  153   5.386   0.204   4.131
    1   AR   Ar  154   4.243   2.507   3.848
    1   AR   Ar  155   6.333   3.577   5.901
    1   AR   Ar  156   2.936   4.625   3.503
    1   AR   Ar  157   1.722   5.130   6.583
    1   AR   Ar  158   0.341   1.596   5.964
    1   AR   Ar  159   3.933   0.299   6.010
    1   AR   Ar  160   1.598   1.958   4.943
    1   AR   Ar  161   4.788   5.019   3.387
    1   AR   Ar  162   4.289   6.339  -0.447
    1   AR   Ar  163   5.510   4.885   1.236
    1   AR   Ar  164   1.849   5.781   2.248
    1   AR   Ar  165   3.557   3.540   0.822
    1   AR   Ar  166   2.598   3.359   4.247
    1   AR   Ar  167   5.530   6.166   3.436
    1   AR   Ar  168   5.383   4.120  -1.927
    1   AR   Ar  169   3.360   3.341   3.394
    1   AR   Ar  170   1.861   3.355   5.895
    1   AR   Ar  171   5.821   4.700   4.271
    1   AR   Ar  172   3.781   3.805   5.575
    1   AR   Ar  173   2.427   2.137   5.692
    1   AR   Ar  174   2.295   6.225   5.329
    1   AR   Ar  175   3.044   1.190   6.143
    1   AR   Ar  176   3.833   3.011   4.634
    1   AR   Ar  177   1.374   5.114  -0.842
    1   AR   Ar  178   2.838   6.050   0.606
    1   AR   Ar  179   3.046   6.942   0.003
    1   AR   Ar  180   5.436   1.386  -5.923
    1   AR   Ar  181   0.111   5.541   1.792
    1   AR   Ar  182   0.863   5.744   2.562
    1   AR   Ar  183   4.700   5.043   1.920
    1   AR   Ar  184   4.104   6.995   0.616
    1   AR   Ar  185   2.742   4.740   4.636
    1   AR   Ar  186   2.242   5.337   3.113
    1   AR   Ar  187   3.706   6.623   3.782
    1   AR   Ar  188   2.540   7.000   2.533
    1   AR   Ar  189   5.418   3.760   6.416
    1   AR   Ar  190   2.451   6.322   3.489
    1   AR   Ar  191   2.775   6.294   7.704
    1   AR   Ar  192   4.601   5.006   6.572
    1   AR   Ar  193   2.381   6.590   1.427
    1   AR   Ar  194   5.272   4.585  -0.839
    1   AR   Ar  195   5.939   1.133   0.891
    1   AR   Ar  196   3.791   0.324  -0.681
    1   AR   Ar  197   4.103   2.026   0.742
    1   AR   Ar  198   5.376   0.233   1.617
    1   AR   Ar  199   2.065   0.329   3.519
    1   AR   Ar  200   4.647   2.967   0.356
    1   AR   Ar  201   6.539   5.994   2.693
    1   AR   Ar  202   5.302   1.110   4.913
    1   AR   Ar  203   7.032   6.637   3.226
    1   AR   Ar  204   5.003   6.181   6.282
    1   AR   Ar  205   6.355   1.441   1.905
    1   AR   Ar  206   6.198   0.876   5.542
    1   AR   Ar  207   0.224   2.371   4.905
    1   AR   Ar  208   0.970   5.722   4.436
    1   AR   Ar  209   7.119   1.975  -2.317
    1   AR   Ar  210   1.940   6.787   0.213
    1   AR   Ar  211   0.440   3.245   0.710
    1   AR   Ar  212   5.651   3.382   0.226
    1   AR   Ar  213   3.476   1.203   1.273
    1   AR   Ar  214   4.738   4.154   2.490
    1   AR   Ar  215   6.658   2.805   2.344
    1   AR   Ar  216   1.500   2.472   0.657
    1   AR   Ar  217   5.019   1.941   3.365
    1   AR   Ar  218   4.981   3.294   4.165
    1   AR   Ar  219   4.425   3.316   3.004
    1   AR   Ar  220   4.372   3.980   1.339
    1   AR   Ar  221   6.674   5.818   4.044
    1   AR   Ar  222   5.282   6.973   5.635
    1   AR   Ar  223   6.367   1.590   6.532
    1   AR   Ar  224   4.735   2.431   4.933
    1   AR   Ar  225   6.310   3.372   3.496
    1   AR   Ar  226   1.367   3.259   3.012
    1   AR   Ar  227   0.617   3.642   2.325
    1   AR   Ar  228   6.633   0.576   1.307
    1   AR   Ar  229   6.415   4.915  -0.983
    1   AR   Ar  230   3.502   3.993   4.388
    1   AR   Ar  231   4.240   1.814   1.897
    1   AR   Ar  232   5.477   3.019   1.477
    1   AR   Ar  233   6.936   2.651   3.998
    1   AR   Ar  234   5.824   2.226   4.429
    1   AR   Ar  235   6.302   0.254   3.605
    1   AR   Ar  236   4.827   5.384   5.582
    1   AR   Ar  237   4.963   2.742   6.653
    1   AR   Ar  238   5.731   5.266   6.329
    1   AR   Ar  239   0.510   4.959  10.212
    1   AR   Ar  240   0.154   2.331   6.768
    1   AR   Ar  241   2.300   6.197  -0.481
    1   AR   Ar  242   5.366   6.063   1.489
    1   AR   Ar  243   4.281   6.096   3.067
    1   AR   Ar  244   0.421   5.085   0.423
    1   AR   Ar  245   3.943   6.963   2.575
    1   AR   Ar  246   5.910   6.402  -0.771
    1   AR   Ar  247   6.509   3.864   1.617
    1   AR   Ar  248   4.950   5.965   0.450
    1   AR   Ar  249   4.505   6.557   1.638
    1   AR   Ar  250   4.900   5.852   4.172
    1   AR   Ar  251   4.578   4.109   4.915
    1   AR   Ar  252   3.083   4.547   2.217
    1   AR   Ar  253   6.148   2.755   6.624
    1   AR   Ar  254   4.855   2.249   9.864
    1   AR   Ar  255   2.857   5.624  10.171
    1   AR   Ar  256   5.840   5.227   3.404
    7.12000  7.12000 12.00000
Argon-slab step 4405
  256
    1   AR   Ar    1   5.120   3.184  -2.682
    1   AR   Ar    2   5.433   7.069   0.499
    1   AR   Ar    3   3.622   2.423  -1.277
    1   AR   Ar    4   1.860   1.291   0.720
    1   AR   Ar    5   6.263   5.986   0.174
    1   AR   Ar    6   1.684   1.889   1.760
    1   AR   Ar    7   5.687   4.122   3.456
    1   AR   Ar    8   4.862   1.589  -0.470
    1   AR   Ar    9   0.536   0.234   4.055
    1   AR   Ar   10   6.800   6.670   4.636
    1   AR   Ar   11   1.558   6.832   4.675
    1   AR   Ar   12   0.291   1.576   4.036
    1   AR   Ar   13   6.966   0.862   4.711
    1   AR   Ar   14   3.745   1.830   6.307
    1   AR   Ar   15   3.613   6.632   8.465
    1   AR   Ar   16   0.633   0.003   5.037
    1   AR   Ar   17   5.949   2.189   0.851
    1   AR   Ar   18   6.947   5.461  -0.389
    1   AR   Ar   19   4.199   4.106   0.050
    1   AR   Ar   20   6.663   4.345  -2.834
    1   AR   Ar   21   2.864   1.997   2.261
    1   AR   Ar   22   5.318   1.116   2.170
    1   AR   Ar   23   0.167   6.278   0.936
    1   AR   Ar   24   5.537   2.440   2.481
    1   AR   Ar   25   0.811   2.531   3.951
    1   AR   Ar   26   5.570   6.427   4.762
    1   AR   Ar   27   1.549   0.835   2.290
    1   AR   Ar   28   1.807   2.732   3.858
    1   AR   Ar   29   4.749   1.434   6.886
    1   AR   Ar   30   1.120   1.080   3.504
    1   AR   Ar   31   3.949   0.248   7.132
    1   AR   Ar   32   0.863   2.739   5.944
    1   AR   Ar   33   0.539   4.213  -0.017
    1   AR   Ar   34   0.517   4.667   2.315
    1   AR   Ar   35   5.735   4.726   2.206
    1   AR   Ar   36   6.075   2.943  -2.158
    1   AR   Ar   37   4.263   3.238   2.040
    1   AR   Ar   38   6.895   4.244   3.772
    1   AR   Ar   39   0.230   3.291   3.253
    1   AR   Ar   40   1.772   4.820   1.830
    1   AR   Ar   41   0.201   2.153   3.052
    1   AR   Ar   42   5.895   5.489   4.821
    1   AR   Ar   43   6.864   2.589   5.897
    1   AR   Ar   44   0.843   4.161   3.330
    1   AR   Ar   45   0.295   3.686   5.294
    1   AR   Ar   46   0.792   4.522   6.070
    1   AR   Ar   47   3.563   5.422   7.419
    1   AR   Ar   48   5.807   3.584   7.477
    1   AR   Ar   49   6.498   0.041  -1.273
    1   AR   Ar   50   3.549   5.090   0.002
    1   AR   Ar   51   5.849   3.632   2.351
    1   AR   Ar   52   4.997   2.825  -1.519
    1   AR   Ar   53   5.407   6.761   2.488
    1   AR   Ar   54   0.507   0.153   2.036
    1   AR   Ar   55   6.624   4.293   2.838
    1   AR   Ar   56   0.111   0.878   3.101
    1   AR   Ar   57   3.945   4.399   3.295
    1   AR   Ar   58   0.604   3.569   4.190
    1   AR   Ar   59   2.731   5.423   5.797
    1   AR   Ar   60   0.111   5.326   3.376
    1   AR   Ar   61   7.016   3.939   6.757
    1   AR   Ar   62   6.589   4.417   4.947
    1   AR   Ar   63   2.103   2.445   6.700
    1   AR   Ar   64   0.159   5.225   5.470
    1   AR   Ar   65   3.540   0.149   1.451
    1   AR   Ar   66   0.426   0.996   0.884
    1   AR   Ar   67   5.133   0.645  -0.860
    1   AR   Ar   68   1.138   1.213  -0.933
    1   AR   Ar   69   3.240   1.145   0.308
    1   AR   Ar   70   0.605   1.598   2.038
    1   AR   Ar   71   2.720   0.943   2.702
    1   AR   Ar   72   4.463   0.677   1.094
    1   AR   Ar   73   3.306   0.486   3.847
    1   AR   Ar   74   0.782   1.335   4.872
    1   AR   Ar   75   3.421   0.575   5.056
    1   AR   Ar   76   2.284   0.566   1.198
    1   AR   Ar   77   1.587   0.251   5.635
    1   AR   Ar   78   6.673   5.577   6.302
    1   AR   Ar   79   3.888   6.433   6.575
    1   AR   Ar   80   3.769   5.541   5.700
    1   AR   Ar   81   1.188   6.803   0.951
    1   AR   Ar   82   6.508   4.488   0.644
    1   AR   Ar   83   0.926   3.056  -0.192
    1   AR   Ar   84   1.050   4.217   0.974
    1   AR   Ar   85   2.167   3.372   0.511
    1   AR   Ar   86   1.939   5.384   0.955
    1   AR   Ar   87   3.182   3.440   2.258
    1   AR   Ar   88   2.969   5.321   1.298
    1   AR   Ar   89   7.089   2.319   1.432
    1   AR   Ar   90   3.281   1.791   5.044
    1   AR   Ar   91   1.819   1.856   2.872
    1   AR   Ar   92   1.416   3.535   1.653
    1   AR   Ar   93   1.633   1.428   6.008
    1   AR   Ar   94   0.950   0.083   9.087
    1   AR   Ar   95   4.421   1.476   5.319
    1   AR   Ar   96   2.582   6.910   4.528
    1   AR   Ar   97   3.672   1.655  -0.657
    1   AR   Ar   98   1.824   4.435   3.886
    1   AR   Ar   99   6.751   1.531   0.162
    1   AR   Ar  100   0.289   3.292  -2.095
    1   AR   Ar  101   3.605   5.818   2.063
    1   AR   Ar  102   3.836   1.108   2.866
    1   AR   Ar  103   2.455   4.557   0.744
    1   AR   Ar  104   3.156   5.355  -0.984
    1   AR   Ar  105   2.617   1.271   3.785
    1   AR   Ar  106   3.491   2.631   5.685
    1   AR   Ar  107   1.361   4.408   4.805
    1   AR   Ar  108   2.373   1.276   4.963
    1   AR   Ar  109   1.164   2.994   4.883
    1   AR   Ar  110   2.540   2.321   4.452
    1   AR   Ar  111   4.693   6.491   7.801
    1   AR   Ar  112   0.584   6.453   5.808
    1   AR   Ar  113   3.755   4.481  -1.215
    1   AR   Ar  114   2.589   6.867  -1.762
    1   AR   Ar  115   1.477   4.851   0.212
    1   AR   Ar  116   4.177   1.034  -0.042
    1   AR   Ar  117   0.467   4.812   4.290
    1   AR   Ar  118   1.213   5.092   3.545
    1   AR   Ar  119   2.131   4.256   2.935
    1   AR   Ar  120   1.487   6.938   2.188
    1   AR   Ar  121   5.558   4.242   5.235
    1   AR   Ar  122   3.152   5.765   4.243
    1   AR   Ar  123   2.761   3.249   5.274
    1   AR   Ar  124   1.019   5.171   1.284
    1   AR   Ar  125   6.485   3.065   4.857
    1   AR   Ar  126   7.028   0.231   6.062
    1   AR   Ar  127   4.295   3.478   6.413
    1   AR   Ar  128   2.833   3.174   6.802
    1   AR   Ar  129   2.139   5.604   4.171
    1   AR   Ar  130   4.759   1.324  -3.938
    1   AR   Ar  131   4.895   4.877  -2.593
    1   AR   Ar  132   0.840   1.925  -0.012
    1   AR   Ar  133   4.374   0.425   4.510
    1   AR   Ar  134   3.863   1.642   4.037
    1   AR   Ar  135   6.394   1.684   3.655
    1   AR   Ar  136   6.481   7.031   2.247
    1   AR   Ar  137   2.625   4.035   6.178
    1   AR   Ar  138   5.216   1.791   5.873
    1   AR   Ar  139   5.758   2.712   5.495
    1   AR   Ar  140   4.303   6.395   4.867
    1   AR   Ar  141   4.064   4.991   4.797
    1   AR   Ar  142   4.987   0.247   6.787
    1   AR   Ar  143   6.372   6.571   6.744
    1   AR   Ar  144   6.406   1.839   5.117
    1   AR   Ar  145   4.400   5.271  -0.739
    1   AR   Ar  146   3.946   2.391   2.838
    1   AR   Ar  147   4.766   3.808  -1.073
    1   AR   Ar  148   3.235   6.400  -0.892
    1   AR   Ar  149   2.234   1.078  -0.479
    1   AR   Ar  150   2.398   2.935   2.756
    1   AR   Ar  151   3.006   2.321   3.417
    1   AR   Ar  152   1.215   2.586  -1.515
    1   AR   Ar  153   5.361   0.225   4.118
    1   AR   Ar  154   4.239   2.541   3.886
    1   AR   Ar  155   6.343   3.599   5.882
    1   AR   Ar  156   2.934   4.595   3.507
    1   AR   Ar  157   1.690   5.087   6.596
    1   AR   Ar  158   0.354   1.603   5.964
    1   AR   Ar  159   3.982   0.310   5.971
    1   AR   Ar  160   1.577   1.945   4.951
    1   AR   Ar  161   4.812   5.045   3.405
    1   AR   Ar  162   4.296   6.328  -0.429
    1   AR   Ar  163   5.492   4.895   1.255
    1   AR   Ar  164   1.834   5.802   2.235
    1   AR   Ar  165   3.542   3.581   0.811
    1   AR   Ar  166   2.600   3.360   4.263
    1   AR   Ar  167   5.554   6.177   3.385
    1   AR   Ar  168   5.392   4.116  -1.894
    1   AR   Ar  169   3.351   3.313   3.379
    1   AR   Ar  170   1.858   3.336   5.894
    1   AR   Ar  171   5.822   4.710   4.287
    1   AR   Ar  172   3.760   3.817   5.562
    1   AR   Ar  173   2.426   2.143   5.719
    1   AR   Ar  174   2.343   6.232   5.316
    1   AR   Ar  175   3.028   1.174   6.126
    1   AR   Ar  176   3.814   3.029   4.621
    1   AR   Ar  177   1.354   5.092  -0.861
    1   AR   Ar  178   2.798   6.037   0.597
    1   AR   Ar  179   3.053   6.921   0.029
    1   AR   Ar  180   5.425   1.375  -5.941
    1   AR   Ar  181   0.102   5.553   1.769
    1   AR   Ar  182   0.857   5.753   2.590
    1   AR   Ar  183   4.719   5.031   1.882
    1   AR   Ar  184   4.109   6.976   0.609
    1   AR   Ar  185   2.743   4.744   4.640
    1   AR   Ar  186   2.242   5.322   3.138
    1   AR   Ar  187   3.717   6.614   3.777
    1   AR   Ar  188   2.558   6.977   2.542
    1   AR   Ar  189   5.426   3.773   6.390
    1   AR   Ar  190   2.457   6.321   3.476
    1   AR   Ar  191   2.807   6.319   7.707
    1   AR   Ar  192   4.622   5.022   6.541
    1   AR   Ar  193   2.354   6.584   1.425
    1   AR   Ar  194   5.244   4.606  -0.838
    1   AR   Ar  195   5.951   1.147   0.934
    1   AR   Ar  196   3.787   0.344  -0.669
    1   AR   Ar  197   4.096   2.058   0.727
    1   AR   Ar  198   5.403   0.230   1.603
    1   AR   Ar  199   2.050   0.345   3.507
    1   AR   Ar  200   4.644   2.931   0.363
    1   AR   Ar  201   6.529   5.990   2.674
    1   AR   Ar  202   5.292   1.069   4.924
    1   AR   Ar  203   7.030   6.630   3.239
    1   AR   Ar  204   4.958   6.167   6.271
    1   AR   Ar  205   6.349   1.464   1.884
    1   AR   Ar  206   6.229   0.869   5.547
    1   AR   Ar  207   0.217   2.413   4.947
    1   AR   Ar  208   0.970   5.727   4.475
    1   AR   Ar  209   0.006   1.965  -2.326
    1   AR   Ar  210   1.927   6.783   0.190
    1   AR   Ar  211   0.427   3.299   0.709
    1   AR   Ar  212   5.659   3.384   0.225
    1   AR   Ar  213   3.509   1.268   1.271
    1   AR   Ar  214   4.748   4.133   2.466
    1   AR   Ar  215   6.671   2.811   2.340
    1   AR   Ar  216   1.508   2.494   0.651
    1   AR   Ar  217   5.019   1.956   3.342
    1   AR   Ar  218   4.960   3.304   4.184
    1   AR   Ar  219   4.419   3.319   2.982
    1   AR   Ar  220   4.375   3.989   1.354
    1   AR   Ar  221   6.672   5.794   4.039
    1   AR   Ar  222   5.265   6.954   5.641
    1   AR   Ar  223   6.365   1.574   6.507
    1   AR   Ar  224   4.715   2.461   4.939
    1   AR   Ar  225   6.276   3.361   3.474
    1   AR   Ar  226   1.360   3.283   2.992
    1   AR   Ar  227   0.585   3.655   2.352
    1   AR   Ar  228   6.623   0.600   1.282
    1   AR   Ar  229   6.426   4.902  -0.992
    1   AR   Ar  230   3.526   4.009   4.366
    1   AR   Ar  231   4.257   1.816   1.904
    1   AR   Ar  232   5.429   3.025   1.452
    1   AR   Ar  233   6.909   2.658   3.994
    1   AR   Ar  234   5.830   2.208   4.409
    1   AR   Ar  235   6.307   0.239   3.603
    1   AR   Ar  236   4.825   5.401   5.548
    1   AR   Ar  237   4.996   2.720   6.669
    1   AR   Ar  238   5.734   5.285   6.304
    1   AR   Ar  239   0.522   4.974  10.197
    1   AR   Ar  240   0.219   2.317   6.735
    1   AR   Ar  241   2.313   6.220  -0.470
    1   AR   Ar  242   5.353   6.079   1.485
    1   AR   Ar  243   4.283   6.080   3.098
    1   AR   Ar  244   0.438   5.073   0.433
    1   AR   Ar  245   3.940   6.974   2.567
    1   AR   Ar  246   5.904   6.415  -0.777
    1   AR   Ar  247   6.506   3.850   1.598
    1   AR   Ar  248   4.966   5.991   0.460
    1   AR   Ar  249   4.509   6.570   1.680
    1   AR   Ar  250   4.874   5.886   4.211
    1   AR   Ar  251   4.567   4.110   4.893
    1   AR   Ar  252   3.049   4.528   2.182
    1   AR   Ar  253   6.132   2.754   6.649
    1   AR   Ar  254   4.846   2.221   9.893
    1   AR   Ar  255   2.879   5.616  10.188
    1   AR   Ar  256   5.827   5.232   3.384
    7.12000  7.12000 12.00000
Argon-slab step 4410
  256
    1   AR   Ar    1   5.130   3.179  -2.698
    1   AR   Ar    2   5.422   7.069   0.494
    1   AR   Ar    3   3.609   2.443  -1.262
    1   AR   Ar    4   1.830   1.326   0.717
    1   AR   Ar    5   6.264   5.986   0.175
    1   AR   Ar    6   1.681   1.887   1.740
    1   AR   Ar    7   5.671   4.140   3.466
    1   AR   Ar    8   4.905   1.607  -0.493
    1   AR   Ar    9   0.526   0.228   4.040
    1   AR   Ar   10   6.828   6.699   4.660
    1   AR   Ar   11   1.601   6.874   4.665
    1   AR   Ar   12   0.239   1.563   4.028
    1   AR   Ar   13   6.945   0.855   4.680
    1   AR   Ar   14   3.742   1.857   6.298
    1   AR   Ar   15   3.646   6.635   8.447
    1   AR   Ar   16   0.620   7.117   5.028
    1   AR   Ar   17   5.960   2.235   0.839
    1   AR   Ar   18   6.926   5.497  -0.400
    1   AR   Ar   19   4.201   4.121   0.050
    1   AR   Ar   20   6.655   4.344  -2.821
    1   AR   Ar   21   2.838   1.994   2.306
    1   AR   Ar   22   5.331   1.131   2.149
    1   AR   Ar   23   0.155   6.283   0.946
    1   AR   Ar   24   5.525   2.414   2.473
    1   AR   Ar   25   0.762   2.520   3.976
    1   AR   Ar   26   5.519   6.415   4.762
    1   AR   Ar   27   1.544   0.862   2.298
    1   AR   Ar   28   1.829   2.684   3.841
    1   AR   Ar   29   4.747   1.419   6.877
    1   AR   Ar   30   1.146   1.061   3.486
    1   AR   Ar   31   3.985   0.246   7.163
    1   AR   Ar   32   0.898   2.745   5.946
    1   AR   Ar   33   0.569   4.222  -0.022
    1   AR   Ar   34   0.514   4.674   2.331
    1   AR   Ar   35   5.730   4.724   2.217
    1   AR   Ar   36   6.046   2.930  -2.205
    1   AR   Ar   37   4.261   3.247   2.016
    1   AR   Ar   38   6.893   4.198   3.796
    1   AR   Ar   39   0.255   3.271   3.252
    1   AR   Ar   40   1.789   4.821   1.817
    1   AR   Ar   41   0.227   2.162   3.022
    1   AR   Ar   42   5.908   5.493   4.870
    1   AR   Ar   43   6.860   2.604   5.898
    1   AR   Ar   44   0.823   4.187   3.293
    1   AR   Ar   45   0.279   3.696   5.330
    1   AR   Ar   46   0.807   4.521   6.092
    1   AR   Ar   47   3.598   5.423   7.423
    1   AR   Ar   48   5.796   3.615   7.491
    1   AR   Ar   49   6.511   0.043  -1.254
    1   AR   Ar   50   3.531   5.110   0.007
    1   AR   Ar   51   5.834   3.622   2.356
    1   AR   Ar   52   4.990   2.845  -1.492
    1   AR   Ar   53   5.395   6.774   2.490
    1   AR   Ar   54   0.481   0.149   2.025
    1   AR   Ar   55   6.621   4.260   2.781
    1   AR   Ar   56   0.108   0.924   3.103
    1   AR   Ar   57   3.925   4.391   3.299
    1   AR   Ar   58   0.606   3.524   4.213
    1   AR   Ar   59   2.730   5.420   5.793
    1   AR   Ar   60   0.085   5.316   3.357
    1   AR   Ar   61   6.976   3.930   6.797
    1   AR   Ar   62   6.590   4.439   4.950
    1   AR   Ar   63   2.112   2.471   6.731
    1   AR   Ar   64   0.134   5.235   5.439
    1   AR   Ar   65   3.540   0.138   1.471
    1   AR   Ar   66   0.411   1.016   0.883
    1   AR   Ar   67   5.141   0.651  -0.828
    1   AR   Ar   68   1.099   1.242  -0.917
    1   AR   Ar   69   3.238   1.161   0.325
    1   AR   Ar   70   0.610   1.566   2.023
    1   AR   Ar   71   2.759   0.907   2.726
    1   AR   Ar   72   4.480   0.671   1.125
    1   AR   Ar   73   3.327   0.488   3.842
    1   AR   Ar   74   0.758   1.352   4.889
    1   AR   Ar   75   3.411   0.538   5.054
    1   AR   Ar   76   2.321   0.584   1.207
    1   AR   Ar   77   1.587   0.242   5.661
    1   AR   Ar   78   6.677   5.553   6.268
    1   AR   Ar   79   3.890   6.443   6.579
    1   AR   Ar   80   3.734   5.536   5.678
    1   AR   Ar   81   1.172   6.818   0.970
    1   AR   Ar   82   6.511   4.480   0.636
    1   AR   Ar   83   0.929   3.056  -0.209
    1   AR   Ar   84   1.081   4.223   0.978
    1   AR   Ar   85   2.193   3.367   0.476
    1   AR   Ar   86   1.943   5.394   0.937
    1   AR   Ar   87   3.168   3.441   2.249
    1   AR   Ar   88   2.989   5.326   1.303
    1   AR   Ar   89   7.082   2.307   1.383
    1   AR   Ar   90   3.283   1.787   5.054
    1   AR   Ar   91   1.846   1.842   2.887
    1   AR   Ar   92   1.405   3.545   1.626
    1   AR   Ar   93   1.657   1.429   6.019
    1   AR   Ar   94   0.932   0.095   9.084
    1   AR   Ar   95   4.395   1.458   5.346
    1   AR   Ar   96   2.585   6.909   4.528
    1   AR   Ar   97   3.640   1.648  -0.672
    1   AR   Ar   98   1.842   4.453   3.901
    1   AR   Ar   99   6.761   1.552   0.134
    1   AR   Ar  100   0.262   3.298  -2.113
    1   AR   Ar  101   3.604   5.777   2.083
    1   AR   Ar  102   3.844   1.153   2.853
    1   AR   Ar  103   2.440   4.545   0.750
    1   AR   Ar  104   3.179   5.351  -1.005
    1   AR   Ar  105   2.588   1.261   3.756
    1   AR   Ar  106   3.520   2.631   5.687
    1   AR   Ar  107   1.369   4.424   4.813
    1   AR   Ar  108   2.378   1.261   4.982
    1   AR   Ar  109   1.160   2.983   4.885
    1   AR   Ar  110   2.541   2.301   4.464
    1   AR   Ar  111   4.657   6.495   7.812
    1   AR   Ar  112   0.567   6.449   5.839
    1   AR   Ar  113   3.737   4.495  -1.188
    1   AR   Ar  114   2.601   6.885  -1.758
    1   AR   Ar  115   1.516   4.866   0.227
    1   AR   Ar  116   4.214   1.009  -0.052
    1   AR   Ar  117   0.444   4.816   4.252
    1   AR   Ar  118   1.196   5.078   3.535
    1   AR   Ar  119   2.146   4.234   2.918
    1   AR   Ar  120   1.481   6.945   2.212
    1   AR   Ar  121   5.538   4.246   5.239
    1   AR   Ar  122   3.147   5.751   4.239
    1   AR   Ar  123   2.743   3.251   5.277
    1   AR   Ar  124   1.013   5.152   1.304
    1   AR   Ar  125   6.479   3.079   4.854
    1   AR   Ar  126   7.045   0.237   6.103
    1   AR   Ar  127   4.308   3.460   6.410
    1   AR   Ar  128   2.808   3.158   6.844
    1   AR   Ar  129   2.158   5.604   4.178
    1   AR   Ar  130   4.745   1.320  -3.965
    1   AR   Ar  131   4.889   4.894  -2.597
    1   AR   Ar  132   0.848   1.931   0.021
    1   AR   Ar  133   4.359   0.444   4.522
    1   AR   Ar  134   3.855   1.637   4.066
    1   AR   Ar  135   6.378   1.682   3.693
    1   AR   Ar  136   6.477   7.040   2.235
    1   AR   Ar  137   2.660   4.053   6.175
    1   AR   Ar  138   5.222   1.824   5.874
    1   AR   Ar  139   5.764   2.701   5.503
    1   AR   Ar  140   4.319   6.380   4.876
    1   AR   Ar  141   4.090   5.005   4.773
    1   AR   Ar  142   4.995   0.255   6.804
    1   AR   Ar  143   6.347   6.582   6.742
    1   AR   Ar  144   6.401   1.843   5.124
    1   AR   Ar  145   4.395   5.312  -0.740
    1   AR   Ar  146   3.950   2.386   2.834
    1   AR   Ar  147   4.779   3.814  -1.007
    1   AR   Ar  148   3.250   6.444  -0.921
    1   AR   Ar  149   2.278   1.056  -0.495
    1   AR   Ar  150   2.437   2.958   2.737
    1   AR   Ar  151   2.998   2.296   3.392
    1   AR   Ar  152   1.196   2.566  -1.504
    1   AR   Ar  153   5.337   0.244   4.105
    1   AR   Ar  154   4.244   2.580   3.911
    1   AR   Ar  155   6.334   3.606   5.868
    1   AR   Ar  156   2.927   4.569   3.492
    1   AR   Ar  157   1.659   5.045   6.607
    1   AR   Ar  158   0.366   1.609   5.959
    1   AR   Ar  159   4.033   0.321   5.932
    1   AR   Ar  160   1.559   1.941   4.959
    1   AR   Ar  161   4.834   5.071   3.422
    1   AR   Ar  162   4.301   6.318  -0.410
    1   AR   Ar  163   5.480   4.905   1.258
    1   AR   Ar  164   1.823   5.827   2.220
    1   AR   Ar  165   3.527   3.622   0.800
    1   AR   Ar  166   2.603   3.366   4.273
    1   AR   Ar  167   5.576   6.199   3.336
    1   AR   Ar  168   5.401   4.111  -1.862
    1   AR   Ar  169   3.344   3.288   3.365
    1   AR   Ar  170   1.853   3.314   5.893
    1   AR   Ar  171   5.809   4.710   4.300
    1   AR   Ar  172   3.736   3.830   5.545
    1   AR   Ar  173   2.428   2.149   5.743
    1   AR   Ar  174   2.388   6.243   5.301
    1   AR   Ar  175   3.003   1.151   6.103
    1   AR   Ar  176   3.788   3.052   4.619
    1   AR   Ar  177   1.333   5.070  -0.879
    1   AR   Ar  178   2.757   6.026   0.581
    1   AR   Ar  179   3.061   6.903   0.057
    1   AR   Ar  180   5.414   1.364  -5.959
    1   AR   Ar  181   0.092   5.566   1.747
    1   AR   Ar  182   0.847   5.761   2.620
    1   AR   Ar  183   4.731   5.022   1.849
    1   AR   Ar  184   4.113   6.950   0.595
    1   AR   Ar  185   2.744   4.749   4.643
    1   AR   Ar  186   2.241   5.305   3.161
    1   AR   Ar  187   3.738   6.607   3.792
    1   AR   Ar  188   2.570   6.985   2.549
    1   AR   Ar  189   5.436   3.783   6.358
    1   AR   Ar  190   2.466   6.325   3.462
    1   AR   Ar  191   2.840   6.345   7.709
    1   AR   Ar  192   4.643   5.038   6.511
    1   AR   Ar  193   2.325   6.577   1.424
    1   AR   Ar  194   5.226   4.643  -0.833
    1   AR   Ar  195   5.940   1.172   0.966
    1   AR   Ar  196   3.779   0.357  -0.661
    1   AR   Ar  197   4.098   2.085   0.731
    1   AR   Ar  198   5.416   0.236   1.588
    1   AR   Ar  199   2.037   0.361   3.495
    1   AR   Ar  200   4.640   2.898   0.370
    1   AR   Ar  201   6.514   5.978   2.650
    1   AR   Ar  202   5.286   1.027   4.934
    1   AR   Ar  203   7.034   6.630   3.259
    1   AR   Ar  204   4.912   6.152   6.264
    1   AR   Ar  205   6.345   1.491   1.866
    1   AR   Ar  206   6.259   0.861   5.554
    1   AR   Ar  207   0.214   2.452   4.989
    1   AR   Ar  208   0.972   5.734   4.514
    1   AR   Ar  209   0.012   1.956  -2.334
    1   AR   Ar  210   1.909   6.791   0.183
    1   AR   Ar  211   0.413   3.353   0.712
    1   AR   Ar  212   5.668   3.386   0.226
    1   AR   Ar  213   3.542   1.333   1.278
    1   AR   Ar  214   4.762   4.116   2.439
    1   AR   Ar  215   6.683   2.818   2.338
    1   AR   Ar  216   1.514   2.515   0.647
    1   AR   Ar  217   5.017   1.972   3.320
    1   AR   Ar  218   4.939   3.314   4.204
    1   AR   Ar  219   4.415   3.322   2.984
    1   AR   Ar  220   4.381   4.005   1.366
    1   AR   Ar  221   6.668   5.789   4.034
    1   AR   Ar  222   5.248   6.940   5.647
    1   AR   Ar  223   6.362   1.547   6.493
    1   AR   Ar  224   4.696   2.492   4.945
    1   AR   Ar  225   6.247   3.356   3.446
    1   AR   Ar  226   1.356   3.289   2.977
    1   AR   Ar  227   0.552   3.663   2.374
    1   AR   Ar  228   6.632   0.605   1.269
    1   AR   Ar  229   6.427   4.880  -1.009
    1   AR   Ar  230   3.548   4.006   4.344
    1   AR   Ar  231   4.275   1.818   1.911
    1   AR   Ar  232   5.382   3.033   1.426
    1   AR   Ar  233   6.884   2.672   3.993
    1   AR   Ar  234   5.827   2.197   4.383
    1   AR   Ar  235   6.315   0.225   3.601
    1   AR   Ar  236   4.826   5.417   5.509
    1   AR   Ar  237   5.031   2.696   6.683
    1   AR   Ar  238   5.724   5.301   6.277
    1   AR   Ar  239   0.534   4.990  10.183
    1   AR   Ar  240   0.285   2.302   6.710
    1   AR   Ar  241   2.332   6.229  -0.473
    1   AR   Ar  242   5.350   6.091   1.481
    1   AR   Ar  243   4.289   6.059   3.127
    1   AR   Ar  244   0.449   5.072   0.449
    1   AR   Ar  245   3.936   6.986   2.558
    1   AR   Ar  246   5.897   6.428  -0.782
    1   AR   Ar  247   6.512   3.846   1.599
    1   AR   Ar  248   4.982   6.018   0.469
    1   AR   Ar  249   4.505   6.588   1.722
    1   AR   Ar  250   4.849   5.912   4.241
    1   AR   Ar  251   4.557   4.105   4.869
    1   AR   Ar  252   3.015   4.510   2.148
    1   AR   Ar  253   6.114   2.755   6.674
    1   AR   Ar  254   4.838   2.193   9.922
    1   AR   Ar  255   2.901   5.609  10.205
    1   AR   Ar  256   5.825   5.229   3.360
    7.12000  7.12000 12.00000
Argon-slab step 4415
  256
    1   AR   Ar    1   5.137   3.175  -2.714
    1   AR   Ar    2   5.429   7.067   0.487
    1   AR   Ar    3   3.597   2.472  -1.253
    1   AR   Ar    4   1.794   1.367   0.710
    1   AR   Ar    5   6.259   5.990   0.182
    1   AR   Ar    6   1.679   1.883   1.722
    1   AR   Ar    7   5.645   4.166   3.470
    1   AR   Ar    8   4.951   1.633  -0.517
    1   AR   Ar    9   0.514   0.224   4.017
    1   AR   Ar   10   6.853   6.729   4.682
    1   AR   Ar   11   1.611   6.901   4.649
    1   AR   Ar   12   0.189   1.554   4.015
    1   AR   Ar   13   6.922   0.844   4.650
    1   AR   Ar   14   3.763   1.841   6.294
    1   AR   Ar   15   3.679   6.638   8.428
    1   AR   Ar   16   0.607   7.114   5.023
    1   AR   Ar   17   5.972   2.283   0.828
    1   AR   Ar   18   6.915   5.535  -0.410
    1   AR   Ar   19   4.204   4.137   0.049
    1   AR   Ar   20   6.647   4.342  -2.807
    1   AR   Ar   21   2.812   1.991   2.351
    1   AR   Ar   22   5.344   1.149   2.128
    1   AR   Ar   23   0.142   6.289   0.953
    1   AR   Ar   24   5.513   2.389   2.462
    1   AR   Ar   25   0.720   2.503   3.998
    1   AR   Ar   26   5.473   6.416   4.765
    1   AR   Ar   27   1.539   0.893   2.306
    1   AR   Ar   28   1.834   2.684   3.822
    1   AR   Ar   29   4.744   1.403   6.866
    1   AR   Ar   30   1.172   1.042   3.468
    1   AR   Ar   31   4.020   0.244   7.193
    1   AR   Ar   32   0.932   2.751   5.944
    1   AR   Ar   33   0.601   4.219  -0.034
    1   AR   Ar   34   0.512   4.690   2.347
    1   AR   Ar   35   5.727   4.721   2.236
    1   AR   Ar   36   6.018   2.917  -2.249
    1   AR   Ar   37   4.256   3.247   1.984
    1   AR   Ar   38   6.887   4.149   3.821
    1   AR   Ar   39   0.251   3.288   3.250
    1   AR   Ar   40   1.815   4.814   1.810
    1   AR   Ar   41   0.253   2.171   2.994
    1   AR   Ar   42   5.925   5.501   4.928
    1   AR   Ar   43   6.851   2.620   5.896
    1   AR   Ar   44   0.800   4.206   3.256
    1   AR   Ar   45   0.264   3.704   5.365
    1   AR   Ar   46   0.821   4.519   6.113
    1   AR   Ar   47   3.633   5.425   7.426
    1   AR   Ar   48   5.785   3.646   7.502
    1   AR   Ar   49   6.517   0.043  -1.232
    1   AR   Ar   50   3.514   5.131   0.012
    1   AR   Ar   51   5.824   3.608   2.398
    1   AR   Ar   52   4.983   2.866  -1.467
    1   AR   Ar   53   5.382   6.788   2.489
    1   AR   Ar   54   0.462   0.141   1.998
    1   AR   Ar   55   6.618   4.227   2.722
    1   AR   Ar   56   0.103   0.970   3.105
    1   AR   Ar   57   3.910   4.381   3.301
    1   AR   Ar   58   0.605   3.486   4.237
    1   AR   Ar   59   2.740   5.422   5.798
    1   AR   Ar   60   0.064   5.299   3.327
    1   AR   Ar   61   6.935   3.920   6.836
    1   AR   Ar   62   6.594   4.460   4.955
    1   AR   Ar   63   2.111   2.489   6.759
    1   AR   Ar   64   0.111   5.244   5.404
    1   AR   Ar   65   3.539   0.126   1.492
    1   AR   Ar   66   0.410   1.035   0.886
    1   AR   Ar   67   5.148   0.652  -0.797
    1   AR   Ar   68   1.060   1.273  -0.900
    1   AR   Ar   69   3.231   1.176   0.335
    1   AR   Ar   70   0.614   1.534   2.009
    1   AR   Ar   71   2.798   0.873   2.751
    1   AR   Ar   72   4.494   0.696   1.164
    1   AR   Ar   73   3.348   0.490   3.837
    1   AR   Ar   74   0.726   1.341   4.904
    1   AR   Ar   75   3.405   0.530   5.039
    1   AR   Ar   76   2.361   0.595   1.221
    1   AR   Ar   77   1.587   0.233   5.685
    1   AR   Ar   78   6.691   5.533   6.236
    1   AR   Ar   79   3.893   6.451   6.583
    1   AR   Ar   80   3.706   5.533   5.656
    1   AR   Ar   81   1.156   6.832   0.993
    1   AR   Ar   82   6.514   4.472   0.629
    1   AR   Ar   83   0.932   3.056  -0.226
    1   AR   Ar   84   1.110   4.225   0.973
    1   AR   Ar   85   2.219   3.363   0.441
    1   AR   Ar   86   1.953   5.421   0.928
    1   AR   Ar   87   3.150   3.449   2.235
    1   AR   Ar   88   3.010   5.326   1.312
    1   AR   Ar   89   7.074   2.293   1.334
    1   AR   Ar   90   3.290   1.781   5.066
    1   AR   Ar   91   1.850   1.844   2.897
    1   AR   Ar   92   1.398   3.548   1.607
    1   AR   Ar   93   1.680   1.429   6.028
    1   AR   Ar   94   0.916   0.092   9.093
    1   AR   Ar   95   4.362   1.438   5.370
    1   AR   Ar   96   2.601   6.911   4.521
    1   AR   Ar   97   3.607   1.632  -0.681
    1   AR   Ar   98   1.874   4.463   3.920
    1   AR   Ar   99   6.771   1.574   0.109
    1   AR   Ar  100   0.235   3.303  -2.131
    1   AR   Ar  101   3.605   5.737   2.105
    1   AR   Ar  102   3.850   1.186   2.855
    1   AR   Ar  103   2.428   4.524   0.756
    1   AR   Ar  104   3.200   5.350  -1.025
    1   AR   Ar  105   2.559   1.255   3.729
    1   AR   Ar  106   3.549   2.638   5.685
    1   AR   Ar  107   1.372   4.441   4.824
    1   AR   Ar  108   2.382   1.243   5.002
    1   AR   Ar  109   1.160   2.971   4.892
    1   AR   Ar  110   2.542   2.288   4.484
    1   AR   Ar  111   4.619   6.499   7.822
    1   AR   Ar  112   0.548   6.443   5.871
    1   AR   Ar  113   3.722   4.485  -1.156
    1   AR   Ar  114   2.614   6.902  -1.753
    1   AR   Ar  115   1.550   4.876   0.232
    1   AR   Ar  116   4.255   0.985  -0.050
    1   AR   Ar  117   0.422   4.822   4.219
    1   AR   Ar  118   1.174   5.083   3.520
    1   AR   Ar  119   2.157   4.208   2.894
    1   AR   Ar  120   1.477   6.946   2.235
    1   AR   Ar  121   5.520   4.250   5.246
    1   AR   Ar  122   3.151   5.738   4.236
    1   AR   Ar  123   2.726   3.252   5.283
    1   AR   Ar  124   0.996   5.148   1.329
    1   AR   Ar  125   6.473   3.098   4.852
    1   AR   Ar  126   7.053   0.251   6.099
    1   AR   Ar  127   4.320   3.443   6.405
    1   AR   Ar  128   2.792   3.150   6.886
    1   AR   Ar  129   2.166   5.600   4.190
    1   AR   Ar  130   4.731   1.315  -3.992
    1   AR   Ar  131   4.867   4.902  -2.600
    1   AR   Ar  132   0.855   1.934   0.054
    1   AR   Ar  133   4.338   0.458   4.537
    1   AR   Ar  134   3.843   1.619   4.076
    1   AR   Ar  135   6.364   1.677   3.726
    1   AR   Ar  136   6.480   7.059   2.198
    1   AR   Ar  137   2.695   4.070   6.171
    1   AR   Ar  138   5.231   1.859   5.876
    1   AR   Ar  139   5.768   2.689   5.513
    1   AR   Ar  140   4.323   6.376   4.901
    1   AR   Ar  141   4.112   5.025   4.746
    1   AR   Ar  142   5.004   0.262   6.818
    1   AR   Ar  143   6.323   6.592   6.738
    1   AR   Ar  144   6.403   1.845   5.137
    1   AR   Ar  145   4.387   5.351  -0.741
    1   AR   Ar  146   3.952   2.378   2.829
    1   AR   Ar  147   4.780   3.805  -0.943
    1   AR   Ar  148   3.269   6.489  -0.952
    1   AR   Ar  149   2.321   1.034  -0.509
    1   AR   Ar  150   2.440   2.951   2.736
    1   AR   Ar  151   2.988   2.267   3.370
    1   AR   Ar  152   1.176   2.546  -1.493
    1   AR   Ar  153   5.313   0.262   4.093
    1   AR   Ar  154   4.256   2.613   3.920
    1   AR   Ar  155   6.315   3.590   5.903
    1   AR   Ar  156   2.922   4.543   3.483
    1   AR   Ar  157   1.629   5.002   6.618
    1   AR   Ar  158   0.378   1.613   5.948
    1   AR   Ar  159   4.086   0.332   5.895
    1   AR   Ar  160   1.546   1.945   4.968
    1   AR   Ar  161   4.848   5.096   3.441
    1   AR   Ar  162   4.305   6.312  -0.388
    1   AR   Ar  163   5.478   4.913   1.247
    1   AR   Ar  164   1.815   5.855   2.203
    1   AR   Ar  165   3.510   3.662   0.789
    1   AR   Ar  166   2.606   3.375   4.275
    1   AR   Ar  167   5.597   6.228   3.291
    1   AR   Ar  168   5.411   4.105  -1.832
    1   AR   Ar  169   3.339   3.267   3.351
    1   AR   Ar  170   1.847   3.291   5.892
    1   AR   Ar  171   5.790   4.714   4.309
    1   AR   Ar  172   3.710   3.841   5.527
    1   AR   Ar  173   2.432   2.157   5.763
    1   AR   Ar  174   2.429   6.257   5.284
    1   AR   Ar  175   2.974   1.126   6.076
    1   AR   Ar  176   3.781   3.056   4.623
    1   AR   Ar  177   1.330   5.057  -0.882
    1   AR   Ar  178   2.715   6.018   0.561
    1   AR   Ar  179   3.070   6.889   0.085
    1   AR   Ar  180   5.404   1.353  -5.977
    1   AR   Ar  181   0.081   5.577   1.727
    1   AR   Ar  182   0.833   5.768   2.651
    1   AR   Ar  183   4.728   5.026   1.846
    1   AR   Ar  184   4.118   6.922   0.577
    1   AR   Ar  185   2.744   4.753   4.646
    1   AR   Ar  186   2.237   5.289   3.180
    1   AR   Ar  187   3.756   6.601   3.811
    1   AR   Ar  188   2.582   6.992   2.555
    1   AR   Ar  189   5.442   3.792   6.328
    1   AR   Ar  190   2.476   6.333   3.448
    1   AR   Ar  191   2.875   6.369   7.711
    1   AR   Ar  192   4.663   5.054   6.480
    1   AR   Ar  193   2.294   6.571   1.424
    1   AR   Ar  194   5.220   4.694  -0.825
    1   AR   Ar  195   5.910   1.208   0.987
    1   AR   Ar  196   3.766   0.363  -0.657
    1   AR   Ar  197   4.098   2.108   0.736
    1   AR   Ar  198   5.409   0.259   1.574
    1   AR   Ar  199   2.024   0.375   3.482
    1   AR   Ar  200   4.635   2.905   0.379
    1   AR   Ar  201   6.495   5.962   2.623
    1   AR   Ar  202   5.282   0.985   4.943
    1   AR   Ar  203   7.042   6.627   3.275
    1   AR   Ar  204   4.866   6.138   6.260
    1   AR   Ar  205   6.344   1.520   1.852
    1   AR   Ar  206   6.288   0.852   5.561
    1   AR   Ar  207   0.214   2.487   5.022
    1   AR   Ar  208   0.974   5.740   4.532
    1   AR   Ar  209   0.019   1.948  -2.342
    1   AR   Ar  210   1.885   6.810   0.189
    1   AR   Ar  211   0.399   3.408   0.717
    1   AR   Ar  212   5.675   3.388   0.228
    1   AR   Ar  213   3.576   1.396   1.291
    1   AR   Ar  214   4.780   4.104   2.412
    1   AR   Ar  215   6.695   2.827   2.337
    1   AR   Ar  216   1.497   2.511   0.631
    1   AR   Ar  217   5.014   1.988   3.299
    1   AR   Ar  218   4.920   3.326   4.223
    1   AR   Ar  219   4.413   3.323   3.004
    1   AR   Ar  220   4.390   4.027   1.373
    1   AR   Ar  221   6.666   5.813   4.029
    1   AR   Ar  222   5.254   6.972   5.646
    1   AR   Ar  223   6.357   1.512   6.488
    1   AR   Ar  224   4.678   2.521   4.951
    1   AR   Ar  225   6.217   3.370   3.410
    1   AR   Ar  226   1.346   3.299   2.981
    1   AR   Ar  227   0.518   3.667   2.386
    1   AR   Ar  228   6.657   0.592   1.266
    1   AR   Ar  229   6.423   4.852  -1.032
    1   AR   Ar  230   3.569   4.003   4.320
    1   AR   Ar  231   4.294   1.820   1.920
    1   AR   Ar  232   5.334   3.041   1.401
    1   AR   Ar  233   6.863   2.697   3.996
    1   AR   Ar  234   5.815   2.193   4.355
    1   AR   Ar  235   6.323   0.211   3.599
    1   AR   Ar  236   4.828   5.433   5.465
    1   AR   Ar  237   5.066   2.670   6.696
    1   AR   Ar  238   5.701   5.314   6.249
    1   AR   Ar  239   0.547   5.005  10.168
    1   AR   Ar  240   0.352   2.289   6.696
    1   AR   Ar  241   2.356   6.225  -0.486
    1   AR   Ar  242   5.355   6.094   1.483
    1   AR   Ar  243   4.300   6.034   3.153
    1   AR   Ar  244   0.430   5.076   0.439
    1   AR   Ar  245   3.931   6.999   2.551
    1   AR   Ar  246   5.888   6.438  -0.785
    1   AR   Ar  247   6.516   3.859   1.605
    1   AR   Ar  248   4.997   6.045   0.477
    1   AR   Ar  249   4.495   6.611   1.765
    1   AR   Ar  250   4.828   5.920   4.249
    1   AR   Ar  251   4.547   4.094   4.845
    1   AR   Ar  252   2.979   4.494   2.115
    1   AR   Ar  253   6.098   2.756   6.698
    1   AR   Ar  254   4.830   2.165   9.951
    1   AR   Ar  255   2.923   5.602  10.222
    1   AR   Ar  256   5.835   5.219   3.334
    7.12000  7.12000 12.00000
Argon-slab step 4420
  256
    1   AR   Ar    1   5.140   3.174  -2.730
    1   AR   Ar    2   5.435   7.065   0.481
    1   AR   Ar    3   3.585   2.507  -1.247
    1   AR   Ar    4   1.758   1.410   0.702
    1   AR   Ar    5   6.246   5.999   0.197
    1   AR   Ar    6   1.678   1.880   1.703
    1   AR   Ar    7   5.610   4.197   3.467
    1   AR   Ar    8   4.997   1.666  -0.541
    1   AR   Ar    9   0.501   0.222   3.990
    1   AR   Ar   10   6.872   6.757   4.701
    1   AR   Ar   11   1.612   6.927   4.632
    1   AR   Ar   12   0.163   1.549   3.994
    1   AR   Ar   13   6.895   0.829   4.623
    1   AR   Ar   14   3.787   1.820   6.291
    1   AR   Ar   15   3.713   6.640   8.408
    1   AR   Ar   16   0.600   7.116   5.026
    1   AR   Ar   17   5.985   2.333   0.817
    1   AR   Ar   18   6.913   5.570  -0.422
    1   AR   Ar   19   4.208   4.153   0.047
    1   AR   Ar   20   6.638   4.339  -2.793
    1   AR   Ar   21   2.787   1.985   2.394
    1   AR   Ar   22   5.355   1.171   2.108
    1   AR   Ar   23   0.130   6.297   0.959
    1   AR   Ar   24   5.503   2.367   2.448
    1   AR   Ar   25   0.688   2.478   4.018
    1   AR   Ar   26   5.437   6.429   4.775
    1   AR   Ar   27   1.536   0.927   2.316
    1   AR   Ar   28   1.837   2.685   3.801
    1   AR   Ar   29   4.741   1.388   6.853
    1   AR   Ar   30   1.197   1.026   3.449
    1   AR   Ar   31   4.052   0.243   7.225
    1   AR   Ar   32   0.964   2.755   5.940
    1   AR   Ar   33   0.629   4.210  -0.048
    1   AR   Ar   34   0.510   4.714   2.360
    1   AR   Ar   35   5.727   4.716   2.262
    1   AR   Ar   36   5.995   2.904  -2.291
    1   AR   Ar   37   4.249   3.237   1.953
    1   AR   Ar   38   6.877   4.097   3.844
    1   AR   Ar   39   0.236   3.310   3.256
    1   AR   Ar   40   1.848   4.802   1.809
    1   AR   Ar   41   0.279   2.179   2.967
    1   AR   Ar   42   5.946   5.510   4.992
    1   AR   Ar   43   6.837   2.637   5.896
    1   AR   Ar   44   0.773   4.220   3.223
    1   AR   Ar   45   0.248   3.711   5.399
    1   AR   Ar   46   0.832   4.515   6.130
    1   AR   Ar   47   3.658   5.439   7.427
    1   AR   Ar   48   5.775   3.675   7.511
    1   AR   Ar   49   6.492   0.035  -1.193
    1   AR   Ar   50   3.497   5.152   0.018
    1   AR   Ar   51   5.809   3.591   2.441
    1   AR   Ar   52   4.977   2.887  -1.443
    1   AR   Ar   53   5.367   6.806   2.481
    1   AR   Ar   54   0.455   0.126   1.949
    1   AR   Ar   55   6.619   4.196   2.664
    1   AR   Ar   56   0.099   1.015   3.107
    1   AR   Ar   57   3.903   4.368   3.302
    1   AR   Ar   58   0.597   3.461   4.258
    1   AR   Ar   59   2.740   5.417   5.808
    1   AR   Ar   60   0.046   5.277   3.290
    1   AR   Ar   61   6.894   3.909   6.874
    1   AR   Ar   62   6.600   4.479   4.960
    1   AR   Ar   63   2.096   2.492   6.784
    1   AR   Ar   64   0.091   5.251   5.364
    1   AR   Ar   65   3.537   0.116   1.513
    1   AR   Ar   66   0.459   1.042   0.910
    1   AR   Ar   67   5.156   0.649  -0.765
    1   AR   Ar   68   1.021   1.305  -0.882
    1   AR   Ar   69   3.222   1.189   0.341
    1   AR   Ar   70   0.618   1.501   1.995
    1   AR   Ar   71   2.836   0.843   2.774
    1   AR   Ar   72   4.507   0.722   1.202
    1   AR   Ar   73   3.369   0.494   3.833
    1   AR   Ar   74   0.692   1.327   4.921
    1   AR   Ar   75   3.396   0.530   5.022
    1   AR   Ar   76   2.403   0.604   1.235
    1   AR   Ar   77   1.578   0.222   5.696
    1   AR   Ar   78   6.710   5.517   6.207
    1   AR   Ar   79   3.883   6.453   6.564
    1   AR   Ar   80   3.692   5.532   5.632
    1   AR   Ar   81   1.140   6.847   1.019
    1   AR   Ar   82   6.518   4.464   0.622
    1   AR   Ar   83   0.936   3.056  -0.242
    1   AR   Ar   84   1.136   4.230   0.955
    1   AR   Ar   85   2.244   3.362   0.408
    1   AR   Ar   86   1.964   5.461   0.931
    1   AR   Ar   87   3.140   3.460   2.219
    1   AR   Ar   88   3.029   5.324   1.321
    1   AR   Ar   89   7.065   2.279   1.285
    1   AR   Ar   90   3.301   1.775   5.078
    1   AR   Ar   91   1.853   1.886   2.888
    1   AR   Ar   92   1.395   3.541   1.599
    1   AR   Ar   93   1.701   1.429   6.035
    1   AR   Ar   94   0.905   0.068   9.117
    1   AR   Ar   95   4.326   1.418   5.394
    1   AR   Ar   96   2.629   6.917   4.505
    1   AR   Ar   97   3.574   1.610  -0.685
    1   AR   Ar   98   1.912   4.469   3.939
    1   AR   Ar   99   6.781   1.595   0.086
    1   AR   Ar  100   0.208   3.307  -2.149
    1   AR   Ar  101   3.607   5.699   2.128
    1   AR   Ar  102   3.851   1.200   2.880
    1   AR   Ar  103   2.420   4.498   0.763
    1   AR   Ar  104   3.211   5.364  -1.025
    1   AR   Ar  105   2.531   1.254   3.704
    1   AR   Ar  106   3.578   2.651   5.679
    1   AR   Ar  107   1.372   4.457   4.839
    1   AR   Ar  108   2.385   1.223   5.021
    1   AR   Ar  109   1.168   2.956   4.904
    1   AR   Ar  110   2.528   2.307   4.517
    1   AR   Ar  111   4.581   6.504   7.830
    1   AR   Ar  112   0.529   6.435   5.904
    1   AR   Ar  113   3.712   4.457  -1.122
    1   AR   Ar  114   2.627   6.920  -1.747
    1   AR   Ar  115   1.575   4.878   0.225
    1   AR   Ar  116   4.300   0.963  -0.039
    1   AR   Ar  117   0.403   4.828   4.193
    1   AR   Ar  118   1.153   5.105   3.504
    1   AR   Ar  119   2.163   4.179   2.864
    1   AR   Ar  120   1.476   6.945   2.257
    1   AR   Ar  121   5.504   4.255   5.257
    1   AR   Ar  122   3.164   5.726   4.234
    1   AR   Ar  123   2.719   3.250   5.284
    1   AR   Ar  124   0.973   5.156   1.356
    1   AR   Ar  125   6.467   3.122   4.853
    1   AR   Ar  126   7.060   0.264   6.094
    1   AR   Ar  127   4.333   3.425   6.400
    1   AR   Ar  128   2.791   3.155   6.928
    1   AR   Ar  129   2.162   5.594   4.205
    1   AR   Ar  130   4.718   1.310  -4.020
    1   AR   Ar  131   4.844   4.909  -2.602
    1   AR   Ar  132   0.858   1.934   0.085
    1   AR   Ar  133   4.303   0.456   4.554
    1   AR   Ar  134   3.830   1.598   4.081
    1   AR   Ar  135   6.348   1.667   3.748
    1   AR   Ar  136   6.482   7.077   2.162
    1   AR   Ar  137   2.731   4.086   6.166
    1   AR   Ar  138   5.240   1.891   5.880
    1   AR   Ar  139   5.771   2.679   5.524
    1   AR   Ar  140   4.313   6.384   4.944
    1   AR   Ar  141   4.131   5.050   4.716
    1   AR   Ar  142   5.014   0.268   6.829
    1   AR   Ar  143   6.299   6.602   6.733
    1   AR   Ar  144   6.408   1.846   5.153
    1   AR   Ar  145   4.363   5.339  -0.735
    1   AR   Ar  146   3.953   2.369   2.825
    1   AR   Ar  147   4.776   3.788  -0.878
    1   AR   Ar  148   3.292   6.535  -0.982
    1   AR   Ar  149   2.365   1.011  -0.522
    1   AR   Ar  150   2.426   2.934   2.744
    1   AR   Ar  151   2.977   2.234   3.353
    1   AR   Ar  152   1.154   2.526  -1.481
    1   AR   Ar  153   5.290   0.278   4.081
    1   AR   Ar  154   4.274   2.634   3.911
    1   AR   Ar  155   6.297   3.597   5.928
    1   AR   Ar  156   2.916   4.517   3.481
    1   AR   Ar  157   1.601   4.960   6.629
    1   AR   Ar  158   0.389   1.612   5.930
    1   AR   Ar  159   4.140   0.343   5.858
    1   AR   Ar  160   1.539   1.954   4.979
    1   AR   Ar  161   4.854   5.119   3.460
    1   AR   Ar  162   4.307   6.312  -0.365
    1   AR   Ar  163   5.484   4.915   1.241
    1   AR   Ar  164   1.809   5.882   2.186
    1   AR   Ar  165   3.493   3.702   0.778
    1   AR   Ar  166   2.610   3.386   4.270
    1   AR   Ar  167   5.619   6.255   3.255
    1   AR   Ar  168   5.421   4.099  -1.801
    1   AR   Ar  169   3.335   3.250   3.340
    1   AR   Ar  170   1.843   3.268   5.892
    1   AR   Ar  171   5.795   4.731   4.326
    1   AR   Ar  172   3.682   3.851   5.507
    1   AR   Ar  173   2.439   2.166   5.780
    1   AR   Ar  174   2.468   6.271   5.267
    1   AR   Ar  175   2.944   1.101   6.047
    1   AR   Ar  176   3.771   3.058   4.641
    1   AR   Ar  177   1.337   5.050  -0.874
    1   AR   Ar  178   2.676   6.011   0.538
    1   AR   Ar  179   3.081   6.877   0.112
    1   AR   Ar  180   5.380   1.362  -5.992
    1   AR   Ar  181   0.069   5.587   1.711
    1   AR   Ar  182   0.817   5.774   2.682
    1   AR   Ar  183   4.713   5.046   1.882
    1   AR   Ar  184   4.124   6.893   0.559
    1   AR   Ar  185   2.745   4.758   4.648
    1   AR   Ar  186   2.231   5.273   3.196
    1   AR   Ar  187   3.771   6.598   3.836
    1   AR   Ar  188   2.552   6.971   2.548
    1   AR   Ar  189   5.438   3.802   6.303
    1   AR   Ar  190   2.487   6.344   3.434
    1   AR   Ar  191   2.911   6.393   7.711
    1   AR   Ar  192   4.681   5.070   6.450
    1   AR   Ar  193   2.263   6.565   1.425
    1   AR   Ar  194   5.220   4.753  -0.816
    1   AR   Ar  195   5.868   1.246   1.000
    1   AR   Ar  196   3.748   0.363  -0.658
    1   AR   Ar  197   4.098   2.129   0.741
    1   AR   Ar  198   5.403   0.279   1.558
    1   AR   Ar  199   2.012   0.384   3.467
    1   AR   Ar  200   4.662   2.920   0.382
    1   AR   Ar  201   6.475   5.944   2.596
    1   AR   Ar  202   5.280   0.943   4.954
    1   AR   Ar  203   7.052   6.609   3.266
    1   AR   Ar  204   4.822   6.124   6.257
    1   AR   Ar  205   6.339   1.539   1.829
    1   AR   Ar  206   6.315   0.842   5.569
    1   AR   Ar  207   0.211   2.511   5.029
    1   AR   Ar  208   0.973   5.743   4.519
    1   AR   Ar  209   0.026   1.941  -2.349
    1   AR   Ar  210   1.860   6.834   0.201
    1   AR   Ar  211   0.385   3.462   0.723
    1   AR   Ar  212   5.682   3.389   0.232
    1   AR   Ar  213   3.606   1.454   1.309
    1   AR   Ar  214   4.800   4.094   2.386
    1   AR   Ar  215   6.707   2.837   2.337
    1   AR   Ar  216   1.466   2.492   0.608
    1   AR   Ar  217   5.007   1.998   3.289
    1   AR   Ar  218   4.907   3.341   4.242
    1   AR   Ar  219   4.428   3.325   3.028
    1   AR   Ar  220   4.400   4.057   1.374
    1   AR   Ar  221   6.659   5.840   4.029
    1   AR   Ar  222   5.247   6.995   5.635
    1   AR   Ar  223   6.353   1.480   6.480
    1   AR   Ar  224   4.662   2.548   4.960
    1   AR   Ar  225   6.196   3.373   3.373
    1   AR   Ar  226   1.335   3.311   2.990
    1   AR   Ar  227   0.484   3.669   2.384
    1   AR   Ar  228   6.670   0.586   1.258
    1   AR   Ar  229   6.416   4.822  -1.057
    1   AR   Ar  230   3.588   4.007   4.293
    1   AR   Ar  231   4.316   1.823   1.931
    1   AR   Ar  232   5.286   3.050   1.377
    1   AR   Ar  233   6.834   2.719   3.995
    1   AR   Ar  234   5.801   2.205   4.362
    1   AR   Ar  235   6.331   0.200   3.599
    1   AR   Ar  236   4.833   5.448   5.418
    1   AR   Ar  237   5.097   2.644   6.708
    1   AR   Ar  238   5.672   5.326   6.219
    1   AR   Ar  239   0.562   4.998  10.171
    1   AR   Ar  240   0.417   2.279   6.690
    1   AR   Ar  241   2.383   6.214  -0.504
    1   AR   Ar  242   5.373   6.073   1.515
    1   AR   Ar  243   4.307   6.010   3.144
    1   AR   Ar  244   0.408   5.089   0.432
    1   AR   Ar  245   3.922   7.013   2.548
    1   AR   Ar  246   5.877   6.446  -0.786
    1   AR   Ar  247   6.506   3.886   1.601
    1   AR   Ar  248   5.013   6.070   0.473
    1   AR   Ar  249   4.484   6.636   1.804
    1   AR   Ar  250   4.809   5.905   4.230
    1   AR   Ar  251   4.537   4.080   4.821
    1   AR   Ar  252   2.942   4.482   2.081
    1   AR   Ar  253   6.086   2.759   6.721
    1   AR   Ar  254   4.821   2.137   9.979
    1   AR   Ar  255   2.945   5.594  10.239
    1   AR   Ar  256   5.858   5.209   3.305
    7.12000  7.12000 12.00000
Argon-slab step 4425
  256
    1   AR   Ar    1   5.135   3.175  -2.750
    1   AR   Ar    2   5.441   7.065   0.474
    1   AR   Ar    3   3.574   2.545  -1.243
    1   AR   Ar    4   1.720   1.452   0.692
    1   AR   Ar    5   6.262   5.998   0.209
    1   AR   Ar    6   1.676   1.876   1.686
    1   AR   Ar    7   5.598   4.228   3.457
    1   AR   Ar    8   5.041   1.702  -0.564
    1   AR   Ar    9   0.497   0.226   3.984
    1   AR   Ar   10   6.844   6.755   4.703
    1   AR   Ar   11   1.606   6.950   4.614
    1   AR   Ar   12   0.172   1.549   3.968
    1   AR   Ar   13   6.865   0.809   4.597
    1   AR   Ar   14   3.812   1.797   6.290
    1   AR   Ar   15   3.744   6.643   8.390
    1   AR   Ar   16   0.612   0.002   5.036
    1   AR   Ar   17   5.999   2.383   0.807
    1   AR   Ar   18   6.917   5.602  -0.438
    1   AR   Ar   19   4.212   4.170   0.044
    1   AR   Ar   20   6.629   4.335  -2.778
    1   AR   Ar   21   2.781   1.978   2.414
    1   AR   Ar   22   5.364   1.196   2.090
    1   AR   Ar   23   0.118   6.307   0.961
    1   AR   Ar   24   5.496   2.346   2.429
    1   AR   Ar   25   0.668   2.447   4.036
    1   AR   Ar   26   5.407   6.435   4.790
    1   AR   Ar   27   1.533   0.962   2.326
    1   AR   Ar   28   1.838   2.687   3.777
    1   AR   Ar   29   4.731   1.381   6.868
    1   AR   Ar   30   1.217   1.013   3.431
    1   AR   Ar   31   4.081   0.240   7.258
    1   AR   Ar   32   0.990   2.755   5.933
    1   AR   Ar   33   0.626   4.197  -0.066
    1   AR   Ar   34   0.506   4.745   2.370
    1   AR   Ar   35   5.727   4.711   2.292
    1   AR   Ar   36   5.981   2.888  -2.327
    1   AR   Ar   37   4.240   3.218   1.926
    1   AR   Ar   38   6.866   4.058   3.826
    1   AR   Ar   39   0.215   3.322   3.271
    1   AR   Ar   40   1.885   4.787   1.810
    1   AR   Ar   41   0.304   2.187   2.942
    1   AR   Ar   42   5.969   5.519   5.061
    1   AR   Ar   43   6.832   2.662   5.917
    1   AR   Ar   44   0.745   4.229   3.196
    1   AR   Ar   45   0.234   3.720   5.442
    1   AR   Ar   46   0.836   4.508   6.142
    1   AR   Ar   47   3.668   5.471   7.426
    1   AR   Ar   48   5.765   3.704   7.517
    1   AR   Ar   49   6.471   0.030  -1.157
    1   AR   Ar   50   3.480   5.173   0.025
    1   AR   Ar   51   5.788   3.572   2.477
    1   AR   Ar   52   4.971   2.907  -1.420
    1   AR   Ar   53   5.349   6.830   2.463
    1   AR   Ar   54   0.452   0.118   1.913
    1   AR   Ar   55   6.625   4.166   2.611
    1   AR   Ar   56   0.094   1.057   3.104
    1   AR   Ar   57   3.892   4.360   3.298
    1   AR   Ar   58   0.583   3.448   4.277
    1   AR   Ar   59   2.726   5.406   5.821
    1   AR   Ar   60   0.027   5.253   3.248
    1   AR   Ar   61   6.851   3.897   6.910
    1   AR   Ar   62   6.608   4.494   4.966
    1   AR   Ar   63   2.068   2.486   6.804
    1   AR   Ar   64   0.077   5.259   5.318
    1   AR   Ar   65   3.535   0.106   1.533
    1   AR   Ar   66   0.510   1.051   0.933
    1   AR   Ar   67   5.163   0.642  -0.733
    1   AR   Ar   68   0.983   1.337  -0.863
    1   AR   Ar   69   3.213   1.201   0.345
    1   AR   Ar   70   0.621   1.468   1.982
    1   AR   Ar   71   2.866   0.831   2.782
    1   AR   Ar   72   4.517   0.749   1.239
    1   AR   Ar   73   3.385   0.505   3.810
    1   AR   Ar   74   0.656   1.312   4.937
    1   AR   Ar   75   3.382   0.534   5.008
    1   AR   Ar   76   2.433   0.613   1.255
    1   AR   Ar   77   1.567   0.212   5.703
    1   AR   Ar   78   6.729   5.504   6.184
    1   AR   Ar   79   3.867   6.455   6.539
    1   AR   Ar   80   3.695   5.534   5.606
    1   AR   Ar   81   1.123   6.862   1.047
    1   AR   Ar   82   6.522   4.457   0.615
    1   AR   Ar   83   0.940   3.055  -0.257
    1   AR   Ar   84   1.159   4.239   0.928
    1   AR   Ar   85   2.268   3.361   0.375
    1   AR   Ar   86   1.969   5.503   0.949
    1   AR   Ar   87   3.129   3.466   2.206
    1   AR   Ar   88   3.046   5.320   1.329
    1   AR   Ar   89   7.056   2.264   1.236
    1   AR   Ar   90   3.314   1.769   5.092
    1   AR   Ar   91   1.853   1.927   2.881
    1   AR   Ar   92   1.393   3.546   1.612
    1   AR   Ar   93   1.722   1.428   6.040
    1   AR   Ar   94   0.893   0.043   9.141
    1   AR   Ar   95   4.334   1.424   5.401
    1   AR   Ar   96   2.665   6.929   4.481
    1   AR   Ar   97   3.542   1.583  -0.685
    1   AR   Ar   98   1.953   4.474   3.955
    1   AR   Ar   99   6.792   1.617   0.066
    1   AR   Ar  100   0.180   3.311  -2.167
    1   AR   Ar  101   3.612   5.663   2.154
    1   AR   Ar  102   3.853   1.216   2.906
    1   AR   Ar  103   2.414   4.470   0.771
    1   AR   Ar  104   3.209   5.396  -0.998
    1   AR   Ar  105   2.503   1.260   3.684
    1   AR   Ar  106   3.607   2.667   5.672
    1   AR   Ar  107   1.369   4.473   4.856
    1   AR   Ar  108   2.387   1.203   5.042
    1   AR   Ar  109   1.184   2.941   4.920
    1   AR   Ar  110   2.515   2.326   4.552
    1   AR   Ar  111   4.545   6.509   7.834
    1   AR   Ar  112   0.528   6.442   5.900
    1   AR   Ar  113   3.706   4.427  -1.087
    1   AR   Ar  114   2.639   6.937  -1.741
    1   AR   Ar  115   1.595   4.876   0.209
    1   AR   Ar  116   4.348   0.945  -0.022
    1   AR   Ar  117   0.385   4.837   4.182
    1   AR   Ar  118   1.137   5.136   3.489
    1   AR   Ar  119   2.164   4.146   2.831
    1   AR   Ar  120   1.475   6.942   2.278
    1   AR   Ar  121   5.490   4.259   5.269
    1   AR   Ar  122   3.174   5.726   4.226
    1   AR   Ar  123   2.719   3.243   5.282
    1   AR   Ar  124   0.948   5.169   1.385
    1   AR   Ar  125   6.458   3.151   4.858
    1   AR   Ar  126   7.069   0.277   6.089
    1   AR   Ar  127   4.345   3.407   6.392
    1   AR   Ar  128   2.801   3.172   6.970
    1   AR   Ar  129   2.148   5.588   4.222
    1   AR   Ar  130   4.704   1.305  -4.047
    1   AR   Ar  131   4.822   4.915  -2.603
    1   AR   Ar  132   0.852   1.925   0.109
    1   AR   Ar  133   4.273   0.453   4.570
    1   AR   Ar  134   3.815   1.576   4.085
    1   AR   Ar  135   6.327   1.652   3.758
    1   AR   Ar  136   6.484   7.094   2.127
    1   AR   Ar  137   2.767   4.101   6.159
    1   AR   Ar  138   5.245   1.917   5.885
    1   AR   Ar  139   5.776   2.673   5.536
    1   AR   Ar  140   4.298   6.398   4.996
    1   AR   Ar  141   4.147   5.077   4.684
    1   AR   Ar  142   5.028   0.273   6.836
    1   AR   Ar  143   6.274   6.612   6.726
    1   AR   Ar  144   6.417   1.848   5.171
    1   AR   Ar  145   4.327   5.293  -0.725
    1   AR   Ar  146   3.945   2.350   2.815
    1   AR   Ar  147   4.770   3.771  -0.813
    1   AR   Ar  148   3.317   6.579  -1.011
    1   AR   Ar  149   2.410   0.989  -0.533
    1   AR   Ar  150   2.406   2.917   2.755
    1   AR   Ar  151   2.968   2.201   3.347
    1   AR   Ar  152   1.132   2.506  -1.469
    1   AR   Ar  153   5.268   0.291   4.069
    1   AR   Ar  154   4.291   2.644   3.888
    1   AR   Ar  155   6.285   3.600   5.923
    1   AR   Ar  156   2.910   4.491   3.486
    1   AR   Ar  157   1.579   4.920   6.642
    1   AR   Ar  158   0.399   1.608   5.905
    1   AR   Ar  159   4.196   0.355   5.821
    1   AR   Ar  160   1.535   1.964   4.990
    1   AR   Ar  161   4.854   5.138   3.481
    1   AR   Ar  162   4.307   6.316  -0.340
    1   AR   Ar  163   5.495   4.916   1.227
    1   AR   Ar  164   1.804   5.908   2.168
    1   AR   Ar  165   3.475   3.742   0.769
    1   AR   Ar  166   2.615   3.399   4.258
    1   AR   Ar  167   5.643   6.277   3.231
    1   AR   Ar  168   5.430   4.092  -1.770
    1   AR   Ar  169   3.334   3.235   3.329
    1   AR   Ar  170   1.843   3.247   5.892
    1   AR   Ar  171   5.799   4.749   4.341
    1   AR   Ar  172   3.653   3.860   5.486
    1   AR   Ar  173   2.448   2.177   5.794
    1   AR   Ar  174   2.504   6.284   5.252
    1   AR   Ar  175   2.914   1.077   6.014
    1   AR   Ar  176   3.753   3.062   4.670
    1   AR   Ar  177   1.344   5.043  -0.865
    1   AR   Ar  178   2.644   6.009   0.510
    1   AR   Ar  179   3.093   6.870   0.137
    1   AR   Ar  180   5.348   1.385  -6.004
    1   AR   Ar  181   0.056   5.594   1.701
    1   AR   Ar  182   0.801   5.780   2.712
    1   AR   Ar  183   4.692   5.069   1.924
    1   AR   Ar  184   4.130   6.866   0.542
    1   AR   Ar  185   2.747   4.760   4.650
    1   AR   Ar  186   2.223   5.258   3.207
    1   AR   Ar  187   3.786   6.596   3.863
    1   AR   Ar  188   2.512   6.942   2.535
    1   AR   Ar  189   5.418   3.814   6.285
    1   AR   Ar  190   2.499   6.355   3.423
    1   AR   Ar  191   2.947   6.416   7.711
    1   AR   Ar  192   4.695   5.083   6.420
    1   AR   Ar  193   2.231   6.560   1.425
    1   AR   Ar  194   5.226   4.812  -0.808
    1   AR   Ar  195   5.854   1.279   1.022
    1   AR   Ar  196   3.727   0.359  -0.660
    1   AR   Ar  197   4.099   2.149   0.743
    1   AR   Ar  198   5.400   0.294   1.541
    1   AR   Ar  199   2.003   0.386   3.451
    1   AR   Ar  200   4.699   2.935   0.383
    1   AR   Ar  201   6.455   5.924   2.569
    1   AR   Ar  202   5.277   0.902   4.967
    1   AR   Ar  203   7.063   6.589   3.257
    1   AR   Ar  204   4.781   6.112   6.253
    1   AR   Ar  205   6.330   1.541   1.796
    1   AR   Ar  206   6.341   0.833   5.576
    1   AR   Ar  207   0.213   2.532   5.030
    1   AR   Ar  208   0.960   5.733   4.522
    1   AR   Ar  209   0.032   1.936  -2.356
    1   AR   Ar  210   1.837   6.858   0.216
    1   AR   Ar  211   0.370   3.515   0.730
    1   AR   Ar  212   5.689   3.390   0.237
    1   AR   Ar  213   3.628   1.504   1.329
    1   AR   Ar  214   4.822   4.086   2.361
    1   AR   Ar  215   6.718   2.849   2.337
    1   AR   Ar  216   1.445   2.484   0.607
    1   AR   Ar  217   4.998   2.006   3.285
    1   AR   Ar  218   4.902   3.357   4.257
    1   AR   Ar  219   4.447   3.327   3.054
    1   AR   Ar  220   4.399   4.019   1.387
    1   AR   Ar  221   6.652   5.838   4.051
    1   AR   Ar  222   5.221   7.004   5.612
    1   AR   Ar  223   6.349   1.450   6.470
    1   AR   Ar  224   4.647   2.573   4.971
    1   AR   Ar  225   6.181   3.368   3.340
    1   AR   Ar  226   1.326   3.323   2.999
    1   AR   Ar  227   0.452   3.671   2.365
    1   AR   Ar  228   6.684   0.578   1.252
    1   AR   Ar  229   6.407   4.791  -1.082
    1   AR   Ar  230   3.604   4.015   4.265
    1   AR   Ar  231   4.345   1.828   1.946
    1   AR   Ar  232   5.286   3.044   1.416
    1   AR   Ar  233   6.800   2.738   3.991
    1   AR   Ar  234   5.781   2.228   4.383
    1   AR   Ar  235   6.338   0.189   3.600
    1   AR   Ar  236   4.841   5.463   5.368
    1   AR   Ar  237   5.118   2.616   6.718
    1   AR   Ar  238   5.641   5.339   6.186
    1   AR   Ar  239   0.578   4.975  10.187
    1   AR   Ar  240   0.480   2.272   6.692
    1   AR   Ar  241   2.410   6.202  -0.523
    1   AR   Ar  242   5.393   6.052   1.548
    1   AR   Ar  243   4.315   5.985   3.132
    1   AR   Ar  244   0.384   5.106   0.428
    1   AR   Ar  245   3.907   7.031   2.552
    1   AR   Ar  246   5.862   6.450  -0.783
    1   AR   Ar  247   6.493   3.916   1.595
    1   AR   Ar  248   5.033   6.084   0.429
    1   AR   Ar  249   4.476   6.658   1.837
    1   AR   Ar  250   4.788   5.878   4.195
    1   AR   Ar  251   4.524   4.069   4.802
    1   AR   Ar  252   2.903   4.473   2.048
    1   AR   Ar  253   6.083   2.765   6.742
    1   AR   Ar  254   4.813   2.109  10.008
    1   AR   Ar  255   2.966   5.587  10.257
    1   AR   Ar  256   5.890   5.200   3.275
    7.12000  7.12000 12.00000
Argon-slab step 4430
  256
    1   AR   Ar    1   5.120   3.181  -2.772
    1   AR   Ar    2   5.446   7.067   0.468
    1   AR   Ar    3   3.564   2.583  -1.239
    1   AR   Ar    4   1.683   1.490   0.682
    1   AR   Ar    5   6.267   5.983   0.221
    1   AR   Ar    6   1.674   1.873   1.671
    1   AR   Ar    7   5.601   4.254   3.444
    1   AR   Ar    8   5.085   1.741  -0.586
    1   AR   Ar    9   0.496   0.231   3.992
    1   AR   Ar   10   6.800   6.744   4.699
    1   AR   Ar   11   1.599   6.969   4.594
    1   AR   Ar   12   0.190   1.551   3.950
    1   AR   Ar   13   6.833   0.787   4.572
    1   AR   Ar   14   3.837   1.773   6.288
    1   AR   Ar   15   3.767   6.649   8.380
    1   AR   Ar   16   0.612   0.058   5.046
    1   AR   Ar   17   6.012   2.433   0.797
    1   AR   Ar   18   6.927   5.629  -0.460
    1   AR   Ar   19   4.216   4.188   0.042
    1   AR   Ar   20   6.620   4.330  -2.762
    1   AR   Ar   21   2.782   1.966   2.415
    1   AR   Ar   22   5.370   1.223   2.073
    1   AR   Ar   23   0.107   6.320   0.960
    1   AR   Ar   24   5.540   2.369   2.432
    1   AR   Ar   25   0.656   2.415   4.051
    1   AR   Ar   26   5.378   6.420   4.808
    1   AR   Ar   27   1.532   0.995   2.338
    1   AR   Ar   28   1.839   2.689   3.753
    1   AR   Ar   29   4.718   1.376   6.888
    1   AR   Ar   30   1.230   1.007   3.412
    1   AR   Ar   31   4.103   0.236   7.269
    1   AR   Ar   32   1.006   2.750   5.925
    1   AR   Ar   33   0.625   4.184  -0.086
    1   AR   Ar   34   0.500   4.783   2.371
    1   AR   Ar   35   5.727   4.705   2.321
    1   AR   Ar   36   5.977   2.870  -2.358
    1   AR   Ar   37   4.230   3.187   1.908
    1   AR   Ar   38   6.851   4.023   3.811
    1   AR   Ar   39   0.192   3.325   3.289
    1   AR   Ar   40   1.920   4.771   1.811
    1   AR   Ar   41   0.330   2.195   2.918
    1   AR   Ar   42   5.993   5.529   5.132
    1   AR   Ar   43   6.828   2.689   5.946
    1   AR   Ar   44   0.719   4.235   3.180
    1   AR   Ar   45   0.223   3.735   5.498
    1   AR   Ar   46   0.830   4.495   6.147
    1   AR   Ar   47   3.679   5.504   7.425
    1   AR   Ar   48   5.755   3.732   7.520
    1   AR   Ar   49   6.455   0.032  -1.123
    1   AR   Ar   50   3.463   5.193   0.034
    1   AR   Ar   51   5.758   3.553   2.499
    1   AR   Ar   52   4.966   2.927  -1.399
    1   AR   Ar   53   5.329   6.859   2.437
    1   AR   Ar   54   0.462   0.127   1.935
    1   AR   Ar   55   6.636   4.140   2.564
    1   AR   Ar   56   0.088   1.095   3.094
    1   AR   Ar   57   3.878   4.356   3.283
    1   AR   Ar   58   0.570   3.452   4.294
    1   AR   Ar   59   2.704   5.391   5.837
    1   AR   Ar   60   0.006   5.227   3.206
    1   AR   Ar   61   6.807   3.885   6.944
    1   AR   Ar   62   6.615   4.504   4.971
    1   AR   Ar   63   2.034   2.474   6.821
    1   AR   Ar   64   0.070   5.269   5.266
    1   AR   Ar   65   3.533   0.097   1.552
    1   AR   Ar   66   0.562   1.062   0.956
    1   AR   Ar   67   5.171   0.633  -0.700
    1   AR   Ar   68   0.956   1.364  -0.854
    1   AR   Ar   69   3.210   1.206   0.349
    1   AR   Ar   70   0.622   1.435   1.968
    1   AR   Ar   71   2.883   0.826   2.778
    1   AR   Ar   72   4.523   0.777   1.275
    1   AR   Ar   73   3.398   0.522   3.774
    1   AR   Ar   74   0.651   1.286   4.943
    1   AR   Ar   75   3.358   0.539   4.998
    1   AR   Ar   76   2.412   0.620   1.293
    1   AR   Ar   77   1.555   0.202   5.708
    1   AR   Ar   78   6.744   5.494   6.165
    1   AR   Ar   79   3.845   6.459   6.517
    1   AR   Ar   80   3.708   5.538   5.577
    1   AR   Ar   81   1.107   6.876   1.078
    1   AR   Ar   82   6.528   4.449   0.608
    1   AR   Ar   83   0.976   3.021  -0.234
    1   AR   Ar   84   1.182   4.252   0.895
    1   AR   Ar   85   2.291   3.361   0.344
    1   AR   Ar   86   1.971   5.492   0.951
    1   AR   Ar   87   3.096   3.455   2.216
    1   AR   Ar   88   3.059   5.315   1.333
    1   AR   Ar   89   7.048   2.248   1.188
    1   AR   Ar   90   3.329   1.762   5.107
    1   AR   Ar   91   1.851   1.967   2.877
    1   AR   Ar   92   1.389   3.577   1.651
    1   AR   Ar   93   1.741   1.426   6.044
    1   AR   Ar   94   0.882   0.018   9.165
    1   AR   Ar   95   4.343   1.430   5.406
    1   AR   Ar   96   2.706   6.944   4.450
    1   AR   Ar   97   3.511   1.554  -0.684
    1   AR   Ar   98   1.991   4.478   3.969
    1   AR   Ar   99   6.804   1.640   0.048
    1   AR   Ar  100   0.151   3.313  -2.185
    1   AR   Ar  101   3.620   5.627   2.182
    1   AR   Ar  102   3.857   1.233   2.933
    1   AR   Ar  103   2.409   4.440   0.783
    1   AR   Ar  104   3.207   5.431  -0.971
    1   AR   Ar  105   2.477   1.270   3.667
    1   AR   Ar  106   3.636   2.685   5.665
    1   AR   Ar  107   1.364   4.489   4.874
    1   AR   Ar  108   2.388   1.182   5.061
    1   AR   Ar  109   1.207   2.929   4.937
    1   AR   Ar  110   2.503   2.343   4.588
    1   AR   Ar  111   4.519   6.512   7.829
    1   AR   Ar  112   0.479   6.454   5.917
    1   AR   Ar  113   3.692   4.401  -1.051
    1   AR   Ar  114   2.649   6.956  -1.736
    1   AR   Ar  115   1.611   4.873   0.189
    1   AR   Ar  116   4.395   0.928  -0.003
    1   AR   Ar  117   0.366   4.848   4.188
    1   AR   Ar  118   1.126   5.170   3.475
    1   AR   Ar  119   2.161   4.113   2.796
    1   AR   Ar  120   1.471   6.940   2.299
    1   AR   Ar  121   5.478   4.264   5.283
    1   AR   Ar  122   3.173   5.742   4.209
    1   AR   Ar  123   2.722   3.236   5.282
    1   AR   Ar  124   0.927   5.184   1.414
    1   AR   Ar  125   6.449   3.184   4.869
    1   AR   Ar  126   7.080   0.288   6.084
    1   AR   Ar  127   4.357   3.389   6.383
    1   AR   Ar  128   2.816   3.194   7.011
    1   AR   Ar  129   2.129   5.583   4.241
    1   AR   Ar  130   4.690   1.300  -4.075
    1   AR   Ar  131   4.801   4.921  -2.604
    1   AR   Ar  132   0.832   1.904   0.124
    1   AR   Ar  133   4.252   0.449   4.583
    1   AR   Ar  134   3.800   1.554   4.089
    1   AR   Ar  135   6.300   1.633   3.762
    1   AR   Ar  136   6.483   7.109   2.095
    1   AR   Ar  137   2.802   4.115   6.151
    1   AR   Ar  138   5.255   1.930   5.891
    1   AR   Ar  139   5.784   2.677   5.544
    1   AR   Ar  140   4.281   6.414   5.050
    1   AR   Ar  141   4.159   5.104   4.647
    1   AR   Ar  142   5.045   0.277   6.841
    1   AR   Ar  143   6.250   6.621   6.717
    1   AR   Ar  144   6.428   1.850   5.190
    1   AR   Ar  145   4.285   5.248  -0.713
    1   AR   Ar  146   3.924   2.319   2.797
    1   AR   Ar  147   4.764   3.755  -0.748
    1   AR   Ar  148   3.344   6.618  -1.038
    1   AR   Ar  149   2.457   0.966  -0.544
    1   AR   Ar  150   2.381   2.902   2.770
    1   AR   Ar  151   2.961   2.168   3.355
    1   AR   Ar  152   1.118   2.495  -1.473
    1   AR   Ar  153   5.247   0.303   4.055
    1   AR   Ar  154   4.304   2.645   3.858
    1   AR   Ar  155   6.290   3.601   5.910
    1   AR   Ar  156   2.902   4.465   3.494
    1   AR   Ar  157   1.567   4.886   6.661
    1   AR   Ar  158   0.406   1.604   5.879
    1   AR   Ar  159   4.252   0.366   5.784
    1   AR   Ar  160   1.532   1.972   5.003
    1   AR   Ar  161   4.854   5.149   3.499
    1   AR   Ar  162   4.291   6.304  -0.330
    1   AR   Ar  163   5.509   4.916   1.212
    1   AR   Ar  164   1.799   5.931   2.151
    1   AR   Ar  165   3.457   3.782   0.760
    1   AR   Ar  166   2.621   3.414   4.241
    1   AR   Ar  167   5.669   6.294   3.218
    1   AR   Ar  168   5.438   4.085  -1.738
    1   AR   Ar  169   3.333   3.222   3.320
    1   AR   Ar  170   1.854   3.231   5.893
    1   AR   Ar  171   5.801   4.769   4.354
    1   AR   Ar  172   3.624   3.868   5.465
    1   AR   Ar  173   2.459   2.190   5.804
    1   AR   Ar  174   2.539   6.293   5.239
    1   AR   Ar  175   2.885   1.054   5.980
    1   AR   Ar  176   3.730   3.067   4.701
    1   AR   Ar  177   1.351   5.036  -0.855
    1   AR   Ar  178   2.627   6.014   0.475
    1   AR   Ar  179   3.107   6.866   0.160
    1   AR   Ar  180   5.315   1.409  -6.017
    1   AR   Ar  181   0.038   5.598   1.698
    1   AR   Ar  182   0.784   5.789   2.738
    1   AR   Ar  183   4.669   5.094   1.967
    1   AR   Ar  184   4.138   6.842   0.528
    1   AR   Ar  185   2.751   4.763   4.652
    1   AR   Ar  186   2.214   5.244   3.215
    1   AR   Ar  187   3.800   6.594   3.892
    1   AR   Ar  188   2.474   6.914   2.521
    1   AR   Ar  189   5.408   3.835   6.314
    1   AR   Ar  190   2.511   6.364   3.416
    1   AR   Ar  191   2.984   6.439   7.708
    1   AR   Ar  192   4.700   5.090   6.392
    1   AR   Ar  193   2.207   6.547   1.440
    1   AR   Ar  194   5.237   4.867  -0.800
    1   AR   Ar  195   5.850   1.305   1.035
    1   AR   Ar  196   3.706   0.357  -0.661
    1   AR   Ar  197   4.104   2.174   0.740
    1   AR   Ar  198   5.403   0.305   1.522
    1   AR   Ar  199   2.000   0.378   3.434
    1   AR   Ar  200   4.738   2.952   0.383
    1   AR   Ar  201   6.441   5.908   2.548
    1   AR   Ar  202   5.275   0.861   4.982
    1   AR   Ar  203   7.076   6.567   3.247
    1   AR   Ar  204   4.747   6.103   6.246
    1   AR   Ar  205   6.337   1.551   1.782
    1   AR   Ar  206   6.363   0.824   5.580
    1   AR   Ar  207   0.216   2.549   5.027
    1   AR   Ar  208   0.938   5.716   4.535
    1   AR   Ar  209   0.039   1.931  -2.363
    1   AR   Ar  210   1.817   6.882   0.231
    1   AR   Ar  211   0.355   3.566   0.739
    1   AR   Ar  212   5.697   3.392   0.243
    1   AR   Ar  213   3.638   1.541   1.351
    1   AR   Ar  214   4.845   4.077   2.340
    1   AR   Ar  215   6.729   2.862   2.338
    1   AR   Ar  216   1.439   2.493   0.636
    1   AR   Ar  217   4.986   2.013   3.283
    1   AR   Ar  218   4.908   3.368   4.265
    1   AR   Ar  219   4.467   3.330   3.080
    1   AR   Ar  220   4.399   3.993   1.390
    1   AR   Ar  221   6.646   5.815   4.087
    1   AR   Ar  222   5.193   7.016   5.595
    1   AR   Ar  223   6.346   1.422   6.460
    1   AR   Ar  224   4.634   2.593   4.978
    1   AR   Ar  225   6.224   3.381   3.331
    1   AR   Ar  226   1.318   3.333   3.008
    1   AR   Ar  227   0.444   3.664   2.346
    1   AR   Ar  228   6.697   0.570   1.246
    1   AR   Ar  229   6.397   4.759  -1.106
    1   AR   Ar  230   3.615   4.025   4.237
    1   AR   Ar  231   4.382   1.836   1.967
    1   AR   Ar  232   5.287   3.040   1.455
    1   AR   Ar  233   6.763   2.753   3.983
    1   AR   Ar  234   5.755   2.257   4.410
    1   AR   Ar  235   6.345   0.180   3.602
    1   AR   Ar  236   4.852   5.480   5.319
    1   AR   Ar  237   5.126   2.588   6.727
    1   AR   Ar  238   5.630   5.335   6.168
    1   AR   Ar  239   0.595   4.953  10.202
    1   AR   Ar  240   0.541   2.267   6.700
    1   AR   Ar  241   2.437   6.189  -0.543
    1   AR   Ar  242   5.412   6.030   1.581
    1   AR   Ar  243   4.323   5.963   3.118
    1   AR   Ar  244   0.360   5.126   0.426
    1   AR   Ar  245   3.886   7.052   2.567
    1   AR   Ar  246   5.841   6.446  -0.775
    1   AR   Ar  247   6.480   3.926   1.586
    1   AR   Ar  248   5.054   6.096   0.386
    1   AR   Ar  249   4.474   6.676   1.859
    1   AR   Ar  250   4.764   5.850   4.160
    1   AR   Ar  251   4.506   4.067   4.792
    1   AR   Ar  252   2.880   4.467   2.017
    1   AR   Ar  253   6.095   2.774   6.761
    1   AR   Ar  254   4.804   2.081  10.037
    1   AR   Ar  255   2.988   5.580  10.274
    1   AR   Ar  256   5.929   5.196   3.244
    7.12000  7.12000 12.00000
Argon-slab step 4435
  256
    1   AR   Ar    1   5.097   3.190  -2.798
    1   AR   Ar    2   5.453   7.072   0.462
    1   AR   Ar    3   3.555   2.620  -1.234
    1   AR   Ar    4   1.647   1.521   0.671
    1   AR   Ar    5   6.258   5.968   0.239
    1   AR   Ar    6   1.671   1.871   1.659
    1   AR   Ar    7   5.611   4.270   3.432
    1   AR   Ar    8   5.128   1.779  -0.608
    1   AR   Ar    9   0.495   0.237   3.998
    1   AR   Ar   10   6.755   6.733   4.694
    1   AR   Ar   11   1.592   6.989   4.574
    1   AR   Ar   12   0.211   1.549   3.944
    1   AR   Ar   13   6.815   0.774   4.548
    1   AR   Ar   14   3.860   1.749   6.286
    1   AR   Ar   15   3.771   6.659   8.385
    1   AR   Ar   16   0.611   0.117   5.059
    1   AR   Ar   17   6.025   2.482   0.788
    1   AR   Ar   18   6.941   5.654  -0.486
    1   AR   Ar   19   4.218   4.209   0.041
    1   AR   Ar   20   6.610   4.325  -2.745
    1   AR   Ar   21   2.785   1.948   2.401
    1   AR   Ar   22   5.324   1.247   2.096
    1   AR   Ar   23   0.134   6.307   0.971
    1   AR   Ar   24   5.586   2.392   2.432
    1   AR   Ar   25   0.655   2.391   4.065
    1   AR   Ar   26   5.353   6.402   4.820
    1   AR   Ar   27   1.532   0.988   2.357
    1   AR   Ar   28   1.839   2.690   3.729
    1   AR   Ar   29   4.706   1.371   6.907
    1   AR   Ar   30   1.234   1.008   3.393
    1   AR   Ar   31   4.118   0.232   7.265
    1   AR   Ar   32   1.010   2.739   5.917
    1   AR   Ar   33   0.626   4.171  -0.108
    1   AR   Ar   34   0.493   4.824   2.364
    1   AR   Ar   35   5.727   4.700   2.349
    1   AR   Ar   36   5.981   2.850  -2.384
    1   AR   Ar   37   4.227   3.152   1.912
    1   AR   Ar   38   6.834   4.001   3.805
    1   AR   Ar   39   0.175   3.316   3.301
    1   AR   Ar   40   1.950   4.757   1.811
    1   AR   Ar   41   0.355   2.204   2.896
    1   AR   Ar   42   6.018   5.539   5.202
    1   AR   Ar   43   6.807   2.675   5.948
    1   AR   Ar   44   0.693   4.239   3.175
    1   AR   Ar   45   0.212   3.748   5.552
    1   AR   Ar   46   0.813   4.476   6.142
    1   AR   Ar   47   3.690   5.540   7.423
    1   AR   Ar   48   5.746   3.760   7.521
    1   AR   Ar   49   6.445   0.041  -1.092
    1   AR   Ar   50   3.447   5.214   0.046
    1   AR   Ar   51   5.719   3.534   2.506
    1   AR   Ar   52   4.962   2.945  -1.380
    1   AR   Ar   53   5.311   6.892   2.410
    1   AR   Ar   54   0.471   0.139   1.956
    1   AR   Ar   55   6.651   4.118   2.529
    1   AR   Ar   56   0.081   1.125   3.071
    1   AR   Ar   57   3.882   4.343   3.257
    1   AR   Ar   58   0.555   3.461   4.311
    1   AR   Ar   59   2.678   5.373   5.853
    1   AR   Ar   60   7.102   5.201   3.166
    1   AR   Ar   61   6.761   3.871   6.976
    1   AR   Ar   62   6.618   4.505   4.974
    1   AR   Ar   63   1.997   2.462   6.835
    1   AR   Ar   64   0.071   5.285   5.211
    1   AR   Ar   65   3.529   0.088   1.568
    1   AR   Ar   66   0.614   1.073   0.978
    1   AR   Ar   67   5.180   0.621  -0.667
    1   AR   Ar   68   0.980   1.355  -0.823
    1   AR   Ar   69   3.227   1.189   0.360
    1   AR   Ar   70   0.621   1.404   1.957
    1   AR   Ar   71   2.879   0.798   2.770
    1   AR   Ar   72   4.524   0.808   1.309
    1   AR   Ar   73   3.410   0.539   3.739
    1   AR   Ar   74   0.667   1.253   4.938
    1   AR   Ar   75   3.331   0.548   4.986
    1   AR   Ar   76   2.390   0.628   1.332
    1   AR   Ar   77   1.542   0.215   5.702
    1   AR   Ar   78   6.758   5.486   6.149
    1   AR   Ar   79   3.817   6.466   6.497
    1   AR   Ar   80   3.726   5.544   5.547
    1   AR   Ar   81   1.091   6.891   1.112
    1   AR   Ar   82   6.535   4.443   0.601
    1   AR   Ar   83   0.975   3.030  -0.237
    1   AR   Ar   84   1.203   4.267   0.862
    1   AR   Ar   85   2.314   3.361   0.314
    1   AR   Ar   86   1.965   5.462   0.959
    1   AR   Ar   87   3.067   3.443   2.226
    1   AR   Ar   88   3.070   5.310   1.333
    1   AR   Ar   89   7.039   2.230   1.140
    1   AR   Ar   90   3.343   1.755   5.122
    1   AR   Ar   91   1.843   2.005   2.875
    1   AR   Ar   92   1.386   3.605   1.694
    1   AR   Ar   93   1.759   1.423   6.046
    1   AR   Ar   94   0.871   7.114   9.190
    1   AR   Ar   95   4.354   1.434   5.408
    1   AR   Ar   96   2.748   6.962   4.413
    1   AR   Ar   97   3.479   1.523  -0.683
    1   AR   Ar   98   2.022   4.480   3.983
    1   AR   Ar   99   6.816   1.662   0.032
    1   AR   Ar  100   0.121   3.316  -2.203
    1   AR   Ar  101   3.630   5.593   2.213
    1   AR   Ar  102   3.862   1.251   2.960
    1   AR   Ar  103   2.405   4.411   0.796
    1   AR   Ar  104   3.204   5.467  -0.945
    1   AR   Ar  105   2.452   1.284   3.653
    1   AR   Ar  106   3.665   2.702   5.661
    1   AR   Ar  107   1.357   4.506   4.892
    1   AR   Ar  108   2.386   1.163   5.077
    1   AR   Ar  109   1.233   2.923   4.949
    1   AR   Ar  110   2.492   2.360   4.625
    1   AR   Ar  111   4.512   6.508   7.812
    1   AR   Ar  112   0.431   6.465   5.933
    1   AR   Ar  113   3.664   4.386  -1.014
    1   AR   Ar  114   2.657   6.975  -1.733
    1   AR   Ar  115   1.626   4.872   0.163
    1   AR   Ar  116   4.441   0.912   0.020
    1   AR   Ar  117   0.351   4.859   4.187
    1   AR   Ar  118   1.119   5.203   3.468
    1   AR   Ar  119   2.157   4.083   2.766
    1   AR   Ar  120   1.462   6.941   2.318
    1   AR   Ar  121   5.467   4.269   5.298
    1   AR   Ar  122   3.174   5.758   4.193
    1   AR   Ar  123   2.728   3.227   5.283
    1   AR   Ar  124   0.912   5.198   1.442
    1   AR   Ar  125   6.452   3.202   4.887
    1   AR   Ar  126   7.094   0.297   6.081
    1   AR   Ar  127   4.369   3.370   6.372
    1   AR   Ar  128   2.832   3.218   7.051
    1   AR   Ar  129   2.105   5.579   4.262
    1   AR   Ar  130   4.677   1.295  -4.102
    1   AR   Ar  131   4.780   4.925  -2.603
    1   AR   Ar  132   0.803   1.876   0.132
    1   AR   Ar  133   4.240   0.444   4.592
    1   AR   Ar  134   3.784   1.532   4.092
    1   AR   Ar  135   6.272   1.613   3.763
    1   AR   Ar  136   6.480   0.002   2.066
    1   AR   Ar  137   2.836   4.128   6.143
    1   AR   Ar  138   5.258   1.931   5.900
    1   AR   Ar  139   5.797   2.690   5.550
    1   AR   Ar  140   4.263   6.430   5.104
    1   AR   Ar  141   4.165   5.128   4.608
    1   AR   Ar  142   5.065   0.281   6.841
    1   AR   Ar  143   6.225   6.630   6.707
    1   AR   Ar  144   6.441   1.853   5.208
    1   AR   Ar  145   4.239   5.206  -0.700
    1   AR   Ar  146   3.904   2.295   2.785
    1   AR   Ar  147   4.760   3.740  -0.683
    1   AR   Ar  148   3.371   6.648  -1.063
    1   AR   Ar  149   2.505   0.942  -0.553
    1   AR   Ar  150   2.354   2.891   2.787
    1   AR   Ar  151   2.967   2.168   3.371
    1   AR   Ar  152   1.116   2.498  -1.503
    1   AR   Ar  153   5.226   0.312   4.041
    1   AR   Ar  154   4.311   2.640   3.829
    1   AR   Ar  155   6.302   3.602   5.893
    1   AR   Ar  156   2.893   4.439   3.504
    1   AR   Ar  157   1.565   4.857   6.686
    1   AR   Ar  158   0.410   1.601   5.855
    1   AR   Ar  159   4.306   0.377   5.746
    1   AR   Ar  160   1.532   1.973   5.018
    1   AR   Ar  161   4.858   5.144   3.507
    1   AR   Ar  162   4.273   6.290  -0.326
    1   AR   Ar  163   5.523   4.916   1.197
    1   AR   Ar  164   1.792   5.947   2.138
    1   AR   Ar  165   3.437   3.823   0.752
    1   AR   Ar  166   2.627   3.431   4.220
    1   AR   Ar  167   5.698   6.307   3.211
    1   AR   Ar  168   5.445   4.078  -1.706
    1   AR   Ar  169   3.333   3.210   3.312
    1   AR   Ar  170   1.875   3.221   5.895
    1   AR   Ar  171   5.801   4.791   4.365
    1   AR   Ar  172   3.596   3.876   5.442
    1   AR   Ar  173   2.472   2.204   5.811
    1   AR   Ar  174   2.572   6.300   5.227
    1   AR   Ar  175   2.858   1.033   5.947
    1   AR   Ar  176   3.703   3.073   4.729
    1   AR   Ar  177   1.357   5.029  -0.845
    1   AR   Ar  178   2.621   6.023   0.437
    1   AR   Ar  179   3.123   6.867   0.179
    1   AR   Ar  180   5.283   1.432  -6.030
    1   AR   Ar  181   0.015   5.601   1.701
    1   AR   Ar  182   0.766   5.804   2.757
    1   AR   Ar  183   4.646   5.120   2.010
    1   AR   Ar  184   4.147   6.822   0.521
    1   AR   Ar  185   2.758   4.764   4.656
    1   AR   Ar  186   2.180   5.233   3.219
    1   AR   Ar  187   3.815   6.594   3.923
    1   AR   Ar  188   2.441   6.887   2.504
    1   AR   Ar  189   5.396   3.859   6.358
    1   AR   Ar  190   2.524   6.373   3.412
    1   AR   Ar  191   3.020   6.460   7.702
    1   AR   Ar  192   4.693   5.089   6.366
    1   AR   Ar  193   2.189   6.532   1.461
    1   AR   Ar  194   5.253   4.919  -0.793
    1   AR   Ar  195   5.827   1.321   1.022
    1   AR   Ar  196   3.687   0.363  -0.657
    1   AR   Ar  197   4.112   2.202   0.733
    1   AR   Ar  198   5.411   0.313   1.502
    1   AR   Ar  199   2.004   0.358   3.415
    1   AR   Ar  200   4.777   2.972   0.384
    1   AR   Ar  201   6.469   5.912   2.525
    1   AR   Ar  202   5.273   0.822   4.999
    1   AR   Ar  203   7.089   6.544   3.237
    1   AR   Ar  204   4.721   6.098   6.234
    1   AR   Ar  205   6.364   1.571   1.794
    1   AR   Ar  206   6.381   0.816   5.579
    1   AR   Ar  207   0.219   2.565   5.022
    1   AR   Ar  208   0.916   5.698   4.548
    1   AR   Ar  209   0.046   1.928  -2.369
    1   AR   Ar  210   1.800   6.905   0.246
    1   AR   Ar  211   0.346   3.583   0.745
    1   AR   Ar  212   5.706   3.395   0.250
    1   AR   Ar  213   3.638   1.569   1.375
    1   AR   Ar  214   4.866   4.068   2.322
    1   AR   Ar  215   6.739   2.878   2.340
    1   AR   Ar  216   1.439   2.514   0.672
    1   AR   Ar  217   4.973   2.020   3.282
    1   AR   Ar  218   4.925   3.372   4.264
    1   AR   Ar  219   4.487   3.335   3.104
    1   AR   Ar  220   4.401   3.979   1.381
    1   AR   Ar  221   6.640   5.791   4.122
    1   AR   Ar  222   5.164   7.031   5.584
    1   AR   Ar  223   6.342   1.397   6.449
    1   AR   Ar  224   4.622   2.606   4.965
    1   AR   Ar  225   6.281   3.393   3.333
    1   AR   Ar  226   1.310   3.343   3.017
    1   AR   Ar  227   0.428   3.647   2.337
    1   AR   Ar  228   6.711   0.564   1.238
    1   AR   Ar  229   6.386   4.728  -1.130
    1   AR   Ar  230   3.623   4.036   4.211
    1   AR   Ar  231   4.427   1.845   1.990
    1   AR   Ar  232   5.287   3.036   1.494
    1   AR   Ar  233   6.761   2.751   3.958
    1   AR   Ar  234   5.727   2.291   4.439
    1   AR   Ar  235   6.352   0.172   3.606
    1   AR   Ar  236   4.866   5.499   5.271
    1   AR   Ar  237   5.121   2.558   6.736
    1   AR   Ar  238   5.623   5.333   6.162
    1   AR   Ar  239   0.611   4.930  10.217
    1   AR   Ar  240   0.599   2.260   6.713
    1   AR   Ar  241   2.463   6.177  -0.566
    1   AR   Ar  242   5.430   6.010   1.614
    1   AR   Ar  243   4.329   5.943   3.102
    1   AR   Ar  244   0.335   5.146   0.425
    1   AR   Ar  245   3.858   7.078   2.592
    1   AR   Ar  246   5.814   6.435  -0.761
    1   AR   Ar  247   6.470   3.907   1.568
    1   AR   Ar  248   5.075   6.105   0.345
    1   AR   Ar  249   4.476   6.690   1.870
    1   AR   Ar  250   4.737   5.836   4.134
    1   AR   Ar  251   4.484   4.077   4.794
    1   AR   Ar  252   2.871   4.461   1.987
    1   AR   Ar  253   6.118   2.786   6.779
    1   AR   Ar  254   4.802   2.062  10.046
    1   AR   Ar  255   3.010   5.573  10.291
    1   AR   Ar  256   5.972   5.199   3.215
    7.12000  7.12000 12.00000
Argon-slab step 4440
  256
    1   AR   Ar    1   5.070   3.201  -2.824
    1   AR   Ar    2   5.459   7.080   0.455
    1   AR   Ar    3   3.546   2.658  -1.228
    1   AR   Ar    4   1.615   1.542   0.658
    1   AR   Ar    5   6.244   5.953   0.249
    1   AR   Ar    6   1.669   1.871   1.652
    1   AR   Ar    7   5.658   4.270   3.435
    1   AR   Ar    8   5.170   1.818  -0.628
    1   AR   Ar    9   0.494   0.244   4.000
    1   AR   Ar   10   6.710   6.724   4.689
    1   AR   Ar   11   1.585   7.008   4.553
    1   AR   Ar   12   0.236   1.545   3.933
    1   AR   Ar   13   6.819   0.777   4.524
    1   AR   Ar   14   3.882   1.726   6.285
    1   AR   Ar   15   3.761   6.673   8.407
    1   AR   Ar   16   0.609   0.175   5.075
    1   AR   Ar   17   6.037   2.530   0.780
    1   AR   Ar   18   6.957   5.677  -0.515
    1   AR   Ar   19   4.239   4.218   0.057
    1   AR   Ar   20   6.601   4.319  -2.727
    1   AR   Ar   21   2.792   1.927   2.378
    1   AR   Ar   22   5.268   1.269   2.128
    1   AR   Ar   23   0.167   6.295   0.982
    1   AR   Ar   24   5.632   2.416   2.431
    1   AR   Ar   25   0.666   2.383   4.080
    1   AR   Ar   26   5.348   6.422   4.802
    1   AR   Ar   27   1.534   0.955   2.380
    1   AR   Ar   28   1.840   2.691   3.709
    1   AR   Ar   29   4.694   1.366   6.924
    1   AR   Ar   30   1.231   1.016   3.376
    1   AR   Ar   31   4.126   0.233   7.261
    1   AR   Ar   32   1.004   2.722   5.910
    1   AR   Ar   33   0.628   4.160  -0.130
    1   AR   Ar   34   0.487   4.864   2.349
    1   AR   Ar   35   5.727   4.693   2.372
    1   AR   Ar   36   5.990   2.828  -2.407
    1   AR   Ar   37   4.229   3.123   1.931
    1   AR   Ar   38   6.833   4.040   3.802
    1   AR   Ar   39   0.174   3.294   3.302
    1   AR   Ar   40   1.967   4.747   1.808
    1   AR   Ar   41   0.381   2.213   2.876
    1   AR   Ar   42   6.045   5.548   5.269
    1   AR   Ar   43   6.790   2.658   5.950
    1   AR   Ar   44   0.669   4.244   3.178
    1   AR   Ar   45   0.201   3.759   5.604
    1   AR   Ar   46   0.788   4.453   6.132
    1   AR   Ar   47   3.702   5.578   7.420
    1   AR   Ar   48   5.738   3.786   7.520
    1   AR   Ar   49   6.438   0.055  -1.063
    1   AR   Ar   50   3.434   5.234   0.058
    1   AR   Ar   51   5.681   3.512   2.506
    1   AR   Ar   52   4.958   2.963  -1.362
    1   AR   Ar   53   5.298   6.925   2.386
    1   AR   Ar   54   0.487   0.144   1.978
    1   AR   Ar   55   6.664   4.100   2.506
    1   AR   Ar   56   0.073   1.148   3.036
    1   AR   Ar   57   3.894   4.330   3.225
    1   AR   Ar   58   0.539   3.473   4.329
    1   AR   Ar   59   2.651   5.354   5.869
    1   AR   Ar   60   7.072   5.175   3.132
    1   AR   Ar   61   6.714   3.856   7.007
    1   AR   Ar   62   6.618   4.496   4.977
    1   AR   Ar   63   1.960   2.449   6.847
    1   AR   Ar   64   0.078   5.309   5.154
    1   AR   Ar   65   3.525   0.081   1.583
    1   AR   Ar   66   0.666   1.083   0.996
    1   AR   Ar   67   5.191   0.608  -0.636
    1   AR   Ar   68   1.004   1.346  -0.791
    1   AR   Ar   69   3.246   1.172   0.371
    1   AR   Ar   70   0.618   1.375   1.950
    1   AR   Ar   71   2.874   0.770   2.761
    1   AR   Ar   72   4.520   0.842   1.343
    1   AR   Ar   73   3.421   0.555   3.705
    1   AR   Ar   74   0.685   1.218   4.926
    1   AR   Ar   75   3.322   0.560   4.954
    1   AR   Ar   76   2.381   0.665   1.324
    1   AR   Ar   77   1.530   0.229   5.695
    1   AR   Ar   78   6.769   5.478   6.136
    1   AR   Ar   79   3.783   6.476   6.480
    1   AR   Ar   80   3.747   5.551   5.517
    1   AR   Ar   81   1.077   6.905   1.146
    1   AR   Ar   82   6.542   4.436   0.593
    1   AR   Ar   83   0.974   3.040  -0.239
    1   AR   Ar   84   1.223   4.280   0.833
    1   AR   Ar   85   2.335   3.363   0.284
    1   AR   Ar   86   1.954   5.430   0.975
    1   AR   Ar   87   3.040   3.430   2.236
    1   AR   Ar   88   3.077   5.305   1.331
    1   AR   Ar   89   7.032   2.211   1.092
    1   AR   Ar   90   3.356   1.749   5.138
    1   AR   Ar   91   1.830   2.035   2.875
    1   AR   Ar   92   1.384   3.633   1.739
    1   AR   Ar   93   1.776   1.421   6.047
    1   AR   Ar   94   0.868   7.098   9.206
    1   AR   Ar   95   4.366   1.438   5.407
    1   AR   Ar   96   2.791   6.980   4.371
    1   AR   Ar   97   3.449   1.492  -0.680
    1   AR   Ar   98   2.041   4.480   3.999
    1   AR   Ar   99   6.829   1.685   0.019
    1   AR   Ar  100   0.090   3.318  -2.221
    1   AR   Ar  101   3.641   5.559   2.246
    1   AR   Ar  102   3.867   1.268   2.988
    1   AR   Ar  103   2.402   4.382   0.812
    1   AR   Ar  104   3.200   5.505  -0.922
    1   AR   Ar  105   2.426   1.300   3.641
    1   AR   Ar  106   3.693   2.716   5.666
    1   AR   Ar  107   1.349   4.524   4.909
    1   AR   Ar  108   2.379   1.147   5.084
    1   AR   Ar  109   1.262   2.928   4.954
    1   AR   Ar  110   2.483   2.376   4.662
    1   AR   Ar  111   4.517   6.490   7.800
    1   AR   Ar  112   0.382   6.473   5.947
    1   AR   Ar  113   3.635   4.368  -0.977
    1   AR   Ar  114   2.662   6.996  -1.731
    1   AR   Ar  115   1.642   4.872   0.134
    1   AR   Ar  116   4.484   0.897   0.045
    1   AR   Ar  117   0.341   4.871   4.173
    1   AR   Ar  118   1.115   5.230   3.468
    1   AR   Ar  119   2.147   4.074   2.761
    1   AR   Ar  120   1.444   6.944   2.336
    1   AR   Ar  121   5.458   4.276   5.313
    1   AR   Ar  122   3.176   5.773   4.179
    1   AR   Ar  123   2.736   3.217   5.284
    1   AR   Ar  124   0.906   5.210   1.466
    1   AR   Ar  125   6.464   3.210   4.908
    1   AR   Ar  126   7.113   0.306   6.080
    1   AR   Ar  127   4.381   3.350   6.359
    1   AR   Ar  128   2.848   3.242   7.088
    1   AR   Ar  129   2.079   5.575   4.283
    1   AR   Ar  130   4.663   1.291  -4.130
    1   AR   Ar  131   4.760   4.929  -2.602
    1   AR   Ar  132   0.770   1.848   0.139
    1   AR   Ar  133   4.238   0.438   4.597
    1   AR   Ar  134   3.768   1.511   4.095
    1   AR   Ar  135   6.244   1.592   3.763
    1   AR   Ar  136   6.474   0.010   2.042
    1   AR   Ar  137   2.867   4.141   6.135
    1   AR   Ar  138   5.256   1.922   5.910
    1   AR   Ar  139   5.812   2.710   5.552
    1   AR   Ar  140   4.246   6.447   5.158
    1   AR   Ar  141   4.165   5.147   4.566
    1   AR   Ar  142   5.090   0.284   6.838
    1   AR   Ar  143   6.200   6.640   6.694
    1   AR   Ar  144   6.456   1.856   5.227
    1   AR   Ar  145   4.195   5.167  -0.685
    1   AR   Ar  146   3.894   2.293   2.791
    1   AR   Ar  147   4.759   3.725  -0.622
    1   AR   Ar  148   3.398   6.664  -1.088
    1   AR   Ar  149   2.554   0.918  -0.561
    1   AR   Ar  150   2.361   2.864   2.791
    1   AR   Ar  151   2.980   2.188   3.391
    1   AR   Ar  152   1.113   2.501  -1.533
    1   AR   Ar  153   5.206   0.319   4.026
    1   AR   Ar  154   4.312   2.629   3.805
    1   AR   Ar  155   6.315   3.606   5.876
    1   AR   Ar  156   2.887   4.412   3.512
    1   AR   Ar  157   1.571   4.830   6.716
    1   AR   Ar  158   0.426   1.609   5.849
    1   AR   Ar  159   4.332   0.386   5.732
    1   AR   Ar  160   1.535   1.965   5.034
    1   AR   Ar  161   4.867   5.115   3.500
    1   AR   Ar  162   4.252   6.272  -0.331
    1   AR   Ar  163   5.537   4.916   1.183
    1   AR   Ar  164   1.780   5.950   2.134
    1   AR   Ar  165   3.417   3.865   0.745
    1   AR   Ar  166   2.634   3.448   4.197
    1   AR   Ar  167   5.727   6.319   3.207
    1   AR   Ar  168   5.453   4.070  -1.673
    1   AR   Ar  169   3.334   3.199   3.304
    1   AR   Ar  170   1.905   3.216   5.899
    1   AR   Ar  171   5.797   4.797   4.381
    1   AR   Ar  172   3.571   3.884   5.418
    1   AR   Ar  173   2.486   2.219   5.816
    1   AR   Ar  174   2.606   6.305   5.216
    1   AR   Ar  175   2.837   1.030   5.922
    1   AR   Ar  176   3.674   3.082   4.745
    1   AR   Ar  177   1.362   5.022  -0.836
    1   AR   Ar  178   2.617   6.030   0.403
    1   AR   Ar  179   3.140   6.875   0.195
    1   AR   Ar  180   5.250   1.455  -6.042
    1   AR   Ar  181   7.106   5.603   1.710
    1   AR   Ar  182   0.746   5.828   2.768
    1   AR   Ar  183   4.624   5.147   2.053
    1   AR   Ar  184   4.157   6.808   0.522
    1   AR   Ar  185   2.770   4.767   4.663
    1   AR   Ar  186   2.131   5.225   3.219
    1   AR   Ar  187   3.830   6.594   3.954
    1   AR   Ar  188   2.418   6.862   2.485
    1   AR   Ar  189   5.397   3.861   6.391
    1   AR   Ar  190   2.537   6.379   3.414
    1   AR   Ar  191   3.053   6.480   7.693
    1   AR   Ar  192   4.673   5.078   6.342
    1   AR   Ar  193   2.176   6.526   1.470
    1   AR   Ar  194   5.240   4.928  -0.786
    1   AR   Ar  195   5.796   1.333   0.996
    1   AR   Ar  196   3.671   0.380  -0.645
    1   AR   Ar  197   4.123   2.232   0.722
    1   AR   Ar  198   5.424   0.318   1.482
    1   AR   Ar  199   2.014   0.329   3.394
    1   AR   Ar  200   4.812   2.991   0.385
    1   AR   Ar  201   6.498   5.917   2.501
    1   AR   Ar  202   5.270   0.784   5.018
    1   AR   Ar  203   7.102   6.519   3.228
    1   AR   Ar  204   4.702   6.098   6.218
    1   AR   Ar  205   6.401   1.596   1.819
    1   AR   Ar  206   6.393   0.809   5.571
    1   AR   Ar  207   0.221   2.580   5.019
    1   AR   Ar  208   0.896   5.682   4.561
    1   AR   Ar  209   0.053   1.949  -2.364
    1   AR   Ar  210   1.786   6.926   0.263
    1   AR   Ar  211   0.346   3.549   0.747
    1   AR   Ar  212   5.720   3.401   0.257
    1   AR   Ar  213   3.630   1.590   1.402
    1   AR   Ar  214   4.881   4.061   2.306
    1   AR   Ar  215   6.747   2.894   2.343
    1   AR   Ar  216   1.440   2.545   0.711
    1   AR   Ar  217   4.960   2.025   3.279
    1   AR   Ar  218   4.924   3.354   4.282
    1   AR   Ar  219   4.507   3.344   3.123
    1   AR   Ar  220   4.405   3.973   1.364
    1   AR   Ar  221   6.633   5.764   4.156
    1   AR   Ar  222   5.144   7.044   5.579
    1   AR   Ar  223   6.339   1.376   6.439
    1   AR   Ar  224   4.634   2.611   4.971
    1   AR   Ar  225   6.320   3.393   3.326
    1   AR   Ar  226   1.302   3.353   3.025
    1   AR   Ar  227   0.400   3.628   2.327
    1   AR   Ar  228   6.726   0.563   1.226
    1   AR   Ar  229   6.374   4.698  -1.153
    1   AR   Ar  230   3.625   4.045   4.188
    1   AR   Ar  231   4.475   1.855   2.014
    1   AR   Ar  232   5.286   3.033   1.534
    1   AR   Ar  233   6.781   2.732   3.928
    1   AR   Ar  234   5.731   2.331   4.439
    1   AR   Ar  235   6.359   0.164   3.610
    1   AR   Ar  236   4.885   5.518   5.227
    1   AR   Ar  237   5.110   2.530   6.745
    1   AR   Ar  238   5.623   5.336   6.155
    1   AR   Ar  239   0.628   4.908  10.232
    1   AR   Ar  240   0.653   2.251   6.731
    1   AR   Ar  241   2.489   6.167  -0.593
    1   AR   Ar  242   5.448   5.989   1.648
    1   AR   Ar  243   4.334   5.928   3.082
    1   AR   Ar  244   0.312   5.166   0.425
    1   AR   Ar  245   3.826   7.106   2.623
    1   AR   Ar  246   5.782   6.419  -0.744
    1   AR   Ar  247   6.457   3.884   1.543
    1   AR   Ar  248   5.098   6.109   0.305
    1   AR   Ar  249   4.477   6.699   1.873
    1   AR   Ar  250   4.709   5.844   4.122
    1   AR   Ar  251   4.459   4.095   4.804
    1   AR   Ar  252   2.888   4.487   2.002
    1   AR   Ar  253   6.136   2.771   6.802
    1   AR   Ar  254   4.803   2.049  10.042
    1   AR   Ar  255   3.032   5.565  10.308
    1   AR   Ar  256   6.019   5.210   3.191
    7.12000  7.12000 12.00000
Argon-slab step 4445
  256
    1   AR   Ar    1   5.042   3.213  -2.850
    1   AR   Ar    2   5.466   7.092   0.446
    1   AR   Ar    3   3.538   2.694  -1.222
    1   AR   Ar    4   1.588   1.554   0.644
    1   AR   Ar    5   6.218   5.934   0.220
    1   AR   Ar    6   1.666   1.870   1.648
    1   AR   Ar    7   5.704   4.265   3.437
    1   AR   Ar    8   5.211   1.856  -0.648
    1   AR   Ar    9   0.508   0.269   4.000
    1   AR   Ar   10   6.665   6.717   4.683
    1   AR   Ar   11   1.579   7.028   4.532
    1   AR   Ar   12   0.249   1.533   3.928
    1   AR   Ar   13   6.761   0.771   4.538
    1   AR   Ar   14   3.900   1.705   6.284
    1   AR   Ar   15   3.746   6.691   8.439
    1   AR   Ar   16   0.605   0.230   5.092
    1   AR   Ar   17   6.048   2.576   0.774
    1   AR   Ar   18   6.947   5.681  -0.565
    1   AR   Ar   19   4.268   4.223   0.090
    1   AR   Ar   20   6.591   4.311  -2.708
    1   AR   Ar   21   2.800   1.903   2.353
    1   AR   Ar   22   5.222   1.284   2.161
    1   AR   Ar   23   0.194   6.289   0.996
    1   AR   Ar   24   5.678   2.438   2.429
    1   AR   Ar   25   0.691   2.394   4.095
    1   AR   Ar   26   5.346   6.439   4.778
    1   AR   Ar   27   1.540   0.921   2.399
    1   AR   Ar   28   1.841   2.692   3.695
    1   AR   Ar   29   4.684   1.360   6.940
    1   AR   Ar   30   1.222   1.028   3.364
    1   AR   Ar   31   4.118   0.256   7.254
    1   AR   Ar   32   0.993   2.703   5.902
    1   AR   Ar   33   0.631   4.151  -0.152
    1   AR   Ar   34   0.483   4.898   2.328
    1   AR   Ar   35   5.727   4.684   2.389
    1   AR   Ar   36   6.001   2.807  -2.429
    1   AR   Ar   37   4.231   3.090   1.955
    1   AR   Ar   38   6.838   4.099   3.813
    1   AR   Ar   39   0.195   3.269   3.292
    1   AR   Ar   40   1.970   4.739   1.804
    1   AR   Ar   41   0.407   2.223   2.858
    1   AR   Ar   42   6.077   5.559   5.325
    1   AR   Ar   43   6.778   2.639   5.953
    1   AR   Ar   44   0.644   4.249   3.185
    1   AR   Ar   45   0.190   3.766   5.651
    1   AR   Ar   46   0.763   4.432   6.120
    1   AR   Ar   47   3.714   5.618   7.417
    1   AR   Ar   48   5.743   3.779   7.527
    1   AR   Ar   49   6.433   0.071  -1.034
    1   AR   Ar   50   3.427   5.256   0.070
    1   AR   Ar   51   5.650   3.486   2.506
    1   AR   Ar   52   4.956   2.980  -1.346
    1   AR   Ar   53   5.294   6.959   2.369
    1   AR   Ar   54   0.503   0.148   2.002
    1   AR   Ar   55   6.672   4.090   2.495
    1   AR   Ar   56   0.063   1.166   2.992
    1   AR   Ar   57   3.893   4.308   3.211
    1   AR   Ar   58   0.520   3.485   4.347
    1   AR   Ar   59   2.646   5.350   5.874
    1   AR   Ar   60   7.041   5.150   3.106
    1   AR   Ar   61   6.667   3.839   7.035
    1   AR   Ar   62   6.616   4.479   4.980
    1   AR   Ar   63   1.923   2.437   6.855
    1   AR   Ar   64   0.066   5.324   5.131
    1   AR   Ar   65   3.520   0.075   1.594
    1   AR   Ar   66   0.718   1.090   1.005
    1   AR   Ar   67   5.201   0.595  -0.614
    1   AR   Ar   68   1.028   1.338  -0.761
    1   AR   Ar   69   3.265   1.153   0.382
    1   AR   Ar   70   0.613   1.349   1.953
    1   AR   Ar   71   2.869   0.742   2.751
    1   AR   Ar   72   4.513   0.876   1.376
    1   AR   Ar   73   3.431   0.570   3.672
    1   AR   Ar   74   0.703   1.185   4.908
    1   AR   Ar   75   3.304   0.576   4.928
    1   AR   Ar   76   2.375   0.710   1.305
    1   AR   Ar   77   1.517   0.245   5.687
    1   AR   Ar   78   6.780   5.472   6.123
    1   AR   Ar   79   3.744   6.487   6.464
    1   AR   Ar   80   3.767   5.557   5.488
    1   AR   Ar   81   1.064   6.920   1.182
    1   AR   Ar   82   6.549   4.430   0.585
    1   AR   Ar   83   0.972   3.049  -0.239
    1   AR   Ar   84   1.240   4.290   0.811
    1   AR   Ar   85   2.356   3.365   0.256
    1   AR   Ar   86   1.942   5.399   0.995
    1   AR   Ar   87   3.017   3.418   2.245
    1   AR   Ar   88   3.083   5.301   1.324
    1   AR   Ar   89   7.027   2.191   1.044
    1   AR   Ar   90   3.367   1.743   5.154
    1   AR   Ar   91   1.809   2.052   2.875
    1   AR   Ar   92   1.381   3.662   1.785
    1   AR   Ar   93   1.791   1.418   6.047
    1   AR   Ar   94   0.865   7.082   9.205
    1   AR   Ar   95   4.381   1.441   5.401
    1   AR   Ar   96   2.827   6.996   4.335
    1   AR   Ar   97   3.422   1.463  -0.678
    1   AR   Ar   98   2.043   4.478   4.018
    1   AR   Ar   99   6.839   1.709   0.007
    1   AR   Ar  100   0.058   3.319  -2.239
    1   AR   Ar  101   3.651   5.526   2.280
    1   AR   Ar  102   3.871   1.282   3.016
    1   AR   Ar  103   2.398   4.355   0.829
    1   AR   Ar  104   3.200   5.541  -0.905
    1   AR   Ar  105   2.411   1.303   3.661
    1   AR   Ar  106   3.721   2.725   5.680
    1   AR   Ar  107   1.339   4.542   4.925
    1   AR   Ar  108   2.361   1.134   5.075
    1   AR   Ar  109   1.292   2.942   4.951
    1   AR   Ar  110   2.493   2.385   4.682
    1   AR   Ar  111   4.531   6.468   7.779
    1   AR   Ar  112   0.335   6.477   5.959
    1   AR   Ar  113   3.603   4.346  -0.939
    1   AR   Ar  114   2.663   7.018  -1.731
    1   AR   Ar  115   1.661   4.875   0.104
    1   AR   Ar  116   4.521   0.883   0.076
    1   AR   Ar  117   0.330   4.880   4.157
    1   AR   Ar  118   1.112   5.251   3.477
    1   AR   Ar  119   2.137   4.064   2.756
    1   AR   Ar  120   1.425   6.962   2.342
    1   AR   Ar  121   5.450   4.282   5.329
    1   AR   Ar  122   3.177   5.786   4.165
    1   AR   Ar  123   2.746   3.207   5.284
    1   AR   Ar  124   0.908   5.222   1.485
    1   AR   Ar  125   6.479   3.219   4.923
    1   AR   Ar  126   0.014   0.316   6.082
    1   AR   Ar  127   4.392   3.330   6.345
    1   AR   Ar  128   2.863   3.265   7.124
    1   AR   Ar  129   2.052   5.572   4.304
    1   AR   Ar  130   4.649   1.286  -4.157
    1   AR   Ar  131   4.740   4.933  -2.600
    1   AR   Ar  132   0.733   1.823   0.146
    1   AR   Ar  133   4.246   0.430   4.598
    1   AR   Ar  134   3.752   1.491   4.099
    1   AR   Ar  135   6.217   1.571   3.764
    1   AR   Ar  136   6.467   0.019   2.044
    1   AR   Ar  137   2.895   4.153   6.130
    1   AR   Ar  138   5.252   1.905   5.918
    1   AR   Ar  139   5.823   2.732   5.555
    1   AR   Ar  140   4.230   6.466   5.211
    1   AR   Ar  141   4.154   5.157   4.526
    1   AR   Ar  142   5.116   0.286   6.832
    1   AR   Ar  143   6.175   6.649   6.681
    1   AR   Ar  144   6.472   1.860   5.244
    1   AR   Ar  145   4.155   5.132  -0.668
    1   AR   Ar  146   3.884   2.297   2.798
    1   AR   Ar  147   4.765   3.705  -0.568
    1   AR   Ar  148   3.425   6.667  -1.113
    1   AR   Ar  149   2.602   0.892  -0.568
    1   AR   Ar  150   2.380   2.842   2.791
    1   AR   Ar  151   2.994   2.208   3.414
    1   AR   Ar  152   1.109   2.504  -1.562
    1   AR   Ar  153   5.187   0.325   4.011
    1   AR   Ar  154   4.304   2.613   3.788
    1   AR   Ar  155   6.325   3.615   5.862
    1   AR   Ar  156   2.889   4.384   3.513
    1   AR   Ar  157   1.580   4.806   6.746
    1   AR   Ar  158   0.462   1.631   5.863
    1   AR   Ar  159   4.313   0.391   5.754
    1   AR   Ar  160   1.539   1.949   5.054
    1   AR   Ar  161   4.881   5.071   3.483
    1   AR   Ar  162   4.229   6.251  -0.344
    1   AR   Ar  163   5.550   4.909   1.165
    1   AR   Ar  164   1.760   5.940   2.141
    1   AR   Ar  165   3.397   3.907   0.739
    1   AR   Ar  166   2.642   3.466   4.172
    1   AR   Ar  167   5.756   6.330   3.205
    1   AR   Ar  168   5.459   4.062  -1.638
    1   AR   Ar  169   3.337   3.191   3.298
    1   AR   Ar  170   1.936   3.212   5.905
    1   AR   Ar  171   5.787   4.777   4.406
    1   AR   Ar  172   3.550   3.894   5.392
    1   AR   Ar  173   2.502   2.234   5.819
    1   AR   Ar  174   2.640   6.308   5.203
    1   AR   Ar  175   2.826   1.030   5.911
    1   AR   Ar  176   3.646   3.092   4.747
    1   AR   Ar  177   1.365   5.016  -0.833
    1   AR   Ar  178   2.613   6.032   0.376
    1   AR   Ar  179   3.159   6.889   0.207
    1   AR   Ar  180   5.218   1.478  -6.055
    1   AR   Ar  181   7.074   5.601   1.722
    1   AR   Ar  182   0.724   5.860   2.769
    1   AR   Ar  183   4.636   5.179   2.009
    1   AR   Ar  184   4.170   6.798   0.530
    1   AR   Ar  185   2.788   4.770   4.672
    1   AR   Ar  186   2.087   5.217   3.216
    1   AR   Ar  187   3.847   6.597   3.986
    1   AR   Ar  188   2.406   6.839   2.467
    1   AR   Ar  189   5.419   3.832   6.407
    1   AR   Ar  190   2.550   6.383   3.419
    1   AR   Ar  191   3.085   6.499   7.678
    1   AR   Ar  192   4.645   5.059   6.319
    1   AR   Ar  193   2.170   6.530   1.466
    1   AR   Ar  194   5.225   4.926  -0.780
    1   AR   Ar  195   5.762   1.343   0.968
    1   AR   Ar  196   3.659   0.407  -0.626
    1   AR   Ar  197   4.135   2.262   0.711
    1   AR   Ar  198   5.441   0.325   1.461
    1   AR   Ar  199   2.019   0.303   3.379
    1   AR   Ar  200   4.840   3.009   0.387
    1   AR   Ar  201   6.529   5.916   2.490
    1   AR   Ar  202   5.267   0.752   5.037
    1   AR   Ar  203   7.115   6.493   3.219
    1   AR   Ar  204   4.689   6.102   6.197
    1   AR   Ar  205   6.441   1.621   1.848
    1   AR   Ar  206   6.400   0.802   5.555
    1   AR   Ar  207   0.223   2.594   5.017
    1   AR   Ar  208   0.880   5.667   4.572
    1   AR   Ar  209   0.060   1.971  -2.359
    1   AR   Ar  210   1.773   6.947   0.280
    1   AR   Ar  211   0.347   3.516   0.749
    1   AR   Ar  212   5.740   3.413   0.262
    1   AR   Ar  213   3.620   1.608   1.429
    1   AR   Ar  214   4.887   4.057   2.290
    1   AR   Ar  215   6.751   2.910   2.346
    1   AR   Ar  216   1.440   2.583   0.750
    1   AR   Ar  217   4.965   2.022   3.262
    1   AR   Ar  218   4.929   3.335   4.295
    1   AR   Ar  219   4.529   3.358   3.136
    1   AR   Ar  220   4.408   3.971   1.341
    1   AR   Ar  221   6.627   5.735   4.190
    1   AR   Ar  222   5.140   7.044   5.578
    1   AR   Ar  223   6.336   1.358   6.431
    1   AR   Ar  224   4.678   2.608   5.008
    1   AR   Ar  225   6.334   3.385   3.306
    1   AR   Ar  226   1.293   3.362   3.032
    1   AR   Ar  227   0.383   3.606   2.312
    1   AR   Ar  228   6.742   0.566   1.209
    1   AR   Ar  229   6.367   4.674  -1.164
    1   AR   Ar  230   3.624   4.052   4.168
    1   AR   Ar  231   4.516   1.873   2.036
    1   AR   Ar  232   5.286   3.031   1.573
    1   AR   Ar  233   6.797   2.700   3.912
    1   AR   Ar  234   5.743   2.373   4.434
    1   AR   Ar  235   6.367   0.156   3.617
    1   AR   Ar  236   4.906   5.538   5.187
    1   AR   Ar  237   5.095   2.503   6.756
    1   AR   Ar  238   5.628   5.340   6.152
    1   AR   Ar  239   0.645   4.885  10.247
    1   AR   Ar  240   0.705   2.239   6.754
    1   AR   Ar  241   2.511   6.164  -0.623
    1   AR   Ar  242   5.466   5.969   1.683
    1   AR   Ar  243   4.336   5.916   3.060
    1   AR   Ar  244   0.289   5.185   0.426
    1   AR   Ar  245   3.793   0.015   2.659
    1   AR   Ar  246   5.748   6.400  -0.723
    1   AR   Ar  247   6.442   3.858   1.512
    1   AR   Ar  248   5.094   6.116   0.318
    1   AR   Ar  249   4.472   6.706   1.868
    1   AR   Ar  250   4.685   5.873   4.117
    1   AR   Ar  251   4.435   4.118   4.820
    1   AR   Ar  252   2.921   4.517   2.032
    1   AR   Ar  253   6.154   2.750   6.826
    1   AR   Ar  254   4.804   2.036  10.038
    1   AR   Ar  255   3.054   5.558  10.325
    1   AR   Ar  256   6.066   5.228   3.174
    7.12000  7.12000 12.00000
Argon-slab step 4450
  256
    1   AR   Ar    1   5.028   3.213  -2.875
    1   AR   Ar    2   5.473   7.106   0.436
    1   AR   Ar    3   3.531   2.731  -1.215
    1   AR   Ar    4   1.570   1.561   0.628
    1   AR   Ar    5   6.191   5.915   0.192
    1   AR   Ar    6   1.663   1.869   1.650
    1   AR   Ar    7   5.748   4.257   3.438
    1   AR   Ar    8   5.251   1.893  -0.667
    1   AR   Ar    9   0.534   0.307   3.997
    1   AR   Ar   10   6.622   6.712   4.678
    1   AR   Ar   11   1.574   7.049   4.511
    1   AR   Ar   12   0.235   1.533   3.927
    1   AR   Ar   13   6.705   0.766   4.550
    1   AR   Ar   14   3.915   1.685   6.284
    1   AR   Ar   15   3.731   6.711   8.478
    1   AR   Ar   16   0.596   0.270   5.113
    1   AR   Ar   17   6.059   2.617   0.771
    1   AR   Ar   18   6.929   5.680  -0.621
    1   AR   Ar   19   4.289   4.237   0.133
    1   AR   Ar   20   6.595   4.325  -2.724
    1   AR   Ar   21   2.798   1.892   2.349
    1   AR   Ar   22   5.202   1.279   2.198
    1   AR   Ar   23   0.223   6.285   1.007
    1   AR   Ar   24   5.725   2.456   2.427
    1   AR   Ar   25   0.725   2.415   4.109
    1   AR   Ar   26   5.344   6.457   4.755
    1   AR   Ar   27   1.549   0.887   2.413
    1   AR   Ar   28   1.843   2.695   3.689
    1   AR   Ar   29   4.675   1.354   6.955
    1   AR   Ar   30   1.209   1.043   3.357
    1   AR   Ar   31   4.109   0.278   7.246
    1   AR   Ar   32   0.979   2.684   5.892
    1   AR   Ar   33   0.635   4.143  -0.173
    1   AR   Ar   34   0.481   4.923   2.307
    1   AR   Ar   35   5.726   4.673   2.399
    1   AR   Ar   36   6.013   2.786  -2.451
    1   AR   Ar   37   4.233   3.054   1.982
    1   AR   Ar   38   6.844   4.164   3.828
    1   AR   Ar   39   0.233   3.245   3.277
    1   AR   Ar   40   1.962   4.730   1.801
    1   AR   Ar   41   0.434   2.233   2.840
    1   AR   Ar   42   6.114   5.573   5.363
    1   AR   Ar   43   6.773   2.618   5.957
    1   AR   Ar   44   0.619   4.257   3.195
    1   AR   Ar   45   0.179   3.765   5.690
    1   AR   Ar   46   0.742   4.418   6.110
    1   AR   Ar   47   3.728   5.659   7.413
    1   AR   Ar   48   5.744   3.771   7.534
    1   AR   Ar   49   6.428   0.088  -1.005
    1   AR   Ar   50   3.418   5.278   0.090
    1   AR   Ar   51   5.630   3.458   2.508
    1   AR   Ar   52   4.957   2.982  -1.361
    1   AR   Ar   53   5.299   6.994   2.361
    1   AR   Ar   54   0.512   0.155   2.027
    1   AR   Ar   55   6.670   4.087   2.494
    1   AR   Ar   56   0.053   1.181   2.942
    1   AR   Ar   57   3.885   4.283   3.207
    1   AR   Ar   58   0.500   3.497   4.366
    1   AR   Ar   59   2.655   5.357   5.872
    1   AR   Ar   60   7.019   5.125   3.090
    1   AR   Ar   61   6.622   3.822   7.058
    1   AR   Ar   62   6.614   4.457   4.984
    1   AR   Ar   63   1.885   2.425   6.861
    1   AR   Ar   64   0.024   5.321   5.161
    1   AR   Ar   65   3.520   0.069   1.610
    1   AR   Ar   66   0.767   1.092   1.005
    1   AR   Ar   67   5.196   0.591  -0.624
    1   AR   Ar   68   1.053   1.330  -0.731
    1   AR   Ar   69   3.285   1.133   0.394
    1   AR   Ar   70   0.605   1.327   1.968
    1   AR   Ar   71   2.862   0.714   2.740
    1   AR   Ar   72   4.504   0.912   1.409
    1   AR   Ar   73   3.441   0.554   3.650
    1   AR   Ar   74   0.722   1.166   4.885
    1   AR   Ar   75   3.283   0.598   4.906
    1   AR   Ar   76   2.369   0.754   1.287
    1   AR   Ar   77   1.506   0.262   5.678
    1   AR   Ar   78   6.791   5.466   6.113
    1   AR   Ar   79   3.704   6.500   6.448
    1   AR   Ar   80   3.786   5.561   5.460
    1   AR   Ar   81   1.062   6.917   1.196
    1   AR   Ar   82   6.558   4.424   0.577
    1   AR   Ar   83   0.971   3.058  -0.238
    1   AR   Ar   84   1.253   4.296   0.795
    1   AR   Ar   85   2.377   3.367   0.229
    1   AR   Ar   86   1.930   5.371   1.015
    1   AR   Ar   87   2.997   3.405   2.254
    1   AR   Ar   88   3.093   5.299   1.331
    1   AR   Ar   89   7.024   2.169   0.997
    1   AR   Ar   90   3.375   1.738   5.171
    1   AR   Ar   91   1.780   2.054   2.873
    1   AR   Ar   92   1.384   3.666   1.813
    1   AR   Ar   93   1.804   1.416   6.045
    1   AR   Ar   94   0.895   7.079   9.202
    1   AR   Ar   95   4.399   1.442   5.390
    1   AR   Ar   96   2.839   7.008   4.334
    1   AR   Ar   97   3.402   1.441  -0.677
    1   AR   Ar   98   2.031   4.474   4.040
    1   AR   Ar   99   6.844   1.731  -0.004
    1   AR   Ar  100   0.025   3.320  -2.258
    1   AR   Ar  101   3.659   5.493   2.314
    1   AR   Ar  102   3.876   1.294   3.041
    1   AR   Ar  103   2.394   4.329   0.847
    1   AR   Ar  104   3.209   5.568  -0.895
    1   AR   Ar  105   2.397   1.307   3.680
    1   AR   Ar  106   3.750   2.730   5.701
    1   AR   Ar  107   1.329   4.560   4.940
    1   AR   Ar  108   2.353   1.130   5.048
    1   AR   Ar  109   1.324   2.962   4.941
    1   AR   Ar  110   2.517   2.388   4.688
    1   AR   Ar  111   4.547   6.446   7.754
    1   AR   Ar  112   0.288   6.474   5.968
    1   AR   Ar  113   3.567   4.317  -0.903
    1   AR   Ar  114   2.662   7.042  -1.732
    1   AR   Ar  115   1.686   4.879   0.077
    1   AR   Ar  116   4.551   0.871   0.112
    1   AR   Ar  117   0.318   4.888   4.141
    1   AR   Ar  118   1.105   5.267   3.494
    1   AR   Ar  119   2.126   4.055   2.750
    1   AR   Ar  120   1.406   6.988   2.342
    1   AR   Ar  121   5.443   4.289   5.346
    1   AR   Ar  122   3.176   5.797   4.153
    1   AR   Ar  123   2.758   3.199   5.284
    1   AR   Ar  124   0.918   5.236   1.493
    1   AR   Ar  125   6.482   3.222   4.932
    1   AR   Ar  126   0.002   0.331   6.114
    1   AR   Ar  127   4.405   3.309   6.329
    1   AR   Ar  128   2.878   3.289   7.158
    1   AR   Ar  129   2.025   5.569   4.324
    1   AR   Ar  130   4.636   1.281  -4.185
    1   AR   Ar  131   4.720   4.935  -2.598
    1   AR   Ar  132   0.697   1.802   0.154
    1   AR   Ar  133   4.261   0.420   4.598
    1   AR   Ar  134   3.735   1.474   4.105
    1   AR   Ar  135   6.192   1.550   3.765
    1   AR   Ar  136   6.460   0.032   2.080
    1   AR   Ar  137   2.918   4.167   6.128
    1   AR   Ar  138   5.247   1.884   5.923
    1   AR   Ar  139   5.826   2.751   5.557
    1   AR   Ar  140   4.216   6.489   5.261
    1   AR   Ar  141   4.134   5.156   4.488
    1   AR   Ar  142   5.143   0.288   6.823
    1   AR   Ar  143   6.150   6.659   6.665
    1   AR   Ar  144   6.488   1.863   5.261
    1   AR   Ar  145   4.125   5.105  -0.650
    1   AR   Ar  146   3.873   2.308   2.804
    1   AR   Ar  147   4.778   3.680  -0.523
    1   AR   Ar  148   3.453   6.661  -1.137
    1   AR   Ar  149   2.644   0.859  -0.573
    1   AR   Ar  150   2.402   2.830   2.792
    1   AR   Ar  151   3.007   2.223   3.441
    1   AR   Ar  152   1.105   2.506  -1.590
    1   AR   Ar  153   5.168   0.329   3.996
    1   AR   Ar  154   4.289   2.594   3.780
    1   AR   Ar  155   6.330   3.628   5.855
    1   AR   Ar  156   2.893   4.357   3.507
    1   AR   Ar  157   1.591   4.781   6.777
    1   AR   Ar  158   0.496   1.655   5.877
    1   AR   Ar  159   4.278   0.404   5.779
    1   AR   Ar  160   1.543   1.928   5.075
    1   AR   Ar  161   4.898   5.022   3.464
    1   AR   Ar  162   4.203   6.227  -0.362
    1   AR   Ar  163   5.564   4.897   1.143
    1   AR   Ar  164   1.735   5.919   2.157
    1   AR   Ar  165   3.377   3.949   0.733
    1   AR   Ar  166   2.650   3.483   4.148
    1   AR   Ar  167   5.787   6.341   3.204
    1   AR   Ar  168   5.452   4.062  -1.620
    1   AR   Ar  169   3.343   3.188   3.292
    1   AR   Ar  170   1.964   3.209   5.914
    1   AR   Ar  171   5.774   4.760   4.429
    1   AR   Ar  172   3.533   3.907   5.364
    1   AR   Ar  173   2.512   2.265   5.789
    1   AR   Ar  174   2.675   6.311   5.189
    1   AR   Ar  175   2.825   1.030   5.915
    1   AR   Ar  176   3.620   3.100   4.735
    1   AR   Ar  177   1.364   5.011  -0.839
    1   AR   Ar  178   2.606   6.028   0.359
    1   AR   Ar  179   3.178   6.907   0.216
    1   AR   Ar  180   5.185   1.502  -6.067
    1   AR   Ar  181   7.042   5.594   1.730
    1   AR   Ar  182   0.701   5.897   2.762
    1   AR   Ar  183   4.651   5.210   1.966
    1   AR   Ar  184   4.185   6.793   0.544
    1   AR   Ar  185   2.811   4.774   4.684
    1   AR   Ar  186   2.080   5.240   3.241
    1   AR   Ar  187   3.857   6.598   3.991
    1   AR   Ar  188   2.405   6.818   2.449
    1   AR   Ar  189   5.434   3.809   6.429
    1   AR   Ar  190   2.563   6.387   3.427
    1   AR   Ar  191   3.114   6.518   7.658
    1   AR   Ar  192   4.611   5.036   6.294
    1   AR   Ar  193   2.168   6.542   1.449
    1   AR   Ar  194   5.226   4.923  -0.777
    1   AR   Ar  195   5.728   1.353   0.941
    1   AR   Ar  196   3.649   0.439  -0.601
    1   AR   Ar  197   4.146   2.291   0.700
    1   AR   Ar  198   5.461   0.333   1.438
    1   AR   Ar  199   1.993   0.308   3.387
    1   AR   Ar  200   4.861   3.025   0.391
    1   AR   Ar  201   6.558   5.911   2.499
    1   AR   Ar  202   5.265   0.728   5.051
    1   AR   Ar  203   0.005   6.470   3.212
    1   AR   Ar  204   4.679   6.108   6.173
    1   AR   Ar  205   6.481   1.647   1.877
    1   AR   Ar  206   6.402   0.795   5.533
    1   AR   Ar  207   0.225   2.607   5.018
    1   AR   Ar  208   0.869   5.656   4.583
    1   AR   Ar  209   0.068   1.995  -2.353
    1   AR   Ar  210   1.763   6.967   0.299
    1   AR   Ar  211   0.348   3.482   0.752
    1   AR   Ar  212   5.768   3.436   0.264
    1   AR   Ar  213   3.608   1.625   1.458
    1   AR   Ar  214   4.879   4.060   2.274
    1   AR   Ar  215   6.750   2.924   2.351
    1   AR   Ar  216   1.436   2.623   0.788
    1   AR   Ar  217   4.984   2.012   3.234
    1   AR   Ar  218   4.937   3.317   4.304
    1   AR   Ar  219   4.552   3.377   3.144
    1   AR   Ar  220   4.411   3.969   1.314
    1   AR   Ar  221   6.621   5.703   4.222
    1   AR   Ar  222   5.149   7.031   5.586
    1   AR   Ar  223   6.332   1.344   6.424
    1   AR   Ar  224   4.721   2.601   5.047
    1   AR   Ar  225   6.332   3.374   3.280
    1   AR   Ar  226   1.284   3.371   3.038
    1   AR   Ar  227   0.383   3.582   2.292
    1   AR   Ar  228   6.761   0.574   1.190
    1   AR   Ar  229   6.367   4.659  -1.158
    1   AR   Ar  230   3.622   4.055   4.154
    1   AR   Ar  231   4.535   1.888   2.049
    1   AR   Ar  232   5.285   3.030   1.610
    1   AR   Ar  233   6.809   2.658   3.907
    1   AR   Ar  234   5.756   2.417   4.429
    1   AR   Ar  235   6.375   0.147   3.624
    1   AR   Ar  236   4.929   5.556   5.150
    1   AR   Ar  237   5.078   2.478   6.769
    1   AR   Ar  238   5.633   5.357   6.170
    1   AR   Ar  239   0.661   4.863  10.262
    1   AR   Ar  240   0.756   2.224   6.783
    1   AR   Ar  241   2.521   6.173  -0.656
    1   AR   Ar  242   5.470   5.982   1.685
    1   AR   Ar  243   4.338   5.905   3.038
    1   AR   Ar  244   0.266   5.204   0.428
    1   AR   Ar  245   3.758   0.045   2.697
    1   AR   Ar  246   5.712   6.380  -0.699
    1   AR   Ar  247   6.426   3.830   1.479
    1   AR   Ar  248   5.091   6.119   0.331
    1   AR   Ar  249   4.460   6.709   1.857
    1   AR   Ar  250   4.666   5.914   4.111
    1   AR   Ar  251   4.455   4.157   4.820
    1   AR   Ar  252   2.963   4.544   2.065
    1   AR   Ar  253   6.171   2.731   6.849
    1   AR   Ar  254   4.806   2.023  10.033
    1   AR   Ar  255   3.086   5.563  10.299
    1   AR   Ar  256   6.101   5.252   3.166
    7.12000  7.12000 12.00000
Argon-slab step 4455
  256
    1   AR   Ar    1   5.036   3.197  -2.897
    1   AR   Ar    2   5.480   0.002   0.422
    1   AR   Ar    3   3.525   2.767  -1.208
    1   AR   Ar    4   1.564   1.567   0.610
    1   AR   Ar    5   6.165   5.896   0.165
    1   AR   Ar    6   1.660   1.862   1.650
    1   AR   Ar    7   5.792   4.249   3.439
    1   AR   Ar    8   5.291   1.931  -0.686
    1   AR   Ar    9   0.558   0.346   3.993
    1   AR   Ar   10   6.578   6.709   4.672
    1   AR   Ar   11   1.568   7.071   4.489
    1   AR   Ar   12   0.219   1.529   3.928
    1   AR   Ar   13   6.652   0.760   4.557
    1   AR   Ar   14   3.927   1.668   6.283
    1   AR   Ar   15   3.718   6.731   8.518
    1   AR   Ar   16   0.580   0.282   5.140
    1   AR   Ar   17   6.071   2.651   0.773
    1   AR   Ar   18   6.911   5.679  -0.676
    1   AR   Ar   19   4.304   4.257   0.183
    1   AR   Ar   20   6.598   4.337  -2.740
    1   AR   Ar   21   2.792   1.895   2.361
    1   AR   Ar   22   5.211   1.247   2.242
    1   AR   Ar   23   0.250   6.281   1.014
    1   AR   Ar   24   5.771   2.464   2.425
    1   AR   Ar   25   0.767   2.442   4.121
    1   AR   Ar   26   5.341   6.484   4.747
    1   AR   Ar   27   1.562   0.859   2.421
    1   AR   Ar   28   1.845   2.699   3.690
    1   AR   Ar   29   4.668   1.347   6.970
    1   AR   Ar   30   1.191   1.061   3.357
    1   AR   Ar   31   4.101   0.290   7.251
    1   AR   Ar   32   0.965   2.666   5.880
    1   AR   Ar   33   0.639   4.137  -0.192
    1   AR   Ar   34   0.480   4.937   2.293
    1   AR   Ar   35   5.725   4.661   2.405
    1   AR   Ar   36   6.026   2.766  -2.471
    1   AR   Ar   37   4.234   3.019   2.010
    1   AR   Ar   38   6.841   4.220   3.839
    1   AR   Ar   39   0.277   3.222   3.261
    1   AR   Ar   40   1.950   4.719   1.802
    1   AR   Ar   41   0.461   2.244   2.824
    1   AR   Ar   42   6.151   5.585   5.343
    1   AR   Ar   43   6.775   2.599   5.963
    1   AR   Ar   44   0.595   4.266   3.204
    1   AR   Ar   45   0.166   3.750   5.717
    1   AR   Ar   46   0.732   4.417   6.108
    1   AR   Ar   47   3.743   5.701   7.408
    1   AR   Ar   48   5.740   3.760   7.539
    1   AR   Ar   49   6.422   0.095  -0.988
    1   AR   Ar   50   3.407   5.299   0.116
    1   AR   Ar   51   5.619   3.443   2.510
    1   AR   Ar   52   4.959   2.984  -1.377
    1   AR   Ar   53   5.309   7.028   2.360
    1   AR   Ar   54   0.509   0.168   2.049
    1   AR   Ar   55   6.661   4.091   2.500
    1   AR   Ar   56   0.043   1.195   2.890
    1   AR   Ar   57   3.884   4.258   3.193
    1   AR   Ar   58   0.478   3.510   4.383
    1   AR   Ar   59   2.665   5.364   5.868
    1   AR   Ar   60   7.022   5.097   3.081
    1   AR   Ar   61   6.637   3.839   7.084
    1   AR   Ar   62   6.611   4.427   4.988
    1   AR   Ar   63   1.859   2.422   6.868
    1   AR   Ar   64   7.116   5.310   5.161
    1   AR   Ar   65   3.545   0.062   1.646
    1   AR   Ar   66   0.809   1.087   1.002
    1   AR   Ar   67   5.195   0.584  -0.638
    1   AR   Ar   68   1.079   1.321  -0.703
    1   AR   Ar   69   3.306   1.111   0.406
    1   AR   Ar   70   0.597   1.307   1.991
    1   AR   Ar   71   2.854   0.688   2.729
    1   AR   Ar   72   4.494   0.947   1.441
    1   AR   Ar   73   3.450   0.534   3.631
    1   AR   Ar   74   0.745   1.175   4.854
    1   AR   Ar   75   3.264   0.626   4.890
    1   AR   Ar   76   2.362   0.798   1.269
    1   AR   Ar   77   1.497   0.280   5.668
    1   AR   Ar   78   6.805   5.460   6.112
    1   AR   Ar   79   3.664   6.514   6.434
    1   AR   Ar   80   3.804   5.562   5.434
    1   AR   Ar   81   1.072   6.888   1.179
    1   AR   Ar   82   6.566   4.419   0.567
    1   AR   Ar   83   0.969   3.066  -0.235
    1   AR   Ar   84   1.264   4.299   0.784
    1   AR   Ar   85   2.396   3.371   0.203
    1   AR   Ar   86   1.917   5.360   0.994
    1   AR   Ar   87   2.982   3.382   2.269
    1   AR   Ar   88   3.112   5.302   1.356
    1   AR   Ar   89   7.024   2.146   0.951
    1   AR   Ar   90   3.382   1.734   5.188
    1   AR   Ar   91   1.744   2.044   2.868
    1   AR   Ar   92   1.387   3.672   1.841
    1   AR   Ar   93   1.816   1.415   6.042
    1   AR   Ar   94   0.899   7.073   9.192
    1   AR   Ar   95   4.419   1.442   5.375
    1   AR   Ar   96   2.848   7.016   4.328
    1   AR   Ar   97   3.397   1.435  -0.678
    1   AR   Ar   98   2.010   4.469   4.063
    1   AR   Ar   99   6.837   1.753  -0.017
    1   AR   Ar  100   0.007   3.320  -2.278
    1   AR   Ar  101   3.665   5.459   2.347
    1   AR   Ar  102   3.882   1.305   3.064
    1   AR   Ar  103   2.386   4.305   0.866
    1   AR   Ar  104   3.232   5.583  -0.895
    1   AR   Ar  105   2.383   1.311   3.698
    1   AR   Ar  106   3.776   2.732   5.724
    1   AR   Ar  107   1.317   4.580   4.954
    1   AR   Ar  108   2.367   1.137   5.008
    1   AR   Ar  109   1.358   2.986   4.928
    1   AR   Ar  110   2.540   2.387   4.691
    1   AR   Ar  111   4.562   6.423   7.727
    1   AR   Ar  112   0.242   6.467   5.976
    1   AR   Ar  113   3.526   4.281  -0.867
    1   AR   Ar  114   2.659   7.066  -1.734
    1   AR   Ar  115   1.718   4.884   0.059
    1   AR   Ar  116   4.576   0.859   0.155
    1   AR   Ar  117   0.310   4.901   4.128
    1   AR   Ar  118   1.091   5.280   3.515
    1   AR   Ar  119   2.118   4.048   2.748
    1   AR   Ar  120   1.391   7.005   2.344
    1   AR   Ar  121   5.436   4.296   5.365
    1   AR   Ar  122   3.174   5.806   4.143
    1   AR   Ar  123   2.771   3.194   5.284
    1   AR   Ar  124   0.937   5.255   1.489
    1   AR   Ar  125   6.469   3.216   4.932
    1   AR   Ar  126   7.111   0.350   6.149
    1   AR   Ar  127   4.418   3.289   6.314
    1   AR   Ar  128   2.892   3.312   7.190
    1   AR   Ar  129   1.998   5.567   4.345
    1   AR   Ar  130   4.622   1.277  -4.212
    1   AR   Ar  131   4.700   4.941  -2.593
    1   AR   Ar  132   0.666   1.786   0.164
    1   AR   Ar  133   4.278   0.410   4.597
    1   AR   Ar  134   3.718   1.460   4.114
    1   AR   Ar  135   6.168   1.530   3.767
    1   AR   Ar  136   6.452   0.042   2.119
    1   AR   Ar  137   2.938   4.194   6.121
    1   AR   Ar  138   5.244   1.860   5.926
    1   AR   Ar  139   5.819   2.766   5.560
    1   AR   Ar  140   4.204   6.515   5.308
    1   AR   Ar  141   4.107   5.148   4.453
    1   AR   Ar  142   5.098   0.288   6.841
    1   AR   Ar  143   6.124   6.669   6.648
    1   AR   Ar  144   6.505   1.885   5.260
    1   AR   Ar  145   4.111   5.090  -0.637
    1   AR   Ar  146   3.863   2.324   2.808
    1   AR   Ar  147   4.798   3.649  -0.486
    1   AR   Ar  148   3.482   6.651  -1.159
    1   AR   Ar  149   2.670   0.814  -0.575
    1   AR   Ar  150   2.404   2.828   2.758
    1   AR   Ar  151   3.018   2.233   3.472
    1   AR   Ar  152   1.099   2.508  -1.618
    1   AR   Ar  153   5.151   0.332   3.981
    1   AR   Ar  154   4.294   2.546   3.784
    1   AR   Ar  155   6.325   3.645   5.855
    1   AR   Ar  156   2.895   4.332   3.494
    1   AR   Ar  157   1.591   4.779   6.799
    1   AR   Ar  158   0.525   1.673   5.888
    1   AR   Ar  159   4.238   0.420   5.805
    1   AR   Ar  160   1.548   1.906   5.097
    1   AR   Ar  161   4.915   4.971   3.445
    1   AR   Ar  162   4.175   6.202  -0.382
    1   AR   Ar  163   5.577   4.885   1.122
    1   AR   Ar  164   1.707   5.894   2.176
    1   AR   Ar  165   3.376   3.984   0.711
    1   AR   Ar  166   2.658   3.498   4.124
    1   AR   Ar  167   5.817   6.352   3.203
    1   AR   Ar  168   5.435   4.066  -1.613
    1   AR   Ar  169   3.352   3.192   3.288
    1   AR   Ar  170   1.986   3.206   5.928
    1   AR   Ar  171   5.760   4.746   4.449
    1   AR   Ar  172   3.521   3.925   5.334
    1   AR   Ar  173   2.523   2.293   5.758
    1   AR   Ar  174   2.711   6.312   5.174
    1   AR   Ar  175   2.832   1.029   5.927
    1   AR   Ar  176   3.600   3.104   4.711
    1   AR   Ar  177   1.358   5.007  -0.857
    1   AR   Ar  178   2.599   6.020   0.348
    1   AR   Ar  179   3.196   6.929   0.222
    1   AR   Ar  180   5.153   1.525  -6.080
    1   AR   Ar  181   7.016   5.581   1.724
    1   AR   Ar  182   0.682   5.931   2.748
    1   AR   Ar  183   4.668   5.240   1.922
    1   AR   Ar  184   4.203   6.790   0.561
    1   AR   Ar  185   2.837   4.779   4.697
    1   AR   Ar  186   2.089   5.270   3.270
    1   AR   Ar  187   3.856   6.595   3.956
    1   AR   Ar  188   2.411   6.797   2.433
    1   AR   Ar  189   5.437   3.798   6.459
    1   AR   Ar  190   2.576   6.390   3.437
    1   AR   Ar  191   3.141   6.537   7.635
    1   AR   Ar  192   4.576   5.011   6.269
    1   AR   Ar  193   2.167   6.555   1.426
    1   AR   Ar  194   5.244   4.877  -0.795
    1   AR   Ar  195   5.694   1.362   0.915
    1   AR   Ar  196   3.642   0.467  -0.572
    1   AR   Ar  197   4.156   2.318   0.691
    1   AR   Ar  198   5.481   0.345   1.415
    1   AR   Ar  199   1.970   0.311   3.394
    1   AR   Ar  200   4.875   3.039   0.397
    1   AR   Ar  201   6.579   5.914   2.518
    1   AR   Ar  202   5.265   0.714   5.059
    1   AR   Ar  203   0.009   6.452   3.212
    1   AR   Ar  204   4.671   6.115   6.148
    1   AR   Ar  205   6.520   1.673   1.905
    1   AR   Ar  206   6.400   0.788   5.511
    1   AR   Ar  207   0.229   2.618   5.021
    1   AR   Ar  208   0.873   5.665   4.579
    1   AR   Ar  209   0.075   2.020  -2.347
    1   AR   Ar  210   1.755   6.986   0.318
    1   AR   Ar  211   0.349   3.450   0.755
    1   AR   Ar  212   5.801   3.469   0.260
    1   AR   Ar  213   3.596   1.641   1.488
    1   AR   Ar  214   4.861   4.067   2.257
    1   AR   Ar  215   6.742   2.932   2.355
    1   AR   Ar  216   1.425   2.652   0.819
    1   AR   Ar  217   5.003   2.001   3.203
    1   AR   Ar  218   4.946   3.302   4.311
    1   AR   Ar  219   4.576   3.398   3.149
    1   AR   Ar  220   4.413   3.967   1.285
    1   AR   Ar  221   6.614   5.669   4.253
    1   AR   Ar  222   5.161   7.007   5.604
    1   AR   Ar  223   6.329   1.333   6.419
    1   AR   Ar  224   4.763   2.592   5.089
    1   AR   Ar  225   6.326   3.362   3.255
    1   AR   Ar  226   1.276   3.379   3.041
    1   AR   Ar  227   0.398   3.562   2.266
    1   AR   Ar  228   6.780   0.583   1.171
    1   AR   Ar  229   6.367   4.645  -1.152
    1   AR   Ar  230   3.620   4.056   4.151
    1   AR   Ar  231   4.525   1.894   2.050
    1   AR   Ar  232   5.283   3.028   1.643
    1   AR   Ar  233   6.817   2.610   3.910
    1   AR   Ar  234   5.769   2.462   4.426
    1   AR   Ar  235   6.384   0.139   3.631
    1   AR   Ar  236   4.952   5.572   5.116
    1   AR   Ar  237   5.061   2.456   6.783
    1   AR   Ar  238   5.633   5.375   6.202
    1   AR   Ar  239   0.678   4.841  10.277
    1   AR   Ar  240   0.805   2.207   6.816
    1   AR   Ar  241   2.515   6.199  -0.687
    1   AR   Ar  242   5.471   6.004   1.679
    1   AR   Ar  243   4.342   5.896   3.016
    1   AR   Ar  244   0.244   5.223   0.431
    1   AR   Ar  245   3.725   0.074   2.736
    1   AR   Ar  246   5.676   6.359  -0.675
    1   AR   Ar  247   6.424   3.813   1.450
    1   AR   Ar  248   5.068   6.132   0.345
    1   AR   Ar  249   4.445   6.710   1.843
    1   AR   Ar  250   4.654   5.961   4.101
    1   AR   Ar  251   4.477   4.197   4.822
    1   AR   Ar  252   3.008   4.568   2.101
    1   AR   Ar  253   6.188   2.714   6.872
    1   AR   Ar  254   4.807   2.010  10.029
    1   AR   Ar  255   3.119   5.568  10.273
    1   AR   Ar  256   6.105   5.282   3.168
    7.12000  7.12000 12.00000
Argon-slab step 4460
  256
    1   AR   Ar    1   5.045   3.180  -2.919
    1   AR   Ar    2   5.486   0.019   0.404
    1   AR   Ar    3   3.519   2.803  -1.200
    1   AR   Ar    4   1.574   1.578   0.588
    1   AR   Ar    5   6.140   5.876   0.140
    1   AR   Ar    6   1.661   1.832   1.635
    1   AR   Ar    7   5.833   4.242   3.439
    1   AR   Ar    8   5.331   1.968  -0.704
    1   AR   Ar    9   0.582   0.387   3.991
    1   AR   Ar   10   6.534   6.706   4.667
    1   AR   Ar   11   1.563   7.094   4.468
    1   AR   Ar   12   0.201   1.523   3.929
    1   AR   Ar   13   6.603   0.755   4.552
    1   AR   Ar   14   3.935   1.652   6.281
    1   AR   Ar   15   3.708   6.752   8.559
    1   AR   Ar   16   0.556   0.272   5.172
    1   AR   Ar   17   6.083   2.679   0.781
    1   AR   Ar   18   6.892   5.676  -0.731
    1   AR   Ar   19   4.317   4.282   0.235
    1   AR   Ar   20   6.601   4.348  -2.754
    1   AR   Ar   21   2.791   1.920   2.370
    1   AR   Ar   22   5.228   1.232   2.248
    1   AR   Ar   23   0.275   6.276   1.020
    1   AR   Ar   24   5.818   2.460   2.424
    1   AR   Ar   25   0.812   2.470   4.131
    1   AR   Ar   26   5.341   6.512   4.734
    1   AR   Ar   27   1.580   0.841   2.424
    1   AR   Ar   28   1.848   2.704   3.697
    1   AR   Ar   29   4.664   1.338   6.985
    1   AR   Ar   30   1.170   1.083   3.362
    1   AR   Ar   31   4.096   0.287   7.274
    1   AR   Ar   32   0.952   2.649   5.865
    1   AR   Ar   33   0.644   4.132  -0.209
    1   AR   Ar   34   0.482   4.941   2.284
    1   AR   Ar   35   5.698   4.681   2.412
    1   AR   Ar   36   6.040   2.747  -2.492
    1   AR   Ar   37   4.236   2.985   2.040
    1   AR   Ar   38   6.822   4.259   3.844
    1   AR   Ar   39   0.318   3.200   3.250
    1   AR   Ar   40   1.937   4.704   1.808
    1   AR   Ar   41   0.488   2.253   2.809
    1   AR   Ar   42   6.180   5.598   5.302
    1   AR   Ar   43   6.782   2.581   5.972
    1   AR   Ar   44   0.572   4.275   3.212
    1   AR   Ar   45   0.155   3.721   5.731
    1   AR   Ar   46   0.713   4.431   6.124
    1   AR   Ar   47   3.761   5.742   7.401
    1   AR   Ar   48   5.729   3.744   7.539
    1   AR   Ar   49   6.414   0.098  -0.973
    1   AR   Ar   50   3.394   5.319   0.147
    1   AR   Ar   51   5.621   3.476   2.506
    1   AR   Ar   52   4.951   2.987  -1.393
    1   AR   Ar   53   5.322   7.061   2.363
    1   AR   Ar   54   0.491   0.187   2.068
    1   AR   Ar   55   6.649   4.098   2.509
    1   AR   Ar   56   0.031   1.207   2.840
    1   AR   Ar   57   3.889   4.235   3.171
    1   AR   Ar   58   0.455   3.523   4.400
    1   AR   Ar   59   2.677   5.369   5.863
    1   AR   Ar   60   7.045   5.065   3.080
    1   AR   Ar   61   6.658   3.854   7.105
    1   AR   Ar   62   6.621   4.419   4.986
    1   AR   Ar   63   1.880   2.454   6.890
    1   AR   Ar   64   7.107   5.291   5.138
    1   AR   Ar   65   3.565   0.058   1.680
    1   AR   Ar   66   0.842   1.073   1.002
    1   AR   Ar   67   5.174   0.578  -0.644
    1   AR   Ar   68   1.106   1.312  -0.676
    1   AR   Ar   69   3.328   1.088   0.418
    1   AR   Ar   70   0.588   1.289   2.016
    1   AR   Ar   71   2.842   0.665   2.717
    1   AR   Ar   72   4.484   0.980   1.472
    1   AR   Ar   73   3.445   0.524   3.653
    1   AR   Ar   74   0.770   1.204   4.817
    1   AR   Ar   75   3.251   0.658   4.878
    1   AR   Ar   76   2.355   0.842   1.251
    1   AR   Ar   77   1.490   0.300   5.659
    1   AR   Ar   78   6.820   5.454   6.123
    1   AR   Ar   79   3.625   6.527   6.419
    1   AR   Ar   80   3.821   5.560   5.409
    1   AR   Ar   81   1.087   6.863   1.165
    1   AR   Ar   82   6.575   4.414   0.557
    1   AR   Ar   83   0.968   3.073  -0.230
    1   AR   Ar   84   1.272   4.300   0.779
    1   AR   Ar   85   2.415   3.375   0.178
    1   AR   Ar   86   1.905   5.360   0.947
    1   AR   Ar   87   2.984   3.375   2.269
    1   AR   Ar   88   3.129   5.306   1.378
    1   AR   Ar   89   7.025   2.123   0.908
    1   AR   Ar   90   3.387   1.731   5.205
    1   AR   Ar   91   1.704   2.026   2.862
    1   AR   Ar   92   1.392   3.679   1.868
    1   AR   Ar   93   1.827   1.415   6.039
    1   AR   Ar   94   0.915   7.033   9.170
    1   AR   Ar   95   4.440   1.441   5.355
    1   AR   Ar   96   2.854   7.017   4.316
    1   AR   Ar   97   3.403   1.449  -0.681
    1   AR   Ar   98   1.987   4.464   4.085
    1   AR   Ar   99   6.813   1.774  -0.034
    1   AR   Ar  100   0.010   3.319  -2.301
    1   AR   Ar  101   3.667   5.423   2.378
    1   AR   Ar  102   3.889   1.315   3.083
    1   AR   Ar  103   2.376   4.284   0.886
    1   AR   Ar  104   3.265   5.590  -0.900
    1   AR   Ar  105   2.369   1.316   3.716
    1   AR   Ar  106   3.799   2.730   5.743
    1   AR   Ar  107   1.305   4.600   4.968
    1   AR   Ar  108   2.375   1.148   4.964
    1   AR   Ar  109   1.392   3.010   4.912
    1   AR   Ar  110   2.562   2.382   4.687
    1   AR   Ar  111   4.575   6.402   7.700
    1   AR   Ar  112   0.228   6.464   5.971
    1   AR   Ar  113   3.482   4.274  -0.848
    1   AR   Ar  114   2.653   7.088  -1.732
    1   AR   Ar  115   1.755   4.889   0.047
    1   AR   Ar  116   4.598   0.848   0.203
    1   AR   Ar  117   0.313   4.927   4.122
    1   AR   Ar  118   1.074   5.293   3.537
    1   AR   Ar  119   2.118   4.053   2.762
    1   AR   Ar  120   1.384   7.007   2.349
    1   AR   Ar  121   5.431   4.302   5.388
    1   AR   Ar  122   3.170   5.812   4.136
    1   AR   Ar  123   2.782   3.195   5.284
    1   AR   Ar  124   0.963   5.278   1.473
    1   AR   Ar  125   6.473   3.216   4.913
    1   AR   Ar  126   7.102   0.371   6.185
    1   AR   Ar  127   4.436   3.271   6.300
    1   AR   Ar  128   2.905   3.335   7.220
    1   AR   Ar  129   1.972   5.564   4.365
    1   AR   Ar  130   4.609   1.272  -4.240
    1   AR   Ar  131   4.679   4.958  -2.582
    1   AR   Ar  132   0.647   1.775   0.177
    1   AR   Ar  133   4.294   0.398   4.598
    1   AR   Ar  134   3.701   1.447   4.126
    1   AR   Ar  135   6.145   1.510   3.770
    1   AR   Ar  136   6.444   0.053   2.157
    1   AR   Ar  137   2.954   4.231   6.111
    1   AR   Ar  138   5.242   1.835   5.927
    1   AR   Ar  139   5.807   2.773   5.560
    1   AR   Ar  140   4.192   6.547   5.350
    1   AR   Ar  141   4.077   5.137   4.417
    1   AR   Ar  142   5.054   0.287   6.857
    1   AR   Ar  143   6.098   6.679   6.629
    1   AR   Ar  144   6.520   1.916   5.244
    1   AR   Ar  145   4.123   5.108  -0.646
    1   AR   Ar  146   3.853   2.343   2.810
    1   AR   Ar  147   4.821   3.618  -0.453
    1   AR   Ar  148   3.511   6.641  -1.179
    1   AR   Ar  149   2.678   0.758  -0.574
    1   AR   Ar  150   2.392   2.816   2.739
    1   AR   Ar  151   3.026   2.237   3.505
    1   AR   Ar  152   1.093   2.510  -1.646
    1   AR   Ar  153   5.137   0.333   3.965
    1   AR   Ar  154   4.314   2.482   3.797
    1   AR   Ar  155   6.315   3.650   5.852
    1   AR   Ar  156   2.890   4.310   3.476
    1   AR   Ar  157   1.595   4.800   6.798
    1   AR   Ar  158   0.535   1.666   5.894
    1   AR   Ar  159   4.196   0.437   5.831
    1   AR   Ar  160   1.552   1.885   5.119
    1   AR   Ar  161   4.932   4.920   3.426
    1   AR   Ar  162   4.146   6.175  -0.402
    1   AR   Ar  163   5.590   4.873   1.103
    1   AR   Ar  164   1.678   5.867   2.195
    1   AR   Ar  165   3.389   4.013   0.678
    1   AR   Ar  166   2.666   3.511   4.102
    1   AR   Ar  167   5.847   6.365   3.202
    1   AR   Ar  168   5.418   4.070  -1.605
    1   AR   Ar  169   3.364   3.201   3.284
    1   AR   Ar  170   2.001   3.204   5.946
    1   AR   Ar  171   5.745   4.736   4.466
    1   AR   Ar  172   3.550   3.915   5.340
    1   AR   Ar  173   2.533   2.314   5.731
    1   AR   Ar  174   2.748   6.311   5.158
    1   AR   Ar  175   2.842   1.029   5.942
    1   AR   Ar  176   3.586   3.102   4.678
    1   AR   Ar  177   1.347   5.004  -0.883
    1   AR   Ar  178   2.590   6.012   0.342
    1   AR   Ar  179   3.213   6.952   0.227
    1   AR   Ar  180   5.120   1.548  -6.092
    1   AR   Ar  181   7.006   5.544   1.701
    1   AR   Ar  182   0.673   5.957   2.723
    1   AR   Ar  183   4.687   5.268   1.880
    1   AR   Ar  184   4.223   6.789   0.580
    1   AR   Ar  185   2.866   4.785   4.711
    1   AR   Ar  186   2.104   5.300   3.297
    1   AR   Ar  187   3.852   6.598   3.920
    1   AR   Ar  188   2.422   6.778   2.419
    1   AR   Ar  189   5.439   3.786   6.489
    1   AR   Ar  190   2.588   6.393   3.447
    1   AR   Ar  191   3.167   6.559   7.610
    1   AR   Ar  192   4.571   4.988   6.250
    1   AR   Ar  193   2.164   6.569   1.399
    1   AR   Ar  194   5.262   4.831  -0.813
    1   AR   Ar  195   5.661   1.371   0.890
    1   AR   Ar  196   3.644   0.485  -0.541
    1   AR   Ar  197   4.165   2.342   0.685
    1   AR   Ar  198   5.503   0.358   1.393
    1   AR   Ar  199   1.948   0.312   3.400
    1   AR   Ar  200   4.887   3.053   0.406
    1   AR   Ar  201   6.592   5.925   2.543
    1   AR   Ar  202   5.265   0.709   5.062
    1   AR   Ar  203   0.003   6.445   3.223
    1   AR   Ar  204   4.666   6.121   6.126
    1   AR   Ar  205   6.560   1.699   1.934
    1   AR   Ar  206   6.391   0.781   5.496
    1   AR   Ar  207   0.234   2.628   5.026
    1   AR   Ar  208   0.888   5.678   4.587
    1   AR   Ar  209   0.082   2.046  -2.340
    1   AR   Ar  210   1.749   7.004   0.339
    1   AR   Ar  211   0.351   3.418   0.758
    1   AR   Ar  212   5.836   3.513   0.253
    1   AR   Ar  213   3.584   1.656   1.517
    1   AR   Ar  214   4.845   4.066   2.243
    1   AR   Ar  215   6.730   2.941   2.351
    1   AR   Ar  216   1.412   2.681   0.849
    1   AR   Ar  217   5.024   1.990   3.168
    1   AR   Ar  218   4.955   3.288   4.315
    1   AR   Ar  219   4.570   3.391   3.159
    1   AR   Ar  220   4.415   3.964   1.254
    1   AR   Ar  221   6.606   5.633   4.282
    1   AR   Ar  222   5.173   6.976   5.633
    1   AR   Ar  223   6.293   1.372   6.424
    1   AR   Ar  224   4.805   2.581   5.134
    1   AR   Ar  225   6.323   3.348   3.234
    1   AR   Ar  226   1.272   3.388   3.043
    1   AR   Ar  227   0.423   3.545   2.238
    1   AR   Ar  228   6.799   0.593   1.153
    1   AR   Ar  229   6.366   4.632  -1.145
    1   AR   Ar  230   3.620   4.053   4.160
    1   AR   Ar  231   4.502   1.915   2.047
    1   AR   Ar  232   5.275   3.026   1.663
    1   AR   Ar  233   6.824   2.560   3.915
    1   AR   Ar  234   5.783   2.507   4.423
    1   AR   Ar  235   6.393   0.130   3.640
    1   AR   Ar  236   4.973   5.585   5.085
    1   AR   Ar  237   5.043   2.435   6.798
    1   AR   Ar  238   5.629   5.392   6.238
    1   AR   Ar  239   0.695   4.818  10.293
    1   AR   Ar  240   0.852   2.189   6.851
    1   AR   Ar  241   2.497   6.237  -0.717
    1   AR   Ar  242   5.471   6.027   1.673
    1   AR   Ar  243   4.348   5.889   2.997
    1   AR   Ar  244   0.223   5.242   0.435
    1   AR   Ar  245   3.720   0.084   2.753
    1   AR   Ar  246   5.638   6.341  -0.650
    1   AR   Ar  247   6.445   3.812   1.427
    1   AR   Ar  248   5.040   6.146   0.359
    1   AR   Ar  249   4.460   6.706   1.844
    1   AR   Ar  250   4.645   6.004   4.100
    1   AR   Ar  251   4.500   4.235   4.825
    1   AR   Ar  252   3.052   4.588   2.140
    1   AR   Ar  253   6.203   2.700   6.894
    1   AR   Ar  254   4.809   1.997  10.025
    1   AR   Ar  255   3.151   5.573  10.247
    1   AR   Ar  256   6.081   5.314   3.179
    7.12000  7.12000 12.00000
Argon-slab step 4465
  256
    1   AR   Ar    1   5.045   3.172  -2.931
    1   AR   Ar    2   5.492   0.036   0.382
    1   AR   Ar    3   3.514   2.840  -1.191
    1   AR   Ar    4   1.599   1.594   0.560
    1   AR   Ar    5   6.116   5.853   0.118
    1   AR   Ar    6   1.661   1.802   1.623
    1   AR   Ar    7   5.871   4.239   3.437
    1   AR   Ar    8   5.370   2.006  -0.722
    1   AR   Ar    9   0.604   0.428   3.989
    1   AR   Ar   10   6.489   6.704   4.662
    1   AR   Ar   11   1.558   7.117   4.446
    1   AR   Ar   12   0.182   1.517   3.929
    1   AR   Ar   13   6.559   0.750   4.530
    1   AR   Ar   14   3.941   1.637   6.277
    1   AR   Ar   15   3.698   6.772   8.599
    1   AR   Ar   16   0.527   0.256   5.205
    1   AR   Ar   17   6.095   2.701   0.794
    1   AR   Ar   18   6.871   5.673  -0.784
    1   AR   Ar   19   4.331   4.310   0.284
    1   AR   Ar   20   6.610   4.363  -2.767
    1   AR   Ar   21   2.792   1.941   2.379
    1   AR   Ar   22   5.246   1.231   2.228
    1   AR   Ar   23   0.294   6.266   1.024
    1   AR   Ar   24   5.862   2.449   2.424
    1   AR   Ar   25   0.845   2.486   4.136
    1   AR   Ar   26   5.344   6.542   4.716
    1   AR   Ar   27   1.603   0.837   2.424
    1   AR   Ar   28   1.852   2.709   3.706
    1   AR   Ar   29   4.662   1.329   7.000
    1   AR   Ar   30   1.146   1.108   3.370
    1   AR   Ar   31   4.088   0.282   7.299
    1   AR   Ar   32   0.940   2.635   5.850
    1   AR   Ar   33   0.649   4.129  -0.225
    1   AR   Ar   34   0.489   4.936   2.276
    1   AR   Ar   35   5.671   4.701   2.418
    1   AR   Ar   36   6.054   2.729  -2.512
    1   AR   Ar   37   4.238   2.954   2.069
    1   AR   Ar   38   6.788   4.280   3.843
    1   AR   Ar   39   0.349   3.179   3.243
    1   AR   Ar   40   1.922   4.689   1.816
    1   AR   Ar   41   0.516   2.260   2.792
    1   AR   Ar   42   6.195   5.615   5.259
    1   AR   Ar   43   6.794   2.569   5.985
    1   AR   Ar   44   0.554   4.280   3.220
    1   AR   Ar   45   0.153   3.681   5.737
    1   AR   Ar   46   0.695   4.456   6.146
    1   AR   Ar   47   3.767   5.706   7.416
    1   AR   Ar   48   5.714   3.727   7.541
    1   AR   Ar   49   6.406   0.101  -0.957
    1   AR   Ar   50   3.383   5.338   0.180
    1   AR   Ar   51   5.627   3.514   2.505
    1   AR   Ar   52   4.927   2.990  -1.408
    1   AR   Ar   53   5.348   7.086   2.365
    1   AR   Ar   54   0.460   0.209   2.082
    1   AR   Ar   55   6.636   4.107   2.520
    1   AR   Ar   56   0.014   1.218   2.799
    1   AR   Ar   57   3.898   4.214   3.143
    1   AR   Ar   58   0.431   3.537   4.416
    1   AR   Ar   59   2.690   5.375   5.856
    1   AR   Ar   60   7.068   5.038   3.088
    1   AR   Ar   61   6.683   3.870   7.121
    1   AR   Ar   62   6.639   4.421   4.979
    1   AR   Ar   63   1.904   2.488   6.909
    1   AR   Ar   64   7.115   5.273   5.113
    1   AR   Ar   65   3.580   0.057   1.712
    1   AR   Ar   66   0.865   1.051   1.006
    1   AR   Ar   67   5.154   0.571  -0.652
    1   AR   Ar   68   1.134   1.303  -0.649
    1   AR   Ar   69   3.350   1.063   0.430
    1   AR   Ar   70   0.586   1.274   2.036
    1   AR   Ar   71   2.827   0.644   2.705
    1   AR   Ar   72   4.475   1.012   1.501
    1   AR   Ar   73   3.437   0.513   3.679
    1   AR   Ar   74   0.796   1.239   4.777
    1   AR   Ar   75   3.248   0.691   4.868
    1   AR   Ar   76   2.347   0.886   1.234
    1   AR   Ar   77   1.486   0.322   5.649
    1   AR   Ar   78   6.835   5.449   6.140
    1   AR   Ar   79   3.588   6.541   6.404
    1   AR   Ar   80   3.836   5.556   5.385
    1   AR   Ar   81   1.107   6.843   1.156
    1   AR   Ar   82   6.560   4.420   0.565
    1   AR   Ar   83   0.966   3.080  -0.223
    1   AR   Ar   84   1.278   4.300   0.776
    1   AR   Ar   85   2.434   3.380   0.154
    1   AR   Ar   86   1.896   5.364   0.904
    1   AR   Ar   87   3.003   3.386   2.257
    1   AR   Ar   88   3.145   5.312   1.395
    1   AR   Ar   89   7.028   2.101   0.872
    1   AR   Ar   90   3.390   1.729   5.223
    1   AR   Ar   91   1.661   2.003   2.855
    1   AR   Ar   92   1.402   3.687   1.895
    1   AR   Ar   93   1.836   1.415   6.036
    1   AR   Ar   94   0.932   6.993   9.148
    1   AR   Ar   95   4.460   1.437   5.331
    1   AR   Ar   96   2.856   7.015   4.302
    1   AR   Ar   97   3.415   1.477  -0.686
    1   AR   Ar   98   1.962   4.459   4.107
    1   AR   Ar   99   6.773   1.792  -0.059
    1   AR   Ar  100   0.013   3.316  -2.324
    1   AR   Ar  101   3.668   5.387   2.407
    1   AR   Ar  102   3.896   1.324   3.098
    1   AR   Ar  103   2.364   4.264   0.905
    1   AR   Ar  104   3.297   5.596  -0.909
    1   AR   Ar  105   2.357   1.320   3.733
    1   AR   Ar  106   3.815   2.722   5.757
    1   AR   Ar  107   1.291   4.621   4.980
    1   AR   Ar  108   2.375   1.164   4.920
    1   AR   Ar  109   1.427   3.034   4.897
    1   AR   Ar  110   2.582   2.373   4.675
    1   AR   Ar  111   4.588   6.383   7.671
    1   AR   Ar  112   0.262   6.474   5.949
    1   AR   Ar  113   3.476   4.273  -0.847
    1   AR   Ar  114   2.641   7.097  -1.721
    1   AR   Ar  115   1.796   4.892   0.035
    1   AR   Ar  116   4.618   0.837   0.254
    1   AR   Ar  117   0.326   4.964   4.127
    1   AR   Ar  118   1.059   5.306   3.556
    1   AR   Ar  119   2.117   4.057   2.775
    1   AR   Ar  120   1.384   6.991   2.356
    1   AR   Ar  121   5.427   4.308   5.413
    1   AR   Ar  122   3.166   5.818   4.137
    1   AR   Ar  123   2.792   3.197   5.284
    1   AR   Ar  124   0.993   5.304   1.449
    1   AR   Ar  125   6.481   3.220   4.887
    1   AR   Ar  126   7.092   0.395   6.222
    1   AR   Ar  127   4.460   3.258   6.290
    1   AR   Ar  128   2.918   3.358   7.250
    1   AR   Ar  129   1.948   5.561   4.386
    1   AR   Ar  130   4.595   1.267  -4.268
    1   AR   Ar  131   4.658   4.975  -2.569
    1   AR   Ar  132   0.637   1.766   0.192
    1   AR   Ar  133   4.307   0.386   4.602
    1   AR   Ar  134   3.683   1.438   4.142
    1   AR   Ar  135   6.124   1.503   3.768
    1   AR   Ar  136   6.436   0.062   2.196
    1   AR   Ar  137   2.967   4.269   6.104
    1   AR   Ar  138   5.244   1.811   5.928
    1   AR   Ar  139   5.807   2.766   5.534
    1   AR   Ar  140   4.189   6.553   5.318
    1   AR   Ar  141   4.045   5.126   4.380
    1   AR   Ar  142   5.013   0.285   6.869
    1   AR   Ar  143   6.072   6.689   6.609
    1   AR   Ar  144   6.533   1.942   5.224
    1   AR   Ar  145   4.144   5.123  -0.653
    1   AR   Ar  146   3.842   2.364   2.812
    1   AR   Ar  147   4.845   3.589  -0.427
    1   AR   Ar  148   3.540   6.631  -1.198
    1   AR   Ar  149   2.672   0.697  -0.571
    1   AR   Ar  150   2.364   2.796   2.735
    1   AR   Ar  151   3.031   2.237   3.540
    1   AR   Ar  152   1.085   2.512  -1.673
    1   AR   Ar  153   5.126   0.333   3.948
    1   AR   Ar  154   4.330   2.419   3.813
    1   AR   Ar  155   6.293   3.654   5.851
    1   AR   Ar  156   2.881   4.294   3.454
    1   AR   Ar  157   1.606   4.826   6.785
    1   AR   Ar  158   0.543   1.658   5.898
    1   AR   Ar  159   4.154   0.455   5.856
    1   AR   Ar  160   1.557   1.869   5.140
    1   AR   Ar  161   4.949   4.869   3.407
    1   AR   Ar  162   4.136   6.151  -0.405
    1   AR   Ar  163   5.604   4.861   1.085
    1   AR   Ar  164   1.649   5.841   2.214
    1   AR   Ar  165   3.402   4.042   0.646
    1   AR   Ar  166   2.671   3.519   4.083
    1   AR   Ar  167   5.877   6.379   3.202
    1   AR   Ar  168   5.401   4.074  -1.597
    1   AR   Ar  169   3.377   3.216   3.281
    1   AR   Ar  170   2.010   3.203   5.969
    1   AR   Ar  171   5.728   4.729   4.478
    1   AR   Ar  172   3.585   3.908   5.342
    1   AR   Ar  173   2.542   2.325   5.709
    1   AR   Ar  174   2.786   6.309   5.141
    1   AR   Ar  175   2.856   1.030   5.957
    1   AR   Ar  176   3.579   3.095   4.637
    1   AR   Ar  177   1.334   5.002  -0.915
    1   AR   Ar  178   2.580   6.004   0.337
    1   AR   Ar  179   3.229   6.971   0.236
    1   AR   Ar  180   5.087   1.571  -6.104
    1   AR   Ar  181   7.000   5.501   1.668
    1   AR   Ar  182   0.674   5.975   2.689
    1   AR   Ar  183   4.706   5.296   1.838
    1   AR   Ar  184   4.243   6.790   0.601
    1   AR   Ar  185   2.896   4.790   4.724
    1   AR   Ar  186   2.124   5.329   3.323
    1   AR   Ar  187   3.843   6.608   3.882
    1   AR   Ar  188   2.435   6.759   2.407
    1   AR   Ar  189   5.439   3.774   6.516
    1   AR   Ar  190   2.599   6.397   3.456
    1   AR   Ar  191   3.192   6.584   7.584
    1   AR   Ar  192   4.613   4.966   6.243
    1   AR   Ar  193   2.161   6.583   1.369
    1   AR   Ar  194   5.279   4.785  -0.829
    1   AR   Ar  195   5.627   1.380   0.867
    1   AR   Ar  196   3.656   0.493  -0.507
    1   AR   Ar  197   4.171   2.363   0.680
    1   AR   Ar  198   5.524   0.375   1.374
    1   AR   Ar  199   1.928   0.311   3.405
    1   AR   Ar  200   4.900   3.066   0.420
    1   AR   Ar  201   6.603   5.939   2.563
    1   AR   Ar  202   5.267   0.708   5.062
    1   AR   Ar  203   7.109   6.450   3.249
    1   AR   Ar  204   4.665   6.122   6.108
    1   AR   Ar  205   6.606   1.723   1.917
    1   AR   Ar  206   6.377   0.775   5.494
    1   AR   Ar  207   0.241   2.636   5.031
    1   AR   Ar  208   0.887   5.680   4.602
    1   AR   Ar  209   0.089   2.075  -2.333
    1   AR   Ar  210   1.746   7.023   0.358
    1   AR   Ar  211   0.353   3.386   0.761
    1   AR   Ar  212   5.872   3.565   0.242
    1   AR   Ar  213   3.570   1.672   1.546
    1   AR   Ar  214   4.827   4.060   2.229
    1   AR   Ar  215   6.720   2.958   2.331
    1   AR   Ar  216   1.398   2.711   0.879
    1   AR   Ar  217   5.044   1.978   3.131
    1   AR   Ar  218   4.964   3.275   4.318
    1   AR   Ar  219   4.543   3.364   3.172
    1   AR   Ar  220   4.418   3.959   1.224
    1   AR   Ar  221   6.596   5.599   4.306
    1   AR   Ar  222   5.183   6.945   5.671
    1   AR   Ar  223   6.330   1.381   6.429
    1   AR   Ar  224   4.845   2.568   5.179
    1   AR   Ar  225   6.325   3.330   3.221
    1   AR   Ar  226   1.308   3.398   3.064
    1   AR   Ar  227   0.451   3.533   2.209
    1   AR   Ar  228   6.819   0.605   1.136
    1   AR   Ar  229   6.364   4.618  -1.138
    1   AR   Ar  230   3.624   4.050   4.175
    1   AR   Ar  231   4.477   1.941   2.044
    1   AR   Ar  232   5.251   3.025   1.657
    1   AR   Ar  233   6.831   2.509   3.922
    1   AR   Ar  234   5.797   2.551   4.420
    1   AR   Ar  235   6.403   0.121   3.648
    1   AR   Ar  236   4.993   5.595   5.056
    1   AR   Ar  237   5.025   2.415   6.814
    1   AR   Ar  238   5.625   5.410   6.273
    1   AR   Ar  239   0.693   4.785  10.311
    1   AR   Ar  240   0.897   2.169   6.886
    1   AR   Ar  241   2.475   6.281  -0.746
    1   AR   Ar  242   5.472   6.050   1.668
    1   AR   Ar  243   4.368   5.887   2.986
    1   AR   Ar  244   0.202   5.261   0.440
    1   AR   Ar  245   3.758   0.066   2.739
    1   AR   Ar  246   5.629   6.333  -0.641
    1   AR   Ar  247   6.465   3.809   1.408
    1   AR   Ar  248   5.014   6.157   0.371
    1   AR   Ar  249   4.469   6.694   1.839
    1   AR   Ar  250   4.672   6.005   4.094
    1   AR   Ar  251   4.523   4.272   4.827
    1   AR   Ar  252   3.093   4.602   2.183
    1   AR   Ar  253   6.216   2.686   6.914
    1   AR   Ar  254   4.810   1.984  10.021
    1   AR   Ar  255   3.183   5.578  10.221
    1   AR   Ar  256   6.085   5.308   3.165
    7.12000  7.12000 12.00000
Argon-slab step 4470
  256
    1   AR   Ar    1   5.010   3.196  -2.908
    1   AR   Ar    2   5.496   0.053   0.356
    1   AR   Ar    3   3.510   2.876  -1.182
    1   AR   Ar    4   1.632   1.612   0.530
    1   AR   Ar    5   6.096   5.828   0.102
    1   AR   Ar    6   1.677   1.789   1.635
    1   AR   Ar    7   5.899   4.238   3.432
    1   AR   Ar    8   5.408   2.044  -0.739
    1   AR   Ar    9   0.624   0.468   3.990
    1   AR   Ar   10   6.444   6.701   4.657
    1   AR   Ar   11   1.553   0.022   4.426
    1   AR   Ar   12   0.163   1.510   3.927
    1   AR   Ar   13   6.560   0.745   4.545
    1   AR   Ar   14   3.945   1.623   6.269
    1   AR   Ar   15   3.689   6.792   8.637
    1   AR   Ar   16   0.494   0.239   5.236
    1   AR   Ar   17   6.108   2.721   0.809
    1   AR   Ar   18   6.850   5.669  -0.835
    1   AR   Ar   19   4.349   4.342   0.322
    1   AR   Ar   20   6.621   4.379  -2.780
    1   AR   Ar   21   2.796   1.957   2.387
    1   AR   Ar   22   5.268   1.228   2.210
    1   AR   Ar   23   0.308   6.252   1.027
    1   AR   Ar   24   5.897   2.431   2.426
    1   AR   Ar   25   0.824   2.506   4.131
    1   AR   Ar   26   5.350   6.575   4.696
    1   AR   Ar   27   1.629   0.844   2.424
    1   AR   Ar   28   1.858   2.714   3.683
    1   AR   Ar   29   4.661   1.319   7.016
    1   AR   Ar   30   1.122   1.136   3.377
    1   AR   Ar   31   4.066   0.276   7.328
    1   AR   Ar   32   0.932   2.651   5.857
    1   AR   Ar   33   0.654   4.128  -0.238
    1   AR   Ar   34   0.505   4.924   2.264
    1   AR   Ar   35   5.643   4.720   2.420
    1   AR   Ar   36   6.069   2.711  -2.531
    1   AR   Ar   37   4.240   2.932   2.095
    1   AR   Ar   38   6.752   4.292   3.845
    1   AR   Ar   39   0.368   3.159   3.243
    1   AR   Ar   40   1.907   4.676   1.825
    1   AR   Ar   41   0.545   2.262   2.775
    1   AR   Ar   42   6.196   5.636   5.221
    1   AR   Ar   43   6.812   2.537   5.977
    1   AR   Ar   44   0.545   4.274   3.228
    1   AR   Ar   45   0.158   3.637   5.736
    1   AR   Ar   46   0.680   4.486   6.169
    1   AR   Ar   47   3.774   5.669   7.429
    1   AR   Ar   48   5.697   3.709   7.545
    1   AR   Ar   49   6.395   0.104  -0.941
    1   AR   Ar   50   3.374   5.354   0.213
    1   AR   Ar   51   5.636   3.553   2.506
    1   AR   Ar   52   4.904   2.995  -1.423
    1   AR   Ar   53   5.374   7.110   2.369
    1   AR   Ar   54   0.424   0.231   2.094
    1   AR   Ar   55   6.625   4.117   2.532
    1   AR   Ar   56   7.105   1.228   2.776
    1   AR   Ar   57   3.908   4.195   3.112
    1   AR   Ar   58   0.405   3.551   4.432
    1   AR   Ar   59   2.704   5.380   5.848
    1   AR   Ar   60   7.081   5.022   3.104
    1   AR   Ar   61   6.709   3.884   7.133
    1   AR   Ar   62   6.651   4.410   4.971
    1   AR   Ar   63   1.931   2.522   6.925
    1   AR   Ar   64   0.022   5.259   5.094
    1   AR   Ar   65   3.588   0.060   1.737
    1   AR   Ar   66   0.883   1.024   1.015
    1   AR   Ar   67   5.144   0.564  -0.652
    1   AR   Ar   68   1.163   1.294  -0.623
    1   AR   Ar   69   3.372   1.037   0.441
    1   AR   Ar   70   0.581   1.261   2.030
    1   AR   Ar   71   2.810   0.626   2.694
    1   AR   Ar   72   4.465   1.039   1.528
    1   AR   Ar   73   3.448   0.502   3.699
    1   AR   Ar   74   0.820   1.273   4.738
    1   AR   Ar   75   3.256   0.721   4.859
    1   AR   Ar   76   2.340   0.881   1.224
    1   AR   Ar   77   1.503   0.322   5.651
    1   AR   Ar   78   6.850   5.443   6.158
    1   AR   Ar   79   3.552   6.554   6.389
    1   AR   Ar   80   3.828   5.551   5.371
    1   AR   Ar   81   1.130   6.827   1.153
    1   AR   Ar   82   6.541   4.430   0.576
    1   AR   Ar   83   0.965   3.084  -0.214
    1   AR   Ar   84   1.282   4.300   0.776
    1   AR   Ar   85   2.453   3.386   0.131
    1   AR   Ar   86   1.890   5.371   0.870
    1   AR   Ar   87   3.030   3.404   2.239
    1   AR   Ar   88   3.160   5.319   1.410
    1   AR   Ar   89   7.031   2.083   0.846
    1   AR   Ar   90   3.393   1.728   5.240
    1   AR   Ar   91   1.618   1.977   2.847
    1   AR   Ar   92   1.419   3.697   1.920
    1   AR   Ar   93   1.845   1.416   6.036
    1   AR   Ar   94   0.948   6.953   9.126
    1   AR   Ar   95   4.477   1.433   5.305
    1   AR   Ar   96   2.856   7.009   4.288
    1   AR   Ar   97   3.426   1.512  -0.691
    1   AR   Ar   98   1.938   4.454   4.127
    1   AR   Ar   99   6.729   1.786  -0.089
    1   AR   Ar  100   0.014   3.314  -2.348
    1   AR   Ar  101   3.669   5.385   2.428
    1   AR   Ar  102   3.904   1.334   3.111
    1   AR   Ar  103   2.351   4.246   0.924
    1   AR   Ar  104   3.323   5.604  -0.919
    1   AR   Ar  105   2.344   1.325   3.751
    1   AR   Ar  106   3.824   2.707   5.762
    1   AR   Ar  107   1.275   4.643   4.992
    1   AR   Ar  108   2.367   1.186   4.875
    1   AR   Ar  109   1.463   3.057   4.882
    1   AR   Ar  110   2.602   2.361   4.656
    1   AR   Ar  111   4.600   6.366   7.642
    1   AR   Ar  112   0.295   6.483   5.926
    1   AR   Ar  113   3.467   4.287  -0.860
    1   AR   Ar  114   2.649   7.109  -1.694
    1   AR   Ar  115   1.839   4.891   0.016
    1   AR   Ar  116   4.636   0.824   0.307
    1   AR   Ar  117   0.337   4.997   4.137
    1   AR   Ar  118   1.050   5.323   3.569
    1   AR   Ar  119   2.116   4.062   2.785
    1   AR   Ar  120   1.387   6.962   2.364
    1   AR   Ar  121   5.426   4.313   5.443
    1   AR   Ar  122   3.169   5.820   4.129
    1   AR   Ar  123   2.816   3.193   5.290
    1   AR   Ar  124   1.022   5.332   1.423
    1   AR   Ar  125   6.493   3.227   4.857
    1   AR   Ar  126   7.083   0.419   6.259
    1   AR   Ar  127   4.491   3.250   6.283
    1   AR   Ar  128   2.930   3.381   7.278
    1   AR   Ar  129   1.958   5.568   4.399
    1   AR   Ar  130   4.582   1.263  -4.296
    1   AR   Ar  131   4.637   4.992  -2.557
    1   AR   Ar  132   0.633   1.760   0.206
    1   AR   Ar  133   4.316   0.374   4.608
    1   AR   Ar  134   3.665   1.431   4.162
    1   AR   Ar  135   6.100   1.533   3.749
    1   AR   Ar  136   6.428   0.072   2.235
    1   AR   Ar  137   2.977   4.308   6.099
    1   AR   Ar  138   5.248   1.786   5.931
    1   AR   Ar  139   5.807   2.755   5.512
    1   AR   Ar  140   4.184   6.564   5.279
    1   AR   Ar  141   4.012   5.116   4.341
    1   AR   Ar  142   4.978   0.281   6.877
    1   AR   Ar  143   6.044   6.700   6.586
    1   AR   Ar  144   6.543   1.964   5.199
    1   AR   Ar  145   4.174   5.131  -0.658
    1   AR   Ar  146   3.829   2.382   2.817
    1   AR   Ar  147   4.870   3.566  -0.409
    1   AR   Ar  148   3.567   6.623  -1.215
    1   AR   Ar  149   2.658   0.635  -0.567
    1   AR   Ar  150   2.328   2.777   2.739
    1   AR   Ar  151   3.033   2.239   3.567
    1   AR   Ar  152   1.077   2.513  -1.701
    1   AR   Ar  153   5.119   0.332   3.930
    1   AR   Ar  154   4.344   2.357   3.830
    1   AR   Ar  155   6.262   3.659   5.854
    1   AR   Ar  156   2.872   4.284   3.428
    1   AR   Ar  157   1.616   4.852   6.771
    1   AR   Ar  158   0.550   1.648   5.900
    1   AR   Ar  159   4.114   0.472   5.881
    1   AR   Ar  160   1.562   1.859   5.159
    1   AR   Ar  161   4.966   4.819   3.387
    1   AR   Ar  162   4.138   6.131  -0.393
    1   AR   Ar  163   5.618   4.848   1.068
    1   AR   Ar  164   1.652   5.858   2.197
    1   AR   Ar  165   3.411   4.053   0.657
    1   AR   Ar  166   2.673   3.521   4.070
    1   AR   Ar  167   5.905   6.396   3.203
    1   AR   Ar  168   5.385   4.074  -1.591
    1   AR   Ar  169   3.392   3.234   3.280
    1   AR   Ar  170   2.013   3.203   5.994
    1   AR   Ar  171   5.712   4.724   4.488
    1   AR   Ar  172   3.623   3.902   5.342
    1   AR   Ar  173   2.550   2.324   5.694
    1   AR   Ar  174   2.825   6.305   5.125
    1   AR   Ar  175   2.872   1.031   5.969
    1   AR   Ar  176   3.577   3.082   4.591
    1   AR   Ar  177   1.319   4.999  -0.947
    1   AR   Ar  178   2.568   5.999   0.334
    1   AR   Ar  179   3.245   6.978   0.264
    1   AR   Ar  180   5.055   1.594  -6.116
    1   AR   Ar  181   7.007   5.494   1.680
    1   AR   Ar  182   0.681   5.987   2.649
    1   AR   Ar  183   4.724   5.321   1.798
    1   AR   Ar  184   4.261   6.797   0.624
    1   AR   Ar  185   2.927   4.796   4.736
    1   AR   Ar  186   2.145   5.357   3.347
    1   AR   Ar  187   3.833   6.623   3.843
    1   AR   Ar  188   2.449   6.741   2.397
    1   AR   Ar  189   5.427   3.766   6.533
    1   AR   Ar  190   2.608   6.402   3.462
    1   AR   Ar  191   3.218   6.613   7.558
    1   AR   Ar  192   4.654   4.945   6.235
    1   AR   Ar  193   2.157   6.595   1.337
    1   AR   Ar  194   5.295   4.741  -0.842
    1   AR   Ar  195   5.593   1.388   0.843
    1   AR   Ar  196   3.680   0.493  -0.473
    1   AR   Ar  197   4.175   2.380   0.678
    1   AR   Ar  198   5.545   0.393   1.359
    1   AR   Ar  199   1.909   0.316   3.409
    1   AR   Ar  200   4.916   3.077   0.444
    1   AR   Ar  201   6.613   5.952   2.572
    1   AR   Ar  202   5.270   0.708   5.062
    1   AR   Ar  203   7.093   6.465   3.287
    1   AR   Ar  204   4.668   6.116   6.104
    1   AR   Ar  205   6.654   1.747   1.888
    1   AR   Ar  206   6.360   0.770   5.504
    1   AR   Ar  207   0.249   2.644   5.036
    1   AR   Ar  208   0.845   5.672   4.600
    1   AR   Ar  209   0.096   2.104  -2.326
    1   AR   Ar  210   1.747   7.041   0.375
    1   AR   Ar  211   0.356   3.354   0.764
    1   AR   Ar  212   5.907   3.621   0.230
    1   AR   Ar  213   3.554   1.687   1.574
    1   AR   Ar  214   4.802   4.056   2.216
    1   AR   Ar  215   6.715   2.976   2.307
    1   AR   Ar  216   1.383   2.740   0.908
    1   AR   Ar  217   5.065   1.965   3.091
    1   AR   Ar  218   4.971   3.264   4.320
    1   AR   Ar  219   4.518   3.335   3.184
    1   AR   Ar  220   4.421   3.949   1.202
    1   AR   Ar  221   6.582   5.566   4.318
    1   AR   Ar  222   5.194   6.915   5.713
    1   AR   Ar  223   6.367   1.391   6.433
    1   AR   Ar  224   4.879   2.554   5.224
    1   AR   Ar  225   6.333   3.307   3.217
    1   AR   Ar  226   1.340   3.399   3.078
    1   AR   Ar  227   0.480   3.519   2.184
    1   AR   Ar  228   6.840   0.617   1.122
    1   AR   Ar  229   6.361   4.605  -1.130
    1   AR   Ar  230   3.629   4.049   4.193
    1   AR   Ar  231   4.453   1.966   2.042
    1   AR   Ar  232   5.227   3.022   1.648
    1   AR   Ar  233   6.838   2.461   3.931
    1   AR   Ar  234   5.810   2.593   4.417
    1   AR   Ar  235   6.412   0.113   3.657
    1   AR   Ar  236   5.012   5.602   5.030
    1   AR   Ar  237   5.007   2.397   6.828
    1   AR   Ar  238   5.621   5.428   6.306
    1   AR   Ar  239   0.678   4.745  10.332
    1   AR   Ar  240   0.939   2.148   6.918
    1   AR   Ar  241   2.453   6.328  -0.775
    1   AR   Ar  242   5.474   6.075   1.662
    1   AR   Ar  243   4.407   5.889   2.983
    1   AR   Ar  244   0.181   5.280   0.446
    1   AR   Ar  245   3.799   0.047   2.729
    1   AR   Ar  246   5.637   6.336  -0.645
    1   AR   Ar  247   6.485   3.802   1.392
    1   AR   Ar  248   4.993   6.164   0.382
    1   AR   Ar  249   4.494   6.696   1.831
    1   AR   Ar  250   4.700   6.004   4.086
    1   AR   Ar  251   4.546   4.307   4.829
    1   AR   Ar  252   3.121   4.609   2.216
    1   AR   Ar  253   6.228   2.675   6.934
    1   AR   Ar  254   4.811   1.971  10.016
    1   AR   Ar  255   3.216   5.583  10.195
    1   AR   Ar  256   6.071   5.311   3.162
    7.12000  7.12000 12.00000
Argon-slab step 4475
  256
    1   AR   Ar    1   4.976   3.220  -2.884
    1   AR   Ar    2   5.499   0.068   0.326
    1   AR   Ar    3   3.506   2.913  -1.172
    1   AR   Ar    4   1.670   1.631   0.499
    1   AR   Ar    5   6.079   5.798   0.091
    1   AR   Ar    6   1.702   1.787   1.662
    1   AR   Ar    7   5.905   4.238   3.417
    1   AR   Ar    8   5.447   2.083  -0.756
    1   AR   Ar    9   0.640   0.505   3.994
    1   AR   Ar   10   6.401   6.699   4.652
    1   AR   Ar   11   1.549   0.048   4.406
    1   AR   Ar   12   0.144   1.501   3.924
    1   AR   Ar   13   6.574   0.741   4.561
    1   AR   Ar   14   3.947   1.609   6.259
    1   AR   Ar   15   3.680   6.811   8.673
    1   AR   Ar   16   0.459   0.223   5.264
    1   AR   Ar   17   6.119   2.741   0.826
    1   AR   Ar   18   6.827   5.665  -0.886
    1   AR   Ar   19   4.381   4.363   0.332
    1   AR   Ar   20   6.631   4.394  -2.792
    1   AR   Ar   21   2.804   1.966   2.395
    1   AR   Ar   22   5.292   1.224   2.192
    1   AR   Ar   23   0.317   6.234   1.029
    1   AR   Ar   24   5.923   2.407   2.429
    1   AR   Ar   25   0.812   2.518   4.126
    1   AR   Ar   26   5.356   6.611   4.676
    1   AR   Ar   27   1.656   0.857   2.423
    1   AR   Ar   28   1.866   2.715   3.656
    1   AR   Ar   29   4.661   1.309   7.031
    1   AR   Ar   30   1.099   1.168   3.382
    1   AR   Ar   31   4.048   0.269   7.316
    1   AR   Ar   32   0.927   2.669   5.864
    1   AR   Ar   33   0.660   4.129  -0.250
    1   AR   Ar   34   0.528   4.908   2.260
    1   AR   Ar   35   5.615   4.736   2.420
    1   AR   Ar   36   6.084   2.694  -2.551
    1   AR   Ar   37   4.243   2.928   2.116
    1   AR   Ar   38   6.733   4.301   3.855
    1   AR   Ar   39   0.379   3.142   3.247
    1   AR   Ar   40   1.892   4.664   1.834
    1   AR   Ar   41   0.574   2.260   2.755
    1   AR   Ar   42   6.185   5.659   5.194
    1   AR   Ar   43   6.831   2.521   5.977
    1   AR   Ar   44   0.549   4.252   3.238
    1   AR   Ar   45   0.157   3.636   5.742
    1   AR   Ar   46   0.666   4.517   6.192
    1   AR   Ar   47   3.781   5.632   7.441
    1   AR   Ar   48   5.682   3.689   7.552
    1   AR   Ar   49   6.384   0.105  -0.923
    1   AR   Ar   50   3.370   5.367   0.245
    1   AR   Ar   51   5.649   3.591   2.505
    1   AR   Ar   52   4.881   2.999  -1.437
    1   AR   Ar   53   5.397   0.014   2.375
    1   AR   Ar   54   0.385   0.251   2.105
    1   AR   Ar   55   6.615   4.128   2.545
    1   AR   Ar   56   7.064   1.237   2.769
    1   AR   Ar   57   3.919   4.180   3.078
    1   AR   Ar   58   0.379   3.565   4.446
    1   AR   Ar   59   2.719   5.385   5.838
    1   AR   Ar   60   7.081   5.023   3.123
    1   AR   Ar   61   6.735   3.898   7.144
    1   AR   Ar   62   6.661   4.397   4.970
    1   AR   Ar   63   1.961   2.558   6.939
    1   AR   Ar   64   0.062   5.250   5.088
    1   AR   Ar   65   3.589   0.066   1.755
    1   AR   Ar   66   0.900   0.995   1.024
    1   AR   Ar   67   5.139   0.556  -0.645
    1   AR   Ar   68   1.181   1.285  -0.603
    1   AR   Ar   69   3.383   1.013   0.430
    1   AR   Ar   70   0.591   1.253   2.010
    1   AR   Ar   71   2.809   0.614   2.713
    1   AR   Ar   72   4.454   1.063   1.550
    1   AR   Ar   73   3.472   0.493   3.712
    1   AR   Ar   74   0.842   1.304   4.698
    1   AR   Ar   75   3.272   0.746   4.852
    1   AR   Ar   76   2.334   0.844   1.220
    1   AR   Ar   77   1.532   0.308   5.660
    1   AR   Ar   78   6.864   5.436   6.180
    1   AR   Ar   79   3.519   6.568   6.373
    1   AR   Ar   80   3.813   5.545   5.359
    1   AR   Ar   81   1.153   6.816   1.159
    1   AR   Ar   82   6.524   4.445   0.583
    1   AR   Ar   83   0.965   3.088  -0.203
    1   AR   Ar   84   1.262   4.278   0.776
    1   AR   Ar   85   2.471   3.394   0.109
    1   AR   Ar   86   1.888   5.384   0.847
    1   AR   Ar   87   3.060   3.425   2.221
    1   AR   Ar   88   3.173   5.328   1.421
    1   AR   Ar   89   7.032   2.068   0.831
    1   AR   Ar   90   3.395   1.730   5.258
    1   AR   Ar   91   1.574   1.949   2.839
    1   AR   Ar   92   1.446   3.708   1.942
    1   AR   Ar   93   1.854   1.415   6.039
    1   AR   Ar   94   0.965   6.913   9.104
    1   AR   Ar   95   4.483   1.421   5.296
    1   AR   Ar   96   2.852   7.003   4.276
    1   AR   Ar   97   3.438   1.549  -0.695
    1   AR   Ar   98   1.915   4.450   4.145
    1   AR   Ar   99   6.684   1.762  -0.122
    1   AR   Ar  100   0.015   3.310  -2.371
    1   AR   Ar  101   3.686   5.420   2.435
    1   AR   Ar  102   3.912   1.343   3.122
    1   AR   Ar  103   2.368   4.264   0.902
    1   AR   Ar  104   3.340   5.614  -0.930
    1   AR   Ar  105   2.333   1.329   3.767
    1   AR   Ar  106   3.826   2.687   5.761
    1   AR   Ar  107   1.257   4.667   5.003
    1   AR   Ar  108   2.353   1.212   4.832
    1   AR   Ar  109   1.499   3.079   4.867
    1   AR   Ar  110   2.622   2.347   4.630
    1   AR   Ar  111   4.611   6.351   7.611
    1   AR   Ar  112   0.327   6.491   5.902
    1   AR   Ar  113   3.451   4.316  -0.857
    1   AR   Ar  114   2.657   0.001  -1.665
    1   AR   Ar  115   1.882   4.882  -0.013
    1   AR   Ar  116   4.653   0.811   0.363
    1   AR   Ar  117   0.334   5.014   4.148
    1   AR   Ar  118   1.052   5.344   3.570
    1   AR   Ar  119   2.112   4.065   2.789
    1   AR   Ar  120   1.388   6.926   2.371
    1   AR   Ar  121   5.425   4.318   5.476
    1   AR   Ar  122   3.181   5.810   4.100
    1   AR   Ar  123   2.841   3.199   5.293
    1   AR   Ar  124   1.047   5.361   1.397
    1   AR   Ar  125   6.510   3.241   4.828
    1   AR   Ar  126   7.074   0.443   6.295
    1   AR   Ar  127   4.527   3.246   6.280
    1   AR   Ar  128   2.942   3.403   7.304
    1   AR   Ar  129   1.970   5.574   4.414
    1   AR   Ar  130   4.569   1.258  -4.324
    1   AR   Ar  131   4.617   5.008  -2.543
    1   AR   Ar  132   0.633   1.752   0.218
    1   AR   Ar  133   4.320   0.361   4.616
    1   AR   Ar  134   3.647   1.430   4.183
    1   AR   Ar  135   6.071   1.513   3.731
    1   AR   Ar  136   6.424   0.081   2.274
    1   AR   Ar  137   2.986   4.346   6.095
    1   AR   Ar  138   5.255   1.761   5.935
    1   AR   Ar  139   5.814   2.744   5.496
    1   AR   Ar  140   4.179   6.578   5.237
    1   AR   Ar  141   3.979   5.106   4.303
    1   AR   Ar  142   4.949   0.275   6.879
    1   AR   Ar  143   6.016   6.710   6.562
    1   AR   Ar  144   6.550   1.978   5.165
    1   AR   Ar  145   4.171   5.125  -0.654
    1   AR   Ar  146   3.812   2.395   2.828
    1   AR   Ar  147   4.886   3.587  -0.426
    1   AR   Ar  148   3.593   6.617  -1.231
    1   AR   Ar  149   2.639   0.573  -0.563
    1   AR   Ar  150   2.290   2.766   2.746
    1   AR   Ar  151   3.025   2.257   3.555
    1   AR   Ar  152   1.067   2.514  -1.728
    1   AR   Ar  153   5.114   0.330   3.911
    1   AR   Ar  154   4.356   2.296   3.848
    1   AR   Ar  155   6.226   3.667   5.857
    1   AR   Ar  156   2.867   4.282   3.402
    1   AR   Ar  157   1.627   4.877   6.756
    1   AR   Ar  158   0.556   1.637   5.900
    1   AR   Ar  159   4.074   0.490   5.906
    1   AR   Ar  160   1.554   1.863   5.158
    1   AR   Ar  161   4.982   4.770   3.368
    1   AR   Ar  162   4.141   6.116  -0.379
    1   AR   Ar  163   5.630   4.836   1.052
    1   AR   Ar  164   1.657   5.875   2.180
    1   AR   Ar  165   3.416   4.053   0.697
    1   AR   Ar  166   2.683   3.519   4.067
    1   AR   Ar  167   5.929   6.415   3.205
    1   AR   Ar  168   5.369   4.068  -1.591
    1   AR   Ar  169   3.405   3.255   3.281
    1   AR   Ar  170   2.013   3.204   6.020
    1   AR   Ar  171   5.695   4.721   4.494
    1   AR   Ar  172   3.664   3.898   5.340
    1   AR   Ar  173   2.555   2.310   5.688
    1   AR   Ar  174   2.866   6.300   5.108
    1   AR   Ar  175   2.890   1.032   5.980
    1   AR   Ar  176   3.578   3.063   4.543
    1   AR   Ar  177   1.303   4.996  -0.980
    1   AR   Ar  178   2.553   5.999   0.330
    1   AR   Ar  179   3.259   6.983   0.292
    1   AR   Ar  180   5.022   1.617  -6.129
    1   AR   Ar  181   7.016   5.498   1.701
    1   AR   Ar  182   0.686   5.998   2.608
    1   AR   Ar  183   4.741   5.344   1.759
    1   AR   Ar  184   4.272   6.811   0.649
    1   AR   Ar  185   2.959   4.802   4.748
    1   AR   Ar  186   2.167   5.384   3.370
    1   AR   Ar  187   3.823   6.638   3.804
    1   AR   Ar  188   2.465   6.722   2.387
    1   AR   Ar  189   5.415   3.758   6.546
    1   AR   Ar  190   2.615   6.409   3.464
    1   AR   Ar  191   3.245   6.642   7.531
    1   AR   Ar  192   4.695   4.923   6.223
    1   AR   Ar  193   2.155   6.606   1.306
    1   AR   Ar  194   5.309   4.702  -0.848
    1   AR   Ar  195   5.559   1.396   0.821
    1   AR   Ar  196   3.711   0.490  -0.440
    1   AR   Ar  197   4.176   2.395   0.679
    1   AR   Ar  198   5.566   0.413   1.346
    1   AR   Ar  199   1.892   0.350   3.411
    1   AR   Ar  200   4.937   3.086   0.478
    1   AR   Ar  201   6.625   5.963   2.570
    1   AR   Ar  202   5.275   0.707   5.061
    1   AR   Ar  203   7.079   6.483   3.333
    1   AR   Ar  204   4.675   6.100   6.115
    1   AR   Ar  205   6.685   1.742   1.900
    1   AR   Ar  206   6.339   0.765   5.526
    1   AR   Ar  207   0.219   2.634   5.040
    1   AR   Ar  208   0.876   5.721   4.579
    1   AR   Ar  209   0.095   2.124  -2.333
    1   AR   Ar  210   1.755   7.062   0.387
    1   AR   Ar  211   0.359   3.323   0.767
    1   AR   Ar  212   5.939   3.676   0.218
    1   AR   Ar  213   3.536   1.701   1.601
    1   AR   Ar  214   4.770   4.055   2.202
    1   AR   Ar  215   6.718   2.997   2.280
    1   AR   Ar  216   1.367   2.769   0.937
    1   AR   Ar  217   5.086   1.952   3.049
    1   AR   Ar  218   4.976   3.254   4.322
    1   AR   Ar  219   4.548   3.324   3.172
    1   AR   Ar  220   4.425   3.931   1.194
    1   AR   Ar  221   6.566   5.535   4.311
    1   AR   Ar  222   5.214   6.933   5.737
    1   AR   Ar  223   6.404   1.402   6.435
    1   AR   Ar  224   4.903   2.538   5.265
    1   AR   Ar  225   6.346   3.280   3.220
    1   AR   Ar  226   1.372   3.400   3.088
    1   AR   Ar  227   0.516   3.493   2.170
    1   AR   Ar  228   6.860   0.630   1.109
    1   AR   Ar  229   6.359   4.593  -1.122
    1   AR   Ar  230   3.636   4.052   4.210
    1   AR   Ar  231   4.436   1.983   2.042
    1   AR   Ar  232   5.213   3.014   1.654
    1   AR   Ar  233   6.843   2.417   3.939
    1   AR   Ar  234   5.822   2.629   4.412
    1   AR   Ar  235   6.422   0.108   3.665
    1   AR   Ar  236   5.031   5.605   5.008
    1   AR   Ar  237   4.990   2.378   6.842
    1   AR   Ar  238   5.619   5.448   6.337
    1   AR   Ar  239   0.664   4.705  10.353
    1   AR   Ar  240   0.971   2.131   6.940
    1   AR   Ar  241   2.433   6.375  -0.803
    1   AR   Ar  242   5.477   6.103   1.657
    1   AR   Ar  243   4.449   5.894   2.983
    1   AR   Ar  244   0.160   5.298   0.452
    1   AR   Ar  245   3.822   0.036   2.735
    1   AR   Ar  246   5.641   6.342  -0.654
    1   AR   Ar  247   6.503   3.791   1.381
    1   AR   Ar  248   4.980   6.164   0.390
    1   AR   Ar  249   4.529   6.701   1.823
    1   AR   Ar  250   4.727   6.000   4.076
    1   AR   Ar  251   4.569   4.342   4.829
    1   AR   Ar  252   3.119   4.622   2.207
    1   AR   Ar  253   6.238   2.664   6.952
    1   AR   Ar  254   4.813   1.958  10.012
    1   AR   Ar  255   3.248   5.588  10.169
    1   AR   Ar  256   6.053   5.313   3.167
    7.12000  7.12000 12.00000
Argon-slab step 4480
  256
    1   AR   Ar    1   4.943   3.244  -2.859
    1   AR   Ar    2   5.502   0.083   0.295
    1   AR   Ar    3   3.503   2.950  -1.162
    1   AR   Ar    4   1.708   1.650   0.470
    1   AR   Ar    5   6.066   5.764   0.085
    1   AR   Ar    6   1.726   1.784   1.690
    1   AR   Ar    7   5.889   4.237   3.390
    1   AR   Ar    8   5.485   2.122  -0.772
    1   AR   Ar    9   0.651   0.535   4.001
    1   AR   Ar   10   6.361   6.696   4.647
    1   AR   Ar   11   1.544   0.041   4.438
    1   AR   Ar   12   0.126   1.485   3.918
    1   AR   Ar   13   6.591   0.738   4.565
    1   AR   Ar   14   3.950   1.596   6.247
    1   AR   Ar   15   3.671   6.830   8.707
    1   AR   Ar   16   0.423   0.211   5.291
    1   AR   Ar   17   6.130   2.761   0.845
    1   AR   Ar   18   6.803   5.660  -0.935
    1   AR   Ar   19   4.421   4.378   0.317
    1   AR   Ar   20   6.642   4.408  -2.803
    1   AR   Ar   21   2.815   1.968   2.401
    1   AR   Ar   22   5.319   1.221   2.175
    1   AR   Ar   23   0.322   6.213   1.031
    1   AR   Ar   24   5.940   2.380   2.433
    1   AR   Ar   25   0.830   2.501   4.125
    1   AR   Ar   26   5.360   6.650   4.657
    1   AR   Ar   27   1.684   0.872   2.422
    1   AR   Ar   28   1.874   2.711   3.642
    1   AR   Ar   29   4.661   1.300   7.045
    1   AR   Ar   30   1.078   1.204   3.383
    1   AR   Ar   31   4.049   0.268   7.309
    1   AR   Ar   32   0.923   2.687   5.871
    1   AR   Ar   33   0.666   4.132  -0.260
    1   AR   Ar   34   0.555   4.891   2.267
    1   AR   Ar   35   5.586   4.751   2.417
    1   AR   Ar   36   6.100   2.677  -2.569
    1   AR   Ar   37   4.246   2.948   2.131
    1   AR   Ar   38   6.734   4.309   3.878
    1   AR   Ar   39   0.382   3.128   3.256
    1   AR   Ar   40   1.878   4.657   1.842
    1   AR   Ar   41   0.599   2.253   2.732
    1   AR   Ar   42   6.166   5.685   5.183
    1   AR   Ar   43   6.851   2.516   5.986
    1   AR   Ar   44   0.562   4.219   3.249
    1   AR   Ar   45   0.151   3.664   5.752
    1   AR   Ar   46   0.652   4.514   6.193
    1   AR   Ar   47   3.788   5.595   7.452
    1   AR   Ar   48   5.667   3.668   7.561
    1   AR   Ar   49   6.371   0.105  -0.910
    1   AR   Ar   50   3.370   5.377   0.276
    1   AR   Ar   51   5.663   3.627   2.504
    1   AR   Ar   52   4.870   2.998  -1.451
    1   AR   Ar   53   5.417   0.037   2.382
    1   AR   Ar   54   0.346   0.266   2.116
    1   AR   Ar   55   6.607   4.141   2.558
    1   AR   Ar   56   7.019   1.244   2.774
    1   AR   Ar   57   3.931   4.168   3.043
    1   AR   Ar   58   0.353   3.581   4.459
    1   AR   Ar   59   2.735   5.391   5.826
    1   AR   Ar   60   7.075   5.047   3.146
    1   AR   Ar   61   6.760   3.910   7.152
    1   AR   Ar   62   6.676   4.404   5.004
    1   AR   Ar   63   1.993   2.594   6.952
    1   AR   Ar   64   0.107   5.247   5.095
    1   AR   Ar   65   3.586   0.074   1.764
    1   AR   Ar   66   0.917   0.964   1.032
    1   AR   Ar   67   5.134   0.548  -0.638
    1   AR   Ar   68   1.154   1.281  -0.612
    1   AR   Ar   69   3.386   0.992   0.405
    1   AR   Ar   70   0.609   1.253   1.984
    1   AR   Ar   71   2.811   0.604   2.739
    1   AR   Ar   72   4.443   1.081   1.568
    1   AR   Ar   73   3.496   0.489   3.723
    1   AR   Ar   74   0.861   1.332   4.659
    1   AR   Ar   75   3.266   0.749   4.864
    1   AR   Ar   76   2.326   0.807   1.217
    1   AR   Ar   77   1.561   0.295   5.667
    1   AR   Ar   78   6.878   5.418   6.215
    1   AR   Ar   79   3.487   6.581   6.357
    1   AR   Ar   80   3.798   5.539   5.347
    1   AR   Ar   81   1.171   6.807   1.172
    1   AR   Ar   82   6.512   4.467   0.587
    1   AR   Ar   83   0.964   3.089  -0.190
    1   AR   Ar   84   1.264   4.240   0.787
    1   AR   Ar   85   2.489   3.403   0.088
    1   AR   Ar   86   1.892   5.398   0.833
    1   AR   Ar   87   3.089   3.447   2.204
    1   AR   Ar   88   3.186   5.338   1.428
    1   AR   Ar   89   7.015   2.062   0.823
    1   AR   Ar   90   3.397   1.733   5.276
    1   AR   Ar   91   1.535   1.921   2.830
    1   AR   Ar   92   1.485   3.719   1.961
    1   AR   Ar   93   1.863   1.413   6.045
    1   AR   Ar   94   0.981   6.874   9.082
    1   AR   Ar   95   4.473   1.399   5.316
    1   AR   Ar   96   2.846   6.997   4.270
    1   AR   Ar   97   3.448   1.584  -0.699
    1   AR   Ar   98   1.894   4.446   4.161
    1   AR   Ar   99   6.637   1.738  -0.157
    1   AR   Ar  100   0.014   3.306  -2.395
    1   AR   Ar  101   3.725   5.471   2.426
    1   AR   Ar  102   3.920   1.352   3.131
    1   AR   Ar  103   2.383   4.283   0.880
    1   AR   Ar  104   3.349   5.627  -0.941
    1   AR   Ar  105   2.321   1.335   3.780
    1   AR   Ar  106   3.823   2.664   5.756
    1   AR   Ar  107   1.238   4.691   5.014
    1   AR   Ar  108   2.335   1.240   4.792
    1   AR   Ar  109   1.522   3.077   4.860
    1   AR   Ar  110   2.641   2.332   4.600
    1   AR   Ar  111   4.621   6.338   7.579
    1   AR   Ar  112   0.325   6.504   5.897
    1   AR   Ar  113   3.433   4.349  -0.849
    1   AR   Ar  114   2.666   0.013  -1.635
    1   AR   Ar  115   1.916   4.873  -0.039
    1   AR   Ar  116   4.668   0.797   0.419
    1   AR   Ar  117   0.323   5.014   4.155
    1   AR   Ar  118   1.064   5.368   3.561
    1   AR   Ar  119   2.105   4.070   2.786
    1   AR   Ar  120   1.389   6.889   2.378
    1   AR   Ar  121   5.426   4.323   5.511
    1   AR   Ar  122   3.193   5.798   4.074
    1   AR   Ar  123   2.866   3.211   5.295
    1   AR   Ar  124   1.064   5.390   1.375
    1   AR   Ar  125   6.531   3.261   4.801
    1   AR   Ar  126   7.066   0.467   6.330
    1   AR   Ar  127   4.565   3.242   6.277
    1   AR   Ar  128   2.953   3.425   7.330
    1   AR   Ar  129   1.982   5.580   4.429
    1   AR   Ar  130   4.555   1.254  -4.352
    1   AR   Ar  131   4.596   5.024  -2.529
    1   AR   Ar  132   0.639   1.743   0.224
    1   AR   Ar  133   4.321   0.349   4.626
    1   AR   Ar  134   3.630   1.435   4.204
    1   AR   Ar  135   6.043   1.494   3.713
    1   AR   Ar  136   6.424   0.090   2.313
    1   AR   Ar  137   2.994   4.384   6.090
    1   AR   Ar  138   5.275   1.769   5.890
    1   AR   Ar  139   5.836   2.734   5.487
    1   AR   Ar  140   4.175   6.592   5.195
    1   AR   Ar  141   3.948   5.097   4.264
    1   AR   Ar  142   4.929   0.267   6.875
    1   AR   Ar  143   5.987   6.721   6.536
    1   AR   Ar  144   6.551   1.986   5.126
    1   AR   Ar  145   4.151   5.108  -0.645
    1   AR   Ar  146   3.792   2.402   2.846
    1   AR   Ar  147   4.903   3.612  -0.449
    1   AR   Ar  148   3.577   6.642  -1.206
    1   AR   Ar  149   2.620   0.509  -0.558
    1   AR   Ar  150   2.252   2.763   2.748
    1   AR   Ar  151   3.016   2.274   3.545
    1   AR   Ar  152   1.056   2.515  -1.756
    1   AR   Ar  153   5.113   0.327   3.891
    1   AR   Ar  154   4.366   2.237   3.865
    1   AR   Ar  155   6.192   3.674   5.860
    1   AR   Ar  156   2.870   4.286   3.379
    1   AR   Ar  157   1.638   4.902   6.740
    1   AR   Ar  158   0.562   1.625   5.899
    1   AR   Ar  159   4.034   0.508   5.929
    1   AR   Ar  160   1.544   1.878   5.153
    1   AR   Ar  161   4.995   4.723   3.348
    1   AR   Ar  162   4.143   6.108  -0.360
    1   AR   Ar  163   5.641   4.825   1.038
    1   AR   Ar  164   1.665   5.891   2.160
    1   AR   Ar  165   3.420   4.052   0.737
    1   AR   Ar  166   2.707   3.518   4.077
    1   AR   Ar  167   5.949   6.433   3.208
    1   AR   Ar  168   5.354   4.053  -1.600
    1   AR   Ar  169   3.418   3.277   3.283
    1   AR   Ar  170   2.012   3.205   6.046
    1   AR   Ar  171   5.679   4.719   4.499
    1   AR   Ar  172   3.707   3.893   5.336
    1   AR   Ar  173   2.557   2.288   5.686
    1   AR   Ar  174   2.908   6.292   5.092
    1   AR   Ar  175   2.909   1.034   5.988
    1   AR   Ar  176   3.581   3.038   4.494
    1   AR   Ar  177   1.287   4.993  -1.011
    1   AR   Ar  178   2.538   6.006   0.325
    1   AR   Ar  179   3.270   6.987   0.321
    1   AR   Ar  180   4.989   1.641  -6.140
    1   AR   Ar  181   7.023   5.502   1.717
    1   AR   Ar  182   0.689   6.008   2.567
    1   AR   Ar  183   4.757   5.365   1.722
    1   AR   Ar  184   4.252   6.808   0.608
    1   AR   Ar  185   2.990   4.809   4.759
    1   AR   Ar  186   2.190   5.410   3.392
    1   AR   Ar  187   3.815   6.651   3.764
    1   AR   Ar  188   2.482   6.704   2.378
    1   AR   Ar  189   5.403   3.752   6.556
    1   AR   Ar  190   2.618   6.416   3.460
    1   AR   Ar  191   3.274   6.670   7.504
    1   AR   Ar  192   4.734   4.901   6.210
    1   AR   Ar  193   2.158   6.615   1.276
    1   AR   Ar  194   5.320   4.672  -0.841
    1   AR   Ar  195   5.528   1.392   0.804
    1   AR   Ar  196   3.747   0.487  -0.409
    1   AR   Ar  197   4.175   2.406   0.682
    1   AR   Ar  198   5.586   0.433   1.335
    1   AR   Ar  199   1.877   0.382   3.410
    1   AR   Ar  200   4.967   3.060   0.475
    1   AR   Ar  201   6.638   5.972   2.562
    1   AR   Ar  202   5.281   0.706   5.059
    1   AR   Ar  203   7.094   6.495   3.343
    1   AR   Ar  204   4.680   6.082   6.127
    1   AR   Ar  205   6.716   1.738   1.909
    1   AR   Ar  206   6.315   0.761   5.557
    1   AR   Ar  207   0.197   2.626   5.043
    1   AR   Ar  208   0.915   5.780   4.563
    1   AR   Ar  209   0.088   2.138  -2.350
    1   AR   Ar  210   1.768   7.085   0.392
    1   AR   Ar  211   0.366   3.303   0.778
    1   AR   Ar  212   5.968   3.729   0.204
    1   AR   Ar  213   3.514   1.714   1.625
    1   AR   Ar  214   4.733   4.055   2.190
    1   AR   Ar  215   6.726   3.022   2.248
    1   AR   Ar  216   1.350   2.798   0.966
    1   AR   Ar  217   5.105   1.940   3.007
    1   AR   Ar  218   4.977   3.245   4.324
    1   AR   Ar  219   4.593   3.316   3.153
    1   AR   Ar  220   4.431   3.904   1.200
    1   AR   Ar  221   6.554   5.517   4.298
    1   AR   Ar  222   5.234   6.954   5.761
    1   AR   Ar  223   6.441   1.415   6.436
    1   AR   Ar  224   4.907   2.519   5.300
    1   AR   Ar  225   6.362   3.250   3.230
    1   AR   Ar  226   1.401   3.403   3.093
    1   AR   Ar  227   0.543   3.465   2.160
    1   AR   Ar  228   6.882   0.643   1.099
    1   AR   Ar  229   6.357   4.580  -1.114
    1   AR   Ar  230   3.644   4.057   4.226
    1   AR   Ar  231   4.428   1.989   2.044
    1   AR   Ar  232   5.214   2.998   1.686
    1   AR   Ar  233   6.844   2.382   3.949
    1   AR   Ar  234   5.831   2.657   4.403
    1   AR   Ar  235   6.481   0.059   3.643
    1   AR   Ar  236   5.021   5.640   4.989
    1   AR   Ar  237   4.974   2.360   6.854
    1   AR   Ar  238   5.619   5.470   6.366
    1   AR   Ar  239   0.649   4.665  10.375
    1   AR   Ar  240   0.972   2.132   6.927
    1   AR   Ar  241   2.415   6.423  -0.830
    1   AR   Ar  242   5.482   6.133   1.652
    1   AR   Ar  243   4.493   5.900   2.985
    1   AR   Ar  244   0.139   5.316   0.460
    1   AR   Ar  245   3.819   0.036   2.762
    1   AR   Ar  246   5.642   6.353  -0.665
    1   AR   Ar  247   6.522   3.776   1.375
    1   AR   Ar  248   4.977   6.158   0.396
    1   AR   Ar  249   4.566   6.704   1.815
    1   AR   Ar  250   4.750   5.996   4.061
    1   AR   Ar  251   4.591   4.377   4.828
    1   AR   Ar  252   3.111   4.624   2.199
    1   AR   Ar  253   6.247   2.655   6.969
    1   AR   Ar  254   4.814   1.945  10.008
    1   AR   Ar  255   3.280   5.593  10.143
    1   AR   Ar  256   6.033   5.314   3.179
    7.12000  7.12000 12.00000
Argon-slab step 4485
  256
    1   AR   Ar    1   4.910   3.269  -2.833
    1   AR   Ar    2   5.506   0.075   0.286
    1   AR   Ar    3   3.501   2.988  -1.151
    1   AR   Ar    4   1.697   1.632   0.498
    1   AR   Ar    5   6.056   5.743   0.074
    1   AR   Ar    6   1.749   1.780   1.718
    1   AR   Ar    7   5.867   4.233   3.357
    1   AR   Ar    8   5.523   2.161  -0.788
    1   AR   Ar    9   0.657   0.556   4.011
    1   AR   Ar   10   6.330   6.693   4.643
    1   AR   Ar   11   1.540   0.036   4.470
    1   AR   Ar   12   0.126   1.442   3.918
    1   AR   Ar   13   6.611   0.735   4.564
    1   AR   Ar   14   3.951   1.584   6.235
    1   AR   Ar   15   3.662   6.849   8.740
    1   AR   Ar   16   0.387   0.204   5.312
    1   AR   Ar   17   6.141   2.782   0.864
    1   AR   Ar   18   6.777   5.654  -0.983
    1   AR   Ar   19   4.462   4.398   0.293
    1   AR   Ar   20   6.652   4.421  -2.813
    1   AR   Ar   21   2.827   1.967   2.409
    1   AR   Ar   22   5.334   1.235   2.156
    1   AR   Ar   23   0.322   6.195   1.040
    1   AR   Ar   24   5.953   2.350   2.438
    1   AR   Ar   25   0.842   2.478   4.109
    1   AR   Ar   26   5.354   6.691   4.640
    1   AR   Ar   27   1.712   0.888   2.420
    1   AR   Ar   28   1.881   2.699   3.648
    1   AR   Ar   29   4.661   1.291   7.059
    1   AR   Ar   30   1.057   1.240   3.383
    1   AR   Ar   31   4.046   0.271   7.310
    1   AR   Ar   32   0.920   2.706   5.878
    1   AR   Ar   33   0.672   4.138  -0.269
    1   AR   Ar   34   0.587   4.871   2.276
    1   AR   Ar   35   5.570   4.755   2.436
    1   AR   Ar   36   6.117   2.662  -2.588
    1   AR   Ar   37   4.248   2.988   2.143
    1   AR   Ar   38   6.744   4.313   3.908
    1   AR   Ar   39   0.381   3.117   3.267
    1   AR   Ar   40   1.865   4.657   1.849
    1   AR   Ar   41   0.614   2.245   2.707
    1   AR   Ar   42   6.139   5.712   5.184
    1   AR   Ar   43   6.871   2.514   5.999
    1   AR   Ar   44   0.578   4.183   3.260
    1   AR   Ar   45   0.144   3.690   5.759
    1   AR   Ar   46   0.629   4.494   6.215
    1   AR   Ar   47   3.794   5.560   7.463
    1   AR   Ar   48   5.655   3.647   7.574
    1   AR   Ar   49   6.360   0.100  -0.922
    1   AR   Ar   50   3.374   5.385   0.305
    1   AR   Ar   51   5.675   3.660   2.501
    1   AR   Ar   52   4.877   2.986  -1.465
    1   AR   Ar   53   5.428   0.059   2.389
    1   AR   Ar   54   0.309   0.277   2.127
    1   AR   Ar   55   6.603   4.154   2.571
    1   AR   Ar   56   6.973   1.249   2.785
    1   AR   Ar   57   3.917   4.160   3.043
    1   AR   Ar   58   0.330   3.598   4.470
    1   AR   Ar   59   2.752   5.399   5.811
    1   AR   Ar   60   7.067   5.083   3.170
    1   AR   Ar   61   6.774   3.914   7.137
    1   AR   Ar   62   6.687   4.404   5.036
    1   AR   Ar   63   2.025   2.630   6.965
    1   AR   Ar   64   0.156   5.252   5.116
    1   AR   Ar   65   3.577   0.078   1.797
    1   AR   Ar   66   0.937   0.933   1.037
    1   AR   Ar   67   5.129   0.539  -0.630
    1   AR   Ar   68   1.128   1.277  -0.620
    1   AR   Ar   69   3.386   0.973   0.385
    1   AR   Ar   70   0.630   1.260   1.959
    1   AR   Ar   71   2.814   0.595   2.767
    1   AR   Ar   72   4.429   1.097   1.578
    1   AR   Ar   73   3.478   0.499   3.728
    1   AR   Ar   74   0.876   1.357   4.619
    1   AR   Ar   75   3.273   0.727   4.881
    1   AR   Ar   76   2.319   0.779   1.217
    1   AR   Ar   77   1.589   0.284   5.673
    1   AR   Ar   78   6.897   5.412   6.239
    1   AR   Ar   79   3.458   6.595   6.340
    1   AR   Ar   80   3.783   5.532   5.333
    1   AR   Ar   81   1.181   6.800   1.193
    1   AR   Ar   82   6.509   4.498   0.591
    1   AR   Ar   83   0.965   3.089  -0.175
    1   AR   Ar   84   1.265   4.202   0.798
    1   AR   Ar   85   2.507   3.413   0.068
    1   AR   Ar   86   1.902   5.411   0.823
    1   AR   Ar   87   3.120   3.469   2.190
    1   AR   Ar   88   3.198   5.349   1.433
    1   AR   Ar   89   6.993   2.060   0.821
    1   AR   Ar   90   3.400   1.738   5.292
    1   AR   Ar   91   1.510   1.895   2.818
    1   AR   Ar   92   1.531   3.727   1.978
    1   AR   Ar   93   1.873   1.411   6.053
    1   AR   Ar   94   0.998   6.834   9.060
    1   AR   Ar   95   4.459   1.376   5.333
    1   AR   Ar   96   2.839   6.993   4.269
    1   AR   Ar   97   3.459   1.619  -0.701
    1   AR   Ar   98   1.875   4.442   4.175
    1   AR   Ar   99   6.590   1.715  -0.192
    1   AR   Ar  100   0.013   3.301  -2.418
    1   AR   Ar  101   3.763   5.523   2.415
    1   AR   Ar  102   3.932   1.373   3.150
    1   AR   Ar  103   2.395   4.304   0.858
    1   AR   Ar  104   3.348   5.642  -0.954
    1   AR   Ar  105   2.311   1.343   3.786
    1   AR   Ar  106   3.819   2.640   5.747
    1   AR   Ar  107   1.216   4.717   5.025
    1   AR   Ar  108   2.317   1.269   4.760
    1   AR   Ar  109   1.535   3.059   4.858
    1   AR   Ar  110   2.660   2.318   4.568
    1   AR   Ar  111   4.630   6.327   7.546
    1   AR   Ar  112   0.321   6.512   5.895
    1   AR   Ar  113   3.414   4.380  -0.840
    1   AR   Ar  114   2.675   0.026  -1.604
    1   AR   Ar  115   1.915   4.877  -0.029
    1   AR   Ar  116   4.682   0.783   0.476
    1   AR   Ar  117   0.315   5.006   4.158
    1   AR   Ar  118   1.081   5.393   3.546
    1   AR   Ar  119   2.096   4.076   2.776
    1   AR   Ar  120   1.388   6.856   2.385
    1   AR   Ar  121   5.427   4.330   5.547
    1   AR   Ar  122   3.202   5.785   4.051
    1   AR   Ar  123   2.890   3.226   5.295
    1   AR   Ar  124   1.070   5.418   1.359
    1   AR   Ar  125   6.552   3.289   4.777
    1   AR   Ar  126   7.057   0.491   6.363
    1   AR   Ar  127   4.599   3.236   6.271
    1   AR   Ar  128   2.963   3.447   7.354
    1   AR   Ar  129   1.996   5.585   4.447
    1   AR   Ar  130   4.542   1.249  -4.380
    1   AR   Ar  131   4.576   5.039  -2.515
    1   AR   Ar  132   0.650   1.733   0.228
    1   AR   Ar  133   4.320   0.340   4.635
    1   AR   Ar  134   3.624   1.447   4.201
    1   AR   Ar  135   6.016   1.474   3.695
    1   AR   Ar  136   6.429   0.099   2.354
    1   AR   Ar  137   3.003   4.419   6.084
    1   AR   Ar  138   5.302   1.781   5.837
    1   AR   Ar  139   5.872   2.726   5.483
    1   AR   Ar  140   4.171   6.604   5.154
    1   AR   Ar  141   3.920   5.088   4.226
    1   AR   Ar  142   4.921   0.255   6.864
    1   AR   Ar  143   5.958   6.731   6.510
    1   AR   Ar  144   6.545   1.984   5.083
    1   AR   Ar  145   4.141   5.083  -0.632
    1   AR   Ar  146   3.779   2.413   2.865
    1   AR   Ar  147   4.920   3.639  -0.473
    1   AR   Ar  148   3.561   6.670  -1.180
    1   AR   Ar  149   2.603   0.444  -0.553
    1   AR   Ar  150   2.220   2.766   2.738
    1   AR   Ar  151   3.004   2.290   3.537
    1   AR   Ar  152   1.049   2.515  -1.778
    1   AR   Ar  153   5.113   0.323   3.871
    1   AR   Ar  154   4.375   2.178   3.881
    1   AR   Ar  155   6.162   3.681   5.862
    1   AR   Ar  156   2.882   4.295   3.361
    1   AR   Ar  157   1.648   4.927   6.722
    1   AR   Ar  158   0.567   1.614   5.897
    1   AR   Ar  159   3.995   0.525   5.951
    1   AR   Ar  160   1.538   1.903   5.150
    1   AR   Ar  161   5.001   4.678   3.328
    1   AR   Ar  162   4.146   6.104  -0.339
    1   AR   Ar  163   5.648   4.814   1.027
    1   AR   Ar  164   1.677   5.904   2.139
    1   AR   Ar  165   3.425   4.052   0.777
    1   AR   Ar  166   2.726   3.513   4.090
    1   AR   Ar  167   5.963   6.449   3.210
    1   AR   Ar  168   5.339   4.029  -1.619
    1   AR   Ar  169   3.428   3.300   3.288
    1   AR   Ar  170   2.009   3.207   6.070
    1   AR   Ar  171   5.664   4.719   4.502
    1   AR   Ar  172   3.751   3.889   5.333
    1   AR   Ar  173   2.557   2.262   5.687
    1   AR   Ar  174   2.952   6.282   5.076
    1   AR   Ar  175   2.930   1.036   5.994
    1   AR   Ar  176   3.587   3.009   4.445
    1   AR   Ar  177   1.271   4.989  -1.041
    1   AR   Ar  178   2.524   5.997   0.320
    1   AR   Ar  179   3.274   6.990   0.350
    1   AR   Ar  180   4.956   1.664  -6.152
    1   AR   Ar  181   7.030   5.505   1.730
    1   AR   Ar  182   0.688   6.016   2.526
    1   AR   Ar  183   4.771   5.383   1.685
    1   AR   Ar  184   4.231   6.813   0.570
    1   AR   Ar  185   3.022   4.816   4.771
    1   AR   Ar  186   2.214   5.432   3.412
    1   AR   Ar  187   3.811   6.656   3.726
    1   AR   Ar  188   2.499   6.686   2.368
    1   AR   Ar  189   5.394   3.749   6.565
    1   AR   Ar  190   2.619   6.425   3.450
    1   AR   Ar  191   3.303   6.697   7.477
    1   AR   Ar  192   4.770   4.878   6.195
    1   AR   Ar  193   2.169   6.620   1.250
    1   AR   Ar  194   5.328   4.651  -0.823
    1   AR   Ar  195   5.505   1.371   0.795
    1   AR   Ar  196   3.786   0.480  -0.385
    1   AR   Ar  197   4.177   2.406   0.686
    1   AR   Ar  198   5.606   0.452   1.327
    1   AR   Ar  199   1.861   0.414   3.410
    1   AR   Ar  200   5.001   3.038   0.475
    1   AR   Ar  201   6.651   5.981   2.552
    1   AR   Ar  202   5.289   0.703   5.057
    1   AR   Ar  203   0.007   6.493   3.340
    1   AR   Ar  204   4.684   6.063   6.138
    1   AR   Ar  205   6.677   1.744   1.901
    1   AR   Ar  206   6.289   0.757   5.592
    1   AR   Ar  207   0.185   2.620   5.042
    1   AR   Ar  208   0.954   5.841   4.549
    1   AR   Ar  209   0.076   2.147  -2.360
    1   AR   Ar  210   1.785   7.110   0.392
    1   AR   Ar  211   0.376   3.291   0.794
    1   AR   Ar  212   5.989   3.773   0.187
    1   AR   Ar  213   3.491   1.726   1.647
    1   AR   Ar  214   4.696   4.055   2.183
    1   AR   Ar  215   6.735   3.047   2.215
    1   AR   Ar  216   1.333   2.827   0.994
    1   AR   Ar  217   5.122   1.928   2.965
    1   AR   Ar  218   4.973   3.240   4.326
    1   AR   Ar  219   4.638   3.306   3.135
    1   AR   Ar  220   4.438   3.870   1.211
    1   AR   Ar  221   6.560   5.547   4.321
    1   AR   Ar  222   5.254   6.975   5.784
    1   AR   Ar  223   6.479   1.431   6.435
    1   AR   Ar  224   4.894   2.503   5.329
    1   AR   Ar  225   6.379   3.220   3.244
    1   AR   Ar  226   1.422   3.409   3.095
    1   AR   Ar  227   0.563   3.438   2.154
    1   AR   Ar  228   6.903   0.658   1.090
    1   AR   Ar  229   6.356   4.568  -1.106
    1   AR   Ar  230   3.653   4.063   4.239
    1   AR   Ar  231   4.427   1.988   2.050
    1   AR   Ar  232   5.217   2.982   1.716
    1   AR   Ar  233   6.840   2.359   3.960
    1   AR   Ar  234   5.839   2.677   4.390
    1   AR   Ar  235   6.532   0.029   3.629
    1   AR   Ar  236   5.012   5.672   4.975
    1   AR   Ar  237   4.959   2.342   6.865
    1   AR   Ar  238   5.619   5.476   6.388
    1   AR   Ar  239   0.635   4.625  10.396
    1   AR   Ar  240   0.974   2.132   6.912
    1   AR   Ar  241   2.420   6.440  -0.838
    1   AR   Ar  242   5.490   6.165   1.646
    1   AR   Ar  243   4.541   5.908   2.988
    1   AR   Ar  244   0.130   5.324   0.467
    1   AR   Ar  245   3.818   0.036   2.794
    1   AR   Ar  246   5.642   6.367  -0.678
    1   AR   Ar  247   6.540   3.757   1.373
    1   AR   Ar  248   4.981   6.145   0.399
    1   AR   Ar  249   4.603   6.707   1.807
    1   AR   Ar  250   4.770   5.993   4.042
    1   AR   Ar  251   4.601   4.403   4.823
    1   AR   Ar  252   3.100   4.620   2.195
    1   AR   Ar  253   6.255   2.647   6.984
    1   AR   Ar  254   4.816   1.931  10.003
    1   AR   Ar  255   3.312   5.599  10.117
    1   AR   Ar  256   6.013   5.317   3.195
    7.12000  7.12000 12.00000
Argon-slab step 4490
  256
    1   AR   Ar    1   4.879   3.292  -2.806
    1   AR   Ar    2   5.512   0.053   0.293
    1   AR   Ar    3   3.500   3.025  -1.139
    1   AR   Ar    4   1.687   1.614   0.528
    1   AR   Ar    5   6.048   5.746   0.041
    1   AR   Ar    6   1.772   1.774   1.746
    1   AR   Ar    7   5.853   4.222   3.329
    1   AR   Ar    8   5.561   2.202  -0.804
    1   AR   Ar    9   0.660   0.564   4.024
    1   AR   Ar   10   6.328   6.708   4.642
    1   AR   Ar   11   1.536   0.031   4.503
    1   AR   Ar   12   0.125   1.392   3.917
    1   AR   Ar   13   6.632   0.731   4.560
    1   AR   Ar   14   3.952   1.574   6.225
    1   AR   Ar   15   3.653   6.868   8.772
    1   AR   Ar   16   0.352   0.207   5.328
    1   AR   Ar   17   6.136   2.779   0.874
    1   AR   Ar   18   6.751   5.649  -1.029
    1   AR   Ar   19   4.503   4.419   0.266
    1   AR   Ar   20   6.663   4.426  -2.818
    1   AR   Ar   21   2.838   1.964   2.421
    1   AR   Ar   22   5.341   1.260   2.134
    1   AR   Ar   23   0.322   6.179   1.048
    1   AR   Ar   24   5.959   2.334   2.443
    1   AR   Ar   25   0.843   2.443   4.073
    1   AR   Ar   26   5.335   6.732   4.626
    1   AR   Ar   27   1.739   0.903   2.418
    1   AR   Ar   28   1.887   2.679   3.674
    1   AR   Ar   29   4.660   1.282   7.072
    1   AR   Ar   30   1.034   1.273   3.386
    1   AR   Ar   31   4.035   0.277   7.314
    1   AR   Ar   32   0.904   2.704   5.886
    1   AR   Ar   33   0.678   4.145  -0.277
    1   AR   Ar   34   0.620   4.850   2.286
    1   AR   Ar   35   5.555   4.758   2.448
    1   AR   Ar   36   6.135   2.647  -2.606
    1   AR   Ar   37   4.247   3.037   2.153
    1   AR   Ar   38   6.752   4.312   3.938
    1   AR   Ar   39   0.378   3.106   3.281
    1   AR   Ar   40   1.856   4.668   1.852
    1   AR   Ar   41   0.615   2.240   2.679
    1   AR   Ar   42   6.107   5.741   5.199
    1   AR   Ar   43   6.890   2.512   6.015
    1   AR   Ar   44   0.594   4.148   3.271
    1   AR   Ar   45   0.136   3.710   5.761
    1   AR   Ar   46   0.612   4.475   6.234
    1   AR   Ar   47   3.801   5.526   7.472
    1   AR   Ar   48   5.645   3.624   7.588
    1   AR   Ar   49   6.347   0.095  -0.933
    1   AR   Ar   50   3.381   5.389   0.332
    1   AR   Ar   51   5.685   3.687   2.495
    1   AR   Ar   52   4.880   2.972  -1.477
    1   AR   Ar   53   5.431   0.081   2.397
    1   AR   Ar   54   0.275   0.285   2.137
    1   AR   Ar   55   6.603   4.169   2.585
    1   AR   Ar   56   6.929   1.253   2.799
    1   AR   Ar   57   3.900   4.157   3.050
    1   AR   Ar   58   0.316   3.618   4.477
    1   AR   Ar   59   2.768   5.410   5.794
    1   AR   Ar   60   7.044   5.079   3.184
    1   AR   Ar   61   6.789   3.930   7.105
    1   AR   Ar   62   6.701   4.403   5.059
    1   AR   Ar   63   2.058   2.664   6.978
    1   AR   Ar   64   0.205   5.262   5.147
    1   AR   Ar   65   3.565   0.082   1.833
    1   AR   Ar   66   0.958   0.899   1.037
    1   AR   Ar   67   5.123   0.530  -0.621
    1   AR   Ar   68   1.103   1.273  -0.629
    1   AR   Ar   69   3.386   0.995   0.364
    1   AR   Ar   70   0.652   1.273   1.941
    1   AR   Ar   71   2.816   0.586   2.796
    1   AR   Ar   72   4.412   1.108   1.580
    1   AR   Ar   73   3.448   0.518   3.731
    1   AR   Ar   74   0.891   1.383   4.582
    1   AR   Ar   75   3.281   0.702   4.900
    1   AR   Ar   76   2.314   0.793   1.235
    1   AR   Ar   77   1.617   0.274   5.677
    1   AR   Ar   78   6.925   5.422   6.248
    1   AR   Ar   79   3.430   6.609   6.323
    1   AR   Ar   80   3.769   5.525   5.318
    1   AR   Ar   81   1.184   6.796   1.218
    1   AR   Ar   82   6.520   4.538   0.596
    1   AR   Ar   83   0.961   3.093  -0.157
    1   AR   Ar   84   1.266   4.165   0.809
    1   AR   Ar   85   2.525   3.425   0.049
    1   AR   Ar   86   1.914   5.422   0.821
    1   AR   Ar   87   3.150   3.490   2.177
    1   AR   Ar   88   3.209   5.363   1.434
    1   AR   Ar   89   6.968   2.059   0.824
    1   AR   Ar   90   3.403   1.743   5.304
    1   AR   Ar   91   1.507   1.873   2.801
    1   AR   Ar   92   1.560   3.715   1.979
    1   AR   Ar   93   1.891   1.421   6.068
    1   AR   Ar   94   1.014   6.794   9.039
    1   AR   Ar   95   4.450   1.354   5.343
    1   AR   Ar   96   2.831   6.991   4.273
    1   AR   Ar   97   3.469   1.652  -0.701
    1   AR   Ar   98   1.858   4.439   4.187
    1   AR   Ar   99   6.543   1.691  -0.226
    1   AR   Ar  100   0.011   3.295  -2.442
    1   AR   Ar  101   3.798   5.573   2.402
    1   AR   Ar  102   3.943   1.394   3.168
    1   AR   Ar  103   2.405   4.326   0.837
    1   AR   Ar  104   3.342   5.658  -0.967
    1   AR   Ar  105   2.301   1.354   3.776
    1   AR   Ar  106   3.814   2.616   5.738
    1   AR   Ar  107   1.192   4.744   5.034
    1   AR   Ar  108   2.301   1.295   4.742
    1   AR   Ar  109   1.549   3.040   4.855
    1   AR   Ar  110   2.678   2.304   4.537
    1   AR   Ar  111   4.638   6.317   7.511
    1   AR   Ar  112   0.316   6.513   5.897
    1   AR   Ar  113   3.391   4.409  -0.832
    1   AR   Ar  114   2.684   0.041  -1.573
    1   AR   Ar  115   1.901   4.869  -0.031
    1   AR   Ar  116   4.692   0.765   0.532
    1   AR   Ar  117   0.316   4.995   4.158
    1   AR   Ar  118   1.100   5.419   3.528
    1   AR   Ar  119   2.091   4.087   2.761
    1   AR   Ar  120   1.386   6.831   2.392
    1   AR   Ar  121   5.426   4.339   5.580
    1   AR   Ar  122   3.207   5.774   4.030
    1   AR   Ar  123   2.913   3.241   5.294
    1   AR   Ar  124   1.065   5.446   1.350
    1   AR   Ar  125   6.566   3.320   4.759
    1   AR   Ar  126   7.050   0.514   6.395
    1   AR   Ar  127   4.625   3.224   6.260
    1   AR   Ar  128   2.973   3.468   7.378
    1   AR   Ar  129   2.013   5.589   4.465
    1   AR   Ar  130   4.529   1.245  -4.408
    1   AR   Ar  131   4.557   5.054  -2.500
    1   AR   Ar  132   0.661   1.722   0.230
    1   AR   Ar  133   4.318   0.337   4.640
    1   AR   Ar  134   3.617   1.463   4.199
    1   AR   Ar  135   5.991   1.456   3.678
    1   AR   Ar  136   6.440   0.106   2.395
    1   AR   Ar  137   3.013   4.450   6.077
    1   AR   Ar  138   5.339   1.783   5.795
    1   AR   Ar  139   5.886   2.731   5.504
    1   AR   Ar  140   4.167   6.609   5.118
    1   AR   Ar  141   3.913   5.081   4.221
    1   AR   Ar  142   4.908   0.247   6.866
    1   AR   Ar  143   5.931   6.740   6.486
    1   AR   Ar  144   6.531   1.974   5.039
    1   AR   Ar  145   4.140   5.054  -0.615
    1   AR   Ar  146   3.778   2.436   2.882
    1   AR   Ar  147   4.938   3.667  -0.498
    1   AR   Ar  148   3.545   6.700  -1.151
    1   AR   Ar  149   2.587   0.379  -0.545
    1   AR   Ar  150   2.194   2.773   2.716
    1   AR   Ar  151   2.994   2.308   3.518
    1   AR   Ar  152   1.050   2.511  -1.790
    1   AR   Ar  153   5.114   0.320   3.850
    1   AR   Ar  154   4.384   2.122   3.896
    1   AR   Ar  155   6.140   3.686   5.863
    1   AR   Ar  156   2.900   4.308   3.348
    1   AR   Ar  157   1.658   4.951   6.704
    1   AR   Ar  158   0.572   1.604   5.894
    1   AR   Ar  159   3.956   0.540   5.972
    1   AR   Ar  160   1.536   1.935   5.150
    1   AR   Ar  161   4.991   4.641   3.311
    1   AR   Ar  162   4.147   6.105  -0.316
    1   AR   Ar  163   5.649   4.806   1.019
    1   AR   Ar  164   1.694   5.911   2.115
    1   AR   Ar  165   3.432   4.052   0.816
    1   AR   Ar  166   2.740   3.507   4.104
    1   AR   Ar  167   5.969   6.459   3.209
    1   AR   Ar  168   5.324   3.999  -1.643
    1   AR   Ar  169   3.440   3.314   3.291
    1   AR   Ar  170   2.006   3.208   6.090
    1   AR   Ar  171   5.651   4.719   4.505
    1   AR   Ar  172   3.775   3.885   5.338
    1   AR   Ar  173   2.554   2.235   5.689
    1   AR   Ar  174   2.997   6.270   5.060
    1   AR   Ar  175   2.951   1.045   5.996
    1   AR   Ar  176   3.595   2.975   4.396
    1   AR   Ar  177   1.254   4.985  -1.070
    1   AR   Ar  178   2.514   5.993   0.309
    1   AR   Ar  179   3.266   6.992   0.376
    1   AR   Ar  180   4.924   1.687  -6.164
    1   AR   Ar  181   7.038   5.504   1.738
    1   AR   Ar  182   0.684   6.023   2.486
    1   AR   Ar  183   4.783   5.399   1.650
    1   AR   Ar  184   4.214   6.822   0.536
    1   AR   Ar  185   3.052   4.824   4.784
    1   AR   Ar  186   2.238   5.452   3.430
    1   AR   Ar  187   3.809   6.654   3.692
    1   AR   Ar  188   2.516   6.668   2.358
    1   AR   Ar  189   5.374   3.766   6.565
    1   AR   Ar  190   2.617   6.435   3.433
    1   AR   Ar  191   3.329   6.719   7.452
    1   AR   Ar  192   4.803   4.854   6.179
    1   AR   Ar  193   2.189   6.622   1.226
    1   AR   Ar  194   5.331   4.633  -0.806
    1   AR   Ar  195   5.483   1.353   0.787
    1   AR   Ar  196   3.831   0.469  -0.368
    1   AR   Ar  197   4.183   2.399   0.692
    1   AR   Ar  198   5.625   0.470   1.321
    1   AR   Ar  199   1.846   0.444   3.409
    1   AR   Ar  200   5.038   3.018   0.476
    1   AR   Ar  201   6.663   5.991   2.543
    1   AR   Ar  202   5.298   0.699   5.054
    1   AR   Ar  203   0.060   6.472   3.330
    1   AR   Ar  204   4.687   6.044   6.148
    1   AR   Ar  205   6.638   1.749   1.889
    1   AR   Ar  206   6.262   0.751   5.628
    1   AR   Ar  207   0.187   2.619   5.038
    1   AR   Ar  208   0.992   5.902   4.536
    1   AR   Ar  209   0.061   2.153  -2.365
    1   AR   Ar  210   1.806   0.019   0.387
    1   AR   Ar  211   0.385   3.280   0.811
    1   AR   Ar  212   6.002   3.806   0.166
    1   AR   Ar  213   3.468   1.735   1.665
    1   AR   Ar  214   4.659   4.056   2.182
    1   AR   Ar  215   6.740   3.072   2.182
    1   AR   Ar  216   1.318   2.854   1.023
    1   AR   Ar  217   5.136   1.917   2.927
    1   AR   Ar  218   4.968   3.233   4.330
    1   AR   Ar  219   4.683   3.296   3.116
    1   AR   Ar  220   4.443   3.832   1.220
    1   AR   Ar  221   6.568   5.575   4.329
    1   AR   Ar  222   5.269   6.998   5.802
    1   AR   Ar  223   6.516   1.449   6.434
    1   AR   Ar  224   4.865   2.496   5.348
    1   AR   Ar  225   6.397   3.189   3.260
    1   AR   Ar  226   1.431   3.414   3.096
    1   AR   Ar  227   0.583   3.411   2.149
    1   AR   Ar  228   6.919   0.684   1.099
    1   AR   Ar  229   6.356   4.555  -1.098
    1   AR   Ar  230   3.635   4.086   4.261
    1   AR   Ar  231   4.431   1.988   2.061
    1   AR   Ar  232   5.222   2.966   1.745
    1   AR   Ar  233   6.832   2.346   3.972
    1   AR   Ar  234   5.847   2.690   4.373
    1   AR   Ar  235   6.570   0.029   3.629
    1   AR   Ar  236   5.003   5.701   4.969
    1   AR   Ar  237   4.944   2.325   6.873
    1   AR   Ar  238   5.621   5.479   6.406
    1   AR   Ar  239   0.621   4.585  10.417
    1   AR   Ar  240   0.975   2.132   6.894
    1   AR   Ar  241   2.441   6.436  -0.833
    1   AR   Ar  242   5.503   6.198   1.640
    1   AR   Ar  243   4.591   5.918   2.992
    1   AR   Ar  244   0.128   5.324   0.473
    1   AR   Ar  245   3.818   0.037   2.828
    1   AR   Ar  246   5.640   6.384  -0.691
    1   AR   Ar  247   6.557   3.736   1.372
    1   AR   Ar  248   4.994   6.137   0.399
    1   AR   Ar  249   4.636   6.711   1.798
    1   AR   Ar  250   4.788   5.991   4.017
    1   AR   Ar  251   4.592   4.417   4.814
    1   AR   Ar  252   3.088   4.613   2.193
    1   AR   Ar  253   6.260   2.643   6.991
    1   AR   Ar  254   4.817   1.918   9.999
    1   AR   Ar  255   3.345   5.604  10.091
    1   AR   Ar  256   5.993   5.322   3.216
    7.12000  7.12000 12.00000
Argon-slab step 4495
  256
    1   AR   Ar    1   4.848   3.316  -2.777
    1   AR   Ar    2   5.518   0.029   0.300
    1   AR   Ar    3   3.500   3.063  -1.127
    1   AR   Ar    4   1.678   1.595   0.560
    1   AR   Ar    5   6.041   5.746   0.011
    1   AR   Ar    6   1.795   1.769   1.771
    1   AR   Ar    7   5.856   4.207   3.312
    1   AR   Ar    8   5.599   2.243  -0.819
    1   AR   Ar    9   0.665   0.552   4.038
    1   AR   Ar   10   6.339   6.728   4.643
    1   AR   Ar   11   1.533   0.026   4.536
    1   AR   Ar   12   0.112   1.349   3.910
    1   AR   Ar   13   6.653   0.727   4.557
    1   AR   Ar   14   3.952   1.567   6.220
    1   AR   Ar   15   3.644   6.886   8.802
    1   AR   Ar   16   0.316   0.220   5.336
    1   AR   Ar   17   6.128   2.765   0.874
    1   AR   Ar   18   6.722   5.643  -1.074
    1   AR   Ar   19   4.544   4.441   0.237
    1   AR   Ar   20   6.673   4.419  -2.813
    1   AR   Ar   21   2.844   1.961   2.440
    1   AR   Ar   22   5.351   1.283   2.109
    1   AR   Ar   23   0.322   6.168   1.057
    1   AR   Ar   24   5.957   2.340   2.446
    1   AR   Ar   25   0.844   2.407   4.038
    1   AR   Ar   26   5.304   6.774   4.614
    1   AR   Ar   27   1.766   0.916   2.414
    1   AR   Ar   28   1.894   2.655   3.711
    1   AR   Ar   29   4.658   1.273   7.084
    1   AR   Ar   30   1.007   1.299   3.394
    1   AR   Ar   31   4.022   0.291   7.322
    1   AR   Ar   32   0.870   2.672   5.895
    1   AR   Ar   33   0.685   4.153  -0.283
    1   AR   Ar   34   0.655   4.829   2.297
    1   AR   Ar   35   5.539   4.762   2.451
    1   AR   Ar   36   6.153   2.633  -2.624
    1   AR   Ar   37   4.244   3.091   2.162
    1   AR   Ar   38   6.752   4.303   3.966
    1   AR   Ar   39   0.373   3.094   3.296
    1   AR   Ar   40   1.849   4.688   1.852
    1   AR   Ar   41   0.601   2.240   2.648
    1   AR   Ar   42   6.070   5.770   5.223
    1   AR   Ar   43   6.908   2.510   6.033
    1   AR   Ar   44   0.599   4.159   3.250
    1   AR   Ar   45   0.124   3.723   5.759
    1   AR   Ar   46   0.618   4.453   6.238
    1   AR   Ar   47   3.807   5.494   7.482
    1   AR   Ar   48   5.647   3.614   7.599
    1   AR   Ar   49   6.333   0.089  -0.943
    1   AR   Ar   50   3.392   5.392   0.358
    1   AR   Ar   51   5.690   3.706   2.481
    1   AR   Ar   52   4.864   2.945  -1.481
    1   AR   Ar   53   5.427   0.102   2.405
    1   AR   Ar   54   0.250   0.293   2.145
    1   AR   Ar   55   6.611   4.185   2.597
    1   AR   Ar   56   6.886   1.255   2.816
    1   AR   Ar   57   3.893   4.163   3.053
    1   AR   Ar   58   0.319   3.643   4.479
    1   AR   Ar   59   2.783   5.427   5.775
    1   AR   Ar   60   7.010   5.048   3.189
    1   AR   Ar   61   6.803   3.939   7.081
    1   AR   Ar   62   6.721   4.405   5.067
    1   AR   Ar   63   2.090   2.696   6.994
    1   AR   Ar   64   0.254   5.276   5.183
    1   AR   Ar   65   3.552   0.086   1.862
    1   AR   Ar   66   0.951   0.897   1.042
    1   AR   Ar   67   5.117   0.520  -0.611
    1   AR   Ar   68   1.079   1.268  -0.639
    1   AR   Ar   69   3.384   1.045   0.344
    1   AR   Ar   70   0.673   1.291   1.928
    1   AR   Ar   71   2.818   0.577   2.824
    1   AR   Ar   72   4.395   1.110   1.576
    1   AR   Ar   73   3.418   0.542   3.734
    1   AR   Ar   74   0.909   1.410   4.550
    1   AR   Ar   75   3.288   0.676   4.921
    1   AR   Ar   76   2.309   0.807   1.253
    1   AR   Ar   77   1.645   0.265   5.680
    1   AR   Ar   78   6.953   5.432   6.256
    1   AR   Ar   79   3.404   6.623   6.304
    1   AR   Ar   80   3.758   5.518   5.303
    1   AR   Ar   81   1.180   6.793   1.246
    1   AR   Ar   82   6.542   4.583   0.602
    1   AR   Ar   83   0.941   3.116  -0.133
    1   AR   Ar   84   1.268   4.128   0.821
    1   AR   Ar   85   2.543   3.438   0.031
    1   AR   Ar   86   1.927   5.427   0.831
    1   AR   Ar   87   3.179   3.506   2.171
    1   AR   Ar   88   3.219   5.377   1.434
    1   AR   Ar   89   6.941   2.058   0.829
    1   AR   Ar   90   3.406   1.745   5.311
    1   AR   Ar   91   1.528   1.860   2.777
    1   AR   Ar   92   1.576   3.684   1.967
    1   AR   Ar   93   1.911   1.434   6.084
    1   AR   Ar   94   1.031   6.754   9.017
    1   AR   Ar   95   4.464   1.339   5.342
    1   AR   Ar   96   2.822   6.991   4.282
    1   AR   Ar   97   3.480   1.684  -0.701
    1   AR   Ar   98   1.842   4.436   4.198
    1   AR   Ar   99   6.496   1.667  -0.259
    1   AR   Ar  100   0.009   3.289  -2.465
    1   AR   Ar  101   3.830   5.621   2.387
    1   AR   Ar  102   3.954   1.413   3.184
    1   AR   Ar  103   2.412   4.351   0.816
    1   AR   Ar  104   3.331   5.674  -0.979
    1   AR   Ar  105   2.293   1.368   3.750
    1   AR   Ar  106   3.810   2.594   5.729
    1   AR   Ar  107   1.167   4.772   5.043
    1   AR   Ar  108   2.286   1.319   4.742
    1   AR   Ar  109   1.561   3.055   4.876
    1   AR   Ar  110   2.696   2.291   4.509
    1   AR   Ar  111   4.613   6.325   7.525
    1   AR   Ar  112   0.309   6.505   5.905
    1   AR   Ar  113   3.363   4.433  -0.824
    1   AR   Ar  114   2.691   0.057  -1.547
    1   AR   Ar  115   1.888   4.852  -0.040
    1   AR   Ar  116   4.687   0.733   0.562
    1   AR   Ar  117   0.328   4.987   4.159
    1   AR   Ar  118   1.119   5.445   3.508
    1   AR   Ar  119   2.091   4.105   2.746
    1   AR   Ar  120   1.382   6.815   2.401
    1   AR   Ar  121   5.425   4.350   5.606
    1   AR   Ar  122   3.206   5.767   4.010
    1   AR   Ar  123   2.935   3.254   5.292
    1   AR   Ar  124   1.052   5.472   1.346
    1   AR   Ar  125   6.565   3.350   4.749
    1   AR   Ar  126   7.043   0.535   6.425
    1   AR   Ar  127   4.640   3.203   6.243
    1   AR   Ar  128   2.981   3.489   7.400
    1   AR   Ar  129   2.032   5.592   4.486
    1   AR   Ar  130   4.515   1.240  -4.437
    1   AR   Ar  131   4.537   5.069  -2.484
    1   AR   Ar  132   0.672   1.711   0.233
    1   AR   Ar  133   4.317   0.345   4.639
    1   AR   Ar  134   3.606   1.482   4.200
    1   AR   Ar  135   5.967   1.437   3.661
    1   AR   Ar  136   6.450   0.112   2.441
    1   AR   Ar  137   3.025   4.476   6.071
    1   AR   Ar  138   5.385   1.772   5.761
    1   AR   Ar  139   5.902   2.734   5.525
    1   AR   Ar  140   4.162   6.602   5.088
    1   AR   Ar  141   3.917   5.074   4.216
    1   AR   Ar  142   4.896   0.241   6.875
    1   AR   Ar  143   5.926   6.725   6.477
    1   AR   Ar  144   6.512   1.959   4.994
    1   AR   Ar  145   4.147   5.028  -0.595
    1   AR   Ar  146   3.783   2.454   2.895
    1   AR   Ar  147   4.956   3.693  -0.522
    1   AR   Ar  148   3.531   6.730  -1.119
    1   AR   Ar  149   2.572   0.313  -0.534
    1   AR   Ar  150   2.171   2.782   2.685
    1   AR   Ar  151   2.983   2.326   3.493
    1   AR   Ar  152   1.050   2.507  -1.803
    1   AR   Ar  153   5.132   0.320   3.835
    1   AR   Ar  154   4.395   2.070   3.909
    1   AR   Ar  155   6.128   3.687   5.863
    1   AR   Ar  156   2.919   4.319   3.310
    1   AR   Ar  157   1.668   4.975   6.685
    1   AR   Ar  158   0.576   1.594   5.889
    1   AR   Ar  159   3.918   0.552   5.992
    1   AR   Ar  160   1.536   1.974   5.155
    1   AR   Ar  161   4.961   4.611   3.296
    1   AR   Ar  162   4.146   6.106  -0.293
    1   AR   Ar  163   5.641   4.800   1.015
    1   AR   Ar  164   1.715   5.911   2.087
    1   AR   Ar  165   3.442   4.053   0.855
    1   AR   Ar  166   2.747   3.500   4.118
    1   AR   Ar  167   5.969   6.465   3.205
    1   AR   Ar  168   5.309   3.967  -1.669
    1   AR   Ar  169   3.447   3.321   3.298
    1   AR   Ar  170   2.003   3.211   6.104
    1   AR   Ar  171   5.638   4.720   4.507
    1   AR   Ar  172   3.770   3.880   5.356
    1   AR   Ar  173   2.548   2.209   5.690
    1   AR   Ar  174   3.042   6.256   5.045
    1   AR   Ar  175   2.971   1.064   5.992
    1   AR   Ar  176   3.606   2.939   4.348
    1   AR   Ar  177   1.238   4.980  -1.096
    1   AR   Ar  178   2.512   6.000   0.290
    1   AR   Ar  179   3.243   6.996   0.400
    1   AR   Ar  180   4.891   1.710  -6.176
    1   AR   Ar  181   7.049   5.496   1.743
    1   AR   Ar  182   0.675   6.027   2.446
    1   AR   Ar  183   4.793   5.413   1.616
    1   AR   Ar  184   4.209   6.832   0.506
    1   AR   Ar  185   3.078   4.833   4.799
    1   AR   Ar  186   2.262   5.467   3.447
    1   AR   Ar  187   3.770   6.642   3.702
    1   AR   Ar  188   2.534   6.652   2.347
    1   AR   Ar  189   5.362   3.792   6.569
    1   AR   Ar  190   2.616   6.447   3.411
    1   AR   Ar  191   3.348   6.732   7.428
    1   AR   Ar  192   4.837   4.878   6.181
    1   AR   Ar  193   2.217   6.622   1.206
    1   AR   Ar  194   5.324   4.616  -0.827
    1   AR   Ar  195   5.466   1.341   0.780
    1   AR   Ar  196   3.880   0.452  -0.358
    1   AR   Ar  197   4.187   2.390   0.700
    1   AR   Ar  198   5.633   0.455   1.324
    1   AR   Ar  199   1.830   0.472   3.409
    1   AR   Ar  200   5.078   3.000   0.477
    1   AR   Ar  201   6.678   5.979   2.515
    1   AR   Ar  202   5.308   0.695   5.050
    1   AR   Ar  203   0.127   6.436   3.315
    1   AR   Ar  204   4.689   6.025   6.156
    1   AR   Ar  205   6.601   1.754   1.873
    1   AR   Ar  206   6.235   0.746   5.662
    1   AR   Ar  207   0.202   2.622   5.030
    1   AR   Ar  208   1.027   5.963   4.523
    1   AR   Ar  209   0.045   2.161  -2.369
    1   AR   Ar  210   1.813   0.030   0.391
    1   AR   Ar  211   0.389   3.271   0.828
    1   AR   Ar  212   6.008   3.832   0.141
    1   AR   Ar  213   3.449   1.743   1.676
    1   AR   Ar  214   4.625   4.060   2.190
    1   AR   Ar  215   6.769   3.063   2.189
    1   AR   Ar  216   1.305   2.881   1.052
    1   AR   Ar  217   5.144   1.907   2.893
    1   AR   Ar  218   4.970   3.211   4.342
    1   AR   Ar  219   4.729   3.287   3.098
    1   AR   Ar  220   4.449   3.791   1.223
    1   AR   Ar  221   6.578   5.603   4.328
    1   AR   Ar  222   5.275   7.023   5.811
    1   AR   Ar  223   6.553   1.471   6.431
    1   AR   Ar  224   4.825   2.502   5.358
    1   AR   Ar  225   6.414   3.159   3.276
    1   AR   Ar  226   1.431   3.418   3.097
    1   AR   Ar  227   0.604   3.385   2.147
    1   AR   Ar  228   6.933   0.713   1.114
    1   AR   Ar  229   6.358   4.543  -1.091
    1   AR   Ar  230   3.618   4.104   4.281
    1   AR   Ar  231   4.438   1.994   2.077
    1   AR   Ar  232   5.230   2.951   1.773
    1   AR   Ar  233   6.824   2.338   3.985
    1   AR   Ar  234   5.855   2.696   4.356
    1   AR   Ar  235   6.600   0.050   3.638
    1   AR   Ar  236   4.995   5.727   4.970
    1   AR   Ar  237   4.931   2.309   6.879
    1   AR   Ar  238   5.627   5.485   6.424
    1   AR   Ar  239   0.606   4.545  10.438
    1   AR   Ar  240   0.977   2.133   6.874
    1   AR   Ar  241   2.463   6.429  -0.825
    1   AR   Ar  242   5.524   6.230   1.634
    1   AR   Ar  243   4.644   5.929   2.994
    1   AR   Ar  244   0.127   5.323   0.478
    1   AR   Ar  245   3.828   0.057   2.811
    1   AR   Ar  246   5.635   6.402  -0.705
    1   AR   Ar  247   6.575   3.717   1.370
    1   AR   Ar  248   5.014   6.162   0.388
    1   AR   Ar  249   4.663   6.719   1.790
    1   AR   Ar  250   4.809   5.992   4.001
    1   AR   Ar  251   4.584   4.431   4.804
    1   AR   Ar  252   3.075   4.604   2.194
    1   AR   Ar  253   6.255   2.655   6.976
    1   AR   Ar  254   4.818   1.905   9.995
    1   AR   Ar  255   3.377   5.609  10.064
    1   AR   Ar  256   5.973   5.328   3.240
    7.12000  7.12000 12.00000
Argon-slab step 4500
  256
    1   AR   Ar    1   4.818   3.341  -2.747
    1   AR   Ar    2   5.499   0.008   0.334
    1   AR   Ar    3   3.500   3.101  -1.115
    1   AR   Ar    4   1.682   1.583   0.571
    1   AR   Ar    5   6.035   5.743  -0.017
    1   AR   Ar    6   1.795   1.759   1.790
    1   AR   Ar    7   5.871   4.190   3.310
    1   AR   Ar    8   5.619   2.262  -0.820
    1   AR   Ar    9   0.674   0.522   4.054
    1   AR   Ar   10   6.356   6.748   4.645
    1   AR   Ar   11   1.531   0.022   4.568
    1   AR   Ar   12   0.084   1.317   3.898
    1   AR   Ar   13   6.673   0.722   4.555
    1   AR   Ar   14   3.952   1.566   6.220
    1   AR   Ar   15   3.635   6.904   8.832
    1   AR   Ar   16   0.280   0.241   5.340
    1   AR   Ar   17   6.153   2.773   0.865
    1   AR   Ar   18   6.693   5.637  -1.118
    1   AR   Ar   19   4.586   4.462   0.211
    1   AR   Ar   20   6.684   4.411  -2.808
    1   AR   Ar   21   2.845   1.959   2.466
    1   AR   Ar   22   5.364   1.303   2.079
    1   AR   Ar   23   0.321   6.165   1.064
    1   AR   Ar   24   5.956   2.352   2.449
    1   AR   Ar   25   0.844   2.371   4.004
    1   AR   Ar   26   5.269   6.813   4.607
    1   AR   Ar   27   1.767   0.932   2.435
    1   AR   Ar   28   1.901   2.628   3.752
    1   AR   Ar   29   4.654   1.264   7.096
    1   AR   Ar   30   0.979   1.321   3.405
    1   AR   Ar   31   4.011   0.319   7.332
    1   AR   Ar   32   0.838   2.641   5.903
    1   AR   Ar   33   0.692   4.165  -0.288
    1   AR   Ar   34   0.690   4.808   2.308
    1   AR   Ar   35   5.524   4.769   2.447
    1   AR   Ar   36   6.172   2.619  -2.641
    1   AR   Ar   37   4.236   3.142   2.168
    1   AR   Ar   38   6.745   4.289   3.984
    1   AR   Ar   39   0.371   3.084   3.305
    1   AR   Ar   40   1.842   4.715   1.850
    1   AR   Ar   41   0.579   2.241   2.616
    1   AR   Ar   42   6.031   5.800   5.252
    1   AR   Ar   43   6.925   2.507   6.050
    1   AR   Ar   44   0.578   4.177   3.259
    1   AR   Ar   45   0.108   3.727   5.752
    1   AR   Ar   46   0.643   4.454   6.270
    1   AR   Ar   47   3.814   5.463   7.490
    1   AR   Ar   48   5.662   3.631   7.592
    1   AR   Ar   49   6.331   0.085  -0.943
    1   AR   Ar   50   3.406   5.393   0.381
    1   AR   Ar   51   5.690   3.712   2.457
    1   AR   Ar   52   4.848   2.918  -1.486
    1   AR   Ar   53   5.416   0.124   2.414
    1   AR   Ar   54   0.237   0.302   2.149
    1   AR   Ar   55   6.626   4.202   2.607
    1   AR   Ar   56   6.845   1.257   2.833
    1   AR   Ar   57   3.897   4.178   3.051
    1   AR   Ar   58   0.340   3.673   4.476
    1   AR   Ar   59   2.796   5.449   5.753
    1   AR   Ar   60   7.008   5.034   3.206
    1   AR   Ar   61   6.813   3.926   7.097
    1   AR   Ar   62   6.741   4.407   5.075
    1   AR   Ar   63   2.123   2.725   7.013
    1   AR   Ar   64   0.286   5.280   5.221
    1   AR   Ar   65   3.535   0.091   1.879
    1   AR   Ar   66   0.938   0.900   1.043
    1   AR   Ar   67   5.110   0.509  -0.600
    1   AR   Ar   68   1.057   1.262  -0.650
    1   AR   Ar   69   3.381   1.097   0.326
    1   AR   Ar   70   0.692   1.313   1.924
    1   AR   Ar   71   2.819   0.569   2.852
    1   AR   Ar   72   4.378   1.105   1.569
    1   AR   Ar   73   3.390   0.568   3.736
    1   AR   Ar   74   0.930   1.440   4.521
    1   AR   Ar   75   3.296   0.650   4.942
    1   AR   Ar   76   2.302   0.820   1.272
    1   AR   Ar   77   1.672   0.258   5.681
    1   AR   Ar   78   6.980   5.442   6.261
    1   AR   Ar   79   3.379   6.637   6.284
    1   AR   Ar   80   3.752   5.509   5.287
    1   AR   Ar   81   1.175   6.791   1.276
    1   AR   Ar   82   6.570   4.626   0.609
    1   AR   Ar   83   0.922   3.138  -0.107
    1   AR   Ar   84   1.270   4.091   0.833
    1   AR   Ar   85   2.561   3.453   0.014
    1   AR   Ar   86   1.938   5.425   0.849
    1   AR   Ar   87   3.198   3.499   2.186
    1   AR   Ar   88   3.229   5.391   1.434
    1   AR   Ar   89   6.915   2.055   0.834
    1   AR   Ar   90   3.410   1.743   5.309
    1   AR   Ar   91   1.561   1.856   2.754
    1   AR   Ar   92   1.593   3.648   1.948
    1   AR   Ar   93   1.928   1.446   6.099
    1   AR   Ar   94   1.047   6.715   8.995
    1   AR   Ar   95   4.477   1.324   5.337
    1   AR   Ar   96   2.810   6.980   4.290
    1   AR   Ar   97   3.491   1.715  -0.699
    1   AR   Ar   98   1.826   4.434   4.207
    1   AR   Ar   99   6.449   1.645  -0.290
    1   AR   Ar  100   0.005   3.284  -2.489
    1   AR   Ar  101   3.861   5.668   2.369
    1   AR   Ar  102   3.964   1.430   3.196
    1   AR   Ar  103   2.416   4.377   0.797
    1   AR   Ar  104   3.320   5.689  -0.990
    1   AR   Ar  105   2.286   1.386   3.713
    1   AR   Ar  106   3.805   2.577   5.721
    1   AR   Ar  107   1.145   4.799   5.050
    1   AR   Ar  108   2.273   1.340   4.753
    1   AR   Ar  109   1.573   3.078   4.902
    1   AR   Ar  110   2.714   2.279   4.483
    1   AR   Ar  111   4.579   6.339   7.549
    1   AR   Ar  112   0.301   6.490   5.917
    1   AR   Ar  113   3.330   4.453  -0.817
    1   AR   Ar  114   2.697   0.077  -1.526
    1   AR   Ar  115   1.874   4.832  -0.053
    1   AR   Ar  116   4.670   0.690   0.574
    1   AR   Ar  117   0.351   4.983   4.162
    1   AR   Ar  118   1.138   5.470   3.487
    1   AR   Ar  119   2.095   4.128   2.730
    1   AR   Ar  120   1.378   6.810   2.411
    1   AR   Ar  121   5.427   4.360   5.619
    1   AR   Ar  122   3.199   5.763   3.992
    1   AR   Ar  123   2.953   3.262   5.288
    1   AR   Ar  124   1.034   5.495   1.348
    1   AR   Ar  125   6.542   3.376   4.727
    1   AR   Ar  126   7.038   0.553   6.453
    1   AR   Ar  127   4.647   3.174   6.221
    1   AR   Ar  128   2.990   3.509   7.422
    1   AR   Ar  129   2.054   5.594   4.507
    1   AR   Ar  130   4.502   1.236  -4.465
    1   AR   Ar  131   4.518   5.083  -2.468
    1   AR   Ar  132   0.680   1.702   0.238
    1   AR   Ar  133   4.318   0.364   4.632
    1   AR   Ar  134   3.589   1.500   4.206
    1   AR   Ar  135   5.946   1.419   3.643
    1   AR   Ar  136   6.418   0.117   2.460
    1   AR   Ar  137   3.039   4.496   6.064
    1   AR   Ar  138   5.438   1.753   5.732
    1   AR   Ar  139   5.918   2.735   5.545
    1   AR   Ar  140   4.155   6.584   5.063
    1   AR   Ar  141   3.930   5.072   4.210
    1   AR   Ar  142   4.895   0.230   6.875
    1   AR   Ar  143   5.940   6.691   6.480
    1   AR   Ar  144   6.490   1.940   4.949
    1   AR   Ar  145   4.160   5.006  -0.572
    1   AR   Ar  146   3.797   2.467   2.901
    1   AR   Ar  147   4.973   3.715  -0.545
    1   AR   Ar  148   3.520   6.761  -1.083
    1   AR   Ar  149   2.560   0.251  -0.517
    1   AR   Ar  150   2.151   2.792   2.651
    1   AR   Ar  151   2.966   2.342   3.470
    1   AR   Ar  152   1.048   2.503  -1.816
    1   AR   Ar  153   5.160   0.325   3.821
    1   AR   Ar  154   4.410   2.024   3.922
    1   AR   Ar  155   6.126   3.684   5.870
    1   AR   Ar  156   2.936   4.330   3.260
    1   AR   Ar  157   1.670   4.955   6.652
    1   AR   Ar  158   0.580   1.585   5.884
    1   AR   Ar  159   3.883   0.559   6.010
    1   AR   Ar  160   1.537   2.017   5.163
    1   AR   Ar  161   4.916   4.585   3.285
    1   AR   Ar  162   4.144   6.108  -0.271
    1   AR   Ar  163   5.626   4.795   1.013
    1   AR   Ar  164   1.740   5.905   2.057
    1   AR   Ar  165   3.453   4.054   0.893
    1   AR   Ar  166   2.749   3.493   4.132
    1   AR   Ar  167   5.974   6.466   3.206
    1   AR   Ar  168   5.295   3.933  -1.697
    1   AR   Ar  169   3.447   3.324   3.309
    1   AR   Ar  170   2.012   3.209   6.115
    1   AR   Ar  171   5.628   4.722   4.509
    1   AR   Ar  172   3.768   3.877   5.375
    1   AR   Ar  173   2.540   2.187   5.692
    1   AR   Ar  174   3.087   6.244   5.029
    1   AR   Ar  175   2.988   1.082   5.989
    1   AR   Ar  176   3.621   2.900   4.301
    1   AR   Ar  177   1.222   4.974  -1.121
    1   AR   Ar  178   2.516   6.017   0.264
    1   AR   Ar  179   3.206   7.001   0.422
    1   AR   Ar  180   4.858   1.733  -6.187
    1   AR   Ar  181   7.063   5.479   1.740
    1   AR   Ar  182   0.665   6.028   2.405
    1   AR   Ar  183   4.804   5.426   1.582
    1   AR   Ar  184   4.214   6.844   0.478
    1   AR   Ar  185   3.098   4.844   4.818
    1   AR   Ar  186   2.284   5.476   3.461
    1   AR   Ar  187   3.733   6.627   3.717
    1   AR   Ar  188   2.551   6.637   2.334
    1   AR   Ar  189   5.357   3.825   6.577
    1   AR   Ar  190   2.615   6.464   3.387
    1   AR   Ar  191   3.356   6.731   7.406
    1   AR   Ar  192   4.857   4.905   6.189
    1   AR   Ar  193   2.249   6.618   1.189
    1   AR   Ar  194   5.315   4.605  -0.845
    1   AR   Ar  195   5.454   1.337   0.773
    1   AR   Ar  196   3.930   0.432  -0.349
    1   AR   Ar  197   4.191   2.380   0.710
    1   AR   Ar  198   5.638   0.430   1.332
    1   AR   Ar  199   1.814   0.496   3.411
    1   AR   Ar  200   5.119   2.985   0.479
    1   AR   Ar  201   6.673   6.001   2.508
    1   AR   Ar  202   5.318   0.691   5.044
    1   AR   Ar  203   0.197   6.397   3.301
    1   AR   Ar  204   4.691   6.008   6.163
    1   AR   Ar  205   6.568   1.757   1.855
    1   AR   Ar  206   6.208   0.739   5.695
    1   AR   Ar  207   0.221   2.627   5.020
    1   AR   Ar  208   1.059   6.024   4.510
    1   AR   Ar  209   0.031   2.169  -2.374
    1   AR   Ar  210   1.812   0.031   0.400
    1   AR   Ar  211   0.386   3.264   0.844
    1   AR   Ar  212   6.009   3.853   0.114
    1   AR   Ar  213   3.435   1.748   1.679
    1   AR   Ar  214   4.634   4.064   2.210
    1   AR   Ar  215   6.790   3.051   2.199
    1   AR   Ar  216   1.298   2.905   1.084
    1   AR   Ar  217   5.148   1.888   2.889
    1   AR   Ar  218   4.967   3.192   4.355
    1   AR   Ar  219   4.757   3.276   3.090
    1   AR   Ar  220   4.455   3.747   1.220
    1   AR   Ar  221   6.588   5.629   4.323
    1   AR   Ar  222   5.271   7.051   5.810
    1   AR   Ar  223   6.589   1.498   6.428
    1   AR   Ar  224   4.780   2.513   5.364
    1   AR   Ar  225   6.429   3.131   3.292
    1   AR   Ar  226   1.423   3.419   3.100
    1   AR   Ar  227   0.628   3.361   2.146
    1   AR   Ar  228   6.935   0.736   1.131
    1   AR   Ar  229   6.362   4.530  -1.083
    1   AR   Ar  230   3.602   4.113   4.297
    1   AR   Ar  231   4.445   2.007   2.096
    1   AR   Ar  232   5.239   2.935   1.800
    1   AR   Ar  233   6.816   2.333   3.997
    1   AR   Ar  234   5.866   2.696   4.337
    1   AR   Ar  235   6.629   0.079   3.650
    1   AR   Ar  236   4.986   5.751   4.979
    1   AR   Ar  237   4.918   2.293   6.883
    1   AR   Ar  238   5.614   5.501   6.426
    1   AR   Ar  239   0.592   4.505  10.459
    1   AR   Ar  240   0.980   2.134   6.852
    1   AR   Ar  241   2.485   6.417  -0.815
    1   AR   Ar  242   5.552   6.259   1.626
    1   AR   Ar  243   4.699   5.941   2.992
    1   AR   Ar  244   0.129   5.322   0.482
    1   AR   Ar  245   3.847   0.091   2.771
    1   AR   Ar  246   5.628   6.422  -0.719
    1   AR   Ar  247   6.591   3.699   1.367
    1   AR   Ar  248   5.024   6.169   0.376
    1   AR   Ar  249   4.680   6.731   1.783
    1   AR   Ar  250   4.856   5.993   4.026
    1   AR   Ar  251   4.576   4.446   4.795
    1   AR   Ar  252   3.061   4.594   2.197
    1   AR   Ar  253   6.248   2.668   6.959
    1   AR   Ar  254   4.820   1.892   9.991
    1   AR   Ar  255   3.410   5.615  10.038
    1   AR   Ar  256   5.952   5.337   3.267
    7.12000  7.12000 12.00000
Argon-slab step 4505
  256
    1   AR   Ar    1   4.789   3.365  -2.715
    1   AR   Ar    2   5.475   7.110   0.373
    1   AR   Ar    3   3.501   3.140  -1.101
    1   AR   Ar    4   1.691   1.574   0.578
    1   AR   Ar    5   6.031   5.738  -0.043
    1   AR   Ar    6   1.783   1.746   1.796
    1   AR   Ar    7   5.862   4.195   3.321
    1   AR   Ar    8   5.625   2.269  -0.813
    1   AR   Ar    9   0.686   0.480   4.071
    1   AR   Ar   10   6.374   6.767   4.646
    1   AR   Ar   11   1.530   0.018   4.599
    1   AR   Ar   12   0.045   1.294   3.883
    1   AR   Ar   13   6.690   0.715   4.557
    1   AR   Ar   14   3.954   1.571   6.226
    1   AR   Ar   15   3.626   6.923   8.860
    1   AR   Ar   16   0.243   0.266   5.340
    1   AR   Ar   17   6.176   2.783   0.857
    1   AR   Ar   18   6.662   5.631  -1.160
    1   AR   Ar   19   4.630   4.480   0.188
    1   AR   Ar   20   6.695   4.403  -2.803
    1   AR   Ar   21   2.840   1.956   2.499
    1   AR   Ar   22   5.379   1.319   2.044
    1   AR   Ar   23   0.316   6.171   1.070
    1   AR   Ar   24   5.926   2.358   2.495
    1   AR   Ar   25   0.844   2.335   3.969
    1   AR   Ar   26   5.232   6.847   4.608
    1   AR   Ar   27   1.770   0.938   2.454
    1   AR   Ar   28   1.910   2.601   3.793
    1   AR   Ar   29   4.649   1.254   7.106
    1   AR   Ar   30   0.954   1.342   3.416
    1   AR   Ar   31   4.003   0.359   7.344
    1   AR   Ar   32   0.812   2.612   5.909
    1   AR   Ar   33   0.699   4.179  -0.292
    1   AR   Ar   34   0.725   4.788   2.320
    1   AR   Ar   35   5.510   4.778   2.437
    1   AR   Ar   36   6.190   2.611  -2.658
    1   AR   Ar   37   4.224   3.186   2.172
    1   AR   Ar   38   6.733   4.277   3.974
    1   AR   Ar   39   0.385   3.081   3.293
    1   AR   Ar   40   1.835   4.744   1.845
    1   AR   Ar   41   0.554   2.243   2.583
    1   AR   Ar   42   5.993   5.830   5.282
    1   AR   Ar   43   6.937   2.505   6.067
    1   AR   Ar   44   0.556   4.195   3.269
    1   AR   Ar   45   0.091   3.725   5.742
    1   AR   Ar   46   0.674   4.464   6.308
    1   AR   Ar   47   3.821   5.433   7.498
    1   AR   Ar   48   5.678   3.647   7.585
    1   AR   Ar   49   6.379   0.084  -0.908
    1   AR   Ar   50   3.421   5.394   0.400
    1   AR   Ar   51   5.687   3.710   2.425
    1   AR   Ar   52   4.848   2.900  -1.493
    1   AR   Ar   53   5.397   0.146   2.422
    1   AR   Ar   54   0.232   0.313   2.151
    1   AR   Ar   55   6.647   4.219   2.615
    1   AR   Ar   56   6.804   1.258   2.850
    1   AR   Ar   57   3.916   4.199   3.044
    1   AR   Ar   58   0.373   3.704   4.471
    1   AR   Ar   59   2.784   5.491   5.761
    1   AR   Ar   60   7.026   5.033   3.230
    1   AR   Ar   61   6.821   3.912   7.111
    1   AR   Ar   62   6.759   4.411   5.082
    1   AR   Ar   63   2.157   2.751   7.036
    1   AR   Ar   64   0.290   5.269   5.257
    1   AR   Ar   65   3.509   0.096   1.873
    1   AR   Ar   66   0.928   0.899   1.037
    1   AR   Ar   67   5.103   0.498  -0.587
    1   AR   Ar   68   1.035   1.251  -0.655
    1   AR   Ar   69   3.377   1.148   0.309
    1   AR   Ar   70   0.709   1.340   1.929
    1   AR   Ar   71   2.817   0.559   2.877
    1   AR   Ar   72   4.360   1.097   1.561
    1   AR   Ar   73   3.364   0.593   3.740
    1   AR   Ar   74   0.922   1.412   4.532
    1   AR   Ar   75   3.303   0.626   4.964
    1   AR   Ar   76   2.294   0.833   1.290
    1   AR   Ar   77   1.698   0.252   5.682
    1   AR   Ar   78   7.007   5.451   6.266
    1   AR   Ar   79   3.355   6.652   6.262
    1   AR   Ar   80   3.759   5.503   5.274
    1   AR   Ar   81   1.170   6.790   1.309
    1   AR   Ar   82   6.593   4.659   0.616
    1   AR   Ar   83   0.904   3.157  -0.080
    1   AR   Ar   84   1.272   4.054   0.846
    1   AR   Ar   85   2.579   3.470  -0.002
    1   AR   Ar   86   1.950   5.420   0.872
    1   AR   Ar   87   3.217   3.492   2.203
    1   AR   Ar   88   3.237   5.406   1.435
    1   AR   Ar   89   6.892   2.050   0.839
    1   AR   Ar   90   3.414   1.737   5.296
    1   AR   Ar   91   1.597   1.864   2.740
    1   AR   Ar   92   1.611   3.610   1.925
    1   AR   Ar   93   1.942   1.456   6.115
    1   AR   Ar   94   1.064   6.675   8.973
    1   AR   Ar   95   4.490   1.309   5.328
    1   AR   Ar   96   2.797   6.953   4.295
    1   AR   Ar   97   3.503   1.745  -0.697
    1   AR   Ar   98   1.812   4.433   4.215
    1   AR   Ar   99   6.402   1.622  -0.320
    1   AR   Ar  100   0.001   3.278  -2.512
    1   AR   Ar  101   3.890   5.714   2.350
    1   AR   Ar  102   3.973   1.444   3.203
    1   AR   Ar  103   2.418   4.404   0.778
    1   AR   Ar  104   3.310   5.702  -0.998
    1   AR   Ar  105   2.279   1.398   3.681
    1   AR   Ar  106   3.799   2.567   5.717
    1   AR   Ar  107   1.130   4.821   5.055
    1   AR   Ar  108   2.261   1.359   4.771
    1   AR   Ar  109   1.585   3.101   4.928
    1   AR   Ar  110   2.712   2.294   4.468
    1   AR   Ar  111   4.568   6.350   7.565
    1   AR   Ar  112   0.293   6.471   5.931
    1   AR   Ar  113   3.291   4.471  -0.810
    1   AR   Ar  114   2.700   0.098  -1.512
    1   AR   Ar  115   1.868   4.820  -0.065
    1   AR   Ar  116   4.649   0.645   0.585
    1   AR   Ar  117   0.381   4.983   4.168
    1   AR   Ar  118   1.156   5.495   3.466
    1   AR   Ar  119   2.099   4.153   2.713
    1   AR   Ar  120   1.375   6.811   2.422
    1   AR   Ar  121   5.431   4.368   5.619
    1   AR   Ar  122   3.188   5.759   3.977
    1   AR   Ar  123   2.966   3.266   5.282
    1   AR   Ar  124   1.015   5.514   1.354
    1   AR   Ar  125   6.508   3.400   4.699
    1   AR   Ar  126   7.035   0.567   6.480
    1   AR   Ar  127   4.649   3.143   6.196
    1   AR   Ar  128   2.997   3.529   7.442
    1   AR   Ar  129   2.079   5.595   4.531
    1   AR   Ar  130   4.489   1.232  -4.494
    1   AR   Ar  131   4.499   5.096  -2.452
    1   AR   Ar  132   0.684   1.694   0.246
    1   AR   Ar  133   4.320   0.391   4.622
    1   AR   Ar  134   3.564   1.518   4.218
    1   AR   Ar  135   5.925   1.402   3.626
    1   AR   Ar  136   6.387   0.121   2.484
    1   AR   Ar  137   3.054   4.511   6.056
    1   AR   Ar  138   5.493   1.732   5.704
    1   AR   Ar  139   5.934   2.730   5.561
    1   AR   Ar  140   4.149   6.558   5.042
    1   AR   Ar  141   3.951   5.074   4.202
    1   AR   Ar  142   4.903   0.217   6.870
    1   AR   Ar  143   5.958   6.655   6.487
    1   AR   Ar  144   6.466   1.920   4.907
    1   AR   Ar  145   4.177   4.990  -0.552
    1   AR   Ar  146   3.820   2.475   2.901
    1   AR   Ar  147   4.988   3.728  -0.565
    1   AR   Ar  148   3.513   6.790  -1.043
    1   AR   Ar  149   2.549   0.198  -0.491
    1   AR   Ar  150   2.134   2.801   2.617
    1   AR   Ar  151   2.944   2.358   3.451
    1   AR   Ar  152   1.046   2.500  -1.829
    1   AR   Ar  153   5.188   0.334   3.803
    1   AR   Ar  154   4.433   1.985   3.935
    1   AR   Ar  155   6.126   3.672   5.899
    1   AR   Ar  156   2.949   4.342   3.218
    1   AR   Ar  157   1.669   4.923   6.615
    1   AR   Ar  158   0.584   1.576   5.878
    1   AR   Ar  159   3.852   0.558   6.027
    1   AR   Ar  160   1.539   2.061   5.174
    1   AR   Ar  161   4.865   4.562   3.276
    1   AR   Ar  162   4.139   6.107  -0.253
    1   AR   Ar  163   5.606   4.791   1.014
    1   AR   Ar  164   1.768   5.894   2.024
    1   AR   Ar  165   3.464   4.056   0.932
    1   AR   Ar  166   2.746   3.485   4.146
    1   AR   Ar  167   5.983   6.465   3.211
    1   AR   Ar  168   5.280   3.899  -1.725
    1   AR   Ar  169   3.442   3.326   3.323
    1   AR   Ar  170   2.027   3.206   6.121
    1   AR   Ar  171   5.619   4.725   4.510
    1   AR   Ar  172   3.770   3.878   5.394
    1   AR   Ar  173   2.533   2.170   5.691
    1   AR   Ar  174   3.128   6.234   5.012
    1   AR   Ar  175   2.999   1.101   5.986
    1   AR   Ar  176   3.638   2.859   4.255
    1   AR   Ar  177   1.205   4.968  -1.145
    1   AR   Ar  178   2.524   6.040   0.233
    1   AR   Ar  179   3.162   7.008   0.442
    1   AR   Ar  180   4.825   1.756  -6.198
    1   AR   Ar  181   7.079   5.453   1.733
    1   AR   Ar  182   0.655   6.024   2.361
    1   AR   Ar  183   4.814   5.439   1.549
    1   AR   Ar  184   4.224   6.858   0.453
    1   AR   Ar  185   3.110   4.856   4.840
    1   AR   Ar  186   2.305   5.481   3.474
    1   AR   Ar  187   3.698   6.613   3.733
    1   AR   Ar  188   2.569   6.624   2.319
    1   AR   Ar  189   5.353   3.863   6.588
    1   AR   Ar  190   2.614   6.484   3.361
    1   AR   Ar  191   3.354   6.717   7.386
    1   AR   Ar  192   4.860   4.933   6.202
    1   AR   Ar  193   2.285   6.612   1.176
    1   AR   Ar  194   5.308   4.604  -0.863
    1   AR   Ar  195   5.445   1.337   0.768
    1   AR   Ar  196   3.982   0.411  -0.341
    1   AR   Ar  197   4.201   2.376   0.708
    1   AR   Ar  198   5.643   0.404   1.343
    1   AR   Ar  199   1.795   0.517   3.413
    1   AR   Ar  200   5.132   2.972   0.479
    1   AR   Ar  201   6.656   6.047   2.516
    1   AR   Ar  202   5.323   0.687   5.038
    1   AR   Ar  203   0.267   6.357   3.288
    1   AR   Ar  204   4.692   5.993   6.168
    1   AR   Ar  205   6.537   1.756   1.834
    1   AR   Ar  206   6.181   0.732   5.728
    1   AR   Ar  207   0.241   2.632   5.007
    1   AR   Ar  208   1.063   6.041   4.487
    1   AR   Ar  209   0.017   2.177  -2.377
    1   AR   Ar  210   1.811   0.035   0.408
    1   AR   Ar  211   0.376   3.261   0.860
    1   AR   Ar  212   6.008   3.873   0.087
    1   AR   Ar  213   3.456   1.753   1.696
    1   AR   Ar  214   4.648   4.076   2.233
    1   AR   Ar  215   6.804   3.035   2.212
    1   AR   Ar  216   1.297   2.928   1.117
    1   AR   Ar  217   5.147   1.868   2.900
    1   AR   Ar  218   4.957   3.176   4.368
    1   AR   Ar  219   4.758   3.261   3.095
    1   AR   Ar  220   4.463   3.700   1.214
    1   AR   Ar  221   6.599   5.654   4.315
    1   AR   Ar  222   5.260   7.080   5.804
    1   AR   Ar  223   6.623   1.530   6.424
    1   AR   Ar  224   4.739   2.525   5.365
    1   AR   Ar  225   6.441   3.103   3.307
    1   AR   Ar  226   1.410   3.419   3.105
    1   AR   Ar  227   0.654   3.337   2.147
    1   AR   Ar  228   6.889   0.734   1.148
    1   AR   Ar  229   6.366   4.517  -1.075
    1   AR   Ar  230   3.589   4.112   4.310
    1   AR   Ar  231   4.453   2.025   2.115
    1   AR   Ar  232   5.249   2.919   1.826
    1   AR   Ar  233   6.811   2.329   4.008
    1   AR   Ar  234   5.877   2.691   4.318
    1   AR   Ar  235   6.659   0.111   3.661
    1   AR   Ar  236   4.975   5.772   4.999
    1   AR   Ar  237   4.906   2.279   6.885
    1   AR   Ar  238   5.611   5.524   6.429
    1   AR   Ar  239   0.577   4.465  10.480
    1   AR   Ar  240   0.983   2.134   6.829
    1   AR   Ar  241   2.507   6.394  -0.805
    1   AR   Ar  242   5.589   6.286   1.617
    1   AR   Ar  243   4.755   5.953   2.987
    1   AR   Ar  244   0.140   5.327   0.482
    1   AR   Ar  245   3.875   0.125   2.753
    1   AR   Ar  246   5.619   6.443  -0.733
    1   AR   Ar  247   6.606   3.683   1.362
    1   AR   Ar  248   5.029   6.171   0.359
    1   AR   Ar  249   4.689   6.747   1.776
    1   AR   Ar  250   4.901   5.996   4.044
    1   AR   Ar  251   4.569   4.459   4.787
    1   AR   Ar  252   3.047   4.584   2.200
    1   AR   Ar  253   6.241   2.681   6.940
    1   AR   Ar  254   4.821   1.879   9.986
    1   AR   Ar  255   3.442   5.620  10.011
    1   AR   Ar  256   5.932   5.345   3.296
    7.12000  7.12000 12.00000
Argon-slab step 4510
  256
    1   AR   Ar    1   4.779   3.389  -2.708
    1   AR   Ar    2   5.453   7.093   0.409
    1   AR   Ar    3   3.501   3.141  -1.069
    1   AR   Ar    4   1.702   1.563   0.588
    1   AR   Ar    5   6.027   5.730  -0.066
    1   AR   Ar    6   1.772   1.735   1.783
    1   AR   Ar    7   5.853   4.201   3.338
    1   AR   Ar    8   5.631   2.276  -0.806
    1   AR   Ar    9   0.697   0.433   4.087
    1   AR   Ar   10   6.391   6.786   4.648
    1   AR   Ar   11   1.529   0.013   4.630
    1   AR   Ar   12   0.002   1.279   3.865
    1   AR   Ar   13   6.703   0.706   4.567
    1   AR   Ar   14   3.957   1.581   6.235
    1   AR   Ar   15   3.618   6.940   8.888
    1   AR   Ar   16   0.205   0.293   5.339
    1   AR   Ar   17   6.195   2.798   0.849
    1   AR   Ar   18   6.631   5.624  -1.201
    1   AR   Ar   19   4.678   4.494   0.172
    1   AR   Ar   20   6.705   4.393  -2.796
    1   AR   Ar   21   2.831   1.951   2.532
    1   AR   Ar   22   5.396   1.306   2.045
    1   AR   Ar   23   0.304   6.174   1.070
    1   AR   Ar   24   5.894   2.367   2.550
    1   AR   Ar   25   0.844   2.299   3.934
    1   AR   Ar   26   5.196   6.873   4.615
    1   AR   Ar   27   1.775   0.930   2.468
    1   AR   Ar   28   1.918   2.574   3.833
    1   AR   Ar   29   4.643   1.243   7.115
    1   AR   Ar   30   0.934   1.362   3.423
    1   AR   Ar   31   4.011   0.375   7.367
    1   AR   Ar   32   0.795   2.589   5.912
    1   AR   Ar   33   0.707   4.197  -0.296
    1   AR   Ar   34   0.760   4.769   2.332
    1   AR   Ar   35   5.495   4.785   2.442
    1   AR   Ar   36   6.205   2.622  -2.678
    1   AR   Ar   37   4.209   3.219   2.175
    1   AR   Ar   38   6.737   4.284   3.992
    1   AR   Ar   39   0.399   3.078   3.280
    1   AR   Ar   40   1.827   4.774   1.837
    1   AR   Ar   41   0.528   2.244   2.551
    1   AR   Ar   42   5.957   5.860   5.314
    1   AR   Ar   43   6.934   2.528   6.069
    1   AR   Ar   44   0.536   4.211   3.280
    1   AR   Ar   45   0.075   3.718   5.732
    1   AR   Ar   46   0.704   4.476   6.346
    1   AR   Ar   47   3.829   5.405   7.505
    1   AR   Ar   48   5.696   3.661   7.578
    1   AR   Ar   49   6.428   0.083  -0.872
    1   AR   Ar   50   3.437   5.394   0.415
    1   AR   Ar   51   5.684   3.703   2.389
    1   AR   Ar   52   4.853   2.885  -1.500
    1   AR   Ar   53   5.368   0.168   2.431
    1   AR   Ar   54   0.233   0.324   2.150
    1   AR   Ar   55   6.671   4.234   2.620
    1   AR   Ar   56   6.763   1.259   2.866
    1   AR   Ar   57   3.941   4.220   3.033
    1   AR   Ar   58   0.410   3.736   4.466
    1   AR   Ar   59   2.765   5.540   5.775
    1   AR   Ar   60   7.042   5.037   3.251
    1   AR   Ar   61   6.829   3.897   7.124
    1   AR   Ar   62   6.775   4.416   5.087
    1   AR   Ar   63   2.191   2.775   7.063
    1   AR   Ar   64   0.281   5.269   5.288
    1   AR   Ar   65   3.475   0.100   1.848
    1   AR   Ar   66   0.920   0.893   1.027
    1   AR   Ar   67   5.095   0.500  -0.587
    1   AR   Ar   68   1.013   1.232  -0.652
    1   AR   Ar   69   3.374   1.198   0.293
    1   AR   Ar   70   0.725   1.370   1.940
    1   AR   Ar   71   2.811   0.550   2.897
    1   AR   Ar   72   4.354   1.113   1.554
    1   AR   Ar   73   3.341   0.618   3.747
    1   AR   Ar   74   0.915   1.385   4.545
    1   AR   Ar   75   3.310   0.604   4.985
    1   AR   Ar   76   2.284   0.845   1.308
    1   AR   Ar   77   1.725   0.247   5.683
    1   AR   Ar   78   7.033   5.460   6.270
    1   AR   Ar   79   3.333   6.666   6.239
    1   AR   Ar   80   3.779   5.495   5.266
    1   AR   Ar   81   1.167   6.789   1.342
    1   AR   Ar   82   6.604   4.678   0.627
    1   AR   Ar   83   0.890   3.167  -0.080
    1   AR   Ar   84   1.275   4.017   0.858
    1   AR   Ar   85   2.598   3.488  -0.017
    1   AR   Ar   86   1.963   5.414   0.898
    1   AR   Ar   87   3.232   3.485   2.221
    1   AR   Ar   88   3.243   5.420   1.440
    1   AR   Ar   89   6.873   2.041   0.843
    1   AR   Ar   90   3.419   1.725   5.274
    1   AR   Ar   91   1.629   1.886   2.746
    1   AR   Ar   92   1.636   3.574   1.900
    1   AR   Ar   93   1.951   1.461   6.131
    1   AR   Ar   94   1.080   6.635   8.951
    1   AR   Ar   95   4.501   1.294   5.319
    1   AR   Ar   96   2.782   6.928   4.302
    1   AR   Ar   97   3.514   1.775  -0.693
    1   AR   Ar   98   1.798   4.433   4.223
    1   AR   Ar   99   6.355   1.600  -0.349
    1   AR   Ar  100   7.117   3.273  -2.536
    1   AR   Ar  101   3.918   5.760   2.329
    1   AR   Ar  102   3.978   1.453   3.204
    1   AR   Ar  103   2.420   4.430   0.762
    1   AR   Ar  104   3.302   5.713  -1.005
    1   AR   Ar  105   2.289   1.393   3.682
    1   AR   Ar  106   3.786   2.565   5.718
    1   AR   Ar  107   1.127   4.837   5.055
    1   AR   Ar  108   2.251   1.375   4.790
    1   AR   Ar  109   1.597   3.125   4.953
    1   AR   Ar  110   2.698   2.326   4.462
    1   AR   Ar  111   4.568   6.349   7.576
    1   AR   Ar  112   0.283   6.451   5.945
    1   AR   Ar  113   3.251   4.488  -0.803
    1   AR   Ar  114   2.700   0.122  -1.505
    1   AR   Ar  115   1.865   4.813  -0.076
    1   AR   Ar  116   4.653   0.641   0.591
    1   AR   Ar  117   0.415   4.983   4.178
    1   AR   Ar  118   1.172   5.519   3.445
    1   AR   Ar  119   2.099   4.177   2.694
    1   AR   Ar  120   1.374   6.817   2.435
    1   AR   Ar  121   5.438   4.375   5.609
    1   AR   Ar  122   3.173   5.753   3.966
    1   AR   Ar  123   2.969   3.259   5.273
    1   AR   Ar  124   0.998   5.525   1.364
    1   AR   Ar  125   6.476   3.426   4.674
    1   AR   Ar  126   7.033   0.578   6.504
    1   AR   Ar  127   4.651   3.113   6.174
    1   AR   Ar  128   3.004   3.548   7.462
    1   AR   Ar  129   2.105   5.595   4.555
    1   AR   Ar  130   4.476   1.227  -4.523
    1   AR   Ar  131   4.480   5.110  -2.435
    1   AR   Ar  132   0.666   1.687   0.258
    1   AR   Ar  133   4.322   0.420   4.609
    1   AR   Ar  134   3.559   1.521   4.219
    1   AR   Ar  135   5.907   1.384   3.609
    1   AR   Ar  136   6.362   0.123   2.510
    1   AR   Ar  137   3.071   4.522   6.048
    1   AR   Ar  138   5.548   1.708   5.675
    1   AR   Ar  139   5.948   2.721   5.575
    1   AR   Ar  140   4.145   6.530   5.021
    1   AR   Ar  141   3.977   5.082   4.191
    1   AR   Ar  142   4.916   0.200   6.860
    1   AR   Ar  143   5.977   6.617   6.495
    1   AR   Ar  144   6.442   1.897   4.868
    1   AR   Ar  145   4.192   4.980  -0.536
    1   AR   Ar  146   3.847   2.480   2.898
    1   AR   Ar  147   4.999   3.728  -0.582
    1   AR   Ar  148   3.516   6.790  -1.051
    1   AR   Ar  149   2.539   0.158  -0.454
    1   AR   Ar  150   2.118   2.812   2.582
    1   AR   Ar  151   2.920   2.374   3.435
    1   AR   Ar  152   1.042   2.496  -1.843
    1   AR   Ar  153   5.216   0.347   3.779
    1   AR   Ar  154   4.462   1.954   3.950
    1   AR   Ar  155   6.127   3.666   5.907
    1   AR   Ar  156   2.959   4.357   3.187
    1   AR   Ar  157   1.671   4.911   6.599
    1   AR   Ar  158   0.586   1.564   5.872
    1   AR   Ar  159   3.828   0.548   6.042
    1   AR   Ar  160   1.539   2.106   5.187
    1   AR   Ar  161   4.815   4.540   3.270
    1   AR   Ar  162   4.131   6.103  -0.238
    1   AR   Ar  163   5.584   4.787   1.015
    1   AR   Ar  164   1.796   5.882   1.991
    1   AR   Ar  165   3.474   4.059   0.971
    1   AR   Ar  166   2.738   3.475   4.160
    1   AR   Ar  167   5.988   6.463   3.215
    1   AR   Ar  168   5.265   3.864  -1.753
    1   AR   Ar  169   3.433   3.331   3.337
    1   AR   Ar  170   2.029   3.186   6.129
    1   AR   Ar  171   5.611   4.729   4.510
    1   AR   Ar  172   3.779   3.883   5.413
    1   AR   Ar  173   2.527   2.159   5.687
    1   AR   Ar  174   3.162   6.229   4.993
    1   AR   Ar  175   3.000   1.119   5.985
    1   AR   Ar  176   3.657   2.816   4.212
    1   AR   Ar  177   1.189   4.961  -1.166
    1   AR   Ar  178   2.533   6.066   0.201
    1   AR   Ar  179   3.131   6.986   0.445
    1   AR   Ar  180   4.792   1.779  -6.210
    1   AR   Ar  181   7.095   5.422   1.727
    1   AR   Ar  182   0.645   6.018   2.314
    1   AR   Ar  183   4.825   5.468   1.553
    1   AR   Ar  184   4.233   6.868   0.433
    1   AR   Ar  185   3.114   4.867   4.862
    1   AR   Ar  186   2.322   5.481   3.484
    1   AR   Ar  187   3.667   6.605   3.748
    1   AR   Ar  188   2.586   6.613   2.300
    1   AR   Ar  189   5.346   3.839   6.609
    1   AR   Ar  190   2.615   6.490   3.350
    1   AR   Ar  191   3.348   6.695   7.366
    1   AR   Ar  192   4.847   4.958   6.217
    1   AR   Ar  193   2.322   6.603   1.166
    1   AR   Ar  194   5.303   4.615  -0.883
    1   AR   Ar  195   5.438   1.339   0.764
    1   AR   Ar  196   4.008   0.403  -0.339
    1   AR   Ar  197   4.212   2.374   0.705
    1   AR   Ar  198   5.647   0.378   1.357
    1   AR   Ar  199   1.774   0.533   3.419
    1   AR   Ar  200   5.150   2.966   0.470
    1   AR   Ar  201   6.639   6.092   2.524
    1   AR   Ar  202   5.304   0.678   5.034
    1   AR   Ar  203   0.336   6.318   3.278
    1   AR   Ar  204   4.690   5.983   6.170
    1   AR   Ar  205   6.507   1.755   1.813
    1   AR   Ar  206   6.155   0.725   5.760
    1   AR   Ar  207   0.260   2.638   4.991
    1   AR   Ar  208   1.060   6.045   4.461
    1   AR   Ar  209   0.005   2.184  -2.380
    1   AR   Ar  210   1.810   0.040   0.413
    1   AR   Ar  211   0.359   3.260   0.877
    1   AR   Ar  212   6.005   3.892   0.060
    1   AR   Ar  213   3.500   1.758   1.722
    1   AR   Ar  214   4.667   4.099   2.259
    1   AR   Ar  215   6.811   3.016   2.227
    1   AR   Ar  216   1.302   2.947   1.152
    1   AR   Ar  217   5.138   1.845   2.921
    1   AR   Ar  218   4.942   3.161   4.381
    1   AR   Ar  219   4.760   3.247   3.101
    1   AR   Ar  220   4.472   3.653   1.206
    1   AR   Ar  221   6.609   5.679   4.307
    1   AR   Ar  222   5.248   7.108   5.797
    1   AR   Ar  223   6.656   1.564   6.418
    1   AR   Ar  224   4.706   2.533   5.359
    1   AR   Ar  225   6.449   3.078   3.321
    1   AR   Ar  226   1.395   3.418   3.111
    1   AR   Ar  227   0.681   3.313   2.150
    1   AR   Ar  228   6.842   0.734   1.166
    1   AR   Ar  229   6.371   4.504  -1.067
    1   AR   Ar  230   3.577   4.103   4.318
    1   AR   Ar  231   4.459   2.045   2.134
    1   AR   Ar  232   5.259   2.918   1.840
    1   AR   Ar  233   6.811   2.327   4.014
    1   AR   Ar  234   5.886   2.680   4.297
    1   AR   Ar  235   6.690   0.144   3.671
    1   AR   Ar  236   4.976   5.785   5.002
    1   AR   Ar  237   4.895   2.267   6.884
    1   AR   Ar  238   5.621   5.555   6.434
    1   AR   Ar  239   0.563   4.425  10.501
    1   AR   Ar  240   0.987   2.132   6.808
    1   AR   Ar  241   2.526   6.359  -0.798
    1   AR   Ar  242   5.631   6.311   1.607
    1   AR   Ar  243   4.813   5.965   2.979
    1   AR   Ar  244   0.166   5.344   0.478
    1   AR   Ar  245   3.910   0.160   2.756
    1   AR   Ar  246   5.606   6.465  -0.746
    1   AR   Ar  247   6.621   3.669   1.358
    1   AR   Ar  248   5.035   6.167   0.343
    1   AR   Ar  249   4.691   6.766   1.768
    1   AR   Ar  250   4.944   6.001   4.051
    1   AR   Ar  251   4.564   4.471   4.782
    1   AR   Ar  252   3.032   4.576   2.199
    1   AR   Ar  253   6.233   2.696   6.920
    1   AR   Ar  254   4.823   1.866   9.982
    1   AR   Ar  255   3.475   5.626   9.985
    1   AR   Ar  256   5.907   5.327   3.323
    7.12000  7.12000 12.00000
Argon-slab step 4515
  256
    1   AR   Ar    1   4.775   3.414  -2.707
    1   AR   Ar    2   5.434   7.079   0.441
    1   AR   Ar    3   3.518   3.155  -1.083
    1   AR   Ar    4   1.715   1.552   0.598
    1   AR   Ar    5   6.024   5.720  -0.089
    1   AR   Ar    6   1.764   1.725   1.757
    1   AR   Ar    7   5.844   4.207   3.358
    1   AR   Ar    8   5.635   2.285  -0.799
    1   AR   Ar    9   0.706   0.385   4.101
    1   AR   Ar   10   6.406   6.802   4.651
    1   AR   Ar   11   1.531   0.005   4.641
    1   AR   Ar   12   7.078   1.269   3.845
    1   AR   Ar   13   6.711   0.696   4.584
    1   AR   Ar   14   3.963   1.594   6.246
    1   AR   Ar   15   3.609   6.958   8.915
    1   AR   Ar   16   0.168   0.321   5.340
    1   AR   Ar   17   6.209   2.817   0.842
    1   AR   Ar   18   6.598   5.618  -1.240
    1   AR   Ar   19   4.733   4.501   0.165
    1   AR   Ar   20   6.716   4.382  -2.790
    1   AR   Ar   21   2.838   1.952   2.548
    1   AR   Ar   22   5.414   1.285   2.053
    1   AR   Ar   23   0.280   6.166   1.062
    1   AR   Ar   24   5.872   2.382   2.601
    1   AR   Ar   25   0.851   2.275   3.921
    1   AR   Ar   26   5.161   6.891   4.628
    1   AR   Ar   27   1.765   0.944   2.475
    1   AR   Ar   28   1.922   2.548   3.869
    1   AR   Ar   29   4.673   1.247   7.128
    1   AR   Ar   30   0.919   1.381   3.426
    1   AR   Ar   31   4.027   0.372   7.398
    1   AR   Ar   32   0.790   2.574   5.909
    1   AR   Ar   33   0.695   4.208  -0.297
    1   AR   Ar   34   0.795   4.751   2.344
    1   AR   Ar   35   5.479   4.791   2.473
    1   AR   Ar   36   6.217   2.635  -2.697
    1   AR   Ar   37   4.195   3.240   2.176
    1   AR   Ar   38   6.743   4.296   4.016
    1   AR   Ar   39   0.411   3.076   3.268
    1   AR   Ar   40   1.818   4.804   1.828
    1   AR   Ar   41   0.502   2.246   2.521
    1   AR   Ar   42   5.927   5.891   5.347
    1   AR   Ar   43   6.919   2.560   6.066
    1   AR   Ar   44   0.517   4.222   3.292
    1   AR   Ar   45   0.062   3.706   5.723
    1   AR   Ar   46   0.731   4.488   6.381
    1   AR   Ar   47   3.837   5.379   7.512
    1   AR   Ar   48   5.717   3.675   7.574
    1   AR   Ar   49   6.475   0.083  -0.835
    1   AR   Ar   50   3.454   5.394   0.425
    1   AR   Ar   51   5.710   3.696   2.409
    1   AR   Ar   52   4.857   2.870  -1.507
    1   AR   Ar   53   5.330   0.191   2.440
    1   AR   Ar   54   0.236   0.337   2.149
    1   AR   Ar   55   6.696   4.247   2.624
    1   AR   Ar   56   6.722   1.260   2.878
    1   AR   Ar   57   3.956   4.234   3.015
    1   AR   Ar   58   0.448   3.767   4.462
    1   AR   Ar   59   2.746   5.589   5.788
    1   AR   Ar   60   7.054   5.048   3.268
    1   AR   Ar   61   6.836   3.881   7.135
    1   AR   Ar   62   6.788   4.424   5.089
    1   AR   Ar   63   2.199   2.773   7.043
    1   AR   Ar   64   0.260   5.290   5.291
    1   AR   Ar   65   3.437   0.103   1.814
    1   AR   Ar   66   0.913   0.885   1.014
    1   AR   Ar   67   5.088   0.511  -0.595
    1   AR   Ar   68   0.991   1.213  -0.650
    1   AR   Ar   69   3.371   1.247   0.277
    1   AR   Ar   70   0.740   1.399   1.955
    1   AR   Ar   71   2.799   0.539   2.909
    1   AR   Ar   72   4.349   1.128   1.547
    1   AR   Ar   73   3.323   0.639   3.761
    1   AR   Ar   74   0.908   1.359   4.560
    1   AR   Ar   75   3.316   0.582   5.007
    1   AR   Ar   76   2.274   0.856   1.327
    1   AR   Ar   77   1.753   0.244   5.684
    1   AR   Ar   78   7.058   5.468   6.275
    1   AR   Ar   79   3.311   6.680   6.214
    1   AR   Ar   80   3.814   5.485   5.264
    1   AR   Ar   81   1.166   6.788   1.377
    1   AR   Ar   82   6.603   4.684   0.640
    1   AR   Ar   83   0.879   3.165  -0.121
    1   AR   Ar   84   1.278   3.980   0.871
    1   AR   Ar   85   2.617   3.508  -0.032
    1   AR   Ar   86   1.977   5.409   0.925
    1   AR   Ar   87   3.241   3.481   2.242
    1   AR   Ar   88   3.248   5.435   1.449
    1   AR   Ar   89   6.861   2.026   0.846
    1   AR   Ar   90   3.425   1.711   5.243
    1   AR   Ar   91   1.658   1.916   2.768
    1   AR   Ar   92   1.667   3.543   1.877
    1   AR   Ar   93   1.954   1.462   6.149
    1   AR   Ar   94   1.097   6.595   8.929
    1   AR   Ar   95   4.508   1.282   5.310
    1   AR   Ar   96   2.765   6.907   4.309
    1   AR   Ar   97   3.526   1.804  -0.689
    1   AR   Ar   98   1.784   4.433   4.230
    1   AR   Ar   99   6.309   1.576  -0.376
    1   AR   Ar  100   7.112   3.269  -2.559
    1   AR   Ar  101   3.947   5.807   2.308
    1   AR   Ar  102   3.968   1.461   3.190
    1   AR   Ar  103   2.423   4.455   0.747
    1   AR   Ar  104   3.307   5.730  -1.008
    1   AR   Ar  105   2.301   1.393   3.683
    1   AR   Ar  106   3.776   2.571   5.717
    1   AR   Ar  107   1.137   4.847   5.051
    1   AR   Ar  108   2.242   1.389   4.811
    1   AR   Ar  109   1.609   3.152   4.976
    1   AR   Ar  110   2.687   2.356   4.464
    1   AR   Ar  111   4.567   6.350   7.585
    1   AR   Ar  112   0.274   6.431   5.958
    1   AR   Ar  113   3.210   4.504  -0.795
    1   AR   Ar  114   2.696   0.146  -1.502
    1   AR   Ar  115   1.861   4.806  -0.088
    1   AR   Ar  116   4.664   0.655   0.597
    1   AR   Ar  117   0.452   4.984   4.192
    1   AR   Ar  118   1.187   5.543   3.424
    1   AR   Ar  119   2.092   4.198   2.673
    1   AR   Ar  120   1.373   6.825   2.449
    1   AR   Ar  121   5.445   4.383   5.592
    1   AR   Ar  122   3.159   5.743   3.962
    1   AR   Ar  123   2.949   3.228   5.260
    1   AR   Ar  124   0.987   5.529   1.378
    1   AR   Ar  125   6.446   3.454   4.652
    1   AR   Ar  126   7.032   0.586   6.527
    1   AR   Ar  127   4.652   3.088   6.158
    1   AR   Ar  128   3.010   3.567   7.481
    1   AR   Ar  129   2.132   5.594   4.580
    1   AR   Ar  130   4.462   1.223  -4.552
    1   AR   Ar  131   4.461   5.123  -2.418
    1   AR   Ar  132   0.635   1.682   0.273
    1   AR   Ar  133   4.324   0.451   4.594
    1   AR   Ar  134   3.566   1.515   4.214
    1   AR   Ar  135   5.890   1.366   3.593
    1   AR   Ar  136   6.346   0.125   2.538
    1   AR   Ar  137   3.088   4.533   6.038
    1   AR   Ar  138   5.603   1.684   5.646
    1   AR   Ar  139   5.962   2.706   5.584
    1   AR   Ar  140   4.146   6.504   5.001
    1   AR   Ar  141   4.003   5.095   4.178
    1   AR   Ar  142   4.932   0.181   6.848
    1   AR   Ar  143   5.996   6.580   6.501
    1   AR   Ar  144   6.416   1.872   4.835
    1   AR   Ar  145   4.202   4.977  -0.528
    1   AR   Ar  146   3.876   2.483   2.894
    1   AR   Ar  147   5.006   3.716  -0.595
    1   AR   Ar  148   3.527   6.769  -1.091
    1   AR   Ar  149   2.531   0.130  -0.410
    1   AR   Ar  150   2.105   2.824   2.548
    1   AR   Ar  151   2.896   2.392   3.426
    1   AR   Ar  152   1.037   2.492  -1.857
    1   AR   Ar  153   5.245   0.365   3.751
    1   AR   Ar  154   4.499   1.930   3.969
    1   AR   Ar  155   6.121   3.670   5.884
    1   AR   Ar  156   2.966   4.372   3.170
    1   AR   Ar  157   1.676   4.930   6.613
    1   AR   Ar  158   0.587   1.550   5.864
    1   AR   Ar  159   3.812   0.531   6.056
    1   AR   Ar  160   1.537   2.147   5.201
    1   AR   Ar  161   4.783   4.526   3.271
    1   AR   Ar  162   4.142   6.093  -0.252
    1   AR   Ar  163   5.561   4.783   1.016
    1   AR   Ar  164   1.826   5.872   1.957
    1   AR   Ar  165   3.484   4.063   1.011
    1   AR   Ar  166   2.727   3.463   4.174
    1   AR   Ar  167   5.986   6.457   3.215
    1   AR   Ar  168   5.251   3.831  -1.781
    1   AR   Ar  169   3.448   3.331   3.354
    1   AR   Ar  170   2.055   3.152   6.134
    1   AR   Ar  171   5.605   4.733   4.510
    1   AR   Ar  172   3.792   3.891   5.432
    1   AR   Ar  173   2.526   2.155   5.679
    1   AR   Ar  174   3.186   6.227   4.972
    1   AR   Ar  175   2.992   1.139   5.986
    1   AR   Ar  176   3.678   2.770   4.173
    1   AR   Ar  177   1.173   4.953  -1.187
    1   AR   Ar  178   2.543   6.091   0.172
    1   AR   Ar  179   3.105   6.958   0.443
    1   AR   Ar  180   4.759   1.802  -6.221
    1   AR   Ar  181   7.107   5.386   1.721
    1   AR   Ar  182   0.637   6.011   2.265
    1   AR   Ar  183   4.836   5.498   1.557
    1   AR   Ar  184   4.239   6.873   0.420
    1   AR   Ar  185   3.108   4.876   4.883
    1   AR   Ar  186   2.333   5.474   3.490
    1   AR   Ar  187   3.642   6.604   3.761
    1   AR   Ar  188   2.606   6.611   2.276
    1   AR   Ar  189   5.338   3.818   6.628
    1   AR   Ar  190   2.617   6.471   3.360
    1   AR   Ar  191   3.339   6.669   7.347
    1   AR   Ar  192   4.824   4.975   6.233
    1   AR   Ar  193   2.359   6.593   1.159
    1   AR   Ar  194   5.299   4.638  -0.905
    1   AR   Ar  195   5.433   1.342   0.762
    1   AR   Ar  196   3.996   0.411  -0.353
    1   AR   Ar  197   4.224   2.372   0.702
    1   AR   Ar  198   5.651   0.354   1.375
    1   AR   Ar  199   1.751   0.542   3.429
    1   AR   Ar  200   5.168   2.962   0.461
    1   AR   Ar  201   6.626   6.134   2.527
    1   AR   Ar  202   5.289   0.676   5.028
    1   AR   Ar  203   0.404   6.279   3.272
    1   AR   Ar  204   4.686   5.979   6.170
    1   AR   Ar  205   6.476   1.752   1.795
    1   AR   Ar  206   6.129   0.718   5.791
    1   AR   Ar  207   0.276   2.644   4.973
    1   AR   Ar  208   1.055   6.049   4.434
    1   AR   Ar  209   7.117   2.190  -2.381
    1   AR   Ar  210   1.809   0.046   0.419
    1   AR   Ar  211   0.338   3.260   0.892
    1   AR   Ar  212   6.000   3.912   0.033
    1   AR   Ar  213   3.543   1.764   1.746
    1   AR   Ar  214   4.691   4.128   2.283
    1   AR   Ar  215   6.814   2.995   2.245
    1   AR   Ar  216   1.310   2.960   1.185
    1   AR   Ar  217   5.121   1.819   2.950
    1   AR   Ar  218   4.924   3.148   4.393
    1   AR   Ar  219   4.762   3.235   3.108
    1   AR   Ar  220   4.484   3.605   1.198
    1   AR   Ar  221   6.619   5.702   4.299
    1   AR   Ar  222   5.234   0.011   5.792
    1   AR   Ar  223   6.686   1.600   6.411
    1   AR   Ar  224   4.686   2.534   5.341
    1   AR   Ar  225   6.454   3.056   3.335
    1   AR   Ar  226   1.380   3.419   3.116
    1   AR   Ar  227   0.706   3.290   2.154
    1   AR   Ar  228   6.796   0.735   1.186
    1   AR   Ar  229   6.376   4.491  -1.057
    1   AR   Ar  230   3.575   4.131   4.319
    1   AR   Ar  231   4.468   2.066   2.150
    1   AR   Ar  232   5.269   2.940   1.835
    1   AR   Ar  233   6.820   2.326   4.016
    1   AR   Ar  234   5.889   2.666   4.276
    1   AR   Ar  235   6.722   0.176   3.676
    1   AR   Ar  236   4.993   5.788   4.976
    1   AR   Ar  237   4.884   2.256   6.881
    1   AR   Ar  238   5.640   5.589   6.441
    1   AR   Ar  239   0.548   4.386  10.522
    1   AR   Ar  240   0.993   2.127   6.790
    1   AR   Ar  241   2.541   6.317  -0.799
    1   AR   Ar  242   5.676   6.335   1.598
    1   AR   Ar  243   4.849   5.966   2.965
    1   AR   Ar  244   0.191   5.368   0.465
    1   AR   Ar  245   3.949   0.195   2.769
    1   AR   Ar  246   5.593   6.489  -0.759
    1   AR   Ar  247   6.633   3.657   1.355
    1   AR   Ar  248   5.043   6.156   0.328
    1   AR   Ar  249   4.688   6.785   1.760
    1   AR   Ar  250   4.986   6.006   4.043
    1   AR   Ar  251   4.561   4.481   4.781
    1   AR   Ar  252   3.019   4.569   2.191
    1   AR   Ar  253   6.224   2.711   6.898
    1   AR   Ar  254   4.824   1.853   9.978
    1   AR   Ar  255   3.507   5.632   9.958
    1   AR   Ar  256   5.884   5.310   3.352
    7.12000  7.12000 12.00000
Argon-slab step 4520
  256
    1   AR   Ar    1   4.771   3.438  -2.705
    1   AR   Ar    2   5.419   7.068   0.469
    1   AR   Ar    3   3.534   3.169  -1.096
    1   AR   Ar    4   1.727   1.540   0.610
    1   AR   Ar    5   6.022   5.709  -0.112
    1   AR   Ar    6   1.757   1.717   1.724
    1   AR   Ar    7   5.836   4.211   3.380
    1   AR   Ar    8   5.637   2.296  -0.793
    1   AR   Ar    9   0.711   0.338   4.113
    1   AR   Ar   10   6.391   6.827   4.680
    1   AR   Ar   11   1.536   7.114   4.640
    1   AR   Ar   12   7.037   1.263   3.825
    1   AR   Ar   13   6.713   0.689   4.607
    1   AR   Ar   14   3.971   1.609   6.257
    1   AR   Ar   15   3.601   6.975   8.941
    1   AR   Ar   16   0.135   0.346   5.345
    1   AR   Ar   17   6.219   2.840   0.836
    1   AR   Ar   18   6.564   5.611  -1.278
    1   AR   Ar   19   4.795   4.504   0.166
    1   AR   Ar   20   6.727   4.370  -2.782
    1   AR   Ar   21   2.871   1.962   2.536
    1   AR   Ar   22   5.432   1.263   2.059
    1   AR   Ar   23   0.252   6.173   1.057
    1   AR   Ar   24   5.857   2.401   2.649
    1   AR   Ar   25   0.859   2.258   3.915
    1   AR   Ar   26   5.126   6.898   4.641
    1   AR   Ar   27   1.763   0.962   2.487
    1   AR   Ar   28   1.916   2.524   3.898
    1   AR   Ar   29   4.702   1.249   7.140
    1   AR   Ar   30   0.907   1.394   3.424
    1   AR   Ar   31   4.043   0.371   7.428
    1   AR   Ar   32   0.794   2.567   5.899
    1   AR   Ar   33   0.693   4.211  -0.295
    1   AR   Ar   34   0.830   4.735   2.355
    1   AR   Ar   35   5.466   4.799   2.503
    1   AR   Ar   36   6.227   2.650  -2.718
    1   AR   Ar   37   4.191   3.253   2.176
    1   AR   Ar   38   6.747   4.308   4.036
    1   AR   Ar   39   0.420   3.073   3.256
    1   AR   Ar   40   1.809   4.832   1.816
    1   AR   Ar   41   0.476   2.251   2.493
    1   AR   Ar   42   5.904   5.924   5.383
    1   AR   Ar   43   6.899   2.595   6.061
    1   AR   Ar   44   0.542   4.199   3.321
    1   AR   Ar   45   0.053   3.690   5.715
    1   AR   Ar   46   0.756   4.498   6.415
    1   AR   Ar   47   3.845   5.354   7.518
    1   AR   Ar   48   5.736   3.682   7.569
    1   AR   Ar   49   6.522   0.083  -0.798
    1   AR   Ar   50   3.450   5.378   0.423
    1   AR   Ar   51   5.745   3.689   2.445
    1   AR   Ar   52   4.861   2.853  -1.512
    1   AR   Ar   53   5.300   0.201   2.460
    1   AR   Ar   54   0.241   0.350   2.147
    1   AR   Ar   55   6.722   4.258   2.628
    1   AR   Ar   56   6.680   1.260   2.883
    1   AR   Ar   57   3.945   4.220   2.999
    1   AR   Ar   58   0.484   3.780   4.457
    1   AR   Ar   59   2.728   5.639   5.800
    1   AR   Ar   60   7.061   5.068   3.283
    1   AR   Ar   61   6.841   3.865   7.144
    1   AR   Ar   62   6.797   4.433   5.088
    1   AR   Ar   63   2.210   2.766   7.032
    1   AR   Ar   64   0.235   5.316   5.292
    1   AR   Ar   65   3.398   0.107   1.778
    1   AR   Ar   66   0.906   0.876   1.001
    1   AR   Ar   67   5.081   0.521  -0.600
    1   AR   Ar   68   0.970   1.194  -0.648
    1   AR   Ar   69   3.370   1.293   0.261
    1   AR   Ar   70   0.755   1.425   1.971
    1   AR   Ar   71   2.783   0.527   2.914
    1   AR   Ar   72   4.349   1.139   1.540
    1   AR   Ar   73   3.308   0.654   3.779
    1   AR   Ar   74   0.902   1.333   4.577
    1   AR   Ar   75   3.322   0.562   5.028
    1   AR   Ar   76   2.263   0.865   1.345
    1   AR   Ar   77   1.780   0.243   5.685
    1   AR   Ar   78   7.080   5.474   6.284
    1   AR   Ar   79   3.290   6.692   6.187
    1   AR   Ar   80   3.860   5.474   5.267
    1   AR   Ar   81   1.165   6.787   1.411
    1   AR   Ar   82   6.595   4.683   0.656
    1   AR   Ar   83   0.869   3.161  -0.160
    1   AR   Ar   84   1.303   3.970   0.887
    1   AR   Ar   85   2.635   3.529  -0.047
    1   AR   Ar   86   1.993   5.407   0.951
    1   AR   Ar   87   3.240   3.461   2.244
    1   AR   Ar   88   3.251   5.449   1.461
    1   AR   Ar   89   6.853   2.008   0.847
    1   AR   Ar   90   3.431   1.696   5.209
    1   AR   Ar   91   1.684   1.949   2.799
    1   AR   Ar   92   1.708   3.526   1.863
    1   AR   Ar   93   1.950   1.460   6.169
    1   AR   Ar   94   1.113   6.555   8.907
    1   AR   Ar   95   4.510   1.274   5.303
    1   AR   Ar   96   2.746   6.890   4.317
    1   AR   Ar   97   3.538   1.834  -0.685
    1   AR   Ar   98   1.771   4.434   4.236
    1   AR   Ar   99   6.265   1.551  -0.400
    1   AR   Ar  100   7.108   3.268  -2.583
    1   AR   Ar  101   3.976   5.853   2.286
    1   AR   Ar  102   3.936   1.472   3.160
    1   AR   Ar  103   2.429   4.477   0.735
    1   AR   Ar  104   3.287   5.755  -1.024
    1   AR   Ar  105   2.317   1.398   3.684
    1   AR   Ar  106   3.759   2.584   5.707
    1   AR   Ar  107   1.153   4.854   5.045
    1   AR   Ar  108   2.234   1.404   4.833
    1   AR   Ar  109   1.623   3.183   4.999
    1   AR   Ar  110   2.685   2.383   4.478
    1   AR   Ar  111   4.564   6.351   7.593
    1   AR   Ar  112   0.264   6.414   5.969
    1   AR   Ar  113   3.169   4.521  -0.787
    1   AR   Ar  114   2.691   0.172  -1.500
    1   AR   Ar  115   1.856   4.800  -0.101
    1   AR   Ar  116   4.672   0.674   0.603
    1   AR   Ar  117   0.491   4.985   4.207
    1   AR   Ar  118   1.203   5.564   3.403
    1   AR   Ar  119   2.080   4.217   2.650
    1   AR   Ar  120   1.374   6.834   2.464
    1   AR   Ar  121   5.449   4.394   5.573
    1   AR   Ar  122   3.150   5.729   3.967
    1   AR   Ar  123   2.928   3.194   5.246
    1   AR   Ar  124   0.984   5.526   1.391
    1   AR   Ar  125   6.420   3.484   4.633
    1   AR   Ar  126   7.032   0.592   6.547
    1   AR   Ar  127   4.653   3.070   6.150
    1   AR   Ar  128   3.015   3.585   7.499
    1   AR   Ar  129   2.161   5.594   4.605
    1   AR   Ar  130   4.449   1.219  -4.581
    1   AR   Ar  131   4.442   5.135  -2.400
    1   AR   Ar  132   0.602   1.677   0.290
    1   AR   Ar  133   4.323   0.482   4.577
    1   AR   Ar  134   3.570   1.514   4.211
    1   AR   Ar  135   5.874   1.348   3.578
    1   AR   Ar  136   6.336   0.128   2.566
    1   AR   Ar  137   3.105   4.545   6.027
    1   AR   Ar  138   5.656   1.658   5.617
    1   AR   Ar  139   5.974   2.687   5.590
    1   AR   Ar  140   4.157   6.482   4.980
    1   AR   Ar  141   4.029   5.113   4.161
    1   AR   Ar  142   4.949   0.161   6.835
    1   AR   Ar  143   6.016   6.546   6.506
    1   AR   Ar  144   6.388   1.843   4.808
    1   AR   Ar  145   4.206   4.981  -0.526
    1   AR   Ar  146   3.904   2.488   2.892
    1   AR   Ar  147   5.013   3.696  -0.606
    1   AR   Ar  148   3.541   6.749  -1.126
    1   AR   Ar  149   2.523   0.109  -0.364
    1   AR   Ar  150   2.096   2.839   2.514
    1   AR   Ar  151   2.874   2.415   3.425
    1   AR   Ar  152   1.030   2.488  -1.871
    1   AR   Ar  153   5.275   0.383   3.721
    1   AR   Ar  154   4.540   1.909   3.989
    1   AR   Ar  155   6.149   3.660   5.911
    1   AR   Ar  156   2.971   4.387   3.167
    1   AR   Ar  157   1.683   4.949   6.627
    1   AR   Ar  158   0.587   1.532   5.856
    1   AR   Ar  159   3.802   0.510   6.069
    1   AR   Ar  160   1.534   2.183   5.216
    1   AR   Ar  161   4.786   4.526   3.287
    1   AR   Ar  162   4.165   6.077  -0.284
    1   AR   Ar  163   5.536   4.778   1.017
    1   AR   Ar  164   1.848   5.863   1.932
    1   AR   Ar  165   3.492   4.069   1.051
    1   AR   Ar  166   2.714   3.449   4.188
    1   AR   Ar  167   5.977   6.453   3.224
    1   AR   Ar  168   5.237   3.799  -1.807
    1   AR   Ar  169   3.478   3.330   3.370
    1   AR   Ar  170   2.100   3.116   6.126
    1   AR   Ar  171   5.601   4.738   4.509
    1   AR   Ar  172   3.806   3.900   5.450
    1   AR   Ar  173   2.530   2.158   5.667
    1   AR   Ar  174   3.198   6.225   4.951
    1   AR   Ar  175   2.976   1.159   5.988
    1   AR   Ar  176   3.701   2.721   4.139
    1   AR   Ar  177   1.157   4.945  -1.205
    1   AR   Ar  178   2.553   6.111   0.153
    1   AR   Ar  179   3.082   6.932   0.443
    1   AR   Ar  180   4.727   1.825  -6.232
    1   AR   Ar  181   7.115   5.346   1.717
    1   AR   Ar  182   0.632   6.005   2.217
    1   AR   Ar  183   4.847   5.529   1.563
    1   AR   Ar  184   4.242   6.874   0.412
    1   AR   Ar  185   3.096   4.884   4.903
    1   AR   Ar  186   2.332   5.460   3.490
    1   AR   Ar  187   3.623   6.611   3.773
    1   AR   Ar  188   2.618   6.638   2.250
    1   AR   Ar  189   5.327   3.798   6.642
    1   AR   Ar  190   2.619   6.457   3.366
    1   AR   Ar  191   3.332   6.641   7.327
    1   AR   Ar  192   4.798   4.983   6.249
    1   AR   Ar  193   2.396   6.581   1.155
    1   AR   Ar  194   5.309   4.645  -0.893
    1   AR   Ar  195   5.431   1.346   0.761
    1   AR   Ar  196   3.980   0.412  -0.373
    1   AR   Ar  197   4.235   2.369   0.702
    1   AR   Ar  198   5.655   0.332   1.398
    1   AR   Ar  199   1.725   0.546   3.442
    1   AR   Ar  200   5.179   2.975   0.454
    1   AR   Ar  201   6.620   6.173   2.524
    1   AR   Ar  202   5.289   0.683   5.026
    1   AR   Ar  203   0.468   6.242   3.268
    1   AR   Ar  204   4.678   5.985   6.167
    1   AR   Ar  205   6.445   1.748   1.781
    1   AR   Ar  206   6.106   0.710   5.822
    1   AR   Ar  207   0.291   2.650   4.952
    1   AR   Ar  208   1.051   6.052   4.407
    1   AR   Ar  209   7.111   2.194  -2.381
    1   AR   Ar  210   1.808   0.053   0.426
    1   AR   Ar  211   0.319   3.258   0.905
    1   AR   Ar  212   5.994   3.932   0.006
    1   AR   Ar  213   3.582   1.771   1.769
    1   AR   Ar  214   4.718   4.159   2.302
    1   AR   Ar  215   6.812   2.974   2.264
    1   AR   Ar  216   1.314   2.961   1.209
    1   AR   Ar  217   5.096   1.788   2.986
    1   AR   Ar  218   4.904   3.135   4.406
    1   AR   Ar  219   4.765   3.223   3.116
    1   AR   Ar  220   4.486   3.624   1.179
    1   AR   Ar  221   6.629   5.724   4.290
    1   AR   Ar  222   5.220   0.029   5.792
    1   AR   Ar  223   6.715   1.634   6.403
    1   AR   Ar  224   4.687   2.523   5.340
    1   AR   Ar  225   6.438   3.053   3.356
    1   AR   Ar  226   1.369   3.421   3.121
    1   AR   Ar  227   0.730   3.266   2.160
    1   AR   Ar  228   6.749   0.737   1.208
    1   AR   Ar  229   6.382   4.478  -1.048
    1   AR   Ar  230   3.574   4.154   4.317
    1   AR   Ar  231   4.481   2.089   2.163
    1   AR   Ar  232   5.276   2.960   1.828
    1   AR   Ar  233   6.838   2.325   4.012
    1   AR   Ar  234   5.885   2.650   4.254
    1   AR   Ar  235   6.753   0.206   3.678
    1   AR   Ar  236   5.002   5.784   4.966
    1   AR   Ar  237   4.875   2.248   6.876
    1   AR   Ar  238   5.665   5.622   6.447
    1   AR   Ar  239   0.534   4.346  10.544
    1   AR   Ar  240   1.001   2.119   6.777
    1   AR   Ar  241   2.546   6.278  -0.809
    1   AR   Ar  242   5.721   6.360   1.588
    1   AR   Ar  243   4.872   5.960   2.946
    1   AR   Ar  244   0.205   5.390   0.438
    1   AR   Ar  245   3.988   0.231   2.783
    1   AR   Ar  246   5.578   6.513  -0.769
    1   AR   Ar  247   6.640   3.651   1.356
    1   AR   Ar  248   5.050   6.136   0.312
    1   AR   Ar  249   4.683   6.804   1.751
    1   AR   Ar  250   5.028   6.015   4.018
    1   AR   Ar  251   4.560   4.487   4.784
    1   AR   Ar  252   3.006   4.566   2.172
    1   AR   Ar  253   6.214   2.728   6.875
    1   AR   Ar  254   4.826   1.840   9.974
    1   AR   Ar  255   3.539   5.638   9.931
    1   AR   Ar  256   5.860   5.293   3.382
    7.12000  7.12000 12.00000
Argon-slab step 4525
  256
    1   AR   Ar    1   4.778   3.443  -2.722
    1   AR   Ar    2   5.406   7.060   0.493
    1   AR   Ar    3   3.552   3.184  -1.109
    1   AR   Ar    4   1.738   1.528   0.622
    1   AR   Ar    5   6.010   5.714  -0.117
    1   AR   Ar    6   1.750   1.714   1.690
    1   AR   Ar    7   5.830   4.214   3.397
    1   AR   Ar    8   5.637   2.311  -0.788
    1   AR   Ar    9   0.711   0.294   4.122
    1   AR   Ar   10   6.366   6.849   4.717
    1   AR   Ar   11   1.545   7.102   4.639
    1   AR   Ar   12   7.000   1.261   3.811
    1   AR   Ar   13   6.740   0.658   4.619
    1   AR   Ar   14   3.983   1.593   6.248
    1   AR   Ar   15   3.593   6.992   8.967
    1   AR   Ar   16   0.109   0.367   5.363
    1   AR   Ar   17   6.213   2.860   0.820
    1   AR   Ar   18   6.529   5.604  -1.315
    1   AR   Ar   19   4.861   4.504   0.172
    1   AR   Ar   20   6.738   4.358  -2.775
    1   AR   Ar   21   2.903   1.967   2.518
    1   AR   Ar   22   5.451   1.242   2.064
    1   AR   Ar   23   0.222   6.192   1.057
    1   AR   Ar   24   5.846   2.424   2.695
    1   AR   Ar   25   0.865   2.250   3.916
    1   AR   Ar   26   5.093   6.895   4.652
    1   AR   Ar   27   1.767   0.978   2.501
    1   AR   Ar   28   1.897   2.504   3.918
    1   AR   Ar   29   4.730   1.246   7.151
    1   AR   Ar   30   0.898   1.397   3.416
    1   AR   Ar   31   4.060   0.369   7.458
    1   AR   Ar   32   0.802   2.567   5.883
    1   AR   Ar   33   0.704   4.179  -0.282
    1   AR   Ar   34   0.864   4.719   2.367
    1   AR   Ar   35   5.458   4.817   2.531
    1   AR   Ar   36   6.232   2.665  -2.739
    1   AR   Ar   37   4.201   3.262   2.160
    1   AR   Ar   38   6.750   4.322   4.052
    1   AR   Ar   39   0.423   3.067   3.245
    1   AR   Ar   40   1.800   4.854   1.804
    1   AR   Ar   41   0.450   2.258   2.471
    1   AR   Ar   42   5.888   5.958   5.422
    1   AR   Ar   43   6.889   2.622   6.057
    1   AR   Ar   44   0.568   4.174   3.351
    1   AR   Ar   45   0.050   3.669   5.709
    1   AR   Ar   46   0.775   4.508   6.447
    1   AR   Ar   47   3.856   5.348   7.522
    1   AR   Ar   48   5.754   3.680   7.562
    1   AR   Ar   49   6.567   0.082  -0.760
    1   AR   Ar   50   3.432   5.352   0.414
    1   AR   Ar   51   5.782   3.682   2.481
    1   AR   Ar   52   4.864   2.836  -1.516
    1   AR   Ar   53   5.269   0.188   2.482
    1   AR   Ar   54   0.247   0.363   2.145
    1   AR   Ar   55   6.747   4.268   2.632
    1   AR   Ar   56   6.637   1.260   2.879
    1   AR   Ar   57   3.925   4.178   2.991
    1   AR   Ar   58   0.510   3.781   4.467
    1   AR   Ar   59   2.712   5.687   5.809
    1   AR   Ar   60   7.066   5.094   3.297
    1   AR   Ar   61   6.845   3.847   7.151
    1   AR   Ar   62   6.805   4.444   5.087
    1   AR   Ar   63   2.222   2.754   7.033
    1   AR   Ar   64   0.231   5.337   5.286
    1   AR   Ar   65   3.427   0.124   1.795
    1   AR   Ar   66   0.900   0.865   0.990
    1   AR   Ar   67   5.075   0.529  -0.602
    1   AR   Ar   68   0.949   1.175  -0.645
    1   AR   Ar   69   3.369   1.338   0.246
    1   AR   Ar   70   0.771   1.444   1.984
    1   AR   Ar   71   2.763   0.514   2.914
    1   AR   Ar   72   4.343   1.135   1.528
    1   AR   Ar   73   3.287   0.663   3.793
    1   AR   Ar   74   0.895   1.309   4.593
    1   AR   Ar   75   3.327   0.542   5.048
    1   AR   Ar   76   2.253   0.871   1.363
    1   AR   Ar   77   1.809   0.243   5.687
    1   AR   Ar   78   7.060   5.478   6.287
    1   AR   Ar   79   3.268   6.702   6.159
    1   AR   Ar   80   3.901   5.463   5.280
    1   AR   Ar   81   1.165   6.784   1.443
    1   AR   Ar   82   6.584   4.678   0.672
    1   AR   Ar   83   0.860   3.156  -0.196
    1   AR   Ar   84   1.333   3.970   0.903
    1   AR   Ar   85   2.655   3.553  -0.061
    1   AR   Ar   86   2.010   5.411   0.974
    1   AR   Ar   87   3.226   3.444   2.249
    1   AR   Ar   88   3.252   5.463   1.476
    1   AR   Ar   89   6.847   1.987   0.846
    1   AR   Ar   90   3.438   1.682   5.176
    1   AR   Ar   91   1.707   1.982   2.836
    1   AR   Ar   92   1.698   3.525   1.885
    1   AR   Ar   93   1.941   1.455   6.190
    1   AR   Ar   94   1.130   6.516   8.885
    1   AR   Ar   95   4.506   1.271   5.299
    1   AR   Ar   96   2.723   6.880   4.325
    1   AR   Ar   97   3.551   1.864  -0.681
    1   AR   Ar   98   1.758   4.435   4.241
    1   AR   Ar   99   6.222   1.523  -0.422
    1   AR   Ar  100   7.104   3.268  -2.606
    1   AR   Ar  101   4.005   5.900   2.262
    1   AR   Ar  102   3.904   1.480   3.129
    1   AR   Ar  103   2.437   4.495   0.725
    1   AR   Ar  104   3.291   5.756  -1.044
    1   AR   Ar  105   2.335   1.406   3.684
    1   AR   Ar  106   3.732   2.600   5.696
    1   AR   Ar  107   1.172   4.859   5.040
    1   AR   Ar  108   2.228   1.418   4.856
    1   AR   Ar  109   1.638   3.218   5.019
    1   AR   Ar  110   2.695   2.406   4.503
    1   AR   Ar  111   4.560   6.354   7.599
    1   AR   Ar  112   0.254   6.401   5.978
    1   AR   Ar  113   3.128   4.539  -0.777
    1   AR   Ar  114   2.684   0.197  -1.496
    1   AR   Ar  115   1.849   4.795  -0.115
    1   AR   Ar  116   4.676   0.695   0.608
    1   AR   Ar  117   0.530   4.987   4.222
    1   AR   Ar  118   1.224   5.578   3.382
    1   AR   Ar  119   2.064   4.234   2.628
    1   AR   Ar  120   1.376   6.844   2.481
    1   AR   Ar  121   5.452   4.406   5.552
    1   AR   Ar  122   3.147   5.712   3.981
    1   AR   Ar  123   2.905   3.159   5.233
    1   AR   Ar  124   0.987   5.516   1.399
    1   AR   Ar  125   6.396   3.513   4.618
    1   AR   Ar  126   6.990   0.615   6.538
    1   AR   Ar  127   4.654   3.060   6.153
    1   AR   Ar  128   3.020   3.603   7.516
    1   AR   Ar  129   2.190   5.593   4.629
    1   AR   Ar  130   4.436   1.215  -4.610
    1   AR   Ar  131   4.424   5.147  -2.381
    1   AR   Ar  132   0.572   1.672   0.307
    1   AR   Ar  133   4.318   0.513   4.557
    1   AR   Ar  134   3.574   1.521   4.208
    1   AR   Ar  135   5.859   1.330   3.567
    1   AR   Ar  136   6.329   0.133   2.594
    1   AR   Ar  137   3.122   4.557   6.014
    1   AR   Ar  138   5.686   1.655   5.611
    1   AR   Ar  139   5.982   2.666   5.591
    1   AR   Ar  140   4.177   6.465   4.959
    1   AR   Ar  141   4.055   5.136   4.141
    1   AR   Ar  142   4.965   0.140   6.822
    1   AR   Ar  143   6.039   6.525   6.510
    1   AR   Ar  144   6.360   1.811   4.785
    1   AR   Ar  145   4.210   4.981  -0.532
    1   AR   Ar  146   3.927   2.495   2.895
    1   AR   Ar  147   5.018   3.672  -0.616
    1   AR   Ar  148   3.557   6.734  -1.160
    1   AR   Ar  149   2.514   0.092  -0.323
    1   AR   Ar  150   2.094   2.854   2.482
    1   AR   Ar  151   2.853   2.440   3.430
    1   AR   Ar  152   1.023   2.484  -1.886
    1   AR   Ar  153   5.305   0.402   3.690
    1   AR   Ar  154   4.583   1.891   4.009
    1   AR   Ar  155   6.177   3.651   5.940
    1   AR   Ar  156   2.970   4.401   3.177
    1   AR   Ar  157   1.694   4.969   6.640
    1   AR   Ar  158   0.586   1.512   5.846
    1   AR   Ar  159   3.798   0.490   6.082
    1   AR   Ar  160   1.529   2.212   5.229
    1   AR   Ar  161   4.813   4.535   3.317
    1   AR   Ar  162   4.184   6.059  -0.320
    1   AR   Ar  163   5.511   4.773   1.018
    1   AR   Ar  164   1.845   5.854   1.940
    1   AR   Ar  165   3.499   4.075   1.093
    1   AR   Ar  166   2.700   3.435   4.201
    1   AR   Ar  167   5.959   6.453   3.242
    1   AR   Ar  168   5.226   3.772  -1.830
    1   AR   Ar  169   3.506   3.337   3.380
    1   AR   Ar  170   2.144   3.084   6.103
    1   AR   Ar  171   5.599   4.745   4.506
    1   AR   Ar  172   3.821   3.909   5.467
    1   AR   Ar  173   2.537   2.164   5.652
    1   AR   Ar  174   3.200   6.218   4.932
    1   AR   Ar  175   2.958   1.178   5.990
    1   AR   Ar  176   3.727   2.665   4.111
    1   AR   Ar  177   1.140   4.936  -1.222
    1   AR   Ar  178   2.559   6.124   0.146
    1   AR   Ar  179   3.074   6.910   0.452
    1   AR   Ar  180   4.694   1.847  -6.243
    1   AR   Ar  181   7.118   5.301   1.713
    1   AR   Ar  182   0.627   6.004   2.174
    1   AR   Ar  183   4.858   5.560   1.569
    1   AR   Ar  184   4.245   6.871   0.407
    1   AR   Ar  185   3.078   4.892   4.923
    1   AR   Ar  186   2.320   5.438   3.485
    1   AR   Ar  187   3.626   6.609   3.753
    1   AR   Ar  188   2.604   6.662   2.239
    1   AR   Ar  189   5.314   3.779   6.649
    1   AR   Ar  190   2.619   6.481   3.380
    1   AR   Ar  191   3.325   6.612   7.307
    1   AR   Ar  192   4.771   4.984   6.265
    1   AR   Ar  193   2.429   6.567   1.155
    1   AR   Ar  194   5.321   4.652  -0.873
    1   AR   Ar  195   5.434   1.354   0.763
    1   AR   Ar  196   3.962   0.414  -0.395
    1   AR   Ar  197   4.248   2.366   0.702
    1   AR   Ar  198   5.659   0.314   1.425
    1   AR   Ar  199   1.697   0.547   3.459
    1   AR   Ar  200   5.164   2.988   0.464
    1   AR   Ar  201   6.624   6.207   2.512
    1   AR   Ar  202   5.325   0.690   5.054
    1   AR   Ar  203   0.525   6.210   3.264
    1   AR   Ar  204   4.669   5.999   6.161
    1   AR   Ar  205   6.412   1.743   1.770
    1   AR   Ar  206   6.085   0.700   5.852
    1   AR   Ar  207   0.305   2.656   4.929
    1   AR   Ar  208   1.049   6.046   4.399
    1   AR   Ar  209   7.109   2.196  -2.379
    1   AR   Ar  210   1.791   0.054   0.431
    1   AR   Ar  211   0.307   3.253   0.913
    1   AR   Ar  212   5.986   3.953  -0.020
    1   AR   Ar  213   3.614   1.780   1.791
    1   AR   Ar  214   4.742   4.183   2.314
    1   AR   Ar  215   6.808   2.953   2.284
    1   AR   Ar  216   1.309   2.944   1.219
    1   AR   Ar  217   5.065   1.754   3.025
    1   AR   Ar  218   4.882   3.122   4.418
    1   AR   Ar  219   4.767   3.212   3.123
    1   AR   Ar  220   4.491   3.624   1.167
    1   AR   Ar  221   6.639   5.745   4.280
    1   AR   Ar  222   5.204   0.039   5.795
    1   AR   Ar  223   6.742   1.665   6.396
    1   AR   Ar  224   4.705   2.501   5.346
    1   AR   Ar  225   6.416   3.058   3.378
    1   AR   Ar  226   1.363   3.425   3.124
    1   AR   Ar  227   0.752   3.243   2.166
    1   AR   Ar  228   6.703   0.740   1.231
    1   AR   Ar  229   6.388   4.465  -1.037
    1   AR   Ar  230   3.574   4.172   4.313
    1   AR   Ar  231   4.503   2.111   2.171
    1   AR   Ar  232   5.281   2.978   1.819
    1   AR   Ar  233   6.864   2.324   4.004
    1   AR   Ar  234   5.876   2.633   4.231
    1   AR   Ar  235   6.784   0.234   3.675
    1   AR   Ar  236   5.002   5.774   4.968
    1   AR   Ar  237   4.866   2.242   6.869
    1   AR   Ar  238   5.687   5.644   6.451
    1   AR   Ar  239   0.522   4.322  10.540
    1   AR   Ar  240   1.011   2.107   6.770
    1   AR   Ar  241   2.528   6.256  -0.827
    1   AR   Ar  242   5.765   6.385   1.580
    1   AR   Ar  243   4.897   5.954   2.926
    1   AR   Ar  244   0.222   5.407   0.406
    1   AR   Ar  245   4.026   0.266   2.798
    1   AR   Ar  246   5.562   6.537  -0.778
    1   AR   Ar  247   6.641   3.652   1.364
    1   AR   Ar  248   5.058   6.110   0.297
    1   AR   Ar  249   4.676   6.822   1.739
    1   AR   Ar  250   5.070   6.026   3.978
    1   AR   Ar  251   4.561   4.491   4.792
    1   AR   Ar  252   2.994   4.563   2.145
    1   AR   Ar  253   6.207   2.749   6.859
    1   AR   Ar  254   4.827   1.827   9.969
    1   AR   Ar  255   3.572   5.644   9.904
    1   AR   Ar  256   5.838   5.280   3.414
    7.12000  7.12000 12.00000
Argon-slab step 4530
  256
    1   AR   Ar    1   4.788   3.442  -2.745
    1   AR   Ar    2   5.395   7.053   0.513
    1   AR   Ar    3   3.570   3.198  -1.120
    1   AR   Ar    4   1.749   1.516   0.632
    1   AR   Ar    5   5.996   5.722  -0.119
    1   AR   Ar    6   1.743   1.717   1.658
    1   AR   Ar    7   5.825   4.213   3.388
    1   AR   Ar    8   5.633   2.329  -0.784
    1   AR   Ar    9   0.706   0.252   4.128
    1   AR   Ar   10   6.336   6.863   4.755
    1   AR   Ar   11   1.567   7.115   4.609
    1   AR   Ar   12   6.968   1.263   3.803
    1   AR   Ar   13   6.755   0.645   4.616
    1   AR   Ar   14   3.996   1.569   6.234
    1   AR   Ar   15   3.585   7.009   8.992
    1   AR   Ar   16   0.097   0.379   5.403
    1   AR   Ar   17   6.202   2.878   0.803
    1   AR   Ar   18   6.493   5.596  -1.350
    1   AR   Ar   19   4.929   4.501   0.178
    1   AR   Ar   20   6.749   4.344  -2.767
    1   AR   Ar   21   2.930   1.971   2.501
    1   AR   Ar   22   5.469   1.220   2.069
    1   AR   Ar   23   0.191   6.217   1.063
    1   AR   Ar   24   5.835   2.447   2.739
    1   AR   Ar   25   0.868   2.251   3.922
    1   AR   Ar   26   5.064   6.887   4.662
    1   AR   Ar   27   1.772   0.991   2.512
    1   AR   Ar   28   1.872   2.484   3.933
    1   AR   Ar   29   4.757   1.239   7.161
    1   AR   Ar   30   0.891   1.391   3.402
    1   AR   Ar   31   4.076   0.366   7.487
    1   AR   Ar   32   0.812   2.574   5.865
    1   AR   Ar   33   0.717   4.146  -0.268
    1   AR   Ar   34   0.896   4.705   2.379
    1   AR   Ar   35   5.452   4.860   2.557
    1   AR   Ar   36   6.243   2.676  -2.727
    1   AR   Ar   37   4.211   3.282   2.147
    1   AR   Ar   38   6.753   4.339   4.061
    1   AR   Ar   39   0.417   3.059   3.235
    1   AR   Ar   40   1.784   4.861   1.805
    1   AR   Ar   41   0.422   2.268   2.455
    1   AR   Ar   42   5.880   5.990   5.457
    1   AR   Ar   43   6.897   2.636   6.054
    1   AR   Ar   44   0.594   4.149   3.382
    1   AR   Ar   45   0.055   3.646   5.701
    1   AR   Ar   46   0.790   4.516   6.477
    1   AR   Ar   47   3.869   5.372   7.524
    1   AR   Ar   48   5.776   3.676   7.559
    1   AR   Ar   49   6.611   0.081  -0.722
    1   AR   Ar   50   3.414   5.326   0.402
    1   AR   Ar   51   5.820   3.674   2.516
    1   AR   Ar   52   4.866   2.816  -1.518
    1   AR   Ar   53   5.237   0.176   2.507
    1   AR   Ar   54   0.253   0.377   2.142
    1   AR   Ar   55   6.772   4.277   2.637
    1   AR   Ar   56   6.594   1.259   2.861
    1   AR   Ar   57   3.906   4.134   2.977
    1   AR   Ar   58   0.509   3.775   4.526
    1   AR   Ar   59   2.696   5.735   5.818
    1   AR   Ar   60   7.070   5.121   3.310
    1   AR   Ar   61   6.848   3.829   7.157
    1   AR   Ar   62   6.813   4.408   5.088
    1   AR   Ar   63   2.234   2.738   7.045
    1   AR   Ar   64   0.243   5.353   5.275
    1   AR   Ar   65   3.456   0.141   1.811
    1   AR   Ar   66   0.895   0.853   0.981
    1   AR   Ar   67   5.069   0.537  -0.603
    1   AR   Ar   68   0.928   1.156  -0.641
    1   AR   Ar   69   3.369   1.382   0.233
    1   AR   Ar   70   0.786   1.455   1.994
    1   AR   Ar   71   2.740   0.499   2.909
    1   AR   Ar   72   4.337   1.119   1.513
    1   AR   Ar   73   3.257   0.667   3.798
    1   AR   Ar   74   0.887   1.285   4.610
    1   AR   Ar   75   3.331   0.522   5.068
    1   AR   Ar   76   2.245   0.870   1.380
    1   AR   Ar   77   1.838   0.244   5.689
    1   AR   Ar   78   7.035   5.476   6.294
    1   AR   Ar   79   3.245   6.709   6.130
    1   AR   Ar   80   3.918   5.442   5.252
    1   AR   Ar   81   1.164   6.780   1.473
    1   AR   Ar   82   6.572   4.672   0.690
    1   AR   Ar   83   0.850   3.146  -0.230
    1   AR   Ar   84   1.363   3.972   0.918
    1   AR   Ar   85   2.674   3.578  -0.075
    1   AR   Ar   86   2.028   5.422   0.989
    1   AR   Ar   87   3.201   3.429   2.256
    1   AR   Ar   88   3.251   5.478   1.493
    1   AR   Ar   89   6.841   1.967   0.845
    1   AR   Ar   90   3.443   1.672   5.177
    1   AR   Ar   91   1.727   2.012   2.877
    1   AR   Ar   92   1.695   3.547   1.910
    1   AR   Ar   93   1.928   1.451   6.210
    1   AR   Ar   94   1.147   6.476   8.863
    1   AR   Ar   95   4.498   1.273   5.297
    1   AR   Ar   96   2.696   6.876   4.335
    1   AR   Ar   97   3.564   1.895  -0.677
    1   AR   Ar   98   1.746   4.436   4.243
    1   AR   Ar   99   6.182   1.492  -0.442
    1   AR   Ar  100   7.103   3.270  -2.629
    1   AR   Ar  101   4.033   5.948   2.238
    1   AR   Ar  102   3.871   1.484   3.099
    1   AR   Ar  103   2.448   4.509   0.717
    1   AR   Ar  104   3.317   5.736  -1.068
    1   AR   Ar  105   2.354   1.417   3.685
    1   AR   Ar  106   3.701   2.617   5.686
    1   AR   Ar  107   1.194   4.865   5.039
    1   AR   Ar  108   2.221   1.423   4.869
    1   AR   Ar  109   1.655   3.257   5.038
    1   AR   Ar  110   2.713   2.422   4.537
    1   AR   Ar  111   4.551   6.352   7.606
    1   AR   Ar  112   0.245   6.395   5.983
    1   AR   Ar  113   3.098   4.554  -0.766
    1   AR   Ar  114   2.677   0.222  -1.492
    1   AR   Ar  115   1.840   4.790  -0.131
    1   AR   Ar  116   4.675   0.714   0.611
    1   AR   Ar  117   0.567   4.989   4.235
    1   AR   Ar  118   1.243   5.576   3.380
    1   AR   Ar  119   2.045   4.248   2.609
    1   AR   Ar  120   1.379   6.853   2.501
    1   AR   Ar  121   5.454   4.418   5.531
    1   AR   Ar  122   3.149   5.693   4.001
    1   AR   Ar  123   2.883   3.126   5.222
    1   AR   Ar  124   0.997   5.499   1.396
    1   AR   Ar  125   6.371   3.540   4.605
    1   AR   Ar  126   6.939   0.641   6.520
    1   AR   Ar  127   4.654   3.057   6.165
    1   AR   Ar  128   3.024   3.620   7.533
    1   AR   Ar  129   2.220   5.592   4.654
    1   AR   Ar  130   4.421   1.213  -4.634
    1   AR   Ar  131   4.406   5.159  -2.362
    1   AR   Ar  132   0.544   1.667   0.323
    1   AR   Ar  133   4.312   0.544   4.536
    1   AR   Ar  134   3.581   1.534   4.199
    1   AR   Ar  135   5.845   1.312   3.561
    1   AR   Ar  136   6.325   0.141   2.622
    1   AR   Ar  137   3.139   4.572   6.001
    1   AR   Ar  138   5.698   1.666   5.621
    1   AR   Ar  139   5.985   2.646   5.588
    1   AR   Ar  140   4.201   6.452   4.938
    1   AR   Ar  141   4.080   5.162   4.120
    1   AR   Ar  142   4.967   0.130   6.807
    1   AR   Ar  143   6.069   6.525   6.513
    1   AR   Ar  144   6.333   1.777   4.763
    1   AR   Ar  145   4.206   4.967  -0.532
    1   AR   Ar  146   3.945   2.507   2.904
    1   AR   Ar  147   5.023   3.644  -0.625
    1   AR   Ar  148   3.576   6.723  -1.191
    1   AR   Ar  149   2.506   0.088  -0.298
    1   AR   Ar  150   2.100   2.866   2.458
    1   AR   Ar  151   2.834   2.468   3.438
    1   AR   Ar  152   1.014   2.480  -1.901
    1   AR   Ar  153   5.335   0.418   3.659
    1   AR   Ar  154   4.626   1.873   4.030
    1   AR   Ar  155   6.200   3.644   5.971
    1   AR   Ar  156   2.962   4.417   3.195
    1   AR   Ar  157   1.688   4.979   6.653
    1   AR   Ar  158   0.586   1.491   5.836
    1   AR   Ar  159   3.797   0.471   6.094
    1   AR   Ar  160   1.541   2.192   5.214
    1   AR   Ar  161   4.845   4.548   3.355
    1   AR   Ar  162   4.199   6.053  -0.344
    1   AR   Ar  163   5.486   4.768   1.020
    1   AR   Ar  164   1.852   5.850   1.950
    1   AR   Ar  165   3.504   4.083   1.135
    1   AR   Ar  166   2.686   3.421   4.210
    1   AR   Ar  167   5.935   6.453   3.266
    1   AR   Ar  168   5.217   3.749  -1.850
    1   AR   Ar  169   3.528   3.345   3.389
    1   AR   Ar  170   2.144   3.101   6.107
    1   AR   Ar  171   5.599   4.752   4.501
    1   AR   Ar  172   3.836   3.917   5.482
    1   AR   Ar  173   2.547   2.173   5.634
    1   AR   Ar  174   3.174   6.221   4.927
    1   AR   Ar  175   2.940   1.197   5.992
    1   AR   Ar  176   3.717   2.620   4.127
    1   AR   Ar  177   1.124   4.927  -1.237
    1   AR   Ar  178   2.560   6.125   0.149
    1   AR   Ar  179   3.102   6.891   0.485
    1   AR   Ar  180   4.661   1.870  -6.253
    1   AR   Ar  181   7.116   5.253   1.708
    1   AR   Ar  182   0.620   6.012   2.142
    1   AR   Ar  183   4.875   5.581   1.573
    1   AR   Ar  184   4.247   6.866   0.404
    1   AR   Ar  185   3.058   4.903   4.942
    1   AR   Ar  186   2.312   5.418   3.475
    1   AR   Ar  187   3.633   6.610   3.734
    1   AR   Ar  188   2.589   6.687   2.230
    1   AR   Ar  189   5.300   3.762   6.649
    1   AR   Ar  190   2.618   6.530   3.397
    1   AR   Ar  191   3.332   6.585   7.280
    1   AR   Ar  192   4.744   4.979   6.280
    1   AR   Ar  193   2.457   6.550   1.160
    1   AR   Ar  194   5.333   4.661  -0.852
    1   AR   Ar  195   5.443   1.365   0.768
    1   AR   Ar  196   3.944   0.417  -0.416
    1   AR   Ar  197   4.260   2.363   0.704
    1   AR   Ar  198   5.663   0.301   1.456
    1   AR   Ar  199   1.669   0.545   3.480
    1   AR   Ar  200   5.149   3.002   0.473
    1   AR   Ar  201   6.633   6.237   2.495
    1   AR   Ar  202   5.359   0.702   5.074
    1   AR   Ar  203   0.564   6.195   3.258
    1   AR   Ar  204   4.673   5.997   6.153
    1   AR   Ar  205   6.375   1.740   1.767
    1   AR   Ar  206   6.067   0.688   5.883
    1   AR   Ar  207   0.318   2.664   4.905
    1   AR   Ar  208   1.050   6.034   4.404
    1   AR   Ar  209   7.111   2.197  -2.376
    1   AR   Ar  210   1.772   0.054   0.442
    1   AR   Ar  211   0.303   3.243   0.916
    1   AR   Ar  212   5.977   3.974  -0.046
    1   AR   Ar  213   3.639   1.792   1.809
    1   AR   Ar  214   4.751   4.174   2.290
    1   AR   Ar  215   6.798   2.936   2.303
    1   AR   Ar  216   1.299   2.914   1.218
    1   AR   Ar  217   5.030   1.721   3.062
    1   AR   Ar  218   4.859   3.109   4.429
    1   AR   Ar  219   4.770   3.202   3.130
    1   AR   Ar  220   4.497   3.593   1.165
    1   AR   Ar  221   6.649   5.765   4.270
    1   AR   Ar  222   5.187   0.040   5.803
    1   AR   Ar  223   6.766   1.693   6.388
    1   AR   Ar  224   4.729   2.470   5.340
    1   AR   Ar  225   6.412   3.044   3.369
    1   AR   Ar  226   1.365   3.431   3.126
    1   AR   Ar  227   0.770   3.222   2.174
    1   AR   Ar  228   6.657   0.745   1.255
    1   AR   Ar  229   6.394   4.452  -1.025
    1   AR   Ar  230   3.575   4.186   4.306
    1   AR   Ar  231   4.535   2.133   2.174
    1   AR   Ar  232   5.284   2.995   1.810
    1   AR   Ar  233   6.888   2.338   3.997
    1   AR   Ar  234   5.862   2.615   4.210
    1   AR   Ar  235   6.812   0.256   3.666
    1   AR   Ar  236   4.996   5.758   4.974
    1   AR   Ar  237   4.857   2.240   6.859
    1   AR   Ar  238   5.701   5.644   6.455
    1   AR   Ar  239   0.512   4.309  10.520
    1   AR   Ar  240   1.022   2.092   6.767
    1   AR   Ar  241   2.488   6.250  -0.852
    1   AR   Ar  242   5.809   6.408   1.572
    1   AR   Ar  243   4.923   5.947   2.903
    1   AR   Ar  244   0.239   5.419   0.371
    1   AR   Ar  245   4.033   0.295   2.819
    1   AR   Ar  246   5.547   6.563  -0.785
    1   AR   Ar  247   6.634   3.660   1.380
    1   AR   Ar  248   5.065   6.078   0.283
    1   AR   Ar  249   4.668   6.839   1.725
    1   AR   Ar  250   5.084   6.028   3.952
    1   AR   Ar  251   4.563   4.493   4.802
    1   AR   Ar  252   2.983   4.561   2.113
    1   AR   Ar  253   6.200   2.766   6.858
    1   AR   Ar  254   4.828   1.814   9.965
    1   AR   Ar  255   3.604   5.651   9.877
    1   AR   Ar  256   5.816   5.270   3.450
    7.12000  7.12000 12.00000
Argon-slab step 4535
  256
    1   AR   Ar    1   4.795   3.440  -2.771
    1   AR   Ar    2   5.385   7.045   0.530
    1   AR   Ar    3   3.588   3.212  -1.131
    1   AR   Ar    4   1.757   1.502   0.638
    1   AR   Ar    5   5.984   5.729  -0.123
    1   AR   Ar    6   1.736   1.729   1.632
    1   AR   Ar    7   5.825   4.209   3.384
    1   AR   Ar    8   5.627   2.351  -0.781
    1   AR   Ar    9   0.694   0.213   4.130
    1   AR   Ar   10   6.302   6.870   4.793
    1   AR   Ar   11   1.598   0.014   4.574
    1   AR   Ar   12   6.941   1.273   3.800
    1   AR   Ar   13   6.760   0.647   4.602
    1   AR   Ar   14   4.009   1.547   6.219
    1   AR   Ar   15   3.577   7.026   9.018
    1   AR   Ar   16   0.096   0.385   5.461
    1   AR   Ar   17   6.191   2.895   0.784
    1   AR   Ar   18   6.456   5.588  -1.384
    1   AR   Ar   19   4.995   4.497   0.181
    1   AR   Ar   20   6.760   4.330  -2.758
    1   AR   Ar   21   2.951   1.976   2.489
    1   AR   Ar   22   5.485   1.199   2.076
    1   AR   Ar   23   0.160   6.244   1.072
    1   AR   Ar   24   5.820   2.455   2.760
    1   AR   Ar   25   0.866   2.258   3.933
    1   AR   Ar   26   5.044   6.879   4.668
    1   AR   Ar   27   1.777   1.004   2.521
    1   AR   Ar   28   1.846   2.466   3.946
    1   AR   Ar   29   4.783   1.228   7.171
    1   AR   Ar   30   0.885   1.377   3.382
    1   AR   Ar   31   4.093   0.362   7.514
    1   AR   Ar   32   0.819   2.579   5.842
    1   AR   Ar   33   0.730   4.122  -0.255
    1   AR   Ar   34   0.926   4.691   2.393
    1   AR   Ar   35   5.451   4.908   2.580
    1   AR   Ar   36   6.249   2.686  -2.715
    1   AR   Ar   37   4.224   3.296   2.135
    1   AR   Ar   38   6.779   4.374   4.061
    1   AR   Ar   39   0.406   3.047   3.227
    1   AR   Ar   40   1.761   4.850   1.824
    1   AR   Ar   41   0.397   2.276   2.447
    1   AR   Ar   42   5.877   5.999   5.467
    1   AR   Ar   43   6.909   2.657   6.049
    1   AR   Ar   44   0.617   4.127   3.413
    1   AR   Ar   45   0.069   3.619   5.692
    1   AR   Ar   46   0.798   4.521   6.504
    1   AR   Ar   47   3.882   5.397   7.526
    1   AR   Ar   48   5.801   3.672   7.560
    1   AR   Ar   49   6.638   0.075  -0.708
    1   AR   Ar   50   3.394   5.300   0.389
    1   AR   Ar   51   5.857   3.662   2.547
    1   AR   Ar   52   4.866   2.794  -1.518
    1   AR   Ar   53   5.205   0.164   2.533
    1   AR   Ar   54   0.259   0.390   2.140
    1   AR   Ar   55   6.797   4.285   2.642
    1   AR   Ar   56   6.552   1.257   2.832
    1   AR   Ar   57   3.900   4.100   2.953
    1   AR   Ar   58   0.508   3.770   4.585
    1   AR   Ar   59   2.682   5.782   5.824
    1   AR   Ar   60   7.075   5.150   3.323
    1   AR   Ar   61   6.850   3.810   7.161
    1   AR   Ar   62   6.822   4.363   5.091
    1   AR   Ar   63   2.248   2.719   7.063
    1   AR   Ar   64   0.255   5.371   5.261
    1   AR   Ar   65   3.486   0.159   1.827
    1   AR   Ar   66   0.890   0.841   0.973
    1   AR   Ar   67   5.063   0.543  -0.601
    1   AR   Ar   68   0.907   1.137  -0.637
    1   AR   Ar   69   3.370   1.422   0.223
    1   AR   Ar   70   0.796   1.451   1.980
    1   AR   Ar   71   2.715   0.484   2.901
    1   AR   Ar   72   4.335   1.099   1.501
    1   AR   Ar   73   3.226   0.663   3.805
    1   AR   Ar   74   0.879   1.262   4.625
    1   AR   Ar   75   3.335   0.504   5.087
    1   AR   Ar   76   2.239   0.863   1.396
    1   AR   Ar   77   1.868   0.247   5.689
    1   AR   Ar   78   7.008   5.469   6.304
    1   AR   Ar   79   3.221   6.712   6.099
    1   AR   Ar   80   3.917   5.436   5.231
    1   AR   Ar   81   1.164   6.775   1.500
    1   AR   Ar   82   6.560   4.665   0.708
    1   AR   Ar   83   0.842   3.128  -0.262
    1   AR   Ar   84   1.393   3.975   0.933
    1   AR   Ar   85   2.694   3.605  -0.089
    1   AR   Ar   86   2.049   5.439   0.998
    1   AR   Ar   87   3.170   3.416   2.266
    1   AR   Ar   88   3.248   5.493   1.510
    1   AR   Ar   89   6.832   1.948   0.845
    1   AR   Ar   90   3.448   1.664   5.203
    1   AR   Ar   91   1.744   2.037   2.922
    1   AR   Ar   92   1.692   3.586   1.926
    1   AR   Ar   93   1.911   1.448   6.230
    1   AR   Ar   94   1.162   6.448   8.848
    1   AR   Ar   95   4.488   1.278   5.297
    1   AR   Ar   96   2.667   6.882   4.347
    1   AR   Ar   97   3.578   1.928  -0.676
    1   AR   Ar   98   1.735   4.437   4.243
    1   AR   Ar   99   6.142   1.458  -0.459
    1   AR   Ar  100   7.104   3.276  -2.652
    1   AR   Ar  101   4.061   5.996   2.213
    1   AR   Ar  102   3.837   1.484   3.069
    1   AR   Ar  103   2.462   4.518   0.709
    1   AR   Ar  104   3.351   5.704  -1.092
    1   AR   Ar  105   2.374   1.429   3.684
    1   AR   Ar  106   3.670   2.633   5.678
    1   AR   Ar  107   1.218   4.870   5.043
    1   AR   Ar  108   2.202   1.389   4.845
    1   AR   Ar  109   1.672   3.296   5.057
    1   AR   Ar  110   2.732   2.425   4.568
    1   AR   Ar  111   4.525   6.334   7.621
    1   AR   Ar  112   0.237   6.394   5.986
    1   AR   Ar  113   3.112   4.555  -0.755
    1   AR   Ar  114   2.670   0.246  -1.485
    1   AR   Ar  115   1.830   4.786  -0.147
    1   AR   Ar  116   4.669   0.731   0.610
    1   AR   Ar  117   0.601   4.991   4.244
    1   AR   Ar  118   1.278   5.551   3.385
    1   AR   Ar  119   2.027   4.262   2.595
    1   AR   Ar  120   1.383   6.862   2.524
    1   AR   Ar  121   5.456   4.429   5.512
    1   AR   Ar  122   3.153   5.674   4.024
    1   AR   Ar  123   2.862   3.103   5.218
    1   AR   Ar  124   1.010   5.475   1.382
    1   AR   Ar  125   6.364   3.565   4.605
    1   AR   Ar  126   6.889   0.664   6.502
    1   AR   Ar  127   4.652   3.057   6.180
    1   AR   Ar  128   3.028   3.637   7.548
    1   AR   Ar  129   2.240   5.578   4.631
    1   AR   Ar  130   4.399   1.223  -4.635
    1   AR   Ar  131   4.388   5.170  -2.343
    1   AR   Ar  132   0.523   1.660   0.335
    1   AR   Ar  133   4.305   0.574   4.511
    1   AR   Ar  134   3.590   1.552   4.184
    1   AR   Ar  135   5.834   1.298   3.561
    1   AR   Ar  136   6.321   0.152   2.649
    1   AR   Ar  137   3.155   4.587   5.988
    1   AR   Ar  138   5.706   1.672   5.633
    1   AR   Ar  139   5.984   2.631   5.580
    1   AR   Ar  140   4.218   6.439   4.918
    1   AR   Ar  141   4.107   5.190   4.098
    1   AR   Ar  142   4.945   0.137   6.790
    1   AR   Ar  143   6.106   6.544   6.515
    1   AR   Ar  144   6.308   1.741   4.740
    1   AR   Ar  145   4.188   4.955  -0.522
    1   AR   Ar  146   3.957   2.521   2.917
    1   AR   Ar  147   5.029   3.615  -0.634
    1   AR   Ar  148   3.595   6.718  -1.221
    1   AR   Ar  149   2.502   0.125  -0.309
    1   AR   Ar  150   2.116   2.870   2.441
    1   AR   Ar  151   2.815   2.496   3.446
    1   AR   Ar  152   1.011   2.491  -1.924
    1   AR   Ar  153   5.362   0.429   3.629
    1   AR   Ar  154   4.668   1.857   4.053
    1   AR   Ar  155   6.217   3.637   6.004
    1   AR   Ar  156   2.947   4.434   3.218
    1   AR   Ar  157   1.683   4.989   6.665
    1   AR   Ar  158   0.586   1.469   5.824
    1   AR   Ar  159   3.800   0.457   6.105
    1   AR   Ar  160   1.563   2.141   5.177
    1   AR   Ar  161   4.871   4.563   3.397
    1   AR   Ar  162   4.208   6.063  -0.349
    1   AR   Ar  163   5.464   4.764   1.025
    1   AR   Ar  164   1.867   5.853   1.964
    1   AR   Ar  165   3.507   4.092   1.179
    1   AR   Ar  166   2.671   3.411   4.216
    1   AR   Ar  167   5.907   6.453   3.294
    1   AR   Ar  168   5.211   3.731  -1.865
    1   AR   Ar  169   3.542   3.345   3.405
    1   AR   Ar  170   2.128   3.109   6.090
    1   AR   Ar  171   5.600   4.760   4.492
    1   AR   Ar  172   3.852   3.923   5.494
    1   AR   Ar  173   2.559   2.182   5.617
    1   AR   Ar  174   3.150   6.227   4.927
    1   AR   Ar  175   2.927   1.207   5.994
    1   AR   Ar  176   3.710   2.573   4.144
    1   AR   Ar  177   1.108   4.917  -1.251
    1   AR   Ar  178   2.557   6.117   0.156
    1   AR   Ar  179   3.146   6.883   0.518
    1   AR   Ar  180   4.640   1.881  -6.260
    1   AR   Ar  181   7.113   5.207   1.700
    1   AR   Ar  182   0.611   6.029   2.122
    1   AR   Ar  183   4.893   5.602   1.578
    1   AR   Ar  184   4.248   6.859   0.403
    1   AR   Ar  185   3.045   4.899   4.950
    1   AR   Ar  186   2.344   5.425   3.455
    1   AR   Ar  187   3.644   6.615   3.716
    1   AR   Ar  188   2.573   6.711   2.223
    1   AR   Ar  189   5.285   3.746   6.645
    1   AR   Ar  190   2.613   6.576   3.404
    1   AR   Ar  191   3.387   6.567   7.231
    1   AR   Ar  192   4.719   4.968   6.294
    1   AR   Ar  193   2.476   6.529   1.172
    1   AR   Ar  194   5.344   4.671  -0.831
    1   AR   Ar  195   5.457   1.379   0.776
    1   AR   Ar  196   3.924   0.420  -0.437
    1   AR   Ar  197   4.273   2.359   0.708
    1   AR   Ar  198   5.666   0.295   1.491
    1   AR   Ar  199   1.640   0.541   3.503
    1   AR   Ar  200   5.134   3.017   0.482
    1   AR   Ar  201   6.646   6.265   2.475
    1   AR   Ar  202   5.359   0.702   5.091
    1   AR   Ar  203   0.560   6.201   3.257
    1   AR   Ar  204   4.689   5.977   6.180
    1   AR   Ar  205   6.325   1.745   1.778
    1   AR   Ar  206   6.052   0.675   5.913
    1   AR   Ar  207   0.330   2.671   4.880
    1   AR   Ar  208   1.050   6.021   4.407
    1   AR   Ar  209   7.085   2.204  -2.373
    1   AR   Ar  210   1.751   0.053   0.457
    1   AR   Ar  211   0.305   3.229   0.916
    1   AR   Ar  212   5.967   3.997  -0.072
    1   AR   Ar  213   3.660   1.806   1.823
    1   AR   Ar  214   4.758   4.160   2.264
    1   AR   Ar  215   6.783   2.924   2.322
    1   AR   Ar  216   1.286   2.877   1.214
    1   AR   Ar  217   4.993   1.689   3.095
    1   AR   Ar  218   4.835   3.095   4.438
    1   AR   Ar  219   4.774   3.194   3.136
    1   AR   Ar  220   4.506   3.563   1.162
    1   AR   Ar  221   6.659   5.783   4.259
    1   AR   Ar  222   5.169   0.033   5.811
    1   AR   Ar  223   6.788   1.716   6.382
    1   AR   Ar  224   4.755   2.432   5.327
    1   AR   Ar  225   6.411   3.036   3.360
    1   AR   Ar  226   1.374   3.438   3.126
    1   AR   Ar  227   0.782   3.201   2.182
    1   AR   Ar  228   6.612   0.751   1.280
    1   AR   Ar  229   6.401   4.439  -1.013
    1   AR   Ar  230   3.576   4.199   4.298
    1   AR   Ar  231   4.577   2.155   2.173
    1   AR   Ar  232   5.288   2.995   1.817
    1   AR   Ar  233   6.912   2.354   3.991
    1   AR   Ar  234   5.846   2.597   4.189
    1   AR   Ar  235   6.839   0.271   3.650
    1   AR   Ar  236   4.987   5.738   4.980
    1   AR   Ar  237   4.850   2.241   6.847
    1   AR   Ar  238   5.706   5.625   6.458
    1   AR   Ar  239   0.502   4.295  10.501
    1   AR   Ar  240   1.041   2.082   6.749
    1   AR   Ar  241   2.440   6.252  -0.883
    1   AR   Ar  242   5.852   6.426   1.566
    1   AR   Ar  243   4.950   5.946   2.876
    1   AR   Ar  244   0.258   5.429   0.334
    1   AR   Ar  245   3.993   0.312   2.849
    1   AR   Ar  246   5.531   6.588  -0.790
    1   AR   Ar  247   6.621   3.674   1.402
    1   AR   Ar  248   5.072   6.044   0.270
    1   AR   Ar  249   4.660   6.855   1.709
    1   AR   Ar  250   5.090   6.028   3.930
    1   AR   Ar  251   4.565   4.494   4.814
    1   AR   Ar  252   2.973   4.559   2.079
    1   AR   Ar  253   6.186   2.778   6.859
    1   AR   Ar  254   4.830   1.800   9.961
    1   AR   Ar  255   3.637   5.657   9.849
    1   AR   Ar  256   5.796   5.265   3.489
    7.12000  7.12000 12.00000
Argon-slab step 4540
  256
    1   AR   Ar    1   4.802   3.436  -2.801
    1   AR   Ar    2   5.375   7.037   0.545
    1   AR   Ar    3   3.608   3.227  -1.142
    1   AR   Ar    4   1.764   1.487   0.637
    1   AR   Ar    5   5.975   5.734  -0.128
    1   AR   Ar    6   1.729   1.747   1.613
    1   AR   Ar    7   5.838   4.203   3.383
    1   AR   Ar    8   5.634   2.376  -0.781
    1   AR   Ar    9   0.679   0.177   4.131
    1   AR   Ar   10   6.265   6.872   4.833
    1   AR   Ar   11   1.633   0.032   4.541
    1   AR   Ar   12   6.918   1.292   3.799
    1   AR   Ar   13   6.763   0.656   4.588
    1   AR   Ar   14   4.023   1.527   6.206
    1   AR   Ar   15   3.569   7.042   9.042
    1   AR   Ar   16   0.098   0.388   5.527
    1   AR   Ar   17   6.180   2.910   0.766
    1   AR   Ar   18   6.419   5.579  -1.416
    1   AR   Ar   19   5.057   4.489   0.177
    1   AR   Ar   20   6.771   4.317  -2.749
    1   AR   Ar   21   2.962   1.983   2.485
    1   AR   Ar   22   5.497   1.176   2.085
    1   AR   Ar   23   0.131   6.271   1.084
    1   AR   Ar   24   5.815   2.452   2.749
    1   AR   Ar   25   0.856   2.267   3.946
    1   AR   Ar   26   5.073   6.900   4.667
    1   AR   Ar   27   1.784   1.012   2.522
    1   AR   Ar   28   1.827   2.450   3.960
    1   AR   Ar   29   4.808   1.214   7.181
    1   AR   Ar   30   0.880   1.359   3.360
    1   AR   Ar   31   4.109   0.357   7.540
    1   AR   Ar   32   0.817   2.564   5.807
    1   AR   Ar   33   0.743   4.109  -0.240
    1   AR   Ar   34   0.951   4.676   2.411
    1   AR   Ar   35   5.452   4.957   2.596
    1   AR   Ar   36   6.246   2.698  -2.705
    1   AR   Ar   37   4.236   3.305   2.127
    1   AR   Ar   38   6.820   4.356   4.056
    1   AR   Ar   39   0.390   3.035   3.220
    1   AR   Ar   40   1.742   4.833   1.835
    1   AR   Ar   41   0.377   2.275   2.443
    1   AR   Ar   42   5.877   6.012   5.478
    1   AR   Ar   43   6.924   2.683   6.043
    1   AR   Ar   44   0.638   4.108   3.446
    1   AR   Ar   45   0.092   3.589   5.683
    1   AR   Ar   46   0.798   4.523   6.529
    1   AR   Ar   47   3.896   5.422   7.527
    1   AR   Ar   48   5.828   3.666   7.562
    1   AR   Ar   49   6.653   0.067  -0.709
    1   AR   Ar   50   3.374   5.274   0.374
    1   AR   Ar   51   5.893   3.644   2.570
    1   AR   Ar   52   4.866   2.771  -1.516
    1   AR   Ar   53   5.174   0.153   2.561
    1   AR   Ar   54   0.266   0.404   2.137
    1   AR   Ar   55   6.823   4.291   2.649
    1   AR   Ar   56   6.513   1.255   2.794
    1   AR   Ar   57   3.905   4.082   2.918
    1   AR   Ar   58   0.506   3.765   4.643
    1   AR   Ar   59   2.654   5.810   5.836
    1   AR   Ar   60   7.075   5.174   3.337
    1   AR   Ar   61   6.851   3.790   7.162
    1   AR   Ar   62   6.834   4.346   5.099
    1   AR   Ar   63   2.262   2.699   7.084
    1   AR   Ar   64   0.266   5.389   5.246
    1   AR   Ar   65   3.517   0.176   1.843
    1   AR   Ar   66   0.896   0.817   0.965
    1   AR   Ar   67   5.057   0.548  -0.597
    1   AR   Ar   68   0.886   1.118  -0.631
    1   AR   Ar   69   3.370   1.461   0.216
    1   AR   Ar   70   0.796   1.432   1.932
    1   AR   Ar   71   2.688   0.469   2.891
    1   AR   Ar   72   4.337   1.077   1.493
    1   AR   Ar   73   3.196   0.655   3.813
    1   AR   Ar   74   0.871   1.240   4.641
    1   AR   Ar   75   3.338   0.486   5.105
    1   AR   Ar   76   2.235   0.850   1.412
    1   AR   Ar   77   1.895   0.223   5.704
    1   AR   Ar   78   6.977   5.457   6.315
    1   AR   Ar   79   3.194   6.712   6.067
    1   AR   Ar   80   3.889   5.455   5.217
    1   AR   Ar   81   1.163   6.769   1.522
    1   AR   Ar   82   6.548   4.658   0.726
    1   AR   Ar   83   0.834   3.101  -0.293
    1   AR   Ar   84   1.423   3.980   0.948
    1   AR   Ar   85   2.713   3.634  -0.102
    1   AR   Ar   86   2.071   5.462   1.003
    1   AR   Ar   87   3.137   3.404   2.278
    1   AR   Ar   88   3.244   5.508   1.526
    1   AR   Ar   89   6.815   1.933   0.849
    1   AR   Ar   90   3.453   1.658   5.230
    1   AR   Ar   91   1.760   2.059   2.969
    1   AR   Ar   92   1.689   3.627   1.930
    1   AR   Ar   93   1.891   1.446   6.247
    1   AR   Ar   94   1.174   6.467   8.861
    1   AR   Ar   95   4.477   1.286   5.297
    1   AR   Ar   96   2.635   6.898   4.363
    1   AR   Ar   97   3.594   1.963  -0.678
    1   AR   Ar   98   1.725   4.436   4.240
    1   AR   Ar   99   6.103   1.422  -0.475
    1   AR   Ar  100   7.109   3.283  -2.674
    1   AR   Ar  101   4.088   6.046   2.188
    1   AR   Ar  102   3.806   1.479   3.071
    1   AR   Ar  103   2.479   4.525   0.703
    1   AR   Ar  104   3.387   5.667  -1.113
    1   AR   Ar  105   2.395   1.442   3.684
    1   AR   Ar  106   3.643   2.646   5.671
    1   AR   Ar  107   1.245   4.876   5.054
    1   AR   Ar  108   2.188   1.353   4.819
    1   AR   Ar  109   1.690   3.334   5.074
    1   AR   Ar  110   2.748   2.406   4.586
    1   AR   Ar  111   4.499   6.317   7.635
    1   AR   Ar  112   0.229   6.397   5.986
    1   AR   Ar  113   3.125   4.558  -0.743
    1   AR   Ar  114   2.664   0.268  -1.476
    1   AR   Ar  115   1.820   4.781  -0.163
    1   AR   Ar  116   4.661   0.743   0.602
    1   AR   Ar  117   0.630   4.993   4.246
    1   AR   Ar  118   1.322   5.515   3.392
    1   AR   Ar  119   2.015   4.266   2.599
    1   AR   Ar  120   1.388   6.870   2.551
    1   AR   Ar  121   5.459   4.441   5.496
    1   AR   Ar  122   3.161   5.655   4.048
    1   AR   Ar  123   2.842   3.100   5.229
    1   AR   Ar  124   1.025   5.448   1.361
    1   AR   Ar  125   6.381   3.590   4.621
    1   AR   Ar  126   6.845   0.686   6.487
    1   AR   Ar  127   4.628   3.055   6.192
    1   AR   Ar  128   3.031   3.653   7.563
    1   AR   Ar  129   2.256   5.561   4.596
    1   AR   Ar  130   4.378   1.233  -4.636
    1   AR   Ar  131   4.369   5.182  -2.323
    1   AR   Ar  132   0.510   1.651   0.342
    1   AR   Ar  133   4.296   0.604   4.485
    1   AR   Ar  134   3.599   1.568   4.166
    1   AR   Ar  135   5.828   1.294   3.567
    1   AR   Ar  136   6.316   0.166   2.675
    1   AR   Ar  137   3.171   4.605   5.975
    1   AR   Ar  138   5.714   1.662   5.628
    1   AR   Ar  139   5.981   2.624   5.570
    1   AR   Ar  140   4.222   6.424   4.901
    1   AR   Ar  141   4.136   5.218   4.077
    1   AR   Ar  142   4.934   0.154   6.775
    1   AR   Ar  143   6.147   6.573   6.515
    1   AR   Ar  144   6.284   1.705   4.715
    1   AR   Ar  145   4.171   4.943  -0.512
    1   AR   Ar  146   3.967   2.535   2.932
    1   AR   Ar  147   5.054   3.600  -0.654
    1   AR   Ar  148   3.614   6.717  -1.249
    1   AR   Ar  149   2.500   0.160  -0.323
    1   AR   Ar  150   2.141   2.868   2.431
    1   AR   Ar  151   2.798   2.524   3.454
    1   AR   Ar  152   1.003   2.514  -1.950
    1   AR   Ar  153   5.384   0.430   3.601
    1   AR   Ar  154   4.708   1.842   4.083
    1   AR   Ar  155   6.229   3.629   6.040
    1   AR   Ar  156   2.930   4.452   3.243
    1   AR   Ar  157   1.685   5.002   6.678
    1   AR   Ar  158   0.587   1.448   5.811
    1   AR   Ar  159   3.807   0.446   6.117
    1   AR   Ar  160   1.581   2.093   5.141
    1   AR   Ar  161   4.890   4.580   3.441
    1   AR   Ar  162   4.213   6.074  -0.357
    1   AR   Ar  163   5.445   4.763   1.037
    1   AR   Ar  164   1.882   5.866   1.982
    1   AR   Ar  165   3.509   4.102   1.223
    1   AR   Ar  166   2.657   3.404   4.217
    1   AR   Ar  167   5.880   6.454   3.323
    1   AR   Ar  168   5.208   3.717  -1.876
    1   AR   Ar  169   3.546   3.333   3.431
    1   AR   Ar  170   2.115   3.112   6.067
    1   AR   Ar  171   5.603   4.769   4.481
    1   AR   Ar  172   3.869   3.928   5.505
    1   AR   Ar  173   2.570   2.188   5.603
    1   AR   Ar  174   3.159   6.252   4.926
    1   AR   Ar  175   2.934   1.188   6.001
    1   AR   Ar  176   3.705   2.532   4.162
    1   AR   Ar  177   1.092   4.906  -1.263
    1   AR   Ar  178   2.557   6.131   0.162
    1   AR   Ar  179   3.199   6.881   0.548
    1   AR   Ar  180   4.663   1.848  -6.267
    1   AR   Ar  181   7.116   5.176   1.674
    1   AR   Ar  182   0.599   6.050   2.108
    1   AR   Ar  183   4.912   5.624   1.583
    1   AR   Ar  184   4.252   6.852   0.402
    1   AR   Ar  185   3.044   4.873   4.941
    1   AR   Ar  186   2.373   5.430   3.433
    1   AR   Ar  187   3.656   6.622   3.699
    1   AR   Ar  188   2.557   6.736   2.218
    1   AR   Ar  189   5.296   3.737   6.639
    1   AR   Ar  190   2.607   6.619   3.400
    1   AR   Ar  191   3.445   6.548   7.181
    1   AR   Ar  192   4.694   4.949   6.307
    1   AR   Ar  193   2.489   6.503   1.190
    1   AR   Ar  194   5.355   4.682  -0.810
    1   AR   Ar  195   5.475   1.396   0.786
    1   AR   Ar  196   3.904   0.422  -0.456
    1   AR   Ar  197   4.285   2.354   0.712
    1   AR   Ar  198   5.665   0.295   1.527
    1   AR   Ar  199   1.612   0.536   3.527
    1   AR   Ar  200   5.121   3.032   0.489
    1   AR   Ar  201   6.660   6.290   2.455
    1   AR   Ar  202   5.363   0.709   5.099
    1   AR   Ar  203   0.543   6.217   3.254
    1   AR   Ar  204   4.705   5.966   6.204
    1   AR   Ar  205   6.278   1.751   1.791
    1   AR   Ar  206   6.034   0.661   5.941
    1   AR   Ar  207   0.342   2.680   4.856
    1   AR   Ar  208   1.051   6.008   4.411
    1   AR   Ar  209   7.057   2.211  -2.369
    1   AR   Ar  210   1.723   0.057   0.474
    1   AR   Ar  211   0.310   3.214   0.912
    1   AR   Ar  212   5.956   4.019  -0.096
    1   AR   Ar  213   3.683   1.820   1.831
    1   AR   Ar  214   4.768   4.148   2.238
    1   AR   Ar  215   6.776   2.938   2.337
    1   AR   Ar  216   1.274   2.838   1.210
    1   AR   Ar  217   4.954   1.657   3.120
    1   AR   Ar  218   4.810   3.082   4.447
    1   AR   Ar  219   4.778   3.187   3.142
    1   AR   Ar  220   4.515   3.535   1.157
    1   AR   Ar  221   6.670   5.800   4.248
    1   AR   Ar  222   5.150   0.016   5.818
    1   AR   Ar  223   6.806   1.734   6.378
    1   AR   Ar  224   4.781   2.391   5.313
    1   AR   Ar  225   6.411   3.035   3.353
    1   AR   Ar  226   1.389   3.444   3.124
    1   AR   Ar  227   0.791   3.183   2.190
    1   AR   Ar  228   6.569   0.759   1.305
    1   AR   Ar  229   6.408   4.427  -1.001
    1   AR   Ar  230   3.577   4.210   4.288
    1   AR   Ar  231   4.626   2.176   2.169
    1   AR   Ar  232   5.293   2.990   1.827
    1   AR   Ar  233   6.936   2.370   3.985
    1   AR   Ar  234   5.829   2.579   4.169
    1   AR   Ar  235   6.863   0.278   3.628
    1   AR   Ar  236   4.978   5.713   4.986
    1   AR   Ar  237   4.843   2.242   6.835
    1   AR   Ar  238   5.708   5.595   6.462
    1   AR   Ar  239   0.492   4.282  10.481
    1   AR   Ar  240   1.061   2.073   6.727
    1   AR   Ar  241   2.391   6.256  -0.916
    1   AR   Ar  242   5.840   6.401   1.562
    1   AR   Ar  243   4.979   5.973   2.843
    1   AR   Ar  244   0.276   5.438   0.299
    1   AR   Ar  245   3.954   0.330   2.879
    1   AR   Ar  246   5.515   6.613  -0.793
    1   AR   Ar  247   6.604   3.691   1.429
    1   AR   Ar  248   5.076   6.010   0.260
    1   AR   Ar  249   4.651   6.871   1.691
    1   AR   Ar  250   5.096   6.027   3.910
    1   AR   Ar  251   4.566   4.497   4.827
    1   AR   Ar  252   2.954   4.554   2.077
    1   AR   Ar  253   6.172   2.792   6.859
    1   AR   Ar  254   4.837   1.782   9.967
    1   AR   Ar  255   3.669   5.664   9.822
    1   AR   Ar  256   5.778   5.265   3.533
    7.12000  7.12000 12.00000
Argon-slab step 4545
  256
    1   AR   Ar    1   4.807   3.435  -2.821
    1   AR   Ar    2   5.366   7.029   0.560
    1   AR   Ar    3   3.628   3.241  -1.151
    1   AR   Ar    4   1.770   1.470   0.629
    1   AR   Ar    5   5.972   5.736  -0.136
    1   AR   Ar    6   1.719   1.764   1.611
    1   AR   Ar    7   5.875   4.187   3.373
    1   AR   Ar    8   5.649   2.405  -0.784
    1   AR   Ar    9   0.661   0.141   4.131
    1   AR   Ar   10   6.225   6.871   4.874
    1   AR   Ar   11   1.667   0.051   4.510
    1   AR   Ar   12   6.898   1.319   3.797
    1   AR   Ar   13   6.765   0.667   4.580
    1   AR   Ar   14   4.035   1.508   6.195
    1   AR   Ar   15   3.561   7.058   9.067
    1   AR   Ar   16   0.102   0.391   5.593
    1   AR   Ar   17   6.170   2.926   0.748
    1   AR   Ar   18   6.381   5.569  -1.446
    1   AR   Ar   19   5.108   4.479   0.166
    1   AR   Ar   20   6.781   4.303  -2.740
    1   AR   Ar   21   2.965   1.992   2.491
    1   AR   Ar   22   5.502   1.161   2.095
    1   AR   Ar   23   0.102   6.297   1.098
    1   AR   Ar   24   5.815   2.444   2.724
    1   AR   Ar   25   0.839   2.274   3.959
    1   AR   Ar   26   5.110   6.922   4.663
    1   AR   Ar   27   1.803   0.997   2.498
    1   AR   Ar   28   1.820   2.438   3.977
    1   AR   Ar   29   4.831   1.198   7.189
    1   AR   Ar   30   0.874   1.341   3.337
    1   AR   Ar   31   4.132   0.349   7.530
    1   AR   Ar   32   0.819   2.549   5.771
    1   AR   Ar   33   0.756   4.105  -0.224
    1   AR   Ar   34   0.959   4.684   2.409
    1   AR   Ar   35   5.453   5.005   2.608
    1   AR   Ar   36   6.232   2.712  -2.699
    1   AR   Ar   37   4.242   3.303   2.124
    1   AR   Ar   38   6.862   4.341   4.045
    1   AR   Ar   39   0.373   3.022   3.215
    1   AR   Ar   40   1.731   4.819   1.832
    1   AR   Ar   41   0.363   2.261   2.444
    1   AR   Ar   42   5.859   6.010   5.487
    1   AR   Ar   43   6.936   2.711   6.039
    1   AR   Ar   44   0.656   4.093   3.480
    1   AR   Ar   45   0.124   3.561   5.672
    1   AR   Ar   46   0.792   4.521   6.552
    1   AR   Ar   47   3.909   5.448   7.526
    1   AR   Ar   48   5.855   3.659   7.565
    1   AR   Ar   49   6.667   0.059  -0.710
    1   AR   Ar   50   3.354   5.249   0.359
    1   AR   Ar   51   5.929   3.618   2.582
    1   AR   Ar   52   4.853   2.775  -1.528
    1   AR   Ar   53   5.143   0.142   2.589
    1   AR   Ar   54   0.272   0.418   2.133
    1   AR   Ar   55   6.849   4.298   2.656
    1   AR   Ar   56   6.476   1.254   2.750
    1   AR   Ar   57   3.917   4.074   2.875
    1   AR   Ar   58   0.506   3.761   4.699
    1   AR   Ar   59   2.627   5.836   5.845
    1   AR   Ar   60   7.069   5.188   3.353
    1   AR   Ar   61   6.852   3.769   7.162
    1   AR   Ar   62   6.853   4.370   5.112
    1   AR   Ar   63   2.276   2.678   7.104
    1   AR   Ar   64   0.276   5.408   5.230
    1   AR   Ar   65   3.547   0.193   1.859
    1   AR   Ar   66   0.909   0.786   0.957
    1   AR   Ar   67   5.051   0.552  -0.591
    1   AR   Ar   68   0.865   1.100  -0.623
    1   AR   Ar   69   3.371   1.497   0.213
    1   AR   Ar   70   0.792   1.410   1.885
    1   AR   Ar   71   2.661   0.456   2.880
    1   AR   Ar   72   4.339   1.055   1.493
    1   AR   Ar   73   3.167   0.643   3.822
    1   AR   Ar   74   0.856   1.223   4.659
    1   AR   Ar   75   3.341   0.468   5.122
    1   AR   Ar   76   2.233   0.832   1.429
    1   AR   Ar   77   1.920   0.193   5.721
    1   AR   Ar   78   6.945   5.443   6.326
    1   AR   Ar   79   3.167   6.711   6.034
    1   AR   Ar   80   3.863   5.472   5.204
    1   AR   Ar   81   1.164   6.764   1.541
    1   AR   Ar   82   6.536   4.651   0.744
    1   AR   Ar   83   0.823   3.104  -0.290
    1   AR   Ar   84   1.452   3.986   0.961
    1   AR   Ar   85   2.733   3.665  -0.116
    1   AR   Ar   86   2.094   5.486   1.005
    1   AR   Ar   87   3.104   3.393   2.292
    1   AR   Ar   88   3.239   5.524   1.541
    1   AR   Ar   89   6.790   1.920   0.859
    1   AR   Ar   90   3.459   1.653   5.253
    1   AR   Ar   91   1.773   2.076   3.016
    1   AR   Ar   92   1.691   3.639   1.927
    1   AR   Ar   93   1.875   1.450   6.257
    1   AR   Ar   94   1.185   6.487   8.874
    1   AR   Ar   95   4.467   1.295   5.295
    1   AR   Ar   96   2.604   6.920   4.382
    1   AR   Ar   97   3.610   2.000  -0.682
    1   AR   Ar   98   1.717   4.434   4.232
    1   AR   Ar   99   6.064   1.385  -0.490
    1   AR   Ar  100   7.118   3.291  -2.696
    1   AR   Ar  101   4.113   6.096   2.162
    1   AR   Ar  102   3.827   1.453   3.069
    1   AR   Ar  103   2.498   4.529   0.697
    1   AR   Ar  104   3.418   5.651  -1.131
    1   AR   Ar  105   2.416   1.455   3.683
    1   AR   Ar  106   3.622   2.657   5.666
    1   AR   Ar  107   1.274   4.884   5.073
    1   AR   Ar  108   2.180   1.312   4.791
    1   AR   Ar  109   1.708   3.370   5.089
    1   AR   Ar  110   2.760   2.367   4.588
    1   AR   Ar  111   4.473   6.302   7.648
    1   AR   Ar  112   0.220   6.403   5.984
    1   AR   Ar  113   3.139   4.561  -0.729
    1   AR   Ar  114   2.658   0.290  -1.466
    1   AR   Ar  115   1.809   4.776  -0.178
    1   AR   Ar  116   4.652   0.751   0.585
    1   AR   Ar  117   0.656   4.994   4.242
    1   AR   Ar  118   1.364   5.476   3.400
    1   AR   Ar  119   2.011   4.269   2.622
    1   AR   Ar  120   1.393   6.879   2.581
    1   AR   Ar  121   5.462   4.451   5.482
    1   AR   Ar  122   3.173   5.637   4.074
    1   AR   Ar  123   2.821   3.121   5.250
    1   AR   Ar  124   1.039   5.421   1.335
    1   AR   Ar  125   6.393   3.604   4.635
    1   AR   Ar  126   6.813   0.705   6.480
    1   AR   Ar  127   4.600   3.053   6.199
    1   AR   Ar  128   3.033   3.668   7.577
    1   AR   Ar  129   2.256   5.596   4.631
    1   AR   Ar  130   4.356   1.243  -4.638
    1   AR   Ar  131   4.351   5.193  -2.302
    1   AR   Ar  132   0.488   1.668   0.383
    1   AR   Ar  133   4.287   0.634   4.458
    1   AR   Ar  134   3.612   1.573   4.163
    1   AR   Ar  135   5.830   1.303   3.578
    1   AR   Ar  136   6.310   0.183   2.701
    1   AR   Ar  137   3.186   4.624   5.964
    1   AR   Ar  138   5.717   1.645   5.624
    1   AR   Ar  139   5.978   2.627   5.557
    1   AR   Ar  140   4.217   6.410   4.885
    1   AR   Ar  141   4.168   5.245   4.057
    1   AR   Ar  142   4.928   0.177   6.766
    1   AR   Ar  143   6.189   6.605   6.513
    1   AR   Ar  144   6.261   1.668   4.688
    1   AR   Ar  145   4.153   4.931  -0.500
    1   AR   Ar  146   3.974   2.546   2.944
    1   AR   Ar  147   5.081   3.584  -0.675
    1   AR   Ar  148   3.633   6.716  -1.275
    1   AR   Ar  149   2.500   0.194  -0.336
    1   AR   Ar  150   2.171   2.863   2.423
    1   AR   Ar  151   2.781   2.551   3.461
    1   AR   Ar  152   0.994   2.537  -1.978
    1   AR   Ar  153   5.379   0.435   3.592
    1   AR   Ar  154   4.746   1.829   4.120
    1   AR   Ar  155   6.237   3.622   6.076
    1   AR   Ar  156   2.911   4.469   3.269
    1   AR   Ar  157   1.692   5.018   6.692
    1   AR   Ar  158   0.589   1.449   5.790
    1   AR   Ar  159   3.817   0.437   6.129
    1   AR   Ar  160   1.594   2.051   5.105
    1   AR   Ar  161   4.901   4.598   3.488
    1   AR   Ar  162   4.217   6.074  -0.359
    1   AR   Ar  163   5.432   4.765   1.061
    1   AR   Ar  164   1.895   5.883   2.001
    1   AR   Ar  165   3.511   4.111   1.268
    1   AR   Ar  166   2.643   3.399   4.215
    1   AR   Ar  167   5.854   6.456   3.350
    1   AR   Ar  168   5.207   3.706  -1.883
    1   AR   Ar  169   3.542   3.316   3.467
    1   AR   Ar  170   2.102   3.113   6.043
    1   AR   Ar  171   5.606   4.778   4.469
    1   AR   Ar  172   3.882   3.931   5.505
    1   AR   Ar  173   2.579   2.187   5.594
    1   AR   Ar  174   3.171   6.273   4.932
    1   AR   Ar  175   2.936   1.160   6.012
    1   AR   Ar  176   3.706   2.507   4.179
    1   AR   Ar  177   1.076   4.895  -1.274
    1   AR   Ar  178   2.560   6.160   0.166
    1   AR   Ar  179   3.255   6.884   0.575
    1   AR   Ar  180   4.673   1.819  -6.298
    1   AR   Ar  181   0.016   5.166   1.673
    1   AR   Ar  182   0.586   6.073   2.099
    1   AR   Ar  183   4.932   5.647   1.588
    1   AR   Ar  184   4.276   6.852   0.381
    1   AR   Ar  185   3.041   4.848   4.929
    1   AR   Ar  186   2.401   5.433   3.408
    1   AR   Ar  187   3.669   6.630   3.684
    1   AR   Ar  188   2.540   6.762   2.217
    1   AR   Ar  189   5.316   3.730   6.631
    1   AR   Ar  190   2.598   6.658   3.388
    1   AR   Ar  191   3.504   6.530   7.131
    1   AR   Ar  192   4.670   4.925   6.319
    1   AR   Ar  193   2.496   6.476   1.209
    1   AR   Ar  194   5.366   4.694  -0.792
    1   AR   Ar  195   5.497   1.413   0.798
    1   AR   Ar  196   3.892   0.442  -0.466
    1   AR   Ar  197   4.297   2.348   0.719
    1   AR   Ar  198   5.660   0.298   1.564
    1   AR   Ar  199   1.586   0.531   3.551
    1   AR   Ar  200   5.111   3.047   0.491
    1   AR   Ar  201   6.675   6.314   2.434
    1   AR   Ar  202   5.370   0.722   5.101
    1   AR   Ar  203   0.523   6.235   3.250
    1   AR   Ar  204   4.721   5.962   6.225
    1   AR   Ar  205   6.236   1.763   1.803
    1   AR   Ar  206   6.007   0.646   5.962
    1   AR   Ar  207   0.354   2.689   4.834
    1   AR   Ar  208   1.052   5.995   4.414
    1   AR   Ar  209   7.037   2.214  -2.362
    1   AR   Ar  210   1.664   0.076   0.489
    1   AR   Ar  211   0.314   3.198   0.908
    1   AR   Ar  212   5.947   4.040  -0.120
    1   AR   Ar  213   3.711   1.835   1.832
    1   AR   Ar  214   4.784   4.143   2.213
    1   AR   Ar  215   6.789   2.986   2.347
    1   AR   Ar  216   1.264   2.798   1.208
    1   AR   Ar  217   4.914   1.625   3.136
    1   AR   Ar  218   4.785   3.068   4.453
    1   AR   Ar  219   4.785   3.183   3.147
    1   AR   Ar  220   4.523   3.510   1.152
    1   AR   Ar  221   6.680   5.817   4.236
    1   AR   Ar  222   5.131   7.111   5.817
    1   AR   Ar  223   6.818   1.745   6.374
    1   AR   Ar  224   4.807   2.347   5.298
    1   AR   Ar  225   6.391   3.037   3.323
    1   AR   Ar  226   1.409   3.448   3.120
    1   AR   Ar  227   0.798   3.167   2.198
    1   AR   Ar  228   6.529   0.771   1.331
    1   AR   Ar  229   6.416   4.416  -0.990
    1   AR   Ar  230   3.580   4.219   4.277
    1   AR   Ar  231   4.679   2.197   2.166
    1   AR   Ar  232   5.299   2.986   1.838
    1   AR   Ar  233   6.956   2.384   3.978
    1   AR   Ar  234   5.810   2.560   4.149
    1   AR   Ar  235   6.885   0.278   3.598
    1   AR   Ar  236   4.969   5.683   4.992
    1   AR   Ar  237   4.837   2.242   6.821
    1   AR   Ar  238   5.709   5.563   6.465
    1   AR   Ar  239   0.482   4.269  10.461
    1   AR   Ar  240   1.083   2.063   6.706
    1   AR   Ar  241   2.344   6.261  -0.950
    1   AR   Ar  242   5.827   6.372   1.559
    1   AR   Ar  243   4.994   5.977   2.838
    1   AR   Ar  244   0.294   5.445   0.265
    1   AR   Ar  245   3.913   0.348   2.910
    1   AR   Ar  246   5.507   6.623  -0.779
    1   AR   Ar  247   6.586   3.709   1.458
    1   AR   Ar  248   5.075   5.978   0.254
    1   AR   Ar  249   4.642   6.886   1.671
    1   AR   Ar  250   5.099   6.027   3.894
    1   AR   Ar  251   4.566   4.500   4.839
    1   AR   Ar  252   2.932   4.549   2.083
    1   AR   Ar  253   6.156   2.807   6.858
    1   AR   Ar  254   4.844   1.763   9.973
    1   AR   Ar  255   3.702   5.672   9.794
    1   AR   Ar  256   5.763   5.270   3.579
    7.12000  7.12000 12.00000
Argon-slab step 4550
  256
    1   AR   Ar    1   4.807   3.444  -2.803
    1   AR   Ar    2   5.356   7.019   0.575
    1   AR   Ar    3   3.648   3.255  -1.160
    1   AR   Ar    4   1.775   1.450   0.616
    1   AR   Ar    5   5.975   5.736  -0.148
    1   AR   Ar    6   1.704   1.772   1.626
    1   AR   Ar    7   5.915   4.179   3.374
    1   AR   Ar    8   5.663   2.434  -0.787
    1   AR   Ar    9   0.645   0.106   4.132
    1   AR   Ar   10   6.218   6.873   4.876
    1   AR   Ar   11   1.689   0.073   4.484
    1   AR   Ar   12   6.881   1.352   3.791
    1   AR   Ar   13   6.767   0.677   4.579
    1   AR   Ar   14   4.045   1.493   6.190
    1   AR   Ar   15   3.553   7.074   9.091
    1   AR   Ar   16   0.106   0.393   5.653
    1   AR   Ar   17   6.161   2.941   0.732
    1   AR   Ar   18   6.342   5.559  -1.475
    1   AR   Ar   19   5.144   4.469   0.155
    1   AR   Ar   20   6.790   4.292  -2.731
    1   AR   Ar   21   2.960   2.003   2.504
    1   AR   Ar   22   5.495   1.178   2.100
    1   AR   Ar   23   0.074   6.322   1.113
    1   AR   Ar   24   5.811   2.432   2.695
    1   AR   Ar   25   0.821   2.277   3.971
    1   AR   Ar   26   5.149   6.943   4.657
    1   AR   Ar   27   1.820   0.983   2.474
    1   AR   Ar   28   1.823   2.428   4.001
    1   AR   Ar   29   4.854   1.181   7.196
    1   AR   Ar   30   0.868   1.323   3.313
    1   AR   Ar   31   4.155   0.340   7.519
    1   AR   Ar   32   0.823   2.538   5.740
    1   AR   Ar   33   0.770   4.110  -0.207
    1   AR   Ar   34   0.954   4.696   2.410
    1   AR   Ar   35   5.453   5.050   2.615
    1   AR   Ar   36   6.209   2.729  -2.694
    1   AR   Ar   37   4.242   3.293   2.125
    1   AR   Ar   38   6.904   4.328   4.029
    1   AR   Ar   39   0.356   3.009   3.212
    1   AR   Ar   40   1.733   4.806   1.814
    1   AR   Ar   41   0.352   2.237   2.446
    1   AR   Ar   42   5.829   5.999   5.494
    1   AR   Ar   43   6.943   2.732   6.039
    1   AR   Ar   44   0.672   4.081   3.515
    1   AR   Ar   45   0.161   3.541   5.658
    1   AR   Ar   46   0.780   4.518   6.573
    1   AR   Ar   47   3.918   5.470   7.524
    1   AR   Ar   48   5.883   3.652   7.569
    1   AR   Ar   49   6.680   0.050  -0.711
    1   AR   Ar   50   3.332   5.224   0.344
    1   AR   Ar   51   5.962   3.587   2.580
    1   AR   Ar   52   4.838   2.777  -1.538
    1   AR   Ar   53   5.113   0.130   2.615
    1   AR   Ar   54   0.278   0.431   2.130
    1   AR   Ar   55   6.876   4.303   2.664
    1   AR   Ar   56   6.441   1.253   2.704
    1   AR   Ar   57   3.929   4.069   2.830
    1   AR   Ar   58   0.509   3.758   4.750
    1   AR   Ar   59   2.597   5.857   5.852
    1   AR   Ar   60   7.063   5.203   3.369
    1   AR   Ar   61   6.875   3.761   7.172
    1   AR   Ar   62   6.872   4.403   5.131
    1   AR   Ar   63   2.289   2.658   7.123
    1   AR   Ar   64   0.286   5.426   5.213
    1   AR   Ar   65   3.578   0.209   1.874
    1   AR   Ar   66   0.931   0.765   0.953
    1   AR   Ar   67   5.045   0.556  -0.583
    1   AR   Ar   68   0.844   1.082  -0.615
    1   AR   Ar   69   3.373   1.530   0.212
    1   AR   Ar   70   0.785   1.385   1.839
    1   AR   Ar   71   2.635   0.448   2.869
    1   AR   Ar   72   4.342   1.033   1.500
    1   AR   Ar   73   3.139   0.629   3.832
    1   AR   Ar   74   0.829   1.215   4.684
    1   AR   Ar   75   3.343   0.450   5.138
    1   AR   Ar   76   2.230   0.811   1.446
    1   AR   Ar   77   1.948   0.163   5.736
    1   AR   Ar   78   6.912   5.429   6.337
    1   AR   Ar   79   3.142   6.713   5.999
    1   AR   Ar   80   3.838   5.485   5.192
    1   AR   Ar   81   1.159   6.768   1.553
    1   AR   Ar   82   6.536   4.649   0.728
    1   AR   Ar   83   0.813   3.099  -0.286
    1   AR   Ar   84   1.481   3.994   0.971
    1   AR   Ar   85   2.753   3.697  -0.129
    1   AR   Ar   86   2.095   5.503   0.987
    1   AR   Ar   87   3.074   3.384   2.307
    1   AR   Ar   88   3.232   5.540   1.555
    1   AR   Ar   89   6.753   1.910   0.875
    1   AR   Ar   90   3.465   1.649   5.272
    1   AR   Ar   91   1.785   2.090   3.058
    1   AR   Ar   92   1.692   3.648   1.916
    1   AR   Ar   93   1.860   1.454   6.264
    1   AR   Ar   94   1.197   6.498   8.899
    1   AR   Ar   95   4.461   1.304   5.287
    1   AR   Ar   96   2.585   6.945   4.401
    1   AR   Ar   97   3.627   2.038  -0.688
    1   AR   Ar   98   1.710   4.432   4.221
    1   AR   Ar   99   6.024   1.347  -0.504
    1   AR   Ar  100   0.010   3.299  -2.717
    1   AR   Ar  101   4.136   6.145   2.138
    1   AR   Ar  102   3.846   1.427   3.068
    1   AR   Ar  103   2.517   4.532   0.691
    1   AR   Ar  104   3.442   5.668  -1.145
    1   AR   Ar  105   2.437   1.469   3.682
    1   AR   Ar  106   3.607   2.665   5.664
    1   AR   Ar  107   1.303   4.893   5.096
    1   AR   Ar  108   2.179   1.264   4.760
    1   AR   Ar  109   1.725   3.406   5.100
    1   AR   Ar  110   2.769   2.318   4.582
    1   AR   Ar  111   4.450   6.293   7.660
    1   AR   Ar  112   0.211   6.410   5.981
    1   AR   Ar  113   3.152   4.564  -0.714
    1   AR   Ar  114   2.652   0.309  -1.455
    1   AR   Ar  115   1.799   4.770  -0.193
    1   AR   Ar  116   4.645   0.756   0.560
    1   AR   Ar  117   0.678   4.994   4.233
    1   AR   Ar  118   1.401   5.436   3.409
    1   AR   Ar  119   2.013   4.273   2.660
    1   AR   Ar  120   1.400   6.888   2.613
    1   AR   Ar  121   5.465   4.461   5.471
    1   AR   Ar  122   3.187   5.632   4.070
    1   AR   Ar  123   2.799   3.158   5.272
    1   AR   Ar  124   1.050   5.397   1.308
    1   AR   Ar  125   6.359   3.602   4.619
    1   AR   Ar  126   6.793   0.723   6.489
    1   AR   Ar  127   4.571   3.052   6.202
    1   AR   Ar  128   3.035   3.683   7.591
    1   AR   Ar  129   2.254   5.632   4.667
    1   AR   Ar  130   4.334   1.253  -4.639
    1   AR   Ar  131   4.333   5.204  -2.281
    1   AR   Ar  132   0.474   1.687   0.428
    1   AR   Ar  133   4.277   0.662   4.429
    1   AR   Ar  134   3.630   1.557   4.183
    1   AR   Ar  135   5.836   1.324   3.594
    1   AR   Ar  136   6.300   0.199   2.724
    1   AR   Ar  137   3.201   4.645   5.955
    1   AR   Ar  138   5.718   1.643   5.611
    1   AR   Ar  139   5.975   2.636   5.542
    1   AR   Ar  140   4.228   6.393   4.915
    1   AR   Ar  141   4.202   5.273   4.039
    1   AR   Ar  142   4.920   0.202   6.766
    1   AR   Ar  143   6.230   6.637   6.509
    1   AR   Ar  144   6.239   1.632   4.659
    1   AR   Ar  145   4.137   4.920  -0.488
    1   AR   Ar  146   3.973   2.556   2.957
    1   AR   Ar  147   5.107   3.568  -0.696
    1   AR   Ar  148   3.651   6.718  -1.299
    1   AR   Ar  149   2.501   0.225  -0.349
    1   AR   Ar  150   2.201   2.856   2.417
    1   AR   Ar  151   2.764   2.576   3.467
    1   AR   Ar  152   0.984   2.561  -2.005
    1   AR   Ar  153   5.355   0.441   3.599
    1   AR   Ar  154   4.782   1.818   4.166
    1   AR   Ar  155   6.246   3.615   6.111
    1   AR   Ar  156   2.894   4.484   3.296
    1   AR   Ar  157   1.704   5.036   6.705
    1   AR   Ar  158   0.592   1.450   5.768
    1   AR   Ar  159   3.813   0.425   6.130
    1   AR   Ar  160   1.600   2.018   5.072
    1   AR   Ar  161   4.905   4.619   3.525
    1   AR   Ar  162   4.218   6.067  -0.360
    1   AR   Ar  163   5.423   4.770   1.095
    1   AR   Ar  164   1.907   5.903   2.022
    1   AR   Ar  165   3.514   4.121   1.313
    1   AR   Ar  166   2.628   3.395   4.211
    1   AR   Ar  167   5.834   6.462   3.374
    1   AR   Ar  168   5.209   3.699  -1.887
    1   AR   Ar  169   3.534   3.301   3.508
    1   AR   Ar  170   2.088   3.112   6.023
    1   AR   Ar  171   5.608   4.785   4.458
    1   AR   Ar  172   3.880   3.929   5.470
    1   AR   Ar  173   2.585   2.180   5.591
    1   AR   Ar  174   3.182   6.291   4.942
    1   AR   Ar  175   2.936   1.126   6.024
    1   AR   Ar  176   3.714   2.508   4.196
    1   AR   Ar  177   1.061   4.883  -1.283
    1   AR   Ar  178   2.563   6.188   0.168
    1   AR   Ar  179   3.310   6.889   0.602
    1   AR   Ar  180   4.684   1.791  -6.329
    1   AR   Ar  181   0.039   5.163   1.677
    1   AR   Ar  182   0.573   6.094   2.092
    1   AR   Ar  183   4.954   5.671   1.594
    1   AR   Ar  184   4.331   6.864   0.329
    1   AR   Ar  185   3.036   4.825   4.917
    1   AR   Ar  186   2.428   5.437   3.380
    1   AR   Ar  187   3.674   6.627   3.665
    1   AR   Ar  188   2.523   6.787   2.217
    1   AR   Ar  189   5.335   3.725   6.623
    1   AR   Ar  190   2.589   6.693   3.372
    1   AR   Ar  191   3.564   6.512   7.079
    1   AR   Ar  192   4.674   4.927   6.308
    1   AR   Ar  193   2.501   6.447   1.229
    1   AR   Ar  194   5.378   4.709  -0.781
    1   AR   Ar  195   5.520   1.431   0.813
    1   AR   Ar  196   3.884   0.473  -0.469
    1   AR   Ar  197   4.308   2.341   0.726
    1   AR   Ar  198   5.648   0.296   1.601
    1   AR   Ar  199   1.562   0.527   3.572
    1   AR   Ar  200   5.108   3.058   0.487
    1   AR   Ar  201   6.690   6.337   2.413
    1   AR   Ar  202   5.378   0.740   5.099
    1   AR   Ar  203   0.503   6.254   3.247
    1   AR   Ar  204   4.736   5.964   6.244
    1   AR   Ar  205   6.202   1.782   1.812
    1   AR   Ar  206   5.972   0.633   5.971
    1   AR   Ar  207   0.365   2.700   4.814
    1   AR   Ar  208   1.046   6.012   4.419
    1   AR   Ar  209   7.024   2.213  -2.351
    1   AR   Ar  210   1.607   0.095   0.506
    1   AR   Ar  211   0.316   3.183   0.903
    1   AR   Ar  212   5.948   4.053  -0.142
    1   AR   Ar  213   3.743   1.850   1.829
    1   AR   Ar  214   4.807   4.143   2.189
    1   AR   Ar  215   6.798   3.039   2.352
    1   AR   Ar  216   1.255   2.757   1.207
    1   AR   Ar  217   4.874   1.594   3.142
    1   AR   Ar  218   4.759   3.053   4.459
    1   AR   Ar  219   4.795   3.182   3.151
    1   AR   Ar  220   4.527   3.491   1.150
    1   AR   Ar  221   6.690   5.833   4.225
    1   AR   Ar  222   5.113   7.080   5.806
    1   AR   Ar  223   6.809   1.744   6.372
    1   AR   Ar  224   4.834   2.303   5.285
    1   AR   Ar  225   6.374   3.042   3.301
    1   AR   Ar  226   1.432   3.449   3.114
    1   AR   Ar  227   0.804   3.155   2.205
    1   AR   Ar  228   6.495   0.786   1.356
    1   AR   Ar  229   6.425   4.407  -0.981
    1   AR   Ar  230   3.584   4.227   4.262
    1   AR   Ar  231   4.688   2.210   2.162
    1   AR   Ar  232   5.306   2.985   1.848
    1   AR   Ar  233   6.966   2.399   3.970
    1   AR   Ar  234   5.791   2.541   4.130
    1   AR   Ar  235   6.904   0.275   3.566
    1   AR   Ar  236   4.960   5.649   4.996
    1   AR   Ar  237   4.831   2.239   6.808
    1   AR   Ar  238   5.711   5.528   6.470
    1   AR   Ar  239   0.472   4.256  10.442
    1   AR   Ar  240   1.103   2.053   6.685
    1   AR   Ar  241   2.299   6.268  -0.983
    1   AR   Ar  242   5.815   6.340   1.556
    1   AR   Ar  243   5.001   5.953   2.845
    1   AR   Ar  244   0.311   5.452   0.234
    1   AR   Ar  245   3.872   0.365   2.941
    1   AR   Ar  246   5.499   6.632  -0.762
    1   AR   Ar  247   6.568   3.728   1.489
    1   AR   Ar  248   5.069   5.947   0.254
    1   AR   Ar  249   4.635   6.904   1.648
    1   AR   Ar  250   5.095   6.025   3.887
    1   AR   Ar  251   4.566   4.505   4.850
    1   AR   Ar  252   2.933   4.578   2.084
    1   AR   Ar  253   6.141   2.823   6.855
    1   AR   Ar  254   4.852   1.744   9.979
    1   AR   Ar  255   3.735   5.674   9.767
    1   AR   Ar  256   5.749   5.268   3.608
    7.12000  7.12000 12.00000
Argon-slab step 4555
  256
    1   AR   Ar    1   4.785   3.441  -2.807
    1   AR   Ar    2   5.349   7.010   0.590
    1   AR   Ar    3   3.666   3.260  -1.161
    1   AR   Ar    4   1.790   1.435   0.616
    1   AR   Ar    5   5.985   5.733  -0.164
    1   AR   Ar    6   1.695   1.785   1.644
    1   AR   Ar    7   5.956   4.176   3.384
    1   AR   Ar    8   5.677   2.464  -0.789
    1   AR   Ar    9   0.631   0.071   4.134
    1   AR   Ar   10   6.233   6.877   4.853
    1   AR   Ar   11   1.685   0.101   4.467
    1   AR   Ar   12   6.868   1.385   3.781
    1   AR   Ar   13   6.770   0.683   4.581
    1   AR   Ar   14   4.054   1.481   6.192
    1   AR   Ar   15   3.546   7.089   9.115
    1   AR   Ar   16   0.114   0.392   5.703
    1   AR   Ar   17   6.154   2.956   0.716
    1   AR   Ar   18   6.302   5.547  -1.503
    1   AR   Ar   19   5.157   4.463   0.155
    1   AR   Ar   20   6.798   4.284  -2.721
    1   AR   Ar   21   2.952   2.015   2.521
    1   AR   Ar   22   5.475   1.191   2.112
    1   AR   Ar   23   0.047   6.346   1.129
    1   AR   Ar   24   5.804   2.415   2.663
    1   AR   Ar   25   0.811   2.275   3.979
    1   AR   Ar   26   5.187   6.960   4.648
    1   AR   Ar   27   1.832   0.972   2.450
    1   AR   Ar   28   1.833   2.423   4.034
    1   AR   Ar   29   4.877   1.166   7.203
    1   AR   Ar   30   0.861   1.307   3.289
    1   AR   Ar   31   4.177   0.330   7.508
    1   AR   Ar   32   0.821   2.540   5.731
    1   AR   Ar   33   0.783   4.124  -0.189
    1   AR   Ar   34   0.939   4.706   2.418
    1   AR   Ar   35   5.455   5.090   2.619
    1   AR   Ar   36   6.180   2.749  -2.692
    1   AR   Ar   37   4.237   3.274   2.130
    1   AR   Ar   38   6.943   4.316   4.013
    1   AR   Ar   39   0.342   2.999   3.212
    1   AR   Ar   40   1.747   4.793   1.786
    1   AR   Ar   41   0.342   2.205   2.449
    1   AR   Ar   42   5.801   5.991   5.502
    1   AR   Ar   43   6.942   2.739   6.046
    1   AR   Ar   44   0.688   4.071   3.548
    1   AR   Ar   45   0.203   3.535   5.647
    1   AR   Ar   46   0.767   4.527   6.577
    1   AR   Ar   47   3.922   5.482   7.519
    1   AR   Ar   48   5.909   3.645   7.574
    1   AR   Ar   49   6.692   0.041  -0.711
    1   AR   Ar   50   3.310   5.199   0.327
    1   AR   Ar   51   5.985   3.558   2.561
    1   AR   Ar   52   4.822   2.778  -1.546
    1   AR   Ar   53   5.097   0.122   2.617
    1   AR   Ar   54   0.283   0.443   2.127
    1   AR   Ar   55   6.903   4.307   2.673
    1   AR   Ar   56   6.412   1.255   2.677
    1   AR   Ar   57   3.941   4.064   2.786
    1   AR   Ar   58   0.517   3.760   4.788
    1   AR   Ar   59   2.566   5.872   5.856
    1   AR   Ar   60   7.058   5.217   3.384
    1   AR   Ar   61   6.898   3.752   7.180
    1   AR   Ar   62   6.889   4.441   5.151
    1   AR   Ar   63   2.303   2.637   7.140
    1   AR   Ar   64   0.295   5.445   5.196
    1   AR   Ar   65   3.608   0.225   1.889
    1   AR   Ar   66   0.986   0.786   0.957
    1   AR   Ar   67   5.039   0.559  -0.572
    1   AR   Ar   68   0.822   1.064  -0.604
    1   AR   Ar   69   3.374   1.562   0.215
    1   AR   Ar   70   0.772   1.359   1.796
    1   AR   Ar   71   2.613   0.450   2.859
    1   AR   Ar   72   4.346   1.010   1.512
    1   AR   Ar   73   3.112   0.613   3.842
    1   AR   Ar   74   0.802   1.206   4.707
    1   AR   Ar   75   3.345   0.433   5.152
    1   AR   Ar   76   2.227   0.788   1.463
    1   AR   Ar   77   1.969   0.151   5.730
    1   AR   Ar   78   6.878   5.414   6.346
    1   AR   Ar   79   3.140   6.707   5.973
    1   AR   Ar   80   3.814   5.492   5.182
    1   AR   Ar   81   1.148   6.787   1.559
    1   AR   Ar   82   6.538   4.649   0.705
    1   AR   Ar   83   0.802   3.086  -0.281
    1   AR   Ar   84   1.509   4.004   0.976
    1   AR   Ar   85   2.773   3.730  -0.141
    1   AR   Ar   86   2.088   5.516   0.968
    1   AR   Ar   87   3.050   3.379   2.324
    1   AR   Ar   88   3.224   5.557   1.568
    1   AR   Ar   89   6.703   1.904   0.897
    1   AR   Ar   90   3.470   1.646   5.287
    1   AR   Ar   91   1.795   2.099   3.093
    1   AR   Ar   92   1.692   3.655   1.905
    1   AR   Ar   93   1.840   1.442   6.270
    1   AR   Ar   94   1.210   6.497   8.942
    1   AR   Ar   95   4.459   1.313   5.271
    1   AR   Ar   96   2.593   6.965   4.418
    1   AR   Ar   97   3.646   2.079  -0.697
    1   AR   Ar   98   1.703   4.428   4.208
    1   AR   Ar   99   5.983   1.309  -0.517
    1   AR   Ar  100   0.025   3.303  -2.737
    1   AR   Ar  101   4.154   6.192   2.116
    1   AR   Ar  102   3.860   1.403   3.066
    1   AR   Ar  103   2.537   4.534   0.686
    1   AR   Ar  104   3.466   5.683  -1.156
    1   AR   Ar  105   2.458   1.484   3.681
    1   AR   Ar  106   3.603   2.673   5.673
    1   AR   Ar  107   1.333   4.903   5.123
    1   AR   Ar  108   2.184   1.208   4.726
    1   AR   Ar  109   1.739   3.443   5.106
    1   AR   Ar  110   2.774   2.266   4.572
    1   AR   Ar  111   4.434   6.295   7.673
    1   AR   Ar  112   0.192   6.410   5.961
    1   AR   Ar  113   3.163   4.568  -0.698
    1   AR   Ar  114   2.648   0.328  -1.443
    1   AR   Ar  115   1.788   4.764  -0.207
    1   AR   Ar  116   4.640   0.761   0.530
    1   AR   Ar  117   0.666   5.001   4.240
    1   AR   Ar  118   1.431   5.395   3.418
    1   AR   Ar  119   2.017   4.280   2.707
    1   AR   Ar  120   1.408   6.897   2.646
    1   AR   Ar  121   5.472   4.463   5.463
    1   AR   Ar  122   3.203   5.631   4.059
    1   AR   Ar  123   2.778   3.201   5.289
    1   AR   Ar  124   1.058   5.377   1.279
    1   AR   Ar  125   6.329   3.594   4.604
    1   AR   Ar  126   6.783   0.740   6.513
    1   AR   Ar  127   4.539   3.053   6.201
    1   AR   Ar  128   3.037   3.698   7.604
    1   AR   Ar  129   2.251   5.668   4.703
    1   AR   Ar  130   4.313   1.258  -4.634
    1   AR   Ar  131   4.315   5.214  -2.259
    1   AR   Ar  132   0.474   1.703   0.467
    1   AR   Ar  133   4.268   0.689   4.399
    1   AR   Ar  134   3.645   1.521   4.201
    1   AR   Ar  135   5.845   1.354   3.611
    1   AR   Ar  136   6.285   0.214   2.743
    1   AR   Ar  137   3.216   4.667   5.947
    1   AR   Ar  138   5.718   1.652   5.592
    1   AR   Ar  139   5.972   2.651   5.526
    1   AR   Ar  140   4.246   6.382   4.956
    1   AR   Ar  141   4.238   5.300   4.024
    1   AR   Ar  142   4.911   0.225   6.772
    1   AR   Ar  143   6.270   6.670   6.502
    1   AR   Ar  144   6.217   1.597   4.629
    1   AR   Ar  145   4.124   4.911  -0.475
    1   AR   Ar  146   3.948   2.581   2.976
    1   AR   Ar  147   5.134   3.552  -0.717
    1   AR   Ar  148   3.669   6.721  -1.322
    1   AR   Ar  149   2.503   0.256  -0.360
    1   AR   Ar  150   2.226   2.850   2.413
    1   AR   Ar  151   2.746   2.598   3.472
    1   AR   Ar  152   0.973   2.584  -2.033
    1   AR   Ar  153   5.327   0.439   3.608
    1   AR   Ar  154   4.817   1.807   4.215
    1   AR   Ar  155   6.258   3.608   6.143
    1   AR   Ar  156   2.880   4.496   3.323
    1   AR   Ar  157   1.718   5.055   6.718
    1   AR   Ar  158   0.595   1.451   5.747
    1   AR   Ar  159   3.787   0.406   6.116
    1   AR   Ar  160   1.600   1.993   5.041
    1   AR   Ar  161   4.892   4.618   3.546
    1   AR   Ar  162   4.215   6.058  -0.364
    1   AR   Ar  163   5.416   4.776   1.134
    1   AR   Ar  164   1.917   5.922   2.042
    1   AR   Ar  165   3.518   4.129   1.357
    1   AR   Ar  166   2.613   3.391   4.206
    1   AR   Ar  167   5.822   6.473   3.393
    1   AR   Ar  168   5.214   3.696  -1.886
    1   AR   Ar  169   3.525   3.295   3.551
    1   AR   Ar  170   2.072   3.108   6.010
    1   AR   Ar  171   5.609   4.787   4.455
    1   AR   Ar  172   3.878   3.925   5.434
    1   AR   Ar  173   2.587   2.169   5.595
    1   AR   Ar  174   3.191   6.308   4.956
    1   AR   Ar  175   2.934   1.091   6.037
    1   AR   Ar  176   3.729   2.529   4.212
    1   AR   Ar  177   1.045   4.871  -1.291
    1   AR   Ar  178   2.565   6.215   0.170
    1   AR   Ar  179   3.362   6.895   0.629
    1   AR   Ar  180   4.687   1.773  -6.361
    1   AR   Ar  181   0.061   5.159   1.683
    1   AR   Ar  182   0.561   6.112   2.088
    1   AR   Ar  183   4.975   5.694   1.600
    1   AR   Ar  184   4.387   6.875   0.277
    1   AR   Ar  185   3.026   4.804   4.903
    1   AR   Ar  186   2.457   5.443   3.351
    1   AR   Ar  187   3.666   6.608   3.640
    1   AR   Ar  188   2.505   6.810   2.217
    1   AR   Ar  189   5.352   3.721   6.616
    1   AR   Ar  190   2.578   6.720   3.358
    1   AR   Ar  191   3.625   6.495   7.026
    1   AR   Ar  192   4.678   4.925   6.295
    1   AR   Ar  193   2.507   6.421   1.246
    1   AR   Ar  194   5.390   4.727  -0.780
    1   AR   Ar  195   5.544   1.448   0.829
    1   AR   Ar  196   3.871   0.489  -0.455
    1   AR   Ar  197   4.318   2.333   0.736
    1   AR   Ar  198   5.629   0.287   1.638
    1   AR   Ar  199   1.539   0.524   3.588
    1   AR   Ar  200   5.112   3.065   0.473
    1   AR   Ar  201   6.704   6.359   2.393
    1   AR   Ar  202   5.387   0.761   5.093
    1   AR   Ar  203   0.483   6.273   3.244
    1   AR   Ar  204   4.753   5.976   6.263
    1   AR   Ar  205   6.176   1.812   1.816
    1   AR   Ar  206   5.949   0.641   5.962
    1   AR   Ar  207   0.375   2.712   4.799
    1   AR   Ar  208   1.041   6.030   4.424
    1   AR   Ar  209   7.017   2.209  -2.339
    1   AR   Ar  210   1.554   0.111   0.523
    1   AR   Ar  211   0.317   3.169   0.899
    1   AR   Ar  212   5.958   4.050  -0.159
    1   AR   Ar  213   3.775   1.867   1.825
    1   AR   Ar  214   4.836   4.148   2.164
    1   AR   Ar  215   6.808   3.052   2.351
    1   AR   Ar  216   1.248   2.716   1.208
    1   AR   Ar  217   4.838   1.562   3.145
    1   AR   Ar  218   4.733   3.037   4.462
    1   AR   Ar  219   4.807   3.182   3.156
    1   AR   Ar  220   4.525   3.479   1.153
    1   AR   Ar  221   6.700   5.848   4.213
    1   AR   Ar  222   5.096   7.044   5.787
    1   AR   Ar  223   6.800   1.746   6.369
    1   AR   Ar  224   4.853   2.264   5.282
    1   AR   Ar  225   6.361   3.047   3.295
    1   AR   Ar  226   1.457   3.447   3.107
    1   AR   Ar  227   0.803   3.145   2.212
    1   AR   Ar  228   6.468   0.806   1.381
    1   AR   Ar  229   6.437   4.400  -0.976
    1   AR   Ar  230   3.590   4.232   4.245
    1   AR   Ar  231   4.705   2.236   2.144
    1   AR   Ar  232   5.316   2.989   1.857
    1   AR   Ar  233   6.959   2.415   3.959
    1   AR   Ar  234   5.772   2.521   4.111
    1   AR   Ar  235   6.922   0.272   3.533
    1   AR   Ar  236   4.952   5.610   4.999
    1   AR   Ar  237   4.827   2.234   6.796
    1   AR   Ar  238   5.717   5.522   6.480
    1   AR   Ar  239   0.487   4.253  10.429
    1   AR   Ar  240   1.121   2.045   6.664
    1   AR   Ar  241   2.255   6.275  -1.015
    1   AR   Ar  242   5.803   6.309   1.554
    1   AR   Ar  243   5.005   5.933   2.849
    1   AR   Ar  244   0.329   5.458   0.204
    1   AR   Ar  245   3.897   0.327   2.926
    1   AR   Ar  246   5.490   6.640  -0.744
    1   AR   Ar  247   6.549   3.747   1.520
    1   AR   Ar  248   5.059   5.918   0.258
    1   AR   Ar  249   4.631   6.926   1.621
    1   AR   Ar  250   5.080   6.023   3.891
    1   AR   Ar  251   4.569   4.521   4.846
    1   AR   Ar  252   2.931   4.607   2.086
    1   AR   Ar  253   6.125   2.839   6.851
    1   AR   Ar  254   4.859   1.725   9.985
    1   AR   Ar  255   3.770   5.654   9.745
    1   AR   Ar  256   5.741   5.273   3.627
    7.12000  7.12000 12.00000
Argon-slab step 4560
  256
    1   AR   Ar    1   4.763   3.436  -2.814
    1   AR   Ar    2   5.348   7.000   0.609
    1   AR   Ar    3   3.699   3.252  -1.143
    1   AR   Ar    4   1.822   1.427   0.638
    1   AR   Ar    5   5.999   5.729  -0.182
    1   AR   Ar    6   1.690   1.799   1.663
    1   AR   Ar    7   5.997   4.178   3.399
    1   AR   Ar    8   5.689   2.495  -0.791
    1   AR   Ar    9   0.619   0.036   4.139
    1   AR   Ar   10   6.250   6.881   4.831
    1   AR   Ar   11   1.659   0.130   4.462
    1   AR   Ar   12   6.862   1.417   3.769
    1   AR   Ar   13   6.775   0.688   4.586
    1   AR   Ar   14   4.061   1.471   6.201
    1   AR   Ar   15   3.533   7.085   9.118
    1   AR   Ar   16   0.125   0.388   5.743
    1   AR   Ar   17   6.150   2.971   0.703
    1   AR   Ar   18   6.262   5.534  -1.529
    1   AR   Ar   19   5.149   4.464   0.167
    1   AR   Ar   20   6.804   4.279  -2.711
    1   AR   Ar   21   2.944   2.026   2.541
    1   AR   Ar   22   5.444   1.200   2.130
    1   AR   Ar   23   0.020   6.369   1.147
    1   AR   Ar   24   5.795   2.396   2.630
    1   AR   Ar   25   0.811   2.267   3.983
    1   AR   Ar   26   5.221   6.973   4.636
    1   AR   Ar   27   1.838   0.964   2.426
    1   AR   Ar   28   1.847   2.422   4.078
    1   AR   Ar   29   4.898   1.155   7.210
    1   AR   Ar   30   0.852   1.294   3.265
    1   AR   Ar   31   4.195   0.319   7.498
    1   AR   Ar   32   0.824   2.542   5.724
    1   AR   Ar   33   0.798   4.143  -0.169
    1   AR   Ar   34   0.919   4.716   2.431
    1   AR   Ar   35   5.462   5.117   2.618
    1   AR   Ar   36   6.147   2.771  -2.690
    1   AR   Ar   37   4.230   3.250   2.139
    1   AR   Ar   38   6.974   4.305   4.001
    1   AR   Ar   39   0.330   2.991   3.212
    1   AR   Ar   40   1.770   4.779   1.756
    1   AR   Ar   41   0.363   2.220   2.459
    1   AR   Ar   42   5.774   5.985   5.511
    1   AR   Ar   43   6.933   2.735   6.060
    1   AR   Ar   44   0.710   4.060   3.579
    1   AR   Ar   45   0.242   3.535   5.652
    1   AR   Ar   46   0.754   4.546   6.569
    1   AR   Ar   47   3.918   5.483   7.511
    1   AR   Ar   48   5.934   3.637   7.579
    1   AR   Ar   49   6.702   0.033  -0.711
    1   AR   Ar   50   3.288   5.177   0.310
    1   AR   Ar   51   5.992   3.540   2.528
    1   AR   Ar   52   4.805   2.776  -1.552
    1   AR   Ar   53   5.089   0.114   2.603
    1   AR   Ar   54   0.287   0.453   2.125
    1   AR   Ar   55   6.930   4.309   2.683
    1   AR   Ar   56   6.398   1.266   2.725
    1   AR   Ar   57   3.949   4.061   2.744
    1   AR   Ar   58   0.536   3.770   4.800
    1   AR   Ar   59   2.532   5.882   5.858
    1   AR   Ar   60   7.054   5.232   3.398
    1   AR   Ar   61   6.923   3.742   7.185
    1   AR   Ar   62   6.905   4.480   5.170
    1   AR   Ar   63   2.316   2.617   7.156
    1   AR   Ar   64   0.304   5.465   5.179
    1   AR   Ar   65   3.637   0.239   1.903
    1   AR   Ar   66   1.034   0.814   0.966
    1   AR   Ar   67   5.032   0.561  -0.559
    1   AR   Ar   68   0.801   1.046  -0.593
    1   AR   Ar   69   3.377   1.592   0.218
    1   AR   Ar   70   0.754   1.362   1.785
    1   AR   Ar   71   2.597   0.467   2.852
    1   AR   Ar   72   4.352   0.985   1.528
    1   AR   Ar   73   3.088   0.596   3.852
    1   AR   Ar   74   0.775   1.198   4.727
    1   AR   Ar   75   3.345   0.417   5.163
    1   AR   Ar   76   2.224   0.764   1.478
    1   AR   Ar   77   1.992   0.139   5.722
    1   AR   Ar   78   6.844   5.399   6.354
    1   AR   Ar   79   3.172   6.687   5.961
    1   AR   Ar   80   3.785   5.491   5.170
    1   AR   Ar   81   1.139   6.809   1.561
    1   AR   Ar   82   6.540   4.649   0.681
    1   AR   Ar   83   0.792   3.069  -0.275
    1   AR   Ar   84   1.535   4.018   0.973
    1   AR   Ar   85   2.792   3.764  -0.152
    1   AR   Ar   86   2.083   5.525   0.948
    1   AR   Ar   87   3.038   3.381   2.340
    1   AR   Ar   88   3.214   5.574   1.580
    1   AR   Ar   89   6.647   1.899   0.922
    1   AR   Ar   90   3.478   1.645   5.290
    1   AR   Ar   91   1.803   2.105   3.117
    1   AR   Ar   92   1.694   3.659   1.899
    1   AR   Ar   93   1.821   1.416   6.271
    1   AR   Ar   94   1.222   6.496   8.986
    1   AR   Ar   95   4.460   1.316   5.250
    1   AR   Ar   96   2.622   6.981   4.433
    1   AR   Ar   97   3.665   2.121  -0.707
    1   AR   Ar   98   1.696   4.424   4.192
    1   AR   Ar   99   5.941   1.271  -0.530
    1   AR   Ar  100   0.042   3.303  -2.757
    1   AR   Ar  101   4.167   6.235   2.099
    1   AR   Ar  102   3.861   1.379   3.064
    1   AR   Ar  103   2.555   4.534   0.683
    1   AR   Ar  104   3.489   5.695  -1.166
    1   AR   Ar  105   2.481   1.499   3.680
    1   AR   Ar  106   3.612   2.683   5.697
    1   AR   Ar  107   1.362   4.913   5.150
    1   AR   Ar  108   2.194   1.149   4.691
    1   AR   Ar  109   1.749   3.481   5.103
    1   AR   Ar  110   2.778   2.212   4.559
    1   AR   Ar  111   4.429   6.310   7.689
    1   AR   Ar  112   0.162   6.399   5.917
    1   AR   Ar  113   3.172   4.573  -0.684
    1   AR   Ar  114   2.644   0.345  -1.431
    1   AR   Ar  115   1.778   4.758  -0.220
    1   AR   Ar  116   4.636   0.767   0.497
    1   AR   Ar  117   0.647   5.009   4.250
    1   AR   Ar  118   1.454   5.353   3.428
    1   AR   Ar  119   2.021   4.288   2.755
    1   AR   Ar  120   1.416   6.907   2.680
    1   AR   Ar  121   5.485   4.454   5.457
    1   AR   Ar  122   3.220   5.630   4.053
    1   AR   Ar  123   2.762   3.248   5.298
    1   AR   Ar  124   1.062   5.360   1.249
    1   AR   Ar  125   6.300   3.584   4.590
    1   AR   Ar  126   6.774   0.754   6.552
    1   AR   Ar  127   4.508   3.056   6.196
    1   AR   Ar  128   3.039   3.712   7.617
    1   AR   Ar  129   2.249   5.704   4.738
    1   AR   Ar  130   4.306   1.233  -4.613
    1   AR   Ar  131   4.307   5.216  -2.244
    1   AR   Ar  132   0.482   1.717   0.503
    1   AR   Ar  133   4.260   0.713   4.368
    1   AR   Ar  134   3.657   1.480   4.219
    1   AR   Ar  135   5.849   1.388   3.628
    1   AR   Ar  136   6.264   0.227   2.756
    1   AR   Ar  137   3.232   4.689   5.940
    1   AR   Ar  138   5.717   1.658   5.575
    1   AR   Ar  139   5.970   2.671   5.509
    1   AR   Ar  140   4.267   6.381   4.994
    1   AR   Ar  141   4.273   5.329   4.013
    1   AR   Ar  142   4.903   0.245   6.774
    1   AR   Ar  143   6.278   6.668   6.507
    1   AR   Ar  144   6.192   1.565   4.599
    1   AR   Ar  145   4.115   4.904  -0.461
    1   AR   Ar  146   3.923   2.598   2.991
    1   AR   Ar  147   5.161   3.536  -0.737
    1   AR   Ar  148   3.686   6.726  -1.343
    1   AR   Ar  149   2.492   0.276  -0.363
    1   AR   Ar  150   2.237   2.843   2.411
    1   AR   Ar  151   2.728   2.617   3.475
    1   AR   Ar  152   0.960   2.608  -2.061
    1   AR   Ar  153   5.299   0.435   3.620
    1   AR   Ar  154   4.852   1.797   4.267
    1   AR   Ar  155   6.275   3.604   6.170
    1   AR   Ar  156   2.869   4.503   3.351
    1   AR   Ar  157   1.733   5.075   6.730
    1   AR   Ar  158   0.598   1.453   5.727
    1   AR   Ar  159   3.767   0.388   6.105
    1   AR   Ar  160   1.596   1.972   5.013
    1   AR   Ar  161   4.878   4.589   3.580
    1   AR   Ar  162   4.208   6.048  -0.372
    1   AR   Ar  163   5.410   4.782   1.175
    1   AR   Ar  164   1.924   5.939   2.062
    1   AR   Ar  165   3.524   4.135   1.399
    1   AR   Ar  166   2.598   3.388   4.203
    1   AR   Ar  167   5.817   6.489   3.408
    1   AR   Ar  168   5.223   3.696  -1.881
    1   AR   Ar  169   3.515   3.301   3.594
    1   AR   Ar  170   2.053   3.100   6.008
    1   AR   Ar  171   5.601   4.784   4.460
    1   AR   Ar  172   3.874   3.920   5.397
    1   AR   Ar  173   2.585   2.156   5.603
    1   AR   Ar  174   3.198   6.325   4.970
    1   AR   Ar  175   2.930   1.055   6.050
    1   AR   Ar  176   3.747   2.555   4.231
    1   AR   Ar  177   1.030   4.859  -1.297
    1   AR   Ar  178   2.568   6.242   0.170
    1   AR   Ar  179   3.412   6.901   0.657
    1   AR   Ar  180   4.678   1.773  -6.395
    1   AR   Ar  181   0.084   5.155   1.689
    1   AR   Ar  182   0.551   6.126   2.086
    1   AR   Ar  183   4.993   5.715   1.607
    1   AR   Ar  184   4.414   6.876   0.248
    1   AR   Ar  185   3.013   4.785   4.890
    1   AR   Ar  186   2.486   5.452   3.319
    1   AR   Ar  187   3.658   6.589   3.617
    1   AR   Ar  188   2.487   6.830   2.215
    1   AR   Ar  189   5.364   3.717   6.609
    1   AR   Ar  190   2.567   6.736   3.349
    1   AR   Ar  191   3.683   6.479   6.970
    1   AR   Ar  192   4.683   4.920   6.281
    1   AR   Ar  193   2.515   6.398   1.262
    1   AR   Ar  194   5.403   4.750  -0.788
    1   AR   Ar  195   5.569   1.464   0.848
    1   AR   Ar  196   3.856   0.500  -0.436
    1   AR   Ar  197   4.329   2.324   0.746
    1   AR   Ar  198   5.607   0.272   1.674
    1   AR   Ar  199   1.517   0.525   3.592
    1   AR   Ar  200   5.122   3.069   0.450
    1   AR   Ar  201   6.715   6.383   2.374
    1   AR   Ar  202   5.396   0.784   5.082
    1   AR   Ar  203   0.463   6.292   3.241
    1   AR   Ar  204   4.777   6.007   6.286
    1   AR   Ar  205   6.158   1.853   1.814
    1   AR   Ar  206   5.921   0.645   5.951
    1   AR   Ar  207   0.382   2.726   4.789
    1   AR   Ar  208   1.036   6.048   4.428
    1   AR   Ar  209   7.013   2.205  -2.325
    1   AR   Ar  210   1.510   0.118   0.535
    1   AR   Ar  211   0.315   3.155   0.894
    1   AR   Ar  212   5.972   4.028  -0.166
    1   AR   Ar  213   3.805   1.884   1.820
    1   AR   Ar  214   4.855   4.156   2.152
    1   AR   Ar  215   6.822   3.001   2.343
    1   AR   Ar  216   1.242   2.675   1.210
    1   AR   Ar  217   4.827   1.544   3.155
    1   AR   Ar  218   4.707   3.020   4.465
    1   AR   Ar  219   4.822   3.184   3.159
    1   AR   Ar  220   4.517   3.472   1.161
    1   AR   Ar  221   6.710   5.863   4.202
    1   AR   Ar  222   5.077   7.017   5.761
    1   AR   Ar  223   6.789   1.752   6.365
    1   AR   Ar  224   4.859   2.233   5.295
    1   AR   Ar  225   6.354   3.047   3.306
    1   AR   Ar  226   1.482   3.441   3.099
    1   AR   Ar  227   0.778   3.141   2.222
    1   AR   Ar  228   6.445   0.831   1.405
    1   AR   Ar  229   6.452   4.397  -0.978
    1   AR   Ar  230   3.600   4.235   4.224
    1   AR   Ar  231   4.721   2.257   2.131
    1   AR   Ar  232   5.331   2.974   1.864
    1   AR   Ar  233   6.936   2.433   3.948
    1   AR   Ar  234   5.753   2.501   4.092
    1   AR   Ar  235   6.941   0.270   3.502
    1   AR   Ar  236   4.943   5.567   4.999
    1   AR   Ar  237   4.825   2.232   6.779
    1   AR   Ar  238   5.727   5.558   6.499
    1   AR   Ar  239   0.509   4.253  10.419
    1   AR   Ar  240   1.140   2.024   6.668
    1   AR   Ar  241   2.214   6.283  -1.046
    1   AR   Ar  242   5.789   6.289   1.551
    1   AR   Ar  243   5.002   5.924   2.852
    1   AR   Ar  244   0.345   5.463   0.176
    1   AR   Ar  245   3.923   0.288   2.911
    1   AR   Ar  246   5.481   6.648  -0.723
    1   AR   Ar  247   6.530   3.766   1.551
    1   AR   Ar  248   5.047   5.890   0.267
    1   AR   Ar  249   4.632   6.954   1.588
    1   AR   Ar  250   5.057   6.020   3.906
    1   AR   Ar  251   4.575   4.545   4.831
    1   AR   Ar  252   2.926   4.637   2.092
    1   AR   Ar  253   6.109   2.852   6.847
    1   AR   Ar  254   4.866   1.706   9.992
    1   AR   Ar  255   3.805   5.635   9.723
    1   AR   Ar  256   5.743   5.285   3.634
    7.12000  7.12000 12.00000
Argon-slab step 4565
  256
    1   AR   Ar    1   4.740   3.430  -2.822
    1   AR   Ar    2   5.353   6.991   0.631
    1   AR   Ar    3   3.745   3.244  -1.118
    1   AR   Ar    4   1.856   1.421   0.659
    1   AR   Ar    5   6.014   5.723  -0.202
    1   AR   Ar    6   1.690   1.814   1.684
    1   AR   Ar    7   6.038   4.181   3.417
    1   AR   Ar    8   5.705   2.520  -0.798
    1   AR   Ar    9   0.609   7.120   4.145
    1   AR   Ar   10   6.268   6.882   4.810
    1   AR   Ar   11   1.627   0.156   4.474
    1   AR   Ar   12   6.863   1.444   3.753
    1   AR   Ar   13   6.759   0.675   4.594
    1   AR   Ar   14   4.068   1.460   6.210
    1   AR   Ar   15   3.519   7.077   9.114
    1   AR   Ar   16   0.139   0.382   5.775
    1   AR   Ar   17   6.148   2.986   0.691
    1   AR   Ar   18   6.221   5.521  -1.553
    1   AR   Ar   19   5.129   4.467   0.187
    1   AR   Ar   20   6.809   4.278  -2.700
    1   AR   Ar   21   2.937   2.037   2.563
    1   AR   Ar   22   5.427   1.203   2.152
    1   AR   Ar   23   7.113   6.391   1.165
    1   AR   Ar   24   5.782   2.386   2.636
    1   AR   Ar   25   0.819   2.252   3.981
    1   AR   Ar   26   5.251   6.982   4.621
    1   AR   Ar   27   1.834   0.961   2.403
    1   AR   Ar   28   1.864   2.425   4.127
    1   AR   Ar   29   4.919   1.152   7.220
    1   AR   Ar   30   0.842   1.283   3.240
    1   AR   Ar   31   4.209   0.307   7.493
    1   AR   Ar   32   0.831   2.545   5.717
    1   AR   Ar   33   0.812   4.164  -0.149
    1   AR   Ar   34   0.897   4.726   2.445
    1   AR   Ar   35   5.478   5.126   2.610
    1   AR   Ar   36   6.114   2.795  -2.687
    1   AR   Ar   37   4.221   3.223   2.150
    1   AR   Ar   38   6.994   4.296   3.994
    1   AR   Ar   39   0.322   2.987   3.215
    1   AR   Ar   40   1.797   4.764   1.726
    1   AR   Ar   41   0.375   2.198   2.478
    1   AR   Ar   42   5.749   5.983   5.519
    1   AR   Ar   43   6.920   2.726   6.078
    1   AR   Ar   44   0.742   4.048   3.605
    1   AR   Ar   45   0.221   3.537   5.657
    1   AR   Ar   46   0.740   4.564   6.560
    1   AR   Ar   47   3.908   5.475   7.500
    1   AR   Ar   48   5.956   3.631   7.585
    1   AR   Ar   49   6.711   0.024  -0.711
    1   AR   Ar   50   3.269   5.157   0.292
    1   AR   Ar   51   5.988   3.532   2.487
    1   AR   Ar   52   4.787   2.774  -1.556
    1   AR   Ar   53   5.081   0.106   2.590
    1   AR   Ar   54   0.298   0.468   2.123
    1   AR   Ar   55   6.958   4.310   2.694
    1   AR   Ar   56   6.385   1.280   2.771
    1   AR   Ar   57   3.955   4.059   2.706
    1   AR   Ar   58   0.567   3.792   4.782
    1   AR   Ar   59   2.496   5.887   5.857
    1   AR   Ar   60   7.050   5.245   3.410
    1   AR   Ar   61   6.948   3.732   7.187
    1   AR   Ar   62   6.920   4.518   5.190
    1   AR   Ar   63   2.328   2.598   7.170
    1   AR   Ar   64   0.308   5.483   5.164
    1   AR   Ar   65   3.663   0.252   1.913
    1   AR   Ar   66   1.070   0.854   0.983
    1   AR   Ar   67   5.024   0.563  -0.545
    1   AR   Ar   68   0.822   1.027  -0.562
    1   AR   Ar   69   3.380   1.621   0.223
    1   AR   Ar   70   0.731   1.376   1.786
    1   AR   Ar   71   2.589   0.499   2.849
    1   AR   Ar   72   4.361   0.960   1.545
    1   AR   Ar   73   3.069   0.617   3.832
    1   AR   Ar   74   0.749   1.188   4.742
    1   AR   Ar   75   3.343   0.401   5.168
    1   AR   Ar   76   2.220   0.738   1.490
    1   AR   Ar   77   2.017   0.127   5.713
    1   AR   Ar   78   6.810   5.385   6.360
    1   AR   Ar   79   3.197   6.678   5.945
    1   AR   Ar   80   3.739   5.489   5.141
    1   AR   Ar   81   1.133   6.834   1.562
    1   AR   Ar   82   6.542   4.648   0.658
    1   AR   Ar   83   0.781   3.051  -0.268
    1   AR   Ar   84   1.560   4.036   0.962
    1   AR   Ar   85   2.810   3.794  -0.160
    1   AR   Ar   86   2.077   5.529   0.926
    1   AR   Ar   87   3.041   3.394   2.357
    1   AR   Ar   88   3.204   5.592   1.591
    1   AR   Ar   89   6.591   1.896   0.942
    1   AR   Ar   90   3.490   1.646   5.278
    1   AR   Ar   91   1.807   2.109   3.132
    1   AR   Ar   92   1.698   3.655   1.900
    1   AR   Ar   93   1.810   1.385   6.267
    1   AR   Ar   94   1.234   6.495   9.029
    1   AR   Ar   95   4.463   1.310   5.225
    1   AR   Ar   96   2.657   6.995   4.447
    1   AR   Ar   97   3.685   2.164  -0.717
    1   AR   Ar   98   1.688   4.420   4.175
    1   AR   Ar   99   5.899   1.233  -0.541
    1   AR   Ar  100   0.060   3.297  -2.777
    1   AR   Ar  101   4.175   6.271   2.088
    1   AR   Ar  102   3.850   1.356   3.061
    1   AR   Ar  103   2.569   4.532   0.681
    1   AR   Ar  104   3.512   5.704  -1.174
    1   AR   Ar  105   2.506   1.514   3.679
    1   AR   Ar  106   3.620   2.691   5.719
    1   AR   Ar  107   1.390   4.925   5.176
    1   AR   Ar  108   2.206   1.087   4.655
    1   AR   Ar  109   1.753   3.521   5.094
    1   AR   Ar  110   2.783   2.158   4.546
    1   AR   Ar  111   4.432   6.336   7.709
    1   AR   Ar  112   0.130   6.388   5.872
    1   AR   Ar  113   3.176   4.581  -0.672
    1   AR   Ar  114   2.642   0.360  -1.419
    1   AR   Ar  115   1.769   4.751  -0.231
    1   AR   Ar  116   4.630   0.789   0.510
    1   AR   Ar  117   0.678   5.010   4.283
    1   AR   Ar  118   1.472   5.310   3.439
    1   AR   Ar  119   2.024   4.299   2.801
    1   AR   Ar  120   1.426   6.916   2.713
    1   AR   Ar  121   5.498   4.444   5.455
    1   AR   Ar  122   3.238   5.630   4.051
    1   AR   Ar  123   2.753   3.295   5.302
    1   AR   Ar  124   1.063   5.346   1.219
    1   AR   Ar  125   6.272   3.575   4.576
    1   AR   Ar  126   6.764   0.765   6.600
    1   AR   Ar  127   4.476   3.062   6.189
    1   AR   Ar  128   3.040   3.725   7.629
    1   AR   Ar  129   2.247   5.740   4.773
    1   AR   Ar  130   4.299   1.207  -4.593
    1   AR   Ar  131   4.315   5.203  -2.241
    1   AR   Ar  132   0.481   1.720   0.523
    1   AR   Ar  133   4.261   0.726   4.338
    1   AR   Ar  134   3.662   1.448   4.233
    1   AR   Ar  135   5.845   1.423   3.642
    1   AR   Ar  136   6.235   0.235   2.763
    1   AR   Ar  137   3.249   4.713   5.934
    1   AR   Ar  138   5.716   1.662   5.562
    1   AR   Ar  139   5.969   2.695   5.492
    1   AR   Ar  140   4.293   6.387   5.031
    1   AR   Ar  141   4.304   5.357   4.005
    1   AR   Ar  142   4.900   0.256   6.769
    1   AR   Ar  143   6.264   6.643   6.521
    1   AR   Ar  144   6.166   1.537   4.574
    1   AR   Ar  145   4.113   4.900  -0.445
    1   AR   Ar  146   3.899   2.607   3.000
    1   AR   Ar  147   5.187   3.520  -0.758
    1   AR   Ar  148   3.704   6.735  -1.362
    1   AR   Ar  149   2.478   0.293  -0.362
    1   AR   Ar  150   2.234   2.827   2.412
    1   AR   Ar  151   2.710   2.632   3.475
    1   AR   Ar  152   0.946   2.632  -2.090
    1   AR   Ar  153   5.270   0.430   3.634
    1   AR   Ar  154   4.887   1.786   4.319
    1   AR   Ar  155   6.300   3.604   6.190
    1   AR   Ar  156   2.864   4.503   3.382
    1   AR   Ar  157   1.749   5.096   6.741
    1   AR   Ar  158   0.601   1.456   5.711
    1   AR   Ar  159   3.756   0.373   6.100
    1   AR   Ar  160   1.590   1.953   4.988
    1   AR   Ar  161   4.867   4.557   3.613
    1   AR   Ar  162   4.210   6.033  -0.384
    1   AR   Ar  163   5.406   4.788   1.218
    1   AR   Ar  164   1.928   5.953   2.082
    1   AR   Ar  165   3.532   4.138   1.440
    1   AR   Ar  166   2.581   3.386   4.200
    1   AR   Ar  167   5.817   6.508   3.419
    1   AR   Ar  168   5.233   3.699  -1.875
    1   AR   Ar  169   3.524   3.303   3.608
    1   AR   Ar  170   2.030   3.087   6.016
    1   AR   Ar  171   5.565   4.779   4.463
    1   AR   Ar  172   3.868   3.914   5.360
    1   AR   Ar  173   2.581   2.143   5.614
    1   AR   Ar  174   3.203   6.340   4.983
    1   AR   Ar  175   2.925   1.021   6.061
    1   AR   Ar  176   3.768   2.576   4.253
    1   AR   Ar  177   1.014   4.845  -1.301
    1   AR   Ar  178   2.572   6.269   0.169
    1   AR   Ar  179   3.461   6.907   0.685
    1   AR   Ar  180   4.669   1.772  -6.429
    1   AR   Ar  181   0.105   5.152   1.696
    1   AR   Ar  182   0.545   6.135   2.086
    1   AR   Ar  183   5.001   5.728   1.615
    1   AR   Ar  184   4.419   6.868   0.233
    1   AR   Ar  185   2.996   4.769   4.875
    1   AR   Ar  186   2.515   5.468   3.283
    1   AR   Ar  187   3.647   6.576   3.599
    1   AR   Ar  188   2.468   6.847   2.210
    1   AR   Ar  189   5.361   3.712   6.601
    1   AR   Ar  190   2.554   6.742   3.346
    1   AR   Ar  191   3.728   6.476   6.922
    1   AR   Ar  192   4.688   4.913   6.265
    1   AR   Ar  193   2.525   6.380   1.276
    1   AR   Ar  194   5.417   4.774  -0.801
    1   AR   Ar  195   5.594   1.479   0.868
    1   AR   Ar  196   3.842   0.510  -0.416
    1   AR   Ar  197   4.339   2.315   0.759
    1   AR   Ar  198   5.584   0.253   1.709
    1   AR   Ar  199   1.496   0.532   3.580
    1   AR   Ar  200   5.134   3.079   0.423
    1   AR   Ar  201   6.721   6.408   2.356
    1   AR   Ar  202   5.402   0.809   5.065
    1   AR   Ar  203   0.492   6.326   3.237
    1   AR   Ar  204   4.799   6.041   6.307
    1   AR   Ar  205   6.143   1.896   1.814
    1   AR   Ar  206   5.894   0.647   5.943
    1   AR   Ar  207   0.387   2.741   4.785
    1   AR   Ar  208   1.031   6.048   4.442
    1   AR   Ar  209   7.010   2.202  -2.311
    1   AR   Ar  210   1.480   0.109   0.537
    1   AR   Ar  211   0.312   3.142   0.889
    1   AR   Ar  212   5.993   3.997  -0.169
    1   AR   Ar  213   3.831   1.901   1.815
    1   AR   Ar  214   4.868   4.164   2.147
    1   AR   Ar  215   6.838   2.948   2.329
    1   AR   Ar  216   1.236   2.636   1.214
    1   AR   Ar  217   4.848   1.546   3.178
    1   AR   Ar  218   4.683   3.003   4.468
    1   AR   Ar  219   4.838   3.188   3.161
    1   AR   Ar  220   4.507   3.469   1.172
    1   AR   Ar  221   6.719   5.880   4.192
    1   AR   Ar  222   5.053   7.031   5.719
    1   AR   Ar  223   6.777   1.760   6.359
    1   AR   Ar  224   4.868   2.212   5.309
    1   AR   Ar  225   6.348   3.045   3.327
    1   AR   Ar  226   1.506   3.432   3.091
    1   AR   Ar  227   0.757   3.141   2.230
    1   AR   Ar  228   6.426   0.860   1.430
    1   AR   Ar  229   6.470   4.397  -0.986
    1   AR   Ar  230   3.612   4.237   4.202
    1   AR   Ar  231   4.733   2.268   2.125
    1   AR   Ar  232   5.355   2.955   1.866
    1   AR   Ar  233   6.902   2.453   3.939
    1   AR   Ar  234   5.733   2.479   4.073
    1   AR   Ar  235   6.963   0.270   3.475
    1   AR   Ar  236   4.934   5.522   4.998
    1   AR   Ar  237   4.827   2.252   6.745
    1   AR   Ar  238   5.739   5.593   6.520
    1   AR   Ar  239   0.531   4.253  10.408
    1   AR   Ar  240   1.143   2.026   6.668
    1   AR   Ar  241   2.174   6.293  -1.076
    1   AR   Ar  242   5.763   6.308   1.544
    1   AR   Ar  243   4.991   5.931   2.856
    1   AR   Ar  244   0.362   5.454   0.158
    1   AR   Ar  245   3.949   0.249   2.901
    1   AR   Ar  246   5.472   6.655  -0.701
    1   AR   Ar  247   6.511   3.785   1.582
    1   AR   Ar  248   5.034   5.863   0.279
    1   AR   Ar  249   4.637   6.988   1.549
    1   AR   Ar  250   5.028   6.020   3.929
    1   AR   Ar  251   4.579   4.569   4.814
    1   AR   Ar  252   2.917   4.667   2.102
    1   AR   Ar  253   6.092   2.860   6.844
    1   AR   Ar  254   4.874   1.687   9.998
    1   AR   Ar  255   3.840   5.616   9.701
    1   AR   Ar  256   5.750   5.303   3.629
    7.12000  7.12000 12.00000
Argon-slab step 4570
  256
    1   AR   Ar    1   4.718   3.424  -2.829
    1   AR   Ar    2   5.363   6.982   0.656
    1   AR   Ar    3   3.792   3.236  -1.093
    1   AR   Ar    4   1.893   1.417   0.678
    1   AR   Ar    5   6.030   5.716  -0.223
    1   AR   Ar    6   1.694   1.826   1.708
    1   AR   Ar    7   6.079   4.186   3.435
    1   AR   Ar    8   5.737   2.522  -0.830
    1   AR   Ar    9   0.599   7.083   4.153
    1   AR   Ar   10   6.289   6.881   4.791
    1   AR   Ar   11   1.596   0.177   4.500
    1   AR   Ar   12   6.873   1.465   3.737
    1   AR   Ar   13   6.742   0.659   4.601
    1   AR   Ar   14   4.078   1.444   6.205
    1   AR   Ar   15   3.505   7.068   9.111
    1   AR   Ar   16   0.154   0.375   5.801
    1   AR   Ar   17   6.150   3.001   0.681
    1   AR   Ar   18   6.180   5.506  -1.575
    1   AR   Ar   19   5.105   4.472   0.210
    1   AR   Ar   20   6.812   4.280  -2.689
    1   AR   Ar   21   2.931   2.046   2.587
    1   AR   Ar   22   5.440   1.199   2.174
    1   AR   Ar   23   7.087   6.412   1.184
    1   AR   Ar   24   5.768   2.376   2.650
    1   AR   Ar   25   0.786   2.254   3.975
    1   AR   Ar   26   5.275   6.988   4.603
    1   AR   Ar   27   1.818   0.965   2.383
    1   AR   Ar   28   1.880   2.434   4.173
    1   AR   Ar   29   4.940   1.158   7.231
    1   AR   Ar   30   0.830   1.275   3.214
    1   AR   Ar   31   4.216   0.295   7.492
    1   AR   Ar   32   0.843   2.541   5.705
    1   AR   Ar   33   0.827   4.186  -0.128
    1   AR   Ar   34   0.877   4.735   2.459
    1   AR   Ar   35   5.500   5.120   2.595
    1   AR   Ar   36   6.081   2.819  -2.685
    1   AR   Ar   37   4.212   3.192   2.162
    1   AR   Ar   38   7.002   4.289   3.992
    1   AR   Ar   39   0.318   2.986   3.220
    1   AR   Ar   40   1.823   4.749   1.699
    1   AR   Ar   41   0.392   2.165   2.499
    1   AR   Ar   42   5.726   5.984   5.527
    1   AR   Ar   43   6.905   2.715   6.097
    1   AR   Ar   44   0.785   4.033   3.625
    1   AR   Ar   45   0.198   3.543   5.674
    1   AR   Ar   46   0.724   4.582   6.550
    1   AR   Ar   47   3.923   5.458   7.501
    1   AR   Ar   48   5.977   3.625   7.591
    1   AR   Ar   49   6.719   0.016  -0.710
    1   AR   Ar   50   3.257   5.142   0.272
    1   AR   Ar   51   5.980   3.530   2.446
    1   AR   Ar   52   4.790   2.773  -1.558
    1   AR   Ar   53   5.069   0.096   2.580
    1   AR   Ar   54   0.309   0.479   2.122
    1   AR   Ar   55   6.985   4.311   2.706
    1   AR   Ar   56   6.376   1.297   2.811
    1   AR   Ar   57   3.957   4.059   2.673
    1   AR   Ar   58   0.604   3.821   4.748
    1   AR   Ar   59   2.458   5.890   5.855
    1   AR   Ar   60   7.048   5.257   3.420
    1   AR   Ar   61   6.975   3.721   7.186
    1   AR   Ar   62   6.933   4.555   5.208
    1   AR   Ar   63   2.340   2.578   7.183
    1   AR   Ar   64   0.290   5.489   5.154
    1   AR   Ar   65   3.686   0.262   1.920
    1   AR   Ar   66   1.096   0.901   1.007
    1   AR   Ar   67   5.015   0.563  -0.528
    1   AR   Ar   68   0.854   1.006  -0.526
    1   AR   Ar   69   3.376   1.643   0.228
    1   AR   Ar   70   0.705   1.395   1.791
    1   AR   Ar   71   2.590   0.539   2.852
    1   AR   Ar   72   4.374   0.939   1.554
    1   AR   Ar   73   3.055   0.646   3.803
    1   AR   Ar   74   0.723   1.176   4.749
    1   AR   Ar   75   3.339   0.386   5.166
    1   AR   Ar   76   2.218   0.709   1.496
    1   AR   Ar   77   2.044   0.117   5.702
    1   AR   Ar   78   6.777   5.371   6.364
    1   AR   Ar   79   3.191   6.703   5.916
    1   AR   Ar   80   3.698   5.479   5.113
    1   AR   Ar   81   1.130   6.861   1.562
    1   AR   Ar   82   6.508   4.619   0.660
    1   AR   Ar   83   0.769   3.032  -0.259
    1   AR   Ar   84   1.577   4.051   0.939
    1   AR   Ar   85   2.824   3.820  -0.164
    1   AR   Ar   86   2.068   5.527   0.934
    1   AR   Ar   87   3.055   3.415   2.375
    1   AR   Ar   88   3.193   5.610   1.601
    1   AR   Ar   89   6.543   1.894   0.951
    1   AR   Ar   90   3.498   1.647   5.266
    1   AR   Ar   91   1.809   2.111   3.143
    1   AR   Ar   92   1.704   3.623   1.903
    1   AR   Ar   93   1.804   1.349   6.257
    1   AR   Ar   94   1.247   6.495   9.072
    1   AR   Ar   95   4.465   1.292   5.199
    1   AR   Ar   96   2.689   7.012   4.459
    1   AR   Ar   97   3.706   2.207  -0.728
    1   AR   Ar   98   1.680   4.416   4.158
    1   AR   Ar   99   5.857   1.195  -0.552
    1   AR   Ar  100   0.078   3.287  -2.795
    1   AR   Ar  101   4.178   6.304   2.082
    1   AR   Ar  102   3.831   1.332   3.058
    1   AR   Ar  103   2.578   4.525   0.683
    1   AR   Ar  104   3.534   5.708  -1.181
    1   AR   Ar  105   2.531   1.530   3.678
    1   AR   Ar  106   3.626   2.697   5.739
    1   AR   Ar  107   1.418   4.936   5.201
    1   AR   Ar  108   2.219   1.025   4.620
    1   AR   Ar  109   1.752   3.564   5.080
    1   AR   Ar  110   2.790   2.102   4.533
    1   AR   Ar  111   4.440   6.366   7.730
    1   AR   Ar  112   0.096   6.375   5.827
    1   AR   Ar  113   3.176   4.594  -0.665
    1   AR   Ar  114   2.640   0.375  -1.409
    1   AR   Ar  115   1.761   4.743  -0.241
    1   AR   Ar  116   4.625   0.810   0.522
    1   AR   Ar  117   0.710   5.008   4.312
    1   AR   Ar  118   1.486   5.265   3.451
    1   AR   Ar  119   2.025   4.313   2.843
    1   AR   Ar  120   1.435   6.925   2.745
    1   AR   Ar  121   5.510   4.434   5.457
    1   AR   Ar  122   3.256   5.629   4.053
    1   AR   Ar  123   2.752   3.341   5.302
    1   AR   Ar  124   1.061   5.334   1.188
    1   AR   Ar  125   6.245   3.566   4.561
    1   AR   Ar  126   6.752   0.771   6.653
    1   AR   Ar  127   4.448   3.073   6.180
    1   AR   Ar  128   3.041   3.738   7.640
    1   AR   Ar  129   2.246   5.775   4.806
    1   AR   Ar  130   4.292   1.181  -4.572
    1   AR   Ar  131   4.323   5.190  -2.237
    1   AR   Ar  132   0.464   1.707   0.522
    1   AR   Ar  133   4.289   0.723   4.334
    1   AR   Ar  134   3.651   1.435   4.244
    1   AR   Ar  135   5.830   1.457   3.650
    1   AR   Ar  136   6.200   0.242   2.764
    1   AR   Ar  137   3.265   4.708   5.928
    1   AR   Ar  138   5.719   1.666   5.552
    1   AR   Ar  139   5.967   2.722   5.474
    1   AR   Ar  140   4.320   6.398   5.068
    1   AR   Ar  141   4.325   5.378   4.002
    1   AR   Ar  142   4.921   0.255   6.764
    1   AR   Ar  143   6.285   6.637   6.535
    1   AR   Ar  144   6.140   1.514   4.559
    1   AR   Ar  145   4.117   4.899  -0.427
    1   AR   Ar  146   3.877   2.607   3.003
    1   AR   Ar  147   5.213   3.505  -0.778
    1   AR   Ar  148   3.721   6.746  -1.381
    1   AR   Ar  149   2.464   0.309  -0.358
    1   AR   Ar  150   2.218   2.807   2.413
    1   AR   Ar  151   2.693   2.643   3.472
    1   AR   Ar  152   0.931   2.656  -2.119
    1   AR   Ar  153   5.250   0.426   3.648
    1   AR   Ar  154   4.903   1.789   4.356
    1   AR   Ar  155   6.320   3.607   6.190
    1   AR   Ar  156   2.865   4.499   3.415
    1   AR   Ar  157   1.764   5.116   6.751
    1   AR   Ar  158   0.603   1.461   5.703
    1   AR   Ar  159   3.756   0.364   6.103
    1   AR   Ar  160   1.581   1.981   5.017
    1   AR   Ar  161   4.844   4.539   3.632
    1   AR   Ar  162   4.213   6.018  -0.398
    1   AR   Ar  163   5.402   4.793   1.262
    1   AR   Ar  164   1.928   5.964   2.101
    1   AR   Ar  165   3.543   4.139   1.479
    1   AR   Ar  166   2.584   3.375   4.177
    1   AR   Ar  167   5.820   6.529   3.429
    1   AR   Ar  168   5.245   3.704  -1.867
    1   AR   Ar  169   3.535   3.311   3.610
    1   AR   Ar  170   2.004   3.070   6.029
    1   AR   Ar  171   5.530   4.771   4.469
    1   AR   Ar  172   3.861   3.907   5.323
    1   AR   Ar  173   2.575   2.131   5.627
    1   AR   Ar  174   3.208   6.353   4.993
    1   AR   Ar  175   2.916   0.989   6.070
    1   AR   Ar  176   3.786   2.588   4.280
    1   AR   Ar  177   0.999   4.832  -1.304
    1   AR   Ar  178   2.575   6.296   0.169
    1   AR   Ar  179   3.508   6.913   0.715
    1   AR   Ar  180   4.660   1.772  -6.462
    1   AR   Ar  181   0.125   5.148   1.703
    1   AR   Ar  182   0.545   6.140   2.087
    1   AR   Ar  183   4.995   5.731   1.624
    1   AR   Ar  184   4.422   6.861   0.215
    1   AR   Ar  185   2.976   4.754   4.860
    1   AR   Ar  186   2.542   5.488   3.245
    1   AR   Ar  187   3.629   6.587   3.601
    1   AR   Ar  188   2.450   6.864   2.203
    1   AR   Ar  189   5.313   3.704   6.583
    1   AR   Ar  190   2.541   6.741   3.347
    1   AR   Ar  191   3.719   6.522   6.920
    1   AR   Ar  192   4.694   4.907   6.248
    1   AR   Ar  193   2.539   6.368   1.288
    1   AR   Ar  194   5.431   4.798  -0.815
    1   AR   Ar  195   5.617   1.492   0.890
    1   AR   Ar  196   3.828   0.520  -0.394
    1   AR   Ar  197   4.350   2.306   0.773
    1   AR   Ar  198   5.568   0.234   1.738
    1   AR   Ar  199   1.476   0.542   3.557
    1   AR   Ar  200   5.145   3.090   0.393
    1   AR   Ar  201   6.721   6.435   2.339
    1   AR   Ar  202   5.405   0.833   5.040
    1   AR   Ar  203   0.522   6.360   3.235
    1   AR   Ar  204   4.819   6.078   6.327
    1   AR   Ar  205   6.125   1.940   1.820
    1   AR   Ar  206   5.869   0.646   5.940
    1   AR   Ar  207   0.388   2.758   4.783
    1   AR   Ar  208   1.029   5.980   4.498
    1   AR   Ar  209   7.008   2.200  -2.297
    1   AR   Ar  210   1.458   0.085   0.531
    1   AR   Ar  211   0.308   3.129   0.884
    1   AR   Ar  212   6.016   3.963  -0.168
    1   AR   Ar  213   3.852   1.916   1.809
    1   AR   Ar  214   4.884   4.172   2.141
    1   AR   Ar  215   6.847   2.899   2.312
    1   AR   Ar  216   1.229   2.598   1.217
    1   AR   Ar  217   4.875   1.549   3.202
    1   AR   Ar  218   4.663   2.987   4.471
    1   AR   Ar  219   4.854   3.191   3.162
    1   AR   Ar  220   4.497   3.469   1.182
    1   AR   Ar  221   6.727   5.898   4.184
    1   AR   Ar  222   5.029   7.044   5.676
    1   AR   Ar  223   6.780   1.757   6.350
    1   AR   Ar  224   4.876   2.205   5.326
    1   AR   Ar  225   6.340   3.046   3.348
    1   AR   Ar  226   1.529   3.418   3.082
    1   AR   Ar  227   0.741   3.145   2.235
    1   AR   Ar  228   6.407   0.890   1.456
    1   AR   Ar  229   6.491   4.400  -0.998
    1   AR   Ar  230   3.627   4.238   4.178
    1   AR   Ar  231   4.741   2.266   2.127
    1   AR   Ar  232   5.386   2.950   1.858
    1   AR   Ar  233   6.865   2.472   3.936
    1   AR   Ar  234   5.714   2.458   4.054
    1   AR   Ar  235   6.986   0.272   3.450
    1   AR   Ar  236   4.925   5.479   4.997
    1   AR   Ar  237   4.830   2.268   6.711
    1   AR   Ar  238   5.751   5.626   6.541
    1   AR   Ar  239   0.553   4.252  10.398
    1   AR   Ar  240   1.142   2.033   6.669
    1   AR   Ar  241   2.135   6.303  -1.104
    1   AR   Ar  242   5.751   6.338   1.536
    1   AR   Ar  243   5.018   5.949   2.866
    1   AR   Ar  244   0.379   5.422   0.155
    1   AR   Ar  245   3.978   0.211   2.895
    1   AR   Ar  246   5.463   6.662  -0.676
    1   AR   Ar  247   6.493   3.803   1.610
    1   AR   Ar  248   5.023   5.836   0.293
    1   AR   Ar  249   4.642   7.026   1.504
    1   AR   Ar  250   5.006   6.030   3.957
    1   AR   Ar  251   4.578   4.589   4.796
    1   AR   Ar  252   2.905   4.696   2.116
    1   AR   Ar  253   6.074   2.862   6.844
    1   AR   Ar  254   4.881   1.667  10.004
    1   AR   Ar  255   3.874   5.598   9.679
    1   AR   Ar  256   5.762   5.325   3.618
    7.12000  7.12000 12.00000
Argon-slab step 4575
  256
    1   AR   Ar    1   4.696   3.418  -2.836
    1   AR   Ar    2   5.376   6.974   0.682
    1   AR   Ar    3   3.840   3.230  -1.067
    1   AR   Ar    4   1.936   1.417   0.694
    1   AR   Ar    5   6.043   5.707  -0.241
    1   AR   Ar    6   1.701   1.836   1.734
    1   AR   Ar    7   6.118   4.190   3.452
    1   AR   Ar    8   5.768   2.524  -0.861
    1   AR   Ar    9   0.590   7.045   4.161
    1   AR   Ar   10   6.312   6.873   4.774
    1   AR   Ar   11   1.566   0.194   4.532
    1   AR   Ar   12   6.889   1.481   3.721
    1   AR   Ar   13   6.730   0.645   4.606
    1   AR   Ar   14   4.089   1.429   6.200
    1   AR   Ar   15   3.491   7.059   9.107
    1   AR   Ar   16   0.170   0.369   5.825
    1   AR   Ar   17   6.156   3.016   0.673
    1   AR   Ar   18   6.138   5.490  -1.595
    1   AR   Ar   19   5.080   4.476   0.232
    1   AR   Ar   20   6.815   4.283  -2.677
    1   AR   Ar   21   2.928   2.052   2.611
    1   AR   Ar   22   5.450   1.196   2.197
    1   AR   Ar   23   7.061   6.433   1.205
    1   AR   Ar   24   5.751   2.367   2.675
    1   AR   Ar   25   0.746   2.257   3.966
    1   AR   Ar   26   5.294   6.991   4.583
    1   AR   Ar   27   1.805   0.969   2.369
    1   AR   Ar   28   1.896   2.449   4.211
    1   AR   Ar   29   4.960   1.169   7.245
    1   AR   Ar   30   0.814   1.272   3.185
    1   AR   Ar   31   4.217   0.283   7.495
    1   AR   Ar   32   0.857   2.536   5.693
    1   AR   Ar   33   0.881   4.177  -0.097
    1   AR   Ar   34   0.858   4.745   2.474
    1   AR   Ar   35   5.526   5.105   2.576
    1   AR   Ar   36   6.049   2.844  -2.681
    1   AR   Ar   37   4.204   3.160   2.173
    1   AR   Ar   38   7.003   4.284   3.995
    1   AR   Ar   39   0.317   2.989   3.226
    1   AR   Ar   40   1.831   4.736   1.671
    1   AR   Ar   41   0.413   2.123   2.523
    1   AR   Ar   42   5.702   5.987   5.534
    1   AR   Ar   43   6.890   2.707   6.115
    1   AR   Ar   44   0.833   4.017   3.642
    1   AR   Ar   45   0.176   3.552   5.690
    1   AR   Ar   46   0.728   4.599   6.546
    1   AR   Ar   47   3.945   5.478   7.512
    1   AR   Ar   48   5.995   3.620   7.598
    1   AR   Ar   49   6.727   0.007  -0.709
    1   AR   Ar   50   3.271   5.153   0.300
    1   AR   Ar   51   5.968   3.532   2.417
    1   AR   Ar   52   4.825   2.776  -1.556
    1   AR   Ar   53   5.051   0.085   2.580
    1   AR   Ar   54   0.317   0.487   2.122
    1   AR   Ar   55   7.011   4.309   2.719
    1   AR   Ar   56   6.369   1.315   2.842
    1   AR   Ar   57   3.955   4.061   2.643
    1   AR   Ar   58   0.644   3.854   4.710
    1   AR   Ar   59   2.436   5.895   5.852
    1   AR   Ar   60   7.048   5.265   3.426
    1   AR   Ar   61   7.001   3.710   7.182
    1   AR   Ar   62   6.946   4.587   5.225
    1   AR   Ar   63   2.352   2.559   7.194
    1   AR   Ar   64   0.272   5.498   5.146
    1   AR   Ar   65   3.701   0.268   1.922
    1   AR   Ar   66   1.116   0.946   1.033
    1   AR   Ar   67   5.002   0.560  -0.509
    1   AR   Ar   68   0.885   0.986  -0.488
    1   AR   Ar   69   3.339   1.639   0.230
    1   AR   Ar   70   0.677   1.419   1.802
    1   AR   Ar   71   2.599   0.583   2.859
    1   AR   Ar   72   4.391   0.924   1.561
    1   AR   Ar   73   3.046   0.671   3.774
    1   AR   Ar   74   0.699   1.162   4.745
    1   AR   Ar   75   3.334   0.374   5.159
    1   AR   Ar   76   2.217   0.678   1.496
    1   AR   Ar   77   2.074   0.107   5.689
    1   AR   Ar   78   6.746   5.357   6.366
    1   AR   Ar   79   3.177   6.722   5.896
    1   AR   Ar   80   3.663   5.463   5.086
    1   AR   Ar   81   1.128   6.891   1.562
    1   AR   Ar   82   6.474   4.590   0.663
    1   AR   Ar   83   0.758   3.014  -0.249
    1   AR   Ar   84   1.584   4.060   0.904
    1   AR   Ar   85   2.834   3.837  -0.161
    1   AR   Ar   86   2.059   5.519   0.959
    1   AR   Ar   87   3.061   3.414   2.390
    1   AR   Ar   88   3.185   5.627   1.610
    1   AR   Ar   89   6.509   1.895   0.945
    1   AR   Ar   90   3.501   1.650   5.258
    1   AR   Ar   91   1.806   2.112   3.151
    1   AR   Ar   92   1.711   3.592   1.910
    1   AR   Ar   93   1.802   1.311   6.243
    1   AR   Ar   94   1.259   6.494   9.115
    1   AR   Ar   95   4.466   1.267   5.176
    1   AR   Ar   96   2.713   7.033   4.465
    1   AR   Ar   97   3.727   2.250  -0.737
    1   AR   Ar   98   1.673   4.411   4.141
    1   AR   Ar   99   5.818   1.160  -0.562
    1   AR   Ar  100   0.098   3.273  -2.813
    1   AR   Ar  101   4.179   6.335   2.080
    1   AR   Ar  102   3.808   1.308   3.056
    1   AR   Ar  103   2.581   4.515   0.690
    1   AR   Ar  104   3.556   5.710  -1.187
    1   AR   Ar  105   2.556   1.548   3.674
    1   AR   Ar  106   3.624   2.699   5.752
    1   AR   Ar  107   1.446   4.948   5.224
    1   AR   Ar  108   2.234   0.977   4.592
    1   AR   Ar  109   1.747   3.607   5.062
    1   AR   Ar  110   2.798   2.085   4.546
    1   AR   Ar  111   4.429   6.341   7.745
    1   AR   Ar  112   0.061   6.361   5.782
    1   AR   Ar  113   3.175   4.615  -0.667
    1   AR   Ar  114   2.646   0.360  -1.389
    1   AR   Ar  115   1.754   4.737  -0.250
    1   AR   Ar  116   4.637   0.827   0.514
    1   AR   Ar  117   0.741   4.999   4.338
    1   AR   Ar  118   1.498   5.220   3.463
    1   AR   Ar  119   2.023   4.330   2.881
    1   AR   Ar  120   1.445   6.934   2.775
    1   AR   Ar  121   5.523   4.422   5.463
    1   AR   Ar  122   3.266   5.625   4.053
    1   AR   Ar  123   2.749   3.376   5.314
    1   AR   Ar  124   1.056   5.322   1.157
    1   AR   Ar  125   6.218   3.556   4.545
    1   AR   Ar  126   6.738   0.772   6.708
    1   AR   Ar  127   4.425   3.090   6.171
    1   AR   Ar  128   3.041   3.751   7.651
    1   AR   Ar  129   2.245   5.810   4.836
    1   AR   Ar  130   4.285   1.155  -4.552
    1   AR   Ar  131   4.331   5.177  -2.231
    1   AR   Ar  132   0.447   1.694   0.522
    1   AR   Ar  133   4.330   0.703   4.329
    1   AR   Ar  134   3.630   1.437   4.250
    1   AR   Ar  135   5.803   1.490   3.647
    1   AR   Ar  136   6.160   0.246   2.761
    1   AR   Ar  137   3.282   4.696   5.920
    1   AR   Ar  138   5.728   1.672   5.548
    1   AR   Ar  139   5.966   2.750   5.456
    1   AR   Ar  140   4.349   6.410   5.104
    1   AR   Ar  141   4.327   5.384   4.002
    1   AR   Ar  142   4.959   0.243   6.758
    1   AR   Ar  143   6.305   6.632   6.547
    1   AR   Ar  144   6.118   1.496   4.560
    1   AR   Ar  145   4.117   4.899  -0.430
    1   AR   Ar  146   3.844   2.587   2.992
    1   AR   Ar  147   5.238   3.491  -0.796
    1   AR   Ar  148   3.726   6.757  -1.393
    1   AR   Ar  149   2.450   0.323  -0.351
    1   AR   Ar  150   2.209   2.813   2.404
    1   AR   Ar  151   2.679   2.651   3.464
    1   AR   Ar  152   0.915   2.681  -2.149
    1   AR   Ar  153   5.263   0.421   3.663
    1   AR   Ar  154   4.892   1.814   4.371
    1   AR   Ar  155   6.335   3.614   6.177
    1   AR   Ar  156   2.870   4.492   3.452
    1   AR   Ar  157   1.780   5.136   6.760
    1   AR   Ar  158   0.604   1.468   5.703
    1   AR   Ar  159   3.771   0.362   6.114
    1   AR   Ar  160   1.588   1.983   4.992
    1   AR   Ar  161   4.804   4.543   3.631
    1   AR   Ar  162   4.214   6.001  -0.414
    1   AR   Ar  163   5.399   4.796   1.305
    1   AR   Ar  164   1.925   5.970   2.121
    1   AR   Ar  165   3.556   4.138   1.518
    1   AR   Ar  166   2.599   3.360   4.143
    1   AR   Ar  167   5.824   6.551   3.439
    1   AR   Ar  168   5.257   3.710  -1.861
    1   AR   Ar  169   3.539   3.326   3.606
    1   AR   Ar  170   1.970   3.073   6.047
    1   AR   Ar  171   5.501   4.762   4.471
    1   AR   Ar  172   3.853   3.900   5.284
    1   AR   Ar  173   2.568   2.119   5.639
    1   AR   Ar  174   3.213   6.362   4.995
    1   AR   Ar  175   2.905   0.959   6.077
    1   AR   Ar  176   3.793   2.589   4.308
    1   AR   Ar  177   0.984   4.818  -1.306
    1   AR   Ar  178   2.580   6.323   0.168
    1   AR   Ar  179   3.550   6.919   0.748
    1   AR   Ar  180   4.651   1.771  -6.496
    1   AR   Ar  181   0.144   5.144   1.712
    1   AR   Ar  182   0.552   6.141   2.088
    1   AR   Ar  183   4.976   5.727   1.637
    1   AR   Ar  184   4.427   6.856   0.195
    1   AR   Ar  185   2.952   4.738   4.844
    1   AR   Ar  186   2.567   5.512   3.204
    1   AR   Ar  187   3.611   6.597   3.606
    1   AR   Ar  188   2.432   6.883   2.197
    1   AR   Ar  189   5.265   3.695   6.564
    1   AR   Ar  190   2.534   6.730   3.348
    1   AR   Ar  191   3.711   6.568   6.915
    1   AR   Ar  192   4.701   4.902   6.228
    1   AR   Ar  193   2.553   6.362   1.296
    1   AR   Ar  194   5.446   4.823  -0.829
    1   AR   Ar  195   5.631   1.502   0.912
    1   AR   Ar  196   3.814   0.528  -0.372
    1   AR   Ar  197   4.361   2.297   0.788
    1   AR   Ar  198   5.563   0.221   1.760
    1   AR   Ar  199   1.460   0.553   3.528
    1   AR   Ar  200   5.156   3.103   0.365
    1   AR   Ar  201   6.704   6.433   2.350
    1   AR   Ar  202   5.407   0.854   5.007
    1   AR   Ar  203   0.551   6.394   3.232
    1   AR   Ar  204   4.835   6.108   6.347
    1   AR   Ar  205   6.104   1.983   1.834
    1   AR   Ar  206   5.847   0.642   5.942
    1   AR   Ar  207   0.386   2.777   4.784
    1   AR   Ar  208   1.030   5.917   4.553
    1   AR   Ar  209   7.005   2.200  -2.284
    1   AR   Ar  210   1.442   0.055   0.521
    1   AR   Ar  211   0.313   3.122   0.873
    1   AR   Ar  212   6.036   3.926  -0.163
    1   AR   Ar  213   3.865   1.930   1.802
    1   AR   Ar  214   4.902   4.179   2.133
    1   AR   Ar  215   6.846   2.854   2.292
    1   AR   Ar  216   1.218   2.565   1.219
    1   AR   Ar  217   4.902   1.553   3.224
    1   AR   Ar  218   4.656   2.976   4.476
    1   AR   Ar  219   4.870   3.194   3.161
    1   AR   Ar  220   4.487   3.469   1.193
    1   AR   Ar  221   6.734   5.918   4.178
    1   AR   Ar  222   5.005   7.057   5.634
    1   AR   Ar  223   6.781   1.750   6.340
    1   AR   Ar  224   4.883   2.209   5.345
    1   AR   Ar  225   6.322   3.036   3.333
    1   AR   Ar  226   1.551   3.400   3.074
    1   AR   Ar  227   0.730   3.152   2.238
    1   AR   Ar  228   6.389   0.921   1.484
    1   AR   Ar  229   6.512   4.405  -1.012
    1   AR   Ar  230   3.644   4.239   4.155
    1   AR   Ar  231   4.748   2.255   2.137
    1   AR   Ar  232   5.421   2.953   1.839
    1   AR   Ar  233   6.830   2.487   3.945
    1   AR   Ar  234   5.695   2.439   4.036
    1   AR   Ar  235   7.011   0.276   3.426
    1   AR   Ar  236   4.942   5.469   5.024
    1   AR   Ar  237   4.835   2.279   6.677
    1   AR   Ar  238   5.764   5.658   6.565
    1   AR   Ar  239   0.556   4.251  10.399
    1   AR   Ar  240   1.137   2.043   6.671
    1   AR   Ar  241   2.105   6.295  -1.103
    1   AR   Ar  242   5.752   6.375   1.526
    1   AR   Ar  243   5.051   5.974   2.879
    1   AR   Ar  244   0.397   5.389   0.154
    1   AR   Ar  245   4.008   0.173   2.894
    1   AR   Ar  246   5.453   6.668  -0.649
    1   AR   Ar  247   6.487   3.752   1.653
    1   AR   Ar  248   5.013   5.810   0.308
    1   AR   Ar  249   4.638   7.051   1.469
    1   AR   Ar  250   4.999   6.058   3.987
    1   AR   Ar  251   4.565   4.596   4.775
    1   AR   Ar  252   2.889   4.725   2.133
    1   AR   Ar  253   6.078   2.866   6.843
    1   AR   Ar  254   4.893   1.680   9.997
    1   AR   Ar  255   3.909   5.579   9.656
    1   AR   Ar  256   5.777   5.350   3.604
    7.12000  7.12000 12.00000
Argon-slab step 4580
  256
    1   AR   Ar    1   4.679   3.408  -2.839
    1   AR   Ar    2   5.391   6.967   0.706
    1   AR   Ar    3   3.889   3.228  -1.043
    1   AR   Ar    4   1.986   1.421   0.708
    1   AR   Ar    5   6.047   5.691  -0.243
    1   AR   Ar    6   1.712   1.840   1.764
    1   AR   Ar    7   6.153   4.194   3.466
    1   AR   Ar    8   5.798   2.526  -0.891
    1   AR   Ar    9   0.580   7.007   4.171
    1   AR   Ar   10   6.333   6.867   4.767
    1   AR   Ar   11   1.535   0.207   4.568
    1   AR   Ar   12   6.911   1.491   3.709
    1   AR   Ar   13   6.725   0.637   4.610
    1   AR   Ar   14   4.099   1.415   6.196
    1   AR   Ar   15   3.478   7.049   9.103
    1   AR   Ar   16   0.184   0.364   5.847
    1   AR   Ar   17   6.166   3.031   0.668
    1   AR   Ar   18   6.145   5.475  -1.596
    1   AR   Ar   19   5.056   4.481   0.254
    1   AR   Ar   20   6.819   4.271  -2.697
    1   AR   Ar   21   2.926   2.054   2.636
    1   AR   Ar   22   5.444   1.206   2.183
    1   AR   Ar   23   7.080   6.436   1.196
    1   AR   Ar   24   5.731   2.360   2.712
    1   AR   Ar   25   0.711   2.255   3.952
    1   AR   Ar   26   5.308   6.991   4.562
    1   AR   Ar   27   1.842   0.958   2.362
    1   AR   Ar   28   1.913   2.476   4.233
    1   AR   Ar   29   4.979   1.185   7.259
    1   AR   Ar   30   0.794   1.274   3.155
    1   AR   Ar   31   4.216   0.273   7.500
    1   AR   Ar   32   0.873   2.531   5.683
    1   AR   Ar   33   0.909   4.173  -0.093
    1   AR   Ar   34   0.843   4.755   2.490
    1   AR   Ar   35   5.553   5.084   2.553
    1   AR   Ar   36   6.017   2.869  -2.677
    1   AR   Ar   37   4.195   3.129   2.183
    1   AR   Ar   38   7.004   4.280   4.002
    1   AR   Ar   39   0.318   2.994   3.233
    1   AR   Ar   40   1.840   4.723   1.647
    1   AR   Ar   41   0.436   2.080   2.552
    1   AR   Ar   42   5.681   5.995   5.542
    1   AR   Ar   43   6.877   2.703   6.132
    1   AR   Ar   44   0.882   4.000   3.654
    1   AR   Ar   45   0.157   3.565   5.702
    1   AR   Ar   46   0.721   4.607   6.536
    1   AR   Ar   47   3.966   5.474   7.544
    1   AR   Ar   48   6.013   3.617   7.604
    1   AR   Ar   49   6.732   7.119  -0.707
    1   AR   Ar   50   3.289   5.169   0.325
    1   AR   Ar   51   5.949   3.536   2.414
    1   AR   Ar   52   4.860   2.777  -1.553
    1   AR   Ar   53   5.027   0.070   2.591
    1   AR   Ar   54   0.325   0.491   2.124
    1   AR   Ar   55   7.036   4.307   2.733
    1   AR   Ar   56   6.365   1.332   2.861
    1   AR   Ar   57   3.944   4.064   2.619
    1   AR   Ar   58   0.685   3.889   4.672
    1   AR   Ar   59   2.470   5.911   5.842
    1   AR   Ar   60   7.049   5.271   3.430
    1   AR   Ar   61   7.028   3.699   7.176
    1   AR   Ar   62   6.955   4.611   5.242
    1   AR   Ar   63   2.363   2.540   7.204
    1   AR   Ar   64   0.270   5.494   5.155
    1   AR   Ar   65   3.709   0.270   1.921
    1   AR   Ar   66   1.133   0.984   1.058
    1   AR   Ar   67   4.982   0.551  -0.489
    1   AR   Ar   68   0.917   0.966  -0.448
    1   AR   Ar   69   3.304   1.634   0.232
    1   AR   Ar   70   0.647   1.448   1.815
    1   AR   Ar   71   2.611   0.626   2.866
    1   AR   Ar   72   4.412   0.919   1.568
    1   AR   Ar   73   3.039   0.683   3.752
    1   AR   Ar   74   0.676   1.145   4.733
    1   AR   Ar   75   3.331   0.367   5.150
    1   AR   Ar   76   2.219   0.643   1.488
    1   AR   Ar   77   2.105   0.097   5.675
    1   AR   Ar   78   6.720   5.342   6.365
    1   AR   Ar   79   3.156   6.739   5.888
    1   AR   Ar   80   3.636   5.442   5.061
    1   AR   Ar   81   1.133   6.903   1.552
    1   AR   Ar   82   6.439   4.561   0.666
    1   AR   Ar   83   0.746   2.996  -0.238
    1   AR   Ar   84   1.582   4.064   0.888
    1   AR   Ar   85   2.840   3.846  -0.153
    1   AR   Ar   86   2.053   5.508   0.981
    1   AR   Ar   87   3.050   3.380   2.401
    1   AR   Ar   88   3.179   5.640   1.621
    1   AR   Ar   89   6.498   1.904   0.928
    1   AR   Ar   90   3.501   1.655   5.255
    1   AR   Ar   91   1.799   2.112   3.156
    1   AR   Ar   92   1.715   3.563   1.917
    1   AR   Ar   93   1.801   1.272   6.226
    1   AR   Ar   94   1.272   6.493   9.158
    1   AR   Ar   95   4.465   1.240   5.157
    1   AR   Ar   96   2.728   7.059   4.463
    1   AR   Ar   97   3.748   2.288  -0.744
    1   AR   Ar   98   1.670   4.404   4.128
    1   AR   Ar   99   5.784   1.129  -0.572
    1   AR   Ar  100   0.116   3.257  -2.830
    1   AR   Ar  101   4.166   6.319   2.101
    1   AR   Ar  102   3.817   1.309   3.051
    1   AR   Ar  103   2.578   4.501   0.700
    1   AR   Ar  104   3.575   5.707  -1.194
    1   AR   Ar  105   2.577   1.570   3.667
    1   AR   Ar  106   3.627   2.702   5.751
    1   AR   Ar  107   1.473   4.961   5.246
    1   AR   Ar  108   2.246   0.981   4.594
    1   AR   Ar  109   1.739   3.652   5.042
    1   AR   Ar  110   2.808   2.077   4.568
    1   AR   Ar  111   4.409   6.285   7.756
    1   AR   Ar  112   0.035   6.357   5.758
    1   AR   Ar  113   3.170   4.643  -0.676
    1   AR   Ar  114   2.653   0.344  -1.372
    1   AR   Ar  115   1.752   4.731  -0.258
    1   AR   Ar  116   4.650   0.843   0.505
    1   AR   Ar  117   0.768   4.976   4.357
    1   AR   Ar  118   1.509   5.175   3.473
    1   AR   Ar  119   2.018   4.349   2.915
    1   AR   Ar  120   1.457   6.941   2.802
    1   AR   Ar  121   5.533   4.428   5.471
    1   AR   Ar  122   3.261   5.627   4.051
    1   AR   Ar  123   2.737   3.395   5.343
    1   AR   Ar  124   1.048   5.310   1.126
    1   AR   Ar  125   6.202   3.559   4.559
    1   AR   Ar  126   6.732   0.795   6.721
    1   AR   Ar  127   4.411   3.114   6.164
    1   AR   Ar  128   3.042   3.764   7.662
    1   AR   Ar  129   2.250   5.836   4.855
    1   AR   Ar  130   4.278   1.129  -4.532
    1   AR   Ar  131   4.339   5.164  -2.225
    1   AR   Ar  132   0.431   1.682   0.523
    1   AR   Ar  133   4.376   0.675   4.319
    1   AR   Ar  134   3.605   1.445   4.252
    1   AR   Ar  135   5.773   1.518   3.638
    1   AR   Ar  136   6.118   0.251   2.757
    1   AR   Ar  137   3.299   4.684   5.912
    1   AR   Ar  138   5.741   1.678   5.548
    1   AR   Ar  139   5.965   2.780   5.438
    1   AR   Ar  140   4.375   6.420   5.138
    1   AR   Ar  141   4.313   5.378   4.006
    1   AR   Ar  142   5.000   0.227   6.746
    1   AR   Ar  143   6.325   6.627   6.556
    1   AR   Ar  144   6.101   1.484   4.574
    1   AR   Ar  145   4.115   4.902  -0.446
    1   AR   Ar  146   3.804   2.554   2.972
    1   AR   Ar  147   5.262   3.478  -0.813
    1   AR   Ar  148   3.713   6.769  -1.399
    1   AR   Ar  149   2.436   0.335  -0.339
    1   AR   Ar  150   2.218   2.803   2.384
    1   AR   Ar  151   2.667   2.651   3.450
    1   AR   Ar  152   0.907   2.697  -2.176
    1   AR   Ar  153   5.276   0.419   3.675
    1   AR   Ar  154   4.881   1.837   4.380
    1   AR   Ar  155   6.347   3.628   6.162
    1   AR   Ar  156   2.878   4.485   3.490
    1   AR   Ar  157   1.795   5.157   6.768
    1   AR   Ar  158   0.604   1.478   5.712
    1   AR   Ar  159   3.799   0.366   6.130
    1   AR   Ar  160   1.588   1.976   4.983
    1   AR   Ar  161   4.766   4.544   3.629
    1   AR   Ar  162   4.216   5.985  -0.429
    1   AR   Ar  163   5.398   4.798   1.348
    1   AR   Ar  164   1.920   5.972   2.139
    1   AR   Ar  165   3.571   4.136   1.557
    1   AR   Ar  166   2.611   3.355   4.119
    1   AR   Ar  167   5.828   6.573   3.449
    1   AR   Ar  168   5.271   3.718  -1.856
    1   AR   Ar  169   3.542   3.349   3.601
    1   AR   Ar  170   1.925   3.107   6.068
    1   AR   Ar  171   5.543   4.767   4.503
    1   AR   Ar  172   3.852   3.891   5.252
    1   AR   Ar  173   2.560   2.107   5.652
    1   AR   Ar  174   3.222   6.363   4.988
    1   AR   Ar  175   2.905   0.945   6.071
    1   AR   Ar  176   3.783   2.578   4.336
    1   AR   Ar  177   0.969   4.804  -1.306
    1   AR   Ar  178   2.584   6.350   0.167
    1   AR   Ar  179   3.589   6.926   0.784
    1   AR   Ar  180   4.642   1.771  -6.529
    1   AR   Ar  181   0.161   5.140   1.721
    1   AR   Ar  182   0.562   6.140   2.090
    1   AR   Ar  183   4.953   5.719   1.650
    1   AR   Ar  184   4.435   6.852   0.173
    1   AR   Ar  185   2.925   4.720   4.826
    1   AR   Ar  186   2.597   5.526   3.182
    1   AR   Ar  187   3.595   6.595   3.588
    1   AR   Ar  188   2.415   6.906   2.194
    1   AR   Ar  189   5.219   3.687   6.546
    1   AR   Ar  190   2.531   6.713   3.349
    1   AR   Ar  191   3.704   6.614   6.909
    1   AR   Ar  192   4.710   4.897   6.207
    1   AR   Ar  193   2.567   6.365   1.300
    1   AR   Ar  194   5.462   4.847  -0.841
    1   AR   Ar  195   5.627   1.504   0.935
    1   AR   Ar  196   3.801   0.536  -0.348
    1   AR   Ar  197   4.373   2.288   0.804
    1   AR   Ar  198   5.571   0.218   1.773
    1   AR   Ar  199   1.449   0.562   3.502
    1   AR   Ar  200   5.175   3.117   0.356
    1   AR   Ar  201   6.683   6.434   2.362
    1   AR   Ar  202   5.406   0.869   4.968
    1   AR   Ar  203   0.578   6.428   3.229
    1   AR   Ar  204   4.843   6.106   6.379
    1   AR   Ar  205   6.082   2.024   1.851
    1   AR   Ar  206   5.827   0.637   5.947
    1   AR   Ar  207   0.381   2.799   4.787
    1   AR   Ar  208   1.037   5.866   4.608
    1   AR   Ar  209   7.003   2.201  -2.271
    1   AR   Ar  210   1.431   0.035   0.510
    1   AR   Ar  211   0.325   3.118   0.858
    1   AR   Ar  212   6.056   3.889  -0.156
    1   AR   Ar  213   3.870   1.941   1.793
    1   AR   Ar  214   4.922   4.184   2.125
    1   AR   Ar  215   6.836   2.810   2.270
    1   AR   Ar  216   1.204   2.537   1.219
    1   AR   Ar  217   4.921   1.557   3.240
    1   AR   Ar  218   4.666   2.970   4.483
    1   AR   Ar  219   4.887   3.197   3.160
    1   AR   Ar  220   4.478   3.469   1.203
    1   AR   Ar  221   6.740   5.941   4.176
    1   AR   Ar  222   4.982   7.071   5.594
    1   AR   Ar  223   6.780   1.735   6.330
    1   AR   Ar  224   4.885   2.223   5.367
    1   AR   Ar  225   6.296   3.037   3.308
    1   AR   Ar  226   1.571   3.379   3.066
    1   AR   Ar  227   0.724   3.160   2.239
    1   AR   Ar  228   6.371   0.952   1.514
    1   AR   Ar  229   6.532   4.412  -1.028
    1   AR   Ar  230   3.665   4.243   4.134
    1   AR   Ar  231   4.761   2.238   2.153
    1   AR   Ar  232   5.453   2.955   1.808
    1   AR   Ar  233   6.798   2.496   3.967
    1   AR   Ar  234   5.677   2.426   4.019
    1   AR   Ar  235   7.035   0.281   3.402
    1   AR   Ar  236   4.974   5.483   5.070
    1   AR   Ar  237   4.843   2.286   6.645
    1   AR   Ar  238   5.775   5.689   6.590
    1   AR   Ar  239   0.559   4.250  10.401
    1   AR   Ar  240   1.131   2.055   6.672
    1   AR   Ar  241   2.081   6.274  -1.081
    1   AR   Ar  242   5.760   6.409   1.515
    1   AR   Ar  243   5.082   6.004   2.891
    1   AR   Ar  244   0.414   5.355   0.154
    1   AR   Ar  245   4.040   0.137   2.898
    1   AR   Ar  246   5.443   6.672  -0.620
    1   AR   Ar  247   6.487   3.714   1.671
    1   AR   Ar  248   5.004   5.784   0.325
    1   AR   Ar  249   4.621   7.057   1.455
    1   AR   Ar  250   5.008   6.101   4.019
    1   AR   Ar  251   4.539   4.590   4.754
    1   AR   Ar  252   2.870   4.753   2.153
    1   AR   Ar  253   6.095   2.872   6.843
    1   AR   Ar  254   4.908   1.714   9.982
    1   AR   Ar  255   3.944   5.561   9.634
    1   AR   Ar  256   5.792   5.375   3.590
    7.12000  7.12000 12.00000
Argon-slab step 4585
  256
    1   AR   Ar    1   4.669   3.393  -2.837
    1   AR   Ar    2   5.405   6.961   0.727
    1   AR   Ar    3   3.942   3.236  -1.022
    1   AR   Ar    4   2.040   1.427   0.720
    1   AR   Ar    5   6.051   5.675  -0.245
    1   AR   Ar    6   1.726   1.842   1.797
    1   AR   Ar    7   6.180   4.198   3.477
    1   AR   Ar    8   5.828   2.528  -0.922
    1   AR   Ar    9   0.569   6.969   4.181
    1   AR   Ar   10   6.346   6.880   4.785
    1   AR   Ar   11   1.503   0.217   4.604
    1   AR   Ar   12   6.937   1.499   3.702
    1   AR   Ar   13   6.712   0.652   4.600
    1   AR   Ar   14   4.110   1.402   6.191
    1   AR   Ar   15   3.464   7.039   9.099
    1   AR   Ar   16   0.198   0.360   5.867
    1   AR   Ar   17   6.180   3.045   0.665
    1   AR   Ar   18   6.184   5.461  -1.583
    1   AR   Ar   19   5.055   4.473   0.264
    1   AR   Ar   20   6.818   4.260  -2.722
    1   AR   Ar   21   2.926   2.050   2.658
    1   AR   Ar   22   5.436   1.217   2.170
    1   AR   Ar   23   7.110   6.433   1.181
    1   AR   Ar   24   5.706   2.355   2.759
    1   AR   Ar   25   0.681   2.249   3.935
    1   AR   Ar   26   5.319   6.990   4.543
    1   AR   Ar   27   1.863   0.953   2.357
    1   AR   Ar   28   1.908   2.480   4.235
    1   AR   Ar   29   4.998   1.201   7.271
    1   AR   Ar   30   0.771   1.277   3.124
    1   AR   Ar   31   4.215   0.263   7.505
    1   AR   Ar   32   0.891   2.529   5.676
    1   AR   Ar   33   0.910   4.176  -0.107
    1   AR   Ar   34   0.832   4.766   2.507
    1   AR   Ar   35   5.581   5.061   2.529
    1   AR   Ar   36   5.986   2.896  -2.672
    1   AR   Ar   37   4.187   3.099   2.191
    1   AR   Ar   38   7.011   4.277   4.014
    1   AR   Ar   39   0.299   2.987   3.241
    1   AR   Ar   40   1.850   4.710   1.631
    1   AR   Ar   41   0.458   2.044   2.590
    1   AR   Ar   42   5.668   6.010   5.554
    1   AR   Ar   43   6.867   2.704   6.145
    1   AR   Ar   44   0.924   3.981   3.657
    1   AR   Ar   45   0.145   3.582   5.710
    1   AR   Ar   46   0.709   4.613   6.524
    1   AR   Ar   47   3.976   5.450   7.569
    1   AR   Ar   48   6.029   3.615   7.611
    1   AR   Ar   49   6.737   7.111  -0.705
    1   AR   Ar   50   3.309   5.188   0.349
    1   AR   Ar   51   5.921   3.544   2.443
    1   AR   Ar   52   4.893   2.777  -1.550
    1   AR   Ar   53   4.994   0.060   2.583
    1   AR   Ar   54   0.332   0.491   2.128
    1   AR   Ar   55   7.058   4.301   2.749
    1   AR   Ar   56   6.364   1.348   2.865
    1   AR   Ar   57   3.929   4.067   2.599
    1   AR   Ar   58   0.725   3.924   4.640
    1   AR   Ar   59   2.505   5.926   5.838
    1   AR   Ar   60   7.051   5.273   3.432
    1   AR   Ar   61   7.055   3.687   7.166
    1   AR   Ar   62   6.960   4.624   5.259
    1   AR   Ar   63   2.376   2.524   7.209
    1   AR   Ar   64   0.271   5.493   5.171
    1   AR   Ar   65   3.710   0.268   1.920
    1   AR   Ar   66   1.150   1.016   1.081
    1   AR   Ar   67   4.952   0.536  -0.468
    1   AR   Ar   68   0.949   0.946  -0.407
    1   AR   Ar   69   3.269   1.628   0.234
    1   AR   Ar   70   0.616   1.477   1.824
    1   AR   Ar   71   2.630   0.666   2.870
    1   AR   Ar   72   4.438   0.926   1.577
    1   AR   Ar   73   3.038   0.683   3.741
    1   AR   Ar   74   0.653   1.127   4.715
    1   AR   Ar   75   3.337   0.362   5.158
    1   AR   Ar   76   2.222   0.605   1.473
    1   AR   Ar   77   2.135   0.088   5.670
    1   AR   Ar   78   6.699   5.327   6.361
    1   AR   Ar   79   3.130   6.756   5.893
    1   AR   Ar   80   3.617   5.417   5.038
    1   AR   Ar   81   1.148   6.885   1.526
    1   AR   Ar   82   6.403   4.531   0.670
    1   AR   Ar   83   0.726   2.982  -0.230
    1   AR   Ar   84   1.570   4.075   0.888
    1   AR   Ar   85   2.844   3.849  -0.140
    1   AR   Ar   86   2.052   5.498   0.999
    1   AR   Ar   87   3.047   3.349   2.414
    1   AR   Ar   88   3.179   5.648   1.633
    1   AR   Ar   89   6.508   1.921   0.905
    1   AR   Ar   90   3.500   1.660   5.258
    1   AR   Ar   91   1.788   2.112   3.160
    1   AR   Ar   92   1.718   3.541   1.922
    1   AR   Ar   93   1.801   1.234   6.206
    1   AR   Ar   94   1.284   6.492   9.202
    1   AR   Ar   95   4.455   1.241   5.150
    1   AR   Ar   96   2.732   7.085   4.452
    1   AR   Ar   97   3.768   2.315  -0.748
    1   AR   Ar   98   1.676   4.396   4.124
    1   AR   Ar   99   5.759   1.105  -0.583
    1   AR   Ar  100   0.129   3.236  -2.832
    1   AR   Ar  101   4.152   6.304   2.124
    1   AR   Ar  102   3.832   1.316   3.045
    1   AR   Ar  103   2.572   4.487   0.713
    1   AR   Ar  104   3.591   5.701  -1.204
    1   AR   Ar  105   2.596   1.598   3.657
    1   AR   Ar  106   3.641   2.708   5.730
    1   AR   Ar  107   1.452   4.985   5.273
    1   AR   Ar  108   2.261   0.988   4.596
    1   AR   Ar  109   1.729   3.696   5.020
    1   AR   Ar  110   2.819   2.072   4.593
    1   AR   Ar  111   4.399   6.250   7.772
    1   AR   Ar  112   0.048   6.390   5.814
    1   AR   Ar  113   3.160   4.677  -0.692
    1   AR   Ar  114   2.662   0.327  -1.356
    1   AR   Ar  115   1.755   4.729  -0.265
    1   AR   Ar  116   4.663   0.847   0.501
    1   AR   Ar  117   0.788   4.936   4.370
    1   AR   Ar  118   1.518   5.135   3.480
    1   AR   Ar  119   2.009   4.368   2.945
    1   AR   Ar  120   1.469   6.944   2.822
    1   AR   Ar  121   5.540   4.443   5.484
    1   AR   Ar  122   3.253   5.649   4.050
    1   AR   Ar  123   2.729   3.414   5.372
    1   AR   Ar  124   1.037   5.298   1.096
    1   AR   Ar  125   6.189   3.566   4.579
    1   AR   Ar  126   6.730   0.827   6.706
    1   AR   Ar  127   4.404   3.146   6.158
    1   AR   Ar  128   3.042   3.776   7.672
    1   AR   Ar  129   2.276   5.830   4.840
    1   AR   Ar  130   4.272   1.104  -4.512
    1   AR   Ar  131   4.346   5.151  -2.218
    1   AR   Ar  132   0.415   1.670   0.525
    1   AR   Ar  133   4.424   0.641   4.305
    1   AR   Ar  134   3.630   1.437   4.254
    1   AR   Ar  135   5.759   1.537   3.633
    1   AR   Ar  136   6.075   0.257   2.751
    1   AR   Ar  137   3.318   4.673   5.901
    1   AR   Ar  138   5.759   1.685   5.554
    1   AR   Ar  139   5.967   2.807   5.429
    1   AR   Ar  140   4.395   6.425   5.168
    1   AR   Ar  141   4.290   5.370   4.013
    1   AR   Ar  142   5.041   0.209   6.730
    1   AR   Ar  143   6.345   6.624   6.563
    1   AR   Ar  144   6.092   1.477   4.586
    1   AR   Ar  145   4.122   4.905  -0.460
    1   AR   Ar  146   3.767   2.516   2.953
    1   AR   Ar  147   5.286   3.467  -0.826
    1   AR   Ar  148   3.699   6.782  -1.403
    1   AR   Ar  149   2.422   0.347  -0.324
    1   AR   Ar  150   2.230   2.766   2.363
    1   AR   Ar  151   2.659   2.645   3.428
    1   AR   Ar  152   0.914   2.700  -2.201
    1   AR   Ar  153   5.290   0.420   3.683
    1   AR   Ar  154   4.869   1.857   4.387
    1   AR   Ar  155   6.355   3.646   6.147
    1   AR   Ar  156   2.887   4.477   3.529
    1   AR   Ar  157   1.809   5.177   6.775
    1   AR   Ar  158   0.604   1.488   5.726
    1   AR   Ar  159   3.835   0.373   6.150
    1   AR   Ar  160   1.581   1.957   4.989
    1   AR   Ar  161   4.732   4.539   3.624
    1   AR   Ar  162   4.220   5.971  -0.442
    1   AR   Ar  163   5.398   4.797   1.388
    1   AR   Ar  164   1.912   5.970   2.158
    1   AR   Ar  165   3.586   4.132   1.597
    1   AR   Ar  166   2.621   3.362   4.108
    1   AR   Ar  167   5.834   6.595   3.461
    1   AR   Ar  168   5.286   3.727  -1.854
    1   AR   Ar  169   3.545   3.373   3.594
    1   AR   Ar  170   1.879   3.140   6.088
    1   AR   Ar  171   5.589   4.773   4.526
    1   AR   Ar  172   3.874   3.882   5.242
    1   AR   Ar  173   2.551   2.095   5.666
    1   AR   Ar  174   3.233   6.360   4.972
    1   AR   Ar  175   2.912   0.941   6.057
    1   AR   Ar  176   3.760   2.560   4.362
    1   AR   Ar  177   0.955   4.789  -1.304
    1   AR   Ar  178   2.589   6.377   0.167
    1   AR   Ar  179   3.625   6.932   0.823
    1   AR   Ar  180   4.633   1.770  -6.563
    1   AR   Ar  181   0.176   5.136   1.731
    1   AR   Ar  182   0.576   6.137   2.093
    1   AR   Ar  183   4.928   5.712   1.665
    1   AR   Ar  184   4.447   6.850   0.150
    1   AR   Ar  185   2.894   4.699   4.807
    1   AR   Ar  186   2.632   5.525   3.187
    1   AR   Ar  187   3.579   6.581   3.574
    1   AR   Ar  188   2.399   6.933   2.192
    1   AR   Ar  189   5.176   3.679   6.527
    1   AR   Ar  190   2.526   6.697   3.349
    1   AR   Ar  191   3.697   6.660   6.902
    1   AR   Ar  192   4.719   4.893   6.184
    1   AR   Ar  193   2.578   6.367   1.305
    1   AR   Ar  194   5.478   4.870  -0.853
    1   AR   Ar  195   5.603   1.498   0.959
    1   AR   Ar  196   3.788   0.543  -0.323
    1   AR   Ar  197   4.386   2.279   0.822
    1   AR   Ar  198   5.585   0.229   1.781
    1   AR   Ar  199   1.442   0.573   3.482
    1   AR   Ar  200   5.189   3.132   0.345
    1   AR   Ar  201   6.661   6.436   2.374
    1   AR   Ar  202   5.403   0.876   4.927
    1   AR   Ar  203   0.604   6.461   3.225
    1   AR   Ar  204   4.847   6.106   6.408
    1   AR   Ar  205   6.063   2.062   1.865
    1   AR   Ar  206   5.807   0.630   5.953
    1   AR   Ar  207   0.373   2.824   4.790
    1   AR   Ar  208   1.033   5.884   4.612
    1   AR   Ar  209   6.999   2.204  -2.258
    1   AR   Ar  210   1.436   0.059   0.496
    1   AR   Ar  211   0.335   3.115   0.842
    1   AR   Ar  212   6.074   3.853  -0.148
    1   AR   Ar  213   3.868   1.949   1.783
    1   AR   Ar  214   4.943   4.187   2.118
    1   AR   Ar  215   6.820   2.768   2.249
    1   AR   Ar  216   1.186   2.512   1.217
    1   AR   Ar  217   4.916   1.563   3.245
    1   AR   Ar  218   4.690   2.970   4.493
    1   AR   Ar  219   4.908   3.201   3.160
    1   AR   Ar  220   4.476   3.471   1.202
    1   AR   Ar  221   6.746   5.967   4.177
    1   AR   Ar  222   4.971   7.083   5.582
    1   AR   Ar  223   6.779   1.716   6.318
    1   AR   Ar  224   4.883   2.242   5.391
    1   AR   Ar  225   6.278   3.068   3.277
    1   AR   Ar  226   1.591   3.354   3.059
    1   AR   Ar  227   0.721   3.168   2.242
    1   AR   Ar  228   6.354   0.983   1.547
    1   AR   Ar  229   6.552   4.420  -1.044
    1   AR   Ar  230   3.690   4.249   4.118
    1   AR   Ar  231   4.782   2.218   2.174
    1   AR   Ar  232   5.470   2.952   1.795
    1   AR   Ar  233   6.768   2.502   3.998
    1   AR   Ar  234   5.659   2.425   4.006
    1   AR   Ar  235   7.059   0.285   3.386
    1   AR   Ar  236   4.998   5.496   5.111
    1   AR   Ar  237   4.841   2.286   6.628
    1   AR   Ar  238   5.784   5.718   6.617
    1   AR   Ar  239   0.563   4.249  10.402
    1   AR   Ar  240   1.139   2.054   6.674
    1   AR   Ar  241   2.057   6.254  -1.059
    1   AR   Ar  242   5.774   6.431   1.504
    1   AR   Ar  243   5.111   6.035   2.902
    1   AR   Ar  244   0.432   5.319   0.154
    1   AR   Ar  245   4.063   0.118   2.910
    1   AR   Ar  246   5.427   6.661  -0.621
    1   AR   Ar  247   6.478   3.718   1.647
    1   AR   Ar  248   4.996   5.759   0.342
    1   AR   Ar  249   4.602   7.054   1.437
    1   AR   Ar  250   5.022   6.149   4.052
    1   AR   Ar  251   4.508   4.580   4.733
    1   AR   Ar  252   2.850   4.779   2.176
    1   AR   Ar  253   6.109   2.875   6.843
    1   AR   Ar  254   4.923   1.749   9.966
    1   AR   Ar  255   3.979   5.543   9.611
    1   AR   Ar  256   5.808   5.402   3.577
    7.12000  7.12000 12.00000
Argon-slab step 4590
  256
    1   AR   Ar    1   4.661   3.377  -2.833
    1   AR   Ar    2   5.416   6.960   0.739
    1   AR   Ar    3   3.999   3.258  -1.005
    1   AR   Ar    4   2.098   1.435   0.732
    1   AR   Ar    5   6.053   5.658  -0.247
    1   AR   Ar    6   1.742   1.842   1.832
    1   AR   Ar    7   6.198   4.201   3.482
    1   AR   Ar    8   5.858   2.529  -0.953
    1   AR   Ar    9   0.557   6.931   4.193
    1   AR   Ar   10   6.355   6.828   4.789
    1   AR   Ar   11   1.473   0.227   4.641
    1   AR   Ar   12   6.966   1.503   3.699
    1   AR   Ar   13   6.684   0.682   4.579
    1   AR   Ar   14   4.122   1.392   6.186
    1   AR   Ar   15   3.451   7.029   9.094
    1   AR   Ar   16   0.211   0.358   5.887
    1   AR   Ar   17   6.199   3.060   0.666
    1   AR   Ar   18   6.222   5.446  -1.568
    1   AR   Ar   19   5.055   4.464   0.274
    1   AR   Ar   20   6.810   4.255  -2.741
    1   AR   Ar   21   2.924   2.034   2.673
    1   AR   Ar   22   5.427   1.229   2.159
    1   AR   Ar   23   0.021   6.431   1.167
    1   AR   Ar   24   5.677   2.349   2.814
    1   AR   Ar   25   0.656   2.239   3.917
    1   AR   Ar   26   5.326   6.992   4.536
    1   AR   Ar   27   1.867   0.952   2.353
    1   AR   Ar   28   1.888   2.469   4.222
    1   AR   Ar   29   5.015   1.217   7.283
    1   AR   Ar   30   0.749   1.273   3.098
    1   AR   Ar   31   4.215   0.254   7.510
    1   AR   Ar   32   0.910   2.528   5.671
    1   AR   Ar   33   0.906   4.177  -0.119
    1   AR   Ar   34   0.828   4.778   2.524
    1   AR   Ar   35   5.608   5.038   2.504
    1   AR   Ar   36   5.956   2.923  -2.666
    1   AR   Ar   37   4.179   3.072   2.198
    1   AR   Ar   38   7.026   4.275   4.031
    1   AR   Ar   39   0.274   2.979   3.249
    1   AR   Ar   40   1.861   4.697   1.624
    1   AR   Ar   41   0.473   2.029   2.635
    1   AR   Ar   42   5.669   6.038   5.575
    1   AR   Ar   43   6.861   2.708   6.155
    1   AR   Ar   44   0.957   3.959   3.644
    1   AR   Ar   45   0.141   3.600   5.711
    1   AR   Ar   46   0.696   4.618   6.510
    1   AR   Ar   47   3.971   5.399   7.586
    1   AR   Ar   48   6.045   3.614   7.618
    1   AR   Ar   49   6.741   7.102  -0.703
    1   AR   Ar   50   3.330   5.209   0.372
    1   AR   Ar   51   5.888   3.560   2.487
    1   AR   Ar   52   4.924   2.774  -1.547
    1   AR   Ar   53   4.964   0.049   2.570
    1   AR   Ar   54   0.338   0.489   2.133
    1   AR   Ar   55   7.076   4.293   2.767
    1   AR   Ar   56   6.366   1.362   2.854
    1   AR   Ar   57   3.915   4.071   2.584
    1   AR   Ar   58   0.762   3.955   4.617
    1   AR   Ar   59   2.539   5.938   5.837
    1   AR   Ar   60   7.055   5.272   3.432
    1   AR   Ar   61   7.081   3.674   7.155
    1   AR   Ar   62   6.959   4.622   5.276
    1   AR   Ar   63   2.396   2.523   7.200
    1   AR   Ar   64   0.263   5.511   5.179
    1   AR   Ar   65   3.710   0.276   1.920
    1   AR   Ar   66   1.167   1.043   1.102
    1   AR   Ar   67   4.914   0.513  -0.447
    1   AR   Ar   68   0.951   0.948  -0.424
    1   AR   Ar   69   3.236   1.622   0.235
    1   AR   Ar   70   0.587   1.501   1.824
    1   AR   Ar   71   2.655   0.700   2.867
    1   AR   Ar   72   4.467   0.944   1.586
    1   AR   Ar   73   3.049   0.678   3.745
    1   AR   Ar   74   0.631   1.107   4.694
    1   AR   Ar   75   3.335   0.355   5.166
    1   AR   Ar   76   2.226   0.565   1.451
    1   AR   Ar   77   2.162   0.079   5.670
    1   AR   Ar   78   6.683   5.310   6.354
    1   AR   Ar   79   3.104   6.775   5.906
    1   AR   Ar   80   3.605   5.387   5.017
    1   AR   Ar   81   1.163   6.868   1.502
    1   AR   Ar   82   6.367   4.502   0.675
    1   AR   Ar   83   0.697   2.973  -0.229
    1   AR   Ar   84   1.559   4.100   0.860
    1   AR   Ar   85   2.813   3.842  -0.131
    1   AR   Ar   86   2.056   5.491   1.014
    1   AR   Ar   87   3.052   3.324   2.429
    1   AR   Ar   88   3.186   5.649   1.647
    1   AR   Ar   89   6.527   1.943   0.880
    1   AR   Ar   90   3.498   1.664   5.269
    1   AR   Ar   91   1.773   2.110   3.162
    1   AR   Ar   92   1.718   3.523   1.925
    1   AR   Ar   93   1.801   1.196   6.185
    1   AR   Ar   94   1.297   6.491   9.245
    1   AR   Ar   95   4.440   1.260   5.151
    1   AR   Ar   96   2.726   7.111   4.434
    1   AR   Ar   97   3.786   2.330  -0.746
    1   AR   Ar   98   1.698   4.383   4.132
    1   AR   Ar   99   5.743   1.086  -0.593
    1   AR   Ar  100   0.139   3.222  -2.831
    1   AR   Ar  101   4.136   6.292   2.148
    1   AR   Ar  102   3.846   1.323   3.041
    1   AR   Ar  103   2.565   4.474   0.728
    1   AR   Ar  104   3.604   5.692  -1.216
    1   AR   Ar  105   2.613   1.627   3.647
    1   AR   Ar  106   3.645   2.708   5.700
    1   AR   Ar  107   1.419   5.013   5.301
    1   AR   Ar  108   2.278   0.998   4.598
    1   AR   Ar  109   1.719   3.741   4.998
    1   AR   Ar  110   2.827   2.069   4.616
    1   AR   Ar  111   4.404   6.244   7.792
    1   AR   Ar  112   0.059   6.421   5.870
    1   AR   Ar  113   3.145   4.713  -0.710
    1   AR   Ar  114   2.672   0.308  -1.342
    1   AR   Ar  115   1.764   4.730  -0.272
    1   AR   Ar  116   4.676   0.806   0.517
    1   AR   Ar  117   0.805   4.891   4.378
    1   AR   Ar  118   1.523   5.104   3.481
    1   AR   Ar  119   2.000   4.386   2.972
    1   AR   Ar  120   1.471   6.921   2.833
    1   AR   Ar  121   5.547   4.457   5.503
    1   AR   Ar  122   3.243   5.670   4.051
    1   AR   Ar  123   2.722   3.431   5.399
    1   AR   Ar  124   1.023   5.285   1.066
    1   AR   Ar  125   6.177   3.572   4.598
    1   AR   Ar  126   6.726   0.845   6.697
    1   AR   Ar  127   4.402   3.180   6.153
    1   AR   Ar  128   3.047   3.767   7.674
    1   AR   Ar  129   2.301   5.823   4.820
    1   AR   Ar  130   4.265   1.078  -4.492
    1   AR   Ar  131   4.354   5.139  -2.210
    1   AR   Ar  132   0.401   1.659   0.528
    1   AR   Ar  133   4.470   0.606   4.287
    1   AR   Ar  134   3.656   1.428   4.251
    1   AR   Ar  135   5.766   1.542   3.635
    1   AR   Ar  136   6.034   0.264   2.745
    1   AR   Ar  137   3.336   4.662   5.888
    1   AR   Ar  138   5.779   1.692   5.565
    1   AR   Ar  139   5.984   2.824   5.455
    1   AR   Ar  140   4.415   6.430   5.183
    1   AR   Ar  141   4.264   5.365   4.024
    1   AR   Ar  142   5.082   0.190   6.712
    1   AR   Ar  143   6.366   6.624   6.569
    1   AR   Ar  144   6.093   1.474   4.575
    1   AR   Ar  145   4.136   4.909  -0.471
    1   AR   Ar  146   3.783   2.523   2.945
    1   AR   Ar  147   5.308   3.457  -0.834
    1   AR   Ar  148   3.684   6.796  -1.406
    1   AR   Ar  149   2.406   0.358  -0.305
    1   AR   Ar  150   2.234   2.722   2.342
    1   AR   Ar  151   2.653   2.640   3.403
    1   AR   Ar  152   0.920   2.703  -2.226
    1   AR   Ar  153   5.305   0.426   3.684
    1   AR   Ar  154   4.855   1.874   4.390
    1   AR   Ar  155   6.355   3.668   6.133
    1   AR   Ar  156   2.893   4.471   3.567
    1   AR   Ar  157   1.823   5.197   6.780
    1   AR   Ar  158   0.604   1.497   5.742
    1   AR   Ar  159   3.875   0.379   6.170
    1   AR   Ar  160   1.569   1.929   5.007
    1   AR   Ar  161   4.701   4.529   3.617
    1   AR   Ar  162   4.228   5.960  -0.451
    1   AR   Ar  163   5.402   4.796   1.426
    1   AR   Ar  164   1.904   5.968   2.175
    1   AR   Ar  165   3.600   4.127   1.634
    1   AR   Ar  166   2.627   3.378   4.107
    1   AR   Ar  167   5.842   6.617   3.475
    1   AR   Ar  168   5.302   3.739  -1.855
    1   AR   Ar  169   3.549   3.394   3.582
    1   AR   Ar  170   1.832   3.171   6.107
    1   AR   Ar  171   5.636   4.781   4.541
    1   AR   Ar  172   3.878   3.878   5.227
    1   AR   Ar  173   2.540   2.084   5.679
    1   AR   Ar  174   3.247   6.356   4.950
    1   AR   Ar  175   2.918   0.938   6.040
    1   AR   Ar  176   3.733   2.540   4.387
    1   AR   Ar  177   0.940   4.774  -1.300
    1   AR   Ar  178   2.594   6.405   0.167
    1   AR   Ar  179   3.659   6.939   0.864
    1   AR   Ar  180   4.624   1.770  -6.596
    1   AR   Ar  181   0.182   5.139   1.746
    1   AR   Ar  182   0.591   6.134   2.097
    1   AR   Ar  183   4.904   5.707   1.680
    1   AR   Ar  184   4.463   6.849   0.126
    1   AR   Ar  185   2.861   4.675   4.786
    1   AR   Ar  186   2.665   5.523   3.189
    1   AR   Ar  187   3.563   6.565   3.564
    1   AR   Ar  188   2.383   6.961   2.194
    1   AR   Ar  189   5.142   3.676   6.512
    1   AR   Ar  190   2.520   6.682   3.349
    1   AR   Ar  191   3.692   6.703   6.893
    1   AR   Ar  192   4.729   4.890   6.160
    1   AR   Ar  193   2.584   6.341   1.325
    1   AR   Ar  194   5.494   4.892  -0.863
    1   AR   Ar  195   5.568   1.488   0.984
    1   AR   Ar  196   3.770   0.565  -0.322
    1   AR   Ar  197   4.399   2.271   0.841
    1   AR   Ar  198   5.602   0.252   1.785
    1   AR   Ar  199   1.439   0.587   3.470
    1   AR   Ar  200   5.197   3.118   0.315
    1   AR   Ar  201   6.652   6.462   2.380
    1   AR   Ar  202   5.392   0.873   4.889
    1   AR   Ar  203   0.627   6.492   3.221
    1   AR   Ar  204   4.846   6.109   6.435
    1   AR   Ar  205   6.065   2.051   1.874
    1   AR   Ar  206   5.789   0.623   5.960
    1   AR   Ar  207   0.364   2.852   4.794
    1   AR   Ar  208   1.032   5.926   4.602
    1   AR   Ar  209   6.996   2.208  -2.247
    1   AR   Ar  210   1.443   0.083   0.482
    1   AR   Ar  211   0.328   3.091   0.836
    1   AR   Ar  212   6.090   3.816  -0.139
    1   AR   Ar  213   3.854   1.938   1.782
    1   AR   Ar  214   4.962   4.185   2.113
    1   AR   Ar  215   6.802   2.727   2.229
    1   AR   Ar  216   1.166   2.489   1.213
    1   AR   Ar  217   4.883   1.571   3.237
    1   AR   Ar  218   4.720   2.972   4.504
    1   AR   Ar  219   4.938   3.209   3.164
    1   AR   Ar  220   4.478   3.472   1.196
    1   AR   Ar  221   6.750   5.994   4.179
    1   AR   Ar  222   4.960   7.075   5.605
    1   AR   Ar  223   6.777   1.704   6.300
    1   AR   Ar  224   4.877   2.264   5.417
    1   AR   Ar  225   6.278   3.072   3.264
    1   AR   Ar  226   1.611   3.327   3.052
    1   AR   Ar  227   0.720   3.173   2.255
    1   AR   Ar  228   6.339   1.015   1.582
    1   AR   Ar  229   6.570   4.428  -1.059
    1   AR   Ar  230   3.719   4.258   4.107
    1   AR   Ar  231   4.807   2.195   2.197
    1   AR   Ar  232   5.468   2.944   1.816
    1   AR   Ar  233   6.736   2.508   4.034
    1   AR   Ar  234   5.642   2.442   3.997
    1   AR   Ar  235   7.083   0.279   3.407
    1   AR   Ar  236   5.006   5.497   5.144
    1   AR   Ar  237   4.832   2.282   6.622
    1   AR   Ar  238   5.790   5.745   6.646
    1   AR   Ar  239   0.566   4.247  10.404
    1   AR   Ar  240   1.169   2.033   6.678
    1   AR   Ar  241   2.035   6.235  -1.035
    1   AR   Ar  242   5.793   6.436   1.497
    1   AR   Ar  243   5.138   6.066   2.912
    1   AR   Ar  244   0.445   5.315   0.191
    1   AR   Ar  245   4.052   0.161   2.942
    1   AR   Ar  246   5.409   6.646  -0.629
    1   AR   Ar  247   6.476   3.723   1.611
    1   AR   Ar  248   4.989   5.735   0.359
    1   AR   Ar  249   4.585   7.043   1.417
    1   AR   Ar  250   5.036   6.192   4.083
    1   AR   Ar  251   4.478   4.572   4.713
    1   AR   Ar  252   2.828   4.803   2.201
    1   AR   Ar  253   6.120   2.875   6.844
    1   AR   Ar  254   4.937   1.783   9.951
    1   AR   Ar  255   4.013   5.526   9.588
    1   AR   Ar  256   5.824   5.428   3.564
    7.12000  7.12000 12.00000
Argon-slab step 4595
  256
    1   AR   Ar    1   4.682   3.384  -2.835
    1   AR   Ar    2   5.423   6.965   0.742
    1   AR   Ar    3   4.059   3.292  -0.990
    1   AR   Ar    4   2.157   1.443   0.744
    1   AR   Ar    5   6.054   5.641  -0.249
    1   AR   Ar    6   1.757   1.843   1.866
    1   AR   Ar    7   6.206   4.204   3.481
    1   AR   Ar    8   5.888   2.529  -0.983
    1   AR   Ar    9   0.544   6.894   4.208
    1   AR   Ar   10   6.363   6.772   4.795
    1   AR   Ar   11   1.443   0.238   4.678
    1   AR   Ar   12   6.996   1.506   3.700
    1   AR   Ar   13   6.666   0.660   4.577
    1   AR   Ar   14   4.135   1.387   6.182
    1   AR   Ar   15   3.438   7.019   9.090
    1   AR   Ar   16   0.224   0.359   5.905
    1   AR   Ar   17   6.220   3.074   0.669
    1   AR   Ar   18   6.260   5.430  -1.552
    1   AR   Ar   19   5.056   4.456   0.283
    1   AR   Ar   20   6.802   4.250  -2.759
    1   AR   Ar   21   2.921   2.012   2.684
    1   AR   Ar   22   5.415   1.243   2.151
    1   AR   Ar   23   0.052   6.428   1.155
    1   AR   Ar   24   5.646   2.341   2.870
    1   AR   Ar   25   0.635   2.226   3.899
    1   AR   Ar   26   5.322   7.013   4.557
    1   AR   Ar   27   1.856   0.952   2.347
    1   AR   Ar   28   1.870   2.465   4.202
    1   AR   Ar   29   5.032   1.233   7.292
    1   AR   Ar   30   0.735   1.246   3.085
    1   AR   Ar   31   4.218   0.247   7.515
    1   AR   Ar   32   0.929   2.529   5.668
    1   AR   Ar   33   0.897   4.175  -0.130
    1   AR   Ar   34   0.831   4.793   2.543
    1   AR   Ar   35   5.635   5.015   2.479
    1   AR   Ar   36   5.955   2.935  -2.666
    1   AR   Ar   37   4.148   3.056   2.195
    1   AR   Ar   38   7.049   4.275   4.053
    1   AR   Ar   39   0.249   2.972   3.255
    1   AR   Ar   40   1.873   4.683   1.627
    1   AR   Ar   41   0.477   2.050   2.678
    1   AR   Ar   42   5.683   6.079   5.605
    1   AR   Ar   43   6.861   2.716   6.160
    1   AR   Ar   44   0.968   3.930   3.617
    1   AR   Ar   45   0.147   3.618   5.707
    1   AR   Ar   46   0.682   4.624   6.495
    1   AR   Ar   47   3.959   5.334   7.599
    1   AR   Ar   48   6.061   3.615   7.625
    1   AR   Ar   49   6.744   7.094  -0.700
    1   AR   Ar   50   3.351   5.231   0.394
    1   AR   Ar   51   5.853   3.584   2.532
    1   AR   Ar   52   4.954   2.768  -1.545
    1   AR   Ar   53   4.941   0.036   2.556
    1   AR   Ar   54   0.345   0.486   2.140
    1   AR   Ar   55   7.089   4.282   2.787
    1   AR   Ar   56   6.371   1.375   2.832
    1   AR   Ar   57   3.902   4.074   2.580
    1   AR   Ar   58   0.793   3.968   4.610
    1   AR   Ar   59   2.570   5.945   5.839
    1   AR   Ar   60   7.059   5.270   3.430
    1   AR   Ar   61   7.106   3.661   7.140
    1   AR   Ar   62   6.953   4.609   5.294
    1   AR   Ar   63   2.416   2.522   7.190
    1   AR   Ar   64   0.241   5.550   5.172
    1   AR   Ar   65   3.714   0.299   1.924
    1   AR   Ar   66   1.187   1.066   1.122
    1   AR   Ar   67   4.871   0.487  -0.430
    1   AR   Ar   68   0.971   0.955  -0.416
    1   AR   Ar   69   3.202   1.615   0.237
    1   AR   Ar   70   0.557   1.522   1.814
    1   AR   Ar   71   2.684   0.732   2.857
    1   AR   Ar   72   4.499   0.967   1.598
    1   AR   Ar   73   3.071   0.672   3.761
    1   AR   Ar   74   0.608   1.088   4.672
    1   AR   Ar   75   3.338   0.353   5.175
    1   AR   Ar   76   2.230   0.525   1.423
    1   AR   Ar   77   2.188   0.073   5.668
    1   AR   Ar   78   6.672   5.291   6.344
    1   AR   Ar   79   3.084   6.799   5.926
    1   AR   Ar   80   3.568   5.399   4.992
    1   AR   Ar   81   1.179   6.853   1.479
    1   AR   Ar   82   6.329   4.472   0.681
    1   AR   Ar   83   0.667   2.964  -0.227
    1   AR   Ar   84   1.543   4.122   0.827
    1   AR   Ar   85   2.773   3.832  -0.123
    1   AR   Ar   86   2.064   5.485   1.023
    1   AR   Ar   87   3.063   3.301   2.447
    1   AR   Ar   88   3.202   5.641   1.665
    1   AR   Ar   89   6.548   1.968   0.856
    1   AR   Ar   90   3.495   1.668   5.287
    1   AR   Ar   91   1.770   2.090   3.161
    1   AR   Ar   92   1.697   3.520   1.954
    1   AR   Ar   93   1.812   1.182   6.170
    1   AR   Ar   94   1.309   6.490   9.288
    1   AR   Ar   95   4.426   1.277   5.155
    1   AR   Ar   96   2.713   0.011   4.414
    1   AR   Ar   97   3.801   2.332  -0.741
    1   AR   Ar   98   1.735   4.367   4.152
    1   AR   Ar   99   5.732   1.071  -0.604
    1   AR   Ar  100   0.161   3.245  -2.853
    1   AR   Ar  101   4.131   6.306   2.154
    1   AR   Ar  102   3.856   1.330   3.036
    1   AR   Ar  103   2.559   4.462   0.744
    1   AR   Ar  104   3.613   5.679  -1.232
    1   AR   Ar  105   2.621   1.635   3.639
    1   AR   Ar  106   3.641   2.702   5.665
    1   AR   Ar  107   1.385   5.041   5.328
    1   AR   Ar  108   2.297   1.010   4.599
    1   AR   Ar  109   1.712   3.783   4.978
    1   AR   Ar  110   2.827   2.067   4.637
    1   AR   Ar  111   4.416   6.254   7.815
    1   AR   Ar  112   0.070   6.448   5.924
    1   AR   Ar  113   3.125   4.750  -0.728
    1   AR   Ar  114   2.683   0.288  -1.330
    1   AR   Ar  115   1.778   4.734  -0.278
    1   AR   Ar  116   4.688   0.766   0.537
    1   AR   Ar  117   0.818   4.864   4.381
    1   AR   Ar  118   1.521   5.089   3.480
    1   AR   Ar  119   1.993   4.397   2.992
    1   AR   Ar  120   1.478   6.896   2.836
    1   AR   Ar  121   5.554   4.468   5.529
    1   AR   Ar  122   3.250   5.691   4.063
    1   AR   Ar  123   2.717   3.448   5.425
    1   AR   Ar  124   1.009   5.286   1.049
    1   AR   Ar  125   6.165   3.579   4.616
    1   AR   Ar  126   6.719   0.841   6.697
    1   AR   Ar  127   4.391   3.210   6.143
    1   AR   Ar  128   3.061   3.727   7.664
    1   AR   Ar  129   2.324   5.815   4.795
    1   AR   Ar  130   4.248   1.072  -4.482
    1   AR   Ar  131   4.361   5.126  -2.200
    1   AR   Ar  132   0.389   1.648   0.532
    1   AR   Ar  133   4.514   0.571   4.271
    1   AR   Ar  134   3.685   1.419   4.245
    1   AR   Ar  135   5.783   1.535   3.638
    1   AR   Ar  136   5.995   0.274   2.742
    1   AR   Ar  137   3.355   4.651   5.874
    1   AR   Ar  138   5.802   1.676   5.563
    1   AR   Ar  139   6.001   2.841   5.481
    1   AR   Ar  140   4.428   6.428   5.182
    1   AR   Ar  141   4.237   5.366   4.037
    1   AR   Ar  142   5.120   0.170   6.693
    1   AR   Ar  143   6.386   6.627   6.573
    1   AR   Ar  144   6.102   1.489   4.564
    1   AR   Ar  145   4.154   4.912  -0.481
    1   AR   Ar  146   3.800   2.528   2.945
    1   AR   Ar  147   5.330   3.450  -0.837
    1   AR   Ar  148   3.670   6.810  -1.407
    1   AR   Ar  149   2.391   0.368  -0.283
    1   AR   Ar  150   2.232   2.674   2.322
    1   AR   Ar  151   2.647   2.643   3.383
    1   AR   Ar  152   0.926   2.705  -2.251
    1   AR   Ar  153   5.322   0.437   3.677
    1   AR   Ar  154   4.839   1.887   4.392
    1   AR   Ar  155   6.346   3.694   6.122
    1   AR   Ar  156   2.894   4.466   3.603
    1   AR   Ar  157   1.837   5.217   6.784
    1   AR   Ar  158   0.605   1.505   5.759
    1   AR   Ar  159   3.918   0.382   6.189
    1   AR   Ar  160   1.556   1.895   5.032
    1   AR   Ar  161   4.673   4.514   3.607
    1   AR   Ar  162   4.239   5.953  -0.457
    1   AR   Ar  163   5.410   4.796   1.456
    1   AR   Ar  164   1.895   5.964   2.192
    1   AR   Ar  165   3.611   4.123   1.663
    1   AR   Ar  166   2.631   3.400   4.112
    1   AR   Ar  167   5.854   6.639   3.492
    1   AR   Ar  168   5.318   3.752  -1.859
    1   AR   Ar  169   3.555   3.411   3.564
    1   AR   Ar  170   1.786   3.201   6.124
    1   AR   Ar  171   5.684   4.790   4.548
    1   AR   Ar  172   3.879   3.870   5.213
    1   AR   Ar  173   2.529   2.073   5.693
    1   AR   Ar  174   3.262   6.353   4.927
    1   AR   Ar  175   2.924   0.935   6.022
    1   AR   Ar  176   3.707   2.520   4.412
    1   AR   Ar  177   0.926   4.758  -1.295
    1   AR   Ar  178   2.599   6.432   0.168
    1   AR   Ar  179   3.691   6.945   0.905
    1   AR   Ar  180   4.615   1.769  -6.629
    1   AR   Ar  181   0.175   5.153   1.766
    1   AR   Ar  182   0.606   6.130   2.102
    1   AR   Ar  183   4.880   5.703   1.695
    1   AR   Ar  184   4.479   6.847   0.105
    1   AR   Ar  185   2.826   4.650   4.763
    1   AR   Ar  186   2.695   5.521   3.187
    1   AR   Ar  187   3.548   6.550   3.555
    1   AR   Ar  188   2.368   6.989   2.200
    1   AR   Ar  189   5.125   3.683   6.502
    1   AR   Ar  190   2.511   6.669   3.348
    1   AR   Ar  191   3.685   6.743   6.882
    1   AR   Ar  192   4.739   4.887   6.134
    1   AR   Ar  193   2.582   6.330   1.340
    1   AR   Ar  194   5.511   4.913  -0.871
    1   AR   Ar  195   5.528   1.476   1.010
    1   AR   Ar  196   3.750   0.591  -0.327
    1   AR   Ar  197   4.414   2.262   0.861
    1   AR   Ar  198   5.617   0.283   1.784
    1   AR   Ar  199   1.439   0.604   3.464
    1   AR   Ar  200   5.202   3.106   0.283
    1   AR   Ar  201   6.653   6.505   2.382
    1   AR   Ar  202   5.373   0.863   4.856
    1   AR   Ar  203   0.644   6.520   3.217
    1   AR   Ar  204   4.840   6.115   6.459
    1   AR   Ar  205   6.052   2.052   1.868
    1   AR   Ar  206   5.771   0.617   5.966
    1   AR   Ar  207   0.354   2.881   4.798
    1   AR   Ar  208   1.033   5.971   4.590
    1   AR   Ar  209   6.993   2.214  -2.235
    1   AR   Ar  210   1.451   0.110   0.468
    1   AR   Ar  211   0.309   3.055   0.837
    1   AR   Ar  212   6.106   3.780  -0.131
    1   AR   Ar  213   3.835   1.915   1.789
    1   AR   Ar  214   4.978   4.178   2.112
    1   AR   Ar  215   6.783   2.688   2.211
    1   AR   Ar  216   1.144   2.467   1.210
    1   AR   Ar  217   4.837   1.580   3.221
    1   AR   Ar  218   4.751   2.975   4.514
    1   AR   Ar  219   4.967   3.215   3.168
    1   AR   Ar  220   4.482   3.474   1.190
    1   AR   Ar  221   6.755   6.022   4.182
    1   AR   Ar  222   4.959   7.079   5.636
    1   AR   Ar  223   6.775   1.706   6.272
    1   AR   Ar  224   4.869   2.289   5.445
    1   AR   Ar  225   6.287   3.068   3.262
    1   AR   Ar  226   1.632   3.298   3.044
    1   AR   Ar  227   0.719   3.178   2.267
    1   AR   Ar  228   6.327   1.046   1.618
    1   AR   Ar  229   6.587   4.437  -1.073
    1   AR   Ar  230   3.750   4.269   4.101
    1   AR   Ar  231   4.834   2.169   2.223
    1   AR   Ar  232   5.463   2.934   1.830
    1   AR   Ar  233   6.703   2.514   4.073
    1   AR   Ar  234   5.639   2.479   4.000
    1   AR   Ar  235   7.106   0.275   3.427
    1   AR   Ar  236   5.000   5.487   5.167
    1   AR   Ar  237   4.825   2.276   6.615
    1   AR   Ar  238   5.794   5.770   6.678
    1   AR   Ar  239   0.570   4.246  10.405
    1   AR   Ar  240   1.200   2.012   6.680
    1   AR   Ar  241   2.014   6.217  -1.011
    1   AR   Ar  242   5.817   6.426   1.495
    1   AR   Ar  243   5.163   6.097   2.919
    1   AR   Ar  244   0.455   5.309   0.224
    1   AR   Ar  245   4.032   0.207   2.978
    1   AR   Ar  246   5.390   6.629  -0.634
    1   AR   Ar  247   6.475   3.728   1.573
    1   AR   Ar  248   4.982   5.710   0.376
    1   AR   Ar  249   4.571   7.027   1.397
    1   AR   Ar  250   5.043   6.219   4.106
    1   AR   Ar  251   4.457   4.567   4.699
    1   AR   Ar  252   2.805   4.825   2.229
    1   AR   Ar  253   6.127   2.875   6.847
    1   AR   Ar  254   4.952   1.817   9.935
    1   AR   Ar  255   4.048   5.509   9.564
    1   AR   Ar  256   5.841   5.455   3.553
    7.12000  7.12000 12.00000
Argon-slab step 4600
  256
    1   AR   Ar    1   4.688   3.378  -2.846
    1   AR   Ar    2   5.427   6.975   0.737
    1   AR   Ar    3   4.094   3.313  -0.988
    1   AR   Ar    4   2.215   1.451   0.756
    1   AR   Ar    5   6.054   5.625  -0.252
    1   AR   Ar    6   1.770   1.846   1.896
    1   AR   Ar    7   6.209   4.207   3.476
    1   AR   Ar    8   5.919   2.529  -1.013
    1   AR   Ar    9   0.530   6.857   4.226
    1   AR   Ar   10   6.370   6.716   4.804
    1   AR   Ar   11   1.415   0.249   4.714
    1   AR   Ar   12   7.024   1.507   3.703
    1   AR   Ar   13   6.653   0.632   4.574
    1   AR   Ar   14   4.149   1.388   6.179
    1   AR   Ar   15   3.425   7.008   9.085
    1   AR   Ar   16   0.237   0.366   5.922
    1   AR   Ar   17   6.244   3.087   0.675
    1   AR   Ar   18   6.298   5.413  -1.535
    1   AR   Ar   19   5.059   4.448   0.292
    1   AR   Ar   20   6.793   4.244  -2.777
    1   AR   Ar   21   2.910   2.001   2.705
    1   AR   Ar   22   5.402   1.257   2.149
    1   AR   Ar   23   0.084   6.424   1.145
    1   AR   Ar   24   5.615   2.332   2.927
    1   AR   Ar   25   0.619   2.211   3.882
    1   AR   Ar   26   5.323   7.041   4.591
    1   AR   Ar   27   1.835   0.948   2.341
    1   AR   Ar   28   1.854   2.462   4.178
    1   AR   Ar   29   5.002   1.239   7.300
    1   AR   Ar   30   0.725   1.197   3.081
    1   AR   Ar   31   4.225   0.243   7.522
    1   AR   Ar   32   0.948   2.533   5.666
    1   AR   Ar   33   0.886   4.172  -0.140
    1   AR   Ar   34   0.841   4.810   2.563
    1   AR   Ar   35   5.662   4.993   2.458
    1   AR   Ar   36   5.974   2.938  -2.669
    1   AR   Ar   37   4.116   3.050   2.181
    1   AR   Ar   38   7.075   4.275   4.077
    1   AR   Ar   39   0.225   2.969   3.261
    1   AR   Ar   40   1.884   4.668   1.639
    1   AR   Ar   41   0.472   2.094   2.716
    1   AR   Ar   42   5.699   6.116   5.634
    1   AR   Ar   43   6.867   2.728   6.160
    1   AR   Ar   44   0.958   3.896   3.584
    1   AR   Ar   45   0.161   3.636   5.699
    1   AR   Ar   46   0.667   4.629   6.479
    1   AR   Ar   47   3.945   5.266   7.611
    1   AR   Ar   48   6.076   3.617   7.632
    1   AR   Ar   49   6.746   7.085  -0.697
    1   AR   Ar   50   3.372   5.253   0.416
    1   AR   Ar   51   5.816   3.617   2.574
    1   AR   Ar   52   4.981   2.761  -1.545
    1   AR   Ar   53   4.935   0.022   2.517
    1   AR   Ar   54   0.352   0.482   2.152
    1   AR   Ar   55   7.097   4.267   2.810
    1   AR   Ar   56   6.379   1.386   2.801
    1   AR   Ar   57   3.896   4.075   2.594
    1   AR   Ar   58   0.815   3.950   4.618
    1   AR   Ar   59   2.598   5.943   5.839
    1   AR   Ar   60   7.064   5.265   3.428
    1   AR   Ar   61   0.009   3.648   7.124
    1   AR   Ar   62   6.944   4.590   5.312
    1   AR   Ar   63   2.435   2.522   7.179
    1   AR   Ar   64   0.220   5.593   5.166
    1   AR   Ar   65   3.716   0.321   1.929
    1   AR   Ar   66   1.210   1.086   1.141
    1   AR   Ar   67   4.831   0.463  -0.422
    1   AR   Ar   68   0.983   0.953  -0.395
    1   AR   Ar   69   3.169   1.607   0.238
    1   AR   Ar   70   0.526   1.541   1.800
    1   AR   Ar   71   2.718   0.762   2.841
    1   AR   Ar   72   4.533   0.994   1.610
    1   AR   Ar   73   3.102   0.667   3.783
    1   AR   Ar   74   0.586   1.069   4.649
    1   AR   Ar   75   3.346   0.357   5.184
    1   AR   Ar   76   2.231   0.488   1.389
    1   AR   Ar   77   2.208   0.070   5.661
    1   AR   Ar   78   6.665   5.271   6.330
    1   AR   Ar   79   3.074   6.825   5.952
    1   AR   Ar   80   3.531   5.412   4.973
    1   AR   Ar   81   1.197   6.838   1.458
    1   AR   Ar   82   6.291   4.443   0.688
    1   AR   Ar   83   0.637   2.956  -0.224
    1   AR   Ar   84   1.524   4.142   0.789
    1   AR   Ar   85   2.732   3.824  -0.116
    1   AR   Ar   86   2.074   5.481   1.029
    1   AR   Ar   87   3.077   3.281   2.466
    1   AR   Ar   88   3.226   5.627   1.686
    1   AR   Ar   89   6.567   1.993   0.834
    1   AR   Ar   90   3.491   1.671   5.312
    1   AR   Ar   91   1.763   2.069   3.157
    1   AR   Ar   92   1.672   3.523   1.989
    1   AR   Ar   93   1.828   1.176   6.170
    1   AR   Ar   94   1.322   6.490   9.331
    1   AR   Ar   95   4.416   1.290   5.157
    1   AR   Ar   96   2.698   7.110   4.462
    1   AR   Ar   97   3.816   2.329  -0.734
    1   AR   Ar   98   1.782   4.352   4.172
    1   AR   Ar   99   5.723   1.058  -0.615
    1   AR   Ar  100   0.181   3.266  -2.875
    1   AR   Ar  101   4.127   6.330   2.156
    1   AR   Ar  102   3.859   1.336   3.031
    1   AR   Ar  103   2.553   4.454   0.762
    1   AR   Ar  104   3.620   5.665  -1.251
    1   AR   Ar  105   2.619   1.621   3.637
    1   AR   Ar  106   3.631   2.693   5.624
    1   AR   Ar  107   1.352   5.069   5.353
    1   AR   Ar  108   2.318   1.024   4.601
    1   AR   Ar  109   1.713   3.819   4.968
    1   AR   Ar  110   2.835   2.082   4.645
    1   AR   Ar  111   4.422   6.256   7.842
    1   AR   Ar  112   0.083   6.470   5.974
    1   AR   Ar  113   3.104   4.788  -0.746
    1   AR   Ar  114   2.695   0.268  -1.318
    1   AR   Ar  115   1.795   4.738  -0.284
    1   AR   Ar  116   4.700   0.725   0.564
    1   AR   Ar  117   0.829   4.869   4.375
    1   AR   Ar  118   1.508   5.090   3.481
    1   AR   Ar  119   1.993   4.396   3.003
    1   AR   Ar  120   1.495   6.871   2.831
    1   AR   Ar  121   5.560   4.477   5.558
    1   AR   Ar  122   3.277   5.703   4.081
    1   AR   Ar  123   2.713   3.465   5.450
    1   AR   Ar  124   1.000   5.309   1.053
    1   AR   Ar  125   6.155   3.586   4.633
    1   AR   Ar  126   6.711   0.820   6.702
    1   AR   Ar  127   4.355   3.208   6.120
    1   AR   Ar  128   3.075   3.687   7.654
    1   AR   Ar  129   2.348   5.805   4.767
    1   AR   Ar  130   4.225   1.078  -4.480
    1   AR   Ar  131   4.368   5.114  -2.190
    1   AR   Ar  132   0.381   1.636   0.537
    1   AR   Ar  133   4.548   0.538   4.257
    1   AR   Ar  134   3.716   1.410   4.239
    1   AR   Ar  135   5.796   1.524   3.635
    1   AR   Ar  136   5.959   0.287   2.742
    1   AR   Ar  137   3.374   4.640   5.857
    1   AR   Ar  138   5.830   1.652   5.560
    1   AR   Ar  139   6.017   2.857   5.507
    1   AR   Ar  140   4.428   6.412   5.171
    1   AR   Ar  141   4.213   5.370   4.050
    1   AR   Ar  142   5.157   0.149   6.677
    1   AR   Ar  143   6.405   6.634   6.578
    1   AR   Ar  144   6.118   1.517   4.559
    1   AR   Ar  145   4.175   4.911  -0.490
    1   AR   Ar  146   3.820   2.516   2.960
    1   AR   Ar  147   5.351   3.446  -0.835
    1   AR   Ar  148   3.637   6.806  -1.407
    1   AR   Ar  149   2.375   0.378  -0.258
    1   AR   Ar  150   2.225   2.629   2.301
    1   AR   Ar  151   2.642   2.659   3.369
    1   AR   Ar  152   0.931   2.708  -2.276
    1   AR   Ar  153   5.345   0.453   3.661
    1   AR   Ar  154   4.823   1.898   4.391
    1   AR   Ar  155   6.329   3.722   6.114
    1   AR   Ar  156   2.888   4.462   3.636
    1   AR   Ar  157   1.851   5.236   6.787
    1   AR   Ar  158   0.607   1.511   5.776
    1   AR   Ar  159   3.962   0.382   6.204
    1   AR   Ar  160   1.542   1.857   5.060
    1   AR   Ar  161   4.650   4.495   3.593
    1   AR   Ar  162   4.254   5.950  -0.459
    1   AR   Ar  163   5.422   4.800   1.477
    1   AR   Ar  164   1.886   5.960   2.209
    1   AR   Ar  165   3.616   4.119   1.676
    1   AR   Ar  166   2.632   3.425   4.122
    1   AR   Ar  167   5.870   6.659   3.512
    1   AR   Ar  168   5.335   3.766  -1.867
    1   AR   Ar  169   3.560   3.424   3.542
    1   AR   Ar  170   1.740   3.230   6.140
    1   AR   Ar  171   5.732   4.800   4.550
    1   AR   Ar  172   3.877   3.860   5.201
    1   AR   Ar  173   2.518   2.061   5.708
    1   AR   Ar  174   3.277   6.359   4.905
    1   AR   Ar  175   2.931   0.933   6.002
    1   AR   Ar  176   3.687   2.504   4.435
    1   AR   Ar  177   0.911   4.742  -1.288
    1   AR   Ar  178   2.604   6.460   0.169
    1   AR   Ar  179   3.715   6.951   0.942
    1   AR   Ar  180   4.606   1.769  -6.663
    1   AR   Ar  181   0.167   5.167   1.786
    1   AR   Ar  182   0.623   6.127   2.109
    1   AR   Ar  183   4.859   5.701   1.710
    1   AR   Ar  184   4.494   6.841   0.089
    1   AR   Ar  185   2.790   4.622   4.738
    1   AR   Ar  186   2.722   5.517   3.183
    1   AR   Ar  187   3.536   6.538   3.546
    1   AR   Ar  188   2.353   7.015   2.211
    1   AR   Ar  189   5.128   3.702   6.500
    1   AR   Ar  190   2.500   6.657   3.346
    1   AR   Ar  191   3.677   6.778   6.870
    1   AR   Ar  192   4.748   4.886   6.107
    1   AR   Ar  193   2.564   6.337   1.344
    1   AR   Ar  194   5.527   4.932  -0.880
    1   AR   Ar  195   5.485   1.465   1.037
    1   AR   Ar  196   3.731   0.615  -0.331
    1   AR   Ar  197   4.431   2.255   0.882
    1   AR   Ar  198   5.628   0.314   1.776
    1   AR   Ar  199   1.444   0.621   3.463
    1   AR   Ar  200   5.206   3.094   0.251
    1   AR   Ar  201   6.655   6.548   2.383
    1   AR   Ar  202   5.352   0.854   4.827
    1   AR   Ar  203   0.652   6.542   3.214
    1   AR   Ar  204   4.831   6.124   6.480
    1   AR   Ar  205   6.025   2.068   1.851
    1   AR   Ar  206   5.757   0.611   5.970
    1   AR   Ar  207   0.343   2.912   4.801
    1   AR   Ar  208   1.037   6.015   4.577
    1   AR   Ar  209   6.989   2.221  -2.225
    1   AR   Ar  210   1.461   0.137   0.454
    1   AR   Ar  211   0.286   3.020   0.839
    1   AR   Ar  212   6.121   3.745  -0.126
    1   AR   Ar  213   3.833   1.917   1.770
    1   AR   Ar  214   4.988   4.162   2.118
    1   AR   Ar  215   6.768   2.654   2.197
    1   AR   Ar  216   1.133   2.449   1.201
    1   AR   Ar  217   4.792   1.590   3.204
    1   AR   Ar  218   4.783   2.979   4.525
    1   AR   Ar  219   4.997   3.221   3.170
    1   AR   Ar  220   4.493   3.470   1.189
    1   AR   Ar  221   6.761   6.048   4.182
    1   AR   Ar  222   4.968   7.097   5.676
    1   AR   Ar  223   6.772   1.718   6.236
    1   AR   Ar  224   4.860   2.314   5.473
    1   AR   Ar  225   6.300   3.063   3.267
    1   AR   Ar  226   1.654   3.267   3.037
    1   AR   Ar  227   0.717   3.180   2.280
    1   AR   Ar  228   6.323   1.072   1.650
    1   AR   Ar  229   6.602   4.447  -1.086
    1   AR   Ar  230   3.775   4.278   4.093
    1   AR   Ar  231   4.856   2.141   2.247
    1   AR   Ar  232   5.455   2.926   1.840
    1   AR   Ar  233   6.672   2.519   4.113
    1   AR   Ar  234   5.638   2.525   4.007
    1   AR   Ar  235   0.007   0.274   3.445
    1   AR   Ar  236   4.988   5.470   5.185
    1   AR   Ar  237   4.818   2.270   6.606
    1   AR   Ar  238   5.798   5.792   6.711
    1   AR   Ar  239   0.573   4.245  10.407
    1   AR   Ar  240   1.231   1.992   6.679
    1   AR   Ar  241   1.994   6.200  -0.985
    1   AR   Ar  242   5.844   6.408   1.500
    1   AR   Ar  243   5.185   6.125   2.924
    1   AR   Ar  244   0.460   5.303   0.249
    1   AR   Ar  245   4.007   0.256   3.017
    1   AR   Ar  246   5.371   6.612  -0.638
    1   AR   Ar  247   6.474   3.732   1.536
    1   AR   Ar  248   4.976   5.687   0.393
    1   AR   Ar  249   4.566   7.010   1.382
    1   AR   Ar  250   5.049   6.228   4.120
    1   AR   Ar  251   4.450   4.569   4.695
    1   AR   Ar  252   2.781   4.844   2.258
    1   AR   Ar  253   6.128   2.875   6.852
    1   AR   Ar  254   4.949   1.837   9.944
    1   AR   Ar  255   4.082   5.492   9.541
    1   AR   Ar  256   5.858   5.481   3.542
    7.12000  7.12000 12.00000
Argon-slab step 4605
  256
    1   AR   Ar    1   4.690   3.367  -2.857
    1   AR   Ar    2   5.430   6.987   0.727
    1   AR   Ar    3   4.087   3.308  -1.003
    1   AR   Ar    4   2.272   1.458   0.770
    1   AR   Ar    5   6.054   5.610  -0.253
    1   AR   Ar    6   1.776   1.847   1.918
    1   AR   Ar    7   6.208   4.210   3.471
    1   AR   Ar    8   5.950   2.528  -1.042
    1   AR   Ar    9   0.513   6.825   4.246
    1   AR   Ar   10   6.372   6.667   4.821
    1   AR   Ar   11   1.388   0.261   4.750
    1   AR   Ar   12   7.044   1.503   3.707
    1   AR   Ar   13   6.643   0.601   4.570
    1   AR   Ar   14   4.161   1.391   6.180
    1   AR   Ar   15   3.413   6.998   9.080
    1   AR   Ar   16   0.250   0.379   5.938
    1   AR   Ar   17   6.268   3.096   0.685
    1   AR   Ar   18   6.336   5.397  -1.516
    1   AR   Ar   19   5.063   4.441   0.301
    1   AR   Ar   20   6.784   4.238  -2.794
    1   AR   Ar   21   2.907   1.976   2.716
    1   AR   Ar   22   5.389   1.272   2.153
    1   AR   Ar   23   0.116   6.420   1.136
    1   AR   Ar   24   5.587   2.321   2.982
    1   AR   Ar   25   0.610   2.199   3.868
    1   AR   Ar   26   5.331   7.058   4.631
    1   AR   Ar   27   1.810   0.937   2.338
    1   AR   Ar   28   1.839   2.460   4.154
    1   AR   Ar   29   4.971   1.244   7.305
    1   AR   Ar   30   0.712   1.145   3.075
    1   AR   Ar   31   4.202   0.249   7.523
    1   AR   Ar   32   0.967   2.539   5.666
    1   AR   Ar   33   0.872   4.168  -0.150
    1   AR   Ar   34   0.856   4.828   2.585
    1   AR   Ar   35   5.690   4.973   2.444
    1   AR   Ar   36   5.994   2.941  -2.672
    1   AR   Ar   37   4.089   3.049   2.158
    1   AR   Ar   38   7.101   4.275   4.101
    1   AR   Ar   39   0.201   2.971   3.267
    1   AR   Ar   40   1.894   4.650   1.656
    1   AR   Ar   41   0.452   2.149   2.745
    1   AR   Ar   42   5.703   6.114   5.642
    1   AR   Ar   43   6.881   2.745   6.157
    1   AR   Ar   44   0.946   3.865   3.546
    1   AR   Ar   45   0.179   3.653   5.688
    1   AR   Ar   46   0.652   4.634   6.461
    1   AR   Ar   47   3.932   5.198   7.622
    1   AR   Ar   48   6.092   3.620   7.639
    1   AR   Ar   49   6.747   7.077  -0.693
    1   AR   Ar   50   3.392   5.274   0.437
    1   AR   Ar   51   5.802   3.650   2.615
    1   AR   Ar   52   5.006   2.751  -1.547
    1   AR   Ar   53   4.927   0.008   2.478
    1   AR   Ar   54   0.361   0.480   2.183
    1   AR   Ar   55   7.104   4.249   2.834
    1   AR   Ar   56   6.392   1.372   2.750
    1   AR   Ar   57   3.894   4.076   2.628
    1   AR   Ar   58   0.822   3.911   4.633
    1   AR   Ar   59   2.623   5.935   5.838
    1   AR   Ar   60   7.069   5.259   3.427
    1   AR   Ar   61   0.031   3.634   7.104
    1   AR   Ar   62   6.935   4.571   5.328
    1   AR   Ar   63   2.453   2.522   7.167
    1   AR   Ar   64   0.236   5.583   5.175
    1   AR   Ar   65   3.716   0.343   1.937
    1   AR   Ar   66   1.236   1.105   1.158
    1   AR   Ar   67   4.797   0.451  -0.428
    1   AR   Ar   68   0.995   0.951  -0.373
    1   AR   Ar   69   3.138   1.599   0.239
    1   AR   Ar   70   0.503   1.554   1.777
    1   AR   Ar   71   2.754   0.793   2.822
    1   AR   Ar   72   4.565   1.021   1.622
    1   AR   Ar   73   3.136   0.661   3.806
    1   AR   Ar   74   0.565   1.050   4.625
    1   AR   Ar   75   3.358   0.365   5.192
    1   AR   Ar   76   2.231   0.454   1.349
    1   AR   Ar   77   2.219   0.073   5.649
    1   AR   Ar   78   6.659   5.251   6.314
    1   AR   Ar   79   3.078   6.853   5.983
    1   AR   Ar   80   3.501   5.408   4.969
    1   AR   Ar   81   1.215   6.823   1.439
    1   AR   Ar   82   6.260   4.423   0.697
    1   AR   Ar   83   0.607   2.948  -0.220
    1   AR   Ar   84   1.502   4.161   0.750
    1   AR   Ar   85   2.692   3.816  -0.109
    1   AR   Ar   86   2.085   5.477   1.030
    1   AR   Ar   87   3.092   3.261   2.488
    1   AR   Ar   88   3.255   5.610   1.707
    1   AR   Ar   89   6.582   2.020   0.815
    1   AR   Ar   90   3.484   1.672   5.340
    1   AR   Ar   91   1.758   2.061   3.148
    1   AR   Ar   92   1.650   3.529   2.021
    1   AR   Ar   93   1.844   1.171   6.168
    1   AR   Ar   94   1.334   6.489   9.375
    1   AR   Ar   95   4.411   1.298   5.159
    1   AR   Ar   96   2.677   7.085   4.508
    1   AR   Ar   97   3.830   2.322  -0.725
    1   AR   Ar   98   1.834   4.343   4.179
    1   AR   Ar   99   5.715   1.045  -0.626
    1   AR   Ar  100   0.201   3.287  -2.896
    1   AR   Ar  101   4.121   6.357   2.159
    1   AR   Ar  102   3.848   1.341   3.024
    1   AR   Ar  103   2.550   4.447   0.779
    1   AR   Ar  104   3.626   5.649  -1.272
    1   AR   Ar  105   2.632   1.645   3.644
    1   AR   Ar  106   3.617   2.682   5.579
    1   AR   Ar  107   1.317   5.096   5.376
    1   AR   Ar  108   2.338   1.039   4.603
    1   AR   Ar  109   1.728   3.842   4.979
    1   AR   Ar  110   2.831   2.095   4.652
    1   AR   Ar  111   4.425   6.256   7.869
    1   AR   Ar  112   0.099   6.485   6.020
    1   AR   Ar  113   3.081   4.825  -0.762
    1   AR   Ar  114   2.707   0.247  -1.305
    1   AR   Ar  115   1.814   4.743  -0.287
    1   AR   Ar  116   4.711   0.685   0.595
    1   AR   Ar  117   0.841   4.898   4.364
    1   AR   Ar  118   1.487   5.105   3.488
    1   AR   Ar  119   1.992   4.394   3.012
    1   AR   Ar  120   1.521   6.849   2.820
    1   AR   Ar  121   5.569   4.484   5.588
    1   AR   Ar  122   3.271   5.693   4.065
    1   AR   Ar  123   2.710   3.482   5.474
    1   AR   Ar  124   1.000   5.331   1.072
    1   AR   Ar  125   6.145   3.594   4.649
    1   AR   Ar  126   6.701   0.792   6.711
    1   AR   Ar  127   4.315   3.204   6.094
    1   AR   Ar  128   3.077   3.736   7.645
    1   AR   Ar  129   2.370   5.793   4.738
    1   AR   Ar  130   4.203   1.085  -4.477
    1   AR   Ar  131   4.375   5.101  -2.178
    1   AR   Ar  132   0.377   1.624   0.542
    1   AR   Ar  133   4.567   0.507   4.245
    1   AR   Ar  134   3.748   1.402   4.233
    1   AR   Ar  135   5.804   1.510   3.624
    1   AR   Ar  136   5.928   0.302   2.746
    1   AR   Ar  137   3.394   4.629   5.838
    1   AR   Ar  138   5.857   1.629   5.560
    1   AR   Ar  139   6.030   2.872   5.531
    1   AR   Ar  140   4.423   6.390   5.155
    1   AR   Ar  141   4.197   5.376   4.064
    1   AR   Ar  142   5.161   0.175   6.662
    1   AR   Ar  143   6.419   6.646   6.585
    1   AR   Ar  144   6.140   1.521   4.566
    1   AR   Ar  145   4.197   4.907  -0.498
    1   AR   Ar  146   3.842   2.484   2.992
    1   AR   Ar  147   5.372   3.445  -0.829
    1   AR   Ar  148   3.593   6.789  -1.407
    1   AR   Ar  149   2.375   0.386  -0.247
    1   AR   Ar  150   2.218   2.596   2.283
    1   AR   Ar  151   2.634   2.688   3.364
    1   AR   Ar  152   0.935   2.710  -2.300
    1   AR   Ar  153   5.374   0.471   3.637
    1   AR   Ar  154   4.799   1.873   4.403
    1   AR   Ar  155   6.308   3.752   6.108
    1   AR   Ar  156   2.876   4.459   3.666
    1   AR   Ar  157   1.864   5.256   6.788
    1   AR   Ar  158   0.611   1.515   5.791
    1   AR   Ar  159   4.007   0.380   6.215
    1   AR   Ar  160   1.530   1.817   5.088
    1   AR   Ar  161   4.631   4.476   3.575
    1   AR   Ar  162   4.271   5.951  -0.459
    1   AR   Ar  163   5.439   4.806   1.485
    1   AR   Ar  164   1.876   5.955   2.224
    1   AR   Ar  165   3.616   4.114   1.671
    1   AR   Ar  166   2.632   3.452   4.135
    1   AR   Ar  167   5.891   6.679   3.536
    1   AR   Ar  168   5.352   3.780  -1.876
    1   AR   Ar  169   3.565   3.433   3.517
    1   AR   Ar  170   1.694   3.258   6.155
    1   AR   Ar  171   5.780   4.811   4.549
    1   AR   Ar  172   3.872   3.845   5.191
    1   AR   Ar  173   2.505   2.048   5.723
    1   AR   Ar  174   3.292   6.377   4.887
    1   AR   Ar  175   2.938   0.931   5.982
    1   AR   Ar  176   3.682   2.495   4.455
    1   AR   Ar  177   0.896   4.726  -1.279
    1   AR   Ar  178   2.603   6.491   0.164
    1   AR   Ar  179   3.722   6.955   0.970
    1   AR   Ar  180   4.597   1.768  -6.696
    1   AR   Ar  181   0.160   5.172   1.780
    1   AR   Ar  182   0.640   6.123   2.116
    1   AR   Ar  183   4.857   5.672   1.708
    1   AR   Ar  184   4.502   6.821   0.085
    1   AR   Ar  185   2.754   4.594   4.714
    1   AR   Ar  186   2.747   5.513   3.176
    1   AR   Ar  187   3.526   6.529   3.537
    1   AR   Ar  188   2.341   7.037   2.226
    1   AR   Ar  189   5.133   3.704   6.499
    1   AR   Ar  190   2.487   6.646   3.343
    1   AR   Ar  191   3.667   6.805   6.860
    1   AR   Ar  192   4.756   4.886   6.082
    1   AR   Ar  193   2.543   6.354   1.345
    1   AR   Ar  194   5.541   4.949  -0.888
    1   AR   Ar  195   5.441   1.453   1.065
    1   AR   Ar  196   3.711   0.639  -0.334
    1   AR   Ar  197   4.448   2.247   0.904
    1   AR   Ar  198   5.636   0.341   1.758
    1   AR   Ar  199   1.457   0.633   3.468
    1   AR   Ar  200   5.218   3.120   0.233
    1   AR   Ar  201   6.658   6.575   2.390
    1   AR   Ar  202   5.334   0.862   4.806
    1   AR   Ar  203   0.649   6.557   3.213
    1   AR   Ar  204   4.818   6.135   6.500
    1   AR   Ar  205   5.994   2.078   1.832
    1   AR   Ar  206   5.748   0.610   5.971
    1   AR   Ar  207   0.333   2.944   4.804
    1   AR   Ar  208   1.045   6.055   4.564
    1   AR   Ar  209   6.985   2.230  -2.214
    1   AR   Ar  210   1.472   0.167   0.440
    1   AR   Ar  211   0.262   2.984   0.841
    1   AR   Ar  212   6.134   3.713  -0.124
    1   AR   Ar  213   3.836   1.927   1.746
    1   AR   Ar  214   4.993   4.140   2.129
    1   AR   Ar  215   6.757   2.625   2.185
    1   AR   Ar  216   1.124   2.430   1.192
    1   AR   Ar  217   4.759   1.604   3.190
    1   AR   Ar  218   4.812   2.984   4.537
    1   AR   Ar  219   5.025   3.226   3.173
    1   AR   Ar  220   4.515   3.457   1.193
    1   AR   Ar  221   6.773   6.067   4.175
    1   AR   Ar  222   4.979   7.117   5.714
    1   AR   Ar  223   6.780   1.726   6.238
    1   AR   Ar  224   4.850   2.338   5.500
    1   AR   Ar  225   6.314   3.057   3.277
    1   AR   Ar  226   1.677   3.234   3.031
    1   AR   Ar  227   0.713   3.181   2.294
    1   AR   Ar  228   6.325   1.097   1.678
    1   AR   Ar  229   6.617   4.455  -1.098
    1   AR   Ar  230   3.785   4.283   4.081
    1   AR   Ar  231   4.871   2.115   2.269
    1   AR   Ar  232   5.444   2.923   1.848
    1   AR   Ar  233   6.645   2.523   4.155
    1   AR   Ar  234   5.634   2.574   4.014
    1   AR   Ar  235   0.026   0.276   3.462
    1   AR   Ar  236   4.973   5.450   5.201
    1   AR   Ar  237   4.811   2.263   6.597
    1   AR   Ar  238   5.800   5.810   6.744
    1   AR   Ar  239   0.577   4.244  10.408
    1   AR   Ar  240   1.262   1.972   6.677
    1   AR   Ar  241   1.975   6.183  -0.958
    1   AR   Ar  242   5.873   6.386   1.508
    1   AR   Ar  243   5.205   6.152   2.925
    1   AR   Ar  244   0.457   5.295   0.260
    1   AR   Ar  245   3.981   0.305   3.057
    1   AR   Ar  246   5.351   6.593  -0.639
    1   AR   Ar  247   6.472   3.735   1.501
    1   AR   Ar  248   4.972   5.666   0.380
    1   AR   Ar  249   4.579   6.994   1.376
    1   AR   Ar  250   5.066   6.224   4.126
    1   AR   Ar  251   4.463   4.580   4.706
    1   AR   Ar  252   2.757   4.861   2.289
    1   AR   Ar  253   6.125   2.875   6.859
    1   AR   Ar  254   4.919   1.837   9.989
    1   AR   Ar  255   4.117   5.475   9.517
    1   AR   Ar  256   5.876   5.507   3.533
    7.12000  7.12000 12.00000
Argon-slab step 4610
  256
    1   AR   Ar    1   4.693   3.355  -2.867
    1   AR   Ar    2   5.433   7.000   0.714
    1   AR   Ar    3   4.082   3.307  -1.018
    1   AR   Ar    4   2.323   1.463   0.789
    1   AR   Ar    5   6.055   5.597  -0.253
    1   AR   Ar    6   1.755   1.836   1.887
    1   AR   Ar    7   6.205   4.213   3.467
    1   AR   Ar    8   5.983   2.528  -1.071
    1   AR   Ar    9   0.489   6.802   4.265
    1   AR   Ar   10   6.367   6.628   4.849
    1   AR   Ar   11   1.362   0.273   4.785
    1   AR   Ar   12   7.054   1.491   3.711
    1   AR   Ar   13   6.634   0.567   4.565
    1   AR   Ar   14   4.162   1.383   6.194
    1   AR   Ar   15   3.400   6.986   9.075
    1   AR   Ar   16   0.264   0.398   5.952
    1   AR   Ar   17   6.291   3.100   0.698
    1   AR   Ar   18   6.373   5.382  -1.498
    1   AR   Ar   19   5.061   4.446   0.287
    1   AR   Ar   20   6.774   4.233  -2.810
    1   AR   Ar   21   2.912   1.941   2.716
    1   AR   Ar   22   5.383   1.281   2.167
    1   AR   Ar   23   0.150   6.415   1.129
    1   AR   Ar   24   5.563   2.310   3.033
    1   AR   Ar   25   0.610   2.192   3.857
    1   AR   Ar   26   5.345   7.053   4.673
    1   AR   Ar   27   1.781   0.917   2.338
    1   AR   Ar   28   1.867   2.509   4.167
    1   AR   Ar   29   4.939   1.248   7.308
    1   AR   Ar   30   0.724   1.130   3.059
    1   AR   Ar   31   4.138   0.261   7.497
    1   AR   Ar   32   0.984   2.548   5.666
    1   AR   Ar   33   0.857   4.165  -0.160
    1   AR   Ar   34   0.874   4.846   2.606
    1   AR   Ar   35   5.695   4.967   2.422
    1   AR   Ar   36   5.990   2.927  -2.664
    1   AR   Ar   37   4.067   3.049   2.131
    1   AR   Ar   38   0.005   4.276   4.124
    1   AR   Ar   39   0.182   2.982   3.276
    1   AR   Ar   40   1.902   4.630   1.676
    1   AR   Ar   41   0.434   2.197   2.770
    1   AR   Ar   42   5.690   6.120   5.669
    1   AR   Ar   43   6.900   2.767   6.150
    1   AR   Ar   44   0.933   3.835   3.508
    1   AR   Ar   45   0.202   3.667   5.677
    1   AR   Ar   46   0.635   4.639   6.442
    1   AR   Ar   47   3.918   5.130   7.632
    1   AR   Ar   48   6.109   3.624   7.646
    1   AR   Ar   49   6.747   7.068  -0.689
    1   AR   Ar   50   3.412   5.296   0.457
    1   AR   Ar   51   5.806   3.683   2.653
    1   AR   Ar   52   5.028   2.742  -1.551
    1   AR   Ar   53   4.916   7.114   2.440
    1   AR   Ar   54   0.371   0.477   2.215
    1   AR   Ar   55   7.110   4.229   2.859
    1   AR   Ar   56   6.408   1.353   2.695
    1   AR   Ar   57   3.897   4.075   2.673
    1   AR   Ar   58   0.818   3.867   4.646
    1   AR   Ar   59   2.646   5.923   5.835
    1   AR   Ar   60   7.074   5.251   3.426
    1   AR   Ar   61   0.050   3.619   7.083
    1   AR   Ar   62   6.923   4.553   5.344
    1   AR   Ar   63   2.471   2.522   7.154
    1   AR   Ar   64   0.235   5.572   5.193
    1   AR   Ar   65   3.717   0.365   1.947
    1   AR   Ar   66   1.265   1.122   1.175
    1   AR   Ar   67   4.769   0.453  -0.447
    1   AR   Ar   68   1.008   0.948  -0.349
    1   AR   Ar   69   3.114   1.591   0.235
    1   AR   Ar   70   0.490   1.555   1.740
    1   AR   Ar   71   2.792   0.824   2.803
    1   AR   Ar   72   4.592   1.046   1.632
    1   AR   Ar   73   3.172   0.653   3.830
    1   AR   Ar   74   0.543   1.031   4.600
    1   AR   Ar   75   3.375   0.377   5.197
    1   AR   Ar   76   2.228   0.422   1.305
    1   AR   Ar   77   2.220   0.082   5.630
    1   AR   Ar   78   6.654   5.230   6.296
    1   AR   Ar   79   3.094   6.879   6.018
    1   AR   Ar   80   3.478   5.390   4.979
    1   AR   Ar   81   1.235   6.809   1.421
    1   AR   Ar   82   6.259   4.436   0.708
    1   AR   Ar   83   0.577   2.941  -0.216
    1   AR   Ar   84   1.479   4.180   0.710
    1   AR   Ar   85   2.651   3.810  -0.104
    1   AR   Ar   86   2.096   5.471   1.029
    1   AR   Ar   87   3.105   3.242   2.511
    1   AR   Ar   88   3.285   5.593   1.727
    1   AR   Ar   89   6.591   2.033   0.806
    1   AR   Ar   90   3.498   1.682   5.368
    1   AR   Ar   91   1.775   2.108   3.129
    1   AR   Ar   92   1.632   3.539   2.049
    1   AR   Ar   93   1.861   1.165   6.163
    1   AR   Ar   94   1.347   6.488   9.418
    1   AR   Ar   95   4.409   1.300   5.160
    1   AR   Ar   96   2.647   7.063   4.549
    1   AR   Ar   97   3.843   2.312  -0.715
    1   AR   Ar   98   1.888   4.345   4.166
    1   AR   Ar   99   5.708   1.032  -0.636
    1   AR   Ar  100   0.220   3.306  -2.917
    1   AR   Ar  101   4.114   6.386   2.163
    1   AR   Ar  102   3.817   1.344   3.014
    1   AR   Ar  103   2.547   4.443   0.798
    1   AR   Ar  104   3.632   5.632  -1.293
    1   AR   Ar  105   2.644   1.660   3.658
    1   AR   Ar  106   3.598   2.670   5.529
    1   AR   Ar  107   1.283   5.123   5.399
    1   AR   Ar  108   2.360   1.054   4.606
    1   AR   Ar  109   1.756   3.853   5.014
    1   AR   Ar  110   2.819   2.108   4.664
    1   AR   Ar  111   4.428   6.256   7.894
    1   AR   Ar  112   0.123   6.491   6.058
    1   AR   Ar  113   3.059   4.863  -0.776
    1   AR   Ar  114   2.716   0.227  -1.291
    1   AR   Ar  115   1.835   4.748  -0.290
    1   AR   Ar  116   4.721   0.646   0.629
    1   AR   Ar  117   0.848   4.916   4.363
    1   AR   Ar  118   1.460   5.129   3.498
    1   AR   Ar  119   1.990   4.392   3.019
    1   AR   Ar  120   1.550   6.830   2.807
    1   AR   Ar  121   5.582   4.489   5.615
    1   AR   Ar  122   3.249   5.685   4.040
    1   AR   Ar  123   2.707   3.498   5.497
    1   AR   Ar  124   1.009   5.353   1.104
    1   AR   Ar  125   6.136   3.601   4.665
    1   AR   Ar  126   6.709   0.765   6.724
    1   AR   Ar  127   4.276   3.200   6.069
    1   AR   Ar  128   3.075   3.807   7.637
    1   AR   Ar  129   2.393   5.781   4.709
    1   AR   Ar  130   4.180   1.092  -4.475
    1   AR   Ar  131   4.381   5.089  -2.166
    1   AR   Ar  132   0.379   1.610   0.547
    1   AR   Ar  133   4.569   0.479   4.232
    1   AR   Ar  134   3.775   1.397   4.235
    1   AR   Ar  135   5.807   1.494   3.609
    1   AR   Ar  136   5.902   0.319   2.752
    1   AR   Ar  137   3.413   4.619   5.817
    1   AR   Ar  138   5.881   1.608   5.563
    1   AR   Ar  139   6.041   2.885   5.553
    1   AR   Ar  140   4.416   6.369   5.136
    1   AR   Ar  141   4.194   5.379   4.077
    1   AR   Ar  142   5.162   0.200   6.666
    1   AR   Ar  143   6.425   6.663   6.596
    1   AR   Ar  144   6.166   1.530   4.576
    1   AR   Ar  145   4.219   4.901  -0.505
    1   AR   Ar  146   3.864   2.449   3.029
    1   AR   Ar  147   5.390   3.445  -0.822
    1   AR   Ar  148   3.551   6.770  -1.406
    1   AR   Ar  149   2.387   0.394  -0.243
    1   AR   Ar  150   2.218   2.586   2.272
    1   AR   Ar  151   2.626   2.725   3.363
    1   AR   Ar  152   0.939   2.712  -2.325
    1   AR   Ar  153   5.406   0.493   3.612
    1   AR   Ar  154   4.774   1.841   4.414
    1   AR   Ar  155   6.286   3.782   6.103
    1   AR   Ar  156   2.859   4.458   3.690
    1   AR   Ar  157   1.877   5.275   6.788
    1   AR   Ar  158   0.618   1.517   5.806
    1   AR   Ar  159   4.054   0.378   6.220
    1   AR   Ar  160   1.519   1.775   5.115
    1   AR   Ar  161   4.621   4.457   3.553
    1   AR   Ar  162   4.288   5.954  -0.460
    1   AR   Ar  163   5.453   4.810   1.482
    1   AR   Ar  164   1.868   5.951   2.239
    1   AR   Ar  165   3.613   4.110   1.658
    1   AR   Ar  166   2.630   3.481   4.149
    1   AR   Ar  167   5.916   6.696   3.563
    1   AR   Ar  168   5.368   3.793  -1.886
    1   AR   Ar  169   3.568   3.439   3.489
    1   AR   Ar  170   1.648   3.285   6.168
    1   AR   Ar  171   5.829   4.823   4.547
    1   AR   Ar  172   3.865   3.827   5.181
    1   AR   Ar  173   2.502   2.044   5.727
    1   AR   Ar  174   3.310   6.402   4.874
    1   AR   Ar  175   2.944   0.930   5.963
    1   AR   Ar  176   3.694   2.495   4.471
    1   AR   Ar  177   0.881   4.709  -1.269
    1   AR   Ar  178   2.594   6.527   0.148
    1   AR   Ar  179   3.709   6.958   0.986
    1   AR   Ar  180   4.588   1.768  -6.729
    1   AR   Ar  181   0.154   5.171   1.756
    1   AR   Ar  182   0.659   6.121   2.125
    1   AR   Ar  183   4.868   5.629   1.696
    1   AR   Ar  184   4.504   6.788   0.096
    1   AR   Ar  185   2.734   4.603   4.712
    1   AR   Ar  186   2.769   5.509   3.167
    1   AR   Ar  187   3.520   6.525   3.525
    1   AR   Ar  188   2.334   7.057   2.243
    1   AR   Ar  189   5.128   3.676   6.494
    1   AR   Ar  190   2.471   6.637   3.340
    1   AR   Ar  191   3.653   6.822   6.852
    1   AR   Ar  192   4.759   4.886   6.061
    1   AR   Ar  193   2.521   6.377   1.347
    1   AR   Ar  194   5.553   4.963  -0.897
    1   AR   Ar  195   5.398   1.442   1.094
    1   AR   Ar  196   3.690   0.661  -0.335
    1   AR   Ar  197   4.468   2.240   0.926
    1   AR   Ar  198   5.641   0.358   1.742
    1   AR   Ar  199   1.479   0.640   3.478
    1   AR   Ar  200   5.229   3.146   0.215
    1   AR   Ar  201   6.664   6.574   2.404
    1   AR   Ar  202   5.321   0.896   4.794
    1   AR   Ar  203   0.638   6.568   3.213
    1   AR   Ar  204   4.802   6.149   6.516
    1   AR   Ar  205   5.961   2.083   1.811
    1   AR   Ar  206   5.750   0.616   5.968
    1   AR   Ar  207   0.321   2.975   4.807
    1   AR   Ar  208   1.060   6.085   4.555
    1   AR   Ar  209   6.982   2.241  -2.205
    1   AR   Ar  210   1.485   0.197   0.427
    1   AR   Ar  211   0.235   2.949   0.843
    1   AR   Ar  212   6.148   3.684  -0.126
    1   AR   Ar  213   3.839   1.936   1.725
    1   AR   Ar  214   4.992   4.113   2.142
    1   AR   Ar  215   6.753   2.603   2.178
    1   AR   Ar  216   1.116   2.409   1.184
    1   AR   Ar  217   4.743   1.620   3.182
    1   AR   Ar  218   4.839   2.991   4.550
    1   AR   Ar  219   5.050   3.230   3.178
    1   AR   Ar  220   4.538   3.444   1.198
    1   AR   Ar  221   6.790   6.076   4.156
    1   AR   Ar  222   4.984   0.012   5.737
    1   AR   Ar  223   6.787   1.732   6.238
    1   AR   Ar  224   4.839   2.362   5.526
    1   AR   Ar  225   6.324   3.051   3.289
    1   AR   Ar  226   1.701   3.200   3.029
    1   AR   Ar  227   0.703   3.180   2.311
    1   AR   Ar  228   6.336   1.123   1.705
    1   AR   Ar  229   6.631   4.461  -1.109
    1   AR   Ar  230   3.783   4.283   4.069
    1   AR   Ar  231   4.876   2.097   2.286
    1   AR   Ar  232   5.430   2.928   1.856
    1   AR   Ar  233   6.624   2.524   4.198
    1   AR   Ar  234   5.626   2.621   4.021
    1   AR   Ar  235   0.043   0.281   3.478
    1   AR   Ar  236   4.959   5.429   5.212
    1   AR   Ar  237   4.804   2.256   6.587
    1   AR   Ar  238   5.803   5.826   6.778
    1   AR   Ar  239   0.580   4.242  10.410
    1   AR   Ar  240   1.292   1.953   6.673
    1   AR   Ar  241   1.957   6.166  -0.930
    1   AR   Ar  242   5.902   6.362   1.519
    1   AR   Ar  243   5.222   6.178   2.925
    1   AR   Ar  244   0.445   5.286   0.260
    1   AR   Ar  245   3.955   0.351   3.098
    1   AR   Ar  246   5.331   6.574  -0.639
    1   AR   Ar  247   6.471   3.738   1.471
    1   AR   Ar  248   4.969   5.645   0.359
    1   AR   Ar  249   4.613   6.980   1.381
    1   AR   Ar  250   5.084   6.223   4.107
    1   AR   Ar  251   4.489   4.596   4.730
    1   AR   Ar  252   2.732   4.876   2.322
    1   AR   Ar  253   6.119   2.875   6.865
    1   AR   Ar  254   4.888   1.836  10.035
    1   AR   Ar  255   4.151   5.458   9.493
    1   AR   Ar  256   5.895   5.533   3.524
    7.12000  7.12000 12.00000
Argon-slab step 4615
  256
    1   AR   Ar    1   4.698   3.344  -2.875
    1   AR   Ar    2   5.440   7.010   0.700
    1   AR   Ar    3   4.080   3.308  -1.034
    1   AR   Ar    4   2.359   1.465   0.818
    1   AR   Ar    5   6.057   5.587  -0.249
    1   AR   Ar    6   1.722   1.816   1.837
    1   AR   Ar    7   6.203   4.219   3.467
    1   AR   Ar    8   6.016   2.527  -1.099
    1   AR   Ar    9   0.454   6.795   4.282
    1   AR   Ar   10   6.356   6.595   4.886
    1   AR   Ar   11   1.337   0.285   4.820
    1   AR   Ar   12   7.053   1.476   3.710
    1   AR   Ar   13   6.649   0.584   4.527
    1   AR   Ar   14   4.165   1.382   6.210
    1   AR   Ar   15   3.388   6.975   9.069
    1   AR   Ar   16   0.278   0.421   5.963
    1   AR   Ar   17   6.312   3.098   0.711
    1   AR   Ar   18   6.409   5.373  -1.481
    1   AR   Ar   19   5.055   4.460   0.257
    1   AR   Ar   20   6.763   4.228  -2.826
    1   AR   Ar   21   2.921   1.904   2.710
    1   AR   Ar   22   5.392   1.279   2.192
    1   AR   Ar   23   0.184   6.409   1.123
    1   AR   Ar   24   5.543   2.301   3.077
    1   AR   Ar   25   0.620   2.193   3.850
    1   AR   Ar   26   5.363   7.034   4.716
    1   AR   Ar   27   1.751   0.892   2.341
    1   AR   Ar   28   1.868   2.490   4.186
    1   AR   Ar   29   4.907   1.251   7.309
    1   AR   Ar   30   0.748   1.121   3.027
    1   AR   Ar   31   4.082   0.281   7.479
    1   AR   Ar   32   0.986   2.562   5.650
    1   AR   Ar   33   0.841   4.162  -0.173
    1   AR   Ar   34   0.892   4.866   2.627
    1   AR   Ar   35   5.700   4.989   2.425
    1   AR   Ar   36   5.972   2.901  -2.649
    1   AR   Ar   37   4.049   3.050   2.102
    1   AR   Ar   38   0.024   4.277   4.145
    1   AR   Ar   39   0.170   3.008   3.293
    1   AR   Ar   40   1.906   4.610   1.698
    1   AR   Ar   41   0.421   2.230   2.786
    1   AR   Ar   42   5.665   6.133   5.710
    1   AR   Ar   43   6.925   2.792   6.144
    1   AR   Ar   44   0.919   3.808   3.469
    1   AR   Ar   45   0.227   3.677   5.668
    1   AR   Ar   46   0.618   4.643   6.420
    1   AR   Ar   47   3.905   5.064   7.643
    1   AR   Ar   48   6.126   3.629   7.652
    1   AR   Ar   49   6.747   7.059  -0.685
    1   AR   Ar   50   3.431   5.317   0.478
    1   AR   Ar   51   5.820   3.672   2.662
    1   AR   Ar   52   5.049   2.732  -1.557
    1   AR   Ar   53   4.901   7.102   2.403
    1   AR   Ar   54   0.380   0.475   2.248
    1   AR   Ar   55   7.116   4.208   2.885
    1   AR   Ar   56   6.424   1.337   2.646
    1   AR   Ar   57   3.901   4.074   2.721
    1   AR   Ar   58   0.810   3.826   4.658
    1   AR   Ar   59   2.668   5.909   5.829
    1   AR   Ar   60   7.080   5.242   3.425
    1   AR   Ar   61   0.069   3.605   7.059
    1   AR   Ar   62   6.909   4.539   5.357
    1   AR   Ar   63   2.489   2.522   7.139
    1   AR   Ar   64   0.221   5.562   5.217
    1   AR   Ar   65   3.719   0.387   1.959
    1   AR   Ar   66   1.297   1.138   1.189
    1   AR   Ar   67   4.746   0.463  -0.474
    1   AR   Ar   68   1.021   0.945  -0.323
    1   AR   Ar   69   3.102   1.584   0.223
    1   AR   Ar   70   0.475   1.558   1.706
    1   AR   Ar   71   2.831   0.854   2.783
    1   AR   Ar   72   4.606   1.066   1.640
    1   AR   Ar   73   3.204   0.641   3.854
    1   AR   Ar   74   0.522   1.014   4.575
    1   AR   Ar   75   3.396   0.390   5.198
    1   AR   Ar   76   2.224   0.391   1.259
    1   AR   Ar   77   2.215   0.094   5.607
    1   AR   Ar   78   6.650   5.209   6.276
    1   AR   Ar   79   3.113   6.904   6.049
    1   AR   Ar   80   3.458   5.364   4.997
    1   AR   Ar   81   1.256   6.795   1.404
    1   AR   Ar   82   6.256   4.451   0.716
    1   AR   Ar   83   0.582   2.950  -0.204
    1   AR   Ar   84   1.458   4.201   0.673
    1   AR   Ar   85   2.610   3.806  -0.099
    1   AR   Ar   86   2.108   5.464   1.026
    1   AR   Ar   87   3.116   3.223   2.535
    1   AR   Ar   88   3.315   5.579   1.745
    1   AR   Ar   89   6.591   1.980   0.830
    1   AR   Ar   90   3.511   1.688   5.394
    1   AR   Ar   91   1.798   2.127   3.109
    1   AR   Ar   92   1.623   3.549   2.064
    1   AR   Ar   93   1.877   1.160   6.155
    1   AR   Ar   94   1.360   6.487   9.461
    1   AR   Ar   95   4.409   1.293   5.168
    1   AR   Ar   96   2.608   7.047   4.585
    1   AR   Ar   97   3.856   2.300  -0.704
    1   AR   Ar   98   1.937   4.351   4.141
    1   AR   Ar   99   5.700   1.018  -0.646
    1   AR   Ar  100   0.238   3.324  -2.938
    1   AR   Ar  101   4.107   6.414   2.167
    1   AR   Ar  102   3.771   1.352   3.002
    1   AR   Ar  103   2.547   4.441   0.816
    1   AR   Ar  104   3.639   5.616  -1.316
    1   AR   Ar  105   2.650   1.658   3.677
    1   AR   Ar  106   3.575   2.664   5.478
    1   AR   Ar  107   1.247   5.150   5.420
    1   AR   Ar  108   2.382   1.069   4.609
    1   AR   Ar  109   1.790   3.858   5.062
    1   AR   Ar  110   2.774   2.107   4.679
    1   AR   Ar  111   4.430   6.257   7.917
    1   AR   Ar  112   0.111   6.454   6.020
    1   AR   Ar  113   3.035   4.899  -0.787
    1   AR   Ar  114   2.721   0.210  -1.276
    1   AR   Ar  115   1.856   4.752  -0.291
    1   AR   Ar  116   4.728   0.610   0.662
    1   AR   Ar  117   0.853   4.924   4.371
    1   AR   Ar  118   1.432   5.157   3.510
    1   AR   Ar  119   1.990   4.383   3.022
    1   AR   Ar  120   1.572   6.811   2.797
    1   AR   Ar  121   5.601   4.491   5.639
    1   AR   Ar  122   3.217   5.677   4.016
    1   AR   Ar  123   2.698   3.490   5.505
    1   AR   Ar  124   1.022   5.376   1.142
    1   AR   Ar  125   6.128   3.609   4.680
    1   AR   Ar  126   6.727   0.739   6.740
    1   AR   Ar  127   4.241   3.199   6.046
    1   AR   Ar  128   3.074   3.878   7.629
    1   AR   Ar  129   2.414   5.768   4.681
    1   AR   Ar  130   4.157   1.098  -4.472
    1   AR   Ar  131   4.387   5.077  -2.151
    1   AR   Ar  132   0.387   1.595   0.552
    1   AR   Ar  133   4.560   0.452   4.217
    1   AR   Ar  134   3.779   1.404   4.267
    1   AR   Ar  135   5.811   1.476   3.594
    1   AR   Ar  136   5.883   0.337   2.754
    1   AR   Ar  137   3.432   4.609   5.794
    1   AR   Ar  138   5.902   1.590   5.570
    1   AR   Ar  139   6.048   2.896   5.573
    1   AR   Ar  140   4.410   6.348   5.117
    1   AR   Ar  141   4.199   5.382   4.089
    1   AR   Ar  142   5.159   0.225   6.692
    1   AR   Ar  143   6.424   6.686   6.611
    1   AR   Ar  144   6.181   1.538   4.578
    1   AR   Ar  145   4.241   4.892  -0.512
    1   AR   Ar  146   3.886   2.414   3.066
    1   AR   Ar  147   5.407   3.447  -0.817
    1   AR   Ar  148   3.514   6.746  -1.405
    1   AR   Ar  149   2.397   0.411  -0.234
    1   AR   Ar  150   2.225   2.593   2.267
    1   AR   Ar  151   2.621   2.765   3.365
    1   AR   Ar  152   0.943   2.713  -2.348
    1   AR   Ar  153   5.434   0.518   3.593
    1   AR   Ar  154   4.755   1.815   4.416
    1   AR   Ar  155   6.273   3.791   6.096
    1   AR   Ar  156   2.839   4.458   3.706
    1   AR   Ar  157   1.890   5.295   6.787
    1   AR   Ar  158   0.627   1.517   5.818
    1   AR   Ar  159   4.103   0.373   6.220
    1   AR   Ar  160   1.510   1.731   5.141
    1   AR   Ar  161   4.618   4.439   3.525
    1   AR   Ar  162   4.305   5.955  -0.463
    1   AR   Ar  163   5.456   4.798   1.478
    1   AR   Ar  164   1.859   5.945   2.252
    1   AR   Ar  165   3.610   4.105   1.642
    1   AR   Ar  166   2.628   3.510   4.166
    1   AR   Ar  167   5.946   6.710   3.592
    1   AR   Ar  168   5.385   3.806  -1.897
    1   AR   Ar  169   3.570   3.441   3.462
    1   AR   Ar  170   1.603   3.313   6.180
    1   AR   Ar  171   5.866   4.827   4.545
    1   AR   Ar  172   3.856   3.807   5.171
    1   AR   Ar  173   2.513   2.052   5.716
    1   AR   Ar  174   3.335   6.427   4.865
    1   AR   Ar  175   2.950   0.931   5.947
    1   AR   Ar  176   3.720   2.499   4.482
    1   AR   Ar  177   0.866   4.692  -1.257
    1   AR   Ar  178   2.585   6.561   0.133
    1   AR   Ar  179   3.685   6.959   0.996
    1   AR   Ar  180   4.579   1.767  -6.763
    1   AR   Ar  181   0.148   5.170   1.733
    1   AR   Ar  182   0.678   6.119   2.134
    1   AR   Ar  183   4.876   5.591   1.685
    1   AR   Ar  184   4.504   6.751   0.118
    1   AR   Ar  185   2.728   4.639   4.729
    1   AR   Ar  186   2.787   5.505   3.155
    1   AR   Ar  187   3.517   6.526   3.512
    1   AR   Ar  188   2.336   7.078   2.256
    1   AR   Ar  189   5.127   3.649   6.489
    1   AR   Ar  190   2.456   6.628   3.338
    1   AR   Ar  191   3.636   6.825   6.848
    1   AR   Ar  192   4.755   4.887   6.046
    1   AR   Ar  193   2.501   6.403   1.350
    1   AR   Ar  194   5.562   4.972  -0.908
    1   AR   Ar  195   5.357   1.432   1.119
    1   AR   Ar  196   3.668   0.684  -0.336
    1   AR   Ar  197   4.491   2.234   0.948
    1   AR   Ar  198   5.646   0.349   1.747
    1   AR   Ar  199   1.510   0.640   3.492
    1   AR   Ar  200   5.241   3.172   0.200
    1   AR   Ar  201   6.670   6.575   2.419
    1   AR   Ar  202   5.314   0.948   4.787
    1   AR   Ar  203   0.624   6.575   3.213
    1   AR   Ar  204   4.786   6.164   6.531
    1   AR   Ar  205   5.927   2.082   1.787
    1   AR   Ar  206   5.764   0.629   5.960
    1   AR   Ar  207   0.308   3.000   4.810
    1   AR   Ar  208   1.085   6.100   4.551
    1   AR   Ar  209   6.978   2.253  -2.196
    1   AR   Ar  210   1.498   0.229   0.415
    1   AR   Ar  211   0.207   2.913   0.847
    1   AR   Ar  212   6.163   3.661  -0.132
    1   AR   Ar  213   3.837   1.945   1.731
    1   AR   Ar  214   4.986   4.084   2.156
    1   AR   Ar  215   6.752   2.585   2.173
    1   AR   Ar  216   1.108   2.387   1.177
    1   AR   Ar  217   4.738   1.636   3.183
    1   AR   Ar  218   4.876   2.989   4.537
    1   AR   Ar  219   5.068   3.233   3.185
    1   AR   Ar  220   4.563   3.431   1.203
    1   AR   Ar  221   6.813   6.077   4.128
    1   AR   Ar  222   4.979   0.018   5.742
    1   AR   Ar  223   6.790   1.736   6.238
    1   AR   Ar  224   4.828   2.385   5.547
    1   AR   Ar  225   6.323   3.045   3.302
    1   AR   Ar  226   1.725   3.165   3.031
    1   AR   Ar  227   0.700   3.176   2.303
    1   AR   Ar  228   6.353   1.146   1.722
    1   AR   Ar  229   6.646   4.463  -1.116
    1   AR   Ar  230   3.773   4.282   4.062
    1   AR   Ar  231   4.868   2.094   2.296
    1   AR   Ar  232   5.410   2.943   1.865
    1   AR   Ar  233   6.610   2.523   4.242
    1   AR   Ar  234   5.617   2.666   4.028
    1   AR   Ar  235   0.056   0.291   3.494
    1   AR   Ar  236   4.948   5.411   5.219
    1   AR   Ar  237   4.797   2.248   6.578
    1   AR   Ar  238   5.804   5.839   6.811
    1   AR   Ar  239   0.584   4.241  10.412
    1   AR   Ar  240   1.322   1.936   6.667
    1   AR   Ar  241   1.940   6.150  -0.901
    1   AR   Ar  242   5.930   6.339   1.532
    1   AR   Ar  243   5.238   6.202   2.923
    1   AR   Ar  244   0.430   5.276   0.254
    1   AR   Ar  245   3.932   0.388   3.138
    1   AR   Ar  246   5.310   6.554  -0.638
    1   AR   Ar  247   6.471   3.741   1.449
    1   AR   Ar  248   4.966   5.624   0.338
    1   AR   Ar  249   4.657   6.966   1.393
    1   AR   Ar  250   5.101   6.221   4.080
    1   AR   Ar  251   4.522   4.612   4.759
    1   AR   Ar  252   2.708   4.888   2.354
    1   AR   Ar  253   6.111   2.875   6.869
    1   AR   Ar  254   4.874   1.845  10.055
    1   AR   Ar  255   4.185   5.442   9.469
    1   AR   Ar  256   5.915   5.558   3.517
    7.12000  7.12000 12.00000
Argon-slab step 4620
  256
    1   AR   Ar    1   4.704   3.332  -2.882
    1   AR   Ar    2   5.454   7.015   0.683
    1   AR   Ar    3   4.081   3.310  -1.050
    1   AR   Ar    4   2.379   1.463   0.859
    1   AR   Ar    5   6.060   5.580  -0.243
    1   AR   Ar    6   1.688   1.796   1.788
    1   AR   Ar    7   6.192   4.221   3.464
    1   AR   Ar    8   6.051   2.528  -1.127
    1   AR   Ar    9   0.412   6.800   4.298
    1   AR   Ar   10   6.344   6.566   4.927
    1   AR   Ar   11   1.325   0.294   4.847
    1   AR   Ar   12   7.040   1.465   3.687
    1   AR   Ar   13   6.662   0.597   4.487
    1   AR   Ar   14   4.168   1.388   6.228
    1   AR   Ar   15   3.376   6.964   9.063
    1   AR   Ar   16   0.294   0.445   5.973
    1   AR   Ar   17   6.327   3.085   0.721
    1   AR   Ar   18   6.444   5.371  -1.467
    1   AR   Ar   19   5.051   4.475   0.228
    1   AR   Ar   20   6.751   4.224  -2.842
    1   AR   Ar   21   2.929   1.872   2.699
    1   AR   Ar   22   5.414   1.267   2.230
    1   AR   Ar   23   0.218   6.402   1.118
    1   AR   Ar   24   5.566   2.302   3.077
    1   AR   Ar   25   0.638   2.199   3.847
    1   AR   Ar   26   5.383   7.010   4.759
    1   AR   Ar   27   1.720   0.864   2.345
    1   AR   Ar   28   1.877   2.476   4.177
    1   AR   Ar   29   4.874   1.253   7.307
    1   AR   Ar   30   0.772   1.117   2.991
    1   AR   Ar   31   4.036   0.311   7.471
    1   AR   Ar   32   0.978   2.579   5.621
    1   AR   Ar   33   0.822   4.159  -0.188
    1   AR   Ar   34   0.910   4.884   2.647
    1   AR   Ar   35   5.709   5.027   2.446
    1   AR   Ar   36   5.953   2.876  -2.633
    1   AR   Ar   37   4.035   3.050   2.074
    1   AR   Ar   38   0.039   4.278   4.162
    1   AR   Ar   39   0.169   3.050   3.320
    1   AR   Ar   40   1.903   4.587   1.711
    1   AR   Ar   41   0.415   2.245   2.794
    1   AR   Ar   42   5.640   6.147   5.750
    1   AR   Ar   43   6.954   2.819   6.138
    1   AR   Ar   44   0.906   3.783   3.431
    1   AR   Ar   45   0.256   3.683   5.661
    1   AR   Ar   46   0.599   4.647   6.397
    1   AR   Ar   47   3.892   4.997   7.654
    1   AR   Ar   48   6.144   3.635   7.657
    1   AR   Ar   49   6.745   7.051  -0.681
    1   AR   Ar   50   3.450   5.339   0.498
    1   AR   Ar   51   5.844   3.634   2.649
    1   AR   Ar   52   5.068   2.723  -1.564
    1   AR   Ar   53   4.885   7.092   2.372
    1   AR   Ar   54   0.389   0.471   2.280
    1   AR   Ar   55   7.119   4.208   2.893
    1   AR   Ar   56   6.414   1.333   2.654
    1   AR   Ar   57   3.907   4.076   2.765
    1   AR   Ar   58   0.811   3.796   4.669
    1   AR   Ar   59   2.692   5.895   5.822
    1   AR   Ar   60   7.086   5.231   3.424
    1   AR   Ar   61   0.085   3.589   7.033
    1   AR   Ar   62   6.891   4.530   5.367
    1   AR   Ar   63   2.506   2.522   7.124
    1   AR   Ar   64   0.250   5.564   5.211
    1   AR   Ar   65   3.722   0.410   1.974
    1   AR   Ar   66   1.329   1.147   1.198
    1   AR   Ar   67   4.724   0.474  -0.501
    1   AR   Ar   68   0.993   0.939  -0.314
    1   AR   Ar   69   3.106   1.578   0.198
    1   AR   Ar   70   0.458   1.563   1.675
    1   AR   Ar   71   2.765   0.839   2.791
    1   AR   Ar   72   4.600   1.079   1.650
    1   AR   Ar   73   3.232   0.627   3.878
    1   AR   Ar   74   0.501   0.997   4.550
    1   AR   Ar   75   3.421   0.402   5.194
    1   AR   Ar   76   2.219   0.361   1.212
    1   AR   Ar   77   2.208   0.109   5.581
    1   AR   Ar   78   6.646   5.189   6.255
    1   AR   Ar   79   3.125   6.931   6.064
    1   AR   Ar   80   3.442   5.337   5.017
    1   AR   Ar   81   1.279   6.780   1.389
    1   AR   Ar   82   6.252   4.469   0.721
    1   AR   Ar   83   0.596   2.963  -0.191
    1   AR   Ar   84   1.439   4.224   0.638
    1   AR   Ar   85   2.568   3.802  -0.094
    1   AR   Ar   86   2.121   5.455   1.023
    1   AR   Ar   87   3.123   3.205   2.557
    1   AR   Ar   88   3.345   5.565   1.763
    1   AR   Ar   89   6.586   1.930   0.858
    1   AR   Ar   90   3.519   1.688   5.414
    1   AR   Ar   91   1.832   2.103   3.090
    1   AR   Ar   92   1.633   3.546   2.041
    1   AR   Ar   93   1.894   1.154   6.145
    1   AR   Ar   94   1.372   6.486   9.504
    1   AR   Ar   95   4.408   1.276   5.184
    1   AR   Ar   96   2.561   7.036   4.616
    1   AR   Ar   97   3.869   2.286  -0.692
    1   AR   Ar   98   1.971   4.358   4.113
    1   AR   Ar   99   5.693   1.005  -0.655
    1   AR   Ar  100   0.245   3.327  -2.933
    1   AR   Ar  101   4.097   6.442   2.172
    1   AR   Ar  102   3.721   1.365   2.989
    1   AR   Ar  103   2.547   4.440   0.834
    1   AR   Ar  104   3.648   5.601  -1.338
    1   AR   Ar  105   2.655   1.654   3.700
    1   AR   Ar  106   3.547   2.668   5.430
    1   AR   Ar  107   1.212   5.176   5.441
    1   AR   Ar  108   2.405   1.084   4.613
    1   AR   Ar  109   1.825   3.862   5.113
    1   AR   Ar  110   2.727   2.106   4.693
    1   AR   Ar  111   4.431   6.258   7.939
    1   AR   Ar  112   0.104   6.414   5.977
    1   AR   Ar  113   3.011   4.934  -0.796
    1   AR   Ar  114   2.718   0.199  -1.259
    1   AR   Ar  115   1.877   4.755  -0.291
    1   AR   Ar  116   4.729   0.580   0.693
    1   AR   Ar  117   0.853   4.921   4.366
    1   AR   Ar  118   1.405   5.188   3.523
    1   AR   Ar  119   1.988   4.372   3.023
    1   AR   Ar  120   1.581   6.792   2.792
    1   AR   Ar  121   5.624   4.493   5.658
    1   AR   Ar  122   3.186   5.668   4.002
    1   AR   Ar  123   2.687   3.465   5.505
    1   AR   Ar  124   1.038   5.400   1.183
    1   AR   Ar  125   6.121   3.617   4.694
    1   AR   Ar  126   6.743   0.713   6.755
    1   AR   Ar  127   4.212   3.190   6.041
    1   AR   Ar  128   3.073   3.949   7.620
    1   AR   Ar  129   2.433   5.756   4.655
    1   AR   Ar  130   4.134   1.105  -4.470
    1   AR   Ar  131   4.393   5.065  -2.136
    1   AR   Ar  132   0.401   1.579   0.558
    1   AR   Ar  133   4.545   0.425   4.201
    1   AR   Ar  134   3.782   1.411   4.300
    1   AR   Ar  135   5.817   1.458   3.580
    1   AR   Ar  136   5.874   0.351   2.745
    1   AR   Ar  137   3.451   4.599   5.771
    1   AR   Ar  138   5.922   1.576   5.580
    1   AR   Ar  139   6.057   2.895   5.591
    1   AR   Ar  140   4.404   6.329   5.097
    1   AR   Ar  141   4.210   5.385   4.102
    1   AR   Ar  142   5.153   0.249   6.733
    1   AR   Ar  143   6.418   6.713   6.627
    1   AR   Ar  144   6.175   1.543   4.567
    1   AR   Ar  145   4.262   4.881  -0.519
    1   AR   Ar  146   3.908   2.382   3.102
    1   AR   Ar  147   5.421   3.450  -0.816
    1   AR   Ar  148   3.487   6.716  -1.403
    1   AR   Ar  149   2.401   0.459  -0.202
    1   AR   Ar  150   2.237   2.608   2.261
    1   AR   Ar  151   2.620   2.802   3.371
    1   AR   Ar  152   0.946   2.714  -2.372
    1   AR   Ar  153   5.452   0.544   3.587
    1   AR   Ar  154   4.744   1.800   4.406
    1   AR   Ar  155   6.270   3.786   6.088
    1   AR   Ar  156   2.809   4.463   3.723
    1   AR   Ar  157   1.902   5.314   6.785
    1   AR   Ar  158   0.638   1.516   5.830
    1   AR   Ar  159   4.151   0.365   6.217
    1   AR   Ar  160   1.502   1.686   5.167
    1   AR   Ar  161   4.621   4.421   3.493
    1   AR   Ar  162   4.320   5.953  -0.472
    1   AR   Ar  163   5.462   4.778   1.461
    1   AR   Ar  164   1.852   5.938   2.263
    1   AR   Ar  165   3.606   4.099   1.627
    1   AR   Ar  166   2.627   3.537   4.185
    1   AR   Ar  167   5.979   6.724   3.623
    1   AR   Ar  168   5.402   3.817  -1.908
    1   AR   Ar  169   3.571   3.437   3.440
    1   AR   Ar  170   1.559   3.340   6.190
    1   AR   Ar  171   5.862   4.807   4.546
    1   AR   Ar  172   3.847   3.786   5.159
    1   AR   Ar  173   2.522   2.059   5.707
    1   AR   Ar  174   3.366   6.446   4.859
    1   AR   Ar  175   2.953   0.933   5.934
    1   AR   Ar  176   3.753   2.505   4.486
    1   AR   Ar  177   0.850   4.674  -1.243
    1   AR   Ar  178   2.576   6.593   0.120
    1   AR   Ar  179   3.658   6.960   1.004
    1   AR   Ar  180   4.570   1.767  -6.796
    1   AR   Ar  181   0.140   5.169   1.712
    1   AR   Ar  182   0.698   6.117   2.143
    1   AR   Ar  183   4.879   5.561   1.677
    1   AR   Ar  184   4.505   6.718   0.149
    1   AR   Ar  185   2.724   4.673   4.753
    1   AR   Ar  186   2.798   5.504   3.136
    1   AR   Ar  187   3.517   6.532   3.497
    1   AR   Ar  188   2.349   7.101   2.262
    1   AR   Ar  189   5.129   3.623   6.483
    1   AR   Ar  190   2.442   6.618   3.338
    1   AR   Ar  191   3.620   6.812   6.852
    1   AR   Ar  192   4.744   4.884   6.042
    1   AR   Ar  193   2.482   6.432   1.354
    1   AR   Ar  194   5.567   4.976  -0.921
    1   AR   Ar  195   5.326   1.426   1.138
    1   AR   Ar  196   3.644   0.705  -0.336
    1   AR   Ar  197   4.518   2.228   0.970
    1   AR   Ar  198   5.651   0.334   1.745
    1   AR   Ar  199   1.547   0.637   3.509
    1   AR   Ar  200   5.251   3.197   0.189
    1   AR   Ar  201   6.676   6.577   2.435
    1   AR   Ar  202   5.312   1.001   4.781
    1   AR   Ar  203   0.609   6.578   3.212
    1   AR   Ar  204   4.769   6.181   6.544
    1   AR   Ar  205   5.895   2.081   1.762
    1   AR   Ar  206   5.787   0.644   5.951
    1   AR   Ar  207   0.287   3.014   4.815
    1   AR   Ar  208   1.119   6.103   4.551
    1   AR   Ar  209   6.974   2.267  -2.187
    1   AR   Ar  210   1.511   0.260   0.404
    1   AR   Ar  211   0.182   2.876   0.853
    1   AR   Ar  212   6.181   3.643  -0.140
    1   AR   Ar  213   3.828   1.947   1.744
    1   AR   Ar  214   4.976   4.054   2.169
    1   AR   Ar  215   6.752   2.571   2.168
    1   AR   Ar  216   1.098   2.363   1.170
    1   AR   Ar  217   4.737   1.648   3.194
    1   AR   Ar  218   4.907   2.986   4.515
    1   AR   Ar  219   5.080   3.237   3.196
    1   AR   Ar  220   4.581   3.420   1.203
    1   AR   Ar  221   6.837   6.073   4.094
    1   AR   Ar  222   4.969   0.016   5.732
    1   AR   Ar  223   6.791   1.739   6.239
    1   AR   Ar  224   4.816   2.407   5.563
    1   AR   Ar  225   6.310   3.037   3.317
    1   AR   Ar  226   1.743   3.137   3.037
    1   AR   Ar  227   0.691   3.171   2.298
    1   AR   Ar  228   6.373   1.162   1.715
    1   AR   Ar  229   6.662   4.458  -1.119
    1   AR   Ar  230   3.762   4.281   4.064
    1   AR   Ar  231   4.849   2.105   2.298
    1   AR   Ar  232   5.387   2.968   1.874
    1   AR   Ar  233   6.627   2.508   4.254
    1   AR   Ar  234   5.620   2.705   4.028
    1   AR   Ar  235   0.067   0.306   3.509
    1   AR   Ar  236   4.942   5.403   5.220
    1   AR   Ar  237   4.790   2.240   6.573
    1   AR   Ar  238   5.806   5.850   6.844
    1   AR   Ar  239   0.587   4.240  10.413
    1   AR   Ar  240   1.352   1.920   6.659
    1   AR   Ar  241   1.925   6.135  -0.871
    1   AR   Ar  242   5.957   6.317   1.545
    1   AR   Ar  243   5.254   6.226   2.920
    1   AR   Ar  244   0.414   5.264   0.247
    1   AR   Ar  245   3.913   0.414   3.176
    1   AR   Ar  246   5.289   6.534  -0.635
    1   AR   Ar  247   6.472   3.749   1.439
    1   AR   Ar  248   4.965   5.604   0.318
    1   AR   Ar  249   4.701   6.950   1.406
    1   AR   Ar  250   5.116   6.216   4.053
    1   AR   Ar  251   4.553   4.621   4.787
    1   AR   Ar  252   2.685   4.895   2.381
    1   AR   Ar  253   6.102   2.876   6.871
    1   AR   Ar  254   4.885   1.869  10.037
    1   AR   Ar  255   4.219   5.425   9.444
    1   AR   Ar  256   5.936   5.583   3.510
    7.12000  7.12000 12.00000
Argon-slab step 4625
  256
    1   AR   Ar    1   4.711   3.321  -2.888
    1   AR   Ar    2   5.478   7.013   0.665
    1   AR   Ar    3   4.083   3.312  -1.067
    1   AR   Ar    4   2.389   1.459   0.910
    1   AR   Ar    5   6.065   5.576  -0.233
    1   AR   Ar    6   1.666   1.789   1.758
    1   AR   Ar    7   6.168   4.214   3.455
    1   AR   Ar    8   6.086   2.529  -1.155
    1   AR   Ar    9   0.370   6.814   4.316
    1   AR   Ar   10   6.333   6.538   4.969
    1   AR   Ar   11   1.342   0.297   4.842
    1   AR   Ar   12   7.018   1.446   3.661
    1   AR   Ar   13   6.672   0.605   4.446
    1   AR   Ar   14   4.150   1.386   6.244
    1   AR   Ar   15   3.365   6.952   9.057
    1   AR   Ar   16   0.310   0.469   5.980
    1   AR   Ar   17   6.331   3.064   0.725
    1   AR   Ar   18   6.476   5.377  -1.454
    1   AR   Ar   19   5.048   4.488   0.198
    1   AR   Ar   20   6.738   4.220  -2.856
    1   AR   Ar   21   2.929   1.852   2.681
    1   AR   Ar   22   5.442   1.249   2.275
    1   AR   Ar   23   0.254   6.394   1.116
    1   AR   Ar   24   5.591   2.305   3.067
    1   AR   Ar   25   0.659   2.208   3.847
    1   AR   Ar   26   5.403   6.987   4.800
    1   AR   Ar   27   1.699   0.841   2.357
    1   AR   Ar   28   1.890   2.467   4.148
    1   AR   Ar   29   4.840   1.255   7.304
    1   AR   Ar   30   0.796   1.119   2.956
    1   AR   Ar   31   3.999   0.352   7.471
    1   AR   Ar   32   0.993   2.559   5.618
    1   AR   Ar   33   0.800   4.157  -0.208
    1   AR   Ar   34   0.926   4.902   2.664
    1   AR   Ar   35   5.725   5.065   2.469
    1   AR   Ar   36   5.934   2.852  -2.615
    1   AR   Ar   37   4.026   3.048   2.046
    1   AR   Ar   38   0.047   4.279   4.176
    1   AR   Ar   39   0.175   3.098   3.352
    1   AR   Ar   40   1.888   4.563   1.710
    1   AR   Ar   41   0.414   2.247   2.796
    1   AR   Ar   42   5.614   6.163   5.791
    1   AR   Ar   43   6.968   2.776   6.141
    1   AR   Ar   44   0.897   3.762   3.394
    1   AR   Ar   45   0.289   3.685   5.657
    1   AR   Ar   46   0.578   4.650   6.371
    1   AR   Ar   47   3.879   4.931   7.664
    1   AR   Ar   48   6.162   3.641   7.662
    1   AR   Ar   49   6.743   7.042  -0.676
    1   AR   Ar   50   3.468   5.360   0.518
    1   AR   Ar   51   5.870   3.601   2.625
    1   AR   Ar   52   5.086   2.716  -1.573
    1   AR   Ar   53   4.871   7.088   2.353
    1   AR   Ar   54   0.396   0.463   2.309
    1   AR   Ar   55   0.002   4.212   2.896
    1   AR   Ar   56   6.388   1.340   2.706
    1   AR   Ar   57   3.916   4.084   2.800
    1   AR   Ar   58   0.826   3.781   4.677
    1   AR   Ar   59   2.722   5.884   5.817
    1   AR   Ar   60   7.093   5.219   3.423
    1   AR   Ar   61   0.099   3.574   7.004
    1   AR   Ar   62   6.869   4.526   5.375
    1   AR   Ar   63   2.522   2.521   7.106
    1   AR   Ar   64   0.276   5.567   5.205
    1   AR   Ar   65   3.726   0.432   1.989
    1   AR   Ar   66   1.354   1.137   1.191
    1   AR   Ar   67   4.703   0.485  -0.527
    1   AR   Ar   68   0.965   0.934  -0.305
    1   AR   Ar   69   3.118   1.572   0.164
    1   AR   Ar   70   0.438   1.570   1.646
    1   AR   Ar   71   2.699   0.821   2.801
    1   AR   Ar   72   4.573   1.083   1.669
    1   AR   Ar   73   3.238   0.629   3.903
    1   AR   Ar   74   0.485   0.982   4.524
    1   AR   Ar   75   3.439   0.417   5.181
    1   AR   Ar   76   2.214   0.333   1.166
    1   AR   Ar   77   2.198   0.127   5.558
    1   AR   Ar   78   6.642   5.168   6.232
    1   AR   Ar   79   3.125   6.960   6.057
    1   AR   Ar   80   3.433   5.318   5.037
    1   AR   Ar   81   1.303   6.766   1.375
    1   AR   Ar   82   6.246   4.488   0.722
    1   AR   Ar   83   0.610   2.976  -0.176
    1   AR   Ar   84   1.424   4.248   0.609
    1   AR   Ar   85   2.525   3.801  -0.089
    1   AR   Ar   86   2.134   5.446   1.019
    1   AR   Ar   87   3.127   3.188   2.572
    1   AR   Ar   88   3.374   5.552   1.779
    1   AR   Ar   89   6.577   1.882   0.889
    1   AR   Ar   90   3.526   1.693   5.409
    1   AR   Ar   91   1.863   2.071   3.072
    1   AR   Ar   92   1.643   3.556   2.028
    1   AR   Ar   93   1.911   1.148   6.131
    1   AR   Ar   94   1.369   6.482   9.515
    1   AR   Ar   95   4.408   1.251   5.208
    1   AR   Ar   96   2.511   7.029   4.641
    1   AR   Ar   97   3.882   2.271  -0.679
    1   AR   Ar   98   1.967   4.362   4.098
    1   AR   Ar   99   5.686   0.991  -0.664
    1   AR   Ar  100   0.251   3.328  -2.929
    1   AR   Ar  101   4.087   6.438   2.176
    1   AR   Ar  102   3.676   1.378   2.978
    1   AR   Ar  103   2.547   4.439   0.852
    1   AR   Ar  104   3.660   5.586  -1.361
    1   AR   Ar  105   2.661   1.649   3.724
    1   AR   Ar  106   3.514   2.686   5.393
    1   AR   Ar  107   1.179   5.200   5.462
    1   AR   Ar  108   2.428   1.095   4.619
    1   AR   Ar  109   1.856   3.868   5.162
    1   AR   Ar  110   2.684   2.106   4.706
    1   AR   Ar  111   4.432   6.260   7.959
    1   AR   Ar  112   0.096   6.373   5.932
    1   AR   Ar  113   2.985   4.955  -0.816
    1   AR   Ar  114   2.705   0.195  -1.239
    1   AR   Ar  115   1.899   4.758  -0.289
    1   AR   Ar  116   4.723   0.558   0.719
    1   AR   Ar  117   0.849   4.903   4.343
    1   AR   Ar  118   1.382   5.222   3.536
    1   AR   Ar  119   1.984   4.359   3.022
    1   AR   Ar  120   1.576   6.776   2.793
    1   AR   Ar  121   5.649   4.495   5.673
    1   AR   Ar  122   3.166   5.659   3.999
    1   AR   Ar  123   2.683   3.438   5.505
    1   AR   Ar  124   1.056   5.425   1.224
    1   AR   Ar  125   6.115   3.625   4.708
    1   AR   Ar  126   6.756   0.687   6.771
    1   AR   Ar  127   4.186   3.180   6.042
    1   AR   Ar  128   3.072   4.020   7.611
    1   AR   Ar  129   2.445   5.745   4.636
    1   AR   Ar  130   4.112   1.112  -4.468
    1   AR   Ar  131   4.387   5.043  -2.120
    1   AR   Ar  132   0.399   1.581   0.600
    1   AR   Ar  133   4.542   0.413   4.195
    1   AR   Ar  134   3.781   1.420   4.332
    1   AR   Ar  135   5.828   1.446   3.567
    1   AR   Ar  136   5.874   0.363   2.726
    1   AR   Ar  137   3.470   4.587   5.750
    1   AR   Ar  138   5.940   1.571   5.590
    1   AR   Ar  139   6.069   2.874   5.609
    1   AR   Ar  140   4.400   6.311   5.076
    1   AR   Ar  141   4.223   5.389   4.115
    1   AR   Ar  142   5.147   0.273   6.780
    1   AR   Ar  143   6.410   6.742   6.642
    1   AR   Ar  144   6.173   1.551   4.554
    1   AR   Ar  145   4.284   4.870  -0.526
    1   AR   Ar  146   3.930   2.355   3.139
    1   AR   Ar  147   5.432   3.455  -0.820
    1   AR   Ar  148   3.469   6.679  -1.402
    1   AR   Ar  149   2.407   0.511  -0.171
    1   AR   Ar  150   2.250   2.625   2.251
    1   AR   Ar  151   2.628   2.833   3.382
    1   AR   Ar  152   0.953   2.711  -2.381
    1   AR   Ar  153   5.456   0.563   3.598
    1   AR   Ar  154   4.738   1.795   4.387
    1   AR   Ar  155   6.270   3.780   6.083
    1   AR   Ar  156   2.785   4.475   3.738
    1   AR   Ar  157   1.915   5.334   6.782
    1   AR   Ar  158   0.643   1.519   5.834
    1   AR   Ar  159   4.192   0.355   6.215
    1   AR   Ar  160   1.512   1.667   5.188
    1   AR   Ar  161   4.630   4.405   3.461
    1   AR   Ar  162   4.331   5.946  -0.489
    1   AR   Ar  163   5.473   4.749   1.437
    1   AR   Ar  164   1.847   5.926   2.270
    1   AR   Ar  165   3.596   4.094   1.616
    1   AR   Ar  166   2.628   3.560   4.208
    1   AR   Ar  167   6.016   6.736   3.654
    1   AR   Ar  168   5.419   3.827  -1.919
    1   AR   Ar  169   3.569   3.426   3.432
    1   AR   Ar  170   1.515   3.368   6.199
    1   AR   Ar  171   5.858   4.786   4.547
    1   AR   Ar  172   3.837   3.763   5.145
    1   AR   Ar  173   2.530   2.065   5.703
    1   AR   Ar  174   3.398   6.463   4.853
    1   AR   Ar  175   2.955   0.938   5.925
    1   AR   Ar  176   3.790   2.508   4.476
    1   AR   Ar  177   0.834   4.656  -1.228
    1   AR   Ar  178   2.571   6.616   0.113
    1   AR   Ar  179   3.631   6.961   1.012
    1   AR   Ar  180   4.561   1.766  -6.829
    1   AR   Ar  181   0.131   5.168   1.693
    1   AR   Ar  182   0.718   6.115   2.152
    1   AR   Ar  183   4.878   5.540   1.671
    1   AR   Ar  184   4.506   6.690   0.187
    1   AR   Ar  185   2.719   4.703   4.779
    1   AR   Ar  186   2.802   5.509   3.113
    1   AR   Ar  187   3.518   6.539   3.482
    1   AR   Ar  188   2.373   0.005   2.260
    1   AR   Ar  189   5.133   3.596   6.476
    1   AR   Ar  190   2.432   6.608   3.339
    1   AR   Ar  191   3.612   6.783   6.869
    1   AR   Ar  192   4.726   4.878   6.047
    1   AR   Ar  193   2.463   6.460   1.359
    1   AR   Ar  194   5.568   4.977  -0.935
    1   AR   Ar  195   5.311   1.427   1.145
    1   AR   Ar  196   3.620   0.726  -0.335
    1   AR   Ar  197   4.546   2.224   0.993
    1   AR   Ar  198   5.655   0.318   1.735
    1   AR   Ar  199   1.587   0.631   3.527
    1   AR   Ar  200   5.260   3.223   0.183
    1   AR   Ar  201   6.683   6.580   2.451
    1   AR   Ar  202   5.314   1.049   4.774
    1   AR   Ar  203   0.593   6.577   3.210
    1   AR   Ar  204   4.753   6.175   6.569
    1   AR   Ar  205   5.863   2.081   1.737
    1   AR   Ar  206   5.812   0.654   5.943
    1   AR   Ar  207   0.254   3.009   4.822
    1   AR   Ar  208   1.158   6.100   4.553
    1   AR   Ar  209   6.970   2.283  -2.178
    1   AR   Ar  210   1.524   0.291   0.395
    1   AR   Ar  211   0.163   2.836   0.860
    1   AR   Ar  212   6.202   3.630  -0.149
    1   AR   Ar  213   3.818   1.949   1.760
    1   AR   Ar  214   4.965   4.023   2.183
    1   AR   Ar  215   6.752   2.561   2.164
    1   AR   Ar  216   1.085   2.341   1.160
    1   AR   Ar  217   4.736   1.653   3.212
    1   AR   Ar  218   4.903   2.997   4.518
    1   AR   Ar  219   5.083   3.242   3.209
    1   AR   Ar  220   4.570   3.417   1.183
    1   AR   Ar  221   6.857   6.064   4.058
    1   AR   Ar  222   4.960   0.008   5.715
    1   AR   Ar  223   6.791   1.740   6.240
    1   AR   Ar  224   4.805   2.429   5.571
    1   AR   Ar  225   6.291   3.028   3.334
    1   AR   Ar  226   1.728   3.126   3.045
    1   AR   Ar  227   0.678   3.165   2.295
    1   AR   Ar  228   6.384   1.164   1.688
    1   AR   Ar  229   6.679   4.444  -1.119
    1   AR   Ar  230   3.751   4.281   4.071
    1   AR   Ar  231   4.824   2.126   2.291
    1   AR   Ar  232   5.361   2.997   1.885
    1   AR   Ar  233   6.646   2.490   4.265
    1   AR   Ar  234   5.651   2.730   4.012
    1   AR   Ar  235   0.074   0.327   3.523
    1   AR   Ar  236   4.946   5.411   5.218
    1   AR   Ar  237   4.784   2.232   6.573
    1   AR   Ar  238   5.806   5.860   6.875
    1   AR   Ar  239   0.591   4.239  10.415
    1   AR   Ar  240   1.380   1.907   6.651
    1   AR   Ar  241   1.910   6.120  -0.840
    1   AR   Ar  242   5.976   6.300   1.551
    1   AR   Ar  243   5.251   6.211   2.907
    1   AR   Ar  244   0.398   5.252   0.240
    1   AR   Ar  245   3.904   0.427   3.210
    1   AR   Ar  246   5.268   6.513  -0.630
    1   AR   Ar  247   6.476   3.759   1.442
    1   AR   Ar  248   4.965   5.583   0.298
    1   AR   Ar  249   4.742   6.930   1.415
    1   AR   Ar  250   5.130   6.210   4.027
    1   AR   Ar  251   4.580   4.618   4.811
    1   AR   Ar  252   2.662   4.894   2.397
    1   AR   Ar  253   6.093   2.877   6.870
    1   AR   Ar  254   4.895   1.892  10.019
    1   AR   Ar  255   4.254   5.409   9.419
    1   AR   Ar  256   5.958   5.606   3.504
    7.12000  7.12000 12.00000
Argon-slab step 4630
  256
    1   AR   Ar    1   4.719   3.309  -2.892
    1   AR   Ar    2   5.510   7.005   0.644
    1   AR   Ar    3   4.087   3.315  -1.084
    1   AR   Ar    4   2.396   1.453   0.964
    1   AR   Ar    5   6.070   5.573  -0.221
    1   AR   Ar    6   1.661   1.803   1.757
    1   AR   Ar    7   6.144   4.209   3.449
    1   AR   Ar    8   6.121   2.531  -1.182
    1   AR   Ar    9   0.331   6.833   4.338
    1   AR   Ar   10   6.326   6.508   5.012
    1   AR   Ar   11   1.287   0.320   4.833
    1   AR   Ar   12   6.995   1.427   3.634
    1   AR   Ar   13   6.673   0.608   4.405
    1   AR   Ar   14   4.133   1.388   6.262
    1   AR   Ar   15   3.353   6.940   9.050
    1   AR   Ar   16   0.327   0.491   5.984
    1   AR   Ar   17   6.322   3.037   0.726
    1   AR   Ar   18   6.507   5.390  -1.444
    1   AR   Ar   19   5.048   4.501   0.169
    1   AR   Ar   20   6.725   4.217  -2.870
    1   AR   Ar   21   2.906   1.851   2.653
    1   AR   Ar   22   5.467   1.230   2.323
    1   AR   Ar   23   0.290   6.384   1.114
    1   AR   Ar   24   5.614   2.307   3.047
    1   AR   Ar   25   0.655   2.196   3.824
    1   AR   Ar   26   5.395   6.972   4.796
    1   AR   Ar   27   1.723   0.843   2.395
    1   AR   Ar   28   1.900   2.459   4.117
    1   AR   Ar   29   4.804   1.255   7.298
    1   AR   Ar   30   0.820   1.128   2.927
    1   AR   Ar   31   3.968   0.400   7.477
    1   AR   Ar   32   1.012   2.530   5.622
    1   AR   Ar   33   0.776   4.155  -0.231
    1   AR   Ar   34   0.940   4.918   2.676
    1   AR   Ar   35   5.741   5.103   2.495
    1   AR   Ar   36   5.915   2.828  -2.596
    1   AR   Ar   37   4.021   3.046   2.018
    1   AR   Ar   38   0.047   4.277   4.187
    1   AR   Ar   39   0.178   3.142   3.386
    1   AR   Ar   40   1.871   4.541   1.708
    1   AR   Ar   41   0.419   2.236   2.803
    1   AR   Ar   42   5.587   6.179   5.831
    1   AR   Ar   43   6.986   2.737   6.146
    1   AR   Ar   44   0.897   3.753   3.358
    1   AR   Ar   45   0.323   3.685   5.657
    1   AR   Ar   46   0.557   4.653   6.343
    1   AR   Ar   47   3.865   4.865   7.674
    1   AR   Ar   48   6.169   3.632   7.662
    1   AR   Ar   49   6.740   7.033  -0.671
    1   AR   Ar   50   3.485   5.381   0.539
    1   AR   Ar   51   5.897   3.573   2.592
    1   AR   Ar   52   5.103   2.709  -1.582
    1   AR   Ar   53   4.860   7.092   2.355
    1   AR   Ar   54   0.400   0.450   2.334
    1   AR   Ar   55   0.006   4.215   2.899
    1   AR   Ar   56   6.369   1.350   2.760
    1   AR   Ar   57   3.925   4.098   2.821
    1   AR   Ar   58   0.853   3.779   4.684
    1   AR   Ar   59   2.755   5.875   5.812
    1   AR   Ar   60   7.101   5.205   3.422
    1   AR   Ar   61   0.112   3.553   6.977
    1   AR   Ar   62   6.845   4.524   5.379
    1   AR   Ar   63   2.537   2.521   7.088
    1   AR   Ar   64   0.294   5.572   5.194
    1   AR   Ar   65   3.731   0.454   2.007
    1   AR   Ar   66   1.366   1.101   1.161
    1   AR   Ar   67   4.681   0.494  -0.552
    1   AR   Ar   68   0.937   0.930  -0.295
    1   AR   Ar   69   3.134   1.567   0.128
    1   AR   Ar   70   0.417   1.577   1.624
    1   AR   Ar   71   2.637   0.805   2.816
    1   AR   Ar   72   4.561   1.093   1.668
    1   AR   Ar   73   3.224   0.622   3.879
    1   AR   Ar   74   0.476   0.970   4.498
    1   AR   Ar   75   3.444   0.435   5.156
    1   AR   Ar   76   2.210   0.310   1.124
    1   AR   Ar   77   2.186   0.148   5.542
    1   AR   Ar   78   6.637   5.149   6.209
    1   AR   Ar   79   3.117   6.991   6.033
    1   AR   Ar   80   3.436   5.312   5.055
    1   AR   Ar   81   1.329   6.751   1.362
    1   AR   Ar   82   6.239   4.509   0.718
    1   AR   Ar   83   0.624   2.990  -0.161
    1   AR   Ar   84   1.431   4.236   0.615
    1   AR   Ar   85   2.482   3.801  -0.084
    1   AR   Ar   86   2.148   5.437   1.017
    1   AR   Ar   87   3.123   3.196   2.546
    1   AR   Ar   88   3.403   5.540   1.795
    1   AR   Ar   89   6.567   1.846   0.914
    1   AR   Ar   90   3.526   1.692   5.403
    1   AR   Ar   91   1.893   2.034   3.055
    1   AR   Ar   92   1.648   3.582   2.031
    1   AR   Ar   93   1.928   1.140   6.115
    1   AR   Ar   94   1.361   6.471   9.514
    1   AR   Ar   95   4.409   1.219   5.236
    1   AR   Ar   96   2.518   7.034   4.635
    1   AR   Ar   97   3.895   2.256  -0.666
    1   AR   Ar   98   1.914   4.362   4.102
    1   AR   Ar   99   5.680   0.976  -0.673
    1   AR   Ar  100   0.256   3.329  -2.925
    1   AR   Ar  101   4.073   6.431   2.179
    1   AR   Ar  102   3.651   1.378   2.974
    1   AR   Ar  103   2.549   4.439   0.868
    1   AR   Ar  104   3.674   5.571  -1.383
    1   AR   Ar  105   2.669   1.644   3.745
    1   AR   Ar  106   3.509   2.722   5.381
    1   AR   Ar  107   1.153   5.221   5.483
    1   AR   Ar  108   2.450   1.100   4.628
    1   AR   Ar  109   1.879   3.879   5.205
    1   AR   Ar  110   2.649   2.108   4.715
    1   AR   Ar  111   4.432   6.262   7.979
    1   AR   Ar  112   0.088   6.333   5.886
    1   AR   Ar  113   2.955   4.956  -0.853
    1   AR   Ar  114   2.686   0.195  -1.216
    1   AR   Ar  115   1.920   4.760  -0.287
    1   AR   Ar  116   4.711   0.546   0.741
    1   AR   Ar  117   0.845   4.886   4.325
    1   AR   Ar  118   1.365   5.258   3.548
    1   AR   Ar  119   1.989   4.334   3.018
    1   AR   Ar  120   1.564   6.768   2.792
    1   AR   Ar  121   5.673   4.500   5.683
    1   AR   Ar  122   3.163   5.650   4.001
    1   AR   Ar  123   2.688   3.406   5.508
    1   AR   Ar  124   1.074   5.451   1.265
    1   AR   Ar  125   6.109   3.632   4.722
    1   AR   Ar  126   6.718   0.680   6.736
    1   AR   Ar  127   4.161   3.173   6.045
    1   AR   Ar  128   3.071   4.092   7.601
    1   AR   Ar  129   2.444   5.738   4.628
    1   AR   Ar  130   4.092   1.114  -4.465
    1   AR   Ar  131   4.378   5.018  -2.102
    1   AR   Ar  132   0.403   1.582   0.637
    1   AR   Ar  133   4.541   0.406   4.193
    1   AR   Ar  134   3.775   1.427   4.363
    1   AR   Ar  135   5.844   1.447   3.558
    1   AR   Ar  136   5.883   0.369   2.705
    1   AR   Ar  137   3.489   4.572   5.732
    1   AR   Ar  138   5.957   1.576   5.597
    1   AR   Ar  139   6.078   2.849   5.622
    1   AR   Ar  140   4.401   6.295   5.056
    1   AR   Ar  141   4.236   5.392   4.129
    1   AR   Ar  142   5.141   0.297   6.827
    1   AR   Ar  143   6.402   6.772   6.655
    1   AR   Ar  144   6.177   1.565   4.539
    1   AR   Ar  145   4.305   4.859  -0.533
    1   AR   Ar  146   3.951   2.336   3.175
    1   AR   Ar  147   5.441   3.459  -0.832
    1   AR   Ar  148   3.457   6.637  -1.402
    1   AR   Ar  149   2.415   0.566  -0.140
    1   AR   Ar  150   2.265   2.641   2.239
    1   AR   Ar  151   2.641   2.856   3.401
    1   AR   Ar  152   0.968   2.702  -2.368
    1   AR   Ar  153   5.448   0.569   3.621
    1   AR   Ar  154   4.735   1.801   4.361
    1   AR   Ar  155   6.276   3.774   6.082
    1   AR   Ar  156   2.804   4.498   3.729
    1   AR   Ar  157   1.928   5.353   6.777
    1   AR   Ar  158   0.613   1.541   5.807
    1   AR   Ar  159   4.222   0.346   6.219
    1   AR   Ar  160   1.547   1.684   5.202
    1   AR   Ar  161   4.645   4.389   3.433
    1   AR   Ar  162   4.340   5.937  -0.510
    1   AR   Ar  163   5.486   4.714   1.411
    1   AR   Ar  164   1.844   5.911   2.275
    1   AR   Ar  165   3.582   4.089   1.608
    1   AR   Ar  166   2.631   3.577   4.234
    1   AR   Ar  167   6.051   6.748   3.674
    1   AR   Ar  168   5.435   3.836  -1.929
    1   AR   Ar  169   3.566   3.405   3.441
    1   AR   Ar  170   1.471   3.396   6.207
    1   AR   Ar  171   5.850   4.774   4.548
    1   AR   Ar  172   3.827   3.739   5.128
    1   AR   Ar  173   2.517   2.061   5.718
    1   AR   Ar  174   3.426   6.477   4.847
    1   AR   Ar  175   2.955   0.945   5.920
    1   AR   Ar  176   3.831   2.510   4.452
    1   AR   Ar  177   0.820   4.678  -1.236
    1   AR   Ar  178   2.579   6.612   0.121
    1   AR   Ar  179   3.604   6.961   1.020
    1   AR   Ar  180   4.552   1.766  -6.862
    1   AR   Ar  181   0.121   5.167   1.675
    1   AR   Ar  182   0.739   6.112   2.161
    1   AR   Ar  183   4.873   5.526   1.667
    1   AR   Ar  184   4.509   6.668   0.231
    1   AR   Ar  185   2.706   4.723   4.806
    1   AR   Ar  186   2.803   5.526   3.091
    1   AR   Ar  187   3.521   6.548   3.467
    1   AR   Ar  188   2.401   0.025   2.252
    1   AR   Ar  189   5.140   3.569   6.468
    1   AR   Ar  190   2.425   6.597   3.344
    1   AR   Ar  191   3.610   6.742   6.894
    1   AR   Ar  192   4.703   4.868   6.058
    1   AR   Ar  193   2.445   6.485   1.365
    1   AR   Ar  194   5.567   4.974  -0.951
    1   AR   Ar  195   5.308   1.429   1.142
    1   AR   Ar  196   3.595   0.744  -0.333
    1   AR   Ar  197   4.576   2.220   1.017
    1   AR   Ar  198   5.660   0.302   1.715
    1   AR   Ar  199   1.630   0.625   3.545
    1   AR   Ar  200   5.267   3.247   0.182
    1   AR   Ar  201   6.690   6.583   2.468
    1   AR   Ar  202   5.320   1.086   4.769
    1   AR   Ar  203   0.576   6.574   3.207
    1   AR   Ar  204   4.739   6.153   6.601
    1   AR   Ar  205   5.833   2.084   1.715
    1   AR   Ar  206   5.838   0.654   5.939
    1   AR   Ar  207   0.214   2.993   4.832
    1   AR   Ar  208   1.191   6.090   4.556
    1   AR   Ar  209   6.966   2.300  -2.170
    1   AR   Ar  210   1.532   0.322   0.384
    1   AR   Ar  211   0.153   2.793   0.870
    1   AR   Ar  212   6.229   3.622  -0.159
    1   AR   Ar  213   3.808   1.949   1.779
    1   AR   Ar  214   4.951   3.992   2.196
    1   AR   Ar  215   6.749   2.563   2.165
    1   AR   Ar  216   1.067   2.324   1.145
    1   AR   Ar  217   4.736   1.654   3.235
    1   AR   Ar  218   4.876   3.014   4.535
    1   AR   Ar  219   5.069   3.256   3.220
    1   AR   Ar  220   4.561   3.415   1.162
    1   AR   Ar  221   6.846   6.038   4.026
    1   AR   Ar  222   4.959   7.114   5.695
    1   AR   Ar  223   6.789   1.739   6.243
    1   AR   Ar  224   4.793   2.449   5.570
    1   AR   Ar  225   6.280   3.022   3.347
    1   AR   Ar  226   1.688   3.128   3.053
    1   AR   Ar  227   0.665   3.160   2.293
    1   AR   Ar  228   6.377   1.149   1.660
    1   AR   Ar  229   6.697   4.423  -1.114
    1   AR   Ar  230   3.743   4.282   4.084
    1   AR   Ar  231   4.797   2.149   2.279
    1   AR   Ar  232   5.333   3.029   1.895
    1   AR   Ar  233   6.668   2.472   4.273
    1   AR   Ar  234   5.692   2.744   3.996
    1   AR   Ar  235   0.080   0.352   3.534
    1   AR   Ar  236   4.961   5.435   5.217
    1   AR   Ar  237   4.778   2.224   6.579
    1   AR   Ar  238   5.806   5.869   6.905
    1   AR   Ar  239   0.575   4.236  10.404
    1   AR   Ar  240   1.408   1.896   6.641
    1   AR   Ar  241   1.897   6.104  -0.808
    1   AR   Ar  242   5.991   6.287   1.553
    1   AR   Ar  243   5.236   6.170   2.886
    1   AR   Ar  244   0.383   5.238   0.234
    1   AR   Ar  245   3.908   0.429   3.234
    1   AR   Ar  246   5.247   6.492  -0.624
    1   AR   Ar  247   6.473   3.752   1.432
    1   AR   Ar  248   4.966   5.563   0.279
    1   AR   Ar  249   4.776   6.902   1.410
    1   AR   Ar  250   5.164   6.204   4.014
    1   AR   Ar  251   4.599   4.600   4.828
    1   AR   Ar  252   2.638   4.881   2.396
    1   AR   Ar  253   6.084   2.879   6.866
    1   AR   Ar  254   4.906   1.915  10.001
    1   AR   Ar  255   4.285   5.395   9.404
    1   AR   Ar  256   5.982   5.629   3.499
    7.12000  7.12000 12.00000
Argon-slab step 4635
  256
    1   AR   Ar    1   4.729   3.298  -2.895
    1   AR   Ar    2   5.525   7.013   0.618
    1   AR   Ar    3   4.093   3.321  -1.102
    1   AR   Ar    4   2.402   1.446   1.018
    1   AR   Ar    5   6.076   5.571  -0.208
    1   AR   Ar    6   1.667   1.825   1.776
    1   AR   Ar    7   6.121   4.203   3.445
    1   AR   Ar    8   6.157   2.534  -1.210
    1   AR   Ar    9   0.295   6.855   4.363
    1   AR   Ar   10   6.322   6.478   5.054
    1   AR   Ar   11   1.234   0.342   4.824
    1   AR   Ar   12   6.971   1.409   3.609
    1   AR   Ar   13   6.663   0.607   4.364
    1   AR   Ar   14   4.114   1.393   6.281
    1   AR   Ar   15   3.342   6.928   9.044
    1   AR   Ar   16   0.343   0.486   5.952
    1   AR   Ar   17   6.331   3.010   0.726
    1   AR   Ar   18   6.537   5.407  -1.433
    1   AR   Ar   19   5.051   4.510   0.140
    1   AR   Ar   20   6.711   4.213  -2.884
    1   AR   Ar   21   2.864   1.866   2.617
    1   AR   Ar   22   5.481   1.215   2.366
    1   AR   Ar   23   0.327   6.372   1.114
    1   AR   Ar   24   5.634   2.308   3.017
    1   AR   Ar   25   0.644   2.179   3.799
    1   AR   Ar   26   5.389   6.958   4.783
    1   AR   Ar   27   1.738   0.846   2.428
    1   AR   Ar   28   1.905   2.452   4.081
    1   AR   Ar   29   4.768   1.256   7.290
    1   AR   Ar   30   0.847   1.146   2.905
    1   AR   Ar   31   3.940   0.451   7.483
    1   AR   Ar   32   0.984   2.563   5.615
    1   AR   Ar   33   0.750   4.154  -0.255
    1   AR   Ar   34   0.952   4.932   2.684
    1   AR   Ar   35   5.757   5.141   2.520
    1   AR   Ar   36   5.896   2.806  -2.574
    1   AR   Ar   37   4.019   3.042   1.992
    1   AR   Ar   38   0.039   4.271   4.194
    1   AR   Ar   39   0.167   3.172   3.422
    1   AR   Ar   40   1.853   4.525   1.706
    1   AR   Ar   41   0.446   2.201   2.833
    1   AR   Ar   42   5.561   6.196   5.871
    1   AR   Ar   43   7.009   2.705   6.150
    1   AR   Ar   44   0.915   3.762   3.323
    1   AR   Ar   45   0.359   3.684   5.660
    1   AR   Ar   46   0.534   4.654   6.313
    1   AR   Ar   47   3.853   4.800   7.684
    1   AR   Ar   48   6.174   3.619   7.660
    1   AR   Ar   49   6.737   7.024  -0.666
    1   AR   Ar   50   3.503   5.403   0.559
    1   AR   Ar   51   5.926   3.551   2.554
    1   AR   Ar   52   5.119   2.705  -1.592
    1   AR   Ar   53   4.853   7.104   2.376
    1   AR   Ar   54   0.399   0.429   2.353
    1   AR   Ar   55   0.010   4.218   2.903
    1   AR   Ar   56   6.355   1.390   2.767
    1   AR   Ar   57   3.919   4.122   2.814
    1   AR   Ar   58   0.887   3.782   4.689
    1   AR   Ar   59   2.777   5.869   5.812
    1   AR   Ar   60   7.110   5.187   3.420
    1   AR   Ar   61   0.123   3.523   6.954
    1   AR   Ar   62   6.819   4.522   5.380
    1   AR   Ar   63   2.560   2.510   7.083
    1   AR   Ar   64   0.299   5.579   5.174
    1   AR   Ar   65   3.736   0.474   2.025
    1   AR   Ar   66   1.371   1.052   1.121
    1   AR   Ar   67   4.659   0.501  -0.575
    1   AR   Ar   68   0.909   0.926  -0.283
    1   AR   Ar   69   3.148   1.565   0.093
    1   AR   Ar   70   0.395   1.583   1.616
    1   AR   Ar   71   2.585   0.797   2.844
    1   AR   Ar   72   4.559   1.107   1.656
    1   AR   Ar   73   3.195   0.618   3.867
    1   AR   Ar   74   0.476   0.962   4.471
    1   AR   Ar   75   3.452   0.453   5.126
    1   AR   Ar   76   2.211   0.294   1.086
    1   AR   Ar   77   2.171   0.174   5.535
    1   AR   Ar   78   6.632   5.131   6.187
    1   AR   Ar   79   3.107   7.021   6.004
    1   AR   Ar   80   3.451   5.324   5.071
    1   AR   Ar   81   1.356   6.736   1.350
    1   AR   Ar   82   6.234   4.530   0.708
    1   AR   Ar   83   0.637   3.005  -0.144
    1   AR   Ar   84   1.441   4.225   0.623
    1   AR   Ar   85   2.438   3.802  -0.078
    1   AR   Ar   86   2.163   5.428   1.015
    1   AR   Ar   87   3.116   3.222   2.494
    1   AR   Ar   88   3.431   5.528   1.811
    1   AR   Ar   89   6.556   1.827   0.926
    1   AR   Ar   90   3.521   1.690   5.396
    1   AR   Ar   91   1.920   1.996   3.039
    1   AR   Ar   92   1.652   3.605   2.037
    1   AR   Ar   93   1.944   1.130   6.096
    1   AR   Ar   94   1.354   6.460   9.512
    1   AR   Ar   95   4.412   1.183   5.265
    1   AR   Ar   96   2.528   7.038   4.618
    1   AR   Ar   97   3.908   2.240  -0.652
    1   AR   Ar   98   1.841   4.362   4.114
    1   AR   Ar   99   5.673   0.962  -0.681
    1   AR   Ar  100   0.260   3.329  -2.920
    1   AR   Ar  101   4.085   6.411   2.191
    1   AR   Ar  102   3.644   1.365   2.976
    1   AR   Ar  103   2.552   4.437   0.883
    1   AR   Ar  104   3.690   5.556  -1.406
    1   AR   Ar  105   2.679   1.639   3.763
    1   AR   Ar  106   3.508   2.762   5.376
    1   AR   Ar  107   1.141   5.235   5.509
    1   AR   Ar  108   2.449   1.078   4.662
    1   AR   Ar  109   1.856   3.887   5.200
    1   AR   Ar  110   2.622   2.115   4.723
    1   AR   Ar  111   4.432   6.264   7.996
    1   AR   Ar  112   0.077   6.296   5.843
    1   AR   Ar  113   2.924   4.956  -0.888
    1   AR   Ar  114   2.665   0.199  -1.190
    1   AR   Ar  115   1.940   4.783  -0.286
    1   AR   Ar  116   4.695   0.540   0.757
    1   AR   Ar  117   0.843   4.870   4.316
    1   AR   Ar  118   1.355   5.299   3.558
    1   AR   Ar  119   1.993   4.305   3.014
    1   AR   Ar  120   1.564   6.783   2.778
    1   AR   Ar  121   5.696   4.510   5.690
    1   AR   Ar  122   3.178   5.638   4.002
    1   AR   Ar  123   2.701   3.370   5.513
    1   AR   Ar  124   1.095   5.478   1.307
    1   AR   Ar  125   6.105   3.640   4.736
    1   AR   Ar  126   6.678   0.675   6.701
    1   AR   Ar  127   4.138   3.168   6.052
    1   AR   Ar  128   3.070   4.163   7.592
    1   AR   Ar  129   2.428   5.736   4.633
    1   AR   Ar  130   4.079   1.108  -4.461
    1   AR   Ar  131   4.369   4.994  -2.083
    1   AR   Ar  132   0.413   1.582   0.660
    1   AR   Ar  133   4.539   0.400   4.193
    1   AR   Ar  134   3.764   1.432   4.393
    1   AR   Ar  135   5.856   1.461   3.564
    1   AR   Ar  136   5.898   0.369   2.688
    1   AR   Ar  137   3.509   4.551   5.719
    1   AR   Ar  138   5.973   1.593   5.599
    1   AR   Ar  139   6.082   2.821   5.633
    1   AR   Ar  140   4.408   6.282   5.036
    1   AR   Ar  141   4.249   5.396   4.145
    1   AR   Ar  142   5.134   0.319   6.872
    1   AR   Ar  143   6.391   6.792   6.680
    1   AR   Ar  144   6.188   1.581   4.524
    1   AR   Ar  145   4.325   4.847  -0.541
    1   AR   Ar  146   3.970   2.326   3.212
    1   AR   Ar  147   5.447   3.465  -0.850
    1   AR   Ar  148   3.449   6.593  -1.401
    1   AR   Ar  149   2.426   0.622  -0.110
    1   AR   Ar  150   2.264   2.648   2.277
    1   AR   Ar  151   2.654   2.874   3.423
    1   AR   Ar  152   0.983   2.694  -2.356
    1   AR   Ar  153   5.431   0.560   3.649
    1   AR   Ar  154   4.734   1.815   4.331
    1   AR   Ar  155   6.292   3.762   6.082
    1   AR   Ar  156   2.837   4.528   3.709
    1   AR   Ar  157   1.941   5.373   6.772
    1   AR   Ar  158   0.587   1.562   5.778
    1   AR   Ar  159   4.238   0.338   6.231
    1   AR   Ar  160   1.584   1.700   5.215
    1   AR   Ar  161   4.669   4.377   3.411
    1   AR   Ar  162   4.355   5.925  -0.531
    1   AR   Ar  163   5.518   4.700   1.413
    1   AR   Ar  164   1.842   5.891   2.276
    1   AR   Ar  165   3.568   4.083   1.601
    1   AR   Ar  166   2.636   3.590   4.263
    1   AR   Ar  167   6.078   6.757   3.652
    1   AR   Ar  168   5.452   3.842  -1.939
    1   AR   Ar  169   3.564   3.380   3.463
    1   AR   Ar  170   1.438   3.402   6.201
    1   AR   Ar  171   5.837   4.778   4.548
    1   AR   Ar  172   3.817   3.716   5.109
    1   AR   Ar  173   2.490   2.049   5.749
    1   AR   Ar  174   3.448   6.490   4.839
    1   AR   Ar  175   2.955   0.953   5.916
    1   AR   Ar  176   3.875   2.510   4.420
    1   AR   Ar  177   0.805   4.709  -1.249
    1   AR   Ar  178   2.587   6.609   0.131
    1   AR   Ar  179   3.579   6.962   1.028
    1   AR   Ar  180   4.543   1.765  -6.895
    1   AR   Ar  181   0.110   5.167   1.658
    1   AR   Ar  182   0.760   6.110   2.170
    1   AR   Ar  183   4.866   5.516   1.664
    1   AR   Ar  184   4.512   6.649   0.278
    1   AR   Ar  185   2.683   4.730   4.829
    1   AR   Ar  186   2.801   5.553   3.071
    1   AR   Ar  187   3.523   6.557   3.452
    1   AR   Ar  188   2.430   0.035   2.237
    1   AR   Ar  189   5.148   3.541   6.458
    1   AR   Ar  190   2.422   6.585   3.351
    1   AR   Ar  191   3.611   6.696   6.922
    1   AR   Ar  192   4.679   4.857   6.072
    1   AR   Ar  193   2.429   6.435   1.354
    1   AR   Ar  194   5.565   4.969  -0.967
    1   AR   Ar  195   5.315   1.431   1.129
    1   AR   Ar  196   3.570   0.760  -0.334
    1   AR   Ar  197   4.606   2.219   1.043
    1   AR   Ar  198   5.670   0.293   1.709
    1   AR   Ar  199   1.673   0.617   3.563
    1   AR   Ar  200   5.256   3.261   0.174
    1   AR   Ar  201   6.697   6.588   2.487
    1   AR   Ar  202   5.328   1.112   4.766
    1   AR   Ar  203   0.574   6.574   3.217
    1   AR   Ar  204   4.724   6.132   6.633
    1   AR   Ar  205   5.806   2.089   1.699
    1   AR   Ar  206   5.862   0.643   5.939
    1   AR   Ar  207   0.175   2.974   4.846
    1   AR   Ar  208   1.215   6.073   4.561
    1   AR   Ar  209   6.961   2.319  -2.163
    1   AR   Ar  210   1.534   0.349   0.370
    1   AR   Ar  211   0.152   2.747   0.882
    1   AR   Ar  212   6.239   3.619  -0.164
    1   AR   Ar  213   3.798   1.950   1.800
    1   AR   Ar  214   4.935   3.962   2.210
    1   AR   Ar  215   6.748   2.568   2.159
    1   AR   Ar  216   1.047   2.309   1.126
    1   AR   Ar  217   4.740   1.649   3.261
    1   AR   Ar  218   4.841   3.033   4.557
    1   AR   Ar  219   5.072   3.279   3.207
    1   AR   Ar  220   4.553   3.413   1.140
    1   AR   Ar  221   6.828   6.008   3.998
    1   AR   Ar  222   4.965   7.095   5.674
    1   AR   Ar  223   6.785   1.732   6.248
    1   AR   Ar  224   4.783   2.468   5.562
    1   AR   Ar  225   6.293   3.027   3.340
    1   AR   Ar  226   1.647   3.130   3.060
    1   AR   Ar  227   0.650   3.155   2.292
    1   AR   Ar  228   6.371   1.131   1.635
    1   AR   Ar  229   6.708   4.400  -1.105
    1   AR   Ar  230   3.739   4.283   4.100
    1   AR   Ar  231   4.769   2.173   2.265
    1   AR   Ar  232   5.303   3.058   1.903
    1   AR   Ar  233   6.689   2.451   4.275
    1   AR   Ar  234   5.710   2.738   4.007
    1   AR   Ar  235   0.086   0.379   3.539
    1   AR   Ar  236   4.984   5.468   5.217
    1   AR   Ar  237   4.773   2.215   6.589
    1   AR   Ar  238   5.805   5.877   6.934
    1   AR   Ar  239   0.560   4.234  10.394
    1   AR   Ar  240   1.433   1.888   6.630
    1   AR   Ar  241   1.885   6.089  -0.775
    1   AR   Ar  242   6.004   6.275   1.555
    1   AR   Ar  243   5.222   6.130   2.863
    1   AR   Ar  244   0.368   5.224   0.229
    1   AR   Ar  245   3.927   0.422   3.246
    1   AR   Ar  246   5.229   6.472  -0.616
    1   AR   Ar  247   6.471   3.748   1.430
    1   AR   Ar  248   4.969   5.546   0.261
    1   AR   Ar  249   4.781   6.902   1.426
    1   AR   Ar  250   5.212   6.200   4.011
    1   AR   Ar  251   4.613   4.571   4.842
    1   AR   Ar  252   2.614   4.857   2.381
    1   AR   Ar  253   6.076   2.881   6.859
    1   AR   Ar  254   4.916   1.939   9.983
    1   AR   Ar  255   4.312   5.383   9.405
    1   AR   Ar  256   6.005   5.650   3.494
    7.12000  7.12000 12.00000
Argon-slab step 4640
  256
    1   AR   Ar    1   4.740   3.286  -2.896
    1   AR   Ar    2   5.529   7.030   0.589
    1   AR   Ar    3   4.101   3.331  -1.122
    1   AR   Ar    4   2.409   1.438   1.072
    1   AR   Ar    5   6.080   5.570  -0.194
    1   AR   Ar    6   1.678   1.846   1.802
    1   AR   Ar    7   6.098   4.198   3.442
    1   AR   Ar    8   6.193   2.538  -1.238
    1   AR   Ar    9   0.293   6.850   4.360
    1   AR   Ar   10   6.320   6.446   5.096
    1   AR   Ar   11   1.185   0.361   4.817
    1   AR   Ar   12   6.950   1.394   3.588
    1   AR   Ar   13   6.640   0.603   4.327
    1   AR   Ar   14   4.095   1.399   6.303
    1   AR   Ar   15   3.331   6.916   9.037
    1   AR   Ar   16   0.360   0.481   5.919
    1   AR   Ar   17   6.364   2.991   0.729
    1   AR   Ar   18   6.566   5.426  -1.421
    1   AR   Ar   19   5.058   4.513   0.114
    1   AR   Ar   20   6.696   4.210  -2.896
    1   AR   Ar   21   2.820   1.883   2.576
    1   AR   Ar   22   5.477   1.207   2.401
    1   AR   Ar   23   0.364   6.359   1.116
    1   AR   Ar   24   5.648   2.307   2.979
    1   AR   Ar   25   0.653   2.178   3.819
    1   AR   Ar   26   5.385   6.945   4.761
    1   AR   Ar   27   1.733   0.851   2.449
    1   AR   Ar   28   1.904   2.448   4.041
    1   AR   Ar   29   4.730   1.258   7.281
    1   AR   Ar   30   0.874   1.171   2.891
    1   AR   Ar   31   3.914   0.504   7.488
    1   AR   Ar   32   0.955   2.598   5.608
    1   AR   Ar   33   0.725   4.153  -0.280
    1   AR   Ar   34   0.962   4.943   2.687
    1   AR   Ar   35   5.772   5.178   2.544
    1   AR   Ar   36   5.876   2.784  -2.551
    1   AR   Ar   37   4.022   3.038   1.967
    1   AR   Ar   38   0.023   4.260   4.199
    1   AR   Ar   39   0.183   3.164   3.449
    1   AR   Ar   40   1.833   4.518   1.699
    1   AR   Ar   41   0.469   2.166   2.851
    1   AR   Ar   42   5.535   6.213   5.910
    1   AR   Ar   43   7.036   2.683   6.153
    1   AR   Ar   44   0.943   3.791   3.290
    1   AR   Ar   45   0.395   3.682   5.666
    1   AR   Ar   46   0.511   4.655   6.281
    1   AR   Ar   47   3.847   4.740   7.695
    1   AR   Ar   48   6.179   3.606   7.657
    1   AR   Ar   49   6.733   7.015  -0.660
    1   AR   Ar   50   3.522   5.421   0.579
    1   AR   Ar   51   5.956   3.534   2.513
    1   AR   Ar   52   5.124   2.732  -1.598
    1   AR   Ar   53   4.848   0.002   2.414
    1   AR   Ar   54   0.395   0.402   2.369
    1   AR   Ar   55   0.013   4.218   2.906
    1   AR   Ar   56   6.361   1.440   2.746
    1   AR   Ar   57   3.900   4.151   2.788
    1   AR   Ar   58   0.922   3.786   4.693
    1   AR   Ar   59   2.781   5.869   5.819
    1   AR   Ar   60   0.002   5.167   3.417
    1   AR   Ar   61   0.133   3.492   6.929
    1   AR   Ar   62   6.795   4.516   5.375
    1   AR   Ar   63   2.585   2.496   7.081
    1   AR   Ar   64   0.291   5.585   5.142
    1   AR   Ar   65   3.741   0.493   2.046
    1   AR   Ar   66   1.373   1.004   1.083
    1   AR   Ar   67   4.638   0.506  -0.595
    1   AR   Ar   68   0.879   0.924  -0.272
    1   AR   Ar   69   3.158   1.568   0.062
    1   AR   Ar   70   0.371   1.590   1.629
    1   AR   Ar   71   2.559   0.796   2.892
    1   AR   Ar   72   4.547   1.118   1.655
    1   AR   Ar   73   3.155   0.617   3.864
    1   AR   Ar   74   0.480   0.960   4.443
    1   AR   Ar   75   3.461   0.473   5.092
    1   AR   Ar   76   2.220   0.283   1.055
    1   AR   Ar   77   2.157   0.194   5.529
    1   AR   Ar   78   6.624   5.117   6.168
    1   AR   Ar   79   3.099   7.048   5.974
    1   AR   Ar   80   3.474   5.347   5.081
    1   AR   Ar   81   1.383   6.721   1.340
    1   AR   Ar   82   6.233   4.551   0.692
    1   AR   Ar   83   0.649   3.020  -0.126
    1   AR   Ar   84   1.453   4.215   0.632
    1   AR   Ar   85   2.393   3.804  -0.072
    1   AR   Ar   86   2.177   5.420   1.014
    1   AR   Ar   87   3.108   3.251   2.442
    1   AR   Ar   88   3.445   5.517   1.825
    1   AR   Ar   89   6.544   1.816   0.934
    1   AR   Ar   90   3.511   1.691   5.388
    1   AR   Ar   91   1.941   1.955   3.026
    1   AR   Ar   92   1.655   3.619   2.048
    1   AR   Ar   93   1.957   1.120   6.075
    1   AR   Ar   94   1.346   6.449   9.510
    1   AR   Ar   95   4.416   1.143   5.294
    1   AR   Ar   96   2.554   7.025   4.604
    1   AR   Ar   97   3.922   2.225  -0.637
    1   AR   Ar   98   1.765   4.361   4.127
    1   AR   Ar   99   5.667   0.947  -0.688
    1   AR   Ar  100   0.264   3.328  -2.915
    1   AR   Ar  101   4.093   6.391   2.201
    1   AR   Ar  102   3.642   1.348   2.981
    1   AR   Ar  103   2.557   4.435   0.896
    1   AR   Ar  104   3.707   5.538  -1.426
    1   AR   Ar  105   2.691   1.634   3.776
    1   AR   Ar  106   3.504   2.792   5.369
    1   AR   Ar  107   1.142   5.244   5.538
    1   AR   Ar  108   2.434   1.037   4.713
    1   AR   Ar  109   1.841   3.894   5.197
    1   AR   Ar  110   2.611   2.115   4.736
    1   AR   Ar  111   4.431   6.267   8.013
    1   AR   Ar  112   0.063   6.266   5.805
    1   AR   Ar  113   2.893   4.955  -0.922
    1   AR   Ar  114   2.643   0.203  -1.162
    1   AR   Ar  115   1.960   4.818  -0.285
    1   AR   Ar  116   4.676   0.540   0.767
    1   AR   Ar  117   0.842   4.857   4.315
    1   AR   Ar  118   1.352   5.345   3.566
    1   AR   Ar  119   1.994   4.274   3.011
    1   AR   Ar  120   1.559   6.798   2.767
    1   AR   Ar  121   5.715   4.523   5.694
    1   AR   Ar  122   3.205   5.626   4.004
    1   AR   Ar  123   2.714   3.335   5.519
    1   AR   Ar  124   1.116   5.506   1.349
    1   AR   Ar  125   6.101   3.647   4.750
    1   AR   Ar  126   6.669   0.678   6.691
    1   AR   Ar  127   4.119   3.167   6.064
    1   AR   Ar  128   3.063   4.229   7.581
    1   AR   Ar  129   2.403   5.739   4.646
    1   AR   Ar  130   4.055   1.099  -4.464
    1   AR   Ar  131   4.360   4.969  -2.064
    1   AR   Ar  132   0.426   1.579   0.662
    1   AR   Ar  133   4.534   0.394   4.196
    1   AR   Ar  134   3.748   1.432   4.419
    1   AR   Ar  135   5.856   1.481   3.587
    1   AR   Ar  136   5.920   0.360   2.681
    1   AR   Ar  137   3.528   4.526   5.711
    1   AR   Ar  138   5.986   1.616   5.598
    1   AR   Ar  139   6.098   2.796   5.639
    1   AR   Ar  140   4.415   6.305   5.020
    1   AR   Ar  141   4.263   5.399   4.162
    1   AR   Ar  142   5.129   0.340   6.916
    1   AR   Ar  143   6.378   6.801   6.711
    1   AR   Ar  144   6.205   1.600   4.512
    1   AR   Ar  145   4.343   4.836  -0.551
    1   AR   Ar  146   3.984   2.326   3.248
    1   AR   Ar  147   5.452   3.471  -0.872
    1   AR   Ar  148   3.441   6.550  -1.399
    1   AR   Ar  149   2.441   0.680  -0.081
    1   AR   Ar  150   2.256   2.655   2.326
    1   AR   Ar  151   2.665   2.887   3.443
    1   AR   Ar  152   0.996   2.685  -2.343
    1   AR   Ar  153   5.423   0.549   3.655
    1   AR   Ar  154   4.734   1.836   4.300
    1   AR   Ar  155   6.320   3.741   6.081
    1   AR   Ar  156   2.865   4.562   3.684
    1   AR   Ar  157   1.954   5.392   6.765
    1   AR   Ar  158   0.563   1.582   5.748
    1   AR   Ar  159   4.243   0.333   6.248
    1   AR   Ar  160   1.621   1.716   5.226
    1   AR   Ar  161   4.702   4.366   3.396
    1   AR   Ar  162   4.376   5.939  -0.539
    1   AR   Ar  163   5.560   4.701   1.437
    1   AR   Ar  164   1.843   5.869   2.275
    1   AR   Ar  165   3.554   4.077   1.596
    1   AR   Ar  166   2.641   3.604   4.293
    1   AR   Ar  167   6.105   6.767   3.630
    1   AR   Ar  168   5.468   3.848  -1.948
    1   AR   Ar  169   3.565   3.353   3.490
    1   AR   Ar  170   1.410   3.394   6.186
    1   AR   Ar  171   5.824   4.781   4.548
    1   AR   Ar  172   3.809   3.695   5.087
    1   AR   Ar  173   2.464   2.037   5.785
    1   AR   Ar  174   3.460   6.503   4.830
    1   AR   Ar  175   2.939   0.918   5.932
    1   AR   Ar  176   3.917   2.511   4.385
    1   AR   Ar  177   0.789   4.741  -1.261
    1   AR   Ar  178   2.592   6.605   0.109
    1   AR   Ar  179   3.554   6.962   1.037
    1   AR   Ar  180   4.534   1.764  -6.929
    1   AR   Ar  181   0.099   5.168   1.642
    1   AR   Ar  182   0.780   6.078   2.173
    1   AR   Ar  183   4.858   5.509   1.662
    1   AR   Ar  184   4.515   6.631   0.327
    1   AR   Ar  185   2.654   4.727   4.850
    1   AR   Ar  186   2.797   5.587   3.051
    1   AR   Ar  187   3.526   6.565   3.438
    1   AR   Ar  188   2.459   0.035   2.213
    1   AR   Ar  189   5.158   3.513   6.447
    1   AR   Ar  190   2.421   6.574   3.359
    1   AR   Ar  191   3.613   6.650   6.949
    1   AR   Ar  192   4.654   4.844   6.085
    1   AR   Ar  193   2.416   6.382   1.344
    1   AR   Ar  194   5.561   4.963  -0.983
    1   AR   Ar  195   5.332   1.428   1.105
    1   AR   Ar  196   3.549   0.767  -0.337
    1   AR   Ar  197   4.636   2.220   1.071
    1   AR   Ar  198   5.687   0.293   1.725
    1   AR   Ar  199   1.717   0.610   3.580
    1   AR   Ar  200   5.233   3.267   0.161
    1   AR   Ar  201   6.705   6.593   2.506
    1   AR   Ar  202   5.339   1.122   4.763
    1   AR   Ar  203   0.580   6.576   3.236
    1   AR   Ar  204   4.709   6.113   6.664
    1   AR   Ar  205   5.787   2.088   1.700
    1   AR   Ar  206   5.884   0.625   5.941
    1   AR   Ar  207   0.141   2.961   4.867
    1   AR   Ar  208   1.239   6.054   4.566
    1   AR   Ar  209   6.955   2.339  -2.155
    1   AR   Ar  210   1.527   0.372   0.348
    1   AR   Ar  211   0.156   2.700   0.895
    1   AR   Ar  212   6.222   3.621  -0.162
    1   AR   Ar  213   3.786   1.949   1.823
    1   AR   Ar  214   4.916   3.938   2.227
    1   AR   Ar  215   6.761   2.581   2.137
    1   AR   Ar  216   1.029   2.297   1.104
    1   AR   Ar  217   4.696   1.680   3.280
    1   AR   Ar  218   4.805   3.053   4.581
    1   AR   Ar  219   5.079   3.305   3.188
    1   AR   Ar  220   4.547   3.412   1.117
    1   AR   Ar  221   6.814   5.982   3.975
    1   AR   Ar  222   4.976   7.075   5.654
    1   AR   Ar  223   6.778   1.717   6.258
    1   AR   Ar  224   4.773   2.485   5.548
    1   AR   Ar  225   6.324   3.040   3.318
    1   AR   Ar  226   1.612   3.126   3.065
    1   AR   Ar  227   0.635   3.150   2.292
    1   AR   Ar  228   6.354   1.128   1.606
    1   AR   Ar  229   6.692   4.389  -1.084
    1   AR   Ar  230   3.741   4.283   4.120
    1   AR   Ar  231   4.741   2.196   2.251
    1   AR   Ar  232   5.272   3.080   1.906
    1   AR   Ar  233   6.708   2.426   4.268
    1   AR   Ar  234   5.691   2.699   4.048
    1   AR   Ar  235   0.096   0.405   3.535
    1   AR   Ar  236   5.013   5.499   5.218
    1   AR   Ar  237   4.768   2.207   6.601
    1   AR   Ar  238   5.804   5.886   6.961
    1   AR   Ar  239   0.544   4.231  10.384
    1   AR   Ar  240   1.458   1.883   6.619
    1   AR   Ar  241   1.874   6.074  -0.740
    1   AR   Ar  242   6.016   6.264   1.558
    1   AR   Ar  243   5.208   6.091   2.840
    1   AR   Ar  244   0.354   5.209   0.224
    1   AR   Ar  245   3.959   0.409   3.250
    1   AR   Ar  246   5.215   6.454  -0.606
    1   AR   Ar  247   6.469   3.745   1.434
    1   AR   Ar  248   4.962   5.539   0.256
    1   AR   Ar  249   4.782   6.893   1.431
    1   AR   Ar  250   5.257   6.194   4.008
    1   AR   Ar  251   4.617   4.583   4.844
    1   AR   Ar  252   2.592   4.830   2.357
    1   AR   Ar  253   6.068   2.884   6.848
    1   AR   Ar  254   4.927   1.962   9.965
    1   AR   Ar  255   4.339   5.371   9.405
    1   AR   Ar  256   6.026   5.667   3.486
    7.12000  7.12000 12.00000
Argon-slab step 4645
  256
    1   AR   Ar    1   4.753   3.274  -2.896
    1   AR   Ar    2   5.534   7.047   0.561
    1   AR   Ar    3   4.110   3.324  -1.142
    1   AR   Ar    4   2.417   1.422   1.083
    1   AR   Ar    5   6.084   5.568  -0.180
    1   AR   Ar    6   1.690   1.865   1.833
    1   AR   Ar    7   6.076   4.193   3.439
    1   AR   Ar    8   6.227   2.544  -1.268
    1   AR   Ar    9   0.312   6.827   4.337
    1   AR   Ar   10   6.319   6.414   5.137
    1   AR   Ar   11   1.143   0.374   4.813
    1   AR   Ar   12   6.931   1.386   3.572
    1   AR   Ar   13   6.605   0.597   4.297
    1   AR   Ar   14   4.075   1.406   6.325
    1   AR   Ar   15   3.320   6.903   9.029
    1   AR   Ar   16   0.376   0.475   5.885
    1   AR   Ar   17   6.346   2.981   0.733
    1   AR   Ar   18   6.594   5.445  -1.409
    1   AR   Ar   19   5.072   4.510   0.090
    1   AR   Ar   20   6.681   4.206  -2.909
    1   AR   Ar   21   2.791   1.892   2.533
    1   AR   Ar   22   5.455   1.206   2.428
    1   AR   Ar   23   0.401   6.344   1.118
    1   AR   Ar   24   5.654   2.297   2.963
    1   AR   Ar   25   0.677   2.188   3.875
    1   AR   Ar   26   5.386   6.933   4.730
    1   AR   Ar   27   1.709   0.856   2.454
    1   AR   Ar   28   1.898   2.443   4.000
    1   AR   Ar   29   4.691   1.261   7.271
    1   AR   Ar   30   0.897   1.200   2.883
    1   AR   Ar   31   3.889   0.556   7.492
    1   AR   Ar   32   0.926   2.634   5.599
    1   AR   Ar   33   0.699   4.154  -0.303
    1   AR   Ar   34   0.967   4.951   2.681
    1   AR   Ar   35   5.802   5.203   2.541
    1   AR   Ar   36   5.856   2.763  -2.526
    1   AR   Ar   37   4.027   3.033   1.943
    1   AR   Ar   38   0.001   4.245   4.203
    1   AR   Ar   39   0.210   3.145   3.476
    1   AR   Ar   40   1.812   4.525   1.688
    1   AR   Ar   41   0.488   2.132   2.857
    1   AR   Ar   42   5.512   6.228   5.950
    1   AR   Ar   43   7.067   2.670   6.155
    1   AR   Ar   44   0.970   3.839   3.259
    1   AR   Ar   45   0.430   3.679   5.674
    1   AR   Ar   46   0.487   4.654   6.248
    1   AR   Ar   47   3.863   4.695   7.709
    1   AR   Ar   48   6.185   3.594   7.654
    1   AR   Ar   49   6.728   7.006  -0.654
    1   AR   Ar   50   3.528   5.431   0.616
    1   AR   Ar   51   5.989   3.523   2.470
    1   AR   Ar   52   5.128   2.767  -1.604
    1   AR   Ar   53   4.845   0.025   2.460
    1   AR   Ar   54   0.389   0.371   2.385
    1   AR   Ar   55   0.015   4.217   2.910
    1   AR   Ar   56   6.384   1.493   2.713
    1   AR   Ar   57   3.876   4.177   2.758
    1   AR   Ar   58   0.941   3.791   4.686
    1   AR   Ar   59   2.785   5.869   5.825
    1   AR   Ar   60   0.019   5.159   3.403
    1   AR   Ar   61   0.149   3.488   6.915
    1   AR   Ar   62   6.772   4.506   5.363
    1   AR   Ar   63   2.609   2.481   7.076
    1   AR   Ar   64   0.277   5.583   5.095
    1   AR   Ar   65   3.746   0.510   2.067
    1   AR   Ar   66   1.371   0.965   1.055
    1   AR   Ar   67   4.615   0.510  -0.614
    1   AR   Ar   68   0.848   0.924  -0.261
    1   AR   Ar   69   3.162   1.584   0.037
    1   AR   Ar   70   0.346   1.596   1.661
    1   AR   Ar   71   2.559   0.800   2.957
    1   AR   Ar   72   4.530   1.129   1.661
    1   AR   Ar   73   3.110   0.616   3.865
    1   AR   Ar   74   0.481   0.967   4.412
    1   AR   Ar   75   3.471   0.494   5.055
    1   AR   Ar   76   2.238   0.272   1.031
    1   AR   Ar   77   2.140   0.216   5.523
    1   AR   Ar   78   6.615   5.108   6.154
    1   AR   Ar   79   3.095   7.064   5.945
    1   AR   Ar   80   3.501   5.378   5.088
    1   AR   Ar   81   1.411   6.706   1.331
    1   AR   Ar   82   6.236   4.570   0.670
    1   AR   Ar   83   0.661   3.036  -0.107
    1   AR   Ar   84   1.466   4.206   0.641
    1   AR   Ar   85   2.347   3.808  -0.064
    1   AR   Ar   86   2.189   5.411   1.012
    1   AR   Ar   87   3.081   3.280   2.400
    1   AR   Ar   88   3.412   5.511   1.832
    1   AR   Ar   89   6.533   1.816   0.935
    1   AR   Ar   90   3.497   1.694   5.384
    1   AR   Ar   91   1.950   1.912   3.020
    1   AR   Ar   92   1.642   3.606   2.054
    1   AR   Ar   93   1.964   1.108   6.055
    1   AR   Ar   94   1.338   6.438   9.508
    1   AR   Ar   95   4.437   1.094   5.301
    1   AR   Ar   96   2.581   7.013   4.585
    1   AR   Ar   97   3.935   2.209  -0.622
    1   AR   Ar   98   1.693   4.359   4.140
    1   AR   Ar   99   5.661   0.931  -0.695
    1   AR   Ar  100   0.268   3.327  -2.909
    1   AR   Ar  101   4.101   6.369   2.211
    1   AR   Ar  102   3.636   1.336   2.986
    1   AR   Ar  103   2.557   4.424   0.900
    1   AR   Ar  104   3.726   5.518  -1.445
    1   AR   Ar  105   2.704   1.629   3.786
    1   AR   Ar  106   3.505   2.800   5.356
    1   AR   Ar  107   1.151   5.248   5.570
    1   AR   Ar  108   2.418   1.005   4.755
    1   AR   Ar  109   1.829   3.903   5.193
    1   AR   Ar  110   2.583   2.107   4.750
    1   AR   Ar  111   4.430   6.270   8.028
    1   AR   Ar  112   0.046   6.246   5.777
    1   AR   Ar  113   2.862   4.955  -0.955
    1   AR   Ar  114   2.621   0.207  -1.132
    1   AR   Ar  115   1.975   4.851  -0.285
    1   AR   Ar  116   4.655   0.545   0.772
    1   AR   Ar  117   0.841   4.848   4.319
    1   AR   Ar  118   1.354   5.394   3.575
    1   AR   Ar  119   1.990   4.239   3.009
    1   AR   Ar  120   1.551   6.800   2.769
    1   AR   Ar  121   5.733   4.539   5.695
    1   AR   Ar  122   3.237   5.613   4.008
    1   AR   Ar  123   2.715   3.309   5.527
    1   AR   Ar  124   1.140   5.532   1.389
    1   AR   Ar  125   6.099   3.654   4.765
    1   AR   Ar  126   6.669   0.686   6.688
    1   AR   Ar  127   4.106   3.171   6.083
    1   AR   Ar  128   3.034   4.282   7.566
    1   AR   Ar  129   2.373   5.747   4.663
    1   AR   Ar  130   4.032   1.090  -4.468
    1   AR   Ar  131   4.353   4.942  -2.044
    1   AR   Ar  132   0.440   1.573   0.645
    1   AR   Ar  133   4.525   0.389   4.203
    1   AR   Ar  134   3.730   1.429   4.440
    1   AR   Ar  135   5.847   1.503   3.614
    1   AR   Ar  136   5.950   0.343   2.689
    1   AR   Ar  137   3.548   4.498   5.705
    1   AR   Ar  138   5.995   1.644   5.593
    1   AR   Ar  139   6.130   2.775   5.640
    1   AR   Ar  140   4.429   6.339   5.006
    1   AR   Ar  141   4.278   5.403   4.180
    1   AR   Ar  142   5.125   0.357   6.957
    1   AR   Ar  143   6.363   6.807   6.739
    1   AR   Ar  144   6.226   1.614   4.510
    1   AR   Ar  145   4.358   4.828  -0.566
    1   AR   Ar  146   3.973   2.329   3.265
    1   AR   Ar  147   5.455   3.479  -0.897
    1   AR   Ar  148   3.433   6.514  -1.398
    1   AR   Ar  149   2.459   0.737  -0.051
    1   AR   Ar  150   2.240   2.672   2.368
    1   AR   Ar  151   2.671   2.896   3.460
    1   AR   Ar  152   1.009   2.675  -2.330
    1   AR   Ar  153   5.430   0.541   3.624
    1   AR   Ar  154   4.737   1.860   4.272
    1   AR   Ar  155   6.351   3.720   6.082
    1   AR   Ar  156   2.887   4.598   3.657
    1   AR   Ar  157   1.967   5.412   6.757
    1   AR   Ar  158   0.544   1.602   5.716
    1   AR   Ar  159   4.241   0.328   6.270
    1   AR   Ar  160   1.656   1.732   5.235
    1   AR   Ar  161   4.738   4.357   3.385
    1   AR   Ar  162   4.378   5.955  -0.549
    1   AR   Ar  163   5.598   4.701   1.467
    1   AR   Ar  164   1.846   5.844   2.273
    1   AR   Ar  165   3.540   4.070   1.593
    1   AR   Ar  166   2.648   3.619   4.325
    1   AR   Ar  167   6.113   6.780   3.646
    1   AR   Ar  168   5.484   3.851  -1.957
    1   AR   Ar  169   3.573   3.329   3.519
    1   AR   Ar  170   1.395   3.386   6.190
    1   AR   Ar  171   5.814   4.788   4.549
    1   AR   Ar  172   3.805   3.683   5.059
    1   AR   Ar  173   2.442   2.027   5.824
    1   AR   Ar  174   3.463   6.516   4.818
    1   AR   Ar  175   2.929   0.892   5.947
    1   AR   Ar  176   3.955   2.513   4.349
    1   AR   Ar  177   0.772   4.755  -1.264
    1   AR   Ar  178   2.595   6.602   0.081
    1   AR   Ar  179   3.530   6.962   1.047
    1   AR   Ar  180   4.525   1.764  -6.962
    1   AR   Ar  181   0.088   5.169   1.627
    1   AR   Ar  182   0.799   6.048   2.178
    1   AR   Ar  183   4.850   5.505   1.661
    1   AR   Ar  184   4.519   6.612   0.376
    1   AR   Ar  185   2.663   4.725   4.842
    1   AR   Ar  186   2.792   5.623   3.029
    1   AR   Ar  187   3.527   6.571   3.425
    1   AR   Ar  188   2.449   0.020   2.176
    1   AR   Ar  189   5.169   3.484   6.434
    1   AR   Ar  190   2.421   6.565   3.370
    1   AR   Ar  191   3.618   6.603   6.976
    1   AR   Ar  192   4.629   4.832   6.097
    1   AR   Ar  193   2.405   6.331   1.337
    1   AR   Ar  194   5.557   4.956  -0.998
    1   AR   Ar  195   5.354   1.418   1.072
    1   AR   Ar  196   3.533   0.761  -0.347
    1   AR   Ar  197   4.664   2.223   1.103
    1   AR   Ar  198   5.700   0.292   1.730
    1   AR   Ar  199   1.760   0.603   3.596
    1   AR   Ar  200   5.210   3.274   0.151
    1   AR   Ar  201   6.713   6.599   2.526
    1   AR   Ar  202   5.353   1.109   4.757
    1   AR   Ar  203   0.585   6.578   3.254
    1   AR   Ar  204   4.693   6.095   6.694
    1   AR   Ar  205   5.770   2.094   1.708
    1   AR   Ar  206   5.905   0.601   5.943
    1   AR   Ar  207   0.115   2.956   4.897
    1   AR   Ar  208   1.261   6.035   4.571
    1   AR   Ar  209   6.950   2.361  -2.147
    1   AR   Ar  210   1.515   0.383   0.312
    1   AR   Ar  211   0.161   2.652   0.908
    1   AR   Ar  212   6.194   3.636  -0.146
    1   AR   Ar  213   3.773   1.948   1.847
    1   AR   Ar  214   4.891   3.924   2.248
    1   AR   Ar  215   6.773   2.594   2.115
    1   AR   Ar  216   1.024   2.285   1.086
    1   AR   Ar  217   4.668   1.697   3.294
    1   AR   Ar  218   4.769   3.074   4.605
    1   AR   Ar  219   5.084   3.325   3.177
    1   AR   Ar  220   4.543   3.412   1.093
    1   AR   Ar  221   6.810   5.965   3.963
    1   AR   Ar  222   4.986   7.056   5.641
    1   AR   Ar  223   6.769   1.696   6.273
    1   AR   Ar  224   4.763   2.501   5.532
    1   AR   Ar  225   6.354   3.053   3.296
    1   AR   Ar  226   1.586   3.111   3.068
    1   AR   Ar  227   0.620   3.146   2.295
    1   AR   Ar  228   6.336   1.117   1.589
    1   AR   Ar  229   6.675   4.376  -1.061
    1   AR   Ar  230   3.749   4.283   4.143
    1   AR   Ar  231   4.716   2.217   2.238
    1   AR   Ar  232   5.242   3.088   1.901
    1   AR   Ar  233   6.726   2.401   4.248
    1   AR   Ar  234   5.680   2.678   4.053
    1   AR   Ar  235   0.111   0.424   3.521
    1   AR   Ar  236   5.047   5.527   5.220
    1   AR   Ar  237   4.764   2.200   6.614
    1   AR   Ar  238   5.803   5.893   6.988
    1   AR   Ar  239   0.550   4.243  10.371
    1   AR   Ar  240   1.482   1.881   6.606
    1   AR   Ar  241   1.864   6.056  -0.740
    1   AR   Ar  242   6.028   6.257   1.559
    1   AR   Ar  243   5.193   6.053   2.817
    1   AR   Ar  244   0.340   5.193   0.221
    1   AR   Ar  245   3.999   0.391   3.250
    1   AR   Ar  246   5.211   6.443  -0.595
    1   AR   Ar  247   6.467   3.745   1.441
    1   AR   Ar  248   4.949   5.541   0.260
    1   AR   Ar  249   4.780   6.876   1.433
    1   AR   Ar  250   5.298   6.187   4.007
    1   AR   Ar  251   4.612   4.622   4.840
    1   AR   Ar  252   2.574   4.803   2.330
    1   AR   Ar  253   6.060   2.886   6.833
    1   AR   Ar  254   4.937   1.985   9.947
    1   AR   Ar  255   4.366   5.359   9.405
    1   AR   Ar  256   6.038   5.678   3.471
    7.12000  7.12000 12.00000
Argon-slab step 4650
  256
    1   AR   Ar    1   4.767   3.263  -2.894
    1   AR   Ar    2   5.539   7.052   0.532
    1   AR   Ar    3   4.119   3.291  -1.162
    1   AR   Ar    4   2.426   1.403   1.083
    1   AR   Ar    5   6.086   5.565  -0.167
    1   AR   Ar    6   1.704   1.882   1.859
    1   AR   Ar    7   6.054   4.187   3.436
    1   AR   Ar    8   6.261   2.551  -1.297
    1   AR   Ar    9   0.305   6.829   4.350
    1   AR   Ar   10   6.316   6.383   5.175
    1   AR   Ar   11   1.113   0.378   4.816
    1   AR   Ar   12   6.949   1.386   3.581
    1   AR   Ar   13   6.561   0.590   4.271
    1   AR   Ar   14   4.053   1.412   6.346
    1   AR   Ar   15   3.310   6.891   9.022
    1   AR   Ar   16   0.392   0.470   5.850
    1   AR   Ar   17   6.319   2.970   0.735
    1   AR   Ar   18   6.621   5.463  -1.395
    1   AR   Ar   19   5.092   4.501   0.069
    1   AR   Ar   20   6.666   4.202  -2.920
    1   AR   Ar   21   2.783   1.888   2.485
    1   AR   Ar   22   5.423   1.208   2.451
    1   AR   Ar   23   0.437   6.328   1.121
    1   AR   Ar   24   5.649   2.275   2.982
    1   AR   Ar   25   0.700   2.197   3.935
    1   AR   Ar   26   5.390   6.924   4.693
    1   AR   Ar   27   1.686   0.857   2.447
    1   AR   Ar   28   1.887   2.438   3.959
    1   AR   Ar   29   4.651   1.268   7.261
    1   AR   Ar   30   0.913   1.227   2.883
    1   AR   Ar   31   3.864   0.607   7.493
    1   AR   Ar   32   0.896   2.625   5.618
    1   AR   Ar   33   0.680   4.156  -0.318
    1   AR   Ar   34   0.967   4.954   2.667
    1   AR   Ar   35   5.833   5.225   2.534
    1   AR   Ar   36   5.836   2.743  -2.499
    1   AR   Ar   37   4.035   3.028   1.922
    1   AR   Ar   38   7.094   4.227   4.205
    1   AR   Ar   39   0.245   3.123   3.506
    1   AR   Ar   40   1.787   4.540   1.671
    1   AR   Ar   41   0.502   2.105   2.857
    1   AR   Ar   42   5.492   6.240   5.990
    1   AR   Ar   43   7.100   2.664   6.156
    1   AR   Ar   44   0.991   3.901   3.231
    1   AR   Ar   45   0.464   3.677   5.683
    1   AR   Ar   46   0.463   4.652   6.213
    1   AR   Ar   47   3.903   4.662   7.726
    1   AR   Ar   48   6.217   3.568   7.643
    1   AR   Ar   49   6.723   6.997  -0.648
    1   AR   Ar   50   3.530   5.444   0.661
    1   AR   Ar   51   6.022   3.517   2.424
    1   AR   Ar   52   5.130   2.801  -1.612
    1   AR   Ar   53   4.843   0.051   2.510
    1   AR   Ar   54   0.382   0.338   2.401
    1   AR   Ar   55   0.015   4.213   2.913
    1   AR   Ar   56   6.414   1.548   2.673
    1   AR   Ar   57   3.849   4.202   2.727
    1   AR   Ar   58   0.935   3.797   4.664
    1   AR   Ar   59   2.790   5.870   5.829
    1   AR   Ar   60   0.042   5.159   3.383
    1   AR   Ar   61   0.169   3.501   6.908
    1   AR   Ar   62   6.753   4.490   5.342
    1   AR   Ar   63   2.632   2.465   7.071
    1   AR   Ar   64   0.262   5.573   5.036
    1   AR   Ar   65   3.750   0.526   2.091
    1   AR   Ar   66   1.341   0.953   1.058
    1   AR   Ar   67   4.593   0.512  -0.632
    1   AR   Ar   68   0.813   0.927  -0.251
    1   AR   Ar   69   3.162   1.610   0.018
    1   AR   Ar   70   0.319   1.604   1.700
    1   AR   Ar   71   2.572   0.807   3.025
    1   AR   Ar   72   4.514   1.141   1.671
    1   AR   Ar   73   3.067   0.613   3.870
    1   AR   Ar   74   0.475   0.983   4.375
    1   AR   Ar   75   3.481   0.518   5.017
    1   AR   Ar   76   2.261   0.261   1.011
    1   AR   Ar   77   2.122   0.236   5.514
    1   AR   Ar   78   6.603   5.106   6.145
    1   AR   Ar   79   3.097   7.060   5.916
    1   AR   Ar   80   3.530   5.411   5.092
    1   AR   Ar   81   1.436   6.691   1.325
    1   AR   Ar   82   6.242   4.588   0.642
    1   AR   Ar   83   0.672   3.051  -0.086
    1   AR   Ar   84   1.480   4.198   0.648
    1   AR   Ar   85   2.301   3.812  -0.056
    1   AR   Ar   86   2.199   5.394   1.008
    1   AR   Ar   87   3.025   3.306   2.371
    1   AR   Ar   88   3.377   5.506   1.839
    1   AR   Ar   89   6.523   1.827   0.928
    1   AR   Ar   90   3.479   1.698   5.387
    1   AR   Ar   91   1.944   1.865   3.023
    1   AR   Ar   92   1.623   3.581   2.062
    1   AR   Ar   93   1.960   1.097   6.036
    1   AR   Ar   94   1.331   6.428   9.506
    1   AR   Ar   95   4.439   1.083   5.295
    1   AR   Ar   96   2.605   7.002   4.564
    1   AR   Ar   97   3.947   2.194  -0.608
    1   AR   Ar   98   1.631   4.353   4.149
    1   AR   Ar   99   5.655   0.915  -0.702
    1   AR   Ar  100   0.271   3.324  -2.903
    1   AR   Ar  101   4.109   6.347   2.221
    1   AR   Ar  102   3.625   1.332   2.991
    1   AR   Ar  103   2.548   4.403   0.891
    1   AR   Ar  104   3.744   5.496  -1.460
    1   AR   Ar  105   2.719   1.623   3.795
    1   AR   Ar  106   3.514   2.781   5.337
    1   AR   Ar  107   1.164   5.252   5.602
    1   AR   Ar  108   2.401   1.012   4.753
    1   AR   Ar  109   1.820   3.913   5.192
    1   AR   Ar  110   2.560   2.100   4.765
    1   AR   Ar  111   4.428   6.273   8.042
    1   AR   Ar  112   0.025   6.234   5.760
    1   AR   Ar  113   2.832   4.955  -0.987
    1   AR   Ar  114   2.600   0.211  -1.100
    1   AR   Ar  115   1.975   4.871  -0.292
    1   AR   Ar  116   4.633   0.553   0.773
    1   AR   Ar  117   0.832   4.846   4.328
    1   AR   Ar  118   1.358   5.446   3.583
    1   AR   Ar  119   1.984   4.204   3.009
    1   AR   Ar  120   1.542   6.804   2.770
    1   AR   Ar  121   5.747   4.556   5.696
    1   AR   Ar  122   3.268   5.601   4.014
    1   AR   Ar  123   2.700   3.292   5.537
    1   AR   Ar  124   1.134   5.528   1.402
    1   AR   Ar  125   6.098   3.661   4.780
    1   AR   Ar  126   6.672   0.697   6.685
    1   AR   Ar  127   4.097   3.178   6.107
    1   AR   Ar  128   2.980   4.322   7.548
    1   AR   Ar  129   2.343   5.756   4.679
    1   AR   Ar  130   4.027   1.110  -4.470
    1   AR   Ar  131   4.349   4.913  -2.026
    1   AR   Ar  132   0.454   1.561   0.618
    1   AR   Ar  133   4.516   0.385   4.213
    1   AR   Ar  134   3.712   1.421   4.452
    1   AR   Ar  135   5.830   1.524   3.635
    1   AR   Ar  136   5.987   0.323   2.708
    1   AR   Ar  137   3.568   4.470   5.700
    1   AR   Ar  138   6.000   1.671   5.584
    1   AR   Ar  139   6.161   2.753   5.639
    1   AR   Ar  140   4.450   6.373   4.991
    1   AR   Ar  141   4.294   5.408   4.199
    1   AR   Ar  142   5.122   0.371   6.995
    1   AR   Ar  143   6.346   6.810   6.766
    1   AR   Ar  144   6.248   1.620   4.522
    1   AR   Ar  145   4.363   4.823  -0.573
    1   AR   Ar  146   3.941   2.351   3.282
    1   AR   Ar  147   5.458   3.489  -0.923
    1   AR   Ar  148   3.421   6.499  -1.407
    1   AR   Ar  149   2.478   0.793  -0.021
    1   AR   Ar  150   2.215   2.702   2.404
    1   AR   Ar  151   2.671   2.901   3.473
    1   AR   Ar  152   1.020   2.666  -2.316
    1   AR   Ar  153   5.437   0.531   3.594
    1   AR   Ar  154   4.746   1.884   4.253
    1   AR   Ar  155   6.384   3.699   6.085
    1   AR   Ar  156   2.905   4.635   3.627
    1   AR   Ar  157   1.981   5.431   6.748
    1   AR   Ar  158   0.527   1.621   5.683
    1   AR   Ar  159   4.235   0.323   6.293
    1   AR   Ar  160   1.672   1.741   5.239
    1   AR   Ar  161   4.776   4.348   3.376
    1   AR   Ar  162   4.364   5.964  -0.561
    1   AR   Ar  163   5.632   4.701   1.502
    1   AR   Ar  164   1.851   5.824   2.272
    1   AR   Ar  165   3.527   4.063   1.591
    1   AR   Ar  166   2.655   3.635   4.358
    1   AR   Ar  167   6.123   6.795   3.660
    1   AR   Ar  168   5.500   3.854  -1.966
    1   AR   Ar  169   3.587   3.311   3.549
    1   AR   Ar  170   1.384   3.380   6.198
    1   AR   Ar  171   5.821   4.815   4.550
    1   AR   Ar  172   3.805   3.679   5.027
    1   AR   Ar  173   2.425   2.020   5.867
    1   AR   Ar  174   3.460   6.527   4.805
    1   AR   Ar  175   2.927   0.883   5.960
    1   AR   Ar  176   3.954   2.497   4.338
    1   AR   Ar  177   0.751   4.742  -1.255
    1   AR   Ar  178   2.598   6.601   0.053
    1   AR   Ar  179   3.506   6.962   1.057
    1   AR   Ar  180   4.515   1.763  -6.995
    1   AR   Ar  181   0.078   5.171   1.612
    1   AR   Ar  182   0.812   6.024   2.191
    1   AR   Ar  183   4.842   5.502   1.661
    1   AR   Ar  184   4.522   6.594   0.424
    1   AR   Ar  185   2.673   4.719   4.833
    1   AR   Ar  186   2.787   5.657   3.005
    1   AR   Ar  187   3.528   6.575   3.413
    1   AR   Ar  188   2.440   0.004   2.138
    1   AR   Ar  189   5.181   3.454   6.420
    1   AR   Ar  190   2.421   6.558   3.382
    1   AR   Ar  191   3.624   6.558   7.001
    1   AR   Ar  192   4.604   4.820   6.106
    1   AR   Ar  193   2.400   6.287   1.333
    1   AR   Ar  194   5.553   4.948  -1.011
    1   AR   Ar  195   5.379   1.401   1.035
    1   AR   Ar  196   3.523   0.744  -0.361
    1   AR   Ar  197   4.691   2.230   1.136
    1   AR   Ar  198   5.708   0.288   1.724
    1   AR   Ar  199   1.800   0.595   3.615
    1   AR   Ar  200   5.185   3.281   0.143
    1   AR   Ar  201   6.720   6.605   2.547
    1   AR   Ar  202   5.366   1.091   4.750
    1   AR   Ar  203   0.588   6.578   3.272
    1   AR   Ar  204   4.678   6.079   6.724
    1   AR   Ar  205   5.756   2.105   1.723
    1   AR   Ar  206   5.923   0.576   5.944
    1   AR   Ar  207   0.094   2.957   4.934
    1   AR   Ar  208   1.283   6.014   4.575
    1   AR   Ar  209   6.944   2.384  -2.140
    1   AR   Ar  210   1.504   0.380   0.261
    1   AR   Ar  211   0.157   2.609   0.921
    1   AR   Ar  212   6.169   3.652  -0.130
    1   AR   Ar  213   3.805   1.943   1.875
    1   AR   Ar  214   4.877   3.927   2.223
    1   AR   Ar  215   6.783   2.605   2.093
    1   AR   Ar  216   1.041   2.268   1.073
    1   AR   Ar  217   4.660   1.694   3.298
    1   AR   Ar  218   4.738   3.100   4.630
    1   AR   Ar  219   5.075   3.323   3.204
    1   AR   Ar  220   4.540   3.413   1.069
    1   AR   Ar  221   6.820   5.958   3.963
    1   AR   Ar  222   4.992   7.043   5.632
    1   AR   Ar  223   6.759   1.670   6.292
    1   AR   Ar  224   4.754   2.515   5.515
    1   AR   Ar  225   6.379   3.064   3.277
    1   AR   Ar  226   1.568   3.084   3.071
    1   AR   Ar  227   0.605   3.141   2.300
    1   AR   Ar  228   6.317   1.099   1.583
    1   AR   Ar  229   6.686   4.389  -1.097
    1   AR   Ar  230   3.761   4.282   4.167
    1   AR   Ar  231   4.695   2.235   2.229
    1   AR   Ar  232   5.244   3.097   1.920
    1   AR   Ar  233   6.748   2.384   4.214
    1   AR   Ar  234   5.676   2.670   4.033
    1   AR   Ar  235   0.133   0.435   3.498
    1   AR   Ar  236   5.085   5.553   5.222
    1   AR   Ar  237   4.761   2.194   6.626
    1   AR   Ar  238   5.800   5.901   7.013
    1   AR   Ar  239   0.570   4.265  10.358
    1   AR   Ar  240   1.505   1.881   6.591
    1   AR   Ar  241   1.855   6.034  -0.761
    1   AR   Ar  242   6.047   6.260   1.549
    1   AR   Ar  243   5.178   6.018   2.794
    1   AR   Ar  244   0.325   5.176   0.218
    1   AR   Ar  245   4.033   0.391   3.261
    1   AR   Ar  246   5.221   6.440  -0.583
    1   AR   Ar  247   6.478   3.737   1.478
    1   AR   Ar  248   4.937   5.546   0.266
    1   AR   Ar  249   4.779   6.855   1.435
    1   AR   Ar  250   5.334   6.178   4.006
    1   AR   Ar  251   4.606   4.660   4.840
    1   AR   Ar  252   2.561   4.779   2.302
    1   AR   Ar  253   6.054   2.887   6.816
    1   AR   Ar  254   4.947   2.008   9.930
    1   AR   Ar  255   4.393   5.347   9.405
    1   AR   Ar  256   6.039   5.681   3.446
    7.12000  7.12000 12.00000
Argon-slab step 4655
  256
    1   AR   Ar    1   4.783   3.251  -2.891
    1   AR   Ar    2   5.542   7.041   0.500
    1   AR   Ar    3   4.129   3.258  -1.182
    1   AR   Ar    4   2.434   1.383   1.082
    1   AR   Ar    5   6.087   5.561  -0.153
    1   AR   Ar    6   1.728   1.900   1.858
    1   AR   Ar    7   6.032   4.181   3.434
    1   AR   Ar    8   6.292   2.560  -1.327
    1   AR   Ar    9   0.291   6.837   4.373
    1   AR   Ar   10   6.307   6.352   5.209
    1   AR   Ar   11   1.092   0.375   4.824
    1   AR   Ar   12   6.966   1.397   3.592
    1   AR   Ar   13   6.514   0.582   4.247
    1   AR   Ar   14   4.029   1.418   6.364
    1   AR   Ar   15   3.300   6.878   9.014
    1   AR   Ar   16   0.412   0.450   5.858
    1   AR   Ar   17   6.287   2.959   0.737
    1   AR   Ar   18   6.647   5.480  -1.380
    1   AR   Ar   19   5.119   4.488   0.052
    1   AR   Ar   20   6.650   4.197  -2.931
    1   AR   Ar   21   2.790   1.876   2.434
    1   AR   Ar   22   5.386   1.212   2.472
    1   AR   Ar   23   0.471   6.310   1.126
    1   AR   Ar   24   5.640   2.260   2.994
    1   AR   Ar   25   0.725   2.205   3.997
    1   AR   Ar   26   5.398   6.920   4.654
    1   AR   Ar   27   1.675   0.851   2.429
    1   AR   Ar   28   1.872   2.430   3.920
    1   AR   Ar   29   4.612   1.279   7.250
    1   AR   Ar   30   0.933   1.239   2.881
    1   AR   Ar   31   3.837   0.654   7.493
    1   AR   Ar   32   0.870   2.616   5.635
    1   AR   Ar   33   0.689   4.164  -0.299
    1   AR   Ar   34   0.966   4.957   2.653
    1   AR   Ar   35   5.863   5.236   2.522
    1   AR   Ar   36   5.816   2.725  -2.471
    1   AR   Ar   37   4.041   3.025   1.902
    1   AR   Ar   38   7.065   4.206   4.206
    1   AR   Ar   39   0.286   3.103   3.537
    1   AR   Ar   40   1.758   4.560   1.652
    1   AR   Ar   41   0.483   2.092   2.839
    1   AR   Ar   42   5.478   6.248   6.032
    1   AR   Ar   43   0.014   2.662   6.158
    1   AR   Ar   44   1.006   3.969   3.206
    1   AR   Ar   45   0.495   3.674   5.693
    1   AR   Ar   46   0.439   4.648   6.177
    1   AR   Ar   47   3.953   4.633   7.746
    1   AR   Ar   48   6.249   3.542   7.633
    1   AR   Ar   49   6.717   6.988  -0.641
    1   AR   Ar   50   3.531   5.456   0.706
    1   AR   Ar   51   6.058   3.515   2.381
    1   AR   Ar   52   5.131   2.833  -1.624
    1   AR   Ar   53   4.844   0.068   2.545
    1   AR   Ar   54   0.376   0.305   2.417
    1   AR   Ar   55   0.014   4.205   2.915
    1   AR   Ar   56   6.446   1.604   2.629
    1   AR   Ar   57   3.822   4.219   2.703
    1   AR   Ar   58   0.920   3.797   4.643
    1   AR   Ar   59   2.794   5.872   5.832
    1   AR   Ar   60   0.066   5.158   3.362
    1   AR   Ar   61   0.189   3.514   6.898
    1   AR   Ar   62   6.738   4.470   5.315
    1   AR   Ar   63   2.654   2.449   7.063
    1   AR   Ar   64   0.248   5.556   4.969
    1   AR   Ar   65   3.754   0.540   2.116
    1   AR   Ar   66   1.310   0.948   1.071
    1   AR   Ar   67   4.572   0.513  -0.648
    1   AR   Ar   68   0.775   0.933  -0.244
    1   AR   Ar   69   3.160   1.645   0.003
    1   AR   Ar   70   0.291   1.613   1.742
    1   AR   Ar   71   2.592   0.818   3.078
    1   AR   Ar   72   4.501   1.154   1.684
    1   AR   Ar   73   3.049   0.620   3.886
    1   AR   Ar   74   0.462   1.008   4.333
    1   AR   Ar   75   3.489   0.540   4.979
    1   AR   Ar   76   2.287   0.250   0.992
    1   AR   Ar   77   2.105   0.252   5.501
    1   AR   Ar   78   6.594   5.112   6.133
    1   AR   Ar   79   3.104   7.037   5.885
    1   AR   Ar   80   3.560   5.445   5.095
    1   AR   Ar   81   1.460   6.677   1.319
    1   AR   Ar   82   6.250   4.606   0.610
    1   AR   Ar   83   0.683   3.066  -0.064
    1   AR   Ar   84   1.493   4.192   0.655
    1   AR   Ar   85   2.255   3.818  -0.047
    1   AR   Ar   86   2.204   5.365   1.001
    1   AR   Ar   87   2.976   3.337   2.343
    1   AR   Ar   88   3.341   5.500   1.846
    1   AR   Ar   89   6.514   1.844   0.916
    1   AR   Ar   90   3.478   1.696   5.385
    1   AR   Ar   91   1.927   1.816   3.031
    1   AR   Ar   92   1.640   3.594   2.051
    1   AR   Ar   93   1.946   1.087   6.022
    1   AR   Ar   94   1.323   6.417   9.505
    1   AR   Ar   95   4.425   1.099   5.285
    1   AR   Ar   96   2.621   6.994   4.540
    1   AR   Ar   97   3.960   2.178  -0.593
    1   AR   Ar   98   1.591   4.340   4.150
    1   AR   Ar   99   5.649   0.899  -0.708
    1   AR   Ar  100   0.273   3.321  -2.895
    1   AR   Ar  101   4.117   6.326   2.230
    1   AR   Ar  102   3.612   1.330   2.996
    1   AR   Ar  103   2.542   4.379   0.882
    1   AR   Ar  104   3.759   5.475  -1.468
    1   AR   Ar  105   2.734   1.619   3.802
    1   AR   Ar  106   3.529   2.744   5.315
    1   AR   Ar  107   1.169   5.254   5.606
    1   AR   Ar  108   2.386   1.017   4.751
    1   AR   Ar  109   1.816   3.924   5.192
    1   AR   Ar  110   2.541   2.095   4.781
    1   AR   Ar  111   4.425   6.277   8.055
    1   AR   Ar  112   0.007   6.227   5.752
    1   AR   Ar  113   2.802   4.957  -1.020
    1   AR   Ar  114   2.579   0.214  -1.066
    1   AR   Ar  115   1.975   4.891  -0.297
    1   AR   Ar  116   4.630   0.545   0.784
    1   AR   Ar  117   0.808   4.857   4.342
    1   AR   Ar  118   1.363   5.498   3.590
    1   AR   Ar  119   1.980   4.167   3.010
    1   AR   Ar  120   1.548   6.812   2.762
    1   AR   Ar  121   5.758   4.573   5.695
    1   AR   Ar  122   3.297   5.591   4.020
    1   AR   Ar  123   2.675   3.283   5.549
    1   AR   Ar  124   1.126   5.511   1.402
    1   AR   Ar  125   6.098   3.669   4.796
    1   AR   Ar  126   6.677   0.707   6.683
    1   AR   Ar  127   4.089   3.187   6.133
    1   AR   Ar  128   2.917   4.359   7.527
    1   AR   Ar  129   2.300   5.756   4.691
    1   AR   Ar  130   4.035   1.151  -4.472
    1   AR   Ar  131   4.350   4.879  -2.011
    1   AR   Ar  132   0.465   1.545   0.588
    1   AR   Ar  133   4.507   0.382   4.228
    1   AR   Ar  134   3.695   1.412   4.454
    1   AR   Ar  135   5.809   1.541   3.651
    1   AR   Ar  136   5.978   0.349   2.734
    1   AR   Ar  137   3.588   4.444   5.695
    1   AR   Ar  138   6.000   1.698   5.572
    1   AR   Ar  139   6.191   2.731   5.635
    1   AR   Ar  140   4.474   6.407   4.975
    1   AR   Ar  141   4.297   5.417   4.201
    1   AR   Ar  142   5.121   0.381   7.031
    1   AR   Ar  143   6.327   6.812   6.791
    1   AR   Ar  144   6.268   1.616   4.548
    1   AR   Ar  145   4.352   4.823  -0.567
    1   AR   Ar  146   3.899   2.381   3.296
    1   AR   Ar  147   5.462   3.502  -0.946
    1   AR   Ar  148   3.408   6.487  -1.414
    1   AR   Ar  149   2.495   0.847   0.011
    1   AR   Ar  150   2.184   2.733   2.434
    1   AR   Ar  151   2.667   2.903   3.481
    1   AR   Ar  152   1.030   2.657  -2.303
    1   AR   Ar  153   5.446   0.523   3.564
    1   AR   Ar  154   4.763   1.905   4.248
    1   AR   Ar  155   6.419   3.679   6.088
    1   AR   Ar  156   2.919   4.672   3.597
    1   AR   Ar  157   1.995   5.451   6.737
    1   AR   Ar  158   0.512   1.638   5.648
    1   AR   Ar  159   4.227   0.319   6.317
    1   AR   Ar  160   1.662   1.741   5.240
    1   AR   Ar  161   4.814   4.340   3.367
    1   AR   Ar  162   4.336   5.966  -0.573
    1   AR   Ar  163   5.665   4.700   1.540
    1   AR   Ar  164   1.854   5.828   2.277
    1   AR   Ar  165   3.513   4.055   1.591
    1   AR   Ar  166   2.663   3.652   4.390
    1   AR   Ar  167   6.136   6.812   3.674
    1   AR   Ar  168   5.516   3.855  -1.976
    1   AR   Ar  169   3.609   3.300   3.580
    1   AR   Ar  170   1.374   3.374   6.206
    1   AR   Ar  171   5.828   4.842   4.552
    1   AR   Ar  172   3.810   3.681   4.992
    1   AR   Ar  173   2.417   2.018   5.914
    1   AR   Ar  174   3.456   6.533   4.793
    1   AR   Ar  175   2.932   0.892   5.972
    1   AR   Ar  176   3.933   2.479   4.335
    1   AR   Ar  177   0.729   4.730  -1.245
    1   AR   Ar  178   2.603   6.601   0.090
    1   AR   Ar  179   3.483   6.962   1.067
    1   AR   Ar  180   4.506   1.759  -7.015
    1   AR   Ar  181   0.068   5.174   1.597
    1   AR   Ar  182   0.819   6.007   2.214
    1   AR   Ar  183   4.834   5.501   1.661
    1   AR   Ar  184   4.524   6.574   0.470
    1   AR   Ar  185   2.683   4.710   4.822
    1   AR   Ar  186   2.784   5.687   2.979
    1   AR   Ar  187   3.527   6.578   3.402
    1   AR   Ar  188   2.429   7.108   2.101
    1   AR   Ar  189   5.188   3.434   6.414
    1   AR   Ar  190   2.419   6.555   3.396
    1   AR   Ar  191   3.632   6.514   7.025
    1   AR   Ar  192   4.580   4.808   6.113
    1   AR   Ar  193   2.402   6.257   1.335
    1   AR   Ar  194   5.550   4.940  -1.023
    1   AR   Ar  195   5.404   1.381   0.997
    1   AR   Ar  196   3.516   0.720  -0.379
    1   AR   Ar  197   4.717   2.238   1.172
    1   AR   Ar  198   5.709   0.279   1.714
    1   AR   Ar  199   1.833   0.584   3.640
    1   AR   Ar  200   5.160   3.288   0.137
    1   AR   Ar  201   6.728   6.612   2.569
    1   AR   Ar  202   5.379   1.069   4.741
    1   AR   Ar  203   0.610   6.541   3.278
    1   AR   Ar  204   4.661   6.063   6.755
    1   AR   Ar  205   5.743   2.117   1.742
    1   AR   Ar  206   5.938   0.550   5.943
    1   AR   Ar  207   0.074   2.961   4.974
    1   AR   Ar  208   1.301   5.993   4.579
    1   AR   Ar  209   6.939   2.409  -2.135
    1   AR   Ar  210   1.497   0.365   0.205
    1   AR   Ar  211   0.139   2.572   0.933
    1   AR   Ar  212   6.147   3.672  -0.113
    1   AR   Ar  213   3.828   1.935   1.900
    1   AR   Ar  214   4.856   3.946   2.203
    1   AR   Ar  215   6.791   2.616   2.071
    1   AR   Ar  216   1.078   2.248   1.066
    1   AR   Ar  217   4.664   1.677   3.288
    1   AR   Ar  218   4.710   3.129   4.653
    1   AR   Ar  219   5.067   3.319   3.229
    1   AR   Ar  220   4.536   3.428   1.082
    1   AR   Ar  221   6.842   5.958   3.974
    1   AR   Ar  222   4.995   7.038   5.626
    1   AR   Ar  223   6.751   1.645   6.313
    1   AR   Ar  224   4.744   2.526   5.500
    1   AR   Ar  225   6.400   3.073   3.260
    1   AR   Ar  226   1.548   3.055   3.079
    1   AR   Ar  227   0.592   3.137   2.307
    1   AR   Ar  228   6.299   1.080   1.584
    1   AR   Ar  229   6.697   4.402  -1.131
    1   AR   Ar  230   3.773   4.284   4.189
    1   AR   Ar  231   4.684   2.252   2.227
    1   AR   Ar  232   5.249   3.086   1.930
    1   AR   Ar  233   6.776   2.378   4.169
    1   AR   Ar  234   5.671   2.661   4.013
    1   AR   Ar  235   0.159   0.437   3.471
    1   AR   Ar  236   5.125   5.577   5.225
    1   AR   Ar  237   4.759   2.190   6.637
    1   AR   Ar  238   5.797   5.907   7.038
    1   AR   Ar  239   0.590   4.287  10.344
    1   AR   Ar  240   1.527   1.884   6.576
    1   AR   Ar  241   1.847   6.012  -0.781
    1   AR   Ar  242   6.028   6.249   1.541
    1   AR   Ar  243   5.160   5.987   2.770
    1   AR   Ar  244   0.311   5.158   0.216
    1   AR   Ar  245   4.055   0.419   3.290
    1   AR   Ar  246   5.243   6.443  -0.569
    1   AR   Ar  247   6.490   3.730   1.513
    1   AR   Ar  248   4.926   5.553   0.271
    1   AR   Ar  249   4.778   6.832   1.441
    1   AR   Ar  250   5.363   6.164   4.005
    1   AR   Ar  251   4.592   4.704   4.856
    1   AR   Ar  252   2.554   4.757   2.277
    1   AR   Ar  253   6.049   2.887   6.795
    1   AR   Ar  254   4.958   2.032   9.912
    1   AR   Ar  255   4.420   5.336   9.404
    1   AR   Ar  256   6.034   5.680   3.414
    7.12000  7.12000 12.00000
Argon-slab step 4660
  256
    1   AR   Ar    1   4.800   3.238  -2.885
    1   AR   Ar    2   5.545   7.030   0.470
    1   AR   Ar    3   4.141   3.224  -1.202
    1   AR   Ar    4   2.443   1.365   1.081
    1   AR   Ar    5   6.087   5.556  -0.140
    1   AR   Ar    6   1.752   1.916   1.859
    1   AR   Ar    7   6.011   4.174   3.431
    1   AR   Ar    8   6.319   2.570  -1.354
    1   AR   Ar    9   0.277   6.845   4.395
    1   AR   Ar   10   6.288   6.322   5.237
    1   AR   Ar   11   1.076   0.368   4.836
    1   AR   Ar   12   6.978   1.417   3.600
    1   AR   Ar   13   6.465   0.574   4.223
    1   AR   Ar   14   4.002   1.422   6.380
    1   AR   Ar   15   3.294   6.873   9.015
    1   AR   Ar   16   0.431   0.431   5.865
    1   AR   Ar   17   6.251   2.947   0.738
    1   AR   Ar   18   6.673   5.498  -1.363
    1   AR   Ar   19   5.151   4.472   0.036
    1   AR   Ar   20   6.638   4.207  -2.945
    1   AR   Ar   21   2.802   1.860   2.382
    1   AR   Ar   22   5.348   1.218   2.493
    1   AR   Ar   23   0.502   6.293   1.130
    1   AR   Ar   24   5.628   2.253   2.996
    1   AR   Ar   25   0.750   2.211   4.057
    1   AR   Ar   26   5.410   6.925   4.619
    1   AR   Ar   27   1.682   0.834   2.429
    1   AR   Ar   28   1.853   2.420   3.886
    1   AR   Ar   29   4.577   1.296   7.240
    1   AR   Ar   30   0.952   1.239   2.883
    1   AR   Ar   31   3.807   0.697   7.493
    1   AR   Ar   32   0.853   2.619   5.643
    1   AR   Ar   33   0.698   4.172  -0.278
    1   AR   Ar   34   0.967   4.959   2.637
    1   AR   Ar   35   5.888   5.214   2.501
    1   AR   Ar   36   5.798   2.707  -2.442
    1   AR   Ar   37   4.045   3.024   1.886
    1   AR   Ar   38   7.033   4.185   4.206
    1   AR   Ar   39   0.298   3.072   3.560
    1   AR   Ar   40   1.724   4.583   1.630
    1   AR   Ar   41   0.448   2.094   2.815
    1   AR   Ar   42   5.468   6.250   6.076
    1   AR   Ar   43   0.041   2.662   6.164
    1   AR   Ar   44   1.016   4.036   3.184
    1   AR   Ar   45   0.522   3.671   5.701
    1   AR   Ar   46   0.416   4.643   6.142
    1   AR   Ar   47   4.005   4.605   7.765
    1   AR   Ar   48   6.282   3.518   7.622
    1   AR   Ar   49   6.710   6.979  -0.634
    1   AR   Ar   50   3.531   5.469   0.752
    1   AR   Ar   51   6.091   3.515   2.348
    1   AR   Ar   52   5.129   2.860  -1.641
    1   AR   Ar   53   4.847   0.070   2.559
    1   AR   Ar   54   0.367   0.315   2.397
    1   AR   Ar   55   0.009   4.193   2.915
    1   AR   Ar   56   6.479   1.660   2.583
    1   AR   Ar   57   3.794   4.213   2.709
    1   AR   Ar   58   0.894   3.790   4.625
    1   AR   Ar   59   2.799   5.874   5.833
    1   AR   Ar   60   0.093   5.158   3.342
    1   AR   Ar   61   0.206   3.527   6.885
    1   AR   Ar   62   6.735   4.461   5.296
    1   AR   Ar   63   2.676   2.433   7.054
    1   AR   Ar   64   0.234   5.539   4.900
    1   AR   Ar   65   3.756   0.551   2.144
    1   AR   Ar   66   1.279   0.946   1.088
    1   AR   Ar   67   4.551   0.513  -0.663
    1   AR   Ar   68   0.733   0.942  -0.239
    1   AR   Ar   69   3.160   1.685  -0.011
    1   AR   Ar   70   0.289   1.624   1.763
    1   AR   Ar   71   2.613   0.837   3.102
    1   AR   Ar   72   4.494   1.168   1.696
    1   AR   Ar   73   3.073   0.637   3.924
    1   AR   Ar   74   0.447   1.037   4.293
    1   AR   Ar   75   3.496   0.560   4.943
    1   AR   Ar   76   2.313   0.238   0.973
    1   AR   Ar   77   2.075   0.241   5.480
    1   AR   Ar   78   6.603   5.141   6.095
    1   AR   Ar   79   3.115   7.002   5.852
    1   AR   Ar   80   3.590   5.479   5.098
    1   AR   Ar   81   1.482   6.666   1.316
    1   AR   Ar   82   6.257   4.623   0.578
    1   AR   Ar   83   0.693   3.080  -0.040
    1   AR   Ar   84   1.504   4.186   0.660
    1   AR   Ar   85   2.208   3.824  -0.039
    1   AR   Ar   86   2.189   5.349   1.015
    1   AR   Ar   87   2.935   3.375   2.315
    1   AR   Ar   88   3.303   5.495   1.853
    1   AR   Ar   89   6.503   1.863   0.903
    1   AR   Ar   90   3.486   1.688   5.384
    1   AR   Ar   91   1.907   1.765   3.040
    1   AR   Ar   92   1.657   3.605   2.043
    1   AR   Ar   93   1.922   1.080   6.012
    1   AR   Ar   94   1.316   6.406   9.503
    1   AR   Ar   95   4.410   1.114   5.274
    1   AR   Ar   96   2.627   6.992   4.514
    1   AR   Ar   97   3.974   2.163  -0.578
    1   AR   Ar   98   1.577   4.321   4.141
    1   AR   Ar   99   5.642   0.881  -0.713
    1   AR   Ar  100   0.276   3.317  -2.886
    1   AR   Ar  101   4.125   6.305   2.240
    1   AR   Ar  102   3.597   1.330   3.000
    1   AR   Ar  103   2.540   4.353   0.874
    1   AR   Ar  104   3.769   5.457  -1.470
    1   AR   Ar  105   2.748   1.620   3.808
    1   AR   Ar  106   3.546   2.702   5.292
    1   AR   Ar  107   1.169   5.255   5.591
    1   AR   Ar  108   2.372   1.021   4.748
    1   AR   Ar  109   1.806   3.931   5.179
    1   AR   Ar  110   2.526   2.092   4.796
    1   AR   Ar  111   4.423   6.280   8.066
    1   AR   Ar  112   7.118   6.221   5.753
    1   AR   Ar  113   2.773   4.958  -1.052
    1   AR   Ar  114   2.560   0.217  -1.029
    1   AR   Ar  115   1.973   4.911  -0.300
    1   AR   Ar  116   4.633   0.534   0.796
    1   AR   Ar  117   0.796   4.860   4.346
    1   AR   Ar  118   1.367   5.550   3.596
    1   AR   Ar  119   1.982   4.131   3.010
    1   AR   Ar  120   1.575   6.827   2.741
    1   AR   Ar  121   5.765   4.589   5.694
    1   AR   Ar  122   3.320   5.584   4.027
    1   AR   Ar  123   2.646   3.276   5.560
    1   AR   Ar  124   1.124   5.488   1.395
    1   AR   Ar  125   6.099   3.676   4.812
    1   AR   Ar  126   6.685   0.712   6.685
    1   AR   Ar  127   4.083   3.197   6.158
    1   AR   Ar  128   2.853   4.395   7.505
    1   AR   Ar  129   2.254   5.748   4.699
    1   AR   Ar  130   4.043   1.191  -4.473
    1   AR   Ar  131   4.357   4.840  -2.000
    1   AR   Ar  132   0.472   1.528   0.559
    1   AR   Ar  133   4.500   0.379   4.249
    1   AR   Ar  134   3.681   1.402   4.443
    1   AR   Ar  135   5.786   1.550   3.668
    1   AR   Ar  136   5.977   0.374   2.755
    1   AR   Ar  137   3.607   4.419   5.690
    1   AR   Ar  138   6.003   1.714   5.561
    1   AR   Ar  139   6.219   2.711   5.630
    1   AR   Ar  140   4.500   6.438   4.956
    1   AR   Ar  141   4.303   5.431   4.184
    1   AR   Ar  142   5.121   0.388   7.065
    1   AR   Ar  143   6.308   6.814   6.813
    1   AR   Ar  144   6.289   1.605   4.581
    1   AR   Ar  145   4.340   4.825  -0.563
    1   AR   Ar  146   3.856   2.406   3.303
    1   AR   Ar  147   5.468   3.521  -0.963
    1   AR   Ar  148   3.394   6.476  -1.419
    1   AR   Ar  149   2.508   0.895   0.043
    1   AR   Ar  150   2.157   2.756   2.453
    1   AR   Ar  151   2.662   2.905   3.485
    1   AR   Ar  152   1.038   2.649  -2.291
    1   AR   Ar  153   5.451   0.517   3.542
    1   AR   Ar  154   4.788   1.925   4.252
    1   AR   Ar  155   6.456   3.662   6.091
    1   AR   Ar  156   2.931   4.706   3.565
    1   AR   Ar  157   2.009   5.470   6.725
    1   AR   Ar  158   0.496   1.651   5.613
    1   AR   Ar  159   4.217   0.315   6.341
    1   AR   Ar  160   1.644   1.740   5.238
    1   AR   Ar  161   4.851   4.335   3.358
    1   AR   Ar  162   4.303   5.965  -0.585
    1   AR   Ar  163   5.698   4.699   1.579
    1   AR   Ar  164   1.861   5.831   2.282
    1   AR   Ar  165   3.499   4.047   1.591
    1   AR   Ar  166   2.672   3.669   4.423
    1   AR   Ar  167   6.153   6.829   3.686
    1   AR   Ar  168   5.512   3.847  -1.971
    1   AR   Ar  169   3.633   3.300   3.616
    1   AR   Ar  170   1.366   3.370   6.216
    1   AR   Ar  171   5.820   4.867   4.541
    1   AR   Ar  172   3.815   3.681   4.961
    1   AR   Ar  173   2.414   2.020   5.961
    1   AR   Ar  174   3.458   6.535   4.783
    1   AR   Ar  175   2.945   0.911   5.981
    1   AR   Ar  176   3.905   2.464   4.336
    1   AR   Ar  177   0.707   4.719  -1.234
    1   AR   Ar  178   2.607   6.603   0.128
    1   AR   Ar  179   3.460   6.961   1.079
    1   AR   Ar  180   4.494   1.737  -6.982
    1   AR   Ar  181   0.059   5.179   1.583
    1   AR   Ar  182   0.819   5.996   2.244
    1   AR   Ar  183   4.827   5.502   1.662
    1   AR   Ar  184   4.524   6.554   0.510
    1   AR   Ar  185   2.695   4.701   4.810
    1   AR   Ar  186   2.782   5.713   2.950
    1   AR   Ar  187   3.526   6.579   3.391
    1   AR   Ar  188   2.418   7.092   2.063
    1   AR   Ar  189   5.194   3.414   6.406
    1   AR   Ar  190   2.416   6.559   3.414
    1   AR   Ar  191   3.640   6.472   7.048
    1   AR   Ar  192   4.557   4.797   6.118
    1   AR   Ar  193   2.412   6.239   1.343
    1   AR   Ar  194   5.546   4.931  -1.033
    1   AR   Ar  195   5.430   1.359   0.959
    1   AR   Ar  196   3.497   0.725  -0.375
    1   AR   Ar  197   4.743   2.248   1.206
    1   AR   Ar  198   5.702   0.264   1.701
    1   AR   Ar  199   1.855   0.571   3.673
    1   AR   Ar  200   5.135   3.296   0.131
    1   AR   Ar  201   6.736   6.618   2.593
    1   AR   Ar  202   5.392   1.045   4.731
    1   AR   Ar  203   0.631   6.504   3.283
    1   AR   Ar  204   4.645   6.047   6.785
    1   AR   Ar  205   5.731   2.129   1.763
    1   AR   Ar  206   5.951   0.523   5.939
    1   AR   Ar  207   0.052   2.967   5.015
    1   AR   Ar  208   1.313   5.973   4.583
    1   AR   Ar  209   6.937   2.434  -2.133
    1   AR   Ar  210   1.496   0.346   0.150
    1   AR   Ar  211   0.117   2.541   0.945
    1   AR   Ar  212   6.126   3.693  -0.095
    1   AR   Ar  213   3.834   1.924   1.922
    1   AR   Ar  214   4.845   3.975   2.186
    1   AR   Ar  215   6.798   2.624   2.048
    1   AR   Ar  216   1.124   2.227   1.061
    1   AR   Ar  217   4.673   1.653   3.266
    1   AR   Ar  218   4.684   3.162   4.673
    1   AR   Ar  219   5.062   3.311   3.252
    1   AR   Ar  220   4.534   3.448   1.103
    1   AR   Ar  221   6.868   5.962   3.991
    1   AR   Ar  222   4.995   7.043   5.622
    1   AR   Ar  223   6.743   1.627   6.332
    1   AR   Ar  224   4.734   2.534   5.488
    1   AR   Ar  225   6.417   3.079   3.245
    1   AR   Ar  226   1.516   3.030   3.098
    1   AR   Ar  227   0.580   3.134   2.317
    1   AR   Ar  228   6.285   1.066   1.590
    1   AR   Ar  229   6.708   4.414  -1.164
    1   AR   Ar  230   3.786   4.292   4.205
    1   AR   Ar  231   4.688   2.268   2.237
    1   AR   Ar  232   5.255   3.065   1.932
    1   AR   Ar  233   6.808   2.380   4.118
    1   AR   Ar  234   5.665   2.651   3.995
    1   AR   Ar  235   0.186   0.431   3.442
    1   AR   Ar  236   5.167   5.600   5.227
    1   AR   Ar  237   4.758   2.189   6.647
    1   AR   Ar  238   5.793   5.924   7.035
    1   AR   Ar  239   0.610   4.309  10.330
    1   AR   Ar  240   1.547   1.890   6.560
    1   AR   Ar  241   1.841   5.990  -0.801
    1   AR   Ar  242   6.008   6.238   1.535
    1   AR   Ar  243   5.158   5.998   2.765
    1   AR   Ar  244   0.296   5.140   0.214
    1   AR   Ar  245   4.078   0.447   3.317
    1   AR   Ar  246   5.271   6.449  -0.552
    1   AR   Ar  247   6.507   3.725   1.538
    1   AR   Ar  248   4.916   5.560   0.277
    1   AR   Ar  249   4.778   6.808   1.452
    1   AR   Ar  250   5.384   6.144   4.003
    1   AR   Ar  251   4.579   4.742   4.877
    1   AR   Ar  252   2.551   4.737   2.254
    1   AR   Ar  253   6.039   2.882   6.772
    1   AR   Ar  254   4.968   2.055   9.894
    1   AR   Ar  255   4.447   5.325   9.403
    1   AR   Ar  256   6.030   5.676   3.382
    7.12000  7.12000 12.00000
Argon-slab step 4665
  256
    1   AR   Ar    1   4.820   3.223  -2.876
    1   AR   Ar    2   5.553   7.004   0.485
    1   AR   Ar    3   4.142   3.218  -1.209
    1   AR   Ar    4   2.454   1.358   1.079
    1   AR   Ar    5   6.085   5.551  -0.128
    1   AR   Ar    6   1.758   1.904   1.851
    1   AR   Ar    7   5.991   4.167   3.428
    1   AR   Ar    8   6.339   2.584  -1.375
    1   AR   Ar    9   0.262   6.854   4.417
    1   AR   Ar   10   6.257   6.293   5.256
    1   AR   Ar   11   1.063   0.360   4.850
    1   AR   Ar   12   6.981   1.445   3.600
    1   AR   Ar   13   6.416   0.568   4.199
    1   AR   Ar   14   3.972   1.427   6.390
    1   AR   Ar   15   3.296   6.881   9.031
    1   AR   Ar   16   0.450   0.412   5.871
    1   AR   Ar   17   6.214   2.936   0.741
    1   AR   Ar   18   6.698   5.515  -1.346
    1   AR   Ar   19   5.188   4.454   0.022
    1   AR   Ar   20   6.632   4.239  -2.962
    1   AR   Ar   21   2.815   1.843   2.331
    1   AR   Ar   22   5.311   1.226   2.512
    1   AR   Ar   23   0.529   6.276   1.135
    1   AR   Ar   24   5.612   2.255   2.986
    1   AR   Ar   25   0.777   2.216   4.118
    1   AR   Ar   26   5.424   6.939   4.588
    1   AR   Ar   27   1.705   0.807   2.425
    1   AR   Ar   28   1.831   2.405   3.858
    1   AR   Ar   29   4.549   1.316   7.231
    1   AR   Ar   30   0.958   1.237   2.897
    1   AR   Ar   31   3.772   0.734   7.492
    1   AR   Ar   32   0.854   2.625   5.642
    1   AR   Ar   33   0.708   4.181  -0.256
    1   AR   Ar   34   0.968   4.964   2.620
    1   AR   Ar   35   5.912   5.189   2.474
    1   AR   Ar   36   5.781   2.690  -2.414
    1   AR   Ar   37   4.044   3.023   1.876
    1   AR   Ar   38   7.001   4.163   4.205
    1   AR   Ar   39   0.316   3.044   3.581
    1   AR   Ar   40   1.688   4.609   1.609
    1   AR   Ar   41   0.412   2.106   2.799
    1   AR   Ar   42   5.474   6.258   6.080
    1   AR   Ar   43   0.054   2.664   6.178
    1   AR   Ar   44   1.016   4.100   3.167
    1   AR   Ar   45   0.544   3.670   5.707
    1   AR   Ar   46   0.393   4.638   6.106
    1   AR   Ar   47   4.056   4.577   7.784
    1   AR   Ar   48   6.316   3.494   7.610
    1   AR   Ar   49   6.693   6.979  -0.625
    1   AR   Ar   50   3.517   5.461   0.746
    1   AR   Ar   51   6.113   3.512   2.341
    1   AR   Ar   52   5.122   2.882  -1.660
    1   AR   Ar   53   4.852   0.072   2.571
    1   AR   Ar   54   0.358   0.335   2.366
    1   AR   Ar   55   0.001   4.178   2.915
    1   AR   Ar   56   6.498   1.685   2.573
    1   AR   Ar   57   3.766   4.205   2.715
    1   AR   Ar   58   0.873   3.785   4.609
    1   AR   Ar   59   2.804   5.877   5.833
    1   AR   Ar   60   0.120   5.160   3.324
    1   AR   Ar   61   0.223   3.540   6.870
    1   AR   Ar   62   6.728   4.465   5.309
    1   AR   Ar   63   2.697   2.415   7.043
    1   AR   Ar   64   0.249   5.532   4.850
    1   AR   Ar   65   3.756   0.561   2.173
    1   AR   Ar   66   1.250   0.945   1.106
    1   AR   Ar   67   4.531   0.513  -0.676
    1   AR   Ar   68   0.690   0.949  -0.241
    1   AR   Ar   69   3.162   1.730  -0.023
    1   AR   Ar   70   0.326   1.639   1.754
    1   AR   Ar   71   2.634   0.861   3.100
    1   AR   Ar   72   4.494   1.181   1.708
    1   AR   Ar   73   3.107   0.648   3.974
    1   AR   Ar   74   0.438   1.065   4.262
    1   AR   Ar   75   3.499   0.570   4.914
    1   AR   Ar   76   2.339   0.226   0.954
    1   AR   Ar   77   2.044   0.219   5.452
    1   AR   Ar   78   6.610   5.174   6.058
    1   AR   Ar   79   3.127   6.964   5.818
    1   AR   Ar   80   3.621   5.510   5.100
    1   AR   Ar   81   1.480   6.644   1.314
    1   AR   Ar   82   6.264   4.641   0.544
    1   AR   Ar   83   0.703   3.094  -0.015
    1   AR   Ar   84   1.510   4.181   0.665
    1   AR   Ar   85   2.163   3.829  -0.033
    1   AR   Ar   86   2.159   5.338   1.042
    1   AR   Ar   87   2.901   3.419   2.288
    1   AR   Ar   88   3.265   5.490   1.861
    1   AR   Ar   89   6.485   1.876   0.890
    1   AR   Ar   90   3.489   1.677   5.391
    1   AR   Ar   91   1.887   1.714   3.048
    1   AR   Ar   92   1.673   3.616   2.036
    1   AR   Ar   93   1.893   1.074   6.007
    1   AR   Ar   94   1.310   6.416   9.503
    1   AR   Ar   95   4.396   1.128   5.263
    1   AR   Ar   96   2.621   6.994   4.486
    1   AR   Ar   97   3.988   2.149  -0.564
    1   AR   Ar   98   1.584   4.300   4.122
    1   AR   Ar   99   5.636   0.863  -0.718
    1   AR   Ar  100   0.277   3.313  -2.877
    1   AR   Ar  101   4.123   6.313   2.233
    1   AR   Ar  102   3.581   1.334   3.004
    1   AR   Ar  103   2.540   4.327   0.867
    1   AR   Ar  104   3.775   5.443  -1.466
    1   AR   Ar  105   2.762   1.626   3.815
    1   AR   Ar  106   3.562   2.664   5.272
    1   AR   Ar  107   1.169   5.256   5.573
    1   AR   Ar  108   2.360   1.024   4.745
    1   AR   Ar  109   1.796   3.937   5.156
    1   AR   Ar  110   2.517   2.093   4.811
    1   AR   Ar  111   4.419   6.284   8.075
    1   AR   Ar  112   7.118   6.212   5.761
    1   AR   Ar  113   2.746   4.961  -1.085
    1   AR   Ar  114   2.542   0.219  -0.991
    1   AR   Ar  115   1.970   4.931  -0.301
    1   AR   Ar  116   4.636   0.523   0.806
    1   AR   Ar  117   0.794   4.859   4.341
    1   AR   Ar  118   1.371   5.600   3.599
    1   AR   Ar  119   1.996   4.095   3.008
    1   AR   Ar  120   1.601   6.842   2.719
    1   AR   Ar  121   5.766   4.604   5.693
    1   AR   Ar  122   3.334   5.581   4.033
    1   AR   Ar  123   2.617   3.268   5.571
    1   AR   Ar  124   1.126   5.461   1.386
    1   AR   Ar  125   6.101   3.684   4.829
    1   AR   Ar  126   6.694   0.706   6.693
    1   AR   Ar  127   4.077   3.207   6.182
    1   AR   Ar  128   2.789   4.431   7.483
    1   AR   Ar  129   2.225   5.737   4.709
    1   AR   Ar  130   4.051   1.232  -4.475
    1   AR   Ar  131   4.370   4.794  -1.992
    1   AR   Ar  132   0.477   1.514   0.535
    1   AR   Ar  133   4.494   0.377   4.276
    1   AR   Ar  134   3.671   1.398   4.418
    1   AR   Ar  135   5.764   1.550   3.689
    1   AR   Ar  136   5.989   0.395   2.761
    1   AR   Ar  137   3.625   4.396   5.685
    1   AR   Ar  138   6.027   1.699   5.558
    1   AR   Ar  139   6.248   2.696   5.624
    1   AR   Ar  140   4.524   6.465   4.933
    1   AR   Ar  141   4.316   5.450   4.165
    1   AR   Ar  142   5.122   0.392   7.096
    1   AR   Ar  143   6.288   6.818   6.833
    1   AR   Ar  144   6.314   1.593   4.614
    1   AR   Ar  145   4.327   4.830  -0.562
    1   AR   Ar  146   3.815   2.416   3.299
    1   AR   Ar  147   5.476   3.545  -0.972
    1   AR   Ar  148   3.379   6.467  -1.423
    1   AR   Ar  149   2.516   0.939   0.077
    1   AR   Ar  150   2.139   2.765   2.461
    1   AR   Ar  151   2.659   2.908   3.486
    1   AR   Ar  152   1.045   2.640  -2.278
    1   AR   Ar  153   5.443   0.515   3.536
    1   AR   Ar  154   4.818   1.944   4.263
    1   AR   Ar  155   6.494   3.646   6.093
    1   AR   Ar  156   2.942   4.738   3.532
    1   AR   Ar  157   2.024   5.490   6.712
    1   AR   Ar  158   0.479   1.660   5.577
    1   AR   Ar  159   4.207   0.311   6.366
    1   AR   Ar  160   1.620   1.740   5.236
    1   AR   Ar  161   4.886   4.332   3.350
    1   AR   Ar  162   4.267   5.964  -0.597
    1   AR   Ar  163   5.730   4.695   1.616
    1   AR   Ar  164   1.871   5.832   2.285
    1   AR   Ar  165   3.485   4.040   1.592
    1   AR   Ar  166   2.681   3.685   4.455
    1   AR   Ar  167   6.172   6.844   3.696
    1   AR   Ar  168   5.502   3.837  -1.965
    1   AR   Ar  169   3.657   3.317   3.657
    1   AR   Ar  170   1.364   3.364   6.228
    1   AR   Ar  171   5.801   4.890   4.523
    1   AR   Ar  172   3.818   3.672   4.939
    1   AR   Ar  173   2.417   2.025   6.006
    1   AR   Ar  174   3.467   6.531   4.775
    1   AR   Ar  175   2.962   0.934   5.990
    1   AR   Ar  176   3.873   2.452   4.338
    1   AR   Ar  177   0.683   4.708  -1.224
    1   AR   Ar  178   2.611   6.607   0.167
    1   AR   Ar  179   3.437   6.960   1.091
    1   AR   Ar  180   4.488   1.721  -6.956
    1   AR   Ar  181   0.050   5.183   1.568
    1   AR   Ar  182   0.815   5.990   2.279
    1   AR   Ar  183   4.820   5.504   1.664
    1   AR   Ar  184   4.522   6.532   0.543
    1   AR   Ar  185   2.708   4.693   4.798
    1   AR   Ar  186   2.782   5.734   2.919
    1   AR   Ar  187   3.525   6.580   3.382
    1   AR   Ar  188   2.407   7.076   2.027
    1   AR   Ar  189   5.199   3.394   6.395
    1   AR   Ar  190   2.407   6.583   3.426
    1   AR   Ar  191   3.650   6.431   7.071
    1   AR   Ar  192   4.535   4.786   6.122
    1   AR   Ar  193   2.432   6.232   1.356
    1   AR   Ar  194   5.539   4.926  -1.031
    1   AR   Ar  195   5.454   1.336   0.922
    1   AR   Ar  196   3.478   0.728  -0.372
    1   AR   Ar  197   4.770   2.258   1.238
    1   AR   Ar  198   5.688   0.241   1.689
    1   AR   Ar  199   1.869   0.554   3.713
    1   AR   Ar  200   5.109   3.303   0.126
    1   AR   Ar  201   6.744   6.624   2.619
    1   AR   Ar  202   5.402   1.019   4.720
    1   AR   Ar  203   0.650   6.466   3.289
    1   AR   Ar  204   4.629   6.032   6.816
    1   AR   Ar  205   5.722   2.137   1.785
    1   AR   Ar  206   5.961   0.496   5.933
    1   AR   Ar  207   0.028   2.974   5.053
    1   AR   Ar  208   1.307   5.956   4.587
    1   AR   Ar  209   6.940   2.459  -2.140
    1   AR   Ar  210   1.500   0.323   0.097
    1   AR   Ar  211   0.101   2.516   0.958
    1   AR   Ar  212   6.105   3.717  -0.077
    1   AR   Ar  213   3.824   1.910   1.942
    1   AR   Ar  214   4.842   4.006   2.170
    1   AR   Ar  215   6.801   2.631   2.025
    1   AR   Ar  216   1.171   2.206   1.057
    1   AR   Ar  217   4.681   1.627   3.239
    1   AR   Ar  218   4.662   3.196   4.687
    1   AR   Ar  219   5.059   3.299   3.274
    1   AR   Ar  220   4.536   3.470   1.120
    1   AR   Ar  221   6.895   5.969   4.008
    1   AR   Ar  222   4.995   7.056   5.620
    1   AR   Ar  223   6.738   1.621   6.348
    1   AR   Ar  224   4.735   2.530   5.470
    1   AR   Ar  225   6.432   3.084   3.233
    1   AR   Ar  226   1.468   3.013   3.129
    1   AR   Ar  227   0.571   3.131   2.330
    1   AR   Ar  228   6.277   1.060   1.598
    1   AR   Ar  229   6.718   4.426  -1.196
    1   AR   Ar  230   3.796   4.310   4.209
    1   AR   Ar  231   4.705   2.280   2.261
    1   AR   Ar  232   5.262   3.043   1.929
    1   AR   Ar  233   6.838   2.385   4.065
    1   AR   Ar  234   5.659   2.642   3.978
    1   AR   Ar  235   0.213   0.420   3.413
    1   AR   Ar  236   5.210   5.623   5.229
    1   AR   Ar  237   4.758   2.191   6.653
    1   AR   Ar  238   5.791   5.954   6.993
    1   AR   Ar  239   0.630   4.331  10.317
    1   AR   Ar  240   1.564   1.899   6.546
    1   AR   Ar  241   1.836   5.967  -0.819
    1   AR   Ar  242   5.986   6.227   1.529
    1   AR   Ar  243   5.166   6.038   2.771
    1   AR   Ar  244   0.263   5.156   0.223
    1   AR   Ar  245   4.099   0.473   3.338
    1   AR   Ar  246   5.300   6.455  -0.533
    1   AR   Ar  247   6.536   3.727   1.538
    1   AR   Ar  248   4.907   5.567   0.281
    1   AR   Ar  249   4.781   6.785   1.473
    1   AR   Ar  250   5.398   6.118   4.000
    1   AR   Ar  251   4.567   4.773   4.903
    1   AR   Ar  252   2.552   4.718   2.233
    1   AR   Ar  253   6.052   2.879   6.810
    1   AR   Ar  254   4.979   2.078   9.876
    1   AR   Ar  255   4.474   5.314   9.401
    1   AR   Ar  256   6.032   5.672   3.352
    7.12000  7.12000 12.00000
Argon-slab step 4670
  256
    1   AR   Ar    1   4.848   3.196  -2.857
    1   AR   Ar    2   5.560   6.977   0.502
    1   AR   Ar    3   4.145   3.211  -1.215
    1   AR   Ar    4   2.464   1.352   1.079
    1   AR   Ar    5   6.082   5.544  -0.116
    1   AR   Ar    6   1.738   1.898   1.848
    1   AR   Ar    7   5.972   4.159   3.424
    1   AR   Ar    8   6.348   2.600  -1.387
    1   AR   Ar    9   0.246   6.864   4.437
    1   AR   Ar   10   6.217   6.265   5.270
    1   AR   Ar   11   1.051   0.352   4.865
    1   AR   Ar   12   6.971   1.480   3.584
    1   AR   Ar   13   6.369   0.569   4.178
    1   AR   Ar   14   3.939   1.430   6.394
    1   AR   Ar   15   3.298   6.889   9.046
    1   AR   Ar   16   0.468   0.394   5.877
    1   AR   Ar   17   6.175   2.926   0.745
    1   AR   Ar   18   6.722   5.533  -1.327
    1   AR   Ar   19   5.217   4.442   0.016
    1   AR   Ar   20   6.629   4.229  -2.961
    1   AR   Ar   21   2.824   1.825   2.282
    1   AR   Ar   22   5.276   1.233   2.528
    1   AR   Ar   23   0.548   6.283   1.131
    1   AR   Ar   24   5.598   2.254   2.982
    1   AR   Ar   25   0.804   2.218   4.178
    1   AR   Ar   26   5.442   6.962   4.560
    1   AR   Ar   27   1.740   0.774   2.414
    1   AR   Ar   28   1.810   2.385   3.839
    1   AR   Ar   29   4.558   1.321   7.234
    1   AR   Ar   30   0.952   1.235   2.918
    1   AR   Ar   31   3.731   0.766   7.491
    1   AR   Ar   32   0.872   2.631   5.630
    1   AR   Ar   33   0.718   4.190  -0.232
    1   AR   Ar   34   0.970   4.972   2.599
    1   AR   Ar   35   5.936   5.172   2.460
    1   AR   Ar   36   5.770   2.674  -2.390
    1   AR   Ar   37   4.039   3.021   1.871
    1   AR   Ar   38   6.969   4.141   4.204
    1   AR   Ar   39   0.341   3.023   3.597
    1   AR   Ar   40   1.651   4.630   1.595
    1   AR   Ar   41   0.396   2.125   2.812
    1   AR   Ar   42   5.483   6.267   6.069
    1   AR   Ar   43   0.053   2.668   6.202
    1   AR   Ar   44   1.008   4.157   3.156
    1   AR   Ar   45   0.560   3.670   5.710
    1   AR   Ar   46   0.373   4.632   6.071
    1   AR   Ar   47   4.106   4.549   7.802
    1   AR   Ar   48   6.352   3.473   7.601
    1   AR   Ar   49   6.663   6.993  -0.613
    1   AR   Ar   50   3.520   5.451   0.733
    1   AR   Ar   51   6.119   3.501   2.355
    1   AR   Ar   52   5.109   2.900  -1.679
    1   AR   Ar   53   4.857   0.076   2.583
    1   AR   Ar   54   0.350   0.356   2.334
    1   AR   Ar   55   7.108   4.160   2.914
    1   AR   Ar   56   6.494   1.665   2.613
    1   AR   Ar   57   3.776   4.211   2.709
    1   AR   Ar   58   0.854   3.779   4.594
    1   AR   Ar   59   2.809   5.879   5.832
    1   AR   Ar   60   0.149   5.163   3.307
    1   AR   Ar   61   0.240   3.553   6.853
    1   AR   Ar   62   6.726   4.465   5.317
    1   AR   Ar   63   2.718   2.398   7.031
    1   AR   Ar   64   0.281   5.536   4.820
    1   AR   Ar   65   3.756   0.569   2.205
    1   AR   Ar   66   1.223   0.944   1.124
    1   AR   Ar   67   4.512   0.511  -0.689
    1   AR   Ar   68   0.648   0.949  -0.252
    1   AR   Ar   69   3.130   1.705  -0.024
    1   AR   Ar   70   0.363   1.654   1.743
    1   AR   Ar   71   2.653   0.884   3.086
    1   AR   Ar   72   4.503   1.191   1.718
    1   AR   Ar   73   3.143   0.654   4.020
    1   AR   Ar   74   0.440   1.085   4.245
    1   AR   Ar   75   3.501   0.568   4.899
    1   AR   Ar   76   2.364   0.215   0.935
    1   AR   Ar   77   2.015   0.192   5.421
    1   AR   Ar   78   6.611   5.206   6.034
    1   AR   Ar   79   3.139   6.926   5.781
    1   AR   Ar   80   3.654   5.539   5.103
    1   AR   Ar   81   1.466   6.617   1.312
    1   AR   Ar   82   6.271   4.658   0.512
    1   AR   Ar   83   0.713   3.107   0.012
    1   AR   Ar   84   1.509   4.179   0.670
    1   AR   Ar   85   2.121   3.833  -0.032
    1   AR   Ar   86   2.129   5.320   1.064
    1   AR   Ar   87   2.871   3.468   2.262
    1   AR   Ar   88   3.225   5.487   1.868
    1   AR   Ar   89   6.458   1.880   0.878
    1   AR   Ar   90   3.489   1.659   5.403
    1   AR   Ar   91   1.872   1.664   3.054
    1   AR   Ar   92   1.688   3.628   2.031
    1   AR   Ar   93   1.863   1.066   6.002
    1   AR   Ar   94   1.304   6.439   9.504
    1   AR   Ar   95   4.384   1.141   5.253
    1   AR   Ar   96   2.606   6.998   4.457
    1   AR   Ar   97   3.999   2.140  -0.555
    1   AR   Ar   98   1.599   4.296   4.109
    1   AR   Ar   99   5.629   0.843  -0.721
    1   AR   Ar  100   0.278   3.308  -2.866
    1   AR   Ar  101   4.121   6.321   2.227
    1   AR   Ar  102   3.566   1.342   3.007
    1   AR   Ar  103   2.544   4.300   0.863
    1   AR   Ar  104   3.777   5.431  -1.458
    1   AR   Ar  105   2.782   1.660   3.821
    1   AR   Ar  106   3.577   2.636   5.259
    1   AR   Ar  107   1.168   5.258   5.553
    1   AR   Ar  108   2.349   1.024   4.742
    1   AR   Ar  109   1.805   3.951   5.125
    1   AR   Ar  110   2.513   2.097   4.826
    1   AR   Ar  111   4.416   6.288   8.083
    1   AR   Ar  112   7.115   6.169   5.763
    1   AR   Ar  113   2.719   4.965  -1.118
    1   AR   Ar  114   2.525   0.221  -0.950
    1   AR   Ar  115   1.966   4.950  -0.300
    1   AR   Ar  116   4.640   0.512   0.817
    1   AR   Ar  117   0.788   4.859   4.333
    1   AR   Ar  118   1.375   5.649   3.599
    1   AR   Ar  119   2.021   4.059   3.005
    1   AR   Ar  120   1.624   6.857   2.698
    1   AR   Ar  121   5.762   4.619   5.691
    1   AR   Ar  122   3.339   5.582   4.040
    1   AR   Ar  123   2.611   3.281   5.542
    1   AR   Ar  124   1.129   5.433   1.377
    1   AR   Ar  125   6.103   3.691   4.846
    1   AR   Ar  126   6.704   0.688   6.705
    1   AR   Ar  127   4.061   3.210   6.169
    1   AR   Ar  128   2.755   4.445   7.470
    1   AR   Ar  129   2.218   5.721   4.721
    1   AR   Ar  130   4.058   1.266  -4.495
    1   AR   Ar  131   4.386   4.745  -1.987
    1   AR   Ar  132   0.477   1.508   0.524
    1   AR   Ar  133   4.491   0.376   4.310
    1   AR   Ar  134   3.668   1.405   4.383
    1   AR   Ar  135   5.743   1.545   3.715
    1   AR   Ar  136   6.013   0.413   2.752
    1   AR   Ar  137   3.617   4.395   5.704
    1   AR   Ar  138   6.044   1.679   5.563
    1   AR   Ar  139   6.275   2.686   5.617
    1   AR   Ar  140   4.545   6.487   4.905
    1   AR   Ar  141   4.337   5.471   4.146
    1   AR   Ar  142   5.123   0.395   7.126
    1   AR   Ar  143   6.271   6.829   6.849
    1   AR   Ar  144   6.344   1.581   4.637
    1   AR   Ar  145   4.314   4.836  -0.561
    1   AR   Ar  146   3.776   2.413   3.286
    1   AR   Ar  147   5.485   3.572  -0.971
    1   AR   Ar  148   3.365   6.459  -1.426
    1   AR   Ar  149   2.518   0.974   0.111
    1   AR   Ar  150   2.127   2.763   2.463
    1   AR   Ar  151   2.664   2.938   3.491
    1   AR   Ar  152   1.033   2.615  -2.273
    1   AR   Ar  153   5.421   0.516   3.548
    1   AR   Ar  154   4.841   1.950   4.255
    1   AR   Ar  155   6.534   3.631   6.094
    1   AR   Ar  156   2.951   4.766   3.498
    1   AR   Ar  157   2.040   5.509   6.698
    1   AR   Ar  158   0.470   1.675   5.556
    1   AR   Ar  159   4.196   0.307   6.390
    1   AR   Ar  160   1.592   1.742   5.233
    1   AR   Ar  161   4.920   4.334   3.341
    1   AR   Ar  162   4.232   5.963  -0.608
    1   AR   Ar  163   5.760   4.686   1.645
    1   AR   Ar  164   1.883   5.832   2.287
    1   AR   Ar  165   3.472   4.033   1.594
    1   AR   Ar  166   2.692   3.699   4.486
    1   AR   Ar  167   6.213   6.852   3.673
    1   AR   Ar  168   5.492   3.835  -1.966
    1   AR   Ar  169   3.685   3.340   3.693
    1   AR   Ar  170   1.359   3.356   6.237
    1   AR   Ar  171   5.782   4.912   4.505
    1   AR   Ar  172   3.813   3.656   4.930
    1   AR   Ar  173   2.428   2.031   6.046
    1   AR   Ar  174   3.480   6.525   4.768
    1   AR   Ar  175   2.980   0.957   5.997
    1   AR   Ar  176   3.843   2.441   4.337
    1   AR   Ar  177   0.659   4.698  -1.214
    1   AR   Ar  178   2.614   6.610   0.207
    1   AR   Ar  179   3.414   6.959   1.103
    1   AR   Ar  180   4.506   1.726  -6.952
    1   AR   Ar  181   0.061   5.198   1.558
    1   AR   Ar  182   0.808   5.986   2.314
    1   AR   Ar  183   4.843   5.539   1.663
    1   AR   Ar  184   4.516   6.509   0.566
    1   AR   Ar  185   2.722   4.687   4.785
    1   AR   Ar  186   2.784   5.751   2.887
    1   AR   Ar  187   3.524   6.581   3.373
    1   AR   Ar  188   2.396   7.062   1.991
    1   AR   Ar  189   5.203   3.374   6.383
    1   AR   Ar  190   2.404   6.603   3.446
    1   AR   Ar  191   3.659   6.391   7.094
    1   AR   Ar  192   4.544   4.774   6.134
    1   AR   Ar  193   2.461   6.233   1.372
    1   AR   Ar  194   5.515   4.937  -0.984
    1   AR   Ar  195   5.477   1.314   0.887
    1   AR   Ar  196   3.459   0.729  -0.369
    1   AR   Ar  197   4.796   2.268   1.265
    1   AR   Ar  198   5.669   0.213   1.677
    1   AR   Ar  199   1.880   0.536   3.757
    1   AR   Ar  200   5.083   3.311   0.121
    1   AR   Ar  201   6.751   6.630   2.646
    1   AR   Ar  202   5.412   0.991   4.708
    1   AR   Ar  203   0.669   6.429   3.296
    1   AR   Ar  204   4.616   6.017   6.846
    1   AR   Ar  205   5.717   2.139   1.807
    1   AR   Ar  206   5.970   0.467   5.926
    1   AR   Ar  207   0.003   2.982   5.089
    1   AR   Ar  208   1.280   5.944   4.592
    1   AR   Ar  209   6.952   2.484  -2.157
    1   AR   Ar  210   1.506   0.300   0.046
    1   AR   Ar  211   0.096   2.499   0.974
    1   AR   Ar  212   6.086   3.741  -0.059
    1   AR   Ar  213   3.804   1.898   1.961
    1   AR   Ar  214   4.839   4.039   2.155
    1   AR   Ar  215   6.801   2.637   2.000
    1   AR   Ar  216   1.216   2.185   1.049
    1   AR   Ar  217   4.686   1.602   3.214
    1   AR   Ar  218   4.647   3.228   4.693
    1   AR   Ar  219   5.057   3.282   3.295
    1   AR   Ar  220   4.545   3.489   1.131
    1   AR   Ar  221   6.920   5.976   4.023
    1   AR   Ar  222   4.996   7.077   5.619
    1   AR   Ar  223   6.738   1.630   6.361
    1   AR   Ar  224   4.735   2.522   5.457
    1   AR   Ar  225   6.446   3.086   3.222
    1   AR   Ar  226   1.406   3.005   3.165
    1   AR   Ar  227   0.564   3.131   2.344
    1   AR   Ar  228   6.274   1.060   1.609
    1   AR   Ar  229   6.726   4.436  -1.227
    1   AR   Ar  230   3.806   4.340   4.201
    1   AR   Ar  231   4.726   2.286   2.299
    1   AR   Ar  232   5.268   3.029   1.923
    1   AR   Ar  233   6.860   2.388   4.016
    1   AR   Ar  234   5.654   2.633   3.965
    1   AR   Ar  235   0.239   0.407   3.386
    1   AR   Ar  236   5.254   5.645   5.229
    1   AR   Ar  237   4.758   2.195   6.657
    1   AR   Ar  238   5.787   5.976   6.959
    1   AR   Ar  239   0.650   4.353  10.303
    1   AR   Ar  240   1.573   1.912   6.536
    1   AR   Ar  241   1.832   5.943  -0.836
    1   AR   Ar  242   5.963   6.217   1.524
    1   AR   Ar  243   5.173   6.079   2.776
    1   AR   Ar  244   0.230   5.170   0.232
    1   AR   Ar  245   4.119   0.499   3.355
    1   AR   Ar  246   5.313   6.459  -0.532
    1   AR   Ar  247   6.578   3.735   1.512
    1   AR   Ar  248   4.899   5.571   0.284
    1   AR   Ar  249   4.786   6.763   1.504
    1   AR   Ar  250   5.406   6.088   3.999
    1   AR   Ar  251   4.556   4.801   4.935
    1   AR   Ar  252   2.570   4.731   2.219
    1   AR   Ar  253   6.067   2.872   6.842
    1   AR   Ar  254   4.989   2.101   9.858
    1   AR   Ar  255   4.500   5.303   9.399
    1   AR   Ar  256   6.042   5.669   3.325
    7.12000  7.12000 12.00000
Argon-slab step 4675
  256
    1   AR   Ar    1   4.878   3.168  -2.837
    1   AR   Ar    2   5.566   6.950   0.520
    1   AR   Ar    3   4.187   3.199  -1.197
    1   AR   Ar    4   2.474   1.347   1.084
    1   AR   Ar    5   6.078   5.538  -0.106
    1   AR   Ar    6   1.719   1.894   1.856
    1   AR   Ar    7   5.956   4.150   3.420
    1   AR   Ar    8   6.348   2.619  -1.389
    1   AR   Ar    9   0.249   6.869   4.448
    1   AR   Ar   10   6.172   6.237   5.278
    1   AR   Ar   11   1.041   0.346   4.880
    1   AR   Ar   12   6.952   1.514   3.555
    1   AR   Ar   13   6.323   0.579   4.161
    1   AR   Ar   14   3.904   1.434   6.396
    1   AR   Ar   15   3.301   6.897   9.061
    1   AR   Ar   16   0.485   0.378   5.881
    1   AR   Ar   17   6.135   2.918   0.751
    1   AR   Ar   18   6.747   5.550  -1.306
    1   AR   Ar   19   5.241   4.434   0.017
    1   AR   Ar   20   6.628   4.191  -2.946
    1   AR   Ar   21   2.827   1.805   2.236
    1   AR   Ar   22   5.252   1.235   2.533
    1   AR   Ar   23   0.554   6.324   1.116
    1   AR   Ar   24   5.589   2.244   2.992
    1   AR   Ar   25   0.799   2.209   4.207
    1   AR   Ar   26   5.444   6.976   4.547
    1   AR   Ar   27   1.778   0.741   2.400
    1   AR   Ar   28   1.793   2.359   3.828
    1   AR   Ar   29   4.572   1.329   7.246
    1   AR   Ar   30   0.956   1.229   2.923
    1   AR   Ar   31   3.687   0.795   7.490
    1   AR   Ar   32   0.902   2.637   5.612
    1   AR   Ar   33   0.729   4.201  -0.207
    1   AR   Ar   34   0.974   4.989   2.571
    1   AR   Ar   35   5.958   5.192   2.493
    1   AR   Ar   36   5.765   2.656  -2.372
    1   AR   Ar   37   4.030   3.016   1.873
    1   AR   Ar   38   6.936   4.119   4.201
    1   AR   Ar   39   0.378   3.015   3.606
    1   AR   Ar   40   1.617   4.637   1.593
    1   AR   Ar   41   0.377   2.147   2.825
    1   AR   Ar   42   5.490   6.279   6.052
    1   AR   Ar   43   0.046   2.673   6.231
    1   AR   Ar   44   0.998   4.204   3.154
    1   AR   Ar   45   0.569   3.670   5.707
    1   AR   Ar   46   0.354   4.627   6.037
    1   AR   Ar   47   4.156   4.522   7.820
    1   AR   Ar   48   6.382   3.455   7.594
    1   AR   Ar   49   6.631   7.007  -0.600
    1   AR   Ar   50   3.549   5.441   0.711
    1   AR   Ar   51   6.105   3.476   2.366
    1   AR   Ar   52   5.088   2.914  -1.693
    1   AR   Ar   53   4.863   0.081   2.595
    1   AR   Ar   54   0.358   0.367   2.360
    1   AR   Ar   55   7.090   4.139   2.912
    1   AR   Ar   56   6.489   1.645   2.652
    1   AR   Ar   57   3.786   4.215   2.703
    1   AR   Ar   58   0.829   3.769   4.582
    1   AR   Ar   59   2.813   5.881   5.829
    1   AR   Ar   60   0.178   5.168   3.292
    1   AR   Ar   61   0.256   3.567   6.834
    1   AR   Ar   62   6.729   4.462   5.318
    1   AR   Ar   63   2.739   2.380   7.018
    1   AR   Ar   64   0.307   5.548   4.801
    1   AR   Ar   65   3.756   0.575   2.238
    1   AR   Ar   66   1.197   0.944   1.143
    1   AR   Ar   67   4.494   0.509  -0.701
    1   AR   Ar   68   0.609   0.941  -0.275
    1   AR   Ar   69   3.100   1.676  -0.023
    1   AR   Ar   70   0.399   1.670   1.733
    1   AR   Ar   71   2.667   0.905   3.067
    1   AR   Ar   72   4.517   1.199   1.726
    1   AR   Ar   73   3.170   0.653   4.043
    1   AR   Ar   74   0.451   1.100   4.240
    1   AR   Ar   75   3.524   0.525   4.944
    1   AR   Ar   76   2.387   0.205   0.916
    1   AR   Ar   77   1.989   0.164   5.388
    1   AR   Ar   78   6.593   5.209   6.054
    1   AR   Ar   79   3.153   6.890   5.743
    1   AR   Ar   80   3.687   5.564   5.106
    1   AR   Ar   81   1.461   6.594   1.315
    1   AR   Ar   82   6.278   4.675   0.481
    1   AR   Ar   83   0.723   3.120   0.041
    1   AR   Ar   84   1.497   4.178   0.678
    1   AR   Ar   85   2.085   3.833  -0.040
    1   AR   Ar   86   2.105   5.304   1.077
    1   AR   Ar   87   2.842   3.518   2.238
    1   AR   Ar   88   3.187   5.486   1.874
    1   AR   Ar   89   6.422   1.876   0.866
    1   AR   Ar   90   3.481   1.642   5.415
    1   AR   Ar   91   1.863   1.617   3.059
    1   AR   Ar   92   1.701   3.641   2.025
    1   AR   Ar   93   1.835   1.056   5.998
    1   AR   Ar   94   1.299   6.462   9.505
    1   AR   Ar   95   4.376   1.153   5.241
    1   AR   Ar   96   2.586   7.003   4.430
    1   AR   Ar   97   3.994   2.150  -0.565
    1   AR   Ar   98   1.614   4.320   4.108
    1   AR   Ar   99   5.621   0.823  -0.724
    1   AR   Ar  100   0.279   3.303  -2.854
    1   AR   Ar  101   4.119   6.328   2.223
    1   AR   Ar  102   3.559   1.353   3.011
    1   AR   Ar  103   2.550   4.276   0.862
    1   AR   Ar  104   3.777   5.420  -1.447
    1   AR   Ar  105   2.799   1.698   3.826
    1   AR   Ar  106   3.583   2.620   5.264
    1   AR   Ar  107   1.167   5.260   5.531
    1   AR   Ar  108   2.340   1.023   4.738
    1   AR   Ar  109   1.792   3.952   5.095
    1   AR   Ar  110   2.513   2.103   4.840
    1   AR   Ar  111   4.411   6.292   8.090
    1   AR   Ar  112   7.118   6.125   5.767
    1   AR   Ar  113   2.693   4.970  -1.151
    1   AR   Ar  114   2.509   0.223  -0.908
    1   AR   Ar  115   1.961   4.968  -0.297
    1   AR   Ar  116   4.644   0.501   0.828
    1   AR   Ar  117   0.783   4.855   4.319
    1   AR   Ar  118   1.379   5.695   3.593
    1   AR   Ar  119   2.052   4.022   3.002
    1   AR   Ar  120   1.644   6.870   2.679
    1   AR   Ar  121   5.753   4.634   5.688
    1   AR   Ar  122   3.336   5.588   4.047
    1   AR   Ar  123   2.607   3.293   5.514
    1   AR   Ar  124   1.125   5.416   1.367
    1   AR   Ar  125   6.107   3.697   4.863
    1   AR   Ar  126   6.715   0.663   6.719
    1   AR   Ar  127   4.065   3.192   6.158
    1   AR   Ar  128   2.767   4.425   7.468
    1   AR   Ar  129   2.228   5.701   4.734
    1   AR   Ar  130   4.064   1.297  -4.529
    1   AR   Ar  131   4.402   4.706  -1.985
    1   AR   Ar  132   0.474   1.512   0.526
    1   AR   Ar  133   4.488   0.375   4.350
    1   AR   Ar  134   3.675   1.425   4.345
    1   AR   Ar  135   5.724   1.535   3.742
    1   AR   Ar  136   6.044   0.430   2.734
    1   AR   Ar  137   3.614   4.356   5.666
    1   AR   Ar  138   6.053   1.654   5.578
    1   AR   Ar  139   6.298   2.679   5.611
    1   AR   Ar  140   4.564   6.504   4.874
    1   AR   Ar  141   4.366   5.493   4.126
    1   AR   Ar  142   5.125   0.395   7.154
    1   AR   Ar  143   6.258   6.848   6.862
    1   AR   Ar  144   6.381   1.568   4.647
    1   AR   Ar  145   4.303   4.843  -0.562
    1   AR   Ar  146   3.737   2.402   3.266
    1   AR   Ar  147   5.496   3.602  -0.963
    1   AR   Ar  148   3.352   6.446  -1.439
    1   AR   Ar  149   2.505   0.992   0.144
    1   AR   Ar  150   2.117   2.755   2.465
    1   AR   Ar  151   2.673   2.974   3.496
    1   AR   Ar  152   1.015   2.587  -2.270
    1   AR   Ar  153   5.390   0.517   3.569
    1   AR   Ar  154   4.857   1.948   4.235
    1   AR   Ar  155   6.575   3.618   6.094
    1   AR   Ar  156   2.959   4.791   3.462
    1   AR   Ar  157   2.056   5.528   6.682
    1   AR   Ar  158   0.465   1.695   5.544
    1   AR   Ar  159   4.184   0.304   6.415
    1   AR   Ar  160   1.561   1.745   5.229
    1   AR   Ar  161   4.950   4.338   3.332
    1   AR   Ar  162   4.198   5.963  -0.617
    1   AR   Ar  163   5.787   4.668   1.660
    1   AR   Ar  164   1.895   5.832   2.286
    1   AR   Ar  165   3.461   4.027   1.595
    1   AR   Ar  166   2.705   3.708   4.513
    1   AR   Ar  167   6.253   6.849   3.645
    1   AR   Ar  168   5.483   3.840  -1.974
    1   AR   Ar  169   3.727   3.340   3.684
    1   AR   Ar  170   1.351   3.342   6.240
    1   AR   Ar  171   5.763   4.935   4.488
    1   AR   Ar  172   3.794   3.640   4.929
    1   AR   Ar  173   2.442   2.041   6.074
    1   AR   Ar  174   3.494   6.521   4.760
    1   AR   Ar  175   2.998   0.977   6.005
    1   AR   Ar  176   3.815   2.430   4.328
    1   AR   Ar  177   0.636   4.689  -1.203
    1   AR   Ar  178   2.618   6.612   0.245
    1   AR   Ar  179   3.390   6.957   1.116
    1   AR   Ar  180   4.523   1.731  -6.948
    1   AR   Ar  181   0.077   5.216   1.549
    1   AR   Ar  182   0.800   5.986   2.346
    1   AR   Ar  183   4.867   5.575   1.662
    1   AR   Ar  184   4.506   6.488   0.583
    1   AR   Ar  185   2.738   4.686   4.773
    1   AR   Ar  186   2.796   5.768   2.863
    1   AR   Ar  187   3.523   6.583   3.364
    1   AR   Ar  188   2.386   7.051   1.958
    1   AR   Ar  189   5.206   3.353   6.369
    1   AR   Ar  190   2.401   6.624   3.466
    1   AR   Ar  191   3.666   6.353   7.117
    1   AR   Ar  192   4.555   4.762   6.146
    1   AR   Ar  193   2.495   6.236   1.386
    1   AR   Ar  194   5.492   4.949  -0.936
    1   AR   Ar  195   5.499   1.292   0.854
    1   AR   Ar  196   3.442   0.728  -0.366
    1   AR   Ar  197   4.820   2.278   1.287
    1   AR   Ar  198   5.648   0.184   1.666
    1   AR   Ar  199   1.890   0.517   3.801
    1   AR   Ar  200   5.057   3.319   0.116
    1   AR   Ar  201   6.750   6.648   2.640
    1   AR   Ar  202   5.421   0.963   4.695
    1   AR   Ar  203   0.679   6.401   3.297
    1   AR   Ar  204   4.606   6.002   6.876
    1   AR   Ar  205   5.719   2.131   1.829
    1   AR   Ar  206   5.978   0.439   5.917
    1   AR   Ar  207   7.099   2.990   5.120
    1   AR   Ar  208   1.236   5.938   4.598
    1   AR   Ar  209   6.971   2.509  -2.185
    1   AR   Ar  210   1.515   0.277  -0.002
    1   AR   Ar  211   0.101   2.491   0.991
    1   AR   Ar  212   6.068   3.766  -0.041
    1   AR   Ar  213   3.783   1.888   1.981
    1   AR   Ar  214   4.835   4.071   2.140
    1   AR   Ar  215   6.798   2.640   1.976
    1   AR   Ar  216   1.254   2.166   1.034
    1   AR   Ar  217   4.681   1.582   3.198
    1   AR   Ar  218   4.646   3.254   4.691
    1   AR   Ar  219   5.056   3.263   3.313
    1   AR   Ar  220   4.561   3.486   1.134
    1   AR   Ar  221   6.942   5.985   4.032
    1   AR   Ar  222   4.998   7.104   5.620
    1   AR   Ar  223   6.747   1.621   6.349
    1   AR   Ar  224   4.734   2.510   5.446
    1   AR   Ar  225   6.460   3.085   3.217
    1   AR   Ar  226   1.337   3.005   3.197
    1   AR   Ar  227   0.560   3.132   2.362
    1   AR   Ar  228   6.273   1.065   1.622
    1   AR   Ar  229   6.739   4.432  -1.245
    1   AR   Ar  230   3.814   4.378   4.185
    1   AR   Ar  231   4.744   2.283   2.348
    1   AR   Ar  232   5.275   3.030   1.913
    1   AR   Ar  233   6.869   2.388   3.977
    1   AR   Ar  234   5.651   2.626   3.954
    1   AR   Ar  235   0.263   0.394   3.363
    1   AR   Ar  236   5.297   5.666   5.226
    1   AR   Ar  237   4.758   2.203   6.658
    1   AR   Ar  238   5.780   5.983   6.936
    1   AR   Ar  239   0.670   4.375  10.289
    1   AR   Ar  240   1.572   1.927   6.531
    1   AR   Ar  241   1.828   5.919  -0.853
    1   AR   Ar  242   5.938   6.207   1.520
    1   AR   Ar  243   5.181   6.121   2.780
    1   AR   Ar  244   0.196   5.184   0.243
    1   AR   Ar  245   4.138   0.524   3.368
    1   AR   Ar  246   5.343   6.436  -0.522
    1   AR   Ar  247   6.626   3.746   1.475
    1   AR   Ar  248   4.893   5.572   0.285
    1   AR   Ar  249   4.794   6.742   1.540
    1   AR   Ar  250   5.409   6.057   4.001
    1   AR   Ar  251   4.544   4.826   4.969
    1   AR   Ar  252   2.586   4.740   2.207
    1   AR   Ar  253   6.081   2.860   6.867
    1   AR   Ar  254   5.000   2.125   9.840
    1   AR   Ar  255   4.482   5.288   9.376
    1   AR   Ar  256   6.059   5.669   3.303
    7.12000  7.12000 12.00000
Argon-slab step 4680
  256
    1   AR   Ar    1   4.908   3.142  -2.814
    1   AR   Ar    2   5.570   6.923   0.540
    1   AR   Ar    3   4.228   3.187  -1.177
    1   AR   Ar    4   2.481   1.345   1.099
    1   AR   Ar    5   6.072   5.533  -0.097
    1   AR   Ar    6   1.706   1.884   1.876
    1   AR   Ar    7   5.948   4.138   3.417
    1   AR   Ar    8   6.343   2.640  -1.386
    1   AR   Ar    9   0.291   6.881   4.458
    1   AR   Ar   10   6.132   6.212   5.282
    1   AR   Ar   11   1.032   0.342   4.894
    1   AR   Ar   12   6.931   1.536   3.522
    1   AR   Ar   13   6.281   0.598   4.148
    1   AR   Ar   14   3.870   1.438   6.397
    1   AR   Ar   15   3.303   6.904   9.076
    1   AR   Ar   16   0.502   0.362   5.886
    1   AR   Ar   17   6.095   2.911   0.758
    1   AR   Ar   18   6.770   5.566  -1.285
    1   AR   Ar   19   5.263   4.428   0.018
    1   AR   Ar   20   6.627   4.151  -2.931
    1   AR   Ar   21   2.819   1.785   2.194
    1   AR   Ar   22   5.246   1.228   2.522
    1   AR   Ar   23   0.544   6.359   1.098
    1   AR   Ar   24   5.581   2.236   2.996
    1   AR   Ar   25   0.773   2.193   4.216
    1   AR   Ar   26   5.438   6.985   4.542
    1   AR   Ar   27   1.817   0.712   2.382
    1   AR   Ar   28   1.782   2.329   3.823
    1   AR   Ar   29   4.588   1.337   7.258
    1   AR   Ar   30   0.929   1.215   2.905
    1   AR   Ar   31   3.641   0.822   7.487
    1   AR   Ar   32   0.936   2.642   5.589
    1   AR   Ar   33   0.740   4.214  -0.181
    1   AR   Ar   34   0.981   5.012   2.534
    1   AR   Ar   35   5.979   5.205   2.514
    1   AR   Ar   36   5.769   2.636  -2.361
    1   AR   Ar   37   4.018   3.010   1.880
    1   AR   Ar   38   6.904   4.097   4.199
    1   AR   Ar   39   0.421   3.021   3.609
    1   AR   Ar   40   1.588   4.619   1.610
    1   AR   Ar   41   0.358   2.171   2.839
    1   AR   Ar   42   5.491   6.296   6.030
    1   AR   Ar   43   0.042   2.681   6.255
    1   AR   Ar   44   0.989   4.240   3.163
    1   AR   Ar   45   0.570   3.672   5.700
    1   AR   Ar   46   0.340   4.625   6.007
    1   AR   Ar   47   4.172   4.525   7.820
    1   AR   Ar   48   6.378   3.441   7.587
    1   AR   Ar   49   6.599   7.021  -0.587
    1   AR   Ar   50   3.578   5.432   0.690
    1   AR   Ar   51   6.089   3.454   2.373
    1   AR   Ar   52   5.060   2.927  -1.702
    1   AR   Ar   53   4.870   0.087   2.606
    1   AR   Ar   54   0.370   0.376   2.394
    1   AR   Ar   55   7.069   4.116   2.910
    1   AR   Ar   56   6.479   1.625   2.684
    1   AR   Ar   57   3.795   4.219   2.697
    1   AR   Ar   58   0.800   3.757   4.571
    1   AR   Ar   59   2.765   5.863   5.796
    1   AR   Ar   60   0.207   5.175   3.280
    1   AR   Ar   61   0.273   3.581   6.814
    1   AR   Ar   62   6.734   4.456   5.314
    1   AR   Ar   63   2.760   2.362   7.008
    1   AR   Ar   64   0.322   5.565   4.799
    1   AR   Ar   65   3.756   0.581   2.272
    1   AR   Ar   66   1.173   0.945   1.163
    1   AR   Ar   67   4.513   0.520  -0.675
    1   AR   Ar   68   0.573   0.926  -0.306
    1   AR   Ar   69   3.091   1.675  -0.028
    1   AR   Ar   70   0.435   1.687   1.723
    1   AR   Ar   71   2.676   0.918   3.048
    1   AR   Ar   72   4.537   1.204   1.733
    1   AR   Ar   73   3.185   0.644   4.043
    1   AR   Ar   74   0.467   1.112   4.240
    1   AR   Ar   75   3.537   0.507   4.926
    1   AR   Ar   76   2.405   0.202   0.903
    1   AR   Ar   77   1.965   0.134   5.355
    1   AR   Ar   78   6.571   5.218   6.075
    1   AR   Ar   79   3.166   6.859   5.704
    1   AR   Ar   80   3.721   5.583   5.111
    1   AR   Ar   81   1.473   6.576   1.322
    1   AR   Ar   82   6.286   4.692   0.453
    1   AR   Ar   83   0.733   3.132   0.070
    1   AR   Ar   84   1.476   4.181   0.689
    1   AR   Ar   85   2.054   3.830  -0.056
    1   AR   Ar   86   2.094   5.293   1.082
    1   AR   Ar   87   2.811   3.569   2.219
    1   AR   Ar   88   3.153   5.491   1.876
    1   AR   Ar   89   6.382   1.867   0.855
    1   AR   Ar   90   3.460   1.648   5.420
    1   AR   Ar   91   1.863   1.575   3.063
    1   AR   Ar   92   1.713   3.655   2.020
    1   AR   Ar   93   1.808   1.043   5.992
    1   AR   Ar   94   1.294   6.485   9.506
    1   AR   Ar   95   4.373   1.162   5.227
    1   AR   Ar   96   2.563   7.007   4.409
    1   AR   Ar   97   3.989   2.160  -0.575
    1   AR   Ar   98   1.638   4.341   4.102
    1   AR   Ar   99   5.613   0.801  -0.726
    1   AR   Ar  100   0.279   3.297  -2.842
    1   AR   Ar  101   4.113   6.335   2.221
    1   AR   Ar  102   3.572   1.363   3.013
    1   AR   Ar  103   2.558   4.252   0.864
    1   AR   Ar  104   3.776   5.407  -1.436
    1   AR   Ar  105   2.814   1.738   3.830
    1   AR   Ar  106   3.577   2.613   5.289
    1   AR   Ar  107   1.165   5.261   5.507
    1   AR   Ar  108   2.332   1.021   4.734
    1   AR   Ar  109   1.761   3.952   5.084
    1   AR   Ar  110   2.515   2.110   4.854
    1   AR   Ar  111   4.407   6.295   8.094
    1   AR   Ar  112   0.002   6.082   5.771
    1   AR   Ar  113   2.668   4.975  -1.183
    1   AR   Ar  114   2.493   0.224  -0.863
    1   AR   Ar  115   1.955   4.985  -0.292
    1   AR   Ar  116   4.650   0.489   0.839
    1   AR   Ar  117   0.778   4.844   4.297
    1   AR   Ar  118   1.385   5.736   3.584
    1   AR   Ar  119   2.072   4.034   3.053
    1   AR   Ar  120   1.660   6.876   2.664
    1   AR   Ar  121   5.740   4.649   5.685
    1   AR   Ar  122   3.328   5.596   4.056
    1   AR   Ar  123   2.604   3.303   5.486
    1   AR   Ar  124   1.107   5.418   1.355
    1   AR   Ar  125   6.110   3.702   4.881
    1   AR   Ar  126   6.728   0.636   6.735
    1   AR   Ar  127   4.073   3.169   6.145
    1   AR   Ar  128   2.746   4.410   7.448
    1   AR   Ar  129   2.245   5.681   4.749
    1   AR   Ar  130   4.071   1.327  -4.562
    1   AR   Ar  131   4.398   4.703  -1.993
    1   AR   Ar  132   0.468   1.524   0.538
    1   AR   Ar  133   4.491   0.381   4.375
    1   AR   Ar  134   3.679   1.431   4.357
    1   AR   Ar  135   5.708   1.522   3.771
    1   AR   Ar  136   6.045   0.436   2.707
    1   AR   Ar  137   3.611   4.320   5.629
    1   AR   Ar  138   6.055   1.626   5.600
    1   AR   Ar  139   6.310   2.670   5.611
    1   AR   Ar  140   4.581   6.515   4.842
    1   AR   Ar  141   4.399   5.517   4.107
    1   AR   Ar  142   5.126   0.394   7.180
    1   AR   Ar  143   6.247   6.875   6.873
    1   AR   Ar  144   6.422   1.556   4.645
    1   AR   Ar  145   4.293   4.850  -0.562
    1   AR   Ar  146   3.699   2.385   3.242
    1   AR   Ar  147   5.506   3.631  -0.949
    1   AR   Ar  148   3.338   6.432  -1.451
    1   AR   Ar  149   2.469   0.980   0.175
    1   AR   Ar  150   2.107   2.742   2.469
    1   AR   Ar  151   2.681   3.009   3.500
    1   AR   Ar  152   0.997   2.559  -2.268
    1   AR   Ar  153   5.355   0.518   3.591
    1   AR   Ar  154   4.870   1.945   4.217
    1   AR   Ar  155   6.615   3.606   6.092
    1   AR   Ar  156   2.966   4.813   3.424
    1   AR   Ar  157   2.072   5.548   6.666
    1   AR   Ar  158   0.457   1.711   5.532
    1   AR   Ar  159   4.173   0.301   6.440
    1   AR   Ar  160   1.528   1.748   5.224
    1   AR   Ar  161   4.973   4.345   3.322
    1   AR   Ar  162   4.166   5.964  -0.624
    1   AR   Ar  163   5.812   4.644   1.667
    1   AR   Ar  164   1.905   5.830   2.282
    1   AR   Ar  165   3.453   4.025   1.593
    1   AR   Ar  166   2.719   3.709   4.536
    1   AR   Ar  167   6.291   6.838   3.611
    1   AR   Ar  168   5.474   3.849  -1.988
    1   AR   Ar  169   3.732   3.334   3.653
    1   AR   Ar  170   1.351   3.328   6.250
    1   AR   Ar  171   5.744   4.957   4.472
    1   AR   Ar  172   3.759   3.625   4.932
    1   AR   Ar  173   2.453   2.055   6.086
    1   AR   Ar  174   3.507   6.519   4.749
    1   AR   Ar  175   3.010   0.991   6.014
    1   AR   Ar  176   3.793   2.424   4.310
    1   AR   Ar  177   0.616   4.682  -1.192
    1   AR   Ar  178   2.624   6.609   0.279
    1   AR   Ar  179   3.368   6.954   1.129
    1   AR   Ar  180   4.541   1.735  -6.945
    1   AR   Ar  181   0.037   5.206   1.551
    1   AR   Ar  182   0.791   5.988   2.373
    1   AR   Ar  183   4.876   5.586   1.675
    1   AR   Ar  184   4.493   6.469   0.596
    1   AR   Ar  185   2.755   4.692   4.762
    1   AR   Ar  186   2.841   5.788   2.874
    1   AR   Ar  187   3.522   6.584   3.357
    1   AR   Ar  188   2.378   7.047   1.929
    1   AR   Ar  189   5.209   3.331   6.354
    1   AR   Ar  190   2.397   6.644   3.484
    1   AR   Ar  191   3.670   6.317   7.141
    1   AR   Ar  192   4.566   4.751   6.156
    1   AR   Ar  193   2.532   6.234   1.396
    1   AR   Ar  194   5.469   4.960  -0.887
    1   AR   Ar  195   5.518   1.269   0.823
    1   AR   Ar  196   3.425   0.724  -0.365
    1   AR   Ar  197   4.840   2.287   1.306
    1   AR   Ar  198   5.629   0.157   1.656
    1   AR   Ar  199   1.901   0.499   3.844
    1   AR   Ar  200   5.032   3.327   0.112
    1   AR   Ar  201   6.750   6.667   2.635
    1   AR   Ar  202   5.428   0.936   4.681
    1   AR   Ar  203   0.660   6.411   3.275
    1   AR   Ar  204   4.602   5.985   6.903
    1   AR   Ar  205   5.729   2.114   1.852
    1   AR   Ar  206   5.944   0.445   5.924
    1   AR   Ar  207   7.083   3.003   5.143
    1   AR   Ar  208   1.191   5.935   4.605
    1   AR   Ar  209   6.991   2.530  -2.210
    1   AR   Ar  210   1.526   0.254  -0.049
    1   AR   Ar  211   0.113   2.487   1.008
    1   AR   Ar  212   6.052   3.787  -0.023
    1   AR   Ar  213   3.770   1.882   2.000
    1   AR   Ar  214   4.832   4.101   2.125
    1   AR   Ar  215   6.791   2.642   1.953
    1   AR   Ar  216   1.285   2.149   1.009
    1   AR   Ar  217   4.661   1.570   3.201
    1   AR   Ar  218   4.658   3.274   4.681
    1   AR   Ar  219   5.054   3.241   3.329
    1   AR   Ar  220   4.581   3.485   1.133
    1   AR   Ar  221   6.958   5.996   4.033
    1   AR   Ar  222   4.999   0.017   5.621
    1   AR   Ar  223   6.763   1.599   6.322
    1   AR   Ar  224   4.733   2.497   5.438
    1   AR   Ar  225   6.476   3.080   3.219
    1   AR   Ar  226   1.269   3.010   3.223
    1   AR   Ar  227   0.556   3.136   2.381
    1   AR   Ar  228   6.271   1.059   1.676
    1   AR   Ar  229   6.759   4.404  -1.245
    1   AR   Ar  230   3.822   4.420   4.168
    1   AR   Ar  231   4.756   2.275   2.401
    1   AR   Ar  232   5.279   3.043   1.901
    1   AR   Ar  233   6.863   2.390   3.952
    1   AR   Ar  234   5.652   2.621   3.948
    1   AR   Ar  235   0.285   0.380   3.349
    1   AR   Ar  236   5.307   5.682   5.219
    1   AR   Ar  237   4.759   2.214   6.656
    1   AR   Ar  238   5.771   5.977   6.926
    1   AR   Ar  239   0.690   4.397  10.275
    1   AR   Ar  240   1.560   1.945   6.531
    1   AR   Ar  241   1.826   5.895  -0.870
    1   AR   Ar  242   5.911   6.198   1.517
    1   AR   Ar  243   5.180   6.141   2.780
    1   AR   Ar  244   0.161   5.198   0.253
    1   AR   Ar  245   4.157   0.549   3.378
    1   AR   Ar  246   5.373   6.413  -0.510
    1   AR   Ar  247   6.674   3.756   1.436
    1   AR   Ar  248   4.890   5.569   0.283
    1   AR   Ar  249   4.802   6.720   1.579
    1   AR   Ar  250   5.408   6.026   4.007
    1   AR   Ar  251   4.525   4.818   4.987
    1   AR   Ar  252   2.597   4.744   2.197
    1   AR   Ar  253   6.093   2.840   6.880
    1   AR   Ar  254   5.010   2.148   9.822
    1   AR   Ar  255   4.464   5.273   9.352
    1   AR   Ar  256   6.084   5.680   3.300
    7.12000  7.12000 12.00000
Argon-slab step 4685
  256
    1   AR   Ar    1   4.938   3.116  -2.790
    1   AR   Ar    2   5.573   6.907   0.539
    1   AR   Ar    3   4.240   3.190  -1.178
    1   AR   Ar    4   2.488   1.346   1.124
    1   AR   Ar    5   6.064   5.533  -0.092
    1   AR   Ar    6   1.696   1.868   1.905
    1   AR   Ar    7   5.949   4.124   3.414
    1   AR   Ar    8   6.334   2.663  -1.380
    1   AR   Ar    9   0.330   6.891   4.466
    1   AR   Ar   10   6.109   6.192   5.276
    1   AR   Ar   11   1.024   0.343   4.909
    1   AR   Ar   12   6.919   1.537   3.498
    1   AR   Ar   13   6.249   0.621   4.131
    1   AR   Ar   14   3.840   1.442   6.401
    1   AR   Ar   15   3.306   6.911   9.091
    1   AR   Ar   16   0.519   0.347   5.890
    1   AR   Ar   17   6.054   2.906   0.767
    1   AR   Ar   18   6.794   5.582  -1.262
    1   AR   Ar   19   5.279   4.426   0.021
    1   AR   Ar   20   6.626   4.112  -2.915
    1   AR   Ar   21   2.794   1.762   2.157
    1   AR   Ar   22   5.254   1.214   2.500
    1   AR   Ar   23   0.521   6.390   1.078
    1   AR   Ar   24   5.597   2.227   2.975
    1   AR   Ar   25   0.747   2.176   4.227
    1   AR   Ar   26   5.439   6.995   4.537
    1   AR   Ar   27   1.855   0.693   2.363
    1   AR   Ar   28   1.776   2.297   3.821
    1   AR   Ar   29   4.604   1.345   7.270
    1   AR   Ar   30   0.895   1.200   2.887
    1   AR   Ar   31   3.595   0.848   7.482
    1   AR   Ar   32   0.970   2.646   5.564
    1   AR   Ar   33   0.752   4.227  -0.154
    1   AR   Ar   34   0.991   5.036   2.490
    1   AR   Ar   35   5.996   5.204   2.509
    1   AR   Ar   36   5.780   2.615  -2.353
    1   AR   Ar   37   4.006   3.001   1.890
    1   AR   Ar   38   6.873   4.075   4.195
    1   AR   Ar   39   0.441   3.038   3.621
    1   AR   Ar   40   1.564   4.586   1.642
    1   AR   Ar   41   0.338   2.196   2.853
    1   AR   Ar   42   5.484   6.319   6.012
    1   AR   Ar   43   0.058   2.700   6.255
    1   AR   Ar   44   0.981   4.267   3.179
    1   AR   Ar   45   0.568   3.672   5.687
    1   AR   Ar   46   0.330   4.626   5.982
    1   AR   Ar   47   4.180   4.535   7.816
    1   AR   Ar   48   6.380   3.438   7.589
    1   AR   Ar   49   6.564   7.035  -0.573
    1   AR   Ar   50   3.608   5.423   0.670
    1   AR   Ar   51   6.074   3.439   2.377
    1   AR   Ar   52   5.050   2.939  -1.715
    1   AR   Ar   53   4.877   0.095   2.616
    1   AR   Ar   54   0.384   0.384   2.408
    1   AR   Ar   55   7.045   4.091   2.908
    1   AR   Ar   56   6.458   1.608   2.697
    1   AR   Ar   57   3.803   4.222   2.691
    1   AR   Ar   58   0.805   3.759   4.551
    1   AR   Ar   59   2.718   5.843   5.761
    1   AR   Ar   60   0.236   5.182   3.269
    1   AR   Ar   61   0.291   3.596   6.795
    1   AR   Ar   62   6.738   4.448   5.303
    1   AR   Ar   63   2.783   2.346   7.003
    1   AR   Ar   64   0.319   5.579   4.814
    1   AR   Ar   65   3.757   0.587   2.305
    1   AR   Ar   66   1.151   0.947   1.185
    1   AR   Ar   67   4.531   0.507  -0.666
    1   AR   Ar   68   0.537   0.908  -0.340
    1   AR   Ar   69   3.096   1.692  -0.035
    1   AR   Ar   70   0.472   1.704   1.713
    1   AR   Ar   71   2.679   0.925   3.030
    1   AR   Ar   72   4.558   1.209   1.738
    1   AR   Ar   73   3.188   0.630   4.020
    1   AR   Ar   74   0.483   1.122   4.242
    1   AR   Ar   75   3.551   0.494   4.906
    1   AR   Ar   76   2.415   0.210   0.898
    1   AR   Ar   77   1.945   0.104   5.321
    1   AR   Ar   78   6.547   5.228   6.098
    1   AR   Ar   79   3.180   6.830   5.666
    1   AR   Ar   80   3.757   5.598   5.117
    1   AR   Ar   81   1.499   6.560   1.334
    1   AR   Ar   82   6.295   4.707   0.431
    1   AR   Ar   83   0.743   3.144   0.102
    1   AR   Ar   84   1.449   4.186   0.701
    1   AR   Ar   85   2.027   3.826  -0.078
    1   AR   Ar   86   2.092   5.288   1.080
    1   AR   Ar   87   2.787   3.611   2.210
    1   AR   Ar   88   3.140   5.503   1.835
    1   AR   Ar   89   6.344   1.858   0.846
    1   AR   Ar   90   3.438   1.650   5.419
    1   AR   Ar   91   1.868   1.539   3.068
    1   AR   Ar   92   1.725   3.667   2.017
    1   AR   Ar   93   1.797   1.038   6.015
    1   AR   Ar   94   1.300   6.487   9.501
    1   AR   Ar   95   4.374   1.170   5.213
    1   AR   Ar   96   2.541   7.011   4.399
    1   AR   Ar   97   3.984   2.171  -0.586
    1   AR   Ar   98   1.658   4.351   4.093
    1   AR   Ar   99   5.606   0.779  -0.728
    1   AR   Ar  100   0.280   3.294  -2.830
    1   AR   Ar  101   4.104   6.339   2.225
    1   AR   Ar  102   3.590   1.376   3.016
    1   AR   Ar  103   2.567   4.230   0.867
    1   AR   Ar  104   3.776   5.397  -1.424
    1   AR   Ar  105   2.826   1.779   3.832
    1   AR   Ar  106   3.570   2.620   5.320
    1   AR   Ar  107   1.162   5.262   5.482
    1   AR   Ar  108   2.325   1.019   4.731
    1   AR   Ar  109   1.730   3.952   5.076
    1   AR   Ar  110   2.520   2.119   4.869
    1   AR   Ar  111   4.402   6.299   8.097
    1   AR   Ar  112   0.009   6.039   5.774
    1   AR   Ar  113   2.643   4.982  -1.215
    1   AR   Ar  114   2.478   0.226  -0.815
    1   AR   Ar  115   1.950   4.999  -0.284
    1   AR   Ar  116   4.656   0.475   0.851
    1   AR   Ar  117   0.773   4.829   4.270
    1   AR   Ar  118   1.395   5.772   3.573
    1   AR   Ar  119   2.087   4.039   3.094
    1   AR   Ar  120   1.670   6.874   2.654
    1   AR   Ar  121   5.723   4.663   5.680
    1   AR   Ar  122   3.318   5.606   4.066
    1   AR   Ar  123   2.589   3.323   5.478
    1   AR   Ar  124   1.077   5.436   1.342
    1   AR   Ar  125   6.112   3.705   4.899
    1   AR   Ar  126   6.745   0.612   6.749
    1   AR   Ar  127   4.083   3.146   6.131
    1   AR   Ar  128   2.718   4.397   7.424
    1   AR   Ar  129   2.263   5.661   4.763
    1   AR   Ar  130   4.077   1.358  -4.595
    1   AR   Ar  131   4.389   4.686  -1.995
    1   AR   Ar  132   0.461   1.538   0.556
    1   AR   Ar  133   4.494   0.390   4.398
    1   AR   Ar  134   3.674   1.426   4.378
    1   AR   Ar  135   5.697   1.507   3.797
    1   AR   Ar  136   6.039   0.440   2.678
    1   AR   Ar  137   3.606   4.292   5.597
    1   AR   Ar  138   6.049   1.597   5.621
    1   AR   Ar  139   6.339   2.671   5.632
    1   AR   Ar  140   4.594   6.521   4.810
    1   AR   Ar  141   4.434   5.540   4.089
    1   AR   Ar  142   5.128   0.391   7.204
    1   AR   Ar  143   6.234   6.901   6.883
    1   AR   Ar  144   6.460   1.543   4.633
    1   AR   Ar  145   4.285   4.858  -0.562
    1   AR   Ar  146   3.660   2.366   3.213
    1   AR   Ar  147   5.503   3.657  -0.943
    1   AR   Ar  148   3.325   6.419  -1.461
    1   AR   Ar  149   2.417   0.948   0.199
    1   AR   Ar  150   2.098   2.728   2.475
    1   AR   Ar  151   2.688   3.044   3.505
    1   AR   Ar  152   0.977   2.531  -2.265
    1   AR   Ar  153   5.316   0.518   3.612
    1   AR   Ar  154   4.877   1.942   4.203
    1   AR   Ar  155   6.637   3.610   6.099
    1   AR   Ar  156   2.972   4.831   3.385
    1   AR   Ar  157   2.089   5.567   6.648
    1   AR   Ar  158   0.446   1.724   5.519
    1   AR   Ar  159   4.162   0.300   6.465
    1   AR   Ar  160   1.496   1.753   5.219
    1   AR   Ar  161   4.987   4.354   3.310
    1   AR   Ar  162   4.135   5.968  -0.628
    1   AR   Ar  163   5.837   4.616   1.668
    1   AR   Ar  164   1.915   5.828   2.276
    1   AR   Ar  165   3.451   4.027   1.586
    1   AR   Ar  166   2.733   3.705   4.551
    1   AR   Ar  167   6.329   6.822   3.576
    1   AR   Ar  168   5.467   3.861  -2.006
    1   AR   Ar  169   3.739   3.335   3.626
    1   AR   Ar  170   1.357   3.314   6.266
    1   AR   Ar  171   5.725   4.979   4.455
    1   AR   Ar  172   3.716   3.607   4.930
    1   AR   Ar  173   2.471   2.067   6.086
    1   AR   Ar  174   3.518   6.522   4.733
    1   AR   Ar  175   3.013   0.995   6.026
    1   AR   Ar  176   3.772   2.426   4.287
    1   AR   Ar  177   0.602   4.677  -1.180
    1   AR   Ar  178   2.633   6.595   0.303
    1   AR   Ar  179   3.348   6.959   1.146
    1   AR   Ar  180   4.559   1.740  -6.941
    1   AR   Ar  181   7.117   5.196   1.552
    1   AR   Ar  182   0.781   5.995   2.390
    1   AR   Ar  183   4.861   5.558   1.709
    1   AR   Ar  184   4.478   6.454   0.608
    1   AR   Ar  185   2.774   4.706   4.752
    1   AR   Ar  186   2.886   5.809   2.887
    1   AR   Ar  187   3.522   6.587   3.350
    1   AR   Ar  188   2.373   7.050   1.905
    1   AR   Ar  189   5.212   3.309   6.337
    1   AR   Ar  190   2.391   6.661   3.495
    1   AR   Ar  191   3.668   6.285   7.167
    1   AR   Ar  192   4.578   4.740   6.164
    1   AR   Ar  193   2.571   6.225   1.399
    1   AR   Ar  194   5.446   4.971  -0.839
    1   AR   Ar  195   5.523   1.273   0.802
    1   AR   Ar  196   3.408   0.718  -0.364
    1   AR   Ar  197   4.858   2.295   1.322
    1   AR   Ar  198   5.616   0.136   1.648
    1   AR   Ar  199   1.910   0.484   3.885
    1   AR   Ar  200   5.008   3.335   0.107
    1   AR   Ar  201   6.752   6.684   2.630
    1   AR   Ar  202   5.432   0.911   4.670
    1   AR   Ar  203   0.635   6.428   3.259
    1   AR   Ar  204   4.605   5.967   6.928
    1   AR   Ar  205   5.746   2.091   1.877
    1   AR   Ar  206   5.912   0.452   5.930
    1   AR   Ar  207   7.080   3.021   5.155
    1   AR   Ar  208   1.159   5.941   4.611
    1   AR   Ar  209   7.007   2.546  -2.226
    1   AR   Ar  210   1.539   0.232  -0.095
    1   AR   Ar  211   0.128   2.485   1.022
    1   AR   Ar  212   6.042   3.801  -0.006
    1   AR   Ar  213   3.769   1.880   2.018
    1   AR   Ar  214   4.829   4.131   2.111
    1   AR   Ar  215   6.782   2.643   1.933
    1   AR   Ar  216   1.310   2.134   0.976
    1   AR   Ar  217   4.628   1.563   3.219
    1   AR   Ar  218   4.679   3.290   4.667
    1   AR   Ar  219   5.052   3.220   3.343
    1   AR   Ar  220   4.604   3.485   1.131
    1   AR   Ar  221   6.970   6.009   4.025
    1   AR   Ar  222   4.997   0.052   5.620
    1   AR   Ar  223   6.785   1.582   6.297
    1   AR   Ar  224   4.730   2.482   5.431
    1   AR   Ar  225   6.494   3.073   3.226
    1   AR   Ar  226   1.232   3.019   3.231
    1   AR   Ar  227   0.553   3.141   2.400
    1   AR   Ar  228   6.270   1.055   1.731
    1   AR   Ar  229   6.770   4.375  -1.245
    1   AR   Ar  230   3.847   4.449   4.157
    1   AR   Ar  231   4.761   2.266   2.452
    1   AR   Ar  232   5.284   3.058   1.888
    1   AR   Ar  233   6.845   2.399   3.941
    1   AR   Ar  234   5.658   2.618   3.948
    1   AR   Ar  235   0.284   0.376   3.350
    1   AR   Ar  236   5.263   5.688   5.205
    1   AR   Ar  237   4.760   2.226   6.650
    1   AR   Ar  238   5.762   5.961   6.925
    1   AR   Ar  239   0.710   4.419  10.262
    1   AR   Ar  240   1.539   1.964   6.534
    1   AR   Ar  241   1.834   5.885  -0.873
    1   AR   Ar  242   5.882   6.187   1.514
    1   AR   Ar  243   5.167   6.129   2.775
    1   AR   Ar  244   0.126   5.211   0.265
    1   AR   Ar  245   4.177   0.573   3.387
    1   AR   Ar  246   5.402   6.388  -0.497
    1   AR   Ar  247   6.721   3.766   1.396
    1   AR   Ar  248   4.889   5.561   0.278
    1   AR   Ar  249   4.808   6.697   1.615
    1   AR   Ar  250   5.404   5.996   4.017
    1   AR   Ar  251   4.503   4.788   4.995
    1   AR   Ar  252   2.601   4.738   2.192
    1   AR   Ar  253   6.102   2.810   6.878
    1   AR   Ar  254   5.021   2.171   9.805
    1   AR   Ar  255   4.446   5.258   9.327
    1   AR   Ar  256   6.120   5.691   3.309
    7.12000  7.12000 12.00000
Argon-slab step 4690
  256
    1   AR   Ar    1   4.967   3.092  -2.768
    1   AR   Ar    2   5.575   6.892   0.534
    1   AR   Ar    3   4.231   3.205  -1.191
    1   AR   Ar    4   2.494   1.350   1.157
    1   AR   Ar    5   6.053   5.540  -0.091
    1   AR   Ar    6   1.686   1.849   1.939
    1   AR   Ar    7   5.962   4.106   3.411
    1   AR   Ar    8   6.323   2.687  -1.374
    1   AR   Ar    9   0.363   6.897   4.468
    1   AR   Ar   10   6.106   6.177   5.259
    1   AR   Ar   11   1.020   0.350   4.924
    1   AR   Ar   12   6.922   1.520   3.496
    1   AR   Ar   13   6.252   0.647   4.097
    1   AR   Ar   14   3.818   1.450   6.409
    1   AR   Ar   15   3.309   6.918   9.105
    1   AR   Ar   16   0.534   0.333   5.894
    1   AR   Ar   17   6.012   2.902   0.778
    1   AR   Ar   18   6.817   5.595  -1.238
    1   AR   Ar   19   5.285   4.431   0.027
    1   AR   Ar   20   6.625   4.071  -2.899
    1   AR   Ar   21   2.759   1.736   2.124
    1   AR   Ar   22   5.272   1.198   2.476
    1   AR   Ar   23   0.492   6.419   1.057
    1   AR   Ar   24   5.615   2.191   2.979
    1   AR   Ar   25   0.722   2.159   4.239
    1   AR   Ar   26   5.449   7.004   4.529
    1   AR   Ar   27   1.890   0.687   2.341
    1   AR   Ar   28   1.772   2.266   3.822
    1   AR   Ar   29   4.617   1.352   7.281
    1   AR   Ar   30   0.858   1.185   2.869
    1   AR   Ar   31   3.551   0.875   7.475
    1   AR   Ar   32   1.003   2.651   5.536
    1   AR   Ar   33   0.764   4.242  -0.128
    1   AR   Ar   34   1.005   5.053   2.442
    1   AR   Ar   35   6.011   5.192   2.486
    1   AR   Ar   36   5.798   2.592  -2.349
    1   AR   Ar   37   3.994   2.992   1.902
    1   AR   Ar   38   6.843   4.054   4.189
    1   AR   Ar   39   0.409   3.063   3.658
    1   AR   Ar   40   1.542   4.555   1.680
    1   AR   Ar   41   0.348   2.199   2.845
    1   AR   Ar   42   5.468   6.346   6.004
    1   AR   Ar   43   0.077   2.716   6.255
    1   AR   Ar   44   0.973   4.289   3.200
    1   AR   Ar   45   0.565   3.673   5.672
    1   AR   Ar   46   0.327   4.634   5.965
    1   AR   Ar   47   4.187   4.546   7.811
    1   AR   Ar   48   6.386   3.441   7.599
    1   AR   Ar   49   6.529   7.049  -0.558
    1   AR   Ar   50   3.637   5.416   0.650
    1   AR   Ar   51   6.063   3.431   2.380
    1   AR   Ar   52   5.071   2.952  -1.738
    1   AR   Ar   53   4.884   0.105   2.626
    1   AR   Ar   54   0.400   0.392   2.399
    1   AR   Ar   55   7.053   4.102   2.950
    1   AR   Ar   56   6.421   1.593   2.681
    1   AR   Ar   57   3.811   4.224   2.685
    1   AR   Ar   58   0.831   3.770   4.526
    1   AR   Ar   59   2.708   5.850   5.766
    1   AR   Ar   60   0.265   5.190   3.259
    1   AR   Ar   61   0.276   3.622   6.795
    1   AR   Ar   62   6.740   4.440   5.286
    1   AR   Ar   63   2.808   2.332   7.004
    1   AR   Ar   64   0.292   5.583   4.843
    1   AR   Ar   65   3.756   0.594   2.332
    1   AR   Ar   66   1.132   0.949   1.207
    1   AR   Ar   67   4.545   0.486  -0.663
    1   AR   Ar   68   0.502   0.888  -0.374
    1   AR   Ar   69   3.075   1.698  -0.034
    1   AR   Ar   70   0.509   1.721   1.706
    1   AR   Ar   71   2.683   0.925   3.013
    1   AR   Ar   72   4.578   1.212   1.739
    1   AR   Ar   73   3.182   0.612   3.975
    1   AR   Ar   74   0.499   1.130   4.245
    1   AR   Ar   75   3.568   0.478   4.903
    1   AR   Ar   76   2.416   0.227   0.903
    1   AR   Ar   77   1.930   0.074   5.289
    1   AR   Ar   78   6.580   5.224   6.108
    1   AR   Ar   79   3.193   6.806   5.631
    1   AR   Ar   80   3.793   5.608   5.125
    1   AR   Ar   81   1.532   6.544   1.349
    1   AR   Ar   82   6.306   4.718   0.416
    1   AR   Ar   83   0.753   3.155   0.135
    1   AR   Ar   84   1.419   4.191   0.713
    1   AR   Ar   85   2.001   3.821  -0.104
    1   AR   Ar   86   2.095   5.284   1.076
    1   AR   Ar   87   2.778   3.640   2.217
    1   AR   Ar   88   3.144   5.516   1.769
    1   AR   Ar   89   6.313   1.851   0.840
    1   AR   Ar   90   3.416   1.649   5.411
    1   AR   Ar   91   1.873   1.509   3.072
    1   AR   Ar   92   1.731   3.665   1.993
    1   AR   Ar   93   1.791   1.035   6.044
    1   AR   Ar   94   1.316   6.475   9.490
    1   AR   Ar   95   4.378   1.178   5.199
    1   AR   Ar   96   2.526   7.012   4.408
    1   AR   Ar   97   3.979   2.181  -0.596
    1   AR   Ar   98   1.668   4.346   4.080
    1   AR   Ar   99   5.599   0.755  -0.728
    1   AR   Ar  100   0.283   3.292  -2.820
    1   AR   Ar  101   4.087   6.340   2.234
    1   AR   Ar  102   3.610   1.389   3.017
    1   AR   Ar  103   2.574   4.209   0.872
    1   AR   Ar  104   3.784   5.422  -1.414
    1   AR   Ar  105   2.838   1.820   3.831
    1   AR   Ar  106   3.563   2.637   5.350
    1   AR   Ar  107   1.162   5.252   5.448
    1   AR   Ar  108   2.321   1.017   4.729
    1   AR   Ar  109   1.701   3.952   5.071
    1   AR   Ar  110   2.527   2.128   4.885
    1   AR   Ar  111   4.396   6.302   8.099
    1   AR   Ar  112   0.017   6.000   5.775
    1   AR   Ar  113   2.619   4.991  -1.246
    1   AR   Ar  114   2.462   0.227  -0.766
    1   AR   Ar  115   1.944   5.010  -0.274
    1   AR   Ar  116   4.664   0.460   0.865
    1   AR   Ar  117   0.765   4.815   4.240
    1   AR   Ar  118   1.407   5.806   3.559
    1   AR   Ar  119   2.094   4.034   3.120
    1   AR   Ar  120   1.662   6.865   2.643
    1   AR   Ar  121   5.703   4.677   5.673
    1   AR   Ar  122   3.307   5.618   4.077
    1   AR   Ar  123   2.575   3.338   5.476
    1   AR   Ar  124   1.041   5.460   1.329
    1   AR   Ar  125   6.112   3.704   4.917
    1   AR   Ar  126   6.768   0.597   6.761
    1   AR   Ar  127   4.093   3.123   6.116
    1   AR   Ar  128   2.689   4.384   7.399
    1   AR   Ar  129   2.282   5.644   4.775
    1   AR   Ar  130   4.084   1.388  -4.628
    1   AR   Ar  131   4.381   4.669  -1.996
    1   AR   Ar  132   0.452   1.554   0.575
    1   AR   Ar  133   4.497   0.401   4.420
    1   AR   Ar  134   3.651   1.403   4.409
    1   AR   Ar  135   5.693   1.491   3.820
    1   AR   Ar  136   6.033   0.444   2.650
    1   AR   Ar  137   3.590   4.284   5.612
    1   AR   Ar  138   6.034   1.567   5.637
    1   AR   Ar  139   6.346   2.662   5.663
    1   AR   Ar  140   4.601   6.519   4.781
    1   AR   Ar  141   4.461   5.563   4.084
    1   AR   Ar  142   5.131   0.386   7.227
    1   AR   Ar  143   6.214   6.920   6.893
    1   AR   Ar  144   6.473   1.520   4.602
    1   AR   Ar  145   4.279   4.866  -0.562
    1   AR   Ar  146   3.623   2.350   3.183
    1   AR   Ar  147   5.482   3.676  -0.950
    1   AR   Ar  148   3.312   6.406  -1.470
    1   AR   Ar  149   2.361   0.912   0.211
    1   AR   Ar  150   2.089   2.713   2.484
    1   AR   Ar  151   2.694   3.078   3.508
    1   AR   Ar  152   0.958   2.504  -2.263
    1   AR   Ar  153   5.276   0.517   3.631
    1   AR   Ar  154   4.841   1.962   4.212
    1   AR   Ar  155   6.643   3.626   6.110
    1   AR   Ar  156   2.977   4.847   3.345
    1   AR   Ar  157   2.106   5.585   6.631
    1   AR   Ar  158   0.433   1.735   5.506
    1   AR   Ar  159   4.151   0.299   6.490
    1   AR   Ar  160   1.466   1.757   5.211
    1   AR   Ar  161   4.990   4.366   3.297
    1   AR   Ar  162   4.107   5.974  -0.627
    1   AR   Ar  163   5.861   4.585   1.665
    1   AR   Ar  164   1.924   5.825   2.269
    1   AR   Ar  165   3.455   4.033   1.576
    1   AR   Ar  166   2.746   3.697   4.556
    1   AR   Ar  167   6.364   6.805   3.543
    1   AR   Ar  168   5.461   3.874  -2.026
    1   AR   Ar  169   3.747   3.340   3.601
    1   AR   Ar  170   1.367   3.300   6.285
    1   AR   Ar  171   5.707   5.000   4.439
    1   AR   Ar  172   3.685   3.582   4.925
    1   AR   Ar  173   2.491   2.075   6.074
    1   AR   Ar  174   3.528   6.528   4.710
    1   AR   Ar  175   3.005   0.989   6.041
    1   AR   Ar  176   3.753   2.435   4.264
    1   AR   Ar  177   0.596   4.676  -1.167
    1   AR   Ar  178   2.645   6.569   0.318
    1   AR   Ar  179   3.327   7.002   1.174
    1   AR   Ar  180   4.577   1.745  -6.937
    1   AR   Ar  181   7.076   5.186   1.553
    1   AR   Ar  182   0.772   6.009   2.393
    1   AR   Ar  183   4.847   5.531   1.744
    1   AR   Ar  184   4.460   6.443   0.620
    1   AR   Ar  185   2.796   4.724   4.743
    1   AR   Ar  186   2.930   5.829   2.899
    1   AR   Ar  187   3.521   6.590   3.345
    1   AR   Ar  188   2.371   7.059   1.886
    1   AR   Ar  189   5.216   3.285   6.320
    1   AR   Ar  190   2.386   6.660   3.499
    1   AR   Ar  191   3.660   6.255   7.193
    1   AR   Ar  192   4.590   4.730   6.171
    1   AR   Ar  193   2.607   6.212   1.393
    1   AR   Ar  194   5.424   4.984  -0.794
    1   AR   Ar  195   5.520   1.271   0.783
    1   AR   Ar  196   3.392   0.709  -0.363
    1   AR   Ar  197   4.871   2.299   1.335
    1   AR   Ar  198   5.611   0.124   1.640
    1   AR   Ar  199   1.915   0.473   3.919
    1   AR   Ar  200   4.985   3.343   0.101
    1   AR   Ar  201   6.756   6.700   2.623
    1   AR   Ar  202   5.432   0.893   4.665
    1   AR   Ar  203   0.606   6.453   3.255
    1   AR   Ar  204   4.616   5.947   6.952
    1   AR   Ar  205   5.765   2.064   1.902
    1   AR   Ar  206   5.884   0.460   5.938
    1   AR   Ar  207   7.093   3.045   5.152
    1   AR   Ar  208   1.151   5.959   4.610
    1   AR   Ar  209   7.020   2.559  -2.240
    1   AR   Ar  210   1.533   0.231  -0.078
    1   AR   Ar  211   0.145   2.484   1.032
    1   AR   Ar  212   6.040   3.803   0.010
    1   AR   Ar  213   3.779   1.879   2.037
    1   AR   Ar  214   4.826   4.160   2.098
    1   AR   Ar  215   6.769   2.643   1.919
    1   AR   Ar  216   1.333   2.119   0.941
    1   AR   Ar  217   4.593   1.557   3.245
    1   AR   Ar  218   4.703   3.305   4.651
    1   AR   Ar  219   5.073   3.220   3.346
    1   AR   Ar  220   4.627   3.486   1.129
    1   AR   Ar  221   6.979   6.023   4.011
    1   AR   Ar  222   4.990   0.090   5.616
    1   AR   Ar  223   6.814   1.567   6.278
    1   AR   Ar  224   4.726   2.466   5.424
    1   AR   Ar  225   6.514   3.066   3.236
    1   AR   Ar  226   1.252   3.027   3.211
    1   AR   Ar  227   0.550   3.150   2.419
    1   AR   Ar  228   6.267   1.052   1.786
    1   AR   Ar  229   6.772   4.344  -1.245
    1   AR   Ar  230   3.883   4.467   4.150
    1   AR   Ar  231   4.755   2.258   2.494
    1   AR   Ar  232   5.304   3.054   1.875
    1   AR   Ar  233   6.820   2.414   3.942
    1   AR   Ar  234   5.668   2.616   3.953
    1   AR   Ar  235   0.276   0.377   3.378
    1   AR   Ar  236   5.207   5.685   5.186
    1   AR   Ar  237   4.760   2.241   6.642
    1   AR   Ar  238   5.752   5.939   6.930
    1   AR   Ar  239   0.731   4.441  10.248
    1   AR   Ar  240   1.565   1.981   6.549
    1   AR   Ar  241   1.858   5.896  -0.854
    1   AR   Ar  242   5.852   6.177   1.512
    1   AR   Ar  243   5.154   6.116   2.769
    1   AR   Ar  244   0.093   5.224   0.277
    1   AR   Ar  245   4.196   0.594   3.395
    1   AR   Ar  246   5.431   6.364  -0.481
    1   AR   Ar  247   6.749   3.744   1.411
    1   AR   Ar  248   4.890   5.548   0.270
    1   AR   Ar  249   4.812   6.670   1.645
    1   AR   Ar  250   5.349   6.001   4.007
    1   AR   Ar  251   4.481   4.758   5.003
    1   AR   Ar  252   2.598   4.724   2.190
    1   AR   Ar  253   6.109   2.774   6.866
    1   AR   Ar  254   5.031   2.195   9.787
    1   AR   Ar  255   4.428   5.243   9.302
    1   AR   Ar  256   6.158   5.704   3.330
    7.12000  7.12000 12.00000
Argon-slab step 4695
  256
    1   AR   Ar    1   4.993   3.070  -2.749
    1   AR   Ar    2   5.576   6.877   0.530
    1   AR   Ar    3   4.219   3.221  -1.200
    1   AR   Ar    4   2.499   1.354   1.192
    1   AR   Ar    5   6.040   5.554  -0.094
    1   AR   Ar    6   1.675   1.827   1.974
    1   AR   Ar    7   5.984   4.086   3.409
    1   AR   Ar    8   6.311   2.713  -1.367
    1   AR   Ar    9   0.388   6.895   4.464
    1   AR   Ar   10   6.111   6.160   5.240
    1   AR   Ar   11   1.020   0.368   4.941
    1   AR   Ar   12   6.934   1.492   3.508
    1   AR   Ar   13   6.262   0.665   4.058
    1   AR   Ar   14   3.805   1.462   6.421
    1   AR   Ar   15   3.313   6.925   9.119
    1   AR   Ar   16   0.548   0.320   5.899
    1   AR   Ar   17   5.970   2.901   0.791
    1   AR   Ar   18   6.840   5.607  -1.212
    1   AR   Ar   19   5.279   4.439   0.041
    1   AR   Ar   20   6.623   4.031  -2.881
    1   AR   Ar   21   2.719   1.710   2.097
    1   AR   Ar   22   5.295   1.183   2.457
    1   AR   Ar   23   0.458   6.432   1.041
    1   AR   Ar   24   5.639   2.156   2.988
    1   AR   Ar   25   0.696   2.131   4.271
    1   AR   Ar   26   5.468   7.009   4.519
    1   AR   Ar   27   1.920   0.696   2.318
    1   AR   Ar   28   1.769   2.236   3.825
    1   AR   Ar   29   4.629   1.359   7.292
    1   AR   Ar   30   0.822   1.175   2.853
    1   AR   Ar   31   3.508   0.901   7.466
    1   AR   Ar   32   1.034   2.658   5.507
    1   AR   Ar   33   0.774   4.258  -0.103
    1   AR   Ar   34   1.020   5.061   2.396
    1   AR   Ar   35   6.023   5.177   2.458
    1   AR   Ar   36   5.824   2.566  -2.347
    1   AR   Ar   37   3.984   2.983   1.916
    1   AR   Ar   38   6.815   4.032   4.182
    1   AR   Ar   39   0.361   3.096   3.703
    1   AR   Ar   40   1.519   4.540   1.715
    1   AR   Ar   41   0.377   2.186   2.824
    1   AR   Ar   42   5.446   6.377   6.002
    1   AR   Ar   43   0.101   2.728   6.255
    1   AR   Ar   44   0.966   4.309   3.224
    1   AR   Ar   45   0.567   3.674   5.659
    1   AR   Ar   46   0.330   4.621   5.958
    1   AR   Ar   47   4.188   4.521   7.787
    1   AR   Ar   48   6.378   3.456   7.618
    1   AR   Ar   49   6.528   7.074  -0.569
    1   AR   Ar   50   3.667   5.410   0.630
    1   AR   Ar   51   6.060   3.429   2.384
    1   AR   Ar   52   5.092   2.963  -1.753
    1   AR   Ar   53   4.891   0.115   2.635
    1   AR   Ar   54   0.416   0.395   2.374
    1   AR   Ar   55   7.056   4.111   2.939
    1   AR   Ar   56   6.377   1.579   2.651
    1   AR   Ar   57   3.817   4.226   2.680
    1   AR   Ar   58   0.851   3.779   4.499
    1   AR   Ar   59   2.690   5.854   5.770
    1   AR   Ar   60   0.294   5.199   3.251
    1   AR   Ar   61   0.257   3.651   6.803
    1   AR   Ar   62   6.738   4.433   5.264
    1   AR   Ar   63   2.804   2.341   7.013
    1   AR   Ar   64   0.250   5.577   4.877
    1   AR   Ar   65   3.747   0.615   2.330
    1   AR   Ar   66   1.114   0.951   1.231
    1   AR   Ar   67   4.558   0.464  -0.659
    1   AR   Ar   68   0.467   0.868  -0.408
    1   AR   Ar   69   3.034   1.694  -0.025
    1   AR   Ar   70   0.546   1.738   1.701
    1   AR   Ar   71   2.693   0.918   2.997
    1   AR   Ar   72   4.596   1.216   1.735
    1   AR   Ar   73   3.171   0.593   3.919
    1   AR   Ar   74   0.515   1.133   4.249
    1   AR   Ar   75   3.583   0.460   4.911
    1   AR   Ar   76   2.407   0.245   0.917
    1   AR   Ar   77   1.921   0.043   5.261
    1   AR   Ar   78   6.606   5.216   6.121
    1   AR   Ar   79   3.204   6.786   5.601
    1   AR   Ar   80   3.829   5.615   5.133
    1   AR   Ar   81   1.567   6.527   1.363
    1   AR   Ar   82   6.317   4.723   0.409
    1   AR   Ar   83   0.763   3.166   0.169
    1   AR   Ar   84   1.389   4.196   0.725
    1   AR   Ar   85   1.976   3.817  -0.130
    1   AR   Ar   86   2.094   5.284   1.066
    1   AR   Ar   87   2.766   3.664   2.230
    1   AR   Ar   88   3.161   5.517   1.709
    1   AR   Ar   89   6.293   1.852   0.837
    1   AR   Ar   90   3.423   1.661   5.396
    1   AR   Ar   91   1.872   1.483   3.076
    1   AR   Ar   92   1.730   3.637   1.938
    1   AR   Ar   93   1.786   1.031   6.070
    1   AR   Ar   94   1.331   6.463   9.479
    1   AR   Ar   95   4.377   1.152   5.197
    1   AR   Ar   96   2.523   7.007   4.435
    1   AR   Ar   97   3.974   2.192  -0.607
    1   AR   Ar   98   1.684   4.339   4.066
    1   AR   Ar   99   5.594   0.731  -0.728
    1   AR   Ar  100   0.289   3.296  -2.814
    1   AR   Ar  101   4.063   6.338   2.251
    1   AR   Ar  102   3.625   1.392   3.018
    1   AR   Ar  103   2.579   4.190   0.879
    1   AR   Ar  104   3.789   5.449  -1.412
    1   AR   Ar  105   2.848   1.860   3.829
    1   AR   Ar  106   3.554   2.658   5.379
    1   AR   Ar  107   1.165   5.228   5.403
    1   AR   Ar  108   2.319   1.016   4.730
    1   AR   Ar  109   1.674   3.951   5.071
    1   AR   Ar  110   2.516   2.142   4.881
    1   AR   Ar  111   4.390   6.306   8.099
    1   AR   Ar  112   0.022   5.974   5.778
    1   AR   Ar  113   2.594   5.000  -1.276
    1   AR   Ar  114   2.447   0.227  -0.715
    1   AR   Ar  115   1.938   5.017  -0.262
    1   AR   Ar  116   4.673   0.444   0.879
    1   AR   Ar  117   0.752   4.804   4.210
    1   AR   Ar  118   1.421   5.837   3.544
    1   AR   Ar  119   2.101   4.029   3.143
    1   AR   Ar  120   1.654   6.853   2.637
    1   AR   Ar  121   5.683   4.692   5.664
    1   AR   Ar  122   3.296   5.630   4.088
    1   AR   Ar  123   2.560   3.350   5.482
    1   AR   Ar  124   1.005   5.486   1.318
    1   AR   Ar  125   6.109   3.700   4.936
    1   AR   Ar  126   6.798   0.591   6.770
    1   AR   Ar  127   4.105   3.102   6.102
    1   AR   Ar  128   2.692   4.354   7.386
    1   AR   Ar  129   2.298   5.629   4.786
    1   AR   Ar  130   4.090   1.419  -4.662
    1   AR   Ar  131   4.374   4.650  -1.995
    1   AR   Ar  132   0.443   1.569   0.593
    1   AR   Ar  133   4.500   0.413   4.441
    1   AR   Ar  134   3.632   1.383   4.439
    1   AR   Ar  135   5.691   1.478   3.836
    1   AR   Ar  136   6.027   0.447   2.626
    1   AR   Ar  137   3.565   4.291   5.657
    1   AR   Ar  138   6.013   1.536   5.648
    1   AR   Ar  139   6.340   2.648   5.699
    1   AR   Ar  140   4.604   6.511   4.753
    1   AR   Ar  141   4.472   5.580   4.088
    1   AR   Ar  142   5.134   0.379   7.248
    1   AR   Ar  143   6.186   6.930   6.903
    1   AR   Ar  144   6.490   1.502   4.573
    1   AR   Ar  145   4.274   4.875  -0.561
    1   AR   Ar  146   3.585   2.347   3.153
    1   AR   Ar  147   5.460   3.696  -0.956
    1   AR   Ar  148   3.298   6.393  -1.478
    1   AR   Ar  149   2.303   0.884   0.210
    1   AR   Ar  150   2.081   2.699   2.496
    1   AR   Ar  151   2.698   3.111   3.512
    1   AR   Ar  152   0.941   2.477  -2.262
    1   AR   Ar  153   5.234   0.514   3.646
    1   AR   Ar  154   4.800   1.983   4.225
    1   AR   Ar  155   6.643   3.644   6.116
    1   AR   Ar  156   2.982   4.859   3.305
    1   AR   Ar  157   2.122   5.603   6.614
    1   AR   Ar  158   0.417   1.746   5.491
    1   AR   Ar  159   4.140   0.299   6.515
    1   AR   Ar  160   1.439   1.758   5.202
    1   AR   Ar  161   4.985   4.379   3.283
    1   AR   Ar  162   4.081   5.984  -0.619
    1   AR   Ar  163   5.884   4.550   1.658
    1   AR   Ar  164   1.930   5.822   2.260
    1   AR   Ar  165   3.465   4.042   1.561
    1   AR   Ar  166   2.753   3.690   4.548
    1   AR   Ar  167   6.394   6.790   3.518
    1   AR   Ar  168   5.456   3.891  -2.048
    1   AR   Ar  169   3.757   3.348   3.577
    1   AR   Ar  170   1.378   3.287   6.307
    1   AR   Ar  171   5.688   5.022   4.423
    1   AR   Ar  172   3.675   3.559   4.926
    1   AR   Ar  173   2.513   2.081   6.051
    1   AR   Ar  174   3.536   6.535   4.677
    1   AR   Ar  175   2.986   0.973   6.058
    1   AR   Ar  176   3.735   2.447   4.242
    1   AR   Ar  177   0.599   4.678  -1.152
    1   AR   Ar  178   2.659   6.537   0.328
    1   AR   Ar  179   3.313   7.043   1.204
    1   AR   Ar  180   4.595   1.749  -6.934
    1   AR   Ar  181   7.036   5.177   1.555
    1   AR   Ar  182   0.763   6.029   2.385
    1   AR   Ar  183   4.833   5.505   1.778
    1   AR   Ar  184   4.442   6.435   0.633
    1   AR   Ar  185   2.821   4.743   4.734
    1   AR   Ar  186   2.972   5.850   2.908
    1   AR   Ar  187   3.527   6.592   3.347
    1   AR   Ar  188   2.374   7.065   1.870
    1   AR   Ar  189   5.219   3.266   6.323
    1   AR   Ar  190   2.383   6.634   3.501
    1   AR   Ar  191   3.654   6.228   7.215
    1   AR   Ar  192   4.603   4.719   6.176
    1   AR   Ar  193   2.632   6.207   1.375
    1   AR   Ar  194   5.401   5.002  -0.757
    1   AR   Ar  195   5.507   1.261   0.765
    1   AR   Ar  196   3.376   0.699  -0.362
    1   AR   Ar  197   4.880   2.300   1.346
    1   AR   Ar  198   5.616   0.121   1.633
    1   AR   Ar  199   1.909   0.471   3.943
    1   AR   Ar  200   4.964   3.351   0.094
    1   AR   Ar  201   6.764   6.715   2.609
    1   AR   Ar  202   5.427   0.883   4.667
    1   AR   Ar  203   0.572   6.485   3.261
    1   AR   Ar  204   4.631   5.926   6.974
    1   AR   Ar  205   5.787   2.036   1.927
    1   AR   Ar  206   5.861   0.469   5.949
    1   AR   Ar  207   7.112   3.071   5.138
    1   AR   Ar  208   1.158   5.984   4.605
    1   AR   Ar  209   7.026   2.567  -2.250
    1   AR   Ar  210   1.527   0.230  -0.061
    1   AR   Ar  211   0.143   2.486   1.042
    1   AR   Ar  212   6.047   3.793   0.025
    1   AR   Ar  213   3.795   1.881   2.057
    1   AR   Ar  214   4.824   4.187   2.084
    1   AR   Ar  215   6.752   2.644   1.909
    1   AR   Ar  216   1.354   2.104   0.905
    1   AR   Ar  217   4.564   1.552   3.275
    1   AR   Ar  218   4.728   3.318   4.633
    1   AR   Ar  219   5.108   3.234   3.341
    1   AR   Ar  220   4.650   3.488   1.128
    1   AR   Ar  221   6.987   6.039   3.992
    1   AR   Ar  222   4.975   0.128   5.606
    1   AR   Ar  223   6.841   1.555   6.266
    1   AR   Ar  224   4.721   2.450   5.418
    1   AR   Ar  225   6.504   3.108   3.237
    1   AR   Ar  226   1.297   3.036   3.181
    1   AR   Ar  227   0.544   3.162   2.436
    1   AR   Ar  228   6.263   1.050   1.837
    1   AR   Ar  229   6.777   4.319  -1.233
    1   AR   Ar  230   3.916   4.485   4.143
    1   AR   Ar  231   4.740   2.254   2.527
    1   AR   Ar  232   5.318   3.050   1.861
    1   AR   Ar  233   6.787   2.426   3.954
    1   AR   Ar  234   5.679   2.605   3.955
    1   AR   Ar  235   0.271   0.384   3.439
    1   AR   Ar  236   5.146   5.677   5.165
    1   AR   Ar  237   4.759   2.257   6.631
    1   AR   Ar  238   5.743   5.915   6.937
    1   AR   Ar  239   0.751   4.463  10.234
    1   AR   Ar  240   1.600   1.999   6.566
    1   AR   Ar  241   1.883   5.909  -0.837
    1   AR   Ar  242   5.820   6.165   1.510
    1   AR   Ar  243   5.143   6.103   2.762
    1   AR   Ar  244   0.062   5.238   0.289
    1   AR   Ar  245   4.214   0.610   3.404
    1   AR   Ar  246   5.459   6.339  -0.465
    1   AR   Ar  247   6.776   3.722   1.426
    1   AR   Ar  248   4.893   5.533   0.260
    1   AR   Ar  249   4.815   6.640   1.669
    1   AR   Ar  250   5.290   6.022   3.993
    1   AR   Ar  251   4.461   4.728   5.013
    1   AR   Ar  252   2.593   4.709   2.189
    1   AR   Ar  253   6.115   2.733   6.846
    1   AR   Ar  254   5.054   2.209   9.780
    1   AR   Ar  255   4.409   5.229   9.277
    1   AR   Ar  256   6.177   5.684   3.327
    7.12000  7.12000 12.00000
Argon-slab step 4700
  256
    1   AR   Ar    1   5.017   3.052  -2.739
    1   AR   Ar    2   5.575   6.862   0.527
    1   AR   Ar    3   4.206   3.238  -1.208
    1   AR   Ar    4   2.500   1.354   1.218
    1   AR   Ar    5   6.029   5.572  -0.098
    1   AR   Ar    6   1.660   1.802   2.008
    1   AR   Ar    7   6.008   4.064   3.407
    1   AR   Ar    8   6.298   2.739  -1.360
    1   AR   Ar    9   0.406   6.885   4.452
    1   AR   Ar   10   6.107   6.138   5.243
    1   AR   Ar   11   1.030   0.370   4.944
    1   AR   Ar   12   6.949   1.460   3.524
    1   AR   Ar   13   6.277   0.671   4.013
    1   AR   Ar   14   3.797   1.476   6.436
    1   AR   Ar   15   3.316   6.932   9.132
    1   AR   Ar   16   0.561   0.307   5.906
    1   AR   Ar   17   5.926   2.901   0.805
    1   AR   Ar   18   6.863   5.618  -1.185
    1   AR   Ar   19   5.265   4.448   0.064
    1   AR   Ar   20   6.619   3.991  -2.863
    1   AR   Ar   21   2.683   1.686   2.082
    1   AR   Ar   22   5.307   1.182   2.440
    1   AR   Ar   23   0.419   6.422   1.032
    1   AR   Ar   24   5.661   2.127   3.002
    1   AR   Ar   25   0.672   2.112   4.305
    1   AR   Ar   26   5.494   7.008   4.508
    1   AR   Ar   27   1.942   0.717   2.297
    1   AR   Ar   28   1.766   2.207   3.830
    1   AR   Ar   29   4.640   1.365   7.302
    1   AR   Ar   30   0.789   1.172   2.841
    1   AR   Ar   31   3.471   0.922   7.454
    1   AR   Ar   32   1.063   2.669   5.477
    1   AR   Ar   33   0.782   4.276  -0.082
    1   AR   Ar   34   1.033   5.068   2.357
    1   AR   Ar   35   6.035   5.163   2.429
    1   AR   Ar   36   5.857   2.538  -2.348
    1   AR   Ar   37   3.975   2.975   1.931
    1   AR   Ar   38   6.790   4.011   4.174
    1   AR   Ar   39   0.318   3.137   3.747
    1   AR   Ar   40   1.500   4.541   1.740
    1   AR   Ar   41   0.405   2.173   2.805
    1   AR   Ar   42   5.421   6.408   6.005
    1   AR   Ar   43   0.130   2.739   6.254
    1   AR   Ar   44   0.960   4.327   3.247
    1   AR   Ar   45   0.576   3.678   5.649
    1   AR   Ar   46   0.338   4.606   5.958
    1   AR   Ar   47   4.189   4.496   7.763
    1   AR   Ar   48   6.367   3.474   7.638
    1   AR   Ar   49   6.549   7.107  -0.596
    1   AR   Ar   50   3.697   5.406   0.611
    1   AR   Ar   51   6.062   3.434   2.389
    1   AR   Ar   52   5.110   2.970  -1.756
    1   AR   Ar   53   4.899   0.126   2.643
    1   AR   Ar   54   0.429   0.390   2.343
    1   AR   Ar   55   7.028   4.088   2.936
    1   AR   Ar   56   6.342   1.565   2.628
    1   AR   Ar   57   3.823   4.227   2.674
    1   AR   Ar   58   0.863   3.782   4.470
    1   AR   Ar   59   2.674   5.857   5.770
    1   AR   Ar   60   0.322   5.211   3.243
    1   AR   Ar   61   0.245   3.681   6.815
    1   AR   Ar   62   6.736   4.429   5.239
    1   AR   Ar   63   2.793   2.356   7.025
    1   AR   Ar   64   0.204   5.565   4.908
    1   AR   Ar   65   3.739   0.632   2.327
    1   AR   Ar   66   1.100   0.953   1.255
    1   AR   Ar   67   4.567   0.442  -0.654
    1   AR   Ar   68   0.433   0.848  -0.440
    1   AR   Ar   69   2.993   1.690  -0.017
    1   AR   Ar   70   0.583   1.755   1.699
    1   AR   Ar   71   2.709   0.905   2.982
    1   AR   Ar   72   4.608   1.223   1.739
    1   AR   Ar   73   3.159   0.571   3.859
    1   AR   Ar   74   0.529   1.129   4.254
    1   AR   Ar   75   3.592   0.439   4.926
    1   AR   Ar   76   2.406   0.243   0.922
    1   AR   Ar   77   1.917   0.011   5.239
    1   AR   Ar   78   6.622   5.201   6.136
    1   AR   Ar   79   3.213   6.769   5.576
    1   AR   Ar   80   3.866   5.621   5.141
    1   AR   Ar   81   1.601   6.507   1.374
    1   AR   Ar   82   6.324   4.722   0.410
    1   AR   Ar   83   0.774   3.176   0.205
    1   AR   Ar   84   1.363   4.200   0.739
    1   AR   Ar   85   1.950   3.814  -0.156
    1   AR   Ar   86   2.070   5.300   1.033
    1   AR   Ar   87   2.752   3.685   2.247
    1   AR   Ar   88   3.195   5.496   1.660
    1   AR   Ar   89   6.284   1.859   0.838
    1   AR   Ar   90   3.428   1.670   5.384
    1   AR   Ar   91   1.865   1.464   3.079
    1   AR   Ar   92   1.731   3.590   1.889
    1   AR   Ar   93   1.782   1.028   6.094
    1   AR   Ar   94   1.346   6.451   9.469
    1   AR   Ar   95   4.379   1.128   5.197
    1   AR   Ar   96   2.533   6.995   4.474
    1   AR   Ar   97   3.968   2.204  -0.617
    1   AR   Ar   98   1.704   4.334   4.053
    1   AR   Ar   99   5.591   0.706  -0.727
    1   AR   Ar  100   0.300   3.305  -2.813
    1   AR   Ar  101   4.031   6.333   2.274
    1   AR   Ar  102   3.629   1.383   3.016
    1   AR   Ar  103   2.583   4.171   0.887
    1   AR   Ar  104   3.791   5.468  -1.417
    1   AR   Ar  105   2.857   1.899   3.826
    1   AR   Ar  106   3.540   2.678   5.404
    1   AR   Ar  107   1.169   5.201   5.356
    1   AR   Ar  108   2.320   1.018   4.734
    1   AR   Ar  109   1.654   3.951   5.076
    1   AR   Ar  110   2.496   2.161   4.865
    1   AR   Ar  111   4.384   6.308   8.098
    1   AR   Ar  112   0.024   5.962   5.779
    1   AR   Ar  113   2.560   5.010  -1.267
    1   AR   Ar  114   2.431   0.226  -0.663
    1   AR   Ar  115   1.932   5.021  -0.247
    1   AR   Ar  116   4.683   0.426   0.895
    1   AR   Ar  117   0.735   4.798   4.180
    1   AR   Ar  118   1.434   5.868   3.527
    1   AR   Ar  119   2.109   4.022   3.163
    1   AR   Ar  120   1.674   6.834   2.647
    1   AR   Ar  121   5.662   4.707   5.654
    1   AR   Ar  122   3.285   5.641   4.099
    1   AR   Ar  123   2.545   3.358   5.494
    1   AR   Ar  124   0.982   5.487   1.329
    1   AR   Ar  125   6.102   3.690   4.954
    1   AR   Ar  126   6.826   0.600   6.790
    1   AR   Ar  127   4.122   3.084   6.092
    1   AR   Ar  128   2.718   4.335   7.368
    1   AR   Ar  129   2.311   5.620   4.795
    1   AR   Ar  130   4.097   1.449  -4.695
    1   AR   Ar  131   4.368   4.631  -1.994
    1   AR   Ar  132   0.433   1.581   0.610
    1   AR   Ar  133   4.503   0.425   4.459
    1   AR   Ar  134   3.616   1.366   4.461
    1   AR   Ar  135   5.687   1.473   3.847
    1   AR   Ar  136   6.021   0.444   2.610
    1   AR   Ar  137   3.541   4.301   5.704
    1   AR   Ar  138   5.988   1.505   5.654
    1   AR   Ar  139   6.327   2.631   5.735
    1   AR   Ar  140   4.602   6.499   4.728
    1   AR   Ar  141   4.457   5.582   4.098
    1   AR   Ar  142   5.137   0.371   7.267
    1   AR   Ar  143   6.151   6.933   6.912
    1   AR   Ar  144   6.509   1.491   4.549
    1   AR   Ar  145   4.272   4.884  -0.560
    1   AR   Ar  146   3.547   2.359   3.123
    1   AR   Ar  147   5.438   3.717  -0.960
    1   AR   Ar  148   3.283   6.382  -1.485
    1   AR   Ar  149   2.246   0.869   0.195
    1   AR   Ar  150   2.075   2.685   2.508
    1   AR   Ar  151   2.700   3.142   3.515
    1   AR   Ar  152   0.928   2.451  -2.261
    1   AR   Ar  153   5.196   0.511   3.659
    1   AR   Ar  154   4.757   2.005   4.241
    1   AR   Ar  155   6.636   3.664   6.113
    1   AR   Ar  156   2.987   4.867   3.267
    1   AR   Ar  157   2.137   5.620   6.599
    1   AR   Ar  158   0.391   1.744   5.496
    1   AR   Ar  159   4.129   0.301   6.539
    1   AR   Ar  160   1.419   1.753   5.191
    1   AR   Ar  161   4.975   4.394   3.268
    1   AR   Ar  162   4.060   5.999  -0.603
    1   AR   Ar  163   5.907   4.510   1.646
    1   AR   Ar  164   1.919   5.820   2.253
    1   AR   Ar  165   3.478   4.053   1.545
    1   AR   Ar  166   2.754   3.684   4.529
    1   AR   Ar  167   6.419   6.779   3.504
    1   AR   Ar  168   5.452   3.911  -2.072
    1   AR   Ar  169   3.769   3.359   3.554
    1   AR   Ar  170   1.395   3.278   6.326
    1   AR   Ar  171   5.670   5.043   4.407
    1   AR   Ar  172   3.675   3.538   4.923
    1   AR   Ar  173   2.538   2.085   6.019
    1   AR   Ar  174   3.544   6.541   4.635
    1   AR   Ar  175   2.960   0.951   6.073
    1   AR   Ar  176   3.717   2.461   4.222
    1   AR   Ar  177   0.608   4.684  -1.136
    1   AR   Ar  178   2.674   6.503   0.335
    1   AR   Ar  179   3.310   7.066   1.214
    1   AR   Ar  180   4.630   1.732  -6.923
    1   AR   Ar  181   6.996   5.167   1.556
    1   AR   Ar  182   0.753   6.054   2.368
    1   AR   Ar  183   4.821   5.479   1.813
    1   AR   Ar  184   4.423   6.429   0.646
    1   AR   Ar  185   2.850   4.759   4.724
    1   AR   Ar  186   3.010   5.867   2.913
    1   AR   Ar  187   3.553   6.579   3.373
    1   AR   Ar  188   2.383   7.066   1.860
    1   AR   Ar  189   5.223   3.251   6.339
    1   AR   Ar  190   2.379   6.605   3.496
    1   AR   Ar  191   3.668   6.209   7.213
    1   AR   Ar  192   4.586   4.704   6.154
    1   AR   Ar  193   2.642   6.219   1.345
    1   AR   Ar  194   5.403   5.025  -0.772
    1   AR   Ar  195   5.483   1.243   0.749
    1   AR   Ar  196   3.361   0.689  -0.360
    1   AR   Ar  197   4.886   2.294   1.353
    1   AR   Ar  198   5.626   0.125   1.626
    1   AR   Ar  199   1.894   0.475   3.956
    1   AR   Ar  200   4.944   3.359   0.086
    1   AR   Ar  201   6.777   6.729   2.584
    1   AR   Ar  202   5.420   0.883   4.677
    1   AR   Ar  203   0.537   6.519   3.274
    1   AR   Ar  204   4.650   5.905   6.995
    1   AR   Ar  205   5.805   2.011   1.946
    1   AR   Ar  206   5.846   0.480   5.963
    1   AR   Ar  207   0.007   3.090   5.114
    1   AR   Ar  208   1.169   6.013   4.598
    1   AR   Ar  209   7.025   2.575  -2.250
    1   AR   Ar  210   1.519   0.227  -0.043
    1   AR   Ar  211   0.111   2.493   1.054
    1   AR   Ar  212   6.059   3.773   0.039
    1   AR   Ar  213   3.811   1.883   2.077
    1   AR   Ar  214   4.822   4.214   2.071
    1   AR   Ar  215   6.732   2.644   1.907
    1   AR   Ar  216   1.374   2.088   0.871
    1   AR   Ar  217   4.549   1.552   3.308
    1   AR   Ar  218   4.752   3.330   4.614
    1   AR   Ar  219   5.143   3.250   3.333
    1   AR   Ar  220   4.673   3.490   1.128
    1   AR   Ar  221   6.996   6.053   3.973
    1   AR   Ar  222   4.952   0.166   5.591
    1   AR   Ar  223   6.844   1.544   6.268
    1   AR   Ar  224   4.715   2.434   5.411
    1   AR   Ar  225   6.494   3.151   3.238
    1   AR   Ar  226   1.345   3.045   3.151
    1   AR   Ar  227   0.536   3.177   2.452
    1   AR   Ar  228   6.258   1.043   1.868
    1   AR   Ar  229   6.782   4.298  -1.213
    1   AR   Ar  230   3.947   4.502   4.133
    1   AR   Ar  231   4.720   2.253   2.553
    1   AR   Ar  232   5.291   3.024   1.849
    1   AR   Ar  233   6.749   2.431   3.975
    1   AR   Ar  234   5.685   2.621   3.965
    1   AR   Ar  235   0.262   0.392   3.503
    1   AR   Ar  236   5.082   5.667   5.143
    1   AR   Ar  237   4.758   2.273   6.619
    1   AR   Ar  238   5.735   5.889   6.943
    1   AR   Ar  239   0.771   4.485  10.220
    1   AR   Ar  240   1.632   2.017   6.584
    1   AR   Ar  241   1.908   5.923  -0.821
    1   AR   Ar  242   5.788   6.152   1.508
    1   AR   Ar  243   5.132   6.090   2.754
    1   AR   Ar  244   0.038   5.256   0.300
    1   AR   Ar  245   4.227   0.618   3.414
    1   AR   Ar  246   5.483   6.318  -0.449
    1   AR   Ar  247   6.801   3.699   1.442
    1   AR   Ar  248   4.897   5.515   0.246
    1   AR   Ar  249   4.818   6.608   1.687
    1   AR   Ar  250   5.257   6.055   3.975
    1   AR   Ar  251   4.444   4.699   5.025
    1   AR   Ar  252   2.598   4.702   2.169
    1   AR   Ar  253   6.121   2.693   6.823
    1   AR   Ar  254   5.085   2.218   9.782
    1   AR   Ar  255   4.387   5.244   9.279
    1   AR   Ar  256   6.197   5.667   3.329
    7.12000  7.12000 12.00000
Argon-slab step 4705
  256
    1   AR   Ar    1   5.038   3.036  -2.740
    1   AR   Ar    2   5.572   6.846   0.526
    1   AR   Ar    3   4.194   3.255  -1.214
    1   AR   Ar    4   2.495   1.343   1.222
    1   AR   Ar    5   6.012   5.563  -0.103
    1   AR   Ar    6   1.639   1.776   2.041
    1   AR   Ar    7   6.031   4.045   3.405
    1   AR   Ar    8   6.284   2.767  -1.353
    1   AR   Ar    9   0.419   6.870   4.435
    1   AR   Ar   10   6.104   6.115   5.243
    1   AR   Ar   11   1.041   0.376   4.944
    1   AR   Ar   12   6.964   1.427   3.538
    1   AR   Ar   13   6.296   0.662   3.964
    1   AR   Ar   14   3.793   1.492   6.452
    1   AR   Ar   15   3.320   6.939   9.145
    1   AR   Ar   16   0.573   0.296   5.915
    1   AR   Ar   17   5.882   2.902   0.822
    1   AR   Ar   18   6.886   5.626  -1.157
    1   AR   Ar   19   5.246   4.456   0.092
    1   AR   Ar   20   6.612   3.953  -2.844
    1   AR   Ar   21   2.656   1.670   2.094
    1   AR   Ar   22   5.309   1.192   2.429
    1   AR   Ar   23   0.381   6.412   1.024
    1   AR   Ar   24   5.671   2.112   3.025
    1   AR   Ar   25   0.649   2.103   4.339
    1   AR   Ar   26   5.524   7.001   4.497
    1   AR   Ar   27   1.956   0.748   2.276
    1   AR   Ar   28   1.763   2.181   3.837
    1   AR   Ar   29   4.648   1.371   7.310
    1   AR   Ar   30   0.762   1.175   2.834
    1   AR   Ar   31   3.456   0.914   7.435
    1   AR   Ar   32   1.079   2.669   5.502
    1   AR   Ar   33   0.786   4.295  -0.068
    1   AR   Ar   34   1.034   5.085   2.339
    1   AR   Ar   35   6.049   5.166   2.406
    1   AR   Ar   36   5.895   2.507  -2.350
    1   AR   Ar   37   3.967   2.967   1.946
    1   AR   Ar   38   6.769   3.988   4.165
    1   AR   Ar   39   0.283   3.183   3.789
    1   AR   Ar   40   1.494   4.538   1.747
    1   AR   Ar   41   0.431   2.160   2.786
    1   AR   Ar   42   5.395   6.438   6.009
    1   AR   Ar   43   0.161   2.749   6.252
    1   AR   Ar   44   0.956   4.341   3.268
    1   AR   Ar   45   0.595   3.682   5.645
    1   AR   Ar   46   0.352   4.598   5.963
    1   AR   Ar   47   4.189   4.472   7.738
    1   AR   Ar   48   6.356   3.492   7.656
    1   AR   Ar   49   6.568   0.020  -0.622
    1   AR   Ar   50   3.729   5.402   0.592
    1   AR   Ar   51   6.065   3.446   2.389
    1   AR   Ar   52   5.127   2.976  -1.745
    1   AR   Ar   53   4.906   0.138   2.649
    1   AR   Ar   54   0.438   0.377   2.307
    1   AR   Ar   55   7.000   4.065   2.933
    1   AR   Ar   56   6.335   1.587   2.636
    1   AR   Ar   57   3.828   4.227   2.669
    1   AR   Ar   58   0.868   3.782   4.437
    1   AR   Ar   59   2.663   5.861   5.766
    1   AR   Ar   60   0.350   5.225   3.234
    1   AR   Ar   61   0.238   3.704   6.825
    1   AR   Ar   62   6.752   4.418   5.228
    1   AR   Ar   63   2.783   2.371   7.038
    1   AR   Ar   64   0.160   5.544   4.925
    1   AR   Ar   65   3.732   0.647   2.319
    1   AR   Ar   66   1.089   0.952   1.279
    1   AR   Ar   67   4.574   0.418  -0.648
    1   AR   Ar   68   0.399   0.828  -0.470
    1   AR   Ar   69   2.952   1.687  -0.007
    1   AR   Ar   70   0.618   1.775   1.702
    1   AR   Ar   71   2.728   0.888   2.964
    1   AR   Ar   72   4.588   1.232   1.724
    1   AR   Ar   73   3.149   0.548   3.803
    1   AR   Ar   74   0.544   1.115   4.261
    1   AR   Ar   75   3.594   0.418   4.944
    1   AR   Ar   76   2.373   0.204   0.930
    1   AR   Ar   77   1.915   7.099   5.227
    1   AR   Ar   78   6.628   5.180   6.155
    1   AR   Ar   79   3.221   6.755   5.556
    1   AR   Ar   80   3.902   5.627   5.147
    1   AR   Ar   81   1.633   6.486   1.386
    1   AR   Ar   82   6.325   4.713   0.416
    1   AR   Ar   83   0.785   3.188   0.242
    1   AR   Ar   84   1.354   4.203   0.757
    1   AR   Ar   85   1.923   3.813  -0.181
    1   AR   Ar   86   2.045   5.314   1.001
    1   AR   Ar   87   2.740   3.700   2.269
    1   AR   Ar   88   3.240   5.462   1.618
    1   AR   Ar   89   6.282   1.870   0.842
    1   AR   Ar   90   3.429   1.675   5.380
    1   AR   Ar   91   1.854   1.447   3.082
    1   AR   Ar   92   1.734   3.531   1.842
    1   AR   Ar   93   1.782   1.024   6.101
    1   AR   Ar   94   1.361   6.438   9.458
    1   AR   Ar   95   4.387   1.116   5.188
    1   AR   Ar   96   2.555   6.979   4.510
    1   AR   Ar   97   3.900   2.193  -0.608
    1   AR   Ar   98   1.726   4.330   4.044
    1   AR   Ar   99   5.592   0.681  -0.725
    1   AR   Ar  100   0.317   3.318  -2.816
    1   AR   Ar  101   3.993   6.326   2.301
    1   AR   Ar  102   3.623   1.368   3.014
    1   AR   Ar  103   2.583   4.154   0.895
    1   AR   Ar  104   3.793   5.479  -1.428
    1   AR   Ar  105   2.864   1.935   3.822
    1   AR   Ar  106   3.518   2.690   5.425
    1   AR   Ar  107   1.139   5.180   5.363
    1   AR   Ar  108   2.324   1.022   4.742
    1   AR   Ar  109   1.638   3.952   5.087
    1   AR   Ar  110   2.476   2.179   4.848
    1   AR   Ar  111   4.405   6.301   8.091
    1   AR   Ar  112   0.042   5.932   5.761
    1   AR   Ar  113   2.522   5.022  -1.246
    1   AR   Ar  114   2.416   0.223  -0.611
    1   AR   Ar  115   1.911   5.010  -0.220
    1   AR   Ar  116   4.716   0.426   0.883
    1   AR   Ar  117   0.717   4.796   4.154
    1   AR   Ar  118   1.447   5.899   3.508
    1   AR   Ar  119   2.120   4.014   3.175
    1   AR   Ar  120   1.692   6.814   2.659
    1   AR   Ar  121   5.642   4.722   5.643
    1   AR   Ar  122   3.278   5.650   4.108
    1   AR   Ar  123   2.530   3.363   5.510
    1   AR   Ar  124   0.959   5.487   1.340
    1   AR   Ar  125   6.090   3.674   4.972
    1   AR   Ar  126   6.846   0.625   6.827
    1   AR   Ar  127   4.146   3.071   6.090
    1   AR   Ar  128   2.729   4.342   7.336
    1   AR   Ar  129   2.319   5.616   4.802
    1   AR   Ar  130   4.103   1.479  -4.728
    1   AR   Ar  131   4.362   4.612  -1.991
    1   AR   Ar  132   0.422   1.590   0.625
    1   AR   Ar  133   4.507   0.432   4.472
    1   AR   Ar  134   3.603   1.350   4.469
    1   AR   Ar  135   5.684   1.470   3.850
    1   AR   Ar  136   6.015   0.431   2.607
    1   AR   Ar  137   3.518   4.311   5.750
    1   AR   Ar  138   5.961   1.477   5.657
    1   AR   Ar  139   6.312   2.613   5.770
    1   AR   Ar  140   4.597   6.489   4.705
    1   AR   Ar  141   4.417   5.570   4.113
    1   AR   Ar  142   5.140   0.361   7.284
    1   AR   Ar  143   6.111   6.934   6.920
    1   AR   Ar  144   6.531   1.487   4.531
    1   AR   Ar  145   4.271   4.893  -0.558
    1   AR   Ar  146   3.510   2.384   3.092
    1   AR   Ar  147   5.416   3.738  -0.963
    1   AR   Ar  148   3.267   6.374  -1.490
    1   AR   Ar  149   2.195   0.871   0.173
    1   AR   Ar  150   2.074   2.670   2.518
    1   AR   Ar  151   2.701   3.171   3.518
    1   AR   Ar  152   0.919   2.425  -2.260
    1   AR   Ar  153   5.168   0.508   3.668
    1   AR   Ar  154   4.715   2.027   4.261
    1   AR   Ar  155   6.624   3.684   6.104
    1   AR   Ar  156   2.992   4.872   3.229
    1   AR   Ar  157   2.148   5.635   6.590
    1   AR   Ar  158   0.359   1.734   5.513
    1   AR   Ar  159   4.118   0.304   6.564
    1   AR   Ar  160   1.403   1.743   5.176
    1   AR   Ar  161   4.964   4.408   3.252
    1   AR   Ar  162   4.040   6.019  -0.579
    1   AR   Ar  163   5.930   4.466   1.630
    1   AR   Ar  164   1.909   5.817   2.244
    1   AR   Ar  165   3.494   4.065   1.530
    1   AR   Ar  166   2.748   3.679   4.502
    1   AR   Ar  167   6.437   6.772   3.498
    1   AR   Ar  168   5.450   3.933  -2.097
    1   AR   Ar  169   3.783   3.372   3.533
    1   AR   Ar  170   1.431   3.284   6.330
    1   AR   Ar  171   5.650   5.064   4.392
    1   AR   Ar  172   3.683   3.523   4.916
    1   AR   Ar  173   2.565   2.088   5.983
    1   AR   Ar  174   3.552   6.546   4.585
    1   AR   Ar  175   2.931   0.928   6.086
    1   AR   Ar  176   3.699   2.476   4.205
    1   AR   Ar  177   0.622   4.692  -1.119
    1   AR   Ar  178   2.689   6.470   0.337
    1   AR   Ar  179   3.318   7.075   1.212
    1   AR   Ar  180   4.677   1.699  -6.906
    1   AR   Ar  181   6.966   5.189   1.566
    1   AR   Ar  182   0.745   6.083   2.348
    1   AR   Ar  183   4.810   5.455   1.849
    1   AR   Ar  184   4.434   6.421   0.646
    1   AR   Ar  185   2.884   4.770   4.714
    1   AR   Ar  186   3.043   5.882   2.912
    1   AR   Ar  187   3.584   6.572   3.404
    1   AR   Ar  188   2.398   7.059   1.862
    1   AR   Ar  189   5.229   3.236   6.354
    1   AR   Ar  190   2.375   6.576   3.489
    1   AR   Ar  191   3.679   6.191   7.212
    1   AR   Ar  192   4.562   4.688   6.124
    1   AR   Ar  193   2.642   6.238   1.310
    1   AR   Ar  194   5.410   5.051  -0.801
    1   AR   Ar  195   5.453   1.221   0.736
    1   AR   Ar  196   3.347   0.678  -0.356
    1   AR   Ar  197   4.884   2.276   1.354
    1   AR   Ar  198   5.638   0.135   1.619
    1   AR   Ar  199   1.874   0.482   3.962
    1   AR   Ar  200   4.927   3.367   0.075
    1   AR   Ar  201   6.795   6.741   2.549
    1   AR   Ar  202   5.395   0.878   4.688
    1   AR   Ar  203   0.503   6.554   3.289
    1   AR   Ar  204   4.672   5.884   7.014
    1   AR   Ar  205   5.805   2.023   1.937
    1   AR   Ar  206   5.837   0.491   5.980
    1   AR   Ar  207   0.014   3.102   5.081
    1   AR   Ar  208   1.181   6.042   4.590
    1   AR   Ar  209   7.016   2.587  -2.241
    1   AR   Ar  210   1.504   0.217  -0.026
    1   AR   Ar  211   0.082   2.501   1.059
    1   AR   Ar  212   6.076   3.757   0.051
    1   AR   Ar  213   3.826   1.885   2.097
    1   AR   Ar  214   4.821   4.239   2.058
    1   AR   Ar  215   6.707   2.646   1.914
    1   AR   Ar  216   1.395   2.072   0.839
    1   AR   Ar  217   4.550   1.560   3.344
    1   AR   Ar  218   4.774   3.336   4.602
    1   AR   Ar  219   5.175   3.268   3.322
    1   AR   Ar  220   4.694   3.494   1.129
    1   AR   Ar  221   7.007   6.062   3.956
    1   AR   Ar  222   4.921   0.204   5.569
    1   AR   Ar  223   6.846   1.536   6.274
    1   AR   Ar  224   4.708   2.417   5.403
    1   AR   Ar  225   6.488   3.187   3.246
    1   AR   Ar  226   1.390   3.057   3.126
    1   AR   Ar  227   0.526   3.195   2.466
    1   AR   Ar  228   6.254   1.025   1.863
    1   AR   Ar  229   6.783   4.302  -1.210
    1   AR   Ar  230   3.974   4.519   4.119
    1   AR   Ar  231   4.699   2.255   2.573
    1   AR   Ar  232   5.258   3.001   1.846
    1   AR   Ar  233   6.707   2.430   3.999
    1   AR   Ar  234   5.692   2.637   3.979
    1   AR   Ar  235   0.251   0.401   3.566
    1   AR   Ar  236   5.019   5.653   5.122
    1   AR   Ar  237   4.757   2.289   6.605
    1   AR   Ar  238   5.728   5.864   6.949
    1   AR   Ar  239   0.791   4.507  10.207
    1   AR   Ar  240   1.662   2.038   6.602
    1   AR   Ar  241   1.934   5.939  -0.806
    1   AR   Ar  242   5.756   6.137   1.507
    1   AR   Ar  243   5.113   6.091   2.739
    1   AR   Ar  244   0.022   5.279   0.311
    1   AR   Ar  245   4.228   0.614   3.423
    1   AR   Ar  246   5.500   6.304  -0.437
    1   AR   Ar  247   6.825   3.675   1.459
    1   AR   Ar  248   4.902   5.497   0.231
    1   AR   Ar  249   4.821   6.576   1.702
    1   AR   Ar  250   5.250   6.102   3.954
    1   AR   Ar  251   4.429   4.669   5.039
    1   AR   Ar  252   2.611   4.703   2.135
    1   AR   Ar  253   6.129   2.653   6.799
    1   AR   Ar  254   5.117   2.226   9.783
    1   AR   Ar  255   4.364   5.266   9.288
    1   AR   Ar  256   6.216   5.653   3.335
    7.12000  7.12000 12.00000
Argon-slab step 4710
  256
    1   AR   Ar    1   5.058   3.022  -2.750
    1   AR   Ar    2   5.568   6.830   0.526
    1   AR   Ar    3   4.182   3.273  -1.219
    1   AR   Ar    4   2.484   1.324   1.203
    1   AR   Ar    5   6.006   5.544  -0.100
    1   AR   Ar    6   1.613   1.750   2.072
    1   AR   Ar    7   6.043   4.037   3.403
    1   AR   Ar    8   6.269   2.797  -1.347
    1   AR   Ar    9   0.428   6.852   4.415
    1   AR   Ar   10   6.103   6.091   5.242
    1   AR   Ar   11   1.050   0.390   4.942
    1   AR   Ar   12   6.977   1.396   3.548
    1   AR   Ar   13   6.315   0.665   3.961
    1   AR   Ar   14   3.791   1.509   6.469
    1   AR   Ar   15   3.324   6.945   9.159
    1   AR   Ar   16   0.584   0.285   5.924
    1   AR   Ar   17   5.837   2.904   0.841
    1   AR   Ar   18   6.908   5.634  -1.127
    1   AR   Ar   19   5.226   4.463   0.120
    1   AR   Ar   20   6.597   3.935  -2.852
    1   AR   Ar   21   2.640   1.661   2.131
    1   AR   Ar   22   5.313   1.203   2.426
    1   AR   Ar   23   0.344   6.400   1.017
    1   AR   Ar   24   5.661   2.116   3.058
    1   AR   Ar   25   0.626   2.104   4.375
    1   AR   Ar   26   5.558   6.990   4.486
    1   AR   Ar   27   1.963   0.784   2.252
    1   AR   Ar   28   1.760   2.157   3.847
    1   AR   Ar   29   4.655   1.377   7.317
    1   AR   Ar   30   0.739   1.181   2.831
    1   AR   Ar   31   3.442   0.907   7.414
    1   AR   Ar   32   1.091   2.672   5.528
    1   AR   Ar   33   0.777   4.308  -0.061
    1   AR   Ar   34   1.020   5.116   2.343
    1   AR   Ar   35   6.064   5.191   2.391
    1   AR   Ar   36   5.936   2.475  -2.353
    1   AR   Ar   37   3.961   2.961   1.962
    1   AR   Ar   38   6.751   3.966   4.157
    1   AR   Ar   39   0.252   3.229   3.828
    1   AR   Ar   40   1.506   4.524   1.736
    1   AR   Ar   41   0.454   2.150   2.768
    1   AR   Ar   42   5.369   6.469   6.015
    1   AR   Ar   43   0.193   2.758   6.249
    1   AR   Ar   44   0.954   4.350   3.283
    1   AR   Ar   45   0.621   3.684   5.642
    1   AR   Ar   46   0.368   4.596   5.972
    1   AR   Ar   47   4.189   4.449   7.713
    1   AR   Ar   48   6.346   3.510   7.672
    1   AR   Ar   49   6.605   0.051  -0.627
    1   AR   Ar   50   3.761   5.400   0.572
    1   AR   Ar   51   6.065   3.463   2.380
    1   AR   Ar   52   5.145   2.979  -1.722
    1   AR   Ar   53   4.913   0.149   2.654
    1   AR   Ar   54   0.446   0.359   2.268
    1   AR   Ar   55   6.976   4.043   2.930
    1   AR   Ar   56   6.360   1.607   2.659
    1   AR   Ar   57   3.832   4.226   2.664
    1   AR   Ar   58   0.867   3.779   4.404
    1   AR   Ar   59   2.658   5.866   5.757
    1   AR   Ar   60   0.375   5.243   3.223
    1   AR   Ar   61   0.235   3.697   6.814
    1   AR   Ar   62   6.774   4.408   5.220
    1   AR   Ar   63   2.772   2.385   7.051
    1   AR   Ar   64   0.119   5.509   4.913
    1   AR   Ar   65   3.727   0.655   2.307
    1   AR   Ar   66   1.082   0.949   1.303
    1   AR   Ar   67   4.577   0.393  -0.641
    1   AR   Ar   68   0.365   0.807  -0.500
    1   AR   Ar   69   2.912   1.683   0.002
    1   AR   Ar   70   0.649   1.799   1.707
    1   AR   Ar   71   2.740   0.886   2.942
    1   AR   Ar   72   4.564   1.241   1.703
    1   AR   Ar   73   3.143   0.521   3.756
    1   AR   Ar   74   0.560   1.094   4.273
    1   AR   Ar   75   3.590   0.398   4.966
    1   AR   Ar   76   2.332   0.167   0.927
    1   AR   Ar   77   1.911   7.065   5.230
    1   AR   Ar   78   6.624   5.153   6.176
    1   AR   Ar   79   3.227   6.741   5.540
    1   AR   Ar   80   3.937   5.634   5.153
    1   AR   Ar   81   1.645   6.468   1.395
    1   AR   Ar   82   6.319   4.699   0.427
    1   AR   Ar   83   0.797   3.199   0.281
    1   AR   Ar   84   1.368   4.203   0.777
    1   AR   Ar   85   1.894   3.813  -0.204
    1   AR   Ar   86   2.020   5.328   0.970
    1   AR   Ar   87   2.729   3.708   2.293
    1   AR   Ar   88   3.289   5.423   1.578
    1   AR   Ar   89   6.283   1.883   0.848
    1   AR   Ar   90   3.407   1.671   5.374
    1   AR   Ar   91   1.844   1.435   3.079
    1   AR   Ar   92   1.738   3.468   1.796
    1   AR   Ar   93   1.804   1.023   6.108
    1   AR   Ar   94   1.376   6.426   9.448
    1   AR   Ar   95   4.402   1.123   5.165
    1   AR   Ar   96   2.591   6.961   4.537
    1   AR   Ar   97   3.832   2.182  -0.599
    1   AR   Ar   98   1.747   4.330   4.043
    1   AR   Ar   99   5.595   0.656  -0.722
    1   AR   Ar  100   0.340   3.333  -2.822
    1   AR   Ar  101   3.966   6.314   2.328
    1   AR   Ar  102   3.611   1.356   3.017
    1   AR   Ar  103   2.581   4.138   0.905
    1   AR   Ar  104   3.796   5.482  -1.441
    1   AR   Ar  105   2.869   1.968   3.817
    1   AR   Ar  106   3.487   2.694   5.444
    1   AR   Ar  107   1.100   5.161   5.382
    1   AR   Ar  108   2.331   1.028   4.752
    1   AR   Ar  109   1.627   3.953   5.103
    1   AR   Ar  110   2.456   2.197   4.832
    1   AR   Ar  111   4.432   6.291   8.082
    1   AR   Ar  112   0.061   5.922   5.766
    1   AR   Ar  113   2.485   5.034  -1.225
    1   AR   Ar  114   2.400   0.216  -0.563
    1   AR   Ar  115   1.889   4.996  -0.190
    1   AR   Ar  116   4.753   0.428   0.865
    1   AR   Ar  117   0.696   4.800   4.135
    1   AR   Ar  118   1.459   5.930   3.487
    1   AR   Ar  119   2.133   4.004   3.179
    1   AR   Ar  120   1.707   6.794   2.671
    1   AR   Ar  121   5.622   4.737   5.630
    1   AR   Ar  122   3.278   5.657   4.111
    1   AR   Ar  123   2.516   3.367   5.527
    1   AR   Ar  124   0.937   5.489   1.350
    1   AR   Ar  125   6.075   3.653   4.991
    1   AR   Ar  126   6.867   0.648   6.865
    1   AR   Ar  127   4.175   3.063   6.094
    1   AR   Ar  128   2.740   4.349   7.304
    1   AR   Ar  129   2.323   5.618   4.805
    1   AR   Ar  130   4.110   1.510  -4.762
    1   AR   Ar  131   4.358   4.592  -1.987
    1   AR   Ar  132   0.411   1.598   0.639
    1   AR   Ar  133   4.507   0.430   4.477
    1   AR   Ar  134   3.593   1.334   4.461
    1   AR   Ar  135   5.697   1.449   3.837
    1   AR   Ar  136   6.008   0.408   2.617
    1   AR   Ar  137   3.495   4.322   5.794
    1   AR   Ar  138   5.933   1.452   5.656
    1   AR   Ar  139   6.297   2.595   5.799
    1   AR   Ar  140   4.591   6.482   4.682
    1   AR   Ar  141   4.369   5.552   4.131
    1   AR   Ar  142   5.143   0.351   7.300
    1   AR   Ar  143   6.069   6.934   6.927
    1   AR   Ar  144   6.556   1.486   4.519
    1   AR   Ar  145   4.272   4.903  -0.555
    1   AR   Ar  146   3.474   2.414   3.059
    1   AR   Ar  147   5.394   3.759  -0.964
    1   AR   Ar  148   3.248   6.368  -1.494
    1   AR   Ar  149   2.153   0.890   0.153
    1   AR   Ar  150   2.082   2.651   2.524
    1   AR   Ar  151   2.702   3.196   3.519
    1   AR   Ar  152   0.914   2.398  -2.260
    1   AR   Ar  153   5.157   0.504   3.677
    1   AR   Ar  154   4.673   2.050   4.284
    1   AR   Ar  155   6.609   3.703   6.088
    1   AR   Ar  156   3.004   4.871   3.209
    1   AR   Ar  157   2.129   5.616   6.605
    1   AR   Ar  158   0.331   1.727   5.523
    1   AR   Ar  159   4.108   0.308   6.588
    1   AR   Ar  160   1.391   1.727   5.159
    1   AR   Ar  161   4.952   4.422   3.236
    1   AR   Ar  162   4.023   6.040  -0.549
    1   AR   Ar  163   5.953   4.419   1.611
    1   AR   Ar  164   1.899   5.812   2.234
    1   AR   Ar  165   3.511   4.078   1.516
    1   AR   Ar  166   2.738   3.676   4.471
    1   AR   Ar  167   6.449   6.771   3.497
    1   AR   Ar  168   5.454   3.943  -2.112
    1   AR   Ar  169   3.799   3.386   3.511
    1   AR   Ar  170   1.466   3.291   6.334
    1   AR   Ar  171   5.633   5.063   4.387
    1   AR   Ar  172   3.697   3.518   4.905
    1   AR   Ar  173   2.592   2.089   5.945
    1   AR   Ar  174   3.581   6.553   4.591
    1   AR   Ar  175   2.901   0.904   6.098
    1   AR   Ar  176   3.682   2.493   4.189
    1   AR   Ar  177   0.640   4.703  -1.100
    1   AR   Ar  178   2.705   6.438   0.330
    1   AR   Ar  179   3.333   7.083   1.211
    1   AR   Ar  180   4.725   1.667  -6.890
    1   AR   Ar  181   6.939   5.220   1.578
    1   AR   Ar  182   0.736   6.116   2.325
    1   AR   Ar  183   4.799   5.430   1.884
    1   AR   Ar  184   4.466   6.411   0.637
    1   AR   Ar  185   2.923   4.776   4.703
    1   AR   Ar  186   3.072   5.892   2.905
    1   AR   Ar  187   3.618   6.572   3.441
    1   AR   Ar  188   2.418   7.048   1.880
    1   AR   Ar  189   5.236   3.221   6.368
    1   AR   Ar  190   2.372   6.547   3.483
    1   AR   Ar  191   3.687   6.175   7.210
    1   AR   Ar  192   4.538   4.673   6.094
    1   AR   Ar  193   2.641   6.252   1.279
    1   AR   Ar  194   5.415   5.075  -0.833
    1   AR   Ar  195   5.421   1.198   0.723
    1   AR   Ar  196   3.335   0.669  -0.352
    1   AR   Ar  197   4.875   2.239   1.327
    1   AR   Ar  198   5.650   0.146   1.610
    1   AR   Ar  199   1.851   0.487   3.964
    1   AR   Ar  200   4.932   3.349   0.058
    1   AR   Ar  201   6.816   6.752   2.509
    1   AR   Ar  202   5.363   0.873   4.700
    1   AR   Ar  203   0.472   6.587   3.301
    1   AR   Ar  204   4.693   5.862   7.033
    1   AR   Ar  205   5.795   2.049   1.912
    1   AR   Ar  206   5.830   0.498   6.001
    1   AR   Ar  207   0.015   3.109   5.042
    1   AR   Ar  208   1.192   6.071   4.582
    1   AR   Ar  209   7.000   2.595  -2.228
    1   AR   Ar  210   1.477   0.197  -0.010
    1   AR   Ar  211   0.070   2.524   1.078
    1   AR   Ar  212   6.103   3.773   0.066
    1   AR   Ar  213   3.837   1.887   2.116
    1   AR   Ar  214   4.821   4.264   2.045
    1   AR   Ar  215   6.678   2.649   1.930
    1   AR   Ar  216   1.415   2.054   0.809
    1   AR   Ar  217   4.562   1.574   3.381
    1   AR   Ar  218   4.787   3.323   4.625
    1   AR   Ar  219   5.207   3.287   3.307
    1   AR   Ar  220   4.712   3.499   1.130
    1   AR   Ar  221   7.019   6.063   3.945
    1   AR   Ar  222   4.885   0.241   5.544
    1   AR   Ar  223   6.844   1.530   6.285
    1   AR   Ar  224   4.701   2.399   5.395
    1   AR   Ar  225   6.475   3.200   3.247
    1   AR   Ar  226   1.429   3.074   3.109
    1   AR   Ar  227   0.514   3.214   2.480
    1   AR   Ar  228   6.252   1.003   1.831
    1   AR   Ar  229   6.802   4.338  -1.235
    1   AR   Ar  230   3.998   4.535   4.100
    1   AR   Ar  231   4.680   2.261   2.590
    1   AR   Ar  232   5.278   3.025   1.843
    1   AR   Ar  233   6.668   2.425   4.024
    1   AR   Ar  234   5.696   2.651   3.996
    1   AR   Ar  235   0.236   0.412   3.626
    1   AR   Ar  236   4.960   5.634   5.103
    1   AR   Ar  237   4.755   2.302   6.590
    1   AR   Ar  238   5.725   5.838   6.954
    1   AR   Ar  239   0.811   4.529  10.193
    1   AR   Ar  240   1.668   2.053   6.608
    1   AR   Ar  241   1.962   5.956  -0.791
    1   AR   Ar  242   5.726   6.120   1.505
    1   AR   Ar  243   5.083   6.112   2.712
    1   AR   Ar  244   0.014   5.307   0.322
    1   AR   Ar  245   4.214   0.600   3.429
    1   AR   Ar  246   5.507   6.304  -0.432
    1   AR   Ar  247   6.848   3.650   1.476
    1   AR   Ar  248   4.904   5.480   0.222
    1   AR   Ar  249   4.822   6.546   1.717
    1   AR   Ar  250   5.253   6.152   3.928
    1   AR   Ar  251   4.415   4.635   5.020
    1   AR   Ar  252   2.621   4.711   2.100
    1   AR   Ar  253   6.136   2.615   6.778
    1   AR   Ar  254   5.148   2.235   9.784
    1   AR   Ar  255   4.341   5.289   9.296
    1   AR   Ar  256   6.234   5.639   3.343
    7.12000  7.12000 12.00000
Argon-slab step 4715
  256
    1   AR   Ar    1   5.077   3.010  -2.764
    1   AR   Ar    2   5.563   6.814   0.529
    1   AR   Ar    3   4.172   3.290  -1.223
    1   AR   Ar    4   2.469   1.299   1.175
    1   AR   Ar    5   6.009   5.516  -0.092
    1   AR   Ar    6   1.584   1.727   2.102
    1   AR   Ar    7   6.040   4.047   3.402
    1   AR   Ar    8   6.253   2.828  -1.340
    1   AR   Ar    9   0.436   6.832   4.395
    1   AR   Ar   10   6.101   6.065   5.240
    1   AR   Ar   11   1.056   0.411   4.939
    1   AR   Ar   12   6.990   1.372   3.553
    1   AR   Ar   13   6.332   0.668   3.988
    1   AR   Ar   14   3.774   1.506   6.468
    1   AR   Ar   15   3.328   6.952   9.171
    1   AR   Ar   16   0.595   0.275   5.934
    1   AR   Ar   17   5.791   2.907   0.861
    1   AR   Ar   18   6.930   5.639  -1.096
    1   AR   Ar   19   5.207   4.470   0.147
    1   AR   Ar   20   6.578   3.923  -2.866
    1   AR   Ar   21   2.632   1.654   2.160
    1   AR   Ar   22   5.318   1.216   2.427
    1   AR   Ar   23   0.307   6.387   1.011
    1   AR   Ar   24   5.634   2.136   3.095
    1   AR   Ar   25   0.603   2.114   4.411
    1   AR   Ar   26   5.594   6.978   4.476
    1   AR   Ar   27   1.967   0.816   2.226
    1   AR   Ar   28   1.779   2.168   3.841
    1   AR   Ar   29   4.660   1.382   7.322
    1   AR   Ar   30   0.719   1.184   2.832
    1   AR   Ar   31   3.430   0.901   7.391
    1   AR   Ar   32   1.102   2.677   5.552
    1   AR   Ar   33   0.750   4.313  -0.058
    1   AR   Ar   34   0.980   5.108   2.368
    1   AR   Ar   35   6.078   5.216   2.374
    1   AR   Ar   36   5.975   2.444  -2.356
    1   AR   Ar   37   3.957   2.957   1.978
    1   AR   Ar   38   6.733   3.948   4.154
    1   AR   Ar   39   0.223   3.266   3.860
    1   AR   Ar   40   1.526   4.505   1.721
    1   AR   Ar   41   0.474   2.147   2.750
    1   AR   Ar   42   5.343   6.500   6.022
    1   AR   Ar   43   0.225   2.767   6.243
    1   AR   Ar   44   0.954   4.350   3.289
    1   AR   Ar   45   0.634   3.688   5.642
    1   AR   Ar   46   0.385   4.599   5.985
    1   AR   Ar   47   4.189   4.425   7.687
    1   AR   Ar   48   6.337   3.526   7.687
    1   AR   Ar   49   6.653   0.082  -0.620
    1   AR   Ar   50   3.795   5.399   0.551
    1   AR   Ar   51   6.054   3.483   2.370
    1   AR   Ar   52   5.164   2.981  -1.694
    1   AR   Ar   53   4.920   0.160   2.657
    1   AR   Ar   54   0.454   0.338   2.226
    1   AR   Ar   55   6.958   4.025   2.924
    1   AR   Ar   56   6.404   1.616   2.681
    1   AR   Ar   57   3.835   4.225   2.658
    1   AR   Ar   58   0.867   3.777   4.375
    1   AR   Ar   59   2.656   5.872   5.746
    1   AR   Ar   60   0.397   5.265   3.212
    1   AR   Ar   61   0.236   3.691   6.805
    1   AR   Ar   62   6.796   4.400   5.211
    1   AR   Ar   63   2.760   2.398   7.061
    1   AR   Ar   64   0.080   5.463   4.880
    1   AR   Ar   65   3.723   0.658   2.290
    1   AR   Ar   66   1.096   0.959   1.298
    1   AR   Ar   67   4.577   0.367  -0.632
    1   AR   Ar   68   0.353   0.798  -0.527
    1   AR   Ar   69   2.872   1.678   0.012
    1   AR   Ar   70   0.674   1.826   1.714
    1   AR   Ar   71   2.742   0.883   2.910
    1   AR   Ar   72   4.540   1.247   1.680
    1   AR   Ar   73   3.142   0.488   3.722
    1   AR   Ar   74   0.581   1.072   4.293
    1   AR   Ar   75   3.583   0.384   4.988
    1   AR   Ar   76   2.286   0.134   0.912
    1   AR   Ar   77   1.903   7.030   5.245
    1   AR   Ar   78   6.614   5.124   6.198
    1   AR   Ar   79   3.230   6.728   5.530
    1   AR   Ar   80   3.963   5.642   5.158
    1   AR   Ar   81   1.630   6.458   1.400
    1   AR   Ar   82   6.311   4.684   0.444
    1   AR   Ar   83   0.809   3.212   0.321
    1   AR   Ar   84   1.386   4.200   0.794
    1   AR   Ar   85   1.864   3.815  -0.225
    1   AR   Ar   86   1.995   5.342   0.941
    1   AR   Ar   87   2.719   3.710   2.318
    1   AR   Ar   88   3.338   5.384   1.539
    1   AR   Ar   89   6.285   1.896   0.857
    1   AR   Ar   90   3.380   1.662   5.372
    1   AR   Ar   91   1.871   1.432   3.043
    1   AR   Ar   92   1.742   3.405   1.751
    1   AR   Ar   93   1.825   1.023   6.113
    1   AR   Ar   94   1.392   6.414   9.437
    1   AR   Ar   95   4.415   1.143   5.152
    1   AR   Ar   96   2.600   6.958   4.534
    1   AR   Ar   97   3.763   2.172  -0.590
    1   AR   Ar   98   1.767   4.333   4.050
    1   AR   Ar   99   5.603   0.630  -0.719
    1   AR   Ar  100   0.368   3.347  -2.829
    1   AR   Ar  101   3.955   6.297   2.351
    1   AR   Ar  102   3.600   1.354   3.026
    1   AR   Ar  103   2.574   4.121   0.916
    1   AR   Ar  104   3.801   5.481  -1.456
    1   AR   Ar  105   2.869   1.996   3.811
    1   AR   Ar  106   3.448   2.694   5.462
    1   AR   Ar  107   1.061   5.141   5.399
    1   AR   Ar  108   2.339   1.034   4.765
    1   AR   Ar  109   1.619   3.955   5.122
    1   AR   Ar  110   2.438   2.214   4.817
    1   AR   Ar  111   4.459   6.280   8.072
    1   AR   Ar  112   0.081   5.924   5.790
    1   AR   Ar  113   2.449   5.047  -1.203
    1   AR   Ar  114   2.386   0.201  -0.520
    1   AR   Ar  115   1.866   4.981  -0.160
    1   AR   Ar  116   4.788   0.425   0.849
    1   AR   Ar  117   0.672   4.809   4.127
    1   AR   Ar  118   1.469   5.960   3.464
    1   AR   Ar  119   2.146   3.994   3.173
    1   AR   Ar  120   1.719   6.775   2.682
    1   AR   Ar  121   5.603   4.754   5.615
    1   AR   Ar  122   3.275   5.662   4.112
    1   AR   Ar  123   2.496   3.365   5.534
    1   AR   Ar  124   0.916   5.491   1.360
    1   AR   Ar  125   6.058   3.629   5.009
    1   AR   Ar  126   6.886   0.668   6.902
    1   AR   Ar  127   4.206   3.060   6.101
    1   AR   Ar  128   2.752   4.356   7.272
    1   AR   Ar  129   2.304   5.587   4.810
    1   AR   Ar  130   4.116   1.540  -4.795
    1   AR   Ar  131   4.353   4.573  -1.981
    1   AR   Ar  132   0.400   1.603   0.652
    1   AR   Ar  133   4.499   0.414   4.473
    1   AR   Ar  134   3.583   1.317   4.439
    1   AR   Ar  135   5.705   1.434   3.824
    1   AR   Ar  136   6.001   0.381   2.636
    1   AR   Ar  137   3.472   4.331   5.835
    1   AR   Ar  138   5.905   1.435   5.651
    1   AR   Ar  139   6.285   2.577   5.816
    1   AR   Ar  140   4.586   6.482   4.661
    1   AR   Ar  141   4.320   5.534   4.149
    1   AR   Ar  142   5.146   0.340   7.314
    1   AR   Ar  143   6.027   6.934   6.933
    1   AR   Ar  144   6.582   1.489   4.516
    1   AR   Ar  145   4.274   4.914  -0.552
    1   AR   Ar  146   3.439   2.448   3.025
    1   AR   Ar  147   5.371   3.782  -0.964
    1   AR   Ar  148   3.228   6.366  -1.497
    1   AR   Ar  149   2.118   0.925   0.140
    1   AR   Ar  150   2.090   2.643   2.530
    1   AR   Ar  151   2.705   3.215   3.519
    1   AR   Ar  152   0.912   2.372  -2.260
    1   AR   Ar  153   5.162   0.499   3.684
    1   AR   Ar  154   4.634   2.074   4.314
    1   AR   Ar  155   6.592   3.721   6.068
    1   AR   Ar  156   3.021   4.865   3.201
    1   AR   Ar  157   2.108   5.595   6.625
    1   AR   Ar  158   0.309   1.724   5.523
    1   AR   Ar  159   4.099   0.314   6.612
    1   AR   Ar  160   1.382   1.708   5.140
    1   AR   Ar  161   4.939   4.436   3.220
    1   AR   Ar  162   4.007   6.062  -0.517
    1   AR   Ar  163   5.976   4.370   1.592
    1   AR   Ar  164   1.890   5.806   2.223
    1   AR   Ar  165   3.528   4.091   1.505
    1   AR   Ar  166   2.725   3.675   4.441
    1   AR   Ar  167   6.456   6.776   3.495
    1   AR   Ar  168   5.468   3.934  -2.110
    1   AR   Ar  169   3.815   3.402   3.491
    1   AR   Ar  170   1.501   3.298   6.337
    1   AR   Ar  171   5.615   5.057   4.386
    1   AR   Ar  172   3.716   3.520   4.890
    1   AR   Ar  173   2.619   2.092   5.907
    1   AR   Ar  174   3.608   6.558   4.589
    1   AR   Ar  175   2.873   0.881   6.109
    1   AR   Ar  176   3.667   2.512   4.177
    1   AR   Ar  177   0.662   4.716  -1.080
    1   AR   Ar  178   2.721   6.409   0.307
    1   AR   Ar  179   3.353   7.092   1.211
    1   AR   Ar  180   4.772   1.634  -6.873
    1   AR   Ar  181   6.912   5.250   1.590
    1   AR   Ar  182   0.727   6.154   2.303
    1   AR   Ar  183   4.814   5.436   1.891
    1   AR   Ar  184   4.498   6.403   0.629
    1   AR   Ar  185   2.966   4.777   4.692
    1   AR   Ar  186   3.097   5.901   2.894
    1   AR   Ar  187   3.656   6.578   3.483
    1   AR   Ar  188   2.441   7.037   1.912
    1   AR   Ar  189   5.246   3.208   6.380
    1   AR   Ar  190   2.372   6.520   3.479
    1   AR   Ar  191   3.694   6.159   7.209
    1   AR   Ar  192   4.514   4.658   6.064
    1   AR   Ar  193   2.645   6.256   1.261
    1   AR   Ar  194   5.418   5.098  -0.866
    1   AR   Ar  195   5.392   1.178   0.713
    1   AR   Ar  196   3.331   0.659  -0.349
    1   AR   Ar  197   4.863   2.198   1.297
    1   AR   Ar  198   5.660   0.157   1.601
    1   AR   Ar  199   1.837   0.484   3.966
    1   AR   Ar  200   4.946   3.325   0.038
    1   AR   Ar  201   6.836   6.761   2.465
    1   AR   Ar  202   5.341   0.876   4.718
    1   AR   Ar  203   0.448   6.619   3.307
    1   AR   Ar  204   4.711   5.840   7.052
    1   AR   Ar  205   5.795   2.063   1.856
    1   AR   Ar  206   5.825   0.498   6.025
    1   AR   Ar  207   0.013   3.113   5.000
    1   AR   Ar  208   1.204   6.099   4.575
    1   AR   Ar  209   6.980   2.603  -2.212
    1   AR   Ar  210   1.440   0.168   0.006
    1   AR   Ar  211   0.063   2.543   1.088
    1   AR   Ar  212   6.110   3.788   0.066
    1   AR   Ar  213   3.843   1.887   2.133
    1   AR   Ar  214   4.821   4.289   2.032
    1   AR   Ar  215   6.646   2.652   1.956
    1   AR   Ar  216   1.435   2.035   0.781
    1   AR   Ar  217   4.581   1.588   3.416
    1   AR   Ar  218   4.800   3.309   4.648
    1   AR   Ar  219   5.227   3.287   3.296
    1   AR   Ar  220   4.728   3.506   1.128
    1   AR   Ar  221   7.032   6.053   3.942
    1   AR   Ar  222   4.857   0.282   5.528
    1   AR   Ar  223   6.836   1.526   6.302
    1   AR   Ar  224   4.692   2.381   5.385
    1   AR   Ar  225   6.450   3.178   3.236
    1   AR   Ar  226   1.458   3.097   3.102
    1   AR   Ar  227   0.500   3.234   2.494
    1   AR   Ar  228   6.252   0.984   1.788
    1   AR   Ar  229   6.815   4.373  -1.260
    1   AR   Ar  230   4.017   4.548   4.075
    1   AR   Ar  231   4.664   2.270   2.605
    1   AR   Ar  232   5.272   2.997   1.853
    1   AR   Ar  233   6.639   2.417   4.049
    1   AR   Ar  234   5.691   2.666   4.015
    1   AR   Ar  235   0.229   0.427   3.631
    1   AR   Ar  236   4.912   5.610   5.086
    1   AR   Ar  237   4.730   2.293   6.574
    1   AR   Ar  238   5.726   5.813   6.957
    1   AR   Ar  239   0.831   4.551  10.179
    1   AR   Ar  240   1.675   2.070   6.613
    1   AR   Ar  241   1.990   5.973  -0.775
    1   AR   Ar  242   5.701   6.101   1.503
    1   AR   Ar  243   5.054   6.134   2.687
    1   AR   Ar  244   0.025   5.343   0.364
    1   AR   Ar  245   4.186   0.581   3.433
    1   AR   Ar  246   5.504   6.317  -0.432
    1   AR   Ar  247   6.870   3.625   1.494
    1   AR   Ar  248   4.902   5.464   0.225
    1   AR   Ar  249   4.820   6.524   1.721
    1   AR   Ar  250   5.260   6.199   3.898
    1   AR   Ar  251   4.403   4.602   5.005
    1   AR   Ar  252   2.630   4.724   2.065
    1   AR   Ar  253   6.142   2.577   6.766
    1   AR   Ar  254   5.179   2.243   9.786
    1   AR   Ar  255   4.318   5.312   9.304
    1   AR   Ar  256   6.251   5.627   3.353
    7.12000  7.12000 12.00000
Argon-slab step 4720
  256
    1   AR   Ar    1   5.097   2.998  -2.780
    1   AR   Ar    2   5.557   6.798   0.534
    1   AR   Ar    3   4.163   3.308  -1.227
    1   AR   Ar    4   2.452   1.271   1.144
    1   AR   Ar    5   6.017   5.485  -0.080
    1   AR   Ar    6   1.554   1.714   2.129
    1   AR   Ar    7   6.022   4.072   3.402
    1   AR   Ar    8   6.236   2.860  -1.335
    1   AR   Ar    9   0.444   6.814   4.378
    1   AR   Ar   10   6.099   6.038   5.237
    1   AR   Ar   11   1.067   0.426   4.935
    1   AR   Ar   12   7.003   1.358   3.553
    1   AR   Ar   13   6.349   0.657   4.014
    1   AR   Ar   14   3.754   1.499   6.462
    1   AR   Ar   15   3.332   6.958   9.184
    1   AR   Ar   16   0.605   0.266   5.945
    1   AR   Ar   17   5.744   2.911   0.883
    1   AR   Ar   18   6.923   5.633  -1.053
    1   AR   Ar   19   5.190   4.472   0.172
    1   AR   Ar   20   6.556   3.911  -2.878
    1   AR   Ar   21   2.616   1.647   2.198
    1   AR   Ar   22   5.323   1.230   2.430
    1   AR   Ar   23   0.270   6.373   1.006
    1   AR   Ar   24   5.602   2.163   3.128
    1   AR   Ar   25   0.578   2.127   4.449
    1   AR   Ar   26   5.610   6.971   4.479
    1   AR   Ar   27   1.967   0.835   2.192
    1   AR   Ar   28   1.798   2.179   3.837
    1   AR   Ar   29   4.664   1.387   7.325
    1   AR   Ar   30   0.704   1.179   2.834
    1   AR   Ar   31   3.419   0.894   7.366
    1   AR   Ar   32   1.111   2.681   5.575
    1   AR   Ar   33   0.723   4.318  -0.056
    1   AR   Ar   34   1.017   5.111   2.353
    1   AR   Ar   35   6.091   5.241   2.356
    1   AR   Ar   36   6.007   2.413  -2.360
    1   AR   Ar   37   3.955   2.954   1.995
    1   AR   Ar   38   6.708   3.943   4.160
    1   AR   Ar   39   0.207   3.296   3.865
    1   AR   Ar   40   1.553   4.489   1.714
    1   AR   Ar   41   0.491   2.154   2.733
    1   AR   Ar   42   5.317   6.530   6.029
    1   AR   Ar   43   0.230   2.777   6.231
    1   AR   Ar   44   0.958   4.343   3.286
    1   AR   Ar   45   0.625   3.698   5.643
    1   AR   Ar   46   0.401   4.607   6.005
    1   AR   Ar   47   4.189   4.403   7.661
    1   AR   Ar   48   6.328   3.543   7.700
    1   AR   Ar   49   6.699   0.111  -0.612
    1   AR   Ar   50   3.831   5.399   0.527
    1   AR   Ar   51   6.028   3.506   2.364
    1   AR   Ar   52   5.183   2.982  -1.664
    1   AR   Ar   53   4.925   0.170   2.658
    1   AR   Ar   54   0.466   0.317   2.184
    1   AR   Ar   55   6.947   4.011   2.916
    1   AR   Ar   56   6.454   1.622   2.701
    1   AR   Ar   57   3.838   4.223   2.653
    1   AR   Ar   58   0.874   3.782   4.354
    1   AR   Ar   59   2.655   5.877   5.737
    1   AR   Ar   60   0.415   5.293   3.201
    1   AR   Ar   61   0.239   3.686   6.796
    1   AR   Ar   62   6.818   4.394   5.200
    1   AR   Ar   63   2.748   2.410   7.069
    1   AR   Ar   64   0.042   5.413   4.840
    1   AR   Ar   65   3.720   0.657   2.269
    1   AR   Ar   66   1.116   0.970   1.286
    1   AR   Ar   67   4.573   0.339  -0.621
    1   AR   Ar   68   0.358   0.797  -0.553
    1   AR   Ar   69   2.834   1.674   0.022
    1   AR   Ar   70   0.687   1.857   1.718
    1   AR   Ar   71   2.737   0.875   2.870
    1   AR   Ar   72   4.518   1.248   1.655
    1   AR   Ar   73   3.145   0.450   3.699
    1   AR   Ar   74   0.604   1.057   4.319
    1   AR   Ar   75   3.575   0.380   5.011
    1   AR   Ar   76   2.239   0.103   0.893
    1   AR   Ar   77   1.894   6.994   5.267
    1   AR   Ar   78   6.599   5.094   6.219
    1   AR   Ar   79   3.230   6.711   5.527
    1   AR   Ar   80   3.965   5.650   5.166
    1   AR   Ar   81   1.610   6.448   1.405
    1   AR   Ar   82   6.303   4.673   0.470
    1   AR   Ar   83   0.822   3.225   0.362
    1   AR   Ar   84   1.405   4.194   0.802
    1   AR   Ar   85   1.833   3.819  -0.245
    1   AR   Ar   86   1.969   5.355   0.914
    1   AR   Ar   87   2.737   3.722   2.319
    1   AR   Ar   88   3.387   5.346   1.502
    1   AR   Ar   89   6.287   1.908   0.868
    1   AR   Ar   90   3.355   1.647   5.372
    1   AR   Ar   91   1.896   1.432   3.017
    1   AR   Ar   92   1.746   3.341   1.706
    1   AR   Ar   93   1.828   1.010   6.123
    1   AR   Ar   94   1.407   6.401   9.427
    1   AR   Ar   95   4.423   1.175   5.145
    1   AR   Ar   96   2.616   6.956   4.524
    1   AR   Ar   97   3.694   2.161  -0.581
    1   AR   Ar   98   1.785   4.338   4.065
    1   AR   Ar   99   5.613   0.604  -0.714
    1   AR   Ar  100   0.382   3.361  -2.829
    1   AR   Ar  101   3.944   6.280   2.375
    1   AR   Ar  102   3.595   1.362   3.043
    1   AR   Ar  103   2.558   4.096   0.931
    1   AR   Ar  104   3.808   5.475  -1.470
    1   AR   Ar  105   2.864   2.019   3.803
    1   AR   Ar  106   3.436   2.688   5.462
    1   AR   Ar  107   1.024   5.124   5.412
    1   AR   Ar  108   2.350   1.042   4.779
    1   AR   Ar  109   1.611   3.957   5.142
    1   AR   Ar  110   2.420   2.231   4.801
    1   AR   Ar  111   4.450   6.263   8.068
    1   AR   Ar  112   0.102   5.930   5.818
    1   AR   Ar  113   2.412   5.060  -1.180
    1   AR   Ar  114   2.373   0.179  -0.481
    1   AR   Ar  115   1.843   4.966  -0.129
    1   AR   Ar  116   4.812   0.409   0.837
    1   AR   Ar  117   0.646   4.824   4.131
    1   AR   Ar  118   1.475   5.990   3.440
    1   AR   Ar  119   2.158   3.989   3.160
    1   AR   Ar  120   1.727   6.757   2.692
    1   AR   Ar  121   5.584   4.770   5.599
    1   AR   Ar  122   3.270   5.654   4.102
    1   AR   Ar  123   2.466   3.357   5.528
    1   AR   Ar  124   0.919   5.520   1.347
    1   AR   Ar  125   6.041   3.603   5.028
    1   AR   Ar  126   6.905   0.685   6.940
    1   AR   Ar  127   4.236   3.062   6.107
    1   AR   Ar  128   2.765   4.363   7.239
    1   AR   Ar  129   2.271   5.533   4.815
    1   AR   Ar  130   4.123   1.571  -4.829
    1   AR   Ar  131   4.350   4.553  -1.974
    1   AR   Ar  132   0.388   1.607   0.665
    1   AR   Ar  133   4.482   0.388   4.461
    1   AR   Ar  134   3.575   1.299   4.407
    1   AR   Ar  135   5.709   1.424   3.814
    1   AR   Ar  136   5.995   0.352   2.659
    1   AR   Ar  137   3.450   4.341   5.874
    1   AR   Ar  138   5.877   1.424   5.641
    1   AR   Ar  139   6.276   2.559   5.814
    1   AR   Ar  140   4.590   6.486   4.642
    1   AR   Ar  141   4.277   5.520   4.166
    1   AR   Ar  142   5.146   0.329   7.327
    1   AR   Ar  143   5.984   6.933   6.936
    1   AR   Ar  144   6.610   1.496   4.522
    1   AR   Ar  145   4.277   4.926  -0.548
    1   AR   Ar  146   3.406   2.483   2.988
    1   AR   Ar  147   5.349   3.805  -0.963
    1   AR   Ar  148   3.205   6.366  -1.498
    1   AR   Ar  149   2.085   0.967   0.134
    1   AR   Ar  150   2.108   2.631   2.530
    1   AR   Ar  151   2.698   3.230   3.512
    1   AR   Ar  152   0.910   2.346  -2.261
    1   AR   Ar  153   5.178   0.494   3.688
    1   AR   Ar  154   4.598   2.099   4.348
    1   AR   Ar  155   6.573   3.738   6.045
    1   AR   Ar  156   3.037   4.856   3.193
    1   AR   Ar  157   2.086   5.574   6.646
    1   AR   Ar  158   0.293   1.724   5.515
    1   AR   Ar  159   4.089   0.321   6.635
    1   AR   Ar  160   1.374   1.686   5.121
    1   AR   Ar  161   4.929   4.440   3.208
    1   AR   Ar  162   3.992   6.084  -0.482
    1   AR   Ar  163   5.998   4.321   1.572
    1   AR   Ar  164   1.882   5.798   2.212
    1   AR   Ar  165   3.546   4.104   1.496
    1   AR   Ar  166   2.710   3.676   4.415
    1   AR   Ar  167   6.458   6.785   3.492
    1   AR   Ar  168   5.483   3.924  -2.109
    1   AR   Ar  169   3.831   3.419   3.471
    1   AR   Ar  170   1.536   3.305   6.340
    1   AR   Ar  171   5.597   5.051   4.385
    1   AR   Ar  172   3.737   3.526   4.873
    1   AR   Ar  173   2.640   2.095   5.873
    1   AR   Ar  174   3.626   6.558   4.581
    1   AR   Ar  175   2.910   0.852   6.105
    1   AR   Ar  176   3.655   2.536   4.168
    1   AR   Ar  177   0.688   4.732  -1.059
    1   AR   Ar  178   2.739   6.384   0.268
    1   AR   Ar  179   3.373   7.101   1.212
    1   AR   Ar  180   4.819   1.601  -6.857
    1   AR   Ar  181   6.886   5.281   1.601
    1   AR   Ar  182   0.719   6.193   2.280
    1   AR   Ar  183   4.847   5.460   1.877
    1   AR   Ar  184   4.530   6.395   0.620
    1   AR   Ar  185   3.013   4.775   4.680
    1   AR   Ar  186   3.119   5.908   2.882
    1   AR   Ar  187   3.695   6.585   3.526
    1   AR   Ar  188   2.466   7.026   1.951
    1   AR   Ar  189   5.259   3.196   6.390
    1   AR   Ar  190   2.377   6.494   3.479
    1   AR   Ar  191   3.700   6.144   7.208
    1   AR   Ar  192   4.492   4.644   6.036
    1   AR   Ar  193   2.651   6.251   1.256
    1   AR   Ar  194   5.417   5.119  -0.899
    1   AR   Ar  195   5.373   1.171   0.702
    1   AR   Ar  196   3.330   0.650  -0.346
    1   AR   Ar  197   4.851   2.157   1.266
    1   AR   Ar  198   5.665   0.163   1.590
    1   AR   Ar  199   1.818   0.454   3.951
    1   AR   Ar  200   4.960   3.302   0.019
    1   AR   Ar  201   6.854   6.766   2.423
    1   AR   Ar  202   5.332   0.887   4.737
    1   AR   Ar  203   0.432   6.647   3.304
    1   AR   Ar  204   4.725   5.818   7.070
    1   AR   Ar  205   5.774   2.070   1.842
    1   AR   Ar  206   5.819   0.491   6.052
    1   AR   Ar  207   0.009   3.115   4.956
    1   AR   Ar  208   1.213   6.114   4.560
    1   AR   Ar  209   6.963   2.611  -2.194
    1   AR   Ar  210   1.430   0.150   0.011
    1   AR   Ar  211   0.062   2.543   1.084
    1   AR   Ar  212   6.109   3.794   0.060
    1   AR   Ar  213   3.842   1.887   2.148
    1   AR   Ar  214   4.821   4.312   2.019
    1   AR   Ar  215   6.615   2.656   1.988
    1   AR   Ar  216   1.454   2.015   0.755
    1   AR   Ar  217   4.603   1.599   3.448
    1   AR   Ar  218   4.813   3.293   4.670
    1   AR   Ar  219   5.219   3.252   3.291
    1   AR   Ar  220   4.742   3.515   1.125
    1   AR   Ar  221   7.012   6.045   3.951
    1   AR   Ar  222   4.842   0.326   5.528
    1   AR   Ar  223   6.821   1.524   6.324
    1   AR   Ar  224   4.683   2.362   5.376
    1   AR   Ar  225   6.431   3.134   3.232
    1   AR   Ar  226   1.476   3.129   3.106
    1   AR   Ar  227   0.485   3.255   2.507
    1   AR   Ar  228   6.255   0.971   1.743
    1   AR   Ar  229   6.824   4.407  -1.285
    1   AR   Ar  230   4.030   4.555   4.042
    1   AR   Ar  231   4.662   2.268   2.620
    1   AR   Ar  232   5.265   2.971   1.867
    1   AR   Ar  233   6.623   2.409   4.072
    1   AR   Ar  234   5.675   2.684   4.039
    1   AR   Ar  235   0.227   0.442   3.598
    1   AR   Ar  236   4.889   5.580   5.071
    1   AR   Ar  237   4.680   2.276   6.582
    1   AR   Ar  238   5.733   5.795   6.965
    1   AR   Ar  239   0.851   4.573  10.165
    1   AR   Ar  240   1.682   2.088   6.616
    1   AR   Ar  241   2.019   5.991  -0.757
    1   AR   Ar  242   5.686   6.077   1.504
    1   AR   Ar  243   5.027   6.156   2.665
    1   AR   Ar  244   0.038   5.381   0.406
    1   AR   Ar  245   4.205   0.598   3.411
    1   AR   Ar  246   5.495   6.335  -0.436
    1   AR   Ar  247   6.891   3.600   1.513
    1   AR   Ar  248   4.899   5.452   0.226
    1   AR   Ar  249   4.801   6.548   1.715
    1   AR   Ar  250   5.266   6.240   3.863
    1   AR   Ar  251   4.393   4.568   4.995
    1   AR   Ar  252   2.638   4.739   2.028
    1   AR   Ar  253   6.146   2.540   6.773
    1   AR   Ar  254   5.211   2.252   9.787
    1   AR   Ar  255   4.295   5.335   9.311
    1   AR   Ar  256   6.266   5.615   3.363
    7.12000  7.12000 12.00000
Argon-slab step 4725
  256
    1   AR   Ar    1   5.118   2.987  -2.794
    1   AR   Ar    2   5.553   6.782   0.541
    1   AR   Ar    3   4.156   3.326  -1.231
    1   AR   Ar    4   2.433   1.243   1.114
    1   AR   Ar    5   6.026   5.457  -0.069
    1   AR   Ar    6   1.526   1.715   2.152
    1   AR   Ar    7   5.995   4.102   3.400
    1   AR   Ar    8   6.220   2.894  -1.329
    1   AR   Ar    9   0.449   6.843   4.371
    1   AR   Ar   10   6.096   6.010   5.234
    1   AR   Ar   11   1.096   0.413   4.927
    1   AR   Ar   12   7.013   1.360   3.552
    1   AR   Ar   13   6.365   0.632   4.038
    1   AR   Ar   14   3.734   1.492   6.455
    1   AR   Ar   15   3.335   6.970   9.201
    1   AR   Ar   16   0.614   0.257   5.955
    1   AR   Ar   17   5.698   2.915   0.905
    1   AR   Ar   18   6.895   5.619  -1.002
    1   AR   Ar   19   5.175   4.469   0.196
    1   AR   Ar   20   6.533   3.899  -2.890
    1   AR   Ar   21   2.604   1.647   2.230
    1   AR   Ar   22   5.329   1.245   2.435
    1   AR   Ar   23   0.234   6.358   1.003
    1   AR   Ar   24   5.569   2.195   3.153
    1   AR   Ar   25   0.560   2.125   4.481
    1   AR   Ar   26   5.607   6.960   4.487
    1   AR   Ar   27   1.966   0.834   2.151
    1   AR   Ar   28   1.815   2.192   3.833
    1   AR   Ar   29   4.667   1.391   7.326
    1   AR   Ar   30   0.693   1.166   2.836
    1   AR   Ar   31   3.408   0.888   7.340
    1   AR   Ar   32   1.119   2.684   5.596
    1   AR   Ar   33   0.696   4.323  -0.053
    1   AR   Ar   34   1.053   5.115   2.341
    1   AR   Ar   35   6.101   5.265   2.336
    1   AR   Ar   36   6.028   2.381  -2.365
    1   AR   Ar   37   3.954   2.954   2.013
    1   AR   Ar   38   6.671   3.953   4.179
    1   AR   Ar   39   0.210   3.321   3.833
    1   AR   Ar   40   1.586   4.476   1.719
    1   AR   Ar   41   0.505   2.169   2.716
    1   AR   Ar   42   5.292   6.561   6.036
    1   AR   Ar   43   0.220   2.786   6.221
    1   AR   Ar   44   0.965   4.331   3.277
    1   AR   Ar   45   0.617   3.700   5.642
    1   AR   Ar   46   0.411   4.616   6.032
    1   AR   Ar   47   4.189   4.380   7.635
    1   AR   Ar   48   6.321   3.538   7.689
    1   AR   Ar   49   6.740   0.137  -0.604
    1   AR   Ar   50   3.831   5.376   0.504
    1   AR   Ar   51   6.001   3.534   2.355
    1   AR   Ar   52   5.173   2.972  -1.642
    1   AR   Ar   53   4.929   0.180   2.657
    1   AR   Ar   54   0.485   0.298   2.180
    1   AR   Ar   55   6.946   4.009   2.906
    1   AR   Ar   56   6.502   1.628   2.716
    1   AR   Ar   57   3.840   4.221   2.647
    1   AR   Ar   58   0.893   3.795   4.343
    1   AR   Ar   59   2.653   5.880   5.730
    1   AR   Ar   60   0.430   5.325   3.190
    1   AR   Ar   61   0.243   3.683   6.787
    1   AR   Ar   62   6.841   4.387   5.188
    1   AR   Ar   63   2.736   2.421   7.076
    1   AR   Ar   64   0.003   5.362   4.802
    1   AR   Ar   65   3.717   0.655   2.246
    1   AR   Ar   66   1.139   0.980   1.275
    1   AR   Ar   67   4.568   0.310  -0.609
    1   AR   Ar   68   0.368   0.800  -0.577
    1   AR   Ar   69   2.830   1.675   0.017
    1   AR   Ar   70   0.686   1.892   1.715
    1   AR   Ar   71   2.732   0.857   2.829
    1   AR   Ar   72   4.497   1.243   1.630
    1   AR   Ar   73   3.150   0.410   3.684
    1   AR   Ar   74   0.625   1.051   4.345
    1   AR   Ar   75   3.567   0.388   5.032
    1   AR   Ar   76   2.206   0.077   0.882
    1   AR   Ar   77   1.885   6.956   5.294
    1   AR   Ar   78   6.581   5.064   6.239
    1   AR   Ar   79   3.228   6.693   5.531
    1   AR   Ar   80   3.936   5.661   5.178
    1   AR   Ar   81   1.586   6.439   1.410
    1   AR   Ar   82   6.299   4.667   0.504
    1   AR   Ar   83   0.836   3.239   0.404
    1   AR   Ar   84   1.399   4.193   0.801
    1   AR   Ar   85   1.799   3.824  -0.263
    1   AR   Ar   86   1.944   5.368   0.889
    1   AR   Ar   87   2.763   3.733   2.312
    1   AR   Ar   88   3.435   5.307   1.467
    1   AR   Ar   89   6.289   1.920   0.880
    1   AR   Ar   90   3.339   1.623   5.369
    1   AR   Ar   91   1.919   1.437   3.007
    1   AR   Ar   92   1.750   3.280   1.662
    1   AR   Ar   93   1.829   0.998   6.130
    1   AR   Ar   94   1.423   6.389   9.416
    1   AR   Ar   95   4.423   1.218   5.140
    1   AR   Ar   96   2.635   6.954   4.510
    1   AR   Ar   97   3.625   2.151  -0.571
    1   AR   Ar   98   1.802   4.346   4.083
    1   AR   Ar   99   5.624   0.584  -0.712
    1   AR   Ar  100   0.377   3.376  -2.818
    1   AR   Ar  101   3.938   6.265   2.396
    1   AR   Ar  102   3.593   1.380   3.065
    1   AR   Ar  103   2.552   4.089   0.953
    1   AR   Ar  104   3.816   5.468  -1.482
    1   AR   Ar  105   2.855   2.036   3.792
    1   AR   Ar  106   3.442   2.680   5.451
    1   AR   Ar  107   0.992   5.112   5.418
    1   AR   Ar  108   2.361   1.049   4.793
    1   AR   Ar  109   1.604   3.959   5.162
    1   AR   Ar  110   2.404   2.249   4.786
    1   AR   Ar  111   4.416   6.241   8.068
    1   AR   Ar  112   0.123   5.936   5.846
    1   AR   Ar  113   2.376   5.073  -1.156
    1   AR   Ar  114   2.362   0.152  -0.445
    1   AR   Ar  115   1.819   4.949  -0.099
    1   AR   Ar  116   4.824   0.377   0.830
    1   AR   Ar  117   0.619   4.842   4.142
    1   AR   Ar  118   1.474   6.015   3.416
    1   AR   Ar  119   2.164   3.992   3.141
    1   AR   Ar  120   1.731   6.743   2.700
    1   AR   Ar  121   5.566   4.779   5.584
    1   AR   Ar  122   3.257   5.648   4.090
    1   AR   Ar  123   2.438   3.347   5.520
    1   AR   Ar  124   0.891   5.486   1.360
    1   AR   Ar  125   6.024   3.576   5.047
    1   AR   Ar  126   6.924   0.698   6.979
    1   AR   Ar  127   4.261   3.069   6.109
    1   AR   Ar  128   2.777   4.371   7.205
    1   AR   Ar  129   2.234   5.481   4.816
    1   AR   Ar  130   4.129   1.601  -4.862
    1   AR   Ar  131   4.347   4.532  -1.965
    1   AR   Ar  132   0.377   1.610   0.677
    1   AR   Ar  133   4.446   0.393   4.452
    1   AR   Ar  134   3.569   1.281   4.370
    1   AR   Ar  135   5.718   1.422   3.809
    1   AR   Ar  136   5.991   0.324   2.684
    1   AR   Ar  137   3.427   4.349   5.911
    1   AR   Ar  138   5.851   1.421   5.629
    1   AR   Ar  139   6.270   2.543   5.795
    1   AR   Ar  140   4.608   6.490   4.625
    1   AR   Ar  141   4.243   5.513   4.181
    1   AR   Ar  142   5.144   0.320   7.340
    1   AR   Ar  143   5.944   6.931   6.938
    1   AR   Ar  144   6.601   1.503   4.505
    1   AR   Ar  145   4.282   4.939  -0.544
    1   AR   Ar  146   3.373   2.519   2.951
    1   AR   Ar  147   5.327   3.830  -0.960
    1   AR   Ar  148   3.182   6.366  -1.498
    1   AR   Ar  149   2.049   1.012   0.132
    1   AR   Ar  150   2.134   2.613   2.525
    1   AR   Ar  151   2.678   3.238   3.496
    1   AR   Ar  152   0.909   2.321  -2.262
    1   AR   Ar  153   5.135   0.483   3.719
    1   AR   Ar  154   4.565   2.125   4.385
    1   AR   Ar  155   6.555   3.753   6.021
    1   AR   Ar  156   3.000   4.868   3.214
    1   AR   Ar  157   2.064   5.551   6.666
    1   AR   Ar  158   0.281   1.727   5.499
    1   AR   Ar  159   4.081   0.329   6.658
    1   AR   Ar  160   1.367   1.663   5.100
    1   AR   Ar  161   4.920   4.438   3.199
    1   AR   Ar  162   3.977   6.104  -0.447
    1   AR   Ar  163   6.021   4.272   1.552
    1   AR   Ar  164   1.874   5.787   2.202
    1   AR   Ar  165   3.564   4.118   1.489
    1   AR   Ar  166   2.695   3.682   4.397
    1   AR   Ar  167   6.457   6.798   3.487
    1   AR   Ar  168   5.472   3.920  -2.102
    1   AR   Ar  169   3.848   3.436   3.451
    1   AR   Ar  170   1.571   3.313   6.342
    1   AR   Ar  171   5.579   5.046   4.384
    1   AR   Ar  172   3.758   3.534   4.854
    1   AR   Ar  173   2.644   2.102   5.856
    1   AR   Ar  174   3.633   6.557   4.568
    1   AR   Ar  175   2.950   0.824   6.099
    1   AR   Ar  176   3.645   2.565   4.162
    1   AR   Ar  177   0.716   4.749  -1.039
    1   AR   Ar  178   2.757   6.360   0.219
    1   AR   Ar  179   3.392   7.109   1.212
    1   AR   Ar  180   4.866   1.569  -6.840
    1   AR   Ar  181   6.861   5.312   1.610
    1   AR   Ar  182   0.712   6.232   2.257
    1   AR   Ar  183   4.878   5.482   1.862
    1   AR   Ar  184   4.561   6.387   0.612
    1   AR   Ar  185   3.062   4.769   4.669
    1   AR   Ar  186   3.136   5.913   2.871
    1   AR   Ar  187   3.736   6.594   3.567
    1   AR   Ar  188   2.494   7.016   1.992
    1   AR   Ar  189   5.276   3.184   6.401
    1   AR   Ar  190   2.390   6.471   3.482
    1   AR   Ar  191   3.705   6.130   7.207
    1   AR   Ar  192   4.472   4.631   6.011
    1   AR   Ar  193   2.658   6.245   1.262
    1   AR   Ar  194   5.415   5.138  -0.930
    1   AR   Ar  195   5.366   1.180   0.691
    1   AR   Ar  196   3.331   0.642  -0.342
    1   AR   Ar  197   4.839   2.119   1.233
    1   AR   Ar  198   5.663   0.163   1.578
    1   AR   Ar  199   1.800   0.424   3.937
    1   AR   Ar  200   4.977   3.280  -0.001
    1   AR   Ar  201   6.868   6.768   2.382
    1   AR   Ar  202   5.333   0.901   4.755
    1   AR   Ar  203   0.422   6.664   3.292
    1   AR   Ar  204   4.734   5.796   7.088
    1   AR   Ar  205   5.773   2.076   1.838
    1   AR   Ar  206   5.813   0.478   6.082
    1   AR   Ar  207   0.003   3.117   4.912
    1   AR   Ar  208   1.220   6.111   4.532
    1   AR   Ar  209   6.956   2.623  -2.174
    1   AR   Ar  210   1.437   0.141   0.011
    1   AR   Ar  211   0.063   2.546   1.079
    1   AR   Ar  212   6.104   3.789   0.049
    1   AR   Ar  213   3.834   1.884   2.160
    1   AR   Ar  214   4.822   4.334   2.006
    1   AR   Ar  215   6.612   2.663   2.004
    1   AR   Ar  216   1.473   1.994   0.731
    1   AR   Ar  217   4.627   1.606   3.478
    1   AR   Ar  218   4.826   3.276   4.691
    1   AR   Ar  219   5.208   3.218   3.282
    1   AR   Ar  220   4.755   3.526   1.120
    1   AR   Ar  221   6.994   6.029   3.965
    1   AR   Ar  222   4.829   0.364   5.531
    1   AR   Ar  223   6.801   1.526   6.347
    1   AR   Ar  224   4.674   2.343   5.369
    1   AR   Ar  225   6.415   3.081   3.232
    1   AR   Ar  226   1.485   3.167   3.117
    1   AR   Ar  227   0.471   3.274   2.521
    1   AR   Ar  228   6.247   0.953   1.724
    1   AR   Ar  229   6.830   4.440  -1.310
    1   AR   Ar  230   4.039   4.555   4.028
    1   AR   Ar  231   4.670   2.261   2.635
    1   AR   Ar  232   5.255   2.946   1.884
    1   AR   Ar  233   6.619   2.404   4.093
    1   AR   Ar  234   5.649   2.705   4.068
    1   AR   Ar  235   0.224   0.453   3.564
    1   AR   Ar  236   4.899   5.546   5.056
    1   AR   Ar  237   4.631   2.252   6.592
    1   AR   Ar  238   5.747   5.781   6.977
    1   AR   Ar  239   0.871   4.596  10.151
    1   AR   Ar  240   1.690   2.106   6.617
    1   AR   Ar  241   2.039   6.009  -0.739
    1   AR   Ar  242   5.688   6.051   1.522
    1   AR   Ar  243   5.001   6.179   2.648
    1   AR   Ar  244   0.050   5.418   0.450
    1   AR   Ar  245   4.215   0.607   3.396
    1   AR   Ar  246   5.483   6.354  -0.441
    1   AR   Ar  247   6.912   3.575   1.532
    1   AR   Ar  248   4.897   5.446   0.226
    1   AR   Ar  249   4.773   6.587   1.706
    1   AR   Ar  250   5.273   6.275   3.821
    1   AR   Ar  251   4.385   4.535   4.986
    1   AR   Ar  252   2.645   4.757   1.992
    1   AR   Ar  253   6.148   2.503   6.794
    1   AR   Ar  254   5.242   2.260   9.788
    1   AR   Ar  255   4.272   5.359   9.318
    1   AR   Ar  256   6.231   5.612   3.365
    7.12000  7.12000 12.00000
Argon-slab step 4730
  256
    1   AR   Ar    1   5.140   2.977  -2.807
    1   AR   Ar    2   5.553   6.764   0.550
    1   AR   Ar    3   4.150   3.345  -1.235
    1   AR   Ar    4   2.413   1.214   1.086
    1   AR   Ar    5   6.045   5.450  -0.076
    1   AR   Ar    6   1.500   1.727   2.171
    1   AR   Ar    7   5.963   4.132   3.395
    1   AR   Ar    8   6.222   2.886  -1.384
    1   AR   Ar    9   0.454   6.875   4.364
    1   AR   Ar   10   6.092   5.981   5.231
    1   AR   Ar   11   1.129   0.395   4.925
    1   AR   Ar   12   7.021   1.378   3.553
    1   AR   Ar   13   6.378   0.598   4.061
    1   AR   Ar   14   3.717   1.486   6.447
    1   AR   Ar   15   3.332   7.007   9.235
    1   AR   Ar   16   0.625   0.249   5.965
    1   AR   Ar   17   5.652   2.919   0.927
    1   AR   Ar   18   6.868   5.604  -0.949
    1   AR   Ar   19   5.163   4.458   0.219
    1   AR   Ar   20   6.509   3.887  -2.900
    1   AR   Ar   21   2.591   1.658   2.245
    1   AR   Ar   22   5.334   1.260   2.441
    1   AR   Ar   23   0.199   6.342   1.002
    1   AR   Ar   24   5.541   2.229   3.173
    1   AR   Ar   25   0.553   2.098   4.505
    1   AR   Ar   26   5.613   6.944   4.493
    1   AR   Ar   27   1.963   0.817   2.101
    1   AR   Ar   28   1.828   2.206   3.828
    1   AR   Ar   29   4.668   1.394   7.326
    1   AR   Ar   30   0.684   1.149   2.838
    1   AR   Ar   31   3.398   0.883   7.313
    1   AR   Ar   32   1.127   2.686   5.613
    1   AR   Ar   33   0.670   4.328  -0.048
    1   AR   Ar   34   1.088   5.119   2.333
    1   AR   Ar   35   6.108   5.288   2.316
    1   AR   Ar   36   6.035   2.348  -2.372
    1   AR   Ar   37   3.954   2.955   2.031
    1   AR   Ar   38   6.628   3.972   4.204
    1   AR   Ar   39   0.212   3.329   3.786
    1   AR   Ar   40   1.625   4.465   1.734
    1   AR   Ar   41   0.517   2.190   2.702
    1   AR   Ar   42   5.268   6.581   6.038
    1   AR   Ar   43   0.183   2.799   6.233
    1   AR   Ar   44   0.972   4.315   3.266
    1   AR   Ar   45   0.610   3.696   5.638
    1   AR   Ar   46   0.413   4.624   6.070
    1   AR   Ar   47   4.188   4.359   7.607
    1   AR   Ar   48   6.340   3.538   7.669
    1   AR   Ar   49   6.748   0.153  -0.609
    1   AR   Ar   50   3.833   5.355   0.476
    1   AR   Ar   51   5.986   3.543   2.346
    1   AR   Ar   52   5.155   2.958  -1.623
    1   AR   Ar   53   4.930   0.190   2.655
    1   AR   Ar   54   0.475   0.317   2.203
    1   AR   Ar   55   6.946   4.010   2.897
    1   AR   Ar   56   6.486   1.660   2.733
    1   AR   Ar   57   3.842   4.219   2.641
    1   AR   Ar   58   0.919   3.814   4.339
    1   AR   Ar   59   2.648   5.877   5.724
    1   AR   Ar   60   0.431   5.335   3.194
    1   AR   Ar   61   0.247   3.683   6.778
    1   AR   Ar   62   6.865   4.379   5.176
    1   AR   Ar   63   2.724   2.432   7.080
    1   AR   Ar   64   7.104   5.332   4.770
    1   AR   Ar   65   3.715   0.652   2.223
    1   AR   Ar   66   1.165   0.991   1.264
    1   AR   Ar   67   4.561   0.279  -0.596
    1   AR   Ar   68   0.384   0.808  -0.600
    1   AR   Ar   69   2.835   1.677   0.008
    1   AR   Ar   70   0.670   1.929   1.702
    1   AR   Ar   71   2.733   0.827   2.793
    1   AR   Ar   72   4.498   1.241   1.606
    1   AR   Ar   73   3.156   0.369   3.672
    1   AR   Ar   74   0.641   1.053   4.365
    1   AR   Ar   75   3.559   0.405   5.053
    1   AR   Ar   76   2.233   0.065   0.911
    1   AR   Ar   77   1.879   6.916   5.322
    1   AR   Ar   78   6.560   5.035   6.258
    1   AR   Ar   79   3.226   6.676   5.539
    1   AR   Ar   80   3.889   5.673   5.194
    1   AR   Ar   81   1.561   6.430   1.414
    1   AR   Ar   82   6.297   4.663   0.547
    1   AR   Ar   83   0.849   3.253   0.447
    1   AR   Ar   84   1.354   4.204   0.798
    1   AR   Ar   85   1.765   3.829  -0.279
    1   AR   Ar   86   1.919   5.382   0.867
    1   AR   Ar   87   2.792   3.741   2.304
    1   AR   Ar   88   3.481   5.270   1.436
    1   AR   Ar   89   6.291   1.931   0.893
    1   AR   Ar   90   3.333   1.589   5.358
    1   AR   Ar   91   1.939   1.444   3.015
    1   AR   Ar   92   1.755   3.219   1.618
    1   AR   Ar   93   1.831   0.987   6.136
    1   AR   Ar   94   1.438   6.377   9.406
    1   AR   Ar   95   4.415   1.270   5.135
    1   AR   Ar   96   2.654   6.954   4.495
    1   AR   Ar   97   3.557   2.141  -0.563
    1   AR   Ar   98   1.820   4.355   4.104
    1   AR   Ar   99   5.630   0.588  -0.719
    1   AR   Ar  100   0.372   3.383  -2.805
    1   AR   Ar  101   3.939   6.254   2.412
    1   AR   Ar  102   3.592   1.403   3.091
    1   AR   Ar  103   2.555   4.090   0.982
    1   AR   Ar  104   3.825   5.459  -1.493
    1   AR   Ar  105   2.844   2.048   3.777
    1   AR   Ar  106   3.449   2.675   5.438
    1   AR   Ar  107   0.972   5.122   5.389
    1   AR   Ar  108   2.373   1.056   4.808
    1   AR   Ar  109   1.596   3.962   5.183
    1   AR   Ar  110   2.388   2.266   4.772
    1   AR   Ar  111   4.383   6.219   8.069
    1   AR   Ar  112   0.144   5.940   5.873
    1   AR   Ar  113   2.340   5.085  -1.131
    1   AR   Ar  114   2.356   0.122  -0.411
    1   AR   Ar  115   1.816   4.947  -0.117
    1   AR   Ar  116   4.826   0.334   0.826
    1   AR   Ar  117   0.593   4.858   4.154
    1   AR   Ar  118   1.466   6.036   3.392
    1   AR   Ar  119   2.164   4.007   3.118
    1   AR   Ar  120   1.732   6.732   2.705
    1   AR   Ar  121   5.555   4.758   5.574
    1   AR   Ar  122   3.235   5.643   4.075
    1   AR   Ar  123   2.457   3.353   5.520
    1   AR   Ar  124   0.863   5.453   1.371
    1   AR   Ar  125   6.007   3.549   5.065
    1   AR   Ar  126   6.942   0.707   7.019
    1   AR   Ar  127   4.281   3.083   6.107
    1   AR   Ar  128   2.764   4.376   7.191
    1   AR   Ar  129   2.197   5.429   4.815
    1   AR   Ar  130   4.136   1.632  -4.896
    1   AR   Ar  131   4.345   4.511  -1.955
    1   AR   Ar  132   0.367   1.611   0.690
    1   AR   Ar  133   4.403   0.397   4.445
    1   AR   Ar  134   3.563   1.263   4.329
    1   AR   Ar  135   5.760   1.450   3.816
    1   AR   Ar  136   5.988   0.298   2.709
    1   AR   Ar  137   3.403   4.356   5.946
    1   AR   Ar  138   5.825   1.421   5.614
    1   AR   Ar  139   6.233   2.520   5.774
    1   AR   Ar  140   4.637   6.492   4.611
    1   AR   Ar  141   4.222   5.517   4.196
    1   AR   Ar  142   5.136   0.313   7.354
    1   AR   Ar  143   5.908   6.925   6.937
    1   AR   Ar  144   6.559   1.485   4.497
    1   AR   Ar  145   4.287   4.952  -0.541
    1   AR   Ar  146   3.340   2.555   2.913
    1   AR   Ar  147   5.305   3.856  -0.956
    1   AR   Ar  148   3.158   6.367  -1.497
    1   AR   Ar  149   2.009   1.055   0.131
    1   AR   Ar  150   2.164   2.593   2.518
    1   AR   Ar  151   2.666   3.231   3.476
    1   AR   Ar  152   0.907   2.297  -2.263
    1   AR   Ar  153   5.110   0.470   3.747
    1   AR   Ar  154   4.563   2.124   4.408
    1   AR   Ar  155   6.538   3.767   5.997
    1   AR   Ar  156   2.962   4.878   3.236
    1   AR   Ar  157   2.043   5.529   6.686
    1   AR   Ar  158   0.270   1.731   5.481
    1   AR   Ar  159   4.073   0.338   6.680
    1   AR   Ar  160   1.361   1.639   5.080
    1   AR   Ar  161   4.909   4.434   3.190
    1   AR   Ar  162   3.963   6.123  -0.411
    1   AR   Ar  163   6.043   4.225   1.532
    1   AR   Ar  164   1.870   5.775   2.191
    1   AR   Ar  165   3.582   4.132   1.485
    1   AR   Ar  166   2.681   3.691   4.386
    1   AR   Ar  167   6.454   6.813   3.481
    1   AR   Ar  168   5.444   3.919  -2.091
    1   AR   Ar  169   3.864   3.454   3.432
    1   AR   Ar  170   1.606   3.321   6.344
    1   AR   Ar  171   5.562   5.040   4.382
    1   AR   Ar  172   3.779   3.545   4.834
    1   AR   Ar  173   2.616   2.111   5.875
    1   AR   Ar  174   3.628   6.553   4.559
    1   AR   Ar  175   2.990   0.795   6.092
    1   AR   Ar  176   3.636   2.599   4.158
    1   AR   Ar  177   0.745   4.768  -1.019
    1   AR   Ar  178   2.775   6.338   0.167
    1   AR   Ar  179   3.411   7.118   1.214
    1   AR   Ar  180   4.913   1.536  -6.824
    1   AR   Ar  181   6.839   5.344   1.616
    1   AR   Ar  182   0.707   6.271   2.234
    1   AR   Ar  183   4.906   5.499   1.847
    1   AR   Ar  184   4.589   6.381   0.604
    1   AR   Ar  185   3.113   4.759   4.659
    1   AR   Ar  186   3.145   5.933   2.865
    1   AR   Ar  187   3.778   6.603   3.600
    1   AR   Ar  188   2.523   7.007   2.033
    1   AR   Ar  189   5.297   3.172   6.410
    1   AR   Ar  190   2.410   6.452   3.488
    1   AR   Ar  191   3.710   6.117   7.206
    1   AR   Ar  192   4.454   4.619   5.989
    1   AR   Ar  193   2.667   6.243   1.274
    1   AR   Ar  194   5.457   5.130  -0.941
    1   AR   Ar  195   5.367   1.201   0.680
    1   AR   Ar  196   3.333   0.635  -0.336
    1   AR   Ar  197   4.830   2.087   1.198
    1   AR   Ar  198   5.655   0.155   1.566
    1   AR   Ar  199   1.783   0.394   3.923
    1   AR   Ar  200   4.995   3.259  -0.020
    1   AR   Ar  201   6.873   6.763   2.343
    1   AR   Ar  202   5.342   0.916   4.770
    1   AR   Ar  203   0.418   6.666   3.272
    1   AR   Ar  204   4.737   5.774   7.106
    1   AR   Ar  205   5.786   2.079   1.840
    1   AR   Ar  206   5.806   0.463   6.113
    1   AR   Ar  207   7.117   3.119   4.868
    1   AR   Ar  208   1.228   6.105   4.505
    1   AR   Ar  209   6.961   2.639  -2.152
    1   AR   Ar  210   1.438   0.130   0.013
    1   AR   Ar  211   0.063   2.552   1.075
    1   AR   Ar  212   6.095   3.777   0.034
    1   AR   Ar  213   3.821   1.880   2.169
    1   AR   Ar  214   4.824   4.355   1.994
    1   AR   Ar  215   6.629   2.671   2.012
    1   AR   Ar  216   1.491   1.970   0.709
    1   AR   Ar  217   4.652   1.611   3.506
    1   AR   Ar  218   4.840   3.258   4.712
    1   AR   Ar  219   5.195   3.188   3.268
    1   AR   Ar  220   4.768   3.537   1.116
    1   AR   Ar  221   6.978   6.010   3.981
    1   AR   Ar  222   4.816   0.395   5.536
    1   AR   Ar  223   6.777   1.531   6.369
    1   AR   Ar  224   4.690   2.325   5.361
    1   AR   Ar  225   6.398   3.025   3.233
    1   AR   Ar  226   1.494   3.175   3.135
    1   AR   Ar  227   0.457   3.290   2.533
    1   AR   Ar  228   6.241   0.941   1.715
    1   AR   Ar  229   6.835   4.467  -1.304
    1   AR   Ar  230   4.044   4.548   4.045
    1   AR   Ar  231   4.678   2.257   2.648
    1   AR   Ar  232   5.239   2.925   1.905
    1   AR   Ar  233   6.623   2.406   4.108
    1   AR   Ar  234   5.618   2.727   4.103
    1   AR   Ar  235   0.223   0.460   3.531
    1   AR   Ar  236   4.924   5.509   5.042
    1   AR   Ar  237   4.585   2.223   6.604
    1   AR   Ar  238   5.768   5.768   6.987
    1   AR   Ar  239   0.891   4.618  10.137
    1   AR   Ar  240   1.699   2.125   6.615
    1   AR   Ar  241   2.019   6.024  -0.719
    1   AR   Ar  242   5.695   6.026   1.539
    1   AR   Ar  243   4.979   6.202   2.636
    1   AR   Ar  244   0.063   5.454   0.493
    1   AR   Ar  245   4.204   0.600   3.414
    1   AR   Ar  246   5.470   6.372  -0.448
    1   AR   Ar  247   6.933   3.552   1.552
    1   AR   Ar  248   4.896   5.446   0.224
    1   AR   Ar  249   4.750   6.599   1.694
    1   AR   Ar  250   5.278   6.305   3.771
    1   AR   Ar  251   4.378   4.502   4.979
    1   AR   Ar  252   2.627   4.749   1.971
    1   AR   Ar  253   6.150   2.467   6.824
    1   AR   Ar  254   5.280   2.293   9.791
    1   AR   Ar  255   4.249   5.383   9.324
    1   AR   Ar  256   6.194   5.608   3.367
    7.12000  7.12000 12.00000
Argon-slab step 4735
  256
    1   AR   Ar    1   5.163   2.967  -2.818
    1   AR   Ar    2   5.559   6.746   0.561
    1   AR   Ar    3   4.147   3.365  -1.238
    1   AR   Ar    4   2.393   1.186   1.063
    1   AR   Ar    5   6.073   5.457  -0.094
    1   AR   Ar    6   1.478   1.745   2.188
    1   AR   Ar    7   5.928   4.161   3.388
    1   AR   Ar    8   6.234   2.887  -1.431
    1   AR   Ar    9   0.458   6.908   4.356
    1   AR   Ar   10   6.088   5.951   5.227
    1   AR   Ar   11   1.167   0.374   4.928
    1   AR   Ar   12   7.027   1.410   3.558
    1   AR   Ar   13   6.389   0.556   4.081
    1   AR   Ar   14   3.701   1.482   6.439
    1   AR   Ar   15   3.329   7.044   9.269
    1   AR   Ar   16   0.635   0.242   5.974
    1   AR   Ar   17   5.625   2.922   0.937
    1   AR   Ar   18   6.839   5.587  -0.896
    1   AR   Ar   19   5.152   4.445   0.244
    1   AR   Ar   20   6.483   3.874  -2.910
    1   AR   Ar   21   2.586   1.677   2.251
    1   AR   Ar   22   5.340   1.276   2.449
    1   AR   Ar   23   0.180   6.328   1.006
    1   AR   Ar   24   5.521   2.257   3.189
    1   AR   Ar   25   0.543   2.076   4.528
    1   AR   Ar   26   5.624   6.933   4.503
    1   AR   Ar   27   1.955   0.790   2.055
    1   AR   Ar   28   1.835   2.222   3.822
    1   AR   Ar   29   4.668   1.395   7.325
    1   AR   Ar   30   0.680   1.132   2.839
    1   AR   Ar   31   3.387   0.878   7.287
    1   AR   Ar   32   1.134   2.685   5.629
    1   AR   Ar   33   0.644   4.332  -0.041
    1   AR   Ar   34   1.116   5.122   2.332
    1   AR   Ar   35   6.109   5.311   2.301
    1   AR   Ar   36   6.031   2.313  -2.380
    1   AR   Ar   37   3.955   2.959   2.050
    1   AR   Ar   38   6.584   3.992   4.232
    1   AR   Ar   39   0.213   3.331   3.732
    1   AR   Ar   40   1.667   4.453   1.753
    1   AR   Ar   41   0.521   2.190   2.707
    1   AR   Ar   42   5.246   6.558   6.020
    1   AR   Ar   43   0.144   2.807   6.241
    1   AR   Ar   44   0.980   4.298   3.255
    1   AR   Ar   45   0.602   3.689   5.633
    1   AR   Ar   46   0.411   4.629   6.113
    1   AR   Ar   47   4.187   4.337   7.579
    1   AR   Ar   48   6.359   3.538   7.648
    1   AR   Ar   49   6.747   0.163  -0.615
    1   AR   Ar   50   3.836   5.335   0.442
    1   AR   Ar   51   5.973   3.551   2.341
    1   AR   Ar   52   5.137   2.944  -1.604
    1   AR   Ar   53   4.928   0.201   2.651
    1   AR   Ar   54   0.473   0.340   2.224
    1   AR   Ar   55   6.942   4.013   2.891
    1   AR   Ar   56   6.488   1.692   2.735
    1   AR   Ar   57   3.843   4.217   2.633
    1   AR   Ar   58   0.947   3.834   4.340
    1   AR   Ar   59   2.642   5.863   5.718
    1   AR   Ar   60   0.429   5.342   3.202
    1   AR   Ar   61   0.270   3.681   6.777
    1   AR   Ar   62   6.890   4.370   5.165
    1   AR   Ar   63   2.711   2.442   7.082
    1   AR   Ar   64   7.109   5.332   4.752
    1   AR   Ar   65   3.713   0.649   2.201
    1   AR   Ar   66   1.192   1.002   1.254
    1   AR   Ar   67   4.554   0.248  -0.581
    1   AR   Ar   68   0.408   0.822  -0.622
    1   AR   Ar   69   2.840   1.678   0.003
    1   AR   Ar   70   0.643   1.967   1.680
    1   AR   Ar   71   2.741   0.786   2.760
    1   AR   Ar   72   4.529   1.245   1.586
    1   AR   Ar   73   3.163   0.329   3.663
    1   AR   Ar   74   0.652   1.060   4.379
    1   AR   Ar   75   3.548   0.428   5.074
    1   AR   Ar   76   2.259   0.056   0.939
    1   AR   Ar   77   1.876   6.874   5.351
    1   AR   Ar   78   6.537   5.006   6.274
    1   AR   Ar   79   3.226   6.662   5.548
    1   AR   Ar   80   3.838   5.686   5.212
    1   AR   Ar   81   1.534   6.422   1.418
    1   AR   Ar   82   6.298   4.659   0.594
    1   AR   Ar   83   0.863   3.268   0.490
    1   AR   Ar   84   1.329   4.201   0.794
    1   AR   Ar   85   1.728   3.836  -0.293
    1   AR   Ar   86   1.894   5.396   0.850
    1   AR   Ar   87   2.823   3.747   2.295
    1   AR   Ar   88   3.526   5.232   1.411
    1   AR   Ar   89   6.292   1.943   0.906
    1   AR   Ar   90   3.331   1.551   5.344
    1   AR   Ar   91   1.956   1.451   3.038
    1   AR   Ar   92   1.759   3.160   1.575
    1   AR   Ar   93   1.833   0.977   6.140
    1   AR   Ar   94   1.454   6.364   9.395
    1   AR   Ar   95   4.402   1.326   5.129
    1   AR   Ar   96   2.663   6.946   4.479
    1   AR   Ar   97   3.493   2.133  -0.557
    1   AR   Ar   98   1.841   4.348   4.114
    1   AR   Ar   99   5.637   0.592  -0.726
    1   AR   Ar  100   0.372   3.362  -2.786
    1   AR   Ar  101   3.951   6.250   2.420
    1   AR   Ar  102   3.589   1.429   3.120
    1   AR   Ar  103   2.555   4.092   1.012
    1   AR   Ar  104   3.834   5.450  -1.503
    1   AR   Ar  105   2.836   2.056   3.760
    1   AR   Ar  106   3.457   2.670   5.424
    1   AR   Ar  107   0.976   5.114   5.351
    1   AR   Ar  108   2.386   1.064   4.823
    1   AR   Ar  109   1.588   3.965   5.204
    1   AR   Ar  110   2.360   2.256   4.776
    1   AR   Ar  111   4.350   6.197   8.070
    1   AR   Ar  112   0.164   5.943   5.898
    1   AR   Ar  113   2.305   5.095  -1.107
    1   AR   Ar  114   2.356   0.091  -0.379
    1   AR   Ar  115   1.813   4.951  -0.125
    1   AR   Ar  116   4.821   0.289   0.825
    1   AR   Ar  117   0.576   4.868   4.162
    1   AR   Ar  118   1.450   6.050   3.372
    1   AR   Ar  119   2.158   4.034   3.092
    1   AR   Ar  120   1.731   6.728   2.703
    1   AR   Ar  121   5.544   4.736   5.564
    1   AR   Ar  122   3.204   5.643   4.057
    1   AR   Ar  123   2.508   3.370   5.524
    1   AR   Ar  124   0.835   5.422   1.379
    1   AR   Ar  125   5.990   3.521   5.082
    1   AR   Ar  126   6.959   0.714   7.060
    1   AR   Ar  127   4.297   3.100   6.100
    1   AR   Ar  128   2.746   4.380   7.181
    1   AR   Ar  129   2.158   5.377   4.813
    1   AR   Ar  130   4.142   1.662  -4.929
    1   AR   Ar  131   4.344   4.490  -1.943
    1   AR   Ar  132   0.357   1.609   0.701
    1   AR   Ar  133   4.356   0.401   4.444
    1   AR   Ar  134   3.558   1.244   4.286
    1   AR   Ar  135   5.799   1.476   3.823
    1   AR   Ar  136   5.988   0.273   2.734
    1   AR   Ar  137   3.378   4.363   5.979
    1   AR   Ar  138   5.799   1.425   5.599
    1   AR   Ar  139   6.198   2.499   5.749
    1   AR   Ar  140   4.671   6.492   4.599
    1   AR   Ar  141   4.211   5.529   4.210
    1   AR   Ar  142   5.122   0.310   7.368
    1   AR   Ar  143   5.877   6.913   6.935
    1   AR   Ar  144   6.521   1.466   4.503
    1   AR   Ar  145   4.293   4.966  -0.538
    1   AR   Ar  146   3.308   2.591   2.875
    1   AR   Ar  147   5.283   3.883  -0.951
    1   AR   Ar  148   3.133   6.368  -1.493
    1   AR   Ar  149   1.965   1.096   0.130
    1   AR   Ar  150   2.195   2.575   2.513
    1   AR   Ar  151   2.658   3.211   3.453
    1   AR   Ar  152   0.905   2.273  -2.265
    1   AR   Ar  153   5.106   0.457   3.773
    1   AR   Ar  154   4.579   2.106   4.414
    1   AR   Ar  155   6.523   3.779   5.974
    1   AR   Ar  156   2.927   4.892   3.253
    1   AR   Ar  157   2.022   5.506   6.705
    1   AR   Ar  158   0.274   1.724   5.471
    1   AR   Ar  159   4.067   0.346   6.700
    1   AR   Ar  160   1.357   1.614   5.060
    1   AR   Ar  161   4.898   4.430   3.181
    1   AR   Ar  162   3.960   6.130  -0.389
    1   AR   Ar  163   6.063   4.179   1.511
    1   AR   Ar  164   1.870   5.764   2.181
    1   AR   Ar  165   3.599   4.147   1.482
    1   AR   Ar  166   2.667   3.703   4.383
    1   AR   Ar  167   6.450   6.827   3.474
    1   AR   Ar  168   5.417   3.917  -2.080
    1   AR   Ar  169   3.880   3.470   3.415
    1   AR   Ar  170   1.641   3.330   6.345
    1   AR   Ar  171   5.549   5.032   4.376
    1   AR   Ar  172   3.798   3.556   4.813
    1   AR   Ar  173   2.581   2.122   5.898
    1   AR   Ar  174   3.619   6.548   4.561
    1   AR   Ar  175   3.029   0.764   6.083
    1   AR   Ar  176   3.628   2.636   4.155
    1   AR   Ar  177   0.775   4.789  -0.999
    1   AR   Ar  178   2.788   6.323   0.124
    1   AR   Ar  179   3.429   0.006   1.216
    1   AR   Ar  180   4.960   1.504  -6.807
    1   AR   Ar  181   6.823   5.376   1.615
    1   AR   Ar  182   0.704   6.275   2.215
    1   AR   Ar  183   4.926   5.509   1.832
    1   AR   Ar  184   4.612   6.374   0.597
    1   AR   Ar  185   3.165   4.748   4.650
    1   AR   Ar  186   3.141   5.959   2.867
    1   AR   Ar  187   3.824   6.611   3.618
    1   AR   Ar  188   2.554   6.998   2.073
    1   AR   Ar  189   5.321   3.159   6.419
    1   AR   Ar  190   2.437   6.435   3.499
    1   AR   Ar  191   3.712   6.105   7.203
    1   AR   Ar  192   4.438   4.609   5.973
    1   AR   Ar  193   2.676   6.238   1.287
    1   AR   Ar  194   5.497   5.120  -0.951
    1   AR   Ar  195   5.372   1.226   0.671
    1   AR   Ar  196   3.334   0.629  -0.330
    1   AR   Ar  197   4.825   2.066   1.161
    1   AR   Ar  198   5.639   0.137   1.554
    1   AR   Ar  199   1.769   0.367   3.907
    1   AR   Ar  200   5.014   3.240  -0.038
    1   AR   Ar  201   6.869   6.753   2.308
    1   AR   Ar  202   5.355   0.932   4.779
    1   AR   Ar  203   0.419   6.652   3.246
    1   AR   Ar  204   4.737   5.752   7.124
    1   AR   Ar  205   5.800   2.072   1.842
    1   AR   Ar  206   5.798   0.447   6.142
    1   AR   Ar  207   7.111   3.122   4.825
    1   AR   Ar  208   1.237   6.099   4.478
    1   AR   Ar  209   6.976   2.658  -2.127
    1   AR   Ar  210   1.433   0.118   0.020
    1   AR   Ar  211   0.062   2.563   1.069
    1   AR   Ar  212   6.084   3.762   0.018
    1   AR   Ar  213   3.804   1.873   2.175
    1   AR   Ar  214   4.825   4.375   1.981
    1   AR   Ar  215   6.647   2.677   2.025
    1   AR   Ar  216   1.509   1.945   0.688
    1   AR   Ar  217   4.659   1.611   3.523
    1   AR   Ar  218   4.854   3.240   4.733
    1   AR   Ar  219   5.179   3.166   3.251
    1   AR   Ar  220   4.780   3.550   1.111
    1   AR   Ar  221   6.964   5.992   3.996
    1   AR   Ar  222   4.803   0.421   5.544
    1   AR   Ar  223   6.751   1.540   6.390
    1   AR   Ar  224   4.707   2.310   5.365
    1   AR   Ar  225   6.382   2.977   3.235
    1   AR   Ar  226   1.479   3.168   3.162
    1   AR   Ar  227   0.446   3.303   2.544
    1   AR   Ar  228   6.241   0.939   1.708
    1   AR   Ar  229   6.833   4.453  -1.287
    1   AR   Ar  230   4.043   4.531   4.050
    1   AR   Ar  231   4.664   2.239   2.627
    1   AR   Ar  232   5.216   2.908   1.929
    1   AR   Ar  233   6.631   2.414   4.121
    1   AR   Ar  234   5.586   2.748   4.144
    1   AR   Ar  235   0.222   0.466   3.501
    1   AR   Ar  236   4.939   5.487   5.024
    1   AR   Ar  237   4.578   2.215   6.586
    1   AR   Ar  238   5.793   5.756   6.995
    1   AR   Ar  239   0.912   4.640  10.123
    1   AR   Ar  240   1.709   2.145   6.611
    1   AR   Ar  241   1.999   6.042  -0.697
    1   AR   Ar  242   5.710   6.008   1.552
    1   AR   Ar  243   4.962   6.226   2.631
    1   AR   Ar  244   0.074   5.484   0.534
    1   AR   Ar  245   4.185   0.595   3.420
    1   AR   Ar  246   5.456   6.389  -0.456
    1   AR   Ar  247   6.955   3.532   1.571
    1   AR   Ar  248   4.896   5.451   0.221
    1   AR   Ar  249   4.739   6.583   1.679
    1   AR   Ar  250   5.283   6.330   3.715
    1   AR   Ar  251   4.375   4.468   4.975
    1   AR   Ar  252   2.611   4.744   1.950
    1   AR   Ar  253   6.152   2.431   6.855
    1   AR   Ar  254   5.319   2.332   9.795
    1   AR   Ar  255   4.226   5.407   9.330
    1   AR   Ar  256   6.156   5.604   3.369
    7.12000  7.12000 12.00000
Argon-slab step 4740
  256
    1   AR   Ar    1   5.162   2.959  -2.811
    1   AR   Ar    2   5.575   6.726   0.572
    1   AR   Ar    3   4.165   3.363  -1.239
    1   AR   Ar    4   2.374   1.158   1.045
    1   AR   Ar    5   6.099   5.467  -0.110
    1   AR   Ar    6   1.458   1.764   2.204
    1   AR   Ar    7   5.894   4.189   3.380
    1   AR   Ar    8   6.249   2.895  -1.469
    1   AR   Ar    9   0.461   6.940   4.347
    1   AR   Ar   10   6.083   5.920   5.222
    1   AR   Ar   11   1.206   0.353   4.933
    1   AR   Ar   12   7.033   1.451   3.569
    1   AR   Ar   13   6.399   0.510   4.100
    1   AR   Ar   14   3.689   1.482   6.430
    1   AR   Ar   15   3.326   7.080   9.304
    1   AR   Ar   16   0.646   0.235   5.981
    1   AR   Ar   17   5.612   2.925   0.939
    1   AR   Ar   18   6.812   5.571  -0.850
    1   AR   Ar   19   5.142   4.428   0.269
    1   AR   Ar   20   6.457   3.861  -2.918
    1   AR   Ar   21   2.588   1.695   2.250
    1   AR   Ar   22   5.345   1.291   2.458
    1   AR   Ar   23   0.185   6.323   1.020
    1   AR   Ar   24   5.511   2.273   3.201
    1   AR   Ar   25   0.532   2.061   4.545
    1   AR   Ar   26   5.639   6.926   4.516
    1   AR   Ar   27   1.946   0.754   2.044
    1   AR   Ar   28   1.835   2.241   3.815
    1   AR   Ar   29   4.668   1.394   7.322
    1   AR   Ar   30   0.680   1.122   2.840
    1   AR   Ar   31   3.373   0.875   7.262
    1   AR   Ar   32   1.140   2.682   5.643
    1   AR   Ar   33   0.619   4.335  -0.033
    1   AR   Ar   34   1.137   5.121   2.340
    1   AR   Ar   35   6.101   5.331   2.293
    1   AR   Ar   36   6.022   2.277  -2.390
    1   AR   Ar   37   3.959   2.965   2.069
    1   AR   Ar   38   6.541   4.010   4.258
    1   AR   Ar   39   0.214   3.331   3.676
    1   AR   Ar   40   1.705   4.437   1.771
    1   AR   Ar   41   0.522   2.186   2.717
    1   AR   Ar   42   5.225   6.536   6.002
    1   AR   Ar   43   0.110   2.800   6.243
    1   AR   Ar   44   0.987   4.279   3.244
    1   AR   Ar   45   0.592   3.679   5.627
    1   AR   Ar   46   0.408   4.634   6.158
    1   AR   Ar   47   4.185   4.342   7.589
    1   AR   Ar   48   6.378   3.537   7.625
    1   AR   Ar   49   6.741   0.168  -0.620
    1   AR   Ar   50   3.841   5.317   0.403
    1   AR   Ar   51   5.961   3.558   2.341
    1   AR   Ar   52   5.119   2.931  -1.586
    1   AR   Ar   53   4.950   0.220   2.646
    1   AR   Ar   54   0.476   0.362   2.242
    1   AR   Ar   55   6.932   4.022   2.889
    1   AR   Ar   56   6.517   1.722   2.719
    1   AR   Ar   57   3.843   4.216   2.624
    1   AR   Ar   58   0.971   3.853   4.341
    1   AR   Ar   59   2.635   5.848   5.711
    1   AR   Ar   60   0.426   5.350   3.208
    1   AR   Ar   61   0.292   3.683   6.776
    1   AR   Ar   62   6.916   4.361   5.157
    1   AR   Ar   63   2.698   2.451   7.082
    1   AR   Ar   64   7.102   5.341   4.753
    1   AR   Ar   65   3.711   0.647   2.180
    1   AR   Ar   66   1.219   1.015   1.244
    1   AR   Ar   67   4.547   0.215  -0.564
    1   AR   Ar   68   0.437   0.840  -0.643
    1   AR   Ar   69   2.825   1.676   0.005
    1   AR   Ar   70   0.611   2.004   1.655
    1   AR   Ar   71   2.737   0.773   2.760
    1   AR   Ar   72   4.557   1.235   1.573
    1   AR   Ar   73   3.168   0.291   3.655
    1   AR   Ar   74   0.658   1.066   4.388
    1   AR   Ar   75   3.534   0.456   5.097
    1   AR   Ar   76   2.286   0.049   0.967
    1   AR   Ar   77   1.878   6.829   5.381
    1   AR   Ar   78   6.514   4.984   6.283
    1   AR   Ar   79   3.230   6.654   5.558
    1   AR   Ar   80   3.815   5.708   5.217
    1   AR   Ar   81   1.507   6.416   1.421
    1   AR   Ar   82   6.299   4.658   0.641
    1   AR   Ar   83   0.876   3.282   0.534
    1   AR   Ar   84   1.334   4.183   0.797
    1   AR   Ar   85   1.690   3.844  -0.306
    1   AR   Ar   86   1.868   5.411   0.836
    1   AR   Ar   87   2.855   3.749   2.285
    1   AR   Ar   88   3.546   5.207   1.397
    1   AR   Ar   89   6.295   1.959   0.920
    1   AR   Ar   90   3.329   1.511   5.328
    1   AR   Ar   91   1.972   1.456   3.070
    1   AR   Ar   92   1.764   3.102   1.532
    1   AR   Ar   93   1.835   0.969   6.141
    1   AR   Ar   94   1.469   6.352   9.385
    1   AR   Ar   95   4.385   1.379   5.123
    1   AR   Ar   96   2.655   6.929   4.462
    1   AR   Ar   97   3.440   2.133  -0.560
    1   AR   Ar   98   1.869   4.320   4.106
    1   AR   Ar   99   5.645   0.594  -0.732
    1   AR   Ar  100   0.371   3.341  -2.767
    1   AR   Ar  101   3.972   6.250   2.420
    1   AR   Ar  102   3.584   1.456   3.151
    1   AR   Ar  103   2.554   4.096   1.045
    1   AR   Ar  104   3.844   5.440  -1.511
    1   AR   Ar  105   2.832   2.060   3.740
    1   AR   Ar  106   3.466   2.665   5.409
    1   AR   Ar  107   0.980   5.107   5.310
    1   AR   Ar  108   2.400   1.071   4.839
    1   AR   Ar  109   1.581   3.969   5.225
    1   AR   Ar  110   2.324   2.227   4.793
    1   AR   Ar  111   4.325   6.178   8.076
    1   AR   Ar  112   0.184   5.943   5.921
    1   AR   Ar  113   2.271   5.104  -1.083
    1   AR   Ar  114   2.363   0.060  -0.349
    1   AR   Ar  115   1.810   4.960  -0.126
    1   AR   Ar  116   4.811   0.248   0.827
    1   AR   Ar  117   0.571   4.868   4.158
    1   AR   Ar  118   1.443   6.049   3.366
    1   AR   Ar  119   2.148   4.067   3.065
    1   AR   Ar  120   1.730   6.733   2.695
    1   AR   Ar  121   5.535   4.714   5.553
    1   AR   Ar  122   3.167   5.645   4.037
    1   AR   Ar  123   2.560   3.385   5.527
    1   AR   Ar  124   0.807   5.393   1.383
    1   AR   Ar  125   5.973   3.491   5.096
    1   AR   Ar  126   6.977   0.719   7.100
    1   AR   Ar  127   4.310   3.120   6.089
    1   AR   Ar  128   2.727   4.385   7.170
    1   AR   Ar  129   2.120   5.325   4.809
    1   AR   Ar  130   4.149   1.693  -4.963
    1   AR   Ar  131   4.335   4.497  -1.942
    1   AR   Ar  132   0.372   1.598   0.672
    1   AR   Ar  133   4.307   0.405   4.446
    1   AR   Ar  134   3.555   1.226   4.241
    1   AR   Ar  135   5.817   1.493   3.833
    1   AR   Ar  136   5.987   0.253   2.755
    1   AR   Ar  137   3.352   4.370   6.012
    1   AR   Ar  138   5.775   1.431   5.586
    1   AR   Ar  139   6.163   2.479   5.724
    1   AR   Ar  140   4.703   6.490   4.589
    1   AR   Ar  141   4.206   5.548   4.224
    1   AR   Ar  142   5.101   0.312   7.385
    1   AR   Ar  143   5.852   6.894   6.933
    1   AR   Ar  144   6.552   1.438   4.493
    1   AR   Ar  145   4.300   4.980  -0.536
    1   AR   Ar  146   3.277   2.624   2.837
    1   AR   Ar  147   5.280   3.879  -0.933
    1   AR   Ar  148   3.109   6.367  -1.489
    1   AR   Ar  149   1.917   1.133   0.124
    1   AR   Ar  150   2.224   2.563   2.511
    1   AR   Ar  151   2.652   3.184   3.430
    1   AR   Ar  152   0.902   2.250  -2.267
    1   AR   Ar  153   5.124   0.463   3.769
    1   AR   Ar  154   4.595   2.090   4.411
    1   AR   Ar  155   6.509   3.790   5.955
    1   AR   Ar  156   2.906   4.869   3.245
    1   AR   Ar  157   2.014   5.510   6.715
    1   AR   Ar  158   0.286   1.709   5.471
    1   AR   Ar  159   4.064   0.354   6.717
    1   AR   Ar  160   1.355   1.588   5.042
    1   AR   Ar  161   4.884   4.425   3.171
    1   AR   Ar  162   3.974   6.119  -0.387
    1   AR   Ar  163   6.076   4.149   1.497
    1   AR   Ar  164   1.878   5.757   2.170
    1   AR   Ar  165   3.583   4.117   1.470
    1   AR   Ar  166   2.656   3.715   4.383
    1   AR   Ar  167   6.447   6.835   3.468
    1   AR   Ar  168   5.389   3.915  -2.069
    1   AR   Ar  169   3.896   3.486   3.399
    1   AR   Ar  170   1.676   3.338   6.345
    1   AR   Ar  171   5.541   5.020   4.365
    1   AR   Ar  172   3.815   3.568   4.791
    1   AR   Ar  173   2.546   2.134   5.921
    1   AR   Ar  174   3.607   6.541   4.577
    1   AR   Ar  175   3.065   0.731   6.072
    1   AR   Ar  176   3.621   2.675   4.154
    1   AR   Ar  177   0.805   4.811  -0.981
    1   AR   Ar  178   2.781   6.337   0.119
    1   AR   Ar  179   3.446   0.014   1.220
    1   AR   Ar  180   5.008   1.471  -6.790
    1   AR   Ar  181   6.815   5.411   1.606
    1   AR   Ar  182   0.698   6.258   2.229
    1   AR   Ar  183   4.932   5.508   1.821
    1   AR   Ar  184   4.626   6.367   0.590
    1   AR   Ar  185   3.184   4.724   4.645
    1   AR   Ar  186   3.125   5.979   2.876
    1   AR   Ar  187   3.875   6.617   3.620
    1   AR   Ar  188   2.587   6.989   2.112
    1   AR   Ar  189   5.348   3.144   6.428
    1   AR   Ar  190   2.465   6.421   3.512
    1   AR   Ar  191   3.713   6.093   7.199
    1   AR   Ar  192   4.425   4.601   5.964
    1   AR   Ar  193   2.686   6.230   1.300
    1   AR   Ar  194   5.535   5.109  -0.960
    1   AR   Ar  195   5.378   1.253   0.664
    1   AR   Ar  196   3.336   0.623  -0.324
    1   AR   Ar  197   4.827   2.059   1.119
    1   AR   Ar  198   5.668   0.105   1.570
    1   AR   Ar  199   1.772   0.354   3.879
    1   AR   Ar  200   5.034   3.223  -0.055
    1   AR   Ar  201   6.858   6.738   2.274
    1   AR   Ar  202   5.370   0.946   4.783
    1   AR   Ar  203   0.423   6.626   3.217
    1   AR   Ar  204   4.736   5.730   7.140
    1   AR   Ar  205   5.813   2.063   1.842
    1   AR   Ar  206   5.797   0.446   6.159
    1   AR   Ar  207   7.105   3.126   4.783
    1   AR   Ar  208   1.246   6.092   4.452
    1   AR   Ar  209   6.998   2.677  -2.104
    1   AR   Ar  210   1.420   0.107   0.031
    1   AR   Ar  211   0.060   2.579   1.061
    1   AR   Ar  212   6.070   3.745   0.001
    1   AR   Ar  213   3.783   1.864   2.178
    1   AR   Ar  214   4.827   4.394   1.969
    1   AR   Ar  215   6.665   2.679   2.043
    1   AR   Ar  216   1.526   1.920   0.669
    1   AR   Ar  217   4.662   1.605   3.534
    1   AR   Ar  218   4.867   3.223   4.755
    1   AR   Ar  219   5.157   3.160   3.231
    1   AR   Ar  220   4.790   3.565   1.107
    1   AR   Ar  221   6.951   5.979   4.006
    1   AR   Ar  222   4.790   0.444   5.553
    1   AR   Ar  223   6.723   1.551   6.408
    1   AR   Ar  224   4.727   2.300   5.384
    1   AR   Ar  225   6.376   2.961   3.242
    1   AR   Ar  226   1.463   3.160   3.189
    1   AR   Ar  227   0.440   3.309   2.553
    1   AR   Ar  228   6.243   0.946   1.704
    1   AR   Ar  229   6.826   4.414  -1.275
    1   AR   Ar  230   4.037   4.508   4.041
    1   AR   Ar  231   4.648   2.201   2.609
    1   AR   Ar  232   5.219   2.905   1.944
    1   AR   Ar  233   6.641   2.426   4.131
    1   AR   Ar  234   5.557   2.768   4.187
    1   AR   Ar  235   0.221   0.471   3.475
    1   AR   Ar  236   4.928   5.485   5.019
    1   AR   Ar  237   4.582   2.211   6.560
    1   AR   Ar  238   5.821   5.744   7.001
    1   AR   Ar  239   0.932   4.663  10.109
    1   AR   Ar  240   1.718   2.165   6.605
    1   AR   Ar  241   1.980   6.061  -0.673
    1   AR   Ar  242   5.738   5.999   1.560
    1   AR   Ar  243   4.951   6.248   2.632
    1   AR   Ar  244   0.082   5.499   0.567
    1   AR   Ar  245   4.174   0.602   3.395
    1   AR   Ar  246   5.453   6.400  -0.462
    1   AR   Ar  247   6.979   3.517   1.588
    1   AR   Ar  248   4.900   5.458   0.216
    1   AR   Ar  249   4.730   6.594   1.664
    1   AR   Ar  250   5.287   6.354   3.656
    1   AR   Ar  251   4.375   4.435   4.975
    1   AR   Ar  252   2.604   4.743   1.931
    1   AR   Ar  253   6.154   2.396   6.886
    1   AR   Ar  254   5.358   2.370   9.799
    1   AR   Ar  255   4.203   5.431   9.336
    1   AR   Ar  256   6.116   5.601   3.372
    7.12000  7.12000 12.00000
Argon-slab step 4745
  256
    1   AR   Ar    1   5.156   2.951  -2.798
    1   AR   Ar    2   5.601   6.704   0.583
    1   AR   Ar    3   4.189   3.357  -1.240
    1   AR   Ar    4   2.357   1.130   1.033
    1   AR   Ar    5   6.121   5.476  -0.121
    1   AR   Ar    6   1.440   1.783   2.220
    1   AR   Ar    7   5.863   4.215   3.371
    1   AR   Ar    8   6.258   2.906  -1.503
    1   AR   Ar    9   0.462   6.972   4.336
    1   AR   Ar   10   6.077   5.888   5.217
    1   AR   Ar   11   1.246   0.335   4.938
    1   AR   Ar   12   7.040   1.497   3.582
    1   AR   Ar   13   6.406   0.465   4.120
    1   AR   Ar   14   3.681   1.486   6.420
    1   AR   Ar   15   3.323   7.117   9.338
    1   AR   Ar   16   0.658   0.229   5.988
    1   AR   Ar   17   5.603   2.926   0.940
    1   AR   Ar   18   6.789   5.566  -0.839
    1   AR   Ar   19   5.133   4.407   0.294
    1   AR   Ar   20   6.431   3.846  -2.925
    1   AR   Ar   21   2.599   1.702   2.242
    1   AR   Ar   22   5.350   1.305   2.468
    1   AR   Ar   23   0.193   6.337   1.047
    1   AR   Ar   24   5.511   2.271   3.211
    1   AR   Ar   25   0.518   2.057   4.557
    1   AR   Ar   26   5.658   6.921   4.530
    1   AR   Ar   27   1.934   0.718   2.032
    1   AR   Ar   28   1.828   2.262   3.808
    1   AR   Ar   29   4.665   1.386   7.321
    1   AR   Ar   30   0.688   1.124   2.844
    1   AR   Ar   31   3.355   0.875   7.240
    1   AR   Ar   32   1.145   2.678   5.657
    1   AR   Ar   33   0.593   4.338  -0.023
    1   AR   Ar   34   1.149   5.115   2.355
    1   AR   Ar   35   6.085   5.349   2.294
    1   AR   Ar   36   6.011   2.243  -2.399
    1   AR   Ar   37   3.964   2.973   2.087
    1   AR   Ar   38   6.497   4.026   4.280
    1   AR   Ar   39   0.215   3.331   3.621
    1   AR   Ar   40   1.714   4.423   1.782
    1   AR   Ar   41   0.522   2.184   2.730
    1   AR   Ar   42   5.204   6.514   5.984
    1   AR   Ar   43   0.085   2.771   6.238
    1   AR   Ar   44   0.995   4.260   3.233
    1   AR   Ar   45   0.581   3.669   5.621
    1   AR   Ar   46   0.405   4.639   6.201
    1   AR   Ar   47   4.184   4.347   7.598
    1   AR   Ar   48   6.398   3.536   7.600
    1   AR   Ar   49   6.731   0.171  -0.624
    1   AR   Ar   50   3.846   5.300   0.361
    1   AR   Ar   51   5.951   3.564   2.347
    1   AR   Ar   52   5.111   2.929  -1.567
    1   AR   Ar   53   4.984   0.247   2.639
    1   AR   Ar   54   0.479   0.377   2.254
    1   AR   Ar   55   6.917   4.036   2.889
    1   AR   Ar   56   6.542   1.754   2.699
    1   AR   Ar   57   3.844   4.217   2.613
    1   AR   Ar   58   0.990   3.869   4.342
    1   AR   Ar   59   2.628   5.839   5.701
    1   AR   Ar   60   0.424   5.360   3.213
    1   AR   Ar   61   0.315   3.689   6.775
    1   AR   Ar   62   6.946   4.352   5.152
    1   AR   Ar   63   2.684   2.455   7.077
    1   AR   Ar   64   7.086   5.354   4.774
    1   AR   Ar   65   3.710   0.645   2.160
    1   AR   Ar   66   1.248   1.028   1.235
    1   AR   Ar   67   4.541   0.181  -0.546
    1   AR   Ar   68   0.470   0.860  -0.664
    1   AR   Ar   69   2.783   1.668   0.015
    1   AR   Ar   70   0.583   2.035   1.634
    1   AR   Ar   71   2.737   0.757   2.763
    1   AR   Ar   72   4.582   1.212   1.567
    1   AR   Ar   73   3.171   0.255   3.647
    1   AR   Ar   74   0.661   1.066   4.392
    1   AR   Ar   75   3.514   0.484   5.123
    1   AR   Ar   76   2.311   0.042   0.993
    1   AR   Ar   77   1.885   6.780   5.413
    1   AR   Ar   78   6.508   4.990   6.275
    1   AR   Ar   79   3.241   6.653   5.567
    1   AR   Ar   80   3.811   5.734   5.215
    1   AR   Ar   81   1.480   6.410   1.423
    1   AR   Ar   82   6.303   4.660   0.683
    1   AR   Ar   83   0.888   3.293   0.578
    1   AR   Ar   84   1.343   4.169   0.799
    1   AR   Ar   85   1.650   3.853  -0.316
    1   AR   Ar   86   1.843   5.427   0.827
    1   AR   Ar   87   2.889   3.749   2.276
    1   AR   Ar   88   3.530   5.198   1.393
    1   AR   Ar   89   6.299   1.974   0.932
    1   AR   Ar   90   3.325   1.475   5.313
    1   AR   Ar   91   1.986   1.460   3.108
    1   AR   Ar   92   1.778   3.118   1.539
    1   AR   Ar   93   1.838   0.961   6.141
    1   AR   Ar   94   1.485   6.339   9.374
    1   AR   Ar   95   4.364   1.421   5.118
    1   AR   Ar   96   2.655   6.921   4.462
    1   AR   Ar   97   3.401   2.143  -0.577
    1   AR   Ar   98   1.896   4.297   4.096
    1   AR   Ar   99   5.652   0.594  -0.736
    1   AR   Ar  100   0.372   3.322  -2.750
    1   AR   Ar  101   3.993   6.255   2.413
    1   AR   Ar  102   3.578   1.484   3.182
    1   AR   Ar  103   2.531   4.100   1.048
    1   AR   Ar  104   3.854   5.431  -1.518
    1   AR   Ar  105   2.833   2.061   3.718
    1   AR   Ar  106   3.475   2.659   5.393
    1   AR   Ar  107   0.984   5.099   5.266
    1   AR   Ar  108   2.414   1.077   4.854
    1   AR   Ar  109   1.577   3.973   5.248
    1   AR   Ar  110   2.291   2.199   4.811
    1   AR   Ar  111   4.326   6.168   8.088
    1   AR   Ar  112   0.203   5.941   5.943
    1   AR   Ar  113   2.238   5.112  -1.062
    1   AR   Ar  114   2.375   0.031  -0.322
    1   AR   Ar  115   1.805   4.968  -0.127
    1   AR   Ar  116   4.798   0.215   0.832
    1   AR   Ar  117   0.578   4.858   4.145
    1   AR   Ar  118   1.455   6.034   3.377
    1   AR   Ar  119   2.137   4.101   3.037
    1   AR   Ar  120   1.729   6.743   2.681
    1   AR   Ar  121   5.526   4.691   5.541
    1   AR   Ar  122   3.127   5.650   4.016
    1   AR   Ar  123   2.611   3.400   5.529
    1   AR   Ar  124   0.780   5.367   1.385
    1   AR   Ar  125   5.955   3.460   5.108
    1   AR   Ar  126   6.993   0.724   7.139
    1   AR   Ar  127   4.320   3.142   6.074
    1   AR   Ar  128   2.709   4.390   7.157
    1   AR   Ar  129   2.082   5.272   4.805
    1   AR   Ar  130   4.156   1.723  -4.996
    1   AR   Ar  131   4.312   4.546  -1.959
    1   AR   Ar  132   0.387   1.585   0.642
    1   AR   Ar  133   4.262   0.409   4.449
    1   AR   Ar  134   3.554   1.199   4.218
    1   AR   Ar  135   5.824   1.507   3.840
    1   AR   Ar  136   5.986   0.238   2.769
    1   AR   Ar  137   3.334   4.372   6.038
    1   AR   Ar  138   5.754   1.440   5.577
    1   AR   Ar  139   6.129   2.459   5.698
    1   AR   Ar  140   4.732   6.486   4.580
    1   AR   Ar  141   4.204   5.569   4.237
    1   AR   Ar  142   5.075   0.316   7.402
    1   AR   Ar  143   5.831   6.868   6.932
    1   AR   Ar  144   6.591   1.412   4.499
    1   AR   Ar  145   4.307   4.994  -0.537
    1   AR   Ar  146   3.256   2.646   2.807
    1   AR   Ar  147   5.281   3.868  -0.912
    1   AR   Ar  148   3.084   6.366  -1.482
    1   AR   Ar  149   1.866   1.163   0.112
    1   AR   Ar  150   2.246   2.565   2.515
    1   AR   Ar  151   2.644   3.158   3.410
    1   AR   Ar  152   0.899   2.228  -2.270
    1   AR   Ar  153   5.152   0.481   3.746
    1   AR   Ar  154   4.611   2.081   4.403
    1   AR   Ar  155   6.498   3.801   5.941
    1   AR   Ar  156   2.909   4.832   3.257
    1   AR   Ar  157   2.010   5.520   6.722
    1   AR   Ar  158   0.297   1.692   5.475
    1   AR   Ar  159   4.067   0.360   6.730
    1   AR   Ar  160   1.357   1.562   5.026
    1   AR   Ar  161   4.866   4.420   3.161
    1   AR   Ar  162   3.990   6.107  -0.386
    1   AR   Ar  163   6.066   4.178   1.515
    1   AR   Ar  164   1.896   5.755   2.158
    1   AR   Ar  165   3.568   4.086   1.461
    1   AR   Ar  166   2.650   3.725   4.387
    1   AR   Ar  167   6.449   6.832   3.464
    1   AR   Ar  168   5.361   3.912  -2.058
    1   AR   Ar  169   3.911   3.499   3.384
    1   AR   Ar  170   1.711   3.347   6.344
    1   AR   Ar  171   5.538   5.004   4.348
    1   AR   Ar  172   3.829   3.577   4.769
    1   AR   Ar  173   2.513   2.145   5.943
    1   AR   Ar  174   3.598   6.534   4.597
    1   AR   Ar  175   3.099   0.694   6.061
    1   AR   Ar  176   3.614   2.714   4.152
    1   AR   Ar  177   0.835   4.834  -0.963
    1   AR   Ar  178   2.776   6.348   0.117
    1   AR   Ar  179   3.462   0.022   1.224
    1   AR   Ar  180   5.055   1.438  -6.774
    1   AR   Ar  181   6.814   5.447   1.590
    1   AR   Ar  182   0.694   6.241   2.250
    1   AR   Ar  183   4.928   5.501   1.813
    1   AR   Ar  184   4.631   6.358   0.584
    1   AR   Ar  185   3.194   4.698   4.643
    1   AR   Ar  186   3.105   5.994   2.885
    1   AR   Ar  187   3.931   6.623   3.613
    1   AR   Ar  188   2.624   6.980   2.149
    1   AR   Ar  189   5.377   3.128   6.436
    1   AR   Ar  190   2.490   6.410   3.529
    1   AR   Ar  191   3.712   6.082   7.193
    1   AR   Ar  192   4.414   4.595   5.963
    1   AR   Ar  193   2.695   6.220   1.313
    1   AR   Ar  194   5.572   5.097  -0.969
    1   AR   Ar  195   5.385   1.277   0.658
    1   AR   Ar  196   3.338   0.617  -0.316
    1   AR   Ar  197   4.834   2.067   1.074
    1   AR   Ar  198   5.694   0.068   1.588
    1   AR   Ar  199   1.774   0.339   3.851
    1   AR   Ar  200   5.055   3.206  -0.070
    1   AR   Ar  201   6.841   6.722   2.242
    1   AR   Ar  202   5.383   0.958   4.778
    1   AR   Ar  203   0.429   6.593   3.187
    1   AR   Ar  204   4.722   5.721   7.121
    1   AR   Ar  205   5.828   2.063   1.831
    1   AR   Ar  206   5.807   0.466   6.157
    1   AR   Ar  207   7.064   3.110   4.789
    1   AR   Ar  208   1.255   6.085   4.427
    1   AR   Ar  209   7.025   2.694  -2.085
    1   AR   Ar  210   1.402   0.096   0.045
    1   AR   Ar  211   0.052   2.602   1.047
    1   AR   Ar  212   6.054   3.729  -0.016
    1   AR   Ar  213   3.758   1.853   2.177
    1   AR   Ar  214   4.828   4.412   1.957
    1   AR   Ar  215   6.682   2.674   2.068
    1   AR   Ar  216   1.540   1.899   0.655
    1   AR   Ar  217   4.666   1.594   3.538
    1   AR   Ar  218   4.873   3.210   4.783
    1   AR   Ar  219   5.128   3.174   3.210
    1   AR   Ar  220   4.799   3.582   1.104
    1   AR   Ar  221   6.939   5.973   4.007
    1   AR   Ar  222   4.776   0.465   5.563
    1   AR   Ar  223   6.695   1.563   6.424
    1   AR   Ar  224   4.750   2.299   5.415
    1   AR   Ar  225   6.377   2.951   3.238
    1   AR   Ar  226   1.446   3.153   3.216
    1   AR   Ar  227   0.439   3.310   2.562
    1   AR   Ar  228   6.248   0.958   1.702
    1   AR   Ar  229   6.819   4.376  -1.262
    1   AR   Ar  230   4.029   4.482   4.020
    1   AR   Ar  231   4.633   2.165   2.590
    1   AR   Ar  232   5.237   2.910   1.953
    1   AR   Ar  233   6.644   2.422   4.116
    1   AR   Ar  234   5.536   2.783   4.225
    1   AR   Ar  235   0.216   0.473   3.454
    1   AR   Ar  236   4.909   5.488   5.024
    1   AR   Ar  237   4.587   2.205   6.534
    1   AR   Ar  238   5.850   5.733   7.006
    1   AR   Ar  239   0.952   4.686  10.095
    1   AR   Ar  240   1.725   2.186   6.599
    1   AR   Ar  241   1.961   6.082  -0.647
    1   AR   Ar  242   5.776   6.002   1.562
    1   AR   Ar  243   4.951   6.269   2.637
    1   AR   Ar  244   0.086   5.492   0.586
    1   AR   Ar  245   4.161   0.608   3.367
    1   AR   Ar  246   5.467   6.402  -0.465
    1   AR   Ar  247   7.005   3.510   1.602
    1   AR   Ar  248   4.909   5.464   0.208
    1   AR   Ar  249   4.720   6.607   1.646
    1   AR   Ar  250   5.292   6.379   3.596
    1   AR   Ar  251   4.381   4.405   4.976
    1   AR   Ar  252   2.613   4.751   1.916
    1   AR   Ar  253   6.156   2.362   6.915
    1   AR   Ar  254   5.397   2.409   9.802
    1   AR   Ar  255   4.180   5.456   9.341
    1   AR   Ar  256   6.076   5.598   3.376
    7.12000  7.12000 12.00000
Argon-slab step 4750
  256
    1   AR   Ar    1   5.151   2.944  -2.783
    1   AR   Ar    2   5.635   6.681   0.595
    1   AR   Ar    3   4.213   3.353  -1.240
    1   AR   Ar    4   2.346   1.112   1.025
    1   AR   Ar    5   6.134   5.486  -0.120
    1   AR   Ar    6   1.424   1.800   2.235
    1   AR   Ar    7   5.836   4.240   3.363
    1   AR   Ar    8   6.255   2.920  -1.530
    1   AR   Ar    9   0.484   6.985   4.363
    1   AR   Ar   10   6.070   5.855   5.211
    1   AR   Ar   11   1.285   0.319   4.942
    1   AR   Ar   12   7.052   1.545   3.594
    1   AR   Ar   13   6.413   0.425   4.142
    1   AR   Ar   14   3.676   1.493   6.409
    1   AR   Ar   15   3.321   0.033   9.371
    1   AR   Ar   16   0.671   0.223   5.994
    1   AR   Ar   17   5.597   2.924   0.940
    1   AR   Ar   18   6.774   5.560  -0.837
    1   AR   Ar   19   5.126   4.384   0.318
    1   AR   Ar   20   6.404   3.830  -2.930
    1   AR   Ar   21   2.616   1.697   2.229
    1   AR   Ar   22   5.356   1.319   2.480
    1   AR   Ar   23   0.203   6.365   1.085
    1   AR   Ar   24   5.503   2.233   3.209
    1   AR   Ar   25   0.502   2.064   4.562
    1   AR   Ar   26   5.680   6.918   4.545
    1   AR   Ar   27   1.922   0.682   2.020
    1   AR   Ar   28   1.815   2.286   3.801
    1   AR   Ar   29   4.657   1.355   7.325
    1   AR   Ar   30   0.703   1.141   2.852
    1   AR   Ar   31   3.333   0.877   7.222
    1   AR   Ar   32   1.150   2.673   5.669
    1   AR   Ar   33   0.568   4.341  -0.011
    1   AR   Ar   34   1.154   5.105   2.377
    1   AR   Ar   35   6.071   5.364   2.303
    1   AR   Ar   36   5.999   2.210  -2.408
    1   AR   Ar   37   3.972   2.983   2.105
    1   AR   Ar   38   6.453   4.039   4.298
    1   AR   Ar   39   0.216   3.331   3.569
    1   AR   Ar   40   1.689   4.417   1.785
    1   AR   Ar   41   0.519   2.184   2.743
    1   AR   Ar   42   5.184   6.493   5.965
    1   AR   Ar   43   0.058   2.742   6.232
    1   AR   Ar   44   1.001   4.240   3.222
    1   AR   Ar   45   0.569   3.657   5.615
    1   AR   Ar   46   0.403   4.642   6.242
    1   AR   Ar   47   4.182   4.353   7.606
    1   AR   Ar   48   6.418   3.534   7.574
    1   AR   Ar   49   6.737   0.214  -0.622
    1   AR   Ar   50   3.849   5.284   0.321
    1   AR   Ar   51   5.944   3.568   2.358
    1   AR   Ar   52   5.119   2.946  -1.546
    1   AR   Ar   53   5.010   0.274   2.630
    1   AR   Ar   54   0.480   0.381   2.258
    1   AR   Ar   55   6.906   4.049   2.904
    1   AR   Ar   56   6.564   1.787   2.675
    1   AR   Ar   57   3.844   4.220   2.599
    1   AR   Ar   58   1.003   3.882   4.343
    1   AR   Ar   59   2.618   5.824   5.690
    1   AR   Ar   60   0.422   5.373   3.216
    1   AR   Ar   61   0.336   3.695   6.774
    1   AR   Ar   62   6.979   4.345   5.151
    1   AR   Ar   63   2.671   2.459   7.070
    1   AR   Ar   64   7.066   5.366   4.808
    1   AR   Ar   65   3.709   0.644   2.142
    1   AR   Ar   66   1.275   1.042   1.226
    1   AR   Ar   67   4.551   0.167  -0.541
    1   AR   Ar   68   0.503   0.881  -0.683
    1   AR   Ar   69   2.733   1.654   0.034
    1   AR   Ar   70   0.561   2.058   1.621
    1   AR   Ar   71   2.739   0.741   2.767
    1   AR   Ar   72   4.606   1.182   1.567
    1   AR   Ar   73   3.174   0.221   3.639
    1   AR   Ar   74   0.661   1.058   4.392
    1   AR   Ar   75   3.493   0.508   5.146
    1   AR   Ar   76   2.334   0.037   1.019
    1   AR   Ar   77   1.895   6.728   5.444
    1   AR   Ar   78   6.503   4.995   6.268
    1   AR   Ar   79   3.275   6.670   5.573
    1   AR   Ar   80   3.807   5.757   5.216
    1   AR   Ar   81   1.452   6.405   1.423
    1   AR   Ar   82   6.309   4.669   0.715
    1   AR   Ar   83   0.896   3.297   0.620
    1   AR   Ar   84   1.355   4.161   0.801
    1   AR   Ar   85   1.637   3.872  -0.321
    1   AR   Ar   86   1.817   5.444   0.823
    1   AR   Ar   87   2.897   3.743   2.299
    1   AR   Ar   88   3.513   5.190   1.391
    1   AR   Ar   89   6.303   1.987   0.939
    1   AR   Ar   90   3.318   1.446   5.299
    1   AR   Ar   91   2.000   1.463   3.146
    1   AR   Ar   92   1.792   3.117   1.536
    1   AR   Ar   93   1.842   0.984   6.154
    1   AR   Ar   94   1.501   6.327   9.364
    1   AR   Ar   95   4.340   1.448   5.115
    1   AR   Ar   96   2.651   6.924   4.462
    1   AR   Ar   97   3.371   2.159  -0.601
    1   AR   Ar   98   1.918   4.283   4.082
    1   AR   Ar   99   5.658   0.594  -0.740
    1   AR   Ar  100   0.375   3.306  -2.735
    1   AR   Ar  101   4.005   6.261   2.402
    1   AR   Ar  102   3.570   1.514   3.210
    1   AR   Ar  103   2.495   4.104   1.031
    1   AR   Ar  104   3.864   5.424  -1.522
    1   AR   Ar  105   2.838   2.062   3.696
    1   AR   Ar  106   3.485   2.652   5.376
    1   AR   Ar  107   0.988   5.091   5.221
    1   AR   Ar  108   2.427   1.082   4.869
    1   AR   Ar  109   1.574   3.978   5.271
    1   AR   Ar  110   2.258   2.170   4.831
    1   AR   Ar  111   4.302   6.137   8.084
    1   AR   Ar  112   0.222   5.937   5.964
    1   AR   Ar  113   2.207   5.120  -1.044
    1   AR   Ar  114   2.386   0.010  -0.300
    1   AR   Ar  115   1.784   4.985  -0.142
    1   AR   Ar  116   4.784   0.191   0.839
    1   AR   Ar  117   0.591   4.844   4.129
    1   AR   Ar  118   1.465   6.014   3.388
    1   AR   Ar  119   2.124   4.134   3.007
    1   AR   Ar  120   1.726   6.758   2.664
    1   AR   Ar  121   5.518   4.668   5.528
    1   AR   Ar  122   3.087   5.655   3.996
    1   AR   Ar  123   2.663   3.414   5.531
    1   AR   Ar  124   0.756   5.341   1.388
    1   AR   Ar  125   5.959   3.438   5.105
    1   AR   Ar  126   7.010   0.728   7.178
    1   AR   Ar  127   4.330   3.166   6.057
    1   AR   Ar  128   2.692   4.395   7.143
    1   AR   Ar  129   2.044   5.219   4.800
    1   AR   Ar  130   4.154   1.754  -5.024
    1   AR   Ar  131   4.290   4.593  -1.975
    1   AR   Ar  132   0.403   1.572   0.613
    1   AR   Ar  133   4.224   0.410   4.447
    1   AR   Ar  134   3.554   1.165   4.209
    1   AR   Ar  135   5.827   1.517   3.845
    1   AR   Ar  136   5.987   0.230   2.776
    1   AR   Ar  137   3.355   4.363   6.045
    1   AR   Ar  138   5.735   1.452   5.575
    1   AR   Ar  139   6.097   2.442   5.674
    1   AR   Ar  140   4.727   6.478   4.610
    1   AR   Ar  141   4.201   5.590   4.246
    1   AR   Ar  142   5.047   0.322   7.419
    1   AR   Ar  143   5.811   6.838   6.931
    1   AR   Ar  144   6.635   1.389   4.518
    1   AR   Ar  145   4.316   5.006  -0.543
    1   AR   Ar  146   3.269   2.631   2.814
    1   AR   Ar  147   5.283   3.858  -0.892
    1   AR   Ar  148   3.060   6.364  -1.474
    1   AR   Ar  149   1.816   1.178   0.090
    1   AR   Ar  150   2.265   2.563   2.529
    1   AR   Ar  151   2.629   3.136   3.395
    1   AR   Ar  152   0.895   2.207  -2.272
    1   AR   Ar  153   5.185   0.500   3.724
    1   AR   Ar  154   4.627   2.082   4.393
    1   AR   Ar  155   6.489   3.810   5.931
    1   AR   Ar  156   2.914   4.795   3.270
    1   AR   Ar  157   2.006   5.529   6.728
    1   AR   Ar  158   0.305   1.673   5.486
    1   AR   Ar  159   4.074   0.364   6.738
    1   AR   Ar  160   1.362   1.536   5.013
    1   AR   Ar  161   4.843   4.414   3.149
    1   AR   Ar  162   4.006   6.096  -0.384
    1   AR   Ar  163   6.052   4.202   1.540
    1   AR   Ar  164   1.921   5.757   2.145
    1   AR   Ar  165   3.551   4.068   1.450
    1   AR   Ar  166   2.653   3.727   4.395
    1   AR   Ar  167   6.456   6.816   3.462
    1   AR   Ar  168   5.341   3.914  -2.048
    1   AR   Ar  169   3.926   3.510   3.372
    1   AR   Ar  170   1.746   3.356   6.342
    1   AR   Ar  171   5.538   4.986   4.328
    1   AR   Ar  172   3.837   3.583   4.745
    1   AR   Ar  173   2.486   2.156   5.960
    1   AR   Ar  174   3.593   6.529   4.615
    1   AR   Ar  175   3.129   0.655   6.052
    1   AR   Ar  176   3.608   2.752   4.151
    1   AR   Ar  177   0.846   4.836  -0.947
    1   AR   Ar  178   2.775   6.350   0.121
    1   AR   Ar  179   3.478   0.029   1.229
    1   AR   Ar  180   5.102   1.406  -6.757
    1   AR   Ar  181   6.816   5.484   1.571
    1   AR   Ar  182   0.693   6.220   2.266
    1   AR   Ar  183   4.917   5.491   1.806
    1   AR   Ar  184   4.627   6.348   0.577
    1   AR   Ar  185   3.203   4.672   4.643
    1   AR   Ar  186   3.088   6.002   2.889
    1   AR   Ar  187   3.990   6.626   3.601
    1   AR   Ar  188   2.663   6.969   2.184
    1   AR   Ar  189   5.408   3.111   6.442
    1   AR   Ar  190   2.507   6.407   3.553
    1   AR   Ar  191   3.709   6.071   7.186
    1   AR   Ar  192   4.404   4.591   5.968
    1   AR   Ar  193   2.703   6.206   1.327
    1   AR   Ar  194   5.608   5.083  -0.977
    1   AR   Ar  195   5.394   1.298   0.652
    1   AR   Ar  196   3.347   0.628  -0.303
    1   AR   Ar  197   4.843   2.085   1.029
    1   AR   Ar  198   5.716   0.028   1.607
    1   AR   Ar  199   1.778   0.325   3.824
    1   AR   Ar  200   5.075   3.191  -0.084
    1   AR   Ar  201   6.821   6.705   2.210
    1   AR   Ar  202   5.392   0.965   4.765
    1   AR   Ar  203   0.417   6.576   3.176
    1   AR   Ar  204   4.706   5.725   7.090
    1   AR   Ar  205   5.841   2.059   1.825
    1   AR   Ar  206   5.815   0.487   6.153
    1   AR   Ar  207   7.026   3.098   4.797
    1   AR   Ar  208   1.263   6.078   4.404
    1   AR   Ar  209   7.058   2.705  -2.069
    1   AR   Ar  210   1.381   0.085   0.062
    1   AR   Ar  211   0.039   2.634   1.023
    1   AR   Ar  212   6.037   3.714  -0.031
    1   AR   Ar  213   3.753   1.862   2.170
    1   AR   Ar  214   4.830   4.427   1.946
    1   AR   Ar  215   6.699   2.664   2.097
    1   AR   Ar  216   1.515   1.892   0.664
    1   AR   Ar  217   4.671   1.575   3.534
    1   AR   Ar  218   4.867   3.205   4.821
    1   AR   Ar  219   5.094   3.201   3.188
    1   AR   Ar  220   4.806   3.602   1.102
    1   AR   Ar  221   6.926   5.973   4.001
    1   AR   Ar  222   4.761   0.485   5.573
    1   AR   Ar  223   6.667   1.575   6.437
    1   AR   Ar  224   4.777   2.306   5.452
    1   AR   Ar  225   6.387   2.950   3.219
    1   AR   Ar  226   1.429   3.147   3.244
    1   AR   Ar  227   0.443   3.307   2.582
    1   AR   Ar  228   6.253   0.975   1.701
    1   AR   Ar  229   6.812   4.339  -1.249
    1   AR   Ar  230   4.043   4.465   3.996
    1   AR   Ar  231   4.623   2.132   2.572
    1   AR   Ar  232   5.249   2.916   1.962
    1   AR   Ar  233   6.649   2.452   4.082
    1   AR   Ar  234   5.527   2.790   4.253
    1   AR   Ar  235   0.206   0.471   3.438
    1   AR   Ar  236   4.889   5.492   5.035
    1   AR   Ar  237   4.593   2.197   6.507
    1   AR   Ar  238   5.836   5.726   7.011
    1   AR   Ar  239   0.975   4.703  10.083
    1   AR   Ar  240   1.727   2.207   6.594
    1   AR   Ar  241   1.943   6.104  -0.619
    1   AR   Ar  242   5.804   6.013   1.541
    1   AR   Ar  243   4.962   6.288   2.640
    1   AR   Ar  244   0.086   5.469   0.593
    1   AR   Ar  245   4.146   0.614   3.337
    1   AR   Ar  246   5.480   6.403  -0.468
    1   AR   Ar  247   7.033   3.512   1.615
    1   AR   Ar  248   4.923   5.467   0.198
    1   AR   Ar  249   4.712   6.621   1.628
    1   AR   Ar  250   5.299   6.407   3.543
    1   AR   Ar  251   4.392   4.379   4.976
    1   AR   Ar  252   2.639   4.766   1.904
    1   AR   Ar  253   6.158   2.330   6.943
    1   AR   Ar  254   5.436   2.448   9.806
    1   AR   Ar  255   4.156   5.482   9.345
    1   AR   Ar  256   6.035   5.596   3.381
    7.12000  7.12000 12.00000
Argon-slab step 4755
  256
    1   AR   Ar    1   5.147   2.938  -2.765
    1   AR   Ar    2   5.671   6.657   0.607
    1   AR   Ar    3   4.235   3.352  -1.238
    1   AR   Ar    4   2.356   1.130   1.020
    1   AR   Ar    5   6.136   5.494  -0.103
    1   AR   Ar    6   1.411   1.816   2.250
    1   AR   Ar    7   5.815   4.263   3.355
    1   AR   Ar    8   6.243   2.938  -1.552
    1   AR   Ar    9   0.510   6.993   4.397
    1   AR   Ar   10   6.062   5.821   5.205
    1   AR   Ar   11   1.325   0.307   4.946
    1   AR   Ar   12   7.066   1.593   3.604
    1   AR   Ar   13   6.421   0.394   4.168
    1   AR   Ar   14   3.674   1.503   6.397
    1   AR   Ar   15   3.318   0.069   9.405
    1   AR   Ar   16   0.684   0.218   5.998
    1   AR   Ar   17   5.596   2.920   0.938
    1   AR   Ar   18   6.771   5.555  -0.848
    1   AR   Ar   19   5.130   4.372   0.338
    1   AR   Ar   20   6.378   3.813  -2.935
    1   AR   Ar   21   2.638   1.680   2.212
    1   AR   Ar   22   5.363   1.332   2.493
    1   AR   Ar   23   0.215   6.398   1.128
    1   AR   Ar   24   5.488   2.198   3.205
    1   AR   Ar   25   0.485   2.079   4.561
    1   AR   Ar   26   5.706   6.953   4.559
    1   AR   Ar   27   1.910   0.647   2.009
    1   AR   Ar   28   1.799   2.312   3.796
    1   AR   Ar   29   4.649   1.324   7.326
    1   AR   Ar   30   0.725   1.170   2.863
    1   AR   Ar   31   3.306   0.881   7.208
    1   AR   Ar   32   1.154   2.667   5.681
    1   AR   Ar   33   0.543   4.343   0.002
    1   AR   Ar   34   1.153   5.095   2.404
    1   AR   Ar   35   6.078   5.381   2.321
    1   AR   Ar   36   5.988   2.179  -2.416
    1   AR   Ar   37   3.982   2.995   2.122
    1   AR   Ar   38   6.407   4.051   4.312
    1   AR   Ar   39   0.219   3.330   3.528
    1   AR   Ar   40   1.663   4.401   1.786
    1   AR   Ar   41   0.514   2.188   2.758
    1   AR   Ar   42   5.164   6.473   5.946
    1   AR   Ar   43   0.031   2.712   6.223
    1   AR   Ar   44   1.007   4.220   3.212
    1   AR   Ar   45   0.566   3.658   5.596
    1   AR   Ar   46   0.401   4.646   6.279
    1   AR   Ar   47   4.180   4.360   7.614
    1   AR   Ar   48   6.439   3.531   7.546
    1   AR   Ar   49   6.742   0.256  -0.618
    1   AR   Ar   50   3.849   5.270   0.288
    1   AR   Ar   51   5.941   3.572   2.376
    1   AR   Ar   52   5.132   2.960  -1.528
    1   AR   Ar   53   5.023   0.301   2.619
    1   AR   Ar   54   0.480   0.375   2.257
    1   AR   Ar   55   6.897   4.064   2.927
    1   AR   Ar   56   6.584   1.819   2.652
    1   AR   Ar   57   3.845   4.225   2.582
    1   AR   Ar   58   1.011   3.890   4.344
    1   AR   Ar   59   2.606   5.809   5.678
    1   AR   Ar   60   0.421   5.388   3.217
    1   AR   Ar   61   0.357   3.700   6.771
    1   AR   Ar   62   7.015   4.340   5.151
    1   AR   Ar   63   2.659   2.462   7.063
    1   AR   Ar   64   7.046   5.377   4.849
    1   AR   Ar   65   3.708   0.644   2.125
    1   AR   Ar   66   1.299   1.053   1.218
    1   AR   Ar   67   4.562   0.151  -0.534
    1   AR   Ar   68   0.538   0.902  -0.702
    1   AR   Ar   69   2.684   1.638   0.057
    1   AR   Ar   70   0.545   2.074   1.616
    1   AR   Ar   71   2.744   0.726   2.772
    1   AR   Ar   72   4.630   1.151   1.568
    1   AR   Ar   73   3.176   0.188   3.631
    1   AR   Ar   74   0.658   1.044   4.388
    1   AR   Ar   75   3.474   0.515   5.158
    1   AR   Ar   76   2.356   0.032   1.044
    1   AR   Ar   77   1.908   6.674   5.476
    1   AR   Ar   78   6.497   5.001   6.259
    1   AR   Ar   79   3.306   6.688   5.584
    1   AR   Ar   80   3.804   5.771   5.225
    1   AR   Ar   81   1.452   6.394   1.428
    1   AR   Ar   82   6.318   4.684   0.736
    1   AR   Ar   83   0.885   3.284   0.664
    1   AR   Ar   84   1.373   4.164   0.802
    1   AR   Ar   85   1.630   3.893  -0.323
    1   AR   Ar   86   1.792   5.463   0.823
    1   AR   Ar   87   2.898   3.736   2.331
    1   AR   Ar   88   3.497   5.183   1.389
    1   AR   Ar   89   6.311   1.999   0.940
    1   AR   Ar   90   3.302   1.436   5.292
    1   AR   Ar   91   2.014   1.465   3.183
    1   AR   Ar   92   1.806   3.090   1.519
    1   AR   Ar   93   1.849   1.011   6.146
    1   AR   Ar   94   1.514   6.348   9.348
    1   AR   Ar   95   4.315   1.462   5.114
    1   AR   Ar   96   2.642   6.931   4.467
    1   AR   Ar   97   3.345   2.179  -0.630
    1   AR   Ar   98   1.933   4.281   4.062
    1   AR   Ar   99   5.664   0.594  -0.746
    1   AR   Ar  100   0.381   3.295  -2.727
    1   AR   Ar  101   4.007   6.267   2.388
    1   AR   Ar  102   3.564   1.543   3.232
    1   AR   Ar  103   2.457   4.108   1.015
    1   AR   Ar  104   3.871   5.421  -1.523
    1   AR   Ar  105   2.843   2.064   3.676
    1   AR   Ar  106   3.495   2.644   5.358
    1   AR   Ar  107   0.990   5.081   5.176
    1   AR   Ar  108   2.439   1.083   4.882
    1   AR   Ar  109   1.572   3.983   5.294
    1   AR   Ar  110   2.228   2.143   4.850
    1   AR   Ar  111   4.279   6.106   8.082
    1   AR   Ar  112   0.241   5.931   5.983
    1   AR   Ar  113   2.179   5.129  -1.034
    1   AR   Ar  114   2.392   0.002  -0.285
    1   AR   Ar  115   1.749   5.007  -0.163
    1   AR   Ar  116   4.770   0.179   0.847
    1   AR   Ar  117   0.604   4.829   4.114
    1   AR   Ar  118   1.474   5.992   3.394
    1   AR   Ar  119   2.103   4.157   2.984
    1   AR   Ar  120   1.723   6.774   2.646
    1   AR   Ar  121   5.510   4.645   5.514
    1   AR   Ar  122   3.051   5.658   3.979
    1   AR   Ar  123   2.713   3.429   5.532
    1   AR   Ar  124   0.737   5.317   1.392
    1   AR   Ar  125   5.978   3.422   5.091
    1   AR   Ar  126   7.002   0.734   7.206
    1   AR   Ar  127   4.339   3.191   6.037
    1   AR   Ar  128   2.675   4.401   7.128
    1   AR   Ar  129   2.006   5.166   4.794
    1   AR   Ar  130   4.141   1.785  -5.042
    1   AR   Ar  131   4.272   4.636  -1.991
    1   AR   Ar  132   0.406   1.552   0.591
    1   AR   Ar  133   4.195   0.407   4.441
    1   AR   Ar  134   3.552   1.135   4.202
    1   AR   Ar  135   5.830   1.523   3.852
    1   AR   Ar  136   5.994   0.228   2.776
    1   AR   Ar  137   3.341   4.358   6.061
    1   AR   Ar  138   5.717   1.467   5.579
    1   AR   Ar  139   6.065   2.429   5.651
    1   AR   Ar  140   4.700   6.470   4.665
    1   AR   Ar  141   4.196   5.610   4.249
    1   AR   Ar  142   5.021   0.317   7.420
    1   AR   Ar  143   5.792   6.806   6.930
    1   AR   Ar  144   6.680   1.368   4.546
    1   AR   Ar  145   4.328   5.014  -0.556
    1   AR   Ar  146   3.290   2.611   2.819
    1   AR   Ar  147   5.285   3.850  -0.873
    1   AR   Ar  148   3.036   6.361  -1.465
    1   AR   Ar  149   1.765   1.176   0.056
    1   AR   Ar  150   2.280   2.561   2.550
    1   AR   Ar  151   2.609   3.120   3.386
    1   AR   Ar  152   0.892   2.185  -2.275
    1   AR   Ar  153   5.218   0.518   3.703
    1   AR   Ar  154   4.646   2.093   4.384
    1   AR   Ar  155   6.482   3.820   5.926
    1   AR   Ar  156   2.921   4.760   3.284
    1   AR   Ar  157   2.004   5.539   6.733
    1   AR   Ar  158   0.312   1.653   5.501
    1   AR   Ar  159   4.087   0.366   6.742
    1   AR   Ar  160   1.370   1.511   5.002
    1   AR   Ar  161   4.816   4.399   3.131
    1   AR   Ar  162   4.023   6.086  -0.383
    1   AR   Ar  163   6.034   4.223   1.572
    1   AR   Ar  164   1.952   5.762   2.132
    1   AR   Ar  165   3.520   4.106   1.429
    1   AR   Ar  166   2.669   3.720   4.407
    1   AR   Ar  167   6.469   6.785   3.461
    1   AR   Ar  168   5.350   3.938  -2.044
    1   AR   Ar  169   3.941   3.519   3.362
    1   AR   Ar  170   1.782   3.364   6.338
    1   AR   Ar  171   5.539   4.967   4.307
    1   AR   Ar  172   3.838   3.585   4.721
    1   AR   Ar  173   2.468   2.166   5.967
    1   AR   Ar  174   3.593   6.529   4.622
    1   AR   Ar  175   3.154   0.614   6.054
    1   AR   Ar  176   3.600   2.786   4.147
    1   AR   Ar  177   0.845   4.824  -0.932
    1   AR   Ar  178   2.782   6.340   0.133
    1   AR   Ar  179   3.493   0.034   1.234
    1   AR   Ar  180   5.149   1.373  -6.740
    1   AR   Ar  181   6.819   5.521   1.552
    1   AR   Ar  182   0.697   6.195   2.275
    1   AR   Ar  183   4.904   5.482   1.800
    1   AR   Ar  184   4.617   6.337   0.570
    1   AR   Ar  185   3.211   4.647   4.644
    1   AR   Ar  186   3.078   6.004   2.883
    1   AR   Ar  187   3.977   6.668   3.566
    1   AR   Ar  188   2.695   6.953   2.207
    1   AR   Ar  189   5.439   3.092   6.446
    1   AR   Ar  190   2.512   6.413   3.583
    1   AR   Ar  191   3.702   6.062   7.177
    1   AR   Ar  192   4.395   4.583   5.972
    1   AR   Ar  193   2.712   6.191   1.342
    1   AR   Ar  194   5.642   5.068  -0.985
    1   AR   Ar  195   5.407   1.315   0.647
    1   AR   Ar  196   3.362   0.649  -0.286
    1   AR   Ar  197   4.850   2.110   0.987
    1   AR   Ar  198   5.738   7.107   1.628
    1   AR   Ar  199   1.789   0.307   3.795
    1   AR   Ar  200   5.095   3.174  -0.095
    1   AR   Ar  201   6.799   6.687   2.179
    1   AR   Ar  202   5.399   0.968   4.742
    1   AR   Ar  203   0.399   6.563   3.175
    1   AR   Ar  204   4.702   5.736   7.078
    1   AR   Ar  205   5.849   2.053   1.825
    1   AR   Ar  206   5.822   0.509   6.147
    1   AR   Ar  207   6.989   3.090   4.809
    1   AR   Ar  208   1.269   6.071   4.387
    1   AR   Ar  209   7.094   2.708  -2.053
    1   AR   Ar  210   1.359   0.076   0.081
    1   AR   Ar  211   0.019   2.672   0.990
    1   AR   Ar  212   6.043   3.709  -0.044
    1   AR   Ar  213   3.758   1.884   2.156
    1   AR   Ar  214   4.831   4.440   1.935
    1   AR   Ar  215   6.715   2.653   2.128
    1   AR   Ar  216   1.504   1.902   0.677
    1   AR   Ar  217   4.677   1.551   3.522
    1   AR   Ar  218   4.849   3.207   4.869
    1   AR   Ar  219   5.059   3.232   3.166
    1   AR   Ar  220   4.811   3.624   1.101
    1   AR   Ar  221   6.914   5.978   3.989
    1   AR   Ar  222   4.746   0.505   5.582
    1   AR   Ar  223   6.641   1.584   6.446
    1   AR   Ar  224   4.808   2.318   5.491
    1   AR   Ar  225   6.394   2.951   3.193
    1   AR   Ar  226   1.412   3.143   3.270
    1   AR   Ar  227   0.451   3.300   2.593
    1   AR   Ar  228   6.258   0.995   1.702
    1   AR   Ar  229   6.775   4.324  -1.237
    1   AR   Ar  230   4.051   4.488   4.004
    1   AR   Ar  231   4.621   2.103   2.557
    1   AR   Ar  232   5.253   2.921   1.973
    1   AR   Ar  233   6.652   2.477   4.049
    1   AR   Ar  234   5.531   2.788   4.270
    1   AR   Ar  235   0.193   0.466   3.426
    1   AR   Ar  236   4.872   5.494   5.050
    1   AR   Ar  237   4.599   2.188   6.482
    1   AR   Ar  238   5.811   5.719   7.014
    1   AR   Ar  239   1.008   4.702  10.076
    1   AR   Ar  240   1.719   2.228   6.595
    1   AR   Ar  241   1.925   6.127  -0.590
    1   AR   Ar  242   5.823   6.030   1.505
    1   AR   Ar  243   4.981   6.305   2.632
    1   AR   Ar  244   0.108   5.458   0.558
    1   AR   Ar  245   4.131   0.617   3.321
    1   AR   Ar  246   5.492   6.403  -0.471
    1   AR   Ar  247   7.061   3.519   1.627
    1   AR   Ar  248   4.944   5.465   0.185
    1   AR   Ar  249   4.704   6.633   1.613
    1   AR   Ar  250   5.311   6.439   3.506
    1   AR   Ar  251   4.411   4.360   4.974
    1   AR   Ar  252   2.670   4.785   1.895
    1   AR   Ar  253   6.157   2.303   6.972
    1   AR   Ar  254   5.475   2.486   9.810
    1   AR   Ar  255   4.133   5.507   9.348
    1   AR   Ar  256   5.996   5.593   3.387
    7.12000  7.12000 12.00000
Argon-slab step 4760
  256
    1   AR   Ar    1   5.145   2.932  -2.746
    1   AR   Ar    2   5.707   6.633   0.619
    1   AR   Ar    3   4.252   3.353  -1.234
    1   AR   Ar    4   2.368   1.149   1.016
    1   AR   Ar    5   6.128   5.502  -0.074
    1   AR   Ar    6   1.401   1.831   2.264
    1   AR   Ar    7   5.799   4.284   3.347
    1   AR   Ar    8   6.236   2.936  -1.571
    1   AR   Ar    9   0.535   6.999   4.428
    1   AR   Ar   10   6.053   5.786   5.198
    1   AR   Ar   11   1.367   0.297   4.950
    1   AR   Ar   12   7.084   1.640   3.611
    1   AR   Ar   13   6.437   0.373   4.191
    1   AR   Ar   14   3.673   1.515   6.382
    1   AR   Ar   15   3.315   0.105   9.439
    1   AR   Ar   16   0.698   0.213   6.001
    1   AR   Ar   17   5.598   2.915   0.935
    1   AR   Ar   18   6.776   5.549  -0.868
    1   AR   Ar   19   5.148   4.376   0.349
    1   AR   Ar   20   6.351   3.795  -2.938
    1   AR   Ar   21   2.663   1.655   2.193
    1   AR   Ar   22   5.372   1.343   2.506
    1   AR   Ar   23   0.229   6.432   1.174
    1   AR   Ar   24   5.490   2.188   3.218
    1   AR   Ar   25   0.467   2.098   4.556
    1   AR   Ar   26   5.723   6.981   4.577
    1   AR   Ar   27   1.900   0.612   1.999
    1   AR   Ar   28   1.783   2.338   3.793
    1   AR   Ar   29   4.638   1.295   7.326
    1   AR   Ar   30   0.751   1.202   2.877
    1   AR   Ar   31   3.276   0.887   7.194
    1   AR   Ar   32   1.160   2.677   5.650
    1   AR   Ar   33   0.520   4.345   0.017
    1   AR   Ar   34   1.149   5.084   2.423
    1   AR   Ar   35   6.084   5.397   2.341
    1   AR   Ar   36   5.977   2.150  -2.424
    1   AR   Ar   37   3.995   3.010   2.137
    1   AR   Ar   38   6.361   4.063   4.324
    1   AR   Ar   39   0.222   3.328   3.509
    1   AR   Ar   40   1.650   4.361   1.782
    1   AR   Ar   41   0.507   2.197   2.772
    1   AR   Ar   42   5.144   6.453   5.927
    1   AR   Ar   43   0.003   2.682   6.212
    1   AR   Ar   44   1.011   4.199   3.203
    1   AR   Ar   45   0.569   3.665   5.569
    1   AR   Ar   46   0.401   4.651   6.313
    1   AR   Ar   47   4.178   4.367   7.621
    1   AR   Ar   48   6.460   3.528   7.516
    1   AR   Ar   49   6.746   0.298  -0.615
    1   AR   Ar   50   3.852   5.267   0.280
    1   AR   Ar   51   5.941   3.577   2.401
    1   AR   Ar   52   5.150   2.972  -1.511
    1   AR   Ar   53   5.023   0.328   2.605
    1   AR   Ar   54   0.479   0.363   2.253
    1   AR   Ar   55   6.884   4.082   2.950
    1   AR   Ar   56   6.594   1.830   2.639
    1   AR   Ar   57   3.846   4.232   2.563
    1   AR   Ar   58   1.014   3.892   4.347
    1   AR   Ar   59   2.595   5.792   5.665
    1   AR   Ar   60   0.419   5.405   3.216
    1   AR   Ar   61   0.377   3.702   6.767
    1   AR   Ar   62   7.052   4.336   5.150
    1   AR   Ar   63   2.648   2.466   7.054
    1   AR   Ar   64   7.026   5.388   4.893
    1   AR   Ar   65   3.701   0.637   2.111
    1   AR   Ar   66   1.319   1.061   1.212
    1   AR   Ar   67   4.573   0.134  -0.525
    1   AR   Ar   68   0.574   0.922  -0.719
    1   AR   Ar   69   2.638   1.623   0.082
    1   AR   Ar   70   0.532   2.085   1.615
    1   AR   Ar   71   2.749   0.713   2.780
    1   AR   Ar   72   4.656   1.119   1.571
    1   AR   Ar   73   3.187   0.157   3.657
    1   AR   Ar   74   0.651   1.026   4.381
    1   AR   Ar   75   3.463   0.501   5.150
    1   AR   Ar   76   2.377   0.027   1.069
    1   AR   Ar   77   1.922   6.620   5.507
    1   AR   Ar   78   6.489   5.007   6.248
    1   AR   Ar   79   3.335   6.706   5.603
    1   AR   Ar   80   3.802   5.777   5.242
    1   AR   Ar   81   1.443   6.402   1.414
    1   AR   Ar   82   6.330   4.705   0.747
    1   AR   Ar   83   0.861   3.269   0.692
    1   AR   Ar   84   1.387   4.169   0.802
    1   AR   Ar   85   1.622   3.916  -0.324
    1   AR   Ar   86   1.766   5.482   0.826
    1   AR   Ar   87   2.898   3.726   2.363
    1   AR   Ar   88   3.484   5.180   1.386
    1   AR   Ar   89   6.320   2.008   0.933
    1   AR   Ar   90   3.266   1.446   5.302
    1   AR   Ar   91   2.029   1.466   3.218
    1   AR   Ar   92   1.821   3.064   1.502
    1   AR   Ar   93   1.857   1.041   6.135
    1   AR   Ar   94   1.528   6.379   9.332
    1   AR   Ar   95   4.291   1.469   5.116
    1   AR   Ar   96   2.629   6.941   4.480
    1   AR   Ar   97   3.319   2.198  -0.658
    1   AR   Ar   98   1.942   4.288   4.038
    1   AR   Ar   99   5.666   0.596  -0.757
    1   AR   Ar  100   0.391   3.292  -2.728
    1   AR   Ar  101   4.001   6.274   2.371
    1   AR   Ar  102   3.566   1.568   3.244
    1   AR   Ar  103   2.419   4.112   1.001
    1   AR   Ar  104   3.875   5.449  -1.508
    1   AR   Ar  105   2.841   2.069   3.661
    1   AR   Ar  106   3.506   2.635   5.339
    1   AR   Ar  107   0.978   5.116   5.209
    1   AR   Ar  108   2.445   1.079   4.893
    1   AR   Ar  109   1.573   3.988   5.317
    1   AR   Ar  110   2.200   2.119   4.869
    1   AR   Ar  111   4.257   6.075   8.081
    1   AR   Ar  112   0.258   5.924   6.002
    1   AR   Ar  113   2.157   5.140  -1.035
    1   AR   Ar  114   2.393   0.009  -0.276
    1   AR   Ar  115   1.707   5.027  -0.172
    1   AR   Ar  116   4.768   0.166   0.834
    1   AR   Ar  117   0.617   4.816   4.100
    1   AR   Ar  118   1.482   5.969   3.393
    1   AR   Ar  119   2.061   4.148   2.996
    1   AR   Ar  120   1.717   6.790   2.628
    1   AR   Ar  121   5.502   4.622   5.498
    1   AR   Ar  122   3.019   5.656   3.966
    1   AR   Ar  123   2.763   3.444   5.533
    1   AR   Ar  124   0.724   5.293   1.398
    1   AR   Ar  125   5.994   3.403   5.077
    1   AR   Ar  126   6.961   0.741   7.219
    1   AR   Ar  127   4.348   3.216   6.014
    1   AR   Ar  128   2.658   4.407   7.112
    1   AR   Ar  129   1.970   5.113   4.788
    1   AR   Ar  130   4.128   1.816  -5.060
    1   AR   Ar  131   4.258   4.670  -2.011
    1   AR   Ar  132   0.405   1.569   0.576
    1   AR   Ar  133   4.178   0.395   4.433
    1   AR   Ar  134   3.544   1.110   4.197
    1   AR   Ar  135   5.836   1.521   3.865
    1   AR   Ar  136   5.983   0.224   2.776
    1   AR   Ar  137   3.305   4.354   6.082
    1   AR   Ar  138   5.698   1.480   5.588
    1   AR   Ar  139   6.036   2.422   5.629
    1   AR   Ar  140   4.673   6.465   4.720
    1   AR   Ar  141   4.188   5.629   4.247
    1   AR   Ar  142   4.997   0.304   7.411
    1   AR   Ar  143   5.772   6.776   6.927
    1   AR   Ar  144   6.724   1.348   4.579
    1   AR   Ar  145   4.344   5.020  -0.578
    1   AR   Ar  146   3.317   2.588   2.825
    1   AR   Ar  147   5.287   3.846  -0.857
    1   AR   Ar  148   3.012   6.357  -1.453
    1   AR   Ar  149   1.712   1.162   0.017
    1   AR   Ar  150   2.286   2.563   2.572
    1   AR   Ar  151   2.592   3.111   3.388
    1   AR   Ar  152   0.889   2.164  -2.279
    1   AR   Ar  153   5.252   0.536   3.682
    1   AR   Ar  154   4.666   2.113   4.376
    1   AR   Ar  155   6.477   3.830   5.925
    1   AR   Ar  156   2.931   4.725   3.298
    1   AR   Ar  157   2.002   5.547   6.737
    1   AR   Ar  158   0.319   1.631   5.520
    1   AR   Ar  159   4.102   0.367   6.743
    1   AR   Ar  160   1.379   1.485   4.995
    1   AR   Ar  161   4.788   4.369   3.103
    1   AR   Ar  162   4.041   6.077  -0.383
    1   AR   Ar  163   6.013   4.242   1.611
    1   AR   Ar  164   1.985   5.766   2.119
    1   AR   Ar  165   3.491   4.142   1.411
    1   AR   Ar  166   2.694   3.705   4.423
    1   AR   Ar  167   6.483   6.747   3.459
    1   AR   Ar  168   5.360   3.961  -2.039
    1   AR   Ar  169   3.956   3.525   3.354
    1   AR   Ar  170   1.818   3.371   6.333
    1   AR   Ar  171   5.540   4.947   4.287
    1   AR   Ar  172   3.831   3.584   4.702
    1   AR   Ar  173   2.461   2.175   5.965
    1   AR   Ar  174   3.594   6.535   4.614
    1   AR   Ar  175   3.171   0.576   6.074
    1   AR   Ar  176   3.591   2.814   4.138
    1   AR   Ar  177   0.844   4.813  -0.917
    1   AR   Ar  178   2.782   6.324   0.151
    1   AR   Ar  179   3.508   0.038   1.239
    1   AR   Ar  180   5.196   1.341  -6.723
    1   AR   Ar  181   6.819   5.559   1.534
    1   AR   Ar  182   0.704   6.166   2.278
    1   AR   Ar  183   4.891   5.478   1.795
    1   AR   Ar  184   4.602   6.324   0.562
    1   AR   Ar  185   3.219   4.623   4.646
    1   AR   Ar  186   3.088   6.002   2.873
    1   AR   Ar  187   3.968   6.680   3.562
    1   AR   Ar  188   2.689   6.924   2.189
    1   AR   Ar  189   5.470   3.072   6.449
    1   AR   Ar  190   2.504   6.428   3.613
    1   AR   Ar  191   3.692   6.054   7.166
    1   AR   Ar  192   4.383   4.558   5.949
    1   AR   Ar  193   2.721   6.172   1.357
    1   AR   Ar  194   5.676   5.052  -0.992
    1   AR   Ar  195   5.422   1.327   0.642
    1   AR   Ar  196   3.375   0.670  -0.268
    1   AR   Ar  197   4.856   2.139   0.948
    1   AR   Ar  198   5.758   7.068   1.651
    1   AR   Ar  199   1.811   0.286   3.765
    1   AR   Ar  200   5.113   3.155  -0.102
    1   AR   Ar  201   6.776   6.668   2.148
    1   AR   Ar  202   5.402   0.968   4.714
    1   AR   Ar  203   0.381   6.551   3.180
    1   AR   Ar  204   4.701   5.747   7.065
    1   AR   Ar  205   5.853   2.046   1.832
    1   AR   Ar  206   5.828   0.531   6.142
    1   AR   Ar  207   6.955   3.086   4.825
    1   AR   Ar  208   1.274   6.065   4.376
    1   AR   Ar  209   0.009   2.702  -2.031
    1   AR   Ar  210   1.337   0.067   0.101
    1   AR   Ar  211   7.117   2.714   0.953
    1   AR   Ar  212   6.055   3.718  -0.051
    1   AR   Ar  213   3.751   1.900   2.137
    1   AR   Ar  214   4.833   4.448   1.925
    1   AR   Ar  215   6.734   2.651   2.155
    1   AR   Ar  216   1.493   1.918   0.699
    1   AR   Ar  217   4.684   1.521   3.505
    1   AR   Ar  218   4.825   3.214   4.923
    1   AR   Ar  219   5.025   3.264   3.142
    1   AR   Ar  220   4.815   3.647   1.102
    1   AR   Ar  221   6.903   5.982   3.975
    1   AR   Ar  222   4.730   0.525   5.590
    1   AR   Ar  223   6.618   1.589   6.449
    1   AR   Ar  224   4.843   2.333   5.525
    1   AR   Ar  225   6.398   2.954   3.160
    1   AR   Ar  226   1.394   3.142   3.294
    1   AR   Ar  227   0.465   3.291   2.587
    1   AR   Ar  228   6.261   1.016   1.705
    1   AR   Ar  229   6.719   4.323  -1.226
    1   AR   Ar  230   4.051   4.536   4.030
    1   AR   Ar  231   4.629   2.080   2.546
    1   AR   Ar  232   5.252   2.924   1.984
    1   AR   Ar  233   6.654   2.496   4.020
    1   AR   Ar  234   5.542   2.781   4.279
    1   AR   Ar  235   0.176   0.461   3.418
    1   AR   Ar  236   4.857   5.493   5.069
    1   AR   Ar  237   4.604   2.177   6.463
    1   AR   Ar  238   5.786   5.712   7.016
    1   AR   Ar  239   1.042   4.700  10.069
    1   AR   Ar  240   1.699   2.251   6.602
    1   AR   Ar  241   1.907   6.150  -0.559
    1   AR   Ar  242   5.842   6.047   1.468
    1   AR   Ar  243   5.001   6.319   2.603
    1   AR   Ar  244   0.128   5.445   0.518
    1   AR   Ar  245   4.111   0.620   3.365
    1   AR   Ar  246   5.503   6.403  -0.472
    1   AR   Ar  247   7.088   3.531   1.639
    1   AR   Ar  248   4.970   5.458   0.170
    1   AR   Ar  249   4.697   6.642   1.603
    1   AR   Ar  250   5.332   6.478   3.493
    1   AR   Ar  251   4.444   4.360   4.958
    1   AR   Ar  252   2.700   4.802   1.890
    1   AR   Ar  253   6.153   2.282   7.002
    1   AR   Ar  254   5.514   2.525   9.813
    1   AR   Ar  255   4.110   5.533   9.351
    1   AR   Ar  256   5.957   5.591   3.395
    7.12000  7.12000 12.00000
Argon-slab step 4765
  256
    1   AR   Ar    1   5.144   2.927  -2.724
    1   AR   Ar    2   5.742   6.611   0.627
    1   AR   Ar    3   4.265   3.359  -1.227
    1   AR   Ar    4   2.369   1.162   1.026
    1   AR   Ar    5   6.134   5.490  -0.047
    1   AR   Ar    6   1.395   1.846   2.277
    1   AR   Ar    7   5.787   4.305   3.340
    1   AR   Ar    8   6.235   2.921  -1.589
    1   AR   Ar    9   0.556   7.005   4.455
    1   AR   Ar   10   6.041   5.751   5.191
    1   AR   Ar   11   1.411   0.289   4.954
    1   AR   Ar   12   7.105   1.683   3.615
    1   AR   Ar   13   6.467   0.366   4.208
    1   AR   Ar   14   3.674   1.528   6.366
    1   AR   Ar   15   3.313   0.140   9.472
    1   AR   Ar   16   0.714   0.209   6.003
    1   AR   Ar   17   5.603   2.910   0.931
    1   AR   Ar   18   6.784   5.541  -0.893
    1   AR   Ar   19   5.167   4.380   0.360
    1   AR   Ar   20   6.341   3.779  -2.952
    1   AR   Ar   21   2.687   1.627   2.174
    1   AR   Ar   22   5.384   1.351   2.521
    1   AR   Ar   23   0.244   6.465   1.221
    1   AR   Ar   24   5.503   2.198   3.241
    1   AR   Ar   25   0.449   2.120   4.550
    1   AR   Ar   26   5.725   6.999   4.601
    1   AR   Ar   27   1.891   0.577   1.991
    1   AR   Ar   28   1.768   2.361   3.794
    1   AR   Ar   29   4.625   1.267   7.323
    1   AR   Ar   30   0.780   1.232   2.892
    1   AR   Ar   31   3.245   0.894   7.181
    1   AR   Ar   32   1.164   2.680   5.641
    1   AR   Ar   33   0.497   4.347   0.034
    1   AR   Ar   34   1.142   5.073   2.428
    1   AR   Ar   35   6.089   5.412   2.359
    1   AR   Ar   36   5.966   2.123  -2.430
    1   AR   Ar   37   4.012   3.027   2.152
    1   AR   Ar   38   6.316   4.075   4.333
    1   AR   Ar   39   0.223   3.324   3.513
    1   AR   Ar   40   1.639   4.322   1.782
    1   AR   Ar   41   0.498   2.212   2.788
    1   AR   Ar   42   5.125   6.433   5.907
    1   AR   Ar   43   7.094   2.653   6.200
    1   AR   Ar   44   1.012   4.179   3.195
    1   AR   Ar   45   0.564   3.669   5.549
    1   AR   Ar   46   0.401   4.658   6.342
    1   AR   Ar   47   4.175   4.374   7.627
    1   AR   Ar   48   6.482   3.524   7.485
    1   AR   Ar   49   6.750   0.339  -0.611
    1   AR   Ar   50   3.849   5.246   0.289
    1   AR   Ar   51   5.944   3.582   2.430
    1   AR   Ar   52   5.174   2.981  -1.498
    1   AR   Ar   53   5.008   0.354   2.588
    1   AR   Ar   54   0.477   0.349   2.249
    1   AR   Ar   55   6.869   4.102   2.970
    1   AR   Ar   56   6.590   1.811   2.640
    1   AR   Ar   57   3.845   4.241   2.541
    1   AR   Ar   58   0.997   3.913   4.345
    1   AR   Ar   59   2.585   5.774   5.652
    1   AR   Ar   60   0.418   5.423   3.214
    1   AR   Ar   61   0.395   3.700   6.763
    1   AR   Ar   62   7.086   4.336   5.146
    1   AR   Ar   63   2.641   2.472   7.041
    1   AR   Ar   64   7.013   5.392   4.929
    1   AR   Ar   65   3.686   0.613   2.077
    1   AR   Ar   66   1.335   1.064   1.209
    1   AR   Ar   67   4.585   0.116  -0.515
    1   AR   Ar   68   0.610   0.943  -0.734
    1   AR   Ar   69   2.597   1.609   0.105
    1   AR   Ar   70   0.520   2.095   1.616
    1   AR   Ar   71   2.755   0.701   2.788
    1   AR   Ar   72   4.682   1.088   1.576
    1   AR   Ar   73   3.199   0.132   3.705
    1   AR   Ar   74   0.642   1.004   4.370
    1   AR   Ar   75   3.455   0.477   5.126
    1   AR   Ar   76   2.396   0.024   1.093
    1   AR   Ar   77   1.936   6.568   5.537
    1   AR   Ar   78   6.479   5.014   6.235
    1   AR   Ar   79   3.361   6.720   5.627
    1   AR   Ar   80   3.800   5.776   5.264
    1   AR   Ar   81   1.429   6.424   1.389
    1   AR   Ar   82   6.343   4.730   0.752
    1   AR   Ar   83   0.852   3.277   0.690
    1   AR   Ar   84   1.376   4.163   0.803
    1   AR   Ar   85   1.612   3.940  -0.323
    1   AR   Ar   86   1.741   5.500   0.831
    1   AR   Ar   87   2.897   3.716   2.396
    1   AR   Ar   88   3.478   5.185   1.378
    1   AR   Ar   89   6.331   2.015   0.922
    1   AR   Ar   90   3.232   1.476   5.321
    1   AR   Ar   91   2.043   1.464   3.249
    1   AR   Ar   92   1.834   3.039   1.485
    1   AR   Ar   93   1.865   1.071   6.123
    1   AR   Ar   94   1.541   6.409   9.315
    1   AR   Ar   95   4.269   1.471   5.119
    1   AR   Ar   96   2.612   6.956   4.502
    1   AR   Ar   97   3.293   2.217  -0.687
    1   AR   Ar   98   1.948   4.298   4.013
    1   AR   Ar   99   5.668   0.596  -0.766
    1   AR   Ar  100   0.402   3.298  -2.736
    1   AR   Ar  101   3.991   6.282   2.353
    1   AR   Ar  102   3.577   1.588   3.247
    1   AR   Ar  103   2.384   4.117   0.988
    1   AR   Ar  104   3.875   5.490  -1.485
    1   AR   Ar  105   2.830   2.082   3.654
    1   AR   Ar  106   3.519   2.624   5.319
    1   AR   Ar  107   0.961   5.161   5.262
    1   AR   Ar  108   2.430   1.056   4.890
    1   AR   Ar  109   1.575   3.994   5.339
    1   AR   Ar  110   2.175   2.099   4.888
    1   AR   Ar  111   4.236   6.043   8.081
    1   AR   Ar  112   0.276   5.914   6.018
    1   AR   Ar  113   2.140   5.152  -1.048
    1   AR   Ar  114   2.390   0.025  -0.270
    1   AR   Ar  115   1.658   5.046  -0.169
    1   AR   Ar  116   4.770   0.162   0.812
    1   AR   Ar  117   0.629   4.808   4.087
    1   AR   Ar  118   1.491   5.946   3.382
    1   AR   Ar  119   2.020   4.136   3.003
    1   AR   Ar  120   1.710   6.805   2.611
    1   AR   Ar  121   5.495   4.598   5.482
    1   AR   Ar  122   2.995   5.645   3.958
    1   AR   Ar  123   2.812   3.459   5.534
    1   AR   Ar  124   0.716   5.270   1.406
    1   AR   Ar  125   6.003   3.385   5.063
    1   AR   Ar  126   6.918   0.749   7.231
    1   AR   Ar  127   4.358   3.242   5.990
    1   AR   Ar  128   2.642   4.413   7.095
    1   AR   Ar  129   1.936   5.061   4.780
    1   AR   Ar  130   4.114   1.847  -5.077
    1   AR   Ar  131   4.249   4.696  -2.035
    1   AR   Ar  132   0.405   1.587   0.562
    1   AR   Ar  133   4.174   0.378   4.433
    1   AR   Ar  134   3.527   1.094   4.192
    1   AR   Ar  135   5.846   1.514   3.885
    1   AR   Ar  136   5.969   0.219   2.774
    1   AR   Ar  137   3.268   4.351   6.103
    1   AR   Ar  138   5.676   1.486   5.598
    1   AR   Ar  139   6.010   2.424   5.608
    1   AR   Ar  140   4.665   6.469   4.745
    1   AR   Ar  141   4.178   5.648   4.240
    1   AR   Ar  142   4.975   0.288   7.401
    1   AR   Ar  143   5.751   6.747   6.922
    1   AR   Ar  144   6.768   1.330   4.615
    1   AR   Ar  145   4.363   5.022  -0.608
    1   AR   Ar  146   3.346   2.564   2.833
    1   AR   Ar  147   5.289   3.854  -0.866
    1   AR   Ar  148   2.989   6.351  -1.441
    1   AR   Ar  149   1.655   1.141  -0.025
    1   AR   Ar  150   2.286   2.566   2.592
    1   AR   Ar  151   2.599   3.116   3.409
    1   AR   Ar  152   0.888   2.143  -2.284
    1   AR   Ar  153   5.287   0.553   3.661
    1   AR   Ar  154   4.687   2.137   4.368
    1   AR   Ar  155   6.476   3.837   5.925
    1   AR   Ar  156   2.943   4.690   3.313
    1   AR   Ar  157   2.000   5.556   6.740
    1   AR   Ar  158   0.325   1.610   5.539
    1   AR   Ar  159   4.119   0.368   6.741
    1   AR   Ar  160   1.386   1.478   5.004
    1   AR   Ar  161   4.759   4.348   3.078
    1   AR   Ar  162   4.060   6.071  -0.384
    1   AR   Ar  163   5.990   4.261   1.650
    1   AR   Ar  164   2.018   5.771   2.108
    1   AR   Ar  165   3.462   4.174   1.394
    1   AR   Ar  166   2.724   3.685   4.440
    1   AR   Ar  167   6.494   6.709   3.455
    1   AR   Ar  168   5.369   3.983  -2.033
    1   AR   Ar  169   3.928   3.510   3.356
    1   AR   Ar  170   1.854   3.378   6.325
    1   AR   Ar  171   5.532   4.929   4.269
    1   AR   Ar  172   3.818   3.587   4.691
    1   AR   Ar  173   2.465   2.173   5.956
    1   AR   Ar  174   3.597   6.547   4.597
    1   AR   Ar  175   3.183   0.539   6.109
    1   AR   Ar  176   3.577   2.831   4.123
    1   AR   Ar  177   0.844   4.802  -0.901
    1   AR   Ar  178   2.769   6.311   0.171
    1   AR   Ar  179   3.522   0.040   1.243
    1   AR   Ar  180   5.243   1.308  -6.706
    1   AR   Ar  181   6.818   5.597   1.518
    1   AR   Ar  182   0.713   6.135   2.275
    1   AR   Ar  183   4.879   5.480   1.788
    1   AR   Ar  184   4.584   6.310   0.554
    1   AR   Ar  185   3.224   4.602   4.651
    1   AR   Ar  186   3.109   5.998   2.861
    1   AR   Ar  187   3.969   6.675   3.565
    1   AR   Ar  188   2.713   6.895   2.145
    1   AR   Ar  189   5.502   3.050   6.450
    1   AR   Ar  190   2.486   6.450   3.637
    1   AR   Ar  191   3.679   6.047   7.153
    1   AR   Ar  192   4.372   4.533   5.931
    1   AR   Ar  193   2.730   6.152   1.373
    1   AR   Ar  194   5.710   5.035  -0.999
    1   AR   Ar  195   5.440   1.334   0.638
    1   AR   Ar  196   3.388   0.691  -0.249
    1   AR   Ar  197   4.858   2.170   0.913
    1   AR   Ar  198   5.776   7.034   1.677
    1   AR   Ar  199   1.834   0.264   3.734
    1   AR   Ar  200   5.130   3.134  -0.106
    1   AR   Ar  201   6.753   6.649   2.119
    1   AR   Ar  202   5.404   0.966   4.684
    1   AR   Ar  203   0.364   6.538   3.188
    1   AR   Ar  204   4.702   5.757   7.051
    1   AR   Ar  205   5.853   2.040   1.844
    1   AR   Ar  206   5.832   0.553   6.136
    1   AR   Ar  207   6.926   3.083   4.844
    1   AR   Ar  208   1.278   6.059   4.374
    1   AR   Ar  209   0.040   2.690  -2.004
    1   AR   Ar  210   1.316   0.059   0.121
    1   AR   Ar  211   7.092   2.754   0.914
    1   AR   Ar  212   6.023   3.750  -0.040
    1   AR   Ar  213   3.735   1.912   2.111
    1   AR   Ar  214   4.835   4.450   1.916
    1   AR   Ar  215   6.755   2.662   2.172
    1   AR   Ar  216   1.483   1.943   0.722
    1   AR   Ar  217   4.691   1.489   3.487
    1   AR   Ar  218   4.800   3.225   4.979
    1   AR   Ar  219   4.992   3.294   3.117
    1   AR   Ar  220   4.818   3.669   1.104
    1   AR   Ar  221   6.896   5.982   3.964
    1   AR   Ar  222   4.715   0.545   5.597
    1   AR   Ar  223   6.614   1.595   6.470
    1   AR   Ar  224   4.888   2.341   5.517
    1   AR   Ar  225   6.398   2.960   3.121
    1   AR   Ar  226   1.374   3.147   3.315
    1   AR   Ar  227   0.485   3.280   2.562
    1   AR   Ar  228   6.264   1.037   1.708
    1   AR   Ar  229   6.662   4.323  -1.214
    1   AR   Ar  230   4.052   4.584   4.047
    1   AR   Ar  231   4.644   2.063   2.540
    1   AR   Ar  232   5.245   2.926   1.994
    1   AR   Ar  233   6.654   2.512   3.996
    1   AR   Ar  234   5.558   2.772   4.284
    1   AR   Ar  235   0.158   0.456   3.411
    1   AR   Ar  236   4.846   5.487   5.091
    1   AR   Ar  237   4.621   2.182   6.465
    1   AR   Ar  238   5.766   5.694   7.020
    1   AR   Ar  239   1.075   4.699  10.062
    1   AR   Ar  240   1.669   2.273   6.613
    1   AR   Ar  241   1.890   6.172  -0.528
    1   AR   Ar  242   5.860   6.059   1.434
    1   AR   Ar  243   5.021   6.329   2.559
    1   AR   Ar  244   0.144   5.435   0.484
    1   AR   Ar  245   4.092   0.622   3.406
    1   AR   Ar  246   5.512   6.402  -0.472
    1   AR   Ar  247   7.115   3.547   1.651
    1   AR   Ar  248   5.000   5.448   0.153
    1   AR   Ar  249   4.691   6.646   1.599
    1   AR   Ar  250   5.358   6.523   3.498
    1   AR   Ar  251   4.494   4.380   4.920
    1   AR   Ar  252   2.722   4.816   1.890
    1   AR   Ar  253   6.144   2.269   7.035
    1   AR   Ar  254   5.553   2.563   9.817
    1   AR   Ar  255   4.087   5.559   9.354
    1   AR   Ar  256   5.926   5.587   3.402
    7.12000  7.12000 12.00000
Argon-slab step 4770
  256
    1   AR   Ar    1   5.144   2.922  -2.701
    1   AR   Ar    2   5.773   6.595   0.624
    1   AR   Ar    3   4.274   3.367  -1.219
    1   AR   Ar    4   2.354   1.167   1.057
    1   AR   Ar    5   6.144   5.473  -0.021
    1   AR   Ar    6   1.393   1.861   2.289
    1   AR   Ar    7   5.779   4.325   3.334
    1   AR   Ar    8   6.231   2.908  -1.606
    1   AR   Ar    9   0.576   7.010   4.480
    1   AR   Ar   10   6.026   5.716   5.185
    1   AR   Ar   11   1.458   0.283   4.958
    1   AR   Ar   12   0.008   1.718   3.617
    1   AR   Ar   13   6.507   0.367   4.218
    1   AR   Ar   14   3.675   1.540   6.349
    1   AR   Ar   15   3.310   0.176   9.506
    1   AR   Ar   16   0.730   0.205   6.003
    1   AR   Ar   17   5.613   2.907   0.927
    1   AR   Ar   18   6.794   5.532  -0.918
    1   AR   Ar   19   5.189   4.384   0.369
    1   AR   Ar   20   6.340   3.764  -2.974
    1   AR   Ar   21   2.709   1.604   2.178
    1   AR   Ar   22   5.401   1.356   2.537
    1   AR   Ar   23   0.262   6.498   1.267
    1   AR   Ar   24   5.514   2.218   3.258
    1   AR   Ar   25   0.432   2.142   4.544
    1   AR   Ar   26   5.713   7.008   4.630
    1   AR   Ar   27   1.884   0.542   1.983
    1   AR   Ar   28   1.758   2.354   3.801
    1   AR   Ar   29   4.609   1.244   7.318
    1   AR   Ar   30   0.749   1.237   2.912
    1   AR   Ar   31   3.214   0.900   7.167
    1   AR   Ar   32   1.167   2.683   5.632
    1   AR   Ar   33   0.476   4.349   0.053
    1   AR   Ar   34   1.136   5.063   2.434
    1   AR   Ar   35   6.093   5.427   2.375
    1   AR   Ar   36   5.955   2.098  -2.435
    1   AR   Ar   37   4.021   3.030   2.153
    1   AR   Ar   38   6.273   4.089   4.340
    1   AR   Ar   39   0.225   3.319   3.532
    1   AR   Ar   40   1.630   4.284   1.789
    1   AR   Ar   41   0.487   2.234   2.803
    1   AR   Ar   42   5.105   6.413   5.886
    1   AR   Ar   43   7.094   2.651   6.190
    1   AR   Ar   44   1.006   4.159   3.188
    1   AR   Ar   45   0.547   3.667   5.541
    1   AR   Ar   46   0.402   4.668   6.367
    1   AR   Ar   47   4.173   4.383   7.633
    1   AR   Ar   48   6.504   3.520   7.451
    1   AR   Ar   49   6.754   0.381  -0.607
    1   AR   Ar   50   3.843   5.262   0.333
    1   AR   Ar   51   5.947   3.589   2.462
    1   AR   Ar   52   5.202   2.988  -1.488
    1   AR   Ar   53   4.980   0.379   2.568
    1   AR   Ar   54   0.476   0.332   2.246
    1   AR   Ar   55   6.852   4.122   2.989
    1   AR   Ar   56   6.584   1.789   2.646
    1   AR   Ar   57   3.844   4.251   2.516
    1   AR   Ar   58   0.976   3.930   4.345
    1   AR   Ar   59   2.580   5.752   5.638
    1   AR   Ar   60   0.418   5.443   3.210
    1   AR   Ar   61   0.398   3.691   6.746
    1   AR   Ar   62   7.113   4.344   5.137
    1   AR   Ar   63   2.642   2.489   7.012
    1   AR   Ar   64   7.021   5.380   4.933
    1   AR   Ar   65   3.674   0.585   2.049
    1   AR   Ar   66   1.346   1.062   1.208
    1   AR   Ar   67   4.597   0.096  -0.503
    1   AR   Ar   68   0.646   0.963  -0.749
    1   AR   Ar   69   2.559   1.598   0.126
    1   AR   Ar   70   0.508   2.104   1.618
    1   AR   Ar   71   2.762   0.689   2.798
    1   AR   Ar   72   4.693   1.076   1.571
    1   AR   Ar   73   3.200   0.118   3.752
    1   AR   Ar   74   0.634   0.982   4.358
    1   AR   Ar   75   3.450   0.488   5.128
    1   AR   Ar   76   2.413   0.022   1.117
    1   AR   Ar   77   1.946   6.520   5.564
    1   AR   Ar   78   6.470   5.020   6.220
    1   AR   Ar   79   3.385   6.728   5.656
    1   AR   Ar   80   3.799   5.771   5.289
    1   AR   Ar   81   1.416   6.447   1.365
    1   AR   Ar   82   6.357   4.756   0.756
    1   AR   Ar   83   0.844   3.284   0.688
    1   AR   Ar   84   1.360   4.161   0.797
    1   AR   Ar   85   1.600   3.966  -0.321
    1   AR   Ar   86   1.716   5.519   0.839
    1   AR   Ar   87   2.896   3.704   2.429
    1   AR   Ar   88   3.481   5.204   1.364
    1   AR   Ar   89   6.342   2.020   0.908
    1   AR   Ar   90   3.201   1.514   5.344
    1   AR   Ar   91   2.056   1.461   3.278
    1   AR   Ar   92   1.847   3.015   1.469
    1   AR   Ar   93   1.874   1.103   6.108
    1   AR   Ar   94   1.555   6.439   9.298
    1   AR   Ar   95   4.244   1.474   5.131
    1   AR   Ar   96   2.591   6.975   4.535
    1   AR   Ar   97   3.267   2.236  -0.714
    1   AR   Ar   98   1.954   4.311   3.991
    1   AR   Ar   99   5.671   0.598  -0.774
    1   AR   Ar  100   0.392   3.317  -2.754
    1   AR   Ar  101   3.991   6.285   2.344
    1   AR   Ar  102   3.598   1.601   3.241
    1   AR   Ar  103   2.355   4.121   0.977
    1   AR   Ar  104   3.873   5.537  -1.458
    1   AR   Ar  105   2.810   2.099   3.654
    1   AR   Ar  106   3.533   2.613   5.299
    1   AR   Ar  107   0.941   5.205   5.315
    1   AR   Ar  108   2.388   1.008   4.872
    1   AR   Ar  109   1.579   4.001   5.360
    1   AR   Ar  110   2.157   2.087   4.904
    1   AR   Ar  111   4.217   6.012   8.082
    1   AR   Ar  112   0.293   5.903   6.034
    1   AR   Ar  113   2.120   5.195  -1.050
    1   AR   Ar  114   2.383   0.040  -0.271
    1   AR   Ar  115   1.604   5.063  -0.158
    1   AR   Ar  116   4.775   0.169   0.787
    1   AR   Ar  117   0.654   4.818   4.070
    1   AR   Ar  118   1.499   5.921   3.363
    1   AR   Ar  119   1.984   4.122   3.003
    1   AR   Ar  120   1.702   6.819   2.595
    1   AR   Ar  121   5.488   4.575   5.464
    1   AR   Ar  122   2.976   5.628   3.954
    1   AR   Ar  123   2.861   3.474   5.535
    1   AR   Ar  124   0.711   5.247   1.414
    1   AR   Ar  125   6.001   3.368   5.054
    1   AR   Ar  126   6.875   0.757   7.241
    1   AR   Ar  127   4.367   3.267   5.966
    1   AR   Ar  128   2.625   4.419   7.076
    1   AR   Ar  129   1.924   5.047   4.789
    1   AR   Ar  130   4.101   1.878  -5.095
    1   AR   Ar  131   4.242   4.719  -2.059
    1   AR   Ar  132   0.405   1.606   0.550
    1   AR   Ar  133   4.185   0.355   4.437
    1   AR   Ar  134   3.502   1.086   4.188
    1   AR   Ar  135   5.845   1.505   3.895
    1   AR   Ar  136   5.976   0.222   2.760
    1   AR   Ar  137   3.230   4.346   6.123
    1   AR   Ar  138   5.694   1.475   5.575
    1   AR   Ar  139   5.989   2.436   5.588
    1   AR   Ar  140   4.660   6.469   4.762
    1   AR   Ar  141   4.165   5.666   4.231
    1   AR   Ar  142   4.955   0.268   7.391
    1   AR   Ar  143   5.730   6.722   6.916
    1   AR   Ar  144   6.808   1.314   4.651
    1   AR   Ar  145   4.385   5.022  -0.641
    1   AR   Ar  146   3.375   2.544   2.844
    1   AR   Ar  147   5.291   3.871  -0.892
    1   AR   Ar  148   2.977   6.367  -1.462
    1   AR   Ar  149   1.596   1.117  -0.065
    1   AR   Ar  150   2.282   2.567   2.609
    1   AR   Ar  151   2.606   3.126   3.436
    1   AR   Ar  152   0.889   2.120  -2.289
    1   AR   Ar  153   5.321   0.569   3.640
    1   AR   Ar  154   4.687   2.184   4.361
    1   AR   Ar  155   6.479   3.829   5.911
    1   AR   Ar  156   2.916   4.741   3.294
    1   AR   Ar  157   2.000   5.564   6.741
    1   AR   Ar  158   0.331   1.589   5.557
    1   AR   Ar  159   4.136   0.370   6.737
    1   AR   Ar  160   1.394   1.454   5.005
    1   AR   Ar  161   4.740   4.359   3.065
    1   AR   Ar  162   4.079   6.066  -0.387
    1   AR   Ar  163   5.966   4.282   1.688
    1   AR   Ar  164   2.051   5.775   2.098
    1   AR   Ar  165   3.433   4.197   1.379
    1   AR   Ar  166   2.754   3.660   4.457
    1   AR   Ar  167   6.496   6.681   3.444
    1   AR   Ar  168   5.378   4.004  -2.026
    1   AR   Ar  169   3.898   3.495   3.358
    1   AR   Ar  170   1.890   3.383   6.316
    1   AR   Ar  171   5.484   4.919   4.259
    1   AR   Ar  172   3.806   3.600   4.688
    1   AR   Ar  173   2.478   2.153   5.945
    1   AR   Ar  174   3.559   6.560   4.595
    1   AR   Ar  175   3.195   0.536   6.133
    1   AR   Ar  176   3.558   2.835   4.100
    1   AR   Ar  177   0.844   4.792  -0.886
    1   AR   Ar  178   2.759   6.293   0.196
    1   AR   Ar  179   3.535   0.037   1.243
    1   AR   Ar  180   5.290   1.276  -6.689
    1   AR   Ar  181   6.816   5.632   1.503
    1   AR   Ar  182   0.723   6.103   2.270
    1   AR   Ar  183   4.867   5.488   1.781
    1   AR   Ar  184   4.564   6.293   0.545
    1   AR   Ar  185   3.226   4.583   4.659
    1   AR   Ar  186   3.128   5.994   2.849
    1   AR   Ar  187   3.983   6.660   3.567
    1   AR   Ar  188   2.745   6.866   2.097
    1   AR   Ar  189   5.533   3.027   6.448
    1   AR   Ar  190   2.460   6.474   3.651
    1   AR   Ar  191   3.663   6.040   7.139
    1   AR   Ar  192   4.361   4.509   5.918
    1   AR   Ar  193   2.741   6.128   1.386
    1   AR   Ar  194   5.744   5.017  -1.004
    1   AR   Ar  195   5.459   1.339   0.635
    1   AR   Ar  196   3.400   0.711  -0.230
    1   AR   Ar  197   4.858   2.202   0.881
    1   AR   Ar  198   5.793   7.008   1.705
    1   AR   Ar  199   1.858   0.243   3.703
    1   AR   Ar  200   5.145   3.111  -0.106
    1   AR   Ar  201   6.740   6.635   2.090
    1   AR   Ar  202   5.403   0.962   4.655
    1   AR   Ar  203   0.352   6.525   3.197
    1   AR   Ar  204   4.702   5.768   7.037
    1   AR   Ar  205   5.850   2.036   1.858
    1   AR   Ar  206   5.837   0.572   6.132
    1   AR   Ar  207   6.909   3.080   4.863
    1   AR   Ar  208   1.279   6.054   4.378
    1   AR   Ar  209   0.069   2.674  -1.973
    1   AR   Ar  210   1.296   0.051   0.142
    1   AR   Ar  211   7.065   2.794   0.875
    1   AR   Ar  212   5.992   3.783  -0.028
    1   AR   Ar  213   3.715   1.919   2.081
    1   AR   Ar  214   4.836   4.448   1.909
    1   AR   Ar  215   6.778   2.682   2.181
    1   AR   Ar  216   1.474   1.975   0.744
    1   AR   Ar  217   4.700   1.458   3.469
    1   AR   Ar  218   4.776   3.238   5.031
    1   AR   Ar  219   4.961   3.322   3.091
    1   AR   Ar  220   4.821   3.691   1.109
    1   AR   Ar  221   6.894   5.970   3.962
    1   AR   Ar  222   4.699   0.564   5.604
    1   AR   Ar  223   6.616   1.569   6.504
    1   AR   Ar  224   4.922   2.336   5.504
    1   AR   Ar  225   6.396   2.965   3.089
    1   AR   Ar  226   1.351   3.158   3.331
    1   AR   Ar  227   0.509   3.270   2.528
    1   AR   Ar  228   6.265   1.057   1.712
    1   AR   Ar  229   6.604   4.324  -1.201
    1   AR   Ar  230   4.050   4.621   4.051
    1   AR   Ar  231   4.661   2.052   2.535
    1   AR   Ar  232   5.234   2.927   2.005
    1   AR   Ar  233   6.651   2.528   3.978
    1   AR   Ar  234   5.575   2.762   4.287
    1   AR   Ar  235   0.139   0.454   3.406
    1   AR   Ar  236   4.837   5.477   5.115
    1   AR   Ar  237   4.640   2.173   6.461
    1   AR   Ar  238   5.752   5.668   7.024
    1   AR   Ar  239   1.108   4.697  10.055
    1   AR   Ar  240   1.634   2.296   6.625
    1   AR   Ar  241   1.872   6.193  -0.496
    1   AR   Ar  242   5.877   6.057   1.410
    1   AR   Ar  243   5.045   6.338   2.510
    1   AR   Ar  244   0.150   5.439   0.484
    1   AR   Ar  245   4.077   0.624   3.441
    1   AR   Ar  246   5.520   6.401  -0.470
    1   AR   Ar  247   0.020   3.565   1.662
    1   AR   Ar  248   5.034   5.437   0.135
    1   AR   Ar  249   4.685   6.648   1.599
    1   AR   Ar  250   5.386   6.572   3.511
    1   AR   Ar  251   4.551   4.399   4.885
    1   AR   Ar  252   2.733   4.826   1.897
    1   AR   Ar  253   6.131   2.264   7.073
    1   AR   Ar  254   5.592   2.602   9.821
    1   AR   Ar  255   4.064   5.586   9.355
    1   AR   Ar  256   5.921   5.580   3.404
    7.12000  7.12000 12.00000
Argon-slab step 4775
  256
    1   AR   Ar    1   5.145   2.918  -2.675
    1   AR   Ar    2   5.800   6.589   0.606
    1   AR   Ar    3   4.277   3.385  -1.208
    1   AR   Ar    4   2.343   1.170   1.091
    1   AR   Ar    5   6.152   5.458   0.005
    1   AR   Ar    6   1.394   1.876   2.300
    1   AR   Ar    7   5.777   4.341   3.338
    1   AR   Ar    8   6.227   2.895  -1.624
    1   AR   Ar    9   0.575   7.011   4.484
    1   AR   Ar   10   6.008   5.679   5.179
    1   AR   Ar   11   1.506   0.279   4.963
    1   AR   Ar   12   0.034   1.745   3.618
    1   AR   Ar   13   6.553   0.372   4.225
    1   AR   Ar   14   3.678   1.552   6.331
    1   AR   Ar   15   3.307   0.211   9.539
    1   AR   Ar   16   0.746   0.201   6.002
    1   AR   Ar   17   5.627   2.908   0.925
    1   AR   Ar   18   6.803   5.521  -0.944
    1   AR   Ar   19   5.210   4.389   0.377
    1   AR   Ar   20   6.339   3.749  -2.994
    1   AR   Ar   21   2.728   1.582   2.190
    1   AR   Ar   22   5.424   1.355   2.555
    1   AR   Ar   23   0.259   6.506   1.296
    1   AR   Ar   24   5.525   2.243   3.270
    1   AR   Ar   25   0.415   2.164   4.539
    1   AR   Ar   26   5.694   7.013   4.661
    1   AR   Ar   27   1.880   0.509   1.975
    1   AR   Ar   28   1.749   2.326   3.812
    1   AR   Ar   29   4.592   1.225   7.311
    1   AR   Ar   30   0.705   1.233   2.933
    1   AR   Ar   31   3.185   0.908   7.153
    1   AR   Ar   32   1.171   2.685   5.622
    1   AR   Ar   33   0.455   4.351   0.073
    1   AR   Ar   34   1.131   5.053   2.442
    1   AR   Ar   35   6.097   5.442   2.386
    1   AR   Ar   36   5.944   2.074  -2.440
    1   AR   Ar   37   4.025   3.025   2.144
    1   AR   Ar   38   6.231   4.105   4.345
    1   AR   Ar   39   0.227   3.313   3.556
    1   AR   Ar   40   1.623   4.246   1.801
    1   AR   Ar   41   0.474   2.261   2.818
    1   AR   Ar   42   5.086   6.393   5.864
    1   AR   Ar   43   7.113   2.668   6.181
    1   AR   Ar   44   0.988   4.142   3.184
    1   AR   Ar   45   0.538   3.651   5.540
    1   AR   Ar   46   0.402   4.681   6.387
    1   AR   Ar   47   4.170   4.391   7.638
    1   AR   Ar   48   6.526   3.515   7.416
    1   AR   Ar   49   6.759   0.423  -0.602
    1   AR   Ar   50   3.838   5.288   0.384
    1   AR   Ar   51   5.947   3.600   2.491
    1   AR   Ar   52   5.229   2.992  -1.480
    1   AR   Ar   53   4.944   0.403   2.547
    1   AR   Ar   54   0.475   0.314   2.244
    1   AR   Ar   55   6.835   4.142   3.007
    1   AR   Ar   56   6.578   1.798   2.645
    1   AR   Ar   57   3.840   4.260   2.489
    1   AR   Ar   58   0.968   3.936   4.338
    1   AR   Ar   59   2.581   5.722   5.625
    1   AR   Ar   60   0.418   5.462   3.205
    1   AR   Ar   61   0.392   3.675   6.720
    1   AR   Ar   62   0.010   4.361   5.120
    1   AR   Ar   63   2.646   2.502   6.988
    1   AR   Ar   64   7.030   5.408   4.945
    1   AR   Ar   65   3.664   0.565   2.033
    1   AR   Ar   66   1.348   1.057   1.209
    1   AR   Ar   67   4.611   0.075  -0.489
    1   AR   Ar   68   0.672   0.980  -0.762
    1   AR   Ar   69   2.523   1.588   0.143
    1   AR   Ar   70   0.496   2.114   1.620
    1   AR   Ar   71   2.769   0.676   2.808
    1   AR   Ar   72   4.683   1.096   1.553
    1   AR   Ar   73   3.195   0.112   3.799
    1   AR   Ar   74   0.628   0.959   4.343
    1   AR   Ar   75   3.442   0.502   5.126
    1   AR   Ar   76   2.429   0.021   1.137
    1   AR   Ar   77   1.951   6.480   5.590
    1   AR   Ar   78   6.459   5.027   6.203
    1   AR   Ar   79   3.409   6.728   5.686
    1   AR   Ar   80   3.797   5.764   5.315
    1   AR   Ar   81   1.399   6.461   1.349
    1   AR   Ar   82   6.352   4.756   0.760
    1   AR   Ar   83   0.837   3.287   0.685
    1   AR   Ar   84   1.338   4.166   0.786
    1   AR   Ar   85   1.587   3.992  -0.318
    1   AR   Ar   86   1.691   5.537   0.848
    1   AR   Ar   87   2.894   3.692   2.462
    1   AR   Ar   88   3.492   5.235   1.346
    1   AR   Ar   89   6.353   2.022   0.893
    1   AR   Ar   90   3.168   1.555   5.369
    1   AR   Ar   91   2.068   1.455   3.303
    1   AR   Ar   92   1.859   2.991   1.453
    1   AR   Ar   93   1.884   1.136   6.091
    1   AR   Ar   94   1.568   6.470   9.282
    1   AR   Ar   95   4.203   1.490   5.180
    1   AR   Ar   96   2.565   6.998   4.580
    1   AR   Ar   97   3.241   2.254  -0.741
    1   AR   Ar   98   1.950   4.312   3.985
    1   AR   Ar   99   5.680   0.603  -0.772
    1   AR   Ar  100   0.368   3.334  -2.782
    1   AR   Ar  101   3.999   6.284   2.340
    1   AR   Ar  102   3.625   1.609   3.231
    1   AR   Ar  103   2.334   4.126   0.967
    1   AR   Ar  104   3.869   5.585  -1.430
    1   AR   Ar  105   2.788   2.119   3.658
    1   AR   Ar  106   3.549   2.602   5.278
    1   AR   Ar  107   0.921   5.248   5.367
    1   AR   Ar  108   2.347   0.957   4.851
    1   AR   Ar  109   1.584   4.008   5.380
    1   AR   Ar  110   2.146   2.081   4.918
    1   AR   Ar  111   4.183   6.011   8.069
    1   AR   Ar  112   0.310   5.889   6.048
    1   AR   Ar  113   2.098   5.246  -1.051
    1   AR   Ar  114   2.375   0.052  -0.275
    1   AR   Ar  115   1.548   5.080  -0.142
    1   AR   Ar  116   4.782   0.182   0.760
    1   AR   Ar  117   0.648   4.840   4.028
    1   AR   Ar  118   1.508   5.897   3.339
    1   AR   Ar  119   1.959   4.105   2.992
    1   AR   Ar  120   1.693   6.828   2.581
    1   AR   Ar  121   5.482   4.552   5.446
    1   AR   Ar  122   2.962   5.608   3.953
    1   AR   Ar  123   2.910   3.489   5.536
    1   AR   Ar  124   0.709   5.225   1.423
    1   AR   Ar  125   5.993   3.381   5.049
    1   AR   Ar  126   6.865   0.758   7.235
    1   AR   Ar  127   4.373   3.292   5.947
    1   AR   Ar  128   2.609   4.426   7.056
    1   AR   Ar  129   1.927   5.060   4.809
    1   AR   Ar  130   4.088   1.909  -5.114
    1   AR   Ar  131   4.237   4.739  -2.084
    1   AR   Ar  132   0.406   1.625   0.539
    1   AR   Ar  133   4.206   0.326   4.442
    1   AR   Ar  134   3.471   1.085   4.189
    1   AR   Ar  135   5.842   1.494   3.907
    1   AR   Ar  136   5.970   0.203   2.755
    1   AR   Ar  137   3.193   4.342   6.142
    1   AR   Ar  138   5.692   1.470   5.559
    1   AR   Ar  139   5.973   2.455   5.569
    1   AR   Ar  140   4.653   6.468   4.781
    1   AR   Ar  141   4.152   5.686   4.221
    1   AR   Ar  142   4.938   0.243   7.383
    1   AR   Ar  143   5.707   6.700   6.908
    1   AR   Ar  144   6.845   1.302   4.689
    1   AR   Ar  145   4.408   5.020  -0.674
    1   AR   Ar  146   3.402   2.530   2.858
    1   AR   Ar  147   5.299   3.885  -0.901
    1   AR   Ar  148   2.965   6.381  -1.481
    1   AR   Ar  149   1.536   1.093  -0.104
    1   AR   Ar  150   2.276   2.565   2.625
    1   AR   Ar  151   2.614   3.142   3.464
    1   AR   Ar  152   0.894   2.095  -2.297
    1   AR   Ar  153   5.356   0.583   3.618
    1   AR   Ar  154   4.672   2.245   4.353
    1   AR   Ar  155   6.456   3.830   5.879
    1   AR   Ar  156   2.889   4.791   3.274
    1   AR   Ar  157   2.000   5.572   6.741
    1   AR   Ar  158   0.337   1.568   5.576
    1   AR   Ar  159   4.150   0.373   6.730
    1   AR   Ar  160   1.400   1.412   5.004
    1   AR   Ar  161   4.721   4.373   3.053
    1   AR   Ar  162   4.099   6.062  -0.392
    1   AR   Ar  163   5.941   4.306   1.723
    1   AR   Ar  164   2.080   5.779   2.090
    1   AR   Ar  165   3.406   4.210   1.364
    1   AR   Ar  166   2.782   3.632   4.470
    1   AR   Ar  167   6.485   6.664   3.425
    1   AR   Ar  168   5.388   4.024  -2.019
    1   AR   Ar  169   3.869   3.483   3.358
    1   AR   Ar  170   1.926   3.387   6.306
    1   AR   Ar  171   5.435   4.910   4.251
    1   AR   Ar  172   3.796   3.621   4.691
    1   AR   Ar  173   2.492   2.133   5.934
    1   AR   Ar  174   3.524   6.573   4.591
    1   AR   Ar  175   3.202   0.561   6.135
    1   AR   Ar  176   3.547   2.839   4.081
    1   AR   Ar  177   0.843   4.781  -0.871
    1   AR   Ar  178   2.750   6.272   0.224
    1   AR   Ar  179   3.548   0.025   1.233
    1   AR   Ar  180   5.336   1.243  -6.672
    1   AR   Ar  181   6.816   5.664   1.489
    1   AR   Ar  182   0.734   6.071   2.262
    1   AR   Ar  183   4.856   5.501   1.773
    1   AR   Ar  184   4.543   6.275   0.538
    1   AR   Ar  185   3.223   4.567   4.659
    1   AR   Ar  186   3.141   5.989   2.840
    1   AR   Ar  187   4.006   6.636   3.567
    1   AR   Ar  188   2.779   6.842   2.056
    1   AR   Ar  189   5.565   3.003   6.445
    1   AR   Ar  190   2.431   6.497   3.658
    1   AR   Ar  191   3.645   6.034   7.124
    1   AR   Ar  192   4.350   4.486   5.906
    1   AR   Ar  193   2.753   6.100   1.392
    1   AR   Ar  194   5.773   5.003  -1.011
    1   AR   Ar  195   5.480   1.343   0.633
    1   AR   Ar  196   3.411   0.731  -0.210
    1   AR   Ar  197   4.855   2.232   0.850
    1   AR   Ar  198   5.806   6.992   1.737
    1   AR   Ar  199   1.882   0.223   3.673
    1   AR   Ar  200   5.158   3.087  -0.106
    1   AR   Ar  201   6.772   6.648   2.064
    1   AR   Ar  202   5.398   0.955   4.630
    1   AR   Ar  203   0.346   6.513   3.204
    1   AR   Ar  204   4.701   5.779   7.023
    1   AR   Ar  205   5.847   2.035   1.872
    1   AR   Ar  206   5.840   0.590   6.128
    1   AR   Ar  207   6.906   3.074   4.882
    1   AR   Ar  208   1.280   6.048   4.387
    1   AR   Ar  209   0.096   2.659  -1.939
    1   AR   Ar  210   1.278   0.042   0.164
    1   AR   Ar  211   7.037   2.832   0.838
    1   AR   Ar  212   5.964   3.817  -0.016
    1   AR   Ar  213   3.698   1.923   2.048
    1   AR   Ar  214   4.838   4.441   1.903
    1   AR   Ar  215   6.803   2.704   2.181
    1   AR   Ar  216   1.465   2.011   0.763
    1   AR   Ar  217   4.711   1.429   3.451
    1   AR   Ar  218   4.756   3.255   5.074
    1   AR   Ar  219   4.933   3.346   3.064
    1   AR   Ar  220   4.825   3.710   1.115
    1   AR   Ar  221   6.900   5.945   3.969
    1   AR   Ar  222   4.684   0.583   5.609
    1   AR   Ar  223   6.622   1.539   6.532
    1   AR   Ar  224   4.937   2.311   5.488
    1   AR   Ar  225   6.396   2.965   3.097
    1   AR   Ar  226   1.326   3.174   3.344
    1   AR   Ar  227   0.537   3.262   2.495
    1   AR   Ar  228   6.266   1.076   1.717
    1   AR   Ar  229   6.545   4.324  -1.186
    1   AR   Ar  230   4.040   4.620   4.038
    1   AR   Ar  231   4.676   2.047   2.531
    1   AR   Ar  232   5.228   2.927   2.012
    1   AR   Ar  233   6.644   2.546   3.967
    1   AR   Ar  234   5.594   2.752   4.288
    1   AR   Ar  235   0.119   0.452   3.401
    1   AR   Ar  236   4.831   5.464   5.140
    1   AR   Ar  237   4.659   2.139   6.439
    1   AR   Ar  238   5.740   5.640   7.028
    1   AR   Ar  239   1.104   4.694  10.093
    1   AR   Ar  240   1.597   2.319   6.636
    1   AR   Ar  241   1.855   6.213  -0.463
    1   AR   Ar  242   5.892   6.037   1.399
    1   AR   Ar  243   5.075   6.345   2.464
    1   AR   Ar  244   0.155   5.442   0.484
    1   AR   Ar  245   4.063   0.624   3.467
    1   AR   Ar  246   5.528   6.398  -0.467
    1   AR   Ar  247   0.044   3.586   1.670
    1   AR   Ar  248   5.069   5.427   0.116
    1   AR   Ar  249   4.679   6.649   1.596
    1   AR   Ar  250   5.415   6.623   3.525
    1   AR   Ar  251   4.613   4.417   4.854
    1   AR   Ar  252   2.734   4.831   1.912
    1   AR   Ar  253   6.115   2.264   7.112
    1   AR   Ar  254   5.631   2.641   9.824
    1   AR   Ar  255   4.041   5.613   9.356
    1   AR   Ar  256   5.934   5.573   3.413
    7.12000  7.12000 12.00000
Argon-slab step 4780
  256
    1   AR   Ar    1   5.148   2.915  -2.648
    1   AR   Ar    2   5.823   6.592   0.576
    1   AR   Ar    3   4.265   3.433  -1.195
    1   AR   Ar    4   2.339   1.173   1.128
    1   AR   Ar    5   6.156   5.450   0.001
    1   AR   Ar    6   1.396   1.891   2.310
    1   AR   Ar    7   5.772   4.371   3.368
    1   AR   Ar    8   6.228   2.884  -1.643
    1   AR   Ar    9   0.530   7.010   4.479
    1   AR   Ar   10   5.986   5.642   5.173
    1   AR   Ar   11   1.554   0.273   4.968
    1   AR   Ar   12   0.049   1.764   3.586
    1   AR   Ar   13   6.598   0.377   4.230
    1   AR   Ar   14   3.682   1.563   6.314
    1   AR   Ar   15   3.304   0.246   9.573
    1   AR   Ar   16   0.764   0.198   5.999
    1   AR   Ar   17   5.645   2.912   0.923
    1   AR   Ar   18   6.812   5.509  -0.968
    1   AR   Ar   19   5.229   4.397   0.386
    1   AR   Ar   20   6.339   3.733  -3.002
    1   AR   Ar   21   2.742   1.559   2.202
    1   AR   Ar   22   5.452   1.349   2.575
    1   AR   Ar   23   0.230   6.475   1.291
    1   AR   Ar   24   5.533   2.273   3.278
    1   AR   Ar   25   0.400   2.186   4.536
    1   AR   Ar   26   5.685   7.019   4.658
    1   AR   Ar   27   1.879   0.481   1.965
    1   AR   Ar   28   1.745   2.300   3.823
    1   AR   Ar   29   4.572   1.210   7.302
    1   AR   Ar   30   0.662   1.226   2.952
    1   AR   Ar   31   3.198   0.932   7.184
    1   AR   Ar   32   1.175   2.687   5.613
    1   AR   Ar   33   0.435   4.354   0.095
    1   AR   Ar   34   1.103   5.048   2.431
    1   AR   Ar   35   6.101   5.457   2.393
    1   AR   Ar   36   5.934   2.053  -2.443
    1   AR   Ar   37   4.032   3.022   2.135
    1   AR   Ar   38   6.191   4.123   4.347
    1   AR   Ar   39   0.230   3.306   3.582
    1   AR   Ar   40   1.617   4.209   1.818
    1   AR   Ar   41   0.462   2.291   2.831
    1   AR   Ar   42   5.066   6.373   5.842
    1   AR   Ar   43   0.012   2.685   6.170
    1   AR   Ar   44   0.957   4.130   3.181
    1   AR   Ar   45   0.536   3.625   5.547
    1   AR   Ar   46   0.402   4.697   6.404
    1   AR   Ar   47   4.167   4.401   7.643
    1   AR   Ar   48   6.549   3.509   7.379
    1   AR   Ar   49   6.765   0.464  -0.597
    1   AR   Ar   50   3.837   5.315   0.429
    1   AR   Ar   51   5.942   3.616   2.517
    1   AR   Ar   52   5.251   2.995  -1.473
    1   AR   Ar   53   4.905   0.424   2.525
    1   AR   Ar   54   0.474   0.295   2.243
    1   AR   Ar   55   6.819   4.161   3.025
    1   AR   Ar   56   6.571   1.803   2.648
    1   AR   Ar   57   3.833   4.269   2.460
    1   AR   Ar   58   0.975   3.935   4.318
    1   AR   Ar   59   2.591   5.683   5.611
    1   AR   Ar   60   0.418   5.479   3.197
    1   AR   Ar   61   0.384   3.656   6.693
    1   AR   Ar   62   0.021   4.386   5.097
    1   AR   Ar   63   2.660   2.502   6.981
    1   AR   Ar   64   7.039   5.438   4.955
    1   AR   Ar   65   3.656   0.553   2.031
    1   AR   Ar   66   1.350   1.051   1.209
    1   AR   Ar   67   4.625   0.052  -0.474
    1   AR   Ar   68   0.654   0.984  -0.779
    1   AR   Ar   69   2.487   1.578   0.158
    1   AR   Ar   70   0.484   2.125   1.623
    1   AR   Ar   71   2.776   0.661   2.819
    1   AR   Ar   72   4.673   1.115   1.535
    1   AR   Ar   73   3.187   0.111   3.842
    1   AR   Ar   74   0.626   0.936   4.325
    1   AR   Ar   75   3.432   0.518   5.121
    1   AR   Ar   76   2.441   0.021   1.152
    1   AR   Ar   77   1.948   6.451   5.613
    1   AR   Ar   78   6.449   5.033   6.184
    1   AR   Ar   79   3.432   6.725   5.717
    1   AR   Ar   80   3.795   5.757   5.340
    1   AR   Ar   81   1.381   6.471   1.341
    1   AR   Ar   82   6.335   4.737   0.766
    1   AR   Ar   83   0.831   3.286   0.682
    1   AR   Ar   84   1.311   4.178   0.771
    1   AR   Ar   85   1.573   4.019  -0.314
    1   AR   Ar   86   1.668   5.555   0.859
    1   AR   Ar   87   2.892   3.679   2.497
    1   AR   Ar   88   3.506   5.275   1.332
    1   AR   Ar   89   6.362   2.023   0.879
    1   AR   Ar   90   3.134   1.594   5.390
    1   AR   Ar   91   2.078   1.443   3.323
    1   AR   Ar   92   1.869   2.968   1.437
    1   AR   Ar   93   1.895   1.170   6.071
    1   AR   Ar   94   1.582   6.500   9.265
    1   AR   Ar   95   4.165   1.505   5.228
    1   AR   Ar   96   2.532   7.023   4.631
    1   AR   Ar   97   3.215   2.271  -0.768
    1   AR   Ar   98   1.940   4.305   3.993
    1   AR   Ar   99   5.688   0.608  -0.770
    1   AR   Ar  100   0.343   3.350  -2.810
    1   AR   Ar  101   4.007   6.285   2.335
    1   AR   Ar  102   3.654   1.610   3.220
    1   AR   Ar  103   2.320   4.131   0.960
    1   AR   Ar  104   3.864   5.635  -1.402
    1   AR   Ar  105   2.769   2.138   3.666
    1   AR   Ar  106   3.566   2.591   5.256
    1   AR   Ar  107   0.904   5.285   5.408
    1   AR   Ar  108   2.310   0.905   4.831
    1   AR   Ar  109   1.589   4.016   5.399
    1   AR   Ar  110   2.142   2.081   4.929
    1   AR   Ar  111   4.150   6.010   8.056
    1   AR   Ar  112   0.325   5.874   6.061
    1   AR   Ar  113   2.078   5.298  -1.053
    1   AR   Ar  114   2.366   0.067  -0.279
    1   AR   Ar  115   1.492   5.098  -0.122
    1   AR   Ar  116   4.790   0.198   0.732
    1   AR   Ar  117   0.639   4.868   3.986
    1   AR   Ar  118   1.516   5.872   3.311
    1   AR   Ar  119   1.946   4.086   2.971
    1   AR   Ar  120   1.685   6.843   2.560
    1   AR   Ar  121   5.480   4.529   5.428
    1   AR   Ar  122   2.950   5.589   3.954
    1   AR   Ar  123   2.958   3.503   5.537
    1   AR   Ar  124   0.708   5.203   1.432
    1   AR   Ar  125   5.971   3.403   5.047
    1   AR   Ar  126   6.864   0.755   7.225
    1   AR   Ar  127   4.371   3.317   5.947
    1   AR   Ar  128   2.591   4.433   7.037
    1   AR   Ar  129   1.929   5.074   4.830
    1   AR   Ar  130   4.075   1.940  -5.132
    1   AR   Ar  131   4.233   4.759  -2.108
    1   AR   Ar  132   0.408   1.645   0.529
    1   AR   Ar  133   4.232   0.295   4.450
    1   AR   Ar  134   3.436   1.088   4.194
    1   AR   Ar  135   5.847   1.487   3.916
    1   AR   Ar  136   5.956   0.171   2.757
    1   AR   Ar  137   3.158   4.339   6.160
    1   AR   Ar  138   5.669   1.472   5.552
    1   AR   Ar  139   5.964   2.479   5.551
    1   AR   Ar  140   4.646   6.469   4.799
    1   AR   Ar  141   4.137   5.706   4.212
    1   AR   Ar  142   4.927   0.213   7.378
    1   AR   Ar  143   5.683   6.680   6.898
    1   AR   Ar  144   6.875   1.293   4.727
    1   AR   Ar  145   4.432   5.017  -0.706
    1   AR   Ar  146   3.425   2.523   2.873
    1   AR   Ar  147   5.305   3.901  -0.896
    1   AR   Ar  148   2.954   6.395  -1.499
    1   AR   Ar  149   1.477   1.069  -0.140
    1   AR   Ar  150   2.269   2.562   2.641
    1   AR   Ar  151   2.622   3.162   3.493
    1   AR   Ar  152   0.901   2.069  -2.305
    1   AR   Ar  153   5.389   0.595   3.594
    1   AR   Ar  154   4.653   2.305   4.346
    1   AR   Ar  155   6.436   3.832   5.848
    1   AR   Ar  156   2.861   4.837   3.253
    1   AR   Ar  157   2.001   5.579   6.740
    1   AR   Ar  158   0.344   1.549   5.593
    1   AR   Ar  159   4.159   0.378   6.718
    1   AR   Ar  160   1.397   1.365   5.005
    1   AR   Ar  161   4.702   4.390   3.043
    1   AR   Ar  162   4.118   6.057  -0.400
    1   AR   Ar  163   5.915   4.332   1.755
    1   AR   Ar  164   2.105   5.782   2.087
    1   AR   Ar  165   3.380   4.217   1.351
    1   AR   Ar  166   2.803   3.602   4.480
    1   AR   Ar  167   6.466   6.656   3.403
    1   AR   Ar  168   5.397   4.042  -2.010
    1   AR   Ar  169   3.840   3.476   3.352
    1   AR   Ar  170   1.963   3.391   6.294
    1   AR   Ar  171   5.385   4.901   4.244
    1   AR   Ar  172   3.792   3.646   4.699
    1   AR   Ar  173   2.521   2.114   5.922
    1   AR   Ar  174   3.491   6.584   4.587
    1   AR   Ar  175   3.204   0.593   6.129
    1   AR   Ar  176   3.536   2.837   4.065
    1   AR   Ar  177   0.841   4.770  -0.858
    1   AR   Ar  178   2.741   6.250   0.254
    1   AR   Ar  179   3.559   0.030   1.219
    1   AR   Ar  180   5.383   1.211  -6.655
    1   AR   Ar  181   6.820   5.687   1.477
    1   AR   Ar  182   0.720   6.082   2.304
    1   AR   Ar  183   4.845   5.518   1.765
    1   AR   Ar  184   4.524   6.257   0.534
    1   AR   Ar  185   3.215   4.552   4.644
    1   AR   Ar  186   3.150   5.983   2.834
    1   AR   Ar  187   4.033   6.609   3.565
    1   AR   Ar  188   2.814   6.823   2.028
    1   AR   Ar  189   5.595   2.980   6.440
    1   AR   Ar  190   2.404   6.510   3.660
    1   AR   Ar  191   3.625   6.029   7.107
    1   AR   Ar  192   4.339   4.462   5.895
    1   AR   Ar  193   2.769   6.066   1.387
    1   AR   Ar  194   5.786   5.011  -1.033
    1   AR   Ar  195   5.501   1.345   0.634
    1   AR   Ar  196   3.421   0.750  -0.189
    1   AR   Ar  197   4.848   2.259   0.820
    1   AR   Ar  198   5.815   6.982   1.769
    1   AR   Ar  199   1.901   0.211   3.642
    1   AR   Ar  200   5.171   3.063  -0.105
    1   AR   Ar  201   6.798   6.661   2.049
    1   AR   Ar  202   5.388   0.945   4.612
    1   AR   Ar  203   0.348   6.503   3.210
    1   AR   Ar  204   4.698   5.792   7.008
    1   AR   Ar  205   5.842   2.040   1.884
    1   AR   Ar  206   5.843   0.606   6.127
    1   AR   Ar  207   6.917   3.065   4.899
    1   AR   Ar  208   1.281   6.043   4.397
    1   AR   Ar  209   0.121   2.645  -1.905
    1   AR   Ar  210   1.260   0.033   0.187
    1   AR   Ar  211   7.014   2.859   0.813
    1   AR   Ar  212   5.942   3.849  -0.006
    1   AR   Ar  213   3.685   1.926   2.013
    1   AR   Ar  214   4.839   4.433   1.900
    1   AR   Ar  215   6.825   2.717   2.186
    1   AR   Ar  216   1.458   2.049   0.783
    1   AR   Ar  217   4.726   1.406   3.435
    1   AR   Ar  218   4.746   3.275   5.095
    1   AR   Ar  219   4.907   3.366   3.036
    1   AR   Ar  220   4.828   3.725   1.121
    1   AR   Ar  221   6.909   5.912   3.983
    1   AR   Ar  222   4.668   0.602   5.614
    1   AR   Ar  223   6.627   1.509   6.555
    1   AR   Ar  224   4.951   2.285   5.464
    1   AR   Ar  225   6.397   2.962   3.107
    1   AR   Ar  226   1.302   3.188   3.355
    1   AR   Ar  227   0.571   3.255   2.467
    1   AR   Ar  228   6.267   1.093   1.723
    1   AR   Ar  229   6.489   4.322  -1.172
    1   AR   Ar  230   4.030   4.619   4.016
    1   AR   Ar  231   4.648   2.055   2.559
    1   AR   Ar  232   5.246   2.925   2.007
    1   AR   Ar  233   6.635   2.563   3.966
    1   AR   Ar  234   5.615   2.741   4.288
    1   AR   Ar  235   0.099   0.450   3.396
    1   AR   Ar  236   4.827   5.449   5.165
    1   AR   Ar  237   4.676   2.104   6.425
    1   AR   Ar  238   5.732   5.608   7.030
    1   AR   Ar  239   1.100   4.690  10.130
    1   AR   Ar  240   1.560   2.342   6.645
    1   AR   Ar  241   1.837   6.232  -0.430
    1   AR   Ar  242   5.899   6.004   1.400
    1   AR   Ar  243   5.111   6.352   2.427
    1   AR   Ar  244   0.159   5.445   0.483
    1   AR   Ar  245   4.052   0.620   3.484
    1   AR   Ar  246   5.534   6.395  -0.463
    1   AR   Ar  247   0.064   3.611   1.670
    1   AR   Ar  248   5.103   5.418   0.095
    1   AR   Ar  249   4.671   6.653   1.586
    1   AR   Ar  250   5.441   6.673   3.540
    1   AR   Ar  251   4.675   4.431   4.826
    1   AR   Ar  252   2.727   4.836   1.932
    1   AR   Ar  253   6.098   2.267   7.152
    1   AR   Ar  254   5.670   2.679   9.828
    1   AR   Ar  255   4.018   5.640   9.356
    1   AR   Ar  256   5.947   5.566   3.426
    7.12000  7.12000 12.00000
Argon-slab step 4785
  256
    1   AR   Ar    1   5.153   2.912  -2.618
    1   AR   Ar    2   5.845   6.599   0.541
    1   AR   Ar    3   4.254   3.482  -1.182
    1   AR   Ar    4   2.343   1.175   1.168
    1   AR   Ar    5   6.158   5.448  -0.022
    1   AR   Ar    6   1.398   1.905   2.321
    1   AR   Ar    7   5.766   4.400   3.395
    1   AR   Ar    8   6.235   2.872  -1.663
    1   AR   Ar    9   0.481   7.008   4.477
    1   AR   Ar   10   5.963   5.604   5.167
    1   AR   Ar   11   1.591   0.259   4.974
    1   AR   Ar   12   0.056   1.775   3.554
    1   AR   Ar   13   6.640   0.381   4.236
    1   AR   Ar   14   3.687   1.575   6.297
    1   AR   Ar   15   3.302   0.281   9.606
    1   AR   Ar   16   0.783   0.195   5.995
    1   AR   Ar   17   5.668   2.919   0.923
    1   AR   Ar   18   6.821   5.495  -0.991
    1   AR   Ar   19   5.239   4.412   0.400
    1   AR   Ar   20   6.342   3.720  -2.962
    1   AR   Ar   21   2.750   1.535   2.217
    1   AR   Ar   22   5.482   1.340   2.599
    1   AR   Ar   23   0.222   6.454   1.268
    1   AR   Ar   24   5.541   2.304   3.283
    1   AR   Ar   25   0.387   2.207   4.535
    1   AR   Ar   26   5.685   7.024   4.632
    1   AR   Ar   27   1.882   0.463   1.949
    1   AR   Ar   28   1.758   2.285   3.826
    1   AR   Ar   29   4.551   1.199   7.291
    1   AR   Ar   30   0.625   1.218   2.967
    1   AR   Ar   31   3.212   0.957   7.215
    1   AR   Ar   32   1.179   2.689   5.603
    1   AR   Ar   33   0.416   4.357   0.118
    1   AR   Ar   34   1.081   5.054   2.436
    1   AR   Ar   35   6.105   5.473   2.395
    1   AR   Ar   36   5.923   2.034  -2.446
    1   AR   Ar   37   4.042   3.020   2.127
    1   AR   Ar   38   6.153   4.145   4.348
    1   AR   Ar   39   0.233   3.301   3.607
    1   AR   Ar   40   1.611   4.173   1.838
    1   AR   Ar   41   0.454   2.322   2.841
    1   AR   Ar   42   5.046   6.352   5.821
    1   AR   Ar   43   0.030   2.703   6.158
    1   AR   Ar   44   0.915   4.125   3.179
    1   AR   Ar   45   0.536   3.594   5.556
    1   AR   Ar   46   0.402   4.714   6.418
    1   AR   Ar   47   4.164   4.411   7.647
    1   AR   Ar   48   6.571   3.502   7.341
    1   AR   Ar   49   6.771   0.506  -0.592
    1   AR   Ar   50   3.844   5.343   0.455
    1   AR   Ar   51   5.932   3.637   2.539
    1   AR   Ar   52   5.253   3.003  -1.428
    1   AR   Ar   53   4.887   0.385   2.517
    1   AR   Ar   54   0.475   0.275   2.244
    1   AR   Ar   55   6.804   4.179   3.043
    1   AR   Ar   56   6.563   1.806   2.654
    1   AR   Ar   57   3.823   4.276   2.428
    1   AR   Ar   58   0.981   3.930   4.300
    1   AR   Ar   59   2.608   5.637   5.596
    1   AR   Ar   60   0.418   5.494   3.183
    1   AR   Ar   61   0.375   3.635   6.665
    1   AR   Ar   62   0.028   4.413   5.072
    1   AR   Ar   63   2.674   2.501   6.973
    1   AR   Ar   64   7.036   5.457   4.958
    1   AR   Ar   65   3.649   0.550   2.043
    1   AR   Ar   66   1.353   1.047   1.208
    1   AR   Ar   67   4.639   0.028  -0.457
    1   AR   Ar   68   0.632   0.987  -0.797
    1   AR   Ar   69   2.451   1.569   0.170
    1   AR   Ar   70   0.486   2.124   1.583
    1   AR   Ar   71   2.784   0.644   2.831
    1   AR   Ar   72   4.664   1.134   1.519
    1   AR   Ar   73   3.177   0.113   3.880
    1   AR   Ar   74   0.629   0.915   4.304
    1   AR   Ar   75   3.421   0.535   5.112
    1   AR   Ar   76   2.449   0.023   1.157
    1   AR   Ar   77   1.939   6.429   5.635
    1   AR   Ar   78   6.438   5.040   6.163
    1   AR   Ar   79   3.455   6.721   5.748
    1   AR   Ar   80   3.792   5.749   5.363
    1   AR   Ar   81   1.363   6.484   1.335
    1   AR   Ar   82   6.321   4.719   0.773
    1   AR   Ar   83   0.826   3.282   0.679
    1   AR   Ar   84   1.281   4.198   0.754
    1   AR   Ar   85   1.557   4.046  -0.309
    1   AR   Ar   86   1.645   5.571   0.870
    1   AR   Ar   87   2.890   3.665   2.531
    1   AR   Ar   88   3.517   5.316   1.335
    1   AR   Ar   89   6.370   2.021   0.867
    1   AR   Ar   90   3.106   1.619   5.399
    1   AR   Ar   91   2.077   1.447   3.333
    1   AR   Ar   92   1.879   2.946   1.421
    1   AR   Ar   93   1.906   1.205   6.050
    1   AR   Ar   94   1.596   6.530   9.249
    1   AR   Ar   95   4.129   1.521   5.274
    1   AR   Ar   96   2.498   7.044   4.686
    1   AR   Ar   97   3.188   2.288  -0.793
    1   AR   Ar   98   1.932   4.299   4.004
    1   AR   Ar   99   5.695   0.611  -0.767
    1   AR   Ar  100   0.317   3.366  -2.837
    1   AR   Ar  101   4.017   6.287   2.329
    1   AR   Ar  102   3.685   1.605   3.210
    1   AR   Ar  103   2.312   4.136   0.955
    1   AR   Ar  104   3.859   5.686  -1.375
    1   AR   Ar  105   2.756   2.155   3.676
    1   AR   Ar  106   3.584   2.581   5.233
    1   AR   Ar  107   0.902   5.305   5.407
    1   AR   Ar  108   2.288   0.864   4.808
    1   AR   Ar  109   1.594   4.024   5.416
    1   AR   Ar  110   2.143   2.083   4.933
    1   AR   Ar  111   4.119   6.009   8.044
    1   AR   Ar  112   0.339   5.859   6.076
    1   AR   Ar  113   2.057   5.351  -1.054
    1   AR   Ar  114   2.358   0.083  -0.280
    1   AR   Ar  115   1.438   5.118  -0.098
    1   AR   Ar  116   4.799   0.216   0.703
    1   AR   Ar  117   0.631   4.897   3.950
    1   AR   Ar  118   1.522   5.848   3.281
    1   AR   Ar  119   1.940   4.065   2.944
    1   AR   Ar  120   1.675   6.849   2.545
    1   AR   Ar  121   5.485   4.507   5.414
    1   AR   Ar  122   2.939   5.574   3.961
    1   AR   Ar  123   3.005   3.515   5.538
    1   AR   Ar  124   0.709   5.182   1.440
    1   AR   Ar  125   5.938   3.427   5.045
    1   AR   Ar  126   6.864   0.748   7.218
    1   AR   Ar  127   4.362   3.314   5.955
    1   AR   Ar  128   2.563   4.406   7.049
    1   AR   Ar  129   1.931   5.087   4.850
    1   AR   Ar  130   4.067   1.967  -5.139
    1   AR   Ar  131   4.229   4.779  -2.130
    1   AR   Ar  132   0.410   1.665   0.521
    1   AR   Ar  133   4.260   0.263   4.460
    1   AR   Ar  134   3.400   1.096   4.201
    1   AR   Ar  135   5.859   1.488   3.920
    1   AR   Ar  136   5.946   0.141   2.768
    1   AR   Ar  137   3.126   4.338   6.175
    1   AR   Ar  138   5.645   1.473   5.544
    1   AR   Ar  139   5.961   2.504   5.533
    1   AR   Ar  140   4.639   6.472   4.818
    1   AR   Ar  141   4.121   5.725   4.203
    1   AR   Ar  142   4.921   0.180   7.376
    1   AR   Ar  143   5.659   6.661   6.886
    1   AR   Ar  144   6.898   1.288   4.765
    1   AR   Ar  145   4.458   5.013  -0.737
    1   AR   Ar  146   3.444   2.527   2.888
    1   AR   Ar  147   5.303   3.925  -0.887
    1   AR   Ar  148   2.943   6.408  -1.516
    1   AR   Ar  149   1.422   1.046  -0.171
    1   AR   Ar  150   2.263   2.558   2.657
    1   AR   Ar  151   2.621   3.176   3.491
    1   AR   Ar  152   0.911   2.041  -2.315
    1   AR   Ar  153   5.422   0.605   3.569
    1   AR   Ar  154   4.631   2.363   4.339
    1   AR   Ar  155   6.448   3.836   5.835
    1   AR   Ar  156   2.833   4.878   3.227
    1   AR   Ar  157   2.024   5.554   6.733
    1   AR   Ar  158   0.353   1.531   5.612
    1   AR   Ar  159   4.163   0.383   6.700
    1   AR   Ar  160   1.385   1.319   5.008
    1   AR   Ar  161   4.692   4.397   3.054
    1   AR   Ar  162   4.136   6.052  -0.411
    1   AR   Ar  163   5.915   4.330   1.779
    1   AR   Ar  164   2.122   5.784   2.090
    1   AR   Ar  165   3.379   4.210   1.324
    1   AR   Ar  166   2.816   3.568   4.486
    1   AR   Ar  167   6.447   6.650   3.381
    1   AR   Ar  168   5.407   4.059  -2.001
    1   AR   Ar  169   3.812   3.476   3.339
    1   AR   Ar  170   2.000   3.393   6.281
    1   AR   Ar  171   5.339   4.897   4.235
    1   AR   Ar  172   3.797   3.673   4.711
    1   AR   Ar  173   2.544   2.107   5.922
    1   AR   Ar  174   3.463   6.589   4.586
    1   AR   Ar  175   3.204   0.626   6.127
    1   AR   Ar  176   3.539   2.828   4.060
    1   AR   Ar  177   0.836   4.757  -0.848
    1   AR   Ar  178   2.733   6.228   0.286
    1   AR   Ar  179   3.570   0.043   1.197
    1   AR   Ar  180   5.363   1.178  -6.658
    1   AR   Ar  181   6.828   5.691   1.471
    1   AR   Ar  182   0.706   6.093   2.341
    1   AR   Ar  183   4.834   5.536   1.755
    1   AR   Ar  184   4.506   6.240   0.534
    1   AR   Ar  185   3.203   4.543   4.632
    1   AR   Ar  186   3.153   5.976   2.831
    1   AR   Ar  187   4.061   6.581   3.564
    1   AR   Ar  188   2.853   6.810   2.015
    1   AR   Ar  189   5.625   2.956   6.435
    1   AR   Ar  190   2.385   6.507   3.662
    1   AR   Ar  191   3.605   6.024   7.088
    1   AR   Ar  192   4.328   4.438   5.881
    1   AR   Ar  193   2.782   6.038   1.372
    1   AR   Ar  194   5.790   5.025  -1.051
    1   AR   Ar  195   5.521   1.346   0.636
    1   AR   Ar  196   3.430   0.769  -0.168
    1   AR   Ar  197   4.839   2.284   0.792
    1   AR   Ar  198   5.819   6.976   1.797
    1   AR   Ar  199   1.913   0.215   3.612
    1   AR   Ar  200   5.183   3.040  -0.104
    1   AR   Ar  201   6.813   6.677   2.052
    1   AR   Ar  202   5.372   0.931   4.603
    1   AR   Ar  203   0.354   6.500   3.216
    1   AR   Ar  204   4.693   5.806   6.993
    1   AR   Ar  205   5.847   2.069   1.892
    1   AR   Ar  206   5.846   0.619   6.128
    1   AR   Ar  207   6.934   3.055   4.918
    1   AR   Ar  208   1.281   6.038   4.408
    1   AR   Ar  209   0.145   2.639  -1.900
    1   AR   Ar  210   1.251   0.021   0.206
    1   AR   Ar  211   7.023   2.846   0.828
    1   AR   Ar  212   5.931   3.875   0.001
    1   AR   Ar  213   3.688   1.905   1.994
    1   AR   Ar  214   4.842   4.453   1.921
    1   AR   Ar  215   6.826   2.713   2.203
    1   AR   Ar  216   1.450   2.087   0.803
    1   AR   Ar  217   4.744   1.388   3.420
    1   AR   Ar  218   4.749   3.294   5.087
    1   AR   Ar  219   4.883   3.381   3.006
    1   AR   Ar  220   4.832   3.736   1.127
    1   AR   Ar  221   6.929   5.895   3.972
    1   AR   Ar  222   4.653   0.619   5.619
    1   AR   Ar  223   6.632   1.482   6.572
    1   AR   Ar  224   4.961   2.259   5.433
    1   AR   Ar  225   6.398   2.959   3.114
    1   AR   Ar  226   1.282   3.197   3.367
    1   AR   Ar  227   0.612   3.252   2.446
    1   AR   Ar  228   6.268   1.107   1.729
    1   AR   Ar  229   6.439   4.312  -1.158
    1   AR   Ar  230   4.059   4.622   4.007
    1   AR   Ar  231   4.619   2.066   2.586
    1   AR   Ar  232   5.262   2.924   2.003
    1   AR   Ar  233   6.647   2.576   3.958
    1   AR   Ar  234   5.637   2.731   4.288
    1   AR   Ar  235   0.080   0.446   3.390
    1   AR   Ar  236   4.825   5.434   5.190
    1   AR   Ar  237   4.692   2.067   6.416
    1   AR   Ar  238   5.728   5.574   7.032
    1   AR   Ar  239   1.097   4.687  10.168
    1   AR   Ar  240   1.525   2.365   6.653
    1   AR   Ar  241   1.818   6.249  -0.395
    1   AR   Ar  242   5.893   5.968   1.405
    1   AR   Ar  243   5.155   6.357   2.400
    1   AR   Ar  244   0.163   5.447   0.481
    1   AR   Ar  245   4.042   0.613   3.493
    1   AR   Ar  246   5.539   6.391  -0.458
    1   AR   Ar  247   0.080   3.639   1.664
    1   AR   Ar  248   5.134   5.411   0.075
    1   AR   Ar  249   4.661   6.660   1.568
    1   AR   Ar  250   5.462   6.719   3.556
    1   AR   Ar  251   4.728   4.439   4.799
    1   AR   Ar  252   2.718   4.840   1.955
    1   AR   Ar  253   6.080   2.271   7.191
    1   AR   Ar  254   5.709   2.718   9.832
    1   AR   Ar  255   3.995   5.668   9.355
    1   AR   Ar  256   5.960   5.561   3.443
    7.12000  7.12000 12.00000
Argon-slab step 4790
  256
    1   AR   Ar    1   5.159   2.910  -2.587
    1   AR   Ar    2   5.866   6.607   0.508
    1   AR   Ar    3   4.245   3.532  -1.168
    1   AR   Ar    4   2.357   1.177   1.210
    1   AR   Ar    5   6.166   5.446  -0.048
    1   AR   Ar    6   1.400   1.920   2.331
    1   AR   Ar    7   5.761   4.428   3.416
    1   AR   Ar    8   6.246   2.861  -1.686
    1   AR   Ar    9   0.433   7.001   4.475
    1   AR   Ar   10   5.937   5.565   5.162
    1   AR   Ar   11   1.600   0.229   4.988
    1   AR   Ar   12   0.053   1.782   3.538
    1   AR   Ar   13   6.677   0.383   4.246
    1   AR   Ar   14   3.693   1.587   6.283
    1   AR   Ar   15   3.299   0.316   9.639
    1   AR   Ar   16   0.802   0.192   5.989
    1   AR   Ar   17   5.694   2.929   0.924
    1   AR   Ar   18   6.829   5.480  -1.012
    1   AR   Ar   19   5.239   4.436   0.420
    1   AR   Ar   20   6.344   3.706  -2.920
    1   AR   Ar   21   2.762   1.527   2.225
    1   AR   Ar   22   5.514   1.330   2.623
    1   AR   Ar   23   0.237   6.448   1.228
    1   AR   Ar   24   5.547   2.335   3.285
    1   AR   Ar   25   0.375   2.227   4.534
    1   AR   Ar   26   5.684   7.028   4.605
    1   AR   Ar   27   1.889   0.458   1.926
    1   AR   Ar   28   1.762   2.275   3.833
    1   AR   Ar   29   4.529   1.191   7.279
    1   AR   Ar   30   0.597   1.207   2.973
    1   AR   Ar   31   3.229   0.983   7.243
    1   AR   Ar   32   1.183   2.690   5.594
    1   AR   Ar   33   0.396   4.361   0.141
    1   AR   Ar   34   1.063   5.061   2.445
    1   AR   Ar   35   6.110   5.488   2.394
    1   AR   Ar   36   5.912   2.016  -2.448
    1   AR   Ar   37   4.053   3.019   2.120
    1   AR   Ar   38   6.119   4.169   4.349
    1   AR   Ar   39   0.237   3.296   3.631
    1   AR   Ar   40   1.604   4.136   1.858
    1   AR   Ar   41   0.451   2.356   2.846
    1   AR   Ar   42   5.027   6.332   5.801
    1   AR   Ar   43   0.047   2.721   6.143
    1   AR   Ar   44   0.867   4.126   3.176
    1   AR   Ar   45   0.536   3.563   5.567
    1   AR   Ar   46   0.401   4.732   6.430
    1   AR   Ar   47   4.149   4.433   7.647
    1   AR   Ar   48   6.592   3.492   7.321
    1   AR   Ar   49   6.779   0.548  -0.586
    1   AR   Ar   50   3.860   5.372   0.457
    1   AR   Ar   51   5.954   3.630   2.552
    1   AR   Ar   52   5.249   3.011  -1.382
    1   AR   Ar   53   4.868   0.346   2.509
    1   AR   Ar   54   0.477   0.255   2.246
    1   AR   Ar   55   6.790   4.195   3.060
    1   AR   Ar   56   6.554   1.805   2.662
    1   AR   Ar   57   3.812   4.283   2.396
    1   AR   Ar   58   0.985   3.921   4.283
    1   AR   Ar   59   2.629   5.588   5.581
    1   AR   Ar   60   0.416   5.505   3.162
    1   AR   Ar   61   0.366   3.614   6.637
    1   AR   Ar   62   0.035   4.438   5.046
    1   AR   Ar   63   2.687   2.501   6.963
    1   AR   Ar   64   7.012   5.459   4.950
    1   AR   Ar   65   3.643   0.554   2.066
    1   AR   Ar   66   1.346   1.044   1.205
    1   AR   Ar   67   4.655   0.003  -0.438
    1   AR   Ar   68   0.605   0.990  -0.820
    1   AR   Ar   69   2.414   1.560   0.180
    1   AR   Ar   70   0.477   2.098   1.577
    1   AR   Ar   71   2.791   0.625   2.845
    1   AR   Ar   72   4.656   1.153   1.504
    1   AR   Ar   73   3.164   0.120   3.910
    1   AR   Ar   74   0.634   0.895   4.279
    1   AR   Ar   75   3.410   0.551   5.100
    1   AR   Ar   76   2.454   0.026   1.153
    1   AR   Ar   77   1.927   6.411   5.655
    1   AR   Ar   78   6.428   5.045   6.140
    1   AR   Ar   79   3.478   6.717   5.778
    1   AR   Ar   80   3.788   5.742   5.385
    1   AR   Ar   81   1.346   6.498   1.333
    1   AR   Ar   82   6.312   4.703   0.777
    1   AR   Ar   83   0.824   3.275   0.676
    1   AR   Ar   84   1.252   4.224   0.739
    1   AR   Ar   85   1.540   4.073  -0.303
    1   AR   Ar   86   1.624   5.585   0.883
    1   AR   Ar   87   2.890   3.651   2.566
    1   AR   Ar   88   3.523   5.354   1.364
    1   AR   Ar   89   6.377   2.016   0.857
    1   AR   Ar   90   3.097   1.619   5.381
    1   AR   Ar   91   2.058   1.436   3.326
    1   AR   Ar   92   1.887   2.925   1.407
    1   AR   Ar   93   1.891   1.224   6.048
    1   AR   Ar   94   1.609   6.560   9.232
    1   AR   Ar   95   4.137   1.490   5.281
    1   AR   Ar   96   2.472   7.046   4.737
    1   AR   Ar   97   3.161   2.305  -0.818
    1   AR   Ar   98   1.925   4.304   4.024
    1   AR   Ar   99   5.700   0.614  -0.763
    1   AR   Ar  100   0.293   3.375  -2.871
    1   AR   Ar  101   4.028   6.291   2.322
    1   AR   Ar  102   3.715   1.593   3.201
    1   AR   Ar  103   2.306   4.142   0.951
    1   AR   Ar  104   3.852   5.736  -1.351
    1   AR   Ar  105   2.765   2.174   3.680
    1   AR   Ar  106   3.605   2.573   5.209
    1   AR   Ar  107   0.903   5.320   5.402
    1   AR   Ar  108   2.288   0.855   4.782
    1   AR   Ar  109   1.599   4.032   5.433
    1   AR   Ar  110   2.151   2.086   4.918
    1   AR   Ar  111   4.088   6.008   8.033
    1   AR   Ar  112   0.337   5.857   6.095
    1   AR   Ar  113   2.035   5.403  -1.054
    1   AR   Ar  114   2.350   0.100  -0.280
    1   AR   Ar  115   1.386   5.140  -0.070
    1   AR   Ar  116   4.808   0.234   0.674
    1   AR   Ar  117   0.624   4.921   3.922
    1   AR   Ar  118   1.528   5.824   3.250
    1   AR   Ar  119   1.938   4.043   2.916
    1   AR   Ar  120   1.662   6.841   2.540
    1   AR   Ar  121   5.502   4.485   5.407
    1   AR   Ar  122   2.931   5.564   3.973
    1   AR   Ar  123   3.053   3.523   5.539
    1   AR   Ar  124   0.710   5.162   1.445
    1   AR   Ar  125   5.897   3.449   5.044
    1   AR   Ar  126   6.850   0.745   7.199
    1   AR   Ar  127   4.347   3.291   5.970
    1   AR   Ar  128   2.530   4.371   7.070
    1   AR   Ar  129   1.933   5.101   4.870
    1   AR   Ar  130   4.069   1.989  -5.131
    1   AR   Ar  131   4.226   4.799  -2.151
    1   AR   Ar  132   0.413   1.686   0.513
    1   AR   Ar  133   4.289   0.233   4.470
    1   AR   Ar  134   3.362   1.109   4.211
    1   AR   Ar  135   5.879   1.495   3.920
    1   AR   Ar  136   5.936   0.119   2.776
    1   AR   Ar  137   3.097   4.340   6.188
    1   AR   Ar  138   5.622   1.472   5.535
    1   AR   Ar  139   5.966   2.529   5.514
    1   AR   Ar  140   4.632   6.473   4.837
    1   AR   Ar  141   4.104   5.742   4.197
    1   AR   Ar  142   4.917   0.145   7.377
    1   AR   Ar  143   5.634   6.642   6.873
    1   AR   Ar  144   6.915   1.286   4.803
    1   AR   Ar  145   4.485   5.008  -0.768
    1   AR   Ar  146   3.460   2.537   2.901
    1   AR   Ar  147   5.300   3.951  -0.877
    1   AR   Ar  148   2.931   6.420  -1.532
    1   AR   Ar  149   1.374   1.025  -0.196
    1   AR   Ar  150   2.257   2.553   2.675
    1   AR   Ar  151   2.606   3.180   3.445
    1   AR   Ar  152   0.923   2.023  -2.323
    1   AR   Ar  153   5.455   0.618   3.543
    1   AR   Ar  154   4.607   2.420   4.333
    1   AR   Ar  155   6.464   3.841   5.826
    1   AR   Ar  156   2.804   4.914   3.196
    1   AR   Ar  157   2.047   5.529   6.724
    1   AR   Ar  158   0.364   1.515   5.632
    1   AR   Ar  159   4.163   0.389   6.677
    1   AR   Ar  160   1.367   1.276   5.013
    1   AR   Ar  161   4.687   4.398   3.078
    1   AR   Ar  162   4.155   6.047  -0.423
    1   AR   Ar  163   5.921   4.324   1.798
    1   AR   Ar  164   2.133   5.785   2.100
    1   AR   Ar  165   3.385   4.199   1.294
    1   AR   Ar  166   2.820   3.533   4.489
    1   AR   Ar  167   6.438   6.639   3.363
    1   AR   Ar  168   5.417   4.075  -1.991
    1   AR   Ar  169   3.785   3.482   3.320
    1   AR   Ar  170   2.038   3.394   6.268
    1   AR   Ar  171   5.306   4.907   4.215
    1   AR   Ar  172   3.810   3.700   4.725
    1   AR   Ar  173   2.542   2.123   5.948
    1   AR   Ar  174   3.441   6.587   4.592
    1   AR   Ar  175   3.203   0.660   6.127
    1   AR   Ar  176   3.514   2.810   4.063
    1   AR   Ar  177   0.828   4.744  -0.841
    1   AR   Ar  178   2.724   6.207   0.317
    1   AR   Ar  179   3.582   0.049   1.166
    1   AR   Ar  180   5.342   1.146  -6.661
    1   AR   Ar  181   6.830   5.666   1.466
    1   AR   Ar  182   0.695   6.105   2.370
    1   AR   Ar  183   4.823   5.556   1.743
    1   AR   Ar  184   4.492   6.224   0.539
    1   AR   Ar  185   3.188   4.540   4.622
    1   AR   Ar  186   3.152   5.969   2.830
    1   AR   Ar  187   4.089   6.556   3.561
    1   AR   Ar  188   2.895   6.802   2.017
    1   AR   Ar  189   5.654   2.934   6.430
    1   AR   Ar  190   2.377   6.485   3.663
    1   AR   Ar  191   3.584   6.020   7.067
    1   AR   Ar  192   4.316   4.415   5.866
    1   AR   Ar  193   2.771   6.049   1.356
    1   AR   Ar  194   5.782   5.050  -1.066
    1   AR   Ar  195   5.540   1.348   0.640
    1   AR   Ar  196   3.438   0.788  -0.145
    1   AR   Ar  197   4.828   2.307   0.763
    1   AR   Ar  198   5.820   6.970   1.819
    1   AR   Ar  199   1.915   0.237   3.581
    1   AR   Ar  200   5.196   3.018  -0.102
    1   AR   Ar  201   6.819   6.693   2.070
    1   AR   Ar  202   5.350   0.914   4.600
    1   AR   Ar  203   0.362   6.506   3.226
    1   AR   Ar  204   4.685   5.822   6.978
    1   AR   Ar  205   5.852   2.073   1.906
    1   AR   Ar  206   5.849   0.630   6.130
    1   AR   Ar  207   6.951   3.046   4.937
    1   AR   Ar  208   1.275   6.023   4.401
    1   AR   Ar  209   0.120   2.613  -1.887
    1   AR   Ar  210   1.268   7.117   0.210
    1   AR   Ar  211   7.030   2.832   0.845
    1   AR   Ar  212   5.934   3.892   0.001
    1   AR   Ar  213   3.697   1.885   1.975
    1   AR   Ar  214   4.845   4.472   1.945
    1   AR   Ar  215   6.827   2.706   2.212
    1   AR   Ar  216   1.442   2.125   0.823
    1   AR   Ar  217   4.764   1.375   3.406
    1   AR   Ar  218   4.763   3.302   5.066
    1   AR   Ar  219   4.861   3.390   2.975
    1   AR   Ar  220   4.837   3.744   1.134
    1   AR   Ar  221   6.953   5.887   3.943
    1   AR   Ar  222   4.638   0.636   5.623
    1   AR   Ar  223   6.634   1.462   6.582
    1   AR   Ar  224   4.965   2.237   5.397
    1   AR   Ar  225   6.399   2.957   3.113
    1   AR   Ar  226   1.266   3.200   3.379
    1   AR   Ar  227   0.658   3.253   2.429
    1   AR   Ar  228   6.269   1.120   1.736
    1   AR   Ar  229   6.398   4.291  -1.145
    1   AR   Ar  230   4.114   4.628   4.008
    1   AR   Ar  231   4.590   2.079   2.612
    1   AR   Ar  232   5.275   2.927   1.999
    1   AR   Ar  233   6.658   2.586   3.966
    1   AR   Ar  234   5.658   2.720   4.289
    1   AR   Ar  235   0.061   0.440   3.379
    1   AR   Ar  236   4.825   5.419   5.214
    1   AR   Ar  237   4.707   2.029   6.410
    1   AR   Ar  238   5.727   5.538   7.032
    1   AR   Ar  239   1.093   4.684  10.206
    1   AR   Ar  240   1.491   2.388   6.658
    1   AR   Ar  241   1.799   6.266  -0.359
    1   AR   Ar  242   5.872   5.933   1.411
    1   AR   Ar  243   5.203   6.361   2.380
    1   AR   Ar  244   0.166   5.448   0.480
    1   AR   Ar  245   4.028   0.615   3.480
    1   AR   Ar  246   5.542   6.386  -0.454
    1   AR   Ar  247   0.093   3.668   1.653
    1   AR   Ar  248   5.159   5.409   0.053
    1   AR   Ar  249   4.649   6.671   1.542
    1   AR   Ar  250   5.473   6.755   3.573
    1   AR   Ar  251   4.756   4.430   4.779
    1   AR   Ar  252   2.707   4.831   1.965
    1   AR   Ar  253   6.063   2.275   7.230
    1   AR   Ar  254   5.748   2.757   9.835
    1   AR   Ar  255   3.972   5.695   9.353
    1   AR   Ar  256   5.972   5.556   3.463
    7.12000  7.12000 12.00000
Argon-slab step 4795
  256
    1   AR   Ar    1   5.167   2.908  -2.554
    1   AR   Ar    2   5.885   6.614   0.485
    1   AR   Ar    3   4.242   3.553  -1.159
    1   AR   Ar    4   2.376   1.179   1.253
    1   AR   Ar    5   6.181   5.445  -0.074
    1   AR   Ar    6   1.402   1.933   2.342
    1   AR   Ar    7   5.755   4.456   3.429
    1   AR   Ar    8   6.255   2.851  -1.711
    1   AR   Ar    9   0.395   6.991   4.470
    1   AR   Ar   10   5.910   5.525   5.157
    1   AR   Ar   11   1.574   0.188   5.011
    1   AR   Ar   12   0.039   1.786   3.541
    1   AR   Ar   13   6.703   0.387   4.260
    1   AR   Ar   14   3.701   1.601   6.271
    1   AR   Ar   15   3.296   0.351   9.672
    1   AR   Ar   16   0.822   0.190   5.982
    1   AR   Ar   17   5.721   2.940   0.926
    1   AR   Ar   18   6.837   5.463  -1.033
    1   AR   Ar   19   5.230   4.466   0.447
    1   AR   Ar   20   6.345   3.692  -2.877
    1   AR   Ar   21   2.755   1.519   2.229
    1   AR   Ar   22   5.546   1.318   2.649
    1   AR   Ar   23   0.265   6.452   1.180
    1   AR   Ar   24   5.551   2.364   3.284
    1   AR   Ar   25   0.368   2.244   4.533
    1   AR   Ar   26   5.683   7.030   4.578
    1   AR   Ar   27   1.899   0.461   1.900
    1   AR   Ar   28   1.759   2.272   3.843
    1   AR   Ar   29   4.506   1.185   7.266
    1   AR   Ar   30   0.582   1.193   2.967
    1   AR   Ar   31   3.247   1.008   7.269
    1   AR   Ar   32   1.188   2.689   5.584
    1   AR   Ar   33   0.375   4.366   0.162
    1   AR   Ar   34   1.048   5.066   2.456
    1   AR   Ar   35   6.098   5.466   2.388
    1   AR   Ar   36   5.901   2.000  -2.449
    1   AR   Ar   37   4.065   3.020   2.114
    1   AR   Ar   38   6.088   4.197   4.351
    1   AR   Ar   39   0.241   3.294   3.655
    1   AR   Ar   40   1.598   4.101   1.878
    1   AR   Ar   41   0.455   2.389   2.848
    1   AR   Ar   42   5.010   6.311   5.785
    1   AR   Ar   43   0.063   2.737   6.126
    1   AR   Ar   44   0.816   4.133   3.171
    1   AR   Ar   45   0.537   3.535   5.577
    1   AR   Ar   46   0.399   4.750   6.439
    1   AR   Ar   47   4.131   4.458   7.645
    1   AR   Ar   48   6.608   3.476   7.332
    1   AR   Ar   49   6.785   0.588  -0.579
    1   AR   Ar   50   3.882   5.400   0.441
    1   AR   Ar   51   5.969   3.628   2.562
    1   AR   Ar   52   5.241   3.019  -1.337
    1   AR   Ar   53   4.849   0.307   2.501
    1   AR   Ar   54   0.483   0.236   2.250
    1   AR   Ar   55   6.778   4.210   3.079
    1   AR   Ar   56   6.545   1.801   2.673
    1   AR   Ar   57   3.800   4.290   2.363
    1   AR   Ar   58   0.985   3.911   4.268
    1   AR   Ar   59   2.652   5.537   5.567
    1   AR   Ar   60   0.410   5.513   3.134
    1   AR   Ar   61   0.356   3.594   6.609
    1   AR   Ar   62   0.042   4.457   5.020
    1   AR   Ar   63   2.699   2.501   6.954
    1   AR   Ar   64   6.994   5.467   4.940
    1   AR   Ar   65   3.638   0.560   2.095
    1   AR   Ar   66   1.331   1.041   1.200
    1   AR   Ar   67   4.671   7.096  -0.418
    1   AR   Ar   68   0.571   0.994  -0.849
    1   AR   Ar   69   2.376   1.550   0.190
    1   AR   Ar   70   0.469   2.073   1.571
    1   AR   Ar   71   2.798   0.605   2.860
    1   AR   Ar   72   4.647   1.172   1.490
    1   AR   Ar   73   3.146   0.132   3.930
    1   AR   Ar   74   0.642   0.878   4.250
    1   AR   Ar   75   3.400   0.564   5.087
    1   AR   Ar   76   2.458   0.028   1.141
    1   AR   Ar   77   1.914   6.395   5.674
    1   AR   Ar   78   6.418   5.051   6.115
    1   AR   Ar   79   3.501   6.715   5.807
    1   AR   Ar   80   3.784   5.735   5.404
    1   AR   Ar   81   1.330   6.516   1.333
    1   AR   Ar   82   6.301   4.687   0.775
    1   AR   Ar   83   0.825   3.266   0.672
    1   AR   Ar   84   1.225   4.256   0.728
    1   AR   Ar   85   1.523   4.099  -0.298
    1   AR   Ar   86   1.605   5.598   0.896
    1   AR   Ar   87   2.892   3.639   2.596
    1   AR   Ar   88   3.528   5.388   1.410
    1   AR   Ar   89   6.383   2.009   0.849
    1   AR   Ar   90   3.100   1.602   5.345
    1   AR   Ar   91   2.040   1.419   3.314
    1   AR   Ar   92   1.895   2.906   1.394
    1   AR   Ar   93   1.860   1.233   6.060
    1   AR   Ar   94   1.623   6.590   9.216
    1   AR   Ar   95   4.156   1.451   5.276
    1   AR   Ar   96   2.466   7.021   4.783
    1   AR   Ar   97   3.134   2.321  -0.843
    1   AR   Ar   98   1.922   4.327   4.057
    1   AR   Ar   99   5.703   0.615  -0.758
    1   AR   Ar  100   0.273   3.372  -2.917
    1   AR   Ar  101   4.041   6.295   2.316
    1   AR   Ar  102   3.744   1.578   3.193
    1   AR   Ar  103   2.301   4.147   0.948
    1   AR   Ar  104   3.844   5.783  -1.332
    1   AR   Ar  105   2.799   2.194   3.674
    1   AR   Ar  106   3.628   2.566   5.185
    1   AR   Ar  107   0.908   5.333   5.394
    1   AR   Ar  108   2.306   0.882   4.752
    1   AR   Ar  109   1.603   4.040   5.448
    1   AR   Ar  110   2.160   2.087   4.902
    1   AR   Ar  111   4.059   6.006   8.022
    1   AR   Ar  112   0.314   5.873   6.119
    1   AR   Ar  113   2.012   5.456  -1.052
    1   AR   Ar  114   2.370   0.125  -0.269
    1   AR   Ar  115   1.336   5.164  -0.039
    1   AR   Ar  116   4.817   0.251   0.645
    1   AR   Ar  117   0.620   4.939   3.905
    1   AR   Ar  118   1.533   5.801   3.217
    1   AR   Ar  119   1.935   4.022   2.888
    1   AR   Ar  120   1.646   6.822   2.542
    1   AR   Ar  121   5.530   4.465   5.408
    1   AR   Ar  122   2.940   5.559   3.990
    1   AR   Ar  123   3.102   3.528   5.539
    1   AR   Ar  124   0.712   5.143   1.448
    1   AR   Ar  125   5.853   3.472   5.042
    1   AR   Ar  126   6.834   0.732   7.186
    1   AR   Ar  127   4.365   3.299   6.001
    1   AR   Ar  128   2.494   4.337   7.094
    1   AR   Ar  129   1.940   5.096   4.893
    1   AR   Ar  130   4.071   1.994  -5.121
    1   AR   Ar  131   4.235   4.845  -2.111
    1   AR   Ar  132   0.417   1.707   0.507
    1   AR   Ar  133   4.315   0.210   4.479
    1   AR   Ar  134   3.323   1.128   4.219
    1   AR   Ar  135   5.903   1.509   3.918
    1   AR   Ar  136   5.923   0.107   2.777
    1   AR   Ar  137   3.070   4.344   6.199
    1   AR   Ar  138   5.602   1.468   5.525
    1   AR   Ar  139   5.976   2.550   5.494
    1   AR   Ar  140   4.626   6.468   4.856
    1   AR   Ar  141   4.114   5.742   4.200
    1   AR   Ar  142   4.914   0.110   7.380
    1   AR   Ar  143   5.609   6.623   6.857
    1   AR   Ar  144   6.903   1.282   4.831
    1   AR   Ar  145   4.514   5.003  -0.798
    1   AR   Ar  146   3.472   2.553   2.912
    1   AR   Ar  147   5.296   3.981  -0.866
    1   AR   Ar  148   2.921   6.431  -1.547
    1   AR   Ar  149   1.335   1.005  -0.211
    1   AR   Ar  150   2.250   2.546   2.691
    1   AR   Ar  151   2.590   3.186   3.403
    1   AR   Ar  152   0.943   2.049  -2.317
    1   AR   Ar  153   5.486   0.639   3.518
    1   AR   Ar  154   4.580   2.477   4.327
    1   AR   Ar  155   6.484   3.848   5.820
    1   AR   Ar  156   2.774   4.945   3.158
    1   AR   Ar  157   2.071   5.503   6.714
    1   AR   Ar  158   0.378   1.501   5.656
    1   AR   Ar  159   4.158   0.394   6.648
    1   AR   Ar  160   1.344   1.238   5.020
    1   AR   Ar  161   4.682   4.404   3.104
    1   AR   Ar  162   4.169   6.045  -0.427
    1   AR   Ar  163   5.928   4.322   1.811
    1   AR   Ar  164   2.138   5.786   2.115
    1   AR   Ar  165   3.391   4.189   1.267
    1   AR   Ar  166   2.817   3.495   4.488
    1   AR   Ar  167   6.443   6.621   3.350
    1   AR   Ar  168   5.402   4.091  -1.988
    1   AR   Ar  169   3.760   3.494   3.297
    1   AR   Ar  170   2.077   3.394   6.253
    1   AR   Ar  171   5.292   4.938   4.177
    1   AR   Ar  172   3.831   3.725   4.740
    1   AR   Ar  173   2.524   2.155   5.991
    1   AR   Ar  174   3.424   6.575   4.607
    1   AR   Ar  175   3.201   0.692   6.128
    1   AR   Ar  176   3.492   2.790   4.070
    1   AR   Ar  177   0.817   4.728  -0.837
    1   AR   Ar  178   2.714   6.188   0.346
    1   AR   Ar  179   3.594   0.051   1.130
    1   AR   Ar  180   5.321   1.114  -6.664
    1   AR   Ar  181   6.825   5.618   1.457
    1   AR   Ar  182   0.689   6.118   2.386
    1   AR   Ar  183   4.811   5.576   1.731
    1   AR   Ar  184   4.481   6.212   0.549
    1   AR   Ar  185   3.170   4.541   4.612
    1   AR   Ar  186   3.147   5.960   2.830
    1   AR   Ar  187   4.091   6.547   3.589
    1   AR   Ar  188   2.939   6.797   2.030
    1   AR   Ar  189   5.681   2.913   6.425
    1   AR   Ar  190   2.373   6.452   3.666
    1   AR   Ar  191   3.562   6.016   7.044
    1   AR   Ar  192   4.305   4.391   5.848
    1   AR   Ar  193   2.758   6.060   1.333
    1   AR   Ar  194   5.764   5.084  -1.078
    1   AR   Ar  195   5.557   1.348   0.645
    1   AR   Ar  196   3.445   0.805  -0.122
    1   AR   Ar  197   4.818   2.329   0.736
    1   AR   Ar  198   5.819   6.966   1.828
    1   AR   Ar  199   1.913   0.271   3.550
    1   AR   Ar  200   5.208   2.996  -0.101
    1   AR   Ar  201   6.822   6.705   2.095
    1   AR   Ar  202   5.323   0.897   4.601
    1   AR   Ar  203   0.371   6.526   3.242
    1   AR   Ar  204   4.677   5.839   6.962
    1   AR   Ar  205   5.857   2.061   1.923
    1   AR   Ar  206   5.852   0.638   6.135
    1   AR   Ar  207   6.965   3.039   4.957
    1   AR   Ar  208   1.261   6.000   4.386
    1   AR   Ar  209   0.086   2.579  -1.863
    1   AR   Ar  210   1.287   7.092   0.215
    1   AR   Ar  211   7.034   2.818   0.865
    1   AR   Ar  212   5.948   3.901  -0.003
    1   AR   Ar  213   3.711   1.866   1.956
    1   AR   Ar  214   4.846   4.492   1.971
    1   AR   Ar  215   6.827   2.702   2.211
    1   AR   Ar  216   1.432   2.161   0.843
    1   AR   Ar  217   4.783   1.366   3.395
    1   AR   Ar  218   4.779   3.269   5.069
    1   AR   Ar  219   4.840   3.393   2.942
    1   AR   Ar  220   4.847   3.755   1.145
    1   AR   Ar  221   6.976   5.877   3.918
    1   AR   Ar  222   4.624   0.649   5.628
    1   AR   Ar  223   6.631   1.455   6.580
    1   AR   Ar  224   4.962   2.220   5.357
    1   AR   Ar  225   6.401   2.955   3.109
    1   AR   Ar  226   1.256   3.197   3.392
    1   AR   Ar  227   0.708   3.260   2.413
    1   AR   Ar  228   6.271   1.130   1.742
    1   AR   Ar  229   6.365   4.259  -1.132
    1   AR   Ar  230   4.165   4.635   4.005
    1   AR   Ar  231   4.561   2.095   2.637
    1   AR   Ar  232   5.278   2.928   2.000
    1   AR   Ar  233   6.670   2.589   3.990
    1   AR   Ar  234   5.678   2.709   4.292
    1   AR   Ar  235   0.042   0.430   3.364
    1   AR   Ar  236   4.824   5.403   5.237
    1   AR   Ar  237   4.723   1.991   6.405
    1   AR   Ar  238   5.727   5.502   7.032
    1   AR   Ar  239   1.089   4.680  10.244
    1   AR   Ar  240   1.458   2.412   6.661
    1   AR   Ar  241   1.783   6.238  -0.332
    1   AR   Ar  242   5.841   5.901   1.417
    1   AR   Ar  243   5.190   6.343   2.365
    1   AR   Ar  244   0.169   5.448   0.478
    1   AR   Ar  245   4.012   0.625   3.465
    1   AR   Ar  246   5.542   6.378  -0.454
    1   AR   Ar  247   0.103   3.684   1.650
    1   AR   Ar  248   5.176   5.411   0.030
    1   AR   Ar  249   4.637   6.685   1.513
    1   AR   Ar  250   5.471   6.778   3.595
    1   AR   Ar  251   4.741   4.418   4.763
    1   AR   Ar  252   2.696   4.814   1.966
    1   AR   Ar  253   6.047   2.279   7.267
    1   AR   Ar  254   5.788   2.795   9.839
    1   AR   Ar  255   3.949   5.723   9.351
    1   AR   Ar  256   5.984   5.552   3.485
    7.12000  7.12000 12.00000
Argon-slab step 4800
  256
    1   AR   Ar    1   5.176   2.907  -2.519
    1   AR   Ar    2   5.898   6.619   0.491
    1   AR   Ar    3   4.243   3.556  -1.152
    1   AR   Ar    4   2.399   1.183   1.295
    1   AR   Ar    5   6.203   5.444  -0.100
    1   AR   Ar    6   1.402   1.946   2.353
    1   AR   Ar    7   5.751   4.479   3.428
    1   AR   Ar    8   6.256   2.844  -1.735
    1   AR   Ar    9   0.389   6.982   4.457
    1   AR   Ar   10   5.883   5.484   5.151
    1   AR   Ar   11   1.527   0.147   5.039
    1   AR   Ar   12   0.018   1.789   3.559
    1   AR   Ar   13   6.714   0.395   4.276
    1   AR   Ar   14   3.707   1.619   6.281
    1   AR   Ar   15   3.293   0.385   9.706
    1   AR   Ar   16   0.843   0.189   5.972
    1   AR   Ar   17   5.750   2.952   0.929
    1   AR   Ar   18   6.844   5.445  -1.052
    1   AR   Ar   19   5.218   4.497   0.476
    1   AR   Ar   20   6.344   3.677  -2.832
    1   AR   Ar   21   2.740   1.509   2.236
    1   AR   Ar   22   5.578   1.305   2.673
    1   AR   Ar   23   0.294   6.459   1.130
    1   AR   Ar   24   5.580   2.327   3.265
    1   AR   Ar   25   0.366   2.255   4.534
    1   AR   Ar   26   5.684   7.031   4.555
    1   AR   Ar   27   1.909   0.469   1.877
    1   AR   Ar   28   1.752   2.273   3.854
    1   AR   Ar   29   4.484   1.181   7.254
    1   AR   Ar   30   0.577   1.177   2.951
    1   AR   Ar   31   3.267   1.034   7.293
    1   AR   Ar   32   1.194   2.687   5.575
    1   AR   Ar   33   0.349   4.373   0.181
    1   AR   Ar   34   1.039   5.068   2.466
    1   AR   Ar   35   6.082   5.434   2.381
    1   AR   Ar   36   5.890   1.985  -2.450
    1   AR   Ar   37   4.080   3.021   2.109
    1   AR   Ar   38   6.062   4.225   4.358
    1   AR   Ar   39   0.243   3.293   3.676
    1   AR   Ar   40   1.590   4.065   1.895
    1   AR   Ar   41   0.465   2.384   2.860
    1   AR   Ar   42   4.995   6.291   5.777
    1   AR   Ar   43   0.076   2.746   6.105
    1   AR   Ar   44   0.764   4.142   3.164
    1   AR   Ar   45   0.539   3.512   5.584
    1   AR   Ar   46   0.397   4.768   6.445
    1   AR   Ar   47   4.113   4.484   7.643
    1   AR   Ar   48   6.624   3.460   7.341
    1   AR   Ar   49   6.787   0.626  -0.570
    1   AR   Ar   50   3.904   5.418   0.424
    1   AR   Ar   51   5.977   3.633   2.568
    1   AR   Ar   52   5.233   3.027  -1.293
    1   AR   Ar   53   4.830   0.268   2.494
    1   AR   Ar   54   0.494   0.219   2.256
    1   AR   Ar   55   6.767   4.224   3.098
    1   AR   Ar   56   6.536   1.795   2.687
    1   AR   Ar   57   3.787   4.295   2.330
    1   AR   Ar   58   0.981   3.899   4.254
    1   AR   Ar   59   2.661   5.532   5.552
    1   AR   Ar   60   0.400   5.516   3.100
    1   AR   Ar   61   0.347   3.580   6.587
    1   AR   Ar   62   0.050   4.471   4.995
    1   AR   Ar   63   2.711   2.503   6.947
    1   AR   Ar   64   7.003   5.489   4.922
    1   AR   Ar   65   3.634   0.569   2.125
    1   AR   Ar   66   1.311   1.039   1.193
    1   AR   Ar   67   4.687   7.069  -0.398
    1   AR   Ar   68   0.534   1.000  -0.886
    1   AR   Ar   69   2.337   1.539   0.201
    1   AR   Ar   70   0.461   2.049   1.567
    1   AR   Ar   71   2.805   0.584   2.876
    1   AR   Ar   72   4.643   1.174   1.490
    1   AR   Ar   73   3.125   0.148   3.942
    1   AR   Ar   74   0.649   0.864   4.219
    1   AR   Ar   75   3.390   0.573   5.075
    1   AR   Ar   76   2.462   0.029   1.124
    1   AR   Ar   77   1.901   6.379   5.691
    1   AR   Ar   78   6.409   5.056   6.089
    1   AR   Ar   79   3.525   6.715   5.835
    1   AR   Ar   80   3.781   5.727   5.422
    1   AR   Ar   81   1.316   6.537   1.336
    1   AR   Ar   82   6.297   4.669   0.760
    1   AR   Ar   83   0.830   3.258   0.669
    1   AR   Ar   84   1.201   4.292   0.722
    1   AR   Ar   85   1.506   4.125  -0.291
    1   AR   Ar   86   1.588   5.609   0.911
    1   AR   Ar   87   2.901   3.632   2.611
    1   AR   Ar   88   3.535   5.418   1.463
    1   AR   Ar   89   6.388   2.000   0.843
    1   AR   Ar   90   3.103   1.580   5.303
    1   AR   Ar   91   2.025   1.398   3.298
    1   AR   Ar   92   1.904   2.891   1.385
    1   AR   Ar   93   1.829   1.243   6.071
    1   AR   Ar   94   1.637   6.620   9.199
    1   AR   Ar   95   4.171   1.420   5.265
    1   AR   Ar   96   2.478   6.979   4.826
    1   AR   Ar   97   3.107   2.338  -0.867
    1   AR   Ar   98   1.922   4.351   4.087
    1   AR   Ar   99   5.704   0.615  -0.752
    1   AR   Ar  100   0.255   3.369  -2.962
    1   AR   Ar  101   4.053   6.299   2.309
    1   AR   Ar  102   3.769   1.566   3.183
    1   AR   Ar  103   2.296   4.153   0.947
    1   AR   Ar  104   3.832   5.827  -1.322
    1   AR   Ar  105   2.828   2.202   3.664
    1   AR   Ar  106   3.652   2.560   5.160
    1   AR   Ar  107   0.913   5.344   5.384
    1   AR   Ar  108   2.330   0.923   4.719
    1   AR   Ar  109   1.606   4.049   5.462
    1   AR   Ar  110   2.169   2.088   4.886
    1   AR   Ar  111   4.030   6.004   8.011
    1   AR   Ar  112   0.290   5.889   6.144
    1   AR   Ar  113   1.990   5.507  -1.051
    1   AR   Ar  114   2.397   0.151  -0.253
    1   AR   Ar  115   1.286   5.189  -0.006
    1   AR   Ar  116   4.827   0.268   0.618
    1   AR   Ar  117   0.565   4.937   3.886
    1   AR   Ar  118   1.536   5.778   3.184
    1   AR   Ar  119   1.931   4.002   2.864
    1   AR   Ar  120   1.628   6.797   2.549
    1   AR   Ar  121   5.563   4.445   5.413
    1   AR   Ar  122   2.972   5.560   4.013
    1   AR   Ar  123   3.150   3.530   5.538
    1   AR   Ar  124   0.713   5.124   1.447
    1   AR   Ar  125   5.808   3.495   5.042
    1   AR   Ar  126   6.841   0.692   7.230
    1   AR   Ar  127   4.379   3.305   6.035
    1   AR   Ar  128   2.457   4.302   7.118
    1   AR   Ar  129   1.947   5.086   4.915
    1   AR   Ar  130   4.074   1.976  -5.110
    1   AR   Ar  131   4.245   4.892  -2.069
    1   AR   Ar  132   0.420   1.729   0.501
    1   AR   Ar  133   4.337   0.198   4.484
    1   AR   Ar  134   3.327   1.145   4.197
    1   AR   Ar  135   5.931   1.528   3.916
    1   AR   Ar  136   5.912   0.105   2.772
    1   AR   Ar  137   3.045   4.352   6.209
    1   AR   Ar  138   5.586   1.459   5.516
    1   AR   Ar  139   5.991   2.567   5.471
    1   AR   Ar  140   4.619   6.456   4.872
    1   AR   Ar  141   4.142   5.726   4.212
    1   AR   Ar  142   4.910   0.075   7.384
    1   AR   Ar  143   5.584   6.602   6.839
    1   AR   Ar  144   6.886   1.225   4.834
    1   AR   Ar  145   4.544   4.998  -0.828
    1   AR   Ar  146   3.483   2.569   2.921
    1   AR   Ar  147   5.292   4.013  -0.855
    1   AR   Ar  148   2.909   6.441  -1.561
    1   AR   Ar  149   1.306   0.985  -0.219
    1   AR   Ar  150   2.243   2.535   2.704
    1   AR   Ar  151   2.571   3.193   3.380
    1   AR   Ar  152   0.950   2.026  -2.328
    1   AR   Ar  153   5.517   0.666   3.499
    1   AR   Ar  154   4.553   2.533   4.320
    1   AR   Ar  155   6.507   3.855   5.814
    1   AR   Ar  156   2.742   4.972   3.117
    1   AR   Ar  157   2.096   5.476   6.702
    1   AR   Ar  158   0.395   1.488   5.683
    1   AR   Ar  159   4.151   0.399   6.617
    1   AR   Ar  160   1.319   1.203   5.029
    1   AR   Ar  161   4.677   4.413   3.128
    1   AR   Ar  162   4.178   6.047  -0.418
    1   AR   Ar  163   5.935   4.325   1.820
    1   AR   Ar  164   2.133   5.788   2.106
    1   AR   Ar  165   3.398   4.180   1.240
    1   AR   Ar  166   2.810   3.458   4.486
    1   AR   Ar  167   6.458   6.596   3.343
    1   AR   Ar  168   5.381   4.106  -1.987
    1   AR   Ar  169   3.736   3.510   3.274
    1   AR   Ar  170   2.116   3.392   6.239
    1   AR   Ar  171   5.284   4.986   4.135
    1   AR   Ar  172   3.856   3.749   4.754
    1   AR   Ar  173   2.500   2.189   6.033
    1   AR   Ar  174   3.414   6.556   4.629
    1   AR   Ar  175   3.196   0.723   6.130
    1   AR   Ar  176   3.478   2.774   4.081
    1   AR   Ar  177   0.802   4.713  -0.836
    1   AR   Ar  178   2.703   6.170   0.364
    1   AR   Ar  179   3.606   0.051   1.093
    1   AR   Ar  180   5.300   1.081  -6.667
    1   AR   Ar  181   6.831   5.601   1.508
    1   AR   Ar  182   0.689   6.134   2.385
    1   AR   Ar  183   4.797   5.596   1.716
    1   AR   Ar  184   4.478   6.207   0.562
    1   AR   Ar  185   3.150   4.546   4.602
    1   AR   Ar  186   3.139   5.952   2.832
    1   AR   Ar  187   4.085   6.547   3.620
    1   AR   Ar  188   2.985   6.795   2.050
    1   AR   Ar  189   5.708   2.893   6.423
    1   AR   Ar  190   2.372   6.417   3.668
    1   AR   Ar  191   3.540   6.012   7.020
    1   AR   Ar  192   4.314   4.377   5.831
    1   AR   Ar  193   2.765   6.066   1.327
    1   AR   Ar  194   5.740   5.124  -1.087
    1   AR   Ar  195   5.572   1.348   0.652
    1   AR   Ar  196   3.451   0.822  -0.099
    1   AR   Ar  197   4.808   2.350   0.710
    1   AR   Ar  198   5.817   6.962   1.824
    1   AR   Ar  199   1.911   0.308   3.519
    1   AR   Ar  200   5.221   2.977  -0.101
    1   AR   Ar  201   6.821   6.713   2.122
    1   AR   Ar  202   5.292   0.882   4.603
    1   AR   Ar  203   0.381   6.556   3.265
    1   AR   Ar  204   4.668   5.859   6.946
    1   AR   Ar  205   5.861   2.053   1.936
    1   AR   Ar  206   5.855   0.644   6.142
    1   AR   Ar  207   6.974   3.034   4.979
    1   AR   Ar  208   1.248   5.976   4.372
    1   AR   Ar  209   0.061   2.543  -1.841
    1   AR   Ar  210   1.306   7.067   0.222
    1   AR   Ar  211   7.037   2.805   0.888
    1   AR   Ar  212   5.968   3.906  -0.010
    1   AR   Ar  213   3.728   1.848   1.938
    1   AR   Ar  214   4.847   4.511   1.997
    1   AR   Ar  215   6.826   2.703   2.199
    1   AR   Ar  216   1.419   2.192   0.861
    1   AR   Ar  217   4.802   1.363   3.387
    1   AR   Ar  218   4.798   3.237   5.066
    1   AR   Ar  219   4.821   3.390   2.907
    1   AR   Ar  220   4.865   3.776   1.161
    1   AR   Ar  221   6.997   5.867   3.898
    1   AR   Ar  222   4.616   0.654   5.636
    1   AR   Ar  223   6.625   1.460   6.566
    1   AR   Ar  224   4.951   2.210   5.314
    1   AR   Ar  225   6.409   2.949   3.108
    1   AR   Ar  226   1.252   3.192   3.404
    1   AR   Ar  227   0.762   3.273   2.396
    1   AR   Ar  228   6.273   1.136   1.749
    1   AR   Ar  229   6.334   4.222  -1.119
    1   AR   Ar  230   4.205   4.644   3.993
    1   AR   Ar  231   4.534   2.113   2.660
    1   AR   Ar  232   5.272   2.927   2.006
    1   AR   Ar  233   6.680   2.588   4.022
    1   AR   Ar  234   5.694   2.698   4.298
    1   AR   Ar  235   0.023   0.415   3.345
    1   AR   Ar  236   4.823   5.385   5.259
    1   AR   Ar  237   4.739   1.952   6.400
    1   AR   Ar  238   5.728   5.465   7.030
    1   AR   Ar  239   1.085   4.677  10.282
    1   AR   Ar  240   1.427   2.436   6.663
    1   AR   Ar  241   1.767   6.210  -0.302
    1   AR   Ar  242   5.803   5.872   1.421
    1   AR   Ar  243   5.196   6.328   2.336
    1   AR   Ar  244   0.173   5.448   0.476
    1   AR   Ar  245   4.010   0.614   3.471
    1   AR   Ar  246   5.541   6.368  -0.458
    1   AR   Ar  247   0.111   3.689   1.652
    1   AR   Ar  248   5.187   5.407   0.025
    1   AR   Ar  249   4.626   6.701   1.483
    1   AR   Ar  250   5.458   6.785   3.617
    1   AR   Ar  251   4.716   4.389   4.767
    1   AR   Ar  252   2.685   4.796   1.968
    1   AR   Ar  253   6.032   2.283   7.303
    1   AR   Ar  254   5.827   2.834   9.843
    1   AR   Ar  255   3.932   5.733   9.344
    1   AR   Ar  256   5.996   5.549   3.508
    7.12000  7.12000 12.00000
Argon-slab step 4805
  256
    1   AR   Ar    1   5.187   2.907  -2.482
    1   AR   Ar    2   5.892   6.594   0.488
    1   AR   Ar    3   4.247   3.552  -1.107
    1   AR   Ar    4   2.424   1.188   1.331
    1   AR   Ar    5   6.232   5.444  -0.127
    1   AR   Ar    6   1.401   1.959   2.363
    1   AR   Ar    7   5.749   4.498   3.410
    1   AR   Ar    8   6.242   2.843  -1.759
    1   AR   Ar    9   0.395   6.962   4.445
    1   AR   Ar   10   5.857   5.442   5.145
    1   AR   Ar   11   1.472   0.106   5.068
    1   AR   Ar   12   7.113   1.787   3.585
    1   AR   Ar   13   6.709   0.412   4.290
    1   AR   Ar   14   3.710   1.644   6.322
    1   AR   Ar   15   3.290   0.420   9.739
    1   AR   Ar   16   0.864   0.188   5.962
    1   AR   Ar   17   5.778   2.965   0.933
    1   AR   Ar   18   6.851   5.425  -1.069
    1   AR   Ar   19   5.206   4.525   0.508
    1   AR   Ar   20   6.341   3.662  -2.786
    1   AR   Ar   21   2.724   1.500   2.248
    1   AR   Ar   22   5.611   1.293   2.694
    1   AR   Ar   23   0.320   6.465   1.081
    1   AR   Ar   24   5.605   2.288   3.243
    1   AR   Ar   25   0.373   2.259   4.536
    1   AR   Ar   26   5.687   7.031   4.541
    1   AR   Ar   27   1.917   0.475   1.860
    1   AR   Ar   28   1.744   2.277   3.866
    1   AR   Ar   29   4.462   1.178   7.241
    1   AR   Ar   30   0.578   1.164   2.929
    1   AR   Ar   31   3.288   1.052   7.305
    1   AR   Ar   32   1.202   2.682   5.566
    1   AR   Ar   33   0.326   4.381   0.189
    1   AR   Ar   34   1.037   5.065   2.472
    1   AR   Ar   35   6.066   5.401   2.375
    1   AR   Ar   36   5.879   1.972  -2.450
    1   AR   Ar   37   4.095   3.023   2.104
    1   AR   Ar   38   6.040   4.256   4.369
    1   AR   Ar   39   0.235   3.270   3.697
    1   AR   Ar   40   1.579   4.031   1.907
    1   AR   Ar   41   0.479   2.371   2.874
    1   AR   Ar   42   4.984   6.271   5.781
    1   AR   Ar   43   0.084   2.744   6.080
    1   AR   Ar   44   0.713   4.152   3.155
    1   AR   Ar   45   0.546   3.499   5.585
    1   AR   Ar   46   0.394   4.786   6.450
    1   AR   Ar   47   4.095   4.511   7.640
    1   AR   Ar   48   6.639   3.442   7.348
    1   AR   Ar   49   6.780   0.661  -0.557
    1   AR   Ar   50   3.912   5.408   0.426
    1   AR   Ar   51   5.977   3.643   2.570
    1   AR   Ar   52   5.224   3.034  -1.250
    1   AR   Ar   53   4.811   0.230   2.487
    1   AR   Ar   54   0.511   0.204   2.265
    1   AR   Ar   55   6.757   4.238   3.117
    1   AR   Ar   56   6.529   1.787   2.704
    1   AR   Ar   57   3.774   4.300   2.297
    1   AR   Ar   58   0.974   3.887   4.241
    1   AR   Ar   59   2.673   5.528   5.540
    1   AR   Ar   60   0.382   5.516   3.064
    1   AR   Ar   61   0.339   3.575   6.574
    1   AR   Ar   62   0.058   4.478   4.971
    1   AR   Ar   63   2.728   2.501   6.961
    1   AR   Ar   64   7.011   5.515   4.904
    1   AR   Ar   65   3.631   0.579   2.156
    1   AR   Ar   66   1.290   1.040   1.185
    1   AR   Ar   67   4.702   7.041  -0.378
    1   AR   Ar   68   0.502   1.009  -0.929
    1   AR   Ar   69   2.297   1.527   0.211
    1   AR   Ar   70   0.453   2.026   1.564
    1   AR   Ar   71   2.812   0.562   2.893
    1   AR   Ar   72   4.638   1.175   1.490
    1   AR   Ar   73   3.101   0.164   3.951
    1   AR   Ar   74   0.656   0.852   4.186
    1   AR   Ar   75   3.398   0.568   5.078
    1   AR   Ar   76   2.468   0.027   1.102
    1   AR   Ar   77   1.888   6.363   5.707
    1   AR   Ar   78   6.400   5.060   6.061
    1   AR   Ar   79   3.548   6.717   5.862
    1   AR   Ar   80   3.778   5.720   5.437
    1   AR   Ar   81   1.306   6.562   1.343
    1   AR   Ar   82   6.324   4.661   0.766
    1   AR   Ar   83   0.839   3.251   0.667
    1   AR   Ar   84   1.184   4.329   0.724
    1   AR   Ar   85   1.490   4.149  -0.285
    1   AR   Ar   86   1.577   5.621   0.914
    1   AR   Ar   87   2.920   3.636   2.606
    1   AR   Ar   88   3.549   5.443   1.519
    1   AR   Ar   89   6.392   1.988   0.839
    1   AR   Ar   90   3.104   1.559   5.262
    1   AR   Ar   91   2.020   1.380   3.281
    1   AR   Ar   92   1.917   2.885   1.382
    1   AR   Ar   93   1.799   1.254   6.079
    1   AR   Ar   94   1.651   6.651   9.183
    1   AR   Ar   95   4.179   1.403   5.246
    1   AR   Ar   96   2.494   6.935   4.867
    1   AR   Ar   97   3.081   2.353  -0.891
    1   AR   Ar   98   1.926   4.375   4.116
    1   AR   Ar   99   5.704   0.614  -0.745
    1   AR   Ar  100   0.237   3.364  -3.007
    1   AR   Ar  101   4.064   6.304   2.302
    1   AR   Ar  102   3.788   1.557   3.173
    1   AR   Ar  103   2.265   4.162   0.949
    1   AR   Ar  104   3.818   5.868  -1.322
    1   AR   Ar  105   2.845   2.194   3.649
    1   AR   Ar  106   3.678   2.555   5.135
    1   AR   Ar  107   0.919   5.354   5.373
    1   AR   Ar  108   2.356   0.967   4.686
    1   AR   Ar  109   1.609   4.058   5.475
    1   AR   Ar  110   2.179   2.088   4.870
    1   AR   Ar  111   4.003   6.002   8.001
    1   AR   Ar  112   0.265   5.903   6.167
    1   AR   Ar  113   1.967   5.556  -1.051
    1   AR   Ar  114   2.423   0.176  -0.235
    1   AR   Ar  115   1.265   5.191  -0.000
    1   AR   Ar  116   4.837   0.285   0.593
    1   AR   Ar  117   0.512   4.930   3.878
    1   AR   Ar  118   1.539   5.756   3.150
    1   AR   Ar  119   1.927   3.981   2.848
    1   AR   Ar  120   1.609   6.769   2.557
    1   AR   Ar  121   5.598   4.430   5.420
    1   AR   Ar  122   3.005   5.561   4.037
    1   AR   Ar  123   3.197   3.529   5.538
    1   AR   Ar  124   0.715   5.105   1.444
    1   AR   Ar  125   5.766   3.515   5.041
    1   AR   Ar  126   6.847   0.649   7.277
    1   AR   Ar  127   4.392   3.309   6.071
    1   AR   Ar  128   2.419   4.268   7.142
    1   AR   Ar  129   1.952   5.075   4.935
    1   AR   Ar  130   4.077   1.959  -5.099
    1   AR   Ar  131   4.255   4.938  -2.025
    1   AR   Ar  132   0.424   1.751   0.496
    1   AR   Ar  133   4.355   0.196   4.483
    1   AR   Ar  134   3.342   1.166   4.167
    1   AR   Ar  135   5.961   1.550   3.915
    1   AR   Ar  136   5.902   0.107   2.763
    1   AR   Ar  137   3.021   4.361   6.218
    1   AR   Ar  138   5.574   1.447   5.507
    1   AR   Ar  139   6.008   2.579   5.446
    1   AR   Ar  140   4.612   6.435   4.884
    1   AR   Ar  141   4.156   5.722   4.218
    1   AR   Ar  142   4.903   0.043   7.389
    1   AR   Ar  143   5.561   6.578   6.818
    1   AR   Ar  144   6.870   1.176   4.838
    1   AR   Ar  145   4.544   5.022  -0.838
    1   AR   Ar  146   3.492   2.584   2.926
    1   AR   Ar  147   5.285   4.048  -0.843
    1   AR   Ar  148   2.898   6.452  -1.574
    1   AR   Ar  149   1.322   0.997  -0.215
    1   AR   Ar  150   2.235   2.517   2.712
    1   AR   Ar  151   2.547   3.197   3.383
    1   AR   Ar  152   0.952   1.991  -2.343
    1   AR   Ar  153   5.549   0.694   3.488
    1   AR   Ar  154   4.524   2.587   4.311
    1   AR   Ar  155   6.517   3.850   5.822
    1   AR   Ar  156   2.753   4.991   3.125
    1   AR   Ar  157   2.122   5.449   6.688
    1   AR   Ar  158   0.413   1.477   5.710
    1   AR   Ar  159   4.143   0.401   6.583
    1   AR   Ar  160   1.292   1.172   5.039
    1   AR   Ar  161   4.675   4.423   3.146
    1   AR   Ar  162   4.191   6.051  -0.403
    1   AR   Ar  163   5.942   4.332   1.824
    1   AR   Ar  164   2.119   5.790   2.080
    1   AR   Ar  165   3.405   4.173   1.216
    1   AR   Ar  166   2.799   3.424   4.485
    1   AR   Ar  167   6.477   6.568   3.337
    1   AR   Ar  168   5.367   4.093  -1.965
    1   AR   Ar  169   3.715   3.531   3.254
    1   AR   Ar  170   2.157   3.390   6.224
    1   AR   Ar  171   5.269   5.024   4.106
    1   AR   Ar  172   3.882   3.769   4.768
    1   AR   Ar  173   2.474   2.221   6.063
    1   AR   Ar  174   3.410   6.531   4.653
    1   AR   Ar  175   3.190   0.751   6.132
    1   AR   Ar  176   3.479   2.766   4.097
    1   AR   Ar  177   0.784   4.699  -0.837
    1   AR   Ar  178   2.691   6.156   0.368
    1   AR   Ar  179   3.619   0.050   1.058
    1   AR   Ar  180   5.279   1.049  -6.670
    1   AR   Ar  181   6.839   5.582   1.560
    1   AR   Ar  182   0.695   6.156   2.369
    1   AR   Ar  183   4.780   5.613   1.699
    1   AR   Ar  184   4.484   6.212   0.579
    1   AR   Ar  185   3.129   4.553   4.592
    1   AR   Ar  186   3.131   5.946   2.834
    1   AR   Ar  187   4.078   6.555   3.648
    1   AR   Ar  188   3.032   6.795   2.072
    1   AR   Ar  189   5.733   2.875   6.423
    1   AR   Ar  190   2.371   6.382   3.671
    1   AR   Ar  191   3.518   6.008   6.993
    1   AR   Ar  192   4.323   4.363   5.813
    1   AR   Ar  193   2.783   6.070   1.340
    1   AR   Ar  194   5.714   5.163  -1.095
    1   AR   Ar  195   5.584   1.346   0.660
    1   AR   Ar  196   3.456   0.839  -0.074
    1   AR   Ar  197   4.799   2.371   0.685
    1   AR   Ar  198   5.813   6.959   1.804
    1   AR   Ar  199   1.909   0.345   3.489
    1   AR   Ar  200   5.235   2.960  -0.101
    1   AR   Ar  201   6.816   6.715   2.150
    1   AR   Ar  202   5.259   0.870   4.605
    1   AR   Ar  203   0.396   6.590   3.291
    1   AR   Ar  204   4.659   5.879   6.929
    1   AR   Ar  205   5.861   2.047   1.944
    1   AR   Ar  206   5.858   0.649   6.150
    1   AR   Ar  207   6.976   3.032   5.001
    1   AR   Ar  208   1.234   5.951   4.356
    1   AR   Ar  209   0.048   2.503  -1.821
    1   AR   Ar  210   1.327   7.042   0.230
    1   AR   Ar  211   7.038   2.794   0.913
    1   AR   Ar  212   5.989   3.910  -0.016
    1   AR   Ar  213   3.746   1.829   1.921
    1   AR   Ar  214   4.849   4.529   2.025
    1   AR   Ar  215   6.826   2.705   2.179
    1   AR   Ar  216   1.401   2.215   0.875
    1   AR   Ar  217   4.816   1.365   3.382
    1   AR   Ar  218   4.815   3.209   5.062
    1   AR   Ar  219   4.802   3.384   2.872
    1   AR   Ar  220   4.884   3.792   1.179
    1   AR   Ar  221   7.015   5.857   3.887
    1   AR   Ar  222   4.617   0.644   5.649
    1   AR   Ar  223   6.617   1.470   6.548
    1   AR   Ar  224   4.935   2.205   5.270
    1   AR   Ar  225   6.423   2.936   3.114
    1   AR   Ar  226   1.252   3.185   3.415
    1   AR   Ar  227   0.818   3.289   2.379
    1   AR   Ar  228   6.278   1.137   1.754
    1   AR   Ar  229   6.305   4.184  -1.106
    1   AR   Ar  230   4.231   4.659   3.974
    1   AR   Ar  231   4.529   2.110   2.663
    1   AR   Ar  232   5.263   2.927   2.013
    1   AR   Ar  233   6.684   2.586   4.058
    1   AR   Ar  234   5.705   2.686   4.306
    1   AR   Ar  235   0.000   0.400   3.323
    1   AR   Ar  236   4.819   5.364   5.278
    1   AR   Ar  237   4.758   1.913   6.394
    1   AR   Ar  238   5.729   5.429   7.027
    1   AR   Ar  239   1.082   4.674  10.319
    1   AR   Ar  240   1.398   2.461   6.663
    1   AR   Ar  241   1.751   6.184  -0.270
    1   AR   Ar  242   5.763   5.846   1.423
    1   AR   Ar  243   5.183   6.331   2.341
    1   AR   Ar  244   0.176   5.447   0.474
    1   AR   Ar  245   4.014   0.588   3.459
    1   AR   Ar  246   5.537   6.356  -0.465
    1   AR   Ar  247   0.117   3.695   1.652
    1   AR   Ar  248   5.196   5.393   0.042
    1   AR   Ar  249   4.616   6.721   1.455
    1   AR   Ar  250   5.437   6.782   3.633
    1   AR   Ar  251   4.699   4.353   4.788
    1   AR   Ar  252   2.674   4.776   1.970
    1   AR   Ar  253   6.017   2.287   7.338
    1   AR   Ar  254   5.866   2.872   9.846
    1   AR   Ar  255   3.957   5.742   9.314
    1   AR   Ar  256   6.009   5.548   3.531
    7.12000  7.12000 12.00000
Argon-slab step 4810
  256
    1   AR   Ar    1   5.200   2.908  -2.444
    1   AR   Ar    2   5.882   6.561   0.488
    1   AR   Ar    3   4.253   3.546  -1.052
    1   AR   Ar    4   2.449   1.194   1.357
    1   AR   Ar    5   6.263   5.443  -0.152
    1   AR   Ar    6   1.397   1.969   2.372
    1   AR   Ar    7   5.744   4.515   3.397
    1   AR   Ar    8   6.216   2.846  -1.784
    1   AR   Ar    9   0.410   6.934   4.433
    1   AR   Ar   10   5.835   5.402   5.136
    1   AR   Ar   11   1.417   0.065   5.095
    1   AR   Ar   12   7.088   1.778   3.615
    1   AR   Ar   13   6.697   0.447   4.294
    1   AR   Ar   14   3.713   1.671   6.363
    1   AR   Ar   15   3.288   0.454   9.772
    1   AR   Ar   16   0.886   0.189   5.952
    1   AR   Ar   17   5.806   2.977   0.938
    1   AR   Ar   18   6.858   5.403  -1.086
    1   AR   Ar   19   5.195   4.545   0.542
    1   AR   Ar   20   6.335   3.647  -2.738
    1   AR   Ar   21   2.709   1.492   2.269
    1   AR   Ar   22   5.642   1.283   2.704
    1   AR   Ar   23   0.341   6.468   1.031
    1   AR   Ar   24   5.626   2.249   3.219
    1   AR   Ar   25   0.390   2.256   4.542
    1   AR   Ar   26   5.677   7.037   4.539
    1   AR   Ar   27   1.921   0.478   1.852
    1   AR   Ar   28   1.736   2.282   3.877
    1   AR   Ar   29   4.439   1.177   7.227
    1   AR   Ar   30   0.583   1.154   2.904
    1   AR   Ar   31   3.309   1.058   7.302
    1   AR   Ar   32   1.212   2.673   5.556
    1   AR   Ar   33   0.323   4.391   0.164
    1   AR   Ar   34   1.042   5.054   2.474
    1   AR   Ar   35   6.060   5.368   2.367
    1   AR   Ar   36   5.869   1.961  -2.449
    1   AR   Ar   37   4.109   3.026   2.100
    1   AR   Ar   38   6.042   4.259   4.384
    1   AR   Ar   39   0.227   3.249   3.715
    1   AR   Ar   40   1.566   3.997   1.909
    1   AR   Ar   41   0.496   2.370   2.892
    1   AR   Ar   42   4.977   6.252   5.799
    1   AR   Ar   43   0.085   2.729   6.054
    1   AR   Ar   44   0.665   4.161   3.144
    1   AR   Ar   45   0.559   3.498   5.578
    1   AR   Ar   46   0.390   4.803   6.452
    1   AR   Ar   47   4.077   4.538   7.637
    1   AR   Ar   48   6.661   3.448   7.349
    1   AR   Ar   49   6.765   0.691  -0.539
    1   AR   Ar   50   3.910   5.390   0.428
    1   AR   Ar   51   5.971   3.656   2.572
    1   AR   Ar   52   5.217   3.042  -1.209
    1   AR   Ar   53   4.791   0.193   2.480
    1   AR   Ar   54   0.534   0.192   2.276
    1   AR   Ar   55   6.748   4.251   3.137
    1   AR   Ar   56   6.527   1.781   2.723
    1   AR   Ar   57   3.761   4.304   2.266
    1   AR   Ar   58   0.964   3.875   4.230
    1   AR   Ar   59   2.687   5.526   5.529
    1   AR   Ar   60   0.356   5.516   3.031
    1   AR   Ar   61   0.331   3.578   6.571
    1   AR   Ar   62   0.068   4.481   4.948
    1   AR   Ar   63   2.755   2.494   7.004
    1   AR   Ar   64   7.019   5.543   4.888
    1   AR   Ar   65   3.630   0.590   2.186
    1   AR   Ar   66   1.267   1.042   1.174
    1   AR   Ar   67   4.717   7.012  -0.361
    1   AR   Ar   68   0.479   1.024  -0.978
    1   AR   Ar   69   2.256   1.514   0.223
    1   AR   Ar   70   0.445   2.003   1.563
    1   AR   Ar   71   2.820   0.540   2.910
    1   AR   Ar   72   4.634   1.175   1.492
    1   AR   Ar   73   3.075   0.178   3.958
    1   AR   Ar   74   0.662   0.843   4.151
    1   AR   Ar   75   3.431   0.546   5.102
    1   AR   Ar   76   2.476   0.022   1.077
    1   AR   Ar   77   1.886   6.361   5.697
    1   AR   Ar   78   6.408   5.050   6.048
    1   AR   Ar   79   3.572   6.720   5.888
    1   AR   Ar   80   3.776   5.713   5.450
    1   AR   Ar   81   1.303   6.590   1.353
    1   AR   Ar   82   6.322   4.648   0.778
    1   AR   Ar   83   0.850   3.245   0.665
    1   AR   Ar   84   1.171   4.367   0.733
    1   AR   Ar   85   1.476   4.171  -0.277
    1   AR   Ar   86   1.585   5.646   0.868
    1   AR   Ar   87   2.942   3.647   2.582
    1   AR   Ar   88   3.569   5.464   1.578
    1   AR   Ar   89   6.397   1.975   0.837
    1   AR   Ar   90   3.103   1.542   5.222
    1   AR   Ar   91   2.052   1.378   3.267
    1   AR   Ar   92   1.934   2.887   1.386
    1   AR   Ar   93   1.768   1.265   6.085
    1   AR   Ar   94   1.665   6.681   9.167
    1   AR   Ar   95   4.180   1.400   5.220
    1   AR   Ar   96   2.507   6.893   4.908
    1   AR   Ar   97   3.054   2.369  -0.915
    1   AR   Ar   98   1.932   4.398   4.143
    1   AR   Ar   99   5.702   0.612  -0.737
    1   AR   Ar  100   0.220   3.359  -3.051
    1   AR   Ar  101   4.071   6.325   2.313
    1   AR   Ar  102   3.800   1.550   3.161
    1   AR   Ar  103   2.228   4.170   0.952
    1   AR   Ar  104   3.802   5.906  -1.329
    1   AR   Ar  105   2.848   2.171   3.629
    1   AR   Ar  106   3.706   2.549   5.113
    1   AR   Ar  107   0.924   5.364   5.361
    1   AR   Ar  108   2.382   1.009   4.651
    1   AR   Ar  109   1.611   4.067   5.486
    1   AR   Ar  110   2.189   2.087   4.856
    1   AR   Ar  111   3.976   5.999   7.990
    1   AR   Ar  112   0.240   5.916   6.189
    1   AR   Ar  113   1.946   5.601  -1.054
    1   AR   Ar  114   2.449   0.201  -0.215
    1   AR   Ar  115   1.251   5.187  -0.003
    1   AR   Ar  116   4.848   0.303   0.572
    1   AR   Ar  117   0.460   4.918   3.878
    1   AR   Ar  118   1.541   5.736   3.116
    1   AR   Ar  119   1.922   3.962   2.840
    1   AR   Ar  120   1.591   6.741   2.565
    1   AR   Ar  121   5.631   4.421   5.430
    1   AR   Ar  122   3.040   5.563   4.062
    1   AR   Ar  123   3.244   3.527   5.538
    1   AR   Ar  124   0.717   5.087   1.439
    1   AR   Ar  125   5.732   3.531   5.039
    1   AR   Ar  126   6.854   0.605   7.323
    1   AR   Ar  127   4.405   3.312   6.107
    1   AR   Ar  128   2.381   4.233   7.165
    1   AR   Ar  129   1.954   5.064   4.954
    1   AR   Ar  130   4.081   1.941  -5.087
    1   AR   Ar  131   4.266   4.985  -1.980
    1   AR   Ar  132   0.429   1.773   0.491
    1   AR   Ar  133   4.369   0.203   4.479
    1   AR   Ar  134   3.357   1.193   4.136
    1   AR   Ar  135   5.995   1.574   3.918
    1   AR   Ar  136   5.896   0.109   2.753
    1   AR   Ar  137   2.996   4.371   6.227
    1   AR   Ar  138   5.565   1.432   5.499
    1   AR   Ar  139   6.027   2.587   5.418
    1   AR   Ar  140   4.598   6.427   4.881
    1   AR   Ar  141   4.160   5.722   4.219
    1   AR   Ar  142   4.893   0.013   7.395
    1   AR   Ar  143   5.539   6.552   6.794
    1   AR   Ar  144   6.865   1.200   4.852
    1   AR   Ar  145   4.526   5.067  -0.836
    1   AR   Ar  146   3.501   2.596   2.927
    1   AR   Ar  147   5.274   4.084  -0.830
    1   AR   Ar  148   2.886   6.461  -1.586
    1   AR   Ar  149   1.305   0.986  -0.214
    1   AR   Ar  150   2.227   2.495   2.717
    1   AR   Ar  151   2.519   3.200   3.406
    1   AR   Ar  152   0.954   1.956  -2.358
    1   AR   Ar  153   5.565   0.726   3.486
    1   AR   Ar  154   4.495   2.636   4.297
    1   AR   Ar  155   6.528   3.844   5.830
    1   AR   Ar  156   2.773   5.006   3.146
    1   AR   Ar  157   2.149   5.422   6.673
    1   AR   Ar  158   0.432   1.466   5.737
    1   AR   Ar  159   4.132   0.402   6.549
    1   AR   Ar  160   1.266   1.142   5.050
    1   AR   Ar  161   4.679   4.430   3.149
    1   AR   Ar  162   4.208   6.055  -0.386
    1   AR   Ar  163   5.948   4.345   1.822
    1   AR   Ar  164   2.101   5.792   2.059
    1   AR   Ar  165   3.411   4.167   1.194
    1   AR   Ar  166   2.784   3.393   4.485
    1   AR   Ar  167   6.489   6.545   3.337
    1   AR   Ar  168   5.358   4.059  -1.931
    1   AR   Ar  169   3.700   3.557   3.238
    1   AR   Ar  170   2.198   3.386   6.209
    1   AR   Ar  171   5.237   4.992   4.112
    1   AR   Ar  172   3.903   3.782   4.779
    1   AR   Ar  173   2.442   2.247   6.079
    1   AR   Ar  174   3.414   6.515   4.677
    1   AR   Ar  175   3.182   0.777   6.133
    1   AR   Ar  176   3.494   2.767   4.116
    1   AR   Ar  177   0.763   4.687  -0.839
    1   AR   Ar  178   2.677   6.144   0.359
    1   AR   Ar  179   3.633   0.048   1.023
    1   AR   Ar  180   5.258   1.017  -6.674
    1   AR   Ar  181   6.848   5.565   1.612
    1   AR   Ar  182   0.722   6.158   2.336
    1   AR   Ar  183   4.756   5.628   1.679
    1   AR   Ar  184   4.497   6.222   0.596
    1   AR   Ar  185   3.107   4.561   4.581
    1   AR   Ar  186   3.122   5.941   2.835
    1   AR   Ar  187   4.070   6.571   3.673
    1   AR   Ar  188   3.077   6.796   2.096
    1   AR   Ar  189   5.757   2.858   6.424
    1   AR   Ar  190   2.370   6.349   3.673
    1   AR   Ar  191   3.496   6.004   6.966
    1   AR   Ar  192   4.331   4.351   5.792
    1   AR   Ar  193   2.799   6.078   1.360
    1   AR   Ar  194   5.687   5.202  -1.101
    1   AR   Ar  195   5.592   1.342   0.669
    1   AR   Ar  196   3.459   0.854  -0.048
    1   AR   Ar  197   4.791   2.390   0.664
    1   AR   Ar  198   5.809   6.956   1.772
    1   AR   Ar  199   1.906   0.378   3.459
    1   AR   Ar  200   5.251   2.946  -0.103
    1   AR   Ar  201   6.808   6.711   2.179
    1   AR   Ar  202   5.225   0.862   4.606
    1   AR   Ar  203   0.420   6.620   3.318
    1   AR   Ar  204   4.650   5.900   6.912
    1   AR   Ar  205   5.853   2.033   1.944
    1   AR   Ar  206   5.861   0.652   6.160
    1   AR   Ar  207   6.970   3.032   5.023
    1   AR   Ar  208   1.219   5.927   4.341
    1   AR   Ar  209   0.046   2.459  -1.803
    1   AR   Ar  210   1.348   7.019   0.241
    1   AR   Ar  211   7.040   2.784   0.941
    1   AR   Ar  212   6.011   3.914  -0.022
    1   AR   Ar  213   3.748   1.836   1.906
    1   AR   Ar  214   4.850   4.547   2.053
    1   AR   Ar  215   6.827   2.708   2.153
    1   AR   Ar  216   1.375   2.229   0.883
    1   AR   Ar  217   4.833   1.382   3.375
    1   AR   Ar  218   4.825   3.186   5.062
    1   AR   Ar  219   4.783   3.377   2.838
    1   AR   Ar  220   4.902   3.805   1.201
    1   AR   Ar  221   7.032   5.847   3.882
    1   AR   Ar  222   4.627   0.620   5.667
    1   AR   Ar  223   6.608   1.481   6.528
    1   AR   Ar  224   4.916   2.201   5.226
    1   AR   Ar  225   6.443   2.920   3.125
    1   AR   Ar  226   1.256   3.177   3.423
    1   AR   Ar  227   0.864   3.293   2.373
    1   AR   Ar  228   6.284   1.132   1.759
    1   AR   Ar  229   6.277   4.146  -1.093
    1   AR   Ar  230   4.228   4.644   3.965
    1   AR   Ar  231   4.533   2.104   2.658
    1   AR   Ar  232   5.253   2.929   2.018
    1   AR   Ar  233   6.680   2.585   4.094
    1   AR   Ar  234   5.708   2.674   4.316
    1   AR   Ar  235   7.118   0.363   3.317
    1   AR   Ar  236   4.801   5.343   5.283
    1   AR   Ar  237   4.778   1.874   6.385
    1   AR   Ar  238   5.730   5.394   7.022
    1   AR   Ar  239   1.078   4.671  10.357
    1   AR   Ar  240   1.369   2.485   6.660
    1   AR   Ar  241   1.734   6.160  -0.231
    1   AR   Ar  242   5.726   5.822   1.423
    1   AR   Ar  243   5.170   6.333   2.351
    1   AR   Ar  244   0.180   5.446   0.473
    1   AR   Ar  245   4.018   0.557   3.448
    1   AR   Ar  246   5.534   6.341  -0.475
    1   AR   Ar  247   0.123   3.700   1.652
    1   AR   Ar  248   5.195   5.394   0.041
    1   AR   Ar  249   4.607   6.744   1.432
    1   AR   Ar  250   5.409   6.770   3.637
    1   AR   Ar  251   4.696   4.317   4.817
    1   AR   Ar  252   2.664   4.756   1.972
    1   AR   Ar  253   6.003   2.291   7.372
    1   AR   Ar  254   5.905   2.911   9.850
    1   AR   Ar  255   3.982   5.752   9.283
    1   AR   Ar  256   6.023   5.549   3.552
    7.12000  7.12000 12.00000
Argon-slab step 4815
  256
    1   AR   Ar    1   5.215   2.910  -2.403
    1   AR   Ar    2   5.872   6.528   0.491
    1   AR   Ar    3   4.260   3.542  -0.997
    1   AR   Ar    4   2.475   1.201   1.370
    1   AR   Ar    5   6.295   5.442  -0.176
    1   AR   Ar    6   1.379   1.985   2.371
    1   AR   Ar    7   5.739   4.531   3.384
    1   AR   Ar    8   6.182   2.853  -1.809
    1   AR   Ar    9   0.427   6.902   4.421
    1   AR   Ar   10   5.818   5.366   5.125
    1   AR   Ar   11   1.366   0.022   5.114
    1   AR   Ar   12   7.066   1.762   3.647
    1   AR   Ar   13   6.677   0.467   4.286
    1   AR   Ar   14   3.716   1.698   6.402
    1   AR   Ar   15   3.324   0.493   9.760
    1   AR   Ar   16   0.903   0.191   5.947
    1   AR   Ar   17   5.834   2.989   0.943
    1   AR   Ar   18   6.864   5.381  -1.102
    1   AR   Ar   19   5.187   4.559   0.580
    1   AR   Ar   20   6.328   3.631  -2.687
    1   AR   Ar   21   2.698   1.488   2.301
    1   AR   Ar   22   5.670   1.277   2.699
    1   AR   Ar   23   0.356   6.470   0.981
    1   AR   Ar   24   5.644   2.211   3.192
    1   AR   Ar   25   0.410   2.245   4.556
    1   AR   Ar   26   5.645   7.051   4.547
    1   AR   Ar   27   1.921   0.476   1.850
    1   AR   Ar   28   1.728   2.287   3.885
    1   AR   Ar   29   4.444   1.179   7.205
    1   AR   Ar   30   0.590   1.147   2.879
    1   AR   Ar   31   3.331   1.063   7.297
    1   AR   Ar   32   1.224   2.662   5.547
    1   AR   Ar   33   0.315   4.402   0.136
    1   AR   Ar   34   1.054   5.038   2.469
    1   AR   Ar   35   6.071   5.332   2.357
    1   AR   Ar   36   5.859   1.951  -2.447
    1   AR   Ar   37   4.123   3.028   2.094
    1   AR   Ar   38   6.077   4.222   4.399
    1   AR   Ar   39   0.221   3.232   3.730
    1   AR   Ar   40   1.549   3.965   1.901
    1   AR   Ar   41   0.501   2.366   2.904
    1   AR   Ar   42   4.974   6.234   5.826
    1   AR   Ar   43   0.083   2.703   6.027
    1   AR   Ar   44   0.624   4.168   3.132
    1   AR   Ar   45   0.579   3.508   5.566
    1   AR   Ar   46   0.385   4.819   6.453
    1   AR   Ar   47   4.058   4.566   7.633
    1   AR   Ar   48   6.691   3.487   7.339
    1   AR   Ar   49   6.757   0.702  -0.511
    1   AR   Ar   50   3.906   5.366   0.431
    1   AR   Ar   51   5.963   3.667   2.577
    1   AR   Ar   52   5.211   3.049  -1.170
    1   AR   Ar   53   4.770   0.160   2.474
    1   AR   Ar   54   0.561   0.181   2.288
    1   AR   Ar   55   6.756   4.265   3.126
    1   AR   Ar   56   6.532   1.778   2.742
    1   AR   Ar   57   3.749   4.308   2.235
    1   AR   Ar   58   0.954   3.864   4.221
    1   AR   Ar   59   2.703   5.526   5.521
    1   AR   Ar   60   0.323   5.516   2.998
    1   AR   Ar   61   0.323   3.588   6.575
    1   AR   Ar   62   0.077   4.481   4.924
    1   AR   Ar   63   2.783   2.488   7.054
    1   AR   Ar   64   7.026   5.571   4.876
    1   AR   Ar   65   3.633   0.605   2.216
    1   AR   Ar   66   1.245   1.047   1.162
    1   AR   Ar   67   4.731   6.983  -0.347
    1   AR   Ar   68   0.464   1.042  -1.031
    1   AR   Ar   69   2.215   1.499   0.236
    1   AR   Ar   70   0.438   1.982   1.564
    1   AR   Ar   71   2.828   0.519   2.927
    1   AR   Ar   72   4.630   1.175   1.493
    1   AR   Ar   73   3.043   0.184   3.958
    1   AR   Ar   74   0.667   0.835   4.115
    1   AR   Ar   75   3.450   0.554   5.107
    1   AR   Ar   76   2.467   0.006   1.063
    1   AR   Ar   77   1.885   6.359   5.686
    1   AR   Ar   78   6.415   5.027   6.037
    1   AR   Ar   79   3.596   6.726   5.913
    1   AR   Ar   80   3.775   5.707   5.462
    1   AR   Ar   81   1.307   6.619   1.368
    1   AR   Ar   82   6.309   4.644   0.788
    1   AR   Ar   83   0.864   3.242   0.664
    1   AR   Ar   84   1.163   4.405   0.748
    1   AR   Ar   85   1.465   4.190  -0.268
    1   AR   Ar   86   1.594   5.671   0.825
    1   AR   Ar   87   2.962   3.659   2.559
    1   AR   Ar   88   3.596   5.479   1.639
    1   AR   Ar   89   6.402   1.961   0.839
    1   AR   Ar   90   3.102   1.529   5.185
    1   AR   Ar   91   2.085   1.383   3.250
    1   AR   Ar   92   1.956   2.897   1.397
    1   AR   Ar   93   1.794   1.266   6.069
    1   AR   Ar   94   1.679   6.711   9.150
    1   AR   Ar   95   4.177   1.403   5.191
    1   AR   Ar   96   2.514   6.854   4.951
    1   AR   Ar   97   3.027   2.385  -0.938
    1   AR   Ar   98   1.939   4.419   4.166
    1   AR   Ar   99   5.697   0.609  -0.728
    1   AR   Ar  100   0.204   3.353  -3.095
    1   AR   Ar  101   4.074   6.357   2.334
    1   AR   Ar  102   3.805   1.544   3.149
    1   AR   Ar  103   2.191   4.179   0.958
    1   AR   Ar  104   3.785   5.942  -1.339
    1   AR   Ar  105   2.844   2.140   3.606
    1   AR   Ar  106   3.735   2.543   5.094
    1   AR   Ar  107   0.929   5.373   5.349
    1   AR   Ar  108   2.406   1.048   4.615
    1   AR   Ar  109   1.612   4.076   5.497
    1   AR   Ar  110   2.199   2.087   4.843
    1   AR   Ar  111   3.950   5.996   7.978
    1   AR   Ar  112   0.215   5.928   6.210
    1   AR   Ar  113   1.925   5.643  -1.061
    1   AR   Ar  114   2.473   0.226  -0.193
    1   AR   Ar  115   1.233   5.184  -0.007
    1   AR   Ar  116   4.859   0.323   0.558
    1   AR   Ar  117   0.409   4.904   3.883
    1   AR   Ar  118   1.544   5.718   3.084
    1   AR   Ar  119   1.920   3.942   2.843
    1   AR   Ar  120   1.575   6.714   2.573
    1   AR   Ar  121   5.661   4.422   5.448
    1   AR   Ar  122   3.077   5.566   4.089
    1   AR   Ar  123   3.288   3.523   5.542
    1   AR   Ar  124   0.718   5.069   1.432
    1   AR   Ar  125   5.718   3.536   5.035
    1   AR   Ar  126   6.859   0.562   7.368
    1   AR   Ar  127   4.417   3.312   6.140
    1   AR   Ar  128   2.349   4.206   7.179
    1   AR   Ar  129   1.953   5.053   4.973
    1   AR   Ar  130   4.084   1.923  -5.076
    1   AR   Ar  131   4.278   5.032  -1.932
    1   AR   Ar  132   0.433   1.796   0.485
    1   AR   Ar  133   4.379   0.216   4.472
    1   AR   Ar  134   3.373   1.221   4.106
    1   AR   Ar  135   6.033   1.599   3.924
    1   AR   Ar  136   5.893   0.110   2.742
    1   AR   Ar  137   2.971   4.382   6.235
    1   AR   Ar  138   5.557   1.417   5.490
    1   AR   Ar  139   6.046   2.592   5.390
    1   AR   Ar  140   4.580   6.427   4.871
    1   AR   Ar  141   4.164   5.715   4.225
    1   AR   Ar  142   4.880   7.104   7.401
    1   AR   Ar  143   5.518   6.524   6.767
    1   AR   Ar  144   6.870   1.228   4.860
    1   AR   Ar  145   4.508   5.111  -0.833
    1   AR   Ar  146   3.510   2.605   2.924
    1   AR   Ar  147   5.258   4.122  -0.815
    1   AR   Ar  148   2.873   6.471  -1.597
    1   AR   Ar  149   1.289   0.975  -0.210
    1   AR   Ar  150   2.220   2.472   2.720
    1   AR   Ar  151   2.491   3.204   3.438
    1   AR   Ar  152   0.955   1.922  -2.373
    1   AR   Ar  153   5.583   0.741   3.504
    1   AR   Ar  154   4.469   2.680   4.276
    1   AR   Ar  155   6.542   3.838   5.837
    1   AR   Ar  156   2.791   5.017   3.166
    1   AR   Ar  157   2.177   5.393   6.657
    1   AR   Ar  158   0.450   1.456   5.764
    1   AR   Ar  159   4.119   0.401   6.519
    1   AR   Ar  160   1.240   1.115   5.061
    1   AR   Ar  161   4.691   4.433   3.136
    1   AR   Ar  162   4.226   6.058  -0.369
    1   AR   Ar  163   5.954   4.363   1.815
    1   AR   Ar  164   2.078   5.793   2.043
    1   AR   Ar  165   3.417   4.163   1.172
    1   AR   Ar  166   2.765   3.368   4.488
    1   AR   Ar  167   6.479   6.543   3.359
    1   AR   Ar  168   5.351   4.024  -1.895
    1   AR   Ar  169   3.692   3.587   3.229
    1   AR   Ar  170   2.239   3.382   6.193
    1   AR   Ar  171   5.200   4.965   4.128
    1   AR   Ar  172   3.910   3.784   4.785
    1   AR   Ar  173   2.408   2.272   6.085
    1   AR   Ar  174   3.426   6.548   4.694
    1   AR   Ar  175   3.172   0.801   6.134
    1   AR   Ar  176   3.512   2.771   4.131
    1   AR   Ar  177   0.738   4.677  -0.844
    1   AR   Ar  178   2.662   6.133   0.342
    1   AR   Ar  179   3.646   0.045   0.989
    1   AR   Ar  180   5.237   0.984  -6.677
    1   AR   Ar  181   6.856   5.549   1.663
    1   AR   Ar  182   0.755   6.156   2.295
    1   AR   Ar  183   4.755   5.640   1.672
    1   AR   Ar  184   4.515   6.233   0.609
    1   AR   Ar  185   3.085   4.568   4.570
    1   AR   Ar  186   3.113   5.941   2.836
    1   AR   Ar  187   4.060   6.593   3.694
    1   AR   Ar  188   3.121   6.798   2.120
    1   AR   Ar  189   5.782   2.841   6.425
    1   AR   Ar  190   2.370   6.322   3.672
    1   AR   Ar  191   3.476   6.001   6.936
    1   AR   Ar  192   4.337   4.339   5.774
    1   AR   Ar  193   2.808   6.094   1.377
    1   AR   Ar  194   5.659   5.240  -1.105
    1   AR   Ar  195   5.596   1.335   0.679
    1   AR   Ar  196   3.467   0.839  -0.039
    1   AR   Ar  197   4.784   2.407   0.646
    1   AR   Ar  198   5.804   6.952   1.732
    1   AR   Ar  199   1.902   0.405   3.432
    1   AR   Ar  200   5.269   2.935  -0.106
    1   AR   Ar  201   6.798   6.704   2.210
    1   AR   Ar  202   5.189   0.858   4.607
    1   AR   Ar  203   0.405   6.615   3.318
    1   AR   Ar  204   4.641   5.922   6.895
    1   AR   Ar  205   5.842   2.026   1.942
    1   AR   Ar  206   5.864   0.653   6.172
    1   AR   Ar  207   6.958   3.032   5.042
    1   AR   Ar  208   1.203   5.901   4.325
    1   AR   Ar  209   0.050   2.413  -1.786
    1   AR   Ar  210   1.369   6.998   0.255
    1   AR   Ar  211   7.043   2.778   0.971
    1   AR   Ar  212   6.027   3.906  -0.016
    1   AR   Ar  213   3.746   1.848   1.892
    1   AR   Ar  214   4.852   4.565   2.081
    1   AR   Ar  215   6.828   2.710   2.124
    1   AR   Ar  216   1.344   2.235   0.887
    1   AR   Ar  217   4.846   1.406   3.370
    1   AR   Ar  218   4.822   3.192   5.056
    1   AR   Ar  219   4.764   3.372   2.809
    1   AR   Ar  220   4.920   3.813   1.228
    1   AR   Ar  221   7.045   5.857   3.904
    1   AR   Ar  222   4.644   0.591   5.684
    1   AR   Ar  223   6.599   1.493   6.507
    1   AR   Ar  224   4.896   2.193   5.183
    1   AR   Ar  225   6.467   2.901   3.137
    1   AR   Ar  226   1.263   3.170   3.430
    1   AR   Ar  227   0.893   3.281   2.384
    1   AR   Ar  228   6.293   1.122   1.763
    1   AR   Ar  229   6.252   4.110  -1.081
    1   AR   Ar  230   4.206   4.625   3.971
    1   AR   Ar  231   4.540   2.104   2.649
    1   AR   Ar  232   5.245   2.931   2.019
    1   AR   Ar  233   6.669   2.584   4.130
    1   AR   Ar  234   5.702   2.662   4.329
    1   AR   Ar  235   7.112   0.335   3.316
    1   AR   Ar  236   4.765   5.327   5.270
    1   AR   Ar  237   4.800   1.835   6.374
    1   AR   Ar  238   5.730   5.360   7.016
    1   AR   Ar  239   1.074   4.668  10.395
    1   AR   Ar  240   1.342   2.511   6.657
    1   AR   Ar  241   1.718   6.138  -0.188
    1   AR   Ar  242   5.694   5.800   1.421
    1   AR   Ar  243   5.161   6.333   2.363
    1   AR   Ar  244   0.184   5.445   0.474
    1   AR   Ar  245   4.024   0.523   3.436
    1   AR   Ar  246   5.530   6.322  -0.488
    1   AR   Ar  247   0.128   3.705   1.650
    1   AR   Ar  248   5.192   5.406   0.034
    1   AR   Ar  249   4.601   6.773   1.420
    1   AR   Ar  250   5.376   6.753   3.628
    1   AR   Ar  251   4.714   4.289   4.849
    1   AR   Ar  252   2.654   4.736   1.974
    1   AR   Ar  253   5.989   2.295   7.405
    1   AR   Ar  254   5.944   2.950   9.854
    1   AR   Ar  255   4.007   5.762   9.251
    1   AR   Ar  256   6.023   5.527   3.536
    7.12000  7.12000 12.00000
Argon-slab step 4820
  256
    1   AR   Ar    1   5.230   2.912  -2.361
    1   AR   Ar    2   5.860   6.494   0.498
    1   AR   Ar    3   4.267   3.540  -0.942
    1   AR   Ar    4   2.500   1.207   1.370
    1   AR   Ar    5   6.327   5.441  -0.197
    1   AR   Ar    6   1.349   2.004   2.362
    1   AR   Ar    7   5.737   4.541   3.365
    1   AR   Ar    8   6.146   2.862  -1.835
    1   AR   Ar    9   0.445   6.868   4.408
    1   AR   Ar   10   5.824   5.364   5.139
    1   AR   Ar   11   1.323   7.095   5.117
    1   AR   Ar   12   7.049   1.742   3.680
    1   AR   Ar   13   6.651   0.475   4.268
    1   AR   Ar   14   3.721   1.714   6.433
    1   AR   Ar   15   3.360   0.531   9.748
    1   AR   Ar   16   0.914   0.197   5.955
    1   AR   Ar   17   5.861   3.001   0.949
    1   AR   Ar   18   6.871   5.356  -1.118
    1   AR   Ar   19   5.182   4.570   0.618
    1   AR   Ar   20   6.344   3.646  -2.648
    1   AR   Ar   21   2.690   1.516   2.318
    1   AR   Ar   22   5.692   1.271   2.679
    1   AR   Ar   23   0.368   6.469   0.931
    1   AR   Ar   24   5.647   2.199   3.204
    1   AR   Ar   25   0.425   2.227   4.579
    1   AR   Ar   26   5.632   7.070   4.543
    1   AR   Ar   27   1.917   0.470   1.854
    1   AR   Ar   28   1.721   2.292   3.892
    1   AR   Ar   29   4.415   1.176   7.196
    1   AR   Ar   30   0.597   1.142   2.853
    1   AR   Ar   31   3.353   1.069   7.289
    1   AR   Ar   32   1.237   2.648   5.537
    1   AR   Ar   33   0.323   4.387   0.130
    1   AR   Ar   34   1.070   5.014   2.460
    1   AR   Ar   35   6.079   5.296   2.350
    1   AR   Ar   36   5.849   1.942  -2.445
    1   AR   Ar   37   4.131   3.029   2.084
    1   AR   Ar   38   6.116   4.192   4.409
    1   AR   Ar   39   0.218   3.219   3.742
    1   AR   Ar   40   1.531   3.935   1.884
    1   AR   Ar   41   0.494   2.348   2.905
    1   AR   Ar   42   4.971   6.216   5.857
    1   AR   Ar   43   0.078   2.672   6.001
    1   AR   Ar   44   0.596   4.171   3.118
    1   AR   Ar   45   0.604   3.526   5.550
    1   AR   Ar   46   0.385   4.820   6.462
    1   AR   Ar   47   4.039   4.596   7.629
    1   AR   Ar   48   6.719   3.526   7.330
    1   AR   Ar   49   6.769   0.688  -0.471
    1   AR   Ar   50   3.901   5.341   0.435
    1   AR   Ar   51   5.952   3.675   2.584
    1   AR   Ar   52   5.208   3.058  -1.135
    1   AR   Ar   53   4.747   0.131   2.469
    1   AR   Ar   54   0.591   0.169   2.302
    1   AR   Ar   55   6.767   4.280   3.095
    1   AR   Ar   56   6.547   1.779   2.760
    1   AR   Ar   57   3.739   4.314   2.204
    1   AR   Ar   58   0.943   3.856   4.212
    1   AR   Ar   59   2.722   5.528   5.515
    1   AR   Ar   60   0.285   5.516   2.967
    1   AR   Ar   61   0.315   3.601   6.582
    1   AR   Ar   62   0.087   4.480   4.901
    1   AR   Ar   63   2.812   2.483   7.106
    1   AR   Ar   64   7.034   5.597   4.870
    1   AR   Ar   65   3.638   0.622   2.246
    1   AR   Ar   66   1.223   1.052   1.149
    1   AR   Ar   67   4.743   6.956  -0.337
    1   AR   Ar   68   0.454   1.062  -1.086
    1   AR   Ar   69   2.173   1.483   0.250
    1   AR   Ar   70   0.431   1.961   1.567
    1   AR   Ar   71   2.838   0.500   2.943
    1   AR   Ar   72   4.627   1.175   1.496
    1   AR   Ar   73   3.003   0.181   3.950
    1   AR   Ar   74   0.670   0.828   4.078
    1   AR   Ar   75   3.472   0.557   5.110
    1   AR   Ar   76   2.453   7.105   1.051
    1   AR   Ar   77   1.883   6.354   5.675
    1   AR   Ar   78   6.423   4.985   6.029
    1   AR   Ar   79   3.621   6.732   5.936
    1   AR   Ar   80   3.775   5.703   5.472
    1   AR   Ar   81   1.316   6.650   1.386
    1   AR   Ar   82   6.298   4.641   0.797
    1   AR   Ar   83   0.879   3.239   0.664
    1   AR   Ar   84   1.156   4.441   0.765
    1   AR   Ar   85   1.457   4.204  -0.258
    1   AR   Ar   86   1.605   5.699   0.788
    1   AR   Ar   87   2.978   3.662   2.572
    1   AR   Ar   88   3.628   5.491   1.702
    1   AR   Ar   89   6.410   1.948   0.842
    1   AR   Ar   90   3.104   1.525   5.152
    1   AR   Ar   91   2.121   1.396   3.232
    1   AR   Ar   92   1.980   2.911   1.411
    1   AR   Ar   93   1.820   1.269   6.052
    1   AR   Ar   94   1.679   6.720   9.140
    1   AR   Ar   95   4.172   1.406   5.160
    1   AR   Ar   96   2.513   6.821   4.994
    1   AR   Ar   97   3.000   2.400  -0.961
    1   AR   Ar   98   1.947   4.435   4.184
    1   AR   Ar   99   5.691   0.604  -0.718
    1   AR   Ar  100   0.188   3.346  -3.138
    1   AR   Ar  101   4.077   6.388   2.356
    1   AR   Ar  102   3.820   1.526   3.144
    1   AR   Ar  103   2.157   4.188   0.964
    1   AR   Ar  104   3.770   5.975  -1.351
    1   AR   Ar  105   2.836   2.105   3.585
    1   AR   Ar  106   3.767   2.536   5.083
    1   AR   Ar  107   0.933   5.382   5.336
    1   AR   Ar  108   2.430   1.063   4.601
    1   AR   Ar  109   1.613   4.084   5.507
    1   AR   Ar  110   2.210   2.088   4.832
    1   AR   Ar  111   3.925   5.992   7.966
    1   AR   Ar  112   0.190   5.938   6.229
    1   AR   Ar  113   1.906   5.681  -1.073
    1   AR   Ar  114   2.497   0.250  -0.168
    1   AR   Ar  115   1.212   5.181  -0.015
    1   AR   Ar  116   4.871   0.345   0.549
    1   AR   Ar  117   0.358   4.887   3.892
    1   AR   Ar  118   1.549   5.703   3.055
    1   AR   Ar  119   1.925   3.929   2.854
    1   AR   Ar  120   1.563   6.690   2.582
    1   AR   Ar  121   5.689   4.429   5.472
    1   AR   Ar  122   3.113   5.570   4.116
    1   AR   Ar  123   3.328   3.517   5.551
    1   AR   Ar  124   0.719   5.055   1.426
    1   AR   Ar  125   5.735   3.524   5.036
    1   AR   Ar  126   6.865   0.519   7.412
    1   AR   Ar  127   4.429   3.311   6.172
    1   AR   Ar  128   2.343   4.206   7.158
    1   AR   Ar  129   1.949   5.044   4.994
    1   AR   Ar  130   4.088   1.905  -5.065
    1   AR   Ar  131   4.290   5.080  -1.884
    1   AR   Ar  132   0.435   1.817   0.480
    1   AR   Ar  133   4.383   0.234   4.463
    1   AR   Ar  134   3.390   1.250   4.078
    1   AR   Ar  135   6.072   1.622   3.936
    1   AR   Ar  136   5.891   0.110   2.730
    1   AR   Ar  137   2.945   4.393   6.241
    1   AR   Ar  138   5.550   1.402   5.482
    1   AR   Ar  139   6.065   2.592   5.362
    1   AR   Ar  140   4.586   6.422   4.854
    1   AR   Ar  141   4.168   5.701   4.234
    1   AR   Ar  142   4.865   7.077   7.407
    1   AR   Ar  143   5.501   6.496   6.738
    1   AR   Ar  144   6.884   1.227   4.851
    1   AR   Ar  145   4.492   5.155  -0.831
    1   AR   Ar  146   3.519   2.612   2.919
    1   AR   Ar  147   5.236   4.161  -0.797
    1   AR   Ar  148   2.869   6.466  -1.630
    1   AR   Ar  149   1.273   0.963  -0.205
    1   AR   Ar  150   2.218   2.448   2.725
    1   AR   Ar  151   2.464   3.207   3.473
    1   AR   Ar  152   0.955   1.888  -2.387
    1   AR   Ar  153   5.605   0.741   3.539
    1   AR   Ar  154   4.456   2.718   4.249
    1   AR   Ar  155   6.556   3.830   5.842
    1   AR   Ar  156   2.807   5.022   3.186
    1   AR   Ar  157   2.206   5.364   6.639
    1   AR   Ar  158   0.469   1.447   5.791
    1   AR   Ar  159   4.102   0.398   6.495
    1   AR   Ar  160   1.216   1.088   5.071
    1   AR   Ar  161   4.707   4.433   3.114
    1   AR   Ar  162   4.243   6.059  -0.355
    1   AR   Ar  163   5.959   4.383   1.804
    1   AR   Ar  164   2.051   5.792   2.030
    1   AR   Ar  165   3.422   4.159   1.152
    1   AR   Ar  166   2.743   3.347   4.495
    1   AR   Ar  167   6.463   6.544   3.378
    1   AR   Ar  168   5.344   3.987  -1.860
    1   AR   Ar  169   3.694   3.621   3.230
    1   AR   Ar  170   2.232   3.355   6.179
    1   AR   Ar  171   5.162   4.942   4.149
    1   AR   Ar  172   3.903   3.776   4.783
    1   AR   Ar  173   2.372   2.294   6.087
    1   AR   Ar  174   3.449   6.577   4.709
    1   AR   Ar  175   3.162   0.826   6.135
    1   AR   Ar  176   3.519   2.777   4.135
    1   AR   Ar  177   0.709   4.669  -0.851
    1   AR   Ar  178   2.647   6.124   0.324
    1   AR   Ar  179   3.659   0.042   0.956
    1   AR   Ar  180   5.216   0.952  -6.680
    1   AR   Ar  181   6.867   5.534   1.713
    1   AR   Ar  182   0.786   6.154   2.249
    1   AR   Ar  183   4.749   5.649   1.670
    1   AR   Ar  184   4.535   6.239   0.616
    1   AR   Ar  185   3.062   4.574   4.560
    1   AR   Ar  186   3.105   5.944   2.835
    1   AR   Ar  187   4.049   6.618   3.713
    1   AR   Ar  188   3.161   6.801   2.144
    1   AR   Ar  189   5.806   2.825   6.426
    1   AR   Ar  190   2.377   6.315   3.663
    1   AR   Ar  191   3.456   5.998   6.906
    1   AR   Ar  192   4.339   4.330   5.762
    1   AR   Ar  193   2.811   6.118   1.387
    1   AR   Ar  194   5.630   5.276  -1.107
    1   AR   Ar  195   5.595   1.324   0.690
    1   AR   Ar  196   3.478   0.804  -0.040
    1   AR   Ar  197   4.775   2.422   0.632
    1   AR   Ar  198   5.797   6.947   1.688
    1   AR   Ar  199   1.895   0.423   3.408
    1   AR   Ar  200   5.289   2.928  -0.110
    1   AR   Ar  201   6.786   6.694   2.243
    1   AR   Ar  202   5.153   0.862   4.607
    1   AR   Ar  203   0.395   6.582   3.308
    1   AR   Ar  204   4.653   5.932   6.898
    1   AR   Ar  205   5.830   2.025   1.939
    1   AR   Ar  206   5.867   0.654   6.185
    1   AR   Ar  207   6.942   3.036   5.059
    1   AR   Ar  208   1.187   5.876   4.308
    1   AR   Ar  209   0.055   2.365  -1.769
    1   AR   Ar  210   1.390   6.983   0.273
    1   AR   Ar  211   7.047   2.773   1.003
    1   AR   Ar  212   6.043   3.898  -0.008
    1   AR   Ar  213   3.743   1.860   1.880
    1   AR   Ar  214   4.855   4.582   2.107
    1   AR   Ar  215   6.830   2.713   2.093
    1   AR   Ar  216   1.310   2.238   0.890
    1   AR   Ar  217   4.854   1.434   3.368
    1   AR   Ar  218   4.805   3.203   5.058
    1   AR   Ar  219   4.747   3.371   2.789
    1   AR   Ar  220   4.933   3.821   1.248
    1   AR   Ar  221   7.057   5.882   3.938
    1   AR   Ar  222   4.667   0.562   5.693
    1   AR   Ar  223   6.589   1.504   6.486
    1   AR   Ar  224   4.878   2.181   5.141
    1   AR   Ar  225   6.492   2.882   3.149
    1   AR   Ar  226   1.271   3.162   3.434
    1   AR   Ar  227   0.921   3.266   2.396
    1   AR   Ar  228   6.304   1.107   1.766
    1   AR   Ar  229   6.231   4.074  -1.072
    1   AR   Ar  230   4.173   4.608   3.986
    1   AR   Ar  231   4.550   2.109   2.636
    1   AR   Ar  232   5.227   2.920   2.026
    1   AR   Ar  233   6.656   2.580   4.166
    1   AR   Ar  234   5.683   2.651   4.344
    1   AR   Ar  235   7.095   0.332   3.312
    1   AR   Ar  236   4.727   5.309   5.254
    1   AR   Ar  237   4.824   1.795   6.361
    1   AR   Ar  238   5.730   5.327   7.009
    1   AR   Ar  239   1.070   4.664  10.432
    1   AR   Ar  240   1.316   2.536   6.651
    1   AR   Ar  241   1.701   6.116  -0.143
    1   AR   Ar  242   5.679   5.786   1.410
    1   AR   Ar  243   5.156   6.330   2.378
    1   AR   Ar  244   0.188   5.443   0.475
    1   AR   Ar  245   4.029   0.490   3.424
    1   AR   Ar  246   5.527   6.299  -0.504
    1   AR   Ar  247   0.134   3.709   1.649
    1   AR   Ar  248   5.188   5.426   0.022
    1   AR   Ar  249   4.598   6.809   1.421
    1   AR   Ar  250   5.340   6.733   3.610
    1   AR   Ar  251   4.757   4.271   4.875
    1   AR   Ar  252   2.645   4.715   1.977
    1   AR   Ar  253   5.976   2.299   7.436
    1   AR   Ar  254   5.983   2.988   9.857
    1   AR   Ar  255   4.031   5.772   9.218
    1   AR   Ar  256   6.012   5.501   3.514
    7.12000  7.12000 12.00000
Argon-slab step 4825
  256
    1   AR   Ar    1   5.244   2.916  -2.319
    1   AR   Ar    2   5.847   6.460   0.508
    1   AR   Ar    3   4.275   3.538  -0.886
    1   AR   Ar    4   2.524   1.213   1.362
    1   AR   Ar    5   6.356   5.439  -0.216
    1   AR   Ar    6   1.317   2.021   2.351
    1   AR   Ar    7   5.736   4.541   3.342
    1   AR   Ar    8   6.113   2.871  -1.858
    1   AR   Ar    9   0.462   6.834   4.393
    1   AR   Ar   10   5.833   5.371   5.150
    1   AR   Ar   11   1.288   7.045   5.102
    1   AR   Ar   12   7.042   1.718   3.712
    1   AR   Ar   13   6.620   0.473   4.243
    1   AR   Ar   14   3.737   1.683   6.428
    1   AR   Ar   15   3.374   0.523   9.753
    1   AR   Ar   16   0.916   0.209   5.979
    1   AR   Ar   17   5.888   3.012   0.955
    1   AR   Ar   18   6.878   5.331  -1.135
    1   AR   Ar   19   5.179   4.584   0.654
    1   AR   Ar   20   6.364   3.669  -2.611
    1   AR   Ar   21   2.687   1.554   2.336
    1   AR   Ar   22   5.706   1.260   2.653
    1   AR   Ar   23   0.412   6.482   0.968
    1   AR   Ar   24   5.641   2.206   3.241
    1   AR   Ar   25   0.444   2.206   4.605
    1   AR   Ar   26   5.648   7.096   4.511
    1   AR   Ar   27   1.911   0.462   1.862
    1   AR   Ar   28   1.715   2.295   3.896
    1   AR   Ar   29   4.375   1.173   7.191
    1   AR   Ar   30   0.604   1.140   2.829
    1   AR   Ar   31   3.374   1.075   7.280
    1   AR   Ar   32   1.251   2.632   5.527
    1   AR   Ar   33   0.341   4.354   0.138
    1   AR   Ar   34   1.078   4.996   2.454
    1   AR   Ar   35   6.084   5.261   2.348
    1   AR   Ar   36   5.839   1.934  -2.442
    1   AR   Ar   37   4.133   3.027   2.068
    1   AR   Ar   38   6.160   4.171   4.413
    1   AR   Ar   39   0.217   3.208   3.751
    1   AR   Ar   40   1.523   3.918   1.861
    1   AR   Ar   41   0.485   2.332   2.908
    1   AR   Ar   42   4.966   6.198   5.887
    1   AR   Ar   43   0.073   2.637   5.979
    1   AR   Ar   44   0.590   4.169   3.104
    1   AR   Ar   45   0.631   3.549   5.534
    1   AR   Ar   46   0.393   4.800   6.487
    1   AR   Ar   47   4.029   4.604   7.628
    1   AR   Ar   48   6.744   3.564   7.323
    1   AR   Ar   49   6.780   0.673  -0.430
    1   AR   Ar   50   3.896   5.316   0.439
    1   AR   Ar   51   5.940   3.682   2.593
    1   AR   Ar   52   5.207   3.068  -1.106
    1   AR   Ar   53   4.722   0.112   2.465
    1   AR   Ar   54   0.623   0.157   2.316
    1   AR   Ar   55   6.759   4.299   3.064
    1   AR   Ar   56   6.570   1.786   2.775
    1   AR   Ar   57   3.729   4.280   2.195
    1   AR   Ar   58   0.932   3.851   4.206
    1   AR   Ar   59   2.740   5.532   5.511
    1   AR   Ar   60   0.284   5.495   2.954
    1   AR   Ar   61   0.310   3.614   6.586
    1   AR   Ar   62   0.096   4.477   4.880
    1   AR   Ar   63   2.842   2.477   7.156
    1   AR   Ar   64   7.041   5.618   4.879
    1   AR   Ar   65   3.648   0.643   2.274
    1   AR   Ar   66   1.202   1.059   1.136
    1   AR   Ar   67   4.720   6.970  -0.323
    1   AR   Ar   68   0.445   1.083  -1.141
    1   AR   Ar   69   2.145   1.463   0.253
    1   AR   Ar   70   0.424   1.940   1.572
    1   AR   Ar   71   2.849   0.481   2.957
    1   AR   Ar   72   4.623   1.174   1.498
    1   AR   Ar   73   2.982   0.182   3.944
    1   AR   Ar   74   0.674   0.845   4.053
    1   AR   Ar   75   3.479   0.553   5.126
    1   AR   Ar   76   2.439   7.084   1.036
    1   AR   Ar   77   1.879   6.344   5.668
    1   AR   Ar   78   6.432   4.945   6.021
    1   AR   Ar   79   3.645   6.737   5.956
    1   AR   Ar   80   3.775   5.702   5.481
    1   AR   Ar   81   1.330   6.682   1.407
    1   AR   Ar   82   6.287   4.640   0.805
    1   AR   Ar   83   0.894   3.239   0.665
    1   AR   Ar   84   1.152   4.471   0.781
    1   AR   Ar   85   1.451   4.212  -0.247
    1   AR   Ar   86   1.618   5.727   0.763
    1   AR   Ar   87   2.982   3.664   2.576
    1   AR   Ar   88   3.660   5.502   1.767
    1   AR   Ar   89   6.420   1.936   0.848
    1   AR   Ar   90   3.112   1.531   5.128
    1   AR   Ar   91   2.119   1.390   3.238
    1   AR   Ar   92   2.003   2.927   1.427
    1   AR   Ar   93   1.845   1.271   6.032
    1   AR   Ar   94   1.659   6.696   9.140
    1   AR   Ar   95   4.168   1.408   5.128
    1   AR   Ar   96   2.509   6.792   5.036
    1   AR   Ar   97   2.974   2.416  -0.984
    1   AR   Ar   98   1.923   4.449   4.192
    1   AR   Ar   99   5.683   0.599  -0.708
    1   AR   Ar  100   0.172   3.339  -3.181
    1   AR   Ar  101   4.083   6.415   2.378
    1   AR   Ar  102   3.830   1.508   3.135
    1   AR   Ar  103   2.125   4.196   0.973
    1   AR   Ar  104   3.758   6.007  -1.361
    1   AR   Ar  105   2.828   2.069   3.565
    1   AR   Ar  106   3.801   2.526   5.080
    1   AR   Ar  107   0.937   5.391   5.324
    1   AR   Ar  108   2.452   1.042   4.617
    1   AR   Ar  109   1.614   4.093   5.517
    1   AR   Ar  110   2.220   2.091   4.824
    1   AR   Ar  111   3.900   5.989   7.953
    1   AR   Ar  112   0.165   5.946   6.247
    1   AR   Ar  113   1.887   5.719  -1.087
    1   AR   Ar  114   2.519   0.273  -0.142
    1   AR   Ar  115   1.187   5.179  -0.025
    1   AR   Ar  116   4.884   0.369   0.547
    1   AR   Ar  117   0.308   4.870   3.902
    1   AR   Ar  118   1.555   5.692   3.030
    1   AR   Ar  119   1.931   3.918   2.870
    1   AR   Ar  120   1.558   6.673   2.593
    1   AR   Ar  121   5.712   4.434   5.502
    1   AR   Ar  122   3.149   5.576   4.143
    1   AR   Ar  123   3.362   3.508   5.568
    1   AR   Ar  124   0.717   5.047   1.424
    1   AR   Ar  125   5.760   3.505   5.038
    1   AR   Ar  126   6.870   0.477   7.455
    1   AR   Ar  127   4.441   3.308   6.201
    1   AR   Ar  128   2.337   4.206   7.136
    1   AR   Ar  129   1.944   5.039   5.019
    1   AR   Ar  130   4.091   1.887  -5.054
    1   AR   Ar  131   4.302   5.127  -1.836
    1   AR   Ar  132   0.435   1.838   0.473
    1   AR   Ar  133   4.379   0.252   4.451
    1   AR   Ar  134   3.406   1.278   4.052
    1   AR   Ar  135   6.108   1.643   3.954
    1   AR   Ar  136   5.889   0.110   2.716
    1   AR   Ar  137   2.918   4.404   6.246
    1   AR   Ar  138   5.543   1.389   5.474
    1   AR   Ar  139   6.080   2.586   5.337
    1   AR   Ar  140   4.608   6.414   4.835
    1   AR   Ar  141   4.204   5.690   4.258
    1   AR   Ar  142   4.847   7.051   7.411
    1   AR   Ar  143   5.490   6.471   6.710
    1   AR   Ar  144   6.901   1.238   4.849
    1   AR   Ar  145   4.481   5.191  -0.824
    1   AR   Ar  146   3.527   2.617   2.912
    1   AR   Ar  147   5.209   4.202  -0.775
    1   AR   Ar  148   2.864   6.458  -1.669
    1   AR   Ar  149   1.256   0.952  -0.198
    1   AR   Ar  150   2.218   2.427   2.730
    1   AR   Ar  151   2.458   3.192   3.482
    1   AR   Ar  152   0.955   1.855  -2.400
    1   AR   Ar  153   5.629   0.733   3.584
    1   AR   Ar  154   4.458   2.742   4.230
    1   AR   Ar  155   6.573   3.820   5.847
    1   AR   Ar  156   2.820   5.021   3.208
    1   AR   Ar  157   2.236   5.335   6.619
    1   AR   Ar  158   0.486   1.439   5.817
    1   AR   Ar  159   4.081   0.394   6.481
    1   AR   Ar  160   1.192   1.062   5.081
    1   AR   Ar  161   4.723   4.431   3.093
    1   AR   Ar  162   4.258   6.057  -0.343
    1   AR   Ar  163   5.963   4.404   1.790
    1   AR   Ar  164   2.021   5.791   2.019
    1   AR   Ar  165   3.426   4.157   1.133
    1   AR   Ar  166   2.719   3.330   4.506
    1   AR   Ar  167   6.444   6.557   3.386
    1   AR   Ar  168   5.315   4.000  -1.858
    1   AR   Ar  169   3.708   3.655   3.242
    1   AR   Ar  170   2.212   3.326   6.165
    1   AR   Ar  171   5.127   4.924   4.173
    1   AR   Ar  172   3.879   3.749   4.790
    1   AR   Ar  173   2.335   2.314   6.087
    1   AR   Ar  174   3.453   6.575   4.714
    1   AR   Ar  175   3.150   0.850   6.134
    1   AR   Ar  176   3.505   2.784   4.125
    1   AR   Ar  177   0.678   4.663  -0.860
    1   AR   Ar  178   2.634   6.115   0.306
    1   AR   Ar  179   3.671   0.038   0.923
    1   AR   Ar  180   5.195   0.920  -6.683
    1   AR   Ar  181   6.879   5.521   1.757
    1   AR   Ar  182   0.809   6.147   2.200
    1   AR   Ar  183   4.727   5.655   1.669
    1   AR   Ar  184   4.559   6.240   0.618
    1   AR   Ar  185   3.039   4.579   4.551
    1   AR   Ar  186   3.099   5.953   2.832
    1   AR   Ar  187   4.039   6.596   3.728
    1   AR   Ar  188   3.188   6.805   2.159
    1   AR   Ar  189   5.832   2.808   6.426
    1   AR   Ar  190   2.384   6.309   3.653
    1   AR   Ar  191   3.437   5.995   6.874
    1   AR   Ar  192   4.336   4.321   5.759
    1   AR   Ar  193   2.815   6.144   1.396
    1   AR   Ar  194   5.601   5.312  -1.107
    1   AR   Ar  195   5.589   1.311   0.701
    1   AR   Ar  196   3.459   0.800  -0.051
    1   AR   Ar  197   4.766   2.435   0.624
    1   AR   Ar  198   5.790   6.942   1.642
    1   AR   Ar  199   1.884   0.432   3.387
    1   AR   Ar  200   5.314   2.925  -0.112
    1   AR   Ar  201   6.774   6.683   2.277
    1   AR   Ar  202   5.122   0.877   4.608
    1   AR   Ar  203   0.398   6.535   3.295
    1   AR   Ar  204   4.665   5.937   6.907
    1   AR   Ar  205   5.816   2.029   1.933
    1   AR   Ar  206   5.871   0.652   6.201
    1   AR   Ar  207   6.917   3.025   5.037
    1   AR   Ar  208   1.169   5.850   4.291
    1   AR   Ar  209   0.060   2.318  -1.753
    1   AR   Ar  210   1.409   6.974   0.295
    1   AR   Ar  211   7.051   2.772   1.035
    1   AR   Ar  212   6.056   3.889   0.001
    1   AR   Ar  213   3.740   1.871   1.871
    1   AR   Ar  214   4.860   4.601   2.127
    1   AR   Ar  215   6.832   2.714   2.064
    1   AR   Ar  216   1.278   2.238   0.894
    1   AR   Ar  217   4.861   1.461   3.371
    1   AR   Ar  218   4.778   3.218   5.067
    1   AR   Ar  219   4.732   3.377   2.782
    1   AR   Ar  220   4.938   3.831   1.257
    1   AR   Ar  221   7.069   5.908   3.963
    1   AR   Ar  222   4.695   0.534   5.693
    1   AR   Ar  223   6.580   1.517   6.464
    1   AR   Ar  224   4.862   2.168   5.099
    1   AR   Ar  225   6.518   2.862   3.158
    1   AR   Ar  226   1.281   3.155   3.436
    1   AR   Ar  227   0.946   3.249   2.410
    1   AR   Ar  228   6.316   1.090   1.769
    1   AR   Ar  229   6.227   4.049  -1.072
    1   AR   Ar  230   4.169   4.606   4.014
    1   AR   Ar  231   4.561   2.119   2.619
    1   AR   Ar  232   5.214   2.906   2.026
    1   AR   Ar  233   6.659   2.576   4.200
    1   AR   Ar  234   5.651   2.639   4.359
    1   AR   Ar  235   7.070   0.345   3.305
    1   AR   Ar  236   4.691   5.289   5.237
    1   AR   Ar  237   4.849   1.755   6.345
    1   AR   Ar  238   5.731   5.321   6.996
    1   AR   Ar  239   1.066   4.661  10.470
    1   AR   Ar  240   1.290   2.562   6.644
    1   AR   Ar  241   1.691   6.101  -0.107
    1   AR   Ar  242   5.695   5.795   1.376
    1   AR   Ar  243   5.158   6.321   2.393
    1   AR   Ar  244   0.192   5.441   0.477
    1   AR   Ar  245   4.034   0.461   3.410
    1   AR   Ar  246   5.527   6.274  -0.523
    1   AR   Ar  247   0.140   3.713   1.647
    1   AR   Ar  248   5.183   5.449   0.009
    1   AR   Ar  249   4.598   6.850   1.434
    1   AR   Ar  250   5.302   6.712   3.586
    1   AR   Ar  251   4.815   4.256   4.892
    1   AR   Ar  252   2.636   4.694   1.980
    1   AR   Ar  253   5.964   2.303   7.466
    1   AR   Ar  254   6.022   3.027   9.861
    1   AR   Ar  255   4.056   5.782   9.184
    1   AR   Ar  256   5.970   5.475   3.506
    7.12000  7.12000 12.00000
Argon-slab step 4830
  256
    1   AR   Ar    1   5.247   2.921  -2.282
    1   AR   Ar    2   5.833   6.426   0.518
    1   AR   Ar    3   4.254   3.529  -0.889
    1   AR   Ar    4   2.536   1.211   1.354
    1   AR   Ar    5   6.382   5.438  -0.231
    1   AR   Ar    6   1.286   2.035   2.337
    1   AR   Ar    7   5.734   4.527   3.316
    1   AR   Ar    8   6.091   2.881  -1.875
    1   AR   Ar    9   0.478   6.801   4.377
    1   AR   Ar   10   5.842   5.384   5.157
    1   AR   Ar   11   1.257   6.993   5.075
    1   AR   Ar   12   7.054   1.691   3.742
    1   AR   Ar   13   6.586   0.467   4.215
    1   AR   Ar   14   3.755   1.654   6.421
    1   AR   Ar   15   3.382   0.504   9.763
    1   AR   Ar   16   0.915   0.225   6.012
    1   AR   Ar   17   5.886   3.036   0.921
    1   AR   Ar   18   6.885   5.304  -1.153
    1   AR   Ar   19   5.180   4.605   0.685
    1   AR   Ar   20   6.384   3.691  -2.573
    1   AR   Ar   21   2.687   1.590   2.356
    1   AR   Ar   22   5.714   1.243   2.627
    1   AR   Ar   23   0.453   6.493   1.005
    1   AR   Ar   24   5.632   2.217   3.272
    1   AR   Ar   25   0.465   2.185   4.631
    1   AR   Ar   26   5.665   0.000   4.481
    1   AR   Ar   27   1.903   0.453   1.872
    1   AR   Ar   28   1.710   2.298   3.898
    1   AR   Ar   29   4.344   1.170   7.186
    1   AR   Ar   30   0.610   1.140   2.806
    1   AR   Ar   31   3.386   1.079   7.270
    1   AR   Ar   32   1.265   2.615   5.516
    1   AR   Ar   33   0.356   4.322   0.146
    1   AR   Ar   34   1.081   4.978   2.448
    1   AR   Ar   35   6.084   5.229   2.354
    1   AR   Ar   36   5.830   1.928  -2.439
    1   AR   Ar   37   4.127   3.023   2.045
    1   AR   Ar   38   6.206   4.157   4.411
    1   AR   Ar   39   0.220   3.200   3.758
    1   AR   Ar   40   1.518   3.906   1.835
    1   AR   Ar   41   0.471   2.317   2.914
    1   AR   Ar   42   4.957   6.178   5.908
    1   AR   Ar   43   0.070   2.602   5.958
    1   AR   Ar   44   0.604   4.163   3.090
    1   AR   Ar   45   0.657   3.573   5.516
    1   AR   Ar   46   0.400   4.779   6.509
    1   AR   Ar   47   4.021   4.607   7.628
    1   AR   Ar   48   6.763   3.601   7.320
    1   AR   Ar   49   6.791   0.659  -0.388
    1   AR   Ar   50   3.893   5.292   0.445
    1   AR   Ar   51   5.926   3.686   2.603
    1   AR   Ar   52   5.209   3.080  -1.087
    1   AR   Ar   53   4.697   0.103   2.464
    1   AR   Ar   54   0.655   0.142   2.330
    1   AR   Ar   55   6.733   4.320   3.033
    1   AR   Ar   56   6.599   1.796   2.788
    1   AR   Ar   57   3.722   4.239   2.191
    1   AR   Ar   58   0.922   3.849   4.202
    1   AR   Ar   59   2.757   5.537   5.508
    1   AR   Ar   60   0.290   5.469   2.947
    1   AR   Ar   61   0.311   3.629   6.584
    1   AR   Ar   62   0.105   4.473   4.860
    1   AR   Ar   63   2.871   2.471   7.204
    1   AR   Ar   64   7.047   5.633   4.905
    1   AR   Ar   65   3.662   0.667   2.302
    1   AR   Ar   66   1.184   1.055   1.130
    1   AR   Ar   67   4.698   6.987  -0.312
    1   AR   Ar   68   0.436   1.105  -1.196
    1   AR   Ar   69   2.140   1.436   0.240
    1   AR   Ar   70   0.418   1.918   1.580
    1   AR   Ar   71   2.861   0.465   2.967
    1   AR   Ar   72   4.621   1.172   1.502
    1   AR   Ar   73   2.988   0.189   3.940
    1   AR   Ar   74   0.677   0.878   4.034
    1   AR   Ar   75   3.478   0.544   5.150
    1   AR   Ar   76   2.425   7.065   1.020
    1   AR   Ar   77   1.870   6.328   5.668
    1   AR   Ar   78   6.448   4.907   6.016
    1   AR   Ar   79   3.667   6.738   5.972
    1   AR   Ar   80   3.775   5.704   5.490
    1   AR   Ar   81   1.351   6.715   1.429
    1   AR   Ar   82   6.279   4.641   0.810
    1   AR   Ar   83   0.909   3.242   0.667
    1   AR   Ar   84   1.154   4.491   0.790
    1   AR   Ar   85   1.447   4.215  -0.235
    1   AR   Ar   86   1.629   5.748   0.762
    1   AR   Ar   87   2.973   3.663   2.573
    1   AR   Ar   88   3.691   5.513   1.832
    1   AR   Ar   89   6.431   1.924   0.856
    1   AR   Ar   90   3.128   1.550   5.114
    1   AR   Ar   91   2.115   1.391   3.242
    1   AR   Ar   92   2.025   2.944   1.445
    1   AR   Ar   93   1.871   1.275   6.011
    1   AR   Ar   94   1.639   6.673   9.140
    1   AR   Ar   95   4.164   1.405   5.097
    1   AR   Ar   96   2.505   6.770   5.072
    1   AR   Ar   97   2.947   2.431  -1.006
    1   AR   Ar   98   1.877   4.459   4.190
    1   AR   Ar   99   5.675   0.592  -0.696
    1   AR   Ar  100   0.156   3.332  -3.224
    1   AR   Ar  101   4.108   6.411   2.385
    1   AR   Ar  102   3.827   1.491   3.132
    1   AR   Ar  103   2.099   4.203   0.983
    1   AR   Ar  104   3.750   6.036  -1.370
    1   AR   Ar  105   2.832   2.057   3.560
    1   AR   Ar  106   3.835   2.516   5.083
    1   AR   Ar  107   0.939   5.400   5.312
    1   AR   Ar  108   2.463   1.023   4.620
    1   AR   Ar  109   1.616   4.101   5.526
    1   AR   Ar  110   2.231   2.096   4.817
    1   AR   Ar  111   3.876   5.985   7.939
    1   AR   Ar  112   0.140   5.953   6.263
    1   AR   Ar  113   1.869   5.755  -1.102
    1   AR   Ar  114   2.538   0.295  -0.114
    1   AR   Ar  115   1.157   5.180  -0.036
    1   AR   Ar  116   4.898   0.395   0.550
    1   AR   Ar  117   0.269   4.829   3.911
    1   AR   Ar  118   1.563   5.684   3.009
    1   AR   Ar  119   1.937   3.908   2.886
    1   AR   Ar  120   1.561   6.664   2.608
    1   AR   Ar  121   5.729   4.433   5.532
    1   AR   Ar  122   3.182   5.584   4.170
    1   AR   Ar  123   3.387   3.495   5.599
    1   AR   Ar  124   0.707   5.050   1.432
    1   AR   Ar  125   5.778   3.489   5.025
    1   AR   Ar  126   6.874   0.436   7.497
    1   AR   Ar  127   4.453   3.305   6.228
    1   AR   Ar  128   2.330   4.206   7.113
    1   AR   Ar  129   1.937   5.037   5.047
    1   AR   Ar  130   4.095   1.869  -5.043
    1   AR   Ar  131   4.314   5.174  -1.793
    1   AR   Ar  132   0.430   1.856   0.464
    1   AR   Ar  133   4.364   0.265   4.437
    1   AR   Ar  134   3.422   1.303   4.031
    1   AR   Ar  135   6.125   1.657   3.972
    1   AR   Ar  136   5.886   0.110   2.703
    1   AR   Ar  137   2.893   4.416   6.248
    1   AR   Ar  138   5.535   1.377   5.465
    1   AR   Ar  139   6.089   2.568   5.319
    1   AR   Ar  140   4.633   6.410   4.821
    1   AR   Ar  141   4.239   5.672   4.281
    1   AR   Ar  142   4.828   7.024   7.414
    1   AR   Ar  143   5.490   6.453   6.685
    1   AR   Ar  144   6.922   1.257   4.850
    1   AR   Ar  145   4.486   5.204  -0.799
    1   AR   Ar  146   3.536   2.621   2.906
    1   AR   Ar  147   5.181   4.243  -0.752
    1   AR   Ar  148   2.871   6.454  -1.689
    1   AR   Ar  149   1.239   0.939  -0.190
    1   AR   Ar  150   2.218   2.410   2.738
    1   AR   Ar  151   2.484   3.150   3.451
    1   AR   Ar  152   0.953   1.822  -2.413
    1   AR   Ar  153   5.653   0.721   3.633
    1   AR   Ar  154   4.452   2.730   4.259
    1   AR   Ar  155   6.579   3.806   5.840
    1   AR   Ar  156   2.831   5.016   3.231
    1   AR   Ar  157   2.267   5.304   6.597
    1   AR   Ar  158   0.501   1.436   5.840
    1   AR   Ar  159   4.057   0.392   6.475
    1   AR   Ar  160   1.169   1.035   5.089
    1   AR   Ar  161   4.733   4.427   3.082
    1   AR   Ar  162   4.268   6.055  -0.333
    1   AR   Ar  163   5.964   4.420   1.774
    1   AR   Ar  164   1.988   5.789   2.010
    1   AR   Ar  165   3.430   4.155   1.115
    1   AR   Ar  166   2.692   3.317   4.522
    1   AR   Ar  167   6.452   6.564   3.403
    1   AR   Ar  168   5.305   4.023  -1.864
    1   AR   Ar  169   3.732   3.690   3.262
    1   AR   Ar  170   2.191   3.303   6.151
    1   AR   Ar  171   5.099   4.912   4.196
    1   AR   Ar  172   3.853   3.716   4.794
    1   AR   Ar  173   2.299   2.327   6.085
    1   AR   Ar  174   3.445   6.551   4.712
    1   AR   Ar  175   3.136   0.874   6.132
    1   AR   Ar  176   3.484   2.784   4.114
    1   AR   Ar  177   0.645   4.658  -0.871
    1   AR   Ar  178   2.624   6.109   0.291
    1   AR   Ar  179   3.682   0.034   0.890
    1   AR   Ar  180   5.174   0.887  -6.685
    1   AR   Ar  181   6.891   5.510   1.788
    1   AR   Ar  182   0.823   6.133   2.147
    1   AR   Ar  183   4.700   5.661   1.668
    1   AR   Ar  184   4.585   6.239   0.621
    1   AR   Ar  185   3.017   4.581   4.542
    1   AR   Ar  186   3.094   5.964   2.828
    1   AR   Ar  187   4.027   6.561   3.742
    1   AR   Ar  188   3.175   6.813   2.138
    1   AR   Ar  189   5.858   2.792   6.426
    1   AR   Ar  190   2.392   6.303   3.643
    1   AR   Ar  191   3.419   5.992   6.842
    1   AR   Ar  192   4.326   4.313   5.764
    1   AR   Ar  193   2.821   6.168   1.403
    1   AR   Ar  194   5.572   5.345  -1.105
    1   AR   Ar  195   5.580   1.296   0.713
    1   AR   Ar  196   3.434   0.804  -0.062
    1   AR   Ar  197   4.757   2.446   0.619
    1   AR   Ar  198   5.781   6.935   1.595
    1   AR   Ar  199   1.868   0.431   3.368
    1   AR   Ar  200   5.342   2.924  -0.109
    1   AR   Ar  201   6.762   6.670   2.312
    1   AR   Ar  202   5.097   0.903   4.610
    1   AR   Ar  203   0.409   6.488   3.275
    1   AR   Ar  204   4.669   5.937   6.919
    1   AR   Ar  205   5.805   2.036   1.927
    1   AR   Ar  206   5.877   0.646   6.225
    1   AR   Ar  207   6.902   3.028   5.020
    1   AR   Ar  208   1.150   5.824   4.274
    1   AR   Ar  209   0.065   2.269  -1.738
    1   AR   Ar  210   1.427   6.974   0.323
    1   AR   Ar  211   7.058   2.772   1.064
    1   AR   Ar  212   6.068   3.881   0.012
    1   AR   Ar  213   3.737   1.881   1.863
    1   AR   Ar  214   4.868   4.620   2.136
    1   AR   Ar  215   6.832   2.714   2.038
    1   AR   Ar  216   1.276   2.268   0.896
    1   AR   Ar  217   4.870   1.485   3.378
    1   AR   Ar  218   4.748   3.234   5.085
    1   AR   Ar  219   4.719   3.389   2.787
    1   AR   Ar  220   4.942   3.832   1.275
    1   AR   Ar  221   7.080   5.935   3.976
    1   AR   Ar  222   4.729   0.508   5.684
    1   AR   Ar  223   6.570   1.530   6.440
    1   AR   Ar  224   4.851   2.156   5.058
    1   AR   Ar  225   6.543   2.842   3.165
    1   AR   Ar  226   1.291   3.149   3.436
    1   AR   Ar  227   0.967   3.229   2.425
    1   AR   Ar  228   6.330   1.071   1.770
    1   AR   Ar  229   6.244   4.042  -1.084
    1   AR   Ar  230   4.166   4.605   4.044
    1   AR   Ar  231   4.574   2.134   2.598
    1   AR   Ar  232   5.204   2.892   2.020
    1   AR   Ar  233   6.668   2.568   4.226
    1   AR   Ar  234   5.612   2.627   4.373
    1   AR   Ar  235   7.044   0.363   3.295
    1   AR   Ar  236   4.660   5.268   5.217
    1   AR   Ar  237   4.875   1.714   6.326
    1   AR   Ar  238   5.731   5.315   6.981
    1   AR   Ar  239   1.063   4.658  10.508
    1   AR   Ar  240   1.265   2.589   6.635
    1   AR   Ar  241   1.702   6.117  -0.102
    1   AR   Ar  242   5.718   5.805   1.341
    1   AR   Ar  243   5.167   6.307   2.409
    1   AR   Ar  244   0.196   5.438   0.481
    1   AR   Ar  245   4.042   0.452   3.413
    1   AR   Ar  246   5.529   6.250  -0.544
    1   AR   Ar  247   0.148   3.716   1.646
    1   AR   Ar  248   5.177   5.471  -0.002
    1   AR   Ar  249   4.599   6.894   1.453
    1   AR   Ar  250   5.261   6.691   3.559
    1   AR   Ar  251   4.880   4.241   4.902
    1   AR   Ar  252   2.627   4.673   1.984
    1   AR   Ar  253   5.952   2.307   7.495
    1   AR   Ar  254   6.061   3.066   9.865
    1   AR   Ar  255   4.081   5.792   9.150
    1   AR   Ar  256   5.932   5.463   3.501
    7.12000  7.12000 12.00000
Argon-slab step 4835
  256
    1   AR   Ar    1   5.253   2.916  -2.285
    1   AR   Ar    2   5.817   6.394   0.524
    1   AR   Ar    3   4.234   3.522  -0.892
    1   AR   Ar    4   2.528   1.198   1.351
    1   AR   Ar    5   6.405   5.436  -0.243
    1   AR   Ar    6   1.256   2.048   2.319
    1   AR   Ar    7   5.732   4.501   3.289
    1   AR   Ar    8   6.093   2.891  -1.878
    1   AR   Ar    9   0.493   6.768   4.359
    1   AR   Ar   10   5.852   5.402   5.161
    1   AR   Ar   11   1.229   6.941   5.046
    1   AR   Ar   12   7.087   1.664   3.768
    1   AR   Ar   13   6.552   0.461   4.189
    1   AR   Ar   14   3.774   1.630   6.412
    1   AR   Ar   15   3.390   0.484   9.773
    1   AR   Ar   16   0.913   0.244   6.046
    1   AR   Ar   17   5.901   3.061   0.897
    1   AR   Ar   18   6.893   5.276  -1.172
    1   AR   Ar   19   5.182   4.633   0.711
    1   AR   Ar   20   6.403   3.713  -2.534
    1   AR   Ar   21   2.693   1.621   2.376
    1   AR   Ar   22   5.716   1.224   2.605
    1   AR   Ar   23   0.490   6.501   1.040
    1   AR   Ar   24   5.621   2.233   3.299
    1   AR   Ar   25   0.487   2.162   4.659
    1   AR   Ar   26   5.679   0.021   4.452
    1   AR   Ar   27   1.894   0.444   1.884
    1   AR   Ar   28   1.707   2.298   3.898
    1   AR   Ar   29   4.331   1.168   7.180
    1   AR   Ar   30   0.616   1.157   2.785
    1   AR   Ar   31   3.381   1.080   7.261
    1   AR   Ar   32   1.279   2.598   5.505
    1   AR   Ar   33   0.368   4.289   0.152
    1   AR   Ar   34   1.083   4.955   2.439
    1   AR   Ar   35   6.080   5.202   2.369
    1   AR   Ar   36   5.820   1.922  -2.435
    1   AR   Ar   37   4.115   3.016   2.017
    1   AR   Ar   38   6.257   4.150   4.404
    1   AR   Ar   39   0.226   3.193   3.763
    1   AR   Ar   40   1.513   3.897   1.808
    1   AR   Ar   41   0.452   2.304   2.922
    1   AR   Ar   42   4.939   6.153   5.917
    1   AR   Ar   43   0.067   2.567   5.938
    1   AR   Ar   44   0.629   4.154   3.076
    1   AR   Ar   45   0.681   3.597   5.498
    1   AR   Ar   46   0.406   4.758   6.530
    1   AR   Ar   47   4.013   4.612   7.628
    1   AR   Ar   48   6.775   3.638   7.324
    1   AR   Ar   49   6.802   0.645  -0.346
    1   AR   Ar   50   3.892   5.268   0.451
    1   AR   Ar   51   5.928   3.666   2.608
    1   AR   Ar   52   5.213   3.094  -1.079
    1   AR   Ar   53   4.674   0.108   2.467
    1   AR   Ar   54   0.687   0.126   2.345
    1   AR   Ar   55   6.702   4.344   3.001
    1   AR   Ar   56   6.629   1.807   2.799
    1   AR   Ar   57   3.722   4.201   2.186
    1   AR   Ar   58   0.913   3.851   4.199
    1   AR   Ar   59   2.771   5.542   5.506
    1   AR   Ar   60   0.281   5.485   2.945
    1   AR   Ar   61   0.318   3.642   6.572
    1   AR   Ar   62   0.112   4.465   4.847
    1   AR   Ar   63   2.900   2.464   7.251
    1   AR   Ar   64   7.053   5.642   4.945
    1   AR   Ar   65   3.679   0.693   2.329
    1   AR   Ar   66   1.181   1.035   1.146
    1   AR   Ar   67   4.676   6.987  -0.308
    1   AR   Ar   68   0.428   1.127  -1.249
    1   AR   Ar   69   2.136   1.408   0.228
    1   AR   Ar   70   0.412   1.897   1.589
    1   AR   Ar   71   2.873   0.451   2.971
    1   AR   Ar   72   4.612   1.170   1.508
    1   AR   Ar   73   2.996   0.194   3.944
    1   AR   Ar   74   0.679   0.911   4.016
    1   AR   Ar   75   3.478   0.531   5.171
    1   AR   Ar   76   2.410   7.047   1.002
    1   AR   Ar   77   1.853   6.303   5.676
    1   AR   Ar   78   6.472   4.876   6.017
    1   AR   Ar   79   3.687   6.733   5.982
    1   AR   Ar   80   3.776   5.711   5.499
    1   AR   Ar   81   1.379   6.750   1.453
    1   AR   Ar   82   6.273   4.645   0.811
    1   AR   Ar   83   0.923   3.248   0.670
    1   AR   Ar   84   1.159   4.503   0.791
    1   AR   Ar   85   1.444   4.212  -0.224
    1   AR   Ar   86   1.636   5.758   0.783
    1   AR   Ar   87   2.956   3.658   2.568
    1   AR   Ar   88   3.715   5.523   1.899
    1   AR   Ar   89   6.444   1.913   0.866
    1   AR   Ar   90   3.151   1.578   5.108
    1   AR   Ar   91   2.109   1.398   3.246
    1   AR   Ar   92   2.045   2.962   1.464
    1   AR   Ar   93   1.896   1.278   5.989
    1   AR   Ar   94   1.619   6.650   9.140
    1   AR   Ar   95   4.160   1.397   5.066
    1   AR   Ar   96   2.506   6.786   5.082
    1   AR   Ar   97   2.921   2.446  -1.029
    1   AR   Ar   98   1.832   4.466   4.184
    1   AR   Ar   99   5.666   0.584  -0.682
    1   AR   Ar  100   0.141   3.316  -3.240
    1   AR   Ar  101   4.138   6.382   2.383
    1   AR   Ar  102   3.788   1.477   3.164
    1   AR   Ar  103   2.082   4.208   0.994
    1   AR   Ar  104   3.747   6.062  -1.376
    1   AR   Ar  105   2.852   2.080   3.576
    1   AR   Ar  106   3.866   2.506   5.091
    1   AR   Ar  107   0.935   5.384   5.329
    1   AR   Ar  108   2.466   1.003   4.614
    1   AR   Ar  109   1.618   4.109   5.535
    1   AR   Ar  110   2.242   2.102   4.812
    1   AR   Ar  111   3.853   5.980   7.924
    1   AR   Ar  112   0.115   5.959   6.278
    1   AR   Ar  113   1.851   5.791  -1.118
    1   AR   Ar  114   2.551   0.314  -0.083
    1   AR   Ar  115   1.124   5.185  -0.048
    1   AR   Ar  116   4.913   0.423   0.559
    1   AR   Ar  117   0.255   4.794   3.907
    1   AR   Ar  118   1.572   5.678   2.995
    1   AR   Ar  119   1.940   3.899   2.902
    1   AR   Ar  120   1.569   6.662   2.623
    1   AR   Ar  121   5.737   4.424   5.559
    1   AR   Ar  122   3.213   5.594   4.196
    1   AR   Ar  123   3.402   3.477   5.646
    1   AR   Ar  124   0.689   5.064   1.450
    1   AR   Ar  125   5.804   3.475   5.023
    1   AR   Ar  126   6.878   0.394   7.538
    1   AR   Ar  127   4.465   3.301   6.253
    1   AR   Ar  128   2.321   4.206   7.092
    1   AR   Ar  129   1.930   5.037   5.077
    1   AR   Ar  130   4.098   1.850  -5.032
    1   AR   Ar  131   4.325   5.220  -1.757
    1   AR   Ar  132   0.422   1.872   0.454
    1   AR   Ar  133   4.340   0.272   4.423
    1   AR   Ar  134   3.435   1.323   4.022
    1   AR   Ar  135   6.123   1.664   3.992
    1   AR   Ar  136   5.882   0.110   2.690
    1   AR   Ar  137   2.869   4.427   6.246
    1   AR   Ar  138   5.529   1.367   5.458
    1   AR   Ar  139   6.090   2.537   5.310
    1   AR   Ar  140   4.661   6.411   4.814
    1   AR   Ar  141   4.273   5.646   4.300
    1   AR   Ar  142   4.808   6.997   7.416
    1   AR   Ar  143   5.506   6.443   6.669
    1   AR   Ar  144   6.944   1.279   4.850
    1   AR   Ar  145   4.495   5.208  -0.773
    1   AR   Ar  146   3.544   2.626   2.899
    1   AR   Ar  147   5.152   4.285  -0.728
    1   AR   Ar  148   2.881   6.454  -1.696
    1   AR   Ar  149   1.222   0.926  -0.182
    1   AR   Ar  150   2.215   2.398   2.746
    1   AR   Ar  151   2.512   3.107   3.423
    1   AR   Ar  152   0.951   1.789  -2.424
    1   AR   Ar  153   5.677   0.708   3.680
    1   AR   Ar  154   4.459   2.716   4.279
    1   AR   Ar  155   6.584   3.789   5.829
    1   AR   Ar  156   2.842   5.009   3.255
    1   AR   Ar  157   2.300   5.273   6.575
    1   AR   Ar  158   0.511   1.449   5.846
    1   AR   Ar  159   4.035   0.397   6.477
    1   AR   Ar  160   1.147   1.008   5.097
    1   AR   Ar  161   4.736   4.420   3.084
    1   AR   Ar  162   4.272   6.055  -0.324
    1   AR   Ar  163   5.962   4.429   1.756
    1   AR   Ar  164   1.954   5.787   1.999
    1   AR   Ar  165   3.433   4.155   1.097
    1   AR   Ar  166   2.663   3.306   4.542
    1   AR   Ar  167   6.456   6.573   3.419
    1   AR   Ar  168   5.326   4.062  -1.883
    1   AR   Ar  169   3.761   3.726   3.288
    1   AR   Ar  170   2.168   3.293   6.137
    1   AR   Ar  171   5.084   4.910   4.214
    1   AR   Ar  172   3.842   3.697   4.788
    1   AR   Ar  173   2.263   2.327   6.082
    1   AR   Ar  174   3.438   6.557   4.715
    1   AR   Ar  175   3.119   0.895   6.129
    1   AR   Ar  176   3.493   2.755   4.131
    1   AR   Ar  177   0.612   4.654  -0.881
    1   AR   Ar  178   2.623   6.103   0.279
    1   AR   Ar  179   3.692   0.029   0.857
    1   AR   Ar  180   5.153   0.855  -6.688
    1   AR   Ar  181   6.907   5.501   1.817
    1   AR   Ar  182   0.831   6.112   2.093
    1   AR   Ar  183   4.683   5.661   1.696
    1   AR   Ar  184   4.614   6.237   0.628
    1   AR   Ar  185   2.994   4.582   4.534
    1   AR   Ar  186   3.090   5.977   2.822
    1   AR   Ar  187   4.013   6.531   3.755
    1   AR   Ar  188   3.160   6.825   2.118
    1   AR   Ar  189   5.883   2.835   6.426
    1   AR   Ar  190   2.399   6.297   3.633
    1   AR   Ar  191   3.402   5.988   6.808
    1   AR   Ar  192   4.313   4.304   5.771
    1   AR   Ar  193   2.827   6.186   1.408
    1   AR   Ar  194   5.543   5.375  -1.103
    1   AR   Ar  195   5.569   1.279   0.727
    1   AR   Ar  196   3.415   0.809  -0.072
    1   AR   Ar  197   4.746   2.455   0.619
    1   AR   Ar  198   5.770   6.928   1.549
    1   AR   Ar  199   1.848   0.419   3.351
    1   AR   Ar  200   5.374   2.925  -0.098
    1   AR   Ar  201   6.753   6.656   2.347
    1   AR   Ar  202   5.079   0.939   4.613
    1   AR   Ar  203   0.428   6.448   3.247
    1   AR   Ar  204   4.657   5.938   6.924
    1   AR   Ar  205   5.796   2.042   1.918
    1   AR   Ar  206   5.883   0.639   6.249
    1   AR   Ar  207   6.903   3.050   5.016
    1   AR   Ar  208   1.129   5.798   4.256
    1   AR   Ar  209   0.069   2.221  -1.723
    1   AR   Ar  210   1.444   6.982   0.357
    1   AR   Ar  211   7.069   2.774   1.084
    1   AR   Ar  212   6.080   3.878   0.027
    1   AR   Ar  213   3.734   1.892   1.859
    1   AR   Ar  214   4.872   4.627   2.141
    1   AR   Ar  215   6.830   2.713   2.023
    1   AR   Ar  216   1.260   2.296   0.925
    1   AR   Ar  217   4.879   1.505   3.389
    1   AR   Ar  218   4.720   3.247   5.111
    1   AR   Ar  219   4.709   3.403   2.800
    1   AR   Ar  220   4.945   3.825   1.300
    1   AR   Ar  221   7.089   5.958   3.982
    1   AR   Ar  222   4.765   0.483   5.671
    1   AR   Ar  223   6.560   1.544   6.416
    1   AR   Ar  224   4.848   2.144   5.019
    1   AR   Ar  225   6.567   2.820   3.169
    1   AR   Ar  226   1.302   3.145   3.436
    1   AR   Ar  227   0.986   3.207   2.440
    1   AR   Ar  228   6.345   1.053   1.770
    1   AR   Ar  229   6.260   4.034  -1.097
    1   AR   Ar  230   4.152   4.599   4.074
    1   AR   Ar  231   4.586   2.152   2.575
    1   AR   Ar  232   5.198   2.878   2.011
    1   AR   Ar  233   6.669   2.548   4.236
    1   AR   Ar  234   5.569   2.614   4.383
    1   AR   Ar  235   7.020   0.383   3.280
    1   AR   Ar  236   4.636   5.245   5.196
    1   AR   Ar  237   4.901   1.673   6.306
    1   AR   Ar  238   5.731   5.311   6.965
    1   AR   Ar  239   1.059   4.655  10.546
    1   AR   Ar  240   1.240   2.616   6.624
    1   AR   Ar  241   1.709   6.137  -0.126
    1   AR   Ar  242   5.741   5.811   1.311
    1   AR   Ar  243   5.183   6.291   2.425
    1   AR   Ar  244   0.201   5.434   0.485
    1   AR   Ar  245   4.052   0.458   3.427
    1   AR   Ar  246   5.532   6.233  -0.567
    1   AR   Ar  247   0.156   3.720   1.645
    1   AR   Ar  248   5.170   5.488  -0.008
    1   AR   Ar  249   4.601   6.938   1.474
    1   AR   Ar  250   5.221   6.670   3.530
    1   AR   Ar  251   4.945   4.221   4.910
    1   AR   Ar  252   2.618   4.650   1.989
    1   AR   Ar  253   5.940   2.312   7.522
    1   AR   Ar  254   6.100   3.104   9.868
    1   AR   Ar  255   4.105   5.802   9.114
    1   AR   Ar  256   5.898   5.466   3.498
    7.12000  7.12000 12.00000
Argon-slab step 4840
  256
    1   AR   Ar    1   5.252   2.918  -2.295
    1   AR   Ar    2   5.800   6.369   0.519
    1   AR   Ar    3   4.213   3.516  -0.895
    1   AR   Ar    4   2.520   1.184   1.346
    1   AR   Ar    5   6.425   5.435  -0.252
    1   AR   Ar    6   1.230   2.060   2.299
    1   AR   Ar    7   5.728   4.467   3.264
    1   AR   Ar    8   6.122   2.899  -1.867
    1   AR   Ar    9   0.504   6.738   4.337
    1   AR   Ar   10   5.860   5.421   5.164
    1   AR   Ar   11   1.206   6.891   5.020
    1   AR   Ar   12   0.011   1.637   3.791
    1   AR   Ar   13   6.556   0.461   4.180
    1   AR   Ar   14   3.783   1.647   6.420
    1   AR   Ar   15   3.391   0.496   9.719
    1   AR   Ar   16   0.912   0.263   6.079
    1   AR   Ar   17   5.917   3.085   0.874
    1   AR   Ar   18   6.900   5.247  -1.194
    1   AR   Ar   19   5.186   4.665   0.734
    1   AR   Ar   20   6.421   3.736  -2.495
    1   AR   Ar   21   2.708   1.642   2.391
    1   AR   Ar   22   5.715   1.204   2.589
    1   AR   Ar   23   0.521   6.505   1.072
    1   AR   Ar   24   5.611   2.254   3.320
    1   AR   Ar   25   0.492   2.155   4.645
    1   AR   Ar   26   5.686   0.034   4.429
    1   AR   Ar   27   1.887   0.436   1.898
    1   AR   Ar   28   1.706   2.296   3.897
    1   AR   Ar   29   4.341   1.167   7.174
    1   AR   Ar   30   0.620   1.186   2.767
    1   AR   Ar   31   3.357   1.079   7.252
    1   AR   Ar   32   1.293   2.580   5.494
    1   AR   Ar   33   0.376   4.257   0.157
    1   AR   Ar   34   1.086   4.928   2.427
    1   AR   Ar   35   6.072   5.182   2.394
    1   AR   Ar   36   5.811   1.918  -2.431
    1   AR   Ar   37   4.131   3.032   2.027
    1   AR   Ar   38   6.309   4.148   4.393
    1   AR   Ar   39   0.235   3.187   3.766
    1   AR   Ar   40   1.506   3.889   1.783
    1   AR   Ar   41   0.432   2.294   2.934
    1   AR   Ar   42   4.913   6.126   5.912
    1   AR   Ar   43   0.065   2.532   5.919
    1   AR   Ar   44   0.657   4.142   3.063
    1   AR   Ar   45   0.700   3.619   5.479
    1   AR   Ar   46   0.412   4.737   6.549
    1   AR   Ar   47   4.004   4.618   7.627
    1   AR   Ar   48   6.780   3.674   7.334
    1   AR   Ar   49   6.813   0.632  -0.305
    1   AR   Ar   50   3.930   5.257   0.437
    1   AR   Ar   51   5.938   3.628   2.608
    1   AR   Ar   52   5.217   3.112  -1.081
    1   AR   Ar   53   4.656   0.124   2.476
    1   AR   Ar   54   0.718   0.108   2.360
    1   AR   Ar   55   6.675   4.368   2.967
    1   AR   Ar   56   6.656   1.817   2.807
    1   AR   Ar   57   3.729   4.167   2.180
    1   AR   Ar   58   0.904   3.856   4.199
    1   AR   Ar   59   2.779   5.548   5.505
    1   AR   Ar   60   0.269   5.494   2.942
    1   AR   Ar   61   0.323   3.616   6.555
    1   AR   Ar   62   0.120   4.455   4.844
    1   AR   Ar   63   2.929   2.457   7.296
    1   AR   Ar   64   7.066   5.675   4.962
    1   AR   Ar   65   3.699   0.720   2.354
    1   AR   Ar   66   1.179   1.016   1.162
    1   AR   Ar   67   4.655   6.963  -0.314
    1   AR   Ar   68   0.419   1.150  -1.303
    1   AR   Ar   69   2.131   1.379   0.218
    1   AR   Ar   70   0.405   1.875   1.599
    1   AR   Ar   71   2.883   0.439   2.970
    1   AR   Ar   72   4.581   1.169   1.522
    1   AR   Ar   73   3.005   0.197   3.955
    1   AR   Ar   74   0.682   0.941   3.999
    1   AR   Ar   75   3.479   0.514   5.191
    1   AR   Ar   76   2.392   7.034   0.982
    1   AR   Ar   77   1.830   6.271   5.689
    1   AR   Ar   78   6.508   4.852   6.024
    1   AR   Ar   79   3.702   6.720   5.984
    1   AR   Ar   80   3.779   5.723   5.508
    1   AR   Ar   81   1.416   6.784   1.478
    1   AR   Ar   82   6.271   4.652   0.805
    1   AR   Ar   83   0.936   3.260   0.673
    1   AR   Ar   84   1.162   4.510   0.786
    1   AR   Ar   85   1.442   4.205  -0.213
    1   AR   Ar   86   1.635   5.753   0.800
    1   AR   Ar   87   2.933   3.648   2.564
    1   AR   Ar   88   3.728   5.529   1.966
    1   AR   Ar   89   6.457   1.902   0.878
    1   AR   Ar   90   3.173   1.612   5.106
    1   AR   Ar   91   2.103   1.409   3.249
    1   AR   Ar   92   2.064   2.980   1.483
    1   AR   Ar   93   1.921   1.281   5.964
    1   AR   Ar   94   1.599   6.626   9.139
    1   AR   Ar   95   4.157   1.382   5.036
    1   AR   Ar   96   2.510   6.814   5.082
    1   AR   Ar   97   2.895   2.462  -1.051
    1   AR   Ar   98   1.787   4.472   4.176
    1   AR   Ar   99   5.663   0.575  -0.676
    1   AR   Ar  100   0.128   3.295  -3.239
    1   AR   Ar  101   4.162   6.349   2.381
    1   AR   Ar  102   3.756   1.470   3.169
    1   AR   Ar  103   2.078   4.210   1.004
    1   AR   Ar  104   3.753   6.085  -1.376
    1   AR   Ar  105   2.872   2.103   3.591
    1   AR   Ar  106   3.891   2.495   5.106
    1   AR   Ar  107   0.930   5.369   5.347
    1   AR   Ar  108   2.439   1.027   4.616
    1   AR   Ar  109   1.621   4.116   5.544
    1   AR   Ar  110   2.253   2.109   4.809
    1   AR   Ar  111   3.831   5.975   7.908
    1   AR   Ar  112   0.090   5.962   6.291
    1   AR   Ar  113   1.834   5.825  -1.136
    1   AR   Ar  114   2.554   0.326  -0.051
    1   AR   Ar  115   1.101   5.175  -0.004
    1   AR   Ar  116   4.927   0.450   0.571
    1   AR   Ar  117   0.249   4.788   3.891
    1   AR   Ar  118   1.583   5.673   2.986
    1   AR   Ar  119   1.941   3.892   2.917
    1   AR   Ar  120   1.577   6.665   2.632
    1   AR   Ar  121   5.735   4.408   5.582
    1   AR   Ar  122   3.243   5.606   4.221
    1   AR   Ar  123   3.413   3.457   5.704
    1   AR   Ar  124   0.667   5.086   1.474
    1   AR   Ar  125   5.827   3.461   5.023
    1   AR   Ar  126   6.883   0.353   7.579
    1   AR   Ar  127   4.476   3.296   6.276
    1   AR   Ar  128   2.310   4.204   7.073
    1   AR   Ar  129   1.924   5.039   5.108
    1   AR   Ar  130   4.102   1.832  -5.021
    1   AR   Ar  131   4.337   5.265  -1.730
    1   AR   Ar  132   0.410   1.887   0.444
    1   AR   Ar  133   4.310   0.273   4.426
    1   AR   Ar  134   3.440   1.334   4.039
    1   AR   Ar  135   6.111   1.666   4.019
    1   AR   Ar  136   5.873   0.124   2.696
    1   AR   Ar  137   2.848   4.438   6.237
    1   AR   Ar  138   5.524   1.358   5.453
    1   AR   Ar  139   6.088   2.495   5.307
    1   AR   Ar  140   4.693   6.419   4.812
    1   AR   Ar  141   4.303   5.616   4.314
    1   AR   Ar  142   4.787   6.970   7.415
    1   AR   Ar  143   5.533   6.440   6.659
    1   AR   Ar  144   6.966   1.302   4.851
    1   AR   Ar  145   4.506   5.201  -0.744
    1   AR   Ar  146   3.551   2.630   2.893
    1   AR   Ar  147   5.125   4.326  -0.704
    1   AR   Ar  148   2.884   6.456  -1.706
    1   AR   Ar  149   1.193   0.908  -0.190
    1   AR   Ar  150   2.204   2.394   2.755
    1   AR   Ar  151   2.541   3.068   3.400
    1   AR   Ar  152   0.947   1.756  -2.435
    1   AR   Ar  153   5.696   0.698   3.720
    1   AR   Ar  154   4.478   2.703   4.286
    1   AR   Ar  155   6.591   3.770   5.818
    1   AR   Ar  156   2.851   5.000   3.279
    1   AR   Ar  157   2.331   5.244   6.551
    1   AR   Ar  158   0.520   1.465   5.852
    1   AR   Ar  159   4.017   0.410   6.485
    1   AR   Ar  160   1.126   0.979   5.103
    1   AR   Ar  161   4.730   4.413   3.101
    1   AR   Ar  162   4.276   6.065  -0.308
    1   AR   Ar  163   5.955   4.428   1.738
    1   AR   Ar  164   1.919   5.785   1.986
    1   AR   Ar  165   3.435   4.155   1.081
    1   AR   Ar  166   2.633   3.296   4.562
    1   AR   Ar  167   6.456   6.583   3.434
    1   AR   Ar  168   5.347   4.099  -1.900
    1   AR   Ar  169   3.791   3.761   3.314
    1   AR   Ar  170   2.143   3.299   6.124
    1   AR   Ar  171   5.083   4.919   4.225
    1   AR   Ar  172   3.834   3.686   4.772
    1   AR   Ar  173   2.229   2.313   6.077
    1   AR   Ar  174   3.434   6.583   4.723
    1   AR   Ar  175   3.097   0.913   6.124
    1   AR   Ar  176   3.488   2.728   4.143
    1   AR   Ar  177   0.592   4.632  -0.887
    1   AR   Ar  178   2.629   6.098   0.273
    1   AR   Ar  179   3.707   0.053   0.836
    1   AR   Ar  180   5.132   0.823  -6.691
    1   AR   Ar  181   6.905   5.503   1.832
    1   AR   Ar  182   0.835   6.087   2.041
    1   AR   Ar  183   4.680   5.657   1.742
    1   AR   Ar  184   4.646   6.236   0.639
    1   AR   Ar  185   2.971   4.581   4.526
    1   AR   Ar  186   3.087   5.991   2.815
    1   AR   Ar  187   3.996   6.513   3.767
    1   AR   Ar  188   3.146   6.843   2.102
    1   AR   Ar  189   5.910   2.878   6.425
    1   AR   Ar  190   2.406   6.292   3.623
    1   AR   Ar  191   3.388   5.984   6.777
    1   AR   Ar  192   4.299   4.295   5.778
    1   AR   Ar  193   2.832   6.196   1.410
    1   AR   Ar  194   5.514   5.397  -1.103
    1   AR   Ar  195   5.557   1.263   0.743
    1   AR   Ar  196   3.404   0.819  -0.081
    1   AR   Ar  197   4.736   2.463   0.621
    1   AR   Ar  198   5.759   6.921   1.505
    1   AR   Ar  199   1.825   0.401   3.335
    1   AR   Ar  200   5.409   2.927  -0.081
    1   AR   Ar  201   6.745   6.641   2.383
    1   AR   Ar  202   5.064   0.980   4.615
    1   AR   Ar  203   0.453   6.420   3.212
    1   AR   Ar  204   4.649   5.930   6.910
    1   AR   Ar  205   5.792   2.047   1.908
    1   AR   Ar  206   5.887   0.633   6.273
    1   AR   Ar  207   6.915   3.089   5.023
    1   AR   Ar  208   1.113   5.790   4.238
    1   AR   Ar  209   0.073   2.172  -1.709
    1   AR   Ar  210   1.459   6.998   0.395
    1   AR   Ar  211   7.084   2.778   1.088
    1   AR   Ar  212   6.104   3.901   0.058
    1   AR   Ar  213   3.731   1.902   1.856
    1   AR   Ar  214   4.870   4.613   2.149
    1   AR   Ar  215   6.824   2.710   2.024
    1   AR   Ar  216   1.243   2.317   0.965
    1   AR   Ar  217   4.887   1.519   3.402
    1   AR   Ar  218   4.694   3.257   5.145
    1   AR   Ar  219   4.699   3.418   2.816
    1   AR   Ar  220   4.948   3.813   1.329
    1   AR   Ar  221   7.093   5.970   3.987
    1   AR   Ar  222   4.801   0.460   5.656
    1   AR   Ar  223   6.551   1.559   6.390
    1   AR   Ar  224   4.856   2.131   4.986
    1   AR   Ar  225   6.589   2.799   3.170
    1   AR   Ar  226   1.312   3.142   3.436
    1   AR   Ar  227   1.003   3.183   2.452
    1   AR   Ar  228   6.348   1.036   1.767
    1   AR   Ar  229   6.274   4.027  -1.111
    1   AR   Ar  230   4.127   4.587   4.103
    1   AR   Ar  231   4.598   2.170   2.552
    1   AR   Ar  232   5.192   2.869   1.999
    1   AR   Ar  233   6.662   2.518   4.232
    1   AR   Ar  234   5.526   2.601   4.390
    1   AR   Ar  235   7.000   0.402   3.259
    1   AR   Ar  236   4.618   5.219   5.176
    1   AR   Ar  237   4.926   1.631   6.286
    1   AR   Ar  238   5.730   5.308   6.947
    1   AR   Ar  239   1.055   4.652  10.583
    1   AR   Ar  240   1.216   2.644   6.612
    1   AR   Ar  241   1.711   6.156  -0.166
    1   AR   Ar  242   5.764   5.807   1.292
    1   AR   Ar  243   5.206   6.273   2.440
    1   AR   Ar  244   0.204   5.429   0.490
    1   AR   Ar  245   4.060   0.463   3.437
    1   AR   Ar  246   5.537   6.230  -0.590
    1   AR   Ar  247   0.166   3.723   1.644
    1   AR   Ar  248   5.162   5.499  -0.007
    1   AR   Ar  249   4.604   6.980   1.493
    1   AR   Ar  250   5.213   6.659   3.548
    1   AR   Ar  251   5.008   4.199   4.921
    1   AR   Ar  252   2.609   4.628   1.994
    1   AR   Ar  253   5.928   2.317   7.547
    1   AR   Ar  254   6.139   3.143   9.872
    1   AR   Ar  255   4.129   5.813   9.077
    1   AR   Ar  256   5.867   5.479   3.497
    7.12000  7.12000 12.00000
Argon-slab step 4845
  256
    1   AR   Ar    1   5.237   2.921  -2.312
    1   AR   Ar    2   5.782   6.356   0.497
    1   AR   Ar    3   4.194   3.511  -0.897
    1   AR   Ar    4   2.511   1.169   1.342
    1   AR   Ar    5   6.441   5.433  -0.257
    1   AR   Ar    6   1.208   2.071   2.277
    1   AR   Ar    7   5.721   4.433   3.243
    1   AR   Ar    8   6.165   2.906  -1.846
    1   AR   Ar    9   0.512   6.715   4.309
    1   AR   Ar   10   5.869   5.440   5.166
    1   AR   Ar   11   1.191   6.843   5.001
    1   AR   Ar   12   0.050   1.617   3.808
    1   AR   Ar   13   6.592   0.467   4.186
    1   AR   Ar   14   3.793   1.669   6.425
    1   AR   Ar   15   3.391   0.508   9.666
    1   AR   Ar   16   0.911   0.284   6.110
    1   AR   Ar   17   5.934   3.110   0.853
    1   AR   Ar   18   6.904   5.219  -1.217
    1   AR   Ar   19   5.190   4.700   0.756
    1   AR   Ar   20   6.439   3.759  -2.456
    1   AR   Ar   21   2.734   1.652   2.400
    1   AR   Ar   22   5.711   1.185   2.577
    1   AR   Ar   23   0.547   6.506   1.101
    1   AR   Ar   24   5.602   2.281   3.337
    1   AR   Ar   25   0.507   2.169   4.635
    1   AR   Ar   26   5.684   0.033   4.419
    1   AR   Ar   27   1.884   0.436   1.918
    1   AR   Ar   28   1.707   2.290   3.895
    1   AR   Ar   29   4.364   1.167   7.170
    1   AR   Ar   30   0.623   1.215   2.750
    1   AR   Ar   31   3.321   1.077   7.243
    1   AR   Ar   32   1.306   2.562   5.482
    1   AR   Ar   33   0.380   4.225   0.160
    1   AR   Ar   34   1.090   4.900   2.415
    1   AR   Ar   35   6.062   5.168   2.427
    1   AR   Ar   36   5.802   1.915  -2.425
    1   AR   Ar   37   4.142   2.985   2.020
    1   AR   Ar   38   6.361   4.148   4.380
    1   AR   Ar   39   0.245   3.181   3.768
    1   AR   Ar   40   1.495   3.882   1.764
    1   AR   Ar   41   0.415   2.289   2.949
    1   AR   Ar   42   4.883   6.096   5.898
    1   AR   Ar   43   0.063   2.497   5.900
    1   AR   Ar   44   0.687   4.128   3.051
    1   AR   Ar   45   0.716   3.638   5.459
    1   AR   Ar   46   0.416   4.716   6.566
    1   AR   Ar   47   3.996   4.625   7.626
    1   AR   Ar   48   6.781   3.710   7.347
    1   AR   Ar   49   6.824   0.619  -0.264
    1   AR   Ar   50   3.971   5.247   0.424
    1   AR   Ar   51   5.947   3.588   2.605
    1   AR   Ar   52   5.223   3.131  -1.089
    1   AR   Ar   53   4.642   0.147   2.493
    1   AR   Ar   54   0.748   0.090   2.374
    1   AR   Ar   55   6.658   4.394   2.931
    1   AR   Ar   56   6.677   1.820   2.812
    1   AR   Ar   57   3.741   4.136   2.172
    1   AR   Ar   58   0.895   3.863   4.202
    1   AR   Ar   59   2.783   5.555   5.504
    1   AR   Ar   60   0.254   5.492   2.936
    1   AR   Ar   61   0.344   3.584   6.525
    1   AR   Ar   62   0.128   4.443   4.848
    1   AR   Ar   63   2.958   2.449   7.340
    1   AR   Ar   64   7.081   5.713   4.978
    1   AR   Ar   65   3.722   0.748   2.377
    1   AR   Ar   66   1.178   0.997   1.177
    1   AR   Ar   67   4.640   6.953  -0.319
    1   AR   Ar   68   0.411   1.173  -1.355
    1   AR   Ar   69   2.127   1.349   0.209
    1   AR   Ar   70   0.396   1.853   1.608
    1   AR   Ar   71   2.856   0.440   2.991
    1   AR   Ar   72   4.550   1.167   1.536
    1   AR   Ar   73   3.017   0.199   3.974
    1   AR   Ar   74   0.693   0.962   3.984
    1   AR   Ar   75   3.480   0.496   5.209
    1   AR   Ar   76   2.374   7.023   0.961
    1   AR   Ar   77   1.807   6.236   5.704
    1   AR   Ar   78   6.539   4.848   6.028
    1   AR   Ar   79   3.716   6.700   5.980
    1   AR   Ar   80   3.787   5.739   5.517
    1   AR   Ar   81   1.454   6.813   1.501
    1   AR   Ar   82   6.274   4.663   0.794
    1   AR   Ar   83   0.946   3.278   0.676
    1   AR   Ar   84   1.160   4.516   0.784
    1   AR   Ar   85   1.441   4.194  -0.203
    1   AR   Ar   86   1.632   5.747   0.822
    1   AR   Ar   87   2.908   3.635   2.560
    1   AR   Ar   88   3.726   5.528   2.034
    1   AR   Ar   89   6.471   1.891   0.893
    1   AR   Ar   90   3.192   1.648   5.106
    1   AR   Ar   91   2.096   1.422   3.254
    1   AR   Ar   92   2.082   2.998   1.504
    1   AR   Ar   93   1.945   1.283   5.938
    1   AR   Ar   94   1.605   6.628   9.102
    1   AR   Ar   95   4.157   1.361   5.006
    1   AR   Ar   96   2.516   6.836   5.078
    1   AR   Ar   97   2.869   2.477  -1.073
    1   AR   Ar   98   1.745   4.478   4.167
    1   AR   Ar   99   5.662   0.565  -0.671
    1   AR   Ar  100   0.114   3.275  -3.237
    1   AR   Ar  101   4.180   6.318   2.383
    1   AR   Ar  102   3.733   1.470   3.148
    1   AR   Ar  103   2.088   4.211   1.013
    1   AR   Ar  104   3.767   6.106  -1.371
    1   AR   Ar  105   2.889   2.120   3.606
    1   AR   Ar  106   3.908   2.486   5.129
    1   AR   Ar  107   0.924   5.354   5.366
    1   AR   Ar  108   2.412   1.049   4.616
    1   AR   Ar  109   1.628   4.124   5.554
    1   AR   Ar  110   2.264   2.118   4.807
    1   AR   Ar  111   3.810   5.970   7.891
    1   AR   Ar  112   0.065   5.964   6.303
    1   AR   Ar  113   1.818   5.859  -1.158
    1   AR   Ar  114   2.545   0.332  -0.018
    1   AR   Ar  115   1.079   5.171   0.036
    1   AR   Ar  116   4.938   0.472   0.585
    1   AR   Ar  117   0.244   4.786   3.867
    1   AR   Ar  118   1.593   5.667   2.984
    1   AR   Ar  119   1.939   3.885   2.931
    1   AR   Ar  120   1.585   6.671   2.635
    1   AR   Ar  121   5.729   4.395   5.603
    1   AR   Ar  122   3.270   5.618   4.246
    1   AR   Ar  123   3.422   3.436   5.764
    1   AR   Ar  124   0.645   5.110   1.498
    1   AR   Ar  125   5.848   3.448   5.025
    1   AR   Ar  126   6.874   0.328   7.601
    1   AR   Ar  127   4.487   3.292   6.297
    1   AR   Ar  128   2.295   4.201   7.059
    1   AR   Ar  129   1.920   5.043   5.136
    1   AR   Ar  130   4.105   1.814  -5.010
    1   AR   Ar  131   4.349   5.309  -1.711
    1   AR   Ar  132   0.397   1.900   0.434
    1   AR   Ar  133   4.277   0.272   4.433
    1   AR   Ar  134   3.437   1.338   4.086
    1   AR   Ar  135   6.094   1.663   4.049
    1   AR   Ar  136   5.862   0.140   2.709
    1   AR   Ar  137   2.836   4.442   6.219
    1   AR   Ar  138   5.524   1.351   5.450
    1   AR   Ar  139   6.085   2.446   5.307
    1   AR   Ar  140   4.725   6.431   4.813
    1   AR   Ar  141   4.327   5.589   4.319
    1   AR   Ar  142   4.766   6.943   7.413
    1   AR   Ar  143   5.567   6.440   6.654
    1   AR   Ar  144   6.988   1.324   4.850
    1   AR   Ar  145   4.514   5.185  -0.713
    1   AR   Ar  146   3.558   2.634   2.888
    1   AR   Ar  147   5.101   4.365  -0.680
    1   AR   Ar  148   2.878   6.462  -1.718
    1   AR   Ar  149   1.157   0.886  -0.210
    1   AR   Ar  150   2.181   2.396   2.763
    1   AR   Ar  151   2.573   3.039   3.386
    1   AR   Ar  152   0.943   1.723  -2.445
    1   AR   Ar  153   5.708   0.701   3.741
    1   AR   Ar  154   4.499   2.698   4.277
    1   AR   Ar  155   6.599   3.749   5.806
    1   AR   Ar  156   2.861   4.990   3.304
    1   AR   Ar  157   2.366   5.227   6.538
    1   AR   Ar  158   0.528   1.481   5.858
    1   AR   Ar  159   4.001   0.430   6.495
    1   AR   Ar  160   1.106   0.950   5.107
    1   AR   Ar  161   4.715   4.407   3.132
    1   AR   Ar  162   4.283   6.080  -0.282
    1   AR   Ar  163   5.944   4.419   1.722
    1   AR   Ar  164   1.885   5.784   1.970
    1   AR   Ar  165   3.437   4.156   1.066
    1   AR   Ar  166   2.603   3.286   4.582
    1   AR   Ar  167   6.451   6.596   3.449
    1   AR   Ar  168   5.370   4.135  -1.915
    1   AR   Ar  169   3.800   3.743   3.336
    1   AR   Ar  170   2.118   3.317   6.112
    1   AR   Ar  171   5.094   4.933   4.228
    1   AR   Ar  172   3.823   3.677   4.749
    1   AR   Ar  173   2.196   2.288   6.072
    1   AR   Ar  174   3.401   6.566   4.703
    1   AR   Ar  175   3.072   0.930   6.118
    1   AR   Ar  176   3.477   2.704   4.153
    1   AR   Ar  177   0.594   4.650  -0.859
    1   AR   Ar  178   2.640   6.095   0.271
    1   AR   Ar  179   3.724   0.094   0.823
    1   AR   Ar  180   5.111   0.791  -6.694
    1   AR   Ar  181   6.889   5.514   1.840
    1   AR   Ar  182   0.836   6.059   1.992
    1   AR   Ar  183   4.690   5.654   1.780
    1   AR   Ar  184   4.681   6.237   0.656
    1   AR   Ar  185   2.948   4.579   4.519
    1   AR   Ar  186   3.084   6.005   2.808
    1   AR   Ar  187   3.978   6.495   3.778
    1   AR   Ar  188   3.147   6.873   2.107
    1   AR   Ar  189   5.912   2.904   6.415
    1   AR   Ar  190   2.413   6.287   3.613
    1   AR   Ar  191   3.384   5.975   6.758
    1   AR   Ar  192   4.283   4.286   5.784
    1   AR   Ar  193   2.836   6.196   1.407
    1   AR   Ar  194   5.486   5.406  -1.110
    1   AR   Ar  195   5.547   1.250   0.760
    1   AR   Ar  196   3.404   0.835  -0.089
    1   AR   Ar  197   4.749   2.492   0.596
    1   AR   Ar  198   5.746   6.914   1.463
    1   AR   Ar  199   1.808   0.388   3.324
    1   AR   Ar  200   5.447   2.930  -0.062
    1   AR   Ar  201   6.739   6.625   2.417
    1   AR   Ar  202   5.051   1.021   4.611
    1   AR   Ar  203   0.445   6.423   3.191
    1   AR   Ar  204   4.642   5.916   6.899
    1   AR   Ar  205   5.792   2.047   1.896
    1   AR   Ar  206   5.890   0.627   6.296
    1   AR   Ar  207   6.933   3.135   5.034
    1   AR   Ar  208   1.105   5.809   4.221
    1   AR   Ar  209   0.077   2.123  -1.695
    1   AR   Ar  210   1.474   7.017   0.436
    1   AR   Ar  211   7.104   2.784   1.077
    1   AR   Ar  212   6.106   3.921   0.078
    1   AR   Ar  213   3.728   1.911   1.856
    1   AR   Ar  214   4.870   4.601   2.144
    1   AR   Ar  215   6.814   2.704   2.041
    1   AR   Ar  216   1.229   2.335   1.009
    1   AR   Ar  217   4.893   1.529   3.417
    1   AR   Ar  218   4.673   3.260   5.186
    1   AR   Ar  219   4.693   3.428   2.832
    1   AR   Ar  220   4.951   3.798   1.362
    1   AR   Ar  221   7.092   5.969   3.989
    1   AR   Ar  222   4.837   0.438   5.639
    1   AR   Ar  223   6.541   1.575   6.362
    1   AR   Ar  224   4.871   2.108   4.967
    1   AR   Ar  225   6.606   2.780   3.169
    1   AR   Ar  226   1.323   3.142   3.439
    1   AR   Ar  227   1.017   3.159   2.460
    1   AR   Ar  228   6.342   1.020   1.761
    1   AR   Ar  229   6.286   4.020  -1.124
    1   AR   Ar  230   4.095   4.570   4.132
    1   AR   Ar  231   4.609   2.186   2.530
    1   AR   Ar  232   5.186   2.866   1.986
    1   AR   Ar  233   6.651   2.487   4.225
    1   AR   Ar  234   5.490   2.591   4.391
    1   AR   Ar  235   6.983   0.422   3.232
    1   AR   Ar  236   4.608   5.188   5.164
    1   AR   Ar  237   4.949   1.589   6.266
    1   AR   Ar  238   5.728   5.306   6.927
    1   AR   Ar  239   1.051   4.648  10.621
    1   AR   Ar  240   1.191   2.672   6.598
    1   AR   Ar  241   1.708   6.175  -0.208
    1   AR   Ar  242   5.785   5.790   1.290
    1   AR   Ar  243   5.196   6.291   2.428
    1   AR   Ar  244   0.205   5.424   0.498
    1   AR   Ar  245   4.067   0.470   3.443
    1   AR   Ar  246   5.544   6.244  -0.609
    1   AR   Ar  247   0.172   3.727   1.648
    1   AR   Ar  248   5.158   5.505   0.003
    1   AR   Ar  249   4.607   7.019   1.506
    1   AR   Ar  250   5.204   6.649   3.565
    1   AR   Ar  251   5.065   4.175   4.928
    1   AR   Ar  252   2.601   4.604   1.999
    1   AR   Ar  253   5.916   2.322   7.571
    1   AR   Ar  254   6.178   3.181   9.876
    1   AR   Ar  255   4.153   5.824   9.038
    1   AR   Ar  256   5.836   5.496   3.496
    7.12000  7.12000 12.00000
Argon-slab step 4850
  256
    1   AR   Ar    1   5.218   2.925  -2.330
    1   AR   Ar    2   5.763   6.350   0.462
    1   AR   Ar    3   4.175   3.507  -0.900
    1   AR   Ar    4   2.501   1.153   1.337
    1   AR   Ar    5   6.455   5.432  -0.261
    1   AR   Ar    6   1.189   2.082   2.254
    1   AR   Ar    7   5.727   4.418   3.239
    1   AR   Ar    8   6.212   2.913  -1.822
    1   AR   Ar    9   0.516   6.704   4.275
    1   AR   Ar   10   5.824   5.421   5.192
    1   AR   Ar   11   1.185   6.797   4.992
    1   AR   Ar   12   0.069   1.616   3.817
    1   AR   Ar   13   6.638   0.475   4.198
    1   AR   Ar   14   3.804   1.692   6.427
    1   AR   Ar   15   3.391   0.519   9.612
    1   AR   Ar   16   0.911   0.306   6.138
    1   AR   Ar   17   5.925   3.117   0.857
    1   AR   Ar   18   6.906   5.192  -1.241
    1   AR   Ar   19   5.192   4.736   0.780
    1   AR   Ar   20   6.457   3.782  -2.417
    1   AR   Ar   21   2.767   1.653   2.406
    1   AR   Ar   22   5.704   1.169   2.571
    1   AR   Ar   23   0.569   6.507   1.125
    1   AR   Ar   24   5.596   2.311   3.349
    1   AR   Ar   25   0.524   2.185   4.627
    1   AR   Ar   26   5.676   0.015   4.427
    1   AR   Ar   27   1.890   0.451   1.948
    1   AR   Ar   28   1.710   2.282   3.892
    1   AR   Ar   29   4.394   1.167   7.167
    1   AR   Ar   30   0.625   1.243   2.734
    1   AR   Ar   31   3.281   1.073   7.234
    1   AR   Ar   32   1.317   2.544   5.469
    1   AR   Ar   33   0.381   4.193   0.162
    1   AR   Ar   34   1.096   4.871   2.404
    1   AR   Ar   35   6.050   5.157   2.464
    1   AR   Ar   36   5.794   1.913  -2.420
    1   AR   Ar   37   4.147   2.942   2.011
    1   AR   Ar   38   6.411   4.147   4.363
    1   AR   Ar   39   0.256   3.173   3.770
    1   AR   Ar   40   1.477   3.874   1.750
    1   AR   Ar   41   0.407   2.291   2.968
    1   AR   Ar   42   4.851   6.066   5.877
    1   AR   Ar   43   0.062   2.463   5.880
    1   AR   Ar   44   0.661   4.112   3.070
    1   AR   Ar   45   0.727   3.655   5.438
    1   AR   Ar   46   0.420   4.696   6.582
    1   AR   Ar   47   3.989   4.630   7.630
    1   AR   Ar   48   6.780   3.747   7.360
    1   AR   Ar   49   6.835   0.607  -0.224
    1   AR   Ar   50   3.981   5.244   0.417
    1   AR   Ar   51   5.956   3.546   2.601
    1   AR   Ar   52   5.230   3.153  -1.101
    1   AR   Ar   53   4.631   0.174   2.517
    1   AR   Ar   54   0.741   0.072   2.354
    1   AR   Ar   55   6.654   4.419   2.892
    1   AR   Ar   56   6.687   1.812   2.813
    1   AR   Ar   57   3.758   4.107   2.164
    1   AR   Ar   58   0.885   3.871   4.206
    1   AR   Ar   59   2.781   5.561   5.503
    1   AR   Ar   60   0.237   5.478   2.925
    1   AR   Ar   61   0.366   3.552   6.493
    1   AR   Ar   62   0.139   4.430   4.860
    1   AR   Ar   63   2.987   2.440   7.382
    1   AR   Ar   64   7.095   5.748   5.000
    1   AR   Ar   65   3.744   0.775   2.397
    1   AR   Ar   66   1.178   0.978   1.192
    1   AR   Ar   67   4.637   6.964  -0.324
    1   AR   Ar   68   0.403   1.193  -1.407
    1   AR   Ar   69   2.122   1.317   0.201
    1   AR   Ar   70   0.386   1.831   1.618
    1   AR   Ar   71   2.820   0.446   3.014
    1   AR   Ar   72   4.520   1.164   1.552
    1   AR   Ar   73   3.031   0.200   3.999
    1   AR   Ar   74   0.722   0.962   3.975
    1   AR   Ar   75   3.480   0.476   5.224
    1   AR   Ar   76   2.359   7.016   0.942
    1   AR   Ar   77   1.794   6.214   5.714
    1   AR   Ar   78   6.555   4.866   6.022
    1   AR   Ar   79   3.728   6.679   5.972
    1   AR   Ar   80   3.799   5.756   5.525
    1   AR   Ar   81   1.487   6.825   1.520
    1   AR   Ar   82   6.282   4.658   0.794
    1   AR   Ar   83   0.956   3.303   0.680
    1   AR   Ar   84   1.154   4.518   0.791
    1   AR   Ar   85   1.440   4.182  -0.194
    1   AR   Ar   86   1.629   5.743   0.847
    1   AR   Ar   87   2.883   3.619   2.555
    1   AR   Ar   88   3.708   5.514   2.098
    1   AR   Ar   89   6.484   1.880   0.909
    1   AR   Ar   90   3.179   1.662   5.093
    1   AR   Ar   91   2.089   1.435   3.261
    1   AR   Ar   92   2.099   3.016   1.525
    1   AR   Ar   93   1.968   1.281   5.909
    1   AR   Ar   94   1.628   6.647   9.039
    1   AR   Ar   95   4.157   1.336   4.977
    1   AR   Ar   96   2.522   6.838   5.072
    1   AR   Ar   97   2.843   2.492  -1.095
    1   AR   Ar   98   1.705   4.486   4.157
    1   AR   Ar   99   5.660   0.554  -0.665
    1   AR   Ar  100   0.100   3.254  -3.234
    1   AR   Ar  101   4.193   6.302   2.393
    1   AR   Ar  102   3.713   1.476   3.115
    1   AR   Ar  103   2.111   4.212   1.018
    1   AR   Ar  104   3.785   6.127  -1.361
    1   AR   Ar  105   2.901   2.123   3.616
    1   AR   Ar  106   3.890   2.481   5.127
    1   AR   Ar  107   0.917   5.339   5.384
    1   AR   Ar  108   2.385   1.068   4.615
    1   AR   Ar  109   1.631   4.135   5.558
    1   AR   Ar  110   2.274   2.129   4.807
    1   AR   Ar  111   3.790   5.964   7.872
    1   AR   Ar  112   0.040   5.978   6.291
    1   AR   Ar  113   1.764   5.884  -1.152
    1   AR   Ar  114   2.526   0.332   0.016
    1   AR   Ar  115   1.060   5.174   0.066
    1   AR   Ar  116   4.944   0.486   0.597
    1   AR   Ar  117   0.238   4.785   3.840
    1   AR   Ar  118   1.600   5.662   2.984
    1   AR   Ar  119   1.934   3.880   2.945
    1   AR   Ar  120   1.598   6.675   2.638
    1   AR   Ar  121   5.717   4.402   5.621
    1   AR   Ar  122   3.286   5.586   4.221
    1   AR   Ar  123   3.432   3.415   5.824
    1   AR   Ar  124   0.626   5.134   1.516
    1   AR   Ar  125   5.863   3.472   5.011
    1   AR   Ar  126   6.845   0.325   7.595
    1   AR   Ar  127   4.498   3.287   6.316
    1   AR   Ar  128   2.277   4.196   7.047
    1   AR   Ar  129   1.918   5.048   5.162
    1   AR   Ar  130   4.109   1.796  -4.999
    1   AR   Ar  131   4.364   5.350  -1.699
    1   AR   Ar  132   0.384   1.914   0.426
    1   AR   Ar  133   4.248   0.294   4.440
    1   AR   Ar  134   3.432   1.337   4.144
    1   AR   Ar  135   6.075   1.652   4.080
    1   AR   Ar  136   5.850   0.153   2.723
    1   AR   Ar  137   2.834   4.434   6.189
    1   AR   Ar  138   5.531   1.345   5.447
    1   AR   Ar  139   6.083   2.394   5.308
    1   AR   Ar  140   4.758   6.445   4.815
    1   AR   Ar  141   4.343   5.572   4.312
    1   AR   Ar  142   4.743   6.915   7.409
    1   AR   Ar  143   5.603   6.443   6.651
    1   AR   Ar  144   7.009   1.346   4.851
    1   AR   Ar  145   4.515   5.168  -0.683
    1   AR   Ar  146   3.565   2.639   2.883
    1   AR   Ar  147   5.083   4.397  -0.656
    1   AR   Ar  148   2.866   6.469  -1.732
    1   AR   Ar  149   1.121   0.863  -0.228
    1   AR   Ar  150   2.146   2.399   2.766
    1   AR   Ar  151   2.607   3.028   3.381
    1   AR   Ar  152   0.938   1.690  -2.453
    1   AR   Ar  153   5.714   0.718   3.742
    1   AR   Ar  154   4.514   2.702   4.254
    1   AR   Ar  155   6.608   3.729   5.798
    1   AR   Ar  156   2.870   4.980   3.330
    1   AR   Ar  157   2.368   5.232   6.537
    1   AR   Ar  158   0.535   1.499   5.863
    1   AR   Ar  159   3.986   0.454   6.507
    1   AR   Ar  160   1.086   0.920   5.111
    1   AR   Ar  161   4.691   4.406   3.170
    1   AR   Ar  162   4.276   6.078  -0.258
    1   AR   Ar  163   5.929   4.404   1.710
    1   AR   Ar  164   1.852   5.783   1.951
    1   AR   Ar  165   3.439   4.159   1.052
    1   AR   Ar  166   2.574   3.276   4.602
    1   AR   Ar  167   6.443   6.611   3.465
    1   AR   Ar  168   5.373   4.146  -1.922
    1   AR   Ar  169   3.794   3.691   3.355
    1   AR   Ar  170   2.092   3.339   6.100
    1   AR   Ar  171   5.114   4.946   4.226
    1   AR   Ar  172   3.810   3.668   4.724
    1   AR   Ar  173   2.165   2.262   6.066
    1   AR   Ar  174   3.379   6.549   4.682
    1   AR   Ar  175   3.045   0.948   6.111
    1   AR   Ar  176   3.465   2.687   4.166
    1   AR   Ar  177   0.603   4.677  -0.821
    1   AR   Ar  178   2.654   6.093   0.272
    1   AR   Ar  179   3.741   0.135   0.811
    1   AR   Ar  180   5.090   0.759  -6.697
    1   AR   Ar  181   6.871   5.528   1.849
    1   AR   Ar  182   0.840   6.051   1.959
    1   AR   Ar  183   4.709   5.646   1.810
    1   AR   Ar  184   4.706   6.260   0.665
    1   AR   Ar  185   2.925   4.577   4.511
    1   AR   Ar  186   3.083   6.019   2.800
    1   AR   Ar  187   3.960   6.478   3.788
    1   AR   Ar  188   3.158   6.912   2.124
    1   AR   Ar  189   5.900   2.917   6.400
    1   AR   Ar  190   2.420   6.284   3.604
    1   AR   Ar  191   3.386   5.972   6.752
    1   AR   Ar  192   4.268   4.275   5.787
    1   AR   Ar  193   2.840   6.188   1.402
    1   AR   Ar  194   5.459   5.402  -1.123
    1   AR   Ar  195   5.542   1.245   0.782
    1   AR   Ar  196   3.412   0.855  -0.096
    1   AR   Ar  197   4.761   2.519   0.573
    1   AR   Ar  198   5.732   6.907   1.422
    1   AR   Ar  199   1.804   0.408   3.325
    1   AR   Ar  200   5.485   2.934  -0.045
    1   AR   Ar  201   6.732   6.617   2.443
    1   AR   Ar  202   5.068   1.029   4.601
    1   AR   Ar  203   0.484   6.446   3.214
    1   AR   Ar  204   4.631   5.901   6.892
    1   AR   Ar  205   5.798   2.043   1.884
    1   AR   Ar  206   5.891   0.622   6.319
    1   AR   Ar  207   6.953   3.181   5.041
    1   AR   Ar  208   1.096   5.825   4.203
    1   AR   Ar  209   0.079   2.076  -1.683
    1   AR   Ar  210   1.484   7.038   0.475
    1   AR   Ar  211   7.102   2.797   1.065
    1   AR   Ar  212   6.079   3.935   0.080
    1   AR   Ar  213   3.711   1.914   1.853
    1   AR   Ar  214   4.872   4.590   2.132
    1   AR   Ar  215   6.802   2.697   2.067
    1   AR   Ar  216   1.217   2.349   1.056
    1   AR   Ar  217   4.896   1.534   3.433
    1   AR   Ar  218   4.655   3.259   5.232
    1   AR   Ar  219   4.689   3.434   2.847
    1   AR   Ar  220   4.954   3.782   1.395
    1   AR   Ar  221   7.083   5.953   3.985
    1   AR   Ar  222   4.871   0.417   5.621
    1   AR   Ar  223   6.531   1.592   6.333
    1   AR   Ar  224   4.873   2.106   4.986
    1   AR   Ar  225   6.619   2.766   3.168
    1   AR   Ar  226   1.334   3.145   3.444
    1   AR   Ar  227   1.029   3.135   2.463
    1   AR   Ar  228   6.335   1.016   1.750
    1   AR   Ar  229   6.297   4.013  -1.138
    1   AR   Ar  230   4.060   4.550   4.160
    1   AR   Ar  231   4.620   2.198   2.513
    1   AR   Ar  232   5.184   2.872   1.972
    1   AR   Ar  233   6.642   2.460   4.220
    1   AR   Ar  234   5.473   2.588   4.385
    1   AR   Ar  235   6.968   0.443   3.199
    1   AR   Ar  236   4.605   5.149   5.163
    1   AR   Ar  237   4.968   1.547   6.250
    1   AR   Ar  238   5.727   5.304   6.906
    1   AR   Ar  239   1.048   4.645  10.659
    1   AR   Ar  240   1.167   2.702   6.581
    1   AR   Ar  241   1.700   6.196  -0.244
    1   AR   Ar  242   5.805   5.763   1.302
    1   AR   Ar  243   5.187   6.320   2.411
    1   AR   Ar  244   0.201   5.420   0.510
    1   AR   Ar  245   4.072   0.476   3.445
    1   AR   Ar  246   5.553   6.274  -0.623
    1   AR   Ar  247   0.171   3.729   1.659
    1   AR   Ar  248   5.158   5.509   0.020
    1   AR   Ar  249   4.609   7.056   1.514
    1   AR   Ar  250   5.196   6.638   3.580
    1   AR   Ar  251   5.110   4.149   4.926
    1   AR   Ar  252   2.592   4.580   2.005
    1   AR   Ar  253   5.905   2.327   7.593
    1   AR   Ar  254   6.217   3.220   9.879
    1   AR   Ar  255   4.177   5.835   8.999
    1   AR   Ar  256   5.805   5.515   3.496
    7.12000  7.12000 12.00000
Argon-slab step 4855
  256
    1   AR   Ar    1   5.200   2.931  -2.347
    1   AR   Ar    2   5.746   6.347   0.421
    1   AR   Ar    3   4.158   3.504  -0.913
    1   AR   Ar    4   2.492   1.137   1.331
    1   AR   Ar    5   6.467   5.430  -0.263
    1   AR   Ar    6   1.174   2.093   2.231
    1   AR   Ar    7   5.753   4.429   3.257
    1   AR   Ar    8   6.258   2.918  -1.797
    1   AR   Ar    9   0.517   6.705   4.238
    1   AR   Ar   10   5.779   5.402   5.218
    1   AR   Ar   11   1.188   6.754   4.992
    1   AR   Ar   12   0.069   1.633   3.816
    1   AR   Ar   13   6.687   0.484   4.212
    1   AR   Ar   14   3.814   1.715   6.426
    1   AR   Ar   15   3.371   0.498   9.616
    1   AR   Ar   16   0.911   0.328   6.165
    1   AR   Ar   17   5.912   3.120   0.873
    1   AR   Ar   18   6.905   5.165  -1.267
    1   AR   Ar   19   5.195   4.771   0.805
    1   AR   Ar   20   6.474   3.806  -2.377
    1   AR   Ar   21   2.804   1.650   2.411
    1   AR   Ar   22   5.693   1.209   2.592
    1   AR   Ar   23   0.586   6.511   1.137
    1   AR   Ar   24   5.593   2.344   3.358
    1   AR   Ar   25   0.543   2.204   4.620
    1   AR   Ar   26   5.665   7.108   4.444
    1   AR   Ar   27   1.905   0.459   1.972
    1   AR   Ar   28   1.715   2.270   3.890
    1   AR   Ar   29   4.427   1.168   7.167
    1   AR   Ar   30   0.626   1.270   2.718
    1   AR   Ar   31   3.242   1.070   7.223
    1   AR   Ar   32   1.336   2.543   5.473
    1   AR   Ar   33   0.379   4.160   0.164
    1   AR   Ar   34   1.104   4.841   2.395
    1   AR   Ar   35   6.035   5.152   2.500
    1   AR   Ar   36   5.786   1.913  -2.413
    1   AR   Ar   37   4.145   2.905   1.997
    1   AR   Ar   38   6.456   4.146   4.343
    1   AR   Ar   39   0.266   3.164   3.773
    1   AR   Ar   40   1.455   3.867   1.742
    1   AR   Ar   41   0.414   2.301   2.989
    1   AR   Ar   42   4.819   6.037   5.853
    1   AR   Ar   43   0.059   2.432   5.860
    1   AR   Ar   44   0.636   4.094   3.089
    1   AR   Ar   45   0.734   3.669   5.417
    1   AR   Ar   46   0.423   4.674   6.597
    1   AR   Ar   47   3.992   4.626   7.653
    1   AR   Ar   48   6.780   3.783   7.372
    1   AR   Ar   49   6.846   0.595  -0.183
    1   AR   Ar   50   3.971   5.244   0.416
    1   AR   Ar   51   5.964   3.503   2.596
    1   AR   Ar   52   5.239   3.177  -1.115
    1   AR   Ar   53   4.622   0.204   2.547
    1   AR   Ar   54   0.722   0.054   2.324
    1   AR   Ar   55   6.664   4.442   2.850
    1   AR   Ar   56   6.696   1.785   2.795
    1   AR   Ar   57   3.778   4.078   2.156
    1   AR   Ar   58   0.873   3.880   4.214
    1   AR   Ar   59   2.778   5.569   5.503
    1   AR   Ar   60   0.219   5.459   2.912
    1   AR   Ar   61   0.388   3.518   6.459
    1   AR   Ar   62   0.155   4.418   4.877
    1   AR   Ar   63   3.017   2.431   7.423
    1   AR   Ar   64   7.096   5.777   5.009
    1   AR   Ar   65   3.765   0.797   2.409
    1   AR   Ar   66   1.179   0.959   1.208
    1   AR   Ar   67   4.641   6.993  -0.329
    1   AR   Ar   68   0.401   1.200  -1.453
    1   AR   Ar   69   2.098   1.324   0.231
    1   AR   Ar   70   0.371   1.808   1.625
    1   AR   Ar   71   2.786   0.455   3.032
    1   AR   Ar   72   4.491   1.159   1.568
    1   AR   Ar   73   3.047   0.202   4.028
    1   AR   Ar   74   0.770   0.943   3.970
    1   AR   Ar   75   3.481   0.456   5.239
    1   AR   Ar   76   2.353   7.008   0.931
    1   AR   Ar   77   1.789   6.200   5.720
    1   AR   Ar   78   6.575   4.886   6.018
    1   AR   Ar   79   3.741   6.662   5.963
    1   AR   Ar   80   3.814   5.771   5.530
    1   AR   Ar   81   1.512   6.820   1.532
    1   AR   Ar   82   6.286   4.660   0.790
    1   AR   Ar   83   0.983   3.328   0.691
    1   AR   Ar   84   1.147   4.514   0.809
    1   AR   Ar   85   1.440   4.167  -0.186
    1   AR   Ar   86   1.625   5.740   0.873
    1   AR   Ar   87   2.860   3.603   2.548
    1   AR   Ar   88   3.723   5.490   2.050
    1   AR   Ar   89   6.497   1.870   0.928
    1   AR   Ar   90   3.163   1.677   5.087
    1   AR   Ar   91   2.083   1.449   3.268
    1   AR   Ar   92   2.115   3.032   1.547
    1   AR   Ar   93   1.989   1.272   5.877
    1   AR   Ar   94   1.652   6.666   8.977
    1   AR   Ar   95   4.156   1.309   4.950
    1   AR   Ar   96   2.529   6.844   5.061
    1   AR   Ar   97   2.817   2.507  -1.116
    1   AR   Ar   98   1.671   4.497   4.148
    1   AR   Ar   99   5.659   0.542  -0.657
    1   AR   Ar  100   0.084   3.234  -3.231
    1   AR   Ar  101   4.198   6.302   2.411
    1   AR   Ar  102   3.692   1.490   3.086
    1   AR   Ar  103   2.143   4.213   1.022
    1   AR   Ar  104   3.805   6.151  -1.347
    1   AR   Ar  105   2.906   2.104   3.619
    1   AR   Ar  106   3.863   2.478   5.121
    1   AR   Ar  107   0.908   5.324   5.403
    1   AR   Ar  108   2.358   1.086   4.613
    1   AR   Ar  109   1.636   4.148   5.561
    1   AR   Ar  110   2.283   2.143   4.807
    1   AR   Ar  111   3.780   5.960   7.869
    1   AR   Ar  112   0.014   6.000   6.263
    1   AR   Ar  113   1.702   5.903  -1.155
    1   AR   Ar  114   2.503   0.329   0.048
    1   AR   Ar  115   1.049   5.184   0.082
    1   AR   Ar  116   4.941   0.489   0.608
    1   AR   Ar  117   0.232   4.814   3.823
    1   AR   Ar  118   1.601   5.662   2.980
    1   AR   Ar  119   1.927   3.877   2.958
    1   AR   Ar  120   1.614   6.679   2.640
    1   AR   Ar  121   5.714   4.411   5.652
    1   AR   Ar  122   3.299   5.552   4.195
    1   AR   Ar  123   3.443   3.394   5.883
    1   AR   Ar  124   0.611   5.153   1.527
    1   AR   Ar  125   5.880   3.499   4.994
    1   AR   Ar  126   6.817   0.322   7.588
    1   AR   Ar  127   4.508   3.282   6.335
    1   AR   Ar  128   2.257   4.191   7.037
    1   AR   Ar  129   1.917   5.056   5.185
    1   AR   Ar  130   4.113   1.778  -4.988
    1   AR   Ar  131   4.382   5.388  -1.692
    1   AR   Ar  132   0.371   1.927   0.419
    1   AR   Ar  133   4.224   0.352   4.444
    1   AR   Ar  134   3.428   1.332   4.199
    1   AR   Ar  135   6.051   1.635   4.112
    1   AR   Ar  136   5.838   0.162   2.738
    1   AR   Ar  137   2.839   4.416   6.150
    1   AR   Ar  138   5.539   1.346   5.442
    1   AR   Ar  139   6.082   2.342   5.309
    1   AR   Ar  140   4.790   6.461   4.817
    1   AR   Ar  141   4.354   5.578   4.314
    1   AR   Ar  142   4.721   6.886   7.403
    1   AR   Ar  143   5.638   6.445   6.647
    1   AR   Ar  144   7.029   1.368   4.852
    1   AR   Ar  145   4.498   5.159  -0.654
    1   AR   Ar  146   3.584   2.654   2.876
    1   AR   Ar  147   5.078   4.412  -0.633
    1   AR   Ar  148   2.850   6.477  -1.746
    1   AR   Ar  149   1.086   0.841  -0.245
    1   AR   Ar  150   2.102   2.401   2.764
    1   AR   Ar  151   2.640   3.033   3.383
    1   AR   Ar  152   0.931   1.658  -2.460
    1   AR   Ar  153   5.716   0.743   3.728
    1   AR   Ar  154   4.514   2.712   4.222
    1   AR   Ar  155   6.614   3.715   5.797
    1   AR   Ar  156   2.864   4.959   3.336
    1   AR   Ar  157   2.326   5.259   6.549
    1   AR   Ar  158   0.543   1.515   5.869
    1   AR   Ar  159   3.971   0.478   6.516
    1   AR   Ar  160   1.067   0.890   5.113
    1   AR   Ar  161   4.661   4.410   3.214
    1   AR   Ar  162   4.258   6.063  -0.235
    1   AR   Ar  163   5.910   4.386   1.704
    1   AR   Ar  164   1.824   5.782   1.929
    1   AR   Ar  165   3.440   4.161   1.040
    1   AR   Ar  166   2.546   3.265   4.621
    1   AR   Ar  167   6.431   6.628   3.482
    1   AR   Ar  168   5.364   4.139  -1.923
    1   AR   Ar  169   3.784   3.639   3.374
    1   AR   Ar  170   2.067   3.362   6.088
    1   AR   Ar  171   5.144   4.955   4.219
    1   AR   Ar  172   3.794   3.658   4.699
    1   AR   Ar  173   2.137   2.241   6.062
    1   AR   Ar  174   3.370   6.529   4.661
    1   AR   Ar  175   3.018   0.966   6.104
    1   AR   Ar  176   3.458   2.679   4.185
    1   AR   Ar  177   0.614   4.702  -0.780
    1   AR   Ar  178   2.650   6.097   0.292
    1   AR   Ar  179   3.759   0.176   0.798
    1   AR   Ar  180   5.069   0.726  -6.700
    1   AR   Ar  181   6.847   5.546   1.859
    1   AR   Ar  182   0.846   6.075   1.952
    1   AR   Ar  183   4.735   5.632   1.829
    1   AR   Ar  184   4.728   6.289   0.677
    1   AR   Ar  185   2.901   4.573   4.504
    1   AR   Ar  186   3.082   6.034   2.791
    1   AR   Ar  187   3.944   6.462   3.796
    1   AR   Ar  188   3.170   6.952   2.143
    1   AR   Ar  189   5.888   2.930   6.382
    1   AR   Ar  190   2.426   6.281   3.596
    1   AR   Ar  191   3.399   5.978   6.765
    1   AR   Ar  192   4.252   4.262   5.788
    1   AR   Ar  193   2.843   6.176   1.397
    1   AR   Ar  194   5.432   5.391  -1.140
    1   AR   Ar  195   5.545   1.249   0.807
    1   AR   Ar  196   3.425   0.876  -0.102
    1   AR   Ar  197   4.771   2.546   0.555
    1   AR   Ar  198   5.717   6.900   1.383
    1   AR   Ar  199   1.809   0.439   3.297
    1   AR   Ar  200   5.498   2.952  -0.025
    1   AR   Ar  201   6.724   6.614   2.463
    1   AR   Ar  202   5.105   1.014   4.584
    1   AR   Ar  203   0.526   6.475   3.233
    1   AR   Ar  204   4.619   5.885   6.888
    1   AR   Ar  205   5.807   2.036   1.871
    1   AR   Ar  206   5.891   0.618   6.340
    1   AR   Ar  207   6.975   3.221   5.038
    1   AR   Ar  208   1.088   5.839   4.185
    1   AR   Ar  209   0.076   2.044  -1.676
    1   AR   Ar  210   1.480   7.076   0.434
    1   AR   Ar  211   7.097   2.813   1.051
    1   AR   Ar  212   6.049   3.947   0.078
    1   AR   Ar  213   3.671   1.907   1.846
    1   AR   Ar  214   4.876   4.579   2.120
    1   AR   Ar  215   6.789   2.689   2.097
    1   AR   Ar  216   1.204   2.360   1.105
    1   AR   Ar  217   4.896   1.536   3.451
    1   AR   Ar  218   4.638   3.253   5.278
    1   AR   Ar  219   4.688   3.432   2.857
    1   AR   Ar  220   4.958   3.766   1.428
    1   AR   Ar  221   7.067   5.922   3.975
    1   AR   Ar  222   4.905   0.396   5.603
    1   AR   Ar  223   6.521   1.610   6.301
    1   AR   Ar  224   4.874   2.094   5.018
    1   AR   Ar  225   6.625   2.758   3.167
    1   AR   Ar  226   1.344   3.149   3.454
    1   AR   Ar  227   1.039   3.113   2.462
    1   AR   Ar  228   6.329   1.016   1.736
    1   AR   Ar  229   6.306   4.007  -1.151
    1   AR   Ar  230   4.024   4.530   4.188
    1   AR   Ar  231   4.631   2.200   2.503
    1   AR   Ar  232   5.186   2.884   1.955
    1   AR   Ar  233   6.636   2.441   4.218
    1   AR   Ar  234   5.480   2.589   4.374
    1   AR   Ar  235   6.955   0.464   3.163
    1   AR   Ar  236   4.607   5.105   5.173
    1   AR   Ar  237   4.982   1.505   6.240
    1   AR   Ar  238   5.724   5.303   6.883
    1   AR   Ar  239   1.044   4.642  10.696
    1   AR   Ar  240   1.142   2.732   6.563
    1   AR   Ar  241   1.690   6.223  -0.261
    1   AR   Ar  242   5.824   5.730   1.320
    1   AR   Ar  243   5.178   6.350   2.418
    1   AR   Ar  244   0.188   5.416   0.527
    1   AR   Ar  245   4.075   0.484   3.442
    1   AR   Ar  246   5.561   6.311  -0.633
    1   AR   Ar  247   0.171   3.731   1.671
    1   AR   Ar  248   5.164   5.512   0.042
    1   AR   Ar  249   4.612   7.091   1.518
    1   AR   Ar  250   5.186   6.629   3.594
    1   AR   Ar  251   5.138   4.125   4.909
    1   AR   Ar  252   2.583   4.555   2.012
    1   AR   Ar  253   5.894   2.333   7.614
    1   AR   Ar  254   6.256   3.259   9.883
    1   AR   Ar  255   4.200   5.846   8.959
    1   AR   Ar  256   5.775   5.536   3.496
    7.12000  7.12000 12.00000
Argon-slab step 4860
  256
    1   AR   Ar    1   5.183   2.936  -2.362
    1   AR   Ar    2   5.732   6.347   0.380
    1   AR   Ar    3   4.143   3.501  -0.934
    1   AR   Ar    4   2.482   1.120   1.326
    1   AR   Ar    5   6.477   5.428  -0.264
    1   AR   Ar    6   1.164   2.102   2.208
    1   AR   Ar    7   5.770   4.440   3.281
    1   AR   Ar    8   6.303   2.922  -1.771
    1   AR   Ar    9   0.515   6.719   4.202
    1   AR   Ar   10   5.733   5.383   5.243
    1   AR   Ar   11   1.196   6.711   4.997
    1   AR   Ar   12   0.061   1.655   3.810
    1   AR   Ar   13   6.737   0.492   4.228
    1   AR   Ar   14   3.816   1.734   6.433
    1   AR   Ar   15   3.350   0.477   9.620
    1   AR   Ar   16   0.911   0.352   6.190
    1   AR   Ar   17   5.903   3.125   0.900
    1   AR   Ar   18   6.901   5.138  -1.292
    1   AR   Ar   19   5.196   4.805   0.834
    1   AR   Ar   20   6.490   3.831  -2.338
    1   AR   Ar   21   2.841   1.645   2.419
    1   AR   Ar   22   5.709   1.212   2.592
    1   AR   Ar   23   0.597   6.521   1.132
    1   AR   Ar   24   5.591   2.377   3.362
    1   AR   Ar   25   0.563   2.225   4.613
    1   AR   Ar   26   5.654   7.078   4.466
    1   AR   Ar   27   1.925   0.445   1.981
    1   AR   Ar   28   1.721   2.257   3.887
    1   AR   Ar   29   4.460   1.170   7.168
    1   AR   Ar   30   0.626   1.295   2.703
    1   AR   Ar   31   3.204   1.068   7.210
    1   AR   Ar   32   1.352   2.547   5.480
    1   AR   Ar   33   0.374   4.129   0.165
    1   AR   Ar   34   1.113   4.811   2.389
    1   AR   Ar   35   6.014   5.153   2.531
    1   AR   Ar   36   5.778   1.914  -2.406
    1   AR   Ar   37   4.136   2.879   1.977
    1   AR   Ar   38   6.497   4.144   4.318
    1   AR   Ar   39   0.276   3.152   3.775
    1   AR   Ar   40   1.428   3.861   1.736
    1   AR   Ar   41   0.432   2.315   3.013
    1   AR   Ar   42   4.789   6.008   5.826
    1   AR   Ar   43   0.071   2.426   5.847
    1   AR   Ar   44   0.612   4.074   3.108
    1   AR   Ar   45   0.740   3.682   5.415
    1   AR   Ar   46   0.426   4.652   6.610
    1   AR   Ar   47   3.995   4.623   7.676
    1   AR   Ar   48   6.780   3.819   7.382
    1   AR   Ar   49   6.856   0.584  -0.143
    1   AR   Ar   50   3.963   5.244   0.415
    1   AR   Ar   51   5.972   3.460   2.590
    1   AR   Ar   52   5.248   3.202  -1.130
    1   AR   Ar   53   4.619   0.232   2.580
    1   AR   Ar   54   0.712   0.042   2.309
    1   AR   Ar   55   6.689   4.460   2.807
    1   AR   Ar   56   6.696   1.749   2.774
    1   AR   Ar   57   3.800   4.048   2.149
    1   AR   Ar   58   0.856   3.886   4.223
    1   AR   Ar   59   2.774   5.578   5.504
    1   AR   Ar   60   0.200   5.449   2.895
    1   AR   Ar   61   0.409   3.486   6.425
    1   AR   Ar   62   0.176   4.410   4.899
    1   AR   Ar   63   3.046   2.420   7.463
    1   AR   Ar   64   7.089   5.801   5.012
    1   AR   Ar   65   3.783   0.810   2.409
    1   AR   Ar   66   1.195   0.977   1.219
    1   AR   Ar   67   4.651   7.029  -0.333
    1   AR   Ar   68   0.410   1.180  -1.493
    1   AR   Ar   69   2.073   1.330   0.262
    1   AR   Ar   70   0.352   1.786   1.631
    1   AR   Ar   71   2.760   0.465   3.044
    1   AR   Ar   72   4.462   1.153   1.584
    1   AR   Ar   73   3.063   0.205   4.059
    1   AR   Ar   74   0.824   0.915   3.967
    1   AR   Ar   75   3.464   0.457   5.232
    1   AR   Ar   76   2.354   6.999   0.931
    1   AR   Ar   77   1.785   6.184   5.726
    1   AR   Ar   78   6.599   4.908   6.013
    1   AR   Ar   79   3.705   6.679   5.960
    1   AR   Ar   80   3.832   5.779   5.529
    1   AR   Ar   81   1.531   6.800   1.538
    1   AR   Ar   82   6.256   4.668   0.783
    1   AR   Ar   83   1.022   3.355   0.708
    1   AR   Ar   84   1.140   4.505   0.838
    1   AR   Ar   85   1.440   4.153  -0.177
    1   AR   Ar   86   1.620   5.739   0.897
    1   AR   Ar   87   2.842   3.588   2.537
    1   AR   Ar   88   3.731   5.459   1.999
    1   AR   Ar   89   6.509   1.860   0.949
    1   AR   Ar   90   3.145   1.692   5.094
    1   AR   Ar   91   2.078   1.463   3.275
    1   AR   Ar   92   2.131   3.049   1.571
    1   AR   Ar   93   2.008   1.254   5.841
    1   AR   Ar   94   1.674   6.682   8.927
    1   AR   Ar   95   4.156   1.282   4.929
    1   AR   Ar   96   2.527   6.864   5.038
    1   AR   Ar   97   2.791   2.523  -1.138
    1   AR   Ar   98   1.643   4.514   4.138
    1   AR   Ar   99   5.657   0.528  -0.647
    1   AR   Ar  100   0.068   3.213  -3.226
    1   AR   Ar  101   4.191   6.312   2.435
    1   AR   Ar  102   3.684   1.492   3.084
    1   AR   Ar  103   2.179   4.213   1.023
    1   AR   Ar  104   3.822   6.179  -1.327
    1   AR   Ar  105   2.903   2.084   3.616
    1   AR   Ar  106   3.836   2.476   5.119
    1   AR   Ar  107   0.897   5.310   5.421
    1   AR   Ar  108   2.333   1.100   4.610
    1   AR   Ar  109   1.641   4.161   5.564
    1   AR   Ar  110   2.289   2.161   4.808
    1   AR   Ar  111   3.785   5.959   7.890
    1   AR   Ar  112   7.109   6.020   6.232
    1   AR   Ar  113   1.641   5.914  -1.178
    1   AR   Ar  114   2.480   0.328   0.071
    1   AR   Ar  115   1.046   5.200   0.088
    1   AR   Ar  116   4.931   0.482   0.616
    1   AR   Ar  117   0.226   4.862   3.813
    1   AR   Ar  118   1.601   5.661   2.979
    1   AR   Ar  119   1.918   3.876   2.969
    1   AR   Ar  120   1.631   6.683   2.642
    1   AR   Ar  121   5.715   4.422   5.691
    1   AR   Ar  122   3.310   5.518   4.168
    1   AR   Ar  123   3.447   3.390   5.862
    1   AR   Ar  124   0.598   5.169   1.532
    1   AR   Ar  125   5.906   3.513   4.979
    1   AR   Ar  126   6.788   0.320   7.581
    1   AR   Ar  127   4.518   3.277   6.355
    1   AR   Ar  128   2.237   4.185   7.026
    1   AR   Ar  129   1.918   5.067   5.203
    1   AR   Ar  130   4.116   1.760  -4.977
    1   AR   Ar  131   4.406   5.420  -1.687
    1   AR   Ar  132   0.358   1.940   0.413
    1   AR   Ar  133   4.200   0.405   4.453
    1   AR   Ar  134   3.424   1.321   4.242
    1   AR   Ar  135   6.023   1.615   4.146
    1   AR   Ar  136   5.826   0.168   2.753
    1   AR   Ar  137   2.846   4.396   6.107
    1   AR   Ar  138   5.526   1.375   5.432
    1   AR   Ar  139   6.082   2.290   5.310
    1   AR   Ar  140   4.821   6.478   4.818
    1   AR   Ar  141   4.365   5.607   4.337
    1   AR   Ar  142   4.698   6.858   7.395
    1   AR   Ar  143   5.671   6.448   6.643
    1   AR   Ar  144   7.047   1.388   4.855
    1   AR   Ar  145   4.463   5.161  -0.630
    1   AR   Ar  146   3.619   2.683   2.866
    1   AR   Ar  147   5.089   4.408  -0.608
    1   AR   Ar  148   2.832   6.486  -1.760
    1   AR   Ar  149   1.051   0.818  -0.261
    1   AR   Ar  150   2.056   2.404   2.761
    1   AR   Ar  151   2.672   3.049   3.391
    1   AR   Ar  152   0.923   1.625  -2.466
    1   AR   Ar  153   5.717   0.765   3.707
    1   AR   Ar  154   4.505   2.726   4.186
    1   AR   Ar  155   6.615   3.708   5.807
    1   AR   Ar  156   2.855   4.935   3.337
    1   AR   Ar  157   2.284   5.288   6.560
    1   AR   Ar  158   0.552   1.528   5.873
    1   AR   Ar  159   3.956   0.501   6.523
    1   AR   Ar  160   1.049   0.860   5.115
    1   AR   Ar  161   4.629   4.418   3.260
    1   AR   Ar  162   4.235   6.046  -0.215
    1   AR   Ar  163   5.888   4.365   1.703
    1   AR   Ar  164   1.802   5.779   1.908
    1   AR   Ar  165   3.441   4.165   1.029
    1   AR   Ar  166   2.519   3.254   4.640
    1   AR   Ar  167   6.416   6.647   3.502
    1   AR   Ar  168   5.356   4.132  -1.922
    1   AR   Ar  169   3.772   3.587   3.396
    1   AR   Ar  170   2.043   3.382   6.079
    1   AR   Ar  171   5.156   4.959   4.218
    1   AR   Ar  172   3.777   3.643   4.676
    1   AR   Ar  173   2.114   2.228   6.060
    1   AR   Ar  174   3.371   6.505   4.642
    1   AR   Ar  175   2.993   0.984   6.097
    1   AR   Ar  176   3.454   2.681   4.207
    1   AR   Ar  177   0.626   4.726  -0.740
    1   AR   Ar  178   2.645   6.102   0.313
    1   AR   Ar  179   3.776   0.217   0.785
    1   AR   Ar  180   5.048   0.694  -6.703
    1   AR   Ar  181   6.819   5.568   1.872
    1   AR   Ar  182   0.852   6.094   1.965
    1   AR   Ar  183   4.765   5.613   1.840
    1   AR   Ar  184   4.749   6.321   0.695
    1   AR   Ar  185   2.877   4.569   4.497
    1   AR   Ar  186   3.082   6.048   2.782
    1   AR   Ar  187   3.930   6.448   3.800
    1   AR   Ar  188   3.183   6.994   2.162
    1   AR   Ar  189   5.877   2.942   6.363
    1   AR   Ar  190   2.431   6.279   3.590
    1   AR   Ar  191   3.412   5.983   6.778
    1   AR   Ar  192   4.237   4.248   5.788
    1   AR   Ar  193   2.845   6.163   1.395
    1   AR   Ar  194   5.407   5.376  -1.157
    1   AR   Ar  195   5.555   1.262   0.836
    1   AR   Ar  196   3.438   0.898  -0.108
    1   AR   Ar  197   4.776   2.569   0.543
    1   AR   Ar  198   5.696   6.893   1.364
    1   AR   Ar  199   1.815   0.475   3.270
    1   AR   Ar  200   5.510   2.947   0.019
    1   AR   Ar  201   6.718   6.610   2.480
    1   AR   Ar  202   5.142   0.996   4.561
    1   AR   Ar  203   0.569   6.505   3.245
    1   AR   Ar  204   4.606   5.870   6.886
    1   AR   Ar  205   5.805   2.014   1.885
    1   AR   Ar  206   5.889   0.615   6.360
    1   AR   Ar  207   7.001   3.251   5.022
    1   AR   Ar  208   1.082   5.849   4.167
    1   AR   Ar  209   0.062   2.039  -1.677
    1   AR   Ar  210   1.468   7.116   0.391
    1   AR   Ar  211   7.093   2.827   1.036
    1   AR   Ar  212   6.040   3.962   0.055
    1   AR   Ar  213   3.633   1.899   1.840
    1   AR   Ar  214   4.879   4.568   2.109
    1   AR   Ar  215   6.777   2.680   2.125
    1   AR   Ar  216   1.205   2.359   1.114
    1   AR   Ar  217   4.895   1.535   3.468
    1   AR   Ar  218   4.624   3.248   5.305
    1   AR   Ar  219   4.689   3.426   2.863
    1   AR   Ar  220   4.962   3.751   1.459
    1   AR   Ar  221   7.046   5.882   3.960
    1   AR   Ar  222   4.937   0.377   5.583
    1   AR   Ar  223   6.510   1.629   6.268
    1   AR   Ar  224   4.874   2.080   5.057
    1   AR   Ar  225   6.624   2.754   3.167
    1   AR   Ar  226   1.353   3.154   3.467
    1   AR   Ar  227   1.037   3.083   2.476
    1   AR   Ar  228   6.320   1.028   1.736
    1   AR   Ar  229   6.313   4.000  -1.165
    1   AR   Ar  230   3.990   4.514   4.213
    1   AR   Ar  231   4.651   2.206   2.497
    1   AR   Ar  232   5.195   2.899   1.939
    1   AR   Ar  233   6.633   2.432   4.220
    1   AR   Ar  234   5.504   2.594   4.364
    1   AR   Ar  235   6.942   0.485   3.125
    1   AR   Ar  236   4.607   5.087   5.191
    1   AR   Ar  237   4.987   1.465   6.239
    1   AR   Ar  238   5.722   5.303   6.858
    1   AR   Ar  239   1.040   4.639  10.734
    1   AR   Ar  240   1.119   2.760   6.543
    1   AR   Ar  241   1.679   6.257  -0.256
    1   AR   Ar  242   5.842   5.696   1.339
    1   AR   Ar  243   5.176   6.383   2.442
    1   AR   Ar  244   0.186   5.436   0.514
    1   AR   Ar  245   4.076   0.492   3.435
    1   AR   Ar  246   5.569   6.351  -0.642
    1   AR   Ar  247   0.178   3.727   1.682
    1   AR   Ar  248   5.174   5.516   0.064
    1   AR   Ar  249   4.614   0.004   1.521
    1   AR   Ar  250   5.176   6.619   3.606
    1   AR   Ar  251   5.146   4.108   4.882
    1   AR   Ar  252   2.574   4.530   2.019
    1   AR   Ar  253   5.883   2.339   7.634
    1   AR   Ar  254   6.295   3.297   9.886
    1   AR   Ar  255   4.218   5.859   8.949
    1   AR   Ar  256   5.754   5.532   3.504
    7.12000  7.12000 12.00000
Argon-slab step 4865
  256
    1   AR   Ar    1   5.168   2.943  -2.375
    1   AR   Ar    2   5.788   6.401   0.376
    1   AR   Ar    3   4.129   3.499  -0.955
    1   AR   Ar    4   2.472   1.103   1.319
    1   AR   Ar    5   6.485   5.425  -0.265
    1   AR   Ar    6   1.158   2.107   2.185
    1   AR   Ar    7   5.770   4.443   3.285
    1   AR   Ar    8   6.346   2.926  -1.743
    1   AR   Ar    9   0.513   6.758   4.194
    1   AR   Ar   10   5.685   5.367   5.267
    1   AR   Ar   11   1.206   6.668   5.003
    1   AR   Ar   12   0.051   1.674   3.817
    1   AR   Ar   13   6.787   0.502   4.242
    1   AR   Ar   14   3.826   1.735   6.448
    1   AR   Ar   15   3.329   0.456   9.624
    1   AR   Ar   16   0.911   0.377   6.213
    1   AR   Ar   17   5.899   3.132   0.940
    1   AR   Ar   18   6.895   5.111  -1.318
    1   AR   Ar   19   5.196   4.837   0.866
    1   AR   Ar   20   6.506   3.857  -2.298
    1   AR   Ar   21   2.837   1.643   2.393
    1   AR   Ar   22   5.741   1.189   2.581
    1   AR   Ar   23   0.602   6.536   1.113
    1   AR   Ar   24   5.591   2.409   3.360
    1   AR   Ar   25   0.585   2.250   4.608
    1   AR   Ar   26   5.645   7.051   4.487
    1   AR   Ar   27   1.952   0.443   1.999
    1   AR   Ar   28   1.727   2.244   3.885
    1   AR   Ar   29   4.494   1.174   7.172
    1   AR   Ar   30   0.625   1.317   2.690
    1   AR   Ar   31   3.168   1.066   7.196
    1   AR   Ar   32   1.361   2.553   5.480
    1   AR   Ar   33   0.367   4.097   0.167
    1   AR   Ar   34   1.125   4.780   2.384
    1   AR   Ar   35   5.988   5.161   2.556
    1   AR   Ar   36   5.770   1.917  -2.398
    1   AR   Ar   37   4.121   2.862   1.949
    1   AR   Ar   38   6.534   4.140   4.289
    1   AR   Ar   39   0.285   3.138   3.777
    1   AR   Ar   40   1.399   3.856   1.731
    1   AR   Ar   41   0.456   2.332   3.036
    1   AR   Ar   42   4.765   5.980   5.801
    1   AR   Ar   43   0.079   2.428   5.832
    1   AR   Ar   44   0.589   4.053   3.127
    1   AR   Ar   45   0.747   3.693   5.427
    1   AR   Ar   46   0.428   4.630   6.622
    1   AR   Ar   47   3.998   4.622   7.698
    1   AR   Ar   48   6.780   3.856   7.390
    1   AR   Ar   49   6.867   0.574  -0.103
    1   AR   Ar   50   3.955   5.242   0.416
    1   AR   Ar   51   5.979   3.418   2.583
    1   AR   Ar   52   5.259   3.229  -1.145
    1   AR   Ar   53   4.624   0.257   2.612
    1   AR   Ar   54   0.716   0.036   2.316
    1   AR   Ar   55   6.725   4.473   2.765
    1   AR   Ar   56   6.710   1.732   2.758
    1   AR   Ar   57   3.823   4.019   2.142
    1   AR   Ar   58   0.836   3.891   4.235
    1   AR   Ar   59   2.772   5.589   5.506
    1   AR   Ar   60   0.182   5.482   2.868
    1   AR   Ar   61   0.423   3.458   6.391
    1   AR   Ar   62   0.198   4.405   4.924
    1   AR   Ar   63   3.069   2.412   7.492
    1   AR   Ar   64   7.082   5.825   5.018
    1   AR   Ar   65   3.829   0.795   2.397
    1   AR   Ar   66   1.216   1.005   1.229
    1   AR   Ar   67   4.662   7.066  -0.335
    1   AR   Ar   68   0.429   1.137  -1.528
    1   AR   Ar   69   2.046   1.336   0.294
    1   AR   Ar   70   0.329   1.763   1.635
    1   AR   Ar   71   2.750   0.477   3.050
    1   AR   Ar   72   4.435   1.146   1.601
    1   AR   Ar   73   3.081   0.211   4.091
    1   AR   Ar   74   0.880   0.885   3.964
    1   AR   Ar   75   3.441   0.462   5.220
    1   AR   Ar   76   2.359   6.986   0.943
    1   AR   Ar   77   1.784   6.165   5.731
    1   AR   Ar   78   6.625   4.932   6.009
    1   AR   Ar   79   3.670   6.703   5.958
    1   AR   Ar   80   3.846   5.779   5.522
    1   AR   Ar   81   1.543   6.768   1.538
    1   AR   Ar   82   6.232   4.681   0.776
    1   AR   Ar   83   1.061   3.384   0.726
    1   AR   Ar   84   1.133   4.492   0.872
    1   AR   Ar   85   1.439   4.139  -0.167
    1   AR   Ar   86   1.625   5.748   0.906
    1   AR   Ar   87   2.827   3.573   2.520
    1   AR   Ar   88   3.734   5.424   1.947
    1   AR   Ar   89   6.521   1.850   0.973
    1   AR   Ar   90   3.124   1.707   5.118
    1   AR   Ar   91   2.076   1.478   3.281
    1   AR   Ar   92   2.146   3.064   1.595
    1   AR   Ar   93   2.021   1.228   5.800
    1   AR   Ar   94   1.681   6.691   8.921
    1   AR   Ar   95   4.161   1.264   4.919
    1   AR   Ar   96   2.518   6.887   5.019
    1   AR   Ar   97   2.766   2.538  -1.159
    1   AR   Ar   98   1.621   4.536   4.127
    1   AR   Ar   99   5.654   0.513  -0.636
    1   AR   Ar  100   0.052   3.194  -3.220
    1   AR   Ar  101   4.170   6.327   2.461
    1   AR   Ar  102   3.685   1.491   3.104
    1   AR   Ar  103   2.215   4.213   1.025
    1   AR   Ar  104   3.838   6.211  -1.304
    1   AR   Ar  105   2.896   2.077   3.609
    1   AR   Ar  106   3.815   2.476   5.124
    1   AR   Ar  107   0.885   5.295   5.440
    1   AR   Ar  108   2.307   1.113   4.606
    1   AR   Ar  109   1.647   4.176   5.567
    1   AR   Ar  110   2.290   2.184   4.809
    1   AR   Ar  111   3.792   5.958   7.909
    1   AR   Ar  112   7.082   6.038   6.201
    1   AR   Ar  113   1.580   5.920  -1.213
    1   AR   Ar  114   2.459   0.332   0.083
    1   AR   Ar  115   1.055   5.219   0.089
    1   AR   Ar  116   4.917   0.469   0.623
    1   AR   Ar  117   0.221   4.906   3.804
    1   AR   Ar  118   1.608   5.650   2.987
    1   AR   Ar  119   1.907   3.879   2.979
    1   AR   Ar  120   1.620   6.688   2.654
    1   AR   Ar  121   5.716   4.430   5.734
    1   AR   Ar  122   3.321   5.485   4.141
    1   AR   Ar  123   3.452   3.385   5.839
    1   AR   Ar  124   0.588   5.181   1.532
    1   AR   Ar  125   5.944   3.516   4.967
    1   AR   Ar  126   6.759   0.317   7.574
    1   AR   Ar  127   4.527   3.272   6.376
    1   AR   Ar  128   2.216   4.179   7.013
    1   AR   Ar  129   1.920   5.083   5.217
    1   AR   Ar  130   4.120   1.742  -4.966
    1   AR   Ar  131   4.433   5.449  -1.686
    1   AR   Ar  132   0.347   1.954   0.410
    1   AR   Ar  133   4.178   0.447   4.460
    1   AR   Ar  134   3.419   1.303   4.265
    1   AR   Ar  135   5.995   1.596   4.184
    1   AR   Ar  136   5.814   0.170   2.770
    1   AR   Ar  137   2.853   4.375   6.062
    1   AR   Ar  138   5.527   1.398   5.417
    1   AR   Ar  139   6.084   2.241   5.309
    1   AR   Ar  140   4.840   6.488   4.825
    1   AR   Ar  141   4.371   5.641   4.357
    1   AR   Ar  142   4.674   6.830   7.386
    1   AR   Ar  143   5.702   6.450   6.638
    1   AR   Ar  144   7.064   1.409   4.860
    1   AR   Ar  145   4.419   5.166  -0.609
    1   AR   Ar  146   3.652   2.708   2.858
    1   AR   Ar  147   5.110   4.393  -0.584
    1   AR   Ar  148   2.817   6.482  -1.750
    1   AR   Ar  149   1.015   0.796  -0.275
    1   AR   Ar  150   2.009   2.411   2.757
    1   AR   Ar  151   2.702   3.069   3.404
    1   AR   Ar  152   0.914   1.593  -2.470
    1   AR   Ar  153   5.718   0.780   3.677
    1   AR   Ar  154   4.492   2.742   4.150
    1   AR   Ar  155   6.613   3.708   5.827
    1   AR   Ar  156   2.845   4.910   3.338
    1   AR   Ar  157   2.242   5.317   6.570
    1   AR   Ar  158   0.565   1.536   5.877
    1   AR   Ar  159   3.939   0.524   6.526
    1   AR   Ar  160   1.030   0.830   5.116
    1   AR   Ar  161   4.597   4.427   3.306
    1   AR   Ar  162   4.209   6.037  -0.194
    1   AR   Ar  163   5.865   4.343   1.707
    1   AR   Ar  164   1.790   5.774   1.891
    1   AR   Ar  165   3.441   4.169   1.020
    1   AR   Ar  166   2.493   3.242   4.657
    1   AR   Ar  167   6.400   6.669   3.524
    1   AR   Ar  168   5.349   4.123  -1.919
    1   AR   Ar  169   3.757   3.538   3.421
    1   AR   Ar  170   2.022   3.396   6.073
    1   AR   Ar  171   5.135   4.959   4.229
    1   AR   Ar  172   3.757   3.620   4.658
    1   AR   Ar  173   2.098   2.221   6.065
    1   AR   Ar  174   3.379   6.476   4.628
    1   AR   Ar  175   2.971   1.003   6.090
    1   AR   Ar  176   3.447   2.689   4.227
    1   AR   Ar  177   0.637   4.749  -0.701
    1   AR   Ar  178   2.639   6.107   0.334
    1   AR   Ar  179   3.795   0.258   0.772
    1   AR   Ar  180   5.027   0.662  -6.705
    1   AR   Ar  181   6.789   5.591   1.886
    1   AR   Ar  182   0.853   6.109   1.997
    1   AR   Ar  183   4.799   5.592   1.846
    1   AR   Ar  184   4.767   6.354   0.715
    1   AR   Ar  185   2.852   4.563   4.491
    1   AR   Ar  186   3.085   6.061   2.770
    1   AR   Ar  187   3.920   6.436   3.796
    1   AR   Ar  188   3.194   6.990   2.154
    1   AR   Ar  189   5.867   2.955   6.342
    1   AR   Ar  190   2.435   6.279   3.586
    1   AR   Ar  191   3.427   5.987   6.790
    1   AR   Ar  192   4.221   4.232   5.787
    1   AR   Ar  193   2.848   6.147   1.396
    1   AR   Ar  194   5.381   5.360  -1.173
    1   AR   Ar  195   5.545   1.260   0.831
    1   AR   Ar  196   3.452   0.918  -0.112
    1   AR   Ar  197   4.772   2.588   0.539
    1   AR   Ar  198   5.686   6.908   1.358
    1   AR   Ar  199   1.804   0.506   3.246
    1   AR   Ar  200   5.527   2.947   0.044
    1   AR   Ar  201   6.715   6.606   2.496
    1   AR   Ar  202   5.175   0.978   4.535
    1   AR   Ar  203   0.613   6.532   3.243
    1   AR   Ar  204   4.592   5.854   6.885
    1   AR   Ar  205   5.801   1.989   1.904
    1   AR   Ar  206   5.886   0.612   6.380
    1   AR   Ar  207   7.028   3.273   4.993
    1   AR   Ar  208   1.077   5.855   4.148
    1   AR   Ar  209   0.039   2.057  -1.684
    1   AR   Ar  210   1.453   0.036   0.349
    1   AR   Ar  211   7.089   2.842   1.021
    1   AR   Ar  212   6.024   3.979   0.022
    1   AR   Ar  213   3.602   1.893   1.832
    1   AR   Ar  214   4.882   4.559   2.102
    1   AR   Ar  215   6.765   2.670   2.151
    1   AR   Ar  216   1.208   2.355   1.112
    1   AR   Ar  217   4.893   1.533   3.487
    1   AR   Ar  218   4.618   3.253   5.258
    1   AR   Ar  219   4.693   3.419   2.869
    1   AR   Ar  220   4.965   3.740   1.483
    1   AR   Ar  221   7.023   5.840   3.940
    1   AR   Ar  222   4.969   0.359   5.562
    1   AR   Ar  223   6.498   1.648   6.233
    1   AR   Ar  224   4.871   2.069   5.096
    1   AR   Ar  225   6.617   2.753   3.170
    1   AR   Ar  226   1.360   3.159   3.484
    1   AR   Ar  227   1.021   3.041   2.516
    1   AR   Ar  228   6.309   1.059   1.758
    1   AR   Ar  229   6.319   3.993  -1.180
    1   AR   Ar  230   3.959   4.505   4.235
    1   AR   Ar  231   4.683   2.222   2.491
    1   AR   Ar  232   5.210   2.911   1.925
    1   AR   Ar  233   6.630   2.431   4.226
    1   AR   Ar  234   5.535   2.601   4.359
    1   AR   Ar  235   6.930   0.506   3.086
    1   AR   Ar  236   4.605   5.084   5.214
    1   AR   Ar  237   4.985   1.425   6.248
    1   AR   Ar  238   5.719   5.304   6.831
    1   AR   Ar  239   1.036   4.636  10.772
    1   AR   Ar  240   1.101   2.785   6.522
    1   AR   Ar  241   1.669   6.294  -0.237
    1   AR   Ar  242   5.858   5.660   1.358
    1   AR   Ar  243   5.187   6.418   2.468
    1   AR   Ar  244   0.179   5.464   0.497
    1   AR   Ar  245   4.073   0.502   3.427
    1   AR   Ar  246   5.574   6.392  -0.654
    1   AR   Ar  247   0.193   3.715   1.694
    1   AR   Ar  248   5.186   5.521   0.085
    1   AR   Ar  249   4.616   0.035   1.526
    1   AR   Ar  250   5.165   6.609   3.616
    1   AR   Ar  251   5.138   4.099   4.849
    1   AR   Ar  252   2.565   4.505   2.026
    1   AR   Ar  253   5.872   2.345   7.653
    1   AR   Ar  254   6.275   3.303   9.891
    1   AR   Ar  255   4.231   5.874   8.958
    1   AR   Ar  256   5.734   5.525   3.514
    7.12000  7.12000 12.00000
Argon-slab step 4870
  256
    1   AR   Ar    1   5.154   2.950  -2.387
    1   AR   Ar    2   5.847   6.455   0.376
    1   AR   Ar    3   4.117   3.498  -0.976
    1   AR   Ar    4   2.462   1.085   1.313
    1   AR   Ar    5   6.491   5.422  -0.265
    1   AR   Ar    6   1.154   2.105   2.158
    1   AR   Ar    7   5.768   4.442   3.292
    1   AR   Ar    8   6.388   2.929  -1.716
    1   AR   Ar    9   0.503   6.758   4.222
    1   AR   Ar   10   5.638   5.353   5.289
    1   AR   Ar   11   1.215   6.628   5.009
    1   AR   Ar   12   0.041   1.692   3.834
    1   AR   Ar   13   6.836   0.511   4.254
    1   AR   Ar   14   3.835   1.735   6.461
    1   AR   Ar   15   3.308   0.435   9.628
    1   AR   Ar   16   0.912   0.403   6.234
    1   AR   Ar   17   5.900   3.182   0.968
    1   AR   Ar   18   6.891   5.085  -1.350
    1   AR   Ar   19   5.192   4.867   0.904
    1   AR   Ar   20   6.521   3.884  -2.258
    1   AR   Ar   21   2.814   1.639   2.366
    1   AR   Ar   22   5.766   1.169   2.580
    1   AR   Ar   23   0.603   6.552   1.086
    1   AR   Ar   24   5.590   2.439   3.351
    1   AR   Ar   25   0.608   2.277   4.602
    1   AR   Ar   26   5.640   7.028   4.508
    1   AR   Ar   27   1.953   0.459   2.016
    1   AR   Ar   28   1.733   2.233   3.885
    1   AR   Ar   29   4.528   1.177   7.177
    1   AR   Ar   30   0.623   1.336   2.677
    1   AR   Ar   31   3.133   1.066   7.181
    1   AR   Ar   32   1.363   2.563   5.474
    1   AR   Ar   33   0.360   4.067   0.170
    1   AR   Ar   34   1.137   4.749   2.380
    1   AR   Ar   35   5.958   5.174   2.573
    1   AR   Ar   36   5.763   1.922  -2.389
    1   AR   Ar   37   4.104   2.853   1.914
    1   AR   Ar   38   6.570   4.136   4.256
    1   AR   Ar   39   0.294   3.125   3.779
    1   AR   Ar   40   1.369   3.851   1.729
    1   AR   Ar   41   0.482   2.348   3.062
    1   AR   Ar   42   4.754   5.957   5.779
    1   AR   Ar   43   0.085   2.438   5.815
    1   AR   Ar   44   0.568   4.030   3.146
    1   AR   Ar   45   0.758   3.699   5.439
    1   AR   Ar   46   0.429   4.605   6.632
    1   AR   Ar   47   4.001   4.621   7.721
    1   AR   Ar   48   6.782   3.892   7.396
    1   AR   Ar   49   6.878   0.563  -0.062
    1   AR   Ar   50   3.949   5.247   0.415
    1   AR   Ar   51   5.984   3.377   2.575
    1   AR   Ar   52   5.269   3.253  -1.156
    1   AR   Ar   53   4.644   0.274   2.643
    1   AR   Ar   54   0.719   0.033   2.322
    1   AR   Ar   55   6.766   4.482   2.722
    1   AR   Ar   56   6.748   1.749   2.752
    1   AR   Ar   57   3.809   4.056   2.133
    1   AR   Ar   58   0.814   3.894   4.248
    1   AR   Ar   59   2.773   5.602   5.510
    1   AR   Ar   60   0.165   5.515   2.840
    1   AR   Ar   61   0.404   3.444   6.372
    1   AR   Ar   62   0.205   4.406   4.945
    1   AR   Ar   63   3.064   2.414   7.480
    1   AR   Ar   64   7.065   5.822   4.990
    1   AR   Ar   65   3.872   0.776   2.376
    1   AR   Ar   66   1.238   1.033   1.239
    1   AR   Ar   67   4.675   7.101  -0.337
    1   AR   Ar   68   0.451   1.087  -1.560
    1   AR   Ar   69   2.018   1.341   0.327
    1   AR   Ar   70   0.314   1.735   1.638
    1   AR   Ar   71   2.758   0.490   3.052
    1   AR   Ar   72   4.410   1.140   1.615
    1   AR   Ar   73   3.098   0.220   4.122
    1   AR   Ar   74   0.935   0.856   3.961
    1   AR   Ar   75   3.415   0.467   5.208
    1   AR   Ar   76   2.366   6.971   0.965
    1   AR   Ar   77   1.784   6.143   5.738
    1   AR   Ar   78   6.652   4.957   6.004
    1   AR   Ar   79   3.634   6.732   5.956
    1   AR   Ar   80   3.848   5.775   5.508
    1   AR   Ar   81   1.552   6.732   1.535
    1   AR   Ar   82   6.213   4.698   0.768
    1   AR   Ar   83   1.099   3.414   0.745
    1   AR   Ar   84   1.126   4.479   0.907
    1   AR   Ar   85   1.438   4.125  -0.155
    1   AR   Ar   86   1.631   5.762   0.903
    1   AR   Ar   87   2.816   3.557   2.498
    1   AR   Ar   88   3.735   5.390   1.896
    1   AR   Ar   89   6.532   1.841   0.998
    1   AR   Ar   90   3.104   1.718   5.154
    1   AR   Ar   91   2.076   1.494   3.285
    1   AR   Ar   92   2.161   3.080   1.621
    1   AR   Ar   93   2.028   1.200   5.753
    1   AR   Ar   94   1.666   6.718   8.891
    1   AR   Ar   95   4.173   1.270   4.931
    1   AR   Ar   96   2.504   6.912   5.003
    1   AR   Ar   97   2.740   2.553  -1.181
    1   AR   Ar   98   1.605   4.561   4.116
    1   AR   Ar   99   5.652   0.497  -0.623
    1   AR   Ar  100   0.034   3.174  -3.214
    1   AR   Ar  101   4.143   6.342   2.487
    1   AR   Ar  102   3.685   1.497   3.132
    1   AR   Ar  103   2.222   4.247   1.036
    1   AR   Ar  104   3.815   6.240  -1.306
    1   AR   Ar  105   2.888   2.064   3.600
    1   AR   Ar  106   3.801   2.478   5.138
    1   AR   Ar  107   0.870   5.281   5.459
    1   AR   Ar  108   2.283   1.124   4.601
    1   AR   Ar  109   1.651   4.194   5.569
    1   AR   Ar  110   2.285   2.210   4.809
    1   AR   Ar  111   3.800   5.957   7.926
    1   AR   Ar  112   7.056   6.055   6.168
    1   AR   Ar  113   1.518   5.925  -1.251
    1   AR   Ar  114   2.442   0.341   0.085
    1   AR   Ar  115   1.033   5.218   0.090
    1   AR   Ar  116   4.901   0.452   0.626
    1   AR   Ar  117   0.219   4.939   3.795
    1   AR   Ar  118   1.619   5.632   3.000
    1   AR   Ar  119   1.896   3.886   2.987
    1   AR   Ar  120   1.604   6.694   2.668
    1   AR   Ar  121   5.716   4.433   5.777
    1   AR   Ar  122   3.330   5.454   4.113
    1   AR   Ar  123   3.458   3.381   5.814
    1   AR   Ar  124   0.580   5.193   1.530
    1   AR   Ar  125   5.987   3.512   4.956
    1   AR   Ar  126   6.730   0.315   7.565
    1   AR   Ar  127   4.536   3.267   6.396
    1   AR   Ar  128   2.195   4.173   6.999
    1   AR   Ar  129   1.922   5.103   5.226
    1   AR   Ar  130   4.123   1.724  -4.955
    1   AR   Ar  131   4.461   5.474  -1.686
    1   AR   Ar  132   0.345   1.947   0.439
    1   AR   Ar  133   4.159   0.463   4.456
    1   AR   Ar  134   3.409   1.280   4.269
    1   AR   Ar  135   5.970   1.584   4.226
    1   AR   Ar  136   5.802   0.168   2.787
    1   AR   Ar  137   2.858   4.355   6.016
    1   AR   Ar  138   5.538   1.408   5.400
    1   AR   Ar  139   6.091   2.198   5.307
    1   AR   Ar  140   4.841   6.487   4.841
    1   AR   Ar  141   4.373   5.677   4.377
    1   AR   Ar  142   4.650   6.802   7.376
    1   AR   Ar  143   5.732   6.451   6.633
    1   AR   Ar  144   7.080   1.429   4.867
    1   AR   Ar  145   4.373   5.164  -0.594
    1   AR   Ar  146   3.682   2.724   2.850
    1   AR   Ar  147   5.136   4.374  -0.560
    1   AR   Ar  148   2.803   6.470  -1.722
    1   AR   Ar  149   0.979   0.775  -0.290
    1   AR   Ar  150   1.963   2.421   2.755
    1   AR   Ar  151   2.728   3.091   3.422
    1   AR   Ar  152   0.905   1.560  -2.474
    1   AR   Ar  153   5.719   0.786   3.640
    1   AR   Ar  154   4.479   2.758   4.114
    1   AR   Ar  155   6.609   3.711   5.850
    1   AR   Ar  156   2.835   4.885   3.338
    1   AR   Ar  157   2.222   5.339   6.586
    1   AR   Ar  158   0.581   1.538   5.879
    1   AR   Ar  159   3.921   0.546   6.528
    1   AR   Ar  160   1.012   0.800   5.117
    1   AR   Ar  161   4.566   4.438   3.353
    1   AR   Ar  162   4.183   6.043  -0.172
    1   AR   Ar  163   5.852   4.328   1.698
    1   AR   Ar  164   1.788   5.764   1.883
    1   AR   Ar  165   3.441   4.175   1.012
    1   AR   Ar  166   2.468   3.232   4.674
    1   AR   Ar  167   6.383   6.691   3.548
    1   AR   Ar  168   5.338   4.127  -1.943
    1   AR   Ar  169   3.743   3.496   3.452
    1   AR   Ar  170   2.003   3.403   6.071
    1   AR   Ar  171   5.116   4.956   4.239
    1   AR   Ar  172   3.736   3.591   4.644
    1   AR   Ar  173   2.090   2.217   6.075
    1   AR   Ar  174   3.388   6.443   4.625
    1   AR   Ar  175   2.963   1.011   6.077
    1   AR   Ar  176   3.434   2.700   4.239
    1   AR   Ar  177   0.644   4.768  -0.668
    1   AR   Ar  178   2.632   6.113   0.354
    1   AR   Ar  179   3.813   0.298   0.759
    1   AR   Ar  180   5.005   0.630  -6.708
    1   AR   Ar  181   6.759   5.615   1.902
    1   AR   Ar  182   0.845   6.123   2.040
    1   AR   Ar  183   4.835   5.573   1.850
    1   AR   Ar  184   4.782   6.377   0.736
    1   AR   Ar  185   2.873   4.585   4.501
    1   AR   Ar  186   3.089   6.073   2.757
    1   AR   Ar  187   3.914   6.427   3.783
    1   AR   Ar  188   3.205   6.975   2.140
    1   AR   Ar  189   5.858   2.967   6.319
    1   AR   Ar  190   2.438   6.279   3.583
    1   AR   Ar  191   3.442   5.990   6.802
    1   AR   Ar  192   4.205   4.213   5.784
    1   AR   Ar  193   2.852   6.131   1.400
    1   AR   Ar  194   5.358   5.344  -1.186
    1   AR   Ar  195   5.539   1.262   0.828
    1   AR   Ar  196   3.464   0.926  -0.123
    1   AR   Ar  197   4.758   2.601   0.546
    1   AR   Ar  198   5.689   6.940   1.343
    1   AR   Ar  199   1.774   0.530   3.225
    1   AR   Ar  200   5.552   2.950   0.049
    1   AR   Ar  201   6.713   6.601   2.510
    1   AR   Ar  202   5.203   0.958   4.509
    1   AR   Ar  203   0.657   6.554   3.228
    1   AR   Ar  204   4.578   5.838   6.884
    1   AR   Ar  205   5.797   1.969   1.922
    1   AR   Ar  206   5.881   0.611   6.398
    1   AR   Ar  207   7.055   3.290   4.956
    1   AR   Ar  208   1.072   5.858   4.128
    1   AR   Ar  209   0.012   2.084  -1.693
    1   AR   Ar  210   1.435   0.076   0.311
    1   AR   Ar  211   7.086   2.855   1.008
    1   AR   Ar  212   5.998   4.001  -0.022
    1   AR   Ar  213   3.583   1.888   1.818
    1   AR   Ar  214   4.883   4.552   2.100
    1   AR   Ar  215   6.742   2.669   2.154
    1   AR   Ar  216   1.212   2.349   1.123
    1   AR   Ar  217   4.891   1.531   3.505
    1   AR   Ar  218   4.611   3.255   5.212
    1   AR   Ar  219   4.697   3.413   2.878
    1   AR   Ar  220   4.963   3.738   1.497
    1   AR   Ar  221   6.994   5.841   3.985
    1   AR   Ar  222   5.000   0.342   5.540
    1   AR   Ar  223   6.485   1.666   6.196
    1   AR   Ar  224   4.834   2.060   5.111
    1   AR   Ar  225   6.633   2.744   3.188
    1   AR   Ar  226   1.366   3.163   3.506
    1   AR   Ar  227   1.003   3.012   2.551
    1   AR   Ar  228   6.303   1.088   1.772
    1   AR   Ar  229   6.322   3.987  -1.194
    1   AR   Ar  230   3.930   4.506   4.254
    1   AR   Ar  231   4.718   2.229   2.493
    1   AR   Ar  232   5.233   2.914   1.915
    1   AR   Ar  233   6.627   2.439   4.237
    1   AR   Ar  234   5.568   2.609   4.362
    1   AR   Ar  235   6.917   0.527   3.047
    1   AR   Ar  236   4.605   5.077   5.237
    1   AR   Ar  237   4.976   1.386   6.263
    1   AR   Ar  238   5.716   5.305   6.803
    1   AR   Ar  239   1.033   4.632  10.809
    1   AR   Ar  240   1.096   2.797   6.502
    1   AR   Ar  241   1.659   6.329  -0.213
    1   AR   Ar  242   5.871   5.624   1.375
    1   AR   Ar  243   5.206   6.455   2.493
    1   AR   Ar  244   0.164   5.493   0.487
    1   AR   Ar  245   4.065   0.512   3.423
    1   AR   Ar  246   5.578   6.431  -0.668
    1   AR   Ar  247   0.209   3.703   1.706
    1   AR   Ar  248   5.199   5.527   0.101
    1   AR   Ar  249   4.595   0.052   1.523
    1   AR   Ar  250   5.154   6.599   3.625
    1   AR   Ar  251   5.122   4.095   4.816
    1   AR   Ar  252   2.555   4.481   2.034
    1   AR   Ar  253   5.861   2.352   7.671
    1   AR   Ar  254   6.286   3.318   9.876
    1   AR   Ar  255   4.244   5.889   8.967
    1   AR   Ar  256   5.716   5.522   3.527
    7.12000  7.12000 12.00000
Argon-slab step 4875
  256
    1   AR   Ar    1   5.142   2.958  -2.396
    1   AR   Ar    2   5.906   6.508   0.376
    1   AR   Ar    3   4.106   3.497  -0.997
    1   AR   Ar    4   2.453   1.068   1.305
    1   AR   Ar    5   6.502   5.391  -0.243
    1   AR   Ar    6   1.153   2.095   2.130
    1   AR   Ar    7   5.765   4.437   3.302
    1   AR   Ar    8   6.428   2.932  -1.688
    1   AR   Ar    9   0.490   6.762   4.253
    1   AR   Ar   10   5.591   5.343   5.309
    1   AR   Ar   11   1.224   6.588   5.013
    1   AR   Ar   12   0.042   1.673   3.848
    1   AR   Ar   13   6.885   0.521   4.264
    1   AR   Ar   14   3.844   1.733   6.474
    1   AR   Ar   15   3.287   0.414   9.631
    1   AR   Ar   16   0.913   0.416   6.230
    1   AR   Ar   17   5.904   3.244   0.999
    1   AR   Ar   18   6.892   5.074  -1.376
    1   AR   Ar   19   5.184   4.894   0.947
    1   AR   Ar   20   6.536   3.910  -2.219
    1   AR   Ar   21   2.779   1.630   2.349
    1   AR   Ar   22   5.782   1.153   2.594
    1   AR   Ar   23   0.604   6.568   1.056
    1   AR   Ar   24   5.589   2.467   3.335
    1   AR   Ar   25   0.630   2.306   4.597
    1   AR   Ar   26   5.641   7.010   4.526
    1   AR   Ar   27   1.936   0.486   2.034
    1   AR   Ar   28   1.736   2.225   3.889
    1   AR   Ar   29   4.559   1.180   7.186
    1   AR   Ar   30   0.622   1.350   2.665
    1   AR   Ar   31   3.100   1.066   7.165
    1   AR   Ar   32   1.364   2.571   5.475
    1   AR   Ar   33   0.352   4.038   0.174
    1   AR   Ar   34   1.149   4.719   2.378
    1   AR   Ar   35   5.929   5.190   2.581
    1   AR   Ar   36   5.759   1.925  -2.390
    1   AR   Ar   37   4.087   2.850   1.873
    1   AR   Ar   38   6.604   4.131   4.220
    1   AR   Ar   39   0.307   3.124   3.780
    1   AR   Ar   40   1.340   3.845   1.731
    1   AR   Ar   41   0.506   2.355   3.092
    1   AR   Ar   42   4.761   5.940   5.766
    1   AR   Ar   43   0.089   2.455   5.795
    1   AR   Ar   44   0.548   4.006   3.165
    1   AR   Ar   45   0.789   3.704   5.426
    1   AR   Ar   46   0.430   4.580   6.640
    1   AR   Ar   47   4.003   4.622   7.742
    1   AR   Ar   48   6.789   3.911   7.410
    1   AR   Ar   49   6.888   0.553  -0.022
    1   AR   Ar   50   3.951   5.254   0.416
    1   AR   Ar   51   5.989   3.338   2.568
    1   AR   Ar   52   5.262   3.255  -1.165
    1   AR   Ar   53   4.685   0.278   2.671
    1   AR   Ar   54   0.736   0.039   2.316
    1   AR   Ar   55   6.808   4.491   2.680
    1   AR   Ar   56   6.783   1.763   2.746
    1   AR   Ar   57   3.818   4.102   2.116
    1   AR   Ar   58   0.791   3.895   4.263
    1   AR   Ar   59   2.778   5.619   5.515
    1   AR   Ar   60   0.159   5.543   2.815
    1   AR   Ar   61   0.370   3.442   6.354
    1   AR   Ar   62   0.187   4.411   4.961
    1   AR   Ar   63   3.060   2.415   7.467
    1   AR   Ar   64   7.049   5.817   4.971
    1   AR   Ar   65   3.893   0.761   2.355
    1   AR   Ar   66   1.261   1.061   1.249
    1   AR   Ar   67   4.687   0.015  -0.338
    1   AR   Ar   68   0.474   1.035  -1.592
    1   AR   Ar   69   1.988   1.344   0.361
    1   AR   Ar   70   0.337   1.687   1.641
    1   AR   Ar   71   2.777   0.503   3.051
    1   AR   Ar   72   4.391   1.137   1.622
    1   AR   Ar   73   3.106   0.231   4.142
    1   AR   Ar   74   0.988   0.826   3.957
    1   AR   Ar   75   3.388   0.473   5.198
    1   AR   Ar   76   2.375   6.957   0.992
    1   AR   Ar   77   1.787   6.118   5.747
    1   AR   Ar   78   6.681   4.982   5.998
    1   AR   Ar   79   3.598   6.762   5.954
    1   AR   Ar   80   3.834   5.767   5.487
    1   AR   Ar   81   1.557   6.696   1.533
    1   AR   Ar   82   6.198   4.706   0.776
    1   AR   Ar   83   1.094   3.434   0.757
    1   AR   Ar   84   1.118   4.469   0.941
    1   AR   Ar   85   1.435   4.112  -0.141
    1   AR   Ar   86   1.634   5.776   0.889
    1   AR   Ar   87   2.807   3.541   2.472
    1   AR   Ar   88   3.735   5.355   1.845
    1   AR   Ar   89   6.541   1.834   1.024
    1   AR   Ar   90   3.084   1.724   5.198
    1   AR   Ar   91   2.079   1.507   3.284
    1   AR   Ar   92   2.175   3.096   1.648
    1   AR   Ar   93   2.026   1.171   5.701
    1   AR   Ar   94   1.651   6.745   8.860
    1   AR   Ar   95   4.189   1.297   4.962
    1   AR   Ar   96   2.488   6.938   4.987
    1   AR   Ar   97   2.715   2.569  -1.202
    1   AR   Ar   98   1.592   4.590   4.105
    1   AR   Ar   99   5.649   0.479  -0.609
    1   AR   Ar  100   0.017   3.155  -3.206
    1   AR   Ar  101   4.114   6.358   2.512
    1   AR   Ar  102   3.685   1.506   3.160
    1   AR   Ar  103   2.228   4.281   1.047
    1   AR   Ar  104   3.793   6.269  -1.305
    1   AR   Ar  105   2.880   2.048   3.592
    1   AR   Ar  106   3.792   2.481   5.155
    1   AR   Ar  107   0.854   5.266   5.477
    1   AR   Ar  108   2.260   1.135   4.596
    1   AR   Ar  109   1.655   4.215   5.569
    1   AR   Ar  110   2.275   2.237   4.810
    1   AR   Ar  111   3.809   5.956   7.942
    1   AR   Ar  112   7.030   6.071   6.133
    1   AR   Ar  113   1.457   5.929  -1.289
    1   AR   Ar  114   2.427   0.353   0.079
    1   AR   Ar  115   1.017   5.217   0.103
    1   AR   Ar  116   4.886   0.434   0.625
    1   AR   Ar  117   0.222   4.960   3.785
    1   AR   Ar  118   1.629   5.615   3.014
    1   AR   Ar  119   1.886   3.896   2.992
    1   AR   Ar  120   1.592   6.698   2.682
    1   AR   Ar  121   5.714   4.432   5.821
    1   AR   Ar  122   3.366   5.479   4.117
    1   AR   Ar  123   3.466   3.367   5.796
    1   AR   Ar  124   0.572   5.205   1.526
    1   AR   Ar  125   6.019   3.504   4.938
    1   AR   Ar  126   6.700   0.312   7.556
    1   AR   Ar  127   4.506   3.275   6.407
    1   AR   Ar  128   2.174   4.168   6.981
    1   AR   Ar  129   1.923   5.127   5.229
    1   AR   Ar  130   4.127   1.705  -4.944
    1   AR   Ar  131   4.487   5.502  -1.685
    1   AR   Ar  132   0.347   1.934   0.477
    1   AR   Ar  133   4.143   0.453   4.441
    1   AR   Ar  134   3.394   1.256   4.264
    1   AR   Ar  135   5.950   1.579   4.270
    1   AR   Ar  136   5.793   0.160   2.803
    1   AR   Ar  137   2.862   4.335   5.969
    1   AR   Ar  138   5.551   1.400   5.385
    1   AR   Ar  139   6.108   2.171   5.301
    1   AR   Ar  140   4.837   6.486   4.859
    1   AR   Ar  141   4.365   5.709   4.389
    1   AR   Ar  142   4.625   6.776   7.366
    1   AR   Ar  143   5.760   6.453   6.628
    1   AR   Ar  144   7.094   1.449   4.876
    1   AR   Ar  145   4.330   5.154  -0.585
    1   AR   Ar  146   3.708   2.728   2.839
    1   AR   Ar  147   5.162   4.355  -0.537
    1   AR   Ar  148   2.789   6.458  -1.695
    1   AR   Ar  149   0.941   0.759  -0.307
    1   AR   Ar  150   1.921   2.435   2.755
    1   AR   Ar  151   2.752   3.113   3.444
    1   AR   Ar  152   0.894   1.529  -2.477
    1   AR   Ar  153   5.723   0.785   3.597
    1   AR   Ar  154   4.469   2.775   4.078
    1   AR   Ar  155   6.605   3.716   5.875
    1   AR   Ar  156   2.839   4.879   3.341
    1   AR   Ar  157   2.234   5.351   6.612
    1   AR   Ar  158   0.599   1.536   5.881
    1   AR   Ar  159   3.925   0.515   6.523
    1   AR   Ar  160   0.994   0.770   5.118
    1   AR   Ar  161   4.535   4.448   3.399
    1   AR   Ar  162   4.157   6.064  -0.150
    1   AR   Ar  163   5.871   4.336   1.735
    1   AR   Ar  164   1.794   5.750   1.886
    1   AR   Ar  165   3.441   4.181   1.006
    1   AR   Ar  166   2.462   3.229   4.658
    1   AR   Ar  167   6.365   6.715   3.573
    1   AR   Ar  168   5.326   4.138  -1.984
    1   AR   Ar  169   3.730   3.466   3.493
    1   AR   Ar  170   1.988   3.402   6.073
    1   AR   Ar  171   5.100   4.954   4.245
    1   AR   Ar  172   3.714   3.560   4.635
    1   AR   Ar  173   2.088   2.213   6.090
    1   AR   Ar  174   3.395   6.409   4.633
    1   AR   Ar  175   2.967   1.011   6.060
    1   AR   Ar  176   3.412   2.709   4.242
    1   AR   Ar  177   0.643   4.778  -0.648
    1   AR   Ar  178   2.623   6.118   0.371
    1   AR   Ar  179   3.832   0.338   0.746
    1   AR   Ar  180   4.984   0.598  -6.711
    1   AR   Ar  181   6.779   5.645   1.903
    1   AR   Ar  182   0.830   6.134   2.089
    1   AR   Ar  183   4.873   5.559   1.852
    1   AR   Ar  184   4.781   6.357   0.721
    1   AR   Ar  185   2.902   4.611   4.517
    1   AR   Ar  186   3.094   6.084   2.743
    1   AR   Ar  187   3.914   6.421   3.759
    1   AR   Ar  188   3.215   6.961   2.124
    1   AR   Ar  189   5.882   2.963   6.298
    1   AR   Ar  190   2.440   6.280   3.583
    1   AR   Ar  191   3.458   5.994   6.812
    1   AR   Ar  192   4.190   4.194   5.780
    1   AR   Ar  193   2.856   6.112   1.409
    1   AR   Ar  194   5.339   5.326  -1.194
    1   AR   Ar  195   5.534   1.267   0.828
    1   AR   Ar  196   3.472   0.914  -0.145
    1   AR   Ar  197   4.736   2.611   0.558
    1   AR   Ar  198   5.689   6.972   1.329
    1   AR   Ar  199   1.732   0.547   3.205
    1   AR   Ar  200   5.582   2.957   0.041
    1   AR   Ar  201   6.713   6.596   2.525
    1   AR   Ar  202   5.222   0.935   4.488
    1   AR   Ar  203   0.700   6.572   3.208
    1   AR   Ar  204   4.563   5.839   6.890
    1   AR   Ar  205   5.792   1.957   1.938
    1   AR   Ar  206   5.875   0.610   6.415
    1   AR   Ar  207   7.080   3.303   4.914
    1   AR   Ar  208   1.067   5.859   4.108
    1   AR   Ar  209   7.104   2.111  -1.703
    1   AR   Ar  210   1.417   0.116   0.282
    1   AR   Ar  211   7.098   2.831   1.001
    1   AR   Ar  212   5.974   4.021  -0.066
    1   AR   Ar  213   3.574   1.886   1.799
    1   AR   Ar  214   4.883   4.547   2.105
    1   AR   Ar  215   6.719   2.670   2.147
    1   AR   Ar  216   1.217   2.344   1.142
    1   AR   Ar  217   4.888   1.528   3.524
    1   AR   Ar  218   4.604   3.254   5.167
    1   AR   Ar  219   4.696   3.396   2.872
    1   AR   Ar  220   4.956   3.745   1.499
    1   AR   Ar  221   6.960   5.853   4.021
    1   AR   Ar  222   5.031   0.326   5.517
    1   AR   Ar  223   6.472   1.684   6.158
    1   AR   Ar  224   4.776   2.058   5.112
    1   AR   Ar  225   6.662   2.729   3.217
    1   AR   Ar  226   1.370   3.167   3.534
    1   AR   Ar  227   0.989   3.000   2.579
    1   AR   Ar  228   6.309   1.110   1.775
    1   AR   Ar  229   6.324   3.981  -1.206
    1   AR   Ar  230   3.906   4.513   4.270
    1   AR   Ar  231   4.752   2.231   2.501
    1   AR   Ar  232   5.264   2.906   1.911
    1   AR   Ar  233   6.622   2.453   4.254
    1   AR   Ar  234   5.599   2.618   4.373
    1   AR   Ar  235   6.895   0.512   3.069
    1   AR   Ar  236   4.606   5.063   5.258
    1   AR   Ar  237   4.966   1.346   6.278
    1   AR   Ar  238   5.712   5.307   6.772
    1   AR   Ar  239   1.029   4.629  10.847
    1   AR   Ar  240   1.105   2.795   6.483
    1   AR   Ar  241   1.651   6.361  -0.189
    1   AR   Ar  242   5.880   5.588   1.390
    1   AR   Ar  243   5.227   6.489   2.517
    1   AR   Ar  244   0.140   5.524   0.483
    1   AR   Ar  245   4.052   0.524   3.424
    1   AR   Ar  246   5.580   6.470  -0.682
    1   AR   Ar  247   0.226   3.690   1.718
    1   AR   Ar  248   5.212   5.537   0.113
    1   AR   Ar  249   4.568   0.063   1.525
    1   AR   Ar  250   5.142   6.589   3.632
    1   AR   Ar  251   5.104   4.093   4.785
    1   AR   Ar  252   2.545   4.459   2.044
    1   AR   Ar  253   5.850   2.358   7.688
    1   AR   Ar  254   6.294   3.343   9.879
    1   AR   Ar  255   4.257   5.904   8.976
    1   AR   Ar  256   5.697   5.523   3.542
    7.12000  7.12000 12.00000
Argon-slab step 4880
  256
    1   AR   Ar    1   5.132   2.966  -2.404
    1   AR   Ar    2   5.964   6.560   0.376
    1   AR   Ar    3   4.097   3.496  -1.017
    1   AR   Ar    4   2.446   1.051   1.298
    1   AR   Ar    5   6.510   5.359  -0.224
    1   AR   Ar    6   1.155   2.081   2.104
    1   AR   Ar    7   5.761   4.429   3.314
    1   AR   Ar    8   6.464   2.938  -1.660
    1   AR   Ar    9   0.473   6.768   4.285
    1   AR   Ar   10   5.550   5.337   5.327
    1   AR   Ar   11   1.232   6.550   5.015
    1   AR   Ar   12   0.046   1.650   3.856
    1   AR   Ar   13   6.933   0.532   4.272
    1   AR   Ar   14   3.852   1.730   6.486
    1   AR   Ar   15   3.266   0.392   9.635
    1   AR   Ar   16   0.913   0.422   6.209
    1   AR   Ar   17   5.909   3.308   1.034
    1   AR   Ar   18   6.900   5.087  -1.391
    1   AR   Ar   19   5.170   4.918   0.994
    1   AR   Ar   20   6.551   3.936  -2.185
    1   AR   Ar   21   2.736   1.618   2.340
    1   AR   Ar   22   5.790   1.143   2.620
    1   AR   Ar   23   0.604   6.582   1.025
    1   AR   Ar   24   5.587   2.494   3.315
    1   AR   Ar   25   0.652   2.336   4.591
    1   AR   Ar   26   5.647   6.997   4.540
    1   AR   Ar   27   1.933   0.458   2.032
    1   AR   Ar   28   1.736   2.223   3.896
    1   AR   Ar   29   4.587   1.182   7.202
    1   AR   Ar   30   0.622   1.359   2.656
    1   AR   Ar   31   3.068   1.067   7.148
    1   AR   Ar   32   1.370   2.574   5.493
    1   AR   Ar   33   0.345   4.011   0.179
    1   AR   Ar   34   1.161   4.689   2.376
    1   AR   Ar   35   5.900   5.208   2.581
    1   AR   Ar   36   5.766   1.920  -2.433
    1   AR   Ar   37   4.073   2.850   1.829
    1   AR   Ar   38   6.639   4.124   4.181
    1   AR   Ar   39   0.319   3.122   3.784
    1   AR   Ar   40   1.313   3.836   1.738
    1   AR   Ar   41   0.527   2.347   3.131
    1   AR   Ar   42   4.779   5.929   5.764
    1   AR   Ar   43   0.092   2.477   5.774
    1   AR   Ar   44   0.530   3.983   3.183
    1   AR   Ar   45   0.821   3.703   5.412
    1   AR   Ar   46   0.429   4.554   6.647
    1   AR   Ar   47   4.006   4.624   7.764
    1   AR   Ar   48   6.805   3.903   7.437
    1   AR   Ar   49   6.900   0.544   0.019
    1   AR   Ar   50   3.964   5.242   0.432
    1   AR   Ar   51   5.992   3.302   2.562
    1   AR   Ar   52   5.253   3.258  -1.167
    1   AR   Ar   53   4.740   0.276   2.699
    1   AR   Ar   54   0.753   0.053   2.305
    1   AR   Ar   55   6.849   4.500   2.637
    1   AR   Ar   56   6.812   1.775   2.738
    1   AR   Ar   57   3.828   4.147   2.099
    1   AR   Ar   58   0.770   3.897   4.279
    1   AR   Ar   59   2.786   5.637   5.521
    1   AR   Ar   60   0.169   5.560   2.796
    1   AR   Ar   61   0.328   3.447   6.338
    1   AR   Ar   62   0.166   4.422   4.978
    1   AR   Ar   63   3.056   2.416   7.452
    1   AR   Ar   64   7.037   5.811   4.974
    1   AR   Ar   65   3.892   0.746   2.342
    1   AR   Ar   66   1.283   1.081   1.257
    1   AR   Ar   67   4.698   0.045  -0.339
    1   AR   Ar   68   0.496   0.983  -1.622
    1   AR   Ar   69   1.956   1.347   0.394
    1   AR   Ar   70   0.356   1.638   1.641
    1   AR   Ar   71   2.800   0.517   3.049
    1   AR   Ar   72   4.382   1.141   1.615
    1   AR   Ar   73   3.077   0.238   4.126
    1   AR   Ar   74   1.003   0.814   3.966
    1   AR   Ar   75   3.359   0.479   5.187
    1   AR   Ar   76   2.387   6.947   1.018
    1   AR   Ar   77   1.804   6.120   5.744
    1   AR   Ar   78   6.710   5.006   5.991
    1   AR   Ar   79   3.561   6.791   5.949
    1   AR   Ar   80   3.809   5.759   5.462
    1   AR   Ar   81   1.558   6.664   1.532
    1   AR   Ar   82   6.185   4.696   0.811
    1   AR   Ar   83   1.111   3.459   0.744
    1   AR   Ar   84   1.110   4.465   0.970
    1   AR   Ar   85   1.432   4.101  -0.125
    1   AR   Ar   86   1.635   5.791   0.868
    1   AR   Ar   87   2.801   3.521   2.447
    1   AR   Ar   88   3.735   5.320   1.794
    1   AR   Ar   89   6.548   1.829   1.050
    1   AR   Ar   90   3.065   1.722   5.244
    1   AR   Ar   91   2.083   1.513   3.276
    1   AR   Ar   92   2.187   3.112   1.676
    1   AR   Ar   93   2.018   1.143   5.645
    1   AR   Ar   94   1.636   6.772   8.830
    1   AR   Ar   95   4.198   1.321   5.000
    1   AR   Ar   96   2.471   6.964   4.972
    1   AR   Ar   97   2.690   2.584  -1.223
    1   AR   Ar   98   1.568   4.577   4.088
    1   AR   Ar   99   5.648   0.461  -0.594
    1   AR   Ar  100   7.118   3.135  -3.198
    1   AR   Ar  101   4.087   6.376   2.537
    1   AR   Ar  102   3.687   1.517   3.187
    1   AR   Ar  103   2.232   4.312   1.055
    1   AR   Ar  104   3.771   6.298  -1.302
    1   AR   Ar  105   2.874   2.036   3.585
    1   AR   Ar  106   3.784   2.486   5.157
    1   AR   Ar  107   0.837   5.251   5.495
    1   AR   Ar  108   2.238   1.145   4.590
    1   AR   Ar  109   1.661   4.239   5.569
    1   AR   Ar  110   2.262   2.259   4.812
    1   AR   Ar  111   3.818   5.954   7.955
    1   AR   Ar  112   7.003   6.085   6.098
    1   AR   Ar  113   1.395   5.934  -1.325
    1   AR   Ar  114   2.416   0.367   0.071
    1   AR   Ar  115   1.018   5.224   0.131
    1   AR   Ar  116   4.875   0.416   0.621
    1   AR   Ar  117   0.230   4.969   3.773
    1   AR   Ar  118   1.638   5.598   3.028
    1   AR   Ar  119   1.877   3.909   2.995
    1   AR   Ar  120   1.588   6.700   2.695
    1   AR   Ar  121   5.713   4.427   5.866
    1   AR   Ar  122   3.349   5.493   4.127
    1   AR   Ar  123   3.476   3.339   5.792
    1   AR   Ar  124   0.566   5.217   1.522
    1   AR   Ar  125   6.003   3.496   4.886
    1   AR   Ar  126   6.670   0.310   7.546
    1   AR   Ar  127   4.476   3.283   6.416
    1   AR   Ar  128   2.154   4.163   6.962
    1   AR   Ar  129   1.923   5.155   5.228
    1   AR   Ar  130   4.131   1.687  -4.934
    1   AR   Ar  131   4.506   5.532  -1.685
    1   AR   Ar  132   0.350   1.921   0.515
    1   AR   Ar  133   4.130   0.430   4.424
    1   AR   Ar  134   3.377   1.233   4.255
    1   AR   Ar  135   5.939   1.581   4.314
    1   AR   Ar  136   5.789   0.145   2.817
    1   AR   Ar  137   2.865   4.315   5.922
    1   AR   Ar  138   5.556   1.374   5.373
    1   AR   Ar  139   6.137   2.163   5.288
    1   AR   Ar  140   4.829   6.487   4.879
    1   AR   Ar  141   4.326   5.723   4.373
    1   AR   Ar  142   4.600   6.752   7.357
    1   AR   Ar  143   5.788   6.454   6.622
    1   AR   Ar  144   7.108   1.470   4.889
    1   AR   Ar  145   4.291   5.140  -0.580
    1   AR   Ar  146   3.729   2.723   2.837
    1   AR   Ar  147   5.180   4.339  -0.520
    1   AR   Ar  148   2.773   6.446  -1.667
    1   AR   Ar  149   0.935   0.795  -0.281
    1   AR   Ar  150   1.883   2.452   2.757
    1   AR   Ar  151   2.769   3.134   3.468
    1   AR   Ar  152   0.883   1.497  -2.479
    1   AR   Ar  153   5.729   0.785   3.556
    1   AR   Ar  154   4.460   2.792   4.043
    1   AR   Ar  155   6.586   3.701   5.880
    1   AR   Ar  156   2.855   4.886   3.344
    1   AR   Ar  157   2.247   5.362   6.636
    1   AR   Ar  158   0.620   1.532   5.881
    1   AR   Ar  159   3.928   0.485   6.518
    1   AR   Ar  160   0.976   0.741   5.119
    1   AR   Ar  161   4.507   4.457   3.443
    1   AR   Ar  162   4.133   6.098  -0.131
    1   AR   Ar  163   5.891   4.344   1.773
    1   AR   Ar  164   1.806   5.731   1.899
    1   AR   Ar  165   3.440   4.188   1.001
    1   AR   Ar  166   2.470   3.235   4.619
    1   AR   Ar  167   6.347   6.739   3.600
    1   AR   Ar  168   5.315   4.149  -2.023
    1   AR   Ar  169   3.722   3.447   3.542
    1   AR   Ar  170   1.975   3.395   6.078
    1   AR   Ar  171   5.085   4.955   4.249
    1   AR   Ar  172   3.694   3.536   4.633
    1   AR   Ar  173   2.092   2.207   6.108
    1   AR   Ar  174   3.400   6.375   4.649
    1   AR   Ar  175   2.978   1.011   6.046
    1   AR   Ar  176   3.383   2.708   4.236
    1   AR   Ar  177   0.632   4.779  -0.646
    1   AR   Ar  178   2.614   6.122   0.385
    1   AR   Ar  179   3.813   0.326   0.749
    1   AR   Ar  180   4.963   0.566  -6.713
    1   AR   Ar  181   6.800   5.675   1.903
    1   AR   Ar  182   0.811   6.142   2.141
    1   AR   Ar  183   4.910   5.549   1.854
    1   AR   Ar  184   4.778   6.341   0.700
    1   AR   Ar  185   2.925   4.636   4.536
    1   AR   Ar  186   3.098   6.091   2.729
    1   AR   Ar  187   3.915   6.419   3.725
    1   AR   Ar  188   3.226   6.950   2.108
    1   AR   Ar  189   5.907   2.959   6.275
    1   AR   Ar  190   2.441   6.282   3.583
    1   AR   Ar  191   3.474   5.997   6.822
    1   AR   Ar  192   4.175   4.173   5.774
    1   AR   Ar  193   2.861   6.091   1.424
    1   AR   Ar  194   5.328   5.306  -1.196
    1   AR   Ar  195   5.531   1.273   0.827
    1   AR   Ar  196   3.480   0.901  -0.166
    1   AR   Ar  197   4.713   2.621   0.574
    1   AR   Ar  198   5.688   7.005   1.317
    1   AR   Ar  199   1.684   0.558   3.183
    1   AR   Ar  200   5.614   2.964   0.028
    1   AR   Ar  201   6.714   6.590   2.539
    1   AR   Ar  202   5.228   0.906   4.471
    1   AR   Ar  203   0.739   6.587   3.190
    1   AR   Ar  204   4.545   5.865   6.907
    1   AR   Ar  205   5.784   1.956   1.953
    1   AR   Ar  206   5.870   0.610   6.427
    1   AR   Ar  207   7.105   3.314   4.869
    1   AR   Ar  208   1.062   5.857   4.086
    1   AR   Ar  209   7.079   2.136  -1.714
    1   AR   Ar  210   1.402   0.153   0.266
    1   AR   Ar  211   7.119   2.784   0.999
    1   AR   Ar  212   5.959   4.006  -0.043
    1   AR   Ar  213   3.574   1.885   1.776
    1   AR   Ar  214   4.880   4.546   2.116
    1   AR   Ar  215   6.697   2.670   2.135
    1   AR   Ar  216   1.221   2.340   1.155
    1   AR   Ar  217   4.886   1.525   3.543
    1   AR   Ar  218   4.596   3.249   5.124
    1   AR   Ar  219   4.695   3.378   2.864
    1   AR   Ar  220   4.945   3.757   1.491
    1   AR   Ar  221   6.986   5.865   4.033
    1   AR   Ar  222   5.062   0.311   5.492
    1   AR   Ar  223   6.459   1.699   6.122
    1   AR   Ar  224   4.729   2.072   5.112
    1   AR   Ar  225   6.684   2.716   3.245
    1   AR   Ar  226   1.374   3.170   3.567
    1   AR   Ar  227   0.982   3.009   2.594
    1   AR   Ar  228   6.327   1.124   1.766
    1   AR   Ar  229   6.318   3.981  -1.212
    1   AR   Ar  230   3.888   4.525   4.286
    1   AR   Ar  231   4.785   2.228   2.514
    1   AR   Ar  232   5.298   2.891   1.908
    1   AR   Ar  233   6.620   2.472   4.275
    1   AR   Ar  234   5.597   2.614   4.385
    1   AR   Ar  235   6.871   0.489   3.106
    1   AR   Ar  236   4.602   5.041   5.274
    1   AR   Ar  237   4.957   1.306   6.285
    1   AR   Ar  238   5.717   5.312   6.739
    1   AR   Ar  239   1.025   4.626  10.885
    1   AR   Ar  240   1.122   2.786   6.467
    1   AR   Ar  241   1.644   6.387  -0.166
    1   AR   Ar  242   5.885   5.553   1.404
    1   AR   Ar  243   5.246   6.514   2.537
    1   AR   Ar  244   0.112   5.558   0.485
    1   AR   Ar  245   4.032   0.536   3.427
    1   AR   Ar  246   5.580   6.507  -0.695
    1   AR   Ar  247   0.244   3.678   1.731
    1   AR   Ar  248   5.226   5.549   0.121
    1   AR   Ar  249   4.539   0.070   1.533
    1   AR   Ar  250   5.129   6.579   3.639
    1   AR   Ar  251   5.085   4.089   4.756
    1   AR   Ar  252   2.534   4.441   2.055
    1   AR   Ar  253   5.839   2.365   7.704
    1   AR   Ar  254   6.299   3.373   9.894
    1   AR   Ar  255   4.269   5.919   8.984
    1   AR   Ar  256   5.684   5.527   3.551
    7.12000  7.12000 12.00000
Argon-slab step 4885
  256
    1   AR   Ar    1   5.122   2.975  -2.411
    1   AR   Ar    2   6.012   6.598   0.377
    1   AR   Ar    3   4.089   3.496  -1.038
    1   AR   Ar    4   2.440   1.033   1.291
    1   AR   Ar    5   6.513   5.326  -0.208
    1   AR   Ar    6   1.159   2.065   2.089
    1   AR   Ar    7   5.757   4.420   3.327
    1   AR   Ar    8   6.494   2.950  -1.632
    1   AR   Ar    9   0.455   6.775   4.315
    1   AR   Ar   10   5.520   5.334   5.343
    1   AR   Ar   11   1.238   6.515   5.013
    1   AR   Ar   12   0.050   1.626   3.860
    1   AR   Ar   13   6.980   0.544   4.278
    1   AR   Ar   14   3.860   1.724   6.497
    1   AR   Ar   15   3.244   0.371   9.639
    1   AR   Ar   16   0.914   0.429   6.186
    1   AR   Ar   17   5.914   3.373   1.071
    1   AR   Ar   18   6.908   5.098  -1.404
    1   AR   Ar   19   5.150   4.937   1.041
    1   AR   Ar   20   6.567   3.961  -2.160
    1   AR   Ar   21   2.689   1.605   2.334
    1   AR   Ar   22   5.800   1.097   2.613
    1   AR   Ar   23   0.604   6.594   0.994
    1   AR   Ar   24   5.584   2.519   3.293
    1   AR   Ar   25   0.674   2.368   4.585
    1   AR   Ar   26   5.659   6.987   4.553
    1   AR   Ar   27   1.929   0.429   2.032
    1   AR   Ar   28   1.733   2.225   3.907
    1   AR   Ar   29   4.610   1.181   7.225
    1   AR   Ar   30   0.627   1.362   2.650
    1   AR   Ar   31   3.038   1.069   7.130
    1   AR   Ar   32   1.372   2.578   5.500
    1   AR   Ar   33   0.337   3.985   0.185
    1   AR   Ar   34   1.173   4.662   2.376
    1   AR   Ar   35   5.873   5.226   2.574
    1   AR   Ar   36   5.762   1.918  -2.456
    1   AR   Ar   37   4.063   2.852   1.785
    1   AR   Ar   38   6.673   4.116   4.140
    1   AR   Ar   39   0.330   3.120   3.795
    1   AR   Ar   40   1.291   3.821   1.752
    1   AR   Ar   41   0.547   2.323   3.177
    1   AR   Ar   42   4.795   5.921   5.778
    1   AR   Ar   43   0.094   2.501   5.750
    1   AR   Ar   44   0.515   3.960   3.201
    1   AR   Ar   45   0.851   3.696   5.398
    1   AR   Ar   46   0.428   4.526   6.652
    1   AR   Ar   47   4.008   4.628   7.785
    1   AR   Ar   48   6.821   3.895   7.461
    1   AR   Ar   49   6.911   0.534   0.059
    1   AR   Ar   50   3.977   5.227   0.454
    1   AR   Ar   51   5.994   3.271   2.561
    1   AR   Ar   52   5.246   3.263  -1.170
    1   AR   Ar   53   4.798   0.275   2.727
    1   AR   Ar   54   0.767   0.075   2.290
    1   AR   Ar   55   6.889   4.510   2.593
    1   AR   Ar   56   6.832   1.773   2.736
    1   AR   Ar   57   3.837   4.192   2.082
    1   AR   Ar   58   0.750   3.901   4.296
    1   AR   Ar   59   2.794   5.658   5.529
    1   AR   Ar   60   0.182   5.577   2.784
    1   AR   Ar   61   0.290   3.452   6.328
    1   AR   Ar   62   0.144   4.437   4.999
    1   AR   Ar   63   3.052   2.415   7.437
    1   AR   Ar   64   7.039   5.805   4.984
    1   AR   Ar   65   3.877   0.726   2.340
    1   AR   Ar   66   1.291   1.062   1.251
    1   AR   Ar   67   4.706   0.072  -0.342
    1   AR   Ar   68   0.517   0.931  -1.650
    1   AR   Ar   69   1.944   1.330   0.396
    1   AR   Ar   70   0.369   1.589   1.638
    1   AR   Ar   71   2.824   0.532   3.047
    1   AR   Ar   72   4.385   1.153   1.593
    1   AR   Ar   73   3.047   0.242   4.108
    1   AR   Ar   74   0.992   0.815   3.983
    1   AR   Ar   75   3.331   0.487   5.176
    1   AR   Ar   76   2.396   6.948   1.027
    1   AR   Ar   77   1.841   6.165   5.725
    1   AR   Ar   78   6.738   5.030   5.982
    1   AR   Ar   79   3.524   6.817   5.943
    1   AR   Ar   80   3.783   5.752   5.434
    1   AR   Ar   81   1.554   6.635   1.535
    1   AR   Ar   82   6.192   4.694   0.772
    1   AR   Ar   83   1.142   3.481   0.727
    1   AR   Ar   84   1.101   4.470   0.994
    1   AR   Ar   85   1.428   4.091  -0.108
    1   AR   Ar   86   1.635   5.807   0.843
    1   AR   Ar   87   2.799   3.499   2.425
    1   AR   Ar   88   3.735   5.286   1.743
    1   AR   Ar   89   6.553   1.828   1.075
    1   AR   Ar   90   3.046   1.717   5.290
    1   AR   Ar   91   2.083   1.509   3.261
    1   AR   Ar   92   2.196   3.127   1.703
    1   AR   Ar   93   2.037   1.133   5.599
    1   AR   Ar   94   1.621   6.798   8.800
    1   AR   Ar   95   4.188   1.321   5.036
    1   AR   Ar   96   2.454   6.989   4.958
    1   AR   Ar   97   2.665   2.600  -1.244
    1   AR   Ar   98   1.542   4.556   4.069
    1   AR   Ar   99   5.648   0.445  -0.577
    1   AR   Ar  100   7.099   3.116  -3.188
    1   AR   Ar  101   4.064   6.395   2.562
    1   AR   Ar  102   3.683   1.532   3.191
    1   AR   Ar  103   2.234   4.343   1.062
    1   AR   Ar  104   3.753   6.327  -1.296
    1   AR   Ar  105   2.870   2.028   3.582
    1   AR   Ar  106   3.774   2.494   5.163
    1   AR   Ar  107   0.819   5.236   5.513
    1   AR   Ar  108   2.218   1.155   4.581
    1   AR   Ar  109   1.669   4.264   5.571
    1   AR   Ar  110   2.247   2.277   4.817
    1   AR   Ar  111   3.818   5.944   7.994
    1   AR   Ar  112   6.976   6.099   6.062
    1   AR   Ar  113   1.334   5.938  -1.361
    1   AR   Ar  114   2.408   0.382   0.062
    1   AR   Ar  115   1.030   5.235   0.170
    1   AR   Ar  116   4.869   0.399   0.617
    1   AR   Ar  117   0.241   4.969   3.759
    1   AR   Ar  118   1.646   5.582   3.041
    1   AR   Ar  119   1.869   3.924   2.995
    1   AR   Ar  120   1.599   6.699   2.702
    1   AR   Ar  121   5.711   4.421   5.910
    1   AR   Ar  122   3.316   5.502   4.133
    1   AR   Ar  123   3.486   3.312   5.786
    1   AR   Ar  124   0.562   5.231   1.519
    1   AR   Ar  125   5.989   3.488   4.835
    1   AR   Ar  126   6.651   0.319   7.539
    1   AR   Ar  127   4.446   3.290   6.422
    1   AR   Ar  128   2.133   4.159   6.940
    1   AR   Ar  129   1.920   5.186   5.221
    1   AR   Ar  130   4.134   1.669  -4.923
    1   AR   Ar  131   4.515   5.566  -1.691
    1   AR   Ar  132   0.358   1.904   0.553
    1   AR   Ar  133   4.121   0.403   4.413
    1   AR   Ar  134   3.361   1.214   4.245
    1   AR   Ar  135   5.936   1.590   4.357
    1   AR   Ar  136   5.797   0.126   2.826
    1   AR   Ar  137   2.866   4.295   5.874
    1   AR   Ar  138   5.556   1.337   5.363
    1   AR   Ar  139   6.171   2.170   5.266
    1   AR   Ar  140   4.817   6.490   4.899
    1   AR   Ar  141   4.290   5.732   4.360
    1   AR   Ar  142   4.575   6.738   7.351
    1   AR   Ar  143   5.814   6.456   6.615
    1   AR   Ar  144   0.000   1.492   4.906
    1   AR   Ar  145   4.272   5.139  -0.564
    1   AR   Ar  146   3.748   2.711   2.835
    1   AR   Ar  147   5.187   4.330  -0.511
    1   AR   Ar  148   2.756   6.433  -1.639
    1   AR   Ar  149   0.920   0.844  -0.263
    1   AR   Ar  150   1.850   2.471   2.763
    1   AR   Ar  151   2.776   3.152   3.490
    1   AR   Ar  152   0.873   1.468  -2.483
    1   AR   Ar  153   5.736   0.788   3.532
    1   AR   Ar  154   4.454   2.809   4.009
    1   AR   Ar  155   6.611   3.700   5.906
    1   AR   Ar  156   2.869   4.892   3.348
    1   AR   Ar  157   2.261   5.372   6.657
    1   AR   Ar  158   0.641   1.527   5.881
    1   AR   Ar  159   3.933   0.460   6.514
    1   AR   Ar  160   0.958   0.712   5.118
    1   AR   Ar  161   4.497   4.475   3.466
    1   AR   Ar  162   4.110   6.137  -0.116
    1   AR   Ar  163   5.911   4.352   1.813
    1   AR   Ar  164   1.819   5.706   1.917
    1   AR   Ar  165   3.439   4.196   0.998
    1   AR   Ar  166   2.479   3.247   4.578
    1   AR   Ar  167   6.328   6.764   3.629
    1   AR   Ar  168   5.305   4.158  -2.060
    1   AR   Ar  169   3.731   3.448   3.570
    1   AR   Ar  170   1.963   3.384   6.084
    1   AR   Ar  171   5.069   4.962   4.250
    1   AR   Ar  172   3.676   3.523   4.639
    1   AR   Ar  173   2.100   2.199   6.128
    1   AR   Ar  174   3.405   6.349   4.671
    1   AR   Ar  175   2.994   1.010   6.036
    1   AR   Ar  176   3.347   2.693   4.223
    1   AR   Ar  177   0.614   4.772  -0.656
    1   AR   Ar  178   2.605   6.126   0.396
    1   AR   Ar  179   3.784   0.302   0.756
    1   AR   Ar  180   4.942   0.534  -6.716
    1   AR   Ar  181   6.820   5.706   1.901
    1   AR   Ar  182   0.790   6.146   2.191
    1   AR   Ar  183   4.945   5.545   1.857
    1   AR   Ar  184   4.776   6.327   0.682
    1   AR   Ar  185   2.936   4.657   4.560
    1   AR   Ar  186   3.098   6.096   2.715
    1   AR   Ar  187   3.917   6.422   3.686
    1   AR   Ar  188   3.236   6.941   2.090
    1   AR   Ar  189   5.931   2.952   6.252
    1   AR   Ar  190   2.437   6.302   3.582
    1   AR   Ar  191   3.489   6.000   6.830
    1   AR   Ar  192   4.160   4.152   5.768
    1   AR   Ar  193   2.867   6.067   1.443
    1   AR   Ar  194   5.327   5.283  -1.188
    1   AR   Ar  195   5.521   1.270   0.810
    1   AR   Ar  196   3.488   0.887  -0.187
    1   AR   Ar  197   4.689   2.632   0.592
    1   AR   Ar  198   5.684   7.038   1.307
    1   AR   Ar  199   1.635   0.565   3.158
    1   AR   Ar  200   5.646   2.972   0.013
    1   AR   Ar  201   6.716   6.585   2.555
    1   AR   Ar  202   5.222   0.869   4.457
    1   AR   Ar  203   0.766   6.598   3.180
    1   AR   Ar  204   4.529   5.881   6.918
    1   AR   Ar  205   5.774   1.961   1.968
    1   AR   Ar  206   5.865   0.597   6.413
    1   AR   Ar  207   0.009   3.322   4.824
    1   AR   Ar  208   1.056   5.855   4.064
    1   AR   Ar  209   7.059   2.153  -1.725
    1   AR   Ar  210   1.390   0.183   0.266
    1   AR   Ar  211   0.011   2.763   0.976
    1   AR   Ar  212   5.957   3.985  -0.014
    1   AR   Ar  213   3.576   1.884   1.752
    1   AR   Ar  214   4.877   4.547   2.135
    1   AR   Ar  215   6.679   2.667   2.119
    1   AR   Ar  216   1.225   2.340   1.157
    1   AR   Ar  217   4.883   1.523   3.561
    1   AR   Ar  218   4.572   3.220   5.098
    1   AR   Ar  219   4.691   3.388   2.872
    1   AR   Ar  220   4.932   3.767   1.476
    1   AR   Ar  221   7.024   5.883   4.019
    1   AR   Ar  222   5.092   0.298   5.467
    1   AR   Ar  223   6.448   1.711   6.092
    1   AR   Ar  224   4.706   2.110   5.115
    1   AR   Ar  225   6.697   2.702   3.269
    1   AR   Ar  226   1.378   3.174   3.602
    1   AR   Ar  227   0.977   3.018   2.586
    1   AR   Ar  228   6.352   1.127   1.752
    1   AR   Ar  229   6.310   3.990  -1.236
    1   AR   Ar  230   3.878   4.539   4.303
    1   AR   Ar  231   4.814   2.223   2.530
    1   AR   Ar  232   5.332   2.875   1.902
    1   AR   Ar  233   6.622   2.490   4.300
    1   AR   Ar  234   5.571   2.600   4.398
    1   AR   Ar  235   6.846   0.467   3.143
    1   AR   Ar  236   4.588   5.011   5.284
    1   AR   Ar  237   4.950   1.267   6.283
    1   AR   Ar  238   5.758   5.331   6.703
    1   AR   Ar  239   1.021   4.623  10.922
    1   AR   Ar  240   1.141   2.775   6.455
    1   AR   Ar  241   1.639   6.406  -0.146
    1   AR   Ar  242   5.891   5.521   1.418
    1   AR   Ar  243   5.268   6.477   2.531
    1   AR   Ar  244   0.082   5.594   0.495
    1   AR   Ar  245   4.010   0.547   3.425
    1   AR   Ar  246   5.579   6.540  -0.708
    1   AR   Ar  247   0.260   3.664   1.745
    1   AR   Ar  248   5.240   5.560   0.126
    1   AR   Ar  249   4.515   0.078   1.547
    1   AR   Ar  250   5.115   6.571   3.647
    1   AR   Ar  251   5.066   4.082   4.732
    1   AR   Ar  252   2.523   4.426   2.068
    1   AR   Ar  253   5.828   2.371   7.719
    1   AR   Ar  254   6.305   3.404   9.910
    1   AR   Ar  255   4.282   5.934   8.991
    1   AR   Ar  256   5.681   5.534   3.548
    7.12000  7.12000 12.00000
Argon-slab step 4890
  256
    1   AR   Ar    1   5.114   2.984  -2.415
    1   AR   Ar    2   6.014   6.586   0.383
    1   AR   Ar    3   4.083   3.496  -1.059
    1   AR   Ar    4   2.436   1.014   1.286
    1   AR   Ar    5   6.511   5.289  -0.196
    1   AR   Ar    6   1.167   2.047   2.085
    1   AR   Ar    7   5.752   4.410   3.341
    1   AR   Ar    8   6.516   2.974  -1.603
    1   AR   Ar    9   0.437   6.782   4.344
    1   AR   Ar   10   5.505   5.333   5.356
    1   AR   Ar   11   1.239   6.482   5.004
    1   AR   Ar   12   0.054   1.601   3.860
    1   AR   Ar   13   7.027   0.559   4.283
    1   AR   Ar   14   3.868   1.717   6.507
    1   AR   Ar   15   3.223   0.349   9.642
    1   AR   Ar   16   0.914   0.436   6.163
    1   AR   Ar   17   5.920   3.438   1.108
    1   AR   Ar   18   6.915   5.107  -1.416
    1   AR   Ar   19   5.125   4.948   1.083
    1   AR   Ar   20   6.588   3.986  -2.154
    1   AR   Ar   21   2.642   1.590   2.331
    1   AR   Ar   22   5.810   1.054   2.589
    1   AR   Ar   23   0.605   6.605   0.964
    1   AR   Ar   24   5.581   2.544   3.270
    1   AR   Ar   25   0.694   2.401   4.579
    1   AR   Ar   26   5.675   6.980   4.562
    1   AR   Ar   27   1.925   0.400   2.033
    1   AR   Ar   28   1.726   2.228   3.919
    1   AR   Ar   29   4.629   1.180   7.255
    1   AR   Ar   30   0.639   1.356   2.648
    1   AR   Ar   31   3.010   1.072   7.112
    1   AR   Ar   32   1.370   2.583   5.495
    1   AR   Ar   33   0.340   3.978   0.178
    1   AR   Ar   34   1.192   4.665   2.352
    1   AR   Ar   35   5.846   5.243   2.560
    1   AR   Ar   36   5.740   1.922  -2.451
    1   AR   Ar   37   4.055   2.857   1.741
    1   AR   Ar   38   6.669   4.160   4.127
    1   AR   Ar   39   0.340   3.117   3.812
    1   AR   Ar   40   1.275   3.801   1.772
    1   AR   Ar   41   0.570   2.291   3.224
    1   AR   Ar   42   4.809   5.918   5.800
    1   AR   Ar   43   0.097   2.526   5.723
    1   AR   Ar   44   0.502   3.939   3.216
    1   AR   Ar   45   0.875   3.684   5.384
    1   AR   Ar   46   0.426   4.498   6.656
    1   AR   Ar   47   4.011   4.632   7.806
    1   AR   Ar   48   6.838   3.887   7.483
    1   AR   Ar   49   6.914   0.547   0.079
    1   AR   Ar   50   3.990   5.211   0.481
    1   AR   Ar   51   5.982   3.256   2.565
    1   AR   Ar   52   5.240   3.269  -1.173
    1   AR   Ar   53   4.826   0.273   2.745
    1   AR   Ar   54   0.780   0.103   2.272
    1   AR   Ar   55   6.884   4.514   2.567
    1   AR   Ar   56   6.836   1.722   2.755
    1   AR   Ar   57   3.844   4.235   2.066
    1   AR   Ar   58   0.732   3.908   4.315
    1   AR   Ar   59   2.797   5.679   5.538
    1   AR   Ar   60   0.195   5.589   2.782
    1   AR   Ar   61   0.275   3.451   6.329
    1   AR   Ar   62   0.120   4.455   5.022
    1   AR   Ar   63   3.048   2.414   7.421
    1   AR   Ar   64   7.061   5.798   4.984
    1   AR   Ar   65   3.854   0.702   2.346
    1   AR   Ar   66   1.295   1.041   1.243
    1   AR   Ar   67   4.709   0.093  -0.348
    1   AR   Ar   68   0.537   0.878  -1.675
    1   AR   Ar   69   1.921   1.345   0.368
    1   AR   Ar   70   0.377   1.539   1.632
    1   AR   Ar   71   2.849   0.548   3.043
    1   AR   Ar   72   4.393   1.170   1.564
    1   AR   Ar   73   3.016   0.241   4.089
    1   AR   Ar   74   0.979   0.816   4.002
    1   AR   Ar   75   3.304   0.495   5.162
    1   AR   Ar   76   2.404   6.958   1.025
    1   AR   Ar   77   1.873   6.198   5.712
    1   AR   Ar   78   6.766   5.051   5.973
    1   AR   Ar   79   3.485   6.837   5.932
    1   AR   Ar   80   3.768   5.743   5.408
    1   AR   Ar   81   1.545   6.610   1.539
    1   AR   Ar   82   6.200   4.693   0.734
    1   AR   Ar   83   1.166   3.495   0.708
    1   AR   Ar   84   1.091   4.483   1.012
    1   AR   Ar   85   1.423   4.084  -0.091
    1   AR   Ar   86   1.636   5.824   0.819
    1   AR   Ar   87   2.804   3.474   2.410
    1   AR   Ar   88   3.735   5.251   1.692
    1   AR   Ar   89   6.557   1.834   1.096
    1   AR   Ar   90   3.026   1.713   5.331
    1   AR   Ar   91   2.080   1.499   3.240
    1   AR   Ar   92   2.199   3.140   1.725
    1   AR   Ar   93   2.073   1.136   5.564
    1   AR   Ar   94   1.606   6.825   8.770
    1   AR   Ar   95   4.164   1.301   5.070
    1   AR   Ar   96   2.435   7.013   4.944
    1   AR   Ar   97   2.640   2.616  -1.265
    1   AR   Ar   98   1.518   4.536   4.048
    1   AR   Ar   99   5.653   0.439  -0.561
    1   AR   Ar  100   7.080   3.097  -3.178
    1   AR   Ar  101   4.050   6.417   2.585
    1   AR   Ar  102   3.672   1.555   3.163
    1   AR   Ar  103   2.233   4.373   1.066
    1   AR   Ar  104   3.737   6.355  -1.289
    1   AR   Ar  105   2.868   2.026   3.581
    1   AR   Ar  106   3.760   2.502   5.169
    1   AR   Ar  107   0.800   5.220   5.531
    1   AR   Ar  108   2.200   1.165   4.566
    1   AR   Ar  109   1.682   4.291   5.575
    1   AR   Ar  110   2.232   2.289   4.826
    1   AR   Ar  111   3.818   5.934   8.030
    1   AR   Ar  112   6.948   6.114   6.026
    1   AR   Ar  113   1.273   5.943  -1.395
    1   AR   Ar  114   2.403   0.397   0.053
    1   AR   Ar  115   1.046   5.246   0.211
    1   AR   Ar  116   4.865   0.384   0.615
    1   AR   Ar  117   0.257   4.961   3.743
    1   AR   Ar  118   1.652   5.566   3.054
    1   AR   Ar  119   1.860   3.939   2.993
    1   AR   Ar  120   1.629   6.697   2.702
    1   AR   Ar  121   5.710   4.414   5.955
    1   AR   Ar  122   3.280   5.510   4.132
    1   AR   Ar  123   3.494   3.284   5.779
    1   AR   Ar  124   0.560   5.245   1.515
    1   AR   Ar  125   5.977   3.480   4.785
    1   AR   Ar  126   6.635   0.331   7.533
    1   AR   Ar  127   4.416   3.298   6.428
    1   AR   Ar  128   2.104   4.162   6.917
    1   AR   Ar  129   1.916   5.221   5.210
    1   AR   Ar  130   4.138   1.651  -4.912
    1   AR   Ar  131   4.515   5.602  -1.700
    1   AR   Ar  132   0.371   1.881   0.587
    1   AR   Ar  133   4.115   0.372   4.410
    1   AR   Ar  134   3.344   1.201   4.237
    1   AR   Ar  135   5.939   1.601   4.396
    1   AR   Ar  136   5.820   0.096   2.830
    1   AR   Ar  137   2.866   4.275   5.825
    1   AR   Ar  138   5.554   1.297   5.356
    1   AR   Ar  139   6.206   2.188   5.234
    1   AR   Ar  140   4.801   6.494   4.918
    1   AR   Ar  141   4.260   5.738   4.352
    1   AR   Ar  142   4.549   6.739   7.352
    1   AR   Ar  143   5.808   6.468   6.622
    1   AR   Ar  144   0.012   1.515   4.927
    1   AR   Ar  145   4.269   5.148  -0.541
    1   AR   Ar  146   3.726   2.725   2.857
    1   AR   Ar  147   5.182   4.326  -0.510
    1   AR   Ar  148   2.736   6.421  -1.612
    1   AR   Ar  149   0.897   0.904  -0.254
    1   AR   Ar  150   1.842   2.479   2.765
    1   AR   Ar  151   2.771   3.169   3.508
    1   AR   Ar  152   0.862   1.440  -2.489
    1   AR   Ar  153   5.743   0.795   3.532
    1   AR   Ar  154   4.449   2.823   3.976
    1   AR   Ar  155   6.609   3.690   5.892
    1   AR   Ar  156   2.883   4.897   3.351
    1   AR   Ar  157   2.276   5.382   6.677
    1   AR   Ar  158   0.662   1.522   5.879
    1   AR   Ar  159   3.939   0.440   6.512
    1   AR   Ar  160   0.940   0.684   5.116
    1   AR   Ar  161   4.516   4.507   3.457
    1   AR   Ar  162   4.086   6.179  -0.103
    1   AR   Ar  163   5.932   4.359   1.853
    1   AR   Ar  164   1.833   5.678   1.939
    1   AR   Ar  165   3.438   4.206   0.996
    1   AR   Ar  166   2.490   3.266   4.537
    1   AR   Ar  167   6.309   6.786   3.660
    1   AR   Ar  168   5.296   4.166  -2.095
    1   AR   Ar  169   3.758   3.470   3.561
    1   AR   Ar  170   1.953   3.371   6.090
    1   AR   Ar  171   5.054   4.976   4.249
    1   AR   Ar  172   3.662   3.526   4.646
    1   AR   Ar  173   2.112   2.189   6.150
    1   AR   Ar  174   3.407   6.333   4.695
    1   AR   Ar  175   3.012   1.006   6.031
    1   AR   Ar  176   3.311   2.665   4.209
    1   AR   Ar  177   0.594   4.762  -0.668
    1   AR   Ar  178   2.595   6.128   0.404
    1   AR   Ar  179   3.753   0.277   0.763
    1   AR   Ar  180   4.921   0.502  -6.719
    1   AR   Ar  181   6.836   5.738   1.895
    1   AR   Ar  182   0.780   6.145   2.231
    1   AR   Ar  183   4.976   5.548   1.865
    1   AR   Ar  184   4.776   6.317   0.668
    1   AR   Ar  185   2.945   4.666   4.580
    1   AR   Ar  186   3.093   6.096   2.705
    1   AR   Ar  187   3.916   6.430   3.644
    1   AR   Ar  188   3.245   6.936   2.070
    1   AR   Ar  189   5.955   2.944   6.228
    1   AR   Ar  190   2.431   6.335   3.581
    1   AR   Ar  191   3.501   6.005   6.837
    1   AR   Ar  192   4.146   4.131   5.759
    1   AR   Ar  193   2.873   6.042   1.465
    1   AR   Ar  194   5.335   5.256  -1.174
    1   AR   Ar  195   5.500   1.239   0.793
    1   AR   Ar  196   3.495   0.873  -0.207
    1   AR   Ar  197   4.667   2.643   0.612
    1   AR   Ar  198   5.678   7.072   1.299
    1   AR   Ar  199   1.586   0.569   3.131
    1   AR   Ar  200   5.676   2.977  -0.002
    1   AR   Ar  201   6.720   6.580   2.573
    1   AR   Ar  202   5.207   0.828   4.446
    1   AR   Ar  203   0.778   6.606   3.182
    1   AR   Ar  204   4.491   5.848   6.964
    1   AR   Ar  205   5.766   1.965   1.983
    1   AR   Ar  206   5.863   0.589   6.414
    1   AR   Ar  207   7.119   3.324   4.811
    1   AR   Ar  208   1.050   5.851   4.041
    1   AR   Ar  209   7.046   2.159  -1.739
    1   AR   Ar  210   1.384   0.208   0.281
    1   AR   Ar  211   0.016   2.763   0.943
    1   AR   Ar  212   5.966   3.962   0.022
    1   AR   Ar  213   3.578   1.882   1.730
    1   AR   Ar  214   4.873   4.549   2.159
    1   AR   Ar  215   6.667   2.661   2.098
    1   AR   Ar  216   1.228   2.343   1.145
    1   AR   Ar  217   4.880   1.521   3.580
    1   AR   Ar  218   4.539   3.176   5.086
    1   AR   Ar  219   4.687   3.406   2.883
    1   AR   Ar  220   4.918   3.776   1.457
    1   AR   Ar  221   7.058   5.910   3.989
    1   AR   Ar  222   5.122   0.287   5.441
    1   AR   Ar  223   6.436   1.713   6.082
    1   AR   Ar  224   4.705   2.165   5.118
    1   AR   Ar  225   6.701   2.688   3.287
    1   AR   Ar  226   1.382   3.179   3.637
    1   AR   Ar  227   0.971   3.033   2.568
    1   AR   Ar  228   6.383   1.120   1.741
    1   AR   Ar  229   6.298   4.003  -1.258
    1   AR   Ar  230   3.881   4.552   4.319
    1   AR   Ar  231   4.840   2.215   2.550
    1   AR   Ar  232   5.360   2.863   1.891
    1   AR   Ar  233   6.626   2.509   4.327
    1   AR   Ar  234   5.539   2.587   4.412
    1   AR   Ar  235   6.830   0.440   3.172
    1   AR   Ar  236   4.564   4.976   5.290
    1   AR   Ar  237   4.945   1.228   6.272
    1   AR   Ar  238   5.799   5.349   6.666
    1   AR   Ar  239   1.017   4.619  10.960
    1   AR   Ar  240   1.157   2.764   6.451
    1   AR   Ar  241   1.635   6.418  -0.127
    1   AR   Ar  242   5.882   5.512   1.441
    1   AR   Ar  243   5.284   6.424   2.519
    1   AR   Ar  244   0.055   5.632   0.511
    1   AR   Ar  245   3.985   0.557   3.419
    1   AR   Ar  246   5.577   6.568  -0.719
    1   AR   Ar  247   0.272   3.650   1.759
    1   AR   Ar  248   5.255   5.569   0.128
    1   AR   Ar  249   4.496   0.088   1.564
    1   AR   Ar  250   5.102   6.563   3.654
    1   AR   Ar  251   5.051   4.081   4.716
    1   AR   Ar  252   2.522   4.397   2.038
    1   AR   Ar  253   5.817   2.378   7.734
    1   AR   Ar  254   6.310   3.435   9.925
    1   AR   Ar  255   4.295   5.949   9.000
    1   AR   Ar  256   5.678   5.545   3.549
    7.12000  7.12000 12.00000
Argon-slab step 4895
  256
    1   AR   Ar    1   5.107   2.993  -2.419
    1   AR   Ar    2   5.966   6.570   0.359
    1   AR   Ar    3   4.093   3.498  -1.073
    1   AR   Ar    4   2.443   1.006   1.287
    1   AR   Ar    5   6.504   5.250  -0.188
    1   AR   Ar    6   1.176   2.028   2.091
    1   AR   Ar    7   5.740   4.441   3.369
    1   AR   Ar    8   6.529   3.008  -1.573
    1   AR   Ar    9   0.422   6.788   4.371
    1   AR   Ar   10   5.502   5.331   5.366
    1   AR   Ar   11   1.233   6.452   4.988
    1   AR   Ar   12   0.057   1.576   3.859
    1   AR   Ar   13   7.070   0.577   4.288
    1   AR   Ar   14   3.875   1.707   6.517
    1   AR   Ar   15   3.202   0.328   9.646
    1   AR   Ar   16   0.915   0.444   6.141
    1   AR   Ar   17   5.927   3.505   1.145
    1   AR   Ar   18   6.921   5.116  -1.426
    1   AR   Ar   19   5.096   4.948   1.116
    1   AR   Ar   20   6.616   4.010  -2.171
    1   AR   Ar   21   2.601   1.576   2.326
    1   AR   Ar   22   5.818   1.025   2.555
    1   AR   Ar   23   0.607   6.615   0.933
    1   AR   Ar   24   5.577   2.568   3.249
    1   AR   Ar   25   0.703   2.440   4.595
    1   AR   Ar   26   5.694   6.973   4.570
    1   AR   Ar   27   1.921   0.371   2.035
    1   AR   Ar   28   1.718   2.230   3.929
    1   AR   Ar   29   4.645   1.177   7.289
    1   AR   Ar   30   0.638   1.337   2.642
    1   AR   Ar   31   2.984   1.075   7.093
    1   AR   Ar   32   1.368   2.587   5.478
    1   AR   Ar   33   0.360   4.000   0.154
    1   AR   Ar   34   1.213   4.678   2.325
    1   AR   Ar   35   5.821   5.260   2.542
    1   AR   Ar   36   5.718   1.927  -2.445
    1   AR   Ar   37   4.051   2.864   1.698
    1   AR   Ar   38   6.665   4.203   4.114
    1   AR   Ar   39   0.349   3.109   3.832
    1   AR   Ar   40   1.270   3.775   1.794
    1   AR   Ar   41   0.599   2.256   3.270
    1   AR   Ar   42   4.819   5.919   5.829
    1   AR   Ar   43   0.099   2.551   5.695
    1   AR   Ar   44   0.492   3.923   3.228
    1   AR   Ar   45   0.896   3.666   5.371
    1   AR   Ar   46   0.404   4.499   6.679
    1   AR   Ar   47   4.013   4.638   7.827
    1   AR   Ar   48   6.856   3.879   7.504
    1   AR   Ar   49   6.913   0.575   0.084
    1   AR   Ar   50   4.004   5.195   0.512
    1   AR   Ar   51   5.950   3.261   2.572
    1   AR   Ar   52   5.234   3.278  -1.176
    1   AR   Ar   53   4.812   0.266   2.752
    1   AR   Ar   54   0.792   0.134   2.254
    1   AR   Ar   55   6.868   4.517   2.546
    1   AR   Ar   56   6.829   1.674   2.774
    1   AR   Ar   57   3.851   4.275   2.049
    1   AR   Ar   58   0.715   3.919   4.335
    1   AR   Ar   59   2.793   5.700   5.550
    1   AR   Ar   60   0.203   5.593   2.794
    1   AR   Ar   61   0.283   3.457   6.374
    1   AR   Ar   62   0.102   4.461   5.048
    1   AR   Ar   63   3.045   2.411   7.403
    1   AR   Ar   64   7.084   5.790   4.992
    1   AR   Ar   65   3.830   0.677   2.353
    1   AR   Ar   66   1.300   1.020   1.235
    1   AR   Ar   67   4.704   0.109  -0.358
    1   AR   Ar   68   0.556   0.824  -1.697
    1   AR   Ar   69   1.923   1.336   0.370
    1   AR   Ar   70   0.380   1.488   1.623
    1   AR   Ar   71   2.874   0.565   3.038
    1   AR   Ar   72   4.405   1.187   1.532
    1   AR   Ar   73   2.986   0.233   4.068
    1   AR   Ar   74   0.964   0.818   4.021
    1   AR   Ar   75   3.278   0.505   5.145
    1   AR   Ar   76   2.413   6.972   1.025
    1   AR   Ar   77   1.873   6.196   5.703
    1   AR   Ar   78   6.794   5.070   5.962
    1   AR   Ar   79   3.444   6.853   5.918
    1   AR   Ar   80   3.786   5.751   5.413
    1   AR   Ar   81   1.533   6.589   1.546
    1   AR   Ar   82   6.208   4.694   0.699
    1   AR   Ar   83   1.161   3.499   0.681
    1   AR   Ar   84   1.081   4.501   1.028
    1   AR   Ar   85   1.419   4.082  -0.077
    1   AR   Ar   86   1.638   5.843   0.798
    1   AR   Ar   87   2.820   3.450   2.410
    1   AR   Ar   88   3.737   5.219   1.640
    1   AR   Ar   89   6.559   1.850   1.109
    1   AR   Ar   90   3.007   1.713   5.365
    1   AR   Ar   91   2.071   1.483   3.217
    1   AR   Ar   92   2.190   3.149   1.738
    1   AR   Ar   93   2.105   1.140   5.535
    1   AR   Ar   94   1.592   6.852   8.740
    1   AR   Ar   95   4.136   1.274   5.104
    1   AR   Ar   96   2.414   7.036   4.932
    1   AR   Ar   97   2.648   2.624  -1.268
    1   AR   Ar   98   1.498   4.519   4.026
    1   AR   Ar   99   5.664   0.449  -0.545
    1   AR   Ar  100   7.061   3.079  -3.167
    1   AR   Ar  101   4.045   6.442   2.606
    1   AR   Ar  102   3.664   1.577   3.131
    1   AR   Ar  103   2.230   4.402   1.063
    1   AR   Ar  104   3.726   6.382  -1.279
    1   AR   Ar  105   2.862   2.024   3.580
    1   AR   Ar  106   3.737   2.505   5.173
    1   AR   Ar  107   0.780   5.204   5.548
    1   AR   Ar  108   2.185   1.176   4.542
    1   AR   Ar  109   1.698   4.316   5.582
    1   AR   Ar  110   2.219   2.298   4.839
    1   AR   Ar  111   3.818   5.923   8.062
    1   AR   Ar  112   6.920   6.129   5.991
    1   AR   Ar  113   1.213   5.947  -1.428
    1   AR   Ar  114   2.402   0.411   0.044
    1   AR   Ar  115   1.059   5.254   0.250
    1   AR   Ar  116   4.864   0.369   0.617
    1   AR   Ar  117   0.275   4.946   3.726
    1   AR   Ar  118   1.658   5.552   3.067
    1   AR   Ar  119   1.852   3.955   2.990
    1   AR   Ar  120   1.673   6.691   2.695
    1   AR   Ar  121   5.709   4.407   5.998
    1   AR   Ar  122   3.242   5.519   4.123
    1   AR   Ar  123   3.500   3.260   5.775
    1   AR   Ar  124   0.561   5.260   1.513
    1   AR   Ar  125   5.968   3.473   4.738
    1   AR   Ar  126   6.618   0.343   7.526
    1   AR   Ar  127   4.386   3.304   6.432
    1   AR   Ar  128   2.076   4.167   6.893
    1   AR   Ar  129   1.911   5.258   5.195
    1   AR   Ar  130   4.140   1.635  -4.903
    1   AR   Ar  131   4.510   5.639  -1.710
    1   AR   Ar  132   0.389   1.851   0.617
    1   AR   Ar  133   4.110   0.339   4.413
    1   AR   Ar  134   3.330   1.193   4.230
    1   AR   Ar  135   5.937   1.594   4.429
    1   AR   Ar  136   5.854   0.054   2.830
    1   AR   Ar  137   2.865   4.255   5.775
    1   AR   Ar  138   5.551   1.259   5.351
    1   AR   Ar  139   6.239   2.214   5.200
    1   AR   Ar  140   4.781   6.498   4.933
    1   AR   Ar  141   4.237   5.740   4.348
    1   AR   Ar  142   4.524   6.755   7.359
    1   AR   Ar  143   5.795   6.484   6.633
    1   AR   Ar  144   0.023   1.540   4.950
    1   AR   Ar  145   4.268   5.158  -0.521
    1   AR   Ar  146   3.704   2.733   2.876
    1   AR   Ar  147   5.172   4.325  -0.513
    1   AR   Ar  148   2.712   6.409  -1.586
    1   AR   Ar  149   0.870   0.970  -0.249
    1   AR   Ar  150   1.826   2.494   2.776
    1   AR   Ar  151   2.757   3.187   3.518
    1   AR   Ar  152   0.853   1.415  -2.498
    1   AR   Ar  153   5.751   0.805   3.551
    1   AR   Ar  154   4.448   2.834   3.946
    1   AR   Ar  155   6.586   3.692   5.860
    1   AR   Ar  156   2.895   4.901   3.352
    1   AR   Ar  157   2.291   5.392   6.694
    1   AR   Ar  158   0.684   1.518   5.875
    1   AR   Ar  159   3.948   0.425   6.513
    1   AR   Ar  160   0.922   0.656   5.112
    1   AR   Ar  161   4.535   4.537   3.444
    1   AR   Ar  162   4.060   6.222  -0.094
    1   AR   Ar  163   5.953   4.367   1.892
    1   AR   Ar  164   1.848   5.647   1.962
    1   AR   Ar  165   3.436   4.217   0.996
    1   AR   Ar  166   2.499   3.289   4.497
    1   AR   Ar  167   6.291   6.805   3.694
    1   AR   Ar  168   5.289   4.173  -2.128
    1   AR   Ar  169   3.788   3.502   3.554
    1   AR   Ar  170   1.945   3.358   6.095
    1   AR   Ar  171   5.040   4.998   4.247
    1   AR   Ar  172   3.656   3.553   4.634
    1   AR   Ar  173   2.127   2.177   6.172
    1   AR   Ar  174   3.405   6.333   4.708
    1   AR   Ar  175   3.033   0.996   6.036
    1   AR   Ar  176   3.281   2.634   4.201
    1   AR   Ar  177   0.572   4.753  -0.680
    1   AR   Ar  178   2.587   6.128   0.409
    1   AR   Ar  179   3.721   0.252   0.770
    1   AR   Ar  180   4.931   0.468  -6.735
    1   AR   Ar  181   6.848   5.772   1.885
    1   AR   Ar  182   0.809   6.132   2.245
    1   AR   Ar  183   4.996   5.562   1.883
    1   AR   Ar  184   4.777   6.312   0.659
    1   AR   Ar  185   2.954   4.659   4.594
    1   AR   Ar  186   3.081   6.092   2.696
    1   AR   Ar  187   3.913   6.442   3.603
    1   AR   Ar  188   3.252   6.934   2.048
    1   AR   Ar  189   5.977   2.932   6.203
    1   AR   Ar  190   2.424   6.369   3.580
    1   AR   Ar  191   3.505   6.011   6.843
    1   AR   Ar  192   4.131   4.108   5.749
    1   AR   Ar  193   2.878   6.016   1.490
    1   AR   Ar  194   5.346   5.227  -1.155
    1   AR   Ar  195   5.481   1.209   0.777
    1   AR   Ar  196   3.502   0.856  -0.225
    1   AR   Ar  197   4.646   2.654   0.633
    1   AR   Ar  198   5.670   7.107   1.292
    1   AR   Ar  199   1.535   0.572   3.102
    1   AR   Ar  200   5.684   2.992   0.004
    1   AR   Ar  201   6.724   6.576   2.592
    1   AR   Ar  202   5.156   0.811   4.412
    1   AR   Ar  203   0.777   6.613   3.195
    1   AR   Ar  204   4.461   5.800   7.003
    1   AR   Ar  205   5.763   1.962   2.000
    1   AR   Ar  206   5.863   0.585   6.425
    1   AR   Ar  207   7.086   3.322   4.822
    1   AR   Ar  208   1.044   5.848   4.017
    1   AR   Ar  209   7.041   2.153  -1.755
    1   AR   Ar  210   1.378   0.231   0.306
    1   AR   Ar  211   0.020   2.771   0.913
    1   AR   Ar  212   5.983   3.940   0.059
    1   AR   Ar  213   3.580   1.878   1.710
    1   AR   Ar  214   4.871   4.551   2.188
    1   AR   Ar  215   6.658   2.649   2.073
    1   AR   Ar  216   1.232   2.350   1.123
    1   AR   Ar  217   4.877   1.520   3.598
    1   AR   Ar  218   4.511   3.140   5.074
    1   AR   Ar  219   4.683   3.422   2.893
    1   AR   Ar  220   4.904   3.782   1.435
    1   AR   Ar  221   7.089   5.942   3.947
    1   AR   Ar  222   5.151   0.277   5.417
    1   AR   Ar  223   6.420   1.707   6.099
    1   AR   Ar  224   4.719   2.216   5.121
    1   AR   Ar  225   6.698   2.673   3.297
    1   AR   Ar  226   1.387   3.187   3.671
    1   AR   Ar  227   0.962   3.054   2.549
    1   AR   Ar  228   6.415   1.102   1.733
    1   AR   Ar  229   6.275   4.017  -1.255
    1   AR   Ar  230   3.893   4.560   4.317
    1   AR   Ar  231   4.862   2.206   2.570
    1   AR   Ar  232   5.379   2.859   1.871
    1   AR   Ar  233   6.595   2.482   4.301
    1   AR   Ar  234   5.502   2.574   4.425
    1   AR   Ar  235   6.829   0.408   3.189
    1   AR   Ar  236   4.534   4.939   5.291
    1   AR   Ar  237   4.940   1.189   6.255
    1   AR   Ar  238   5.839   5.367   6.626
    1   AR   Ar  239   1.013   4.616  10.998
    1   AR   Ar  240   1.169   2.753   6.455
    1   AR   Ar  241   1.633   6.426  -0.109
    1   AR   Ar  242   5.894   5.532   1.459
    1   AR   Ar  243   5.296   6.363   2.505
    1   AR   Ar  244   0.031   5.672   0.533
    1   AR   Ar  245   3.958   0.567   3.408
    1   AR   Ar  246   5.574   6.586  -0.730
    1   AR   Ar  247   0.278   3.633   1.773
    1   AR   Ar  248   5.273   5.575   0.127
    1   AR   Ar  249   4.477   0.095   1.586
    1   AR   Ar  250   5.088   6.556   3.661
    1   AR   Ar  251   5.051   4.109   4.725
    1   AR   Ar  252   2.498   4.374   2.021
    1   AR   Ar  253   5.806   2.384   7.748
    1   AR   Ar  254   6.316   3.465   9.941
    1   AR   Ar  255   4.309   5.964   9.009
    1   AR   Ar  256   5.674   5.558   3.552
    7.12000  7.12000 12.00000
Argon-slab step 4900
  256
    1   AR   Ar    1   5.101   3.004  -2.421
    1   AR   Ar    2   5.916   6.552   0.335
    1   AR   Ar    3   4.125   3.503  -1.076
    1   AR   Ar    4   2.457   1.004   1.291
    1   AR   Ar    5   6.496   5.209  -0.183
    1   AR   Ar    6   1.188   2.010   2.100
    1   AR   Ar    7   5.728   4.473   3.398
    1   AR   Ar    8   6.538   3.049  -1.542
    1   AR   Ar    9   0.409   6.792   4.399
    1   AR   Ar   10   5.507   5.325   5.373
    1   AR   Ar   11   1.225   6.428   4.965
    1   AR   Ar   12   0.062   1.551   3.863
    1   AR   Ar   13   7.109   0.599   4.293
    1   AR   Ar   14   3.881   1.695   6.525
    1   AR   Ar   15   3.181   0.306   9.649
    1   AR   Ar   16   0.917   0.451   6.122
    1   AR   Ar   17   5.935   3.571   1.181
    1   AR   Ar   18   6.926   5.123  -1.436
    1   AR   Ar   19   5.065   4.938   1.138
    1   AR   Ar   20   6.648   4.033  -2.202
    1   AR   Ar   21   2.570   1.562   2.318
    1   AR   Ar   22   5.821   1.003   2.519
    1   AR   Ar   23   0.609   6.623   0.903
    1   AR   Ar   24   5.573   2.589   3.234
    1   AR   Ar   25   0.702   2.482   4.626
    1   AR   Ar   26   5.712   6.967   4.577
    1   AR   Ar   27   1.917   0.345   2.036
    1   AR   Ar   28   1.709   2.230   3.937
    1   AR   Ar   29   4.660   1.174   7.322
    1   AR   Ar   30   0.632   1.307   2.635
    1   AR   Ar   31   2.959   1.079   7.077
    1   AR   Ar   32   1.365   2.591   5.454
    1   AR   Ar   33   0.378   4.023   0.131
    1   AR   Ar   34   1.234   4.695   2.298
    1   AR   Ar   35   5.797   5.275   2.522
    1   AR   Ar   36   5.724   1.927  -2.425
    1   AR   Ar   37   4.048   2.873   1.657
    1   AR   Ar   38   6.659   4.236   4.107
    1   AR   Ar   39   0.350   3.100   3.840
    1   AR   Ar   40   1.275   3.748   1.815
    1   AR   Ar   41   0.632   2.220   3.312
    1   AR   Ar   42   4.824   5.922   5.864
    1   AR   Ar   43   0.103   2.577   5.664
    1   AR   Ar   44   0.483   3.911   3.236
    1   AR   Ar   45   0.914   3.645   5.360
    1   AR   Ar   46   0.376   4.506   6.707
    1   AR   Ar   47   4.015   4.645   7.847
    1   AR   Ar   48   6.875   3.872   7.522
    1   AR   Ar   49   6.912   0.604   0.090
    1   AR   Ar   50   4.019   5.180   0.547
    1   AR   Ar   51   5.924   3.276   2.586
    1   AR   Ar   52   5.231   3.288  -1.179
    1   AR   Ar   53   4.796   0.259   2.757
    1   AR   Ar   54   0.806   0.166   2.235
    1   AR   Ar   55   6.852   4.521   2.525
    1   AR   Ar   56   6.813   1.630   2.793
    1   AR   Ar   57   3.856   4.308   2.035
    1   AR   Ar   58   0.699   3.932   4.355
    1   AR   Ar   59   2.787   5.721   5.563
    1   AR   Ar   60   0.206   5.589   2.819
    1   AR   Ar   61   0.301   3.459   6.423
    1   AR   Ar   62   0.087   4.457   5.077
    1   AR   Ar   63   3.042   2.408   7.384
    1   AR   Ar   64   7.108   5.780   5.001
    1   AR   Ar   65   3.849   0.682   2.345
    1   AR   Ar   66   1.305   0.998   1.228
    1   AR   Ar   67   4.694   0.121  -0.372
    1   AR   Ar   68   0.564   0.784  -1.709
    1   AR   Ar   69   1.929   1.321   0.380
    1   AR   Ar   70   0.380   1.437   1.613
    1   AR   Ar   71   2.899   0.584   3.030
    1   AR   Ar   72   4.418   1.205   1.499
    1   AR   Ar   73   2.956   0.221   4.047
    1   AR   Ar   74   0.950   0.821   4.039
    1   AR   Ar   75   3.255   0.516   5.124
    1   AR   Ar   76   2.421   6.989   1.026
    1   AR   Ar   77   1.878   6.195   5.704
    1   AR   Ar   78   6.821   5.086   5.950
    1   AR   Ar   79   3.400   6.864   5.901
    1   AR   Ar   80   3.817   5.754   5.425
    1   AR   Ar   81   1.521   6.570   1.555
    1   AR   Ar   82   6.217   4.700   0.671
    1   AR   Ar   83   1.155   3.493   0.665
    1   AR   Ar   84   1.073   4.518   1.042
    1   AR   Ar   85   1.418   4.089  -0.070
    1   AR   Ar   86   1.644   5.865   0.787
    1   AR   Ar   87   2.848   3.428   2.423
    1   AR   Ar   88   3.738   5.190   1.585
    1   AR   Ar   89   6.561   1.875   1.117
    1   AR   Ar   90   2.989   1.722   5.388
    1   AR   Ar   91   2.057   1.464   3.196
    1   AR   Ar   92   2.170   3.153   1.740
    1   AR   Ar   93   2.133   1.143   5.514
    1   AR   Ar   94   1.577   6.879   8.709
    1   AR   Ar   95   4.130   1.263   5.132
    1   AR   Ar   96   2.391   7.056   4.921
    1   AR   Ar   97   2.665   2.630  -1.267
    1   AR   Ar   98   1.480   4.505   4.001
    1   AR   Ar   99   5.680   0.469  -0.526
    1   AR   Ar  100   7.041   3.060  -3.155
    1   AR   Ar  101   4.050   6.470   2.617
    1   AR   Ar  102   3.661   1.597   3.096
    1   AR   Ar  103   2.222   4.430   1.051
    1   AR   Ar  104   3.719   6.408  -1.267
    1   AR   Ar  105   2.847   2.019   3.572
    1   AR   Ar  106   3.706   2.497   5.173
    1   AR   Ar  107   0.771   5.225   5.532
    1   AR   Ar  108   2.172   1.188   4.507
    1   AR   Ar  109   1.715   4.341   5.591
    1   AR   Ar  110   2.208   2.305   4.856
    1   AR   Ar  111   3.818   5.912   8.090
    1   AR   Ar  112   6.892   6.148   5.958
    1   AR   Ar  113   1.152   5.951  -1.460
    1   AR   Ar  114   2.403   0.423   0.035
    1   AR   Ar  115   1.063   5.254   0.272
    1   AR   Ar  116   4.861   0.353   0.623
    1   AR   Ar  117   0.296   4.929   3.708
    1   AR   Ar  118   1.662   5.538   3.080
    1   AR   Ar  119   1.844   3.969   2.985
    1   AR   Ar  120   1.722   6.682   2.687
    1   AR   Ar  121   5.697   4.402   6.013
    1   AR   Ar  122   3.202   5.529   4.110
    1   AR   Ar  123   3.500   3.242   5.775
    1   AR   Ar  124   0.564   5.278   1.511
    1   AR   Ar  125   5.961   3.468   4.691
    1   AR   Ar  126   6.628   0.344   7.543
    1   AR   Ar  127   4.357   3.309   6.435
    1   AR   Ar  128   2.047   4.171   6.866
    1   AR   Ar  129   1.902   5.275   5.184
    1   AR   Ar  130   4.137   1.624  -4.896
    1   AR   Ar  131   4.505   5.677  -1.720
    1   AR   Ar  132   0.411   1.816   0.642
    1   AR   Ar  133   4.106   0.304   4.421
    1   AR   Ar  134   3.317   1.191   4.223
    1   AR   Ar  135   5.934   1.579   4.455
    1   AR   Ar  136   5.889   0.006   2.828
    1   AR   Ar  137   2.864   4.235   5.724
    1   AR   Ar  138   5.549   1.223   5.348
    1   AR   Ar  139   6.270   2.242   5.174
    1   AR   Ar  140   4.759   6.502   4.946
    1   AR   Ar  141   4.218   5.740   4.346
    1   AR   Ar  142   4.520   6.719   7.376
    1   AR   Ar  143   5.780   6.501   6.643
    1   AR   Ar  144   0.033   1.565   4.973
    1   AR   Ar  145   4.271   5.168  -0.504
    1   AR   Ar  146   3.681   2.738   2.892
    1   AR   Ar  147   5.160   4.324  -0.519
    1   AR   Ar  148   2.686   6.397  -1.559
    1   AR   Ar  149   0.841   1.039  -0.244
    1   AR   Ar  150   1.815   2.509   2.790
    1   AR   Ar  151   2.739   3.206   3.517
    1   AR   Ar  152   0.844   1.393  -2.510
    1   AR   Ar  153   5.762   0.816   3.576
    1   AR   Ar  154   4.451   2.841   3.919
    1   AR   Ar  155   6.557   3.700   5.818
    1   AR   Ar  156   2.906   4.903   3.351
    1   AR   Ar  157   2.307   5.401   6.709
    1   AR   Ar  158   0.690   1.518   5.877
    1   AR   Ar  159   3.960   0.415   6.517
    1   AR   Ar  160   0.915   0.626   5.129
    1   AR   Ar  161   4.554   4.564   3.428
    1   AR   Ar  162   4.033   6.264  -0.088
    1   AR   Ar  163   5.972   4.374   1.930
    1   AR   Ar  164   1.853   5.641   1.972
    1   AR   Ar  165   3.435   4.230   0.997
    1   AR   Ar  166   2.505   3.315   4.464
    1   AR   Ar  167   6.273   6.819   3.733
    1   AR   Ar  168   5.283   4.179  -2.159
    1   AR   Ar  169   3.815   3.543   3.547
    1   AR   Ar  170   1.940   3.347   6.098
    1   AR   Ar  171   5.040   5.009   4.245
    1   AR   Ar  172   3.648   3.582   4.623
    1   AR   Ar  173   2.142   2.165   6.192
    1   AR   Ar  174   3.399   6.348   4.711
    1   AR   Ar  175   3.057   0.978   6.051
    1   AR   Ar  176   3.262   2.611   4.209
    1   AR   Ar  177   0.551   4.743  -0.690
    1   AR   Ar  178   2.581   6.128   0.412
    1   AR   Ar  179   3.690   0.226   0.776
    1   AR   Ar  180   4.942   0.434  -6.751
    1   AR   Ar  181   6.858   5.807   1.872
    1   AR   Ar  182   0.846   6.125   2.249
    1   AR   Ar  183   5.004   5.583   1.911
    1   AR   Ar  184   4.780   6.312   0.657
    1   AR   Ar  185   2.949   4.647   4.614
    1   AR   Ar  186   3.062   6.084   2.689
    1   AR   Ar  187   3.908   6.456   3.570
    1   AR   Ar  188   3.258   6.934   2.023
    1   AR   Ar  189   5.998   2.915   6.178
    1   AR   Ar  190   2.418   6.402   3.579
    1   AR   Ar  191   3.500   6.021   6.846
    1   AR   Ar  192   4.115   4.084   5.738
    1   AR   Ar  193   2.882   5.990   1.515
    1   AR   Ar  194   5.359   5.198  -1.134
    1   AR   Ar  195   5.465   1.181   0.764
    1   AR   Ar  196   3.509   0.839  -0.242
    1   AR   Ar  197   4.642   2.674   0.646
    1   AR   Ar  198   5.661   0.022   1.287
    1   AR   Ar  199   1.483   0.573   3.072
    1   AR   Ar  200   5.688   2.999   0.011
    1   AR   Ar  201   6.731   6.572   2.614
    1   AR   Ar  202   5.101   0.794   4.382
    1   AR   Ar  203   0.769   6.619   3.213
    1   AR   Ar  204   4.440   5.742   7.041
    1   AR   Ar  205   5.766   1.949   2.017
    1   AR   Ar  206   5.862   0.581   6.435
    1   AR   Ar  207   7.051   3.320   4.837
    1   AR   Ar  208   1.038   5.844   3.993
    1   AR   Ar  209   7.062   2.135  -1.749
    1   AR   Ar  210   1.372   0.255   0.338
    1   AR   Ar  211   0.049   2.777   0.909
    1   AR   Ar  212   6.003   3.921   0.093
    1   AR   Ar  213   3.579   1.874   1.692
    1   AR   Ar  214   4.872   4.553   2.220
    1   AR   Ar  215   6.653   2.636   2.047
    1   AR   Ar  216   1.235   2.360   1.095
    1   AR   Ar  217   4.873   1.519   3.615
    1   AR   Ar  218   4.487   3.133   5.063
    1   AR   Ar  219   4.681   3.437   2.903
    1   AR   Ar  220   4.888   3.789   1.414
    1   AR   Ar  221   7.116   5.974   3.900
    1   AR   Ar  222   5.178   0.266   5.395
    1   AR   Ar  223   6.404   1.699   6.116
    1   AR   Ar  224   4.745   2.242   5.124
    1   AR   Ar  225   6.691   2.657   3.299
    1   AR   Ar  226   1.393   3.199   3.703
    1   AR   Ar  227   0.950   3.076   2.531
    1   AR   Ar  228   6.451   1.075   1.729
    1   AR   Ar  229   6.246   4.034  -1.237
    1   AR   Ar  230   3.916   4.565   4.300
    1   AR   Ar  231   4.879   2.196   2.591
    1   AR   Ar  232   5.386   2.862   1.842
    1   AR   Ar  233   6.569   2.456   4.272
    1   AR   Ar  234   5.486   2.573   4.424
    1   AR   Ar  235   6.832   0.381   3.204
    1   AR   Ar  236   4.502   4.905   5.288
    1   AR   Ar  237   4.911   1.196   6.265
    1   AR   Ar  238   5.880   5.385   6.583
    1   AR   Ar  239   1.009   4.613  11.035
    1   AR   Ar  240   1.176   2.741   6.467
    1   AR   Ar  241   1.629   6.448  -0.105
    1   AR   Ar  242   5.917   5.552   1.472
    1   AR   Ar  243   5.307   6.301   2.492
    1   AR   Ar  244   0.009   5.712   0.559
    1   AR   Ar  245   3.931   0.575   3.396
    1   AR   Ar  246   5.569   6.594  -0.740
    1   AR   Ar  247   0.275   3.615   1.787
    1   AR   Ar  248   5.293   5.577   0.123
    1   AR   Ar  249   4.459   0.099   1.610
    1   AR   Ar  250   5.075   6.550   3.667
    1   AR   Ar  251   5.050   4.131   4.738
    1   AR   Ar  252   2.455   4.362   2.040
    1   AR   Ar  253   5.795   2.391   7.762
    1   AR   Ar  254   6.321   3.496   9.956
    1   AR   Ar  255   4.323   5.979   9.020
    1   AR   Ar  256   5.671   5.574   3.556
    7.12000  7.12000 12.00000
Argon-slab step 4905
  256
    1   AR   Ar    1   5.096   3.014  -2.421
    1   AR   Ar    2   5.864   6.534   0.311
    1   AR   Ar    3   4.158   3.509  -1.079
    1   AR   Ar    4   2.471   1.001   1.296
    1   AR   Ar    5   6.488   5.170  -0.185
    1   AR   Ar    6   1.201   1.993   2.108
    1   AR   Ar    7   5.715   4.504   3.425
    1   AR   Ar    8   6.545   3.091  -1.512
    1   AR   Ar    9   0.398   6.795   4.426
    1   AR   Ar   10   5.517   5.317   5.376
    1   AR   Ar   11   1.222   6.424   4.937
    1   AR   Ar   12   0.080   1.531   3.891
    1   AR   Ar   13   0.017   0.622   4.301
    1   AR   Ar   14   3.872   1.652   6.533
    1   AR   Ar   15   3.160   0.284   9.653
    1   AR   Ar   16   0.919   0.456   6.110
    1   AR   Ar   17   5.945   3.637   1.216
    1   AR   Ar   18   6.930   5.128  -1.444
    1   AR   Ar   19   5.034   4.922   1.153
    1   AR   Ar   20   6.682   4.056  -2.236
    1   AR   Ar   21   2.542   1.548   2.306
    1   AR   Ar   22   5.820   0.983   2.488
    1   AR   Ar   23   0.614   6.631   0.873
    1   AR   Ar   24   5.570   2.606   3.228
    1   AR   Ar   25   0.701   2.523   4.656
    1   AR   Ar   26   5.728   6.962   4.586
    1   AR   Ar   27   1.915   0.323   2.034
    1   AR   Ar   28   1.699   2.226   3.943
    1   AR   Ar   29   4.674   1.171   7.356
    1   AR   Ar   30   0.649   1.275   2.631
    1   AR   Ar   31   2.934   1.085   7.063
    1   AR   Ar   32   1.361   2.594   5.428
    1   AR   Ar   33   0.392   4.047   0.109
    1   AR   Ar   34   1.254   4.715   2.273
    1   AR   Ar   35   5.776   5.289   2.504
    1   AR   Ar   36   5.750   1.925  -2.396
    1   AR   Ar   37   4.047   2.883   1.617
    1   AR   Ar   38   6.641   4.243   4.125
    1   AR   Ar   39   0.338   3.097   3.788
    1   AR   Ar   40   1.289   3.723   1.833
    1   AR   Ar   41   0.670   2.186   3.351
    1   AR   Ar   42   4.826   5.928   5.904
    1   AR   Ar   43   0.107   2.602   5.634
    1   AR   Ar   44   0.476   3.905   3.239
    1   AR   Ar   45   0.934   3.632   5.361
    1   AR   Ar   46   0.348   4.515   6.733
    1   AR   Ar   47   4.017   4.654   7.867
    1   AR   Ar   48   6.894   3.864   7.539
    1   AR   Ar   49   6.911   0.633   0.096
    1   AR   Ar   50   4.036   5.166   0.581
    1   AR   Ar   51   5.904   3.301   2.601
    1   AR   Ar   52   5.228   3.299  -1.183
    1   AR   Ar   53   4.781   0.251   2.764
    1   AR   Ar   54   0.820   0.198   2.217
    1   AR   Ar   55   6.838   4.527   2.506
    1   AR   Ar   56   6.787   1.588   2.812
    1   AR   Ar   57   3.860   4.331   2.025
    1   AR   Ar   58   0.680   3.946   4.375
    1   AR   Ar   59   2.784   5.741   5.576
    1   AR   Ar   60   0.204   5.581   2.849
    1   AR   Ar   61   0.321   3.460   6.472
    1   AR   Ar   62   0.072   4.453   5.107
    1   AR   Ar   63   3.039   2.403   7.363
    1   AR   Ar   64   0.014   5.768   5.007
    1   AR   Ar   65   3.878   0.695   2.333
    1   AR   Ar   66   1.310   0.975   1.221
    1   AR   Ar   67   4.680   0.129  -0.388
    1   AR   Ar   68   0.538   0.809  -1.698
    1   AR   Ar   69   1.933   1.308   0.390
    1   AR   Ar   70   0.378   1.386   1.605
    1   AR   Ar   71   2.923   0.605   3.021
    1   AR   Ar   72   4.434   1.221   1.466
    1   AR   Ar   73   2.952   0.221   4.058
    1   AR   Ar   74   0.943   0.826   4.054
    1   AR   Ar   75   3.234   0.528   5.100
    1   AR   Ar   76   2.429   7.008   1.030
    1   AR   Ar   77   1.883   6.196   5.712
    1   AR   Ar   78   6.848   5.098   5.937
    1   AR   Ar   79   3.355   6.871   5.882
    1   AR   Ar   80   3.856   5.754   5.439
    1   AR   Ar   81   1.508   6.557   1.563
    1   AR   Ar   82   6.225   4.713   0.655
    1   AR   Ar   83   1.146   3.477   0.661
    1   AR   Ar   84   1.067   4.531   1.055
    1   AR   Ar   85   1.422   4.106  -0.072
    1   AR   Ar   86   1.654   5.890   0.784
    1   AR   Ar   87   2.883   3.408   2.443
    1   AR   Ar   88   3.738   5.171   1.528
    1   AR   Ar   89   6.561   1.907   1.123
    1   AR   Ar   90   2.974   1.737   5.404
    1   AR   Ar   91   2.038   1.443   3.179
    1   AR   Ar   92   2.144   3.153   1.737
    1   AR   Ar   93   2.155   1.144   5.501
    1   AR   Ar   94   1.562   6.906   8.679
    1   AR   Ar   95   4.160   1.277   5.148
    1   AR   Ar   96   2.365   7.074   4.910
    1   AR   Ar   97   2.681   2.637  -1.265
    1   AR   Ar   98   1.465   4.494   3.974
    1   AR   Ar   99   5.700   0.495  -0.504
    1   AR   Ar  100   7.020   3.042  -3.142
    1   AR   Ar  101   4.061   6.500   2.610
    1   AR   Ar  102   3.662   1.614   3.058
    1   AR   Ar  103   2.212   4.459   1.033
    1   AR   Ar  104   3.703   6.408  -1.281
    1   AR   Ar  105   2.823   2.008   3.556
    1   AR   Ar  106   3.672   2.476   5.166
    1   AR   Ar  107   0.762   5.245   5.518
    1   AR   Ar  108   2.160   1.200   4.463
    1   AR   Ar  109   1.732   4.362   5.602
    1   AR   Ar  110   2.202   2.311   4.874
    1   AR   Ar  111   3.818   5.901   8.114
    1   AR   Ar  112   6.862   6.169   5.928
    1   AR   Ar  113   1.091   5.956  -1.491
    1   AR   Ar  114   2.406   0.434   0.027
    1   AR   Ar  115   1.056   5.241   0.248
    1   AR   Ar  116   4.856   0.334   0.631
    1   AR   Ar  117   0.319   4.910   3.691
    1   AR   Ar  118   1.669   5.530   3.092
    1   AR   Ar  119   1.835   3.983   2.979
    1   AR   Ar  120   1.772   6.667   2.679
    1   AR   Ar  121   5.676   4.400   6.008
    1   AR   Ar  122   3.162   5.543   4.096
    1   AR   Ar  123   3.495   3.231   5.780
    1   AR   Ar  124   0.568   5.299   1.510
    1   AR   Ar  125   5.958   3.465   4.646
    1   AR   Ar  126   6.637   0.344   7.559
    1   AR   Ar  127   4.372   3.312   6.431
    1   AR   Ar  128   2.019   4.177   6.837
    1   AR   Ar  129   1.893   5.265   5.181
    1   AR   Ar  130   4.135   1.612  -4.890
    1   AR   Ar  131   4.498   5.715  -1.728
    1   AR   Ar  132   0.435   1.778   0.663
    1   AR   Ar  133   4.101   0.267   4.430
    1   AR   Ar  134   3.306   1.192   4.217
    1   AR   Ar  135   5.932   1.561   4.472
    1   AR   Ar  136   5.918   7.079   2.823
    1   AR   Ar  137   2.863   4.215   5.672
    1   AR   Ar  138   5.548   1.192   5.349
    1   AR   Ar  139   6.297   2.272   5.164
    1   AR   Ar  140   4.735   6.506   4.957
    1   AR   Ar  141   4.203   5.739   4.345
    1   AR   Ar  142   4.521   6.673   7.396
    1   AR   Ar  143   5.765   6.518   6.651
    1   AR   Ar  144   0.043   1.592   4.996
    1   AR   Ar  145   4.276   5.180  -0.488
    1   AR   Ar  146   3.658   2.739   2.906
    1   AR   Ar  147   5.148   4.323  -0.524
    1   AR   Ar  148   2.658   6.385  -1.533
    1   AR   Ar  149   0.811   1.109  -0.237
    1   AR   Ar  150   1.809   2.525   2.809
    1   AR   Ar  151   2.722   3.224   3.500
    1   AR   Ar  152   0.836   1.373  -2.524
    1   AR   Ar  153   5.775   0.825   3.602
    1   AR   Ar  154   4.457   2.842   3.895
    1   AR   Ar  155   6.530   3.712   5.771
    1   AR   Ar  156   2.915   4.901   3.347
    1   AR   Ar  157   2.323   5.410   6.722
    1   AR   Ar  158   0.672   1.522   5.888
    1   AR   Ar  159   3.973   0.408   6.521
    1   AR   Ar  160   0.916   0.595   5.154
    1   AR   Ar  161   4.596   4.565   3.406
    1   AR   Ar  162   4.027   6.289  -0.094
    1   AR   Ar  163   5.988   4.382   1.965
    1   AR   Ar  164   1.844   5.673   1.962
    1   AR   Ar  165   3.433   4.243   0.999
    1   AR   Ar  166   2.507   3.345   4.445
    1   AR   Ar  167   6.258   6.827   3.772
    1   AR   Ar  168   5.278   4.183  -2.188
    1   AR   Ar  169   3.838   3.594   3.541
    1   AR   Ar  170   1.938   3.338   6.097
    1   AR   Ar  171   5.052   5.015   4.243
    1   AR   Ar  172   3.636   3.610   4.614
    1   AR   Ar  173   2.158   2.153   6.210
    1   AR   Ar  174   3.389   6.374   4.713
    1   AR   Ar  175   3.084   0.953   6.071
    1   AR   Ar  176   3.253   2.609   4.245
    1   AR   Ar  177   0.529   4.734  -0.699
    1   AR   Ar  178   2.580   6.128   0.413
    1   AR   Ar  179   3.658   0.201   0.783
    1   AR   Ar  180   4.953   0.401  -6.768
    1   AR   Ar  181   6.843   5.815   1.860
    1   AR   Ar  182   0.886   6.119   2.248
    1   AR   Ar  183   4.995   5.599   1.935
    1   AR   Ar  184   4.783   6.316   0.659
    1   AR   Ar  185   2.937   4.631   4.639
    1   AR   Ar  186   3.041   6.074   2.683
    1   AR   Ar  187   3.898   6.472   3.556
    1   AR   Ar  188   3.262   6.935   1.996
    1   AR   Ar  189   6.017   2.893   6.154
    1   AR   Ar  190   2.412   6.435   3.578
    1   AR   Ar  191   3.486   6.033   6.846
    1   AR   Ar  192   4.098   4.058   5.727
    1   AR   Ar  193   2.886   5.965   1.541
    1   AR   Ar  194   5.372   5.169  -1.112
    1   AR   Ar  195   5.452   1.156   0.754
    1   AR   Ar  196   3.516   0.820  -0.258
    1   AR   Ar  197   4.662   2.706   0.646
    1   AR   Ar  198   5.651   0.058   1.282
    1   AR   Ar  199   1.429   0.572   3.040
    1   AR   Ar  200   5.687   2.992   0.016
    1   AR   Ar  201   6.744   6.564   2.637
    1   AR   Ar  202   5.043   0.776   4.356
    1   AR   Ar  203   0.759   6.626   3.233
    1   AR   Ar  204   4.428   5.678   7.079
    1   AR   Ar  205   5.775   1.930   2.035
    1   AR   Ar  206   5.861   0.578   6.445
    1   AR   Ar  207   7.016   3.318   4.852
    1   AR   Ar  208   1.035   5.839   3.970
    1   AR   Ar  209   7.089   2.112  -1.738
    1   AR   Ar  210   1.365   0.280   0.373
    1   AR   Ar  211   0.071   2.812   0.922
    1   AR   Ar  212   6.026   3.908   0.122
    1   AR   Ar  213   3.577   1.869   1.675
    1   AR   Ar  214   4.877   4.555   2.254
    1   AR   Ar  215   6.648   2.622   2.020
    1   AR   Ar  216   1.238   2.371   1.066
    1   AR   Ar  217   4.869   1.521   3.630
    1   AR   Ar  218   4.463   3.159   5.049
    1   AR   Ar  219   4.680   3.452   2.911
    1   AR   Ar  220   4.872   3.795   1.393
    1   AR   Ar  221   0.018   6.006   3.848
    1   AR   Ar  222   5.202   0.254   5.376
    1   AR   Ar  223   6.388   1.690   6.133
    1   AR   Ar  224   4.780   2.236   5.131
    1   AR   Ar  225   6.683   2.641   3.289
    1   AR   Ar  226   1.400   3.214   3.733
    1   AR   Ar  227   0.952   3.040   2.535
    1   AR   Ar  228   6.489   1.043   1.725
    1   AR   Ar  229   6.212   4.053  -1.212
    1   AR   Ar  230   3.945   4.572   4.282
    1   AR   Ar  231   4.889   2.184   2.609
    1   AR   Ar  232   5.386   2.870   1.805
    1   AR   Ar  233   6.549   2.433   4.238
    1   AR   Ar  234   5.502   2.587   4.401
    1   AR   Ar  235   6.841   0.391   3.207
    1   AR   Ar  236   4.472   4.877   5.280
    1   AR   Ar  237   4.873   1.210   6.276
    1   AR   Ar  238   5.920   5.402   6.538
    1   AR   Ar  239   1.006   4.609  11.073
    1   AR   Ar  240   1.179   2.728   6.482
    1   AR   Ar  241   1.625   6.473  -0.106
    1   AR   Ar  242   5.943   5.572   1.480
    1   AR   Ar  243   5.321   6.251   2.490
    1   AR   Ar  244   7.108   5.752   0.587
    1   AR   Ar  245   3.904   0.581   3.388
    1   AR   Ar  246   5.562   6.596  -0.751
    1   AR   Ar  247   0.263   3.596   1.801
    1   AR   Ar  248   5.314   5.575   0.117
    1   AR   Ar  249   4.429   0.084   1.612
    1   AR   Ar  250   5.061   6.546   3.673
    1   AR   Ar  251   5.048   4.145   4.755
    1   AR   Ar  252   2.412   4.351   2.064
    1   AR   Ar  253   5.784   2.398   7.775
    1   AR   Ar  254   6.327   3.527   9.972
    1   AR   Ar  255   4.339   5.995   9.032
    1   AR   Ar  256   5.668   5.592   3.561
    7.12000  7.12000 12.00000
Argon-slab step 4910
  256
    1   AR   Ar    1   5.092   3.025  -2.420
    1   AR   Ar    2   5.812   6.517   0.288
    1   AR   Ar    3   4.191   3.515  -1.082
    1   AR   Ar    4   2.485   0.997   1.303
    1   AR   Ar    5   6.481   5.140  -0.192
    1   AR   Ar    6   1.214   1.977   2.114
    1   AR   Ar    7   5.703   4.535   3.451
    1   AR   Ar    8   6.552   3.130  -1.484
    1   AR   Ar    9   0.388   6.797   4.452
    1   AR   Ar   10   5.529   5.306   5.379
    1   AR   Ar   11   1.215   6.419   4.925
    1   AR   Ar   12   0.095   1.518   3.917
    1   AR   Ar   13   0.029   0.638   4.315
    1   AR   Ar   14   3.857   1.601   6.541
    1   AR   Ar   15   3.139   0.262   9.656
    1   AR   Ar   16   0.921   0.459   6.115
    1   AR   Ar   17   5.956   3.701   1.248
    1   AR   Ar   18   6.932   5.133  -1.453
    1   AR   Ar   19   5.003   4.902   1.165
    1   AR   Ar   20   6.714   4.079  -2.269
    1   AR   Ar   21   2.519   1.534   2.288
    1   AR   Ar   22   5.815   0.961   2.463
    1   AR   Ar   23   0.620   6.638   0.843
    1   AR   Ar   24   5.567   2.618   3.234
    1   AR   Ar   25   0.694   2.564   4.680
    1   AR   Ar   26   5.738   6.957   4.602
    1   AR   Ar   27   1.916   0.309   2.028
    1   AR   Ar   28   1.689   2.218   3.946
    1   AR   Ar   29   4.687   1.167   7.388
    1   AR   Ar   30   0.691   1.249   2.630
    1   AR   Ar   31   2.911   1.093   7.056
    1   AR   Ar   32   1.359   2.598   5.409
    1   AR   Ar   33   0.401   4.071   0.090
    1   AR   Ar   34   1.275   4.737   2.247
    1   AR   Ar   35   5.762   5.298   2.492
    1   AR   Ar   36   5.776   1.924  -2.367
    1   AR   Ar   37   4.048   2.895   1.578
    1   AR   Ar   38   6.625   4.247   4.144
    1   AR   Ar   39   0.324   3.087   3.745
    1   AR   Ar   40   1.306   3.705   1.847
    1   AR   Ar   41   0.712   2.154   3.386
    1   AR   Ar   42   4.828   5.934   5.946
    1   AR   Ar   43   0.114   2.627   5.605
    1   AR   Ar   44   0.473   3.908   3.236
    1   AR   Ar   45   0.957   3.633   5.379
    1   AR   Ar   46   0.318   4.525   6.759
    1   AR   Ar   47   4.020   4.664   7.887
    1   AR   Ar   48   6.913   3.856   7.554
    1   AR   Ar   49   6.910   0.662   0.103
    1   AR   Ar   50   4.057   5.153   0.605
    1   AR   Ar   51   5.890   3.335   2.611
    1   AR   Ar   52   5.229   3.312  -1.186
    1   AR   Ar   53   4.768   0.242   2.770
    1   AR   Ar   54   0.833   0.228   2.198
    1   AR   Ar   55   6.831   4.534   2.492
    1   AR   Ar   56   6.757   1.547   2.831
    1   AR   Ar   57   3.864   4.342   2.022
    1   AR   Ar   58   0.659   3.959   4.393
    1   AR   Ar   59   2.787   5.759   5.589
    1   AR   Ar   60   0.201   5.572   2.879
    1   AR   Ar   61   0.340   3.459   6.518
    1   AR   Ar   62   0.101   4.456   5.105
    1   AR   Ar   63   3.036   2.398   7.342
    1   AR   Ar   64   0.039   5.756   5.005
    1   AR   Ar   65   3.905   0.709   2.318
    1   AR   Ar   66   1.317   0.953   1.218
    1   AR   Ar   67   4.664   0.134  -0.407
    1   AR   Ar   68   0.511   0.833  -1.682
    1   AR   Ar   69   1.934   1.296   0.400
    1   AR   Ar   70   0.376   1.334   1.602
    1   AR   Ar   71   2.943   0.628   3.008
    1   AR   Ar   72   4.451   1.235   1.432
    1   AR   Ar   73   2.967   0.228   4.088
    1   AR   Ar   74   0.948   0.835   4.065
    1   AR   Ar   75   3.215   0.542   5.076
    1   AR   Ar   76   2.436   7.028   1.036
    1   AR   Ar   77   1.887   6.191   5.714
    1   AR   Ar   78   6.873   5.108   5.924
    1   AR   Ar   79   3.310   6.877   5.861
    1   AR   Ar   80   3.895   5.755   5.455
    1   AR   Ar   81   1.496   6.553   1.568
    1   AR   Ar   82   6.232   4.732   0.657
    1   AR   Ar   83   1.139   3.456   0.667
    1   AR   Ar   84   1.079   4.541   1.037
    1   AR   Ar   85   1.431   4.131  -0.080
    1   AR   Ar   86   1.661   5.913   0.786
    1   AR   Ar   87   2.921   3.388   2.466
    1   AR   Ar   88   3.734   5.163   1.477
    1   AR   Ar   89   6.560   1.941   1.129
    1   AR   Ar   90   2.963   1.757   5.416
    1   AR   Ar   91   2.013   1.421   3.167
    1   AR   Ar   92   2.118   3.150   1.732
    1   AR   Ar   93   2.171   1.142   5.491
    1   AR   Ar   94   1.548   6.933   8.649
    1   AR   Ar   95   4.188   1.289   5.164
    1   AR   Ar   96   2.335   7.090   4.902
    1   AR   Ar   97   2.698   2.643  -1.264
    1   AR   Ar   98   1.453   4.484   3.943
    1   AR   Ar   99   5.721   0.523  -0.480
    1   AR   Ar  100   7.000   3.023  -3.128
    1   AR   Ar  101   4.079   6.532   2.585
    1   AR   Ar  102   3.664   1.630   3.018
    1   AR   Ar  103   2.200   4.488   1.013
    1   AR   Ar  104   3.687   6.403  -1.301
    1   AR   Ar  105   2.795   1.996   3.538
    1   AR   Ar  106   3.662   2.471   5.118
    1   AR   Ar  107   0.758   5.263   5.504
    1   AR   Ar  108   2.150   1.213   4.414
    1   AR   Ar  109   1.748   4.377   5.618
    1   AR   Ar  110   2.200   2.316   4.892
    1   AR   Ar  111   3.817   5.889   8.132
    1   AR   Ar  112   6.831   6.193   5.902
    1   AR   Ar  113   1.031   5.959  -1.522
    1   AR   Ar  114   2.412   0.441   0.019
    1   AR   Ar  115   1.045   5.226   0.220
    1   AR   Ar  116   4.845   0.311   0.640
    1   AR   Ar  117   0.343   4.891   3.676
    1   AR   Ar  118   1.683   5.544   3.102
    1   AR   Ar  119   1.826   3.995   2.973
    1   AR   Ar  120   1.821   6.647   2.675
    1   AR   Ar  121   5.656   4.399   6.003
    1   AR   Ar  122   3.123   5.560   4.084
    1   AR   Ar  123   3.481   3.225   5.774
    1   AR   Ar  124   0.573   5.323   1.511
    1   AR   Ar  125   5.957   3.467   4.603
    1   AR   Ar  126   6.646   0.345   7.575
    1   AR   Ar  127   4.389   3.313   6.428
    1   AR   Ar  128   1.990   4.183   6.807
    1   AR   Ar  129   1.906   5.259   5.156
    1   AR   Ar  130   4.133   1.601  -4.883
    1   AR   Ar  131   4.493   5.753  -1.734
    1   AR   Ar  132   0.459   1.740   0.677
    1   AR   Ar  133   4.094   0.228   4.440
    1   AR   Ar  134   3.297   1.198   4.211
    1   AR   Ar  135   5.930   1.540   4.482
    1   AR   Ar  136   5.935   7.039   2.818
    1   AR   Ar  137   2.862   4.193   5.620
    1   AR   Ar  138   5.558   1.171   5.358
    1   AR   Ar  139   6.312   2.289   5.161
    1   AR   Ar  140   4.708   6.508   4.965
    1   AR   Ar  141   4.190   5.735   4.344
    1   AR   Ar  142   4.521   6.629   7.417
    1   AR   Ar  143   5.752   6.533   6.655
    1   AR   Ar  144   0.052   1.619   5.018
    1   AR   Ar  145   4.284   5.192  -0.474
    1   AR   Ar  146   3.635   2.739   2.921
    1   AR   Ar  147   5.136   4.319  -0.527
    1   AR   Ar  148   2.628   6.373  -1.507
    1   AR   Ar  149   0.782   1.179  -0.229
    1   AR   Ar  150   1.809   2.540   2.831
    1   AR   Ar  151   2.706   3.239   3.470
    1   AR   Ar  152   0.828   1.356  -2.541
    1   AR   Ar  153   5.792   0.833   3.625
    1   AR   Ar  154   4.466   2.840   3.873
    1   AR   Ar  155   6.507   3.729   5.722
    1   AR   Ar  156   2.922   4.895   3.337
    1   AR   Ar  157   2.340   5.419   6.733
    1   AR   Ar  158   0.654   1.528   5.899
    1   AR   Ar  159   3.987   0.403   6.526
    1   AR   Ar  160   0.916   0.566   5.161
    1   AR   Ar  161   4.653   4.548   3.381
    1   AR   Ar  162   4.054   6.292  -0.116
    1   AR   Ar  163   5.997   4.389   1.998
    1   AR   Ar  164   1.838   5.699   1.954
    1   AR   Ar  165   3.430   4.257   1.001
    1   AR   Ar  166   2.504   3.379   4.439
    1   AR   Ar  167   6.251   6.829   3.805
    1   AR   Ar  168   5.274   4.186  -2.216
    1   AR   Ar  169   3.851   3.626   3.533
    1   AR   Ar  170   1.938   3.331   6.094
    1   AR   Ar  171   5.063   5.028   4.242
    1   AR   Ar  172   3.618   3.638   4.606
    1   AR   Ar  173   2.174   2.141   6.226
    1   AR   Ar  174   3.377   6.407   4.715
    1   AR   Ar  175   3.114   0.923   6.088
    1   AR   Ar  176   3.247   2.612   4.278
    1   AR   Ar  177   0.509   4.726  -0.708
    1   AR   Ar  178   2.584   6.129   0.412
    1   AR   Ar  179   3.627   0.175   0.790
    1   AR   Ar  180   4.963   0.367  -6.784
    1   AR   Ar  181   6.834   5.824   1.851
    1   AR   Ar  182   0.923   6.113   2.251
    1   AR   Ar  183   4.963   5.594   1.936
    1   AR   Ar  184   4.788   6.322   0.665
    1   AR   Ar  185   2.922   4.615   4.665
    1   AR   Ar  186   3.018   6.065   2.678
    1   AR   Ar  187   3.884   6.488   3.561
    1   AR   Ar  188   3.266   6.938   1.967
    1   AR   Ar  189   6.035   2.867   6.129
    1   AR   Ar  190   2.408   6.468   3.577
    1   AR   Ar  191   3.467   6.048   6.845
    1   AR   Ar  192   4.080   4.032   5.715
    1   AR   Ar  193   2.888   5.941   1.567
    1   AR   Ar  194   5.385   5.143  -1.091
    1   AR   Ar  195   5.443   1.136   0.745
    1   AR   Ar  196   3.523   0.799  -0.272
    1   AR   Ar  197   4.684   2.738   0.648
    1   AR   Ar  198   5.642   0.093   1.280
    1   AR   Ar  199   1.375   0.569   3.010
    1   AR   Ar  200   5.681   2.975   0.021
    1   AR   Ar  201   6.766   6.551   2.660
    1   AR   Ar  202   5.000   0.761   4.342
    1   AR   Ar  203   0.747   6.635   3.253
    1   AR   Ar  204   4.420   5.608   7.117
    1   AR   Ar  205   5.786   1.909   2.051
    1   AR   Ar  206   5.859   0.575   6.452
    1   AR   Ar  207   6.982   3.316   4.866
    1   AR   Ar  208   1.035   5.833   3.947
    1   AR   Ar  209   7.116   2.089  -1.728
    1   AR   Ar  210   1.357   0.306   0.410
    1   AR   Ar  211   0.094   2.848   0.936
    1   AR   Ar  212   6.051   3.898   0.145
    1   AR   Ar  213   3.573   1.863   1.661
    1   AR   Ar  214   4.884   4.556   2.289
    1   AR   Ar  215   6.643   2.608   1.994
    1   AR   Ar  216   1.242   2.384   1.039
    1   AR   Ar  217   4.864   1.525   3.643
    1   AR   Ar  218   4.441   3.201   5.036
    1   AR   Ar  219   4.682   3.466   2.916
    1   AR   Ar  220   4.854   3.802   1.373
    1   AR   Ar  221   0.039   6.031   3.838
    1   AR   Ar  222   5.220   0.238   5.363
    1   AR   Ar  223   6.372   1.682   6.148
    1   AR   Ar  224   4.821   2.214   5.139
    1   AR   Ar  225   6.674   2.625   3.262
    1   AR   Ar  226   1.408   3.234   3.762
    1   AR   Ar  227   0.952   2.989   2.547
    1   AR   Ar  228   6.529   1.008   1.718
    1   AR   Ar  229   6.186   4.059  -1.199
    1   AR   Ar  230   3.978   4.582   4.264
    1   AR   Ar  231   4.893   2.170   2.625
    1   AR   Ar  232   5.381   2.880   1.766
    1   AR   Ar  233   6.536   2.410   4.203
    1   AR   Ar  234   5.513   2.597   4.375
    1   AR   Ar  235   6.850   0.441   3.209
    1   AR   Ar  236   4.445   4.858   5.267
    1   AR   Ar  237   4.836   1.222   6.284
    1   AR   Ar  238   5.960   5.420   6.492
    1   AR   Ar  239   1.002   4.606  11.111
    1   AR   Ar  240   1.179   2.712   6.499
    1   AR   Ar  241   1.621   6.498  -0.109
    1   AR   Ar  242   5.965   5.588   1.480
    1   AR   Ar  243   5.347   6.229   2.511
    1   AR   Ar  244   7.086   5.791   0.616
    1   AR   Ar  245   3.881   0.587   3.384
    1   AR   Ar  246   5.554   6.593  -0.762
    1   AR   Ar  247   0.247   3.576   1.815
    1   AR   Ar  248   5.337   5.570   0.109
    1   AR   Ar  249   4.391   0.055   1.599
    1   AR   Ar  250   5.048   6.542   3.679
    1   AR   Ar  251   5.046   4.150   4.775
    1   AR   Ar  252   2.368   4.340   2.092
    1   AR   Ar  253   5.773   2.404   7.788
    1   AR   Ar  254   6.332   3.558   9.987
    1   AR   Ar  255   4.356   6.010   9.047
    1   AR   Ar  256   5.665   5.613   3.565
    7.12000  7.12000 12.00000
Argon-slab step 4915
  256
    1   AR   Ar    1   5.089   3.037  -2.418
    1   AR   Ar    2   5.761   6.503   0.268
    1   AR   Ar    3   4.223   3.523  -1.084
    1   AR   Ar    4   2.499   0.992   1.309
    1   AR   Ar    5   6.471   5.133  -0.196
    1   AR   Ar    6   1.229   1.963   2.117
    1   AR   Ar    7   5.695   4.563   3.477
    1   AR   Ar    8   6.560   3.166  -1.457
    1   AR   Ar    9   0.376   6.800   4.478
    1   AR   Ar   10   5.540   5.296   5.379
    1   AR   Ar   11   1.201   6.414   4.940
    1   AR   Ar   12   0.106   1.518   3.936
    1   AR   Ar   13   0.024   0.641   4.340
    1   AR   Ar   14   3.842   1.549   6.548
    1   AR   Ar   15   3.118   0.240   9.659
    1   AR   Ar   16   0.923   0.459   6.138
    1   AR   Ar   17   5.967   3.760   1.275
    1   AR   Ar   18   6.971   5.114  -1.437
    1   AR   Ar   19   4.974   4.879   1.174
    1   AR   Ar   20   6.746   4.100  -2.300
    1   AR   Ar   21   2.499   1.521   2.266
    1   AR   Ar   22   5.806   0.935   2.445
    1   AR   Ar   23   0.629   6.645   0.814
    1   AR   Ar   24   5.565   2.628   3.251
    1   AR   Ar   25   0.679   2.604   4.693
    1   AR   Ar   26   5.740   6.952   4.626
    1   AR   Ar   27   1.919   0.302   2.019
    1   AR   Ar   28   1.679   2.217   3.949
    1   AR   Ar   29   4.699   1.163   7.419
    1   AR   Ar   30   0.696   1.223   2.645
    1   AR   Ar   31   2.886   1.103   7.056
    1   AR   Ar   32   1.360   2.604   5.401
    1   AR   Ar   33   0.406   4.094   0.077
    1   AR   Ar   34   1.296   4.760   2.222
    1   AR   Ar   35   5.756   5.300   2.487
    1   AR   Ar   36   5.789   1.919  -2.343
    1   AR   Ar   37   4.050   2.907   1.541
    1   AR   Ar   38   6.611   4.251   4.162
    1   AR   Ar   39   0.310   3.070   3.715
    1   AR   Ar   40   1.318   3.695   1.861
    1   AR   Ar   41   0.758   2.124   3.416
    1   AR   Ar   42   4.831   5.941   5.991
    1   AR   Ar   43   0.123   2.650   5.581
    1   AR   Ar   44   0.472   3.921   3.224
    1   AR   Ar   45   0.978   3.632   5.399
    1   AR   Ar   46   0.289   4.535   6.783
    1   AR   Ar   47   4.022   4.676   7.906
    1   AR   Ar   48   6.934   3.849   7.568
    1   AR   Ar   49   6.910   0.692   0.111
    1   AR   Ar   50   4.090   5.140   0.600
    1   AR   Ar   51   5.880   3.377   2.617
    1   AR   Ar   52   5.234   3.326  -1.191
    1   AR   Ar   53   4.758   0.232   2.778
    1   AR   Ar   54   0.844   0.255   2.175
    1   AR   Ar   55   6.836   4.543   2.485
    1   AR   Ar   56   6.726   1.507   2.850
    1   AR   Ar   57   3.868   4.342   2.024
    1   AR   Ar   58   0.659   3.937   4.356
    1   AR   Ar   59   2.798   5.775   5.601
    1   AR   Ar   60   0.199   5.564   2.905
    1   AR   Ar   61   0.358   3.457   6.562
    1   AR   Ar   62   0.139   4.461   5.098
    1   AR   Ar   63   3.033   2.391   7.318
    1   AR   Ar   64   0.059   5.747   4.995
    1   AR   Ar   65   3.930   0.726   2.302
    1   AR   Ar   66   1.323   0.933   1.220
    1   AR   Ar   67   4.646   0.138  -0.425
    1   AR   Ar   68   0.483   0.855  -1.664
    1   AR   Ar   69   1.945   1.315   0.407
    1   AR   Ar   70   0.377   1.283   1.603
    1   AR   Ar   71   2.955   0.652   2.992
    1   AR   Ar   72   4.469   1.247   1.398
    1   AR   Ar   73   2.982   0.230   4.113
    1   AR   Ar   74   0.969   0.846   4.071
    1   AR   Ar   75   3.198   0.558   5.053
    1   AR   Ar   76   2.442   7.048   1.042
    1   AR   Ar   77   1.887   6.150   5.684
    1   AR   Ar   78   6.897   5.115   5.911
    1   AR   Ar   79   3.264   6.882   5.839
    1   AR   Ar   80   3.932   5.758   5.469
    1   AR   Ar   81   1.485   6.566   1.566
    1   AR   Ar   82   6.235   4.753   0.679
    1   AR   Ar   83   1.150   3.436   0.680
    1   AR   Ar   84   1.100   4.556   1.033
    1   AR   Ar   85   1.444   4.159  -0.089
    1   AR   Ar   86   1.666   5.870   0.815
    1   AR   Ar   87   2.958   3.372   2.483
    1   AR   Ar   88   3.719   5.167   1.451
    1   AR   Ar   89   6.559   1.974   1.135
    1   AR   Ar   90   2.957   1.778   5.428
    1   AR   Ar   91   1.981   1.397   3.160
    1   AR   Ar   92   2.100   3.141   1.726
    1   AR   Ar   93   2.181   1.134   5.484
    1   AR   Ar   94   1.534   6.960   8.619
    1   AR   Ar   95   4.216   1.301   5.180
    1   AR   Ar   96   2.303   7.103   4.896
    1   AR   Ar   97   2.715   2.650  -1.263
    1   AR   Ar   98   1.443   4.477   3.911
    1   AR   Ar   99   5.742   0.552  -0.454
    1   AR   Ar  100   6.979   3.006  -3.113
    1   AR   Ar  101   4.099   6.564   2.549
    1   AR   Ar  102   3.668   1.644   2.977
    1   AR   Ar  103   2.187   4.517   0.992
    1   AR   Ar  104   3.674   6.397  -1.319
    1   AR   Ar  105   2.767   1.986   3.520
    1   AR   Ar  106   3.666   2.458   5.086
    1   AR   Ar  107   0.763   5.277   5.495
    1   AR   Ar  108   2.141   1.226   4.362
    1   AR   Ar  109   1.763   4.384   5.637
    1   AR   Ar  110   2.204   2.320   4.907
    1   AR   Ar  111   3.818   5.886   8.140
    1   AR   Ar  112   6.798   6.219   5.879
    1   AR   Ar  113   0.969   5.963  -1.552
    1   AR   Ar  114   2.420   0.445   0.011
    1   AR   Ar  115   1.031   5.210   0.190
    1   AR   Ar  116   4.828   0.285   0.646
    1   AR   Ar  117   0.368   4.871   3.665
    1   AR   Ar  118   1.698   5.558   3.110
    1   AR   Ar  119   1.815   4.006   2.968
    1   AR   Ar  120   1.867   6.621   2.674
    1   AR   Ar  121   5.635   4.398   5.996
    1   AR   Ar  122   3.085   5.582   4.076
    1   AR   Ar  123   3.458   3.219   5.744
    1   AR   Ar  124   0.580   5.349   1.513
    1   AR   Ar  125   5.958   3.476   4.562
    1   AR   Ar  126   6.654   0.345   7.589
    1   AR   Ar  127   4.407   3.312   6.425
    1   AR   Ar  128   1.961   4.191   6.775
    1   AR   Ar  129   1.935   5.257   5.116
    1   AR   Ar  130   4.131   1.589  -4.876
    1   AR   Ar  131   4.488   5.790  -1.739
    1   AR   Ar  132   0.484   1.703   0.685
    1   AR   Ar  133   4.083   0.187   4.450
    1   AR   Ar  134   3.313   1.198   4.220
    1   AR   Ar  135   5.930   1.521   4.485
    1   AR   Ar  136   5.940   7.010   2.815
    1   AR   Ar  137   2.861   4.169   5.571
    1   AR   Ar  138   5.583   1.161   5.378
    1   AR   Ar  139   6.312   2.287   5.156
    1   AR   Ar  140   4.680   6.508   4.971
    1   AR   Ar  141   4.178   5.731   4.344
    1   AR   Ar  142   4.521   6.588   7.437
    1   AR   Ar  143   5.749   6.535   6.644
    1   AR   Ar  144   0.060   1.647   5.037
    1   AR   Ar  145   4.294   5.206  -0.460
    1   AR   Ar  146   3.614   2.737   2.937
    1   AR   Ar  147   5.124   4.310  -0.528
    1   AR   Ar  148   2.596   6.361  -1.481
    1   AR   Ar  149   0.754   1.247  -0.220
    1   AR   Ar  150   1.817   2.552   2.858
    1   AR   Ar  151   2.692   3.252   3.435
    1   AR   Ar  152   0.821   1.341  -2.560
    1   AR   Ar  153   5.812   0.839   3.646
    1   AR   Ar  154   4.477   2.835   3.853
    1   AR   Ar  155   6.486   3.748   5.673
    1   AR   Ar  156   2.927   4.884   3.323
    1   AR   Ar  157   2.358   5.428   6.741
    1   AR   Ar  158   0.630   1.538   5.906
    1   AR   Ar  159   4.002   0.400   6.532
    1   AR   Ar  160   0.916   0.540   5.148
    1   AR   Ar  161   4.704   4.530   3.354
    1   AR   Ar  162   4.080   6.294  -0.140
    1   AR   Ar  163   5.994   4.397   2.027
    1   AR   Ar  164   1.839   5.715   1.948
    1   AR   Ar  165   3.426   4.258   1.023
    1   AR   Ar  166   2.498   3.414   4.444
    1   AR   Ar  167   6.256   6.829   3.823
    1   AR   Ar  168   5.271   4.188  -2.241
    1   AR   Ar  169   3.852   3.629   3.523
    1   AR   Ar  170   1.939   3.325   6.087
    1   AR   Ar  171   5.074   5.046   4.242
    1   AR   Ar  172   3.595   3.666   4.599
    1   AR   Ar  173   2.190   2.130   6.239
    1   AR   Ar  174   3.365   6.443   4.718
    1   AR   Ar  175   3.145   0.891   6.097
    1   AR   Ar  176   3.232   2.618   4.291
    1   AR   Ar  177   0.489   4.721  -0.717
    1   AR   Ar  178   2.593   6.131   0.410
    1   AR   Ar  179   3.591   0.179   0.808
    1   AR   Ar  180   4.974   0.334  -6.800
    1   AR   Ar  181   6.837   5.837   1.849
    1   AR   Ar  182   0.950   6.104   2.261
    1   AR   Ar  183   4.913   5.576   1.920
    1   AR   Ar  184   4.792   6.328   0.674
    1   AR   Ar  185   2.908   4.599   4.687
    1   AR   Ar  186   2.994   6.055   2.674
    1   AR   Ar  187   3.867   6.507   3.578
    1   AR   Ar  188   3.258   6.949   1.955
    1   AR   Ar  189   6.053   2.838   6.104
    1   AR   Ar  190   2.404   6.500   3.577
    1   AR   Ar  191   3.447   6.063   6.842
    1   AR   Ar  192   4.062   4.007   5.702
    1   AR   Ar  193   2.889   5.917   1.591
    1   AR   Ar  194   5.399   5.121  -1.072
    1   AR   Ar  195   5.437   1.119   0.739
    1   AR   Ar  196   3.530   0.777  -0.286
    1   AR   Ar  197   4.707   2.772   0.651
    1   AR   Ar  198   5.635   0.127   1.279
    1   AR   Ar  199   1.326   0.562   2.986
    1   AR   Ar  200   5.670   2.950   0.025
    1   AR   Ar  201   6.802   6.531   2.683
    1   AR   Ar  202   4.978   0.751   4.343
    1   AR   Ar  203   0.736   6.645   3.271
    1   AR   Ar  204   4.413   5.536   7.155
    1   AR   Ar  205   5.801   1.891   2.066
    1   AR   Ar  206   5.856   0.572   6.459
    1   AR   Ar  207   6.950   3.315   4.874
    1   AR   Ar  208   1.037   5.832   3.926
    1   AR   Ar  209   0.023   2.066  -1.718
    1   AR   Ar  210   1.349   0.332   0.443
    1   AR   Ar  211   0.118   2.884   0.952
    1   AR   Ar  212   6.077   3.889   0.162
    1   AR   Ar  213   3.568   1.856   1.649
    1   AR   Ar  214   4.895   4.556   2.323
    1   AR   Ar  215   6.639   2.595   1.969
    1   AR   Ar  216   1.247   2.398   1.013
    1   AR   Ar  217   4.860   1.534   3.653
    1   AR   Ar  218   4.466   3.217   5.027
    1   AR   Ar  219   4.688   3.478   2.919
    1   AR   Ar  220   4.835   3.809   1.354
    1   AR   Ar  221   0.054   6.052   3.855
    1   AR   Ar  222   5.230   0.217   5.358
    1   AR   Ar  223   6.355   1.675   6.161
    1   AR   Ar  224   4.862   2.188   5.147
    1   AR   Ar  225   6.663   2.608   3.217
    1   AR   Ar  226   1.416   3.255   3.789
    1   AR   Ar  227   0.945   2.940   2.560
    1   AR   Ar  228   6.566   0.972   1.710
    1   AR   Ar  229   6.173   4.045  -1.202
    1   AR   Ar  230   4.012   4.594   4.246
    1   AR   Ar  231   4.908   2.185   2.634
    1   AR   Ar  232   5.374   2.890   1.725
    1   AR   Ar  233   6.529   2.386   4.171
    1   AR   Ar  234   5.518   2.600   4.347
    1   AR   Ar  235   6.861   0.492   3.210
    1   AR   Ar  236   4.421   4.847   5.251
    1   AR   Ar  237   4.838   1.222   6.300
    1   AR   Ar  238   5.999   5.438   6.443
    1   AR   Ar  239   0.998   4.603  11.148
    1   AR   Ar  240   1.176   2.695   6.516
    1   AR   Ar  241   1.618   6.523  -0.111
    1   AR   Ar  242   5.974   5.600   1.472
    1   AR   Ar  243   5.379   6.230   2.550
    1   AR   Ar  244   7.064   5.826   0.646
    1   AR   Ar  245   3.865   0.591   3.386
    1   AR   Ar  246   5.544   6.589  -0.774
    1   AR   Ar  247   0.228   3.556   1.829
    1   AR   Ar  248   5.348   5.574   0.094
    1   AR   Ar  249   4.354   0.025   1.587
    1   AR   Ar  250   5.034   6.540   3.685
    1   AR   Ar  251   5.044   4.148   4.796
    1   AR   Ar  252   2.325   4.328   2.119
    1   AR   Ar  253   5.761   2.410   7.800
    1   AR   Ar  254   6.338   3.588  10.003
    1   AR   Ar  255   4.374   6.026   9.063
    1   AR   Ar  256   5.664   5.637   3.567
    7.12000  7.12000 12.00000
Argon-slab step 4920
  256
    1   AR   Ar    1   5.087   3.049  -2.414
    1   AR   Ar    2   5.714   6.495   0.250
    1   AR   Ar    3   4.250   3.532  -1.086
    1   AR   Ar    4   2.513   0.985   1.316
    1   AR   Ar    5   6.462   5.128  -0.212
    1   AR   Ar    6   1.246   1.950   2.117
    1   AR   Ar    7   5.698   4.590   3.501
    1   AR   Ar    8   6.572   3.193  -1.434
    1   AR   Ar    9   0.364   6.804   4.504
    1   AR   Ar   10   5.541   5.289   5.382
    1   AR   Ar   11   1.190   6.407   4.955
    1   AR   Ar   12   0.114   1.531   3.950
    1   AR   Ar   13   0.006   0.632   4.372
    1   AR   Ar   14   3.825   1.499   6.557
    1   AR   Ar   15   3.096   0.217   9.662
    1   AR   Ar   16   0.926   0.459   6.170
    1   AR   Ar   17   5.978   3.812   1.294
    1   AR   Ar   18   7.015   5.089  -1.417
    1   AR   Ar   19   4.952   4.864   1.180
    1   AR   Ar   20   6.772   4.116  -2.326
    1   AR   Ar   21   2.482   1.508   2.244
    1   AR   Ar   22   5.794   0.903   2.432
    1   AR   Ar   23   0.641   6.653   0.786
    1   AR   Ar   24   5.556   2.617   3.243
    1   AR   Ar   25   0.658   2.643   4.692
    1   AR   Ar   26   5.739   6.944   4.652
    1   AR   Ar   27   1.925   0.302   2.007
    1   AR   Ar   28   1.676   2.242   3.957
    1   AR   Ar   29   4.710   1.158   7.449
    1   AR   Ar   30   0.668   1.208   2.667
    1   AR   Ar   31   2.861   1.116   7.061
    1   AR   Ar   32   1.365   2.610   5.406
    1   AR   Ar   33   0.407   4.113   0.071
    1   AR   Ar   34   1.315   4.784   2.197
    1   AR   Ar   35   5.755   5.296   2.487
    1   AR   Ar   36   5.752   1.895  -2.343
    1   AR   Ar   37   4.053   2.920   1.505
    1   AR   Ar   38   6.599   4.255   4.180
    1   AR   Ar   39   0.298   3.047   3.694
    1   AR   Ar   40   1.318   3.697   1.876
    1   AR   Ar   41   0.806   2.096   3.440
    1   AR   Ar   42   4.837   5.949   6.037
    1   AR   Ar   43   0.134   2.670   5.566
    1   AR   Ar   44   0.475   3.939   3.205
    1   AR   Ar   45   0.997   3.631   5.418
    1   AR   Ar   46   0.259   4.546   6.806
    1   AR   Ar   47   4.010   4.615   7.904
    1   AR   Ar   48   6.955   3.841   7.580
    1   AR   Ar   49   6.910   0.723   0.119
    1   AR   Ar   50   4.135   5.127   0.568
    1   AR   Ar   51   5.870   3.404   2.622
    1   AR   Ar   52   5.245   3.341  -1.196
    1   AR   Ar   53   4.754   0.223   2.788
    1   AR   Ar   54   0.849   0.276   2.142
    1   AR   Ar   55   6.856   4.556   2.486
    1   AR   Ar   56   6.707   1.490   2.853
    1   AR   Ar   57   3.874   4.335   2.031
    1   AR   Ar   58   0.658   3.911   4.318
    1   AR   Ar   59   2.807   5.778   5.607
    1   AR   Ar   60   0.192   5.553   2.922
    1   AR   Ar   61   0.376   3.455   6.604
    1   AR   Ar   62   0.175   4.466   5.092
    1   AR   Ar   63   3.030   2.382   7.294
    1   AR   Ar   64   0.072   5.743   4.976
    1   AR   Ar   65   3.951   0.744   2.285
    1   AR   Ar   66   1.330   0.919   1.234
    1   AR   Ar   67   4.629   0.140  -0.444
    1   AR   Ar   68   0.454   0.878  -1.644
    1   AR   Ar   69   1.961   1.353   0.413
    1   AR   Ar   70   0.387   1.234   1.610
    1   AR   Ar   71   2.957   0.677   2.972
    1   AR   Ar   72   4.473   1.218   1.383
    1   AR   Ar   73   2.997   0.226   4.128
    1   AR   Ar   74   1.000   0.859   4.074
    1   AR   Ar   75   3.184   0.577   5.039
    1   AR   Ar   76   2.447   7.066   1.050
    1   AR   Ar   77   1.880   6.115   5.657
    1   AR   Ar   78   6.920   5.121   5.898
    1   AR   Ar   79   3.219   6.885   5.816
    1   AR   Ar   80   3.955   5.738   5.477
    1   AR   Ar   81   1.469   6.573   1.550
    1   AR   Ar   82   6.247   4.761   0.698
    1   AR   Ar   83   1.160   3.418   0.696
    1   AR   Ar   84   1.118   4.569   1.050
    1   AR   Ar   85   1.459   4.190  -0.098
    1   AR   Ar   86   1.669   5.824   0.845
    1   AR   Ar   87   2.993   3.362   2.488
    1   AR   Ar   88   3.693   5.182   1.452
    1   AR   Ar   89   6.558   2.003   1.138
    1   AR   Ar   90   2.956   1.800   5.441
    1   AR   Ar   91   1.945   1.373   3.156
    1   AR   Ar   92   2.094   3.123   1.720
    1   AR   Ar   93   2.186   1.121   5.476
    1   AR   Ar   94   1.519   6.987   8.589
    1   AR   Ar   95   4.242   1.311   5.196
    1   AR   Ar   96   2.267   7.115   4.892
    1   AR   Ar   97   2.732   2.656  -1.261
    1   AR   Ar   98   1.434   4.471   3.876
    1   AR   Ar   99   5.788   0.558  -0.448
    1   AR   Ar  100   6.958   2.988  -3.097
    1   AR   Ar  101   4.105   6.575   2.516
    1   AR   Ar  102   3.672   1.655   2.936
    1   AR   Ar  103   2.163   4.512   0.959
    1   AR   Ar  104   3.662   6.392  -1.335
    1   AR   Ar  105   2.740   1.979   3.504
    1   AR   Ar  106   3.692   2.437   5.080
    1   AR   Ar  107   0.780   5.286   5.491
    1   AR   Ar  108   2.133   1.240   4.309
    1   AR   Ar  109   1.777   4.387   5.660
    1   AR   Ar  110   2.213   2.323   4.918
    1   AR   Ar  111   3.822   5.889   8.141
    1   AR   Ar  112   6.762   6.246   5.858
    1   AR   Ar  113   0.908   5.965  -1.581
    1   AR   Ar  114   2.429   0.446   0.004
    1   AR   Ar  115   1.015   5.194   0.159
    1   AR   Ar  116   4.805   0.258   0.649
    1   AR   Ar  117   0.394   4.852   3.658
    1   AR   Ar  118   1.714   5.572   3.116
    1   AR   Ar  119   1.802   4.013   2.965
    1   AR   Ar  120   1.911   6.592   2.672
    1   AR   Ar  121   5.615   4.396   5.990
    1   AR   Ar  122   3.048   5.607   4.071
    1   AR   Ar  123   3.452   3.214   5.768
    1   AR   Ar  124   0.590   5.376   1.515
    1   AR   Ar  125   5.961   3.492   4.523
    1   AR   Ar  126   6.661   0.346   7.603
    1   AR   Ar  127   4.426   3.310   6.422
    1   AR   Ar  128   1.933   4.199   6.742
    1   AR   Ar  129   1.965   5.258   5.071
    1   AR   Ar  130   4.129   1.577  -4.869
    1   AR   Ar  131   4.484   5.826  -1.742
    1   AR   Ar  132   0.506   1.670   0.691
    1   AR   Ar  133   4.070   0.145   4.460
    1   AR   Ar  134   3.332   1.206   4.228
    1   AR   Ar  135   5.930   1.502   4.483
    1   AR   Ar  136   5.941   6.996   2.815
    1   AR   Ar  137   2.860   4.138   5.534
    1   AR   Ar  138   5.609   1.158   5.403
    1   AR   Ar  139   6.308   2.285   5.158
    1   AR   Ar  140   4.651   6.506   4.977
    1   AR   Ar  141   4.166   5.727   4.345
    1   AR   Ar  142   4.520   6.547   7.456
    1   AR   Ar  143   5.746   6.537   6.632
    1   AR   Ar  144   0.067   1.675   5.053
    1   AR   Ar  145   4.307   5.220  -0.448
    1   AR   Ar  146   3.598   2.730   2.957
    1   AR   Ar  147   5.110   4.295  -0.525
    1   AR   Ar  148   2.581   6.338  -1.479
    1   AR   Ar  149   0.728   1.313  -0.213
    1   AR   Ar  150   1.834   2.560   2.890
    1   AR   Ar  151   2.675   3.261   3.406
    1   AR   Ar  152   0.814   1.328  -2.580
    1   AR   Ar  153   5.833   0.844   3.663
    1   AR   Ar  154   4.490   2.828   3.834
    1   AR   Ar  155   6.484   3.748   5.642
    1   AR   Ar  156   2.931   4.870   3.306
    1   AR   Ar  157   2.376   5.436   6.748
    1   AR   Ar  158   0.604   1.550   5.914
    1   AR   Ar  159   4.050   0.398   6.498
    1   AR   Ar  160   0.915   0.515   5.122
    1   AR   Ar  161   4.745   4.509   3.328
    1   AR   Ar  162   4.106   6.296  -0.164
    1   AR   Ar  163   5.976   4.407   2.056
    1   AR   Ar  164   1.848   5.721   1.945
    1   AR   Ar  165   3.420   4.253   1.049
    1   AR   Ar  166   2.490   3.451   4.454
    1   AR   Ar  167   6.273   6.825   3.826
    1   AR   Ar  168   5.269   4.189  -2.265
    1   AR   Ar  169   3.848   3.636   3.515
    1   AR   Ar  170   1.942   3.319   6.078
    1   AR   Ar  171   5.082   5.067   4.244
    1   AR   Ar  172   3.586   3.670   4.589
    1   AR   Ar  173   2.205   2.118   6.250
    1   AR   Ar  174   3.354   6.482   4.722
    1   AR   Ar  175   3.175   0.856   6.097
    1   AR   Ar  176   3.201   2.631   4.273
    1   AR   Ar  177   0.473   4.719  -0.728
    1   AR   Ar  178   2.606   6.135   0.407
    1   AR   Ar  179   3.568   0.154   0.800
    1   AR   Ar  180   4.984   0.300  -6.817
    1   AR   Ar  181   6.851   5.854   1.853
    1   AR   Ar  182   0.966   6.092   2.281
    1   AR   Ar  183   4.856   5.558   1.900
    1   AR   Ar  184   4.794   6.334   0.687
    1   AR   Ar  185   2.894   4.590   4.697
    1   AR   Ar  186   2.970   6.047   2.672
    1   AR   Ar  187   3.848   6.526   3.600
    1   AR   Ar  188   3.250   6.960   1.943
    1   AR   Ar  189   6.072   2.808   6.078
    1   AR   Ar  190   2.388   6.534   3.583
    1   AR   Ar  191   3.428   6.079   6.838
    1   AR   Ar  192   4.048   3.988   5.687
    1   AR   Ar  193   2.888   5.894   1.614
    1   AR   Ar  194   5.415   5.105  -1.055
    1   AR   Ar  195   5.435   1.105   0.733
    1   AR   Ar  196   3.527   0.764  -0.291
    1   AR   Ar  197   4.731   2.806   0.655
    1   AR   Ar  198   5.631   0.161   1.282
    1   AR   Ar  199   1.291   0.545   2.975
    1   AR   Ar  200   5.657   2.921   0.028
    1   AR   Ar  201   6.847   6.508   2.707
    1   AR   Ar  202   4.959   0.740   4.348
    1   AR   Ar  203   0.726   6.657   3.285
    1   AR   Ar  204   4.406   5.463   7.192
    1   AR   Ar  205   5.816   1.876   2.079
    1   AR   Ar  206   5.852   0.570   6.464
    1   AR   Ar  207   6.930   3.313   4.869
    1   AR   Ar  208   1.029   5.862   3.904
    1   AR   Ar  209   0.050   2.042  -1.709
    1   AR   Ar  210   1.339   0.355   0.458
    1   AR   Ar  211   0.120   2.888   0.930
    1   AR   Ar  212   6.104   3.881   0.175
    1   AR   Ar  213   3.563   1.849   1.638
    1   AR   Ar  214   4.908   4.554   2.354
    1   AR   Ar  215   6.636   2.587   1.948
    1   AR   Ar  216   1.252   2.411   0.989
    1   AR   Ar  217   4.855   1.545   3.660
    1   AR   Ar  218   4.505   3.224   5.020
    1   AR   Ar  219   4.698   3.489   2.919
    1   AR   Ar  220   4.815   3.816   1.337
    1   AR   Ar  221   0.058   6.071   3.871
    1   AR   Ar  222   5.229   0.198   5.365
    1   AR   Ar  223   6.339   1.667   6.172
    1   AR   Ar  224   4.905   2.162   5.155
    1   AR   Ar  225   6.659   2.606   3.179
    1   AR   Ar  226   1.454   3.274   3.776
    1   AR   Ar  227   0.938   2.926   2.572
    1   AR   Ar  228   6.593   0.933   1.701
    1   AR   Ar  229   6.153   4.042  -1.203
    1   AR   Ar  230   4.046   4.608   4.227
    1   AR   Ar  231   4.916   2.197   2.638
    1   AR   Ar  232   5.372   2.891   1.706
    1   AR   Ar  233   6.527   2.362   4.143
    1   AR   Ar  234   5.546   2.588   4.372
    1   AR   Ar  235   6.872   0.542   3.213
    1   AR   Ar  236   4.399   4.843   5.232
    1   AR   Ar  237   4.868   1.211   6.319
    1   AR   Ar  238   6.037   5.457   6.393
    1   AR   Ar  239   0.994   4.600  11.186
    1   AR   Ar  240   1.173   2.676   6.531
    1   AR   Ar  241   1.615   6.548  -0.113
    1   AR   Ar  242   5.968   5.608   1.455
    1   AR   Ar  243   5.405   6.237   2.593
    1   AR   Ar  244   7.041   5.859   0.677
    1   AR   Ar  245   3.858   0.593   3.395
    1   AR   Ar  246   5.532   6.585  -0.786
    1   AR   Ar  247   0.208   3.536   1.844
    1   AR   Ar  248   5.347   5.584   0.078
    1   AR   Ar  249   4.319   7.114   1.577
    1   AR   Ar  250   5.020   6.540   3.690
    1   AR   Ar  251   5.045   4.141   4.817
    1   AR   Ar  252   2.283   4.316   2.142
    1   AR   Ar  253   5.750   2.416   7.812
    1   AR   Ar  254   6.343   3.619  10.019
    1   AR   Ar  255   4.392   6.042   9.080
    1   AR   Ar  256   5.664   5.665   3.567
    7.12000  7.12000 12.00000
Argon-slab step 4925
  256
    1   AR   Ar    1   5.076   3.067  -2.453
    1   AR   Ar    2   5.675   6.497   0.236
    1   AR   Ar    3   4.273   3.543  -1.087
    1   AR   Ar    4   2.527   0.979   1.321
    1   AR   Ar    5   6.452   5.124  -0.237
    1   AR   Ar    6   1.264   1.936   2.116
    1   AR   Ar    7   5.717   4.614   3.526
    1   AR   Ar    8   6.589   3.207  -1.415
    1   AR   Ar    9   0.350   6.809   4.531
    1   AR   Ar   10   5.535   5.285   5.384
    1   AR   Ar   11   1.179   6.398   4.968
    1   AR   Ar   12   0.118   1.549   3.960
    1   AR   Ar   13   7.102   0.620   4.408
    1   AR   Ar   14   3.812   1.453   6.569
    1   AR   Ar   15   3.075   0.195   9.665
    1   AR   Ar   16   0.929   0.459   6.206
    1   AR   Ar   17   5.989   3.852   1.300
    1   AR   Ar   18   7.049   5.070  -1.409
    1   AR   Ar   19   4.949   4.886   1.184
    1   AR   Ar   20   6.780   4.110  -2.329
    1   AR   Ar   21   2.470   1.494   2.227
    1   AR   Ar   22   5.782   0.867   2.423
    1   AR   Ar   23   0.655   6.662   0.759
    1   AR   Ar   24   5.554   2.609   3.247
    1   AR   Ar   25   0.635   2.683   4.678
    1   AR   Ar   26   5.742   6.930   4.671
    1   AR   Ar   27   1.935   0.306   1.994
    1   AR   Ar   28   1.699   2.249   3.984
    1   AR   Ar   29   4.719   1.145   7.478
    1   AR   Ar   30   0.627   1.206   2.687
    1   AR   Ar   31   2.836   1.131   7.069
    1   AR   Ar   32   1.369   2.615   5.421
    1   AR   Ar   33   0.405   4.127   0.075
    1   AR   Ar   34   1.333   4.809   2.173
    1   AR   Ar   35   5.756   5.290   2.491
    1   AR   Ar   36   5.715   1.873  -2.342
    1   AR   Ar   37   4.057   2.933   1.472
    1   AR   Ar   38   6.591   4.260   4.197
    1   AR   Ar   39   0.291   3.022   3.680
    1   AR   Ar   40   1.308   3.708   1.892
    1   AR   Ar   41   0.853   2.069   3.458
    1   AR   Ar   42   4.835   5.954   6.076
    1   AR   Ar   43   0.146   2.685   5.565
    1   AR   Ar   44   0.460   3.932   3.196
    1   AR   Ar   45   1.014   3.629   5.437
    1   AR   Ar   46   0.228   4.558   6.828
    1   AR   Ar   47   3.998   4.556   7.903
    1   AR   Ar   48   6.976   3.833   7.591
    1   AR   Ar   49   6.910   0.754   0.128
    1   AR   Ar   50   4.159   5.134   0.582
    1   AR   Ar   51   5.861   3.421   2.627
    1   AR   Ar   52   5.263   3.355  -1.202
    1   AR   Ar   53   4.754   0.215   2.799
    1   AR   Ar   54   0.847   0.291   2.097
    1   AR   Ar   55   6.886   4.571   2.493
    1   AR   Ar   56   6.705   1.511   2.833
    1   AR   Ar   57   3.877   4.325   2.047
    1   AR   Ar   58   0.654   3.881   4.280
    1   AR   Ar   59   2.769   5.747   5.594
    1   AR   Ar   60   0.180   5.538   2.927
    1   AR   Ar   61   0.393   3.453   6.644
    1   AR   Ar   62   0.209   4.470   5.087
    1   AR   Ar   63   3.027   2.373   7.267
    1   AR   Ar   64   0.078   5.745   4.948
    1   AR   Ar   65   3.970   0.764   2.268
    1   AR   Ar   66   1.340   0.917   1.264
    1   AR   Ar   67   4.613   0.142  -0.462
    1   AR   Ar   68   0.424   0.902  -1.623
    1   AR   Ar   69   1.943   1.326   0.409
    1   AR   Ar   70   0.411   1.190   1.622
    1   AR   Ar   71   2.951   0.704   2.948
    1   AR   Ar   72   4.473   1.178   1.373
    1   AR   Ar   73   3.009   0.215   4.131
    1   AR   Ar   74   1.034   0.873   4.074
    1   AR   Ar   75   3.172   0.598   5.037
    1   AR   Ar   76   2.434   7.064   1.056
    1   AR   Ar   77   1.865   6.086   5.638
    1   AR   Ar   78   6.942   5.126   5.885
    1   AR   Ar   79   3.174   6.887   5.792
    1   AR   Ar   80   3.967   5.707   5.481
    1   AR   Ar   81   1.444   6.560   1.520
    1   AR   Ar   82   6.255   4.766   0.724
    1   AR   Ar   83   1.147   3.422   0.698
    1   AR   Ar   84   1.134   4.580   1.068
    1   AR   Ar   85   1.476   4.222  -0.105
    1   AR   Ar   86   1.669   5.775   0.873
    1   AR   Ar   87   3.025   3.361   2.474
    1   AR   Ar   88   3.664   5.202   1.465
    1   AR   Ar   89   6.556   2.026   1.135
    1   AR   Ar   90   2.960   1.820   5.456
    1   AR   Ar   91   1.906   1.349   3.154
    1   AR   Ar   92   2.099   3.096   1.713
    1   AR   Ar   93   2.187   1.104   5.468
    1   AR   Ar   94   1.505   7.014   8.559
    1   AR   Ar   95   4.266   1.318   5.212
    1   AR   Ar   96   2.241   0.008   4.896
    1   AR   Ar   97   2.749   2.663  -1.259
    1   AR   Ar   98   1.427   4.467   3.841
    1   AR   Ar   99   5.846   0.545  -0.429
    1   AR   Ar  100   6.936   2.971  -3.080
    1   AR   Ar  101   4.088   6.552   2.494
    1   AR   Ar  102   3.676   1.663   2.894
    1   AR   Ar  103   2.142   4.506   0.925
    1   AR   Ar  104   3.650   6.387  -1.349
    1   AR   Ar  105   2.714   1.973   3.487
    1   AR   Ar  106   3.732   2.413   5.086
    1   AR   Ar  107   0.777   5.287   5.506
    1   AR   Ar  108   2.126   1.254   4.256
    1   AR   Ar  109   1.791   4.389   5.683
    1   AR   Ar  110   2.226   2.326   4.924
    1   AR   Ar  111   3.826   5.891   8.139
    1   AR   Ar  112   6.726   6.272   5.837
    1   AR   Ar  113   0.858   5.967  -1.605
    1   AR   Ar  114   2.438   0.445  -0.002
    1   AR   Ar  115   0.999   5.180   0.128
    1   AR   Ar  116   4.778   0.233   0.649
    1   AR   Ar  117   0.420   4.836   3.659
    1   AR   Ar  118   1.730   5.586   3.119
    1   AR   Ar  119   1.784   4.016   2.968
    1   AR   Ar  120   1.929   6.586   2.685
    1   AR   Ar  121   5.595   4.394   5.983
    1   AR   Ar  122   3.011   5.634   4.068
    1   AR   Ar  123   3.439   3.200   5.792
    1   AR   Ar  124   0.604   5.404   1.515
    1   AR   Ar  125   5.961   3.512   4.486
    1   AR   Ar  126   6.668   0.346   7.616
    1   AR   Ar  127   4.444   3.305   6.419
    1   AR   Ar  128   1.958   4.214   6.752
    1   AR   Ar  129   1.996   5.257   5.022
    1   AR   Ar  130   4.127   1.566  -4.863
    1   AR   Ar  131   4.482   5.860  -1.745
    1   AR   Ar  132   0.527   1.642   0.701
    1   AR   Ar  133   4.055   0.105   4.468
    1   AR   Ar  134   3.353   1.221   4.232
    1   AR   Ar  135   5.932   1.486   4.479
    1   AR   Ar  136   5.946   7.001   2.821
    1   AR   Ar  137   2.859   4.096   5.515
    1   AR   Ar  138   5.634   1.159   5.433
    1   AR   Ar  139   6.301   2.285   5.164
    1   AR   Ar  140   4.621   6.502   4.981
    1   AR   Ar  141   4.153   5.722   4.346
    1   AR   Ar  142   4.518   6.506   7.475
    1   AR   Ar  143   5.742   6.538   6.619
    1   AR   Ar  144   0.071   1.703   5.061
    1   AR   Ar  145   4.323   5.235  -0.441
    1   AR   Ar  146   3.588   2.718   2.983
    1   AR   Ar  147   5.096   4.274  -0.518
    1   AR   Ar  148   2.576   6.309  -1.494
    1   AR   Ar  149   0.704   1.374  -0.214
    1   AR   Ar  150   1.858   2.567   2.924
    1   AR   Ar  151   2.653   3.267   3.389
    1   AR   Ar  152   0.806   1.315  -2.600
    1   AR   Ar  153   5.855   0.845   3.677
    1   AR   Ar  154   4.503   2.819   3.815
    1   AR   Ar  155   6.493   3.738   5.627
    1   AR   Ar  156   2.934   4.854   3.287
    1   AR   Ar  157   2.395   5.445   6.753
    1   AR   Ar  158   0.581   1.562   5.925
    1   AR   Ar  159   4.101   0.395   6.465
    1   AR   Ar  160   0.916   0.496   5.101
    1   AR   Ar  161   4.768   4.488   3.313
    1   AR   Ar  162   4.132   6.298  -0.189
    1   AR   Ar  163   5.950   4.420   2.089
    1   AR   Ar  164   1.866   5.718   1.943
    1   AR   Ar  165   3.400   4.253   1.052
    1   AR   Ar  166   2.480   3.488   4.466
    1   AR   Ar  167   6.297   6.820   3.819
    1   AR   Ar  168   5.267   4.189  -2.287
    1   AR   Ar  169   3.840   3.645   3.509
    1   AR   Ar  170   1.945   3.314   6.066
    1   AR   Ar  171   5.088   5.089   4.250
    1   AR   Ar  172   3.600   3.642   4.574
    1   AR   Ar  173   2.221   2.107   6.260
    1   AR   Ar  174   3.342   6.519   4.727
    1   AR   Ar  175   3.200   0.819   6.090
    1   AR   Ar  176   3.161   2.648   4.238
    1   AR   Ar  177   0.467   4.716  -0.733
    1   AR   Ar  178   2.620   6.140   0.404
    1   AR   Ar  179   3.544   0.129   0.791
    1   AR   Ar  180   4.995   0.267  -6.833
    1   AR   Ar  181   6.870   5.874   1.863
    1   AR   Ar  182   0.971   6.080   2.311
    1   AR   Ar  183   4.866   5.534   1.891
    1   AR   Ar  184   4.791   6.334   0.704
    1   AR   Ar  185   2.913   4.570   4.692
    1   AR   Ar  186   2.945   6.040   2.672
    1   AR   Ar  187   3.829   6.546   3.623
    1   AR   Ar  188   3.258   6.966   1.943
    1   AR   Ar  189   6.091   2.777   6.053
    1   AR   Ar  190   2.365   6.569   3.595
    1   AR   Ar  191   3.409   6.094   6.834
    1   AR   Ar  192   4.038   3.977   5.670
    1   AR   Ar  193   2.886   5.874   1.633
    1   AR   Ar  194   5.432   5.095  -1.040
    1   AR   Ar  195   5.435   1.094   0.728
    1   AR   Ar  196   3.524   0.750  -0.295
    1   AR   Ar  197   4.757   2.841   0.660
    1   AR   Ar  198   5.629   0.193   1.287
    1   AR   Ar  199   1.273   0.517   2.981
    1   AR   Ar  200   5.643   2.891   0.031
    1   AR   Ar  201   6.851   6.531   2.684
    1   AR   Ar  202   4.943   0.727   4.356
    1   AR   Ar  203   0.715   6.674   3.295
    1   AR   Ar  204   4.398   5.391   7.229
    1   AR   Ar  205   5.833   1.866   2.090
    1   AR   Ar  206   5.847   0.569   6.468
    1   AR   Ar  207   6.943   3.303   4.839
    1   AR   Ar  208   1.031   5.886   3.886
    1   AR   Ar  209   0.076   2.018  -1.700
    1   AR   Ar  210   1.330   0.368   0.459
    1   AR   Ar  211   0.111   2.885   0.885
    1   AR   Ar  212   6.129   3.877   0.180
    1   AR   Ar  213   3.557   1.841   1.630
    1   AR   Ar  214   4.925   4.552   2.372
    1   AR   Ar  215   6.634   2.586   1.936
    1   AR   Ar  216   1.257   2.421   0.969
    1   AR   Ar  217   4.850   1.559   3.665
    1   AR   Ar  218   4.543   3.229   5.012
    1   AR   Ar  219   4.713   3.498   2.916
    1   AR   Ar  220   4.795   3.820   1.321
    1   AR   Ar  221   0.046   6.083   3.856
    1   AR   Ar  222   5.215   0.186   5.390
    1   AR   Ar  223   6.322   1.660   6.181
    1   AR   Ar  224   4.949   2.135   5.163
    1   AR   Ar  225   6.655   2.644   3.163
    1   AR   Ar  226   1.491   3.295   3.762
    1   AR   Ar  227   0.927   2.922   2.584
    1   AR   Ar  228   6.605   0.891   1.694
    1   AR   Ar  229   6.127   4.053  -1.199
    1   AR   Ar  230   4.080   4.621   4.207
    1   AR   Ar  231   4.912   2.204   2.634
    1   AR   Ar  232   5.378   2.879   1.717
    1   AR   Ar  233   6.530   2.337   4.119
    1   AR   Ar  234   5.573   2.568   4.410
    1   AR   Ar  235   6.884   0.586   3.218
    1   AR   Ar  236   4.380   4.843   5.211
    1   AR   Ar  237   4.898   1.200   6.337
    1   AR   Ar  238   6.073   5.477   6.343
    1   AR   Ar  239   0.990   4.596  11.223
    1   AR   Ar  240   1.169   2.657   6.545
    1   AR   Ar  241   1.613   6.573  -0.112
    1   AR   Ar  242   5.952   5.612   1.434
    1   AR   Ar  243   5.416   6.235   2.633
    1   AR   Ar  244   7.015   5.889   0.708
    1   AR   Ar  245   3.860   0.594   3.409
    1   AR   Ar  246   5.519   6.581  -0.799
    1   AR   Ar  247   0.187   3.516   1.861
    1   AR   Ar  248   5.365   5.566   0.044
    1   AR   Ar  249   4.285   7.082   1.567
    1   AR   Ar  250   5.007   6.535   3.707
    1   AR   Ar  251   5.048   4.132   4.837
    1   AR   Ar  252   2.248   4.306   2.157
    1   AR   Ar  253   5.763   2.431   7.821
    1   AR   Ar  254   6.327   3.612  10.031
    1   AR   Ar  255   4.411   6.058   9.096
    1   AR   Ar  256   5.651   5.625   3.567
    7.12000  7.12000 12.00000
Argon-slab step 4930
  256
    1   AR   Ar    1   5.064   3.088  -2.503
    1   AR   Ar    2   5.645   6.510   0.224
    1   AR   Ar    3   4.289   3.556  -1.087
    1   AR   Ar    4   2.541   0.972   1.323
    1   AR   Ar    5   6.443   5.120  -0.267
    1   AR   Ar    6   1.283   1.922   2.116
    1   AR   Ar    7   5.751   4.631   3.551
    1   AR   Ar    8   6.612   3.211  -1.399
    1   AR   Ar    9   0.337   6.811   4.558
    1   AR   Ar   10   5.527   5.283   5.385
    1   AR   Ar   11   1.168   6.388   4.975
    1   AR   Ar   12   0.120   1.567   3.968
    1   AR   Ar   13   7.073   0.612   4.445
    1   AR   Ar   14   3.804   1.414   6.584
    1   AR   Ar   15   3.054   0.173   9.668
    1   AR   Ar   16   0.931   0.460   6.242
    1   AR   Ar   17   5.998   3.882   1.294
    1   AR   Ar   18   7.065   5.062  -1.421
    1   AR   Ar   19   4.953   4.896   1.178
    1   AR   Ar   20   6.787   4.104  -2.331
    1   AR   Ar   21   2.445   1.491   2.219
    1   AR   Ar   22   5.768   0.830   2.416
    1   AR   Ar   23   0.671   6.670   0.732
    1   AR   Ar   24   5.560   2.605   3.263
    1   AR   Ar   25   0.616   2.718   4.653
    1   AR   Ar   26   5.749   6.911   4.682
    1   AR   Ar   27   1.945   0.312   1.982
    1   AR   Ar   28   1.727   2.257   4.014
    1   AR   Ar   29   4.716   1.097   7.512
    1   AR   Ar   30   0.580   1.212   2.706
    1   AR   Ar   31   2.810   1.147   7.077
    1   AR   Ar   32   1.372   2.619   5.441
    1   AR   Ar   33   0.402   4.137   0.087
    1   AR   Ar   34   1.346   4.836   2.150
    1   AR   Ar   35   5.759   5.289   2.502
    1   AR   Ar   36   5.678   1.851  -2.342
    1   AR   Ar   37   4.059   2.947   1.441
    1   AR   Ar   38   6.589   4.270   4.212
    1   AR   Ar   39   0.291   2.998   3.674
    1   AR   Ar   40   1.293   3.725   1.910
    1   AR   Ar   41   0.892   2.047   3.462
    1   AR   Ar   42   4.799   5.955   6.084
    1   AR   Ar   43   0.158   2.696   5.577
    1   AR   Ar   44   0.432   3.905   3.191
    1   AR   Ar   45   1.027   3.628   5.456
    1   AR   Ar   46   0.198   4.569   6.848
    1   AR   Ar   47   3.986   4.497   7.901
    1   AR   Ar   48   6.997   3.825   7.601
    1   AR   Ar   49   6.910   0.786   0.138
    1   AR   Ar   50   4.176   5.146   0.606
    1   AR   Ar   51   5.852   3.439   2.629
    1   AR   Ar   52   5.290   3.368  -1.209
    1   AR   Ar   53   4.758   0.208   2.813
    1   AR   Ar   54   0.841   0.302   2.045
    1   AR   Ar   55   6.922   4.587   2.503
    1   AR   Ar   56   6.700   1.540   2.810
    1   AR   Ar   57   3.879   4.314   2.069
    1   AR   Ar   58   0.649   3.849   4.244
    1   AR   Ar   59   2.749   5.711   5.581
    1   AR   Ar   60   0.169   5.525   2.928
    1   AR   Ar   61   0.410   3.450   6.682
    1   AR   Ar   62   0.241   4.471   5.080
    1   AR   Ar   63   3.024   2.360   7.249
    1   AR   Ar   64   0.079   5.751   4.915
    1   AR   Ar   65   3.986   0.783   2.251
    1   AR   Ar   66   1.355   0.921   1.305
    1   AR   Ar   67   4.597   0.144  -0.479
    1   AR   Ar   68   0.394   0.926  -1.602
    1   AR   Ar   69   1.924   1.300   0.406
    1   AR   Ar   70   0.443   1.151   1.638
    1   AR   Ar   71   2.939   0.733   2.921
    1   AR   Ar   72   4.474   1.136   1.362
    1   AR   Ar   73   3.019   0.200   4.120
    1   AR   Ar   74   1.069   0.889   4.071
    1   AR   Ar   75   3.162   0.620   5.045
    1   AR   Ar   76   2.429   7.068   1.055
    1   AR   Ar   77   1.839   6.063   5.627
    1   AR   Ar   78   6.963   5.129   5.872
    1   AR   Ar   79   3.168   6.899   5.804
    1   AR   Ar   80   3.971   5.685   5.486
    1   AR   Ar   81   1.418   6.557   1.488
    1   AR   Ar   82   6.255   4.771   0.757
    1   AR   Ar   83   1.133   3.432   0.699
    1   AR   Ar   84   1.145   4.589   1.085
    1   AR   Ar   85   1.493   4.254  -0.112
    1   AR   Ar   86   1.669   5.722   0.898
    1   AR   Ar   87   3.055   3.369   2.445
    1   AR   Ar   88   3.636   5.225   1.483
    1   AR   Ar   89   6.554   2.040   1.122
    1   AR   Ar   90   2.974   1.797   5.460
    1   AR   Ar   91   1.865   1.328   3.153
    1   AR   Ar   92   2.108   3.066   1.706
    1   AR   Ar   93   2.187   1.085   5.459
    1   AR   Ar   94   1.501   7.039   8.540
    1   AR   Ar   95   4.288   1.323   5.228
    1   AR   Ar   96   2.251   0.025   4.914
    1   AR   Ar   97   2.767   2.670  -1.258
    1   AR   Ar   98   1.421   4.466   3.808
    1   AR   Ar   99   5.868   0.518  -0.427
    1   AR   Ar  100   6.914   2.954  -3.062
    1   AR   Ar  101   4.070   6.526   2.474
    1   AR   Ar  102   3.680   1.668   2.853
    1   AR   Ar  103   2.127   4.500   0.893
    1   AR   Ar  104   3.638   6.384  -1.361
    1   AR   Ar  105   2.689   1.969   3.471
    1   AR   Ar  106   3.778   2.389   5.093
    1   AR   Ar  107   0.766   5.282   5.533
    1   AR   Ar  108   2.121   1.268   4.204
    1   AR   Ar  109   1.788   4.391   5.685
    1   AR   Ar  110   2.219   2.311   4.925
    1   AR   Ar  111   3.830   5.893   8.136
    1   AR   Ar  112   6.689   6.298   5.816
    1   AR   Ar  113   0.855   5.968  -1.610
    1   AR   Ar  114   2.447   0.442  -0.005
    1   AR   Ar  115   0.982   5.166   0.099
    1   AR   Ar  116   4.748   0.213   0.645
    1   AR   Ar  117   0.445   4.824   3.666
    1   AR   Ar  118   1.746   5.599   3.119
    1   AR   Ar  119   1.761   4.011   2.978
    1   AR   Ar  120   1.927   6.597   2.702
    1   AR   Ar  121   5.574   4.391   5.975
    1   AR   Ar  122   2.978   5.645   4.067
    1   AR   Ar  123   3.419   3.176   5.818
    1   AR   Ar  124   0.622   5.431   1.514
    1   AR   Ar  125   5.957   3.534   4.451
    1   AR   Ar  126   6.675   0.346   7.627
    1   AR   Ar  127   4.463   3.300   6.416
    1   AR   Ar  128   1.982   4.221   6.759
    1   AR   Ar  129   2.025   5.252   4.968
    1   AR   Ar  130   4.125   1.554  -4.856
    1   AR   Ar  131   4.483   5.893  -1.747
    1   AR   Ar  132   0.531   1.647   0.723
    1   AR   Ar  133   4.041   0.070   4.474
    1   AR   Ar  134   3.365   1.243   4.220
    1   AR   Ar  135   5.934   1.474   4.475
    1   AR   Ar  136   5.959   7.026   2.831
    1   AR   Ar  137   2.857   4.043   5.513
    1   AR   Ar  138   5.651   1.163   5.461
    1   AR   Ar  139   6.294   2.283   5.168
    1   AR   Ar  140   4.592   6.494   4.987
    1   AR   Ar  141   4.140   5.718   4.347
    1   AR   Ar  142   4.514   6.478   7.489
    1   AR   Ar  143   5.737   6.540   6.604
    1   AR   Ar  144   0.073   1.731   5.062
    1   AR   Ar  145   4.342   5.250  -0.438
    1   AR   Ar  146   3.584   2.701   3.015
    1   AR   Ar  147   5.080   4.249  -0.508
    1   AR   Ar  148   2.570   6.280  -1.508
    1   AR   Ar  149   0.684   1.429  -0.229
    1   AR   Ar  150   1.885   2.571   2.959
    1   AR   Ar  151   2.627   3.272   3.382
    1   AR   Ar  152   0.798   1.302  -2.619
    1   AR   Ar  153   5.852   0.848   3.664
    1   AR   Ar  154   4.517   2.809   3.798
    1   AR   Ar  155   6.499   3.731   5.617
    1   AR   Ar  156   2.937   4.838   3.267
    1   AR   Ar  157   2.415   5.454   6.757
    1   AR   Ar  158   0.562   1.575   5.942
    1   AR   Ar  159   4.153   0.391   6.432
    1   AR   Ar  160   0.927   0.505   5.115
    1   AR   Ar  161   4.775   4.465   3.315
    1   AR   Ar  162   4.158   6.300  -0.214
    1   AR   Ar  163   5.922   4.428   2.125
    1   AR   Ar  164   1.889   5.710   1.944
    1   AR   Ar  165   3.370   4.257   1.040
    1   AR   Ar  166   2.470   3.526   4.479
    1   AR   Ar  167   6.325   6.815   3.808
    1   AR   Ar  168   5.281   4.177  -2.298
    1   AR   Ar  169   3.829   3.657   3.503
    1   AR   Ar  170   1.949   3.308   6.053
    1   AR   Ar  171   5.091   5.109   4.262
    1   AR   Ar  172   3.613   3.613   4.562
    1   AR   Ar  173   2.236   2.097   6.269
    1   AR   Ar  174   3.328   6.550   4.735
    1   AR   Ar  175   3.217   0.780   6.077
    1   AR   Ar  176   3.120   2.665   4.199
    1   AR   Ar  177   0.478   4.708  -0.723
    1   AR   Ar  178   2.633   6.147   0.403
    1   AR   Ar  179   3.519   0.104   0.781
    1   AR   Ar  180   4.986   0.279  -6.842
    1   AR   Ar  181   6.890   5.894   1.874
    1   AR   Ar  182   0.969   6.069   2.348
    1   AR   Ar  183   4.874   5.523   1.895
    1   AR   Ar  184   4.783   6.327   0.725
    1   AR   Ar  185   2.904   4.592   4.649
    1   AR   Ar  186   2.920   6.034   2.677
    1   AR   Ar  187   3.808   6.567   3.646
    1   AR   Ar  188   3.268   6.971   1.947
    1   AR   Ar  189   6.110   2.749   6.030
    1   AR   Ar  190   2.346   6.604   3.614
    1   AR   Ar  191   3.392   6.109   6.829
    1   AR   Ar  192   4.033   3.976   5.653
    1   AR   Ar  193   2.881   5.865   1.643
    1   AR   Ar  194   5.452   5.089  -1.027
    1   AR   Ar  195   5.435   1.085   0.723
    1   AR   Ar  196   3.513   0.741  -0.269
    1   AR   Ar  197   4.784   2.877   0.666
    1   AR   Ar  198   5.629   0.224   1.296
    1   AR   Ar  199   1.265   0.479   2.998
    1   AR   Ar  200   5.630   2.861   0.032
    1   AR   Ar  201   6.850   6.558   2.665
    1   AR   Ar  202   4.928   0.713   4.366
    1   AR   Ar  203   0.706   6.696   3.300
    1   AR   Ar  204   4.388   5.320   7.265
    1   AR   Ar  205   5.850   1.857   2.100
    1   AR   Ar  206   5.841   0.568   6.471
    1   AR   Ar  207   6.955   3.296   4.797
    1   AR   Ar  208   1.040   5.906   3.873
    1   AR   Ar  209   0.103   1.994  -1.691
    1   AR   Ar  210   1.322   0.373   0.448
    1   AR   Ar  211   0.103   2.883   0.842
    1   AR   Ar  212   6.155   3.862   0.182
    1   AR   Ar  213   3.551   1.832   1.623
    1   AR   Ar  214   4.943   4.549   2.371
    1   AR   Ar  215   6.634   2.594   1.935
    1   AR   Ar  216   1.267   2.428   0.945
    1   AR   Ar  217   4.847   1.597   3.659
    1   AR   Ar  218   4.580   3.230   5.004
    1   AR   Ar  219   4.730   3.504   2.909
    1   AR   Ar  220   4.775   3.823   1.307
    1   AR   Ar  221   0.022   6.093   3.840
    1   AR   Ar  222   5.190   0.179   5.428
    1   AR   Ar  223   6.305   1.652   6.188
    1   AR   Ar  224   4.993   2.109   5.173
    1   AR   Ar  225   6.644   2.687   3.137
    1   AR   Ar  226   1.527   3.317   3.747
    1   AR   Ar  227   0.919   2.926   2.595
    1   AR   Ar  228   6.602   0.844   1.688
    1   AR   Ar  229   6.094   4.076  -1.193
    1   AR   Ar  230   4.111   4.632   4.186
    1   AR   Ar  231   4.899   2.206   2.622
    1   AR   Ar  232   5.384   2.868   1.729
    1   AR   Ar  233   6.539   2.312   4.099
    1   AR   Ar  234   5.591   2.545   4.446
    1   AR   Ar  235   6.897   0.623   3.226
    1   AR   Ar  236   4.366   4.841   5.187
    1   AR   Ar  237   4.929   1.188   6.353
    1   AR   Ar  238   6.073   5.500   6.326
    1   AR   Ar  239   0.986   4.593  11.261
    1   AR   Ar  240   1.166   2.637   6.557
    1   AR   Ar  241   1.612   6.598  -0.109
    1   AR   Ar  242   5.932   5.615   1.410
    1   AR   Ar  243   5.412   6.223   2.670
    1   AR   Ar  244   6.989   5.916   0.741
    1   AR   Ar  245   3.868   0.593   3.427
    1   AR   Ar  246   5.504   6.576  -0.815
    1   AR   Ar  247   0.167   3.495   1.878
    1   AR   Ar  248   5.379   5.539   0.008
    1   AR   Ar  249   4.254   7.051   1.559
    1   AR   Ar  250   4.993   6.531   3.724
    1   AR   Ar  251   5.056   4.124   4.855
    1   AR   Ar  252   2.222   4.297   2.159
    1   AR   Ar  253   5.793   2.451   7.827
    1   AR   Ar  254   6.307   3.585  10.043
    1   AR   Ar  255   4.429   6.074   9.113
    1   AR   Ar  256   5.640   5.597   3.564
    7.12000  7.12000 12.00000
Argon-slab step 4935
  256
    1   AR   Ar    1   5.048   3.119  -2.538
    1   AR   Ar    2   5.622   6.531   0.214
    1   AR   Ar    3   4.301   3.571  -1.085
    1   AR   Ar    4   2.556   0.964   1.321
    1   AR   Ar    5   6.434   5.145  -0.276
    1   AR   Ar    6   1.302   1.907   2.115
    1   AR   Ar    7   5.794   4.632   3.575
    1   AR   Ar    8   6.636   3.211  -1.385
    1   AR   Ar    9   0.322   6.810   4.584
    1   AR   Ar   10   5.517   5.282   5.383
    1   AR   Ar   11   1.152   6.374   4.968
    1   AR   Ar   12   0.128   1.573   3.983
    1   AR   Ar   13   7.041   0.612   4.480
    1   AR   Ar   14   3.801   1.381   6.604
    1   AR   Ar   15   3.033   0.150   9.670
    1   AR   Ar   16   0.934   0.462   6.277
    1   AR   Ar   17   6.003   3.881   1.311
    1   AR   Ar   18   7.067   5.062  -1.451
    1   AR   Ar   19   4.969   4.891   1.164
    1   AR   Ar   20   6.793   4.097  -2.332
    1   AR   Ar   21   2.399   1.504   2.223
    1   AR   Ar   22   5.753   0.795   2.408
    1   AR   Ar   23   0.686   6.678   0.705
    1   AR   Ar   24   5.570   2.603   3.286
    1   AR   Ar   25   0.611   2.746   4.622
    1   AR   Ar   26   5.757   6.889   4.688
    1   AR   Ar   27   1.957   0.319   1.973
    1   AR   Ar   28   1.757   2.266   4.042
    1   AR   Ar   29   4.714   1.049   7.543
    1   AR   Ar   30   0.534   1.221   2.726
    1   AR   Ar   31   2.786   1.165   7.083
    1   AR   Ar   32   1.371   2.621   5.464
    1   AR   Ar   33   0.398   4.141   0.110
    1   AR   Ar   34   1.352   4.862   2.129
    1   AR   Ar   35   5.763   5.300   2.520
    1   AR   Ar   36   5.640   1.831  -2.341
    1   AR   Ar   37   4.060   2.962   1.414
    1   AR   Ar   38   6.595   4.286   4.225
    1   AR   Ar   39   0.294   3.007   3.688
    1   AR   Ar   40   1.288   3.734   1.901
    1   AR   Ar   41   0.918   2.030   3.450
    1   AR   Ar   42   4.811   5.969   6.098
    1   AR   Ar   43   0.170   2.706   5.598
    1   AR   Ar   44   0.406   3.877   3.178
    1   AR   Ar   45   1.038   3.628   5.473
    1   AR   Ar   46   0.167   4.581   6.866
    1   AR   Ar   47   3.974   4.439   7.899
    1   AR   Ar   48   7.018   3.816   7.612
    1   AR   Ar   49   6.910   0.819   0.149
    1   AR   Ar   50   4.188   5.162   0.622
    1   AR   Ar   51   5.844   3.458   2.630
    1   AR   Ar   52   5.321   3.380  -1.218
    1   AR   Ar   53   4.764   0.200   2.827
    1   AR   Ar   54   0.836   0.305   1.994
    1   AR   Ar   55   6.959   4.603   2.513
    1   AR   Ar   56   6.691   1.574   2.785
    1   AR   Ar   57   3.881   4.300   2.091
    1   AR   Ar   58   0.643   3.816   4.211
    1   AR   Ar   59   2.746   5.672   5.568
    1   AR   Ar   60   0.158   5.516   2.926
    1   AR   Ar   61   0.427   3.448   6.718
    1   AR   Ar   62   0.272   4.470   5.072
    1   AR   Ar   63   3.021   2.345   7.235
    1   AR   Ar   64   0.071   5.750   4.888
    1   AR   Ar   65   4.000   0.801   2.237
    1   AR   Ar   66   1.379   0.930   1.348
    1   AR   Ar   67   4.582   0.145  -0.495
    1   AR   Ar   68   0.364   0.950  -1.580
    1   AR   Ar   69   1.904   1.276   0.405
    1   AR   Ar   70   0.470   1.121   1.656
    1   AR   Ar   71   2.925   0.762   2.893
    1   AR   Ar   72   4.476   1.093   1.350
    1   AR   Ar   73   3.027   0.187   4.100
    1   AR   Ar   74   1.102   0.905   4.067
    1   AR   Ar   75   3.153   0.643   5.057
    1   AR   Ar   76   2.435   7.069   1.053
    1   AR   Ar   77   1.807   6.044   5.625
    1   AR   Ar   78   6.975   5.130   5.862
    1   AR   Ar   79   3.162   6.906   5.813
    1   AR   Ar   80   3.967   5.676   5.492
    1   AR   Ar   81   1.393   6.559   1.458
    1   AR   Ar   82   6.254   4.779   0.792
    1   AR   Ar   83   1.118   3.448   0.701
    1   AR   Ar   84   1.149   4.596   1.103
    1   AR   Ar   85   1.505   4.278  -0.118
    1   AR   Ar   86   1.668   5.667   0.919
    1   AR   Ar   87   3.083   3.382   2.407
    1   AR   Ar   88   3.613   5.243   1.504
    1   AR   Ar   89   6.552   2.044   1.101
    1   AR   Ar   90   2.991   1.771   5.467
    1   AR   Ar   91   1.904   1.333   3.156
    1   AR   Ar   92   2.118   3.034   1.700
    1   AR   Ar   93   2.185   1.065   5.449
    1   AR   Ar   94   1.512   7.061   8.538
    1   AR   Ar   95   4.308   1.324   5.245
    1   AR   Ar   96   2.254   0.027   4.913
    1   AR   Ar   97   2.784   2.677  -1.256
    1   AR   Ar   98   1.447   4.457   3.815
    1   AR   Ar   99   5.868   0.482  -0.439
    1   AR   Ar  100   6.892   2.938  -3.044
    1   AR   Ar  101   4.054   6.498   2.457
    1   AR   Ar  102   3.683   1.669   2.812
    1   AR   Ar  103   2.119   4.494   0.859
    1   AR   Ar  104   3.625   6.382  -1.369
    1   AR   Ar  105   2.666   1.964   3.455
    1   AR   Ar  106   3.827   2.367   5.099
    1   AR   Ar  107   0.771   5.280   5.560
    1   AR   Ar  108   2.122   1.277   4.173
    1   AR   Ar  109   1.775   4.393   5.672
    1   AR   Ar  110   2.215   2.303   4.918
    1   AR   Ar  111   3.835   5.893   8.132
    1   AR   Ar  112   6.652   6.322   5.795
    1   AR   Ar  113   0.851   5.967  -1.615
    1   AR   Ar  114   2.456   0.436  -0.007
    1   AR   Ar  115   0.965   5.155   0.074
    1   AR   Ar  116   4.717   0.201   0.637
    1   AR   Ar  117   0.459   4.818   3.674
    1   AR   Ar  118   1.764   5.610   3.118
    1   AR   Ar  119   1.734   4.001   2.989
    1   AR   Ar  120   1.919   6.608   2.711
    1   AR   Ar  121   5.555   4.386   5.967
    1   AR   Ar  122   2.949   5.632   4.068
    1   AR   Ar  123   3.396   3.146   5.844
    1   AR   Ar  124   0.644   5.458   1.511
    1   AR   Ar  125   5.948   3.550   4.419
    1   AR   Ar  126   6.681   0.347   7.639
    1   AR   Ar  127   4.482   3.295   6.411
    1   AR   Ar  128   1.999   4.199   6.756
    1   AR   Ar  129   2.053   5.244   4.911
    1   AR   Ar  130   4.106   1.528  -4.861
    1   AR   Ar  131   4.486   5.924  -1.748
    1   AR   Ar  132   0.525   1.673   0.754
    1   AR   Ar  133   4.033   0.048   4.477
    1   AR   Ar  134   3.363   1.269   4.185
    1   AR   Ar  135   5.936   1.465   4.474
    1   AR   Ar  136   5.973   7.062   2.846
    1   AR   Ar  137   2.854   3.988   5.516
    1   AR   Ar  138   5.640   1.173   5.471
    1   AR   Ar  139   6.289   2.277   5.168
    1   AR   Ar  140   4.567   6.482   4.995
    1   AR   Ar  141   4.126   5.715   4.348
    1   AR   Ar  142   4.509   6.471   7.498
    1   AR   Ar  143   5.716   6.547   6.602
    1   AR   Ar  144   0.073   1.758   5.056
    1   AR   Ar  145   4.364   5.264  -0.439
    1   AR   Ar  146   3.582   2.682   3.053
    1   AR   Ar  147   5.064   4.221  -0.497
    1   AR   Ar  148   2.562   6.250  -1.522
    1   AR   Ar  149   0.666   1.482  -0.254
    1   AR   Ar  150   1.912   2.574   2.994
    1   AR   Ar  151   2.638   3.288   3.366
    1   AR   Ar  152   0.790   1.290  -2.638
    1   AR   Ar  153   5.831   0.850   3.633
    1   AR   Ar  154   4.532   2.798   3.780
    1   AR   Ar  155   6.504   3.727   5.610
    1   AR   Ar  156   2.922   4.822   3.254
    1   AR   Ar  157   2.434   5.462   6.758
    1   AR   Ar  158   0.546   1.587   5.964
    1   AR   Ar  159   4.171   0.379   6.400
    1   AR   Ar  160   0.937   0.514   5.127
    1   AR   Ar  161   4.772   4.444   3.336
    1   AR   Ar  162   4.184   6.302  -0.239
    1   AR   Ar  163   5.902   4.423   2.158
    1   AR   Ar  164   1.915   5.701   1.948
    1   AR   Ar  165   3.341   4.261   1.029
    1   AR   Ar  166   2.458   3.564   4.493
    1   AR   Ar  167   6.356   6.811   3.796
    1   AR   Ar  168   5.296   4.165  -2.307
    1   AR   Ar  169   3.803   3.642   3.462
    1   AR   Ar  170   1.954   3.303   6.040
    1   AR   Ar  171   5.088   5.127   4.281
    1   AR   Ar  172   3.626   3.586   4.553
    1   AR   Ar  173   2.250   2.088   6.276
    1   AR   Ar  174   3.309   6.570   4.748
    1   AR   Ar  175   3.228   0.742   6.062
    1   AR   Ar  176   3.079   2.682   4.160
    1   AR   Ar  177   0.502   4.695  -0.706
    1   AR   Ar  178   2.646   6.154   0.403
    1   AR   Ar  179   3.494   0.080   0.770
    1   AR   Ar  180   4.976   0.291  -6.851
    1   AR   Ar  181   6.908   5.913   1.884
    1   AR   Ar  182   0.968   6.065   2.376
    1   AR   Ar  183   4.880   5.527   1.912
    1   AR   Ar  184   4.768   6.310   0.751
    1   AR   Ar  185   2.887   4.599   4.622
    1   AR   Ar  186   2.894   6.029   2.685
    1   AR   Ar  187   3.786   6.587   3.668
    1   AR   Ar  188   3.279   6.985   1.942
    1   AR   Ar  189   6.129   2.725   6.014
    1   AR   Ar  190   2.332   6.636   3.641
    1   AR   Ar  191   3.375   6.124   6.823
    1   AR   Ar  192   4.027   3.992   5.641
    1   AR   Ar  193   2.866   5.890   1.622
    1   AR   Ar  194   5.460   5.096  -1.008
    1   AR   Ar  195   5.436   1.079   0.716
    1   AR   Ar  196   3.500   0.733  -0.236
    1   AR   Ar  197   4.811   2.913   0.673
    1   AR   Ar  198   5.630   0.252   1.307
    1   AR   Ar  199   1.261   0.437   3.018
    1   AR   Ar  200   5.619   2.832   0.032
    1   AR   Ar  201   6.842   6.584   2.658
    1   AR   Ar  202   4.914   0.700   4.377
    1   AR   Ar  203   0.695   6.723   3.300
    1   AR   Ar  204   4.379   5.251   7.301
    1   AR   Ar  205   5.868   1.850   2.110
    1   AR   Ar  206   5.835   0.568   6.473
    1   AR   Ar  207   6.959   3.298   4.748
    1   AR   Ar  208   1.054   5.921   3.865
    1   AR   Ar  209   0.113   1.985  -1.709
    1   AR   Ar  210   1.316   0.376   0.433
    1   AR   Ar  211   0.097   2.880   0.800
    1   AR   Ar  212   6.183   3.839   0.187
    1   AR   Ar  213   3.545   1.823   1.618
    1   AR   Ar  214   4.958   4.546   2.353
    1   AR   Ar  215   6.644   2.604   1.932
    1   AR   Ar  216   1.292   2.433   0.898
    1   AR   Ar  217   4.867   1.620   3.655
    1   AR   Ar  218   4.614   3.225   4.997
    1   AR   Ar  219   4.748   3.505   2.900
    1   AR   Ar  220   4.755   3.826   1.295
    1   AR   Ar  221   7.111   6.100   3.823
    1   AR   Ar  222   5.160   0.176   5.473
    1   AR   Ar  223   6.303   1.664   6.200
    1   AR   Ar  224   5.010   2.102   5.149
    1   AR   Ar  225   6.626   2.728   3.100
    1   AR   Ar  226   1.561   3.336   3.734
    1   AR   Ar  227   0.920   2.940   2.605
    1   AR   Ar  228   6.592   0.797   1.683
    1   AR   Ar  229   6.060   4.107  -1.185
    1   AR   Ar  230   4.140   4.639   4.163
    1   AR   Ar  231   4.878   2.205   2.604
    1   AR   Ar  232   5.390   2.858   1.741
    1   AR   Ar  233   6.550   2.290   4.082
    1   AR   Ar  234   5.604   2.523   4.476
    1   AR   Ar  235   6.911   0.653   3.237
    1   AR   Ar  236   4.359   4.835   5.159
    1   AR   Ar  237   4.959   1.177   6.367
    1   AR   Ar  238   6.063   5.524   6.317
    1   AR   Ar  239   0.982   4.590  11.299
    1   AR   Ar  240   1.163   2.616   6.567
    1   AR   Ar  241   1.612   6.621  -0.104
    1   AR   Ar  242   5.909   5.616   1.387
    1   AR   Ar  243   5.397   6.209   2.706
    1   AR   Ar  244   6.961   5.940   0.773
    1   AR   Ar  245   3.878   0.592   3.446
    1   AR   Ar  246   5.487   6.571  -0.832
    1   AR   Ar  247   0.147   3.476   1.895
    1   AR   Ar  248   5.391   5.507  -0.028
    1   AR   Ar  249   4.226   7.020   1.550
    1   AR   Ar  250   5.011   6.537   3.738
    1   AR   Ar  251   5.068   4.120   4.871
    1   AR   Ar  252   2.208   4.289   2.150
    1   AR   Ar  253   5.822   2.471   7.833
    1   AR   Ar  254   6.288   3.558  10.055
    1   AR   Ar  255   4.447   6.090   9.128
    1   AR   Ar  256   5.631   5.587   3.557
    7.12000  7.12000 12.00000
Argon-slab step 4940
  256
    1   AR   Ar    1   5.031   3.151  -2.570
    1   AR   Ar    2   5.603   6.556   0.205
    1   AR   Ar    3   4.311   3.587  -1.083
    1   AR   Ar    4   2.572   0.958   1.317
    1   AR   Ar    5   6.427   5.188  -0.272
    1   AR   Ar    6   1.321   1.891   2.116
    1   AR   Ar    7   5.842   4.618   3.597
    1   AR   Ar    8   6.661   3.210  -1.371
    1   AR   Ar    9   0.304   6.806   4.607
    1   AR   Ar   10   5.510   5.280   5.360
    1   AR   Ar   11   1.134   6.360   4.955
    1   AR   Ar   12   0.141   1.570   3.997
    1   AR   Ar   13   7.005   0.618   4.513
    1   AR   Ar   14   3.802   1.354   6.627
    1   AR   Ar   15   3.012   0.127   9.673
    1   AR   Ar   16   0.933   0.457   6.302
    1   AR   Ar   17   6.003   3.858   1.343
    1   AR   Ar   18   7.063   5.065  -1.488
    1   AR   Ar   19   4.997   4.876   1.148
    1   AR   Ar   20   6.799   4.090  -2.330
    1   AR   Ar   21   2.353   1.519   2.228
    1   AR   Ar   22   5.735   0.771   2.396
    1   AR   Ar   23   0.699   6.684   0.675
    1   AR   Ar   24   5.581   2.602   3.313
    1   AR   Ar   25   0.625   2.759   4.592
    1   AR   Ar   26   5.764   6.867   4.693
    1   AR   Ar   27   1.971   0.324   1.968
    1   AR   Ar   28   1.784   2.279   4.062
    1   AR   Ar   29   4.711   1.001   7.572
    1   AR   Ar   30   0.495   1.231   2.746
    1   AR   Ar   31   2.762   1.183   7.088
    1   AR   Ar   32   1.366   2.619   5.487
    1   AR   Ar   33   0.393   4.139   0.143
    1   AR   Ar   34   1.362   4.868   2.130
    1   AR   Ar   35   5.770   5.318   2.542
    1   AR   Ar   36   5.640   1.858  -2.367
    1   AR   Ar   37   4.059   2.976   1.390
    1   AR   Ar   38   6.611   4.308   4.238
    1   AR   Ar   39   0.316   3.020   3.701
    1   AR   Ar   40   1.282   3.744   1.891
    1   AR   Ar   41   0.944   2.013   3.434
    1   AR   Ar   42   4.810   5.969   6.080
    1   AR   Ar   43   0.196   2.722   5.631
    1   AR   Ar   44   0.382   3.853   3.158
    1   AR   Ar   45   1.044   3.628   5.489
    1   AR   Ar   46   0.137   4.593   6.882
    1   AR   Ar   47   3.961   4.381   7.898
    1   AR   Ar   48   7.039   3.807   7.623
    1   AR   Ar   49   6.911   0.852   0.160
    1   AR   Ar   50   4.193   5.180   0.631
    1   AR   Ar   51   5.830   3.468   2.634
    1   AR   Ar   52   5.354   3.388  -1.228
    1   AR   Ar   53   4.771   0.191   2.841
    1   AR   Ar   54   0.837   0.287   1.953
    1   AR   Ar   55   6.986   4.619   2.512
    1   AR   Ar   56   6.676   1.614   2.760
    1   AR   Ar   57   3.884   4.286   2.112
    1   AR   Ar   58   0.640   3.788   4.185
    1   AR   Ar   59   2.755   5.632   5.557
    1   AR   Ar   60   0.148   5.511   2.921
    1   AR   Ar   61   0.444   3.447   6.752
    1   AR   Ar   62   0.301   4.464   5.062
    1   AR   Ar   63   3.018   2.328   7.219
    1   AR   Ar   64   0.059   5.744   4.867
    1   AR   Ar   65   4.011   0.815   2.225
    1   AR   Ar   66   1.416   0.941   1.384
    1   AR   Ar   67   4.569   0.148  -0.511
    1   AR   Ar   68   0.335   0.973  -1.558
    1   AR   Ar   69   1.883   1.253   0.406
    1   AR   Ar   70   0.481   1.112   1.672
    1   AR   Ar   71   2.910   0.792   2.865
    1   AR   Ar   72   4.482   1.062   1.338
    1   AR   Ar   73   3.032   0.180   4.073
    1   AR   Ar   74   1.089   0.919   4.059
    1   AR   Ar   75   3.146   0.666   5.064
    1   AR   Ar   76   2.439   7.066   1.050
    1   AR   Ar   77   1.776   6.023   5.632
    1   AR   Ar   78   6.974   5.128   5.856
    1   AR   Ar   79   3.155   6.901   5.819
    1   AR   Ar   80   3.955   5.664   5.483
    1   AR   Ar   81   1.372   6.563   1.432
    1   AR   Ar   82   6.254   4.789   0.825
    1   AR   Ar   83   1.113   3.453   0.687
    1   AR   Ar   84   1.145   4.602   1.119
    1   AR   Ar   85   1.497   4.272  -0.128
    1   AR   Ar   86   1.666   5.608   0.937
    1   AR   Ar   87   3.111   3.398   2.366
    1   AR   Ar   88   3.598   5.255   1.528
    1   AR   Ar   89   6.548   2.043   1.074
    1   AR   Ar   90   3.010   1.744   5.474
    1   AR   Ar   91   1.936   1.336   3.157
    1   AR   Ar   92   2.129   3.002   1.696
    1   AR   Ar   93   2.183   1.043   5.437
    1   AR   Ar   94   1.513   7.055   8.531
    1   AR   Ar   95   4.325   1.321   5.262
    1   AR   Ar   96   2.257   0.028   4.911
    1   AR   Ar   97   2.802   2.684  -1.254
    1   AR   Ar   98   1.482   4.451   3.840
    1   AR   Ar   99   5.866   0.444  -0.449
    1   AR   Ar  100   6.870   2.922  -3.024
    1   AR   Ar  101   4.040   6.467   2.446
    1   AR   Ar  102   3.685   1.666   2.771
    1   AR   Ar  103   2.119   4.488   0.825
    1   AR   Ar  104   3.612   6.383  -1.374
    1   AR   Ar  105   2.650   1.960   3.439
    1   AR   Ar  106   3.877   2.346   5.103
    1   AR   Ar  107   0.793   5.280   5.584
    1   AR   Ar  108   2.132   1.277   4.176
    1   AR   Ar  109   1.764   4.397   5.659
    1   AR   Ar  110   2.220   2.295   4.919
    1   AR   Ar  111   3.840   5.892   8.129
    1   AR   Ar  112   6.614   6.346   5.772
    1   AR   Ar  113   0.846   5.966  -1.618
    1   AR   Ar  114   2.464   0.428  -0.007
    1   AR   Ar  115   0.949   5.151   0.058
    1   AR   Ar  116   4.686   0.196   0.628
    1   AR   Ar  117   0.452   4.799   3.658
    1   AR   Ar  118   1.783   5.620   3.114
    1   AR   Ar  119   1.722   4.019   2.975
    1   AR   Ar  120   1.908   6.620   2.712
    1   AR   Ar  121   5.535   4.380   5.959
    1   AR   Ar  122   2.921   5.619   4.069
    1   AR   Ar  123   3.374   3.111   5.870
    1   AR   Ar  124   0.670   5.485   1.506
    1   AR   Ar  125   5.931   3.561   4.387
    1   AR   Ar  126   6.686   0.347   7.649
    1   AR   Ar  127   4.499   3.289   6.405
    1   AR   Ar  128   2.017   4.177   6.753
    1   AR   Ar  129   2.077   5.234   4.851
    1   AR   Ar  130   4.082   1.499  -4.868
    1   AR   Ar  131   4.494   5.953  -1.750
    1   AR   Ar  132   0.517   1.701   0.787
    1   AR   Ar  133   4.033   0.043   4.477
    1   AR   Ar  134   3.361   1.296   4.149
    1   AR   Ar  135   5.939   1.457   4.474
    1   AR   Ar  136   5.984   7.096   2.868
    1   AR   Ar  137   2.879   3.982   5.558
    1   AR   Ar  138   5.628   1.183   5.481
    1   AR   Ar  139   6.290   2.264   5.161
    1   AR   Ar  140   4.545   6.465   5.006
    1   AR   Ar  141   4.111   5.714   4.350
    1   AR   Ar  142   4.505   6.464   7.504
    1   AR   Ar  143   5.691   6.556   6.602
    1   AR   Ar  144   0.074   1.784   5.044
    1   AR   Ar  145   4.388   5.276  -0.441
    1   AR   Ar  146   3.580   2.663   3.093
    1   AR   Ar  147   5.049   4.193  -0.485
    1   AR   Ar  148   2.553   6.221  -1.536
    1   AR   Ar  149   0.665   1.520  -0.273
    1   AR   Ar  150   1.937   2.577   3.025
    1   AR   Ar  151   2.659   3.308   3.349
    1   AR   Ar  152   0.808   1.278  -2.647
    1   AR   Ar  153   5.811   0.849   3.597
    1   AR   Ar  154   4.547   2.786   3.762
    1   AR   Ar  155   6.497   3.721   5.598
    1   AR   Ar  156   2.880   4.806   3.249
    1   AR   Ar  157   2.444   5.462   6.752
    1   AR   Ar  158   0.532   1.600   5.989
    1   AR   Ar  159   4.168   0.361   6.368
    1   AR   Ar  160   0.948   0.523   5.139
    1   AR   Ar  161   4.768   4.424   3.365
    1   AR   Ar  162   4.210   6.305  -0.262
    1   AR   Ar  163   5.898   4.405   2.186
    1   AR   Ar  164   1.938   5.696   1.957
    1   AR   Ar  165   3.328   4.260   1.025
    1   AR   Ar  166   2.447   3.602   4.507
    1   AR   Ar  167   6.386   6.811   3.783
    1   AR   Ar  168   5.311   4.153  -2.314
    1   AR   Ar  169   3.787   3.639   3.454
    1   AR   Ar  170   1.961   3.299   6.028
    1   AR   Ar  171   5.083   5.142   4.306
    1   AR   Ar  172   3.631   3.561   4.546
    1   AR   Ar  173   2.265   2.079   6.282
    1   AR   Ar  174   3.281   6.576   4.769
    1   AR   Ar  175   3.232   0.714   6.052
    1   AR   Ar  176   3.038   2.699   4.123
    1   AR   Ar  177   0.530   4.682  -0.694
    1   AR   Ar  178   2.658   6.163   0.405
    1   AR   Ar  179   3.468   0.057   0.758
    1   AR   Ar  180   4.967   0.303  -6.860
    1   AR   Ar  181   6.923   5.929   1.894
    1   AR   Ar  182   0.981   6.090   2.358
    1   AR   Ar  183   4.883   5.542   1.937
    1   AR   Ar  184   4.749   6.284   0.781
    1   AR   Ar  185   2.876   4.630   4.598
    1   AR   Ar  186   2.868   6.025   2.696
    1   AR   Ar  187   3.762   6.603   3.685
    1   AR   Ar  188   3.292   7.013   1.927
    1   AR   Ar  189   6.145   2.710   6.011
    1   AR   Ar  190   2.318   6.667   3.673
    1   AR   Ar  191   3.360   6.139   6.817
    1   AR   Ar  192   4.020   4.005   5.630
    1   AR   Ar  193   2.849   5.924   1.597
    1   AR   Ar  194   5.464   5.105  -0.989
    1   AR   Ar  195   5.436   1.076   0.707
    1   AR   Ar  196   3.489   0.724  -0.202
    1   AR   Ar  197   4.837   2.950   0.681
    1   AR   Ar  198   5.658   0.260   1.290
    1   AR   Ar  199   1.260   0.397   3.036
    1   AR   Ar  200   5.613   2.805   0.029
    1   AR   Ar  201   6.787   6.603   2.684
    1   AR   Ar  202   4.903   0.687   4.388
    1   AR   Ar  203   0.681   6.750   3.297
    1   AR   Ar  204   4.369   5.185   7.337
    1   AR   Ar  205   5.884   1.844   2.119
    1   AR   Ar  206   5.831   0.566   6.473
    1   AR   Ar  207   6.948   3.309   4.700
    1   AR   Ar  208   1.069   5.932   3.860
    1   AR   Ar  209   0.090   1.988  -1.704
    1   AR   Ar  210   1.310   0.380   0.417
    1   AR   Ar  211   0.092   2.878   0.760
    1   AR   Ar  212   6.201   3.841   0.181
    1   AR   Ar  213   3.540   1.811   1.615
    1   AR   Ar  214   4.959   4.543   2.329
    1   AR   Ar  215   6.659   2.614   1.929
    1   AR   Ar  216   1.318   2.434   0.855
    1   AR   Ar  217   4.894   1.641   3.652
    1   AR   Ar  218   4.644   3.211   4.990
    1   AR   Ar  219   4.767   3.501   2.888
    1   AR   Ar  220   4.737   3.829   1.285
    1   AR   Ar  221   7.081   6.103   3.807
    1   AR   Ar  222   5.128   0.176   5.521
    1   AR   Ar  223   6.306   1.680   6.213
    1   AR   Ar  224   5.023   2.092   5.132
    1   AR   Ar  225   6.605   2.767   3.055
    1   AR   Ar  226   1.592   3.350   3.727
    1   AR   Ar  227   0.920   2.955   2.618
    1   AR   Ar  228   6.578   0.750   1.679
    1   AR   Ar  229   6.027   4.144  -1.176
    1   AR   Ar  230   4.164   4.643   4.138
    1   AR   Ar  231   4.855   2.203   2.585
    1   AR   Ar  232   5.396   2.848   1.753
    1   AR   Ar  233   6.559   2.274   4.066
    1   AR   Ar  234   5.613   2.509   4.492
    1   AR   Ar  235   6.923   0.677   3.252
    1   AR   Ar  236   4.358   4.828   5.129
    1   AR   Ar  237   4.986   1.167   6.381
    1   AR   Ar  238   6.052   5.548   6.309
    1   AR   Ar  239   0.978   4.586  11.336
    1   AR   Ar  240   1.160   2.596   6.575
    1   AR   Ar  241   1.614   6.642  -0.098
    1   AR   Ar  242   5.885   5.618   1.365
    1   AR   Ar  243   5.375   6.201   2.741
    1   AR   Ar  244   6.932   5.963   0.806
    1   AR   Ar  245   3.890   0.591   3.465
    1   AR   Ar  246   5.468   6.566  -0.851
    1   AR   Ar  247   0.129   3.458   1.914
    1   AR   Ar  248   5.402   5.474  -0.060
    1   AR   Ar  249   4.206   6.991   1.538
    1   AR   Ar  250   5.037   6.543   3.757
    1   AR   Ar  251   5.049   4.114   4.889
    1   AR   Ar  252   2.204   4.281   2.133
    1   AR   Ar  253   5.851   2.491   7.839
    1   AR   Ar  254   6.269   3.531  10.068
    1   AR   Ar  255   4.464   6.106   9.142
    1   AR   Ar  256   5.623   5.597   3.547
    7.12000  7.12000 12.00000
Argon-slab step 4945
  256
    1   AR   Ar    1   5.014   3.182  -2.601
    1   AR   Ar    2   5.585   6.582   0.197
    1   AR   Ar    3   4.318   3.603  -1.081
    1   AR   Ar    4   2.590   0.954   1.311
    1   AR   Ar    5   6.421   5.230  -0.269
    1   AR   Ar    6   1.338   1.875   2.118
    1   AR   Ar    7   5.883   4.596   3.611
    1   AR   Ar    8   6.679   3.199  -1.375
    1   AR   Ar    9   0.282   6.800   4.626
    1   AR   Ar   10   5.509   5.274   5.308
    1   AR   Ar   11   1.116   6.346   4.937
    1   AR   Ar   12   0.159   1.558   4.008
    1   AR   Ar   13   6.967   0.630   4.545
    1   AR   Ar   14   3.806   1.332   6.652
    1   AR   Ar   15   2.991   0.105   9.675
    1   AR   Ar   16   0.915   0.423   6.290
    1   AR   Ar   17   6.002   3.828   1.369
    1   AR   Ar   18   7.056   5.069  -1.526
    1   AR   Ar   19   5.034   4.856   1.133
    1   AR   Ar   20   6.789   4.107  -2.321
    1   AR   Ar   21   2.310   1.535   2.230
    1   AR   Ar   22   5.711   0.764   2.375
    1   AR   Ar   23   0.706   6.687   0.643
    1   AR   Ar   24   5.590   2.600   3.343
    1   AR   Ar   25   0.656   2.759   4.573
    1   AR   Ar   26   5.770   6.845   4.698
    1   AR   Ar   27   1.987   0.324   1.968
    1   AR   Ar   28   1.799   2.285   4.069
    1   AR   Ar   29   4.708   0.952   7.599
    1   AR   Ar   30   0.470   1.241   2.764
    1   AR   Ar   31   2.738   1.203   7.090
    1   AR   Ar   32   1.358   2.613   5.508
    1   AR   Ar   33   0.386   4.135   0.175
    1   AR   Ar   34   1.364   4.873   2.136
    1   AR   Ar   35   5.782   5.336   2.564
    1   AR   Ar   36   5.640   1.887  -2.393
    1   AR   Ar   37   4.055   2.989   1.369
    1   AR   Ar   38   6.636   4.333   4.252
    1   AR   Ar   39   0.330   3.013   3.698
    1   AR   Ar   40   1.274   3.754   1.881
    1   AR   Ar   41   0.943   1.976   3.421
    1   AR   Ar   42   4.810   5.970   6.062
    1   AR   Ar   43   0.232   2.744   5.670
    1   AR   Ar   44   0.358   3.834   3.129
    1   AR   Ar   45   1.045   3.629   5.503
    1   AR   Ar   46   0.106   4.605   6.896
    1   AR   Ar   47   3.947   4.322   7.897
    1   AR   Ar   48   7.059   3.798   7.635
    1   AR   Ar   49   6.912   0.886   0.172
    1   AR   Ar   50   4.193   5.202   0.636
    1   AR   Ar   51   5.793   3.448   2.649
    1   AR   Ar   52   5.385   3.390  -1.238
    1   AR   Ar   53   4.779   0.181   2.856
    1   AR   Ar   54   0.845   0.244   1.922
    1   AR   Ar   55   6.973   4.646   2.471
    1   AR   Ar   56   6.666   1.619   2.751
    1   AR   Ar   57   3.888   4.271   2.133
    1   AR   Ar   58   0.644   3.776   4.170
    1   AR   Ar   59   2.769   5.593   5.548
    1   AR   Ar   60   0.140   5.515   2.916
    1   AR   Ar   61   0.452   3.450   6.775
    1   AR   Ar   62   0.308   4.465   5.068
    1   AR   Ar   63   3.015   2.311   7.202
    1   AR   Ar   64   0.047   5.737   4.847
    1   AR   Ar   65   4.019   0.825   2.217
    1   AR   Ar   66   1.463   0.959   1.412
    1   AR   Ar   67   4.558   0.152  -0.526
    1   AR   Ar   68   0.307   0.993  -1.536
    1   AR   Ar   69   1.863   1.235   0.408
    1   AR   Ar   70   0.473   1.127   1.685
    1   AR   Ar   71   2.896   0.822   2.838
    1   AR   Ar   72   4.468   1.066   1.329
    1   AR   Ar   73   3.037   0.182   4.045
    1   AR   Ar   74   1.073   0.933   4.049
    1   AR   Ar   75   3.140   0.688   5.061
    1   AR   Ar   76   2.439   7.060   1.046
    1   AR   Ar   77   1.761   6.003   5.635
    1   AR   Ar   78   6.962   5.125   5.852
    1   AR   Ar   79   3.147   6.880   5.820
    1   AR   Ar   80   3.936   5.660   5.477
    1   AR   Ar   81   1.391   6.566   1.434
    1   AR   Ar   82   6.254   4.798   0.855
    1   AR   Ar   83   1.108   3.463   0.674
    1   AR   Ar   84   1.135   4.606   1.133
    1   AR   Ar   85   1.489   4.264  -0.137
    1   AR   Ar   86   1.663   5.550   0.952
    1   AR   Ar   87   3.139   3.414   2.324
    1   AR   Ar   88   3.589   5.262   1.552
    1   AR   Ar   89   6.575   2.044   1.084
    1   AR   Ar   90   3.031   1.716   5.482
    1   AR   Ar   91   1.955   1.332   3.154
    1   AR   Ar   92   2.138   2.970   1.692
    1   AR   Ar   93   2.179   1.022   5.426
    1   AR   Ar   94   1.505   7.031   8.520
    1   AR   Ar   95   4.339   1.314   5.279
    1   AR   Ar   96   2.260   0.028   4.909
    1   AR   Ar   97   2.819   2.691  -1.252
    1   AR   Ar   98   1.514   4.450   3.873
    1   AR   Ar   99   5.864   0.406  -0.458
    1   AR   Ar  100   6.847   2.906  -3.004
    1   AR   Ar  101   4.028   6.434   2.438
    1   AR   Ar  102   3.687   1.661   2.732
    1   AR   Ar  103   2.123   4.481   0.791
    1   AR   Ar  104   3.598   6.385  -1.377
    1   AR   Ar  105   2.647   1.959   3.426
    1   AR   Ar  106   3.928   2.327   5.106
    1   AR   Ar  107   0.828   5.284   5.604
    1   AR   Ar  108   2.146   1.274   4.185
    1   AR   Ar  109   1.755   4.403   5.645
    1   AR   Ar  110   2.235   2.287   4.935
    1   AR   Ar  111   3.849   5.907   8.127
    1   AR   Ar  112   6.577   6.369   5.749
    1   AR   Ar  113   0.847   5.959  -1.627
    1   AR   Ar  114   2.471   0.417  -0.005
    1   AR   Ar  115   0.937   5.156   0.054
    1   AR   Ar  116   4.656   0.194   0.616
    1   AR   Ar  117   0.444   4.780   3.645
    1   AR   Ar  118   1.771   5.643   3.129
    1   AR   Ar  119   1.720   4.056   2.943
    1   AR   Ar  120   1.904   6.627   2.715
    1   AR   Ar  121   5.515   4.372   5.950
    1   AR   Ar  122   2.893   5.609   4.070
    1   AR   Ar  123   3.354   3.072   5.896
    1   AR   Ar  124   0.699   5.513   1.498
    1   AR   Ar  125   5.909   3.568   4.357
    1   AR   Ar  126   6.691   0.348   7.659
    1   AR   Ar  127   4.517   3.284   6.396
    1   AR   Ar  128   2.027   4.158   6.748
    1   AR   Ar  129   2.094   5.226   4.790
    1   AR   Ar  130   4.057   1.469  -4.875
    1   AR   Ar  131   4.504   5.981  -1.751
    1   AR   Ar  132   0.508   1.729   0.821
    1   AR   Ar  133   4.038   0.053   4.477
    1   AR   Ar  134   3.357   1.324   4.112
    1   AR   Ar  135   5.942   1.449   4.475
    1   AR   Ar  136   5.963   7.114   2.852
    1   AR   Ar  137   2.908   3.990   5.608
    1   AR   Ar  138   5.616   1.194   5.491
    1   AR   Ar  139   6.298   2.243   5.150
    1   AR   Ar  140   4.529   6.445   5.021
    1   AR   Ar  141   4.094   5.713   4.352
    1   AR   Ar  142   4.501   6.457   7.508
    1   AR   Ar  143   5.665   6.565   6.600
    1   AR   Ar  144   0.077   1.808   5.030
    1   AR   Ar  145   4.414   5.285  -0.446
    1   AR   Ar  146   3.578   2.645   3.134
    1   AR   Ar  147   5.035   4.166  -0.473
    1   AR   Ar  148   2.543   6.191  -1.550
    1   AR   Ar  149   0.674   1.550  -0.285
    1   AR   Ar  150   1.956   2.580   3.052
    1   AR   Ar  151   2.688   3.305   3.334
    1   AR   Ar  152   0.844   1.267  -2.650
    1   AR   Ar  153   5.790   0.846   3.559
    1   AR   Ar  154   4.567   2.768   3.750
    1   AR   Ar  155   6.474   3.710   5.578
    1   AR   Ar  156   2.838   4.791   3.244
    1   AR   Ar  157   2.439   5.448   6.735
    1   AR   Ar  158   0.520   1.613   6.015
    1   AR   Ar  159   4.168   0.341   6.336
    1   AR   Ar  160   0.958   0.532   5.150
    1   AR   Ar  161   4.768   4.407   3.392
    1   AR   Ar  162   4.236   6.308  -0.283
    1   AR   Ar  163   5.913   4.381   2.212
    1   AR   Ar  164   1.959   5.695   1.971
    1   AR   Ar  165   3.327   4.257   1.026
    1   AR   Ar  166   2.436   3.638   4.520
    1   AR   Ar  167   6.411   6.819   3.773
    1   AR   Ar  168   5.328   4.142  -2.318
    1   AR   Ar  169   3.795   3.656   3.437
    1   AR   Ar  170   1.971   3.297   6.016
    1   AR   Ar  171   5.077   5.155   4.334
    1   AR   Ar  172   3.608   3.547   4.541
    1   AR   Ar  173   2.279   2.070   6.287
    1   AR   Ar  174   3.247   6.572   4.796
    1   AR   Ar  175   3.212   0.729   6.050
    1   AR   Ar  176   3.052   2.735   4.099
    1   AR   Ar  177   0.554   4.665  -0.696
    1   AR   Ar  178   2.669   6.173   0.408
    1   AR   Ar  179   3.443   0.034   0.745
    1   AR   Ar  180   4.958   0.315  -6.868
    1   AR   Ar  181   6.935   5.943   1.905
    1   AR   Ar  182   0.993   6.115   2.343
    1   AR   Ar  183   4.884   5.562   1.964
    1   AR   Ar  184   4.729   6.252   0.813
    1   AR   Ar  185   2.873   4.646   4.574
    1   AR   Ar  186   2.841   6.022   2.709
    1   AR   Ar  187   3.738   6.613   3.696
    1   AR   Ar  188   3.291   7.042   1.915
    1   AR   Ar  189   6.160   2.705   6.020
    1   AR   Ar  190   2.304   6.693   3.707
    1   AR   Ar  191   3.345   6.154   6.809
    1   AR   Ar  192   4.012   4.011   5.619
    1   AR   Ar  193   2.833   5.968   1.568
    1   AR   Ar  194   5.469   5.111  -0.978
    1   AR   Ar  195   5.435   1.076   0.694
    1   AR   Ar  196   3.480   0.713  -0.167
    1   AR   Ar  197   4.862   2.986   0.691
    1   AR   Ar  198   5.686   0.263   1.275
    1   AR   Ar  199   1.265   0.366   3.051
    1   AR   Ar  200   5.611   2.778   0.023
    1   AR   Ar  201   6.748   6.613   2.710
    1   AR   Ar  202   4.893   0.675   4.400
    1   AR   Ar  203   0.661   6.772   3.294
    1   AR   Ar  204   4.360   5.123   7.370
    1   AR   Ar  205   5.897   1.840   2.125
    1   AR   Ar  206   5.829   0.563   6.472
    1   AR   Ar  207   6.924   3.326   4.653
    1   AR   Ar  208   1.083   5.943   3.858
    1   AR   Ar  209   0.066   1.993  -1.701
    1   AR   Ar  210   1.303   0.387   0.404
    1   AR   Ar  211   0.088   2.877   0.720
    1   AR   Ar  212   6.211   3.860   0.170
    1   AR   Ar  213   3.534   1.799   1.613
    1   AR   Ar  214   4.955   4.536   2.305
    1   AR   Ar  215   6.671   2.624   1.930
    1   AR   Ar  216   1.345   2.433   0.813
    1   AR   Ar  217   4.922   1.662   3.649
    1   AR   Ar  218   4.670   3.188   4.983
    1   AR   Ar  219   4.785   3.492   2.873
    1   AR   Ar  220   4.719   3.834   1.278
    1   AR   Ar  221   7.057   6.098   3.791
    1   AR   Ar  222   5.095   0.176   5.570
    1   AR   Ar  223   6.310   1.693   6.225
    1   AR   Ar  224   5.029   2.077   5.126
    1   AR   Ar  225   6.585   2.806   3.009
    1   AR   Ar  226   1.621   3.358   3.725
    1   AR   Ar  227   0.921   2.970   2.632
    1   AR   Ar  228   6.564   0.703   1.675
    1   AR   Ar  229   6.000   4.187  -1.166
    1   AR   Ar  230   4.178   4.644   4.115
    1   AR   Ar  231   4.831   2.201   2.566
    1   AR   Ar  232   5.402   2.840   1.766
    1   AR   Ar  233   6.565   2.267   4.049
    1   AR   Ar  234   5.620   2.506   4.488
    1   AR   Ar  235   6.931   0.695   3.272
    1   AR   Ar  236   4.361   4.822   5.099
    1   AR   Ar  237   5.009   1.159   6.394
    1   AR   Ar  238   6.039   5.570   6.300
    1   AR   Ar  239   0.974   4.583  11.374
    1   AR   Ar  240   1.158   2.575   6.581
    1   AR   Ar  241   1.617   6.661  -0.091
    1   AR   Ar  242   5.860   5.623   1.344
    1   AR   Ar  243   5.345   6.207   2.775
    1   AR   Ar  244   6.903   5.985   0.839
    1   AR   Ar  245   3.902   0.591   3.483
    1   AR   Ar  246   5.447   6.560  -0.872
    1   AR   Ar  247   0.115   3.445   1.932
    1   AR   Ar  248   5.410   5.445  -0.081
    1   AR   Ar  249   4.197   6.963   1.523
    1   AR   Ar  250   5.065   6.543   3.802
    1   AR   Ar  251   5.029   4.114   4.904
    1   AR   Ar  252   2.211   4.272   2.108
    1   AR   Ar  253   5.881   2.512   7.844
    1   AR   Ar  254   6.250   3.504  10.080
    1   AR   Ar  255   4.481   6.121   9.156
    1   AR   Ar  256   5.617   5.616   3.539
    7.12000  7.12000 12.00000
Argon-slab step 4950
  256
    1   AR   Ar    1   4.997   3.209  -2.632
    1   AR   Ar    2   5.567   6.610   0.192
    1   AR   Ar    3   4.325   3.620  -1.079
    1   AR   Ar    4   2.609   0.953   1.306
    1   AR   Ar    5   6.414   5.261  -0.264
    1   AR   Ar    6   1.350   1.860   2.120
    1   AR   Ar    7   5.885   4.591   3.606
    1   AR   Ar    8   6.693   3.181  -1.390
    1   AR   Ar    9   0.254   6.797   4.641
    1   AR   Ar   10   5.509   5.269   5.259
    1   AR   Ar   11   1.115   6.333   4.938
    1   AR   Ar   12   0.176   1.551   4.029
    1   AR   Ar   13   6.927   0.646   4.576
    1   AR   Ar   14   3.813   1.313   6.680
    1   AR   Ar   15   2.969   0.082   9.678
    1   AR   Ar   16   0.897   0.389   6.277
    1   AR   Ar   17   6.001   3.794   1.389
    1   AR   Ar   18   7.049   5.073  -1.565
    1   AR   Ar   19   5.077   4.836   1.120
    1   AR   Ar   20   6.778   4.123  -2.310
    1   AR   Ar   21   2.274   1.551   2.226
    1   AR   Ar   22   5.679   0.779   2.342
    1   AR   Ar   23   0.710   6.687   0.610
    1   AR   Ar   24   5.597   2.597   3.373
    1   AR   Ar   25   0.698   2.749   4.569
    1   AR   Ar   26   5.775   6.823   4.703
    1   AR   Ar   27   2.009   0.318   1.977
    1   AR   Ar   28   1.793   2.248   4.055
    1   AR   Ar   29   4.704   0.904   7.623
    1   AR   Ar   30   0.461   1.251   2.779
    1   AR   Ar   31   2.716   1.223   7.091
    1   AR   Ar   32   1.348   2.601   5.526
    1   AR   Ar   33   0.380   4.137   0.174
    1   AR   Ar   34   1.360   4.877   2.146
    1   AR   Ar   35   5.786   5.344   2.572
    1   AR   Ar   36   5.641   1.916  -2.419
    1   AR   Ar   37   4.048   3.001   1.353
    1   AR   Ar   38   6.669   4.358   4.269
    1   AR   Ar   39   0.331   2.984   3.675
    1   AR   Ar   40   1.254   3.757   1.900
    1   AR   Ar   41   0.937   1.936   3.408
    1   AR   Ar   42   4.813   5.970   6.044
    1   AR   Ar   43   0.266   2.766   5.708
    1   AR   Ar   44   0.335   3.822   3.092
    1   AR   Ar   45   1.049   3.613   5.479
    1   AR   Ar   46   0.076   4.617   6.908
    1   AR   Ar   47   3.932   4.259   7.899
    1   AR   Ar   48   7.077   3.789   7.650
    1   AR   Ar   49   6.914   0.921   0.186
    1   AR   Ar   50   4.190   5.227   0.638
    1   AR   Ar   51   5.759   3.426   2.663
    1   AR   Ar   52   5.408   3.385  -1.246
    1   AR   Ar   53   4.787   0.170   2.871
    1   AR   Ar   54   0.856   0.189   1.898
    1   AR   Ar   55   6.960   4.667   2.427
    1   AR   Ar   56   6.659   1.602   2.743
    1   AR   Ar   57   3.891   4.255   2.152
    1   AR   Ar   58   0.657   3.784   4.166
    1   AR   Ar   59   2.787   5.554   5.539
    1   AR   Ar   60   0.134   5.525   2.910
    1   AR   Ar   61   0.446   3.460   6.786
    1   AR   Ar   62   0.300   4.469   5.086
    1   AR   Ar   63   3.011   2.292   7.183
    1   AR   Ar   64   0.036   5.730   4.827
    1   AR   Ar   65   4.025   0.829   2.212
    1   AR   Ar   66   1.509   0.983   1.432
    1   AR   Ar   67   4.549   0.160  -0.541
    1   AR   Ar   68   0.281   1.010  -1.513
    1   AR   Ar   69   1.846   1.223   0.411
    1   AR   Ar   70   0.457   1.153   1.698
    1   AR   Ar   71   2.884   0.851   2.811
    1   AR   Ar   72   4.431   1.060   1.311
    1   AR   Ar   73   3.043   0.193   4.019
    1   AR   Ar   74   1.058   0.947   4.038
    1   AR   Ar   75   3.136   0.707   5.045
    1   AR   Ar   76   2.435   7.050   1.042
    1   AR   Ar   77   1.769   5.985   5.624
    1   AR   Ar   78   6.944   5.122   5.848
    1   AR   Ar   79   3.138   6.849   5.820
    1   AR   Ar   80   3.912   5.663   5.472
    1   AR   Ar   81   1.423   6.567   1.442
    1   AR   Ar   82   6.256   4.804   0.883
    1   AR   Ar   83   1.103   3.476   0.662
    1   AR   Ar   84   1.123   4.606   1.143
    1   AR   Ar   85   1.480   4.255  -0.145
    1   AR   Ar   86   1.662   5.492   0.965
    1   AR   Ar   87   3.167   3.430   2.282
    1   AR   Ar   88   3.583   5.271   1.570
    1   AR   Ar   89   6.609   2.042   1.103
    1   AR   Ar   90   3.054   1.689   5.490
    1   AR   Ar   91   1.960   1.319   3.151
    1   AR   Ar   92   2.146   2.939   1.691
    1   AR   Ar   93   2.173   1.001   5.414
    1   AR   Ar   94   1.498   7.007   8.510
    1   AR   Ar   95   4.350   1.301   5.299
    1   AR   Ar   96   2.264   0.027   4.906
    1   AR   Ar   97   2.837   2.698  -1.250
    1   AR   Ar   98   1.547   4.452   3.912
    1   AR   Ar   99   5.860   0.367  -0.465
    1   AR   Ar  100   6.824   2.891  -2.982
    1   AR   Ar  101   4.017   6.399   2.434
    1   AR   Ar  102   3.686   1.658   2.695
    1   AR   Ar  103   2.130   4.474   0.756
    1   AR   Ar  104   3.584   6.388  -1.377
    1   AR   Ar  105   2.662   1.961   3.420
    1   AR   Ar  106   3.977   2.310   5.109
    1   AR   Ar  107   0.869   5.290   5.622
    1   AR   Ar  108   2.163   1.270   4.199
    1   AR   Ar  109   1.748   4.411   5.631
    1   AR   Ar  110   2.258   2.278   4.963
    1   AR   Ar  111   3.858   5.923   8.128
    1   AR   Ar  112   6.539   6.391   5.724
    1   AR   Ar  113   0.850   5.948  -1.639
    1   AR   Ar  114   2.475   0.403  -0.001
    1   AR   Ar  115   0.931   5.169   0.065
    1   AR   Ar  116   4.626   0.194   0.602
    1   AR   Ar  117   0.436   4.761   3.634
    1   AR   Ar  118   1.762   5.664   3.142
    1   AR   Ar  119   1.713   4.090   2.912
    1   AR   Ar  120   1.912   6.628   2.725
    1   AR   Ar  121   5.496   4.364   5.940
    1   AR   Ar  122   2.866   5.601   4.071
    1   AR   Ar  123   3.336   3.031   5.921
    1   AR   Ar  124   0.728   5.542   1.489
    1   AR   Ar  125   5.884   3.574   4.326
    1   AR   Ar  126   6.696   0.349   7.668
    1   AR   Ar  127   4.533   3.279   6.386
    1   AR   Ar  128   2.003   4.152   6.741
    1   AR   Ar  129   2.102   5.223   4.730
    1   AR   Ar  130   4.039   1.443  -4.881
    1   AR   Ar  131   4.518   6.007  -1.751
    1   AR   Ar  132   0.499   1.758   0.852
    1   AR   Ar  133   4.046   0.073   4.481
    1   AR   Ar  134   3.352   1.351   4.077
    1   AR   Ar  135   5.944   1.440   4.475
    1   AR   Ar  136   5.923   0.003   2.840
    1   AR   Ar  137   2.935   4.002   5.656
    1   AR   Ar  138   5.603   1.204   5.499
    1   AR   Ar  139   6.309   2.218   5.140
    1   AR   Ar  140   4.516   6.423   5.038
    1   AR   Ar  141   4.076   5.714   4.353
    1   AR   Ar  142   4.499   6.452   7.509
    1   AR   Ar  143   5.639   6.575   6.597
    1   AR   Ar  144   0.087   1.830   5.016
    1   AR   Ar  145   4.441   5.291  -0.453
    1   AR   Ar  146   3.575   2.627   3.175
    1   AR   Ar  147   5.023   4.141  -0.459
    1   AR   Ar  148   2.531   6.161  -1.564
    1   AR   Ar  149   0.683   1.578  -0.297
    1   AR   Ar  150   1.967   2.585   3.070
    1   AR   Ar  151   2.717   3.301   3.317
    1   AR   Ar  152   0.879   1.256  -2.652
    1   AR   Ar  153   5.769   0.843   3.521
    1   AR   Ar  154   4.619   2.737   3.757
    1   AR   Ar  155   6.451   3.699   5.558
    1   AR   Ar  156   2.794   4.775   3.240
    1   AR   Ar  157   2.434   5.434   6.717
    1   AR   Ar  158   0.508   1.627   6.042
    1   AR   Ar  159   4.171   0.319   6.303
    1   AR   Ar  160   0.968   0.540   5.159
    1   AR   Ar  161   4.780   4.387   3.408
    1   AR   Ar  162   4.261   6.311  -0.302
    1   AR   Ar  163   5.943   4.358   2.238
    1   AR   Ar  164   1.974   5.696   1.991
    1   AR   Ar  165   3.326   4.255   1.028
    1   AR   Ar  166   2.424   3.672   4.532
    1   AR   Ar  167   6.427   6.840   3.764
    1   AR   Ar  168   5.347   4.134  -2.320
    1   AR   Ar  169   3.803   3.675   3.420
    1   AR   Ar  170   1.984   3.297   6.006
    1   AR   Ar  171   5.073   5.168   4.362
    1   AR   Ar  172   3.586   3.534   4.539
    1   AR   Ar  173   2.293   2.062   6.290
    1   AR   Ar  174   3.276   6.588   4.793
    1   AR   Ar  175   3.189   0.754   6.057
    1   AR   Ar  176   3.078   2.771   4.084
    1   AR   Ar  177   0.574   4.644  -0.713
    1   AR   Ar  178   2.679   6.183   0.413
    1   AR   Ar  179   3.420   0.011   0.731
    1   AR   Ar  180   4.948   0.327  -6.877
    1   AR   Ar  181   6.946   5.956   1.917
    1   AR   Ar  182   1.003   6.140   2.330
    1   AR   Ar  183   4.884   5.585   1.990
    1   AR   Ar  184   4.708   6.217   0.845
    1   AR   Ar  185   2.888   4.614   4.557
    1   AR   Ar  186   2.814   6.019   2.721
    1   AR   Ar  187   3.714   6.615   3.699
    1   AR   Ar  188   3.277   7.075   1.905
    1   AR   Ar  189   6.164   2.709   6.020
    1   AR   Ar  190   2.285   6.714   3.740
    1   AR   Ar  191   3.332   6.169   6.801
    1   AR   Ar  192   4.004   4.012   5.610
    1   AR   Ar  193   2.820   6.020   1.535
    1   AR   Ar  194   5.474   5.112  -0.984
    1   AR   Ar  195   5.433   1.080   0.680
    1   AR   Ar  196   3.474   0.703  -0.131
    1   AR   Ar  197   4.887   3.020   0.702
    1   AR   Ar  198   5.711   0.260   1.262
    1   AR   Ar  199   1.281   0.348   3.060
    1   AR   Ar  200   5.614   2.751   0.012
    1   AR   Ar  201   6.727   6.611   2.729
    1   AR   Ar  202   4.893   0.649   4.396
    1   AR   Ar  203   0.628   6.782   3.294
    1   AR   Ar  204   4.351   5.066   7.402
    1   AR   Ar  205   5.904   1.837   2.128
    1   AR   Ar  206   5.832   0.556   6.471
    1   AR   Ar  207   6.895   3.343   4.607
    1   AR   Ar  208   1.094   5.953   3.859
    1   AR   Ar  209   0.041   2.004  -1.698
    1   AR   Ar  210   1.295   0.395   0.394
    1   AR   Ar  211   0.081   2.878   0.702
    1   AR   Ar  212   6.221   3.879   0.158
    1   AR   Ar  213   3.529   1.785   1.613
    1   AR   Ar  214   4.981   4.576   2.303
    1   AR   Ar  215   6.677   2.629   1.935
    1   AR   Ar  216   1.374   2.429   0.772
    1   AR   Ar  217   4.952   1.683   3.647
    1   AR   Ar  218   4.691   3.154   4.977
    1   AR   Ar  219   4.798   3.481   2.857
    1   AR   Ar  220   4.703   3.843   1.276
    1   AR   Ar  221   7.043   6.082   3.777
    1   AR   Ar  222   5.061   0.176   5.619
    1   AR   Ar  223   6.280   1.678   6.236
    1   AR   Ar  224   5.029   2.058   5.129
    1   AR   Ar  225   6.569   2.844   2.964
    1   AR   Ar  226   1.627   3.375   3.717
    1   AR   Ar  227   0.922   2.984   2.648
    1   AR   Ar  228   6.553   0.659   1.673
    1   AR   Ar  229   5.978   4.234  -1.155
    1   AR   Ar  230   4.176   4.644   4.099
    1   AR   Ar  231   4.807   2.200   2.548
    1   AR   Ar  232   5.408   2.832   1.780
    1   AR   Ar  233   6.568   2.266   4.032
    1   AR   Ar  234   5.624   2.515   4.465
    1   AR   Ar  235   6.931   0.705   3.299
    1   AR   Ar  236   4.363   4.815   5.076
    1   AR   Ar  237   5.022   1.146   6.417
    1   AR   Ar  238   6.025   5.592   6.290
    1   AR   Ar  239   0.970   4.579  11.411
    1   AR   Ar  240   1.156   2.555   6.586
    1   AR   Ar  241   1.624   6.675  -0.085
    1   AR   Ar  242   5.833   5.631   1.327
    1   AR   Ar  243   5.308   6.226   2.803
    1   AR   Ar  244   6.874   6.006   0.869
    1   AR   Ar  245   3.915   0.590   3.500
    1   AR   Ar  246   5.424   6.553  -0.892
    1   AR   Ar  247   0.107   3.442   1.952
    1   AR   Ar  248   5.415   5.424  -0.081
    1   AR   Ar  249   4.198   6.935   1.504
    1   AR   Ar  250   5.092   6.544   3.848
    1   AR   Ar  251   5.020   4.116   4.916
    1   AR   Ar  252   2.227   4.263   2.074
    1   AR   Ar  253   5.910   2.532   7.849
    1   AR   Ar  254   6.231   3.477  10.092
    1   AR   Ar  255   4.497   6.137   9.168
    1   AR   Ar  256   5.613   5.635   3.542
    7.12000  7.12000 12.00000
Argon-slab step 4955
  256
    1   AR   Ar    1   5.015   3.225  -2.640
    1   AR   Ar    2   5.547   6.637   0.188
    1   AR   Ar    3   4.331   3.635  -1.079
    1   AR   Ar    4   2.629   0.953   1.300
    1   AR   Ar    5   6.397   5.258  -0.256
    1   AR   Ar    6   1.348   1.850   2.122
    1   AR   Ar    7   5.875   4.599   3.599
    1   AR   Ar    8   6.705   3.164  -1.406
    1   AR   Ar    9   0.221   6.794   4.653
    1   AR   Ar   10   5.511   5.265   5.219
    1   AR   Ar   11   1.126   6.320   4.951
    1   AR   Ar   12   0.186   1.554   4.063
    1   AR   Ar   13   6.886   0.665   4.605
    1   AR   Ar   14   3.822   1.296   6.710
    1   AR   Ar   15   2.948   0.059   9.680
    1   AR   Ar   16   0.879   0.357   6.263
    1   AR   Ar   17   5.999   3.755   1.404
    1   AR   Ar   18   7.041   5.075  -1.603
    1   AR   Ar   19   5.123   4.817   1.109
    1   AR   Ar   20   6.810   4.131  -2.305
    1   AR   Ar   21   2.254   1.565   2.215
    1   AR   Ar   22   5.650   0.806   2.305
    1   AR   Ar   23   0.710   6.683   0.579
    1   AR   Ar   24   5.606   2.593   3.402
    1   AR   Ar   25   0.746   2.734   4.576
    1   AR   Ar   26   5.779   6.803   4.708
    1   AR   Ar   27   2.034   0.306   1.993
    1   AR   Ar   28   1.783   2.213   4.038
    1   AR   Ar   29   4.700   0.855   7.646
    1   AR   Ar   30   0.470   1.260   2.788
    1   AR   Ar   31   2.694   1.244   7.089
    1   AR   Ar   32   1.337   2.585   5.542
    1   AR   Ar   33   0.371   4.139   0.177
    1   AR   Ar   34   1.351   4.881   2.159
    1   AR   Ar   35   5.775   5.343   2.562
    1   AR   Ar   36   5.641   1.946  -2.444
    1   AR   Ar   37   4.037   3.012   1.339
    1   AR   Ar   38   6.695   4.377   4.279
    1   AR   Ar   39   0.325   2.941   3.640
    1   AR   Ar   40   1.229   3.759   1.924
    1   AR   Ar   41   0.937   1.901   3.396
    1   AR   Ar   42   4.817   5.972   6.025
    1   AR   Ar   43   0.300   2.788   5.745
    1   AR   Ar   44   0.312   3.813   3.049
    1   AR   Ar   45   1.051   3.593   5.444
    1   AR   Ar   46   0.046   4.629   6.918
    1   AR   Ar   47   3.914   4.194   7.903
    1   AR   Ar   48   7.093   3.781   7.667
    1   AR   Ar   49   6.916   0.957   0.200
    1   AR   Ar   50   4.186   5.251   0.640
    1   AR   Ar   51   5.735   3.402   2.675
    1   AR   Ar   52   5.411   3.366  -1.239
    1   AR   Ar   53   4.796   0.159   2.886
    1   AR   Ar   54   0.867   0.134   1.878
    1   AR   Ar   55   6.947   4.683   2.381
    1   AR   Ar   56   6.648   1.590   2.740
    1   AR   Ar   57   3.908   4.253   2.143
    1   AR   Ar   58   0.675   3.803   4.168
    1   AR   Ar   59   2.806   5.516   5.529
    1   AR   Ar   60   0.132   5.541   2.904
    1   AR   Ar   61   0.443   3.469   6.791
    1   AR   Ar   62   0.293   4.471   5.103
    1   AR   Ar   63   3.008   2.273   7.162
    1   AR   Ar   64   0.026   5.720   4.810
    1   AR   Ar   65   4.030   0.823   2.211
    1   AR   Ar   66   1.544   1.012   1.442
    1   AR   Ar   67   4.541   0.170  -0.556
    1   AR   Ar   68   0.256   1.023  -1.489
    1   AR   Ar   69   1.840   1.223   0.410
    1   AR   Ar   70   0.439   1.181   1.712
    1   AR   Ar   71   2.875   0.879   2.785
    1   AR   Ar   72   4.397   1.056   1.287
    1   AR   Ar   73   3.048   0.216   3.997
    1   AR   Ar   74   1.045   0.960   4.026
    1   AR   Ar   75   3.135   0.724   5.019
    1   AR   Ar   76   2.425   7.038   1.040
    1   AR   Ar   77   1.783   5.964   5.618
    1   AR   Ar   78   6.942   5.142   5.836
    1   AR   Ar   79   3.130   6.816   5.820
    1   AR   Ar   80   3.883   5.668   5.470
    1   AR   Ar   81   1.461   6.565   1.448
    1   AR   Ar   82   6.257   4.806   0.899
    1   AR   Ar   83   1.099   3.492   0.652
    1   AR   Ar   84   1.107   4.600   1.151
    1   AR   Ar   85   1.472   4.244  -0.152
    1   AR   Ar   86   1.663   5.437   0.976
    1   AR   Ar   87   3.195   3.446   2.241
    1   AR   Ar   88   3.579   5.287   1.576
    1   AR   Ar   89   6.640   2.036   1.117
    1   AR   Ar   90   3.078   1.664   5.499
    1   AR   Ar   91   1.959   1.306   3.152
    1   AR   Ar   92   2.153   2.908   1.690
    1   AR   Ar   93   2.166   0.982   5.403
    1   AR   Ar   94   1.491   6.983   8.500
    1   AR   Ar   95   4.359   1.281   5.319
    1   AR   Ar   96   2.268   0.025   4.901
    1   AR   Ar   97   2.855   2.705  -1.248
    1   AR   Ar   98   1.579   4.456   3.954
    1   AR   Ar   99   5.857   0.329  -0.470
    1   AR   Ar  100   6.801   2.876  -2.960
    1   AR   Ar  101   4.005   6.364   2.432
    1   AR   Ar  102   3.683   1.659   2.663
    1   AR   Ar  103   2.138   4.467   0.723
    1   AR   Ar  104   3.571   6.392  -1.375
    1   AR   Ar  105   2.693   1.965   3.419
    1   AR   Ar  106   4.022   2.294   5.111
    1   AR   Ar  107   0.913   5.296   5.639
    1   AR   Ar  108   2.182   1.262   4.216
    1   AR   Ar  109   1.744   4.421   5.617
    1   AR   Ar  110   2.285   2.270   4.998
    1   AR   Ar  111   3.853   5.919   8.134
    1   AR   Ar  112   6.501   6.414   5.698
    1   AR   Ar  113   0.852   5.936  -1.650
    1   AR   Ar  114   2.476   0.387   0.006
    1   AR   Ar  115   0.927   5.188   0.085
    1   AR   Ar  116   4.598   0.195   0.585
    1   AR   Ar  117   0.429   4.743   3.624
    1   AR   Ar  118   1.757   5.680   3.150
    1   AR   Ar  119   1.701   4.122   2.888
    1   AR   Ar  120   1.920   6.630   2.732
    1   AR   Ar  121   5.477   4.356   5.929
    1   AR   Ar  122   2.841   5.597   4.070
    1   AR   Ar  123   3.318   2.987   5.946
    1   AR   Ar  124   0.756   5.572   1.479
    1   AR   Ar  125   5.856   3.580   4.295
    1   AR   Ar  126   6.700   0.349   7.676
    1   AR   Ar  127   4.548   3.274   6.373
    1   AR   Ar  128   1.980   4.146   6.732
    1   AR   Ar  129   2.100   5.224   4.673
    1   AR   Ar  130   4.042   1.430  -4.880
    1   AR   Ar  131   4.534   6.033  -1.751
    1   AR   Ar  132   0.491   1.788   0.879
    1   AR   Ar  133   4.054   0.098   4.487
    1   AR   Ar  134   3.345   1.379   4.042
    1   AR   Ar  135   5.946   1.430   4.473
    1   AR   Ar  136   5.872   0.005   2.841
    1   AR   Ar  137   2.956   4.014   5.701
    1   AR   Ar  138   5.590   1.213   5.507
    1   AR   Ar  139   6.316   2.193   5.133
    1   AR   Ar  140   4.507   6.403   5.056
    1   AR   Ar  141   4.056   5.715   4.354
    1   AR   Ar  142   4.503   6.442   7.528
    1   AR   Ar  143   5.611   6.586   6.594
    1   AR   Ar  144   0.107   1.850   5.004
    1   AR   Ar  145   4.466   5.292  -0.462
    1   AR   Ar  146   3.575   2.609   3.213
    1   AR   Ar  147   5.014   4.118  -0.445
    1   AR   Ar  148   2.519   6.131  -1.577
    1   AR   Ar  149   0.692   1.606  -0.307
    1   AR   Ar  150   1.969   2.594   3.080
    1   AR   Ar  151   2.743   3.304   3.294
    1   AR   Ar  152   0.877   1.236  -2.623
    1   AR   Ar  153   5.748   0.840   3.483
    1   AR   Ar  154   4.668   2.707   3.765
    1   AR   Ar  155   6.428   3.689   5.537
    1   AR   Ar  156   2.749   4.759   3.236
    1   AR   Ar  157   2.452   5.425   6.711
    1   AR   Ar  158   0.496   1.643   6.067
    1   AR   Ar  159   4.175   0.297   6.270
    1   AR   Ar  160   0.979   0.548   5.167
    1   AR   Ar  161   4.806   4.365   3.411
    1   AR   Ar  162   4.281   6.314  -0.314
    1   AR   Ar  163   5.973   4.327   2.251
    1   AR   Ar  164   1.986   5.699   2.015
    1   AR   Ar  165   3.326   4.253   1.033
    1   AR   Ar  166   2.410   3.703   4.544
    1   AR   Ar  167   6.434   6.873   3.757
    1   AR   Ar  168   5.369   4.130  -2.318
    1   AR   Ar  169   3.812   3.695   3.404
    1   AR   Ar  170   1.999   3.298   5.996
    1   AR   Ar  171   5.066   5.179   4.380
    1   AR   Ar  172   3.567   3.521   4.542
    1   AR   Ar  173   2.303   2.071   6.293
    1   AR   Ar  174   3.303   6.597   4.791
    1   AR   Ar  175   3.162   0.781   6.069
    1   AR   Ar  176   3.102   2.798   4.077
    1   AR   Ar  177   0.591   4.620  -0.741
    1   AR   Ar  178   2.689   6.195   0.418
    1   AR   Ar  179   3.402   7.108   0.716
    1   AR   Ar  180   4.939   0.339  -6.886
    1   AR   Ar  181   6.956   5.967   1.932
    1   AR   Ar  182   1.014   6.163   2.321
    1   AR   Ar  183   4.882   5.611   2.014
    1   AR   Ar  184   4.688   6.180   0.876
    1   AR   Ar  185   2.912   4.579   4.538
    1   AR   Ar  186   2.787   6.015   2.734
    1   AR   Ar  187   3.692   6.609   3.696
    1   AR   Ar  188   3.255   7.108   1.898
    1   AR   Ar  189   6.155   2.720   6.002
    1   AR   Ar  190   2.260   6.728   3.773
    1   AR   Ar  191   3.318   6.169   6.802
    1   AR   Ar  192   3.993   3.987   5.593
    1   AR   Ar  193   2.811   6.077   1.499
    1   AR   Ar  194   5.465   5.121  -1.007
    1   AR   Ar  195   5.429   1.086   0.663
    1   AR   Ar  196   3.472   0.692  -0.096
    1   AR   Ar  197   4.871   3.018   0.698
    1   AR   Ar  198   5.730   0.251   1.249
    1   AR   Ar  199   1.307   0.343   3.065
    1   AR   Ar  200   5.621   2.724  -0.001
    1   AR   Ar  201   6.706   6.601   2.718
    1   AR   Ar  202   4.899   0.623   4.388
    1   AR   Ar  203   0.577   6.783   3.291
    1   AR   Ar  204   4.345   5.013   7.432
    1   AR   Ar  205   5.904   1.839   2.124
    1   AR   Ar  206   5.842   0.544   6.468
    1   AR   Ar  207   6.867   3.358   4.563
    1   AR   Ar  208   1.100   5.964   3.865
    1   AR   Ar  209   0.014   2.018  -1.696
    1   AR   Ar  210   1.282   0.404   0.388
    1   AR   Ar  211   0.087   2.896   0.683
    1   AR   Ar  212   6.231   3.899   0.146
    1   AR   Ar  213   3.524   1.770   1.612
    1   AR   Ar  214   4.996   4.615   2.300
    1   AR   Ar  215   6.676   2.626   1.942
    1   AR   Ar  216   1.402   2.424   0.733
    1   AR   Ar  217   4.982   1.704   3.645
    1   AR   Ar  218   4.711   3.115   4.970
    1   AR   Ar  219   4.797   3.466   2.842
    1   AR   Ar  220   4.686   3.858   1.279
    1   AR   Ar  221   7.038   6.056   3.766
    1   AR   Ar  222   5.027   0.178   5.668
    1   AR   Ar  223   6.250   1.660   6.246
    1   AR   Ar  224   5.029   2.039   5.136
    1   AR   Ar  225   6.558   2.880   2.922
    1   AR   Ar  226   1.623   3.408   3.681
    1   AR   Ar  227   0.924   2.997   2.665
    1   AR   Ar  228   6.548   0.618   1.674
    1   AR   Ar  229   5.963   4.281  -1.145
    1   AR   Ar  230   4.156   4.645   4.091
    1   AR   Ar  231   4.783   2.200   2.531
    1   AR   Ar  232   5.415   2.825   1.793
    1   AR   Ar  233   6.561   2.283   4.048
    1   AR   Ar  234   5.625   2.514   4.482
    1   AR   Ar  235   6.924   0.707   3.333
    1   AR   Ar  236   4.359   4.786   5.078
    1   AR   Ar  237   5.018   1.106   6.484
    1   AR   Ar  238   6.010   5.612   6.279
    1   AR   Ar  239   0.966   4.576  11.449
    1   AR   Ar  240   1.154   2.535   6.590
    1   AR   Ar  241   1.633   6.684  -0.080
    1   AR   Ar  242   5.816   5.601   1.334
    1   AR   Ar  243   5.264   6.257   2.825
    1   AR   Ar  244   6.845   6.025   0.896
    1   AR   Ar  245   3.929   0.591   3.514
    1   AR   Ar  246   5.399   6.544  -0.913
    1   AR   Ar  247   0.106   3.449   1.973
    1   AR   Ar  248   5.415   5.412  -0.059
    1   AR   Ar  249   4.206   6.909   1.485
    1   AR   Ar  250   5.117   6.547   3.895
    1   AR   Ar  251   5.024   4.114   4.924
    1   AR   Ar  252   2.233   4.275   2.079
    1   AR   Ar  253   5.916   2.547   7.847
    1   AR   Ar  254   6.212   3.450  10.105
    1   AR   Ar  255   4.506   6.152   9.173
    1   AR   Ar  256   5.613   5.651   3.556
    7.12000  7.12000 12.00000
Argon-slab step 4960
  256
    1   AR   Ar    1   5.032   3.236  -2.649
    1   AR   Ar    2   5.524   6.662   0.186
    1   AR   Ar    3   4.335   3.650  -1.081
    1   AR   Ar    4   2.652   0.954   1.295
    1   AR   Ar    5   6.386   5.252  -0.249
    1   AR   Ar    6   1.325   1.846   2.124
    1   AR   Ar    7   5.864   4.605   3.590
    1   AR   Ar    8   6.717   3.148  -1.423
    1   AR   Ar    9   0.186   6.793   4.663
    1   AR   Ar   10   5.523   5.263   5.198
    1   AR   Ar   11   1.132   6.310   4.959
    1   AR   Ar   12   0.194   1.553   4.087
    1   AR   Ar   13   6.844   0.685   4.633
    1   AR   Ar   14   3.833   1.281   6.740
    1   AR   Ar   15   2.927   0.036   9.682
    1   AR   Ar   16   0.861   0.325   6.249
    1   AR   Ar   17   5.997   3.713   1.414
    1   AR   Ar   18   7.033   5.077  -1.640
    1   AR   Ar   19   5.169   4.799   1.097
    1   AR   Ar   20   6.819   4.128  -2.322
    1   AR   Ar   21   2.255   1.575   2.199
    1   AR   Ar   22   5.654   0.828   2.290
    1   AR   Ar   23   0.708   6.673   0.551
    1   AR   Ar   24   5.622   2.587   3.427
    1   AR   Ar   25   0.794   2.718   4.587
    1   AR   Ar   26   5.783   6.783   4.715
    1   AR   Ar   27   2.063   0.290   2.014
    1   AR   Ar   28   1.769   2.181   4.022
    1   AR   Ar   29   4.744   0.875   7.648
    1   AR   Ar   30   0.482   1.269   2.789
    1   AR   Ar   31   2.673   1.263   7.085
    1   AR   Ar   32   1.328   2.562   5.554
    1   AR   Ar   33   0.362   4.140   0.183
    1   AR   Ar   34   1.351   4.868   2.170
    1   AR   Ar   35   5.768   5.340   2.550
    1   AR   Ar   36   5.642   1.977  -2.470
    1   AR   Ar   37   4.022   3.022   1.330
    1   AR   Ar   38   6.679   4.366   4.259
    1   AR   Ar   39   0.348   2.955   3.660
    1   AR   Ar   40   1.205   3.761   1.948
    1   AR   Ar   41   0.943   1.874   3.386
    1   AR   Ar   42   4.823   5.973   6.006
    1   AR   Ar   43   0.331   2.810   5.782
    1   AR   Ar   44   0.287   3.808   3.004
    1   AR   Ar   45   1.051   3.575   5.407
    1   AR   Ar   46   0.016   4.640   6.927
    1   AR   Ar   47   3.895   4.125   7.908
    1   AR   Ar   48   7.108   3.774   7.688
    1   AR   Ar   49   6.919   0.993   0.215
    1   AR   Ar   50   4.182   5.275   0.641
    1   AR   Ar   51   5.725   3.393   2.687
    1   AR   Ar   52   5.414   3.346  -1.232
    1   AR   Ar   53   4.803   0.149   2.902
    1   AR   Ar   54   0.874   0.085   1.863
    1   AR   Ar   55   6.936   4.698   2.334
    1   AR   Ar   56   6.634   1.579   2.742
    1   AR   Ar   57   3.927   4.253   2.133
    1   AR   Ar   58   0.694   3.824   4.173
    1   AR   Ar   59   2.809   5.541   5.540
    1   AR   Ar   60   0.132   5.559   2.894
    1   AR   Ar   61   0.442   3.477   6.791
    1   AR   Ar   62   0.288   4.472   5.119
    1   AR   Ar   63   3.005   2.255   7.140
    1   AR   Ar   64   0.017   5.710   4.794
    1   AR   Ar   65   4.026   0.840   2.196
    1   AR   Ar   66   1.554   1.033   1.431
    1   AR   Ar   67   4.536   0.184  -0.571
    1   AR   Ar   68   0.232   1.033  -1.465
    1   AR   Ar   69   1.864   1.244   0.383
    1   AR   Ar   70   0.420   1.205   1.730
    1   AR   Ar   71   2.868   0.904   2.759
    1   AR   Ar   72   4.365   1.051   1.257
    1   AR   Ar   73   3.052   0.249   3.980
    1   AR   Ar   74   1.035   0.972   4.014
    1   AR   Ar   75   3.138   0.736   4.987
    1   AR   Ar   76   2.409   7.026   1.039
    1   AR   Ar   77   1.804   5.939   5.617
    1   AR   Ar   78   6.945   5.170   5.821
    1   AR   Ar   79   3.122   6.782   5.821
    1   AR   Ar   80   3.852   5.673   5.468
    1   AR   Ar   81   1.484   6.552   1.471
    1   AR   Ar   82   6.252   4.803   0.877
    1   AR   Ar   83   1.095   3.508   0.644
    1   AR   Ar   84   1.087   4.587   1.156
    1   AR   Ar   85   1.462   4.233  -0.157
    1   AR   Ar   86   1.671   5.389   0.984
    1   AR   Ar   87   3.221   3.461   2.200
    1   AR   Ar   88   3.576   5.302   1.584
    1   AR   Ar   89   6.665   2.025   1.129
    1   AR   Ar   90   3.102   1.645   5.507
    1   AR   Ar   91   1.948   1.289   3.158
    1   AR   Ar   92   2.158   2.878   1.691
    1   AR   Ar   93   2.155   0.964   5.400
    1   AR   Ar   94   1.484   6.959   8.490
    1   AR   Ar   95   4.364   1.254   5.342
    1   AR   Ar   96   2.273   0.020   4.896
    1   AR   Ar   97   2.873   2.712  -1.246
    1   AR   Ar   98   1.612   4.462   3.996
    1   AR   Ar   99   5.853   0.292  -0.475
    1   AR   Ar  100   6.777   2.862  -2.936
    1   AR   Ar  101   3.994   6.329   2.430
    1   AR   Ar  102   3.678   1.666   2.638
    1   AR   Ar  103   2.146   4.460   0.692
    1   AR   Ar  104   3.558   6.396  -1.371
    1   AR   Ar  105   2.733   1.968   3.420
    1   AR   Ar  106   4.061   2.280   5.112
    1   AR   Ar  107   0.957   5.301   5.653
    1   AR   Ar  108   2.205   1.250   4.236
    1   AR   Ar  109   1.742   4.432   5.602
    1   AR   Ar  110   2.313   2.261   5.033
    1   AR   Ar  111   3.843   5.907   8.143
    1   AR   Ar  112   6.463   6.436   5.670
    1   AR   Ar  113   0.854   5.924  -1.661
    1   AR   Ar  114   2.472   0.368   0.016
    1   AR   Ar  115   0.924   5.209   0.110
    1   AR   Ar  116   4.572   0.195   0.566
    1   AR   Ar  117   0.423   4.726   3.615
    1   AR   Ar  118   1.756   5.691   3.153
    1   AR   Ar  119   1.681   4.153   2.873
    1   AR   Ar  120   1.926   6.635   2.736
    1   AR   Ar  121   5.458   4.348   5.916
    1   AR   Ar  122   2.821   5.596   4.066
    1   AR   Ar  123   3.301   2.943   5.969
    1   AR   Ar  124   0.780   5.604   1.469
    1   AR   Ar  125   5.825   3.587   4.263
    1   AR   Ar  126   6.705   0.346   7.677
    1   AR   Ar  127   4.563   3.270   6.358
    1   AR   Ar  128   1.956   4.141   6.722
    1   AR   Ar  129   2.090   5.225   4.621
    1   AR   Ar  130   4.046   1.418  -4.879
    1   AR   Ar  131   4.551   6.059  -1.748
    1   AR   Ar  132   0.489   1.819   0.901
    1   AR   Ar  133   4.059   0.124   4.495
    1   AR   Ar  134   3.320   1.381   4.037
    1   AR   Ar  135   5.948   1.418   4.469
    1   AR   Ar  136   5.818   0.004   2.848
    1   AR   Ar  137   2.972   4.028   5.745
    1   AR   Ar  138   5.577   1.219   5.515
    1   AR   Ar  139   6.318   2.168   5.131
    1   AR   Ar  140   4.502   6.386   5.073
    1   AR   Ar  141   4.035   5.716   4.354
    1   AR   Ar  142   4.511   6.430   7.559
    1   AR   Ar  143   5.595   6.584   6.614
    1   AR   Ar  144   0.138   1.870   5.002
    1   AR   Ar  145   4.489   5.289  -0.474
    1   AR   Ar  146   3.582   2.589   3.242
    1   AR   Ar  147   5.010   4.098  -0.429
    1   AR   Ar  148   2.517   6.116  -1.567
    1   AR   Ar  149   0.701   1.633  -0.315
    1   AR   Ar  150   1.966   2.603   3.082
    1   AR   Ar  151   2.766   3.314   3.264
    1   AR   Ar  152   0.874   1.216  -2.592
    1   AR   Ar  153   5.728   0.839   3.447
    1   AR   Ar  154   4.708   2.682   3.776
    1   AR   Ar  155   6.406   3.679   5.514
    1   AR   Ar  156   2.703   4.743   3.232
    1   AR   Ar  157   2.502   5.421   6.725
    1   AR   Ar  158   0.485   1.659   6.092
    1   AR   Ar  159   4.175   0.276   6.238
    1   AR   Ar  160   0.989   0.556   5.173
    1   AR   Ar  161   4.841   4.340   3.405
    1   AR   Ar  162   4.278   6.319  -0.305
    1   AR   Ar  163   5.992   4.286   2.244
    1   AR   Ar  164   1.996   5.705   2.041
    1   AR   Ar  165   3.326   4.252   1.039
    1   AR   Ar  166   2.395   3.723   4.547
    1   AR   Ar  167   6.435   6.903   3.743
    1   AR   Ar  168   5.394   4.130  -2.313
    1   AR   Ar  169   3.821   3.714   3.388
    1   AR   Ar  170   2.016   3.299   5.987
    1   AR   Ar  171   5.051   5.190   4.379
    1   AR   Ar  172   3.548   3.497   4.560
    1   AR   Ar  173   2.307   2.105   6.295
    1   AR   Ar  174   3.306   6.623   4.784
    1   AR   Ar  175   3.134   0.805   6.084
    1   AR   Ar  176   3.118   2.810   4.079
    1   AR   Ar  177   0.606   4.597  -0.774
    1   AR   Ar  178   2.698   6.206   0.421
    1   AR   Ar  179   3.387   7.084   0.702
    1   AR   Ar  180   4.930   0.351  -6.895
    1   AR   Ar  181   6.967   5.975   1.948
    1   AR   Ar  182   1.034   6.173   2.310
    1   AR   Ar  183   4.878   5.640   2.033
    1   AR   Ar  184   4.643   6.204   0.842
    1   AR   Ar  185   2.944   4.548   4.519
    1   AR   Ar  186   2.763   6.010   2.747
    1   AR   Ar  187   3.690   6.603   3.695
    1   AR   Ar  188   3.229   0.023   1.892
    1   AR   Ar  189   6.146   2.735   5.986
    1   AR   Ar  190   2.231   6.738   3.805
    1   AR   Ar  191   3.303   6.161   6.809
    1   AR   Ar  192   3.978   3.925   5.564
    1   AR   Ar  193   2.805   6.138   1.464
    1   AR   Ar  194   5.433   5.151  -1.036
    1   AR   Ar  195   5.424   1.092   0.646
    1   AR   Ar  196   3.475   0.683  -0.062
    1   AR   Ar  197   4.843   3.010   0.687
    1   AR   Ar  198   5.739   0.236   1.233
    1   AR   Ar  199   1.336   0.344   3.068
    1   AR   Ar  200   5.630   2.699  -0.016
    1   AR   Ar  201   6.695   6.587   2.710
    1   AR   Ar  202   4.915   0.603   4.379
    1   AR   Ar  203   0.518   6.781   3.286
    1   AR   Ar  204   4.340   4.966   7.459
    1   AR   Ar  205   5.897   1.845   2.114
    1   AR   Ar  206   5.860   0.528   6.464
    1   AR   Ar  207   6.841   3.368   4.521
    1   AR   Ar  208   1.101   5.978   3.876
    1   AR   Ar  209   7.107   2.038  -1.695
    1   AR   Ar  210   1.266   0.413   0.386
    1   AR   Ar  211   0.102   2.923   0.659
    1   AR   Ar  212   6.240   3.919   0.135
    1   AR   Ar  213   3.518   1.753   1.610
    1   AR   Ar  214   5.002   4.643   2.305
    1   AR   Ar  215   6.669   2.616   1.948
    1   AR   Ar  216   1.430   2.417   0.695
    1   AR   Ar  217   5.014   1.720   3.643
    1   AR   Ar  218   4.730   3.074   4.962
    1   AR   Ar  219   4.776   3.451   2.829
    1   AR   Ar  220   4.670   3.877   1.287
    1   AR   Ar  221   7.036   6.027   3.759
    1   AR   Ar  222   4.998   0.179   5.714
    1   AR   Ar  223   6.221   1.641   6.256
    1   AR   Ar  224   5.032   2.020   5.147
    1   AR   Ar  225   6.556   2.913   2.889
    1   AR   Ar  226   1.617   3.439   3.647
    1   AR   Ar  227   0.927   3.008   2.683
    1   AR   Ar  228   6.552   0.582   1.681
    1   AR   Ar  229   5.955   4.319  -1.136
    1   AR   Ar  230   4.125   4.647   4.086
    1   AR   Ar  231   4.760   2.201   2.517
    1   AR   Ar  232   5.421   2.819   1.806
    1   AR   Ar  233   6.555   2.304   4.062
    1   AR   Ar  234   5.623   2.525   4.490
    1   AR   Ar  235   6.913   0.704   3.371
    1   AR   Ar  236   4.346   4.774   5.086
    1   AR   Ar  237   5.004   1.070   6.550
    1   AR   Ar  238   5.994   5.630   6.266
    1   AR   Ar  239   0.962   4.573  11.486
    1   AR   Ar  240   1.151   2.515   6.595
    1   AR   Ar  241   1.646   6.688  -0.076
    1   AR   Ar  242   5.798   5.580   1.345
    1   AR   Ar  243   5.240   6.261   2.779
    1   AR   Ar  244   6.816   6.044   0.920
    1   AR   Ar  245   3.946   0.592   3.526
    1   AR   Ar  246   5.372   6.534  -0.933
    1   AR   Ar  247   0.111   3.466   1.995
    1   AR   Ar  248   5.411   5.405  -0.021
    1   AR   Ar  249   4.214   6.883   1.468
    1   AR   Ar  250   5.140   6.553   3.942
    1   AR   Ar  251   5.043   4.104   4.928
    1   AR   Ar  252   2.248   4.288   2.073
    1   AR   Ar  253   5.887   2.556   7.833
    1   AR   Ar  254   6.193   3.422  10.117
    1   AR   Ar  255   4.483   6.166   9.152
    1   AR   Ar  256   5.616   5.665   3.577
    7.12000  7.12000 12.00000
Argon-slab step 4965
  256
    1   AR   Ar    1   5.047   3.241  -2.660
    1   AR   Ar    2   5.499   6.685   0.187
    1   AR   Ar    3   4.338   3.662  -1.085
    1   AR   Ar    4   2.676   0.954   1.290
    1   AR   Ar    5   6.382   5.244  -0.243
    1   AR   Ar    6   1.286   1.848   2.128
    1   AR   Ar    7   5.853   4.611   3.580
    1   AR   Ar    8   6.727   3.133  -1.440
    1   AR   Ar    9   0.150   6.792   4.671
    1   AR   Ar   10   5.545   5.262   5.199
    1   AR   Ar   11   1.133   6.302   4.961
    1   AR   Ar   12   0.199   1.548   4.097
    1   AR   Ar   13   6.803   0.706   4.659
    1   AR   Ar   14   3.845   1.266   6.772
    1   AR   Ar   15   2.906   0.013   9.684
    1   AR   Ar   16   0.853   0.303   6.256
    1   AR   Ar   17   5.994   3.696   1.418
    1   AR   Ar   18   7.025   5.079  -1.676
    1   AR   Ar   19   5.212   4.780   1.086
    1   AR   Ar   20   6.840   4.127  -2.321
    1   AR   Ar   21   2.271   1.582   2.179
    1   AR   Ar   22   5.655   0.853   2.271
    1   AR   Ar   23   0.704   6.659   0.525
    1   AR   Ar   24   5.650   2.582   3.445
    1   AR   Ar   25   0.844   2.702   4.600
    1   AR   Ar   26   5.791   6.764   4.727
    1   AR   Ar   27   2.092   0.275   2.035
    1   AR   Ar   28   1.755   2.151   4.008
    1   AR   Ar   29   4.788   0.894   7.650
    1   AR   Ar   30   0.486   1.276   2.782
    1   AR   Ar   31   2.652   1.279   7.078
    1   AR   Ar   32   1.323   2.535   5.563
    1   AR   Ar   33   0.350   4.143   0.190
    1   AR   Ar   34   1.365   4.836   2.174
    1   AR   Ar   35   5.766   5.337   2.537
    1   AR   Ar   36   5.643   2.009  -2.495
    1   AR   Ar   37   4.002   3.030   1.325
    1   AR   Ar   38   6.664   4.358   4.238
    1   AR   Ar   39   0.362   2.939   3.664
    1   AR   Ar   40   1.182   3.763   1.970
    1   AR   Ar   41   0.959   1.860   3.384
    1   AR   Ar   42   4.830   5.974   5.988
    1   AR   Ar   43   0.358   2.832   5.819
    1   AR   Ar   44   0.262   3.806   2.961
    1   AR   Ar   45   1.049   3.559   5.368
    1   AR   Ar   46   7.106   4.650   6.934
    1   AR   Ar   47   3.875   4.054   7.915
    1   AR   Ar   48   0.001   3.769   7.711
    1   AR   Ar   49   6.922   1.031   0.231
    1   AR   Ar   50   4.179   5.296   0.642
    1   AR   Ar   51   5.725   3.433   2.711
    1   AR   Ar   52   5.417   3.327  -1.225
    1   AR   Ar   53   4.803   0.140   2.918
    1   AR   Ar   54   0.873   0.046   1.854
    1   AR   Ar   55   6.930   4.713   2.287
    1   AR   Ar   56   6.620   1.569   2.749
    1   AR   Ar   57   3.948   4.254   2.123
    1   AR   Ar   58   0.714   3.846   4.179
    1   AR   Ar   59   2.809   5.569   5.554
    1   AR   Ar   60   0.137   5.575   2.880
    1   AR   Ar   61   0.443   3.483   6.786
    1   AR   Ar   62   0.283   4.471   5.134
    1   AR   Ar   63   3.013   2.267   7.104
    1   AR   Ar   64   0.009   5.697   4.781
    1   AR   Ar   65   4.022   0.846   2.182
    1   AR   Ar   66   1.561   1.054   1.419
    1   AR   Ar   67   4.532   0.199  -0.585
    1   AR   Ar   68   0.210   1.041  -1.440
    1   AR   Ar   69   1.892   1.270   0.358
    1   AR   Ar   70   0.401   1.227   1.749
    1   AR   Ar   71   2.865   0.927   2.733
    1   AR   Ar   72   4.336   1.047   1.221
    1   AR   Ar   73   3.052   0.288   3.966
    1   AR   Ar   74   1.031   0.979   4.000
    1   AR   Ar   75   3.142   0.744   4.950
    1   AR   Ar   76   2.387   7.018   1.040
    1   AR   Ar   77   1.832   5.914   5.621
    1   AR   Ar   78   6.947   5.198   5.807
    1   AR   Ar   79   3.134   6.768   5.830
    1   AR   Ar   80   3.821   5.678   5.468
    1   AR   Ar   81   1.488   6.522   1.515
    1   AR   Ar   82   6.251   4.795   0.851
    1   AR   Ar   83   1.092   3.525   0.638
    1   AR   Ar   84   1.063   4.565   1.160
    1   AR   Ar   85   1.452   4.222  -0.160
    1   AR   Ar   86   1.686   5.349   0.991
    1   AR   Ar   87   3.247   3.461   2.228
    1   AR   Ar   88   3.573   5.316   1.592
    1   AR   Ar   89   6.680   2.011   1.137
    1   AR   Ar   90   3.127   1.634   5.513
    1   AR   Ar   91   1.930   1.271   3.167
    1   AR   Ar   92   2.163   2.848   1.694
    1   AR   Ar   93   2.138   0.946   5.410
    1   AR   Ar   94   1.477   6.935   8.480
    1   AR   Ar   95   4.367   1.220   5.366
    1   AR   Ar   96   2.278   0.014   4.888
    1   AR   Ar   97   2.891   2.719  -1.244
    1   AR   Ar   98   1.645   4.468   4.037
    1   AR   Ar   99   5.849   0.258  -0.480
    1   AR   Ar  100   6.753   2.847  -2.911
    1   AR   Ar  101   3.983   6.294   2.428
    1   AR   Ar  102   3.670   1.680   2.621
    1   AR   Ar  103   2.154   4.451   0.661
    1   AR   Ar  104   3.546   6.401  -1.365
    1   AR   Ar  105   2.771   1.971   3.420
    1   AR   Ar  106   4.087   2.266   5.114
    1   AR   Ar  107   0.998   5.304   5.666
    1   AR   Ar  108   2.230   1.235   4.257
    1   AR   Ar  109   1.740   4.443   5.586
    1   AR   Ar  110   2.341   2.252   5.069
    1   AR   Ar  111   3.830   5.892   8.154
    1   AR   Ar  112   6.425   6.458   5.640
    1   AR   Ar  113   0.877   5.972  -1.649
    1   AR   Ar  114   2.465   0.347   0.027
    1   AR   Ar  115   0.917   5.228   0.135
    1   AR   Ar  116   4.547   0.196   0.544
    1   AR   Ar  117   0.417   4.711   3.606
    1   AR   Ar  118   1.760   5.696   3.152
    1   AR   Ar  119   1.657   4.181   2.870
    1   AR   Ar  120   1.924   6.657   2.742
    1   AR   Ar  121   5.437   4.341   5.903
    1   AR   Ar  122   2.816   5.603   4.053
    1   AR   Ar  123   3.283   2.899   5.992
    1   AR   Ar  124   0.801   5.635   1.458
    1   AR   Ar  125   5.792   3.595   4.229
    1   AR   Ar  126   6.716   0.330   7.651
    1   AR   Ar  127   4.578   3.266   6.342
    1   AR   Ar  128   1.933   4.136   6.710
    1   AR   Ar  129   2.071   5.224   4.578
    1   AR   Ar  130   4.050   1.406  -4.878
    1   AR   Ar  131   4.569   6.084  -1.744
    1   AR   Ar  132   0.499   1.850   0.915
    1   AR   Ar  133   4.059   0.150   4.506
    1   AR   Ar  134   3.297   1.381   4.035
    1   AR   Ar  135   5.948   1.405   4.463
    1   AR   Ar  136   5.770   7.117   2.857
    1   AR   Ar  137   2.980   4.041   5.789
    1   AR   Ar  138   5.564   1.219   5.523
    1   AR   Ar  139   6.317   2.142   5.134
    1   AR   Ar  140   4.493   6.398   5.073
    1   AR   Ar  141   4.013   5.717   4.355
    1   AR   Ar  142   4.523   6.422   7.585
    1   AR   Ar  143   5.577   6.584   6.634
    1   AR   Ar  144   0.178   1.892   5.013
    1   AR   Ar  145   4.509   5.284  -0.487
    1   AR   Ar  146   3.598   2.568   3.261
    1   AR   Ar  147   5.010   4.081  -0.410
    1   AR   Ar  148   2.516   6.104  -1.551
    1   AR   Ar  149   0.709   1.660  -0.322
    1   AR   Ar  150   1.959   2.613   3.077
    1   AR   Ar  151   2.785   3.330   3.230
    1   AR   Ar  152   0.871   1.197  -2.561
    1   AR   Ar  153   5.707   0.842   3.414
    1   AR   Ar  154   4.734   2.666   3.792
    1   AR   Ar  155   6.384   3.672   5.490
    1   AR   Ar  156   2.654   4.726   3.230
    1   AR   Ar  157   2.551   5.417   6.736
    1   AR   Ar  158   0.473   1.678   6.115
    1   AR   Ar  159   4.163   0.257   6.212
    1   AR   Ar  160   0.999   0.564   5.177
    1   AR   Ar  161   4.878   4.315   3.397
    1   AR   Ar  162   4.276   6.324  -0.294
    1   AR   Ar  163   6.010   4.251   2.241
    1   AR   Ar  164   2.006   5.711   2.066
    1   AR   Ar  165   3.327   4.252   1.047
    1   AR   Ar  166   2.375   3.731   4.545
    1   AR   Ar  167   6.431   6.923   3.719
    1   AR   Ar  168   5.422   4.136  -2.303
    1   AR   Ar  169   3.830   3.734   3.372
    1   AR   Ar  170   2.034   3.301   5.976
    1   AR   Ar  171   5.025   5.197   4.357
    1   AR   Ar  172   3.542   3.491   4.591
    1   AR   Ar  173   2.310   2.140   6.294
    1   AR   Ar  174   3.296   6.643   4.782
    1   AR   Ar  175   3.123   0.822   6.097
    1   AR   Ar  176   3.116   2.804   4.084
    1   AR   Ar  177   0.620   4.574  -0.808
    1   AR   Ar  178   2.707   6.217   0.421
    1   AR   Ar  179   3.377   7.058   0.689
    1   AR   Ar  180   4.920   0.364  -6.904
    1   AR   Ar  181   6.979   5.978   1.962
    1   AR   Ar  182   1.050   6.182   2.309
    1   AR   Ar  183   4.869   5.671   2.045
    1   AR   Ar  184   4.603   6.225   0.804
    1   AR   Ar  185   2.985   4.525   4.500
    1   AR   Ar  186   2.744   6.003   2.761
    1   AR   Ar  187   3.701   6.599   3.696
    1   AR   Ar  188   3.200   0.059   1.885
    1   AR   Ar  189   6.136   2.750   5.974
    1   AR   Ar  190   2.199   6.744   3.836
    1   AR   Ar  191   3.291   6.153   6.815
    1   AR   Ar  192   3.968   3.858   5.535
    1   AR   Ar  193   2.801   6.198   1.433
    1   AR   Ar  194   5.395   5.189  -1.067
    1   AR   Ar  195   5.423   1.067   0.655
    1   AR   Ar  196   3.482   0.675  -0.029
    1   AR   Ar  197   4.819   3.001   0.675
    1   AR   Ar  198   5.739   0.215   1.212
    1   AR   Ar  199   1.365   0.348   3.070
    1   AR   Ar  200   5.640   2.674  -0.031
    1   AR   Ar  201   6.685   6.573   2.707
    1   AR   Ar  202   4.942   0.588   4.368
    1   AR   Ar  203   0.459   6.779   3.281
    1   AR   Ar  204   4.335   4.923   7.486
    1   AR   Ar  205   5.884   1.856   2.099
    1   AR   Ar  206   5.883   0.510   6.458
    1   AR   Ar  207   6.819   3.372   4.480
    1   AR   Ar  208   1.095   5.994   3.891
    1   AR   Ar  209   7.087   2.030  -1.693
    1   AR   Ar  210   1.248   0.425   0.386
    1   AR   Ar  211   0.118   2.950   0.636
    1   AR   Ar  212   6.248   3.940   0.124
    1   AR   Ar  213   3.512   1.736   1.605
    1   AR   Ar  214   4.996   4.634   2.288
    1   AR   Ar  215   6.660   2.603   1.951
    1   AR   Ar  216   1.458   2.410   0.658
    1   AR   Ar  217   5.048   1.729   3.642
    1   AR   Ar  218   4.751   3.035   4.953
    1   AR   Ar  219   4.748   3.433   2.817
    1   AR   Ar  220   4.663   3.895   1.285
    1   AR   Ar  221   7.033   5.999   3.758
    1   AR   Ar  222   4.981   0.179   5.751
    1   AR   Ar  223   6.217   1.634   6.248
    1   AR   Ar  224   5.042   2.002   5.159
    1   AR   Ar  225   6.565   2.942   2.870
    1   AR   Ar  226   1.617   3.448   3.632
    1   AR   Ar  227   0.932   3.016   2.703
    1   AR   Ar  228   6.567   0.551   1.694
    1   AR   Ar  229   5.954   4.347  -1.128
    1   AR   Ar  230   4.087   4.648   4.080
    1   AR   Ar  231   4.738   2.202   2.504
    1   AR   Ar  232   5.427   2.813   1.818
    1   AR   Ar  233   6.551   2.326   4.073
    1   AR   Ar  234   5.618   2.555   4.474
    1   AR   Ar  235   6.886   0.693   3.401
    1   AR   Ar  236   4.325   4.776   5.100
    1   AR   Ar  237   4.984   1.038   6.615
    1   AR   Ar  238   5.976   5.646   6.252
    1   AR   Ar  239   0.958   4.569  11.524
    1   AR   Ar  240   1.148   2.497   6.601
    1   AR   Ar  241   1.663   6.688  -0.072
    1   AR   Ar  242   5.779   5.569   1.362
    1   AR   Ar  243   5.214   6.268   2.735
    1   AR   Ar  244   6.786   6.062   0.940
    1   AR   Ar  245   3.964   0.596   3.534
    1   AR   Ar  246   5.367   6.527  -0.952
    1   AR   Ar  247   0.119   3.489   2.016
    1   AR   Ar  248   5.403   5.402   0.027
    1   AR   Ar  249   4.220   6.863   1.457
    1   AR   Ar  250   5.157   6.560   3.984
    1   AR   Ar  251   5.071   4.086   4.928
    1   AR   Ar  252   2.271   4.302   2.057
    1   AR   Ar  253   5.857   2.565   7.819
    1   AR   Ar  254   6.174   3.395  10.129
    1   AR   Ar  255   4.459   6.180   9.130
    1   AR   Ar  256   5.622   5.677   3.600
    7.12000  7.12000 12.00000
Argon-slab step 4970
  256
    1   AR   Ar    1   5.061   3.242  -2.671
    1   AR   Ar    2   5.469   6.704   0.193
    1   AR   Ar    3   4.326   3.666  -1.091
    1   AR   Ar    4   2.700   0.954   1.285
    1   AR   Ar    5   6.382   5.233  -0.239
    1   AR   Ar    6   1.239   1.852   2.133
    1   AR   Ar    7   5.845   4.617   3.569
    1   AR   Ar    8   6.737   3.117  -1.458
    1   AR   Ar    9   0.114   6.791   4.677
    1   AR   Ar   10   5.572   5.262   5.210
    1   AR   Ar   11   1.132   6.295   4.961
    1   AR   Ar   12   0.196   1.541   4.094
    1   AR   Ar   13   6.761   0.728   4.684
    1   AR   Ar   14   3.858   1.251   6.803
    1   AR   Ar   15   2.885   7.110   9.686
    1   AR   Ar   16   0.846   0.283   6.267
    1   AR   Ar   17   5.990   3.695   1.413
    1   AR   Ar   18   7.018   5.079  -1.711
    1   AR   Ar   19   5.250   4.757   1.072
    1   AR   Ar   20   6.860   4.127  -2.319
    1   AR   Ar   21   2.293   1.591   2.157
    1   AR   Ar   22   5.655   0.877   2.251
    1   AR   Ar   23   0.699   6.641   0.502
    1   AR   Ar   24   5.644   2.594   3.449
    1   AR   Ar   25   0.893   2.687   4.613
    1   AR   Ar   26   5.799   6.748   4.736
    1   AR   Ar   27   2.092   0.261   2.050
    1   AR   Ar   28   1.741   2.123   3.998
    1   AR   Ar   29   4.830   0.913   7.653
    1   AR   Ar   30   0.487   1.270   2.769
    1   AR   Ar   31   2.630   1.292   7.070
    1   AR   Ar   32   1.323   2.504   5.569
    1   AR   Ar   33   0.337   4.148   0.198
    1   AR   Ar   34   1.373   4.813   2.171
    1   AR   Ar   35   5.769   5.333   2.525
    1   AR   Ar   36   5.644   2.042  -2.521
    1   AR   Ar   37   3.978   3.039   1.323
    1   AR   Ar   38   6.650   4.355   4.218
    1   AR   Ar   39   0.375   2.923   3.667
    1   AR   Ar   40   1.159   3.767   1.990
    1   AR   Ar   41   0.983   1.859   3.388
    1   AR   Ar   42   4.839   5.973   5.971
    1   AR   Ar   43   0.380   2.853   5.856
    1   AR   Ar   44   0.238   3.809   2.926
    1   AR   Ar   45   1.047   3.546   5.328
    1   AR   Ar   46   7.076   4.659   6.941
    1   AR   Ar   47   3.854   3.981   7.922
    1   AR   Ar   48   0.013   3.764   7.735
    1   AR   Ar   49   6.926   1.069   0.248
    1   AR   Ar   50   4.175   5.312   0.641
    1   AR   Ar   51   5.717   3.435   2.707
    1   AR   Ar   52   5.421   3.309  -1.217
    1   AR   Ar   53   4.790   0.135   2.936
    1   AR   Ar   54   0.853   0.031   1.863
    1   AR   Ar   55   6.929   4.730   2.240
    1   AR   Ar   56   6.597   1.572   2.757
    1   AR   Ar   57   3.971   4.256   2.111
    1   AR   Ar   58   0.697   3.854   4.183
    1   AR   Ar   59   2.808   5.595   5.568
    1   AR   Ar   60   0.146   5.587   2.862
    1   AR   Ar   61   0.445   3.489   6.777
    1   AR   Ar   62   0.279   4.469   5.146
    1   AR   Ar   63   3.029   2.300   7.059
    1   AR   Ar   64   0.002   5.683   4.770
    1   AR   Ar   65   4.019   0.843   2.171
    1   AR   Ar   66   1.568   1.074   1.406
    1   AR   Ar   67   4.530   0.216  -0.599
    1   AR   Ar   68   0.189   1.046  -1.414
    1   AR   Ar   69   1.921   1.297   0.333
    1   AR   Ar   70   0.381   1.246   1.767
    1   AR   Ar   71   2.865   0.946   2.709
    1   AR   Ar   72   4.308   1.043   1.181
    1   AR   Ar   73   3.048   0.328   3.954
    1   AR   Ar   74   1.033   0.981   3.986
    1   AR   Ar   75   3.148   0.749   4.913
    1   AR   Ar   76   2.355   7.019   1.039
    1   AR   Ar   77   1.863   5.890   5.626
    1   AR   Ar   78   6.948   5.227   5.793
    1   AR   Ar   79   3.159   6.767   5.847
    1   AR   Ar   80   3.829   5.683   5.486
    1   AR   Ar   81   1.515   6.484   1.539
    1   AR   Ar   82   6.254   4.783   0.822
    1   AR   Ar   83   1.092   3.540   0.635
    1   AR   Ar   84   1.035   4.537   1.162
    1   AR   Ar   85   1.440   4.212  -0.163
    1   AR   Ar   86   1.709   5.317   0.997
    1   AR   Ar   87   3.272   3.460   2.256
    1   AR   Ar   88   3.574   5.328   1.605
    1   AR   Ar   89   6.675   2.003   1.123
    1   AR   Ar   90   3.153   1.634   5.517
    1   AR   Ar   91   1.924   1.258   3.161
    1   AR   Ar   92   2.167   2.817   1.697
    1   AR   Ar   93   2.145   0.959   5.365
    1   AR   Ar   94   1.470   6.911   8.470
    1   AR   Ar   95   4.367   1.215   5.360
    1   AR   Ar   96   2.285   0.007   4.880
    1   AR   Ar   97   2.910   2.727  -1.242
    1   AR   Ar   98   1.675   4.471   4.074
    1   AR   Ar   99   5.847   0.230  -0.488
    1   AR   Ar  100   6.729   2.833  -2.884
    1   AR   Ar  101   3.972   6.260   2.426
    1   AR   Ar  102   3.659   1.700   2.614
    1   AR   Ar  103   2.162   4.440   0.633
    1   AR   Ar  104   3.537   6.407  -1.358
    1   AR   Ar  105   2.770   1.979   3.426
    1   AR   Ar  106   4.097   2.253   5.115
    1   AR   Ar  107   1.034   5.304   5.678
    1   AR   Ar  108   2.254   1.195   4.261
    1   AR   Ar  109   1.771   4.459   5.594
    1   AR   Ar  110   2.368   2.244   5.104
    1   AR   Ar  111   3.815   5.874   8.167
    1   AR   Ar  112   6.386   6.479   5.610
    1   AR   Ar  113   0.899   6.019  -1.636
    1   AR   Ar  114   2.456   0.325   0.041
    1   AR   Ar  115   0.893   5.247   0.149
    1   AR   Ar  116   4.522   0.196   0.520
    1   AR   Ar  117   0.411   4.699   3.596
    1   AR   Ar  118   1.765   5.696   3.150
    1   AR   Ar  119   1.632   4.205   2.878
    1   AR   Ar  120   1.920   6.681   2.748
    1   AR   Ar  121   5.407   4.339   5.891
    1   AR   Ar  122   2.829   5.614   4.033
    1   AR   Ar  123   3.265   2.854   6.013
    1   AR   Ar  124   0.806   5.646   1.461
    1   AR   Ar  125   5.770   3.577   4.204
    1   AR   Ar  126   6.726   0.314   7.624
    1   AR   Ar  127   4.591   3.263   6.323
    1   AR   Ar  128   1.910   4.132   6.697
    1   AR   Ar  129   2.045   5.224   4.545
    1   AR   Ar  130   4.053   1.393  -4.878
    1   AR   Ar  131   4.588   6.109  -1.737
    1   AR   Ar  132   0.522   1.881   0.923
    1   AR   Ar  133   4.054   0.174   4.519
    1   AR   Ar  134   3.280   1.376   4.038
    1   AR   Ar  135   5.946   1.392   4.454
    1   AR   Ar  136   5.738   7.105   2.864
    1   AR   Ar  137   2.983   4.055   5.832
    1   AR   Ar  138   5.553   1.212   5.532
    1   AR   Ar  139   6.312   2.116   5.141
    1   AR   Ar  140   4.483   6.421   5.067
    1   AR   Ar  141   3.989   5.719   4.355
    1   AR   Ar  142   4.537   6.415   7.608
    1   AR   Ar  143   5.558   6.584   6.652
    1   AR   Ar  144   0.223   1.918   5.036
    1   AR   Ar  145   4.523   5.277  -0.500
    1   AR   Ar  146   3.626   2.548   3.269
    1   AR   Ar  147   5.014   4.068  -0.388
    1   AR   Ar  148   2.515   6.093  -1.535
    1   AR   Ar  149   0.707   1.685  -0.328
    1   AR   Ar  150   1.951   2.620   3.067
    1   AR   Ar  151   2.801   3.348   3.195
    1   AR   Ar  152   0.867   1.177  -2.528
    1   AR   Ar  153   5.687   0.850   3.386
    1   AR   Ar  154   4.743   2.661   3.815
    1   AR   Ar  155   6.363   3.666   5.463
    1   AR   Ar  156   2.604   4.710   3.228
    1   AR   Ar  157   2.597   5.410   6.746
    1   AR   Ar  158   0.462   1.697   6.137
    1   AR   Ar  159   4.128   0.242   6.199
    1   AR   Ar  160   1.010   0.573   5.178
    1   AR   Ar  161   4.912   4.291   3.389
    1   AR   Ar  162   4.274   6.329  -0.282
    1   AR   Ar  163   6.029   4.230   2.241
    1   AR   Ar  164   2.014   5.716   2.087
    1   AR   Ar  165   3.329   4.252   1.057
    1   AR   Ar  166   2.350   3.731   4.543
    1   AR   Ar  167   6.426   6.941   3.699
    1   AR   Ar  168   5.452   4.146  -2.290
    1   AR   Ar  169   3.839   3.753   3.357
    1   AR   Ar  170   2.052   3.302   5.964
    1   AR   Ar  171   4.993   5.203   4.325
    1   AR   Ar  172   3.544   3.502   4.631
    1   AR   Ar  173   2.307   2.150   6.293
    1   AR   Ar  174   3.306   6.635   4.805
    1   AR   Ar  175   3.113   0.817   6.076
    1   AR   Ar  176   3.099   2.783   4.092
    1   AR   Ar  177   0.633   4.553  -0.842
    1   AR   Ar  178   2.715   6.227   0.412
    1   AR   Ar  179   3.370   7.029   0.681
    1   AR   Ar  180   4.911   0.376  -6.912
    1   AR   Ar  181   6.995   5.977   1.969
    1   AR   Ar  182   1.056   6.186   2.326
    1   AR   Ar  183   4.852   5.694   2.043
    1   AR   Ar  184   4.571   6.243   0.759
    1   AR   Ar  185   3.031   4.510   4.480
    1   AR   Ar  186   2.730   5.996   2.777
    1   AR   Ar  187   3.713   6.593   3.697
    1   AR   Ar  188   3.177   0.078   1.875
    1   AR   Ar  189   6.125   2.765   5.964
    1   AR   Ar  190   2.166   6.748   3.867
    1   AR   Ar  191   3.282   6.148   6.820
    1   AR   Ar  192   3.963   3.787   5.505
    1   AR   Ar  193   2.802   6.250   1.413
    1   AR   Ar  194   5.355   5.234  -1.099
    1   AR   Ar  195   5.420   1.043   0.664
    1   AR   Ar  196   3.493   0.671   0.001
    1   AR   Ar  197   4.799   2.991   0.660
    1   AR   Ar  198   5.732   0.189   1.189
    1   AR   Ar  199   1.390   0.355   3.073
    1   AR   Ar  200   5.650   2.650  -0.047
    1   AR   Ar  201   6.674   6.564   2.710
    1   AR   Ar  202   4.978   0.578   4.355
    1   AR   Ar  203   0.403   6.778   3.275
    1   AR   Ar  204   4.331   4.882   7.512
    1   AR   Ar  205   5.867   1.871   2.080
    1   AR   Ar  206   5.908   0.491   6.451
    1   AR   Ar  207   6.799   3.369   4.441
    1   AR   Ar  208   1.086   6.011   3.909
    1   AR   Ar  209   7.072   2.007  -1.692
    1   AR   Ar  210   1.230   0.441   0.390
    1   AR   Ar  211   0.133   2.977   0.615
    1   AR   Ar  212   6.271   3.920   0.099
    1   AR   Ar  213   3.504   1.718   1.596
    1   AR   Ar  214   4.987   4.621   2.271
    1   AR   Ar  215   6.650   2.590   1.948
    1   AR   Ar  216   1.486   2.402   0.622
    1   AR   Ar  217   5.084   1.727   3.640
    1   AR   Ar  218   4.773   3.002   4.943
    1   AR   Ar  219   4.755   3.415   2.806
    1   AR   Ar  220   4.657   3.914   1.284
    1   AR   Ar  221   7.027   5.973   3.764
    1   AR   Ar  222   4.987   0.177   5.776
    1   AR   Ar  223   6.250   1.645   6.213
    1   AR   Ar  224   5.060   1.987   5.170
    1   AR   Ar  225   6.585   2.970   2.864
    1   AR   Ar  226   1.617   3.439   3.631
    1   AR   Ar  227   0.938   3.021   2.724
    1   AR   Ar  228   6.582   0.537   1.721
    1   AR   Ar  229   5.956   4.368  -1.119
    1   AR   Ar  230   4.048   4.647   4.072
    1   AR   Ar  231   4.715   2.204   2.492
    1   AR   Ar  232   5.433   2.808   1.830
    1   AR   Ar  233   6.552   2.349   4.082
    1   AR   Ar  234   5.610   2.587   4.460
    1   AR   Ar  235   6.860   0.685   3.431
    1   AR   Ar  236   4.301   4.784   5.117
    1   AR   Ar  237   4.961   1.006   6.674
    1   AR   Ar  238   5.963   5.633   6.238
    1   AR   Ar  239   0.954   4.566  11.561
    1   AR   Ar  240   1.144   2.479   6.607
    1   AR   Ar  241   1.681   6.685  -0.068
    1   AR   Ar  242   5.762   5.567   1.383
    1   AR   Ar  243   5.189   6.278   2.701
    1   AR   Ar  244   6.756   6.079   0.956
    1   AR   Ar  245   3.986   0.601   3.539
    1   AR   Ar  246   5.367   6.520  -0.971
    1   AR   Ar  247   0.125   3.511   2.029
    1   AR   Ar  248   5.394   5.401   0.080
    1   AR   Ar  249   4.219   6.849   1.456
    1   AR   Ar  250   5.166   6.568   4.020
    1   AR   Ar  251   5.102   4.066   4.925
    1   AR   Ar  252   2.300   4.314   2.035
    1   AR   Ar  253   5.828   2.573   7.804
    1   AR   Ar  254   6.155   3.368  10.141
    1   AR   Ar  255   4.436   6.193   9.107
    1   AR   Ar  256   5.630   5.691   3.621
    7.12000  7.12000 12.00000
Argon-slab step 4975
  256
    1   AR   Ar    1   5.075   3.239  -2.683
    1   AR   Ar    2   5.434   6.717   0.204
    1   AR   Ar    3   4.297   3.658  -1.096
    1   AR   Ar    4   2.723   0.952   1.281
    1   AR   Ar    5   6.384   5.220  -0.235
    1   AR   Ar    6   1.192   1.858   2.140
    1   AR   Ar    7   5.843   4.625   3.558
    1   AR   Ar    8   6.746   3.103  -1.476
    1   AR   Ar    9   0.077   6.790   4.682
    1   AR   Ar   10   5.600   5.263   5.224
    1   AR   Ar   11   1.128   6.288   4.960
    1   AR   Ar   12   0.187   1.536   4.084
    1   AR   Ar   13   6.721   0.748   4.709
    1   AR   Ar   14   3.866   1.234   6.824
    1   AR   Ar   15   2.864   7.086   9.688
    1   AR   Ar   16   0.839   0.263   6.278
    1   AR   Ar   17   5.985   3.687   1.398
    1   AR   Ar   18   7.011   5.079  -1.744
    1   AR   Ar   19   5.280   4.731   1.058
    1   AR   Ar   20   6.879   4.125  -2.316
    1   AR   Ar   21   2.314   1.602   2.131
    1   AR   Ar   22   5.653   0.897   2.231
    1   AR   Ar   23   0.693   6.620   0.482
    1   AR   Ar   24   5.642   2.613   3.437
    1   AR   Ar   25   0.899   2.686   4.616
    1   AR   Ar   26   5.796   6.735   4.721
    1   AR   Ar   27   2.085   0.253   2.057
    1   AR   Ar   28   1.734   2.098   3.995
    1   AR   Ar   29   4.871   0.931   7.667
    1   AR   Ar   30   0.483   1.254   2.761
    1   AR   Ar   31   2.606   1.299   7.057
    1   AR   Ar   32   1.329   2.471   5.573
    1   AR   Ar   33   0.323   4.154   0.205
    1   AR   Ar   34   1.375   4.805   2.158
    1   AR   Ar   35   5.775   5.329   2.514
    1   AR   Ar   36   5.646   2.076  -2.546
    1   AR   Ar   37   3.952   3.048   1.326
    1   AR   Ar   38   6.638   4.356   4.199
    1   AR   Ar   39   0.388   2.905   3.668
    1   AR   Ar   40   1.140   3.771   2.008
    1   AR   Ar   41   1.007   1.867   3.393
    1   AR   Ar   42   4.850   5.973   5.955
    1   AR   Ar   43   0.398   2.874   5.892
    1   AR   Ar   44   0.215   3.821   2.913
    1   AR   Ar   45   1.046   3.536   5.287
    1   AR   Ar   46   7.046   4.667   6.946
    1   AR   Ar   47   3.832   3.908   7.929
    1   AR   Ar   48   0.024   3.761   7.760
    1   AR   Ar   49   6.931   1.109   0.266
    1   AR   Ar   50   4.170   5.323   0.640
    1   AR   Ar   51   5.711   3.431   2.708
    1   AR   Ar   52   5.426   3.293  -1.210
    1   AR   Ar   53   4.759   0.134   2.956
    1   AR   Ar   54   0.818   0.036   1.890
    1   AR   Ar   55   6.932   4.748   2.193
    1   AR   Ar   56   6.568   1.584   2.764
    1   AR   Ar   57   3.998   4.257   2.092
    1   AR   Ar   58   0.681   3.860   4.189
    1   AR   Ar   59   2.812   5.618   5.581
    1   AR   Ar   60   0.160   5.594   2.844
    1   AR   Ar   61   0.449   3.494   6.767
    1   AR   Ar   62   0.276   4.465   5.157
    1   AR   Ar   63   3.047   2.335   7.014
    1   AR   Ar   64   7.116   5.667   4.763
    1   AR   Ar   65   4.015   0.834   2.161
    1   AR   Ar   66   1.573   1.092   1.393
    1   AR   Ar   67   4.529   0.232  -0.613
    1   AR   Ar   68   0.170   1.047  -1.386
    1   AR   Ar   69   1.950   1.326   0.311
    1   AR   Ar   70   0.360   1.262   1.778
    1   AR   Ar   71   2.870   0.960   2.688
    1   AR   Ar   72   4.281   1.039   1.139
    1   AR   Ar   73   3.041   0.364   3.940
    1   AR   Ar   74   1.043   0.977   3.972
    1   AR   Ar   75   3.154   0.752   4.879
    1   AR   Ar   76   2.312   7.036   1.034
    1   AR   Ar   77   1.892   5.872   5.633
    1   AR   Ar   78   6.948   5.258   5.780
    1   AR   Ar   79   3.171   6.759   5.857
    1   AR   Ar   80   3.849   5.691   5.508
    1   AR   Ar   81   1.558   6.446   1.541
    1   AR   Ar   82   6.262   4.771   0.791
    1   AR   Ar   83   1.094   3.554   0.634
    1   AR   Ar   84   1.003   4.506   1.163
    1   AR   Ar   85   1.427   4.203  -0.165
    1   AR   Ar   86   1.734   5.291   1.004
    1   AR   Ar   87   3.297   3.458   2.282
    1   AR   Ar   88   3.588   5.329   1.636
    1   AR   Ar   89   6.657   1.993   1.101
    1   AR   Ar   90   3.175   1.648   5.537
    1   AR   Ar   91   1.927   1.256   3.143
    1   AR   Ar   92   2.170   2.786   1.702
    1   AR   Ar   93   2.153   0.975   5.321
    1   AR   Ar   94   1.463   6.887   8.460
    1   AR   Ar   95   4.364   1.213   5.347
    1   AR   Ar   96   2.292   7.119   4.871
    1   AR   Ar   97   2.886   2.717  -1.194
    1   AR   Ar   98   1.698   4.459   4.100
    1   AR   Ar   99   5.848   0.208  -0.499
    1   AR   Ar  100   6.704   2.819  -2.857
    1   AR   Ar  101   3.960   6.227   2.424
    1   AR   Ar  102   3.648   1.724   2.615
    1   AR   Ar  103   2.172   4.427   0.605
    1   AR   Ar  104   3.530   6.412  -1.350
    1   AR   Ar  105   2.739   1.989   3.433
    1   AR   Ar  106   4.093   2.238   5.117
    1   AR   Ar  107   1.059   5.296   5.685
    1   AR   Ar  108   2.278   1.153   4.266
    1   AR   Ar  109   1.824   4.479   5.618
    1   AR   Ar  110   2.393   2.236   5.137
    1   AR   Ar  111   3.799   5.854   8.181
    1   AR   Ar  112   6.415   6.490   5.589
    1   AR   Ar  113   0.921   6.066  -1.623
    1   AR   Ar  114   2.448   0.303   0.055
    1   AR   Ar  115   0.870   5.264   0.164
    1   AR   Ar  116   4.499   0.197   0.494
    1   AR   Ar  117   0.404   4.689   3.584
    1   AR   Ar  118   1.770   5.692   3.148
    1   AR   Ar  119   1.610   4.219   2.900
    1   AR   Ar  120   1.918   6.696   2.756
    1   AR   Ar  121   5.379   4.337   5.880
    1   AR   Ar  122   2.842   5.611   4.012
    1   AR   Ar  123   3.245   2.809   6.033
    1   AR   Ar  124   0.794   5.631   1.481
    1   AR   Ar  125   5.756   3.546   4.184
    1   AR   Ar  126   6.736   0.298   7.597
    1   AR   Ar  127   4.605   3.259   6.302
    1   AR   Ar  128   1.887   4.128   6.683
    1   AR   Ar  129   2.013   5.233   4.543
    1   AR   Ar  130   4.057   1.381  -4.877
    1   AR   Ar  131   4.607   6.134  -1.728
    1   AR   Ar  132   0.556   1.913   0.926
    1   AR   Ar  133   4.046   0.198   4.533
    1   AR   Ar  134   3.270   1.368   4.045
    1   AR   Ar  135   5.940   1.379   4.441
    1   AR   Ar  136   5.729   7.090   2.869
    1   AR   Ar  137   2.982   4.069   5.875
    1   AR   Ar  138   5.545   1.194   5.544
    1   AR   Ar  139   6.305   2.089   5.149
    1   AR   Ar  140   4.475   6.446   5.058
    1   AR   Ar  141   3.965   5.722   4.357
    1   AR   Ar  142   4.553   6.409   7.629
    1   AR   Ar  143   5.538   6.585   6.669
    1   AR   Ar  144   0.271   1.946   5.067
    1   AR   Ar  145   4.531   5.269  -0.511
    1   AR   Ar  146   3.663   2.531   3.270
    1   AR   Ar  147   5.023   4.056  -0.366
    1   AR   Ar  148   2.512   6.081  -1.519
    1   AR   Ar  149   0.664   1.711  -0.336
    1   AR   Ar  150   1.944   2.624   3.053
    1   AR   Ar  151   2.815   3.366   3.163
    1   AR   Ar  152   0.862   1.158  -2.494
    1   AR   Ar  153   5.667   0.864   3.363
    1   AR   Ar  154   4.734   2.667   3.843
    1   AR   Ar  155   6.342   3.664   5.433
    1   AR   Ar  156   2.553   4.694   3.227
    1   AR   Ar  157   2.638   5.396   6.752
    1   AR   Ar  158   0.450   1.718   6.158
    1   AR   Ar  159   4.075   0.229   6.193
    1   AR   Ar  160   1.021   0.581   5.178
    1   AR   Ar  161   4.938   4.265   3.381
    1   AR   Ar  162   4.256   6.339  -0.287
    1   AR   Ar  163   6.048   4.225   2.244
    1   AR   Ar  164   2.021   5.718   2.105
    1   AR   Ar  165   3.331   4.253   1.069
    1   AR   Ar  166   2.322   3.727   4.541
    1   AR   Ar  167   6.416   6.951   3.684
    1   AR   Ar  168   5.485   4.158  -2.274
    1   AR   Ar  169   3.847   3.772   3.343
    1   AR   Ar  170   2.071   3.302   5.951
    1   AR   Ar  171   4.967   5.210   4.290
    1   AR   Ar  172   3.548   3.518   4.669
    1   AR   Ar  173   2.297   2.123   6.294
    1   AR   Ar  174   3.313   6.623   4.827
    1   AR   Ar  175   3.108   0.801   6.055
    1   AR   Ar  176   3.073   2.758   4.104
    1   AR   Ar  177   0.645   4.532  -0.876
    1   AR   Ar  178   2.720   6.235   0.393
    1   AR   Ar  179   3.366   6.998   0.678
    1   AR   Ar  180   4.910   0.383  -6.937
    1   AR   Ar  181   7.012   5.972   1.966
    1   AR   Ar  182   1.050   6.183   2.363
    1   AR   Ar  183   4.825   5.703   2.022
    1   AR   Ar  184   4.547   6.259   0.708
    1   AR   Ar  185   3.079   4.499   4.460
    1   AR   Ar  186   2.724   5.989   2.797
    1   AR   Ar  187   3.725   6.586   3.697
    1   AR   Ar  188   3.159   0.088   1.862
    1   AR   Ar  189   6.114   2.778   5.957
    1   AR   Ar  190   2.132   6.751   3.895
    1   AR   Ar  191   3.279   6.149   6.825
    1   AR   Ar  192   3.966   3.717   5.483
    1   AR   Ar  193   2.812   6.289   1.410
    1   AR   Ar  194   5.317   5.282  -1.133
    1   AR   Ar  195   5.415   1.020   0.672
    1   AR   Ar  196   3.507   0.669   0.029
    1   AR   Ar  197   4.783   2.982   0.644
    1   AR   Ar  198   5.722   0.160   1.166
    1   AR   Ar  199   1.409   0.365   3.077
    1   AR   Ar  200   5.660   2.628  -0.062
    1   AR   Ar  201   6.657   6.558   2.718
    1   AR   Ar  202   5.022   0.570   4.341
    1   AR   Ar  203   0.351   6.780   3.271
    1   AR   Ar  204   4.327   4.844   7.538
    1   AR   Ar  205   5.847   1.889   2.058
    1   AR   Ar  206   5.933   0.473   6.441
    1   AR   Ar  207   6.804   3.353   4.403
    1   AR   Ar  208   1.075   6.028   3.927
    1   AR   Ar  209   7.061   2.018  -1.698
    1   AR   Ar  210   1.213   0.460   0.395
    1   AR   Ar  211   0.148   3.003   0.595
    1   AR   Ar  212   6.296   3.889   0.070
    1   AR   Ar  213   3.489   1.704   1.585
    1   AR   Ar  214   4.979   4.605   2.252
    1   AR   Ar  215   6.658   2.587   1.953
    1   AR   Ar  216   1.512   2.394   0.586
    1   AR   Ar  217   5.101   1.751   3.681
    1   AR   Ar  218   4.795   2.976   4.933
    1   AR   Ar  219   4.744   3.393   2.795
    1   AR   Ar  220   4.651   3.930   1.284
    1   AR   Ar  221   7.018   5.951   3.776
    1   AR   Ar  222   4.986   0.217   5.758
    1   AR   Ar  223   6.285   1.656   6.178
    1   AR   Ar  224   5.085   1.978   5.176
    1   AR   Ar  225   6.597   2.977   2.855
    1   AR   Ar  226   1.610   3.424   3.630
    1   AR   Ar  227   0.947   3.023   2.746
    1   AR   Ar  228   6.580   0.550   1.707
    1   AR   Ar  229   5.961   4.386  -1.110
    1   AR   Ar  230   4.009   4.644   4.063
    1   AR   Ar  231   4.694   2.206   2.483
    1   AR   Ar  232   5.437   2.807   1.842
    1   AR   Ar  233   6.560   2.369   4.083
    1   AR   Ar  234   5.601   2.613   4.453
    1   AR   Ar  235   6.838   0.685   3.459
    1   AR   Ar  236   4.278   4.792   5.134
    1   AR   Ar  237   4.939   0.975   6.720
    1   AR   Ar  238   5.952   5.601   6.224
    1   AR   Ar  239   0.950   4.563  11.599
    1   AR   Ar  240   1.164   2.490   6.617
    1   AR   Ar  241   1.700   6.681  -0.062
    1   AR   Ar  242   5.750   5.573   1.408
    1   AR   Ar  243   5.169   6.296   2.685
    1   AR   Ar  244   6.725   6.096   0.968
    1   AR   Ar  245   4.008   0.608   3.542
    1   AR   Ar  246   5.364   6.510  -0.989
    1   AR   Ar  247   0.126   3.526   2.023
    1   AR   Ar  248   5.382   5.400   0.138
    1   AR   Ar  249   4.214   6.842   1.465
    1   AR   Ar  250   5.162   6.575   4.043
    1   AR   Ar  251   5.132   4.046   4.918
    1   AR   Ar  252   2.333   4.326   2.012
    1   AR   Ar  253   5.799   2.582   7.789
    1   AR   Ar  254   6.136   3.341  10.154
    1   AR   Ar  255   4.411   6.207   9.082
    1   AR   Ar  256   5.640   5.705   3.639
    7.12000  7.12000 12.00000
Argon-slab step 4980
  256
    1   AR   Ar    1   5.089   3.234  -2.694
    1   AR   Ar    2   5.396   6.725   0.218
    1   AR   Ar    3   4.269   3.650  -1.103
    1   AR   Ar    4   2.746   0.949   1.277
    1   AR   Ar    5   6.388   5.206  -0.233
    1   AR   Ar    6   1.147   1.866   2.148
    1   AR   Ar    7   5.849   4.637   3.545
    1   AR   Ar    8   6.754   3.089  -1.496
    1   AR   Ar    9   0.039   6.789   4.685
    1   AR   Ar   10   5.616   5.217   5.220
    1   AR   Ar   11   1.123   6.283   4.960
    1   AR   Ar   12   0.173   1.532   4.073
    1   AR   Ar   13   6.685   0.766   4.733
    1   AR   Ar   14   3.855   1.205   6.805
    1   AR   Ar   15   2.843   7.063   9.689
    1   AR   Ar   16   0.841   0.258   6.298
    1   AR   Ar   17   5.980   3.676   1.376
    1   AR   Ar   18   7.004   5.078  -1.777
    1   AR   Ar   19   5.303   4.703   1.043
    1   AR   Ar   20   6.897   4.122  -2.312
    1   AR   Ar   21   2.331   1.619   2.101
    1   AR   Ar   22   5.650   0.912   2.213
    1   AR   Ar   23   0.687   6.596   0.463
    1   AR   Ar   24   5.651   2.634   3.414
    1   AR   Ar   25   0.895   2.690   4.613
    1   AR   Ar   26   5.810   6.728   4.722
    1   AR   Ar   27   2.078   0.254   2.057
    1   AR   Ar   28   1.737   2.076   4.002
    1   AR   Ar   29   4.910   0.947   7.701
    1   AR   Ar   30   0.478   1.232   2.761
    1   AR   Ar   31   2.568   1.281   7.033
    1   AR   Ar   32   1.339   2.435   5.575
    1   AR   Ar   33   0.306   4.163   0.211
    1   AR   Ar   34   1.371   4.810   2.134
    1   AR   Ar   35   5.782   5.325   2.504
    1   AR   Ar   36   5.649   2.112  -2.572
    1   AR   Ar   37   3.923   3.057   1.331
    1   AR   Ar   38   6.628   4.360   4.182
    1   AR   Ar   39   0.399   2.886   3.669
    1   AR   Ar   40   1.124   3.776   2.023
    1   AR   Ar   41   1.023   1.880   3.389
    1   AR   Ar   42   4.863   5.972   5.940
    1   AR   Ar   43   0.404   2.905   5.902
    1   AR   Ar   44   0.194   3.841   2.925
    1   AR   Ar   45   1.046   3.527   5.246
    1   AR   Ar   46   7.017   4.674   6.951
    1   AR   Ar   47   3.818   3.891   7.933
    1   AR   Ar   48   0.036   3.757   7.784
    1   AR   Ar   49   6.937   1.150   0.286
    1   AR   Ar   50   4.174   5.322   0.621
    1   AR   Ar   51   5.710   3.421   2.712
    1   AR   Ar   52   5.431   3.278  -1.202
    1   AR   Ar   53   4.717   0.136   2.976
    1   AR   Ar   54   0.782   0.043   1.919
    1   AR   Ar   55   6.934   4.767   2.158
    1   AR   Ar   56   6.540   1.595   2.774
    1   AR   Ar   57   4.022   4.257   2.074
    1   AR   Ar   58   0.665   3.863   4.198
    1   AR   Ar   59   2.832   5.635   5.592
    1   AR   Ar   60   0.179   5.596   2.832
    1   AR   Ar   61   0.453   3.501   6.757
    1   AR   Ar   62   0.274   4.461   5.166
    1   AR   Ar   63   3.067   2.369   6.970
    1   AR   Ar   64   7.112   5.650   4.761
    1   AR   Ar   65   4.012   0.821   2.152
    1   AR   Ar   66   1.579   1.110   1.380
    1   AR   Ar   67   4.529   0.248  -0.626
    1   AR   Ar   68   0.152   1.044  -1.357
    1   AR   Ar   69   1.978   1.353   0.290
    1   AR   Ar   70   0.335   1.278   1.778
    1   AR   Ar   71   2.879   0.967   2.669
    1   AR   Ar   72   4.254   1.036   1.095
    1   AR   Ar   73   3.050   0.383   3.931
    1   AR   Ar   74   1.059   0.969   3.959
    1   AR   Ar   75   3.160   0.753   4.855
    1   AR   Ar   76   2.262   7.066   1.025
    1   AR   Ar   77   1.908   5.863   5.640
    1   AR   Ar   78   6.948   5.288   5.767
    1   AR   Ar   79   3.173   6.747   5.866
    1   AR   Ar   80   3.871   5.702   5.530
    1   AR   Ar   81   1.605   6.413   1.533
    1   AR   Ar   82   6.276   4.759   0.759
    1   AR   Ar   83   1.098   3.565   0.636
    1   AR   Ar   84   0.983   4.495   1.169
    1   AR   Ar   85   1.413   4.195  -0.167
    1   AR   Ar   86   1.759   5.269   1.013
    1   AR   Ar   87   3.325   3.455   2.301
    1   AR   Ar   88   3.603   5.330   1.667
    1   AR   Ar   89   6.636   1.980   1.078
    1   AR   Ar   90   3.164   1.683   5.506
    1   AR   Ar   91   1.917   1.260   3.144
    1   AR   Ar   92   2.172   2.755   1.709
    1   AR   Ar   93   2.161   0.993   5.280
    1   AR   Ar   94   1.456   6.863   8.450
    1   AR   Ar   95   4.360   1.205   5.335
    1   AR   Ar   96   2.302   7.111   4.865
    1   AR   Ar   97   2.852   2.703  -1.135
    1   AR   Ar   98   1.711   4.430   4.113
    1   AR   Ar   99   5.851   0.191  -0.513
    1   AR   Ar  100   6.678   2.805  -2.827
    1   AR   Ar  101   3.947   6.196   2.422
    1   AR   Ar  102   3.636   1.747   2.618
    1   AR   Ar  103   2.183   4.410   0.578
    1   AR   Ar  104   3.526   6.418  -1.340
    1   AR   Ar  105   2.703   2.000   3.436
    1   AR   Ar  106   4.079   2.224   5.118
    1   AR   Ar  107   1.073   5.277   5.688
    1   AR   Ar  108   2.297   1.110   4.268
    1   AR   Ar  109   1.872   4.495   5.641
    1   AR   Ar  110   2.408   2.243   5.143
    1   AR   Ar  111   3.782   5.833   8.195
    1   AR   Ar  112   6.444   6.499   5.568
    1   AR   Ar  113   0.943   6.112  -1.610
    1   AR   Ar  114   2.441   0.284   0.070
    1   AR   Ar  115   0.847   5.279   0.181
    1   AR   Ar  116   4.475   0.198   0.466
    1   AR   Ar  117   0.398   4.682   3.571
    1   AR   Ar  118   1.773   5.685   3.149
    1   AR   Ar  119   1.591   4.225   2.933
    1   AR   Ar  120   1.919   6.697   2.768
    1   AR   Ar  121   5.352   4.336   5.873
    1   AR   Ar  122   2.858   5.611   3.988
    1   AR   Ar  123   3.225   2.764   6.051
    1   AR   Ar  124   0.784   5.617   1.494
    1   AR   Ar  125   5.743   3.527   4.157
    1   AR   Ar  126   6.745   0.282   7.569
    1   AR   Ar  127   4.618   3.256   6.280
    1   AR   Ar  128   1.865   4.125   6.667
    1   AR   Ar  129   1.983   5.259   4.567
    1   AR   Ar  130   4.061   1.368  -4.876
    1   AR   Ar  131   4.626   6.159  -1.718
    1   AR   Ar  132   0.595   1.943   0.927
    1   AR   Ar  133   4.038   0.223   4.549
    1   AR   Ar  134   3.270   1.365   4.052
    1   AR   Ar  135   5.929   1.369   4.425
    1   AR   Ar  136   5.736   7.078   2.871
    1   AR   Ar  137   2.979   4.082   5.917
    1   AR   Ar  138   5.543   1.164   5.560
    1   AR   Ar  139   6.283   2.087   5.129
    1   AR   Ar  140   4.468   6.474   5.046
    1   AR   Ar  141   3.939   5.725   4.360
    1   AR   Ar  142   4.570   6.404   7.649
    1   AR   Ar  143   5.517   6.585   6.685
    1   AR   Ar  144   0.319   1.974   5.100
    1   AR   Ar  145   4.531   5.260  -0.517
    1   AR   Ar  146   3.705   2.519   3.270
    1   AR   Ar  147   5.033   4.046  -0.342
    1   AR   Ar  148   2.507   6.068  -1.503
    1   AR   Ar  149   0.620   1.736  -0.343
    1   AR   Ar  150   1.937   2.625   3.034
    1   AR   Ar  151   2.823   3.384   3.140
    1   AR   Ar  152   0.857   1.140  -2.460
    1   AR   Ar  153   5.649   0.881   3.343
    1   AR   Ar  154   4.709   2.683   3.874
    1   AR   Ar  155   6.321   3.664   5.400
    1   AR   Ar  156   2.502   4.679   3.227
    1   AR   Ar  157   2.671   5.375   6.757
    1   AR   Ar  158   0.446   1.741   6.177
    1   AR   Ar  159   4.015   0.217   6.191
    1   AR   Ar  160   1.033   0.589   5.177
    1   AR   Ar  161   4.955   4.237   3.373
    1   AR   Ar  162   4.226   6.352  -0.306
    1   AR   Ar  163   6.068   4.234   2.249
    1   AR   Ar  164   2.026   5.715   2.118
    1   AR   Ar  165   3.334   4.254   1.083
    1   AR   Ar  166   2.295   3.719   4.540
    1   AR   Ar  167   6.400   6.950   3.677
    1   AR   Ar  168   5.461   4.173  -2.297
    1   AR   Ar  169   3.856   3.789   3.329
    1   AR   Ar  170   2.089   3.301   5.936
    1   AR   Ar  171   4.977   5.226   4.252
    1   AR   Ar  172   3.540   3.530   4.682
    1   AR   Ar  173   2.284   2.097   6.291
    1   AR   Ar  174   3.319   6.607   4.845
    1   AR   Ar  175   3.129   0.768   6.018
    1   AR   Ar  176   3.043   2.733   4.118
    1   AR   Ar  177   0.655   4.512  -0.909
    1   AR   Ar  178   2.721   6.240   0.366
    1   AR   Ar  179   3.366   6.967   0.680
    1   AR   Ar  180   4.911   0.389  -6.964
    1   AR   Ar  181   7.029   5.967   1.954
    1   AR   Ar  182   1.038   6.178   2.411
    1   AR   Ar  183   4.790   5.697   1.983
    1   AR   Ar  184   4.529   6.275   0.657
    1   AR   Ar  185   3.120   4.490   4.443
    1   AR   Ar  186   2.728   5.983   2.815
    1   AR   Ar  187   3.737   6.581   3.698
    1   AR   Ar  188   3.143   0.099   1.849
    1   AR   Ar  189   6.102   2.790   5.951
    1   AR   Ar  190   2.098   6.751   3.920
    1   AR   Ar  191   3.285   6.159   6.829
    1   AR   Ar  192   3.983   3.653   5.484
    1   AR   Ar  193   2.828   6.315   1.419
    1   AR   Ar  194   5.287   5.332  -1.171
    1   AR   Ar  195   5.408   1.000   0.677
    1   AR   Ar  196   3.523   0.671   0.055
    1   AR   Ar  197   4.769   2.973   0.627
    1   AR   Ar  198   5.712   0.126   1.145
    1   AR   Ar  199   1.420   0.380   3.084
    1   AR   Ar  200   5.688   2.625  -0.073
    1   AR   Ar  201   6.634   6.552   2.725
    1   AR   Ar  202   5.069   0.564   4.326
    1   AR   Ar  203   0.322   6.775   3.260
    1   AR   Ar  204   4.323   4.806   7.564
    1   AR   Ar  205   5.828   1.908   2.034
    1   AR   Ar  206   5.958   0.457   6.431
    1   AR   Ar  207   6.812   3.334   4.369
    1   AR   Ar  208   1.062   6.046   3.943
    1   AR   Ar  209   7.050   2.040  -1.707
    1   AR   Ar  210   1.199   0.480   0.401
    1   AR   Ar  211   0.162   3.029   0.575
    1   AR   Ar  212   6.308   3.884   0.059
    1   AR   Ar  213   3.466   1.697   1.576
    1   AR   Ar  214   4.974   4.589   2.234
    1   AR   Ar  215   6.695   2.598   1.965
    1   AR   Ar  216   1.538   2.385   0.551
    1   AR   Ar  217   5.121   1.764   3.722
    1   AR   Ar  218   4.813   2.960   4.925
    1   AR   Ar  219   4.734   3.381   2.782
    1   AR   Ar  220   4.644   3.944   1.285
    1   AR   Ar  221   7.006   5.930   3.787
    1   AR   Ar  222   5.015   0.243   5.757
    1   AR   Ar  223   6.321   1.668   6.143
    1   AR   Ar  224   5.113   1.978   5.178
    1   AR   Ar  225   6.607   2.973   2.849
    1   AR   Ar  226   1.609   3.426   3.625
    1   AR   Ar  227   0.955   3.023   2.768
    1   AR   Ar  228   6.580   0.574   1.690
    1   AR   Ar  229   5.965   4.403  -1.100
    1   AR   Ar  230   3.976   4.641   4.051
    1   AR   Ar  231   4.673   2.209   2.474
    1   AR   Ar  232   5.438   2.811   1.853
    1   AR   Ar  233   6.589   2.377   4.061
    1   AR   Ar  234   5.597   2.624   4.454
    1   AR   Ar  235   6.822   0.697   3.483
    1   AR   Ar  236   4.257   4.798   5.150
    1   AR   Ar  237   4.918   0.944   6.741
    1   AR   Ar  238   5.945   5.590   6.208
    1   AR   Ar  239   0.946   4.559  11.636
    1   AR   Ar  240   1.198   2.521   6.629
    1   AR   Ar  241   1.718   6.674  -0.055
    1   AR   Ar  242   5.740   5.584   1.434
    1   AR   Ar  243   5.151   6.316   2.681
    1   AR   Ar  244   6.692   6.113   0.978
    1   AR   Ar  245   4.011   0.627   3.553
    1   AR   Ar  246   5.358   6.498  -1.006
    1   AR   Ar  247   0.119   3.534   1.992
    1   AR   Ar  248   5.398   5.406   0.118
    1   AR   Ar  249   4.204   6.841   1.481
    1   AR   Ar  250   5.139   6.581   4.048
    1   AR   Ar  251   5.152   4.029   4.912
    1   AR   Ar  252   2.366   4.337   1.989
    1   AR   Ar  253   5.770   2.591   7.774
    1   AR   Ar  254   6.117   3.314  10.166
    1   AR   Ar  255   4.387   6.220   9.057
    1   AR   Ar  256   5.654   5.720   3.653
    7.12000  7.12000 12.00000
Argon-slab step 4985
  256
    1   AR   Ar    1   5.103   3.227  -2.705
    1   AR   Ar    2   5.356   6.732   0.234
    1   AR   Ar    3   4.242   3.642  -1.108
    1   AR   Ar    4   2.767   0.943   1.272
    1   AR   Ar    5   6.393   5.191  -0.232
    1   AR   Ar    6   1.104   1.875   2.158
    1   AR   Ar    7   5.861   4.653   3.532
    1   AR   Ar    8   6.760   3.076  -1.516
    1   AR   Ar    9   0.001   6.788   4.687
    1   AR   Ar   10   5.631   5.171   5.215
    1   AR   Ar   11   1.117   6.278   4.963
    1   AR   Ar   12   0.156   1.530   4.061
    1   AR   Ar   13   6.654   0.780   4.758
    1   AR   Ar   14   3.842   1.177   6.786
    1   AR   Ar   15   2.822   7.040   9.691
    1   AR   Ar   16   0.845   0.256   6.319
    1   AR   Ar   17   5.974   3.663   1.350
    1   AR   Ar   18   6.997   5.078  -1.807
    1   AR   Ar   19   5.320   4.676   1.029
    1   AR   Ar   20   6.914   4.118  -2.308
    1   AR   Ar   21   2.344   1.639   2.069
    1   AR   Ar   22   5.647   0.920   2.196
    1   AR   Ar   23   0.681   6.572   0.446
    1   AR   Ar   24   5.666   2.655   3.385
    1   AR   Ar   25   0.892   2.695   4.605
    1   AR   Ar   26   5.835   6.724   4.734
    1   AR   Ar   27   2.071   0.264   2.050
    1   AR   Ar   28   1.754   2.058   4.022
    1   AR   Ar   29   4.948   0.964   7.754
    1   AR   Ar   30   0.473   1.207   2.772
    1   AR   Ar   31   2.532   1.263   7.007
    1   AR   Ar   32   1.351   2.398   5.576
    1   AR   Ar   33   0.290   4.174   0.218
    1   AR   Ar   34   1.365   4.824   2.105
    1   AR   Ar   35   5.791   5.296   2.461
    1   AR   Ar   36   5.652   2.149  -2.597
    1   AR   Ar   37   3.894   3.068   1.338
    1   AR   Ar   38   6.621   4.365   4.167
    1   AR   Ar   39   0.410   2.867   3.669
    1   AR   Ar   40   1.113   3.781   2.037
    1   AR   Ar   41   1.027   1.894   3.374
    1   AR   Ar   42   4.877   5.971   5.925
    1   AR   Ar   43   0.385   2.917   5.865
    1   AR   Ar   44   0.175   3.864   2.948
    1   AR   Ar   45   1.047   3.515   5.246
    1   AR   Ar   46   6.988   4.680   6.955
    1   AR   Ar   47   3.806   3.889   7.936
    1   AR   Ar   48   0.047   3.755   7.807
    1   AR   Ar   49   6.944   1.192   0.307
    1   AR   Ar   50   4.180   5.314   0.599
    1   AR   Ar   51   5.712   3.394   2.695
    1   AR   Ar   52   5.436   3.265  -1.194
    1   AR   Ar   53   4.674   0.139   2.995
    1   AR   Ar   54   0.747   0.051   1.949
    1   AR   Ar   55   6.918   4.781   2.173
    1   AR   Ar   56   6.512   1.604   2.780
    1   AR   Ar   57   4.039   4.257   2.057
    1   AR   Ar   58   0.651   3.864   4.207
    1   AR   Ar   59   2.869   5.647   5.603
    1   AR   Ar   60   0.203   5.594   2.827
    1   AR   Ar   61   0.458   3.509   6.749
    1   AR   Ar   62   0.282   4.457   5.158
    1   AR   Ar   63   3.088   2.398   6.935
    1   AR   Ar   64   7.109   5.631   4.763
    1   AR   Ar   65   4.007   0.807   2.144
    1   AR   Ar   66   1.585   1.127   1.366
    1   AR   Ar   67   4.517   0.263  -0.633
    1   AR   Ar   68   0.135   1.041  -1.327
    1   AR   Ar   69   2.007   1.379   0.270
    1   AR   Ar   70   0.307   1.292   1.767
    1   AR   Ar   71   2.892   0.969   2.654
    1   AR   Ar   72   4.227   1.032   1.051
    1   AR   Ar   73   3.085   0.376   3.928
    1   AR   Ar   74   1.078   0.958   3.946
    1   AR   Ar   75   3.167   0.754   4.846
    1   AR   Ar   76   2.209   7.101   1.016
    1   AR   Ar   77   1.910   5.861   5.647
    1   AR   Ar   78   6.938   5.315   5.776
    1   AR   Ar   79   3.187   6.746   5.850
    1   AR   Ar   80   3.894   5.715   5.553
    1   AR   Ar   81   1.649   6.385   1.519
    1   AR   Ar   82   6.297   4.747   0.727
    1   AR   Ar   83   1.105   3.573   0.640
    1   AR   Ar   84   0.979   4.514   1.184
    1   AR   Ar   85   1.398   4.190  -0.169
    1   AR   Ar   86   1.783   5.252   1.025
    1   AR   Ar   87   3.360   3.452   2.309
    1   AR   Ar   88   3.619   5.332   1.699
    1   AR   Ar   89   6.613   1.965   1.053
    1   AR   Ar   90   3.158   1.707   5.486
    1   AR   Ar   91   1.919   1.256   3.160
    1   AR   Ar   92   2.173   2.723   1.716
    1   AR   Ar   93   2.168   1.013   5.245
    1   AR   Ar   94   1.449   6.840   8.440
    1   AR   Ar   95   4.355   1.194   5.324
    1   AR   Ar   96   2.263   7.108   4.827
    1   AR   Ar   97   2.818   2.689  -1.075
    1   AR   Ar   98   1.717   4.394   4.116
    1   AR   Ar   99   5.856   0.179  -0.528
    1   AR   Ar  100   6.652   2.791  -2.796
    1   AR   Ar  101   3.932   6.166   2.420
    1   AR   Ar  102   3.623   1.766   2.621
    1   AR   Ar  103   2.177   4.425   0.563
    1   AR   Ar  104   3.525   6.425  -1.329
    1   AR   Ar  105   2.666   2.008   3.434
    1   AR   Ar  106   4.059   2.210   5.120
    1   AR   Ar  107   1.080   5.254   5.689
    1   AR   Ar  108   2.311   1.068   4.265
    1   AR   Ar  109   1.898   4.494   5.668
    1   AR   Ar  110   2.425   2.241   5.124
    1   AR   Ar  111   3.766   5.812   8.208
    1   AR   Ar  112   6.419   6.457   5.562
    1   AR   Ar  113   0.965   6.157  -1.597
    1   AR   Ar  114   2.438   0.270   0.082
    1   AR   Ar  115   0.825   5.292   0.199
    1   AR   Ar  116   4.451   0.198   0.438
    1   AR   Ar  117   0.392   4.679   3.557
    1   AR   Ar  118   1.772   5.676   3.155
    1   AR   Ar  119   1.571   4.227   2.971
    1   AR   Ar  120   1.923   6.685   2.784
    1   AR   Ar  121   5.326   4.337   5.870
    1   AR   Ar  122   2.874   5.610   3.964
    1   AR   Ar  123   3.206   2.722   6.058
    1   AR   Ar  124   0.778   5.600   1.506
    1   AR   Ar  125   5.733   3.524   4.123
    1   AR   Ar  126   6.754   0.266   7.540
    1   AR   Ar  127   4.633   3.252   6.257
    1   AR   Ar  128   1.843   4.121   6.652
    1   AR   Ar  129   1.955   5.296   4.598
    1   AR   Ar  130   4.064   1.356  -4.875
    1   AR   Ar  131   4.644   6.182  -1.707
    1   AR   Ar  132   0.635   1.974   0.927
    1   AR   Ar  133   4.032   0.249   4.564
    1   AR   Ar  134   3.280   1.373   4.055
    1   AR   Ar  135   5.912   1.363   4.405
    1   AR   Ar  136   5.752   7.075   2.872
    1   AR   Ar  137   2.975   4.094   5.957
    1   AR   Ar  138   5.546   1.126   5.577
    1   AR   Ar  139   6.262   2.085   5.109
    1   AR   Ar  140   4.462   6.502   5.033
    1   AR   Ar  141   3.914   5.727   4.365
    1   AR   Ar  142   4.588   6.399   7.668
    1   AR   Ar  143   5.494   6.585   6.700
    1   AR   Ar  144   0.364   2.001   5.135
    1   AR   Ar  145   4.524   5.252  -0.517
    1   AR   Ar  146   3.748   2.514   3.274
    1   AR   Ar  147   5.045   4.037  -0.320
    1   AR   Ar  148   2.501   6.056  -1.486
    1   AR   Ar  149   0.576   1.761  -0.348
    1   AR   Ar  150   1.930   2.623   3.013
    1   AR   Ar  151   2.824   3.400   3.129
    1   AR   Ar  152   0.850   1.121  -2.424
    1   AR   Ar  153   5.631   0.901   3.326
    1   AR   Ar  154   4.676   2.706   3.905
    1   AR   Ar  155   6.301   3.668   5.363
    1   AR   Ar  156   2.453   4.665   3.229
    1   AR   Ar  157   2.699   5.345   6.758
    1   AR   Ar  158   0.468   1.774   6.196
    1   AR   Ar  159   3.958   0.205   6.190
    1   AR   Ar  160   1.045   0.598   5.175
    1   AR   Ar  161   4.962   4.206   3.364
    1   AR   Ar  162   4.196   6.366  -0.333
    1   AR   Ar  163   6.085   4.249   2.254
    1   AR   Ar  164   2.033   5.705   2.129
    1   AR   Ar  165   3.338   4.255   1.099
    1   AR   Ar  166   2.314   3.733   4.604
    1   AR   Ar  167   6.380   6.937   3.679
    1   AR   Ar  168   5.439   4.189  -2.318
    1   AR   Ar  169   3.864   3.806   3.314
    1   AR   Ar  170   2.107   3.299   5.920
    1   AR   Ar  171   4.982   5.238   4.218
    1   AR   Ar  172   3.535   3.538   4.688
    1   AR   Ar  173   2.270   2.071   6.285
    1   AR   Ar  174   3.325   6.590   4.857
    1   AR   Ar  175   3.147   0.735   5.982
    1   AR   Ar  176   3.039   2.719   4.122
    1   AR   Ar  177   0.664   4.493  -0.942
    1   AR   Ar  178   2.717   6.242   0.336
    1   AR   Ar  179   3.369   6.938   0.688
    1   AR   Ar  180   4.912   0.395  -6.992
    1   AR   Ar  181   7.043   5.964   1.935
    1   AR   Ar  182   1.023   6.172   2.462
    1   AR   Ar  183   4.753   5.683   1.937
    1   AR   Ar  184   4.516   6.291   0.612
    1   AR   Ar  185   3.141   4.480   4.433
    1   AR   Ar  186   2.748   5.977   2.822
    1   AR   Ar  187   3.749   6.578   3.700
    1   AR   Ar  188   3.129   0.112   1.837
    1   AR   Ar  189   6.089   2.798   5.946
    1   AR   Ar  190   2.063   6.749   3.937
    1   AR   Ar  191   3.296   6.176   6.833
    1   AR   Ar  192   4.016   3.594   5.514
    1   AR   Ar  193   2.846   6.332   1.434
    1   AR   Ar  194   5.263   5.382  -1.214
    1   AR   Ar  195   5.399   0.983   0.681
    1   AR   Ar  196   3.540   0.674   0.080
    1   AR   Ar  197   4.757   2.965   0.610
    1   AR   Ar  198   5.702   0.088   1.126
    1   AR   Ar  199   1.421   0.395   3.092
    1   AR   Ar  200   5.726   2.635  -0.082
    1   AR   Ar  201   6.604   6.542   2.727
    1   AR   Ar  202   5.117   0.559   4.311
    1   AR   Ar  203   0.324   6.759   3.239
    1   AR   Ar  204   4.318   4.770   7.590
    1   AR   Ar  205   5.811   1.924   2.011
    1   AR   Ar  206   5.982   0.442   6.419
    1   AR   Ar  207   6.820   3.317   4.338
    1   AR   Ar  208   1.048   6.064   3.954
    1   AR   Ar  209   7.038   2.064  -1.718
    1   AR   Ar  210   1.186   0.501   0.409
    1   AR   Ar  211   0.175   3.053   0.557
    1   AR   Ar  212   6.319   3.880   0.048
    1   AR   Ar  213   3.444   1.690   1.565
    1   AR   Ar  214   4.976   4.574   2.216
    1   AR   Ar  215   6.733   2.602   1.963
    1   AR   Ar  216   1.564   2.377   0.517
    1   AR   Ar  217   5.141   1.770   3.764
    1   AR   Ar  218   4.820   2.955   4.925
    1   AR   Ar  219   4.713   3.369   2.768
    1   AR   Ar  220   4.636   3.952   1.286
    1   AR   Ar  221   6.992   5.913   3.796
    1   AR   Ar  222   5.044   0.267   5.755
    1   AR   Ar  223   6.358   1.680   6.109
    1   AR   Ar  224   5.141   1.982   5.176
    1   AR   Ar  225   6.621   2.971   2.861
    1   AR   Ar  226   1.605   3.427   3.625
    1   AR   Ar  227   0.964   3.022   2.790
    1   AR   Ar  228   6.580   0.600   1.674
    1   AR   Ar  229   5.969   4.419  -1.090
    1   AR   Ar  230   3.965   4.641   4.030
    1   AR   Ar  231   4.653   2.213   2.467
    1   AR   Ar  232   5.455   2.825   1.856
    1   AR   Ar  233   6.617   2.380   4.037
    1   AR   Ar  234   5.604   2.613   4.458
    1   AR   Ar  235   6.811   0.720   3.505
    1   AR   Ar  236   4.237   4.801   5.163
    1   AR   Ar  237   4.899   0.911   6.740
    1   AR   Ar  238   5.945   5.611   6.190
    1   AR   Ar  239   0.963   4.566  11.645
    1   AR   Ar  240   1.255   2.527   6.640
    1   AR   Ar  241   1.734   6.663  -0.047
    1   AR   Ar  242   5.733   5.597   1.460
    1   AR   Ar  243   5.130   6.329   2.683
    1   AR   Ar  244   6.659   6.130   0.983
    1   AR   Ar  245   3.998   0.656   3.571
    1   AR   Ar  246   5.351   6.484  -1.020
    1   AR   Ar  247   0.107   3.538   1.950
    1   AR   Ar  248   5.418   5.414   0.081
    1   AR   Ar  249   4.192   6.842   1.500
    1   AR   Ar  250   5.101   6.586   4.039
    1   AR   Ar  251   5.134   4.019   4.925
    1   AR   Ar  252   2.400   4.347   1.966
    1   AR   Ar  253   5.741   2.599   7.758
    1   AR   Ar  254   6.098   3.287  10.178
    1   AR   Ar  255   4.362   6.233   9.032
    1   AR   Ar  256   5.673   5.739   3.663
    7.12000  7.12000 12.00000
Argon-slab step 4990
  256
    1   AR   Ar    1   5.118   3.219  -2.716
    1   AR   Ar    2   5.319   6.737   0.245
    1   AR   Ar    3   4.217   3.633  -1.114
    1   AR   Ar    4   2.783   0.936   1.265
    1   AR   Ar    5   6.401   5.174  -0.235
    1   AR   Ar    6   1.066   1.887   2.170
    1   AR   Ar    7   5.875   4.672   3.515
    1   AR   Ar    8   6.765   3.067  -1.536
    1   AR   Ar    9   7.082   6.786   4.688
    1   AR   Ar   10   5.646   5.126   5.209
    1   AR   Ar   11   1.112   6.273   4.971
    1   AR   Ar   12   0.139   1.529   4.050
    1   AR   Ar   13   6.629   0.788   4.785
    1   AR   Ar   14   3.826   1.148   6.766
    1   AR   Ar   15   2.801   7.016   9.692
    1   AR   Ar   16   0.849   0.255   6.339
    1   AR   Ar   17   5.968   3.651   1.323
    1   AR   Ar   18   7.018   5.052  -1.803
    1   AR   Ar   19   5.336   4.652   1.015
    1   AR   Ar   20   6.929   4.111  -2.303
    1   AR   Ar   21   2.356   1.661   2.036
    1   AR   Ar   22   5.642   0.923   2.180
    1   AR   Ar   23   0.676   6.581   0.473
    1   AR   Ar   24   5.681   2.672   3.359
    1   AR   Ar   25   0.894   2.695   4.598
    1   AR   Ar   26   5.864   6.723   4.747
    1   AR   Ar   27   2.064   0.280   2.041
    1   AR   Ar   28   1.779   2.041   4.050
    1   AR   Ar   29   4.986   0.980   7.813
    1   AR   Ar   30   0.469   1.178   2.790
    1   AR   Ar   31   2.497   1.246   6.979
    1   AR   Ar   32   1.363   2.362   5.576
    1   AR   Ar   33   0.273   4.186   0.224
    1   AR   Ar   34   1.352   4.844   2.097
    1   AR   Ar   35   5.779   5.288   2.437
    1   AR   Ar   36   5.656   2.188  -2.622
    1   AR   Ar   37   3.865   3.080   1.347
    1   AR   Ar   38   6.618   4.369   4.156
    1   AR   Ar   39   0.421   2.848   3.668
    1   AR   Ar   40   1.106   3.787   2.051
    1   AR   Ar   41   1.022   1.910   3.351
    1   AR   Ar   42   4.894   5.970   5.910
    1   AR   Ar   43   0.365   2.925   5.826
    1   AR   Ar   44   0.156   3.885   2.973
    1   AR   Ar   45   1.050   3.504   5.257
    1   AR   Ar   46   6.959   4.686   6.958
    1   AR   Ar   47   3.793   3.885   7.939
    1   AR   Ar   48   0.058   3.753   7.829
    1   AR   Ar   49   6.952   1.234   0.328
    1   AR   Ar   50   4.186   5.301   0.577
    1   AR   Ar   51   5.717   3.402   2.673
    1   AR   Ar   52   5.441   3.253  -1.185
    1   AR   Ar   53   4.632   0.140   3.012
    1   AR   Ar   54   0.713   0.059   1.980
    1   AR   Ar   55   6.911   4.801   2.188
    1   AR   Ar   56   6.480   1.607   2.766
    1   AR   Ar   57   4.045   4.257   2.042
    1   AR   Ar   58   0.639   3.863   4.217
    1   AR   Ar   59   2.913   5.657   5.613
    1   AR   Ar   60   0.228   5.587   2.830
    1   AR   Ar   61   0.464   3.518   6.742
    1   AR   Ar   62   0.292   4.453   5.144
    1   AR   Ar   63   3.105   2.419   6.924
    1   AR   Ar   64   7.108   5.611   4.772
    1   AR   Ar   65   4.001   0.792   2.136
    1   AR   Ar   66   1.591   1.143   1.353
    1   AR   Ar   67   4.486   0.276  -0.631
    1   AR   Ar   68   0.119   1.038  -1.297
    1   AR   Ar   69   2.035   1.402   0.253
    1   AR   Ar   70   0.289   1.309   1.729
    1   AR   Ar   71   2.906   0.967   2.640
    1   AR   Ar   72   4.198   1.029   1.009
    1   AR   Ar   73   3.112   0.356   3.918
    1   AR   Ar   74   1.099   0.948   3.935
    1   AR   Ar   75   3.172   0.754   4.855
    1   AR   Ar   76   2.235   7.118   1.027
    1   AR   Ar   77   1.904   5.865   5.653
    1   AR   Ar   78   6.959   5.346   5.805
    1   AR   Ar   79   3.196   6.742   5.837
    1   AR   Ar   80   3.918   5.733   5.575
    1   AR   Ar   81   1.687   6.362   1.501
    1   AR   Ar   82   6.322   4.735   0.697
    1   AR   Ar   83   1.115   3.579   0.648
    1   AR   Ar   84   0.972   4.533   1.194
    1   AR   Ar   85   1.382   4.186  -0.173
    1   AR   Ar   86   1.804   5.241   1.042
    1   AR   Ar   87   3.402   3.449   2.306
    1   AR   Ar   88   3.620   5.322   1.675
    1   AR   Ar   89   6.591   1.951   1.030
    1   AR   Ar   90   3.183   1.703   5.497
    1   AR   Ar   91   1.916   1.256   3.191
    1   AR   Ar   92   2.173   2.690   1.725
    1   AR   Ar   93   2.175   1.034   5.222
    1   AR   Ar   94   1.443   6.816   8.430
    1   AR   Ar   95   4.350   1.178   5.314
    1   AR   Ar   96   2.228   7.110   4.802
    1   AR   Ar   97   2.785   2.676  -1.016
    1   AR   Ar   98   1.716   4.360   4.113
    1   AR   Ar   99   5.860   0.182  -0.532
    1   AR   Ar  100   6.624   2.777  -2.763
    1   AR   Ar  101   3.915   6.138   2.420
    1   AR   Ar  102   3.610   1.779   2.620
    1   AR   Ar  103   2.162   4.459   0.554
    1   AR   Ar  104   3.526   6.431  -1.317
    1   AR   Ar  105   2.633   2.013   3.430
    1   AR   Ar  106   4.037   2.199   5.120
    1   AR   Ar  107   1.081   5.228   5.689
    1   AR   Ar  108   2.318   1.026   4.251
    1   AR   Ar  109   1.924   4.493   5.690
    1   AR   Ar  110   2.433   2.243   5.095
    1   AR   Ar  111   3.749   5.790   8.220
    1   AR   Ar  112   6.396   6.414   5.558
    1   AR   Ar  113   0.966   6.198  -1.588
    1   AR   Ar  114   2.443   0.263   0.089
    1   AR   Ar  115   0.803   5.303   0.220
    1   AR   Ar  116   4.429   0.200   0.411
    1   AR   Ar  117   0.387   4.682   3.544
    1   AR   Ar  118   1.769   5.663   3.164
    1   AR   Ar  119   1.551   4.241   2.975
    1   AR   Ar  120   1.930   6.665   2.801
    1   AR   Ar  121   5.300   4.339   5.873
    1   AR   Ar  122   2.889   5.609   3.938
    1   AR   Ar  123   3.189   2.690   6.039
    1   AR   Ar  124   0.779   5.581   1.515
    1   AR   Ar  125   5.724   3.535   4.083
    1   AR   Ar  126   6.751   0.254   7.540
    1   AR   Ar  127   4.652   3.247   6.237
    1   AR   Ar  128   1.820   4.115   6.639
    1   AR   Ar  129   1.948   5.330   4.616
    1   AR   Ar  130   4.068   1.343  -4.875
    1   AR   Ar  131   4.656   6.205  -1.698
    1   AR   Ar  132   0.674   2.004   0.928
    1   AR   Ar  133   4.030   0.274   4.579
    1   AR   Ar  134   3.296   1.392   4.053
    1   AR   Ar  135   5.903   1.361   4.401
    1   AR   Ar  136   5.767   7.083   2.871
    1   AR   Ar  137   2.970   4.106   5.997
    1   AR   Ar  138   5.554   1.092   5.594
    1   AR   Ar  139   6.245   2.083   5.090
    1   AR   Ar  140   4.457   6.531   5.020
    1   AR   Ar  141   3.891   5.728   4.373
    1   AR   Ar  142   4.605   6.394   7.687
    1   AR   Ar  143   5.471   6.585   6.713
    1   AR   Ar  144   0.404   2.023   5.171
    1   AR   Ar  145   4.512   5.243  -0.512
    1   AR   Ar  146   3.792   2.517   3.283
    1   AR   Ar  147   5.058   4.028  -0.297
    1   AR   Ar  148   2.495   6.043  -1.470
    1   AR   Ar  149   0.532   1.785  -0.352
    1   AR   Ar  150   1.924   2.619   2.988
    1   AR   Ar  151   2.816   3.414   3.130
    1   AR   Ar  152   0.843   1.103  -2.387
    1   AR   Ar  153   5.615   0.923   3.311
    1   AR   Ar  154   4.639   2.732   3.933
    1   AR   Ar  155   6.280   3.673   5.322
    1   AR   Ar  156   2.409   4.655   3.233
    1   AR   Ar  157   2.722   5.310   6.757
    1   AR   Ar  158   0.482   1.796   6.198
    1   AR   Ar  159   3.918   0.191   6.193
    1   AR   Ar  160   1.061   0.600   5.176
    1   AR   Ar  161   4.964   4.174   3.355
    1   AR   Ar  162   4.163   6.381  -0.367
    1   AR   Ar  163   6.078   4.240   2.248
    1   AR   Ar  164   2.040   5.687   2.140
    1   AR   Ar  165   3.342   4.257   1.117
    1   AR   Ar  166   2.337   3.742   4.671
    1   AR   Ar  167   6.359   6.917   3.691
    1   AR   Ar  168   5.417   4.205  -2.337
    1   AR   Ar  169   3.872   3.822   3.300
    1   AR   Ar  170   2.125   3.295   5.902
    1   AR   Ar  171   4.982   5.246   4.188
    1   AR   Ar  172   3.526   3.543   4.682
    1   AR   Ar  173   2.255   2.046   6.275
    1   AR   Ar  174   3.331   6.570   4.862
    1   AR   Ar  175   3.155   0.707   5.943
    1   AR   Ar  176   3.053   2.713   4.118
    1   AR   Ar  177   0.672   4.475  -0.974
    1   AR   Ar  178   2.716   6.241   0.307
    1   AR   Ar  179   3.378   6.913   0.699
    1   AR   Ar  180   4.913   0.401  -7.020
    1   AR   Ar  181   7.053   5.964   1.914
    1   AR   Ar  182   1.009   6.166   2.512
    1   AR   Ar  183   4.714   5.666   1.886
    1   AR   Ar  184   4.502   6.303   0.578
    1   AR   Ar  185   3.134   4.472   4.434
    1   AR   Ar  186   2.774   5.972   2.831
    1   AR   Ar  187   3.761   6.576   3.701
    1   AR   Ar  188   3.119   0.129   1.827
    1   AR   Ar  189   6.076   2.805   5.942
    1   AR   Ar  190   2.024   6.741   3.942
    1   AR   Ar  191   3.312   6.197   6.837
    1   AR   Ar  192   4.040   3.569   5.525
    1   AR   Ar  193   2.863   6.342   1.450
    1   AR   Ar  194   5.245   5.433  -1.259
    1   AR   Ar  195   5.388   0.967   0.684
    1   AR   Ar  196   3.557   0.680   0.105
    1   AR   Ar  197   4.746   2.958   0.594
    1   AR   Ar  198   5.693   0.047   1.112
    1   AR   Ar  199   1.414   0.406   3.100
    1   AR   Ar  200   5.765   2.647  -0.090
    1   AR   Ar  201   6.574   6.526   2.723
    1   AR   Ar  202   5.140   0.552   4.290
    1   AR   Ar  203   0.333   6.744   3.222
    1   AR   Ar  204   4.341   4.746   7.572
    1   AR   Ar  205   5.800   1.934   1.988
    1   AR   Ar  206   6.005   0.427   6.406
    1   AR   Ar  207   6.829   3.307   4.312
    1   AR   Ar  208   1.032   6.080   3.959
    1   AR   Ar  209   7.028   2.086  -1.729
    1   AR   Ar  210   1.176   0.522   0.418
    1   AR   Ar  211   0.185   3.076   0.539
    1   AR   Ar  212   6.329   3.876   0.036
    1   AR   Ar  213   3.423   1.684   1.555
    1   AR   Ar  214   4.987   4.560   2.198
    1   AR   Ar  215   6.770   2.598   1.949
    1   AR   Ar  216   1.582   2.354   0.522
    1   AR   Ar  217   5.162   1.774   3.806
    1   AR   Ar  218   4.816   2.960   4.934
    1   AR   Ar  219   4.683   3.354   2.753
    1   AR   Ar  220   4.629   3.955   1.283
    1   AR   Ar  221   6.975   5.899   3.799
    1   AR   Ar  222   5.068   0.282   5.754
    1   AR   Ar  223   6.396   1.691   6.075
    1   AR   Ar  224   5.168   1.986   5.173
    1   AR   Ar  225   6.641   2.971   2.888
    1   AR   Ar  226   1.601   3.426   3.629
    1   AR   Ar  227   0.971   3.020   2.810
    1   AR   Ar  228   6.580   0.625   1.659
    1   AR   Ar  229   5.973   4.435  -1.078
    1   AR   Ar  230   3.981   4.647   3.997
    1   AR   Ar  231   4.652   2.201   2.470
    1   AR   Ar  232   5.471   2.850   1.854
    1   AR   Ar  233   6.640   2.376   4.010
    1   AR   Ar  234   5.622   2.586   4.458
    1   AR   Ar  235   6.802   0.748   3.525
    1   AR   Ar  236   4.242   4.786   5.157
    1   AR   Ar  237   4.882   0.876   6.729
    1   AR   Ar  238   5.944   5.632   6.172
    1   AR   Ar  239   0.992   4.578  11.646
    1   AR   Ar  240   1.310   2.534   6.650
    1   AR   Ar  241   1.744   6.649  -0.037
    1   AR   Ar  242   5.728   5.611   1.481
    1   AR   Ar  243   5.103   6.333   2.685
    1   AR   Ar  244   6.624   6.146   0.984
    1   AR   Ar  245   3.988   0.690   3.587
    1   AR   Ar  246   5.345   6.471  -1.029
    1   AR   Ar  247   0.091   3.543   1.905
    1   AR   Ar  248   5.435   5.423   0.046
    1   AR   Ar  249   4.180   6.844   1.519
    1   AR   Ar  250   5.056   6.591   4.025
    1   AR   Ar  251   5.115   4.008   4.931
    1   AR   Ar  252   2.433   4.358   1.944
    1   AR   Ar  253   5.712   2.608   7.743
    1   AR   Ar  254   6.079   3.259  10.190
    1   AR   Ar  255   4.338   6.247   9.006
    1   AR   Ar  256   5.698   5.762   3.667
    7.12000  7.12000 12.00000
Argon-slab step 4995
  256
    1   AR   Ar    1   5.134   3.209  -2.727
    1   AR   Ar    2   5.291   6.745   0.247
    1   AR   Ar    3   4.194   3.626  -1.118
    1   AR   Ar    4   2.794   0.927   1.254
    1   AR   Ar    5   6.414   5.157  -0.244
    1   AR   Ar    6   1.031   1.901   2.182
    1   AR   Ar    7   5.888   4.694   3.494
    1   AR   Ar    8   6.768   3.063  -1.557
    1   AR   Ar    9   7.042   6.783   4.687
    1   AR   Ar   10   5.660   5.082   5.201
    1   AR   Ar   11   1.106   6.269   4.983
    1   AR   Ar   12   0.127   1.530   4.042
    1   AR   Ar   13   6.644   0.804   4.796
    1   AR   Ar   14   3.809   1.121   6.744
    1   AR   Ar   15   2.780   6.992   9.693
    1   AR   Ar   16   0.853   0.254   6.358
    1   AR   Ar   17   5.962   3.641   1.294
    1   AR   Ar   18   7.040   5.027  -1.797
    1   AR   Ar   19   5.350   4.631   1.002
    1   AR   Ar   20   6.944   4.101  -2.299
    1   AR   Ar   21   2.366   1.682   2.003
    1   AR   Ar   22   5.637   0.922   2.166
    1   AR   Ar   23   0.672   6.590   0.501
    1   AR   Ar   24   5.696   2.681   3.338
    1   AR   Ar   25   0.900   2.674   4.608
    1   AR   Ar   26   5.890   6.725   4.755
    1   AR   Ar   27   2.055   0.299   2.032
    1   AR   Ar   28   1.805   2.026   4.083
    1   AR   Ar   29   5.024   0.996   7.873
    1   AR   Ar   30   0.464   1.146   2.810
    1   AR   Ar   31   2.464   1.228   6.951
    1   AR   Ar   32   1.377   2.327   5.575
    1   AR   Ar   33   0.256   4.200   0.231
    1   AR   Ar   34   1.327   4.869   2.121
    1   AR   Ar   35   5.753   5.293   2.431
    1   AR   Ar   36   5.660   2.228  -2.647
    1   AR   Ar   37   3.837   3.094   1.356
    1   AR   Ar   38   6.620   4.371   4.149
    1   AR   Ar   39   0.431   2.828   3.665
    1   AR   Ar   40   1.101   3.793   2.063
    1   AR   Ar   41   1.016   1.929   3.325
    1   AR   Ar   42   4.893   5.986   5.898
    1   AR   Ar   43   0.344   2.930   5.788
    1   AR   Ar   44   0.136   3.899   2.994
    1   AR   Ar   45   1.073   3.525   5.253
    1   AR   Ar   46   6.931   4.690   6.960
    1   AR   Ar   47   3.779   3.880   7.943
    1   AR   Ar   48   0.069   3.751   7.849
    1   AR   Ar   49   6.961   1.275   0.350
    1   AR   Ar   50   4.191   5.285   0.556
    1   AR   Ar   51   5.721   3.416   2.653
    1   AR   Ar   52   5.447   3.244  -1.175
    1   AR   Ar   53   4.594   0.138   3.027
    1   AR   Ar   54   0.680   0.067   2.012
    1   AR   Ar   55   6.911   4.824   2.202
    1   AR   Ar   56   6.450   1.609   2.754
    1   AR   Ar   57   4.068   4.266   2.038
    1   AR   Ar   58   0.628   3.861   4.227
    1   AR   Ar   59   2.955   5.665   5.622
    1   AR   Ar   60   0.251   5.576   2.838
    1   AR   Ar   61   0.470   3.529   6.737
    1   AR   Ar   62   0.277   4.465   5.134
    1   AR   Ar   63   3.120   2.429   6.941
    1   AR   Ar   64   7.109   5.590   4.784
    1   AR   Ar   65   3.994   0.776   2.128
    1   AR   Ar   66   1.598   1.159   1.339
    1   AR   Ar   67   4.457   0.289  -0.632
    1   AR   Ar   68   0.104   1.036  -1.267
    1   AR   Ar   69   2.063   1.423   0.237
    1   AR   Ar   70   0.251   1.320   1.706
    1   AR   Ar   71   2.919   0.961   2.627
    1   AR   Ar   72   4.168   1.027   0.970
    1   AR   Ar   73   3.128   0.325   3.905
    1   AR   Ar   74   1.120   0.940   3.927
    1   AR   Ar   75   3.174   0.755   4.874
    1   AR   Ar   76   2.260   0.015   1.042
    1   AR   Ar   77   1.896   5.872   5.659
    1   AR   Ar   78   6.980   5.377   5.834
    1   AR   Ar   79   3.195   6.730   5.828
    1   AR   Ar   80   3.947   5.753   5.596
    1   AR   Ar   81   1.719   6.343   1.479
    1   AR   Ar   82   6.351   4.723   0.672
    1   AR   Ar   83   1.127   3.584   0.658
    1   AR   Ar   84   0.963   4.550   1.198
    1   AR   Ar   85   1.365   4.185  -0.177
    1   AR   Ar   86   1.819   5.241   1.067
    1   AR   Ar   87   3.448   3.444   2.298
    1   AR   Ar   88   3.615   5.334   1.647
    1   AR   Ar   89   6.570   1.940   1.008
    1   AR   Ar   90   3.226   1.690   5.518
    1   AR   Ar   91   1.918   1.265   3.222
    1   AR   Ar   92   2.173   2.658   1.734
    1   AR   Ar   93   2.180   1.056   5.212
    1   AR   Ar   94   1.436   6.792   8.420
    1   AR   Ar   95   4.344   1.159   5.303
    1   AR   Ar   96   2.199   7.120   4.794
    1   AR   Ar   97   2.751   2.662  -0.956
    1   AR   Ar   98   1.713   4.331   4.108
    1   AR   Ar   99   5.863   0.207  -0.522
    1   AR   Ar  100   6.597   2.763  -2.728
    1   AR   Ar  101   3.896   6.113   2.420
    1   AR   Ar  102   3.595   1.787   2.616
    1   AR   Ar  103   2.150   4.483   0.542
    1   AR   Ar  104   3.529   6.438  -1.304
    1   AR   Ar  105   2.607   2.015   3.423
    1   AR   Ar  106   4.016   2.191   5.119
    1   AR   Ar  107   1.077   5.200   5.687
    1   AR   Ar  108   2.323   0.984   4.222
    1   AR   Ar  109   1.952   4.494   5.705
    1   AR   Ar  110   2.434   2.249   5.062
    1   AR   Ar  111   3.732   5.767   8.230
    1   AR   Ar  112   6.377   6.369   5.558
    1   AR   Ar  113   0.960   6.183  -1.562
    1   AR   Ar  114   2.455   0.263   0.089
    1   AR   Ar  115   0.781   5.314   0.242
    1   AR   Ar  116   4.408   0.199   0.390
    1   AR   Ar  117   0.384   4.694   3.534
    1   AR   Ar  118   1.765   5.648   3.178
    1   AR   Ar  119   1.525   4.261   2.956
    1   AR   Ar  120   1.939   6.643   2.817
    1   AR   Ar  121   5.275   4.342   5.883
    1   AR   Ar  122   2.903   5.609   3.913
    1   AR   Ar  123   3.174   2.667   5.988
    1   AR   Ar  124   0.786   5.560   1.521
    1   AR   Ar  125   5.716   3.552   4.040
    1   AR   Ar  126   6.730   0.249   7.585
    1   AR   Ar  127   4.678   3.238   6.222
    1   AR   Ar  128   1.798   4.108   6.629
    1   AR   Ar  129   1.972   5.354   4.612
    1   AR   Ar  130   4.072   1.331  -4.874
    1   AR   Ar  131   4.660   6.226  -1.695
    1   AR   Ar  132   0.709   2.032   0.930
    1   AR   Ar  133   4.032   0.298   4.592
    1   AR   Ar  134   3.315   1.420   4.048
    1   AR   Ar  135   5.907   1.343   4.407
    1   AR   Ar  136   5.775   7.101   2.868
    1   AR   Ar  137   2.964   4.117   6.035
    1   AR   Ar  138   5.574   1.072   5.607
    1   AR   Ar  139   6.234   2.080   5.074
    1   AR   Ar  140   4.454   6.558   5.006
    1   AR   Ar  141   3.869   5.727   4.383
    1   AR   Ar  142   4.622   6.389   7.706
    1   AR   Ar  143   5.447   6.585   6.725
    1   AR   Ar  144   0.438   2.040   5.207
    1   AR   Ar  145   4.498   5.235  -0.506
    1   AR   Ar  146   3.836   2.527   3.296
    1   AR   Ar  147   5.073   4.019  -0.275
    1   AR   Ar  148   2.487   6.030  -1.453
    1   AR   Ar  149   0.488   1.809  -0.355
    1   AR   Ar  150   1.917   2.615   2.962
    1   AR   Ar  151   2.802   3.427   3.139
    1   AR   Ar  152   0.835   1.085  -2.350
    1   AR   Ar  153   5.600   0.945   3.298
    1   AR   Ar  154   4.603   2.760   3.958
    1   AR   Ar  155   6.259   3.680   5.279
    1   AR   Ar  156   2.375   4.650   3.240
    1   AR   Ar  157   2.745   5.273   6.754
    1   AR   Ar  158   0.494   1.816   6.198
    1   AR   Ar  159   3.904   0.173   6.204
    1   AR   Ar  160   1.083   0.593   5.179
    1   AR   Ar  161   4.962   4.149   3.345
    1   AR   Ar  162   4.129   6.395  -0.408
    1   AR   Ar  163   6.063   4.228   2.236
    1   AR   Ar  164   2.050   5.662   2.152
    1   AR   Ar  165   3.347   4.259   1.137
    1   AR   Ar  166   2.362   3.747   4.741
    1   AR   Ar  167   6.339   6.894   3.712
    1   AR   Ar  168   5.397   4.223  -2.354
    1   AR   Ar  169   3.878   3.836   3.285
    1   AR   Ar  170   2.143   3.290   5.883
    1   AR   Ar  171   4.978   5.251   4.162
    1   AR   Ar  172   3.518   3.546   4.674
    1   AR   Ar  173   2.241   2.022   6.261
    1   AR   Ar  174   3.338   6.549   4.858
    1   AR   Ar  175   3.146   0.692   5.900
    1   AR   Ar  176   3.068   2.710   4.125
    1   AR   Ar  177   0.678   4.457  -1.005
    1   AR   Ar  178   2.738   6.240   0.290
    1   AR   Ar  179   3.391   6.894   0.714
    1   AR   Ar  180   4.913   0.407  -7.048
    1   AR   Ar  181   7.057   5.967   1.896
    1   AR   Ar  182   0.998   6.163   2.557
    1   AR   Ar  183   4.676   5.646   1.833
    1   AR   Ar  184   4.482   6.308   0.558
    1   AR   Ar  185   3.114   4.474   4.430
    1   AR   Ar  186   2.805   5.968   2.843
    1   AR   Ar  187   3.774   6.577   3.703
    1   AR   Ar  188   3.113   0.149   1.821
    1   AR   Ar  189   6.063   2.809   5.937
    1   AR   Ar  190   1.982   6.726   3.927
    1   AR   Ar  191   3.330   6.221   6.839
    1   AR   Ar  192   4.041   3.596   5.491
    1   AR   Ar  193   2.878   6.343   1.466
    1   AR   Ar  194   5.250   5.464  -1.264
    1   AR   Ar  195   5.375   0.953   0.686
    1   AR   Ar  196   3.569   0.687   0.128
    1   AR   Ar  197   4.736   2.953   0.579
    1   AR   Ar  198   5.687   0.006   1.103
    1   AR   Ar  199   1.400   0.408   3.103
    1   AR   Ar  200   5.795   2.627  -0.104
    1   AR   Ar  201   6.549   6.501   2.714
    1   AR   Ar  202   5.128   0.544   4.263
    1   AR   Ar  203   0.347   6.731   3.208
    1   AR   Ar  204   4.364   4.723   7.554
    1   AR   Ar  205   5.794   1.937   1.965
    1   AR   Ar  206   6.027   0.413   6.393
    1   AR   Ar  207   6.836   3.305   4.291
    1   AR   Ar  208   1.016   6.096   3.959
    1   AR   Ar  209   7.018   2.103  -1.741
    1   AR   Ar  210   1.167   0.542   0.428
    1   AR   Ar  211   0.193   3.098   0.522
    1   AR   Ar  212   6.338   3.870   0.024
    1   AR   Ar  213   3.405   1.681   1.547
    1   AR   Ar  214   5.008   4.549   2.182
    1   AR   Ar  215   6.805   2.586   1.928
    1   AR   Ar  216   1.600   2.328   0.536
    1   AR   Ar  217   5.178   1.780   3.846
    1   AR   Ar  218   4.805   2.972   4.950
    1   AR   Ar  219   4.648   3.334   2.734
    1   AR   Ar  220   4.623   3.950   1.276
    1   AR   Ar  221   6.957   5.888   3.797
    1   AR   Ar  222   5.081   0.280   5.756
    1   AR   Ar  223   6.434   1.702   6.042
    1   AR   Ar  224   5.193   1.987   5.172
    1   AR   Ar  225   6.665   2.972   2.923
    1   AR   Ar  226   1.595   3.419   3.638
    1   AR   Ar  227   0.976   3.020   2.825
    1   AR   Ar  228   6.578   0.649   1.643
    1   AR   Ar  229   5.976   4.451  -1.066
    1   AR   Ar  230   4.013   4.657   3.958
    1   AR   Ar  231   4.650   2.185   2.485
    1   AR   Ar  232   5.479   2.883   1.846
    1   AR   Ar  233   6.656   2.365   3.980
    1   AR   Ar  234   5.645   2.556   4.451
    1   AR   Ar  235   6.792   0.777   3.543
    1   AR   Ar  236   4.248   4.770   5.149
    1   AR   Ar  237   4.866   0.840   6.714
    1   AR   Ar  238   5.942   5.653   6.154
    1   AR   Ar  239   1.021   4.589  11.647
    1   AR   Ar  240   1.365   2.542   6.660
    1   AR   Ar  241   1.750   6.631  -0.027
    1   AR   Ar  242   5.723   5.627   1.494
    1   AR   Ar  243   5.073   6.330   2.686
    1   AR   Ar  244   6.587   6.163   0.982
    1   AR   Ar  245   3.985   0.730   3.602
    1   AR   Ar  246   5.345   6.462  -1.029
    1   AR   Ar  247   0.072   3.551   1.859
    1   AR   Ar  248   5.448   5.433   0.014
    1   AR   Ar  249   4.166   6.846   1.539
    1   AR   Ar  250   5.009   6.596   4.009
    1   AR   Ar  251   5.095   3.996   4.930
    1   AR   Ar  252   2.466   4.370   1.922
    1   AR   Ar  253   5.710   2.568   7.722
    1   AR   Ar  254   6.060   3.232  10.202
    1   AR   Ar  255   4.315   6.262   8.980
    1   AR   Ar  256   5.729   5.789   3.667
    7.12000  7.12000 12.00000
Argon-slab step 5000
  256
    1   AR   Ar    1   5.145   3.206  -2.735
    1   AR   Ar    2   5.275   6.755   0.237
    1   AR   Ar    3   4.172   3.618  -1.122
    1   AR   Ar    4   2.780   0.940   1.247
    1   AR   Ar    5   6.431   5.140  -0.261
    1   AR   Ar    6   0.998   1.915   2.195
    1   AR   Ar    7   5.898   4.717   3.470
    1   AR   Ar    8   6.768   3.067  -1.577
    1   AR   Ar    9   7.002   6.779   4.685
    1   AR   Ar   10   5.675   5.039   5.190
    1   AR   Ar   11   1.100   6.265   4.998
    1   AR   Ar   12   0.121   1.531   4.037
    1   AR   Ar   13   6.676   0.816   4.805
    1   AR   Ar   14   3.790   1.095   6.722
    1   AR   Ar   15   2.759   6.969   9.694
    1   AR   Ar   16   0.859   0.250   6.363
    1   AR   Ar   17   5.935   3.662   1.279
    1   AR   Ar   18   7.062   5.004  -1.788
    1   AR   Ar   19   5.360   4.611   0.991
    1   AR   Ar   20   6.958   4.088  -2.295
    1   AR   Ar   21   2.376   1.698   1.972
    1   AR   Ar   22   5.631   0.917   2.154
    1   AR   Ar   23   0.669   6.598   0.531
    1   AR   Ar   24   5.708   2.684   3.323
    1   AR   Ar   25   0.912   2.658   4.611
    1   AR   Ar   26   5.911   6.731   4.755
    1   AR   Ar   27   2.044   0.320   2.026
    1   AR   Ar   28   1.828   2.010   4.120
    1   AR   Ar   29   5.062   1.013   7.932
    1   AR   Ar   30   0.458   1.113   2.830
    1   AR   Ar   31   2.433   1.210   6.923
    1   AR   Ar   32   1.394   2.293   5.574
    1   AR   Ar   33   0.242   4.216   0.238
    1   AR   Ar   34   1.311   4.878   2.127
    1   AR   Ar   35   5.730   5.297   2.436
    1   AR   Ar   36   5.664   2.267  -2.672
    1   AR   Ar   37   3.810   3.108   1.365
    1   AR   Ar   38   6.626   4.372   4.146
    1   AR   Ar   39   0.441   2.810   3.663
    1   AR   Ar   40   1.098   3.799   2.075
    1   AR   Ar   41   1.009   1.948   3.300
    1   AR   Ar   42   4.883   6.013   5.890
    1   AR   Ar   43   0.322   2.936   5.750
    1   AR   Ar   44   0.114   3.904   3.010
    1   AR   Ar   45   1.092   3.506   5.255
    1   AR   Ar   46   6.903   4.694   6.961
    1   AR   Ar   47   3.765   3.874   7.946
    1   AR   Ar   48   0.080   3.749   7.868
    1   AR   Ar   49   6.974   1.310   0.368
    1   AR   Ar   50   4.197   5.266   0.538
    1   AR   Ar   51   5.723   3.431   2.642
    1   AR   Ar   52   5.453   3.235  -1.164
    1   AR   Ar   53   4.561   0.134   3.040
    1   AR   Ar   54   0.648   0.074   2.045
    1   AR   Ar   55   6.915   4.850   2.214
    1   AR   Ar   56   6.421   1.610   2.743
    1   AR   Ar   57   4.084   4.278   2.041
    1   AR   Ar   58   0.620   3.858   4.236
    1   AR   Ar   59   2.988   5.672   5.632
    1   AR   Ar   60   0.268   5.559   2.852
    1   AR   Ar   61   0.477   3.539   6.731
    1   AR   Ar   62   0.256   4.481   5.125
    1   AR   Ar   63   3.133   2.434   6.971
    1   AR   Ar   64   7.111   5.569   4.799
    1   AR   Ar   65   3.961   0.787   2.140
    1   AR   Ar   66   1.604   1.175   1.325
    1   AR   Ar   67   4.429   0.302  -0.638
    1   AR   Ar   68   0.089   1.036  -1.237
    1   AR   Ar   69   2.092   1.439   0.223
    1   AR   Ar   70   0.182   1.322   1.716
    1   AR   Ar   71   2.932   0.954   2.614
    1   AR   Ar   72   4.137   1.028   0.936
    1   AR   Ar   73   3.135   0.288   3.893
    1   AR   Ar   74   1.139   0.936   3.924
    1   AR   Ar   75   3.172   0.758   4.895
    1   AR   Ar   76   2.286   0.030   1.060
    1   AR   Ar   77   1.891   5.881   5.664
    1   AR   Ar   78   7.001   5.406   5.865
    1   AR   Ar   79   3.184   6.712   5.823
    1   AR   Ar   80   3.977   5.773   5.614
    1   AR   Ar   81   1.745   6.327   1.454
    1   AR   Ar   82   6.382   4.710   0.654
    1   AR   Ar   83   1.140   3.589   0.672
    1   AR   Ar   84   0.952   4.563   1.198
    1   AR   Ar   85   1.347   4.187  -0.183
    1   AR   Ar   86   1.830   5.253   1.101
    1   AR   Ar   87   3.494   3.438   2.291
    1   AR   Ar   88   3.607   5.351   1.617
    1   AR   Ar   89   6.549   1.938   0.989
    1   AR   Ar   90   3.266   1.672   5.542
    1   AR   Ar   91   1.945   1.266   3.217
    1   AR   Ar   92   2.171   2.631   1.743
    1   AR   Ar   93   2.184   1.081   5.212
    1   AR   Ar   94   1.429   6.769   8.410
    1   AR   Ar   95   4.336   1.178   5.316
    1   AR   Ar   96   2.175   0.016   4.799
    1   AR   Ar   97   2.717   2.649  -0.896
    1   AR   Ar   98   1.709   4.308   4.104
    1   AR   Ar   99   5.865   0.232  -0.510
    1   AR   Ar  100   6.571   2.750  -2.691
    1   AR   Ar  101   3.876   6.090   2.421
    1   AR   Ar  102   3.580   1.793   2.611
    1   AR   Ar  103   2.139   4.493   0.535
    1   AR   Ar  104   3.533   6.445  -1.292
    1   AR   Ar  105   2.591   2.015   3.416
    1   AR   Ar  106   4.000   2.188   5.114
    1   AR   Ar  107   1.071   5.171   5.683
    1   AR   Ar  108   2.325   0.943   4.184
    1   AR   Ar  109   1.982   4.497   5.712
    1   AR   Ar  110   2.433   2.256   5.029
    1   AR   Ar  111   3.727   5.766   8.251
    1   AR   Ar  112   6.366   6.324   5.561
    1   AR   Ar  113   0.955   6.167  -1.535
    1   AR   Ar  114   2.473   0.269   0.084
    1   AR   Ar  115   0.773   5.333   0.247
    1   AR   Ar  116   4.394   0.191   0.383
    1   AR   Ar  117   0.385   4.715   3.530
    1   AR   Ar  118   1.760   5.630   3.196
    1   AR   Ar  119   1.486   4.274   2.935
    1   AR   Ar  120   1.948   6.627   2.817
    1   AR   Ar  121   5.250   4.345   5.897
    1   AR   Ar  122   2.915   5.607   3.887
    1   AR   Ar  123   3.159   2.649   5.923
    1   AR   Ar  124   0.807   5.584   1.526
    1   AR   Ar  125   5.708   3.572   3.996
    1   AR   Ar  126   6.718   0.262   7.619
    1   AR   Ar  127   4.708   3.227   6.210
    1   AR   Ar  128   1.775   4.097   6.625
    1   AR   Ar  129   1.995   5.379   4.607
    1   AR   Ar  130   4.075   1.318  -4.873
    1   AR   Ar  131   4.652   6.247  -1.700
    1   AR   Ar  132   0.737   2.057   0.935
    1   AR   Ar  133   4.040   0.321   4.603
    1   AR   Ar  134   3.334   1.452   4.043
    1   AR   Ar  135   5.906   1.323   4.406
    1   AR   Ar  136   5.773   0.008   2.863
    1   AR   Ar  137   2.958   4.127   6.072
    1   AR   Ar  138   5.607   1.072   5.614
    1   AR   Ar  139   6.237   2.074   5.064
    1   AR   Ar  140   4.452   6.583   4.995
    1   AR   Ar  141   3.851   5.725   4.396
    1   AR   Ar  142   4.638   6.384   7.724
    1   AR   Ar  143   5.423   6.586   6.735
    1   AR   Ar  144   0.418   2.029   5.212
    1   AR   Ar  145   4.483   5.227  -0.499
    1   AR   Ar  146   3.878   2.541   3.308
    1   AR   Ar  147   5.089   4.011  -0.253
    1   AR   Ar  148   2.480   6.018  -1.435
    1   AR   Ar  149   0.445   1.834  -0.359
    1   AR   Ar  150   1.911   2.609   2.932
    1   AR   Ar  151   2.790   3.437   3.147
    1   AR   Ar  152   0.827   1.067  -2.311
    1   AR   Ar  153   5.586   0.967   3.285
    1   AR   Ar  154   4.571   2.788   3.980
    1   AR   Ar  155   6.238   3.688   5.233
    1   AR   Ar  156   2.354   4.652   3.252
    1   AR   Ar  157   2.767   5.235   6.749
    1   AR   Ar  158   0.507   1.837   6.203
    1   AR   Ar  159   3.911   0.152   6.216
    1   AR   Ar  160   1.106   0.587   5.183
    1   AR   Ar  161   4.957   4.135   3.331
    1   AR   Ar  162   4.096   6.409  -0.451
    1   AR   Ar  163   6.051   4.225   2.219
    1   AR   Ar  164   2.061   5.633   2.165
    1   AR   Ar  165   3.352   4.262   1.158
    1   AR   Ar  166   2.387   3.749   4.813
    1   AR   Ar  167   6.321   6.869   3.738
    1   AR   Ar  168   5.377   4.240  -2.370
    1   AR   Ar  169   3.882   3.849   3.270
    1   AR   Ar  170   2.160   3.285   5.863
    1   AR   Ar  171   4.970   5.253   4.138
    1   AR   Ar  172   3.527   3.552   4.683
    1   AR   Ar  173   2.228   2.000   6.244
    1   AR   Ar  174   3.345   6.528   4.843
    1   AR   Ar  175   3.123   0.686   5.858
    1   AR   Ar  176   3.081   2.709   4.138
    1   AR   Ar  177   0.682   4.439  -1.036
    1   AR   Ar  178   2.756   6.235   0.273
    1   AR   Ar  179   3.409   6.880   0.730
    1   AR   Ar  180   4.914   0.413  -7.076
    1   AR   Ar  181   7.056   5.972   1.882
    1   AR   Ar  182   0.996   6.166   2.596
    1   AR   Ar  183   4.639   5.626   1.780
    1   AR   Ar  184   4.451   6.302   0.548
    1   AR   Ar  185   3.088   4.481   4.428
    1   AR   Ar  186   2.811   5.956   2.837
    1   AR   Ar  187   3.788   6.578   3.705
    1   AR   Ar  188   3.113   0.168   1.821
    1   AR   Ar  189   6.049   2.813   5.931
    1   AR   Ar  190   1.936   6.704   3.900
    1   AR   Ar  191   3.350   6.246   6.840
    1   AR   Ar  192   4.048   3.626   5.467
    1   AR   Ar  193   2.890   6.336   1.484
    1   AR   Ar  194   5.272   5.477  -1.242
    1   AR   Ar  195   5.361   0.939   0.688
    1   AR   Ar  196   3.574   0.698   0.148
    1   AR   Ar  197   4.727   2.949   0.565
    1   AR   Ar  198   5.684   7.086   1.101
    1   AR   Ar  199   1.382   0.400   3.100
    1   AR   Ar  200   5.825   2.609  -0.118
    1   AR   Ar  201   6.530   6.467   2.703
    1   AR   Ar  202   5.114   0.536   4.235
    1   AR   Ar  203   0.362   6.719   3.196
    1   AR   Ar  204   4.387   4.702   7.536
    1   AR   Ar  205   5.790   1.936   1.942
    1   AR   Ar  206   6.048   0.399   6.380
    1   AR   Ar  207   6.841   3.310   4.274
    1   AR   Ar  208   1.009   6.102   3.959
    1   AR   Ar  209   7.010   2.112  -1.755
    1   AR   Ar  210   1.162   0.531   0.403
    1   AR   Ar  211   0.199   3.118   0.505
    1   AR   Ar  212   6.345   3.864   0.010
    1   AR   Ar  213   3.391   1.683   1.540
    1   AR   Ar  214   5.037   4.538   2.167
    1   AR   Ar  215   6.838   2.570   1.906
    1   AR   Ar  216   1.621   2.308   0.549
    1   AR   Ar  217   5.198   1.763   3.838
    1   AR   Ar  218   4.794   2.979   4.967
    1   AR   Ar  219   4.612   3.311   2.713
    1   AR   Ar  220   4.620   3.938   1.263
    1   AR   Ar  221   6.938   5.879   3.792
    1   AR   Ar  222   5.079   0.257   5.761
    1   AR   Ar  223   6.474   1.711   6.011
    1   AR   Ar  224   5.210   1.984   5.173
    1   AR   Ar  225   6.673   2.957   2.931
    1   AR   Ar  226   1.589   3.408   3.646
    1   AR   Ar  227   0.978   3.022   2.835
    1   AR   Ar  228   6.573   0.670   1.627
    1   AR   Ar  229   5.978   4.466  -1.052
    1   AR   Ar  230   4.052   4.669   3.919
    1   AR   Ar  231   4.658   2.196   2.512
    1   AR   Ar  232   5.480   2.917   1.832
    1   AR   Ar  233   6.663   2.348   3.948
    1   AR   Ar  234   5.665   2.533   4.431
    1   AR   Ar  235   6.777   0.800   3.556
    1   AR   Ar  236   4.254   4.753   5.139
    1   AR   Ar  237   4.851   0.802   6.698
    1   AR   Ar  238   5.936   5.671   6.140
    1   AR   Ar  239   1.050   4.601  11.648
    1   AR   Ar  240   1.419   2.551   6.669
    1   AR   Ar  241   1.751   6.611  -0.015
    1   AR   Ar  242   5.720   5.646   1.497
    1   AR   Ar  243   5.075   6.338   2.670
    1   AR   Ar  244   6.548   6.180   0.977
    1   AR   Ar  245   3.988   0.776   3.614
    1   AR   Ar  246   5.352   6.461  -1.017
    1   AR   Ar  247   0.053   3.564   1.813
    1   AR   Ar  248   5.457   5.444  -0.016
    1   AR   Ar  249   4.151   6.849   1.558
    1   AR   Ar  250   4.961   6.601   3.992
    1   AR   Ar  251   5.075   3.985   4.924
    1   AR   Ar  252   2.497   4.383   1.901
    1   AR   Ar  253   5.708   2.527   7.702
    1   AR   Ar  254   6.041   3.205  10.215
    1   AR   Ar  255   4.292   6.277   8.955
    1   AR   Ar  256   5.763   5.819   3.664
    7.12000  7.12000 12.00000
Argon-slab step 5005
  256
    1   AR   Ar    1   5.140   3.231  -2.734
    1   AR   Ar    2   5.266   6.766   0.215
    1   AR   Ar    3   4.152   3.610  -1.126
    1   AR   Ar    4   2.756   0.959   1.237
    1   AR   Ar    5   6.452   5.124  -0.285
    1   AR   Ar    6   0.967   1.931   2.207
    1   AR   Ar    7   5.906   4.741   3.442
    1   AR   Ar    8   6.765   3.081  -1.596
    1   AR   Ar    9   7.000   6.784   4.667
    1   AR   Ar   10   5.689   4.997   5.179
    1   AR   Ar   11   1.108   6.258   5.009
    1   AR   Ar   12   0.127   1.535   4.039
    1   AR   Ar   13   6.702   0.823   4.815
    1   AR   Ar   14   3.769   1.070   6.699
    1   AR   Ar   15   2.738   6.945   9.695
    1   AR   Ar   16   0.871   0.232   6.317
    1   AR   Ar   17   5.909   3.687   1.262
    1   AR   Ar   18   7.084   4.984  -1.776
    1   AR   Ar   19   5.349   4.581   0.989
    1   AR   Ar   20   6.970   4.071  -2.291
    1   AR   Ar   21   2.388   1.701   1.947
    1   AR   Ar   22   5.625   0.908   2.142
    1   AR   Ar   23   0.668   6.605   0.561
    1   AR   Ar   24   5.719   2.678   3.314
    1   AR   Ar   25   0.930   2.648   4.608
    1   AR   Ar   26   5.926   6.740   4.748
    1   AR   Ar   27   2.032   0.344   2.024
    1   AR   Ar   28   1.847   1.994   4.159
    1   AR   Ar   29   5.080   1.038   7.938
    1   AR   Ar   30   0.452   1.080   2.851
    1   AR   Ar   31   2.404   1.190   6.894
    1   AR   Ar   32   1.412   2.262   5.573
    1   AR   Ar   33   0.228   4.233   0.246
    1   AR   Ar   34   1.297   4.885   2.130
    1   AR   Ar   35   5.708   5.300   2.451
    1   AR   Ar   36   5.663   2.302  -2.696
    1   AR   Ar   37   3.786   3.121   1.369
    1   AR   Ar   38   6.656   4.372   4.135
    1   AR   Ar   39   0.450   2.792   3.664
    1   AR   Ar   40   1.094   3.805   2.083
    1   AR   Ar   41   1.003   1.968   3.276
    1   AR   Ar   42   4.887   6.045   5.885
    1   AR   Ar   43   0.299   2.941   5.714
    1   AR   Ar   44   0.091   3.902   3.020
    1   AR   Ar   45   1.113   3.490   5.258
    1   AR   Ar   46   6.875   4.697   6.962
    1   AR   Ar   47   3.750   3.869   7.949
    1   AR   Ar   48   0.092   3.748   7.885
    1   AR   Ar   49   6.992   1.336   0.381
    1   AR   Ar   50   4.202   5.245   0.522
    1   AR   Ar   51   5.720   3.442   2.643
    1   AR   Ar   52   5.460   3.228  -1.153
    1   AR   Ar   53   4.530   0.127   3.051
    1   AR   Ar   54   0.616   0.081   2.080
    1   AR   Ar   55   6.921   4.876   2.226
    1   AR   Ar   56   6.397   1.614   2.746
    1   AR   Ar   57   4.041   4.274   2.048
    1   AR   Ar   58   0.615   3.856   4.244
    1   AR   Ar   59   3.011   5.675   5.641
    1   AR   Ar   60   0.277   5.537   2.869
    1   AR   Ar   61   0.484   3.550   6.725
    1   AR   Ar   62   0.235   4.497   5.115
    1   AR   Ar   63   3.144   2.437   7.002
    1   AR   Ar   64   7.114   5.548   4.815
    1   AR   Ar   65   3.928   0.798   2.151
    1   AR   Ar   66   1.610   1.180   1.317
    1   AR   Ar   67   4.402   0.315  -0.648
    1   AR   Ar   68   0.074   1.037  -1.207
    1   AR   Ar   69   2.122   1.449   0.209
    1   AR   Ar   70   0.124   1.334   1.727
    1   AR   Ar   71   2.941   0.944   2.602
    1   AR   Ar   72   4.108   1.034   0.911
    1   AR   Ar   73   3.142   0.289   3.890
    1   AR   Ar   74   1.156   0.938   3.928
    1   AR   Ar   75   3.166   0.764   4.901
    1   AR   Ar   76   2.310   0.042   1.076
    1   AR   Ar   77   1.887   5.889   5.669
    1   AR   Ar   78   7.023   5.434   5.896
    1   AR   Ar   79   3.165   6.690   5.820
    1   AR   Ar   80   4.004   5.792   5.626
    1   AR   Ar   81   1.769   6.313   1.428
    1   AR   Ar   82   6.359   4.719   0.634
    1   AR   Ar   83   1.155   3.593   0.689
    1   AR   Ar   84   0.939   4.574   1.192
    1   AR   Ar   85   1.329   4.190  -0.189
    1   AR   Ar   86   1.837   5.273   1.141
    1   AR   Ar   87   3.537   3.431   2.289
    1   AR   Ar   88   3.598   5.367   1.586
    1   AR   Ar   89   6.523   1.944   0.980
    1   AR   Ar   90   3.298   1.648   5.568
    1   AR   Ar   91   1.957   1.268   3.195
    1   AR   Ar   92   2.163   2.612   1.742
    1   AR   Ar   93   2.187   1.109   5.216
    1   AR   Ar   94   1.420   6.756   8.405
    1   AR   Ar   95   4.328   1.203   5.334
    1   AR   Ar   96   2.154   0.036   4.809
    1   AR   Ar   97   2.683   2.635  -0.836
    1   AR   Ar   98   1.705   4.291   4.103
    1   AR   Ar   99   5.866   0.257  -0.498
    1   AR   Ar  100   6.550   2.741  -2.652
    1   AR   Ar  101   3.856   6.068   2.423
    1   AR   Ar  102   3.565   1.798   2.605
    1   AR   Ar  103   2.129   4.492   0.527
    1   AR   Ar  104   3.532   6.451  -1.287
    1   AR   Ar  105   2.589   2.018   3.409
    1   AR   Ar  106   3.991   2.193   5.104
    1   AR   Ar  107   1.062   5.140   5.678
    1   AR   Ar  108   2.326   0.904   4.143
    1   AR   Ar  109   2.013   4.503   5.712
    1   AR   Ar  110   2.433   2.264   4.997
    1   AR   Ar  111   3.738   5.773   8.264
    1   AR   Ar  112   6.364   6.286   5.560
    1   AR   Ar  113   0.953   6.162  -1.537
    1   AR   Ar  114   2.494   0.279   0.074
    1   AR   Ar  115   0.768   5.353   0.249
    1   AR   Ar  116   4.386   0.180   0.382
    1   AR   Ar  117   0.388   4.743   3.531
    1   AR   Ar  118   1.754   5.611   3.217
    1   AR   Ar  119   1.441   4.281   2.920
    1   AR   Ar  120   1.958   6.613   2.811
    1   AR   Ar  121   5.224   4.347   5.915
    1   AR   Ar  122   2.924   5.605   3.861
    1   AR   Ar  123   3.143   2.635   5.854
    1   AR   Ar  124   0.840   5.629   1.527
    1   AR   Ar  125   5.701   3.593   3.953
    1   AR   Ar  126   6.719   0.305   7.636
    1   AR   Ar  127   4.739   3.216   6.197
    1   AR   Ar  128   1.751   4.082   6.626
    1   AR   Ar  129   2.018   5.403   4.603
    1   AR   Ar  130   4.079   1.306  -4.873
    1   AR   Ar  131   4.636   6.266  -1.710
    1   AR   Ar  132   0.755   2.079   0.945
    1   AR   Ar  133   4.051   0.344   4.611
    1   AR   Ar  134   3.320   1.466   4.038
    1   AR   Ar  135   5.904   1.303   4.404
    1   AR   Ar  136   5.766   0.040   2.857
    1   AR   Ar  137   2.951   4.137   6.109
    1   AR   Ar  138   5.648   1.083   5.619
    1   AR   Ar  139   6.254   2.065   5.063
    1   AR   Ar  140   4.453   6.603   4.985
    1   AR   Ar  141   3.838   5.718   4.410
    1   AR   Ar  142   4.641   6.375   7.738
    1   AR   Ar  143   5.399   6.587   6.744
    1   AR   Ar  144   0.391   2.011   5.211
    1   AR   Ar  145   4.468   5.221  -0.494
    1   AR   Ar  146   3.912   2.555   3.315
    1   AR   Ar  147   5.106   4.003  -0.232
    1   AR   Ar  148   2.472   6.006  -1.417
    1   AR   Ar  149   0.402   1.859  -0.363
    1   AR   Ar  150   1.906   2.604   2.900
    1   AR   Ar  151   2.795   3.435   3.138
    1   AR   Ar  152   0.817   1.049  -2.271
    1   AR   Ar  153   5.575   0.989   3.271
    1   AR   Ar  154   4.555   2.810   4.003
    1   AR   Ar  155   6.222   3.661   5.234
    1   AR   Ar  156   2.343   4.657   3.266
    1   AR   Ar  157   2.790   5.198   6.742
    1   AR   Ar  158   0.521   1.857   6.215
    1   AR   Ar  159   3.919   0.130   6.203
    1   AR   Ar  160   1.129   0.580   5.185
    1   AR   Ar  161   4.953   4.122   3.317
    1   AR   Ar  162   4.067   6.421  -0.488
    1   AR   Ar  163   6.046   4.237   2.194
    1   AR   Ar  164   2.073   5.602   2.177
    1   AR   Ar  165   3.359   4.264   1.181
    1   AR   Ar  166   2.411   3.750   4.887
    1   AR   Ar  167   6.328   6.857   3.761
    1   AR   Ar  168   5.358   4.257  -2.385
    1   AR   Ar  169   3.875   3.867   3.246
    1   AR   Ar  170   2.176   3.278   5.843
    1   AR   Ar  171   4.962   5.254   4.116
    1   AR   Ar  172   3.524   3.554   4.674
    1   AR   Ar  173   2.220   1.980   6.223
    1   AR   Ar  174   3.351   6.509   4.821
    1   AR   Ar  175   3.124   0.699   5.846
    1   AR   Ar  176   3.095   2.707   4.151
    1   AR   Ar  177   0.685   4.422  -1.067
    1   AR   Ar  178   2.770   6.228   0.254
    1   AR   Ar  179   3.432   6.872   0.748
    1   AR   Ar  180   4.915   0.419  -7.104
    1   AR   Ar  181   7.052   5.979   1.873
    1   AR   Ar  182   1.005   6.173   2.627
    1   AR   Ar  183   4.628   5.597   1.778
    1   AR   Ar  184   4.412   6.287   0.547
    1   AR   Ar  185   3.061   4.493   4.424
    1   AR   Ar  186   2.801   5.941   2.819
    1   AR   Ar  187   3.803   6.580   3.707
    1   AR   Ar  188   3.116   0.187   1.824
    1   AR   Ar  189   6.035   2.815   5.924
    1   AR   Ar  190   1.890   6.681   3.867
    1   AR   Ar  191   3.369   6.270   6.839
    1   AR   Ar  192   4.068   3.659   5.461
    1   AR   Ar  193   2.901   6.321   1.502
    1   AR   Ar  194   5.294   5.481  -1.219
    1   AR   Ar  195   5.346   0.924   0.690
    1   AR   Ar  196   3.565   0.711   0.161
    1   AR   Ar  197   4.718   2.946   0.552
    1   AR   Ar  198   5.685   7.048   1.106
    1   AR   Ar  199   1.362   0.386   3.090
    1   AR   Ar  200   5.855   2.592  -0.132
    1   AR   Ar  201   6.515   6.428   2.692
    1   AR   Ar  202   5.064   0.571   4.226
    1   AR   Ar  203   0.374   6.709   3.187
    1   AR   Ar  204   4.410   4.682   7.517
    1   AR   Ar  205   5.789   1.934   1.917
    1   AR   Ar  206   6.067   0.384   6.367
    1   AR   Ar  207   6.843   3.318   4.260
    1   AR   Ar  208   1.015   6.095   3.965
    1   AR   Ar  209   7.004   2.112  -1.771
    1   AR   Ar  210   1.160   0.524   0.384
    1   AR   Ar  211   0.209   3.143   0.491
    1   AR   Ar  212   6.351   3.856  -0.006
    1   AR   Ar  213   3.384   1.689   1.536
    1   AR   Ar  214   5.070   4.529   2.152
    1   AR   Ar  215   6.869   2.548   1.884
    1   AR   Ar  216   1.649   2.293   0.561
    1   AR   Ar  217   5.210   1.752   3.827
    1   AR   Ar  218   4.793   2.959   4.969
    1   AR   Ar  219   4.577   3.286   2.689
    1   AR   Ar  220   4.632   3.938   1.256
    1   AR   Ar  221   6.952   5.860   3.813
    1   AR   Ar  222   5.069   0.221   5.767
    1   AR   Ar  223   6.515   1.720   5.982
    1   AR   Ar  224   5.221   1.977   5.178
    1   AR   Ar  225   6.678   2.939   2.933
    1   AR   Ar  226   1.582   3.390   3.654
    1   AR   Ar  227   0.967   3.015   2.828
    1   AR   Ar  228   6.558   0.682   1.609
    1   AR   Ar  229   5.979   4.482  -1.038
    1   AR   Ar  230   4.061   4.677   3.902
    1   AR   Ar  231   4.675   2.223   2.547
    1   AR   Ar  232   5.474   2.947   1.811
    1   AR   Ar  233   6.662   2.339   3.923
    1   AR   Ar  234   5.679   2.522   4.398
    1   AR   Ar  235   6.755   0.815   3.565
    1   AR   Ar  236   4.261   4.736   5.127
    1   AR   Ar  237   4.838   0.764   6.682
    1   AR   Ar  238   5.923   5.677   6.135
    1   AR   Ar  239   1.048   4.591  11.640
    1   AR   Ar  240   1.470   2.563   6.677
    1   AR   Ar  241   1.750   6.589  -0.001
    1   AR   Ar  242   5.716   5.667   1.491
    1   AR   Ar  243   5.076   6.342   2.653
    1   AR   Ar  244   6.518   6.202   0.967
    1   AR   Ar  245   3.998   0.825   3.624
    1   AR   Ar  246   5.365   6.470  -0.994
    1   AR   Ar  247   0.032   3.580   1.768
    1   AR   Ar  248   5.462   5.457  -0.044
    1   AR   Ar  249   4.137   6.852   1.577
    1   AR   Ar  250   4.913   6.605   3.973
    1   AR   Ar  251   5.056   3.977   4.914
    1   AR   Ar  252   2.527   4.397   1.880
    1   AR   Ar  253   5.706   2.487   7.681
    1   AR   Ar  254   6.016   3.201  10.250
    1   AR   Ar  255   4.273   6.295   8.931
    1   AR   Ar  256   5.800   5.853   3.660
    7.12000  7.12000 12.00000
Argon-slab step 5010
  256
    1   AR   Ar    1   5.134   3.257  -2.733
    1   AR   Ar    2   5.262   6.774   0.185
    1   AR   Ar    3   4.134   3.603  -1.129
    1   AR   Ar    4   2.727   0.978   1.222
    1   AR   Ar    5   6.476   5.110  -0.315
    1   AR   Ar    6   0.938   1.939   2.212
    1   AR   Ar    7   5.913   4.765   3.413
    1   AR   Ar    8   6.759   3.104  -1.614
    1   AR   Ar    9   7.010   6.789   4.645
    1   AR   Ar   10   5.704   4.956   5.166
    1   AR   Ar   11   1.124   6.249   5.018
    1   AR   Ar   12   0.144   1.539   4.047
    1   AR   Ar   13   6.688   0.821   4.820
    1   AR   Ar   14   3.746   1.049   6.675
    1   AR   Ar   15   2.717   6.921   9.695
    1   AR   Ar   16   0.882   0.215   6.269
    1   AR   Ar   17   5.889   3.697   1.275
    1   AR   Ar   18   7.106   4.965  -1.762
    1   AR   Ar   19   5.343   4.561   0.984
    1   AR   Ar   20   6.982   4.050  -2.288
    1   AR   Ar   21   2.402   1.686   1.929
    1   AR   Ar   22   5.618   0.897   2.132
    1   AR   Ar   23   0.667   6.611   0.593
    1   AR   Ar   24   5.726   2.666   3.309
    1   AR   Ar   25   0.951   2.639   4.602
    1   AR   Ar   26   5.935   6.752   4.739
    1   AR   Ar   27   2.018   0.369   2.027
    1   AR   Ar   28   1.861   1.976   4.196
    1   AR   Ar   29   5.084   1.068   7.907
    1   AR   Ar   30   0.447   1.046   2.871
    1   AR   Ar   31   2.376   1.169   6.867
    1   AR   Ar   32   1.430   2.232   5.571
    1   AR   Ar   33   0.218   4.251   0.254
    1   AR   Ar   34   1.282   4.897   2.130
    1   AR   Ar   35   5.689   5.304   2.473
    1   AR   Ar   36   5.654   2.331  -2.720
    1   AR   Ar   37   3.766   3.134   1.365
    1   AR   Ar   38   6.661   4.347   4.125
    1   AR   Ar   39   0.457   2.776   3.668
    1   AR   Ar   40   1.075   3.809   2.085
    1   AR   Ar   41   1.001   1.985   3.256
    1   AR   Ar   42   4.911   6.084   5.884
    1   AR   Ar   43   0.276   2.947   5.679
    1   AR   Ar   44   0.068   3.895   3.028
    1   AR   Ar   45   1.137   3.476   5.260
    1   AR   Ar   46   6.848   4.700   6.961
    1   AR   Ar   47   3.736   3.863   7.952
    1   AR   Ar   48   0.104   3.747   7.901
    1   AR   Ar   49   7.016   1.351   0.388
    1   AR   Ar   50   4.207   5.223   0.512
    1   AR   Ar   51   5.713   3.451   2.657
    1   AR   Ar   52   5.467   3.222  -1.140
    1   AR   Ar   53   4.502   0.117   3.061
    1   AR   Ar   54   0.585   0.088   2.117
    1   AR   Ar   55   6.925   4.899   2.235
    1   AR   Ar   56   6.377   1.619   2.755
    1   AR   Ar   57   3.998   4.276   2.057
    1   AR   Ar   58   0.614   3.855   4.251
    1   AR   Ar   59   3.023   5.673   5.649
    1   AR   Ar   60   0.281   5.516   2.887
    1   AR   Ar   61   0.492   3.560   6.718
    1   AR   Ar   62   0.214   4.512   5.105
    1   AR   Ar   63   3.155   2.440   7.031
    1   AR   Ar   64   7.118   5.527   4.831
    1   AR   Ar   65   3.897   0.810   2.163
    1   AR   Ar   66   1.615   1.177   1.312
    1   AR   Ar   67   4.378   0.315  -0.645
    1   AR   Ar   68   0.060   1.039  -1.176
    1   AR   Ar   69   2.155   1.453   0.195
    1   AR   Ar   70   0.080   1.362   1.741
    1   AR   Ar   71   2.947   0.933   2.590
    1   AR   Ar   72   4.085   1.046   0.899
    1   AR   Ar   73   3.148   0.297   3.891
    1   AR   Ar   74   1.173   0.944   3.936
    1   AR   Ar   75   3.157   0.773   4.886
    1   AR   Ar   76   2.334   0.050   1.088
    1   AR   Ar   77   1.885   5.896   5.673
    1   AR   Ar   78   7.045   5.462   5.927
    1   AR   Ar   79   3.141   6.668   5.819
    1   AR   Ar   80   4.019   5.808   5.631
    1   AR   Ar   81   1.790   6.300   1.403
    1   AR   Ar   82   6.363   4.729   0.656
    1   AR   Ar   83   1.172   3.598   0.709
    1   AR   Ar   84   0.925   4.583   1.183
    1   AR   Ar   85   1.309   4.195  -0.195
    1   AR   Ar   86   1.842   5.294   1.185
    1   AR   Ar   87   3.574   3.419   2.296
    1   AR   Ar   88   3.587   5.381   1.555
    1   AR   Ar   89   6.490   1.959   0.982
    1   AR   Ar   90   3.323   1.624   5.596
    1   AR   Ar   91   1.966   1.276   3.158
    1   AR   Ar   92   2.147   2.604   1.726
    1   AR   Ar   93   2.189   1.138   5.222
    1   AR   Ar   94   1.404   6.789   8.419
    1   AR   Ar   95   4.320   1.225   5.353
    1   AR   Ar   96   2.133   0.056   4.822
    1   AR   Ar   97   2.650   2.622  -0.776
    1   AR   Ar   98   1.702   4.281   4.106
    1   AR   Ar   99   5.866   0.282  -0.486
    1   AR   Ar  100   6.539   2.736  -2.612
    1   AR   Ar  101   3.836   6.048   2.425
    1   AR   Ar  102   3.551   1.806   2.600
    1   AR   Ar  103   2.120   4.488   0.517
    1   AR   Ar  104   3.525   6.468  -1.291
    1   AR   Ar  105   2.597   2.023   3.403
    1   AR   Ar  106   3.987   2.205   5.087
    1   AR   Ar  107   1.052   5.109   5.671
    1   AR   Ar  108   2.324   0.867   4.103
    1   AR   Ar  109   2.044   4.510   5.706
    1   AR   Ar  110   2.435   2.271   4.969
    1   AR   Ar  111   3.745   5.775   8.270
    1   AR   Ar  112   6.377   6.261   5.548
    1   AR   Ar  113   0.953   6.160  -1.546
    1   AR   Ar  114   2.518   0.290   0.064
    1   AR   Ar  115   0.763   5.373   0.254
    1   AR   Ar  116   4.385   0.167   0.385
    1   AR   Ar  117   0.395   4.772   3.538
    1   AR   Ar  118   1.716   5.607   3.233
    1   AR   Ar  119   1.393   4.284   2.916
    1   AR   Ar  120   1.959   6.612   2.794
    1   AR   Ar  121   5.197   4.349   5.933
    1   AR   Ar  122   2.931   5.602   3.836
    1   AR   Ar  123   3.126   2.626   5.786
    1   AR   Ar  124   0.876   5.675   1.526
    1   AR   Ar  125   5.695   3.613   3.911
    1   AR   Ar  126   6.719   0.347   7.652
    1   AR   Ar  127   4.773   3.205   6.182
    1   AR   Ar  128   1.726   4.066   6.629
    1   AR   Ar  129   2.042   5.428   4.598
    1   AR   Ar  130   4.083   1.293  -4.872
    1   AR   Ar  131   4.616   6.285  -1.721
    1   AR   Ar  132   0.762   2.099   0.959
    1   AR   Ar  133   4.064   0.368   4.615
    1   AR   Ar  134   3.280   1.471   4.035
    1   AR   Ar  135   5.882   1.282   4.384
    1   AR   Ar  136   5.758   0.072   2.851
    1   AR   Ar  137   2.945   4.145   6.145
    1   AR   Ar  138   5.692   1.098   5.621
    1   AR   Ar  139   6.283   2.054   5.062
    1   AR   Ar  140   4.456   6.618   4.978
    1   AR   Ar  141   3.831   5.705   4.424
    1   AR   Ar  142   4.654   6.382   7.744
    1   AR   Ar  143   5.372   6.596   6.745
    1   AR   Ar  144   0.358   1.987   5.206
    1   AR   Ar  145   4.455   5.215  -0.492
    1   AR   Ar  146   3.936   2.554   3.317
    1   AR   Ar  147   5.125   3.995  -0.210
    1   AR   Ar  148   2.472   5.996  -1.401
    1   AR   Ar  149   0.361   1.886  -0.369
    1   AR   Ar  150   1.903   2.597   2.866
    1   AR   Ar  151   2.799   3.433   3.130
    1   AR   Ar  152   0.807   1.032  -2.231
    1   AR   Ar  153   5.566   1.007   3.256
    1   AR   Ar  154   4.570   2.809   4.014
    1   AR   Ar  155   6.206   3.635   5.233
    1   AR   Ar  156   2.336   4.665   3.282
    1   AR   Ar  157   2.812   5.160   6.733
    1   AR   Ar  158   0.537   1.878   6.231
    1   AR   Ar  159   3.938   0.107   6.191
    1   AR   Ar  160   1.154   0.573   5.186
    1   AR   Ar  161   4.949   4.109   3.302
    1   AR   Ar  162   4.042   6.397  -0.494
    1   AR   Ar  163   6.052   4.259   2.164
    1   AR   Ar  164   2.085   5.571   2.186
    1   AR   Ar  165   3.367   4.267   1.203
    1   AR   Ar  166   2.434   3.751   4.960
    1   AR   Ar  167   6.370   6.866   3.776
    1   AR   Ar  168   5.340   4.275  -2.399
    1   AR   Ar  169   3.864   3.886   3.221
    1   AR   Ar  170   2.191   3.271   5.823
    1   AR   Ar  171   4.954   5.255   4.095
    1   AR   Ar  172   3.512   3.554   4.649
    1   AR   Ar  173   2.205   1.960   6.216
    1   AR   Ar  174   3.354   6.496   4.797
    1   AR   Ar  175   3.139   0.718   5.868
    1   AR   Ar  176   3.108   2.703   4.163
    1   AR   Ar  177   0.686   4.406  -1.098
    1   AR   Ar  178   2.783   6.221   0.236
    1   AR   Ar  179   3.455   6.869   0.766
    1   AR   Ar  180   4.916   0.425  -7.132
    1   AR   Ar  181   7.046   5.986   1.866
    1   AR   Ar  182   1.025   6.180   2.647
    1   AR   Ar  183   4.626   5.566   1.789
    1   AR   Ar  184   4.369   6.267   0.550
    1   AR   Ar  185   3.033   4.508   4.419
    1   AR   Ar  186   2.810   5.943   2.836
    1   AR   Ar  187   3.820   6.581   3.709
    1   AR   Ar  188   3.121   0.201   1.830
    1   AR   Ar  189   6.021   2.815   5.915
    1   AR   Ar  190   1.845   6.659   3.835
    1   AR   Ar  191   3.390   6.294   6.837
    1   AR   Ar  192   4.096   3.695   5.470
    1   AR   Ar  193   2.890   6.306   1.506
    1   AR   Ar  194   5.317   5.478  -1.197
    1   AR   Ar  195   5.330   0.908   0.691
    1   AR   Ar  196   3.541   0.723   0.163
    1   AR   Ar  197   4.711   2.946   0.540
    1   AR   Ar  198   5.688   7.011   1.118
    1   AR   Ar  199   1.341   0.365   3.074
    1   AR   Ar  200   5.885   2.577  -0.145
    1   AR   Ar  201   6.502   6.386   2.683
    1   AR   Ar  202   5.023   0.599   4.219
    1   AR   Ar  203   0.381   6.705   3.184
    1   AR   Ar  204   4.432   4.663   7.499
    1   AR   Ar  205   5.789   1.934   1.890
    1   AR   Ar  206   6.086   0.369   6.353
    1   AR   Ar  207   6.839   3.326   4.249
    1   AR   Ar  208   1.017   6.086   3.967
    1   AR   Ar  209   7.000   2.104  -1.789
    1   AR   Ar  210   1.166   0.535   0.390
    1   AR   Ar  211   0.216   3.165   0.476
    1   AR   Ar  212   6.354   3.846  -0.023
    1   AR   Ar  213   3.383   1.700   1.533
    1   AR   Ar  214   5.098   4.519   2.135
    1   AR   Ar  215   6.886   2.542   1.886
    1   AR   Ar  216   1.673   2.273   0.544
    1   AR   Ar  217   5.212   1.750   3.815
    1   AR   Ar  218   4.796   2.944   4.976
    1   AR   Ar  219   4.544   3.262   2.664
    1   AR   Ar  220   4.662   3.956   1.265
    1   AR   Ar  221   6.989   5.835   3.849
    1   AR   Ar  222   5.039   0.253   5.787
    1   AR   Ar  223   6.558   1.726   5.958
    1   AR   Ar  224   5.226   1.968   5.184
    1   AR   Ar  225   6.686   2.920   2.934
    1   AR   Ar  226   1.573   3.366   3.660
    1   AR   Ar  227   0.947   3.005   2.807
    1   AR   Ar  228   6.528   0.680   1.589
    1   AR   Ar  229   5.969   4.510  -1.033
    1   AR   Ar  230   4.049   4.683   3.900
    1   AR   Ar  231   4.693   2.249   2.581
    1   AR   Ar  232   5.462   2.970   1.787
    1   AR   Ar  233   6.659   2.360   3.933
    1   AR   Ar  234   5.688   2.520   4.357
    1   AR   Ar  235   6.726   0.822   3.569
    1   AR   Ar  236   4.267   4.720   5.114
    1   AR   Ar  237   4.825   0.725   6.666
    1   AR   Ar  238   5.899   5.669   6.143
    1   AR   Ar  239   1.047   4.580  11.632
    1   AR   Ar  240   1.518   2.577   6.684
    1   AR   Ar  241   1.738   6.605   0.002
    1   AR   Ar  242   5.712   5.689   1.480
    1   AR   Ar  243   5.076   6.344   2.636
    1   AR   Ar  244   6.526   6.233   0.938
    1   AR   Ar  245   4.014   0.874   3.632
    1   AR   Ar  246   5.380   6.485  -0.965
    1   AR   Ar  247   0.012   3.598   1.723
    1   AR   Ar  248   5.464   5.470  -0.071
    1   AR   Ar  249   4.122   6.854   1.596
    1   AR   Ar  250   4.866   6.609   3.954
    1   AR   Ar  251   5.038   3.970   4.902
    1   AR   Ar  252   2.555   4.413   1.860
    1   AR   Ar  253   5.704   2.446   7.660
    1   AR   Ar  254   5.990   3.203  10.291
    1   AR   Ar  255   4.258   6.318   8.913
    1   AR   Ar  256   5.836   5.887   3.654
    7.12000  7.12000 12.00000
Argon-slab step 5015
  256
    1   AR   Ar    1   5.127   3.285  -2.732
    1   AR   Ar    2   5.261   6.779   0.151
    1   AR   Ar    3   4.116   3.595  -1.131
    1   AR   Ar    4   2.698   0.998   1.202
    1   AR   Ar    5   6.503   5.097  -0.347
    1   AR   Ar    6   0.917   1.914   2.192
    1   AR   Ar    7   5.919   4.788   3.384
    1   AR   Ar    8   6.752   3.131  -1.629
    1   AR   Ar    9   7.022   6.793   4.623
    1   AR   Ar   10   5.718   4.916   5.151
    1   AR   Ar   11   1.138   6.240   5.026
    1   AR   Ar   12   0.169   1.545   4.059
    1   AR   Ar   13   6.678   0.817   4.826
    1   AR   Ar   14   3.758   1.046   6.681
    1   AR   Ar   15   2.696   6.897   9.696
    1   AR   Ar   16   0.887   0.204   6.238
    1   AR   Ar   17   5.877   3.701   1.305
    1   AR   Ar   18   0.008   4.949  -1.745
    1   AR   Ar   19   5.349   4.557   0.973
    1   AR   Ar   20   6.993   4.026  -2.285
    1   AR   Ar   21   2.416   1.657   1.919
    1   AR   Ar   22   5.609   0.886   2.123
    1   AR   Ar   23   0.670   6.598   0.589
    1   AR   Ar   24   5.731   2.648   3.306
    1   AR   Ar   25   0.971   2.638   4.598
    1   AR   Ar   26   5.938   6.766   4.727
    1   AR   Ar   27   2.003   0.397   2.034
    1   AR   Ar   28   1.869   1.954   4.227
    1   AR   Ar   29   5.088   1.099   7.876
    1   AR   Ar   30   0.443   1.014   2.891
    1   AR   Ar   31   2.351   1.144   6.840
    1   AR   Ar   32   1.392   2.208   5.569
    1   AR   Ar   33   0.209   4.272   0.264
    1   AR   Ar   34   1.266   4.913   2.128
    1   AR   Ar   35   5.673   5.312   2.499
    1   AR   Ar   36   5.634   2.352  -2.744
    1   AR   Ar   37   3.749   3.144   1.352
    1   AR   Ar   38   6.656   4.320   4.117
    1   AR   Ar   39   0.463   2.764   3.676
    1   AR   Ar   40   1.048   3.811   2.079
    1   AR   Ar   41   1.001   1.998   3.239
    1   AR   Ar   42   4.950   6.128   5.887
    1   AR   Ar   43   0.252   2.953   5.645
    1   AR   Ar   44   0.045   3.886   3.035
    1   AR   Ar   45   1.163   3.464   5.263
    1   AR   Ar   46   6.822   4.702   6.960
    1   AR   Ar   47   3.722   3.858   7.955
    1   AR   Ar   48   0.115   3.747   7.916
    1   AR   Ar   49   7.044   1.358   0.394
    1   AR   Ar   50   4.209   5.195   0.506
    1   AR   Ar   51   5.717   3.469   2.676
    1   AR   Ar   52   5.474   3.218  -1.127
    1   AR   Ar   53   4.476   0.107   3.070
    1   AR   Ar   54   0.554   0.094   2.156
    1   AR   Ar   55   6.928   4.919   2.241
    1   AR   Ar   56   6.358   1.625   2.765
    1   AR   Ar   57   3.960   4.289   2.067
    1   AR   Ar   58   0.617   3.855   4.257
    1   AR   Ar   59   3.026   5.664   5.655
    1   AR   Ar   60   0.283   5.505   2.903
    1   AR   Ar   61   0.500   3.571   6.711
    1   AR   Ar   62   0.193   4.525   5.095
    1   AR   Ar   63   3.165   2.442   7.058
    1   AR   Ar   64   0.002   5.508   4.851
    1   AR   Ar   65   3.873   0.824   2.173
    1   AR   Ar   66   1.620   1.175   1.305
    1   AR   Ar   67   4.355   0.295  -0.623
    1   AR   Ar   68   0.046   1.043  -1.146
    1   AR   Ar   69   2.192   1.448   0.181
    1   AR   Ar   70   0.047   1.403   1.757
    1   AR   Ar   71   2.946   0.922   2.582
    1   AR   Ar   72   4.069   1.063   0.903
    1   AR   Ar   73   3.156   0.302   3.891
    1   AR   Ar   74   1.189   0.954   3.947
    1   AR   Ar   75   3.144   0.783   4.859
    1   AR   Ar   76   2.332   0.089   1.085
    1   AR   Ar   77   1.887   5.902   5.678
    1   AR   Ar   78   7.067   5.487   5.959
    1   AR   Ar   79   3.115   6.653   5.819
    1   AR   Ar   80   4.026   5.821   5.629
    1   AR   Ar   81   1.810   6.292   1.379
    1   AR   Ar   82   6.375   4.739   0.691
    1   AR   Ar   83   1.189   3.604   0.730
    1   AR   Ar   84   0.910   4.591   1.170
    1   AR   Ar   85   1.302   4.186  -0.183
    1   AR   Ar   86   1.847   5.310   1.227
    1   AR   Ar   87   3.576   3.395   2.307
    1   AR   Ar   88   3.574   5.395   1.522
    1   AR   Ar   89   6.453   1.980   0.990
    1   AR   Ar   90   3.346   1.609   5.620
    1   AR   Ar   91   2.001   1.294   3.135
    1   AR   Ar   92   2.165   2.588   1.705
    1   AR   Ar   93   2.191   1.170   5.228
    1   AR   Ar   94   1.388   6.821   8.432
    1   AR   Ar   95   4.314   1.222   5.352
    1   AR   Ar   96   2.114   0.075   4.835
    1   AR   Ar   97   2.616   2.608  -0.715
    1   AR   Ar   98   1.699   4.277   4.112
    1   AR   Ar   99   5.865   0.307  -0.473
    1   AR   Ar  100   6.540   2.738  -2.572
    1   AR   Ar  101   3.816   6.030   2.426
    1   AR   Ar  102   3.538   1.815   2.597
    1   AR   Ar  103   2.105   4.485   0.510
    1   AR   Ar  104   3.514   6.523  -1.292
    1   AR   Ar  105   2.615   2.033   3.399
    1   AR   Ar  106   3.986   2.224   5.066
    1   AR   Ar  107   1.047   5.085   5.658
    1   AR   Ar  108   2.318   0.835   4.063
    1   AR   Ar  109   2.073   4.520   5.696
    1   AR   Ar  110   2.441   2.281   4.949
    1   AR   Ar  111   3.747   5.770   8.267
    1   AR   Ar  112   6.399   6.246   5.527
    1   AR   Ar  113   0.953   6.157  -1.554
    1   AR   Ar  114   2.542   0.301   0.052
    1   AR   Ar  115   0.759   5.391   0.260
    1   AR   Ar  116   4.404   0.190   0.383
    1   AR   Ar  117   0.404   4.796   3.552
    1   AR   Ar  118   1.679   5.602   3.251
    1   AR   Ar  119   1.347   4.285   2.927
    1   AR   Ar  120   1.963   6.614   2.773
    1   AR   Ar  121   5.169   4.349   5.952
    1   AR   Ar  122   2.936   5.598   3.812
    1   AR   Ar  123   3.108   2.620   5.717
    1   AR   Ar  124   0.913   5.722   1.524
    1   AR   Ar  125   5.691   3.633   3.870
    1   AR   Ar  126   6.719   0.390   7.668
    1   AR   Ar  127   4.808   3.194   6.166
    1   AR   Ar  128   1.701   4.047   6.632
    1   AR   Ar  129   2.059   5.446   4.589
    1   AR   Ar  130   4.086   1.281  -4.871
    1   AR   Ar  131   4.594   6.304  -1.731
    1   AR   Ar  132   0.761   2.116   0.978
    1   AR   Ar  133   4.076   0.394   4.616
    1   AR   Ar  134   3.239   1.474   4.037
    1   AR   Ar  135   5.859   1.261   4.362
    1   AR   Ar  136   5.750   0.100   2.845
    1   AR   Ar  137   2.940   4.153   6.181
    1   AR   Ar  138   5.706   1.114   5.627
    1   AR   Ar  139   6.315   2.045   5.055
    1   AR   Ar  140   4.461   6.629   4.974
    1   AR   Ar  141   3.832   5.684   4.437
    1   AR   Ar  142   4.673   6.393   7.748
    1   AR   Ar  143   5.340   6.633   6.723
    1   AR   Ar  144   0.321   1.960   5.196
    1   AR   Ar  145   4.443   5.210  -0.495
    1   AR   Ar  146   3.949   2.532   3.314
    1   AR   Ar  147   5.137   3.990  -0.219
    1   AR   Ar  148   2.499   5.991  -1.392
    1   AR   Ar  149   0.322   1.915  -0.378
    1   AR   Ar  150   1.901   2.590   2.831
    1   AR   Ar  151   2.803   3.431   3.122
    1   AR   Ar  152   0.795   1.015  -2.189
    1   AR   Ar  153   5.561   1.022   3.239
    1   AR   Ar  154   4.569   2.822   4.007
    1   AR   Ar  155   6.190   3.611   5.228
    1   AR   Ar  156   2.332   4.674   3.298
    1   AR   Ar  157   2.835   5.122   6.721
    1   AR   Ar  158   0.554   1.900   6.250
    1   AR   Ar  159   3.964   0.083   6.180
    1   AR   Ar  160   1.180   0.567   5.186
    1   AR   Ar  161   4.946   4.098   3.286
    1   AR   Ar  162   4.024   6.349  -0.470
    1   AR   Ar  163   6.072   4.287   2.131
    1   AR   Ar  164   2.060   5.593   2.176
    1   AR   Ar  165   3.378   4.269   1.222
    1   AR   Ar  166   2.458   3.754   5.027
    1   AR   Ar  167   6.409   6.884   3.778
    1   AR   Ar  168   5.323   4.293  -2.411
    1   AR   Ar  169   3.850   3.903   3.196
    1   AR   Ar  170   2.203   3.259   5.811
    1   AR   Ar  171   4.947   5.257   4.075
    1   AR   Ar  172   3.499   3.554   4.620
    1   AR   Ar  173   2.185   1.940   6.218
    1   AR   Ar  174   3.353   6.491   4.773
    1   AR   Ar  175   3.147   0.720   5.905
    1   AR   Ar  176   3.114   2.700   4.173
    1   AR   Ar  177   0.687   4.389  -1.128
    1   AR   Ar  178   2.795   6.214   0.218
    1   AR   Ar  179   3.477   6.869   0.783
    1   AR   Ar  180   4.917   0.431  -7.160
    1   AR   Ar  181   7.038   5.997   1.861
    1   AR   Ar  182   1.052   6.184   2.658
    1   AR   Ar  183   4.626   5.535   1.800
    1   AR   Ar  184   4.338   6.261   0.553
    1   AR   Ar  185   3.005   4.525   4.412
    1   AR   Ar  186   2.820   5.947   2.852
    1   AR   Ar  187   3.836   6.582   3.712
    1   AR   Ar  188   3.125   0.212   1.833
    1   AR   Ar  189   6.006   2.813   5.906
    1   AR   Ar  190   1.806   6.640   3.805
    1   AR   Ar  191   3.411   6.316   6.834
    1   AR   Ar  192   4.089   3.683   5.463
    1   AR   Ar  193   2.887   6.297   1.511
    1   AR   Ar  194   5.339   5.469  -1.175
    1   AR   Ar  195   5.313   0.890   0.694
    1   AR   Ar  196   3.529   0.720   0.155
    1   AR   Ar  197   4.704   2.946   0.529
    1   AR   Ar  198   5.692   6.975   1.132
    1   AR   Ar  199   1.320   0.341   3.055
    1   AR   Ar  200   5.914   2.563  -0.158
    1   AR   Ar  201   6.488   6.343   2.678
    1   AR   Ar  202   5.015   0.595   4.224
    1   AR   Ar  203   0.380   6.706   3.187
    1   AR   Ar  204   4.454   4.643   7.480
    1   AR   Ar  205   5.790   1.935   1.863
    1   AR   Ar  206   6.103   0.352   6.340
    1   AR   Ar  207   6.831   3.332   4.240
    1   AR   Ar  208   1.012   6.071   3.967
    1   AR   Ar  209   6.997   2.091  -1.806
    1   AR   Ar  210   1.175   0.545   0.398
    1   AR   Ar  211   0.222   3.187   0.463
    1   AR   Ar  212   6.355   3.836  -0.040
    1   AR   Ar  213   3.388   1.714   1.531
    1   AR   Ar  214   5.113   4.507   2.117
    1   AR   Ar  215   6.883   2.562   1.907
    1   AR   Ar  216   1.691   2.253   0.508
    1   AR   Ar  217   5.199   1.741   3.809
    1   AR   Ar  218   4.811   2.954   4.977
    1   AR   Ar  219   4.526   3.247   2.638
    1   AR   Ar  220   4.677   3.959   1.281
    1   AR   Ar  221   7.025   5.813   3.881
    1   AR   Ar  222   5.008   0.280   5.800
    1   AR   Ar  223   6.593   1.730   5.944
    1   AR   Ar  224   5.227   1.959   5.189
    1   AR   Ar  225   6.697   2.901   2.935
    1   AR   Ar  226   1.563   3.336   3.663
    1   AR   Ar  227   0.930   2.992   2.799
    1   AR   Ar  228   6.487   0.667   1.565
    1   AR   Ar  229   5.942   4.557  -1.044
    1   AR   Ar  230   4.037   4.689   3.901
    1   AR   Ar  231   4.714   2.269   2.615
    1   AR   Ar  232   5.441   2.983   1.766
    1   AR   Ar  233   6.649   2.377   3.941
    1   AR   Ar  234   5.693   2.523   4.317
    1   AR   Ar  235   6.691   0.824   3.570
    1   AR   Ar  236   4.273   4.706   5.100
    1   AR   Ar  237   4.812   0.689   6.655
    1   AR   Ar  238   5.866   5.649   6.162
    1   AR   Ar  239   1.045   4.570  11.624
    1   AR   Ar  240   1.563   2.594   6.692
    1   AR   Ar  241   1.723   6.631   0.003
    1   AR   Ar  242   5.708   5.711   1.467
    1   AR   Ar  243   5.076   6.345   2.619
    1   AR   Ar  244   6.531   6.258   0.898
    1   AR   Ar  245   4.034   0.923   3.637
    1   AR   Ar  246   5.395   6.506  -0.932
    1   AR   Ar  247   7.111   3.619   1.679
    1   AR   Ar  248   5.466   5.484  -0.097
    1   AR   Ar  249   4.109   6.856   1.617
    1   AR   Ar  250   4.834   6.613   3.934
    1   AR   Ar  251   5.030   3.969   4.915
    1   AR   Ar  252   2.580   4.430   1.843
    1   AR   Ar  253   5.702   2.405   7.638
    1   AR   Ar  254   5.964   3.204  10.331
    1   AR   Ar  255   4.252   6.333   8.918
    1   AR   Ar  256   5.873   5.922   3.647
    7.12000  7.12000 12.00000
Argon-slab step 5020
  256
    1   AR   Ar    1   5.119   3.313  -2.731
    1   AR   Ar    2   5.261   6.781   0.115
    1   AR   Ar    3   4.100   3.588  -1.133
    1   AR   Ar    4   2.673   1.021   1.175
    1   AR   Ar    5   6.532   5.085  -0.377
    1   AR   Ar    6   0.898   1.890   2.169
    1   AR   Ar    7   5.925   4.808   3.357
    1   AR   Ar    8   6.745   3.162  -1.641
    1   AR   Ar    9   7.038   6.796   4.604
    1   AR   Ar   10   5.733   4.875   5.137
    1   AR   Ar   11   1.150   6.232   5.033
    1   AR   Ar   12   0.198   1.551   4.073
    1   AR   Ar   13   6.672   0.811   4.834
    1   AR   Ar   14   3.770   1.045   6.690
    1   AR   Ar   15   2.676   6.873   9.696
    1   AR   Ar   16   0.878   0.211   6.232
    1   AR   Ar   17   5.878   3.716   1.326
    1   AR   Ar   18   0.029   4.935  -1.728
    1   AR   Ar   19   5.368   4.570   0.956
    1   AR   Ar   20   7.003   4.000  -2.282
    1   AR   Ar   21   2.428   1.621   1.921
    1   AR   Ar   22   5.599   0.876   2.114
    1   AR   Ar   23   0.673   6.584   0.585
    1   AR   Ar   24   5.732   2.625   3.300
    1   AR   Ar   25   0.976   2.661   4.605
    1   AR   Ar   26   5.937   6.782   4.715
    1   AR   Ar   27   1.988   0.426   2.046
    1   AR   Ar   28   1.868   1.926   4.247
    1   AR   Ar   29   5.091   1.129   7.843
    1   AR   Ar   30   0.439   0.982   2.911
    1   AR   Ar   31   2.328   1.115   6.816
    1   AR   Ar   32   1.339   2.187   5.566
    1   AR   Ar   33   0.211   4.276   0.265
    1   AR   Ar   34   1.248   4.931   2.125
    1   AR   Ar   35   5.658   5.324   2.524
    1   AR   Ar   36   5.607   2.368  -2.771
    1   AR   Ar   37   3.734   3.154   1.331
    1   AR   Ar   38   6.650   4.300   4.107
    1   AR   Ar   39   0.465   2.756   3.688
    1   AR   Ar   40   1.020   3.811   2.066
    1   AR   Ar   41   1.005   2.004   3.225
    1   AR   Ar   42   4.994   6.176   5.888
    1   AR   Ar   43   0.227   2.959   5.612
    1   AR   Ar   44   0.023   3.877   3.042
    1   AR   Ar   45   1.191   3.454   5.267
    1   AR   Ar   46   6.796   4.705   6.958
    1   AR   Ar   47   3.708   3.854   7.957
    1   AR   Ar   48   0.127   3.746   7.929
    1   AR   Ar   49   7.073   1.360   0.403
    1   AR   Ar   50   4.201   5.158   0.501
    1   AR   Ar   51   5.741   3.500   2.696
    1   AR   Ar   52   5.460   3.221  -1.122
    1   AR   Ar   53   4.451   0.096   3.077
    1   AR   Ar   54   0.523   0.100   2.196
    1   AR   Ar   55   6.929   4.934   2.241
    1   AR   Ar   56   6.341   1.631   2.776
    1   AR   Ar   57   3.929   4.310   2.080
    1   AR   Ar   58   0.624   3.856   4.261
    1   AR   Ar   59   3.020   5.644   5.660
    1   AR   Ar   60   0.286   5.509   2.913
    1   AR   Ar   61   0.509   3.581   6.703
    1   AR   Ar   62   0.172   4.532   5.086
    1   AR   Ar   63   3.173   2.443   7.083
    1   AR   Ar   64   0.007   5.494   4.875
    1   AR   Ar   65   3.859   0.840   2.182
    1   AR   Ar   66   1.624   1.174   1.298
    1   AR   Ar   67   4.333   0.274  -0.607
    1   AR   Ar   68   0.033   1.048  -1.117
    1   AR   Ar   69   2.233   1.435   0.166
    1   AR   Ar   70   0.018   1.450   1.774
    1   AR   Ar   71   2.937   0.913   2.579
    1   AR   Ar   72   4.059   1.086   0.919
    1   AR   Ar   73   3.171   0.302   3.890
    1   AR   Ar   74   1.205   0.965   3.959
    1   AR   Ar   75   3.129   0.794   4.832
    1   AR   Ar   76   2.321   0.125   1.075
    1   AR   Ar   77   1.892   5.906   5.684
    1   AR   Ar   78   7.089   5.511   5.991
    1   AR   Ar   79   3.088   6.645   5.819
    1   AR   Ar   80   4.032   5.833   5.624
    1   AR   Ar   81   1.828   6.297   1.356
    1   AR   Ar   82   6.388   4.749   0.726
    1   AR   Ar   83   1.207   3.609   0.753
    1   AR   Ar   84   0.895   4.600   1.156
    1   AR   Ar   85   1.302   4.168  -0.161
    1   AR   Ar   86   1.853   5.312   1.260
    1   AR   Ar   87   3.574   3.356   2.348
    1   AR   Ar   88   3.560   5.408   1.489
    1   AR   Ar   89   6.416   2.004   1.001
    1   AR   Ar   90   3.369   1.607   5.641
    1   AR   Ar   91   2.028   1.305   3.107
    1   AR   Ar   92   2.168   2.576   1.697
    1   AR   Ar   93   2.193   1.203   5.234
    1   AR   Ar   94   1.371   6.854   8.446
    1   AR   Ar   95   4.311   1.185   5.323
    1   AR   Ar   96   2.097   0.094   4.847
    1   AR   Ar   97   2.581   2.594  -0.653
    1   AR   Ar   98   1.696   4.275   4.120
    1   AR   Ar   99   5.865   0.333  -0.460
    1   AR   Ar  100   6.548   2.743  -2.533
    1   AR   Ar  101   3.811   6.023   2.408
    1   AR   Ar  102   3.525   1.825   2.596
    1   AR   Ar  103   2.068   4.487   0.509
    1   AR   Ar  104   3.497   6.580  -1.304
    1   AR   Ar  105   2.639   2.051   3.395
    1   AR   Ar  106   3.984   2.249   5.049
    1   AR   Ar  107   1.064   5.085   5.623
    1   AR   Ar  108   2.308   0.808   4.042
    1   AR   Ar  109   2.100   4.532   5.685
    1   AR   Ar  110   2.455   2.293   4.939
    1   AR   Ar  111   3.744   5.761   8.257
    1   AR   Ar  112   6.426   6.233   5.503
    1   AR   Ar  113   0.953   6.154  -1.562
    1   AR   Ar  114   2.564   0.312   0.041
    1   AR   Ar  115   0.755   5.408   0.268
    1   AR   Ar  116   4.430   0.223   0.386
    1   AR   Ar  117   0.399   4.802   3.572
    1   AR   Ar  118   1.647   5.594   3.269
    1   AR   Ar  119   1.302   4.284   2.950
    1   AR   Ar  120   1.974   6.618   2.748
    1   AR   Ar  121   5.140   4.349   5.969
    1   AR   Ar  122   2.941   5.591   3.794
    1   AR   Ar  123   3.090   2.619   5.651
    1   AR   Ar  124   0.947   5.770   1.521
    1   AR   Ar  125   5.683   3.654   3.876
    1   AR   Ar  126   6.718   0.432   7.682
    1   AR   Ar  127   4.844   3.183   6.148
    1   AR   Ar  128   1.677   4.027   6.633
    1   AR   Ar  129   2.068   5.455   4.571
    1   AR   Ar  130   4.087   1.266  -4.869
    1   AR   Ar  131   4.572   6.322  -1.738
    1   AR   Ar  132   0.756   2.131   0.998
    1   AR   Ar  133   4.085   0.420   4.616
    1   AR   Ar  134   3.198   1.464   4.050
    1   AR   Ar  135   5.842   1.238   4.345
    1   AR   Ar  136   5.744   0.120   2.839
    1   AR   Ar  137   2.936   4.158   6.216
    1   AR   Ar  138   5.711   1.123   5.630
    1   AR   Ar  139   6.345   2.039   5.036
    1   AR   Ar  140   4.468   6.635   4.973
    1   AR   Ar  141   3.840   5.654   4.448
    1   AR   Ar  142   4.692   6.405   7.753
    1   AR   Ar  143   5.308   6.672   6.702
    1   AR   Ar  144   0.284   1.931   5.183
    1   AR   Ar  145   4.434   5.207  -0.502
    1   AR   Ar  146   3.949   2.508   3.303
    1   AR   Ar  147   5.152   3.986  -0.229
    1   AR   Ar  148   2.526   5.988  -1.382
    1   AR   Ar  149   0.284   1.946  -0.391
    1   AR   Ar  150   1.901   2.583   2.794
    1   AR   Ar  151   2.805   3.428   3.116
    1   AR   Ar  152   0.783   0.999  -2.147
    1   AR   Ar  153   5.559   1.033   3.219
    1   AR   Ar  154   4.577   2.839   4.002
    1   AR   Ar  155   6.173   3.588   5.220
    1   AR   Ar  156   2.329   4.685   3.314
    1   AR   Ar  157   2.858   5.086   6.709
    1   AR   Ar  158   0.572   1.923   6.269
    1   AR   Ar  159   3.994   0.057   6.169
    1   AR   Ar  160   1.206   0.561   5.186
    1   AR   Ar  161   4.941   4.088   3.268
    1   AR   Ar  162   4.014   6.298  -0.436
    1   AR   Ar  163   6.104   4.316   2.100
    1   AR   Ar  164   2.038   5.620   2.172
    1   AR   Ar  165   3.391   4.269   1.233
    1   AR   Ar  166   2.457   3.755   5.040
    1   AR   Ar  167   6.440   6.915   3.761
    1   AR   Ar  168   5.317   4.312  -2.422
    1   AR   Ar  169   3.836   3.920   3.173
    1   AR   Ar  170   2.209   3.238   5.812
    1   AR   Ar  171   4.942   5.259   4.055
    1   AR   Ar  172   3.486   3.556   4.588
    1   AR   Ar  173   2.171   1.920   6.213
    1   AR   Ar  174   3.348   6.495   4.751
    1   AR   Ar  175   3.145   0.702   5.947
    1   AR   Ar  176   3.090   2.712   4.179
    1   AR   Ar  177   0.683   4.382  -1.146
    1   AR   Ar  178   2.806   6.208   0.201
    1   AR   Ar  179   3.494   6.872   0.797
    1   AR   Ar  180   4.918   0.437  -7.187
    1   AR   Ar  181   7.028   6.024   1.858
    1   AR   Ar  182   1.079   6.184   2.658
    1   AR   Ar  183   4.628   5.503   1.812
    1   AR   Ar  184   4.315   6.264   0.558
    1   AR   Ar  185   2.976   4.545   4.405
    1   AR   Ar  186   2.830   5.952   2.865
    1   AR   Ar  187   3.846   6.581   3.714
    1   AR   Ar  188   3.126   0.216   1.833
    1   AR   Ar  189   5.991   2.808   5.896
    1   AR   Ar  190   1.775   6.629   3.777
    1   AR   Ar  191   3.432   6.339   6.830
    1   AR   Ar  192   4.084   3.670   5.459
    1   AR   Ar  193   2.905   6.299   1.524
    1   AR   Ar  194   5.360   5.460  -1.155
    1   AR   Ar  195   5.295   0.870   0.696
    1   AR   Ar  196   3.520   0.688   0.197
    1   AR   Ar  197   4.697   2.949   0.520
    1   AR   Ar  198   5.696   6.939   1.149
    1   AR   Ar  199   1.299   0.316   3.035
    1   AR   Ar  200   5.945   2.550  -0.170
    1   AR   Ar  201   6.472   6.301   2.678
    1   AR   Ar  202   5.011   0.590   4.227
    1   AR   Ar  203   0.372   6.711   3.196
    1   AR   Ar  204   4.475   4.624   7.462
    1   AR   Ar  205   5.791   1.936   1.837
    1   AR   Ar  206   6.119   0.335   6.327
    1   AR   Ar  207   6.821   3.336   4.234
    1   AR   Ar  208   0.995   6.050   3.966
    1   AR   Ar  209   6.995   2.076  -1.823
    1   AR   Ar  210   1.185   0.555   0.406
    1   AR   Ar  211   0.225   3.206   0.450
    1   AR   Ar  212   6.355   3.827  -0.058
    1   AR   Ar  213   3.399   1.729   1.528
    1   AR   Ar  214   5.114   4.496   2.098
    1   AR   Ar  215   6.888   2.585   1.870
    1   AR   Ar  216   1.708   2.240   0.475
    1   AR   Ar  217   5.169   1.735   3.807
    1   AR   Ar  218   4.827   2.962   4.986
    1   AR   Ar  219   4.520   3.223   2.631
    1   AR   Ar  220   4.676   3.946   1.302
    1   AR   Ar  221   7.058   5.799   3.904
    1   AR   Ar  222   4.980   0.298   5.797
    1   AR   Ar  223   6.590   1.729   5.948
    1   AR   Ar  224   5.227   1.950   5.192
    1   AR   Ar  225   6.710   2.881   2.937
    1   AR   Ar  226   1.551   3.303   3.665
    1   AR   Ar  227   0.920   2.973   2.814
    1   AR   Ar  228   6.443   0.648   1.538
    1   AR   Ar  229   5.913   4.600  -1.056
    1   AR   Ar  230   4.024   4.696   3.905
    1   AR   Ar  231   4.739   2.279   2.648
    1   AR   Ar  232   5.410   2.981   1.753
    1   AR   Ar  233   6.635   2.388   3.946
    1   AR   Ar  234   5.694   2.531   4.286
    1   AR   Ar  235   6.652   0.825   3.571
    1   AR   Ar  236   4.277   4.696   5.084
    1   AR   Ar  237   4.796   0.659   6.659
    1   AR   Ar  238   5.833   5.623   6.184
    1   AR   Ar  239   1.044   4.560  11.616
    1   AR   Ar  240   1.603   2.616   6.700
    1   AR   Ar  241   1.708   6.657   0.006
    1   AR   Ar  242   5.703   5.732   1.452
    1   AR   Ar  243   5.076   6.344   2.603
    1   AR   Ar  244   6.536   6.283   0.858
    1   AR   Ar  245   4.058   0.972   3.642
    1   AR   Ar  246   5.409   6.528  -0.898
    1   AR   Ar  247   7.089   3.641   1.635
    1   AR   Ar  248   5.468   5.497  -0.121
    1   AR   Ar  249   4.098   6.856   1.641
    1   AR   Ar  250   4.856   6.618   3.917
    1   AR   Ar  251   5.025   3.971   4.926
    1   AR   Ar  252   2.599   4.450   1.830
    1   AR   Ar  253   5.700   2.363   7.617
    1   AR   Ar  254   5.938   3.206  10.372
    1   AR   Ar  255   4.253   6.345   8.939
    1   AR   Ar  256   5.909   5.957   3.640
    7.12000  7.12000 12.00000
Argon-slab step 5025
  256
    1   AR   Ar    1   5.110   3.340  -2.730
    1   AR   Ar    2   5.262   6.779   0.083
    1   AR   Ar    3   4.085   3.581  -1.134
    1   AR   Ar    4   2.659   1.050   1.140
    1   AR   Ar    5   6.563   5.074  -0.403
    1   AR   Ar    6   0.881   1.867   2.146
    1   AR   Ar    7   5.926   4.815   3.338
    1   AR   Ar    8   6.738   3.196  -1.643
    1   AR   Ar    9   7.032   6.764   4.606
    1   AR   Ar   10   5.747   4.834   5.122
    1   AR   Ar   11   1.159   6.225   5.038
    1   AR   Ar   12   0.229   1.558   4.087
    1   AR   Ar   13   6.667   0.806   4.842
    1   AR   Ar   14   3.785   1.047   6.700
    1   AR   Ar   15   2.655   6.849   9.696
    1   AR   Ar   16   0.868   0.220   6.226
    1   AR   Ar   17   5.894   3.740   1.341
    1   AR   Ar   18   0.042   4.939  -1.736
    1   AR   Ar   19   5.391   4.593   0.934
    1   AR   Ar   20   7.013   3.973  -2.280
    1   AR   Ar   21   2.436   1.585   1.936
    1   AR   Ar   22   5.586   0.868   2.104
    1   AR   Ar   23   0.678   6.569   0.583
    1   AR   Ar   24   5.732   2.599   3.286
    1   AR   Ar   25   0.982   2.682   4.612
    1   AR   Ar   26   5.932   6.799   4.702
    1   AR   Ar   27   1.974   0.456   2.060
    1   AR   Ar   28   1.858   1.891   4.256
    1   AR   Ar   29   5.095   1.160   7.809
    1   AR   Ar   30   0.438   0.954   2.925
    1   AR   Ar   31   2.325   1.095   6.816
    1   AR   Ar   32   1.288   2.167   5.560
    1   AR   Ar   33   0.217   4.277   0.265
    1   AR   Ar   34   1.228   4.948   2.122
    1   AR   Ar   35   5.643   5.343   2.543
    1   AR   Ar   36   5.577   2.380  -2.797
    1   AR   Ar   37   3.722   3.164   1.307
    1   AR   Ar   38   6.642   4.291   4.097
    1   AR   Ar   39   0.464   2.752   3.705
    1   AR   Ar   40   0.989   3.809   2.048
    1   AR   Ar   41   1.012   2.004   3.214
    1   AR   Ar   42   5.035   6.224   5.880
    1   AR   Ar   43   0.203   2.964   5.578
    1   AR   Ar   44   0.001   3.869   3.049
    1   AR   Ar   45   1.221   3.446   5.272
    1   AR   Ar   46   6.770   4.707   6.955
    1   AR   Ar   47   3.695   3.850   7.958
    1   AR   Ar   48   0.139   3.746   7.940
    1   AR   Ar   49   7.102   1.360   0.416
    1   AR   Ar   50   4.192   5.120   0.503
    1   AR   Ar   51   5.752   3.528   2.714
    1   AR   Ar   52   5.446   3.225  -1.117
    1   AR   Ar   53   4.428   0.086   3.083
    1   AR   Ar   54   0.493   0.105   2.236
    1   AR   Ar   55   6.930   4.947   2.237
    1   AR   Ar   56   6.325   1.639   2.786
    1   AR   Ar   57   3.906   4.335   2.100
    1   AR   Ar   58   0.634   3.857   4.265
    1   AR   Ar   59   3.008   5.617   5.663
    1   AR   Ar   60   0.291   5.530   2.918
    1   AR   Ar   61   0.488   3.565   6.685
    1   AR   Ar   62   0.154   4.530   5.078
    1   AR   Ar   63   3.182   2.444   7.106
    1   AR   Ar   64   0.010   5.488   4.902
    1   AR   Ar   65   3.857   0.859   2.189
    1   AR   Ar   66   1.621   1.198   1.299
    1   AR   Ar   67   4.310   0.252  -0.599
    1   AR   Ar   68   0.020   1.054  -1.087
    1   AR   Ar   69   2.278   1.414   0.150
    1   AR   Ar   70   7.106   1.498   1.791
    1   AR   Ar   71   2.918   0.906   2.583
    1   AR   Ar   72   4.056   1.113   0.945
    1   AR   Ar   73   3.191   0.298   3.886
    1   AR   Ar   74   1.221   0.978   3.969
    1   AR   Ar   75   3.111   0.803   4.812
    1   AR   Ar   76   2.304   0.146   1.062
    1   AR   Ar   77   1.901   5.907   5.692
    1   AR   Ar   78   7.051   5.500   5.978
    1   AR   Ar   79   3.061   6.644   5.820
    1   AR   Ar   80   4.038   5.846   5.617
    1   AR   Ar   81   1.848   6.315   1.333
    1   AR   Ar   82   6.403   4.758   0.761
    1   AR   Ar   83   1.225   3.615   0.779
    1   AR   Ar   84   0.879   4.609   1.140
    1   AR   Ar   85   1.298   4.151  -0.141
    1   AR   Ar   86   1.860   5.296   1.278
    1   AR   Ar   87   3.560   3.313   2.385
    1   AR   Ar   88   3.547   5.420   1.455
    1   AR   Ar   89   6.381   2.029   1.010
    1   AR   Ar   90   3.391   1.613   5.658
    1   AR   Ar   91   2.048   1.311   3.077
    1   AR   Ar   92   2.153   2.562   1.710
    1   AR   Ar   93   2.195   1.237   5.239
    1   AR   Ar   94   1.355   6.887   8.460
    1   AR   Ar   95   4.309   1.147   5.295
    1   AR   Ar   96   2.082   0.111   4.859
    1   AR   Ar   97   2.581   2.579  -0.649
    1   AR   Ar   98   1.693   4.275   4.129
    1   AR   Ar   99   5.865   0.361  -0.447
    1   AR   Ar  100   6.558   2.748  -2.503
    1   AR   Ar  101   3.828   6.034   2.362
    1   AR   Ar  102   3.511   1.836   2.596
    1   AR   Ar  103   2.032   4.490   0.512
    1   AR   Ar  104   3.479   6.639  -1.318
    1   AR   Ar  105   2.660   2.064   3.385
    1   AR   Ar  106   3.980   2.280   5.041
    1   AR   Ar  107   1.082   5.085   5.587
    1   AR   Ar  108   2.299   0.788   4.044
    1   AR   Ar  109   2.123   4.546   5.673
    1   AR   Ar  110   2.469   2.307   4.935
    1   AR   Ar  111   3.739   5.748   8.242
    1   AR   Ar  112   6.454   6.222   5.477
    1   AR   Ar  113   0.953   6.151  -1.570
    1   AR   Ar  114   2.583   0.321   0.030
    1   AR   Ar  115   0.751   5.424   0.278
    1   AR   Ar  116   4.457   0.254   0.400
    1   AR   Ar  117   0.370   4.788   3.593
    1   AR   Ar  118   1.654   5.594   3.294
    1   AR   Ar  119   1.257   4.282   2.982
    1   AR   Ar  120   1.993   6.626   2.719
    1   AR   Ar  121   5.110   4.348   5.986
    1   AR   Ar  122   2.945   5.581   3.785
    1   AR   Ar  123   3.078   2.624   5.590
    1   AR   Ar  124   0.941   5.780   1.526
    1   AR   Ar  125   5.677   3.672   3.885
    1   AR   Ar  126   6.717   0.474   7.696
    1   AR   Ar  127   4.881   3.173   6.127
    1   AR   Ar  128   1.652   4.006   6.633
    1   AR   Ar  129   2.077   5.464   4.554
    1   AR   Ar  130   4.077   1.241  -4.862
    1   AR   Ar  131   4.551   6.340  -1.743
    1   AR   Ar  132   0.748   2.146   1.020
    1   AR   Ar  133   4.088   0.444   4.614
    1   AR   Ar  134   3.159   1.457   4.063
    1   AR   Ar  135   5.833   1.212   4.367
    1   AR   Ar  136   5.741   0.130   2.833
    1   AR   Ar  137   2.933   4.158   6.249
    1   AR   Ar  138   5.671   1.104   5.626
    1   AR   Ar  139   6.371   2.036   5.007
    1   AR   Ar  140   4.476   6.638   4.973
    1   AR   Ar  141   3.853   5.620   4.458
    1   AR   Ar  142   4.710   6.416   7.757
    1   AR   Ar  143   5.304   6.673   6.707
    1   AR   Ar  144   0.249   1.902   5.169
    1   AR   Ar  145   4.427   5.205  -0.515
    1   AR   Ar  146   3.977   2.505   3.304
    1   AR   Ar  147   5.167   3.982  -0.237
    1   AR   Ar  148   2.554   5.984  -1.371
    1   AR   Ar  149   0.248   1.980  -0.406
    1   AR   Ar  150   1.900   2.578   2.764
    1   AR   Ar  151   2.807   3.423   3.112
    1   AR   Ar  152   0.770   0.983  -2.104
    1   AR   Ar  153   5.558   1.043   3.198
    1   AR   Ar  154   4.592   2.858   3.993
    1   AR   Ar  155   6.157   3.569   5.208
    1   AR   Ar  156   2.327   4.696   3.330
    1   AR   Ar  157   2.881   5.054   6.696
    1   AR   Ar  158   0.588   1.947   6.289
    1   AR   Ar  159   4.014   0.038   6.158
    1   AR   Ar  160   1.230   0.557   5.185
    1   AR   Ar  161   4.934   4.081   3.247
    1   AR   Ar  162   4.006   6.247  -0.402
    1   AR   Ar  163   6.144   4.348   2.075
    1   AR   Ar  164   2.020   5.651   2.183
    1   AR   Ar  165   3.407   4.269   1.232
    1   AR   Ar  166   2.465   3.758   5.045
    1   AR   Ar  167   6.470   6.945   3.738
    1   AR   Ar  168   5.356   4.333  -2.428
    1   AR   Ar  169   3.823   3.938   3.153
    1   AR   Ar  170   2.208   3.208   5.830
    1   AR   Ar  171   4.939   5.262   4.035
    1   AR   Ar  172   3.475   3.563   4.557
    1   AR   Ar  173   2.163   1.901   6.199
    1   AR   Ar  174   3.341   6.505   4.730
    1   AR   Ar  175   3.135   0.671   5.989
    1   AR   Ar  176   3.066   2.718   4.180
    1   AR   Ar  177   0.665   4.382  -1.130
    1   AR   Ar  178   2.817   6.204   0.186
    1   AR   Ar  179   3.504   6.878   0.809
    1   AR   Ar  180   4.919   0.443  -7.215
    1   AR   Ar  181   7.020   6.049   1.852
    1   AR   Ar  182   1.099   6.182   2.650
    1   AR   Ar  183   4.631   5.472   1.823
    1   AR   Ar  184   4.297   6.265   0.567
    1   AR   Ar  185   2.946   4.566   4.397
    1   AR   Ar  186   2.839   5.960   2.870
    1   AR   Ar  187   3.850   6.578   3.718
    1   AR   Ar  188   3.123   0.214   1.828
    1   AR   Ar  189   5.974   2.799   5.887
    1   AR   Ar  190   1.753   6.625   3.750
    1   AR   Ar  191   3.455   6.361   6.825
    1   AR   Ar  192   4.080   3.657   5.458
    1   AR   Ar  193   2.924   6.301   1.538
    1   AR   Ar  194   5.376   5.455  -1.139
    1   AR   Ar  195   5.278   0.849   0.699
    1   AR   Ar  196   3.505   0.654   0.232
    1   AR   Ar  197   4.691   2.953   0.511
    1   AR   Ar  198   5.700   6.905   1.166
    1   AR   Ar  199   1.279   0.290   3.014
    1   AR   Ar  200   5.975   2.539  -0.183
    1   AR   Ar  201   6.452   6.259   2.684
    1   AR   Ar  202   5.010   0.585   4.226
    1   AR   Ar  203   0.361   6.718   3.208
    1   AR   Ar  204   4.496   4.605   7.444
    1   AR   Ar  205   5.791   1.938   1.816
    1   AR   Ar  206   6.133   0.318   6.313
    1   AR   Ar  207   6.811   3.334   4.232
    1   AR   Ar  208   0.969   6.024   3.967
    1   AR   Ar  209   6.995   2.058  -1.837
    1   AR   Ar  210   1.196   0.564   0.415
    1   AR   Ar  211   0.228   3.225   0.439
    1   AR   Ar  212   6.354   3.818  -0.075
    1   AR   Ar  213   3.388   1.722   1.525
    1   AR   Ar  214   5.107   4.485   2.081
    1   AR   Ar  215   6.894   2.605   1.833
    1   AR   Ar  216   1.722   2.234   0.446
    1   AR   Ar  217   5.146   1.718   3.794
    1   AR   Ar  218   4.846   2.967   5.001
    1   AR   Ar  219   4.521   3.206   2.642
    1   AR   Ar  220   4.667   3.924   1.326
    1   AR   Ar  221   7.079   5.808   3.910
    1   AR   Ar  222   4.957   0.307   5.774
    1   AR   Ar  223   6.590   1.727   5.960
    1   AR   Ar  224   5.225   1.943   5.192
    1   AR   Ar  225   6.724   2.861   2.938
    1   AR   Ar  226   1.582   3.290   3.674
    1   AR   Ar  227   0.941   2.975   2.818
    1   AR   Ar  228   6.411   0.647   1.534
    1   AR   Ar  229   5.884   4.635  -1.069
    1   AR   Ar  230   4.010   4.702   3.909
    1   AR   Ar  231   4.772   2.272   2.679
    1   AR   Ar  232   5.370   2.969   1.747
    1   AR   Ar  233   6.623   2.389   3.948
    1   AR   Ar  234   5.668   2.561   4.308
    1   AR   Ar  235   6.612   0.828   3.571
    1   AR   Ar  236   4.280   4.689   5.068
    1   AR   Ar  237   4.778   0.636   6.681
    1   AR   Ar  238   5.801   5.595   6.208
    1   AR   Ar  239   1.042   4.549  11.608
    1   AR   Ar  240   1.640   2.643   6.708
    1   AR   Ar  241   1.693   6.684   0.011
    1   AR   Ar  242   5.699   5.753   1.439
    1   AR   Ar  243   5.076   6.343   2.586
    1   AR   Ar  244   6.541   6.307   0.818
    1   AR   Ar  245   4.083   1.020   3.646
    1   AR   Ar  246   5.421   6.549  -0.866
    1   AR   Ar  247   7.067   3.665   1.590
    1   AR   Ar  248   5.469   5.511  -0.141
    1   AR   Ar  249   4.090   6.856   1.667
    1   AR   Ar  250   4.884   6.623   3.901
    1   AR   Ar  251   5.025   3.975   4.935
    1   AR   Ar  252   2.612   4.471   1.827
    1   AR   Ar  253   5.697   2.321   7.595
    1   AR   Ar  254   5.912   3.208  10.413
    1   AR   Ar  255   4.256   6.359   8.955
    1   AR   Ar  256   5.944   5.991   3.631
    7.12000  7.12000 12.00000
Argon-slab step 5030
  256
    1   AR   Ar    1   5.100   3.367  -2.729
    1   AR   Ar    2   5.261   6.776   0.063
    1   AR   Ar    3   4.072   3.574  -1.135
    1   AR   Ar    4   2.655   1.083   1.095
    1   AR   Ar    5   6.596   5.064  -0.425
    1   AR   Ar    6   0.869   1.846   2.123
    1   AR   Ar    7   5.905   4.787   3.334
    1   AR   Ar    8   6.732   3.232  -1.632
    1   AR   Ar    9   7.028   6.730   4.610
    1   AR   Ar   10   5.762   4.793   5.108
    1   AR   Ar   11   1.165   6.220   5.039
    1   AR   Ar   12   0.260   1.565   4.100
    1   AR   Ar   13   6.665   0.799   4.851
    1   AR   Ar   14   3.801   1.051   6.713
    1   AR   Ar   15   2.634   6.825   9.696
    1   AR   Ar   16   0.858   0.229   6.219
    1   AR   Ar   17   5.910   3.759   1.344
    1   AR   Ar   18   0.052   4.946  -1.746
    1   AR   Ar   19   5.410   4.620   0.912
    1   AR   Ar   20   7.024   3.949  -2.280
    1   AR   Ar   21   2.437   1.552   1.963
    1   AR   Ar   22   5.568   0.865   2.095
    1   AR   Ar   23   0.684   6.553   0.582
    1   AR   Ar   24   5.729   2.573   3.267
    1   AR   Ar   25   0.988   2.699   4.619
    1   AR   Ar   26   5.925   6.817   4.688
    1   AR   Ar   27   1.961   0.487   2.075
    1   AR   Ar   28   1.843   1.853   4.258
    1   AR   Ar   29   5.100   1.190   7.774
    1   AR   Ar   30   0.440   0.930   2.935
    1   AR   Ar   31   2.324   1.070   6.817
    1   AR   Ar   32   1.241   2.150   5.549
    1   AR   Ar   33   0.224   4.281   0.264
    1   AR   Ar   34   1.205   4.964   2.122
    1   AR   Ar   35   5.626   5.367   2.554
    1   AR   Ar   36   5.548   2.390  -2.825
    1   AR   Ar   37   3.712   3.175   1.283
    1   AR   Ar   38   6.632   4.295   4.084
    1   AR   Ar   39   0.461   2.751   3.724
    1   AR   Ar   40   0.957   3.808   2.029
    1   AR   Ar   41   1.023   1.997   3.206
    1   AR   Ar   42   5.070   6.270   5.859
    1   AR   Ar   43   0.179   2.969   5.543
    1   AR   Ar   44   7.101   3.862   3.058
    1   AR   Ar   45   1.252   3.442   5.280
    1   AR   Ar   46   6.745   4.709   6.950
    1   AR   Ar   47   3.682   3.846   7.959
    1   AR   Ar   48   0.151   3.746   7.950
    1   AR   Ar   49   0.011   1.358   0.432
    1   AR   Ar   50   4.184   5.082   0.509
    1   AR   Ar   51   5.714   3.538   2.719
    1   AR   Ar   52   5.433   3.231  -1.111
    1   AR   Ar   53   4.406   0.078   3.087
    1   AR   Ar   54   0.463   0.108   2.275
    1   AR   Ar   55   6.933   4.961   2.229
    1   AR   Ar   56   6.312   1.649   2.795
    1   AR   Ar   57   3.887   4.361   2.126
    1   AR   Ar   58   0.645   3.858   4.268
    1   AR   Ar   59   2.993   5.584   5.665
    1   AR   Ar   60   0.298   5.559   2.923
    1   AR   Ar   61   0.468   3.549   6.666
    1   AR   Ar   62   0.137   4.515   5.071
    1   AR   Ar   63   3.189   2.444   7.128
    1   AR   Ar   64   0.013   5.494   4.929
    1   AR   Ar   65   3.864   0.879   2.194
    1   AR   Ar   66   1.612   1.240   1.305
    1   AR   Ar   67   4.286   0.228  -0.598
    1   AR   Ar   68   0.007   1.062  -1.058
    1   AR   Ar   69   2.326   1.388   0.134
    1   AR   Ar   70   7.070   1.545   1.807
    1   AR   Ar   71   2.895   0.898   2.594
    1   AR   Ar   72   4.057   1.142   0.978
    1   AR   Ar   73   3.216   0.292   3.880
    1   AR   Ar   74   1.237   0.992   3.979
    1   AR   Ar   75   3.107   0.803   4.815
    1   AR   Ar   76   2.282   0.153   1.047
    1   AR   Ar   77   1.914   5.906   5.701
    1   AR   Ar   78   7.014   5.486   5.968
    1   AR   Ar   79   3.035   6.648   5.819
    1   AR   Ar   80   4.045   5.859   5.609
    1   AR   Ar   81   1.867   6.342   1.309
    1   AR   Ar   82   6.423   4.767   0.796
    1   AR   Ar   83   1.243   3.620   0.807
    1   AR   Ar   84   0.864   4.618   1.123
    1   AR   Ar   85   1.291   4.134  -0.126
    1   AR   Ar   86   1.866   5.269   1.285
    1   AR   Ar   87   3.538   3.266   2.415
    1   AR   Ar   88   3.535   5.429   1.420
    1   AR   Ar   89   6.352   2.054   1.012
    1   AR   Ar   90   3.412   1.621   5.674
    1   AR   Ar   91   2.061   1.313   3.045
    1   AR   Ar   92   2.136   2.551   1.720
    1   AR   Ar   93   2.197   1.271   5.244
    1   AR   Ar   94   1.339   6.920   8.474
    1   AR   Ar   95   4.312   1.115   5.274
    1   AR   Ar   96   2.075   0.124   4.868
    1   AR   Ar   97   2.589   2.565  -0.658
    1   AR   Ar   98   1.690   4.276   4.140
    1   AR   Ar   99   5.866   0.390  -0.435
    1   AR   Ar  100   6.564   2.753  -2.487
    1   AR   Ar  101   3.829   6.060   2.359
    1   AR   Ar  102   3.497   1.847   2.597
    1   AR   Ar  103   1.997   4.493   0.519
    1   AR   Ar  104   3.462   6.697  -1.332
    1   AR   Ar  105   2.674   2.067   3.363
    1   AR   Ar  106   3.976   2.311   5.030
    1   AR   Ar  107   1.099   5.087   5.550
    1   AR   Ar  108   2.284   0.772   4.046
    1   AR   Ar  109   2.144   4.564   5.661
    1   AR   Ar  110   2.468   2.315   4.925
    1   AR   Ar  111   3.736   5.737   8.230
    1   AR   Ar  112   6.480   6.211   5.450
    1   AR   Ar  113   0.956   6.149  -1.569
    1   AR   Ar  114   2.594   0.326   0.017
    1   AR   Ar  115   0.725   5.444   0.295
    1   AR   Ar  116   4.484   0.282   0.423
    1   AR   Ar  117   0.344   4.768   3.620
    1   AR   Ar  118   1.720   5.610   3.326
    1   AR   Ar  119   1.213   4.281   3.019
    1   AR   Ar  120   2.021   6.638   2.686
    1   AR   Ar  121   5.080   4.346   6.001
    1   AR   Ar  122   2.950   5.566   3.786
    1   AR   Ar  123   3.081   2.639   5.545
    1   AR   Ar  124   0.923   5.782   1.533
    1   AR   Ar  125   5.674   3.688   3.895
    1   AR   Ar  126   6.713   0.518   7.709
    1   AR   Ar  127   4.919   3.163   6.105
    1   AR   Ar  128   1.629   3.984   6.630
    1   AR   Ar  129   2.085   5.473   4.536
    1   AR   Ar  130   4.068   1.216  -4.855
    1   AR   Ar  131   4.529   6.357  -1.746
    1   AR   Ar  132   0.738   2.160   1.043
    1   AR   Ar  133   4.083   0.460   4.608
    1   AR   Ar  134   3.121   1.457   4.072
    1   AR   Ar  135   5.812   1.181   4.391
    1   AR   Ar  136   5.741   0.128   2.827
    1   AR   Ar  137   2.907   4.162   6.274
    1   AR   Ar  138   5.634   1.084   5.621
    1   AR   Ar  139   6.388   2.035   4.972
    1   AR   Ar  140   4.484   6.641   4.973
    1   AR   Ar  141   3.867   5.585   4.470
    1   AR   Ar  142   4.727   6.427   7.761
    1   AR   Ar  143   5.310   6.669   6.728
    1   AR   Ar  144   0.221   1.873   5.156
    1   AR   Ar  145   4.422   5.203  -0.530
    1   AR   Ar  146   4.001   2.505   3.306
    1   AR   Ar  147   5.183   3.979  -0.246
    1   AR   Ar  148   2.582   5.981  -1.360
    1   AR   Ar  149   0.212   2.016  -0.424
    1   AR   Ar  150   1.896   2.588   2.764
    1   AR   Ar  151   2.805   3.419   3.111
    1   AR   Ar  152   0.756   0.968  -2.059
    1   AR   Ar  153   5.557   1.052   3.177
    1   AR   Ar  154   4.613   2.882   3.960
    1   AR   Ar  155   6.141   3.552   5.190
    1   AR   Ar  156   2.326   4.707   3.345
    1   AR   Ar  157   2.903   5.030   6.686
    1   AR   Ar  158   0.601   1.970   6.312
    1   AR   Ar  159   3.995   0.052   6.152
    1   AR   Ar  160   1.248   0.557   5.186
    1   AR   Ar  161   4.926   4.075   3.225
    1   AR   Ar  162   3.997   6.197  -0.374
    1   AR   Ar  163   6.151   4.329   2.064
    1   AR   Ar  164   2.022   5.641   2.193
    1   AR   Ar  165   3.426   4.267   1.220
    1   AR   Ar  166   2.488   3.745   5.070
    1   AR   Ar  167   6.498   6.970   3.712
    1   AR   Ar  168   5.396   4.356  -2.433
    1   AR   Ar  169   3.811   3.958   3.137
    1   AR   Ar  170   2.201   3.172   5.856
    1   AR   Ar  171   4.936   5.266   4.016
    1   AR   Ar  172   3.467   3.576   4.527
    1   AR   Ar  173   2.158   1.885   6.179
    1   AR   Ar  174   3.332   6.518   4.710
    1   AR   Ar  175   3.120   0.633   6.028
    1   AR   Ar  176   3.041   2.719   4.176
    1   AR   Ar  177   0.649   4.378  -1.111
    1   AR   Ar  178   2.828   6.202   0.171
    1   AR   Ar  179   3.508   6.887   0.819
    1   AR   Ar  180   4.920   0.449  -7.243
    1   AR   Ar  181   7.016   6.072   1.842
    1   AR   Ar  182   1.111   6.180   2.636
    1   AR   Ar  183   4.636   5.440   1.834
    1   AR   Ar  184   4.293   6.254   0.572
    1   AR   Ar  185   2.916   4.589   4.388
    1   AR   Ar  186   2.846   5.971   2.867
    1   AR   Ar  187   3.851   6.571   3.723
    1   AR   Ar  188   3.116   0.210   1.817
    1   AR   Ar  189   5.957   2.785   5.879
    1   AR   Ar  190   1.736   6.625   3.724
    1   AR   Ar  191   3.479   6.383   6.818
    1   AR   Ar  192   4.077   3.643   5.457
    1   AR   Ar  193   2.941   6.303   1.553
    1   AR   Ar  194   5.381   5.465  -1.132
    1   AR   Ar  195   5.317   0.869   0.709
    1   AR   Ar  196   3.490   0.623   0.261
    1   AR   Ar  197   4.686   2.959   0.504
    1   AR   Ar  198   5.729   6.878   1.159
    1   AR   Ar  199   1.261   0.263   2.995
    1   AR   Ar  200   6.006   2.528  -0.194
    1   AR   Ar  201   6.431   6.219   2.695
    1   AR   Ar  202   5.009   0.577   4.219
    1   AR   Ar  203   0.347   6.724   3.223
    1   AR   Ar  204   4.516   4.585   7.425
    1   AR   Ar  205   5.787   1.939   1.802
    1   AR   Ar  206   6.145   0.300   6.298
    1   AR   Ar  207   6.802   3.327   4.235
    1   AR   Ar  208   0.938   5.995   3.970
    1   AR   Ar  209   6.995   2.038  -1.848
    1   AR   Ar  210   1.210   0.573   0.425
    1   AR   Ar  211   0.229   3.240   0.428
    1   AR   Ar  212   6.353   3.811  -0.091
    1   AR   Ar  213   3.381   1.718   1.521
    1   AR   Ar  214   5.098   4.475   2.068
    1   AR   Ar  215   6.899   2.625   1.796
    1   AR   Ar  216   1.733   2.231   0.418
    1   AR   Ar  217   5.142   1.682   3.767
    1   AR   Ar  218   4.866   2.968   5.020
    1   AR   Ar  219   4.533   3.203   2.672
    1   AR   Ar  220   4.652   3.896   1.349
    1   AR   Ar  221   7.094   5.819   3.911
    1   AR   Ar  222   4.939   0.309   5.736
    1   AR   Ar  223   6.591   1.722   5.977
    1   AR   Ar  224   5.222   1.938   5.190
    1   AR   Ar  225   6.739   2.840   2.940
    1   AR   Ar  226   1.620   3.281   3.699
    1   AR   Ar  227   0.958   2.983   2.816
    1   AR   Ar  228   6.399   0.674   1.565
    1   AR   Ar  229   5.862   4.653  -1.082
    1   AR   Ar  230   3.995   4.706   3.915
    1   AR   Ar  231   4.813   2.248   2.710
    1   AR   Ar  232   5.325   2.952   1.746
    1   AR   Ar  233   6.610   2.379   3.946
    1   AR   Ar  234   5.669   2.573   4.318
    1   AR   Ar  235   6.572   0.837   3.571
    1   AR   Ar  236   4.279   4.686   5.051
    1   AR   Ar  237   4.761   0.617   6.717
    1   AR   Ar  238   5.773   5.565   6.232
    1   AR   Ar  239   1.040   4.539  11.600
    1   AR   Ar  240   1.674   2.673   6.717
    1   AR   Ar  241   1.680   6.711   0.019
    1   AR   Ar  242   5.696   5.773   1.425
    1   AR   Ar  243   5.076   6.342   2.570
    1   AR   Ar  244   6.547   6.330   0.778
    1   AR   Ar  245   4.110   1.068   3.649
    1   AR   Ar  246   5.434   6.567  -0.846
    1   AR   Ar  247   7.045   3.691   1.545
    1   AR   Ar  248   5.472   5.526  -0.151
    1   AR   Ar  249   4.085   6.856   1.696
    1   AR   Ar  250   4.916   6.627   3.886
    1   AR   Ar  251   5.030   3.981   4.942
    1   AR   Ar  252   2.618   4.484   1.851
    1   AR   Ar  253   5.694   2.278   7.573
    1   AR   Ar  254   5.886   3.209  10.454
    1   AR   Ar  255   4.260   6.376   8.941
    1   AR   Ar  256   5.978   6.024   3.623
    7.12000  7.12000 12.00000
Argon-slab step 5035
  256
    1   AR   Ar    1   5.090   3.394  -2.727
    1   AR   Ar    2   5.255   6.774   0.067
    1   AR   Ar    3   4.059   3.567  -1.136
    1   AR   Ar    4   2.658   1.115   1.046
    1   AR   Ar    5   6.631   5.052  -0.445
    1   AR   Ar    6   0.864   1.828   2.101
    1   AR   Ar    7   5.885   4.752   3.336
    1   AR   Ar    8   6.724   3.267  -1.606
    1   AR   Ar    9   7.027   6.695   4.615
    1   AR   Ar   10   5.777   4.751   5.094
    1   AR   Ar   11   1.170   6.214   5.042
    1   AR   Ar   12   0.291   1.572   4.112
    1   AR   Ar   13   6.666   0.792   4.861
    1   AR   Ar   14   3.793   1.072   6.737
    1   AR   Ar   15   2.614   6.801   9.696
    1   AR   Ar   16   0.849   0.238   6.211
    1   AR   Ar   17   5.922   3.766   1.330
    1   AR   Ar   18   0.059   4.955  -1.757
    1   AR   Ar   19   5.423   4.647   0.890
    1   AR   Ar   20   7.036   3.930  -2.284
    1   AR   Ar   21   2.433   1.525   1.996
    1   AR   Ar   22   5.543   0.865   2.088
    1   AR   Ar   23   0.690   6.537   0.583
    1   AR   Ar   24   5.725   2.545   3.246
    1   AR   Ar   25   0.994   2.712   4.624
    1   AR   Ar   26   5.917   6.837   4.673
    1   AR   Ar   27   1.948   0.518   2.091
    1   AR   Ar   28   1.826   1.812   4.255
    1   AR   Ar   29   5.104   1.221   7.737
    1   AR   Ar   30   0.439   0.911   2.948
    1   AR   Ar   31   2.325   1.043   6.819
    1   AR   Ar   32   1.201   2.135   5.533
    1   AR   Ar   33   0.230   4.290   0.263
    1   AR   Ar   34   1.181   4.976   2.125
    1   AR   Ar   35   5.608   5.395   2.558
    1   AR   Ar   36   5.519   2.399  -2.851
    1   AR   Ar   37   3.702   3.187   1.260
    1   AR   Ar   38   6.618   4.308   4.072
    1   AR   Ar   39   0.456   2.753   3.742
    1   AR   Ar   40   0.925   3.807   2.008
    1   AR   Ar   41   1.035   1.984   3.199
    1   AR   Ar   42   5.090   6.268   5.843
    1   AR   Ar   43   0.156   2.972   5.506
    1   AR   Ar   44   7.081   3.855   3.067
    1   AR   Ar   45   1.285   3.441   5.291
    1   AR   Ar   46   6.720   4.711   6.945
    1   AR   Ar   47   3.670   3.844   7.959
    1   AR   Ar   48   0.163   3.746   7.960
    1   AR   Ar   49   0.040   1.357   0.451
    1   AR   Ar   50   4.175   5.045   0.520
    1   AR   Ar   51   5.676   3.548   2.723
    1   AR   Ar   52   5.421   3.237  -1.104
    1   AR   Ar   53   4.387   0.074   3.088
    1   AR   Ar   54   0.432   0.108   2.311
    1   AR   Ar   55   6.946   4.980   2.254
    1   AR   Ar   56   6.303   1.662   2.802
    1   AR   Ar   57   3.874   4.388   2.157
    1   AR   Ar   58   0.657   3.858   4.269
    1   AR   Ar   59   2.976   5.549   5.666
    1   AR   Ar   60   0.307   5.583   2.944
    1   AR   Ar   61   0.449   3.533   6.646
    1   AR   Ar   62   0.121   4.490   5.064
    1   AR   Ar   63   3.196   2.444   7.149
    1   AR   Ar   64   0.007   5.515   4.945
    1   AR   Ar   65   3.876   0.900   2.197
    1   AR   Ar   66   1.601   1.282   1.310
    1   AR   Ar   67   4.274   0.209  -0.599
    1   AR   Ar   68   7.115   1.071  -1.029
    1   AR   Ar   69   2.374   1.361   0.116
    1   AR   Ar   70   7.026   1.589   1.820
    1   AR   Ar   71   2.875   0.886   2.610
    1   AR   Ar   72   4.063   1.169   1.012
    1   AR   Ar   73   3.244   0.282   3.875
    1   AR   Ar   74   1.250   1.005   3.987
    1   AR   Ar   75   3.125   0.790   4.847
    1   AR   Ar   76   2.259   0.154   1.031
    1   AR   Ar   77   1.930   5.903   5.711
    1   AR   Ar   78   6.978   5.467   5.962
    1   AR   Ar   79   3.010   6.654   5.818
    1   AR   Ar   80   4.052   5.874   5.600
    1   AR   Ar   81   1.885   6.368   1.287
    1   AR   Ar   82   6.447   4.776   0.830
    1   AR   Ar   83   1.260   3.624   0.838
    1   AR   Ar   84   0.848   4.629   1.106
    1   AR   Ar   85   1.277   4.117  -0.115
    1   AR   Ar   86   1.872   5.235   1.282
    1   AR   Ar   87   3.515   3.215   2.436
    1   AR   Ar   88   3.525   5.436   1.386
    1   AR   Ar   89   6.332   2.079   1.003
    1   AR   Ar   90   3.432   1.626   5.691
    1   AR   Ar   91   2.065   1.313   3.014
    1   AR   Ar   92   2.118   2.541   1.727
    1   AR   Ar   93   2.198   1.305   5.248
    1   AR   Ar   94   1.316   6.931   8.473
    1   AR   Ar   95   4.320   1.094   5.266
    1   AR   Ar   96   2.079   0.131   4.876
    1   AR   Ar   97   2.596   2.550  -0.666
    1   AR   Ar   98   1.688   4.279   4.152
    1   AR   Ar   99   5.867   0.421  -0.421
    1   AR   Ar  100   6.566   2.759  -2.488
    1   AR   Ar  101   3.825   6.089   2.368
    1   AR   Ar  102   3.481   1.859   2.599
    1   AR   Ar  103   1.966   4.499   0.531
    1   AR   Ar  104   3.447   6.755  -1.344
    1   AR   Ar  105   2.690   2.076   3.339
    1   AR   Ar  106   3.973   2.342   5.017
    1   AR   Ar  107   1.115   5.088   5.511
    1   AR   Ar  108   2.290   0.763   4.046
    1   AR   Ar  109   2.162   4.585   5.649
    1   AR   Ar  110   2.439   2.310   4.902
    1   AR   Ar  111   3.741   5.734   8.233
    1   AR   Ar  112   6.503   6.204   5.422
    1   AR   Ar  113   0.959   6.146  -1.566
    1   AR   Ar  114   2.592   0.324   0.002
    1   AR   Ar  115   0.684   5.466   0.317
    1   AR   Ar  116   4.510   0.307   0.451
    1   AR   Ar  117   0.320   4.746   3.648
    1   AR   Ar  118   1.787   5.624   3.357
    1   AR   Ar  119   1.168   4.278   3.058
    1   AR   Ar  120   2.054   6.654   2.652
    1   AR   Ar  121   5.049   4.345   6.015
    1   AR   Ar  122   2.956   5.548   3.794
    1   AR   Ar  123   3.103   2.666   5.519
    1   AR   Ar  124   0.904   5.786   1.537
    1   AR   Ar  125   5.673   3.702   3.907
    1   AR   Ar  126   6.700   0.568   7.719
    1   AR   Ar  127   4.956   3.155   6.081
    1   AR   Ar  128   1.605   3.961   6.626
    1   AR   Ar  129   2.093   5.482   4.518
    1   AR   Ar  130   4.058   1.192  -4.847
    1   AR   Ar  131   4.508   6.375  -1.746
    1   AR   Ar  132   0.760   2.160   1.032
    1   AR   Ar  133   4.068   0.461   4.590
    1   AR   Ar  134   3.087   1.462   4.076
    1   AR   Ar  135   5.784   1.148   4.411
    1   AR   Ar  136   5.743   0.115   2.822
    1   AR   Ar  137   2.875   4.150   6.290
    1   AR   Ar  138   5.603   1.063   5.616
    1   AR   Ar  139   6.382   2.033   4.943
    1   AR   Ar  140   4.492   6.643   4.973
    1   AR   Ar  141   3.882   5.553   4.483
    1   AR   Ar  142   4.743   6.438   7.765
    1   AR   Ar  143   5.312   6.670   6.753
    1   AR   Ar  144   0.212   1.850   5.152
    1   AR   Ar  145   4.419   5.202  -0.548
    1   AR   Ar  146   3.996   2.490   3.300
    1   AR   Ar  147   5.201   3.976  -0.255
    1   AR   Ar  148   2.609   5.979  -1.349
    1   AR   Ar  149   0.175   2.052  -0.441
    1   AR   Ar  150   1.896   2.577   2.788
    1   AR   Ar  151   2.798   3.414   3.116
    1   AR   Ar  152   0.741   0.953  -2.014
    1   AR   Ar  153   5.559   1.054   3.151
    1   AR   Ar  154   4.644   2.911   3.937
    1   AR   Ar  155   6.125   3.539   5.168
    1   AR   Ar  156   2.325   4.717   3.361
    1   AR   Ar  157   2.925   5.024   6.682
    1   AR   Ar  158   0.609   1.994   6.338
    1   AR   Ar  159   3.976   0.062   6.146
    1   AR   Ar  160   1.257   0.564   5.189
    1   AR   Ar  161   4.916   4.072   3.202
    1   AR   Ar  162   3.984   6.149  -0.356
    1   AR   Ar  163   6.161   4.321   2.069
    1   AR   Ar  164   2.049   5.636   2.202
    1   AR   Ar  165   3.434   4.273   1.219
    1   AR   Ar  166   2.514   3.734   5.087
    1   AR   Ar  167   6.524   6.987   3.685
    1   AR   Ar  168   5.437   4.380  -2.436
    1   AR   Ar  169   3.799   3.979   3.126
    1   AR   Ar  170   2.194   3.145   5.888
    1   AR   Ar  171   4.958   5.297   4.023
    1   AR   Ar  172   3.462   3.595   4.500
    1   AR   Ar  173   2.178   1.856   6.154
    1   AR   Ar  174   3.324   6.533   4.692
    1   AR   Ar  175   3.096   0.601   6.027
    1   AR   Ar  176   3.018   2.721   4.168
    1   AR   Ar  177   0.635   4.371  -1.088
    1   AR   Ar  178   2.840   6.202   0.158
    1   AR   Ar  179   3.506   6.895   0.830
    1   AR   Ar  180   4.921   0.455  -7.271
    1   AR   Ar  181   7.014   6.095   1.830
    1   AR   Ar  182   1.100   6.150   2.661
    1   AR   Ar  183   4.640   5.409   1.845
    1   AR   Ar  184   4.296   6.241   0.587
    1   AR   Ar  185   2.886   4.611   4.378
    1   AR   Ar  186   2.853   5.984   2.857
    1   AR   Ar  187   3.849   6.560   3.730
    1   AR   Ar  188   3.106   0.206   1.804
    1   AR   Ar  189   5.940   2.767   5.870
    1   AR   Ar  190   1.721   6.630   3.699
    1   AR   Ar  191   3.503   6.404   6.811
    1   AR   Ar  192   4.074   3.629   5.457
    1   AR   Ar  193   2.956   6.304   1.570
    1   AR   Ar  194   5.373   5.495  -1.138
    1   AR   Ar  195   5.358   0.889   0.720
    1   AR   Ar  196   3.484   0.600   0.288
    1   AR   Ar  197   4.681   2.966   0.499
    1   AR   Ar  198   5.755   6.855   1.153
    1   AR   Ar  199   1.246   0.235   2.977
    1   AR   Ar  200   6.037   2.519  -0.206
    1   AR   Ar  201   6.409   6.180   2.707
    1   AR   Ar  202   4.993   0.557   4.197
    1   AR   Ar  203   0.333   6.728   3.240
    1   AR   Ar  204   4.535   4.565   7.407
    1   AR   Ar  205   5.776   1.937   1.802
    1   AR   Ar  206   6.155   0.282   6.282
    1   AR   Ar  207   6.793   3.316   4.241
    1   AR   Ar  208   0.915   5.966   3.974
    1   AR   Ar  209   6.997   2.016  -1.857
    1   AR   Ar  210   1.224   0.582   0.437
    1   AR   Ar  211   0.231   3.253   0.420
    1   AR   Ar  212   6.351   3.804  -0.107
    1   AR   Ar  213   3.376   1.717   1.520
    1   AR   Ar  214   5.089   4.466   2.059
    1   AR   Ar  215   6.905   2.644   1.761
    1   AR   Ar  216   1.743   2.229   0.393
    1   AR   Ar  217   5.127   1.663   3.750
    1   AR   Ar  218   4.887   2.964   5.039
    1   AR   Ar  219   4.524   3.204   2.701
    1   AR   Ar  220   4.635   3.863   1.368
    1   AR   Ar  221   7.094   5.830   3.911
    1   AR   Ar  222   4.921   0.306   5.693
    1   AR   Ar  223   6.592   1.718   5.995
    1   AR   Ar  224   5.218   1.937   5.184
    1   AR   Ar  225   6.755   2.819   2.940
    1   AR   Ar  226   1.653   3.268   3.735
    1   AR   Ar  227   0.970   2.997   2.810
    1   AR   Ar  228   6.394   0.700   1.591
    1   AR   Ar  229   5.851   4.649  -1.094
    1   AR   Ar  230   3.979   4.707   3.920
    1   AR   Ar  231   4.861   2.213   2.739
    1   AR   Ar  232   5.278   2.935   1.748
    1   AR   Ar  233   6.597   2.359   3.941
    1   AR   Ar  234   5.671   2.582   4.329
    1   AR   Ar  235   6.534   0.856   3.570
    1   AR   Ar  236   4.273   4.682   5.039
    1   AR   Ar  237   4.747   0.597   6.756
    1   AR   Ar  238   5.748   5.532   6.255
    1   AR   Ar  239   1.039   4.529  11.593
    1   AR   Ar  240   1.706   2.705   6.725
    1   AR   Ar  241   1.667   6.739   0.029
    1   AR   Ar  242   5.692   5.792   1.412
    1   AR   Ar  243   5.075   6.340   2.553
    1   AR   Ar  244   6.556   6.350   0.738
    1   AR   Ar  245   4.137   1.116   3.652
    1   AR   Ar  246   5.449   6.578  -0.847
    1   AR   Ar  247   7.023   3.719   1.499
    1   AR   Ar  248   5.475   5.541  -0.149
    1   AR   Ar  249   4.084   6.857   1.726
    1   AR   Ar  250   4.952   6.630   3.872
    1   AR   Ar  251   5.040   3.987   4.946
    1   AR   Ar  252   2.620   4.500   1.876
    1   AR   Ar  253   5.691   2.234   7.550
    1   AR   Ar  254   5.860   3.211  10.495
    1   AR   Ar  255   4.264   6.393   8.928
    1   AR   Ar  256   6.009   6.055   3.618
    7.12000  7.12000 12.00000
Argon-slab step 5040
  256
    1   AR   Ar    1   5.079   3.421  -2.726
    1   AR   Ar    2   5.245   6.773   0.091
    1   AR   Ar    3   4.048   3.560  -1.136
    1   AR   Ar    4   2.665   1.143   1.001
    1   AR   Ar    5   6.666   5.040  -0.463
    1   AR   Ar    6   0.865   1.811   2.083
    1   AR   Ar    7   5.882   4.755   3.332
    1   AR   Ar    8   6.719   3.289  -1.568
    1   AR   Ar    9   7.028   6.660   4.620
    1   AR   Ar   10   5.794   4.710   5.080
    1   AR   Ar   11   1.176   6.208   5.050
    1   AR   Ar   12   0.321   1.579   4.121
    1   AR   Ar   13   6.670   0.785   4.872
    1   AR   Ar   14   3.789   1.092   6.764
    1   AR   Ar   15   2.593   6.776   9.695
    1   AR   Ar   16   0.839   0.247   6.202
    1   AR   Ar   17   5.929   3.762   1.299
    1   AR   Ar   18   0.064   4.965  -1.769
    1   AR   Ar   19   5.430   4.664   0.871
    1   AR   Ar   20   7.051   3.917  -2.294
    1   AR   Ar   21   2.422   1.506   2.027
    1   AR   Ar   22   5.509   0.869   2.082
    1   AR   Ar   23   0.697   6.522   0.585
    1   AR   Ar   24   5.722   2.519   3.225
    1   AR   Ar   25   0.992   2.702   4.636
    1   AR   Ar   26   5.907   6.857   4.657
    1   AR   Ar   27   1.937   0.549   2.107
    1   AR   Ar   28   1.809   1.773   4.249
    1   AR   Ar   29   5.108   1.251   7.700
    1   AR   Ar   30   0.436   0.901   2.966
    1   AR   Ar   31   2.327   1.014   6.822
    1   AR   Ar   32   1.168   2.122   5.511
    1   AR   Ar   33   0.235   4.302   0.262
    1   AR   Ar   34   1.191   4.983   2.143
    1   AR   Ar   35   5.589   5.424   2.558
    1   AR   Ar   36   5.492   2.407  -2.878
    1   AR   Ar   37   3.694   3.198   1.238
    1   AR   Ar   38   6.599   4.324   4.062
    1   AR   Ar   39   0.450   2.755   3.756
    1   AR   Ar   40   0.892   3.808   1.987
    1   AR   Ar   41   1.048   1.968   3.195
    1   AR   Ar   42   5.108   6.266   5.820
    1   AR   Ar   43   0.133   2.974   5.469
    1   AR   Ar   44   7.063   3.850   3.078
    1   AR   Ar   45   1.319   3.444   5.305
    1   AR   Ar   46   6.696   4.713   6.939
    1   AR   Ar   47   3.658   3.841   7.958
    1   AR   Ar   48   0.175   3.746   7.968
    1   AR   Ar   49   0.069   1.357   0.471
    1   AR   Ar   50   4.167   5.008   0.532
    1   AR   Ar   51   5.642   3.555   2.726
    1   AR   Ar   52   5.409   3.244  -1.097
    1   AR   Ar   53   4.369   0.073   3.087
    1   AR   Ar   54   0.399   0.103   2.338
    1   AR   Ar   55   6.961   4.999   2.275
    1   AR   Ar   56   6.299   1.680   2.806
    1   AR   Ar   57   3.863   4.416   2.187
    1   AR   Ar   58   0.669   3.857   4.270
    1   AR   Ar   59   2.959   5.512   5.666
    1   AR   Ar   60   0.313   5.608   2.965
    1   AR   Ar   61   0.431   3.516   6.625
    1   AR   Ar   62   0.106   4.461   5.058
    1   AR   Ar   63   3.203   2.443   7.169
    1   AR   Ar   64   0.002   5.540   4.953
    1   AR   Ar   65   3.890   0.920   2.199
    1   AR   Ar   66   1.589   1.325   1.314
    1   AR   Ar   67   4.270   0.194  -0.600
    1   AR   Ar   68   7.103   1.081  -1.000
    1   AR   Ar   69   2.418   1.337   0.091
    1   AR   Ar   70   6.977   1.630   1.832
    1   AR   Ar   71   2.866   0.865   2.632
    1   AR   Ar   72   4.073   1.191   1.045
    1   AR   Ar   73   3.273   0.251   3.880
    1   AR   Ar   74   1.258   1.013   3.992
    1   AR   Ar   75   3.138   0.775   4.888
    1   AR   Ar   76   2.237   0.158   1.014
    1   AR   Ar   77   1.949   5.898   5.722
    1   AR   Ar   78   6.944   5.443   5.965
    1   AR   Ar   79   2.985   6.658   5.815
    1   AR   Ar   80   4.057   5.888   5.591
    1   AR   Ar   81   1.898   6.388   1.266
    1   AR   Ar   82   6.477   4.785   0.864
    1   AR   Ar   83   1.275   3.627   0.870
    1   AR   Ar   84   0.834   4.640   1.090
    1   AR   Ar   85   1.257   4.098  -0.110
    1   AR   Ar   86   1.876   5.200   1.276
    1   AR   Ar   87   3.493   3.160   2.449
    1   AR   Ar   88   3.518   5.441   1.352
    1   AR   Ar   89   6.323   2.097   1.000
    1   AR   Ar   90   3.437   1.614   5.699
    1   AR   Ar   91   2.057   1.313   2.987
    1   AR   Ar   92   2.101   2.530   1.733
    1   AR   Ar   93   2.199   1.332   5.249
    1   AR   Ar   94   1.290   6.929   8.462
    1   AR   Ar   95   4.340   1.079   5.281
    1   AR   Ar   96   2.094   0.131   4.880
    1   AR   Ar   97   2.603   2.534  -0.674
    1   AR   Ar   98   1.685   4.283   4.165
    1   AR   Ar   99   5.868   0.452  -0.408
    1   AR   Ar  100   6.565   2.766  -2.494
    1   AR   Ar  101   3.822   6.115   2.378
    1   AR   Ar  102   3.464   1.869   2.600
    1   AR   Ar  103   1.938   4.504   0.546
    1   AR   Ar  104   3.434   6.813  -1.354
    1   AR   Ar  105   2.707   2.091   3.314
    1   AR   Ar  106   3.973   2.372   5.002
    1   AR   Ar  107   1.131   5.091   5.470
    1   AR   Ar  108   2.301   0.756   4.044
    1   AR   Ar  109   2.177   4.610   5.635
    1   AR   Ar  110   2.416   2.286   4.884
    1   AR   Ar  111   3.746   5.731   8.236
    1   AR   Ar  112   6.519   6.203   5.395
    1   AR   Ar  113   0.963   6.144  -1.563
    1   AR   Ar  114   2.603   0.310   0.002
    1   AR   Ar  115   0.643   5.487   0.340
    1   AR   Ar  116   4.532   0.330   0.482
    1   AR   Ar  117   0.301   4.728   3.674
    1   AR   Ar  118   1.855   5.639   3.386
    1   AR   Ar  119   1.123   4.276   3.098
    1   AR   Ar  120   2.087   6.672   2.615
    1   AR   Ar  121   5.018   4.343   6.027
    1   AR   Ar  122   2.962   5.530   3.807
    1   AR   Ar  123   3.134   2.702   5.503
    1   AR   Ar  124   0.885   5.793   1.539
    1   AR   Ar  125   5.673   3.714   3.920
    1   AR   Ar  126   6.685   0.618   7.728
    1   AR   Ar  127   4.992   3.149   6.058
    1   AR   Ar  128   1.583   3.936   6.619
    1   AR   Ar  129   2.100   5.490   4.500
    1   AR   Ar  130   4.048   1.167  -4.840
    1   AR   Ar  131   4.487   6.392  -1.744
    1   AR   Ar  132   0.788   2.156   1.012
    1   AR   Ar  133   4.045   0.448   4.560
    1   AR   Ar  134   3.055   1.471   4.079
    1   AR   Ar  135   5.769   1.128   4.440
    1   AR   Ar  136   5.747   0.091   2.817
    1   AR   Ar  137   2.843   4.119   6.298
    1   AR   Ar  138   5.577   1.044   5.611
    1   AR   Ar  139   6.349   2.026   4.929
    1   AR   Ar  140   4.500   6.647   4.970
    1   AR   Ar  141   3.896   5.528   4.500
    1   AR   Ar  142   4.758   6.448   7.769
    1   AR   Ar  143   5.296   6.664   6.761
    1   AR   Ar  144   0.239   1.855   5.177
    1   AR   Ar  145   4.420   5.182  -0.546
    1   AR   Ar  146   3.970   2.463   3.291
    1   AR   Ar  147   5.219   3.974  -0.263
    1   AR   Ar  148   2.638   5.977  -1.336
    1   AR   Ar  149   0.137   2.089  -0.459
    1   AR   Ar  150   1.901   2.563   2.813
    1   AR   Ar  151   2.785   3.409   3.128
    1   AR   Ar  152   0.725   0.939  -1.968
    1   AR   Ar  153   5.562   1.047   3.119
    1   AR   Ar  154   4.683   2.944   3.918
    1   AR   Ar  155   6.108   3.527   5.142
    1   AR   Ar  156   2.327   4.725   3.376
    1   AR   Ar  157   2.948   5.036   6.685
    1   AR   Ar  158   0.612   2.017   6.368
    1   AR   Ar  159   3.960   0.070   6.139
    1   AR   Ar  160   1.255   0.577   5.196
    1   AR   Ar  161   4.902   4.073   3.182
    1   AR   Ar  162   3.967   6.104  -0.346
    1   AR   Ar  163   6.174   4.322   2.090
    1   AR   Ar  164   2.083   5.655   2.213
    1   AR   Ar  165   3.440   4.280   1.224
    1   AR   Ar  166   2.541   3.723   5.100
    1   AR   Ar  167   6.548   6.996   3.659
    1   AR   Ar  168   5.479   4.405  -2.438
    1   AR   Ar  169   3.788   3.999   3.118
    1   AR   Ar  170   2.205   3.171   5.899
    1   AR   Ar  171   4.979   5.328   4.030
    1   AR   Ar  172   3.461   3.618   4.473
    1   AR   Ar  173   2.204   1.828   6.129
    1   AR   Ar  174   3.316   6.549   4.674
    1   AR   Ar  175   3.067   0.574   6.014
    1   AR   Ar  176   2.998   2.741   4.166
    1   AR   Ar  177   0.622   4.363  -1.062
    1   AR   Ar  178   2.852   6.204   0.146
    1   AR   Ar  179   3.500   6.896   0.845
    1   AR   Ar  180   4.922   0.461  -7.299
    1   AR   Ar  181   7.012   6.117   1.817
    1   AR   Ar  182   1.089   6.119   2.695
    1   AR   Ar  183   4.643   5.381   1.854
    1   AR   Ar  184   4.303   6.220   0.603
    1   AR   Ar  185   2.855   4.633   4.370
    1   AR   Ar  186   2.860   5.998   2.845
    1   AR   Ar  187   3.848   6.543   3.738
    1   AR   Ar  188   3.094   0.205   1.789
    1   AR   Ar  189   5.924   2.744   5.861
    1   AR   Ar  190   1.706   6.638   3.676
    1   AR   Ar  191   3.528   6.425   6.802
    1   AR   Ar  192   4.076   3.621   5.456
    1   AR   Ar  193   2.970   6.306   1.589
    1   AR   Ar  194   5.354   5.538  -1.154
    1   AR   Ar  195   5.402   0.909   0.732
    1   AR   Ar  196   3.487   0.592   0.314
    1   AR   Ar  197   4.677   2.975   0.495
    1   AR   Ar  198   5.776   6.836   1.149
    1   AR   Ar  199   1.236   0.206   2.962
    1   AR   Ar  200   6.070   2.512  -0.217
    1   AR   Ar  201   6.391   6.142   2.714
    1   AR   Ar  202   4.978   0.534   4.171
    1   AR   Ar  203   0.320   6.729   3.259
    1   AR   Ar  204   4.553   4.545   7.389
    1   AR   Ar  205   5.760   1.933   1.813
    1   AR   Ar  206   6.164   0.264   6.266
    1   AR   Ar  207   6.787   3.317   4.249
    1   AR   Ar  208   0.912   5.939   3.979
    1   AR   Ar  209   7.000   1.992  -1.862
    1   AR   Ar  210   1.241   0.590   0.449
    1   AR   Ar  211   0.232   3.263   0.413
    1   AR   Ar  212   6.349   3.799  -0.123
    1   AR   Ar  213   3.369   1.721   1.523
    1   AR   Ar  214   5.083   4.458   2.055
    1   AR   Ar  215   6.934   2.640   1.747
    1   AR   Ar  216   1.752   2.227   0.370
    1   AR   Ar  217   5.102   1.659   3.744
    1   AR   Ar  218   4.908   2.957   5.056
    1   AR   Ar  219   4.514   3.204   2.693
    1   AR   Ar  220   4.616   3.828   1.383
    1   AR   Ar  221   7.085   5.845   3.911
    1   AR   Ar  222   4.902   0.296   5.650
    1   AR   Ar  223   6.592   1.713   6.012
    1   AR   Ar  224   5.214   1.937   5.176
    1   AR   Ar  225   6.771   2.796   2.939
    1   AR   Ar  226   1.685   3.254   3.769
    1   AR   Ar  227   0.974   3.016   2.804
    1   AR   Ar  228   6.395   0.724   1.612
    1   AR   Ar  229   5.846   4.629  -1.105
    1   AR   Ar  230   3.964   4.703   3.922
    1   AR   Ar  231   4.911   2.171   2.765
    1   AR   Ar  232   5.230   2.919   1.751
    1   AR   Ar  233   6.587   2.331   3.930
    1   AR   Ar  234   5.668   2.594   4.342
    1   AR   Ar  235   6.497   0.885   3.570
    1   AR   Ar  236   4.260   4.671   5.035
    1   AR   Ar  237   4.736   0.576   6.796
    1   AR   Ar  238   5.725   5.499   6.278
    1   AR   Ar  239   1.066   4.521  11.574
    1   AR   Ar  240   1.736   2.736   6.733
    1   AR   Ar  241   1.656   6.767   0.041
    1   AR   Ar  242   5.688   5.809   1.401
    1   AR   Ar  243   5.072   6.340   2.537
    1   AR   Ar  244   6.569   6.367   0.697
    1   AR   Ar  245   4.163   1.163   3.656
    1   AR   Ar  246   5.467   6.584  -0.867
    1   AR   Ar  247   7.001   3.748   1.452
    1   AR   Ar  248   5.480   5.557  -0.137
    1   AR   Ar  249   4.085   6.861   1.754
    1   AR   Ar  250   4.961   6.624   3.885
    1   AR   Ar  251   5.053   3.992   4.949
    1   AR   Ar  252   2.617   4.518   1.899
    1   AR   Ar  253   5.671   2.235   7.586
    1   AR   Ar  254   5.833   3.213  10.536
    1   AR   Ar  255   4.264   6.403   8.922
    1   AR   Ar  256   6.034   6.082   3.620
    7.12000  7.12000 12.00000
Argon-slab step 5045
  256
    1   AR   Ar    1   5.068   3.447  -2.724
    1   AR   Ar    2   5.234   6.772   0.124
    1   AR   Ar    3   4.038   3.553  -1.136
    1   AR   Ar    4   2.676   1.166   0.972
    1   AR   Ar    5   6.701   5.030  -0.472
    1   AR   Ar    6   0.870   1.794   2.065
    1   AR   Ar    7   5.882   4.772   3.321
    1   AR   Ar    8   6.713   3.306  -1.522
    1   AR   Ar    9   7.024   6.658   4.621
    1   AR   Ar   10   5.806   4.696   5.072
    1   AR   Ar   11   1.181   6.202   5.055
    1   AR   Ar   12   0.350   1.588   4.129
    1   AR   Ar   13   6.675   0.778   4.884
    1   AR   Ar   14   3.803   1.106   6.787
    1   AR   Ar   15   2.572   6.752   9.695
    1   AR   Ar   16   0.830   0.257   6.193
    1   AR   Ar   17   5.930   3.751   1.261
    1   AR   Ar   18   0.067   4.975  -1.782
    1   AR   Ar   19   5.431   4.663   0.855
    1   AR   Ar   20   7.068   3.909  -2.308
    1   AR   Ar   21   2.409   1.496   2.049
    1   AR   Ar   22   5.469   0.874   2.075
    1   AR   Ar   23   0.704   6.508   0.589
    1   AR   Ar   24   5.726   2.497   3.211
    1   AR   Ar   25   0.988   2.684   4.649
    1   AR   Ar   26   5.896   6.879   4.639
    1   AR   Ar   27   1.925   0.579   2.122
    1   AR   Ar   28   1.797   1.743   4.242
    1   AR   Ar   29   5.115   1.275   7.670
    1   AR   Ar   30   0.430   0.898   2.990
    1   AR   Ar   31   2.331   0.983   6.824
    1   AR   Ar   32   1.147   2.110   5.489
    1   AR   Ar   33   0.282   4.295   0.244
    1   AR   Ar   34   1.201   4.976   2.161
    1   AR   Ar   35   5.571   5.450   2.555
    1   AR   Ar   36   5.465   2.415  -2.904
    1   AR   Ar   37   3.687   3.209   1.218
    1   AR   Ar   38   6.572   4.339   4.056
    1   AR   Ar   39   0.445   2.758   3.765
    1   AR   Ar   40   0.888   3.797   1.996
    1   AR   Ar   41   1.061   1.950   3.192
    1   AR   Ar   42   5.124   6.265   5.791
    1   AR   Ar   43   0.110   2.975   5.430
    1   AR   Ar   44   7.054   3.806   3.065
    1   AR   Ar   45   1.354   3.450   5.320
    1   AR   Ar   46   6.671   4.716   6.931
    1   AR   Ar   47   3.647   3.839   7.956
    1   AR   Ar   48   0.188   3.747   7.975
    1   AR   Ar   49   0.098   1.358   0.491
    1   AR   Ar   50   4.160   4.972   0.545
    1   AR   Ar   51   5.612   3.558   2.724
    1   AR   Ar   52   5.399   3.252  -1.089
    1   AR   Ar   53   4.353   0.074   3.084
    1   AR   Ar   54   0.364   0.093   2.356
    1   AR   Ar   55   6.976   5.018   2.295
    1   AR   Ar   56   6.299   1.702   2.807
    1   AR   Ar   57   3.855   4.446   2.213
    1   AR   Ar   58   0.680   3.853   4.270
    1   AR   Ar   59   2.944   5.474   5.665
    1   AR   Ar   60   0.350   5.620   2.968
    1   AR   Ar   61   0.414   3.499   6.604
    1   AR   Ar   62   0.090   4.430   5.050
    1   AR   Ar   63   3.208   2.442   7.188
    1   AR   Ar   64   0.005   5.560   4.951
    1   AR   Ar   65   3.904   0.939   2.200
    1   AR   Ar   66   1.580   1.363   1.319
    1   AR   Ar   67   4.265   0.176  -0.600
    1   AR   Ar   68   7.091   1.092  -0.972
    1   AR   Ar   69   2.458   1.320   0.050
    1   AR   Ar   70   6.982   1.610   1.842
    1   AR   Ar   71   2.871   0.832   2.660
    1   AR   Ar   72   4.089   1.207   1.075
    1   AR   Ar   73   3.297   0.227   3.883
    1   AR   Ar   74   1.256   1.009   3.991
    1   AR   Ar   75   3.145   0.760   4.933
    1   AR   Ar   76   2.218   0.171   0.995
    1   AR   Ar   77   1.968   5.893   5.733
    1   AR   Ar   78   6.910   5.415   5.974
    1   AR   Ar   79   2.961   6.659   5.810
    1   AR   Ar   80   4.061   5.902   5.583
    1   AR   Ar   81   1.907   6.396   1.249
    1   AR   Ar   82   6.511   4.792   0.898
    1   AR   Ar   83   1.289   3.630   0.905
    1   AR   Ar   84   0.822   4.652   1.076
    1   AR   Ar   85   1.233   4.078  -0.109
    1   AR   Ar   86   1.878   5.171   1.273
    1   AR   Ar   87   3.475   3.103   2.455
    1   AR   Ar   88   3.514   5.443   1.319
    1   AR   Ar   89   6.320   2.109   1.002
    1   AR   Ar   90   3.432   1.590   5.703
    1   AR   Ar   91   2.036   1.316   2.968
    1   AR   Ar   92   2.086   2.529   1.736
    1   AR   Ar   93   2.202   1.331   5.245
    1   AR   Ar   94   1.263   6.926   8.451
    1   AR   Ar   95   4.360   1.074   5.300
    1   AR   Ar   96   2.119   0.125   4.883
    1   AR   Ar   97   2.609   2.518  -0.680
    1   AR   Ar   98   1.678   4.280   4.169
    1   AR   Ar   99   5.869   0.483  -0.393
    1   AR   Ar  100   6.564   2.772  -2.503
    1   AR   Ar  101   3.818   6.135   2.392
    1   AR   Ar  102   3.445   1.877   2.599
    1   AR   Ar  103   1.913   4.506   0.560
    1   AR   Ar  104   3.421   6.869  -1.363
    1   AR   Ar  105   2.724   2.108   3.290
    1   AR   Ar  106   3.976   2.401   4.983
    1   AR   Ar  107   1.147   5.094   5.429
    1   AR   Ar  108   2.311   0.748   4.040
    1   AR   Ar  109   2.190   4.637   5.620
    1   AR   Ar  110   2.391   2.265   4.870
    1   AR   Ar  111   3.751   5.727   8.237
    1   AR   Ar  112   6.523   6.209   5.373
    1   AR   Ar  113   0.966   6.141  -1.559
    1   AR   Ar  114   2.611   0.286   0.003
    1   AR   Ar  115   0.601   5.503   0.365
    1   AR   Ar  116   4.552   0.352   0.515
    1   AR   Ar  117   0.290   4.715   3.698
    1   AR   Ar  118   1.921   5.656   3.414
    1   AR   Ar  119   1.079   4.271   3.137
    1   AR   Ar  120   2.118   6.693   2.577
    1   AR   Ar  121   4.987   4.340   6.037
    1   AR   Ar  122   2.960   5.532   3.812
    1   AR   Ar  123   3.164   2.742   5.493
    1   AR   Ar  124   0.867   5.801   1.538
    1   AR   Ar  125   5.673   3.724   3.934
    1   AR   Ar  126   6.677   0.661   7.729
    1   AR   Ar  127   5.024   3.147   6.041
    1   AR   Ar  128   1.562   3.910   6.610
    1   AR   Ar  129   2.105   5.498   4.482
    1   AR   Ar  130   4.038   1.142  -4.833
    1   AR   Ar  131   4.466   6.410  -1.740
    1   AR   Ar  132   0.816   2.151   0.993
    1   AR   Ar  133   4.021   0.426   4.526
    1   AR   Ar  134   3.028   1.483   4.084
    1   AR   Ar  135   5.768   1.120   4.480
    1   AR   Ar  136   5.754   0.060   2.813
    1   AR   Ar  137   2.844   4.113   6.264
    1   AR   Ar  138   5.559   1.028   5.605
    1   AR   Ar  139   6.313   2.018   4.918
    1   AR   Ar  140   4.508   6.651   4.965
    1   AR   Ar  141   3.908   5.513   4.520
    1   AR   Ar  142   4.772   6.459   7.772
    1   AR   Ar  143   5.281   6.660   6.771
    1   AR   Ar  144   0.264   1.858   5.202
    1   AR   Ar  145   4.424   5.159  -0.545
    1   AR   Ar  146   3.943   2.437   3.283
    1   AR   Ar  147   5.238   3.973  -0.271
    1   AR   Ar  148   2.666   5.975  -1.323
    1   AR   Ar  149   0.099   2.125  -0.476
    1   AR   Ar  150   1.910   2.548   2.839
    1   AR   Ar  151   2.766   3.405   3.146
    1   AR   Ar  152   0.707   0.926  -1.921
    1   AR   Ar  153   5.562   1.036   3.087
    1   AR   Ar  154   4.683   2.936   3.921
    1   AR   Ar  155   6.090   3.517   5.114
    1   AR   Ar  156   2.332   4.735   3.389
    1   AR   Ar  157   2.971   5.057   6.691
    1   AR   Ar  158   0.612   2.040   6.402
    1   AR   Ar  159   3.948   0.076   6.131
    1   AR   Ar  160   1.246   0.595   5.204
    1   AR   Ar  161   4.885   4.081   3.165
    1   AR   Ar  162   3.945   6.063  -0.343
    1   AR   Ar  163   6.189   4.327   2.118
    1   AR   Ar  164   2.116   5.674   2.225
    1   AR   Ar  165   3.448   4.287   1.233
    1   AR   Ar  166   2.570   3.713   5.108
    1   AR   Ar  167   6.545   6.998   3.662
    1   AR   Ar  168   5.522   4.431  -2.439
    1   AR   Ar  169   3.775   4.014   3.116
    1   AR   Ar  170   2.222   3.199   5.902
    1   AR   Ar  171   5.001   5.359   4.037
    1   AR   Ar  172   3.462   3.646   4.447
    1   AR   Ar  173   2.230   1.806   6.108
    1   AR   Ar  174   3.338   6.542   4.674
    1   AR   Ar  175   3.034   0.554   6.000
    1   AR   Ar  176   2.980   2.760   4.159
    1   AR   Ar  177   0.609   4.354  -1.033
    1   AR   Ar  178   2.865   6.208   0.135
    1   AR   Ar  179   3.492   6.886   0.865
    1   AR   Ar  180   4.923   0.467  -7.327
    1   AR   Ar  181   7.009   6.139   1.804
    1   AR   Ar  182   1.093   6.096   2.723
    1   AR   Ar  183   4.644   5.357   1.863
    1   AR   Ar  184   4.313   6.189   0.612
    1   AR   Ar  185   2.825   4.653   4.363
    1   AR   Ar  186   2.869   6.011   2.834
    1   AR   Ar  187   3.850   6.518   3.747
    1   AR   Ar  188   3.098   0.204   1.785
    1   AR   Ar  189   5.912   2.717   5.850
    1   AR   Ar  190   1.692   6.649   3.654
    1   AR   Ar  191   3.553   6.446   6.793
    1   AR   Ar  192   4.099   3.635   5.450
    1   AR   Ar  193   2.980   6.306   1.610
    1   AR   Ar  194   5.332   5.585  -1.176
    1   AR   Ar  195   5.447   0.929   0.746
    1   AR   Ar  196   3.501   0.599   0.335
    1   AR   Ar  197   4.672   2.986   0.492
    1   AR   Ar  198   5.793   6.824   1.146
    1   AR   Ar  199   1.232   0.176   2.948
    1   AR   Ar  200   6.103   2.505  -0.227
    1   AR   Ar  201   6.378   6.107   2.709
    1   AR   Ar  202   4.965   0.510   4.141
    1   AR   Ar  203   0.314   6.725   3.279
    1   AR   Ar  204   4.571   4.525   7.370
    1   AR   Ar  205   5.740   1.927   1.833
    1   AR   Ar  206   6.171   0.246   6.249
    1   AR   Ar  207   6.788   3.361   4.249
    1   AR   Ar  208   0.928   5.913   3.983
    1   AR   Ar  209   7.002   1.964  -1.866
    1   AR   Ar  210   1.258   0.599   0.463
    1   AR   Ar  211   0.233   3.270   0.407
    1   AR   Ar  212   6.347   3.794  -0.138
    1   AR   Ar  213   3.358   1.731   1.531
    1   AR   Ar  214   5.083   4.455   2.053
    1   AR   Ar  215   6.963   2.642   1.733
    1   AR   Ar  216   1.761   2.225   0.348
    1   AR   Ar  217   5.094   1.661   3.733
    1   AR   Ar  218   4.928   2.949   5.067
    1   AR   Ar  219   4.513   3.228   2.654
    1   AR   Ar  220   4.594   3.789   1.396
    1   AR   Ar  221   7.054   5.859   3.911
    1   AR   Ar  222   4.882   0.276   5.608
    1   AR   Ar  223   6.592   1.710   6.027
    1   AR   Ar  224   5.209   1.938   5.165
    1   AR   Ar  225   6.787   2.773   2.938
    1   AR   Ar  226   1.716   3.239   3.803
    1   AR   Ar  227   0.974   3.039   2.799
    1   AR   Ar  228   6.402   0.746   1.630
    1   AR   Ar  229   5.843   4.603  -1.114
    1   AR   Ar  230   3.949   4.693   3.922
    1   AR   Ar  231   4.953   2.126   2.786
    1   AR   Ar  232   5.182   2.905   1.755
    1   AR   Ar  233   6.579   2.298   3.916
    1   AR   Ar  234   5.661   2.608   4.355
    1   AR   Ar  235   6.463   0.921   3.571
    1   AR   Ar  236   4.246   4.662   5.032
    1   AR   Ar  237   4.727   0.554   6.835
    1   AR   Ar  238   5.704   5.465   6.301
    1   AR   Ar  239   1.094   4.513  11.556
    1   AR   Ar  240   1.765   2.767   6.743
    1   AR   Ar  241   1.648   6.794   0.055
    1   AR   Ar  242   5.685   5.822   1.391
    1   AR   Ar  243   5.068   6.343   2.521
    1   AR   Ar  244   6.587   6.381   0.655
    1   AR   Ar  245   4.185   1.207   3.658
    1   AR   Ar  246   5.485   6.588  -0.896
    1   AR   Ar  247   6.981   3.780   1.405
    1   AR   Ar  248   5.478   5.530  -0.130
    1   AR   Ar  249   4.091   6.870   1.778
    1   AR   Ar  250   4.953   6.610   3.914
    1   AR   Ar  251   5.066   3.994   4.950
    1   AR   Ar  252   2.598   4.541   1.901
    1   AR   Ar  253   5.651   2.236   7.622
    1   AR   Ar  254   5.807   3.214  10.577
    1   AR   Ar  255   4.243   6.379   8.944
    1   AR   Ar  256   6.050   6.106   3.636
    7.12000  7.12000 12.00000
Argon-slab step 5050
  256
    1   AR   Ar    1   5.058   3.473  -2.722
    1   AR   Ar    2   5.224   6.769   0.160
    1   AR   Ar    3   4.029   3.547  -1.135
    1   AR   Ar    4   2.690   1.183   0.960
    1   AR   Ar    5   6.737   5.028  -0.450
    1   AR   Ar    6   0.879   1.779   2.050
    1   AR   Ar    7   5.882   4.787   3.311
    1   AR   Ar    8   6.705   3.321  -1.473
    1   AR   Ar    9   7.028   6.647   4.658
    1   AR   Ar   10   5.812   4.720   5.073
    1   AR   Ar   11   1.184   6.196   5.058
    1   AR   Ar   12   0.378   1.599   4.135
    1   AR   Ar   13   6.645   0.802   4.895
    1   AR   Ar   14   3.811   1.117   6.804
    1   AR   Ar   15   2.552   6.728   9.694
    1   AR   Ar   16   0.821   0.267   6.183
    1   AR   Ar   17   5.927   3.739   1.221
    1   AR   Ar   18   0.070   4.984  -1.794
    1   AR   Ar   19   5.430   4.662   0.840
    1   AR   Ar   20   7.085   3.902  -2.324
    1   AR   Ar   21   2.398   1.497   2.060
    1   AR   Ar   22   5.435   0.879   2.073
    1   AR   Ar   23   0.726   6.494   0.583
    1   AR   Ar   24   5.744   2.486   3.207
    1   AR   Ar   25   0.988   2.675   4.654
    1   AR   Ar   26   5.887   6.873   4.623
    1   AR   Ar   27   1.887   0.567   2.110
    1   AR   Ar   28   1.794   1.728   4.235
    1   AR   Ar   29   5.128   1.270   7.673
    1   AR   Ar   30   0.424   0.903   3.018
    1   AR   Ar   31   2.335   0.952   6.825
    1   AR   Ar   32   1.148   2.101   5.473
    1   AR   Ar   33   0.293   4.297   0.239
    1   AR   Ar   34   1.211   4.966   2.180
    1   AR   Ar   35   5.553   5.469   2.549
    1   AR   Ar   36   5.440   2.424  -2.930
    1   AR   Ar   37   3.680   3.219   1.198
    1   AR   Ar   38   6.535   4.357   4.055
    1   AR   Ar   39   0.439   2.761   3.771
    1   AR   Ar   40   0.891   3.784   2.011
    1   AR   Ar   41   1.074   1.930   3.192
    1   AR   Ar   42   5.140   6.263   5.761
    1   AR   Ar   43   0.088   2.975   5.390
    1   AR   Ar   44   7.049   3.755   3.047
    1   AR   Ar   45   1.387   3.457   5.334
    1   AR   Ar   46   6.647   4.719   6.922
    1   AR   Ar   47   3.636   3.838   7.954
    1   AR   Ar   48   0.180   3.728   7.969
    1   AR   Ar   49   0.127   1.360   0.513
    1   AR   Ar   50   4.154   4.937   0.560
    1   AR   Ar   51   5.586   3.545   2.720
    1   AR   Ar   52   5.417   3.243  -1.092
    1   AR   Ar   53   4.339   0.076   3.081
    1   AR   Ar   54   0.325   0.079   2.366
    1   AR   Ar   55   6.991   5.037   2.311
    1   AR   Ar   56   6.305   1.726   2.806
    1   AR   Ar   57   3.850   4.480   2.233
    1   AR   Ar   58   0.690   3.846   4.270
    1   AR   Ar   59   2.932   5.437   5.661
    1   AR   Ar   60   0.387   5.610   2.967
    1   AR   Ar   61   0.397   3.482   6.582
    1   AR   Ar   62   0.089   4.422   5.018
    1   AR   Ar   63   3.214   2.441   7.205
    1   AR   Ar   64   0.018   5.572   4.941
    1   AR   Ar   65   3.918   0.957   2.201
    1   AR   Ar   66   1.587   1.377   1.325
    1   AR   Ar   67   4.261   0.157  -0.598
    1   AR   Ar   68   7.079   1.104  -0.944
    1   AR   Ar   69   2.492   1.309  -0.008
    1   AR   Ar   70   6.998   1.574   1.852
    1   AR   Ar   71   2.886   0.792   2.691
    1   AR   Ar   72   4.111   1.219   1.102
    1   AR   Ar   73   3.307   0.208   3.880
    1   AR   Ar   74   1.241   0.985   3.982
    1   AR   Ar   75   3.147   0.747   4.979
    1   AR   Ar   76   2.204   0.196   0.975
    1   AR   Ar   77   1.987   5.887   5.743
    1   AR   Ar   78   6.875   5.384   5.987
    1   AR   Ar   79   2.937   6.654   5.803
    1   AR   Ar   80   4.062   5.915   5.575
    1   AR   Ar   81   1.911   6.391   1.237
    1   AR   Ar   82   6.547   4.798   0.933
    1   AR   Ar   83   1.301   3.633   0.940
    1   AR   Ar   84   0.811   4.665   1.066
    1   AR   Ar   85   1.210   4.056  -0.111
    1   AR   Ar   86   1.878   5.152   1.282
    1   AR   Ar   87   3.457   3.043   2.458
    1   AR   Ar   88   3.511   5.443   1.286
    1   AR   Ar   89   6.321   2.121   0.999
    1   AR   Ar   90   3.425   1.566   5.705
    1   AR   Ar   91   2.004   1.321   2.961
    1   AR   Ar   92   2.076   2.542   1.733
    1   AR   Ar   93   2.207   1.311   5.276
    1   AR   Ar   94   1.237   6.924   8.441
    1   AR   Ar   95   4.369   1.074   5.322
    1   AR   Ar   96   2.148   0.117   4.887
    1   AR   Ar   97   2.615   2.501  -0.685
    1   AR   Ar   98   1.672   4.278   4.174
    1   AR   Ar   99   5.869   0.514  -0.377
    1   AR   Ar  100   6.561   2.780  -2.512
    1   AR   Ar  101   3.815   6.148   2.410
    1   AR   Ar  102   3.427   1.880   2.590
    1   AR   Ar  103   1.890   4.501   0.566
    1   AR   Ar  104   3.410   6.925  -1.370
    1   AR   Ar  105   2.741   2.127   3.270
    1   AR   Ar  106   3.984   2.426   4.959
    1   AR   Ar  107   1.163   5.098   5.386
    1   AR   Ar  108   2.318   0.738   4.034
    1   AR   Ar  109   2.200   4.666   5.603
    1   AR   Ar  110   2.369   2.251   4.861
    1   AR   Ar  111   3.757   5.723   8.236
    1   AR   Ar  112   6.513   6.221   5.362
    1   AR   Ar  113   0.970   6.137  -1.556
    1   AR   Ar  114   2.611   0.255   0.001
    1   AR   Ar  115   0.558   5.513   0.389
    1   AR   Ar  116   4.569   0.373   0.549
    1   AR   Ar  117   0.288   4.710   3.719
    1   AR   Ar  118   1.984   5.678   3.438
    1   AR   Ar  119   1.036   4.265   3.176
    1   AR   Ar  120   2.147   6.717   2.539
    1   AR   Ar  121   4.956   4.338   6.045
    1   AR   Ar  122   2.954   5.550   3.811
    1   AR   Ar  123   3.190   2.785   5.484
    1   AR   Ar  124   0.853   5.809   1.536
    1   AR   Ar  125   5.672   3.733   3.948
    1   AR   Ar  126   6.691   0.677   7.702
    1   AR   Ar  127   5.029   3.140   6.039
    1   AR   Ar  128   1.541   3.883   6.598
    1   AR   Ar  129   2.108   5.506   4.468
    1   AR   Ar  130   4.028   1.117  -4.826
    1   AR   Ar  131   4.445   6.427  -1.734
    1   AR   Ar  132   0.842   2.147   0.974
    1   AR   Ar  133   4.005   0.401   4.498
    1   AR   Ar  134   3.005   1.497   4.090
    1   AR   Ar  135   5.765   1.116   4.518
    1   AR   Ar  136   5.763   0.024   2.808
    1   AR   Ar  137   2.838   4.099   6.242
    1   AR   Ar  138   5.548   1.016   5.599
    1   AR   Ar  139   6.279   2.007   4.912
    1   AR   Ar  140   4.514   6.655   4.955
    1   AR   Ar  141   3.919   5.508   4.542
    1   AR   Ar  142   4.785   6.470   7.776
    1   AR   Ar  143   5.265   6.658   6.783
    1   AR   Ar  144   0.272   1.858   5.222
    1   AR   Ar  145   4.418   5.131  -0.534
    1   AR   Ar  146   3.917   2.414   3.281
    1   AR   Ar  147   5.257   3.974  -0.277
    1   AR   Ar  148   2.696   5.974  -1.310
    1   AR   Ar  149   0.060   2.161  -0.492
    1   AR   Ar  150   1.918   2.534   2.863
    1   AR   Ar  151   2.743   3.402   3.168
    1   AR   Ar  152   0.689   0.913  -1.873
    1   AR   Ar  153   5.555   1.024   3.056
    1   AR   Ar  154   4.696   2.923   3.958
    1   AR   Ar  155   6.072   3.506   5.082
    1   AR   Ar  156   2.343   4.747   3.400
    1   AR   Ar  157   2.995   5.083   6.699
    1   AR   Ar  158   0.609   2.063   6.436
    1   AR   Ar  159   3.939   0.081   6.122
    1   AR   Ar  160   1.234   0.617   5.213
    1   AR   Ar  161   4.862   4.097   3.155
    1   AR   Ar  162   3.921   6.026  -0.343
    1   AR   Ar  163   6.203   4.333   2.148
    1   AR   Ar  164   2.111   5.704   2.232
    1   AR   Ar  165   3.457   4.295   1.240
    1   AR   Ar  166   2.602   3.708   5.110
    1   AR   Ar  167   6.525   7.001   3.685
    1   AR   Ar  168   5.536   4.443  -2.438
    1   AR   Ar  169   3.761   4.022   3.120
    1   AR   Ar  170   2.238   3.224   5.909
    1   AR   Ar  171   5.021   5.390   4.044
    1   AR   Ar  172   3.467   3.678   4.422
    1   AR   Ar  173   2.258   1.794   6.096
    1   AR   Ar  174   3.359   6.535   4.677
    1   AR   Ar  175   2.997   0.541   5.987
    1   AR   Ar  176   2.963   2.767   4.158
    1   AR   Ar  177   0.594   4.345  -1.003
    1   AR   Ar  178   2.879   6.214   0.125
    1   AR   Ar  179   3.483   6.868   0.888
    1   AR   Ar  180   4.923   0.473  -7.354
    1   AR   Ar  181   7.005   6.162   1.792
    1   AR   Ar  182   1.131   6.095   2.740
    1   AR   Ar  183   4.641   5.339   1.870
    1   AR   Ar  184   4.325   6.158   0.626
    1   AR   Ar  185   2.795   4.667   4.360
    1   AR   Ar  186   2.882   6.024   2.827
    1   AR   Ar  187   3.857   6.484   3.755
    1   AR   Ar  188   3.100   0.209   1.782
    1   AR   Ar  189   5.908   2.684   5.834
    1   AR   Ar  190   1.679   6.662   3.634
    1   AR   Ar  191   3.577   6.463   6.794
    1   AR   Ar  192   4.107   3.641   5.443
    1   AR   Ar  193   2.987   6.303   1.633
    1   AR   Ar  194   5.307   5.630  -1.202
    1   AR   Ar  195   5.495   0.949   0.761
    1   AR   Ar  196   3.521   0.620   0.354
    1   AR   Ar  197   4.668   2.998   0.491
    1   AR   Ar  198   5.806   6.819   1.145
    1   AR   Ar  199   1.231   0.146   2.935
    1   AR   Ar  200   6.137   2.499  -0.237
    1   AR   Ar  201   6.374   6.075   2.695
    1   AR   Ar  202   4.957   0.490   4.109
    1   AR   Ar  203   0.316   6.717   3.300
    1   AR   Ar  204   4.588   4.505   7.351
    1   AR   Ar  205   5.718   1.919   1.859
    1   AR   Ar  206   6.176   0.228   6.230
    1   AR   Ar  207   6.790   3.400   4.251
    1   AR   Ar  208   0.954   5.887   3.988
    1   AR   Ar  209   6.994   1.924  -1.866
    1   AR   Ar  210   1.276   0.610   0.479
    1   AR   Ar  211   0.233   3.272   0.403
    1   AR   Ar  212   6.347   3.790  -0.152
    1   AR   Ar  213   3.344   1.747   1.544
    1   AR   Ar  214   5.096   4.472   2.045
    1   AR   Ar  215   6.993   2.649   1.720
    1   AR   Ar  216   1.771   2.221   0.327
    1   AR   Ar  217   5.121   1.665   3.708
    1   AR   Ar  218   4.948   2.941   5.069
    1   AR   Ar  219   4.513   3.251   2.614
    1   AR   Ar  220   4.572   3.751   1.407
    1   AR   Ar  221   7.013   5.871   3.910
    1   AR   Ar  222   4.864   0.246   5.571
    1   AR   Ar  223   6.591   1.706   6.041
    1   AR   Ar  224   5.205   1.937   5.153
    1   AR   Ar  225   6.803   2.747   2.936
    1   AR   Ar  226   1.746   3.221   3.836
    1   AR   Ar  227   0.970   3.062   2.795
    1   AR   Ar  228   6.410   0.766   1.645
    1   AR   Ar  229   5.836   4.607  -1.115
    1   AR   Ar  230   3.934   4.678   3.921
    1   AR   Ar  231   4.979   2.073   2.795
    1   AR   Ar  232   5.134   2.892   1.761
    1   AR   Ar  233   6.573   2.262   3.899
    1   AR   Ar  234   5.651   2.624   4.367
    1   AR   Ar  235   6.434   0.960   3.575
    1   AR   Ar  236   4.231   4.651   5.030
    1   AR   Ar  237   4.720   0.530   6.872
    1   AR   Ar  238   5.683   5.430   6.324
    1   AR   Ar  239   1.122   4.506  11.537
    1   AR   Ar  240   1.791   2.795   6.754
    1   AR   Ar  241   1.641   6.821   0.070
    1   AR   Ar  242   5.681   5.830   1.382
    1   AR   Ar  243   5.060   6.351   2.505
    1   AR   Ar  244   6.608   6.391   0.611
    1   AR   Ar  245   4.201   1.249   3.661
    1   AR   Ar  246   5.504   6.596  -0.926
    1   AR   Ar  247   6.965   3.812   1.357
    1   AR   Ar  248   5.476   5.503  -0.121
    1   AR   Ar  249   4.101   6.887   1.796
    1   AR   Ar  250   4.946   6.592   3.943
    1   AR   Ar  251   5.072   3.995   4.946
    1   AR   Ar  252   2.579   4.566   1.904
    1   AR   Ar  253   5.639   2.219   7.614
    1   AR   Ar  254   5.781   3.216  10.617
    1   AR   Ar  255   4.222   6.356   8.967
    1   AR   Ar  256   6.053   6.120   3.652
    7.12000  7.12000 12.00000
Argon-slab step 5055
  256
    1   AR   Ar    1   5.048   3.499  -2.720
    1   AR   Ar    2   5.215   6.762   0.194
    1   AR   Ar    3   4.020   3.540  -1.134
    1   AR   Ar    4   2.703   1.196   0.957
    1   AR   Ar    5   6.773   5.025  -0.428
    1   AR   Ar    6   0.885   1.768   2.041
    1   AR   Ar    7   5.882   4.800   3.300
    1   AR   Ar    8   6.696   3.335  -1.423
    1   AR   Ar    9   7.040   6.645   4.684
    1   AR   Ar   10   5.821   4.746   5.074
    1   AR   Ar   11   1.186   6.190   5.059
    1   AR   Ar   12   0.403   1.612   4.140
    1   AR   Ar   13   6.625   0.802   4.889
    1   AR   Ar   14   3.806   1.121   6.802
    1   AR   Ar   15   2.531   6.703   9.693
    1   AR   Ar   16   0.821   0.254   6.181
    1   AR   Ar   17   5.938   3.741   1.213
    1   AR   Ar   18   0.073   4.993  -1.805
    1   AR   Ar   19   5.428   4.662   0.825
    1   AR   Ar   20   7.102   3.896  -2.340
    1   AR   Ar   21   2.391   1.503   2.062
    1   AR   Ar   22   5.447   0.880   2.080
    1   AR   Ar   23   0.748   6.486   0.580
    1   AR   Ar   24   5.771   2.488   3.213
    1   AR   Ar   25   0.998   2.696   4.637
    1   AR   Ar   26   5.877   6.848   4.608
    1   AR   Ar   27   1.841   0.545   2.091
    1   AR   Ar   28   1.797   1.724   4.226
    1   AR   Ar   29   5.140   1.264   7.677
    1   AR   Ar   30   0.418   0.911   3.049
    1   AR   Ar   31   2.341   0.921   6.826
    1   AR   Ar   32   1.175   2.095   5.468
    1   AR   Ar   33   0.273   4.306   0.242
    1   AR   Ar   34   1.220   4.957   2.200
    1   AR   Ar   35   5.534   5.478   2.541
    1   AR   Ar   36   5.415   2.433  -2.955
    1   AR   Ar   37   3.672   3.226   1.179
    1   AR   Ar   38   6.492   4.378   4.058
    1   AR   Ar   39   0.433   2.765   3.773
    1   AR   Ar   40   0.893   3.774   2.024
    1   AR   Ar   41   1.085   1.909   3.193
    1   AR   Ar   42   5.156   6.262   5.730
    1   AR   Ar   43   0.067   2.976   5.349
    1   AR   Ar   44   7.046   3.709   3.032
    1   AR   Ar   45   1.419   3.466   5.347
    1   AR   Ar   46   6.622   4.722   6.913
    1   AR   Ar   47   3.626   3.837   7.951
    1   AR   Ar   48   0.166   3.702   7.943
    1   AR   Ar   49   0.156   1.363   0.535
    1   AR   Ar   50   4.150   4.902   0.574
    1   AR   Ar   51   5.562   3.521   2.712
    1   AR   Ar   52   5.456   3.224  -1.102
    1   AR   Ar   53   4.325   0.080   3.077
    1   AR   Ar   54   0.284   0.063   2.369
    1   AR   Ar   55   7.003   5.053   2.322
    1   AR   Ar   56   6.316   1.749   2.800
    1   AR   Ar   57   3.848   4.519   2.244
    1   AR   Ar   58   0.711   3.850   4.274
    1   AR   Ar   59   2.926   5.401   5.656
    1   AR   Ar   60   0.389   5.601   2.959
    1   AR   Ar   61   0.382   3.465   6.560
    1   AR   Ar   62   0.090   4.419   4.979
    1   AR   Ar   63   3.219   2.439   7.222
    1   AR   Ar   64   0.040   5.575   4.927
    1   AR   Ar   65   3.931   0.974   2.202
    1   AR   Ar   66   1.596   1.390   1.329
    1   AR   Ar   67   4.257   0.135  -0.595
    1   AR   Ar   68   7.067   1.116  -0.916
    1   AR   Ar   69   2.524   1.302  -0.075
    1   AR   Ar   70   7.013   1.542   1.862
    1   AR   Ar   71   2.905   0.749   2.723
    1   AR   Ar   72   4.136   1.227   1.128
    1   AR   Ar   73   3.298   0.193   3.863
    1   AR   Ar   74   1.216   0.946   3.967
    1   AR   Ar   75   3.145   0.735   5.020
    1   AR   Ar   76   2.192   0.228   0.957
    1   AR   Ar   77   2.005   5.881   5.753
    1   AR   Ar   78   6.839   5.352   6.001
    1   AR   Ar   79   2.914   6.643   5.793
    1   AR   Ar   80   4.060   5.928   5.569
    1   AR   Ar   81   1.912   6.377   1.227
    1   AR   Ar   82   6.584   4.804   0.968
    1   AR   Ar   83   1.311   3.635   0.975
    1   AR   Ar   84   0.802   4.660   1.055
    1   AR   Ar   85   1.191   4.031  -0.117
    1   AR   Ar   86   1.876   5.146   1.302
    1   AR   Ar   87   3.440   2.982   2.459
    1   AR   Ar   88   3.511   5.442   1.254
    1   AR   Ar   89   6.324   2.132   0.994
    1   AR   Ar   90   3.417   1.542   5.708
    1   AR   Ar   91   1.965   1.326   2.964
    1   AR   Ar   92   2.066   2.553   1.731
    1   AR   Ar   93   2.213   1.270   5.319
    1   AR   Ar   94   1.210   6.921   8.430
    1   AR   Ar   95   4.396   1.050   5.300
    1   AR   Ar   96   2.179   0.107   4.893
    1   AR   Ar   97   2.621   2.484  -0.690
    1   AR   Ar   98   1.668   4.278   4.180
    1   AR   Ar   99   5.868   0.543  -0.360
    1   AR   Ar  100   6.558   2.789  -2.520
    1   AR   Ar  101   3.816   6.155   2.432
    1   AR   Ar  102   3.410   1.875   2.572
    1   AR   Ar  103   1.868   4.485   0.564
    1   AR   Ar  104   3.400   6.980  -1.377
    1   AR   Ar  105   2.758   2.146   3.258
    1   AR   Ar  106   3.997   2.449   4.932
    1   AR   Ar  107   1.173   5.094   5.362
    1   AR   Ar  108   2.323   0.726   4.026
    1   AR   Ar  109   2.207   4.694   5.583
    1   AR   Ar  110   2.351   2.245   4.860
    1   AR   Ar  111   3.762   5.718   8.233
    1   AR   Ar  112   6.493   6.230   5.372
    1   AR   Ar  113   0.973   6.133  -1.552
    1   AR   Ar  114   2.610   0.220  -0.003
    1   AR   Ar  115   0.513   5.516   0.413
    1   AR   Ar  116   4.584   0.394   0.584
    1   AR   Ar  117   0.269   4.723   3.719
    1   AR   Ar  118   2.038   5.707   3.456
    1   AR   Ar  119   0.997   4.256   3.211
    1   AR   Ar  120   2.173   6.745   2.500
    1   AR   Ar  121   4.933   4.352   6.045
    1   AR   Ar  122   2.956   5.571   3.811
    1   AR   Ar  123   3.210   2.831   5.478
    1   AR   Ar  124   0.842   5.816   1.533
    1   AR   Ar  125   5.669   3.739   3.962
    1   AR   Ar  126   6.706   0.692   7.675
    1   AR   Ar  127   4.999   3.124   6.055
    1   AR   Ar  128   1.521   3.856   6.585
    1   AR   Ar  129   2.108   5.514   4.459
    1   AR   Ar  130   4.018   1.093  -4.818
    1   AR   Ar  131   4.424   6.445  -1.725
    1   AR   Ar  132   0.867   2.143   0.955
    1   AR   Ar  133   4.003   0.379   4.483
    1   AR   Ar  134   2.986   1.515   4.100
    1   AR   Ar  135   5.754   1.114   4.551
    1   AR   Ar  136   5.774   7.104   2.804
    1   AR   Ar  137   2.823   4.083   6.241
    1   AR   Ar  138   5.541   1.007   5.594
    1   AR   Ar  139   6.249   1.993   4.910
    1   AR   Ar  140   4.527   6.649   4.953
    1   AR   Ar  141   3.927   5.513   4.564
    1   AR   Ar  142   4.797   6.480   7.779
    1   AR   Ar  143   5.250   6.657   6.793
    1   AR   Ar  144   0.256   1.851   5.236
    1   AR   Ar  145   4.411   5.100  -0.521
    1   AR   Ar  146   3.897   2.396   3.285
    1   AR   Ar  147   5.276   3.976  -0.282
    1   AR   Ar  148   2.726   5.974  -1.295
    1   AR   Ar  149   0.020   2.197  -0.508
    1   AR   Ar  150   1.922   2.522   2.883
    1   AR   Ar  151   2.719   3.398   3.194
    1   AR   Ar  152   0.669   0.901  -1.824
    1   AR   Ar  153   5.544   1.012   3.030
    1   AR   Ar  154   4.707   2.910   3.993
    1   AR   Ar  155   6.053   3.496   5.050
    1   AR   Ar  156   2.355   4.749   3.408
    1   AR   Ar  157   3.019   5.109   6.706
    1   AR   Ar  158   0.603   2.084   6.431
    1   AR   Ar  159   3.934   0.087   6.112
    1   AR   Ar  160   1.222   0.641   5.220
    1   AR   Ar  161   4.835   4.120   3.149
    1   AR   Ar  162   3.893   5.994  -0.345
    1   AR   Ar  163   6.215   4.337   2.179
    1   AR   Ar  164   2.093   5.732   2.234
    1   AR   Ar  165   3.467   4.304   1.247
    1   AR   Ar  166   2.636   3.707   5.104
    1   AR   Ar  167   6.503   7.012   3.710
    1   AR   Ar  168   5.543   4.452  -2.436
    1   AR   Ar  169   3.745   4.023   3.129
    1   AR   Ar  170   2.255   3.244   5.921
    1   AR   Ar  171   5.042   5.421   4.051
    1   AR   Ar  172   3.473   3.712   4.398
    1   AR   Ar  173   2.287   1.793   6.101
    1   AR   Ar  174   3.372   6.532   4.682
    1   AR   Ar  175   2.957   0.535   5.978
    1   AR   Ar  176   2.947   2.759   4.169
    1   AR   Ar  177   0.578   4.336  -0.972
    1   AR   Ar  178   2.893   6.222   0.116
    1   AR   Ar  179   3.475   6.846   0.909
    1   AR   Ar  180   4.924   0.479  -7.382
    1   AR   Ar  181   6.999   6.185   1.780
    1   AR   Ar  182   1.202   6.116   2.748
    1   AR   Ar  183   4.634   5.332   1.875
    1   AR   Ar  184   4.338   6.127   0.644
    1   AR   Ar  185   2.767   4.677   4.362
    1   AR   Ar  186   2.893   6.042   2.822
    1   AR   Ar  187   3.868   6.442   3.759
    1   AR   Ar  188   3.100   0.220   1.779
    1   AR   Ar  189   5.910   2.646   5.815
    1   AR   Ar  190   1.667   6.675   3.618
    1   AR   Ar  191   3.601   6.475   6.810
    1   AR   Ar  192   4.112   3.644   5.435
    1   AR   Ar  193   2.990   6.297   1.660
    1   AR   Ar  194   5.280   5.669  -1.229
    1   AR   Ar  195   5.544   0.967   0.778
    1   AR   Ar  196   3.543   0.647   0.371
    1   AR   Ar  197   4.665   3.011   0.492
    1   AR   Ar  198   5.817   6.823   1.144
    1   AR   Ar  199   1.230   0.121   2.919
    1   AR   Ar  200   6.171   2.494  -0.247
    1   AR   Ar  201   6.377   6.045   2.675
    1   AR   Ar  202   4.951   0.483   4.078
    1   AR   Ar  203   0.323   6.704   3.322
    1   AR   Ar  204   4.604   4.484   7.331
    1   AR   Ar  205   5.696   1.912   1.888
    1   AR   Ar  206   6.175   0.211   6.227
    1   AR   Ar  207   6.793   3.430   4.254
    1   AR   Ar  208   0.982   5.860   3.991
    1   AR   Ar  209   6.986   1.883  -1.864
    1   AR   Ar  210   1.294   0.623   0.497
    1   AR   Ar  211   0.236   3.286   0.388
    1   AR   Ar  212   6.348   3.786  -0.167
    1   AR   Ar  213   3.354   1.763   1.546
    1   AR   Ar  214   5.114   4.480   2.041
    1   AR   Ar  215   7.024   2.659   1.707
    1   AR   Ar  216   1.781   2.216   0.307
    1   AR   Ar  217   5.154   1.674   3.697
    1   AR   Ar  218   4.964   2.935   5.064
    1   AR   Ar  219   4.513   3.272   2.574
    1   AR   Ar  220   4.560   3.742   1.402
    1   AR   Ar  221   6.973   5.880   3.908
    1   AR   Ar  222   4.852   0.209   5.541
    1   AR   Ar  223   6.590   1.704   6.052
    1   AR   Ar  224   5.201   1.934   5.141
    1   AR   Ar  225   6.824   2.755   2.948
    1   AR   Ar  226   1.775   3.202   3.869
    1   AR   Ar  227   0.963   3.085   2.794
    1   AR   Ar  228   6.415   0.781   1.659
    1   AR   Ar  229   5.825   4.632  -1.110
    1   AR   Ar  230   3.920   4.662   3.919
    1   AR   Ar  231   4.990   2.016   2.788
    1   AR   Ar  232   5.088   2.878   1.767
    1   AR   Ar  233   6.568   2.225   3.881
    1   AR   Ar  234   5.642   2.643   4.373
    1   AR   Ar  235   6.427   0.978   3.577
    1   AR   Ar  236   4.216   4.639   5.031
    1   AR   Ar  237   4.715   0.505   6.908
    1   AR   Ar  238   5.664   5.395   6.345
    1   AR   Ar  239   1.150   4.498  11.519
    1   AR   Ar  240   1.816   2.821   6.766
    1   AR   Ar  241   1.637   6.844   0.085
    1   AR   Ar  242   5.676   5.830   1.377
    1   AR   Ar  243   5.046   6.365   2.487
    1   AR   Ar  244   6.632   6.399   0.567
    1   AR   Ar  245   4.209   1.286   3.662
    1   AR   Ar  246   5.523   6.609  -0.953
    1   AR   Ar  247   6.954   3.845   1.310
    1   AR   Ar  248   5.474   5.476  -0.110
    1   AR   Ar  249   4.114   6.910   1.810
    1   AR   Ar  250   4.940   6.570   3.969
    1   AR   Ar  251   5.064   4.009   4.932
    1   AR   Ar  252   2.573   4.584   1.889
    1   AR   Ar  253   5.633   2.192   7.577
    1   AR   Ar  254   5.755   3.218  10.658
    1   AR   Ar  255   4.212   6.339   8.987
    1   AR   Ar  256   6.034   6.107   3.630
    7.12000  7.12000 12.00000
Argon-slab step 5060
  256
    1   AR   Ar    1   5.046   3.537  -2.727
    1   AR   Ar    2   5.208   6.754   0.226
    1   AR   Ar    3   4.013   3.534  -1.133
    1   AR   Ar    4   2.715   1.206   0.956
    1   AR   Ar    5   6.809   5.020  -0.405
    1   AR   Ar    6   0.885   1.763   2.038
    1   AR   Ar    7   5.879   4.813   3.288
    1   AR   Ar    8   6.685   3.350  -1.372
    1   AR   Ar    9   7.051   6.649   4.699
    1   AR   Ar   10   5.832   4.773   5.075
    1   AR   Ar   11   1.188   6.184   5.059
    1   AR   Ar   12   0.427   1.627   4.145
    1   AR   Ar   13   6.620   0.765   4.856
    1   AR   Ar   14   3.799   1.125   6.798
    1   AR   Ar   15   2.511   6.679   9.691
    1   AR   Ar   16   0.825   0.237   6.191
    1   AR   Ar   17   5.957   3.759   1.200
    1   AR   Ar   18   0.075   5.000  -1.815
    1   AR   Ar   19   5.425   4.663   0.810
    1   AR   Ar   20   7.118   3.890  -2.355
    1   AR   Ar   21   2.390   1.513   2.058
    1   AR   Ar   22   5.466   0.868   2.057
    1   AR   Ar   23   0.771   6.485   0.581
    1   AR   Ar   24   5.799   2.501   3.226
    1   AR   Ar   25   1.009   2.719   4.619
    1   AR   Ar   26   5.867   6.825   4.594
    1   AR   Ar   27   1.797   0.525   2.070
    1   AR   Ar   28   1.798   1.721   4.212
    1   AR   Ar   29   5.150   1.254   7.679
    1   AR   Ar   30   0.411   0.922   3.082
    1   AR   Ar   31   2.347   0.890   6.825
    1   AR   Ar   32   1.218   2.090   5.469
    1   AR   Ar   33   0.245   4.321   0.243
    1   AR   Ar   34   1.228   4.947   2.221
    1   AR   Ar   35   5.516   5.479   2.531
    1   AR   Ar   36   5.391   2.443  -2.979
    1   AR   Ar   37   3.662   3.231   1.161
    1   AR   Ar   38   6.445   4.404   4.065
    1   AR   Ar   39   0.426   2.769   3.770
    1   AR   Ar   40   0.893   3.768   2.034
    1   AR   Ar   41   1.092   1.889   3.196
    1   AR   Ar   42   5.173   6.271   5.715
    1   AR   Ar   43   0.055   2.974   5.325
    1   AR   Ar   44   7.047   3.677   3.019
    1   AR   Ar   45   1.447   3.475   5.357
    1   AR   Ar   46   6.597   4.725   6.902
    1   AR   Ar   47   3.616   3.836   7.947
    1   AR   Ar   48   0.153   3.676   7.916
    1   AR   Ar   49   0.185   1.368   0.558
    1   AR   Ar   50   4.148   4.867   0.588
    1   AR   Ar   51   5.544   3.494   2.703
    1   AR   Ar   52   5.491   3.209  -1.102
    1   AR   Ar   53   4.313   0.084   3.073
    1   AR   Ar   54   0.241   0.045   2.370
    1   AR   Ar   55   7.010   5.063   2.324
    1   AR   Ar   56   6.332   1.766   2.791
    1   AR   Ar   57   3.841   4.514   2.240
    1   AR   Ar   58   0.761   3.852   4.274
    1   AR   Ar   59   2.930   5.370   5.648
    1   AR   Ar   60   0.359   5.590   2.949
    1   AR   Ar   61   0.367   3.447   6.536
    1   AR   Ar   62   0.090   4.417   4.939
    1   AR   Ar   63   3.224   2.438   7.238
    1   AR   Ar   64   0.067   5.574   4.911
    1   AR   Ar   65   3.943   0.989   2.202
    1   AR   Ar   66   1.607   1.402   1.330
    1   AR   Ar   67   4.252   0.112  -0.590
    1   AR   Ar   68   7.058   1.127  -0.894
    1   AR   Ar   69   2.538   1.296  -0.117
    1   AR   Ar   70   7.029   1.518   1.874
    1   AR   Ar   71   2.913   0.765   2.735
    1   AR   Ar   72   4.164   1.232   1.153
    1   AR   Ar   73   3.273   0.178   3.833
    1   AR   Ar   74   1.187   0.898   3.948
    1   AR   Ar   75   3.145   0.724   5.051
    1   AR   Ar   76   2.182   0.263   0.943
    1   AR   Ar   77   2.019   5.877   5.762
    1   AR   Ar   78   6.803   5.319   6.014
    1   AR   Ar   79   2.897   6.643   5.794
    1   AR   Ar   80   4.056   5.940   5.565
    1   AR   Ar   81   1.912   6.359   1.219
    1   AR   Ar   82   6.620   4.810   1.003
    1   AR   Ar   83   1.318   3.638   1.010
    1   AR   Ar   84   0.795   4.643   1.047
    1   AR   Ar   85   1.175   4.003  -0.123
    1   AR   Ar   86   1.871   5.150   1.330
    1   AR   Ar   87   3.423   2.922   2.459
    1   AR   Ar   88   3.512   5.437   1.230
    1   AR   Ar   89   6.328   2.143   0.988
    1   AR   Ar   90   3.408   1.519   5.710
    1   AR   Ar   91   1.924   1.329   2.975
    1   AR   Ar   92   2.054   2.563   1.730
    1   AR   Ar   93   2.217   1.214   5.341
    1   AR   Ar   94   1.184   6.919   8.419
    1   AR   Ar   95   4.417   1.037   5.275
    1   AR   Ar   96   2.212   0.097   4.900
    1   AR   Ar   97   2.626   2.465  -0.693
    1   AR   Ar   98   1.668   4.280   4.186
    1   AR   Ar   99   5.866   0.571  -0.342
    1   AR   Ar  100   6.555   2.798  -2.526
    1   AR   Ar  101   3.792   6.166   2.435
    1   AR   Ar  102   3.396   1.862   2.544
    1   AR   Ar  103   1.847   4.464   0.555
    1   AR   Ar  104   3.384   7.020  -1.370
    1   AR   Ar  105   2.775   2.166   3.256
    1   AR   Ar  106   4.014   2.470   4.901
    1   AR   Ar  107   1.173   5.079   5.369
    1   AR   Ar  108   2.324   0.711   4.015
    1   AR   Ar  109   2.208   4.717   5.560
    1   AR   Ar  110   2.338   2.245   4.869
    1   AR   Ar  111   3.767   5.713   8.229
    1   AR   Ar  112   6.470   6.230   5.403
    1   AR   Ar  113   0.976   6.129  -1.548
    1   AR   Ar  114   2.611   0.182  -0.010
    1   AR   Ar  115   0.465   5.510   0.436
    1   AR   Ar  116   4.597   0.414   0.621
    1   AR   Ar  117   0.254   4.743   3.723
    1   AR   Ar  118   2.080   5.743   3.463
    1   AR   Ar  119   0.965   4.241   3.241
    1   AR   Ar  120   2.199   6.775   2.462
    1   AR   Ar  121   4.922   4.392   6.032
    1   AR   Ar  122   2.973   5.594   3.814
    1   AR   Ar  123   3.254   2.838   5.457
    1   AR   Ar  124   0.834   5.818   1.535
    1   AR   Ar  125   5.663   3.741   3.975
    1   AR   Ar  126   6.720   0.708   7.647
    1   AR   Ar  127   4.966   3.112   6.078
    1   AR   Ar  128   1.500   3.829   6.569
    1   AR   Ar  129   2.104   5.522   4.458
    1   AR   Ar  130   4.008   1.068  -4.811
    1   AR   Ar  131   4.404   6.462  -1.714
    1   AR   Ar  132   0.891   2.139   0.938
    1   AR   Ar  133   4.014   0.359   4.480
    1   AR   Ar  134   2.970   1.536   4.112
    1   AR   Ar  135   5.732   1.116   4.577
    1   AR   Ar  136   5.787   7.063   2.801
    1   AR   Ar  137   2.810   4.068   6.241
    1   AR   Ar  138   5.537   0.999   5.591
    1   AR   Ar  139   6.262   1.984   4.913
    1   AR   Ar  140   4.535   6.629   4.941
    1   AR   Ar  141   3.933   5.524   4.582
    1   AR   Ar  142   4.807   6.491   7.784
    1   AR   Ar  143   5.235   6.656   6.801
    1   AR   Ar  144   0.225   1.842   5.245
    1   AR   Ar  145   4.408   5.067  -0.507
    1   AR   Ar  146   3.881   2.381   3.296
    1   AR   Ar  147   5.293   3.979  -0.287
    1   AR   Ar  148   2.757   5.976  -1.280
    1   AR   Ar  149   7.105   2.231  -0.525
    1   AR   Ar  150   1.918   2.515   2.900
    1   AR   Ar  151   2.695   3.393   3.221
    1   AR   Ar  152   0.649   0.890  -1.775
    1   AR   Ar  153   5.532   0.999   3.016
    1   AR   Ar  154   4.715   2.898   4.026
    1   AR   Ar  155   6.032   3.485   5.018
    1   AR   Ar  156   2.367   4.744   3.411
    1   AR   Ar  157   3.042   5.135   6.714
    1   AR   Ar  158   0.585   2.094   6.386
    1   AR   Ar  159   3.929   0.095   6.099
    1   AR   Ar  160   1.212   0.666   5.225
    1   AR   Ar  161   4.808   4.147   3.146
    1   AR   Ar  162   3.864   5.966  -0.347
    1   AR   Ar  163   6.226   4.340   2.209
    1   AR   Ar  164   2.072   5.756   2.233
    1   AR   Ar  165   3.476   4.313   1.253
    1   AR   Ar  166   2.670   3.710   5.092
    1   AR   Ar  167   6.483   7.027   3.736
    1   AR   Ar  168   5.547   4.454  -2.443
    1   AR   Ar  169   3.725   4.014   3.141
    1   AR   Ar  170   2.272   3.259   5.937
    1   AR   Ar  171   5.062   5.452   4.058
    1   AR   Ar  172   3.481   3.747   4.373
    1   AR   Ar  173   2.318   1.808   6.125
    1   AR   Ar  174   3.373   6.536   4.689
    1   AR   Ar  175   2.914   0.535   5.980
    1   AR   Ar  176   2.973   2.762   4.153
    1   AR   Ar  177   0.559   4.327  -0.941
    1   AR   Ar  178   2.907   6.231   0.109
    1   AR   Ar  179   3.469   6.822   0.926
    1   AR   Ar  180   4.925   0.485  -7.410
    1   AR   Ar  181   6.990   6.208   1.768
    1   AR   Ar  182   1.283   6.144   2.753
    1   AR   Ar  183   4.620   5.334   1.877
    1   AR   Ar  184   4.351   6.096   0.663
    1   AR   Ar  185   2.742   4.683   4.370
    1   AR   Ar  186   2.887   6.081   2.810
    1   AR   Ar  187   3.882   6.396   3.762
    1   AR   Ar  188   3.097   0.236   1.778
    1   AR   Ar  189   5.916   2.606   5.792
    1   AR   Ar  190   1.659   6.686   3.609
    1   AR   Ar  191   3.625   6.486   6.826
    1   AR   Ar  192   4.116   3.644   5.427
    1   AR   Ar  193   2.989   6.288   1.691
    1   AR   Ar  194   5.250   5.699  -1.257
    1   AR   Ar  195   5.593   0.985   0.796
    1   AR   Ar  196   3.564   0.677   0.387
    1   AR   Ar  197   4.661   3.026   0.494
    1   AR   Ar  198   5.827   6.834   1.144
    1   AR   Ar  199   1.226   0.101   2.898
    1   AR   Ar  200   6.202   2.493  -0.255
    1   AR   Ar  201   6.387   6.018   2.650
    1   AR   Ar  202   4.950   0.494   4.051
    1   AR   Ar  203   0.333   6.688   3.344
    1   AR   Ar  204   4.620   4.463   7.310
    1   AR   Ar  205   5.675   1.906   1.917
    1   AR   Ar  206   6.172   0.194   6.223
    1   AR   Ar  207   6.804   3.403   4.279
    1   AR   Ar  208   0.976   5.861   3.965
    1   AR   Ar  209   6.994   1.848  -1.853
    1   AR   Ar  210   1.311   0.641   0.516
    1   AR   Ar  211   0.238   3.294   0.375
    1   AR   Ar  212   6.351   3.782  -0.180
    1   AR   Ar  213   3.362   1.784   1.547
    1   AR   Ar  214   5.137   4.478   2.039
    1   AR   Ar  215   7.056   2.669   1.694
    1   AR   Ar  216   1.792   2.209   0.287
    1   AR   Ar  217   5.193   1.687   3.704
    1   AR   Ar  218   4.976   2.934   5.057
    1   AR   Ar  219   4.510   3.292   2.536
    1   AR   Ar  220   4.565   3.771   1.442
    1   AR   Ar  221   6.941   5.887   3.905
    1   AR   Ar  222   4.852   0.175   5.526
    1   AR   Ar  223   6.589   1.701   6.061
    1   AR   Ar  224   5.195   1.927   5.127
    1   AR   Ar  225   6.847   2.774   2.969
    1   AR   Ar  226   1.804   3.182   3.902
    1   AR   Ar  227   0.956   3.104   2.798
    1   AR   Ar  228   6.415   0.787   1.668
    1   AR   Ar  229   5.819   4.653  -1.104
    1   AR   Ar  230   3.905   4.647   3.921
    1   AR   Ar  231   4.988   1.968   2.768
    1   AR   Ar  232   5.044   2.863   1.773
    1   AR   Ar  233   6.564   2.186   3.865
    1   AR   Ar  234   5.640   2.662   4.373
    1   AR   Ar  235   6.435   0.981   3.578
    1   AR   Ar  236   4.200   4.626   5.033
    1   AR   Ar  237   4.709   0.479   6.944
    1   AR   Ar  238   5.644   5.360   6.365
    1   AR   Ar  239   1.169   4.488  11.499
    1   AR   Ar  240   1.840   2.844   6.780
    1   AR   Ar  241   1.636   6.865   0.099
    1   AR   Ar  242   5.670   5.825   1.373
    1   AR   Ar  243   5.027   6.384   2.469
    1   AR   Ar  244   6.658   6.405   0.523
    1   AR   Ar  245   4.211   1.320   3.663
    1   AR   Ar  246   5.543   6.629  -0.977
    1   AR   Ar  247   6.951   3.877   1.264
    1   AR   Ar  248   5.471   5.448  -0.099
    1   AR   Ar  249   4.131   6.937   1.821
    1   AR   Ar  250   4.937   6.543   3.993
    1   AR   Ar  251   5.049   4.035   4.911
    1   AR   Ar  252   2.572   4.600   1.872
    1   AR   Ar  253   5.629   2.166   7.539
    1   AR   Ar  254   5.729   3.219  10.699
    1   AR   Ar  255   4.217   6.331   9.005
    1   AR   Ar  256   6.000   6.090   3.611
    7.12000  7.12000 12.00000
Argon-slab step 5065
  256
    1   AR   Ar    1   5.057   3.594  -2.750
    1   AR   Ar    2   5.202   6.743   0.256
    1   AR   Ar    3   4.007   3.527  -1.131
    1   AR   Ar    4   2.724   1.214   0.957
    1   AR   Ar    5   6.844   5.015  -0.382
    1   AR   Ar    6   0.890   1.760   2.039
    1   AR   Ar    7   5.876   4.826   3.275
    1   AR   Ar    8   6.675   3.364  -1.321
    1   AR   Ar    9   7.034   6.639   4.704
    1   AR   Ar   10   5.845   4.800   5.076
    1   AR   Ar   11   1.190   6.177   5.057
    1   AR   Ar   12   0.450   1.645   4.150
    1   AR   Ar   13   6.624   0.725   4.825
    1   AR   Ar   14   3.791   1.127   6.791
    1   AR   Ar   15   2.490   6.655   9.690
    1   AR   Ar   16   0.830   0.216   6.209
    1   AR   Ar   17   5.967   3.777   1.189
    1   AR   Ar   18   0.077   5.006  -1.824
    1   AR   Ar   19   5.421   4.664   0.796
    1   AR   Ar   20   0.014   3.884  -2.368
    1   AR   Ar   21   2.392   1.523   2.052
    1   AR   Ar   22   5.477   0.852   2.020
    1   AR   Ar   23   0.793   6.487   0.585
    1   AR   Ar   24   5.820   2.523   3.242
    1   AR   Ar   25   1.023   2.742   4.604
    1   AR   Ar   26   5.855   6.801   4.581
    1   AR   Ar   27   1.752   0.511   2.045
    1   AR   Ar   28   1.797   1.716   4.191
    1   AR   Ar   29   5.159   1.240   7.682
    1   AR   Ar   30   0.405   0.933   3.116
    1   AR   Ar   31   2.352   0.860   6.825
    1   AR   Ar   32   1.268   2.084   5.471
    1   AR   Ar   33   0.210   4.339   0.241
    1   AR   Ar   34   1.235   4.938   2.242
    1   AR   Ar   35   5.506   5.475   2.518
    1   AR   Ar   36   5.368   2.454  -3.003
    1   AR   Ar   37   3.653   3.234   1.143
    1   AR   Ar   38   6.401   4.432   4.077
    1   AR   Ar   39   0.419   2.773   3.765
    1   AR   Ar   40   0.891   3.769   2.038
    1   AR   Ar   41   1.092   1.870   3.202
    1   AR   Ar   42   5.191   6.295   5.727
    1   AR   Ar   43   0.045   2.972   5.305
    1   AR   Ar   44   7.056   3.679   3.009
    1   AR   Ar   45   1.472   3.486   5.363
    1   AR   Ar   46   6.571   4.728   6.892
    1   AR   Ar   47   3.607   3.836   7.943
    1   AR   Ar   48   0.140   3.649   7.888
    1   AR   Ar   49   0.213   1.372   0.582
    1   AR   Ar   50   4.150   4.832   0.601
    1   AR   Ar   51   5.529   3.468   2.693
    1   AR   Ar   52   5.522   3.199  -1.088
    1   AR   Ar   53   4.300   0.088   3.070
    1   AR   Ar   54   0.197   0.028   2.369
    1   AR   Ar   55   7.006   5.061   2.308
    1   AR   Ar   56   6.353   1.778   2.778
    1   AR   Ar   57   3.834   4.500   2.229
    1   AR   Ar   58   0.794   3.847   4.271
    1   AR   Ar   59   2.948   5.348   5.639
    1   AR   Ar   60   0.339   5.594   2.956
    1   AR   Ar   61   0.354   3.429   6.512
    1   AR   Ar   62   0.090   4.415   4.898
    1   AR   Ar   63   3.228   2.436   7.253
    1   AR   Ar   64   0.096   5.570   4.896
    1   AR   Ar   65   3.956   1.001   2.203
    1   AR   Ar   66   1.620   1.413   1.329
    1   AR   Ar   67   4.248   0.088  -0.584
    1   AR   Ar   68   7.056   1.126  -0.895
    1   AR   Ar   69   2.527   1.290  -0.119
    1   AR   Ar   70   7.047   1.504   1.888
    1   AR   Ar   71   2.921   0.782   2.748
    1   AR   Ar   72   4.193   1.237   1.177
    1   AR   Ar   73   3.240   0.162   3.797
    1   AR   Ar   74   1.159   0.846   3.926
    1   AR   Ar   75   3.148   0.713   5.065
    1   AR   Ar   76   2.174   0.297   0.936
    1   AR   Ar   77   2.031   5.872   5.770
    1   AR   Ar   78   6.783   5.321   6.022
    1   AR   Ar   79   2.890   6.663   5.811
    1   AR   Ar   80   4.049   5.951   5.565
    1   AR   Ar   81   1.912   6.339   1.212
    1   AR   Ar   82   6.655   4.822   1.036
    1   AR   Ar   83   1.324   3.639   1.045
    1   AR   Ar   84   0.790   4.628   1.044
    1   AR   Ar   85   1.160   3.971  -0.130
    1   AR   Ar   86   1.867   5.175   1.353
    1   AR   Ar   87   3.406   2.865   2.459
    1   AR   Ar   88   3.519   5.417   1.238
    1   AR   Ar   89   6.333   2.152   0.983
    1   AR   Ar   90   3.400   1.498   5.714
    1   AR   Ar   91   1.887   1.328   2.989
    1   AR   Ar   92   2.042   2.571   1.728
    1   AR   Ar   93   2.219   1.150   5.352
    1   AR   Ar   94   1.157   6.916   8.409
    1   AR   Ar   95   4.434   1.032   5.247
    1   AR   Ar   96   2.245   0.085   4.910
    1   AR   Ar   97   2.631   2.446  -0.695
    1   AR   Ar   98   1.676   4.287   4.191
    1   AR   Ar   99   5.863   0.598  -0.323
    1   AR   Ar  100   6.551   2.807  -2.531
    1   AR   Ar  101   3.780   6.176   2.436
    1   AR   Ar  102   3.385   1.841   2.516
    1   AR   Ar  103   1.827   4.443   0.544
    1   AR   Ar  104   3.359   7.037  -1.347
    1   AR   Ar  105   2.793   2.185   3.264
    1   AR   Ar  106   4.035   2.488   4.865
    1   AR   Ar  107   1.173   5.065   5.375
    1   AR   Ar  108   2.323   0.696   4.003
    1   AR   Ar  109   2.199   4.731   5.534
    1   AR   Ar  110   2.330   2.249   4.886
    1   AR   Ar  111   3.772   5.707   8.222
    1   AR   Ar  112   6.439   6.227   5.442
    1   AR   Ar  113   0.978   6.125  -1.544
    1   AR   Ar  114   2.615   0.146  -0.018
    1   AR   Ar  115   0.414   5.499   0.459
    1   AR   Ar  116   4.611   0.433   0.657
    1   AR   Ar  117   0.273   4.757   3.760
    1   AR   Ar  118   2.105   5.783   3.457
    1   AR   Ar  119   0.940   4.220   3.265
    1   AR   Ar  120   2.224   6.808   2.425
    1   AR   Ar  121   4.911   4.432   6.017
    1   AR   Ar  122   2.982   5.616   3.812
    1   AR   Ar  123   3.299   2.837   5.434
    1   AR   Ar  124   0.824   5.806   1.558
    1   AR   Ar  125   5.652   3.740   3.987
    1   AR   Ar  126   6.733   0.723   7.618
    1   AR   Ar  127   4.952   3.106   6.080
    1   AR   Ar  128   1.480   3.804   6.551
    1   AR   Ar  129   2.096   5.530   4.465
    1   AR   Ar  130   3.998   1.043  -4.804
    1   AR   Ar  131   4.383   6.480  -1.700
    1   AR   Ar  132   0.914   2.137   0.922
    1   AR   Ar  133   4.028   0.339   4.485
    1   AR   Ar  134   2.956   1.558   4.127
    1   AR   Ar  135   5.701   1.120   4.592
    1   AR   Ar  136   5.801   7.023   2.799
    1   AR   Ar  137   2.801   4.058   6.241
    1   AR   Ar  138   5.535   0.990   5.592
    1   AR   Ar  139   6.304   1.979   4.918
    1   AR   Ar  140   4.533   6.595   4.913
    1   AR   Ar  141   3.937   5.541   4.597
    1   AR   Ar  142   4.816   6.501   7.790
    1   AR   Ar  143   5.221   6.654   6.806
    1   AR   Ar  144   0.191   1.832   5.253
    1   AR   Ar  145   4.409   5.032  -0.493
    1   AR   Ar  146   3.869   2.370   3.312
    1   AR   Ar  147   5.309   3.984  -0.292
    1   AR   Ar  148   2.789   5.978  -1.263
    1   AR   Ar  149   7.083   2.262  -0.545
    1   AR   Ar  150   1.907   2.512   2.912
    1   AR   Ar  151   2.671   3.387   3.250
    1   AR   Ar  152   0.627   0.880  -1.725
    1   AR   Ar  153   5.519   0.986   3.014
    1   AR   Ar  154   4.717   2.887   4.054
    1   AR   Ar  155   6.010   3.474   4.987
    1   AR   Ar  156   2.378   4.735   3.410
    1   AR   Ar  157   3.066   5.161   6.721
    1   AR   Ar  158   0.566   2.105   6.339
    1   AR   Ar  159   3.925   0.104   6.084
    1   AR   Ar  160   1.202   0.693   5.229
    1   AR   Ar  161   4.781   4.178   3.145
    1   AR   Ar  162   3.835   5.941  -0.350
    1   AR   Ar  163   6.236   4.341   2.239
    1   AR   Ar  164   2.053   5.773   2.225
    1   AR   Ar  165   3.486   4.322   1.258
    1   AR   Ar  166   2.705   3.717   5.077
    1   AR   Ar  167   6.464   7.043   3.762
    1   AR   Ar  168   5.546   4.444  -2.464
    1   AR   Ar  169   3.702   3.998   3.151
    1   AR   Ar  170   2.290   3.267   5.953
    1   AR   Ar  171   5.082   5.481   4.065
    1   AR   Ar  172   3.491   3.781   4.348
    1   AR   Ar  173   2.351   1.830   6.157
    1   AR   Ar  174   3.397   6.533   4.671
    1   AR   Ar  175   2.869   0.537   5.993
    1   AR   Ar  176   3.001   2.766   4.138
    1   AR   Ar  177   0.537   4.320  -0.910
    1   AR   Ar  178   2.920   6.241   0.103
    1   AR   Ar  179   3.464   6.799   0.938
    1   AR   Ar  180   4.926   0.491  -7.438
    1   AR   Ar  181   6.980   6.233   1.756
    1   AR   Ar  182   1.295   6.103   2.744
    1   AR   Ar  183   4.601   5.344   1.877
    1   AR   Ar  184   4.364   6.065   0.683
    1   AR   Ar  185   2.722   4.683   4.383
    1   AR   Ar  186   2.876   6.118   2.805
    1   AR   Ar  187   3.896   6.348   3.762
    1   AR   Ar  188   3.092   0.255   1.778
    1   AR   Ar  189   5.925   2.563   5.771
    1   AR   Ar  190   1.654   6.696   3.609
    1   AR   Ar  191   3.648   6.496   6.842
    1   AR   Ar  192   4.118   3.615   5.423
    1   AR   Ar  193   2.984   6.277   1.725
    1   AR   Ar  194   5.217   5.723  -1.286
    1   AR   Ar  195   5.643   1.002   0.816
    1   AR   Ar  196   3.583   0.707   0.403
    1   AR   Ar  197   4.658   3.042   0.497
    1   AR   Ar  198   5.838   6.850   1.144
    1   AR   Ar  199   1.220   0.098   2.893
    1   AR   Ar  200   6.219   2.496  -0.259
    1   AR   Ar  201   6.403   5.994   2.624
    1   AR   Ar  202   4.952   0.508   4.022
    1   AR   Ar  203   0.345   6.670   3.368
    1   AR   Ar  204   4.636   4.442   7.289
    1   AR   Ar  205   5.655   1.901   1.946
    1   AR   Ar  206   6.168   0.177   6.218
    1   AR   Ar  207   6.816   3.373   4.303
    1   AR   Ar  208   0.961   5.867   3.931
    1   AR   Ar  209   7.022   1.844  -1.846
    1   AR   Ar  210   1.322   0.664   0.536
    1   AR   Ar  211   0.240   3.299   0.361
    1   AR   Ar  212   6.317   3.785  -0.174
    1   AR   Ar  213   3.370   1.806   1.543
    1   AR   Ar  214   5.164   4.469   2.040
    1   AR   Ar  215   7.088   2.678   1.683
    1   AR   Ar  216   1.804   2.202   0.268
    1   AR   Ar  217   5.237   1.701   3.725
    1   AR   Ar  218   4.983   2.942   5.055
    1   AR   Ar  219   4.501   3.314   2.501
    1   AR   Ar  220   4.571   3.803   1.481
    1   AR   Ar  221   6.915   5.891   3.902
    1   AR   Ar  222   4.864   0.150   5.528
    1   AR   Ar  223   6.588   1.700   6.068
    1   AR   Ar  224   5.187   1.915   5.116
    1   AR   Ar  225   6.861   2.761   2.985
    1   AR   Ar  226   1.832   3.161   3.934
    1   AR   Ar  227   0.948   3.118   2.809
    1   AR   Ar  228   6.410   0.782   1.673
    1   AR   Ar  229   5.832   4.664  -1.098
    1   AR   Ar  230   3.892   4.637   3.927
    1   AR   Ar  231   4.955   1.962   2.737
    1   AR   Ar  232   5.005   2.844   1.776
    1   AR   Ar  233   6.563   2.146   3.851
    1   AR   Ar  234   5.651   2.676   4.366
    1   AR   Ar  235   6.445   0.987   3.581
    1   AR   Ar  236   4.190   4.637   5.048
    1   AR   Ar  237   4.702   0.453   6.978
    1   AR   Ar  238   5.626   5.325   6.384
    1   AR   Ar  239   1.156   4.471  11.473
    1   AR   Ar  240   1.873   2.869   6.778
    1   AR   Ar  241   1.637   6.881   0.112
    1   AR   Ar  242   5.663   5.814   1.371
    1   AR   Ar  243   5.003   6.407   2.449
    1   AR   Ar  244   6.685   6.410   0.480
    1   AR   Ar  245   4.209   1.352   3.664
    1   AR   Ar  246   5.563   6.657  -0.996
    1   AR   Ar  247   6.960   3.906   1.221
    1   AR   Ar  248   5.467   5.420  -0.089
    1   AR   Ar  249   4.149   6.968   1.830
    1   AR   Ar  250   4.936   6.515   4.011
    1   AR   Ar  251   5.037   4.058   4.889
    1   AR   Ar  252   2.575   4.616   1.856
    1   AR   Ar  253   5.626   2.144   7.500
    1   AR   Ar  254   5.703   3.221  10.740
    1   AR   Ar  255   4.223   6.324   9.022
    1   AR   Ar  256   5.954   6.074   3.594
    7.12000  7.12000 12.00000
Argon-slab step 5070
  256
    1   AR   Ar    1   5.065   3.644  -2.775
    1   AR   Ar    2   5.197   6.731   0.284
    1   AR   Ar    3   4.001   3.521  -1.129
    1   AR   Ar    4   2.733   1.222   0.957
    1   AR   Ar    5   6.877   5.012  -0.361
    1   AR   Ar    6   0.897   1.749   2.045
    1   AR   Ar    7   5.870   4.839   3.259
    1   AR   Ar    8   6.663   3.379  -1.269
    1   AR   Ar    9   7.021   6.621   4.688
    1   AR   Ar   10   5.859   4.827   5.077
    1   AR   Ar   11   1.191   6.169   5.054
    1   AR   Ar   12   0.461   1.648   4.142
    1   AR   Ar   13   6.632   0.682   4.794
    1   AR   Ar   14   3.783   1.129   6.783
    1   AR   Ar   15   2.470   6.630   9.689
    1   AR   Ar   16   0.835   0.196   6.226
    1   AR   Ar   17   5.968   3.794   1.177
    1   AR   Ar   18   0.080   5.011  -1.832
    1   AR   Ar   19   5.417   4.666   0.782
    1   AR   Ar   20   0.028   3.878  -2.380
    1   AR   Ar   21   2.396   1.533   2.047
    1   AR   Ar   22   5.478   0.833   1.978
    1   AR   Ar   23   0.813   6.491   0.593
    1   AR   Ar   24   5.833   2.551   3.258
    1   AR   Ar   25   1.039   2.765   4.592
    1   AR   Ar   26   5.842   6.777   4.571
    1   AR   Ar   27   1.707   0.504   2.017
    1   AR   Ar   28   1.792   1.708   4.166
    1   AR   Ar   29   5.165   1.221   7.684
    1   AR   Ar   30   0.399   0.944   3.149
    1   AR   Ar   31   2.356   0.833   6.828
    1   AR   Ar   32   1.320   2.079   5.472
    1   AR   Ar   33   0.173   4.358   0.238
    1   AR   Ar   34   1.241   4.930   2.263
    1   AR   Ar   35   5.494   5.467   2.503
    1   AR   Ar   36   5.346   2.466  -3.026
    1   AR   Ar   37   3.645   3.236   1.126
    1   AR   Ar   38   6.363   4.461   4.094
    1   AR   Ar   39   0.413   2.777   3.759
    1   AR   Ar   40   0.890   3.769   2.038
    1   AR   Ar   41   1.081   1.858   3.212
    1   AR   Ar   42   5.210   6.314   5.739
    1   AR   Ar   43   0.042   2.968   5.289
    1   AR   Ar   44   7.071   3.708   3.001
    1   AR   Ar   45   1.493   3.498   5.366
    1   AR   Ar   46   6.544   4.730   6.882
    1   AR   Ar   47   3.598   3.836   7.938
    1   AR   Ar   48   0.127   3.623   7.860
    1   AR   Ar   49   0.240   1.377   0.606
    1   AR   Ar   50   4.156   4.798   0.612
    1   AR   Ar   51   5.518   3.442   2.683
    1   AR   Ar   52   5.555   3.190  -1.073
    1   AR   Ar   53   4.287   0.092   3.067
    1   AR   Ar   54   0.153   0.011   2.369
    1   AR   Ar   55   6.995   5.050   2.278
    1   AR   Ar   56   6.376   1.784   2.764
    1   AR   Ar   57   3.831   4.488   2.219
    1   AR   Ar   58   0.776   3.824   4.257
    1   AR   Ar   59   2.981   5.334   5.629
    1   AR   Ar   60   0.330   5.609   2.978
    1   AR   Ar   61   0.344   3.415   6.490
    1   AR   Ar   62   0.088   4.414   4.856
    1   AR   Ar   63   3.231   2.434   7.267
    1   AR   Ar   64   0.127   5.564   4.882
    1   AR   Ar   65   3.968   1.010   2.206
    1   AR   Ar   66   1.634   1.421   1.326
    1   AR   Ar   67   4.243   0.062  -0.577
    1   AR   Ar   68   7.068   1.156  -0.891
    1   AR   Ar   69   2.516   1.283  -0.120
    1   AR   Ar   70   7.064   1.498   1.903
    1   AR   Ar   71   2.929   0.799   2.761
    1   AR   Ar   72   4.224   1.243   1.202
    1   AR   Ar   73   3.236   0.160   3.808
    1   AR   Ar   74   1.134   0.792   3.902
    1   AR   Ar   75   3.156   0.700   5.064
    1   AR   Ar   76   2.173   0.327   0.936
    1   AR   Ar   77   2.041   5.869   5.776
    1   AR   Ar   78   6.775   5.346   6.025
    1   AR   Ar   79   2.884   6.675   5.824
    1   AR   Ar   80   4.040   5.962   5.570
    1   AR   Ar   81   1.911   6.319   1.207
    1   AR   Ar   82   6.686   4.846   1.067
    1   AR   Ar   83   1.327   3.639   1.079
    1   AR   Ar   84   0.789   4.614   1.047
    1   AR   Ar   85   1.145   3.937  -0.134
    1   AR   Ar   86   1.862   5.214   1.370
    1   AR   Ar   87   3.388   2.814   2.459
    1   AR   Ar   88   3.525   5.399   1.247
    1   AR   Ar   89   6.338   2.160   0.979
    1   AR   Ar   90   3.391   1.479   5.719
    1   AR   Ar   91   1.859   1.319   3.003
    1   AR   Ar   92   2.030   2.578   1.728
    1   AR   Ar   93   2.219   1.088   5.359
    1   AR   Ar   94   1.138   6.935   8.418
    1   AR   Ar   95   4.447   1.033   5.218
    1   AR   Ar   96   2.271   0.079   4.901
    1   AR   Ar   97   2.635   2.426  -0.695
    1   AR   Ar   98   1.694   4.299   4.196
    1   AR   Ar   99   5.860   0.625  -0.302
    1   AR   Ar  100   6.547   2.817  -2.535
    1   AR   Ar  101   3.783   6.184   2.434
    1   AR   Ar  102   3.376   1.812   2.498
    1   AR   Ar  103   1.815   4.440   0.544
    1   AR   Ar  104   3.335   7.053  -1.321
    1   AR   Ar  105   2.812   2.204   3.277
    1   AR   Ar  106   4.062   2.501   4.821
    1   AR   Ar  107   1.172   5.052   5.378
    1   AR   Ar  108   2.318   0.681   3.991
    1   AR   Ar  109   2.181   4.734   5.506
    1   AR   Ar  110   2.325   2.257   4.908
    1   AR   Ar  111   3.777   5.701   8.215
    1   AR   Ar  112   6.404   6.222   5.484
    1   AR   Ar  113   0.981   6.120  -1.540
    1   AR   Ar  114   2.623   0.121  -0.017
    1   AR   Ar  115   0.361   5.485   0.483
    1   AR   Ar  116   4.627   0.449   0.693
    1   AR   Ar  117   0.259   4.771   3.784
    1   AR   Ar  118   2.111   5.824   3.440
    1   AR   Ar  119   0.923   4.193   3.281
    1   AR   Ar  120   2.248   6.842   2.389
    1   AR   Ar  121   4.900   4.470   6.000
    1   AR   Ar  122   3.009   5.634   3.817
    1   AR   Ar  123   3.335   2.840   5.417
    1   AR   Ar  124   0.817   5.791   1.582
    1   AR   Ar  125   5.636   3.734   3.997
    1   AR   Ar  126   6.747   0.739   7.589
    1   AR   Ar  127   4.951   3.104   6.069
    1   AR   Ar  128   1.458   3.782   6.530
    1   AR   Ar  129   2.084   5.539   4.479
    1   AR   Ar  130   3.988   1.018  -4.797
    1   AR   Ar  131   4.373   6.492  -1.706
    1   AR   Ar  132   0.936   2.137   0.908
    1   AR   Ar  133   4.041   0.320   4.492
    1   AR   Ar  134   2.944   1.581   4.143
    1   AR   Ar  135   5.666   1.125   4.599
    1   AR   Ar  136   5.818   6.983   2.799
    1   AR   Ar  137   2.797   4.060   6.243
    1   AR   Ar  138   5.534   0.982   5.599
    1   AR   Ar  139   6.346   1.973   4.923
    1   AR   Ar  140   4.521   6.552   4.880
    1   AR   Ar  141   3.940   5.562   4.606
    1   AR   Ar  142   4.823   6.512   7.797
    1   AR   Ar  143   5.209   6.652   6.807
    1   AR   Ar  144   0.160   1.822   5.260
    1   AR   Ar  145   4.412   4.996  -0.479
    1   AR   Ar  146   3.860   2.359   3.331
    1   AR   Ar  147   5.320   3.991  -0.296
    1   AR   Ar  148   2.822   5.981  -1.245
    1   AR   Ar  149   7.085   2.285  -0.574
    1   AR   Ar  150   1.890   2.512   2.921
    1   AR   Ar  151   2.648   3.381   3.277
    1   AR   Ar  152   0.605   0.870  -1.676
    1   AR   Ar  153   5.507   0.972   3.018
    1   AR   Ar  154   4.710   2.877   4.073
    1   AR   Ar  155   5.980   3.478   4.974
    1   AR   Ar  156   2.389   4.724   3.404
    1   AR   Ar  157   3.090   5.186   6.727
    1   AR   Ar  158   0.547   2.117   6.291
    1   AR   Ar  159   3.921   0.115   6.068
    1   AR   Ar  160   1.193   0.720   5.231
    1   AR   Ar  161   4.756   4.209   3.143
    1   AR   Ar  162   3.808   5.917  -0.353
    1   AR   Ar  163   6.244   4.340   2.268
    1   AR   Ar  164   2.044   5.783   2.210
    1   AR   Ar  165   3.494   4.329   1.262
    1   AR   Ar  166   2.738   3.725   5.062
    1   AR   Ar  167   6.448   7.059   3.785
    1   AR   Ar  168   5.549   4.439  -2.482
    1   AR   Ar  169   3.676   3.975   3.160
    1   AR   Ar  170   2.309   3.266   5.962
    1   AR   Ar  171   5.102   5.506   4.072
    1   AR   Ar  172   3.500   3.811   4.324
    1   AR   Ar  173   2.385   1.855   6.191
    1   AR   Ar  174   3.353   6.516   4.639
    1   AR   Ar  175   2.823   0.543   6.016
    1   AR   Ar  176   3.029   2.771   4.125
    1   AR   Ar  177   0.511   4.314  -0.881
    1   AR   Ar  178   2.931   6.250   0.100
    1   AR   Ar  179   3.461   6.777   0.946
    1   AR   Ar  180   4.927   0.497  -7.466
    1   AR   Ar  181   6.969   6.257   1.742
    1   AR   Ar  182   1.296   6.067   2.742
    1   AR   Ar  183   4.580   5.357   1.876
    1   AR   Ar  184   4.376   6.033   0.704
    1   AR   Ar  185   2.706   4.681   4.403
    1   AR   Ar  186   2.859   6.152   2.809
    1   AR   Ar  187   3.911   6.300   3.760
    1   AR   Ar  188   3.085   0.278   1.778
    1   AR   Ar  189   5.936   2.520   5.752
    1   AR   Ar  190   1.653   6.706   3.619
    1   AR   Ar  191   3.671   6.505   6.857
    1   AR   Ar  192   4.121   3.568   5.422
    1   AR   Ar  193   2.975   6.264   1.758
    1   AR   Ar  194   5.182   5.742  -1.314
    1   AR   Ar  195   5.693   1.019   0.837
    1   AR   Ar  196   3.599   0.736   0.419
    1   AR   Ar  197   4.654   3.059   0.503
    1   AR   Ar  198   5.849   6.869   1.144
    1   AR   Ar  199   1.209   0.108   2.898
    1   AR   Ar  200   6.212   2.508  -0.254
    1   AR   Ar  201   6.423   5.971   2.600
    1   AR   Ar  202   4.944   0.477   4.038
    1   AR   Ar  203   0.359   6.653   3.391
    1   AR   Ar  204   4.643   4.428   7.271
    1   AR   Ar  205   5.638   1.898   1.971
    1   AR   Ar  206   6.162   0.160   6.211
    1   AR   Ar  207   6.829   3.345   4.325
    1   AR   Ar  208   0.946   5.873   3.896
    1   AR   Ar  209   7.050   1.840  -1.838
    1   AR   Ar  210   1.336   0.689   0.546
    1   AR   Ar  211   0.243   3.300   0.349
    1   AR   Ar  212   6.297   3.818  -0.177
    1   AR   Ar  213   3.377   1.831   1.528
    1   AR   Ar  214   5.195   4.459   2.044
    1   AR   Ar  215   0.001   2.688   1.671
    1   AR   Ar  216   1.841   2.170   0.234
    1   AR   Ar  217   5.284   1.718   3.753
    1   AR   Ar  218   4.986   2.956   5.061
    1   AR   Ar  219   4.482   3.340   2.472
    1   AR   Ar  220   4.573   3.835   1.518
    1   AR   Ar  221   6.894   5.894   3.900
    1   AR   Ar  222   4.884   0.132   5.540
    1   AR   Ar  223   6.585   1.698   6.074
    1   AR   Ar  224   5.173   1.894   5.114
    1   AR   Ar  225   6.869   2.722   2.996
    1   AR   Ar  226   1.859   3.139   3.967
    1   AR   Ar  227   0.939   3.126   2.828
    1   AR   Ar  228   6.406   0.768   1.672
    1   AR   Ar  229   5.844   4.675  -1.091
    1   AR   Ar  230   3.882   4.636   3.935
    1   AR   Ar  231   4.920   1.956   2.706
    1   AR   Ar  232   4.972   2.820   1.773
    1   AR   Ar  233   6.566   2.103   3.840
    1   AR   Ar  234   5.676   2.684   4.352
    1   AR   Ar  235   6.456   0.995   3.587
    1   AR   Ar  236   4.178   4.654   5.068
    1   AR   Ar  237   4.694   0.428   7.011
    1   AR   Ar  238   5.608   5.289   6.401
    1   AR   Ar  239   1.143   4.454  11.447
    1   AR   Ar  240   1.910   2.891   6.770
    1   AR   Ar  241   1.642   6.894   0.123
    1   AR   Ar  242   5.655   5.801   1.370
    1   AR   Ar  243   4.976   6.430   2.428
    1   AR   Ar  244   6.713   6.414   0.439
    1   AR   Ar  245   4.206   1.383   3.664
    1   AR   Ar  246   5.584   6.689  -1.013
    1   AR   Ar  247   6.983   3.924   1.181
    1   AR   Ar  248   5.463   5.392  -0.079
    1   AR   Ar  249   4.168   7.002   1.838
    1   AR   Ar  250   4.941   6.491   4.018
    1   AR   Ar  251   5.028   4.077   4.866
    1   AR   Ar  252   2.580   4.630   1.844
    1   AR   Ar  253   5.626   2.126   7.460
    1   AR   Ar  254   5.677   3.223  10.781
    1   AR   Ar  255   4.232   6.313   9.036
    1   AR   Ar  256   5.900   6.059   3.576
    7.12000  7.12000 12.00000
Argon-slab step 5075
  256
    1   AR   Ar    1   5.066   3.681  -2.804
    1   AR   Ar    2   5.191   6.717   0.309
    1   AR   Ar    3   3.996   3.515  -1.126
    1   AR   Ar    4   2.740   1.229   0.958
    1   AR   Ar    5   6.903   5.017  -0.349
    1   AR   Ar    6   0.903   1.725   2.056
    1   AR   Ar    7   5.863   4.851   3.242
    1   AR   Ar    8   6.652   3.394  -1.217
    1   AR   Ar    9   6.994   6.621   4.682
    1   AR   Ar   10   5.873   4.853   5.077
    1   AR   Ar   11   1.195   6.167   5.057
    1   AR   Ar   12   0.457   1.627   4.116
    1   AR   Ar   13   6.640   0.640   4.763
    1   AR   Ar   14   3.772   1.121   6.762
    1   AR   Ar   15   2.449   6.606   9.687
    1   AR   Ar   16   0.830   0.196   6.226
    1   AR   Ar   17   5.962   3.812   1.167
    1   AR   Ar   18   0.082   5.015  -1.839
    1   AR   Ar   19   5.411   4.668   0.769
    1   AR   Ar   20   0.034   3.870  -2.385
    1   AR   Ar   21   2.403   1.537   2.049
    1   AR   Ar   22   5.465   0.812   1.936
    1   AR   Ar   23   0.830   6.492   0.605
    1   AR   Ar   24   5.840   2.582   3.273
    1   AR   Ar   25   1.056   2.786   4.585
    1   AR   Ar   26   5.852   6.826   4.579
    1   AR   Ar   27   1.661   0.503   1.985
    1   AR   Ar   28   1.786   1.699   4.137
    1   AR   Ar   29   5.157   1.224   7.715
    1   AR   Ar   30   0.409   0.951   3.176
    1   AR   Ar   31   2.354   0.811   6.840
    1   AR   Ar   32   1.356   2.068   5.474
    1   AR   Ar   33   0.139   4.369   0.240
    1   AR   Ar   34   1.245   4.923   2.285
    1   AR   Ar   35   5.487   5.456   2.506
    1   AR   Ar   36   5.324   2.480  -3.049
    1   AR   Ar   37   3.620   3.256   1.130
    1   AR   Ar   38   6.331   4.492   4.117
    1   AR   Ar   39   0.412   2.779   3.753
    1   AR   Ar   40   0.892   3.744   2.033
    1   AR   Ar   41   1.062   1.856   3.222
    1   AR   Ar   42   5.233   6.326   5.752
    1   AR   Ar   43   0.066   2.960   5.292
    1   AR   Ar   44   7.089   3.747   2.995
    1   AR   Ar   45   1.511   3.512   5.364
    1   AR   Ar   46   6.516   4.731   6.874
    1   AR   Ar   47   3.589   3.836   7.932
    1   AR   Ar   48   0.114   3.597   7.830
    1   AR   Ar   49   0.266   1.380   0.630
    1   AR   Ar   50   4.167   4.766   0.620
    1   AR   Ar   51   5.508   3.419   2.673
    1   AR   Ar   52   5.589   3.182  -1.056
    1   AR   Ar   53   4.311   0.103   3.075
    1   AR   Ar   54   0.109   7.114   2.370
    1   AR   Ar   55   6.983   5.037   2.240
    1   AR   Ar   56   6.391   1.788   2.753
    1   AR   Ar   57   3.832   4.477   2.212
    1   AR   Ar   58   0.754   3.796   4.245
    1   AR   Ar   59   3.021   5.325   5.618
    1   AR   Ar   60   0.324   5.629   3.005
    1   AR   Ar   61   0.346   3.419   6.480
    1   AR   Ar   62   0.085   4.413   4.815
    1   AR   Ar   63   3.235   2.431   7.280
    1   AR   Ar   64   0.159   5.557   4.868
    1   AR   Ar   65   3.982   1.014   2.210
    1   AR   Ar   66   1.649   1.428   1.319
    1   AR   Ar   67   4.239   0.035  -0.569
    1   AR   Ar   68   7.083   1.196  -0.883
    1   AR   Ar   69   2.505   1.276  -0.121
    1   AR   Ar   70   7.076   1.497   1.918
    1   AR   Ar   71   2.936   0.816   2.775
    1   AR   Ar   72   4.253   1.253   1.228
    1   AR   Ar   73   3.240   0.160   3.829
    1   AR   Ar   74   1.112   0.738   3.880
    1   AR   Ar   75   3.169   0.685   5.052
    1   AR   Ar   76   2.179   0.350   0.944
    1   AR   Ar   77   2.051   5.865   5.781
    1   AR   Ar   78   6.766   5.371   6.026
    1   AR   Ar   79   2.881   6.679   5.835
    1   AR   Ar   80   4.027   5.972   5.582
    1   AR   Ar   81   1.910   6.302   1.201
    1   AR   Ar   82   6.713   4.883   1.097
    1   AR   Ar   83   1.330   3.636   1.110
    1   AR   Ar   84   0.790   4.601   1.053
    1   AR   Ar   85   1.130   3.900  -0.135
    1   AR   Ar   86   1.852   5.252   1.380
    1   AR   Ar   87   3.370   2.774   2.457
    1   AR   Ar   88   3.506   5.419   1.243
    1   AR   Ar   89   6.337   2.154   0.981
    1   AR   Ar   90   3.382   1.463   5.727
    1   AR   Ar   91   1.844   1.300   3.015
    1   AR   Ar   92   2.016   2.582   1.728
    1   AR   Ar   93   2.215   1.030   5.364
    1   AR   Ar   94   1.118   6.953   8.427
    1   AR   Ar   95   4.459   1.037   5.187
    1   AR   Ar   96   2.294   0.074   4.881
    1   AR   Ar   97   2.638   2.405  -0.695
    1   AR   Ar   98   1.715   4.313   4.201
    1   AR   Ar   99   5.856   0.650  -0.281
    1   AR   Ar  100   6.543   2.827  -2.538
    1   AR   Ar  101   3.798   6.192   2.432
    1   AR   Ar  102   3.367   1.776   2.493
    1   AR   Ar  103   1.812   4.453   0.554
    1   AR   Ar  104   3.312   7.068  -1.295
    1   AR   Ar  105   2.827   2.221   3.289
    1   AR   Ar  106   4.091   2.509   4.774
    1   AR   Ar  107   1.169   5.040   5.380
    1   AR   Ar  108   2.310   0.668   3.976
    1   AR   Ar  109   2.159   4.730   5.475
    1   AR   Ar  110   2.321   2.267   4.932
    1   AR   Ar  111   3.783   5.697   8.208
    1   AR   Ar  112   6.366   6.217   5.525
    1   AR   Ar  113   0.983   6.114  -1.536
    1   AR   Ar  114   2.621   0.159  -0.008
    1   AR   Ar  115   0.318   5.475   0.510
    1   AR   Ar  116   4.645   0.459   0.727
    1   AR   Ar  117   0.225   4.785   3.800
    1   AR   Ar  118   2.107   5.858   3.418
    1   AR   Ar  119   0.912   4.163   3.290
    1   AR   Ar  120   2.270   6.877   2.352
    1   AR   Ar  121   4.902   4.466   5.993
    1   AR   Ar  122   3.010   5.636   3.842
    1   AR   Ar  123   3.360   2.844   5.404
    1   AR   Ar  124   0.812   5.775   1.605
    1   AR   Ar  125   5.616   3.725   4.003
    1   AR   Ar  126   6.759   0.755   7.560
    1   AR   Ar  127   4.950   3.104   6.062
    1   AR   Ar  128   1.434   3.765   6.506
    1   AR   Ar  129   2.070   5.549   4.495
    1   AR   Ar  130   3.978   0.994  -4.789
    1   AR   Ar  131   4.365   6.503  -1.714
    1   AR   Ar  132   0.958   2.140   0.895
    1   AR   Ar  133   4.053   0.330   4.493
    1   AR   Ar  134   2.932   1.604   4.162
    1   AR   Ar  135   5.632   1.128   4.597
    1   AR   Ar  136   5.838   6.944   2.800
    1   AR   Ar  137   2.801   4.074   6.248
    1   AR   Ar  138   5.535   0.973   5.613
    1   AR   Ar  139   6.379   1.968   4.923
    1   AR   Ar  140   4.501   6.509   4.855
    1   AR   Ar  141   3.942   5.585   4.610
    1   AR   Ar  142   4.828   6.522   7.805
    1   AR   Ar  143   5.199   6.647   6.805
    1   AR   Ar  144   0.139   1.811   5.267
    1   AR   Ar  145   4.417   4.960  -0.465
    1   AR   Ar  146   3.854   2.351   3.353
    1   AR   Ar  147   5.321   4.001  -0.300
    1   AR   Ar  148   2.857   5.986  -1.226
    1   AR   Ar  149   7.106   2.304  -0.610
    1   AR   Ar  150   1.871   2.514   2.928
    1   AR   Ar  151   2.628   3.374   3.304
    1   AR   Ar  152   0.605   0.880  -1.688
    1   AR   Ar  153   5.495   0.958   3.025
    1   AR   Ar  154   4.699   2.870   4.083
    1   AR   Ar  155   5.942   3.505   4.985
    1   AR   Ar  156   2.398   4.714   3.395
    1   AR   Ar  157   3.114   5.211   6.733
    1   AR   Ar  158   0.526   2.129   6.242
    1   AR   Ar  159   3.915   0.126   6.050
    1   AR   Ar  160   1.183   0.747   5.232
    1   AR   Ar  161   4.733   4.242   3.142
    1   AR   Ar  162   3.784   5.894  -0.357
    1   AR   Ar  163   6.250   4.335   2.298
    1   AR   Ar  164   2.048   5.788   2.188
    1   AR   Ar  165   3.498   4.331   1.264
    1   AR   Ar  166   2.769   3.734   5.047
    1   AR   Ar  167   6.435   7.070   3.799
    1   AR   Ar  168   5.560   4.446  -2.494
    1   AR   Ar  169   3.647   3.946   3.167
    1   AR   Ar  170   2.330   3.255   5.957
    1   AR   Ar  171   5.123   5.521   4.080
    1   AR   Ar  172   3.507   3.831   4.303
    1   AR   Ar  173   2.418   1.880   6.224
    1   AR   Ar  174   3.308   6.500   4.610
    1   AR   Ar  175   2.785   0.550   6.036
    1   AR   Ar  176   3.058   2.778   4.117
    1   AR   Ar  177   0.482   4.309  -0.853
    1   AR   Ar  178   2.940   6.258   0.099
    1   AR   Ar  179   3.460   6.755   0.951
    1   AR   Ar  180   4.928   0.503  -7.494
    1   AR   Ar  181   6.958   6.282   1.726
    1   AR   Ar  182   1.282   6.037   2.750
    1   AR   Ar  183   4.556   5.371   1.873
    1   AR   Ar  184   4.388   6.000   0.725
    1   AR   Ar  185   2.695   4.676   4.426
    1   AR   Ar  186   2.843   6.184   2.821
    1   AR   Ar  187   3.925   6.252   3.755
    1   AR   Ar  188   3.078   0.301   1.778
    1   AR   Ar  189   5.946   2.478   5.732
    1   AR   Ar  190   1.654   6.717   3.638
    1   AR   Ar  191   3.695   6.513   6.872
    1   AR   Ar  192   4.124   3.522   5.419
    1   AR   Ar  193   2.964   6.251   1.788
    1   AR   Ar  194   5.146   5.757  -1.342
    1   AR   Ar  195   5.742   1.034   0.858
    1   AR   Ar  196   3.613   0.763   0.435
    1   AR   Ar  197   4.651   3.078   0.510
    1   AR   Ar  198   5.862   6.890   1.147
    1   AR   Ar  199   1.193   0.123   2.896
    1   AR   Ar  200   6.187   2.526  -0.242
    1   AR   Ar  201   6.444   5.949   2.578
    1   AR   Ar  202   4.942   0.447   4.050
    1   AR   Ar  203   0.373   6.638   3.412
    1   AR   Ar  204   4.619   4.441   7.268
    1   AR   Ar  205   5.626   1.896   1.991
    1   AR   Ar  206   6.154   0.143   6.203
    1   AR   Ar  207   6.841   3.318   4.344
    1   AR   Ar  208   0.932   5.878   3.863
    1   AR   Ar  209   7.079   1.836  -1.829
    1   AR   Ar  210   1.377   0.704   0.518
    1   AR   Ar  211   0.246   3.299   0.336
    1   AR   Ar  212   6.287   3.850  -0.180
    1   AR   Ar  213   3.384   1.859   1.500
    1   AR   Ar  214   5.227   4.451   2.050
    1   AR   Ar  215   0.035   2.697   1.660
    1   AR   Ar  216   1.878   2.138   0.201
    1   AR   Ar  217   5.330   1.738   3.783
    1   AR   Ar  218   4.990   2.975   5.069
    1   AR   Ar  219   4.455   3.370   2.452
    1   AR   Ar  220   4.572   3.865   1.549
    1   AR   Ar  221   6.874   5.894   3.896
    1   AR   Ar  222   4.904   0.121   5.555
    1   AR   Ar  223   6.582   1.695   6.081
    1   AR   Ar  224   5.159   1.877   5.112
    1   AR   Ar  225   6.872   2.675   2.999
    1   AR   Ar  226   1.885   3.116   4.001
    1   AR   Ar  227   0.930   3.130   2.852
    1   AR   Ar  228   6.416   0.755   1.671
    1   AR   Ar  229   5.857   4.686  -1.082
    1   AR   Ar  230   3.877   4.647   3.943
    1   AR   Ar  231   4.880   1.952   2.679
    1   AR   Ar  232   4.944   2.790   1.764
    1   AR   Ar  233   6.570   2.058   3.833
    1   AR   Ar  234   5.710   2.685   4.335
    1   AR   Ar  235   6.467   1.006   3.593
    1   AR   Ar  236   4.164   4.669   5.090
    1   AR   Ar  237   4.683   0.405   7.044
    1   AR   Ar  238   5.590   5.255   6.417
    1   AR   Ar  239   1.131   4.438  11.421
    1   AR   Ar  240   1.944   2.902   6.775
    1   AR   Ar  241   1.648   6.905   0.132
    1   AR   Ar  242   5.647   5.786   1.371
    1   AR   Ar  243   4.945   6.453   2.407
    1   AR   Ar  244   6.740   6.417   0.399
    1   AR   Ar  245   4.203   1.411   3.665
    1   AR   Ar  246   5.605   6.723  -1.028
    1   AR   Ar  247   7.017   3.928   1.145
    1   AR   Ar  248   5.458   5.363  -0.070
    1   AR   Ar  249   4.187   7.037   1.844
    1   AR   Ar  250   4.953   6.476   4.007
    1   AR   Ar  251   5.020   4.093   4.844
    1   AR   Ar  252   2.589   4.643   1.834
    1   AR   Ar  253   5.627   2.112   7.418
    1   AR   Ar  254   5.651   3.224  10.822
    1   AR   Ar  255   4.256   6.285   9.035
    1   AR   Ar  256   5.844   6.045   3.557
    7.12000  7.12000 12.00000
Argon-slab step 5080
  256
    1   AR   Ar    1   5.058   3.703  -2.838
    1   AR   Ar    2   5.184   6.703   0.333
    1   AR   Ar    3   3.992   3.510  -1.123
    1   AR   Ar    4   2.718   1.247   0.983
    1   AR   Ar    5   6.918   5.037  -0.352
    1   AR   Ar    6   0.922   1.704   2.071
    1   AR   Ar    7   5.857   4.861   3.226
    1   AR   Ar    8   6.642   3.409  -1.163
    1   AR   Ar    9   6.957   6.633   4.684
    1   AR   Ar   10   5.886   4.879   5.078
    1   AR   Ar   11   1.189   6.167   5.056
    1   AR   Ar   12   0.452   1.607   4.091
    1   AR   Ar   13   6.648   0.597   4.730
    1   AR   Ar   14   3.761   1.110   6.737
    1   AR   Ar   15   2.429   6.581   9.685
    1   AR   Ar   16   0.825   0.196   6.226
    1   AR   Ar   17   5.954   3.829   1.158
    1   AR   Ar   18   0.084   5.017  -1.844
    1   AR   Ar   19   5.405   4.671   0.758
    1   AR   Ar   20   0.013   3.861  -2.371
    1   AR   Ar   21   2.410   1.537   2.056
    1   AR   Ar   22   5.440   0.791   1.897
    1   AR   Ar   23   0.842   6.491   0.620
    1   AR   Ar   24   5.842   2.614   3.286
    1   AR   Ar   25   1.074   2.795   4.573
    1   AR   Ar   26   5.859   6.840   4.594
    1   AR   Ar   27   1.613   0.509   1.950
    1   AR   Ar   28   1.779   1.691   4.108
    1   AR   Ar   29   5.148   1.224   7.745
    1   AR   Ar   30   0.406   0.975   3.193
    1   AR   Ar   31   2.342   0.796   6.871
    1   AR   Ar   32   1.361   2.056   5.474
    1   AR   Ar   33   0.114   4.366   0.250
    1   AR   Ar   34   1.248   4.917   2.306
    1   AR   Ar   35   5.480   5.446   2.509
    1   AR   Ar   36   5.302   2.494  -3.071
    1   AR   Ar   37   3.610   3.266   1.140
    1   AR   Ar   38   6.301   4.522   4.142
    1   AR   Ar   39   0.416   2.781   3.751
    1   AR   Ar   40   0.891   3.725   2.029
    1   AR   Ar   41   1.058   1.868   3.216
    1   AR   Ar   42   5.259   6.328   5.766
    1   AR   Ar   43   0.090   2.950   5.297
    1   AR   Ar   44   7.105   3.787   2.988
    1   AR   Ar   45   1.526   3.526   5.360
    1   AR   Ar   46   6.487   4.731   6.865
    1   AR   Ar   47   3.581   3.836   7.926
    1   AR   Ar   48   0.101   3.571   7.800
    1   AR   Ar   49   0.290   1.382   0.655
    1   AR   Ar   50   4.185   4.737   0.625
    1   AR   Ar   51   5.500   3.398   2.662
    1   AR   Ar   52   5.622   3.174  -1.038
    1   AR   Ar   53   4.335   0.113   3.084
    1   AR   Ar   54   0.066   7.099   2.373
    1   AR   Ar   55   6.977   5.027   2.199
    1   AR   Ar   56   6.366   1.794   2.761
    1   AR   Ar   57   3.837   4.468   2.210
    1   AR   Ar   58   0.747   3.802   4.241
    1   AR   Ar   59   3.050   5.307   5.609
    1   AR   Ar   60   0.317   5.647   3.032
    1   AR   Ar   61   0.346   3.429   6.470
    1   AR   Ar   62   0.080   4.412   4.775
    1   AR   Ar   63   3.237   2.429   7.291
    1   AR   Ar   64   0.192   5.549   4.856
    1   AR   Ar   65   3.997   1.011   2.216
    1   AR   Ar   66   1.666   1.433   1.310
    1   AR   Ar   67   4.234   0.006  -0.560
    1   AR   Ar   68   7.095   1.236  -0.873
    1   AR   Ar   69   2.494   1.268  -0.121
    1   AR   Ar   70   7.084   1.508   1.925
    1   AR   Ar   71   2.941   0.832   2.790
    1   AR   Ar   72   4.275   1.238   1.244
    1   AR   Ar   73   3.244   0.160   3.848
    1   AR   Ar   74   1.096   0.683   3.862
    1   AR   Ar   75   3.187   0.666   5.035
    1   AR   Ar   76   2.195   0.366   0.962
    1   AR   Ar   77   2.060   5.860   5.784
    1   AR   Ar   78   6.758   5.395   6.025
    1   AR   Ar   79   2.879   6.675   5.843
    1   AR   Ar   80   4.011   5.981   5.602
    1   AR   Ar   81   1.909   6.288   1.196
    1   AR   Ar   82   6.736   4.928   1.127
    1   AR   Ar   83   1.334   3.632   1.136
    1   AR   Ar   84   0.792   4.590   1.063
    1   AR   Ar   85   1.116   3.862  -0.132
    1   AR   Ar   86   1.835   5.283   1.380
    1   AR   Ar   87   3.352   2.743   2.455
    1   AR   Ar   88   3.481   5.449   1.236
    1   AR   Ar   89   6.331   2.138   0.987
    1   AR   Ar   90   3.374   1.448   5.736
    1   AR   Ar   91   1.841   1.274   3.025
    1   AR   Ar   92   2.001   2.585   1.729
    1   AR   Ar   93   2.206   0.983   5.364
    1   AR   Ar   94   1.099   6.971   8.435
    1   AR   Ar   95   4.470   1.042   5.158
    1   AR   Ar   96   2.315   0.065   4.862
    1   AR   Ar   97   2.641   2.382  -0.693
    1   AR   Ar   98   1.736   4.326   4.206
    1   AR   Ar   99   5.860   0.653  -0.265
    1   AR   Ar  100   6.532   2.833  -2.537
    1   AR   Ar  101   3.821   6.200   2.430
    1   AR   Ar  102   3.357   1.734   2.500
    1   AR   Ar  103   1.808   4.448   0.555
    1   AR   Ar  104   3.290   7.081  -1.267
    1   AR   Ar  105   2.837   2.235   3.298
    1   AR   Ar  106   4.114   2.509   4.730
    1   AR   Ar  107   1.161   5.031   5.379
    1   AR   Ar  108   2.300   0.658   3.961
    1   AR   Ar  109   2.138   4.722   5.443
    1   AR   Ar  110   2.319   2.277   4.956
    1   AR   Ar  111   3.789   5.694   8.202
    1   AR   Ar  112   6.327   6.215   5.564
    1   AR   Ar  113   0.985   6.108  -1.531
    1   AR   Ar  114   2.623   0.200   0.001
    1   AR   Ar  115   0.321   5.489   0.547
    1   AR   Ar  116   4.667   0.464   0.759
    1   AR   Ar  117   0.226   4.803   3.777
    1   AR   Ar  118   2.096   5.882   3.397
    1   AR   Ar  119   0.907   4.134   3.293
    1   AR   Ar  120   2.289   6.915   2.315
    1   AR   Ar  121   4.907   4.449   5.986
    1   AR   Ar  122   2.993   5.625   3.881
    1   AR   Ar  123   3.374   2.846   5.395
    1   AR   Ar  124   0.810   5.758   1.628
    1   AR   Ar  125   5.593   3.713   4.004
    1   AR   Ar  126   6.772   0.771   7.530
    1   AR   Ar  127   4.949   3.105   6.063
    1   AR   Ar  128   1.408   3.751   6.479
    1   AR   Ar  129   2.053   5.560   4.513
    1   AR   Ar  130   3.968   0.969  -4.782
    1   AR   Ar  131   4.357   6.514  -1.721
    1   AR   Ar  132   0.980   2.145   0.884
    1   AR   Ar  133   4.061   0.358   4.491
    1   AR   Ar  134   2.921   1.626   4.183
    1   AR   Ar  135   5.603   1.126   4.588
    1   AR   Ar  136   5.858   6.906   2.803
    1   AR   Ar  137   2.809   4.098   6.255
    1   AR   Ar  138   5.539   0.965   5.632
    1   AR   Ar  139   6.394   1.964   4.915
    1   AR   Ar  140   4.476   6.469   4.841
    1   AR   Ar  141   3.942   5.607   4.610
    1   AR   Ar  142   4.831   6.532   7.815
    1   AR   Ar  143   5.197   6.649   6.785
    1   AR   Ar  144   0.138   1.797   5.278
    1   AR   Ar  145   4.424   4.924  -0.450
    1   AR   Ar  146   3.853   2.347   3.375
    1   AR   Ar  147   5.310   4.014  -0.306
    1   AR   Ar  148   2.893   5.992  -1.206
    1   AR   Ar  149   0.014   2.322  -0.648
    1   AR   Ar  150   1.852   2.517   2.935
    1   AR   Ar  151   2.611   3.368   3.327
    1   AR   Ar  152   0.605   0.889  -1.701
    1   AR   Ar  153   5.482   0.944   3.032
    1   AR   Ar  154   4.692   2.866   4.078
    1   AR   Ar  155   5.907   3.533   5.001
    1   AR   Ar  156   2.407   4.705   3.385
    1   AR   Ar  157   3.137   5.236   6.738
    1   AR   Ar  158   0.506   2.143   6.193
    1   AR   Ar  159   3.908   0.139   6.032
    1   AR   Ar  160   1.173   0.775   5.233
    1   AR   Ar  161   4.710   4.274   3.140
    1   AR   Ar  162   3.766   5.869  -0.364
    1   AR   Ar  163   6.253   4.324   2.328
    1   AR   Ar  164   2.063   5.794   2.169
    1   AR   Ar  165   3.497   4.330   1.263
    1   AR   Ar  166   2.796   3.743   5.034
    1   AR   Ar  167   6.426   7.067   3.787
    1   AR   Ar  168   5.581   4.468  -2.501
    1   AR   Ar  169   3.618   3.915   3.174
    1   AR   Ar  170   2.354   3.238   5.936
    1   AR   Ar  171   5.142   5.517   4.093
    1   AR   Ar  172   3.509   3.836   4.287
    1   AR   Ar  173   2.452   1.905   6.255
    1   AR   Ar  174   3.263   6.485   4.584
    1   AR   Ar  175   2.762   0.553   6.046
    1   AR   Ar  176   3.089   2.787   4.116
    1   AR   Ar  177   0.449   4.305  -0.828
    1   AR   Ar  178   2.944   6.267   0.101
    1   AR   Ar  179   3.460   6.735   0.957
    1   AR   Ar  180   4.929   0.509  -7.522
    1   AR   Ar  181   6.947   6.306   1.705
    1   AR   Ar  182   1.257   6.013   2.764
    1   AR   Ar  183   4.532   5.385   1.869
    1   AR   Ar  184   4.398   5.967   0.746
    1   AR   Ar  185   2.689   4.671   4.453
    1   AR   Ar  186   2.833   6.213   2.838
    1   AR   Ar  187   3.940   6.207   3.747
    1   AR   Ar  188   3.070   0.326   1.777
    1   AR   Ar  189   5.951   2.441   5.711
    1   AR   Ar  190   1.652   6.735   3.663
    1   AR   Ar  191   3.719   6.522   6.886
    1   AR   Ar  192   4.132   3.483   5.414
    1   AR   Ar  193   2.950   6.239   1.811
    1   AR   Ar  194   5.117   5.773  -1.363
    1   AR   Ar  195   5.790   1.049   0.879
    1   AR   Ar  196   3.624   0.789   0.452
    1   AR   Ar  197   4.648   3.099   0.519
    1   AR   Ar  198   5.877   6.912   1.151
    1   AR   Ar  199   1.174   0.141   2.890
    1   AR   Ar  200   6.154   2.548  -0.227
    1   AR   Ar  201   6.465   5.928   2.561
    1   AR   Ar  202   4.949   0.419   4.058
    1   AR   Ar  203   0.366   6.636   3.430
    1   AR   Ar  204   4.595   4.454   7.264
    1   AR   Ar  205   5.618   1.894   2.006
    1   AR   Ar  206   6.145   0.124   6.194
    1   AR   Ar  207   6.849   3.293   4.362
    1   AR   Ar  208   0.921   5.879   3.833
    1   AR   Ar  209   7.107   1.833  -1.819
    1   AR   Ar  210   1.405   0.730   0.486
    1   AR   Ar  211   0.253   3.286   0.318
    1   AR   Ar  212   6.294   3.842  -0.189
    1   AR   Ar  213   3.393   1.889   1.465
    1   AR   Ar  214   5.261   4.447   2.060
    1   AR   Ar  215   0.069   2.705   1.648
    1   AR   Ar  216   1.915   2.105   0.170
    1   AR   Ar  217   5.376   1.760   3.812
    1   AR   Ar  218   4.988   2.994   5.069
    1   AR   Ar  219   4.421   3.402   2.440
    1   AR   Ar  220   4.549   3.879   1.575
    1   AR   Ar  221   6.854   5.892   3.892
    1   AR   Ar  222   4.921   0.117   5.567
    1   AR   Ar  223   6.578   1.690   6.088
    1   AR   Ar  224   5.143   1.867   5.111
    1   AR   Ar  225   6.876   2.631   2.996
    1   AR   Ar  226   1.906   3.102   4.027
    1   AR   Ar  227   0.920   3.129   2.881
    1   AR   Ar  228   6.408   0.733   1.677
    1   AR   Ar  229   5.870   4.697  -1.071
    1   AR   Ar  230   3.875   4.658   3.938
    1   AR   Ar  231   4.836   1.947   2.658
    1   AR   Ar  232   4.930   2.766   1.774
    1   AR   Ar  233   6.576   2.013   3.830
    1   AR   Ar  234   5.749   2.681   4.319
    1   AR   Ar  235   6.477   1.017   3.600
    1   AR   Ar  236   4.148   4.683   5.114
    1   AR   Ar  237   4.670   0.385   7.077
    1   AR   Ar  238   5.574   5.221   6.432
    1   AR   Ar  239   1.118   4.421  11.395
    1   AR   Ar  240   1.975   2.903   6.792
    1   AR   Ar  241   1.658   6.911   0.139
    1   AR   Ar  242   5.638   5.771   1.372
    1   AR   Ar  243   4.913   6.475   2.385
    1   AR   Ar  244   6.768   6.420   0.361
    1   AR   Ar  245   4.202   1.435   3.666
    1   AR   Ar  246   5.624   6.758  -1.042
    1   AR   Ar  247   7.055   3.923   1.116
    1   AR   Ar  248   5.452   5.334  -0.062
    1   AR   Ar  249   4.204   7.074   1.849
    1   AR   Ar  250   4.970   6.475   3.979
    1   AR   Ar  251   5.014   4.108   4.822
    1   AR   Ar  252   2.600   4.656   1.826
    1   AR   Ar  253   5.631   2.101   7.375
    1   AR   Ar  254   5.625   3.226  10.862
    1   AR   Ar  255   4.279   6.259   9.034
    1   AR   Ar  256   5.793   6.034   3.533
    7.12000  7.12000 12.00000
Argon-slab step 5085
  256
    1   AR   Ar    1   5.031   3.693  -2.864
    1   AR   Ar    2   5.178   6.687   0.355
    1   AR   Ar    3   3.988   3.504  -1.120
    1   AR   Ar    4   2.697   1.267   1.006
    1   AR   Ar    5   6.919   5.058  -0.358
    1   AR   Ar    6   0.953   1.686   2.088
    1   AR   Ar    7   5.853   4.867   3.216
    1   AR   Ar    8   6.636   3.425  -1.110
    1   AR   Ar    9   6.937   6.629   4.701
    1   AR   Ar   10   5.899   4.905   5.080
    1   AR   Ar   11   1.174   6.161   5.046
    1   AR   Ar   12   0.447   1.588   4.068
    1   AR   Ar   13   6.654   0.555   4.697
    1   AR   Ar   14   3.750   1.098   6.711
    1   AR   Ar   15   2.409   6.557   9.683
    1   AR   Ar   16   0.821   0.196   6.225
    1   AR   Ar   17   5.946   3.846   1.150
    1   AR   Ar   18   0.087   5.019  -1.849
    1   AR   Ar   19   5.397   4.673   0.749
    1   AR   Ar   20   7.111   3.851  -2.356
    1   AR   Ar   21   2.418   1.536   2.064
    1   AR   Ar   22   5.413   0.795   1.885
    1   AR   Ar   23   0.851   6.487   0.640
    1   AR   Ar   24   5.842   2.645   3.297
    1   AR   Ar   25   1.091   2.787   4.550
    1   AR   Ar   26   5.854   6.822   4.621
    1   AR   Ar   27   1.565   0.518   1.913
    1   AR   Ar   28   1.771   1.682   4.077
    1   AR   Ar   29   5.137   1.221   7.776
    1   AR   Ar   30   0.387   0.997   3.196
    1   AR   Ar   31   2.322   0.787   6.917
    1   AR   Ar   32   1.344   2.064   5.464
    1   AR   Ar   33   0.097   4.355   0.262
    1   AR   Ar   34   1.251   4.911   2.328
    1   AR   Ar   35   5.469   5.442   2.505
    1   AR   Ar   36   5.281   2.510  -3.093
    1   AR   Ar   37   3.639   3.244   1.141
    1   AR   Ar   38   6.273   4.552   4.168
    1   AR   Ar   39   0.423   2.780   3.751
    1   AR   Ar   40   0.884   3.711   2.029
    1   AR   Ar   41   1.053   1.867   3.226
    1   AR   Ar   42   5.287   6.319   5.779
    1   AR   Ar   43   0.116   2.937   5.303
    1   AR   Ar   44   7.117   3.825   2.980
    1   AR   Ar   45   1.539   3.542   5.352
    1   AR   Ar   46   6.459   4.731   6.857
    1   AR   Ar   47   3.573   3.837   7.918
    1   AR   Ar   48   0.088   3.545   7.768
    1   AR   Ar   49   0.312   1.382   0.681
    1   AR   Ar   50   4.207   4.711   0.629
    1   AR   Ar   51   5.490   3.381   2.649
    1   AR   Ar   52   5.626   3.174  -1.010
    1   AR   Ar   53   4.359   0.122   3.093
    1   AR   Ar   54   0.023   7.086   2.380
    1   AR   Ar   55   6.976   5.022   2.158
    1   AR   Ar   56   6.337   1.792   2.769
    1   AR   Ar   57   3.845   4.460   2.215
    1   AR   Ar   58   0.745   3.814   4.242
    1   AR   Ar   59   3.057   5.273   5.604
    1   AR   Ar   60   0.305   5.660   3.052
    1   AR   Ar   61   0.334   3.462   6.462
    1   AR   Ar   62   0.088   4.408   4.782
    1   AR   Ar   63   3.239   2.426   7.302
    1   AR   Ar   64   0.225   5.540   4.843
    1   AR   Ar   65   4.016   1.001   2.224
    1   AR   Ar   66   1.682   1.437   1.299
    1   AR   Ar   67   4.229   7.096  -0.550
    1   AR   Ar   68   7.107   1.277  -0.862
    1   AR   Ar   69   2.484   1.259  -0.121
    1   AR   Ar   70   7.086   1.527   1.927
    1   AR   Ar   71   2.944   0.844   2.807
    1   AR   Ar   72   4.293   1.223   1.260
    1   AR   Ar   73   3.248   0.158   3.864
    1   AR   Ar   74   1.088   0.627   3.849
    1   AR   Ar   75   3.206   0.647   5.015
    1   AR   Ar   76   2.217   0.372   0.989
    1   AR   Ar   77   2.069   5.854   5.784
    1   AR   Ar   78   6.751   5.414   6.025
    1   AR   Ar   79   2.880   6.666   5.848
    1   AR   Ar   80   3.991   5.989   5.630
    1   AR   Ar   81   1.909   6.282   1.188
    1   AR   Ar   82   6.757   4.975   1.157
    1   AR   Ar   83   1.341   3.626   1.153
    1   AR   Ar   84   0.854   4.595   1.044
    1   AR   Ar   85   1.102   3.824  -0.125
    1   AR   Ar   86   1.812   5.299   1.367
    1   AR   Ar   87   3.333   2.722   2.452
    1   AR   Ar   88   3.501   5.415   1.224
    1   AR   Ar   89   6.326   2.121   0.994
    1   AR   Ar   90   3.365   1.436   5.745
    1   AR   Ar   91   1.845   1.241   3.033
    1   AR   Ar   92   1.986   2.586   1.730
    1   AR   Ar   93   2.191   0.946   5.356
    1   AR   Ar   94   1.080   6.989   8.444
    1   AR   Ar   95   4.471   1.052   5.142
    1   AR   Ar   96   2.337   0.051   4.842
    1   AR   Ar   97   2.644   2.359  -0.690
    1   AR   Ar   98   1.752   4.337   4.214
    1   AR   Ar   99   5.868   0.643  -0.253
    1   AR   Ar  100   6.491   2.818  -2.524
    1   AR   Ar  101   3.848   6.207   2.429
    1   AR   Ar  102   3.347   1.693   2.512
    1   AR   Ar  103   1.802   4.444   0.557
    1   AR   Ar  104   3.269   7.093  -1.238
    1   AR   Ar  105   2.837   2.246   3.302
    1   AR   Ar  106   4.122   2.496   4.699
    1   AR   Ar  107   1.149   5.024   5.376
    1   AR   Ar  108   2.286   0.650   3.944
    1   AR   Ar  109   2.123   4.711   5.411
    1   AR   Ar  110   2.318   2.288   4.979
    1   AR   Ar  111   3.781   5.677   8.184
    1   AR   Ar  112   6.286   6.218   5.600
    1   AR   Ar  113   0.986   6.102  -1.527
    1   AR   Ar  114   2.629   0.241   0.008
    1   AR   Ar  115   0.326   5.503   0.584
    1   AR   Ar  116   4.693   0.460   0.787
    1   AR   Ar  117   0.225   4.824   3.754
    1   AR   Ar  118   2.078   5.892   3.381
    1   AR   Ar  119   0.910   4.108   3.290
    1   AR   Ar  120   2.305   6.953   2.279
    1   AR   Ar  121   4.912   4.431   5.977
    1   AR   Ar  122   2.978   5.613   3.921
    1   AR   Ar  123   3.370   2.855   5.365
    1   AR   Ar  124   0.808   5.740   1.652
    1   AR   Ar  125   5.568   3.700   3.999
    1   AR   Ar  126   6.784   0.787   7.499
    1   AR   Ar  127   4.950   3.107   6.072
    1   AR   Ar  128   1.384   3.738   6.450
    1   AR   Ar  129   2.036   5.571   4.531
    1   AR   Ar  130   3.958   0.944  -4.775
    1   AR   Ar  131   4.348   6.526  -1.726
    1   AR   Ar  132   1.003   2.155   0.874
    1   AR   Ar  133   4.060   0.382   4.492
    1   AR   Ar  134   2.910   1.647   4.205
    1   AR   Ar  135   5.580   1.105   4.590
    1   AR   Ar  136   5.879   6.869   2.805
    1   AR   Ar  137   2.819   4.129   6.261
    1   AR   Ar  138   5.545   0.959   5.653
    1   AR   Ar  139   6.391   1.961   4.894
    1   AR   Ar  140   4.450   6.437   4.832
    1   AR   Ar  141   3.939   5.623   4.607
    1   AR   Ar  142   4.832   6.543   7.825
    1   AR   Ar  143   5.197   6.650   6.764
    1   AR   Ar  144   0.158   1.778   5.290
    1   AR   Ar  145   4.433   4.889  -0.434
    1   AR   Ar  146   3.855   2.349   3.396
    1   AR   Ar  147   5.291   4.030  -0.311
    1   AR   Ar  148   2.930   5.998  -1.184
    1   AR   Ar  149   0.043   2.340  -0.688
    1   AR   Ar  150   1.834   2.521   2.941
    1   AR   Ar  151   2.598   3.364   3.346
    1   AR   Ar  152   0.605   0.899  -1.714
    1   AR   Ar  153   5.470   0.930   3.040
    1   AR   Ar  154   4.699   2.873   4.050
    1   AR   Ar  155   5.877   3.560   5.020
    1   AR   Ar  156   2.417   4.696   3.374
    1   AR   Ar  157   3.161   5.261   6.742
    1   AR   Ar  158   0.486   2.160   6.147
    1   AR   Ar  159   3.900   0.152   6.012
    1   AR   Ar  160   1.160   0.803   5.232
    1   AR   Ar  161   4.689   4.306   3.137
    1   AR   Ar  162   3.753   5.843  -0.372
    1   AR   Ar  163   6.256   4.308   2.360
    1   AR   Ar  164   2.083   5.806   2.161
    1   AR   Ar  165   3.491   4.326   1.261
    1   AR   Ar  166   2.825   3.747   5.015
    1   AR   Ar  167   6.421   7.063   3.769
    1   AR   Ar  168   5.609   4.499  -2.502
    1   AR   Ar  169   3.589   3.881   3.179
    1   AR   Ar  170   2.383   3.218   5.905
    1   AR   Ar  171   5.157   5.496   4.113
    1   AR   Ar  172   3.508   3.826   4.276
    1   AR   Ar  173   2.486   1.929   6.285
    1   AR   Ar  174   3.217   6.470   4.561
    1   AR   Ar  175   2.756   0.552   6.050
    1   AR   Ar  176   3.122   2.799   4.122
    1   AR   Ar  177   0.413   4.301  -0.806
    1   AR   Ar  178   2.944   6.278   0.105
    1   AR   Ar  179   3.460   6.716   0.962
    1   AR   Ar  180   4.930   0.515  -7.549
    1   AR   Ar  181   6.936   6.329   1.679
    1   AR   Ar  182   1.229   5.993   2.778
    1   AR   Ar  183   4.508   5.400   1.864
    1   AR   Ar  184   4.409   5.933   0.768
    1   AR   Ar  185   2.689   4.667   4.480
    1   AR   Ar  186   2.833   6.244   2.857
    1   AR   Ar  187   3.954   6.165   3.736
    1   AR   Ar  188   3.064   0.351   1.775
    1   AR   Ar  189   5.951   2.410   5.691
    1   AR   Ar  190   1.647   6.760   3.694
    1   AR   Ar  191   3.744   6.531   6.899
    1   AR   Ar  192   4.145   3.455   5.409
    1   AR   Ar  193   2.939   6.227   1.826
    1   AR   Ar  194   5.116   5.792  -1.366
    1   AR   Ar  195   5.837   1.065   0.897
    1   AR   Ar  196   3.634   0.813   0.469
    1   AR   Ar  197   4.645   3.120   0.529
    1   AR   Ar  198   5.892   6.936   1.156
    1   AR   Ar  199   1.152   0.161   2.882
    1   AR   Ar  200   6.122   2.571  -0.212
    1   AR   Ar  201   6.483   5.908   2.548
    1   AR   Ar  202   4.965   0.395   4.060
    1   AR   Ar  203   0.328   6.653   3.440
    1   AR   Ar  204   4.570   4.467   7.259
    1   AR   Ar  205   5.615   1.891   2.015
    1   AR   Ar  206   6.174   0.140   6.216
    1   AR   Ar  207   6.853   3.272   4.379
    1   AR   Ar  208   0.916   5.877   3.811
    1   AR   Ar  209   0.015   1.830  -1.808
    1   AR   Ar  210   1.424   0.764   0.450
    1   AR   Ar  211   0.260   3.271   0.298
    1   AR   Ar  212   6.312   3.809  -0.200
    1   AR   Ar  213   3.403   1.922   1.429
    1   AR   Ar  214   5.293   4.446   2.072
    1   AR   Ar  215   0.096   2.714   1.635
    1   AR   Ar  216   1.950   2.073   0.140
    1   AR   Ar  217   5.420   1.784   3.838
    1   AR   Ar  218   4.949   3.011   5.041
    1   AR   Ar  219   4.382   3.431   2.440
    1   AR   Ar  220   4.520   3.892   1.588
    1   AR   Ar  221   6.831   5.888   3.889
    1   AR   Ar  222   4.933   0.120   5.577
    1   AR   Ar  223   6.574   1.682   6.097
    1   AR   Ar  224   5.127   1.866   5.111
    1   AR   Ar  225   6.882   2.594   2.987
    1   AR   Ar  226   1.936   3.097   4.020
    1   AR   Ar  227   0.911   3.124   2.912
    1   AR   Ar  228   6.401   0.704   1.684
    1   AR   Ar  229   5.883   4.707  -1.059
    1   AR   Ar  230   3.873   4.651   3.937
    1   AR   Ar  231   4.786   1.943   2.642
    1   AR   Ar  232   4.926   2.747   1.798
    1   AR   Ar  233   6.583   1.974   3.830
    1   AR   Ar  234   5.790   2.676   4.308
    1   AR   Ar  235   6.486   1.025   3.607
    1   AR   Ar  236   4.130   4.696   5.138
    1   AR   Ar  237   4.654   0.367   7.110
    1   AR   Ar  238   5.558   5.189   6.445
    1   AR   Ar  239   1.105   4.404  11.369
    1   AR   Ar  240   2.004   2.898   6.818
    1   AR   Ar  241   1.671   6.913   0.143
    1   AR   Ar  242   5.628   5.754   1.374
    1   AR   Ar  243   4.883   6.494   2.365
    1   AR   Ar  244   6.791   6.416   0.330
    1   AR   Ar  245   4.204   1.453   3.670
    1   AR   Ar  246   5.643   6.793  -1.054
    1   AR   Ar  247   7.093   3.910   1.100
    1   AR   Ar  248   5.446   5.307  -0.057
    1   AR   Ar  249   4.220   7.114   1.853
    1   AR   Ar  250   4.987   6.489   3.942
    1   AR   Ar  251   5.006   4.124   4.801
    1   AR   Ar  252   2.612   4.670   1.819
    1   AR   Ar  253   5.635   2.091   7.331
    1   AR   Ar  254   5.598   3.228  10.903
    1   AR   Ar  255   4.303   6.232   9.032
    1   AR   Ar  256   5.752   6.025   3.501
    7.12000  7.12000 12.00000
Argon-slab step 5090
  256
    1   AR   Ar    1   4.993   3.667  -2.883
    1   AR   Ar    2   5.170   6.671   0.376
    1   AR   Ar    3   3.984   3.499  -1.116
    1   AR   Ar    4   2.698   1.267   1.009
    1   AR   Ar    5   6.914   5.089  -0.370
    1   AR   Ar    6   0.991   1.670   2.108
    1   AR   Ar    7   5.853   4.868   3.214
    1   AR   Ar    8   6.631   3.442  -1.069
    1   AR   Ar    9   6.918   6.622   4.718
    1   AR   Ar   10   5.910   4.932   5.085
    1   AR   Ar   11   1.160   6.153   5.035
    1   AR   Ar   12   0.443   1.570   4.050
    1   AR   Ar   13   6.658   0.516   4.662
    1   AR   Ar   14   3.738   1.083   6.685
    1   AR   Ar   15   2.388   6.533   9.681
    1   AR   Ar   16   0.817   0.197   6.222
    1   AR   Ar   17   5.939   3.863   1.144
    1   AR   Ar   18   0.089   5.019  -1.852
    1   AR   Ar   19   5.387   4.673   0.744
    1   AR   Ar   20   7.088   3.841  -2.340
    1   AR   Ar   21   2.423   1.535   2.073
    1   AR   Ar   22   5.384   0.818   1.893
    1   AR   Ar   23   0.857   6.481   0.663
    1   AR   Ar   24   5.842   2.674   3.304
    1   AR   Ar   25   1.104   2.785   4.562
    1   AR   Ar   26   5.845   6.804   4.651
    1   AR   Ar   27   1.516   0.529   1.875
    1   AR   Ar   28   1.762   1.674   4.047
    1   AR   Ar   29   5.126   1.216   7.806
    1   AR   Ar   30   0.371   0.995   3.186
    1   AR   Ar   31   2.299   0.775   6.958
    1   AR   Ar   32   1.327   2.071   5.453
    1   AR   Ar   33   0.087   4.345   0.266
    1   AR   Ar   34   1.253   4.907   2.349
    1   AR   Ar   35   5.453   5.446   2.494
    1   AR   Ar   36   5.261   2.527  -3.114
    1   AR   Ar   37   3.669   3.221   1.144
    1   AR   Ar   38   6.248   4.581   4.191
    1   AR   Ar   39   0.431   2.776   3.756
    1   AR   Ar   40   0.871   3.700   2.037
    1   AR   Ar   41   1.055   1.844   3.258
    1   AR   Ar   42   5.311   6.302   5.791
    1   AR   Ar   43   0.122   2.938   5.299
    1   AR   Ar   44   0.001   3.860   2.971
    1   AR   Ar   45   1.560   3.556   5.346
    1   AR   Ar   46   6.431   4.729   6.849
    1   AR   Ar   47   3.565   3.853   7.907
    1   AR   Ar   48   0.089   3.547   7.735
    1   AR   Ar   49   0.344   1.376   0.689
    1   AR   Ar   50   4.235   4.688   0.631
    1   AR   Ar   51   5.495   3.383   2.644
    1   AR   Ar   52   5.585   3.184  -0.968
    1   AR   Ar   53   4.383   0.131   3.102
    1   AR   Ar   54   7.100   7.075   2.390
    1   AR   Ar   55   6.976   5.010   2.142
    1   AR   Ar   56   6.305   1.779   2.776
    1   AR   Ar   57   3.855   4.453   2.226
    1   AR   Ar   58   0.747   3.817   4.239
    1   AR   Ar   59   3.065   5.239   5.598
    1   AR   Ar   60   0.284   5.666   3.061
    1   AR   Ar   61   0.320   3.495   6.454
    1   AR   Ar   62   0.097   4.405   4.803
    1   AR   Ar   63   3.240   2.424   7.312
    1   AR   Ar   64   0.258   5.532   4.829
    1   AR   Ar   65   4.034   0.991   2.230
    1   AR   Ar   66   1.698   1.441   1.287
    1   AR   Ar   67   4.228   7.077  -0.544
    1   AR   Ar   68   7.119   1.315  -0.850
    1   AR   Ar   69   2.478   1.247  -0.122
    1   AR   Ar   70   7.080   1.546   1.927
    1   AR   Ar   71   2.941   0.844   2.828
    1   AR   Ar   72   4.308   1.219   1.278
    1   AR   Ar   73   3.251   0.157   3.876
    1   AR   Ar   74   1.085   0.570   3.842
    1   AR   Ar   75   3.223   0.628   4.996
    1   AR   Ar   76   2.239   0.370   1.021
    1   AR   Ar   77   2.079   5.847   5.783
    1   AR   Ar   78   6.746   5.429   6.026
    1   AR   Ar   79   2.883   6.653   5.850
    1   AR   Ar   80   3.968   5.995   5.663
    1   AR   Ar   81   1.910   6.287   1.179
    1   AR   Ar   82   6.773   5.019   1.183
    1   AR   Ar   83   1.352   3.617   1.160
    1   AR   Ar   84   0.914   4.603   1.027
    1   AR   Ar   85   1.089   3.786  -0.116
    1   AR   Ar   86   1.783   5.300   1.344
    1   AR   Ar   87   3.316   2.706   2.448
    1   AR   Ar   88   3.532   5.366   1.213
    1   AR   Ar   89   6.321   2.103   1.002
    1   AR   Ar   90   3.356   1.424   5.753
    1   AR   Ar   91   1.853   1.204   3.039
    1   AR   Ar   92   1.999   2.573   1.698
    1   AR   Ar   93   2.171   0.922   5.341
    1   AR   Ar   94   1.060   7.007   8.453
    1   AR   Ar   95   4.457   1.066   5.149
    1   AR   Ar   96   2.358   0.030   4.821
    1   AR   Ar   97   2.646   2.335  -0.686
    1   AR   Ar   98   1.761   4.342   4.233
    1   AR   Ar   99   5.875   0.631  -0.239
    1   AR   Ar  100   6.450   2.804  -2.510
    1   AR   Ar  101   3.875   6.214   2.428
    1   AR   Ar  102   3.341   1.665   2.526
    1   AR   Ar  103   1.798   4.440   0.560
    1   AR   Ar  104   3.251   7.102  -1.212
    1   AR   Ar  105   2.830   2.254   3.302
    1   AR   Ar  106   4.144   2.486   4.694
    1   AR   Ar  107   1.131   5.019   5.372
    1   AR   Ar  108   2.271   0.645   3.925
    1   AR   Ar  109   2.113   4.697   5.378
    1   AR   Ar  110   2.317   2.300   5.002
    1   AR   Ar  111   3.752   5.637   8.150
    1   AR   Ar  112   6.249   6.225   5.631
    1   AR   Ar  113   0.987   6.096  -1.522
    1   AR   Ar  114   2.640   0.279   0.015
    1   AR   Ar  115   0.322   5.481   0.585
    1   AR   Ar  116   4.724   0.446   0.811
    1   AR   Ar  117   0.223   4.845   3.732
    1   AR   Ar  118   2.054   5.892   3.371
    1   AR   Ar  119   0.923   4.090   3.283
    1   AR   Ar  120   2.316   6.993   2.244
    1   AR   Ar  121   4.915   4.412   5.967
    1   AR   Ar  122   2.966   5.599   3.961
    1   AR   Ar  123   3.353   2.855   5.334
    1   AR   Ar  124   0.807   5.721   1.675
    1   AR   Ar  125   5.544   3.687   3.990
    1   AR   Ar  126   6.795   0.803   7.468
    1   AR   Ar  127   4.951   3.110   6.084
    1   AR   Ar  128   1.361   3.727   6.419
    1   AR   Ar  129   2.017   5.582   4.550
    1   AR   Ar  130   3.948   0.920  -4.768
    1   AR   Ar  131   4.339   6.538  -1.729
    1   AR   Ar  132   1.028   2.169   0.865
    1   AR   Ar  133   4.056   0.399   4.492
    1   AR   Ar  134   2.895   1.660   4.217
    1   AR   Ar  135   5.562   1.077   4.591
    1   AR   Ar  136   5.900   6.832   2.807
    1   AR   Ar  137   2.809   4.157   6.249
    1   AR   Ar  138   5.554   0.957   5.676
    1   AR   Ar  139   6.379   1.955   4.865
    1   AR   Ar  140   4.432   6.419   4.824
    1   AR   Ar  141   3.930   5.626   4.604
    1   AR   Ar  142   4.832   6.554   7.835
    1   AR   Ar  143   5.194   6.655   6.759
    1   AR   Ar  144   0.188   1.754   5.294
    1   AR   Ar  145   4.443   4.854  -0.419
    1   AR   Ar  146   3.861   2.361   3.414
    1   AR   Ar  147   5.268   4.048  -0.316
    1   AR   Ar  148   2.968   6.005  -1.160
    1   AR   Ar  149   0.071   2.362  -0.727
    1   AR   Ar  150   1.829   2.525   2.943
    1   AR   Ar  151   2.594   3.364   3.355
    1   AR   Ar  152   0.606   0.908  -1.728
    1   AR   Ar  153   5.458   0.917   3.048
    1   AR   Ar  154   4.721   2.888   4.000
    1   AR   Ar  155   5.851   3.587   5.040
    1   AR   Ar  156   2.427   4.689   3.364
    1   AR   Ar  157   3.185   5.286   6.745
    1   AR   Ar  158   0.468   2.182   6.110
    1   AR   Ar  159   3.890   0.166   5.992
    1   AR   Ar  160   1.144   0.831   5.230
    1   AR   Ar  161   4.668   4.337   3.132
    1   AR   Ar  162   3.745   5.816  -0.382
    1   AR   Ar  163   6.263   4.287   2.394
    1   AR   Ar  164   2.101   5.819   2.167
    1   AR   Ar  165   3.481   4.319   1.256
    1   AR   Ar  166   2.834   3.750   5.010
    1   AR   Ar  167   6.418   7.057   3.747
    1   AR   Ar  168   5.639   4.532  -2.501
    1   AR   Ar  169   3.560   3.847   3.182
    1   AR   Ar  170   2.414   3.196   5.871
    1   AR   Ar  171   5.169   5.485   4.133
    1   AR   Ar  172   3.506   3.801   4.266
    1   AR   Ar  173   2.520   1.954   6.314
    1   AR   Ar  174   3.173   6.456   4.541
    1   AR   Ar  175   2.773   0.552   6.067
    1   AR   Ar  176   3.156   2.813   4.135
    1   AR   Ar  177   0.376   4.296  -0.785
    1   AR   Ar  178   2.939   6.290   0.111
    1   AR   Ar  179   3.462   6.698   0.970
    1   AR   Ar  180   4.931   0.521  -7.577
    1   AR   Ar  181   6.925   6.348   1.648
    1   AR   Ar  182   1.202   5.977   2.788
    1   AR   Ar  183   4.485   5.414   1.858
    1   AR   Ar  184   4.419   5.899   0.790
    1   AR   Ar  185   2.696   4.667   4.507
    1   AR   Ar  186   2.844   6.277   2.878
    1   AR   Ar  187   3.967   6.127   3.720
    1   AR   Ar  188   3.062   0.364   1.769
    1   AR   Ar  189   5.944   2.386   5.674
    1   AR   Ar  190   1.641   6.789   3.727
    1   AR   Ar  191   3.770   6.540   6.910
    1   AR   Ar  192   4.157   3.442   5.406
    1   AR   Ar  193   2.934   6.218   1.831
    1   AR   Ar  194   5.117   5.810  -1.366
    1   AR   Ar  195   5.880   1.081   0.912
    1   AR   Ar  196   3.642   0.836   0.486
    1   AR   Ar  197   4.642   3.143   0.541
    1   AR   Ar  198   5.907   6.960   1.163
    1   AR   Ar  199   1.130   0.180   2.872
    1   AR   Ar  200   6.090   2.596  -0.196
    1   AR   Ar  201   6.494   5.896   2.558
    1   AR   Ar  202   4.989   0.375   4.059
    1   AR   Ar  203   0.288   6.678   3.449
    1   AR   Ar  204   4.546   4.480   7.253
    1   AR   Ar  205   5.614   1.888   2.018
    1   AR   Ar  206   6.211   0.163   6.244
    1   AR   Ar  207   6.853   3.253   4.394
    1   AR   Ar  208   0.919   5.872   3.801
    1   AR   Ar  209   0.042   1.830  -1.798
    1   AR   Ar  210   1.439   0.804   0.413
    1   AR   Ar  211   0.267   3.252   0.277
    1   AR   Ar  212   6.333   3.777  -0.206
    1   AR   Ar  213   3.415   1.956   1.396
    1   AR   Ar  214   5.319   4.446   2.082
    1   AR   Ar  215   0.090   2.713   1.626
    1   AR   Ar  216   1.980   2.046   0.116
    1   AR   Ar  217   5.463   1.810   3.858
    1   AR   Ar  218   4.925   3.023   5.010
    1   AR   Ar  219   4.340   3.456   2.453
    1   AR   Ar  220   4.493   3.908   1.587
    1   AR   Ar  221   6.805   5.884   3.888
    1   AR   Ar  222   4.940   0.126   5.583
    1   AR   Ar  223   6.571   1.671   6.108
    1   AR   Ar  224   5.111   1.873   5.111
    1   AR   Ar  225   6.893   2.565   2.975
    1   AR   Ar  226   1.969   3.084   4.022
    1   AR   Ar  227   0.903   3.116   2.941
    1   AR   Ar  228   6.404   0.671   1.694
    1   AR   Ar  229   5.896   4.716  -1.044
    1   AR   Ar  230   3.871   4.653   3.930
    1   AR   Ar  231   4.732   1.938   2.631
    1   AR   Ar  232   4.922   2.727   1.821
    1   AR   Ar  233   6.589   1.949   3.833
    1   AR   Ar  234   5.832   2.671   4.306
    1   AR   Ar  235   6.492   1.020   3.611
    1   AR   Ar  236   4.110   4.707   5.163
    1   AR   Ar  237   4.635   0.352   7.143
    1   AR   Ar  238   5.541   5.158   6.457
    1   AR   Ar  239   1.092   4.387  11.344
    1   AR   Ar  240   2.032   2.891   6.848
    1   AR   Ar  241   1.687   6.913   0.146
    1   AR   Ar  242   5.618   5.733   1.378
    1   AR   Ar  243   4.859   6.510   2.346
    1   AR   Ar  244   6.806   6.405   0.311
    1   AR   Ar  245   4.211   1.461   3.676
    1   AR   Ar  246   5.660   6.827  -1.065
    1   AR   Ar  247   0.008   3.888   1.104
    1   AR   Ar  248   5.440   5.283  -0.058
    1   AR   Ar  249   4.233   0.035   1.852
    1   AR   Ar  250   4.998   6.510   3.903
    1   AR   Ar  251   4.995   4.141   4.782
    1   AR   Ar  252   2.624   4.686   1.813
    1   AR   Ar  253   5.641   2.081   7.286
    1   AR   Ar  254   5.572   3.229  10.944
    1   AR   Ar  255   4.327   6.205   9.029
    1   AR   Ar  256   5.724   6.016   3.459
    7.12000  7.12000 12.00000
Argon-slab step 5095
  256
    1   AR   Ar    1   4.955   3.639  -2.901
    1   AR   Ar    2   5.163   6.653   0.396
    1   AR   Ar    3   3.982   3.494  -1.112
    1   AR   Ar    4   2.717   1.254   0.999
    1   AR   Ar    5   6.905   5.125  -0.386
    1   AR   Ar    6   1.035   1.655   2.129
    1   AR   Ar    7   5.854   4.866   3.217
    1   AR   Ar    8   6.618   3.459  -1.071
    1   AR   Ar    9   6.901   6.611   4.735
    1   AR   Ar   10   5.918   4.961   5.097
    1   AR   Ar   11   1.146   6.145   5.023
    1   AR   Ar   12   0.438   1.553   4.041
    1   AR   Ar   13   6.661   0.482   4.627
    1   AR   Ar   14   3.727   1.066   6.660
    1   AR   Ar   15   2.368   6.508   9.679
    1   AR   Ar   16   0.813   0.198   6.218
    1   AR   Ar   17   5.934   3.878   1.139
    1   AR   Ar   18   0.091   5.018  -1.854
    1   AR   Ar   19   5.374   4.670   0.745
    1   AR   Ar   20   7.064   3.832  -2.322
    1   AR   Ar   21   2.425   1.533   2.081
    1   AR   Ar   22   5.349   0.839   1.902
    1   AR   Ar   23   0.862   6.474   0.688
    1   AR   Ar   24   5.844   2.700   3.306
    1   AR   Ar   25   1.114   2.786   4.596
    1   AR   Ar   26   5.833   6.786   4.681
    1   AR   Ar   27   1.468   0.542   1.838
    1   AR   Ar   28   1.755   1.666   4.020
    1   AR   Ar   29   5.115   1.211   7.836
    1   AR   Ar   30   0.354   0.992   3.170
    1   AR   Ar   31   2.279   0.737   6.951
    1   AR   Ar   32   1.310   2.077   5.439
    1   AR   Ar   33   0.080   4.340   0.259
    1   AR   Ar   34   1.255   4.903   2.369
    1   AR   Ar   35   5.434   5.457   2.476
    1   AR   Ar   36   5.241   2.545  -3.134
    1   AR   Ar   37   3.701   3.198   1.148
    1   AR   Ar   38   6.226   4.606   4.210
    1   AR   Ar   39   0.437   2.767   3.766
    1   AR   Ar   40   0.852   3.691   2.052
    1   AR   Ar   41   1.053   1.825   3.285
    1   AR   Ar   42   5.315   6.280   5.802
    1   AR   Ar   43   0.126   2.941   5.295
    1   AR   Ar   44   7.118   3.893   2.959
    1   AR   Ar   45   1.587   3.571   5.338
    1   AR   Ar   46   6.406   4.727   6.841
    1   AR   Ar   47   3.562   3.865   7.892
    1   AR   Ar   48   0.093   3.556   7.700
    1   AR   Ar   49   0.383   1.365   0.686
    1   AR   Ar   50   4.267   4.666   0.634
    1   AR   Ar   51   5.518   3.410   2.651
    1   AR   Ar   52   5.542   3.195  -0.925
    1   AR   Ar   53   4.408   0.140   3.111
    1   AR   Ar   54   7.057   7.066   2.404
    1   AR   Ar   55   6.972   4.985   2.168
    1   AR   Ar   56   6.270   1.758   2.786
    1   AR   Ar   57   3.883   4.472   2.184
    1   AR   Ar   58   0.764   3.807   4.209
    1   AR   Ar   59   3.073   5.205   5.590
    1   AR   Ar   60   0.253   5.666   3.060
    1   AR   Ar   61   0.304   3.526   6.445
    1   AR   Ar   62   0.103   4.405   4.825
    1   AR   Ar   63   3.244   2.421   7.323
    1   AR   Ar   64   0.291   5.523   4.813
    1   AR   Ar   65   4.037   0.999   2.217
    1   AR   Ar   66   1.711   1.432   1.271
    1   AR   Ar   67   4.245   7.108  -0.556
    1   AR   Ar   68   0.010   1.350  -0.836
    1   AR   Ar   69   2.477   1.233  -0.127
    1   AR   Ar   70   7.095   1.577   1.905
    1   AR   Ar   71   2.930   0.827   2.855
    1   AR   Ar   72   4.320   1.225   1.296
    1   AR   Ar   73   3.252   0.157   3.884
    1   AR   Ar   74   1.083   0.519   3.840
    1   AR   Ar   75   3.235   0.612   4.982
    1   AR   Ar   76   2.257   0.359   1.056
    1   AR   Ar   77   2.089   5.838   5.778
    1   AR   Ar   78   6.744   5.438   6.028
    1   AR   Ar   79   2.888   6.635   5.850
    1   AR   Ar   80   3.942   6.001   5.700
    1   AR   Ar   81   1.912   6.302   1.169
    1   AR   Ar   82   6.781   5.059   1.201
    1   AR   Ar   83   1.367   3.605   1.159
    1   AR   Ar   84   0.965   4.614   1.015
    1   AR   Ar   85   1.078   3.750  -0.104
    1   AR   Ar   86   1.775   5.304   1.322
    1   AR   Ar   87   3.306   2.701   2.453
    1   AR   Ar   88   3.541   5.353   1.221
    1   AR   Ar   89   6.318   2.086   1.011
    1   AR   Ar   90   3.346   1.414   5.758
    1   AR   Ar   91   1.864   1.165   3.043
    1   AR   Ar   92   2.019   2.556   1.658
    1   AR   Ar   93   2.152   0.904   5.322
    1   AR   Ar   94   1.041   7.026   8.462
    1   AR   Ar   95   4.443   1.081   5.160
    1   AR   Ar   96   2.378   0.005   4.799
    1   AR   Ar   97   2.654   2.313  -0.689
    1   AR   Ar   98   1.764   4.346   4.251
    1   AR   Ar   99   5.883   0.618  -0.225
    1   AR   Ar  100   6.408   2.790  -2.496
    1   AR   Ar  101   3.898   6.219   2.428
    1   AR   Ar  102   3.343   1.653   2.538
    1   AR   Ar  103   1.801   4.435   0.559
    1   AR   Ar  104   3.244   7.103  -1.199
    1   AR   Ar  105   2.816   2.258   3.300
    1   AR   Ar  106   4.161   2.469   4.695
    1   AR   Ar  107   1.109   5.016   5.365
    1   AR   Ar  108   2.255   0.642   3.906
    1   AR   Ar  109   2.106   4.680   5.348
    1   AR   Ar  110   2.318   2.313   5.023
    1   AR   Ar  111   3.724   5.598   8.116
    1   AR   Ar  112   6.231   6.237   5.654
    1   AR   Ar  113   1.000   6.099  -1.537
    1   AR   Ar  114   2.656   0.306   0.024
    1   AR   Ar  115   0.324   5.461   0.581
    1   AR   Ar  116   4.760   0.425   0.831
    1   AR   Ar  117   0.220   4.864   3.713
    1   AR   Ar  118   2.028   5.883   3.366
    1   AR   Ar  119   0.946   4.082   3.273
    1   AR   Ar  120   2.319   7.029   2.213
    1   AR   Ar  121   4.918   4.390   5.954
    1   AR   Ar  122   2.953   5.583   3.998
    1   AR   Ar  123   3.326   2.849   5.303
    1   AR   Ar  124   0.804   5.701   1.698
    1   AR   Ar  125   5.520   3.672   3.978
    1   AR   Ar  126   6.806   0.819   7.436
    1   AR   Ar  127   4.954   3.113   6.098
    1   AR   Ar  128   1.341   3.715   6.389
    1   AR   Ar  129   1.997   5.592   4.569
    1   AR   Ar  130   3.938   0.895  -4.760
    1   AR   Ar  131   4.329   6.551  -1.730
    1   AR   Ar  132   1.053   2.186   0.857
    1   AR   Ar  133   4.056   0.409   4.487
    1   AR   Ar  134   2.864   1.645   4.185
    1   AR   Ar  135   5.593   1.064   4.598
    1   AR   Ar  136   5.921   6.798   2.805
    1   AR   Ar  137   2.793   4.185   6.231
    1   AR   Ar  138   5.566   0.958   5.700
    1   AR   Ar  139   6.366   1.945   4.833
    1   AR   Ar  140   4.423   6.418   4.818
    1   AR   Ar  141   3.910   5.611   4.601
    1   AR   Ar  142   4.831   6.565   7.844
    1   AR   Ar  143   5.191   6.659   6.756
    1   AR   Ar  144   0.218   1.721   5.283
    1   AR   Ar  145   4.455   4.820  -0.404
    1   AR   Ar  146   3.867   2.382   3.430
    1   AR   Ar  147   5.245   4.068  -0.320
    1   AR   Ar  148   3.006   6.013  -1.136
    1   AR   Ar  149   0.098   2.387  -0.766
    1   AR   Ar  150   1.867   2.529   2.934
    1   AR   Ar  151   2.602   3.369   3.350
    1   AR   Ar  152   0.607   0.916  -1.741
    1   AR   Ar  153   5.446   0.904   3.056
    1   AR   Ar  154   4.750   2.906   3.936
    1   AR   Ar  155   5.830   3.612   5.061
    1   AR   Ar  156   2.438   4.682   3.356
    1   AR   Ar  157   3.210   5.311   6.746
    1   AR   Ar  158   0.455   2.214   6.087
    1   AR   Ar  159   3.885   0.175   5.973
    1   AR   Ar  160   1.123   0.860   5.228
    1   AR   Ar  161   4.647   4.368   3.127
    1   AR   Ar  162   3.741   5.788  -0.393
    1   AR   Ar  163   6.274   4.261   2.429
    1   AR   Ar  164   2.110   5.830   2.183
    1   AR   Ar  165   3.468   4.307   1.250
    1   AR   Ar  166   2.837   3.751   5.013
    1   AR   Ar  167   6.415   7.049   3.726
    1   AR   Ar  168   5.669   4.566  -2.499
    1   AR   Ar  169   3.533   3.813   3.184
    1   AR   Ar  170   2.447   3.171   5.835
    1   AR   Ar  171   5.180   5.483   4.154
    1   AR   Ar  172   3.506   3.769   4.257
    1   AR   Ar  173   2.553   1.978   6.342
    1   AR   Ar  174   3.130   6.442   4.526
    1   AR   Ar  175   2.799   0.554   6.089
    1   AR   Ar  176   3.190   2.825   4.153
    1   AR   Ar  177   0.338   4.289  -0.767
    1   AR   Ar  178   2.931   6.305   0.117
    1   AR   Ar  179   3.464   6.686   0.980
    1   AR   Ar  180   4.932   0.527  -7.605
    1   AR   Ar  181   6.913   6.365   1.614
    1   AR   Ar  182   1.178   5.966   2.791
    1   AR   Ar  183   4.462   5.428   1.852
    1   AR   Ar  184   4.429   5.864   0.812
    1   AR   Ar  185   2.698   4.649   4.516
    1   AR   Ar  186   2.862   6.313   2.900
    1   AR   Ar  187   3.980   6.094   3.698
    1   AR   Ar  188   3.068   0.381   1.760
    1   AR   Ar  189   5.931   2.369   5.658
    1   AR   Ar  190   1.634   6.819   3.762
    1   AR   Ar  191   3.792   6.546   6.922
    1   AR   Ar  192   4.163   3.445   5.410
    1   AR   Ar  193   2.941   6.212   1.827
    1   AR   Ar  194   5.117   5.828  -1.365
    1   AR   Ar  195   5.919   1.099   0.922
    1   AR   Ar  196   3.648   0.857   0.505
    1   AR   Ar  197   4.639   3.168   0.555
    1   AR   Ar  198   5.923   6.983   1.170
    1   AR   Ar  199   1.107   0.197   2.858
    1   AR   Ar  200   6.061   2.622  -0.179
    1   AR   Ar  201   6.497   5.892   2.581
    1   AR   Ar  202   5.017   0.363   4.055
    1   AR   Ar  203   0.270   6.689   3.459
    1   AR   Ar  204   4.521   4.493   7.246
    1   AR   Ar  205   5.591   1.881   2.024
    1   AR   Ar  206   6.230   0.177   6.264
    1   AR   Ar  207   6.848   3.236   4.406
    1   AR   Ar  208   0.929   5.868   3.802
    1   AR   Ar  209   0.068   1.832  -1.788
    1   AR   Ar  210   1.454   0.848   0.377
    1   AR   Ar  211   0.248   3.251   0.290
    1   AR   Ar  212   6.322   3.760  -0.198
    1   AR   Ar  213   3.429   1.991   1.365
    1   AR   Ar  214   5.337   4.446   2.090
    1   AR   Ar  215   0.083   2.709   1.621
    1   AR   Ar  216   2.000   2.032   0.098
    1   AR   Ar  217   5.503   1.833   3.874
    1   AR   Ar  218   4.924   3.032   4.975
    1   AR   Ar  219   4.331   3.468   2.463
    1   AR   Ar  220   4.469   3.928   1.571
    1   AR   Ar  221   6.776   5.879   3.889
    1   AR   Ar  222   4.943   0.133   5.587
    1   AR   Ar  223   6.569   1.657   6.119
    1   AR   Ar  224   5.098   1.888   5.112
    1   AR   Ar  225   6.909   2.544   2.961
    1   AR   Ar  226   1.991   3.065   4.037
    1   AR   Ar  227   0.898   3.105   2.962
    1   AR   Ar  228   6.413   0.637   1.710
    1   AR   Ar  229   5.909   4.725  -1.028
    1   AR   Ar  230   3.861   4.664   3.899
    1   AR   Ar  231   4.676   1.932   2.622
    1   AR   Ar  232   4.917   2.710   1.844
    1   AR   Ar  233   6.596   1.943   3.839
    1   AR   Ar  234   5.873   2.672   4.316
    1   AR   Ar  235   6.498   1.003   3.603
    1   AR   Ar  236   4.089   4.717   5.188
    1   AR   Ar  237   4.614   0.338   7.176
    1   AR   Ar  238   5.524   5.131   6.468
    1   AR   Ar  239   1.079   4.370  11.318
    1   AR   Ar  240   2.021   2.892   6.850
    1   AR   Ar  241   1.705   6.910   0.150
    1   AR   Ar  242   5.604   5.694   1.391
    1   AR   Ar  243   4.844   6.524   2.331
    1   AR   Ar  244   6.787   6.410   0.297
    1   AR   Ar  245   4.221   1.461   3.684
    1   AR   Ar  246   5.677   6.862  -1.075
    1   AR   Ar  247   0.041   3.858   1.128
    1   AR   Ar  248   5.434   5.263  -0.065
    1   AR   Ar  249   4.212   0.073   1.836
    1   AR   Ar  250   5.001   6.531   3.866
    1   AR   Ar  251   5.002   4.138   4.763
    1   AR   Ar  252   2.635   4.703   1.807
    1   AR   Ar  253   5.632   2.086   7.274
    1   AR   Ar  254   5.546   3.231  10.985
    1   AR   Ar  255   4.345   6.188   9.027
    1   AR   Ar  256   5.711   6.001   3.409
    7.12000  7.12000 12.00000
Argon-slab step 5100
  256
    1   AR   Ar    1   4.919   3.612  -2.919
    1   AR   Ar    2   5.156   6.633   0.416
    1   AR   Ar    3   3.980   3.489  -1.107
    1   AR   Ar    4   2.741   1.247   0.987
    1   AR   Ar    5   6.893   5.165  -0.402
    1   AR   Ar    6   1.080   1.639   2.152
    1   AR   Ar    7   5.855   4.863   3.224
    1   AR   Ar    8   6.610   3.472  -1.088
    1   AR   Ar    9   6.887   6.593   4.751
    1   AR   Ar   10   5.924   4.993   5.116
    1   AR   Ar   11   1.134   6.138   5.010
    1   AR   Ar   12   0.431   1.536   4.041
    1   AR   Ar   13   6.661   0.456   4.592
    1   AR   Ar   14   3.717   1.047   6.639
    1   AR   Ar   15   2.347   6.484   9.677
    1   AR   Ar   16   0.810   0.201   6.214
    1   AR   Ar   17   5.932   3.892   1.136
    1   AR   Ar   18   0.093   5.016  -1.855
    1   AR   Ar   19   5.359   4.658   0.747
    1   AR   Ar   20   7.038   3.822  -2.303
    1   AR   Ar   21   2.423   1.530   2.088
    1   AR   Ar   22   5.312   0.858   1.910
    1   AR   Ar   23   0.872   6.452   0.710
    1   AR   Ar   24   5.847   2.722   3.304
    1   AR   Ar   25   1.124   2.787   4.633
    1   AR   Ar   26   5.808   6.812   4.671
    1   AR   Ar   27   1.434   0.556   1.807
    1   AR   Ar   28   1.752   1.658   3.997
    1   AR   Ar   29   5.103   1.205   7.864
    1   AR   Ar   30   0.336   0.985   3.147
    1   AR   Ar   31   2.256   0.700   6.947
    1   AR   Ar   32   1.294   2.083   5.425
    1   AR   Ar   33   0.074   4.340   0.248
    1   AR   Ar   34   1.257   4.899   2.389
    1   AR   Ar   35   5.413   5.472   2.456
    1   AR   Ar   36   5.222   2.563  -3.154
    1   AR   Ar   37   3.704   3.171   1.161
    1   AR   Ar   38   6.221   4.617   4.212
    1   AR   Ar   39   0.439   2.753   3.786
    1   AR   Ar   40   0.829   3.685   2.069
    1   AR   Ar   41   1.050   1.818   3.301
    1   AR   Ar   42   5.289   6.256   5.813
    1   AR   Ar   43   0.133   2.941   5.296
    1   AR   Ar   44   7.112   3.923   2.947
    1   AR   Ar   45   1.613   3.587   5.327
    1   AR   Ar   46   6.384   4.723   6.835
    1   AR   Ar   47   3.560   3.877   7.876
    1   AR   Ar   48   0.098   3.565   7.664
    1   AR   Ar   49   0.421   1.352   0.684
    1   AR   Ar   50   4.300   4.646   0.639
    1   AR   Ar   51   5.539   3.444   2.654
    1   AR   Ar   52   5.499   3.208  -0.883
    1   AR   Ar   53   4.432   0.148   3.120
    1   AR   Ar   54   7.015   7.058   2.423
    1   AR   Ar   55   6.975   4.962   2.205
    1   AR   Ar   56   6.235   1.730   2.799
    1   AR   Ar   57   3.907   4.498   2.152
    1   AR   Ar   58   0.779   3.791   4.187
    1   AR   Ar   59   3.082   5.172   5.581
    1   AR   Ar   60   0.219   5.663   3.052
    1   AR   Ar   61   0.285   3.556   6.436
    1   AR   Ar   62   0.107   4.405   4.847
    1   AR   Ar   63   3.264   2.419   7.347
    1   AR   Ar   64   0.321   5.514   4.795
    1   AR   Ar   65   4.042   1.006   2.215
    1   AR   Ar   66   1.723   1.421   1.254
    1   AR   Ar   67   4.263   0.017  -0.567
    1   AR   Ar   68   0.021   1.380  -0.821
    1   AR   Ar   69   2.483   1.222  -0.138
    1   AR   Ar   70   7.113   1.610   1.877
    1   AR   Ar   71   2.913   0.798   2.886
    1   AR   Ar   72   4.334   1.237   1.309
    1   AR   Ar   73   3.249   0.157   3.888
    1   AR   Ar   74   1.089   0.500   3.836
    1   AR   Ar   75   3.237   0.598   4.976
    1   AR   Ar   76   2.269   0.342   1.089
    1   AR   Ar   77   2.093   5.840   5.778
    1   AR   Ar   78   6.743   5.442   6.031
    1   AR   Ar   79   2.895   6.616   5.848
    1   AR   Ar   80   3.914   6.006   5.737
    1   AR   Ar   81   1.915   6.325   1.158
    1   AR   Ar   82   6.780   5.095   1.214
    1   AR   Ar   83   1.382   3.592   1.154
    1   AR   Ar   84   0.999   4.628   1.011
    1   AR   Ar   85   1.068   3.717  -0.092
    1   AR   Ar   86   1.771   5.305   1.300
    1   AR   Ar   87   3.305   2.709   2.470
    1   AR   Ar   88   3.531   5.380   1.224
    1   AR   Ar   89   6.316   2.070   1.022
    1   AR   Ar   90   3.336   1.406   5.758
    1   AR   Ar   91   1.875   1.125   3.044
    1   AR   Ar   92   2.037   2.536   1.619
    1   AR   Ar   93   2.136   0.891   5.302
    1   AR   Ar   94   1.022   7.044   8.471
    1   AR   Ar   95   4.429   1.095   5.174
    1   AR   Ar   96   2.395   7.098   4.777
    1   AR   Ar   97   2.682   2.299  -0.713
    1   AR   Ar   98   1.761   4.347   4.268
    1   AR   Ar   99   5.890   0.605  -0.209
    1   AR   Ar  100   6.367   2.777  -2.481
    1   AR   Ar  101   3.911   6.223   2.429
    1   AR   Ar  102   3.352   1.657   2.551
    1   AR   Ar  103   1.816   4.428   0.550
    1   AR   Ar  104   3.237   7.104  -1.185
    1   AR   Ar  105   2.800   2.261   3.299
    1   AR   Ar  106   4.167   2.444   4.695
    1   AR   Ar  107   1.114   5.014   5.360
    1   AR   Ar  108   2.230   0.625   3.907
    1   AR   Ar  109   2.099   4.662   5.321
    1   AR   Ar  110   2.320   2.327   5.043
    1   AR   Ar  111   3.696   5.560   8.081
    1   AR   Ar  112   6.239   6.253   5.668
    1   AR   Ar  113   1.022   6.108  -1.566
    1   AR   Ar  114   2.678   0.313   0.037
    1   AR   Ar  115   0.333   5.446   0.572
    1   AR   Ar  116   4.798   0.400   0.852
    1   AR   Ar  117   0.217   4.879   3.698
    1   AR   Ar  118   2.042   5.915   3.399
    1   AR   Ar  119   0.979   4.083   3.256
    1   AR   Ar  120   2.314   7.062   2.187
    1   AR   Ar  121   4.902   4.377   5.933
    1   AR   Ar  122   2.941   5.561   4.031
    1   AR   Ar  123   3.297   2.837   5.270
    1   AR   Ar  124   0.800   5.682   1.721
    1   AR   Ar  125   5.500   3.657   3.961
    1   AR   Ar  126   6.792   0.808   7.433
    1   AR   Ar  127   4.958   3.117   6.110
    1   AR   Ar  128   1.326   3.703   6.358
    1   AR   Ar  129   1.978   5.601   4.588
    1   AR   Ar  130   3.928   0.870  -4.753
    1   AR   Ar  131   4.315   6.565  -1.730
    1   AR   Ar  132   1.079   2.205   0.850
    1   AR   Ar  133   4.066   0.413   4.476
    1   AR   Ar  134   2.833   1.629   4.155
    1   AR   Ar  135   5.587   1.053   4.621
    1   AR   Ar  136   5.941   6.771   2.798
    1   AR   Ar  137   2.776   4.214   6.210
    1   AR   Ar  138   5.580   0.964   5.724
    1   AR   Ar  139   6.355   1.927   4.804
    1   AR   Ar  140   4.423   6.430   4.813
    1   AR   Ar  141   3.882   5.583   4.600
    1   AR   Ar  142   4.829   6.576   7.853
    1   AR   Ar  143   5.189   6.665   6.755
    1   AR   Ar  144   0.217   1.761   5.279
    1   AR   Ar  145   4.466   4.788  -0.392
    1   AR   Ar  146   3.874   2.408   3.443
    1   AR   Ar  147   5.222   4.089  -0.322
    1   AR   Ar  148   3.043   6.022  -1.112
    1   AR   Ar  149   0.124   2.418  -0.804
    1   AR   Ar  150   1.902   2.533   2.924
    1   AR   Ar  151   2.617   3.378   3.334
    1   AR   Ar  152   0.609   0.923  -1.753
    1   AR   Ar  153   5.434   0.892   3.065
    1   AR   Ar  154   4.781   2.924   3.868
    1   AR   Ar  155   5.816   3.634   5.084
    1   AR   Ar  156   2.449   4.675   3.349
    1   AR   Ar  157   3.235   5.337   6.746
    1   AR   Ar  158   0.476   2.221   6.112
    1   AR   Ar  159   3.902   0.165   5.959
    1   AR   Ar  160   1.097   0.889   5.224
    1   AR   Ar  161   4.627   4.398   3.121
    1   AR   Ar  162   3.741   5.759  -0.402
    1   AR   Ar  163   6.287   4.231   2.465
    1   AR   Ar  164   2.108   5.838   2.207
    1   AR   Ar  165   3.476   4.301   1.244
    1   AR   Ar  166   2.834   3.750   5.021
    1   AR   Ar  167   6.409   7.039   3.706
    1   AR   Ar  168   5.699   4.598  -2.497
    1   AR   Ar  169   3.510   3.781   3.183
    1   AR   Ar  170   2.478   3.144   5.803
    1   AR   Ar  171   5.190   5.478   4.178
    1   AR   Ar  172   3.512   3.740   4.248
    1   AR   Ar  173   2.587   2.004   6.369
    1   AR   Ar  174   3.092   6.428   4.515
    1   AR   Ar  175   2.831   0.554   6.107
    1   AR   Ar  176   3.219   2.829   4.172
    1   AR   Ar  177   0.300   4.280  -0.752
    1   AR   Ar  178   2.921   6.320   0.123
    1   AR   Ar  179   3.459   6.695   0.998
    1   AR   Ar  180   4.933   0.533  -7.633
    1   AR   Ar  181   6.901   6.379   1.577
    1   AR   Ar  182   1.158   5.959   2.785
    1   AR   Ar  183   4.440   5.441   1.846
    1   AR   Ar  184   4.440   5.829   0.833
    1   AR   Ar  185   2.689   4.605   4.498
    1   AR   Ar  186   2.883   6.351   2.923
    1   AR   Ar  187   4.001   6.072   3.683
    1   AR   Ar  188   3.084   0.404   1.748
    1   AR   Ar  189   5.915   2.356   5.645
    1   AR   Ar  190   1.633   6.839   3.796
    1   AR   Ar  191   3.796   6.538   6.938
    1   AR   Ar  192   4.159   3.459   5.418
    1   AR   Ar  193   2.959   6.211   1.816
    1   AR   Ar  194   5.119   5.846  -1.363
    1   AR   Ar  195   5.955   1.114   0.930
    1   AR   Ar  196   3.655   0.845   0.504
    1   AR   Ar  197   4.638   3.194   0.569
    1   AR   Ar  198   5.936   7.005   1.176
    1   AR   Ar  199   1.085   0.212   2.840
    1   AR   Ar  200   6.034   2.648  -0.160
    1   AR   Ar  201   6.495   5.889   2.602
    1   AR   Ar  202   5.047   0.365   4.051
    1   AR   Ar  203   0.268   6.691   3.471
    1   AR   Ar  204   4.519   4.484   7.255
    1   AR   Ar  205   5.568   1.875   2.025
    1   AR   Ar  206   6.178   0.160   6.254
    1   AR   Ar  207   6.838   3.224   4.413
    1   AR   Ar  208   0.942   5.864   3.814
    1   AR   Ar  209   0.093   1.839  -1.780
    1   AR   Ar  210   1.471   0.892   0.341
    1   AR   Ar  211   0.226   3.245   0.303
    1   AR   Ar  212   6.288   3.756  -0.176
    1   AR   Ar  213   3.443   2.027   1.337
    1   AR   Ar  214   5.347   4.447   2.095
    1   AR   Ar  215   0.077   2.706   1.616
    1   AR   Ar  216   2.007   2.032   0.090
    1   AR   Ar  217   5.539   1.852   3.886
    1   AR   Ar  218   4.946   3.039   4.938
    1   AR   Ar  219   4.330   3.474   2.476
    1   AR   Ar  220   4.452   3.947   1.543
    1   AR   Ar  221   6.744   5.874   3.893
    1   AR   Ar  222   4.942   0.137   5.589
    1   AR   Ar  223   6.567   1.641   6.130
    1   AR   Ar  224   5.093   1.901   5.115
    1   AR   Ar  225   6.928   2.527   2.945
    1   AR   Ar  226   2.004   3.040   4.064
    1   AR   Ar  227   0.898   3.091   2.974
    1   AR   Ar  228   6.420   0.610   1.724
    1   AR   Ar  229   5.923   4.733  -1.010
    1   AR   Ar  230   3.852   4.681   3.867
    1   AR   Ar  231   4.618   1.926   2.615
    1   AR   Ar  232   4.926   2.712   1.865
    1   AR   Ar  233   6.604   1.953   3.841
    1   AR   Ar  234   5.912   2.682   4.334
    1   AR   Ar  235   6.488   0.988   3.620
    1   AR   Ar  236   4.068   4.725   5.213
    1   AR   Ar  237   4.591   0.326   7.209
    1   AR   Ar  238   5.504   5.107   6.476
    1   AR   Ar  239   1.066   4.353  11.292
    1   AR   Ar  240   1.985   2.899   6.834
    1   AR   Ar  241   1.724   6.907   0.155
    1   AR   Ar  242   5.589   5.655   1.403
    1   AR   Ar  243   4.842   6.537   2.316
    1   AR   Ar  244   6.760   6.419   0.286
    1   AR   Ar  245   4.235   1.454   3.695
    1   AR   Ar  246   5.692   6.896  -1.084
    1   AR   Ar  247   0.074   3.825   1.165
    1   AR   Ar  248   5.428   5.247  -0.079
    1   AR   Ar  249   4.183   0.106   1.811
    1   AR   Ar  250   4.997   6.543   3.830
    1   AR   Ar  251   5.003   4.141   4.746
    1   AR   Ar  252   2.645   4.723   1.802
    1   AR   Ar  253   5.601   2.112   7.313
    1   AR   Ar  254   5.520   3.233  11.026
    1   AR   Ar  255   4.342   6.209   9.033
    1   AR   Ar  256   5.706   5.979   3.356
    7.12000  7.12000 12.00000
Argon-slab step 5105
  256
    1   AR   Ar    1   4.883   3.585  -2.937
    1   AR   Ar    2   5.151   6.610   0.434
    1   AR   Ar    3   3.979   3.485  -1.102
    1   AR   Ar    4   2.767   1.243   0.974
    1   AR   Ar    5   6.879   5.206  -0.418
    1   AR   Ar    6   1.128   1.623   2.175
    1   AR   Ar    7   5.856   4.860   3.232
    1   AR   Ar    8   6.606   3.483  -1.112
    1   AR   Ar    9   6.875   6.568   4.768
    1   AR   Ar   10   5.927   5.027   5.142
    1   AR   Ar   11   1.124   6.132   4.998
    1   AR   Ar   12   0.422   1.516   4.052
    1   AR   Ar   13   6.684   0.450   4.605
    1   AR   Ar   14   3.709   1.025   6.622
    1   AR   Ar   15   2.327   6.459   9.675
    1   AR   Ar   16   0.806   0.203   6.208
    1   AR   Ar   17   5.933   3.902   1.135
    1   AR   Ar   18   0.095   5.012  -1.855
    1   AR   Ar   19   5.342   4.614   0.733
    1   AR   Ar   20   7.012   3.813  -2.283
    1   AR   Ar   21   2.418   1.526   2.095
    1   AR   Ar   22   5.272   0.873   1.917
    1   AR   Ar   23   0.892   6.408   0.724
    1   AR   Ar   24   5.853   2.740   3.302
    1   AR   Ar   25   1.133   2.788   4.670
    1   AR   Ar   26   5.779   6.849   4.650
    1   AR   Ar   27   1.460   0.575   1.802
    1   AR   Ar   28   1.752   1.651   3.981
    1   AR   Ar   29   5.092   1.199   7.891
    1   AR   Ar   30   0.319   0.977   3.121
    1   AR   Ar   31   2.231   0.665   6.947
    1   AR   Ar   32   1.280   2.086   5.410
    1   AR   Ar   33   0.068   4.342   0.241
    1   AR   Ar   34   1.258   4.895   2.408
    1   AR   Ar   35   5.400   5.494   2.448
    1   AR   Ar   36   5.203   2.582  -3.174
    1   AR   Ar   37   3.706   3.144   1.177
    1   AR   Ar   38   6.222   4.621   4.208
    1   AR   Ar   39   0.438   2.733   3.814
    1   AR   Ar   40   0.803   3.682   2.088
    1   AR   Ar   41   1.040   1.838   3.293
    1   AR   Ar   42   5.244   6.228   5.821
    1   AR   Ar   43   0.143   2.937   5.302
    1   AR   Ar   44   7.111   3.950   2.939
    1   AR   Ar   45   1.639   3.603   5.311
    1   AR   Ar   46   6.367   4.716   6.830
    1   AR   Ar   47   3.558   3.890   7.860
    1   AR   Ar   48   0.103   3.574   7.626
    1   AR   Ar   49   0.459   1.339   0.683
    1   AR   Ar   50   4.332   4.626   0.647
    1   AR   Ar   51   5.555   3.482   2.653
    1   AR   Ar   52   5.456   3.222  -0.844
    1   AR   Ar   53   4.456   0.157   3.128
    1   AR   Ar   54   6.972   7.050   2.444
    1   AR   Ar   55   6.984   4.940   2.248
    1   AR   Ar   56   6.202   1.700   2.815
    1   AR   Ar   57   3.928   4.530   2.134
    1   AR   Ar   58   0.791   3.772   4.175
    1   AR   Ar   59   3.090   5.139   5.571
    1   AR   Ar   60   0.190   5.658   3.042
    1   AR   Ar   61   0.263   3.584   6.427
    1   AR   Ar   62   0.111   4.405   4.867
    1   AR   Ar   63   3.282   2.417   7.369
    1   AR   Ar   64   0.346   5.504   4.774
    1   AR   Ar   65   4.046   1.013   2.227
    1   AR   Ar   66   1.734   1.413   1.236
    1   AR   Ar   67   4.279   0.045  -0.579
    1   AR   Ar   68   0.031   1.405  -0.803
    1   AR   Ar   69   2.493   1.220  -0.157
    1   AR   Ar   70   0.010   1.643   1.850
    1   AR   Ar   71   2.911   0.823   2.863
    1   AR   Ar   72   4.350   1.255   1.311
    1   AR   Ar   73   3.244   0.158   3.888
    1   AR   Ar   74   1.104   0.531   3.828
    1   AR   Ar   75   3.230   0.588   4.976
    1   AR   Ar   76   2.276   0.318   1.121
    1   AR   Ar   77   2.094   5.848   5.779
    1   AR   Ar   78   6.745   5.440   6.035
    1   AR   Ar   79   2.904   6.597   5.844
    1   AR   Ar   80   3.894   6.012   5.777
    1   AR   Ar   81   1.921   6.353   1.147
    1   AR   Ar   82   6.771   5.128   1.226
    1   AR   Ar   83   1.397   3.577   1.146
    1   AR   Ar   84   1.012   4.645   1.016
    1   AR   Ar   85   1.062   3.687  -0.079
    1   AR   Ar   86   1.767   5.301   1.280
    1   AR   Ar   87   3.305   2.721   2.486
    1   AR   Ar   88   3.519   5.408   1.229
    1   AR   Ar   89   6.318   2.060   1.035
    1   AR   Ar   90   3.328   1.404   5.755
    1   AR   Ar   91   1.884   1.086   3.041
    1   AR   Ar   92   2.055   2.515   1.579
    1   AR   Ar   93   2.125   0.881   5.282
    1   AR   Ar   94   1.002   7.062   8.480
    1   AR   Ar   95   4.414   1.108   5.192
    1   AR   Ar   96   2.403   7.074   4.756
    1   AR   Ar   97   2.711   2.284  -0.738
    1   AR   Ar   98   1.748   4.345   4.283
    1   AR   Ar   99   5.896   0.591  -0.192
    1   AR   Ar  100   6.326   2.764  -2.465
    1   AR   Ar  101   3.913   6.225   2.432
    1   AR   Ar  102   3.362   1.671   2.565
    1   AR   Ar  103   1.844   4.417   0.538
    1   AR   Ar  104   3.232   7.105  -1.169
    1   AR   Ar  105   2.788   2.262   3.301
    1   AR   Ar  106   4.168   2.414   4.692
    1   AR   Ar  107   1.136   5.014   5.355
    1   AR   Ar  108   2.202   0.601   3.923
    1   AR   Ar  109   2.092   4.642   5.301
    1   AR   Ar  110   2.321   2.341   5.062
    1   AR   Ar  111   3.669   5.522   8.046
    1   AR   Ar  112   6.264   6.275   5.676
    1   AR   Ar  113   1.042   6.117  -1.595
    1   AR   Ar  114   2.707   0.298   0.056
    1   AR   Ar  115   0.349   5.434   0.557
    1   AR   Ar  116   4.836   0.376   0.873
    1   AR   Ar  117   0.214   4.888   3.689
    1   AR   Ar  118   2.055   5.942   3.434
    1   AR   Ar  119   1.019   4.094   3.231
    1   AR   Ar  120   2.301   7.090   2.166
    1   AR   Ar  121   4.881   4.365   5.908
    1   AR   Ar  122   2.928   5.533   4.057
    1   AR   Ar  123   3.272   2.820   5.235
    1   AR   Ar  124   0.796   5.662   1.743
    1   AR   Ar  125   5.486   3.645   3.943
    1   AR   Ar  126   6.777   0.798   7.429
    1   AR   Ar  127   4.964   3.120   6.120
    1   AR   Ar  128   1.314   3.692   6.328
    1   AR   Ar  129   1.960   5.608   4.607
    1   AR   Ar  130   3.918   0.845  -4.746
    1   AR   Ar  131   4.293   6.580  -1.730
    1   AR   Ar  132   1.106   2.227   0.843
    1   AR   Ar  133   4.090   0.406   4.482
    1   AR   Ar  134   2.805   1.617   4.133
    1   AR   Ar  135   5.584   1.043   4.645
    1   AR   Ar  136   5.961   6.753   2.784
    1   AR   Ar  137   2.759   4.243   6.187
    1   AR   Ar  138   5.597   0.974   5.747
    1   AR   Ar  139   6.347   1.899   4.787
    1   AR   Ar  140   4.426   6.449   4.809
    1   AR   Ar  141   3.851   5.550   4.600
    1   AR   Ar  142   4.826   6.586   7.861
    1   AR   Ar  143   5.186   6.671   6.758
    1   AR   Ar  144   0.208   1.816   5.270
    1   AR   Ar  145   4.474   4.761  -0.382
    1   AR   Ar  146   3.877   2.428   3.451
    1   AR   Ar  147   5.204   4.108  -0.321
    1   AR   Ar  148   3.077   6.033  -1.091
    1   AR   Ar  149   0.149   2.454  -0.841
    1   AR   Ar  150   1.930   2.538   2.912
    1   AR   Ar  151   2.628   3.384   3.314
    1   AR   Ar  152   0.612   0.927  -1.764
    1   AR   Ar  153   5.422   0.881   3.075
    1   AR   Ar  154   4.809   2.938   3.797
    1   AR   Ar  155   5.810   3.654   5.107
    1   AR   Ar  156   2.461   4.669   3.344
    1   AR   Ar  157   3.260   5.363   6.744
    1   AR   Ar  158   0.498   2.234   6.148
    1   AR   Ar  159   3.918   0.155   5.944
    1   AR   Ar  160   1.066   0.920   5.220
    1   AR   Ar  161   4.609   4.427   3.112
    1   AR   Ar  162   3.746   5.729  -0.406
    1   AR   Ar  163   6.295   4.200   2.497
    1   AR   Ar  164   2.100   5.842   2.235
    1   AR   Ar  165   3.502   4.307   1.245
    1   AR   Ar  166   2.827   3.749   5.035
    1   AR   Ar  167   6.402   7.026   3.687
    1   AR   Ar  168   5.730   4.630  -2.495
    1   AR   Ar  169   3.498   3.754   3.179
    1   AR   Ar  170   2.504   3.117   5.778
    1   AR   Ar  171   5.195   5.475   4.198
    1   AR   Ar  172   3.526   3.727   4.240
    1   AR   Ar  173   2.621   2.029   6.395
    1   AR   Ar  174   3.063   6.414   4.507
    1   AR   Ar  175   2.865   0.552   6.122
    1   AR   Ar  176   3.239   2.816   4.191
    1   AR   Ar  177   0.263   4.268  -0.743
    1   AR   Ar  178   2.909   6.336   0.129
    1   AR   Ar  179   3.457   6.706   1.017
    1   AR   Ar  180   4.933   0.539  -7.661
    1   AR   Ar  181   6.895   6.385   1.551
    1   AR   Ar  182   1.142   5.955   2.774
    1   AR   Ar  183   4.421   5.453   1.842
    1   AR   Ar  184   4.453   5.794   0.853
    1   AR   Ar  185   2.695   4.570   4.473
    1   AR   Ar  186   2.907   6.391   2.946
    1   AR   Ar  187   4.031   6.065   3.683
    1   AR   Ar  188   3.110   0.433   1.733
    1   AR   Ar  189   5.896   2.349   5.634
    1   AR   Ar  190   1.643   6.841   3.829
    1   AR   Ar  191   3.801   6.531   6.953
    1   AR   Ar  192   4.150   3.479   5.428
    1   AR   Ar  193   2.983   6.212   1.802
    1   AR   Ar  194   5.120   5.864  -1.360
    1   AR   Ar  195   5.986   1.125   0.935
    1   AR   Ar  196   3.661   0.831   0.504
    1   AR   Ar  197   4.637   3.221   0.584
    1   AR   Ar  198   5.947   7.024   1.180
    1   AR   Ar  199   1.063   0.225   2.819
    1   AR   Ar  200   6.025   2.649  -0.169
    1   AR   Ar  201   6.484   5.888   2.616
    1   AR   Ar  202   5.078   0.380   4.049
    1   AR   Ar  203   0.244   6.689   3.471
    1   AR   Ar  204   4.524   4.470   7.268
    1   AR   Ar  205   5.544   1.869   2.023
    1   AR   Ar  206   6.169   0.141   6.254
    1   AR   Ar  207   6.826   3.215   4.415
    1   AR   Ar  208   0.956   5.860   3.831
    1   AR   Ar  209   0.115   1.849  -1.774
    1   AR   Ar  210   1.489   0.937   0.304
    1   AR   Ar  211   0.201   3.235   0.314
    1   AR   Ar  212   6.252   3.755  -0.146
    1   AR   Ar  213   3.442   2.032   1.319
    1   AR   Ar  214   5.351   4.448   2.098
    1   AR   Ar  215   0.072   2.703   1.610
    1   AR   Ar  216   2.004   2.045   0.089
    1   AR   Ar  217   5.565   1.862   3.892
    1   AR   Ar  218   4.980   3.046   4.899
    1   AR   Ar  219   4.329   3.479   2.492
    1   AR   Ar  220   4.445   3.960   1.504
    1   AR   Ar  221   6.709   5.869   3.899
    1   AR   Ar  222   4.940   0.140   5.589
    1   AR   Ar  223   6.567   1.624   6.141
    1   AR   Ar  224   5.120   1.883   5.115
    1   AR   Ar  225   6.949   2.512   2.927
    1   AR   Ar  226   2.015   3.013   4.095
    1   AR   Ar  227   0.901   3.075   2.978
    1   AR   Ar  228   6.400   0.615   1.719
    1   AR   Ar  229   5.937   4.740  -0.991
    1   AR   Ar  230   3.842   4.701   3.836
    1   AR   Ar  231   4.558   1.918   2.609
    1   AR   Ar  232   4.943   2.728   1.883
    1   AR   Ar  233   6.616   1.976   3.836
    1   AR   Ar  234   5.946   2.705   4.357
    1   AR   Ar  235   6.460   0.979   3.641
    1   AR   Ar  236   4.047   4.730   5.239
    1   AR   Ar  237   4.566   0.315   7.241
    1   AR   Ar  238   5.479   5.087   6.481
    1   AR   Ar  239   1.053   4.336  11.266
    1   AR   Ar  240   1.950   2.907   6.816
    1   AR   Ar  241   1.744   6.904   0.161
    1   AR   Ar  242   5.574   5.615   1.414
    1   AR   Ar  243   4.853   6.552   2.302
    1   AR   Ar  244   6.734   6.427   0.276
    1   AR   Ar  245   4.249   1.439   3.702
    1   AR   Ar  246   5.707   6.929  -1.093
    1   AR   Ar  247   0.108   3.793   1.209
    1   AR   Ar  248   5.423   5.234  -0.099
    1   AR   Ar  249   4.154   0.131   1.781
    1   AR   Ar  250   4.988   6.544   3.793
    1   AR   Ar  251   4.996   4.150   4.730
    1   AR   Ar  252   2.660   4.744   1.796
    1   AR   Ar  253   5.570   2.137   7.351
    1   AR   Ar  254   5.494   3.234  11.067
    1   AR   Ar  255   4.339   6.230   9.037
    1   AR   Ar  256   5.705   5.947   3.308
    7.12000  7.12000 12.00000
Argon-slab step 5110
  256
    1   AR   Ar    1   4.847   3.560  -2.954
    1   AR   Ar    2   5.147   6.582   0.450
    1   AR   Ar    3   3.978   3.480  -1.096
    1   AR   Ar    4   2.766   1.252   0.964
    1   AR   Ar    5   6.865   5.247  -0.433
    1   AR   Ar    6   1.176   1.607   2.199
    1   AR   Ar    7   5.860   4.861   3.233
    1   AR   Ar    8   6.602   3.493  -1.137
    1   AR   Ar    9   6.864   6.538   4.783
    1   AR   Ar   10   5.928   5.062   5.170
    1   AR   Ar   11   1.118   6.132   4.987
    1   AR   Ar   12   0.413   1.495   4.070
    1   AR   Ar   13   6.711   0.454   4.631
    1   AR   Ar   14   3.705   1.001   6.611
    1   AR   Ar   15   2.349   6.428   9.656
    1   AR   Ar   16   0.803   0.207   6.201
    1   AR   Ar   17   5.939   3.907   1.139
    1   AR   Ar   18   0.096   5.008  -1.854
    1   AR   Ar   19   5.327   4.573   0.720
    1   AR   Ar   20   6.985   3.803  -2.261
    1   AR   Ar   21   2.411   1.521   2.100
    1   AR   Ar   22   5.231   0.884   1.923
    1   AR   Ar   23   0.912   6.364   0.740
    1   AR   Ar   24   5.861   2.740   3.311
    1   AR   Ar   25   1.140   2.793   4.705
    1   AR   Ar   26   5.749   6.887   4.630
    1   AR   Ar   27   1.484   0.593   1.799
    1   AR   Ar   28   1.756   1.642   3.972
    1   AR   Ar   29   5.080   1.192   7.917
    1   AR   Ar   30   0.301   0.969   3.092
    1   AR   Ar   31   2.205   0.630   6.949
    1   AR   Ar   32   1.268   2.086   5.398
    1   AR   Ar   33   0.061   4.346   0.243
    1   AR   Ar   34   1.259   4.892   2.427
    1   AR   Ar   35   5.391   5.517   2.446
    1   AR   Ar   36   5.186   2.599  -3.193
    1   AR   Ar   37   3.709   3.118   1.194
    1   AR   Ar   38   6.225   4.624   4.203
    1   AR   Ar   39   0.436   2.709   3.847
    1   AR   Ar   40   0.777   3.680   2.107
    1   AR   Ar   41   1.028   1.862   3.276
    1   AR   Ar   42   5.193   6.198   5.826
    1   AR   Ar   43   0.157   2.932   5.313
    1   AR   Ar   44   0.005   3.971   2.939
    1   AR   Ar   45   1.666   3.619   5.291
    1   AR   Ar   46   6.355   4.707   6.826
    1   AR   Ar   47   3.557   3.904   7.843
    1   AR   Ar   48   0.107   3.583   7.588
    1   AR   Ar   49   0.497   1.326   0.683
    1   AR   Ar   50   4.357   4.609   0.657
    1   AR   Ar   51   5.564   3.520   2.650
    1   AR   Ar   52   5.414   3.237  -0.807
    1   AR   Ar   53   4.479   0.165   3.136
    1   AR   Ar   54   6.930   7.043   2.466
    1   AR   Ar   55   6.997   4.922   2.293
    1   AR   Ar   56   6.170   1.668   2.836
    1   AR   Ar   57   3.947   4.569   2.129
    1   AR   Ar   58   0.801   3.749   4.168
    1   AR   Ar   59   3.097   5.108   5.559
    1   AR   Ar   60   0.175   5.653   3.034
    1   AR   Ar   61   0.238   3.611   6.418
    1   AR   Ar   62   0.114   4.405   4.887
    1   AR   Ar   63   3.300   2.414   7.389
    1   AR   Ar   64   0.352   5.520   4.783
    1   AR   Ar   65   4.051   1.019   2.251
    1   AR   Ar   66   1.746   1.407   1.217
    1   AR   Ar   67   4.295   0.072  -0.590
    1   AR   Ar   68   0.041   1.426  -0.784
    1   AR   Ar   69   2.505   1.224  -0.180
    1   AR   Ar   70   0.025   1.675   1.823
    1   AR   Ar   71   2.907   0.838   2.841
    1   AR   Ar   72   4.369   1.275   1.306
    1   AR   Ar   73   3.236   0.160   3.885
    1   AR   Ar   74   1.109   0.578   3.822
    1   AR   Ar   75   3.216   0.595   4.950
    1   AR   Ar   76   2.279   0.292   1.148
    1   AR   Ar   77   2.094   5.854   5.778
    1   AR   Ar   78   6.749   5.433   6.039
    1   AR   Ar   79   2.915   6.578   5.838
    1   AR   Ar   80   3.884   6.015   5.820
    1   AR   Ar   81   1.928   6.384   1.138
    1   AR   Ar   82   6.756   5.158   1.241
    1   AR   Ar   83   1.411   3.561   1.138
    1   AR   Ar   84   1.009   4.661   1.027
    1   AR   Ar   85   1.057   3.660  -0.066
    1   AR   Ar   86   1.767   5.299   1.263
    1   AR   Ar   87   3.307   2.737   2.502
    1   AR   Ar   88   3.506   5.436   1.233
    1   AR   Ar   89   6.323   2.059   1.050
    1   AR   Ar   90   3.325   1.408   5.751
    1   AR   Ar   91   1.889   1.048   3.034
    1   AR   Ar   92   2.072   2.491   1.541
    1   AR   Ar   93   2.113   0.873   5.285
    1   AR   Ar   94   0.983   7.081   8.488
    1   AR   Ar   95   4.397   1.119   5.213
    1   AR   Ar   96   2.399   7.057   4.741
    1   AR   Ar   97   2.739   2.269  -0.763
    1   AR   Ar   98   1.725   4.341   4.295
    1   AR   Ar   99   5.903   0.576  -0.174
    1   AR   Ar  100   6.285   2.752  -2.449
    1   AR   Ar  101   3.907   6.225   2.437
    1   AR   Ar  102   3.375   1.695   2.581
    1   AR   Ar  103   1.865   4.406   0.539
    1   AR   Ar  104   3.227   7.107  -1.153
    1   AR   Ar  105   2.785   2.260   3.309
    1   AR   Ar  106   4.166   2.382   4.687
    1   AR   Ar  107   1.155   5.015   5.350
    1   AR   Ar  108   2.178   0.581   3.940
    1   AR   Ar  109   2.088   4.621   5.284
    1   AR   Ar  110   2.321   2.353   5.077
    1   AR   Ar  111   3.643   5.484   8.010
    1   AR   Ar  112   6.282   6.298   5.679
    1   AR   Ar  113   1.063   6.126  -1.624
    1   AR   Ar  114   2.731   0.280   0.045
    1   AR   Ar  115   0.370   5.424   0.538
    1   AR   Ar  116   4.874   0.355   0.898
    1   AR   Ar  117   0.210   4.890   3.685
    1   AR   Ar  118   2.068   5.966   3.469
    1   AR   Ar  119   1.061   4.110   3.203
    1   AR   Ar  120   2.285   7.113   2.148
    1   AR   Ar  121   4.860   4.350   5.881
    1   AR   Ar  122   2.913   5.497   4.076
    1   AR   Ar  123   3.259   2.797   5.198
    1   AR   Ar  124   0.787   5.645   1.764
    1   AR   Ar  125   5.482   3.639   3.924
    1   AR   Ar  126   6.761   0.787   7.424
    1   AR   Ar  127   4.970   3.124   6.128
    1   AR   Ar  128   1.305   3.680   6.298
    1   AR   Ar  129   1.935   5.623   4.576
    1   AR   Ar  130   3.917   0.840  -4.748
    1   AR   Ar  131   4.270   6.595  -1.729
    1   AR   Ar  132   1.134   2.251   0.838
    1   AR   Ar  133   4.122   0.393   4.490
    1   AR   Ar  134   2.785   1.621   4.143
    1   AR   Ar  135   5.587   1.034   4.671
    1   AR   Ar  136   5.976   6.747   2.761
    1   AR   Ar  137   2.741   4.272   6.161
    1   AR   Ar  138   5.615   0.986   5.770
    1   AR   Ar  139   6.339   1.861   4.781
    1   AR   Ar  140   4.430   6.470   4.805
    1   AR   Ar  141   3.819   5.517   4.603
    1   AR   Ar  142   4.822   6.595   7.870
    1   AR   Ar  143   5.170   6.656   6.753
    1   AR   Ar  144   0.196   1.867   5.253
    1   AR   Ar  145   4.471   4.743  -0.377
    1   AR   Ar  146   3.858   2.411   3.448
    1   AR   Ar  147   5.195   4.122  -0.317
    1   AR   Ar  148   3.105   6.045  -1.074
    1   AR   Ar  149   0.174   2.494  -0.878
    1   AR   Ar  150   1.947   2.545   2.895
    1   AR   Ar  151   2.622   3.383   3.297
    1   AR   Ar  152   0.616   0.928  -1.775
    1   AR   Ar  153   5.410   0.870   3.085
    1   AR   Ar  154   4.824   2.948   3.737
    1   AR   Ar  155   5.811   3.672   5.132
    1   AR   Ar  156   2.472   4.663   3.340
    1   AR   Ar  157   3.286   5.389   6.741
    1   AR   Ar  158   0.520   2.252   6.190
    1   AR   Ar  159   3.908   0.154   5.941
    1   AR   Ar  160   1.045   0.951   5.206
    1   AR   Ar  161   4.592   4.455   3.102
    1   AR   Ar  162   3.758   5.696  -0.403
    1   AR   Ar  163   6.291   4.173   2.521
    1   AR   Ar  164   2.089   5.845   2.263
    1   AR   Ar  165   3.472   4.296   1.276
    1   AR   Ar  166   2.818   3.747   5.051
    1   AR   Ar  167   6.391   7.011   3.673
    1   AR   Ar  168   5.744   4.648  -2.500
    1   AR   Ar  169   3.506   3.734   3.169
    1   AR   Ar  170   2.519   3.092   5.766
    1   AR   Ar  171   5.186   5.484   4.198
    1   AR   Ar  172   3.548   3.732   4.235
    1   AR   Ar  173   2.656   2.056   6.420
    1   AR   Ar  174   3.048   6.395   4.501
    1   AR   Ar  175   2.898   0.546   6.133
    1   AR   Ar  176   3.249   2.785   4.206
    1   AR   Ar  177   0.226   4.254  -0.741
    1   AR   Ar  178   2.898   6.351   0.134
    1   AR   Ar  179   3.456   6.721   1.034
    1   AR   Ar  180   4.934   0.545  -7.689
    1   AR   Ar  181   6.915   6.367   1.575
    1   AR   Ar  182   1.131   5.955   2.761
    1   AR   Ar  183   4.405   5.464   1.840
    1   AR   Ar  184   4.468   5.760   0.868
    1   AR   Ar  185   2.715   4.542   4.441
    1   AR   Ar  186   2.932   6.432   2.967
    1   AR   Ar  187   4.059   6.058   3.681
    1   AR   Ar  188   3.143   0.466   1.719
    1   AR   Ar  189   5.878   2.345   5.625
    1   AR   Ar  190   1.658   6.828   3.863
    1   AR   Ar  191   3.806   6.524   6.966
    1   AR   Ar  192   4.140   3.502   5.438
    1   AR   Ar  193   3.007   6.214   1.789
    1   AR   Ar  194   5.122   5.882  -1.355
    1   AR   Ar  195   6.010   1.128   0.935
    1   AR   Ar  196   3.668   0.815   0.505
    1   AR   Ar  197   4.638   3.251   0.599
    1   AR   Ar  198   5.934   7.065   1.174
    1   AR   Ar  199   1.042   0.236   2.795
    1   AR   Ar  200   6.022   2.644  -0.182
    1   AR   Ar  201   6.462   5.886   2.618
    1   AR   Ar  202   5.109   0.403   4.045
    1   AR   Ar  203   0.185   6.682   3.453
    1   AR   Ar  204   4.528   4.456   7.280
    1   AR   Ar  205   5.521   1.865   2.018
    1   AR   Ar  206   6.189   0.120   6.262
    1   AR   Ar  207   6.815   3.214   4.414
    1   AR   Ar  208   0.970   5.855   3.852
    1   AR   Ar  209   0.136   1.864  -1.770
    1   AR   Ar  210   1.502   0.973   0.271
    1   AR   Ar  211   0.172   3.222   0.324
    1   AR   Ar  212   6.216   3.756  -0.113
    1   AR   Ar  213   3.432   2.016   1.308
    1   AR   Ar  214   5.351   4.449   2.098
    1   AR   Ar  215   0.067   2.701   1.604
    1   AR   Ar  216   1.994   2.066   0.094
    1   AR   Ar  217   5.566   1.860   3.887
    1   AR   Ar  218   5.016   3.051   4.860
    1   AR   Ar  219   4.326   3.490   2.494
    1   AR   Ar  220   4.449   3.965   1.460
    1   AR   Ar  221   6.674   5.864   3.906
    1   AR   Ar  222   4.938   0.142   5.586
    1   AR   Ar  223   6.567   1.607   6.150
    1   AR   Ar  224   5.146   1.868   5.112
    1   AR   Ar  225   6.970   2.498   2.909
    1   AR   Ar  226   2.026   2.985   4.129
    1   AR   Ar  227   0.907   3.057   2.977
    1   AR   Ar  228   6.371   0.585   1.772
    1   AR   Ar  229   5.952   4.747  -0.970
    1   AR   Ar  230   3.828   4.702   3.830
    1   AR   Ar  231   4.498   1.911   2.604
    1   AR   Ar  232   4.957   2.748   1.901
    1   AR   Ar  233   6.632   2.008   3.820
    1   AR   Ar  234   5.970   2.737   4.383
    1   AR   Ar  235   6.433   0.975   3.659
    1   AR   Ar  236   4.028   4.731   5.264
    1   AR   Ar  237   4.539   0.306   7.271
    1   AR   Ar  238   5.450   5.070   6.483
    1   AR   Ar  239   1.047   4.355  11.275
    1   AR   Ar  240   1.949   2.906   6.828
    1   AR   Ar  241   1.765   6.902   0.169
    1   AR   Ar  242   5.559   5.575   1.422
    1   AR   Ar  243   4.874   6.568   2.288
    1   AR   Ar  244   6.707   6.434   0.269
    1   AR   Ar  245   4.240   1.415   3.699
    1   AR   Ar  246   5.720   6.963  -1.100
    1   AR   Ar  247   0.141   3.764   1.255
    1   AR   Ar  248   5.428   5.227  -0.112
    1   AR   Ar  249   4.127   0.147   1.747
    1   AR   Ar  250   4.979   6.537   3.755
    1   AR   Ar  251   4.982   4.164   4.715
    1   AR   Ar  252   2.677   4.731   1.792
    1   AR   Ar  253   5.540   2.161   7.389
    1   AR   Ar  254   5.468   3.236  11.107
    1   AR   Ar  255   4.336   6.251   9.040
    1   AR   Ar  256   5.703   5.910   3.273
    7.12000  7.12000 12.00000
Argon-slab step 5115
  256
    1   AR   Ar    1   4.810   3.539  -2.969
    1   AR   Ar    2   5.145   6.551   0.465
    1   AR   Ar    3   3.979   3.477  -1.089
    1   AR   Ar    4   2.746   1.268   0.955
    1   AR   Ar    5   6.859   5.267  -0.451
    1   AR   Ar    6   1.181   1.596   2.201
    1   AR   Ar    7   5.876   4.867   3.219
    1   AR   Ar    8   6.598   3.502  -1.163
    1   AR   Ar    9   6.854   6.504   4.798
    1   AR   Ar   10   5.929   5.098   5.199
    1   AR   Ar   11   1.113   6.153   4.975
    1   AR   Ar   12   0.404   1.473   4.090
    1   AR   Ar   13   6.737   0.461   4.655
    1   AR   Ar   14   3.706   0.976   6.608
    1   AR   Ar   15   2.370   6.397   9.637
    1   AR   Ar   16   0.800   0.211   6.193
    1   AR   Ar   17   5.952   3.906   1.146
    1   AR   Ar   18   0.097   5.002  -1.851
    1   AR   Ar   19   5.320   4.537   0.707
    1   AR   Ar   20   6.957   3.794  -2.238
    1   AR   Ar   21   2.403   1.515   2.105
    1   AR   Ar   22   5.188   0.888   1.928
    1   AR   Ar   23   0.930   6.320   0.757
    1   AR   Ar   24   5.869   2.709   3.282
    1   AR   Ar   25   1.144   2.805   4.735
    1   AR   Ar   26   5.720   6.923   4.610
    1   AR   Ar   27   1.504   0.610   1.800
    1   AR   Ar   28   1.759   1.634   3.965
    1   AR   Ar   29   5.069   1.185   7.942
    1   AR   Ar   30   0.282   0.962   3.063
    1   AR   Ar   31   2.177   0.596   6.952
    1   AR   Ar   32   1.258   2.078   5.391
    1   AR   Ar   33   0.052   4.350   0.255
    1   AR   Ar   34   1.260   4.888   2.446
    1   AR   Ar   35   5.376   5.534   2.434
    1   AR   Ar   36   5.171   2.614  -3.213
    1   AR   Ar   37   3.712   3.093   1.213
    1   AR   Ar   38   6.229   4.626   4.200
    1   AR   Ar   39   0.433   2.680   3.882
    1   AR   Ar   40   0.752   3.679   2.127
    1   AR   Ar   41   1.013   1.888   3.254
    1   AR   Ar   42   5.141   6.165   5.825
    1   AR   Ar   43   0.173   2.928   5.327
    1   AR   Ar   44   0.038   3.988   2.948
    1   AR   Ar   45   1.694   3.634   5.267
    1   AR   Ar   46   6.349   4.696   6.823
    1   AR   Ar   47   3.556   3.917   7.826
    1   AR   Ar   48   0.112   3.592   7.548
    1   AR   Ar   49   0.535   1.314   0.684
    1   AR   Ar   50   4.367   4.596   0.666
    1   AR   Ar   51   5.562   3.551   2.648
    1   AR   Ar   52   5.371   3.250  -0.774
    1   AR   Ar   53   4.502   0.175   3.142
    1   AR   Ar   54   6.893   7.036   2.490
    1   AR   Ar   55   7.013   4.904   2.338
    1   AR   Ar   56   6.139   1.637   2.859
    1   AR   Ar   57   3.965   4.610   2.135
    1   AR   Ar   58   0.809   3.724   4.163
    1   AR   Ar   59   3.100   5.080   5.547
    1   AR   Ar   60   0.174   5.650   3.029
    1   AR   Ar   61   0.212   3.637   6.408
    1   AR   Ar   62   0.118   4.405   4.904
    1   AR   Ar   63   3.317   2.412   7.409
    1   AR   Ar   64   0.346   5.538   4.797
    1   AR   Ar   65   4.057   1.023   2.281
    1   AR   Ar   66   1.757   1.406   1.198
    1   AR   Ar   67   4.317   0.095  -0.600
    1   AR   Ar   68   0.051   1.444  -0.763
    1   AR   Ar   69   2.518   1.232  -0.207
    1   AR   Ar   70   0.041   1.702   1.796
    1   AR   Ar   71   2.903   0.846   2.822
    1   AR   Ar   72   4.388   1.297   1.297
    1   AR   Ar   73   3.228   0.162   3.880
    1   AR   Ar   74   1.110   0.633   3.817
    1   AR   Ar   75   3.199   0.608   4.919
    1   AR   Ar   76   2.280   0.267   1.166
    1   AR   Ar   77   2.094   5.858   5.774
    1   AR   Ar   78   6.753   5.423   6.043
    1   AR   Ar   79   2.928   6.560   5.830
    1   AR   Ar   80   3.875   6.019   5.862
    1   AR   Ar   81   1.937   6.414   1.132
    1   AR   Ar   82   6.739   5.188   1.258
    1   AR   Ar   83   1.422   3.546   1.129
    1   AR   Ar   84   0.994   4.673   1.041
    1   AR   Ar   85   1.053   3.636  -0.052
    1   AR   Ar   86   1.772   5.300   1.249
    1   AR   Ar   87   3.310   2.759   2.515
    1   AR   Ar   88   3.490   5.461   1.238
    1   AR   Ar   89   6.333   2.069   1.067
    1   AR   Ar   90   3.321   1.418   5.739
    1   AR   Ar   91   1.889   1.012   3.024
    1   AR   Ar   92   2.088   2.466   1.502
    1   AR   Ar   93   2.102   0.868   5.304
    1   AR   Ar   94   0.964   7.099   8.497
    1   AR   Ar   95   4.380   1.130   5.236
    1   AR   Ar   96   2.380   7.051   4.732
    1   AR   Ar   97   2.768   2.253  -0.786
    1   AR   Ar   98   1.743   4.347   4.316
    1   AR   Ar   99   5.925   0.636  -0.179
    1   AR   Ar  100   6.244   2.741  -2.433
    1   AR   Ar  101   3.897   6.225   2.443
    1   AR   Ar  102   3.388   1.727   2.597
    1   AR   Ar  103   1.891   4.393   0.537
    1   AR   Ar  104   3.225   7.110  -1.135
    1   AR   Ar  105   2.790   2.255   3.322
    1   AR   Ar  106   4.165   2.349   4.680
    1   AR   Ar  107   1.168   5.019   5.344
    1   AR   Ar  108   2.160   0.568   3.958
    1   AR   Ar  109   2.083   4.610   5.292
    1   AR   Ar  110   2.319   2.357   5.083
    1   AR   Ar  111   3.617   5.447   7.973
    1   AR   Ar  112   6.260   6.310   5.679
    1   AR   Ar  113   1.083   6.134  -1.653
    1   AR   Ar  114   2.754   0.263   0.015
    1   AR   Ar  115   0.392   5.416   0.516
    1   AR   Ar  116   4.911   0.339   0.925
    1   AR   Ar  117   0.207   4.886   3.688
    1   AR   Ar  118   2.082   5.985   3.502
    1   AR   Ar  119   1.105   4.129   3.172
    1   AR   Ar  120   2.269   0.012   2.137
    1   AR   Ar  121   4.839   4.334   5.853
    1   AR   Ar  122   2.895   5.457   4.087
    1   AR   Ar  123   3.261   2.769   5.164
    1   AR   Ar  124   0.767   5.636   1.781
    1   AR   Ar  125   5.490   3.644   3.907
    1   AR   Ar  126   6.746   0.777   7.418
    1   AR   Ar  127   4.973   3.123   6.135
    1   AR   Ar  128   1.297   3.669   6.269
    1   AR   Ar  129   1.913   5.636   4.544
    1   AR   Ar  130   3.916   0.834  -4.750
    1   AR   Ar  131   4.247   6.610  -1.725
    1   AR   Ar  132   1.161   2.275   0.833
    1   AR   Ar  133   4.158   0.377   4.494
    1   AR   Ar  134   2.770   1.623   4.156
    1   AR   Ar  135   5.594   1.025   4.699
    1   AR   Ar  136   5.981   6.753   2.733
    1   AR   Ar  137   2.734   4.292   6.146
    1   AR   Ar  138   5.633   1.001   5.793
    1   AR   Ar  139   6.330   1.815   4.781
    1   AR   Ar  140   4.434   6.491   4.801
    1   AR   Ar  141   3.788   5.487   4.607
    1   AR   Ar  142   4.819   6.601   7.880
    1   AR   Ar  143   5.180   6.667   6.731
    1   AR   Ar  144   0.185   1.914   5.232
    1   AR   Ar  145   4.454   4.739  -0.375
    1   AR   Ar  146   3.841   2.394   3.442
    1   AR   Ar  147   5.200   4.127  -0.308
    1   AR   Ar  148   3.127   6.059  -1.063
    1   AR   Ar  149   0.168   2.533  -0.908
    1   AR   Ar  150   1.951   2.555   2.872
    1   AR   Ar  151   2.601   3.374   3.282
    1   AR   Ar  152   0.622   0.939  -1.749
    1   AR   Ar  153   5.398   0.859   3.095
    1   AR   Ar  154   4.804   2.970   3.724
    1   AR   Ar  155   5.818   3.690   5.157
    1   AR   Ar  156   2.491   4.653   3.330
    1   AR   Ar  157   3.313   5.416   6.737
    1   AR   Ar  158   0.543   2.271   6.234
    1   AR   Ar  159   3.891   0.154   5.939
    1   AR   Ar  160   1.073   0.974   5.155
    1   AR   Ar  161   4.577   4.482   3.089
    1   AR   Ar  162   3.776   5.660  -0.393
    1   AR   Ar  163   6.279   4.155   2.535
    1   AR   Ar  164   2.078   5.849   2.292
    1   AR   Ar  165   3.439   4.282   1.299
    1   AR   Ar  166   2.809   3.745   5.067
    1   AR   Ar  167   6.372   6.999   3.666
    1   AR   Ar  168   5.747   4.657  -2.510
    1   AR   Ar  169   3.531   3.722   3.156
    1   AR   Ar  170   2.522   3.069   5.772
    1   AR   Ar  171   5.177   5.492   4.198
    1   AR   Ar  172   3.573   3.745   4.233
    1   AR   Ar  173   2.690   2.083   6.444
    1   AR   Ar  174   3.048   6.369   4.494
    1   AR   Ar  175   2.927   0.534   6.140
    1   AR   Ar  176   3.251   2.746   4.212
    1   AR   Ar  177   0.190   4.239  -0.748
    1   AR   Ar  178   2.886   6.365   0.139
    1   AR   Ar  179   3.458   6.739   1.045
    1   AR   Ar  180   4.935   0.551  -7.717
    1   AR   Ar  181   6.935   6.347   1.598
    1   AR   Ar  182   1.121   5.955   2.764
    1   AR   Ar  183   4.409   5.482   1.842
    1   AR   Ar  184   4.485   5.728   0.876
    1   AR   Ar  185   2.742   4.518   4.404
    1   AR   Ar  186   2.956   6.474   2.989
    1   AR   Ar  187   4.083   6.050   3.678
    1   AR   Ar  188   3.176   0.504   1.705
    1   AR   Ar  189   5.865   2.346   5.620
    1   AR   Ar  190   1.670   6.808   3.898
    1   AR   Ar  191   3.799   6.521   6.962
    1   AR   Ar  192   4.130   3.526   5.445
    1   AR   Ar  193   3.026   6.215   1.782
    1   AR   Ar  194   5.123   5.901  -1.349
    1   AR   Ar  195   6.028   1.120   0.934
    1   AR   Ar  196   3.671   0.798   0.503
    1   AR   Ar  197   4.640   3.283   0.615
    1   AR   Ar  198   5.901   7.117   1.157
    1   AR   Ar  199   1.022   0.245   2.770
    1   AR   Ar  200   6.023   2.637  -0.193
    1   AR   Ar  201   6.435   5.880   2.604
    1   AR   Ar  202   5.137   0.426   4.036
    1   AR   Ar  203   0.137   6.671   3.433
    1   AR   Ar  204   4.532   4.442   7.292
    1   AR   Ar  205   5.500   1.864   2.012
    1   AR   Ar  206   6.207   0.099   6.269
    1   AR   Ar  207   6.818   3.215   4.415
    1   AR   Ar  208   0.983   5.851   3.874
    1   AR   Ar  209   0.155   1.882  -1.768
    1   AR   Ar  210   1.493   0.976   0.251
    1   AR   Ar  211   0.141   3.208   0.333
    1   AR   Ar  212   6.182   3.758  -0.079
    1   AR   Ar  213   3.423   2.001   1.300
    1   AR   Ar  214   5.347   4.452   2.097
    1   AR   Ar  215   0.064   2.703   1.597
    1   AR   Ar  216   1.981   2.091   0.102
    1   AR   Ar  217   5.565   1.855   3.882
    1   AR   Ar  218   5.051   3.053   4.820
    1   AR   Ar  219   4.322   3.512   2.474
    1   AR   Ar  220   4.461   3.963   1.418
    1   AR   Ar  221   6.637   5.859   3.913
    1   AR   Ar  222   4.954   0.123   5.591
    1   AR   Ar  223   6.569   1.601   6.149
    1   AR   Ar  224   5.168   1.856   5.105
    1   AR   Ar  225   6.992   2.484   2.888
    1   AR   Ar  226   2.039   2.956   4.162
    1   AR   Ar  227   0.913   3.037   2.975
    1   AR   Ar  228   6.343   0.553   1.848
    1   AR   Ar  229   5.967   4.752  -0.948
    1   AR   Ar  230   3.812   4.704   3.825
    1   AR   Ar  231   4.440   1.907   2.600
    1   AR   Ar  232   4.969   2.772   1.920
    1   AR   Ar  233   6.650   2.044   3.799
    1   AR   Ar  234   5.979   2.766   4.408
    1   AR   Ar  235   6.423   0.972   3.662
    1   AR   Ar  236   4.012   4.728   5.289
    1   AR   Ar  237   4.511   0.300   7.299
    1   AR   Ar  238   5.417   5.056   6.483
    1   AR   Ar  239   1.041   4.374  11.283
    1   AR   Ar  240   1.949   2.905   6.837
    1   AR   Ar  241   1.786   6.900   0.178
    1   AR   Ar  242   5.544   5.534   1.425
    1   AR   Ar  243   4.866   6.603   2.292
    1   AR   Ar  244   6.681   6.440   0.263
    1   AR   Ar  245   4.197   1.389   3.686
    1   AR   Ar  246   5.733   6.996  -1.106
    1   AR   Ar  247   0.173   3.737   1.300
    1   AR   Ar  248   5.437   5.218  -0.122
    1   AR   Ar  249   4.107   0.155   1.708
    1   AR   Ar  250   4.973   6.528   3.719
    1   AR   Ar  251   4.964   4.181   4.701
    1   AR   Ar  252   2.692   4.721   1.790
    1   AR   Ar  253   5.508   2.185   7.427
    1   AR   Ar  254   5.442   3.237  11.148
    1   AR   Ar  255   4.332   6.272   9.042
    1   AR   Ar  256   5.700   5.877   3.262
    7.12000  7.12000 12.00000
Argon-slab step 5120
  256
    1   AR   Ar    1   4.772   3.523  -2.983
    1   AR   Ar    2   5.145   6.516   0.479
    1   AR   Ar    3   3.980   3.473  -1.082
    1   AR   Ar    4   2.728   1.280   0.944
    1   AR   Ar    5   6.868   5.257  -0.474
    1   AR   Ar    6   1.188   1.586   2.203
    1   AR   Ar    7   5.891   4.838   3.228
    1   AR   Ar    8   6.592   3.511  -1.187
    1   AR   Ar    9   6.845   6.470   4.809
    1   AR   Ar   10   5.930   5.134   5.229
    1   AR   Ar   11   1.114   6.186   4.965
    1   AR   Ar   12   0.396   1.450   4.113
    1   AR   Ar   13   6.761   0.470   4.678
    1   AR   Ar   14   3.714   0.954   6.612
    1   AR   Ar   15   2.393   6.381   9.624
    1   AR   Ar   16   0.798   0.216   6.184
    1   AR   Ar   17   5.975   3.877   1.136
    1   AR   Ar   18   0.097   4.996  -1.847
    1   AR   Ar   19   5.326   4.505   0.693
    1   AR   Ar   20   6.928   3.784  -2.214
    1   AR   Ar   21   2.394   1.510   2.109
    1   AR   Ar   22   5.143   0.885   1.934
    1   AR   Ar   23   0.948   6.276   0.775
    1   AR   Ar   24   5.877   2.678   3.254
    1   AR   Ar   25   1.145   2.824   4.758
    1   AR   Ar   26   5.694   6.957   4.595
    1   AR   Ar   27   1.517   0.627   1.804
    1   AR   Ar   28   1.772   1.581   3.951
    1   AR   Ar   29   5.057   1.178   7.966
    1   AR   Ar   30   0.261   0.956   3.036
    1   AR   Ar   31   2.150   0.562   6.954
    1   AR   Ar   32   1.251   2.062   5.391
    1   AR   Ar   33   0.043   4.355   0.275
    1   AR   Ar   34   1.261   4.887   2.461
    1   AR   Ar   35   5.351   5.543   2.411
    1   AR   Ar   36   5.158   2.622  -3.234
    1   AR   Ar   37   3.716   3.069   1.234
    1   AR   Ar   38   6.230   4.633   4.201
    1   AR   Ar   39   0.433   2.649   3.916
    1   AR   Ar   40   0.731   3.680   2.152
    1   AR   Ar   41   0.996   1.915   3.230
    1   AR   Ar   42   5.087   6.129   5.820
    1   AR   Ar   43   0.190   2.930   5.344
    1   AR   Ar   44   0.082   4.002   2.964
    1   AR   Ar   45   1.721   3.646   5.240
    1   AR   Ar   46   6.345   4.684   6.821
    1   AR   Ar   47   3.556   3.932   7.807
    1   AR   Ar   48   0.117   3.602   7.508
    1   AR   Ar   49   0.573   1.303   0.687
    1   AR   Ar   50   4.355   4.593   0.669
    1   AR   Ar   51   5.539   3.566   2.650
    1   AR   Ar   52   5.366   3.297  -0.773
    1   AR   Ar   53   4.523   0.186   3.147
    1   AR   Ar   54   6.868   7.032   2.513
    1   AR   Ar   55   7.031   4.887   2.380
    1   AR   Ar   56   6.111   1.608   2.882
    1   AR   Ar   57   3.982   4.647   2.147
    1   AR   Ar   58   0.816   3.699   4.160
    1   AR   Ar   59   3.128   5.076   5.527
    1   AR   Ar   60   0.179   5.649   3.028
    1   AR   Ar   61   0.184   3.663   6.397
    1   AR   Ar   62   0.122   4.405   4.920
    1   AR   Ar   63   3.334   2.409   7.427
    1   AR   Ar   64   0.348   5.532   4.792
    1   AR   Ar   65   4.064   1.018   2.312
    1   AR   Ar   66   1.764   1.411   1.179
    1   AR   Ar   67   4.361   0.107  -0.608
    1   AR   Ar   68   0.062   1.462  -0.742
    1   AR   Ar   69   2.531   1.244  -0.233
    1   AR   Ar   70   0.056   1.723   1.772
    1   AR   Ar   71   2.900   0.847   2.803
    1   AR   Ar   72   4.406   1.318   1.287
    1   AR   Ar   73   3.218   0.164   3.875
    1   AR   Ar   74   1.107   0.690   3.811
    1   AR   Ar   75   3.180   0.622   4.891
    1   AR   Ar   76   2.284   0.247   1.172
    1   AR   Ar   77   2.094   5.859   5.767
    1   AR   Ar   78   6.756   5.410   6.047
    1   AR   Ar   79   2.942   6.544   5.822
    1   AR   Ar   80   3.869   6.012   5.893
    1   AR   Ar   81   1.955   6.413   1.135
    1   AR   Ar   82   6.722   5.218   1.276
    1   AR   Ar   83   1.432   3.530   1.120
    1   AR   Ar   84   0.970   4.681   1.056
    1   AR   Ar   85   1.049   3.614  -0.036
    1   AR   Ar   86   1.780   5.305   1.237
    1   AR   Ar   87   3.314   2.786   2.528
    1   AR   Ar   88   3.476   5.483   1.240
    1   AR   Ar   89   6.347   2.088   1.087
    1   AR   Ar   90   3.317   1.433   5.721
    1   AR   Ar   91   1.883   0.979   3.012
    1   AR   Ar   92   2.104   2.440   1.463
    1   AR   Ar   93   2.096   0.863   5.323
    1   AR   Ar   94   0.945   7.118   8.506
    1   AR   Ar   95   4.361   1.139   5.260
    1   AR   Ar   96   2.354   7.048   4.730
    1   AR   Ar   97   2.795   2.236  -0.808
    1   AR   Ar   98   1.767   4.355   4.336
    1   AR   Ar   99   5.946   0.696  -0.182
    1   AR   Ar  100   6.203   2.730  -2.416
    1   AR   Ar  101   3.884   6.226   2.451
    1   AR   Ar  102   3.392   1.740   2.603
    1   AR   Ar  103   1.918   4.379   0.534
    1   AR   Ar  104   3.223   7.116  -1.115
    1   AR   Ar  105   2.799   2.248   3.339
    1   AR   Ar  106   4.166   2.315   4.673
    1   AR   Ar  107   1.174   5.026   5.336
    1   AR   Ar  108   2.149   0.566   3.975
    1   AR   Ar  109   2.083   4.606   5.315
    1   AR   Ar  110   2.313   2.352   5.082
    1   AR   Ar  111   3.592   5.410   7.935
    1   AR   Ar  112   6.236   6.321   5.677
    1   AR   Ar  113   1.103   6.142  -1.681
    1   AR   Ar  114   2.779   0.245  -0.013
    1   AR   Ar  115   0.412   5.406   0.494
    1   AR   Ar  116   4.944   0.328   0.955
    1   AR   Ar  117   0.204   4.875   3.696
    1   AR   Ar  118   2.099   5.996   3.531
    1   AR   Ar  119   1.149   4.146   3.144
    1   AR   Ar  120   2.259   0.025   2.137
    1   AR   Ar  121   4.820   4.315   5.824
    1   AR   Ar  122   2.875   5.417   4.089
    1   AR   Ar  123   3.275   2.740   5.148
    1   AR   Ar  124   0.747   5.626   1.797
    1   AR   Ar  125   5.509   3.658   3.891
    1   AR   Ar  126   6.729   0.766   7.411
    1   AR   Ar  127   4.964   3.099   6.147
    1   AR   Ar  128   1.267   3.678   6.287
    1   AR   Ar  129   1.894   5.646   4.512
    1   AR   Ar  130   3.914   0.829  -4.752
    1   AR   Ar  131   4.223   6.625  -1.720
    1   AR   Ar  132   1.187   2.300   0.829
    1   AR   Ar  133   4.194   0.361   4.496
    1   AR   Ar  134   2.760   1.622   4.174
    1   AR   Ar  135   5.608   1.015   4.728
    1   AR   Ar  136   5.957   6.728   2.691
    1   AR   Ar  137   2.741   4.299   6.150
    1   AR   Ar  138   5.651   1.016   5.815
    1   AR   Ar  139   6.320   1.768   4.783
    1   AR   Ar  140   4.439   6.511   4.797
    1   AR   Ar  141   3.761   5.461   4.612
    1   AR   Ar  142   4.815   6.605   7.890
    1   AR   Ar  143   5.213   6.708   6.703
    1   AR   Ar  144   0.174   1.954   5.210
    1   AR   Ar  145   4.434   4.747  -0.383
    1   AR   Ar  146   3.830   2.377   3.432
    1   AR   Ar  147   5.215   4.129  -0.295
    1   AR   Ar  148   3.145   6.075  -1.056
    1   AR   Ar  149   0.154   2.574  -0.936
    1   AR   Ar  150   1.946   2.566   2.846
    1   AR   Ar  151   2.571   3.363   3.269
    1   AR   Ar  152   0.629   0.948  -1.723
    1   AR   Ar  153   5.387   0.849   3.103
    1   AR   Ar  154   4.775   2.981   3.707
    1   AR   Ar  155   5.829   3.709   5.183
    1   AR   Ar  156   2.520   4.638   3.309
    1   AR   Ar  157   3.340   5.444   6.731
    1   AR   Ar  158   0.564   2.291   6.277
    1   AR   Ar  159   3.876   0.151   5.935
    1   AR   Ar  160   1.096   0.999   5.103
    1   AR   Ar  161   4.564   4.508   3.074
    1   AR   Ar  162   3.800   5.623  -0.377
    1   AR   Ar  163   6.275   4.152   2.539
    1   AR   Ar  164   2.068   5.852   2.318
    1   AR   Ar  165   3.411   4.263   1.312
    1   AR   Ar  166   2.802   3.745   5.083
    1   AR   Ar  167   6.339   6.991   3.666
    1   AR   Ar  168   5.751   4.666  -2.520
    1   AR   Ar  169   3.564   3.713   3.142
    1   AR   Ar  170   2.517   3.051   5.794
    1   AR   Ar  171   5.168   5.500   4.198
    1   AR   Ar  172   3.599   3.760   4.234
    1   AR   Ar  173   2.725   2.111   6.468
    1   AR   Ar  174   3.058   6.341   4.488
    1   AR   Ar  175   2.945   0.517   6.144
    1   AR   Ar  176   3.246   2.705   4.199
    1   AR   Ar  177   0.154   4.224  -0.761
    1   AR   Ar  178   2.875   6.373   0.145
    1   AR   Ar  179   3.463   6.761   1.048
    1   AR   Ar  180   4.936   0.557  -7.744
    1   AR   Ar  181   6.954   6.325   1.622
    1   AR   Ar  182   1.114   5.957   2.779
    1   AR   Ar  183   4.426   5.507   1.850
    1   AR   Ar  184   4.504   5.698   0.874
    1   AR   Ar  185   2.777   4.493   4.368
    1   AR   Ar  186   2.980   6.517   3.010
    1   AR   Ar  187   4.093   6.040   3.675
    1   AR   Ar  188   3.201   0.547   1.693
    1   AR   Ar  189   5.857   2.353   5.619
    1   AR   Ar  190   1.675   6.787   3.936
    1   AR   Ar  191   3.783   6.521   6.945
    1   AR   Ar  192   4.119   3.550   5.450
    1   AR   Ar  193   3.037   6.216   1.784
    1   AR   Ar  194   5.116   5.918  -1.348
    1   AR   Ar  195   6.050   1.106   0.943
    1   AR   Ar  196   3.662   0.783   0.485
    1   AR   Ar  197   4.644   3.314   0.628
    1   AR   Ar  198   5.877   0.014   1.161
    1   AR   Ar  199   1.005   0.253   2.744
    1   AR   Ar  200   6.026   2.630  -0.203
    1   AR   Ar  201   6.413   5.867   2.576
    1   AR   Ar  202   5.160   0.449   4.021
    1   AR   Ar  203   0.104   6.655   3.412
    1   AR   Ar  204   4.535   4.429   7.303
    1   AR   Ar  205   5.480   1.865   2.005
    1   AR   Ar  206   6.224   0.080   6.276
    1   AR   Ar  207   6.849   3.203   4.427
    1   AR   Ar  208   0.996   5.847   3.896
    1   AR   Ar  209   0.173   1.903  -1.768
    1   AR   Ar  210   1.486   0.979   0.229
    1   AR   Ar  211   0.107   3.192   0.341
    1   AR   Ar  212   6.151   3.760  -0.045
    1   AR   Ar  213   3.416   1.986   1.295
    1   AR   Ar  214   5.339   4.457   2.093
    1   AR   Ar  215   0.060   2.710   1.589
    1   AR   Ar  216   1.966   2.117   0.112
    1   AR   Ar  217   5.563   1.847   3.878
    1   AR   Ar  218   5.080   3.054   4.781
    1   AR   Ar  219   4.320   3.533   2.452
    1   AR   Ar  220   4.478   3.953   1.387
    1   AR   Ar  221   6.600   5.852   3.919
    1   AR   Ar  222   4.970   0.104   5.594
    1   AR   Ar  223   6.573   1.614   6.133
    1   AR   Ar  224   5.152   1.850   5.098
    1   AR   Ar  225   7.015   2.470   2.867
    1   AR   Ar  226   2.046   2.962   4.182
    1   AR   Ar  227   0.920   3.015   2.974
    1   AR   Ar  228   6.318   0.529   1.931
    1   AR   Ar  229   5.983   4.754  -0.927
    1   AR   Ar  230   3.793   4.709   3.821
    1   AR   Ar  231   4.388   1.909   2.599
    1   AR   Ar  232   4.979   2.798   1.938
    1   AR   Ar  233   6.667   2.082   3.777
    1   AR   Ar  234   5.970   2.785   4.433
    1   AR   Ar  235   6.427   0.970   3.655
    1   AR   Ar  236   4.003   4.718   5.313
    1   AR   Ar  237   4.481   0.297   7.324
    1   AR   Ar  238   5.381   5.045   6.481
    1   AR   Ar  239   1.036   4.392  11.292
    1   AR   Ar  240   1.950   2.904   6.846
    1   AR   Ar  241   1.803   6.902   0.192
    1   AR   Ar  242   5.528   5.493   1.422
    1   AR   Ar  243   4.853   6.643   2.301
    1   AR   Ar  244   6.664   6.446   0.260
    1   AR   Ar  245   4.155   1.361   3.673
    1   AR   Ar  246   5.744   7.028  -1.111
    1   AR   Ar  247   0.202   3.714   1.337
    1   AR   Ar  248   5.447   5.191  -0.128
    1   AR   Ar  249   4.099   0.156   1.670
    1   AR   Ar  250   4.974   6.521   3.685
    1   AR   Ar  251   4.943   4.200   4.687
    1   AR   Ar  252   2.698   4.718   1.792
    1   AR   Ar  253   5.477   2.208   7.465
    1   AR   Ar  254   5.416   3.239  11.189
    1   AR   Ar  255   4.329   6.292   9.043
    1   AR   Ar  256   5.695   5.854   3.278
    7.12000  7.12000 12.00000
Argon-slab step 5125
  256
    1   AR   Ar    1   4.731   3.515  -2.995
    1   AR   Ar    2   5.145   6.479   0.492
    1   AR   Ar    3   3.953   3.462  -1.098
    1   AR   Ar    4   2.716   1.288   0.930
    1   AR   Ar    5   6.877   5.246  -0.496
    1   AR   Ar    6   1.195   1.576   2.205
    1   AR   Ar    7   5.903   4.809   3.235
    1   AR   Ar    8   6.585   3.519  -1.210
    1   AR   Ar    9   6.837   6.437   4.819
    1   AR   Ar   10   5.940   5.167   5.257
    1   AR   Ar   11   1.117   6.223   4.957
    1   AR   Ar   12   0.386   1.429   4.136
    1   AR   Ar   13   6.783   0.480   4.698
    1   AR   Ar   14   3.730   0.936   6.622
    1   AR   Ar   15   2.417   6.420   9.632
    1   AR   Ar   16   0.795   0.221   6.175
    1   AR   Ar   17   6.003   3.842   1.129
    1   AR   Ar   18   0.096   4.988  -1.842
    1   AR   Ar   19   5.340   4.478   0.681
    1   AR   Ar   20   6.898   3.775  -2.189
    1   AR   Ar   21   2.383   1.504   2.111
    1   AR   Ar   22   5.099   0.876   1.941
    1   AR   Ar   23   0.951   6.272   0.822
    1   AR   Ar   24   5.887   2.648   3.225
    1   AR   Ar   25   1.144   2.849   4.776
    1   AR   Ar   26   5.674   6.983   4.586
    1   AR   Ar   27   1.524   0.646   1.811
    1   AR   Ar   28   1.779   1.531   3.937
    1   AR   Ar   29   5.045   1.171   7.989
    1   AR   Ar   30   0.239   0.953   3.009
    1   AR   Ar   31   2.123   0.528   6.955
    1   AR   Ar   32   1.247   2.043   5.395
    1   AR   Ar   33   0.033   4.360   0.299
    1   AR   Ar   34   1.261   4.891   2.472
    1   AR   Ar   35   5.322   5.550   2.385
    1   AR   Ar   36   5.149   2.625  -3.256
    1   AR   Ar   37   3.721   3.047   1.257
    1   AR   Ar   38   6.216   4.666   4.216
    1   AR   Ar   39   0.438   2.615   3.948
    1   AR   Ar   40   0.726   3.694   2.174
    1   AR   Ar   41   0.979   1.942   3.206
    1   AR   Ar   42   5.034   6.091   5.811
    1   AR   Ar   43   0.210   2.943   5.365
    1   AR   Ar   44   0.130   4.014   2.985
    1   AR   Ar   45   1.746   3.653   5.211
    1   AR   Ar   46   6.342   4.671   6.819
    1   AR   Ar   47   3.557   3.947   7.788
    1   AR   Ar   48   0.122   3.612   7.467
    1   AR   Ar   49   0.611   1.294   0.692
    1   AR   Ar   50   4.326   4.601   0.663
    1   AR   Ar   51   5.496   3.564   2.657
    1   AR   Ar   52   5.373   3.342  -0.786
    1   AR   Ar   53   4.540   0.200   3.149
    1   AR   Ar   54   6.859   7.028   2.534
    1   AR   Ar   55   7.049   4.871   2.418
    1   AR   Ar   56   6.083   1.582   2.903
    1   AR   Ar   57   3.996   4.677   2.161
    1   AR   Ar   58   0.822   3.674   4.156
    1   AR   Ar   59   3.142   5.080   5.507
    1   AR   Ar   60   0.186   5.651   3.029
    1   AR   Ar   61   0.155   3.688   6.385
    1   AR   Ar   62   0.126   4.405   4.935
    1   AR   Ar   63   3.350   2.407   7.445
    1   AR   Ar   64   0.355   5.509   4.774
    1   AR   Ar   65   4.070   1.001   2.340
    1   AR   Ar   66   1.764   1.420   1.159
    1   AR   Ar   67   4.404   0.117  -0.615
    1   AR   Ar   68   0.072   1.479  -0.721
    1   AR   Ar   69   2.545   1.259  -0.260
    1   AR   Ar   70   0.072   1.734   1.750
    1   AR   Ar   71   2.900   0.842   2.785
    1   AR   Ar   72   4.422   1.339   1.276
    1   AR   Ar   73   3.208   0.166   3.869
    1   AR   Ar   74   1.103   0.746   3.804
    1   AR   Ar   75   3.162   0.638   4.865
    1   AR   Ar   76   2.293   0.238   1.164
    1   AR   Ar   77   2.092   5.858   5.758
    1   AR   Ar   78   6.760   5.397   6.049
    1   AR   Ar   79   2.955   6.530   5.812
    1   AR   Ar   80   3.870   5.988   5.908
    1   AR   Ar   81   1.969   6.418   1.148
    1   AR   Ar   82   6.705   5.248   1.295
    1   AR   Ar   83   1.439   3.514   1.111
    1   AR   Ar   84   0.942   4.683   1.073
    1   AR   Ar   85   1.045   3.593  -0.019
    1   AR   Ar   86   1.792   5.313   1.228
    1   AR   Ar   87   3.318   2.818   2.540
    1   AR   Ar   88   3.464   5.497   1.240
    1   AR   Ar   89   6.361   2.111   1.107
    1   AR   Ar   90   3.313   1.449   5.701
    1   AR   Ar   91   1.873   0.946   2.998
    1   AR   Ar   92   2.120   2.412   1.425
    1   AR   Ar   93   2.096   0.857   5.343
    1   AR   Ar   94   0.926   0.016   8.514
    1   AR   Ar   95   4.341   1.147   5.285
    1   AR   Ar   96   2.325   7.043   4.737
    1   AR   Ar   97   2.822   2.218  -0.829
    1   AR   Ar   98   1.784   4.362   4.354
    1   AR   Ar   99   5.968   0.756  -0.184
    1   AR   Ar  100   6.163   2.720  -2.399
    1   AR   Ar  101   3.885   6.225   2.443
    1   AR   Ar  102   3.385   1.736   2.596
    1   AR   Ar  103   1.920   4.376   0.556
    1   AR   Ar  104   3.224   7.117  -1.089
    1   AR   Ar  105   2.805   2.241   3.355
    1   AR   Ar  106   4.169   2.281   4.664
    1   AR   Ar  107   1.173   5.038   5.327
    1   AR   Ar  108   2.144   0.573   3.989
    1   AR   Ar  109   2.095   4.605   5.340
    1   AR   Ar  110   2.309   2.364   5.069
    1   AR   Ar  111   3.567   5.372   7.895
    1   AR   Ar  112   6.209   6.331   5.675
    1   AR   Ar  113   1.122   6.150  -1.709
    1   AR   Ar  114   2.805   0.233  -0.041
    1   AR   Ar  115   0.430   5.396   0.470
    1   AR   Ar  116   4.973   0.318   0.964
    1   AR   Ar  117   0.201   4.860   3.710
    1   AR   Ar  118   2.122   5.998   3.551
    1   AR   Ar  119   1.193   4.158   3.122
    1   AR   Ar  120   2.254   0.030   2.151
    1   AR   Ar  121   4.811   4.302   5.795
    1   AR   Ar  122   2.852   5.386   4.080
    1   AR   Ar  123   3.296   2.712   5.151
    1   AR   Ar  124   0.725   5.616   1.810
    1   AR   Ar  125   5.535   3.677   3.876
    1   AR   Ar  126   6.713   0.755   7.403
    1   AR   Ar  127   4.954   3.076   6.156
    1   AR   Ar  128   1.234   3.692   6.315
    1   AR   Ar  129   1.876   5.652   4.483
    1   AR   Ar  130   3.913   0.823  -4.754
    1   AR   Ar  131   4.198   6.640  -1.712
    1   AR   Ar  132   1.211   2.325   0.827
    1   AR   Ar  133   4.207   0.402   4.493
    1   AR   Ar  134   2.758   1.620   4.197
    1   AR   Ar  135   5.625   0.999   4.758
    1   AR   Ar  136   5.936   6.720   2.665
    1   AR   Ar  137   2.748   4.303   6.153
    1   AR   Ar  138   5.670   1.031   5.837
    1   AR   Ar  139   6.311   1.723   4.785
    1   AR   Ar  140   4.446   6.527   4.794
    1   AR   Ar  141   3.737   5.438   4.619
    1   AR   Ar  142   4.812   6.606   7.902
    1   AR   Ar  143   5.221   6.686   6.672
    1   AR   Ar  144   0.164   1.981   5.186
    1   AR   Ar  145   4.449   4.758  -0.415
    1   AR   Ar  146   3.826   2.360   3.419
    1   AR   Ar  147   5.231   4.139  -0.275
    1   AR   Ar  148   3.161   6.089  -1.050
    1   AR   Ar  149   0.139   2.617  -0.961
    1   AR   Ar  150   1.936   2.576   2.816
    1   AR   Ar  151   2.540   3.351   3.259
    1   AR   Ar  152   0.632   0.978  -1.734
    1   AR   Ar  153   5.377   0.841   3.106
    1   AR   Ar  154   4.756   2.976   3.695
    1   AR   Ar  155   5.840   3.729   5.208
    1   AR   Ar  156   2.549   4.623   3.289
    1   AR   Ar  157   3.368   5.472   6.724
    1   AR   Ar  158   0.585   2.312   6.318
    1   AR   Ar  159   3.868   0.142   5.926
    1   AR   Ar  160   1.114   1.024   5.048
    1   AR   Ar  161   4.553   4.532   3.058
    1   AR   Ar  162   3.784   5.614  -0.363
    1   AR   Ar  163   6.286   4.160   2.537
    1   AR   Ar  164   2.061   5.855   2.343
    1   AR   Ar  165   3.394   4.236   1.317
    1   AR   Ar  166   2.826   3.738   5.075
    1   AR   Ar  167   6.295   6.987   3.672
    1   AR   Ar  168   5.758   4.673  -2.527
    1   AR   Ar  169   3.597   3.707   3.131
    1   AR   Ar  170   2.509   3.036   5.827
    1   AR   Ar  171   5.159   5.509   4.199
    1   AR   Ar  172   3.626   3.772   4.239
    1   AR   Ar  173   2.746   2.111   6.476
    1   AR   Ar  174   3.074   6.314   4.483
    1   AR   Ar  175   2.951   0.497   6.143
    1   AR   Ar  176   3.234   2.666   4.171
    1   AR   Ar  177   0.119   4.210  -0.775
    1   AR   Ar  178   2.865   6.374   0.152
    1   AR   Ar  179   3.454   6.750   1.019
    1   AR   Ar  180   4.937   0.563  -7.772
    1   AR   Ar  181   6.973   6.303   1.646
    1   AR   Ar  182   1.112   5.963   2.795
    1   AR   Ar  183   4.446   5.534   1.864
    1   AR   Ar  184   4.525   5.669   0.863
    1   AR   Ar  185   2.816   4.457   4.334
    1   AR   Ar  186   3.003   6.560   3.031
    1   AR   Ar  187   4.072   6.027   3.672
    1   AR   Ar  188   3.216   0.588   1.683
    1   AR   Ar  189   5.856   2.365   5.620
    1   AR   Ar  190   1.668   6.790   3.968
    1   AR   Ar  191   3.768   6.521   6.926
    1   AR   Ar  192   4.109   3.573   5.453
    1   AR   Ar  193   3.039   6.219   1.795
    1   AR   Ar  194   5.102   5.936  -1.350
    1   AR   Ar  195   6.074   1.089   0.960
    1   AR   Ar  196   3.651   0.767   0.470
    1   AR   Ar  197   4.650   3.342   0.635
    1   AR   Ar  198   5.861   0.018   1.169
    1   AR   Ar  199   0.989   0.258   2.719
    1   AR   Ar  200   6.031   2.624  -0.212
    1   AR   Ar  201   6.398   5.845   2.537
    1   AR   Ar  202   5.174   0.473   3.999
    1   AR   Ar  203   0.086   6.634   3.391
    1   AR   Ar  204   4.537   4.416   7.312
    1   AR   Ar  205   5.464   1.867   1.999
    1   AR   Ar  206   6.239   0.063   6.284
    1   AR   Ar  207   6.890   3.201   4.439
    1   AR   Ar  208   1.005   5.842   3.909
    1   AR   Ar  209   0.188   1.926  -1.770
    1   AR   Ar  210   1.482   0.980   0.206
    1   AR   Ar  211   0.071   3.176   0.350
    1   AR   Ar  212   6.130   3.764  -0.012
    1   AR   Ar  213   3.411   1.972   1.294
    1   AR   Ar  214   5.328   4.465   2.087
    1   AR   Ar  215   0.057   2.722   1.581
    1   AR   Ar  216   1.953   2.142   0.123
    1   AR   Ar  217   5.560   1.838   3.876
    1   AR   Ar  218   5.097   3.056   4.747
    1   AR   Ar  219   4.321   3.555   2.427
    1   AR   Ar  220   4.497   3.939   1.375
    1   AR   Ar  221   6.564   5.845   3.924
    1   AR   Ar  222   4.986   0.086   5.597
    1   AR   Ar  223   6.578   1.627   6.115
    1   AR   Ar  224   5.149   1.846   5.098
    1   AR   Ar  225   7.040   2.458   2.842
    1   AR   Ar  226   2.048   2.993   4.194
    1   AR   Ar  227   0.927   2.994   2.975
    1   AR   Ar  228   6.299   0.518   1.949
    1   AR   Ar  229   5.990   4.760  -0.913
    1   AR   Ar  230   3.774   4.715   3.816
    1   AR   Ar  231   4.370   1.911   2.592
    1   AR   Ar  232   4.987   2.828   1.957
    1   AR   Ar  233   6.669   2.092   3.779
    1   AR   Ar  234   5.961   2.794   4.450
    1   AR   Ar  235   6.431   0.967   3.653
    1   AR   Ar  236   4.006   4.701   5.332
    1   AR   Ar  237   4.468   0.293   7.327
    1   AR   Ar  238   5.344   5.034   6.477
    1   AR   Ar  239   1.030   4.411  11.300
    1   AR   Ar  240   1.951   2.903   6.852
    1   AR   Ar  241   1.805   6.913   0.220
    1   AR   Ar  242   5.522   5.459   1.410
    1   AR   Ar  243   4.844   6.684   2.310
    1   AR   Ar  244   6.684   6.457   0.263
    1   AR   Ar  245   4.113   1.331   3.660
    1   AR   Ar  246   5.755   7.060  -1.116
    1   AR   Ar  247   0.223   3.698   1.359
    1   AR   Ar  248   5.456   5.168  -0.133
    1   AR   Ar  249   4.107   0.154   1.633
    1   AR   Ar  250   4.984   6.517   3.654
    1   AR   Ar  251   4.920   4.219   4.674
    1   AR   Ar  252   2.694   4.723   1.802
    1   AR   Ar  253   5.446   2.230   7.503
    1   AR   Ar  254   5.390   3.241  11.230
    1   AR   Ar  255   4.326   6.313   9.042
    1   AR   Ar  256   5.689   5.838   3.312
    7.12000  7.12000 12.00000
Argon-slab step 5130
  256
    1   AR   Ar    1   4.688   3.512  -3.005
    1   AR   Ar    2   5.147   6.442   0.504
    1   AR   Ar    3   3.883   3.440  -1.150
    1   AR   Ar    4   2.711   1.291   0.912
    1   AR   Ar    5   6.887   5.235  -0.516
    1   AR   Ar    6   1.202   1.568   2.206
    1   AR   Ar    7   5.913   4.781   3.241
    1   AR   Ar    8   6.573   3.523  -1.230
    1   AR   Ar    9   6.859   6.459   4.786
    1   AR   Ar   10   5.962   5.198   5.284
    1   AR   Ar   11   1.122   6.265   4.950
    1   AR   Ar   12   0.373   1.411   4.160
    1   AR   Ar   13   6.803   0.491   4.718
    1   AR   Ar   14   3.750   0.906   6.650
    1   AR   Ar   15   2.441   6.460   9.641
    1   AR   Ar   16   0.793   0.227   6.164
    1   AR   Ar   17   6.021   3.825   1.123
    1   AR   Ar   18   0.095   4.979  -1.836
    1   AR   Ar   19   5.314   4.462   0.671
    1   AR   Ar   20   6.868   3.768  -2.167
    1   AR   Ar   21   2.372   1.499   2.112
    1   AR   Ar   22   5.057   0.861   1.950
    1   AR   Ar   23   0.949   6.278   0.878
    1   AR   Ar   24   5.895   2.620   3.197
    1   AR   Ar   25   1.141   2.877   4.791
    1   AR   Ar   26   5.666   6.989   4.580
    1   AR   Ar   27   1.526   0.665   1.817
    1   AR   Ar   28   1.779   1.490   3.921
    1   AR   Ar   29   5.033   1.163   8.011
    1   AR   Ar   30   0.216   0.953   2.984
    1   AR   Ar   31   2.097   0.494   6.955
    1   AR   Ar   32   1.249   2.033   5.392
    1   AR   Ar   33   0.023   4.364   0.325
    1   AR   Ar   34   1.263   4.905   2.473
    1   AR   Ar   35   5.296   5.556   2.369
    1   AR   Ar   36   5.143   2.621  -3.279
    1   AR   Ar   37   3.726   3.026   1.281
    1   AR   Ar   38   6.203   4.698   4.234
    1   AR   Ar   39   0.450   2.578   3.977
    1   AR   Ar   40   0.739   3.717   2.200
    1   AR   Ar   41   0.962   1.958   3.191
    1   AR   Ar   42   4.980   6.051   5.800
    1   AR   Ar   43   0.231   2.969   5.391
    1   AR   Ar   44   0.178   4.022   3.011
    1   AR   Ar   45   1.769   3.653   5.182
    1   AR   Ar   46   6.340   4.657   6.815
    1   AR   Ar   47   3.558   3.963   7.768
    1   AR   Ar   48   0.127   3.621   7.427
    1   AR   Ar   49   0.646   1.287   0.701
    1   AR   Ar   50   4.287   4.617   0.649
    1   AR   Ar   51   5.527   3.553   2.643
    1   AR   Ar   52   5.384   3.372  -0.810
    1   AR   Ar   53   4.547   0.218   3.102
    1   AR   Ar   54   6.864   7.028   2.552
    1   AR   Ar   55   7.069   4.857   2.449
    1   AR   Ar   56   6.058   1.563   2.919
    1   AR   Ar   57   4.007   4.701   2.175
    1   AR   Ar   58   0.828   3.651   4.150
    1   AR   Ar   59   3.138   5.094   5.490
    1   AR   Ar   60   0.189   5.655   3.034
    1   AR   Ar   61   0.125   3.712   6.371
    1   AR   Ar   62   0.130   4.405   4.948
    1   AR   Ar   63   3.365   2.404   7.461
    1   AR   Ar   64   0.390   5.508   4.761
    1   AR   Ar   65   4.075   0.969   2.365
    1   AR   Ar   66   1.754   1.432   1.141
    1   AR   Ar   67   4.447   0.126  -0.622
    1   AR   Ar   68   0.083   1.496  -0.700
    1   AR   Ar   69   2.557   1.274  -0.284
    1   AR   Ar   70   0.081   1.733   1.730
    1   AR   Ar   71   2.901   0.831   2.768
    1   AR   Ar   72   4.427   1.355   1.264
    1   AR   Ar   73   3.192   0.180   3.868
    1   AR   Ar   74   1.096   0.796   3.793
    1   AR   Ar   75   3.144   0.655   4.841
    1   AR   Ar   76   2.307   0.240   1.146
    1   AR   Ar   77   2.090   5.856   5.746
    1   AR   Ar   78   6.758   5.388   6.052
    1   AR   Ar   79   2.985   6.529   5.810
    1   AR   Ar   80   3.874   5.965   5.920
    1   AR   Ar   81   1.984   6.413   1.165
    1   AR   Ar   82   6.689   5.278   1.314
    1   AR   Ar   83   1.445   3.497   1.102
    1   AR   Ar   84   0.913   4.681   1.091
    1   AR   Ar   85   1.041   3.573  -0.001
    1   AR   Ar   86   1.805   5.323   1.221
    1   AR   Ar   87   3.322   2.850   2.551
    1   AR   Ar   88   3.457   5.505   1.235
    1   AR   Ar   89   6.376   2.137   1.129
    1   AR   Ar   90   3.313   1.456   5.686
    1   AR   Ar   91   1.858   0.915   2.980
    1   AR   Ar   92   2.138   2.385   1.389
    1   AR   Ar   93   2.093   0.862   5.359
    1   AR   Ar   94   0.907   0.035   8.522
    1   AR   Ar   95   4.320   1.153   5.311
    1   AR   Ar   96   2.301   7.033   4.751
    1   AR   Ar   97   2.848   2.199  -0.849
    1   AR   Ar   98   1.795   4.368   4.368
    1   AR   Ar   99   5.988   0.753  -0.181
    1   AR   Ar  100   6.122   2.712  -2.381
    1   AR   Ar  101   3.889   6.224   2.432
    1   AR   Ar  102   3.373   1.743   2.589
    1   AR   Ar  103   1.903   4.384   0.596
    1   AR   Ar  104   3.212   0.006  -1.080
    1   AR   Ar  105   2.800   2.229   3.358
    1   AR   Ar  106   4.174   2.246   4.653
    1   AR   Ar  107   1.167   5.052   5.317
    1   AR   Ar  108   2.147   0.585   3.998
    1   AR   Ar  109   2.116   4.609   5.366
    1   AR   Ar  110   2.307   2.388   5.047
    1   AR   Ar  111   3.543   5.335   7.854
    1   AR   Ar  112   6.178   6.336   5.671
    1   AR   Ar  113   1.107   6.134  -1.681
    1   AR   Ar  114   2.831   0.228  -0.068
    1   AR   Ar  115   0.445   5.387   0.446
    1   AR   Ar  116   4.990   0.310   0.937
    1   AR   Ar  117   0.197   4.843   3.726
    1   AR   Ar  118   2.149   5.995   3.561
    1   AR   Ar  119   1.237   4.161   3.110
    1   AR   Ar  120   2.241   0.067   2.180
    1   AR   Ar  121   4.834   4.314   5.762
    1   AR   Ar  122   2.828   5.367   4.063
    1   AR   Ar  123   3.322   2.687   5.168
    1   AR   Ar  124   0.703   5.604   1.823
    1   AR   Ar  125   5.564   3.699   3.861
    1   AR   Ar  126   6.696   0.745   7.394
    1   AR   Ar  127   4.945   3.053   6.162
    1   AR   Ar  128   1.202   3.706   6.341
    1   AR   Ar  129   1.860   5.654   4.461
    1   AR   Ar  130   3.911   0.817  -4.756
    1   AR   Ar  131   4.174   6.655  -1.702
    1   AR   Ar  132   1.229   2.352   0.828
    1   AR   Ar  133   4.212   0.458   4.487
    1   AR   Ar  134   2.762   1.616   4.226
    1   AR   Ar  135   5.641   0.974   4.788
    1   AR   Ar  136   5.935   6.730   2.661
    1   AR   Ar  137   2.723   4.291   6.161
    1   AR   Ar  138   5.688   1.047   5.860
    1   AR   Ar  139   6.307   1.685   4.785
    1   AR   Ar  140   4.444   6.540   4.804
    1   AR   Ar  141   3.717   5.419   4.628
    1   AR   Ar  142   4.810   6.604   7.915
    1   AR   Ar  143   5.229   6.666   6.643
    1   AR   Ar  144   0.154   1.996   5.159
    1   AR   Ar  145   4.460   4.774  -0.449
    1   AR   Ar  146   3.832   2.343   3.401
    1   AR   Ar  147   5.242   4.158  -0.251
    1   AR   Ar  148   3.161   6.068  -1.059
    1   AR   Ar  149   0.123   2.662  -0.984
    1   AR   Ar  150   1.924   2.583   2.785
    1   AR   Ar  151   2.512   3.340   3.249
    1   AR   Ar  152   0.636   1.005  -1.745
    1   AR   Ar  153   5.370   0.836   3.098
    1   AR   Ar  154   4.760   2.950   3.692
    1   AR   Ar  155   5.852   3.749   5.232
    1   AR   Ar  156   2.577   4.608   3.268
    1   AR   Ar  157   3.395   5.499   6.717
    1   AR   Ar  158   0.605   2.333   6.357
    1   AR   Ar  159   3.868   0.129   5.913
    1   AR   Ar  160   1.127   1.049   4.990
    1   AR   Ar  161   4.546   4.555   3.043
    1   AR   Ar  162   3.788   5.618  -0.345
    1   AR   Ar  163   6.305   4.171   2.529
    1   AR   Ar  164   2.057   5.858   2.366
    1   AR   Ar  165   3.401   4.216   1.323
    1   AR   Ar  166   2.852   3.730   5.069
    1   AR   Ar  167   6.261   6.983   3.671
    1   AR   Ar  168   5.777   4.677  -2.525
    1   AR   Ar  169   3.627   3.704   3.124
    1   AR   Ar  170   2.499   3.024   5.865
    1   AR   Ar  171   5.149   5.517   4.200
    1   AR   Ar  172   3.654   3.777   4.246
    1   AR   Ar  173   2.757   2.094   6.474
    1   AR   Ar  174   3.092   6.291   4.479
    1   AR   Ar  175   2.942   0.476   6.140
    1   AR   Ar  176   3.219   2.634   4.141
    1   AR   Ar  177   0.085   4.198  -0.789
    1   AR   Ar  178   2.855   6.366   0.161
    1   AR   Ar  179   3.442   6.732   0.977
    1   AR   Ar  180   4.938   0.569  -7.800
    1   AR   Ar  181   6.991   6.280   1.670
    1   AR   Ar  182   1.115   5.972   2.811
    1   AR   Ar  183   4.465   5.566   1.877
    1   AR   Ar  184   4.546   5.639   0.845
    1   AR   Ar  185   2.857   4.410   4.305
    1   AR   Ar  186   3.025   6.603   3.052
    1   AR   Ar  187   4.045   6.012   3.669
    1   AR   Ar  188   3.232   0.598   1.675
    1   AR   Ar  189   5.858   2.380   5.623
    1   AR   Ar  190   1.647   6.825   3.985
    1   AR   Ar  191   3.796   6.533   6.942
    1   AR   Ar  192   4.097   3.595   5.453
    1   AR   Ar  193   3.032   6.227   1.814
    1   AR   Ar  194   5.089   5.953  -1.350
    1   AR   Ar  195   6.097   1.069   0.977
    1   AR   Ar  196   3.641   0.750   0.457
    1   AR   Ar  197   4.660   3.361   0.628
    1   AR   Ar  198   5.860   0.012   1.178
    1   AR   Ar  199   0.975   0.262   2.695
    1   AR   Ar  200   6.037   2.619  -0.221
    1   AR   Ar  201   6.388   5.814   2.493
    1   AR   Ar  202   5.179   0.497   3.976
    1   AR   Ar  203   0.078   6.609   3.377
    1   AR   Ar  204   4.539   4.404   7.322
    1   AR   Ar  205   5.448   1.869   1.993
    1   AR   Ar  206   6.253   0.050   6.293
    1   AR   Ar  207   6.932   3.207   4.451
    1   AR   Ar  208   0.997   5.843   3.930
    1   AR   Ar  209   0.202   1.951  -1.774
    1   AR   Ar  210   1.484   0.980   0.181
    1   AR   Ar  211   0.035   3.162   0.360
    1   AR   Ar  212   6.141   3.778   0.012
    1   AR   Ar  213   3.403   1.963   1.291
    1   AR   Ar  214   5.314   4.475   2.079
    1   AR   Ar  215   0.054   2.737   1.574
    1   AR   Ar  216   1.943   2.164   0.132
    1   AR   Ar  217   5.558   1.826   3.877
    1   AR   Ar  218   5.093   3.063   4.721
    1   AR   Ar  219   4.326   3.577   2.399
    1   AR   Ar  220   4.516   3.929   1.388
    1   AR   Ar  221   6.530   5.836   3.929
    1   AR   Ar  222   5.003   0.068   5.597
    1   AR   Ar  223   6.583   1.641   6.095
    1   AR   Ar  224   5.147   1.845   5.097
    1   AR   Ar  225   7.038   2.470   2.805
    1   AR   Ar  226   2.052   3.025   4.205
    1   AR   Ar  227   0.932   2.975   2.977
    1   AR   Ar  228   6.280   0.515   1.953
    1   AR   Ar  229   5.982   4.771  -0.911
    1   AR   Ar  230   3.754   4.725   3.808
    1   AR   Ar  231   4.397   1.907   2.575
    1   AR   Ar  232   4.994   2.859   1.976
    1   AR   Ar  233   6.659   2.083   3.798
    1   AR   Ar  234   5.960   2.794   4.445
    1   AR   Ar  235   6.435   0.962   3.656
    1   AR   Ar  236   4.021   4.676   5.345
    1   AR   Ar  237   4.469   0.281   7.323
    1   AR   Ar  238   5.306   5.024   6.472
    1   AR   Ar  239   1.024   4.430  11.309
    1   AR   Ar  240   1.953   2.902   6.856
    1   AR   Ar  241   1.807   6.926   0.246
    1   AR   Ar  242   5.552   5.461   1.388
    1   AR   Ar  243   4.837   6.724   2.317
    1   AR   Ar  244   6.703   6.467   0.267
    1   AR   Ar  245   4.072   1.299   3.646
    1   AR   Ar  246   5.765   7.092  -1.119
    1   AR   Ar  247   0.221   3.698   1.358
    1   AR   Ar  248   5.462   5.170  -0.104
    1   AR   Ar  249   4.128   0.148   1.600
    1   AR   Ar  250   4.996   6.518   3.627
    1   AR   Ar  251   4.898   4.237   4.661
    1   AR   Ar  252   2.680   4.737   1.819
    1   AR   Ar  253   5.414   2.251   7.541
    1   AR   Ar  254   5.363   3.242  11.271
    1   AR   Ar  255   4.323   6.334   9.041
    1   AR   Ar  256   5.684   5.824   3.349
    7.12000  7.12000 12.00000
Argon-slab step 5135
  256
    1   AR   Ar    1   4.643   3.513  -3.014
    1   AR   Ar    2   5.152   6.405   0.516
    1   AR   Ar    3   3.814   3.417  -1.201
    1   AR   Ar    4   2.714   1.296   0.900
    1   AR   Ar    5   6.898   5.224  -0.534
    1   AR   Ar    6   1.209   1.563   2.208
    1   AR   Ar    7   5.919   4.755   3.246
    1   AR   Ar    8   6.553   3.521  -1.244
    1   AR   Ar    9   6.890   6.496   4.742
    1   AR   Ar   10   5.983   5.229   5.309
    1   AR   Ar   11   1.128   6.308   4.945
    1   AR   Ar   12   0.355   1.398   4.186
    1   AR   Ar   13   6.821   0.504   4.735
    1   AR   Ar   14   3.773   0.879   6.679
    1   AR   Ar   15   2.466   6.500   9.649
    1   AR   Ar   16   0.791   0.233   6.153
    1   AR   Ar   17   6.019   3.836   1.116
    1   AR   Ar   18   0.093   4.968  -1.828
    1   AR   Ar   19   5.291   4.450   0.677
    1   AR   Ar   20   6.840   3.762  -2.150
    1   AR   Ar   21   2.361   1.502   2.112
    1   AR   Ar   22   5.019   0.842   1.962
    1   AR   Ar   23   0.946   6.283   0.935
    1   AR   Ar   24   5.901   2.601   3.191
    1   AR   Ar   25   1.138   2.904   4.806
    1   AR   Ar   26   5.690   6.936   4.561
    1   AR   Ar   27   1.522   0.684   1.822
    1   AR   Ar   28   1.778   1.473   3.906
    1   AR   Ar   29   5.021   1.155   8.031
    1   AR   Ar   30   0.191   0.955   2.960
    1   AR   Ar   31   2.071   0.461   6.953
    1   AR   Ar   32   1.252   2.022   5.392
    1   AR   Ar   33   0.012   4.366   0.352
    1   AR   Ar   34   1.263   4.929   2.465
    1   AR   Ar   35   5.282   5.563   2.369
    1   AR   Ar   36   5.140   2.614  -3.303
    1   AR   Ar   37   3.734   3.007   1.307
    1   AR   Ar   38   6.192   4.730   4.258
    1   AR   Ar   39   0.470   2.537   4.003
    1   AR   Ar   40   0.760   3.739   2.231
    1   AR   Ar   41   0.955   1.936   3.198
    1   AR   Ar   42   4.926   6.011   5.786
    1   AR   Ar   43   0.254   3.003   5.423
    1   AR   Ar   44   0.224   4.026   3.043
    1   AR   Ar   45   1.790   3.649   5.155
    1   AR   Ar   46   6.339   4.643   6.811
    1   AR   Ar   47   3.532   3.970   7.747
    1   AR   Ar   48   0.132   3.631   7.389
    1   AR   Ar   49   0.678   1.283   0.713
    1   AR   Ar   50   4.243   4.635   0.632
    1   AR   Ar   51   5.550   3.537   2.633
    1   AR   Ar   52   5.398   3.390  -0.841
    1   AR   Ar   53   4.546   0.239   3.057
    1   AR   Ar   54   6.868   7.031   2.562
    1   AR   Ar   55   7.091   4.846   2.473
    1   AR   Ar   56   6.037   1.552   2.930
    1   AR   Ar   57   4.016   4.693   2.174
    1   AR   Ar   58   0.833   3.631   4.142
    1   AR   Ar   59   3.122   5.113   5.475
    1   AR   Ar   60   0.188   5.656   3.042
    1   AR   Ar   61   0.093   3.737   6.353
    1   AR   Ar   62   0.134   4.405   4.960
    1   AR   Ar   63   3.380   2.402   7.477
    1   AR   Ar   64   0.418   5.512   4.746
    1   AR   Ar   65   4.077   0.930   2.389
    1   AR   Ar   66   1.734   1.445   1.123
    1   AR   Ar   67   4.489   0.134  -0.630
    1   AR   Ar   68   0.094   1.514  -0.680
    1   AR   Ar   69   2.569   1.290  -0.306
    1   AR   Ar   70   0.061   1.710   1.715
    1   AR   Ar   71   2.905   0.814   2.753
    1   AR   Ar   72   4.401   1.347   1.254
    1   AR   Ar   73   3.227   0.130   3.879
    1   AR   Ar   74   1.083   0.833   3.778
    1   AR   Ar   75   3.126   0.673   4.818
    1   AR   Ar   76   2.323   0.248   1.132
    1   AR   Ar   77   2.088   5.851   5.731
    1   AR   Ar   78   6.764   5.381   6.045
    1   AR   Ar   79   3.037   6.545   5.821
    1   AR   Ar   80   3.881   5.942   5.928
    1   AR   Ar   81   2.000   6.399   1.186
    1   AR   Ar   82   6.674   5.307   1.335
    1   AR   Ar   83   1.448   3.480   1.093
    1   AR   Ar   84   0.883   4.677   1.112
    1   AR   Ar   85   1.035   3.553   0.019
    1   AR   Ar   86   1.818   5.333   1.216
    1   AR   Ar   87   3.326   2.881   2.561
    1   AR   Ar   88   3.454   5.508   1.227
    1   AR   Ar   89   6.389   2.162   1.149
    1   AR   Ar   90   3.332   1.424   5.699
    1   AR   Ar   91   1.840   0.884   2.961
    1   AR   Ar   92   2.160   2.359   1.353
    1   AR   Ar   93   2.092   0.869   5.375
    1   AR   Ar   94   0.888   0.053   8.531
    1   AR   Ar   95   4.298   1.158   5.337
    1   AR   Ar   96   2.285   7.011   4.768
    1   AR   Ar   97   2.874   2.181  -0.867
    1   AR   Ar   98   1.803   4.375   4.379
    1   AR   Ar   99   6.007   0.709  -0.176
    1   AR   Ar  100   6.082   2.704  -2.363
    1   AR   Ar  101   3.892   6.226   2.426
    1   AR   Ar  102   3.357   1.753   2.580
    1   AR   Ar  103   1.893   4.390   0.628
    1   AR   Ar  104   3.198   0.024  -1.082
    1   AR   Ar  105   2.774   2.204   3.326
    1   AR   Ar  106   4.180   2.211   4.641
    1   AR   Ar  107   1.161   5.067   5.306
    1   AR   Ar  108   2.159   0.596   4.006
    1   AR   Ar  109   2.142   4.617   5.390
    1   AR   Ar  110   2.301   2.409   5.022
    1   AR   Ar  111   3.519   5.297   7.812
    1   AR   Ar  112   6.164   6.341   5.661
    1   AR   Ar  113   1.091   6.119  -1.651
    1   AR   Ar  114   2.856   0.230  -0.095
    1   AR   Ar  115   0.457   5.379   0.421
    1   AR   Ar  116   4.987   0.312   0.906
    1   AR   Ar  117   0.194   4.826   3.746
    1   AR   Ar  118   2.177   5.995   3.560
    1   AR   Ar  119   1.283   4.152   3.109
    1   AR   Ar  120   2.235   0.097   2.216
    1   AR   Ar  121   4.869   4.323   5.734
    1   AR   Ar  122   2.803   5.353   4.042
    1   AR   Ar  123   3.350   2.663   5.191
    1   AR   Ar  124   0.681   5.591   1.834
    1   AR   Ar  125   5.593   3.721   3.846
    1   AR   Ar  126   6.678   0.734   7.384
    1   AR   Ar  127   4.937   3.032   6.167
    1   AR   Ar  128   1.173   3.718   6.367
    1   AR   Ar  129   1.847   5.652   4.451
    1   AR   Ar  130   3.910   0.812  -4.758
    1   AR   Ar  131   4.149   6.669  -1.689
    1   AR   Ar  132   1.239   2.380   0.833
    1   AR   Ar  133   4.217   0.513   4.480
    1   AR   Ar  134   2.771   1.609   4.258
    1   AR   Ar  135   5.649   0.937   4.817
    1   AR   Ar  136   5.918   6.740   2.660
    1   AR   Ar  137   2.700   4.277   6.170
    1   AR   Ar  138   5.704   1.062   5.882
    1   AR   Ar  139   6.311   1.658   4.785
    1   AR   Ar  140   4.429   6.552   4.832
    1   AR   Ar  141   3.701   5.402   4.638
    1   AR   Ar  142   4.807   6.599   7.930
    1   AR   Ar  143   5.237   6.648   6.615
    1   AR   Ar  144   0.145   2.003   5.129
    1   AR   Ar  145   4.467   4.793  -0.483
    1   AR   Ar  146   3.847   2.326   3.380
    1   AR   Ar  147   5.248   4.180  -0.234
    1   AR   Ar  148   3.160   6.046  -1.069
    1   AR   Ar  149   0.106   2.709  -1.003
    1   AR   Ar  150   1.912   2.587   2.752
    1   AR   Ar  151   2.486   3.331   3.241
    1   AR   Ar  152   0.642   1.029  -1.754
    1   AR   Ar  153   5.366   0.837   3.073
    1   AR   Ar  154   4.763   2.923   3.687
    1   AR   Ar  155   5.862   3.768   5.254
    1   AR   Ar  156   2.606   4.592   3.247
    1   AR   Ar  157   3.420   5.524   6.712
    1   AR   Ar  158   0.625   2.356   6.393
    1   AR   Ar  159   3.875   0.111   5.896
    1   AR   Ar  160   1.136   1.074   4.927
    1   AR   Ar  161   4.542   4.576   3.031
    1   AR   Ar  162   3.832   5.631  -0.323
    1   AR   Ar  163   6.330   4.179   2.515
    1   AR   Ar  164   2.056   5.860   2.386
    1   AR   Ar  165   3.434   4.211   1.339
    1   AR   Ar  166   2.879   3.717   5.067
    1   AR   Ar  167   6.252   6.979   3.659
    1   AR   Ar  168   5.796   4.681  -2.523
    1   AR   Ar  169   3.653   3.703   3.125
    1   AR   Ar  170   2.489   3.015   5.906
    1   AR   Ar  171   5.154   5.535   4.212
    1   AR   Ar  172   3.687   3.774   4.257
    1   AR   Ar  173   2.769   2.077   6.472
    1   AR   Ar  174   3.109   6.272   4.475
    1   AR   Ar  175   2.936   0.467   6.141
    1   AR   Ar  176   3.202   2.612   4.123
    1   AR   Ar  177   0.054   4.189  -0.801
    1   AR   Ar  178   2.844   6.349   0.170
    1   AR   Ar  179   3.429   6.716   0.933
    1   AR   Ar  180   4.939   0.575  -7.828
    1   AR   Ar  181   7.008   6.260   1.695
    1   AR   Ar  182   1.123   5.986   2.828
    1   AR   Ar  183   4.474   5.598   1.881
    1   AR   Ar  184   4.566   5.609   0.823
    1   AR   Ar  185   2.891   4.369   4.288
    1   AR   Ar  186   3.045   6.645   3.071
    1   AR   Ar  187   4.016   5.996   3.667
    1   AR   Ar  188   3.240   0.612   1.669
    1   AR   Ar  189   5.867   2.393   5.608
    1   AR   Ar  190   1.618   6.854   3.999
    1   AR   Ar  191   3.825   6.546   6.955
    1   AR   Ar  192   4.083   3.613   5.450
    1   AR   Ar  193   3.017   6.240   1.837
    1   AR   Ar  194   5.074   5.972  -1.350
    1   AR   Ar  195   6.119   1.049   0.996
    1   AR   Ar  196   3.630   0.734   0.447
    1   AR   Ar  197   4.653   3.353   0.629
    1   AR   Ar  198   5.875   7.114   1.187
    1   AR   Ar  199   0.962   0.264   2.671
    1   AR   Ar  200   6.045   2.616  -0.230
    1   AR   Ar  201   6.379   5.778   2.448
    1   AR   Ar  202   5.176   0.520   3.962
    1   AR   Ar  203   0.076   6.584   3.375
    1   AR   Ar  204   4.541   4.392   7.330
    1   AR   Ar  205   5.434   1.870   1.987
    1   AR   Ar  206   6.266   0.042   6.305
    1   AR   Ar  207   6.971   3.218   4.465
    1   AR   Ar  208   0.985   5.846   3.946
    1   AR   Ar  209   0.191   1.943  -1.785
    1   AR   Ar  210   1.492   0.979   0.154
    1   AR   Ar  211   7.117   3.148   0.369
    1   AR   Ar  212   6.159   3.789   0.037
    1   AR   Ar  213   3.379   1.968   1.275
    1   AR   Ar  214   5.299   4.486   2.070
    1   AR   Ar  215   0.050   2.751   1.568
    1   AR   Ar  216   1.939   2.183   0.138
    1   AR   Ar  217   5.555   1.812   3.880
    1   AR   Ar  218   5.067   3.077   4.703
    1   AR   Ar  219   4.335   3.601   2.368
    1   AR   Ar  220   4.505   3.953   1.390
    1   AR   Ar  221   6.501   5.826   3.936
    1   AR   Ar  222   5.019   0.051   5.597
    1   AR   Ar  223   6.590   1.655   6.074
    1   AR   Ar  224   5.142   1.845   5.093
    1   AR   Ar  225   7.017   2.499   2.761
    1   AR   Ar  226   2.057   3.058   4.215
    1   AR   Ar  227   0.935   2.960   2.982
    1   AR   Ar  228   6.259   0.520   1.961
    1   AR   Ar  229   5.975   4.778  -0.912
    1   AR   Ar  230   3.735   4.737   3.796
    1   AR   Ar  231   4.433   1.909   2.558
    1   AR   Ar  232   5.001   2.889   1.992
    1   AR   Ar  233   6.646   2.071   3.817
    1   AR   Ar  234   5.955   2.783   4.437
    1   AR   Ar  235   6.440   0.955   3.665
    1   AR   Ar  236   4.036   4.652   5.351
    1   AR   Ar  237   4.469   0.271   7.315
    1   AR   Ar  238   5.268   5.015   6.466
    1   AR   Ar  239   1.018   4.449  11.318
    1   AR   Ar  240   1.954   2.901   6.859
    1   AR   Ar  241   1.810   6.940   0.272
    1   AR   Ar  242   5.583   5.461   1.360
    1   AR   Ar  243   4.833   6.761   2.321
    1   AR   Ar  244   6.722   6.477   0.273
    1   AR   Ar  245   4.031   1.266   3.631
    1   AR   Ar  246   5.774   0.004  -1.121
    1   AR   Ar  247   0.205   3.716   1.340
    1   AR   Ar  248   5.467   5.179  -0.072
    1   AR   Ar  249   4.158   0.140   1.567
    1   AR   Ar  250   5.008   6.523   3.602
    1   AR   Ar  251   4.875   4.255   4.648
    1   AR   Ar  252   2.661   4.757   1.839
    1   AR   Ar  253   5.381   2.271   7.579
    1   AR   Ar  254   5.337   3.244  11.312
    1   AR   Ar  255   4.321   6.355   9.038
    1   AR   Ar  256   5.681   5.809   3.380
    7.12000  7.12000 12.00000
Argon-slab step 5140
  256
    1   AR   Ar    1   4.597   3.516  -3.021
    1   AR   Ar    2   5.160   6.372   0.527
    1   AR   Ar    3   3.784   3.420  -1.228
    1   AR   Ar    4   2.721   1.308   0.900
    1   AR   Ar    5   6.907   5.212  -0.544
    1   AR   Ar    6   1.214   1.565   2.212
    1   AR   Ar    7   5.921   4.733   3.252
    1   AR   Ar    8   6.522   3.514  -1.248
    1   AR   Ar    9   6.919   6.532   4.697
    1   AR   Ar   10   6.003   5.259   5.334
    1   AR   Ar   11   1.135   6.353   4.940
    1   AR   Ar   12   0.330   1.389   4.215
    1   AR   Ar   13   6.837   0.518   4.751
    1   AR   Ar   14   3.797   0.852   6.708
    1   AR   Ar   15   2.490   6.540   9.657
    1   AR   Ar   16   0.789   0.239   6.141
    1   AR   Ar   17   6.019   3.846   1.112
    1   AR   Ar   18   0.090   4.957  -1.819
    1   AR   Ar   19   5.267   4.445   0.706
    1   AR   Ar   20   6.816   3.760  -2.146
    1   AR   Ar   21   2.359   1.537   2.119
    1   AR   Ar   22   4.986   0.819   1.974
    1   AR   Ar   23   0.959   6.290   0.949
    1   AR   Ar   24   5.888   2.601   3.210
    1   AR   Ar   25   1.135   2.926   4.821
    1   AR   Ar   26   5.713   6.881   4.547
    1   AR   Ar   27   1.516   0.701   1.821
    1   AR   Ar   28   1.781   1.491   3.925
    1   AR   Ar   29   5.009   1.148   8.051
    1   AR   Ar   30   0.166   0.959   2.938
    1   AR   Ar   31   2.046   0.427   6.951
    1   AR   Ar   32   1.255   2.013   5.393
    1   AR   Ar   33   0.001   4.367   0.380
    1   AR   Ar   34   1.264   4.959   2.453
    1   AR   Ar   35   5.288   5.570   2.384
    1   AR   Ar   36   5.139   2.605  -3.327
    1   AR   Ar   37   3.742   2.991   1.335
    1   AR   Ar   38   6.182   4.763   4.285
    1   AR   Ar   39   0.494   2.494   4.026
    1   AR   Ar   40   0.786   3.761   2.258
    1   AR   Ar   41   0.947   1.910   3.208
    1   AR   Ar   42   4.877   5.970   5.770
    1   AR   Ar   43   0.278   3.040   5.460
    1   AR   Ar   44   0.265   4.025   3.083
    1   AR   Ar   45   1.812   3.641   5.130
    1   AR   Ar   46   6.341   4.643   6.814
    1   AR   Ar   47   3.499   3.975   7.725
    1   AR   Ar   48   0.138   3.640   7.354
    1   AR   Ar   49   0.706   1.282   0.729
    1   AR   Ar   50   4.195   4.652   0.612
    1   AR   Ar   51   5.568   3.519   2.626
    1   AR   Ar   52   5.416   3.402  -0.876
    1   AR   Ar   53   4.537   0.261   3.022
    1   AR   Ar   54   6.832   7.030   2.564
    1   AR   Ar   55   7.116   4.840   2.490
    1   AR   Ar   56   6.023   1.551   2.933
    1   AR   Ar   57   4.022   4.676   2.165
    1   AR   Ar   58   0.838   3.615   4.130
    1   AR   Ar   59   3.100   5.136   5.463
    1   AR   Ar   60   0.184   5.652   3.052
    1   AR   Ar   61   0.059   3.761   6.329
    1   AR   Ar   62   0.147   4.413   4.955
    1   AR   Ar   63   3.394   2.400   7.491
    1   AR   Ar   64   0.431   5.541   4.727
    1   AR   Ar   65   4.073   0.889   2.413
    1   AR   Ar   66   1.706   1.457   1.105
    1   AR   Ar   67   4.531   0.141  -0.638
    1   AR   Ar   68   0.105   1.533  -0.661
    1   AR   Ar   69   2.574   1.329  -0.298
    1   AR   Ar   70   0.044   1.683   1.701
    1   AR   Ar   71   2.911   0.793   2.740
    1   AR   Ar   72   4.372   1.338   1.243
    1   AR   Ar   73   3.263   0.085   3.893
    1   AR   Ar   74   1.060   0.851   3.755
    1   AR   Ar   75   3.107   0.691   4.798
    1   AR   Ar   76   2.329   0.248   1.152
    1   AR   Ar   77   2.086   5.845   5.714
    1   AR   Ar   78   6.778   5.371   6.035
    1   AR   Ar   79   3.085   6.561   5.831
    1   AR   Ar   80   3.893   5.921   5.929
    1   AR   Ar   81   2.023   6.369   1.216
    1   AR   Ar   82   6.661   5.333   1.356
    1   AR   Ar   83   1.449   3.463   1.085
    1   AR   Ar   84   0.853   4.670   1.135
    1   AR   Ar   85   1.028   3.535   0.041
    1   AR   Ar   86   1.829   5.342   1.213
    1   AR   Ar   87   3.329   2.910   2.568
    1   AR   Ar   88   3.453   5.507   1.218
    1   AR   Ar   89   6.398   2.188   1.168
    1   AR   Ar   90   3.348   1.392   5.712
    1   AR   Ar   91   1.822   0.854   2.940
    1   AR   Ar   92   2.186   2.335   1.321
    1   AR   Ar   93   2.094   0.876   5.390
    1   AR   Ar   94   0.868   0.072   8.539
    1   AR   Ar   95   4.279   1.163   5.364
    1   AR   Ar   96   2.274   6.986   4.792
    1   AR   Ar   97   2.900   2.163  -0.886
    1   AR   Ar   98   1.809   4.383   4.387
    1   AR   Ar   99   6.026   0.664  -0.169
    1   AR   Ar  100   6.042   2.697  -2.345
    1   AR   Ar  101   3.893   6.232   2.426
    1   AR   Ar  102   3.343   1.763   2.567
    1   AR   Ar  103   1.911   4.392   0.633
    1   AR   Ar  104   3.187   0.043  -1.085
    1   AR   Ar  105   2.739   2.176   3.288
    1   AR   Ar  106   4.187   2.176   4.626
    1   AR   Ar  107   1.159   5.082   5.295
    1   AR   Ar  108   2.184   0.599   4.014
    1   AR   Ar  109   2.166   4.630   5.409
    1   AR   Ar  110   2.295   2.428   4.997
    1   AR   Ar  111   3.496   5.259   7.769
    1   AR   Ar  112   6.159   6.343   5.645
    1   AR   Ar  113   1.075   6.102  -1.622
    1   AR   Ar  114   2.877   0.236  -0.119
    1   AR   Ar  115   0.468   5.355   0.411
    1   AR   Ar  116   4.982   0.309   0.892
    1   AR   Ar  117   0.189   4.811   3.769
    1   AR   Ar  118   2.204   6.002   3.548
    1   AR   Ar  119   1.331   4.137   3.115
    1   AR   Ar  120   2.236   0.122   2.256
    1   AR   Ar  121   4.918   4.325   5.712
    1   AR   Ar  122   2.782   5.339   4.020
    1   AR   Ar  123   3.377   2.641   5.216
    1   AR   Ar  124   0.661   5.575   1.845
    1   AR   Ar  125   5.623   3.743   3.831
    1   AR   Ar  126   6.661   0.722   7.373
    1   AR   Ar  127   4.928   3.011   6.169
    1   AR   Ar  128   1.147   3.728   6.391
    1   AR   Ar  129   1.836   5.644   4.452
    1   AR   Ar  130   3.909   0.806  -4.761
    1   AR   Ar  131   4.123   6.684  -1.675
    1   AR   Ar  132   1.240   2.411   0.843
    1   AR   Ar  133   4.220   0.567   4.473
    1   AR   Ar  134   2.782   1.602   4.292
    1   AR   Ar  135   5.651   0.888   4.845
    1   AR   Ar  136   5.888   6.747   2.659
    1   AR   Ar  137   2.680   4.260   6.182
    1   AR   Ar  138   5.720   1.076   5.904
    1   AR   Ar  139   6.332   1.643   4.775
    1   AR   Ar  140   4.413   6.564   4.859
    1   AR   Ar  141   3.689   5.386   4.647
    1   AR   Ar  142   4.806   6.592   7.946
    1   AR   Ar  143   5.244   6.637   6.591
    1   AR   Ar  144   0.137   2.007   5.098
    1   AR   Ar  145   4.472   4.814  -0.518
    1   AR   Ar  146   3.867   2.310   3.356
    1   AR   Ar  147   5.250   4.196  -0.232
    1   AR   Ar  148   3.159   6.025  -1.079
    1   AR   Ar  149   0.089   2.755  -1.021
    1   AR   Ar  150   1.899   2.586   2.717
    1   AR   Ar  151   2.464   3.325   3.235
    1   AR   Ar  152   0.650   1.047  -1.762
    1   AR   Ar  153   5.365   0.839   3.033
    1   AR   Ar  154   4.757   2.901   3.681
    1   AR   Ar  155   5.871   3.787   5.275
    1   AR   Ar  156   2.634   4.575   3.226
    1   AR   Ar  157   3.441   5.545   6.714
    1   AR   Ar  158   0.645   2.379   6.427
    1   AR   Ar  159   3.889   0.091   5.877
    1   AR   Ar  160   1.144   1.097   4.861
    1   AR   Ar  161   4.544   4.596   3.024
    1   AR   Ar  162   3.876   5.645  -0.299
    1   AR   Ar  163   6.357   4.184   2.495
    1   AR   Ar  164   2.056   5.881   2.361
    1   AR   Ar  165   3.468   4.204   1.354
    1   AR   Ar  166   2.906   3.701   5.071
    1   AR   Ar  167   6.242   6.975   3.647
    1   AR   Ar  168   5.816   4.683  -2.519
    1   AR   Ar  169   3.675   3.707   3.133
    1   AR   Ar  170   2.479   3.008   5.945
    1   AR   Ar  171   5.155   5.551   4.228
    1   AR   Ar  172   3.728   3.761   4.269
    1   AR   Ar  173   2.780   2.061   6.469
    1   AR   Ar  174   3.127   6.258   4.472
    1   AR   Ar  175   2.933   0.460   6.143
    1   AR   Ar  176   3.186   2.598   4.117
    1   AR   Ar  177   0.026   4.184  -0.808
    1   AR   Ar  178   2.830   6.326   0.177
    1   AR   Ar  179   3.419   6.703   0.893
    1   AR   Ar  180   4.940   0.581  -7.856
    1   AR   Ar  181   7.023   6.244   1.720
    1   AR   Ar  182   1.133   6.003   2.845
    1   AR   Ar  183   4.468   5.630   1.870
    1   AR   Ar  184   4.585   5.578   0.801
    1   AR   Ar  185   2.904   4.370   4.314
    1   AR   Ar  186   3.064   6.683   3.085
    1   AR   Ar  187   3.985   5.980   3.666
    1   AR   Ar  188   3.242   0.629   1.663
    1   AR   Ar  189   5.885   2.408   5.581
    1   AR   Ar  190   1.580   6.876   4.010
    1   AR   Ar  191   3.854   6.560   6.967
    1   AR   Ar  192   4.069   3.626   5.446
    1   AR   Ar  193   2.996   6.256   1.862
    1   AR   Ar  194   5.060   5.991  -1.349
    1   AR   Ar  195   6.141   1.031   1.013
    1   AR   Ar  196   3.620   0.717   0.440
    1   AR   Ar  197   4.634   3.327   0.634
    1   AR   Ar  198   5.900   7.086   1.194
    1   AR   Ar  199   0.927   0.240   2.655
    1   AR   Ar  200   6.054   2.614  -0.238
    1   AR   Ar  201   6.374   5.746   2.410
    1   AR   Ar  202   5.185   0.539   3.946
    1   AR   Ar  203   0.081   6.561   3.386
    1   AR   Ar  204   4.508   4.383   7.290
    1   AR   Ar  205   5.421   1.871   1.982
    1   AR   Ar  206   6.278   0.036   6.318
    1   AR   Ar  207   7.007   3.234   4.478
    1   AR   Ar  208   0.969   5.852   3.953
    1   AR   Ar  209   0.177   1.941  -1.796
    1   AR   Ar  210   1.505   0.976   0.124
    1   AR   Ar  211   7.079   3.135   0.379
    1   AR   Ar  212   6.183   3.798   0.061
    1   AR   Ar  213   3.347   1.979   1.276
    1   AR   Ar  214   5.282   4.497   2.060
    1   AR   Ar  215   0.048   2.761   1.565
    1   AR   Ar  216   1.941   2.198   0.140
    1   AR   Ar  217   5.552   1.797   3.886
    1   AR   Ar  218   5.060   3.060   4.720
    1   AR   Ar  219   4.345   3.626   2.337
    1   AR   Ar  220   4.489   3.991   1.395
    1   AR   Ar  221   6.483   5.816   3.948
    1   AR   Ar  222   5.037   0.034   5.597
    1   AR   Ar  223   6.598   1.671   6.052
    1   AR   Ar  224   5.135   1.845   5.086
    1   AR   Ar  225   6.997   2.526   2.718
    1   AR   Ar  226   2.075   3.073   4.216
    1   AR   Ar  227   0.936   2.950   2.988
    1   AR   Ar  228   6.238   0.531   1.974
    1   AR   Ar  229   5.970   4.782  -0.915
    1   AR   Ar  230   3.741   4.720   3.790
    1   AR   Ar  231   4.472   1.914   2.540
    1   AR   Ar  232   5.007   2.916   2.006
    1   AR   Ar  233   6.632   2.059   3.836
    1   AR   Ar  234   5.965   2.765   4.424
    1   AR   Ar  235   6.447   0.946   3.681
    1   AR   Ar  236   4.043   4.633   5.350
    1   AR   Ar  237   4.480   0.254   7.302
    1   AR   Ar  238   5.231   5.008   6.461
    1   AR   Ar  239   1.013   4.468  11.326
    1   AR   Ar  240   1.940   2.917   6.842
    1   AR   Ar  241   1.781   6.932   0.238
    1   AR   Ar  242   5.612   5.460   1.329
    1   AR   Ar  243   4.835   6.793   2.316
    1   AR   Ar  244   6.742   6.485   0.280
    1   AR   Ar  245   3.991   1.232   3.615
    1   AR   Ar  246   5.783   0.035  -1.122
    1   AR   Ar  247   0.188   3.743   1.315
    1   AR   Ar  248   5.471   5.195  -0.038
    1   AR   Ar  249   4.192   0.131   1.537
    1   AR   Ar  250   5.016   6.535   3.581
    1   AR   Ar  251   4.851   4.272   4.633
    1   AR   Ar  252   2.640   4.779   1.860
    1   AR   Ar  253   5.349   2.290   7.616
    1   AR   Ar  254   5.311   3.246  11.353
    1   AR   Ar  255   4.318   6.377   9.034
    1   AR   Ar  256   5.678   5.792   3.398
    7.12000  7.12000 12.00000
Argon-slab step 5145
  256
    1   AR   Ar    1   4.551   3.520  -3.029
    1   AR   Ar    2   5.172   6.343   0.537
    1   AR   Ar    3   3.780   3.440  -1.239
    1   AR   Ar    4   2.723   1.311   0.895
    1   AR   Ar    5   6.911   5.200  -0.542
    1   AR   Ar    6   1.217   1.575   2.218
    1   AR   Ar    7   5.921   4.714   3.257
    1   AR   Ar    8   6.479   3.500  -1.241
    1   AR   Ar    9   6.949   6.567   4.651
    1   AR   Ar   10   6.019   5.289   5.355
    1   AR   Ar   11   1.143   6.399   4.936
    1   AR   Ar   12   0.297   1.384   4.243
    1   AR   Ar   13   6.852   0.534   4.765
    1   AR   Ar   14   3.820   0.827   6.735
    1   AR   Ar   15   2.500   6.546   9.650
    1   AR   Ar   16   0.787   0.246   6.128
    1   AR   Ar   17   6.023   3.854   1.113
    1   AR   Ar   18   0.086   4.944  -1.808
    1   AR   Ar   19   5.241   4.445   0.750
    1   AR   Ar   20   6.795   3.762  -2.153
    1   AR   Ar   21   2.356   1.572   2.124
    1   AR   Ar   22   4.961   0.794   1.983
    1   AR   Ar   23   0.981   6.298   0.934
    1   AR   Ar   24   5.856   2.612   3.198
    1   AR   Ar   25   1.132   2.940   4.837
    1   AR   Ar   26   5.736   6.824   4.536
    1   AR   Ar   27   1.510   0.710   1.816
    1   AR   Ar   28   1.786   1.533   3.954
    1   AR   Ar   29   4.996   1.140   8.069
    1   AR   Ar   30   0.147   0.969   2.921
    1   AR   Ar   31   2.022   0.394   6.947
    1   AR   Ar   32   1.259   2.005   5.397
    1   AR   Ar   33   7.110   4.366   0.407
    1   AR   Ar   34   1.265   4.989   2.439
    1   AR   Ar   35   5.306   5.576   2.409
    1   AR   Ar   36   5.127   2.601  -3.339
    1   AR   Ar   37   3.753   2.978   1.364
    1   AR   Ar   38   6.172   4.796   4.314
    1   AR   Ar   39   0.520   2.449   4.049
    1   AR   Ar   40   0.816   3.782   2.276
    1   AR   Ar   41   0.940   1.879   3.220
    1   AR   Ar   42   4.838   5.930   5.751
    1   AR   Ar   43   0.303   3.077   5.500
    1   AR   Ar   44   0.302   4.019   3.129
    1   AR   Ar   45   1.788   3.636   5.136
    1   AR   Ar   46   6.348   4.663   6.828
    1   AR   Ar   47   3.467   3.981   7.702
    1   AR   Ar   48   0.144   3.649   7.322
    1   AR   Ar   49   0.731   1.283   0.748
    1   AR   Ar   50   4.144   4.666   0.589
    1   AR   Ar   51   5.584   3.502   2.623
    1   AR   Ar   52   5.437   3.411  -0.914
    1   AR   Ar   53   4.521   0.282   3.007
    1   AR   Ar   54   6.807   7.033   2.562
    1   AR   Ar   55   0.027   4.836   2.499
    1   AR   Ar   56   6.019   1.561   2.932
    1   AR   Ar   57   4.024   4.659   2.149
    1   AR   Ar   58   0.843   3.605   4.112
    1   AR   Ar   59   3.075   5.160   5.455
    1   AR   Ar   60   0.178   5.639   3.061
    1   AR   Ar   61   0.023   3.787   6.300
    1   AR   Ar   62   0.176   4.402   4.955
    1   AR   Ar   63   3.408   2.397   7.504
    1   AR   Ar   64   0.466   5.548   4.721
    1   AR   Ar   65   4.055   0.856   2.432
    1   AR   Ar   66   1.676   1.465   1.087
    1   AR   Ar   67   4.572   0.148  -0.646
    1   AR   Ar   68   0.117   1.553  -0.642
    1   AR   Ar   69   2.578   1.366  -0.286
    1   AR   Ar   70   0.029   1.652   1.690
    1   AR   Ar   71   2.919   0.771   2.728
    1   AR   Ar   72   4.340   1.329   1.233
    1   AR   Ar   73   3.266   0.066   3.902
    1   AR   Ar   74   1.031   0.856   3.727
    1   AR   Ar   75   3.088   0.709   4.780
    1   AR   Ar   76   2.336   0.252   1.170
    1   AR   Ar   77   2.078   5.839   5.694
    1   AR   Ar   78   6.793   5.362   6.026
    1   AR   Ar   79   3.126   6.574   5.838
    1   AR   Ar   80   3.905   5.904   5.922
    1   AR   Ar   81   2.024   6.369   1.231
    1   AR   Ar   82   6.651   5.355   1.376
    1   AR   Ar   83   1.449   3.447   1.078
    1   AR   Ar   84   0.824   4.662   1.161
    1   AR   Ar   85   1.020   3.516   0.065
    1   AR   Ar   86   1.838   5.349   1.213
    1   AR   Ar   87   3.331   2.934   2.573
    1   AR   Ar   88   3.455   5.505   1.208
    1   AR   Ar   89   6.391   2.191   1.175
    1   AR   Ar   90   3.358   1.361   5.726
    1   AR   Ar   91   1.802   0.827   2.919
    1   AR   Ar   92   2.217   2.316   1.291
    1   AR   Ar   93   2.098   0.883   5.404
    1   AR   Ar   94   0.849   0.080   8.534
    1   AR   Ar   95   4.266   1.165   5.390
    1   AR   Ar   96   2.267   6.960   4.819
    1   AR   Ar   97   2.926   2.147  -0.905
    1   AR   Ar   98   1.815   4.394   4.392
    1   AR   Ar   99   6.045   0.619  -0.161
    1   AR   Ar  100   6.003   2.691  -2.326
    1   AR   Ar  101   3.891   6.243   2.434
    1   AR   Ar  102   3.334   1.772   2.548
    1   AR   Ar  103   1.927   4.395   0.638
    1   AR   Ar  104   3.178   0.061  -1.092
    1   AR   Ar  105   2.699   2.147   3.250
    1   AR   Ar  106   4.194   2.140   4.610
    1   AR   Ar  107   1.160   5.094   5.286
    1   AR   Ar  108   2.218   0.596   4.021
    1   AR   Ar  109   2.186   4.647   5.421
    1   AR   Ar  110   2.289   2.443   4.974
    1   AR   Ar  111   3.474   5.219   7.726
    1   AR   Ar  112   6.153   6.344   5.626
    1   AR   Ar  113   1.059   6.086  -1.593
    1   AR   Ar  114   2.894   0.243  -0.139
    1   AR   Ar  115   0.478   5.331   0.404
    1   AR   Ar  116   4.976   0.307   0.880
    1   AR   Ar  117   0.184   4.799   3.795
    1   AR   Ar  118   2.226   6.018   3.527
    1   AR   Ar  119   1.381   4.120   3.125
    1   AR   Ar  120   2.242   0.139   2.296
    1   AR   Ar  121   4.976   4.322   5.693
    1   AR   Ar  122   2.766   5.323   4.000
    1   AR   Ar  123   3.404   2.620   5.242
    1   AR   Ar  124   0.644   5.556   1.855
    1   AR   Ar  125   5.652   3.764   3.817
    1   AR   Ar  126   6.642   0.711   7.361
    1   AR   Ar  127   4.930   3.015   6.170
    1   AR   Ar  128   1.122   3.738   6.414
    1   AR   Ar  129   1.829   5.634   4.462
    1   AR   Ar  130   3.907   0.801  -4.763
    1   AR   Ar  131   4.143   6.664  -1.665
    1   AR   Ar  132   1.231   2.443   0.856
    1   AR   Ar  133   4.222   0.618   4.464
    1   AR   Ar  134   2.773   1.600   4.294
    1   AR   Ar  135   5.649   0.834   4.872
    1   AR   Ar  136   5.847   6.751   2.658
    1   AR   Ar  137   2.666   4.239   6.199
    1   AR   Ar  138   5.733   1.089   5.926
    1   AR   Ar  139   6.368   1.637   4.750
    1   AR   Ar  140   4.397   6.576   4.887
    1   AR   Ar  141   3.682   5.370   4.654
    1   AR   Ar  142   4.804   6.584   7.962
    1   AR   Ar  143   5.249   6.635   6.592
    1   AR   Ar  144   0.133   2.013   5.068
    1   AR   Ar  145   4.476   4.835  -0.554
    1   AR   Ar  146   3.889   2.294   3.332
    1   AR   Ar  147   5.251   4.206  -0.242
    1   AR   Ar  148   3.159   6.006  -1.088
    1   AR   Ar  149   0.074   2.798  -1.037
    1   AR   Ar  150   1.886   2.582   2.679
    1   AR   Ar  151   2.444   3.321   3.229
    1   AR   Ar  152   0.658   1.047  -1.772
    1   AR   Ar  153   5.363   0.839   2.981
    1   AR   Ar  154   4.711   2.898   3.679
    1   AR   Ar  155   5.879   3.806   5.294
    1   AR   Ar  156   2.663   4.557   3.205
    1   AR   Ar  157   3.444   5.566   6.704
    1   AR   Ar  158   0.665   2.403   6.459
    1   AR   Ar  159   3.911   0.073   5.856
    1   AR   Ar  160   1.153   1.117   4.793
    1   AR   Ar  161   4.551   4.614   3.022
    1   AR   Ar  162   3.900   5.663  -0.299
    1   AR   Ar  163   6.384   4.183   2.471
    1   AR   Ar  164   2.071   5.895   2.344
    1   AR   Ar  165   3.499   4.199   1.368
    1   AR   Ar  166   2.934   3.679   5.082
    1   AR   Ar  167   6.231   6.972   3.635
    1   AR   Ar  168   5.837   4.686  -2.515
    1   AR   Ar  169   3.696   3.715   3.147
    1   AR   Ar  170   2.472   3.003   5.980
    1   AR   Ar  171   5.153   5.566   4.252
    1   AR   Ar  172   3.775   3.743   4.283
    1   AR   Ar  173   2.761   2.048   6.465
    1   AR   Ar  174   3.142   6.248   4.469
    1   AR   Ar  175   2.926   0.456   6.146
    1   AR   Ar  176   3.171   2.589   4.117
    1   AR   Ar  177   0.002   4.182  -0.813
    1   AR   Ar  178   2.810   6.298   0.179
    1   AR   Ar  179   3.413   6.696   0.861
    1   AR   Ar  180   4.941   0.587  -7.884
    1   AR   Ar  181   7.036   6.237   1.744
    1   AR   Ar  182   1.145   6.023   2.864
    1   AR   Ar  183   4.455   5.646   1.858
    1   AR   Ar  184   4.603   5.545   0.779
    1   AR   Ar  185   2.912   4.372   4.339
    1   AR   Ar  186   3.079   6.714   3.087
    1   AR   Ar  187   3.954   5.965   3.666
    1   AR   Ar  188   3.244   0.648   1.657
    1   AR   Ar  189   5.897   2.415   5.555
    1   AR   Ar  190   1.537   6.894   4.017
    1   AR   Ar  191   3.883   6.572   6.975
    1   AR   Ar  192   4.055   3.631   5.440
    1   AR   Ar  193   2.971   6.274   1.886
    1   AR   Ar  194   5.045   6.011  -1.347
    1   AR   Ar  195   6.161   1.014   1.030
    1   AR   Ar  196   3.612   0.702   0.439
    1   AR   Ar  197   4.618   3.298   0.635
    1   AR   Ar  198   5.927   7.051   1.199
    1   AR   Ar  199   0.893   0.214   2.639
    1   AR   Ar  200   6.064   2.616  -0.247
    1   AR   Ar  201   6.379   5.732   2.404
    1   AR   Ar  202   5.198   0.560   3.933
    1   AR   Ar  203   0.088   6.548   3.409
    1   AR   Ar  204   4.475   4.374   7.250
    1   AR   Ar  205   5.409   1.870   1.977
    1   AR   Ar  206   6.289   0.034   6.332
    1   AR   Ar  207   7.039   3.251   4.492
    1   AR   Ar  208   0.954   5.862   3.947
    1   AR   Ar  209   0.159   1.945  -1.806
    1   AR   Ar  210   1.524   0.972   0.093
    1   AR   Ar  211   7.040   3.123   0.390
    1   AR   Ar  212   6.210   3.807   0.081
    1   AR   Ar  213   3.346   1.984   1.276
    1   AR   Ar  214   5.265   4.508   2.050
    1   AR   Ar  215   0.048   2.770   1.565
    1   AR   Ar  216   1.938   2.222   0.156
    1   AR   Ar  217   5.548   1.780   3.895
    1   AR   Ar  218   5.053   3.037   4.748
    1   AR   Ar  219   4.375   3.630   2.343
    1   AR   Ar  220   4.478   4.032   1.402
    1   AR   Ar  221   6.477   5.806   3.967
    1   AR   Ar  222   5.054   0.017   5.595
    1   AR   Ar  223   6.612   1.672   6.031
    1   AR   Ar  224   5.129   1.844   5.077
    1   AR   Ar  225   6.977   2.553   2.676
    1   AR   Ar  226   2.101   3.078   4.211
    1   AR   Ar  227   0.934   2.945   2.996
    1   AR   Ar  228   6.215   0.547   1.993
    1   AR   Ar  229   5.964   4.783  -0.919
    1   AR   Ar  230   3.755   4.696   3.782
    1   AR   Ar  231   4.512   1.919   2.523
    1   AR   Ar  232   5.013   2.936   2.015
    1   AR   Ar  233   6.612   2.039   3.835
    1   AR   Ar  234   5.983   2.743   4.408
    1   AR   Ar  235   6.453   0.935   3.700
    1   AR   Ar  236   4.042   4.623   5.344
    1   AR   Ar  237   4.509   0.226   7.282
    1   AR   Ar  238   5.195   5.003   6.456
    1   AR   Ar  239   1.007   4.487  11.335
    1   AR   Ar  240   1.921   2.938   6.823
    1   AR   Ar  241   1.754   6.924   0.205
    1   AR   Ar  242   5.637   5.458   1.298
    1   AR   Ar  243   4.844   6.814   2.299
    1   AR   Ar  244   6.741   6.485   0.287
    1   AR   Ar  245   3.949   1.197   3.598
    1   AR   Ar  246   5.790   0.067  -1.122
    1   AR   Ar  247   0.172   3.776   1.288
    1   AR   Ar  248   5.475   5.218  -0.002
    1   AR   Ar  249   4.222   0.121   1.510
    1   AR   Ar  250   5.021   6.554   3.561
    1   AR   Ar  251   4.828   4.287   4.616
    1   AR   Ar  252   2.619   4.802   1.881
    1   AR   Ar  253   5.316   2.309   7.654
    1   AR   Ar  254   5.285   3.247  11.393
    1   AR   Ar  255   4.316   6.398   9.030
    1   AR   Ar  256   5.673   5.774   3.399
    7.12000  7.12000 12.00000
Argon-slab step 5150
  256
    1   AR   Ar    1   4.506   3.523  -3.036
    1   AR   Ar    2   5.190   6.320   0.547
    1   AR   Ar    3   3.777   3.461  -1.250
    1   AR   Ar    4   2.719   1.306   0.886
    1   AR   Ar    5   6.917   5.189  -0.538
    1   AR   Ar    6   1.217   1.593   2.227
    1   AR   Ar    7   5.919   4.696   3.263
    1   AR   Ar    8   6.427   3.485  -1.228
    1   AR   Ar    9   6.978   6.600   4.605
    1   AR   Ar   10   6.029   5.317   5.371
    1   AR   Ar   11   1.152   6.445   4.931
    1   AR   Ar   12   0.259   1.379   4.269
    1   AR   Ar   13   6.865   0.552   4.778
    1   AR   Ar   14   3.841   0.802   6.759
    1   AR   Ar   15   2.510   6.551   9.644
    1   AR   Ar   16   0.786   0.252   6.115
    1   AR   Ar   17   6.030   3.860   1.119
    1   AR   Ar   18   0.081   4.930  -1.795
    1   AR   Ar   19   5.213   4.450   0.801
    1   AR   Ar   20   6.776   3.768  -2.168
    1   AR   Ar   21   2.351   1.605   2.129
    1   AR   Ar   22   4.943   0.767   1.989
    1   AR   Ar   23   1.002   6.304   0.920
    1   AR   Ar   24   5.822   2.624   3.187
    1   AR   Ar   25   1.126   2.944   4.853
    1   AR   Ar   26   5.755   6.766   4.530
    1   AR   Ar   27   1.504   0.712   1.807
    1   AR   Ar   28   1.789   1.583   3.980
    1   AR   Ar   29   4.984   1.132   8.086
    1   AR   Ar   30   0.137   0.986   2.913
    1   AR   Ar   31   1.998   0.360   6.941
    1   AR   Ar   32   1.262   1.998   5.401
    1   AR   Ar   33   7.098   4.364   0.432
    1   AR   Ar   34   1.269   5.016   2.429
    1   AR   Ar   35   5.329   5.582   2.437
    1   AR   Ar   36   5.101   2.607  -3.334
    1   AR   Ar   37   3.766   2.968   1.395
    1   AR   Ar   38   6.162   4.828   4.345
    1   AR   Ar   39   0.548   2.405   4.072
    1   AR   Ar   40   0.846   3.802   2.286
    1   AR   Ar   41   0.932   1.846   3.233
    1   AR   Ar   42   4.824   5.891   5.728
    1   AR   Ar   43   0.292   3.067   5.489
    1   AR   Ar   44   0.335   4.008   3.178
    1   AR   Ar   45   1.806   3.586   5.148
    1   AR   Ar   46   6.355   4.683   6.840
    1   AR   Ar   47   3.436   3.988   7.679
    1   AR   Ar   48   0.151   3.658   7.294
    1   AR   Ar   49   0.748   1.285   0.767
    1   AR   Ar   50   4.089   4.675   0.563
    1   AR   Ar   51   5.601   3.490   2.626
    1   AR   Ar   52   5.457   3.418  -0.951
    1   AR   Ar   53   4.508   0.291   3.020
    1   AR   Ar   54   6.792   7.037   2.560
    1   AR   Ar   55   0.062   4.831   2.500
    1   AR   Ar   56   6.025   1.582   2.927
    1   AR   Ar   57   4.023   4.647   2.132
    1   AR   Ar   58   0.850   3.600   4.088
    1   AR   Ar   59   3.051   5.187   5.451
    1   AR   Ar   60   0.164   5.634   3.050
    1   AR   Ar   61   7.105   3.813   6.266
    1   AR   Ar   62   0.205   4.390   4.954
    1   AR   Ar   63   3.422   2.395   7.516
    1   AR   Ar   64   0.494   5.547   4.724
    1   AR   Ar   65   4.028   0.843   2.432
    1   AR   Ar   66   1.649   1.472   1.070
    1   AR   Ar   67   4.613   0.153  -0.655
    1   AR   Ar   68   0.129   1.574  -0.625
    1   AR   Ar   69   2.580   1.400  -0.270
    1   AR   Ar   70   0.016   1.619   1.681
    1   AR   Ar   71   2.931   0.753   2.721
    1   AR   Ar   72   4.308   1.317   1.225
    1   AR   Ar   73   3.250   0.071   3.916
    1   AR   Ar   74   1.002   0.855   3.693
    1   AR   Ar   75   3.070   0.724   4.765
    1   AR   Ar   76   2.345   0.260   1.187
    1   AR   Ar   77   2.042   5.830   5.668
    1   AR   Ar   78   6.813   5.354   6.020
    1   AR   Ar   79   3.155   6.582   5.844
    1   AR   Ar   80   3.908   5.896   5.914
    1   AR   Ar   81   2.008   6.395   1.234
    1   AR   Ar   82   6.647   5.371   1.395
    1   AR   Ar   83   1.448   3.435   1.073
    1   AR   Ar   84   0.797   4.652   1.188
    1   AR   Ar   85   0.990   3.481   0.026
    1   AR   Ar   86   1.846   5.351   1.213
    1   AR   Ar   87   3.331   2.954   2.576
    1   AR   Ar   88   3.458   5.503   1.199
    1   AR   Ar   89   6.377   2.188   1.178
    1   AR   Ar   90   3.357   1.334   5.744
    1   AR   Ar   91   1.790   0.811   2.903
    1   AR   Ar   92   2.253   2.299   1.262
    1   AR   Ar   93   2.076   0.869   5.395
    1   AR   Ar   94   0.829   0.071   8.511
    1   AR   Ar   95   4.264   1.166   5.413
    1   AR   Ar   96   2.261   6.933   4.848
    1   AR   Ar   97   2.953   2.134  -0.925
    1   AR   Ar   98   1.819   4.406   4.395
    1   AR   Ar   99   6.064   0.574  -0.151
    1   AR   Ar  100   5.997   2.683  -2.314
    1   AR   Ar  101   3.885   6.261   2.447
    1   AR   Ar  102   3.330   1.779   2.524
    1   AR   Ar  103   1.942   4.396   0.643
    1   AR   Ar  104   3.172   0.075  -1.105
    1   AR   Ar  105   2.655   2.119   3.216
    1   AR   Ar  106   4.199   2.105   4.591
    1   AR   Ar  107   1.169   5.102   5.281
    1   AR   Ar  108   2.255   0.592   4.028
    1   AR   Ar  109   2.197   4.665   5.423
    1   AR   Ar  110   2.284   2.455   4.958
    1   AR   Ar  111   3.452   5.178   7.685
    1   AR   Ar  112   6.147   6.345   5.605
    1   AR   Ar  113   1.042   6.069  -1.564
    1   AR   Ar  114   2.904   0.249  -0.153
    1   AR   Ar  115   0.486   5.309   0.397
    1   AR   Ar  116   4.976   0.308   0.862
    1   AR   Ar  117   0.178   4.792   3.826
    1   AR   Ar  118   2.242   6.042   3.501
    1   AR   Ar  119   1.435   4.101   3.139
    1   AR   Ar  120   2.250   0.145   2.332
    1   AR   Ar  121   5.037   4.315   5.674
    1   AR   Ar  122   2.755   5.305   3.982
    1   AR   Ar  123   3.430   2.599   5.268
    1   AR   Ar  124   0.629   5.535   1.863
    1   AR   Ar  125   5.680   3.784   3.803
    1   AR   Ar  126   6.624   0.699   7.347
    1   AR   Ar  127   4.937   3.038   6.169
    1   AR   Ar  128   1.097   3.745   6.437
    1   AR   Ar  129   1.823   5.622   4.478
    1   AR   Ar  130   3.906   0.795  -4.765
    1   AR   Ar  131   4.162   6.644  -1.654
    1   AR   Ar  132   1.214   2.473   0.873
    1   AR   Ar  133   4.224   0.667   4.456
    1   AR   Ar  134   2.752   1.603   4.274
    1   AR   Ar  135   5.647   0.778   4.899
    1   AR   Ar  136   5.799   6.751   2.658
    1   AR   Ar  137   2.657   4.213   6.222
    1   AR   Ar  138   5.744   1.100   5.947
    1   AR   Ar  139   6.397   1.627   4.727
    1   AR   Ar  140   4.380   6.587   4.914
    1   AR   Ar  141   3.680   5.354   4.656
    1   AR   Ar  142   4.801   6.574   7.979
    1   AR   Ar  143   5.240   6.668   6.633
    1   AR   Ar  144   0.135   2.026   5.042
    1   AR   Ar  145   4.482   4.856  -0.590
    1   AR   Ar  146   3.908   2.278   3.309
    1   AR   Ar  147   5.253   4.213  -0.256
    1   AR   Ar  148   3.159   5.987  -1.097
    1   AR   Ar  149   0.060   2.798  -1.034
    1   AR   Ar  150   1.873   2.574   2.639
    1   AR   Ar  151   2.428   3.319   3.222
    1   AR   Ar  152   0.661   1.073  -1.771
    1   AR   Ar  153   5.362   0.835   2.924
    1   AR   Ar  154   4.667   2.896   3.677
    1   AR   Ar  155   5.887   3.824   5.310
    1   AR   Ar  156   2.692   4.537   3.184
    1   AR   Ar  157   3.431   5.585   6.691
    1   AR   Ar  158   0.685   2.429   6.488
    1   AR   Ar  159   3.943   0.061   5.835
    1   AR   Ar  160   1.164   1.136   4.726
    1   AR   Ar  161   4.563   4.631   3.025
    1   AR   Ar  162   3.917   5.686  -0.303
    1   AR   Ar  163   6.407   4.178   2.443
    1   AR   Ar  164   2.094   5.904   2.334
    1   AR   Ar  165   3.517   4.193   1.380
    1   AR   Ar  166   2.962   3.652   5.097
    1   AR   Ar  167   6.222   6.968   3.620
    1   AR   Ar  168   5.858   4.687  -2.511
    1   AR   Ar  169   3.717   3.728   3.167
    1   AR   Ar  170   2.469   3.000   6.004
    1   AR   Ar  171   5.148   5.580   4.280
    1   AR   Ar  172   3.824   3.721   4.299
    1   AR   Ar  173   2.721   2.036   6.461
    1   AR   Ar  174   3.155   6.241   4.466
    1   AR   Ar  175   2.917   0.454   6.149
    1   AR   Ar  176   3.156   2.585   4.120
    1   AR   Ar  177   7.099   4.182  -0.814
    1   AR   Ar  178   2.783   6.266   0.174
    1   AR   Ar  179   3.413   6.693   0.837
    1   AR   Ar  180   4.942   0.593  -7.912
    1   AR   Ar  181   7.046   6.243   1.769
    1   AR   Ar  182   1.157   6.045   2.882
    1   AR   Ar  183   4.465   5.628   1.842
    1   AR   Ar  184   4.620   5.512   0.760
    1   AR   Ar  185   2.916   4.374   4.364
    1   AR   Ar  186   3.081   6.734   3.088
    1   AR   Ar  187   3.928   5.949   3.668
    1   AR   Ar  188   3.245   0.668   1.650
    1   AR   Ar  189   5.886   2.392   5.536
    1   AR   Ar  190   1.492   6.909   4.022
    1   AR   Ar  191   3.910   6.582   6.981
    1   AR   Ar  192   4.047   3.598   5.445
    1   AR   Ar  193   2.946   6.295   1.909
    1   AR   Ar  194   5.029   6.030  -1.344
    1   AR   Ar  195   6.182   0.998   1.046
    1   AR   Ar  196   3.608   0.688   0.443
    1   AR   Ar  197   4.602   3.270   0.635
    1   AR   Ar  198   5.954   7.012   1.202
    1   AR   Ar  199   0.860   0.188   2.625
    1   AR   Ar  200   6.076   2.619  -0.256
    1   AR   Ar  201   6.384   5.717   2.401
    1   AR   Ar  202   5.210   0.578   3.926
    1   AR   Ar  203   0.097   6.545   3.439
    1   AR   Ar  204   4.441   4.367   7.208
    1   AR   Ar  205   5.400   1.868   1.970
    1   AR   Ar  206   6.299   0.034   6.347
    1   AR   Ar  207   7.067   3.267   4.507
    1   AR   Ar  208   0.942   5.879   3.925
    1   AR   Ar  209   0.138   1.955  -1.816
    1   AR   Ar  210   1.546   0.968   0.061
    1   AR   Ar  211   7.002   3.111   0.400
    1   AR   Ar  212   6.238   3.814   0.097
    1   AR   Ar  213   3.358   1.991   1.278
    1   AR   Ar  214   5.247   4.518   2.040
    1   AR   Ar  215   0.052   2.778   1.566
    1   AR   Ar  216   1.934   2.250   0.182
    1   AR   Ar  217   5.543   1.762   3.907
    1   AR   Ar  218   5.040   3.017   4.779
    1   AR   Ar  219   4.406   3.634   2.364
    1   AR   Ar  220   4.478   4.073   1.407
    1   AR   Ar  221   6.482   5.797   3.992
    1   AR   Ar  222   5.073   0.001   5.593
    1   AR   Ar  223   6.633   1.651   6.014
    1   AR   Ar  224   5.124   1.842   5.066
    1   AR   Ar  225   6.957   2.579   2.634
    1   AR   Ar  226   2.125   3.087   4.201
    1   AR   Ar  227   0.929   2.941   3.006
    1   AR   Ar  228   6.189   0.569   2.016
    1   AR   Ar  229   5.959   4.782  -0.922
    1   AR   Ar  230   3.769   4.676   3.771
    1   AR   Ar  231   4.549   1.923   2.506
    1   AR   Ar  232   5.020   2.945   2.016
    1   AR   Ar  233   6.590   2.016   3.817
    1   AR   Ar  234   6.006   2.719   4.391
    1   AR   Ar  235   6.458   0.925   3.723
    1   AR   Ar  236   4.037   4.623   5.336
    1   AR   Ar  237   4.523   0.230   7.289
    1   AR   Ar  238   5.159   5.000   6.453
    1   AR   Ar  239   1.001   4.505  11.343
    1   AR   Ar  240   1.896   2.958   6.809
    1   AR   Ar  241   1.727   6.939   0.224
    1   AR   Ar  242   5.654   5.457   1.266
    1   AR   Ar  243   4.856   6.825   2.271
    1   AR   Ar  244   6.711   6.472   0.294
    1   AR   Ar  245   3.908   1.162   3.577
    1   AR   Ar  246   5.796   0.097  -1.121
    1   AR   Ar  247   0.157   3.811   1.262
    1   AR   Ar  248   5.478   5.243   0.036
    1   AR   Ar  249   4.244   0.109   1.488
    1   AR   Ar  250   5.023   6.577   3.541
    1   AR   Ar  251   4.805   4.302   4.597
    1   AR   Ar  252   2.608   4.798   1.908
    1   AR   Ar  253   5.283   2.327   7.691
    1   AR   Ar  254   5.259   3.249  11.434
    1   AR   Ar  255   4.314   6.420   9.024
    1   AR   Ar  256   5.667   5.754   3.388
    7.12000  7.12000 12.00000
Argon-slab step 5155
  256
    1   AR   Ar    1   4.461   3.527  -3.043
    1   AR   Ar    2   5.212   6.303   0.555
    1   AR   Ar    3   3.773   3.481  -1.261
    1   AR   Ar    4   2.711   1.296   0.874
    1   AR   Ar    5   6.922   5.179  -0.532
    1   AR   Ar    6   1.217   1.617   2.237
    1   AR   Ar    7   5.917   4.679   3.267
    1   AR   Ar    8   6.443   3.463  -1.207
    1   AR   Ar    9   7.006   6.632   4.556
    1   AR   Ar   10   6.029   5.317   5.350
    1   AR   Ar   11   1.162   6.488   4.928
    1   AR   Ar   12   0.218   1.371   4.287
    1   AR   Ar   13   6.876   0.572   4.791
    1   AR   Ar   14   3.859   0.779   6.779
    1   AR   Ar   15   2.520   6.557   9.637
    1   AR   Ar   16   0.785   0.259   6.101
    1   AR   Ar   17   6.039   3.865   1.130
    1   AR   Ar   18   0.075   4.915  -1.781
    1   AR   Ar   19   5.186   4.460   0.849
    1   AR   Ar   20   6.758   3.775  -2.186
    1   AR   Ar   21   2.359   1.622   2.120
    1   AR   Ar   22   4.932   0.742   1.987
    1   AR   Ar   23   1.020   6.309   0.906
    1   AR   Ar   24   5.789   2.633   3.179
    1   AR   Ar   25   1.110   2.962   4.855
    1   AR   Ar   26   5.773   6.708   4.526
    1   AR   Ar   27   1.499   0.709   1.796
    1   AR   Ar   28   1.785   1.637   4.002
    1   AR   Ar   29   4.983   1.123   8.090
    1   AR   Ar   30   0.127   1.004   2.905
    1   AR   Ar   31   1.975   0.327   6.934
    1   AR   Ar   32   1.266   1.993   5.405
    1   AR   Ar   33   7.104   4.349   0.464
    1   AR   Ar   34   1.278   5.037   2.423
    1   AR   Ar   35   5.350   5.587   2.461
    1   AR   Ar   36   5.074   2.613  -3.328
    1   AR   Ar   37   3.781   2.962   1.429
    1   AR   Ar   38   6.152   4.858   4.376
    1   AR   Ar   39   0.559   2.360   4.083
    1   AR   Ar   40   0.877   3.822   2.291
    1   AR   Ar   41   0.930   1.814   3.243
    1   AR   Ar   42   4.839   5.853   5.698
    1   AR   Ar   43   0.281   3.055   5.483
    1   AR   Ar   44   0.366   3.993   3.227
    1   AR   Ar   45   1.835   3.545   5.165
    1   AR   Ar   46   6.362   4.703   6.851
    1   AR   Ar   47   3.405   3.996   7.655
    1   AR   Ar   48   0.159   3.666   7.268
    1   AR   Ar   49   0.749   1.284   0.783
    1   AR   Ar   50   4.032   4.679   0.535
    1   AR   Ar   51   5.620   3.486   2.634
    1   AR   Ar   52   5.473   3.424  -0.987
    1   AR   Ar   53   4.548   0.313   3.047
    1   AR   Ar   54   6.784   7.040   2.560
    1   AR   Ar   55   0.102   4.820   2.493
    1   AR   Ar   56   6.039   1.609   2.920
    1   AR   Ar   57   4.022   4.641   2.120
    1   AR   Ar   58   0.860   3.598   4.059
    1   AR   Ar   59   3.032   5.218   5.452
    1   AR   Ar   60   0.149   5.633   3.036
    1   AR   Ar   61   7.067   3.841   6.229
    1   AR   Ar   62   0.234   4.379   4.952
    1   AR   Ar   63   3.415   2.409   7.540
    1   AR   Ar   64   0.505   5.547   4.730
    1   AR   Ar   65   4.024   0.858   2.399
    1   AR   Ar   66   1.636   1.480   1.057
    1   AR   Ar   67   4.655   0.156  -0.664
    1   AR   Ar   68   0.141   1.595  -0.609
    1   AR   Ar   69   2.581   1.430  -0.250
    1   AR   Ar   70   0.005   1.585   1.673
    1   AR   Ar   71   2.951   0.740   2.719
    1   AR   Ar   72   4.274   1.304   1.218
    1   AR   Ar   73   3.239   0.086   3.945
    1   AR   Ar   74   0.973   0.849   3.657
    1   AR   Ar   75   3.054   0.738   4.754
    1   AR   Ar   76   2.355   0.271   1.202
    1   AR   Ar   77   2.006   5.821   5.641
    1   AR   Ar   78   6.836   5.345   6.017
    1   AR   Ar   79   3.172   6.584   5.848
    1   AR   Ar   80   3.897   5.891   5.896
    1   AR   Ar   81   1.995   6.421   1.238
    1   AR   Ar   82   6.651   5.381   1.412
    1   AR   Ar   83   1.448   3.430   1.070
    1   AR   Ar   84   0.773   4.644   1.218
    1   AR   Ar   85   0.959   3.446  -0.010
    1   AR   Ar   86   1.851   5.352   1.216
    1   AR   Ar   87   3.330   2.969   2.577
    1   AR   Ar   88   3.463   5.500   1.191
    1   AR   Ar   89   6.382   2.195   1.175
    1   AR   Ar   90   3.344   1.311   5.764
    1   AR   Ar   91   1.811   0.824   2.895
    1   AR   Ar   92   2.292   2.286   1.234
    1   AR   Ar   93   2.060   0.868   5.402
    1   AR   Ar   94   0.809   0.063   8.487
    1   AR   Ar   95   4.275   1.164   5.433
    1   AR   Ar   96   2.256   6.906   4.878
    1   AR   Ar   97   2.980   2.122  -0.947
    1   AR   Ar   98   1.822   4.419   4.396
    1   AR   Ar   99   6.083   0.528  -0.140
    1   AR   Ar  100   6.040   2.673  -2.312
    1   AR   Ar  101   3.880   6.281   2.464
    1   AR   Ar  102   3.333   1.783   2.495
    1   AR   Ar  103   1.955   4.398   0.645
    1   AR   Ar  104   3.169   0.087  -1.127
    1   AR   Ar  105   2.609   2.092   3.188
    1   AR   Ar  106   4.203   2.071   4.570
    1   AR   Ar  107   1.169   5.103   5.289
    1   AR   Ar  108   2.292   0.587   4.034
    1   AR   Ar  109   2.199   4.680   5.419
    1   AR   Ar  110   2.281   2.460   4.948
    1   AR   Ar  111   3.431   5.135   7.644
    1   AR   Ar  112   6.139   6.348   5.584
    1   AR   Ar  113   1.027   6.049  -1.548
    1   AR   Ar  114   2.906   0.255  -0.161
    1   AR   Ar  115   0.492   5.311   0.395
    1   AR   Ar  116   4.985   0.313   0.838
    1   AR   Ar  117   0.171   4.789   3.861
    1   AR   Ar  118   2.254   6.072   3.471
    1   AR   Ar  119   1.444   4.083   3.159
    1   AR   Ar  120   2.258   0.135   2.357
    1   AR   Ar  121   5.063   4.325   5.702
    1   AR   Ar  122   2.749   5.289   3.966
    1   AR   Ar  123   3.454   2.579   5.294
    1   AR   Ar  124   0.615   5.513   1.866
    1   AR   Ar  125   5.708   3.802   3.791
    1   AR   Ar  126   6.604   0.687   7.333
    1   AR   Ar  127   4.945   3.060   6.165
    1   AR   Ar  128   1.073   3.751   6.459
    1   AR   Ar  129   1.841   5.619   4.495
    1   AR   Ar  130   3.904   0.790  -4.767
    1   AR   Ar  131   4.169   6.660  -1.620
    1   AR   Ar  132   1.242   2.449   0.894
    1   AR   Ar  133   4.203   0.666   4.451
    1   AR   Ar  134   2.738   1.607   4.255
    1   AR   Ar  135   5.645   0.722   4.926
    1   AR   Ar  136   5.750   6.748   2.659
    1   AR   Ar  137   2.650   4.184   6.247
    1   AR   Ar  138   5.752   1.110   5.968
    1   AR   Ar  139   6.413   1.610   4.709
    1   AR   Ar  140   4.362   6.598   4.941
    1   AR   Ar  141   3.683   5.338   4.653
    1   AR   Ar  142   4.799   6.562   7.997
    1   AR   Ar  143   5.229   6.701   6.672
    1   AR   Ar  144   0.145   2.047   5.024
    1   AR   Ar  145   4.488   4.875  -0.627
    1   AR   Ar  146   3.923   2.260   3.287
    1   AR   Ar  147   5.257   4.217  -0.268
    1   AR   Ar  148   3.160   5.971  -1.104
    1   AR   Ar  149   0.049   2.794  -1.028
    1   AR   Ar  150   1.859   2.564   2.596
    1   AR   Ar  151   2.414   3.318   3.213
    1   AR   Ar  152   0.666   1.094  -1.769
    1   AR   Ar  153   5.364   0.828   2.866
    1   AR   Ar  154   4.626   2.897   3.677
    1   AR   Ar  155   5.905   3.823   5.341
    1   AR   Ar  156   2.721   4.516   3.164
    1   AR   Ar  157   3.409   5.600   6.690
    1   AR   Ar  158   0.706   2.456   6.516
    1   AR   Ar  159   3.984   0.055   5.814
    1   AR   Ar  160   1.178   1.153   4.662
    1   AR   Ar  161   4.579   4.647   3.029
    1   AR   Ar  162   3.932   5.711  -0.304
    1   AR   Ar  163   6.427   4.168   2.413
    1   AR   Ar  164   2.113   5.910   2.324
    1   AR   Ar  165   3.516   4.186   1.387
    1   AR   Ar  166   2.988   3.621   5.117
    1   AR   Ar  167   6.213   6.965   3.604
    1   AR   Ar  168   5.881   4.688  -2.505
    1   AR   Ar  169   3.737   3.744   3.192
    1   AR   Ar  170   2.472   3.000   6.017
    1   AR   Ar  171   5.142   5.593   4.312
    1   AR   Ar  172   3.874   3.698   4.316
    1   AR   Ar  173   2.700   2.032   6.455
    1   AR   Ar  174   3.166   6.237   4.463
    1   AR   Ar  175   2.905   0.452   6.152
    1   AR   Ar  176   3.142   2.582   4.123
    1   AR   Ar  177   7.079   4.181  -0.814
    1   AR   Ar  178   2.752   6.231   0.164
    1   AR   Ar  179   3.416   6.695   0.819
    1   AR   Ar  180   4.943   0.599  -7.939
    1   AR   Ar  181   7.054   6.261   1.793
    1   AR   Ar  182   1.169   6.069   2.900
    1   AR   Ar  183   4.479   5.605   1.818
    1   AR   Ar  184   4.637   5.478   0.742
    1   AR   Ar  185   2.921   4.374   4.389
    1   AR   Ar  186   3.073   6.745   3.082
    1   AR   Ar  187   3.939   5.955   3.691
    1   AR   Ar  188   3.247   0.688   1.644
    1   AR   Ar  189   5.877   2.370   5.517
    1   AR   Ar  190   1.447   6.924   4.025
    1   AR   Ar  191   3.935   6.589   6.982
    1   AR   Ar  192   4.042   3.552   5.453
    1   AR   Ar  193   2.924   6.319   1.927
    1   AR   Ar  194   5.014   6.050  -1.339
    1   AR   Ar  195   6.202   0.984   1.059
    1   AR   Ar  196   3.607   0.677   0.453
    1   AR   Ar  197   4.587   3.243   0.636
    1   AR   Ar  198   5.982   6.971   1.204
    1   AR   Ar  199   0.827   0.161   2.611
    1   AR   Ar  200   6.089   2.625  -0.265
    1   AR   Ar  201   6.391   5.718   2.401
    1   AR   Ar  202   5.223   0.595   3.921
    1   AR   Ar  203   0.107   6.551   3.475
    1   AR   Ar  204   4.406   4.360   7.166
    1   AR   Ar  205   5.400   1.864   1.960
    1   AR   Ar  206   6.307   0.035   6.362
    1   AR   Ar  207   7.092   3.283   4.520
    1   AR   Ar  208   0.935   5.902   3.891
    1   AR   Ar  209   0.113   1.970  -1.824
    1   AR   Ar  210   1.570   0.964   0.030
    1   AR   Ar  211   6.965   3.099   0.412
    1   AR   Ar  212   6.264   3.822   0.106
    1   AR   Ar  213   3.373   1.999   1.285
    1   AR   Ar  214   5.229   4.529   2.032
    1   AR   Ar  215   0.059   2.786   1.568
    1   AR   Ar  216   1.935   2.275   0.203
    1   AR   Ar  217   5.536   1.743   3.920
    1   AR   Ar  218   5.026   2.996   4.811
    1   AR   Ar  219   4.432   3.644   2.390
    1   AR   Ar  220   4.492   4.106   1.411
    1   AR   Ar  221   6.494   5.790   4.020
    1   AR   Ar  222   5.093   7.105   5.590
    1   AR   Ar  223   6.658   1.632   5.994
    1   AR   Ar  224   5.119   1.836   5.053
    1   AR   Ar  225   6.937   2.604   2.595
    1   AR   Ar  226   2.146   3.103   4.188
    1   AR   Ar  227   0.922   2.940   3.019
    1   AR   Ar  228   6.159   0.593   2.042
    1   AR   Ar  229   5.954   4.780  -0.925
    1   AR   Ar  230   3.783   4.657   3.761
    1   AR   Ar  231   4.580   1.926   2.492
    1   AR   Ar  232   5.029   2.941   2.007
    1   AR   Ar  233   6.572   1.996   3.790
    1   AR   Ar  234   6.029   2.695   4.374
    1   AR   Ar  235   6.463   0.915   3.747
    1   AR   Ar  236   4.031   4.627   5.328
    1   AR   Ar  237   4.538   0.210   7.294
    1   AR   Ar  238   5.124   5.001   6.453
    1   AR   Ar  239   0.995   4.524  11.352
    1   AR   Ar  240   1.908   2.970   6.835
    1   AR   Ar  241   1.701   6.955   0.245
    1   AR   Ar  242   5.661   5.456   1.233
    1   AR   Ar  243   4.866   6.831   2.237
    1   AR   Ar  244   6.681   6.458   0.303
    1   AR   Ar  245   3.864   1.129   3.552
    1   AR   Ar  246   5.801   0.128  -1.121
    1   AR   Ar  247   0.142   3.841   1.243
    1   AR   Ar  248   5.480   5.270   0.074
    1   AR   Ar  249   4.252   0.096   1.472
    1   AR   Ar  250   5.025   6.603   3.523
    1   AR   Ar  251   4.781   4.315   4.577
    1   AR   Ar  252   2.600   4.788   1.937
    1   AR   Ar  253   5.249   2.344   7.729
    1   AR   Ar  254   5.233   3.251  11.475
    1   AR   Ar  255   4.312   6.442   9.018
    1   AR   Ar  256   5.661   5.736   3.374
    7.12000  7.12000 12.00000
Argon-slab step 5160
  256
    1   AR   Ar    1   4.416   3.530  -3.050
    1   AR   Ar    2   5.239   6.291   0.564
    1   AR   Ar    3   3.771   3.501  -1.271
    1   AR   Ar    4   2.700   1.283   0.861
    1   AR   Ar    5   6.927   5.173  -0.525
    1   AR   Ar    6   1.207   1.622   2.239
    1   AR   Ar    7   5.915   4.667   3.269
    1   AR   Ar    8   6.459   3.444  -1.188
    1   AR   Ar    9   7.002   6.632   4.515
    1   AR   Ar   10   6.025   5.316   5.326
    1   AR   Ar   11   1.171   6.529   4.927
    1   AR   Ar   12   0.180   1.358   4.293
    1   AR   Ar   13   6.884   0.591   4.804
    1   AR   Ar   14   3.872   0.758   6.793
    1   AR   Ar   15   2.530   6.563   9.630
    1   AR   Ar   16   0.785   0.266   6.087
    1   AR   Ar   17   6.049   3.870   1.145
    1   AR   Ar   18   0.067   4.898  -1.765
    1   AR   Ar   19   5.172   4.479   0.884
    1   AR   Ar   20   6.740   3.783  -2.204
    1   AR   Ar   21   2.364   1.636   2.110
    1   AR   Ar   22   4.924   0.719   1.971
    1   AR   Ar   23   1.033   6.311   0.892
    1   AR   Ar   24   5.757   2.639   3.176
    1   AR   Ar   25   1.086   2.985   4.845
    1   AR   Ar   26   5.790   6.649   4.526
    1   AR   Ar   27   1.495   0.701   1.784
    1   AR   Ar   28   1.773   1.694   4.016
    1   AR   Ar   29   4.990   1.114   8.084
    1   AR   Ar   30   0.116   1.022   2.898
    1   AR   Ar   31   1.952   0.294   6.926
    1   AR   Ar   32   1.270   1.988   5.408
    1   AR   Ar   33   7.113   4.343   0.479
    1   AR   Ar   34   1.295   5.053   2.424
    1   AR   Ar   35   5.364   5.590   2.472
    1   AR   Ar   36   5.048   2.619  -3.321
    1   AR   Ar   37   3.798   2.960   1.464
    1   AR   Ar   38   6.141   4.885   4.406
    1   AR   Ar   39   0.611   2.384   4.093
    1   AR   Ar   40   0.906   3.843   2.291
    1   AR   Ar   41   0.919   1.813   3.248
    1   AR   Ar   42   4.873   5.815   5.665
    1   AR   Ar   43   0.269   3.043   5.484
    1   AR   Ar   44   0.394   3.975   3.270
    1   AR   Ar   45   1.874   3.512   5.187
    1   AR   Ar   46   6.366   4.709   6.850
    1   AR   Ar   47   3.375   4.004   7.630
    1   AR   Ar   48   0.167   3.674   7.242
    1   AR   Ar   49   0.731   1.265   0.790
    1   AR   Ar   50   3.974   4.679   0.505
    1   AR   Ar   51   5.640   3.490   2.643
    1   AR   Ar   52   5.481   3.429  -1.021
    1   AR   Ar   53   4.580   0.326   3.085
    1   AR   Ar   54   6.779   7.041   2.563
    1   AR   Ar   55   0.144   4.799   2.479
    1   AR   Ar   56   6.056   1.638   2.911
    1   AR   Ar   57   4.020   4.643   2.119
    1   AR   Ar   58   0.875   3.598   4.030
    1   AR   Ar   59   3.019   5.255   5.456
    1   AR   Ar   60   0.135   5.636   3.028
    1   AR   Ar   61   7.027   3.870   6.189
    1   AR   Ar   62   0.263   4.367   4.949
    1   AR   Ar   63   3.377   2.449   7.580
    1   AR   Ar   64   0.498   5.540   4.734
    1   AR   Ar   65   4.007   0.880   2.363
    1   AR   Ar   66   1.644   1.488   1.051
    1   AR   Ar   67   4.697   0.159  -0.673
    1   AR   Ar   68   0.153   1.618  -0.593
    1   AR   Ar   69   2.581   1.458  -0.227
    1   AR   Ar   70   7.116   1.550   1.666
    1   AR   Ar   71   2.978   0.736   2.723
    1   AR   Ar   72   4.239   1.288   1.214
    1   AR   Ar   73   3.232   0.104   3.981
    1   AR   Ar   74   1.035   0.821   3.637
    1   AR   Ar   75   3.040   0.751   4.751
    1   AR   Ar   76   2.365   0.286   1.216
    1   AR   Ar   77   1.972   5.812   5.610
    1   AR   Ar   78   6.862   5.336   6.015
    1   AR   Ar   79   3.175   6.584   5.850
    1   AR   Ar   80   3.880   5.885   5.869
    1   AR   Ar   81   1.987   6.444   1.244
    1   AR   Ar   82   6.664   5.385   1.429
    1   AR   Ar   83   1.448   3.432   1.068
    1   AR   Ar   84   0.755   4.639   1.249
    1   AR   Ar   85   0.926   3.411  -0.045
    1   AR   Ar   86   1.855   5.351   1.221
    1   AR   Ar   87   3.329   2.982   2.576
    1   AR   Ar   88   3.468   5.497   1.183
    1   AR   Ar   89   6.389   2.203   1.170
    1   AR   Ar   90   3.323   1.292   5.785
    1   AR   Ar   91   1.826   0.848   2.894
    1   AR   Ar   92   2.332   2.275   1.209
    1   AR   Ar   93   2.046   0.868   5.408
    1   AR   Ar   94   0.788   0.047   8.462
    1   AR   Ar   95   4.294   1.159   5.449
    1   AR   Ar   96   2.252   6.879   4.906
    1   AR   Ar   97   3.009   2.112  -0.970
    1   AR   Ar   98   1.824   4.432   4.397
    1   AR   Ar   99   6.101   0.482  -0.126
    1   AR   Ar  100   6.085   2.664  -2.309
    1   AR   Ar  101   3.876   6.302   2.482
    1   AR   Ar  102   3.342   1.786   2.464
    1   AR   Ar  103   1.963   4.400   0.628
    1   AR   Ar  104   3.170   0.097  -1.155
    1   AR   Ar  105   2.562   2.066   3.164
    1   AR   Ar  106   4.204   2.037   4.547
    1   AR   Ar  107   1.167   5.094   5.309
    1   AR   Ar  108   2.323   0.583   4.037
    1   AR   Ar  109   2.194   4.684   5.411
    1   AR   Ar  110   2.278   2.475   4.906
    1   AR   Ar  111   3.411   5.091   7.605
    1   AR   Ar  112   6.130   6.353   5.562
    1   AR   Ar  113   1.018   6.010  -1.544
    1   AR   Ar  114   2.894   0.250  -0.155
    1   AR   Ar  115   0.496   5.327   0.397
    1   AR   Ar  116   5.002   0.320   0.807
    1   AR   Ar  117   0.157   4.787   3.848
    1   AR   Ar  118   2.264   6.105   3.440
    1   AR   Ar  119   1.448   4.079   3.186
    1   AR   Ar  120   2.265   0.107   2.370
    1   AR   Ar  121   5.076   4.336   5.738
    1   AR   Ar  122   2.745   5.275   3.949
    1   AR   Ar  123   3.425   2.531   5.261
    1   AR   Ar  124   0.599   5.494   1.862
    1   AR   Ar  125   5.734   3.815   3.781
    1   AR   Ar  126   6.593   0.669   7.320
    1   AR   Ar  127   4.954   3.084   6.160
    1   AR   Ar  128   1.048   3.756   6.480
    1   AR   Ar  129   1.873   5.624   4.513
    1   AR   Ar  130   3.903   0.784  -4.769
    1   AR   Ar  131   4.171   6.687  -1.578
    1   AR   Ar  132   1.259   2.422   0.921
    1   AR   Ar  133   4.168   0.631   4.448
    1   AR   Ar  134   2.733   1.611   4.238
    1   AR   Ar  135   5.645   0.667   4.952
    1   AR   Ar  136   5.711   6.743   2.664
    1   AR   Ar  137   2.645   4.152   6.272
    1   AR   Ar  138   5.756   1.117   5.987
    1   AR   Ar  139   6.416   1.590   4.698
    1   AR   Ar  140   4.343   6.607   4.966
    1   AR   Ar  141   3.688   5.323   4.644
    1   AR   Ar  142   4.797   6.550   8.015
    1   AR   Ar  143   5.219   6.733   6.710
    1   AR   Ar  144   0.161   2.077   5.016
    1   AR   Ar  145   4.496   4.894  -0.663
    1   AR   Ar  146   3.933   2.240   3.265
    1   AR   Ar  147   5.261   4.221  -0.278
    1   AR   Ar  148   3.162   5.956  -1.111
    1   AR   Ar  149   0.043   2.784  -1.020
    1   AR   Ar  150   1.845   2.553   2.551
    1   AR   Ar  151   2.402   3.318   3.200
    1   AR   Ar  152   0.674   1.112  -1.765
    1   AR   Ar  153   5.380   0.826   2.816
    1   AR   Ar  154   4.590   2.902   3.680
    1   AR   Ar  155   5.925   3.820   5.369
    1   AR   Ar  156   2.751   4.494   3.145
    1   AR   Ar  157   3.380   5.612   6.697
    1   AR   Ar  158   0.727   2.485   6.541
    1   AR   Ar  159   4.031   0.056   5.794
    1   AR   Ar  160   1.191   1.166   4.606
    1   AR   Ar  161   4.599   4.662   3.033
    1   AR   Ar  162   3.947   5.739  -0.303
    1   AR   Ar  163   6.410   4.174   2.422
    1   AR   Ar  164   2.124   5.912   2.312
    1   AR   Ar  165   3.496   4.176   1.388
    1   AR   Ar  166   3.013   3.587   5.138
    1   AR   Ar  167   6.204   6.962   3.587
    1   AR   Ar  168   5.904   4.688  -2.498
    1   AR   Ar  169   3.756   3.760   3.218
    1   AR   Ar  170   2.482   3.002   6.017
    1   AR   Ar  171   5.136   5.607   4.345
    1   AR   Ar  172   3.923   3.673   4.335
    1   AR   Ar  173   2.706   2.040   6.449
    1   AR   Ar  174   3.165   6.252   4.455
    1   AR   Ar  175   2.908   0.445   6.158
    1   AR   Ar  176   3.129   2.583   4.125
    1   AR   Ar  177   7.060   4.180  -0.813
    1   AR   Ar  178   2.717   6.195   0.152
    1   AR   Ar  179   3.422   6.700   0.806
    1   AR   Ar  180   4.943   0.605  -7.967
    1   AR   Ar  181   7.060   6.289   1.816
    1   AR   Ar  182   1.182   6.095   2.912
    1   AR   Ar  183   4.493   5.582   1.792
    1   AR   Ar  184   4.652   5.442   0.727
    1   AR   Ar  185   2.928   4.372   4.415
    1   AR   Ar  186   3.063   6.751   3.066
    1   AR   Ar  187   3.971   5.993   3.731
    1   AR   Ar  188   3.251   0.710   1.637
    1   AR   Ar  189   5.871   2.350   5.499
    1   AR   Ar  190   1.403   6.940   4.023
    1   AR   Ar  191   3.949   6.593   6.971
    1   AR   Ar  192   4.039   3.505   5.459
    1   AR   Ar  193   2.941   6.324   1.896
    1   AR   Ar  194   5.000   6.069  -1.333
    1   AR   Ar  195   6.221   0.972   1.071
    1   AR   Ar  196   3.610   0.668   0.469
    1   AR   Ar  197   4.572   3.218   0.638
    1   AR   Ar  198   6.008   6.929   1.206
    1   AR   Ar  199   0.794   0.135   2.599
    1   AR   Ar  200   6.104   2.634  -0.274
    1   AR   Ar  201   6.401   5.743   2.403
    1   AR   Ar  202   5.236   0.610   3.915
    1   AR   Ar  203   0.117   6.562   3.513
    1   AR   Ar  204   4.375   4.356   7.137
    1   AR   Ar  205   5.412   1.857   1.943
    1   AR   Ar  206   6.314   0.037   6.377
    1   AR   Ar  207   7.119   3.289   4.539
    1   AR   Ar  208   0.929   5.927   3.855
    1   AR   Ar  209   0.086   1.989  -1.832
    1   AR   Ar  210   1.595   0.961   0.001
    1   AR   Ar  211   6.930   3.086   0.426
    1   AR   Ar  212   6.293   3.810   0.109
    1   AR   Ar  213   3.389   2.005   1.295
    1   AR   Ar  214   5.213   4.541   2.025
    1   AR   Ar  215   0.069   2.795   1.568
    1   AR   Ar  216   1.943   2.296   0.217
    1   AR   Ar  217   5.528   1.723   3.934
    1   AR   Ar  218   5.011   2.976   4.843
    1   AR   Ar  219   4.454   3.660   2.419
    1   AR   Ar  220   4.507   4.125   1.417
    1   AR   Ar  221   6.511   5.787   4.048
    1   AR   Ar  222   5.111   7.096   5.588
    1   AR   Ar  223   6.663   1.626   5.962
    1   AR   Ar  224   5.115   1.827   5.038
    1   AR   Ar  225   6.916   2.628   2.558
    1   AR   Ar  226   2.163   3.124   4.172
    1   AR   Ar  227   0.913   2.940   3.033
    1   AR   Ar  228   6.126   0.619   2.071
    1   AR   Ar  229   5.949   4.776  -0.927
    1   AR   Ar  230   3.796   4.642   3.752
    1   AR   Ar  231   4.599   1.932   2.498
    1   AR   Ar  232   5.039   2.926   1.990
    1   AR   Ar  233   6.560   1.981   3.756
    1   AR   Ar  234   6.051   2.672   4.358
    1   AR   Ar  235   6.465   0.904   3.771
    1   AR   Ar  236   4.025   4.630   5.323
    1   AR   Ar  237   4.560   0.188   7.303
    1   AR   Ar  238   5.090   5.007   6.458
    1   AR   Ar  239   0.990   4.543  11.361
    1   AR   Ar  240   1.924   2.979   6.876
    1   AR   Ar  241   1.678   6.971   0.268
    1   AR   Ar  242   5.658   5.455   1.200
    1   AR   Ar  243   4.861   6.822   2.217
    1   AR   Ar  244   6.649   6.444   0.312
    1   AR   Ar  245   3.819   1.096   3.525
    1   AR   Ar  246   5.804   0.157  -1.120
    1   AR   Ar  247   0.127   3.852   1.246
    1   AR   Ar  248   5.483   5.296   0.113
    1   AR   Ar  249   4.248   0.081   1.460
    1   AR   Ar  250   5.027   6.628   3.506
    1   AR   Ar  251   4.759   4.328   4.556
    1   AR   Ar  252   2.592   4.780   1.966
    1   AR   Ar  253   5.215   2.360   7.766
    1   AR   Ar  254   5.207   3.252  11.516
    1   AR   Ar  255   4.310   6.464   9.011
    1   AR   Ar  256   5.661   5.721   3.370
    7.12000  7.12000 12.00000
Argon-slab step 5165
  256
    1   AR   Ar    1   4.371   3.533  -3.057
    1   AR   Ar    2   5.268   6.284   0.573
    1   AR   Ar    3   3.768   3.521  -1.282
    1   AR   Ar    4   2.689   1.269   0.847
    1   AR   Ar    5   6.933   5.165  -0.515
    1   AR   Ar    6   1.179   1.624   2.249
    1   AR   Ar    7   5.914   4.661   3.266
    1   AR   Ar    8   6.472   3.430  -1.174
    1   AR   Ar    9   6.976   6.613   4.483
    1   AR   Ar   10   6.016   5.314   5.306
    1   AR   Ar   11   1.178   6.564   4.931
    1   AR   Ar   12   0.155   1.344   4.286
    1   AR   Ar   13   6.887   0.604   4.821
    1   AR   Ar   14   3.881   0.739   6.802
    1   AR   Ar   15   2.541   6.569   9.623
    1   AR   Ar   16   0.793   0.252   6.083
    1   AR   Ar   17   6.061   3.876   1.164
    1   AR   Ar   18   0.059   4.881  -1.748
    1   AR   Ar   19   5.182   4.512   0.899
    1   AR   Ar   20   6.722   3.792  -2.222
    1   AR   Ar   21   2.366   1.648   2.098
    1   AR   Ar   22   4.914   0.717   1.974
    1   AR   Ar   23   1.040   6.310   0.876
    1   AR   Ar   24   5.725   2.639   3.178
    1   AR   Ar   25   1.061   3.001   4.835
    1   AR   Ar   26   5.805   6.589   4.526
    1   AR   Ar   27   1.492   0.691   1.774
    1   AR   Ar   28   1.757   1.760   4.019
    1   AR   Ar   29   4.997   1.105   8.077
    1   AR   Ar   30   0.105   1.041   2.891
    1   AR   Ar   31   1.930   0.261   6.916
    1   AR   Ar   32   1.273   1.984   5.410
    1   AR   Ar   33   7.118   4.357   0.465
    1   AR   Ar   34   1.319   5.063   2.430
    1   AR   Ar   35   5.369   5.589   2.464
    1   AR   Ar   36   5.022   2.625  -3.314
    1   AR   Ar   37   3.818   2.963   1.502
    1   AR   Ar   38   6.128   4.905   4.430
    1   AR   Ar   39   0.662   2.410   4.102
    1   AR   Ar   40   0.921   3.856   2.289
    1   AR   Ar   41   0.907   1.812   3.253
    1   AR   Ar   42   4.916   5.777   5.628
    1   AR   Ar   43   0.256   3.031   5.495
    1   AR   Ar   44   0.413   3.958   3.298
    1   AR   Ar   45   1.921   3.485   5.212
    1   AR   Ar   46   6.374   4.729   6.828
    1   AR   Ar   47   3.345   4.011   7.605
    1   AR   Ar   48   0.177   3.682   7.216
    1   AR   Ar   49   0.700   1.221   0.790
    1   AR   Ar   50   3.914   4.677   0.475
    1   AR   Ar   51   5.657   3.502   2.651
    1   AR   Ar   52   5.479   3.434  -1.052
    1   AR   Ar   53   4.599   0.336   3.125
    1   AR   Ar   54   6.776   7.042   2.569
    1   AR   Ar   55   0.176   4.778   2.458
    1   AR   Ar   56   6.081   1.614   2.930
    1   AR   Ar   57   4.017   4.654   2.128
    1   AR   Ar   58   0.886   3.580   4.020
    1   AR   Ar   59   3.011   5.297   5.462
    1   AR   Ar   60   0.124   5.644   3.025
    1   AR   Ar   61   6.988   3.900   6.147
    1   AR   Ar   62   0.267   4.351   4.954
    1   AR   Ar   63   3.340   2.489   7.620
    1   AR   Ar   64   0.488   5.515   4.728
    1   AR   Ar   65   3.986   0.906   2.329
    1   AR   Ar   66   1.668   1.493   1.048
    1   AR   Ar   67   4.739   0.161  -0.682
    1   AR   Ar   68   0.165   1.641  -0.579
    1   AR   Ar   69   2.580   1.483  -0.202
    1   AR   Ar   70   7.108   1.515   1.661
    1   AR   Ar   71   3.009   0.736   2.731
    1   AR   Ar   72   4.204   1.269   1.211
    1   AR   Ar   73   3.233   0.120   4.014
    1   AR   Ar   74   1.095   0.790   3.614
    1   AR   Ar   75   3.031   0.765   4.759
    1   AR   Ar   76   2.376   0.304   1.229
    1   AR   Ar   77   1.938   5.803   5.579
    1   AR   Ar   78   6.889   5.327   6.013
    1   AR   Ar   79   3.168   6.585   5.850
    1   AR   Ar   80   3.869   5.876   5.836
    1   AR   Ar   81   1.984   6.465   1.254
    1   AR   Ar   82   6.681   5.384   1.443
    1   AR   Ar   83   1.448   3.439   1.066
    1   AR   Ar   84   0.743   4.638   1.280
    1   AR   Ar   85   0.892   3.375  -0.078
    1   AR   Ar   86   1.858   5.346   1.230
    1   AR   Ar   87   3.328   2.993   2.576
    1   AR   Ar   88   3.475   5.494   1.175
    1   AR   Ar   89   6.373   2.215   1.195
    1   AR   Ar   90   3.300   1.280   5.804
    1   AR   Ar   91   1.839   0.879   2.896
    1   AR   Ar   92   2.374   2.267   1.186
    1   AR   Ar   93   2.032   0.867   5.412
    1   AR   Ar   94   0.763   0.022   8.435
    1   AR   Ar   95   4.319   1.154   5.463
    1   AR   Ar   96   2.249   6.852   4.934
    1   AR   Ar   97   3.038   2.104  -0.993
    1   AR   Ar   98   1.825   4.445   4.398
    1   AR   Ar   99   6.120   0.435  -0.110
    1   AR   Ar  100   6.130   2.656  -2.305
    1   AR   Ar  101   3.874   6.323   2.500
    1   AR   Ar  102   3.356   1.788   2.431
    1   AR   Ar  103   1.971   4.402   0.612
    1   AR   Ar  104   3.172   0.105  -1.185
    1   AR   Ar  105   2.517   2.038   3.143
    1   AR   Ar  106   4.201   2.004   4.521
    1   AR   Ar  107   1.173   5.080   5.334
    1   AR   Ar  108   2.344   0.581   4.036
    1   AR   Ar  109   2.194   4.661   5.398
    1   AR   Ar  110   2.277   2.481   4.873
    1   AR   Ar  111   3.392   5.046   7.569
    1   AR   Ar  112   6.121   6.361   5.540
    1   AR   Ar  113   1.009   5.971  -1.539
    1   AR   Ar  114   2.866   0.232  -0.136
    1   AR   Ar  115   0.509   5.371   0.389
    1   AR   Ar  116   5.024   0.329   0.775
    1   AR   Ar  117   0.141   4.790   3.839
    1   AR   Ar  118   2.270   6.139   3.410
    1   AR   Ar  119   1.457   4.075   3.215
    1   AR   Ar  120   2.271   0.068   2.375
    1   AR   Ar  121   5.087   4.339   5.765
    1   AR   Ar  122   2.743   5.265   3.932
    1   AR   Ar  123   3.395   2.482   5.227
    1   AR   Ar  124   0.581   5.482   1.853
    1   AR   Ar  125   5.758   3.821   3.775
    1   AR   Ar  126   6.615   0.629   7.318
    1   AR   Ar  127   4.962   3.108   6.152
    1   AR   Ar  128   1.023   3.759   6.501
    1   AR   Ar  129   1.904   5.629   4.531
    1   AR   Ar  130   3.918   0.771  -4.752
    1   AR   Ar  131   4.171   6.716  -1.536
    1   AR   Ar  132   1.264   2.398   0.955
    1   AR   Ar  133   4.134   0.596   4.446
    1   AR   Ar  134   2.720   1.619   4.200
    1   AR   Ar  135   5.646   0.615   4.977
    1   AR   Ar  136   5.686   6.736   2.675
    1   AR   Ar  137   2.641   4.120   6.296
    1   AR   Ar  138   5.756   1.121   6.004
    1   AR   Ar  139   6.407   1.575   4.696
    1   AR   Ar  140   4.324   6.613   4.988
    1   AR   Ar  141   3.694   5.310   4.629
    1   AR   Ar  142   4.787   6.551   8.012
    1   AR   Ar  143   5.209   6.764   6.745
    1   AR   Ar  144   0.179   2.112   5.015
    1   AR   Ar  145   4.508   4.907  -0.697
    1   AR   Ar  146   3.935   2.217   3.245
    1   AR   Ar  147   5.266   4.225  -0.285
    1   AR   Ar  148   3.165   5.942  -1.116
    1   AR   Ar  149   0.047   2.765  -1.008
    1   AR   Ar  150   1.828   2.542   2.505
    1   AR   Ar  151   2.392   3.320   3.181
    1   AR   Ar  152   0.683   1.127  -1.761
    1   AR   Ar  153   5.411   0.829   2.780
    1   AR   Ar  154   4.558   2.912   3.686
    1   AR   Ar  155   5.948   3.816   5.396
    1   AR   Ar  156   2.782   4.470   3.126
    1   AR   Ar  157   3.347   5.623   6.707
    1   AR   Ar  158   0.748   2.515   6.565
    1   AR   Ar  159   4.080   0.061   5.777
    1   AR   Ar  160   1.200   1.174   4.562
    1   AR   Ar  161   4.622   4.677   3.037
    1   AR   Ar  162   3.960   5.769  -0.300
    1   AR   Ar  163   6.394   4.181   2.429
    1   AR   Ar  164   2.128   5.907   2.275
    1   AR   Ar  165   3.465   4.163   1.385
    1   AR   Ar  166   3.036   3.551   5.160
    1   AR   Ar  167   6.197   6.959   3.570
    1   AR   Ar  168   5.928   4.687  -2.490
    1   AR   Ar  169   3.773   3.773   3.245
    1   AR   Ar  170   2.495   3.006   6.009
    1   AR   Ar  171   5.130   5.622   4.380
    1   AR   Ar  172   3.970   3.646   4.354
    1   AR   Ar  173   2.714   2.046   6.443
    1   AR   Ar  174   3.156   6.279   4.443
    1   AR   Ar  175   2.911   0.434   6.165
    1   AR   Ar  176   3.119   2.587   4.127
    1   AR   Ar  177   7.071   4.199  -0.780
    1   AR   Ar  178   2.682   6.160   0.140
    1   AR   Ar  179   3.422   6.699   0.799
    1   AR   Ar  180   4.944   0.611  -7.995
    1   AR   Ar  181   7.068   6.326   1.838
    1   AR   Ar  182   1.196   6.123   2.913
    1   AR   Ar  183   4.507   5.559   1.767
    1   AR   Ar  184   4.662   5.407   0.714
    1   AR   Ar  185   2.929   4.392   4.432
    1   AR   Ar  186   3.052   6.756   3.045
    1   AR   Ar  187   4.003   6.031   3.770
    1   AR   Ar  188   3.256   0.732   1.629
    1   AR   Ar  189   5.870   2.333   5.481
    1   AR   Ar  190   1.361   6.958   4.014
    1   AR   Ar  191   3.936   6.607   6.929
    1   AR   Ar  192   4.039   3.458   5.465
    1   AR   Ar  193   2.964   6.333   1.861
    1   AR   Ar  194   4.987   6.087  -1.325
    1   AR   Ar  195   6.241   0.960   1.080
    1   AR   Ar  196   3.615   0.661   0.490
    1   AR   Ar  197   4.580   3.194   0.622
    1   AR   Ar  198   6.034   6.887   1.208
    1   AR   Ar  199   0.788   0.147   2.585
    1   AR   Ar  200   6.120   2.645  -0.284
    1   AR   Ar  201   6.408   5.768   2.409
    1   AR   Ar  202   5.251   0.625   3.911
    1   AR   Ar  203   0.129   6.578   3.546
    1   AR   Ar  204   4.360   4.363   7.163
    1   AR   Ar  205   5.434   1.848   1.920
    1   AR   Ar  206   6.320   0.040   6.391
    1   AR   Ar  207   7.118   3.289   4.546
    1   AR   Ar  208   0.922   5.950   3.829
    1   AR   Ar  209   0.056   2.011  -1.839
    1   AR   Ar  210   1.621   0.958  -0.027
    1   AR   Ar  211   6.900   3.068   0.442
    1   AR   Ar  212   6.316   3.796   0.104
    1   AR   Ar  213   3.414   2.008   1.297
    1   AR   Ar  214   5.202   4.555   2.023
    1   AR   Ar  215   0.081   2.806   1.564
    1   AR   Ar  216   1.957   2.314   0.222
    1   AR   Ar  217   5.519   1.702   3.949
    1   AR   Ar  218   4.995   2.956   4.875
    1   AR   Ar  219   4.475   3.680   2.450
    1   AR   Ar  220   4.505   4.122   1.431
    1   AR   Ar  221   6.530   5.787   4.074
    1   AR   Ar  222   5.117   7.115   5.584
    1   AR   Ar  223   6.658   1.630   5.920
    1   AR   Ar  224   5.112   1.814   5.020
    1   AR   Ar  225   6.894   2.650   2.527
    1   AR   Ar  226   2.177   3.152   4.153
    1   AR   Ar  227   0.897   2.898   3.035
    1   AR   Ar  228   6.093   0.645   2.100
    1   AR   Ar  229   5.946   4.771  -0.929
    1   AR   Ar  230   3.807   4.631   3.747
    1   AR   Ar  231   4.609   1.943   2.527
    1   AR   Ar  232   5.048   2.905   1.969
    1   AR   Ar  233   6.552   1.970   3.733
    1   AR   Ar  234   6.071   2.651   4.345
    1   AR   Ar  235   6.466   0.892   3.795
    1   AR   Ar  236   4.020   4.630   5.322
    1   AR   Ar  237   4.589   0.174   7.318
    1   AR   Ar  238   5.055   5.022   6.471
    1   AR   Ar  239   0.984   4.562  11.369
    1   AR   Ar  240   1.936   2.988   6.920
    1   AR   Ar  241   1.656   6.987   0.291
    1   AR   Ar  242   5.650   5.454   1.169
    1   AR   Ar  243   4.832   6.794   2.221
    1   AR   Ar  244   6.617   6.430   0.323
    1   AR   Ar  245   3.773   1.064   3.495
    1   AR   Ar  246   5.806   0.185  -1.120
    1   AR   Ar  247   0.112   3.838   1.279
    1   AR   Ar  248   5.489   5.319   0.147
    1   AR   Ar  249   4.234   0.066   1.449
    1   AR   Ar  250   5.033   6.649   3.493
    1   AR   Ar  251   4.738   4.341   4.535
    1   AR   Ar  252   2.609   4.778   1.963
    1   AR   Ar  253   5.181   2.375   7.804
    1   AR   Ar  254   5.181   3.254  11.557
    1   AR   Ar  255   4.308   6.486   9.004
    1   AR   Ar  256   5.667   5.711   3.384
    7.12000  7.12000 12.00000
Argon-slab step 5170
  256
    1   AR   Ar    1   4.327   3.535  -3.063
    1   AR   Ar    2   5.298   6.281   0.582
    1   AR   Ar    3   3.765   3.541  -1.292
    1   AR   Ar    4   2.668   1.246   0.841
    1   AR   Ar    5   6.942   5.157  -0.501
    1   AR   Ar    6   1.152   1.626   2.255
    1   AR   Ar    7   5.887   4.661   3.283
    1   AR   Ar    8   6.481   3.423  -1.164
    1   AR   Ar    9   6.948   6.598   4.467
    1   AR   Ar   10   6.004   5.318   5.299
    1   AR   Ar   11   1.183   6.595   4.940
    1   AR   Ar   12   0.147   1.336   4.266
    1   AR   Ar   13   6.886   0.608   4.844
    1   AR   Ar   14   3.906   0.728   6.799
    1   AR   Ar   15   2.551   6.574   9.616
    1   AR   Ar   16   0.805   0.234   6.081
    1   AR   Ar   17   6.074   3.881   1.184
    1   AR   Ar   18   0.050   4.862  -1.729
    1   AR   Ar   19   5.210   4.551   0.898
    1   AR   Ar   20   6.702   3.801  -2.239
    1   AR   Ar   21   2.365   1.655   2.085
    1   AR   Ar   22   4.892   0.742   1.977
    1   AR   Ar   23   1.042   6.307   0.861
    1   AR   Ar   24   5.693   2.633   3.185
    1   AR   Ar   25   1.042   3.014   4.831
    1   AR   Ar   26   5.818   6.530   4.525
    1   AR   Ar   27   1.489   0.680   1.764
    1   AR   Ar   28   1.739   1.836   4.011
    1   AR   Ar   29   4.998   1.105   8.069
    1   AR   Ar   30   0.101   1.038   2.895
    1   AR   Ar   31   1.909   0.228   6.905
    1   AR   Ar   32   1.276   1.981   5.409
    1   AR   Ar   33   0.004   4.382   0.436
    1   AR   Ar   34   1.346   5.070   2.439
    1   AR   Ar   35   5.367   5.586   2.442
    1   AR   Ar   36   4.996   2.632  -3.307
    1   AR   Ar   37   3.840   2.970   1.542
    1   AR   Ar   38   6.115   4.913   4.441
    1   AR   Ar   39   0.712   2.433   4.106
    1   AR   Ar   40   0.917   3.859   2.287
    1   AR   Ar   41   0.895   1.810   3.259
    1   AR   Ar   42   4.962   5.739   5.590
    1   AR   Ar   43   0.243   3.021   5.518
    1   AR   Ar   44   0.416   3.947   3.303
    1   AR   Ar   45   1.969   3.461   5.236
    1   AR   Ar   46   6.381   4.748   6.805
    1   AR   Ar   47   3.314   4.012   7.578
    1   AR   Ar   48   0.185   3.690   7.190
    1   AR   Ar   49   0.665   1.176   0.790
    1   AR   Ar   50   3.856   4.675   0.446
    1   AR   Ar   51   5.669   3.519   2.658
    1   AR   Ar   52   5.469   3.439  -1.081
    1   AR   Ar   53   4.604   0.352   3.161
    1   AR   Ar   54   6.772   7.044   2.578
    1   AR   Ar   55   0.161   4.785   2.419
    1   AR   Ar   56   6.079   1.623   2.942
    1   AR   Ar   57   4.010   4.671   2.146
    1   AR   Ar   58   0.905   3.551   4.026
    1   AR   Ar   59   3.005   5.342   5.469
    1   AR   Ar   60   0.116   5.654   3.027
    1   AR   Ar   61   6.949   3.930   6.104
    1   AR   Ar   62   0.253   4.332   4.965
    1   AR   Ar   63   3.302   2.530   7.658
    1   AR   Ar   64   0.471   5.493   4.718
    1   AR   Ar   65   3.966   0.933   2.301
    1   AR   Ar   66   1.697   1.488   1.048
    1   AR   Ar   67   4.782   0.161  -0.692
    1   AR   Ar   68   0.162   1.638  -0.565
    1   AR   Ar   69   2.579   1.508  -0.177
    1   AR   Ar   70   7.099   1.480   1.657
    1   AR   Ar   71   3.040   0.739   2.740
    1   AR   Ar   72   4.171   1.248   1.212
    1   AR   Ar   73   3.226   0.092   4.006
    1   AR   Ar   74   1.151   0.759   3.588
    1   AR   Ar   75   3.029   0.755   4.778
    1   AR   Ar   76   2.387   0.324   1.240
    1   AR   Ar   77   1.907   5.796   5.548
    1   AR   Ar   78   6.916   5.318   6.010
    1   AR   Ar   79   3.154   6.589   5.849
    1   AR   Ar   80   3.866   5.862   5.798
    1   AR   Ar   81   1.985   6.483   1.267
    1   AR   Ar   82   6.701   5.380   1.456
    1   AR   Ar   83   1.447   3.449   1.064
    1   AR   Ar   84   0.738   4.647   1.295
    1   AR   Ar   85   0.856   3.340  -0.109
    1   AR   Ar   86   1.859   5.327   1.248
    1   AR   Ar   87   3.325   3.003   2.572
    1   AR   Ar   88   3.482   5.491   1.169
    1   AR   Ar   89   6.349   2.229   1.227
    1   AR   Ar   90   3.279   1.276   5.820
    1   AR   Ar   91   1.854   0.915   2.897
    1   AR   Ar   92   2.417   2.262   1.167
    1   AR   Ar   93   2.020   0.867   5.415
    1   AR   Ar   94   0.739   7.116   8.408
    1   AR   Ar   95   4.344   1.147   5.475
    1   AR   Ar   96   2.248   6.826   4.960
    1   AR   Ar   97   3.067   2.095  -1.017
    1   AR   Ar   98   1.825   4.457   4.397
    1   AR   Ar   99   6.138   0.389  -0.090
    1   AR   Ar  100   6.176   2.649  -2.300
    1   AR   Ar  101   3.875   6.343   2.517
    1   AR   Ar  102   3.372   1.792   2.398
    1   AR   Ar  103   1.979   4.396   0.605
    1   AR   Ar  104   3.175   0.111  -1.217
    1   AR   Ar  105   2.474   2.010   3.126
    1   AR   Ar  106   4.196   1.972   4.493
    1   AR   Ar  107   1.183   5.062   5.361
    1   AR   Ar  108   2.350   0.582   4.030
    1   AR   Ar  109   2.193   4.635   5.385
    1   AR   Ar  110   2.276   2.479   4.848
    1   AR   Ar  111   3.374   5.003   7.535
    1   AR   Ar  112   6.111   6.371   5.520
    1   AR   Ar  113   0.999   5.931  -1.534
    1   AR   Ar  114   2.835   0.213  -0.114
    1   AR   Ar  115   0.523   5.422   0.380
    1   AR   Ar  116   5.048   0.337   0.742
    1   AR   Ar  117   0.124   4.799   3.834
    1   AR   Ar  118   2.274   6.172   3.382
    1   AR   Ar  119   1.470   4.072   3.245
    1   AR   Ar  120   2.270   0.044   2.383
    1   AR   Ar  121   5.095   4.335   5.781
    1   AR   Ar  122   2.742   5.259   3.913
    1   AR   Ar  123   3.364   2.434   5.193
    1   AR   Ar  124   0.568   5.483   1.846
    1   AR   Ar  125   5.780   3.817   3.774
    1   AR   Ar  126   6.636   0.589   7.315
    1   AR   Ar  127   4.970   3.134   6.141
    1   AR   Ar  128   0.997   3.760   6.520
    1   AR   Ar  129   1.905   5.635   4.502
    1   AR   Ar  130   3.933   0.758  -4.735
    1   AR   Ar  131   4.167   6.746  -1.493
    1   AR   Ar  132   1.258   2.380   0.994
    1   AR   Ar  133   4.101   0.560   4.445
    1   AR   Ar  134   2.701   1.629   4.154
    1   AR   Ar  135   5.653   0.567   4.995
    1   AR   Ar  136   5.677   6.728   2.687
    1   AR   Ar  137   2.644   4.114   6.316
    1   AR   Ar  138   5.752   1.123   6.021
    1   AR   Ar  139   6.392   1.549   4.692
    1   AR   Ar  140   4.305   6.613   5.002
    1   AR   Ar  141   3.699   5.301   4.609
    1   AR   Ar  142   4.805   6.532   8.031
    1   AR   Ar  143   5.206   6.789   6.772
    1   AR   Ar  144   0.198   2.146   5.015
    1   AR   Ar  145   4.528   4.900  -0.724
    1   AR   Ar  146   3.930   2.222   3.238
    1   AR   Ar  147   5.272   4.228  -0.288
    1   AR   Ar  148   3.168   5.930  -1.121
    1   AR   Ar  149   0.060   2.736  -0.992
    1   AR   Ar  150   1.810   2.531   2.457
    1   AR   Ar  151   2.384   3.323   3.155
    1   AR   Ar  152   0.692   1.142  -1.756
    1   AR   Ar  153   5.446   0.839   2.769
    1   AR   Ar  154   4.530   2.925   3.694
    1   AR   Ar  155   5.973   3.810   5.421
    1   AR   Ar  156   2.813   4.446   3.108
    1   AR   Ar  157   3.312   5.637   6.714
    1   AR   Ar  158   0.753   2.536   6.590
    1   AR   Ar  159   4.123   0.073   5.770
    1   AR   Ar  160   1.202   1.175   4.532
    1   AR   Ar  161   4.648   4.691   3.040
    1   AR   Ar  162   3.973   5.799  -0.295
    1   AR   Ar  163   6.382   4.190   2.432
    1   AR   Ar  164   2.126   5.899   2.241
    1   AR   Ar  165   3.428   4.149   1.379
    1   AR   Ar  166   3.055   3.516   5.180
    1   AR   Ar  167   6.190   6.955   3.555
    1   AR   Ar  168   5.953   4.686  -2.481
    1   AR   Ar  169   3.789   3.777   3.268
    1   AR   Ar  170   2.510   3.012   5.998
    1   AR   Ar  171   5.125   5.636   4.415
    1   AR   Ar  172   4.013   3.618   4.374
    1   AR   Ar  173   2.721   2.051   6.438
    1   AR   Ar  174   3.146   6.303   4.434
    1   AR   Ar  175   2.910   0.419   6.177
    1   AR   Ar  176   3.113   2.593   4.128
    1   AR   Ar  177   7.090   4.216  -0.740
    1   AR   Ar  178   2.647   6.126   0.128
    1   AR   Ar  179   3.415   6.688   0.802
    1   AR   Ar  180   4.945   0.617  -8.023
    1   AR   Ar  181   7.077   6.367   1.856
    1   AR   Ar  182   1.215   6.154   2.900
    1   AR   Ar  183   4.522   5.538   1.742
    1   AR   Ar  184   4.663   5.375   0.703
    1   AR   Ar  185   2.932   4.407   4.453
    1   AR   Ar  186   3.042   6.763   3.024
    1   AR   Ar  187   4.036   6.069   3.809
    1   AR   Ar  188   3.260   0.754   1.618
    1   AR   Ar  189   5.874   2.318   5.464
    1   AR   Ar  190   1.323   6.977   4.000
    1   AR   Ar  191   3.920   6.618   6.882
    1   AR   Ar  192   4.043   3.410   5.472
    1   AR   Ar  193   2.992   6.346   1.823
    1   AR   Ar  194   4.977   6.102  -1.314
    1   AR   Ar  195   6.260   0.949   1.089
    1   AR   Ar  196   3.621   0.654   0.515
    1   AR   Ar  197   4.594   3.172   0.603
    1   AR   Ar  198   6.060   6.846   1.211
    1   AR   Ar  199   0.765   0.142   2.583
    1   AR   Ar  200   6.138   2.658  -0.295
    1   AR   Ar  201   6.412   5.792   2.418
    1   AR   Ar  202   5.286   0.635   3.935
    1   AR   Ar  203   0.143   6.596   3.564
    1   AR   Ar  204   4.344   4.370   7.188
    1   AR   Ar  205   5.462   1.836   1.895
    1   AR   Ar  206   6.324   0.043   6.403
    1   AR   Ar  207   7.095   3.287   4.540
    1   AR   Ar  208   0.914   5.969   3.817
    1   AR   Ar  209   0.025   2.035  -1.845
    1   AR   Ar  210   1.647   0.956  -0.051
    1   AR   Ar  211   6.877   3.043   0.463
    1   AR   Ar  212   6.330   3.789   0.091
    1   AR   Ar  213   3.452   2.007   1.286
    1   AR   Ar  214   5.195   4.572   2.026
    1   AR   Ar  215   0.098   2.815   1.555
    1   AR   Ar  216   1.975   2.331   0.220
    1   AR   Ar  217   5.511   1.681   3.964
    1   AR   Ar  218   4.980   2.936   4.907
    1   AR   Ar  219   4.490   3.692   2.474
    1   AR   Ar  220   4.489   4.101   1.449
    1   AR   Ar  221   6.549   5.786   4.095
    1   AR   Ar  222   5.116   0.014   5.588
    1   AR   Ar  223   6.657   1.636   5.874
    1   AR   Ar  224   5.109   1.798   5.001
    1   AR   Ar  225   6.869   2.671   2.503
    1   AR   Ar  226   2.185   3.189   4.135
    1   AR   Ar  227   0.880   2.859   3.038
    1   AR   Ar  228   6.068   0.668   2.120
    1   AR   Ar  229   5.944   4.766  -0.930
    1   AR   Ar  230   3.817   4.630   3.750
    1   AR   Ar  231   4.619   1.952   2.554
    1   AR   Ar  232   5.057   2.883   1.947
    1   AR   Ar  233   6.549   1.964   3.735
    1   AR   Ar  234   6.088   2.633   4.336
    1   AR   Ar  235   6.461   0.878   3.817
    1   AR   Ar  236   4.016   4.626   5.324
    1   AR   Ar  237   4.618   0.171   7.340
    1   AR   Ar  238   5.020   5.046   6.493
    1   AR   Ar  239   0.984   4.569  11.372
    1   AR   Ar  240   1.946   2.997   6.966
    1   AR   Ar  241   1.638   7.005   0.315
    1   AR   Ar  242   5.643   5.455   1.145
    1   AR   Ar  243   4.792   6.765   2.220
    1   AR   Ar  244   6.583   6.415   0.335
    1   AR   Ar  245   3.726   1.033   3.465
    1   AR   Ar  246   5.807   0.213  -1.120
    1   AR   Ar  247   0.094   3.812   1.326
    1   AR   Ar  248   5.501   5.338   0.171
    1   AR   Ar  249   4.214   0.052   1.436
    1   AR   Ar  250   5.042   6.659   3.488
    1   AR   Ar  251   4.720   4.357   4.514
    1   AR   Ar  252   2.643   4.782   1.941
    1   AR   Ar  253   5.147   2.390   7.841
    1   AR   Ar  254   5.155   3.256  11.598
    1   AR   Ar  255   4.306   6.508   8.998
    1   AR   Ar  256   5.677   5.705   3.412
    7.12000  7.12000 12.00000
Argon-slab step 5175
  256
    1   AR   Ar    1   4.283   3.538  -3.070
    1   AR   Ar    2   5.327   6.285   0.591
    1   AR   Ar    3   3.771   3.555  -1.265
    1   AR   Ar    4   2.635   1.212   0.846
    1   AR   Ar    5   6.948   5.160  -0.484
    1   AR   Ar    6   1.123   1.621   2.273
    1   AR   Ar    7   5.842   4.668   3.309
    1   AR   Ar    8   6.489   3.423  -1.157
    1   AR   Ar    9   6.919   6.596   4.475
    1   AR   Ar   10   5.990   5.298   5.290
    1   AR   Ar   11   1.187   6.622   4.954
    1   AR   Ar   12   0.157   1.334   4.238
    1   AR   Ar   13   6.881   0.604   4.871
    1   AR   Ar   14   3.940   0.723   6.787
    1   AR   Ar   15   2.561   6.580   9.609
    1   AR   Ar   16   0.817   0.215   6.078
    1   AR   Ar   17   6.088   3.887   1.205
    1   AR   Ar   18   0.039   4.843  -1.709
    1   AR   Ar   19   5.246   4.583   0.893
    1   AR   Ar   20   6.694   3.802  -2.274
    1   AR   Ar   21   2.361   1.659   2.070
    1   AR   Ar   22   4.859   0.787   1.956
    1   AR   Ar   23   1.038   6.299   0.846
    1   AR   Ar   24   5.660   2.621   3.196
    1   AR   Ar   25   1.031   3.024   4.846
    1   AR   Ar   26   5.830   6.471   4.520
    1   AR   Ar   27   1.487   0.669   1.757
    1   AR   Ar   28   1.715   1.921   3.996
    1   AR   Ar   29   4.992   1.117   8.058
    1   AR   Ar   30   0.098   1.029   2.903
    1   AR   Ar   31   1.888   0.196   6.892
    1   AR   Ar   32   1.280   1.979   5.407
    1   AR   Ar   33   0.011   4.411   0.406
    1   AR   Ar   34   1.374   5.076   2.449
    1   AR   Ar   35   5.360   5.583   2.416
    1   AR   Ar   36   4.970   2.639  -3.299
    1   AR   Ar   37   3.864   2.980   1.583
    1   AR   Ar   38   6.103   4.909   4.432
    1   AR   Ar   39   0.757   2.450   4.102
    1   AR   Ar   40   0.912   3.862   2.283
    1   AR   Ar   41   0.882   1.808   3.271
    1   AR   Ar   42   5.008   5.703   5.551
    1   AR   Ar   43   0.246   3.026   5.542
    1   AR   Ar   44   0.408   3.940   3.290
    1   AR   Ar   45   2.014   3.442   5.257
    1   AR   Ar   46   6.388   4.767   6.781
    1   AR   Ar   47   3.284   4.003   7.551
    1   AR   Ar   48   0.179   3.682   7.182
    1   AR   Ar   49   0.631   1.131   0.790
    1   AR   Ar   50   3.798   4.672   0.417
    1   AR   Ar   51   5.673   3.535   2.664
    1   AR   Ar   52   5.453   3.444  -1.108
    1   AR   Ar   53   4.598   0.376   3.190
    1   AR   Ar   54   6.767   7.049   2.591
    1   AR   Ar   55   0.144   4.782   2.385
    1   AR   Ar   56   6.069   1.639   2.944
    1   AR   Ar   57   4.000   4.691   2.168
    1   AR   Ar   58   0.922   3.528   4.034
    1   AR   Ar   59   2.998   5.387   5.475
    1   AR   Ar   60   0.113   5.665   3.031
    1   AR   Ar   61   6.911   3.961   6.061
    1   AR   Ar   62   0.239   4.313   4.976
    1   AR   Ar   63   3.263   2.571   7.696
    1   AR   Ar   64   0.451   5.472   4.705
    1   AR   Ar   65   3.950   0.962   2.281
    1   AR   Ar   66   1.705   1.488   1.007
    1   AR   Ar   67   4.824   0.160  -0.700
    1   AR   Ar   68   0.149   1.617  -0.553
    1   AR   Ar   69   2.580   1.532  -0.154
    1   AR   Ar   70   7.092   1.445   1.655
    1   AR   Ar   71   3.062   0.741   2.748
    1   AR   Ar   72   4.130   1.273   1.201
    1   AR   Ar   73   3.223   0.055   3.981
    1   AR   Ar   74   1.197   0.733   3.560
    1   AR   Ar   75   3.034   0.730   4.805
    1   AR   Ar   76   2.396   0.341   1.251
    1   AR   Ar   77   1.880   5.792   5.519
    1   AR   Ar   78   6.942   5.307   6.005
    1   AR   Ar   79   3.137   6.592   5.846
    1   AR   Ar   80   3.871   5.845   5.759
    1   AR   Ar   81   1.989   6.497   1.281
    1   AR   Ar   82   6.721   5.375   1.467
    1   AR   Ar   83   1.445   3.461   1.063
    1   AR   Ar   84   0.782   4.645   1.287
    1   AR   Ar   85   0.819   3.304  -0.139
    1   AR   Ar   86   1.859   5.308   1.268
    1   AR   Ar   87   3.320   3.015   2.563
    1   AR   Ar   88   3.491   5.488   1.163
    1   AR   Ar   89   6.324   2.242   1.260
    1   AR   Ar   90   3.262   1.279   5.831
    1   AR   Ar   91   1.877   0.955   2.890
    1   AR   Ar   92   2.461   2.260   1.152
    1   AR   Ar   93   2.008   0.865   5.417
    1   AR   Ar   94   0.714   7.091   8.381
    1   AR   Ar   95   4.370   1.138   5.487
    1   AR   Ar   96   2.249   6.800   4.986
    1   AR   Ar   97   3.096   2.087  -1.040
    1   AR   Ar   98   1.823   4.468   4.394
    1   AR   Ar   99   6.156   0.341  -0.068
    1   AR   Ar  100   6.223   2.643  -2.293
    1   AR   Ar  101   3.875   6.361   2.534
    1   AR   Ar  102   3.387   1.797   2.365
    1   AR   Ar  103   1.995   4.356   0.633
    1   AR   Ar  104   3.179   0.117  -1.247
    1   AR   Ar  105   2.479   2.011   3.102
    1   AR   Ar  106   4.187   1.941   4.463
    1   AR   Ar  107   1.192   5.039   5.389
    1   AR   Ar  108   2.342   0.586   4.019
    1   AR   Ar  109   2.192   4.607   5.373
    1   AR   Ar  110   2.274   2.474   4.831
    1   AR   Ar  111   3.358   4.968   7.504
    1   AR   Ar  112   6.102   6.383   5.503
    1   AR   Ar  113   0.989   5.891  -1.529
    1   AR   Ar  114   2.803   0.193  -0.092
    1   AR   Ar  115   0.521   5.448   0.354
    1   AR   Ar  116   5.073   0.346   0.710
    1   AR   Ar  117   0.104   4.813   3.831
    1   AR   Ar  118   2.272   6.202   3.356
    1   AR   Ar  119   1.487   4.069   3.274
    1   AR   Ar  120   2.259   0.051   2.396
    1   AR   Ar  121   5.101   4.325   5.791
    1   AR   Ar  122   2.742   5.258   3.891
    1   AR   Ar  123   3.337   2.387   5.161
    1   AR   Ar  124   0.575   5.507   1.868
    1   AR   Ar  125   5.800   3.801   3.780
    1   AR   Ar  126   6.657   0.550   7.312
    1   AR   Ar  127   4.979   3.160   6.128
    1   AR   Ar  128   0.975   3.760   6.536
    1   AR   Ar  129   1.904   5.642   4.471
    1   AR   Ar  130   3.948   0.745  -4.718
    1   AR   Ar  131   4.160   6.778  -1.449
    1   AR   Ar  132   1.246   2.379   1.005
    1   AR   Ar  133   4.071   0.525   4.446
    1   AR   Ar  134   2.685   1.643   4.133
    1   AR   Ar  135   5.669   0.529   5.004
    1   AR   Ar  136   5.678   6.718   2.695
    1   AR   Ar  137   2.634   4.129   6.300
    1   AR   Ar  138   5.745   1.123   6.035
    1   AR   Ar  139   6.365   1.528   4.696
    1   AR   Ar  140   4.289   6.603   5.005
    1   AR   Ar  141   3.703   5.297   4.585
    1   AR   Ar  142   4.824   6.512   8.050
    1   AR   Ar  143   5.213   6.805   6.787
    1   AR   Ar  144   0.215   2.174   5.012
    1   AR   Ar  145   4.548   4.894  -0.749
    1   AR   Ar  146   3.914   2.246   3.244
    1   AR   Ar  147   5.278   4.230  -0.288
    1   AR   Ar  148   3.173   5.920  -1.125
    1   AR   Ar  149   0.080   2.701  -0.972
    1   AR   Ar  150   1.790   2.523   2.409
    1   AR   Ar  151   2.378   3.326   3.121
    1   AR   Ar  152   0.701   1.158  -1.750
    1   AR   Ar  153   5.462   0.853   2.798
    1   AR   Ar  154   4.506   2.941   3.704
    1   AR   Ar  155   5.999   3.803   5.446
    1   AR   Ar  156   2.844   4.420   3.091
    1   AR   Ar  157   3.277   5.654   6.718
    1   AR   Ar  158   0.734   2.541   6.617
    1   AR   Ar  159   4.154   0.094   5.776
    1   AR   Ar  160   1.200   1.172   4.512
    1   AR   Ar  161   4.676   4.705   3.042
    1   AR   Ar  162   3.987   5.830  -0.289
    1   AR   Ar  163   6.374   4.204   2.431
    1   AR   Ar  164   2.121   5.895   2.229
    1   AR   Ar  165   3.389   4.135   1.373
    1   AR   Ar  166   3.071   3.482   5.197
    1   AR   Ar  167   6.184   6.952   3.544
    1   AR   Ar  168   5.979   4.684  -2.471
    1   AR   Ar  169   3.803   3.770   3.287
    1   AR   Ar  170   2.527   3.016   5.988
    1   AR   Ar  171   5.120   5.651   4.451
    1   AR   Ar  172   4.051   3.586   4.393
    1   AR   Ar  173   2.730   2.055   6.432
    1   AR   Ar  174   3.134   6.318   4.429
    1   AR   Ar  175   2.904   0.399   6.193
    1   AR   Ar  176   3.109   2.603   4.126
    1   AR   Ar  177   7.110   4.222  -0.701
    1   AR   Ar  178   2.613   6.094   0.118
    1   AR   Ar  179   3.419   6.676   0.825
    1   AR   Ar  180   4.946   0.623  -8.051
    1   AR   Ar  181   7.089   6.408   1.869
    1   AR   Ar  182   1.236   6.188   2.874
    1   AR   Ar  183   4.537   5.517   1.719
    1   AR   Ar  184   4.648   5.349   0.694
    1   AR   Ar  185   2.938   4.417   4.478
    1   AR   Ar  186   3.034   6.772   3.001
    1   AR   Ar  187   4.070   6.108   3.849
    1   AR   Ar  188   3.260   0.777   1.603
    1   AR   Ar  189   5.880   2.306   5.447
    1   AR   Ar  190   1.291   6.993   3.982
    1   AR   Ar  191   3.902   6.628   6.831
    1   AR   Ar  192   4.053   3.362   5.479
    1   AR   Ar  193   2.976   6.333   1.815
    1   AR   Ar  194   4.969   6.116  -1.302
    1   AR   Ar  195   6.267   0.930   1.072
    1   AR   Ar  196   3.625   0.646   0.541
    1   AR   Ar  197   4.609   3.151   0.586
    1   AR   Ar  198   6.085   6.806   1.216
    1   AR   Ar  199   0.760   0.138   2.606
    1   AR   Ar  200   6.157   2.674  -0.307
    1   AR   Ar  201   6.411   5.816   2.428
    1   AR   Ar  202   5.329   0.642   3.966
    1   AR   Ar  203   0.160   6.620   3.562
    1   AR   Ar  204   4.328   4.378   7.212
    1   AR   Ar  205   5.493   1.821   1.870
    1   AR   Ar  206   6.326   0.046   6.414
    1   AR   Ar  207   7.071   3.285   4.531
    1   AR   Ar  208   0.907   5.980   3.820
    1   AR   Ar  209   7.113   2.059  -1.851
    1   AR   Ar  210   1.673   0.955  -0.073
    1   AR   Ar  211   6.860   3.013   0.489
    1   AR   Ar  212   6.336   3.786   0.072
    1   AR   Ar  213   3.487   2.005   1.276
    1   AR   Ar  214   5.192   4.592   2.032
    1   AR   Ar  215   0.118   2.819   1.541
    1   AR   Ar  216   1.993   2.346   0.213
    1   AR   Ar  217   5.503   1.663   3.979
    1   AR   Ar  218   4.964   2.916   4.938
    1   AR   Ar  219   4.482   3.674   2.478
    1   AR   Ar  220   4.468   4.070   1.462
    1   AR   Ar  221   6.567   5.778   4.109
    1   AR   Ar  222   5.107   0.031   5.603
    1   AR   Ar  223   6.659   1.644   5.827
    1   AR   Ar  224   5.106   1.777   4.981
    1   AR   Ar  225   6.856   2.681   2.497
    1   AR   Ar  226   2.190   3.230   4.120
    1   AR   Ar  227   0.863   2.822   3.041
    1   AR   Ar  228   6.069   0.683   2.114
    1   AR   Ar  229   5.944   4.760  -0.932
    1   AR   Ar  230   3.826   4.639   3.760
    1   AR   Ar  231   4.630   1.957   2.578
    1   AR   Ar  232   5.066   2.861   1.925
    1   AR   Ar  233   6.556   1.961   3.738
    1   AR   Ar  234   6.097   2.626   4.336
    1   AR   Ar  235   6.452   0.861   3.835
    1   AR   Ar  236   4.012   4.619   5.331
    1   AR   Ar  237   4.637   0.181   7.373
    1   AR   Ar  238   5.022   5.054   6.502
    1   AR   Ar  239   0.992   4.560  11.367
    1   AR   Ar  240   1.956   3.006   7.010
    1   AR   Ar  241   1.623   7.025   0.339
    1   AR   Ar  242   5.640   5.459   1.137
    1   AR   Ar  243   4.749   6.736   2.217
    1   AR   Ar  244   6.549   6.399   0.348
    1   AR   Ar  245   3.682   1.004   3.438
    1   AR   Ar  246   5.808   0.240  -1.122
    1   AR   Ar  247   0.075   3.788   1.376
    1   AR   Ar  248   5.521   5.351   0.175
    1   AR   Ar  249   4.190   0.040   1.422
    1   AR   Ar  250   5.054   6.658   3.492
    1   AR   Ar  251   4.706   4.377   4.493
    1   AR   Ar  252   2.677   4.787   1.918
    1   AR   Ar  253   5.112   2.403   7.879
    1   AR   Ar  254   5.128   3.257  11.638
    1   AR   Ar  255   4.306   6.531   8.994
    1   AR   Ar  256   5.690   5.703   3.446
    7.12000  7.12000 12.00000
Argon-slab step 5180
  256
    1   AR   Ar    1   4.240   3.539  -3.077
    1   AR   Ar    2   5.353   6.297   0.600
    1   AR   Ar    3   3.781   3.564  -1.213
    1   AR   Ar    4   2.616   1.184   0.847
    1   AR   Ar    5   6.951   5.177  -0.463
    1   AR   Ar    6   1.090   1.603   2.310
    1   AR   Ar    7   5.802   4.679   3.330
    1   AR   Ar    8   6.497   3.427  -1.150
    1   AR   Ar    9   6.893   6.609   4.502
    1   AR   Ar   10   5.965   5.275   5.294
    1   AR   Ar   11   1.188   6.645   4.971
    1   AR   Ar   12   0.178   1.336   4.206
    1   AR   Ar   13   6.875   0.595   4.900
    1   AR   Ar   14   3.973   0.718   6.771
    1   AR   Ar   15   2.572   6.586   9.602
    1   AR   Ar   16   0.829   0.196   6.075
    1   AR   Ar   17   6.102   3.893   1.227
    1   AR   Ar   18   0.027   4.823  -1.687
    1   AR   Ar   19   5.285   4.596   0.887
    1   AR   Ar   20   6.693   3.796  -2.321
    1   AR   Ar   21   2.355   1.658   2.053
    1   AR   Ar   22   4.837   0.829   1.927
    1   AR   Ar   23   1.030   6.289   0.834
    1   AR   Ar   24   5.627   2.608   3.210
    1   AR   Ar   25   1.029   3.032   4.883
    1   AR   Ar   26   5.838   6.415   4.510
    1   AR   Ar   27   1.484   0.658   1.751
    1   AR   Ar   28   1.689   2.011   3.978
    1   AR   Ar   29   4.985   1.129   8.046
    1   AR   Ar   30   0.095   1.051   2.906
    1   AR   Ar   31   1.887   0.216   6.862
    1   AR   Ar   32   1.292   1.995   5.393
    1   AR   Ar   33   0.021   4.441   0.378
    1   AR   Ar   34   1.403   5.080   2.460
    1   AR   Ar   35   5.369   5.569   2.409
    1   AR   Ar   36   4.944   2.646  -3.291
    1   AR   Ar   37   3.890   2.993   1.625
    1   AR   Ar   38   6.090   4.891   4.403
    1   AR   Ar   39   0.797   2.460   4.090
    1   AR   Ar   40   0.905   3.866   2.279
    1   AR   Ar   41   0.868   1.814   3.300
    1   AR   Ar   42   5.053   5.667   5.512
    1   AR   Ar   43   0.259   3.043   5.570
    1   AR   Ar   44   0.393   3.936   3.267
    1   AR   Ar   45   2.050   3.430   5.268
    1   AR   Ar   46   6.394   4.783   6.756
    1   AR   Ar   47   3.252   3.977   7.524
    1   AR   Ar   48   0.161   3.664   7.189
    1   AR   Ar   49   0.598   1.087   0.790
    1   AR   Ar   50   3.741   4.669   0.389
    1   AR   Ar   51   5.669   3.549   2.671
    1   AR   Ar   52   5.434   3.450  -1.134
    1   AR   Ar   53   4.585   0.406   3.215
    1   AR   Ar   54   6.760   7.057   2.610
    1   AR   Ar   55   0.125   4.772   2.355
    1   AR   Ar   56   6.059   1.656   2.937
    1   AR   Ar   57   3.987   4.711   2.193
    1   AR   Ar   58   0.893   3.533   4.033
    1   AR   Ar   59   2.986   5.430   5.479
    1   AR   Ar   60   0.114   5.675   3.040
    1   AR   Ar   61   6.874   3.992   6.018
    1   AR   Ar   62   0.225   4.294   4.986
    1   AR   Ar   63   3.224   2.612   7.733
    1   AR   Ar   64   0.428   5.452   4.691
    1   AR   Ar   65   3.941   0.990   2.272
    1   AR   Ar   66   1.701   1.486   0.958
    1   AR   Ar   67   4.865   0.158  -0.708
    1   AR   Ar   68   0.136   1.598  -0.540
    1   AR   Ar   69   2.583   1.555  -0.134
    1   AR   Ar   70   7.083   1.411   1.654
    1   AR   Ar   71   3.067   0.738   2.745
    1   AR   Ar   72   4.102   1.288   1.192
    1   AR   Ar   73   3.225   0.027   3.948
    1   AR   Ar   74   1.234   0.757   3.529
    1   AR   Ar   75   3.039   0.706   4.836
    1   AR   Ar   76   2.400   0.348   1.263
    1   AR   Ar   77   1.857   5.792   5.492
    1   AR   Ar   78   6.969   5.297   5.998
    1   AR   Ar   79   3.120   6.590   5.840
    1   AR   Ar   80   3.884   5.829   5.721
    1   AR   Ar   81   1.995   6.509   1.298
    1   AR   Ar   82   6.740   5.368   1.477
    1   AR   Ar   83   1.441   3.474   1.061
    1   AR   Ar   84   0.827   4.641   1.278
    1   AR   Ar   85   0.779   3.269  -0.168
    1   AR   Ar   86   1.858   5.290   1.289
    1   AR   Ar   87   3.316   3.025   2.556
    1   AR   Ar   88   3.500   5.485   1.158
    1   AR   Ar   89   6.301   2.255   1.292
    1   AR   Ar   90   3.247   1.288   5.837
    1   AR   Ar   91   1.908   1.000   2.875
    1   AR   Ar   92   2.503   2.259   1.139
    1   AR   Ar   93   1.998   0.864   5.417
    1   AR   Ar   94   0.690   7.065   8.354
    1   AR   Ar   95   4.395   1.129   5.497
    1   AR   Ar   96   2.252   6.775   5.011
    1   AR   Ar   97   3.124   2.078  -1.062
    1   AR   Ar   98   1.820   4.478   4.387
    1   AR   Ar   99   6.174   0.293  -0.043
    1   AR   Ar  100   6.250   2.638  -2.283
    1   AR   Ar  101   3.871   6.374   2.553
    1   AR   Ar  102   3.400   1.809   2.334
    1   AR   Ar  103   2.011   4.317   0.662
    1   AR   Ar  104   3.182   0.122  -1.275
    1   AR   Ar  105   2.497   2.020   3.077
    1   AR   Ar  106   4.176   1.911   4.432
    1   AR   Ar  107   1.196   5.012   5.414
    1   AR   Ar  108   2.326   0.591   4.005
    1   AR   Ar  109   2.194   4.579   5.362
    1   AR   Ar  110   2.275   2.467   4.841
    1   AR   Ar  111   3.344   4.946   7.474
    1   AR   Ar  112   6.093   6.395   5.491
    1   AR   Ar  113   0.978   5.850  -1.524
    1   AR   Ar  114   2.797   0.184  -0.090
    1   AR   Ar  115   0.514   5.468   0.326
    1   AR   Ar  116   5.099   0.353   0.679
    1   AR   Ar  117   0.083   4.829   3.829
    1   AR   Ar  118   2.265   6.229   3.333
    1   AR   Ar  119   1.507   4.067   3.303
    1   AR   Ar  120   2.245   0.057   2.407
    1   AR   Ar  121   5.106   4.311   5.796
    1   AR   Ar  122   2.743   5.260   3.867
    1   AR   Ar  123   3.327   2.415   5.185
    1   AR   Ar  124   0.599   5.531   1.876
    1   AR   Ar  125   5.820   3.775   3.791
    1   AR   Ar  126   6.679   0.511   7.310
    1   AR   Ar  127   4.988   3.187   6.113
    1   AR   Ar  128   0.955   3.760   6.547
    1   AR   Ar  129   1.903   5.649   4.438
    1   AR   Ar  130   3.961   0.736  -4.705
    1   AR   Ar  131   4.151   6.811  -1.405
    1   AR   Ar  132   1.215   2.381   0.972
    1   AR   Ar  133   4.043   0.491   4.447
    1   AR   Ar  134   2.675   1.651   4.115
    1   AR   Ar  135   5.698   0.502   5.001
    1   AR   Ar  136   5.684   6.708   2.693
    1   AR   Ar  137   2.620   4.146   6.274
    1   AR   Ar  138   5.736   1.120   6.048
    1   AR   Ar  139   6.332   1.509   4.706
    1   AR   Ar  140   4.273   6.586   4.998
    1   AR   Ar  141   3.705   5.296   4.561
    1   AR   Ar  142   4.844   6.489   8.068
    1   AR   Ar  143   5.232   6.812   6.788
    1   AR   Ar  144   0.230   2.195   5.004
    1   AR   Ar  145   4.568   4.890  -0.774
    1   AR   Ar  146   3.889   2.266   3.252
    1   AR   Ar  147   5.285   4.231  -0.285
    1   AR   Ar  148   3.179   5.911  -1.127
    1   AR   Ar  149   0.104   2.663  -0.949
    1   AR   Ar  150   1.770   2.515   2.362
    1   AR   Ar  151   2.373   3.329   3.081
    1   AR   Ar  152   0.710   1.174  -1.744
    1   AR   Ar  153   5.457   0.868   2.854
    1   AR   Ar  154   4.487   2.959   3.714
    1   AR   Ar  155   6.026   3.795   5.468
    1   AR   Ar  156   2.876   4.394   3.074
    1   AR   Ar  157   3.242   5.674   6.716
    1   AR   Ar  158   0.715   2.549   6.643
    1   AR   Ar  159   4.166   0.121   5.794
    1   AR   Ar  160   1.199   1.168   4.497
    1   AR   Ar  161   4.706   4.719   3.044
    1   AR   Ar  162   4.001   5.860  -0.283
    1   AR   Ar  163   6.377   4.219   2.438
    1   AR   Ar  164   2.111   5.895   2.249
    1   AR   Ar  165   3.350   4.121   1.367
    1   AR   Ar  166   3.085   3.451   5.208
    1   AR   Ar  167   6.181   6.949   3.541
    1   AR   Ar  168   6.006   4.681  -2.460
    1   AR   Ar  169   3.815   3.753   3.302
    1   AR   Ar  170   2.549   3.016   5.987
    1   AR   Ar  171   5.114   5.664   4.486
    1   AR   Ar  172   4.083   3.554   4.415
    1   AR   Ar  173   2.738   2.058   6.427
    1   AR   Ar  174   3.119   6.318   4.433
    1   AR   Ar  175   2.895   0.380   6.213
    1   AR   Ar  176   3.108   2.617   4.122
    1   AR   Ar  177   0.012   4.213  -0.666
    1   AR   Ar  178   2.579   6.063   0.108
    1   AR   Ar  179   3.421   6.663   0.846
    1   AR   Ar  180   4.947   0.629  -8.079
    1   AR   Ar  181   7.098   6.441   1.875
    1   AR   Ar  182   1.258   6.224   2.842
    1   AR   Ar  183   4.551   5.497   1.698
    1   AR   Ar  184   4.619   5.330   0.681
    1   AR   Ar  185   2.946   4.424   4.505
    1   AR   Ar  186   3.030   6.786   2.978
    1   AR   Ar  187   4.104   6.147   3.888
    1   AR   Ar  188   3.256   0.798   1.584
    1   AR   Ar  189   5.889   2.296   5.429
    1   AR   Ar  190   1.275   6.999   3.963
    1   AR   Ar  191   3.885   6.638   6.778
    1   AR   Ar  192   4.068   3.314   5.487
    1   AR   Ar  193   2.952   6.317   1.815
    1   AR   Ar  194   4.963   6.129  -1.288
    1   AR   Ar  195   6.265   0.905   1.038
    1   AR   Ar  196   3.627   0.635   0.565
    1   AR   Ar  197   4.622   3.131   0.570
    1   AR   Ar  198   6.109   6.768   1.225
    1   AR   Ar  199   0.794   0.153   2.657
    1   AR   Ar  200   6.176   2.691  -0.320
    1   AR   Ar  201   6.406   5.840   2.439
    1   AR   Ar  202   5.371   0.643   3.996
    1   AR   Ar  203   0.177   6.650   3.545
    1   AR   Ar  204   4.310   4.387   7.235
    1   AR   Ar  205   5.524   1.804   1.847
    1   AR   Ar  206   6.325   0.048   6.422
    1   AR   Ar  207   7.046   3.282   4.521
    1   AR   Ar  208   0.902   5.986   3.831
    1   AR   Ar  209   7.081   2.082  -1.857
    1   AR   Ar  210   1.698   0.953  -0.093
    1   AR   Ar  211   6.848   2.979   0.519
    1   AR   Ar  212   6.336   3.788   0.047
    1   AR   Ar  213   3.513   2.011   1.268
    1   AR   Ar  214   5.191   4.610   2.040
    1   AR   Ar  215   0.141   2.811   1.525
    1   AR   Ar  216   2.009   2.363   0.205
    1   AR   Ar  217   5.497   1.649   3.991
    1   AR   Ar  218   4.948   2.895   4.969
    1   AR   Ar  219   4.475   3.656   2.480
    1   AR   Ar  220   4.469   4.064   1.475
    1   AR   Ar  221   6.582   5.758   4.113
    1   AR   Ar  222   5.103   0.037   5.628
    1   AR   Ar  223   6.665   1.652   5.777
    1   AR   Ar  224   5.109   1.759   4.968
    1   AR   Ar  225   6.862   2.679   2.513
    1   AR   Ar  226   2.191   3.276   4.109
    1   AR   Ar  227   0.846   2.792   3.044
    1   AR   Ar  228   6.091   0.693   2.086
    1   AR   Ar  229   5.946   4.755  -0.934
    1   AR   Ar  230   3.835   4.656   3.774
    1   AR   Ar  231   4.623   1.957   2.587
    1   AR   Ar  232   5.073   2.840   1.904
    1   AR   Ar  233   6.574   1.959   3.744
    1   AR   Ar  234   6.096   2.634   4.348
    1   AR   Ar  235   6.437   0.842   3.850
    1   AR   Ar  236   4.009   4.610   5.340
    1   AR   Ar  237   4.647   0.203   7.418
    1   AR   Ar  238   5.048   5.053   6.504
    1   AR   Ar  239   0.999   4.550  11.362
    1   AR   Ar  240   1.966   3.016   7.052
    1   AR   Ar  241   1.612   7.047   0.363
    1   AR   Ar  242   5.644   5.471   1.151
    1   AR   Ar  243   4.712   6.710   2.213
    1   AR   Ar  244   6.514   6.382   0.358
    1   AR   Ar  245   3.650   0.980   3.424
    1   AR   Ar  246   5.810   0.267  -1.124
    1   AR   Ar  247   0.056   3.776   1.423
    1   AR   Ar  248   5.547   5.359   0.159
    1   AR   Ar  249   4.164   0.032   1.407
    1   AR   Ar  250   5.067   6.649   3.506
    1   AR   Ar  251   4.699   4.361   4.459
    1   AR   Ar  252   2.711   4.794   1.896
    1   AR   Ar  253   5.077   2.416   7.916
    1   AR   Ar  254   5.102   3.259  11.679
    1   AR   Ar  255   4.317   6.559   8.999
    1   AR   Ar  256   5.703   5.706   3.481
    7.12000  7.12000 12.00000
Argon-slab step 5185
  256
    1   AR   Ar    1   4.197   3.541  -3.083
    1   AR   Ar    2   5.376   6.315   0.607
    1   AR   Ar    3   3.769   3.544  -1.235
    1   AR   Ar    4   2.616   1.168   0.838
    1   AR   Ar    5   6.950   5.201  -0.442
    1   AR   Ar    6   1.059   1.584   2.343
    1   AR   Ar    7   5.780   4.678   3.353
    1   AR   Ar    8   6.506   3.432  -1.143
    1   AR   Ar    9   6.871   6.632   4.538
    1   AR   Ar   10   5.945   5.255   5.309
    1   AR   Ar   11   1.187   6.666   4.989
    1   AR   Ar   12   0.203   1.341   4.173
    1   AR   Ar   13   6.867   0.584   4.930
    1   AR   Ar   14   4.003   0.713   6.752
    1   AR   Ar   15   2.582   6.592   9.595
    1   AR   Ar   16   0.807   0.183   6.053
    1   AR   Ar   17   6.115   3.900   1.248
    1   AR   Ar   18   0.013   4.801  -1.664
    1   AR   Ar   19   5.323   4.591   0.879
    1   AR   Ar   20   6.692   3.789  -2.367
    1   AR   Ar   21   2.349   1.654   2.033
    1   AR   Ar   22   4.829   0.867   1.893
    1   AR   Ar   23   1.021   6.277   0.824
    1   AR   Ar   24   5.594   2.594   3.227
    1   AR   Ar   25   1.035   3.039   4.933
    1   AR   Ar   26   5.843   6.364   4.492
    1   AR   Ar   27   1.482   0.648   1.746
    1   AR   Ar   28   1.671   2.099   3.958
    1   AR   Ar   29   4.978   1.141   8.034
    1   AR   Ar   30   0.091   1.080   2.909
    1   AR   Ar   31   1.887   0.236   6.830
    1   AR   Ar   32   1.305   2.013   5.376
    1   AR   Ar   33   0.031   4.472   0.353
    1   AR   Ar   34   1.430   5.083   2.471
    1   AR   Ar   35   5.382   5.555   2.409
    1   AR   Ar   36   4.918   2.654  -3.283
    1   AR   Ar   37   3.919   3.007   1.668
    1   AR   Ar   38   6.077   4.864   4.361
    1   AR   Ar   39   0.824   2.471   4.079
    1   AR   Ar   40   0.898   3.871   2.273
    1   AR   Ar   41   0.852   1.808   3.331
    1   AR   Ar   42   5.084   5.633   5.485
    1   AR   Ar   43   0.269   3.066   5.605
    1   AR   Ar   44   0.369   3.928   3.261
    1   AR   Ar   45   2.073   3.427   5.267
    1   AR   Ar   46   6.400   4.799   6.731
    1   AR   Ar   47   3.214   3.964   7.533
    1   AR   Ar   48   0.138   3.644   7.198
    1   AR   Ar   49   0.567   1.043   0.791
    1   AR   Ar   50   3.685   4.668   0.362
    1   AR   Ar   51   5.658   3.558   2.679
    1   AR   Ar   52   5.413   3.458  -1.159
    1   AR   Ar   53   4.566   0.438   3.238
    1   AR   Ar   54   6.751   7.069   2.635
    1   AR   Ar   55   0.108   4.758   2.328
    1   AR   Ar   56   6.052   1.677   2.923
    1   AR   Ar   57   3.972   4.730   2.219
    1   AR   Ar   58   0.904   3.502   4.020
    1   AR   Ar   59   2.967   5.470   5.480
    1   AR   Ar   60   0.120   5.685   3.050
    1   AR   Ar   61   6.843   4.026   5.978
    1   AR   Ar   62   0.212   4.275   4.996
    1   AR   Ar   63   3.185   2.655   7.769
    1   AR   Ar   64   0.406   5.433   4.678
    1   AR   Ar   65   3.938   1.013   2.274
    1   AR   Ar   66   1.686   1.482   0.910
    1   AR   Ar   67   4.902   0.155  -0.712
    1   AR   Ar   68   0.123   1.578  -0.528
    1   AR   Ar   69   2.590   1.578  -0.118
    1   AR   Ar   70   7.075   1.378   1.654
    1   AR   Ar   71   3.046   0.728   2.720
    1   AR   Ar   72   4.098   1.285   1.186
    1   AR   Ar   73   3.231   0.013   3.908
    1   AR   Ar   74   1.261   0.813   3.498
    1   AR   Ar   75   3.043   0.682   4.869
    1   AR   Ar   76   2.398   0.339   1.281
    1   AR   Ar   77   1.839   5.798   5.467
    1   AR   Ar   78   6.995   5.286   5.988
    1   AR   Ar   79   3.105   6.582   5.830
    1   AR   Ar   80   3.905   5.814   5.684
    1   AR   Ar   81   2.000   6.517   1.315
    1   AR   Ar   82   6.757   5.361   1.486
    1   AR   Ar   83   1.436   3.486   1.061
    1   AR   Ar   84   0.871   4.637   1.269
    1   AR   Ar   85   0.738   3.233  -0.196
    1   AR   Ar   86   1.856   5.273   1.312
    1   AR   Ar   87   3.312   3.035   2.550
    1   AR   Ar   88   3.509   5.482   1.154
    1   AR   Ar   89   6.281   2.269   1.323
    1   AR   Ar   90   3.236   1.299   5.841
    1   AR   Ar   91   1.951   1.050   2.849
    1   AR   Ar   92   2.542   2.259   1.129
    1   AR   Ar   93   1.989   0.862   5.416
    1   AR   Ar   94   0.665   7.040   8.327
    1   AR   Ar   95   4.419   1.119   5.507
    1   AR   Ar   96   2.259   6.750   5.035
    1   AR   Ar   97   3.152   2.070  -1.083
    1   AR   Ar   98   1.815   4.487   4.377
    1   AR   Ar   99   6.190   0.244  -0.016
    1   AR   Ar  100   6.244   2.636  -2.268
    1   AR   Ar  101   3.857   6.379   2.574
    1   AR   Ar  102   3.407   1.832   2.305
    1   AR   Ar  103   2.027   4.279   0.692
    1   AR   Ar  104   3.182   0.127  -1.302
    1   AR   Ar  105   2.516   2.029   3.053
    1   AR   Ar  106   4.163   1.882   4.399
    1   AR   Ar  107   1.196   4.980   5.437
    1   AR   Ar  108   2.305   0.598   3.989
    1   AR   Ar  109   2.186   4.568   5.354
    1   AR   Ar  110   2.296   2.435   4.875
    1   AR   Ar  111   3.332   4.938   7.444
    1   AR   Ar  112   6.085   6.408   5.485
    1   AR   Ar  113   0.967   5.808  -1.518
    1   AR   Ar  114   2.790   0.175  -0.086
    1   AR   Ar  115   0.508   5.487   0.299
    1   AR   Ar  116   5.125   0.360   0.650
    1   AR   Ar  117   0.061   4.846   3.828
    1   AR   Ar  118   2.253   6.252   3.315
    1   AR   Ar  119   1.528   4.065   3.331
    1   AR   Ar  120   2.229   0.063   2.413
    1   AR   Ar  121   5.110   4.294   5.795
    1   AR   Ar  122   2.745   5.263   3.841
    1   AR   Ar  123   3.326   2.400   5.183
    1   AR   Ar  124   0.627   5.561   1.881
    1   AR   Ar  125   5.839   3.741   3.806
    1   AR   Ar  126   6.701   0.472   7.310
    1   AR   Ar  127   4.990   3.172   6.080
    1   AR   Ar  128   0.940   3.758   6.554
    1   AR   Ar  129   1.900   5.657   4.404
    1   AR   Ar  130   3.958   0.747  -4.711
    1   AR   Ar  131   4.141   6.843  -1.362
    1   AR   Ar  132   1.168   2.379   0.940
    1   AR   Ar  133   4.019   0.457   4.450
    1   AR   Ar  134   2.670   1.651   4.082
    1   AR   Ar  135   5.737   0.482   4.992
    1   AR   Ar  136   5.692   6.696   2.681
    1   AR   Ar  137   2.608   4.162   6.249
    1   AR   Ar  138   5.720   1.115   6.062
    1   AR   Ar  139   6.295   1.493   4.718
    1   AR   Ar  140   4.258   6.566   4.986
    1   AR   Ar  141   3.706   5.302   4.542
    1   AR   Ar  142   4.865   6.465   8.085
    1   AR   Ar  143   5.255   6.813   6.782
    1   AR   Ar  144   0.244   2.209   4.991
    1   AR   Ar  145   4.588   4.887  -0.798
    1   AR   Ar  146   3.856   2.284   3.261
    1   AR   Ar  147   5.291   4.230  -0.278
    1   AR   Ar  148   3.183   5.905  -1.124
    1   AR   Ar  149   0.128   2.625  -0.924
    1   AR   Ar  150   1.748   2.509   2.315
    1   AR   Ar  151   2.368   3.332   3.037
    1   AR   Ar  152   0.724   1.181  -1.736
    1   AR   Ar  153   5.444   0.877   2.917
    1   AR   Ar  154   4.476   2.975   3.721
    1   AR   Ar  155   6.048   3.785   5.487
    1   AR   Ar  156   2.909   4.368   3.058
    1   AR   Ar  157   3.207   5.697   6.710
    1   AR   Ar  158   0.696   2.558   6.668
    1   AR   Ar  159   4.155   0.151   5.821
    1   AR   Ar  160   1.199   1.165   4.486
    1   AR   Ar  161   4.726   4.720   3.041
    1   AR   Ar  162   4.016   5.889  -0.276
    1   AR   Ar  163   6.382   4.237   2.444
    1   AR   Ar  164   2.103   5.904   2.266
    1   AR   Ar  165   3.313   4.106   1.360
    1   AR   Ar  166   3.100   3.425   5.213
    1   AR   Ar  167   6.181   6.946   3.545
    1   AR   Ar  168   6.034   4.678  -2.447
    1   AR   Ar  169   3.824   3.731   3.316
    1   AR   Ar  170   2.577   3.009   5.999
    1   AR   Ar  171   5.113   5.681   4.500
    1   AR   Ar  172   4.106   3.522   4.442
    1   AR   Ar  173   2.746   2.061   6.422
    1   AR   Ar  174   3.103   6.302   4.445
    1   AR   Ar  175   2.884   0.364   6.236
    1   AR   Ar  176   3.110   2.634   4.116
    1   AR   Ar  177   0.035   4.195  -0.635
    1   AR   Ar  178   2.543   6.050   0.114
    1   AR   Ar  179   3.419   6.649   0.865
    1   AR   Ar  180   4.948   0.635  -8.107
    1   AR   Ar  181   7.084   6.446   1.876
    1   AR   Ar  182   1.278   6.260   2.809
    1   AR   Ar  183   4.566   5.480   1.680
    1   AR   Ar  184   4.583   5.317   0.663
    1   AR   Ar  185   2.955   4.429   4.535
    1   AR   Ar  186   3.030   6.802   2.953
    1   AR   Ar  187   4.138   6.187   3.928
    1   AR   Ar  188   3.249   0.818   1.566
    1   AR   Ar  189   5.898   2.290   5.411
    1   AR   Ar  190   1.261   6.995   3.947
    1   AR   Ar  191   3.869   6.650   6.724
    1   AR   Ar  192   4.086   3.265   5.497
    1   AR   Ar  193   2.932   6.303   1.814
    1   AR   Ar  194   4.958   6.140  -1.272
    1   AR   Ar  195   6.262   0.881   1.003
    1   AR   Ar  196   3.635   0.625   0.588
    1   AR   Ar  197   4.637   3.120   0.569
    1   AR   Ar  198   6.132   6.732   1.239
    1   AR   Ar  199   0.829   0.167   2.709
    1   AR   Ar  200   6.197   2.710  -0.334
    1   AR   Ar  201   6.390   5.857   2.451
    1   AR   Ar  202   5.411   0.637   4.024
    1   AR   Ar  203   0.192   6.684   3.522
    1   AR   Ar  204   4.293   4.396   7.258
    1   AR   Ar  205   5.552   1.783   1.827
    1   AR   Ar  206   6.323   0.050   6.426
    1   AR   Ar  207   7.021   3.278   4.511
    1   AR   Ar  208   0.900   5.985   3.845
    1   AR   Ar  209   7.050   2.104  -1.862
    1   AR   Ar  210   1.723   0.950  -0.110
    1   AR   Ar  211   6.836   2.944   0.549
    1   AR   Ar  212   6.333   3.791   0.020
    1   AR   Ar  213   3.524   2.036   1.262
    1   AR   Ar  214   5.191   4.625   2.047
    1   AR   Ar  215   0.168   2.789   1.509
    1   AR   Ar  216   2.004   2.367   0.204
    1   AR   Ar  217   5.494   1.643   3.999
    1   AR   Ar  218   4.934   2.874   4.999
    1   AR   Ar  219   4.471   3.637   2.481
    1   AR   Ar  220   4.484   4.075   1.487
    1   AR   Ar  221   6.599   5.730   4.111
    1   AR   Ar  222   5.112   0.034   5.658
    1   AR   Ar  223   6.673   1.659   5.726
    1   AR   Ar  224   5.133   1.759   4.982
    1   AR   Ar  225   6.867   2.676   2.532
    1   AR   Ar  226   2.190   3.323   4.101
    1   AR   Ar  227   0.829   2.771   3.043
    1   AR   Ar  228   6.117   0.701   2.053
    1   AR   Ar  229   5.951   4.749  -0.937
    1   AR   Ar  230   3.840   4.671   3.788
    1   AR   Ar  231   4.615   1.955   2.590
    1   AR   Ar  232   5.080   2.819   1.884
    1   AR   Ar  233   6.598   1.958   3.750
    1   AR   Ar  234   6.092   2.646   4.364
    1   AR   Ar  235   6.421   0.823   3.862
    1   AR   Ar  236   4.006   4.600   5.349
    1   AR   Ar  237   4.652   0.230   7.469
    1   AR   Ar  238   5.073   5.055   6.509
    1   AR   Ar  239   1.007   4.540  11.357
    1   AR   Ar  240   1.976   3.025   7.093
    1   AR   Ar  241   1.604   7.071   0.387
    1   AR   Ar  242   5.656   5.492   1.182
    1   AR   Ar  243   4.691   6.689   2.204
    1   AR   Ar  244   6.513   6.361   0.334
    1   AR   Ar  245   3.637   0.966   3.435
    1   AR   Ar  246   5.815   0.294  -1.127
    1   AR   Ar  247   0.037   3.780   1.470
    1   AR   Ar  248   5.575   5.363   0.128
    1   AR   Ar  249   4.140   0.028   1.392
    1   AR   Ar  250   5.079   6.635   3.526
    1   AR   Ar  251   4.698   4.341   4.421
    1   AR   Ar  252   2.743   4.804   1.876
    1   AR   Ar  253   5.042   2.428   7.953
    1   AR   Ar  254   5.076   3.261  11.720
    1   AR   Ar  255   4.327   6.587   9.005
    1   AR   Ar  256   5.715   5.714   3.516
    7.12000  7.12000 12.00000
Argon-slab step 5190
  256
    1   AR   Ar    1   4.172   3.532  -3.087
    1   AR   Ar    2   5.397   6.336   0.611
    1   AR   Ar    3   3.763   3.538  -1.244
    1   AR   Ar    4   2.628   1.163   0.820
    1   AR   Ar    5   6.945   5.228  -0.424
    1   AR   Ar    6   1.029   1.563   2.371
    1   AR   Ar    7   5.757   4.676   3.369
    1   AR   Ar    8   6.515   3.439  -1.137
    1   AR   Ar    9   6.852   6.661   4.576
    1   AR   Ar   10   5.943   5.230   5.325
    1   AR   Ar   11   1.185   6.685   5.007
    1   AR   Ar   12   0.231   1.345   4.141
    1   AR   Ar   13   6.860   0.573   4.959
    1   AR   Ar   14   3.996   0.693   6.759
    1   AR   Ar   15   2.593   6.598   9.587
    1   AR   Ar   16   0.786   0.169   6.030
    1   AR   Ar   17   6.127   3.907   1.269
    1   AR   Ar   18   7.118   4.779  -1.639
    1   AR   Ar   19   5.359   4.576   0.871
    1   AR   Ar   20   6.691   3.782  -2.410
    1   AR   Ar   21   2.343   1.645   2.010
    1   AR   Ar   22   4.834   0.903   1.854
    1   AR   Ar   23   1.012   6.264   0.816
    1   AR   Ar   24   5.559   2.581   3.245
    1   AR   Ar   25   1.048   3.045   4.986
    1   AR   Ar   26   5.849   6.320   4.468
    1   AR   Ar   27   1.478   0.640   1.744
    1   AR   Ar   28   1.681   2.176   3.934
    1   AR   Ar   29   4.971   1.153   8.021
    1   AR   Ar   30   0.087   1.109   2.913
    1   AR   Ar   31   1.886   0.256   6.796
    1   AR   Ar   32   1.318   2.030   5.358
    1   AR   Ar   33   0.042   4.503   0.337
    1   AR   Ar   34   1.457   5.084   2.482
    1   AR   Ar   35   5.393   5.547   2.412
    1   AR   Ar   36   4.892   2.663  -3.274
    1   AR   Ar   37   3.950   3.022   1.709
    1   AR   Ar   38   6.063   4.833   4.317
    1   AR   Ar   39   0.821   2.491   4.077
    1   AR   Ar   40   0.891   3.877   2.268
    1   AR   Ar   41   0.824   1.795   3.351
    1   AR   Ar   42   5.076   5.600   5.491
    1   AR   Ar   43   0.274   3.093   5.646
    1   AR   Ar   44   0.342   3.922   3.250
    1   AR   Ar   45   2.083   3.432   5.257
    1   AR   Ar   46   6.404   4.813   6.706
    1   AR   Ar   47   3.183   3.942   7.536
    1   AR   Ar   48   0.112   3.624   7.208
    1   AR   Ar   49   0.538   1.000   0.792
    1   AR   Ar   50   3.630   4.667   0.337
    1   AR   Ar   51   5.640   3.564   2.688
    1   AR   Ar   52   5.392   3.466  -1.183
    1   AR   Ar   53   4.544   0.468   3.262
    1   AR   Ar   54   6.742   7.085   2.661
    1   AR   Ar   55   0.098   4.752   2.309
    1   AR   Ar   56   6.048   1.699   2.904
    1   AR   Ar   57   3.956   4.748   2.244
    1   AR   Ar   58   0.926   3.466   4.005
    1   AR   Ar   59   2.942   5.508   5.478
    1   AR   Ar   60   0.128   5.693   3.061
    1   AR   Ar   61   6.828   4.064   5.948
    1   AR   Ar   62   0.199   4.257   5.006
    1   AR   Ar   63   3.146   2.698   7.804
    1   AR   Ar   64   0.383   5.414   4.666
    1   AR   Ar   65   3.940   1.028   2.286
    1   AR   Ar   66   1.661   1.477   0.864
    1   AR   Ar   67   4.934   0.150  -0.711
    1   AR   Ar   68   0.110   1.559  -0.517
    1   AR   Ar   69   2.602   1.599  -0.106
    1   AR   Ar   70   7.065   1.345   1.657
    1   AR   Ar   71   3.008   0.716   2.681
    1   AR   Ar   72   4.100   1.269   1.215
    1   AR   Ar   73   3.223   0.016   3.887
    1   AR   Ar   74   1.278   0.869   3.472
    1   AR   Ar   75   3.045   0.658   4.903
    1   AR   Ar   76   2.391   0.316   1.303
    1   AR   Ar   77   1.825   5.806   5.442
    1   AR   Ar   78   7.022   5.275   5.974
    1   AR   Ar   79   3.093   6.567   5.816
    1   AR   Ar   80   3.932   5.799   5.649
    1   AR   Ar   81   2.002   6.519   1.332
    1   AR   Ar   82   6.764   5.364   1.491
    1   AR   Ar   83   1.427   3.496   1.062
    1   AR   Ar   84   0.916   4.631   1.261
    1   AR   Ar   85   0.695   3.199  -0.222
    1   AR   Ar   86   1.853   5.257   1.335
    1   AR   Ar   87   3.309   3.043   2.546
    1   AR   Ar   88   3.519   5.479   1.150
    1   AR   Ar   89   6.267   2.287   1.351
    1   AR   Ar   90   3.226   1.309   5.841
    1   AR   Ar   91   1.977   1.087   2.839
    1   AR   Ar   92   2.574   2.260   1.118
    1   AR   Ar   93   1.981   0.860   5.414
    1   AR   Ar   94   0.640   7.015   8.299
    1   AR   Ar   95   4.443   1.111   5.516
    1   AR   Ar   96   2.268   6.727   5.059
    1   AR   Ar   97   3.180   2.061  -1.104
    1   AR   Ar   98   1.810   4.495   4.364
    1   AR   Ar   99   6.204   0.196   0.011
    1   AR   Ar  100   6.236   2.637  -2.253
    1   AR   Ar  101   3.835   6.376   2.598
    1   AR   Ar  102   3.407   1.865   2.280
    1   AR   Ar  103   2.045   4.245   0.722
    1   AR   Ar  104   3.179   0.133  -1.327
    1   AR   Ar  105   2.536   2.039   3.030
    1   AR   Ar  106   4.149   1.854   4.365
    1   AR   Ar  107   1.191   4.946   5.459
    1   AR   Ar  108   2.282   0.604   3.973
    1   AR   Ar  109   2.160   4.580   5.351
    1   AR   Ar  110   2.313   2.402   4.909
    1   AR   Ar  111   3.321   4.940   7.415
    1   AR   Ar  112   6.078   6.422   5.485
    1   AR   Ar  113   0.955   5.766  -1.513
    1   AR   Ar  114   2.783   0.166  -0.081
    1   AR   Ar  115   0.503   5.506   0.276
    1   AR   Ar  116   5.151   0.366   0.621
    1   AR   Ar  117   0.039   4.862   3.827
    1   AR   Ar  118   2.235   6.272   3.301
    1   AR   Ar  119   1.549   4.063   3.358
    1   AR   Ar  120   2.207   0.067   2.416
    1   AR   Ar  121   5.113   4.274   5.790
    1   AR   Ar  122   2.749   5.266   3.816
    1   AR   Ar  123   3.328   2.382   5.181
    1   AR   Ar  124   0.659   5.595   1.886
    1   AR   Ar  125   5.859   3.703   3.824
    1   AR   Ar  126   6.724   0.436   7.313
    1   AR   Ar  127   4.994   3.157   6.047
    1   AR   Ar  128   0.929   3.755   6.556
    1   AR   Ar  129   1.896   5.666   4.369
    1   AR   Ar  130   3.931   0.763  -4.718
    1   AR   Ar  131   4.133   6.874  -1.318
    1   AR   Ar  132   1.119   2.381   0.910
    1   AR   Ar  133   3.999   0.425   4.453
    1   AR   Ar  134   2.672   1.655   4.046
    1   AR   Ar  135   5.783   0.464   4.982
    1   AR   Ar  136   5.699   6.683   2.660
    1   AR   Ar  137   2.596   4.175   6.224
    1   AR   Ar  138   5.683   1.104   6.083
    1   AR   Ar  139   6.258   1.478   4.731
    1   AR   Ar  140   4.244   6.545   4.972
    1   AR   Ar  141   3.705   5.316   4.532
    1   AR   Ar  142   4.888   6.441   8.100
    1   AR   Ar  143   5.280   6.814   6.773
    1   AR   Ar  144   0.257   2.221   4.976
    1   AR   Ar  145   4.607   4.887  -0.821
    1   AR   Ar  146   3.816   2.300   3.270
    1   AR   Ar  147   5.299   4.228  -0.268
    1   AR   Ar  148   3.173   5.908  -1.106
    1   AR   Ar  149   0.151   2.588  -0.896
    1   AR   Ar  150   1.725   2.503   2.270
    1   AR   Ar  151   2.362   3.334   2.993
    1   AR   Ar  152   0.745   1.175  -1.726
    1   AR   Ar  153   5.429   0.882   2.978
    1   AR   Ar  154   4.475   2.985   3.720
    1   AR   Ar  155   6.055   3.771   5.495
    1   AR   Ar  156   2.943   4.342   3.043
    1   AR   Ar  157   3.173   5.723   6.700
    1   AR   Ar  158   0.677   2.570   6.692
    1   AR   Ar  159   4.127   0.179   5.851
    1   AR   Ar  160   1.202   1.164   4.479
    1   AR   Ar  161   4.731   4.704   3.029
    1   AR   Ar  162   4.031   5.917  -0.269
    1   AR   Ar  163   6.382   4.243   2.445
    1   AR   Ar  164   2.100   5.925   2.277
    1   AR   Ar  165   3.280   4.089   1.351
    1   AR   Ar  166   3.117   3.405   5.211
    1   AR   Ar  167   6.182   6.941   3.556
    1   AR   Ar  168   6.062   4.675  -2.434
    1   AR   Ar  169   3.845   3.713   3.332
    1   AR   Ar  170   2.609   2.997   6.023
    1   AR   Ar  171   5.111   5.696   4.494
    1   AR   Ar  172   4.117   3.492   4.479
    1   AR   Ar  173   2.753   2.062   6.420
    1   AR   Ar  174   3.086   6.277   4.464
    1   AR   Ar  175   2.871   0.354   6.262
    1   AR   Ar  176   3.113   2.653   4.109
    1   AR   Ar  177   0.058   4.171  -0.610
    1   AR   Ar  178   2.504   6.061   0.142
    1   AR   Ar  179   3.412   6.632   0.881
    1   AR   Ar  180   4.949   0.641  -8.134
    1   AR   Ar  181   7.072   6.448   1.872
    1   AR   Ar  182   1.294   6.297   2.777
    1   AR   Ar  183   4.580   5.463   1.666
    1   AR   Ar  184   4.545   5.305   0.640
    1   AR   Ar  185   2.966   4.432   4.565
    1   AR   Ar  186   3.029   6.821   2.927
    1   AR   Ar  187   4.172   6.226   3.969
    1   AR   Ar  188   3.240   0.837   1.552
    1   AR   Ar  189   5.909   2.289   5.394
    1   AR   Ar  190   1.250   6.994   3.934
    1   AR   Ar  191   3.860   6.657   6.684
    1   AR   Ar  192   4.105   3.217   5.509
    1   AR   Ar  193   2.921   6.294   1.813
    1   AR   Ar  194   4.954   6.150  -1.254
    1   AR   Ar  195   6.259   0.856   0.966
    1   AR   Ar  196   3.637   0.609   0.604
    1   AR   Ar  197   4.653   3.123   0.590
    1   AR   Ar  198   6.155   6.699   1.259
    1   AR   Ar  199   0.829   0.182   2.727
    1   AR   Ar  200   6.219   2.729  -0.349
    1   AR   Ar  201   6.369   5.869   2.465
    1   AR   Ar  202   5.445   0.621   4.047
    1   AR   Ar  203   0.204   6.722   3.497
    1   AR   Ar  204   4.275   4.406   7.279
    1   AR   Ar  205   5.575   1.757   1.814
    1   AR   Ar  206   6.320   0.071   6.431
    1   AR   Ar  207   6.998   3.273   4.501
    1   AR   Ar  208   0.900   5.980   3.860
    1   AR   Ar  209   7.022   2.123  -1.866
    1   AR   Ar  210   1.747   0.947  -0.125
    1   AR   Ar  211   6.831   2.960   0.557
    1   AR   Ar  212   6.329   3.794  -0.008
    1   AR   Ar  213   3.527   2.077   1.257
    1   AR   Ar  214   5.193   4.634   2.053
    1   AR   Ar  215   0.197   2.756   1.494
    1   AR   Ar  216   1.984   2.365   0.208
    1   AR   Ar  217   5.494   1.645   4.002
    1   AR   Ar  218   4.922   2.852   5.025
    1   AR   Ar  219   4.469   3.618   2.481
    1   AR   Ar  220   4.493   4.078   1.493
    1   AR   Ar  221   6.621   5.702   4.104
    1   AR   Ar  222   5.103   0.020   5.663
    1   AR   Ar  223   6.680   1.670   5.714
    1   AR   Ar  224   5.153   1.756   4.997
    1   AR   Ar  225   6.871   2.672   2.552
    1   AR   Ar  226   2.187   3.370   4.097
    1   AR   Ar  227   0.813   2.759   3.039
    1   AR   Ar  228   6.144   0.710   2.022
    1   AR   Ar  229   5.959   4.744  -0.940
    1   AR   Ar  230   3.836   4.661   3.800
    1   AR   Ar  231   4.610   1.951   2.589
    1   AR   Ar  232   5.085   2.799   1.865
    1   AR   Ar  233   6.624   1.958   3.757
    1   AR   Ar  234   6.105   2.670   4.390
    1   AR   Ar  235   6.408   0.805   3.872
    1   AR   Ar  236   4.003   4.589   5.357
    1   AR   Ar  237   4.655   0.258   7.521
    1   AR   Ar  238   5.061   5.045   6.512
    1   AR   Ar  239   1.015   4.530  11.352
    1   AR   Ar  240   1.987   3.034   7.132
    1   AR   Ar  241   1.599   7.097   0.412
    1   AR   Ar  242   5.671   5.518   1.222
    1   AR   Ar  243   4.686   6.674   2.189
    1   AR   Ar  244   6.521   6.336   0.300
    1   AR   Ar  245   3.635   0.958   3.462
    1   AR   Ar  246   5.828   0.321  -1.132
    1   AR   Ar  247   0.019   3.795   1.516
    1   AR   Ar  248   5.603   5.364   0.094
    1   AR   Ar  249   4.118   0.031   1.381
    1   AR   Ar  250   5.080   6.639   3.524
    1   AR   Ar  251   4.702   4.328   4.384
    1   AR   Ar  252   2.774   4.818   1.858
    1   AR   Ar  253   5.007   2.439   7.990
    1   AR   Ar  254   5.050   3.262  11.761
    1   AR   Ar  255   4.336   6.615   9.012
    1   AR   Ar  256   5.726   5.726   3.551
    7.12000  7.12000 12.00000
Argon-slab step 5195
  256
    1   AR   Ar    1   4.168   3.521  -3.103
    1   AR   Ar    2   5.414   6.360   0.612
    1   AR   Ar    3   3.765   3.550  -1.236
    1   AR   Ar    4   2.662   1.139   0.805
    1   AR   Ar    5   6.932   5.254  -0.412
    1   AR   Ar    6   1.001   1.540   2.394
    1   AR   Ar    7   5.734   4.673   3.375
    1   AR   Ar    8   6.526   3.446  -1.131
    1   AR   Ar    9   6.834   6.691   4.614
    1   AR   Ar   10   5.959   5.198   5.339
    1   AR   Ar   11   1.189   6.694   5.012
    1   AR   Ar   12   0.235   1.349   4.141
    1   AR   Ar   13   6.848   0.571   4.988
    1   AR   Ar   14   3.979   0.670   6.773
    1   AR   Ar   15   2.604   6.603   9.580
    1   AR   Ar   16   0.765   0.156   6.005
    1   AR   Ar   17   6.136   3.914   1.290
    1   AR   Ar   18   7.102   4.756  -1.614
    1   AR   Ar   19   5.393   4.559   0.862
    1   AR   Ar   20   6.690   3.773  -2.451
    1   AR   Ar   21   2.339   1.634   1.984
    1   AR   Ar   22   4.852   0.935   1.816
    1   AR   Ar   23   1.004   6.252   0.812
    1   AR   Ar   24   5.585   2.605   3.234
    1   AR   Ar   25   1.067   3.051   5.037
    1   AR   Ar   26   5.862   6.289   4.442
    1   AR   Ar   27   1.472   0.634   1.743
    1   AR   Ar   28   1.723   2.242   3.907
    1   AR   Ar   29   4.960   1.153   8.005
    1   AR   Ar   30   0.082   1.138   2.916
    1   AR   Ar   31   1.886   0.276   6.761
    1   AR   Ar   32   1.331   2.047   5.338
    1   AR   Ar   33   0.052   4.534   0.332
    1   AR   Ar   34   1.482   5.084   2.493
    1   AR   Ar   35   5.402   5.546   2.420
    1   AR   Ar   36   4.866   2.672  -3.265
    1   AR   Ar   37   3.984   3.037   1.747
    1   AR   Ar   38   6.054   4.807   4.292
    1   AR   Ar   39   0.787   2.513   4.089
    1   AR   Ar   40   0.884   3.883   2.262
    1   AR   Ar   41   0.789   1.779   3.365
    1   AR   Ar   42   5.049   5.574   5.510
    1   AR   Ar   43   0.273   3.121   5.692
    1   AR   Ar   44   0.313   3.917   3.236
    1   AR   Ar   45   2.086   3.441   5.241
    1   AR   Ar   46   6.405   4.825   6.681
    1   AR   Ar   47   3.185   3.927   7.520
    1   AR   Ar   48   0.083   3.604   7.219
    1   AR   Ar   49   0.510   0.957   0.792
    1   AR   Ar   50   3.576   4.666   0.313
    1   AR   Ar   51   5.632   3.573   2.691
    1   AR   Ar   52   5.372   3.475  -1.206
    1   AR   Ar   53   4.522   0.472   3.274
    1   AR   Ar   54   6.733   7.103   2.686
    1   AR   Ar   55   0.098   4.771   2.322
    1   AR   Ar   56   6.036   1.725   2.889
    1   AR   Ar   57   3.939   4.764   2.269
    1   AR   Ar   58   0.952   3.441   3.991
    1   AR   Ar   59   2.914   5.545   5.473
    1   AR   Ar   60   0.138   5.702   3.073
    1   AR   Ar   61   6.834   4.111   5.932
    1   AR   Ar   62   0.187   4.239   5.013
    1   AR   Ar   63   3.105   2.742   7.839
    1   AR   Ar   64   0.363   5.395   4.658
    1   AR   Ar   65   3.947   1.037   2.305
    1   AR   Ar   66   1.634   1.471   0.820
    1   AR   Ar   67   4.942   0.163  -0.735
    1   AR   Ar   68   0.097   1.540  -0.505
    1   AR   Ar   69   2.617   1.620  -0.100
    1   AR   Ar   70   7.054   1.314   1.661
    1   AR   Ar   71   2.966   0.707   2.637
    1   AR   Ar   72   4.115   1.251   1.244
    1   AR   Ar   73   3.204   0.027   3.882
    1   AR   Ar   74   1.284   0.918   3.454
    1   AR   Ar   75   3.045   0.633   4.937
    1   AR   Ar   76   2.387   0.298   1.315
    1   AR   Ar   77   1.812   5.816   5.419
    1   AR   Ar   78   7.051   5.264   5.956
    1   AR   Ar   79   3.093   6.582   5.786
    1   AR   Ar   80   3.962   5.784   5.616
    1   AR   Ar   81   1.998   6.513   1.348
    1   AR   Ar   82   6.764   5.374   1.494
    1   AR   Ar   83   1.414   3.502   1.066
    1   AR   Ar   84   0.959   4.625   1.253
    1   AR   Ar   85   0.653   3.166  -0.245
    1   AR   Ar   86   1.853   5.263   1.374
    1   AR   Ar   87   3.306   3.050   2.545
    1   AR   Ar   88   3.530   5.476   1.148
    1   AR   Ar   89   6.274   2.276   1.342
    1   AR   Ar   90   3.219   1.318   5.839
    1   AR   Ar   91   1.975   1.101   2.855
    1   AR   Ar   92   2.595   2.262   1.108
    1   AR   Ar   93   1.973   0.857   5.411
    1   AR   Ar   94   0.615   6.989   8.271
    1   AR   Ar   95   4.467   1.105   5.523
    1   AR   Ar   96   2.275   6.706   5.070
    1   AR   Ar   97   3.207   2.051  -1.123
    1   AR   Ar   98   1.804   4.503   4.348
    1   AR   Ar   99   6.216   0.149   0.039
    1   AR   Ar  100   6.223   2.643  -2.240
    1   AR   Ar  101   3.814   6.362   2.622
    1   AR   Ar  102   3.400   1.906   2.258
    1   AR   Ar  103   2.066   4.216   0.752
    1   AR   Ar  104   3.171   0.140  -1.352
    1   AR   Ar  105   2.556   2.051   3.007
    1   AR   Ar  106   4.135   1.827   4.331
    1   AR   Ar  107   1.156   4.939   5.463
    1   AR   Ar  108   2.258   0.611   3.956
    1   AR   Ar  109   2.139   4.593   5.347
    1   AR   Ar  110   2.328   2.370   4.941
    1   AR   Ar  111   3.312   4.949   7.386
    1   AR   Ar  112   6.070   6.436   5.488
    1   AR   Ar  113   0.920   5.767  -1.501
    1   AR   Ar  114   2.775   0.158  -0.073
    1   AR   Ar  115   0.501   5.524   0.258
    1   AR   Ar  116   5.179   0.371   0.593
    1   AR   Ar  117   0.017   4.873   3.821
    1   AR   Ar  118   2.216   6.289   3.291
    1   AR   Ar  119   1.572   4.062   3.383
    1   AR   Ar  120   2.179   0.070   2.415
    1   AR   Ar  121   5.116   4.254   5.782
    1   AR   Ar  122   2.755   5.270   3.790
    1   AR   Ar  123   3.334   2.359   5.181
    1   AR   Ar  124   0.693   5.630   1.891
    1   AR   Ar  125   5.873   3.661   3.839
    1   AR   Ar  126   6.749   0.400   7.319
    1   AR   Ar  127   5.003   3.136   6.026
    1   AR   Ar  128   0.919   3.752   6.555
    1   AR   Ar  129   1.892   5.676   4.334
    1   AR   Ar  130   3.904   0.780  -4.726
    1   AR   Ar  131   4.128   6.901  -1.275
    1   AR   Ar  132   1.090   2.376   0.886
    1   AR   Ar  133   3.984   0.394   4.458
    1   AR   Ar  134   2.674   1.657   4.011
    1   AR   Ar  135   5.832   0.446   4.978
    1   AR   Ar  136   5.705   6.671   2.636
    1   AR   Ar  137   2.586   4.186   6.200
    1   AR   Ar  138   5.647   1.092   6.101
    1   AR   Ar  139   6.222   1.463   4.743
    1   AR   Ar  140   4.231   6.528   4.960
    1   AR   Ar  141   3.702   5.338   4.530
    1   AR   Ar  142   4.911   6.417   8.112
    1   AR   Ar  143   5.305   6.815   6.762
    1   AR   Ar  144   0.268   2.231   4.959
    1   AR   Ar  145   4.628   4.888  -0.843
    1   AR   Ar  146   3.773   2.312   3.278
    1   AR   Ar  147   5.297   4.198  -0.289
    1   AR   Ar  148   3.165   5.913  -1.086
    1   AR   Ar  149   0.171   2.551  -0.870
    1   AR   Ar  150   1.701   2.498   2.227
    1   AR   Ar  151   2.364   3.343   2.994
    1   AR   Ar  152   0.766   1.170  -1.716
    1   AR   Ar  153   5.417   0.885   3.038
    1   AR   Ar  154   4.449   2.967   3.731
    1   AR   Ar  155   6.043   3.748   5.491
    1   AR   Ar  156   2.976   4.315   3.028
    1   AR   Ar  157   3.139   5.751   6.686
    1   AR   Ar  158   0.658   2.583   6.714
    1   AR   Ar  159   4.088   0.203   5.879
    1   AR   Ar  160   1.211   1.165   4.476
    1   AR   Ar  161   4.733   4.688   3.019
    1   AR   Ar  162   4.046   5.945  -0.262
    1   AR   Ar  163   6.369   4.203   2.432
    1   AR   Ar  164   2.097   5.943   2.285
    1   AR   Ar  165   3.253   4.068   1.340
    1   AR   Ar  166   3.137   3.393   5.203
    1   AR   Ar  167   6.183   6.933   3.573
    1   AR   Ar  168   6.090   4.673  -2.419
    1   AR   Ar  169   3.872   3.699   3.349
    1   AR   Ar  170   2.640   2.986   6.052
    1   AR   Ar  171   5.095   5.701   4.478
    1   AR   Ar  172   4.118   3.465   4.524
    1   AR   Ar  173   2.760   2.061   6.420
    1   AR   Ar  174   3.069   6.246   4.485
    1   AR   Ar  175   2.859   0.347   6.289
    1   AR   Ar  176   3.117   2.673   4.102
    1   AR   Ar  177   0.048   4.148  -0.640
    1   AR   Ar  178   2.466   6.073   0.171
    1   AR   Ar  179   3.397   6.612   0.892
    1   AR   Ar  180   4.945   0.617  -8.102
    1   AR   Ar  181   7.061   6.449   1.867
    1   AR   Ar  182   1.301   6.336   2.748
    1   AR   Ar  183   4.594   5.448   1.655
    1   AR   Ar  184   4.507   5.293   0.612
    1   AR   Ar  185   2.976   4.435   4.595
    1   AR   Ar  186   3.023   6.842   2.901
    1   AR   Ar  187   4.203   6.265   4.007
    1   AR   Ar  188   3.231   0.854   1.548
    1   AR   Ar  189   5.921   2.295   5.380
    1   AR   Ar  190   1.249   7.018   3.932
    1   AR   Ar  191   3.862   6.658   6.669
    1   AR   Ar  192   4.098   3.187   5.527
    1   AR   Ar  193   2.924   6.296   1.817
    1   AR   Ar  194   4.950   6.160  -1.235
    1   AR   Ar  195   6.256   0.831   0.928
    1   AR   Ar  196   3.636   0.588   0.612
    1   AR   Ar  197   4.668   3.126   0.612
    1   AR   Ar  198   6.158   6.675   1.242
    1   AR   Ar  199   0.829   0.197   2.746
    1   AR   Ar  200   6.241   2.749  -0.364
    1   AR   Ar  201   6.352   5.881   2.478
    1   AR   Ar  202   5.465   0.598   4.065
    1   AR   Ar  203   0.217   6.761   3.473
    1   AR   Ar  204   4.258   4.415   7.300
    1   AR   Ar  205   5.590   1.745   1.798
    1   AR   Ar  206   6.313   0.091   6.430
    1   AR   Ar  207   6.979   3.268   4.493
    1   AR   Ar  208   0.901   5.973   3.876
    1   AR   Ar  209   7.000   2.138  -1.867
    1   AR   Ar  210   1.771   0.943  -0.139
    1   AR   Ar  211   6.812   2.961   0.561
    1   AR   Ar  212   6.325   3.799  -0.035
    1   AR   Ar  213   3.587   2.079   1.282
    1   AR   Ar  214   5.196   4.635   2.055
    1   AR   Ar  215   0.228   2.719   1.482
    1   AR   Ar  216   1.960   2.365   0.214
    1   AR   Ar  217   5.494   1.653   3.999
    1   AR   Ar  218   4.915   2.827   5.044
    1   AR   Ar  219   4.469   3.599   2.481
    1   AR   Ar  220   4.484   4.051   1.486
    1   AR   Ar  221   6.645   5.678   4.097
    1   AR   Ar  222   5.100   0.004   5.668
    1   AR   Ar  223   6.687   1.683   5.728
    1   AR   Ar  224   5.169   1.748   5.009
    1   AR   Ar  225   6.862   2.647   2.551
    1   AR   Ar  226   2.184   3.416   4.095
    1   AR   Ar  227   0.797   2.755   3.030
    1   AR   Ar  228   6.170   0.718   1.994
    1   AR   Ar  229   5.993   4.729  -0.946
    1   AR   Ar  230   3.831   4.647   3.805
    1   AR   Ar  231   4.606   1.946   2.587
    1   AR   Ar  232   5.091   2.780   1.847
    1   AR   Ar  233   6.648   1.962   3.763
    1   AR   Ar  234   6.146   2.712   4.428
    1   AR   Ar  235   6.405   0.792   3.880
    1   AR   Ar  236   4.001   4.578   5.365
    1   AR   Ar  237   4.657   0.283   7.572
    1   AR   Ar  238   5.048   5.038   6.515
    1   AR   Ar  239   1.023   4.520  11.348
    1   AR   Ar  240   1.987   3.054   7.140
    1   AR   Ar  241   1.596   0.004   0.438
    1   AR   Ar  242   5.686   5.544   1.266
    1   AR   Ar  243   4.692   6.661   2.171
    1   AR   Ar  244   6.529   6.307   0.265
    1   AR   Ar  245   3.627   0.966   3.487
    1   AR   Ar  246   5.848   0.349  -1.140
    1   AR   Ar  247   0.004   3.813   1.563
    1   AR   Ar  248   5.632   5.364   0.058
    1   AR   Ar  249   4.103   0.039   1.375
    1   AR   Ar  250   5.079   6.644   3.509
    1   AR   Ar  251   4.710   4.319   4.347
    1   AR   Ar  252   2.802   4.838   1.843
    1   AR   Ar  253   4.971   2.449   8.028
    1   AR   Ar  254   5.024   3.264  11.802
    1   AR   Ar  255   4.344   6.644   9.020
    1   AR   Ar  256   5.727   5.737   3.573
    7.12000  7.12000 12.00000
Argon-slab step 5200
  256
    1   AR   Ar    1   4.169   3.512  -3.130
    1   AR   Ar    2   5.426   6.382   0.608
    1   AR   Ar    3   3.767   3.562  -1.227
    1   AR   Ar    4   2.695   1.117   0.783
    1   AR   Ar    5   6.911   5.279  -0.409
    1   AR   Ar    6   0.975   1.514   2.411
    1   AR   Ar    7   5.709   4.667   3.367
    1   AR   Ar    8   6.535   3.453  -1.128
    1   AR   Ar    9   6.818   6.719   4.650
    1   AR   Ar   10   5.984   5.163   5.351
    1   AR   Ar   11   1.196   6.697   5.006
    1   AR   Ar   12   0.224   1.351   4.165
    1   AR   Ar   13   6.842   0.573   5.018
    1   AR   Ar   14   3.960   0.650   6.792
    1   AR   Ar   15   2.615   6.609   9.573
    1   AR   Ar   16   0.745   0.143   5.980
    1   AR   Ar   17   6.142   3.920   1.311
    1   AR   Ar   18   7.085   4.733  -1.587
    1   AR   Ar   19   5.424   4.542   0.851
    1   AR   Ar   20   6.690   3.763  -2.491
    1   AR   Ar   21   2.336   1.621   1.955
    1   AR   Ar   22   4.884   0.961   1.784
    1   AR   Ar   23   0.998   6.241   0.812
    1   AR   Ar   24   5.610   2.632   3.226
    1   AR   Ar   25   1.089   3.058   5.083
    1   AR   Ar   26   5.882   6.272   4.417
    1   AR   Ar   27   1.466   0.629   1.743
    1   AR   Ar   28   1.776   2.305   3.877
    1   AR   Ar   29   4.948   1.150   7.988
    1   AR   Ar   30   0.074   1.163   2.920
    1   AR   Ar   31   1.884   0.297   6.725
    1   AR   Ar   32   1.336   2.063   5.328
    1   AR   Ar   33   0.062   4.563   0.333
    1   AR   Ar   34   1.505   5.082   2.504
    1   AR   Ar   35   5.405   5.551   2.432
    1   AR   Ar   36   4.840   2.681  -3.256
    1   AR   Ar   37   4.018   3.050   1.779
    1   AR   Ar   38   6.029   4.825   4.295
    1   AR   Ar   39   0.737   2.520   4.108
    1   AR   Ar   40   0.877   3.889   2.256
    1   AR   Ar   41   0.751   1.768   3.380
    1   AR   Ar   42   5.013   5.551   5.534
    1   AR   Ar   43   0.269   3.151   5.741
    1   AR   Ar   44   0.283   3.912   3.221
    1   AR   Ar   45   2.085   3.452   5.223
    1   AR   Ar   46   6.405   4.836   6.657
    1   AR   Ar   47   3.187   3.907   7.504
    1   AR   Ar   48   0.053   3.583   7.229
    1   AR   Ar   49   0.483   0.914   0.792
    1   AR   Ar   50   3.523   4.667   0.290
    1   AR   Ar   51   5.636   3.585   2.688
    1   AR   Ar   52   5.354   3.485  -1.227
    1   AR   Ar   53   4.498   0.453   3.279
    1   AR   Ar   54   6.724   0.004   2.708
    1   AR   Ar   55   0.104   4.793   2.336
    1   AR   Ar   56   6.008   1.751   2.882
    1   AR   Ar   57   3.921   4.778   2.293
    1   AR   Ar   58   0.981   3.437   3.976
    1   AR   Ar   59   2.884   5.580   5.467
    1   AR   Ar   60   0.149   5.711   3.084
    1   AR   Ar   61   6.850   4.162   5.926
    1   AR   Ar   62   0.167   4.261   5.032
    1   AR   Ar   63   3.065   2.787   7.872
    1   AR   Ar   64   0.346   5.376   4.657
    1   AR   Ar   65   3.955   1.042   2.332
    1   AR   Ar   66   1.606   1.462   0.778
    1   AR   Ar   67   4.946   0.175  -0.753
    1   AR   Ar   68   0.084   1.519  -0.493
    1   AR   Ar   69   2.637   1.641  -0.099
    1   AR   Ar   70   7.042   1.283   1.667
    1   AR   Ar   71   2.926   0.707   2.592
    1   AR   Ar   72   4.136   1.231   1.267
    1   AR   Ar   73   3.183   0.039   3.879
    1   AR   Ar   74   1.273   0.953   3.453
    1   AR   Ar   75   3.043   0.608   4.971
    1   AR   Ar   76   2.396   0.309   1.279
    1   AR   Ar   77   1.831   5.819   5.406
    1   AR   Ar   78   7.080   5.253   5.935
    1   AR   Ar   79   3.097   6.595   5.753
    1   AR   Ar   80   3.990   5.765   5.586
    1   AR   Ar   81   1.987   6.496   1.363
    1   AR   Ar   82   6.764   5.385   1.498
    1   AR   Ar   83   1.386   3.506   1.059
    1   AR   Ar   84   1.000   4.619   1.247
    1   AR   Ar   85   0.626   3.154  -0.257
    1   AR   Ar   86   1.853   5.285   1.422
    1   AR   Ar   87   3.292   3.068   2.543
    1   AR   Ar   88   3.539   5.473   1.147
    1   AR   Ar   89   6.292   2.272   1.327
    1   AR   Ar   90   3.215   1.324   5.833
    1   AR   Ar   91   1.993   1.121   2.855
    1   AR   Ar   92   2.609   2.263   1.096
    1   AR   Ar   93   1.967   0.854   5.407
    1   AR   Ar   94   0.590   6.965   8.243
    1   AR   Ar   95   4.492   1.101   5.530
    1   AR   Ar   96   2.278   6.689   5.060
    1   AR   Ar   97   3.234   2.042  -1.142
    1   AR   Ar   98   1.798   4.511   4.331
    1   AR   Ar   99   6.225   0.106   0.067
    1   AR   Ar  100   6.202   2.655  -2.229
    1   AR   Ar  101   3.804   6.338   2.643
    1   AR   Ar  102   3.408   1.916   2.241
    1   AR   Ar  103   2.091   4.193   0.782
    1   AR   Ar  104   3.157   0.149  -1.375
    1   AR   Ar  105   2.576   2.065   2.982
    1   AR   Ar  106   4.121   1.801   4.297
    1   AR   Ar  107   1.109   4.940   5.461
    1   AR   Ar  108   2.246   0.605   3.943
    1   AR   Ar  109   2.121   4.608   5.342
    1   AR   Ar  110   2.338   2.339   4.970
    1   AR   Ar  111   3.302   4.961   7.356
    1   AR   Ar  112   6.061   6.451   5.491
    1   AR   Ar  113   0.885   5.768  -1.490
    1   AR   Ar  114   2.766   0.151  -0.064
    1   AR   Ar  115   0.503   5.544   0.245
    1   AR   Ar  116   5.207   0.375   0.567
    1   AR   Ar  117   0.001   4.870   3.809
    1   AR   Ar  118   2.196   6.306   3.288
    1   AR   Ar  119   1.594   4.061   3.405
    1   AR   Ar  120   2.144   0.069   2.411
    1   AR   Ar  121   5.131   4.256   5.783
    1   AR   Ar  122   2.762   5.272   3.765
    1   AR   Ar  123   3.345   2.334   5.182
    1   AR   Ar  124   0.728   5.665   1.895
    1   AR   Ar  125   5.880   3.618   3.849
    1   AR   Ar  126   6.776   0.366   7.328
    1   AR   Ar  127   5.018   3.111   6.016
    1   AR   Ar  128   0.912   3.738   6.551
    1   AR   Ar  129   1.888   5.687   4.299
    1   AR   Ar  130   3.878   0.796  -4.733
    1   AR   Ar  131   4.124   6.924  -1.232
    1   AR   Ar  132   1.092   2.360   0.871
    1   AR   Ar  133   3.975   0.364   4.464
    1   AR   Ar  134   2.676   1.657   3.978
    1   AR   Ar  135   5.880   0.426   4.983
    1   AR   Ar  136   5.708   6.662   2.609
    1   AR   Ar  137   2.578   4.194   6.179
    1   AR   Ar  138   5.610   1.079   6.117
    1   AR   Ar  139   6.188   1.448   4.755
    1   AR   Ar  140   4.219   6.517   4.957
    1   AR   Ar  141   3.699   5.366   4.536
    1   AR   Ar  142   4.935   6.393   8.123
    1   AR   Ar  143   5.328   6.817   6.751
    1   AR   Ar  144   0.275   2.239   4.943
    1   AR   Ar  145   4.648   4.890  -0.864
    1   AR   Ar  146   3.771   2.307   3.271
    1   AR   Ar  147   5.295   4.168  -0.308
    1   AR   Ar  148   3.158   5.919  -1.066
    1   AR   Ar  149   0.185   2.510  -0.850
    1   AR   Ar  150   1.677   2.492   2.184
    1   AR   Ar  151   2.373   3.362   3.013
    1   AR   Ar  152   0.785   1.166  -1.705
    1   AR   Ar  153   5.411   0.888   3.093
    1   AR   Ar  154   4.450   2.935   3.721
    1   AR   Ar  155   6.019   3.718   5.478
    1   AR   Ar  156   3.011   4.290   3.014
    1   AR   Ar  157   3.105   5.781   6.668
    1   AR   Ar  158   0.639   2.599   6.735
    1   AR   Ar  159   4.044   0.222   5.899
    1   AR   Ar  160   1.223   1.167   4.476
    1   AR   Ar  161   4.732   4.670   3.011
    1   AR   Ar  162   4.055   5.941  -0.270
    1   AR   Ar  163   6.357   4.165   2.416
    1   AR   Ar  164   2.096   5.956   2.291
    1   AR   Ar  165   3.229   4.044   1.326
    1   AR   Ar  166   3.155   3.385   5.189
    1   AR   Ar  167   6.182   6.921   3.593
    1   AR   Ar  168   6.117   4.672  -2.403
    1   AR   Ar  169   3.892   3.688   3.365
    1   AR   Ar  170   2.670   2.983   6.079
    1   AR   Ar  171   5.065   5.696   4.460
    1   AR   Ar  172   4.112   3.442   4.574
    1   AR   Ar  173   2.767   2.054   6.424
    1   AR   Ar  174   3.053   6.214   4.507
    1   AR   Ar  175   2.849   0.343   6.316
    1   AR   Ar  176   3.121   2.696   4.095
    1   AR   Ar  177   0.039   4.125  -0.673
    1   AR   Ar  178   2.428   6.088   0.201
    1   AR   Ar  179   3.377   6.588   0.898
    1   AR   Ar  180   4.941   0.593  -8.069
    1   AR   Ar  181   7.051   6.450   1.860
    1   AR   Ar  182   1.299   6.377   2.723
    1   AR   Ar  183   4.608   5.435   1.645
    1   AR   Ar  184   4.471   5.281   0.580
    1   AR   Ar  185   2.987   4.438   4.626
    1   AR   Ar  186   3.039   6.850   2.924
    1   AR   Ar  187   4.232   6.300   4.035
    1   AR   Ar  188   3.225   0.868   1.560
    1   AR   Ar  189   5.936   2.310   5.370
    1   AR   Ar  190   1.249   7.044   3.929
    1   AR   Ar  191   3.862   6.657   6.656
    1   AR   Ar  192   4.057   3.181   5.557
    1   AR   Ar  193   2.936   6.300   1.820
    1   AR   Ar  194   4.946   6.169  -1.214
    1   AR   Ar  195   6.253   0.805   0.889
    1   AR   Ar  196   3.630   0.565   0.612
    1   AR   Ar  197   4.684   3.130   0.636
    1   AR   Ar  198   6.151   6.666   1.234
    1   AR   Ar  199   0.829   0.214   2.764
    1   AR   Ar  200   6.263   2.767  -0.379
    1   AR   Ar  201   6.345   5.891   2.492
    1   AR   Ar  202   5.468   0.570   4.078
    1   AR   Ar  203   0.230   6.798   3.453
    1   AR   Ar  204   4.241   4.424   7.320
    1   AR   Ar  205   5.587   1.737   1.783
    1   AR   Ar  206   6.304   0.109   6.423
    1   AR   Ar  207   6.969   3.268   4.485
    1   AR   Ar  208   0.902   5.965   3.890
    1   AR   Ar  209   6.985   2.148  -1.864
    1   AR   Ar  210   1.795   0.938  -0.153
    1   AR   Ar  211   6.786   2.953   0.561
    1   AR   Ar  212   6.320   3.805  -0.063
    1   AR   Ar  213   3.647   2.091   1.302
    1   AR   Ar  214   5.201   4.626   2.053
    1   AR   Ar  215   0.259   2.681   1.472
    1   AR   Ar  216   1.934   2.368   0.221
    1   AR   Ar  217   5.495   1.665   3.990
    1   AR   Ar  218   4.915   2.798   5.054
    1   AR   Ar  219   4.473   3.583   2.483
    1   AR   Ar  220   4.474   4.025   1.478
    1   AR   Ar  221   6.665   5.667   4.090
    1   AR   Ar  222   5.101   7.107   5.672
    1   AR   Ar  223   6.698   1.693   5.743
    1   AR   Ar  224   5.177   1.735   5.019
    1   AR   Ar  225   6.849   2.615   2.544
    1   AR   Ar  226   2.180   3.462   4.094
    1   AR   Ar  227   0.781   2.758   3.019
    1   AR   Ar  228   6.194   0.727   1.969
    1   AR   Ar  229   6.034   4.711  -0.952
    1   AR   Ar  230   3.825   4.630   3.804
    1   AR   Ar  231   4.602   1.941   2.585
    1   AR   Ar  232   5.096   2.761   1.830
    1   AR   Ar  233   6.667   1.969   3.766
    1   AR   Ar  234   6.178   2.747   4.464
    1   AR   Ar  235   6.416   0.786   3.886
    1   AR   Ar  236   3.998   4.567   5.371
    1   AR   Ar  237   4.658   0.301   7.619
    1   AR   Ar  238   5.035   5.031   6.519
    1   AR   Ar  239   1.031   4.511  11.343
    1   AR   Ar  240   1.970   3.091   7.104
    1   AR   Ar  241   1.595   0.032   0.466
    1   AR   Ar  242   5.702   5.571   1.312
    1   AR   Ar  243   4.703   6.650   2.151
    1   AR   Ar  244   6.538   6.271   0.232
    1   AR   Ar  245   3.604   0.993   3.502
    1   AR   Ar  246   5.876   0.379  -1.150
    1   AR   Ar  247   7.115   3.833   1.612
    1   AR   Ar  248   5.661   5.363   0.023
    1   AR   Ar  249   4.096   0.029   1.388
    1   AR   Ar  250   5.104   6.688   3.511
    1   AR   Ar  251   4.721   4.314   4.309
    1   AR   Ar  252   2.814   4.860   1.857
    1   AR   Ar  253   4.936   2.458   8.065
    1   AR   Ar  254   4.998   3.266  11.843
    1   AR   Ar  255   4.352   6.673   9.029
    1   AR   Ar  256   5.699   5.734   3.556
    7.12000  7.12000 12.00000
Argon-slab step 5205
  256
    1   AR   Ar    1   4.163   3.486  -3.111
    1   AR   Ar    2   5.432   6.402   0.597
    1   AR   Ar    3   3.770   3.574  -1.219
    1   AR   Ar    4   2.722   1.104   0.749
    1   AR   Ar    5   6.881   5.302  -0.414
    1   AR   Ar    6   0.953   1.487   2.423
    1   AR   Ar    7   5.685   4.657   3.350
    1   AR   Ar    8   6.531   3.452  -1.127
    1   AR   Ar    9   6.804   6.744   4.683
    1   AR   Ar   10   6.013   5.127   5.364
    1   AR   Ar   11   1.202   6.698   5.000
    1   AR   Ar   12   0.214   1.345   4.196
    1   AR   Ar   13   6.849   0.572   5.039
    1   AR   Ar   14   3.940   0.635   6.819
    1   AR   Ar   15   2.614   6.604   9.574
    1   AR   Ar   16   0.725   0.129   5.954
    1   AR   Ar   17   6.144   3.925   1.331
    1   AR   Ar   18   7.065   4.709  -1.560
    1   AR   Ar   19   5.452   4.529   0.840
    1   AR   Ar   20   6.690   3.751  -2.529
    1   AR   Ar   21   2.334   1.605   1.924
    1   AR   Ar   22   4.933   0.976   1.764
    1   AR   Ar   23   0.995   6.233   0.817
    1   AR   Ar   24   5.633   2.663   3.221
    1   AR   Ar   25   1.110   3.066   5.124
    1   AR   Ar   26   5.905   6.264   4.397
    1   AR   Ar   27   1.458   0.627   1.744
    1   AR   Ar   28   1.830   2.368   3.846
    1   AR   Ar   29   4.940   1.160   7.977
    1   AR   Ar   30   0.059   1.183   2.922
    1   AR   Ar   31   1.878   0.317   6.690
    1   AR   Ar   32   1.330   2.076   5.337
    1   AR   Ar   33   0.071   4.588   0.338
    1   AR   Ar   34   1.527   5.079   2.514
    1   AR   Ar   35   5.400   5.558   2.447
    1   AR   Ar   36   4.816   2.688  -3.247
    1   AR   Ar   37   4.035   3.062   1.787
    1   AR   Ar   38   6.005   4.843   4.307
    1   AR   Ar   39   0.684   2.513   4.124
    1   AR   Ar   40   0.871   3.897   2.250
    1   AR   Ar   41   0.711   1.772   3.399
    1   AR   Ar   42   4.978   5.529   5.559
    1   AR   Ar   43   0.262   3.181   5.790
    1   AR   Ar   44   0.254   3.908   3.205
    1   AR   Ar   45   2.084   3.464   5.206
    1   AR   Ar   46   6.395   4.839   6.638
    1   AR   Ar   47   3.183   3.880   7.491
    1   AR   Ar   48   0.022   3.561   7.238
    1   AR   Ar   49   0.458   0.872   0.792
    1   AR   Ar   50   3.470   4.668   0.269
    1   AR   Ar   51   5.626   3.588   2.689
    1   AR   Ar   52   5.361   3.487  -1.247
    1   AR   Ar   53   4.465   0.421   3.290
    1   AR   Ar   54   6.716   0.020   2.714
    1   AR   Ar   55   0.113   4.816   2.350
    1   AR   Ar   56   5.984   1.773   2.872
    1   AR   Ar   57   3.910   4.786   2.311
    1   AR   Ar   58   1.013   3.449   3.961
    1   AR   Ar   59   2.855   5.612   5.458
    1   AR   Ar   60   0.160   5.720   3.094
    1   AR   Ar   61   6.868   4.213   5.931
    1   AR   Ar   62   0.151   4.285   5.043
    1   AR   Ar   63   3.024   2.833   7.904
    1   AR   Ar   64   0.336   5.357   4.663
    1   AR   Ar   65   3.966   1.042   2.362
    1   AR   Ar   66   1.582   1.449   0.737
    1   AR   Ar   67   4.951   0.186  -0.765
    1   AR   Ar   68   0.071   1.496  -0.479
    1   AR   Ar   69   2.652   1.663  -0.101
    1   AR   Ar   70   7.033   1.256   1.674
    1   AR   Ar   71   2.892   0.715   2.547
    1   AR   Ar   72   4.150   1.211   1.276
    1   AR   Ar   73   3.160   0.049   3.881
    1   AR   Ar   74   1.252   0.971   3.464
    1   AR   Ar   75   3.039   0.582   5.006
    1   AR   Ar   76   2.403   0.315   1.246
    1   AR   Ar   77   1.847   5.819   5.394
    1   AR   Ar   78   7.110   5.241   5.909
    1   AR   Ar   79   3.105   6.607   5.721
    1   AR   Ar   80   4.011   5.741   5.562
    1   AR   Ar   81   1.970   6.476   1.375
    1   AR   Ar   82   6.766   5.396   1.502
    1   AR   Ar   83   1.347   3.507   1.045
    1   AR   Ar   84   1.039   4.611   1.241
    1   AR   Ar   85   0.622   3.173  -0.253
    1   AR   Ar   86   1.854   5.299   1.439
    1   AR   Ar   87   3.263   3.104   2.537
    1   AR   Ar   88   3.532   5.464   1.149
    1   AR   Ar   89   6.318   2.275   1.308
    1   AR   Ar   90   3.213   1.326   5.824
    1   AR   Ar   91   2.023   1.144   2.842
    1   AR   Ar   92   2.621   2.262   1.084
    1   AR   Ar   93   1.962   0.850   5.402
    1   AR   Ar   94   0.564   6.940   8.214
    1   AR   Ar   95   4.516   1.097   5.536
    1   AR   Ar   96   2.282   6.677   5.048
    1   AR   Ar   97   3.260   2.032  -1.159
    1   AR   Ar   98   1.808   4.502   4.312
    1   AR   Ar   99   6.231   0.067   0.093
    1   AR   Ar  100   6.175   2.674  -2.222
    1   AR   Ar  101   3.806   6.304   2.660
    1   AR   Ar  102   3.411   1.926   2.235
    1   AR   Ar  103   2.121   4.175   0.812
    1   AR   Ar  104   3.139   0.158  -1.397
    1   AR   Ar  105   2.597   2.080   2.957
    1   AR   Ar  106   4.107   1.775   4.263
    1   AR   Ar  107   1.060   4.942   5.459
    1   AR   Ar  108   2.235   0.596   3.931
    1   AR   Ar  109   2.104   4.624   5.335
    1   AR   Ar  110   2.325   2.322   4.976
    1   AR   Ar  111   3.291   4.975   7.327
    1   AR   Ar  112   6.059   6.437   5.516
    1   AR   Ar  113   0.849   5.767  -1.478
    1   AR   Ar  114   2.756   0.143  -0.052
    1   AR   Ar  115   0.509   5.563   0.236
    1   AR   Ar  116   5.235   0.380   0.541
    1   AR   Ar  117   7.111   4.849   3.789
    1   AR   Ar  118   2.200   6.343   3.309
    1   AR   Ar  119   1.612   4.060   3.415
    1   AR   Ar  120   2.124   0.054   2.426
    1   AR   Ar  121   5.153   4.273   5.789
    1   AR   Ar  122   2.771   5.274   3.741
    1   AR   Ar  123   3.362   2.306   5.184
    1   AR   Ar  124   0.765   5.698   1.900
    1   AR   Ar  125   5.887   3.576   3.859
    1   AR   Ar  126   6.805   0.332   7.341
    1   AR   Ar  127   5.037   3.090   6.012
    1   AR   Ar  128   0.905   3.720   6.546
    1   AR   Ar  129   1.884   5.699   4.265
    1   AR   Ar  130   3.851   0.812  -4.740
    1   AR   Ar  131   4.119   6.943  -1.190
    1   AR   Ar  132   1.117   2.344   0.861
    1   AR   Ar  133   3.963   0.342   4.446
    1   AR   Ar  134   2.680   1.657   3.946
    1   AR   Ar  135   5.916   0.400   4.994
    1   AR   Ar  136   5.708   6.659   2.582
    1   AR   Ar  137   2.573   4.199   6.160
    1   AR   Ar  138   5.591   1.082   6.124
    1   AR   Ar  139   6.160   1.434   4.767
    1   AR   Ar  140   4.209   6.517   4.972
    1   AR   Ar  141   3.697   5.395   4.546
    1   AR   Ar  142   4.958   6.370   8.133
    1   AR   Ar  143   5.349   6.820   6.740
    1   AR   Ar  144   0.277   2.246   4.937
    1   AR   Ar  145   4.669   4.894  -0.883
    1   AR   Ar  146   3.768   2.303   3.261
    1   AR   Ar  147   5.294   4.139  -0.326
    1   AR   Ar  148   3.153   5.927  -1.044
    1   AR   Ar  149   0.193   2.465  -0.838
    1   AR   Ar  150   1.653   2.486   2.143
    1   AR   Ar  151   2.380   3.380   3.029
    1   AR   Ar  152   0.804   1.162  -1.693
    1   AR   Ar  153   5.434   0.890   3.099
    1   AR   Ar  154   4.459   2.909   3.708
    1   AR   Ar  155   5.993   3.685   5.461
    1   AR   Ar  156   3.046   4.264   2.999
    1   AR   Ar  157   3.112   5.779   6.675
    1   AR   Ar  158   0.620   2.617   6.755
    1   AR   Ar  159   3.997   0.236   5.906
    1   AR   Ar  160   1.238   1.170   4.481
    1   AR   Ar  161   4.727   4.651   3.005
    1   AR   Ar  162   4.056   5.935  -0.296
    1   AR   Ar  163   6.357   4.138   2.395
    1   AR   Ar  164   2.100   5.963   2.294
    1   AR   Ar  165   3.208   4.017   1.311
    1   AR   Ar  166   3.165   3.384   5.169
    1   AR   Ar  167   6.181   6.906   3.614
    1   AR   Ar  168   6.145   4.672  -2.385
    1   AR   Ar  169   3.888   3.686   3.377
    1   AR   Ar  170   2.699   2.988   6.103
    1   AR   Ar  171   5.028   5.685   4.441
    1   AR   Ar  172   4.104   3.423   4.620
    1   AR   Ar  173   2.772   2.041   6.434
    1   AR   Ar  174   3.038   6.183   4.528
    1   AR   Ar  175   2.844   0.341   6.341
    1   AR   Ar  176   3.124   2.719   4.090
    1   AR   Ar  177   0.020   4.123  -0.664
    1   AR   Ar  178   2.391   6.104   0.234
    1   AR   Ar  179   3.353   6.564   0.899
    1   AR   Ar  180   4.937   0.569  -8.037
    1   AR   Ar  181   7.041   6.451   1.855
    1   AR   Ar  182   1.288   6.420   2.701
    1   AR   Ar  183   4.621   5.423   1.637
    1   AR   Ar  184   4.436   5.268   0.547
    1   AR   Ar  185   2.999   4.441   4.656
    1   AR   Ar  186   3.043   6.862   2.946
    1   AR   Ar  187   4.258   6.331   4.040
    1   AR   Ar  188   3.223   0.879   1.586
    1   AR   Ar  189   5.952   2.330   5.366
    1   AR   Ar  190   1.256   7.055   3.937
    1   AR   Ar  191   3.857   6.651   6.653
    1   AR   Ar  192   4.020   3.172   5.596
    1   AR   Ar  193   2.953   6.307   1.824
    1   AR   Ar  194   4.941   6.179  -1.191
    1   AR   Ar  195   6.250   0.781   0.852
    1   AR   Ar  196   3.622   0.540   0.607
    1   AR   Ar  197   4.700   3.136   0.662
    1   AR   Ar  198   6.143   6.668   1.234
    1   AR   Ar  199   0.829   0.236   2.779
    1   AR   Ar  200   6.285   2.782  -0.394
    1   AR   Ar  201   6.351   5.897   2.506
    1   AR   Ar  202   5.460   0.551   4.090
    1   AR   Ar  203   0.244   6.831   3.440
    1   AR   Ar  204   4.225   4.433   7.338
    1   AR   Ar  205   5.577   1.721   1.775
    1   AR   Ar  206   6.292   0.128   6.412
    1   AR   Ar  207   6.981   3.280   4.478
    1   AR   Ar  208   0.901   5.959   3.904
    1   AR   Ar  209   6.978   2.153  -1.856
    1   AR   Ar  210   1.821   0.933  -0.166
    1   AR   Ar  211   6.761   2.946   0.562
    1   AR   Ar  212   6.315   3.812  -0.088
    1   AR   Ar  213   3.706   2.113   1.312
    1   AR   Ar  214   5.207   4.609   2.048
    1   AR   Ar  215   0.288   2.645   1.464
    1   AR   Ar  216   1.903   2.352   0.220
    1   AR   Ar  217   5.497   1.679   3.976
    1   AR   Ar  218   4.916   2.767   5.056
    1   AR   Ar  219   4.469   3.580   2.466
    1   AR   Ar  220   4.463   4.000   1.468
    1   AR   Ar  221   6.678   5.673   4.084
    1   AR   Ar  222   5.103   7.090   5.677
    1   AR   Ar  223   6.711   1.700   5.758
    1   AR   Ar  224   5.181   1.719   5.027
    1   AR   Ar  225   6.836   2.583   2.538
    1   AR   Ar  226   2.177   3.506   4.095
    1   AR   Ar  227   0.766   2.764   3.006
    1   AR   Ar  228   6.214   0.733   1.947
    1   AR   Ar  229   6.077   4.691  -0.957
    1   AR   Ar  230   3.817   4.615   3.801
    1   AR   Ar  231   4.599   1.936   2.581
    1   AR   Ar  232   5.101   2.743   1.814
    1   AR   Ar  233   6.680   1.982   3.766
    1   AR   Ar  234   6.192   2.769   4.495
    1   AR   Ar  235   6.438   0.786   3.890
    1   AR   Ar  236   3.996   4.556   5.375
    1   AR   Ar  237   4.654   0.317   7.584
    1   AR   Ar  238   5.022   5.025   6.525
    1   AR   Ar  239   1.039   4.501  11.338
    1   AR   Ar  240   1.953   3.127   7.066
    1   AR   Ar  241   1.597   0.060   0.496
    1   AR   Ar  242   5.716   5.597   1.359
    1   AR   Ar  243   4.716   6.638   2.131
    1   AR   Ar  244   6.549   6.227   0.201
    1   AR   Ar  245   3.580   1.023   3.517
    1   AR   Ar  246   5.908   0.409  -1.161
    1   AR   Ar  247   7.111   3.852   1.662
    1   AR   Ar  248   5.689   5.362  -0.011
    1   AR   Ar  249   4.095   0.007   1.413
    1   AR   Ar  250   5.124   6.730   3.510
    1   AR   Ar  251   4.734   4.309   4.272
    1   AR   Ar  252   2.816   4.883   1.889
    1   AR   Ar  253   4.900   2.467   8.101
    1   AR   Ar  254   4.972   3.267  11.883
    1   AR   Ar  255   4.359   6.702   9.037
    1   AR   Ar  256   5.670   5.729   3.533
    7.12000  7.12000 12.00000
Argon-slab step 5210
  256
    1   AR   Ar    1   4.149   3.451  -3.061
    1   AR   Ar    2   5.431   6.418   0.577
    1   AR   Ar    3   3.774   3.586  -1.210
    1   AR   Ar    4   2.746   1.102   0.707
    1   AR   Ar    5   6.846   5.323  -0.424
    1   AR   Ar    6   0.935   1.459   2.431
    1   AR   Ar    7   5.666   4.644   3.328
    1   AR   Ar    8   6.517   3.447  -1.133
    1   AR   Ar    9   6.792   6.733   4.685
    1   AR   Ar   10   6.043   5.090   5.378
    1   AR   Ar   11   1.207   6.700   4.993
    1   AR   Ar   12   0.205   1.334   4.234
    1   AR   Ar   13   6.872   0.545   5.023
    1   AR   Ar   14   3.918   0.623   6.853
    1   AR   Ar   15   2.594   6.583   9.588
    1   AR   Ar   16   0.706   0.116   5.926
    1   AR   Ar   17   6.142   3.929   1.350
    1   AR   Ar   18   7.044   4.687  -1.533
    1   AR   Ar   19   5.476   4.518   0.827
    1   AR   Ar   20   6.690   3.736  -2.566
    1   AR   Ar   21   2.334   1.587   1.893
    1   AR   Ar   22   4.991   0.975   1.756
    1   AR   Ar   23   0.997   6.231   0.829
    1   AR   Ar   24   5.653   2.696   3.221
    1   AR   Ar   25   1.128   3.078   5.161
    1   AR   Ar   26   5.923   6.261   4.384
    1   AR   Ar   27   1.462   0.624   1.745
    1   AR   Ar   28   1.884   2.432   3.816
    1   AR   Ar   29   4.937   1.185   7.972
    1   AR   Ar   30   0.035   1.197   2.922
    1   AR   Ar   31   1.867   0.337   6.654
    1   AR   Ar   32   1.323   2.083   5.345
    1   AR   Ar   33   0.079   4.610   0.345
    1   AR   Ar   34   1.546   5.074   2.525
    1   AR   Ar   35   5.388   5.567   2.464
    1   AR   Ar   36   4.794   2.692  -3.238
    1   AR   Ar   37   4.026   3.072   1.762
    1   AR   Ar   38   5.983   4.862   4.323
    1   AR   Ar   39   0.638   2.507   4.125
    1   AR   Ar   40   0.855   3.943   2.240
    1   AR   Ar   41   0.670   1.793   3.419
    1   AR   Ar   42   4.954   5.505   5.582
    1   AR   Ar   43   0.253   3.212   5.840
    1   AR   Ar   44   0.225   3.903   3.189
    1   AR   Ar   45   2.085   3.478   5.188
    1   AR   Ar   46   6.372   4.832   6.625
    1   AR   Ar   47   3.169   3.847   7.484
    1   AR   Ar   48   7.113   3.539   7.245
    1   AR   Ar   49   0.434   0.829   0.792
    1   AR   Ar   50   3.418   4.670   0.250
    1   AR   Ar   51   5.600   3.584   2.695
    1   AR   Ar   52   5.372   3.483  -1.235
    1   AR   Ar   53   4.429   0.389   3.301
    1   AR   Ar   54   6.719   0.006   2.682
    1   AR   Ar   55   0.093   4.842   2.338
    1   AR   Ar   56   5.964   1.792   2.859
    1   AR   Ar   57   3.925   4.771   2.316
    1   AR   Ar   58   1.045   3.464   3.950
    1   AR   Ar   59   2.832   5.640   5.449
    1   AR   Ar   60   0.172   5.730   3.104
    1   AR   Ar   61   6.880   4.257   5.946
    1   AR   Ar   62   0.140   4.309   5.041
    1   AR   Ar   63   2.982   2.879   7.935
    1   AR   Ar   64   0.330   5.337   4.675
    1   AR   Ar   65   3.980   1.039   2.395
    1   AR   Ar   66   1.561   1.428   0.700
    1   AR   Ar   67   4.962   0.199  -0.771
    1   AR   Ar   68   0.058   1.469  -0.464
    1   AR   Ar   69   2.648   1.685  -0.101
    1   AR   Ar   70   7.029   1.234   1.680
    1   AR   Ar   71   2.868   0.726   2.506
    1   AR   Ar   72   4.155   1.191   1.273
    1   AR   Ar   73   3.135   0.060   3.891
    1   AR   Ar   74   1.233   0.973   3.477
    1   AR   Ar   75   3.010   0.589   5.050
    1   AR   Ar   76   2.407   0.311   1.218
    1   AR   Ar   77   1.856   5.814   5.383
    1   AR   Ar   78   0.022   5.233   5.881
    1   AR   Ar   79   3.117   6.620   5.688
    1   AR   Ar   80   4.017   5.712   5.544
    1   AR   Ar   81   1.952   6.454   1.386
    1   AR   Ar   82   6.770   5.408   1.506
    1   AR   Ar   83   1.303   3.505   1.032
    1   AR   Ar   84   1.077   4.603   1.237
    1   AR   Ar   85   0.619   3.198  -0.243
    1   AR   Ar   86   1.855   5.300   1.408
    1   AR   Ar   87   3.237   3.137   2.532
    1   AR   Ar   88   3.513   5.451   1.154
    1   AR   Ar   89   6.347   2.278   1.289
    1   AR   Ar   90   3.213   1.324   5.812
    1   AR   Ar   91   2.052   1.171   2.827
    1   AR   Ar   92   2.632   2.260   1.072
    1   AR   Ar   93   1.957   0.846   5.397
    1   AR   Ar   94   0.538   6.916   8.184
    1   AR   Ar   95   4.539   1.091   5.544
    1   AR   Ar   96   2.286   6.674   5.034
    1   AR   Ar   97   3.286   2.022  -1.175
    1   AR   Ar   98   1.827   4.484   4.293
    1   AR   Ar   99   6.233   0.031   0.115
    1   AR   Ar  100   6.143   2.697  -2.215
    1   AR   Ar  101   3.817   6.263   2.672
    1   AR   Ar  102   3.409   1.937   2.239
    1   AR   Ar  103   2.105   4.170   0.829
    1   AR   Ar  104   3.118   0.168  -1.420
    1   AR   Ar  105   2.617   2.098   2.931
    1   AR   Ar  106   4.092   1.750   4.228
    1   AR   Ar  107   1.009   4.943   5.455
    1   AR   Ar  108   2.223   0.588   3.918
    1   AR   Ar  109   2.088   4.644   5.325
    1   AR   Ar  110   2.305   2.310   4.973
    1   AR   Ar  111   3.280   4.987   7.299
    1   AR   Ar  112   6.059   6.403   5.556
    1   AR   Ar  113   0.812   5.766  -1.465
    1   AR   Ar  114   2.746   0.137  -0.037
    1   AR   Ar  115   0.516   5.580   0.227
    1   AR   Ar  116   5.263   0.384   0.515
    1   AR   Ar  117   7.106   4.814   3.763
    1   AR   Ar  118   2.202   6.379   3.334
    1   AR   Ar  119   1.608   4.053   3.392
    1   AR   Ar  120   2.107   0.053   2.441
    1   AR   Ar  121   5.175   4.291   5.792
    1   AR   Ar  122   2.781   5.274   3.718
    1   AR   Ar  123   3.383   2.278   5.186
    1   AR   Ar  124   0.751   5.705   1.896
    1   AR   Ar  125   5.893   3.537   3.867
    1   AR   Ar  126   6.834   0.298   7.355
    1   AR   Ar  127   5.058   3.071   6.014
    1   AR   Ar  128   0.900   3.715   6.527
    1   AR   Ar  129   1.883   5.711   4.232
    1   AR   Ar  130   3.869   0.799  -4.750
    1   AR   Ar  131   4.109   6.957  -1.151
    1   AR   Ar  132   1.136   2.335   0.857
    1   AR   Ar  133   3.952   0.326   4.413
    1   AR   Ar  134   2.685   1.656   3.916
    1   AR   Ar  135   5.932   0.367   5.010
    1   AR   Ar  136   5.703   6.663   2.556
    1   AR   Ar  137   2.569   4.201   6.143
    1   AR   Ar  138   5.605   1.099   6.132
    1   AR   Ar  139   6.137   1.419   4.778
    1   AR   Ar  140   4.199   6.529   5.004
    1   AR   Ar  141   3.699   5.421   4.557
    1   AR   Ar  142   4.982   6.349   8.141
    1   AR   Ar  143   5.369   6.822   6.730
    1   AR   Ar  144   0.266   2.246   4.950
    1   AR   Ar  145   4.691   4.898  -0.902
    1   AR   Ar  146   3.747   2.307   3.252
    1   AR   Ar  147   5.293   4.110  -0.343
    1   AR   Ar  148   3.148   5.936  -1.021
    1   AR   Ar  149   0.196   2.420  -0.832
    1   AR   Ar  150   1.628   2.479   2.102
    1   AR   Ar  151   2.386   3.397   3.047
    1   AR   Ar  152   0.817   1.151  -1.679
    1   AR   Ar  153   5.465   0.891   3.090
    1   AR   Ar  154   4.454   2.931   3.699
    1   AR   Ar  155   5.968   3.649   5.443
    1   AR   Ar  156   3.081   4.241   2.984
    1   AR   Ar  157   3.110   5.773   6.679
    1   AR   Ar  158   0.602   2.636   6.774
    1   AR   Ar  159   3.950   0.247   5.901
    1   AR   Ar  160   1.256   1.174   4.489
    1   AR   Ar  161   4.718   4.635   3.006
    1   AR   Ar  162   4.057   5.929  -0.323
    1   AR   Ar  163   6.369   4.123   2.372
    1   AR   Ar  164   2.106   5.966   2.298
    1   AR   Ar  165   3.188   3.991   1.296
    1   AR   Ar  166   3.162   3.386   5.142
    1   AR   Ar  167   6.181   6.890   3.635
    1   AR   Ar  168   6.173   4.673  -2.366
    1   AR   Ar  169   3.853   3.694   3.385
    1   AR   Ar  170   2.726   3.003   6.123
    1   AR   Ar  171   4.988   5.670   4.423
    1   AR   Ar  172   4.095   3.406   4.658
    1   AR   Ar  173   2.777   2.024   6.447
    1   AR   Ar  174   3.023   6.155   4.546
    1   AR   Ar  175   2.846   0.342   6.364
    1   AR   Ar  176   3.127   2.742   4.085
    1   AR   Ar  177   0.006   4.126  -0.653
    1   AR   Ar  178   2.355   6.122   0.268
    1   AR   Ar  179   3.327   6.540   0.894
    1   AR   Ar  180   4.933   0.545  -8.004
    1   AR   Ar  181   7.033   6.451   1.849
    1   AR   Ar  182   1.271   6.462   2.681
    1   AR   Ar  183   4.633   5.411   1.629
    1   AR   Ar  184   4.413   5.268   0.537
    1   AR   Ar  185   3.010   4.444   4.685
    1   AR   Ar  186   3.039   6.876   2.961
    1   AR   Ar  187   4.281   6.358   4.025
    1   AR   Ar  188   3.225   0.891   1.617
    1   AR   Ar  189   5.966   2.352   5.370
    1   AR   Ar  190   1.255   7.049   3.964
    1   AR   Ar  191   3.851   6.642   6.651
    1   AR   Ar  192   3.992   3.159   5.647
    1   AR   Ar  193   2.968   6.318   1.819
    1   AR   Ar  194   4.936   6.188  -1.167
    1   AR   Ar  195   6.249   0.760   0.818
    1   AR   Ar  196   3.613   0.513   0.600
    1   AR   Ar  197   4.716   3.142   0.691
    1   AR   Ar  198   6.141   6.674   1.241
    1   AR   Ar  199   0.824   0.262   2.788
    1   AR   Ar  200   6.305   2.792  -0.406
    1   AR   Ar  201   6.342   5.868   2.502
    1   AR   Ar  202   5.448   0.552   4.100
    1   AR   Ar  203   0.259   6.858   3.435
    1   AR   Ar  204   4.210   4.440   7.356
    1   AR   Ar  205   5.573   1.710   1.772
    1   AR   Ar  206   6.280   0.147   6.396
    1   AR   Ar  207   7.016   3.307   4.471
    1   AR   Ar  208   0.899   5.953   3.917
    1   AR   Ar  209   6.976   2.155  -1.846
    1   AR   Ar  210   1.847   0.925  -0.179
    1   AR   Ar  211   6.763   2.951   0.560
    1   AR   Ar  212   6.308   3.822  -0.111
    1   AR   Ar  213   3.765   2.143   1.312
    1   AR   Ar  214   5.216   4.587   2.040
    1   AR   Ar  215   0.315   2.609   1.458
    1   AR   Ar  216   1.874   2.333   0.214
    1   AR   Ar  217   5.498   1.693   3.957
    1   AR   Ar  218   4.917   2.735   5.049
    1   AR   Ar  219   4.471   3.589   2.457
    1   AR   Ar  220   4.453   3.977   1.456
    1   AR   Ar  221   6.684   5.693   4.075
    1   AR   Ar  222   5.104   7.074   5.680
    1   AR   Ar  223   6.725   1.705   5.771
    1   AR   Ar  224   5.181   1.701   5.033
    1   AR   Ar  225   6.823   2.550   2.532
    1   AR   Ar  226   2.177   3.545   4.100
    1   AR   Ar  227   0.751   2.773   2.992
    1   AR   Ar  228   6.226   0.736   1.930
    1   AR   Ar  229   6.120   4.670  -0.961
    1   AR   Ar  230   3.806   4.604   3.799
    1   AR   Ar  231   4.597   1.931   2.575
    1   AR   Ar  232   5.127   2.732   1.789
    1   AR   Ar  233   6.688   1.999   3.764
    1   AR   Ar  234   6.185   2.778   4.520
    1   AR   Ar  235   6.465   0.789   3.893
    1   AR   Ar  236   3.994   4.546   5.377
    1   AR   Ar  237   4.650   0.318   7.554
    1   AR   Ar  238   5.009   5.020   6.533
    1   AR   Ar  239   1.047   4.491  11.333
    1   AR   Ar  240   1.937   3.164   7.027
    1   AR   Ar  241   1.599   0.087   0.528
    1   AR   Ar  242   5.728   5.622   1.406
    1   AR   Ar  243   4.731   6.625   2.112
    1   AR   Ar  244   6.561   6.176   0.171
    1   AR   Ar  245   3.553   1.054   3.532
    1   AR   Ar  246   5.937   0.431  -1.170
    1   AR   Ar  247   7.082   3.819   1.679
    1   AR   Ar  248   5.718   5.359  -0.045
    1   AR   Ar  249   4.094   7.110   1.441
    1   AR   Ar  250   5.111   6.740   3.528
    1   AR   Ar  251   4.739   4.314   4.248
    1   AR   Ar  252   2.818   4.908   1.922
    1   AR   Ar  253   4.864   2.474   8.138
    1   AR   Ar  254   4.946   3.269  11.924
    1   AR   Ar  255   4.367   6.731   9.046
    1   AR   Ar  256   5.662   5.721   3.522
    7.12000  7.12000 12.00000
Argon-slab step 5215
  256
    1   AR   Ar    1   4.131   3.421  -3.010
    1   AR   Ar    2   5.426   6.429   0.553
    1   AR   Ar    3   3.778   3.598  -1.201
    1   AR   Ar    4   2.768   1.104   0.666
    1   AR   Ar    5   6.809   5.341  -0.438
    1   AR   Ar    6   0.921   1.430   2.435
    1   AR   Ar    7   5.655   4.629   3.305
    1   AR   Ar    8   6.502   3.445  -1.149
    1   AR   Ar    9   6.785   6.694   4.667
    1   AR   Ar   10   6.073   5.054   5.394
    1   AR   Ar   11   1.196   6.710   4.981
    1   AR   Ar   12   0.198   1.319   4.277
    1   AR   Ar   13   6.915   0.532   5.010
    1   AR   Ar   14   3.894   0.615   6.889
    1   AR   Ar   15   2.575   6.562   9.602
    1   AR   Ar   16   0.687   0.102   5.898
    1   AR   Ar   17   6.138   3.926   1.342
    1   AR   Ar   18   7.023   4.666  -1.511
    1   AR   Ar   19   5.496   4.512   0.811
    1   AR   Ar   20   6.691   3.721  -2.601
    1   AR   Ar   21   2.334   1.569   1.859
    1   AR   Ar   22   5.042   0.949   1.755
    1   AR   Ar   23   1.003   6.233   0.846
    1   AR   Ar   24   5.671   2.728   3.225
    1   AR   Ar   25   1.140   3.093   5.195
    1   AR   Ar   26   5.928   6.260   4.381
    1   AR   Ar   27   1.466   0.623   1.747
    1   AR   Ar   28   1.937   2.497   3.786
    1   AR   Ar   29   4.936   1.217   7.970
    1   AR   Ar   30   0.002   1.204   2.919
    1   AR   Ar   31   1.851   0.357   6.620
    1   AR   Ar   32   1.315   2.085   5.354
    1   AR   Ar   33   0.086   4.630   0.355
    1   AR   Ar   34   1.564   5.068   2.535
    1   AR   Ar   35   5.367   5.573   2.481
    1   AR   Ar   36   4.778   2.691  -3.230
    1   AR   Ar   37   4.009   3.072   1.727
    1   AR   Ar   38   5.960   4.882   4.339
    1   AR   Ar   39   0.601   2.509   4.110
    1   AR   Ar   40   0.841   3.990   2.231
    1   AR   Ar   41   0.682   1.767   3.431
    1   AR   Ar   42   4.949   5.477   5.603
    1   AR   Ar   43   0.242   3.242   5.887
    1   AR   Ar   44   0.196   3.897   3.172
    1   AR   Ar   45   2.090   3.494   5.173
    1   AR   Ar   46   6.345   4.829   6.615
    1   AR   Ar   47   3.157   3.815   7.475
    1   AR   Ar   48   7.084   3.517   7.251
    1   AR   Ar   49   0.433   0.817   0.807
    1   AR   Ar   50   3.366   4.674   0.233
    1   AR   Ar   51   5.564   3.579   2.702
    1   AR   Ar   52   5.381   3.485  -1.224
    1   AR   Ar   53   4.392   0.359   3.312
    1   AR   Ar   54   6.720   7.115   2.646
    1   AR   Ar   55   0.066   4.868   2.321
    1   AR   Ar   56   5.948   1.806   2.844
    1   AR   Ar   57   3.954   4.758   2.314
    1   AR   Ar   58   1.070   3.474   3.945
    1   AR   Ar   59   2.818   5.660   5.442
    1   AR   Ar   60   0.183   5.741   3.112
    1   AR   Ar   61   6.889   4.289   5.968
    1   AR   Ar   62   0.134   4.334   5.027
    1   AR   Ar   63   2.940   2.924   7.966
    1   AR   Ar   64   0.327   5.317   4.691
    1   AR   Ar   65   3.994   1.033   2.429
    1   AR   Ar   66   1.544   1.400   0.667
    1   AR   Ar   67   4.978   0.215  -0.772
    1   AR   Ar   68   0.044   1.437  -0.447
    1   AR   Ar   69   2.646   1.710  -0.108
    1   AR   Ar   70   7.036   1.220   1.684
    1   AR   Ar   71   2.855   0.731   2.485
    1   AR   Ar   72   4.155   1.169   1.264
    1   AR   Ar   73   3.107   0.070   3.909
    1   AR   Ar   74   1.224   0.971   3.478
    1   AR   Ar   75   2.965   0.617   5.099
    1   AR   Ar   76   2.408   0.300   1.196
    1   AR   Ar   77   1.851   5.805   5.371
    1   AR   Ar   78   0.054   5.231   5.851
    1   AR   Ar   79   3.135   6.635   5.658
    1   AR   Ar   80   4.002   5.679   5.533
    1   AR   Ar   81   1.932   6.434   1.393
    1   AR   Ar   82   6.775   5.420   1.511
    1   AR   Ar   83   1.257   3.500   1.021
    1   AR   Ar   84   1.111   4.592   1.233
    1   AR   Ar   85   0.616   3.226  -0.231
    1   AR   Ar   86   1.858   5.304   1.377
    1   AR   Ar   87   3.272   3.137   2.545
    1   AR   Ar   88   3.494   5.438   1.161
    1   AR   Ar   89   6.378   2.282   1.272
    1   AR   Ar   90   3.216   1.319   5.799
    1   AR   Ar   91   2.071   1.201   2.817
    1   AR   Ar   92   2.629   2.242   1.057
    1   AR   Ar   93   1.953   0.842   5.392
    1   AR   Ar   94   0.511   6.892   8.154
    1   AR   Ar   95   4.559   1.081   5.554
    1   AR   Ar   96   2.288   6.678   5.018
    1   AR   Ar   97   3.311   2.012  -1.191
    1   AR   Ar   98   1.846   4.475   4.281
    1   AR   Ar   99   6.233   7.114   0.133
    1   AR   Ar  100   6.110   2.723  -2.209
    1   AR   Ar  101   3.831   6.219   2.683
    1   AR   Ar  102   3.405   1.946   2.247
    1   AR   Ar  103   2.091   4.169   0.847
    1   AR   Ar  104   3.095   0.178  -1.441
    1   AR   Ar  105   2.637   2.119   2.905
    1   AR   Ar  106   4.077   1.726   4.194
    1   AR   Ar  107   0.959   4.944   5.451
    1   AR   Ar  108   2.207   0.583   3.904
    1   AR   Ar  109   2.071   4.666   5.313
    1   AR   Ar  110   2.287   2.299   4.969
    1   AR   Ar  111   3.269   4.994   7.275
    1   AR   Ar  112   6.059   6.371   5.593
    1   AR   Ar  113   0.774   5.765  -1.452
    1   AR   Ar  114   2.732   0.142  -0.043
    1   AR   Ar  115   0.520   5.595   0.215
    1   AR   Ar  116   5.289   0.388   0.491
    1   AR   Ar  117   7.102   4.775   3.735
    1   AR   Ar  118   2.201   6.413   3.362
    1   AR   Ar  119   1.606   4.054   3.355
    1   AR   Ar  120   2.088   0.060   2.453
    1   AR   Ar  121   5.195   4.307   5.793
    1   AR   Ar  122   2.791   5.275   3.697
    1   AR   Ar  123   3.404   2.250   5.188
    1   AR   Ar  124   0.750   5.698   1.894
    1   AR   Ar  125   5.898   3.503   3.873
    1   AR   Ar  126   6.864   0.264   7.369
    1   AR   Ar  127   5.082   3.054   6.019
    1   AR   Ar  128   0.898   3.715   6.507
    1   AR   Ar  129   1.886   5.724   4.202
    1   AR   Ar  130   3.899   0.778  -4.761
    1   AR   Ar  131   4.092   6.965  -1.114
    1   AR   Ar  132   1.143   2.331   0.862
    1   AR   Ar  133   3.948   0.313   4.384
    1   AR   Ar  134   2.690   1.654   3.887
    1   AR   Ar  135   5.931   0.328   5.029
    1   AR   Ar  136   5.694   6.638   2.551
    1   AR   Ar  137   2.568   4.200   6.128
    1   AR   Ar  138   5.625   1.108   6.143
    1   AR   Ar  139   6.122   1.402   4.789
    1   AR   Ar  140   4.190   6.550   5.041
    1   AR   Ar  141   3.706   5.439   4.567
    1   AR   Ar  142   5.005   6.328   8.149
    1   AR   Ar  143   5.386   6.825   6.720
    1   AR   Ar  144   0.245   2.239   4.985
    1   AR   Ar  145   4.714   4.904  -0.920
    1   AR   Ar  146   3.723   2.308   3.241
    1   AR   Ar  147   5.292   4.084  -0.358
    1   AR   Ar  148   3.144   5.946  -0.997
    1   AR   Ar  149   0.198   2.379  -0.827
    1   AR   Ar  150   1.602   2.471   2.062
    1   AR   Ar  151   2.388   3.412   3.066
    1   AR   Ar  152   0.823   1.128  -1.661
    1   AR   Ar  153   5.494   0.890   3.080
    1   AR   Ar  154   4.455   2.949   3.692
    1   AR   Ar  155   5.945   3.612   5.424
    1   AR   Ar  156   3.113   4.222   2.965
    1   AR   Ar  157   3.107   5.772   6.676
    1   AR   Ar  158   0.583   2.657   6.793
    1   AR   Ar  159   3.901   0.257   5.885
    1   AR   Ar  160   1.276   1.180   4.503
    1   AR   Ar  161   4.701   4.619   3.009
    1   AR   Ar  162   4.058   5.923  -0.350
    1   AR   Ar  163   6.386   4.116   2.350
    1   AR   Ar  164   2.114   5.966   2.305
    1   AR   Ar  165   3.169   3.966   1.282
    1   AR   Ar  166   3.149   3.391   5.110
    1   AR   Ar  167   6.184   6.877   3.650
    1   AR   Ar  168   6.200   4.674  -2.344
    1   AR   Ar  169   3.819   3.695   3.391
    1   AR   Ar  170   2.753   3.023   6.139
    1   AR   Ar  171   4.949   5.653   4.408
    1   AR   Ar  172   4.100   3.395   4.672
    1   AR   Ar  173   2.779   2.005   6.464
    1   AR   Ar  174   3.006   6.133   4.558
    1   AR   Ar  175   2.856   0.342   6.383
    1   AR   Ar  176   3.130   2.766   4.081
    1   AR   Ar  177   7.120   4.131  -0.638
    1   AR   Ar  178   2.318   6.143   0.304
    1   AR   Ar  179   3.302   6.518   0.882
    1   AR   Ar  180   4.930   0.521  -7.972
    1   AR   Ar  181   7.025   6.452   1.845
    1   AR   Ar  182   1.251   6.499   2.663
    1   AR   Ar  183   4.644   5.401   1.621
    1   AR   Ar  184   4.398   5.277   0.541
    1   AR   Ar  185   3.021   4.447   4.714
    1   AR   Ar  186   3.034   6.890   2.964
    1   AR   Ar  187   4.299   6.383   4.000
    1   AR   Ar  188   3.231   0.904   1.638
    1   AR   Ar  189   5.977   2.371   5.387
    1   AR   Ar  190   1.233   7.046   3.989
    1   AR   Ar  191   3.844   6.631   6.650
    1   AR   Ar  192   3.972   3.142   5.709
    1   AR   Ar  193   2.985   6.329   1.819
    1   AR   Ar  194   4.931   6.197  -1.141
    1   AR   Ar  195   6.248   0.744   0.790
    1   AR   Ar  196   3.605   0.483   0.592
    1   AR   Ar  197   4.731   3.148   0.722
    1   AR   Ar  198   6.146   6.683   1.253
    1   AR   Ar  199   0.795   0.286   2.777
    1   AR   Ar  200   6.324   2.795  -0.414
    1   AR   Ar  201   6.346   5.837   2.499
    1   AR   Ar  202   5.431   0.552   4.111
    1   AR   Ar  203   0.271   6.879   3.440
    1   AR   Ar  204   4.197   4.447   7.374
    1   AR   Ar  205   5.584   1.720   1.771
    1   AR   Ar  206   6.269   0.167   6.377
    1   AR   Ar  207   7.064   3.340   4.464
    1   AR   Ar  208   0.895   5.950   3.929
    1   AR   Ar  209   6.977   2.155  -1.835
    1   AR   Ar  210   1.876   0.917  -0.194
    1   AR   Ar  211   6.767   2.958   0.558
    1   AR   Ar  212   6.299   3.832  -0.129
    1   AR   Ar  213   3.790   2.155   1.311
    1   AR   Ar  214   5.226   4.562   2.031
    1   AR   Ar  215   0.339   2.575   1.455
    1   AR   Ar  216   1.854   2.317   0.199
    1   AR   Ar  217   5.500   1.709   3.936
    1   AR   Ar  218   4.918   2.703   5.038
    1   AR   Ar  219   4.480   3.607   2.461
    1   AR   Ar  220   4.444   3.960   1.441
    1   AR   Ar  221   6.692   5.716   4.062
    1   AR   Ar  222   5.104   7.059   5.683
    1   AR   Ar  223   6.740   1.709   5.784
    1   AR   Ar  224   5.180   1.684   5.036
    1   AR   Ar  225   6.810   2.516   2.527
    1   AR   Ar  226   2.182   3.575   4.108
    1   AR   Ar  227   0.748   2.778   2.994
    1   AR   Ar  228   6.226   0.731   1.919
    1   AR   Ar  229   6.162   4.647  -0.963
    1   AR   Ar  230   3.793   4.603   3.799
    1   AR   Ar  231   4.595   1.928   2.569
    1   AR   Ar  232   5.157   2.725   1.762
    1   AR   Ar  233   6.693   2.020   3.759
    1   AR   Ar  234   6.172   2.781   4.535
    1   AR   Ar  235   6.493   0.794   3.894
    1   AR   Ar  236   3.992   4.536   5.378
    1   AR   Ar  237   4.659   0.308   7.564
    1   AR   Ar  238   4.995   5.016   6.544
    1   AR   Ar  239   1.054   4.481  11.328
    1   AR   Ar  240   1.921   3.201   6.987
    1   AR   Ar  241   1.604   0.104   0.554
    1   AR   Ar  242   5.738   5.648   1.453
    1   AR   Ar  243   4.748   6.609   2.095
    1   AR   Ar  244   6.573   6.120   0.145
    1   AR   Ar  245   3.526   1.085   3.545
    1   AR   Ar  246   5.944   0.418  -1.172
    1   AR   Ar  247   7.063   3.782   1.695
    1   AR   Ar  248   5.747   5.357  -0.078
    1   AR   Ar  249   4.092   7.095   1.468
    1   AR   Ar  250   5.104   6.749   3.545
    1   AR   Ar  251   4.743   4.321   4.227
    1   AR   Ar  252   2.820   4.933   1.955
    1   AR   Ar  253   4.828   2.481   8.175
    1   AR   Ar  254   4.920   3.271  11.965
    1   AR   Ar  255   4.375   6.761   9.053
    1   AR   Ar  256   5.654   5.712   3.509
    7.12000  7.12000 12.00000
Argon-slab step 5220
  256
    1   AR   Ar    1   4.107   3.398  -2.956
    1   AR   Ar    2   5.417   6.437   0.524
    1   AR   Ar    3   3.782   3.610  -1.192
    1   AR   Ar    4   2.771   1.070   0.643
    1   AR   Ar    5   6.773   5.352  -0.457
    1   AR   Ar    6   0.911   1.401   2.436
    1   AR   Ar    7   5.654   4.612   3.283
    1   AR   Ar    8   6.487   3.448  -1.175
    1   AR   Ar    9   6.783   6.654   4.648
    1   AR   Ar   10   6.103   5.017   5.413
    1   AR   Ar   11   1.196   6.726   4.998
    1   AR   Ar   12   0.191   1.294   4.317
    1   AR   Ar   13   6.967   0.527   4.998
    1   AR   Ar   14   3.867   0.609   6.925
    1   AR   Ar   15   2.556   6.541   9.616
    1   AR   Ar   16   0.668   0.089   5.868
    1   AR   Ar   17   6.129   3.920   1.325
    1   AR   Ar   18   7.007   4.648  -1.496
    1   AR   Ar   19   5.511   4.511   0.792
    1   AR   Ar   20   6.691   3.703  -2.635
    1   AR   Ar   21   2.336   1.549   1.824
    1   AR   Ar   22   5.083   0.900   1.757
    1   AR   Ar   23   1.012   6.239   0.868
    1   AR   Ar   24   5.687   2.753   3.233
    1   AR   Ar   25   1.141   3.094   5.221
    1   AR   Ar   26   5.913   6.255   4.390
    1   AR   Ar   27   1.470   0.623   1.747
    1   AR   Ar   28   1.990   2.563   3.755
    1   AR   Ar   29   4.936   1.255   7.970
    1   AR   Ar   30   0.018   1.225   2.946
    1   AR   Ar   31   1.829   0.377   6.584
    1   AR   Ar   32   1.306   2.081   5.362
    1   AR   Ar   33   0.091   4.647   0.365
    1   AR   Ar   34   1.580   5.060   2.544
    1   AR   Ar   35   5.337   5.577   2.498
    1   AR   Ar   36   4.785   2.675  -3.216
    1   AR   Ar   37   3.989   3.069   1.690
    1   AR   Ar   38   5.937   4.902   4.353
    1   AR   Ar   39   0.568   2.519   4.088
    1   AR   Ar   40   0.830   4.039   2.224
    1   AR   Ar   41   0.691   1.755   3.442
    1   AR   Ar   42   4.960   5.448   5.619
    1   AR   Ar   43   0.225   3.269   5.928
    1   AR   Ar   44   0.168   3.888   3.153
    1   AR   Ar   45   2.098   3.512   5.159
    1   AR   Ar   46   6.312   4.830   6.608
    1   AR   Ar   47   3.145   3.789   7.463
    1   AR   Ar   48   7.056   3.496   7.254
    1   AR   Ar   49   0.446   0.825   0.832
    1   AR   Ar   50   3.316   4.677   0.217
    1   AR   Ar   51   5.524   3.581   2.705
    1   AR   Ar   52   5.378   3.516  -1.222
    1   AR   Ar   53   4.373   0.353   3.312
    1   AR   Ar   54   6.718   7.105   2.611
    1   AR   Ar   55   0.042   4.893   2.306
    1   AR   Ar   56   5.936   1.819   2.826
    1   AR   Ar   57   3.983   4.746   2.306
    1   AR   Ar   58   1.090   3.478   3.947
    1   AR   Ar   59   2.817   5.672   5.439
    1   AR   Ar   60   0.194   5.752   3.119
    1   AR   Ar   61   6.896   4.306   5.993
    1   AR   Ar   62   0.130   4.355   5.007
    1   AR   Ar   63   2.896   2.966   7.998
    1   AR   Ar   64   0.325   5.300   4.705
    1   AR   Ar   65   4.008   1.025   2.463
    1   AR   Ar   66   1.529   1.365   0.638
    1   AR   Ar   67   4.999   0.230  -0.769
    1   AR   Ar   68   0.030   1.401  -0.428
    1   AR   Ar   69   2.645   1.739  -0.124
    1   AR   Ar   70   7.055   1.215   1.686
    1   AR   Ar   71   2.853   0.724   2.496
    1   AR   Ar   72   4.157   1.147   1.253
    1   AR   Ar   73   3.076   0.078   3.933
    1   AR   Ar   74   1.232   0.963   3.461
    1   AR   Ar   75   2.921   0.637   5.142
    1   AR   Ar   76   2.412   0.284   1.179
    1   AR   Ar   77   1.832   5.793   5.359
    1   AR   Ar   78   0.082   5.240   5.819
    1   AR   Ar   79   3.156   6.652   5.628
    1   AR   Ar   80   3.969   5.646   5.528
    1   AR   Ar   81   1.912   6.417   1.398
    1   AR   Ar   82   6.783   5.432   1.513
    1   AR   Ar   83   1.208   3.492   1.010
    1   AR   Ar   84   1.141   4.580   1.230
    1   AR   Ar   85   0.611   3.253  -0.217
    1   AR   Ar   86   1.864   5.311   1.349
    1   AR   Ar   87   3.309   3.135   2.558
    1   AR   Ar   88   3.509   5.419   1.140
    1   AR   Ar   89   6.409   2.284   1.258
    1   AR   Ar   90   3.223   1.314   5.788
    1   AR   Ar   91   2.076   1.236   2.815
    1   AR   Ar   92   2.606   2.201   1.036
    1   AR   Ar   93   1.947   0.837   5.387
    1   AR   Ar   94   0.483   6.868   8.123
    1   AR   Ar   95   4.574   1.066   5.568
    1   AR   Ar   96   2.287   6.692   5.002
    1   AR   Ar   97   3.336   2.002  -1.206
    1   AR   Ar   98   1.861   4.481   4.273
    1   AR   Ar   99   6.231   7.074   0.144
    1   AR   Ar  100   6.076   2.751  -2.202
    1   AR   Ar  101   3.848   6.175   2.693
    1   AR   Ar  102   3.403   1.954   2.255
    1   AR   Ar  103   2.078   4.169   0.866
    1   AR   Ar  104   3.072   0.188  -1.461
    1   AR   Ar  105   2.653   2.144   2.882
    1   AR   Ar  106   4.064   1.705   4.162
    1   AR   Ar  107   0.927   4.938   5.455
    1   AR   Ar  108   2.187   0.579   3.890
    1   AR   Ar  109   2.054   4.689   5.300
    1   AR   Ar  110   2.271   2.291   4.962
    1   AR   Ar  111   3.258   4.992   7.257
    1   AR   Ar  112   6.059   6.339   5.630
    1   AR   Ar  113   0.736   5.762  -1.439
    1   AR   Ar  114   2.716   0.156  -0.062
    1   AR   Ar  115   0.512   5.577   0.219
    1   AR   Ar  116   5.312   0.393   0.467
    1   AR   Ar  117   7.099   4.736   3.708
    1   AR   Ar  118   2.196   6.447   3.391
    1   AR   Ar  119   1.605   4.064   3.305
    1   AR   Ar  120   2.065   0.063   2.464
    1   AR   Ar  121   5.215   4.323   5.790
    1   AR   Ar  122   2.803   5.275   3.677
    1   AR   Ar  123   3.425   2.224   5.189
    1   AR   Ar  124   0.767   5.686   1.895
    1   AR   Ar  125   5.903   3.479   3.877
    1   AR   Ar  126   6.910   0.259   7.377
    1   AR   Ar  127   5.090   3.041   6.018
    1   AR   Ar  128   0.899   3.717   6.490
    1   AR   Ar  129   1.907   5.752   4.177
    1   AR   Ar  130   3.929   0.757  -4.772
    1   AR   Ar  131   4.070   6.970  -1.078
    1   AR   Ar  132   1.143   2.332   0.876
    1   AR   Ar  133   3.952   0.303   4.359
    1   AR   Ar  134   2.694   1.653   3.860
    1   AR   Ar  135   5.928   0.289   5.044
    1   AR   Ar  136   5.686   6.617   2.548
    1   AR   Ar  137   2.565   4.196   6.118
    1   AR   Ar  138   5.644   1.116   6.152
    1   AR   Ar  139   6.117   1.384   4.797
    1   AR   Ar  140   4.180   6.576   5.079
    1   AR   Ar  141   3.722   5.448   4.574
    1   AR   Ar  142   5.027   6.309   8.157
    1   AR   Ar  143   5.399   6.826   6.712
    1   AR   Ar  144   0.217   2.230   5.032
    1   AR   Ar  145   4.737   4.911  -0.936
    1   AR   Ar  146   3.697   2.308   3.230
    1   AR   Ar  147   5.289   4.062  -0.371
    1   AR   Ar  148   3.140   5.957  -0.973
    1   AR   Ar  149   0.201   2.344  -0.824
    1   AR   Ar  150   1.576   2.462   2.022
    1   AR   Ar  151   2.391   3.422   3.085
    1   AR   Ar  152   0.828   1.106  -1.643
    1   AR   Ar  153   5.486   0.907   3.117
    1   AR   Ar  154   4.450   2.954   3.697
    1   AR   Ar  155   5.924   3.573   5.403
    1   AR   Ar  156   3.135   4.212   2.941
    1   AR   Ar  157   3.102   5.780   6.665
    1   AR   Ar  158   0.564   2.679   6.810
    1   AR   Ar  159   3.853   0.268   5.865
    1   AR   Ar  160   1.297   1.187   4.520
    1   AR   Ar  161   4.686   4.604   3.017
    1   AR   Ar  162   4.061   5.918  -0.378
    1   AR   Ar  163   6.400   4.115   2.338
    1   AR   Ar  164   2.123   5.964   2.315
    1   AR   Ar  165   3.152   3.942   1.269
    1   AR   Ar  166   3.131   3.395   5.077
    1   AR   Ar  167   6.192   6.869   3.656
    1   AR   Ar  168   6.228   4.676  -2.321
    1   AR   Ar  169   3.803   3.693   3.387
    1   AR   Ar  170   2.780   3.046   6.154
    1   AR   Ar  171   4.911   5.634   4.394
    1   AR   Ar  172   4.123   3.390   4.658
    1   AR   Ar  173   2.780   1.986   6.483
    1   AR   Ar  174   2.990   6.120   4.562
    1   AR   Ar  175   2.873   0.343   6.399
    1   AR   Ar  176   3.131   2.790   4.078
    1   AR   Ar  177   0.001   4.138  -0.621
    1   AR   Ar  178   2.283   6.164   0.343
    1   AR   Ar  179   3.277   6.499   0.862
    1   AR   Ar  180   4.926   0.497  -7.939
    1   AR   Ar  181   7.018   6.451   1.841
    1   AR   Ar  182   1.232   6.531   2.646
    1   AR   Ar  183   4.653   5.390   1.613
    1   AR   Ar  184   4.384   5.286   0.545
    1   AR   Ar  185   3.040   4.442   4.710
    1   AR   Ar  186   3.030   6.904   2.955
    1   AR   Ar  187   4.295   6.408   3.986
    1   AR   Ar  188   3.243   0.921   1.639
    1   AR   Ar  189   5.989   2.392   5.416
    1   AR   Ar  190   1.212   7.045   4.010
    1   AR   Ar  191   3.836   6.619   6.649
    1   AR   Ar  192   3.955   3.124   5.774
    1   AR   Ar  193   3.001   6.340   1.827
    1   AR   Ar  194   4.925   6.207  -1.113
    1   AR   Ar  195   6.251   0.736   0.772
    1   AR   Ar  196   3.598   0.451   0.585
    1   AR   Ar  197   4.747   3.155   0.755
    1   AR   Ar  198   6.152   6.694   1.268
    1   AR   Ar  199   0.767   0.321   2.758
    1   AR   Ar  200   6.341   2.789  -0.417
    1   AR   Ar  201   6.339   5.811   2.489
    1   AR   Ar  202   5.414   0.553   4.121
    1   AR   Ar  203   0.279   6.893   3.454
    1   AR   Ar  204   4.184   4.454   7.390
    1   AR   Ar  205   5.611   1.748   1.772
    1   AR   Ar  206   6.259   0.189   6.355
    1   AR   Ar  207   7.115   3.375   4.457
    1   AR   Ar  208   0.886   5.949   3.940
    1   AR   Ar  209   6.977   2.155  -1.824
    1   AR   Ar  210   1.906   0.906  -0.211
    1   AR   Ar  211   6.774   2.970   0.556
    1   AR   Ar  212   6.287   3.843  -0.141
    1   AR   Ar  213   3.792   2.150   1.308
    1   AR   Ar  214   5.238   4.534   2.021
    1   AR   Ar  215   0.358   2.543   1.456
    1   AR   Ar  216   1.843   2.304   0.175
    1   AR   Ar  217   5.503   1.725   3.913
    1   AR   Ar  218   4.917   2.674   5.022
    1   AR   Ar  219   4.491   3.628   2.472
    1   AR   Ar  220   4.438   3.949   1.425
    1   AR   Ar  221   6.705   5.736   4.044
    1   AR   Ar  222   5.104   7.044   5.684
    1   AR   Ar  223   6.755   1.711   5.795
    1   AR   Ar  224   5.177   1.671   5.036
    1   AR   Ar  225   6.797   2.481   2.521
    1   AR   Ar  226   2.179   3.576   4.086
    1   AR   Ar  227   0.762   2.777   3.017
    1   AR   Ar  228   6.212   0.719   1.911
    1   AR   Ar  229   6.196   4.621  -0.960
    1   AR   Ar  230   3.778   4.611   3.804
    1   AR   Ar  231   4.595   1.925   2.562
    1   AR   Ar  232   5.185   2.720   1.735
    1   AR   Ar  233   6.695   2.041   3.753
    1   AR   Ar  234   6.161   2.783   4.539
    1   AR   Ar  235   6.519   0.798   3.895
    1   AR   Ar  236   3.991   4.525   5.377
    1   AR   Ar  237   4.668   0.291   7.573
    1   AR   Ar  238   4.980   5.013   6.561
    1   AR   Ar  239   1.062   4.472  11.323
    1   AR   Ar  240   1.906   3.238   6.945
    1   AR   Ar  241   1.609   0.113   0.574
    1   AR   Ar  242   5.745   5.675   1.498
    1   AR   Ar  243   4.765   6.590   2.080
    1   AR   Ar  244   6.579   6.177   0.149
    1   AR   Ar  245   3.529   1.098   3.535
    1   AR   Ar  246   5.953   0.405  -1.173
    1   AR   Ar  247   7.058   3.741   1.707
    1   AR   Ar  248   5.775   5.353  -0.110
    1   AR   Ar  249   4.085   7.085   1.492
    1   AR   Ar  250   5.105   6.753   3.569
    1   AR   Ar  251   4.749   4.328   4.205
    1   AR   Ar  252   2.823   4.959   1.988
    1   AR   Ar  253   4.832   2.462   8.157
    1   AR   Ar  254   4.893   3.272  12.006
    1   AR   Ar  255   4.383   6.790   9.060
    1   AR   Ar  256   5.647   5.705   3.496
    7.12000  7.12000 12.00000
Argon-slab step 5225
  256
    1   AR   Ar    1   4.079   3.380  -2.901
    1   AR   Ar    2   5.409   6.441   0.496
    1   AR   Ar    3   3.787   3.623  -1.182
    1   AR   Ar    4   2.772   1.042   0.621
    1   AR   Ar    5   6.743   5.360  -0.478
    1   AR   Ar    6   0.897   1.370   2.412
    1   AR   Ar    7   5.661   4.594   3.262
    1   AR   Ar    8   6.474   3.455  -1.207
    1   AR   Ar    9   6.791   6.617   4.631
    1   AR   Ar   10   6.117   4.985   5.422
    1   AR   Ar   11   1.203   6.744   5.035
    1   AR   Ar   12   0.187   1.267   4.353
    1   AR   Ar   13   7.021   0.525   4.988
    1   AR   Ar   14   3.839   0.602   6.959
    1   AR   Ar   15   2.537   6.520   9.630
    1   AR   Ar   16   0.649   0.077   5.838
    1   AR   Ar   17   6.118   3.910   1.307
    1   AR   Ar   18   7.002   4.634  -1.494
    1   AR   Ar   19   5.520   4.516   0.768
    1   AR   Ar   20   6.689   3.712  -2.634
    1   AR   Ar   21   2.337   1.528   1.789
    1   AR   Ar   22   5.118   0.841   1.760
    1   AR   Ar   23   1.021   6.247   0.893
    1   AR   Ar   24   5.703   2.763   3.242
    1   AR   Ar   25   1.130   3.074   5.235
    1   AR   Ar   26   5.879   6.244   4.409
    1   AR   Ar   27   1.474   0.623   1.748
    1   AR   Ar   28   2.043   2.628   3.725
    1   AR   Ar   29   4.937   1.295   7.971
    1   AR   Ar   30   0.016   1.229   2.982
    1   AR   Ar   31   1.804   0.397   6.548
    1   AR   Ar   32   1.304   2.050   5.360
    1   AR   Ar   33   0.092   4.659   0.377
    1   AR   Ar   34   1.595   5.051   2.552
    1   AR   Ar   35   5.299   5.577   2.513
    1   AR   Ar   36   4.799   2.644  -3.216
    1   AR   Ar   37   3.968   3.066   1.657
    1   AR   Ar   38   5.914   4.924   4.365
    1   AR   Ar   39   0.535   2.534   4.068
    1   AR   Ar   40   0.820   4.088   2.218
    1   AR   Ar   41   0.697   1.759   3.454
    1   AR   Ar   42   4.979   5.418   5.631
    1   AR   Ar   43   0.201   3.290   5.961
    1   AR   Ar   44   0.142   3.874   3.130
    1   AR   Ar   45   2.106   3.533   5.147
    1   AR   Ar   46   6.273   4.837   6.606
    1   AR   Ar   47   3.135   3.769   7.446
    1   AR   Ar   48   7.029   3.474   7.256
    1   AR   Ar   49   0.462   0.833   0.855
    1   AR   Ar   50   3.266   4.682   0.203
    1   AR   Ar   51   5.483   3.591   2.705
    1   AR   Ar   52   5.376   3.543  -1.225
    1   AR   Ar   53   4.367   0.363   3.306
    1   AR   Ar   54   6.716   7.097   2.578
    1   AR   Ar   55   0.020   4.916   2.297
    1   AR   Ar   56   5.927   1.831   2.808
    1   AR   Ar   57   4.008   4.734   2.292
    1   AR   Ar   58   1.104   3.478   3.955
    1   AR   Ar   59   2.818   5.686   5.451
    1   AR   Ar   60   0.204   5.764   3.122
    1   AR   Ar   61   6.905   4.307   6.016
    1   AR   Ar   62   0.123   4.369   4.985
    1   AR   Ar   63   2.851   3.002   8.034
    1   AR   Ar   64   0.321   5.291   4.713
    1   AR   Ar   65   4.022   1.016   2.497
    1   AR   Ar   66   1.514   1.328   0.614
    1   AR   Ar   67   5.020   0.246  -0.762
    1   AR   Ar   68   0.015   1.360  -0.407
    1   AR   Ar   69   2.634   1.758  -0.135
    1   AR   Ar   70   7.081   1.216   1.689
    1   AR   Ar   71   2.858   0.714   2.520
    1   AR   Ar   72   4.165   1.124   1.240
    1   AR   Ar   73   3.041   0.082   3.959
    1   AR   Ar   74   1.250   0.940   3.444
    1   AR   Ar   75   2.880   0.645   5.175
    1   AR   Ar   76   2.420   0.270   1.173
    1   AR   Ar   77   1.800   5.781   5.345
    1   AR   Ar   78   0.097   5.258   5.794
    1   AR   Ar   79   3.178   6.669   5.599
    1   AR   Ar   80   3.930   5.614   5.531
    1   AR   Ar   81   1.894   6.403   1.401
    1   AR   Ar   82   6.791   5.446   1.511
    1   AR   Ar   83   1.157   3.483   1.001
    1   AR   Ar   84   1.165   4.566   1.228
    1   AR   Ar   85   0.605   3.280  -0.202
    1   AR   Ar   86   1.873   5.322   1.322
    1   AR   Ar   87   3.348   3.131   2.572
    1   AR   Ar   88   3.530   5.399   1.114
    1   AR   Ar   89   6.440   2.284   1.247
    1   AR   Ar   90   3.235   1.314   5.784
    1   AR   Ar   91   2.069   1.275   2.819
    1   AR   Ar   92   2.598   2.197   1.018
    1   AR   Ar   93   1.936   0.833   5.383
    1   AR   Ar   94   0.456   6.845   8.091
    1   AR   Ar   95   4.585   1.045   5.587
    1   AR   Ar   96   2.281   6.712   4.986
    1   AR   Ar   97   3.361   1.991  -1.220
    1   AR   Ar   98   1.872   4.500   4.267
    1   AR   Ar   99   6.224   7.045   0.149
    1   AR   Ar  100   6.043   2.780  -2.194
    1   AR   Ar  101   3.865   6.130   2.702
    1   AR   Ar  102   3.407   1.957   2.258
    1   AR   Ar  103   2.068   4.170   0.885
    1   AR   Ar  104   3.085   0.177  -1.486
    1   AR   Ar  105   2.661   2.154   2.877
    1   AR   Ar  106   4.053   1.688   4.133
    1   AR   Ar  107   0.952   4.910   5.489
    1   AR   Ar  108   2.161   0.579   3.875
    1   AR   Ar  109   2.037   4.714   5.288
    1   AR   Ar  110   2.258   2.285   4.953
    1   AR   Ar  111   3.247   4.982   7.244
    1   AR   Ar  112   6.057   6.308   5.665
    1   AR   Ar  113   0.697   5.759  -1.424
    1   AR   Ar  114   2.705   0.182  -0.064
    1   AR   Ar  115   0.496   5.542   0.233
    1   AR   Ar  116   5.329   0.398   0.443
    1   AR   Ar  117   7.093   4.703   3.684
    1   AR   Ar  118   2.187   6.482   3.422
    1   AR   Ar  119   1.604   4.082   3.248
    1   AR   Ar  120   2.039   0.062   2.475
    1   AR   Ar  121   5.235   4.338   5.786
    1   AR   Ar  122   2.815   5.274   3.658
    1   AR   Ar  123   3.446   2.200   5.188
    1   AR   Ar  124   0.777   5.675   1.889
    1   AR   Ar  125   5.906   3.472   3.880
    1   AR   Ar  126   6.960   0.261   7.383
    1   AR   Ar  127   5.078   3.020   6.017
    1   AR   Ar  128   0.909   3.724   6.479
    1   AR   Ar  129   1.936   5.784   4.156
    1   AR   Ar  130   3.958   0.736  -4.782
    1   AR   Ar  131   4.044   6.972  -1.043
    1   AR   Ar  132   1.141   2.333   0.893
    1   AR   Ar  133   3.965   0.296   4.339
    1   AR   Ar  134   2.695   1.654   3.835
    1   AR   Ar  135   5.950   0.259   5.038
    1   AR   Ar  136   5.681   6.600   2.548
    1   AR   Ar  137   2.550   4.188   6.128
    1   AR   Ar  138   5.663   1.124   6.158
    1   AR   Ar  139   6.120   1.364   4.804
    1   AR   Ar  140   4.171   6.606   5.116
    1   AR   Ar  141   3.743   5.447   4.573
    1   AR   Ar  142   5.048   6.291   8.165
    1   AR   Ar  143   5.410   6.826   6.705
    1   AR   Ar  144   0.188   2.222   5.080
    1   AR   Ar  145   4.762   4.918  -0.951
    1   AR   Ar  146   3.670   2.306   3.220
    1   AR   Ar  147   5.308   4.063  -0.338
    1   AR   Ar  148   3.136   5.969  -0.949
    1   AR   Ar  149   0.204   2.314  -0.820
    1   AR   Ar  150   1.566   2.445   1.997
    1   AR   Ar  151   2.397   3.427   3.100
    1   AR   Ar  152   0.832   1.084  -1.624
    1   AR   Ar  153   5.478   0.921   3.151
    1   AR   Ar  154   4.434   2.939   3.715
    1   AR   Ar  155   5.903   3.533   5.381
    1   AR   Ar  156   3.133   4.216   2.927
    1   AR   Ar  157   3.083   5.770   6.662
    1   AR   Ar  158   0.546   2.701   6.827
    1   AR   Ar  159   3.807   0.283   5.844
    1   AR   Ar  160   1.318   1.194   4.538
    1   AR   Ar  161   4.694   4.600   3.040
    1   AR   Ar  162   4.065   5.912  -0.405
    1   AR   Ar  163   6.406   4.120   2.336
    1   AR   Ar  164   2.133   5.961   2.329
    1   AR   Ar  165   3.136   3.919   1.256
    1   AR   Ar  166   3.128   3.392   5.090
    1   AR   Ar  167   6.202   6.864   3.690
    1   AR   Ar  168   6.256   4.678  -2.296
    1   AR   Ar  169   3.817   3.694   3.375
    1   AR   Ar  170   2.806   3.070   6.166
    1   AR   Ar  171   4.874   5.613   4.381
    1   AR   Ar  172   4.136   3.389   4.650
    1   AR   Ar  173   2.781   1.968   6.503
    1   AR   Ar  174   2.984   6.118   4.557
    1   AR   Ar  175   2.893   0.345   6.412
    1   AR   Ar  176   3.132   2.815   4.075
    1   AR   Ar  177   0.010   4.144  -0.602
    1   AR   Ar  178   2.247   6.188   0.384
    1   AR   Ar  179   3.256   6.494   0.841
    1   AR   Ar  180   4.922   0.473  -7.907
    1   AR   Ar  181   7.015   6.449   1.836
    1   AR   Ar  182   1.213   6.557   2.629
    1   AR   Ar  183   4.663   5.381   1.607
    1   AR   Ar  184   4.373   5.294   0.546
    1   AR   Ar  185   3.062   4.431   4.683
    1   AR   Ar  186   3.030   6.915   2.940
    1   AR   Ar  187   4.237   6.433   4.018
    1   AR   Ar  188   3.258   0.940   1.625
    1   AR   Ar  189   6.006   2.421   5.454
    1   AR   Ar  190   1.193   7.046   4.026
    1   AR   Ar  191   3.829   6.608   6.648
    1   AR   Ar  192   3.936   3.111   5.823
    1   AR   Ar  193   3.016   6.351   1.840
    1   AR   Ar  194   4.918   6.216  -1.084
    1   AR   Ar  195   6.259   0.736   0.762
    1   AR   Ar  196   3.639   0.436   0.562
    1   AR   Ar  197   4.763   3.160   0.788
    1   AR   Ar  198   6.158   6.707   1.282
    1   AR   Ar  199   0.740   0.363   2.733
    1   AR   Ar  200   6.358   2.779  -0.417
    1   AR   Ar  201   6.335   5.785   2.476
    1   AR   Ar  202   5.396   0.553   4.133
    1   AR   Ar  203   0.282   6.902   3.474
    1   AR   Ar  204   4.172   4.459   7.406
    1   AR   Ar  205   5.643   1.780   1.774
    1   AR   Ar  206   6.252   0.211   6.331
    1   AR   Ar  207   0.046   3.410   4.450
    1   AR   Ar  208   0.876   5.950   3.952
    1   AR   Ar  209   6.977   2.155  -1.813
    1   AR   Ar  210   1.938   0.893  -0.230
    1   AR   Ar  211   6.784   2.985   0.552
    1   AR   Ar  212   6.272   3.851  -0.147
    1   AR   Ar  213   3.793   2.141   1.299
    1   AR   Ar  214   5.251   4.504   2.013
    1   AR   Ar  215   0.369   2.515   1.463
    1   AR   Ar  216   1.835   2.294   0.145
    1   AR   Ar  217   5.507   1.741   3.891
    1   AR   Ar  218   4.916   2.650   5.005
    1   AR   Ar  219   4.499   3.650   2.484
    1   AR   Ar  220   4.434   3.946   1.408
    1   AR   Ar  221   6.722   5.754   4.021
    1   AR   Ar  222   5.102   7.030   5.685
    1   AR   Ar  223   6.769   1.711   5.806
    1   AR   Ar  224   5.174   1.659   5.033
    1   AR   Ar  225   6.784   2.446   2.516
    1   AR   Ar  226   2.164   3.560   4.053
    1   AR   Ar  227   0.776   2.778   3.041
    1   AR   Ar  228   6.190   0.702   1.907
    1   AR   Ar  229   6.214   4.592  -0.950
    1   AR   Ar  230   3.761   4.627   3.811
    1   AR   Ar  231   4.596   1.924   2.555
    1   AR   Ar  232   5.212   2.718   1.711
    1   AR   Ar  233   6.697   2.061   3.746
    1   AR   Ar  234   6.154   2.782   4.537
    1   AR   Ar  235   6.536   0.802   3.889
    1   AR   Ar  236   3.990   4.515   5.375
    1   AR   Ar  237   4.679   0.270   7.581
    1   AR   Ar  238   4.971   5.018   6.589
    1   AR   Ar  239   1.070   4.462  11.318
    1   AR   Ar  240   1.891   3.275   6.903
    1   AR   Ar  241   1.610   0.121   0.592
    1   AR   Ar  242   5.751   5.702   1.543
    1   AR   Ar  243   4.782   6.566   2.067
    1   AR   Ar  244   6.587   6.210   0.153
    1   AR   Ar  245   3.550   1.095   3.504
    1   AR   Ar  246   5.965   0.393  -1.175
    1   AR   Ar  247   7.066   3.693   1.712
    1   AR   Ar  248   5.791   5.349  -0.143
    1   AR   Ar  249   4.073   7.079   1.514
    1   AR   Ar  250   5.106   6.737   3.632
    1   AR   Ar  251   4.755   4.335   4.184
    1   AR   Ar  252   2.825   4.986   2.021
    1   AR   Ar  253   4.808   2.445   8.178
    1   AR   Ar  254   4.867   3.274  12.047
    1   AR   Ar  255   4.392   6.819   9.065
    1   AR   Ar  256   5.641   5.699   3.485
    7.12000  7.12000 12.00000
Argon-slab step 5230
  256
    1   AR   Ar    1   4.065   3.370  -2.868
    1   AR   Ar    2   5.399   6.441   0.467
    1   AR   Ar    3   3.794   3.634  -1.172
    1   AR   Ar    4   2.772   1.020   0.600
    1   AR   Ar    5   6.724   5.366  -0.502
    1   AR   Ar    6   0.882   1.342   2.370
    1   AR   Ar    7   5.679   4.575   3.243
    1   AR   Ar    8   6.488   3.452  -1.183
    1   AR   Ar    9   6.805   6.585   4.617
    1   AR   Ar   10   6.106   4.961   5.413
    1   AR   Ar   11   1.211   6.760   5.074
    1   AR   Ar   12   0.190   1.250   4.386
    1   AR   Ar   13   7.073   0.519   4.982
    1   AR   Ar   14   3.811   0.596   6.991
    1   AR   Ar   15   2.518   6.499   9.644
    1   AR   Ar   16   0.629   0.066   5.808
    1   AR   Ar   17   6.108   3.895   1.292
    1   AR   Ar   18   7.013   4.623  -1.506
    1   AR   Ar   19   5.524   4.526   0.739
    1   AR   Ar   20   6.686   3.720  -2.631
    1   AR   Ar   21   2.337   1.504   1.756
    1   AR   Ar   22   5.151   0.780   1.764
    1   AR   Ar   23   1.027   6.253   0.915
    1   AR   Ar   24   5.716   2.758   3.247
    1   AR   Ar   25   1.116   3.057   5.248
    1   AR   Ar   26   5.830   6.227   4.435
    1   AR   Ar   27   1.467   0.620   1.739
    1   AR   Ar   28   2.093   2.679   3.692
    1   AR   Ar   29   4.937   1.335   7.971
    1   AR   Ar   30   7.119   1.218   3.021
    1   AR   Ar   31   1.779   0.418   6.509
    1   AR   Ar   32   1.300   2.014   5.359
    1   AR   Ar   33   0.087   4.659   0.392
    1   AR   Ar   34   1.580   5.060   2.569
    1   AR   Ar   35   5.255   5.574   2.527
    1   AR   Ar   36   4.816   2.611  -3.215
    1   AR   Ar   37   3.947   3.067   1.628
    1   AR   Ar   38   5.890   4.947   4.373
    1   AR   Ar   39   0.502   2.553   4.055
    1   AR   Ar   40   0.812   4.139   2.213
    1   AR   Ar   41   0.706   1.771   3.468
    1   AR   Ar   42   5.000   5.390   5.637
    1   AR   Ar   43   0.201   3.282   5.978
    1   AR   Ar   44   0.135   3.888   3.139
    1   AR   Ar   45   2.112   3.556   5.136
    1   AR   Ar   46   6.229   4.848   6.605
    1   AR   Ar   47   3.128   3.757   7.422
    1   AR   Ar   48   7.002   3.454   7.256
    1   AR   Ar   49   0.480   0.839   0.876
    1   AR   Ar   50   3.217   4.688   0.192
    1   AR   Ar   51   5.448   3.609   2.702
    1   AR   Ar   52   5.375   3.568  -1.232
    1   AR   Ar   53   4.362   0.372   3.300
    1   AR   Ar   54   6.712   7.093   2.551
    1   AR   Ar   55   0.002   4.936   2.294
    1   AR   Ar   56   5.919   1.840   2.791
    1   AR   Ar   57   4.028   4.722   2.273
    1   AR   Ar   58   1.116   3.476   3.964
    1   AR   Ar   59   2.819   5.699   5.475
    1   AR   Ar   60   0.209   5.766   3.121
    1   AR   Ar   61   6.916   4.299   6.037
    1   AR   Ar   62   0.113   4.372   4.966
    1   AR   Ar   63   2.803   3.032   8.073
    1   AR   Ar   64   0.319   5.296   4.715
    1   AR   Ar   65   4.033   1.005   2.527
    1   AR   Ar   66   1.499   1.291   0.595
    1   AR   Ar   67   5.038   0.260  -0.752
    1   AR   Ar   68   7.119   1.317  -0.384
    1   AR   Ar   69   2.630   1.775  -0.150
    1   AR   Ar   70   7.107   1.222   1.696
    1   AR   Ar   71   2.867   0.706   2.547
    1   AR   Ar   72   4.180   1.102   1.226
    1   AR   Ar   73   3.007   0.081   3.988
    1   AR   Ar   74   1.272   0.908   3.429
    1   AR   Ar   75   2.846   0.638   5.196
    1   AR   Ar   76   2.425   0.282   1.182
    1   AR   Ar   77   1.762   5.771   5.329
    1   AR   Ar   78   0.090   5.267   5.785
    1   AR   Ar   79   3.196   6.680   5.568
    1   AR   Ar   80   3.889   5.585   5.546
    1   AR   Ar   81   1.882   6.395   1.407
    1   AR   Ar   82   6.776   5.478   1.484
    1   AR   Ar   83   1.104   3.472   0.991
    1   AR   Ar   84   1.181   4.553   1.228
    1   AR   Ar   85   0.597   3.307  -0.186
    1   AR   Ar   86   1.886   5.335   1.297
    1   AR   Ar   87   3.386   3.127   2.585
    1   AR   Ar   88   3.545   5.379   1.093
    1   AR   Ar   89   6.469   2.281   1.239
    1   AR   Ar   90   3.269   1.331   5.802
    1   AR   Ar   91   2.056   1.315   2.825
    1   AR   Ar   92   2.601   2.218   1.001
    1   AR   Ar   93   1.913   0.830   5.383
    1   AR   Ar   94   0.434   6.833   8.101
    1   AR   Ar   95   4.593   1.019   5.609
    1   AR   Ar   96   2.271   6.738   4.971
    1   AR   Ar   97   3.384   1.981  -1.233
    1   AR   Ar   98   1.881   4.527   4.260
    1   AR   Ar   99   6.204   7.048   0.148
    1   AR   Ar  100   6.011   2.811  -2.185
    1   AR   Ar  101   3.882   6.086   2.710
    1   AR   Ar  102   3.417   1.955   2.254
    1   AR   Ar  103   2.062   4.170   0.904
    1   AR   Ar  104   3.093   0.167  -1.495
    1   AR   Ar  105   2.661   2.165   2.881
    1   AR   Ar  106   4.047   1.678   4.110
    1   AR   Ar  107   0.993   4.876   5.520
    1   AR   Ar  108   2.131   0.582   3.860
    1   AR   Ar  109   2.023   4.738   5.277
    1   AR   Ar  110   2.249   2.280   4.942
    1   AR   Ar  111   3.237   4.964   7.237
    1   AR   Ar  112   6.055   6.279   5.699
    1   AR   Ar  113   0.656   5.755  -1.409
    1   AR   Ar  114   2.709   0.202  -0.066
    1   AR   Ar  115   0.484   5.518   0.244
    1   AR   Ar  116   5.339   0.405   0.419
    1   AR   Ar  117   7.086   4.677   3.665
    1   AR   Ar  118   2.177   6.519   3.450
    1   AR   Ar  119   1.599   4.105   3.188
    1   AR   Ar  120   2.015   0.060   2.486
    1   AR   Ar  121   5.256   4.352   5.780
    1   AR   Ar  122   2.828   5.273   3.641
    1   AR   Ar  123   3.467   2.180   5.186
    1   AR   Ar  124   0.777   5.663   1.873
    1   AR   Ar  125   5.910   3.484   3.884
    1   AR   Ar  126   7.009   0.264   7.386
    1   AR   Ar  127   5.067   3.001   6.015
    1   AR   Ar  128   0.927   3.737   6.476
    1   AR   Ar  129   1.965   5.813   4.141
    1   AR   Ar  130   3.988   0.716  -4.793
    1   AR   Ar  131   4.018   6.972  -1.006
    1   AR   Ar  132   1.147   2.333   0.908
    1   AR   Ar  133   3.982   0.293   4.323
    1   AR   Ar  134   2.695   1.655   3.812
    1   AR   Ar  135   5.972   0.228   5.031
    1   AR   Ar  136   5.680   6.588   2.553
    1   AR   Ar  137   2.535   4.179   6.137
    1   AR   Ar  138   5.682   1.133   6.161
    1   AR   Ar  139   6.114   1.360   4.786
    1   AR   Ar  140   4.162   6.635   5.153
    1   AR   Ar  141   3.768   5.440   4.562
    1   AR   Ar  142   5.069   6.274   8.172
    1   AR   Ar  143   5.417   6.824   6.701
    1   AR   Ar  144   0.161   2.216   5.124
    1   AR   Ar  145   4.787   4.926  -0.964
    1   AR   Ar  146   3.647   2.304   3.215
    1   AR   Ar  147   5.319   4.070  -0.302
    1   AR   Ar  148   3.132   5.982  -0.925
    1   AR   Ar  149   0.208   2.289  -0.815
    1   AR   Ar  150   1.565   2.475   1.997
    1   AR   Ar  151   2.410   3.428   3.103
    1   AR   Ar  152   0.836   1.063  -1.604
    1   AR   Ar  153   5.469   0.933   3.182
    1   AR   Ar  154   4.422   2.920   3.733
    1   AR   Ar  155   5.883   3.493   5.358
    1   AR   Ar  156   3.103   4.236   2.937
    1   AR   Ar  157   3.062   5.768   6.652
    1   AR   Ar  158   0.530   2.722   6.844
    1   AR   Ar  159   3.769   0.305   5.823
    1   AR   Ar  160   1.339   1.201   4.554
    1   AR   Ar  161   4.695   4.594   3.066
    1   AR   Ar  162   4.071   5.907  -0.431
    1   AR   Ar  163   6.405   4.129   2.342
    1   AR   Ar  164   2.143   5.959   2.346
    1   AR   Ar  165   3.120   3.896   1.245
    1   AR   Ar  166   3.128   3.386   5.102
    1   AR   Ar  167   6.215   6.862   3.725
    1   AR   Ar  168   6.283   4.679  -2.271
    1   AR   Ar  169   3.839   3.686   3.368
    1   AR   Ar  170   2.833   3.095   6.177
    1   AR   Ar  171   4.839   5.591   4.369
    1   AR   Ar  172   4.121   3.390   4.667
    1   AR   Ar  173   2.780   1.952   6.523
    1   AR   Ar  174   2.979   6.121   4.542
    1   AR   Ar  175   2.913   0.346   6.424
    1   AR   Ar  176   3.133   2.840   4.072
    1   AR   Ar  177   0.027   4.150  -0.580
    1   AR   Ar  178   2.211   6.213   0.425
    1   AR   Ar  179   3.244   6.534   0.840
    1   AR   Ar  180   4.918   0.449  -7.874
    1   AR   Ar  181   7.017   6.442   1.831
    1   AR   Ar  182   1.192   6.576   2.613
    1   AR   Ar  183   4.671   5.371   1.601
    1   AR   Ar  184   4.366   5.301   0.543
    1   AR   Ar  185   3.083   4.421   4.657
    1   AR   Ar  186   3.033   6.920   2.923
    1   AR   Ar  187   4.189   6.439   4.032
    1   AR   Ar  188   3.260   0.930   1.622
    1   AR   Ar  189   5.981   2.430   5.467
    1   AR   Ar  190   1.177   7.049   4.038
    1   AR   Ar  191   3.830   6.608   6.639
    1   AR   Ar  192   3.911   3.122   5.812
    1   AR   Ar  193   3.032   6.350   1.859
    1   AR   Ar  194   4.911   6.225  -1.054
    1   AR   Ar  195   6.271   0.742   0.759
    1   AR   Ar  196   3.680   0.419   0.541
    1   AR   Ar  197   4.780   3.164   0.821
    1   AR   Ar  198   6.162   6.723   1.295
    1   AR   Ar  199   0.710   0.408   2.704
    1   AR   Ar  200   6.374   2.765  -0.416
    1   AR   Ar  201   6.336   5.757   2.465
    1   AR   Ar  202   5.379   0.554   4.147
    1   AR   Ar  203   0.281   6.907   3.496
    1   AR   Ar  204   4.170   4.474   7.430
    1   AR   Ar  205   5.677   1.809   1.776
    1   AR   Ar  206   6.248   0.234   6.304
    1   AR   Ar  207   0.096   3.445   4.443
    1   AR   Ar  208   0.864   5.952   3.965
    1   AR   Ar  209   6.975   2.154  -1.805
    1   AR   Ar  210   1.970   0.880  -0.251
    1   AR   Ar  211   6.797   3.004   0.548
    1   AR   Ar  212   6.260   3.856  -0.146
    1   AR   Ar  213   3.781   2.175   1.300
    1   AR   Ar  214   5.263   4.475   2.005
    1   AR   Ar  215   0.370   2.489   1.480
    1   AR   Ar  216   1.825   2.288   0.113
    1   AR   Ar  217   5.513   1.757   3.869
    1   AR   Ar  218   4.914   2.630   4.985
    1   AR   Ar  219   4.499   3.673   2.495
    1   AR   Ar  220   4.432   3.952   1.393
    1   AR   Ar  221   6.740   5.767   3.995
    1   AR   Ar  222   5.104   7.023   5.690
    1   AR   Ar  223   6.780   1.707   5.819
    1   AR   Ar  224   5.172   1.648   5.027
    1   AR   Ar  225   6.773   2.410   2.510
    1   AR   Ar  226   2.153   3.547   4.034
    1   AR   Ar  227   0.790   2.779   3.063
    1   AR   Ar  228   6.165   0.684   1.903
    1   AR   Ar  229   6.211   4.559  -0.932
    1   AR   Ar  230   3.743   4.647   3.819
    1   AR   Ar  231   4.627   1.951   2.560
    1   AR   Ar  232   5.235   2.722   1.687
    1   AR   Ar  233   6.698   2.080   3.739
    1   AR   Ar  234   6.153   2.774   4.532
    1   AR   Ar  235   6.530   0.810   3.867
    1   AR   Ar  236   3.989   4.504   5.371
    1   AR   Ar  237   4.690   0.248   7.590
    1   AR   Ar  238   4.966   5.028   6.625
    1   AR   Ar  239   1.078   4.452  11.313
    1   AR   Ar  240   1.878   3.313   6.859
    1   AR   Ar  241   1.606   0.129   0.607
    1   AR   Ar  242   5.754   5.730   1.586
    1   AR   Ar  243   4.799   6.569   2.068
    1   AR   Ar  244   6.591   6.184   0.145
    1   AR   Ar  245   3.567   1.085   3.468
    1   AR   Ar  246   5.969   0.387  -1.173
    1   AR   Ar  247   7.082   3.639   1.712
    1   AR   Ar  248   5.762   5.351  -0.179
    1   AR   Ar  249   4.056   7.077   1.533
    1   AR   Ar  250   5.117   6.723   3.692
    1   AR   Ar  251   4.763   4.341   4.162
    1   AR   Ar  252   2.827   5.013   2.053
    1   AR   Ar  253   4.784   2.428   8.199
    1   AR   Ar  254   4.841   3.276  12.088
    1   AR   Ar  255   4.401   6.848   9.070
    1   AR   Ar  256   5.638   5.694   3.477
    7.12000  7.12000 12.00000
Argon-slab step 5235
  256
    1   AR   Ar    1   4.074   3.371  -2.869
    1   AR   Ar    2   5.388   6.437   0.440
    1   AR   Ar    3   3.804   3.639  -1.156
    1   AR   Ar    4   2.773   1.007   0.577
    1   AR   Ar    5   6.714   5.371  -0.528
    1   AR   Ar    6   0.870   1.320   2.327
    1   AR   Ar    7   5.707   4.557   3.225
    1   AR   Ar    8   6.496   3.435  -1.170
    1   AR   Ar    9   6.823   6.559   4.607
    1   AR   Ar   10   6.097   4.938   5.407
    1   AR   Ar   11   1.220   6.773   5.109
    1   AR   Ar   12   0.200   1.249   4.412
    1   AR   Ar   13   0.001   0.501   4.984
    1   AR   Ar   14   3.789   0.590   7.013
    1   AR   Ar   15   2.499   6.478   9.657
    1   AR   Ar   16   0.605   0.057   5.781
    1   AR   Ar   17   6.100   3.876   1.279
    1   AR   Ar   18   7.034   4.614  -1.526
    1   AR   Ar   19   5.523   4.540   0.708
    1   AR   Ar   20   6.684   3.727  -2.627
    1   AR   Ar   21   2.336   1.478   1.725
    1   AR   Ar   22   5.177   0.719   1.768
    1   AR   Ar   23   1.024   6.259   0.934
    1   AR   Ar   24   5.728   2.742   3.249
    1   AR   Ar   25   1.100   3.042   5.260
    1   AR   Ar   26   5.776   6.206   4.465
    1   AR   Ar   27   1.453   0.613   1.725
    1   AR   Ar   28   2.138   2.696   3.654
    1   AR   Ar   29   4.937   1.374   7.971
    1   AR   Ar   30   7.095   1.203   3.056
    1   AR   Ar   31   1.754   0.438   6.469
    1   AR   Ar   32   1.294   1.975   5.357
    1   AR   Ar   33   0.073   4.641   0.410
    1   AR   Ar   34   1.556   5.075   2.587
    1   AR   Ar   35   5.207   5.568   2.538
    1   AR   Ar   36   4.832   2.578  -3.215
    1   AR   Ar   37   3.927   3.080   1.607
    1   AR   Ar   38   5.897   4.940   4.351
    1   AR   Ar   39   0.469   2.576   4.051
    1   AR   Ar   40   0.804   4.191   2.209
    1   AR   Ar   41   0.720   1.784   3.481
    1   AR   Ar   42   5.022   5.365   5.638
    1   AR   Ar   43   0.217   3.253   5.983
    1   AR   Ar   44   0.142   3.909   3.162
    1   AR   Ar   45   2.113   3.581   5.126
    1   AR   Ar   46   6.182   4.860   6.604
    1   AR   Ar   47   3.122   3.749   7.394
    1   AR   Ar   48   6.974   3.436   7.255
    1   AR   Ar   49   0.501   0.844   0.892
    1   AR   Ar   50   3.168   4.694   0.182
    1   AR   Ar   51   5.410   3.611   2.698
    1   AR   Ar   52   5.367   3.619  -1.203
    1   AR   Ar   53   4.360   0.378   3.295
    1   AR   Ar   54   6.707   7.092   2.530
    1   AR   Ar   55   7.107   4.955   2.296
    1   AR   Ar   56   5.912   1.845   2.776
    1   AR   Ar   57   4.046   4.709   2.251
    1   AR   Ar   58   1.123   3.473   3.974
    1   AR   Ar   59   2.824   5.713   5.492
    1   AR   Ar   60   0.192   5.731   3.106
    1   AR   Ar   61   6.928   4.286   6.055
    1   AR   Ar   62   0.100   4.365   4.951
    1   AR   Ar   63   2.753   3.058   8.116
    1   AR   Ar   64   0.307   5.308   4.712
    1   AR   Ar   65   4.044   0.997   2.550
    1   AR   Ar   66   1.484   1.255   0.580
    1   AR   Ar   67   5.052   0.272  -0.737
    1   AR   Ar   68   7.104   1.272  -0.360
    1   AR   Ar   69   2.635   1.787  -0.169
    1   AR   Ar   70   0.011   1.231   1.707
    1   AR   Ar   71   2.878   0.709   2.569
    1   AR   Ar   72   4.202   1.081   1.212
    1   AR   Ar   73   2.976   0.076   4.017
    1   AR   Ar   74   1.291   0.875   3.414
    1   AR   Ar   75   2.825   0.620   5.210
    1   AR   Ar   76   2.431   0.288   1.198
    1   AR   Ar   77   1.722   5.762   5.311
    1   AR   Ar   78   0.077   5.282   5.776
    1   AR   Ar   79   3.203   6.683   5.536
    1   AR   Ar   80   3.850   5.560   5.570
    1   AR   Ar   81   1.876   6.393   1.421
    1   AR   Ar   82   6.763   5.509   1.450
    1   AR   Ar   83   1.051   3.460   0.982
    1   AR   Ar   84   1.188   4.541   1.230
    1   AR   Ar   85   0.588   3.331  -0.169
    1   AR   Ar   86   1.900   5.349   1.274
    1   AR   Ar   87   3.422   3.123   2.596
    1   AR   Ar   88   3.529   5.383   1.127
    1   AR   Ar   89   6.498   2.276   1.232
    1   AR   Ar   90   3.308   1.349   5.824
    1   AR   Ar   91   2.038   1.354   2.831
    1   AR   Ar   92   2.604   2.238   0.981
    1   AR   Ar   93   1.876   0.829   5.388
    1   AR   Ar   94   0.416   6.823   8.122
    1   AR   Ar   95   4.598   0.989   5.633
    1   AR   Ar   96   2.261   6.767   4.957
    1   AR   Ar   97   3.408   1.970  -1.245
    1   AR   Ar   98   1.889   4.557   4.251
    1   AR   Ar   99   6.181   7.068   0.140
    1   AR   Ar  100   5.980   2.843  -2.175
    1   AR   Ar  101   3.899   6.043   2.718
    1   AR   Ar  102   3.407   1.943   2.282
    1   AR   Ar  103   2.062   4.168   0.921
    1   AR   Ar  104   3.097   0.158  -1.499
    1   AR   Ar  105   2.653   2.183   2.887
    1   AR   Ar  106   4.045   1.674   4.094
    1   AR   Ar  107   1.037   4.839   5.550
    1   AR   Ar  108   2.102   0.585   3.846
    1   AR   Ar  109   2.013   4.760   5.268
    1   AR   Ar  110   2.243   2.278   4.929
    1   AR   Ar  111   3.226   4.938   7.233
    1   AR   Ar  112   6.052   6.250   5.731
    1   AR   Ar  113   0.615   5.750  -1.394
    1   AR   Ar  114   2.732   0.196  -0.083
    1   AR   Ar  115   0.479   5.512   0.253
    1   AR   Ar  116   5.352   0.393   0.375
    1   AR   Ar  117   7.075   4.669   3.658
    1   AR   Ar  118   2.167   6.562   3.474
    1   AR   Ar  119   1.593   4.129   3.129
    1   AR   Ar  120   1.994   0.059   2.498
    1   AR   Ar  121   5.276   4.363   5.773
    1   AR   Ar  122   2.841   5.272   3.624
    1   AR   Ar  123   3.488   2.163   5.181
    1   AR   Ar  124   0.779   5.651   1.857
    1   AR   Ar  125   5.913   3.515   3.888
    1   AR   Ar  126   7.056   0.269   7.387
    1   AR   Ar  127   5.056   2.982   6.012
    1   AR   Ar  128   0.953   3.755   6.476
    1   AR   Ar  129   1.992   5.836   4.133
    1   AR   Ar  130   4.000   0.689  -4.806
    1   AR   Ar  131   3.993   6.969  -0.968
    1   AR   Ar  132   1.162   2.330   0.918
    1   AR   Ar  133   4.001   0.296   4.310
    1   AR   Ar  134   2.694   1.657   3.790
    1   AR   Ar  135   5.996   0.197   5.025
    1   AR   Ar  136   5.687   6.578   2.563
    1   AR   Ar  137   2.520   4.169   6.146
    1   AR   Ar  138   5.699   1.142   6.161
    1   AR   Ar  139   6.112   1.358   4.759
    1   AR   Ar  140   4.156   6.663   5.188
    1   AR   Ar  141   3.793   5.430   4.544
    1   AR   Ar  142   5.088   6.259   8.180
    1   AR   Ar  143   5.422   6.821   6.699
    1   AR   Ar  144   0.144   2.227   5.134
    1   AR   Ar  145   4.814   4.934  -0.976
    1   AR   Ar  146   3.627   2.300   3.215
    1   AR   Ar  147   5.319   4.078  -0.272
    1   AR   Ar  148   3.126   5.998  -0.902
    1   AR   Ar  149   0.213   2.266  -0.806
    1   AR   Ar  150   1.563   2.505   1.997
    1   AR   Ar  151   2.432   3.429   3.086
    1   AR   Ar  152   0.839   1.043  -1.583
    1   AR   Ar  153   5.460   0.943   3.209
    1   AR   Ar  154   4.413   2.896   3.752
    1   AR   Ar  155   5.863   3.455   5.335
    1   AR   Ar  156   3.070   4.261   2.943
    1   AR   Ar  157   3.040   5.773   6.634
    1   AR   Ar  158   0.516   2.742   6.860
    1   AR   Ar  159   3.742   0.338   5.804
    1   AR   Ar  160   1.358   1.209   4.567
    1   AR   Ar  161   4.690   4.589   3.093
    1   AR   Ar  162   4.080   5.901  -0.454
    1   AR   Ar  163   6.400   4.139   2.352
    1   AR   Ar  164   2.154   5.957   2.366
    1   AR   Ar  165   3.107   3.875   1.234
    1   AR   Ar  166   3.105   3.425   5.107
    1   AR   Ar  167   6.232   6.864   3.755
    1   AR   Ar  168   6.308   4.681  -2.246
    1   AR   Ar  169   3.865   3.677   3.365
    1   AR   Ar  170   2.833   3.115   6.179
    1   AR   Ar  171   4.807   5.568   4.357
    1   AR   Ar  172   4.107   3.391   4.691
    1   AR   Ar  173   2.778   1.925   6.528
    1   AR   Ar  174   2.976   6.127   4.519
    1   AR   Ar  175   2.931   0.346   6.435
    1   AR   Ar  176   3.134   2.865   4.069
    1   AR   Ar  177   0.049   4.156  -0.557
    1   AR   Ar  178   2.176   6.239   0.464
    1   AR   Ar  179   3.232   6.575   0.837
    1   AR   Ar  180   4.914   0.425  -7.842
    1   AR   Ar  181   7.025   6.433   1.825
    1   AR   Ar  182   1.168   6.589   2.598
    1   AR   Ar  183   4.680   5.361   1.596
    1   AR   Ar  184   4.368   5.307   0.533
    1   AR   Ar  185   3.103   4.412   4.631
    1   AR   Ar  186   3.039   6.917   2.907
    1   AR   Ar  187   4.164   6.417   4.014
    1   AR   Ar  188   3.257   0.911   1.619
    1   AR   Ar  189   5.954   2.433   5.486
    1   AR   Ar  190   1.164   7.053   4.050
    1   AR   Ar  191   3.837   6.617   6.626
    1   AR   Ar  192   3.887   3.132   5.800
    1   AR   Ar  193   3.050   6.329   1.880
    1   AR   Ar  194   4.905   6.235  -1.023
    1   AR   Ar  195   6.287   0.755   0.763
    1   AR   Ar  196   3.720   0.400   0.520
    1   AR   Ar  197   4.798   3.166   0.850
    1   AR   Ar  198   6.163   6.741   1.306
    1   AR   Ar  199   0.666   0.393   2.700
    1   AR   Ar  200   6.390   2.749  -0.412
    1   AR   Ar  201   6.343   5.728   2.458
    1   AR   Ar  202   5.362   0.555   4.166
    1   AR   Ar  203   0.276   6.910   3.518
    1   AR   Ar  204   4.181   4.505   7.469
    1   AR   Ar  205   5.711   1.830   1.777
    1   AR   Ar  206   6.246   0.256   6.275
    1   AR   Ar  207   0.143   3.480   4.436
    1   AR   Ar  208   0.852   5.955   3.978
    1   AR   Ar  209   6.972   2.161  -1.799
    1   AR   Ar  210   2.000   0.870  -0.274
    1   AR   Ar  211   6.813   3.028   0.543
    1   AR   Ar  212   6.258   3.855  -0.137
    1   AR   Ar  213   3.766   2.192   1.292
    1   AR   Ar  214   5.276   4.446   1.998
    1   AR   Ar  215   0.361   2.468   1.506
    1   AR   Ar  216   1.808   2.287   0.083
    1   AR   Ar  217   5.519   1.776   3.849
    1   AR   Ar  218   4.911   2.618   4.964
    1   AR   Ar  219   4.484   3.696   2.500
    1   AR   Ar  220   4.430   3.968   1.380
    1   AR   Ar  221   6.755   5.776   3.967
    1   AR   Ar  222   5.128   7.041   5.718
    1   AR   Ar  223   6.789   1.700   5.843
    1   AR   Ar  224   5.168   1.636   5.020
    1   AR   Ar  225   6.765   2.377   2.503
    1   AR   Ar  226   2.148   3.545   4.030
    1   AR   Ar  227   0.805   2.783   3.081
    1   AR   Ar  228   6.146   0.665   1.900
    1   AR   Ar  229   6.194   4.524  -0.910
    1   AR   Ar  230   3.727   4.669   3.826
    1   AR   Ar  231   4.658   1.978   2.566
    1   AR   Ar  232   5.256   2.731   1.666
    1   AR   Ar  233   6.696   2.098   3.731
    1   AR   Ar  234   6.157   2.760   4.527
    1   AR   Ar  235   6.519   0.817   3.844
    1   AR   Ar  236   3.989   4.492   5.365
    1   AR   Ar  237   4.662   0.241   7.608
    1   AR   Ar  238   4.961   5.037   6.664
    1   AR   Ar  239   1.086   4.442  11.308
    1   AR   Ar  240   1.866   3.351   6.814
    1   AR   Ar  241   1.597   0.135   0.618
    1   AR   Ar  242   5.752   5.758   1.625
    1   AR   Ar  243   4.812   6.576   2.070
    1   AR   Ar  244   6.604   6.135   0.140
    1   AR   Ar  245   3.576   1.070   3.427
    1   AR   Ar  246   5.931   0.404  -1.160
    1   AR   Ar  247   7.080   3.624   1.704
    1   AR   Ar  248   5.726   5.351  -0.213
    1   AR   Ar  249   4.035   7.078   1.550
    1   AR   Ar  250   5.132   6.707   3.748
    1   AR   Ar  251   4.771   4.348   4.140
    1   AR   Ar  252   2.829   5.041   2.086
    1   AR   Ar  253   4.760   2.411   8.219
    1   AR   Ar  254   4.815   3.277  12.128
    1   AR   Ar  255   4.411   6.876   9.073
    1   AR   Ar  256   5.637   5.690   3.474
    7.12000  7.12000 12.00000
Argon-slab step 5240
  256
    1   AR   Ar    1   4.083   3.373  -2.871
    1   AR   Ar    2   5.377   6.428   0.414
    1   AR   Ar    3   3.816   3.644  -1.141
    1   AR   Ar    4   2.775   1.002   0.555
    1   AR   Ar    5   6.716   5.370  -0.546
    1   AR   Ar    6   0.864   1.299   2.308
    1   AR   Ar    7   5.740   4.539   3.208
    1   AR   Ar    8   6.508   3.411  -1.169
    1   AR   Ar    9   6.844   6.539   4.603
    1   AR   Ar   10   6.091   4.916   5.403
    1   AR   Ar   11   1.232   6.782   5.138
    1   AR   Ar   12   0.202   1.265   4.424
    1   AR   Ar   13   0.043   0.470   4.995
    1   AR   Ar   14   3.779   0.585   7.019
    1   AR   Ar   15   2.480   6.457   9.671
    1   AR   Ar   16   0.576   0.053   5.762
    1   AR   Ar   17   6.093   3.854   1.268
    1   AR   Ar   18   7.062   4.606  -1.544
    1   AR   Ar   19   5.520   4.557   0.675
    1   AR   Ar   20   6.680   3.732  -2.622
    1   AR   Ar   21   2.333   1.451   1.696
    1   AR   Ar   22   5.189   0.658   1.770
    1   AR   Ar   23   1.021   6.236   0.919
    1   AR   Ar   24   5.733   2.743   3.257
    1   AR   Ar   25   1.082   3.029   5.270
    1   AR   Ar   26   5.721   6.183   4.499
    1   AR   Ar   27   1.438   0.606   1.709
    1   AR   Ar   28   2.175   2.673   3.616
    1   AR   Ar   29   4.937   1.411   7.970
    1   AR   Ar   30   7.069   1.187   3.086
    1   AR   Ar   31   1.729   0.459   6.427
    1   AR   Ar   32   1.286   1.934   5.356
    1   AR   Ar   33   0.051   4.610   0.432
    1   AR   Ar   34   1.530   5.082   2.604
    1   AR   Ar   35   5.155   5.559   2.547
    1   AR   Ar   36   4.849   2.546  -3.214
    1   AR   Ar   37   3.910   3.110   1.594
    1   AR   Ar   38   5.911   4.927   4.319
    1   AR   Ar   39   0.435   2.601   4.055
    1   AR   Ar   40   0.797   4.243   2.207
    1   AR   Ar   41   0.738   1.792   3.492
    1   AR   Ar   42   5.044   5.346   5.636
    1   AR   Ar   43   0.227   3.222   5.982
    1   AR   Ar   44   0.157   3.903   3.167
    1   AR   Ar   45   2.106   3.608   5.117
    1   AR   Ar   46   6.132   4.874   6.602
    1   AR   Ar   47   3.117   3.745   7.363
    1   AR   Ar   48   6.944   3.422   7.254
    1   AR   Ar   49   0.525   0.846   0.905
    1   AR   Ar   50   3.120   4.701   0.174
    1   AR   Ar   51   5.363   3.586   2.699
    1   AR   Ar   52   5.361   3.668  -1.177
    1   AR   Ar   53   4.364   0.376   3.295
    1   AR   Ar   54   6.700   7.095   2.515
    1   AR   Ar   55   7.095   4.973   2.300
    1   AR   Ar   56   5.904   1.844   2.767
    1   AR   Ar   57   4.068   4.696   2.236
    1   AR   Ar   58   1.128   3.470   3.982
    1   AR   Ar   59   2.828   5.726   5.503
    1   AR   Ar   60   0.178   5.696   3.086
    1   AR   Ar   61   6.940   4.270   6.073
    1   AR   Ar   62   0.084   4.354   4.944
    1   AR   Ar   63   2.736   3.075   8.136
    1   AR   Ar   64   0.288   5.324   4.696
    1   AR   Ar   65   4.056   0.992   2.558
    1   AR   Ar   66   1.471   1.220   0.568
    1   AR   Ar   67   5.054   0.281  -0.717
    1   AR   Ar   68   7.087   1.240  -0.343
    1   AR   Ar   69   2.648   1.795  -0.190
    1   AR   Ar   70   0.029   1.242   1.723
    1   AR   Ar   71   2.884   0.726   2.569
    1   AR   Ar   72   4.228   1.061   1.198
    1   AR   Ar   73   2.949   0.066   4.048
    1   AR   Ar   74   1.293   0.845   3.394
    1   AR   Ar   75   2.815   0.597   5.219
    1   AR   Ar   76   2.439   0.288   1.223
    1   AR   Ar   77   1.680   5.759   5.291
    1   AR   Ar   78   0.060   5.298   5.768
    1   AR   Ar   79   3.198   6.679   5.503
    1   AR   Ar   80   3.816   5.537   5.599
    1   AR   Ar   81   1.879   6.400   1.447
    1   AR   Ar   82   6.751   5.536   1.411
    1   AR   Ar   83   0.996   3.448   0.973
    1   AR   Ar   84   1.184   4.533   1.236
    1   AR   Ar   85   0.578   3.353  -0.149
    1   AR   Ar   86   1.915   5.362   1.251
    1   AR   Ar   87   3.456   3.119   2.603
    1   AR   Ar   88   3.507   5.388   1.166
    1   AR   Ar   89   6.523   2.271   1.226
    1   AR   Ar   90   3.337   1.365   5.854
    1   AR   Ar   91   2.018   1.389   2.836
    1   AR   Ar   92   2.606   2.257   0.961
    1   AR   Ar   93   1.830   0.829   5.397
    1   AR   Ar   94   0.398   6.810   8.146
    1   AR   Ar   95   4.603   0.957   5.660
    1   AR   Ar   96   2.251   6.798   4.942
    1   AR   Ar   97   3.430   1.959  -1.256
    1   AR   Ar   98   1.897   4.588   4.238
    1   AR   Ar   99   6.170   7.084   0.125
    1   AR   Ar  100   5.951   2.877  -2.163
    1   AR   Ar  101   3.916   6.000   2.725
    1   AR   Ar  102   3.403   1.925   2.300
    1   AR   Ar  103   2.070   4.164   0.936
    1   AR   Ar  104   3.099   0.149  -1.503
    1   AR   Ar  105   2.637   2.208   2.891
    1   AR   Ar  106   4.047   1.676   4.082
    1   AR   Ar  107   1.075   4.801   5.579
    1   AR   Ar  108   2.084   0.586   3.840
    1   AR   Ar  109   2.013   4.778   5.261
    1   AR   Ar  110   2.239   2.277   4.914
    1   AR   Ar  111   3.214   4.910   7.231
    1   AR   Ar  112   6.044   6.231   5.752
    1   AR   Ar  113   0.573   5.744  -1.377
    1   AR   Ar  114   2.747   0.171  -0.099
    1   AR   Ar  115   0.479   5.519   0.260
    1   AR   Ar  116   5.352   0.385   0.330
    1   AR   Ar  117   7.057   4.689   3.669
    1   AR   Ar  118   2.157   6.614   3.491
    1   AR   Ar  119   1.585   4.153   3.071
    1   AR   Ar  120   1.978   0.061   2.510
    1   AR   Ar  121   5.296   4.369   5.768
    1   AR   Ar  122   2.853   5.272   3.609
    1   AR   Ar  123   3.509   2.150   5.174
    1   AR   Ar  124   0.781   5.639   1.842
    1   AR   Ar  125   5.915   3.557   3.891
    1   AR   Ar  126   7.053   0.255   7.373
    1   AR   Ar  127   5.045   2.966   6.008
    1   AR   Ar  128   0.979   3.778   6.478
    1   AR   Ar  129   2.017   5.853   4.132
    1   AR   Ar  130   4.012   0.662  -4.818
    1   AR   Ar  131   3.968   6.965  -0.928
    1   AR   Ar  132   1.182   2.326   0.926
    1   AR   Ar  133   4.020   0.302   4.300
    1   AR   Ar  134   2.692   1.667   3.776
    1   AR   Ar  135   6.020   0.164   5.018
    1   AR   Ar  136   5.701   6.570   2.577
    1   AR   Ar  137   2.505   4.159   6.153
    1   AR   Ar  138   5.713   1.155   6.159
    1   AR   Ar  139   6.117   1.355   4.731
    1   AR   Ar  140   4.157   6.689   5.218
    1   AR   Ar  141   3.814   5.419   4.525
    1   AR   Ar  142   5.107   6.244   8.187
    1   AR   Ar  143   5.427   6.817   6.701
    1   AR   Ar  144   0.134   2.251   5.117
    1   AR   Ar  145   4.842   4.942  -0.986
    1   AR   Ar  146   3.614   2.295   3.225
    1   AR   Ar  147   5.309   4.068  -0.268
    1   AR   Ar  148   3.118   6.014  -0.880
    1   AR   Ar  149   0.219   2.246  -0.795
    1   AR   Ar  150   1.561   2.532   1.997
    1   AR   Ar  151   2.461   3.436   3.052
    1   AR   Ar  152   0.842   1.024  -1.562
    1   AR   Ar  153   5.450   0.950   3.229
    1   AR   Ar  154   4.407   2.867   3.773
    1   AR   Ar  155   5.842   3.423   5.311
    1   AR   Ar  156   3.076   4.263   2.960
    1   AR   Ar  157   3.018   5.782   6.612
    1   AR   Ar  158   0.506   2.758   6.875
    1   AR   Ar  159   3.722   0.330   5.825
    1   AR   Ar  160   1.376   1.217   4.574
    1   AR   Ar  161   4.680   4.585   3.119
    1   AR   Ar  162   4.088   5.893  -0.474
    1   AR   Ar  163   6.392   4.150   2.364
    1   AR   Ar  164   2.163   5.956   2.388
    1   AR   Ar  165   3.095   3.853   1.224
    1   AR   Ar  166   3.081   3.474   5.110
    1   AR   Ar  167   6.236   6.882   3.750
    1   AR   Ar  168   6.328   4.683  -2.223
    1   AR   Ar  169   3.884   3.669   3.370
    1   AR   Ar  170   2.827   3.134   6.178
    1   AR   Ar  171   4.780   5.545   4.344
    1   AR   Ar  172   4.093   3.394   4.715
    1   AR   Ar  173   2.772   1.891   6.523
    1   AR   Ar  174   2.976   6.134   4.493
    1   AR   Ar  175   2.942   0.347   6.446
    1   AR   Ar  176   3.137   2.891   4.066
    1   AR   Ar  177   0.072   4.164  -0.537
    1   AR   Ar  178   2.143   6.265   0.499
    1   AR   Ar  179   3.232   6.580   0.839
    1   AR   Ar  180   4.910   0.401  -7.809
    1   AR   Ar  181   7.039   6.422   1.818
    1   AR   Ar  182   1.140   6.595   2.583
    1   AR   Ar  183   4.688   5.351   1.591
    1   AR   Ar  184   4.374   5.312   0.518
    1   AR   Ar  185   3.119   4.403   4.606
    1   AR   Ar  186   3.048   6.902   2.895
    1   AR   Ar  187   4.121   6.418   4.012
    1   AR   Ar  188   3.254   0.892   1.615
    1   AR   Ar  189   5.926   2.428   5.509
    1   AR   Ar  190   1.157   7.059   4.062
    1   AR   Ar  191   3.844   6.627   6.611
    1   AR   Ar  192   3.872   3.145   5.800
    1   AR   Ar  193   3.067   6.308   1.903
    1   AR   Ar  194   4.902   6.247  -0.993
    1   AR   Ar  195   6.307   0.773   0.773
    1   AR   Ar  196   3.758   0.380   0.498
    1   AR   Ar  197   4.813   3.159   0.857
    1   AR   Ar  198   6.160   6.754   1.323
    1   AR   Ar  199   0.631   0.390   2.683
    1   AR   Ar  200   6.400   2.733  -0.405
    1   AR   Ar  201   6.353   5.698   2.458
    1   AR   Ar  202   5.346   0.557   4.189
    1   AR   Ar  203   0.266   6.910   3.539
    1   AR   Ar  204   4.193   4.535   7.507
    1   AR   Ar  205   5.746   1.841   1.775
    1   AR   Ar  206   6.248   0.275   6.243
    1   AR   Ar  207   0.188   3.514   4.429
    1   AR   Ar  208   0.840   5.960   3.992
    1   AR   Ar  209   6.969   2.192  -1.797
    1   AR   Ar  210   2.025   0.864  -0.299
    1   AR   Ar  211   6.831   3.055   0.539
    1   AR   Ar  212   6.284   3.873  -0.115
    1   AR   Ar  213   3.749   2.190   1.277
    1   AR   Ar  214   5.288   4.418   1.991
    1   AR   Ar  215   0.349   2.448   1.540
    1   AR   Ar  216   1.785   2.289   0.054
    1   AR   Ar  217   5.527   1.797   3.833
    1   AR   Ar  218   4.906   2.613   4.942
    1   AR   Ar  219   4.448   3.720   2.497
    1   AR   Ar  220   4.429   3.992   1.370
    1   AR   Ar  221   6.732   5.784   3.970
    1   AR   Ar  222   5.150   7.060   5.741
    1   AR   Ar  223   6.793   1.688   5.872
    1   AR   Ar  224   5.162   1.620   5.012
    1   AR   Ar  225   6.766   2.353   2.488
    1   AR   Ar  226   2.147   3.572   4.048
    1   AR   Ar  227   0.821   2.790   3.096
    1   AR   Ar  228   6.139   0.646   1.898
    1   AR   Ar  229   6.170   4.491  -0.892
    1   AR   Ar  230   3.760   4.655   3.829
    1   AR   Ar  231   4.689   2.006   2.571
    1   AR   Ar  232   5.276   2.745   1.650
    1   AR   Ar  233   6.692   2.112   3.722
    1   AR   Ar  234   6.163   2.740   4.520
    1   AR   Ar  235   6.503   0.822   3.824
    1   AR   Ar  236   3.989   4.478   5.358
    1   AR   Ar  237   4.634   0.232   7.627
    1   AR   Ar  238   4.955   5.045   6.704
    1   AR   Ar  239   1.094   4.432  11.303
    1   AR   Ar  240   1.858   3.387   6.769
    1   AR   Ar  241   1.585   0.140   0.627
    1   AR   Ar  242   5.744   5.789   1.660
    1   AR   Ar  243   4.819   6.581   2.070
    1   AR   Ar  244   6.618   6.084   0.141
    1   AR   Ar  245   3.573   1.052   3.391
    1   AR   Ar  246   5.905   0.423  -1.151
    1   AR   Ar  247   7.065   3.636   1.690
    1   AR   Ar  248   5.686   5.351  -0.245
    1   AR   Ar  249   4.010   7.081   1.566
    1   AR   Ar  250   5.150   6.692   3.801
    1   AR   Ar  251   4.780   4.355   4.120
    1   AR   Ar  252   2.831   5.069   2.118
    1   AR   Ar  253   4.736   2.395   8.240
    1   AR   Ar  254   4.789   3.279  12.169
    1   AR   Ar  255   4.421   6.904   9.076
    1   AR   Ar  256   5.639   5.687   3.476
    7.12000  7.12000 12.00000
Argon-slab step 5245
  256
    1   AR   Ar    1   4.092   3.374  -2.872
    1   AR   Ar    2   5.364   6.416   0.389
    1   AR   Ar    3   3.828   3.650  -1.125
    1   AR   Ar    4   2.778   1.003   0.533
    1   AR   Ar    5   6.747   5.366  -0.512
    1   AR   Ar    6   0.869   1.274   2.325
    1   AR   Ar    7   5.776   4.522   3.192
    1   AR   Ar    8   6.520   3.392  -1.172
    1   AR   Ar    9   6.866   6.528   4.606
    1   AR   Ar   10   6.091   4.897   5.399
    1   AR   Ar   11   1.243   6.788   5.157
    1   AR   Ar   12   0.187   1.291   4.426
    1   AR   Ar   13   0.078   0.432   5.006
    1   AR   Ar   14   3.772   0.581   7.026
    1   AR   Ar   15   2.461   6.436   9.685
    1   AR   Ar   16   0.543   0.051   5.755
    1   AR   Ar   17   6.085   3.832   1.257
    1   AR   Ar   18   7.097   4.597  -1.555
    1   AR   Ar   19   5.517   4.577   0.643
    1   AR   Ar   20   6.677   3.736  -2.615
    1   AR   Ar   21   2.329   1.424   1.667
    1   AR   Ar   22   5.180   0.597   1.769
    1   AR   Ar   23   1.015   6.206   0.895
    1   AR   Ar   24   5.737   2.747   3.268
    1   AR   Ar   25   1.064   3.017   5.279
    1   AR   Ar   26   5.670   6.157   4.537
    1   AR   Ar   27   1.425   0.600   1.695
    1   AR   Ar   28   2.200   2.638   3.588
    1   AR   Ar   29   4.938   1.443   7.968
    1   AR   Ar   30   7.047   1.174   3.107
    1   AR   Ar   31   1.706   0.479   6.386
    1   AR   Ar   32   1.277   1.894   5.357
    1   AR   Ar   33   0.026   4.573   0.457
    1   AR   Ar   34   1.502   5.092   2.618
    1   AR   Ar   35   5.103   5.549   2.556
    1   AR   Ar   36   4.866   2.514  -3.213
    1   AR   Ar   37   3.895   3.148   1.587
    1   AR   Ar   38   5.924   4.914   4.285
    1   AR   Ar   39   0.403   2.624   4.065
    1   AR   Ar   40   0.789   4.294   2.206
    1   AR   Ar   41   0.757   1.795   3.502
    1   AR   Ar   42   5.063   5.333   5.630
    1   AR   Ar   43   0.233   3.190   5.975
    1   AR   Ar   44   0.177   3.879   3.160
    1   AR   Ar   45   2.086   3.638   5.111
    1   AR   Ar   46   6.082   4.887   6.597
    1   AR   Ar   47   3.113   3.741   7.329
    1   AR   Ar   48   6.944   3.387   7.261
    1   AR   Ar   49   0.550   0.845   0.916
    1   AR   Ar   50   3.120   4.663   0.147
    1   AR   Ar   51   5.339   3.559   2.705
    1   AR   Ar   52   5.358   3.714  -1.161
    1   AR   Ar   53   4.376   0.367   3.299
    1   AR   Ar   54   6.693   7.100   2.508
    1   AR   Ar   55   7.086   4.988   2.303
    1   AR   Ar   56   5.896   1.837   2.766
    1   AR   Ar   57   4.113   4.689   2.253
    1   AR   Ar   58   1.132   3.466   3.987
    1   AR   Ar   59   2.820   5.735   5.513
    1   AR   Ar   60   0.163   5.670   3.079
    1   AR   Ar   61   6.952   4.254   6.090
    1   AR   Ar   62   0.076   4.350   4.947
    1   AR   Ar   63   2.769   3.081   8.121
    1   AR   Ar   64   0.280   5.334   4.659
    1   AR   Ar   65   4.056   0.984   2.546
    1   AR   Ar   66   1.460   1.189   0.557
    1   AR   Ar   67   5.040   0.286  -0.689
    1   AR   Ar   68   7.064   1.259  -0.359
    1   AR   Ar   69   2.667   1.800  -0.213
    1   AR   Ar   70   0.038   1.256   1.739
    1   AR   Ar   71   2.887   0.736   2.575
    1   AR   Ar   72   4.256   1.042   1.186
    1   AR   Ar   73   2.926   0.055   4.081
    1   AR   Ar   74   1.274   0.821   3.363
    1   AR   Ar   75   2.811   0.572   5.227
    1   AR   Ar   76   2.448   0.284   1.253
    1   AR   Ar   77   1.652   5.778   5.285
    1   AR   Ar   78   0.043   5.314   5.759
    1   AR   Ar   79   3.181   6.670   5.469
    1   AR   Ar   80   3.790   5.515   5.630
    1   AR   Ar   81   1.884   6.415   1.486
    1   AR   Ar   82   6.741   5.557   1.368
    1   AR   Ar   83   0.940   3.435   0.965
    1   AR   Ar   84   1.171   4.529   1.244
    1   AR   Ar   85   0.570   3.370  -0.126
    1   AR   Ar   86   1.931   5.374   1.230
    1   AR   Ar   87   3.487   3.115   2.605
    1   AR   Ar   88   3.484   5.393   1.206
    1   AR   Ar   89   6.545   2.264   1.218
    1   AR   Ar   90   3.327   1.384   5.903
    1   AR   Ar   91   1.995   1.421   2.840
    1   AR   Ar   92   2.609   2.275   0.940
    1   AR   Ar   93   1.781   0.826   5.412
    1   AR   Ar   94   0.382   6.797   8.172
    1   AR   Ar   95   4.608   0.924   5.686
    1   AR   Ar   96   2.244   6.829   4.925
    1   AR   Ar   97   3.453   1.948  -1.267
    1   AR   Ar   98   1.905   4.621   4.221
    1   AR   Ar   99   6.181   7.087   0.101
    1   AR   Ar  100   5.922   2.911  -2.151
    1   AR   Ar  101   3.934   5.958   2.731
    1   AR   Ar  102   3.404   1.900   2.307
    1   AR   Ar  103   2.085   4.157   0.948
    1   AR   Ar  104   3.100   0.140  -1.506
    1   AR   Ar  105   2.659   2.209   2.879
    1   AR   Ar  106   4.051   1.680   4.073
    1   AR   Ar  107   1.102   4.763   5.611
    1   AR   Ar  108   2.081   0.584   3.843
    1   AR   Ar  109   2.029   4.768   5.248
    1   AR   Ar  110   2.236   2.277   4.898
    1   AR   Ar  111   3.201   4.879   7.228
    1   AR   Ar  112   6.020   6.250   5.732
    1   AR   Ar  113   0.529   5.736  -1.360
    1   AR   Ar  114   2.767   0.139  -0.114
    1   AR   Ar  115   0.481   5.533   0.266
    1   AR   Ar  116   5.330   0.390   0.293
    1   AR   Ar  117   7.033   4.727   3.691
    1   AR   Ar  118   2.136   6.638   3.499
    1   AR   Ar  119   1.578   4.171   3.016
    1   AR   Ar  120   1.979   0.052   2.502
    1   AR   Ar  121   5.313   4.366   5.766
    1   AR   Ar  122   2.865   5.271   3.594
    1   AR   Ar  123   3.530   2.141   5.163
    1   AR   Ar  124   0.783   5.627   1.828
    1   AR   Ar  125   5.917   3.606   3.895
    1   AR   Ar  126   7.038   0.237   7.355
    1   AR   Ar  127   5.034   2.955   6.003
    1   AR   Ar  128   0.998   3.805   6.477
    1   AR   Ar  129   2.037   5.862   4.138
    1   AR   Ar  130   4.025   0.636  -4.831
    1   AR   Ar  131   3.946   6.960  -0.886
    1   AR   Ar  132   1.206   2.320   0.933
    1   AR   Ar  133   4.039   0.312   4.294
    1   AR   Ar  134   2.681   1.691   3.775
    1   AR   Ar  135   6.045   0.131   5.010
    1   AR   Ar  136   5.720   6.562   2.595
    1   AR   Ar  137   2.488   4.150   6.158
    1   AR   Ar  138   5.725   1.172   6.153
    1   AR   Ar  139   6.128   1.350   4.702
    1   AR   Ar  140   4.168   6.712   5.244
    1   AR   Ar  141   3.824   5.409   4.509
    1   AR   Ar  142   5.126   6.231   8.193
    1   AR   Ar  143   5.433   6.811   6.708
    1   AR   Ar  144   0.126   2.277   5.097
    1   AR   Ar  145   4.872   4.951  -0.994
    1   AR   Ar  146   3.608   2.289   3.245
    1   AR   Ar  147   5.290   4.065  -0.257
    1   AR   Ar  148   3.109   6.033  -0.858
    1   AR   Ar  149   0.225   2.226  -0.781
    1   AR   Ar  150   1.558   2.559   1.996
    1   AR   Ar  151   2.493   3.446   3.009
    1   AR   Ar  152   0.844   1.004  -1.540
    1   AR   Ar  153   5.441   0.955   3.243
    1   AR   Ar  154   4.404   2.834   3.796
    1   AR   Ar  155   5.820   3.398   5.285
    1   AR   Ar  156   3.110   4.251   2.983
    1   AR   Ar  157   2.998   5.792   6.587
    1   AR   Ar  158   0.502   2.768   6.890
    1   AR   Ar  159   3.716   0.332   5.845
    1   AR   Ar  160   1.389   1.225   4.572
    1   AR   Ar  161   4.670   4.583   3.141
    1   AR   Ar  162   4.096   5.883  -0.490
    1   AR   Ar  163   6.381   4.160   2.377
    1   AR   Ar  164   2.172   5.956   2.412
    1   AR   Ar  165   3.085   3.833   1.215
    1   AR   Ar  166   3.067   3.518   5.114
    1   AR   Ar  167   6.237   6.903   3.735
    1   AR   Ar  168   6.342   4.687  -2.205
    1   AR   Ar  169   3.878   3.659   3.397
    1   AR   Ar  170   2.820   3.150   6.176
    1   AR   Ar  171   4.766   5.523   4.329
    1   AR   Ar  172   4.080   3.397   4.738
    1   AR   Ar  173   2.763   1.862   6.523
    1   AR   Ar  174   2.979   6.142   4.466
    1   AR   Ar  175   2.942   0.346   6.458
    1   AR   Ar  176   3.141   2.918   4.063
    1   AR   Ar  177   0.095   4.177  -0.521
    1   AR   Ar  178   2.114   6.291   0.525
    1   AR   Ar  179   3.233   6.576   0.842
    1   AR   Ar  180   4.908   0.382  -7.795
    1   AR   Ar  181   7.060   6.411   1.813
    1   AR   Ar  182   1.109   6.593   2.568
    1   AR   Ar  183   4.696   5.341   1.585
    1   AR   Ar  184   4.382   5.317   0.502
    1   AR   Ar  185   3.132   4.396   4.584
    1   AR   Ar  186   3.056   6.906   2.863
    1   AR   Ar  187   4.071   6.422   4.015
    1   AR   Ar  188   3.254   0.874   1.607
    1   AR   Ar  189   5.898   2.415   5.535
    1   AR   Ar  190   1.153   7.065   4.075
    1   AR   Ar  191   3.849   6.637   6.594
    1   AR   Ar  192   3.888   3.170   5.849
    1   AR   Ar  193   3.086   6.287   1.925
    1   AR   Ar  194   4.902   6.260  -0.964
    1   AR   Ar  195   6.328   0.793   0.787
    1   AR   Ar  196   3.795   0.359   0.477
    1   AR   Ar  197   4.823   3.143   0.833
    1   AR   Ar  198   6.153   6.758   1.349
    1   AR   Ar  199   0.599   0.392   2.657
    1   AR   Ar  200   6.387   2.725  -0.388
    1   AR   Ar  201   6.366   5.670   2.465
    1   AR   Ar  202   5.331   0.560   4.217
    1   AR   Ar  203   0.251   6.910   3.558
    1   AR   Ar  204   4.207   4.564   7.544
    1   AR   Ar  205   5.779   1.844   1.769
    1   AR   Ar  206   6.252   0.289   6.210
    1   AR   Ar  207   0.220   3.528   4.423
    1   AR   Ar  208   0.821   5.957   3.999
    1   AR   Ar  209   6.996   2.219  -1.810
    1   AR   Ar  210   2.046   0.862  -0.324
    1   AR   Ar  211   6.850   3.085   0.536
    1   AR   Ar  212   6.284   3.885  -0.095
    1   AR   Ar  213   3.728   2.175   1.258
    1   AR   Ar  214   5.299   4.392   1.985
    1   AR   Ar  215   0.341   2.431   1.579
    1   AR   Ar  216   1.759   2.293   0.026
    1   AR   Ar  217   5.536   1.821   3.821
    1   AR   Ar  218   4.922   2.602   4.935
    1   AR   Ar  219   4.391   3.744   2.485
    1   AR   Ar  220   4.429   4.023   1.363
    1   AR   Ar  221   6.704   5.785   3.967
    1   AR   Ar  222   5.172   7.081   5.759
    1   AR   Ar  223   6.793   1.674   5.902
    1   AR   Ar  224   5.155   1.602   5.005
    1   AR   Ar  225   6.771   2.330   2.472
    1   AR   Ar  226   2.152   3.608   4.072
    1   AR   Ar  227   0.838   2.800   3.107
    1   AR   Ar  228   6.151   0.629   1.898
    1   AR   Ar  229   6.164   4.499  -0.880
    1   AR   Ar  230   3.807   4.631   3.825
    1   AR   Ar  231   4.720   2.033   2.577
    1   AR   Ar  232   5.296   2.762   1.642
    1   AR   Ar  233   6.683   2.123   3.711
    1   AR   Ar  234   6.172   2.716   4.510
    1   AR   Ar  235   6.480   0.825   3.810
    1   AR   Ar  236   3.989   4.464   5.348
    1   AR   Ar  237   4.607   0.224   7.645
    1   AR   Ar  238   4.950   5.051   6.743
    1   AR   Ar  239   1.102   4.423  11.298
    1   AR   Ar  240   1.859   3.421   6.726
    1   AR   Ar  241   1.570   0.144   0.635
    1   AR   Ar  242   5.729   5.821   1.688
    1   AR   Ar  243   4.804   6.584   2.074
    1   AR   Ar  244   6.630   6.040   0.152
    1   AR   Ar  245   3.556   1.036   3.367
    1   AR   Ar  246   5.888   0.434  -1.162
    1   AR   Ar  247   7.054   3.646   1.675
    1   AR   Ar  248   5.643   5.350  -0.275
    1   AR   Ar  249   3.983   7.087   1.582
    1   AR   Ar  250   5.164   6.678   3.849
    1   AR   Ar  251   4.789   4.360   4.105
    1   AR   Ar  252   2.833   5.099   2.150
    1   AR   Ar  253   4.711   2.384   8.262
    1   AR   Ar  254   4.763   3.281  12.210
    1   AR   Ar  255   4.432   6.932   9.077
    1   AR   Ar  256   5.646   5.691   3.478
    7.12000  7.12000 12.00000
Argon-slab step 5250
  256
    1   AR   Ar    1   4.103   3.374  -2.873
    1   AR   Ar    2   5.367   6.404   0.379
    1   AR   Ar    3   3.840   3.656  -1.109
    1   AR   Ar    4   2.732   1.021   0.540
    1   AR   Ar    5   6.782   5.346  -0.493
    1   AR   Ar    6   0.881   1.263   2.345
    1   AR   Ar    7   5.811   4.506   3.178
    1   AR   Ar    8   6.521   3.391  -1.177
    1   AR   Ar    9   6.891   6.525   4.616
    1   AR   Ar   10   6.113   4.895   5.392
    1   AR   Ar   11   1.242   6.802   5.157
    1   AR   Ar   12   0.172   1.323   4.423
    1   AR   Ar   13   0.103   0.399   5.004
    1   AR   Ar   14   3.768   0.578   7.033
    1   AR   Ar   15   2.442   6.415   9.699
    1   AR   Ar   16   0.513   0.046   5.770
    1   AR   Ar   17   6.075   3.809   1.245
    1   AR   Ar   18   0.017   4.588  -1.561
    1   AR   Ar   19   5.514   4.598   0.613
    1   AR   Ar   20   6.673   3.739  -2.608
    1   AR   Ar   21   2.324   1.396   1.639
    1   AR   Ar   22   5.170   0.585   1.757
    1   AR   Ar   23   1.009   6.177   0.872
    1   AR   Ar   24   5.742   2.751   3.281
    1   AR   Ar   25   1.046   3.004   5.286
    1   AR   Ar   26   5.626   6.126   4.581
    1   AR   Ar   27   1.414   0.601   1.699
    1   AR   Ar   28   2.210   2.608   3.580
    1   AR   Ar   29   4.940   1.466   7.963
    1   AR   Ar   30   7.034   1.168   3.116
    1   AR   Ar   31   1.682   0.496   6.347
    1   AR   Ar   32   1.266   1.857   5.360
    1   AR   Ar   33   7.118   4.535   0.486
    1   AR   Ar   34   1.472   5.111   2.628
    1   AR   Ar   35   5.050   5.539   2.566
    1   AR   Ar   36   4.882   2.483  -3.211
    1   AR   Ar   37   3.880   3.188   1.582
    1   AR   Ar   38   5.937   4.902   4.250
    1   AR   Ar   39   0.374   2.638   4.075
    1   AR   Ar   40   0.781   4.344   2.208
    1   AR   Ar   41   0.777   1.795   3.512
    1   AR   Ar   42   5.080   5.329   5.623
    1   AR   Ar   43   0.237   3.160   5.964
    1   AR   Ar   44   0.199   3.851   3.150
    1   AR   Ar   45   2.054   3.669   5.109
    1   AR   Ar   46   6.031   4.901   6.589
    1   AR   Ar   47   3.108   3.739   7.292
    1   AR   Ar   48   6.961   3.403   7.287
    1   AR   Ar   49   0.569   0.851   0.934
    1   AR   Ar   50   3.121   4.626   0.122
    1   AR   Ar   51   5.325   3.532   2.713
    1   AR   Ar   52   5.357   3.755  -1.159
    1   AR   Ar   53   4.393   0.353   3.305
    1   AR   Ar   54   6.687   7.105   2.506
    1   AR   Ar   55   7.082   4.997   2.303
    1   AR   Ar   56   5.887   1.825   2.773
    1   AR   Ar   57   4.153   4.688   2.267
    1   AR   Ar   58   1.138   3.462   3.988
    1   AR   Ar   59   2.800   5.736   5.519
    1   AR   Ar   60   0.147   5.656   3.095
    1   AR   Ar   61   6.964   4.238   6.106
    1   AR   Ar   62   0.084   4.356   4.963
    1   AR   Ar   63   2.802   3.087   8.107
    1   AR   Ar   64   0.267   5.323   4.619
    1   AR   Ar   65   4.037   0.968   2.517
    1   AR   Ar   66   1.455   1.164   0.546
    1   AR   Ar   67   5.013   0.286  -0.660
    1   AR   Ar   68   7.054   1.269  -0.384
    1   AR   Ar   69   2.687   1.804  -0.235
    1   AR   Ar   70   0.039   1.271   1.755
    1   AR   Ar   71   2.886   0.730   2.588
    1   AR   Ar   72   4.285   1.024   1.176
    1   AR   Ar   73   2.909   0.040   4.114
    1   AR   Ar   74   1.241   0.800   3.327
    1   AR   Ar   75   2.810   0.547   5.234
    1   AR   Ar   76   2.454   0.277   1.285
    1   AR   Ar   77   1.628   5.792   5.280
    1   AR   Ar   78   0.024   5.329   5.748
    1   AR   Ar   79   3.158   6.663   5.435
    1   AR   Ar   80   3.772   5.494   5.663
    1   AR   Ar   81   1.888   6.436   1.537
    1   AR   Ar   82   6.729   5.572   1.321
    1   AR   Ar   83   0.883   3.422   0.957
    1   AR   Ar   84   1.154   4.528   1.251
    1   AR   Ar   85   0.564   3.381  -0.100
    1   AR   Ar   86   1.946   5.384   1.209
    1   AR   Ar   87   3.515   3.111   2.604
    1   AR   Ar   88   3.461   5.399   1.248
    1   AR   Ar   89   6.562   2.257   1.205
    1   AR   Ar   90   3.327   1.391   5.942
    1   AR   Ar   91   1.977   1.446   2.842
    1   AR   Ar   92   2.611   2.291   0.918
    1   AR   Ar   93   1.733   0.822   5.427
    1   AR   Ar   94   0.367   6.783   8.198
    1   AR   Ar   95   4.613   0.892   5.713
    1   AR   Ar   96   2.239   6.859   4.905
    1   AR   Ar   97   3.458   1.941  -1.270
    1   AR   Ar   98   1.913   4.656   4.201
    1   AR   Ar   99   6.207   7.083   0.073
    1   AR   Ar  100   5.895   2.946  -2.137
    1   AR   Ar  101   3.952   5.915   2.737
    1   AR   Ar  102   3.414   1.868   2.303
    1   AR   Ar  103   2.102   4.150   0.959
    1   AR   Ar  104   3.101   0.131  -1.508
    1   AR   Ar  105   2.681   2.210   2.849
    1   AR   Ar  106   4.055   1.686   4.065
    1   AR   Ar  107   1.118   4.724   5.646
    1   AR   Ar  108   2.089   0.581   3.854
    1   AR   Ar  109   2.072   4.750   5.241
    1   AR   Ar  110   2.234   2.278   4.880
    1   AR   Ar  111   3.187   4.849   7.225
    1   AR   Ar  112   5.995   6.270   5.710
    1   AR   Ar  113   0.484   5.728  -1.342
    1   AR   Ar  114   2.790   0.102  -0.127
    1   AR   Ar  115   0.482   5.545   0.271
    1   AR   Ar  116   5.295   0.403   0.265
    1   AR   Ar  117   7.006   4.770   3.717
    1   AR   Ar  118   2.099   6.616   3.497
    1   AR   Ar  119   1.571   4.181   2.967
    1   AR   Ar  120   1.984   0.046   2.531
    1   AR   Ar  121   5.327   4.351   5.768
    1   AR   Ar  122   2.877   5.270   3.580
    1   AR   Ar  123   3.552   2.136   5.150
    1   AR   Ar  124   0.786   5.614   1.814
    1   AR   Ar  125   5.914   3.614   3.930
    1   AR   Ar  126   7.021   0.220   7.336
    1   AR   Ar  127   5.022   2.945   5.997
    1   AR   Ar  128   1.004   3.839   6.472
    1   AR   Ar  129   2.051   5.864   4.149
    1   AR   Ar  130   4.037   0.609  -4.843
    1   AR   Ar  131   3.924   6.953  -0.842
    1   AR   Ar  132   1.229   2.314   0.942
    1   AR   Ar  133   4.031   0.314   4.320
    1   AR   Ar  134   2.669   1.693   3.770
    1   AR   Ar  135   6.071   0.098   5.002
    1   AR   Ar  136   5.743   6.554   2.616
    1   AR   Ar  137   2.471   4.145   6.162
    1   AR   Ar  138   5.734   1.193   6.145
    1   AR   Ar  139   6.143   1.345   4.672
    1   AR   Ar  140   4.187   6.734   5.265
    1   AR   Ar  141   3.817   5.400   4.501
    1   AR   Ar  142   5.143   6.220   8.200
    1   AR   Ar  143   5.439   6.803   6.720
    1   AR   Ar  144   0.119   2.305   5.076
    1   AR   Ar  145   4.902   4.960  -1.001
    1   AR   Ar  146   3.607   2.282   3.273
    1   AR   Ar  147   5.263   4.069  -0.236
    1   AR   Ar  148   3.101   6.043  -0.849
    1   AR   Ar  149   0.232   2.209  -0.765
    1   AR   Ar  150   1.555   2.585   1.997
    1   AR   Ar  151   2.523   3.453   2.964
    1   AR   Ar  152   0.845   0.986  -1.518
    1   AR   Ar  153   5.431   0.956   3.253
    1   AR   Ar  154   4.403   2.798   3.820
    1   AR   Ar  155   5.796   3.381   5.259
    1   AR   Ar  156   3.146   4.247   3.004
    1   AR   Ar  157   2.992   5.793   6.589
    1   AR   Ar  158   0.508   2.772   6.904
    1   AR   Ar  159   3.720   0.340   5.862
    1   AR   Ar  160   1.407   1.237   4.569
    1   AR   Ar  161   4.660   4.583   3.155
    1   AR   Ar  162   4.101   5.870  -0.500
    1   AR   Ar  163   6.369   4.169   2.389
    1   AR   Ar  164   2.180   5.957   2.439
    1   AR   Ar  165   3.077   3.812   1.206
    1   AR   Ar  166   3.063   3.556   5.121
    1   AR   Ar  167   6.238   6.921   3.721
    1   AR   Ar  168   6.290   4.695  -2.203
    1   AR   Ar  169   3.872   3.649   3.430
    1   AR   Ar  170   2.813   3.163   6.175
    1   AR   Ar  171   4.769   5.503   4.309
    1   AR   Ar  172   4.067   3.401   4.759
    1   AR   Ar  173   2.744   1.841   6.533
    1   AR   Ar  174   2.988   6.150   4.441
    1   AR   Ar  175   2.929   0.344   6.473
    1   AR   Ar  176   3.146   2.946   4.061
    1   AR   Ar  177   0.115   4.194  -0.512
    1   AR   Ar  178   2.088   6.317   0.542
    1   AR   Ar  179   3.234   6.547   0.839
    1   AR   Ar  180   4.915   0.385  -7.807
    1   AR   Ar  181   7.074   6.441   1.817
    1   AR   Ar  182   1.076   6.586   2.553
    1   AR   Ar  183   4.703   5.330   1.578
    1   AR   Ar  184   4.391   5.323   0.486
    1   AR   Ar  185   3.141   4.393   4.561
    1   AR   Ar  186   3.065   6.901   2.835
    1   AR   Ar  187   4.022   6.422   4.017
    1   AR   Ar  188   3.259   0.857   1.597
    1   AR   Ar  189   5.871   2.392   5.562
    1   AR   Ar  190   1.154   7.072   4.089
    1   AR   Ar  191   3.854   6.648   6.575
    1   AR   Ar  192   3.905   3.196   5.896
    1   AR   Ar  193   3.105   6.267   1.945
    1   AR   Ar  194   4.910   6.277  -0.937
    1   AR   Ar  195   6.350   0.814   0.803
    1   AR   Ar  196   3.830   0.338   0.456
    1   AR   Ar  197   4.830   3.130   0.804
    1   AR   Ar  198   6.146   6.764   1.373
    1   AR   Ar  199   0.563   0.384   2.635
    1   AR   Ar  200   6.374   2.716  -0.369
    1   AR   Ar  201   6.376   5.647   2.479
    1   AR   Ar  202   5.316   0.564   4.248
    1   AR   Ar  203   0.233   6.907   3.575
    1   AR   Ar  204   4.221   4.593   7.580
    1   AR   Ar  205   5.809   1.841   1.758
    1   AR   Ar  206   6.259   0.298   6.175
    1   AR   Ar  207   0.215   3.483   4.435
    1   AR   Ar  208   0.795   5.941   3.993
    1   AR   Ar  209   6.973   2.234  -1.793
    1   AR   Ar  210   2.064   0.862  -0.349
    1   AR   Ar  211   6.870   3.118   0.536
    1   AR   Ar  212   6.256   3.878  -0.093
    1   AR   Ar  213   3.707   2.154   1.238
    1   AR   Ar  214   5.310   4.367   1.980
    1   AR   Ar  215   0.341   2.417   1.623
    1   AR   Ar  216   1.731   2.297  -0.003
    1   AR   Ar  217   5.546   1.847   3.813
    1   AR   Ar  218   4.951   2.589   4.938
    1   AR   Ar  219   4.327   3.763   2.467
    1   AR   Ar  220   4.430   4.059   1.356
    1   AR   Ar  221   6.671   5.780   3.957
    1   AR   Ar  222   5.193   7.104   5.770
    1   AR   Ar  223   6.805   1.653   5.922
    1   AR   Ar  224   5.147   1.579   4.998
    1   AR   Ar  225   6.778   2.307   2.456
    1   AR   Ar  226   2.165   3.642   4.094
    1   AR   Ar  227   0.856   2.812   3.115
    1   AR   Ar  228   6.148   0.617   1.930
    1   AR   Ar  229   6.169   4.524  -0.874
    1   AR   Ar  230   3.853   4.608   3.816
    1   AR   Ar  231   4.751   2.060   2.583
    1   AR   Ar  232   5.319   2.780   1.640
    1   AR   Ar  233   6.671   2.130   3.697
    1   AR   Ar  234   6.181   2.690   4.500
    1   AR   Ar  235   6.447   0.823   3.808
    1   AR   Ar  236   3.990   4.448   5.337
    1   AR   Ar  237   4.581   0.214   7.664
    1   AR   Ar  238   4.937   5.033   6.743
    1   AR   Ar  239   1.110   4.413  11.293
    1   AR   Ar  240   1.873   3.448   6.686
    1   AR   Ar  241   1.556   0.145   0.644
    1   AR   Ar  242   5.708   5.853   1.712
    1   AR   Ar  243   4.783   6.584   2.080
    1   AR   Ar  244   6.638   6.010   0.178
    1   AR   Ar  245   3.527   1.023   3.360
    1   AR   Ar  246   5.878   0.441  -1.188
    1   AR   Ar  247   7.047   3.655   1.659
    1   AR   Ar  248   5.600   5.348  -0.305
    1   AR   Ar  249   3.953   7.094   1.596
    1   AR   Ar  250   5.173   6.667   3.889
    1   AR   Ar  251   4.798   4.366   4.107
    1   AR   Ar  252   2.837   5.128   2.181
    1   AR   Ar  253   4.684   2.379   8.286
    1   AR   Ar  254   4.766   3.262  12.169
    1   AR   Ar  255   4.443   6.960   9.078
    1   AR   Ar  256   5.663   5.716   3.474
    7.12000  7.12000 12.00000
Argon-slab step 5255
  256
    1   AR   Ar    1   4.113   3.374  -2.875
    1   AR   Ar    2   5.392   6.393   0.392
    1   AR   Ar    3   3.854   3.661  -1.093
    1   AR   Ar    4   2.673   1.043   0.556
    1   AR   Ar    5   6.821   5.310  -0.488
    1   AR   Ar    6   0.902   1.267   2.366
    1   AR   Ar    7   5.842   4.494   3.168
    1   AR   Ar    8   6.507   3.412  -1.182
    1   AR   Ar    9   6.916   6.526   4.628
    1   AR   Ar   10   6.141   4.897   5.383
    1   AR   Ar   11   1.239   6.814   5.154
    1   AR   Ar   12   0.158   1.357   4.418
    1   AR   Ar   13   0.116   0.374   4.979
    1   AR   Ar   14   3.767   0.576   7.040
    1   AR   Ar   15   2.424   6.394   9.713
    1   AR   Ar   16   0.489   0.034   5.810
    1   AR   Ar   17   6.072   3.818   1.249
    1   AR   Ar   18   0.057   4.579  -1.563
    1   AR   Ar   19   5.539   4.573   0.618
    1   AR   Ar   20   6.669   3.740  -2.599
    1   AR   Ar   21   2.317   1.367   1.612
    1   AR   Ar   22   5.170   0.583   1.757
    1   AR   Ar   23   1.007   6.153   0.854
    1   AR   Ar   24   5.748   2.755   3.295
    1   AR   Ar   25   1.030   2.992   5.290
    1   AR   Ar   26   5.590   6.090   4.634
    1   AR   Ar   27   1.404   0.600   1.701
    1   AR   Ar   28   2.207   2.590   3.587
    1   AR   Ar   29   4.943   1.481   7.954
    1   AR   Ar   30   7.031   1.168   3.112
    1   AR   Ar   31   1.659   0.509   6.322
    1   AR   Ar   32   1.254   1.825   5.369
    1   AR   Ar   33   7.089   4.497   0.517
    1   AR   Ar   34   1.442   5.141   2.634
    1   AR   Ar   35   4.997   5.527   2.577
    1   AR   Ar   36   4.898   2.453  -3.208
    1   AR   Ar   37   3.867   3.225   1.577
    1   AR   Ar   38   5.950   4.892   4.214
    1   AR   Ar   39   0.353   2.627   4.076
    1   AR   Ar   40   0.771   4.390   2.213
    1   AR   Ar   41   0.797   1.792   3.521
    1   AR   Ar   42   5.095   5.331   5.614
    1   AR   Ar   43   0.237   3.132   5.950
    1   AR   Ar   44   0.222   3.822   3.140
    1   AR   Ar   45   2.014   3.699   5.113
    1   AR   Ar   46   5.981   4.914   6.578
    1   AR   Ar   47   3.103   3.738   7.253
    1   AR   Ar   48   6.973   3.427   7.316
    1   AR   Ar   49   0.569   0.894   0.986
    1   AR   Ar   50   3.121   4.589   0.099
    1   AR   Ar   51   5.314   3.508   2.720
    1   AR   Ar   52   5.360   3.793  -1.169
    1   AR   Ar   53   4.413   0.335   3.312
    1   AR   Ar   54   6.683   7.108   2.514
    1   AR   Ar   55   7.085   4.997   2.298
    1   AR   Ar   56   5.879   1.811   2.785
    1   AR   Ar   57   4.187   4.706   2.273
    1   AR   Ar   58   1.153   3.484   3.987
    1   AR   Ar   59   2.768   5.730   5.522
    1   AR   Ar   60   0.134   5.645   3.112
    1   AR   Ar   61   6.977   4.221   6.121
    1   AR   Ar   62   0.089   4.364   4.984
    1   AR   Ar   63   2.835   3.092   8.093
    1   AR   Ar   64   0.253   5.312   4.583
    1   AR   Ar   65   4.022   0.954   2.473
    1   AR   Ar   66   1.457   1.147   0.534
    1   AR   Ar   67   4.975   0.282  -0.642
    1   AR   Ar   68   7.043   1.277  -0.407
    1   AR   Ar   69   2.709   1.808  -0.258
    1   AR   Ar   70   0.033   1.288   1.771
    1   AR   Ar   71   2.878   0.734   2.597
    1   AR   Ar   72   4.314   1.006   1.168
    1   AR   Ar   73   2.900   0.025   4.147
    1   AR   Ar   74   1.203   0.780   3.289
    1   AR   Ar   75   2.800   0.548   5.275
    1   AR   Ar   76   2.458   0.265   1.317
    1   AR   Ar   77   1.607   5.784   5.280
    1   AR   Ar   78   0.005   5.343   5.737
    1   AR   Ar   79   3.135   6.662   5.402
    1   AR   Ar   80   3.762   5.473   5.696
    1   AR   Ar   81   1.890   6.461   1.593
    1   AR   Ar   82   6.718   5.585   1.273
    1   AR   Ar   83   0.825   3.409   0.951
    1   AR   Ar   84   1.134   4.531   1.255
    1   AR   Ar   85   0.561   3.387  -0.073
    1   AR   Ar   86   1.934   5.405   1.176
    1   AR   Ar   87   3.538   3.102   2.600
    1   AR   Ar   88   3.439   5.405   1.290
    1   AR   Ar   89   6.563   2.259   1.201
    1   AR   Ar   90   3.342   1.384   5.965
    1   AR   Ar   91   1.977   1.453   2.846
    1   AR   Ar   92   2.612   2.305   0.897
    1   AR   Ar   93   1.689   0.817   5.435
    1   AR   Ar   94   0.351   6.769   8.224
    1   AR   Ar   95   4.620   0.862   5.740
    1   AR   Ar   96   2.233   6.885   4.882
    1   AR   Ar   97   3.440   1.941  -1.261
    1   AR   Ar   98   1.921   4.695   4.179
    1   AR   Ar   99   6.238   7.075   0.044
    1   AR   Ar  100   5.869   2.983  -2.122
    1   AR   Ar  101   3.970   5.872   2.742
    1   AR   Ar  102   3.433   1.830   2.289
    1   AR   Ar  103   2.120   4.143   0.969
    1   AR   Ar  104   3.101   0.122  -1.509
    1   AR   Ar  105   2.700   2.212   2.807
    1   AR   Ar  106   4.061   1.693   4.060
    1   AR   Ar  107   1.130   4.714   5.689
    1   AR   Ar  108   2.096   0.581   3.865
    1   AR   Ar  109   2.129   4.753   5.243
    1   AR   Ar  110   2.232   2.280   4.861
    1   AR   Ar  111   3.213   4.843   7.207
    1   AR   Ar  112   5.969   6.291   5.688
    1   AR   Ar  113   0.437   5.718  -1.323
    1   AR   Ar  114   2.816   0.062  -0.138
    1   AR   Ar  115   0.491   5.524   0.251
    1   AR   Ar  116   5.260   0.420   0.255
    1   AR   Ar  117   6.979   4.812   3.742
    1   AR   Ar  118   2.062   6.603   3.488
    1   AR   Ar  119   1.567   4.180   2.924
    1   AR   Ar  120   1.991   0.041   2.559
    1   AR   Ar  121   5.338   4.326   5.773
    1   AR   Ar  122   2.890   5.269   3.568
    1   AR   Ar  123   3.573   2.132   5.136
    1   AR   Ar  124   0.790   5.600   1.801
    1   AR   Ar  125   5.912   3.624   3.966
    1   AR   Ar  126   7.012   0.248   7.367
    1   AR   Ar  127   5.009   2.936   5.989
    1   AR   Ar  128   0.996   3.878   6.462
    1   AR   Ar  129   2.059   5.857   4.167
    1   AR   Ar  130   4.049   0.582  -4.856
    1   AR   Ar  131   3.904   6.945  -0.797
    1   AR   Ar  132   1.252   2.306   0.953
    1   AR   Ar  133   4.022   0.320   4.348
    1   AR   Ar  134   2.666   1.696   3.807
    1   AR   Ar  135   6.096   0.065   4.994
    1   AR   Ar  136   5.765   6.545   2.637
    1   AR   Ar  137   2.455   4.145   6.163
    1   AR   Ar  138   5.740   1.218   6.135
    1   AR   Ar  139   6.159   1.342   4.644
    1   AR   Ar  140   4.211   6.753   5.284
    1   AR   Ar  141   3.795   5.391   4.498
    1   AR   Ar  142   5.160   6.209   8.206
    1   AR   Ar  143   5.447   6.794   6.736
    1   AR   Ar  144   0.110   2.333   5.055
    1   AR   Ar  145   4.931   4.967  -1.008
    1   AR   Ar  146   3.612   2.273   3.306
    1   AR   Ar  147   5.229   4.077  -0.207
    1   AR   Ar  148   3.097   6.040  -0.859
    1   AR   Ar  149   0.240   2.195  -0.750
    1   AR   Ar  150   1.551   2.609   1.997
    1   AR   Ar  151   2.547   3.455   2.920
    1   AR   Ar  152   0.846   0.968  -1.494
    1   AR   Ar  153   5.424   0.947   3.245
    1   AR   Ar  154   4.403   2.762   3.846
    1   AR   Ar  155   5.790   3.384   5.253
    1   AR   Ar  156   3.180   4.248   3.023
    1   AR   Ar  157   2.988   5.795   6.590
    1   AR   Ar  158   0.521   2.768   6.915
    1   AR   Ar  159   3.729   0.352   5.876
    1   AR   Ar  160   1.426   1.250   4.558
    1   AR   Ar  161   4.656   4.585   3.159
    1   AR   Ar  162   4.101   5.853  -0.506
    1   AR   Ar  163   6.360   4.175   2.397
    1   AR   Ar  164   2.186   5.960   2.469
    1   AR   Ar  165   3.125   3.820   1.208
    1   AR   Ar  166   3.065   3.587   5.133
    1   AR   Ar  167   6.238   6.935   3.706
    1   AR   Ar  168   6.236   4.703  -2.202
    1   AR   Ar  169   3.869   3.635   3.468
    1   AR   Ar  170   2.809   3.172   6.172
    1   AR   Ar  171   4.786   5.484   4.286
    1   AR   Ar  172   4.056   3.404   4.779
    1   AR   Ar  173   2.710   1.833   6.557
    1   AR   Ar  174   3.002   6.158   4.417
    1   AR   Ar  175   2.905   0.342   6.488
    1   AR   Ar  176   3.153   2.975   4.059
    1   AR   Ar  177   0.131   4.217  -0.508
    1   AR   Ar  178   2.065   6.341   0.554
    1   AR   Ar  179   3.233   6.504   0.826
    1   AR   Ar  180   4.924   0.380  -7.795
    1   AR   Ar  181   7.090   6.478   1.823
    1   AR   Ar  182   1.075   6.595   2.565
    1   AR   Ar  183   4.711   5.318   1.568
    1   AR   Ar  184   4.401   5.327   0.469
    1   AR   Ar  185   3.148   4.396   4.535
    1   AR   Ar  186   3.075   6.888   2.810
    1   AR   Ar  187   3.972   6.419   4.019
    1   AR   Ar  188   3.269   0.843   1.587
    1   AR   Ar  189   5.852   2.378   5.573
    1   AR   Ar  190   1.158   7.079   4.104
    1   AR   Ar  191   3.857   6.659   6.556
    1   AR   Ar  192   3.922   3.223   5.941
    1   AR   Ar  193   3.125   6.247   1.964
    1   AR   Ar  194   4.924   6.297  -0.913
    1   AR   Ar  195   6.372   0.835   0.820
    1   AR   Ar  196   3.863   0.316   0.434
    1   AR   Ar  197   4.835   3.120   0.772
    1   AR   Ar  198   6.137   6.772   1.397
    1   AR   Ar  199   0.520   0.366   2.614
    1   AR   Ar  200   6.362   2.706  -0.348
    1   AR   Ar  201   6.359   5.664   2.485
    1   AR   Ar  202   5.303   0.569   4.281
    1   AR   Ar  203   0.224   6.904   3.582
    1   AR   Ar  204   4.235   4.623   7.616
    1   AR   Ar  205   5.837   1.831   1.745
    1   AR   Ar  206   6.267   0.303   6.139
    1   AR   Ar  207   0.199   3.460   4.458
    1   AR   Ar  208   0.770   5.930   3.984
    1   AR   Ar  209   6.962   2.227  -1.790
    1   AR   Ar  210   2.081   0.864  -0.374
    1   AR   Ar  211   6.888   3.151   0.538
    1   AR   Ar  212   6.272   3.861  -0.093
    1   AR   Ar  213   3.685   2.131   1.219
    1   AR   Ar  214   5.319   4.344   1.975
    1   AR   Ar  215   0.350   2.404   1.669
    1   AR   Ar  216   1.704   2.300  -0.032
    1   AR   Ar  217   5.556   1.873   3.811
    1   AR   Ar  218   4.978   2.581   4.938
    1   AR   Ar  219   4.266   3.768   2.449
    1   AR   Ar  220   4.433   4.098   1.349
    1   AR   Ar  221   6.632   5.773   3.945
    1   AR   Ar  222   5.214   0.007   5.775
    1   AR   Ar  223   6.835   1.621   5.926
    1   AR   Ar  224   5.139   1.552   4.990
    1   AR   Ar  225   6.786   2.285   2.440
    1   AR   Ar  226   2.185   3.674   4.108
    1   AR   Ar  227   0.876   2.803   3.130
    1   AR   Ar  228   6.146   0.613   1.969
    1   AR   Ar  229   6.170   4.510  -0.865
    1   AR   Ar  230   3.891   4.590   3.804
    1   AR   Ar  231   4.782   2.087   2.590
    1   AR   Ar  232   5.343   2.800   1.644
    1   AR   Ar  233   6.655   2.132   3.680
    1   AR   Ar  234   6.190   2.663   4.489
    1   AR   Ar  235   6.406   0.818   3.815
    1   AR   Ar  236   3.991   4.431   5.325
    1   AR   Ar  237   4.557   0.204   7.683
    1   AR   Ar  238   4.939   5.035   6.730
    1   AR   Ar  239   1.117   4.403  11.288
    1   AR   Ar  240   1.898   3.467   6.650
    1   AR   Ar  241   1.541   0.141   0.654
    1   AR   Ar  242   5.682   5.886   1.733
    1   AR   Ar  243   4.763   6.583   2.085
    1   AR   Ar  244   6.639   5.996   0.220
    1   AR   Ar  245   3.491   1.012   3.365
    1   AR   Ar  246   5.874   0.449  -1.215
    1   AR   Ar  247   7.043   3.663   1.643
    1   AR   Ar  248   5.559   5.348  -0.331
    1   AR   Ar  249   3.921   7.102   1.610
    1   AR   Ar  250   5.175   6.661   3.921
    1   AR   Ar  251   4.789   4.377   4.148
    1   AR   Ar  252   2.841   5.157   2.213
    1   AR   Ar  253   4.654   2.383   8.313
    1   AR   Ar  254   4.778   3.256  12.140
    1   AR   Ar  255   4.454   6.987   9.077
    1   AR   Ar  256   5.680   5.741   3.470
    7.12000  7.12000 12.00000
Argon-slab step 5260
  256
    1   AR   Ar    1   4.125   3.372  -2.876
    1   AR   Ar    2   5.418   6.382   0.405
    1   AR   Ar    3   3.868   3.668  -1.077
    1   AR   Ar    4   2.614   1.065   0.573
    1   AR   Ar    5   6.862   5.266  -0.490
    1   AR   Ar    6   0.927   1.281   2.388
    1   AR   Ar    7   5.865   4.486   3.169
    1   AR   Ar    8   6.492   3.435  -1.188
    1   AR   Ar    9   6.943   6.526   4.641
    1   AR   Ar   10   6.172   4.901   5.372
    1   AR   Ar   11   1.234   6.827   5.151
    1   AR   Ar   12   0.143   1.393   4.412
    1   AR   Ar   13   0.122   0.357   4.939
    1   AR   Ar   14   3.768   0.576   7.046
    1   AR   Ar   15   2.405   6.373   9.726
    1   AR   Ar   16   0.470   0.017   5.865
    1   AR   Ar   17   6.068   3.834   1.256
    1   AR   Ar   18   0.096   4.569  -1.564
    1   AR   Ar   19   5.566   4.553   0.629
    1   AR   Ar   20   6.661   3.736  -2.615
    1   AR   Ar   21   2.308   1.340   1.585
    1   AR   Ar   22   5.164   0.575   1.761
    1   AR   Ar   23   1.010   6.134   0.841
    1   AR   Ar   24   5.755   2.766   3.291
    1   AR   Ar   25   1.018   2.980   5.290
    1   AR   Ar   26   5.561   6.049   4.693
    1   AR   Ar   27   1.396   0.596   1.703
    1   AR   Ar   28   2.191   2.573   3.614
    1   AR   Ar   29   4.949   1.487   7.943
    1   AR   Ar   30   7.034   1.172   3.101
    1   AR   Ar   31   1.635   0.512   6.320
    1   AR   Ar   32   1.239   1.799   5.382
    1   AR   Ar   33   7.059   4.458   0.549
    1   AR   Ar   34   1.461   5.122   2.612
    1   AR   Ar   35   4.947   5.516   2.591
    1   AR   Ar   36   4.913   2.424  -3.205
    1   AR   Ar   37   3.858   3.255   1.574
    1   AR   Ar   38   5.962   4.881   4.178
    1   AR   Ar   39   0.340   2.591   4.064
    1   AR   Ar   40   0.764   4.431   2.220
    1   AR   Ar   41   0.817   1.787   3.531
    1   AR   Ar   42   5.110   5.338   5.603
    1   AR   Ar   43   0.234   3.105   5.937
    1   AR   Ar   44   0.246   3.793   3.129
    1   AR   Ar   45   1.970   3.729   5.124
    1   AR   Ar   46   5.933   4.926   6.565
    1   AR   Ar   47   3.098   3.736   7.212
    1   AR   Ar   48   6.980   3.455   7.345
    1   AR   Ar   49   0.567   0.933   1.036
    1   AR   Ar   50   3.122   4.552   0.077
    1   AR   Ar   51   5.302   3.488   2.726
    1   AR   Ar   52   5.365   3.828  -1.187
    1   AR   Ar   53   4.435   0.316   3.319
    1   AR   Ar   54   6.678   7.106   2.533
    1   AR   Ar   55   7.089   4.994   2.289
    1   AR   Ar   56   5.868   1.810   2.789
    1   AR   Ar   57   4.207   4.737   2.274
    1   AR   Ar   58   1.169   3.511   3.985
    1   AR   Ar   59   2.727   5.718   5.522
    1   AR   Ar   60   0.126   5.638   3.127
    1   AR   Ar   61   6.990   4.206   6.135
    1   AR   Ar   62   0.093   4.373   5.009
    1   AR   Ar   63   2.867   3.097   8.080
    1   AR   Ar   64   0.237   5.301   4.555
    1   AR   Ar   65   4.011   0.937   2.425
    1   AR   Ar   66   1.465   1.140   0.520
    1   AR   Ar   67   4.929   0.273  -0.642
    1   AR   Ar   68   7.030   1.280  -0.427
    1   AR   Ar   69   2.730   1.812  -0.280
    1   AR   Ar   70   0.019   1.308   1.790
    1   AR   Ar   71   2.865   0.745   2.600
    1   AR   Ar   72   4.333   1.009   1.184
    1   AR   Ar   73   2.901   0.013   4.176
    1   AR   Ar   74   1.167   0.760   3.254
    1   AR   Ar   75   2.790   0.558   5.325
    1   AR   Ar   76   2.458   0.250   1.348
    1   AR   Ar   77   1.585   5.777   5.279
    1   AR   Ar   78   7.106   5.355   5.724
    1   AR   Ar   79   3.117   6.665   5.369
    1   AR   Ar   80   3.756   5.452   5.729
    1   AR   Ar   81   1.890   6.488   1.649
    1   AR   Ar   82   6.715   5.586   1.266
    1   AR   Ar   83   0.766   3.396   0.950
    1   AR   Ar   84   1.114   4.535   1.256
    1   AR   Ar   85   0.563   3.390  -0.051
    1   AR   Ar   86   1.902   5.433   1.135
    1   AR   Ar   87   3.552   3.086   2.598
    1   AR   Ar   88   3.418   5.411   1.332
    1   AR   Ar   89   6.548   2.275   1.211
    1   AR   Ar   90   3.367   1.368   5.979
    1   AR   Ar   91   1.977   1.450   2.849
    1   AR   Ar   92   2.607   2.277   0.887
    1   AR   Ar   93   1.648   0.816   5.422
    1   AR   Ar   94   0.335   6.755   8.250
    1   AR   Ar   95   4.629   0.837   5.765
    1   AR   Ar   96   2.223   6.907   4.857
    1   AR   Ar   97   3.420   1.941  -1.252
    1   AR   Ar   98   1.884   4.689   4.154
    1   AR   Ar   99   6.269   7.067   0.016
    1   AR   Ar  100   5.844   3.020  -2.106
    1   AR   Ar  101   3.986   5.829   2.746
    1   AR   Ar  102   3.462   1.786   2.267
    1   AR   Ar  103   2.137   4.137   0.979
    1   AR   Ar  104   3.100   0.112  -1.510
    1   AR   Ar  105   2.696   2.226   2.772
    1   AR   Ar  106   4.069   1.697   4.057
    1   AR   Ar  107   1.143   4.749   5.741
    1   AR   Ar  108   2.100   0.584   3.876
    1   AR   Ar  109   2.190   4.758   5.246
    1   AR   Ar  110   2.231   2.282   4.840
    1   AR   Ar  111   3.249   4.845   7.185
    1   AR   Ar  112   5.958   6.308   5.689
    1   AR   Ar  113   0.390   5.706  -1.303
    1   AR   Ar  114   2.843   0.022  -0.148
    1   AR   Ar  115   0.496   5.497   0.229
    1   AR   Ar  116   5.230   0.441   0.266
    1   AR   Ar  117   6.950   4.846   3.765
    1   AR   Ar  118   2.064   6.591   3.510
    1   AR   Ar  119   1.564   4.169   2.885
    1   AR   Ar  120   2.000   0.038   2.585
    1   AR   Ar  121   5.348   4.296   5.780
    1   AR   Ar  122   2.904   5.267   3.556
    1   AR   Ar  123   3.595   2.129   5.120
    1   AR   Ar  124   0.793   5.586   1.789
    1   AR   Ar  125   5.909   3.636   4.001
    1   AR   Ar  126   7.003   0.276   7.398
    1   AR   Ar  127   4.996   2.928   5.982
    1   AR   Ar  128   0.999   3.891   6.448
    1   AR   Ar  129   2.061   5.842   4.189
    1   AR   Ar  130   4.061   0.556  -4.869
    1   AR   Ar  131   3.883   6.936  -0.749
    1   AR   Ar  132   1.274   2.298   0.965
    1   AR   Ar  133   4.013   0.327   4.378
    1   AR   Ar  134   2.667   1.695   3.845
    1   AR   Ar  135   6.121   0.033   4.984
    1   AR   Ar  136   5.785   6.537   2.660
    1   AR   Ar  137   2.442   4.156   6.158
    1   AR   Ar  138   5.744   1.246   6.122
    1   AR   Ar  139   6.163   1.350   4.625
    1   AR   Ar  140   4.231   6.765   5.305
    1   AR   Ar  141   3.766   5.382   4.499
    1   AR   Ar  142   5.176   6.199   8.212
    1   AR   Ar  143   5.456   6.785   6.756
    1   AR   Ar  144   0.101   2.360   5.037
    1   AR   Ar  145   4.955   4.969  -1.021
    1   AR   Ar  146   3.616   2.265   3.338
    1   AR   Ar  147   5.190   4.085  -0.178
    1   AR   Ar  148   3.092   6.040  -0.869
    1   AR   Ar  149   0.249   2.187  -0.734
    1   AR   Ar  150   1.547   2.633   1.999
    1   AR   Ar  151   2.567   3.451   2.877
    1   AR   Ar  152   0.847   0.951  -1.470
    1   AR   Ar  153   5.418   0.932   3.233
    1   AR   Ar  154   4.405   2.725   3.873
    1   AR   Ar  155   5.796   3.401   5.259
    1   AR   Ar  156   3.188   4.239   3.031
    1   AR   Ar  157   2.992   5.789   6.602
    1   AR   Ar  158   0.540   2.761   6.925
    1   AR   Ar  159   3.738   0.365   5.888
    1   AR   Ar  160   1.444   1.262   4.533
    1   AR   Ar  161   4.662   4.586   3.157
    1   AR   Ar  162   4.098   5.832  -0.507
    1   AR   Ar  163   6.351   4.177   2.388
    1   AR   Ar  164   2.191   5.964   2.503
    1   AR   Ar  165   3.166   3.833   1.202
    1   AR   Ar  166   3.067   3.611   5.150
    1   AR   Ar  167   6.236   6.941   3.691
    1   AR   Ar  168   6.182   4.711  -2.198
    1   AR   Ar  169   3.870   3.612   3.509
    1   AR   Ar  170   2.808   3.176   6.168
    1   AR   Ar  171   4.800   5.470   4.265
    1   AR   Ar  172   4.046   3.407   4.797
    1   AR   Ar  173   2.666   1.831   6.589
    1   AR   Ar  174   3.020   6.161   4.397
    1   AR   Ar  175   2.873   0.338   6.502
    1   AR   Ar  176   3.160   3.005   4.058
    1   AR   Ar  177   0.143   4.244  -0.509
    1   AR   Ar  178   2.046   6.365   0.564
    1   AR   Ar  179   3.231   6.461   0.813
    1   AR   Ar  180   4.933   0.372  -7.778
    1   AR   Ar  181   7.111   6.510   1.826
    1   AR   Ar  182   1.082   6.604   2.584
    1   AR   Ar  183   4.718   5.307   1.555
    1   AR   Ar  184   4.411   5.332   0.453
    1   AR   Ar  185   3.153   4.405   4.507
    1   AR   Ar  186   3.086   6.869   2.791
    1   AR   Ar  187   3.924   6.415   4.019
    1   AR   Ar  188   3.284   0.833   1.576
    1   AR   Ar  189   5.846   2.382   5.560
    1   AR   Ar  190   1.174   7.064   4.105
    1   AR   Ar  191   3.858   6.657   6.534
    1   AR   Ar  192   3.937   3.249   5.984
    1   AR   Ar  193   3.146   6.226   1.981
    1   AR   Ar  194   4.944   6.319  -0.889
    1   AR   Ar  195   6.393   0.856   0.840
    1   AR   Ar  196   3.894   0.292   0.413
    1   AR   Ar  197   4.837   3.112   0.738
    1   AR   Ar  198   6.127   6.777   1.400
    1   AR   Ar  199   0.475   0.343   2.592
    1   AR   Ar  200   6.350   2.696  -0.327
    1   AR   Ar  201   6.334   5.692   2.493
    1   AR   Ar  202   5.291   0.575   4.315
    1   AR   Ar  203   0.263   6.896   3.549
    1   AR   Ar  204   4.249   4.643   7.641
    1   AR   Ar  205   5.858   1.816   1.734
    1   AR   Ar  206   6.277   0.303   6.101
    1   AR   Ar  207   0.176   3.461   4.494
    1   AR   Ar  208   0.751   5.926   3.970
    1   AR   Ar  209   6.943   2.217  -1.792
    1   AR   Ar  210   2.097   0.866  -0.397
    1   AR   Ar  211   6.903   3.185   0.545
    1   AR   Ar  212   6.291   3.839  -0.086
    1   AR   Ar  213   3.663   2.108   1.201
    1   AR   Ar  214   5.328   4.322   1.971
    1   AR   Ar  215   0.368   2.393   1.713
    1   AR   Ar  216   1.678   2.302  -0.060
    1   AR   Ar  217   5.565   1.896   3.815
    1   AR   Ar  218   5.000   2.581   4.932
    1   AR   Ar  219   4.215   3.762   2.434
    1   AR   Ar  220   4.437   4.139   1.342
    1   AR   Ar  221   6.590   5.770   3.935
    1   AR   Ar  222   5.236   0.028   5.775
    1   AR   Ar  223   6.863   1.590   5.928
    1   AR   Ar  224   5.133   1.521   4.983
    1   AR   Ar  225   6.792   2.261   2.427
    1   AR   Ar  226   2.212   3.703   4.116
    1   AR   Ar  227   0.898   2.791   3.145
    1   AR   Ar  228   6.147   0.618   2.003
    1   AR   Ar  229   6.170   4.499  -0.862
    1   AR   Ar  230   3.913   4.580   3.794
    1   AR   Ar  231   4.813   2.115   2.598
    1   AR   Ar  232   5.346   2.798   1.640
    1   AR   Ar  233   6.637   2.128   3.660
    1   AR   Ar  234   6.200   2.632   4.478
    1   AR   Ar  235   6.361   0.812   3.823
    1   AR   Ar  236   3.991   4.414   5.310
    1   AR   Ar  237   4.551   0.193   7.694
    1   AR   Ar  238   4.941   5.044   6.716
    1   AR   Ar  239   1.125   4.393  11.283
    1   AR   Ar  240   1.924   3.478   6.622
    1   AR   Ar  241   1.526   0.133   0.667
    1   AR   Ar  242   5.652   5.916   1.752
    1   AR   Ar  243   4.744   6.581   2.092
    1   AR   Ar  244   6.636   5.989   0.270
    1   AR   Ar  245   3.456   1.003   3.379
    1   AR   Ar  246   5.871   0.456  -1.242
    1   AR   Ar  247   7.043   3.670   1.628
    1   AR   Ar  248   5.532   5.352  -0.338
    1   AR   Ar  249   3.889   7.110   1.623
    1   AR   Ar  250   5.172   6.659   3.945
    1   AR   Ar  251   4.793   4.384   4.200
    1   AR   Ar  252   2.847   5.184   2.245
    1   AR   Ar  253   4.623   2.393   8.342
    1   AR   Ar  254   4.797   3.258  12.132
    1   AR   Ar  255   4.466   7.015   9.076
    1   AR   Ar  256   5.695   5.766   3.466
    7.12000  7.12000 12.00000
Argon-slab step 5265
  256
    1   AR   Ar    1   4.137   3.371  -2.877
    1   AR   Ar    2   5.412   6.396   0.416
    1   AR   Ar    3   3.882   3.674  -1.060
    1   AR   Ar    4   2.555   1.087   0.590
    1   AR   Ar    5   6.900   5.220  -0.494
    1   AR   Ar    6   0.952   1.301   2.408
    1   AR   Ar    7   5.879   4.483   3.181
    1   AR   Ar    8   6.466   3.433  -1.199
    1   AR   Ar    9   6.969   6.523   4.652
    1   AR   Ar   10   6.202   4.905   5.361
    1   AR   Ar   11   1.225   6.840   5.150
    1   AR   Ar   12   0.128   1.429   4.404
    1   AR   Ar   13   0.128   0.345   4.896
    1   AR   Ar   14   3.770   0.576   7.051
    1   AR   Ar   15   2.386   6.352   9.740
    1   AR   Ar   16   0.451   7.120   5.925
    1   AR   Ar   17   6.061   3.863   1.255
    1   AR   Ar   18   0.132   4.561  -1.565
    1   AR   Ar   19   5.596   4.539   0.646
    1   AR   Ar   20   6.650   3.728  -2.647
    1   AR   Ar   21   2.299   1.312   1.561
    1   AR   Ar   22   5.151   0.564   1.764
    1   AR   Ar   23   1.015   6.119   0.833
    1   AR   Ar   24   5.764   2.783   3.274
    1   AR   Ar   25   1.010   2.967   5.285
    1   AR   Ar   26   5.538   6.008   4.755
    1   AR   Ar   27   1.398   0.589   1.676
    1   AR   Ar   28   2.197   2.575   3.607
    1   AR   Ar   29   4.968   1.488   7.937
    1   AR   Ar   30   7.040   1.178   3.087
    1   AR   Ar   31   1.612   0.507   6.340
    1   AR   Ar   32   1.221   1.780   5.399
    1   AR   Ar   33   7.037   4.476   0.581
    1   AR   Ar   34   1.482   5.116   2.588
    1   AR   Ar   35   4.931   5.541   2.601
    1   AR   Ar   36   4.928   2.395  -3.201
    1   AR   Ar   37   3.859   3.273   1.573
    1   AR   Ar   38   5.971   4.872   4.146
    1   AR   Ar   39   0.335   2.548   4.046
    1   AR   Ar   40   0.762   4.461   2.229
    1   AR   Ar   41   0.836   1.777   3.540
    1   AR   Ar   42   5.125   5.346   5.592
    1   AR   Ar   43   0.226   3.080   5.926
    1   AR   Ar   44   0.270   3.765   3.119
    1   AR   Ar   45   1.923   3.756   5.140
    1   AR   Ar   46   5.894   4.937   6.547
    1   AR   Ar   47   3.092   3.735   7.167
    1   AR   Ar   48   6.986   3.485   7.374
    1   AR   Ar   49   0.566   0.969   1.081
    1   AR   Ar   50   3.124   4.515   0.057
    1   AR   Ar   51   5.287   3.473   2.728
    1   AR   Ar   52   5.370   3.863  -1.208
    1   AR   Ar   53   4.457   0.297   3.328
    1   AR   Ar   54   6.668   7.096   2.564
    1   AR   Ar   55   7.084   4.997   2.278
    1   AR   Ar   56   5.858   1.812   2.791
    1   AR   Ar   57   4.187   4.754   2.279
    1   AR   Ar   58   1.183   3.538   3.982
    1   AR   Ar   59   2.683   5.702   5.520
    1   AR   Ar   60   0.130   5.645   3.132
    1   AR   Ar   61   7.003   4.191   6.148
    1   AR   Ar   62   0.095   4.382   5.039
    1   AR   Ar   63   2.899   3.101   8.066
    1   AR   Ar   64   0.220   5.293   4.541
    1   AR   Ar   65   4.004   0.913   2.376
    1   AR   Ar   66   1.471   1.153   0.530
    1   AR   Ar   67   4.877   0.262  -0.657
    1   AR   Ar   68   7.015   1.277  -0.446
    1   AR   Ar   69   2.750   1.816  -0.301
    1   AR   Ar   70   7.118   1.331   1.816
    1   AR   Ar   71   2.846   0.761   2.596
    1   AR   Ar   72   4.351   1.013   1.201
    1   AR   Ar   73   2.914   0.009   4.197
    1   AR   Ar   74   1.133   0.737   3.226
    1   AR   Ar   75   2.780   0.572   5.375
    1   AR   Ar   76   2.453   0.228   1.370
    1   AR   Ar   77   1.565   5.768   5.277
    1   AR   Ar   78   7.088   5.366   5.709
    1   AR   Ar   79   3.105   6.670   5.338
    1   AR   Ar   80   3.751   5.432   5.761
    1   AR   Ar   81   1.887   6.517   1.704
    1   AR   Ar   82   6.714   5.583   1.273
    1   AR   Ar   83   0.711   3.384   0.955
    1   AR   Ar   84   1.094   4.540   1.252
    1   AR   Ar   85   0.571   3.392  -0.038
    1   AR   Ar   86   1.869   5.460   1.097
    1   AR   Ar   87   3.554   3.055   2.600
    1   AR   Ar   88   3.402   5.423   1.367
    1   AR   Ar   89   6.542   2.297   1.214
    1   AR   Ar   90   3.394   1.351   5.990
    1   AR   Ar   91   1.978   1.421   2.849
    1   AR   Ar   92   2.593   2.242   0.864
    1   AR   Ar   93   1.610   0.814   5.392
    1   AR   Ar   94   0.319   6.742   8.275
    1   AR   Ar   95   4.639   0.822   5.789
    1   AR   Ar   96   2.206   6.925   4.836
    1   AR   Ar   97   3.400   1.940  -1.241
    1   AR   Ar   98   1.857   4.690   4.138
    1   AR   Ar   99   6.299   7.060  -0.012
    1   AR   Ar  100   5.821   3.059  -2.089
    1   AR   Ar  101   3.995   5.788   2.750
    1   AR   Ar  102   3.477   1.751   2.261
    1   AR   Ar  103   2.153   4.132   0.988
    1   AR   Ar  104   3.100   0.101  -1.508
    1   AR   Ar  105   2.667   2.254   2.752
    1   AR   Ar  106   4.079   1.697   4.059
    1   AR   Ar  107   1.118   4.744   5.702
    1   AR   Ar  108   2.099   0.590   3.884
    1   AR   Ar  109   2.251   4.765   5.248
    1   AR   Ar  110   2.229   2.283   4.819
    1   AR   Ar  111   3.284   4.846   7.162
    1   AR   Ar  112   5.958   6.322   5.707
    1   AR   Ar  113   0.342   5.694  -1.282
    1   AR   Ar  114   2.851   7.108  -0.152
    1   AR   Ar  115   0.500   5.465   0.205
    1   AR   Ar  116   5.206   0.463   0.293
    1   AR   Ar  117   6.922   4.865   3.778
    1   AR   Ar  118   2.067   6.585   3.528
    1   AR   Ar  119   1.565   4.147   2.852
    1   AR   Ar  120   2.009   0.037   2.610
    1   AR   Ar  121   5.357   4.265   5.788
    1   AR   Ar  122   2.918   5.264   3.546
    1   AR   Ar  123   3.617   2.127   5.103
    1   AR   Ar  124   0.797   5.572   1.777
    1   AR   Ar  125   5.906   3.649   4.038
    1   AR   Ar  126   6.994   0.303   7.428
    1   AR   Ar  127   4.983   2.921   5.974
    1   AR   Ar  128   1.026   3.864   6.428
    1   AR   Ar  129   2.058   5.819   4.217
    1   AR   Ar  130   4.071   0.563  -4.912
    1   AR   Ar  131   3.863   6.926  -0.700
    1   AR   Ar  132   1.296   2.290   0.978
    1   AR   Ar  133   4.004   0.335   4.408
    1   AR   Ar  134   2.670   1.688   3.883
    1   AR   Ar  135   6.143   0.002   4.973
    1   AR   Ar  136   5.799   6.534   2.683
    1   AR   Ar  137   2.437   4.181   6.145
    1   AR   Ar  138   5.746   1.275   6.106
    1   AR   Ar  139   6.158   1.371   4.618
    1   AR   Ar  140   4.242   6.769   5.333
    1   AR   Ar  141   3.733   5.372   4.502
    1   AR   Ar  142   5.192   6.190   8.218
    1   AR   Ar  143   5.466   6.793   6.763
    1   AR   Ar  144   0.090   2.386   5.024
    1   AR   Ar  145   4.971   4.965  -1.043
    1   AR   Ar  146   3.616   2.258   3.365
    1   AR   Ar  147   5.148   4.092  -0.153
    1   AR   Ar  148   3.087   6.041  -0.878
    1   AR   Ar  149   0.259   2.186  -0.720
    1   AR   Ar  150   1.543   2.623   1.989
    1   AR   Ar  151   2.581   3.440   2.835
    1   AR   Ar  152   0.847   0.934  -1.445
    1   AR   Ar  153   5.411   0.916   3.221
    1   AR   Ar  154   4.410   2.690   3.903
    1   AR   Ar  155   5.801   3.419   5.264
    1   AR   Ar  156   3.186   4.248   3.030
    1   AR   Ar  157   3.007   5.773   6.626
    1   AR   Ar  158   0.562   2.753   6.934
    1   AR   Ar  159   3.742   0.377   5.900
    1   AR   Ar  160   1.462   1.273   4.494
    1   AR   Ar  161   4.682   4.586   3.151
    1   AR   Ar  162   4.094   5.809  -0.507
    1   AR   Ar  163   6.341   4.176   2.355
    1   AR   Ar  164   2.195   5.972   2.543
    1   AR   Ar  165   3.180   3.858   1.169
    1   AR   Ar  166   3.067   3.632   5.172
    1   AR   Ar  167   6.234   6.938   3.675
    1   AR   Ar  168   6.129   4.717  -2.193
    1   AR   Ar  169   3.875   3.582   3.550
    1   AR   Ar  170   2.812   3.176   6.162
    1   AR   Ar  171   4.781   5.476   4.265
    1   AR   Ar  172   4.039   3.409   4.812
    1   AR   Ar  173   2.618   1.832   6.624
    1   AR   Ar  174   3.034   6.157   4.383
    1   AR   Ar  175   2.838   0.335   6.515
    1   AR   Ar  176   3.166   3.034   4.058
    1   AR   Ar  177   0.153   4.271  -0.510
    1   AR   Ar  178   2.032   6.386   0.573
    1   AR   Ar  179   3.228   6.420   0.802
    1   AR   Ar  180   4.942   0.363  -7.760
    1   AR   Ar  181   0.015   6.537   1.827
    1   AR   Ar  182   1.090   6.609   2.602
    1   AR   Ar  183   4.727   5.296   1.538
    1   AR   Ar  184   4.422   5.336   0.437
    1   AR   Ar  185   3.154   4.418   4.476
    1   AR   Ar  186   3.098   6.848   2.776
    1   AR   Ar  187   3.885   6.412   4.016
    1   AR   Ar  188   3.301   0.830   1.565
    1   AR   Ar  189   5.844   2.382   5.547
    1   AR   Ar  190   1.199   7.035   4.096
    1   AR   Ar  191   3.855   6.636   6.511
    1   AR   Ar  192   3.951   3.277   6.025
    1   AR   Ar  193   3.166   6.205   1.993
    1   AR   Ar  194   4.966   6.342  -0.866
    1   AR   Ar  195   6.415   0.876   0.860
    1   AR   Ar  196   3.924   0.268   0.392
    1   AR   Ar  197   4.838   3.106   0.705
    1   AR   Ar  198   6.133   6.781   1.376
    1   AR   Ar  199   0.437   0.324   2.569
    1   AR   Ar  200   6.341   2.687  -0.306
    1   AR   Ar  201   6.327   5.702   2.474
    1   AR   Ar  202   5.279   0.583   4.350
    1   AR   Ar  203   0.292   6.900   3.518
    1   AR   Ar  204   4.262   4.627   7.627
    1   AR   Ar  205   5.872   1.792   1.728
    1   AR   Ar  206   6.288   0.301   6.063
    1   AR   Ar  207   0.150   3.470   4.534
    1   AR   Ar  208   0.736   5.931   3.952
    1   AR   Ar  209   6.923   2.208  -1.793
    1   AR   Ar  210   2.114   0.868  -0.420
    1   AR   Ar  211   6.909   3.217   0.559
    1   AR   Ar  212   6.311   3.814  -0.076
    1   AR   Ar  213   3.642   2.083   1.183
    1   AR   Ar  214   5.335   4.302   1.969
    1   AR   Ar  215   0.395   2.384   1.752
    1   AR   Ar  216   1.653   2.303  -0.089
    1   AR   Ar  217   5.572   1.914   3.824
    1   AR   Ar  218   5.003   2.593   4.906
    1   AR   Ar  219   4.179   3.760   2.419
    1   AR   Ar  220   4.442   4.182   1.334
    1   AR   Ar  221   6.585   5.762   3.920
    1   AR   Ar  222   5.262   0.044   5.772
    1   AR   Ar  223   6.891   1.559   5.928
    1   AR   Ar  224   5.126   1.488   4.976
    1   AR   Ar  225   6.793   2.234   2.420
    1   AR   Ar  226   2.245   3.727   4.119
    1   AR   Ar  227   0.921   2.780   3.158
    1   AR   Ar  228   6.150   0.633   2.031
    1   AR   Ar  229   6.169   4.492  -0.862
    1   AR   Ar  230   3.913   4.582   3.792
    1   AR   Ar  231   4.845   2.143   2.606
    1   AR   Ar  232   5.344   2.793   1.633
    1   AR   Ar  233   6.616   2.119   3.634
    1   AR   Ar  234   6.216   2.596   4.466
    1   AR   Ar  235   6.318   0.807   3.826
    1   AR   Ar  236   3.992   4.397   5.294
    1   AR   Ar  237   4.537   0.165   7.690
    1   AR   Ar  238   4.935   5.053   6.701
    1   AR   Ar  239   1.133   4.384  11.278
    1   AR   Ar  240   1.943   3.477   6.603
    1   AR   Ar  241   1.510   0.123   0.682
    1   AR   Ar  242   5.624   5.934   1.773
    1   AR   Ar  243   4.726   6.577   2.099
    1   AR   Ar  244   6.630   5.984   0.320
    1   AR   Ar  245   3.425   0.996   3.400
    1   AR   Ar  246   5.848   0.445  -1.258
    1   AR   Ar  247   7.045   3.678   1.614
    1   AR   Ar  248   5.542   5.362  -0.306
    1   AR   Ar  249   3.857   7.115   1.636
    1   AR   Ar  250   5.166   6.658   3.966
    1   AR   Ar  251   4.808   4.387   4.258
    1   AR   Ar  252   2.856   5.208   2.278
    1   AR   Ar  253   4.590   2.407   8.373
    1   AR   Ar  254   4.787   3.213  12.138
    1   AR   Ar  255   4.479   7.041   9.073
    1   AR   Ar  256   5.703   5.790   3.459
    7.12000  7.12000 12.00000
Argon-slab step 5270
  256
    1   AR   Ar    1   4.150   3.368  -2.879
    1   AR   Ar    2   5.399   6.416   0.427
    1   AR   Ar    3   3.898   3.681  -1.044
    1   AR   Ar    4   2.500   1.106   0.602
    1   AR   Ar    5   6.932   5.178  -0.500
    1   AR   Ar    6   0.975   1.327   2.423
    1   AR   Ar    7   5.887   4.483   3.198
    1   AR   Ar    8   6.432   3.413  -1.213
    1   AR   Ar    9   6.996   6.510   4.658
    1   AR   Ar   10   6.230   4.908   5.348
    1   AR   Ar   11   1.211   6.853   5.151
    1   AR   Ar   12   0.114   1.466   4.394
    1   AR   Ar   13   0.136   0.341   4.854
    1   AR   Ar   14   3.771   0.576   7.052
    1   AR   Ar   15   2.368   6.331   9.754
    1   AR   Ar   16   0.435   7.114   5.961
    1   AR   Ar   17   6.054   3.892   1.256
    1   AR   Ar   18   0.167   4.553  -1.566
    1   AR   Ar   19   5.625   4.532   0.663
    1   AR   Ar   20   6.638   3.720  -2.677
    1   AR   Ar   21   2.286   1.287   1.543
    1   AR   Ar   22   5.158   0.559   1.766
    1   AR   Ar   23   1.022   6.107   0.829
    1   AR   Ar   24   5.778   2.796   3.262
    1   AR   Ar   25   1.008   2.954   5.275
    1   AR   Ar   26   5.520   5.967   4.818
    1   AR   Ar   27   1.408   0.580   1.632
    1   AR   Ar   28   2.199   2.583   3.605
    1   AR   Ar   29   5.006   1.483   7.943
    1   AR   Ar   30   7.047   1.185   3.072
    1   AR   Ar   31   1.589   0.498   6.368
    1   AR   Ar   32   1.201   1.767   5.417
    1   AR   Ar   33   7.017   4.506   0.613
    1   AR   Ar   34   1.504   5.121   2.563
    1   AR   Ar   35   4.935   5.572   2.608
    1   AR   Ar   36   4.943   2.367  -3.197
    1   AR   Ar   37   3.868   3.280   1.572
    1   AR   Ar   38   5.972   4.864   4.120
    1   AR   Ar   39   0.344   2.568   4.040
    1   AR   Ar   40   0.767   4.479   2.238
    1   AR   Ar   41   0.856   1.763   3.548
    1   AR   Ar   42   5.140   5.355   5.580
    1   AR   Ar   43   0.212   3.058   5.918
    1   AR   Ar   44   0.294   3.738   3.109
    1   AR   Ar   45   1.874   3.781   5.158
    1   AR   Ar   46   5.884   4.939   6.548
    1   AR   Ar   47   3.085   3.733   7.120
    1   AR   Ar   48   6.992   3.516   7.403
    1   AR   Ar   49   0.568   0.994   1.114
    1   AR   Ar   50   3.125   4.478   0.038
    1   AR   Ar   51   5.267   3.466   2.725
    1   AR   Ar   52   5.376   3.896  -1.230
    1   AR   Ar   53   4.478   0.279   3.337
    1   AR   Ar   54   6.647   7.075   2.605
    1   AR   Ar   55   7.077   4.983   2.263
    1   AR   Ar   56   5.851   1.812   2.794
    1   AR   Ar   57   4.162   4.779   2.279
    1   AR   Ar   58   1.195   3.564   3.979
    1   AR   Ar   59   2.640   5.687   5.518
    1   AR   Ar   60   0.138   5.664   3.126
    1   AR   Ar   61   7.016   4.176   6.160
    1   AR   Ar   62   0.097   4.392   5.073
    1   AR   Ar   63   2.932   3.105   8.053
    1   AR   Ar   64   0.207   5.290   4.543
    1   AR   Ar   65   4.003   0.881   2.329
    1   AR   Ar   66   1.469   1.190   0.577
    1   AR   Ar   67   4.824   0.251  -0.676
    1   AR   Ar   68   6.998   1.268  -0.462
    1   AR   Ar   69   2.770   1.819  -0.321
    1   AR   Ar   70   7.089   1.357   1.851
    1   AR   Ar   71   2.827   0.771   2.588
    1   AR   Ar   72   4.365   1.016   1.218
    1   AR   Ar   73   2.939   0.014   4.207
    1   AR   Ar   74   1.104   0.710   3.207
    1   AR   Ar   75   2.781   0.572   5.392
    1   AR   Ar   76   2.446   0.200   1.377
    1   AR   Ar   77   1.546   5.759   5.274
    1   AR   Ar   78   7.073   5.376   5.695
    1   AR   Ar   79   3.097   6.675   5.310
    1   AR   Ar   80   3.747   5.412   5.793
    1   AR   Ar   81   1.881   6.546   1.755
    1   AR   Ar   82   6.714   5.579   1.286
    1   AR   Ar   83   0.665   3.371   0.972
    1   AR   Ar   84   1.076   4.547   1.243
    1   AR   Ar   85   0.584   3.394  -0.038
    1   AR   Ar   86   1.835   5.485   1.061
    1   AR   Ar   87   3.544   3.008   2.606
    1   AR   Ar   88   3.406   5.460   1.376
    1   AR   Ar   89   6.544   2.326   1.211
    1   AR   Ar   90   3.420   1.336   6.001
    1   AR   Ar   91   1.979   1.389   2.850
    1   AR   Ar   92   2.576   2.216   0.847
    1   AR   Ar   93   1.579   0.813   5.379
    1   AR   Ar   94   0.303   6.729   8.300
    1   AR   Ar   95   4.651   0.817   5.811
    1   AR   Ar   96   2.178   6.939   4.819
    1   AR   Ar   97   3.380   1.939  -1.231
    1   AR   Ar   98   1.844   4.697   4.137
    1   AR   Ar   99   6.327   7.052  -0.038
    1   AR   Ar  100   5.798   3.099  -2.071
    1   AR   Ar  101   3.991   5.751   2.756
    1   AR   Ar  102   3.463   1.734   2.284
    1   AR   Ar  103   2.167   4.129   0.998
    1   AR   Ar  104   3.099   0.090  -1.505
    1   AR   Ar  105   2.639   2.282   2.729
    1   AR   Ar  106   4.091   1.689   4.069
    1   AR   Ar  107   1.093   4.739   5.661
    1   AR   Ar  108   2.096   0.598   3.890
    1   AR   Ar  109   2.312   4.773   5.247
    1   AR   Ar  110   2.226   2.285   4.796
    1   AR   Ar  111   3.319   4.847   7.138
    1   AR   Ar  112   5.958   6.335   5.727
    1   AR   Ar  113   0.295   5.680  -1.262
    1   AR   Ar  114   2.856   7.076  -0.153
    1   AR   Ar  115   0.505   5.430   0.184
    1   AR   Ar  116   5.184   0.485   0.328
    1   AR   Ar  117   6.897   4.859   3.775
    1   AR   Ar  118   2.071   6.584   3.544
    1   AR   Ar  119   1.568   4.116   2.824
    1   AR   Ar  120   2.019   0.039   2.633
    1   AR   Ar  121   5.365   4.235   5.796
    1   AR   Ar  122   2.933   5.262   3.536
    1   AR   Ar  123   3.640   2.126   5.085
    1   AR   Ar  124   0.800   5.557   1.766
    1   AR   Ar  125   5.912   3.642   4.046
    1   AR   Ar  126   6.984   0.330   7.458
    1   AR   Ar  127   4.971   2.915   5.965
    1   AR   Ar  128   1.015   3.835   6.406
    1   AR   Ar  129   2.051   5.792   4.249
    1   AR   Ar  130   4.081   0.570  -4.955
    1   AR   Ar  131   3.842   6.915  -0.650
    1   AR   Ar  132   1.309   2.276   0.987
    1   AR   Ar  133   3.995   0.344   4.439
    1   AR   Ar  134   2.675   1.679   3.922
    1   AR   Ar  135   6.164   7.094   4.961
    1   AR   Ar  136   5.805   6.537   2.708
    1   AR   Ar  137   2.439   4.217   6.125
    1   AR   Ar  138   5.748   1.304   6.089
    1   AR   Ar  139   6.150   1.399   4.620
    1   AR   Ar  140   4.243   6.784   5.336
    1   AR   Ar  141   3.701   5.361   4.508
    1   AR   Ar  142   5.206   6.183   8.224
    1   AR   Ar  143   5.476   6.802   6.770
    1   AR   Ar  144   0.076   2.410   5.017
    1   AR   Ar  145   4.983   4.958  -1.068
    1   AR   Ar  146   3.610   2.253   3.385
    1   AR   Ar  147   5.107   4.093  -0.139
    1   AR   Ar  148   3.082   6.045  -0.887
    1   AR   Ar  149   0.272   2.193  -0.708
    1   AR   Ar  150   1.540   2.604   1.978
    1   AR   Ar  151   2.590   3.425   2.794
    1   AR   Ar  152   0.847   0.918  -1.419
    1   AR   Ar  153   5.403   0.899   3.210
    1   AR   Ar  154   4.419   2.659   3.935
    1   AR   Ar  155   5.812   3.436   5.278
    1   AR   Ar  156   3.189   4.271   3.035
    1   AR   Ar  157   3.023   5.757   6.649
    1   AR   Ar  158   0.585   2.744   6.942
    1   AR   Ar  159   3.739   0.385   5.911
    1   AR   Ar  160   1.478   1.287   4.447
    1   AR   Ar  161   4.713   4.584   3.144
    1   AR   Ar  162   4.091   5.787  -0.507
    1   AR   Ar  163   6.336   4.170   2.314
    1   AR   Ar  164   2.197   5.982   2.587
    1   AR   Ar  165   3.188   3.891   1.130
    1   AR   Ar  166   3.063   3.651   5.196
    1   AR   Ar  167   6.231   6.925   3.659
    1   AR   Ar  168   6.076   4.722  -2.187
    1   AR   Ar  169   3.887   3.577   3.569
    1   AR   Ar  170   2.823   3.172   6.154
    1   AR   Ar  171   4.761   5.482   4.262
    1   AR   Ar  172   4.034   3.409   4.825
    1   AR   Ar  173   2.571   1.833   6.659
    1   AR   Ar  174   3.033   6.140   4.377
    1   AR   Ar  175   2.802   0.332   6.526
    1   AR   Ar  176   3.168   3.061   4.061
    1   AR   Ar  177   0.164   4.293  -0.515
    1   AR   Ar  178   2.025   6.403   0.580
    1   AR   Ar  179   3.270   6.448   0.814
    1   AR   Ar  180   4.951   0.355  -7.743
    1   AR   Ar  181   0.042   6.561   1.826
    1   AR   Ar  182   1.098   6.611   2.621
    1   AR   Ar  183   4.736   5.286   1.520
    1   AR   Ar  184   4.434   5.340   0.422
    1   AR   Ar  185   3.151   4.431   4.445
    1   AR   Ar  186   3.109   6.830   2.768
    1   AR   Ar  187   3.862   6.415   4.006
    1   AR   Ar  188   3.314   0.836   1.551
    1   AR   Ar  189   5.844   2.376   5.533
    1   AR   Ar  190   1.226   7.006   4.086
    1   AR   Ar  191   3.851   6.614   6.488
    1   AR   Ar  192   3.963   3.306   6.064
    1   AR   Ar  193   3.186   6.187   2.003
    1   AR   Ar  194   4.977   6.347  -0.841
    1   AR   Ar  195   6.438   0.895   0.883
    1   AR   Ar  196   3.954   0.243   0.372
    1   AR   Ar  197   4.839   3.103   0.671
    1   AR   Ar  198   6.139   6.788   1.352
    1   AR   Ar  199   0.415   0.314   2.546
    1   AR   Ar  200   6.332   2.680  -0.285
    1   AR   Ar  201   6.330   5.704   2.451
    1   AR   Ar  202   5.269   0.590   4.383
    1   AR   Ar  203   0.306   6.923   3.491
    1   AR   Ar  204   4.275   4.612   7.611
    1   AR   Ar  205   5.878   1.761   1.727
    1   AR   Ar  206   6.300   0.299   6.024
    1   AR   Ar  207   0.124   3.478   4.575
    1   AR   Ar  208   0.727   5.942   3.931
    1   AR   Ar  209   6.903   2.200  -1.793
    1   AR   Ar  210   2.130   0.870  -0.441
    1   AR   Ar  211   6.902   3.245   0.579
    1   AR   Ar  212   6.329   3.790  -0.064
    1   AR   Ar  213   3.621   2.058   1.168
    1   AR   Ar  214   5.339   4.284   1.967
    1   AR   Ar  215   0.431   2.377   1.785
    1   AR   Ar  216   1.628   2.302  -0.116
    1   AR   Ar  217   5.575   1.928   3.839
    1   AR   Ar  218   5.005   2.607   4.877
    1   AR   Ar  219   4.158   3.766   2.409
    1   AR   Ar  220   4.447   4.225   1.325
    1   AR   Ar  221   6.604   5.761   3.907
    1   AR   Ar  222   5.293   0.055   5.766
    1   AR   Ar  223   6.918   1.529   5.927
    1   AR   Ar  224   5.119   1.456   4.969
    1   AR   Ar  225   6.754   2.185   2.414
    1   AR   Ar  226   2.284   3.746   4.119
    1   AR   Ar  227   0.945   2.772   3.170
    1   AR   Ar  228   6.152   0.657   2.055
    1   AR   Ar  229   6.168   4.488  -0.866
    1   AR   Ar  230   3.886   4.595   3.811
    1   AR   Ar  231   4.875   2.172   2.614
    1   AR   Ar  232   5.354   2.804   1.633
    1   AR   Ar  233   6.595   2.104   3.602
    1   AR   Ar  234   6.230   2.562   4.457
    1   AR   Ar  235   6.278   0.804   3.822
    1   AR   Ar  236   3.991   4.380   5.277
    1   AR   Ar  237   4.517   0.134   7.686
    1   AR   Ar  238   4.915   5.064   6.688
    1   AR   Ar  239   1.141   4.374  11.273
    1   AR   Ar  240   1.957   3.464   6.595
    1   AR   Ar  241   1.491   0.115   0.700
    1   AR   Ar  242   5.600   5.937   1.798
    1   AR   Ar  243   4.710   6.572   2.107
    1   AR   Ar  244   6.622   5.982   0.366
    1   AR   Ar  245   3.399   0.991   3.426
    1   AR   Ar  246   5.796   0.407  -1.257
    1   AR   Ar  247   7.049   3.686   1.602
    1   AR   Ar  248   5.558   5.368  -0.291
    1   AR   Ar  249   3.830   7.113   1.650
    1   AR   Ar  250   5.158   6.659   3.986
    1   AR   Ar  251   4.828   4.387   4.320
    1   AR   Ar  252   2.866   5.227   2.314
    1   AR   Ar  253   4.557   2.422   8.404
    1   AR   Ar  254   4.777   3.168  12.143
    1   AR   Ar  255   4.491   7.068   9.069
    1   AR   Ar  256   5.706   5.800   3.430
    7.12000  7.12000 12.00000
Argon-slab step 5275
  256
    1   AR   Ar    1   4.163   3.365  -2.880
    1   AR   Ar    2   5.387   6.436   0.438
    1   AR   Ar    3   3.906   3.676  -1.062
    1   AR   Ar    4   2.453   1.122   0.603
    1   AR   Ar    5   6.946   5.153  -0.506
    1   AR   Ar    6   0.994   1.359   2.430
    1   AR   Ar    7   5.891   4.481   3.210
    1   AR   Ar    8   6.398   3.394  -1.225
    1   AR   Ar    9   6.997   6.452   4.656
    1   AR   Ar   10   6.252   4.908   5.332
    1   AR   Ar   11   1.190   6.867   5.156
    1   AR   Ar   12   0.100   1.504   4.383
    1   AR   Ar   13   0.147   0.344   4.813
    1   AR   Ar   14   3.771   0.577   7.051
    1   AR   Ar   15   2.349   6.310   9.768
    1   AR   Ar   16   0.425   0.007   5.960
    1   AR   Ar   17   6.054   3.909   1.263
    1   AR   Ar   18   0.188   4.553  -1.564
    1   AR   Ar   19   5.650   4.537   0.674
    1   AR   Ar   20   6.625   3.713  -2.706
    1   AR   Ar   21   2.271   1.266   1.538
    1   AR   Ar   22   5.177   0.556   1.768
    1   AR   Ar   23   1.024   6.100   0.827
    1   AR   Ar   24   5.797   2.806   3.254
    1   AR   Ar   25   1.010   2.941   5.260
    1   AR   Ar   26   5.505   5.930   4.876
    1   AR   Ar   27   1.415   0.567   1.605
    1   AR   Ar   28   2.198   2.596   3.607
    1   AR   Ar   29   5.043   1.477   7.948
    1   AR   Ar   30   7.054   1.193   3.056
    1   AR   Ar   31   1.567   0.488   6.400
    1   AR   Ar   32   1.177   1.761   5.435
    1   AR   Ar   33   6.996   4.536   0.645
    1   AR   Ar   34   1.520   5.134   2.534
    1   AR   Ar   35   4.955   5.600   2.614
    1   AR   Ar   36   4.958   2.341  -3.193
    1   AR   Ar   37   3.881   3.279   1.567
    1   AR   Ar   38   5.962   4.860   4.109
    1   AR   Ar   39   0.354   2.588   4.031
    1   AR   Ar   40   0.782   4.482   2.247
    1   AR   Ar   41   0.877   1.744   3.555
    1   AR   Ar   42   5.155   5.361   5.572
    1   AR   Ar   43   0.195   3.038   5.913
    1   AR   Ar   44   0.320   3.711   3.099
    1   AR   Ar   45   1.825   3.805   5.176
    1   AR   Ar   46   5.909   4.929   6.580
    1   AR   Ar   47   3.077   3.732   7.072
    1   AR   Ar   48   6.979   3.539   7.422
    1   AR   Ar   49   0.563   0.990   1.112
    1   AR   Ar   50   3.127   4.441   0.020
    1   AR   Ar   51   5.241   3.466   2.717
    1   AR   Ar   52   5.381   3.927  -1.253
    1   AR   Ar   53   4.498   0.260   3.347
    1   AR   Ar   54   6.617   7.049   2.652
    1   AR   Ar   55   7.073   4.946   2.244
    1   AR   Ar   56   5.845   1.808   2.800
    1   AR   Ar   57   4.134   4.810   2.275
    1   AR   Ar   58   1.207   3.589   3.976
    1   AR   Ar   59   2.600   5.680   5.516
    1   AR   Ar   60   0.147   5.636   3.133
    1   AR   Ar   61   7.033   4.165   6.169
    1   AR   Ar   62   0.098   4.404   5.111
    1   AR   Ar   63   2.964   3.110   8.038
    1   AR   Ar   64   0.198   5.293   4.559
    1   AR   Ar   65   4.009   0.842   2.287
    1   AR   Ar   66   1.465   1.230   0.624
    1   AR   Ar   67   4.771   0.243  -0.695
    1   AR   Ar   68   6.978   1.254  -0.477
    1   AR   Ar   69   2.787   1.822  -0.337
    1   AR   Ar   70   7.099   1.326   1.836
    1   AR   Ar   71   2.817   0.752   2.587
    1   AR   Ar   72   4.378   1.020   1.233
    1   AR   Ar   73   2.974   0.028   4.210
    1   AR   Ar   74   1.081   0.678   3.199
    1   AR   Ar   75   2.784   0.570   5.400
    1   AR   Ar   76   2.442   0.175   1.381
    1   AR   Ar   77   1.527   5.749   5.269
    1   AR   Ar   78   7.063   5.388   5.681
    1   AR   Ar   79   3.093   6.680   5.283
    1   AR   Ar   80   3.742   5.392   5.824
    1   AR   Ar   81   1.871   6.571   1.803
    1   AR   Ar   82   6.715   5.571   1.308
    1   AR   Ar   83   0.639   3.358   0.998
    1   AR   Ar   84   1.057   4.554   1.231
    1   AR   Ar   85   0.600   3.396  -0.049
    1   AR   Ar   86   1.804   5.505   1.029
    1   AR   Ar   87   3.543   2.996   2.646
    1   AR   Ar   88   3.413   5.488   1.377
    1   AR   Ar   89   6.552   2.360   1.206
    1   AR   Ar   90   3.444   1.328   6.012
    1   AR   Ar   91   1.979   1.358   2.853
    1   AR   Ar   92   2.575   2.234   0.891
    1   AR   Ar   93   1.557   0.810   5.397
    1   AR   Ar   94   0.286   6.716   8.324
    1   AR   Ar   95   4.662   0.823   5.833
    1   AR   Ar   96   2.147   6.951   4.804
    1   AR   Ar   97   3.360   1.938  -1.220
    1   AR   Ar   98   1.831   4.708   4.136
    1   AR   Ar   99   6.354   7.044  -0.063
    1   AR   Ar  100   5.775   3.140  -2.054
    1   AR   Ar  101   3.970   5.717   2.765
    1   AR   Ar  102   3.446   1.723   2.308
    1   AR   Ar  103   2.177   4.128   1.007
    1   AR   Ar  104   3.099   0.078  -1.500
    1   AR   Ar  105   2.614   2.310   2.701
    1   AR   Ar  106   4.102   1.670   4.060
    1   AR   Ar  107   1.068   4.734   5.619
    1   AR   Ar  108   2.093   0.605   3.893
    1   AR   Ar  109   2.370   4.776   5.240
    1   AR   Ar  110   2.223   2.287   4.771
    1   AR   Ar  111   3.354   4.845   7.114
    1   AR   Ar  112   5.980   6.346   5.724
    1   AR   Ar  113   0.249   5.669  -1.246
    1   AR   Ar  114   2.861   7.044  -0.153
    1   AR   Ar  115   0.514   5.394   0.168
    1   AR   Ar  116   5.162   0.506   0.365
    1   AR   Ar  117   6.882   4.827   3.754
    1   AR   Ar  118   2.077   6.584   3.560
    1   AR   Ar  119   1.574   4.078   2.800
    1   AR   Ar  120   2.029   0.045   2.656
    1   AR   Ar  121   5.371   4.209   5.806
    1   AR   Ar  122   2.948   5.261   3.528
    1   AR   Ar  123   3.663   2.126   5.067
    1   AR   Ar  124   0.804   5.543   1.755
    1   AR   Ar  125   5.926   3.623   4.037
    1   AR   Ar  126   6.975   0.357   7.488
    1   AR   Ar  127   4.961   2.910   5.955
    1   AR   Ar  128   0.979   3.805   6.381
    1   AR   Ar  129   2.041   5.763   4.283
    1   AR   Ar  130   4.091   0.578  -4.998
    1   AR   Ar  131   3.820   6.902  -0.601
    1   AR   Ar  132   1.302   2.317   0.971
    1   AR   Ar  133   3.987   0.352   4.469
    1   AR   Ar  134   2.680   1.667   3.959
    1   AR   Ar  135   6.180   7.068   4.947
    1   AR   Ar  136   5.799   6.545   2.732
    1   AR   Ar  137   2.434   4.188   6.169
    1   AR   Ar  138   5.749   1.333   6.069
    1   AR   Ar  139   6.143   1.432   4.630
    1   AR   Ar  140   4.252   6.794   5.324
    1   AR   Ar  141   3.671   5.350   4.518
    1   AR   Ar  142   5.190   6.189   8.213
    1   AR   Ar  143   5.487   6.810   6.777
    1   AR   Ar  144   0.059   2.432   5.015
    1   AR   Ar  145   4.994   4.949  -1.095
    1   AR   Ar  146   3.595   2.251   3.398
    1   AR   Ar  147   5.138   4.076  -0.126
    1   AR   Ar  148   3.077   6.051  -0.895
    1   AR   Ar  149   0.285   2.204  -0.697
    1   AR   Ar  150   1.538   2.585   1.970
    1   AR   Ar  151   2.595   3.408   2.756
    1   AR   Ar  152   0.846   0.903  -1.392
    1   AR   Ar  153   5.394   0.882   3.198
    1   AR   Ar  154   4.431   2.634   3.967
    1   AR   Ar  155   5.845   3.446   5.338
    1   AR   Ar  156   3.193   4.296   3.039
    1   AR   Ar  157   3.039   5.743   6.669
    1   AR   Ar  158   0.608   2.737   6.948
    1   AR   Ar  159   3.731   0.386   5.923
    1   AR   Ar  160   1.466   1.279   4.421
    1   AR   Ar  161   4.749   4.580   3.139
    1   AR   Ar  162   4.087   5.764  -0.507
    1   AR   Ar  163   6.336   4.163   2.271
    1   AR   Ar  164   2.199   5.996   2.634
    1   AR   Ar  165   3.194   3.929   1.090
    1   AR   Ar  166   3.058   3.671   5.220
    1   AR   Ar  167   6.229   6.904   3.642
    1   AR   Ar  168   6.025   4.726  -2.178
    1   AR   Ar  169   3.880   3.585   3.578
    1   AR   Ar  170   2.840   3.165   6.142
    1   AR   Ar  171   4.738   5.484   4.270
    1   AR   Ar  172   4.032   3.406   4.835
    1   AR   Ar  173   2.524   1.833   6.692
    1   AR   Ar  174   3.012   6.134   4.383
    1   AR   Ar  175   2.766   0.329   6.536
    1   AR   Ar  176   3.166   3.084   4.067
    1   AR   Ar  177   0.181   4.294  -0.523
    1   AR   Ar  178   2.028   6.417   0.586
    1   AR   Ar  179   3.311   6.477   0.827
    1   AR   Ar  180   4.957   0.353  -7.734
    1   AR   Ar  181   0.071   6.582   1.824
    1   AR   Ar  182   1.105   6.610   2.640
    1   AR   Ar  183   4.746   5.276   1.502
    1   AR   Ar  184   4.448   5.343   0.408
    1   AR   Ar  185   3.137   4.442   4.422
    1   AR   Ar  186   3.118   6.817   2.767
    1   AR   Ar  187   3.860   6.423   3.987
    1   AR   Ar  188   3.309   0.851   1.540
    1   AR   Ar  189   5.846   2.368   5.520
    1   AR   Ar  190   1.253   6.979   4.075
    1   AR   Ar  191   3.847   6.591   6.464
    1   AR   Ar  192   3.972   3.337   6.100
    1   AR   Ar  193   3.205   6.176   2.013
    1   AR   Ar  194   4.986   6.345  -0.816
    1   AR   Ar  195   6.460   0.914   0.907
    1   AR   Ar  196   3.984   0.217   0.353
    1   AR   Ar  197   4.840   3.101   0.639
    1   AR   Ar  198   6.146   6.795   1.327
    1   AR   Ar  199   0.413   0.311   2.541
    1   AR   Ar  200   6.326   2.673  -0.263
    1   AR   Ar  201   6.341   5.701   2.432
    1   AR   Ar  202   5.261   0.595   4.414
    1   AR   Ar  203   0.319   6.945   3.464
    1   AR   Ar  204   4.289   4.596   7.595
    1   AR   Ar  205   5.880   1.724   1.729
    1   AR   Ar  206   6.314   0.297   5.985
    1   AR   Ar  207   0.097   3.482   4.615
    1   AR   Ar  208   0.723   5.959   3.912
    1   AR   Ar  209   6.874   2.199  -1.791
    1   AR   Ar  210   2.147   0.871  -0.461
    1   AR   Ar  211   6.880   3.267   0.601
    1   AR   Ar  212   6.344   3.769  -0.055
    1   AR   Ar  213   3.600   2.031   1.153
    1   AR   Ar  214   5.339   4.268   1.966
    1   AR   Ar  215   0.471   2.371   1.813
    1   AR   Ar  216   1.604   2.299  -0.142
    1   AR   Ar  217   5.572   1.939   3.856
    1   AR   Ar  218   5.007   2.621   4.848
    1   AR   Ar  219   4.147   3.780   2.404
    1   AR   Ar  220   4.452   4.268   1.317
    1   AR   Ar  221   6.618   5.782   3.902
    1   AR   Ar  222   5.326   0.059   5.756
    1   AR   Ar  223   6.943   1.512   5.917
    1   AR   Ar  224   5.122   1.437   4.978
    1   AR   Ar  225   6.712   2.138   2.413
    1   AR   Ar  226   2.325   3.762   4.119
    1   AR   Ar  227   0.964   2.782   3.184
    1   AR   Ar  228   6.156   0.686   2.077
    1   AR   Ar  229   6.169   4.487  -0.869
    1   AR   Ar  230   3.866   4.613   3.822
    1   AR   Ar  231   4.903   2.203   2.622
    1   AR   Ar  232   5.364   2.816   1.635
    1   AR   Ar  233   6.577   2.085   3.566
    1   AR   Ar  234   6.242   2.530   4.453
    1   AR   Ar  235   6.241   0.804   3.813
    1   AR   Ar  236   3.991   4.366   5.260
    1   AR   Ar  237   4.498   0.101   7.684
    1   AR   Ar  238   4.883   5.076   6.675
    1   AR   Ar  239   1.149   4.364  11.268
    1   AR   Ar  240   1.965   3.443   6.595
    1   AR   Ar  241   1.468   0.112   0.716
    1   AR   Ar  242   5.572   5.941   1.817
    1   AR   Ar  243   4.694   6.567   2.115
    1   AR   Ar  244   6.613   5.983   0.404
    1   AR   Ar  245   3.375   0.986   3.455
    1   AR   Ar  246   5.743   0.368  -1.255
    1   AR   Ar  247   7.051   3.696   1.594
    1   AR   Ar  248   5.576   5.374  -0.272
    1   AR   Ar  249   3.807   7.103   1.664
    1   AR   Ar  250   5.151   6.659   4.004
    1   AR   Ar  251   4.849   4.386   4.382
    1   AR   Ar  252   2.879   5.241   2.351
    1   AR   Ar  253   4.523   2.437   8.435
    1   AR   Ar  254   4.778   3.201  12.136
    1   AR   Ar  255   4.504   7.095   9.064
    1   AR   Ar  256   5.704   5.804   3.398
    7.12000  7.12000 12.00000
Argon-slab step 5280
  256
    1   AR   Ar    1   4.177   3.361  -2.882
    1   AR   Ar    2   5.376   6.457   0.448
    1   AR   Ar    3   3.912   3.662  -1.040
    1   AR   Ar    4   2.420   1.134   0.587
    1   AR   Ar    5   6.937   5.148  -0.509
    1   AR   Ar    6   1.010   1.393   2.432
    1   AR   Ar    7   5.893   4.475   3.211
    1   AR   Ar    8   6.380   3.389  -1.242
    1   AR   Ar    9   6.999   6.390   4.653
    1   AR   Ar   10   6.266   4.904   5.313
    1   AR   Ar   11   1.164   6.879   5.163
    1   AR   Ar   12   0.087   1.541   4.370
    1   AR   Ar   13   0.158   0.350   4.772
    1   AR   Ar   14   3.770   0.578   7.046
    1   AR   Ar   15   2.331   6.290   9.781
    1   AR   Ar   16   0.414   0.020   5.959
    1   AR   Ar   17   6.063   3.911   1.279
    1   AR   Ar   18   0.209   4.565  -1.573
    1   AR   Ar   19   5.666   4.559   0.674
    1   AR   Ar   20   6.611   3.706  -2.733
    1   AR   Ar   21   2.252   1.248   1.552
    1   AR   Ar   22   5.193   0.550   1.770
    1   AR   Ar   23   1.019   6.100   0.824
    1   AR   Ar   24   5.820   2.813   3.250
    1   AR   Ar   25   1.016   2.929   5.242
    1   AR   Ar   26   5.501   5.914   4.875
    1   AR   Ar   27   1.436   0.573   1.584
    1   AR   Ar   28   2.195   2.612   3.613
    1   AR   Ar   29   5.080   1.471   7.954
    1   AR   Ar   30   7.062   1.201   3.039
    1   AR   Ar   31   1.546   0.476   6.434
    1   AR   Ar   32   1.151   1.761   5.452
    1   AR   Ar   33   6.975   4.564   0.676
    1   AR   Ar   34   1.535   5.151   2.504
    1   AR   Ar   35   4.983   5.625   2.619
    1   AR   Ar   36   4.971   2.319  -3.193
    1   AR   Ar   37   3.894   3.271   1.557
    1   AR   Ar   38   5.940   4.863   4.116
    1   AR   Ar   39   0.364   2.610   4.021
    1   AR   Ar   40   0.808   4.472   2.255
    1   AR   Ar   41   0.898   1.724   3.562
    1   AR   Ar   42   5.164   5.355   5.576
    1   AR   Ar   43   0.175   3.019   5.912
    1   AR   Ar   44   0.328   3.695   3.102
    1   AR   Ar   45   1.776   3.829   5.195
    1   AR   Ar   46   5.938   4.917   6.609
    1   AR   Ar   47   3.069   3.731   7.022
    1   AR   Ar   48   6.953   3.557   7.434
    1   AR   Ar   49   0.561   0.982   1.103
    1   AR   Ar   50   3.129   4.403   0.004
    1   AR   Ar   51   5.235   3.467   2.714
    1   AR   Ar   52   5.384   3.956  -1.278
    1   AR   Ar   53   4.507   0.251   3.356
    1   AR   Ar   54   6.596   7.026   2.699
    1   AR   Ar   55   7.052   4.919   2.224
    1   AR   Ar   56   5.837   1.798   2.809
    1   AR   Ar   57   4.105   4.842   2.269
    1   AR   Ar   58   1.218   3.614   3.972
    1   AR   Ar   59   2.565   5.687   5.518
    1   AR   Ar   60   0.157   5.607   3.129
    1   AR   Ar   61   7.061   4.172   6.168
    1   AR   Ar   62   0.099   4.415   5.152
    1   AR   Ar   63   2.997   3.115   8.023
    1   AR   Ar   64   0.191   5.300   4.581
    1   AR   Ar   65   4.021   0.800   2.251
    1   AR   Ar   66   1.455   1.272   0.670
    1   AR   Ar   67   4.719   0.240  -0.712
    1   AR   Ar   68   6.958   1.238  -0.492
    1   AR   Ar   69   2.802   1.824  -0.350
    1   AR   Ar   70   7.103   1.296   1.830
    1   AR   Ar   71   2.809   0.734   2.580
    1   AR   Ar   72   4.384   1.021   1.239
    1   AR   Ar   73   3.012   0.047   4.210
    1   AR   Ar   74   1.064   0.645   3.200
    1   AR   Ar   75   2.786   0.571   5.407
    1   AR   Ar   76   2.453   0.183   1.366
    1   AR   Ar   77   1.507   5.739   5.264
    1   AR   Ar   78   7.060   5.404   5.669
    1   AR   Ar   79   3.093   6.685   5.259
    1   AR   Ar   80   3.737   5.373   5.854
    1   AR   Ar   81   1.892   6.572   1.806
    1   AR   Ar   82   6.718   5.560   1.340
    1   AR   Ar   83   0.636   3.342   1.028
    1   AR   Ar   84   1.039   4.562   1.215
    1   AR   Ar   85   0.611   3.396  -0.083
    1   AR   Ar   86   1.777   5.516   1.004
    1   AR   Ar   87   3.542   2.978   2.686
    1   AR   Ar   88   3.427   5.501   1.366
    1   AR   Ar   89   6.563   2.395   1.201
    1   AR   Ar   90   3.463   1.330   6.024
    1   AR   Ar   91   1.980   1.327   2.858
    1   AR   Ar   92   2.572   2.252   0.934
    1   AR   Ar   93   1.537   0.802   5.412
    1   AR   Ar   94   0.269   6.704   8.347
    1   AR   Ar   95   4.673   0.836   5.854
    1   AR   Ar   96   2.145   6.951   4.801
    1   AR   Ar   97   3.341   1.938  -1.212
    1   AR   Ar   98   1.817   4.718   4.136
    1   AR   Ar   99   6.380   7.036  -0.086
    1   AR   Ar  100   5.752   3.181  -2.037
    1   AR   Ar  101   3.945   5.696   2.771
    1   AR   Ar  102   3.427   1.714   2.331
    1   AR   Ar  103   2.182   4.128   1.017
    1   AR   Ar  104   3.099   0.102  -1.506
    1   AR   Ar  105   2.590   2.335   2.671
    1   AR   Ar  106   4.112   1.641   4.051
    1   AR   Ar  107   1.042   4.727   5.577
    1   AR   Ar  108   2.090   0.611   3.893
    1   AR   Ar  109   2.424   4.766   5.226
    1   AR   Ar  110   2.220   2.289   4.746
    1   AR   Ar  111   3.388   4.841   7.089
    1   AR   Ar  112   6.009   6.354   5.718
    1   AR   Ar  113   0.208   5.661  -1.236
    1   AR   Ar  114   2.863   7.012  -0.151
    1   AR   Ar  115   0.528   5.360   0.159
    1   AR   Ar  116   5.140   0.526   0.403
    1   AR   Ar  117   6.878   4.781   3.723
    1   AR   Ar  118   2.087   6.584   3.576
    1   AR   Ar  119   1.583   4.036   2.779
    1   AR   Ar  120   2.039   0.053   2.680
    1   AR   Ar  121   5.375   4.184   5.810
    1   AR   Ar  122   2.963   5.260   3.522
    1   AR   Ar  123   3.663   2.119   5.062
    1   AR   Ar  124   0.807   5.528   1.745
    1   AR   Ar  125   5.940   3.604   4.027
    1   AR   Ar  126   6.966   0.382   7.517
    1   AR   Ar  127   4.952   2.905   5.943
    1   AR   Ar  128   0.941   3.774   6.355
    1   AR   Ar  129   2.028   5.734   4.318
    1   AR   Ar  130   4.100   0.585  -5.040
    1   AR   Ar  131   3.809   6.861  -0.598
    1   AR   Ar  132   1.294   2.357   0.952
    1   AR   Ar  133   3.981   0.361   4.499
    1   AR   Ar  134   2.686   1.655   3.996
    1   AR   Ar  135   6.194   7.045   4.930
    1   AR   Ar  136   5.775   6.552   2.750
    1   AR   Ar  137   2.437   4.170   6.207
    1   AR   Ar  138   5.750   1.360   6.046
    1   AR   Ar  139   6.136   1.468   4.645
    1   AR   Ar  140   4.269   6.800   5.306
    1   AR   Ar  141   3.643   5.341   4.533
    1   AR   Ar  142   5.174   6.197   8.201
    1   AR   Ar  143   5.498   6.819   6.784
    1   AR   Ar  144   0.030   2.469   5.006
    1   AR   Ar  145   5.006   4.940  -1.121
    1   AR   Ar  146   3.582   2.248   3.413
    1   AR   Ar  147   5.169   4.057  -0.116
    1   AR   Ar  148   3.072   6.059  -0.902
    1   AR   Ar  149   0.299   2.219  -0.686
    1   AR   Ar  150   1.537   2.565   1.965
    1   AR   Ar  151   2.594   3.394   2.719
    1   AR   Ar  152   0.845   0.888  -1.365
    1   AR   Ar  153   5.384   0.865   3.185
    1   AR   Ar  154   4.444   2.616   3.997
    1   AR   Ar  155   5.881   3.449   5.392
    1   AR   Ar  156   3.198   4.321   3.042
    1   AR   Ar  157   3.055   5.733   6.686
    1   AR   Ar  158   0.631   2.732   6.954
    1   AR   Ar  159   3.720   0.376   5.935
    1   AR   Ar  160   1.446   1.268   4.401
    1   AR   Ar  161   4.786   4.576   3.134
    1   AR   Ar  162   4.084   5.743  -0.508
    1   AR   Ar  163   6.338   4.154   2.231
    1   AR   Ar  164   2.200   6.012   2.684
    1   AR   Ar  165   3.204   3.969   1.048
    1   AR   Ar  166   3.050   3.693   5.244
    1   AR   Ar  167   6.227   6.877   3.631
    1   AR   Ar  168   5.982   4.726  -2.183
    1   AR   Ar  169   3.845   3.616   3.572
    1   AR   Ar  170   2.862   3.154   6.129
    1   AR   Ar  171   4.718   5.479   4.289
    1   AR   Ar  172   4.031   3.398   4.841
    1   AR   Ar  173   2.477   1.833   6.724
    1   AR   Ar  174   2.977   6.137   4.395
    1   AR   Ar  175   2.731   0.326   6.543
    1   AR   Ar  176   3.159   3.101   4.079
    1   AR   Ar  177   0.208   4.268  -0.529
    1   AR   Ar  178   2.040   6.428   0.590
    1   AR   Ar  179   3.352   6.507   0.841
    1   AR   Ar  180   4.963   0.353  -7.727
    1   AR   Ar  181   0.100   6.601   1.822
    1   AR   Ar  182   1.112   6.606   2.661
    1   AR   Ar  183   4.757   5.269   1.484
    1   AR   Ar  184   4.463   5.344   0.397
    1   AR   Ar  185   3.118   4.442   4.405
    1   AR   Ar  186   3.126   6.810   2.775
    1   AR   Ar  187   3.870   6.436   3.963
    1   AR   Ar  188   3.257   0.872   1.548
    1   AR   Ar  189   5.849   2.356   5.505
    1   AR   Ar  190   1.277   6.954   4.064
    1   AR   Ar  191   3.843   6.566   6.441
    1   AR   Ar  192   3.979   3.369   6.135
    1   AR   Ar  193   3.221   6.176   2.025
    1   AR   Ar  194   4.996   6.339  -0.790
    1   AR   Ar  195   6.482   0.933   0.934
    1   AR   Ar  196   4.014   0.193   0.338
    1   AR   Ar  197   4.842   3.101   0.608
    1   AR   Ar  198   6.153   6.803   1.303
    1   AR   Ar  199   0.415   0.313   2.525
    1   AR   Ar  200   6.321   2.667  -0.242
    1   AR   Ar  201   6.358   5.695   2.418
    1   AR   Ar  202   5.254   0.595   4.441
    1   AR   Ar  203   0.330   6.964   3.440
    1   AR   Ar  204   4.305   4.580   7.579
    1   AR   Ar  205   5.881   1.685   1.732
    1   AR   Ar  206   6.333   0.296   5.947
    1   AR   Ar  207   0.071   3.484   4.654
    1   AR   Ar  208   0.723   5.980   3.897
    1   AR   Ar  209   6.844   2.200  -1.787
    1   AR   Ar  210   2.163   0.873  -0.479
    1   AR   Ar  211   6.847   3.282   0.625
    1   AR   Ar  212   6.352   3.757  -0.053
    1   AR   Ar  213   3.581   2.003   1.141
    1   AR   Ar  214   5.333   4.254   1.967
    1   AR   Ar  215   0.511   2.364   1.840
    1   AR   Ar  216   1.580   2.296  -0.167
    1   AR   Ar  217   5.564   1.946   3.875
    1   AR   Ar  218   5.012   2.634   4.820
    1   AR   Ar  219   4.143   3.800   2.405
    1   AR   Ar  220   4.455   4.307   1.308
    1   AR   Ar  221   6.608   5.798   3.892
    1   AR   Ar  222   5.357   0.060   5.742
    1   AR   Ar  223   6.963   1.551   5.880
    1   AR   Ar  224   5.138   1.441   5.011
    1   AR   Ar  225   6.677   2.093   2.410
    1   AR   Ar  226   2.367   3.776   4.119
    1   AR   Ar  227   0.985   2.797   3.197
    1   AR   Ar  228   6.165   0.718   2.099
    1   AR   Ar  229   6.171   4.488  -0.872
    1   AR   Ar  230   3.863   4.634   3.820
    1   AR   Ar  231   4.916   2.220   2.630
    1   AR   Ar  232   5.376   2.829   1.638
    1   AR   Ar  233   6.575   2.080   3.577
    1   AR   Ar  234   6.253   2.503   4.452
    1   AR   Ar  235   6.208   0.807   3.804
    1   AR   Ar  236   3.989   4.356   5.243
    1   AR   Ar  237   4.472   0.135   7.672
    1   AR   Ar  238   4.846   5.087   6.662
    1   AR   Ar  239   1.157   4.354  11.263
    1   AR   Ar  240   1.964   3.413   6.604
    1   AR   Ar  241   1.441   0.113   0.727
    1   AR   Ar  242   5.541   5.948   1.829
    1   AR   Ar  243   4.678   6.562   2.125
    1   AR   Ar  244   6.603   5.987   0.434
    1   AR   Ar  245   3.355   0.981   3.486
    1   AR   Ar  246   5.690   0.328  -1.251
    1   AR   Ar  247   7.047   3.712   1.595
    1   AR   Ar  248   5.594   5.381  -0.251
    1   AR   Ar  249   3.786   7.084   1.678
    1   AR   Ar  250   5.143   6.658   4.023
    1   AR   Ar  251   4.869   4.383   4.444
    1   AR   Ar  252   2.893   5.248   2.390
    1   AR   Ar  253   4.490   2.451   8.466
    1   AR   Ar  254   4.780   3.234  12.128
    1   AR   Ar  255   4.514   7.108   9.031
    1   AR   Ar  256   5.698   5.800   3.372
    7.12000  7.12000 12.00000
Argon-slab step 5285
  256
    1   AR   Ar    1   4.192   3.357  -2.883
    1   AR   Ar    2   5.366   6.477   0.458
    1   AR   Ar    3   3.919   3.648  -1.017
    1   AR   Ar    4   2.404   1.142   0.558
    1   AR   Ar    5   6.906   5.151  -0.505
    1   AR   Ar    6   1.022   1.418   2.426
    1   AR   Ar    7   5.894   4.464   3.200
    1   AR   Ar    8   6.386   3.403  -1.266
    1   AR   Ar    9   7.005   6.329   4.652
    1   AR   Ar   10   6.274   4.895   5.293
    1   AR   Ar   11   1.133   6.892   5.172
    1   AR   Ar   12   0.074   1.578   4.357
    1   AR   Ar   13   0.170   0.357   4.731
    1   AR   Ar   14   3.765   0.581   7.036
    1   AR   Ar   15   2.312   6.269   9.795
    1   AR   Ar   16   0.403   0.035   5.956
    1   AR   Ar   17   6.077   3.899   1.294
    1   AR   Ar   18   0.239   4.579  -1.591
    1   AR   Ar   19   5.678   4.593   0.665
    1   AR   Ar   20   6.596   3.699  -2.758
    1   AR   Ar   21   2.231   1.236   1.579
    1   AR   Ar   22   5.206   0.543   1.771
    1   AR   Ar   23   1.001   6.110   0.820
    1   AR   Ar   24   5.846   2.817   3.247
    1   AR   Ar   25   1.023   2.918   5.223
    1   AR   Ar   26   5.506   5.913   4.848
    1   AR   Ar   27   1.456   0.583   1.579
    1   AR   Ar   28   2.191   2.629   3.622
    1   AR   Ar   29   5.116   1.466   7.959
    1   AR   Ar   30   7.070   1.209   3.022
    1   AR   Ar   31   1.524   0.463   6.469
    1   AR   Ar   32   1.122   1.766   5.467
    1   AR   Ar   33   6.953   4.591   0.707
    1   AR   Ar   34   1.554   5.172   2.475
    1   AR   Ar   35   5.009   5.645   2.627
    1   AR   Ar   36   4.981   2.318  -3.215
    1   AR   Ar   37   3.907   3.261   1.544
    1   AR   Ar   38   5.913   4.872   4.137
    1   AR   Ar   39   0.375   2.628   4.012
    1   AR   Ar   40   0.836   4.453   2.262
    1   AR   Ar   41   0.918   1.702   3.566
    1   AR   Ar   42   5.167   5.337   5.595
    1   AR   Ar   43   0.154   3.003   5.912
    1   AR   Ar   44   0.325   3.688   3.115
    1   AR   Ar   45   1.728   3.853   5.214
    1   AR   Ar   46   5.968   4.906   6.635
    1   AR   Ar   47   3.061   3.731   6.973
    1   AR   Ar   48   6.928   3.575   7.445
    1   AR   Ar   49   0.562   0.969   1.087
    1   AR   Ar   50   3.132   4.366  -0.012
    1   AR   Ar   51   5.260   3.467   2.723
    1   AR   Ar   52   5.384   3.980  -1.304
    1   AR   Ar   53   4.476   0.285   3.359
    1   AR   Ar   54   6.593   7.014   2.739
    1   AR   Ar   55   7.024   4.898   2.202
    1   AR   Ar   56   5.822   1.781   2.826
    1   AR   Ar   57   4.076   4.870   2.258
    1   AR   Ar   58   1.222   3.611   3.961
    1   AR   Ar   59   2.549   5.700   5.523
    1   AR   Ar   60   0.167   5.577   3.115
    1   AR   Ar   61   7.086   4.179   6.169
    1   AR   Ar   62   0.100   4.427   5.191
    1   AR   Ar   63   3.017   3.119   8.005
    1   AR   Ar   64   0.184   5.309   4.603
    1   AR   Ar   65   4.037   0.759   2.223
    1   AR   Ar   66   1.438   1.318   0.716
    1   AR   Ar   67   4.670   0.240  -0.728
    1   AR   Ar   68   6.938   1.221  -0.506
    1   AR   Ar   69   2.801   1.875  -0.364
    1   AR   Ar   70   7.099   1.270   1.835
    1   AR   Ar   71   2.808   0.719   2.570
    1   AR   Ar   72   4.388   1.031   1.209
    1   AR   Ar   73   3.039   0.073   4.207
    1   AR   Ar   74   1.057   0.614   3.211
    1   AR   Ar   75   2.785   0.573   5.413
    1   AR   Ar   76   2.469   0.199   1.343
    1   AR   Ar   77   1.485   5.730   5.258
    1   AR   Ar   78   7.063   5.423   5.659
    1   AR   Ar   79   3.096   6.690   5.239
    1   AR   Ar   80   3.731   5.354   5.883
    1   AR   Ar   81   1.918   6.563   1.797
    1   AR   Ar   82   6.740   5.562   1.345
    1   AR   Ar   83   0.653   3.321   1.056
    1   AR   Ar   84   1.021   4.571   1.197
    1   AR   Ar   85   0.613   3.390  -0.144
    1   AR   Ar   86   1.760   5.513   0.984
    1   AR   Ar   87   3.544   2.959   2.723
    1   AR   Ar   88   3.436   5.492   1.343
    1   AR   Ar   89   6.574   2.430   1.198
    1   AR   Ar   90   3.480   1.341   6.037
    1   AR   Ar   91   1.981   1.297   2.866
    1   AR   Ar   92   2.564   2.267   0.977
    1   AR   Ar   93   1.520   0.787   5.424
    1   AR   Ar   94   0.251   6.693   8.370
    1   AR   Ar   95   4.684   0.854   5.874
    1   AR   Ar   96   2.164   6.943   4.805
    1   AR   Ar   97   3.325   1.937  -1.208
    1   AR   Ar   98   1.803   4.725   4.136
    1   AR   Ar   99   6.404   7.027  -0.109
    1   AR   Ar  100   5.727   3.222  -2.025
    1   AR   Ar  101   3.944   5.717   2.764
    1   AR   Ar  102   3.407   1.706   2.354
    1   AR   Ar  103   2.182   4.130   1.026
    1   AR   Ar  104   3.099   0.135  -1.514
    1   AR   Ar  105   2.567   2.356   2.639
    1   AR   Ar  106   4.124   1.602   4.046
    1   AR   Ar  107   1.019   4.720   5.535
    1   AR   Ar  108   2.090   0.614   3.890
    1   AR   Ar  109   2.476   4.742   5.207
    1   AR   Ar  110   2.215   2.292   4.722
    1   AR   Ar  111   3.423   4.833   7.063
    1   AR   Ar  112   6.040   6.358   5.716
    1   AR   Ar  113   0.172   5.661  -1.237
    1   AR   Ar  114   2.864   6.980  -0.147
    1   AR   Ar  115   0.548   5.327   0.158
    1   AR   Ar  116   5.117   0.544   0.441
    1   AR   Ar  117   6.879   4.731   3.688
    1   AR   Ar  118   2.104   6.583   3.594
    1   AR   Ar  119   1.596   3.991   2.763
    1   AR   Ar  120   2.043   0.059   2.687
    1   AR   Ar  121   5.374   4.164   5.806
    1   AR   Ar  122   2.978   5.262   3.518
    1   AR   Ar  123   3.649   2.108   5.067
    1   AR   Ar  124   0.808   5.514   1.735
    1   AR   Ar  125   5.954   3.586   4.019
    1   AR   Ar  126   6.957   0.408   7.547
    1   AR   Ar  127   4.945   2.900   5.929
    1   AR   Ar  128   0.903   3.742   6.326
    1   AR   Ar  129   2.013   5.706   4.352
    1   AR   Ar  130   4.110   0.593  -5.083
    1   AR   Ar  131   3.800   6.811  -0.610
    1   AR   Ar  132   1.286   2.396   0.931
    1   AR   Ar  133   3.977   0.372   4.528
    1   AR   Ar  134   2.690   1.643   4.032
    1   AR   Ar  135   6.206   7.024   4.909
    1   AR   Ar  136   5.728   6.559   2.757
    1   AR   Ar  137   2.438   4.160   6.233
    1   AR   Ar  138   5.752   1.386   6.022
    1   AR   Ar  139   6.132   1.501   4.663
    1   AR   Ar  140   4.286   6.803   5.289
    1   AR   Ar  141   3.635   5.336   4.548
    1   AR   Ar  142   5.156   6.206   8.189
    1   AR   Ar  143   5.509   6.827   6.790
    1   AR   Ar  144   7.115   2.513   4.995
    1   AR   Ar  145   5.017   4.933  -1.145
    1   AR   Ar  146   3.577   2.243   3.435
    1   AR   Ar  147   5.200   4.039  -0.109
    1   AR   Ar  148   3.092   6.066  -0.947
    1   AR   Ar  149   0.313   2.236  -0.674
    1   AR   Ar  150   1.541   2.546   1.965
    1   AR   Ar  151   2.590   3.384   2.684
    1   AR   Ar  152   0.843   0.874  -1.336
    1   AR   Ar  153   5.370   0.857   3.185
    1   AR   Ar  154   4.453   2.603   4.019
    1   AR   Ar  155   5.924   3.444   5.440
    1   AR   Ar  156   3.202   4.344   3.042
    1   AR   Ar  157   3.070   5.727   6.699
    1   AR   Ar  158   0.653   2.729   6.958
    1   AR   Ar  159   3.710   0.356   5.944
    1   AR   Ar  160   1.424   1.260   4.383
    1   AR   Ar  161   4.822   4.571   3.129
    1   AR   Ar  162   4.080   5.723  -0.512
    1   AR   Ar  163   6.340   4.146   2.200
    1   AR   Ar  164   2.203   6.030   2.734
    1   AR   Ar  165   3.219   4.009   1.007
    1   AR   Ar  166   3.040   3.718   5.265
    1   AR   Ar  167   6.224   6.846   3.630
    1   AR   Ar  168   5.950   4.724  -2.210
    1   AR   Ar  169   3.817   3.647   3.561
    1   AR   Ar  170   2.887   3.140   6.115
    1   AR   Ar  171   4.726   5.469   4.274
    1   AR   Ar  172   4.031   3.386   4.844
    1   AR   Ar  173   2.432   1.833   6.755
    1   AR   Ar  174   2.939   6.136   4.404
    1   AR   Ar  175   2.698   0.324   6.549
    1   AR   Ar  176   3.148   3.109   4.095
    1   AR   Ar  177   0.239   4.226  -0.534
    1   AR   Ar  178   2.049   6.432   0.588
    1   AR   Ar  179   3.391   6.539   0.854
    1   AR   Ar  180   4.967   0.352  -7.716
    1   AR   Ar  181   0.128   6.619   1.820
    1   AR   Ar  182   1.119   6.601   2.682
    1   AR   Ar  183   4.769   5.267   1.468
    1   AR   Ar  184   4.481   5.344   0.388
    1   AR   Ar  185   3.123   4.420   4.381
    1   AR   Ar  186   3.133   6.810   2.792
    1   AR   Ar  187   3.886   6.450   3.937
    1   AR   Ar  188   3.204   0.897   1.553
    1   AR   Ar  189   5.853   2.342   5.488
    1   AR   Ar  190   1.296   6.932   4.056
    1   AR   Ar  191   3.838   6.540   6.417
    1   AR   Ar  192   3.984   3.403   6.169
    1   AR   Ar  193   3.234   6.183   2.039
    1   AR   Ar  194   5.007   6.330  -0.762
    1   AR   Ar  195   6.505   0.952   0.962
    1   AR   Ar  196   4.045   0.169   0.326
    1   AR   Ar  197   4.843   3.103   0.577
    1   AR   Ar  198   6.161   6.810   1.280
    1   AR   Ar  199   0.415   0.318   2.495
    1   AR   Ar  200   6.317   2.661  -0.221
    1   AR   Ar  201   6.377   5.689   2.408
    1   AR   Ar  202   5.248   0.590   4.464
    1   AR   Ar  203   0.340   6.979   3.422
    1   AR   Ar  204   4.323   4.564   7.562
    1   AR   Ar  205   5.882   1.647   1.732
    1   AR   Ar  206   6.358   0.297   5.912
    1   AR   Ar  207   0.044   3.484   4.691
    1   AR   Ar  208   0.726   6.005   3.886
    1   AR   Ar  209   6.813   2.203  -1.782
    1   AR   Ar  210   2.181   0.875  -0.496
    1   AR   Ar  211   6.813   3.288   0.655
    1   AR   Ar  212   6.352   3.755  -0.064
    1   AR   Ar  213   3.564   1.972   1.131
    1   AR   Ar  214   5.321   4.244   1.969
    1   AR   Ar  215   0.547   2.357   1.866
    1   AR   Ar  216   1.556   2.291  -0.190
    1   AR   Ar  217   5.548   1.951   3.893
    1   AR   Ar  218   5.022   2.648   4.800
    1   AR   Ar  219   4.143   3.822   2.412
    1   AR   Ar  220   4.454   4.340   1.298
    1   AR   Ar  221   6.573   5.801   3.875
    1   AR   Ar  222   5.383   0.059   5.725
    1   AR   Ar  223   6.982   1.590   5.841
    1   AR   Ar  224   5.151   1.451   5.047
    1   AR   Ar  225   6.653   2.055   2.402
    1   AR   Ar  226   2.402   3.788   4.117
    1   AR   Ar  227   1.009   2.813   3.207
    1   AR   Ar  228   6.178   0.750   2.124
    1   AR   Ar  229   6.176   4.490  -0.874
    1   AR   Ar  230   3.877   4.660   3.807
    1   AR   Ar  231   4.929   2.205   2.635
    1   AR   Ar  232   5.356   2.843   1.648
    1   AR   Ar  233   6.582   2.077   3.596
    1   AR   Ar  234   6.262   2.484   4.455
    1   AR   Ar  235   6.180   0.812   3.796
    1   AR   Ar  236   3.987   4.351   5.226
    1   AR   Ar  237   4.447   0.184   7.660
    1   AR   Ar  238   4.807   5.099   6.648
    1   AR   Ar  239   1.165   4.344  11.259
    1   AR   Ar  240   1.953   3.373   6.620
    1   AR   Ar  241   1.430   0.107   0.721
    1   AR   Ar  242   5.512   5.958   1.833
    1   AR   Ar  243   4.661   6.559   2.134
    1   AR   Ar  244   6.590   5.995   0.455
    1   AR   Ar  245   3.336   0.975   3.517
    1   AR   Ar  246   5.638   0.288  -1.246
    1   AR   Ar  247   7.041   3.732   1.603
    1   AR   Ar  248   5.612   5.387  -0.229
    1   AR   Ar  249   3.766   7.061   1.690
    1   AR   Ar  250   5.136   6.656   4.041
    1   AR   Ar  251   4.890   4.381   4.506
    1   AR   Ar  252   2.909   5.251   2.429
    1   AR   Ar  253   4.456   2.465   8.496
    1   AR   Ar  254   4.782   3.266  12.120
    1   AR   Ar  255   4.524   0.001   8.996
    1   AR   Ar  256   5.690   5.786   3.356
    7.12000  7.12000 12.00000
Argon-slab step 5290
  256
    1   AR   Ar    1   4.208   3.352  -2.884
    1   AR   Ar    2   5.353   6.492   0.460
    1   AR   Ar    3   3.926   3.634  -0.994
    1   AR   Ar    4   2.399   1.147   0.526
    1   AR   Ar    5   6.864   5.152  -0.491
    1   AR   Ar    6   1.031   1.396   2.402
    1   AR   Ar    7   5.896   4.450   3.183
    1   AR   Ar    8   6.397   3.419  -1.283
    1   AR   Ar    9   7.014   6.273   4.654
    1   AR   Ar   10   6.295   4.877   5.277
    1   AR   Ar   11   1.120   6.901   5.179
    1   AR   Ar   12   0.062   1.614   4.343
    1   AR   Ar   13   0.182   0.363   4.690
    1   AR   Ar   14   3.754   0.586   7.019
    1   AR   Ar   15   2.293   6.248   9.809
    1   AR   Ar   16   0.391   0.050   5.952
    1   AR   Ar   17   6.085   3.878   1.296
    1   AR   Ar   18   0.267   4.593  -1.609
    1   AR   Ar   19   5.689   4.634   0.654
    1   AR   Ar   20   6.579   3.692  -2.781
    1   AR   Ar   21   2.209   1.233   1.612
    1   AR   Ar   22   5.217   0.534   1.773
    1   AR   Ar   23   0.973   6.130   0.815
    1   AR   Ar   24   5.874   2.816   3.248
    1   AR   Ar   25   1.031   2.906   5.202
    1   AR   Ar   26   5.517   5.918   4.813
    1   AR   Ar   27   1.470   0.594   1.589
    1   AR   Ar   28   2.186   2.648   3.632
    1   AR   Ar   29   5.151   1.461   7.965
    1   AR   Ar   30   7.078   1.216   3.005
    1   AR   Ar   31   1.503   0.450   6.503
    1   AR   Ar   32   1.091   1.775   5.481
    1   AR   Ar   33   6.931   4.617   0.739
    1   AR   Ar   34   1.576   5.196   2.447
    1   AR   Ar   35   5.026   5.658   2.637
    1   AR   Ar   36   4.990   2.318  -3.236
    1   AR   Ar   37   3.920   3.249   1.529
    1   AR   Ar   38   5.882   4.885   4.165
    1   AR   Ar   39   0.396   2.636   4.011
    1   AR   Ar   40   0.859   4.432   2.265
    1   AR   Ar   41   0.935   1.682   3.567
    1   AR   Ar   42   5.167   5.312   5.620
    1   AR   Ar   43   0.133   2.990   5.916
    1   AR   Ar   44   0.322   3.681   3.127
    1   AR   Ar   45   1.681   3.878   5.233
    1   AR   Ar   46   5.998   4.894   6.659
    1   AR   Ar   47   3.056   3.731   6.928
    1   AR   Ar   48   6.904   3.592   7.455
    1   AR   Ar   49   0.516   0.979   1.102
    1   AR   Ar   50   3.134   4.329  -0.029
    1   AR   Ar   51   5.280   3.471   2.729
    1   AR   Ar   52   5.383   3.998  -1.332
    1   AR   Ar   53   4.442   0.318   3.363
    1   AR   Ar   54   6.606   7.009   2.767
    1   AR   Ar   55   6.999   4.882   2.180
    1   AR   Ar   56   5.802   1.754   2.850
    1   AR   Ar   57   4.048   4.892   2.243
    1   AR   Ar   58   1.222   3.590   3.945
    1   AR   Ar   59   2.555   5.710   5.527
    1   AR   Ar   60   0.176   5.546   3.095
    1   AR   Ar   61   7.107   4.185   6.175
    1   AR   Ar   62   0.097   4.421   5.213
    1   AR   Ar   63   3.015   3.120   7.984
    1   AR   Ar   64   0.179   5.316   4.623
    1   AR   Ar   65   4.057   0.723   2.200
    1   AR   Ar   66   1.416   1.367   0.761
    1   AR   Ar   67   4.623   0.244  -0.741
    1   AR   Ar   68   6.918   1.204  -0.520
    1   AR   Ar   69   2.807   1.915  -0.353
    1   AR   Ar   70   7.091   1.247   1.849
    1   AR   Ar   71   2.814   0.707   2.557
    1   AR   Ar   72   4.398   1.044   1.192
    1   AR   Ar   73   3.039   0.069   4.187
    1   AR   Ar   74   1.058   0.586   3.228
    1   AR   Ar   75   2.782   0.578   5.419
    1   AR   Ar   76   2.474   0.203   1.332
    1   AR   Ar   77   1.461   5.720   5.254
    1   AR   Ar   78   7.072   5.446   5.653
    1   AR   Ar   79   3.106   6.696   5.227
    1   AR   Ar   80   3.726   5.335   5.911
    1   AR   Ar   81   1.941   6.551   1.788
    1   AR   Ar   82   6.777   5.574   1.335
    1   AR   Ar   83   0.681   3.297   1.081
    1   AR   Ar   84   1.002   4.579   1.177
    1   AR   Ar   85   0.612   3.376  -0.197
    1   AR   Ar   86   1.751   5.497   0.970
    1   AR   Ar   87   3.547   2.943   2.754
    1   AR   Ar   88   3.443   5.470   1.314
    1   AR   Ar   89   6.539   2.423   1.199
    1   AR   Ar   90   3.494   1.358   6.050
    1   AR   Ar   91   1.981   1.268   2.876
    1   AR   Ar   92   2.551   2.282   1.020
    1   AR   Ar   93   1.505   0.770   5.434
    1   AR   Ar   94   0.234   6.683   8.392
    1   AR   Ar   95   4.693   0.872   5.895
    1   AR   Ar   96   2.181   6.934   4.806
    1   AR   Ar   97   3.338   1.938  -1.201
    1   AR   Ar   98   1.789   4.726   4.136
    1   AR   Ar   99   6.426   7.019  -0.130
    1   AR   Ar  100   5.699   3.262  -2.018
    1   AR   Ar  101   3.938   5.746   2.763
    1   AR   Ar  102   3.388   1.696   2.377
    1   AR   Ar  103   2.177   4.133   1.036
    1   AR   Ar  104   3.108   0.161  -1.509
    1   AR   Ar  105   2.570   2.358   2.617
    1   AR   Ar  106   4.137   1.558   4.045
    1   AR   Ar  107   1.000   4.714   5.494
    1   AR   Ar  108   2.096   0.624   3.884
    1   AR   Ar  109   2.527   4.710   5.184
    1   AR   Ar  110   2.209   2.298   4.698
    1   AR   Ar  111   3.457   4.820   7.037
    1   AR   Ar  112   6.073   6.357   5.715
    1   AR   Ar  113   0.143   5.667  -1.249
    1   AR   Ar  114   2.862   6.949  -0.141
    1   AR   Ar  115   0.571   5.293   0.161
    1   AR   Ar  116   5.095   0.561   0.480
    1   AR   Ar  117   6.882   4.679   3.652
    1   AR   Ar  118   2.129   6.582   3.613
    1   AR   Ar  119   1.613   3.943   2.750
    1   AR   Ar  120   2.040   0.062   2.682
    1   AR   Ar  121   5.366   4.155   5.806
    1   AR   Ar  122   2.986   5.273   3.516
    1   AR   Ar  123   3.636   2.094   5.070
    1   AR   Ar  124   0.808   5.500   1.726
    1   AR   Ar  125   5.968   3.570   4.012
    1   AR   Ar  126   6.948   0.432   7.577
    1   AR   Ar  127   4.939   2.896   5.913
    1   AR   Ar  128   0.869   3.708   6.297
    1   AR   Ar  129   1.997   5.683   4.384
    1   AR   Ar  130   4.120   0.600  -5.126
    1   AR   Ar  131   3.791   6.758  -0.623
    1   AR   Ar  132   1.277   2.435   0.909
    1   AR   Ar  133   3.976   0.385   4.557
    1   AR   Ar  134   2.695   1.632   4.065
    1   AR   Ar  135   6.216   7.006   4.884
    1   AR   Ar  136   5.666   6.569   2.753
    1   AR   Ar  137   2.434   4.146   6.266
    1   AR   Ar  138   5.753   1.410   5.996
    1   AR   Ar  139   6.130   1.528   4.685
    1   AR   Ar  140   4.305   6.806   5.273
    1   AR   Ar  141   3.633   5.334   4.566
    1   AR   Ar  142   5.138   6.216   8.177
    1   AR   Ar  143   5.520   6.836   6.795
    1   AR   Ar  144   7.083   2.547   4.990
    1   AR   Ar  145   5.027   4.931  -1.167
    1   AR   Ar  146   3.567   2.234   3.460
    1   AR   Ar  147   5.231   4.019  -0.104
    1   AR   Ar  148   3.114   6.081  -0.983
    1   AR   Ar  149   0.322   2.258  -0.665
    1   AR   Ar  150   1.552   2.528   1.968
    1   AR   Ar  151   2.593   3.401   2.648
    1   AR   Ar  152   0.845   0.863  -1.309
    1   AR   Ar  153   5.359   0.867   3.215
    1   AR   Ar  154   4.453   2.594   4.027
    1   AR   Ar  155   5.975   3.429   5.481
    1   AR   Ar  156   3.205   4.364   3.038
    1   AR   Ar  157   3.082   5.727   6.709
    1   AR   Ar  158   0.666   2.727   6.957
    1   AR   Ar  159   3.699   0.331   5.952
    1   AR   Ar  160   1.401   1.252   4.368
    1   AR   Ar  161   4.856   4.566   3.123
    1   AR   Ar  162   4.075   5.704  -0.518
    1   AR   Ar  163   6.339   4.139   2.189
    1   AR   Ar  164   2.215   6.043   2.772
    1   AR   Ar  165   3.240   4.048   0.969
    1   AR   Ar  166   3.030   3.745   5.281
    1   AR   Ar  167   6.224   6.858   3.657
    1   AR   Ar  168   5.919   4.720  -2.235
    1   AR   Ar  169   3.795   3.677   3.547
    1   AR   Ar  170   2.911   3.121   6.101
    1   AR   Ar  171   4.729   5.462   4.260
    1   AR   Ar  172   4.032   3.368   4.844
    1   AR   Ar  173   2.387   1.833   6.786
    1   AR   Ar  174   2.901   6.133   4.409
    1   AR   Ar  175   2.665   0.323   6.553
    1   AR   Ar  176   3.139   3.108   4.116
    1   AR   Ar  177   0.266   4.189  -0.541
    1   AR   Ar  178   2.058   6.430   0.581
    1   AR   Ar  179   3.423   6.558   0.863
    1   AR   Ar  180   4.970   0.340  -7.691
    1   AR   Ar  181   0.135   6.616   1.827
    1   AR   Ar  182   1.125   6.595   2.704
    1   AR   Ar  183   4.785   5.273   1.454
    1   AR   Ar  184   4.482   5.365   0.400
    1   AR   Ar  185   3.125   4.399   4.365
    1   AR   Ar  186   3.138   6.818   2.820
    1   AR   Ar  187   3.903   6.465   3.911
    1   AR   Ar  188   3.158   0.925   1.556
    1   AR   Ar  189   5.858   2.328   5.470
    1   AR   Ar  190   1.306   6.915   4.052
    1   AR   Ar  191   3.833   6.512   6.394
    1   AR   Ar  192   3.987   3.438   6.201
    1   AR   Ar  193   3.246   6.191   2.049
    1   AR   Ar  194   5.019   6.320  -0.733
    1   AR   Ar  195   6.526   0.970   0.991
    1   AR   Ar  196   4.076   0.146   0.315
    1   AR   Ar  197   4.846   3.106   0.549
    1   AR   Ar  198   6.172   6.818   1.267
    1   AR   Ar  199   0.411   0.327   2.454
    1   AR   Ar  200   6.315   2.656  -0.200
    1   AR   Ar  201   6.396   5.687   2.401
    1   AR   Ar  202   5.243   0.581   4.485
    1   AR   Ar  203   0.347   6.991   3.409
    1   AR   Ar  204   4.342   4.548   7.546
    1   AR   Ar  205   5.880   1.615   1.729
    1   AR   Ar  206   6.389   0.302   5.878
    1   AR   Ar  207   0.019   3.491   4.725
    1   AR   Ar  208   0.719   6.032   3.885
    1   AR   Ar  209   6.782   2.206  -1.776
    1   AR   Ar  210   2.198   0.877  -0.512
    1   AR   Ar  211   6.827   3.246   0.650
    1   AR   Ar  212   6.345   3.763  -0.084
    1   AR   Ar  213   3.550   1.939   1.124
    1   AR   Ar  214   5.303   4.237   1.971
    1   AR   Ar  215   0.576   2.347   1.890
    1   AR   Ar  216   1.532   2.285  -0.212
    1   AR   Ar  217   5.527   1.953   3.909
    1   AR   Ar  218   5.044   2.662   4.793
    1   AR   Ar  219   4.146   3.846   2.422
    1   AR   Ar  220   4.449   4.362   1.286
    1   AR   Ar  221   6.546   5.813   3.873
    1   AR   Ar  222   5.399   0.059   5.711
    1   AR   Ar  223   7.001   1.630   5.800
    1   AR   Ar  224   5.162   1.465   5.086
    1   AR   Ar  225   6.651   2.025   2.393
    1   AR   Ar  226   2.424   3.798   4.113
    1   AR   Ar  227   1.032   2.832   3.204
    1   AR   Ar  228   6.196   0.777   2.153
    1   AR   Ar  229   6.182   4.493  -0.875
    1   AR   Ar  230   3.906   4.691   3.784
    1   AR   Ar  231   4.952   2.189   2.638
    1   AR   Ar  232   5.337   2.857   1.660
    1   AR   Ar  233   6.593   2.069   3.607
    1   AR   Ar  234   6.264   2.479   4.461
    1   AR   Ar  235   6.159   0.819   3.792
    1   AR   Ar  236   3.984   4.350   5.210
    1   AR   Ar  237   4.429   0.230   7.654
    1   AR   Ar  238   4.767   5.110   6.633
    1   AR   Ar  239   1.173   4.335  11.254
    1   AR   Ar  240   1.938   3.326   6.639
    1   AR   Ar  241   1.428   0.097   0.701
    1   AR   Ar  242   5.491   5.973   1.826
    1   AR   Ar  243   4.643   6.557   2.145
    1   AR   Ar  244   6.576   6.006   0.468
    1   AR   Ar  245   3.319   0.966   3.547
    1   AR   Ar  246   5.586   0.247  -1.241
    1   AR   Ar  247   7.039   3.754   1.615
    1   AR   Ar  248   5.631   5.392  -0.207
    1   AR   Ar  249   3.745   7.035   1.701
    1   AR   Ar  250   5.122   6.670   4.054
    1   AR   Ar  251   4.910   4.379   4.567
    1   AR   Ar  252   2.926   5.251   2.468
    1   AR   Ar  253   4.424   2.478   8.526
    1   AR   Ar  254   4.783   3.299  12.112
    1   AR   Ar  255   4.534   0.014   8.960
    1   AR   Ar  256   5.683   5.762   3.353
    7.12000  7.12000 12.00000
Argon-slab step 5295
  256
    1   AR   Ar    1   4.224   3.346  -2.885
    1   AR   Ar    2   5.326   6.485   0.432
    1   AR   Ar    3   3.934   3.621  -0.971
    1   AR   Ar    4   2.399   1.152   0.494
    1   AR   Ar    5   6.845   5.147  -0.488
    1   AR   Ar    6   1.038   1.374   2.375
    1   AR   Ar    7   5.902   4.435   3.163
    1   AR   Ar    8   6.412   3.437  -1.295
    1   AR   Ar    9   7.023   6.230   4.661
    1   AR   Ar   10   6.300   4.863   5.263
    1   AR   Ar   11   1.131   6.909   5.185
    1   AR   Ar   12   0.052   1.648   4.332
    1   AR   Ar   13   0.228   0.348   4.700
    1   AR   Ar   14   3.735   0.596   6.994
    1   AR   Ar   15   2.285   6.236   9.816
    1   AR   Ar   16   0.379   0.067   5.947
    1   AR   Ar   17   6.085   3.850   1.279
    1   AR   Ar   18   0.294   4.608  -1.625
    1   AR   Ar   19   5.699   4.677   0.643
    1   AR   Ar   20   6.562   3.685  -2.803
    1   AR   Ar   21   2.188   1.244   1.648
    1   AR   Ar   22   5.226   0.524   1.774
    1   AR   Ar   23   0.938   6.154   0.809
    1   AR   Ar   24   5.905   2.810   3.250
    1   AR   Ar   25   1.037   2.896   5.181
    1   AR   Ar   26   5.532   5.927   4.777
    1   AR   Ar   27   1.474   0.598   1.606
    1   AR   Ar   28   2.182   2.667   3.642
    1   AR   Ar   29   5.186   1.455   7.971
    1   AR   Ar   30   7.087   1.222   2.989
    1   AR   Ar   31   1.482   0.437   6.536
    1   AR   Ar   32   1.059   1.785   5.493
    1   AR   Ar   33   6.908   4.642   0.770
    1   AR   Ar   34   1.597   5.212   2.424
    1   AR   Ar   35   5.029   5.663   2.647
    1   AR   Ar   36   4.968   2.337  -3.264
    1   AR   Ar   37   3.934   3.237   1.513
    1   AR   Ar   38   5.851   4.901   4.196
    1   AR   Ar   39   0.416   2.644   4.011
    1   AR   Ar   40   0.876   4.411   2.266
    1   AR   Ar   41   0.939   1.671   3.563
    1   AR   Ar   42   5.168   5.285   5.646
    1   AR   Ar   43   0.111   2.978   5.922
    1   AR   Ar   44   0.319   3.676   3.140
    1   AR   Ar   45   1.635   3.902   5.252
    1   AR   Ar   46   6.027   4.881   6.680
    1   AR   Ar   47   3.058   3.729   6.894
    1   AR   Ar   48   6.937   3.566   7.477
    1   AR   Ar   49   0.477   0.982   1.105
    1   AR   Ar   50   3.137   4.294  -0.049
    1   AR   Ar   51   5.297   3.478   2.733
    1   AR   Ar   52   5.382   4.009  -1.360
    1   AR   Ar   53   4.406   0.349   3.369
    1   AR   Ar   54   6.625   7.007   2.781
    1   AR   Ar   55   6.984   4.870   2.155
    1   AR   Ar   56   5.789   1.720   2.881
    1   AR   Ar   57   4.020   4.910   2.223
    1   AR   Ar   58   1.222   3.570   3.930
    1   AR   Ar   59   2.562   5.723   5.531
    1   AR   Ar   60   0.184   5.514   3.071
    1   AR   Ar   61   7.120   4.193   6.188
    1   AR   Ar   62   0.086   4.392   5.208
    1   AR   Ar   63   3.013   3.121   7.962
    1   AR   Ar   64   0.199   5.313   4.631
    1   AR   Ar   65   4.078   0.694   2.185
    1   AR   Ar   66   1.396   1.418   0.806
    1   AR   Ar   67   4.579   0.251  -0.753
    1   AR   Ar   68   6.899   1.188  -0.535
    1   AR   Ar   69   2.830   1.940  -0.309
    1   AR   Ar   70   7.079   1.229   1.879
    1   AR   Ar   71   2.827   0.699   2.542
    1   AR   Ar   72   4.384   1.051   1.193
    1   AR   Ar   73   3.037   0.065   4.166
    1   AR   Ar   74   1.068   0.564   3.247
    1   AR   Ar   75   2.777   0.585   5.425
    1   AR   Ar   76   2.452   0.202   1.353
    1   AR   Ar   77   1.433   5.712   5.254
    1   AR   Ar   78   7.084   5.472   5.650
    1   AR   Ar   79   3.122   6.703   5.222
    1   AR   Ar   80   3.721   5.315   5.938
    1   AR   Ar   81   1.969   6.528   1.773
    1   AR   Ar   82   6.817   5.581   1.336
    1   AR   Ar   83   0.712   3.273   1.106
    1   AR   Ar   84   0.982   4.586   1.156
    1   AR   Ar   85   0.607   3.372  -0.205
    1   AR   Ar   86   1.745   5.474   0.960
    1   AR   Ar   87   3.553   2.932   2.779
    1   AR   Ar   88   3.452   5.445   1.283
    1   AR   Ar   89   6.492   2.403   1.204
    1   AR   Ar   90   3.508   1.376   6.063
    1   AR   Ar   91   1.981   1.240   2.889
    1   AR   Ar   92   2.534   2.295   1.063
    1   AR   Ar   93   1.492   0.752   5.443
    1   AR   Ar   94   0.215   6.673   8.413
    1   AR   Ar   95   4.702   0.891   5.915
    1   AR   Ar   96   2.192   6.926   4.805
    1   AR   Ar   97   3.361   1.939  -1.197
    1   AR   Ar   98   1.774   4.720   4.136
    1   AR   Ar   99   6.448   7.009  -0.150
    1   AR   Ar  100   5.669   3.300  -2.018
    1   AR   Ar  101   3.931   5.783   2.768
    1   AR   Ar  102   3.370   1.685   2.401
    1   AR   Ar  103   2.169   4.137   1.046
    1   AR   Ar  104   3.133   0.177  -1.487
    1   AR   Ar  105   2.590   2.346   2.603
    1   AR   Ar  106   4.152   1.510   4.046
    1   AR   Ar  107   0.990   4.712   5.457
    1   AR   Ar  108   2.107   0.636   3.874
    1   AR   Ar  109   2.574   4.677   5.162
    1   AR   Ar  110   2.200   2.306   4.677
    1   AR   Ar  111   3.491   4.802   7.009
    1   AR   Ar  112   6.107   6.351   5.715
    1   AR   Ar  113   0.117   5.679  -1.268
    1   AR   Ar  114   2.858   6.918  -0.132
    1   AR   Ar  115   0.595   5.260   0.168
    1   AR   Ar  116   5.074   0.576   0.520
    1   AR   Ar  117   6.885   4.627   3.617
    1   AR   Ar  118   2.165   6.582   3.637
    1   AR   Ar  119   1.634   3.891   2.742
    1   AR   Ar  120   2.033   0.063   2.679
    1   AR   Ar  121   5.351   4.154   5.809
    1   AR   Ar  122   2.970   5.308   3.512
    1   AR   Ar  123   3.628   2.066   5.075
    1   AR   Ar  124   0.806   5.487   1.718
    1   AR   Ar  125   5.982   3.554   4.007
    1   AR   Ar  126   6.939   0.456   7.607
    1   AR   Ar  127   4.934   2.893   5.895
    1   AR   Ar  128   0.843   3.671   6.268
    1   AR   Ar  129   1.982   5.677   4.386
    1   AR   Ar  130   4.124   0.606  -5.139
    1   AR   Ar  131   3.784   6.708  -0.635
    1   AR   Ar  132   1.270   2.472   0.886
    1   AR   Ar  133   3.978   0.402   4.583
    1   AR   Ar  134   2.700   1.619   4.097
    1   AR   Ar  135   6.224   6.990   4.854
    1   AR   Ar  136   5.600   6.584   2.743
    1   AR   Ar  137   2.433   4.142   6.295
    1   AR   Ar  138   5.756   1.431   5.971
    1   AR   Ar  139   6.131   1.542   4.709
    1   AR   Ar  140   4.325   6.806   5.259
    1   AR   Ar  141   3.631   5.335   4.588
    1   AR   Ar  142   5.120   6.226   8.165
    1   AR   Ar  143   5.531   6.845   6.799
    1   AR   Ar  144   7.060   2.566   4.994
    1   AR   Ar  145   5.037   4.936  -1.185
    1   AR   Ar  146   3.554   2.220   3.490
    1   AR   Ar  147   5.263   4.000  -0.101
    1   AR   Ar  148   3.118   6.118  -0.951
    1   AR   Ar  149   0.316   2.301  -0.667
    1   AR   Ar  150   1.575   2.511   1.973
    1   AR   Ar  151   2.597   3.430   2.613
    1   AR   Ar  152   0.863   0.866  -1.291
    1   AR   Ar  153   5.340   0.875   3.240
    1   AR   Ar  154   4.495   2.621   4.024
    1   AR   Ar  155   6.033   3.406   5.517
    1   AR   Ar  156   3.206   4.382   3.030
    1   AR   Ar  157   3.093   5.730   6.717
    1   AR   Ar  158   0.665   2.729   6.951
    1   AR   Ar  159   3.689   0.305   5.957
    1   AR   Ar  160   1.379   1.243   4.361
    1   AR   Ar  161   4.885   4.562   3.115
    1   AR   Ar  162   4.071   5.685  -0.526
    1   AR   Ar  163   6.329   4.133   2.203
    1   AR   Ar  164   2.266   6.043   2.775
    1   AR   Ar  165   3.265   4.086   0.935
    1   AR   Ar  166   3.021   3.775   5.294
    1   AR   Ar  167   6.218   6.866   3.698
    1   AR   Ar  168   5.889   4.715  -2.259
    1   AR   Ar  169   3.786   3.698   3.536
    1   AR   Ar  170   2.935   3.097   6.087
    1   AR   Ar  171   4.718   5.469   4.258
    1   AR   Ar  172   4.033   3.347   4.842
    1   AR   Ar  173   2.342   1.833   6.815
    1   AR   Ar  174   2.868   6.129   4.407
    1   AR   Ar  175   2.635   0.322   6.556
    1   AR   Ar  176   3.135   3.097   4.140
    1   AR   Ar  177   0.283   4.172  -0.557
    1   AR   Ar  178   2.072   6.427   0.573
    1   AR   Ar  179   3.438   6.533   0.858
    1   AR   Ar  180   4.992   0.313  -7.664
    1   AR   Ar  181   0.125   6.596   1.840
    1   AR   Ar  182   1.132   6.587   2.726
    1   AR   Ar  183   4.803   5.290   1.444
    1   AR   Ar  184   4.485   5.384   0.414
    1   AR   Ar  185   3.123   4.383   4.348
    1   AR   Ar  186   3.141   6.817   2.843
    1   AR   Ar  187   3.920   6.480   3.885
    1   AR   Ar  188   3.127   0.955   1.558
    1   AR   Ar  189   5.864   2.314   5.451
    1   AR   Ar  190   1.308   6.904   4.053
    1   AR   Ar  191   3.828   6.480   6.370
    1   AR   Ar  192   3.989   3.474   6.231
    1   AR   Ar  193   3.255   6.195   2.054
    1   AR   Ar  194   5.030   6.309  -0.702
    1   AR   Ar  195   6.545   0.987   1.020
    1   AR   Ar  196   4.108   0.123   0.305
    1   AR   Ar  197   4.849   3.110   0.521
    1   AR   Ar  198   6.188   6.828   1.268
    1   AR   Ar  199   0.408   0.340   2.407
    1   AR   Ar  200   6.315   2.651  -0.179
    1   AR   Ar  201   6.411   5.690   2.396
    1   AR   Ar  202   5.239   0.572   4.504
    1   AR   Ar  203   0.350   6.996   3.402
    1   AR   Ar  204   4.364   4.531   7.530
    1   AR   Ar  205   5.875   1.591   1.721
    1   AR   Ar  206   6.424   0.309   5.846
    1   AR   Ar  207   7.118   3.517   4.749
    1   AR   Ar  208   0.715   6.062   3.887
    1   AR   Ar  209   6.752   2.210  -1.768
    1   AR   Ar  210   2.217   0.879  -0.529
    1   AR   Ar  211   6.844   3.204   0.644
    1   AR   Ar  212   6.335   3.775  -0.108
    1   AR   Ar  213   3.538   1.904   1.117
    1   AR   Ar  214   5.281   4.232   1.974
    1   AR   Ar  215   0.583   2.348   1.916
    1   AR   Ar  216   1.508   2.278  -0.233
    1   AR   Ar  217   5.501   1.955   3.924
    1   AR   Ar  218   5.076   2.676   4.799
    1   AR   Ar  219   4.150   3.869   2.435
    1   AR   Ar  220   4.439   4.373   1.272
    1   AR   Ar  221   6.523   5.822   3.871
    1   AR   Ar  222   5.393   0.065   5.725
    1   AR   Ar  223   7.018   1.671   5.757
    1   AR   Ar  224   5.169   1.483   5.125
    1   AR   Ar  225   6.654   2.025   2.391
    1   AR   Ar  226   2.423   3.802   4.104
    1   AR   Ar  227   1.053   2.852   3.190
    1   AR   Ar  228   6.217   0.794   2.190
    1   AR   Ar  229   6.186   4.494  -0.877
    1   AR   Ar  230   3.945   4.726   3.757
    1   AR   Ar  231   4.964   2.179   2.639
    1   AR   Ar  232   5.319   2.872   1.672
    1   AR   Ar  233   6.606   2.058   3.607
    1   AR   Ar  234   6.256   2.490   4.464
    1   AR   Ar  235   6.148   0.827   3.795
    1   AR   Ar  236   3.980   4.355   5.195
    1   AR   Ar  237   4.419   0.271   7.655
    1   AR   Ar  238   4.727   5.121   6.617
    1   AR   Ar  239   1.180   4.325  11.249
    1   AR   Ar  240   1.939   3.313   6.648
    1   AR   Ar  241   1.422   0.089   0.677
    1   AR   Ar  242   5.479   5.993   1.809
    1   AR   Ar  243   4.624   6.556   2.157
    1   AR   Ar  244   6.559   6.022   0.470
    1   AR   Ar  245   3.304   0.955   3.574
    1   AR   Ar  246   5.535   0.205  -1.235
    1   AR   Ar  247   7.051   3.773   1.625
    1   AR   Ar  248   5.649   5.397  -0.185
    1   AR   Ar  249   3.724   7.009   1.711
    1   AR   Ar  250   5.119   6.677   4.050
    1   AR   Ar  251   4.930   4.376   4.628
    1   AR   Ar  252   2.943   5.251   2.503
    1   AR   Ar  253   4.391   2.490   8.555
    1   AR   Ar  254   4.785   3.332  12.104
    1   AR   Ar  255   4.545   0.026   8.923
    1   AR   Ar  256   5.684   5.746   3.377
    7.12000  7.12000 12.00000
Argon-slab step 5300
  256
    1   AR   Ar    1   4.241   3.340  -2.886
    1   AR   Ar    2   5.310   6.470   0.424
    1   AR   Ar    3   3.942   3.609  -0.946
    1   AR   Ar    4   2.402   1.157   0.466
    1   AR   Ar    5   6.867   5.138  -0.508
    1   AR   Ar    6   1.042   1.351   2.348
    1   AR   Ar    7   5.911   4.420   3.144
    1   AR   Ar    8   6.431   3.458  -1.301
    1   AR   Ar    9   7.029   6.207   4.674
    1   AR   Ar   10   6.270   4.865   5.261
    1   AR   Ar   11   1.134   6.922   5.184
    1   AR   Ar   12   0.047   1.678   4.326
    1   AR   Ar   13   0.273   0.332   4.711
    1   AR   Ar   14   3.704   0.604   6.985
    1   AR   Ar   15   2.293   6.239   9.813
    1   AR   Ar   16   0.367   0.084   5.942
    1   AR   Ar   17   6.077   3.820   1.250
    1   AR   Ar   18   0.319   4.622  -1.640
    1   AR   Ar   19   5.711   4.721   0.634
    1   AR   Ar   20   6.550   3.683  -2.806
    1   AR   Ar   21   2.169   1.272   1.687
    1   AR   Ar   22   5.234   0.513   1.774
    1   AR   Ar   23   0.950   6.118   0.831
    1   AR   Ar   24   5.938   2.798   3.252
    1   AR   Ar   25   1.042   2.887   5.159
    1   AR   Ar   26   5.552   5.936   4.741
    1   AR   Ar   27   1.463   0.593   1.627
    1   AR   Ar   28   2.178   2.688   3.650
    1   AR   Ar   29   5.220   1.449   7.976
    1   AR   Ar   30   7.096   1.226   2.974
    1   AR   Ar   31   1.461   0.423   6.568
    1   AR   Ar   32   1.025   1.797   5.505
    1   AR   Ar   33   6.885   4.665   0.801
    1   AR   Ar   34   1.604   5.198   2.416
    1   AR   Ar   35   5.019   5.660   2.654
    1   AR   Ar   36   4.951   2.347  -3.283
    1   AR   Ar   37   3.948   3.226   1.498
    1   AR   Ar   38   5.821   4.917   4.227
    1   AR   Ar   39   0.434   2.652   4.012
    1   AR   Ar   40   0.887   4.392   2.264
    1   AR   Ar   41   0.923   1.671   3.552
    1   AR   Ar   42   5.170   5.257   5.669
    1   AR   Ar   43   0.089   2.968   5.930
    1   AR   Ar   44   0.325   3.677   3.157
    1   AR   Ar   45   1.592   3.924   5.269
    1   AR   Ar   46   6.055   4.869   6.699
    1   AR   Ar   47   3.074   3.722   6.874
    1   AR   Ar   48   6.962   3.539   7.494
    1   AR   Ar   49   0.450   0.979   1.097
    1   AR   Ar   50   3.139   4.259  -0.076
    1   AR   Ar   51   5.312   3.488   2.736
    1   AR   Ar   52   5.381   4.018  -1.385
    1   AR   Ar   53   4.367   0.379   3.376
    1   AR   Ar   54   6.644   7.006   2.785
    1   AR   Ar   55   6.980   4.861   2.130
    1   AR   Ar   56   5.790   1.682   2.915
    1   AR   Ar   57   3.994   4.925   2.201
    1   AR   Ar   58   1.224   3.552   3.918
    1   AR   Ar   59   2.571   5.738   5.533
    1   AR   Ar   60   0.192   5.483   3.047
    1   AR   Ar   61   0.002   4.205   6.208
    1   AR   Ar   62   0.073   4.368   5.198
    1   AR   Ar   63   3.012   3.123   7.939
    1   AR   Ar   64   0.240   5.291   4.630
    1   AR   Ar   65   4.103   0.673   2.175
    1   AR   Ar   66   1.377   1.467   0.852
    1   AR   Ar   67   4.535   0.259  -0.763
    1   AR   Ar   68   6.880   1.172  -0.549
    1   AR   Ar   69   2.848   1.964  -0.259
    1   AR   Ar   70   7.067   1.218   1.922
    1   AR   Ar   71   2.846   0.693   2.527
    1   AR   Ar   72   4.367   1.058   1.195
    1   AR   Ar   73   3.034   0.060   4.143
    1   AR   Ar   74   1.086   0.549   3.265
    1   AR   Ar   75   2.771   0.594   5.430
    1   AR   Ar   76   2.432   0.201   1.369
    1   AR   Ar   77   1.402   5.705   5.258
    1   AR   Ar   78   7.097   5.500   5.650
    1   AR   Ar   79   3.142   6.707   5.232
    1   AR   Ar   80   3.716   5.294   5.964
    1   AR   Ar   81   1.995   6.499   1.759
    1   AR   Ar   82   6.859   5.586   1.344
    1   AR   Ar   83   0.741   3.256   1.132
    1   AR   Ar   84   0.962   4.593   1.133
    1   AR   Ar   85   0.621   3.356  -0.187
    1   AR   Ar   86   1.741   5.447   0.952
    1   AR   Ar   87   3.559   2.926   2.798
    1   AR   Ar   88   3.463   5.418   1.253
    1   AR   Ar   89   6.443   2.378   1.213
    1   AR   Ar   90   3.522   1.395   6.076
    1   AR   Ar   91   1.980   1.213   2.903
    1   AR   Ar   92   2.514   2.307   1.106
    1   AR   Ar   93   1.480   0.735   5.451
    1   AR   Ar   94   0.197   6.663   8.434
    1   AR   Ar   95   4.708   0.910   5.936
    1   AR   Ar   96   2.199   6.919   4.802
    1   AR   Ar   97   3.395   1.930  -1.213
    1   AR   Ar   98   1.759   4.705   4.134
    1   AR   Ar   99   6.468   6.999  -0.168
    1   AR   Ar  100   5.639   3.332  -2.026
    1   AR   Ar  101   3.923   5.823   2.778
    1   AR   Ar  102   3.354   1.671   2.424
    1   AR   Ar  103   2.160   4.142   1.057
    1   AR   Ar  104   3.158   0.193  -1.462
    1   AR   Ar  105   2.607   2.335   2.590
    1   AR   Ar  106   4.169   1.460   4.049
    1   AR   Ar  107   0.987   4.715   5.423
    1   AR   Ar  108   2.120   0.646   3.862
    1   AR   Ar  109   2.614   4.652   5.142
    1   AR   Ar  110   2.189   2.318   4.659
    1   AR   Ar  111   3.524   4.783   6.978
    1   AR   Ar  112   6.142   6.342   5.716
    1   AR   Ar  113   0.093   5.692  -1.291
    1   AR   Ar  114   2.853   6.888  -0.122
    1   AR   Ar  115   0.619   5.225   0.178
    1   AR   Ar  116   5.055   0.589   0.559
    1   AR   Ar  117   6.888   4.576   3.583
    1   AR   Ar  118   2.207   6.583   3.663
    1   AR   Ar  119   1.656   3.838   2.738
    1   AR   Ar  120   2.039   0.068   2.705
    1   AR   Ar  121   5.334   4.157   5.812
    1   AR   Ar  122   2.953   5.346   3.519
    1   AR   Ar  123   3.620   2.039   5.078
    1   AR   Ar  124   0.802   5.476   1.710
    1   AR   Ar  125   5.997   3.541   4.004
    1   AR   Ar  126   6.930   0.479   7.637
    1   AR   Ar  127   4.930   2.890   5.875
    1   AR   Ar  128   0.829   3.630   6.239
    1   AR   Ar  129   1.967   5.685   4.367
    1   AR   Ar  130   4.127   0.612  -5.145
    1   AR   Ar  131   3.794   6.705  -0.648
    1   AR   Ar  132   1.268   2.502   0.861
    1   AR   Ar  133   3.980   0.421   4.606
    1   AR   Ar  134   2.704   1.607   4.127
    1   AR   Ar  135   6.232   6.975   4.821
    1   AR   Ar  136   5.533   6.604   2.731
    1   AR   Ar  137   2.424   4.151   6.308
    1   AR   Ar  138   5.761   1.445   5.951
    1   AR   Ar  139   6.134   1.544   4.736
    1   AR   Ar  140   4.347   6.804   5.247
    1   AR   Ar  141   3.629   5.337   4.611
    1   AR   Ar  142   5.100   6.238   8.152
    1   AR   Ar  143   5.542   6.854   6.801
    1   AR   Ar  144   7.049   2.572   5.008
    1   AR   Ar  145   5.044   4.949  -1.201
    1   AR   Ar  146   3.538   2.201   3.525
    1   AR   Ar  147   5.294   3.981  -0.100
    1   AR   Ar  148   3.104   6.141  -0.927
    1   AR   Ar  149   0.308   2.345  -0.667
    1   AR   Ar  150   1.606   2.494   1.980
    1   AR   Ar  151   2.602   3.459   2.580
    1   AR   Ar  152   0.880   0.870  -1.272
    1   AR   Ar  153   5.318   0.873   3.252
    1   AR   Ar  154   4.539   2.655   4.008
    1   AR   Ar  155   6.094   3.381   5.551
    1   AR   Ar  156   3.206   4.398   3.019
    1   AR   Ar  157   3.101   5.737   6.723
    1   AR   Ar  158   0.664   2.732   6.942
    1   AR   Ar  159   3.679   0.281   5.958
    1   AR   Ar  160   1.359   1.232   4.362
    1   AR   Ar  161   4.907   4.559   3.106
    1   AR   Ar  162   4.068   5.665  -0.535
    1   AR   Ar  163   6.308   4.125   2.233
    1   AR   Ar  164   2.317   6.042   2.772
    1   AR   Ar  165   3.289   4.124   0.911
    1   AR   Ar  166   3.016   3.799   5.305
    1   AR   Ar  167   6.210   6.871   3.746
    1   AR   Ar  168   5.858   4.707  -2.280
    1   AR   Ar  169   3.791   3.706   3.531
    1   AR   Ar  170   2.956   3.069   6.072
    1   AR   Ar  171   4.705   5.475   4.254
    1   AR   Ar  172   4.033   3.323   4.839
    1   AR   Ar  173   2.298   1.832   6.844
    1   AR   Ar  174   2.843   6.126   4.401
    1   AR   Ar  175   2.606   0.322   6.557
    1   AR   Ar  176   3.136   3.078   4.165
    1   AR   Ar  177   0.287   4.181  -0.583
    1   AR   Ar  178   2.092   6.422   0.566
    1   AR   Ar  179   3.449   6.504   0.848
    1   AR   Ar  180   5.013   0.286  -7.638
    1   AR   Ar  181   0.115   6.574   1.851
    1   AR   Ar  182   1.138   6.579   2.749
    1   AR   Ar  183   4.822   5.311   1.437
    1   AR   Ar  184   4.489   5.403   0.429
    1   AR   Ar  185   3.133   4.377   4.326
    1   AR   Ar  186   3.144   6.801   2.855
    1   AR   Ar  187   3.937   6.495   3.860
    1   AR   Ar  188   3.111   0.986   1.557
    1   AR   Ar  189   5.872   2.304   5.432
    1   AR   Ar  190   1.292   6.926   4.049
    1   AR   Ar  191   3.824   6.446   6.347
    1   AR   Ar  192   3.991   3.512   6.260
    1   AR   Ar  193   3.258   6.189   2.055
    1   AR   Ar  194   5.041   6.299  -0.669
    1   AR   Ar  195   6.557   1.003   1.047
    1   AR   Ar  196   4.138   0.100   0.296
    1   AR   Ar  197   4.852   3.116   0.495
    1   AR   Ar  198   6.205   6.838   1.270
    1   AR   Ar  199   0.408   0.356   2.358
    1   AR   Ar  200   6.316   2.647  -0.159
    1   AR   Ar  201   6.422   5.698   2.394
    1   AR   Ar  202   5.236   0.561   4.523
    1   AR   Ar  203   0.349   6.997   3.400
    1   AR   Ar  204   4.388   4.513   7.515
    1   AR   Ar  205   5.866   1.576   1.708
    1   AR   Ar  206   6.461   0.317   5.813
    1   AR   Ar  207   7.096   3.544   4.766
    1   AR   Ar  208   0.709   6.088   3.889
    1   AR   Ar  209   6.721   2.215  -1.758
    1   AR   Ar  210   2.235   0.880  -0.547
    1   AR   Ar  211   6.862   3.167   0.638
    1   AR   Ar  212   6.327   3.787  -0.132
    1   AR   Ar  213   3.527   1.867   1.112
    1   AR   Ar  214   5.257   4.230   1.976
    1   AR   Ar  215   0.571   2.394   1.952
    1   AR   Ar  216   1.528   2.269  -0.254
    1   AR   Ar  217   5.472   1.956   3.937
    1   AR   Ar  218   5.118   2.691   4.816
    1   AR   Ar  219   4.156   3.890   2.448
    1   AR   Ar  220   4.424   4.375   1.256
    1   AR   Ar  221   6.510   5.828   3.872
    1   AR   Ar  222   5.385   0.071   5.736
    1   AR   Ar  223   7.035   1.713   5.712
    1   AR   Ar  224   5.171   1.503   5.158
    1   AR   Ar  225   6.651   2.036   2.390
    1   AR   Ar  226   2.397   3.796   4.089
    1   AR   Ar  227   1.077   2.869   3.170
    1   AR   Ar  228   6.238   0.799   2.236
    1   AR   Ar  229   6.186   4.493  -0.882
    1   AR   Ar  230   3.989   4.764   3.728
    1   AR   Ar  231   4.964   2.177   2.637
    1   AR   Ar  232   5.301   2.889   1.685
    1   AR   Ar  233   6.617   2.045   3.597
    1   AR   Ar  234   6.234   2.516   4.459
    1   AR   Ar  235   6.148   0.838   3.805
    1   AR   Ar  236   3.974   4.362   5.180
    1   AR   Ar  237   4.415   0.309   7.662
    1   AR   Ar  238   4.686   5.130   6.603
    1   AR   Ar  239   1.188   4.315  11.244
    1   AR   Ar  240   1.919   3.319   6.638
    1   AR   Ar  241   1.413   0.086   0.653
    1   AR   Ar  242   5.476   6.018   1.785
    1   AR   Ar  243   4.602   6.557   2.169
    1   AR   Ar  244   6.539   6.040   0.465
    1   AR   Ar  245   3.291   0.942   3.597
    1   AR   Ar  246   5.486   0.162  -1.228
    1   AR   Ar  247   7.074   3.792   1.631
    1   AR   Ar  248   5.663   5.401  -0.166
    1   AR   Ar  249   3.704   6.988   1.718
    1   AR   Ar  250   5.136   6.670   4.025
    1   AR   Ar  251   4.950   4.375   4.689
    1   AR   Ar  252   2.961   5.251   2.527
    1   AR   Ar  253   4.358   2.503   8.584
    1   AR   Ar  254   4.786   3.365  12.096
    1   AR   Ar  255   4.556   0.038   8.885
    1   AR   Ar  256   5.682   5.731   3.409
    7.12000  7.12000 12.00000
Argon-slab step 5305
  256
    1   AR   Ar    1   4.252   3.326  -2.891
    1   AR   Ar    2   5.302   6.449   0.431
    1   AR   Ar    3   3.950   3.597  -0.922
    1   AR   Ar    4   2.406   1.162   0.442
    1   AR   Ar    5   6.890   5.130  -0.519
    1   AR   Ar    6   1.044   1.329   2.321
    1   AR   Ar    7   5.924   4.405   3.129
    1   AR   Ar    8   6.457   3.482  -1.302
    1   AR   Ar    9   7.033   6.200   4.693
    1   AR   Ar   10   6.235   4.869   5.260
    1   AR   Ar   11   1.137   6.929   5.181
    1   AR   Ar   12   0.050   1.702   4.330
    1   AR   Ar   13   0.317   0.316   4.721
    1   AR   Ar   14   3.674   0.604   6.990
    1   AR   Ar   15   2.322   6.232   9.775
    1   AR   Ar   16   0.359   0.101   5.936
    1   AR   Ar   17   6.067   3.788   1.216
    1   AR   Ar   18   0.342   4.636  -1.653
    1   AR   Ar   19   5.722   4.762   0.628
    1   AR   Ar   20   6.540   3.683  -2.797
    1   AR   Ar   21   2.150   1.312   1.729
    1   AR   Ar   22   5.242   0.502   1.775
    1   AR   Ar   23   0.959   6.086   0.853
    1   AR   Ar   24   5.948   2.793   3.252
    1   AR   Ar   25   1.046   2.878   5.136
    1   AR   Ar   26   5.575   5.945   4.705
    1   AR   Ar   27   1.441   0.578   1.649
    1   AR   Ar   28   2.175   2.710   3.655
    1   AR   Ar   29   5.253   1.443   7.982
    1   AR   Ar   30   7.106   1.228   2.964
    1   AR   Ar   31   1.440   0.410   6.598
    1   AR   Ar   32   0.991   1.808   5.514
    1   AR   Ar   33   6.862   4.684   0.831
    1   AR   Ar   34   1.613   5.184   2.409
    1   AR   Ar   35   5.001   5.652   2.657
    1   AR   Ar   36   4.948   2.350  -3.278
    1   AR   Ar   37   3.962   3.217   1.483
    1   AR   Ar   38   5.790   4.935   4.257
    1   AR   Ar   39   0.451   2.662   4.015
    1   AR   Ar   40   0.894   4.373   2.260
    1   AR   Ar   41   0.903   1.675   3.535
    1   AR   Ar   42   5.174   5.230   5.688
    1   AR   Ar   43   0.065   2.958   5.943
    1   AR   Ar   44   0.343   3.685   3.181
    1   AR   Ar   45   1.555   3.939   5.286
    1   AR   Ar   46   6.082   4.855   6.716
    1   AR   Ar   47   3.101   3.710   6.869
    1   AR   Ar   48   6.953   3.510   7.497
    1   AR   Ar   49   0.436   0.972   1.082
    1   AR   Ar   50   3.141   4.226  -0.111
    1   AR   Ar   51   5.324   3.498   2.739
    1   AR   Ar   52   5.377   4.028  -1.401
    1   AR   Ar   53   4.326   0.408   3.384
    1   AR   Ar   54   6.650   7.009   2.784
    1   AR   Ar   55   6.986   4.855   2.103
    1   AR   Ar   56   5.803   1.646   2.948
    1   AR   Ar   57   3.968   4.941   2.176
    1   AR   Ar   58   1.227   3.538   3.911
    1   AR   Ar   59   2.581   5.753   5.534
    1   AR   Ar   60   0.200   5.453   3.023
    1   AR   Ar   61   0.005   4.207   6.221
    1   AR   Ar   62   0.057   4.365   5.194
    1   AR   Ar   63   3.009   3.132   7.917
    1   AR   Ar   64   0.286   5.256   4.626
    1   AR   Ar   65   4.086   0.656   2.183
    1   AR   Ar   66   1.362   1.512   0.899
    1   AR   Ar   67   4.497   0.273  -0.773
    1   AR   Ar   68   6.860   1.152  -0.551
    1   AR   Ar   69   2.864   1.987  -0.207
    1   AR   Ar   70   7.065   1.214   1.966
    1   AR   Ar   71   2.864   0.696   2.521
    1   AR   Ar   72   4.347   1.066   1.198
    1   AR   Ar   73   3.032   0.054   4.121
    1   AR   Ar   74   1.111   0.540   3.281
    1   AR   Ar   75   2.764   0.604   5.434
    1   AR   Ar   76   2.414   0.203   1.381
    1   AR   Ar   77   1.370   5.700   5.263
    1   AR   Ar   78   7.110   5.527   5.650
    1   AR   Ar   79   3.164   6.706   5.250
    1   AR   Ar   80   3.713   5.272   5.986
    1   AR   Ar   81   2.017   6.463   1.748
    1   AR   Ar   82   6.861   5.562   1.324
    1   AR   Ar   83   0.761   3.254   1.163
    1   AR   Ar   84   0.940   4.597   1.110
    1   AR   Ar   85   0.638   3.325  -0.161
    1   AR   Ar   86   1.738   5.417   0.947
    1   AR   Ar   87   3.566   2.924   2.811
    1   AR   Ar   88   3.476   5.391   1.223
    1   AR   Ar   89   6.394   2.353   1.224
    1   AR   Ar   90   3.535   1.412   6.088
    1   AR   Ar   91   1.979   1.186   2.918
    1   AR   Ar   92   2.491   2.317   1.150
    1   AR   Ar   93   1.471   0.723   5.459
    1   AR   Ar   94   0.178   6.655   8.454
    1   AR   Ar   95   4.712   0.927   5.958
    1   AR   Ar   96   2.201   6.912   4.797
    1   AR   Ar   97   3.436   1.914  -1.240
    1   AR   Ar   98   1.742   4.685   4.133
    1   AR   Ar   99   6.487   6.990  -0.187
    1   AR   Ar  100   5.613   3.353  -2.046
    1   AR   Ar  101   3.916   5.865   2.793
    1   AR   Ar  102   3.345   1.652   2.446
    1   AR   Ar  103   2.134   4.146   1.083
    1   AR   Ar  104   3.183   0.207  -1.435
    1   AR   Ar  105   2.617   2.328   2.578
    1   AR   Ar  106   4.186   1.410   4.053
    1   AR   Ar  107   0.985   4.727   5.392
    1   AR   Ar  108   2.133   0.653   3.849
    1   AR   Ar  109   2.583   4.668   5.146
    1   AR   Ar  110   2.180   2.304   4.640
    1   AR   Ar  111   3.555   4.761   6.945
    1   AR   Ar  112   6.177   6.333   5.717
    1   AR   Ar  113   0.071   5.708  -1.318
    1   AR   Ar  114   2.849   6.860  -0.111
    1   AR   Ar  115   0.642   5.190   0.189
    1   AR   Ar  116   5.041   0.600   0.597
    1   AR   Ar  117   6.891   4.527   3.551
    1   AR   Ar  118   2.251   6.587   3.689
    1   AR   Ar  119   1.674   3.784   2.738
    1   AR   Ar  120   2.043   0.072   2.732
    1   AR   Ar  121   5.317   4.160   5.814
    1   AR   Ar  122   2.936   5.387   3.538
    1   AR   Ar  123   3.612   2.011   5.080
    1   AR   Ar  124   0.795   5.466   1.704
    1   AR   Ar  125   6.012   3.531   4.003
    1   AR   Ar  126   6.922   0.501   7.667
    1   AR   Ar  127   4.931   2.893   5.856
    1   AR   Ar  128   0.825   3.586   6.209
    1   AR   Ar  129   1.943   5.692   4.347
    1   AR   Ar  130   4.131   0.618  -5.150
    1   AR   Ar  131   3.826   6.738  -0.649
    1   AR   Ar  132   1.276   2.521   0.832
    1   AR   Ar  133   3.981   0.443   4.627
    1   AR   Ar  134   2.711   1.595   4.140
    1   AR   Ar  135   6.237   6.961   4.789
    1   AR   Ar  136   5.470   6.626   2.722
    1   AR   Ar  137   2.405   4.172   6.306
    1   AR   Ar  138   5.773   1.451   5.943
    1   AR   Ar  139   6.156   1.564   4.734
    1   AR   Ar  140   4.369   6.799   5.239
    1   AR   Ar  141   3.625   5.339   4.636
    1   AR   Ar  142   5.081   6.251   8.139
    1   AR   Ar  143   5.554   6.863   6.803
    1   AR   Ar  144   7.046   2.566   5.024
    1   AR   Ar  145   5.051   4.970  -1.213
    1   AR   Ar  146   3.520   2.178   3.563
    1   AR   Ar  147   5.322   3.963  -0.100
    1   AR   Ar  148   3.069   6.147  -0.911
    1   AR   Ar  149   0.300   2.389  -0.667
    1   AR   Ar  150   1.642   2.476   1.987
    1   AR   Ar  151   2.613   3.487   2.546
    1   AR   Ar  152   0.896   0.874  -1.252
    1   AR   Ar  153   5.319   0.840   3.235
    1   AR   Ar  154   4.576   2.688   3.983
    1   AR   Ar  155   6.157   3.355   5.584
    1   AR   Ar  156   3.205   4.408   3.010
    1   AR   Ar  157   3.106   5.746   6.730
    1   AR   Ar  158   0.662   2.736   6.933
    1   AR   Ar  159   3.669   0.260   5.956
    1   AR   Ar  160   1.340   1.218   4.368
    1   AR   Ar  161   4.922   4.557   3.096
    1   AR   Ar  162   4.065   5.645  -0.545
    1   AR   Ar  163   6.279   4.112   2.267
    1   AR   Ar  164   2.347   6.042   2.771
    1   AR   Ar  165   3.299   4.163   0.902
    1   AR   Ar  166   3.018   3.809   5.316
    1   AR   Ar  167   6.200   6.876   3.794
    1   AR   Ar  168   5.827   4.698  -2.299
    1   AR   Ar  169   3.798   3.711   3.528
    1   AR   Ar  170   2.977   3.037   6.055
    1   AR   Ar  171   4.693   5.480   4.249
    1   AR   Ar  172   4.034   3.298   4.836
    1   AR   Ar  173   2.254   1.832   6.871
    1   AR   Ar  174   2.831   6.124   4.393
    1   AR   Ar  175   2.579   0.323   6.556
    1   AR   Ar  176   3.141   3.054   4.191
    1   AR   Ar  177   0.283   4.203  -0.616
    1   AR   Ar  178   2.115   6.414   0.560
    1   AR   Ar  179   3.458   6.473   0.834
    1   AR   Ar  180   5.035   0.259  -7.612
    1   AR   Ar  181   0.104   6.549   1.863
    1   AR   Ar  182   1.144   6.571   2.772
    1   AR   Ar  183   4.841   5.336   1.423
    1   AR   Ar  184   4.494   5.421   0.444
    1   AR   Ar  185   3.159   4.379   4.302
    1   AR   Ar  186   3.146   6.788   2.874
    1   AR   Ar  187   3.953   6.511   3.835
    1   AR   Ar  188   3.109   1.013   1.553
    1   AR   Ar  189   5.883   2.300   5.414
    1   AR   Ar  190   1.272   6.959   4.046
    1   AR   Ar  191   3.822   6.409   6.322
    1   AR   Ar  192   3.992   3.551   6.287
    1   AR   Ar  193   3.253   6.169   2.052
    1   AR   Ar  194   5.051   6.288  -0.636
    1   AR   Ar  195   6.560   1.017   1.070
    1   AR   Ar  196   4.167   0.075   0.286
    1   AR   Ar  197   4.856   3.122   0.471
    1   AR   Ar  198   6.221   6.847   1.273
    1   AR   Ar  199   0.410   0.373   2.311
    1   AR   Ar  200   6.317   2.643  -0.139
    1   AR   Ar  201   6.429   5.711   2.394
    1   AR   Ar  202   5.233   0.551   4.541
    1   AR   Ar  203   0.344   6.992   3.404
    1   AR   Ar  204   4.415   4.495   7.500
    1   AR   Ar  205   5.845   1.580   1.699
    1   AR   Ar  206   6.489   0.322   5.777
    1   AR   Ar  207   7.071   3.552   4.766
    1   AR   Ar  208   0.699   6.098   3.874
    1   AR   Ar  209   6.670   2.188  -1.769
    1   AR   Ar  210   2.254   0.881  -0.566
    1   AR   Ar  211   6.883   3.132   0.631
    1   AR   Ar  212   6.324   3.798  -0.153
    1   AR   Ar  213   3.518   1.832   1.108
    1   AR   Ar  214   5.231   4.231   1.977
    1   AR   Ar  215   0.554   2.439   1.987
    1   AR   Ar  216   1.560   2.260  -0.274
    1   AR   Ar  217   5.441   1.955   3.950
    1   AR   Ar  218   5.165   2.706   4.838
    1   AR   Ar  219   4.162   3.911   2.463
    1   AR   Ar  220   4.405   4.372   1.240
    1   AR   Ar  221   6.514   5.831   3.879
    1   AR   Ar  222   5.377   0.076   5.745
    1   AR   Ar  223   7.050   1.756   5.665
    1   AR   Ar  224   5.163   1.525   5.181
    1   AR   Ar  225   6.646   2.051   2.390
    1   AR   Ar  226   2.354   3.782   4.068
    1   AR   Ar  227   1.099   2.883   3.155
    1   AR   Ar  228   6.251   0.792   2.292
    1   AR   Ar  229   6.181   4.492  -0.892
    1   AR   Ar  230   4.032   4.804   3.698
    1   AR   Ar  231   4.958   2.181   2.633
    1   AR   Ar  232   5.284   2.906   1.699
    1   AR   Ar  233   6.623   2.033   3.576
    1   AR   Ar  234   6.204   2.552   4.446
    1   AR   Ar  235   6.157   0.852   3.821
    1   AR   Ar  236   3.966   4.372   5.166
    1   AR   Ar  237   4.417   0.345   7.673
    1   AR   Ar  238   4.642   5.139   6.590
    1   AR   Ar  239   1.196   4.305  11.239
    1   AR   Ar  240   1.897   3.321   6.629
    1   AR   Ar  241   1.402   0.086   0.630
    1   AR   Ar  242   5.480   6.048   1.758
    1   AR   Ar  243   4.579   6.559   2.181
    1   AR   Ar  244   6.517   6.060   0.455
    1   AR   Ar  245   3.282   0.926   3.616
    1   AR   Ar  246   5.439   0.117  -1.222
    1   AR   Ar  247   7.103   3.810   1.636
    1   AR   Ar  248   5.676   5.407  -0.152
    1   AR   Ar  249   3.687   6.976   1.722
    1   AR   Ar  250   5.153   6.662   3.999
    1   AR   Ar  251   4.972   4.374   4.749
    1   AR   Ar  252   2.979   5.253   2.538
    1   AR   Ar  253   4.368   2.501   8.594
    1   AR   Ar  254   4.788   3.398  12.088
    1   AR   Ar  255   4.567   0.050   8.844
    1   AR   Ar  256   5.668   5.714   3.439
    7.12000  7.12000 12.00000
Argon-slab step 5310
  256
    1   AR   Ar    1   4.241   3.281  -2.907
    1   AR   Ar    2   5.295   6.427   0.438
    1   AR   Ar    3   3.959   3.585  -0.896
    1   AR   Ar    4   2.409   1.169   0.425
    1   AR   Ar    5   6.913   5.124  -0.522
    1   AR   Ar    6   1.044   1.308   2.295
    1   AR   Ar    7   5.931   4.420   3.127
    1   AR   Ar    8   6.482   3.507  -1.302
    1   AR   Ar    9   7.037   6.203   4.717
    1   AR   Ar   10   6.203   4.871   5.266
    1   AR   Ar   11   1.139   6.927   5.176
    1   AR   Ar   12   0.050   1.719   4.337
    1   AR   Ar   13   0.360   0.300   4.730
    1   AR   Ar   14   3.661   0.598   6.973
    1   AR   Ar   15   2.352   6.226   9.738
    1   AR   Ar   16   0.356   0.117   5.930
    1   AR   Ar   17   6.060   3.753   1.185
    1   AR   Ar   18   0.365   4.651  -1.665
    1   AR   Ar   19   5.735   4.799   0.628
    1   AR   Ar   20   6.530   3.684  -2.787
    1   AR   Ar   21   2.128   1.360   1.774
    1   AR   Ar   22   5.250   0.491   1.776
    1   AR   Ar   23   0.965   6.058   0.873
    1   AR   Ar   24   5.925   2.800   3.248
    1   AR   Ar   25   1.047   2.870   5.114
    1   AR   Ar   26   5.601   5.955   4.671
    1   AR   Ar   27   1.412   0.559   1.672
    1   AR   Ar   28   2.187   2.721   3.658
    1   AR   Ar   29   5.286   1.436   7.988
    1   AR   Ar   30   7.117   1.229   2.964
    1   AR   Ar   31   1.419   0.396   6.627
    1   AR   Ar   32   0.959   1.819   5.522
    1   AR   Ar   33   6.839   4.695   0.857
    1   AR   Ar   34   1.624   5.172   2.402
    1   AR   Ar   35   4.979   5.639   2.657
    1   AR   Ar   36   4.940   2.363  -3.268
    1   AR   Ar   37   3.978   3.208   1.468
    1   AR   Ar   38   5.760   4.953   4.283
    1   AR   Ar   39   0.468   2.672   4.019
    1   AR   Ar   40   0.898   4.355   2.254
    1   AR   Ar   41   0.881   1.681   3.514
    1   AR   Ar   42   5.180   5.204   5.703
    1   AR   Ar   43   0.037   2.948   5.960
    1   AR   Ar   44   0.362   3.692   3.204
    1   AR   Ar   45   1.527   3.943   5.300
    1   AR   Ar   46   6.109   4.842   6.730
    1   AR   Ar   47   3.133   3.695   6.872
    1   AR   Ar   48   6.945   3.480   7.498
    1   AR   Ar   49   0.431   0.967   1.068
    1   AR   Ar   50   3.142   4.193  -0.151
    1   AR   Ar   51   5.336   3.509   2.743
    1   AR   Ar   52   5.370   4.043  -1.407
    1   AR   Ar   53   4.283   0.436   3.393
    1   AR   Ar   54   6.617   7.027   2.777
    1   AR   Ar   55   6.997   4.847   2.075
    1   AR   Ar   56   5.825   1.618   2.978
    1   AR   Ar   57   3.945   4.958   2.151
    1   AR   Ar   58   1.233   3.530   3.910
    1   AR   Ar   59   2.599   5.775   5.527
    1   AR   Ar   60   0.208   5.423   2.999
    1   AR   Ar   61   0.009   4.227   6.240
    1   AR   Ar   62   0.040   4.388   5.201
    1   AR   Ar   63   2.991   3.107   7.880
    1   AR   Ar   64   0.335   5.216   4.619
    1   AR   Ar   65   4.071   0.645   2.196
    1   AR   Ar   66   1.350   1.549   0.947
    1   AR   Ar   67   4.473   0.304  -0.783
    1   AR   Ar   68   6.835   1.110  -0.507
    1   AR   Ar   69   2.879   2.010  -0.155
    1   AR   Ar   70   7.074   1.220   1.999
    1   AR   Ar   71   2.869   0.730   2.549
    1   AR   Ar   72   4.324   1.075   1.205
    1   AR   Ar   73   3.032   0.046   4.101
    1   AR   Ar   74   1.140   0.539   3.292
    1   AR   Ar   75   2.756   0.614   5.437
    1   AR   Ar   76   2.400   0.209   1.390
    1   AR   Ar   77   1.338   5.698   5.267
    1   AR   Ar   78   0.003   5.554   5.649
    1   AR   Ar   79   3.189   6.706   5.269
    1   AR   Ar   80   3.710   5.249   6.005
    1   AR   Ar   81   2.036   6.421   1.740
    1   AR   Ar   82   6.863   5.547   1.308
    1   AR   Ar   83   0.771   3.266   1.199
    1   AR   Ar   84   0.918   4.599   1.086
    1   AR   Ar   85   0.657   3.291  -0.131
    1   AR   Ar   86   1.737   5.383   0.943
    1   AR   Ar   87   3.573   2.922   2.822
    1   AR   Ar   88   3.489   5.364   1.195
    1   AR   Ar   89   6.347   2.328   1.236
    1   AR   Ar   90   3.549   1.427   6.100
    1   AR   Ar   91   1.976   1.161   2.932
    1   AR   Ar   92   2.467   2.325   1.194
    1   AR   Ar   93   1.464   0.717   5.469
    1   AR   Ar   94   0.159   6.647   8.474
    1   AR   Ar   95   4.747   0.944   5.983
    1   AR   Ar   96   2.199   6.906   4.791
    1   AR   Ar   97   3.476   1.898  -1.265
    1   AR   Ar   98   1.725   4.661   4.132
    1   AR   Ar   99   6.506   6.980  -0.204
    1   AR   Ar  100   5.593   3.363  -2.078
    1   AR   Ar  101   3.910   5.906   2.812
    1   AR   Ar  102   3.343   1.629   2.467
    1   AR   Ar  103   2.103   4.151   1.114
    1   AR   Ar  104   3.209   0.221  -1.406
    1   AR   Ar  105   2.620   2.326   2.569
    1   AR   Ar  106   4.206   1.360   4.058
    1   AR   Ar  107   0.980   4.749   5.364
    1   AR   Ar  108   2.147   0.657   3.836
    1   AR   Ar  109   2.543   4.698   5.149
    1   AR   Ar  110   2.171   2.275   4.622
    1   AR   Ar  111   3.584   4.739   6.910
    1   AR   Ar  112   6.212   6.323   5.716
    1   AR   Ar  113   0.051   5.726  -1.349
    1   AR   Ar  114   2.845   6.833  -0.099
    1   AR   Ar  115   0.665   5.155   0.202
    1   AR   Ar  116   5.033   0.608   0.633
    1   AR   Ar  117   6.895   4.479   3.520
    1   AR   Ar  118   2.290   6.594   3.711
    1   AR   Ar  119   1.684   3.731   2.740
    1   AR   Ar  120   2.045   0.074   2.759
    1   AR   Ar  121   5.299   4.162   5.816
    1   AR   Ar  122   2.921   5.430   3.565
    1   AR   Ar  123   3.632   2.011   5.052
    1   AR   Ar  124   0.788   5.457   1.701
    1   AR   Ar  125   6.028   3.524   4.003
    1   AR   Ar  126   6.913   0.522   7.698
    1   AR   Ar  127   4.950   2.913   5.839
    1   AR   Ar  128   0.832   3.543   6.179
    1   AR   Ar  129   1.954   5.665   4.373
    1   AR   Ar  130   4.134   0.624  -5.156
    1   AR   Ar  131   3.849   6.760  -0.645
    1   AR   Ar  132   1.293   2.490   0.831
    1   AR   Ar  133   3.980   0.467   4.645
    1   AR   Ar  134   2.720   1.584   4.141
    1   AR   Ar  135   6.252   6.961   4.780
    1   AR   Ar  136   5.412   6.650   2.717
    1   AR   Ar  137   2.384   4.200   6.296
    1   AR   Ar  138   5.791   1.447   5.942
    1   AR   Ar  139   6.183   1.584   4.723
    1   AR   Ar  140   4.393   6.793   5.232
    1   AR   Ar  141   3.620   5.341   4.660
    1   AR   Ar  142   5.061   6.266   8.126
    1   AR   Ar  143   5.565   6.872   6.804
    1   AR   Ar  144   7.046   2.555   5.035
    1   AR   Ar  145   5.056   4.998  -1.223
    1   AR   Ar  146   3.502   2.152   3.604
    1   AR   Ar  147   5.345   3.948  -0.101
    1   AR   Ar  148   3.026   6.145  -0.899
    1   AR   Ar  149   0.291   2.432  -0.667
    1   AR   Ar  150   1.680   2.457   1.993
    1   AR   Ar  151   2.632   3.512   2.512
    1   AR   Ar  152   0.913   0.878  -1.231
    1   AR   Ar  153   5.310   0.797   3.219
    1   AR   Ar  154   4.609   2.721   3.953
    1   AR   Ar  155   6.156   3.341   5.586
    1   AR   Ar  156   3.206   4.412   3.004
    1   AR   Ar  157   3.108   5.753   6.738
    1   AR   Ar  158   0.660   2.742   6.922
    1   AR   Ar  159   3.660   0.243   5.951
    1   AR   Ar  160   1.322   1.203   4.379
    1   AR   Ar  161   4.930   4.556   3.083
    1   AR   Ar  162   4.063   5.625  -0.556
    1   AR   Ar  163   6.252   4.091   2.290
    1   AR   Ar  164   2.343   6.041   2.774
    1   AR   Ar  165   3.312   4.203   0.899
    1   AR   Ar  166   3.019   3.812   5.320
    1   AR   Ar  167   6.190   6.878   3.831
    1   AR   Ar  168   5.796   4.687  -2.316
    1   AR   Ar  169   3.808   3.715   3.529
    1   AR   Ar  170   2.996   3.002   6.038
    1   AR   Ar  171   4.681   5.485   4.243
    1   AR   Ar  172   4.035   3.273   4.832
    1   AR   Ar  173   2.211   1.832   6.898
    1   AR   Ar  174   2.835   6.122   4.390
    1   AR   Ar  175   2.553   0.324   6.553
    1   AR   Ar  176   3.146   3.030   4.217
    1   AR   Ar  177   0.277   4.227  -0.649
    1   AR   Ar  178   2.139   6.405   0.557
    1   AR   Ar  179   3.465   6.440   0.816
    1   AR   Ar  180   5.056   0.232  -7.585
    1   AR   Ar  181   0.092   6.521   1.874
    1   AR   Ar  182   1.149   6.563   2.795
    1   AR   Ar  183   4.859   5.362   1.397
    1   AR   Ar  184   4.499   5.441   0.455
    1   AR   Ar  185   3.193   4.382   4.276
    1   AR   Ar  186   3.148   6.779   2.898
    1   AR   Ar  187   3.918   6.538   3.809
    1   AR   Ar  188   3.113   1.035   1.548
    1   AR   Ar  189   5.902   2.304   5.402
    1   AR   Ar  190   1.256   6.994   4.048
    1   AR   Ar  191   3.821   6.370   6.296
    1   AR   Ar  192   3.995   3.590   6.311
    1   AR   Ar  193   3.243   6.145   2.048
    1   AR   Ar  194   5.059   6.278  -0.603
    1   AR   Ar  195   6.551   1.031   1.091
    1   AR   Ar  196   4.194   0.049   0.277
    1   AR   Ar  197   4.860   3.129   0.448
    1   AR   Ar  198   6.237   6.856   1.276
    1   AR   Ar  199   0.417   0.387   2.267
    1   AR   Ar  200   6.319   2.640  -0.121
    1   AR   Ar  201   6.434   5.728   2.395
    1   AR   Ar  202   5.231   0.541   4.559
    1   AR   Ar  203   0.338   6.986   3.410
    1   AR   Ar  204   4.444   4.475   7.486
    1   AR   Ar  205   5.809   1.603   1.701
    1   AR   Ar  206   6.482   0.310   5.725
    1   AR   Ar  207   7.043   3.535   4.750
    1   AR   Ar  208   0.686   6.094   3.848
    1   AR   Ar  209   6.620   2.162  -1.779
    1   AR   Ar  210   2.273   0.881  -0.588
    1   AR   Ar  211   6.905   3.102   0.625
    1   AR   Ar  212   6.329   3.803  -0.170
    1   AR   Ar  213   3.510   1.802   1.100
    1   AR   Ar  214   5.204   4.233   1.976
    1   AR   Ar  215   0.536   2.483   2.022
    1   AR   Ar  216   1.591   2.249  -0.293
    1   AR   Ar  217   5.411   1.954   3.964
    1   AR   Ar  218   5.193   2.710   4.849
    1   AR   Ar  219   4.169   3.930   2.478
    1   AR   Ar  220   4.385   4.367   1.224
    1   AR   Ar  221   6.533   5.834   3.891
    1   AR   Ar  222   5.361   0.073   5.751
    1   AR   Ar  223   7.061   1.794   5.621
    1   AR   Ar  224   5.145   1.548   5.191
    1   AR   Ar  225   6.639   2.072   2.391
    1   AR   Ar  226   2.308   3.769   4.052
    1   AR   Ar  227   1.105   2.900   3.177
    1   AR   Ar  228   6.253   0.779   2.354
    1   AR   Ar  229   6.174   4.492  -0.906
    1   AR   Ar  230   4.074   4.843   3.668
    1   AR   Ar  231   4.950   2.188   2.628
    1   AR   Ar  232   5.267   2.924   1.713
    1   AR   Ar  233   6.607   2.031   3.573
    1   AR   Ar  234   6.172   2.593   4.425
    1   AR   Ar  235   6.171   0.869   3.841
    1   AR   Ar  236   3.957   4.383   5.153
    1   AR   Ar  237   4.422   0.379   7.688
    1   AR   Ar  238   4.596   5.146   6.580
    1   AR   Ar  239   1.204   4.296  11.234
    1   AR   Ar  240   1.874   3.320   6.620
    1   AR   Ar  241   1.391   0.088   0.609
    1   AR   Ar  242   5.491   6.084   1.733
    1   AR   Ar  243   4.585   6.547   2.185
    1   AR   Ar  244   6.492   6.080   0.444
    1   AR   Ar  245   3.276   0.909   3.628
    1   AR   Ar  246   5.394   0.072  -1.215
    1   AR   Ar  247   0.012   3.831   1.640
    1   AR   Ar  248   5.688   5.417  -0.144
    1   AR   Ar  249   3.671   6.974   1.720
    1   AR   Ar  250   5.167   6.654   3.971
    1   AR   Ar  251   4.993   4.374   4.809
    1   AR   Ar  252   2.997   5.259   2.536
    1   AR   Ar  253   4.388   2.496   8.598
    1   AR   Ar  254   4.789   3.430  12.080
    1   AR   Ar  255   4.578   0.061   8.803
    1   AR   Ar  256   5.639   5.723   3.440
    7.12000  7.12000 12.00000
Argon-slab step 5315
  256
    1   AR   Ar    1   4.228   3.246  -2.921
    1   AR   Ar    2   5.288   6.405   0.448
    1   AR   Ar    3   3.967   3.574  -0.870
    1   AR   Ar    4   2.412   1.176   0.412
    1   AR   Ar    5   6.934   5.124  -0.520
    1   AR   Ar    6   1.044   1.291   2.272
    1   AR   Ar    7   5.931   4.459   3.143
    1   AR   Ar    8   6.506   3.532  -1.301
    1   AR   Ar    9   7.052   6.208   4.717
    1   AR   Ar   10   6.192   4.860   5.301
    1   AR   Ar   11   1.138   6.916   5.179
    1   AR   Ar   12   0.044   1.728   4.339
    1   AR   Ar   13   0.398   0.286   4.736
    1   AR   Ar   14   3.645   0.592   6.953
    1   AR   Ar   15   2.381   6.219   9.700
    1   AR   Ar   16   0.359   0.133   5.923
    1   AR   Ar   17   6.058   3.713   1.161
    1   AR   Ar   18   0.386   4.666  -1.677
    1   AR   Ar   19   5.717   4.805   0.620
    1   AR   Ar   20   6.519   3.685  -2.774
    1   AR   Ar   21   2.135   1.356   1.797
    1   AR   Ar   22   5.258   0.480   1.778
    1   AR   Ar   23   0.968   6.037   0.890
    1   AR   Ar   24   5.902   2.802   3.244
    1   AR   Ar   25   1.047   2.864   5.090
    1   AR   Ar   26   5.629   5.965   4.639
    1   AR   Ar   27   1.383   0.536   1.692
    1   AR   Ar   28   2.222   2.715   3.657
    1   AR   Ar   29   5.318   1.429   7.994
    1   AR   Ar   30   0.008   1.228   2.982
    1   AR   Ar   31   1.398   0.383   6.653
    1   AR   Ar   32   0.933   1.830   5.528
    1   AR   Ar   33   6.817   4.690   0.875
    1   AR   Ar   34   1.636   5.162   2.394
    1   AR   Ar   35   4.953   5.623   2.653
    1   AR   Ar   36   4.932   2.378  -3.259
    1   AR   Ar   37   3.978   3.254   1.451
    1   AR   Ar   38   5.730   4.971   4.306
    1   AR   Ar   39   0.483   2.684   4.024
    1   AR   Ar   40   0.899   4.336   2.247
    1   AR   Ar   41   0.858   1.687   3.490
    1   AR   Ar   42   5.201   5.205   5.679
    1   AR   Ar   43   0.012   2.937   5.954
    1   AR   Ar   44   0.415   3.690   3.189
    1   AR   Ar   45   1.507   3.934   5.313
    1   AR   Ar   46   6.136   4.827   6.742
    1   AR   Ar   47   3.162   3.680   6.879
    1   AR   Ar   48   6.938   3.451   7.498
    1   AR   Ar   49   0.424   0.980   1.066
    1   AR   Ar   50   3.144   4.160  -0.194
    1   AR   Ar   51   5.345   3.520   2.747
    1   AR   Ar   52   5.361   4.060  -1.406
    1   AR   Ar   53   4.239   0.463   3.403
    1   AR   Ar   54   6.583   7.040   2.769
    1   AR   Ar   55   7.011   4.838   2.050
    1   AR   Ar   56   5.852   1.595   3.005
    1   AR   Ar   57   3.924   4.975   2.126
    1   AR   Ar   58   1.240   3.531   3.921
    1   AR   Ar   59   2.628   5.809   5.509
    1   AR   Ar   60   0.216   5.394   2.975
    1   AR   Ar   61   0.010   4.247   6.263
    1   AR   Ar   62   0.020   4.421   5.213
    1   AR   Ar   63   2.972   3.083   7.841
    1   AR   Ar   64   0.385   5.177   4.608
    1   AR   Ar   65   4.058   0.640   2.215
    1   AR   Ar   66   1.342   1.563   0.999
    1   AR   Ar   67   4.469   0.352  -0.797
    1   AR   Ar   68   6.811   1.069  -0.463
    1   AR   Ar   69   2.894   2.031  -0.102
    1   AR   Ar   70   7.087   1.238   2.010
    1   AR   Ar   71   2.874   0.756   2.578
    1   AR   Ar   72   4.296   1.085   1.216
    1   AR   Ar   73   3.037   0.036   4.088
    1   AR   Ar   74   1.170   0.545   3.296
    1   AR   Ar   75   2.746   0.623   5.440
    1   AR   Ar   76   2.389   0.219   1.398
    1   AR   Ar   77   1.308   5.704   5.271
    1   AR   Ar   78   0.015   5.579   5.647
    1   AR   Ar   79   3.215   6.703   5.285
    1   AR   Ar   80   3.706   5.228   6.015
    1   AR   Ar   81   2.066   6.425   1.765
    1   AR   Ar   82   6.866   5.550   1.300
    1   AR   Ar   83   0.780   3.284   1.238
    1   AR   Ar   84   0.896   4.598   1.063
    1   AR   Ar   85   0.675   3.257  -0.098
    1   AR   Ar   86   1.740   5.345   0.942
    1   AR   Ar   87   3.579   2.921   2.832
    1   AR   Ar   88   3.505   5.336   1.167
    1   AR   Ar   89   6.304   2.309   1.245
    1   AR   Ar   90   3.563   1.440   6.110
    1   AR   Ar   91   1.972   1.141   2.943
    1   AR   Ar   92   2.441   2.331   1.239
    1   AR   Ar   93   1.459   0.717   5.480
    1   AR   Ar   94   0.140   6.640   8.493
    1   AR   Ar   95   4.802   0.959   6.011
    1   AR   Ar   96   2.196   6.902   4.786
    1   AR   Ar   97   3.516   1.882  -1.290
    1   AR   Ar   98   1.707   4.636   4.132
    1   AR   Ar   99   6.524   6.971  -0.222
    1   AR   Ar  100   5.577   3.365  -2.120
    1   AR   Ar  101   3.906   5.945   2.835
    1   AR   Ar  102   3.350   1.606   2.488
    1   AR   Ar  103   2.072   4.157   1.144
    1   AR   Ar  104   3.235   0.234  -1.375
    1   AR   Ar  105   2.617   2.329   2.561
    1   AR   Ar  106   4.229   1.318   4.056
    1   AR   Ar  107   0.970   4.778   5.339
    1   AR   Ar  108   2.161   0.657   3.825
    1   AR   Ar  109   2.500   4.735   5.150
    1   AR   Ar  110   2.157   2.251   4.610
    1   AR   Ar  111   3.611   4.714   6.876
    1   AR   Ar  112   6.246   6.312   5.714
    1   AR   Ar  113   0.030   5.745  -1.382
    1   AR   Ar  114   2.844   6.810  -0.087
    1   AR   Ar  115   0.686   5.121   0.215
    1   AR   Ar  116   5.032   0.614   0.667
    1   AR   Ar  117   6.899   4.437   3.492
    1   AR   Ar  118   2.318   6.603   3.723
    1   AR   Ar  119   1.686   3.681   2.747
    1   AR   Ar  120   2.047   0.074   2.787
    1   AR   Ar  121   5.284   4.161   5.820
    1   AR   Ar  122   2.906   5.472   3.595
    1   AR   Ar  123   3.653   2.011   5.022
    1   AR   Ar  124   0.779   5.447   1.704
    1   AR   Ar  125   6.037   3.519   3.999
    1   AR   Ar  126   6.900   0.512   7.727
    1   AR   Ar  127   4.968   2.936   5.825
    1   AR   Ar  128   0.845   3.504   6.148
    1   AR   Ar  129   1.964   5.627   4.408
    1   AR   Ar  130   4.144   0.632  -5.159
    1   AR   Ar  131   3.851   6.757  -0.636
    1   AR   Ar  132   1.288   2.491   0.833
    1   AR   Ar  133   3.978   0.491   4.661
    1   AR   Ar  134   2.730   1.572   4.142
    1   AR   Ar  135   6.273   6.973   4.799
    1   AR   Ar  136   5.396   6.655   2.688
    1   AR   Ar  137   2.364   4.231   6.281
    1   AR   Ar  138   5.804   1.434   5.925
    1   AR   Ar  139   6.210   1.597   4.711
    1   AR   Ar  140   4.417   6.785   5.227
    1   AR   Ar  141   3.629   5.355   4.680
    1   AR   Ar  142   5.040   6.281   8.113
    1   AR   Ar  143   5.567   6.871   6.805
    1   AR   Ar  144   7.047   2.551   5.030
    1   AR   Ar  145   5.052   5.012  -1.227
    1   AR   Ar  146   3.484   2.126   3.644
    1   AR   Ar  147   5.335   3.935  -0.101
    1   AR   Ar  148   2.983   6.142  -0.889
    1   AR   Ar  149   0.296   2.454  -0.665
    1   AR   Ar  150   1.717   2.438   1.999
    1   AR   Ar  151   2.661   3.534   2.477
    1   AR   Ar  152   0.929   0.883  -1.210
    1   AR   Ar  153   5.295   0.745   3.203
    1   AR   Ar  154   4.639   2.754   3.922
    1   AR   Ar  155   6.155   3.328   5.587
    1   AR   Ar  156   3.209   4.407   3.003
    1   AR   Ar  157   3.106   5.760   6.747
    1   AR   Ar  158   0.658   2.747   6.911
    1   AR   Ar  159   3.653   0.231   5.946
    1   AR   Ar  160   1.304   1.185   4.391
    1   AR   Ar  161   4.932   4.556   3.069
    1   AR   Ar  162   4.061   5.607  -0.567
    1   AR   Ar  163   6.232   4.062   2.297
    1   AR   Ar  164   2.337   6.043   2.778
    1   AR   Ar  165   3.325   4.242   0.900
    1   AR   Ar  166   2.992   3.829   5.294
    1   AR   Ar  167   6.181   6.880   3.847
    1   AR   Ar  168   5.765   4.674  -2.331
    1   AR   Ar  169   3.819   3.718   3.534
    1   AR   Ar  170   3.009   2.966   6.024
    1   AR   Ar  171   4.673   5.492   4.238
    1   AR   Ar  172   4.037   3.249   4.828
    1   AR   Ar  173   2.167   1.831   6.925
    1   AR   Ar  174   2.855   6.119   4.396
    1   AR   Ar  175   2.559   0.293   6.615
    1   AR   Ar  176   3.152   3.006   4.243
    1   AR   Ar  177   0.271   4.246  -0.682
    1   AR   Ar  178   2.161   6.395   0.559
    1   AR   Ar  179   3.471   6.406   0.796
    1   AR   Ar  180   5.078   0.206  -7.559
    1   AR   Ar  181   0.079   6.492   1.886
    1   AR   Ar  182   1.155   6.554   2.818
    1   AR   Ar  183   4.875   5.382   1.378
    1   AR   Ar  184   4.502   5.461   0.461
    1   AR   Ar  185   3.228   4.386   4.250
    1   AR   Ar  186   3.151   6.773   2.925
    1   AR   Ar  187   3.884   6.565   3.784
    1   AR   Ar  188   3.115   1.043   1.547
    1   AR   Ar  189   5.928   2.310   5.400
    1   AR   Ar  190   1.242   7.026   4.055
    1   AR   Ar  191   3.824   6.331   6.268
    1   AR   Ar  192   3.990   3.610   6.326
    1   AR   Ar  193   3.246   6.145   2.051
    1   AR   Ar  194   5.066   6.267  -0.571
    1   AR   Ar  195   6.531   1.044   1.112
    1   AR   Ar  196   4.220   0.021   0.271
    1   AR   Ar  197   4.864   3.136   0.427
    1   AR   Ar  198   6.252   6.864   1.280
    1   AR   Ar  199   0.430   0.391   2.228
    1   AR   Ar  200   6.320   2.636  -0.105
    1   AR   Ar  201   6.437   5.747   2.395
    1   AR   Ar  202   5.229   0.531   4.577
    1   AR   Ar  203   0.329   6.982   3.419
    1   AR   Ar  204   4.474   4.456   7.472
    1   AR   Ar  205   5.768   1.621   1.709
    1   AR   Ar  206   6.471   0.299   5.674
    1   AR   Ar  207   7.012   3.509   4.724
    1   AR   Ar  208   0.672   6.085   3.823
    1   AR   Ar  209   6.570   2.137  -1.788
    1   AR   Ar  210   2.293   0.881  -0.611
    1   AR   Ar  211   6.929   3.074   0.622
    1   AR   Ar  212   6.346   3.803  -0.182
    1   AR   Ar  213   3.506   1.785   1.086
    1   AR   Ar  214   5.176   4.238   1.974
    1   AR   Ar  215   0.518   2.525   2.057
    1   AR   Ar  216   1.622   2.239  -0.310
    1   AR   Ar  217   5.381   1.951   3.977
    1   AR   Ar  218   5.191   2.695   4.840
    1   AR   Ar  219   4.177   3.948   2.492
    1   AR   Ar  220   4.368   4.402   1.238
    1   AR   Ar  221   6.558   5.834   3.904
    1   AR   Ar  222   5.313   0.040   5.755
    1   AR   Ar  223   7.064   1.817   5.588
    1   AR   Ar  224   5.120   1.574   5.189
    1   AR   Ar  225   6.630   2.097   2.393
    1   AR   Ar  226   2.269   3.761   4.043
    1   AR   Ar  227   1.112   2.904   3.186
    1   AR   Ar  228   6.244   0.765   2.418
    1   AR   Ar  229   6.164   4.497  -0.924
    1   AR   Ar  230   4.110   4.882   3.637
    1   AR   Ar  231   4.943   2.195   2.623
    1   AR   Ar  232   5.251   2.943   1.728
    1   AR   Ar  233   6.588   2.031   3.566
    1   AR   Ar  234   6.143   2.635   4.402
    1   AR   Ar  235   6.187   0.887   3.861
    1   AR   Ar  236   3.946   4.395   5.140
    1   AR   Ar  237   4.430   0.413   7.704
    1   AR   Ar  238   4.551   5.153   6.573
    1   AR   Ar  239   1.212   4.286  11.229
    1   AR   Ar  240   1.853   3.325   6.616
    1   AR   Ar  241   1.387   0.087   0.594
    1   AR   Ar  242   5.508   6.125   1.709
    1   AR   Ar  243   4.580   6.534   2.182
    1   AR   Ar  244   6.466   6.099   0.431
    1   AR   Ar  245   3.275   0.894   3.631
    1   AR   Ar  246   5.353   0.025  -1.209
    1   AR   Ar  247   0.033   3.836   1.630
    1   AR   Ar  248   5.701   5.435  -0.144
    1   AR   Ar  249   3.656   6.977   1.711
    1   AR   Ar  250   5.178   6.647   3.943
    1   AR   Ar  251   5.015   4.374   4.867
    1   AR   Ar  252   3.012   5.268   2.526
    1   AR   Ar  253   4.409   2.491   8.602
    1   AR   Ar  254   4.791   3.463  12.073
    1   AR   Ar  255   4.590   0.073   8.759
    1   AR   Ar  256   5.605   5.750   3.423
    7.12000  7.12000 12.00000
Argon-slab step 5320
  256
    1   AR   Ar    1   4.207   3.249  -2.929
    1   AR   Ar    2   5.282   6.382   0.463
    1   AR   Ar    3   3.976   3.564  -0.842
    1   AR   Ar    4   2.415   1.184   0.405
    1   AR   Ar    5   6.952   5.132  -0.513
    1   AR   Ar    6   1.042   1.281   2.254
    1   AR   Ar    7   5.930   4.503   3.169
    1   AR   Ar    8   6.530   3.557  -1.300
    1   AR   Ar    9   7.079   6.209   4.687
    1   AR   Ar   10   6.177   4.850   5.336
    1   AR   Ar   11   1.143   6.894   5.187
    1   AR   Ar   12   0.048   1.734   4.345
    1   AR   Ar   13   0.427   0.277   4.736
    1   AR   Ar   14   3.629   0.587   6.934
    1   AR   Ar   15   2.410   6.212   9.662
    1   AR   Ar   16   0.395   0.128   5.919
    1   AR   Ar   17   6.056   3.673   1.136
    1   AR   Ar   18   0.360   4.663  -1.697
    1   AR   Ar   19   5.700   4.804   0.621
    1   AR   Ar   20   6.506   3.686  -2.761
    1   AR   Ar   21   2.139   1.352   1.821
    1   AR   Ar   22   5.263   0.456   1.759
    1   AR   Ar   23   0.968   6.022   0.902
    1   AR   Ar   24   5.879   2.798   3.239
    1   AR   Ar   25   1.045   2.858   5.066
    1   AR   Ar   26   5.660   5.978   4.608
    1   AR   Ar   27   1.356   0.511   1.701
    1   AR   Ar   28   2.257   2.710   3.652
    1   AR   Ar   29   5.349   1.421   7.999
    1   AR   Ar   30   0.019   1.226   3.014
    1   AR   Ar   31   1.376   0.370   6.678
    1   AR   Ar   32   0.917   1.841   5.531
    1   AR   Ar   33   6.795   4.667   0.885
    1   AR   Ar   34   1.643   5.147   2.419
    1   AR   Ar   35   4.923   5.605   2.643
    1   AR   Ar   36   4.923   2.393  -3.248
    1   AR   Ar   37   3.979   3.301   1.435
    1   AR   Ar   38   5.701   4.987   4.325
    1   AR   Ar   39   0.496   2.697   4.032
    1   AR   Ar   40   0.898   4.318   2.239
    1   AR   Ar   41   0.836   1.694   3.466
    1   AR   Ar   42   5.198   5.227   5.659
    1   AR   Ar   43   7.105   2.927   5.947
    1   AR   Ar   44   0.476   3.685   3.163
    1   AR   Ar   45   1.494   3.917   5.326
    1   AR   Ar   46   6.162   4.813   6.753
    1   AR   Ar   47   3.182   3.666   6.891
    1   AR   Ar   48   6.932   3.421   7.497
    1   AR   Ar   49   0.440   0.996   1.057
    1   AR   Ar   50   3.147   4.127  -0.237
    1   AR   Ar   51   5.352   3.534   2.750
    1   AR   Ar   52   5.349   4.073  -1.403
    1   AR   Ar   53   4.195   0.487   3.412
    1   AR   Ar   54   6.552   7.039   2.766
    1   AR   Ar   55   7.025   4.826   2.027
    1   AR   Ar   56   5.877   1.575   3.028
    1   AR   Ar   57   3.909   4.992   2.100
    1   AR   Ar   58   1.247   3.540   3.944
    1   AR   Ar   59   2.658   5.841   5.490
    1   AR   Ar   60   0.224   5.365   2.952
    1   AR   Ar   61   0.010   4.267   6.286
    1   AR   Ar   62   7.117   4.451   5.228
    1   AR   Ar   63   2.954   3.060   7.802
    1   AR   Ar   64   0.433   5.146   4.588
    1   AR   Ar   65   4.048   0.641   2.238
    1   AR   Ar   66   1.338   1.552   1.058
    1   AR   Ar   67   4.472   0.380  -0.811
    1   AR   Ar   68   6.787   1.027  -0.419
    1   AR   Ar   69   2.908   2.052  -0.050
    1   AR   Ar   70   7.089   1.240   1.998
    1   AR   Ar   71   2.876   0.769   2.607
    1   AR   Ar   72   4.266   1.094   1.230
    1   AR   Ar   73   3.044   0.028   4.100
    1   AR   Ar   74   1.197   0.558   3.293
    1   AR   Ar   75   2.737   0.632   5.442
    1   AR   Ar   76   2.380   0.233   1.403
    1   AR   Ar   77   1.280   5.721   5.274
    1   AR   Ar   78   0.027   5.602   5.643
    1   AR   Ar   79   3.239   6.699   5.297
    1   AR   Ar   80   3.697   5.210   6.011
    1   AR   Ar   81   2.096   6.438   1.799
    1   AR   Ar   82   6.878   5.551   1.316
    1   AR   Ar   83   0.771   3.286   1.279
    1   AR   Ar   84   0.873   4.590   1.048
    1   AR   Ar   85   0.693   3.225  -0.063
    1   AR   Ar   86   1.745   5.305   0.941
    1   AR   Ar   87   3.584   2.919   2.841
    1   AR   Ar   88   3.489   5.348   1.151
    1   AR   Ar   89   6.268   2.298   1.249
    1   AR   Ar   90   3.577   1.451   6.120
    1   AR   Ar   91   1.965   1.130   2.948
    1   AR   Ar   92   2.418   2.335   1.282
    1   AR   Ar   93   1.456   0.724   5.492
    1   AR   Ar   94   0.120   6.633   8.511
    1   AR   Ar   95   4.849   0.970   6.030
    1   AR   Ar   96   2.191   6.899   4.780
    1   AR   Ar   97   3.555   1.866  -1.314
    1   AR   Ar   98   1.685   4.611   4.133
    1   AR   Ar   99   6.540   6.963  -0.239
    1   AR   Ar  100   5.563   3.362  -2.167
    1   AR   Ar  101   3.902   5.982   2.862
    1   AR   Ar  102   3.367   1.592   2.508
    1   AR   Ar  103   2.041   4.163   1.176
    1   AR   Ar  104   3.261   0.246  -1.342
    1   AR   Ar  105   2.613   2.335   2.556
    1   AR   Ar  106   4.266   1.305   4.031
    1   AR   Ar  107   0.961   4.803   5.322
    1   AR   Ar  108   2.175   0.653   3.819
    1   AR   Ar  109   2.454   4.775   5.149
    1   AR   Ar  110   2.137   2.233   4.603
    1   AR   Ar  111   3.635   4.685   6.847
    1   AR   Ar  112   6.280   6.302   5.710
    1   AR   Ar  113   0.011   5.756  -1.411
    1   AR   Ar  114   2.847   6.792  -0.076
    1   AR   Ar  115   0.705   5.090   0.223
    1   AR   Ar  116   5.035   0.617   0.700
    1   AR   Ar  117   6.904   4.399   3.468
    1   AR   Ar  118   2.313   6.601   3.721
    1   AR   Ar  119   1.683   3.633   2.755
    1   AR   Ar  120   2.049   0.072   2.814
    1   AR   Ar  121   5.271   4.154   5.832
    1   AR   Ar  122   2.892   5.511   3.623
    1   AR   Ar  123   3.674   2.011   4.990
    1   AR   Ar  124   0.768   5.434   1.714
    1   AR   Ar  125   6.038   3.520   3.985
    1   AR   Ar  126   6.916   0.488   7.721
    1   AR   Ar  127   4.986   2.960   5.814
    1   AR   Ar  128   0.840   3.498   6.143
    1   AR   Ar  129   1.970   5.589   4.444
    1   AR   Ar  130   4.179   0.643  -5.153
    1   AR   Ar  131   3.839   6.737  -0.625
    1   AR   Ar  132   1.268   2.521   0.835
    1   AR   Ar  133   3.974   0.512   4.678
    1   AR   Ar  134   2.738   1.558   4.144
    1   AR   Ar  135   6.291   6.982   4.826
    1   AR   Ar  136   5.415   6.648   2.649
    1   AR   Ar  137   2.344   4.262   6.263
    1   AR   Ar  138   5.827   1.405   5.911
    1   AR   Ar  139   6.234   1.606   4.699
    1   AR   Ar  140   4.440   6.777   5.221
    1   AR   Ar  141   3.647   5.376   4.695
    1   AR   Ar  142   5.019   6.298   8.100
    1   AR   Ar  143   5.556   6.859   6.810
    1   AR   Ar  144   7.046   2.564   5.000
    1   AR   Ar  145   5.032   5.000  -1.225
    1   AR   Ar  146   3.467   2.100   3.683
    1   AR   Ar  147   5.324   3.936  -0.093
    1   AR   Ar  148   2.939   6.136  -0.880
    1   AR   Ar  149   0.310   2.461  -0.662
    1   AR   Ar  150   1.747   2.418   2.006
    1   AR   Ar  151   2.697   3.554   2.441
    1   AR   Ar  152   0.945   0.888  -1.188
    1   AR   Ar  153   5.278   0.688   3.188
    1   AR   Ar  154   4.667   2.789   3.888
    1   AR   Ar  155   6.155   3.319   5.586
    1   AR   Ar  156   3.214   4.397   3.005
    1   AR   Ar  157   3.100   5.763   6.759
    1   AR   Ar  158   0.655   2.754   6.899
    1   AR   Ar  159   3.650   0.223   5.942
    1   AR   Ar  160   1.286   1.166   4.403
    1   AR   Ar  161   4.927   4.556   3.051
    1   AR   Ar  162   4.060   5.590  -0.578
    1   AR   Ar  163   6.216   4.027   2.291
    1   AR   Ar  164   2.328   6.047   2.781
    1   AR   Ar  165   3.332   4.281   0.902
    1   AR   Ar  166   2.968   3.842   5.269
    1   AR   Ar  167   6.176   6.880   3.842
    1   AR   Ar  168   5.734   4.659  -2.344
    1   AR   Ar  169   3.832   3.719   3.542
    1   AR   Ar  170   2.998   2.927   6.024
    1   AR   Ar  171   4.668   5.503   4.236
    1   AR   Ar  172   4.040   3.225   4.825
    1   AR   Ar  173   2.124   1.831   6.950
    1   AR   Ar  174   2.889   6.116   4.413
    1   AR   Ar  175   2.567   0.264   6.675
    1   AR   Ar  176   3.155   2.982   4.268
    1   AR   Ar  177   0.267   4.255  -0.714
    1   AR   Ar  178   2.179   6.381   0.566
    1   AR   Ar  179   3.477   6.372   0.776
    1   AR   Ar  180   5.100   0.179  -7.532
    1   AR   Ar  181   0.066   6.461   1.898
    1   AR   Ar  182   1.160   6.545   2.842
    1   AR   Ar  183   4.893   5.398   1.369
    1   AR   Ar  184   4.502   5.482   0.457
    1   AR   Ar  185   3.262   4.389   4.223
    1   AR   Ar  186   3.153   6.770   2.954
    1   AR   Ar  187   3.862   6.576   3.776
    1   AR   Ar  188   3.113   1.035   1.555
    1   AR   Ar  189   5.962   2.319   5.404
    1   AR   Ar  190   1.232   7.052   4.070
    1   AR   Ar  191   3.831   6.294   6.236
    1   AR   Ar  192   3.985   3.618   6.331
    1   AR   Ar  193   3.243   6.140   2.051
    1   AR   Ar  194   5.070   6.256  -0.541
    1   AR   Ar  195   6.502   1.057   1.133
    1   AR   Ar  196   4.246   7.113   0.267
    1   AR   Ar  197   4.867   3.142   0.409
    1   AR   Ar  198   6.268   6.873   1.284
    1   AR   Ar  199   0.446   0.385   2.193
    1   AR   Ar  200   6.319   2.631  -0.092
    1   AR   Ar  201   6.439   5.767   2.396
    1   AR   Ar  202   5.227   0.521   4.595
    1   AR   Ar  203   0.317   6.981   3.426
    1   AR   Ar  204   4.505   4.436   7.458
    1   AR   Ar  205   5.722   1.630   1.725
    1   AR   Ar  206   6.457   0.295   5.630
    1   AR   Ar  207   6.979   3.485   4.693
    1   AR   Ar  208   0.659   6.073   3.801
    1   AR   Ar  209   6.520   2.113  -1.796
    1   AR   Ar  210   2.291   0.877  -0.634
    1   AR   Ar  211   6.955   3.049   0.622
    1   AR   Ar  212   6.372   3.800  -0.190
    1   AR   Ar  213   3.507   1.785   1.062
    1   AR   Ar  214   5.147   4.245   1.971
    1   AR   Ar  215   0.501   2.567   2.093
    1   AR   Ar  216   1.653   2.228  -0.325
    1   AR   Ar  217   5.352   1.946   3.991
    1   AR   Ar  218   5.181   2.682   4.826
    1   AR   Ar  219   4.185   3.966   2.507
    1   AR   Ar  220   4.350   4.436   1.253
    1   AR   Ar  221   6.582   5.832   3.912
    1   AR   Ar  222   5.268   0.005   5.757
    1   AR   Ar  223   7.055   1.812   5.575
    1   AR   Ar  224   5.091   1.601   5.178
    1   AR   Ar  225   6.618   2.124   2.397
    1   AR   Ar  226   2.235   3.750   4.035
    1   AR   Ar  227   1.120   2.894   3.183
    1   AR   Ar  228   6.228   0.763   2.477
    1   AR   Ar  229   6.155   4.508  -0.942
    1   AR   Ar  230   4.138   4.918   3.603
    1   AR   Ar  231   4.938   2.204   2.620
    1   AR   Ar  232   5.236   2.964   1.743
    1   AR   Ar  233   6.571   2.034   3.557
    1   AR   Ar  234   6.119   2.665   4.381
    1   AR   Ar  235   6.204   0.907   3.881
    1   AR   Ar  236   3.935   4.406   5.128
    1   AR   Ar  237   4.439   0.447   7.721
    1   AR   Ar  238   4.513   5.160   6.570
    1   AR   Ar  239   1.220   4.276  11.224
    1   AR   Ar  240   1.837   3.343   6.618
    1   AR   Ar  241   1.414   0.069   0.599
    1   AR   Ar  242   5.528   6.169   1.687
    1   AR   Ar  243   4.561   6.522   2.169
    1   AR   Ar  244   6.438   6.117   0.419
    1   AR   Ar  245   3.279   0.882   3.626
    1   AR   Ar  246   5.317   7.096  -1.205
    1   AR   Ar  247   0.064   3.819   1.623
    1   AR   Ar  248   5.713   5.460  -0.153
    1   AR   Ar  249   3.642   6.986   1.697
    1   AR   Ar  250   5.179   6.642   3.915
    1   AR   Ar  251   5.034   4.377   4.918
    1   AR   Ar  252   3.022   5.280   2.515
    1   AR   Ar  253   4.430   2.486   8.606
    1   AR   Ar  254   4.793   3.496  12.065
    1   AR   Ar  255   4.602   0.083   8.716
    1   AR   Ar  256   5.573   5.776   3.412
    7.12000  7.12000 12.00000
Argon-slab step 5325
  256
    1   AR   Ar    1   4.187   3.251  -2.937
    1   AR   Ar    2   5.278   6.359   0.483
    1   AR   Ar    3   3.986   3.554  -0.815
    1   AR   Ar    4   2.417   1.192   0.401
    1   AR   Ar    5   6.965   5.147  -0.503
    1   AR   Ar    6   1.040   1.269   2.275
    1   AR   Ar    7   5.929   4.550   3.200
    1   AR   Ar    8   6.541   3.556  -1.286
    1   AR   Ar    9   7.099   6.194   4.690
    1   AR   Ar   10   6.158   4.842   5.372
    1   AR   Ar   11   1.155   6.861   5.198
    1   AR   Ar   12   0.062   1.736   4.351
    1   AR   Ar   13   0.446   0.274   4.732
    1   AR   Ar   14   3.612   0.584   6.916
    1   AR   Ar   15   2.439   6.206   9.625
    1   AR   Ar   16   0.451   0.110   5.917
    1   AR   Ar   17   6.055   3.635   1.112
    1   AR   Ar   18   0.323   4.657  -1.721
    1   AR   Ar   19   5.681   4.798   0.628
    1   AR   Ar   20   6.492   3.688  -2.745
    1   AR   Ar   21   2.141   1.349   1.847
    1   AR   Ar   22   5.267   0.428   1.738
    1   AR   Ar   23   0.968   6.013   0.910
    1   AR   Ar   24   5.857   2.786   3.235
    1   AR   Ar   25   1.042   2.854   5.042
    1   AR   Ar   26   5.688   5.985   4.581
    1   AR   Ar   27   1.337   0.493   1.677
    1   AR   Ar   28   2.292   2.705   3.644
    1   AR   Ar   29   5.379   1.413   8.005
    1   AR   Ar   30   0.027   1.221   3.051
    1   AR   Ar   31   1.355   0.357   6.701
    1   AR   Ar   32   0.913   1.852   5.533
    1   AR   Ar   33   6.774   4.632   0.890
    1   AR   Ar   34   1.649   5.131   2.450
    1   AR   Ar   35   4.924   5.585   2.635
    1   AR   Ar   36   4.914   2.409  -3.238
    1   AR   Ar   37   3.982   3.350   1.419
    1   AR   Ar   38   5.674   5.000   4.341
    1   AR   Ar   39   0.507   2.709   4.040
    1   AR   Ar   40   0.897   4.299   2.230
    1   AR   Ar   41   0.818   1.703   3.444
    1   AR   Ar   42   5.215   5.242   5.642
    1   AR   Ar   43   7.077   2.917   5.946
    1   AR   Ar   44   0.537   3.681   3.134
    1   AR   Ar   45   1.484   3.896   5.338
    1   AR   Ar   46   6.189   4.797   6.761
    1   AR   Ar   47   3.190   3.653   6.910
    1   AR   Ar   48   6.927   3.391   7.494
    1   AR   Ar   49   0.466   1.013   1.048
    1   AR   Ar   50   3.159   4.106  -0.258
    1   AR   Ar   51   5.354   3.550   2.753
    1   AR   Ar   52   5.337   4.075  -1.401
    1   AR   Ar   53   4.179   0.491   3.410
    1   AR   Ar   54   6.529   7.018   2.768
    1   AR   Ar   55   7.040   4.810   2.008
    1   AR   Ar   56   5.893   1.555   3.047
    1   AR   Ar   57   3.901   5.008   2.075
    1   AR   Ar   58   1.249   3.553   3.973
    1   AR   Ar   59   2.687   5.870   5.471
    1   AR   Ar   60   0.233   5.337   2.929
    1   AR   Ar   61   0.010   4.286   6.310
    1   AR   Ar   62   7.092   4.476   5.242
    1   AR   Ar   63   2.936   3.036   7.763
    1   AR   Ar   64   0.473   5.126   4.553
    1   AR   Ar   65   4.038   0.646   2.265
    1   AR   Ar   66   1.338   1.532   1.120
    1   AR   Ar   67   4.474   0.417  -0.823
    1   AR   Ar   68   6.763   0.985  -0.374
    1   AR   Ar   69   2.922   2.074   0.003
    1   AR   Ar   70   7.080   1.227   1.962
    1   AR   Ar   71   2.874   0.763   2.635
    1   AR   Ar   72   4.236   1.101   1.248
    1   AR   Ar   73   3.047   0.021   4.146
    1   AR   Ar   74   1.216   0.574   3.284
    1   AR   Ar   75   2.727   0.640   5.443
    1   AR   Ar   76   2.372   0.250   1.407
    1   AR   Ar   77   1.255   5.708   5.297
    1   AR   Ar   78   0.040   5.623   5.637
    1   AR   Ar   79   3.262   6.692   5.301
    1   AR   Ar   80   3.680   5.198   5.989
    1   AR   Ar   81   2.125   6.448   1.834
    1   AR   Ar   82   6.890   5.561   1.337
    1   AR   Ar   83   0.771   3.278   1.316
    1   AR   Ar   84   0.852   4.573   1.045
    1   AR   Ar   85   0.714   3.197  -0.024
    1   AR   Ar   86   1.751   5.263   0.942
    1   AR   Ar   87   3.589   2.917   2.849
    1   AR   Ar   88   3.467   5.369   1.138
    1   AR   Ar   89   6.239   2.296   1.248
    1   AR   Ar   90   3.571   1.464   6.127
    1   AR   Ar   91   1.959   1.129   2.946
    1   AR   Ar   92   2.402   2.335   1.316
    1   AR   Ar   93   1.454   0.733   5.505
    1   AR   Ar   94   0.100   6.627   8.529
    1   AR   Ar   95   4.873   0.968   6.009
    1   AR   Ar   96   2.175   6.906   4.801
    1   AR   Ar   97   3.594   1.849  -1.337
    1   AR   Ar   98   1.660   4.588   4.136
    1   AR   Ar   99   6.557   6.956  -0.258
    1   AR   Ar  100   5.551   3.359  -2.215
    1   AR   Ar  101   3.900   6.015   2.890
    1   AR   Ar  102   3.396   1.590   2.526
    1   AR   Ar  103   2.008   4.171   1.208
    1   AR   Ar  104   3.287   0.258  -1.307
    1   AR   Ar  105   2.611   2.343   2.554
    1   AR   Ar  106   4.305   1.299   4.008
    1   AR   Ar  107   0.957   4.812   5.319
    1   AR   Ar  108   2.190   0.644   3.819
    1   AR   Ar  109   2.436   4.788   5.147
    1   AR   Ar  110   2.113   2.219   4.602
    1   AR   Ar  111   3.652   4.647   6.828
    1   AR   Ar  112   6.313   6.292   5.705
    1   AR   Ar  113   7.111   5.744  -1.431
    1   AR   Ar  114   2.856   6.780  -0.066
    1   AR   Ar  115   0.720   5.067   0.222
    1   AR   Ar  116   5.042   0.618   0.730
    1   AR   Ar  117   6.911   4.363   3.447
    1   AR   Ar  118   2.275   6.582   3.711
    1   AR   Ar  119   1.679   3.589   2.763
    1   AR   Ar  120   2.054   0.067   2.840
    1   AR   Ar  121   5.262   4.142   5.859
    1   AR   Ar  122   2.879   5.544   3.643
    1   AR   Ar  123   3.695   2.012   4.957
    1   AR   Ar  124   0.758   5.419   1.730
    1   AR   Ar  125   6.033   3.537   3.988
    1   AR   Ar  126   6.931   0.463   7.715
    1   AR   Ar  127   5.004   2.987   5.805
    1   AR   Ar  128   0.832   3.503   6.142
    1   AR   Ar  129   1.985   5.575   4.483
    1   AR   Ar  130   4.215   0.655  -5.147
    1   AR   Ar  131   3.822   6.708  -0.615
    1   AR   Ar  132   1.251   2.557   0.832
    1   AR   Ar  133   3.968   0.531   4.695
    1   AR   Ar  134   2.742   1.541   4.150
    1   AR   Ar  135   6.304   6.977   4.834
    1   AR   Ar  136   5.445   6.644   2.618
    1   AR   Ar  137   2.327   4.292   6.244
    1   AR   Ar  138   5.854   1.372   5.899
    1   AR   Ar  139   6.250   1.613   4.688
    1   AR   Ar  140   4.458   6.767   5.214
    1   AR   Ar  141   3.664   5.398   4.711
    1   AR   Ar  142   4.997   6.316   8.086
    1   AR   Ar  143   5.543   6.839   6.796
    1   AR   Ar  144   7.044   2.581   4.956
    1   AR   Ar  145   5.011   4.999  -1.219
    1   AR   Ar  146   3.456   2.077   3.717
    1   AR   Ar  147   5.319   3.956  -0.073
    1   AR   Ar  148   2.897   6.128  -0.875
    1   AR   Ar  149   0.323   2.465  -0.660
    1   AR   Ar  150   1.763   2.399   2.019
    1   AR   Ar  151   2.713   3.578   2.417
    1   AR   Ar  152   0.962   0.894  -1.165
    1   AR   Ar  153   5.262   0.629   3.173
    1   AR   Ar  154   4.693   2.824   3.852
    1   AR   Ar  155   6.154   3.314   5.584
    1   AR   Ar  156   3.219   4.385   3.010
    1   AR   Ar  157   3.093   5.764   6.771
    1   AR   Ar  158   0.651   2.760   6.888
    1   AR   Ar  159   3.650   0.222   5.940
    1   AR   Ar  160   1.281   1.156   4.404
    1   AR   Ar  161   4.920   4.555   3.030
    1   AR   Ar  162   4.060   5.575  -0.589
    1   AR   Ar  163   6.202   3.990   2.280
    1   AR   Ar  164   2.318   6.051   2.786
    1   AR   Ar  165   3.313   4.314   0.897
    1   AR   Ar  166   2.945   3.853   5.243
    1   AR   Ar  167   6.174   6.879   3.826
    1   AR   Ar  168   5.703   4.642  -2.356
    1   AR   Ar  169   3.847   3.720   3.553
    1   AR   Ar  170   2.986   2.888   6.023
    1   AR   Ar  171   4.669   5.519   4.238
    1   AR   Ar  172   4.025   3.225   4.803
    1   AR   Ar  173   2.081   1.831   6.976
    1   AR   Ar  174   2.929   6.116   4.442
    1   AR   Ar  175   2.575   0.235   6.733
    1   AR   Ar  176   3.148   2.999   4.252
    1   AR   Ar  177   0.265   4.255  -0.745
    1   AR   Ar  178   2.193   6.365   0.579
    1   AR   Ar  179   3.483   6.339   0.755
    1   AR   Ar  180   5.121   0.152  -7.506
    1   AR   Ar  181   0.053   6.463   1.887
    1   AR   Ar  182   1.166   6.536   2.866
    1   AR   Ar  183   4.911   5.410   1.368
    1   AR   Ar  184   4.499   5.505   0.444
    1   AR   Ar  185   3.295   4.393   4.196
    1   AR   Ar  186   3.153   6.770   2.985
    1   AR   Ar  187   3.846   6.582   3.774
    1   AR   Ar  188   3.110   1.035   1.563
    1   AR   Ar  189   5.998   2.327   5.412
    1   AR   Ar  190   1.225   7.072   4.092
    1   AR   Ar  191   3.840   6.259   6.200
    1   AR   Ar  192   3.991   3.627   6.327
    1   AR   Ar  193   3.236   6.134   2.046
    1   AR   Ar  194   5.070   6.244  -0.515
    1   AR   Ar  195   6.469   1.070   1.153
    1   AR   Ar  196   4.259   7.099   0.286
    1   AR   Ar  197   4.868   3.143   0.376
    1   AR   Ar  198   6.284   6.882   1.289
    1   AR   Ar  199   0.461   0.369   2.164
    1   AR   Ar  200   6.318   2.626  -0.081
    1   AR   Ar  201   6.441   5.787   2.396
    1   AR   Ar  202   5.226   0.511   4.613
    1   AR   Ar  203   0.303   6.984   3.433
    1   AR   Ar  204   4.536   4.415   7.443
    1   AR   Ar  205   5.676   1.634   1.741
    1   AR   Ar  206   6.448   0.307   5.615
    1   AR   Ar  207   6.945   3.474   4.656
    1   AR   Ar  208   0.647   6.056   3.780
    1   AR   Ar  209   6.470   2.090  -1.803
    1   AR   Ar  210   2.257   0.867  -0.654
    1   AR   Ar  211   6.983   3.027   0.627
    1   AR   Ar  212   6.402   3.793  -0.195
    1   AR   Ar  213   3.509   1.799   1.031
    1   AR   Ar  214   5.113   4.248   1.971
    1   AR   Ar  215   0.485   2.608   2.128
    1   AR   Ar  216   1.684   2.217  -0.339
    1   AR   Ar  217   5.326   1.939   4.004
    1   AR   Ar  218   5.166   2.670   4.808
    1   AR   Ar  219   4.193   3.983   2.520
    1   AR   Ar  220   4.333   4.470   1.266
    1   AR   Ar  221   6.602   5.825   3.913
    1   AR   Ar  222   5.228   7.092   5.759
    1   AR   Ar  223   7.031   1.788   5.575
    1   AR   Ar  224   5.061   1.630   5.161
    1   AR   Ar  225   6.605   2.151   2.401
    1   AR   Ar  226   2.213   3.736   4.028
    1   AR   Ar  227   1.128   2.867   3.174
    1   AR   Ar  228   6.203   0.777   2.527
    1   AR   Ar  229   6.149   4.525  -0.960
    1   AR   Ar  230   4.156   4.952   3.567
    1   AR   Ar  231   4.934   2.214   2.617
    1   AR   Ar  232   5.221   2.985   1.758
    1   AR   Ar  233   6.560   2.043   3.552
    1   AR   Ar  234   6.103   2.674   4.367
    1   AR   Ar  235   6.221   0.925   3.899
    1   AR   Ar  236   3.924   4.416   5.117
    1   AR   Ar  237   4.448   0.481   7.735
    1   AR   Ar  238   4.487   5.168   6.571
    1   AR   Ar  239   1.228   4.266  11.219
    1   AR   Ar  240   1.822   3.360   6.621
    1   AR   Ar  241   1.441   0.053   0.605
    1   AR   Ar  242   5.551   6.215   1.665
    1   AR   Ar  243   4.531   6.509   2.150
    1   AR   Ar  244   6.426   6.108   0.417
    1   AR   Ar  245   3.283   0.874   3.615
    1   AR   Ar  246   5.286   7.044  -1.203
    1   AR   Ar  247   0.074   3.822   1.622
    1   AR   Ar  248   5.725   5.488  -0.168
    1   AR   Ar  249   3.629   7.001   1.677
    1   AR   Ar  250   5.165   6.644   3.899
    1   AR   Ar  251   5.049   4.383   4.954
    1   AR   Ar  252   3.025   5.290   2.508
    1   AR   Ar  253   4.451   2.480   8.610
    1   AR   Ar  254   4.785   3.526  12.069
    1   AR   Ar  255   4.615   0.093   8.674
    1   AR   Ar  256   5.546   5.802   3.405
    7.12000  7.12000 12.00000
Argon-slab step 5330
  256
    1   AR   Ar    1   4.167   3.254  -2.945
    1   AR   Ar    2   5.275   6.337   0.510
    1   AR   Ar    3   3.995   3.544  -0.786
    1   AR   Ar    4   2.422   1.188   0.415
    1   AR   Ar    5   6.973   5.169  -0.490
    1   AR   Ar    6   1.040   1.255   2.322
    1   AR   Ar    7   5.923   4.613   3.224
    1   AR   Ar    8   6.543   3.539  -1.263
    1   AR   Ar    9   0.006   6.185   4.701
    1   AR   Ar   10   6.135   4.836   5.409
    1   AR   Ar   11   1.173   6.820   5.212
    1   AR   Ar   12   0.088   1.734   4.354
    1   AR   Ar   13   0.455   0.277   4.725
    1   AR   Ar   14   3.597   0.582   6.901
    1   AR   Ar   15   2.462   6.196   9.593
    1   AR   Ar   16   0.450   0.109   5.939
    1   AR   Ar   17   6.055   3.596   1.087
    1   AR   Ar   18   0.284   4.653  -1.746
    1   AR   Ar   19   5.663   4.789   0.638
    1   AR   Ar   20   6.478   3.691  -2.729
    1   AR   Ar   21   2.142   1.346   1.875
    1   AR   Ar   22   5.272   0.398   1.721
    1   AR   Ar   23   0.967   6.007   0.914
    1   AR   Ar   24   5.835   2.769   3.231
    1   AR   Ar   25   1.038   2.850   5.017
    1   AR   Ar   26   5.695   5.957   4.561
    1   AR   Ar   27   1.326   0.473   1.646
    1   AR   Ar   28   2.326   2.699   3.633
    1   AR   Ar   29   5.409   1.404   8.010
    1   AR   Ar   30   0.027   1.211   3.086
    1   AR   Ar   31   1.334   0.345   6.721
    1   AR   Ar   32   0.918   1.863   5.533
    1   AR   Ar   33   6.753   4.592   0.893
    1   AR   Ar   34   1.655   5.116   2.481
    1   AR   Ar   35   4.939   5.540   2.643
    1   AR   Ar   36   4.905   2.425  -3.227
    1   AR   Ar   37   3.985   3.400   1.405
    1   AR   Ar   38   5.648   5.007   4.352
    1   AR   Ar   39   0.518   2.722   4.049
    1   AR   Ar   40   0.896   4.281   2.220
    1   AR   Ar   41   0.806   1.716   3.425
    1   AR   Ar   42   5.243   5.253   5.626
    1   AR   Ar   43   7.049   2.905   5.947
    1   AR   Ar   44   0.595   3.682   3.103
    1   AR   Ar   45   1.477   3.873   5.348
    1   AR   Ar   46   6.216   4.781   6.767
    1   AR   Ar   47   3.155   3.630   6.886
    1   AR   Ar   48   6.922   3.360   7.489
    1   AR   Ar   49   0.494   1.028   1.035
    1   AR   Ar   50   3.187   4.099  -0.264
    1   AR   Ar   51   5.352   3.568   2.756
    1   AR   Ar   52   5.326   4.065  -1.403
    1   AR   Ar   53   4.216   0.472   3.406
    1   AR   Ar   54   6.512   6.982   2.773
    1   AR   Ar   55   7.053   4.790   1.994
    1   AR   Ar   56   5.893   1.539   3.063
    1   AR   Ar   57   3.899   5.024   2.050
    1   AR   Ar   58   1.240   3.565   4.004
    1   AR   Ar   59   2.712   5.893   5.454
    1   AR   Ar   60   0.241   5.309   2.906
    1   AR   Ar   61   0.009   4.304   6.335
    1   AR   Ar   62   7.070   4.495   5.256
    1   AR   Ar   63   2.917   3.011   7.724
    1   AR   Ar   64   0.504   5.115   4.502
    1   AR   Ar   65   4.029   0.653   2.296
    1   AR   Ar   66   1.345   1.513   1.185
    1   AR   Ar   67   4.472   0.458  -0.833
    1   AR   Ar   68   6.739   0.943  -0.328
    1   AR   Ar   69   2.935   2.096   0.057
    1   AR   Ar   70   7.070   1.222   1.930
    1   AR   Ar   71   2.868   0.745   2.661
    1   AR   Ar   72   4.209   1.104   1.268
    1   AR   Ar   73   3.051   0.016   4.197
    1   AR   Ar   74   1.223   0.589   3.273
    1   AR   Ar   75   2.717   0.647   5.444
    1   AR   Ar   76   2.365   0.270   1.409
    1   AR   Ar   77   1.237   5.719   5.319
    1   AR   Ar   78   0.056   5.640   5.630
    1   AR   Ar   79   3.286   6.685   5.296
    1   AR   Ar   80   3.653   5.190   5.951
    1   AR   Ar   81   2.153   6.456   1.868
    1   AR   Ar   82   6.900   5.580   1.354
    1   AR   Ar   83   0.779   3.285   1.329
    1   AR   Ar   84   0.832   4.547   1.057
    1   AR   Ar   85   0.736   3.171   0.017
    1   AR   Ar   86   1.758   5.220   0.943
    1   AR   Ar   87   3.593   2.914   2.857
    1   AR   Ar   88   3.446   5.388   1.128
    1   AR   Ar   89   6.217   2.302   1.242
    1   AR   Ar   90   3.534   1.481   6.131
    1   AR   Ar   91   1.955   1.143   2.937
    1   AR   Ar   92   2.401   2.332   1.334
    1   AR   Ar   93   1.451   0.743   5.517
    1   AR   Ar   94   0.080   6.622   8.546
    1   AR   Ar   95   4.893   0.965   5.987
    1   AR   Ar   96   2.154   6.909   4.829
    1   AR   Ar   97   3.632   1.833  -1.360
    1   AR   Ar   98   1.631   4.570   4.141
    1   AR   Ar   99   6.573   6.951  -0.276
    1   AR   Ar  100   5.540   3.356  -2.264
    1   AR   Ar  101   3.898   6.042   2.918
    1   AR   Ar  102   3.431   1.598   2.544
    1   AR   Ar  103   1.975   4.180   1.240
    1   AR   Ar  104   3.313   0.270  -1.272
    1   AR   Ar  105   2.615   2.352   2.556
    1   AR   Ar  106   4.345   1.301   3.989
    1   AR   Ar  107   0.958   4.796   5.331
    1   AR   Ar  108   2.205   0.630   3.823
    1   AR   Ar  109   2.424   4.795   5.144
    1   AR   Ar  110   2.084   2.208   4.604
    1   AR   Ar  111   3.663   4.603   6.816
    1   AR   Ar  112   6.344   6.282   5.699
    1   AR   Ar  113   7.091   5.732  -1.450
    1   AR   Ar  114   2.869   6.775  -0.057
    1   AR   Ar  115   0.733   5.051   0.208
    1   AR   Ar  116   5.051   0.618   0.757
    1   AR   Ar  117   6.921   4.329   3.428
    1   AR   Ar  118   2.232   6.563   3.701
    1   AR   Ar  119   1.679   3.552   2.767
    1   AR   Ar  120   2.060   0.059   2.863
    1   AR   Ar  121   5.258   4.125   5.903
    1   AR   Ar  122   2.866   5.570   3.653
    1   AR   Ar  123   3.716   2.013   4.922
    1   AR   Ar  124   0.751   5.403   1.752
    1   AR   Ar  125   6.039   3.562   3.984
    1   AR   Ar  126   6.947   0.438   7.710
    1   AR   Ar  127   5.022   3.014   5.798
    1   AR   Ar  128   0.824   3.510   6.140
    1   AR   Ar  129   2.001   5.563   4.522
    1   AR   Ar  130   4.251   0.666  -5.141
    1   AR   Ar  131   3.804   6.675  -0.604
    1   AR   Ar  132   1.240   2.587   0.824
    1   AR   Ar  133   3.961   0.549   4.712
    1   AR   Ar  134   2.738   1.521   4.162
    1   AR   Ar  135   6.310   6.953   4.812
    1   AR   Ar  136   5.480   6.643   2.594
    1   AR   Ar  137   2.311   4.323   6.222
    1   AR   Ar  138   5.884   1.338   5.885
    1   AR   Ar  139   6.257   1.619   4.682
    1   AR   Ar  140   4.468   6.754   5.201
    1   AR   Ar  141   3.683   5.404   4.725
    1   AR   Ar  142   4.975   6.335   8.072
    1   AR   Ar  143   5.529   6.818   6.781
    1   AR   Ar  144   7.043   2.584   4.912
    1   AR   Ar  145   5.015   4.975  -1.212
    1   AR   Ar  146   3.467   2.076   3.727
    1   AR   Ar  147   5.315   3.981  -0.057
    1   AR   Ar  148   2.857   6.118  -0.872
    1   AR   Ar  149   0.332   2.467  -0.660
    1   AR   Ar  150   1.755   2.381   2.042
    1   AR   Ar  151   2.715   3.603   2.401
    1   AR   Ar  152   0.978   0.899  -1.141
    1   AR   Ar  153   5.278   0.594   3.195
    1   AR   Ar  154   4.717   2.861   3.814
    1   AR   Ar  155   6.159   3.308   5.575
    1   AR   Ar  156   3.225   4.372   3.016
    1   AR   Ar  157   3.084   5.764   6.783
    1   AR   Ar  158   0.647   2.765   6.877
    1   AR   Ar  159   3.644   0.228   5.944
    1   AR   Ar  160   1.297   1.160   4.386
    1   AR   Ar  161   4.914   4.553   3.007
    1   AR   Ar  162   4.060   5.560  -0.600
    1   AR   Ar  163   6.192   3.955   2.267
    1   AR   Ar  164   2.307   6.055   2.792
    1   AR   Ar  165   3.293   4.347   0.891
    1   AR   Ar  166   2.923   3.861   5.216
    1   AR   Ar  167   6.175   6.879   3.803
    1   AR   Ar  168   5.673   4.624  -2.366
    1   AR   Ar  169   3.865   3.718   3.565
    1   AR   Ar  170   2.975   2.852   6.022
    1   AR   Ar  171   4.675   5.540   4.244
    1   AR   Ar  172   4.008   3.233   4.777
    1   AR   Ar  173   2.038   1.831   7.000
    1   AR   Ar  174   2.970   6.124   4.479
    1   AR   Ar  175   2.583   0.206   6.789
    1   AR   Ar  176   3.137   3.026   4.226
    1   AR   Ar  177   0.264   4.247  -0.773
    1   AR   Ar  178   2.205   6.351   0.598
    1   AR   Ar  179   3.489   6.310   0.732
    1   AR   Ar  180   5.143   0.125  -7.479
    1   AR   Ar  181   0.039   6.487   1.861
    1   AR   Ar  182   1.172   6.528   2.890
    1   AR   Ar  183   4.931   5.420   1.375
    1   AR   Ar  184   4.493   5.529   0.425
    1   AR   Ar  185   3.327   4.398   4.170
    1   AR   Ar  186   3.150   6.774   3.014
    1   AR   Ar  187   3.835   6.586   3.776
    1   AR   Ar  188   3.109   1.028   1.576
    1   AR   Ar  189   6.034   2.332   5.421
    1   AR   Ar  190   1.222   7.086   4.117
    1   AR   Ar  191   3.851   6.226   6.162
    1   AR   Ar  192   4.006   3.636   6.316
    1   AR   Ar  193   3.228   6.133   2.036
    1   AR   Ar  194   5.065   6.232  -0.494
    1   AR   Ar  195   6.435   1.070   1.172
    1   AR   Ar  196   4.262   7.095   0.320
    1   AR   Ar  197   4.866   3.139   0.334
    1   AR   Ar  198   6.301   6.893   1.293
    1   AR   Ar  199   0.456   0.354   2.136
    1   AR   Ar  200   6.314   2.622  -0.072
    1   AR   Ar  201   6.443   5.800   2.403
    1   AR   Ar  202   5.224   0.500   4.631
    1   AR   Ar  203   0.287   6.991   3.439
    1   AR   Ar  204   4.568   4.395   7.428
    1   AR   Ar  205   5.651   1.648   1.734
    1   AR   Ar  206   6.445   0.339   5.634
    1   AR   Ar  207   6.908   3.485   4.613
    1   AR   Ar  208   0.636   6.037   3.760
    1   AR   Ar  209   6.420   2.068  -1.810
    1   AR   Ar  210   2.223   0.857  -0.674
    1   AR   Ar  211   7.011   3.007   0.635
    1   AR   Ar  212   6.434   3.786  -0.197
    1   AR   Ar  213   3.508   1.822   0.994
    1   AR   Ar  214   5.075   4.244   1.975
    1   AR   Ar  215   0.470   2.649   2.165
    1   AR   Ar  216   1.714   2.205  -0.351
    1   AR   Ar  217   5.302   1.930   4.016
    1   AR   Ar  218   5.146   2.660   4.790
    1   AR   Ar  219   4.197   3.998   2.531
    1   AR   Ar  220   4.306   4.470   1.269
    1   AR   Ar  221   6.617   5.814   3.905
    1   AR   Ar  222   5.198   7.061   5.764
    1   AR   Ar  223   6.997   1.756   5.581
    1   AR   Ar  224   5.032   1.658   5.142
    1   AR   Ar  225   6.591   2.178   2.406
    1   AR   Ar  226   2.209   3.720   4.021
    1   AR   Ar  227   1.137   2.824   3.165
    1   AR   Ar  228   6.177   0.797   2.565
    1   AR   Ar  229   6.146   4.546  -0.975
    1   AR   Ar  230   4.164   4.984   3.530
    1   AR   Ar  231   4.932   2.224   2.615
    1   AR   Ar  232   5.207   3.007   1.773
    1   AR   Ar  233   6.551   2.051   3.557
    1   AR   Ar  234   6.093   2.660   4.361
    1   AR   Ar  235   6.238   0.942   3.913
    1   AR   Ar  236   3.918   4.417   5.100
    1   AR   Ar  237   4.457   0.518   7.743
    1   AR   Ar  238   4.475   5.179   6.575
    1   AR   Ar  239   1.235   4.257  11.214
    1   AR   Ar  240   1.808   3.376   6.623
    1   AR   Ar  241   1.469   0.037   0.613
    1   AR   Ar  242   5.573   6.259   1.642
    1   AR   Ar  243   4.496   6.497   2.127
    1   AR   Ar  244   6.454   6.082   0.452
    1   AR   Ar  245   3.285   0.871   3.600
    1   AR   Ar  246   5.260   6.991  -1.204
    1   AR   Ar  247   0.039   3.836   1.627
    1   AR   Ar  248   5.739   5.515  -0.185
    1   AR   Ar  249   3.616   7.019   1.653
    1   AR   Ar  250   5.143   6.650   3.883
    1   AR   Ar  251   5.059   4.392   4.973
    1   AR   Ar  252   3.021   5.293   2.508
    1   AR   Ar  253   4.471   2.474   8.613
    1   AR   Ar  254   4.771   3.556  12.081
    1   AR   Ar  255   4.629   0.100   8.636
    1   AR   Ar  256   5.525   5.826   3.404
    7.12000  7.12000 12.00000
Argon-slab step 5335
  256
    1   AR   Ar    1   4.148   3.256  -2.953
    1   AR   Ar    2   5.274   6.315   0.543
    1   AR   Ar    3   3.999   3.505  -0.766
    1   AR   Ar    4   2.434   1.169   0.453
    1   AR   Ar    5   6.979   5.193  -0.475
    1   AR   Ar    6   1.038   1.245   2.371
    1   AR   Ar    7   5.918   4.677   3.248
    1   AR   Ar    8   6.545   3.522  -1.241
    1   AR   Ar    9   0.036   6.180   4.716
    1   AR   Ar   10   6.111   4.829   5.445
    1   AR   Ar   11   1.191   6.776   5.227
    1   AR   Ar   12   0.122   1.728   4.353
    1   AR   Ar   13   0.439   0.254   4.741
    1   AR   Ar   14   3.583   0.583   6.891
    1   AR   Ar   15   2.456   6.172   9.586
    1   AR   Ar   16   0.449   0.108   5.960
    1   AR   Ar   17   6.056   3.558   1.063
    1   AR   Ar   18   0.243   4.649  -1.773
    1   AR   Ar   19   5.643   4.781   0.650
    1   AR   Ar   20   6.472   3.680  -2.725
    1   AR   Ar   21   2.142   1.342   1.905
    1   AR   Ar   22   5.280   0.366   1.713
    1   AR   Ar   23   0.967   6.003   0.917
    1   AR   Ar   24   5.815   2.779   3.217
    1   AR   Ar   25   1.034   2.848   4.992
    1   AR   Ar   26   5.705   5.944   4.545
    1   AR   Ar   27   1.323   0.452   1.611
    1   AR   Ar   28   2.358   2.692   3.618
    1   AR   Ar   29   5.438   1.394   8.015
    1   AR   Ar   30   0.017   1.194   3.116
    1   AR   Ar   31   1.314   0.332   6.740
    1   AR   Ar   32   0.926   1.874   5.532
    1   AR   Ar   33   6.750   4.566   0.938
    1   AR   Ar   34   1.661   5.102   2.512
    1   AR   Ar   35   4.948   5.496   2.642
    1   AR   Ar   36   4.896   2.443  -3.215
    1   AR   Ar   37   3.989   3.452   1.391
    1   AR   Ar   38   5.624   5.001   4.357
    1   AR   Ar   39   0.527   2.734   4.056
    1   AR   Ar   40   0.896   4.264   2.209
    1   AR   Ar   41   0.804   1.735   3.410
    1   AR   Ar   42   5.263   5.268   5.613
    1   AR   Ar   43   7.025   2.892   5.950
    1   AR   Ar   44   0.651   3.687   3.072
    1   AR   Ar   45   1.473   3.848   5.357
    1   AR   Ar   46   6.222   4.775   6.770
    1   AR   Ar   47   3.114   3.608   6.862
    1   AR   Ar   48   6.918   3.330   7.483
    1   AR   Ar   49   0.514   1.037   1.021
    1   AR   Ar   50   3.170   4.094  -0.267
    1   AR   Ar   51   5.346   3.586   2.762
    1   AR   Ar   52   5.316   4.041  -1.408
    1   AR   Ar   53   4.273   0.453   3.413
    1   AR   Ar   54   6.499   6.938   2.777
    1   AR   Ar   55   7.062   4.769   1.985
    1   AR   Ar   56   5.872   1.538   3.085
    1   AR   Ar   57   3.902   5.041   2.029
    1   AR   Ar   58   1.218   3.574   4.036
    1   AR   Ar   59   2.730   5.905   5.442
    1   AR   Ar   60   0.250   5.282   2.884
    1   AR   Ar   61   0.009   4.322   6.359
    1   AR   Ar   62   7.052   4.510   5.267
    1   AR   Ar   63   2.898   2.985   7.686
    1   AR   Ar   64   0.530   5.109   4.441
    1   AR   Ar   65   4.019   0.661   2.327
    1   AR   Ar   66   1.361   1.500   1.251
    1   AR   Ar   67   4.466   0.499  -0.840
    1   AR   Ar   68   6.716   0.901  -0.282
    1   AR   Ar   69   2.943   2.108   0.097
    1   AR   Ar   70   7.061   1.224   1.907
    1   AR   Ar   71   2.864   0.719   2.681
    1   AR   Ar   72   4.183   1.103   1.292
    1   AR   Ar   73   3.053   0.015   4.250
    1   AR   Ar   74   1.216   0.599   3.264
    1   AR   Ar   75   2.748   0.644   5.465
    1   AR   Ar   76   2.359   0.291   1.409
    1   AR   Ar   77   1.222   5.745   5.340
    1   AR   Ar   78   0.066   5.650   5.610
    1   AR   Ar   79   3.313   6.683   5.284
    1   AR   Ar   80   3.622   5.182   5.904
    1   AR   Ar   81   2.179   6.465   1.896
    1   AR   Ar   82   6.907   5.603   1.366
    1   AR   Ar   83   0.792   3.300   1.338
    1   AR   Ar   84   0.809   4.521   1.070
    1   AR   Ar   85   0.761   3.149   0.059
    1   AR   Ar   86   1.763   5.179   0.945
    1   AR   Ar   87   3.596   2.910   2.866
    1   AR   Ar   88   3.425   5.401   1.121
    1   AR   Ar   89   6.201   2.315   1.231
    1   AR   Ar   90   3.498   1.497   6.134
    1   AR   Ar   91   1.958   1.170   2.923
    1   AR   Ar   92   2.412   2.327   1.338
    1   AR   Ar   93   1.448   0.753   5.528
    1   AR   Ar   94   0.060   6.617   8.563
    1   AR   Ar   95   4.910   0.960   5.967
    1   AR   Ar   96   2.137   6.913   4.856
    1   AR   Ar   97   3.671   1.815  -1.382
    1   AR   Ar   98   1.625   4.626   4.172
    1   AR   Ar   99   6.588   6.944  -0.294
    1   AR   Ar  100   5.528   3.354  -2.311
    1   AR   Ar  101   3.899   6.061   2.940
    1   AR   Ar  102   3.470   1.609   2.562
    1   AR   Ar  103   1.941   4.187   1.274
    1   AR   Ar  104   3.338   0.283  -1.235
    1   AR   Ar  105   2.626   2.360   2.563
    1   AR   Ar  106   4.386   1.309   3.974
    1   AR   Ar  107   0.960   4.762   5.353
    1   AR   Ar  108   2.220   0.612   3.830
    1   AR   Ar  109   2.412   4.804   5.141
    1   AR   Ar  110   2.052   2.200   4.607
    1   AR   Ar  111   3.669   4.553   6.807
    1   AR   Ar  112   6.372   6.274   5.691
    1   AR   Ar  113   7.071   5.719  -1.469
    1   AR   Ar  114   2.885   6.776  -0.049
    1   AR   Ar  115   0.744   5.042   0.186
    1   AR   Ar  116   5.059   0.620   0.777
    1   AR   Ar  117   6.932   4.296   3.410
    1   AR   Ar  118   2.189   6.544   3.697
    1   AR   Ar  119   1.684   3.523   2.769
    1   AR   Ar  120   2.068   0.050   2.882
    1   AR   Ar  121   5.258   4.106   5.959
    1   AR   Ar  122   2.854   5.591   3.654
    1   AR   Ar  123   3.737   2.013   4.886
    1   AR   Ar  124   0.748   5.386   1.778
    1   AR   Ar  125   6.042   3.602   3.973
    1   AR   Ar  126   6.925   0.468   7.717
    1   AR   Ar  127   5.041   3.043   5.791
    1   AR   Ar  128   0.816   3.520   6.134
    1   AR   Ar  129   2.018   5.554   4.559
    1   AR   Ar  130   4.287   0.678  -5.135
    1   AR   Ar  131   3.789   6.641  -0.593
    1   AR   Ar  132   1.243   2.606   0.816
    1   AR   Ar  133   3.953   0.564   4.729
    1   AR   Ar  134   2.729   1.499   4.179
    1   AR   Ar  135   6.314   6.921   4.781
    1   AR   Ar  136   5.515   6.644   2.576
    1   AR   Ar  137   2.296   4.352   6.199
    1   AR   Ar  138   5.917   1.305   5.869
    1   AR   Ar  139   6.258   1.626   4.680
    1   AR   Ar  140   4.455   6.758   5.206
    1   AR   Ar  141   3.661   5.376   4.758
    1   AR   Ar  142   4.954   6.354   8.057
    1   AR   Ar  143   5.516   6.797   6.767
    1   AR   Ar  144   7.042   2.573   4.878
    1   AR   Ar  145   5.016   4.964  -1.201
    1   AR   Ar  146   3.494   2.092   3.720
    1   AR   Ar  147   5.315   4.011  -0.044
    1   AR   Ar  148   2.817   6.106  -0.872
    1   AR   Ar  149   0.338   2.479  -0.664
    1   AR   Ar  150   1.724   2.365   2.076
    1   AR   Ar  151   2.718   3.626   2.385
    1   AR   Ar  152   0.996   0.905  -1.117
    1   AR   Ar  153   5.304   0.565   3.226
    1   AR   Ar  154   4.740   2.899   3.773
    1   AR   Ar  155   6.184   3.277   5.548
    1   AR   Ar  156   3.231   4.360   3.023
    1   AR   Ar  157   3.075   5.761   6.795
    1   AR   Ar  158   0.642   2.769   6.867
    1   AR   Ar  159   3.637   0.261   5.920
    1   AR   Ar  160   1.312   1.163   4.368
    1   AR   Ar  161   4.912   4.549   2.984
    1   AR   Ar  162   4.061   5.547  -0.610
    1   AR   Ar  163   6.185   3.921   2.251
    1   AR   Ar  164   2.296   6.056   2.801
    1   AR   Ar  165   3.272   4.377   0.886
    1   AR   Ar  166   2.891   3.866   5.210
    1   AR   Ar  167   6.177   6.878   3.774
    1   AR   Ar  168   5.643   4.603  -2.374
    1   AR   Ar  169   3.887   3.713   3.579
    1   AR   Ar  170   2.965   2.817   6.021
    1   AR   Ar  171   4.684   5.564   4.252
    1   AR   Ar  172   3.995   3.242   4.751
    1   AR   Ar  173   1.995   1.832   7.025
    1   AR   Ar  174   3.008   6.137   4.514
    1   AR   Ar  175   2.589   0.176   6.843
    1   AR   Ar  176   3.125   3.055   4.199
    1   AR   Ar  177   0.261   4.233  -0.799
    1   AR   Ar  178   2.221   6.359   0.614
    1   AR   Ar  179   3.496   6.289   0.707
    1   AR   Ar  180   5.164   0.098  -7.453
    1   AR   Ar  181   0.027   6.512   1.837
    1   AR   Ar  182   1.178   6.520   2.915
    1   AR   Ar  183   4.952   5.429   1.385
    1   AR   Ar  184   4.486   5.553   0.404
    1   AR   Ar  185   3.355   4.405   4.145
    1   AR   Ar  186   3.141   6.782   3.041
    1   AR   Ar  187   3.828   6.591   3.787
    1   AR   Ar  188   3.110   1.020   1.590
    1   AR   Ar  189   6.068   2.328   5.430
    1   AR   Ar  190   1.225   7.097   4.140
    1   AR   Ar  191   3.864   6.195   6.123
    1   AR   Ar  192   4.027   3.646   6.299
    1   AR   Ar  193   3.222   6.139   2.021
    1   AR   Ar  194   5.053   6.220  -0.476
    1   AR   Ar  195   6.403   1.049   1.188
    1   AR   Ar  196   4.265   7.090   0.354
    1   AR   Ar  197   4.862   3.132   0.295
    1   AR   Ar  198   6.321   6.908   1.296
    1   AR   Ar  199   0.421   0.349   2.106
    1   AR   Ar  200   6.311   2.617  -0.064
    1   AR   Ar  201   6.451   5.778   2.435
    1   AR   Ar  202   5.223   0.489   4.648
    1   AR   Ar  203   0.271   7.002   3.446
    1   AR   Ar  204   4.567   4.406   7.415
    1   AR   Ar  205   5.620   1.656   1.734
    1   AR   Ar  206   6.444   0.375   5.664
    1   AR   Ar  207   6.871   3.513   4.566
    1   AR   Ar  208   0.626   6.015   3.743
    1   AR   Ar  209   6.370   2.046  -1.817
    1   AR   Ar  210   2.190   0.848  -0.694
    1   AR   Ar  211   7.039   2.989   0.648
    1   AR   Ar  212   6.467   3.780  -0.198
    1   AR   Ar  213   3.504   1.850   0.956
    1   AR   Ar  214   5.035   4.238   1.965
    1   AR   Ar  215   0.456   2.689   2.204
    1   AR   Ar  216   1.744   2.193  -0.361
    1   AR   Ar  217   5.281   1.918   4.027
    1   AR   Ar  218   5.124   2.652   4.775
    1   AR   Ar  219   4.195   4.009   2.540
    1   AR   Ar  220   4.280   4.468   1.268
    1   AR   Ar  221   6.627   5.800   3.891
    1   AR   Ar  222   5.181   7.034   5.776
    1   AR   Ar  223   6.958   1.723   5.586
    1   AR   Ar  224   5.005   1.685   5.121
    1   AR   Ar  225   6.581   2.196   2.416
    1   AR   Ar  226   2.221   3.703   4.014
    1   AR   Ar  227   1.146   2.765   3.159
    1   AR   Ar  228   6.158   0.803   2.585
    1   AR   Ar  229   6.146   4.570  -0.988
    1   AR   Ar  230   4.161   5.017   3.493
    1   AR   Ar  231   4.932   2.234   2.613
    1   AR   Ar  232   5.194   3.030   1.789
    1   AR   Ar  233   6.552   2.063   3.570
    1   AR   Ar  234   6.088   2.635   4.358
    1   AR   Ar  235   6.254   0.954   3.922
    1   AR   Ar  236   3.913   4.415   5.085
    1   AR   Ar  237   4.464   0.558   7.743
    1   AR   Ar  238   4.472   5.194   6.580
    1   AR   Ar  239   1.243   4.247  11.209
    1   AR   Ar  240   1.794   3.392   6.625
    1   AR   Ar  241   1.496   0.022   0.623
    1   AR   Ar  242   5.593   6.298   1.617
    1   AR   Ar  243   4.461   6.485   2.102
    1   AR   Ar  244   6.481   6.056   0.488
    1   AR   Ar  245   3.289   0.867   3.586
    1   AR   Ar  246   5.237   6.937  -1.207
    1   AR   Ar  247   7.112   3.853   1.636
    1   AR   Ar  248   5.756   5.537  -0.201
    1   AR   Ar  249   3.602   7.040   1.626
    1   AR   Ar  250   5.116   6.660   3.869
    1   AR   Ar  251   5.064   4.403   4.982
    1   AR   Ar  252   3.010   5.289   2.516
    1   AR   Ar  253   4.485   2.467   8.613
    1   AR   Ar  254   4.757   3.585  12.093
    1   AR   Ar  255   4.645   0.104   8.606
    1   AR   Ar  256   5.538   5.827   3.412
    7.12000  7.12000 12.00000
Argon-slab step 5340
  256
    1   AR   Ar    1   4.149   3.279  -2.938
    1   AR   Ar    2   5.274   6.293   0.580
    1   AR   Ar    3   4.002   3.458  -0.747
    1   AR   Ar    4   2.444   1.149   0.493
    1   AR   Ar    5   6.983   5.217  -0.459
    1   AR   Ar    6   1.035   1.236   2.418
    1   AR   Ar    7   5.915   4.742   3.273
    1   AR   Ar    8   6.547   3.506  -1.220
    1   AR   Ar    9   0.069   6.178   4.730
    1   AR   Ar   10   6.093   4.817   5.480
    1   AR   Ar   11   1.205   6.736   5.245
    1   AR   Ar   12   0.157   1.722   4.344
    1   AR   Ar   13   0.405   0.213   4.773
    1   AR   Ar   14   3.571   0.587   6.887
    1   AR   Ar   15   2.451   6.149   9.578
    1   AR   Ar   16   0.448   0.108   5.980
    1   AR   Ar   17   6.057   3.521   1.038
    1   AR   Ar   18   0.201   4.647  -1.801
    1   AR   Ar   19   5.625   4.774   0.663
    1   AR   Ar   20   6.481   3.666  -2.710
    1   AR   Ar   21   2.145   1.338   1.937
    1   AR   Ar   22   5.291   0.331   1.716
    1   AR   Ar   23   0.966   5.999   0.918
    1   AR   Ar   24   5.799   2.804   3.197
    1   AR   Ar   25   1.041   2.842   5.008
    1   AR   Ar   26   5.716   5.950   4.533
    1   AR   Ar   27   1.323   0.434   1.576
    1   AR   Ar   28   2.386   2.681   3.598
    1   AR   Ar   29   5.465   1.384   8.021
    1   AR   Ar   30   7.119   1.171   3.143
    1   AR   Ar   31   1.294   0.320   6.758
    1   AR   Ar   32   0.934   1.885   5.529
    1   AR   Ar   33   6.746   4.542   0.980
    1   AR   Ar   34   1.666   5.089   2.541
    1   AR   Ar   35   4.953   5.458   2.632
    1   AR   Ar   36   4.887   2.460  -3.203
    1   AR   Ar   37   3.993   3.502   1.378
    1   AR   Ar   38   5.603   4.982   4.354
    1   AR   Ar   39   0.536   2.746   4.057
    1   AR   Ar   40   0.896   4.248   2.195
    1   AR   Ar   41   0.809   1.757   3.399
    1   AR   Ar   42   5.268   5.292   5.602
    1   AR   Ar   43   7.008   2.874   5.955
    1   AR   Ar   44   0.703   3.692   3.041
    1   AR   Ar   45   1.474   3.821   5.364
    1   AR   Ar   46   6.199   4.782   6.769
    1   AR   Ar   47   3.070   3.587   6.836
    1   AR   Ar   48   6.915   3.300   7.476
    1   AR   Ar   49   0.526   1.039   1.005
    1   AR   Ar   50   3.124   4.091  -0.270
    1   AR   Ar   51   5.334   3.603   2.770
    1   AR   Ar   52   5.309   4.005  -1.417
    1   AR   Ar   53   4.320   0.435   3.416
    1   AR   Ar   54   6.492   6.892   2.778
    1   AR   Ar   55   7.066   4.754   1.984
    1   AR   Ar   56   5.834   1.556   3.115
    1   AR   Ar   57   3.909   5.060   2.013
    1   AR   Ar   58   1.189   3.581   4.069
    1   AR   Ar   59   2.744   5.900   5.438
    1   AR   Ar   60   0.259   5.255   2.863
    1   AR   Ar   61   0.009   4.337   6.381
    1   AR   Ar   62   7.039   4.522   5.275
    1   AR   Ar   63   2.878   2.958   7.649
    1   AR   Ar   64   0.555   5.106   4.379
    1   AR   Ar   65   4.009   0.668   2.359
    1   AR   Ar   66   1.384   1.494   1.317
    1   AR   Ar   67   4.457   0.539  -0.846
    1   AR   Ar   68   6.693   0.861  -0.235
    1   AR   Ar   69   2.944   2.114   0.126
    1   AR   Ar   70   7.055   1.235   1.895
    1   AR   Ar   71   2.860   0.691   2.692
    1   AR   Ar   72   4.159   1.100   1.316
    1   AR   Ar   73   3.053   0.019   4.303
    1   AR   Ar   74   1.200   0.604   3.259
    1   AR   Ar   75   2.778   0.640   5.484
    1   AR   Ar   76   2.354   0.312   1.407
    1   AR   Ar   77   1.208   5.774   5.360
    1   AR   Ar   78   0.082   5.653   5.593
    1   AR   Ar   79   3.347   6.692   5.271
    1   AR   Ar   80   3.587   5.172   5.854
    1   AR   Ar   81   2.203   6.475   1.915
    1   AR   Ar   82   6.912   5.626   1.376
    1   AR   Ar   83   0.805   3.322   1.353
    1   AR   Ar   84   0.775   4.521   1.048
    1   AR   Ar   85   0.788   3.130   0.098
    1   AR   Ar   86   1.766   5.141   0.947
    1   AR   Ar   87   3.598   2.906   2.875
    1   AR   Ar   88   3.404   5.406   1.120
    1   AR   Ar   89   6.191   2.334   1.217
    1   AR   Ar   90   3.462   1.510   6.135
    1   AR   Ar   91   1.965   1.205   2.911
    1   AR   Ar   92   2.429   2.319   1.336
    1   AR   Ar   93   1.448   0.755   5.542
    1   AR   Ar   94   0.039   6.613   8.579
    1   AR   Ar   95   4.932   0.955   5.975
    1   AR   Ar   96   2.126   6.917   4.878
    1   AR   Ar   97   3.709   1.798  -1.404
    1   AR   Ar   98   1.617   4.680   4.205
    1   AR   Ar   99   6.602   6.935  -0.311
    1   AR   Ar  100   5.515   3.352  -2.358
    1   AR   Ar  101   3.903   6.070   2.956
    1   AR   Ar  102   3.509   1.622   2.581
    1   AR   Ar  103   1.906   4.193   1.309
    1   AR   Ar  104   3.363   0.296  -1.197
    1   AR   Ar  105   2.642   2.367   2.573
    1   AR   Ar  106   4.425   1.320   3.962
    1   AR   Ar  107   0.962   4.723   5.376
    1   AR   Ar  108   2.233   0.591   3.838
    1   AR   Ar  109   2.401   4.811   5.141
    1   AR   Ar  110   2.018   2.195   4.610
    1   AR   Ar  111   3.671   4.504   6.799
    1   AR   Ar  112   6.395   6.271   5.683
    1   AR   Ar  113   7.051   5.705  -1.487
    1   AR   Ar  114   2.902   6.783  -0.042
    1   AR   Ar  115   0.720   5.012   0.152
    1   AR   Ar  116   5.067   0.623   0.788
    1   AR   Ar  117   6.943   4.263   3.392
    1   AR   Ar  118   2.147   6.526   3.704
    1   AR   Ar  119   1.694   3.500   2.768
    1   AR   Ar  120   2.075   0.041   2.896
    1   AR   Ar  121   5.258   4.087   6.018
    1   AR   Ar  122   2.843   5.610   3.651
    1   AR   Ar  123   3.759   2.014   4.848
    1   AR   Ar  124   0.745   5.369   1.772
    1   AR   Ar  125   6.039   3.648   3.956
    1   AR   Ar  126   6.894   0.513   7.726
    1   AR   Ar  127   5.060   3.071   5.784
    1   AR   Ar  128   0.806   3.531   6.128
    1   AR   Ar  129   2.034   5.552   4.593
    1   AR   Ar  130   4.323   0.690  -5.129
    1   AR   Ar  131   3.778   6.606  -0.582
    1   AR   Ar  132   1.281   2.613   0.833
    1   AR   Ar  133   3.964   0.569   4.744
    1   AR   Ar  134   2.717   1.479   4.199
    1   AR   Ar  135   6.317   6.888   4.753
    1   AR   Ar  136   5.545   6.641   2.567
    1   AR   Ar  137   2.281   4.380   6.174
    1   AR   Ar  138   5.952   1.273   5.851
    1   AR   Ar  139   6.254   1.634   4.683
    1   AR   Ar  140   4.425   6.763   5.206
    1   AR   Ar  141   3.639   5.348   4.791
    1   AR   Ar  142   4.932   6.372   8.040
    1   AR   Ar  143   5.503   6.776   6.754
    1   AR   Ar  144   7.039   2.558   4.854
    1   AR   Ar  145   5.015   4.964  -1.186
    1   AR   Ar  146   3.523   2.108   3.711
    1   AR   Ar  147   5.318   4.044  -0.033
    1   AR   Ar  148   2.778   6.093  -0.872
    1   AR   Ar  149   0.343   2.491  -0.669
    1   AR   Ar  150   1.680   2.349   2.113
    1   AR   Ar  151   2.722   3.648   2.369
    1   AR   Ar  152   1.013   0.912  -1.092
    1   AR   Ar  153   5.333   0.535   3.259
    1   AR   Ar  154   4.764   2.936   3.732
    1   AR   Ar  155   6.205   3.267   5.517
    1   AR   Ar  156   3.238   4.349   3.031
    1   AR   Ar  157   3.067   5.758   6.804
    1   AR   Ar  158   0.636   2.773   6.857
    1   AR   Ar  159   3.637   0.297   5.897
    1   AR   Ar  160   1.327   1.166   4.349
    1   AR   Ar  161   4.916   4.540   2.966
    1   AR   Ar  162   4.062   5.534  -0.621
    1   AR   Ar  163   6.173   3.899   2.243
    1   AR   Ar  164   2.286   6.052   2.813
    1   AR   Ar  165   3.250   4.404   0.880
    1   AR   Ar  166   2.843   3.867   5.234
    1   AR   Ar  167   6.179   6.876   3.741
    1   AR   Ar  168   5.634   4.570  -2.365
    1   AR   Ar  169   3.912   3.705   3.593
    1   AR   Ar  170   2.954   2.784   6.020
    1   AR   Ar  171   4.694   5.590   4.261
    1   AR   Ar  172   3.985   3.252   4.728
    1   AR   Ar  173   1.952   1.833   7.048
    1   AR   Ar  174   3.043   6.148   4.535
    1   AR   Ar  175   2.594   0.147   6.896
    1   AR   Ar  176   3.115   3.086   4.173
    1   AR   Ar  177   0.258   4.218  -0.822
    1   AR   Ar  178   2.236   6.364   0.635
    1   AR   Ar  179   3.506   6.280   0.677
    1   AR   Ar  180   5.186   0.071  -7.426
    1   AR   Ar  181   0.016   6.536   1.817
    1   AR   Ar  182   1.185   6.513   2.940
    1   AR   Ar  183   4.968   5.416   1.367
    1   AR   Ar  184   4.496   5.580   0.434
    1   AR   Ar  185   3.367   4.402   4.167
    1   AR   Ar  186   3.125   6.793   3.065
    1   AR   Ar  187   3.827   6.598   3.809
    1   AR   Ar  188   3.115   1.012   1.606
    1   AR   Ar  189   6.097   2.311   5.439
    1   AR   Ar  190   1.233   7.104   4.160
    1   AR   Ar  191   3.877   6.167   6.082
    1   AR   Ar  192   4.050   3.657   6.280
    1   AR   Ar  193   3.217   6.149   2.004
    1   AR   Ar  194   5.037   6.209  -0.455
    1   AR   Ar  195   6.364   1.027   1.196
    1   AR   Ar  196   4.268   7.083   0.388
    1   AR   Ar  197   4.857   3.123   0.258
    1   AR   Ar  198   6.345   6.930   1.294
    1   AR   Ar  199   0.386   0.340   2.082
    1   AR   Ar  200   6.307   2.614  -0.057
    1   AR   Ar  201   6.458   5.757   2.467
    1   AR   Ar  202   5.221   0.479   4.666
    1   AR   Ar  203   0.255   7.014   3.452
    1   AR   Ar  204   4.560   4.424   7.403
    1   AR   Ar  205   5.585   1.657   1.740
    1   AR   Ar  206   6.444   0.389   5.682
    1   AR   Ar  207   6.837   3.548   4.520
    1   AR   Ar  208   0.615   5.993   3.726
    1   AR   Ar  209   6.320   2.025  -1.823
    1   AR   Ar  210   2.156   0.838  -0.713
    1   AR   Ar  211   7.063   2.971   0.665
    1   AR   Ar  212   6.500   3.773  -0.195
    1   AR   Ar  213   3.498   1.879   0.920
    1   AR   Ar  214   5.000   4.231   1.947
    1   AR   Ar  215   0.449   2.697   2.232
    1   AR   Ar  216   1.775   2.180  -0.370
    1   AR   Ar  217   5.263   1.906   4.036
    1   AR   Ar  218   5.102   2.650   4.789
    1   AR   Ar  219   4.183   4.015   2.546
    1   AR   Ar  220   4.256   4.469   1.261
    1   AR   Ar  221   6.635   5.785   3.873
    1   AR   Ar  222   5.177   7.013   5.795
    1   AR   Ar  223   6.918   1.688   5.591
    1   AR   Ar  224   4.995   1.690   5.107
    1   AR   Ar  225   6.580   2.202   2.434
    1   AR   Ar  226   2.242   3.688   4.008
    1   AR   Ar  227   1.153   2.698   3.155
    1   AR   Ar  228   6.151   0.783   2.590
    1   AR   Ar  229   6.148   4.595  -0.999
    1   AR   Ar  230   4.152   5.052   3.456
    1   AR   Ar  231   4.934   2.245   2.613
    1   AR   Ar  232   5.181   3.054   1.805
    1   AR   Ar  233   6.563   2.079   3.589
    1   AR   Ar  234   6.085   2.632   4.371
    1   AR   Ar  235   6.271   0.960   3.926
    1   AR   Ar  236   3.909   4.410   5.073
    1   AR   Ar  237   4.470   0.603   7.732
    1   AR   Ar  238   4.473   5.210   6.584
    1   AR   Ar  239   1.251   4.237  11.204
    1   AR   Ar  240   1.782   3.408   6.625
    1   AR   Ar  241   1.522   0.008   0.632
    1   AR   Ar  242   5.607   6.331   1.590
    1   AR   Ar  243   4.428   6.472   2.076
    1   AR   Ar  244   6.507   6.031   0.522
    1   AR   Ar  245   3.299   0.863   3.574
    1   AR   Ar  246   5.216   6.886  -1.212
    1   AR   Ar  247   7.061   3.860   1.642
    1   AR   Ar  248   5.777   5.555  -0.215
    1   AR   Ar  249   3.588   7.065   1.597
    1   AR   Ar  250   5.084   6.675   3.858
    1   AR   Ar  251   5.066   4.411   4.989
    1   AR   Ar  252   2.995   5.280   2.529
    1   AR   Ar  253   4.470   2.455   8.600
    1   AR   Ar  254   4.743   3.614  12.105
    1   AR   Ar  255   4.662   0.105   8.587
    1   AR   Ar  256   5.573   5.812   3.427
    7.12000  7.12000 12.00000
Argon-slab step 5345
  256
    1   AR   Ar    1   4.152   3.298  -2.924
    1   AR   Ar    2   5.276   6.273   0.618
    1   AR   Ar    3   4.006   3.411  -0.728
    1   AR   Ar    4   2.455   1.129   0.534
    1   AR   Ar    5   6.983   5.242  -0.444
    1   AR   Ar    6   1.029   1.229   2.460
    1   AR   Ar    7   5.915   4.807   3.298
    1   AR   Ar    8   6.549   3.490  -1.202
    1   AR   Ar    9   0.103   6.182   4.739
    1   AR   Ar   10   6.084   4.797   5.513
    1   AR   Ar   11   1.211   6.712   5.263
    1   AR   Ar   12   0.173   1.733   4.318
    1   AR   Ar   13   0.366   0.173   4.806
    1   AR   Ar   14   3.561   0.594   6.887
    1   AR   Ar   15   2.446   6.125   9.570
    1   AR   Ar   16   0.448   0.108   5.997
    1   AR   Ar   17   6.055   3.508   1.013
    1   AR   Ar   18   0.158   4.645  -1.830
    1   AR   Ar   19   5.607   4.769   0.678
    1   AR   Ar   20   6.502   3.663  -2.675
    1   AR   Ar   21   2.157   1.333   1.966
    1   AR   Ar   22   5.306   0.292   1.729
    1   AR   Ar   23   0.966   5.996   0.919
    1   AR   Ar   24   5.786   2.823   3.180
    1   AR   Ar   25   1.057   2.835   5.051
    1   AR   Ar   26   5.730   5.967   4.523
    1   AR   Ar   27   1.321   0.417   1.546
    1   AR   Ar   28   2.367   2.701   3.637
    1   AR   Ar   29   5.492   1.373   8.026
    1   AR   Ar   30   7.097   1.145   3.167
    1   AR   Ar   31   1.274   0.308   6.774
    1   AR   Ar   32   0.942   1.895   5.525
    1   AR   Ar   33   6.738   4.524   1.014
    1   AR   Ar   34   1.671   5.076   2.570
    1   AR   Ar   35   4.955   5.434   2.615
    1   AR   Ar   36   4.851   2.468  -3.218
    1   AR   Ar   37   3.996   3.544   1.368
    1   AR   Ar   38   5.590   4.959   4.349
    1   AR   Ar   39   0.530   2.749   4.062
    1   AR   Ar   40   0.899   4.234   2.175
    1   AR   Ar   41   0.817   1.777   3.391
    1   AR   Ar   42   5.257   5.325   5.593
    1   AR   Ar   43   6.999   2.852   5.963
    1   AR   Ar   44   0.751   3.695   3.016
    1   AR   Ar   45   1.480   3.792   5.368
    1   AR   Ar   46   6.175   4.789   6.766
    1   AR   Ar   47   3.025   3.569   6.805
    1   AR   Ar   48   6.912   3.269   7.468
    1   AR   Ar   49   0.532   1.038   0.987
    1   AR   Ar   50   3.079   4.087  -0.271
    1   AR   Ar   51   5.321   3.621   2.778
    1   AR   Ar   52   5.304   3.963  -1.426
    1   AR   Ar   53   4.334   0.444   3.409
    1   AR   Ar   54   6.496   6.846   2.773
    1   AR   Ar   55   7.065   4.752   1.991
    1   AR   Ar   56   5.844   1.551   3.131
    1   AR   Ar   57   3.920   5.078   2.026
    1   AR   Ar   58   1.159   3.590   4.101
    1   AR   Ar   59   2.772   5.871   5.436
    1   AR   Ar   60   0.270   5.230   2.845
    1   AR   Ar   61   0.011   4.352   6.402
    1   AR   Ar   62   7.032   4.531   5.280
    1   AR   Ar   63   2.857   2.928   7.615
    1   AR   Ar   64   0.580   5.102   4.319
    1   AR   Ar   65   3.998   0.675   2.392
    1   AR   Ar   66   1.404   1.494   1.380
    1   AR   Ar   67   4.448   0.578  -0.851
    1   AR   Ar   68   6.670   0.824  -0.187
    1   AR   Ar   69   2.939   2.123   0.147
    1   AR   Ar   70   7.051   1.254   1.891
    1   AR   Ar   71   2.859   0.663   2.692
    1   AR   Ar   72   4.137   1.094   1.342
    1   AR   Ar   73   3.052   0.031   4.354
    1   AR   Ar   74   1.178   0.606   3.258
    1   AR   Ar   75   2.801   0.637   5.498
    1   AR   Ar   76   2.350   0.332   1.404
    1   AR   Ar   77   1.195   5.787   5.380
    1   AR   Ar   78   0.103   5.646   5.580
    1   AR   Ar   79   3.386   6.711   5.263
    1   AR   Ar   80   3.550   5.160   5.806
    1   AR   Ar   81   2.226   6.480   1.918
    1   AR   Ar   82   6.915   5.645   1.388
    1   AR   Ar   83   0.815   3.351   1.371
    1   AR   Ar   84   0.742   4.516   1.033
    1   AR   Ar   85   0.816   3.117   0.131
    1   AR   Ar   86   1.767   5.110   0.947
    1   AR   Ar   87   3.600   2.903   2.885
    1   AR   Ar   88   3.384   5.405   1.126
    1   AR   Ar   89   6.184   2.357   1.201
    1   AR   Ar   90   3.425   1.523   6.136
    1   AR   Ar   91   1.959   1.179   2.914
    1   AR   Ar   92   2.447   2.308   1.333
    1   AR   Ar   93   1.458   0.729   5.570
    1   AR   Ar   94   0.018   6.610   8.595
    1   AR   Ar   95   4.955   0.950   6.003
    1   AR   Ar   96   2.124   6.922   4.897
    1   AR   Ar   97   3.747   1.780  -1.425
    1   AR   Ar   98   1.608   4.731   4.237
    1   AR   Ar   99   6.615   6.922  -0.327
    1   AR   Ar  100   5.500   3.351  -2.404
    1   AR   Ar  101   3.877   6.068   2.950
    1   AR   Ar  102   3.547   1.635   2.601
    1   AR   Ar  103   1.870   4.192   1.348
    1   AR   Ar  104   3.388   0.310  -1.158
    1   AR   Ar  105   2.660   2.374   2.583
    1   AR   Ar  106   4.459   1.331   3.953
    1   AR   Ar  107   0.968   4.696   5.396
    1   AR   Ar  108   2.243   0.568   3.845
    1   AR   Ar  109   2.391   4.807   5.147
    1   AR   Ar  110   1.989   2.180   4.607
    1   AR   Ar  111   3.670   4.457   6.791
    1   AR   Ar  112   6.413   6.271   5.674
    1   AR   Ar  113   7.030   5.689  -1.505
    1   AR   Ar  114   2.919   6.794  -0.037
    1   AR   Ar  115   0.696   4.985   0.115
    1   AR   Ar  116   5.073   0.629   0.791
    1   AR   Ar  117   6.953   4.230   3.374
    1   AR   Ar  118   2.105   6.508   3.722
    1   AR   Ar  119   1.710   3.478   2.765
    1   AR   Ar  120   2.079   0.033   2.905
    1   AR   Ar  121   5.260   4.072   6.079
    1   AR   Ar  122   2.833   5.627   3.646
    1   AR   Ar  123   3.782   2.015   4.808
    1   AR   Ar  124   0.749   5.364   1.753
    1   AR   Ar  125   6.025   3.696   3.929
    1   AR   Ar  126   6.863   0.556   7.736
    1   AR   Ar  127   5.079   3.098   5.777
    1   AR   Ar  128   0.793   3.544   6.120
    1   AR   Ar  129   2.048   5.564   4.623
    1   AR   Ar  130   4.359   0.701  -5.123
    1   AR   Ar  131   3.771   6.571  -0.570
    1   AR   Ar  132   1.303   2.625   0.847
    1   AR   Ar  133   3.989   0.567   4.755
    1   AR   Ar  134   2.706   1.461   4.221
    1   AR   Ar  135   6.321   6.855   4.730
    1   AR   Ar  136   5.555   6.645   2.568
    1   AR   Ar  137   2.268   4.406   6.149
    1   AR   Ar  138   5.983   1.247   5.832
    1   AR   Ar  139   6.249   1.642   4.688
    1   AR   Ar  140   4.387   6.766   5.198
    1   AR   Ar  141   3.618   5.323   4.821
    1   AR   Ar  142   4.912   6.388   8.021
    1   AR   Ar  143   5.499   6.775   6.771
    1   AR   Ar  144   7.032   2.546   4.842
    1   AR   Ar  145   5.013   4.969  -1.169
    1   AR   Ar  146   3.551   2.124   3.702
    1   AR   Ar  147   5.322   4.077  -0.026
    1   AR   Ar  148   2.741   6.080  -0.873
    1   AR   Ar  149   0.346   2.503  -0.673
    1   AR   Ar  150   1.631   2.333   2.152
    1   AR   Ar  151   2.726   3.668   2.353
    1   AR   Ar  152   1.032   0.918  -1.066
    1   AR   Ar  153   5.367   0.504   3.293
    1   AR   Ar  154   4.787   2.974   3.690
    1   AR   Ar  155   6.220   3.279   5.482
    1   AR   Ar  156   3.246   4.339   3.040
    1   AR   Ar  157   3.060   5.754   6.811
    1   AR   Ar  158   0.630   2.775   6.848
    1   AR   Ar  159   3.647   0.336   5.878
    1   AR   Ar  160   1.342   1.167   4.329
    1   AR   Ar  161   4.926   4.526   2.958
    1   AR   Ar  162   4.065   5.522  -0.632
    1   AR   Ar  163   6.151   3.894   2.251
    1   AR   Ar  164   2.277   6.042   2.829
    1   AR   Ar  165   3.225   4.426   0.873
    1   AR   Ar  166   2.797   3.864   5.258
    1   AR   Ar  167   6.174   6.871   3.718
    1   AR   Ar  168   5.625   4.535  -2.354
    1   AR   Ar  169   3.940   3.693   3.607
    1   AR   Ar  170   2.944   2.752   6.019
    1   AR   Ar  171   4.702   5.618   4.270
    1   AR   Ar  172   3.978   3.263   4.705
    1   AR   Ar  173   1.910   1.834   7.071
    1   AR   Ar  174   3.072   6.153   4.533
    1   AR   Ar  175   2.597   0.116   6.947
    1   AR   Ar  176   3.103   3.102   4.155
    1   AR   Ar  177   0.253   4.201  -0.842
    1   AR   Ar  178   2.235   6.361   0.644
    1   AR   Ar  179   3.519   6.281   0.644
    1   AR   Ar  180   5.207   0.045  -7.400
    1   AR   Ar  181   0.009   6.555   1.801
    1   AR   Ar  182   1.193   6.507   2.965
    1   AR   Ar  183   4.983   5.389   1.332
    1   AR   Ar  184   4.508   5.606   0.473
    1   AR   Ar  185   3.371   4.398   4.200
    1   AR   Ar  186   3.104   6.807   3.087
    1   AR   Ar  187   3.829   6.607   3.841
    1   AR   Ar  188   3.123   1.005   1.623
    1   AR   Ar  189   6.119   2.284   5.450
    1   AR   Ar  190   1.244   7.110   4.178
    1   AR   Ar  191   3.892   6.141   6.042
    1   AR   Ar  192   4.075   3.665   6.258
    1   AR   Ar  193   3.216   6.160   1.986
    1   AR   Ar  194   5.029   6.200  -0.414
    1   AR   Ar  195   6.318   1.002   1.199
    1   AR   Ar  196   4.271   7.074   0.421
    1   AR   Ar  197   4.851   3.112   0.223
    1   AR   Ar  198   6.372   6.960   1.288
    1   AR   Ar  199   0.353   0.330   2.063
    1   AR   Ar  200   6.303   2.635  -0.059
    1   AR   Ar  201   6.465   5.737   2.499
    1   AR   Ar  202   5.219   0.468   4.683
    1   AR   Ar  203   0.239   7.028   3.460
    1   AR   Ar  204   4.554   4.443   7.390
    1   AR   Ar  205   5.549   1.656   1.750
    1   AR   Ar  206   6.447   0.397   5.698
    1   AR   Ar  207   6.814   3.584   4.481
    1   AR   Ar  208   0.604   5.996   3.720
    1   AR   Ar  209   6.270   2.004  -1.828
    1   AR   Ar  210   2.123   0.829  -0.730
    1   AR   Ar  211   7.083   2.955   0.687
    1   AR   Ar  212   6.533   3.768  -0.189
    1   AR   Ar  213   3.497   1.906   0.894
    1   AR   Ar  214   4.971   4.224   1.927
    1   AR   Ar  215   0.448   2.685   2.253
    1   AR   Ar  216   1.805   2.168  -0.378
    1   AR   Ar  217   5.253   1.896   4.042
    1   AR   Ar  218   5.080   2.656   4.802
    1   AR   Ar  219   4.160   4.014   2.549
    1   AR   Ar  220   4.236   4.476   1.246
    1   AR   Ar  221   6.642   5.770   3.854
    1   AR   Ar  222   5.183   6.995   5.816
    1   AR   Ar  223   6.884   1.653   5.595
    1   AR   Ar  224   5.020   1.675   5.092
    1   AR   Ar  225   6.577   2.206   2.452
    1   AR   Ar  226   2.264   3.676   4.002
    1   AR   Ar  227   1.162   2.632   3.151
    1   AR   Ar  228   6.152   0.745   2.588
    1   AR   Ar  229   6.151   4.620  -1.008
    1   AR   Ar  230   4.138   5.088   3.420
    1   AR   Ar  231   4.938   2.257   2.614
    1   AR   Ar  232   5.173   3.054   1.806
    1   AR   Ar  233   6.581   2.098   3.611
    1   AR   Ar  234   6.081   2.633   4.383
    1   AR   Ar  235   6.288   0.961   3.923
    1   AR   Ar  236   3.908   4.397   5.066
    1   AR   Ar  237   4.475   0.653   7.714
    1   AR   Ar  238   4.474   5.227   6.585
    1   AR   Ar  239   1.259   4.227  11.199
    1   AR   Ar  240   1.766   3.425   6.615
    1   AR   Ar  241   1.535   7.113   0.638
    1   AR   Ar  242   5.615   6.356   1.564
    1   AR   Ar  243   4.439   6.457   2.068
    1   AR   Ar  244   6.529   6.009   0.552
    1   AR   Ar  245   3.315   0.859   3.569
    1   AR   Ar  246   5.195   6.837  -1.220
    1   AR   Ar  247   7.012   3.842   1.647
    1   AR   Ar  248   5.804   5.567  -0.227
    1   AR   Ar  249   3.575   7.080   1.571
    1   AR   Ar  250   5.051   6.691   3.847
    1   AR   Ar  251   5.062   4.414   4.999
    1   AR   Ar  252   2.978   5.269   2.546
    1   AR   Ar  253   4.465   2.453   8.602
    1   AR   Ar  254   4.729   3.643  12.117
    1   AR   Ar  255   4.680   0.106   8.576
    1   AR   Ar  256   5.611   5.796   3.442
    7.12000  7.12000 12.00000
Argon-slab step 5350
  256
    1   AR   Ar    1   4.156   3.317  -2.910
    1   AR   Ar    2   5.260   6.252   0.624
    1   AR   Ar    3   4.009   3.365  -0.707
    1   AR   Ar    4   2.466   1.110   0.578
    1   AR   Ar    5   6.977   5.267  -0.432
    1   AR   Ar    6   1.017   1.225   2.492
    1   AR   Ar    7   5.918   4.868   3.322
    1   AR   Ar    8   6.550   3.475  -1.187
    1   AR   Ar    9   0.138   6.191   4.739
    1   AR   Ar   10   6.078   4.772   5.547
    1   AR   Ar   11   1.209   6.716   5.280
    1   AR   Ar   12   0.193   1.734   4.288
    1   AR   Ar   13   0.326   0.132   4.840
    1   AR   Ar   14   3.553   0.602   6.890
    1   AR   Ar   15   2.441   6.102   9.563
    1   AR   Ar   16   0.448   0.108   6.012
    1   AR   Ar   17   6.046   3.531   0.986
    1   AR   Ar   18   0.113   4.643  -1.859
    1   AR   Ar   19   5.593   4.769   0.697
    1   AR   Ar   20   6.522   3.672  -2.665
    1   AR   Ar   21   2.183   1.327   1.994
    1   AR   Ar   22   5.322   0.252   1.749
    1   AR   Ar   23   0.967   5.993   0.918
    1   AR   Ar   24   5.777   2.833   3.168
    1   AR   Ar   25   1.071   2.830   5.091
    1   AR   Ar   26   5.745   5.990   4.514
    1   AR   Ar   27   1.315   0.403   1.522
    1   AR   Ar   28   2.339   2.713   3.667
    1   AR   Ar   29   5.518   1.361   8.031
    1   AR   Ar   30   7.073   1.117   3.189
    1   AR   Ar   31   1.255   0.296   6.788
    1   AR   Ar   32   0.948   1.902   5.521
    1   AR   Ar   33   6.724   4.517   1.034
    1   AR   Ar   34   1.676   5.063   2.598
    1   AR   Ar   35   4.957   5.425   2.591
    1   AR   Ar   36   4.796   2.469  -3.252
    1   AR   Ar   37   3.996   3.573   1.361
    1   AR   Ar   38   5.595   4.948   4.355
    1   AR   Ar   39   0.503   2.742   4.073
    1   AR   Ar   40   0.894   4.235   2.164
    1   AR   Ar   41   0.817   1.777   3.391
    1   AR   Ar   42   5.235   5.366   5.585
    1   AR   Ar   43   6.997   2.825   5.974
    1   AR   Ar   44   0.791   3.695   2.999
    1   AR   Ar   45   1.500   3.795   5.378
    1   AR   Ar   46   6.149   4.796   6.761
    1   AR   Ar   47   2.979   3.552   6.770
    1   AR   Ar   48   6.910   3.239   7.458
    1   AR   Ar   49   0.536   1.034   0.968
    1   AR   Ar   50   3.035   4.084  -0.271
    1   AR   Ar   51   5.320   3.638   2.780
    1   AR   Ar   52   5.301   3.919  -1.435
    1   AR   Ar   53   4.353   0.428   3.412
    1   AR   Ar   54   6.516   6.802   2.760
    1   AR   Ar   55   7.060   4.759   2.003
    1   AR   Ar   56   5.862   1.543   3.143
    1   AR   Ar   57   3.934   5.096   2.059
    1   AR   Ar   58   1.131   3.602   4.134
    1   AR   Ar   59   2.796   5.836   5.444
    1   AR   Ar   60   0.284   5.207   2.831
    1   AR   Ar   61   0.013   4.366   6.422
    1   AR   Ar   62   7.030   4.538   5.283
    1   AR   Ar   63   2.835   2.896   7.582
    1   AR   Ar   64   0.602   5.098   4.261
    1   AR   Ar   65   3.985   0.679   2.423
    1   AR   Ar   66   1.415   1.501   1.434
    1   AR   Ar   67   4.438   0.615  -0.855
    1   AR   Ar   68   6.648   0.792  -0.138
    1   AR   Ar   69   2.920   2.135   0.153
    1   AR   Ar   70   7.048   1.279   1.892
    1   AR   Ar   71   2.860   0.637   2.682
    1   AR   Ar   72   4.119   1.086   1.367
    1   AR   Ar   73   3.055   0.046   4.343
    1   AR   Ar   74   1.152   0.601   3.263
    1   AR   Ar   75   2.812   0.638   5.506
    1   AR   Ar   76   2.348   0.349   1.400
    1   AR   Ar   77   1.181   5.770   5.402
    1   AR   Ar   78   0.128   5.628   5.574
    1   AR   Ar   79   3.422   6.734   5.262
    1   AR   Ar   80   3.512   5.143   5.769
    1   AR   Ar   81   2.245   6.490   1.914
    1   AR   Ar   82   6.919   5.655   1.405
    1   AR   Ar   83   0.814   3.366   1.384
    1   AR   Ar   84   0.709   4.509   1.025
    1   AR   Ar   85   0.843   3.110   0.155
    1   AR   Ar   86   1.765   5.087   0.945
    1   AR   Ar   87   3.601   2.900   2.895
    1   AR   Ar   88   3.383   5.419   1.128
    1   AR   Ar   89   6.204   2.380   1.198
    1   AR   Ar   90   3.389   1.533   6.136
    1   AR   Ar   91   1.956   1.156   2.931
    1   AR   Ar   92   2.464   2.296   1.330
    1   AR   Ar   93   1.467   0.701   5.596
    1   AR   Ar   94   7.117   6.607   8.610
    1   AR   Ar   95   4.977   0.945   6.030
    1   AR   Ar   96   2.130   6.928   4.913
    1   AR   Ar   97   3.785   1.761  -1.446
    1   AR   Ar   98   1.597   4.774   4.269
    1   AR   Ar   99   6.627   6.902  -0.343
    1   AR   Ar  100   5.483   3.349  -2.449
    1   AR   Ar  101   3.832   6.060   2.930
    1   AR   Ar  102   3.583   1.650   2.622
    1   AR   Ar  103   1.834   4.184   1.392
    1   AR   Ar  104   3.413   0.324  -1.118
    1   AR   Ar  105   2.677   2.381   2.593
    1   AR   Ar  106   4.481   1.337   3.945
    1   AR   Ar  107   0.991   4.705   5.401
    1   AR   Ar  108   2.251   0.543   3.851
    1   AR   Ar  109   2.373   4.772   5.162
    1   AR   Ar  110   1.970   2.151   4.593
    1   AR   Ar  111   3.665   4.415   6.782
    1   AR   Ar  112   6.426   6.275   5.665
    1   AR   Ar  113   7.009   5.673  -1.522
    1   AR   Ar  114   2.931   6.812  -0.032
    1   AR   Ar  115   0.676   4.959   0.078
    1   AR   Ar  116   5.078   0.637   0.790
    1   AR   Ar  117   6.962   4.199   3.357
    1   AR   Ar  118   2.063   6.493   3.751
    1   AR   Ar  119   1.732   3.455   2.760
    1   AR   Ar  120   2.079   0.025   2.911
    1   AR   Ar  121   5.262   4.062   6.141
    1   AR   Ar  122   2.824   5.643   3.640
    1   AR   Ar  123   3.805   2.015   4.767
    1   AR   Ar  124   0.759   5.360   1.736
    1   AR   Ar  125   5.997   3.746   3.892
    1   AR   Ar  126   6.832   0.599   7.745
    1   AR   Ar  127   5.098   3.121   5.769
    1   AR   Ar  128   0.776   3.557   6.111
    1   AR   Ar  129   2.062   5.593   4.647
    1   AR   Ar  130   4.395   0.713  -5.118
    1   AR   Ar  131   3.770   6.535  -0.560
    1   AR   Ar  132   1.299   2.650   0.863
    1   AR   Ar  133   4.013   0.565   4.766
    1   AR   Ar  134   2.695   1.444   4.243
    1   AR   Ar  135   6.327   6.825   4.713
    1   AR   Ar  136   5.543   6.655   2.572
    1   AR   Ar  137   2.254   4.431   6.124
    1   AR   Ar  138   6.001   1.231   5.814
    1   AR   Ar  139   6.244   1.645   4.691
    1   AR   Ar  140   4.396   6.778   5.201
    1   AR   Ar  141   3.597   5.306   4.839
    1   AR   Ar  142   4.881   6.385   8.032
    1   AR   Ar  143   5.508   6.805   6.830
    1   AR   Ar  144   7.037   2.539   4.845
    1   AR   Ar  145   5.011   4.976  -1.149
    1   AR   Ar  146   3.578   2.139   3.693
    1   AR   Ar  147   5.326   4.107  -0.024
    1   AR   Ar  148   2.705   6.068  -0.873
    1   AR   Ar  149   0.348   2.515  -0.677
    1   AR   Ar  150   1.580   2.317   2.190
    1   AR   Ar  151   2.731   3.687   2.337
    1   AR   Ar  152   1.051   0.925  -1.039
    1   AR   Ar  153   5.406   0.473   3.327
    1   AR   Ar  154   4.812   3.010   3.648
    1   AR   Ar  155   6.229   3.303   5.441
    1   AR   Ar  156   3.237   4.292   3.028
    1   AR   Ar  157   3.055   5.750   6.816
    1   AR   Ar  158   0.624   2.777   6.840
    1   AR   Ar  159   3.674   0.377   5.865
    1   AR   Ar  160   1.357   1.169   4.308
    1   AR   Ar  161   4.938   4.509   2.961
    1   AR   Ar  162   4.070   5.509  -0.641
    1   AR   Ar  163   6.132   3.891   2.256
    1   AR   Ar  164   2.267   6.028   2.844
    1   AR   Ar  165   3.199   4.443   0.864
    1   AR   Ar  166   2.754   3.857   5.281
    1   AR   Ar  167   6.154   6.853   3.734
    1   AR   Ar  168   5.617   4.498  -2.343
    1   AR   Ar  169   3.953   3.681   3.613
    1   AR   Ar  170   2.934   2.720   6.018
    1   AR   Ar  171   4.710   5.646   4.279
    1   AR   Ar  172   3.976   3.275   4.684
    1   AR   Ar  173   1.867   1.835   7.094
    1   AR   Ar  174   3.096   6.150   4.511
    1   AR   Ar  175   2.599   0.085   6.998
    1   AR   Ar  176   3.103   3.120   4.142
    1   AR   Ar  177   0.246   4.185  -0.859
    1   AR   Ar  178   2.211   6.351   0.628
    1   AR   Ar  179   3.535   6.288   0.610
    1   AR   Ar  180   5.209   0.036  -7.412
    1   AR   Ar  181   0.005   6.565   1.790
    1   AR   Ar  182   1.202   6.503   2.990
    1   AR   Ar  183   5.000   5.361   1.306
    1   AR   Ar  184   4.499   5.609   0.491
    1   AR   Ar  185   3.370   4.395   4.228
    1   AR   Ar  186   3.081   6.821   3.110
    1   AR   Ar  187   3.835   6.617   3.878
    1   AR   Ar  188   3.132   1.001   1.642
    1   AR   Ar  189   6.131   2.259   5.464
    1   AR   Ar  190   1.257   7.116   4.195
    1   AR   Ar  191   3.907   6.117   6.002
    1   AR   Ar  192   4.091   3.665   6.263
    1   AR   Ar  193   3.220   6.169   1.970
    1   AR   Ar  194   5.013   6.191  -0.373
    1   AR   Ar  195   6.282   0.976   1.204
    1   AR   Ar  196   4.273   7.064   0.454
    1   AR   Ar  197   4.844   3.101   0.187
    1   AR   Ar  198   6.396   6.999   1.275
    1   AR   Ar  199   0.325   0.326   2.048
    1   AR   Ar  200   6.301   2.665  -0.064
    1   AR   Ar  201   6.471   5.718   2.531
    1   AR   Ar  202   5.217   0.457   4.700
    1   AR   Ar  203   0.224   7.042   3.468
    1   AR   Ar  204   4.549   4.461   7.378
    1   AR   Ar  205   5.513   1.653   1.762
    1   AR   Ar  206   6.457   0.391   5.711
    1   AR   Ar  207   6.802   3.588   4.481
    1   AR   Ar  208   0.625   5.987   3.729
    1   AR   Ar  209   6.221   1.985  -1.834
    1   AR   Ar  210   2.090   0.820  -0.746
    1   AR   Ar  211   7.098   2.938   0.712
    1   AR   Ar  212   6.564   3.764  -0.178
    1   AR   Ar  213   3.505   1.927   0.884
    1   AR   Ar  214   4.950   4.218   1.904
    1   AR   Ar  215   0.448   2.674   2.274
    1   AR   Ar  216   1.836   2.154  -0.384
    1   AR   Ar  217   5.257   1.893   4.048
    1   AR   Ar  218   5.057   2.668   4.812
    1   AR   Ar  219   4.130   4.008   2.550
    1   AR   Ar  220   4.220   4.499   1.223
    1   AR   Ar  221   6.648   5.755   3.834
    1   AR   Ar  222   5.184   6.991   5.829
    1   AR   Ar  223   6.865   1.615   5.597
    1   AR   Ar  224   5.048   1.657   5.075
    1   AR   Ar  225   6.573   2.208   2.471
    1   AR   Ar  226   2.282   3.673   3.996
    1   AR   Ar  227   1.178   2.583   3.143
    1   AR   Ar  228   6.157   0.703   2.581
    1   AR   Ar  229   6.155   4.644  -1.017
    1   AR   Ar  230   4.121   5.124   3.384
    1   AR   Ar  231   4.942   2.269   2.616
    1   AR   Ar  232   5.168   3.048   1.804
    1   AR   Ar  233   6.602   2.106   3.612
    1   AR   Ar  234   6.074   2.639   4.393
    1   AR   Ar  235   6.305   0.957   3.917
    1   AR   Ar  236   3.914   4.374   5.066
    1   AR   Ar  237   4.479   0.704   7.691
    1   AR   Ar  238   4.475   5.244   6.585
    1   AR   Ar  239   1.267   4.217  11.194
    1   AR   Ar  240   1.752   3.443   6.603
    1   AR   Ar  241   1.545   7.100   0.640
    1   AR   Ar  242   5.619   6.373   1.545
    1   AR   Ar  243   4.478   6.439   2.070
    1   AR   Ar  244   6.545   5.991   0.573
    1   AR   Ar  245   3.336   0.855   3.570
    1   AR   Ar  246   5.174   6.791  -1.231
    1   AR   Ar  247   6.970   3.799   1.655
    1   AR   Ar  248   5.835   5.573  -0.238
    1   AR   Ar  249   3.567   7.050   1.563
    1   AR   Ar  250   5.017   6.707   3.836
    1   AR   Ar  251   5.054   4.411   5.016
    1   AR   Ar  252   2.962   5.257   2.563
    1   AR   Ar  253   4.486   2.449   8.600
    1   AR   Ar  254   4.715   3.672  12.129
    1   AR   Ar  255   4.698   0.108   8.572
    1   AR   Ar  256   5.648   5.786   3.457
    7.12000  7.12000 12.00000
Argon-slab step 5355
  256
    1   AR   Ar    1   4.160   3.335  -2.895
    1   AR   Ar    2   5.248   6.234   0.627
    1   AR   Ar    3   4.026   3.380  -0.707
    1   AR   Ar    4   2.477   1.091   0.623
    1   AR   Ar    5   6.964   5.294  -0.423
    1   AR   Ar    6   1.001   1.227   2.512
    1   AR   Ar    7   5.928   4.911   3.341
    1   AR   Ar    8   6.550   3.459  -1.175
    1   AR   Ar    9   0.173   6.202   4.732
    1   AR   Ar   10   6.069   4.745   5.583
    1   AR   Ar   11   1.200   6.740   5.296
    1   AR   Ar   12   0.215   1.726   4.259
    1   AR   Ar   13   0.285   0.094   4.875
    1   AR   Ar   14   3.546   0.612   6.895
    1   AR   Ar   15   2.436   6.079   9.555
    1   AR   Ar   16   0.447   0.108   6.025
    1   AR   Ar   17   6.059   3.527   0.984
    1   AR   Ar   18   0.067   4.640  -1.888
    1   AR   Ar   19   5.583   4.770   0.718
    1   AR   Ar   20   6.552   3.684  -2.640
    1   AR   Ar   21   2.224   1.321   2.019
    1   AR   Ar   22   5.340   0.213   1.772
    1   AR   Ar   23   0.968   5.991   0.915
    1   AR   Ar   24   5.774   2.834   3.160
    1   AR   Ar   25   1.085   2.829   5.129
    1   AR   Ar   26   5.758   6.012   4.506
    1   AR   Ar   27   1.304   0.393   1.508
    1   AR   Ar   28   2.302   2.713   3.688
    1   AR   Ar   29   5.544   1.349   8.036
    1   AR   Ar   30   7.049   1.090   3.209
    1   AR   Ar   31   1.237   0.284   6.801
    1   AR   Ar   32   0.952   1.904   5.518
    1   AR   Ar   33   6.704   4.519   1.042
    1   AR   Ar   34   1.679   5.050   2.625
    1   AR   Ar   35   4.958   5.428   2.563
    1   AR   Ar   36   4.742   2.471  -3.285
    1   AR   Ar   37   3.992   3.585   1.358
    1   AR   Ar   38   5.604   4.939   4.356
    1   AR   Ar   39   0.482   2.737   4.074
    1   AR   Ar   40   0.883   4.247   2.155
    1   AR   Ar   41   0.804   1.744   3.402
    1   AR   Ar   42   5.208   5.410   5.577
    1   AR   Ar   43   6.997   2.814   5.963
    1   AR   Ar   44   0.821   3.690   2.992
    1   AR   Ar   45   1.531   3.819   5.391
    1   AR   Ar   46   6.123   4.844   6.754
    1   AR   Ar   47   2.962   3.553   6.750
    1   AR   Ar   48   6.909   3.209   7.447
    1   AR   Ar   49   0.545   1.035   0.952
    1   AR   Ar   50   2.992   4.081  -0.271
    1   AR   Ar   51   5.312   3.643   2.782
    1   AR   Ar   52   5.300   3.875  -1.444
    1   AR   Ar   53   4.376   0.394   3.421
    1   AR   Ar   54   6.547   6.759   2.745
    1   AR   Ar   55   7.049   4.766   2.015
    1   AR   Ar   56   5.875   1.538   3.153
    1   AR   Ar   57   3.949   5.116   2.095
    1   AR   Ar   58   1.104   3.615   4.168
    1   AR   Ar   59   2.816   5.801   5.456
    1   AR   Ar   60   0.302   5.187   2.826
    1   AR   Ar   61   0.015   4.380   6.439
    1   AR   Ar   62   7.034   4.542   5.283
    1   AR   Ar   63   2.813   2.861   7.551
    1   AR   Ar   64   0.619   5.091   4.207
    1   AR   Ar   65   3.972   0.681   2.452
    1   AR   Ar   66   1.414   1.512   1.478
    1   AR   Ar   67   4.429   0.651  -0.859
    1   AR   Ar   68   6.626   0.765  -0.086
    1   AR   Ar   69   2.888   2.151   0.145
    1   AR   Ar   70   7.044   1.309   1.896
    1   AR   Ar   71   2.865   0.616   2.663
    1   AR   Ar   72   4.106   1.078   1.391
    1   AR   Ar   73   3.061   0.063   4.290
    1   AR   Ar   74   1.123   0.588   3.277
    1   AR   Ar   75   2.808   0.642   5.506
    1   AR   Ar   76   2.348   0.364   1.395
    1   AR   Ar   77   1.170   5.734   5.425
    1   AR   Ar   78   0.155   5.603   5.574
    1   AR   Ar   79   3.443   6.757   5.262
    1   AR   Ar   80   3.473   5.117   5.756
    1   AR   Ar   81   2.258   6.504   1.906
    1   AR   Ar   82   6.924   5.654   1.431
    1   AR   Ar   83   0.805   3.374   1.395
    1   AR   Ar   84   0.676   4.499   1.022
    1   AR   Ar   85   0.861   3.111   0.162
    1   AR   Ar   86   1.768   5.097   0.962
    1   AR   Ar   87   3.603   2.899   2.906
    1   AR   Ar   88   3.389   5.437   1.133
    1   AR   Ar   89   6.231   2.405   1.200
    1   AR   Ar   90   3.352   1.542   6.135
    1   AR   Ar   91   1.956   1.135   2.962
    1   AR   Ar   92   2.481   2.281   1.328
    1   AR   Ar   93   1.476   0.672   5.621
    1   AR   Ar   94   7.096   6.605   8.624
    1   AR   Ar   95   4.997   0.939   6.056
    1   AR   Ar   96   2.144   6.934   4.924
    1   AR   Ar   97   3.824   1.742  -1.466
    1   AR   Ar   98   1.587   4.809   4.299
    1   AR   Ar   99   6.639   6.877  -0.359
    1   AR   Ar  100   5.465   3.348  -2.494
    1   AR   Ar  101   3.787   6.050   2.907
    1   AR   Ar  102   3.616   1.665   2.644
    1   AR   Ar  103   1.796   4.169   1.440
    1   AR   Ar  104   3.436   0.337  -1.078
    1   AR   Ar  105   2.692   2.386   2.603
    1   AR   Ar  106   4.487   1.334   3.938
    1   AR   Ar  107   1.013   4.716   5.405
    1   AR   Ar  108   2.255   0.517   3.856
    1   AR   Ar  109   2.355   4.742   5.173
    1   AR   Ar  110   1.948   2.124   4.579
    1   AR   Ar  111   3.655   4.382   6.775
    1   AR   Ar  112   6.436   6.282   5.655
    1   AR   Ar  113   6.986   5.657  -1.537
    1   AR   Ar  114   2.936   6.835  -0.030
    1   AR   Ar  115   0.662   4.932   0.042
    1   AR   Ar  116   5.083   0.646   0.787
    1   AR   Ar  117   6.969   4.167   3.339
    1   AR   Ar  118   2.022   6.478   3.786
    1   AR   Ar  119   1.763   3.429   2.752
    1   AR   Ar  120   2.072   0.014   2.913
    1   AR   Ar  121   5.266   4.060   6.203
    1   AR   Ar  122   2.818   5.656   3.634
    1   AR   Ar  123   3.830   2.016   4.726
    1   AR   Ar  124   0.771   5.360   1.732
    1   AR   Ar  125   5.961   3.798   3.849
    1   AR   Ar  126   6.800   0.642   7.755
    1   AR   Ar  127   5.116   3.141   5.760
    1   AR   Ar  128   0.757   3.571   6.102
    1   AR   Ar  129   2.076   5.635   4.670
    1   AR   Ar  130   4.431   0.724  -5.112
    1   AR   Ar  131   3.774   6.500  -0.550
    1   AR   Ar  132   1.308   2.659   0.889
    1   AR   Ar  133   4.036   0.564   4.775
    1   AR   Ar  134   2.688   1.431   4.263
    1   AR   Ar  135   6.337   6.799   4.707
    1   AR   Ar  136   5.523   6.665   2.579
    1   AR   Ar  137   2.240   4.452   6.104
    1   AR   Ar  138   5.996   1.224   5.800
    1   AR   Ar  139   6.239   1.643   4.690
    1   AR   Ar  140   4.414   6.789   5.198
    1   AR   Ar  141   3.578   5.297   4.834
    1   AR   Ar  142   4.843   6.366   8.062
    1   AR   Ar  143   5.517   6.835   6.892
    1   AR   Ar  144   7.058   2.545   4.841
    1   AR   Ar  145   5.011   4.983  -1.129
    1   AR   Ar  146   3.605   2.153   3.683
    1   AR   Ar  147   5.330   4.133  -0.028
    1   AR   Ar  148   2.670   6.056  -0.872
    1   AR   Ar  149   0.349   2.529  -0.679
    1   AR   Ar  150   1.530   2.299   2.227
    1   AR   Ar  151   2.735   3.702   2.318
    1   AR   Ar  152   1.068   0.932  -1.013
    1   AR   Ar  153   5.448   0.443   3.362
    1   AR   Ar  154   4.836   3.045   3.606
    1   AR   Ar  155   6.234   3.325   5.413
    1   AR   Ar  156   3.222   4.238   3.016
    1   AR   Ar  157   3.042   5.722   6.799
    1   AR   Ar  158   0.618   2.778   6.831
    1   AR   Ar  159   3.718   0.418   5.859
    1   AR   Ar  160   1.372   1.169   4.285
    1   AR   Ar  161   4.946   4.497   2.974
    1   AR   Ar  162   4.076   5.495  -0.649
    1   AR   Ar  163   6.117   3.892   2.258
    1   AR   Ar  164   2.256   6.014   2.857
    1   AR   Ar  165   3.171   4.454   0.854
    1   AR   Ar  166   2.716   3.841   5.304
    1   AR   Ar  167   6.131   6.834   3.743
    1   AR   Ar  168   5.610   4.460  -2.330
    1   AR   Ar  169   3.957   3.668   3.614
    1   AR   Ar  170   2.924   2.689   6.016
    1   AR   Ar  171   4.716   5.675   4.286
    1   AR   Ar  172   3.977   3.287   4.664
    1   AR   Ar  173   1.825   1.837   7.116
    1   AR   Ar  174   3.115   6.144   4.481
    1   AR   Ar  175   2.599   0.054   7.047
    1   AR   Ar  176   3.116   3.137   4.133
    1   AR   Ar  177   0.245   4.190  -0.859
    1   AR   Ar  178   2.220   6.354   0.632
    1   AR   Ar  179   3.555   6.295   0.577
    1   AR   Ar  180   5.205   0.031  -7.433
    1   AR   Ar  181   0.006   6.563   1.785
    1   AR   Ar  182   1.211   6.499   3.015
    1   AR   Ar  183   5.019   5.333   1.295
    1   AR   Ar  184   4.470   5.594   0.489
    1   AR   Ar  185   3.363   4.390   4.248
    1   AR   Ar  186   3.079   6.826   3.155
    1   AR   Ar  187   3.846   6.627   3.916
    1   AR   Ar  188   3.141   0.999   1.663
    1   AR   Ar  189   6.131   2.247   5.483
    1   AR   Ar  190   1.269   0.001   4.212
    1   AR   Ar  191   3.923   6.093   5.963
    1   AR   Ar  192   4.085   3.626   6.274
    1   AR   Ar  193   3.227   6.172   1.957
    1   AR   Ar  194   4.989   6.182  -0.335
    1   AR   Ar  195   6.294   0.958   1.225
    1   AR   Ar  196   4.276   7.053   0.487
    1   AR   Ar  197   4.838   3.092   0.152
    1   AR   Ar  198   6.417   7.045   1.255
    1   AR   Ar  199   0.302   0.334   2.040
    1   AR   Ar  200   6.299   2.695  -0.068
    1   AR   Ar  201   6.476   5.698   2.562
    1   AR   Ar  202   5.214   0.446   4.716
    1   AR   Ar  203   0.210   7.057   3.476
    1   AR   Ar  204   4.546   4.478   7.365
    1   AR   Ar  205   5.478   1.649   1.776
    1   AR   Ar  206   6.476   0.369   5.721
    1   AR   Ar  207   6.794   3.586   4.485
    1   AR   Ar  208   0.645   5.981   3.738
    1   AR   Ar  209   6.171   1.965  -1.839
    1   AR   Ar  210   2.060   0.811  -0.761
    1   AR   Ar  211   7.109   2.923   0.740
    1   AR   Ar  212   6.596   3.762  -0.163
    1   AR   Ar  213   3.524   1.943   0.890
    1   AR   Ar  214   4.933   4.211   1.882
    1   AR   Ar  215   0.450   2.663   2.296
    1   AR   Ar  216   1.866   2.140  -0.389
    1   AR   Ar  217   5.278   1.903   4.053
    1   AR   Ar  218   5.044   2.678   4.825
    1   AR   Ar  219   4.097   3.998   2.548
    1   AR   Ar  220   4.220   4.514   1.202
    1   AR   Ar  221   6.656   5.740   3.814
    1   AR   Ar  222   5.153   7.027   5.825
    1   AR   Ar  223   6.870   1.578   5.597
    1   AR   Ar  224   5.054   1.664   5.083
    1   AR   Ar  225   6.567   2.209   2.491
    1   AR   Ar  226   2.293   3.681   3.992
    1   AR   Ar  227   1.202   2.558   3.137
    1   AR   Ar  228   6.165   0.746   2.557
    1   AR   Ar  229   6.159   4.668  -1.025
    1   AR   Ar  230   4.103   5.157   3.349
    1   AR   Ar  231   4.948   2.281   2.619
    1   AR   Ar  232   5.161   3.044   1.803
    1   AR   Ar  233   6.628   2.097   3.581
    1   AR   Ar  234   6.065   2.650   4.402
    1   AR   Ar  235   6.321   0.948   3.910
    1   AR   Ar  236   3.926   4.343   5.077
    1   AR   Ar  237   4.483   0.756   7.667
    1   AR   Ar  238   4.474   5.261   6.582
    1   AR   Ar  239   1.275   4.208  11.189
    1   AR   Ar  240   1.740   3.460   6.591
    1   AR   Ar  241   1.551   7.091   0.635
    1   AR   Ar  242   5.625   6.385   1.534
    1   AR   Ar  243   4.518   6.421   2.072
    1   AR   Ar  244   6.555   5.980   0.580
    1   AR   Ar  245   3.360   0.852   3.574
    1   AR   Ar  246   5.153   6.747  -1.242
    1   AR   Ar  247   6.963   3.776   1.648
    1   AR   Ar  248   5.870   5.576  -0.246
    1   AR   Ar  249   3.562   7.026   1.553
    1   AR   Ar  250   4.984   6.721   3.827
    1   AR   Ar  251   5.041   4.404   5.039
    1   AR   Ar  252   2.946   5.245   2.581
    1   AR   Ar  253   4.508   2.445   8.597
    1   AR   Ar  254   4.702   3.701  12.141
    1   AR   Ar  255   4.715   0.115   8.571
    1   AR   Ar  256   5.676   5.794   3.473
    7.12000  7.12000 12.00000
Argon-slab step 5360
  256
    1   AR   Ar    1   4.166   3.354  -2.880
    1   AR   Ar    2   5.240   6.220   0.631
    1   AR   Ar    3   4.042   3.395  -0.705
    1   AR   Ar    4   2.488   1.076   0.667
    1   AR   Ar    5   6.944   5.322  -0.419
    1   AR   Ar    6   0.981   1.233   2.520
    1   AR   Ar    7   5.948   4.924   3.354
    1   AR   Ar    8   6.549   3.444  -1.166
    1   AR   Ar    9   0.209   6.210   4.719
    1   AR   Ar   10   6.056   4.717   5.620
    1   AR   Ar   11   1.187   6.771   5.312
    1   AR   Ar   12   0.239   1.725   4.236
    1   AR   Ar   13   0.245   0.061   4.910
    1   AR   Ar   14   3.540   0.624   6.901
    1   AR   Ar   15   2.411   6.047   9.574
    1   AR   Ar   16   0.447   0.107   6.036
    1   AR   Ar   17   6.078   3.517   0.989
    1   AR   Ar   18   0.020   4.636  -1.917
    1   AR   Ar   19   5.583   4.772   0.746
    1   AR   Ar   20   6.580   3.697  -2.614
    1   AR   Ar   21   2.271   1.318   2.043
    1   AR   Ar   22   5.356   0.183   1.795
    1   AR   Ar   23   0.969   5.992   0.910
    1   AR   Ar   24   5.764   2.823   3.156
    1   AR   Ar   25   1.098   2.835   5.162
    1   AR   Ar   26   5.747   5.996   4.503
    1   AR   Ar   27   1.287   0.387   1.504
    1   AR   Ar   28   2.260   2.703   3.701
    1   AR   Ar   29   5.568   1.335   8.040
    1   AR   Ar   30   7.043   1.072   3.194
    1   AR   Ar   31   1.219   0.273   6.813
    1   AR   Ar   32   0.954   1.890   5.561
    1   AR   Ar   33   6.679   4.530   1.040
    1   AR   Ar   34   1.683   5.037   2.652
    1   AR   Ar   35   4.960   5.438   2.532
    1   AR   Ar   36   4.688   2.473  -3.318
    1   AR   Ar   37   3.985   3.582   1.359
    1   AR   Ar   38   5.615   4.933   4.356
    1   AR   Ar   39   0.471   2.737   4.059
    1   AR   Ar   40   0.874   4.263   2.138
    1   AR   Ar   41   0.783   1.690   3.420
    1   AR   Ar   42   5.179   5.456   5.567
    1   AR   Ar   43   6.997   2.827   5.918
    1   AR   Ar   44   0.842   3.681   2.994
    1   AR   Ar   45   1.566   3.841   5.403
    1   AR   Ar   46   6.097   4.900   6.745
    1   AR   Ar   47   2.964   3.566   6.738
    1   AR   Ar   48   6.907   3.179   7.435
    1   AR   Ar   49   0.572   1.062   0.938
    1   AR   Ar   50   2.950   4.077  -0.270
    1   AR   Ar   51   5.300   3.633   2.782
    1   AR   Ar   52   5.300   3.832  -1.451
    1   AR   Ar   53   4.395   0.358   3.430
    1   AR   Ar   54   6.582   6.719   2.728
    1   AR   Ar   55   7.033   4.768   2.022
    1   AR   Ar   56   5.881   1.536   3.162
    1   AR   Ar   57   3.966   5.136   2.133
    1   AR   Ar   58   1.079   3.630   4.202
    1   AR   Ar   59   2.829   5.774   5.468
    1   AR   Ar   60   0.325   5.172   2.831
    1   AR   Ar   61   0.017   4.393   6.455
    1   AR   Ar   62   7.043   4.544   5.281
    1   AR   Ar   63   2.789   2.826   7.521
    1   AR   Ar   64   0.629   5.080   4.158
    1   AR   Ar   65   3.957   0.680   2.479
    1   AR   Ar   66   1.405   1.524   1.516
    1   AR   Ar   67   4.422   0.687  -0.862
    1   AR   Ar   68   6.603   0.742  -0.032
    1   AR   Ar   69   2.848   2.168   0.131
    1   AR   Ar   70   7.042   1.343   1.903
    1   AR   Ar   71   2.887   0.605   2.648
    1   AR   Ar   72   4.101   1.069   1.413
    1   AR   Ar   73   3.067   0.083   4.241
    1   AR   Ar   74   1.093   0.567   3.300
    1   AR   Ar   75   2.797   0.647   5.501
    1   AR   Ar   76   2.348   0.376   1.390
    1   AR   Ar   77   1.163   5.696   5.446
    1   AR   Ar   78   0.178   5.573   5.577
    1   AR   Ar   79   3.447   6.778   5.261
    1   AR   Ar   80   3.438   5.078   5.772
    1   AR   Ar   81   2.266   6.522   1.896
    1   AR   Ar   82   6.929   5.641   1.463
    1   AR   Ar   83   0.794   3.387   1.409
    1   AR   Ar   84   0.645   4.487   1.023
    1   AR   Ar   85   0.859   3.109   0.151
    1   AR   Ar   86   1.771   5.117   0.983
    1   AR   Ar   87   3.606   2.901   2.915
    1   AR   Ar   88   3.396   5.455   1.142
    1   AR   Ar   89   6.258   2.429   1.202
    1   AR   Ar   90   3.315   1.550   6.133
    1   AR   Ar   91   1.958   1.114   3.004
    1   AR   Ar   92   2.496   2.265   1.326
    1   AR   Ar   93   1.484   0.641   5.646
    1   AR   Ar   94   7.075   6.603   8.639
    1   AR   Ar   95   5.014   0.934   6.081
    1   AR   Ar   96   2.164   6.942   4.932
    1   AR   Ar   97   3.862   1.722  -1.486
    1   AR   Ar   98   1.575   4.796   4.287
    1   AR   Ar   99   6.650   6.846  -0.375
    1   AR   Ar  100   5.447   3.347  -2.538
    1   AR   Ar  101   3.741   6.042   2.883
    1   AR   Ar  102   3.648   1.682   2.666
    1   AR   Ar  103   1.757   4.150   1.491
    1   AR   Ar  104   3.456   0.349  -1.037
    1   AR   Ar  105   2.705   2.390   2.612
    1   AR   Ar  106   4.476   1.347   3.950
    1   AR   Ar  107   1.032   4.725   5.408
    1   AR   Ar  108   2.254   0.493   3.858
    1   AR   Ar  109   2.335   4.727   5.171
    1   AR   Ar  110   1.923   2.098   4.566
    1   AR   Ar  111   3.641   4.357   6.769
    1   AR   Ar  112   6.444   6.290   5.645
    1   AR   Ar  113   6.963   5.640  -1.550
    1   AR   Ar  114   2.936   6.863  -0.030
    1   AR   Ar  115   0.653   4.903   0.009
    1   AR   Ar  116   5.110   0.667   0.774
    1   AR   Ar  117   6.976   4.137   3.321
    1   AR   Ar  118   1.984   6.463   3.826
    1   AR   Ar  119   1.802   3.401   2.743
    1   AR   Ar  120   2.061   0.003   2.915
    1   AR   Ar  121   5.270   4.064   6.267
    1   AR   Ar  122   2.814   5.664   3.627
    1   AR   Ar  123   3.856   2.016   4.686
    1   AR   Ar  124   0.785   5.363   1.738
    1   AR   Ar  125   5.923   3.850   3.804
    1   AR   Ar  126   6.769   0.685   7.765
    1   AR   Ar  127   5.134   3.158   5.752
    1   AR   Ar  128   0.741   3.567   6.120
    1   AR   Ar  129   2.087   5.675   4.689
    1   AR   Ar  130   4.467   0.736  -5.106
    1   AR   Ar  131   3.781   6.467  -0.541
    1   AR   Ar  132   1.330   2.653   0.927
    1   AR   Ar  133   4.058   0.565   4.781
    1   AR   Ar  134   2.684   1.428   4.271
    1   AR   Ar  135   6.355   6.782   4.713
    1   AR   Ar  136   5.499   6.672   2.591
    1   AR   Ar  137   2.224   4.468   6.096
    1   AR   Ar  138   5.971   1.222   5.789
    1   AR   Ar  139   6.234   1.636   4.683
    1   AR   Ar  140   4.441   6.796   5.189
    1   AR   Ar  141   3.551   5.301   4.806
    1   AR   Ar  142   4.806   6.342   8.088
    1   AR   Ar  143   5.526   6.865   6.953
    1   AR   Ar  144   7.067   2.550   4.857
    1   AR   Ar  145   5.012   4.991  -1.107
    1   AR   Ar  146   3.631   2.166   3.673
    1   AR   Ar  147   5.333   4.154  -0.038
    1   AR   Ar  148   2.638   6.045  -0.870
    1   AR   Ar  149   0.357   2.518  -0.666
    1   AR   Ar  150   1.485   2.279   2.255
    1   AR   Ar  151   2.737   3.713   2.293
    1   AR   Ar  152   1.080   0.940  -0.987
    1   AR   Ar  153   5.491   0.417   3.396
    1   AR   Ar  154   4.860   3.079   3.567
    1   AR   Ar  155   6.228   3.317   5.449
    1   AR   Ar  156   3.207   4.191   3.013
    1   AR   Ar  157   3.028   5.687   6.774
    1   AR   Ar  158   0.613   2.778   6.823
    1   AR   Ar  159   3.775   0.462   5.857
    1   AR   Ar  160   1.386   1.170   4.262
    1   AR   Ar  161   4.947   4.501   2.996
    1   AR   Ar  162   4.084   5.479  -0.656
    1   AR   Ar  163   6.107   3.896   2.257
    1   AR   Ar  164   2.241   6.003   2.865
    1   AR   Ar  165   3.141   4.460   0.843
    1   AR   Ar  166   2.683   3.812   5.328
    1   AR   Ar  167   6.106   6.813   3.742
    1   AR   Ar  168   5.604   4.422  -2.316
    1   AR   Ar  169   3.959   3.657   3.615
    1   AR   Ar  170   2.914   2.658   6.015
    1   AR   Ar  171   4.722   5.704   4.293
    1   AR   Ar  172   3.985   3.300   4.648
    1   AR   Ar  173   1.783   1.840   7.138
    1   AR   Ar  174   3.129   6.140   4.451
    1   AR   Ar  175   2.599   0.022   7.096
    1   AR   Ar  176   3.138   3.150   4.125
    1   AR   Ar  177   0.245   4.201  -0.853
    1   AR   Ar  178   2.242   6.354   0.641
    1   AR   Ar  179   3.577   6.301   0.546
    1   AR   Ar  180   5.202   0.027  -7.455
    1   AR   Ar  181   0.009   6.551   1.783
    1   AR   Ar  182   1.219   6.498   3.038
    1   AR   Ar  183   5.034   5.311   1.300
    1   AR   Ar  184   4.431   5.577   0.480
    1   AR   Ar  185   3.349   4.385   4.259
    1   AR   Ar  186   3.077   6.829   3.204
    1   AR   Ar  187   3.864   6.636   3.951
    1   AR   Ar  188   3.149   0.997   1.684
    1   AR   Ar  189   6.122   2.246   5.507
    1   AR   Ar  190   1.280   0.006   4.229
    1   AR   Ar  191   3.939   6.068   5.924
    1   AR   Ar  192   4.084   3.581   6.280
    1   AR   Ar  193   3.237   6.166   1.949
    1   AR   Ar  194   4.994   6.192  -0.319
    1   AR   Ar  195   6.304   0.943   1.246
    1   AR   Ar  196   4.281   7.043   0.519
    1   AR   Ar  197   4.833   3.083   0.117
    1   AR   Ar  198   6.433   7.090   1.232
    1   AR   Ar  199   0.301   0.332   2.031
    1   AR   Ar  200   6.298   2.726  -0.071
    1   AR   Ar  201   6.480   5.678   2.593
    1   AR   Ar  202   5.210   0.434   4.732
    1   AR   Ar  203   0.196   7.072   3.486
    1   AR   Ar  204   4.545   4.496   7.353
    1   AR   Ar  205   5.444   1.645   1.790
    1   AR   Ar  206   6.502   0.334   5.728
    1   AR   Ar  207   6.788   3.595   4.477
    1   AR   Ar  208   0.627   6.001   3.753
    1   AR   Ar  209   6.122   1.947  -1.845
    1   AR   Ar  210   2.034   0.801  -0.776
    1   AR   Ar  211   7.118   2.909   0.770
    1   AR   Ar  212   6.627   3.762  -0.143
    1   AR   Ar  213   3.547   1.956   0.905
    1   AR   Ar  214   4.921   4.203   1.862
    1   AR   Ar  215   0.453   2.653   2.317
    1   AR   Ar  216   1.897   2.126  -0.393
    1   AR   Ar  217   5.312   1.921   4.058
    1   AR   Ar  218   5.047   2.682   4.842
    1   AR   Ar  219   4.067   3.986   2.542
    1   AR   Ar  220   4.241   4.510   1.188
    1   AR   Ar  221   6.668   5.726   3.796
    1   AR   Ar  222   5.130   7.065   5.825
    1   AR   Ar  223   6.899   1.541   5.593
    1   AR   Ar  224   5.045   1.685   5.108
    1   AR   Ar  225   6.560   2.209   2.509
    1   AR   Ar  226   2.294   3.703   3.988
    1   AR   Ar  227   1.235   2.558   3.134
    1   AR   Ar  228   6.175   0.784   2.529
    1   AR   Ar  229   6.164   4.690  -1.033
    1   AR   Ar  230   4.086   5.188   3.314
    1   AR   Ar  231   4.954   2.294   2.623
    1   AR   Ar  232   5.146   3.042   1.804
    1   AR   Ar  233   6.655   2.092   3.553
    1   AR   Ar  234   6.056   2.664   4.409
    1   AR   Ar  235   6.334   0.934   3.906
    1   AR   Ar  236   3.935   4.343   5.107
    1   AR   Ar  237   4.487   0.808   7.642
    1   AR   Ar  238   4.473   5.278   6.577
    1   AR   Ar  239   1.283   4.198  11.184
    1   AR   Ar  240   1.728   3.478   6.577
    1   AR   Ar  241   1.554   7.085   0.623
    1   AR   Ar  242   5.635   6.389   1.531
    1   AR   Ar  243   4.558   6.403   2.074
    1   AR   Ar  244   6.558   5.972   0.577
    1   AR   Ar  245   3.386   0.849   3.579
    1   AR   Ar  246   5.131   6.704  -1.254
    1   AR   Ar  247   6.962   3.742   1.645
    1   AR   Ar  248   5.906   5.576  -0.254
    1   AR   Ar  249   3.559   7.010   1.539
    1   AR   Ar  250   4.951   6.731   3.821
    1   AR   Ar  251   5.027   4.394   5.066
    1   AR   Ar  252   2.932   5.232   2.599
    1   AR   Ar  253   4.530   2.441   8.594
    1   AR   Ar  254   4.688   3.730  12.153
    1   AR   Ar  255   4.740   0.124   8.581
    1   AR   Ar  256   5.691   5.833   3.488
    7.12000  7.12000 12.00000
Argon-slab step 5365
  256
    1   AR   Ar    1   4.172   3.374  -2.865
    1   AR   Ar    2   5.235   6.206   0.640
    1   AR   Ar    3   4.060   3.411  -0.703
    1   AR   Ar    4   2.501   1.066   0.708
    1   AR   Ar    5   6.919   5.352  -0.417
    1   AR   Ar    6   0.959   1.239   2.518
    1   AR   Ar    7   5.976   4.916   3.359
    1   AR   Ar    8   6.548   3.429  -1.158
    1   AR   Ar    9   0.244   6.209   4.705
    1   AR   Ar   10   6.039   4.690   5.658
    1   AR   Ar   11   1.170   6.802   5.327
    1   AR   Ar   12   0.259   1.738   4.228
    1   AR   Ar   13   0.205   0.039   4.947
    1   AR   Ar   14   3.534   0.636   6.908
    1   AR   Ar   15   2.381   6.013   9.601
    1   AR   Ar   16   0.447   0.107   6.045
    1   AR   Ar   17   6.098   3.508   0.992
    1   AR   Ar   18   7.091   4.629  -1.944
    1   AR   Ar   19   5.598   4.767   0.771
    1   AR   Ar   20   6.608   3.711  -2.586
    1   AR   Ar   21   2.315   1.319   2.068
    1   AR   Ar   22   5.369   0.167   1.817
    1   AR   Ar   23   0.972   5.994   0.903
    1   AR   Ar   24   5.766   2.801   3.154
    1   AR   Ar   25   1.110   2.845   5.192
    1   AR   Ar   26   5.733   5.978   4.503
    1   AR   Ar   27   1.267   0.385   1.508
    1   AR   Ar   28   2.215   2.688   3.711
    1   AR   Ar   29   5.592   1.321   8.045
    1   AR   Ar   30   7.049   1.059   3.154
    1   AR   Ar   31   1.203   0.262   6.824
    1   AR   Ar   32   0.954   1.872   5.605
    1   AR   Ar   33   6.651   4.544   1.034
    1   AR   Ar   34   1.685   5.023   2.677
    1   AR   Ar   35   4.962   5.448   2.501
    1   AR   Ar   36   4.635   2.475  -3.350
    1   AR   Ar   37   3.976   3.567   1.364
    1   AR   Ar   38   5.627   4.926   4.356
    1   AR   Ar   39   0.468   2.740   4.030
    1   AR   Ar   40   0.865   4.283   2.117
    1   AR   Ar   41   0.766   1.633   3.433
    1   AR   Ar   42   5.150   5.500   5.556
    1   AR   Ar   43   7.002   2.838   5.876
    1   AR   Ar   44   0.858   3.670   3.002
    1   AR   Ar   45   1.605   3.859   5.414
    1   AR   Ar   46   6.071   4.956   6.734
    1   AR   Ar   47   2.961   3.576   6.724
    1   AR   Ar   48   6.905   3.150   7.422
    1   AR   Ar   49   0.598   1.088   0.927
    1   AR   Ar   50   2.909   4.073  -0.268
    1   AR   Ar   51   5.284   3.611   2.777
    1   AR   Ar   52   5.300   3.789  -1.457
    1   AR   Ar   53   4.409   0.329   3.437
    1   AR   Ar   54   6.617   6.683   2.712
    1   AR   Ar   55   7.011   4.764   2.026
    1   AR   Ar   56   5.871   1.532   3.162
    1   AR   Ar   57   3.982   5.156   2.170
    1   AR   Ar   58   1.056   3.646   4.236
    1   AR   Ar   59   2.833   5.758   5.478
    1   AR   Ar   60   0.354   5.160   2.846
    1   AR   Ar   61   0.018   4.407   6.469
    1   AR   Ar   62   7.055   4.545   5.278
    1   AR   Ar   63   2.766   2.789   7.490
    1   AR   Ar   64   0.627   5.063   4.111
    1   AR   Ar   65   3.944   0.676   2.504
    1   AR   Ar   66   1.392   1.536   1.549
    1   AR   Ar   67   4.410   0.709  -0.860
    1   AR   Ar   68   6.581   0.721   0.025
    1   AR   Ar   69   2.807   2.185   0.117
    1   AR   Ar   70   7.041   1.378   1.912
    1   AR   Ar   71   2.913   0.597   2.635
    1   AR   Ar   72   4.108   1.060   1.432
    1   AR   Ar   73   3.077   0.102   4.202
    1   AR   Ar   74   1.062   0.542   3.326
    1   AR   Ar   75   2.782   0.652   5.494
    1   AR   Ar   76   2.348   0.381   1.391
    1   AR   Ar   77   1.168   5.671   5.464
    1   AR   Ar   78   0.193   5.540   5.584
    1   AR   Ar   79   3.437   6.798   5.253
    1   AR   Ar   80   3.409   5.025   5.804
    1   AR   Ar   81   2.270   6.541   1.886
    1   AR   Ar   82   6.930   5.618   1.494
    1   AR   Ar   83   0.784   3.404   1.427
    1   AR   Ar   84   0.615   4.474   1.028
    1   AR   Ar   85   0.862   3.101   0.132
    1   AR   Ar   86   1.772   5.139   1.005
    1   AR   Ar   87   3.610   2.905   2.922
    1   AR   Ar   88   3.405   5.471   1.153
    1   AR   Ar   89   6.278   2.442   1.207
    1   AR   Ar   90   3.278   1.556   6.131
    1   AR   Ar   91   1.960   1.096   3.050
    1   AR   Ar   92   2.511   2.246   1.326
    1   AR   Ar   93   1.493   0.612   5.670
    1   AR   Ar   94   7.054   6.601   8.653
    1   AR   Ar   95   5.026   0.933   6.107
    1   AR   Ar   96   2.188   6.949   4.938
    1   AR   Ar   97   3.901   1.701  -1.505
    1   AR   Ar   98   1.572   4.778   4.277
    1   AR   Ar   99   6.661   6.811  -0.390
    1   AR   Ar  100   5.428   3.346  -2.582
    1   AR   Ar  101   3.695   6.038   2.858
    1   AR   Ar  102   3.678   1.700   2.689
    1   AR   Ar  103   1.749   4.134   1.535
    1   AR   Ar  104   3.472   0.358  -0.995
    1   AR   Ar  105   2.716   2.393   2.621
    1   AR   Ar  106   4.454   1.371   3.974
    1   AR   Ar  107   1.047   4.725   5.409
    1   AR   Ar  108   2.243   0.471   3.857
    1   AR   Ar  109   2.313   4.726   5.151
    1   AR   Ar  110   1.895   2.075   4.554
    1   AR   Ar  111   3.625   4.342   6.764
    1   AR   Ar  112   6.453   6.297   5.635
    1   AR   Ar  113   6.939   5.624  -1.561
    1   AR   Ar  114   2.931   6.897  -0.034
    1   AR   Ar  115   0.648   4.871  -0.022
    1   AR   Ar  116   5.122   0.658   0.765
    1   AR   Ar  117   6.982   4.108   3.303
    1   AR   Ar  118   1.951   6.447   3.867
    1   AR   Ar  119   1.840   3.368   2.754
    1   AR   Ar  120   2.049   7.111   2.914
    1   AR   Ar  121   5.274   4.072   6.331
    1   AR   Ar  122   2.812   5.668   3.619
    1   AR   Ar  123   3.884   2.015   4.649
    1   AR   Ar  124   0.803   5.363   1.748
    1   AR   Ar  125   5.884   3.901   3.757
    1   AR   Ar  126   6.736   0.727   7.775
    1   AR   Ar  127   5.153   3.174   5.746
    1   AR   Ar  128   0.723   3.565   6.135
    1   AR   Ar  129   2.075   5.679   4.701
    1   AR   Ar  130   4.503   0.748  -5.100
    1   AR   Ar  131   3.789   6.437  -0.532
    1   AR   Ar  132   1.357   2.639   0.968
    1   AR   Ar  133   4.078   0.568   4.784
    1   AR   Ar  134   2.683   1.422   4.278
    1   AR   Ar  135   6.378   6.771   4.726
    1   AR   Ar  136   5.476   6.675   2.610
    1   AR   Ar  137   2.214   4.470   6.098
    1   AR   Ar  138   5.937   1.220   5.778
    1   AR   Ar  139   6.230   1.628   4.675
    1   AR   Ar  140   4.469   6.796   5.169
    1   AR   Ar  141   3.529   5.304   4.770
    1   AR   Ar  142   4.769   6.314   8.111
    1   AR   Ar  143   5.534   6.896   7.013
    1   AR   Ar  144   7.067   2.552   4.887
    1   AR   Ar  145   5.015   4.997  -1.083
    1   AR   Ar  146   3.656   2.178   3.662
    1   AR   Ar  147   5.336   4.171  -0.052
    1   AR   Ar  148   2.606   6.036  -0.865
    1   AR   Ar  149   0.367   2.503  -0.649
    1   AR   Ar  150   1.447   2.253   2.267
    1   AR   Ar  151   2.734   3.718   2.259
    1   AR   Ar  152   1.080   0.951  -0.964
    1   AR   Ar  153   5.532   0.399   3.425
    1   AR   Ar  154   4.878   3.110   3.533
    1   AR   Ar  155   6.218   3.314   5.481
    1   AR   Ar  156   3.190   4.153   3.025
    1   AR   Ar  157   3.016   5.652   6.746
    1   AR   Ar  158   0.609   2.776   6.814
    1   AR   Ar  159   3.837   0.507   5.857
    1   AR   Ar  160   1.401   1.169   4.237
    1   AR   Ar  161   4.941   4.518   3.024
    1   AR   Ar  162   4.095   5.459  -0.661
    1   AR   Ar  163   6.119   3.896   2.262
    1   AR   Ar  164   2.222   5.996   2.869
    1   AR   Ar  165   3.134   4.434   0.853
    1   AR   Ar  166   2.656   3.772   5.353
    1   AR   Ar  167   6.085   6.787   3.736
    1   AR   Ar  168   5.593   4.435  -2.323
    1   AR   Ar  169   3.963   3.649   3.615
    1   AR   Ar  170   2.904   2.628   6.014
    1   AR   Ar  171   4.723   5.716   4.292
    1   AR   Ar  172   4.000   3.313   4.637
    1   AR   Ar  173   1.740   1.843   7.159
    1   AR   Ar  174   3.135   6.143   4.428
    1   AR   Ar  175   2.598   7.111   7.144
    1   AR   Ar  176   3.161   3.159   4.114
    1   AR   Ar  177   0.242   4.214  -0.847
    1   AR   Ar  178   2.270   6.347   0.653
    1   AR   Ar  179   3.596   6.296   0.524
    1   AR   Ar  180   5.198   0.023  -7.476
    1   AR   Ar  181   0.014   6.533   1.785
    1   AR   Ar  182   1.227   6.497   3.059
    1   AR   Ar  183   5.037   5.302   1.323
    1   AR   Ar  184   4.386   5.558   0.467
    1   AR   Ar  185   3.331   4.377   4.265
    1   AR   Ar  186   3.073   6.831   3.253
    1   AR   Ar  187   3.892   6.645   3.982
    1   AR   Ar  188   3.158   0.994   1.705
    1   AR   Ar  189   6.110   2.251   5.531
    1   AR   Ar  190   1.287   0.014   4.248
    1   AR   Ar  191   3.955   6.042   5.885
    1   AR   Ar  192   4.086   3.532   6.281
    1   AR   Ar  193   3.255   6.167   1.956
    1   AR   Ar  194   5.002   6.206  -0.318
    1   AR   Ar  195   6.309   0.939   1.266
    1   AR   Ar  196   4.290   7.036   0.551
    1   AR   Ar  197   4.827   3.076   0.082
    1   AR   Ar  198   6.463   7.081   1.223
    1   AR   Ar  199   0.315   0.327   2.022
    1   AR   Ar  200   6.298   2.758  -0.072
    1   AR   Ar  201   6.482   5.654   2.624
    1   AR   Ar  202   5.207   0.423   4.748
    1   AR   Ar  203   0.182   7.086   3.498
    1   AR   Ar  204   4.545   4.513   7.341
    1   AR   Ar  205   5.411   1.641   1.805
    1   AR   Ar  206   6.530   0.295   5.732
    1   AR   Ar  207   6.782   3.602   4.468
    1   AR   Ar  208   0.624   5.987   3.751
    1   AR   Ar  209   6.072   1.929  -1.850
    1   AR   Ar  210   2.013   0.790  -0.798
    1   AR   Ar  211   0.006   2.897   0.799
    1   AR   Ar  212   6.658   3.764  -0.120
    1   AR   Ar  213   3.547   1.928   0.909
    1   AR   Ar  214   4.916   4.194   1.848
    1   AR   Ar  215   0.456   2.644   2.338
    1   AR   Ar  216   1.925   2.110  -0.398
    1   AR   Ar  217   5.352   1.943   4.061
    1   AR   Ar  218   5.049   2.690   4.853
    1   AR   Ar  219   4.044   3.971   2.531
    1   AR   Ar  220   4.259   4.523   1.166
    1   AR   Ar  221   6.684   5.712   3.779
    1   AR   Ar  222   5.114   7.062   5.836
    1   AR   Ar  223   6.940   1.506   5.586
    1   AR   Ar  224   5.038   1.700   5.134
    1   AR   Ar  225   6.551   2.208   2.524
    1   AR   Ar  226   2.290   3.734   3.985
    1   AR   Ar  227   1.264   2.570   3.149
    1   AR   Ar  228   6.187   0.817   2.497
    1   AR   Ar  229   6.170   4.712  -1.040
    1   AR   Ar  230   4.070   5.211   3.282
    1   AR   Ar  231   4.961   2.306   2.629
    1   AR   Ar  232   5.133   3.041   1.806
    1   AR   Ar  233   6.684   2.090   3.529
    1   AR   Ar  234   6.047   2.681   4.415
    1   AR   Ar  235   6.343   0.915   3.907
    1   AR   Ar  236   3.946   4.341   5.142
    1   AR   Ar  237   4.492   0.859   7.617
    1   AR   Ar  238   4.470   5.294   6.570
    1   AR   Ar  239   1.291   4.188  11.179
    1   AR   Ar  240   1.719   3.496   6.562
    1   AR   Ar  241   1.553   7.083   0.606
    1   AR   Ar  242   5.651   6.383   1.534
    1   AR   Ar  243   4.596   6.384   2.074
    1   AR   Ar  244   6.559   5.968   0.567
    1   AR   Ar  245   3.414   0.849   3.583
    1   AR   Ar  246   5.108   6.662  -1.267
    1   AR   Ar  247   6.961   3.703   1.645
    1   AR   Ar  248   5.940   5.576  -0.261
    1   AR   Ar  249   3.559   7.005   1.521
    1   AR   Ar  250   4.925   6.732   3.819
    1   AR   Ar  251   5.013   4.383   5.096
    1   AR   Ar  252   2.920   5.219   2.616
    1   AR   Ar  253   4.552   2.436   8.591
    1   AR   Ar  254   4.674   3.759  12.165
    1   AR   Ar  255   4.766   0.138   8.593
    1   AR   Ar  256   5.693   5.892   3.498
    7.12000  7.12000 12.00000
Argon-slab step 5370
  256
    1   AR   Ar    1   4.179   3.393  -2.849
    1   AR   Ar    2   5.231   6.192   0.652
    1   AR   Ar    3   4.077   3.427  -0.700
    1   AR   Ar    4   2.516   1.068   0.741
    1   AR   Ar    5   6.898   5.381  -0.418
    1   AR   Ar    6   0.938   1.244   2.508
    1   AR   Ar    7   6.008   4.902   3.359
    1   AR   Ar    8   6.546   3.415  -1.150
    1   AR   Ar    9   0.278   6.195   4.690
    1   AR   Ar   10   6.021   4.661   5.695
    1   AR   Ar   11   1.152   6.827   5.340
    1   AR   Ar   12   0.269   1.748   4.242
    1   AR   Ar   13   0.167   0.032   4.987
    1   AR   Ar   14   3.528   0.649   6.916
    1   AR   Ar   15   2.351   5.980   9.627
    1   AR   Ar   16   0.447   0.107   6.053
    1   AR   Ar   17   6.117   3.500   0.995
    1   AR   Ar   18   7.041   4.619  -1.971
    1   AR   Ar   19   5.626   4.753   0.785
    1   AR   Ar   20   6.633   3.726  -2.557
    1   AR   Ar   21   2.347   1.326   2.096
    1   AR   Ar   22   5.345   0.153   1.841
    1   AR   Ar   23   0.974   5.997   0.895
    1   AR   Ar   24   5.779   2.772   3.155
    1   AR   Ar   25   1.120   2.859   5.220
    1   AR   Ar   26   5.720   5.961   4.511
    1   AR   Ar   27   1.246   0.386   1.517
    1   AR   Ar   28   2.180   2.670   3.706
    1   AR   Ar   29   5.615   1.305   8.048
    1   AR   Ar   30   7.056   1.047   3.110
    1   AR   Ar   31   1.187   0.251   6.835
    1   AR   Ar   32   0.952   1.851   5.648
    1   AR   Ar   33   6.621   4.559   1.024
    1   AR   Ar   34   1.686   5.010   2.702
    1   AR   Ar   35   4.967   5.445   2.480
    1   AR   Ar   36   4.582   2.478  -3.382
    1   AR   Ar   37   3.965   3.546   1.371
    1   AR   Ar   38   5.638   4.919   4.358
    1   AR   Ar   39   0.469   2.748   3.993
    1   AR   Ar   40   0.854   4.305   2.097
    1   AR   Ar   41   0.774   1.608   3.434
    1   AR   Ar   42   5.120   5.544   5.545
    1   AR   Ar   43   7.016   2.845   5.844
    1   AR   Ar   44   0.872   3.657   3.013
    1   AR   Ar   45   1.641   3.872   5.425
    1   AR   Ar   46   6.044   5.011   6.723
    1   AR   Ar   47   2.954   3.581   6.706
    1   AR   Ar   48   6.903   3.121   7.409
    1   AR   Ar   49   0.623   1.113   0.916
    1   AR   Ar   50   2.869   4.070  -0.265
    1   AR   Ar   51   5.266   3.590   2.762
    1   AR   Ar   52   5.302   3.746  -1.463
    1   AR   Ar   53   4.413   0.313   3.438
    1   AR   Ar   54   6.652   6.652   2.699
    1   AR   Ar   55   6.986   4.750   2.030
    1   AR   Ar   56   5.853   1.530   3.160
    1   AR   Ar   57   3.997   5.175   2.206
    1   AR   Ar   58   1.041   3.657   4.247
    1   AR   Ar   59   2.831   5.752   5.484
    1   AR   Ar   60   0.386   5.151   2.866
    1   AR   Ar   61   0.018   4.420   6.481
    1   AR   Ar   62   7.050   4.534   5.264
    1   AR   Ar   63   2.741   2.752   7.459
    1   AR   Ar   64   0.616   5.040   4.068
    1   AR   Ar   65   3.933   0.670   2.528
    1   AR   Ar   66   1.379   1.544   1.576
    1   AR   Ar   67   4.393   0.712  -0.850
    1   AR   Ar   68   6.573   0.705   0.062
    1   AR   Ar   69   2.771   2.202   0.108
    1   AR   Ar   70   7.042   1.415   1.924
    1   AR   Ar   71   2.934   0.588   2.624
    1   AR   Ar   72   4.125   1.051   1.449
    1   AR   Ar   73   3.093   0.117   4.180
    1   AR   Ar   74   1.033   0.517   3.353
    1   AR   Ar   75   2.768   0.656   5.486
    1   AR   Ar   76   2.346   0.375   1.399
    1   AR   Ar   77   1.187   5.668   5.481
    1   AR   Ar   78   0.197   5.506   5.592
    1   AR   Ar   79   3.411   6.814   5.231
    1   AR   Ar   80   3.386   4.963   5.843
    1   AR   Ar   81   2.271   6.562   1.876
    1   AR   Ar   82   6.926   5.588   1.520
    1   AR   Ar   83   0.780   3.421   1.444
    1   AR   Ar   84   0.586   4.462   1.034
    1   AR   Ar   85   0.869   3.088   0.111
    1   AR   Ar   86   1.771   5.162   1.027
    1   AR   Ar   87   3.614   2.914   2.927
    1   AR   Ar   88   3.415   5.484   1.166
    1   AR   Ar   89   6.272   2.413   1.222
    1   AR   Ar   90   3.242   1.560   6.128
    1   AR   Ar   91   1.961   1.081   3.097
    1   AR   Ar   92   2.524   2.225   1.325
    1   AR   Ar   93   1.503   0.586   5.696
    1   AR   Ar   94   7.032   6.600   8.666
    1   AR   Ar   95   5.029   0.934   6.136
    1   AR   Ar   96   2.214   6.956   4.941
    1   AR   Ar   97   3.940   1.679  -1.523
    1   AR   Ar   98   1.578   4.756   4.270
    1   AR   Ar   99   6.671   6.775  -0.404
    1   AR   Ar  100   5.419   3.350  -2.569
    1   AR   Ar  101   3.650   6.039   2.836
    1   AR   Ar  102   3.706   1.719   2.711
    1   AR   Ar  103   1.790   4.124   1.568
    1   AR   Ar  104   3.479   0.364  -0.953
    1   AR   Ar  105   2.723   2.395   2.629
    1   AR   Ar  106   4.430   1.392   3.998
    1   AR   Ar  107   1.058   4.709   5.408
    1   AR   Ar  108   2.221   0.453   3.854
    1   AR   Ar  109   2.292   4.733   5.118
    1   AR   Ar  110   1.864   2.056   4.545
    1   AR   Ar  111   3.613   4.337   6.759
    1   AR   Ar  112   6.463   6.301   5.629
    1   AR   Ar  113   6.914   5.608  -1.570
    1   AR   Ar  114   2.924   6.933  -0.039
    1   AR   Ar  115   0.645   4.838  -0.050
    1   AR   Ar  116   5.134   0.647   0.759
    1   AR   Ar  117   6.987   4.080   3.285
    1   AR   Ar  118   1.915   6.409   3.873
    1   AR   Ar  119   1.877   3.331   2.777
    1   AR   Ar  120   2.039   7.100   2.912
    1   AR   Ar  121   5.278   4.083   6.395
    1   AR   Ar  122   2.813   5.664   3.609
    1   AR   Ar  123   3.913   2.015   4.618
    1   AR   Ar  124   0.824   5.359   1.760
    1   AR   Ar  125   5.843   3.950   3.709
    1   AR   Ar  126   6.703   0.770   7.786
    1   AR   Ar  127   5.171   3.193   5.743
    1   AR   Ar  128   0.705   3.565   6.145
    1   AR   Ar  129   2.063   5.686   4.710
    1   AR   Ar  130   4.539   0.759  -5.094
    1   AR   Ar  131   3.798   6.412  -0.524
    1   AR   Ar  132   1.388   2.621   1.012
    1   AR   Ar  133   4.096   0.574   4.783
    1   AR   Ar  134   2.684   1.414   4.283
    1   AR   Ar  135   6.401   6.765   4.739
    1   AR   Ar  136   5.456   6.674   2.639
    1   AR   Ar  137   2.208   4.462   6.107
    1   AR   Ar  138   5.915   1.227   5.774
    1   AR   Ar  139   6.226   1.620   4.668
    1   AR   Ar  140   4.490   6.787   5.137
    1   AR   Ar  141   3.512   5.299   4.736
    1   AR   Ar  142   4.733   6.284   8.131
    1   AR   Ar  143   5.542   6.928   7.072
    1   AR   Ar  144   7.063   2.551   4.918
    1   AR   Ar  145   5.020   5.003  -1.059
    1   AR   Ar  146   3.679   2.187   3.650
    1   AR   Ar  147   5.338   4.186  -0.070
    1   AR   Ar  148   2.576   6.027  -0.860
    1   AR   Ar  149   0.375   2.488  -0.632
    1   AR   Ar  150   1.417   2.226   2.265
    1   AR   Ar  151   2.729   3.718   2.216
    1   AR   Ar  152   1.063   0.965  -0.943
    1   AR   Ar  153   5.564   0.395   3.446
    1   AR   Ar  154   4.888   3.136   3.510
    1   AR   Ar  155   6.202   3.317   5.506
    1   AR   Ar  156   3.170   4.121   3.051
    1   AR   Ar  157   3.005   5.617   6.716
    1   AR   Ar  158   0.622   2.754   6.827
    1   AR   Ar  159   3.901   0.553   5.857
    1   AR   Ar  160   1.415   1.166   4.210
    1   AR   Ar  161   4.931   4.542   3.055
    1   AR   Ar  162   4.108   5.436  -0.666
    1   AR   Ar  163   6.159   3.887   2.283
    1   AR   Ar  164   2.199   5.994   2.867
    1   AR   Ar  165   3.134   4.400   0.869
    1   AR   Ar  166   2.635   3.728   5.378
    1   AR   Ar  167   6.076   6.758   3.731
    1   AR   Ar  168   5.582   4.447  -2.328
    1   AR   Ar  169   3.967   3.645   3.615
    1   AR   Ar  170   2.894   2.600   6.013
    1   AR   Ar  171   4.706   5.665   4.263
    1   AR   Ar  172   4.024   3.327   4.632
    1   AR   Ar  173   1.698   1.846   7.180
    1   AR   Ar  174   3.137   6.151   4.419
    1   AR   Ar  175   2.598   7.080   7.191
    1   AR   Ar  176   3.177   3.163   4.098
    1   AR   Ar  177   0.239   4.228  -0.842
    1   AR   Ar  178   2.289   6.332   0.675
    1   AR   Ar  179   3.603   6.259   0.527
    1   AR   Ar  180   5.195   0.018  -7.498
    1   AR   Ar  181   0.023   6.514   1.788
    1   AR   Ar  182   1.231   6.497   3.078
    1   AR   Ar  183   5.028   5.307   1.361
    1   AR   Ar  184   4.341   5.538   0.454
    1   AR   Ar  185   3.311   4.365   4.268
    1   AR   Ar  186   3.067   6.830   3.298
    1   AR   Ar  187   3.927   6.652   4.011
    1   AR   Ar  188   3.172   0.988   1.719
    1   AR   Ar  189   6.095   2.259   5.555
    1   AR   Ar  190   1.291   0.023   4.269
    1   AR   Ar  191   3.971   6.015   5.845
    1   AR   Ar  192   4.090   3.481   6.280
    1   AR   Ar  193   3.274   6.172   1.972
    1   AR   Ar  194   5.004   6.217  -0.326
    1   AR   Ar  195   6.310   0.945   1.286
    1   AR   Ar  196   4.304   7.032   0.583
    1   AR   Ar  197   4.823   3.069   0.047
    1   AR   Ar  198   6.492   7.063   1.211
    1   AR   Ar  199   0.329   0.334   2.018
    1   AR   Ar  200   6.298   2.788  -0.073
    1   AR   Ar  201   6.490   5.647   2.624
    1   AR   Ar  202   5.204   0.412   4.763
    1   AR   Ar  203   0.165   7.098   3.511
    1   AR   Ar  204   4.546   4.528   7.327
    1   AR   Ar  205   5.380   1.636   1.820
    1   AR   Ar  206   6.557   0.255   5.736
    1   AR   Ar  207   6.776   3.609   4.460
    1   AR   Ar  208   0.645   6.000   3.729
    1   AR   Ar  209   6.022   1.911  -1.855
    1   AR   Ar  210   2.012   0.775  -0.816
    1   AR   Ar  211   0.015   2.887   0.828
    1   AR   Ar  212   6.689   3.768  -0.094
    1   AR   Ar  213   3.546   1.900   0.914
    1   AR   Ar  214   4.917   4.182   1.841
    1   AR   Ar  215   0.457   2.637   2.359
    1   AR   Ar  216   1.947   2.094  -0.404
    1   AR   Ar  217   5.351   1.946   4.038
    1   AR   Ar  218   5.044   2.700   4.848
    1   AR   Ar  219   4.030   3.956   2.516
    1   AR   Ar  220   4.273   4.547   1.137
    1   AR   Ar  221   6.702   5.698   3.764
    1   AR   Ar  222   5.105   7.033   5.858
    1   AR   Ar  223   6.985   1.473   5.576
    1   AR   Ar  224   5.032   1.708   5.161
    1   AR   Ar  225   6.541   2.206   2.533
    1   AR   Ar  226   2.283   3.769   3.982
    1   AR   Ar  227   1.251   2.592   3.177
    1   AR   Ar  228   6.201   0.846   2.460
    1   AR   Ar  229   6.176   4.734  -1.047
    1   AR   Ar  230   4.057   5.227   3.254
    1   AR   Ar  231   4.966   2.318   2.635
    1   AR   Ar  232   5.120   3.041   1.807
    1   AR   Ar  233   6.713   2.090   3.512
    1   AR   Ar  234   6.027   2.689   4.420
    1   AR   Ar  235   6.353   0.893   3.910
    1   AR   Ar  236   3.956   4.337   5.179
    1   AR   Ar  237   4.498   0.910   7.592
    1   AR   Ar  238   4.467   5.310   6.560
    1   AR   Ar  239   1.298   4.178  11.174
    1   AR   Ar  240   1.712   3.514   6.546
    1   AR   Ar  241   1.550   7.083   0.585
    1   AR   Ar  242   5.675   6.367   1.543
    1   AR   Ar  243   4.632   6.365   2.073
    1   AR   Ar  244   6.558   5.966   0.555
    1   AR   Ar  245   3.444   0.853   3.585
    1   AR   Ar  246   5.086   6.621  -1.281
    1   AR   Ar  247   6.959   3.666   1.645
    1   AR   Ar  248   5.942   5.570  -0.271
    1   AR   Ar  249   3.563   7.010   1.498
    1   AR   Ar  250   4.913   6.718   3.825
    1   AR   Ar  251   5.002   4.372   5.128
    1   AR   Ar  252   2.915   5.206   2.606
    1   AR   Ar  253   4.574   2.431   8.588
    1   AR   Ar  254   4.660   3.788  12.177
    1   AR   Ar  255   4.792   0.154   8.606
    1   AR   Ar  256   5.684   5.949   3.497
    7.12000  7.12000 12.00000
Argon-slab step 5375
  256
    1   AR   Ar    1   4.187   3.412  -2.832
    1   AR   Ar    2   5.225   6.176   0.666
    1   AR   Ar    3   4.095   3.444  -0.697
    1   AR   Ar    4   2.534   1.082   0.765
    1   AR   Ar    5   6.887   5.408  -0.422
    1   AR   Ar    6   0.917   1.245   2.491
    1   AR   Ar    7   6.041   4.893   3.354
    1   AR   Ar    8   6.544   3.403  -1.142
    1   AR   Ar    9   0.312   6.175   4.676
    1   AR   Ar   10   6.001   4.632   5.730
    1   AR   Ar   11   1.133   6.843   5.349
    1   AR   Ar   12   0.270   1.753   4.275
    1   AR   Ar   13   0.139   0.036   5.028
    1   AR   Ar   14   3.522   0.662   6.922
    1   AR   Ar   15   2.320   5.946   9.653
    1   AR   Ar   16   0.447   0.108   6.061
    1   AR   Ar   17   6.128   3.489   1.003
    1   AR   Ar   18   6.990   4.608  -1.996
    1   AR   Ar   19   5.655   4.734   0.795
    1   AR   Ar   20   6.658   3.742  -2.526
    1   AR   Ar   21   2.352   1.325   2.106
    1   AR   Ar   22   5.310   0.149   1.862
    1   AR   Ar   23   0.977   6.001   0.887
    1   AR   Ar   24   5.802   2.738   3.157
    1   AR   Ar   25   1.130   2.874   5.247
    1   AR   Ar   26   5.708   5.947   4.526
    1   AR   Ar   27   1.228   0.389   1.527
    1   AR   Ar   28   2.159   2.651   3.681
    1   AR   Ar   29   5.638   1.289   8.052
    1   AR   Ar   30   7.064   1.034   3.063
    1   AR   Ar   31   1.173   0.241   6.845
    1   AR   Ar   32   0.950   1.830   5.691
    1   AR   Ar   33   6.594   4.573   1.015
    1   AR   Ar   34   1.687   4.996   2.726
    1   AR   Ar   35   4.977   5.442   2.461
    1   AR   Ar   36   4.529   2.481  -3.413
    1   AR   Ar   37   3.954   3.524   1.381
    1   AR   Ar   38   5.648   4.910   4.361
    1   AR   Ar   39   0.471   2.758   3.953
    1   AR   Ar   40   0.843   4.327   2.080
    1   AR   Ar   41   0.801   1.609   3.425
    1   AR   Ar   42   5.090   5.588   5.532
    1   AR   Ar   43   7.038   2.852   5.829
    1   AR   Ar   44   0.884   3.644   3.024
    1   AR   Ar   45   1.671   3.879   5.434
    1   AR   Ar   46   6.017   5.065   6.712
    1   AR   Ar   47   2.940   3.579   6.687
    1   AR   Ar   48   6.899   3.093   7.396
    1   AR   Ar   49   0.646   1.138   0.906
    1   AR   Ar   50   2.829   4.067  -0.261
    1   AR   Ar   51   5.252   3.579   2.730
    1   AR   Ar   52   5.305   3.705  -1.468
    1   AR   Ar   53   4.407   0.314   3.432
    1   AR   Ar   54   6.684   6.628   2.689
    1   AR   Ar   55   6.960   4.724   2.041
    1   AR   Ar   56   5.896   1.493   3.140
    1   AR   Ar   57   4.009   5.193   2.236
    1   AR   Ar   58   1.038   3.661   4.224
    1   AR   Ar   59   2.826   5.757   5.491
    1   AR   Ar   60   0.419   5.143   2.888
    1   AR   Ar   61   0.018   4.434   6.490
    1   AR   Ar   62   7.034   4.515   5.242
    1   AR   Ar   63   2.716   2.715   7.426
    1   AR   Ar   64   0.644   5.062   4.069
    1   AR   Ar   65   3.930   0.664   2.550
    1   AR   Ar   66   1.368   1.541   1.589
    1   AR   Ar   67   4.387   0.720  -0.839
    1   AR   Ar   68   6.573   0.694   0.087
    1   AR   Ar   69   2.747   2.220   0.107
    1   AR   Ar   70   7.046   1.452   1.938
    1   AR   Ar   71   2.945   0.575   2.621
    1   AR   Ar   72   4.153   1.041   1.462
    1   AR   Ar   73   3.112   0.133   4.183
    1   AR   Ar   74   1.009   0.495   3.377
    1   AR   Ar   75   2.755   0.660   5.478
    1   AR   Ar   76   2.341   0.361   1.417
    1   AR   Ar   77   1.216   5.682   5.496
    1   AR   Ar   78   0.194   5.473   5.602
    1   AR   Ar   79   3.383   6.832   5.208
    1   AR   Ar   80   3.413   4.961   5.830
    1   AR   Ar   81   2.271   6.580   1.867
    1   AR   Ar   82   6.917   5.558   1.536
    1   AR   Ar   83   0.786   3.435   1.459
    1   AR   Ar   84   0.558   4.450   1.042
    1   AR   Ar   85   0.877   3.077   0.092
    1   AR   Ar   86   1.770   5.185   1.050
    1   AR   Ar   87   3.619   2.927   2.926
    1   AR   Ar   88   3.426   5.489   1.182
    1   AR   Ar   89   6.264   2.383   1.238
    1   AR   Ar   90   3.206   1.561   6.125
    1   AR   Ar   91   1.960   1.070   3.140
    1   AR   Ar   92   2.536   2.202   1.325
    1   AR   Ar   93   1.515   0.565   5.723
    1   AR   Ar   94   7.011   6.599   8.680
    1   AR   Ar   95   5.023   0.935   6.167
    1   AR   Ar   96   2.240   6.962   4.942
    1   AR   Ar   97   3.979   1.656  -1.541
    1   AR   Ar   98   1.590   4.732   4.264
    1   AR   Ar   99   6.680   6.737  -0.418
    1   AR   Ar  100   5.413   3.355  -2.542
    1   AR   Ar  101   3.611   6.044   2.831
    1   AR   Ar  102   3.733   1.737   2.730
    1   AR   Ar  103   1.830   4.114   1.600
    1   AR   Ar  104   3.475   0.365  -0.911
    1   AR   Ar  105   2.727   2.395   2.638
    1   AR   Ar  106   4.408   1.406   4.017
    1   AR   Ar  107   1.063   4.682   5.405
    1   AR   Ar  108   2.192   0.434   3.854
    1   AR   Ar  109   2.274   4.740   5.082
    1   AR   Ar  110   1.849   2.043   4.532
    1   AR   Ar  111   3.605   4.340   6.754
    1   AR   Ar  112   6.474   6.300   5.629
    1   AR   Ar  113   6.888   5.592  -1.577
    1   AR   Ar  114   2.917   6.969  -0.044
    1   AR   Ar  115   0.644   4.805  -0.076
    1   AR   Ar  116   5.147   0.637   0.754
    1   AR   Ar  117   6.976   4.086   3.230
    1   AR   Ar  118   1.884   6.365   3.873
    1   AR   Ar  119   1.918   3.296   2.800
    1   AR   Ar  120   2.032   7.093   2.907
    1   AR   Ar  121   5.264   4.093   6.446
    1   AR   Ar  122   2.815   5.635   3.615
    1   AR   Ar  123   3.942   2.019   4.599
    1   AR   Ar  124   0.846   5.354   1.775
    1   AR   Ar  125   5.802   3.993   3.663
    1   AR   Ar  126   6.686   0.792   7.794
    1   AR   Ar  127   5.187   3.214   5.745
    1   AR   Ar  128   0.686   3.568   6.151
    1   AR   Ar  129   2.051   5.697   4.718
    1   AR   Ar  130   4.575   0.771  -5.088
    1   AR   Ar  131   3.807   6.393  -0.515
    1   AR   Ar  132   1.419   2.600   1.056
    1   AR   Ar  133   4.111   0.582   4.778
    1   AR   Ar  134   2.687   1.404   4.286
    1   AR   Ar  135   6.416   6.761   4.745
    1   AR   Ar  136   5.440   6.674   2.669
    1   AR   Ar  137   2.204   4.455   6.123
    1   AR   Ar  138   5.915   1.246   5.782
    1   AR   Ar  139   6.223   1.614   4.663
    1   AR   Ar  140   4.505   6.771   5.094
    1   AR   Ar  141   3.501   5.286   4.706
    1   AR   Ar  142   4.697   6.253   8.151
    1   AR   Ar  143   5.548   6.959   7.131
    1   AR   Ar  144   7.057   2.545   4.937
    1   AR   Ar  145   5.031   4.996  -1.052
    1   AR   Ar  146   3.700   2.197   3.639
    1   AR   Ar  147   5.331   4.164  -0.066
    1   AR   Ar  148   2.548   6.020  -0.853
    1   AR   Ar  149   0.381   2.473  -0.615
    1   AR   Ar  150   1.394   2.205   2.265
    1   AR   Ar  151   2.722   3.716   2.168
    1   AR   Ar  152   1.031   0.982  -0.924
    1   AR   Ar  153   5.583   0.406   3.458
    1   AR   Ar  154   4.887   3.152   3.506
    1   AR   Ar  155   6.181   3.328   5.526
    1   AR   Ar  156   3.146   4.094   3.085
    1   AR   Ar  157   2.995   5.580   6.684
    1   AR   Ar  158   0.642   2.725   6.846
    1   AR   Ar  159   3.966   0.598   5.856
    1   AR   Ar  160   1.429   1.160   4.182
    1   AR   Ar  161   4.920   4.566   3.088
    1   AR   Ar  162   4.121   5.410  -0.670
    1   AR   Ar  163   6.198   3.880   2.305
    1   AR   Ar  164   2.173   5.995   2.860
    1   AR   Ar  165   3.135   4.365   0.885
    1   AR   Ar  166   2.624   3.681   5.403
    1   AR   Ar  167   6.091   6.740   3.737
    1   AR   Ar  168   5.569   4.422  -2.322
    1   AR   Ar  169   3.973   3.647   3.613
    1   AR   Ar  170   2.883   2.575   6.012
    1   AR   Ar  171   4.688   5.613   4.233
    1   AR   Ar  172   4.055   3.342   4.632
    1   AR   Ar  173   1.657   1.851   7.200
    1   AR   Ar  174   3.137   6.163   4.427
    1   AR   Ar  175   2.598   7.049   7.237
    1   AR   Ar  176   3.186   3.164   4.080
    1   AR   Ar  177   0.232   4.242  -0.840
    1   AR   Ar  178   2.291   6.309   0.711
    1   AR   Ar  179   3.604   6.228   0.528
    1   AR   Ar  180   5.191   0.014  -7.519
    1   AR   Ar  181   0.037   6.494   1.793
    1   AR   Ar  182   1.232   6.500   3.092
    1   AR   Ar  183   5.012   5.319   1.406
    1   AR   Ar  184   4.299   5.514   0.440
    1   AR   Ar  185   3.289   4.350   4.269
    1   AR   Ar  186   3.058   6.823   3.331
    1   AR   Ar  187   3.961   6.658   4.040
    1   AR   Ar  188   3.193   0.980   1.724
    1   AR   Ar  189   6.080   2.267   5.577
    1   AR   Ar  190   1.291   0.034   4.293
    1   AR   Ar  191   3.985   5.988   5.803
    1   AR   Ar  192   4.091   3.441   6.281
    1   AR   Ar  193   3.283   6.180   1.973
    1   AR   Ar  194   5.002   6.226  -0.337
    1   AR   Ar  195   6.309   0.956   1.307
    1   AR   Ar  196   4.320   7.030   0.615
    1   AR   Ar  197   4.821   3.063   0.026
    1   AR   Ar  198   6.518   7.042   1.196
    1   AR   Ar  199   0.341   0.349   2.019
    1   AR   Ar  200   6.298   2.817  -0.072
    1   AR   Ar  201   6.499   5.638   2.615
    1   AR   Ar  202   5.202   0.402   4.777
    1   AR   Ar  203   0.145   7.107   3.525
    1   AR   Ar  204   4.548   4.544   7.314
    1   AR   Ar  205   5.351   1.631   1.837
    1   AR   Ar  206   6.580   0.218   5.739
    1   AR   Ar  207   6.771   3.615   4.452
    1   AR   Ar  208   0.663   6.017   3.707
    1   AR   Ar  209   5.973   1.894  -1.859
    1   AR   Ar  210   2.025   0.758  -0.831
    1   AR   Ar  211   0.026   2.880   0.855
    1   AR   Ar  212   6.720   3.776  -0.066
    1   AR   Ar  213   3.544   1.870   0.921
    1   AR   Ar  214   4.926   4.165   1.840
    1   AR   Ar  215   0.454   2.636   2.373
    1   AR   Ar  216   1.957   2.075  -0.419
    1   AR   Ar  217   5.340   1.942   4.014
    1   AR   Ar  218   5.033   2.712   4.832
    1   AR   Ar  219   4.021   3.939   2.497
    1   AR   Ar  220   4.282   4.577   1.103
    1   AR   Ar  221   6.722   5.685   3.749
    1   AR   Ar  222   5.106   7.006   5.889
    1   AR   Ar  223   7.030   1.441   5.566
    1   AR   Ar  224   5.040   1.710   5.159
    1   AR   Ar  225   6.540   2.192   2.533
    1   AR   Ar  226   2.275   3.806   3.980
    1   AR   Ar  227   1.223   2.615   3.214
    1   AR   Ar  228   6.216   0.869   2.418
    1   AR   Ar  229   6.183   4.754  -1.054
    1   AR   Ar  230   4.048   5.235   3.234
    1   AR   Ar  231   4.969   2.330   2.643
    1   AR   Ar  232   5.109   3.043   1.808
    1   AR   Ar  233   6.743   2.091   3.504
    1   AR   Ar  234   5.976   2.656   4.421
    1   AR   Ar  235   6.366   0.871   3.914
    1   AR   Ar  236   3.963   4.331   5.216
    1   AR   Ar  237   4.504   0.960   7.567
    1   AR   Ar  238   4.463   5.326   6.549
    1   AR   Ar  239   1.308   4.171  11.176
    1   AR   Ar  240   1.707   3.531   6.529
    1   AR   Ar  241   1.547   7.084   0.563
    1   AR   Ar  242   5.704   6.343   1.557
    1   AR   Ar  243   4.663   6.347   2.067
    1   AR   Ar  244   6.552   5.953   0.550
    1   AR   Ar  245   3.474   0.858   3.583
    1   AR   Ar  246   5.063   6.581  -1.298
    1   AR   Ar  247   6.951   3.631   1.646
    1   AR   Ar  248   5.925   5.564  -0.279
    1   AR   Ar  249   3.569   7.023   1.470
    1   AR   Ar  250   4.920   6.687   3.840
    1   AR   Ar  251   4.995   4.361   5.161
    1   AR   Ar  252   2.911   5.192   2.596
    1   AR   Ar  253   4.597   2.426   8.585
    1   AR   Ar  254   4.646   3.817  12.189
    1   AR   Ar  255   4.819   0.172   8.618
    1   AR   Ar  256   5.690   5.942   3.481
    7.12000  7.12000 12.00000
Argon-slab step 5380
  256
    1   AR   Ar    1   4.197   3.431  -2.816
    1   AR   Ar    2   5.217   6.158   0.681
    1   AR   Ar    3   4.112   3.462  -0.695
    1   AR   Ar    4   2.554   1.105   0.782
    1   AR   Ar    5   6.888   5.433  -0.427
    1   AR   Ar    6   0.895   1.240   2.470
    1   AR   Ar    7   6.078   4.894   3.342
    1   AR   Ar    8   6.542   3.391  -1.134
    1   AR   Ar    9   0.346   6.152   4.665
    1   AR   Ar   10   5.980   4.602   5.762
    1   AR   Ar   11   1.112   6.849   5.352
    1   AR   Ar   12   0.268   1.755   4.316
    1   AR   Ar   13   0.129   0.048   5.065
    1   AR   Ar   14   3.517   0.675   6.928
    1   AR   Ar   15   2.307   5.921   9.671
    1   AR   Ar   16   0.449   0.109   6.072
    1   AR   Ar   17   6.132   3.475   1.032
    1   AR   Ar   18   6.939   4.595  -2.019
    1   AR   Ar   19   5.673   4.718   0.801
    1   AR   Ar   20   6.679   3.755  -2.496
    1   AR   Ar   21   2.336   1.347   2.104
    1   AR   Ar   22   5.273   0.154   1.877
    1   AR   Ar   23   0.979   6.006   0.879
    1   AR   Ar   24   5.830   2.701   3.162
    1   AR   Ar   25   1.138   2.889   5.274
    1   AR   Ar   26   5.696   5.936   4.545
    1   AR   Ar   27   1.216   0.393   1.535
    1   AR   Ar   28   2.160   2.659   3.669
    1   AR   Ar   29   5.661   1.272   8.054
    1   AR   Ar   30   7.073   1.021   3.015
    1   AR   Ar   31   1.161   0.231   6.855
    1   AR   Ar   32   0.947   1.809   5.734
    1   AR   Ar   33   6.581   4.584   1.008
    1   AR   Ar   34   1.687   4.981   2.749
    1   AR   Ar   35   4.995   5.439   2.448
    1   AR   Ar   36   4.477   2.485  -3.444
    1   AR   Ar   37   3.944   3.504   1.392
    1   AR   Ar   38   5.656   4.897   4.365
    1   AR   Ar   39   0.448   2.721   3.966
    1   AR   Ar   40   0.833   4.347   2.066
    1   AR   Ar   41   0.830   1.612   3.416
    1   AR   Ar   42   5.060   5.631   5.518
    1   AR   Ar   43   7.065   2.863   5.839
    1   AR   Ar   44   0.895   3.631   3.035
    1   AR   Ar   45   1.688   3.880   5.441
    1   AR   Ar   46   5.990   5.119   6.702
    1   AR   Ar   47   2.921   3.572   6.664
    1   AR   Ar   48   6.896   3.065   7.383
    1   AR   Ar   49   0.667   1.161   0.897
    1   AR   Ar   50   2.791   4.063  -0.257
    1   AR   Ar   51   5.243   3.576   2.684
    1   AR   Ar   52   5.309   3.664  -1.472
    1   AR   Ar   53   4.398   0.323   3.424
    1   AR   Ar   54   6.713   6.614   2.686
    1   AR   Ar   55   6.933   4.685   2.059
    1   AR   Ar   56   5.934   1.461   3.125
    1   AR   Ar   57   4.015   5.208   2.252
    1   AR   Ar   58   1.047   3.658   4.221
    1   AR   Ar   59   2.816   5.788   5.503
    1   AR   Ar   60   0.453   5.135   2.912
    1   AR   Ar   61   0.017   4.448   6.498
    1   AR   Ar   62   7.017   4.493   5.220
    1   AR   Ar   63   2.691   2.679   7.392
    1   AR   Ar   64   0.666   5.081   4.070
    1   AR   Ar   65   3.936   0.659   2.567
    1   AR   Ar   66   1.359   1.523   1.584
    1   AR   Ar   67   4.437   0.720  -0.855
    1   AR   Ar   68   6.574   0.681   0.114
    1   AR   Ar   69   2.739   2.239   0.119
    1   AR   Ar   70   7.053   1.487   1.952
    1   AR   Ar   71   2.944   0.557   2.625
    1   AR   Ar   72   4.183   1.044   1.467
    1   AR   Ar   73   3.132   0.153   4.212
    1   AR   Ar   74   0.991   0.476   3.397
    1   AR   Ar   75   2.743   0.664   5.468
    1   AR   Ar   76   2.334   0.344   1.439
    1   AR   Ar   77   1.250   5.706   5.509
    1   AR   Ar   78   0.188   5.442   5.612
    1   AR   Ar   79   3.356   6.852   5.187
    1   AR   Ar   80   3.417   4.917   5.820
    1   AR   Ar   81   2.269   6.592   1.863
    1   AR   Ar   82   6.904   5.531   1.542
    1   AR   Ar   83   0.758   3.427   1.449
    1   AR   Ar   84   0.539   4.455   1.055
    1   AR   Ar   85   0.885   3.068   0.078
    1   AR   Ar   86   1.767   5.209   1.075
    1   AR   Ar   87   3.624   2.944   2.921
    1   AR   Ar   88   3.436   5.486   1.202
    1   AR   Ar   89   6.254   2.352   1.257
    1   AR   Ar   90   3.171   1.559   6.122
    1   AR   Ar   91   1.955   1.069   3.173
    1   AR   Ar   92   2.547   2.177   1.326
    1   AR   Ar   93   1.531   0.553   5.754
    1   AR   Ar   94   6.989   6.599   8.693
    1   AR   Ar   95   5.011   0.935   6.201
    1   AR   Ar   96   2.267   6.967   4.940
    1   AR   Ar   97   4.018   1.632  -1.557
    1   AR   Ar   98   1.606   4.704   4.259
    1   AR   Ar   99   6.689   6.697  -0.429
    1   AR   Ar  100   5.407   3.360  -2.514
    1   AR   Ar  101   3.605   6.048   2.839
    1   AR   Ar  102   3.759   1.752   2.743
    1   AR   Ar  103   1.862   4.109   1.614
    1   AR   Ar  104   3.459   0.360  -0.869
    1   AR   Ar  105   2.729   2.394   2.646
    1   AR   Ar  106   4.393   1.406   4.025
    1   AR   Ar  107   1.079   4.672   5.394
    1   AR   Ar  108   2.163   0.409   3.861
    1   AR   Ar  109   2.259   4.746   5.046
    1   AR   Ar  110   1.833   2.035   4.522
    1   AR   Ar  111   3.601   4.350   6.748
    1   AR   Ar  112   6.486   6.290   5.636
    1   AR   Ar  113   6.861   5.577  -1.581
    1   AR   Ar  114   2.910   7.005  -0.049
    1   AR   Ar  115   0.643   4.774  -0.096
    1   AR   Ar  116   5.161   0.653   0.735
    1   AR   Ar  117   6.960   4.101   3.166
    1   AR   Ar  118   1.867   6.374   3.893
    1   AR   Ar  119   1.961   3.261   2.821
    1   AR   Ar  120   2.032   7.089   2.899
    1   AR   Ar  121   5.223   4.097   6.477
    1   AR   Ar  122   2.818   5.589   3.632
    1   AR   Ar  123   3.965   2.032   4.598
    1   AR   Ar  124   0.868   5.349   1.790
    1   AR   Ar  125   5.809   3.981   3.645
    1   AR   Ar  126   6.694   0.784   7.800
    1   AR   Ar  127   5.197   3.236   5.750
    1   AR   Ar  128   0.668   3.574   6.154
    1   AR   Ar  129   2.038   5.710   4.724
    1   AR   Ar  130   4.611   0.782  -5.082
    1   AR   Ar  131   3.816   6.379  -0.507
    1   AR   Ar  132   1.450   2.579   1.102
    1   AR   Ar  133   4.124   0.592   4.769
    1   AR   Ar  134   2.692   1.391   4.288
    1   AR   Ar  135   6.419   6.756   4.740
    1   AR   Ar  136   5.428   6.693   2.666
    1   AR   Ar  137   2.203   4.449   6.143
    1   AR   Ar  138   5.920   1.264   5.786
    1   AR   Ar  139   6.221   1.609   4.660
    1   AR   Ar  140   4.515   6.749   5.048
    1   AR   Ar  141   3.495   5.266   4.682
    1   AR   Ar  142   4.662   6.223   8.170
    1   AR   Ar  143   5.554   6.992   7.189
    1   AR   Ar  144   7.050   2.532   4.934
    1   AR   Ar  145   5.050   4.971  -1.069
    1   AR   Ar  146   3.718   2.207   3.629
    1   AR   Ar  147   5.358   4.150  -0.069
    1   AR   Ar  148   2.521   6.014  -0.844
    1   AR   Ar  149   0.384   2.456  -0.599
    1   AR   Ar  150   1.381   2.204   2.248
    1   AR   Ar  151   2.716   3.713   2.119
    1   AR   Ar  152   0.993   1.000  -0.905
    1   AR   Ar  153   5.589   0.425   3.463
    1   AR   Ar  154   4.880   3.157   3.519
    1   AR   Ar  155   6.162   3.345   5.540
    1   AR   Ar  156   3.120   4.068   3.123
    1   AR   Ar  157   2.985   5.543   6.649
    1   AR   Ar  158   0.663   2.695   6.863
    1   AR   Ar  159   4.030   0.642   5.856
    1   AR   Ar  160   1.442   1.150   4.154
    1   AR   Ar  161   4.910   4.588   3.122
    1   AR   Ar  162   4.135   5.382  -0.672
    1   AR   Ar  163   6.235   3.875   2.329
    1   AR   Ar  164   2.148   5.998   2.850
    1   AR   Ar  165   3.137   4.331   0.902
    1   AR   Ar  166   2.629   3.631   5.428
    1   AR   Ar  167   6.127   6.736   3.752
    1   AR   Ar  168   5.590   4.384  -2.322
    1   AR   Ar  169   3.982   3.655   3.609
    1   AR   Ar  170   2.872   2.553   6.012
    1   AR   Ar  171   4.669   5.562   4.203
    1   AR   Ar  172   4.089   3.356   4.637
    1   AR   Ar  173   1.615   1.856   7.219
    1   AR   Ar  174   3.128   6.184   4.437
    1   AR   Ar  175   2.598   7.019   7.283
    1   AR   Ar  176   3.188   3.161   4.060
    1   AR   Ar  177   0.222   4.253  -0.842
    1   AR   Ar  178   2.296   6.285   0.748
    1   AR   Ar  179   3.599   6.209   0.528
    1   AR   Ar  180   5.188   0.010  -7.541
    1   AR   Ar  181   0.059   6.475   1.797
    1   AR   Ar  182   1.233   6.509   3.092
    1   AR   Ar  183   4.994   5.334   1.451
    1   AR   Ar  184   4.265   5.484   0.426
    1   AR   Ar  185   3.266   4.331   4.268
    1   AR   Ar  186   3.047   6.807   3.348
    1   AR   Ar  187   3.988   6.663   4.071
    1   AR   Ar  188   3.217   0.971   1.722
    1   AR   Ar  189   6.066   2.277   5.596
    1   AR   Ar  190   1.288   0.044   4.320
    1   AR   Ar  191   3.999   5.960   5.759
    1   AR   Ar  192   4.080   3.445   6.296
    1   AR   Ar  193   3.280   6.193   1.951
    1   AR   Ar  194   4.996   6.231  -0.348
    1   AR   Ar  195   6.305   0.969   1.327
    1   AR   Ar  196   4.337   7.027   0.648
    1   AR   Ar  197   4.829   3.050   0.057
    1   AR   Ar  198   6.542   7.020   1.179
    1   AR   Ar  199   0.346   0.369   2.025
    1   AR   Ar  200   6.297   2.844  -0.070
    1   AR   Ar  201   6.492   5.639   2.615
    1   AR   Ar  202   5.194   0.383   4.779
    1   AR   Ar  203   0.118   7.112   3.542
    1   AR   Ar  204   4.551   4.558   7.300
    1   AR   Ar  205   5.324   1.624   1.853
    1   AR   Ar  206   6.592   0.188   5.747
    1   AR   Ar  207   6.765   3.619   4.444
    1   AR   Ar  208   0.673   6.031   3.689
    1   AR   Ar  209   5.923   1.878  -1.864
    1   AR   Ar  210   2.042   0.763  -0.849
    1   AR   Ar  211   0.023   2.878   0.859
    1   AR   Ar  212   6.753   3.787  -0.035
    1   AR   Ar  213   3.540   1.838   0.929
    1   AR   Ar  214   4.955   4.132   1.845
    1   AR   Ar  215   0.438   2.659   2.359
    1   AR   Ar  216   1.950   2.052  -0.443
    1   AR   Ar  217   5.335   1.920   4.012
    1   AR   Ar  218   5.017   2.725   4.813
    1   AR   Ar  219   4.016   3.923   2.477
    1   AR   Ar  220   4.288   4.608   1.068
    1   AR   Ar  221   6.742   5.673   3.734
    1   AR   Ar  222   5.111   6.979   5.923
    1   AR   Ar  223   7.073   1.409   5.553
    1   AR   Ar  224   5.058   1.706   5.138
    1   AR   Ar  225   6.555   2.159   2.525
    1   AR   Ar  226   2.266   3.843   3.977
    1   AR   Ar  227   1.184   2.607   3.250
    1   AR   Ar  228   6.237   0.890   2.386
    1   AR   Ar  229   6.191   4.774  -1.061
    1   AR   Ar  230   4.042   5.237   3.228
    1   AR   Ar  231   4.971   2.340   2.651
    1   AR   Ar  232   5.097   3.044   1.807
    1   AR   Ar  233   6.774   2.091   3.505
    1   AR   Ar  234   5.935   2.627   4.422
    1   AR   Ar  235   6.385   0.849   3.920
    1   AR   Ar  236   3.967   4.323   5.250
    1   AR   Ar  237   4.510   1.009   7.542
    1   AR   Ar  238   4.486   5.312   6.528
    1   AR   Ar  239   1.318   4.168  11.187
    1   AR   Ar  240   1.704   3.549   6.512
    1   AR   Ar  241   1.543   7.086   0.542
    1   AR   Ar  242   5.687   6.348   1.565
    1   AR   Ar  243   4.687   6.330   2.057
    1   AR   Ar  244   6.540   5.926   0.555
    1   AR   Ar  245   3.492   0.850   3.583
    1   AR   Ar  246   5.039   6.543  -1.319
    1   AR   Ar  247   6.940   3.599   1.649
    1   AR   Ar  248   5.895   5.559  -0.286
    1   AR   Ar  249   3.575   7.042   1.441
    1   AR   Ar  250   4.948   6.648   3.858
    1   AR   Ar  251   4.993   4.350   5.195
    1   AR   Ar  252   2.908   5.178   2.585
    1   AR   Ar  253   4.619   2.421   8.581
    1   AR   Ar  254   4.632   3.846  12.201
    1   AR   Ar  255   4.846   0.191   8.629
    1   AR   Ar  256   5.682   5.907   3.452
    7.12000  7.12000 12.00000
Argon-slab step 5385
  256
    1   AR   Ar    1   4.208   3.449  -2.799
    1   AR   Ar    2   5.213   6.142   0.692
    1   AR   Ar    3   4.130   3.480  -0.693
    1   AR   Ar    4   2.577   1.134   0.798
    1   AR   Ar    5   6.896   5.457  -0.434
    1   AR   Ar    6   0.873   1.231   2.447
    1   AR   Ar    7   6.118   4.902   3.326
    1   AR   Ar    8   6.539   3.381  -1.124
    1   AR   Ar    9   0.377   6.129   4.658
    1   AR   Ar   10   5.960   4.570   5.792
    1   AR   Ar   11   1.093   6.844   5.350
    1   AR   Ar   12   0.277   1.753   4.331
    1   AR   Ar   13   0.141   0.062   5.089
    1   AR   Ar   14   3.518   0.683   6.927
    1   AR   Ar   15   2.318   5.907   9.675
    1   AR   Ar   16   0.453   0.111   6.086
    1   AR   Ar   17   6.131   3.460   1.058
    1   AR   Ar   18   6.889   4.590  -2.036
    1   AR   Ar   19   5.665   4.705   0.802
    1   AR   Ar   20   6.696   3.760  -2.469
    1   AR   Ar   21   2.316   1.372   2.104
    1   AR   Ar   22   5.234   0.170   1.883
    1   AR   Ar   23   0.982   6.011   0.871
    1   AR   Ar   24   5.860   2.666   3.170
    1   AR   Ar   25   1.145   2.905   5.301
    1   AR   Ar   26   5.684   5.930   4.565
    1   AR   Ar   27   1.213   0.398   1.540
    1   AR   Ar   28   2.169   2.672   3.664
    1   AR   Ar   29   5.682   1.253   8.057
    1   AR   Ar   30   7.083   1.009   2.971
    1   AR   Ar   31   1.149   0.244   6.853
    1   AR   Ar   32   0.946   1.790   5.776
    1   AR   Ar   33   6.591   4.589   1.007
    1   AR   Ar   34   1.685   4.966   2.772
    1   AR   Ar   35   5.020   5.434   2.448
    1   AR   Ar   36   4.424   2.489  -3.474
    1   AR   Ar   37   3.974   3.514   1.394
    1   AR   Ar   38   5.664   4.882   4.369
    1   AR   Ar   39   0.423   2.689   3.981
    1   AR   Ar   40   0.825   4.362   2.058
    1   AR   Ar   41   0.858   1.617   3.409
    1   AR   Ar   42   5.030   5.674   5.503
    1   AR   Ar   43   7.093   2.877   5.866
    1   AR   Ar   44   0.905   3.619   3.046
    1   AR   Ar   45   1.692   3.874   5.445
    1   AR   Ar   46   5.963   5.173   6.692
    1   AR   Ar   47   2.897   3.561   6.639
    1   AR   Ar   48   6.891   3.039   7.369
    1   AR   Ar   49   0.685   1.182   0.886
    1   AR   Ar   50   2.753   4.060  -0.251
    1   AR   Ar   51   5.238   3.578   2.639
    1   AR   Ar   52   5.313   3.625  -1.474
    1   AR   Ar   53   4.393   0.332   3.419
    1   AR   Ar   54   6.738   6.613   2.691
    1   AR   Ar   55   6.907   4.639   2.083
    1   AR   Ar   56   5.932   1.456   3.121
    1   AR   Ar   57   4.009   5.210   2.248
    1   AR   Ar   58   1.054   3.624   4.224
    1   AR   Ar   59   2.806   5.820   5.513
    1   AR   Ar   60   0.486   5.127   2.934
    1   AR   Ar   61   0.015   4.462   6.503
    1   AR   Ar   62   7.000   4.468   5.197
    1   AR   Ar   63   2.665   2.642   7.356
    1   AR   Ar   64   0.681   5.097   4.074
    1   AR   Ar   65   3.949   0.656   2.578
    1   AR   Ar   66   1.355   1.491   1.563
    1   AR   Ar   67   4.491   0.722  -0.871
    1   AR   Ar   68   6.574   0.667   0.142
    1   AR   Ar   69   2.740   2.260   0.141
    1   AR   Ar   70   7.066   1.518   1.962
    1   AR   Ar   71   2.931   0.536   2.635
    1   AR   Ar   72   4.222   1.046   1.470
    1   AR   Ar   73   3.150   0.176   4.258
    1   AR   Ar   74   0.979   0.463   3.412
    1   AR   Ar   75   2.733   0.670   5.459
    1   AR   Ar   76   2.327   0.338   1.459
    1   AR   Ar   77   1.285   5.733   5.522
    1   AR   Ar   78   0.182   5.413   5.622
    1   AR   Ar   79   3.333   6.874   5.171
    1   AR   Ar   80   3.415   4.880   5.816
    1   AR   Ar   81   2.265   6.591   1.867
    1   AR   Ar   82   6.889   5.507   1.541
    1   AR   Ar   83   0.734   3.411   1.431
    1   AR   Ar   84   0.527   4.472   1.071
    1   AR   Ar   85   0.895   3.061   0.067
    1   AR   Ar   86   1.765   5.232   1.100
    1   AR   Ar   87   3.629   2.965   2.910
    1   AR   Ar   88   3.446   5.479   1.224
    1   AR   Ar   89   6.245   2.321   1.277
    1   AR   Ar   90   3.138   1.551   6.119
    1   AR   Ar   91   1.946   1.078   3.195
    1   AR   Ar   92   2.557   2.151   1.327
    1   AR   Ar   93   1.550   0.547   5.787
    1   AR   Ar   94   6.967   6.598   8.706
    1   AR   Ar   95   4.998   0.935   6.235
    1   AR   Ar   96   2.291   6.969   4.936
    1   AR   Ar   97   4.058   1.607  -1.574
    1   AR   Ar   98   1.623   4.675   4.251
    1   AR   Ar   99   6.697   6.657  -0.440
    1   AR   Ar  100   5.400   3.361  -2.489
    1   AR   Ar  101   3.603   6.055   2.863
    1   AR   Ar  102   3.784   1.762   2.748
    1   AR   Ar  103   1.880   4.111   1.598
    1   AR   Ar  104   3.440   0.353  -0.828
    1   AR   Ar  105   2.730   2.392   2.653
    1   AR   Ar  106   4.387   1.390   4.020
    1   AR   Ar  107   1.092   4.670   5.380
    1   AR   Ar  108   2.140   0.375   3.878
    1   AR   Ar  109   2.250   4.748   5.017
    1   AR   Ar  110   1.816   2.032   4.513
    1   AR   Ar  111   3.601   4.365   6.741
    1   AR   Ar  112   6.499   6.272   5.647
    1   AR   Ar  113   6.833   5.563  -1.583
    1   AR   Ar  114   2.903   7.039  -0.052
    1   AR   Ar  115   0.646   4.748  -0.108
    1   AR   Ar  116   5.175   0.708   0.696
    1   AR   Ar  117   6.945   4.118   3.102
    1   AR   Ar  118   1.861   6.419   3.927
    1   AR   Ar  119   2.003   3.229   2.840
    1   AR   Ar  120   2.037   7.090   2.888
    1   AR   Ar  121   5.182   4.102   6.507
    1   AR   Ar  122   2.812   5.572   3.654
    1   AR   Ar  123   3.982   2.059   4.617
    1   AR   Ar  124   0.890   5.347   1.806
    1   AR   Ar  125   5.826   3.948   3.636
    1   AR   Ar  126   6.701   0.777   7.806
    1   AR   Ar  127   5.197   3.258   5.758
    1   AR   Ar  128   0.652   3.581   6.157
    1   AR   Ar  129   2.025   5.727   4.728
    1   AR   Ar  130   4.647   0.794  -5.076
    1   AR   Ar  131   3.824   6.368  -0.499
    1   AR   Ar  132   1.480   2.557   1.148
    1   AR   Ar  133   4.133   0.603   4.756
    1   AR   Ar  134   2.697   1.376   4.288
    1   AR   Ar  135   6.413   6.749   4.729
    1   AR   Ar  136   5.423   6.714   2.665
    1   AR   Ar  137   2.206   4.446   6.164
    1   AR   Ar  138   5.929   1.279   5.788
    1   AR   Ar  139   6.219   1.606   4.660
    1   AR   Ar  140   4.522   6.721   5.001
    1   AR   Ar  141   3.492   5.244   4.661
    1   AR   Ar  142   4.626   6.193   8.190
    1   AR   Ar  143   5.560   7.025   7.247
    1   AR   Ar  144   7.039   2.515   4.916
    1   AR   Ar  145   5.072   4.944  -1.085
    1   AR   Ar  146   3.735   2.219   3.626
    1   AR   Ar  147   5.385   4.135  -0.072
    1   AR   Ar  148   2.495   6.008  -0.835
    1   AR   Ar  149   0.385   2.438  -0.585
    1   AR   Ar  150   1.373   2.217   2.246
    1   AR   Ar  151   2.714   3.709   2.071
    1   AR   Ar  152   0.954   1.020  -0.885
    1   AR   Ar  153   5.584   0.447   3.462
    1   AR   Ar  154   4.873   3.156   3.540
    1   AR   Ar  155   6.152   3.366   5.550
    1   AR   Ar  156   3.092   4.043   3.161
    1   AR   Ar  157   2.977   5.505   6.613
    1   AR   Ar  158   0.685   2.664   6.877
    1   AR   Ar  159   4.091   0.685   5.856
    1   AR   Ar  160   1.452   1.136   4.127
    1   AR   Ar  161   4.901   4.607   3.156
    1   AR   Ar  162   4.149   5.353  -0.674
    1   AR   Ar  163   6.266   3.872   2.358
    1   AR   Ar  164   2.125   6.000   2.840
    1   AR   Ar  165   3.139   4.297   0.920
    1   AR   Ar  166   2.648   3.579   5.453
    1   AR   Ar  167   6.172   6.737   3.767
    1   AR   Ar  168   5.613   4.348  -2.320
    1   AR   Ar  169   3.992   3.671   3.604
    1   AR   Ar  170   2.859   2.537   6.012
    1   AR   Ar  171   4.651   5.512   4.173
    1   AR   Ar  172   4.125   3.370   4.643
    1   AR   Ar  173   1.573   1.862   7.238
    1   AR   Ar  174   3.138   6.199   4.445
    1   AR   Ar  175   2.599   6.989   7.327
    1   AR   Ar  176   3.185   3.157   4.039
    1   AR   Ar  177   0.206   4.262  -0.851
    1   AR   Ar  178   2.301   6.262   0.786
    1   AR   Ar  179   3.586   6.205   0.525
    1   AR   Ar  180   5.184   0.006  -7.562
    1   AR   Ar  181   0.088   6.457   1.798
    1   AR   Ar  182   1.235   6.527   3.076
    1   AR   Ar  183   4.976   5.350   1.488
    1   AR   Ar  184   4.240   5.449   0.411
    1   AR   Ar  185   3.242   4.307   4.265
    1   AR   Ar  186   3.033   6.787   3.355
    1   AR   Ar  187   4.007   6.667   4.104
    1   AR   Ar  188   3.239   0.963   1.714
    1   AR   Ar  189   6.052   2.289   5.612
    1   AR   Ar  190   1.285   0.050   4.335
    1   AR   Ar  191   4.010   5.933   5.713
    1   AR   Ar  192   4.069   3.450   6.310
    1   AR   Ar  193   3.270   6.207   1.916
    1   AR   Ar  194   4.987   6.234  -0.355
    1   AR   Ar  195   6.300   0.983   1.344
    1   AR   Ar  196   4.356   7.024   0.680
    1   AR   Ar  197   4.838   3.038   0.089
    1   AR   Ar  198   6.562   6.999   1.159
    1   AR   Ar  199   0.342   0.391   2.036
    1   AR   Ar  200   6.296   2.868  -0.067
    1   AR   Ar  201   6.486   5.635   2.602
    1   AR   Ar  202   5.184   0.360   4.773
    1   AR   Ar  203   0.084   7.112   3.561
    1   AR   Ar  204   4.554   4.571   7.285
    1   AR   Ar  205   5.298   1.617   1.870
    1   AR   Ar  206   6.586   0.168   5.768
    1   AR   Ar  207   6.759   3.622   4.436
    1   AR   Ar  208   0.672   6.040   3.679
    1   AR   Ar  209   5.873   1.862  -1.869
    1   AR   Ar  210   2.053   0.769  -0.843
    1   AR   Ar  211   0.008   2.883   0.854
    1   AR   Ar  212   6.756   3.780  -0.034
    1   AR   Ar  213   3.535   1.806   0.937
    1   AR   Ar  214   4.982   4.104   1.848
    1   AR   Ar  215   0.420   2.683   2.346
    1   AR   Ar  216   1.933   2.026  -0.473
    1   AR   Ar  217   5.328   1.895   4.008
    1   AR   Ar  218   5.007   2.725   4.820
    1   AR   Ar  219   4.012   3.908   2.458
    1   AR   Ar  220   4.293   4.638   1.034
    1   AR   Ar  221   6.763   5.662   3.721
    1   AR   Ar  222   5.116   6.952   5.958
    1   AR   Ar  223   7.113   1.378   5.538
    1   AR   Ar  224   5.077   1.700   5.117
    1   AR   Ar  225   6.564   2.131   2.511
    1   AR   Ar  226   2.257   3.879   3.973
    1   AR   Ar  227   1.141   2.580   3.280
    1   AR   Ar  228   6.280   0.913   2.410
    1   AR   Ar  229   6.200   4.793  -1.068
    1   AR   Ar  230   4.045   5.228   3.231
    1   AR   Ar  231   4.970   2.350   2.660
    1   AR   Ar  232   5.086   3.043   1.802
    1   AR   Ar  233   6.806   2.090   3.513
    1   AR   Ar  234   5.907   2.604   4.423
    1   AR   Ar  235   6.412   0.828   3.928
    1   AR   Ar  236   3.971   4.307   5.278
    1   AR   Ar  237   4.518   1.058   7.517
    1   AR   Ar  238   4.508   5.298   6.504
    1   AR   Ar  239   1.321   4.151  11.193
    1   AR   Ar  240   1.715   3.545   6.520
    1   AR   Ar  241   1.541   7.089   0.522
    1   AR   Ar  242   5.675   6.351   1.579
    1   AR   Ar  243   4.704   6.316   2.040
    1   AR   Ar  244   6.528   5.899   0.560
    1   AR   Ar  245   3.510   0.850   3.579
    1   AR   Ar  246   5.016   6.507  -1.345
    1   AR   Ar  247   6.924   3.571   1.654
    1   AR   Ar  248   5.856   5.555  -0.292
    1   AR   Ar  249   3.583   7.065   1.409
    1   AR   Ar  250   4.992   6.606   3.875
    1   AR   Ar  251   4.999   4.339   5.229
    1   AR   Ar  252   2.917   5.149   2.589
    1   AR   Ar  253   4.642   2.415   8.577
    1   AR   Ar  254   4.618   3.875  12.213
    1   AR   Ar  255   4.872   0.210   8.638
    1   AR   Ar  256   5.666   5.861   3.417
    7.12000  7.12000 12.00000
Argon-slab step 5390
  256
    1   AR   Ar    1   4.220   3.467  -2.782
    1   AR   Ar    2   5.232   6.139   0.696
    1   AR   Ar    3   4.149   3.499  -0.690
    1   AR   Ar    4   2.600   1.165   0.812
    1   AR   Ar    5   6.896   5.465  -0.446
    1   AR   Ar    6   0.853   1.220   2.424
    1   AR   Ar    7   6.158   4.909   3.307
    1   AR   Ar    8   6.536   3.373  -1.113
    1   AR   Ar    9   0.408   6.107   4.658
    1   AR   Ar   10   5.940   4.536   5.820
    1   AR   Ar   11   1.077   6.832   5.345
    1   AR   Ar   12   0.294   1.739   4.327
    1   AR   Ar   13   0.167   0.079   5.097
    1   AR   Ar   14   3.531   0.684   6.915
    1   AR   Ar   15   2.330   5.894   9.679
    1   AR   Ar   16   0.458   0.114   6.104
    1   AR   Ar   17   6.123   3.446   1.077
    1   AR   Ar   18   6.842   4.600  -2.043
    1   AR   Ar   19   5.637   4.697   0.801
    1   AR   Ar   20   6.696   3.764  -2.459
    1   AR   Ar   21   2.294   1.396   2.105
    1   AR   Ar   22   5.193   0.194   1.880
    1   AR   Ar   23   0.985   6.017   0.865
    1   AR   Ar   24   5.891   2.631   3.181
    1   AR   Ar   25   1.149   2.920   5.328
    1   AR   Ar   26   5.671   5.926   4.584
    1   AR   Ar   27   1.218   0.403   1.542
    1   AR   Ar   28   2.181   2.682   3.665
    1   AR   Ar   29   5.703   1.234   8.059
    1   AR   Ar   30   7.103   0.998   2.936
    1   AR   Ar   31   1.140   0.257   6.852
    1   AR   Ar   32   0.946   1.773   5.817
    1   AR   Ar   33   6.620   4.591   1.009
    1   AR   Ar   34   1.682   4.951   2.793
    1   AR   Ar   35   5.052   5.428   2.470
    1   AR   Ar   36   4.372   2.494  -3.504
    1   AR   Ar   37   4.015   3.532   1.394
    1   AR   Ar   38   5.670   4.865   4.371
    1   AR   Ar   39   0.396   2.667   3.998
    1   AR   Ar   40   0.819   4.370   2.057
    1   AR   Ar   41   0.882   1.618   3.404
    1   AR   Ar   42   5.002   5.717   5.486
    1   AR   Ar   43   7.118   2.887   5.898
    1   AR   Ar   44   0.914   3.609   3.056
    1   AR   Ar   45   1.691   3.862   5.447
    1   AR   Ar   46   5.934   5.227   6.682
    1   AR   Ar   47   2.872   3.548   6.612
    1   AR   Ar   48   6.887   3.012   7.354
    1   AR   Ar   49   0.696   1.200   0.871
    1   AR   Ar   50   2.715   4.057  -0.244
    1   AR   Ar   51   5.238   3.577   2.611
    1   AR   Ar   52   5.318   3.588  -1.471
    1   AR   Ar   53   4.396   0.338   3.421
    1   AR   Ar   54   6.758   6.631   2.701
    1   AR   Ar   55   6.884   4.592   2.110
    1   AR   Ar   56   5.898   1.473   3.132
    1   AR   Ar   57   3.996   5.205   2.227
    1   AR   Ar   58   1.061   3.590   4.228
    1   AR   Ar   59   2.798   5.851   5.522
    1   AR   Ar   60   0.518   5.119   2.957
    1   AR   Ar   61   0.012   4.476   6.506
    1   AR   Ar   62   6.983   4.441   5.174
    1   AR   Ar   63   2.639   2.606   7.318
    1   AR   Ar   64   0.693   5.109   4.079
    1   AR   Ar   65   3.895   0.662   2.573
    1   AR   Ar   66   1.359   1.457   1.537
    1   AR   Ar   67   4.489   0.715  -0.890
    1   AR   Ar   68   6.574   0.652   0.172
    1   AR   Ar   69   2.746   2.281   0.167
    1   AR   Ar   70   7.089   1.539   1.960
    1   AR   Ar   71   2.910   0.514   2.647
    1   AR   Ar   72   4.269   1.047   1.472
    1   AR   Ar   73   3.158   0.197   4.293
    1   AR   Ar   74   0.974   0.453   3.421
    1   AR   Ar   75   2.723   0.677   5.450
    1   AR   Ar   76   2.322   0.347   1.473
    1   AR   Ar   77   1.320   5.762   5.534
    1   AR   Ar   78   0.177   5.385   5.632
    1   AR   Ar   79   3.316   6.898   5.166
    1   AR   Ar   80   3.416   4.859   5.815
    1   AR   Ar   81   2.258   6.574   1.879
    1   AR   Ar   82   6.872   5.484   1.537
    1   AR   Ar   83   0.728   3.393   1.411
    1   AR   Ar   84   0.515   4.490   1.083
    1   AR   Ar   85   0.905   3.057   0.062
    1   AR   Ar   86   1.762   5.255   1.126
    1   AR   Ar   87   3.632   2.987   2.896
    1   AR   Ar   88   3.450   5.487   1.237
    1   AR   Ar   89   6.232   2.292   1.290
    1   AR   Ar   90   3.107   1.536   6.117
    1   AR   Ar   91   1.937   1.093   3.207
    1   AR   Ar   92   2.566   2.125   1.329
    1   AR   Ar   93   1.571   0.544   5.821
    1   AR   Ar   94   6.945   6.598   8.719
    1   AR   Ar   95   4.990   0.935   6.273
    1   AR   Ar   96   2.312   6.969   4.928
    1   AR   Ar   97   4.097   1.582  -1.589
    1   AR   Ar   98   1.634   4.646   4.237
    1   AR   Ar   99   6.702   6.621  -0.451
    1   AR   Ar  100   5.392   3.356  -2.467
    1   AR   Ar  101   3.601   6.066   2.890
    1   AR   Ar  102   3.810   1.767   2.743
    1   AR   Ar  103   1.886   4.114   1.582
    1   AR   Ar  104   3.422   0.348  -0.789
    1   AR   Ar  105   2.729   2.388   2.661
    1   AR   Ar  106   4.385   1.363   4.006
    1   AR   Ar  107   1.100   4.674   5.364
    1   AR   Ar  108   2.126   0.334   3.900
    1   AR   Ar  109   2.250   4.747   4.998
    1   AR   Ar  110   1.799   2.029   4.499
    1   AR   Ar  111   3.602   4.381   6.735
    1   AR   Ar  112   6.513   6.247   5.660
    1   AR   Ar  113   6.805   5.550  -1.583
    1   AR   Ar  114   2.893   7.070  -0.050
    1   AR   Ar  115   0.651   4.726  -0.111
    1   AR   Ar  116   5.190   0.762   0.659
    1   AR   Ar  117   6.933   4.137   3.042
    1   AR   Ar  118   1.861   6.461   3.959
    1   AR   Ar  119   2.044   3.202   2.852
    1   AR   Ar  120   2.051   7.096   2.875
    1   AR   Ar  121   5.141   4.109   6.535
    1   AR   Ar  122   2.801   5.575   3.681
    1   AR   Ar  123   3.995   2.095   4.649
    1   AR   Ar  124   0.910   5.351   1.820
    1   AR   Ar  125   5.842   3.911   3.627
    1   AR   Ar  126   6.707   0.769   7.812
    1   AR   Ar  127   5.184   3.280   5.768
    1   AR   Ar  128   0.640   3.593   6.159
    1   AR   Ar  129   2.013   5.747   4.730
    1   AR   Ar  130   4.683   0.806  -5.070
    1   AR   Ar  131   3.833   6.361  -0.493
    1   AR   Ar  132   1.510   2.535   1.195
    1   AR   Ar  133   4.140   0.613   4.742
    1   AR   Ar  134   2.703   1.358   4.286
    1   AR   Ar  135   6.404   6.743   4.722
    1   AR   Ar  136   5.423   6.739   2.660
    1   AR   Ar  137   2.212   4.446   6.185
    1   AR   Ar  138   5.939   1.288   5.789
    1   AR   Ar  139   6.219   1.602   4.662
    1   AR   Ar  140   4.528   6.687   4.959
    1   AR   Ar  141   3.491   5.221   4.644
    1   AR   Ar  142   4.591   6.165   8.209
    1   AR   Ar  143   5.565   7.059   7.304
    1   AR   Ar  144   7.023   2.499   4.896
    1   AR   Ar  145   5.096   4.917  -1.101
    1   AR   Ar  146   3.750   2.235   3.630
    1   AR   Ar  147   5.412   4.118  -0.078
    1   AR   Ar  148   2.470   6.004  -0.824
    1   AR   Ar  149   0.383   2.418  -0.574
    1   AR   Ar  150   1.369   2.238   2.251
    1   AR   Ar  151   2.717   3.703   2.026
    1   AR   Ar  152   0.924   1.047  -0.876
    1   AR   Ar  153   5.572   0.468   3.457
    1   AR   Ar  154   4.870   3.149   3.563
    1   AR   Ar  155   6.154   3.392   5.555
    1   AR   Ar  156   3.061   4.017   3.198
    1   AR   Ar  157   2.969   5.466   6.576
    1   AR   Ar  158   0.708   2.634   6.890
    1   AR   Ar  159   4.145   0.725   5.852
    1   AR   Ar  160   1.461   1.121   4.104
    1   AR   Ar  161   4.895   4.623   3.191
    1   AR   Ar  162   4.164   5.324  -0.676
    1   AR   Ar  163   6.285   3.866   2.390
    1   AR   Ar  164   2.136   5.980   2.865
    1   AR   Ar  165   3.143   4.263   0.938
    1   AR   Ar  166   2.677   3.525   5.480
    1   AR   Ar  167   6.215   6.737   3.772
    1   AR   Ar  168   5.625   4.342  -2.328
    1   AR   Ar  169   4.002   3.693   3.600
    1   AR   Ar  170   2.844   2.528   6.012
    1   AR   Ar  171   4.633   5.463   4.142
    1   AR   Ar  172   4.161   3.384   4.650
    1   AR   Ar  173   1.530   1.869   7.256
    1   AR   Ar  174   3.178   6.197   4.449
    1   AR   Ar  175   2.600   6.960   7.371
    1   AR   Ar  176   3.180   3.151   4.019
    1   AR   Ar  177   0.183   4.265  -0.871
    1   AR   Ar  178   2.308   6.239   0.824
    1   AR   Ar  179   3.567   6.213   0.521
    1   AR   Ar  180   5.181   0.001  -7.584
    1   AR   Ar  181   0.123   6.439   1.797
    1   AR   Ar  182   1.237   6.553   3.048
    1   AR   Ar  183   4.958   5.366   1.507
    1   AR   Ar  184   4.222   5.414   0.392
    1   AR   Ar  185   3.219   4.279   4.262
    1   AR   Ar  186   3.016   6.766   3.362
    1   AR   Ar  187   4.019   6.672   4.132
    1   AR   Ar  188   3.255   0.955   1.706
    1   AR   Ar  189   6.038   2.305   5.625
    1   AR   Ar  190   1.277   0.056   4.346
    1   AR   Ar  191   4.018   5.906   5.665
    1   AR   Ar  192   4.059   3.457   6.322
    1   AR   Ar  193   3.256   6.222   1.880
    1   AR   Ar  194   4.976   6.235  -0.358
    1   AR   Ar  195   6.294   0.997   1.360
    1   AR   Ar  196   4.377   7.019   0.710
    1   AR   Ar  197   4.848   3.027   0.121
    1   AR   Ar  198   6.593   7.007   1.170
    1   AR   Ar  199   0.327   0.413   2.053
    1   AR   Ar  200   6.293   2.888  -0.063
    1   AR   Ar  201   6.479   5.624   2.587
    1   AR   Ar  202   5.179   0.341   4.766
    1   AR   Ar  203   0.046   7.110   3.581
    1   AR   Ar  204   4.557   4.583   7.273
    1   AR   Ar  205   5.274   1.609   1.887
    1   AR   Ar  206   6.563   0.156   5.800
    1   AR   Ar  207   6.754   3.624   4.428
    1   AR   Ar  208   0.661   6.045   3.673
    1   AR   Ar  209   5.823   1.846  -1.873
    1   AR   Ar  210   2.064   0.767  -0.827
    1   AR   Ar  211   7.108   2.896   0.858
    1   AR   Ar  212   6.762   3.779  -0.030
    1   AR   Ar  213   3.529   1.772   0.945
    1   AR   Ar  214   5.005   4.087   1.839
    1   AR   Ar  215   0.399   2.709   2.333
    1   AR   Ar  216   1.912   1.998  -0.506
    1   AR   Ar  217   5.318   1.866   3.999
    1   AR   Ar  218   5.012   2.736   4.839
    1   AR   Ar  219   4.008   3.909   2.441
    1   AR   Ar  220   4.296   4.661   1.005
    1   AR   Ar  221   6.784   5.654   3.708
    1   AR   Ar  222   5.122   6.925   5.992
    1   AR   Ar  223   0.029   1.345   5.521
    1   AR   Ar  224   5.098   1.691   5.095
    1   AR   Ar  225   6.563   2.113   2.502
    1   AR   Ar  226   2.250   3.911   3.969
    1   AR   Ar  227   1.105   2.558   3.304
    1   AR   Ar  228   6.319   0.923   2.416
    1   AR   Ar  229   6.209   4.810  -1.075
    1   AR   Ar  230   4.058   5.209   3.238
    1   AR   Ar  231   4.967   2.360   2.670
    1   AR   Ar  232   5.074   3.035   1.789
    1   AR   Ar  233   6.835   2.086   3.523
    1   AR   Ar  234   5.896   2.588   4.422
    1   AR   Ar  235   6.445   0.807   3.938
    1   AR   Ar  236   3.979   4.280   5.295
    1   AR   Ar  237   4.526   1.106   7.491
    1   AR   Ar  238   4.529   5.284   6.477
    1   AR   Ar  239   1.321   4.131  11.197
    1   AR   Ar  240   1.731   3.535   6.533
    1   AR   Ar  241   1.539   7.091   0.503
    1   AR   Ar  242   5.669   6.352   1.598
    1   AR   Ar  243   4.712   6.304   2.018
    1   AR   Ar  244   6.518   5.911   0.517
    1   AR   Ar  245   3.526   0.857   3.572
    1   AR   Ar  246   5.003   6.486  -1.354
    1   AR   Ar  247   6.907   3.547   1.666
    1   AR   Ar  248   5.814   5.551  -0.296
    1   AR   Ar  249   3.588   7.092   1.378
    1   AR   Ar  250   5.043   6.565   3.891
    1   AR   Ar  251   5.010   4.329   5.263
    1   AR   Ar  252   2.934   5.113   2.603
    1   AR   Ar  253   4.664   2.409   8.573
    1   AR   Ar  254   4.604   3.904  12.225
    1   AR   Ar  255   4.900   0.228   8.646
    1   AR   Ar  256   5.648   5.814   3.381
    7.12000  7.12000 12.00000
Argon-slab step 5395
  256
    1   AR   Ar    1   4.234   3.484  -2.766
    1   AR   Ar    2   5.247   6.133   0.697
    1   AR   Ar    3   4.169   3.518  -0.688
    1   AR   Ar    4   2.622   1.197   0.826
    1   AR   Ar    5   6.879   5.450  -0.465
    1   AR   Ar    6   0.844   1.211   2.403
    1   AR   Ar    7   6.196   4.909   3.287
    1   AR   Ar    8   6.533   3.366  -1.102
    1   AR   Ar    9   0.436   6.086   4.665
    1   AR   Ar   10   5.921   4.501   5.847
    1   AR   Ar   11   1.069   6.814   5.339
    1   AR   Ar   12   0.313   1.708   4.328
    1   AR   Ar   13   0.193   0.098   5.094
    1   AR   Ar   14   3.545   0.685   6.902
    1   AR   Ar   15   2.342   5.881   9.683
    1   AR   Ar   16   0.461   0.118   6.122
    1   AR   Ar   17   6.106   3.430   1.088
    1   AR   Ar   18   6.798   4.628  -2.039
    1   AR   Ar   19   5.601   4.692   0.800
    1   AR   Ar   20   6.680   3.752  -2.452
    1   AR   Ar   21   2.272   1.420   2.107
    1   AR   Ar   22   5.149   0.227   1.868
    1   AR   Ar   23   0.987   6.023   0.859
    1   AR   Ar   24   5.921   2.597   3.194
    1   AR   Ar   25   1.152   2.934   5.354
    1   AR   Ar   26   5.660   5.932   4.603
    1   AR   Ar   27   1.226   0.405   1.541
    1   AR   Ar   28   2.195   2.684   3.678
    1   AR   Ar   29   5.723   1.214   8.060
    1   AR   Ar   30   0.019   0.990   2.920
    1   AR   Ar   31   1.135   0.272   6.855
    1   AR   Ar   32   0.948   1.759   5.860
    1   AR   Ar   33   6.650   4.588   1.011
    1   AR   Ar   34   1.679   4.935   2.815
    1   AR   Ar   35   5.088   5.420   2.509
    1   AR   Ar   36   4.320   2.500  -3.532
    1   AR   Ar   37   4.057   3.552   1.394
    1   AR   Ar   38   5.676   4.847   4.373
    1   AR   Ar   39   0.371   2.662   4.018
    1   AR   Ar   40   0.816   4.369   2.064
    1   AR   Ar   41   0.899   1.607   3.399
    1   AR   Ar   42   4.980   5.758   5.468
    1   AR   Ar   43   0.016   2.889   5.929
    1   AR   Ar   44   0.924   3.599   3.066
    1   AR   Ar   45   1.690   3.844   5.448
    1   AR   Ar   46   5.925   5.253   6.670
    1   AR   Ar   47   2.846   3.534   6.584
    1   AR   Ar   48   6.882   2.986   7.338
    1   AR   Ar   49   0.696   1.214   0.847
    1   AR   Ar   50   2.678   4.054  -0.236
    1   AR   Ar   51   5.244   3.571   2.608
    1   AR   Ar   52   5.324   3.554  -1.463
    1   AR   Ar   53   4.407   0.339   3.427
    1   AR   Ar   54   6.776   6.654   2.714
    1   AR   Ar   55   6.867   4.556   2.130
    1   AR   Ar   56   5.862   1.498   3.150
    1   AR   Ar   57   3.983   5.200   2.196
    1   AR   Ar   58   1.070   3.556   4.231
    1   AR   Ar   59   2.792   5.882   5.529
    1   AR   Ar   60   0.549   5.111   2.977
    1   AR   Ar   61   0.008   4.490   6.506
    1   AR   Ar   62   6.966   4.413   5.153
    1   AR   Ar   63   2.612   2.570   7.278
    1   AR   Ar   64   0.702   5.117   4.088
    1   AR   Ar   65   3.850   0.670   2.561
    1   AR   Ar   66   1.373   1.426   1.520
    1   AR   Ar   67   4.489   0.713  -0.882
    1   AR   Ar   68   6.575   0.636   0.204
    1   AR   Ar   69   2.751   2.300   0.195
    1   AR   Ar   70   7.104   1.536   1.951
    1   AR   Ar   71   2.883   0.493   2.660
    1   AR   Ar   72   4.320   1.047   1.474
    1   AR   Ar   73   3.142   0.201   4.265
    1   AR   Ar   74   0.973   0.461   3.421
    1   AR   Ar   75   2.715   0.686   5.440
    1   AR   Ar   76   2.318   0.367   1.482
    1   AR   Ar   77   1.352   5.790   5.547
    1   AR   Ar   78   0.184   5.373   5.623
    1   AR   Ar   79   3.309   6.920   5.178
    1   AR   Ar   80   3.417   4.853   5.817
    1   AR   Ar   81   2.248   6.546   1.898
    1   AR   Ar   82   6.857   5.462   1.531
    1   AR   Ar   83   0.736   3.375   1.390
    1   AR   Ar   84   0.507   4.509   1.092
    1   AR   Ar   85   0.909   3.040   0.039
    1   AR   Ar   86   1.760   5.277   1.153
    1   AR   Ar   87   3.635   3.009   2.879
    1   AR   Ar   88   3.456   5.483   1.247
    1   AR   Ar   89   6.204   2.276   1.263
    1   AR   Ar   90   3.078   1.515   6.115
    1   AR   Ar   91   1.930   1.111   3.209
    1   AR   Ar   92   2.573   2.099   1.332
    1   AR   Ar   93   1.592   0.542   5.855
    1   AR   Ar   94   6.923   6.598   8.732
    1   AR   Ar   95   4.997   0.939   6.318
    1   AR   Ar   96   2.325   6.965   4.917
    1   AR   Ar   97   4.138   1.556  -1.604
    1   AR   Ar   98   1.633   4.623   4.218
    1   AR   Ar   99   6.697   6.614  -0.471
    1   AR   Ar  100   5.382   3.344  -2.452
    1   AR   Ar  101   3.601   6.077   2.914
    1   AR   Ar  102   3.835   1.769   2.731
    1   AR   Ar  103   1.869   4.114   1.629
    1   AR   Ar  104   3.410   0.346  -0.759
    1   AR   Ar  105   2.729   2.382   2.669
    1   AR   Ar  106   4.384   1.334   3.989
    1   AR   Ar  107   1.103   4.685   5.346
    1   AR   Ar  108   2.125   0.303   3.923
    1   AR   Ar  109   2.260   4.745   4.990
    1   AR   Ar  110   1.806   2.058   4.497
    1   AR   Ar  111   3.603   4.398   6.731
    1   AR   Ar  112   6.527   6.216   5.673
    1   AR   Ar  113   6.777   5.540  -1.582
    1   AR   Ar  114   2.877   7.095  -0.039
    1   AR   Ar  115   0.659   4.709  -0.105
    1   AR   Ar  116   5.204   0.816   0.623
    1   AR   Ar  117   6.936   4.160   3.001
    1   AR   Ar  118   1.866   6.492   3.985
    1   AR   Ar  119   2.081   3.184   2.853
    1   AR   Ar  120   2.078   7.103   2.867
    1   AR   Ar  121   5.101   4.115   6.558
    1   AR   Ar  122   2.789   5.577   3.705
    1   AR   Ar  123   4.010   2.134   4.686
    1   AR   Ar  124   0.916   5.344   1.835
    1   AR   Ar  125   5.858   3.872   3.617
    1   AR   Ar  126   6.713   0.760   7.818
    1   AR   Ar  127   5.162   3.301   5.781
    1   AR   Ar  128   0.637   3.613   6.164
    1   AR   Ar  129   2.003   5.767   4.730
    1   AR   Ar  130   4.719   0.818  -5.064
    1   AR   Ar  131   3.843   6.355  -0.488
    1   AR   Ar  132   1.539   2.513   1.242
    1   AR   Ar  133   4.143   0.621   4.727
    1   AR   Ar  134   2.708   1.338   4.284
    1   AR   Ar  135   6.397   6.737   4.727
    1   AR   Ar  136   5.428   6.759   2.666
    1   AR   Ar  137   2.200   4.455   6.202
    1   AR   Ar  138   5.949   1.292   5.788
    1   AR   Ar  139   6.219   1.599   4.666
    1   AR   Ar  140   4.539   6.649   4.933
    1   AR   Ar  141   3.492   5.198   4.630
    1   AR   Ar  142   4.557   6.138   8.228
    1   AR   Ar  143   5.569   7.094   7.361
    1   AR   Ar  144   7.022   2.491   4.925
    1   AR   Ar  145   5.122   4.889  -1.116
    1   AR   Ar  146   3.764   2.254   3.641
    1   AR   Ar  147   5.396   4.155  -0.077
    1   AR   Ar  148   2.446   6.000  -0.812
    1   AR   Ar  149   0.378   2.395  -0.565
    1   AR   Ar  150   1.366   2.259   2.259
    1   AR   Ar  151   2.725   3.695   1.985
    1   AR   Ar  152   0.911   1.083  -0.884
    1   AR   Ar  153   5.556   0.487   3.451
    1   AR   Ar  154   4.873   3.138   3.588
    1   AR   Ar  155   6.166   3.420   5.557
    1   AR   Ar  156   3.030   3.991   3.232
    1   AR   Ar  157   2.961   5.428   6.540
    1   AR   Ar  158   0.732   2.604   6.900
    1   AR   Ar  159   4.182   0.751   5.837
    1   AR   Ar  160   1.467   1.105   4.092
    1   AR   Ar  161   4.894   4.634   3.225
    1   AR   Ar  162   4.172   5.310  -0.687
    1   AR   Ar  163   6.276   3.848   2.418
    1   AR   Ar  164   2.149   5.959   2.891
    1   AR   Ar  165   3.147   4.230   0.958
    1   AR   Ar  166   2.710   3.472   5.506
    1   AR   Ar  167   6.251   6.734   3.761
    1   AR   Ar  168   5.620   4.380  -2.353
    1   AR   Ar  169   4.012   3.722   3.596
    1   AR   Ar  170   2.828   2.525   6.012
    1   AR   Ar  171   4.617   5.415   4.113
    1   AR   Ar  172   4.171   3.379   4.691
    1   AR   Ar  173   1.488   1.877   7.273
    1   AR   Ar  174   3.210   6.193   4.452
    1   AR   Ar  175   2.602   6.931   7.414
    1   AR   Ar  176   3.173   3.145   3.998
    1   AR   Ar  177   0.154   4.265  -0.897
    1   AR   Ar  178   2.310   6.260   0.817
    1   AR   Ar  179   3.545   6.230   0.517
    1   AR   Ar  180   5.177   7.117  -7.605
    1   AR   Ar  181   0.164   6.421   1.794
    1   AR   Ar  182   1.235   6.579   3.014
    1   AR   Ar  183   4.938   5.381   1.510
    1   AR   Ar  184   4.207   5.389   0.366
    1   AR   Ar  185   3.209   4.254   4.264
    1   AR   Ar  186   2.994   6.749   3.372
    1   AR   Ar  187   4.025   6.680   4.146
    1   AR   Ar  188   3.267   0.949   1.698
    1   AR   Ar  189   6.025   2.325   5.633
    1   AR   Ar  190   1.256   0.063   4.366
    1   AR   Ar  191   4.017   5.879   5.617
    1   AR   Ar  192   4.049   3.464   6.333
    1   AR   Ar  193   3.241   6.241   1.850
    1   AR   Ar  194   4.961   6.234  -0.356
    1   AR   Ar  195   6.288   1.012   1.372
    1   AR   Ar  196   4.383   7.005   0.731
    1   AR   Ar  197   4.858   3.017   0.152
    1   AR   Ar  198   6.625   7.023   1.189
    1   AR   Ar  199   0.303   0.432   2.070
    1   AR   Ar  200   6.282   2.889  -0.060
    1   AR   Ar  201   6.472   5.611   2.571
    1   AR   Ar  202   5.179   0.324   4.756
    1   AR   Ar  203   0.010   7.109   3.603
    1   AR   Ar  204   4.558   4.594   7.263
    1   AR   Ar  205   5.251   1.600   1.904
    1   AR   Ar  206   6.531   0.150   5.836
    1   AR   Ar  207   6.751   3.616   4.430
    1   AR   Ar  208   0.647   6.052   3.665
    1   AR   Ar  209   5.773   1.831  -1.878
    1   AR   Ar  210   2.075   0.766  -0.810
    1   AR   Ar  211   7.086   2.907   0.857
    1   AR   Ar  212   6.771   3.785  -0.024
    1   AR   Ar  213   3.524   1.737   0.954
    1   AR   Ar  214   5.022   4.085   1.814
    1   AR   Ar  215   0.378   2.736   2.321
    1   AR   Ar  216   1.889   1.969  -0.539
    1   AR   Ar  217   5.303   1.858   3.985
    1   AR   Ar  218   5.017   2.761   4.856
    1   AR   Ar  219   4.003   3.937   2.430
    1   AR   Ar  220   4.300   4.671   0.987
    1   AR   Ar  221   6.805   5.648   3.696
    1   AR   Ar  222   5.127   6.899   6.023
    1   AR   Ar  223   0.061   1.311   5.502
    1   AR   Ar  224   5.119   1.681   5.073
    1   AR   Ar  225   6.570   2.104   2.530
    1   AR   Ar  226   2.248   3.933   3.961
    1   AR   Ar  227   1.080   2.549   3.320
    1   AR   Ar  228   6.340   0.923   2.404
    1   AR   Ar  229   6.223   4.820  -1.076
    1   AR   Ar  230   4.059   5.205   3.229
    1   AR   Ar  231   4.963   2.370   2.682
    1   AR   Ar  232   5.061   3.020   1.767
    1   AR   Ar  233   6.857   2.078   3.531
    1   AR   Ar  234   5.899   2.577   4.419
    1   AR   Ar  235   6.481   0.788   3.947
    1   AR   Ar  236   3.992   4.242   5.302
    1   AR   Ar  237   4.534   1.153   7.464
    1   AR   Ar  238   4.550   5.270   6.446
    1   AR   Ar  239   1.322   4.110  11.202
    1   AR   Ar  240   1.746   3.524   6.546
    1   AR   Ar  241   1.538   7.093   0.486
    1   AR   Ar  242   5.670   6.354   1.622
    1   AR   Ar  243   4.711   6.294   1.994
    1   AR   Ar  244   6.509   5.932   0.462
    1   AR   Ar  245   3.535   0.869   3.565
    1   AR   Ar  246   5.006   6.486  -1.336
    1   AR   Ar  247   6.899   3.533   1.684
    1   AR   Ar  248   5.771   5.545  -0.300
    1   AR   Ar  249   3.591   0.001   1.349
    1   AR   Ar  250   5.098   6.525   3.908
    1   AR   Ar  251   5.022   4.318   5.290
    1   AR   Ar  252   2.952   5.077   2.618
    1   AR   Ar  253   4.687   2.402   8.569
    1   AR   Ar  254   4.591   3.933  12.237
    1   AR   Ar  255   4.927   0.246   8.653
    1   AR   Ar  256   5.629   5.770   3.345
    7.12000  7.12000 12.00000
Argon-slab step 5400
  256
    1   AR   Ar    1   4.248   3.500  -2.749
    1   AR   Ar    2   5.259   6.113   0.705
    1   AR   Ar    3   4.190   3.537  -0.684
    1   AR   Ar    4   2.641   1.223   0.837
    1   AR   Ar    5   6.864   5.434  -0.484
    1   AR   Ar    6   0.851   1.207   2.384
    1   AR   Ar    7   6.233   4.899   3.268
    1   AR   Ar    8   6.529   3.362  -1.085
    1   AR   Ar    9   0.463   6.066   4.679
    1   AR   Ar   10   5.904   4.466   5.875
    1   AR   Ar   11   1.070   6.790   5.336
    1   AR   Ar   12   0.333   1.666   4.334
    1   AR   Ar   13   0.213   0.122   5.084
    1   AR   Ar   14   3.559   0.687   6.888
    1   AR   Ar   15   2.354   5.868   9.687
    1   AR   Ar   16   0.445   0.120   6.117
    1   AR   Ar   17   6.080   3.415   1.093
    1   AR   Ar   18   6.755   4.663  -2.029
    1   AR   Ar   19   5.561   4.689   0.803
    1   AR   Ar   20   6.661   3.726  -2.451
    1   AR   Ar   21   2.251   1.441   2.113
    1   AR   Ar   22   5.103   0.263   1.850
    1   AR   Ar   23   0.989   6.030   0.855
    1   AR   Ar   24   5.948   2.568   3.211
    1   AR   Ar   25   1.152   2.946   5.380
    1   AR   Ar   26   5.659   5.966   4.624
    1   AR   Ar   27   1.236   0.403   1.539
    1   AR   Ar   28   2.212   2.679   3.703
    1   AR   Ar   29   5.741   1.193   8.061
    1   AR   Ar   30   0.063   0.982   2.926
    1   AR   Ar   31   1.136   0.287   6.863
    1   AR   Ar   32   0.954   1.746   5.903
    1   AR   Ar   33   6.668   4.581   1.011
    1   AR   Ar   34   1.675   4.919   2.835
    1   AR   Ar   35   5.124   5.411   2.553
    1   AR   Ar   36   4.267   2.507  -3.560
    1   AR   Ar   37   4.100   3.573   1.394
    1   AR   Ar   38   5.681   4.827   4.372
    1   AR   Ar   39   0.350   2.674   4.043
    1   AR   Ar   40   0.814   4.358   2.079
    1   AR   Ar   41   0.902   1.595   3.388
    1   AR   Ar   42   4.972   5.797   5.449
    1   AR   Ar   43   0.027   2.882   5.957
    1   AR   Ar   44   0.932   3.590   3.074
    1   AR   Ar   45   1.691   3.825   5.448
    1   AR   Ar   46   5.945   5.235   6.657
    1   AR   Ar   47   2.838   3.527   6.568
    1   AR   Ar   48   6.878   2.959   7.321
    1   AR   Ar   49   0.686   1.224   0.815
    1   AR   Ar   50   2.642   4.051  -0.227
    1   AR   Ar   51   5.252   3.560   2.626
    1   AR   Ar   52   5.330   3.522  -1.447
    1   AR   Ar   53   4.423   0.335   3.435
    1   AR   Ar   54   6.791   6.678   2.727
    1   AR   Ar   55   6.859   4.542   2.128
    1   AR   Ar   56   5.826   1.523   3.169
    1   AR   Ar   57   3.971   5.195   2.160
    1   AR   Ar   58   1.079   3.522   4.234
    1   AR   Ar   59   2.787   5.913   5.534
    1   AR   Ar   60   0.579   5.103   2.997
    1   AR   Ar   61   0.004   4.505   6.505
    1   AR   Ar   62   6.949   4.384   5.133
    1   AR   Ar   63   2.585   2.535   7.236
    1   AR   Ar   64   0.708   5.122   4.099
    1   AR   Ar   65   3.817   0.679   2.545
    1   AR   Ar   66   1.388   1.399   1.525
    1   AR   Ar   67   4.490   0.715  -0.855
    1   AR   Ar   68   6.575   0.619   0.238
    1   AR   Ar   69   2.757   2.318   0.225
    1   AR   Ar   70   0.005   1.526   1.929
    1   AR   Ar   71   2.856   0.479   2.670
    1   AR   Ar   72   4.372   1.046   1.476
    1   AR   Ar   73   3.125   0.209   4.235
    1   AR   Ar   74   0.974   0.480   3.414
    1   AR   Ar   75   2.707   0.698   5.431
    1   AR   Ar   76   2.317   0.391   1.491
    1   AR   Ar   77   1.381   5.816   5.562
    1   AR   Ar   78   0.214   5.375   5.598
    1   AR   Ar   79   3.313   6.941   5.200
    1   AR   Ar   80   3.411   4.856   5.816
    1   AR   Ar   81   2.233   6.515   1.920
    1   AR   Ar   82   6.842   5.444   1.525
    1   AR   Ar   83   0.755   3.359   1.370
    1   AR   Ar   84   0.510   4.527   1.098
    1   AR   Ar   85   0.914   3.027   0.022
    1   AR   Ar   86   1.759   5.299   1.179
    1   AR   Ar   87   3.636   3.031   2.862
    1   AR   Ar   88   3.466   5.468   1.253
    1   AR   Ar   89   6.177   2.260   1.239
    1   AR   Ar   90   3.051   1.490   6.113
    1   AR   Ar   91   1.927   1.129   3.201
    1   AR   Ar   92   2.579   2.079   1.338
    1   AR   Ar   93   1.564   0.550   5.870
    1   AR   Ar   94   6.901   6.599   8.744
    1   AR   Ar   95   5.018   0.946   6.371
    1   AR   Ar   96   2.329   6.958   4.902
    1   AR   Ar   97   4.178   1.529  -1.618
    1   AR   Ar   98   1.616   4.611   4.198
    1   AR   Ar   99   6.692   6.605  -0.490
    1   AR   Ar  100   5.373   3.329  -2.444
    1   AR   Ar  101   3.601   6.086   2.935
    1   AR   Ar  102   3.861   1.768   2.714
    1   AR   Ar  103   1.845   4.117   1.674
    1   AR   Ar  104   3.407   0.349  -0.740
    1   AR   Ar  105   2.735   2.372   2.657
    1   AR   Ar  106   4.384   1.306   3.971
    1   AR   Ar  107   1.104   4.687   5.324
    1   AR   Ar  108   2.133   0.311   3.954
    1   AR   Ar  109   2.276   4.742   4.990
    1   AR   Ar  110   1.819   2.096   4.500
    1   AR   Ar  111   3.605   4.414   6.728
    1   AR   Ar  112   6.540   6.205   5.661
    1   AR   Ar  113   6.784   5.544  -1.581
    1   AR   Ar  114   2.853   7.112  -0.015
    1   AR   Ar  115   0.667   4.693  -0.095
    1   AR   Ar  116   5.218   0.868   0.590
    1   AR   Ar  117   6.962   4.183   2.994
    1   AR   Ar  118   1.873   6.504   4.004
    1   AR   Ar  119   2.114   3.178   2.841
    1   AR   Ar  120   2.098   7.108   2.860
    1   AR   Ar  121   5.065   4.118   6.574
    1   AR   Ar  122   2.777   5.578   3.728
    1   AR   Ar  123   4.026   2.174   4.724
    1   AR   Ar  124   0.902   5.318   1.852
    1   AR   Ar  125   5.873   3.833   3.606
    1   AR   Ar  126   6.719   0.751   7.824
    1   AR   Ar  127   5.135   3.324   5.795
    1   AR   Ar  128   0.644   3.642   6.170
    1   AR   Ar  129   1.996   5.787   4.728
    1   AR   Ar  130   4.755   0.829  -5.057
    1   AR   Ar  131   3.853   6.351  -0.485
    1   AR   Ar  132   1.568   2.492   1.286
    1   AR   Ar  133   4.142   0.625   4.712
    1   AR   Ar  134   2.712   1.316   4.281
    1   AR   Ar  135   6.392   6.734   4.745
    1   AR   Ar  136   5.437   6.778   2.686
    1   AR   Ar  137   2.184   4.468   6.216
    1   AR   Ar  138   5.960   1.292   5.785
    1   AR   Ar  139   6.221   1.594   4.671
    1   AR   Ar  140   4.561   6.607   4.929
    1   AR   Ar  141   3.494   5.175   4.620
    1   AR   Ar  142   4.523   6.111   8.247
    1   AR   Ar  143   5.563   7.104   7.374
    1   AR   Ar  144   7.016   2.484   4.958
    1   AR   Ar  145   5.148   4.862  -1.129
    1   AR   Ar  146   3.778   2.273   3.656
    1   AR   Ar  147   5.379   4.190  -0.079
    1   AR   Ar  148   2.423   5.998  -0.799
    1   AR   Ar  149   0.370   2.370  -0.558
    1   AR   Ar  150   1.365   2.278   2.272
    1   AR   Ar  151   2.741   3.684   1.948
    1   AR   Ar  152   0.894   1.101  -0.895
    1   AR   Ar  153   5.539   0.504   3.444
    1   AR   Ar  154   4.880   3.123   3.612
    1   AR   Ar  155   6.184   3.450   5.556
    1   AR   Ar  156   2.999   3.965   3.261
    1   AR   Ar  157   2.951   5.390   6.506
    1   AR   Ar  158   0.756   2.575   6.908
    1   AR   Ar  159   4.198   0.735   5.796
    1   AR   Ar  160   1.470   1.091   4.094
    1   AR   Ar  161   4.901   4.638   3.261
    1   AR   Ar  162   4.180   5.299  -0.702
    1   AR   Ar  163   6.262   3.823   2.401
    1   AR   Ar  164   2.164   5.939   2.916
    1   AR   Ar  165   3.153   4.198   0.979
    1   AR   Ar  166   2.743   3.421   5.531
    1   AR   Ar  167   6.267   6.723   3.738
    1   AR   Ar  168   5.616   4.419  -2.376
    1   AR   Ar  169   4.021   3.755   3.594
    1   AR   Ar  170   2.811   2.526   6.014
    1   AR   Ar  171   4.609   5.381   4.091
    1   AR   Ar  172   4.178   3.373   4.729
    1   AR   Ar  173   1.447   1.885   7.289
    1   AR   Ar  174   3.181   6.196   4.464
    1   AR   Ar  175   2.604   6.903   7.457
    1   AR   Ar  176   3.165   3.139   3.976
    1   AR   Ar  177   0.120   4.265  -0.928
    1   AR   Ar  178   2.317   6.284   0.808
    1   AR   Ar  179   3.521   6.251   0.516
    1   AR   Ar  180   5.174   7.113  -7.627
    1   AR   Ar  181   0.207   6.403   1.792
    1   AR   Ar  182   1.239   6.609   3.009
    1   AR   Ar  183   4.919   5.393   1.504
    1   AR   Ar  184   4.193   5.381   0.329
    1   AR   Ar  185   3.201   4.228   4.267
    1   AR   Ar  186   2.968   6.734   3.386
    1   AR   Ar  187   4.024   6.694   4.135
    1   AR   Ar  188   3.275   0.946   1.691
    1   AR   Ar  189   6.013   2.349   5.638
    1   AR   Ar  190   1.222   0.073   4.393
    1   AR   Ar  191   4.001   5.854   5.570
    1   AR   Ar  192   4.039   3.473   6.343
    1   AR   Ar  193   3.228   6.265   1.829
    1   AR   Ar  194   4.946   6.229  -0.343
    1   AR   Ar  195   6.281   1.026   1.380
    1   AR   Ar  196   4.367   6.978   0.737
    1   AR   Ar  197   4.865   3.028   0.160
    1   AR   Ar  198   6.656   7.040   1.208
    1   AR   Ar  199   0.271   0.443   2.083
    1   AR   Ar  200   6.261   2.867  -0.060
    1   AR   Ar  201   6.466   5.600   2.552
    1   AR   Ar  202   5.185   0.311   4.745
    1   AR   Ar  203   7.112   7.113   3.625
    1   AR   Ar  204   4.556   4.608   7.261
    1   AR   Ar  205   5.230   1.590   1.921
    1   AR   Ar  206   6.495   0.148   5.872
    1   AR   Ar  207   6.748   3.605   4.431
    1   AR   Ar  208   0.635   6.062   3.653
    1   AR   Ar  209   5.722   1.816  -1.882
    1   AR   Ar  210   2.087   0.765  -0.793
    1   AR   Ar  211   7.062   2.914   0.851
    1   AR   Ar  212   6.783   3.797  -0.017
    1   AR   Ar  213   3.522   1.703   0.963
    1   AR   Ar  214   5.034   4.102   1.796
    1   AR   Ar  215   0.356   2.763   2.308
    1   AR   Ar  216   1.900   1.983  -0.527
    1   AR   Ar  217   5.327   1.871   3.981
    1   AR   Ar  218   5.016   2.786   4.875
    1   AR   Ar  219   4.000   3.967   2.420
    1   AR   Ar  220   4.305   4.664   0.983
    1   AR   Ar  221   6.825   5.645   3.685
    1   AR   Ar  222   5.131   6.874   6.054
    1   AR   Ar  223   0.089   1.276   5.479
    1   AR   Ar  224   5.141   1.669   5.050
    1   AR   Ar  225   6.569   2.103   2.562
    1   AR   Ar  226   2.253   3.940   3.949
    1   AR   Ar  227   1.066   2.556   3.327
    1   AR   Ar  228   6.344   0.919   2.384
    1   AR   Ar  229   6.233   4.813  -1.076
    1   AR   Ar  230   4.052   5.205   3.218
    1   AR   Ar  231   4.958   2.380   2.695
    1   AR   Ar  232   5.048   3.000   1.740
    1   AR   Ar  233   6.858   2.072   3.535
    1   AR   Ar  234   5.914   2.572   4.414
    1   AR   Ar  235   6.517   0.769   3.956
    1   AR   Ar  236   4.006   4.198   5.304
    1   AR   Ar  237   4.543   1.199   7.436
    1   AR   Ar  238   4.571   5.257   6.412
    1   AR   Ar  239   1.323   4.104  11.201
    1   AR   Ar  240   1.759   3.510   6.557
    1   AR   Ar  241   1.530   7.083   0.458
    1   AR   Ar  242   5.679   6.357   1.647
    1   AR   Ar  243   4.702   6.287   1.971
    1   AR   Ar  244   6.500   5.954   0.410
    1   AR   Ar  245   3.537   0.885   3.556
    1   AR   Ar  246   5.010   6.488  -1.324
    1   AR   Ar  247   6.925   3.550   1.709
    1   AR   Ar  248   5.729   5.536  -0.303
    1   AR   Ar  249   3.589   0.030   1.323
    1   AR   Ar  250   5.151   6.489   3.923
    1   AR   Ar  251   5.025   4.307   5.285
    1   AR   Ar  252   2.969   5.042   2.634
    1   AR   Ar  253   4.710   2.395   8.565
    1   AR   Ar  254   4.579   3.949  12.253
    1   AR   Ar  255   4.955   0.265   8.659
    1   AR   Ar  256   5.611   5.730   3.313
    7.12000  7.12000 12.00000
Argon-slab step 5405
  256
    1   AR   Ar    1   4.264   3.516  -2.733
    1   AR   Ar    2   5.268   6.073   0.728
    1   AR   Ar    3   4.213   3.557  -0.680
    1   AR   Ar    4   2.653   1.237   0.842
    1   AR   Ar    5   6.850   5.419  -0.501
    1   AR   Ar    6   0.865   1.210   2.370
    1   AR   Ar    7   6.265   4.880   3.251
    1   AR   Ar    8   6.522   3.362  -1.061
    1   AR   Ar    9   0.489   6.048   4.697
    1   AR   Ar   10   5.889   4.430   5.902
    1   AR   Ar   11   1.079   6.764   5.337
    1   AR   Ar   12   0.354   1.618   4.342
    1   AR   Ar   13   0.224   0.149   5.068
    1   AR   Ar   14   3.574   0.689   6.872
    1   AR   Ar   15   2.366   5.854   9.691
    1   AR   Ar   16   0.424   0.121   6.106
    1   AR   Ar   17   6.052   3.400   1.097
    1   AR   Ar   18   6.711   4.692  -2.023
    1   AR   Ar   19   5.552   4.674   0.815
    1   AR   Ar   20   6.640   3.696  -2.450
    1   AR   Ar   21   2.233   1.459   2.123
    1   AR   Ar   22   5.057   0.301   1.831
    1   AR   Ar   23   0.990   6.037   0.852
    1   AR   Ar   24   5.968   2.547   3.233
    1   AR   Ar   25   1.149   2.953   5.406
    1   AR   Ar   26   5.661   5.995   4.649
    1   AR   Ar   27   1.243   0.393   1.537
    1   AR   Ar   28   2.228   2.671   3.733
    1   AR   Ar   29   5.757   1.172   8.062
    1   AR   Ar   30   0.103   0.976   2.951
    1   AR   Ar   31   1.140   0.304   6.875
    1   AR   Ar   32   0.960   1.735   5.947
    1   AR   Ar   33   6.669   4.568   1.006
    1   AR   Ar   34   1.675   4.909   2.853
    1   AR   Ar   35   5.149   5.396   2.581
    1   AR   Ar   36   4.215   2.515  -3.587
    1   AR   Ar   37   4.142   3.596   1.394
    1   AR   Ar   38   5.686   4.809   4.371
    1   AR   Ar   39   0.332   2.697   4.072
    1   AR   Ar   40   0.813   4.334   2.102
    1   AR   Ar   41   0.867   1.626   3.362
    1   AR   Ar   42   4.977   5.831   5.431
    1   AR   Ar   43   0.032   2.868   5.985
    1   AR   Ar   44   0.940   3.583   3.081
    1   AR   Ar   45   1.696   3.808   5.449
    1   AR   Ar   46   5.965   5.218   6.643
    1   AR   Ar   47   2.844   3.525   6.563
    1   AR   Ar   48   6.875   2.933   7.303
    1   AR   Ar   49   0.671   1.232   0.779
    1   AR   Ar   50   2.607   4.048  -0.217
    1   AR   Ar   51   5.260   3.545   2.654
    1   AR   Ar   52   5.336   3.493  -1.423
    1   AR   Ar   53   4.443   0.330   3.443
    1   AR   Ar   54   6.805   6.701   2.738
    1   AR   Ar   55   6.851   4.584   2.142
    1   AR   Ar   56   5.811   1.551   3.179
    1   AR   Ar   57   3.962   5.189   2.123
    1   AR   Ar   58   1.089   3.488   4.237
    1   AR   Ar   59   2.785   5.933   5.540
    1   AR   Ar   60   0.606   5.094   3.014
    1   AR   Ar   61   7.119   4.520   6.501
    1   AR   Ar   62   6.932   4.358   5.115
    1   AR   Ar   63   2.557   2.500   7.192
    1   AR   Ar   64   0.711   5.125   4.112
    1   AR   Ar   65   3.798   0.688   2.527
    1   AR   Ar   66   1.410   1.383   1.529
    1   AR   Ar   67   4.490   0.716  -0.828
    1   AR   Ar   68   6.574   0.602   0.274
    1   AR   Ar   69   2.762   2.335   0.256
    1   AR   Ar   70   0.025   1.517   1.899
    1   AR   Ar   71   2.847   0.482   2.674
    1   AR   Ar   72   4.423   1.044   1.477
    1   AR   Ar   73   3.111   0.218   4.210
    1   AR   Ar   74   0.974   0.497   3.401
    1   AR   Ar   75   2.699   0.711   5.421
    1   AR   Ar   76   2.316   0.417   1.501
    1   AR   Ar   77   1.409   5.838   5.580
    1   AR   Ar   78   0.234   5.376   5.579
    1   AR   Ar   79   3.326   6.961   5.228
    1   AR   Ar   80   3.414   4.857   5.809
    1   AR   Ar   81   2.213   6.484   1.944
    1   AR   Ar   82   6.829   5.432   1.521
    1   AR   Ar   83   0.781   3.343   1.349
    1   AR   Ar   84   0.527   4.545   1.103
    1   AR   Ar   85   0.921   3.017   0.008
    1   AR   Ar   86   1.759   5.320   1.206
    1   AR   Ar   87   3.636   3.052   2.844
    1   AR   Ar   88   3.477   5.445   1.254
    1   AR   Ar   89   6.150   2.244   1.216
    1   AR   Ar   90   3.025   1.462   6.113
    1   AR   Ar   91   1.928   1.146   3.183
    1   AR   Ar   92   2.584   2.069   1.348
    1   AR   Ar   93   1.501   0.564   5.872
    1   AR   Ar   94   6.878   6.600   8.756
    1   AR   Ar   95   5.045   0.953   6.428
    1   AR   Ar   96   2.327   6.947   4.888
    1   AR   Ar   97   4.219   1.502  -1.632
    1   AR   Ar   98   1.612   4.616   4.191
    1   AR   Ar   99   6.687   6.596  -0.508
    1   AR   Ar  100   5.364   3.312  -2.443
    1   AR   Ar  101   3.603   6.093   2.950
    1   AR   Ar  102   3.886   1.767   2.697
    1   AR   Ar  103   1.815   4.122   1.718
    1   AR   Ar  104   3.413   0.357  -0.730
    1   AR   Ar  105   2.751   2.356   2.618
    1   AR   Ar  106   4.389   1.284   3.952
    1   AR   Ar  107   1.105   4.672   5.297
    1   AR   Ar  108   2.149   0.333   3.978
    1   AR   Ar  109   2.297   4.739   4.994
    1   AR   Ar  110   1.830   2.131   4.504
    1   AR   Ar  111   3.607   4.428   6.729
    1   AR   Ar  112   6.554   6.209   5.634
    1   AR   Ar  113   6.815   5.562  -1.580
    1   AR   Ar  114   2.820   0.003   0.021
    1   AR   Ar  115   0.675   4.678  -0.083
    1   AR   Ar  116   5.232   0.920   0.559
    1   AR   Ar  117   7.004   4.199   3.018
    1   AR   Ar  118   1.879   6.498   4.014
    1   AR   Ar  119   2.142   3.181   2.822
    1   AR   Ar  120   2.095   7.099   2.860
    1   AR   Ar  121   5.033   4.117   6.580
    1   AR   Ar  122   2.789   5.570   3.730
    1   AR   Ar  123   3.990   2.195   4.763
    1   AR   Ar  124   0.885   5.303   1.867
    1   AR   Ar  125   5.888   3.793   3.593
    1   AR   Ar  126   6.725   0.741   7.829
    1   AR   Ar  127   5.106   3.347   5.811
    1   AR   Ar  128   0.658   3.677   6.178
    1   AR   Ar  129   1.993   5.803   4.726
    1   AR   Ar  130   4.790   0.841  -5.051
    1   AR   Ar  131   3.863   6.348  -0.483
    1   AR   Ar  132   1.596   2.472   1.325
    1   AR   Ar  133   4.138   0.625   4.698
    1   AR   Ar  134   2.716   1.292   4.276
    1   AR   Ar  135   6.389   6.733   4.768
    1   AR   Ar  136   5.447   6.794   2.711
    1   AR   Ar  137   2.170   4.481   6.228
    1   AR   Ar  138   5.971   1.289   5.782
    1   AR   Ar  139   6.225   1.588   4.678
    1   AR   Ar  140   4.589   6.564   4.938
    1   AR   Ar  141   3.498   5.154   4.611
    1   AR   Ar  142   4.489   6.085   8.265
    1   AR   Ar  143   5.550   7.099   7.358
    1   AR   Ar  144   7.005   2.476   4.993
    1   AR   Ar  145   5.174   4.833  -1.142
    1   AR   Ar  146   3.793   2.293   3.673
    1   AR   Ar  147   5.361   4.223  -0.086
    1   AR   Ar  148   2.400   5.996  -0.784
    1   AR   Ar  149   0.358   2.342  -0.554
    1   AR   Ar  150   1.364   2.295   2.291
    1   AR   Ar  151   2.762   3.670   1.914
    1   AR   Ar  152   0.877   1.116  -0.907
    1   AR   Ar  153   5.521   0.519   3.439
    1   AR   Ar  154   4.889   3.106   3.637
    1   AR   Ar  155   6.204   3.479   5.552
    1   AR   Ar  156   2.972   3.938   3.280
    1   AR   Ar  157   2.936   5.358   6.481
    1   AR   Ar  158   0.777   2.550   6.912
    1   AR   Ar  159   4.208   0.717   5.752
    1   AR   Ar  160   1.471   1.082   4.110
    1   AR   Ar  161   4.913   4.637   3.299
    1   AR   Ar  162   4.166   5.292  -0.744
    1   AR   Ar  163   6.245   3.794   2.361
    1   AR   Ar  164   2.179   5.921   2.941
    1   AR   Ar  165   3.159   4.166   1.001
    1   AR   Ar  166   2.776   3.378   5.549
    1   AR   Ar  167   6.257   6.699   3.710
    1   AR   Ar  168   5.609   4.448  -2.393
    1   AR   Ar  169   4.029   3.791   3.592
    1   AR   Ar  170   2.793   2.523   6.020
    1   AR   Ar  171   4.628   5.391   4.094
    1   AR   Ar  172   4.182   3.364   4.760
    1   AR   Ar  173   1.409   1.890   7.306
    1   AR   Ar  174   3.178   6.196   4.479
    1   AR   Ar  175   2.606   6.875   7.499
    1   AR   Ar  176   3.159   3.134   3.955
    1   AR   Ar  177   0.084   4.265  -0.961
    1   AR   Ar  178   2.332   6.314   0.797
    1   AR   Ar  179   3.495   6.275   0.516
    1   AR   Ar  180   5.178   0.018  -7.593
    1   AR   Ar  181   0.252   6.384   1.789
    1   AR   Ar  182   1.239   6.637   3.002
    1   AR   Ar  183   4.900   5.401   1.493
    1   AR   Ar  184   4.178   5.385   0.288
    1   AR   Ar  185   3.197   4.200   4.275
    1   AR   Ar  186   2.936   6.720   3.403
    1   AR   Ar  187   4.016   6.711   4.107
    1   AR   Ar  188   3.279   0.948   1.685
    1   AR   Ar  189   6.000   2.375   5.640
    1   AR   Ar  190   1.180   0.085   4.422
    1   AR   Ar  191   3.971   5.829   5.523
    1   AR   Ar  192   4.030   3.483   6.351
    1   AR   Ar  193   3.218   6.293   1.812
    1   AR   Ar  194   4.930   6.221  -0.322
    1   AR   Ar  195   6.273   1.041   1.380
    1   AR   Ar  196   4.361   6.949   0.736
    1   AR   Ar  197   4.869   3.053   0.151
    1   AR   Ar  198   6.684   7.052   1.221
    1   AR   Ar  199   0.234   0.443   2.089
    1   AR   Ar  200   6.241   2.844  -0.059
    1   AR   Ar  201   6.462   5.592   2.531
    1   AR   Ar  202   5.193   0.299   4.732
    1   AR   Ar  203   0.003   0.005   3.645
    1   AR   Ar  204   4.548   4.627   7.268
    1   AR   Ar  205   5.211   1.579   1.939
    1   AR   Ar  206   6.459   0.147   5.906
    1   AR   Ar  207   6.744   3.591   4.430
    1   AR   Ar  208   0.626   6.078   3.638
    1   AR   Ar  209   5.671   1.801  -1.886
    1   AR   Ar  210   2.098   0.764  -0.774
    1   AR   Ar  211   7.035   2.920   0.841
    1   AR   Ar  212   6.796   3.811  -0.008
    1   AR   Ar  213   3.529   1.673   0.971
    1   AR   Ar  214   5.044   4.133   1.802
    1   AR   Ar  215   0.334   2.790   2.297
    1   AR   Ar  216   1.911   1.995  -0.514
    1   AR   Ar  217   5.343   1.883   3.978
    1   AR   Ar  218   5.014   2.807   4.895
    1   AR   Ar  219   4.002   3.991   2.413
    1   AR   Ar  220   4.311   4.645   0.991
    1   AR   Ar  221   6.841   5.643   3.676
    1   AR   Ar  222   5.138   6.858   6.072
    1   AR   Ar  223   0.093   1.259   5.480
    1   AR   Ar  224   5.163   1.657   5.028
    1   AR   Ar  225   6.568   2.101   2.585
    1   AR   Ar  226   2.262   3.929   3.936
    1   AR   Ar  227   1.060   2.576   3.330
    1   AR   Ar  228   6.339   0.913   2.367
    1   AR   Ar  229   6.223   4.761  -1.082
    1   AR   Ar  230   4.040   5.202   3.207
    1   AR   Ar  231   4.953   2.391   2.709
    1   AR   Ar  232   5.041   2.995   1.737
    1   AR   Ar  233   6.832   2.075   3.543
    1   AR   Ar  234   5.892   2.587   4.428
    1   AR   Ar  235   6.551   0.756   3.965
    1   AR   Ar  236   4.017   4.155   5.308
    1   AR   Ar  237   4.553   1.245   7.408
    1   AR   Ar  238   4.592   5.243   6.375
    1   AR   Ar  239   1.326   4.121  11.191
    1   AR   Ar  240   1.770   3.495   6.567
    1   AR   Ar  241   1.517   7.064   0.421
    1   AR   Ar  242   5.693   6.360   1.675
    1   AR   Ar  243   4.686   6.284   1.952
    1   AR   Ar  244   6.489   5.976   0.360
    1   AR   Ar  245   3.533   0.904   3.545
    1   AR   Ar  246   5.013   6.491  -1.317
    1   AR   Ar  247   6.956   3.567   1.732
    1   AR   Ar  248   5.690   5.524  -0.307
    1   AR   Ar  249   3.579   0.058   1.301
    1   AR   Ar  250   5.199   6.460   3.934
    1   AR   Ar  251   5.032   4.297   5.279
    1   AR   Ar  252   2.987   5.008   2.652
    1   AR   Ar  253   4.733   2.387   8.560
    1   AR   Ar  254   4.572   3.945  12.274
    1   AR   Ar  255   4.983   0.283   8.663
    1   AR   Ar  256   5.603   5.701   3.299
    7.12000  7.12000 12.00000
Argon-slab step 5410
  256
    1   AR   Ar    1   4.281   3.531  -2.716
    1   AR   Ar    2   5.276   6.033   0.747
    1   AR   Ar    3   4.237   3.577  -0.676
    1   AR   Ar    4   2.655   1.235   0.836
    1   AR   Ar    5   6.838   5.402  -0.517
    1   AR   Ar    6   0.845   1.198   2.376
    1   AR   Ar    7   6.291   4.855   3.236
    1   AR   Ar    8   6.514   3.363  -1.036
    1   AR   Ar    9   0.515   6.031   4.719
    1   AR   Ar   10   5.878   4.410   5.907
    1   AR   Ar   11   1.090   6.739   5.342
    1   AR   Ar   12   0.374   1.568   4.351
    1   AR   Ar   13   0.230   0.179   5.047
    1   AR   Ar   14   3.590   0.692   6.855
    1   AR   Ar   15   2.377   5.841   9.695
    1   AR   Ar   16   0.402   0.123   6.095
    1   AR   Ar   17   6.023   3.386   1.100
    1   AR   Ar   18   6.667   4.710  -2.022
    1   AR   Ar   19   5.587   4.641   0.840
    1   AR   Ar   20   6.616   3.665  -2.449
    1   AR   Ar   21   2.219   1.474   2.139
    1   AR   Ar   22   5.014   0.333   1.814
    1   AR   Ar   23   0.993   6.036   0.861
    1   AR   Ar   24   5.976   2.543   3.264
    1   AR   Ar   25   1.140   2.954   5.432
    1   AR   Ar   26   5.670   6.015   4.681
    1   AR   Ar   27   1.246   0.374   1.536
    1   AR   Ar   28   2.245   2.664   3.760
    1   AR   Ar   29   5.771   1.150   8.063
    1   AR   Ar   30   0.132   0.971   2.990
    1   AR   Ar   31   1.145   0.322   6.889
    1   AR   Ar   32   0.968   1.726   5.992
    1   AR   Ar   33   6.656   4.547   0.996
    1   AR   Ar   34   1.692   4.925   2.860
    1   AR   Ar   35   5.150   5.368   2.570
    1   AR   Ar   36   4.163   2.523  -3.614
    1   AR   Ar   37   4.185   3.618   1.393
    1   AR   Ar   38   5.690   4.790   4.368
    1   AR   Ar   39   0.315   2.726   4.104
    1   AR   Ar   40   0.809   4.300   2.132
    1   AR   Ar   41   0.843   1.641   3.356
    1   AR   Ar   42   4.997   5.850   5.424
    1   AR   Ar   43   0.034   2.851   6.014
    1   AR   Ar   44   0.948   3.581   3.087
    1   AR   Ar   45   1.707   3.794   5.449
    1   AR   Ar   46   5.982   5.207   6.629
    1   AR   Ar   47   2.852   3.525   6.564
    1   AR   Ar   48   6.874   2.913   7.284
    1   AR   Ar   49   0.654   1.239   0.743
    1   AR   Ar   50   2.593   4.049  -0.176
    1   AR   Ar   51   5.266   3.527   2.687
    1   AR   Ar   52   5.364   3.490  -1.418
    1   AR   Ar   53   4.464   0.322   3.450
    1   AR   Ar   54   6.818   6.722   2.745
    1   AR   Ar   55   6.845   4.637   2.142
    1   AR   Ar   56   5.813   1.571   3.176
    1   AR   Ar   57   3.956   5.183   2.090
    1   AR   Ar   58   1.101   3.454   4.241
    1   AR   Ar   59   2.793   5.908   5.556
    1   AR   Ar   60   0.631   5.085   3.030
    1   AR   Ar   61   7.112   4.536   6.496
    1   AR   Ar   62   6.916   4.334   5.102
    1   AR   Ar   63   2.528   2.466   7.146
    1   AR   Ar   64   0.710   5.128   4.127
    1   AR   Ar   65   3.796   0.697   2.510
    1   AR   Ar   66   1.434   1.376   1.526
    1   AR   Ar   67   4.490   0.717  -0.800
    1   AR   Ar   68   6.574   0.584   0.311
    1   AR   Ar   69   2.766   2.350   0.289
    1   AR   Ar   70   0.041   1.509   1.863
    1   AR   Ar   71   2.853   0.504   2.673
    1   AR   Ar   72   4.467   1.043   1.476
    1   AR   Ar   73   3.107   0.227   4.192
    1   AR   Ar   74   0.974   0.513   3.386
    1   AR   Ar   75   2.689   0.724   5.408
    1   AR   Ar   76   2.318   0.442   1.511
    1   AR   Ar   77   1.435   5.852   5.602
    1   AR   Ar   78   0.217   5.377   5.590
    1   AR   Ar   79   3.344   6.981   5.258
    1   AR   Ar   80   3.455   4.847   5.809
    1   AR   Ar   81   2.188   6.454   1.967
    1   AR   Ar   82   6.819   5.428   1.516
    1   AR   Ar   83   0.802   3.316   1.341
    1   AR   Ar   84   0.526   4.579   1.105
    1   AR   Ar   85   0.929   3.010  -0.002
    1   AR   Ar   86   1.761   5.341   1.234
    1   AR   Ar   87   3.635   3.072   2.828
    1   AR   Ar   88   3.487   5.419   1.248
    1   AR   Ar   89   6.123   2.228   1.194
    1   AR   Ar   90   3.000   1.433   6.114
    1   AR   Ar   91   1.926   1.143   3.156
    1   AR   Ar   92   2.591   2.073   1.365
    1   AR   Ar   93   1.438   0.579   5.871
    1   AR   Ar   94   6.855   6.601   8.768
    1   AR   Ar   95   5.073   0.959   6.484
    1   AR   Ar   96   2.321   6.933   4.875
    1   AR   Ar   97   4.260   1.475  -1.645
    1   AR   Ar   98   1.608   4.629   4.188
    1   AR   Ar   99   6.681   6.586  -0.528
    1   AR   Ar  100   5.356   3.294  -2.447
    1   AR   Ar  101   3.606   6.102   2.961
    1   AR   Ar  102   3.911   1.767   2.679
    1   AR   Ar  103   1.797   4.129   1.753
    1   AR   Ar  104   3.422   0.367  -0.725
    1   AR   Ar  105   2.769   2.338   2.577
    1   AR   Ar  106   4.400   1.271   3.932
    1   AR   Ar  107   1.105   4.659   5.269
    1   AR   Ar  108   2.164   0.364   3.993
    1   AR   Ar  109   2.308   4.745   4.998
    1   AR   Ar  110   1.838   2.163   4.512
    1   AR   Ar  111   3.609   4.441   6.732
    1   AR   Ar  112   6.570   6.208   5.609
    1   AR   Ar  113   6.847   5.592  -1.573
    1   AR   Ar  114   2.784   0.010   0.062
    1   AR   Ar  115   0.680   4.663  -0.069
    1   AR   Ar  116   5.246   0.972   0.530
    1   AR   Ar  117   7.054   4.205   3.058
    1   AR   Ar  118   1.882   6.485   4.014
    1   AR   Ar  119   2.167   3.190   2.801
    1   AR   Ar  120   2.073   7.078   2.866
    1   AR   Ar  121   5.007   4.111   6.576
    1   AR   Ar  122   2.817   5.556   3.718
    1   AR   Ar  123   3.942   2.212   4.802
    1   AR   Ar  124   0.868   5.297   1.881
    1   AR   Ar  125   5.903   3.754   3.580
    1   AR   Ar  126   6.731   0.730   7.834
    1   AR   Ar  127   5.077   3.369   5.827
    1   AR   Ar  128   0.676   3.715   6.185
    1   AR   Ar  129   1.995   5.813   4.725
    1   AR   Ar  130   4.826   0.853  -5.045
    1   AR   Ar  131   3.872   6.346  -0.483
    1   AR   Ar  132   1.624   2.455   1.357
    1   AR   Ar  133   4.131   0.619   4.683
    1   AR   Ar  134   2.718   1.267   4.271
    1   AR   Ar  135   6.388   6.740   4.788
    1   AR   Ar  136   5.457   6.809   2.737
    1   AR   Ar  137   2.159   4.494   6.238
    1   AR   Ar  138   5.982   1.284   5.778
    1   AR   Ar  139   6.231   1.581   4.685
    1   AR   Ar  140   4.612   6.534   4.943
    1   AR   Ar  141   3.503   5.136   4.605
    1   AR   Ar  142   4.455   6.059   8.284
    1   AR   Ar  143   5.537   7.094   7.341
    1   AR   Ar  144   6.991   2.465   5.029
    1   AR   Ar  145   5.197   4.805  -1.154
    1   AR   Ar  146   3.809   2.312   3.689
    1   AR   Ar  147   5.342   4.253  -0.100
    1   AR   Ar  148   2.379   5.995  -0.769
    1   AR   Ar  149   0.344   2.311  -0.551
    1   AR   Ar  150   1.361   2.309   2.317
    1   AR   Ar  151   2.786   3.655   1.883
    1   AR   Ar  152   0.860   1.131  -0.919
    1   AR   Ar  153   5.505   0.533   3.435
    1   AR   Ar  154   4.900   3.087   3.663
    1   AR   Ar  155   6.227   3.506   5.546
    1   AR   Ar  156   2.957   3.912   3.280
    1   AR   Ar  157   2.913   5.334   6.467
    1   AR   Ar  158   0.791   2.533   6.910
    1   AR   Ar  159   4.217   0.698   5.710
    1   AR   Ar  160   1.468   1.081   4.134
    1   AR   Ar  161   4.930   4.630   3.338
    1   AR   Ar  162   4.148   5.285  -0.795
    1   AR   Ar  163   6.213   3.763   2.331
    1   AR   Ar  164   2.193   5.906   2.964
    1   AR   Ar  165   3.167   4.135   1.023
    1   AR   Ar  166   2.808   3.349   5.554
    1   AR   Ar  167   6.230   6.668   3.681
    1   AR   Ar  168   5.584   4.439  -2.396
    1   AR   Ar  169   4.038   3.827   3.590
    1   AR   Ar  170   2.775   2.509   6.033
    1   AR   Ar  171   4.649   5.404   4.099
    1   AR   Ar  172   4.182   3.348   4.782
    1   AR   Ar  173   1.378   1.889   7.326
    1   AR   Ar  174   3.184   6.197   4.495
    1   AR   Ar  175   2.608   6.848   7.541
    1   AR   Ar  176   3.155   3.130   3.936
    1   AR   Ar  177   0.047   4.265  -0.994
    1   AR   Ar  178   2.347   6.345   0.787
    1   AR   Ar  179   3.467   6.300   0.520
    1   AR   Ar  180   5.183   0.044  -7.560
    1   AR   Ar  181   0.298   6.365   1.788
    1   AR   Ar  182   1.229   6.659   2.995
    1   AR   Ar  183   4.883   5.403   1.480
    1   AR   Ar  184   4.163   5.395   0.248
    1   AR   Ar  185   3.199   4.172   4.287
    1   AR   Ar  186   2.900   6.707   3.421
    1   AR   Ar  187   4.008   6.730   4.073
    1   AR   Ar  188   3.290   0.950   1.690
    1   AR   Ar  189   5.988   2.402   5.638
    1   AR   Ar  190   1.136   0.099   4.447
    1   AR   Ar  191   3.930   5.803   5.476
    1   AR   Ar  192   4.021   3.494   6.357
    1   AR   Ar  193   3.212   6.321   1.797
    1   AR   Ar  194   4.910   6.215  -0.295
    1   AR   Ar  195   6.264   1.058   1.370
    1   AR   Ar  196   4.365   6.917   0.730
    1   AR   Ar  197   4.875   3.080   0.143
    1   AR   Ar  198   6.704   7.042   1.214
    1   AR   Ar  199   0.193   0.434   2.089
    1   AR   Ar  200   6.220   2.821  -0.057
    1   AR   Ar  201   6.457   5.589   2.508
    1   AR   Ar  202   5.204   0.289   4.717
    1   AR   Ar  203   0.037   0.018   3.663
    1   AR   Ar  204   4.534   4.651   7.285
    1   AR   Ar  205   5.196   1.570   1.959
    1   AR   Ar  206   6.421   0.149   5.939
    1   AR   Ar  207   6.738   3.572   4.427
    1   AR   Ar  208   0.622   6.099   3.621
    1   AR   Ar  209   5.619   1.787  -1.891
    1   AR   Ar  210   2.110   0.764  -0.754
    1   AR   Ar  211   7.008   2.926   0.829
    1   AR   Ar  212   6.810   3.826   0.002
    1   AR   Ar  213   3.547   1.650   0.979
    1   AR   Ar  214   5.053   4.167   1.805
    1   AR   Ar  215   0.313   2.815   2.286
    1   AR   Ar  216   1.922   2.006  -0.500
    1   AR   Ar  217   5.372   1.935   3.952
    1   AR   Ar  218   5.014   2.822   4.916
    1   AR   Ar  219   4.024   3.986   2.412
    1   AR   Ar  220   4.316   4.621   1.003
    1   AR   Ar  221   6.814   5.635   3.663
    1   AR   Ar  222   5.154   6.880   6.051
    1   AR   Ar  223   0.079   1.255   5.495
    1   AR   Ar  224   5.185   1.645   5.006
    1   AR   Ar  225   6.570   2.095   2.591
    1   AR   Ar  226   2.262   3.906   3.929
    1   AR   Ar  227   1.061   2.607   3.331
    1   AR   Ar  228   6.332   0.904   2.359
    1   AR   Ar  229   6.211   4.707  -1.086
    1   AR   Ar  230   4.026   5.195   3.198
    1   AR   Ar  231   4.948   2.401   2.725
    1   AR   Ar  232   5.046   3.015   1.772
    1   AR   Ar  233   6.841   2.068   3.548
    1   AR   Ar  234   5.871   2.613   4.448
    1   AR   Ar  235   6.580   0.750   3.977
    1   AR   Ar  236   4.015   4.163   5.325
    1   AR   Ar  237   4.563   1.289   7.380
    1   AR   Ar  238   4.612   5.229   6.334
    1   AR   Ar  239   1.329   4.138  11.182
    1   AR   Ar  240   1.779   3.478   6.576
    1   AR   Ar  241   1.505   7.044   0.386
    1   AR   Ar  242   5.712   6.363   1.703
    1   AR   Ar  243   4.665   6.286   1.936
    1   AR   Ar  244   6.476   5.998   0.314
    1   AR   Ar  245   3.522   0.924   3.531
    1   AR   Ar  246   5.016   6.495  -1.314
    1   AR   Ar  247   6.993   3.584   1.747
    1   AR   Ar  248   5.654   5.507  -0.310
    1   AR   Ar  249   3.562   0.084   1.283
    1   AR   Ar  250   5.237   6.442   3.935
    1   AR   Ar  251   5.043   4.288   5.271
    1   AR   Ar  252   2.988   5.010   2.644
    1   AR   Ar  253   4.757   2.380   8.555
    1   AR   Ar  254   4.565   3.941  12.295
    1   AR   Ar  255   5.012   0.302   8.665
    1   AR   Ar  256   5.617   5.689   3.323
    7.12000  7.12000 12.00000
Argon-slab step 5415
  256
    1   AR   Ar    1   4.299   3.545  -2.700
    1   AR   Ar    2   5.284   5.995   0.763
    1   AR   Ar    3   4.263   3.598  -0.672
    1   AR   Ar    4   2.647   1.220   0.823
    1   AR   Ar    5   6.825   5.385  -0.531
    1   AR   Ar    6   0.843   1.151   2.392
    1   AR   Ar    7   6.309   4.825   3.223
    1   AR   Ar    8   6.506   3.365  -1.011
    1   AR   Ar    9   0.540   6.016   4.741
    1   AR   Ar   10   5.873   4.371   5.906
    1   AR   Ar   11   1.100   6.721   5.350
    1   AR   Ar   12   0.393   1.518   4.361
    1   AR   Ar   13   0.231   0.211   5.023
    1   AR   Ar   14   3.606   0.696   6.837
    1   AR   Ar   15   2.389   5.828   9.700
    1   AR   Ar   16   0.381   0.125   6.085
    1   AR   Ar   17   5.993   3.374   1.103
    1   AR   Ar   18   6.622   4.720  -2.028
    1   AR   Ar   19   5.621   4.611   0.870
    1   AR   Ar   20   6.591   3.634  -2.447
    1   AR   Ar   21   2.226   1.479   2.137
    1   AR   Ar   22   4.984   0.349   1.804
    1   AR   Ar   23   0.996   6.035   0.871
    1   AR   Ar   24   5.976   2.558   3.299
    1   AR   Ar   25   1.126   2.949   5.458
    1   AR   Ar   26   5.687   6.023   4.721
    1   AR   Ar   27   1.246   0.350   1.536
    1   AR   Ar   28   2.262   2.661   3.777
    1   AR   Ar   29   5.781   1.128   8.063
    1   AR   Ar   30   0.140   0.964   3.041
    1   AR   Ar   31   1.151   0.339   6.903
    1   AR   Ar   32   0.975   1.717   6.037
    1   AR   Ar   33   6.634   4.520   0.984
    1   AR   Ar   34   1.709   4.939   2.867
    1   AR   Ar   35   5.154   5.352   2.568
    1   AR   Ar   36   4.118   2.529  -3.633
    1   AR   Ar   37   4.226   3.639   1.392
    1   AR   Ar   38   5.694   4.773   4.364
    1   AR   Ar   39   0.300   2.756   4.136
    1   AR   Ar   40   0.803   4.260   2.166
    1   AR   Ar   41   0.837   1.645   3.382
    1   AR   Ar   42   5.029   5.841   5.442
    1   AR   Ar   43   0.037   2.833   6.044
    1   AR   Ar   44   0.954   3.587   3.090
    1   AR   Ar   45   1.723   3.785   5.451
    1   AR   Ar   46   5.998   5.201   6.614
    1   AR   Ar   47   2.863   3.526   6.569
    1   AR   Ar   48   6.884   2.919   7.268
    1   AR   Ar   49   0.636   1.245   0.709
    1   AR   Ar   50   2.593   4.054  -0.112
    1   AR   Ar   51   5.266   3.510   2.724
    1   AR   Ar   52   5.405   3.506  -1.426
    1   AR   Ar   53   4.485   0.314   3.454
    1   AR   Ar   54   6.830   6.743   2.749
    1   AR   Ar   55   6.831   4.644   2.170
    1   AR   Ar   56   5.787   1.548   3.170
    1   AR   Ar   57   3.958   5.174   2.065
    1   AR   Ar   58   1.115   3.422   4.244
    1   AR   Ar   59   2.796   5.887   5.559
    1   AR   Ar   60   0.653   5.077   3.044
    1   AR   Ar   61   7.101   4.539   6.506
    1   AR   Ar   62   6.901   4.315   5.094
    1   AR   Ar   63   2.499   2.432   7.099
    1   AR   Ar   64   0.705   5.133   4.143
    1   AR   Ar   65   3.800   0.713   2.539
    1   AR   Ar   66   1.455   1.375   1.516
    1   AR   Ar   67   4.490   0.718  -0.773
    1   AR   Ar   68   6.573   0.566   0.349
    1   AR   Ar   69   2.770   2.364   0.322
    1   AR   Ar   70   0.051   1.505   1.823
    1   AR   Ar   71   2.857   0.532   2.670
    1   AR   Ar   72   4.493   1.053   1.464
    1   AR   Ar   73   3.107   0.230   4.181
    1   AR   Ar   74   0.979   0.527   3.371
    1   AR   Ar   75   2.678   0.735   5.391
    1   AR   Ar   76   2.322   0.467   1.524
    1   AR   Ar   77   1.463   5.854   5.629
    1   AR   Ar   78   0.201   5.376   5.601
    1   AR   Ar   79   3.366   7.000   5.286
    1   AR   Ar   80   3.496   4.840   5.797
    1   AR   Ar   81   2.159   6.425   1.991
    1   AR   Ar   82   6.811   5.433   1.507
    1   AR   Ar   83   0.826   3.290   1.332
    1   AR   Ar   84   0.513   4.625   1.106
    1   AR   Ar   85   0.938   3.005  -0.009
    1   AR   Ar   86   1.764   5.362   1.262
    1   AR   Ar   87   3.632   3.091   2.814
    1   AR   Ar   88   3.494   5.395   1.231
    1   AR   Ar   89   6.098   2.212   1.172
    1   AR   Ar   90   2.977   1.406   6.118
    1   AR   Ar   91   1.917   1.109   3.120
    1   AR   Ar   92   2.602   2.085   1.386
    1   AR   Ar   93   1.375   0.594   5.867
    1   AR   Ar   94   6.833   6.603   8.779
    1   AR   Ar   95   5.103   0.964   6.539
    1   AR   Ar   96   2.349   6.921   4.855
    1   AR   Ar   97   4.302   1.447  -1.658
    1   AR   Ar   98   1.602   4.646   4.187
    1   AR   Ar   99   6.675   6.577  -0.549
    1   AR   Ar  100   5.348   3.278  -2.453
    1   AR   Ar  101   3.608   6.111   2.968
    1   AR   Ar  102   3.937   1.768   2.663
    1   AR   Ar  103   1.833   4.131   1.754
    1   AR   Ar  104   3.432   0.376  -0.721
    1   AR   Ar  105   2.759   2.341   2.554
    1   AR   Ar  106   4.418   1.266   3.911
    1   AR   Ar  107   1.104   4.650   5.239
    1   AR   Ar  108   2.169   0.396   3.999
    1   AR   Ar  109   2.294   4.746   4.990
    1   AR   Ar  110   1.840   2.188   4.528
    1   AR   Ar  111   3.610   4.452   6.740
    1   AR   Ar  112   6.587   6.202   5.593
    1   AR   Ar  113   6.880   5.629  -1.563
    1   AR   Ar  114   2.746   0.017   0.107
    1   AR   Ar  115   0.683   4.648  -0.055
    1   AR   Ar  116   5.260   1.022   0.503
    1   AR   Ar  117   7.111   4.204   3.101
    1   AR   Ar  118   1.883   6.476   4.001
    1   AR   Ar  119   2.178   3.197   2.788
    1   AR   Ar  120   2.054   7.060   2.873
    1   AR   Ar  121   4.983   4.104   6.567
    1   AR   Ar  122   2.848   5.539   3.708
    1   AR   Ar  123   3.896   2.229   4.841
    1   AR   Ar  124   0.848   5.298   1.895
    1   AR   Ar  125   5.918   3.715   3.567
    1   AR   Ar  126   6.739   0.718   7.838
    1   AR   Ar  127   5.049   3.390   5.844
    1   AR   Ar  128   0.697   3.754   6.191
    1   AR   Ar  129   2.001   5.815   4.730
    1   AR   Ar  130   4.862   0.865  -5.039
    1   AR   Ar  131   3.880   6.345  -0.484
    1   AR   Ar  132   1.649   2.441   1.382
    1   AR   Ar  133   4.120   0.608   4.666
    1   AR   Ar  134   2.720   1.243   4.267
    1   AR   Ar  135   6.390   6.757   4.800
    1   AR   Ar  136   5.468   6.822   2.762
    1   AR   Ar  137   2.148   4.507   6.247
    1   AR   Ar  138   5.993   1.279   5.772
    1   AR   Ar  139   6.239   1.575   4.692
    1   AR   Ar  140   4.621   6.529   4.930
    1   AR   Ar  141   3.496   5.107   4.636
    1   AR   Ar  142   4.422   6.034   8.302
    1   AR   Ar  143   5.523   7.092   7.324
    1   AR   Ar  144   6.975   2.452   5.065
    1   AR   Ar  145   5.214   4.777  -1.165
    1   AR   Ar  146   3.827   2.330   3.703
    1   AR   Ar  147   5.323   4.282  -0.118
    1   AR   Ar  148   2.358   5.994  -0.753
    1   AR   Ar  149   0.329   2.279  -0.549
    1   AR   Ar  150   1.357   2.321   2.351
    1   AR   Ar  151   2.811   3.638   1.857
    1   AR   Ar  152   0.845   1.147  -0.929
    1   AR   Ar  153   5.493   0.548   3.433
    1   AR   Ar  154   4.912   3.066   3.690
    1   AR   Ar  155   6.242   3.510   5.527
    1   AR   Ar  156   2.957   3.889   3.259
    1   AR   Ar  157   2.895   5.323   6.461
    1   AR   Ar  158   0.794   2.528   6.898
    1   AR   Ar  159   4.226   0.679   5.673
    1   AR   Ar  160   1.461   1.089   4.163
    1   AR   Ar  161   4.949   4.621   3.378
    1   AR   Ar  162   4.132   5.279  -0.849
    1   AR   Ar  163   6.175   3.734   2.306
    1   AR   Ar  164   2.205   5.895   2.985
    1   AR   Ar  165   3.178   4.106   1.042
    1   AR   Ar  166   2.840   3.334   5.545
    1   AR   Ar  167   6.201   6.634   3.651
    1   AR   Ar  168   5.559   4.428  -2.397
    1   AR   Ar  169   4.046   3.864   3.588
    1   AR   Ar  170   2.756   2.483   6.055
    1   AR   Ar  171   4.671   5.419   4.105
    1   AR   Ar  172   4.174   3.330   4.794
    1   AR   Ar  173   1.359   1.877   7.352
    1   AR   Ar  174   3.162   6.171   4.499
    1   AR   Ar  175   2.625   6.826   7.566
    1   AR   Ar  176   3.155   3.125   3.919
    1   AR   Ar  177   0.013   4.266  -1.026
    1   AR   Ar  178   2.362   6.376   0.779
    1   AR   Ar  179   3.439   6.325   0.526
    1   AR   Ar  180   5.187   0.070  -7.526
    1   AR   Ar  181   0.344   6.345   1.787
    1   AR   Ar  182   1.204   6.672   2.988
    1   AR   Ar  183   4.867   5.397   1.467
    1   AR   Ar  184   4.168   5.394   0.273
    1   AR   Ar  185   3.204   4.144   4.303
    1   AR   Ar  186   2.861   6.691   3.440
    1   AR   Ar  187   3.998   6.747   4.039
    1   AR   Ar  188   3.313   0.953   1.707
    1   AR   Ar  189   5.976   2.429   5.634
    1   AR   Ar  190   1.094   0.114   4.464
    1   AR   Ar  191   3.887   5.778   5.429
    1   AR   Ar  192   4.012   3.505   6.361
    1   AR   Ar  193   3.210   6.348   1.784
    1   AR   Ar  194   4.887   6.210  -0.265
    1   AR   Ar  195   6.254   1.075   1.351
    1   AR   Ar  196   4.376   6.882   0.721
    1   AR   Ar  197   4.881   3.107   0.134
    1   AR   Ar  198   6.724   7.033   1.208
    1   AR   Ar  199   0.151   0.420   2.084
    1   AR   Ar  200   6.200   2.800  -0.053
    1   AR   Ar  201   6.452   5.590   2.486
    1   AR   Ar  202   5.217   0.280   4.701
    1   AR   Ar  203   0.085   0.024   3.681
    1   AR   Ar  204   4.516   4.680   7.307
    1   AR   Ar  205   5.187   1.563   1.983
    1   AR   Ar  206   6.383   0.151   5.969
    1   AR   Ar  207   6.731   3.549   4.421
    1   AR   Ar  208   0.620   6.113   3.601
    1   AR   Ar  209   5.567   1.774  -1.895
    1   AR   Ar  210   2.122   0.763  -0.732
    1   AR   Ar  211   6.980   2.932   0.816
    1   AR   Ar  212   6.810   3.844   0.007
    1   AR   Ar  213   3.577   1.635   0.985
    1   AR   Ar  214   5.062   4.203   1.808
    1   AR   Ar  215   0.295   2.837   2.279
    1   AR   Ar  216   1.932   2.017  -0.485
    1   AR   Ar  217   5.389   1.995   3.927
    1   AR   Ar  218   5.014   2.832   4.940
    1   AR   Ar  219   4.047   3.985   2.412
    1   AR   Ar  220   4.322   4.597   1.016
    1   AR   Ar  221   6.786   5.629   3.652
    1   AR   Ar  222   5.167   6.880   6.052
    1   AR   Ar  223   0.064   1.250   5.508
    1   AR   Ar  224   5.206   1.634   4.984
    1   AR   Ar  225   6.577   2.094   2.560
    1   AR   Ar  226   2.247   3.874   3.933
    1   AR   Ar  227   1.067   2.642   3.334
    1   AR   Ar  228   6.325   0.896   2.361
    1   AR   Ar  229   6.201   4.652  -1.086
    1   AR   Ar  230   4.011   5.183   3.190
    1   AR   Ar  231   4.944   2.412   2.742
    1   AR   Ar  232   5.051   3.034   1.805
    1   AR   Ar  233   6.863   2.053   3.560
    1   AR   Ar  234   5.867   2.647   4.470
    1   AR   Ar  235   6.600   0.754   3.992
    1   AR   Ar  236   4.010   4.184   5.348
    1   AR   Ar  237   4.572   1.333   7.353
    1   AR   Ar  238   4.631   5.214   6.292
    1   AR   Ar  239   1.332   4.155  11.173
    1   AR   Ar  240   1.785   3.461   6.582
    1   AR   Ar  241   1.495   7.025   0.353
    1   AR   Ar  242   5.734   6.366   1.733
    1   AR   Ar  243   4.640   6.294   1.924
    1   AR   Ar  244   6.462   6.018   0.273
    1   AR   Ar  245   3.507   0.945   3.514
    1   AR   Ar  246   5.019   6.500  -1.312
    1   AR   Ar  247   7.035   3.605   1.753
    1   AR   Ar  248   5.623   5.485  -0.313
    1   AR   Ar  249   3.542   0.105   1.263
    1   AR   Ar  250   5.260   6.435   3.925
    1   AR   Ar  251   5.056   4.281   5.260
    1   AR   Ar  252   2.972   5.009   2.635
    1   AR   Ar  253   4.780   2.371   8.550
    1   AR   Ar  254   4.558   3.936  12.316
    1   AR   Ar  255   5.041   0.320   8.667
    1   AR   Ar  256   5.647   5.685   3.368
    7.12000  7.12000 12.00000
Argon-slab step 5420
  256
    1   AR   Ar    1   4.316   3.559  -2.684
    1   AR   Ar    2   5.296   5.960   0.773
    1   AR   Ar    3   4.290   3.619  -0.667
    1   AR   Ar    4   2.634   1.200   0.806
    1   AR   Ar    5   6.813   5.365  -0.543
    1   AR   Ar    6   0.859   1.107   2.403
    1   AR   Ar    7   6.320   4.792   3.209
    1   AR   Ar    8   6.496   3.368  -0.986
    1   AR   Ar    9   0.565   6.002   4.763
    1   AR   Ar   10   5.876   4.367   5.911
    1   AR   Ar   11   1.106   6.713   5.360
    1   AR   Ar   12   0.409   1.468   4.372
    1   AR   Ar   13   0.227   0.243   4.999
    1   AR   Ar   14   3.623   0.700   6.818
    1   AR   Ar   15   2.401   5.815   9.704
    1   AR   Ar   16   0.359   0.127   6.075
    1   AR   Ar   17   5.964   3.362   1.108
    1   AR   Ar   18   6.587   4.721  -2.044
    1   AR   Ar   19   5.648   4.593   0.897
    1   AR   Ar   20   6.564   3.605  -2.443
    1   AR   Ar   21   2.251   1.475   2.126
    1   AR   Ar   22   4.984   0.322   1.795
    1   AR   Ar   23   0.998   6.035   0.882
    1   AR   Ar   24   5.974   2.585   3.333
    1   AR   Ar   25   1.107   2.940   5.485
    1   AR   Ar   26   5.711   6.024   4.760
    1   AR   Ar   27   1.242   0.321   1.536
    1   AR   Ar   28   2.278   2.662   3.783
    1   AR   Ar   29   5.788   1.105   8.064
    1   AR   Ar   30   0.126   0.955   3.098
    1   AR   Ar   31   1.156   0.357   6.918
    1   AR   Ar   32   0.973   1.706   6.061
    1   AR   Ar   33   6.617   4.548   0.987
    1   AR   Ar   34   1.727   4.950   2.873
    1   AR   Ar   35   5.158   5.350   2.581
    1   AR   Ar   36   4.102   2.515  -3.633
    1   AR   Ar   37   4.264   3.656   1.391
    1   AR   Ar   38   5.696   4.756   4.358
    1   AR   Ar   39   0.286   2.784   4.166
    1   AR   Ar   40   0.795   4.218   2.201
    1   AR   Ar   41   0.834   1.648   3.409
    1   AR   Ar   42   5.064   5.813   5.479
    1   AR   Ar   43   0.039   2.817   6.075
    1   AR   Ar   44   0.960   3.605   3.089
    1   AR   Ar   45   1.745   3.780   5.453
    1   AR   Ar   46   6.014   5.195   6.598
    1   AR   Ar   47   2.876   3.529   6.577
    1   AR   Ar   48   6.894   2.925   7.250
    1   AR   Ar   49   0.618   1.251   0.676
    1   AR   Ar   50   2.596   4.059  -0.057
    1   AR   Ar   51   5.261   3.493   2.766
    1   AR   Ar   52   5.447   3.524  -1.430
    1   AR   Ar   53   4.503   0.306   3.454
    1   AR   Ar   54   6.842   6.762   2.751
    1   AR   Ar   55   6.817   4.636   2.205
    1   AR   Ar   56   5.768   1.513   3.149
    1   AR   Ar   57   3.966   5.162   2.052
    1   AR   Ar   58   1.133   3.391   4.248
    1   AR   Ar   59   2.793   5.874   5.542
    1   AR   Ar   60   0.664   5.078   3.035
    1   AR   Ar   61   7.088   4.539   6.518
    1   AR   Ar   62   6.887   4.300   5.089
    1   AR   Ar   63   2.468   2.400   7.052
    1   AR   Ar   64   0.693   5.138   4.159
    1   AR   Ar   65   3.827   0.727   2.571
    1   AR   Ar   66   1.471   1.376   1.499
    1   AR   Ar   67   4.491   0.718  -0.746
    1   AR   Ar   68   6.570   0.548   0.359
    1   AR   Ar   69   2.774   2.376   0.355
    1   AR   Ar   70   0.059   1.502   1.780
    1   AR   Ar   71   2.851   0.562   2.669
    1   AR   Ar   72   4.493   1.084   1.435
    1   AR   Ar   73   3.121   0.230   4.179
    1   AR   Ar   74   0.993   0.539   3.358
    1   AR   Ar   75   2.665   0.743   5.369
    1   AR   Ar   76   2.326   0.489   1.539
    1   AR   Ar   77   1.495   5.844   5.662
    1   AR   Ar   78   0.186   5.373   5.612
    1   AR   Ar   79   3.390   7.018   5.313
    1   AR   Ar   80   3.526   4.847   5.786
    1   AR   Ar   81   2.127   6.396   2.012
    1   AR   Ar   82   6.806   5.445   1.493
    1   AR   Ar   83   0.847   3.271   1.339
    1   AR   Ar   84   0.506   4.670   1.108
    1   AR   Ar   85   0.946   3.000  -0.014
    1   AR   Ar   86   1.768   5.383   1.291
    1   AR   Ar   87   3.629   3.106   2.802
    1   AR   Ar   88   3.495   5.374   1.202
    1   AR   Ar   89   6.072   2.196   1.152
    1   AR   Ar   90   2.957   1.381   6.126
    1   AR   Ar   91   1.906   1.074   3.085
    1   AR   Ar   92   2.620   2.101   1.409
    1   AR   Ar   93   1.312   0.609   5.861
    1   AR   Ar   94   6.810   6.605   8.790
    1   AR   Ar   95   5.135   0.965   6.588
    1   AR   Ar   96   2.399   6.911   4.831
    1   AR   Ar   97   4.345   1.419  -1.671
    1   AR   Ar   98   1.596   4.662   4.186
    1   AR   Ar   99   6.671   6.570  -0.576
    1   AR   Ar  100   5.342   3.261  -2.462
    1   AR   Ar  101   3.610   6.123   2.972
    1   AR   Ar  102   3.962   1.772   2.647
    1   AR   Ar  103   1.867   4.135   1.756
    1   AR   Ar  104   3.442   0.384  -0.716
    1   AR   Ar  105   2.750   2.342   2.530
    1   AR   Ar  106   4.441   1.268   3.891
    1   AR   Ar  107   1.102   4.642   5.208
    1   AR   Ar  108   2.163   0.424   3.996
    1   AR   Ar  109   2.271   4.715   4.972
    1   AR   Ar  110   1.836   2.207   4.552
    1   AR   Ar  111   3.612   4.461   6.751
    1   AR   Ar  112   6.573   6.207   5.584
    1   AR   Ar  113   6.913   5.669  -1.552
    1   AR   Ar  114   2.708   0.025   0.151
    1   AR   Ar  115   0.684   4.631  -0.040
    1   AR   Ar  116   5.275   1.072   0.478
    1   AR   Ar  117   0.052   4.197   3.144
    1   AR   Ar  118   1.881   6.471   3.977
    1   AR   Ar  119   2.169   3.202   2.787
    1   AR   Ar  120   2.050   7.051   2.879
    1   AR   Ar  121   4.960   4.101   6.558
    1   AR   Ar  122   2.882   5.520   3.700
    1   AR   Ar  123   3.851   2.246   4.878
    1   AR   Ar  124   0.828   5.301   1.910
    1   AR   Ar  125   5.934   3.677   3.554
    1   AR   Ar  126   6.744   0.705   7.844
    1   AR   Ar  127   5.022   3.407   5.857
    1   AR   Ar  128   0.719   3.791   6.195
    1   AR   Ar  129   2.012   5.809   4.738
    1   AR   Ar  130   4.898   0.876  -5.033
    1   AR   Ar  131   3.884   6.345  -0.485
    1   AR   Ar  132   1.671   2.432   1.400
    1   AR   Ar  133   4.106   0.592   4.643
    1   AR   Ar  134   2.722   1.224   4.263
    1   AR   Ar  135   6.394   6.787   4.802
    1   AR   Ar  136   5.478   6.832   2.787
    1   AR   Ar  137   2.139   4.518   6.253
    1   AR   Ar  138   6.005   1.273   5.766
    1   AR   Ar  139   6.249   1.571   4.698
    1   AR   Ar  140   4.618   6.540   4.904
    1   AR   Ar  141   3.487   5.077   4.676
    1   AR   Ar  142   4.389   6.009   8.320
    1   AR   Ar  143   5.509   7.090   7.307
    1   AR   Ar  144   6.956   2.438   5.100
    1   AR   Ar  145   5.222   4.750  -1.176
    1   AR   Ar  146   3.848   2.345   3.716
    1   AR   Ar  147   5.309   4.297  -0.110
    1   AR   Ar  148   2.338   5.995  -0.736
    1   AR   Ar  149   0.312   2.246  -0.547
    1   AR   Ar  150   1.352   2.329   2.390
    1   AR   Ar  151   2.834   3.615   1.840
    1   AR   Ar  152   0.831   1.164  -0.939
    1   AR   Ar  153   5.486   0.562   3.434
    1   AR   Ar  154   4.912   3.046   3.693
    1   AR   Ar  155   6.247   3.480   5.486
    1   AR   Ar  156   2.957   3.882   3.221
    1   AR   Ar  157   2.926   5.350   6.454
    1   AR   Ar  158   0.788   2.534   6.877
    1   AR   Ar  159   4.237   0.660   5.643
    1   AR   Ar  160   1.448   1.106   4.193
    1   AR   Ar  161   4.966   4.620   3.410
    1   AR   Ar  162   4.118   5.273  -0.902
    1   AR   Ar  163   6.138   3.708   2.282
    1   AR   Ar  164   2.214   5.887   3.003
    1   AR   Ar  165   3.193   4.082   1.055
    1   AR   Ar  166   2.873   3.329   5.527
    1   AR   Ar  167   6.180   6.603   3.619
    1   AR   Ar  168   5.536   4.416  -2.396
    1   AR   Ar  169   4.055   3.900   3.585
    1   AR   Ar  170   2.736   2.449   6.080
    1   AR   Ar  171   4.694   5.435   4.112
    1   AR   Ar  172   4.156   3.314   4.801
    1   AR   Ar  173   1.348   1.855   7.384
    1   AR   Ar  174   3.134   6.140   4.502
    1   AR   Ar  175   2.637   6.810   7.577
    1   AR   Ar  176   3.162   3.122   3.907
    1   AR   Ar  177   7.105   4.266  -1.057
    1   AR   Ar  178   2.376   6.406   0.774
    1   AR   Ar  179   3.410   6.350   0.533
    1   AR   Ar  180   5.200   0.073  -7.528
    1   AR   Ar  181   0.389   6.326   1.787
    1   AR   Ar  182   1.170   6.673   2.984
    1   AR   Ar  183   4.851   5.383   1.457
    1   AR   Ar  184   4.174   5.395   0.299
    1   AR   Ar  185   3.211   4.116   4.322
    1   AR   Ar  186   2.821   6.673   3.459
    1   AR   Ar  187   3.987   6.760   4.007
    1   AR   Ar  188   3.326   0.966   1.725
    1   AR   Ar  189   5.963   2.456   5.627
    1   AR   Ar  190   1.056   0.129   4.472
    1   AR   Ar  191   3.845   5.754   5.380
    1   AR   Ar  192   4.002   3.514   6.371
    1   AR   Ar  193   3.208   6.373   1.770
    1   AR   Ar  194   4.863   6.208  -0.231
    1   AR   Ar  195   6.242   1.092   1.326
    1   AR   Ar  196   4.391   6.845   0.710
    1   AR   Ar  197   4.889   3.136   0.126
    1   AR   Ar  198   6.744   7.022   1.205
    1   AR   Ar  199   0.108   0.401   2.077
    1   AR   Ar  200   6.181   2.781  -0.047
    1   AR   Ar  201   6.446   5.612   2.526
    1   AR   Ar  202   5.230   0.271   4.683
    1   AR   Ar  203   0.139   0.022   3.698
    1   AR   Ar  204   4.498   4.711   7.331
    1   AR   Ar  205   5.203   1.569   1.989
    1   AR   Ar  206   6.344   0.153   5.998
    1   AR   Ar  207   6.722   3.521   4.413
    1   AR   Ar  208   0.619   6.092   3.571
    1   AR   Ar  209   5.534   1.762  -1.900
    1   AR   Ar  210   2.134   0.763  -0.710
    1   AR   Ar  211   6.952   2.938   0.802
    1   AR   Ar  212   6.791   3.869   0.003
    1   AR   Ar  213   3.612   1.625   0.988
    1   AR   Ar  214   5.072   4.241   1.812
    1   AR   Ar  215   0.282   2.852   2.277
    1   AR   Ar  216   1.942   2.027  -0.469
    1   AR   Ar  217   5.387   2.050   3.911
    1   AR   Ar  218   5.016   2.836   4.968
    1   AR   Ar  219   4.071   3.987   2.412
    1   AR   Ar  220   4.327   4.575   1.028
    1   AR   Ar  221   6.831   5.632   3.693
    1   AR   Ar  222   5.179   6.864   6.066
    1   AR   Ar  223   0.049   1.245   5.520
    1   AR   Ar  224   5.225   1.623   4.963
    1   AR   Ar  225   6.585   2.091   2.523
    1   AR   Ar  226   2.222   3.837   3.945
    1   AR   Ar  227   1.076   2.671   3.341
    1   AR   Ar  228   6.317   0.887   2.369
    1   AR   Ar  229   6.190   4.599  -1.081
    1   AR   Ar  230   3.998   5.167   3.183
    1   AR   Ar  231   4.940   2.422   2.761
    1   AR   Ar  232   5.058   3.053   1.836
    1   AR   Ar  233   6.878   2.048   3.569
    1   AR   Ar  234   5.881   2.689   4.496
    1   AR   Ar  235   6.615   0.765   4.009
    1   AR   Ar  236   4.014   4.193   5.362
    1   AR   Ar  237   4.579   1.378   7.329
    1   AR   Ar  238   4.650   5.196   6.249
    1   AR   Ar  239   1.317   4.145  11.183
    1   AR   Ar  240   1.789   3.442   6.587
    1   AR   Ar  241   1.485   7.006   0.321
    1   AR   Ar  242   5.756   6.369   1.763
    1   AR   Ar  243   4.614   6.307   1.915
    1   AR   Ar  244   6.444   6.034   0.241
    1   AR   Ar  245   3.488   0.968   3.498
    1   AR   Ar  246   5.021   6.504  -1.309
    1   AR   Ar  247   7.074   3.634   1.752
    1   AR   Ar  248   5.596   5.458  -0.317
    1   AR   Ar  249   3.522   0.118   1.239
    1   AR   Ar  250   5.266   6.441   3.917
    1   AR   Ar  251   5.070   4.276   5.246
    1   AR   Ar  252   2.940   4.988   2.636
    1   AR   Ar  253   4.803   2.362   8.544
    1   AR   Ar  254   4.551   3.932  12.337
    1   AR   Ar  255   5.051   0.325   8.697
    1   AR   Ar  256   5.684   5.680   3.418
    7.12000  7.12000 12.00000
Argon-slab step 5425
  256
    1   AR   Ar    1   4.333   3.573  -2.668
    1   AR   Ar    2   5.311   5.931   0.777
    1   AR   Ar    3   4.318   3.642  -0.663
    1   AR   Ar    4   2.620   1.178   0.787
    1   AR   Ar    5   6.800   5.343  -0.553
    1   AR   Ar    6   0.883   1.064   2.410
    1   AR   Ar    7   6.321   4.781   3.207
    1   AR   Ar    8   6.484   3.370  -0.960
    1   AR   Ar    9   0.584   5.998   4.776
    1   AR   Ar   10   5.881   4.373   5.919
    1   AR   Ar   11   1.095   6.751   5.339
    1   AR   Ar   12   0.422   1.417   4.385
    1   AR   Ar   13   0.212   0.277   4.980
    1   AR   Ar   14   3.641   0.705   6.798
    1   AR   Ar   15   2.413   5.802   9.708
    1   AR   Ar   16   0.337   0.129   6.065
    1   AR   Ar   17   5.935   3.352   1.113
    1   AR   Ar   18   6.586   4.703  -2.085
    1   AR   Ar   19   5.663   4.624   0.914
    1   AR   Ar   20   6.559   3.587  -2.431
    1   AR   Ar   21   2.279   1.467   2.123
    1   AR   Ar   22   4.993   0.280   1.793
    1   AR   Ar   23   0.999   6.035   0.893
    1   AR   Ar   24   5.977   2.622   3.360
    1   AR   Ar   25   1.086   2.927   5.511
    1   AR   Ar   26   5.740   6.021   4.793
    1   AR   Ar   27   1.236   0.291   1.538
    1   AR   Ar   28   2.290   2.664   3.778
    1   AR   Ar   29   5.792   1.083   8.065
    1   AR   Ar   30   0.094   0.949   3.155
    1   AR   Ar   31   1.161   0.375   6.933
    1   AR   Ar   32   0.955   1.694   6.054
    1   AR   Ar   33   6.606   4.573   0.988
    1   AR   Ar   34   1.745   4.959   2.877
    1   AR   Ar   35   5.142   5.354   2.605
    1   AR   Ar   36   4.085   2.488  -3.640
    1   AR   Ar   37   4.300   3.662   1.393
    1   AR   Ar   38   5.698   4.739   4.351
    1   AR   Ar   39   0.273   2.807   4.195
    1   AR   Ar   40   0.787   4.177   2.235
    1   AR   Ar   41   0.835   1.650   3.434
    1   AR   Ar   42   5.096   5.779   5.527
    1   AR   Ar   43   0.043   2.802   6.109
    1   AR   Ar   44   0.965   3.635   3.085
    1   AR   Ar   45   1.769   3.777   5.456
    1   AR   Ar   46   6.030   5.189   6.582
    1   AR   Ar   47   2.890   3.532   6.587
    1   AR   Ar   48   6.905   2.930   7.230
    1   AR   Ar   49   0.599   1.256   0.645
    1   AR   Ar   50   2.607   4.064  -0.038
    1   AR   Ar   51   5.249   3.477   2.809
    1   AR   Ar   52   5.490   3.544  -1.431
    1   AR   Ar   53   4.518   0.299   3.450
    1   AR   Ar   54   6.854   6.779   2.753
    1   AR   Ar   55   6.804   4.626   2.239
    1   AR   Ar   56   5.749   1.483   3.126
    1   AR   Ar   57   3.979   5.147   2.049
    1   AR   Ar   58   1.155   3.363   4.251
    1   AR   Ar   59   2.786   5.862   5.522
    1   AR   Ar   60   0.670   5.082   3.020
    1   AR   Ar   61   7.093   4.527   6.514
    1   AR   Ar   62   6.875   4.290   5.088
    1   AR   Ar   63   2.433   2.368   7.013
    1   AR   Ar   64   0.676   5.145   4.174
    1   AR   Ar   65   3.871   0.735   2.600
    1   AR   Ar   66   1.481   1.376   1.477
    1   AR   Ar   67   4.492   0.718  -0.718
    1   AR   Ar   68   6.598   0.570   0.358
    1   AR   Ar   69   2.777   2.387   0.389
    1   AR   Ar   70   0.066   1.499   1.738
    1   AR   Ar   71   2.836   0.592   2.667
    1   AR   Ar   72   4.480   1.123   1.398
    1   AR   Ar   73   3.146   0.229   4.183
    1   AR   Ar   74   1.017   0.549   3.348
    1   AR   Ar   75   2.651   0.749   5.342
    1   AR   Ar   76   2.331   0.510   1.556
    1   AR   Ar   77   1.486   5.828   5.677
    1   AR   Ar   78   0.172   5.369   5.622
    1   AR   Ar   79   3.410   7.001   5.304
    1   AR   Ar   80   3.539   4.876   5.787
    1   AR   Ar   81   2.095   6.367   2.032
    1   AR   Ar   82   6.803   5.441   1.477
    1   AR   Ar   83   0.863   3.264   1.370
    1   AR   Ar   84   0.505   4.715   1.112
    1   AR   Ar   85   0.953   2.996  -0.018
    1   AR   Ar   86   1.757   5.401   1.316
    1   AR   Ar   87   3.624   3.119   2.792
    1   AR   Ar   88   3.493   5.355   1.165
    1   AR   Ar   89   6.047   2.182   1.132
    1   AR   Ar   90   2.938   1.358   6.138
    1   AR   Ar   91   1.896   1.038   3.051
    1   AR   Ar   92   2.649   2.118   1.430
    1   AR   Ar   93   1.249   0.625   5.853
    1   AR   Ar   94   6.786   6.608   8.801
    1   AR   Ar   95   5.171   0.962   6.632
    1   AR   Ar   96   2.447   6.898   4.810
    1   AR   Ar   97   4.389   1.391  -1.683
    1   AR   Ar   98   1.598   4.671   4.178
    1   AR   Ar   99   6.668   6.567  -0.611
    1   AR   Ar  100   5.338   3.257  -2.467
    1   AR   Ar  101   3.611   6.137   2.975
    1   AR   Ar  102   3.987   1.778   2.633
    1   AR   Ar  103   1.900   4.139   1.759
    1   AR   Ar  104   3.450   0.392  -0.710
    1   AR   Ar  105   2.744   2.344   2.507
    1   AR   Ar  106   4.468   1.276   3.870
    1   AR   Ar  107   1.100   4.636   5.177
    1   AR   Ar  108   2.147   0.443   3.984
    1   AR   Ar  109   2.252   4.684   4.958
    1   AR   Ar  110   1.827   2.220   4.584
    1   AR   Ar  111   3.613   4.469   6.763
    1   AR   Ar  112   6.561   6.206   5.584
    1   AR   Ar  113   6.945   5.708  -1.543
    1   AR   Ar  114   2.671   0.038   0.191
    1   AR   Ar  115   0.682   4.615  -0.026
    1   AR   Ar  116   5.290   1.122   0.454
    1   AR   Ar  117   0.115   4.187   3.187
    1   AR   Ar  118   1.875   6.471   3.945
    1   AR   Ar  119   2.157   3.208   2.788
    1   AR   Ar  120   2.055   7.050   2.884
    1   AR   Ar  121   4.935   4.106   6.554
    1   AR   Ar  122   2.919   5.496   3.692
    1   AR   Ar  123   3.806   2.263   4.915
    1   AR   Ar  124   0.807   5.306   1.928
    1   AR   Ar  125   5.953   3.640   3.544
    1   AR   Ar  126   6.730   0.693   7.861
    1   AR   Ar  127   4.996   3.415   5.865
    1   AR   Ar  128   0.743   3.826   6.198
    1   AR   Ar  129   2.021   5.802   4.755
    1   AR   Ar  130   4.934   0.888  -5.027
    1   AR   Ar  131   3.883   6.346  -0.488
    1   AR   Ar  132   1.685   2.427   1.416
    1   AR   Ar  133   4.091   0.572   4.613
    1   AR   Ar  134   2.727   1.211   4.262
    1   AR   Ar  135   6.399   6.828   4.794
    1   AR   Ar  136   5.489   6.840   2.811
    1   AR   Ar  137   2.130   4.528   6.258
    1   AR   Ar  138   6.016   1.268   5.762
    1   AR   Ar  139   6.263   1.568   4.702
    1   AR   Ar  140   4.611   6.554   4.875
    1   AR   Ar  141   3.475   5.046   4.714
    1   AR   Ar  142   4.355   5.984   8.338
    1   AR   Ar  143   5.495   7.090   7.288
    1   AR   Ar  144   6.935   2.422   5.132
    1   AR   Ar  145   5.217   4.724  -1.188
    1   AR   Ar  146   3.872   2.358   3.728
    1   AR   Ar  147   5.275   4.313  -0.095
    1   AR   Ar  148   2.319   5.996  -0.717
    1   AR   Ar  149   0.296   2.212  -0.545
    1   AR   Ar  150   1.348   2.334   2.430
    1   AR   Ar  151   2.853   3.585   1.836
    1   AR   Ar  152   0.817   1.181  -0.947
    1   AR   Ar  153   5.485   0.574   3.439
    1   AR   Ar  154   4.904   3.028   3.684
    1   AR   Ar  155   6.252   3.447   5.443
    1   AR   Ar  156   2.949   3.897   3.174
    1   AR   Ar  157   2.953   5.377   6.452
    1   AR   Ar  158   0.779   2.546   6.850
    1   AR   Ar  159   4.248   0.640   5.621
    1   AR   Ar  160   1.432   1.131   4.224
    1   AR   Ar  161   4.968   4.660   3.409
    1   AR   Ar  162   4.106   5.269  -0.953
    1   AR   Ar  163   6.103   3.683   2.256
    1   AR   Ar  164   2.218   5.890   3.015
    1   AR   Ar  165   3.215   4.065   1.058
    1   AR   Ar  166   2.906   3.329   5.503
    1   AR   Ar  167   6.167   6.602   3.591
    1   AR   Ar  168   5.513   4.402  -2.393
    1   AR   Ar  169   4.064   3.935   3.582
    1   AR   Ar  170   2.718   2.415   6.099
    1   AR   Ar  171   4.697   5.440   4.116
    1   AR   Ar  172   4.131   3.300   4.803
    1   AR   Ar  173   1.342   1.828   7.418
    1   AR   Ar  174   3.106   6.114   4.507
    1   AR   Ar  175   2.586   6.810   7.577
    1   AR   Ar  176   3.177   3.121   3.897
    1   AR   Ar  177   7.092   4.263  -1.087
    1   AR   Ar  178   2.385   6.431   0.775
    1   AR   Ar  179   3.385   6.373   0.541
    1   AR   Ar  180   5.218   0.062  -7.555
    1   AR   Ar  181   0.433   6.308   1.788
    1   AR   Ar  182   1.165   6.658   2.991
    1   AR   Ar  183   4.844   5.375   1.450
    1   AR   Ar  184   4.180   5.399   0.325
    1   AR   Ar  185   3.219   4.087   4.341
    1   AR   Ar  186   2.784   6.653   3.479
    1   AR   Ar  187   3.972   6.766   3.979
    1   AR   Ar  188   3.332   0.988   1.746
    1   AR   Ar  189   5.968   2.465   5.627
    1   AR   Ar  190   1.028   0.143   4.468
    1   AR   Ar  191   3.809   5.738   5.331
    1   AR   Ar  192   3.995   3.490   6.358
    1   AR   Ar  193   3.208   6.396   1.758
    1   AR   Ar  194   4.842   6.206  -0.195
    1   AR   Ar  195   6.230   1.109   1.300
    1   AR   Ar  196   4.409   6.806   0.698
    1   AR   Ar  197   4.872   3.147   0.110
    1   AR   Ar  198   6.763   7.010   1.203
    1   AR   Ar  199   0.068   0.382   2.068
    1   AR   Ar  200   6.162   2.762  -0.040
    1   AR   Ar  201   6.439   5.638   2.568
    1   AR   Ar  202   5.244   0.264   4.664
    1   AR   Ar  203   0.195   0.014   3.717
    1   AR   Ar  204   4.480   4.743   7.356
    1   AR   Ar  205   5.225   1.577   1.999
    1   AR   Ar  206   6.304   0.155   6.026
    1   AR   Ar  207   6.707   3.493   4.403
    1   AR   Ar  208   0.617   6.068   3.546
    1   AR   Ar  209   5.530   1.752  -1.906
    1   AR   Ar  210   2.116   0.780  -0.681
    1   AR   Ar  211   6.924   2.945   0.789
    1   AR   Ar  212   6.782   3.893   0.010
    1   AR   Ar  213   3.649   1.619   0.988
    1   AR   Ar  214   5.083   4.279   1.818
    1   AR   Ar  215   0.273   2.860   2.281
    1   AR   Ar  216   1.952   2.036  -0.453
    1   AR   Ar  217   5.369   2.096   3.903
    1   AR   Ar  218   5.018   2.833   4.999
    1   AR   Ar  219   4.097   3.993   2.413
    1   AR   Ar  220   4.331   4.562   1.036
    1   AR   Ar  221   6.871   5.633   3.735
    1   AR   Ar  222   5.190   6.850   6.078
    1   AR   Ar  223   0.033   1.240   5.531
    1   AR   Ar  224   5.242   1.614   4.941
    1   AR   Ar  225   6.593   2.127   2.533
    1   AR   Ar  226   2.193   3.795   3.960
    1   AR   Ar  227   1.088   2.690   3.356
    1   AR   Ar  228   6.308   0.879   2.382
    1   AR   Ar  229   6.175   4.547  -1.071
    1   AR   Ar  230   3.985   5.147   3.176
    1   AR   Ar  231   4.937   2.430   2.782
    1   AR   Ar  232   5.079   3.076   1.829
    1   AR   Ar  233   6.880   2.064   3.569
    1   AR   Ar  234   5.910   2.736   4.522
    1   AR   Ar  235   6.627   0.780   4.028
    1   AR   Ar  236   4.034   4.178   5.362
    1   AR   Ar  237   4.583   1.425   7.311
    1   AR   Ar  238   4.666   5.175   6.207
    1   AR   Ar  239   1.303   4.136  11.193
    1   AR   Ar  240   1.792   3.423   6.590
    1   AR   Ar  241   1.477   6.986   0.291
    1   AR   Ar  242   5.779   6.371   1.794
    1   AR   Ar  243   4.586   6.321   1.906
    1   AR   Ar  244   6.423   6.046   0.217
    1   AR   Ar  245   3.468   0.992   3.486
    1   AR   Ar  246   5.025   6.506  -1.307
    1   AR   Ar  247   7.108   3.674   1.746
    1   AR   Ar  248   5.572   5.428  -0.320
    1   AR   Ar  249   3.504   0.126   1.210
    1   AR   Ar  250   5.259   6.464   3.924
    1   AR   Ar  251   5.077   4.256   5.233
    1   AR   Ar  252   2.907   4.968   2.638
    1   AR   Ar  253   4.827   2.353   8.538
    1   AR   Ar  254   4.544   3.928  12.358
    1   AR   Ar  255   5.049   0.321   8.745
    1   AR   Ar  256   5.726   5.666   3.467
    7.12000  7.12000 12.00000
Argon-slab step 5430
  256
    1   AR   Ar    1   4.349   3.588  -2.652
    1   AR   Ar    2   5.331   5.944   0.757
    1   AR   Ar    3   4.347   3.667  -0.660
    1   AR   Ar    4   2.607   1.159   0.767
    1   AR   Ar    5   6.787   5.319  -0.561
    1   AR   Ar    6   0.907   1.042   2.417
    1   AR   Ar    7   6.315   4.802   3.222
    1   AR   Ar    8   6.473   3.373  -0.933
    1   AR   Ar    9   0.600   5.998   4.788
    1   AR   Ar   10   5.887   4.377   5.927
    1   AR   Ar   11   1.085   6.790   5.324
    1   AR   Ar   12   0.424   1.378   4.388
    1   AR   Ar   13   0.185   0.313   4.967
    1   AR   Ar   14   3.660   0.711   6.777
    1   AR   Ar   15   2.424   5.788   9.712
    1   AR   Ar   16   0.313   0.130   6.056
    1   AR   Ar   17   5.906   3.343   1.118
    1   AR   Ar   18   6.586   4.685  -2.124
    1   AR   Ar   19   5.654   4.656   0.929
    1   AR   Ar   20   6.568   3.578  -2.412
    1   AR   Ar   21   2.307   1.458   2.127
    1   AR   Ar   22   5.003   0.236   1.793
    1   AR   Ar   23   0.986   6.026   0.911
    1   AR   Ar   24   5.988   2.662   3.376
    1   AR   Ar   25   1.062   2.914   5.538
    1   AR   Ar   26   5.772   6.016   4.819
    1   AR   Ar   27   1.229   0.260   1.540
    1   AR   Ar   28   2.296   2.665   3.767
    1   AR   Ar   29   5.789   1.062   8.066
    1   AR   Ar   30   0.054   0.944   3.207
    1   AR   Ar   31   1.165   0.393   6.947
    1   AR   Ar   32   0.936   1.682   6.046
    1   AR   Ar   33   6.613   4.589   0.987
    1   AR   Ar   34   1.763   4.964   2.882
    1   AR   Ar   35   5.165   5.358   2.619
    1   AR   Ar   36   4.068   2.460  -3.646
    1   AR   Ar   37   4.332   3.653   1.398
    1   AR   Ar   38   5.700   4.724   4.343
    1   AR   Ar   39   0.266   2.819   4.221
    1   AR   Ar   40   0.778   4.141   2.264
    1   AR   Ar   41   0.838   1.654   3.457
    1   AR   Ar   42   5.126   5.749   5.574
    1   AR   Ar   43   0.045   2.789   6.141
    1   AR   Ar   44   0.978   3.669   3.084
    1   AR   Ar   45   1.795   3.775   5.459
    1   AR   Ar   46   6.046   5.185   6.567
    1   AR   Ar   47   2.904   3.536   6.596
    1   AR   Ar   48   6.917   2.936   7.209
    1   AR   Ar   49   0.581   1.261   0.616
    1   AR   Ar   50   2.618   4.069  -0.018
    1   AR   Ar   51   5.234   3.468   2.843
    1   AR   Ar   52   5.526   3.564  -1.438
    1   AR   Ar   53   4.530   0.293   3.440
    1   AR   Ar   54   6.865   6.794   2.756
    1   AR   Ar   55   6.793   4.615   2.271
    1   AR   Ar   56   5.726   1.482   3.129
    1   AR   Ar   57   3.994   5.130   2.052
    1   AR   Ar   58   1.182   3.338   4.256
    1   AR   Ar   59   2.778   5.851   5.500
    1   AR   Ar   60   0.675   5.087   3.004
    1   AR   Ar   61   0.004   4.496   6.484
    1   AR   Ar   62   6.863   4.282   5.090
    1   AR   Ar   63   2.392   2.335   6.991
    1   AR   Ar   64   0.671   5.173   4.168
    1   AR   Ar   65   3.924   0.737   2.626
    1   AR   Ar   66   1.487   1.375   1.452
    1   AR   Ar   67   4.494   0.718  -0.691
    1   AR   Ar   68   6.635   0.603   0.364
    1   AR   Ar   69   2.779   2.397   0.422
    1   AR   Ar   70   0.073   1.496   1.696
    1   AR   Ar   71   2.819   0.623   2.664
    1   AR   Ar   72   4.465   1.161   1.360
    1   AR   Ar   73   3.175   0.231   4.191
    1   AR   Ar   74   1.047   0.555   3.342
    1   AR   Ar   75   2.636   0.751   5.309
    1   AR   Ar   76   2.337   0.528   1.576
    1   AR   Ar   77   1.467   5.808   5.689
    1   AR   Ar   78   0.159   5.362   5.631
    1   AR   Ar   79   3.429   6.962   5.269
    1   AR   Ar   80   3.542   4.911   5.794
    1   AR   Ar   81   2.062   6.339   2.050
    1   AR   Ar   82   6.815   5.439   1.442
    1   AR   Ar   83   0.881   3.255   1.401
    1   AR   Ar   84   0.507   4.757   1.115
    1   AR   Ar   85   0.959   2.992  -0.021
    1   AR   Ar   86   1.744   5.418   1.342
    1   AR   Ar   87   3.618   3.128   2.783
    1   AR   Ar   88   3.487   5.338   1.124
    1   AR   Ar   89   6.022   2.169   1.112
    1   AR   Ar   90   2.921   1.335   6.153
    1   AR   Ar   91   1.886   1.005   3.017
    1   AR   Ar   92   2.687   2.135   1.448
    1   AR   Ar   93   1.189   0.643   5.842
    1   AR   Ar   94   6.763   6.610   8.811
    1   AR   Ar   95   5.213   0.954   6.669
    1   AR   Ar   96   2.454   6.915   4.803
    1   AR   Ar   97   4.433   1.362  -1.694
    1   AR   Ar   98   1.622   4.652   4.149
    1   AR   Ar   99   6.667   6.566  -0.651
    1   AR   Ar  100   5.337   3.256  -2.471
    1   AR   Ar  101   3.616   6.134   2.990
    1   AR   Ar  102   4.012   1.788   2.619
    1   AR   Ar  103   1.931   4.144   1.762
    1   AR   Ar  104   3.458   0.383  -0.706
    1   AR   Ar  105   2.740   2.347   2.485
    1   AR   Ar  106   4.497   1.288   3.849
    1   AR   Ar  107   1.097   4.631   5.147
    1   AR   Ar  108   2.125   0.450   3.965
    1   AR   Ar  109   2.239   4.653   4.950
    1   AR   Ar  110   1.813   2.232   4.620
    1   AR   Ar  111   3.613   4.476   6.776
    1   AR   Ar  112   6.550   6.203   5.589
    1   AR   Ar  113   6.977   5.748  -1.535
    1   AR   Ar  114   2.689   0.056   0.187
    1   AR   Ar  115   0.678   4.598  -0.011
    1   AR   Ar  116   5.305   1.171   0.433
    1   AR   Ar  117   0.171   4.177   3.231
    1   AR   Ar  118   1.864   6.472   3.913
    1   AR   Ar  119   2.140   3.198   2.785
    1   AR   Ar  120   2.066   7.066   2.855
    1   AR   Ar  121   4.910   4.123   6.559
    1   AR   Ar  122   2.957   5.469   3.683
    1   AR   Ar  123   3.762   2.280   4.950
    1   AR   Ar  124   0.835   5.295   1.932
    1   AR   Ar  125   5.974   3.610   3.539
    1   AR   Ar  126   6.720   0.679   7.876
    1   AR   Ar  127   4.971   3.414   5.867
    1   AR   Ar  128   0.751   3.857   6.203
    1   AR   Ar  129   2.017   5.806   4.793
    1   AR   Ar  130   4.970   0.900  -5.021
    1   AR   Ar  131   3.880   6.349  -0.477
    1   AR   Ar  132   1.695   2.426   1.430
    1   AR   Ar  133   4.076   0.551   4.577
    1   AR   Ar  134   2.734   1.207   4.265
    1   AR   Ar  135   6.405   6.878   4.779
    1   AR   Ar  136   5.497   6.845   2.830
    1   AR   Ar  137   2.123   4.537   6.261
    1   AR   Ar  138   6.025   1.273   5.771
    1   AR   Ar  139   6.282   1.568   4.706
    1   AR   Ar  140   4.603   6.567   4.846
    1   AR   Ar  141   3.459   5.010   4.744
    1   AR   Ar  142   4.323   5.959   8.355
    1   AR   Ar  143   5.511   7.072   7.301
    1   AR   Ar  144   6.914   2.405   5.161
    1   AR   Ar  145   5.199   4.700  -1.201
    1   AR   Ar  146   3.895   2.370   3.729
    1   AR   Ar  147   5.242   4.329  -0.080
    1   AR   Ar  148   2.299   5.998  -0.698
    1   AR   Ar  149   0.279   2.179  -0.542
    1   AR   Ar  150   1.344   2.337   2.467
    1   AR   Ar  151   2.869   3.548   1.844
    1   AR   Ar  152   0.803   1.199  -0.954
    1   AR   Ar  153   5.490   0.581   3.450
    1   AR   Ar  154   4.893   3.012   3.679
    1   AR   Ar  155   6.258   3.416   5.399
    1   AR   Ar  156   2.941   3.915   3.125
    1   AR   Ar  157   2.976   5.399   6.418
    1   AR   Ar  158   0.779   2.543   6.826
    1   AR   Ar  159   4.261   0.619   5.605
    1   AR   Ar  160   1.416   1.159   4.256
    1   AR   Ar  161   4.972   4.697   3.408
    1   AR   Ar  162   4.095   5.265  -1.003
    1   AR   Ar  163   6.081   3.673   2.254
    1   AR   Ar  164   2.207   5.916   3.013
    1   AR   Ar  165   3.214   4.069   1.057
    1   AR   Ar  166   2.903   3.324   5.479
    1   AR   Ar  167   6.167   6.615   3.577
    1   AR   Ar  168   5.491   4.387  -2.387
    1   AR   Ar  169   4.072   3.969   3.578
    1   AR   Ar  170   2.704   2.384   6.100
    1   AR   Ar  171   4.694   5.435   4.118
    1   AR   Ar  172   4.100   3.289   4.800
    1   AR   Ar  173   1.338   1.799   7.452
    1   AR   Ar  174   3.081   6.090   4.513
    1   AR   Ar  175   2.535   6.810   7.577
    1   AR   Ar  176   3.197   3.124   3.889
    1   AR   Ar  177   7.097   4.257  -1.116
    1   AR   Ar  178   2.384   6.448   0.788
    1   AR   Ar  179   3.366   6.394   0.549
    1   AR   Ar  180   5.237   0.050  -7.581
    1   AR   Ar  181   0.475   6.293   1.791
    1   AR   Ar  182   1.156   6.644   2.991
    1   AR   Ar  183   4.874   5.408   1.437
    1   AR   Ar  184   4.189   5.405   0.349
    1   AR   Ar  185   3.227   4.058   4.362
    1   AR   Ar  186   2.755   6.632   3.501
    1   AR   Ar  187   3.956   6.761   3.954
    1   AR   Ar  188   3.332   1.014   1.770
    1   AR   Ar  189   5.975   2.465   5.628
    1   AR   Ar  190   1.013   0.158   4.449
    1   AR   Ar  191   3.832   5.701   5.283
    1   AR   Ar  192   3.988   3.468   6.343
    1   AR   Ar  193   3.206   6.415   1.747
    1   AR   Ar  194   4.826   6.203  -0.156
    1   AR   Ar  195   6.217   1.124   1.273
    1   AR   Ar  196   4.427   6.766   0.688
    1   AR   Ar  197   4.857   3.157   0.095
    1   AR   Ar  198   6.772   6.986   1.241
    1   AR   Ar  199   0.032   0.365   2.058
    1   AR   Ar  200   6.143   2.746  -0.032
    1   AR   Ar  201   6.433   5.667   2.609
    1   AR   Ar  202   5.260   0.258   4.643
    1   AR   Ar  203   0.249   0.000   3.737
    1   AR   Ar  204   4.463   4.777   7.380
    1   AR   Ar  205   5.250   1.587   2.013
    1   AR   Ar  206   6.264   0.158   6.051
    1   AR   Ar  207   6.684   3.470   4.393
    1   AR   Ar  208   0.617   6.043   3.527
    1   AR   Ar  209   5.526   1.742  -1.913
    1   AR   Ar  210   2.098   0.796  -0.651
    1   AR   Ar  211   6.898   2.954   0.776
    1   AR   Ar  212   6.790   3.917   0.032
    1   AR   Ar  213   3.652   1.627   0.995
    1   AR   Ar  214   5.095   4.317   1.826
    1   AR   Ar  215   0.268   2.863   2.290
    1   AR   Ar  216   1.962   2.044  -0.435
    1   AR   Ar  217   5.338   2.129   3.905
    1   AR   Ar  218   5.021   2.826   5.030
    1   AR   Ar  219   4.125   4.003   2.415
    1   AR   Ar  220   4.334   4.561   1.038
    1   AR   Ar  221   6.893   5.643   3.760
    1   AR   Ar  222   5.202   6.836   6.090
    1   AR   Ar  223   0.016   1.235   5.541
    1   AR   Ar  224   5.256   1.606   4.920
    1   AR   Ar  225   6.601   2.171   2.553
    1   AR   Ar  226   2.164   3.752   3.975
    1   AR   Ar  227   1.100   2.702   3.379
    1   AR   Ar  228   6.298   0.873   2.396
    1   AR   Ar  229   6.154   4.498  -1.057
    1   AR   Ar  230   3.973   5.125   3.171
    1   AR   Ar  231   4.934   2.435   2.802
    1   AR   Ar  232   5.113   3.102   1.799
    1   AR   Ar  233   6.883   2.076   3.571
    1   AR   Ar  234   5.948   2.784   4.548
    1   AR   Ar  235   6.636   0.796   4.049
    1   AR   Ar  236   4.061   4.150   5.356
    1   AR   Ar  237   4.567   1.417   7.330
    1   AR   Ar  238   4.678   5.147   6.170
    1   AR   Ar  239   1.288   4.126  11.203
    1   AR   Ar  240   1.794   3.403   6.591
    1   AR   Ar  241   1.470   6.966   0.263
    1   AR   Ar  242   5.801   6.373   1.825
    1   AR   Ar  243   4.559   6.337   1.898
    1   AR   Ar  244   6.399   6.053   0.202
    1   AR   Ar  245   3.446   1.019   3.480
    1   AR   Ar  246   5.039   6.501  -1.309
    1   AR   Ar  247   0.014   3.720   1.734
    1   AR   Ar  248   5.550   5.395  -0.323
    1   AR   Ar  249   3.485   0.133   1.176
    1   AR   Ar  250   5.234   6.492   3.937
    1   AR   Ar  251   5.084   4.235   5.218
    1   AR   Ar  252   2.876   4.949   2.640
    1   AR   Ar  253   4.851   2.344   8.532
    1   AR   Ar  254   4.537   3.924  12.379
    1   AR   Ar  255   5.048   0.316   8.788
    1   AR   Ar  256   5.769   5.646   3.516
    7.12000  7.12000 12.00000
Argon-slab step 5435
  256
    1   AR   Ar    1   4.363   3.603  -2.637
    1   AR   Ar    2   5.357   6.019   0.709
    1   AR   Ar    3   4.375   3.695  -0.661
    1   AR   Ar    4   2.595   1.141   0.747
    1   AR   Ar    5   6.798   5.316  -0.583
    1   AR   Ar    6   0.917   1.096   2.434
    1   AR   Ar    7   6.308   4.818   3.240
    1   AR   Ar    8   6.461   3.376  -0.906
    1   AR   Ar    9   0.616   6.001   4.800
    1   AR   Ar   10   5.889   4.380   5.933
    1   AR   Ar   11   1.075   6.826   5.316
    1   AR   Ar   12   0.390   1.389   4.344
    1   AR   Ar   13   0.150   0.353   4.958
    1   AR   Ar   14   3.679   0.718   6.754
    1   AR   Ar   15   2.436   5.775   9.716
    1   AR   Ar   16   0.284   0.129   6.047
    1   AR   Ar   17   5.878   3.336   1.122
    1   AR   Ar   18   6.585   4.666  -2.161
    1   AR   Ar   19   5.625   4.691   0.942
    1   AR   Ar   20   6.576   3.570  -2.392
    1   AR   Ar   21   2.339   1.468   2.126
    1   AR   Ar   22   5.015   0.192   1.793
    1   AR   Ar   23   0.972   6.017   0.925
    1   AR   Ar   24   6.003   2.689   3.385
    1   AR   Ar   25   1.038   2.901   5.566
    1   AR   Ar   26   5.804   6.012   4.839
    1   AR   Ar   27   1.222   0.229   1.543
    1   AR   Ar   28   2.296   2.664   3.752
    1   AR   Ar   29   5.781   1.042   8.068
    1   AR   Ar   30   0.015   0.941   3.250
    1   AR   Ar   31   1.168   0.412   6.960
    1   AR   Ar   32   0.917   1.673   6.039
    1   AR   Ar   33   6.631   4.591   0.982
    1   AR   Ar   34   1.780   4.966   2.885
    1   AR   Ar   35   5.187   5.364   2.629
    1   AR   Ar   36   4.051   2.434  -3.653
    1   AR   Ar   37   4.360   3.634   1.406
    1   AR   Ar   38   5.702   4.709   4.333
    1   AR   Ar   39   0.267   2.820   4.244
    1   AR   Ar   40   0.771   4.118   2.282
    1   AR   Ar   41   0.843   1.658   3.476
    1   AR   Ar   42   5.161   5.730   5.613
    1   AR   Ar   43   0.045   2.778   6.170
    1   AR   Ar   44   1.009   3.691   3.092
    1   AR   Ar   45   1.820   3.772   5.462
    1   AR   Ar   46   6.066   5.184   6.557
    1   AR   Ar   47   2.917   3.540   6.604
    1   AR   Ar   48   6.928   2.941   7.188
    1   AR   Ar   49   0.562   1.266   0.588
    1   AR   Ar   50   2.630   4.073   0.003
    1   AR   Ar   51   5.229   3.480   2.844
    1   AR   Ar   52   5.516   3.577  -1.450
    1   AR   Ar   53   4.538   0.287   3.428
    1   AR   Ar   54   6.875   6.804   2.763
    1   AR   Ar   55   6.784   4.605   2.302
    1   AR   Ar   56   5.706   1.493   3.126
    1   AR   Ar   57   4.011   5.112   2.057
    1   AR   Ar   58   1.211   3.315   4.261
    1   AR   Ar   59   2.769   5.841   5.480
    1   AR   Ar   60   0.679   5.092   2.988
    1   AR   Ar   61   0.028   4.471   6.455
    1   AR   Ar   62   6.852   4.277   5.093
    1   AR   Ar   63   2.341   2.302   6.992
    1   AR   Ar   64   0.677   5.212   4.146
    1   AR   Ar   65   3.983   0.734   2.647
    1   AR   Ar   66   1.491   1.370   1.426
    1   AR   Ar   67   4.498   0.718  -0.664
    1   AR   Ar   68   6.672   0.637   0.371
    1   AR   Ar   69   2.782   2.406   0.454
    1   AR   Ar   70   0.080   1.492   1.655
    1   AR   Ar   71   2.807   0.655   2.660
    1   AR   Ar   72   4.456   1.194   1.326
    1   AR   Ar   73   3.196   0.234   4.198
    1   AR   Ar   74   1.076   0.558   3.342
    1   AR   Ar   75   2.620   0.752   5.274
    1   AR   Ar   76   2.342   0.542   1.598
    1   AR   Ar   77   1.446   5.787   5.702
    1   AR   Ar   78   0.146   5.354   5.640
    1   AR   Ar   79   3.450   6.923   5.233
    1   AR   Ar   80   3.547   4.934   5.802
    1   AR   Ar   81   2.029   6.311   2.063
    1   AR   Ar   82   6.829   5.448   1.415
    1   AR   Ar   83   0.903   3.245   1.430
    1   AR   Ar   84   0.513   4.797   1.115
    1   AR   Ar   85   0.965   2.987  -0.024
    1   AR   Ar   86   1.733   5.434   1.369
    1   AR   Ar   87   3.612   3.134   2.776
    1   AR   Ar   88   3.478   5.322   1.085
    1   AR   Ar   89   5.997   2.159   1.092
    1   AR   Ar   90   2.906   1.312   6.170
    1   AR   Ar   91   1.900   0.976   2.990
    1   AR   Ar   92   2.732   2.151   1.462
    1   AR   Ar   93   1.131   0.662   5.828
    1   AR   Ar   94   6.740   6.614   8.821
    1   AR   Ar   95   5.258   0.942   6.702
    1   AR   Ar   96   2.436   6.932   4.812
    1   AR   Ar   97   4.478   1.333  -1.705
    1   AR   Ar   98   1.642   4.634   4.114
    1   AR   Ar   99   6.667   6.567  -0.697
    1   AR   Ar  100   5.339   3.254  -2.474
    1   AR   Ar  101   3.627   6.106   3.023
    1   AR   Ar  102   4.037   1.800   2.606
    1   AR   Ar  103   1.961   4.150   1.767
    1   AR   Ar  104   3.466   0.363  -0.705
    1   AR   Ar  105   2.739   2.353   2.468
    1   AR   Ar  106   4.527   1.303   3.827
    1   AR   Ar  107   1.093   4.627   5.116
    1   AR   Ar  108   2.100   0.449   3.941
    1   AR   Ar  109   2.232   4.623   4.947
    1   AR   Ar  110   1.798   2.242   4.656
    1   AR   Ar  111   3.612   4.480   6.787
    1   AR   Ar  112   6.539   6.199   5.596
    1   AR   Ar  113   7.008   5.787  -1.528
    1   AR   Ar  114   2.696   0.095   0.189
    1   AR   Ar  115   0.669   4.585  -0.022
    1   AR   Ar  116   5.321   1.221   0.413
    1   AR   Ar  117   0.210   4.175   3.278
    1   AR   Ar  118   1.843   6.473   3.884
    1   AR   Ar  119   2.119   3.177   2.781
    1   AR   Ar  120   2.076   7.083   2.826
    1   AR   Ar  121   4.883   4.148   6.569
    1   AR   Ar  122   2.996   5.440   3.671
    1   AR   Ar  123   3.717   2.295   4.985
    1   AR   Ar  124   0.864   5.285   1.940
    1   AR   Ar  125   5.999   3.601   3.541
    1   AR   Ar  126   6.737   0.671   7.877
    1   AR   Ar  127   4.948   3.407   5.866
    1   AR   Ar  128   0.747   3.876   6.212
    1   AR   Ar  129   2.012   5.809   4.824
    1   AR   Ar  130   4.999   0.908  -5.016
    1   AR   Ar  131   3.874   6.352  -0.458
    1   AR   Ar  132   1.700   2.428   1.444
    1   AR   Ar  133   4.065   0.530   4.539
    1   AR   Ar  134   2.743   1.210   4.271
    1   AR   Ar  135   6.409   6.931   4.760
    1   AR   Ar  136   5.502   6.849   2.845
    1   AR   Ar  137   2.116   4.545   6.263
    1   AR   Ar  138   6.033   1.277   5.778
    1   AR   Ar  139   6.303   1.570   4.711
    1   AR   Ar  140   4.591   6.577   4.819
    1   AR   Ar  141   3.434   4.962   4.760
    1   AR   Ar  142   4.290   5.934   8.372
    1   AR   Ar  143   5.527   7.056   7.313
    1   AR   Ar  144   6.895   2.387   5.186
    1   AR   Ar  145   5.170   4.677  -1.215
    1   AR   Ar  146   3.899   2.386   3.695
    1   AR   Ar  147   5.209   4.345  -0.067
    1   AR   Ar  148   2.281   6.001  -0.677
    1   AR   Ar  149   0.262   2.146  -0.538
    1   AR   Ar  150   1.343   2.336   2.497
    1   AR   Ar  151   2.883   3.505   1.862
    1   AR   Ar  152   0.791   1.218  -0.961
    1   AR   Ar  153   5.502   0.581   3.468
    1   AR   Ar  154   4.876   3.000   3.683
    1   AR   Ar  155   6.265   3.391   5.355
    1   AR   Ar  156   2.934   3.934   3.077
    1   AR   Ar  157   2.989   5.425   6.386
    1   AR   Ar  158   0.798   2.514   6.806
    1   AR   Ar  159   4.275   0.598   5.593
    1   AR   Ar  160   1.400   1.166   4.261
    1   AR   Ar  161   4.978   4.729   3.409
    1   AR   Ar  162   4.086   5.262  -1.051
    1   AR   Ar  163   6.075   3.687   2.290
    1   AR   Ar  164   2.194   5.940   3.010
    1   AR   Ar  165   3.212   4.080   1.050
    1   AR   Ar  166   2.902   3.320   5.454
    1   AR   Ar  167   6.208   6.613   3.584
    1   AR   Ar  168   5.470   4.371  -2.379
    1   AR   Ar  169   4.079   4.002   3.574
    1   AR   Ar  170   2.698   2.358   6.077
    1   AR   Ar  171   4.690   5.433   4.122
    1   AR   Ar  172   4.066   3.276   4.792
    1   AR   Ar  173   1.334   1.771   7.485
    1   AR   Ar  174   3.059   6.070   4.518
    1   AR   Ar  175   2.484   6.810   7.576
    1   AR   Ar  176   3.220   3.132   3.880
    1   AR   Ar  177   7.115   4.248  -1.146
    1   AR   Ar  178   2.372   6.457   0.811
    1   AR   Ar  179   3.355   6.411   0.554
    1   AR   Ar  180   5.255   0.039  -7.607
    1   AR   Ar  181   0.514   6.282   1.797
    1   AR   Ar  182   1.150   6.637   2.983
    1   AR   Ar  183   4.876   5.419   1.435
    1   AR   Ar  184   4.184   5.388   0.341
    1   AR   Ar  185   3.234   4.028   4.383
    1   AR   Ar  186   2.742   6.618   3.523
    1   AR   Ar  187   3.941   6.746   3.931
    1   AR   Ar  188   3.330   1.041   1.796
    1   AR   Ar  189   5.984   2.462   5.641
    1   AR   Ar  190   1.010   0.176   4.417
    1   AR   Ar  191   3.870   5.690   5.239
    1   AR   Ar  192   3.980   3.447   6.327
    1   AR   Ar  193   3.203   6.432   1.736
    1   AR   Ar  194   4.816   6.200  -0.119
    1   AR   Ar  195   6.205   1.137   1.247
    1   AR   Ar  196   4.444   6.725   0.680
    1   AR   Ar  197   4.845   3.167   0.084
    1   AR   Ar  198   6.779   6.959   1.275
    1   AR   Ar  199   0.004   0.354   2.048
    1   AR   Ar  200   6.124   2.730  -0.023
    1   AR   Ar  201   6.426   5.699   2.649
    1   AR   Ar  202   5.277   0.255   4.620
    1   AR   Ar  203   0.299   7.103   3.757
    1   AR   Ar  204   4.447   4.810   7.403
    1   AR   Ar  205   5.277   1.596   2.027
    1   AR   Ar  206   6.225   0.160   6.075
    1   AR   Ar  207   6.657   3.461   4.383
    1   AR   Ar  208   0.625   6.019   3.514
    1   AR   Ar  209   5.520   1.732  -1.919
    1   AR   Ar  210   2.081   0.813  -0.620
    1   AR   Ar  211   6.872   2.963   0.764
    1   AR   Ar  212   6.797   3.942   0.054
    1   AR   Ar  213   3.635   1.637   1.006
    1   AR   Ar  214   5.108   4.355   1.836
    1   AR   Ar  215   0.266   2.864   2.300
    1   AR   Ar  216   2.012   2.039  -0.461
    1   AR   Ar  217   5.302   2.150   3.916
    1   AR   Ar  218   5.023   2.813   5.058
    1   AR   Ar  219   4.154   4.015   2.417
    1   AR   Ar  220   4.336   4.572   1.035
    1   AR   Ar  221   6.886   5.666   3.761
    1   AR   Ar  222   5.205   6.818   6.092
    1   AR   Ar  223   7.120   1.230   5.550
    1   AR   Ar  224   5.267   1.598   4.899
    1   AR   Ar  225   6.606   2.212   2.571
    1   AR   Ar  226   2.138   3.707   3.989
    1   AR   Ar  227   1.112   2.711   3.410
    1   AR   Ar  228   6.279   0.881   2.403
    1   AR   Ar  229   6.130   4.450  -1.040
    1   AR   Ar  230   3.961   5.100   3.166
    1   AR   Ar  231   4.932   2.436   2.820
    1   AR   Ar  232   5.148   3.124   1.773
    1   AR   Ar  233   6.888   2.085   3.577
    1   AR   Ar  234   5.984   2.825   4.571
    1   AR   Ar  235   6.641   0.807   4.076
    1   AR   Ar  236   4.087   4.121   5.351
    1   AR   Ar  237   4.545   1.395   7.360
    1   AR   Ar  238   4.679   5.104   6.144
    1   AR   Ar  239   1.281   4.115  11.198
    1   AR   Ar  240   1.796   3.383   6.589
    1   AR   Ar  241   1.465   6.946   0.236
    1   AR   Ar  242   5.823   6.374   1.857
    1   AR   Ar  243   4.531   6.352   1.890
    1   AR   Ar  244   6.372   6.057   0.192
    1   AR   Ar  245   3.423   1.049   3.478
    1   AR   Ar  246   5.052   6.495  -1.308
    1   AR   Ar  247   0.029   3.768   1.717
    1   AR   Ar  248   5.530   5.362  -0.326
    1   AR   Ar  249   3.468   0.143   1.140
    1   AR   Ar  250   5.201   6.521   3.952
    1   AR   Ar  251   5.095   4.216   5.199
    1   AR   Ar  252   2.845   4.931   2.644
    1   AR   Ar  253   4.875   2.333   8.525
    1   AR   Ar  254   4.530   3.919  12.400
    1   AR   Ar  255   5.044   0.310   8.813
    1   AR   Ar  256   5.791   5.640   3.561
    7.12000  7.12000 12.00000
Argon-slab step 5440
  256
    1   AR   Ar    1   4.375   3.620  -2.622
    1   AR   Ar    2   5.388   6.093   0.665
    1   AR   Ar    3   4.403   3.727  -0.665
    1   AR   Ar    4   2.600   1.143   0.745
    1   AR   Ar    5   6.814   5.318  -0.607
    1   AR   Ar    6   0.927   1.150   2.447
    1   AR   Ar    7   6.303   4.827   3.259
    1   AR   Ar    8   6.449   3.379  -0.877
    1   AR   Ar    9   0.622   5.972   4.798
    1   AR   Ar   10   5.870   4.388   5.937
    1   AR   Ar   11   1.066   6.860   5.314
    1   AR   Ar   12   0.349   1.399   4.307
    1   AR   Ar   13   0.116   0.394   4.950
    1   AR   Ar   14   3.700   0.724   6.731
    1   AR   Ar   15   2.448   5.762   9.720
    1   AR   Ar   16   0.251   0.126   6.039
    1   AR   Ar   17   5.859   3.332   1.119
    1   AR   Ar   18   6.583   4.647  -2.196
    1   AR   Ar   19   5.588   4.727   0.954
    1   AR   Ar   20   6.581   3.563  -2.371
    1   AR   Ar   21   2.372   1.486   2.115
    1   AR   Ar   22   5.027   0.149   1.794
    1   AR   Ar   23   0.959   6.008   0.934
    1   AR   Ar   24   6.021   2.681   3.395
    1   AR   Ar   25   1.014   2.887   5.595
    1   AR   Ar   26   5.836   6.007   4.853
    1   AR   Ar   27   1.214   0.198   1.547
    1   AR   Ar   28   2.292   2.660   3.736
    1   AR   Ar   29   5.767   1.022   8.070
    1   AR   Ar   30   7.103   0.941   3.280
    1   AR   Ar   31   1.171   0.431   6.972
    1   AR   Ar   32   0.896   1.668   6.033
    1   AR   Ar   33   6.651   4.577   0.971
    1   AR   Ar   34   1.794   4.965   2.889
    1   AR   Ar   35   5.211   5.374   2.633
    1   AR   Ar   36   4.034   2.407  -3.658
    1   AR   Ar   37   4.381   3.611   1.413
    1   AR   Ar   38   5.703   4.695   4.323
    1   AR   Ar   39   0.276   2.810   4.265
    1   AR   Ar   40   0.762   4.116   2.284
    1   AR   Ar   41   0.850   1.664   3.487
    1   AR   Ar   42   5.205   5.725   5.641
    1   AR   Ar   43   0.042   2.769   6.191
    1   AR   Ar   44   1.064   3.695   3.115
    1   AR   Ar   45   1.831   3.756   5.481
    1   AR   Ar   46   6.093   5.185   6.557
    1   AR   Ar   47   2.930   3.544   6.611
    1   AR   Ar   48   6.940   2.948   7.169
    1   AR   Ar   49   0.543   1.271   0.561
    1   AR   Ar   50   2.642   4.078   0.026
    1   AR   Ar   51   5.218   3.495   2.840
    1   AR   Ar   52   5.536   3.596  -1.473
    1   AR   Ar   53   4.544   0.280   3.415
    1   AR   Ar   54   6.885   6.810   2.774
    1   AR   Ar   55   6.777   4.596   2.332
    1   AR   Ar   56   5.688   1.516   3.119
    1   AR   Ar   57   4.028   5.094   2.062
    1   AR   Ar   58   1.240   3.294   4.271
    1   AR   Ar   59   2.766   5.832   5.463
    1   AR   Ar   60   0.683   5.097   2.972
    1   AR   Ar   61   0.038   4.468   6.433
    1   AR   Ar   62   6.842   4.274   5.097
    1   AR   Ar   63   2.285   2.269   7.004
    1   AR   Ar   64   0.697   5.206   4.125
    1   AR   Ar   65   4.042   0.729   2.662
    1   AR   Ar   66   1.494   1.363   1.401
    1   AR   Ar   67   4.503   0.719  -0.637
    1   AR   Ar   68   6.710   0.670   0.379
    1   AR   Ar   69   2.783   2.414   0.481
    1   AR   Ar   70   0.068   1.474   1.624
    1   AR   Ar   71   2.806   0.687   2.654
    1   AR   Ar   72   4.457   1.221   1.296
    1   AR   Ar   73   3.200   0.238   4.202
    1   AR   Ar   74   1.099   0.557   3.348
    1   AR   Ar   75   2.606   0.753   5.237
    1   AR   Ar   76   2.346   0.552   1.621
    1   AR   Ar   77   1.422   5.766   5.716
    1   AR   Ar   78   0.135   5.345   5.648
    1   AR   Ar   79   3.472   6.883   5.196
    1   AR   Ar   80   3.562   4.939   5.803
    1   AR   Ar   81   1.994   6.284   2.069
    1   AR   Ar   82   6.845   5.470   1.395
    1   AR   Ar   83   0.919   3.248   1.429
    1   AR   Ar   84   0.523   4.833   1.112
    1   AR   Ar   85   0.904   3.003  -0.058
    1   AR   Ar   86   1.727   5.449   1.396
    1   AR   Ar   87   3.606   3.138   2.770
    1   AR   Ar   88   3.466   5.306   1.050
    1   AR   Ar   89   5.971   2.153   1.072
    1   AR   Ar   90   2.891   1.288   6.188
    1   AR   Ar   91   1.929   0.967   2.976
    1   AR   Ar   92   2.781   2.166   1.472
    1   AR   Ar   93   1.078   0.682   5.812
    1   AR   Ar   94   6.716   6.618   8.831
    1   AR   Ar   95   5.306   0.928   6.733
    1   AR   Ar   96   2.429   6.878   4.849
    1   AR   Ar   97   4.510   1.307  -1.713
    1   AR   Ar   98   1.656   4.619   4.073
    1   AR   Ar   99   6.668   6.567  -0.744
    1   AR   Ar  100   5.346   3.251  -2.478
    1   AR   Ar  101   3.637   6.081   3.056
    1   AR   Ar  102   4.061   1.815   2.594
    1   AR   Ar  103   1.990   4.156   1.773
    1   AR   Ar  104   3.471   0.341  -0.701
    1   AR   Ar  105   2.740   2.364   2.458
    1   AR   Ar  106   4.557   1.318   3.806
    1   AR   Ar  107   1.090   4.624   5.086
    1   AR   Ar  108   2.075   0.442   3.914
    1   AR   Ar  109   2.230   4.595   4.949
    1   AR   Ar  110   1.782   2.252   4.692
    1   AR   Ar  111   3.611   4.484   6.797
    1   AR   Ar  112   6.529   6.196   5.605
    1   AR   Ar  113   7.039   5.826  -1.521
    1   AR   Ar  114   2.695   0.146   0.197
    1   AR   Ar  115   0.655   4.575  -0.051
    1   AR   Ar  116   5.337   1.270   0.395
    1   AR   Ar  117   0.230   4.182   3.329
    1   AR   Ar  118   1.809   6.473   3.862
    1   AR   Ar  119   2.096   3.158   2.777
    1   AR   Ar  120   2.085   7.095   2.797
    1   AR   Ar  121   4.855   4.176   6.583
    1   AR   Ar  122   3.034   5.409   3.658
    1   AR   Ar  123   3.672   2.309   5.019
    1   AR   Ar  124   0.892   5.274   1.955
    1   AR   Ar  125   6.025   3.626   3.549
    1   AR   Ar  126   6.772   0.666   7.868
    1   AR   Ar  127   4.927   3.399   5.867
    1   AR   Ar  128   0.773   3.881   6.217
    1   AR   Ar  129   2.002   5.812   4.846
    1   AR   Ar  130   5.000   0.901  -5.016
    1   AR   Ar  131   3.861   6.357  -0.441
    1   AR   Ar  132   1.705   2.432   1.458
    1   AR   Ar  133   4.067   0.512   4.503
    1   AR   Ar  134   2.751   1.217   4.279
    1   AR   Ar  135   6.410   6.983   4.739
    1   AR   Ar  136   5.504   6.851   2.855
    1   AR   Ar  137   2.110   4.553   6.263
    1   AR   Ar  138   6.040   1.282   5.786
    1   AR   Ar  139   6.328   1.576   4.716
    1   AR   Ar  140   4.577   6.586   4.795
    1   AR   Ar  141   3.403   4.909   4.767
    1   AR   Ar  142   4.257   5.909   8.389
    1   AR   Ar  143   5.543   7.041   7.324
    1   AR   Ar  144   6.882   2.369   5.207
    1   AR   Ar  145   5.131   4.656  -1.229
    1   AR   Ar  146   3.907   2.377   3.696
    1   AR   Ar  147   5.174   4.360  -0.054
    1   AR   Ar  148   2.263   6.004  -0.655
    1   AR   Ar  149   0.246   2.113  -0.533
    1   AR   Ar  150   1.343   2.331   2.522
    1   AR   Ar  151   2.896   3.458   1.885
    1   AR   Ar  152   0.779   1.238  -0.966
    1   AR   Ar  153   5.520   0.576   3.493
    1   AR   Ar  154   4.852   3.002   3.692
    1   AR   Ar  155   6.274   3.376   5.320
    1   AR   Ar  156   2.927   3.951   3.031
    1   AR   Ar  157   2.990   5.460   6.374
    1   AR   Ar  158   0.822   2.485   6.789
    1   AR   Ar  159   4.289   0.576   5.582
    1   AR   Ar  160   1.388   1.169   4.260
    1   AR   Ar  161   4.985   4.754   3.410
    1   AR   Ar  162   4.078   5.259  -1.097
    1   AR   Ar  163   6.073   3.701   2.323
    1   AR   Ar  164   2.179   5.960   3.007
    1   AR   Ar  165   3.212   4.095   1.040
    1   AR   Ar  166   2.901   3.316   5.429
    1   AR   Ar  167   6.255   6.613   3.596
    1   AR   Ar  168   5.450   4.353  -2.369
    1   AR   Ar  169   4.086   4.034   3.568
    1   AR   Ar  170   2.697   2.336   6.042
    1   AR   Ar  171   4.686   5.435   4.128
    1   AR   Ar  172   4.032   3.261   4.778
    1   AR   Ar  173   1.330   1.743   7.517
    1   AR   Ar  174   3.041   6.053   4.520
    1   AR   Ar  175   2.433   6.811   7.574
    1   AR   Ar  176   3.244   3.141   3.870
    1   AR   Ar  177   0.021   4.240  -1.175
    1   AR   Ar  178   2.352   6.462   0.840
    1   AR   Ar  179   3.352   6.423   0.556
    1   AR   Ar  180   5.270   0.050  -7.596
    1   AR   Ar  181   0.548   6.276   1.809
    1   AR   Ar  182   1.149   6.637   2.966
    1   AR   Ar  183   4.873   5.426   1.436
    1   AR   Ar  184   4.171   5.357   0.309
    1   AR   Ar  185   3.239   3.998   4.405
    1   AR   Ar  186   2.748   6.627   3.535
    1   AR   Ar  187   3.928   6.718   3.909
    1   AR   Ar  188   3.324   1.056   1.817
    1   AR   Ar  189   6.012   2.469   5.697
    1   AR   Ar  190   1.021   0.196   4.383
    1   AR   Ar  191   3.919   5.698   5.196
    1   AR   Ar  192   3.970   3.428   6.310
    1   AR   Ar  193   3.200   6.445   1.727
    1   AR   Ar  194   4.810   6.194  -0.091
    1   AR   Ar  195   6.200   1.147   1.229
    1   AR   Ar  196   4.458   6.686   0.677
    1   AR   Ar  197   4.838   3.176   0.078
    1   AR   Ar  198   6.782   6.925   1.302
    1   AR   Ar  199   7.105   0.353   2.040
    1   AR   Ar  200   6.105   2.715  -0.013
    1   AR   Ar  201   6.421   5.734   2.688
    1   AR   Ar  202   5.295   0.254   4.597
    1   AR   Ar  203   0.336   7.081   3.771
    1   AR   Ar  204   4.432   4.845   7.425
    1   AR   Ar  205   5.299   1.610   2.034
    1   AR   Ar  206   6.186   0.163   6.098
    1   AR   Ar  207   6.640   3.477   4.367
    1   AR   Ar  208   0.640   5.998   3.503
    1   AR   Ar  209   5.515   1.723  -1.926
    1   AR   Ar  210   2.064   0.830  -0.587
    1   AR   Ar  211   6.847   2.973   0.753
    1   AR   Ar  212   6.803   3.966   0.076
    1   AR   Ar  213   3.621   1.641   1.012
    1   AR   Ar  214   5.120   4.392   1.849
    1   AR   Ar  215   0.268   2.868   2.311
    1   AR   Ar  216   2.061   2.033  -0.486
    1   AR   Ar  217   5.268   2.157   3.933
    1   AR   Ar  218   5.027   2.794   5.078
    1   AR   Ar  219   4.183   4.030   2.421
    1   AR   Ar  220   4.337   4.589   1.030
    1   AR   Ar  221   6.862   5.683   3.766
    1   AR   Ar  222   5.202   6.799   6.088
    1   AR   Ar  223   7.109   1.228   5.559
    1   AR   Ar  224   5.278   1.592   4.881
    1   AR   Ar  225   6.608   2.250   2.586
    1   AR   Ar  226   2.118   3.663   4.001
    1   AR   Ar  227   1.123   2.717   3.447
    1   AR   Ar  228   6.258   0.895   2.408
    1   AR   Ar  229   6.106   4.401  -1.021
    1   AR   Ar  230   3.948   5.072   3.162
    1   AR   Ar  231   4.931   2.433   2.834
    1   AR   Ar  232   5.184   3.142   1.758
    1   AR   Ar  233   6.895   2.090   3.587
    1   AR   Ar  234   6.002   2.843   4.590
    1   AR   Ar  235   6.637   0.812   4.114
    1   AR   Ar  236   4.108   4.097   5.351
    1   AR   Ar  237   4.522   1.373   7.392
    1   AR   Ar  238   4.667   5.048   6.129
    1   AR   Ar  239   1.276   4.103  11.189
    1   AR   Ar  240   1.796   3.362   6.586
    1   AR   Ar  241   1.461   6.926   0.210
    1   AR   Ar  242   5.844   6.374   1.888
    1   AR   Ar  243   4.502   6.366   1.882
    1   AR   Ar  244   6.344   6.058   0.184
    1   AR   Ar  245   3.403   1.079   3.477
    1   AR   Ar  246   5.065   6.488  -1.305
    1   AR   Ar  247   0.033   3.814   1.693
    1   AR   Ar  248   5.511   5.329  -0.328
    1   AR   Ar  249   3.450   0.160   1.104
    1   AR   Ar  250   5.178   6.533   3.914
    1   AR   Ar  251   5.112   4.200   5.178
    1   AR   Ar  252   2.817   4.914   2.647
    1   AR   Ar  253   4.892   2.346   8.498
    1   AR   Ar  254   4.523   3.915  12.421
    1   AR   Ar  255   5.040   0.305   8.837
    1   AR   Ar  256   5.782   5.657   3.600
    7.12000  7.12000 12.00000
Argon-slab step 5445
  256
    1   AR   Ar    1   4.384   3.639  -2.606
    1   AR   Ar    2   5.430   6.164   0.639
    1   AR   Ar    3   4.430   3.764  -0.674
    1   AR   Ar    4   2.629   1.174   0.770
    1   AR   Ar    5   6.828   5.317  -0.629
    1   AR   Ar    6   0.937   1.205   2.460
    1   AR   Ar    7   6.299   4.831   3.281
    1   AR   Ar    8   6.439   3.382  -0.848
    1   AR   Ar    9   0.626   5.940   4.794
    1   AR   Ar   10   5.851   4.392   5.938
    1   AR   Ar   11   1.058   6.889   5.314
    1   AR   Ar   12   0.304   1.408   4.279
    1   AR   Ar   13   0.089   0.437   4.942
    1   AR   Ar   14   3.722   0.732   6.708
    1   AR   Ar   15   2.460   5.749   9.724
    1   AR   Ar   16   0.211   0.120   6.031
    1   AR   Ar   17   5.855   3.334   1.101
    1   AR   Ar   18   6.581   4.628  -2.229
    1   AR   Ar   19   5.549   4.765   0.963
    1   AR   Ar   20   6.584   3.555  -2.348
    1   AR   Ar   21   2.396   1.498   2.105
    1   AR   Ar   22   5.026   0.147   1.782
    1   AR   Ar   23   0.947   5.997   0.935
    1   AR   Ar   24   6.037   2.655   3.401
    1   AR   Ar   25   0.990   2.874   5.623
    1   AR   Ar   26   5.866   6.004   4.858
    1   AR   Ar   27   1.206   0.166   1.552
    1   AR   Ar   28   2.286   2.652   3.719
    1   AR   Ar   29   5.750   1.002   8.072
    1   AR   Ar   30   7.081   0.943   3.293
    1   AR   Ar   31   1.174   0.451   6.982
    1   AR   Ar   32   0.905   1.664   6.040
    1   AR   Ar   33   6.666   4.555   0.959
    1   AR   Ar   34   1.804   4.962   2.893
    1   AR   Ar   35   5.236   5.388   2.632
    1   AR   Ar   36   4.018   2.381  -3.664
    1   AR   Ar   37   4.393   3.591   1.417
    1   AR   Ar   38   5.704   4.682   4.311
    1   AR   Ar   39   0.290   2.794   4.285
    1   AR   Ar   40   0.752   4.132   2.282
    1   AR   Ar   41   0.861   1.672   3.486
    1   AR   Ar   42   5.252   5.726   5.666
    1   AR   Ar   43   0.035   2.761   6.201
    1   AR   Ar   44   1.135   3.692   3.147
    1   AR   Ar   45   1.831   3.729   5.509
    1   AR   Ar   46   6.120   5.190   6.558
    1   AR   Ar   47   2.940   3.548   6.617
    1   AR   Ar   48   6.951   2.955   7.156
    1   AR   Ar   49   0.524   1.276   0.535
    1   AR   Ar   50   2.655   4.083   0.049
    1   AR   Ar   51   5.201   3.512   2.835
    1   AR   Ar   52   5.554   3.616  -1.495
    1   AR   Ar   53   4.551   0.269   3.407
    1   AR   Ar   54   6.896   6.810   2.788
    1   AR   Ar   55   6.772   4.589   2.360
    1   AR   Ar   56   5.672   1.546   3.111
    1   AR   Ar   57   4.045   5.075   2.066
    1   AR   Ar   58   1.262   3.273   4.291
    1   AR   Ar   59   2.770   5.817   5.451
    1   AR   Ar   60   0.685   5.098   2.956
    1   AR   Ar   61   0.043   4.458   6.449
    1   AR   Ar   62   6.832   4.274   5.103
    1   AR   Ar   63   2.226   2.236   7.018
    1   AR   Ar   64   0.717   5.189   4.105
    1   AR   Ar   65   4.073   0.734   2.682
    1   AR   Ar   66   1.498   1.353   1.376
    1   AR   Ar   67   4.508   0.719  -0.610
    1   AR   Ar   68   6.749   0.702   0.388
    1   AR   Ar   69   2.785   2.423   0.504
    1   AR   Ar   70   0.058   1.456   1.595
    1   AR   Ar   71   2.820   0.715   2.647
    1   AR   Ar   72   4.470   1.240   1.272
    1   AR   Ar   73   3.182   0.241   4.203
    1   AR   Ar   74   1.116   0.552   3.357
    1   AR   Ar   75   2.592   0.753   5.202
    1   AR   Ar   76   2.349   0.558   1.644
    1   AR   Ar   77   1.396   5.744   5.732
    1   AR   Ar   78   0.124   5.334   5.656
    1   AR   Ar   79   3.499   6.894   5.203
    1   AR   Ar   80   3.586   4.921   5.813
    1   AR   Ar   81   1.958   6.261   2.068
    1   AR   Ar   82   6.862   5.502   1.382
    1   AR   Ar   83   0.924   3.254   1.456
    1   AR   Ar   84   0.537   4.866   1.104
    1   AR   Ar   85   0.842   3.020  -0.091
    1   AR   Ar   86   1.729   5.464   1.421
    1   AR   Ar   87   3.600   3.140   2.765
    1   AR   Ar   88   3.451   5.291   1.020
    1   AR   Ar   89   5.945   2.151   1.051
    1   AR   Ar   90   2.876   1.262   6.206
    1   AR   Ar   91   1.895   1.013   2.975
    1   AR   Ar   92   2.832   2.181   1.477
    1   AR   Ar   93   1.030   0.703   5.794
    1   AR   Ar   94   6.692   6.622   8.841
    1   AR   Ar   95   5.355   0.912   6.764
    1   AR   Ar   96   2.419   6.822   4.884
    1   AR   Ar   97   4.521   1.307  -1.707
    1   AR   Ar   98   1.667   4.605   4.029
    1   AR   Ar   99   6.669   6.566  -0.791
    1   AR   Ar  100   5.356   3.247  -2.483
    1   AR   Ar  101   3.647   6.059   3.086
    1   AR   Ar  102   4.084   1.829   2.582
    1   AR   Ar  103   2.019   4.162   1.781
    1   AR   Ar  104   3.476   0.319  -0.697
    1   AR   Ar  105   2.746   2.383   2.458
    1   AR   Ar  106   4.587   1.334   3.783
    1   AR   Ar  107   1.086   4.621   5.056
    1   AR   Ar  108   2.052   0.429   3.887
    1   AR   Ar  109   2.232   4.570   4.952
    1   AR   Ar  110   1.765   2.263   4.727
    1   AR   Ar  111   3.610   4.486   6.806
    1   AR   Ar  112   6.521   6.196   5.617
    1   AR   Ar  113   7.070   5.866  -1.516
    1   AR   Ar  114   2.694   0.198   0.204
    1   AR   Ar  115   0.639   4.564  -0.078
    1   AR   Ar  116   5.353   1.320   0.378
    1   AR   Ar  117   0.237   4.195   3.383
    1   AR   Ar  118   1.765   6.474   3.845
    1   AR   Ar  119   2.071   3.142   2.773
    1   AR   Ar  120   2.092   7.101   2.768
    1   AR   Ar  121   4.828   4.197   6.602
    1   AR   Ar  122   3.069   5.377   3.645
    1   AR   Ar  123   3.624   2.320   5.053
    1   AR   Ar  124   0.919   5.264   1.976
    1   AR   Ar  125   6.048   3.672   3.558
    1   AR   Ar  126   6.809   0.660   7.859
    1   AR   Ar  127   4.907   3.395   5.872
    1   AR   Ar  128   0.814   3.874   6.215
    1   AR   Ar  129   1.982   5.814   4.855
    1   AR   Ar  130   5.000   0.893  -5.016
    1   AR   Ar  131   3.843   6.363  -0.425
    1   AR   Ar  132   1.710   2.437   1.474
    1   AR   Ar  133   4.088   0.500   4.472
    1   AR   Ar  134   2.755   1.228   4.289
    1   AR   Ar  135   6.403   7.031   4.715
    1   AR   Ar  136   5.505   6.851   2.862
    1   AR   Ar  137   2.105   4.559   6.261
    1   AR   Ar  138   6.046   1.286   5.792
    1   AR   Ar  139   6.353   1.587   4.724
    1   AR   Ar  140   4.560   6.593   4.774
    1   AR   Ar  141   3.368   4.863   4.772
    1   AR   Ar  142   4.224   5.883   8.406
    1   AR   Ar  143   5.559   7.028   7.333
    1   AR   Ar  144   6.876   2.351   5.222
    1   AR   Ar  145   5.088   4.635  -1.244
    1   AR   Ar  146   3.916   2.333   3.752
    1   AR   Ar  147   5.139   4.371  -0.040
    1   AR   Ar  148   2.245   6.008  -0.632
    1   AR   Ar  149   0.230   2.082  -0.527
    1   AR   Ar  150   1.344   2.324   2.542
    1   AR   Ar  151   2.908   3.411   1.911
    1   AR   Ar  152   0.767   1.257  -0.971
    1   AR   Ar  153   5.543   0.569   3.524
    1   AR   Ar  154   4.820   3.018   3.706
    1   AR   Ar  155   6.289   3.380   5.307
    1   AR   Ar  156   2.935   3.938   3.009
    1   AR   Ar  157   2.982   5.500   6.380
    1   AR   Ar  158   0.852   2.455   6.775
    1   AR   Ar  159   4.303   0.552   5.571
    1   AR   Ar  160   1.379   1.176   4.260
    1   AR   Ar  161   4.987   4.749   3.413
    1   AR   Ar  162   4.072   5.257  -1.142
    1   AR   Ar  163   6.077   3.717   2.353
    1   AR   Ar  164   2.164   5.973   3.007
    1   AR   Ar  165   3.214   4.112   1.030
    1   AR   Ar  166   2.901   3.314   5.404
    1   AR   Ar  167   6.302   6.615   3.611
    1   AR   Ar  168   5.430   4.334  -2.357
    1   AR   Ar  169   4.094   4.056   3.561
    1   AR   Ar  170   2.697   2.317   6.001
    1   AR   Ar  171   4.681   5.441   4.138
    1   AR   Ar  172   3.998   3.245   4.759
    1   AR   Ar  173   1.327   1.715   7.546
    1   AR   Ar  174   3.027   6.039   4.513
    1   AR   Ar  175   2.382   6.811   7.573
    1   AR   Ar  176   3.266   3.151   3.856
    1   AR   Ar  177   0.048   4.231  -1.204
    1   AR   Ar  178   2.326   6.468   0.874
    1   AR   Ar  179   3.353   6.428   0.555
    1   AR   Ar  180   5.284   0.060  -7.585
    1   AR   Ar  181   0.578   6.275   1.830
    1   AR   Ar  182   1.153   6.645   2.941
    1   AR   Ar  183   4.871   5.434   1.438
    1   AR   Ar  184   4.163   5.329   0.271
    1   AR   Ar  185   3.242   3.964   4.427
    1   AR   Ar  186   2.766   6.640   3.549
    1   AR   Ar  187   3.917   6.683   3.887
    1   AR   Ar  188   3.312   1.028   1.815
    1   AR   Ar  189   6.030   2.471   5.757
    1   AR   Ar  190   1.049   0.219   4.360
    1   AR   Ar  191   3.972   5.716   5.153
    1   AR   Ar  192   3.959   3.411   6.292
    1   AR   Ar  193   3.200   6.450   1.722
    1   AR   Ar  194   4.803   6.181  -0.089
    1   AR   Ar  195   6.188   1.121   1.206
    1   AR   Ar  196   4.465   6.654   0.687
    1   AR   Ar  197   4.830   3.167   0.076
    1   AR   Ar  198   6.780   6.883   1.317
    1   AR   Ar  199   7.096   0.366   2.037
    1   AR   Ar  200   6.085   2.701  -0.002
    1   AR   Ar  201   6.424   5.742   2.689
    1   AR   Ar  202   5.314   0.256   4.573
    1   AR   Ar  203   0.353   7.051   3.771
    1   AR   Ar  204   4.418   4.879   7.447
    1   AR   Ar  205   5.297   1.639   2.009
    1   AR   Ar  206   6.149   0.167   6.120
    1   AR   Ar  207   6.644   3.519   4.342
    1   AR   Ar  208   0.658   5.983   3.494
    1   AR   Ar  209   5.507   1.715  -1.934
    1   AR   Ar  210   2.047   0.846  -0.553
    1   AR   Ar  211   6.823   2.984   0.742
    1   AR   Ar  212   6.810   3.990   0.095
    1   AR   Ar  213   3.596   1.653   1.011
    1   AR   Ar  214   5.131   4.428   1.865
    1   AR   Ar  215   0.276   2.875   2.322
    1   AR   Ar  216   2.111   2.026  -0.509
    1   AR   Ar  217   5.240   2.151   3.955
    1   AR   Ar  218   5.032   2.769   5.091
    1   AR   Ar  219   4.214   4.046   2.426
    1   AR   Ar  220   4.339   4.605   1.025
    1   AR   Ar  221   6.827   5.696   3.773
    1   AR   Ar  222   5.197   6.779   6.083
    1   AR   Ar  223   7.117   1.228   5.568
    1   AR   Ar  224   5.291   1.588   4.868
    1   AR   Ar  225   6.604   2.283   2.599
    1   AR   Ar  226   2.111   3.624   4.010
    1   AR   Ar  227   1.134   2.717   3.484
    1   AR   Ar  228   6.236   0.909   2.413
    1   AR   Ar  229   6.085   4.356  -0.998
    1   AR   Ar  230   3.938   5.042   3.158
    1   AR   Ar  231   4.932   2.426   2.846
    1   AR   Ar  232   5.212   3.150   1.764
    1   AR   Ar  233   6.904   2.093   3.601
    1   AR   Ar  234   5.991   2.823   4.595
    1   AR   Ar  235   6.622   0.807   4.161
    1   AR   Ar  236   4.084   4.150   5.328
    1   AR   Ar  237   4.499   1.351   7.423
    1   AR   Ar  238   4.647   4.992   6.114
    1   AR   Ar  239   1.270   4.092  11.181
    1   AR   Ar  240   1.796   3.341   6.581
    1   AR   Ar  241   1.458   6.906   0.186
    1   AR   Ar  242   5.865   6.375   1.920
    1   AR   Ar  243   4.471   6.377   1.874
    1   AR   Ar  244   6.317   6.058   0.176
    1   AR   Ar  245   3.387   1.109   3.475
    1   AR   Ar  246   5.077   6.481  -1.301
    1   AR   Ar  247   0.027   3.857   1.660
    1   AR   Ar  248   5.493   5.298  -0.331
    1   AR   Ar  249   3.433   0.184   1.071
    1   AR   Ar  250   5.154   6.546   3.874
    1   AR   Ar  251   5.133   4.185   5.154
    1   AR   Ar  252   2.793   4.902   2.648
    1   AR   Ar  253   4.909   2.357   8.470
    1   AR   Ar  254   4.516   3.911  12.442
    1   AR   Ar  255   5.038   0.299   8.860
    1   AR   Ar  256   5.767   5.675   3.641
    7.12000  7.12000 12.00000
Argon-slab step 5450
  256
    1   AR   Ar    1   4.392   3.658  -2.591
    1   AR   Ar    2   5.476   6.233   0.632
    1   AR   Ar    3   4.456   3.805  -0.687
    1   AR   Ar    4   2.658   1.206   0.797
    1   AR   Ar    5   6.841   5.315  -0.648
    1   AR   Ar    6   0.945   1.261   2.471
    1   AR   Ar    7   6.293   4.830   3.304
    1   AR   Ar    8   6.449   3.390  -0.820
    1   AR   Ar    9   0.630   5.912   4.794
    1   AR   Ar   10   5.831   4.393   5.938
    1   AR   Ar   11   1.049   6.913   5.315
    1   AR   Ar   12   0.258   1.419   4.261
    1   AR   Ar   13   0.077   0.478   4.935
    1   AR   Ar   14   3.745   0.739   6.684
    1   AR   Ar   15   2.472   5.736   9.727
    1   AR   Ar   16   0.167   0.111   6.022
    1   AR   Ar   17   5.868   3.342   1.065
    1   AR   Ar   18   6.577   4.611  -2.259
    1   AR   Ar   19   5.512   4.801   0.967
    1   AR   Ar   20   6.586   3.546  -2.324
    1   AR   Ar   21   2.412   1.508   2.094
    1   AR   Ar   22   5.028   0.148   1.770
    1   AR   Ar   23   0.936   5.985   0.929
    1   AR   Ar   24   6.047   2.627   3.408
    1   AR   Ar   25   0.966   2.861   5.653
    1   AR   Ar   26   5.872   6.004   4.812
    1   AR   Ar   27   1.199   0.135   1.558
    1   AR   Ar   28   2.306   2.652   3.681
    1   AR   Ar   29   5.732   0.981   8.073
    1   AR   Ar   30   7.065   0.946   3.295
    1   AR   Ar   31   1.176   0.472   6.991
    1   AR   Ar   32   0.933   1.664   6.056
    1   AR   Ar   33   6.676   4.532   0.947
    1   AR   Ar   34   1.805   4.957   2.898
    1   AR   Ar   35   5.263   5.405   2.626
    1   AR   Ar   36   4.002   2.354  -3.670
    1   AR   Ar   37   4.397   3.576   1.418
    1   AR   Ar   38   5.706   4.670   4.297
    1   AR   Ar   39   0.304   2.774   4.306
    1   AR   Ar   40   0.749   4.154   2.283
    1   AR   Ar   41   0.841   1.669   3.480
    1   AR   Ar   42   5.300   5.729   5.691
    1   AR   Ar   43   0.027   2.753   6.199
    1   AR   Ar   44   1.212   3.690   3.181
    1   AR   Ar   45   1.829   3.701   5.538
    1   AR   Ar   46   6.149   5.198   6.559
    1   AR   Ar   47   2.949   3.553   6.621
    1   AR   Ar   48   6.961   2.964   7.151
    1   AR   Ar   49   0.507   1.282   0.510
    1   AR   Ar   50   2.668   4.088   0.073
    1   AR   Ar   51   5.178   3.529   2.832
    1   AR   Ar   52   5.571   3.634  -1.518
    1   AR   Ar   53   4.562   0.253   3.408
    1   AR   Ar   54   6.870   6.820   2.795
    1   AR   Ar   55   6.770   4.585   2.388
    1   AR   Ar   56   5.680   1.558   3.082
    1   AR   Ar   57   4.062   5.057   2.069
    1   AR   Ar   58   1.270   3.253   4.325
    1   AR   Ar   59   2.781   5.797   5.443
    1   AR   Ar   60   0.685   5.095   2.945
    1   AR   Ar   61   0.041   4.444   6.472
    1   AR   Ar   62   6.825   4.277   5.110
    1   AR   Ar   63   2.166   2.203   7.033
    1   AR   Ar   64   0.736   5.173   4.095
    1   AR   Ar   65   4.061   0.756   2.707
    1   AR   Ar   66   1.502   1.342   1.353
    1   AR   Ar   67   4.514   0.720  -0.583
    1   AR   Ar   68   6.786   0.733   0.396
    1   AR   Ar   69   2.785   2.432   0.518
    1   AR   Ar   70   0.047   1.436   1.566
    1   AR   Ar   71   2.841   0.738   2.645
    1   AR   Ar   72   4.487   1.256   1.269
    1   AR   Ar   73   3.149   0.242   4.204
    1   AR   Ar   74   1.122   0.545   3.367
    1   AR   Ar   75   2.563   0.752   5.233
    1   AR   Ar   76   2.369   0.569   1.659
    1   AR   Ar   77   1.371   5.731   5.726
    1   AR   Ar   78   0.115   5.322   5.662
    1   AR   Ar   79   3.527   6.903   5.209
    1   AR   Ar   80   3.611   4.887   5.842
    1   AR   Ar   81   1.919   6.244   2.059
    1   AR   Ar   82   6.878   5.540   1.372
    1   AR   Ar   83   0.929   3.260   1.483
    1   AR   Ar   84   0.556   4.896   1.092
    1   AR   Ar   85   0.778   3.036  -0.123
    1   AR   Ar   86   1.738   5.476   1.440
    1   AR   Ar   87   3.596   3.140   2.761
    1   AR   Ar   88   3.433   5.277   0.995
    1   AR   Ar   89   5.918   2.152   1.030
    1   AR   Ar   90   2.861   1.236   6.224
    1   AR   Ar   91   1.872   1.052   2.980
    1   AR   Ar   92   2.883   2.198   1.481
    1   AR   Ar   93   0.986   0.720   5.772
    1   AR   Ar   94   6.668   6.627   8.850
    1   AR   Ar   95   5.404   0.896   6.794
    1   AR   Ar   96   2.407   6.769   4.917
    1   AR   Ar   97   4.552   1.313  -1.699
    1   AR   Ar   98   1.674   4.592   3.992
    1   AR   Ar   99   6.669   6.566  -0.835
    1   AR   Ar  100   5.369   3.240  -2.488
    1   AR   Ar  101   3.656   6.039   3.112
    1   AR   Ar  102   4.104   1.843   2.571
    1   AR   Ar  103   2.031   4.181   1.783
    1   AR   Ar  104   3.479   0.295  -0.690
    1   AR   Ar  105   2.755   2.408   2.469
    1   AR   Ar  106   4.605   1.342   3.783
    1   AR   Ar  107   1.083   4.619   5.027
    1   AR   Ar  108   2.034   0.414   3.860
    1   AR   Ar  109   2.237   4.546   4.957
    1   AR   Ar  110   1.746   2.275   4.761
    1   AR   Ar  111   3.610   4.487   6.813
    1   AR   Ar  112   6.517   6.198   5.632
    1   AR   Ar  113   7.101   5.905  -1.514
    1   AR   Ar  114   2.703   0.212   0.201
    1   AR   Ar  115   0.622   4.554  -0.106
    1   AR   Ar  116   5.370   1.370   0.363
    1   AR   Ar  117   0.240   4.209   3.437
    1   AR   Ar  118   1.738   6.477   3.849
    1   AR   Ar  119   2.045   3.130   2.769
    1   AR   Ar  120   2.098   7.103   2.741
    1   AR   Ar  121   4.805   4.201   6.632
    1   AR   Ar  122   3.099   5.344   3.634
    1   AR   Ar  123   3.575   2.329   5.088
    1   AR   Ar  124   0.941   5.253   2.001
    1   AR   Ar  125   6.066   3.728   3.559
    1   AR   Ar  126   6.844   0.653   7.850
    1   AR   Ar  127   4.891   3.394   5.880
    1   AR   Ar  128   0.865   3.859   6.210
    1   AR   Ar  129   1.953   5.814   4.853
    1   AR   Ar  130   5.001   0.886  -5.017
    1   AR   Ar  131   3.822   6.369  -0.411
    1   AR   Ar  132   1.717   2.442   1.491
    1   AR   Ar  133   4.122   0.492   4.443
    1   AR   Ar  134   2.757   1.243   4.300
    1   AR   Ar  135   6.385   7.069   4.689
    1   AR   Ar  136   5.506   6.849   2.867
    1   AR   Ar  137   2.101   4.565   6.258
    1   AR   Ar  138   6.051   1.291   5.798
    1   AR   Ar  139   6.377   1.604   4.735
    1   AR   Ar  140   4.542   6.600   4.755
    1   AR   Ar  141   3.361   4.852   4.756
    1   AR   Ar  142   4.192   5.857   8.422
    1   AR   Ar  143   5.576   7.016   7.342
    1   AR   Ar  144   6.879   2.334   5.233
    1   AR   Ar  145   5.042   4.615  -1.258
    1   AR   Ar  146   3.929   2.286   3.806
    1   AR   Ar  147   5.102   4.379  -0.025
    1   AR   Ar  148   2.228   6.014  -0.608
    1   AR   Ar  149   0.213   2.052  -0.518
    1   AR   Ar  150   1.346   2.313   2.558
    1   AR   Ar  151   2.920   3.362   1.939
    1   AR   Ar  152   0.758   1.274  -0.975
    1   AR   Ar  153   5.571   0.562   3.557
    1   AR   Ar  154   4.782   3.046   3.722
    1   AR   Ar  155   6.308   3.396   5.314
    1   AR   Ar  156   2.946   3.915   2.996
    1   AR   Ar  157   2.970   5.541   6.399
    1   AR   Ar  158   0.885   2.426   6.764
    1   AR   Ar  159   4.318   0.527   5.561
    1   AR   Ar  160   1.375   1.189   4.263
    1   AR   Ar  161   4.983   4.722   3.415
    1   AR   Ar  162   4.068   5.255  -1.185
    1   AR   Ar  163   6.086   3.734   2.378
    1   AR   Ar  164   2.151   5.982   3.011
    1   AR   Ar  165   3.217   4.129   1.022
    1   AR   Ar  166   2.902   3.311   5.378
    1   AR   Ar  167   6.347   6.620   3.632
    1   AR   Ar  168   5.411   4.316  -2.343
    1   AR   Ar  169   4.108   4.042   3.547
    1   AR   Ar  170   2.697   2.302   5.960
    1   AR   Ar  171   4.676   5.451   4.151
    1   AR   Ar  172   3.971   3.235   4.740
    1   AR   Ar  173   1.324   1.688   7.574
    1   AR   Ar  174   3.019   6.027   4.497
    1   AR   Ar  175   2.331   6.812   7.571
    1   AR   Ar  176   3.287   3.156   3.836
    1   AR   Ar  177   0.064   4.224  -1.228
    1   AR   Ar  178   2.299   6.473   0.910
    1   AR   Ar  179   3.356   6.427   0.552
    1   AR   Ar  180   5.299   0.071  -7.573
    1   AR   Ar  181   0.604   6.279   1.859
    1   AR   Ar  182   1.159   6.659   2.909
    1   AR   Ar  183   4.877   5.420   1.426
    1   AR   Ar  184   4.159   5.304   0.228
    1   AR   Ar  185   3.240   3.930   4.450
    1   AR   Ar  186   2.788   6.654   3.563
    1   AR   Ar  187   3.913   6.658   3.880
    1   AR   Ar  188   3.305   1.001   1.808
    1   AR   Ar  189   6.040   2.469   5.821
    1   AR   Ar  190   1.089   0.242   4.349
    1   AR   Ar  191   3.989   5.743   5.118
    1   AR   Ar  192   3.944   3.396   6.275
    1   AR   Ar  193   3.219   6.424   1.731
    1   AR   Ar  194   4.794   6.160  -0.112
    1   AR   Ar  195   6.169   1.085   1.181
    1   AR   Ar  196   4.464   6.630   0.710
    1   AR   Ar  197   4.818   3.134   0.077
    1   AR   Ar  198   6.774   6.833   1.325
    1   AR   Ar  199   7.094   0.389   2.039
    1   AR   Ar  200   6.064   2.688   0.010
    1   AR   Ar  201   6.433   5.734   2.667
    1   AR   Ar  202   5.333   0.260   4.550
    1   AR   Ar  203   0.352   7.014   3.759
    1   AR   Ar  204   4.405   4.914   7.467
    1   AR   Ar  205   5.296   1.669   1.984
    1   AR   Ar  206   6.113   0.172   6.141
    1   AR   Ar  207   6.662   3.570   4.316
    1   AR   Ar  208   0.676   5.974   3.487
    1   AR   Ar  209   5.492   1.715  -1.950
    1   AR   Ar  210   2.030   0.863  -0.517
    1   AR   Ar  211   6.802   2.995   0.733
    1   AR   Ar  212   6.816   4.010   0.111
    1   AR   Ar  213   3.566   1.668   1.003
    1   AR   Ar  214   5.139   4.460   1.885
    1   AR   Ar  215   0.289   2.887   2.331
    1   AR   Ar  216   2.111   2.053  -0.495
    1   AR   Ar  217   5.216   2.140   3.979
    1   AR   Ar  218   5.036   2.739   5.096
    1   AR   Ar  219   4.244   4.061   2.432
    1   AR   Ar  220   4.340   4.619   1.022
    1   AR   Ar  221   6.792   5.706   3.782
    1   AR   Ar  222   5.192   6.760   6.077
    1   AR   Ar  223   0.004   1.233   5.580
    1   AR   Ar  224   5.303   1.583   4.857
    1   AR   Ar  225   6.597   2.312   2.608
    1   AR   Ar  226   2.121   3.595   4.015
    1   AR   Ar  227   1.143   2.710   3.517
    1   AR   Ar  228   6.212   0.923   2.418
    1   AR   Ar  229   6.067   4.317  -0.973
    1   AR   Ar  230   3.930   5.008   3.153
    1   AR   Ar  231   4.936   2.418   2.856
    1   AR   Ar  232   5.232   3.148   1.793
    1   AR   Ar  233   6.915   2.092   3.617
    1   AR   Ar  234   5.967   2.779   4.586
    1   AR   Ar  235   6.597   0.790   4.207
    1   AR   Ar  236   4.059   4.202   5.305
    1   AR   Ar  237   4.476   1.329   7.455
    1   AR   Ar  238   4.620   4.950   6.088
    1   AR   Ar  239   1.265   4.080  11.172
    1   AR   Ar  240   1.796   3.319   6.574
    1   AR   Ar  241   1.458   6.886   0.163
    1   AR   Ar  242   5.886   6.375   1.950
    1   AR   Ar  243   4.438   6.385   1.866
    1   AR   Ar  244   6.298   6.056   0.164
    1   AR   Ar  245   3.375   1.139   3.472
    1   AR   Ar  246   5.089   6.473  -1.295
    1   AR   Ar  247   0.012   3.895   1.621
    1   AR   Ar  248   5.478   5.272  -0.334
    1   AR   Ar  249   3.416   0.215   1.040
    1   AR   Ar  250   5.131   6.558   3.833
    1   AR   Ar  251   5.156   4.170   5.128
    1   AR   Ar  252   2.775   4.895   2.646
    1   AR   Ar  253   4.926   2.369   8.442
    1   AR   Ar  254   4.509   3.907  12.464
    1   AR   Ar  255   5.036   0.295   8.882
    1   AR   Ar  256   5.747   5.693   3.682
    7.12000  7.12000 12.00000
Argon-slab step 5455
  256
    1   AR   Ar    1   4.399   3.680  -2.576
    1   AR   Ar    2   5.513   6.304   0.642
    1   AR   Ar    3   4.482   3.846  -0.702
    1   AR   Ar    4   2.682   1.236   0.824
    1   AR   Ar    5   6.850   5.314  -0.662
    1   AR   Ar    6   0.951   1.315   2.479
    1   AR   Ar    7   6.286   4.828   3.329
    1   AR   Ar    8   6.467   3.395  -0.791
    1   AR   Ar    9   0.635   5.889   4.798
    1   AR   Ar   10   5.813   4.394   5.937
    1   AR   Ar   11   1.040   6.931   5.315
    1   AR   Ar   12   0.217   1.429   4.255
    1   AR   Ar   13   0.081   0.513   4.930
    1   AR   Ar   14   3.769   0.747   6.660
    1   AR   Ar   15   2.484   5.723   9.731
    1   AR   Ar   16   0.120   0.101   6.013
    1   AR   Ar   17   5.887   3.353   1.021
    1   AR   Ar   18   6.573   4.594  -2.287
    1   AR   Ar   19   5.483   4.832   0.962
    1   AR   Ar   20   6.585   3.536  -2.298
    1   AR   Ar   21   2.419   1.520   2.084
    1   AR   Ar   22   5.029   0.140   1.789
    1   AR   Ar   23   0.926   5.973   0.919
    1   AR   Ar   24   6.049   2.603   3.419
    1   AR   Ar   25   0.944   2.847   5.681
    1   AR   Ar   26   5.871   6.006   4.749
    1   AR   Ar   27   1.193   0.103   1.566
    1   AR   Ar   28   2.327   2.645   3.643
    1   AR   Ar   29   5.714   0.959   8.072
    1   AR   Ar   30   7.052   0.950   3.292
    1   AR   Ar   31   1.178   0.494   6.999
    1   AR   Ar   32   0.960   1.674   6.073
    1   AR   Ar   33   6.680   4.515   0.941
    1   AR   Ar   34   1.797   4.951   2.905
    1   AR   Ar   35   5.290   5.423   2.619
    1   AR   Ar   36   3.985   2.328  -3.675
    1   AR   Ar   37   4.395   3.565   1.417
    1   AR   Ar   38   5.713   4.663   4.288
    1   AR   Ar   39   0.318   2.753   4.327
    1   AR   Ar   40   0.749   4.175   2.283
    1   AR   Ar   41   0.815   1.665   3.467
    1   AR   Ar   42   5.349   5.731   5.717
    1   AR   Ar   43   0.019   2.743   6.186
    1   AR   Ar   44   1.289   3.693   3.216
    1   AR   Ar   45   1.827   3.673   5.566
    1   AR   Ar   46   6.179   5.208   6.560
    1   AR   Ar   47   2.954   3.559   6.624
    1   AR   Ar   48   6.970   2.976   7.156
    1   AR   Ar   49   0.497   1.294   0.487
    1   AR   Ar   50   2.681   4.092   0.096
    1   AR   Ar   51   5.152   3.548   2.830
    1   AR   Ar   52   5.584   3.647  -1.542
    1   AR   Ar   53   4.575   0.234   3.414
    1   AR   Ar   54   6.848   6.827   2.798
    1   AR   Ar   55   6.771   4.582   2.414
    1   AR   Ar   56   5.692   1.569   3.051
    1   AR   Ar   57   4.067   5.067   2.062
    1   AR   Ar   58   1.268   3.235   4.376
    1   AR   Ar   59   2.795   5.776   5.439
    1   AR   Ar   60   0.682   5.086   2.941
    1   AR   Ar   61   0.034   4.434   6.494
    1   AR   Ar   62   6.819   4.286   5.119
    1   AR   Ar   63   2.106   2.171   7.045
    1   AR   Ar   64   0.754   5.146   4.085
    1   AR   Ar   65   4.044   0.782   2.725
    1   AR   Ar   66   1.507   1.329   1.331
    1   AR   Ar   67   4.520   0.721  -0.556
    1   AR   Ar   68   6.818   0.758   0.402
    1   AR   Ar   69   2.784   2.442   0.524
    1   AR   Ar   70   0.037   1.417   1.538
    1   AR   Ar   71   2.847   0.735   2.661
    1   AR   Ar   72   4.505   1.269   1.281
    1   AR   Ar   73   3.111   0.245   4.209
    1   AR   Ar   74   1.116   0.535   3.374
    1   AR   Ar   75   2.535   0.749   5.265
    1   AR   Ar   76   2.395   0.580   1.667
    1   AR   Ar   77   1.343   5.717   5.721
    1   AR   Ar   78   0.105   5.308   5.668
    1   AR   Ar   79   3.555   6.912   5.212
    1   AR   Ar   80   3.627   4.862   5.874
    1   AR   Ar   81   1.879   6.235   2.049
    1   AR   Ar   82   6.893   5.582   1.364
    1   AR   Ar   83   0.934   3.267   1.511
    1   AR   Ar   84   0.577   4.924   1.077
    1   AR   Ar   85   0.713   3.052  -0.155
    1   AR   Ar   86   1.754   5.483   1.449
    1   AR   Ar   87   3.597   3.136   2.757
    1   AR   Ar   88   3.413   5.263   0.973
    1   AR   Ar   89   5.891   2.155   1.009
    1   AR   Ar   90   2.846   1.209   6.242
    1   AR   Ar   91   1.865   1.070   2.993
    1   AR   Ar   92   2.928   2.220   1.492
    1   AR   Ar   93   0.944   0.731   5.748
    1   AR   Ar   94   6.644   6.632   8.858
    1   AR   Ar   95   5.454   0.878   6.823
    1   AR   Ar   96   2.394   6.721   4.950
    1   AR   Ar   97   4.580   1.318  -1.689
    1   AR   Ar   98   1.670   4.572   3.991
    1   AR   Ar   99   6.666   6.573  -0.866
    1   AR   Ar  100   5.385   3.230  -2.495
    1   AR   Ar  101   3.665   6.021   3.130
    1   AR   Ar  102   4.121   1.856   2.559
    1   AR   Ar  103   2.033   4.209   1.783
    1   AR   Ar  104   3.482   0.271  -0.683
    1   AR   Ar  105   2.766   2.436   2.488
    1   AR   Ar  106   4.606   1.338   3.816
    1   AR   Ar  107   1.081   4.617   4.997
    1   AR   Ar  108   2.024   0.397   3.834
    1   AR   Ar  109   2.244   4.522   4.962
    1   AR   Ar  110   1.728   2.287   4.794
    1   AR   Ar  111   3.608   4.488   6.818
    1   AR   Ar  112   6.513   6.202   5.650
    1   AR   Ar  113   0.014   5.941  -1.515
    1   AR   Ar  114   2.712   0.226   0.198
    1   AR   Ar  115   0.604   4.545  -0.133
    1   AR   Ar  116   5.388   1.420   0.350
    1   AR   Ar  117   0.242   4.224   3.491
    1   AR   Ar  118   1.741   6.482   3.879
    1   AR   Ar  119   2.019   3.122   2.764
    1   AR   Ar  120   2.104   7.106   2.714
    1   AR   Ar  121   4.785   4.186   6.675
    1   AR   Ar  122   3.111   5.318   3.622
    1   AR   Ar  123   3.524   2.335   5.124
    1   AR   Ar  124   0.961   5.242   2.023
    1   AR   Ar  125   6.074   3.787   3.549
    1   AR   Ar  126   6.880   0.647   7.840
    1   AR   Ar  127   4.879   3.398   5.889
    1   AR   Ar  128   0.919   3.841   6.203
    1   AR   Ar  129   1.919   5.812   4.842
    1   AR   Ar  130   5.002   0.879  -5.017
    1   AR   Ar  131   3.798   6.376  -0.398
    1   AR   Ar  132   1.727   2.446   1.509
    1   AR   Ar  133   4.162   0.485   4.415
    1   AR   Ar  134   2.754   1.259   4.312
    1   AR   Ar  135   6.358   7.091   4.667
    1   AR   Ar  136   5.507   6.847   2.871
    1   AR   Ar  137   2.098   4.569   6.253
    1   AR   Ar  138   6.055   1.297   5.803
    1   AR   Ar  139   6.397   1.624   4.748
    1   AR   Ar  140   4.526   6.608   4.738
    1   AR   Ar  141   3.360   4.862   4.738
    1   AR   Ar  142   4.159   5.831   8.437
    1   AR   Ar  143   5.593   7.006   7.350
    1   AR   Ar  144   6.890   2.321   5.242
    1   AR   Ar  145   4.995   4.594  -1.271
    1   AR   Ar  146   3.943   2.238   3.860
    1   AR   Ar  147   5.063   4.381  -0.008
    1   AR   Ar  148   2.210   6.020  -0.582
    1   AR   Ar  149   0.194   2.026  -0.507
    1   AR   Ar  150   1.349   2.301   2.571
    1   AR   Ar  151   2.937   3.356   1.946
    1   AR   Ar  152   0.750   1.290  -0.980
    1   AR   Ar  153   5.603   0.557   3.590
    1   AR   Ar  154   4.751   3.074   3.738
    1   AR   Ar  155   6.327   3.415   5.330
    1   AR   Ar  156   2.955   3.891   2.985
    1   AR   Ar  157   2.959   5.579   6.425
    1   AR   Ar  158   0.920   2.400   6.756
    1   AR   Ar  159   4.333   0.502   5.550
    1   AR   Ar  160   1.375   1.213   4.266
    1   AR   Ar  161   4.980   4.688   3.415
    1   AR   Ar  162   4.064   5.254  -1.226
    1   AR   Ar  163   6.097   3.750   2.402
    1   AR   Ar  164   2.140   5.987   3.019
    1   AR   Ar  165   3.221   4.146   1.017
    1   AR   Ar  166   2.905   3.310   5.352
    1   AR   Ar  167   6.383   6.630   3.658
    1   AR   Ar  168   5.392   4.300  -2.329
    1   AR   Ar  169   4.122   4.024   3.533
    1   AR   Ar  170   2.694   2.288   5.927
    1   AR   Ar  171   4.670   5.464   4.165
    1   AR   Ar  172   3.961   3.247   4.730
    1   AR   Ar  173   1.320   1.660   7.601
    1   AR   Ar  174   3.016   6.016   4.471
    1   AR   Ar  175   2.280   6.813   7.569
    1   AR   Ar  176   3.308   3.155   3.809
    1   AR   Ar  177   0.036   4.225  -1.232
    1   AR   Ar  178   2.270   6.480   0.947
    1   AR   Ar  179   3.358   6.422   0.548
    1   AR   Ar  180   5.314   0.082  -7.562
    1   AR   Ar  181   0.627   6.286   1.893
    1   AR   Ar  182   1.139   6.669   2.921
    1   AR   Ar  183   4.879   5.418   1.418
    1   AR   Ar  184   4.157   5.282   0.181
    1   AR   Ar  185   3.229   3.915   4.474
    1   AR   Ar  186   2.810   6.665   3.574
    1   AR   Ar  187   3.919   6.656   3.898
    1   AR   Ar  188   3.309   0.978   1.794
    1   AR   Ar  189   6.047   2.467   5.886
    1   AR   Ar  190   1.130   0.257   4.349
    1   AR   Ar  191   3.995   5.771   5.086
    1   AR   Ar  192   3.927   3.383   6.257
    1   AR   Ar  193   3.238   6.399   1.739
    1   AR   Ar  194   4.788   6.132  -0.149
    1   AR   Ar  195   6.149   1.050   1.159
    1   AR   Ar  196   4.458   6.610   0.742
    1   AR   Ar  197   4.808   3.102   0.080
    1   AR   Ar  198   6.766   6.779   1.330
    1   AR   Ar  199   7.097   0.417   2.041
    1   AR   Ar  200   6.041   2.675   0.021
    1   AR   Ar  201   6.443   5.726   2.647
    1   AR   Ar  202   5.351   0.264   4.529
    1   AR   Ar  203   0.343   6.974   3.743
    1   AR   Ar  204   4.431   4.925   7.510
    1   AR   Ar  205   5.296   1.698   1.960
    1   AR   Ar  206   6.080   0.178   6.161
    1   AR   Ar  207   6.690   3.620   4.297
    1   AR   Ar  208   0.686   5.976   3.481
    1   AR   Ar  209   5.479   1.716  -1.968
    1   AR   Ar  210   2.013   0.880  -0.480
    1   AR   Ar  211   6.785   3.007   0.724
    1   AR   Ar  212   6.822   4.023   0.117
    1   AR   Ar  213   3.545   1.681   0.989
    1   AR   Ar  214   5.146   4.490   1.910
    1   AR   Ar  215   0.307   2.902   2.340
    1   AR   Ar  216   2.099   2.088  -0.470
    1   AR   Ar  217   5.198   2.131   4.002
    1   AR   Ar  218   5.040   2.705   5.098
    1   AR   Ar  219   4.275   4.075   2.439
    1   AR   Ar  220   4.342   4.628   1.020
    1   AR   Ar  221   6.780   5.724   3.762
    1   AR   Ar  222   5.184   6.740   6.071
    1   AR   Ar  223   7.112   1.227   5.586
    1   AR   Ar  224   5.315   1.576   4.849
    1   AR   Ar  225   6.587   2.335   2.612
    1   AR   Ar  226   2.146   3.578   4.015
    1   AR   Ar  227   1.150   2.693   3.543
    1   AR   Ar  228   6.190   0.937   2.422
    1   AR   Ar  229   6.048   4.294  -0.957
    1   AR   Ar  230   3.928   4.972   3.144
    1   AR   Ar  231   4.945   2.410   2.866
    1   AR   Ar  232   5.251   3.141   1.836
    1   AR   Ar  233   6.928   2.089   3.633
    1   AR   Ar  234   5.941   2.727   4.570
    1   AR   Ar  235   6.560   0.772   4.236
    1   AR   Ar  236   4.041   4.242   5.276
    1   AR   Ar  237   4.457   1.313   7.478
    1   AR   Ar  238   4.592   4.927   6.049
    1   AR   Ar  239   1.259   4.068  11.164
    1   AR   Ar  240   1.797   3.295   6.567
    1   AR   Ar  241   1.458   6.865   0.141
    1   AR   Ar  242   5.907   6.374   1.980
    1   AR   Ar  243   4.404   6.390   1.858
    1   AR   Ar  244   6.295   6.049   0.142
    1   AR   Ar  245   3.369   1.170   3.468
    1   AR   Ar  246   5.100   6.465  -1.287
    1   AR   Ar  247   7.115   3.927   1.580
    1   AR   Ar  248   5.466   5.251  -0.339
    1   AR   Ar  249   3.398   0.251   1.012
    1   AR   Ar  250   5.108   6.570   3.794
    1   AR   Ar  251   5.179   4.155   5.101
    1   AR   Ar  252   2.766   4.890   2.641
    1   AR   Ar  253   4.943   2.379   8.414
    1   AR   Ar  254   4.502   3.902  12.485
    1   AR   Ar  255   5.034   0.290   8.903
    1   AR   Ar  256   5.724   5.708   3.723
    7.12000  7.12000 12.00000
Argon-slab step 5460
  256
    1   AR   Ar    1   4.406   3.702  -2.560
    1   AR   Ar    2   5.537   6.378   0.663
    1   AR   Ar    3   4.506   3.885  -0.718
    1   AR   Ar    4   2.695   1.261   0.851
    1   AR   Ar    5   6.848   5.324  -0.657
    1   AR   Ar    6   0.955   1.365   2.483
    1   AR   Ar    7   6.279   4.827   3.355
    1   AR   Ar    8   6.488   3.393  -0.761
    1   AR   Ar    9   0.640   5.870   4.805
    1   AR   Ar   10   5.806   4.407   5.940
    1   AR   Ar   11   1.030   6.941   5.313
    1   AR   Ar   12   0.184   1.436   4.261
    1   AR   Ar   13   0.100   0.536   4.925
    1   AR   Ar   14   3.795   0.754   6.635
    1   AR   Ar   15   2.496   5.710   9.735
    1   AR   Ar   16   0.071   0.091   6.003
    1   AR   Ar   17   5.901   3.369   0.975
    1   AR   Ar   18   6.567   4.580  -2.313
    1   AR   Ar   19   5.468   4.852   0.944
    1   AR   Ar   20   6.582   3.523  -2.271
    1   AR   Ar   21   2.420   1.534   2.075
    1   AR   Ar   22   5.032   0.127   1.830
    1   AR   Ar   23   0.916   5.961   0.907
    1   AR   Ar   24   6.041   2.584   3.436
    1   AR   Ar   25   0.925   2.833   5.708
    1   AR   Ar   26   5.870   6.011   4.687
    1   AR   Ar   27   1.187   0.071   1.574
    1   AR   Ar   28   2.349   2.630   3.605
    1   AR   Ar   29   5.695   0.935   8.071
    1   AR   Ar   30   7.040   0.953   3.287
    1   AR   Ar   31   1.179   0.517   7.005
    1   AR   Ar   32   0.987   1.686   6.085
    1   AR   Ar   33   6.672   4.517   0.938
    1   AR   Ar   34   1.780   4.944   2.920
    1   AR   Ar   35   5.318   5.442   2.612
    1   AR   Ar   36   3.969   2.302  -3.680
    1   AR   Ar   37   4.389   3.557   1.414
    1   AR   Ar   38   5.739   4.680   4.299
    1   AR   Ar   39   0.330   2.730   4.350
    1   AR   Ar   40   0.749   4.178   2.268
    1   AR   Ar   41   0.793   1.662   3.449
    1   AR   Ar   42   5.398   5.731   5.741
    1   AR   Ar   43   0.010   2.733   6.168
    1   AR   Ar   44   1.363   3.703   3.254
    1   AR   Ar   45   1.824   3.645   5.591
    1   AR   Ar   46   6.209   5.219   6.560
    1   AR   Ar   47   2.955   3.565   6.626
    1   AR   Ar   48   6.978   2.988   7.166
    1   AR   Ar   49   0.502   1.315   0.465
    1   AR   Ar   50   2.693   4.097   0.118
    1   AR   Ar   51   5.123   3.567   2.832
    1   AR   Ar   52   5.594   3.650  -1.567
    1   AR   Ar   53   4.589   0.218   3.421
    1   AR   Ar   54   6.830   6.835   2.794
    1   AR   Ar   55   6.776   4.581   2.438
    1   AR   Ar   56   5.701   1.585   3.024
    1   AR   Ar   57   4.063   5.098   2.048
    1   AR   Ar   58   1.272   3.239   4.409
    1   AR   Ar   59   2.811   5.754   5.435
    1   AR   Ar   60   0.673   5.071   2.950
    1   AR   Ar   61   0.026   4.425   6.515
    1   AR   Ar   62   6.816   4.303   5.128
    1   AR   Ar   63   2.060   2.158   7.043
    1   AR   Ar   64   0.771   5.112   4.073
    1   AR   Ar   65   4.024   0.809   2.738
    1   AR   Ar   66   1.509   1.319   1.324
    1   AR   Ar   67   4.527   0.721  -0.529
    1   AR   Ar   68   6.837   0.773   0.406
    1   AR   Ar   69   2.782   2.452   0.521
    1   AR   Ar   70   0.019   1.392   1.526
    1   AR   Ar   71   2.843   0.715   2.689
    1   AR   Ar   72   4.524   1.281   1.293
    1   AR   Ar   73   3.076   0.254   4.221
    1   AR   Ar   74   1.097   0.524   3.376
    1   AR   Ar   75   2.506   0.744   5.296
    1   AR   Ar   76   2.412   0.582   1.672
    1   AR   Ar   77   1.313   5.703   5.717
    1   AR   Ar   78   0.096   5.294   5.673
    1   AR   Ar   79   3.580   6.919   5.213
    1   AR   Ar   80   3.620   4.852   5.907
    1   AR   Ar   81   1.838   6.241   2.043
    1   AR   Ar   82   6.907   5.625   1.357
    1   AR   Ar   83   0.943   3.260   1.538
    1   AR   Ar   84   0.599   4.948   1.061
    1   AR   Ar   85   0.646   3.068  -0.187
    1   AR   Ar   86   1.775   5.479   1.445
    1   AR   Ar   87   3.606   3.127   2.752
    1   AR   Ar   88   3.393   5.251   0.952
    1   AR   Ar   89   5.864   2.159   0.990
    1   AR   Ar   90   2.830   1.184   6.259
    1   AR   Ar   91   1.853   1.085   3.004
    1   AR   Ar   92   2.965   2.250   1.515
    1   AR   Ar   93   0.904   0.740   5.722
    1   AR   Ar   94   6.619   6.638   8.866
    1   AR   Ar   95   5.495   0.861   6.854
    1   AR   Ar   96   2.382   6.681   4.983
    1   AR   Ar   97   4.603   1.320  -1.676
    1   AR   Ar   98   1.666   4.552   3.989
    1   AR   Ar   99   6.660   6.582  -0.892
    1   AR   Ar  100   5.403   3.218  -2.504
    1   AR   Ar  101   3.676   6.005   3.142
    1   AR   Ar  102   4.134   1.867   2.546
    1   AR   Ar  103   2.036   4.237   1.784
    1   AR   Ar  104   3.485   0.247  -0.675
    1   AR   Ar  105   2.778   2.464   2.515
    1   AR   Ar  106   4.603   1.326   3.846
    1   AR   Ar  107   1.080   4.615   4.969
    1   AR   Ar  108   2.024   0.380   3.808
    1   AR   Ar  109   2.251   4.499   4.966
    1   AR   Ar  110   1.708   2.300   4.826
    1   AR   Ar  111   3.605   4.487   6.827
    1   AR   Ar  112   6.509   6.207   5.668
    1   AR   Ar  113   0.050   5.973  -1.521
    1   AR   Ar  114   2.719   0.239   0.193
    1   AR   Ar  115   0.586   4.536  -0.160
    1   AR   Ar  116   5.405   1.470   0.338
    1   AR   Ar  117   0.248   4.240   3.483
    1   AR   Ar  118   1.742   6.487   3.911
    1   AR   Ar  119   1.995   3.116   2.754
    1   AR   Ar  120   2.113   7.102   2.694
    1   AR   Ar  121   4.765   4.163   6.725
    1   AR   Ar  122   3.105   5.295   3.612
    1   AR   Ar  123   3.471   2.342   5.159
    1   AR   Ar  124   0.980   5.233   2.038
    1   AR   Ar  125   6.072   3.847   3.529
    1   AR   Ar  126   6.913   0.640   7.831
    1   AR   Ar  127   4.874   3.404   5.895
    1   AR   Ar  128   0.973   3.822   6.194
    1   AR   Ar  129   1.881   5.806   4.826
    1   AR   Ar  130   5.003   0.872  -5.017
    1   AR   Ar  131   3.774   6.381  -0.389
    1   AR   Ar  132   1.738   2.450   1.528
    1   AR   Ar  133   4.203   0.478   4.388
    1   AR   Ar  134   2.748   1.278   4.325
    1   AR   Ar  135   6.324   7.083   4.659
    1   AR   Ar  136   5.510   6.846   2.872
    1   AR   Ar  137   2.095   4.573   6.246
    1   AR   Ar  138   6.057   1.302   5.807
    1   AR   Ar  139   6.409   1.644   4.760
    1   AR   Ar  140   4.515   6.619   4.724
    1   AR   Ar  141   3.358   4.885   4.722
    1   AR   Ar  142   4.127   5.805   8.452
    1   AR   Ar  143   5.610   6.997   7.356
    1   AR   Ar  144   6.907   2.316   5.253
    1   AR   Ar  145   4.951   4.575  -1.284
    1   AR   Ar  146   3.959   2.189   3.914
    1   AR   Ar  147   5.023   4.379   0.015
    1   AR   Ar  148   2.193   6.027  -0.556
    1   AR   Ar  149   0.173   2.003  -0.492
    1   AR   Ar  150   1.352   2.288   2.583
    1   AR   Ar  151   2.937   3.369   1.946
    1   AR   Ar  152   0.746   1.302  -0.985
    1   AR   Ar  153   5.638   0.554   3.618
    1   AR   Ar  154   4.755   3.089   3.749
    1   AR   Ar  155   6.342   3.429   5.349
    1   AR   Ar  156   2.960   3.870   2.977
    1   AR   Ar  157   2.948   5.615   6.458
    1   AR   Ar  158   0.957   2.383   6.755
    1   AR   Ar  159   4.349   0.475   5.538
    1   AR   Ar  160   1.378   1.247   4.270
    1   AR   Ar  161   4.980   4.655   3.415
    1   AR   Ar  162   4.062   5.253  -1.266
    1   AR   Ar  163   6.110   3.766   2.423
    1   AR   Ar  164   2.131   5.991   3.030
    1   AR   Ar  165   3.228   4.164   1.014
    1   AR   Ar  166   2.908   3.308   5.328
    1   AR   Ar  167   6.410   6.648   3.692
    1   AR   Ar  168   5.373   4.287  -2.317
    1   AR   Ar  169   4.134   4.000   3.523
    1   AR   Ar  170   2.688   2.274   5.909
    1   AR   Ar  171   4.664   5.478   4.178
    1   AR   Ar  172   3.957   3.257   4.721
    1   AR   Ar  173   1.318   1.640   7.634
    1   AR   Ar  174   3.018   6.006   4.437
    1   AR   Ar  175   2.228   6.814   7.566
    1   AR   Ar  176   3.329   3.149   3.778
    1   AR   Ar  177   0.002   4.240  -1.246
    1   AR   Ar  178   2.242   6.487   0.985
    1   AR   Ar  179   3.358   6.413   0.547
    1   AR   Ar  180   5.314   0.069  -7.522
    1   AR   Ar  181   0.649   6.295   1.931
    1   AR   Ar  182   1.113   6.677   2.936
    1   AR   Ar  183   4.871   5.434   1.421
    1   AR   Ar  184   4.158   5.261   0.131
    1   AR   Ar  185   3.211   3.899   4.497
    1   AR   Ar  186   2.829   6.669   3.579
    1   AR   Ar  187   3.922   6.654   3.917
    1   AR   Ar  188   3.326   0.961   1.776
    1   AR   Ar  189   6.051   2.465   5.951
    1   AR   Ar  190   1.167   0.260   4.358
    1   AR   Ar  191   3.997   5.796   5.055
    1   AR   Ar  192   3.906   3.371   6.239
    1   AR   Ar  193   3.256   6.375   1.746
    1   AR   Ar  194   4.785   6.103  -0.188
    1   AR   Ar  195   6.126   1.015   1.141
    1   AR   Ar  196   4.449   6.591   0.777
    1   AR   Ar  197   4.800   3.070   0.084
    1   AR   Ar  198   6.759   6.724   1.335
    1   AR   Ar  199   7.101   0.448   2.043
    1   AR   Ar  200   6.017   2.662   0.032
    1   AR   Ar  201   6.453   5.717   2.629
    1   AR   Ar  202   5.362   0.267   4.514
    1   AR   Ar  203   0.331   6.942   3.732
    1   AR   Ar  204   4.456   4.937   7.551
    1   AR   Ar  205   5.297   1.728   1.936
    1   AR   Ar  206   6.050   0.186   6.182
    1   AR   Ar  207   6.725   3.665   4.285
    1   AR   Ar  208   0.670   5.998   3.479
    1   AR   Ar  209   5.472   1.720  -1.987
    1   AR   Ar  210   1.997   0.897  -0.442
    1   AR   Ar  211   6.778   3.018   0.713
    1   AR   Ar  212   6.828   4.027   0.109
    1   AR   Ar  213   3.545   1.690   0.966
    1   AR   Ar  214   5.152   4.517   1.937
    1   AR   Ar  215   0.328   2.921   2.348
    1   AR   Ar  216   2.088   2.122  -0.444
    1   AR   Ar  217   5.185   2.131   4.021
    1   AR   Ar  218   5.041   2.670   5.098
    1   AR   Ar  219   4.304   4.087   2.447
    1   AR   Ar  220   4.341   4.633   1.017
    1   AR   Ar  221   6.779   5.736   3.736
    1   AR   Ar  222   5.174   6.721   6.065
    1   AR   Ar  223   7.099   1.233   5.601
    1   AR   Ar  224   5.327   1.565   4.846
    1   AR   Ar  225   6.579   2.353   2.610
    1   AR   Ar  226   2.180   3.569   4.014
    1   AR   Ar  227   1.158   2.671   3.564
    1   AR   Ar  228   6.171   0.946   2.422
    1   AR   Ar  229   6.013   4.296  -0.995
    1   AR   Ar  230   3.932   4.934   3.130
    1   AR   Ar  231   4.958   2.405   2.878
    1   AR   Ar  232   5.271   3.131   1.882
    1   AR   Ar  233   6.938   2.091   3.644
    1   AR   Ar  234   5.920   2.674   4.551
    1   AR   Ar  235   6.516   0.771   4.238
    1   AR   Ar  236   4.034   4.268   5.237
    1   AR   Ar  237   4.447   1.328   7.471
    1   AR   Ar  238   4.575   4.912   6.003
    1   AR   Ar  239   1.254   4.056  11.155
    1   AR   Ar  240   1.798   3.269   6.562
    1   AR   Ar  241   1.460   6.844   0.120
    1   AR   Ar  242   5.927   6.375   2.006
    1   AR   Ar  243   4.368   6.392   1.851
    1   AR   Ar  244   6.306   6.036   0.110
    1   AR   Ar  245   3.366   1.202   3.465
    1   AR   Ar  246   5.082   6.458  -1.302
    1   AR   Ar  247   7.103   3.948   1.548
    1   AR   Ar  248   5.456   5.237  -0.346
    1   AR   Ar  249   3.382   0.288   0.986
    1   AR   Ar  250   5.086   6.577   3.761
    1   AR   Ar  251   5.199   4.138   5.075
    1   AR   Ar  252   2.766   4.887   2.633
    1   AR   Ar  253   4.961   2.389   8.385
    1   AR   Ar  254   4.495   3.898  12.506
    1   AR   Ar  255   5.034   0.287   8.923
    1   AR   Ar  256   5.697   5.720   3.760
    7.12000  7.12000 12.00000
Argon-slab step 5465
  256
    1   AR   Ar    1   4.413   3.724  -2.543
    1   AR   Ar    2   5.553   6.455   0.690
    1   AR   Ar    3   4.523   3.914  -0.733
    1   AR   Ar    4   2.692   1.278   0.876
    1   AR   Ar    5   6.846   5.334  -0.653
    1   AR   Ar    6   0.954   1.404   2.479
    1   AR   Ar    7   6.271   4.833   3.380
    1   AR   Ar    8   6.511   3.388  -0.730
    1   AR   Ar    9   0.645   5.854   4.813
    1   AR   Ar   10   5.798   4.419   5.942
    1   AR   Ar   11   1.020   6.943   5.310
    1   AR   Ar   12   0.163   1.433   4.279
    1   AR   Ar   13   0.129   0.547   4.916
    1   AR   Ar   14   3.822   0.762   6.609
    1   AR   Ar   15   2.508   5.696   9.739
    1   AR   Ar   16   0.020   0.080   5.991
    1   AR   Ar   17   5.903   3.390   0.933
    1   AR   Ar   18   6.561   4.567  -2.338
    1   AR   Ar   19   5.465   4.860   0.916
    1   AR   Ar   20   6.577   3.509  -2.242
    1   AR   Ar   21   2.417   1.551   2.068
    1   AR   Ar   22   5.036   0.114   1.871
    1   AR   Ar   23   0.907   5.952   0.896
    1   AR   Ar   24   6.024   2.570   3.459
    1   AR   Ar   25   0.928   2.841   5.731
    1   AR   Ar   26   5.871   6.020   4.637
    1   AR   Ar   27   1.183   0.039   1.583
    1   AR   Ar   28   2.372   2.609   3.568
    1   AR   Ar   29   5.675   0.910   8.068
    1   AR   Ar   30   7.030   0.951   3.288
    1   AR   Ar   31   1.180   0.541   7.011
    1   AR   Ar   32   1.014   1.694   6.088
    1   AR   Ar   33   6.649   4.543   0.931
    1   AR   Ar   34   1.758   4.936   2.966
    1   AR   Ar   35   5.346   5.460   2.604
    1   AR   Ar   36   3.953   2.277  -3.685
    1   AR   Ar   37   4.382   3.551   1.412
    1   AR   Ar   38   5.772   4.668   4.312
    1   AR   Ar   39   0.340   2.706   4.373
    1   AR   Ar   40   0.751   4.180   2.255
    1   AR   Ar   41   0.774   1.659   3.432
    1   AR   Ar   42   5.449   5.728   5.765
    1   AR   Ar   43   7.119   2.723   6.153
    1   AR   Ar   44   1.430   3.720   3.296
    1   AR   Ar   45   1.825   3.618   5.609
    1   AR   Ar   46   6.208   5.204   6.539
    1   AR   Ar   47   2.951   3.572   6.627
    1   AR   Ar   48   6.987   3.002   7.180
    1   AR   Ar   49   0.523   1.349   0.445
    1   AR   Ar   50   2.704   4.101   0.138
    1   AR   Ar   51   5.097   3.587   2.839
    1   AR   Ar   52   5.598   3.638  -1.594
    1   AR   Ar   53   4.598   0.215   3.423
    1   AR   Ar   54   6.814   6.842   2.784
    1   AR   Ar   55   6.785   4.584   2.462
    1   AR   Ar   56   5.705   1.607   3.005
    1   AR   Ar   57   4.060   5.095   2.064
    1   AR   Ar   58   1.274   3.246   4.449
    1   AR   Ar   59   2.827   5.729   5.430
    1   AR   Ar   60   0.659   5.053   2.970
    1   AR   Ar   61   0.017   4.416   6.535
    1   AR   Ar   62   6.817   4.328   5.140
    1   AR   Ar   63   2.036   2.173   7.021
    1   AR   Ar   64   0.764   5.103   4.058
    1   AR   Ar   65   4.005   0.835   2.747
    1   AR   Ar   66   1.496   1.318   1.373
    1   AR   Ar   67   4.533   0.722  -0.503
    1   AR   Ar   68   6.842   0.775   0.407
    1   AR   Ar   69   2.777   2.462   0.514
    1   AR   Ar   70   0.000   1.367   1.514
    1   AR   Ar   71   2.840   0.696   2.719
    1   AR   Ar   72   4.543   1.292   1.305
    1   AR   Ar   73   3.044   0.269   4.241
    1   AR   Ar   74   1.068   0.516   3.372
    1   AR   Ar   75   2.478   0.737   5.325
    1   AR   Ar   76   2.418   0.573   1.674
    1   AR   Ar   77   1.281   5.688   5.713
    1   AR   Ar   78   0.088   5.279   5.678
    1   AR   Ar   79   3.603   6.924   5.210
    1   AR   Ar   80   3.589   4.855   5.936
    1   AR   Ar   81   1.795   6.260   2.044
    1   AR   Ar   82   6.921   5.667   1.352
    1   AR   Ar   83   0.953   3.251   1.563
    1   AR   Ar   84   0.620   4.969   1.044
    1   AR   Ar   85   0.577   3.084  -0.218
    1   AR   Ar   86   1.800   5.464   1.428
    1   AR   Ar   87   3.624   3.113   2.746
    1   AR   Ar   88   3.373   5.241   0.933
    1   AR   Ar   89   5.839   2.166   0.975
    1   AR   Ar   90   2.816   1.163   6.266
    1   AR   Ar   91   1.847   1.105   3.012
    1   AR   Ar   92   2.995   2.289   1.546
    1   AR   Ar   93   0.867   0.747   5.697
    1   AR   Ar   94   6.594   6.644   8.874
    1   AR   Ar   95   5.498   0.846   6.890
    1   AR   Ar   96   2.373   6.650   5.016
    1   AR   Ar   97   4.618   1.318  -1.660
    1   AR   Ar   98   1.663   4.531   3.987
    1   AR   Ar   99   6.650   6.595  -0.912
    1   AR   Ar  100   5.421   3.203  -2.516
    1   AR   Ar  101   3.688   5.991   3.147
    1   AR   Ar  102   4.151   1.872   2.535
    1   AR   Ar  103   2.038   4.265   1.786
    1   AR   Ar  104   3.486   0.226  -0.665
    1   AR   Ar  105   2.791   2.490   2.546
    1   AR   Ar  106   4.598   1.307   3.873
    1   AR   Ar  107   1.079   4.613   4.943
    1   AR   Ar  108   2.036   0.365   3.782
    1   AR   Ar  109   2.248   4.485   4.960
    1   AR   Ar  110   1.689   2.312   4.857
    1   AR   Ar  111   3.603   4.482   6.845
    1   AR   Ar  112   6.504   6.213   5.685
    1   AR   Ar  113   0.089   6.001  -1.531
    1   AR   Ar  114   2.722   0.251   0.186
    1   AR   Ar  115   0.569   4.530  -0.188
    1   AR   Ar  116   5.418   1.496   0.318
    1   AR   Ar  117   0.255   4.256   3.461
    1   AR   Ar  118   1.740   6.482   3.929
    1   AR   Ar  119   1.975   3.112   2.737
    1   AR   Ar  120   2.130   7.073   2.697
    1   AR   Ar  121   4.746   4.137   6.776
    1   AR   Ar  122   3.091   5.271   3.608
    1   AR   Ar  123   3.420   2.348   5.193
    1   AR   Ar  124   1.000   5.226   2.044
    1   AR   Ar  125   6.070   3.878   3.520
    1   AR   Ar  126   6.946   0.633   7.821
    1   AR   Ar  127   4.873   3.412   5.900
    1   AR   Ar  128   1.022   3.807   6.186
    1   AR   Ar  129   1.840   5.793   4.805
    1   AR   Ar  130   5.003   0.864  -5.017
    1   AR   Ar  131   3.751   6.385  -0.384
    1   AR   Ar  132   1.751   2.452   1.549
    1   AR   Ar  133   4.242   0.472   4.364
    1   AR   Ar  134   2.739   1.297   4.340
    1   AR   Ar  135   6.288   7.046   4.668
    1   AR   Ar  136   5.516   6.846   2.869
    1   AR   Ar  137   2.092   4.575   6.238
    1   AR   Ar  138   6.057   1.308   5.810
    1   AR   Ar  139   6.411   1.660   4.768
    1   AR   Ar  140   4.514   6.632   4.716
    1   AR   Ar  141   3.355   4.919   4.706
    1   AR   Ar  142   4.095   5.777   8.466
    1   AR   Ar  143   5.612   6.994   7.360
    1   AR   Ar  144   6.931   2.320   5.266
    1   AR   Ar  145   4.913   4.563  -1.303
    1   AR   Ar  146   3.974   2.144   3.967
    1   AR   Ar  147   4.983   4.375   0.044
    1   AR   Ar  148   2.191   6.028  -0.533
    1   AR   Ar  149   0.149   1.984  -0.473
    1   AR   Ar  150   1.343   2.256   2.578
    1   AR   Ar  151   2.935   3.384   1.944
    1   AR   Ar  152   0.744   1.310  -0.993
    1   AR   Ar  153   5.677   0.555   3.633
    1   AR   Ar  154   4.757   3.104   3.761
    1   AR   Ar  155   6.355   3.436   5.368
    1   AR   Ar  156   2.960   3.852   2.972
    1   AR   Ar  157   2.939   5.649   6.494
    1   AR   Ar  158   0.992   2.379   6.765
    1   AR   Ar  159   4.367   0.449   5.527
    1   AR   Ar  160   1.384   1.287   4.273
    1   AR   Ar  161   4.983   4.622   3.413
    1   AR   Ar  162   4.060   5.252  -1.304
    1   AR   Ar  163   6.122   3.779   2.443
    1   AR   Ar  164   2.123   5.993   3.043
    1   AR   Ar  165   3.238   4.181   1.017
    1   AR   Ar  166   2.911   3.305   5.305
    1   AR   Ar  167   6.425   6.674   3.730
    1   AR   Ar  168   5.354   4.280  -2.310
    1   AR   Ar  169   4.144   3.969   3.515
    1   AR   Ar  170   2.680   2.261   5.893
    1   AR   Ar  171   4.658   5.493   4.192
    1   AR   Ar  172   3.960   3.261   4.713
    1   AR   Ar  173   1.310   1.629   7.656
    1   AR   Ar  174   3.022   5.996   4.402
    1   AR   Ar  175   2.176   6.815   7.563
    1   AR   Ar  176   3.349   3.142   3.747
    1   AR   Ar  177   7.086   4.255  -1.258
    1   AR   Ar  178   2.214   6.495   1.024
    1   AR   Ar  179   3.355   6.403   0.553
    1   AR   Ar  180   5.315   0.057  -7.481
    1   AR   Ar  181   0.670   6.303   1.970
    1   AR   Ar  182   1.081   6.671   2.931
    1   AR   Ar  183   4.854   5.468   1.433
    1   AR   Ar  184   4.167   5.257   0.145
    1   AR   Ar  185   3.186   3.887   4.517
    1   AR   Ar  186   2.843   6.665   3.575
    1   AR   Ar  187   3.919   6.652   3.934
    1   AR   Ar  188   3.354   0.953   1.761
    1   AR   Ar  189   6.055   2.463   6.014
    1   AR   Ar  190   1.198   0.254   4.374
    1   AR   Ar  191   3.995   5.816   5.025
    1   AR   Ar  192   3.883   3.361   6.220
    1   AR   Ar  193   3.273   6.350   1.751
    1   AR   Ar  194   4.785   6.074  -0.227
    1   AR   Ar  195   6.101   0.982   1.127
    1   AR   Ar  196   4.440   6.572   0.811
    1   AR   Ar  197   4.793   3.040   0.089
    1   AR   Ar  198   6.752   6.669   1.340
    1   AR   Ar  199   7.107   0.478   2.046
    1   AR   Ar  200   5.992   2.651   0.041
    1   AR   Ar  201   6.466   5.705   2.614
    1   AR   Ar  202   5.369   0.269   4.525
    1   AR   Ar  203   0.319   6.924   3.733
    1   AR   Ar  204   4.480   4.947   7.592
    1   AR   Ar  205   5.299   1.758   1.915
    1   AR   Ar  206   6.024   0.194   6.201
    1   AR   Ar  207   6.765   3.707   4.276
    1   AR   Ar  208   0.651   6.009   3.484
    1   AR   Ar  209   5.472   1.728  -2.008
    1   AR   Ar  210   1.980   0.914  -0.402
    1   AR   Ar  211   6.784   3.025   0.700
    1   AR   Ar  212   6.833   4.020   0.090
    1   AR   Ar  213   3.569   1.700   0.937
    1   AR   Ar  214   5.159   4.542   1.966
    1   AR   Ar  215   0.351   2.940   2.359
    1   AR   Ar  216   2.076   2.155  -0.417
    1   AR   Ar  217   5.173   2.139   4.033
    1   AR   Ar  218   5.038   2.634   5.098
    1   AR   Ar  219   4.328   4.101   2.454
    1   AR   Ar  220   4.340   4.633   1.015
    1   AR   Ar  221   6.783   5.737   3.710
    1   AR   Ar  222   5.162   6.704   6.058
    1   AR   Ar  223   7.084   1.250   5.623
    1   AR   Ar  224   5.339   1.550   4.849
    1   AR   Ar  225   6.560   2.347   2.592
    1   AR   Ar  226   2.217   3.565   4.013
    1   AR   Ar  227   1.162   2.647   3.588
    1   AR   Ar  228   6.156   0.949   2.416
    1   AR   Ar  229   5.985   4.315  -1.021
    1   AR   Ar  230   3.939   4.898   3.112
    1   AR   Ar  231   4.975   2.402   2.892
    1   AR   Ar  232   5.293   3.119   1.927
    1   AR   Ar  233   6.940   2.103   3.653
    1   AR   Ar  234   5.907   2.622   4.532
    1   AR   Ar  235   6.469   0.790   4.219
    1   AR   Ar  236   4.034   4.282   5.190
    1   AR   Ar  237   4.439   1.343   7.463
    1   AR   Ar  238   4.576   4.901   5.956
    1   AR   Ar  239   1.248   4.045  11.146
    1   AR   Ar  240   1.801   3.239   6.560
    1   AR   Ar  241   1.464   6.823   0.101
    1   AR   Ar  242   5.945   6.376   2.030
    1   AR   Ar  243   4.332   6.392   1.844
    1   AR   Ar  244   6.324   6.019   0.073
    1   AR   Ar  245   3.365   1.236   3.465
    1   AR   Ar  246   5.044   6.451  -1.332
    1   AR   Ar  247   7.102   3.951   1.531
    1   AR   Ar  248   5.450   5.226  -0.355
    1   AR   Ar  249   3.369   0.323   0.962
    1   AR   Ar  250   5.069   6.573   3.741
    1   AR   Ar  251   5.217   4.120   5.049
    1   AR   Ar  252   2.771   4.885   2.623
    1   AR   Ar  253   4.978   2.399   8.355
    1   AR   Ar  254   4.488   3.894  12.527
    1   AR   Ar  255   5.034   0.283   8.942
    1   AR   Ar  256   5.669   5.725   3.783
    7.12000  7.12000 12.00000
Argon-slab step 5470
  256
    1   AR   Ar    1   4.421   3.747  -2.525
    1   AR   Ar    2   5.568   6.531   0.719
    1   AR   Ar    3   4.529   3.924  -0.738
    1   AR   Ar    4   2.674   1.289   0.901
    1   AR   Ar    5   6.843   5.342  -0.648
    1   AR   Ar    6   0.943   1.416   2.463
    1   AR   Ar    7   6.265   4.851   3.402
    1   AR   Ar    8   6.533   3.382  -0.699
    1   AR   Ar    9   0.651   5.839   4.822
    1   AR   Ar   10   5.789   4.429   5.943
    1   AR   Ar   11   1.010   6.935   5.307
    1   AR   Ar   12   0.154   1.424   4.306
    1   AR   Ar   13   0.161   0.550   4.902
    1   AR   Ar   14   3.849   0.770   6.583
    1   AR   Ar   15   2.524   5.703   9.734
    1   AR   Ar   16   7.089   0.070   5.977
    1   AR   Ar   17   5.893   3.417   0.893
    1   AR   Ar   18   6.553   4.556  -2.361
    1   AR   Ar   19   5.469   4.864   0.882
    1   AR   Ar   20   6.570   3.493  -2.211
    1   AR   Ar   21   2.422   1.541   2.081
    1   AR   Ar   22   5.041   0.102   1.912
    1   AR   Ar   23   0.900   5.948   0.886
    1   AR   Ar   24   6.002   2.560   3.482
    1   AR   Ar   25   0.940   2.865   5.736
    1   AR   Ar   26   5.879   6.039   4.616
    1   AR   Ar   27   1.182   0.009   1.592
    1   AR   Ar   28   2.395   2.585   3.533
    1   AR   Ar   29   5.655   0.884   8.064
    1   AR   Ar   30   7.063   0.922   3.266
    1   AR   Ar   31   1.181   0.566   7.016
    1   AR   Ar   32   1.042   1.695   6.079
    1   AR   Ar   33   6.615   4.586   0.918
    1   AR   Ar   34   1.733   4.928   3.012
    1   AR   Ar   35   5.375   5.479   2.598
    1   AR   Ar   36   3.937   2.251  -3.690
    1   AR   Ar   37   4.375   3.547   1.411
    1   AR   Ar   38   5.805   4.658   4.324
    1   AR   Ar   39   0.350   2.682   4.397
    1   AR   Ar   40   0.754   4.182   2.244
    1   AR   Ar   41   0.756   1.657   3.419
    1   AR   Ar   42   5.501   5.721   5.787
    1   AR   Ar   43   7.107   2.717   6.147
    1   AR   Ar   44   1.488   3.744   3.343
    1   AR   Ar   45   1.836   3.636   5.607
    1   AR   Ar   46   6.195   5.190   6.522
    1   AR   Ar   47   2.942   3.581   6.628
    1   AR   Ar   48   6.996   3.016   7.195
    1   AR   Ar   49   0.555   1.391   0.425
    1   AR   Ar   50   2.712   4.106   0.154
    1   AR   Ar   51   5.076   3.604   2.853
    1   AR   Ar   52   5.599   3.609  -1.618
    1   AR   Ar   53   4.602   0.219   3.392
    1   AR   Ar   54   6.799   6.849   2.769
    1   AR   Ar   55   6.799   4.589   2.485
    1   AR   Ar   56   5.706   1.635   2.993
    1   AR   Ar   57   4.056   5.070   2.097
    1   AR   Ar   58   1.281   3.256   4.484
    1   AR   Ar   59   2.844   5.703   5.423
    1   AR   Ar   60   0.659   5.035   2.972
    1   AR   Ar   61   0.008   4.406   6.552
    1   AR   Ar   62   6.820   4.359   5.152
    1   AR   Ar   63   2.013   2.188   6.997
    1   AR   Ar   64   0.740   5.111   4.039
    1   AR   Ar   65   3.986   0.858   2.753
    1   AR   Ar   66   1.486   1.318   1.412
    1   AR   Ar   67   4.539   0.722  -0.477
    1   AR   Ar   68   6.839   0.771   0.407
    1   AR   Ar   69   2.777   2.470   0.510
    1   AR   Ar   70   7.102   1.347   1.498
    1   AR   Ar   71   2.840   0.679   2.747
    1   AR   Ar   72   4.561   1.301   1.318
    1   AR   Ar   73   3.016   0.287   4.268
    1   AR   Ar   74   1.036   0.512   3.364
    1   AR   Ar   75   2.449   0.729   5.350
    1   AR   Ar   76   2.417   0.558   1.675
    1   AR   Ar   77   1.241   5.683   5.720
    1   AR   Ar   78   0.079   5.263   5.682
    1   AR   Ar   79   3.612   6.929   5.200
    1   AR   Ar   80   3.542   4.864   5.954
    1   AR   Ar   81   1.751   6.286   2.049
    1   AR   Ar   82   6.937   5.701   1.348
    1   AR   Ar   83   0.964   3.244   1.586
    1   AR   Ar   84   0.639   4.984   1.027
    1   AR   Ar   85   0.506   3.101  -0.249
    1   AR   Ar   86   1.827   5.443   1.403
    1   AR   Ar   87   3.652   3.096   2.736
    1   AR   Ar   88   3.355   5.235   0.915
    1   AR   Ar   89   5.816   2.175   0.966
    1   AR   Ar   90   2.812   1.159   6.231
    1   AR   Ar   91   1.844   1.129   3.018
    1   AR   Ar   92   3.023   2.330   1.579
    1   AR   Ar   93   0.832   0.755   5.672
    1   AR   Ar   94   6.611   6.651   8.863
    1   AR   Ar   95   5.501   0.834   6.925
    1   AR   Ar   96   2.365   6.624   5.048
    1   AR   Ar   97   4.626   1.313  -1.640
    1   AR   Ar   98   1.663   4.510   3.986
    1   AR   Ar   99   6.637   6.609  -0.928
    1   AR   Ar  100   5.439   3.186  -2.531
    1   AR   Ar  101   3.701   5.978   3.149
    1   AR   Ar  102   4.166   1.875   2.524
    1   AR   Ar  103   2.040   4.294   1.791
    1   AR   Ar  104   3.487   0.209  -0.656
    1   AR   Ar  105   2.804   2.511   2.581
    1   AR   Ar  106   4.594   1.283   3.895
    1   AR   Ar  107   1.106   4.610   4.962
    1   AR   Ar  108   2.055   0.352   3.755
    1   AR   Ar  109   2.225   4.510   4.963
    1   AR   Ar  110   1.685   2.326   4.887
    1   AR   Ar  111   3.603   4.472   6.873
    1   AR   Ar  112   6.475   6.232   5.712
    1   AR   Ar  113   0.132   6.024  -1.544
    1   AR   Ar  114   2.720   0.262   0.175
    1   AR   Ar  115   0.555   4.526  -0.218
    1   AR   Ar  116   5.426   1.505   0.293
    1   AR   Ar  117   0.258   4.266   3.441
    1   AR   Ar  118   1.735   6.464   3.923
    1   AR   Ar  119   1.958   3.107   2.712
    1   AR   Ar  120   2.143   7.041   2.702
    1   AR   Ar  121   4.725   4.112   6.826
    1   AR   Ar  122   3.071   5.244   3.607
    1   AR   Ar  123   3.375   2.355   5.220
    1   AR   Ar  124   1.020   5.221   2.044
    1   AR   Ar  125   6.069   3.865   3.532
    1   AR   Ar  126   6.978   0.626   7.811
    1   AR   Ar  127   4.877   3.422   5.902
    1   AR   Ar  128   1.061   3.798   6.182
    1   AR   Ar  129   1.798   5.775   4.781
    1   AR   Ar  130   5.004   0.857  -5.017
    1   AR   Ar  131   3.731   6.383  -0.383
    1   AR   Ar  132   1.767   2.453   1.572
    1   AR   Ar  133   4.278   0.466   4.345
    1   AR   Ar  134   2.727   1.318   4.357
    1   AR   Ar  135   6.260   6.997   4.691
    1   AR   Ar  136   5.525   6.850   2.864
    1   AR   Ar  137   2.090   4.577   6.227
    1   AR   Ar  138   6.053   1.314   5.813
    1   AR   Ar  139   6.401   1.671   4.774
    1   AR   Ar  140   4.527   6.648   4.715
    1   AR   Ar  141   3.348   4.958   4.689
    1   AR   Ar  142   4.064   5.750   8.479
    1   AR   Ar  143   5.610   6.993   7.362
    1   AR   Ar  144   6.960   2.328   5.277
    1   AR   Ar  145   4.887   4.566  -1.334
    1   AR   Ar  146   3.976   2.112   4.012
    1   AR   Ar  147   4.944   4.372   0.079
    1   AR   Ar  148   2.198   6.025  -0.512
    1   AR   Ar  149   0.122   1.968  -0.450
    1   AR   Ar  150   1.345   2.245   2.576
    1   AR   Ar  151   2.931   3.401   1.941
    1   AR   Ar  152   0.746   1.316  -1.001
    1   AR   Ar  153   5.713   0.558   3.632
    1   AR   Ar  154   4.759   3.119   3.775
    1   AR   Ar  155   6.364   3.437   5.389
    1   AR   Ar  156   2.955   3.839   2.970
    1   AR   Ar  157   2.930   5.681   6.531
    1   AR   Ar  158   1.026   2.389   6.788
    1   AR   Ar  159   4.382   0.431   5.529
    1   AR   Ar  160   1.390   1.330   4.275
    1   AR   Ar  161   4.989   4.591   3.410
    1   AR   Ar  162   4.058   5.252  -1.341
    1   AR   Ar  163   6.131   3.789   2.461
    1   AR   Ar  164   2.116   5.994   3.055
    1   AR   Ar  165   3.251   4.196   1.026
    1   AR   Ar  166   2.911   3.300   5.289
    1   AR   Ar  167   6.429   6.706   3.765
    1   AR   Ar  168   5.333   4.281  -2.309
    1   AR   Ar  169   4.150   3.931   3.510
    1   AR   Ar  170   2.666   2.249   5.880
    1   AR   Ar  171   4.653   5.509   4.204
    1   AR   Ar  172   3.969   3.260   4.707
    1   AR   Ar  173   1.297   1.614   7.663
    1   AR   Ar  174   3.028   5.987   4.366
    1   AR   Ar  175   2.124   6.817   7.560
    1   AR   Ar  176   3.370   3.133   3.720
    1   AR   Ar  177   7.048   4.271  -1.269
    1   AR   Ar  178   2.203   6.501   1.042
    1   AR   Ar  179   3.349   6.393   0.565
    1   AR   Ar  180   5.311   0.024  -7.463
    1   AR   Ar  181   0.684   6.312   2.014
    1   AR   Ar  182   1.058   6.675   2.916
    1   AR   Ar  183   4.834   5.511   1.449
    1   AR   Ar  184   4.176   5.253   0.158
    1   AR   Ar  185   3.186   3.882   4.507
    1   AR   Ar  186   2.855   6.656   3.563
    1   AR   Ar  187   3.906   6.650   3.945
    1   AR   Ar  188   3.362   0.953   1.755
    1   AR   Ar  189   6.059   2.461   6.074
    1   AR   Ar  190   1.223   0.246   4.395
    1   AR   Ar  191   3.988   5.831   4.998
    1   AR   Ar  192   3.860   3.351   6.199
    1   AR   Ar  193   3.287   6.326   1.754
    1   AR   Ar  194   4.785   6.046  -0.266
    1   AR   Ar  195   6.073   0.951   1.117
    1   AR   Ar  196   4.409   6.571   0.817
    1   AR   Ar  197   4.788   3.010   0.094
    1   AR   Ar  198   6.744   6.623   1.346
    1   AR   Ar  199   7.113   0.504   2.050
    1   AR   Ar  200   5.966   2.641   0.048
    1   AR   Ar  201   6.477   5.695   2.613
    1   AR   Ar  202   5.361   0.272   4.544
    1   AR   Ar  203   0.308   6.915   3.738
    1   AR   Ar  204   4.504   4.958   7.631
    1   AR   Ar  205   5.303   1.790   1.895
    1   AR   Ar  206   6.000   0.203   6.219
    1   AR   Ar  207   6.808   3.747   4.268
    1   AR   Ar  208   0.631   6.005   3.495
    1   AR   Ar  209   5.479   1.739  -2.032
    1   AR   Ar  210   1.964   0.931  -0.362
    1   AR   Ar  211   6.802   3.029   0.684
    1   AR   Ar  212   6.836   4.007   0.066
    1   AR   Ar  213   3.610   1.712   0.906
    1   AR   Ar  214   5.167   4.567   1.995
    1   AR   Ar  215   0.373   2.959   2.373
    1   AR   Ar  216   2.064   2.187  -0.389
    1   AR   Ar  217   5.158   2.151   4.036
    1   AR   Ar  218   5.032   2.598   5.100
    1   AR   Ar  219   4.344   4.116   2.457
    1   AR   Ar  220   4.337   4.630   1.019
    1   AR   Ar  221   6.789   5.730   3.686
    1   AR   Ar  222   5.139   6.687   6.052
    1   AR   Ar  223   7.068   1.276   5.649
    1   AR   Ar  224   5.351   1.530   4.856
    1   AR   Ar  225   6.542   2.338   2.572
    1   AR   Ar  226   2.259   3.562   4.013
    1   AR   Ar  227   1.166   2.623   3.613
    1   AR   Ar  228   6.147   0.944   2.404
    1   AR   Ar  229   5.963   4.347  -1.037
    1   AR   Ar  230   3.947   4.864   3.093
    1   AR   Ar  231   4.995   2.403   2.908
    1   AR   Ar  232   5.316   3.106   1.970
    1   AR   Ar  233   6.931   2.129   3.664
    1   AR   Ar  234   5.905   2.642   4.538
    1   AR   Ar  235   6.426   0.815   4.195
    1   AR   Ar  236   4.040   4.290   5.142
    1   AR   Ar  237   4.431   1.356   7.453
    1   AR   Ar  238   4.589   4.889   5.908
    1   AR   Ar  239   1.243   4.033  11.138
    1   AR   Ar  240   1.808   3.203   6.564
    1   AR   Ar  241   1.470   6.801   0.083
    1   AR   Ar  242   5.961   6.380   2.048
    1   AR   Ar  243   4.298   6.389   1.841
    1   AR   Ar  244   6.343   6.001   0.035
    1   AR   Ar  245   3.365   1.274   3.468
    1   AR   Ar  246   5.006   6.444  -1.361
    1   AR   Ar  247   7.110   3.941   1.527
    1   AR   Ar  248   5.438   5.224  -0.371
    1   AR   Ar  249   3.360   0.355   0.940
    1   AR   Ar  250   5.057   6.552   3.735
    1   AR   Ar  251   5.234   4.100   5.024
    1   AR   Ar  252   2.761   4.877   2.613
    1   AR   Ar  253   4.995   2.407   8.326
    1   AR   Ar  254   4.481   3.889  12.548
    1   AR   Ar  255   5.035   0.280   8.960
    1   AR   Ar  256   5.636   5.715   3.773
    7.12000  7.12000 12.00000
Argon-slab step 5475
  256
    1   AR   Ar    1   4.429   3.769  -2.507
    1   AR   Ar    2   5.582   6.607   0.749
    1   AR   Ar    3   4.524   3.915  -0.734
    1   AR   Ar    4   2.651   1.299   0.927
    1   AR   Ar    5   6.841   5.348  -0.645
    1   AR   Ar    6   0.918   1.397   2.434
    1   AR   Ar    7   6.261   4.874   3.418
    1   AR   Ar    8   6.554   3.373  -0.672
    1   AR   Ar    9   0.656   5.826   4.830
    1   AR   Ar   10   5.778   4.436   5.940
    1   AR   Ar   11   1.000   6.919   5.305
    1   AR   Ar   12   0.156   1.413   4.335
    1   AR   Ar   13   0.190   0.547   4.884
    1   AR   Ar   14   3.877   0.778   6.557
    1   AR   Ar   15   2.541   5.714   9.728
    1   AR   Ar   16   7.038   0.061   5.961
    1   AR   Ar   17   5.876   3.446   0.855
    1   AR   Ar   18   6.544   4.546  -2.382
    1   AR   Ar   19   5.474   4.866   0.849
    1   AR   Ar   20   6.562   3.475  -2.178
    1   AR   Ar   21   2.432   1.514   2.106
    1   AR   Ar   22   5.047   0.090   1.953
    1   AR   Ar   23   0.895   5.952   0.878
    1   AR   Ar   24   5.975   2.554   3.504
    1   AR   Ar   25   0.957   2.885   5.737
    1   AR   Ar   26   5.891   6.064   4.621
    1   AR   Ar   27   1.182   7.102   1.600
    1   AR   Ar   28   2.416   2.559   3.504
    1   AR   Ar   29   5.635   0.857   8.060
    1   AR   Ar   30   7.095   0.892   3.244
    1   AR   Ar   31   1.182   0.593   7.021
    1   AR   Ar   32   1.070   1.692   6.063
    1   AR   Ar   33   6.576   4.637   0.903
    1   AR   Ar   34   1.708   4.920   3.054
    1   AR   Ar   35   5.382   5.475   2.582
    1   AR   Ar   36   3.922   2.225  -3.695
    1   AR   Ar   37   4.369   3.544   1.410
    1   AR   Ar   38   5.839   4.649   4.337
    1   AR   Ar   39   0.361   2.658   4.421
    1   AR   Ar   40   0.767   4.169   2.216
    1   AR   Ar   41   0.738   1.654   3.414
    1   AR   Ar   42   5.553   5.711   5.807
    1   AR   Ar   43   7.097   2.718   6.158
    1   AR   Ar   44   1.538   3.768   3.386
    1   AR   Ar   45   1.860   3.684   5.588
    1   AR   Ar   46   6.169   5.207   6.543
    1   AR   Ar   47   2.928   3.591   6.630
    1   AR   Ar   48   7.006   3.030   7.209
    1   AR   Ar   49   0.591   1.435   0.407
    1   AR   Ar   50   2.718   4.110   0.166
    1   AR   Ar   51   5.066   3.617   2.876
    1   AR   Ar   52   5.601   3.572  -1.634
    1   AR   Ar   53   4.601   0.227   3.337
    1   AR   Ar   54   6.785   6.855   2.754
    1   AR   Ar   55   6.817   4.598   2.506
    1   AR   Ar   56   5.705   1.665   2.987
    1   AR   Ar   57   4.052   5.050   2.123
    1   AR   Ar   58   1.302   3.258   4.488
    1   AR   Ar   59   2.862   5.675   5.415
    1   AR   Ar   60   0.669   5.021   2.958
    1   AR   Ar   61   7.118   4.397   6.567
    1   AR   Ar   62   6.823   4.395   5.165
    1   AR   Ar   63   1.996   2.202   6.973
    1   AR   Ar   64   0.716   5.116   4.022
    1   AR   Ar   65   3.969   0.877   2.756
    1   AR   Ar   66   1.483   1.318   1.409
    1   AR   Ar   67   4.544   0.722  -0.450
    1   AR   Ar   68   6.835   0.763   0.405
    1   AR   Ar   69   2.794   2.471   0.519
    1   AR   Ar   70   0.010   1.316   1.495
    1   AR   Ar   71   2.842   0.664   2.775
    1   AR   Ar   72   4.576   1.309   1.330
    1   AR   Ar   73   2.992   0.306   4.300
    1   AR   Ar   74   1.003   0.512   3.355
    1   AR   Ar   75   2.419   0.719   5.370
    1   AR   Ar   76   2.409   0.536   1.675
    1   AR   Ar   77   1.191   5.695   5.742
    1   AR   Ar   78   0.071   5.249   5.686
    1   AR   Ar   79   3.588   6.944   5.172
    1   AR   Ar   80   3.504   4.871   5.959
    1   AR   Ar   81   1.707   6.311   2.055
    1   AR   Ar   82   6.960   5.709   1.345
    1   AR   Ar   83   0.979   3.240   1.606
    1   AR   Ar   84   0.656   4.990   1.013
    1   AR   Ar   85   0.432   3.118  -0.279
    1   AR   Ar   86   1.857   5.421   1.376
    1   AR   Ar   87   3.643   3.111   2.741
    1   AR   Ar   88   3.338   5.232   0.898
    1   AR   Ar   89   5.795   2.187   0.965
    1   AR   Ar   90   2.809   1.158   6.200
    1   AR   Ar   91   1.844   1.156   3.023
    1   AR   Ar   92   3.051   2.371   1.610
    1   AR   Ar   93   0.804   0.762   5.651
    1   AR   Ar   94   6.656   6.658   8.840
    1   AR   Ar   95   5.501   0.826   6.961
    1   AR   Ar   96   2.360   6.604   5.079
    1   AR   Ar   97   4.630   1.304  -1.618
    1   AR   Ar   98   1.664   4.493   3.992
    1   AR   Ar   99   6.620   6.624  -0.941
    1   AR   Ar  100   5.457   3.166  -2.552
    1   AR   Ar  101   3.716   5.966   3.148
    1   AR   Ar  102   4.179   1.880   2.511
    1   AR   Ar  103   2.042   4.324   1.797
    1   AR   Ar  104   3.487   0.198  -0.648
    1   AR   Ar  105   2.818   2.528   2.615
    1   AR   Ar  106   4.595   1.262   3.909
    1   AR   Ar  107   1.133   4.608   4.982
    1   AR   Ar  108   2.078   0.341   3.725
    1   AR   Ar  109   2.204   4.544   4.978
    1   AR   Ar  110   1.705   2.341   4.916
    1   AR   Ar  111   3.605   4.459   6.909
    1   AR   Ar  112   6.441   6.255   5.740
    1   AR   Ar  113   0.176   6.044  -1.558
    1   AR   Ar  114   2.712   0.271   0.158
    1   AR   Ar  115   0.543   4.525  -0.248
    1   AR   Ar  116   5.433   1.510   0.264
    1   AR   Ar  117   0.256   4.268   3.425
    1   AR   Ar  118   1.727   6.446   3.919
    1   AR   Ar  119   1.943   3.102   2.681
    1   AR   Ar  120   2.153   7.009   2.708
    1   AR   Ar  121   4.703   4.087   6.874
    1   AR   Ar  122   3.087   5.256   3.607
    1   AR   Ar  123   3.343   2.361   5.236
    1   AR   Ar  124   1.041   5.219   2.041
    1   AR   Ar  125   6.063   3.845   3.544
    1   AR   Ar  126   7.009   0.619   7.800
    1   AR   Ar  127   4.884   3.434   5.902
    1   AR   Ar  128   1.084   3.798   6.185
    1   AR   Ar  129   1.755   5.753   4.755
    1   AR   Ar  130   5.005   0.850  -5.018
    1   AR   Ar  131   3.715   6.374  -0.384
    1   AR   Ar  132   1.784   2.453   1.595
    1   AR   Ar  133   4.301   0.458   4.340
    1   AR   Ar  134   2.713   1.341   4.374
    1   AR   Ar  135   6.241   6.951   4.728
    1   AR   Ar  136   5.538   6.843   2.871
    1   AR   Ar  137   2.088   4.577   6.216
    1   AR   Ar  138   6.044   1.320   5.816
    1   AR   Ar  139   6.384   1.682   4.780
    1   AR   Ar  140   4.555   6.664   4.723
    1   AR   Ar  141   3.340   5.000   4.672
    1   AR   Ar  142   4.032   5.721   8.492
    1   AR   Ar  143   5.608   6.990   7.365
    1   AR   Ar  144   6.991   2.336   5.277
    1   AR   Ar  145   4.872   4.584  -1.379
    1   AR   Ar  146   3.927   2.126   4.026
    1   AR   Ar  147   4.906   4.370   0.119
    1   AR   Ar  148   2.205   6.023  -0.489
    1   AR   Ar  149   0.093   1.956  -0.425
    1   AR   Ar  150   1.360   2.260   2.578
    1   AR   Ar  151   2.927   3.419   1.937
    1   AR   Ar  152   0.750   1.320  -1.010
    1   AR   Ar  153   5.732   0.554   3.609
    1   AR   Ar  154   4.762   3.130   3.791
    1   AR   Ar  155   6.371   3.433   5.410
    1   AR   Ar  156   2.947   3.828   2.970
    1   AR   Ar  157   2.922   5.711   6.568
    1   AR   Ar  158   1.053   2.409   6.816
    1   AR   Ar  159   4.399   0.416   5.536
    1   AR   Ar  160   1.362   1.331   4.270
    1   AR   Ar  161   4.999   4.561   3.406
    1   AR   Ar  162   4.056   5.253  -1.376
    1   AR   Ar  163   6.137   3.797   2.476
    1   AR   Ar  164   2.109   5.993   3.066
    1   AR   Ar  165   3.268   4.207   1.041
    1   AR   Ar  166   2.909   3.294   5.279
    1   AR   Ar  167   6.425   6.736   3.791
    1   AR   Ar  168   5.322   4.274  -2.299
    1   AR   Ar  169   4.153   3.890   3.508
    1   AR   Ar  170   2.640   2.237   5.879
    1   AR   Ar  171   4.647   5.525   4.214
    1   AR   Ar  172   3.983   3.254   4.700
    1   AR   Ar  173   1.283   1.598   7.668
    1   AR   Ar  174   3.033   5.984   4.329
    1   AR   Ar  175   2.071   6.819   7.556
    1   AR   Ar  176   3.389   3.124   3.699
    1   AR   Ar  177   7.010   4.286  -1.279
    1   AR   Ar  178   2.202   6.504   1.046
    1   AR   Ar  179   3.338   6.382   0.584
    1   AR   Ar  180   5.305   7.107  -7.451
    1   AR   Ar  181   0.676   6.328   2.078
    1   AR   Ar  182   1.044   6.687   2.896
    1   AR   Ar  183   4.814   5.557   1.466
    1   AR   Ar  184   4.176   5.296   0.156
    1   AR   Ar  185   3.204   3.886   4.474
    1   AR   Ar  186   2.865   6.646   3.547
    1   AR   Ar  187   3.887   6.648   3.950
    1   AR   Ar  188   3.368   0.962   1.758
    1   AR   Ar  189   6.062   2.458   6.132
    1   AR   Ar  190   1.247   0.237   4.413
    1   AR   Ar  191   3.986   5.826   4.980
    1   AR   Ar  192   3.838   3.342   6.176
    1   AR   Ar  193   3.293   6.302   1.756
    1   AR   Ar  194   4.786   6.023  -0.304
    1   AR   Ar  195   6.043   0.921   1.110
    1   AR   Ar  196   4.379   6.571   0.818
    1   AR   Ar  197   4.784   2.983   0.099
    1   AR   Ar  198   6.733   6.604   1.352
    1   AR   Ar  199   0.001   0.521   2.059
    1   AR   Ar  200   5.940   2.633   0.051
    1   AR   Ar  201   6.473   5.697   2.655
    1   AR   Ar  202   5.342   0.277   4.567
    1   AR   Ar  203   0.299   6.922   3.736
    1   AR   Ar  204   4.527   4.968   7.669
    1   AR   Ar  205   5.310   1.795   1.886
    1   AR   Ar  206   5.978   0.212   6.236
    1   AR   Ar  207   6.852   3.784   4.263
    1   AR   Ar  208   0.615   5.992   3.498
    1   AR   Ar  209   5.496   1.723  -2.053
    1   AR   Ar  210   1.947   0.949  -0.321
    1   AR   Ar  211   6.828   3.031   0.666
    1   AR   Ar  212   6.836   3.992   0.045
    1   AR   Ar  213   3.655   1.725   0.875
    1   AR   Ar  214   5.177   4.591   2.022
    1   AR   Ar  215   0.393   2.977   2.392
    1   AR   Ar  216   2.053   2.219  -0.360
    1   AR   Ar  217   5.141   2.163   4.035
    1   AR   Ar  218   5.021   2.563   5.103
    1   AR   Ar  219   4.348   4.131   2.454
    1   AR   Ar  220   4.331   4.624   1.042
    1   AR   Ar  221   6.792   5.719   3.664
    1   AR   Ar  222   5.110   6.671   6.046
    1   AR   Ar  223   7.052   1.306   5.675
    1   AR   Ar  224   5.344   1.514   4.870
    1   AR   Ar  225   6.547   2.349   2.589
    1   AR   Ar  226   2.304   3.560   4.016
    1   AR   Ar  227   1.172   2.601   3.638
    1   AR   Ar  228   6.141   0.934   2.387
    1   AR   Ar  229   5.953   4.370  -1.031
    1   AR   Ar  230   3.953   4.835   3.080
    1   AR   Ar  231   5.016   2.410   2.924
    1   AR   Ar  232   5.341   3.090   2.009
    1   AR   Ar  233   6.924   2.158   3.663
    1   AR   Ar  234   5.911   2.667   4.547
    1   AR   Ar  235   6.400   0.841   4.182
    1   AR   Ar  236   4.047   4.296   5.095
    1   AR   Ar  237   4.419   1.367   7.431
    1   AR   Ar  238   4.608   4.877   5.861
    1   AR   Ar  239   1.238   4.021  11.129
    1   AR   Ar  240   1.819   3.162   6.572
    1   AR   Ar  241   1.476   6.779   0.067
    1   AR   Ar  242   5.975   6.384   2.061
    1   AR   Ar  243   4.270   6.385   1.842
    1   AR   Ar  244   6.360   5.984  -0.001
    1   AR   Ar  245   3.365   1.313   3.476
    1   AR   Ar  246   4.967   6.436  -1.388
    1   AR   Ar  247   7.120   3.925   1.526
    1   AR   Ar  248   5.428   5.222  -0.388
    1   AR   Ar  249   3.356   0.384   0.919
    1   AR   Ar  250   5.048   6.524   3.740
    1   AR   Ar  251   5.248   4.079   5.001
    1   AR   Ar  252   2.742   4.866   2.603
    1   AR   Ar  253   5.012   2.416   8.296
    1   AR   Ar  254   4.463   3.873  12.571
    1   AR   Ar  255   5.045   0.262   8.951
    1   AR   Ar  256   5.601   5.690   3.736
    7.12000  7.12000 12.00000
Argon-slab step 5480
  256
    1   AR   Ar    1   4.436   3.788  -2.489
    1   AR   Ar    2   5.597   6.681   0.780
    1   AR   Ar    3   4.515   3.897  -0.725
    1   AR   Ar    4   2.627   1.309   0.952
    1   AR   Ar    5   6.841   5.348  -0.647
    1   AR   Ar    6   0.886   1.362   2.397
    1   AR   Ar    7   6.256   4.896   3.429
    1   AR   Ar    8   6.542   3.390  -0.679
    1   AR   Ar    9   0.659   5.814   4.837
    1   AR   Ar   10   5.766   4.440   5.935
    1   AR   Ar   11   0.988   6.895   5.306
    1   AR   Ar   12   0.167   1.406   4.361
    1   AR   Ar   13   0.214   0.535   4.861
    1   AR   Ar   14   3.905   0.786   6.529
    1   AR   Ar   15   2.559   5.725   9.721
    1   AR   Ar   16   6.989   0.053   5.943
    1   AR   Ar   17   5.855   3.477   0.818
    1   AR   Ar   18   6.534   4.537  -2.402
    1   AR   Ar   19   5.481   4.869   0.817
    1   AR   Ar   20   6.553   3.458  -2.145
    1   AR   Ar   21   2.442   1.490   2.132
    1   AR   Ar   22   5.040   0.101   1.977
    1   AR   Ar   23   0.893   5.966   0.870
    1   AR   Ar   24   5.947   2.554   3.523
    1   AR   Ar   25   0.975   2.899   5.734
    1   AR   Ar   26   5.899   6.074   4.633
    1   AR   Ar   27   1.184   7.081   1.605
    1   AR   Ar   28   2.430   2.534   3.489
    1   AR   Ar   29   5.615   0.829   8.055
    1   AR   Ar   30   0.005   0.860   3.221
    1   AR   Ar   31   1.183   0.620   7.026
    1   AR   Ar   32   1.055   1.694   6.077
    1   AR   Ar   33   6.537   4.689   0.889
    1   AR   Ar   34   1.686   4.913   3.092
    1   AR   Ar   35   5.374   5.457   2.563
    1   AR   Ar   36   3.906   2.199  -3.699
    1   AR   Ar   37   4.362   3.542   1.411
    1   AR   Ar   38   5.872   4.642   4.352
    1   AR   Ar   39   0.375   2.636   4.443
    1   AR   Ar   40   0.784   4.152   2.187
    1   AR   Ar   41   0.721   1.651   3.411
    1   AR   Ar   42   5.601   5.697   5.825
    1   AR   Ar   43   7.090   2.726   6.183
    1   AR   Ar   44   1.576   3.779   3.413
    1   AR   Ar   45   1.894   3.728   5.559
    1   AR   Ar   46   6.145   5.226   6.565
    1   AR   Ar   47   2.910   3.602   6.631
    1   AR   Ar   48   7.017   3.045   7.223
    1   AR   Ar   49   0.616   1.453   0.399
    1   AR   Ar   50   2.722   4.114   0.175
    1   AR   Ar   51   5.066   3.624   2.905
    1   AR   Ar   52   5.604   3.530  -1.639
    1   AR   Ar   53   4.600   0.241   3.280
    1   AR   Ar   54   6.771   6.859   2.739
    1   AR   Ar   55   6.839   4.610   2.527
    1   AR   Ar   56   5.705   1.691   2.984
    1   AR   Ar   57   4.048   5.038   2.134
    1   AR   Ar   58   1.324   3.264   4.493
    1   AR   Ar   59   2.879   5.646   5.407
    1   AR   Ar   60   0.677   5.018   2.942
    1   AR   Ar   61   7.108   4.389   6.580
    1   AR   Ar   62   6.825   4.430   5.178
    1   AR   Ar   63   1.993   2.209   6.951
    1   AR   Ar   64   0.693   5.115   4.008
    1   AR   Ar   65   3.953   0.893   2.755
    1   AR   Ar   66   1.482   1.318   1.408
    1   AR   Ar   67   4.549   0.722  -0.424
    1   AR   Ar   68   6.831   0.755   0.404
    1   AR   Ar   69   2.811   2.475   0.533
    1   AR   Ar   70   0.038   1.296   1.483
    1   AR   Ar   71   2.846   0.652   2.802
    1   AR   Ar   72   4.571   1.316   1.335
    1   AR   Ar   73   2.970   0.323   4.333
    1   AR   Ar   74   0.971   0.518   3.347
    1   AR   Ar   75   2.386   0.704   5.383
    1   AR   Ar   76   2.397   0.509   1.675
    1   AR   Ar   77   1.142   5.707   5.764
    1   AR   Ar   78   0.063   5.236   5.692
    1   AR   Ar   79   3.560   6.957   5.141
    1   AR   Ar   80   3.521   4.854   5.941
    1   AR   Ar   81   1.678   6.329   2.057
    1   AR   Ar   82   6.991   5.683   1.343
    1   AR   Ar   83   0.998   3.237   1.621
    1   AR   Ar   84   0.669   4.986   0.999
    1   AR   Ar   85   0.358   3.135  -0.308
    1   AR   Ar   86   1.887   5.400   1.346
    1   AR   Ar   87   3.636   3.134   2.740
    1   AR   Ar   88   3.322   5.235   0.880
    1   AR   Ar   89   5.776   2.199   0.972
    1   AR   Ar   90   2.809   1.160   6.174
    1   AR   Ar   91   1.843   1.183   3.028
    1   AR   Ar   92   3.078   2.409   1.637
    1   AR   Ar   93   0.790   0.768   5.623
    1   AR   Ar   94   6.668   6.656   8.849
    1   AR   Ar   95   5.500   0.824   6.996
    1   AR   Ar   96   2.355   6.585   5.107
    1   AR   Ar   97   4.632   1.295  -1.593
    1   AR   Ar   98   1.667   4.491   4.017
    1   AR   Ar   99   6.603   6.639  -0.952
    1   AR   Ar  100   5.473   3.145  -2.579
    1   AR   Ar  101   3.731   5.953   3.144
    1   AR   Ar  102   4.181   1.914   2.498
    1   AR   Ar  103   2.044   4.354   1.805
    1   AR   Ar  104   3.485   0.195  -0.641
    1   AR   Ar  105   2.829   2.523   2.621
    1   AR   Ar  106   4.602   1.254   3.913
    1   AR   Ar  107   1.157   4.606   5.002
    1   AR   Ar  108   2.102   0.332   3.694
    1   AR   Ar  109   2.187   4.579   4.993
    1   AR   Ar  110   1.725   2.356   4.944
    1   AR   Ar  111   3.609   4.443   6.949
    1   AR   Ar  112   6.409   6.280   5.766
    1   AR   Ar  113   0.199   6.059  -1.578
    1   AR   Ar  114   2.698   0.278   0.136
    1   AR   Ar  115   0.534   4.527  -0.280
    1   AR   Ar  116   5.439   1.513   0.234
    1   AR   Ar  117   0.249   4.259   3.416
    1   AR   Ar  118   1.718   6.430   3.917
    1   AR   Ar  119   1.930   3.103   2.647
    1   AR   Ar  120   2.159   6.991   2.721
    1   AR   Ar  121   4.680   4.063   6.920
    1   AR   Ar  122   3.100   5.263   3.604
    1   AR   Ar  123   3.327   2.366   5.238
    1   AR   Ar  124   1.065   5.220   2.031
    1   AR   Ar  125   6.054   3.822   3.557
    1   AR   Ar  126   7.040   0.612   7.790
    1   AR   Ar  127   4.892   3.448   5.900
    1   AR   Ar  128   1.090   3.809   6.198
    1   AR   Ar  129   1.713   5.728   4.730
    1   AR   Ar  130   5.005   0.843  -5.018
    1   AR   Ar  131   3.704   6.357  -0.387
    1   AR   Ar  132   1.805   2.452   1.619
    1   AR   Ar  133   4.307   0.459   4.332
    1   AR   Ar  134   2.707   1.356   4.394
    1   AR   Ar  135   6.236   6.925   4.783
    1   AR   Ar  136   5.555   6.828   2.889
    1   AR   Ar  137   2.087   4.577   6.202
    1   AR   Ar  138   6.028   1.326   5.819
    1   AR   Ar  139   6.362   1.694   4.788
    1   AR   Ar  140   4.590   6.676   4.737
    1   AR   Ar  141   3.330   5.040   4.655
    1   AR   Ar  142   4.001   5.692   8.504
    1   AR   Ar  143   5.608   6.985   7.369
    1   AR   Ar  144   7.020   2.341   5.269
    1   AR   Ar  145   4.864   4.608  -1.429
    1   AR   Ar  146   3.921   2.115   4.028
    1   AR   Ar  147   4.873   4.370   0.145
    1   AR   Ar  148   2.212   6.022  -0.466
    1   AR   Ar  149   0.063   1.946  -0.399
    1   AR   Ar  150   1.364   2.266   2.571
    1   AR   Ar  151   2.922   3.438   1.932
    1   AR   Ar  152   0.756   1.323  -1.018
    1   AR   Ar  153   5.727   0.541   3.563
    1   AR   Ar  154   4.767   3.137   3.811
    1   AR   Ar  155   6.377   3.428   5.430
    1   AR   Ar  156   2.934   3.820   2.972
    1   AR   Ar  157   2.914   5.741   6.604
    1   AR   Ar  158   1.065   2.435   6.845
    1   AR   Ar  159   4.420   0.401   5.542
    1   AR   Ar  160   1.310   1.304   4.262
    1   AR   Ar  161   5.012   4.535   3.403
    1   AR   Ar  162   4.049   5.262  -1.393
    1   AR   Ar  163   6.140   3.801   2.490
    1   AR   Ar  164   2.104   5.987   3.074
    1   AR   Ar  165   3.288   4.214   1.062
    1   AR   Ar  166   2.903   3.291   5.273
    1   AR   Ar  167   6.413   6.764   3.805
    1   AR   Ar  168   5.327   4.249  -2.274
    1   AR   Ar  169   4.150   3.851   3.505
    1   AR   Ar  170   2.599   2.223   5.889
    1   AR   Ar  171   4.641   5.542   4.223
    1   AR   Ar  172   4.001   3.243   4.695
    1   AR   Ar  173   1.269   1.583   7.671
    1   AR   Ar  174   3.036   5.992   4.291
    1   AR   Ar  175   2.018   6.822   7.552
    1   AR   Ar  176   3.405   3.112   3.689
    1   AR   Ar  177   6.971   4.301  -1.289
    1   AR   Ar  178   2.202   6.509   1.051
    1   AR   Ar  179   3.325   6.372   0.607
    1   AR   Ar  180   5.300   7.069  -7.439
    1   AR   Ar  181   0.653   6.333   2.128
    1   AR   Ar  182   1.042   6.708   2.886
    1   AR   Ar  183   4.795   5.601   1.483
    1   AR   Ar  184   4.174   5.337   0.155
    1   AR   Ar  185   3.220   3.897   4.437
    1   AR   Ar  186   2.873   6.639   3.526
    1   AR   Ar  187   3.863   6.650   3.960
    1   AR   Ar  188   3.383   0.966   1.760
    1   AR   Ar  189   6.064   2.455   6.187
    1   AR   Ar  190   1.269   0.230   4.428
    1   AR   Ar  191   3.981   5.817   4.968
    1   AR   Ar  192   3.817   3.334   6.150
    1   AR   Ar  193   3.297   6.283   1.763
    1   AR   Ar  194   4.785   6.006  -0.343
    1   AR   Ar  195   6.011   0.894   1.105
    1   AR   Ar  196   4.352   6.570   0.816
    1   AR   Ar  197   4.782   2.956   0.105
    1   AR   Ar  198   6.716   6.619   1.357
    1   AR   Ar  199   0.010   0.527   2.077
    1   AR   Ar  200   5.915   2.628   0.049
    1   AR   Ar  201   6.472   5.698   2.697
    1   AR   Ar  202   5.351   0.263   4.588
    1   AR   Ar  203   0.294   6.939   3.732
    1   AR   Ar  204   4.549   4.978   7.707
    1   AR   Ar  205   5.320   1.796   1.883
    1   AR   Ar  206   5.962   0.216   6.246
    1   AR   Ar  207   6.896   3.819   4.259
    1   AR   Ar  208   0.607   5.982   3.479
    1   AR   Ar  209   5.520   1.689  -2.072
    1   AR   Ar  210   1.930   0.967  -0.279
    1   AR   Ar  211   6.857   3.032   0.646
    1   AR   Ar  212   6.834   3.980   0.033
    1   AR   Ar  213   3.700   1.738   0.844
    1   AR   Ar  214   5.188   4.615   2.045
    1   AR   Ar  215   0.388   2.963   2.408
    1   AR   Ar  216   2.041   2.249  -0.330
    1   AR   Ar  217   5.121   2.174   4.032
    1   AR   Ar  218   5.008   2.529   5.107
    1   AR   Ar  219   4.342   4.141   2.444
    1   AR   Ar  220   4.340   4.661   1.062
    1   AR   Ar  221   6.788   5.741   3.656
    1   AR   Ar  222   5.079   6.657   6.040
    1   AR   Ar  223   7.038   1.338   5.700
    1   AR   Ar  224   5.323   1.499   4.887
    1   AR   Ar  225   6.562   2.346   2.583
    1   AR   Ar  226   2.353   3.554   4.022
    1   AR   Ar  227   1.180   2.580   3.661
    1   AR   Ar  228   6.136   0.920   2.368
    1   AR   Ar  229   5.956   4.372  -0.995
    1   AR   Ar  230   3.955   4.809   3.081
    1   AR   Ar  231   5.033   2.424   2.941
    1   AR   Ar  232   5.345   3.082   2.023
    1   AR   Ar  233   6.922   2.203   3.665
    1   AR   Ar  234   5.923   2.693   4.560
    1   AR   Ar  235   6.395   0.872   4.185
    1   AR   Ar  236   4.056   4.300   5.049
    1   AR   Ar  237   4.408   1.377   7.409
    1   AR   Ar  238   4.629   4.864   5.813
    1   AR   Ar  239   1.232   4.010  11.120
    1   AR   Ar  240   1.833   3.122   6.579
    1   AR   Ar  241   1.485   6.756   0.051
    1   AR   Ar  242   5.987   6.389   2.069
    1   AR   Ar  243   4.253   6.384   1.850
    1   AR   Ar  244   6.369   5.986  -0.009
    1   AR   Ar  245   3.363   1.356   3.488
    1   AR   Ar  246   4.958   6.442  -1.397
    1   AR   Ar  247   0.008   3.907   1.525
    1   AR   Ar  248   5.421   5.215  -0.406
    1   AR   Ar  249   3.358   0.409   0.899
    1   AR   Ar  250   5.036   6.497   3.752
    1   AR   Ar  251   5.259   4.054   4.981
    1   AR   Ar  252   2.723   4.855   2.594
    1   AR   Ar  253   5.029   2.423   8.266
    1   AR   Ar  254   4.439   3.847  12.597
    1   AR   Ar  255   5.059   0.241   8.935
    1   AR   Ar  256   5.591   5.659   3.740
    7.12000  7.12000 12.00000
Argon-slab step 5485
  256
    1   AR   Ar    1   4.438   3.806  -2.472
    1   AR   Ar    2   5.611   6.755   0.812
    1   AR   Ar    3   4.504   3.875  -0.717
    1   AR   Ar    4   2.602   1.321   0.979
    1   AR   Ar    5   6.844   5.344  -0.653
    1   AR   Ar    6   0.852   1.321   2.358
    1   AR   Ar    7   6.252   4.912   3.432
    1   AR   Ar    8   6.512   3.407  -0.706
    1   AR   Ar    9   0.666   5.822   4.880
    1   AR   Ar   10   5.753   4.443   5.927
    1   AR   Ar   11   0.974   6.865   5.311
    1   AR   Ar   12   0.183   1.407   4.383
    1   AR   Ar   13   0.230   0.513   4.832
    1   AR   Ar   14   3.934   0.794   6.501
    1   AR   Ar   15   2.576   5.737   9.714
    1   AR   Ar   16   6.943   0.048   5.922
    1   AR   Ar   17   5.876   3.484   0.826
    1   AR   Ar   18   6.536   4.524  -2.412
    1   AR   Ar   19   5.461   4.874   0.777
    1   AR   Ar   20   6.544   3.441  -2.110
    1   AR   Ar   21   2.451   1.469   2.157
    1   AR   Ar   22   5.037   0.122   1.977
    1   AR   Ar   23   0.893   5.988   0.865
    1   AR   Ar   24   5.919   2.561   3.538
    1   AR   Ar   25   0.995   2.907   5.729
    1   AR   Ar   26   5.896   6.057   4.643
    1   AR   Ar   27   1.184   7.068   1.606
    1   AR   Ar   28   2.436   2.509   3.493
    1   AR   Ar   29   5.594   0.800   8.053
    1   AR   Ar   30   0.028   0.829   3.198
    1   AR   Ar   31   1.184   0.647   7.030
    1   AR   Ar   32   1.041   1.698   6.090
    1   AR   Ar   33   6.502   4.741   0.874
    1   AR   Ar   34   1.669   4.908   3.124
    1   AR   Ar   35   5.368   5.448   2.548
    1   AR   Ar   36   3.890   2.174  -3.704
    1   AR   Ar   37   4.366   3.554   1.404
    1   AR   Ar   38   5.906   4.635   4.368
    1   AR   Ar   39   0.394   2.618   4.460
    1   AR   Ar   40   0.803   4.138   2.162
    1   AR   Ar   41   0.704   1.648   3.409
    1   AR   Ar   42   5.638   5.678   5.838
    1   AR   Ar   43   7.086   2.738   6.217
    1   AR   Ar   44   1.606   3.772   3.420
    1   AR   Ar   45   1.905   3.751   5.537
    1   AR   Ar   46   6.129   5.242   6.586
    1   AR   Ar   47   2.888   3.613   6.631
    1   AR   Ar   48   7.028   3.059   7.236
    1   AR   Ar   49   0.635   1.452   0.398
    1   AR   Ar   50   2.725   4.118   0.182
    1   AR   Ar   51   5.074   3.623   2.937
    1   AR   Ar   52   5.613   3.495  -1.631
    1   AR   Ar   53   4.601   0.253   3.224
    1   AR   Ar   54   6.757   6.862   2.725
    1   AR   Ar   55   6.862   4.623   2.546
    1   AR   Ar   56   5.711   1.706   2.981
    1   AR   Ar   57   4.042   5.040   2.128
    1   AR   Ar   58   1.347   3.274   4.499
    1   AR   Ar   59   2.896   5.618   5.400
    1   AR   Ar   60   0.700   5.005   2.934
    1   AR   Ar   61   7.097   4.380   6.591
    1   AR   Ar   62   6.823   4.461   5.188
    1   AR   Ar   63   2.009   2.202   6.934
    1   AR   Ar   64   0.688   5.121   4.002
    1   AR   Ar   65   3.937   0.907   2.751
    1   AR   Ar   66   1.482   1.318   1.407
    1   AR   Ar   67   4.554   0.722  -0.399
    1   AR   Ar   68   6.828   0.748   0.403
    1   AR   Ar   69   2.828   2.490   0.563
    1   AR   Ar   70   0.066   1.288   1.461
    1   AR   Ar   71   2.852   0.643   2.829
    1   AR   Ar   72   4.552   1.323   1.336
    1   AR   Ar   73   2.950   0.336   4.366
    1   AR   Ar   74   0.948   0.529   3.341
    1   AR   Ar   75   2.403   0.698   5.358
    1   AR   Ar   76   2.384   0.479   1.676
    1   AR   Ar   77   1.094   5.718   5.788
    1   AR   Ar   78   0.058   5.229   5.701
    1   AR   Ar   79   3.531   6.967   5.108
    1   AR   Ar   80   3.536   4.837   5.920
    1   AR   Ar   81   1.695   6.325   2.049
    1   AR   Ar   82   7.027   5.641   1.342
    1   AR   Ar   83   1.019   3.236   1.633
    1   AR   Ar   84   0.680   4.974   0.987
    1   AR   Ar   85   0.287   3.151  -0.336
    1   AR   Ar   86   1.917   5.380   1.317
    1   AR   Ar   87   3.645   3.156   2.725
    1   AR   Ar   88   3.307   5.244   0.863
    1   AR   Ar   89   5.757   2.213   0.986
    1   AR   Ar   90   2.813   1.165   6.155
    1   AR   Ar   91   1.841   1.212   3.033
    1   AR   Ar   92   3.107   2.443   1.657
    1   AR   Ar   93   0.795   0.769   5.618
    1   AR   Ar   94   6.659   6.648   8.878
    1   AR   Ar   95   5.496   0.827   7.027
    1   AR   Ar   96   2.351   6.568   5.134
    1   AR   Ar   97   4.632   1.284  -1.567
    1   AR   Ar   98   1.673   4.506   4.065
    1   AR   Ar   99   6.585   6.652  -0.961
    1   AR   Ar  100   5.489   3.122  -2.610
    1   AR   Ar  101   3.749   5.942   3.137
    1   AR   Ar  102   4.182   1.949   2.484
    1   AR   Ar  103   2.046   4.383   1.814
    1   AR   Ar  104   3.483   0.200  -0.636
    1   AR   Ar  105   2.840   2.505   2.602
    1   AR   Ar  106   4.617   1.263   3.905
    1   AR   Ar  107   1.175   4.606   5.023
    1   AR   Ar  108   2.124   0.324   3.663
    1   AR   Ar  109   2.177   4.616   5.007
    1   AR   Ar  110   1.745   2.370   4.974
    1   AR   Ar  111   3.613   4.427   6.989
    1   AR   Ar  112   6.383   6.310   5.791
    1   AR   Ar  113   0.192   6.065  -1.607
    1   AR   Ar  114   2.679   0.283   0.111
    1   AR   Ar  115   0.532   4.529  -0.310
    1   AR   Ar  116   5.444   1.514   0.203
    1   AR   Ar  117   0.238   4.243   3.410
    1   AR   Ar  118   1.705   6.418   3.918
    1   AR   Ar  119   1.921   3.111   2.612
    1   AR   Ar  120   2.162   6.982   2.737
    1   AR   Ar  121   4.656   4.040   6.964
    1   AR   Ar  122   3.109   5.262   3.597
    1   AR   Ar  123   3.323   2.367   5.231
    1   AR   Ar  124   1.036   5.236   2.025
    1   AR   Ar  125   6.042   3.797   3.571
    1   AR   Ar  126   7.070   0.604   7.779
    1   AR   Ar  127   4.901   3.462   5.897
    1   AR   Ar  128   1.072   3.820   6.220
    1   AR   Ar  129   1.674   5.700   4.706
    1   AR   Ar  130   5.006   0.836  -5.018
    1   AR   Ar  131   3.694   6.372  -0.383
    1   AR   Ar  132   1.828   2.450   1.642
    1   AR   Ar  133   4.297   0.471   4.313
    1   AR   Ar  134   2.737   1.336   4.423
    1   AR   Ar  135   6.247   6.926   4.853
    1   AR   Ar  136   5.572   6.816   2.909
    1   AR   Ar  137   2.086   4.577   6.189
    1   AR   Ar  138   6.005   1.332   5.823
    1   AR   Ar  139   6.338   1.710   4.799
    1   AR   Ar  140   4.627   6.683   4.756
    1   AR   Ar  141   3.320   5.073   4.638
    1   AR   Ar  142   3.970   5.663   8.515
    1   AR   Ar  143   5.608   6.977   7.373
    1   AR   Ar  144   7.039   2.319   5.297
    1   AR   Ar  145   4.859   4.633  -1.476
    1   AR   Ar  146   3.946   2.091   4.021
    1   AR   Ar  147   4.865   4.377   0.109
    1   AR   Ar  148   2.220   6.022  -0.441
    1   AR   Ar  149   0.032   1.937  -0.373
    1   AR   Ar  150   1.358   2.257   2.557
    1   AR   Ar  151   2.915   3.460   1.928
    1   AR   Ar  152   0.762   1.326  -1.025
    1   AR   Ar  153   5.710   0.523   3.506
    1   AR   Ar  154   4.778   3.138   3.835
    1   AR   Ar  155   6.383   3.421   5.451
    1   AR   Ar  156   2.915   3.818   2.978
    1   AR   Ar  157   2.906   5.769   6.637
    1   AR   Ar  158   1.056   2.466   6.873
    1   AR   Ar  159   4.441   0.386   5.547
    1   AR   Ar  160   1.258   1.277   4.253
    1   AR   Ar  161   5.027   4.514   3.401
    1   AR   Ar  162   4.034   5.282  -1.385
    1   AR   Ar  163   6.152   3.792   2.475
    1   AR   Ar  164   2.099   5.976   3.078
    1   AR   Ar  165   3.310   4.217   1.089
    1   AR   Ar  166   2.894   3.294   5.269
    1   AR   Ar  167   6.394   6.791   3.811
    1   AR   Ar  168   5.339   4.232  -2.257
    1   AR   Ar  169   4.150   3.844   3.504
    1   AR   Ar  170   2.564   2.205   5.908
    1   AR   Ar  171   4.637   5.557   4.228
    1   AR   Ar  172   4.022   3.228   4.689
    1   AR   Ar  173   1.254   1.567   7.678
    1   AR   Ar  174   3.038   6.004   4.265
    1   AR   Ar  175   1.964   6.825   7.547
    1   AR   Ar  176   3.416   3.098   3.693
    1   AR   Ar  177   6.934   4.315  -1.298
    1   AR   Ar  178   2.201   6.514   1.055
    1   AR   Ar  179   3.307   6.362   0.634
    1   AR   Ar  180   5.295   7.031  -7.427
    1   AR   Ar  181   0.608   6.323   2.155
    1   AR   Ar  182   1.055   6.741   2.896
    1   AR   Ar  183   4.780   5.639   1.497
    1   AR   Ar  184   4.171   5.376   0.157
    1   AR   Ar  185   3.240   3.915   4.401
    1   AR   Ar  186   2.878   6.636   3.499
    1   AR   Ar  187   3.834   6.666   3.999
    1   AR   Ar  188   3.400   0.974   1.768
    1   AR   Ar  189   6.063   2.451   6.240
    1   AR   Ar  190   1.292   0.224   4.438
    1   AR   Ar  191   3.973   5.810   4.959
    1   AR   Ar  192   3.797   3.325   6.121
    1   AR   Ar  193   3.297   6.275   1.779
    1   AR   Ar  194   4.782   5.997  -0.382
    1   AR   Ar  195   6.034   0.890   1.114
    1   AR   Ar  196   4.327   6.568   0.810
    1   AR   Ar  197   4.781   2.930   0.112
    1   AR   Ar  198   6.704   6.637   1.357
    1   AR   Ar  199   0.020   0.520   2.104
    1   AR   Ar  200   5.892   2.626   0.043
    1   AR   Ar  201   6.470   5.696   2.733
    1   AR   Ar  202   5.358   0.255   4.607
    1   AR   Ar  203   0.291   6.961   3.729
    1   AR   Ar  204   4.570   4.987   7.744
    1   AR   Ar  205   5.333   1.798   1.884
    1   AR   Ar  206   5.961   0.205   6.235
    1   AR   Ar  207   6.940   3.852   4.257
    1   AR   Ar  208   0.596   5.984   3.485
    1   AR   Ar  209   5.546   1.656  -2.091
    1   AR   Ar  210   1.913   0.986  -0.236
    1   AR   Ar  211   6.886   3.033   0.626
    1   AR   Ar  212   6.832   3.977   0.034
    1   AR   Ar  213   3.743   1.750   0.814
    1   AR   Ar  214   5.200   4.632   2.063
    1   AR   Ar  215   0.369   2.927   2.424
    1   AR   Ar  216   2.030   2.278  -0.299
    1   AR   Ar  217   5.099   2.182   4.031
    1   AR   Ar  218   4.993   2.497   5.111
    1   AR   Ar  219   4.334   4.138   2.428
    1   AR   Ar  220   4.348   4.698   1.083
    1   AR   Ar  221   6.778   5.764   3.660
    1   AR   Ar  222   5.049   6.643   6.032
    1   AR   Ar  223   7.028   1.371   5.723
    1   AR   Ar  224   5.301   1.481   4.903
    1   AR   Ar  225   6.574   2.345   2.563
    1   AR   Ar  226   2.402   3.545   4.029
    1   AR   Ar  227   1.191   2.561   3.683
    1   AR   Ar  228   6.132   0.905   2.348
    1   AR   Ar  229   5.957   4.375  -0.959
    1   AR   Ar  230   3.951   4.788   3.099
    1   AR   Ar  231   5.044   2.447   2.957
    1   AR   Ar  232   5.319   3.089   2.003
    1   AR   Ar  233   6.917   2.251   3.674
    1   AR   Ar  234   5.938   2.722   4.577
    1   AR   Ar  235   6.399   0.899   4.196
    1   AR   Ar  236   4.061   4.300   5.048
    1   AR   Ar  237   4.414   1.392   7.411
    1   AR   Ar  238   4.652   4.851   5.766
    1   AR   Ar  239   1.229   4.008  11.106
    1   AR   Ar  240   1.849   3.092   6.580
    1   AR   Ar  241   1.494   6.733   0.037
    1   AR   Ar  242   5.996   6.392   2.072
    1   AR   Ar  243   4.250   6.389   1.865
    1   AR   Ar  244   6.368   6.015   0.025
    1   AR   Ar  245   3.360   1.398   3.501
    1   AR   Ar  246   4.947   6.435  -1.398
    1   AR   Ar  247   0.014   3.889   1.522
    1   AR   Ar  248   5.418   5.202  -0.424
    1   AR   Ar  249   3.363   0.431   0.881
    1   AR   Ar  250   5.019   6.475   3.768
    1   AR   Ar  251   5.268   4.028   4.963
    1   AR   Ar  252   2.705   4.844   2.584
    1   AR   Ar  253   5.046   2.430   8.235
    1   AR   Ar  254   4.414   3.822  12.622
    1   AR   Ar  255   5.074   0.221   8.917
    1   AR   Ar  256   5.599   5.634   3.761
    7.12000  7.12000 12.00000
Argon-slab step 5490
  256
    1   AR   Ar    1   4.414   3.791  -2.460
    1   AR   Ar    2   5.626   6.828   0.846
    1   AR   Ar    3   4.493   3.850  -0.713
    1   AR   Ar    4   2.579   1.333   1.005
    1   AR   Ar    5   6.848   5.336  -0.662
    1   AR   Ar    6   0.817   1.277   2.319
    1   AR   Ar    7   6.250   4.918   3.430
    1   AR   Ar    8   6.496   3.411  -0.723
    1   AR   Ar    9   0.665   5.831   4.915
    1   AR   Ar   10   5.739   4.445   5.917
    1   AR   Ar   11   0.959   6.831   5.317
    1   AR   Ar   12   0.201   1.418   4.402
    1   AR   Ar   13   0.241   0.480   4.799
    1   AR   Ar   14   3.962   0.803   6.473
    1   AR   Ar   15   2.594   5.748   9.707
    1   AR   Ar   16   6.905   0.049   5.898
    1   AR   Ar   17   5.897   3.490   0.833
    1   AR   Ar   18   6.559   4.508  -2.408
    1   AR   Ar   19   5.434   4.881   0.738
    1   AR   Ar   20   6.560   3.425  -2.102
    1   AR   Ar   21   2.460   1.451   2.181
    1   AR   Ar   22   5.039   0.138   1.977
    1   AR   Ar   23   0.896   6.015   0.860
    1   AR   Ar   24   5.895   2.575   3.551
    1   AR   Ar   25   1.015   2.910   5.721
    1   AR   Ar   26   5.886   6.026   4.654
    1   AR   Ar   27   1.181   7.062   1.603
    1   AR   Ar   28   2.434   2.485   3.509
    1   AR   Ar   29   5.574   0.770   8.056
    1   AR   Ar   30   0.035   0.801   3.173
    1   AR   Ar   31   1.185   0.675   7.033
    1   AR   Ar   32   1.027   1.705   6.103
    1   AR   Ar   33   6.470   4.792   0.860
    1   AR   Ar   34   1.663   4.905   3.152
    1   AR   Ar   35   5.365   5.453   2.544
    1   AR   Ar   36   3.875   2.148  -3.709
    1   AR   Ar   37   4.369   3.566   1.397
    1   AR   Ar   38   5.940   4.629   4.387
    1   AR   Ar   39   0.378   2.610   4.476
    1   AR   Ar   40   0.824   4.127   2.142
    1   AR   Ar   41   0.687   1.644   3.405
    1   AR   Ar   42   5.659   5.654   5.842
    1   AR   Ar   43   7.087   2.753   6.255
    1   AR   Ar   44   1.629   3.756   3.414
    1   AR   Ar   45   1.905   3.725   5.572
    1   AR   Ar   46   6.132   5.250   6.595
    1   AR   Ar   47   2.863   3.626   6.630
    1   AR   Ar   48   7.040   3.074   7.251
    1   AR   Ar   49   0.653   1.450   0.399
    1   AR   Ar   50   2.727   4.122   0.189
    1   AR   Ar   51   5.088   3.614   2.965
    1   AR   Ar   52   5.638   3.497  -1.615
    1   AR   Ar   53   4.605   0.264   3.171
    1   AR   Ar   54   6.743   6.862   2.718
    1   AR   Ar   55   6.886   4.638   2.562
    1   AR   Ar   56   5.723   1.712   2.978
    1   AR   Ar   57   4.035   5.054   2.111
    1   AR   Ar   58   1.370   3.287   4.505
    1   AR   Ar   59   2.911   5.592   5.396
    1   AR   Ar   60   0.724   4.987   2.933
    1   AR   Ar   61   7.087   4.371   6.600
    1   AR   Ar   62   6.817   4.483   5.192
    1   AR   Ar   63   2.037   2.177   6.921
    1   AR   Ar   64   0.684   5.120   4.001
    1   AR   Ar   65   3.921   0.922   2.744
    1   AR   Ar   66   1.483   1.318   1.408
    1   AR   Ar   67   4.558   0.722  -0.373
    1   AR   Ar   68   6.817   0.729   0.380
    1   AR   Ar   69   2.844   2.504   0.593
    1   AR   Ar   70   0.092   1.295   1.464
    1   AR   Ar   71   2.859   0.636   2.856
    1   AR   Ar   72   4.533   1.326   1.339
    1   AR   Ar   73   2.932   0.343   4.397
    1   AR   Ar   74   0.942   0.545   3.338
    1   AR   Ar   75   2.416   0.686   5.325
    1   AR   Ar   76   2.370   0.447   1.676
    1   AR   Ar   77   1.088   5.723   5.816
    1   AR   Ar   78   0.057   5.231   5.716
    1   AR   Ar   79   3.505   6.975   5.075
    1   AR   Ar   80   3.550   4.820   5.898
    1   AR   Ar   81   1.716   6.311   2.043
    1   AR   Ar   82   7.063   5.597   1.343
    1   AR   Ar   83   1.043   3.234   1.643
    1   AR   Ar   84   0.691   4.956   0.976
    1   AR   Ar   85   0.225   3.163  -0.361
    1   AR   Ar   86   1.946   5.362   1.288
    1   AR   Ar   87   3.665   3.178   2.699
    1   AR   Ar   88   3.292   5.256   0.847
    1   AR   Ar   89   5.738   2.226   1.003
    1   AR   Ar   90   2.821   1.174   6.142
    1   AR   Ar   91   1.837   1.240   3.038
    1   AR   Ar   92   3.140   2.473   1.665
    1   AR   Ar   93   0.811   0.773   5.607
    1   AR   Ar   94   6.649   6.640   8.907
    1   AR   Ar   95   5.491   0.835   7.051
    1   AR   Ar   96   2.347   6.552   5.158
    1   AR   Ar   97   4.632   1.273  -1.540
    1   AR   Ar   98   1.679   4.529   4.125
    1   AR   Ar   99   6.567   6.665  -0.970
    1   AR   Ar  100   5.505   3.100  -2.643
    1   AR   Ar  101   3.769   5.933   3.129
    1   AR   Ar  102   4.182   1.985   2.470
    1   AR   Ar  103   2.047   4.412   1.824
    1   AR   Ar  104   3.480   0.213  -0.632
    1   AR   Ar  105   2.851   2.484   2.582
    1   AR   Ar  106   4.640   1.286   3.884
    1   AR   Ar  107   1.184   4.606   5.046
    1   AR   Ar  108   2.144   0.318   3.635
    1   AR   Ar  109   2.180   4.657   5.021
    1   AR   Ar  110   1.765   2.383   5.004
    1   AR   Ar  111   3.617   4.411   7.027
    1   AR   Ar  112   6.364   6.343   5.814
    1   AR   Ar  113   0.183   6.071  -1.635
    1   AR   Ar  114   2.657   0.285   0.085
    1   AR   Ar  115   0.539   4.528  -0.334
    1   AR   Ar  116   5.448   1.514   0.172
    1   AR   Ar  117   0.227   4.223   3.403
    1   AR   Ar  118   1.691   6.411   3.920
    1   AR   Ar  119   1.915   3.123   2.576
    1   AR   Ar  120   2.163   6.973   2.749
    1   AR   Ar  121   4.633   4.018   7.006
    1   AR   Ar  122   3.114   5.252   3.584
    1   AR   Ar  123   3.327   2.364   5.218
    1   AR   Ar  124   1.011   5.256   2.010
    1   AR   Ar  125   6.029   3.773   3.585
    1   AR   Ar  126   7.100   0.597   7.767
    1   AR   Ar  127   4.911   3.478   5.893
    1   AR   Ar  128   1.062   3.793   6.239
    1   AR   Ar  129   1.640   5.668   4.683
    1   AR   Ar  130   5.007   0.829  -5.018
    1   AR   Ar  131   3.688   6.379  -0.377
    1   AR   Ar  132   1.856   2.447   1.663
    1   AR   Ar  133   4.279   0.466   4.305
    1   AR   Ar  134   2.764   1.322   4.453
    1   AR   Ar  135   6.272   6.946   4.931
    1   AR   Ar  136   5.588   6.800   2.929
    1   AR   Ar  137   2.086   4.578   6.175
    1   AR   Ar  138   5.976   1.338   5.826
    1   AR   Ar  139   6.314   1.730   4.813
    1   AR   Ar  140   4.661   6.682   4.779
    1   AR   Ar  141   3.311   5.095   4.618
    1   AR   Ar  142   3.940   5.633   8.526
    1   AR   Ar  143   5.609   6.965   7.378
    1   AR   Ar  144   7.052   2.283   5.350
    1   AR   Ar  145   4.863   4.652  -1.511
    1   AR   Ar  146   3.972   2.073   4.017
    1   AR   Ar  147   4.854   4.384   0.074
    1   AR   Ar  148   2.202   6.021  -0.455
    1   AR   Ar  149   7.119   1.930  -0.347
    1   AR   Ar  150   1.347   2.243   2.548
    1   AR   Ar  151   2.907   3.483   1.924
    1   AR   Ar  152   0.768   1.329  -1.031
    1   AR   Ar  153   5.690   0.508   3.450
    1   AR   Ar  154   4.792   3.136   3.863
    1   AR   Ar  155   6.389   3.413   5.470
    1   AR   Ar  156   2.890   3.819   2.987
    1   AR   Ar  157   2.896   5.791   6.663
    1   AR   Ar  158   1.033   2.500   6.901
    1   AR   Ar  159   4.464   0.370   5.550
    1   AR   Ar  160   1.209   1.252   4.244
    1   AR   Ar  161   5.043   4.501   3.403
    1   AR   Ar  162   4.018   5.304  -1.374
    1   AR   Ar  163   6.164   3.779   2.452
    1   AR   Ar  164   2.096   5.959   3.078
    1   AR   Ar  165   3.333   4.216   1.118
    1   AR   Ar  166   2.883   3.301   5.266
    1   AR   Ar  167   6.369   6.816   3.814
    1   AR   Ar  168   5.360   4.219  -2.251
    1   AR   Ar  169   4.145   3.842   3.501
    1   AR   Ar  170   2.549   2.184   5.931
    1   AR   Ar  171   4.634   5.570   4.230
    1   AR   Ar  172   4.043   3.212   4.684
    1   AR   Ar  173   1.239   1.548   7.692
    1   AR   Ar  174   3.037   6.021   4.252
    1   AR   Ar  175   1.911   6.829   7.542
    1   AR   Ar  176   3.424   3.079   3.708
    1   AR   Ar  177   6.901   4.329  -1.307
    1   AR   Ar  178   2.201   6.519   1.060
    1   AR   Ar  179   3.285   6.353   0.661
    1   AR   Ar  180   5.289   6.994  -7.415
    1   AR   Ar  181   0.550   6.302   2.166
    1   AR   Ar  182   1.045   6.726   2.898
    1   AR   Ar  183   4.774   5.668   1.506
    1   AR   Ar  184   4.165   5.411   0.162
    1   AR   Ar  185   3.267   3.940   4.368
    1   AR   Ar  186   2.881   6.639   3.467
    1   AR   Ar  187   3.807   6.682   4.037
    1   AR   Ar  188   3.416   0.986   1.779
    1   AR   Ar  189   6.062   2.446   6.291
    1   AR   Ar  190   1.315   0.218   4.445
    1   AR   Ar  191   3.961   5.808   4.957
    1   AR   Ar  192   3.779   3.318   6.090
    1   AR   Ar  193   3.280   6.264   1.792
    1   AR   Ar  194   4.778   5.997  -0.424
    1   AR   Ar  195   6.056   0.887   1.124
    1   AR   Ar  196   4.305   6.567   0.804
    1   AR   Ar  197   4.781   2.905   0.119
    1   AR   Ar  198   6.706   6.637   1.352
    1   AR   Ar  199   0.032   0.507   2.136
    1   AR   Ar  200   5.870   2.627   0.032
    1   AR   Ar  201   6.466   5.695   2.757
    1   AR   Ar  202   5.365   0.254   4.622
    1   AR   Ar  203   0.289   6.983   3.729
    1   AR   Ar  204   4.590   4.996   7.780
    1   AR   Ar  205   5.347   1.801   1.890
    1   AR   Ar  206   5.957   0.195   6.225
    1   AR   Ar  207   6.980   3.883   4.261
    1   AR   Ar  208   0.589   5.999   3.503
    1   AR   Ar  209   5.567   1.625  -2.105
    1   AR   Ar  210   1.894   1.007  -0.193
    1   AR   Ar  211   6.914   3.033   0.607
    1   AR   Ar  212   6.829   3.981   0.046
    1   AR   Ar  213   3.781   1.764   0.785
    1   AR   Ar  214   5.197   4.628   2.062
    1   AR   Ar  215   0.350   2.892   2.441
    1   AR   Ar  216   2.019   2.306  -0.267
    1   AR   Ar  217   5.076   2.186   4.034
    1   AR   Ar  218   4.977   2.468   5.116
    1   AR   Ar  219   4.326   4.121   2.409
    1   AR   Ar  220   4.357   4.734   1.105
    1   AR   Ar  221   6.762   5.789   3.680
    1   AR   Ar  222   5.020   6.631   6.023
    1   AR   Ar  223   7.022   1.401   5.747
    1   AR   Ar  224   5.277   1.461   4.919
    1   AR   Ar  225   6.565   2.397   2.568
    1   AR   Ar  226   2.398   3.537   4.000
    1   AR   Ar  227   1.203   2.542   3.703
    1   AR   Ar  228   6.127   0.888   2.328
    1   AR   Ar  229   5.952   4.377  -0.922
    1   AR   Ar  230   3.944   4.773   3.129
    1   AR   Ar  231   5.046   2.478   2.970
    1   AR   Ar  232   5.304   3.091   1.994
    1   AR   Ar  233   6.913   2.296   3.681
    1   AR   Ar  234   5.954   2.752   4.596
    1   AR   Ar  235   6.405   0.919   4.204
    1   AR   Ar  236   4.064   4.299   5.058
    1   AR   Ar  237   4.432   1.410   7.428
    1   AR   Ar  238   4.668   4.847   5.729
    1   AR   Ar  239   1.227   4.013  11.087
    1   AR   Ar  240   1.864   3.078   6.572
    1   AR   Ar  241   1.505   6.711   0.026
    1   AR   Ar  242   6.001   6.393   2.073
    1   AR   Ar  243   4.259   6.403   1.888
    1   AR   Ar  244   6.380   6.015   0.043
    1   AR   Ar  245   3.353   1.440   3.513
    1   AR   Ar  246   4.932   6.409  -1.387
    1   AR   Ar  247   0.017   3.869   1.516
    1   AR   Ar  248   5.420   5.184  -0.441
    1   AR   Ar  249   3.371   0.451   0.862
    1   AR   Ar  250   4.999   6.461   3.785
    1   AR   Ar  251   5.275   4.000   4.948
    1   AR   Ar  252   2.688   4.834   2.576
    1   AR   Ar  253   5.063   2.437   8.204
    1   AR   Ar  254   4.390   3.797  12.647
    1   AR   Ar  255   5.089   0.200   8.899
    1   AR   Ar  256   5.603   5.634   3.728
    7.12000  7.12000 12.00000
Argon-slab step 5495
  256
    1   AR   Ar    1   4.374   3.757  -2.453
    1   AR   Ar    2   5.641   6.902   0.881
    1   AR   Ar    3   4.481   3.822  -0.714
    1   AR   Ar    4   2.556   1.345   1.033
    1   AR   Ar    5   6.853   5.326  -0.672
    1   AR   Ar    6   0.783   1.232   2.282
    1   AR   Ar    7   6.250   4.913   3.422
    1   AR   Ar    8   6.498   3.401  -0.721
    1   AR   Ar    9   0.653   5.841   4.943
    1   AR   Ar   10   5.726   4.446   5.906
    1   AR   Ar   11   0.943   6.795   5.325
    1   AR   Ar   12   0.215   1.439   4.419
    1   AR   Ar   13   0.248   0.438   4.764
    1   AR   Ar   14   3.991   0.812   6.444
    1   AR   Ar   15   2.611   5.759   9.700
    1   AR   Ar   16   6.881   0.059   5.871
    1   AR   Ar   17   5.918   3.497   0.839
    1   AR   Ar   18   6.580   4.491  -2.404
    1   AR   Ar   19   5.407   4.894   0.704
    1   AR   Ar   20   6.584   3.409  -2.101
    1   AR   Ar   21   2.470   1.435   2.202
    1   AR   Ar   22   5.042   0.154   1.978
    1   AR   Ar   23   0.900   6.044   0.858
    1   AR   Ar   24   5.878   2.597   3.562
    1   AR   Ar   25   1.035   2.907   5.710
    1   AR   Ar   26   5.891   6.043   4.656
    1   AR   Ar   27   1.187   7.035   1.577
    1   AR   Ar   28   2.442   2.496   3.500
    1   AR   Ar   29   5.554   0.739   8.065
    1   AR   Ar   30   0.022   0.777   3.147
    1   AR   Ar   31   1.185   0.703   7.036
    1   AR   Ar   32   1.013   1.714   6.117
    1   AR   Ar   33   6.443   4.841   0.846
    1   AR   Ar   34   1.673   4.901   3.180
    1   AR   Ar   35   5.381   5.451   2.547
    1   AR   Ar   36   3.859   2.122  -3.713
    1   AR   Ar   37   4.373   3.580   1.391
    1   AR   Ar   38   5.975   4.622   4.408
    1   AR   Ar   39   0.356   2.606   4.492
    1   AR   Ar   40   0.847   4.121   2.127
    1   AR   Ar   41   0.670   1.641   3.399
    1   AR   Ar   42   5.664   5.627   5.835
    1   AR   Ar   43   7.092   2.770   6.294
    1   AR   Ar   44   1.642   3.740   3.400
    1   AR   Ar   45   1.904   3.696   5.603
    1   AR   Ar   46   6.143   5.253   6.614
    1   AR   Ar   47   2.838   3.639   6.628
    1   AR   Ar   48   7.052   3.090   7.267
    1   AR   Ar   49   0.673   1.447   0.401
    1   AR   Ar   50   2.730   4.126   0.196
    1   AR   Ar   51   5.106   3.595   2.986
    1   AR   Ar   52   5.663   3.494  -1.590
    1   AR   Ar   53   4.613   0.271   3.121
    1   AR   Ar   54   6.728   6.860   2.716
    1   AR   Ar   55   6.907   4.654   2.574
    1   AR   Ar   56   5.737   1.710   2.974
    1   AR   Ar   57   4.026   5.075   2.089
    1   AR   Ar   58   1.394   3.301   4.511
    1   AR   Ar   59   2.922   5.571   5.397
    1   AR   Ar   60   0.734   4.974   2.933
    1   AR   Ar   61   7.075   4.363   6.607
    1   AR   Ar   62   6.805   4.495   5.190
    1   AR   Ar   63   2.068   2.147   6.917
    1   AR   Ar   64   0.681   5.113   4.006
    1   AR   Ar   65   3.904   0.939   2.736
    1   AR   Ar   66   1.485   1.318   1.409
    1   AR   Ar   67   4.562   0.722  -0.347
    1   AR   Ar   68   6.807   0.711   0.356
    1   AR   Ar   69   2.860   2.517   0.624
    1   AR   Ar   70   0.118   1.305   1.463
    1   AR   Ar   71   2.868   0.631   2.883
    1   AR   Ar   72   4.517   1.327   1.344
    1   AR   Ar   73   2.939   0.349   4.410
    1   AR   Ar   74   0.960   0.565   3.338
    1   AR   Ar   75   2.427   0.672   5.288
    1   AR   Ar   76   2.355   0.414   1.678
    1   AR   Ar   77   1.094   5.726   5.851
    1   AR   Ar   78   0.060   5.244   5.738
    1   AR   Ar   79   3.484   6.978   5.046
    1   AR   Ar   80   3.564   4.803   5.877
    1   AR   Ar   81   1.734   6.300   2.037
    1   AR   Ar   82   7.099   5.555   1.347
    1   AR   Ar   83   1.068   3.228   1.652
    1   AR   Ar   84   0.704   4.934   0.964
    1   AR   Ar   85   0.185   3.167  -0.380
    1   AR   Ar   86   1.974   5.346   1.259
    1   AR   Ar   87   3.692   3.198   2.667
    1   AR   Ar   88   3.278   5.269   0.831
    1   AR   Ar   89   5.721   2.240   1.020
    1   AR   Ar   90   2.832   1.183   6.133
    1   AR   Ar   91   1.831   1.269   3.045
    1   AR   Ar   92   3.178   2.499   1.656
    1   AR   Ar   93   0.831   0.777   5.597
    1   AR   Ar   94   6.639   6.633   8.936
    1   AR   Ar   95   5.484   0.847   7.066
    1   AR   Ar   96   2.343   6.536   5.179
    1   AR   Ar   97   4.633   1.261  -1.512
    1   AR   Ar   98   1.685   4.553   4.185
    1   AR   Ar   99   6.550   6.675  -0.978
    1   AR   Ar  100   5.520   3.078  -2.675
    1   AR   Ar  101   3.792   5.927   3.120
    1   AR   Ar  102   4.181   2.021   2.455
    1   AR   Ar  103   2.046   4.438   1.834
    1   AR   Ar  104   3.477   0.233  -0.629
    1   AR   Ar  105   2.857   2.462   2.572
    1   AR   Ar  106   4.668   1.308   3.856
    1   AR   Ar  107   1.180   4.608   5.073
    1   AR   Ar  108   2.160   0.318   3.617
    1   AR   Ar  109   2.196   4.701   5.038
    1   AR   Ar  110   1.786   2.397   5.036
    1   AR   Ar  111   3.620   4.395   7.065
    1   AR   Ar  112   6.347   6.374   5.837
    1   AR   Ar  113   0.174   6.076  -1.662
    1   AR   Ar  114   2.634   0.285   0.060
    1   AR   Ar  115   0.546   4.528  -0.359
    1   AR   Ar  116   5.453   1.515   0.142
    1   AR   Ar  117   0.218   4.201   3.393
    1   AR   Ar  118   1.675   6.408   3.923
    1   AR   Ar  119   1.912   3.138   2.540
    1   AR   Ar  120   2.160   6.963   2.752
    1   AR   Ar  121   4.610   3.995   7.047
    1   AR   Ar  122   3.114   5.237   3.566
    1   AR   Ar  123   3.334   2.358   5.203
    1   AR   Ar  124   0.990   5.280   1.986
    1   AR   Ar  125   6.015   3.749   3.600
    1   AR   Ar  126   0.011   0.589   7.755
    1   AR   Ar  127   4.920   3.495   5.888
    1   AR   Ar  128   1.053   3.787   6.234
    1   AR   Ar  129   1.613   5.632   4.660
    1   AR   Ar  130   5.007   0.822  -5.018
    1   AR   Ar  131   3.684   6.377  -0.368
    1   AR   Ar  132   1.887   2.444   1.682
    1   AR   Ar  133   4.256   0.454   4.302
    1   AR   Ar  134   2.790   1.319   4.483
    1   AR   Ar  135   6.302   6.971   5.010
    1   AR   Ar  136   5.602   6.776   2.946
    1   AR   Ar  137   2.087   4.580   6.161
    1   AR   Ar  138   5.945   1.343   5.830
    1   AR   Ar  139   6.289   1.755   4.830
    1   AR   Ar  140   4.688   6.674   4.807
    1   AR   Ar  141   3.302   5.103   4.594
    1   AR   Ar  142   3.947   5.638   8.527
    1   AR   Ar  143   5.630   6.919   7.389
    1   AR   Ar  144   7.064   2.261   5.395
    1   AR   Ar  145   4.877   4.662  -1.532
    1   AR   Ar  146   3.998   2.064   4.017
    1   AR   Ar  147   4.841   4.392   0.040
    1   AR   Ar  148   2.185   6.019  -0.469
    1   AR   Ar  149   7.087   1.924  -0.320
    1   AR   Ar  150   1.333   2.225   2.544
    1   AR   Ar  151   2.898   3.509   1.921
    1   AR   Ar  152   0.774   1.333  -1.035
    1   AR   Ar  153   5.670   0.505   3.400
    1   AR   Ar  154   4.807   3.136   3.894
    1   AR   Ar  155   6.394   3.405   5.490
    1   AR   Ar  156   2.863   3.821   2.999
    1   AR   Ar  157   2.880   5.795   6.658
    1   AR   Ar  158   1.004   2.533   6.928
    1   AR   Ar  159   4.486   0.354   5.551
    1   AR   Ar  160   1.166   1.227   4.236
    1   AR   Ar  161   5.061   4.500   3.408
    1   AR   Ar  162   4.001   5.328  -1.362
    1   AR   Ar  163   6.175   3.766   2.430
    1   AR   Ar  164   2.093   5.937   3.075
    1   AR   Ar  165   3.349   4.216   1.140
    1   AR   Ar  166   2.871   3.313   5.262
    1   AR   Ar  167   6.339   6.842   3.817
    1   AR   Ar  168   5.388   4.209  -2.259
    1   AR   Ar  169   4.136   3.839   3.500
    1   AR   Ar  170   2.531   2.166   5.953
    1   AR   Ar  171   4.633   5.579   4.228
    1   AR   Ar  172   4.065   3.194   4.679
    1   AR   Ar  173   1.224   1.531   7.705
    1   AR   Ar  174   3.032   6.041   4.249
    1   AR   Ar  175   1.856   6.833   7.536
    1   AR   Ar  176   3.409   3.079   3.724
    1   AR   Ar  177   6.872   4.342  -1.318
    1   AR   Ar  178   2.201   6.526   1.064
    1   AR   Ar  179   3.260   6.344   0.688
    1   AR   Ar  180   5.284   6.956  -7.403
    1   AR   Ar  181   0.484   6.274   2.167
    1   AR   Ar  182   1.044   6.716   2.905
    1   AR   Ar  183   4.786   5.686   1.509
    1   AR   Ar  184   4.157   5.444   0.171
    1   AR   Ar  185   3.298   3.969   4.336
    1   AR   Ar  186   2.884   6.646   3.430
    1   AR   Ar  187   3.803   6.702   4.043
    1   AR   Ar  188   3.432   1.001   1.791
    1   AR   Ar  189   6.059   2.440   6.340
    1   AR   Ar  190   1.339   0.210   4.449
    1   AR   Ar  191   3.948   5.813   4.961
    1   AR   Ar  192   3.760   3.311   6.058
    1   AR   Ar  193   3.251   6.251   1.804
    1   AR   Ar  194   4.773   6.002  -0.465
    1   AR   Ar  195   6.076   0.885   1.137
    1   AR   Ar  196   4.286   6.565   0.796
    1   AR   Ar  197   4.782   2.882   0.126
    1   AR   Ar  198   6.711   6.640   1.344
    1   AR   Ar  199   0.046   0.490   2.167
    1   AR   Ar  200   5.851   2.630   0.020
    1   AR   Ar  201   6.459   5.695   2.766
    1   AR   Ar  202   5.376   0.262   4.633
    1   AR   Ar  203   0.305   6.998   3.733
    1   AR   Ar  204   4.609   5.004   7.815
    1   AR   Ar  205   5.381   1.819   1.898
    1   AR   Ar  206   5.947   0.193   6.226
    1   AR   Ar  207   7.015   3.910   4.275
    1   AR   Ar  208   0.593   6.017   3.516
    1   AR   Ar  209   5.569   1.597  -2.096
    1   AR   Ar  210   1.874   1.029  -0.149
    1   AR   Ar  211   6.939   3.033   0.590
    1   AR   Ar  212   6.823   3.992   0.066
    1   AR   Ar  213   3.813   1.779   0.754
    1   AR   Ar  214   5.184   4.606   2.048
    1   AR   Ar  215   0.335   2.859   2.458
    1   AR   Ar  216   2.012   2.329  -0.254
    1   AR   Ar  217   5.057   2.186   4.043
    1   AR   Ar  218   4.960   2.442   5.119
    1   AR   Ar  219   4.324   4.097   2.388
    1   AR   Ar  220   4.365   4.770   1.126
    1   AR   Ar  221   6.741   5.816   3.718
    1   AR   Ar  222   4.993   6.618   6.013
    1   AR   Ar  223   7.027   1.410   5.761
    1   AR   Ar  224   5.252   1.437   4.932
    1   AR   Ar  225   6.551   2.447   2.576
    1   AR   Ar  226   2.386   3.525   3.967
    1   AR   Ar  227   1.218   2.525   3.723
    1   AR   Ar  228   6.108   0.867   2.321
    1   AR   Ar  229   5.940   4.383  -0.886
    1   AR   Ar  230   3.936   4.765   3.162
    1   AR   Ar  231   5.043   2.507   2.980
    1   AR   Ar  232   5.292   3.091   1.988
    1   AR   Ar  233   6.909   2.337   3.686
    1   AR   Ar  234   5.970   2.783   4.618
    1   AR   Ar  235   6.410   0.931   4.209
    1   AR   Ar  236   4.057   4.320   5.053
    1   AR   Ar  237   4.450   1.427   7.445
    1   AR   Ar  238   4.650   4.882   5.735
    1   AR   Ar  239   1.225   4.018  11.069
    1   AR   Ar  240   1.880   3.077   6.557
    1   AR   Ar  241   1.515   6.689   0.016
    1   AR   Ar  242   6.004   6.392   2.070
    1   AR   Ar  243   4.271   6.430   1.920
    1   AR   Ar  244   6.392   6.017   0.061
    1   AR   Ar  245   3.342   1.478   3.522
    1   AR   Ar  246   4.917   6.383  -1.379
    1   AR   Ar  247   0.016   3.850   1.509
    1   AR   Ar  248   5.423   5.164  -0.457
    1   AR   Ar  249   3.379   0.469   0.843
    1   AR   Ar  250   4.962   6.455   3.795
    1   AR   Ar  251   5.280   3.971   4.933
    1   AR   Ar  252   2.672   4.826   2.570
    1   AR   Ar  253   5.079   2.442   8.172
    1   AR   Ar  254   4.366   3.771  12.672
    1   AR   Ar  255   5.104   0.180   8.880
    1   AR   Ar  256   5.606   5.634   3.692
    7.12000  7.12000 12.00000
Argon-slab step 5500
  256
    1   AR   Ar    1   4.335   3.722  -2.445
    1   AR   Ar    2   5.657   6.975   0.918
    1   AR   Ar    3   4.467   3.791  -0.721
    1   AR   Ar    4   2.535   1.358   1.061
    1   AR   Ar    5   6.856   5.315  -0.683
    1   AR   Ar    6   0.754   1.189   2.251
    1   AR   Ar    7   6.253   4.896   3.412
    1   AR   Ar    8   6.459   3.400  -0.740
    1   AR   Ar    9   0.631   5.851   4.963
    1   AR   Ar   10   5.712   4.448   5.893
    1   AR   Ar   11   0.927   6.761   5.334
    1   AR   Ar   12   0.220   1.467   4.437
    1   AR   Ar   13   0.253   0.393   4.728
    1   AR   Ar   14   4.019   0.822   6.416
    1   AR   Ar   15   2.629   5.771   9.693
    1   AR   Ar   16   6.878   0.085   5.843
    1   AR   Ar   17   5.940   3.503   0.845
    1   AR   Ar   18   6.600   4.473  -2.398
    1   AR   Ar   19   5.380   4.910   0.674
    1   AR   Ar   20   6.609   3.394  -2.099
    1   AR   Ar   21   2.481   1.420   2.221
    1   AR   Ar   22   5.047   0.169   1.981
    1   AR   Ar   23   0.905   6.073   0.859
    1   AR   Ar   24   5.866   2.623   3.573
    1   AR   Ar   25   1.054   2.898   5.697
    1   AR   Ar   26   5.903   6.086   4.649
    1   AR   Ar   27   1.189   7.012   1.550
    1   AR   Ar   28   2.449   2.516   3.489
    1   AR   Ar   29   5.535   0.708   8.081
    1   AR   Ar   30   0.006   0.807   3.144
    1   AR   Ar   31   1.186   0.729   7.036
    1   AR   Ar   32   0.999   1.726   6.131
    1   AR   Ar   33   6.420   4.888   0.830
    1   AR   Ar   34   1.697   4.897   3.208
    1   AR   Ar   35   5.410   5.442   2.553
    1   AR   Ar   36   3.844   2.097  -3.718
    1   AR   Ar   37   4.376   3.595   1.386
    1   AR   Ar   38   6.010   4.617   4.429
    1   AR   Ar   39   0.340   2.605   4.511
    1   AR   Ar   40   0.871   4.121   2.117
    1   AR   Ar   41   0.652   1.639   3.388
    1   AR   Ar   42   5.658   5.598   5.817
    1   AR   Ar   43   7.100   2.789   6.331
    1   AR   Ar   44   1.641   3.729   3.375
    1   AR   Ar   45   1.903   3.664   5.630
    1   AR   Ar   46   6.161   5.250   6.641
    1   AR   Ar   47   2.813   3.654   6.623
    1   AR   Ar   48   7.065   3.108   7.288
    1   AR   Ar   49   0.692   1.443   0.405
    1   AR   Ar   50   2.733   4.131   0.204
    1   AR   Ar   51   5.126   3.569   3.000
    1   AR   Ar   52   5.687   3.488  -1.559
    1   AR   Ar   53   4.623   0.276   3.074
    1   AR   Ar   54   6.713   6.853   2.719
    1   AR   Ar   55   6.925   4.671   2.579
    1   AR   Ar   56   5.754   1.703   2.971
    1   AR   Ar   57   4.016   5.100   2.068
    1   AR   Ar   58   1.417   3.318   4.519
    1   AR   Ar   59   2.928   5.554   5.404
    1   AR   Ar   60   0.732   4.965   2.932
    1   AR   Ar   61   7.064   4.354   6.612
    1   AR   Ar   62   6.788   4.499   5.184
    1   AR   Ar   63   2.061   2.146   6.902
    1   AR   Ar   64   0.679   5.101   4.015
    1   AR   Ar   65   3.887   0.959   2.729
    1   AR   Ar   66   1.488   1.318   1.412
    1   AR   Ar   67   4.565   0.722  -0.322
    1   AR   Ar   68   6.799   0.693   0.333
    1   AR   Ar   69   2.875   2.528   0.654
    1   AR   Ar   70   0.142   1.316   1.458
    1   AR   Ar   71   2.878   0.629   2.908
    1   AR   Ar   72   4.504   1.325   1.355
    1   AR   Ar   73   2.941   0.349   4.408
    1   AR   Ar   74   0.996   0.587   3.340
    1   AR   Ar   75   2.435   0.656   5.251
    1   AR   Ar   76   2.379   0.425   1.677
    1   AR   Ar   77   1.061   5.716   5.838
    1   AR   Ar   78   0.067   5.263   5.765
    1   AR   Ar   79   3.472   6.972   5.028
    1   AR   Ar   80   3.576   4.786   5.857
    1   AR   Ar   81   1.734   6.322   2.026
    1   AR   Ar   82   0.012   5.517   1.354
    1   AR   Ar   83   1.094   3.219   1.661
    1   AR   Ar   84   0.719   4.908   0.951
    1   AR   Ar   85   0.187   3.157  -0.388
    1   AR   Ar   86   2.001   5.334   1.230
    1   AR   Ar   87   3.722   3.217   2.634
    1   AR   Ar   88   3.264   5.282   0.816
    1   AR   Ar   89   5.704   2.256   1.034
    1   AR   Ar   90   2.845   1.190   6.126
    1   AR   Ar   91   1.823   1.297   3.053
    1   AR   Ar   92   3.222   2.522   1.634
    1   AR   Ar   93   0.851   0.780   5.586
    1   AR   Ar   94   6.629   6.626   8.965
    1   AR   Ar   95   5.476   0.865   7.070
    1   AR   Ar   96   2.340   6.520   5.198
    1   AR   Ar   97   4.622   1.258  -1.504
    1   AR   Ar   98   1.689   4.576   4.199
    1   AR   Ar   99   6.545   6.680  -0.971
    1   AR   Ar  100   5.536   3.059  -2.706
    1   AR   Ar  101   3.815   5.922   3.111
    1   AR   Ar  102   4.179   2.057   2.440
    1   AR   Ar  103   2.043   4.461   1.844
    1   AR   Ar  104   3.474   0.259  -0.627
    1   AR   Ar  105   2.860   2.440   2.571
    1   AR   Ar  106   4.682   1.284   3.879
    1   AR   Ar  107   1.168   4.610   5.105
    1   AR   Ar  108   2.152   0.332   3.617
    1   AR   Ar  109   2.224   4.746   5.062
    1   AR   Ar  110   1.807   2.410   5.067
    1   AR   Ar  111   3.621   4.381   7.100
    1   AR   Ar  112   6.327   6.390   5.864
    1   AR   Ar  113   0.164   6.081  -1.687
    1   AR   Ar  114   2.609   0.283   0.037
    1   AR   Ar  115   0.552   4.529  -0.384
    1   AR   Ar  116   5.458   1.516   0.114
    1   AR   Ar  117   0.214   4.178   3.378
    1   AR   Ar  118   1.658   6.408   3.926
    1   AR   Ar  119   1.912   3.155   2.503
    1   AR   Ar  120   2.154   6.950   2.742
    1   AR   Ar  121   4.589   3.972   7.087
    1   AR   Ar  122   3.106   5.221   3.547
    1   AR   Ar  123   3.344   2.351   5.186
    1   AR   Ar  124   0.970   5.305   1.957
    1   AR   Ar  125   6.002   3.726   3.616
    1   AR   Ar  126   0.041   0.582   7.743
    1   AR   Ar  127   4.929   3.513   5.882
    1   AR   Ar  128   1.043   3.799   6.214
    1   AR   Ar  129   1.592   5.593   4.638
    1   AR   Ar  130   5.008   0.815  -5.018
    1   AR   Ar  131   3.682   6.370  -0.356
    1   AR   Ar  132   1.882   2.449   1.673
    1   AR   Ar  133   4.235   0.443   4.303
    1   AR   Ar  134   2.814   1.329   4.513
    1   AR   Ar  135   6.331   7.002   5.081
    1   AR   Ar  136   5.613   6.738   2.958
    1   AR   Ar  137   2.089   4.563   6.161
    1   AR   Ar  138   5.912   1.348   5.833
    1   AR   Ar  139   6.265   1.783   4.848
    1   AR   Ar  140   4.708   6.658   4.837
    1   AR   Ar  141   3.296   5.097   4.567
    1   AR   Ar  142   3.963   5.651   8.526
    1   AR   Ar  143   5.656   6.865   7.401
    1   AR   Ar  144   7.076   2.265   5.426
    1   AR   Ar  145   4.887   4.675  -1.543
    1   AR   Ar  146   4.024   2.065   4.022
    1   AR   Ar  147   4.825   4.399   0.007
    1   AR   Ar  148   2.170   6.017  -0.482
    1   AR   Ar  149   7.054   1.920  -0.294
    1   AR   Ar  150   1.315   2.204   2.544
    1   AR   Ar  151   2.887   3.516   1.934
    1   AR   Ar  152   0.780   1.337  -1.037
    1   AR   Ar  153   5.652   0.518   3.359
    1   AR   Ar  154   4.824   3.142   3.926
    1   AR   Ar  155   6.400   3.396   5.509
    1   AR   Ar  156   2.834   3.823   3.013
    1   AR   Ar  157   2.864   5.799   6.653
    1   AR   Ar  158   0.972   2.566   6.954
    1   AR   Ar  159   4.509   0.338   5.549
    1   AR   Ar  160   1.134   1.201   4.226
    1   AR   Ar  161   5.079   4.508   3.417
    1   AR   Ar  162   3.986   5.353  -1.349
    1   AR   Ar  163   6.185   3.753   2.409
    1   AR   Ar  164   2.090   5.918   3.067
    1   AR   Ar  165   3.333   4.226   1.120
    1   AR   Ar  166   2.859   3.328   5.258
    1   AR   Ar  167   6.308   6.867   3.821
    1   AR   Ar  168   5.421   4.198  -2.277
    1   AR   Ar  169   4.127   3.832   3.499
    1   AR   Ar  170   2.512   2.154   5.973
    1   AR   Ar  171   4.633   5.584   4.225
    1   AR   Ar  172   4.085   3.177   4.675
    1   AR   Ar  173   1.209   1.517   7.717
    1   AR   Ar  174   3.023   6.062   4.254
    1   AR   Ar  175   1.802   6.838   7.529
    1   AR   Ar  176   3.380   3.090   3.740
    1   AR   Ar  177   6.848   4.353  -1.329
    1   AR   Ar  178   2.201   6.532   1.068
    1   AR   Ar  179   3.232   6.336   0.714
    1   AR   Ar  180   5.279   6.919  -7.391
    1   AR   Ar  181   0.414   6.244   2.162
    1   AR   Ar  182   1.051   6.709   2.914
    1   AR   Ar  183   4.805   5.696   1.509
    1   AR   Ar  184   4.148   5.476   0.184
    1   AR   Ar  185   3.331   4.000   4.305
    1   AR   Ar  186   2.890   6.654   3.392
    1   AR   Ar  187   3.812   6.720   4.023
    1   AR   Ar  188   3.446   1.017   1.802
    1   AR   Ar  189   6.056   2.434   6.387
    1   AR   Ar  190   1.362   0.200   4.452
    1   AR   Ar  191   3.934   5.824   4.969
    1   AR   Ar  192   3.742   3.305   6.023
    1   AR   Ar  193   3.217   6.236   1.815
    1   AR   Ar  194   4.766   6.007  -0.499
    1   AR   Ar  195   6.095   0.884   1.153
    1   AR   Ar  196   4.270   6.563   0.788
    1   AR   Ar  197   4.783   2.859   0.135
    1   AR   Ar  198   6.720   6.644   1.334
    1   AR   Ar  199   0.061   0.470   2.190
    1   AR   Ar  200   5.833   2.634   0.007
    1   AR   Ar  201   6.451   5.697   2.765
    1   AR   Ar  202   5.392   0.277   4.641
    1   AR   Ar  203   0.318   7.015   3.727
    1   AR   Ar  204   4.628   5.011   7.849
    1   AR   Ar  205   5.414   1.836   1.911
    1   AR   Ar  206   5.929   0.196   6.233
    1   AR   Ar  207   7.045   3.933   4.299
    1   AR   Ar  208   0.604   6.034   3.527
    1   AR   Ar  209   5.571   1.569  -2.087
    1   AR   Ar  210   1.853   1.052  -0.104
    1   AR   Ar  211   6.962   3.032   0.576
    1   AR   Ar  212   6.814   4.009   0.092
    1   AR   Ar  213   3.839   1.797   0.721
    1   AR   Ar  214   5.170   4.577   2.028
    1   AR   Ar  215   0.331   2.830   2.475
    1   AR   Ar  216   2.010   2.344  -0.271
    1   AR   Ar  217   5.046   2.186   4.058
    1   AR   Ar  218   4.942   2.420   5.123
    1   AR   Ar  219   4.347   4.080   2.365
    1   AR   Ar  220   4.374   4.802   1.144
    1   AR   Ar  221   6.717   5.845   3.768
    1   AR   Ar  222   4.967   6.605   6.001
    1   AR   Ar  223   7.043   1.383   5.764
    1   AR   Ar  224   5.227   1.409   4.943
    1   AR   Ar  225   6.527   2.492   2.585
    1   AR   Ar  226   2.386   3.509   3.945
    1   AR   Ar  227   1.233   2.508   3.742
    1   AR   Ar  228   6.103   0.867   2.312
    1   AR   Ar  229   5.911   4.404  -0.861
    1   AR   Ar  230   3.931   4.762   3.191
    1   AR   Ar  231   5.040   2.508   2.989
    1   AR   Ar  232   5.280   3.092   1.982
    1   AR   Ar  233   6.903   2.375   3.686
    1   AR   Ar  234   5.986   2.816   4.641
    1   AR   Ar  235   6.413   0.937   4.210
    1   AR   Ar  236   4.048   4.344   5.043
    1   AR   Ar  237   4.470   1.443   7.462
    1   AR   Ar  238   4.635   4.917   5.742
    1   AR   Ar  239   1.223   4.023  11.051
    1   AR   Ar  240   1.894   3.083   6.536
    1   AR   Ar  241   1.525   6.669   0.010
    1   AR   Ar  242   6.002   6.388   2.065
    1   AR   Ar  243   4.281   6.464   1.957
    1   AR   Ar  244   6.403   6.018   0.081
    1   AR   Ar  245   3.325   1.512   3.527
    1   AR   Ar  246   4.903   6.360  -1.378
    1   AR   Ar  247   0.014   3.829   1.500
    1   AR   Ar  248   5.426   5.147  -0.471
    1   AR   Ar  249   3.388   0.487   0.825
    1   AR   Ar  250   4.902   6.459   3.793
    1   AR   Ar  251   5.284   3.940   4.919
    1   AR   Ar  252   2.659   4.820   2.568
    1   AR   Ar  253   5.096   2.448   8.140
    1   AR   Ar  254   4.341   3.746  12.698
    1   AR   Ar  255   5.119   0.158   8.862
    1   AR   Ar  256   5.606   5.637   3.656
    7.12000  7.12000 12.00000
Argon-slab step 5505
  256
    1   AR   Ar    1   4.297   3.688  -2.436
    1   AR   Ar    2   5.673   7.048   0.957
    1   AR   Ar    3   4.452   3.756  -0.734
    1   AR   Ar    4   2.516   1.371   1.090
    1   AR   Ar    5   6.859   5.302  -0.694
    1   AR   Ar    6   0.737   1.152   2.230
    1   AR   Ar    7   6.260   4.869   3.402
    1   AR   Ar    8   6.397   3.406  -0.768
    1   AR   Ar    9   0.599   5.857   4.969
    1   AR   Ar   10   5.698   4.448   5.883
    1   AR   Ar   11   0.913   6.732   5.344
    1   AR   Ar   12   0.211   1.501   4.460
    1   AR   Ar   13   0.258   0.348   4.692
    1   AR   Ar   14   4.047   0.832   6.388
    1   AR   Ar   15   2.647   5.782   9.686
    1   AR   Ar   16   6.899   0.126   5.828
    1   AR   Ar   17   5.962   3.509   0.851
    1   AR   Ar   18   6.619   4.455  -2.392
    1   AR   Ar   19   5.354   4.932   0.650
    1   AR   Ar   20   6.635   3.380  -2.098
    1   AR   Ar   21   2.492   1.407   2.238
    1   AR   Ar   22   5.054   0.185   1.983
    1   AR   Ar   23   0.911   6.102   0.861
    1   AR   Ar   24   5.861   2.653   3.585
    1   AR   Ar   25   1.073   2.884   5.683
    1   AR   Ar   26   5.913   6.130   4.642
    1   AR   Ar   27   1.187   6.995   1.519
    1   AR   Ar   28   2.452   2.536   3.483
    1   AR   Ar   29   5.518   0.679   8.099
    1   AR   Ar   30   7.102   0.838   3.146
    1   AR   Ar   31   1.185   0.751   7.033
    1   AR   Ar   32   0.984   1.740   6.145
    1   AR   Ar   33   6.400   4.934   0.814
    1   AR   Ar   34   1.714   4.898   3.227
    1   AR   Ar   35   5.438   5.437   2.562
    1   AR   Ar   36   3.829   2.071  -3.722
    1   AR   Ar   37   4.379   3.611   1.381
    1   AR   Ar   38   6.045   4.611   4.449
    1   AR   Ar   39   0.329   2.606   4.531
    1   AR   Ar   40   0.895   4.128   2.110
    1   AR   Ar   41   0.633   1.639   3.375
    1   AR   Ar   42   5.645   5.568   5.793
    1   AR   Ar   43   7.111   2.807   6.362
    1   AR   Ar   44   1.625   3.724   3.342
    1   AR   Ar   45   1.904   3.632   5.652
    1   AR   Ar   46   6.182   5.245   6.671
    1   AR   Ar   47   2.788   3.670   6.617
    1   AR   Ar   48   7.078   3.128   7.315
    1   AR   Ar   49   0.712   1.439   0.409
    1   AR   Ar   50   2.736   4.137   0.213
    1   AR   Ar   51   5.146   3.541   3.009
    1   AR   Ar   52   5.711   3.481  -1.524
    1   AR   Ar   53   4.645   0.271   3.060
    1   AR   Ar   54   6.697   6.843   2.729
    1   AR   Ar   55   6.937   4.690   2.576
    1   AR   Ar   56   5.771   1.695   2.968
    1   AR   Ar   57   4.004   5.127   2.052
    1   AR   Ar   58   1.438   3.335   4.523
    1   AR   Ar   59   2.931   5.548   5.411
    1   AR   Ar   60   0.727   4.961   2.930
    1   AR   Ar   61   7.052   4.345   6.615
    1   AR   Ar   62   6.769   4.500   5.179
    1   AR   Ar   63   2.052   2.139   6.892
    1   AR   Ar   64   0.679   5.086   4.028
    1   AR   Ar   65   3.873   0.982   2.726
    1   AR   Ar   66   1.491   1.318   1.415
    1   AR   Ar   67   4.568   0.722  -0.296
    1   AR   Ar   68   6.793   0.677   0.310
    1   AR   Ar   69   2.888   2.538   0.681
    1   AR   Ar   70   0.161   1.328   1.445
    1   AR   Ar   71   2.889   0.628   2.931
    1   AR   Ar   72   4.494   1.321   1.369
    1   AR   Ar   73   2.936   0.345   4.386
    1   AR   Ar   74   1.040   0.609   3.342
    1   AR   Ar   75   2.440   0.638   5.218
    1   AR   Ar   76   2.398   0.419   1.684
    1   AR   Ar   77   1.024   5.702   5.823
    1   AR   Ar   78   0.073   5.285   5.795
    1   AR   Ar   79   3.472   6.955   5.023
    1   AR   Ar   80   3.583   4.770   5.840
    1   AR   Ar   81   1.736   6.334   2.018
    1   AR   Ar   82   0.042   5.485   1.366
    1   AR   Ar   83   1.119   3.206   1.669
    1   AR   Ar   84   0.740   4.877   0.934
    1   AR   Ar   85   0.213   3.141  -0.392
    1   AR   Ar   86   2.027   5.325   1.200
    1   AR   Ar   87   3.751   3.234   2.601
    1   AR   Ar   88   3.280   5.289   0.801
    1   AR   Ar   89   5.690   2.276   1.042
    1   AR   Ar   90   2.861   1.193   6.121
    1   AR   Ar   91   1.812   1.324   3.064
    1   AR   Ar   92   3.271   2.544   1.609
    1   AR   Ar   93   0.860   0.791   5.603
    1   AR   Ar   94   6.619   6.619   8.993
    1   AR   Ar   95   5.464   0.898   7.058
    1   AR   Ar   96   2.337   6.505   5.215
    1   AR   Ar   97   4.609   1.258  -1.502
    1   AR   Ar   98   1.694   4.596   4.199
    1   AR   Ar   99   6.535   6.668  -0.979
    1   AR   Ar  100   5.552   3.040  -2.734
    1   AR   Ar  101   3.840   5.919   3.102
    1   AR   Ar  102   4.176   2.092   2.424
    1   AR   Ar  103   2.034   4.478   1.850
    1   AR   Ar  104   3.473   0.286  -0.626
    1   AR   Ar  105   2.863   2.417   2.571
    1   AR   Ar  106   4.679   1.258   3.857
    1   AR   Ar  107   1.150   4.612   5.140
    1   AR   Ar  108   2.135   0.352   3.628
    1   AR   Ar  109   2.259   4.791   5.090
    1   AR   Ar  110   1.830   2.424   5.099
    1   AR   Ar  111   3.619   4.368   7.135
    1   AR   Ar  112   6.302   6.391   5.897
    1   AR   Ar  113   0.153   6.085  -1.711
    1   AR   Ar  114   2.585   0.278   0.015
    1   AR   Ar  115   0.561   4.525  -0.396
    1   AR   Ar  116   5.463   1.518   0.086
    1   AR   Ar  117   0.212   4.153   3.359
    1   AR   Ar  118   1.640   6.410   3.927
    1   AR   Ar  119   1.914   3.172   2.466
    1   AR   Ar  120   2.143   6.939   2.723
    1   AR   Ar  121   4.572   3.948   7.126
    1   AR   Ar  122   3.090   5.207   3.526
    1   AR   Ar  123   3.354   2.343   5.168
    1   AR   Ar  124   0.968   5.325   1.934
    1   AR   Ar  125   5.990   3.705   3.634
    1   AR   Ar  126   0.072   0.575   7.730
    1   AR   Ar  127   4.944   3.489   5.887
    1   AR   Ar  128   1.043   3.816   6.207
    1   AR   Ar  129   1.573   5.552   4.615
    1   AR   Ar  130   5.008   0.808  -5.018
    1   AR   Ar  131   3.680   6.356  -0.348
    1   AR   Ar  132   1.871   2.454   1.655
    1   AR   Ar  133   4.225   0.442   4.320
    1   AR   Ar  134   2.837   1.352   4.543
    1   AR   Ar  135   6.350   7.036   5.127
    1   AR   Ar  136   5.622   6.689   2.969
    1   AR   Ar  137   2.107   4.564   6.139
    1   AR   Ar  138   5.880   1.352   5.837
    1   AR   Ar  139   6.243   1.812   4.867
    1   AR   Ar  140   4.723   6.637   4.869
    1   AR   Ar  141   3.291   5.081   4.538
    1   AR   Ar  142   3.979   5.664   8.524
    1   AR   Ar  143   5.682   6.813   7.412
    1   AR   Ar  144   7.089   2.291   5.448
    1   AR   Ar  145   4.896   4.690  -1.549
    1   AR   Ar  146   4.046   2.076   4.031
    1   AR   Ar  147   4.806   4.406  -0.025
    1   AR   Ar  148   2.158   6.013  -0.497
    1   AR   Ar  149   7.021   1.915  -0.266
    1   AR   Ar  150   1.297   2.182   2.546
    1   AR   Ar  151   2.876   3.510   1.958
    1   AR   Ar  152   0.785   1.342  -1.038
    1   AR   Ar  153   5.636   0.543   3.323
    1   AR   Ar  154   4.842   3.156   3.958
    1   AR   Ar  155   6.405   3.388   5.529
    1   AR   Ar  156   2.807   3.823   3.026
    1   AR   Ar  157   2.849   5.801   6.645
    1   AR   Ar  158   0.940   2.599   6.978
    1   AR   Ar  159   4.531   0.325   5.544
    1   AR   Ar  160   1.116   1.174   4.215
    1   AR   Ar  161   5.097   4.521   3.428
    1   AR   Ar  162   3.971   5.379  -1.334
    1   AR   Ar  163   6.195   3.739   2.389
    1   AR   Ar  164   2.081   5.919   3.048
    1   AR   Ar  165   3.318   4.236   1.103
    1   AR   Ar  166   2.849   3.343   5.253
    1   AR   Ar  167   6.276   6.894   3.826
    1   AR   Ar  168   5.458   4.186  -2.302
    1   AR   Ar  169   4.120   3.819   3.501
    1   AR   Ar  170   2.492   2.148   5.985
    1   AR   Ar  171   4.633   5.581   4.222
    1   AR   Ar  172   4.102   3.159   4.674
    1   AR   Ar  173   1.194   1.507   7.731
    1   AR   Ar  174   3.011   6.083   4.263
    1   AR   Ar  175   1.746   6.844   7.522
    1   AR   Ar  176   3.352   3.097   3.754
    1   AR   Ar  177   6.826   4.363  -1.340
    1   AR   Ar  178   2.195   6.536   1.067
    1   AR   Ar  179   3.202   6.332   0.738
    1   AR   Ar  180   5.274   6.881  -7.379
    1   AR   Ar  181   0.342   6.214   2.157
    1   AR   Ar  182   1.062   6.706   2.918
    1   AR   Ar  183   4.828   5.704   1.507
    1   AR   Ar  184   4.140   5.505   0.199
    1   AR   Ar  185   3.362   4.032   4.274
    1   AR   Ar  186   2.899   6.663   3.355
    1   AR   Ar  187   3.820   6.729   3.999
    1   AR   Ar  188   3.456   1.035   1.807
    1   AR   Ar  189   6.053   2.427   6.433
    1   AR   Ar  190   1.386   0.187   4.455
    1   AR   Ar  191   3.919   5.838   4.981
    1   AR   Ar  192   3.723   3.300   5.987
    1   AR   Ar  193   3.181   6.222   1.826
    1   AR   Ar  194   4.756   6.006  -0.516
    1   AR   Ar  195   6.113   0.883   1.170
    1   AR   Ar  196   4.256   6.560   0.781
    1   AR   Ar  197   4.783   2.837   0.144
    1   AR   Ar  198   6.730   6.649   1.324
    1   AR   Ar  199   0.072   0.444   2.202
    1   AR   Ar  200   5.819   2.639  -0.007
    1   AR   Ar  201   6.445   5.702   2.759
    1   AR   Ar  202   5.410   0.297   4.646
    1   AR   Ar  203   0.326   7.020   3.731
    1   AR   Ar  204   4.646   5.018   7.882
    1   AR   Ar  205   5.443   1.849   1.931
    1   AR   Ar  206   5.904   0.201   6.241
    1   AR   Ar  207   7.070   3.953   4.331
    1   AR   Ar  208   0.616   6.045   3.539
    1   AR   Ar  209   5.575   1.562  -2.080
    1   AR   Ar  210   1.830   1.078  -0.058
    1   AR   Ar  211   6.975   3.032   0.566
    1   AR   Ar  212   6.804   4.028   0.119
    1   AR   Ar  213   3.861   1.817   0.686
    1   AR   Ar  214   5.160   4.548   2.003
    1   AR   Ar  215   0.334   2.816   2.496
    1   AR   Ar  216   2.009   2.359  -0.286
    1   AR   Ar  217   5.045   2.185   4.079
    1   AR   Ar  218   4.924   2.402   5.126
    1   AR   Ar  219   4.364   4.060   2.346
    1   AR   Ar  220   4.393   4.814   1.163
    1   AR   Ar  221   6.703   5.870   3.809
    1   AR   Ar  222   4.964   6.594   6.015
    1   AR   Ar  223   7.058   1.332   5.775
    1   AR   Ar  224   5.201   1.378   4.952
    1   AR   Ar  225   6.490   2.534   2.597
    1   AR   Ar  226   2.398   3.490   3.937
    1   AR   Ar  227   1.250   2.492   3.761
    1   AR   Ar  228   6.114   0.882   2.295
    1   AR   Ar  229   5.887   4.412  -0.843
    1   AR   Ar  230   3.930   4.765   3.213
    1   AR   Ar  231   5.031   2.507   2.993
    1   AR   Ar  232   5.269   3.092   1.977
    1   AR   Ar  233   6.894   2.393   3.667
    1   AR   Ar  234   6.000   2.849   4.663
    1   AR   Ar  235   6.416   0.939   4.209
    1   AR   Ar  236   4.040   4.364   5.028
    1   AR   Ar  237   4.492   1.459   7.478
    1   AR   Ar  238   4.640   4.936   5.751
    1   AR   Ar  239   1.221   4.028  11.032
    1   AR   Ar  240   1.906   3.091   6.521
    1   AR   Ar  241   1.533   6.652   0.007
    1   AR   Ar  242   5.998   6.382   2.055
    1   AR   Ar  243   4.291   6.502   1.997
    1   AR   Ar  244   6.413   6.019   0.101
    1   AR   Ar  245   3.303   1.542   3.528
    1   AR   Ar  246   4.891   6.343  -1.396
    1   AR   Ar  247   0.010   3.809   1.491
    1   AR   Ar  248   5.423   5.143  -0.479
    1   AR   Ar  249   3.396   0.504   0.806
    1   AR   Ar  250   4.843   6.471   3.788
    1   AR   Ar  251   5.304   3.919   4.904
    1   AR   Ar  252   2.650   4.818   2.571
    1   AR   Ar  253   5.112   2.452   8.107
    1   AR   Ar  254   4.312   3.769  12.707
    1   AR   Ar  255   5.132   0.135   8.847
    1   AR   Ar  256   5.604   5.644   3.620
    7.12000  7.12000 12.00000
Argon-slab step 5510
  256
    1   AR   Ar    1   4.262   3.654  -2.427
    1   AR   Ar    2   5.688   7.118   0.996
    1   AR   Ar    3   4.437   3.717  -0.751
    1   AR   Ar    4   2.500   1.384   1.118
    1   AR   Ar    5   6.861   5.289  -0.704
    1   AR   Ar    6   0.739   1.125   2.221
    1   AR   Ar    7   6.269   4.837   3.391
    1   AR   Ar    8   6.335   3.413  -0.791
    1   AR   Ar    9   0.603   5.859   4.960
    1   AR   Ar   10   5.690   4.459   5.898
    1   AR   Ar   11   0.900   6.713   5.356
    1   AR   Ar   12   0.192   1.539   4.485
    1   AR   Ar   13   0.262   0.305   4.660
    1   AR   Ar   14   4.074   0.843   6.361
    1   AR   Ar   15   2.665   5.793   9.678
    1   AR   Ar   16   6.950   0.181   5.840
    1   AR   Ar   17   5.984   3.514   0.856
    1   AR   Ar   18   6.636   4.437  -2.387
    1   AR   Ar   19   5.330   4.958   0.630
    1   AR   Ar   20   6.660   3.366  -2.096
    1   AR   Ar   21   2.503   1.395   2.252
    1   AR   Ar   22   5.023   0.205   1.987
    1   AR   Ar   23   0.918   6.130   0.865
    1   AR   Ar   24   5.858   2.683   3.598
    1   AR   Ar   25   1.088   2.868   5.670
    1   AR   Ar   26   5.922   6.174   4.634
    1   AR   Ar   27   1.180   6.985   1.484
    1   AR   Ar   28   2.450   2.554   3.482
    1   AR   Ar   29   5.505   0.653   8.111
    1   AR   Ar   30   7.074   0.869   3.153
    1   AR   Ar   31   1.184   0.770   7.026
    1   AR   Ar   32   0.970   1.756   6.160
    1   AR   Ar   33   6.383   4.978   0.797
    1   AR   Ar   34   1.713   4.908   3.228
    1   AR   Ar   35   5.464   5.433   2.570
    1   AR   Ar   36   3.814   2.045  -3.727
    1   AR   Ar   37   4.383   3.626   1.374
    1   AR   Ar   38   6.076   4.605   4.465
    1   AR   Ar   39   0.323   2.611   4.550
    1   AR   Ar   40   0.918   4.139   2.107
    1   AR   Ar   41   0.615   1.644   3.360
    1   AR   Ar   42   5.628   5.538   5.765
    1   AR   Ar   43   0.003   2.825   6.387
    1   AR   Ar   44   1.602   3.722   3.305
    1   AR   Ar   45   1.905   3.601   5.665
    1   AR   Ar   46   6.205   5.239   6.700
    1   AR   Ar   47   2.766   3.688   6.609
    1   AR   Ar   48   7.092   3.151   7.349
    1   AR   Ar   49   0.731   1.434   0.413
    1   AR   Ar   50   2.738   4.142   0.220
    1   AR   Ar   51   5.165   3.516   3.013
    1   AR   Ar   52   5.728   3.475  -1.493
    1   AR   Ar   53   4.667   0.261   3.055
    1   AR   Ar   54   6.680   6.830   2.744
    1   AR   Ar   55   6.942   4.709   2.564
    1   AR   Ar   56   5.789   1.686   2.968
    1   AR   Ar   57   4.055   5.143   2.089
    1   AR   Ar   58   1.445   3.353   4.513
    1   AR   Ar   59   2.932   5.578   5.402
    1   AR   Ar   60   0.726   4.962   2.928
    1   AR   Ar   61   7.040   4.337   6.617
    1   AR   Ar   62   6.752   4.501   5.179
    1   AR   Ar   63   2.038   2.127   6.891
    1   AR   Ar   64   0.678   5.069   4.042
    1   AR   Ar   65   3.864   1.006   2.729
    1   AR   Ar   66   1.492   1.319   1.419
    1   AR   Ar   67   4.571   0.723  -0.271
    1   AR   Ar   68   6.786   0.661   0.288
    1   AR   Ar   69   2.897   2.547   0.700
    1   AR   Ar   70   0.182   1.338   1.426
    1   AR   Ar   71   2.899   0.627   2.954
    1   AR   Ar   72   4.487   1.315   1.387
    1   AR   Ar   73   2.929   0.339   4.347
    1   AR   Ar   74   1.086   0.629   3.339
    1   AR   Ar   75   2.450   0.643   5.202
    1   AR   Ar   76   2.412   0.386   1.701
    1   AR   Ar   77   0.999   5.687   5.822
    1   AR   Ar   78   0.074   5.306   5.825
    1   AR   Ar   79   3.480   6.929   5.028
    1   AR   Ar   80   3.585   4.755   5.829
    1   AR   Ar   81   1.740   6.333   2.012
    1   AR   Ar   82   0.067   5.459   1.381
    1   AR   Ar   83   1.143   3.191   1.677
    1   AR   Ar   84   0.764   4.843   0.916
    1   AR   Ar   85   0.244   3.124  -0.398
    1   AR   Ar   86   2.053   5.319   1.170
    1   AR   Ar   87   3.777   3.248   2.570
    1   AR   Ar   88   3.339   5.285   0.786
    1   AR   Ar   89   5.676   2.299   1.045
    1   AR   Ar   90   2.879   1.191   6.115
    1   AR   Ar   91   1.801   1.352   3.077
    1   AR   Ar   92   3.326   2.565   1.589
    1   AR   Ar   93   0.869   0.800   5.617
    1   AR   Ar   94   6.608   6.613   9.021
    1   AR   Ar   95   5.451   0.931   7.044
    1   AR   Ar   96   2.334   6.490   5.230
    1   AR   Ar   97   4.597   1.257  -1.498
    1   AR   Ar   98   1.698   4.609   4.201
    1   AR   Ar   99   6.522   6.653  -0.992
    1   AR   Ar  100   5.569   3.024  -2.761
    1   AR   Ar  101   3.865   5.916   3.093
    1   AR   Ar  102   4.171   2.128   2.408
    1   AR   Ar  103   2.019   4.490   1.854
    1   AR   Ar  104   3.473   0.315  -0.624
    1   AR   Ar  105   2.869   2.387   2.537
    1   AR   Ar  106   4.678   1.226   3.830
    1   AR   Ar  107   1.108   4.604   5.179
    1   AR   Ar  108   2.176   0.353   3.631
    1   AR   Ar  109   2.294   4.835   5.117
    1   AR   Ar  110   1.855   2.437   5.129
    1   AR   Ar  111   3.613   4.356   7.168
    1   AR   Ar  112   6.276   6.382   5.937
    1   AR   Ar  113   0.128   6.072  -1.706
    1   AR   Ar  114   2.559   0.271  -0.004
    1   AR   Ar  115   0.571   4.518  -0.398
    1   AR   Ar  116   5.467   1.520   0.060
    1   AR   Ar  117   0.213   4.124   3.340
    1   AR   Ar  118   1.623   6.413   3.927
    1   AR   Ar  119   1.918   3.188   2.430
    1   AR   Ar  120   2.131   6.934   2.702
    1   AR   Ar  121   4.571   3.928   7.136
    1   AR   Ar  122   3.063   5.199   3.504
    1   AR   Ar  123   3.364   2.335   5.150
    1   AR   Ar  124   0.979   5.342   1.914
    1   AR   Ar  125   5.980   3.688   3.653
    1   AR   Ar  126   0.103   0.568   7.716
    1   AR   Ar  127   4.960   3.455   5.894
    1   AR   Ar  128   1.047   3.838   6.208
    1   AR   Ar  129   1.556   5.513   4.595
    1   AR   Ar  130   5.009   0.801  -5.018
    1   AR   Ar  131   3.671   6.330  -0.360
    1   AR   Ar  132   1.864   2.455   1.637
    1   AR   Ar  133   4.222   0.449   4.345
    1   AR   Ar  134   2.861   1.383   4.572
    1   AR   Ar  135   6.346   7.068   5.136
    1   AR   Ar  136   5.627   6.636   2.981
    1   AR   Ar  137   2.125   4.566   6.117
    1   AR   Ar  138   5.884   1.379   5.853
    1   AR   Ar  139   6.221   1.839   4.887
    1   AR   Ar  140   4.737   6.611   4.900
    1   AR   Ar  141   3.288   5.062   4.512
    1   AR   Ar  142   3.995   5.677   8.522
    1   AR   Ar  143   5.708   6.763   7.422
    1   AR   Ar  144   7.100   2.321   5.469
    1   AR   Ar  145   4.903   4.705  -1.550
    1   AR   Ar  146   4.060   2.092   4.042
    1   AR   Ar  147   4.784   4.412  -0.055
    1   AR   Ar  148   2.151   6.005  -0.513
    1   AR   Ar  149   6.988   1.912  -0.238
    1   AR   Ar  150   1.277   2.159   2.550
    1   AR   Ar  151   2.863   3.505   1.981
    1   AR   Ar  152   0.791   1.347  -1.037
    1   AR   Ar  153   5.623   0.575   3.290
    1   AR   Ar  154   4.859   3.182   3.979
    1   AR   Ar  155   6.411   3.381   5.549
    1   AR   Ar  156   2.780   3.824   3.038
    1   AR   Ar  157   2.833   5.803   6.636
    1   AR   Ar  158   0.909   2.632   7.000
    1   AR   Ar  159   4.553   0.315   5.537
    1   AR   Ar  160   1.108   1.148   4.205
    1   AR   Ar  161   5.116   4.537   3.440
    1   AR   Ar  162   3.959   5.405  -1.317
    1   AR   Ar  163   6.204   3.726   2.369
    1   AR   Ar  164   2.072   5.918   3.029
    1   AR   Ar  165   3.306   4.245   1.089
    1   AR   Ar  166   2.840   3.359   5.246
    1   AR   Ar  167   6.246   6.921   3.833
    1   AR   Ar  168   5.496   4.172  -2.330
    1   AR   Ar  169   4.115   3.799   3.502
    1   AR   Ar  170   2.479   2.150   5.962
    1   AR   Ar  171   4.632   5.573   4.221
    1   AR   Ar  172   4.115   3.142   4.676
    1   AR   Ar  173   1.179   1.501   7.747
    1   AR   Ar  174   2.996   6.105   4.274
    1   AR   Ar  175   1.691   6.850   7.515
    1   AR   Ar  176   3.328   3.100   3.767
    1   AR   Ar  177   6.807   4.372  -1.350
    1   AR   Ar  178   2.168   6.528   1.050
    1   AR   Ar  179   3.172   6.332   0.759
    1   AR   Ar  180   5.268   6.844  -7.367
    1   AR   Ar  181   0.270   6.186   2.153
    1   AR   Ar  182   1.077   6.708   2.917
    1   AR   Ar  183   4.854   5.713   1.506
    1   AR   Ar  184   4.133   5.534   0.216
    1   AR   Ar  185   3.391   4.063   4.242
    1   AR   Ar  186   2.913   6.670   3.321
    1   AR   Ar  187   3.823   6.727   3.971
    1   AR   Ar  188   3.462   1.053   1.805
    1   AR   Ar  189   6.051   2.420   6.476
    1   AR   Ar  190   1.409   0.174   4.461
    1   AR   Ar  191   3.904   5.855   4.994
    1   AR   Ar  192   3.705   3.296   5.949
    1   AR   Ar  193   3.145   6.206   1.838
    1   AR   Ar  194   4.743   5.999  -0.514
    1   AR   Ar  195   6.132   0.885   1.188
    1   AR   Ar  196   4.243   6.556   0.774
    1   AR   Ar  197   4.798   2.824   0.151
    1   AR   Ar  198   6.743   6.654   1.312
    1   AR   Ar  199   0.076   0.408   2.205
    1   AR   Ar  200   5.809   2.644  -0.021
    1   AR   Ar  201   6.443   5.709   2.754
    1   AR   Ar  202   5.430   0.318   4.649
    1   AR   Ar  203   0.330   7.019   3.739
    1   AR   Ar  204   4.642   5.057   7.892
    1   AR   Ar  205   5.471   1.860   1.957
    1   AR   Ar  206   5.876   0.208   6.250
    1   AR   Ar  207   7.095   3.970   4.366
    1   AR   Ar  208   0.628   6.048   3.552
    1   AR   Ar  209   5.580   1.583  -2.076
    1   AR   Ar  210   1.807   1.104  -0.011
    1   AR   Ar  211   6.957   3.037   0.553
    1   AR   Ar  212   6.792   4.049   0.146
    1   AR   Ar  213   3.879   1.838   0.650
    1   AR   Ar  214   5.156   4.522   1.973
    1   AR   Ar  215   0.334   2.845   2.538
    1   AR   Ar  216   2.008   2.372  -0.301
    1   AR   Ar  217   5.056   2.179   4.103
    1   AR   Ar  218   4.906   2.388   5.130
    1   AR   Ar  219   4.375   4.039   2.334
    1   AR   Ar  220   4.428   4.798   1.185
    1   AR   Ar  221   6.735   5.881   3.802
    1   AR   Ar  222   4.963   6.582   6.029
    1   AR   Ar  223   7.071   1.273   5.787
    1   AR   Ar  224   5.181   1.364   4.940
    1   AR   Ar  225   6.444   2.574   2.611
    1   AR   Ar  226   2.412   3.473   3.939
    1   AR   Ar  227   1.267   2.475   3.780
    1   AR   Ar  228   6.127   0.896   2.279
    1   AR   Ar  229   5.874   4.399  -0.833
    1   AR   Ar  230   3.936   4.770   3.230
    1   AR   Ar  231   5.017   2.503   2.994
    1   AR   Ar  232   5.257   3.092   1.972
    1   AR   Ar  233   6.885   2.403   3.641
    1   AR   Ar  234   6.012   2.884   4.684
    1   AR   Ar  235   6.418   0.937   4.207
    1   AR   Ar  236   4.038   4.382   5.008
    1   AR   Ar  237   4.515   1.474   7.493
    1   AR   Ar  238   4.659   4.942   5.760
    1   AR   Ar  239   1.219   4.033  11.014
    1   AR   Ar  240   1.920   3.089   6.539
    1   AR   Ar  241   1.539   6.639   0.009
    1   AR   Ar  242   5.991   6.375   2.040
    1   AR   Ar  243   4.298   6.540   2.038
    1   AR   Ar  244   6.423   6.019   0.121
    1   AR   Ar  245   3.278   1.571   3.525
    1   AR   Ar  246   4.882   6.333  -1.433
    1   AR   Ar  247   0.006   3.788   1.481
    1   AR   Ar  248   5.408   5.161  -0.477
    1   AR   Ar  249   3.403   0.520   0.787
    1   AR   Ar  250   4.789   6.491   3.778
    1   AR   Ar  251   5.323   3.896   4.888
    1   AR   Ar  252   2.647   4.820   2.580
    1   AR   Ar  253   5.128   2.456   8.074
    1   AR   Ar  254   4.282   3.804  12.712
    1   AR   Ar  255   5.143   0.106   8.838
    1   AR   Ar  256   5.599   5.656   3.586
    7.12000  7.12000 12.00000
Argon-slab step 5515
  256
    1   AR   Ar    1   4.228   3.620  -2.417
    1   AR   Ar    2   5.703   0.058   1.031
    1   AR   Ar    3   4.422   3.676  -0.771
    1   AR   Ar    4   2.512   1.338   1.105
    1   AR   Ar    5   6.862   5.276  -0.714
    1   AR   Ar    6   0.756   1.106   2.224
    1   AR   Ar    7   6.277   4.803   3.382
    1   AR   Ar    8   6.296   3.417  -0.789
    1   AR   Ar    9   0.608   5.854   4.932
    1   AR   Ar   10   5.701   4.490   5.927
    1   AR   Ar   11   0.886   6.717   5.393
    1   AR   Ar   12   0.168   1.577   4.513
    1   AR   Ar   13   0.265   0.266   4.636
    1   AR   Ar   14   4.098   0.854   6.336
    1   AR   Ar   15   2.683   5.804   9.671
    1   AR   Ar   16   7.015   0.240   5.868
    1   AR   Ar   17   6.010   3.497   0.850
    1   AR   Ar   18   6.651   4.419  -2.385
    1   AR   Ar   19   5.306   4.988   0.613
    1   AR   Ar   20   6.683   3.330  -2.105
    1   AR   Ar   21   2.513   1.383   2.264
    1   AR   Ar   22   4.986   0.228   1.990
    1   AR   Ar   23   0.925   6.155   0.871
    1   AR   Ar   24   5.855   2.707   3.610
    1   AR   Ar   25   1.099   2.853   5.660
    1   AR   Ar   26   5.923   6.163   4.659
    1   AR   Ar   27   1.168   6.982   1.446
    1   AR   Ar   28   2.444   2.566   3.480
    1   AR   Ar   29   5.497   0.634   8.113
    1   AR   Ar   30   7.042   0.897   3.163
    1   AR   Ar   31   1.183   0.786   7.015
    1   AR   Ar   32   0.955   1.776   6.176
    1   AR   Ar   33   6.368   5.022   0.779
    1   AR   Ar   34   1.717   4.918   3.225
    1   AR   Ar   35   5.485   5.427   2.574
    1   AR   Ar   36   3.798   2.020  -3.731
    1   AR   Ar   37   4.386   3.642   1.364
    1   AR   Ar   38   6.099   4.601   4.471
    1   AR   Ar   39   0.320   2.619   4.565
    1   AR   Ar   40   0.940   4.154   2.106
    1   AR   Ar   41   0.600   1.652   3.345
    1   AR   Ar   42   5.611   5.508   5.737
    1   AR   Ar   43   7.120   2.831   6.377
    1   AR   Ar   44   1.576   3.722   3.269
    1   AR   Ar   45   1.908   3.572   5.669
    1   AR   Ar   46   6.228   5.232   6.727
    1   AR   Ar   47   2.748   3.709   6.599
    1   AR   Ar   48   7.105   3.176   7.388
    1   AR   Ar   49   0.736   1.446   0.434
    1   AR   Ar   50   2.739   4.148   0.225
    1   AR   Ar   51   5.183   3.496   3.012
    1   AR   Ar   52   5.724   3.472  -1.487
    1   AR   Ar   53   4.685   0.250   3.050
    1   AR   Ar   54   6.661   6.814   2.765
    1   AR   Ar   55   6.939   4.727   2.543
    1   AR   Ar   56   5.807   1.677   2.971
    1   AR   Ar   57   4.104   5.160   2.130
    1   AR   Ar   58   1.452   3.371   4.505
    1   AR   Ar   59   2.936   5.613   5.396
    1   AR   Ar   60   0.728   4.968   2.927
    1   AR   Ar   61   7.029   4.341   6.619
    1   AR   Ar   62   6.740   4.503   5.193
    1   AR   Ar   63   2.021   2.110   6.896
    1   AR   Ar   64   0.677   5.051   4.058
    1   AR   Ar   65   3.862   1.032   2.740
    1   AR   Ar   66   1.492   1.319   1.425
    1   AR   Ar   67   4.591   0.727  -0.292
    1   AR   Ar   68   6.780   0.646   0.266
    1   AR   Ar   69   2.900   2.555   0.710
    1   AR   Ar   70   0.208   1.349   1.424
    1   AR   Ar   71   2.911   0.627   2.973
    1   AR   Ar   72   4.480   1.308   1.407
    1   AR   Ar   73   2.927   0.330   4.300
    1   AR   Ar   74   1.129   0.642   3.331
    1   AR   Ar   75   2.472   0.682   5.208
    1   AR   Ar   76   2.426   0.354   1.718
    1   AR   Ar   77   0.991   5.670   5.834
    1   AR   Ar   78   0.067   5.323   5.856
    1   AR   Ar   79   3.492   6.899   5.036
    1   AR   Ar   80   3.581   4.743   5.824
    1   AR   Ar   81   1.742   6.319   2.005
    1   AR   Ar   82   0.087   5.435   1.397
    1   AR   Ar   83   1.162   3.178   1.683
    1   AR   Ar   84   0.790   4.806   0.896
    1   AR   Ar   85   0.275   3.108  -0.408
    1   AR   Ar   86   2.078   5.317   1.140
    1   AR   Ar   87   3.800   3.256   2.541
    1   AR   Ar   88   3.392   5.278   0.776
    1   AR   Ar   89   5.664   2.324   1.042
    1   AR   Ar   90   2.899   1.186   6.109
    1   AR   Ar   91   1.786   1.375   3.101
    1   AR   Ar   92   3.388   2.586   1.579
    1   AR   Ar   93   0.881   0.805   5.629
    1   AR   Ar   94   6.597   6.607   9.048
    1   AR   Ar   95   5.438   0.964   7.028
    1   AR   Ar   96   2.331   6.477   5.242
    1   AR   Ar   97   4.585   1.256  -1.494
    1   AR   Ar   98   1.703   4.608   4.204
    1   AR   Ar   99   6.509   6.636  -1.004
    1   AR   Ar  100   5.585   3.009  -2.786
    1   AR   Ar  101   3.890   5.914   3.085
    1   AR   Ar  102   4.164   2.162   2.390
    1   AR   Ar  103   1.999   4.497   1.855
    1   AR   Ar  104   3.475   0.343  -0.621
    1   AR   Ar  105   2.876   2.358   2.503
    1   AR   Ar  106   4.680   1.193   3.800
    1   AR   Ar  107   1.066   4.597   5.218
    1   AR   Ar  108   2.208   0.353   3.637
    1   AR   Ar  109   2.326   4.874   5.138
    1   AR   Ar  110   1.883   2.451   5.156
    1   AR   Ar  111   3.603   4.346   7.199
    1   AR   Ar  112   6.251   6.370   5.977
    1   AR   Ar  113   0.094   6.048  -1.681
    1   AR   Ar  114   2.534   0.263  -0.021
    1   AR   Ar  115   0.579   4.517  -0.395
    1   AR   Ar  116   5.472   1.523   0.035
    1   AR   Ar  117   0.216   4.141   3.325
    1   AR   Ar  118   1.607   6.414   3.924
    1   AR   Ar  119   1.923   3.204   2.396
    1   AR   Ar  120   2.119   6.939   2.682
    1   AR   Ar  121   4.577   3.908   7.138
    1   AR   Ar  122   3.029   5.195   3.483
    1   AR   Ar  123   3.374   2.328   5.131
    1   AR   Ar  124   0.994   5.359   1.895
    1   AR   Ar  125   5.973   3.680   3.676
    1   AR   Ar  126   0.136   0.561   7.702
    1   AR   Ar  127   4.945   3.467   5.870
    1   AR   Ar  128   1.057   3.853   6.215
    1   AR   Ar  129   1.539   5.484   4.578
    1   AR   Ar  130   5.009   0.794  -5.018
    1   AR   Ar  131   3.662   6.305  -0.372
    1   AR   Ar  132   1.863   2.449   1.617
    1   AR   Ar  133   4.221   0.459   4.378
    1   AR   Ar  134   2.887   1.419   4.600
    1   AR   Ar  135   6.330   7.098   5.126
    1   AR   Ar  136   5.629   6.581   2.996
    1   AR   Ar  137   2.142   4.566   6.099
    1   AR   Ar  138   5.888   1.405   5.868
    1   AR   Ar  139   6.201   1.866   4.906
    1   AR   Ar  140   4.749   6.583   4.927
    1   AR   Ar  141   3.285   5.045   4.490
    1   AR   Ar  142   4.011   5.690   8.520
    1   AR   Ar  143   5.734   6.714   7.431
    1   AR   Ar  144   7.109   2.349   5.491
    1   AR   Ar  145   4.911   4.720  -1.548
    1   AR   Ar  146   4.056   2.061   4.010
    1   AR   Ar  147   4.759   4.418  -0.085
    1   AR   Ar  148   2.148   5.995  -0.532
    1   AR   Ar  149   6.956   1.909  -0.209
    1   AR   Ar  150   1.258   2.137   2.554
    1   AR   Ar  151   2.851   3.502   2.004
    1   AR   Ar  152   0.796   1.352  -1.034
    1   AR   Ar  153   5.615   0.609   3.259
    1   AR   Ar  154   4.876   3.216   3.988
    1   AR   Ar  155   6.418   3.374   5.571
    1   AR   Ar  156   2.756   3.824   3.047
    1   AR   Ar  157   2.817   5.803   6.625
    1   AR   Ar  158   0.880   2.663   7.020
    1   AR   Ar  159   4.575   0.309   5.527
    1   AR   Ar  160   1.104   1.126   4.201
    1   AR   Ar  161   5.135   4.554   3.451
    1   AR   Ar  162   3.949   5.433  -1.299
    1   AR   Ar  163   6.212   3.712   2.351
    1   AR   Ar  164   2.064   5.916   3.011
    1   AR   Ar  165   3.298   4.252   1.081
    1   AR   Ar  166   2.834   3.373   5.237
    1   AR   Ar  167   6.216   6.949   3.842
    1   AR   Ar  168   5.534   4.158  -2.357
    1   AR   Ar  169   4.123   3.805   3.525
    1   AR   Ar  170   2.478   2.173   5.927
    1   AR   Ar  171   4.630   5.559   4.220
    1   AR   Ar  172   4.122   3.125   4.682
    1   AR   Ar  173   1.164   1.500   7.766
    1   AR   Ar  174   2.980   6.126   4.288
    1   AR   Ar  175   1.635   6.857   7.507
    1   AR   Ar  176   3.314   3.097   3.777
    1   AR   Ar  177   6.788   4.378  -1.356
    1   AR   Ar  178   2.139   6.520   1.032
    1   AR   Ar  179   3.182   6.331   0.768
    1   AR   Ar  180   5.263   6.806  -7.355
    1   AR   Ar  181   0.199   6.159   2.150
    1   AR   Ar  182   1.095   6.713   2.912
    1   AR   Ar  183   4.881   5.724   1.505
    1   AR   Ar  184   4.133   5.562   0.231
    1   AR   Ar  185   3.417   4.091   4.208
    1   AR   Ar  186   2.917   6.655   3.311
    1   AR   Ar  187   3.817   6.720   3.941
    1   AR   Ar  188   3.465   1.073   1.795
    1   AR   Ar  189   6.050   2.412   6.518
    1   AR   Ar  190   1.415   0.167   4.458
    1   AR   Ar  191   3.899   5.868   5.000
    1   AR   Ar  192   3.686   3.293   5.911
    1   AR   Ar  193   3.109   6.191   1.851
    1   AR   Ar  194   4.728   5.990  -0.502
    1   AR   Ar  195   6.156   0.895   1.208
    1   AR   Ar  196   4.231   6.551   0.767
    1   AR   Ar  197   4.810   2.812   0.159
    1   AR   Ar  198   6.758   6.660   1.301
    1   AR   Ar  199   0.074   0.364   2.202
    1   AR   Ar  200   5.805   2.649  -0.036
    1   AR   Ar  201   6.447   5.719   2.749
    1   AR   Ar  202   5.450   0.340   4.650
    1   AR   Ar  203   0.332   7.018   3.740
    1   AR   Ar  204   4.634   5.103   7.895
    1   AR   Ar  205   5.496   1.869   1.987
    1   AR   Ar  206   5.846   0.217   6.258
    1   AR   Ar  207   7.119   3.984   4.399
    1   AR   Ar  208   0.642   6.043   3.567
    1   AR   Ar  209   5.584   1.604  -2.071
    1   AR   Ar  210   1.782   1.132   0.037
    1   AR   Ar  211   6.915   3.044   0.569
    1   AR   Ar  212   6.780   4.070   0.172
    1   AR   Ar  213   3.898   1.843   0.672
    1   AR   Ar  214   5.179   4.529   1.997
    1   AR   Ar  215   0.338   2.875   2.580
    1   AR   Ar  216   2.007   2.384  -0.314
    1   AR   Ar  217   5.078   2.171   4.127
    1   AR   Ar  218   4.888   2.378   5.136
    1   AR   Ar  219   4.381   4.019   2.329
    1   AR   Ar  220   4.460   4.776   1.202
    1   AR   Ar  221   6.764   5.892   3.796
    1   AR   Ar  222   4.965   6.567   6.043
    1   AR   Ar  223   7.080   1.217   5.799
    1   AR   Ar  224   5.161   1.349   4.926
    1   AR   Ar  225   6.392   2.613   2.625
    1   AR   Ar  226   2.418   3.462   3.953
    1   AR   Ar  227   1.284   2.459   3.797
    1   AR   Ar  228   6.139   0.908   2.264
    1   AR   Ar  229   5.866   4.372  -0.829
    1   AR   Ar  230   3.948   4.778   3.242
    1   AR   Ar  231   5.014   2.511   3.000
    1   AR   Ar  232   5.245   3.091   1.967
    1   AR   Ar  233   6.877   2.412   3.614
    1   AR   Ar  234   6.017   2.895   4.679
    1   AR   Ar  235   6.421   0.936   4.200
    1   AR   Ar  236   4.051   4.385   5.004
    1   AR   Ar  237   4.539   1.488   7.509
    1   AR   Ar  238   4.680   4.948   5.768
    1   AR   Ar  239   1.217   4.038  10.996
    1   AR   Ar  240   1.928   3.085   6.560
    1   AR   Ar  241   1.542   6.630   0.016
    1   AR   Ar  242   5.983   6.367   2.021
    1   AR   Ar  243   4.301   6.519   2.047
    1   AR   Ar  244   6.417   6.011   0.122
    1   AR   Ar  245   3.250   1.598   3.521
    1   AR   Ar  246   4.874   6.327  -1.480
    1   AR   Ar  247   0.002   3.768   1.471
    1   AR   Ar  248   5.394   5.193  -0.471
    1   AR   Ar  249   3.409   0.536   0.769
    1   AR   Ar  250   4.744   6.515   3.763
    1   AR   Ar  251   5.342   3.872   4.873
    1   AR   Ar  252   2.647   4.823   2.592
    1   AR   Ar  253   5.143   2.459   8.040
    1   AR   Ar  254   4.252   3.839  12.717
    1   AR   Ar  255   5.148   0.069   8.839
    1   AR   Ar  256   5.595   5.670   3.556
    7.12000  7.12000 12.00000
Argon-slab step 5520
  256
    1   AR   Ar    1   4.195   3.587  -2.407
    1   AR   Ar    2   5.722   0.093   1.042
    1   AR   Ar    3   4.407   3.634  -0.792
    1   AR   Ar    4   2.528   1.292   1.093
    1   AR   Ar    5   6.862   5.263  -0.723
    1   AR   Ar    6   0.785   1.091   2.238
    1   AR   Ar    7   6.285   4.767   3.374
    1   AR   Ar    8   6.289   3.416  -0.750
    1   AR   Ar    9   0.604   5.845   4.890
    1   AR   Ar   10   5.714   4.517   5.955
    1   AR   Ar   11   0.895   6.727   5.418
    1   AR   Ar   12   0.142   1.613   4.540
    1   AR   Ar   13   0.268   0.234   4.627
    1   AR   Ar   14   4.106   0.861   6.317
    1   AR   Ar   15   2.701   5.816   9.663
    1   AR   Ar   16   7.083   0.284   5.899
    1   AR   Ar   17   6.035   3.465   0.838
    1   AR   Ar   18   6.665   4.401  -2.386
    1   AR   Ar   19   5.284   5.020   0.596
    1   AR   Ar   20   6.704   3.289  -2.117
    1   AR   Ar   21   2.503   1.381   2.290
    1   AR   Ar   22   4.959   0.229   1.993
    1   AR   Ar   23   0.931   6.175   0.876
    1   AR   Ar   24   5.851   2.721   3.620
    1   AR   Ar   25   1.101   2.839   5.654
    1   AR   Ar   26   5.922   6.153   4.683
    1   AR   Ar   27   1.156   6.986   1.410
    1   AR   Ar   28   2.435   2.571   3.475
    1   AR   Ar   29   5.493   0.623   8.104
    1   AR   Ar   30   7.007   0.919   3.172
    1   AR   Ar   31   1.181   0.798   6.999
    1   AR   Ar   32   0.939   1.797   6.192
    1   AR   Ar   33   6.355   5.065   0.760
    1   AR   Ar   34   1.722   4.919   3.224
    1   AR   Ar   35   5.499   5.419   2.571
    1   AR   Ar   36   3.783   1.994  -3.735
    1   AR   Ar   37   4.389   3.655   1.351
    1   AR   Ar   38   6.112   4.597   4.466
    1   AR   Ar   39   0.321   2.633   4.574
    1   AR   Ar   40   0.962   4.171   2.106
    1   AR   Ar   41   0.588   1.664   3.331
    1   AR   Ar   42   5.594   5.484   5.706
    1   AR   Ar   43   7.113   2.838   6.364
    1   AR   Ar   44   1.549   3.725   3.234
    1   AR   Ar   45   1.911   3.547   5.666
    1   AR   Ar   46   6.252   5.225   6.752
    1   AR   Ar   47   2.734   3.733   6.587
    1   AR   Ar   48   7.117   3.203   7.429
    1   AR   Ar   49   0.738   1.463   0.459
    1   AR   Ar   50   2.737   4.154   0.226
    1   AR   Ar   51   5.200   3.487   3.007
    1   AR   Ar   52   5.691   3.472  -1.517
    1   AR   Ar   53   4.697   0.237   3.045
    1   AR   Ar   54   6.642   6.796   2.792
    1   AR   Ar   55   6.931   4.745   2.515
    1   AR   Ar   56   5.766   1.687   3.000
    1   AR   Ar   57   4.152   5.178   2.175
    1   AR   Ar   58   1.458   3.390   4.497
    1   AR   Ar   59   2.946   5.654   5.393
    1   AR   Ar   60   0.734   4.979   2.926
    1   AR   Ar   61   7.020   4.365   6.624
    1   AR   Ar   62   6.736   4.506   5.225
    1   AR   Ar   63   2.001   2.087   6.903
    1   AR   Ar   64   0.675   5.032   4.073
    1   AR   Ar   65   3.864   1.060   2.755
    1   AR   Ar   66   1.489   1.320   1.431
    1   AR   Ar   67   4.611   0.732  -0.313
    1   AR   Ar   68   6.768   0.642   0.248
    1   AR   Ar   69   2.898   2.561   0.711
    1   AR   Ar   70   0.221   1.363   1.419
    1   AR   Ar   71   2.926   0.628   2.987
    1   AR   Ar   72   4.476   1.302   1.430
    1   AR   Ar   73   2.935   0.320   4.258
    1   AR   Ar   74   1.162   0.647   3.318
    1   AR   Ar   75   2.469   0.701   5.219
    1   AR   Ar   76   2.440   0.322   1.736
    1   AR   Ar   77   0.999   5.655   5.854
    1   AR   Ar   78   0.048   5.335   5.887
    1   AR   Ar   79   3.506   6.868   5.044
    1   AR   Ar   80   3.571   4.734   5.825
    1   AR   Ar   81   1.742   6.295   1.994
    1   AR   Ar   82   0.102   5.411   1.409
    1   AR   Ar   83   1.123   3.170   1.703
    1   AR   Ar   84   0.819   4.768   0.876
    1   AR   Ar   85   0.306   3.093  -0.419
    1   AR   Ar   86   2.103   5.317   1.109
    1   AR   Ar   87   3.814   3.252   2.515
    1   AR   Ar   88   3.432   5.266   0.777
    1   AR   Ar   89   5.651   2.352   1.036
    1   AR   Ar   90   2.920   1.181   6.104
    1   AR   Ar   91   1.772   1.399   3.132
    1   AR   Ar   92   3.456   2.607   1.577
    1   AR   Ar   93   0.897   0.806   5.638
    1   AR   Ar   94   6.585   6.602   9.076
    1   AR   Ar   95   5.426   0.996   7.011
    1   AR   Ar   96   2.328   6.465   5.251
    1   AR   Ar   97   4.574   1.255  -1.489
    1   AR   Ar   98   1.712   4.589   4.206
    1   AR   Ar   99   6.495   6.618  -1.015
    1   AR   Ar  100   5.603   2.995  -2.808
    1   AR   Ar  101   3.915   5.912   3.078
    1   AR   Ar  102   4.156   2.196   2.372
    1   AR   Ar  103   1.976   4.501   1.853
    1   AR   Ar  104   3.478   0.370  -0.617
    1   AR   Ar  105   2.884   2.331   2.469
    1   AR   Ar  106   4.686   1.160   3.765
    1   AR   Ar  107   1.025   4.591   5.256
    1   AR   Ar  108   2.222   0.352   3.639
    1   AR   Ar  109   2.352   4.907   5.151
    1   AR   Ar  110   1.912   2.466   5.172
    1   AR   Ar  111   3.591   4.336   7.230
    1   AR   Ar  112   6.227   6.357   6.018
    1   AR   Ar  113   0.060   6.023  -1.654
    1   AR   Ar  114   2.546   0.238  -0.039
    1   AR   Ar  115   0.585   4.517  -0.390
    1   AR   Ar  116   5.477   1.527   0.012
    1   AR   Ar  117   0.218   4.155   3.313
    1   AR   Ar  118   1.593   6.413   3.918
    1   AR   Ar  119   1.930   3.219   2.367
    1   AR   Ar  120   2.111   6.954   2.666
    1   AR   Ar  121   4.584   3.887   7.139
    1   AR   Ar  122   2.997   5.204   3.464
    1   AR   Ar  123   3.383   2.322   5.111
    1   AR   Ar  124   1.013   5.375   1.878
    1   AR   Ar  125   5.970   3.687   3.702
    1   AR   Ar  126   0.169   0.555   7.687
    1   AR   Ar  127   4.923   3.492   5.838
    1   AR   Ar  128   1.097   3.838   6.237
    1   AR   Ar  129   1.522   5.470   4.569
    1   AR   Ar  130   5.010   0.787  -5.018
    1   AR   Ar  131   3.652   6.282  -0.383
    1   AR   Ar  132   1.868   2.436   1.597
    1   AR   Ar  133   4.220   0.468   4.415
    1   AR   Ar  134   2.915   1.458   4.625
    1   AR   Ar  135   6.312   0.007   5.112
    1   AR   Ar  136   5.627   6.529   3.012
    1   AR   Ar  137   2.159   4.565   6.086
    1   AR   Ar  138   5.892   1.430   5.884
    1   AR   Ar  139   6.182   1.890   4.924
    1   AR   Ar  140   4.763   6.553   4.951
    1   AR   Ar  141   3.282   5.036   4.474
    1   AR   Ar  142   4.025   5.705   8.521
    1   AR   Ar  143   5.759   6.667   7.440
    1   AR   Ar  144   7.116   2.370   5.511
    1   AR   Ar  145   4.920   4.735  -1.545
    1   AR   Ar  146   4.070   2.045   3.994
    1   AR   Ar  147   4.733   4.423  -0.115
    1   AR   Ar  148   2.148   5.982  -0.552
    1   AR   Ar  149   6.924   1.907  -0.179
    1   AR   Ar  150   1.238   2.117   2.556
    1   AR   Ar  151   2.842   3.499   2.024
    1   AR   Ar  152   0.801   1.357  -1.030
    1   AR   Ar  153   5.614   0.646   3.230
    1   AR   Ar  154   4.898   3.251   3.996
    1   AR   Ar  155   6.425   3.368   5.594
    1   AR   Ar  156   2.734   3.825   3.054
    1   AR   Ar  157   2.808   5.803   6.653
    1   AR   Ar  158   0.854   2.694   7.037
    1   AR   Ar  159   4.590   0.298   5.516
    1   AR   Ar  160   1.100   1.111   4.203
    1   AR   Ar  161   5.154   4.571   3.462
    1   AR   Ar  162   3.941   5.461  -1.279
    1   AR   Ar  163   6.220   3.698   2.334
    1   AR   Ar  164   2.056   5.914   2.992
    1   AR   Ar  165   3.293   4.259   1.080
    1   AR   Ar  166   2.831   3.387   5.224
    1   AR   Ar  167   6.187   6.977   3.852
    1   AR   Ar  168   5.573   4.142  -2.384
    1   AR   Ar  169   4.142   3.801   3.531
    1   AR   Ar  170   2.482   2.196   5.895
    1   AR   Ar  171   4.628   5.544   4.220
    1   AR   Ar  172   4.124   3.108   4.691
    1   AR   Ar  173   1.148   1.502   7.786
    1   AR   Ar  174   2.963   6.147   4.304
    1   AR   Ar  175   1.578   6.866   7.498
    1   AR   Ar  176   3.315   3.090   3.786
    1   AR   Ar  177   6.772   4.382  -1.359
    1   AR   Ar  178   2.109   6.514   1.012
    1   AR   Ar  179   3.200   6.331   0.773
    1   AR   Ar  180   5.258   6.769  -7.343
    1   AR   Ar  181   0.129   6.136   2.151
    1   AR   Ar  182   1.112   6.720   2.904
    1   AR   Ar  183   4.909   5.735   1.505
    1   AR   Ar  184   4.146   5.591   0.242
    1   AR   Ar  185   3.437   4.111   4.173
    1   AR   Ar  186   2.919   6.633   3.307
    1   AR   Ar  187   3.794   6.713   3.913
    1   AR   Ar  188   3.463   1.093   1.780
    1   AR   Ar  189   6.049   2.404   6.559
    1   AR   Ar  190   1.396   0.170   4.443
    1   AR   Ar  191   3.908   5.874   4.996
    1   AR   Ar  192   3.669   3.291   5.872
    1   AR   Ar  193   3.089   6.181   1.859
    1   AR   Ar  194   4.711   5.984  -0.489
    1   AR   Ar  195   6.187   0.920   1.228
    1   AR   Ar  196   4.221   6.546   0.761
    1   AR   Ar  197   4.817   2.801   0.169
    1   AR   Ar  198   6.773   6.666   1.290
    1   AR   Ar  199   0.069   0.317   2.194
    1   AR   Ar  200   5.807   2.655  -0.051
    1   AR   Ar  201   6.456   5.730   2.747
    1   AR   Ar  202   5.467   0.361   4.648
    1   AR   Ar  203   0.334   7.016   3.726
    1   AR   Ar  204   4.627   5.146   7.896
    1   AR   Ar  205   5.480   1.881   2.012
    1   AR   Ar  206   5.817   0.227   6.266
    1   AR   Ar  207   0.025   3.995   4.427
    1   AR   Ar  208   0.659   6.030   3.582
    1   AR   Ar  209   5.588   1.625  -2.065
    1   AR   Ar  210   1.758   1.160   0.086
    1   AR   Ar  211   6.871   3.048   0.591
    1   AR   Ar  212   6.765   4.087   0.182
    1   AR   Ar  213   3.915   1.849   0.694
    1   AR   Ar  214   5.210   4.549   2.025
    1   AR   Ar  215   0.344   2.906   2.622
    1   AR   Ar  216   2.007   2.396  -0.326
    1   AR   Ar  217   5.106   2.160   4.149
    1   AR   Ar  218   4.868   2.372   5.144
    1   AR   Ar  219   4.388   4.007   2.330
    1   AR   Ar  220   4.487   4.752   1.217
    1   AR   Ar  221   6.787   5.903   3.792
    1   AR   Ar  222   4.970   6.551   6.057
    1   AR   Ar  223   7.084   1.182   5.810
    1   AR   Ar  224   5.141   1.333   4.911
    1   AR   Ar  225   6.337   2.652   2.639
    1   AR   Ar  226   2.413   3.462   3.977
    1   AR   Ar  227   1.302   2.443   3.815
    1   AR   Ar  228   6.153   0.919   2.252
    1   AR   Ar  229   5.859   4.342  -0.827
    1   AR   Ar  230   3.950   4.792   3.237
    1   AR   Ar  231   5.018   2.522   3.008
    1   AR   Ar  232   5.234   3.091   1.963
    1   AR   Ar  233   6.873   2.419   3.587
    1   AR   Ar  234   6.021   2.909   4.672
    1   AR   Ar  235   6.424   0.935   4.185
    1   AR   Ar  236   4.078   4.378   5.008
    1   AR   Ar  237   4.564   1.502   7.524
    1   AR   Ar  238   4.699   4.954   5.775
    1   AR   Ar  239   1.215   4.043  10.977
    1   AR   Ar  240   1.931   3.078   6.583
    1   AR   Ar  241   1.544   6.625   0.028
    1   AR   Ar  242   5.973   6.359   1.997
    1   AR   Ar  243   4.301   6.458   2.036
    1   AR   Ar  244   6.407   6.000   0.118
    1   AR   Ar  245   3.218   1.624   3.513
    1   AR   Ar  246   4.866   6.321  -1.531
    1   AR   Ar  247   7.117   3.748   1.462
    1   AR   Ar  248   5.411   5.228  -0.472
    1   AR   Ar  249   3.415   0.552   0.751
    1   AR   Ar  250   4.717   6.536   3.745
    1   AR   Ar  251   5.362   3.848   4.857
    1   AR   Ar  252   2.649   4.828   2.604
    1   AR   Ar  253   5.158   2.461   8.005
    1   AR   Ar  254   4.222   3.874  12.722
    1   AR   Ar  255   5.150   0.025   8.848
    1   AR   Ar  256   5.591   5.684   3.535
    7.12000  7.12000 12.00000
Argon-slab step 5525
  256
    1   AR   Ar    1   4.164   3.554  -2.396
    1   AR   Ar    2   5.733   0.113   1.051
    1   AR   Ar    3   4.394   3.592  -0.814
    1   AR   Ar    4   2.544   1.246   1.080
    1   AR   Ar    5   6.861   5.251  -0.731
    1   AR   Ar    6   0.819   1.077   2.260
    1   AR   Ar    7   6.291   4.733   3.367
    1   AR   Ar    8   6.297   3.409  -0.695
    1   AR   Ar    9   0.594   5.836   4.844
    1   AR   Ar   10   5.730   4.534   5.984
    1   AR   Ar   11   0.891   6.735   5.404
    1   AR   Ar   12   0.114   1.644   4.568
    1   AR   Ar   13   0.269   0.210   4.636
    1   AR   Ar   14   4.115   0.870   6.299
    1   AR   Ar   15   2.720   5.827   9.656
    1   AR   Ar   16   0.030   0.279   5.934
    1   AR   Ar   17   6.043   3.441   0.831
    1   AR   Ar   18   6.679   4.382  -2.391
    1   AR   Ar   19   5.264   5.055   0.580
    1   AR   Ar   20   6.722   3.250  -2.127
    1   AR   Ar   21   2.490   1.375   2.314
    1   AR   Ar   22   4.934   0.231   1.995
    1   AR   Ar   23   0.936   6.186   0.878
    1   AR   Ar   24   5.845   2.723   3.629
    1   AR   Ar   25   1.096   2.826   5.653
    1   AR   Ar   26   5.921   6.143   4.707
    1   AR   Ar   27   1.144   7.000   1.380
    1   AR   Ar   28   2.454   2.559   3.494
    1   AR   Ar   29   5.492   0.615   8.089
    1   AR   Ar   30   6.969   0.937   3.181
    1   AR   Ar   31   1.179   0.808   6.981
    1   AR   Ar   32   0.924   1.819   6.208
    1   AR   Ar   33   6.344   5.107   0.741
    1   AR   Ar   34   1.731   4.913   3.225
    1   AR   Ar   35   5.507   5.410   2.560
    1   AR   Ar   36   3.768   1.969  -3.739
    1   AR   Ar   37   4.392   3.667   1.336
    1   AR   Ar   38   6.117   4.594   4.450
    1   AR   Ar   39   0.325   2.653   4.577
    1   AR   Ar   40   0.981   4.190   2.108
    1   AR   Ar   41   0.580   1.679   3.318
    1   AR   Ar   42   5.580   5.471   5.673
    1   AR   Ar   43   7.106   2.852   6.362
    1   AR   Ar   44   1.523   3.729   3.202
    1   AR   Ar   45   1.914   3.525   5.657
    1   AR   Ar   46   6.273   5.230   6.779
    1   AR   Ar   47   2.724   3.761   6.573
    1   AR   Ar   48   0.008   3.231   7.469
    1   AR   Ar   49   0.736   1.463   0.468
    1   AR   Ar   50   2.732   4.160   0.223
    1   AR   Ar   51   5.219   3.491   2.997
    1   AR   Ar   52   5.648   3.474  -1.561
    1   AR   Ar   53   4.702   0.222   3.040
    1   AR   Ar   54   6.631   6.790   2.802
    1   AR   Ar   55   6.919   4.763   2.481
    1   AR   Ar   56   5.726   1.699   3.034
    1   AR   Ar   57   4.202   5.197   2.220
    1   AR   Ar   58   1.464   3.408   4.491
    1   AR   Ar   59   2.965   5.698   5.395
    1   AR   Ar   60   0.741   4.996   2.924
    1   AR   Ar   61   7.011   4.389   6.628
    1   AR   Ar   62   6.737   4.509   5.270
    1   AR   Ar   63   1.979   2.061   6.912
    1   AR   Ar   64   0.670   5.010   4.087
    1   AR   Ar   65   3.872   1.089   2.774
    1   AR   Ar   66   1.486   1.321   1.438
    1   AR   Ar   67   4.631   0.737  -0.334
    1   AR   Ar   68   6.748   0.656   0.228
    1   AR   Ar   69   2.893   2.566   0.709
    1   AR   Ar   70   0.231   1.378   1.412
    1   AR   Ar   71   2.944   0.630   2.996
    1   AR   Ar   72   4.474   1.294   1.455
    1   AR   Ar   73   2.963   0.308   4.230
    1   AR   Ar   74   1.164   0.655   3.311
    1   AR   Ar   75   2.451   0.704   5.233
    1   AR   Ar   76   2.455   0.290   1.752
    1   AR   Ar   77   1.017   5.642   5.875
    1   AR   Ar   78   0.019   5.345   5.918
    1   AR   Ar   79   3.511   6.863   5.053
    1   AR   Ar   80   3.591   4.731   5.843
    1   AR   Ar   81   1.738   6.263   1.981
    1   AR   Ar   82   0.110   5.386   1.417
    1   AR   Ar   83   1.078   3.163   1.722
    1   AR   Ar   84   0.847   4.731   0.857
    1   AR   Ar   85   0.331   3.082  -0.434
    1   AR   Ar   86   2.072   5.348   1.102
    1   AR   Ar   87   3.819   3.235   2.494
    1   AR   Ar   88   3.456   5.248   0.791
    1   AR   Ar   89   5.638   2.381   1.029
    1   AR   Ar   90   2.941   1.176   6.098
    1   AR   Ar   91   1.765   1.429   3.163
    1   AR   Ar   92   3.527   2.628   1.580
    1   AR   Ar   93   0.920   0.805   5.645
    1   AR   Ar   94   6.573   6.596   9.103
    1   AR   Ar   95   5.413   1.028   6.993
    1   AR   Ar   96   2.321   6.459   5.258
    1   AR   Ar   97   4.564   1.254  -1.484
    1   AR   Ar   98   1.724   4.552   4.207
    1   AR   Ar   99   6.481   6.599  -1.025
    1   AR   Ar  100   5.620   2.983  -2.830
    1   AR   Ar  101   3.939   5.911   3.071
    1   AR   Ar  102   4.147   2.228   2.354
    1   AR   Ar  103   1.951   4.503   1.851
    1   AR   Ar  104   3.483   0.397  -0.612
    1   AR   Ar  105   2.893   2.309   2.437
    1   AR   Ar  106   4.694   1.128   3.729
    1   AR   Ar  107   0.984   4.586   5.293
    1   AR   Ar  108   2.209   0.349   3.632
    1   AR   Ar  109   2.340   4.895   5.138
    1   AR   Ar  110   1.935   2.486   5.170
    1   AR   Ar  111   3.576   4.328   7.255
    1   AR   Ar  112   6.203   6.344   6.057
    1   AR   Ar  113   0.025   5.997  -1.627
    1   AR   Ar  114   2.566   0.208  -0.055
    1   AR   Ar  115   0.589   4.518  -0.385
    1   AR   Ar  116   5.471   1.500   0.027
    1   AR   Ar  117   0.220   4.164   3.303
    1   AR   Ar  118   1.582   6.419   3.916
    1   AR   Ar  119   1.934   3.231   2.343
    1   AR   Ar  120   2.108   6.976   2.653
    1   AR   Ar  121   4.593   3.866   7.139
    1   AR   Ar  122   2.991   5.250   3.452
    1   AR   Ar  123   3.393   2.319   5.092
    1   AR   Ar  124   1.039   5.391   1.863
    1   AR   Ar  125   5.971   3.709   3.733
    1   AR   Ar  126   0.204   0.550   7.671
    1   AR   Ar  127   4.900   3.517   5.804
    1   AR   Ar  128   1.114   3.825   6.234
    1   AR   Ar  129   1.508   5.469   4.564
    1   AR   Ar  130   5.010   0.780  -5.018
    1   AR   Ar  131   3.639   6.261  -0.395
    1   AR   Ar  132   1.877   2.419   1.577
    1   AR   Ar  133   4.220   0.474   4.454
    1   AR   Ar  134   2.944   1.499   4.647
    1   AR   Ar  135   6.300   0.034   5.101
    1   AR   Ar  136   5.623   6.486   3.023
    1   AR   Ar  137   2.174   4.561   6.079
    1   AR   Ar  138   5.897   1.454   5.901
    1   AR   Ar  139   6.164   1.912   4.942
    1   AR   Ar  140   4.778   6.521   4.971
    1   AR   Ar  141   3.279   5.039   4.465
    1   AR   Ar  142   4.036   5.722   8.524
    1   AR   Ar  143   5.785   6.622   7.447
    1   AR   Ar  144   0.000   2.382   5.522
    1   AR   Ar  145   4.930   4.749  -1.540
    1   AR   Ar  146   4.094   2.055   3.990
    1   AR   Ar  147   4.706   4.429  -0.144
    1   AR   Ar  148   2.151   5.968  -0.573
    1   AR   Ar  149   6.892   1.905  -0.148
    1   AR   Ar  150   1.217   2.100   2.556
    1   AR   Ar  151   2.840   3.497   2.040
    1   AR   Ar  152   0.806   1.363  -1.025
    1   AR   Ar  153   5.618   0.682   3.203
    1   AR   Ar  154   4.927   3.284   4.005
    1   AR   Ar  155   6.433   3.363   5.616
    1   AR   Ar  156   2.713   3.827   3.059
    1   AR   Ar  157   2.818   5.802   6.641
    1   AR   Ar  158   0.859   2.723   7.026
    1   AR   Ar  159   4.611   0.310   5.517
    1   AR   Ar  160   1.092   1.108   4.211
    1   AR   Ar  161   5.173   4.588   3.472
    1   AR   Ar  162   3.935   5.490  -1.257
    1   AR   Ar  163   6.227   3.686   2.317
    1   AR   Ar  164   2.049   5.913   2.975
    1   AR   Ar  165   3.293   4.263   1.087
    1   AR   Ar  166   2.830   3.399   5.207
    1   AR   Ar  167   6.160   7.005   3.863
    1   AR   Ar  168   5.612   4.126  -2.410
    1   AR   Ar  169   4.170   3.789   3.523
    1   AR   Ar  170   2.498   2.216   5.877
    1   AR   Ar  171   4.626   5.528   4.219
    1   AR   Ar  172   4.122   3.091   4.702
    1   AR   Ar  173   1.133   1.507   7.808
    1   AR   Ar  174   2.945   6.166   4.321
    1   AR   Ar  175   1.521   6.875   7.489
    1   AR   Ar  176   3.327   3.077   3.793
    1   AR   Ar  177   6.758   4.383  -1.358
    1   AR   Ar  178   2.080   6.507   0.991
    1   AR   Ar  179   3.215   6.332   0.776
    1   AR   Ar  180   5.252   6.731  -7.331
    1   AR   Ar  181   0.062   6.116   2.154
    1   AR   Ar  182   1.128   6.727   2.895
    1   AR   Ar  183   4.939   5.746   1.504
    1   AR   Ar  184   4.175   5.620   0.250
    1   AR   Ar  185   3.451   4.123   4.139
    1   AR   Ar  186   2.920   6.610   3.303
    1   AR   Ar  187   3.782   6.712   3.887
    1   AR   Ar  188   3.458   1.113   1.762
    1   AR   Ar  189   6.045   2.422   6.574
    1   AR   Ar  190   1.378   0.170   4.432
    1   AR   Ar  191   3.919   5.877   4.989
    1   AR   Ar  192   3.661   3.291   5.843
    1   AR   Ar  193   3.096   6.180   1.859
    1   AR   Ar  194   4.697   5.984  -0.483
    1   AR   Ar  195   6.228   0.960   1.245
    1   AR   Ar  196   4.214   6.542   0.756
    1   AR   Ar  197   4.818   2.790   0.181
    1   AR   Ar  198   6.788   6.673   1.278
    1   AR   Ar  199   0.040   0.328   2.181
    1   AR   Ar  200   5.817   2.659  -0.066
    1   AR   Ar  201   6.470   5.740   2.748
    1   AR   Ar  202   5.476   0.373   4.634
    1   AR   Ar  203   0.336   7.012   3.694
    1   AR   Ar  204   4.622   5.186   7.892
    1   AR   Ar  205   5.463   1.893   2.035
    1   AR   Ar  206   5.786   0.239   6.272
    1   AR   Ar  207   0.053   4.003   4.452
    1   AR   Ar  208   0.681   6.012   3.595
    1   AR   Ar  209   5.591   1.647  -2.059
    1   AR   Ar  210   1.734   1.188   0.137
    1   AR   Ar  211   6.841   3.044   0.607
    1   AR   Ar  212   6.746   4.099   0.167
    1   AR   Ar  213   3.930   1.857   0.716
    1   AR   Ar  214   5.245   4.570   2.051
    1   AR   Ar  215   0.351   2.937   2.664
    1   AR   Ar  216   2.006   2.406  -0.337
    1   AR   Ar  217   5.138   2.148   4.168
    1   AR   Ar  218   4.849   2.368   5.155
    1   AR   Ar  219   4.401   4.009   2.335
    1   AR   Ar  220   4.510   4.727   1.233
    1   AR   Ar  221   6.803   5.914   3.788
    1   AR   Ar  222   4.977   6.534   6.070
    1   AR   Ar  223   7.081   1.197   5.815
    1   AR   Ar  224   5.121   1.317   4.897
    1   AR   Ar  225   6.281   2.690   2.653
    1   AR   Ar  226   2.397   3.470   4.010
    1   AR   Ar  227   1.319   2.426   3.831
    1   AR   Ar  228   6.166   0.928   2.248
    1   AR   Ar  229   5.848   4.315  -0.824
    1   AR   Ar  230   3.966   4.797   3.224
    1   AR   Ar  231   5.017   2.520   3.014
    1   AR   Ar  232   5.228   3.090   1.957
    1   AR   Ar  233   6.871   2.425   3.561
    1   AR   Ar  234   6.024   2.925   4.664
    1   AR   Ar  235   6.426   0.934   4.171
    1   AR   Ar  236   4.108   4.369   5.007
    1   AR   Ar  237   4.590   1.517   7.539
    1   AR   Ar  238   4.714   4.957   5.782
    1   AR   Ar  239   1.214   4.048  10.959
    1   AR   Ar  240   1.928   3.069   6.608
    1   AR   Ar  241   1.544   6.622   0.042
    1   AR   Ar  242   5.962   6.351   1.973
    1   AR   Ar  243   4.299   6.396   2.025
    1   AR   Ar  244   6.405   5.996   0.121
    1   AR   Ar  245   3.183   1.650   3.504
    1   AR   Ar  246   4.876   6.297  -1.516
    1   AR   Ar  247   7.113   3.728   1.453
    1   AR   Ar  248   5.430   5.261  -0.472
    1   AR   Ar  249   3.420   0.568   0.733
    1   AR   Ar  250   4.711   6.553   3.725
    1   AR   Ar  251   5.381   3.822   4.841
    1   AR   Ar  252   2.650   4.831   2.610
    1   AR   Ar  253   5.173   2.462   7.970
    1   AR   Ar  254   4.191   3.909  12.727
    1   AR   Ar  255   5.149   7.096   8.863
    1   AR   Ar  256   5.588   5.691   3.530
    7.12000  7.12000 12.00000
Argon-slab step 5530
  256
    1   AR   Ar    1   4.133   3.522  -2.384
    1   AR   Ar    2   5.741   0.124   1.061
    1   AR   Ar    3   4.381   3.549  -0.836
    1   AR   Ar    4   2.561   1.217   1.082
    1   AR   Ar    5   6.859   5.240  -0.737
    1   AR   Ar    6   0.855   1.064   2.287
    1   AR   Ar    7   6.297   4.699   3.360
    1   AR   Ar    8   6.312   3.399  -0.639
    1   AR   Ar    9   0.591   5.815   4.810
    1   AR   Ar   10   5.748   4.541   6.014
    1   AR   Ar   11   0.888   6.744   5.389
    1   AR   Ar   12   0.085   1.670   4.595
    1   AR   Ar   13   0.268   0.191   4.655
    1   AR   Ar   14   4.122   0.879   6.281
    1   AR   Ar   15   2.738   5.838   9.648
    1   AR   Ar   16   0.096   0.238   5.972
    1   AR   Ar   17   6.020   3.432   0.833
    1   AR   Ar   18   6.692   4.363  -2.400
    1   AR   Ar   19   5.244   5.092   0.563
    1   AR   Ar   20   6.739   3.212  -2.137
    1   AR   Ar   21   2.474   1.363   2.336
    1   AR   Ar   22   4.942   0.254   2.010
    1   AR   Ar   23   0.938   6.184   0.875
    1   AR   Ar   24   5.839   2.717   3.638
    1   AR   Ar   25   1.084   2.813   5.656
    1   AR   Ar   26   5.919   6.134   4.730
    1   AR   Ar   27   1.136   7.025   1.358
    1   AR   Ar   28   2.492   2.527   3.529
    1   AR   Ar   29   5.491   0.609   8.070
    1   AR   Ar   30   6.928   0.951   3.189
    1   AR   Ar   31   1.176   0.818   6.961
    1   AR   Ar   32   0.908   1.842   6.224
    1   AR   Ar   33   6.335   5.148   0.722
    1   AR   Ar   34   1.743   4.906   3.224
    1   AR   Ar   35   5.511   5.403   2.545
    1   AR   Ar   36   3.754   1.943  -3.744
    1   AR   Ar   37   4.394   3.675   1.319
    1   AR   Ar   38   6.118   4.592   4.430
    1   AR   Ar   39   0.331   2.680   4.575
    1   AR   Ar   40   0.969   4.189   2.127
    1   AR   Ar   41   0.580   1.692   3.308
    1   AR   Ar   42   5.572   5.471   5.636
    1   AR   Ar   43   7.099   2.876   6.375
    1   AR   Ar   44   1.496   3.735   3.172
    1   AR   Ar   45   1.919   3.505   5.643
    1   AR   Ar   46   6.294   5.238   6.805
    1   AR   Ar   47   2.718   3.789   6.557
    1   AR   Ar   48   0.018   3.259   7.509
    1   AR   Ar   49   0.732   1.453   0.465
    1   AR   Ar   50   2.725   4.165   0.217
    1   AR   Ar   51   5.239   3.507   2.984
    1   AR   Ar   52   5.604   3.475  -1.605
    1   AR   Ar   53   4.702   0.207   3.034
    1   AR   Ar   54   6.633   6.785   2.778
    1   AR   Ar   55   6.906   4.781   2.443
    1   AR   Ar   56   5.689   1.714   3.071
    1   AR   Ar   57   4.253   5.215   2.265
    1   AR   Ar   58   1.467   3.425   4.487
    1   AR   Ar   59   2.989   5.738   5.400
    1   AR   Ar   60   0.747   5.017   2.921
    1   AR   Ar   61   7.002   4.412   6.629
    1   AR   Ar   62   6.740   4.514   5.324
    1   AR   Ar   63   1.956   2.031   6.919
    1   AR   Ar   64   0.664   4.986   4.100
    1   AR   Ar   65   3.883   1.119   2.793
    1   AR   Ar   66   1.484   1.323   1.443
    1   AR   Ar   67   4.650   0.742  -0.356
    1   AR   Ar   68   6.732   0.671   0.205
    1   AR   Ar   69   2.887   2.569   0.707
    1   AR   Ar   70   0.238   1.391   1.405
    1   AR   Ar   71   2.962   0.594   3.002
    1   AR   Ar   72   4.475   1.286   1.482
    1   AR   Ar   73   3.006   0.295   4.214
    1   AR   Ar   74   1.159   0.649   3.298
    1   AR   Ar   75   2.432   0.706   5.245
    1   AR   Ar   76   2.470   0.260   1.766
    1   AR   Ar   77   1.039   5.629   5.895
    1   AR   Ar   78   7.106   5.352   5.948
    1   AR   Ar   79   3.514   6.865   5.061
    1   AR   Ar   80   3.608   4.730   5.864
    1   AR   Ar   81   1.733   6.229   1.965
    1   AR   Ar   82   0.114   5.358   1.420
    1   AR   Ar   83   1.030   3.157   1.740
    1   AR   Ar   84   0.875   4.693   0.839
    1   AR   Ar   85   0.344   3.085  -0.467
    1   AR   Ar   86   2.040   5.381   1.095
    1   AR   Ar   87   3.815   3.210   2.477
    1   AR   Ar   88   3.469   5.227   0.813
    1   AR   Ar   89   5.625   2.410   1.021
    1   AR   Ar   90   2.963   1.172   6.092
    1   AR   Ar   91   1.767   1.467   3.196
    1   AR   Ar   92   3.599   2.651   1.582
    1   AR   Ar   93   0.947   0.802   5.650
    1   AR   Ar   94   6.561   6.591   9.129
    1   AR   Ar   95   5.402   1.060   6.974
    1   AR   Ar   96   2.309   6.458   5.262
    1   AR   Ar   97   4.555   1.252  -1.477
    1   AR   Ar   98   1.738   4.506   4.208
    1   AR   Ar   99   6.467   6.580  -1.033
    1   AR   Ar  100   5.638   2.972  -2.849
    1   AR   Ar  101   3.964   5.911   3.066
    1   AR   Ar  102   4.141   2.256   2.336
    1   AR   Ar  103   1.928   4.506   1.849
    1   AR   Ar  104   3.478   0.416  -0.610
    1   AR   Ar  105   2.905   2.294   2.406
    1   AR   Ar  106   4.704   1.097   3.692
    1   AR   Ar  107   0.948   4.577   5.325
    1   AR   Ar  108   2.174   0.344   3.620
    1   AR   Ar  109   2.340   4.888   5.089
    1   AR   Ar  110   1.949   2.512   5.146
    1   AR   Ar  111   3.560   4.339   7.270
    1   AR   Ar  112   6.178   6.330   6.095
    1   AR   Ar  113   7.111   5.969  -1.600
    1   AR   Ar  114   2.585   0.178  -0.069
    1   AR   Ar  115   0.591   4.518  -0.379
    1   AR   Ar  116   5.465   1.475   0.043
    1   AR   Ar  117   0.220   4.171   3.295
    1   AR   Ar  118   1.576   6.423   3.912
    1   AR   Ar  119   1.951   3.244   2.342
    1   AR   Ar  120   2.108   7.002   2.645
    1   AR   Ar  121   4.602   3.846   7.138
    1   AR   Ar  122   2.987   5.302   3.446
    1   AR   Ar  123   3.405   2.317   5.077
    1   AR   Ar  124   1.069   5.406   1.851
    1   AR   Ar  125   5.965   3.713   3.742
    1   AR   Ar  126   0.240   0.545   7.655
    1   AR   Ar  127   4.876   3.542   5.770
    1   AR   Ar  128   1.113   3.814   6.213
    1   AR   Ar  129   1.496   5.478   4.559
    1   AR   Ar  130   5.011   0.773  -5.018
    1   AR   Ar  131   3.624   6.243  -0.407
    1   AR   Ar  132   1.894   2.405   1.560
    1   AR   Ar  133   4.219   0.478   4.495
    1   AR   Ar  134   2.971   1.535   4.665
    1   AR   Ar  135   6.294   0.059   5.093
    1   AR   Ar  136   5.617   6.464   3.021
    1   AR   Ar  137   2.186   4.555   6.077
    1   AR   Ar  138   5.902   1.477   5.918
    1   AR   Ar  139   6.146   1.932   4.958
    1   AR   Ar  140   4.794   6.489   4.987
    1   AR   Ar  141   3.274   5.054   4.463
    1   AR   Ar  142   4.035   5.726   8.567
    1   AR   Ar  143   5.810   6.577   7.454
    1   AR   Ar  144   0.003   2.382   5.522
    1   AR   Ar  145   4.940   4.762  -1.533
    1   AR   Ar  146   4.117   2.067   3.987
    1   AR   Ar  147   4.679   4.449  -0.168
    1   AR   Ar  148   2.155   5.954  -0.593
    1   AR   Ar  149   6.872   1.888  -0.136
    1   AR   Ar  150   1.198   2.087   2.553
    1   AR   Ar  151   2.848   3.498   2.051
    1   AR   Ar  152   0.811   1.369  -1.018
    1   AR   Ar  153   5.628   0.714   3.179
    1   AR   Ar  154   4.960   3.312   4.017
    1   AR   Ar  155   6.441   3.358   5.638
    1   AR   Ar  156   2.692   3.828   3.065
    1   AR   Ar  157   2.829   5.801   6.626
    1   AR   Ar  158   0.885   2.750   6.994
    1   AR   Ar  159   4.641   0.340   5.525
    1   AR   Ar  160   1.081   1.116   4.223
    1   AR   Ar  161   5.191   4.603   3.482
    1   AR   Ar  162   3.931   5.520  -1.234
    1   AR   Ar  163   6.233   3.678   2.300
    1   AR   Ar  164   2.044   5.912   2.959
    1   AR   Ar  165   3.295   4.263   1.100
    1   AR   Ar  166   2.830   3.410   5.184
    1   AR   Ar  167   6.134   7.032   3.874
    1   AR   Ar  168   5.650   4.110  -2.436
    1   AR   Ar  169   4.202   3.775   3.506
    1   AR   Ar  170   2.528   2.230   5.877
    1   AR   Ar  171   4.619   5.505   4.217
    1   AR   Ar  172   4.119   3.075   4.713
    1   AR   Ar  173   1.117   1.512   7.829
    1   AR   Ar  174   2.944   6.172   4.340
    1   AR   Ar  175   1.463   6.886   7.479
    1   AR   Ar  176   3.348   3.064   3.799
    1   AR   Ar  177   6.746   4.381  -1.354
    1   AR   Ar  178   2.064   6.506   0.974
    1   AR   Ar  179   3.223   6.333   0.778
    1   AR   Ar  180   5.247   6.693  -7.319
    1   AR   Ar  181   0.003   6.101   2.153
    1   AR   Ar  182   1.137   6.734   2.885
    1   AR   Ar  183   4.971   5.753   1.502
    1   AR   Ar  184   4.186   5.636   0.276
    1   AR   Ar  185   3.460   4.127   4.106
    1   AR   Ar  186   2.936   6.599   3.295
    1   AR   Ar  187   3.796   6.716   3.863
    1   AR   Ar  188   3.450   1.133   1.743
    1   AR   Ar  189   6.043   2.440   6.588
    1   AR   Ar  190   1.361   0.166   4.425
    1   AR   Ar  191   3.930   5.883   4.973
    1   AR   Ar  192   3.668   3.325   5.816
    1   AR   Ar  193   3.103   6.178   1.860
    1   AR   Ar  194   4.687   5.992  -0.487
    1   AR   Ar  195   6.276   1.008   1.256
    1   AR   Ar  196   4.214   6.541   0.753
    1   AR   Ar  197   4.816   2.781   0.195
    1   AR   Ar  198   6.804   6.681   1.267
    1   AR   Ar  199   0.012   0.340   2.165
    1   AR   Ar  200   5.832   2.662  -0.080
    1   AR   Ar  201   6.480   5.745   2.757
    1   AR   Ar  202   5.465   0.357   4.580
    1   AR   Ar  203   0.337   7.008   3.653
    1   AR   Ar  204   4.588   5.217   7.883
    1   AR   Ar  205   5.444   1.907   2.056
    1   AR   Ar  206   5.756   0.250   6.276
    1   AR   Ar  207   0.082   4.011   4.473
    1   AR   Ar  208   0.710   6.014   3.625
    1   AR   Ar  209   5.593   1.669  -2.053
    1   AR   Ar  210   1.713   1.216   0.188
    1   AR   Ar  211   6.848   3.014   0.618
    1   AR   Ar  212   6.728   4.110   0.152
    1   AR   Ar  213   3.943   1.865   0.738
    1   AR   Ar  214   5.281   4.585   2.073
    1   AR   Ar  215   0.358   2.967   2.707
    1   AR   Ar  216   2.005   2.416  -0.347
    1   AR   Ar  217   5.167   2.143   4.184
    1   AR   Ar  218   4.829   2.365   5.168
    1   AR   Ar  219   4.419   4.020   2.343
    1   AR   Ar  220   4.529   4.703   1.249
    1   AR   Ar  221   6.812   5.925   3.786
    1   AR   Ar  222   4.986   6.516   6.083
    1   AR   Ar  223   7.073   1.249   5.815
    1   AR   Ar  224   5.100   1.304   4.884
    1   AR   Ar  225   6.223   2.724   2.665
    1   AR   Ar  226   2.379   3.484   4.047
    1   AR   Ar  227   1.336   2.409   3.848
    1   AR   Ar  228   6.179   0.938   2.252
    1   AR   Ar  229   5.831   4.293  -0.821
    1   AR   Ar  230   3.983   4.802   3.212
    1   AR   Ar  231   5.011   2.508   3.020
    1   AR   Ar  232   5.243   3.092   1.939
    1   AR   Ar  233   6.872   2.429   3.537
    1   AR   Ar  234   6.025   2.944   4.655
    1   AR   Ar  235   6.428   0.932   4.157
    1   AR   Ar  236   4.141   4.358   5.003
    1   AR   Ar  237   4.616   1.531   7.555
    1   AR   Ar  238   4.722   4.956   5.788
    1   AR   Ar  239   1.213   4.066  10.943
    1   AR   Ar  240   1.921   3.060   6.633
    1   AR   Ar  241   1.544   6.620   0.057
    1   AR   Ar  242   5.951   6.343   1.947
    1   AR   Ar  243   4.295   6.336   2.017
    1   AR   Ar  244   6.433   6.022   0.151
    1   AR   Ar  245   3.147   1.675   3.493
    1   AR   Ar  246   4.890   6.267  -1.486
    1   AR   Ar  247   7.109   3.709   1.445
    1   AR   Ar  248   5.453   5.292  -0.474
    1   AR   Ar  249   3.424   0.583   0.716
    1   AR   Ar  250   4.727   6.564   3.705
    1   AR   Ar  251   5.401   3.798   4.825
    1   AR   Ar  252   2.649   4.832   2.609
    1   AR   Ar  253   5.188   2.463   7.934
    1   AR   Ar  254   4.161   3.944  12.732
    1   AR   Ar  255   5.148   7.045   8.879
    1   AR   Ar  256   5.585   5.679   3.546
    7.12000  7.12000 12.00000
Argon-slab step 5535
  256
    1   AR   Ar    1   4.104   3.489  -2.372
    1   AR   Ar    2   5.747   0.131   1.071
    1   AR   Ar    3   4.371   3.507  -0.858
    1   AR   Ar    4   2.574   1.217   1.104
    1   AR   Ar    5   6.856   5.232  -0.741
    1   AR   Ar    6   0.891   1.049   2.316
    1   AR   Ar    7   6.303   4.668   3.351
    1   AR   Ar    8   6.321   3.383  -0.594
    1   AR   Ar    9   0.596   5.781   4.797
    1   AR   Ar   10   5.769   4.542   6.047
    1   AR   Ar   11   0.885   6.754   5.374
    1   AR   Ar   12   0.055   1.691   4.622
    1   AR   Ar   13   0.266   0.174   4.678
    1   AR   Ar   14   4.129   0.889   6.265
    1   AR   Ar   15   2.757   5.849   9.640
    1   AR   Ar   16   0.162   0.189   6.010
    1   AR   Ar   17   5.978   3.434   0.839
    1   AR   Ar   18   6.706   4.343  -2.412
    1   AR   Ar   19   5.223   5.130   0.547
    1   AR   Ar   20   6.753   3.176  -2.146
    1   AR   Ar   21   2.457   1.346   2.356
    1   AR   Ar   22   4.972   0.290   2.032
    1   AR   Ar   23   0.938   6.166   0.874
    1   AR   Ar   24   5.833   2.706   3.645
    1   AR   Ar   25   1.067   2.801   5.660
    1   AR   Ar   26   5.916   6.125   4.752
    1   AR   Ar   27   1.130   7.061   1.342
    1   AR   Ar   28   2.525   2.495   3.562
    1   AR   Ar   29   5.490   0.604   8.049
    1   AR   Ar   30   6.887   0.962   3.194
    1   AR   Ar   31   1.160   0.805   6.948
    1   AR   Ar   32   0.891   1.866   6.240
    1   AR   Ar   33   6.326   5.185   0.705
    1   AR   Ar   34   1.757   4.898   3.223
    1   AR   Ar   35   5.517   5.404   2.534
    1   AR   Ar   36   3.739   1.918  -3.748
    1   AR   Ar   37   4.396   3.678   1.301
    1   AR   Ar   38   6.119   4.589   4.410
    1   AR   Ar   39   0.341   2.713   4.570
    1   AR   Ar   40   0.934   4.173   2.158
    1   AR   Ar   41   0.601   1.693   3.299
    1   AR   Ar   42   5.570   5.484   5.594
    1   AR   Ar   43   7.093   2.905   6.399
    1   AR   Ar   44   1.468   3.744   3.144
    1   AR   Ar   45   1.913   3.516   5.674
    1   AR   Ar   46   6.314   5.248   6.828
    1   AR   Ar   47   2.716   3.816   6.541
    1   AR   Ar   48   0.028   3.288   7.547
    1   AR   Ar   49   0.725   1.443   0.461
    1   AR   Ar   50   2.716   4.171   0.209
    1   AR   Ar   51   5.259   3.529   2.968
    1   AR   Ar   52   5.560   3.475  -1.646
    1   AR   Ar   53   4.699   0.195   3.026
    1   AR   Ar   54   6.632   6.784   2.761
    1   AR   Ar   55   6.893   4.797   2.403
    1   AR   Ar   56   5.656   1.735   3.111
    1   AR   Ar   57   4.306   5.234   2.306
    1   AR   Ar   58   1.463   3.441   4.488
    1   AR   Ar   59   3.008   5.764   5.405
    1   AR   Ar   60   0.753   5.041   2.916
    1   AR   Ar   61   6.994   4.434   6.628
    1   AR   Ar   62   6.743   4.518   5.380
    1   AR   Ar   63   1.930   2.000   6.927
    1   AR   Ar   64   0.667   5.001   4.113
    1   AR   Ar   65   3.896   1.152   2.812
    1   AR   Ar   66   1.482   1.325   1.447
    1   AR   Ar   67   4.662   0.761  -0.384
    1   AR   Ar   68   6.716   0.687   0.182
    1   AR   Ar   69   2.880   2.572   0.705
    1   AR   Ar   70   0.244   1.404   1.400
    1   AR   Ar   71   2.981   0.559   3.006
    1   AR   Ar   72   4.479   1.278   1.511
    1   AR   Ar   73   3.053   0.281   4.201
    1   AR   Ar   74   1.149   0.637   3.283
    1   AR   Ar   75   2.413   0.707   5.255
    1   AR   Ar   76   2.488   0.232   1.774
    1   AR   Ar   77   1.063   5.617   5.911
    1   AR   Ar   78   7.071   5.359   5.978
    1   AR   Ar   79   3.516   6.868   5.068
    1   AR   Ar   80   3.623   4.730   5.885
    1   AR   Ar   81   1.738   6.219   1.951
    1   AR   Ar   82   0.116   5.328   1.420
    1   AR   Ar   83   0.980   3.149   1.759
    1   AR   Ar   84   0.904   4.657   0.822
    1   AR   Ar   85   0.362   3.088  -0.443
    1   AR   Ar   86   2.007   5.414   1.090
    1   AR   Ar   87   3.806   3.187   2.465
    1   AR   Ar   88   3.475   5.207   0.842
    1   AR   Ar   89   5.611   2.439   1.014
    1   AR   Ar   90   2.986   1.170   6.085
    1   AR   Ar   91   1.748   1.463   3.224
    1   AR   Ar   92   3.666   2.676   1.576
    1   AR   Ar   93   0.976   0.800   5.653
    1   AR   Ar   94   6.548   6.586   9.155
    1   AR   Ar   95   5.402   1.072   6.945
    1   AR   Ar   96   2.292   6.465   5.263
    1   AR   Ar   97   4.546   1.251  -1.470
    1   AR   Ar   98   1.751   4.454   4.211
    1   AR   Ar   99   6.450   6.562  -1.038
    1   AR   Ar  100   5.657   2.962  -2.866
    1   AR   Ar  101   3.987   5.912   3.061
    1   AR   Ar  102   4.140   2.273   2.324
    1   AR   Ar  103   1.907   4.509   1.845
    1   AR   Ar  104   3.430   0.403  -0.623
    1   AR   Ar  105   2.919   2.284   2.376
    1   AR   Ar  106   4.714   1.069   3.655
    1   AR   Ar  107   0.929   4.549   5.339
    1   AR   Ar  108   2.130   0.339   3.608
    1   AR   Ar  109   2.339   4.882   5.036
    1   AR   Ar  110   1.957   2.543   5.107
    1   AR   Ar  111   3.543   4.354   7.284
    1   AR   Ar  112   6.154   6.316   6.133
    1   AR   Ar  113   7.079   5.938  -1.574
    1   AR   Ar  114   2.601   0.145  -0.080
    1   AR   Ar  115   0.591   4.518  -0.372
    1   AR   Ar  116   5.460   1.450   0.060
    1   AR   Ar  117   0.219   4.176   3.289
    1   AR   Ar  118   1.580   6.427   3.906
    1   AR   Ar  119   1.957   3.253   2.344
    1   AR   Ar  120   2.110   7.028   2.640
    1   AR   Ar  121   4.610   3.826   7.137
    1   AR   Ar  122   2.984   5.359   3.445
    1   AR   Ar  123   3.425   2.313   5.078
    1   AR   Ar  124   1.101   5.419   1.840
    1   AR   Ar  125   5.961   3.725   3.753
    1   AR   Ar  126   0.277   0.540   7.637
    1   AR   Ar  127   4.851   3.568   5.735
    1   AR   Ar  128   1.108   3.804   6.196
    1   AR   Ar  129   1.491   5.492   4.547
    1   AR   Ar  130   5.011   0.766  -5.018
    1   AR   Ar  131   3.607   6.227  -0.419
    1   AR   Ar  132   1.908   2.411   1.555
    1   AR   Ar  133   4.219   0.480   4.536
    1   AR   Ar  134   2.992   1.561   4.678
    1   AR   Ar  135   6.295   0.082   5.088
    1   AR   Ar  136   5.597   6.479   3.026
    1   AR   Ar  137   2.196   4.550   6.076
    1   AR   Ar  138   5.906   1.498   5.936
    1   AR   Ar  139   6.129   1.949   4.974
    1   AR   Ar  140   4.814   6.458   5.000
    1   AR   Ar  141   3.269   5.077   4.466
    1   AR   Ar  142   4.030   5.733   8.615
    1   AR   Ar  143   5.835   6.533   7.460
    1   AR   Ar  144   0.005   2.375   5.514
    1   AR   Ar  145   4.951   4.776  -1.524
    1   AR   Ar  146   4.137   2.080   3.984
    1   AR   Ar  147   4.649   4.491  -0.185
    1   AR   Ar  148   2.160   5.939  -0.613
    1   AR   Ar  149   6.871   1.848  -0.152
    1   AR   Ar  150   1.196   2.110   2.528
    1   AR   Ar  151   2.869   3.502   2.055
    1   AR   Ar  152   0.816   1.376  -1.010
    1   AR   Ar  153   5.640   0.738   3.157
    1   AR   Ar  154   4.996   3.333   4.029
    1   AR   Ar  155   6.448   3.354   5.659
    1   AR   Ar  156   2.672   3.828   3.071
    1   AR   Ar  157   2.839   5.798   6.611
    1   AR   Ar  158   0.897   2.749   6.978
    1   AR   Ar  159   4.673   0.368   5.530
    1   AR   Ar  160   1.066   1.134   4.236
    1   AR   Ar  161   5.209   4.618   3.491
    1   AR   Ar  162   3.929   5.551  -1.210
    1   AR   Ar  163   6.239   3.677   2.281
    1   AR   Ar  164   2.038   5.913   2.945
    1   AR   Ar  165   3.299   4.256   1.119
    1   AR   Ar  166   2.833   3.419   5.156
    1   AR   Ar  167   6.109   7.055   3.883
    1   AR   Ar  168   5.686   4.095  -2.465
    1   AR   Ar  169   4.237   3.759   3.481
    1   AR   Ar  170   2.568   2.241   5.889
    1   AR   Ar  171   4.602   5.486   4.204
    1   AR   Ar  172   4.115   3.062   4.723
    1   AR   Ar  173   1.101   1.518   7.849
    1   AR   Ar  174   2.949   6.174   4.360
    1   AR   Ar  175   1.405   6.897   7.469
    1   AR   Ar  176   3.367   3.056   3.803
    1   AR   Ar  177   6.735   4.377  -1.348
    1   AR   Ar  178   2.067   6.512   0.965
    1   AR   Ar  179   3.224   6.333   0.777
    1   AR   Ar  180   5.242   6.656  -7.307
    1   AR   Ar  181   0.014   6.126   2.165
    1   AR   Ar  182   1.128   6.744   2.868
    1   AR   Ar  183   5.007   5.756   1.498
    1   AR   Ar  184   4.170   5.634   0.326
    1   AR   Ar  185   3.465   4.126   4.073
    1   AR   Ar  186   2.953   6.610   3.301
    1   AR   Ar  187   3.795   6.723   3.845
    1   AR   Ar  188   3.442   1.150   1.728
    1   AR   Ar  189   6.041   2.458   6.600
    1   AR   Ar  190   1.345   0.159   4.421
    1   AR   Ar  191   3.941   5.892   4.949
    1   AR   Ar  192   3.682   3.349   5.826
    1   AR   Ar  193   3.108   6.177   1.862
    1   AR   Ar  194   4.681   6.007  -0.499
    1   AR   Ar  195   6.300   1.036   1.244
    1   AR   Ar  196   4.220   6.547   0.752
    1   AR   Ar  197   4.812   2.771   0.211
    1   AR   Ar  198   6.807   6.687   1.266
    1   AR   Ar  199   7.106   0.354   2.146
    1   AR   Ar  200   5.849   2.662  -0.092
    1   AR   Ar  201   6.478   5.741   2.780
    1   AR   Ar  202   5.446   0.341   4.524
    1   AR   Ar  203   0.338   7.006   3.607
    1   AR   Ar  204   4.549   5.242   7.869
    1   AR   Ar  205   5.451   1.927   2.025
    1   AR   Ar  206   5.726   0.262   6.279
    1   AR   Ar  207   0.111   4.019   4.493
    1   AR   Ar  208   0.736   6.008   3.652
    1   AR   Ar  209   5.595   1.691  -2.047
    1   AR   Ar  210   1.696   1.243   0.239
    1   AR   Ar  211   6.874   2.972   0.622
    1   AR   Ar  212   6.709   4.121   0.137
    1   AR   Ar  213   3.955   1.875   0.761
    1   AR   Ar  214   5.314   4.588   2.088
    1   AR   Ar  215   0.365   2.999   2.750
    1   AR   Ar  216   2.004   2.425  -0.356
    1   AR   Ar  217   5.180   2.170   4.193
    1   AR   Ar  218   4.809   2.365   5.182
    1   AR   Ar  219   4.441   4.037   2.353
    1   AR   Ar  220   4.545   4.684   1.267
    1   AR   Ar  221   6.815   5.937   3.786
    1   AR   Ar  222   4.997   6.498   6.096
    1   AR   Ar  223   7.063   1.310   5.813
    1   AR   Ar  224   5.079   1.292   4.871
    1   AR   Ar  225   6.164   2.752   2.677
    1   AR   Ar  226   2.372   3.486   4.047
    1   AR   Ar  227   1.354   2.391   3.863
    1   AR   Ar  228   6.191   0.947   2.266
    1   AR   Ar  229   5.809   4.275  -0.817
    1   AR   Ar  230   4.000   4.806   3.202
    1   AR   Ar  231   4.998   2.494   3.023
    1   AR   Ar  232   5.259   3.093   1.923
    1   AR   Ar  233   6.874   2.433   3.513
    1   AR   Ar  234   6.028   2.964   4.648
    1   AR   Ar  235   6.423   0.908   4.188
    1   AR   Ar  236   4.174   4.345   4.998
    1   AR   Ar  237   4.643   1.546   7.571
    1   AR   Ar  238   4.723   4.950   5.795
    1   AR   Ar  239   1.212   4.083  10.926
    1   AR   Ar  240   1.912   3.050   6.656
    1   AR   Ar  241   1.544   6.620   0.071
    1   AR   Ar  242   5.939   6.335   1.922
    1   AR   Ar  243   4.286   6.278   2.012
    1   AR   Ar  244   6.462   6.050   0.179
    1   AR   Ar  245   3.112   1.697   3.482
    1   AR   Ar  246   4.904   6.237  -1.457
    1   AR   Ar  247   7.104   3.691   1.438
    1   AR   Ar  248   5.480   5.320  -0.477
    1   AR   Ar  249   3.428   0.598   0.698
    1   AR   Ar  250   4.763   6.565   3.687
    1   AR   Ar  251   5.422   3.778   4.812
    1   AR   Ar  252   2.647   4.830   2.602
    1   AR   Ar  253   5.202   2.463   7.897
    1   AR   Ar  254   4.131   3.979  12.737
    1   AR   Ar  255   5.148   6.994   8.896
    1   AR   Ar  256   5.583   5.648   3.580
    7.12000  7.12000 12.00000
Argon-slab step 5540
  256
    1   AR   Ar    1   4.075   3.457  -2.360
    1   AR   Ar    2   5.752   0.136   1.082
    1   AR   Ar    3   4.361   3.466  -0.880
    1   AR   Ar    4   2.585   1.216   1.126
    1   AR   Ar    5   6.852   5.225  -0.741
    1   AR   Ar    6   0.925   1.035   2.347
    1   AR   Ar    7   6.310   4.640   3.338
    1   AR   Ar    8   6.331   3.370  -0.561
    1   AR   Ar    9   0.588   5.754   4.790
    1   AR   Ar   10   5.791   4.539   6.080
    1   AR   Ar   11   0.884   6.762   5.359
    1   AR   Ar   12   0.025   1.709   4.648
    1   AR   Ar   13   0.262   0.159   4.701
    1   AR   Ar   14   4.134   0.902   6.251
    1   AR   Ar   15   2.776   5.861   9.632
    1   AR   Ar   16   0.225   0.140   6.048
    1   AR   Ar   17   5.930   3.441   0.846
    1   AR   Ar   18   6.724   4.323  -2.425
    1   AR   Ar   19   5.202   5.170   0.532
    1   AR   Ar   20   6.765   3.142  -2.154
    1   AR   Ar   21   2.437   1.325   2.375
    1   AR   Ar   22   5.004   0.327   2.049
    1   AR   Ar   23   0.938   6.124   0.892
    1   AR   Ar   24   5.830   2.695   3.652
    1   AR   Ar   25   1.051   2.790   5.671
    1   AR   Ar   26   5.912   6.119   4.772
    1   AR   Ar   27   1.126   7.101   1.330
    1   AR   Ar   28   2.546   2.469   3.593
    1   AR   Ar   29   5.489   0.598   8.027
    1   AR   Ar   30   6.845   0.971   3.198
    1   AR   Ar   31   1.144   0.792   6.934
    1   AR   Ar   32   0.874   1.889   6.257
    1   AR   Ar   33   6.317   5.216   0.691
    1   AR   Ar   34   1.772   4.888   3.223
    1   AR   Ar   35   5.530   5.405   2.535
    1   AR   Ar   36   3.724   1.892  -3.752
    1   AR   Ar   37   4.400   3.673   1.290
    1   AR   Ar   38   6.120   4.586   4.391
    1   AR   Ar   39   0.352   2.750   4.561
    1   AR   Ar   40   0.896   4.158   2.191
    1   AR   Ar   41   0.621   1.692   3.294
    1   AR   Ar   42   5.573   5.502   5.551
    1   AR   Ar   43   7.088   2.936   6.429
    1   AR   Ar   44   1.440   3.755   3.119
    1   AR   Ar   45   1.914   3.526   5.700
    1   AR   Ar   46   6.331   5.259   6.850
    1   AR   Ar   47   2.732   3.829   6.536
    1   AR   Ar   48   0.038   3.316   7.583
    1   AR   Ar   49   0.711   1.434   0.455
    1   AR   Ar   50   2.707   4.177   0.200
    1   AR   Ar   51   5.279   3.554   2.950
    1   AR   Ar   52   5.518   3.472  -1.683
    1   AR   Ar   53   4.678   0.188   3.017
    1   AR   Ar   54   6.627   6.788   2.751
    1   AR   Ar   55   6.882   4.813   2.362
    1   AR   Ar   56   5.629   1.758   3.151
    1   AR   Ar   57   4.364   5.249   2.341
    1   AR   Ar   58   1.452   3.454   4.493
    1   AR   Ar   59   2.994   5.757   5.402
    1   AR   Ar   60   0.756   5.068   2.909
    1   AR   Ar   61   6.986   4.455   6.625
    1   AR   Ar   62   6.745   4.520   5.437
    1   AR   Ar   63   1.903   1.966   6.933
    1   AR   Ar   64   0.671   5.020   4.121
    1   AR   Ar   65   3.910   1.185   2.831
    1   AR   Ar   66   1.481   1.327   1.450
    1   AR   Ar   67   4.666   0.801  -0.421
    1   AR   Ar   68   6.700   0.705   0.162
    1   AR   Ar   69   2.873   2.574   0.705
    1   AR   Ar   70   0.250   1.415   1.400
    1   AR   Ar   71   2.996   0.531   3.002
    1   AR   Ar   72   4.486   1.270   1.541
    1   AR   Ar   73   3.100   0.269   4.189
    1   AR   Ar   74   1.133   0.619   3.268
    1   AR   Ar   75   2.394   0.706   5.264
    1   AR   Ar   76   2.509   0.208   1.774
    1   AR   Ar   77   1.086   5.604   5.926
    1   AR   Ar   78   7.035   5.368   6.008
    1   AR   Ar   79   3.517   6.872   5.074
    1   AR   Ar   80   3.636   4.730   5.907
    1   AR   Ar   81   1.750   6.228   1.938
    1   AR   Ar   82   0.115   5.297   1.417
    1   AR   Ar   83   0.931   3.140   1.779
    1   AR   Ar   84   0.931   4.621   0.807
    1   AR   Ar   85   0.316   3.109  -0.445
    1   AR   Ar   86   1.973   5.447   1.086
    1   AR   Ar   87   3.794   3.175   2.461
    1   AR   Ar   88   3.470   5.189   0.878
    1   AR   Ar   89   5.596   2.467   1.006
    1   AR   Ar   90   3.010   1.168   6.078
    1   AR   Ar   91   1.716   1.433   3.250
    1   AR   Ar   92   3.725   2.705   1.555
    1   AR   Ar   93   1.006   0.799   5.655
    1   AR   Ar   94   6.534   6.582   9.181
    1   AR   Ar   95   5.407   1.073   6.924
    1   AR   Ar   96   2.286   6.454   5.283
    1   AR   Ar   97   4.538   1.249  -1.463
    1   AR   Ar   98   1.765   4.402   4.213
    1   AR   Ar   99   6.429   6.545  -1.039
    1   AR   Ar  100   5.676   2.953  -2.881
    1   AR   Ar  101   4.010   5.916   3.060
    1   AR   Ar  102   4.151   2.270   2.322
    1   AR   Ar  103   1.900   4.507   1.847
    1   AR   Ar  104   3.389   0.392  -0.638
    1   AR   Ar  105   2.936   2.279   2.347
    1   AR   Ar  106   4.725   1.043   3.622
    1   AR   Ar  107   0.910   4.521   5.352
    1   AR   Ar  108   2.084   0.333   3.600
    1   AR   Ar  109   2.339   4.876   4.983
    1   AR   Ar  110   1.964   2.576   5.062
    1   AR   Ar  111   3.528   4.369   7.296
    1   AR   Ar  112   6.128   6.302   6.169
    1   AR   Ar  113   7.049   5.904  -1.551
    1   AR   Ar  114   2.611   0.115  -0.089
    1   AR   Ar  115   0.589   4.517  -0.364
    1   AR   Ar  116   5.456   1.427   0.079
    1   AR   Ar  117   0.218   4.180   3.284
    1   AR   Ar  118   1.599   6.433   3.901
    1   AR   Ar  119   1.954   3.257   2.348
    1   AR   Ar  120   2.112   7.050   2.641
    1   AR   Ar  121   4.631   3.812   7.155
    1   AR   Ar  122   2.982   5.418   3.447
    1   AR   Ar  123   3.461   2.315   5.081
    1   AR   Ar  124   1.131   5.426   1.829
    1   AR   Ar  125   5.960   3.740   3.767
    1   AR   Ar  126   0.316   0.536   7.619
    1   AR   Ar  127   4.825   3.595   5.699
    1   AR   Ar  128   1.096   3.796   6.183
    1   AR   Ar  129   1.502   5.503   4.532
    1   AR   Ar  130   5.012   0.759  -5.017
    1   AR   Ar  131   3.588   6.214  -0.428
    1   AR   Ar  132   1.910   2.441   1.564
    1   AR   Ar  133   4.219   0.482   4.574
    1   AR   Ar  134   3.004   1.571   4.681
    1   AR   Ar  135   6.298   0.104   5.085
    1   AR   Ar  136   5.576   6.506   3.028
    1   AR   Ar  137   2.202   4.549   6.071
    1   AR   Ar  138   5.911   1.519   5.955
    1   AR   Ar  139   6.113   1.960   4.989
    1   AR   Ar  140   4.838   6.431   5.011
    1   AR   Ar  141   3.265   5.104   4.472
    1   AR   Ar  142   4.027   5.732   8.662
    1   AR   Ar  143   5.860   6.490   7.465
    1   AR   Ar  144   0.006   2.364   5.505
    1   AR   Ar  145   4.964   4.789  -1.513
    1   AR   Ar  146   4.154   2.093   3.981
    1   AR   Ar  147   4.652   4.495  -0.191
    1   AR   Ar  148   2.165   5.926  -0.632
    1   AR   Ar  149   6.869   1.809  -0.168
    1   AR   Ar  150   1.197   2.137   2.500
    1   AR   Ar  151   2.900   3.508   2.053
    1   AR   Ar  152   0.820   1.383  -1.000
    1   AR   Ar  153   5.638   0.727   3.142
    1   AR   Ar  154   5.030   3.346   4.037
    1   AR   Ar  155   6.454   3.351   5.677
    1   AR   Ar  156   2.666   3.821   3.080
    1   AR   Ar  157   2.850   5.795   6.593
    1   AR   Ar  158   0.885   2.707   6.987
    1   AR   Ar  159   4.709   0.394   5.533
    1   AR   Ar  160   1.048   1.158   4.250
    1   AR   Ar  161   5.224   4.630   3.499
    1   AR   Ar  162   3.929   5.580  -1.186
    1   AR   Ar  163   6.244   3.683   2.260
    1   AR   Ar  164   2.034   5.915   2.932
    1   AR   Ar  165   3.282   4.265   1.127
    1   AR   Ar  166   2.837   3.428   5.124
    1   AR   Ar  167   6.091   7.072   3.885
    1   AR   Ar  168   5.698   4.090  -2.479
    1   AR   Ar  169   4.271   3.742   3.450
    1   AR   Ar  170   2.610   2.251   5.904
    1   AR   Ar  171   4.578   5.479   4.174
    1   AR   Ar  172   4.111   3.051   4.731
    1   AR   Ar  173   1.084   1.523   7.867
    1   AR   Ar  174   2.953   6.176   4.379
    1   AR   Ar  175   1.346   6.910   7.458
    1   AR   Ar  176   3.364   3.072   3.793
    1   AR   Ar  177   6.725   4.369  -1.341
    1   AR   Ar  178   2.072   6.520   0.959
    1   AR   Ar  179   3.219   6.331   0.776
    1   AR   Ar  180   5.237   6.618  -7.295
    1   AR   Ar  181   0.038   6.153   2.165
    1   AR   Ar  182   1.117   6.752   2.852
    1   AR   Ar  183   5.046   5.755   1.492
    1   AR   Ar  184   4.164   5.629   0.369
    1   AR   Ar  185   3.510   4.156   4.054
    1   AR   Ar  186   2.961   6.618   3.305
    1   AR   Ar  187   3.792   6.732   3.834
    1   AR   Ar  188   3.439   1.148   1.724
    1   AR   Ar  189   6.040   2.475   6.611
    1   AR   Ar  190   1.328   0.152   4.421
    1   AR   Ar  191   3.951   5.897   4.924
    1   AR   Ar  192   3.702   3.359   5.887
    1   AR   Ar  193   3.113   6.176   1.866
    1   AR   Ar  194   4.674   6.023  -0.506
    1   AR   Ar  195   6.288   1.031   1.204
    1   AR   Ar  196   4.234   6.560   0.756
    1   AR   Ar  197   4.807   2.762   0.228
    1   AR   Ar  198   6.796   6.691   1.261
    1   AR   Ar  199   7.083   0.370   2.125
    1   AR   Ar  200   5.863   2.653  -0.097
    1   AR   Ar  201   6.467   5.729   2.812
    1   AR   Ar  202   5.418   0.328   4.470
    1   AR   Ar  203   0.337   7.005   3.560
    1   AR   Ar  204   4.513   5.264   7.850
    1   AR   Ar  205   5.464   1.949   1.981
    1   AR   Ar  206   5.696   0.273   6.280
    1   AR   Ar  207   0.140   4.027   4.512
    1   AR   Ar  208   0.756   5.995   3.674
    1   AR   Ar  209   5.595   1.713  -2.040
    1   AR   Ar  210   1.687   1.269   0.290
    1   AR   Ar  211   6.905   2.928   0.622
    1   AR   Ar  212   6.690   4.132   0.121
    1   AR   Ar  213   3.965   1.885   0.784
    1   AR   Ar  214   5.344   4.573   2.093
    1   AR   Ar  215   0.373   3.030   2.792
    1   AR   Ar  216   2.003   2.433  -0.363
    1   AR   Ar  217   5.170   2.189   4.204
    1   AR   Ar  218   4.790   2.364   5.198
    1   AR   Ar  219   4.462   4.056   2.364
    1   AR   Ar  220   4.550   4.657   1.277
    1   AR   Ar  221   6.816   5.949   3.787
    1   AR   Ar  222   5.009   6.481   6.108
    1   AR   Ar  223   7.052   1.371   5.810
    1   AR   Ar  224   5.056   1.281   4.859
    1   AR   Ar  225   6.104   2.773   2.686
    1   AR   Ar  226   2.374   3.485   4.036
    1   AR   Ar  227   1.371   2.374   3.879
    1   AR   Ar  228   6.202   0.957   2.284
    1   AR   Ar  229   5.784   4.261  -0.812
    1   AR   Ar  230   4.012   4.815   3.188
    1   AR   Ar  231   4.979   2.483   3.026
    1   AR   Ar  232   5.274   3.095   1.907
    1   AR   Ar  233   6.878   2.436   3.490
    1   AR   Ar  234   6.034   2.982   4.641
    1   AR   Ar  235   6.418   0.885   4.221
    1   AR   Ar  236   4.208   4.331   4.991
    1   AR   Ar  237   4.669   1.560   7.587
    1   AR   Ar  238   4.718   4.941   5.803
    1   AR   Ar  239   1.211   4.100  10.910
    1   AR   Ar  240   1.903   3.041   6.678
    1   AR   Ar  241   1.542   6.621   0.081
    1   AR   Ar  242   5.928   6.328   1.924
    1   AR   Ar  243   4.274   6.225   2.009
    1   AR   Ar  244   6.491   6.083   0.204
    1   AR   Ar  245   3.085   1.710   3.468
    1   AR   Ar  246   4.920   6.208  -1.435
    1   AR   Ar  247   7.100   3.674   1.432
    1   AR   Ar  248   5.493   5.330  -0.495
    1   AR   Ar  249   3.432   0.612   0.680
    1   AR   Ar  250   4.809   6.557   3.677
    1   AR   Ar  251   5.445   3.767   4.807
    1   AR   Ar  252   2.646   4.828   2.592
    1   AR   Ar  253   5.217   2.463   7.859
    1   AR   Ar  254   4.101   4.014  12.742
    1   AR   Ar  255   5.148   6.943   8.912
    1   AR   Ar  256   5.588   5.613   3.617
    7.12000  7.12000 12.00000
Argon-slab step 5545
  256
    1   AR   Ar    1   4.047   3.425  -2.347
    1   AR   Ar    2   5.757   0.137   1.094
    1   AR   Ar    3   4.353   3.425  -0.901
    1   AR   Ar    4   2.591   1.216   1.147
    1   AR   Ar    5   6.847   5.219  -0.736
    1   AR   Ar    6   0.958   1.023   2.374
    1   AR   Ar    7   6.319   4.616   3.322
    1   AR   Ar    8   6.349   3.365  -0.536
    1   AR   Ar    9   0.567   5.739   4.794
    1   AR   Ar   10   5.815   4.537   6.112
    1   AR   Ar   11   0.887   6.767   5.345
    1   AR   Ar   12   7.115   1.723   4.673
    1   AR   Ar   13   0.255   0.147   4.721
    1   AR   Ar   14   4.137   0.916   6.239
    1   AR   Ar   15   2.795   5.872   9.623
    1   AR   Ar   16   0.285   0.091   6.087
    1   AR   Ar   17   5.884   3.452   0.852
    1   AR   Ar   18   6.743   4.303  -2.439
    1   AR   Ar   19   5.181   5.209   0.517
    1   AR   Ar   20   6.776   3.109  -2.163
    1   AR   Ar   21   2.417   1.301   2.393
    1   AR   Ar   22   5.039   0.364   2.062
    1   AR   Ar   23   0.939   6.079   0.912
    1   AR   Ar   24   5.830   2.686   3.659
    1   AR   Ar   25   1.048   2.781   5.698
    1   AR   Ar   26   5.910   6.116   4.788
    1   AR   Ar   27   1.123   0.023   1.320
    1   AR   Ar   28   2.548   2.462   3.627
    1   AR   Ar   29   5.488   0.592   8.004
    1   AR   Ar   30   6.804   0.979   3.202
    1   AR   Ar   31   1.128   0.781   6.918
    1   AR   Ar   32   0.857   1.910   6.273
    1   AR   Ar   33   6.307   5.240   0.681
    1   AR   Ar   34   1.787   4.877   3.224
    1   AR   Ar   35   5.541   5.422   2.543
    1   AR   Ar   36   3.709   1.867  -3.756
    1   AR   Ar   37   4.424   3.658   1.301
    1   AR   Ar   38   6.120   4.586   4.377
    1   AR   Ar   39   0.364   2.789   4.550
    1   AR   Ar   40   0.857   4.145   2.225
    1   AR   Ar   41   0.641   1.689   3.290
    1   AR   Ar   42   5.578   5.522   5.510
    1   AR   Ar   43   7.085   2.967   6.460
    1   AR   Ar   44   1.410   3.769   3.098
    1   AR   Ar   45   1.918   3.539   5.713
    1   AR   Ar   46   6.347   5.273   6.871
    1   AR   Ar   47   2.722   3.845   6.494
    1   AR   Ar   48   0.049   3.344   7.617
    1   AR   Ar   49   0.690   1.427   0.448
    1   AR   Ar   50   2.698   4.184   0.192
    1   AR   Ar   51   5.300   3.579   2.930
    1   AR   Ar   52   5.475   3.467  -1.715
    1   AR   Ar   53   4.652   0.180   3.003
    1   AR   Ar   54   6.617   6.796   2.748
    1   AR   Ar   55   6.871   4.828   2.322
    1   AR   Ar   56   5.611   1.776   3.193
    1   AR   Ar   57   4.428   5.260   2.368
    1   AR   Ar   58   1.434   3.462   4.502
    1   AR   Ar   59   2.993   5.748   5.406
    1   AR   Ar   60   0.759   5.097   2.903
    1   AR   Ar   61   6.980   4.471   6.620
    1   AR   Ar   62   6.746   4.519   5.492
    1   AR   Ar   63   1.876   1.940   6.938
    1   AR   Ar   64   0.672   5.026   4.121
    1   AR   Ar   65   3.924   1.219   2.849
    1   AR   Ar   66   1.480   1.330   1.453
    1   AR   Ar   67   4.669   0.840  -0.458
    1   AR   Ar   68   6.683   0.724   0.142
    1   AR   Ar   69   2.878   2.582   0.694
    1   AR   Ar   70   0.254   1.425   1.403
    1   AR   Ar   71   2.985   0.526   2.974
    1   AR   Ar   72   4.488   1.255   1.533
    1   AR   Ar   73   3.142   0.261   4.178
    1   AR   Ar   74   1.110   0.594   3.258
    1   AR   Ar   75   2.375   0.705   5.270
    1   AR   Ar   76   2.535   0.188   1.764
    1   AR   Ar   77   1.109   5.591   5.937
    1   AR   Ar   78   7.007   5.384   6.034
    1   AR   Ar   79   3.518   6.877   5.080
    1   AR   Ar   80   3.647   4.729   5.927
    1   AR   Ar   81   1.765   6.244   1.926
    1   AR   Ar   82   0.115   5.267   1.414
    1   AR   Ar   83   0.883   3.130   1.799
    1   AR   Ar   84   0.950   4.591   0.805
    1   AR   Ar   85   0.268   3.131  -0.446
    1   AR   Ar   86   1.938   5.479   1.083
    1   AR   Ar   87   3.782   3.176   2.467
    1   AR   Ar   88   3.456   5.178   0.919
    1   AR   Ar   89   5.580   2.490   0.997
    1   AR   Ar   90   3.034   1.167   6.071
    1   AR   Ar   91   1.690   1.411   3.275
    1   AR   Ar   92   3.776   2.738   1.518
    1   AR   Ar   93   1.036   0.798   5.656
    1   AR   Ar   94   6.529   6.580   9.204
    1   AR   Ar   95   5.415   1.066   6.911
    1   AR   Ar   96   2.278   6.444   5.306
    1   AR   Ar   97   4.531   1.247  -1.455
    1   AR   Ar   98   1.769   4.373   4.213
    1   AR   Ar   99   6.406   6.531  -1.037
    1   AR   Ar  100   5.696   2.945  -2.895
    1   AR   Ar  101   4.031   5.924   3.063
    1   AR   Ar  102   4.173   2.248   2.327
    1   AR   Ar  103   1.901   4.509   1.837
    1   AR   Ar  104   3.357   0.383  -0.658
    1   AR   Ar  105   2.954   2.277   2.318
    1   AR   Ar  106   4.735   1.022   3.592
    1   AR   Ar  107   0.890   4.495   5.363
    1   AR   Ar  108   2.041   0.327   3.597
    1   AR   Ar  109   2.338   4.871   4.932
    1   AR   Ar  110   1.972   2.610   5.016
    1   AR   Ar  111   3.512   4.384   7.307
    1   AR   Ar  112   6.103   6.287   6.206
    1   AR   Ar  113   7.022   5.868  -1.531
    1   AR   Ar  114   2.596   0.109  -0.089
    1   AR   Ar  115   0.585   4.517  -0.356
    1   AR   Ar  116   5.452   1.405   0.098
    1   AR   Ar  117   0.217   4.183   3.278
    1   AR   Ar  118   1.632   6.441   3.894
    1   AR   Ar  119   1.946   3.257   2.353
    1   AR   Ar  120   2.113   7.068   2.647
    1   AR   Ar  121   4.673   3.810   7.161
    1   AR   Ar  122   2.987   5.451   3.443
    1   AR   Ar  123   3.515   2.314   5.081
    1   AR   Ar  124   1.158   5.428   1.818
    1   AR   Ar  125   5.954   3.757   3.777
    1   AR   Ar  126   0.355   0.532   7.601
    1   AR   Ar  127   4.797   3.622   5.663
    1   AR   Ar  128   1.074   3.790   6.176
    1   AR   Ar  129   1.529   5.512   4.515
    1   AR   Ar  130   5.012   0.752  -5.017
    1   AR   Ar  131   3.566   6.204  -0.433
    1   AR   Ar  132   1.912   2.470   1.575
    1   AR   Ar  133   4.220   0.483   4.610
    1   AR   Ar  134   2.996   1.569   4.672
    1   AR   Ar  135   6.301   0.126   5.082
    1   AR   Ar  136   5.562   6.535   3.022
    1   AR   Ar  137   2.202   4.555   6.061
    1   AR   Ar  138   5.915   1.538   5.976
    1   AR   Ar  139   6.102   1.949   5.006
    1   AR   Ar  140   4.865   6.407   5.021
    1   AR   Ar  141   3.264   5.134   4.479
    1   AR   Ar  142   4.035   5.695   8.690
    1   AR   Ar  143   5.884   6.448   7.469
    1   AR   Ar  144   0.005   2.358   5.496
    1   AR   Ar  145   4.977   4.801  -1.500
    1   AR   Ar  146   4.167   2.107   3.976
    1   AR   Ar  147   4.664   4.491  -0.195
    1   AR   Ar  148   2.171   5.913  -0.650
    1   AR   Ar  149   6.868   1.771  -0.182
    1   AR   Ar  150   1.199   2.165   2.471
    1   AR   Ar  151   2.934   3.517   2.045
    1   AR   Ar  152   0.825   1.390  -0.989
    1   AR   Ar  153   5.635   0.702   3.130
    1   AR   Ar  154   5.056   3.347   4.037
    1   AR   Ar  155   6.450   3.330   5.681
    1   AR   Ar  156   2.669   3.810   3.088
    1   AR   Ar  157   2.860   5.792   6.573
    1   AR   Ar  158   0.875   2.666   6.997
    1   AR   Ar  159   4.717   0.413   5.536
    1   AR   Ar  160   1.030   1.186   4.262
    1   AR   Ar  161   5.218   4.596   3.485
    1   AR   Ar  162   3.932   5.607  -1.165
    1   AR   Ar  163   6.249   3.697   2.236
    1   AR   Ar  164   2.031   5.918   2.921
    1   AR   Ar  165   3.272   4.269   1.134
    1   AR   Ar  166   2.842   3.436   5.091
    1   AR   Ar  167   6.083   7.079   3.875
    1   AR   Ar  168   5.676   4.095  -2.470
    1   AR   Ar  169   4.304   3.726   3.414
    1   AR   Ar  170   2.651   2.262   5.920
    1   AR   Ar  171   4.555   5.470   4.142
    1   AR   Ar  172   4.141   3.054   4.738
    1   AR   Ar  173   1.068   1.528   7.884
    1   AR   Ar  174   2.958   6.179   4.397
    1   AR   Ar  175   1.286   6.924   7.447
    1   AR   Ar  176   3.366   3.089   3.785
    1   AR   Ar  177   6.716   4.358  -1.335
    1   AR   Ar  178   2.082   6.530   0.956
    1   AR   Ar  179   3.209   6.328   0.772
    1   AR   Ar  180   5.231   6.581  -7.283
    1   AR   Ar  181   0.070   6.177   2.159
    1   AR   Ar  182   1.106   6.755   2.834
    1   AR   Ar  183   5.088   5.751   1.484
    1   AR   Ar  184   4.158   5.640   0.356
    1   AR   Ar  185   3.508   4.153   4.053
    1   AR   Ar  186   2.960   6.623   3.303
    1   AR   Ar  187   3.800   6.738   3.829
    1   AR   Ar  188   3.436   1.147   1.724
    1   AR   Ar  189   6.039   2.492   6.621
    1   AR   Ar  190   1.312   0.147   4.423
    1   AR   Ar  191   3.958   5.899   4.898
    1   AR   Ar  192   3.722   3.369   5.948
    1   AR   Ar  193   3.117   6.176   1.870
    1   AR   Ar  194   4.664   6.038  -0.500
    1   AR   Ar  195   6.279   1.029   1.164
    1   AR   Ar  196   4.239   6.563   0.756
    1   AR   Ar  197   4.802   2.752   0.246
    1   AR   Ar  198   6.785   6.696   1.257
    1   AR   Ar  199   7.081   0.369   2.118
    1   AR   Ar  200   5.872   2.634  -0.093
    1   AR   Ar  201   6.456   5.715   2.847
    1   AR   Ar  202   5.376   0.319   4.425
    1   AR   Ar  203   0.333   7.006   3.515
    1   AR   Ar  204   4.477   5.284   7.829
    1   AR   Ar  205   5.476   1.972   1.940
    1   AR   Ar  206   5.666   0.281   6.278
    1   AR   Ar  207   0.169   4.035   4.531
    1   AR   Ar  208   0.766   5.976   3.692
    1   AR   Ar  209   5.596   1.736  -2.032
    1   AR   Ar  210   1.687   1.294   0.341
    1   AR   Ar  211   6.936   2.882   0.621
    1   AR   Ar  212   6.672   4.144   0.107
    1   AR   Ar  213   3.973   1.896   0.807
    1   AR   Ar  214   5.373   4.542   2.090
    1   AR   Ar  215   0.383   3.063   2.834
    1   AR   Ar  216   2.002   2.440  -0.370
    1   AR   Ar  217   5.129   2.199   4.220
    1   AR   Ar  218   4.772   2.362   5.215
    1   AR   Ar  219   4.481   4.075   2.376
    1   AR   Ar  220   4.549   4.631   1.282
    1   AR   Ar  221   6.814   5.963   3.790
    1   AR   Ar  222   5.022   6.463   6.119
    1   AR   Ar  223   7.042   1.428   5.808
    1   AR   Ar  224   5.095   1.264   4.839
    1   AR   Ar  225   6.044   2.788   2.691
    1   AR   Ar  226   2.378   3.484   4.027
    1   AR   Ar  227   1.389   2.356   3.894
    1   AR   Ar  228   6.212   0.968   2.301
    1   AR   Ar  229   5.755   4.248  -0.808
    1   AR   Ar  230   4.018   4.829   3.169
    1   AR   Ar  231   4.949   2.483   3.026
    1   AR   Ar  232   5.289   3.096   1.892
    1   AR   Ar  233   6.885   2.423   3.467
    1   AR   Ar  234   6.046   2.994   4.634
    1   AR   Ar  235   6.414   0.866   4.256
    1   AR   Ar  236   4.241   4.316   4.983
    1   AR   Ar  237   4.695   1.573   7.603
    1   AR   Ar  238   4.712   4.929   5.810
    1   AR   Ar  239   1.210   4.118  10.894
    1   AR   Ar  240   1.893   3.032   6.698
    1   AR   Ar  241   1.540   6.623   0.088
    1   AR   Ar  242   5.918   6.321   1.934
    1   AR   Ar  243   4.259   6.179   2.005
    1   AR   Ar  244   6.522   6.123   0.224
    1   AR   Ar  245   3.073   1.700   3.450
    1   AR   Ar  246   4.939   6.180  -1.425
    1   AR   Ar  247   7.096   3.658   1.427
    1   AR   Ar  248   5.483   5.315  -0.535
    1   AR   Ar  249   3.435   0.625   0.663
    1   AR   Ar  250   4.854   6.541   3.678
    1   AR   Ar  251   5.468   3.771   4.816
    1   AR   Ar  252   2.645   4.826   2.581
    1   AR   Ar  253   5.233   2.463   7.821
    1   AR   Ar  254   4.070   4.049  12.747
    1   AR   Ar  255   5.148   6.892   8.926
    1   AR   Ar  256   5.619   5.590   3.630
    7.12000  7.12000 12.00000
Argon-slab step 5550
  256
    1   AR   Ar    1   4.019   3.392  -2.333
    1   AR   Ar    2   5.765   0.125   1.095
    1   AR   Ar    3   4.347   3.386  -0.922
    1   AR   Ar    4   2.592   1.217   1.165
    1   AR   Ar    5   6.838   5.212  -0.726
    1   AR   Ar    6   0.989   1.015   2.393
    1   AR   Ar    7   6.328   4.597   3.300
    1   AR   Ar    8   6.371   3.370  -0.518
    1   AR   Ar    9   0.539   5.734   4.808
    1   AR   Ar   10   5.838   4.535   6.144
    1   AR   Ar   11   0.887   6.765   5.353
    1   AR   Ar   12   7.086   1.734   4.693
    1   AR   Ar   13   0.242   0.140   4.737
    1   AR   Ar   14   4.139   0.932   6.230
    1   AR   Ar   15   2.815   5.883   9.615
    1   AR   Ar   16   0.344   0.045   6.127
    1   AR   Ar   17   5.841   3.468   0.857
    1   AR   Ar   18   6.764   4.281  -2.452
    1   AR   Ar   19   5.158   5.249   0.503
    1   AR   Ar   20   6.784   3.078  -2.171
    1   AR   Ar   21   2.396   1.276   2.410
    1   AR   Ar   22   5.057   0.385   2.064
    1   AR   Ar   23   0.940   6.034   0.933
    1   AR   Ar   24   5.833   2.681   3.670
    1   AR   Ar   25   1.045   2.774   5.724
    1   AR   Ar   26   5.912   6.121   4.795
    1   AR   Ar   27   1.122   0.064   1.310
    1   AR   Ar   28   2.531   2.473   3.665
    1   AR   Ar   29   5.485   0.586   7.980
    1   AR   Ar   30   6.764   0.986   3.207
    1   AR   Ar   31   1.113   0.771   6.900
    1   AR   Ar   32   0.839   1.926   6.287
    1   AR   Ar   33   6.296   5.258   0.674
    1   AR   Ar   34   1.801   4.865   3.226
    1   AR   Ar   35   5.546   5.445   2.553
    1   AR   Ar   36   3.695   1.841  -3.760
    1   AR   Ar   37   4.448   3.662   1.314
    1   AR   Ar   38   6.121   4.589   4.366
    1   AR   Ar   39   0.378   2.829   4.538
    1   AR   Ar   40   0.816   4.133   2.260
    1   AR   Ar   41   0.659   1.686   3.288
    1   AR   Ar   42   5.579   5.535   5.477
    1   AR   Ar   43   7.084   2.998   6.493
    1   AR   Ar   44   1.379   3.784   3.081
    1   AR   Ar   45   1.921   3.556   5.711
    1   AR   Ar   46   6.358   5.290   6.893
    1   AR   Ar   47   2.710   3.854   6.445
    1   AR   Ar   48   0.060   3.371   7.648
    1   AR   Ar   49   0.662   1.421   0.439
    1   AR   Ar   50   2.689   4.191   0.183
    1   AR   Ar   51   5.314   3.579   2.887
    1   AR   Ar   52   5.431   3.457  -1.738
    1   AR   Ar   53   4.631   0.164   2.963
    1   AR   Ar   54   6.601   6.807   2.752
    1   AR   Ar   55   6.860   4.840   2.284
    1   AR   Ar   56   5.600   1.783   3.236
    1   AR   Ar   57   4.501   5.262   2.387
    1   AR   Ar   58   1.411   3.463   4.516
    1   AR   Ar   59   3.011   5.739   5.417
    1   AR   Ar   60   0.760   5.126   2.895
    1   AR   Ar   61   6.974   4.484   6.613
    1   AR   Ar   62   6.745   4.501   5.508
    1   AR   Ar   63   1.857   1.941   6.945
    1   AR   Ar   64   0.673   5.018   4.113
    1   AR   Ar   65   3.938   1.253   2.866
    1   AR   Ar   66   1.480   1.334   1.455
    1   AR   Ar   67   4.672   0.878  -0.493
    1   AR   Ar   68   6.666   0.743   0.124
    1   AR   Ar   69   2.890   2.594   0.676
    1   AR   Ar   70   0.257   1.433   1.411
    1   AR   Ar   71   2.984   0.528   2.955
    1   AR   Ar   72   4.491   1.239   1.516
    1   AR   Ar   73   3.174   0.262   4.170
    1   AR   Ar   74   1.080   0.563   3.257
    1   AR   Ar   75   2.384   0.689   5.273
    1   AR   Ar   76   2.564   0.169   1.746
    1   AR   Ar   77   1.131   5.577   5.947
    1   AR   Ar   78   7.002   5.421   6.044
    1   AR   Ar   79   3.518   6.881   5.087
    1   AR   Ar   80   3.656   4.727   5.947
    1   AR   Ar   81   1.782   6.265   1.915
    1   AR   Ar   82   0.116   5.238   1.409
    1   AR   Ar   83   0.836   3.118   1.822
    1   AR   Ar   84   0.934   4.579   0.849
    1   AR   Ar   85   0.222   3.154  -0.445
    1   AR   Ar   86   1.904   5.509   1.080
    1   AR   Ar   87   3.774   3.182   2.483
    1   AR   Ar   88   3.441   5.186   0.961
    1   AR   Ar   89   5.563   2.508   0.989
    1   AR   Ar   90   3.058   1.167   6.062
    1   AR   Ar   91   1.671   1.395   3.301
    1   AR   Ar   92   3.824   2.772   1.473
    1   AR   Ar   93   1.066   0.798   5.656
    1   AR   Ar   94   6.558   6.592   9.213
    1   AR   Ar   95   5.422   1.063   6.900
    1   AR   Ar   96   2.263   6.440   5.327
    1   AR   Ar   97   4.524   1.247  -1.448
    1   AR   Ar   98   1.766   4.362   4.207
    1   AR   Ar   99   6.379   6.518  -1.031
    1   AR   Ar  100   5.716   2.938  -2.906
    1   AR   Ar  101   4.039   5.935   3.087
    1   AR   Ar  102   4.197   2.215   2.335
    1   AR   Ar  103   1.888   4.532   1.799
    1   AR   Ar  104   3.335   0.376  -0.683
    1   AR   Ar  105   2.967   2.293   2.305
    1   AR   Ar  106   4.744   1.006   3.569
    1   AR   Ar  107   0.870   4.470   5.372
    1   AR   Ar  108   2.004   0.322   3.600
    1   AR   Ar  109   2.339   4.867   4.886
    1   AR   Ar  110   1.966   2.601   5.007
    1   AR   Ar  111   3.498   4.399   7.316
    1   AR   Ar  112   6.086   6.291   6.257
    1   AR   Ar  113   6.999   5.830  -1.516
    1   AR   Ar  114   2.566   0.105  -0.080
    1   AR   Ar  115   0.579   4.516  -0.347
    1   AR   Ar  116   5.450   1.384   0.118
    1   AR   Ar  117   0.218   4.185   3.272
    1   AR   Ar  118   1.675   6.449   3.885
    1   AR   Ar  119   1.936   3.257   2.356
    1   AR   Ar  120   2.110   7.082   2.656
    1   AR   Ar  121   4.714   3.808   7.166
    1   AR   Ar  122   3.005   5.442   3.432
    1   AR   Ar  123   3.571   2.318   5.087
    1   AR   Ar  124   1.163   5.426   1.816
    1   AR   Ar  125   5.941   3.774   3.780
    1   AR   Ar  126   0.324   0.530   7.621
    1   AR   Ar  127   4.769   3.648   5.627
    1   AR   Ar  128   1.044   3.785   6.176
    1   AR   Ar  129   1.562   5.521   4.497
    1   AR   Ar  130   5.012   0.746  -5.017
    1   AR   Ar  131   3.541   6.199  -0.431
    1   AR   Ar  132   1.914   2.497   1.586
    1   AR   Ar  133   4.220   0.484   4.641
    1   AR   Ar  134   2.980   1.559   4.656
    1   AR   Ar  135   6.304   0.146   5.079
    1   AR   Ar  136   5.561   6.564   3.003
    1   AR   Ar  137   2.196   4.571   6.044
    1   AR   Ar  138   5.918   1.556   5.998
    1   AR   Ar  139   6.095   1.950   5.014
    1   AR   Ar  140   4.895   6.386   5.030
    1   AR   Ar  141   3.265   5.163   4.485
    1   AR   Ar  142   4.041   5.659   8.721
    1   AR   Ar  143   5.909   6.405   7.471
    1   AR   Ar  144   0.005   2.367   5.488
    1   AR   Ar  145   4.991   4.814  -1.486
    1   AR   Ar  146   4.170   2.120   3.970
    1   AR   Ar  147   4.677   4.489  -0.200
    1   AR   Ar  148   2.177   5.902  -0.666
    1   AR   Ar  149   6.866   1.733  -0.195
    1   AR   Ar  150   1.203   2.194   2.440
    1   AR   Ar  151   2.963   3.529   2.033
    1   AR   Ar  152   0.829   1.397  -0.977
    1   AR   Ar  153   5.632   0.672   3.120
    1   AR   Ar  154   5.072   3.339   4.029
    1   AR   Ar  155   6.443   3.305   5.680
    1   AR   Ar  156   2.673   3.799   3.093
    1   AR   Ar  157   2.871   5.787   6.552
    1   AR   Ar  158   0.865   2.627   7.009
    1   AR   Ar  159   4.731   0.429   5.538
    1   AR   Ar  160   1.010   1.214   4.272
    1   AR   Ar  161   5.209   4.560   3.470
    1   AR   Ar  162   3.938   5.629  -1.150
    1   AR   Ar  163   6.255   3.716   2.210
    1   AR   Ar  164   2.028   5.922   2.912
    1   AR   Ar  165   3.272   4.265   1.136
    1   AR   Ar  166   2.847   3.443   5.058
    1   AR   Ar  167   6.087   7.073   3.853
    1   AR   Ar  168   5.655   4.085  -2.457
    1   AR   Ar  169   4.335   3.710   3.376
    1   AR   Ar  170   2.701   2.244   5.943
    1   AR   Ar  171   4.534   5.461   4.106
    1   AR   Ar  172   4.180   3.066   4.741
    1   AR   Ar  173   1.052   1.533   7.898
    1   AR   Ar  174   2.962   6.184   4.412
    1   AR   Ar  175   1.225   6.939   7.436
    1   AR   Ar  176   3.373   3.108   3.777
    1   AR   Ar  177   6.706   4.344  -1.329
    1   AR   Ar  178   2.096   6.543   0.956
    1   AR   Ar  179   3.196   6.325   0.768
    1   AR   Ar  180   5.226   6.543  -7.271
    1   AR   Ar  181   0.096   6.192   2.157
    1   AR   Ar  182   1.095   6.752   2.814
    1   AR   Ar  183   5.130   5.744   1.476
    1   AR   Ar  184   4.152   5.650   0.326
    1   AR   Ar  185   3.494   4.131   4.083
    1   AR   Ar  186   2.949   6.625   3.297
    1   AR   Ar  187   3.823   6.738   3.825
    1   AR   Ar  188   3.436   1.147   1.729
    1   AR   Ar  189   6.039   2.509   6.630
    1   AR   Ar  190   1.294   0.145   4.427
    1   AR   Ar  191   3.961   5.900   4.872
    1   AR   Ar  192   3.741   3.381   6.006
    1   AR   Ar  193   3.119   6.175   1.875
    1   AR   Ar  194   4.652   6.052  -0.480
    1   AR   Ar  195   6.272   1.031   1.124
    1   AR   Ar  196   4.240   6.560   0.756
    1   AR   Ar  197   4.806   2.747   0.266
    1   AR   Ar  198   6.773   6.701   1.253
    1   AR   Ar  199   7.087   0.364   2.113
    1   AR   Ar  200   5.876   2.604  -0.081
    1   AR   Ar  201   6.448   5.702   2.881
    1   AR   Ar  202   5.321   0.314   4.388
    1   AR   Ar  203   0.326   7.006   3.473
    1   AR   Ar  204   4.470   5.287   7.827
    1   AR   Ar  205   5.487   1.993   1.902
    1   AR   Ar  206   5.637   0.286   6.272
    1   AR   Ar  207   0.198   4.044   4.549
    1   AR   Ar  208   0.772   5.955   3.705
    1   AR   Ar  209   5.595   1.759  -2.025
    1   AR   Ar  210   1.695   1.318   0.392
    1   AR   Ar  211   6.964   2.837   0.617
    1   AR   Ar  212   6.654   4.158   0.094
    1   AR   Ar  213   3.981   1.907   0.831
    1   AR   Ar  214   5.403   4.504   2.082
    1   AR   Ar  215   0.394   3.098   2.874
    1   AR   Ar  216   2.000   2.447  -0.375
    1   AR   Ar  217   5.095   2.208   4.238
    1   AR   Ar  218   4.755   2.359   5.234
    1   AR   Ar  219   4.497   4.093   2.388
    1   AR   Ar  220   4.549   4.621   1.288
    1   AR   Ar  221   6.811   5.978   3.798
    1   AR   Ar  222   5.035   6.446   6.129
    1   AR   Ar  223   7.030   1.461   5.811
    1   AR   Ar  224   5.134   1.250   4.819
    1   AR   Ar  225   5.984   2.798   2.689
    1   AR   Ar  226   2.384   3.482   4.021
    1   AR   Ar  227   1.406   2.338   3.910
    1   AR   Ar  228   6.220   0.982   2.314
    1   AR   Ar  229   5.757   4.214  -0.833
    1   AR   Ar  230   4.020   4.837   3.159
    1   AR   Ar  231   4.913   2.493   3.026
    1   AR   Ar  232   5.303   3.099   1.879
    1   AR   Ar  233   6.892   2.409   3.445
    1   AR   Ar  234   6.065   2.998   4.628
    1   AR   Ar  235   6.410   0.852   4.293
    1   AR   Ar  236   4.274   4.301   4.975
    1   AR   Ar  237   4.720   1.583   7.619
    1   AR   Ar  238   4.707   4.916   5.817
    1   AR   Ar  239   1.209   4.135  10.878
    1   AR   Ar  240   1.883   3.024   6.717
    1   AR   Ar  241   1.535   6.625   0.091
    1   AR   Ar  242   5.909   6.316   1.946
    1   AR   Ar  243   4.240   6.143   1.999
    1   AR   Ar  244   6.554   6.169   0.241
    1   AR   Ar  245   3.075   1.669   3.426
    1   AR   Ar  246   4.961   6.152  -1.428
    1   AR   Ar  247   7.091   3.643   1.423
    1   AR   Ar  248   5.475   5.298  -0.576
    1   AR   Ar  249   3.438   0.638   0.645
    1   AR   Ar  250   4.890   6.522   3.695
    1   AR   Ar  251   5.491   3.791   4.837
    1   AR   Ar  252   2.647   4.824   2.568
    1   AR   Ar  253   5.250   2.466   7.783
    1   AR   Ar  254   4.040   4.084  12.752
    1   AR   Ar  255   5.149   6.841   8.941
    1   AR   Ar  256   5.650   5.569   3.645
    7.12000  7.12000 12.00000
Argon-slab step 5555
  256
    1   AR   Ar    1   3.993   3.360  -2.319
    1   AR   Ar    2   5.775   0.103   1.087
    1   AR   Ar    3   4.341   3.347  -0.943
    1   AR   Ar    4   2.587   1.218   1.181
    1   AR   Ar    5   6.817   5.199  -0.711
    1   AR   Ar    6   1.017   1.014   2.400
    1   AR   Ar    7   6.338   4.585   3.273
    1   AR   Ar    8   6.385   3.379  -0.507
    1   AR   Ar    9   0.509   5.736   4.829
    1   AR   Ar   10   5.862   4.534   6.175
    1   AR   Ar   11   0.879   6.754   5.392
    1   AR   Ar   12   7.060   1.739   4.706
    1   AR   Ar   13   0.225   0.136   4.747
    1   AR   Ar   14   4.140   0.951   6.223
    1   AR   Ar   15   2.835   5.894   9.606
    1   AR   Ar   16   0.400   0.002   6.172
    1   AR   Ar   17   5.801   3.491   0.860
    1   AR   Ar   18   6.785   4.259  -2.465
    1   AR   Ar   19   5.137   5.288   0.489
    1   AR   Ar   20   6.794   3.050  -2.181
    1   AR   Ar   21   2.374   1.252   2.426
    1   AR   Ar   22   5.065   0.395   2.054
    1   AR   Ar   23   0.941   6.026   0.890
    1   AR   Ar   24   5.839   2.679   3.686
    1   AR   Ar   25   1.048   2.762   5.734
    1   AR   Ar   26   5.923   6.138   4.785
    1   AR   Ar   27   1.121   0.104   1.302
    1   AR   Ar   28   2.505   2.489   3.704
    1   AR   Ar   29   5.483   0.580   7.956
    1   AR   Ar   30   6.726   0.991   3.215
    1   AR   Ar   31   1.098   0.765   6.880
    1   AR   Ar   32   0.820   1.931   6.298
    1   AR   Ar   33   6.283   5.271   0.668
    1   AR   Ar   34   1.814   4.853   3.229
    1   AR   Ar   35   5.544   5.468   2.561
    1   AR   Ar   36   3.680   1.816  -3.765
    1   AR   Ar   37   4.472   3.658   1.328
    1   AR   Ar   38   6.124   4.599   4.360
    1   AR   Ar   39   0.392   2.870   4.526
    1   AR   Ar   40   0.774   4.124   2.292
    1   AR   Ar   41   0.682   1.684   3.289
    1   AR   Ar   42   5.574   5.538   5.459
    1   AR   Ar   43   7.084   3.028   6.525
    1   AR   Ar   44   1.348   3.801   3.069
    1   AR   Ar   45   1.929   3.571   5.705
    1   AR   Ar   46   6.359   5.301   6.909
    1   AR   Ar   47   2.701   3.848   6.417
    1   AR   Ar   48   0.071   3.397   7.678
    1   AR   Ar   49   0.630   1.415   0.427
    1   AR   Ar   50   2.681   4.198   0.176
    1   AR   Ar   51   5.325   3.574   2.838
    1   AR   Ar   52   5.384   3.438  -1.752
    1   AR   Ar   53   4.613   0.153   2.927
    1   AR   Ar   54   6.583   6.819   2.761
    1   AR   Ar   55   6.847   4.850   2.253
    1   AR   Ar   56   5.594   1.779   3.277
    1   AR   Ar   57   4.581   5.257   2.400
    1   AR   Ar   58   1.382   3.457   4.534
    1   AR   Ar   59   3.032   5.726   5.428
    1   AR   Ar   60   0.760   5.155   2.887
    1   AR   Ar   61   6.971   4.492   6.605
    1   AR   Ar   62   6.745   4.478   5.513
    1   AR   Ar   63   1.875   1.943   6.977
    1   AR   Ar   64   0.673   4.997   4.099
    1   AR   Ar   65   3.945   1.256   2.857
    1   AR   Ar   66   1.479   1.338   1.459
    1   AR   Ar   67   4.674   0.914  -0.524
    1   AR   Ar   68   6.649   0.759   0.108
    1   AR   Ar   69   2.903   2.606   0.660
    1   AR   Ar   70   0.260   1.440   1.422
    1   AR   Ar   71   3.017   0.545   2.972
    1   AR   Ar   72   4.496   1.223   1.501
    1   AR   Ar   73   3.195   0.272   4.166
    1   AR   Ar   74   1.061   0.553   3.240
    1   AR   Ar   75   2.346   0.689   5.292
    1   AR   Ar   76   2.595   0.152   1.725
    1   AR   Ar   77   1.151   5.563   5.954
    1   AR   Ar   78   7.001   5.455   6.050
    1   AR   Ar   79   3.518   6.885   5.094
    1   AR   Ar   80   3.662   4.725   5.966
    1   AR   Ar   81   1.736   6.244   1.944
    1   AR   Ar   82   0.119   5.212   1.400
    1   AR   Ar   83   0.845   3.114   1.825
    1   AR   Ar   84   0.945   4.588   0.864
    1   AR   Ar   85   0.186   3.174  -0.443
    1   AR   Ar   86   1.873   5.536   1.075
    1   AR   Ar   87   3.775   3.187   2.506
    1   AR   Ar   88   3.429   5.213   1.001
    1   AR   Ar   89   5.546   2.518   0.979
    1   AR   Ar   90   3.081   1.168   6.052
    1   AR   Ar   91   1.659   1.384   3.326
    1   AR   Ar   92   3.870   2.807   1.428
    1   AR   Ar   93   1.094   0.798   5.656
    1   AR   Ar   94   6.586   6.603   9.221
    1   AR   Ar   95   5.427   1.064   6.892
    1   AR   Ar   96   2.245   6.440   5.345
    1   AR   Ar   97   4.517   1.248  -1.447
    1   AR   Ar   98   1.761   4.356   4.195
    1   AR   Ar   99   6.349   6.507  -1.022
    1   AR   Ar  100   5.736   2.933  -2.915
    1   AR   Ar  101   4.043   5.949   3.117
    1   AR   Ar  102   4.220   2.177   2.339
    1   AR   Ar  103   1.870   4.531   1.778
    1   AR   Ar  104   3.320   0.371  -0.711
    1   AR   Ar  105   2.979   2.314   2.297
    1   AR   Ar  106   4.752   0.995   3.552
    1   AR   Ar  107   0.851   4.456   5.382
    1   AR   Ar  108   2.013   0.345   3.613
    1   AR   Ar  109   2.341   4.864   4.847
    1   AR   Ar  110   1.954   2.598   5.031
    1   AR   Ar  111   3.541   4.411   7.326
    1   AR   Ar  112   6.075   6.307   6.317
    1   AR   Ar  113   6.979   5.793  -1.509
    1   AR   Ar  114   2.519   0.110  -0.078
    1   AR   Ar  115   0.571   4.514  -0.337
    1   AR   Ar  116   5.450   1.365   0.140
    1   AR   Ar  117   0.221   4.188   3.265
    1   AR   Ar  118   1.723   6.456   3.873
    1   AR   Ar  119   1.927   3.255   2.359
    1   AR   Ar  120   2.106   7.092   2.661
    1   AR   Ar  121   4.755   3.806   7.170
    1   AR   Ar  122   3.022   5.434   3.420
    1   AR   Ar  123   3.625   2.321   5.097
    1   AR   Ar  124   1.138   5.457   1.807
    1   AR   Ar  125   5.933   3.785   3.781
    1   AR   Ar  126   0.294   0.527   7.641
    1   AR   Ar  127   4.741   3.672   5.594
    1   AR   Ar  128   1.008   3.780   6.181
    1   AR   Ar  129   1.598   5.530   4.478
    1   AR   Ar  130   5.013   0.739  -5.017
    1   AR   Ar  131   3.512   6.201  -0.420
    1   AR   Ar  132   1.917   2.522   1.597
    1   AR   Ar  133   4.215   0.481   4.656
    1   AR   Ar  134   2.962   1.546   4.638
    1   AR   Ar  135   6.322   0.157   5.069
    1   AR   Ar  136   5.571   6.593   2.972
    1   AR   Ar  137   2.180   4.600   6.019
    1   AR   Ar  138   5.921   1.572   6.021
    1   AR   Ar  139   6.092   1.971   5.008
    1   AR   Ar  140   4.925   6.367   5.037
    1   AR   Ar  141   3.270   5.190   4.490
    1   AR   Ar  142   4.047   5.624   8.754
    1   AR   Ar  143   5.933   6.362   7.472
    1   AR   Ar  144   0.005   2.395   5.480
    1   AR   Ar  145   5.005   4.827  -1.470
    1   AR   Ar  146   4.156   2.133   3.959
    1   AR   Ar  147   4.691   4.487  -0.206
    1   AR   Ar  148   2.184   5.892  -0.681
    1   AR   Ar  149   6.856   1.721  -0.199
    1   AR   Ar  150   1.207   2.222   2.409
    1   AR   Ar  151   2.984   3.544   2.015
    1   AR   Ar  152   0.832   1.405  -0.963
    1   AR   Ar  153   5.631   0.638   3.112
    1   AR   Ar  154   5.078   3.323   4.020
    1   AR   Ar  155   6.434   3.281   5.677
    1   AR   Ar  156   2.679   3.791   3.093
    1   AR   Ar  157   2.882   5.781   6.530
    1   AR   Ar  158   0.856   2.594   7.026
    1   AR   Ar  159   4.751   0.442   5.540
    1   AR   Ar  160   0.990   1.243   4.282
    1   AR   Ar  161   5.180   4.566   3.482
    1   AR   Ar  162   3.947   5.644  -1.142
    1   AR   Ar  163   6.260   3.738   2.185
    1   AR   Ar  164   2.026   5.927   2.905
    1   AR   Ar  165   3.269   4.239   1.144
    1   AR   Ar  166   2.853   3.449   5.024
    1   AR   Ar  167   6.099   7.060   3.824
    1   AR   Ar  168   5.637   4.083  -2.453
    1   AR   Ar  169   4.362   3.694   3.339
    1   AR   Ar  170   2.753   2.220   5.967
    1   AR   Ar  171   4.514   5.451   4.066
    1   AR   Ar  172   4.221   3.087   4.739
    1   AR   Ar  173   1.035   1.536   7.909
    1   AR   Ar  174   2.964   6.192   4.424
    1   AR   Ar  175   1.164   6.953   7.425
    1   AR   Ar  176   3.385   3.126   3.768
    1   AR   Ar  177   6.697   4.327  -1.323
    1   AR   Ar  178   2.113   6.560   0.957
    1   AR   Ar  179   3.181   6.320   0.762
    1   AR   Ar  180   5.221   6.506  -7.259
    1   AR   Ar  181   0.083   6.183   2.184
    1   AR   Ar  182   1.086   6.742   2.790
    1   AR   Ar  183   5.170   5.735   1.469
    1   AR   Ar  184   4.145   5.653   0.296
    1   AR   Ar  185   3.477   4.106   4.121
    1   AR   Ar  186   2.944   6.606   3.299
    1   AR   Ar  187   3.859   6.729   3.822
    1   AR   Ar  188   3.439   1.146   1.739
    1   AR   Ar  189   6.040   2.527   6.638
    1   AR   Ar  190   1.275   0.144   4.433
    1   AR   Ar  191   3.961   5.902   4.848
    1   AR   Ar  192   3.758   3.393   6.062
    1   AR   Ar  193   3.120   6.175   1.880
    1   AR   Ar  194   4.641   6.067  -0.452
    1   AR   Ar  195   6.268   1.038   1.085
    1   AR   Ar  196   4.243   6.564   0.760
    1   AR   Ar  197   4.823   2.749   0.287
    1   AR   Ar  198   6.761   6.707   1.250
    1   AR   Ar  199   7.097   0.360   2.106
    1   AR   Ar  200   5.876   2.568  -0.066
    1   AR   Ar  201   6.448   5.691   2.912
    1   AR   Ar  202   5.259   0.309   4.354
    1   AR   Ar  203   0.351   6.970   3.479
    1   AR   Ar  204   4.482   5.278   7.839
    1   AR   Ar  205   5.498   2.012   1.870
    1   AR   Ar  206   5.652   0.248   6.281
    1   AR   Ar  207   0.226   4.065   4.556
    1   AR   Ar  208   0.777   5.939   3.715
    1   AR   Ar  209   5.594   1.783  -2.017
    1   AR   Ar  210   1.708   1.341   0.442
    1   AR   Ar  211   6.991   2.793   0.613
    1   AR   Ar  212   6.638   4.176   0.083
    1   AR   Ar  213   3.988   1.918   0.854
    1   AR   Ar  214   5.435   4.465   2.072
    1   AR   Ar  215   0.401   3.125   2.906
    1   AR   Ar  216   1.999   2.453  -0.380
    1   AR   Ar  217   5.077   2.216   4.260
    1   AR   Ar  218   4.741   2.353   5.256
    1   AR   Ar  219   4.509   4.111   2.398
    1   AR   Ar  220   4.550   4.630   1.294
    1   AR   Ar  221   6.825   5.986   3.798
    1   AR   Ar  222   5.047   6.429   6.138
    1   AR   Ar  223   7.013   1.437   5.832
    1   AR   Ar  224   5.172   1.239   4.801
    1   AR   Ar  225   5.928   2.803   2.679
    1   AR   Ar  226   2.388   3.479   4.021
    1   AR   Ar  227   1.423   2.321   3.926
    1   AR   Ar  228   6.226   0.997   2.320
    1   AR   Ar  229   5.765   4.175  -0.865
    1   AR   Ar  230   4.019   4.840   3.157
    1   AR   Ar  231   4.908   2.508   3.034
    1   AR   Ar  232   5.316   3.104   1.865
    1   AR   Ar  233   6.895   2.398   3.433
    1   AR   Ar  234   6.090   2.996   4.624
    1   AR   Ar  235   6.408   0.842   4.329
    1   AR   Ar  236   4.304   4.288   4.962
    1   AR   Ar  237   4.743   1.589   7.634
    1   AR   Ar  238   4.704   4.903   5.824
    1   AR   Ar  239   1.209   4.153  10.861
    1   AR   Ar  240   1.873   3.016   6.733
    1   AR   Ar  241   1.529   6.627   0.091
    1   AR   Ar  242   5.904   6.312   1.959
    1   AR   Ar  243   4.219   6.115   1.989
    1   AR   Ar  244   6.586   6.218   0.257
    1   AR   Ar  245   3.083   1.629   3.400
    1   AR   Ar  246   4.987   6.124  -1.438
    1   AR   Ar  247   7.085   3.630   1.419
    1   AR   Ar  248   5.467   5.281  -0.617
    1   AR   Ar  249   3.441   0.651   0.629
    1   AR   Ar  250   4.916   6.499   3.727
    1   AR   Ar  251   5.512   3.822   4.865
    1   AR   Ar  252   2.650   4.822   2.555
    1   AR   Ar  253   5.269   2.472   7.744
    1   AR   Ar  254   4.010   4.119  12.757
    1   AR   Ar  255   5.151   6.790   8.954
    1   AR   Ar  256   5.682   5.549   3.661
    7.12000  7.12000 12.00000
Argon-slab step 5560
  256
    1   AR   Ar    1   3.967   3.328  -2.304
    1   AR   Ar    2   5.783   0.077   1.081
    1   AR   Ar    3   4.337   3.309  -0.964
    1   AR   Ar    4   2.576   1.219   1.194
    1   AR   Ar    5   6.793   5.182  -0.687
    1   AR   Ar    6   1.045   1.022   2.392
    1   AR   Ar    7   6.348   4.579   3.241
    1   AR   Ar    8   6.377   3.390  -0.502
    1   AR   Ar    9   0.479   5.741   4.853
    1   AR   Ar   10   5.885   4.534   6.206
    1   AR   Ar   11   0.880   6.737   5.423
    1   AR   Ar   12   7.038   1.740   4.712
    1   AR   Ar   13   0.207   0.135   4.755
    1   AR   Ar   14   4.140   0.971   6.218
    1   AR   Ar   15   2.855   5.905   9.597
    1   AR   Ar   16   0.450   7.084   6.226
    1   AR   Ar   17   5.763   3.521   0.863
    1   AR   Ar   18   6.804   4.236  -2.477
    1   AR   Ar   19   5.135   5.285   0.486
    1   AR   Ar   20   6.814   3.030  -2.200
    1   AR   Ar   21   2.352   1.227   2.441
    1   AR   Ar   22   5.078   0.407   2.040
    1   AR   Ar   23   0.941   6.028   0.832
    1   AR   Ar   24   5.847   2.679   3.702
    1   AR   Ar   25   1.059   2.740   5.722
    1   AR   Ar   26   5.943   6.167   4.762
    1   AR   Ar   27   1.121   0.144   1.294
    1   AR   Ar   28   2.479   2.503   3.742
    1   AR   Ar   29   5.479   0.575   7.930
    1   AR   Ar   30   6.692   0.996   3.229
    1   AR   Ar   31   1.082   0.760   6.858
    1   AR   Ar   32   0.799   1.924   6.302
    1   AR   Ar   33   6.280   5.282   0.667
    1   AR   Ar   34   1.825   4.842   3.232
    1   AR   Ar   35   5.542   5.490   2.567
    1   AR   Ar   36   3.665   1.790  -3.769
    1   AR   Ar   37   4.498   3.643   1.344
    1   AR   Ar   38   6.127   4.614   4.358
    1   AR   Ar   39   0.405   2.909   4.514
    1   AR   Ar   40   0.727   4.119   2.319
    1   AR   Ar   41   0.700   1.683   3.283
    1   AR   Ar   42   5.564   5.530   5.454
    1   AR   Ar   43   7.086   3.058   6.557
    1   AR   Ar   44   1.321   3.818   3.065
    1   AR   Ar   45   1.938   3.583   5.694
    1   AR   Ar   46   6.357   5.301   6.925
    1   AR   Ar   47   2.674   3.822   6.454
    1   AR   Ar   48   0.083   3.423   7.706
    1   AR   Ar   49   0.597   1.408   0.413
    1   AR   Ar   50   2.672   4.206   0.169
    1   AR   Ar   51   5.332   3.579   2.795
    1   AR   Ar   52   5.334   3.413  -1.756
    1   AR   Ar   53   4.630   0.154   2.930
    1   AR   Ar   54   6.563   6.832   2.773
    1   AR   Ar   55   6.832   4.856   2.229
    1   AR   Ar   56   5.590   1.766   3.317
    1   AR   Ar   57   4.656   5.244   2.409
    1   AR   Ar   58   1.352   3.446   4.554
    1   AR   Ar   59   3.054   5.710   5.441
    1   AR   Ar   60   0.760   5.183   2.879
    1   AR   Ar   61   6.969   4.496   6.595
    1   AR   Ar   62   6.745   4.453   5.516
    1   AR   Ar   63   1.891   1.944   7.008
    1   AR   Ar   64   0.674   4.966   4.084
    1   AR   Ar   65   3.950   1.249   2.840
    1   AR   Ar   66   1.478   1.343   1.468
    1   AR   Ar   67   4.678   0.947  -0.544
    1   AR   Ar   68   6.651   0.768   0.091
    1   AR   Ar   69   2.916   2.617   0.646
    1   AR   Ar   70   0.262   1.446   1.437
    1   AR   Ar   71   3.051   0.563   2.991
    1   AR   Ar   72   4.504   1.207   1.488
    1   AR   Ar   73   3.209   0.288   4.164
    1   AR   Ar   74   1.051   0.554   3.222
    1   AR   Ar   75   2.308   0.688   5.311
    1   AR   Ar   76   2.628   0.136   1.702
    1   AR   Ar   77   1.171   5.548   5.959
    1   AR   Ar   78   7.012   5.472   6.049
    1   AR   Ar   79   3.517   6.887   5.102
    1   AR   Ar   80   3.665   4.721   5.985
    1   AR   Ar   81   1.695   6.233   1.972
    1   AR   Ar   82   0.126   5.190   1.383
    1   AR   Ar   83   0.858   3.113   1.823
    1   AR   Ar   84   0.956   4.598   0.881
    1   AR   Ar   85   0.172   3.190  -0.437
    1   AR   Ar   86   1.847   5.559   1.069
    1   AR   Ar   87   3.785   3.190   2.534
    1   AR   Ar   88   3.418   5.252   1.040
    1   AR   Ar   89   5.530   2.522   0.969
    1   AR   Ar   90   3.104   1.168   6.041
    1   AR   Ar   91   1.656   1.376   3.351
    1   AR   Ar   92   3.912   2.840   1.385
    1   AR   Ar   93   1.122   0.796   5.656
    1   AR   Ar   94   6.613   6.615   9.230
    1   AR   Ar   95   5.431   1.069   6.887
    1   AR   Ar   96   2.236   6.426   5.366
    1   AR   Ar   97   4.509   1.253  -1.455
    1   AR   Ar   98   1.751   4.351   4.178
    1   AR   Ar   99   6.317   6.496  -1.011
    1   AR   Ar  100   5.757   2.928  -2.923
    1   AR   Ar  101   4.048   5.961   3.147
    1   AR   Ar  102   4.239   2.138   2.338
    1   AR   Ar  103   1.845   4.492   1.783
    1   AR   Ar  104   3.307   0.366  -0.741
    1   AR   Ar  105   2.986   2.332   2.296
    1   AR   Ar  106   4.757   0.991   3.549
    1   AR   Ar  107   0.834   4.480   5.400
    1   AR   Ar  108   2.037   0.377   3.632
    1   AR   Ar  109   2.347   4.863   4.815
    1   AR   Ar  110   1.942   2.598   5.054
    1   AR   Ar  111   3.600   4.421   7.335
    1   AR   Ar  112   6.068   6.321   6.378
    1   AR   Ar  113   6.961   5.759  -1.508
    1   AR   Ar  114   2.471   0.112  -0.073
    1   AR   Ar  115   0.561   4.513  -0.327
    1   AR   Ar  116   5.452   1.347   0.164
    1   AR   Ar  117   0.225   4.191   3.260
    1   AR   Ar  118   1.772   6.461   3.860
    1   AR   Ar  119   1.919   3.255   2.362
    1   AR   Ar  120   2.102   7.100   2.664
    1   AR   Ar  121   4.795   3.805   7.174
    1   AR   Ar  122   3.040   5.428   3.409
    1   AR   Ar  123   3.676   2.322   5.108
    1   AR   Ar  124   1.105   5.477   1.801
    1   AR   Ar  125   5.930   3.791   3.778
    1   AR   Ar  126   0.276   0.525   7.652
    1   AR   Ar  127   4.718   3.688   5.570
    1   AR   Ar  128   0.970   3.773   6.189
    1   AR   Ar  129   1.631   5.540   4.458
    1   AR   Ar  130   5.013   0.732  -5.016
    1   AR   Ar  131   3.478   6.208  -0.403
    1   AR   Ar  132   1.932   2.554   1.598
    1   AR   Ar  133   4.192   0.464   4.631
    1   AR   Ar  134   2.943   1.532   4.619
    1   AR   Ar  135   6.363   0.153   5.051
    1   AR   Ar  136   5.583   6.622   2.934
    1   AR   Ar  137   2.160   4.637   5.988
    1   AR   Ar  138   5.924   1.588   6.044
    1   AR   Ar  139   6.085   1.992   5.003
    1   AR   Ar  140   4.951   6.350   5.039
    1   AR   Ar  141   3.278   5.212   4.492
    1   AR   Ar  142   4.051   5.590   8.789
    1   AR   Ar  143   5.958   6.320   7.472
    1   AR   Ar  144   0.006   2.434   5.477
    1   AR   Ar  145   5.018   4.839  -1.455
    1   AR   Ar  146   4.127   2.145   3.942
    1   AR   Ar  147   4.707   4.486  -0.213
    1   AR   Ar  148   2.191   5.882  -0.694
    1   AR   Ar  149   6.847   1.715  -0.204
    1   AR   Ar  150   1.212   2.250   2.380
    1   AR   Ar  151   2.997   3.563   1.992
    1   AR   Ar  152   0.835   1.413  -0.947
    1   AR   Ar  153   5.630   0.601   3.105
    1   AR   Ar  154   5.075   3.302   4.014
    1   AR   Ar  155   6.425   3.258   5.672
    1   AR   Ar  156   2.686   3.784   3.087
    1   AR   Ar  157   2.892   5.775   6.507
    1   AR   Ar  158   0.849   2.569   7.052
    1   AR   Ar  159   4.777   0.451   5.544
    1   AR   Ar  160   0.969   1.272   4.290
    1   AR   Ar  161   5.144   4.581   3.500
    1   AR   Ar  162   3.960   5.654  -1.140
    1   AR   Ar  163   6.266   3.761   2.160
    1   AR   Ar  164   2.024   5.931   2.902
    1   AR   Ar  165   3.266   4.203   1.154
    1   AR   Ar  166   2.860   3.455   4.991
    1   AR   Ar  167   6.114   7.043   3.794
    1   AR   Ar  168   5.623   4.087  -2.457
    1   AR   Ar  169   4.385   3.678   3.304
    1   AR   Ar  170   2.803   2.197   5.989
    1   AR   Ar  171   4.496   5.439   4.022
    1   AR   Ar  172   4.262   3.116   4.732
    1   AR   Ar  173   1.018   1.540   7.919
    1   AR   Ar  174   2.965   6.204   4.434
    1   AR   Ar  175   1.102   6.967   7.414
    1   AR   Ar  176   3.400   3.141   3.757
    1   AR   Ar  177   6.690   4.308  -1.320
    1   AR   Ar  178   2.133   6.580   0.961
    1   AR   Ar  179   3.166   6.316   0.756
    1   AR   Ar  180   5.215   6.468  -7.247
    1   AR   Ar  181   0.071   6.171   2.210
    1   AR   Ar  182   1.080   6.726   2.761
    1   AR   Ar  183   5.208   5.724   1.463
    1   AR   Ar  184   4.130   5.645   0.272
    1   AR   Ar  185   3.460   4.084   4.161
    1   AR   Ar  186   2.943   6.574   3.307
    1   AR   Ar  187   3.903   6.716   3.820
    1   AR   Ar  188   3.445   1.145   1.754
    1   AR   Ar  189   6.042   2.544   6.645
    1   AR   Ar  190   1.256   0.145   4.438
    1   AR   Ar  191   3.962   5.907   4.826
    1   AR   Ar  192   3.775   3.406   6.118
    1   AR   Ar  193   3.118   6.175   1.885
    1   AR   Ar  194   4.644   6.082  -0.430
    1   AR   Ar  195   6.264   1.048   1.049
    1   AR   Ar  196   4.247   6.572   0.766
    1   AR   Ar  197   4.835   2.753   0.305
    1   AR   Ar  198   6.749   6.712   1.248
    1   AR   Ar  199   7.110   0.357   2.097
    1   AR   Ar  200   5.877   2.529  -0.048
    1   AR   Ar  201   6.456   5.680   2.938
    1   AR   Ar  202   5.196   0.300   4.319
    1   AR   Ar  203   0.377   6.934   3.493
    1   AR   Ar  204   4.495   5.268   7.849
    1   AR   Ar  205   5.507   2.027   1.844
    1   AR   Ar  206   5.669   0.207   6.287
    1   AR   Ar  207   0.243   4.078   4.566
    1   AR   Ar  208   0.784   5.927   3.722
    1   AR   Ar  209   5.592   1.807  -2.009
    1   AR   Ar  210   1.725   1.364   0.487
    1   AR   Ar  211   7.016   2.749   0.607
    1   AR   Ar  212   6.639   4.205   0.065
    1   AR   Ar  213   3.994   1.928   0.875
    1   AR   Ar  214   5.440   4.453   2.050
    1   AR   Ar  215   0.388   3.117   2.905
    1   AR   Ar  216   1.998   2.459  -0.383
    1   AR   Ar  217   5.072   2.226   4.285
    1   AR   Ar  218   4.729   2.345   5.283
    1   AR   Ar  219   4.516   4.131   2.405
    1   AR   Ar  220   4.552   4.655   1.301
    1   AR   Ar  221   6.844   5.994   3.801
    1   AR   Ar  222   5.055   6.413   6.145
    1   AR   Ar  223   6.997   1.407   5.854
    1   AR   Ar  224   5.210   1.232   4.785
    1   AR   Ar  225   5.881   2.798   2.664
    1   AR   Ar  226   2.389   3.477   4.028
    1   AR   Ar  227   1.439   2.304   3.943
    1   AR   Ar  228   6.230   1.013   2.318
    1   AR   Ar  229   5.767   4.138  -0.896
    1   AR   Ar  230   4.015   4.839   3.160
    1   AR   Ar  231   4.925   2.528   3.049
    1   AR   Ar  232   5.326   3.112   1.849
    1   AR   Ar  233   6.895   2.392   3.434
    1   AR   Ar  234   6.120   2.994   4.623
    1   AR   Ar  235   6.406   0.840   4.360
    1   AR   Ar  236   4.327   4.282   4.941
    1   AR   Ar  237   4.765   1.578   7.643
    1   AR   Ar  238   4.704   4.889   5.829
    1   AR   Ar  239   1.208   4.170  10.845
    1   AR   Ar  240   1.861   3.010   6.747
    1   AR   Ar  241   1.521   6.629   0.089
    1   AR   Ar  242   5.903   6.311   1.973
    1   AR   Ar  243   4.197   6.093   1.976
    1   AR   Ar  244   6.619   6.268   0.270
    1   AR   Ar  245   3.090   1.587   3.373
    1   AR   Ar  246   5.014   6.094  -1.451
    1   AR   Ar  247   7.078   3.617   1.415
    1   AR   Ar  248   5.460   5.264  -0.655
    1   AR   Ar  249   3.443   0.663   0.613
    1   AR   Ar  250   4.937   6.476   3.766
    1   AR   Ar  251   5.532   3.858   4.894
    1   AR   Ar  252   2.655   4.820   2.541
    1   AR   Ar  253   5.292   2.482   7.705
    1   AR   Ar  254   3.980   4.154  12.762
    1   AR   Ar  255   5.154   6.740   8.966
    1   AR   Ar  256   5.713   5.530   3.679
    7.12000  7.12000 12.00000
Argon-slab step 5565
  256
    1   AR   Ar    1   3.943   3.296  -2.288
    1   AR   Ar    2   5.790   0.050   1.077
    1   AR   Ar    3   4.349   3.300  -0.983
    1   AR   Ar    4   2.561   1.219   1.206
    1   AR   Ar    5   6.768   5.162  -0.655
    1   AR   Ar    6   1.072   1.039   2.367
    1   AR   Ar    7   6.355   4.577   3.206
    1   AR   Ar    8   6.361   3.392  -0.491
    1   AR   Ar    9   0.462   5.742   4.861
    1   AR   Ar   10   5.907   4.535   6.236
    1   AR   Ar   11   0.889   6.714   5.442
    1   AR   Ar   12   7.021   1.736   4.712
    1   AR   Ar   13   0.195   0.134   4.757
    1   AR   Ar   14   4.141   0.991   6.215
    1   AR   Ar   15   2.876   5.916   9.588
    1   AR   Ar   16   0.495   7.053   6.292
    1   AR   Ar   17   5.726   3.556   0.866
    1   AR   Ar   18   6.822   4.211  -2.487
    1   AR   Ar   19   5.157   5.279   0.468
    1   AR   Ar   20   6.832   3.011  -2.218
    1   AR   Ar   21   2.329   1.203   2.455
    1   AR   Ar   22   5.096   0.420   2.021
    1   AR   Ar   23   0.937   6.032   0.775
    1   AR   Ar   24   5.858   2.680   3.715
    1   AR   Ar   25   1.038   2.744   5.731
    1   AR   Ar   26   5.970   6.201   4.730
    1   AR   Ar   27   1.122   0.183   1.287
    1   AR   Ar   28   2.454   2.510   3.778
    1   AR   Ar   29   5.476   0.569   7.904
    1   AR   Ar   30   6.660   0.999   3.249
    1   AR   Ar   31   1.066   0.759   6.833
    1   AR   Ar   32   0.808   1.936   6.286
    1   AR   Ar   33   6.283   5.292   0.667
    1   AR   Ar   34   1.834   4.832   3.234
    1   AR   Ar   35   5.561   5.518   2.577
    1   AR   Ar   36   3.651   1.765  -3.773
    1   AR   Ar   37   4.530   3.628   1.360
    1   AR   Ar   38   6.132   4.635   4.359
    1   AR   Ar   39   0.406   2.927   4.500
    1   AR   Ar   40   0.675   4.117   2.336
    1   AR   Ar   41   0.708   1.684   3.270
    1   AR   Ar   42   5.552   5.517   5.455
    1   AR   Ar   43   7.088   3.088   6.588
    1   AR   Ar   44   1.298   3.833   3.070
    1   AR   Ar   45   1.946   3.593   5.681
    1   AR   Ar   46   6.355   5.304   6.943
    1   AR   Ar   47   2.650   3.793   6.491
    1   AR   Ar   48   0.096   3.448   7.732
    1   AR   Ar   49   0.565   1.402   0.398
    1   AR   Ar   50   2.664   4.214   0.163
    1   AR   Ar   51   5.333   3.598   2.759
    1   AR   Ar   52   5.283   3.383  -1.754
    1   AR   Ar   53   4.651   0.150   2.947
    1   AR   Ar   54   6.548   6.847   2.787
    1   AR   Ar   55   6.814   4.858   2.216
    1   AR   Ar   56   5.587   1.744   3.355
    1   AR   Ar   57   4.706   5.221   2.413
    1   AR   Ar   58   1.356   3.433   4.569
    1   AR   Ar   59   3.077   5.692   5.452
    1   AR   Ar   60   0.759   5.211   2.870
    1   AR   Ar   61   6.969   4.498   6.585
    1   AR   Ar   62   6.746   4.429   5.517
    1   AR   Ar   63   1.905   1.944   7.039
    1   AR   Ar   64   0.676   4.931   4.068
    1   AR   Ar   65   3.956   1.239   2.822
    1   AR   Ar   66   1.475   1.349   1.482
    1   AR   Ar   67   4.683   0.974  -0.551
    1   AR   Ar   68   6.667   0.767   0.074
    1   AR   Ar   69   2.868   2.640   0.653
    1   AR   Ar   70   0.264   1.451   1.455
    1   AR   Ar   71   3.084   0.578   3.009
    1   AR   Ar   72   4.514   1.191   1.477
    1   AR   Ar   73   3.217   0.306   4.161
    1   AR   Ar   74   1.040   0.547   3.222
    1   AR   Ar   75   2.270   0.688   5.328
    1   AR   Ar   76   2.660   0.120   1.678
    1   AR   Ar   77   1.190   5.533   5.962
    1   AR   Ar   78   7.023   5.488   6.045
    1   AR   Ar   79   3.515   6.889   5.111
    1   AR   Ar   80   3.664   4.716   6.003
    1   AR   Ar   81   1.661   6.236   1.998
    1   AR   Ar   82   0.137   5.172   1.358
    1   AR   Ar   83   0.878   3.119   1.813
    1   AR   Ar   84   0.967   4.609   0.899
    1   AR   Ar   85   0.184   3.201  -0.429
    1   AR   Ar   86   1.816   5.573   1.064
    1   AR   Ar   87   3.798   3.189   2.565
    1   AR   Ar   88   3.409   5.294   1.081
    1   AR   Ar   89   5.522   2.521   0.960
    1   AR   Ar   90   3.124   1.167   6.028
    1   AR   Ar   91   1.664   1.370   3.376
    1   AR   Ar   92   3.947   2.868   1.346
    1   AR   Ar   93   1.149   0.795   5.655
    1   AR   Ar   94   6.641   6.626   9.238
    1   AR   Ar   95   5.434   1.074   6.883
    1   AR   Ar   96   2.234   6.403   5.387
    1   AR   Ar   97   4.499   1.263  -1.476
    1   AR   Ar   98   1.736   4.345   4.156
    1   AR   Ar   99   6.285   6.484  -0.999
    1   AR   Ar  100   5.778   2.925  -2.928
    1   AR   Ar  101   4.054   5.970   3.172
    1   AR   Ar  102   4.258   2.100   2.332
    1   AR   Ar  103   1.818   4.454   1.789
    1   AR   Ar  104   3.297   0.361  -0.769
    1   AR   Ar  105   2.969   2.338   2.320
    1   AR   Ar  106   4.712   0.971   3.545
    1   AR   Ar  107   0.817   4.507   5.418
    1   AR   Ar  108   2.065   0.411   3.655
    1   AR   Ar  109   2.357   4.862   4.792
    1   AR   Ar  110   1.932   2.598   5.076
    1   AR   Ar  111   3.659   4.432   7.343
    1   AR   Ar  112   6.066   6.332   6.438
    1   AR   Ar  113   6.945   5.727  -1.513
    1   AR   Ar  114   2.422   0.114  -0.065
    1   AR   Ar  115   0.549   4.503  -0.320
    1   AR   Ar  116   5.455   1.329   0.188
    1   AR   Ar  117   0.231   4.194   3.256
    1   AR   Ar  118   1.822   6.467   3.845
    1   AR   Ar  119   1.911   3.257   2.369
    1   AR   Ar  120   2.099   7.106   2.665
    1   AR   Ar  121   4.835   3.804   7.176
    1   AR   Ar  122   3.057   5.422   3.399
    1   AR   Ar  123   3.722   2.321   5.119
    1   AR   Ar  124   1.059   5.486   1.796
    1   AR   Ar  125   5.930   3.792   3.772
    1   AR   Ar  126   0.307   0.520   7.632
    1   AR   Ar  127   4.703   3.689   5.562
    1   AR   Ar  128   0.931   3.764   6.200
    1   AR   Ar  129   1.661   5.552   4.436
    1   AR   Ar  130   5.013   0.725  -5.016
    1   AR   Ar  131   3.441   6.220  -0.382
    1   AR   Ar  132   1.967   2.596   1.583
    1   AR   Ar  133   4.168   0.448   4.604
    1   AR   Ar  134   2.925   1.519   4.600
    1   AR   Ar  135   6.393   0.137   5.045
    1   AR   Ar  136   5.573   6.639   2.916
    1   AR   Ar  137   2.146   4.676   5.959
    1   AR   Ar  138   5.926   1.605   6.066
    1   AR   Ar  139   6.072   2.012   4.999
    1   AR   Ar  140   4.964   6.329   5.023
    1   AR   Ar  141   3.289   5.227   4.489
    1   AR   Ar  142   4.055   5.557   8.825
    1   AR   Ar  143   5.966   6.293   7.467
    1   AR   Ar  144   0.008   2.476   5.478
    1   AR   Ar  145   5.028   4.846  -1.445
    1   AR   Ar  146   4.097   2.158   3.926
    1   AR   Ar  147   4.723   4.487  -0.220
    1   AR   Ar  148   2.188   5.869  -0.689
    1   AR   Ar  149   6.838   1.717  -0.210
    1   AR   Ar  150   1.217   2.275   2.353
    1   AR   Ar  151   3.005   3.581   1.968
    1   AR   Ar  152   0.838   1.422  -0.930
    1   AR   Ar  153   5.631   0.563   3.097
    1   AR   Ar  154   5.065   3.280   4.011
    1   AR   Ar  155   6.414   3.237   5.667
    1   AR   Ar  156   2.694   3.778   3.077
    1   AR   Ar  157   2.908   5.769   6.489
    1   AR   Ar  158   0.843   2.551   7.086
    1   AR   Ar  159   4.807   0.458   5.545
    1   AR   Ar  160   0.948   1.300   4.298
    1   AR   Ar  161   5.108   4.596   3.516
    1   AR   Ar  162   3.976   5.660  -1.142
    1   AR   Ar  163   6.271   3.783   2.136
    1   AR   Ar  164   2.025   5.934   2.903
    1   AR   Ar  165   3.264   4.165   1.164
    1   AR   Ar  166   2.868   3.460   4.959
    1   AR   Ar  167   6.130   7.024   3.766
    1   AR   Ar  168   5.612   4.096  -2.465
    1   AR   Ar  169   4.405   3.661   3.277
    1   AR   Ar  170   2.852   2.177   6.010
    1   AR   Ar  171   4.491   5.445   4.027
    1   AR   Ar  172   4.303   3.149   4.720
    1   AR   Ar  173   1.002   1.542   7.925
    1   AR   Ar  174   2.964   6.221   4.441
    1   AR   Ar  175   1.041   6.978   7.402
    1   AR   Ar  176   3.418   3.150   3.744
    1   AR   Ar  177   6.688   4.289  -1.318
    1   AR   Ar  178   2.131   6.554   0.961
    1   AR   Ar  179   3.152   6.311   0.748
    1   AR   Ar  180   5.210   6.431  -7.235
    1   AR   Ar  181   0.062   6.158   2.235
    1   AR   Ar  182   1.076   6.704   2.728
    1   AR   Ar  183   5.242   5.710   1.457
    1   AR   Ar  184   4.107   5.628   0.257
    1   AR   Ar  185   3.443   4.067   4.202
    1   AR   Ar  186   2.941   6.541   3.315
    1   AR   Ar  187   3.948   6.705   3.823
    1   AR   Ar  188   3.454   1.144   1.773
    1   AR   Ar  189   6.044   2.562   6.651
    1   AR   Ar  190   1.237   0.147   4.443
    1   AR   Ar  191   3.966   5.916   4.805
    1   AR   Ar  192   3.791   3.420   6.172
    1   AR   Ar  193   3.114   6.176   1.890
    1   AR   Ar  194   4.687   6.078  -0.425
    1   AR   Ar  195   6.262   1.060   1.015
    1   AR   Ar  196   4.269   6.589   0.771
    1   AR   Ar  197   4.839   2.759   0.317
    1   AR   Ar  198   6.739   6.718   1.251
    1   AR   Ar  199   7.118   0.365   2.099
    1   AR   Ar  200   5.876   2.493  -0.031
    1   AR   Ar  201   6.469   5.669   2.956
    1   AR   Ar  202   5.137   0.286   4.282
    1   AR   Ar  203   0.396   6.897   3.511
    1   AR   Ar  204   4.508   5.257   7.857
    1   AR   Ar  205   5.515   2.034   1.838
    1   AR   Ar  206   5.681   0.214   6.258
    1   AR   Ar  207   0.244   4.072   4.587
    1   AR   Ar  208   0.796   5.920   3.727
    1   AR   Ar  209   5.590   1.832  -2.001
    1   AR   Ar  210   1.744   1.388   0.526
    1   AR   Ar  211   7.039   2.705   0.600
    1   AR   Ar  212   6.641   4.239   0.050
    1   AR   Ar  213   3.999   1.936   0.894
    1   AR   Ar  214   5.439   4.451   2.022
    1   AR   Ar  215   0.377   3.111   2.902
    1   AR   Ar  216   1.997   2.463  -0.386
    1   AR   Ar  217   5.076   2.235   4.311
    1   AR   Ar  218   4.721   2.335   5.312
    1   AR   Ar  219   4.519   4.153   2.405
    1   AR   Ar  220   4.556   4.689   1.309
    1   AR   Ar  221   6.864   6.006   3.814
    1   AR   Ar  222   5.053   6.424   6.154
    1   AR   Ar  223   6.982   1.376   5.874
    1   AR   Ar  224   5.248   1.229   4.770
    1   AR   Ar  225   5.849   2.778   2.646
    1   AR   Ar  226   2.386   3.480   4.040
    1   AR   Ar  227   1.453   2.288   3.961
    1   AR   Ar  228   6.230   1.030   2.309
    1   AR   Ar  229   5.762   4.104  -0.927
    1   AR   Ar  230   4.010   4.836   3.166
    1   AR   Ar  231   4.938   2.552   3.068
    1   AR   Ar  232   5.333   3.122   1.830
    1   AR   Ar  233   6.894   2.385   3.437
    1   AR   Ar  234   6.152   2.994   4.627
    1   AR   Ar  235   6.404   0.849   4.380
    1   AR   Ar  236   4.341   4.290   4.904
    1   AR   Ar  237   4.786   1.544   7.645
    1   AR   Ar  238   4.708   4.875   5.834
    1   AR   Ar  239   1.207   4.188  10.829
    1   AR   Ar  240   1.849   3.006   6.757
    1   AR   Ar  241   1.514   6.630   0.085
    1   AR   Ar  242   5.907   6.314   1.985
    1   AR   Ar  243   4.195   6.068   1.971
    1   AR   Ar  244   6.652   6.318   0.282
    1   AR   Ar  245   3.096   1.548   3.348
    1   AR   Ar  246   5.041   6.062  -1.464
    1   AR   Ar  247   7.071   3.606   1.410
    1   AR   Ar  248   5.456   5.252  -0.686
    1   AR   Ar  249   3.444   0.675   0.598
    1   AR   Ar  250   4.960   6.451   3.808
    1   AR   Ar  251   5.552   3.895   4.922
    1   AR   Ar  252   2.660   4.817   2.526
    1   AR   Ar  253   5.316   2.496   7.665
    1   AR   Ar  254   3.949   4.189  12.767
    1   AR   Ar  255   5.157   6.689   8.978
    1   AR   Ar  256   5.743   5.512   3.700
    7.12000  7.12000 12.00000
Argon-slab step 5570
  256
    1   AR   Ar    1   3.919   3.264  -2.271
    1   AR   Ar    2   5.794   0.024   1.073
    1   AR   Ar    3   4.372   3.311  -1.001
    1   AR   Ar    4   2.546   1.220   1.219
    1   AR   Ar    5   6.740   5.139  -0.618
    1   AR   Ar    6   1.097   1.062   2.338
    1   AR   Ar    7   6.360   4.579   3.170
    1   AR   Ar    8   6.355   3.378  -0.467
    1   AR   Ar    9   0.454   5.741   4.859
    1   AR   Ar   10   5.929   4.536   6.265
    1   AR   Ar   11   0.904   6.686   5.452
    1   AR   Ar   12   7.010   1.729   4.710
    1   AR   Ar   13   0.198   0.135   4.754
    1   AR   Ar   14   4.146   1.012   6.213
    1   AR   Ar   15   2.897   5.926   9.578
    1   AR   Ar   16   0.515   7.044   6.339
    1   AR   Ar   17   5.690   3.593   0.868
    1   AR   Ar   18   6.839   4.186  -2.497
    1   AR   Ar   19   5.179   5.273   0.448
    1   AR   Ar   20   6.849   2.994  -2.237
    1   AR   Ar   21   2.306   1.178   2.468
    1   AR   Ar   22   5.117   0.433   2.002
    1   AR   Ar   23   0.928   6.037   0.719
    1   AR   Ar   24   5.872   2.681   3.722
    1   AR   Ar   25   1.011   2.761   5.741
    1   AR   Ar   26   5.950   6.194   4.745
    1   AR   Ar   27   1.124   0.222   1.281
    1   AR   Ar   28   2.435   2.510   3.811
    1   AR   Ar   29   5.472   0.564   7.877
    1   AR   Ar   30   6.631   1.002   3.274
    1   AR   Ar   31   1.049   0.761   6.807
    1   AR   Ar   32   0.822   1.942   6.266
    1   AR   Ar   33   6.286   5.303   0.668
    1   AR   Ar   34   1.842   4.824   3.234
    1   AR   Ar   35   5.602   5.552   2.592
    1   AR   Ar   36   3.636   1.739  -3.777
    1   AR   Ar   37   4.572   3.629   1.377
    1   AR   Ar   38   6.139   4.660   4.361
    1   AR   Ar   39   0.396   2.929   4.486
    1   AR   Ar   40   0.621   4.118   2.341
    1   AR   Ar   41   0.698   1.665   3.254
    1   AR   Ar   42   5.517   5.514   5.449
    1   AR   Ar   43   7.092   3.118   6.617
    1   AR   Ar   44   1.280   3.847   3.083
    1   AR   Ar   45   1.953   3.601   5.666
    1   AR   Ar   46   6.351   5.309   6.960
    1   AR   Ar   47   2.627   3.765   6.528
    1   AR   Ar   48   0.108   3.472   7.756
    1   AR   Ar   49   0.534   1.394   0.382
    1   AR   Ar   50   2.657   4.221   0.158
    1   AR   Ar   51   5.331   3.629   2.730
    1   AR   Ar   52   5.230   3.351  -1.750
    1   AR   Ar   53   4.668   0.139   2.964
    1   AR   Ar   54   6.541   6.864   2.800
    1   AR   Ar   55   6.793   4.857   2.209
    1   AR   Ar   56   5.584   1.715   3.393
    1   AR   Ar   57   4.724   5.188   2.410
    1   AR   Ar   58   1.369   3.420   4.585
    1   AR   Ar   59   3.101   5.674   5.460
    1   AR   Ar   60   0.757   5.237   2.861
    1   AR   Ar   61   6.971   4.497   6.574
    1   AR   Ar   62   6.748   4.403   5.516
    1   AR   Ar   63   1.917   1.944   7.068
    1   AR   Ar   64   0.687   4.900   4.049
    1   AR   Ar   65   3.963   1.224   2.803
    1   AR   Ar   66   1.472   1.356   1.502
    1   AR   Ar   67   4.692   0.977  -0.515
    1   AR   Ar   68   6.681   0.758   0.059
    1   AR   Ar   69   2.820   2.663   0.662
    1   AR   Ar   70   0.266   1.454   1.473
    1   AR   Ar   71   3.115   0.586   3.027
    1   AR   Ar   72   4.525   1.175   1.467
    1   AR   Ar   73   3.229   0.321   4.159
    1   AR   Ar   74   1.028   0.535   3.234
    1   AR   Ar   75   2.232   0.687   5.345
    1   AR   Ar   76   2.693   0.106   1.655
    1   AR   Ar   77   1.209   5.518   5.964
    1   AR   Ar   78   7.035   5.504   6.041
    1   AR   Ar   79   3.512   6.889   5.120
    1   AR   Ar   80   3.661   4.711   6.021
    1   AR   Ar   81   1.636   6.250   2.016
    1   AR   Ar   82   0.147   5.157   1.326
    1   AR   Ar   83   0.898   3.128   1.804
    1   AR   Ar   84   0.979   4.621   0.919
    1   AR   Ar   85   0.213   3.210  -0.419
    1   AR   Ar   86   1.785   5.578   1.061
    1   AR   Ar   87   3.812   3.185   2.595
    1   AR   Ar   88   3.400   5.336   1.122
    1   AR   Ar   89   5.524   2.516   0.957
    1   AR   Ar   90   3.141   1.162   6.014
    1   AR   Ar   91   1.678   1.363   3.394
    1   AR   Ar   92   3.970   2.885   1.311
    1   AR   Ar   93   1.174   0.792   5.655
    1   AR   Ar   94   6.667   6.638   9.245
    1   AR   Ar   95   5.437   1.080   6.880
    1   AR   Ar   96   2.232   6.379   5.408
    1   AR   Ar   97   4.487   1.276  -1.509
    1   AR   Ar   98   1.716   4.338   4.133
    1   AR   Ar   99   6.252   6.471  -0.985
    1   AR   Ar  100   5.800   2.923  -2.931
    1   AR   Ar  101   4.061   5.970   3.188
    1   AR   Ar  102   4.276   2.066   2.323
    1   AR   Ar  103   1.790   4.416   1.796
    1   AR   Ar  104   3.286   0.355  -0.797
    1   AR   Ar  105   2.953   2.344   2.344
    1   AR   Ar  106   4.658   0.950   3.536
    1   AR   Ar  107   0.801   4.535   5.434
    1   AR   Ar  108   2.094   0.443   3.679
    1   AR   Ar  109   2.370   4.860   4.775
    1   AR   Ar  110   1.922   2.599   5.097
    1   AR   Ar  111   3.719   4.443   7.349
    1   AR   Ar  112   6.068   6.340   6.492
    1   AR   Ar  113   6.928   5.697  -1.520
    1   AR   Ar  114   2.376   0.115  -0.055
    1   AR   Ar  115   0.533   4.482  -0.317
    1   AR   Ar  116   5.460   1.313   0.214
    1   AR   Ar  117   0.237   4.198   3.259
    1   AR   Ar  118   1.873   6.473   3.830
    1   AR   Ar  119   1.904   3.263   2.378
    1   AR   Ar  120   2.096   7.112   2.664
    1   AR   Ar  121   4.874   3.803   7.178
    1   AR   Ar  122   3.075   5.419   3.393
    1   AR   Ar  123   3.760   2.318   5.128
    1   AR   Ar  124   1.006   5.484   1.792
    1   AR   Ar  125   5.931   3.790   3.764
    1   AR   Ar  126   0.333   0.521   7.613
    1   AR   Ar  127   4.694   3.680   5.570
    1   AR   Ar  128   0.892   3.753   6.212
    1   AR   Ar  129   1.687   5.565   4.413
    1   AR   Ar  130   5.013   0.719  -5.016
    1   AR   Ar  131   3.403   6.233  -0.360
    1   AR   Ar  132   2.002   2.633   1.565
    1   AR   Ar  133   4.145   0.434   4.577
    1   AR   Ar  134   2.907   1.505   4.581
    1   AR   Ar  135   6.406   0.110   5.054
    1   AR   Ar  136   5.543   6.646   2.912
    1   AR   Ar  137   2.162   4.707   5.941
    1   AR   Ar  138   5.927   1.621   6.086
    1   AR   Ar  139   6.057   2.023   4.989
    1   AR   Ar  140   4.973   6.311   5.006
    1   AR   Ar  141   3.301   5.234   4.482
    1   AR   Ar  142   4.058   5.524   8.862
    1   AR   Ar  143   5.956   6.296   7.467
    1   AR   Ar  144   0.009   2.518   5.479
    1   AR   Ar  145   5.030   4.846  -1.450
    1   AR   Ar  146   4.085   2.174   3.918
    1   AR   Ar  147   4.741   4.488  -0.228
    1   AR   Ar  148   2.228   5.866  -0.659
    1   AR   Ar  149   6.829   1.729  -0.218
    1   AR   Ar  150   1.223   2.296   2.328
    1   AR   Ar  151   3.009   3.597   1.949
    1   AR   Ar  152   0.840   1.431  -0.912
    1   AR   Ar  153   5.633   0.530   3.090
    1   AR   Ar  154   5.053   3.258   4.009
    1   AR   Ar  155   6.402   3.218   5.663
    1   AR   Ar  156   2.704   3.774   3.063
    1   AR   Ar  157   2.948   5.767   6.492
    1   AR   Ar  158   0.838   2.538   7.125
    1   AR   Ar  159   4.838   0.463   5.545
    1   AR   Ar  160   0.928   1.327   4.306
    1   AR   Ar  161   5.072   4.609   3.530
    1   AR   Ar  162   3.993   5.665  -1.145
    1   AR   Ar  163   6.277   3.804   2.114
    1   AR   Ar  164   2.028   5.935   2.910
    1   AR   Ar  165   3.264   4.129   1.170
    1   AR   Ar  166   2.877   3.464   4.931
    1   AR   Ar  167   6.148   7.004   3.743
    1   AR   Ar  168   5.603   4.107  -2.474
    1   AR   Ar  169   4.410   3.648   3.268
    1   AR   Ar  170   2.900   2.162   6.030
    1   AR   Ar  171   4.494   5.451   4.010
    1   AR   Ar  172   4.340   3.183   4.707
    1   AR   Ar  173   0.985   1.545   7.930
    1   AR   Ar  174   2.960   6.241   4.446
    1   AR   Ar  175   0.985   6.983   7.389
    1   AR   Ar  176   3.436   3.154   3.728
    1   AR   Ar  177   6.691   4.269  -1.318
    1   AR   Ar  178   2.129   6.532   0.962
    1   AR   Ar  179   3.141   6.306   0.739
    1   AR   Ar  180   5.205   6.393  -7.223
    1   AR   Ar  181   0.054   6.143   2.259
    1   AR   Ar  182   1.070   6.681   2.696
    1   AR   Ar  183   5.273   5.693   1.453
    1   AR   Ar  184   4.079   5.605   0.250
    1   AR   Ar  185   3.427   4.056   4.246
    1   AR   Ar  186   2.937   6.510   3.323
    1   AR   Ar  187   3.989   6.703   3.835
    1   AR   Ar  188   3.464   1.144   1.794
    1   AR   Ar  189   6.047   2.580   6.657
    1   AR   Ar  190   1.219   0.149   4.446
    1   AR   Ar  191   3.973   5.931   4.789
    1   AR   Ar  192   3.806   3.435   6.225
    1   AR   Ar  193   3.107   6.177   1.894
    1   AR   Ar  194   4.696   6.077  -0.434
    1   AR   Ar  195   6.253   1.075   0.985
    1   AR   Ar  196   4.302   6.609   0.776
    1   AR   Ar  197   4.831   2.770   0.319
    1   AR   Ar  198   6.731   6.724   1.258
    1   AR   Ar  199   7.117   0.370   2.087
    1   AR   Ar  200   5.863   2.474  -0.018
    1   AR   Ar  201   6.491   5.659   2.968
    1   AR   Ar  202   5.084   0.270   4.243
    1   AR   Ar  203   0.408   6.859   3.534
    1   AR   Ar  204   4.520   5.245   7.864
    1   AR   Ar  205   5.521   2.033   1.860
    1   AR   Ar  206   5.692   0.221   6.229
    1   AR   Ar  207   0.245   4.065   4.607
    1   AR   Ar  208   0.812   5.916   3.731
    1   AR   Ar  209   5.587   1.857  -1.992
    1   AR   Ar  210   1.763   1.412   0.553
    1   AR   Ar  211   7.033   2.699   0.611
    1   AR   Ar  212   6.643   4.277   0.036
    1   AR   Ar  213   4.003   1.941   0.912
    1   AR   Ar  214   5.441   4.451   1.994
    1   AR   Ar  215   0.358   3.117   2.883
    1   AR   Ar  216   1.996   2.468  -0.387
    1   AR   Ar  217   5.083   2.243   4.336
    1   AR   Ar  218   4.720   2.324   5.345
    1   AR   Ar  219   4.515   4.177   2.397
    1   AR   Ar  220   4.559   4.728   1.317
    1   AR   Ar  221   6.884   6.022   3.834
    1   AR   Ar  222   5.047   6.441   6.160
    1   AR   Ar  223   6.968   1.346   5.893
    1   AR   Ar  224   5.286   1.227   4.756
    1   AR   Ar  225   5.832   2.745   2.627
    1   AR   Ar  226   2.380   3.490   4.053
    1   AR   Ar  227   1.461   2.271   3.981
    1   AR   Ar  228   6.228   1.048   2.293
    1   AR   Ar  229   5.747   4.074  -0.957
    1   AR   Ar  230   4.005   4.832   3.173
    1   AR   Ar  231   4.949   2.562   3.080
    1   AR   Ar  232   5.338   3.133   1.806
    1   AR   Ar  233   6.892   2.376   3.440
    1   AR   Ar  234   6.186   2.999   4.636
    1   AR   Ar  235   6.390   0.870   4.396
    1   AR   Ar  236   4.348   4.309   4.854
    1   AR   Ar  237   4.806   1.508   7.648
    1   AR   Ar  238   4.714   4.860   5.837
    1   AR   Ar  239   1.206   4.205  10.813
    1   AR   Ar  240   1.836   3.002   6.765
    1   AR   Ar  241   1.505   6.632   0.080
    1   AR   Ar  242   5.918   6.321   1.995
    1   AR   Ar  243   4.224   6.035   1.980
    1   AR   Ar  244   6.684   6.366   0.291
    1   AR   Ar  245   3.097   1.516   3.326
    1   AR   Ar  246   5.069   6.029  -1.476
    1   AR   Ar  247   7.065   3.595   1.405
    1   AR   Ar  248   5.462   5.247  -0.702
    1   AR   Ar  249   3.444   0.687   0.584
    1   AR   Ar  250   4.987   6.423   3.850
    1   AR   Ar  251   5.572   3.931   4.949
    1   AR   Ar  252   2.666   4.814   2.510
    1   AR   Ar  253   5.342   2.510   7.624
    1   AR   Ar  254   3.919   4.224  12.772
    1   AR   Ar  255   5.160   6.639   8.990
    1   AR   Ar  256   5.770   5.495   3.723
    7.12000  7.12000 12.00000
Argon-slab step 5575
  256
    1   AR   Ar    1   3.897   3.232  -2.253
    1   AR   Ar    2   5.795   7.119   1.070
    1   AR   Ar    3   4.395   3.323  -1.019
    1   AR   Ar    4   2.534   1.218   1.234
    1   AR   Ar    5   6.711   5.117  -0.580
    1   AR   Ar    6   1.115   1.080   2.322
    1   AR   Ar    7   6.340   4.570   3.140
    1   AR   Ar    8   6.339   3.362  -0.443
    1   AR   Ar    9   0.446   5.739   4.857
    1   AR   Ar   10   5.948   4.538   6.292
    1   AR   Ar   11   0.890   6.669   5.453
    1   AR   Ar   12   7.003   1.721   4.705
    1   AR   Ar   13   0.216   0.136   4.744
    1   AR   Ar   14   4.156   1.033   6.211
    1   AR   Ar   15   2.918   5.937   9.568
    1   AR   Ar   16   0.528   7.042   6.382
    1   AR   Ar   17   5.660   3.618   0.867
    1   AR   Ar   18   6.855   4.160  -2.505
    1   AR   Ar   19   5.199   5.267   0.426
    1   AR   Ar   20   6.864   2.978  -2.256
    1   AR   Ar   21   2.284   1.152   2.480
    1   AR   Ar   22   5.141   0.444   1.983
    1   AR   Ar   23   0.912   6.041   0.666
    1   AR   Ar   24   5.887   2.680   3.724
    1   AR   Ar   25   0.989   2.789   5.746
    1   AR   Ar   26   5.938   6.189   4.754
    1   AR   Ar   27   1.127   0.261   1.276
    1   AR   Ar   28   2.424   2.504   3.842
    1   AR   Ar   29   5.468   0.558   7.850
    1   AR   Ar   30   6.603   1.004   3.302
    1   AR   Ar   31   1.034   0.768   6.779
    1   AR   Ar   32   0.834   1.937   6.247
    1   AR   Ar   33   6.290   5.313   0.669
    1   AR   Ar   34   1.850   4.819   3.230
    1   AR   Ar   35   5.644   5.584   2.607
    1   AR   Ar   36   3.622   1.714  -3.781
    1   AR   Ar   37   4.621   3.647   1.392
    1   AR   Ar   38   6.147   4.686   4.363
    1   AR   Ar   39   0.384   2.930   4.472
    1   AR   Ar   40   0.573   4.066   2.334
    1   AR   Ar   41   0.691   1.667   3.260
    1   AR   Ar   42   5.468   5.516   5.440
    1   AR   Ar   43   7.096   3.148   6.645
    1   AR   Ar   44   1.267   3.860   3.101
    1   AR   Ar   45   1.960   3.600   5.638
    1   AR   Ar   46   6.347   5.316   6.977
    1   AR   Ar   47   2.606   3.737   6.565
    1   AR   Ar   48   0.121   3.496   7.778
    1   AR   Ar   49   0.504   1.386   0.368
    1   AR   Ar   50   2.649   4.229   0.154
    1   AR   Ar   51   5.331   3.665   2.707
    1   AR   Ar   52   5.178   3.320  -1.745
    1   AR   Ar   53   4.679   0.118   2.977
    1   AR   Ar   54   6.540   6.882   2.809
    1   AR   Ar   55   6.772   4.856   2.205
    1   AR   Ar   56   5.581   1.683   3.430
    1   AR   Ar   57   4.715   5.161   2.401
    1   AR   Ar   58   1.383   3.405   4.602
    1   AR   Ar   59   3.125   5.655   5.464
    1   AR   Ar   60   0.755   5.262   2.852
    1   AR   Ar   61   6.976   4.494   6.563
    1   AR   Ar   62   6.750   4.378   5.513
    1   AR   Ar   63   1.927   1.943   7.097
    1   AR   Ar   64   0.703   4.871   4.027
    1   AR   Ar   65   3.969   1.205   2.783
    1   AR   Ar   66   1.472   1.369   1.515
    1   AR   Ar   67   4.701   0.979  -0.476
    1   AR   Ar   68   6.695   0.743   0.045
    1   AR   Ar   69   2.773   2.686   0.672
    1   AR   Ar   70   0.269   1.456   1.493
    1   AR   Ar   71   3.145   0.578   3.040
    1   AR   Ar   72   4.537   1.160   1.458
    1   AR   Ar   73   3.245   0.328   4.157
    1   AR   Ar   74   1.018   0.522   3.249
    1   AR   Ar   75   2.196   0.687   5.360
    1   AR   Ar   76   2.726   0.092   1.632
    1   AR   Ar   77   1.227   5.502   5.963
    1   AR   Ar   78   7.046   5.519   6.036
    1   AR   Ar   79   3.508   6.888   5.131
    1   AR   Ar   80   3.656   4.705   6.039
    1   AR   Ar   81   1.622   6.266   2.021
    1   AR   Ar   82   0.153   5.143   1.290
    1   AR   Ar   83   0.916   3.141   1.793
    1   AR   Ar   84   0.993   4.633   0.938
    1   AR   Ar   85   0.251   3.217  -0.408
    1   AR   Ar   86   1.758   5.575   1.061
    1   AR   Ar   87   3.823   3.177   2.620
    1   AR   Ar   88   3.392   5.376   1.165
    1   AR   Ar   89   5.535   2.508   0.960
    1   AR   Ar   90   3.172   1.187   6.011
    1   AR   Ar   91   1.679   1.351   3.386
    1   AR   Ar   92   3.980   2.892   1.278
    1   AR   Ar   93   1.197   0.788   5.654
    1   AR   Ar   94   6.694   6.650   9.253
    1   AR   Ar   95   5.439   1.084   6.876
    1   AR   Ar   96   2.229   6.355   5.426
    1   AR   Ar   97   4.476   1.291  -1.544
    1   AR   Ar   98   1.693   4.330   4.112
    1   AR   Ar   99   6.219   6.457  -0.971
    1   AR   Ar  100   5.822   2.921  -2.932
    1   AR   Ar  101   4.068   5.962   3.193
    1   AR   Ar  102   4.296   2.038   2.308
    1   AR   Ar  103   1.761   4.378   1.804
    1   AR   Ar  104   3.276   0.348  -0.823
    1   AR   Ar  105   2.937   2.351   2.369
    1   AR   Ar  106   4.606   0.938   3.537
    1   AR   Ar  107   0.785   4.566   5.450
    1   AR   Ar  108   2.126   0.473   3.704
    1   AR   Ar  109   2.385   4.855   4.763
    1   AR   Ar  110   1.914   2.601   5.117
    1   AR   Ar  111   3.781   4.454   7.354
    1   AR   Ar  112   6.074   6.347   6.533
    1   AR   Ar  113   6.911   5.667  -1.529
    1   AR   Ar  114   2.332   0.117  -0.045
    1   AR   Ar  115   0.518   4.460  -0.314
    1   AR   Ar  116   5.466   1.299   0.241
    1   AR   Ar  117   0.241   4.204   3.271
    1   AR   Ar  118   1.923   6.481   3.815
    1   AR   Ar  119   1.897   3.271   2.392
    1   AR   Ar  120   2.095   7.117   2.664
    1   AR   Ar  121   4.912   3.802   7.180
    1   AR   Ar  122   3.095   5.423   3.406
    1   AR   Ar  123   3.784   2.316   5.133
    1   AR   Ar  124   0.951   5.478   1.790
    1   AR   Ar  125   5.932   3.787   3.755
    1   AR   Ar  126   0.341   0.536   7.605
    1   AR   Ar  127   4.689   3.668   5.585
    1   AR   Ar  128   0.853   3.742   6.225
    1   AR   Ar  129   1.703   5.579   4.370
    1   AR   Ar  130   5.013   0.712  -5.015
    1   AR   Ar  131   3.369   6.237  -0.339
    1   AR   Ar  132   2.031   2.661   1.541
    1   AR   Ar  133   4.124   0.424   4.554
    1   AR   Ar  134   2.889   1.492   4.561
    1   AR   Ar  135   6.399   0.076   5.074
    1   AR   Ar  136   5.507   6.645   2.910
    1   AR   Ar  137   2.179   4.738   5.922
    1   AR   Ar  138   5.928   1.639   6.104
    1   AR   Ar  139   6.038   2.027   4.977
    1   AR   Ar  140   4.975   6.298   4.989
    1   AR   Ar  141   3.314   5.234   4.470
    1   AR   Ar  142   4.061   5.491   8.899
    1   AR   Ar  143   5.930   6.324   7.473
    1   AR   Ar  144   0.012   2.554   5.480
    1   AR   Ar  145   5.022   4.837  -1.470
    1   AR   Ar  146   4.072   2.191   3.909
    1   AR   Ar  147   4.759   4.490  -0.237
    1   AR   Ar  148   2.269   5.864  -0.627
    1   AR   Ar  149   6.819   1.748  -0.228
    1   AR   Ar  150   1.230   2.312   2.307
    1   AR   Ar  151   3.008   3.603   1.941
    1   AR   Ar  152   0.841   1.440  -0.891
    1   AR   Ar  153   5.614   0.510   3.081
    1   AR   Ar  154   5.056   3.242   4.003
    1   AR   Ar  155   6.386   3.204   5.662
    1   AR   Ar  156   2.713   3.770   3.048
    1   AR   Ar  157   2.987   5.765   6.498
    1   AR   Ar  158   0.834   2.528   7.167
    1   AR   Ar  159   4.864   0.462   5.548
    1   AR   Ar  160   0.907   1.352   4.313
    1   AR   Ar  161   5.037   4.621   3.543
    1   AR   Ar  162   4.011   5.669  -1.147
    1   AR   Ar  163   6.283   3.824   2.094
    1   AR   Ar  164   2.033   5.932   2.920
    1   AR   Ar  165   3.269   4.102   1.164
    1   AR   Ar  166   2.888   3.467   4.912
    1   AR   Ar  167   6.166   6.983   3.730
    1   AR   Ar  168   5.595   4.117  -2.482
    1   AR   Ar  169   4.416   3.663   3.271
    1   AR   Ar  170   2.946   2.153   6.049
    1   AR   Ar  171   4.499   5.454   3.993
    1   AR   Ar  172   4.363   3.205   4.705
    1   AR   Ar  173   0.968   1.547   7.932
    1   AR   Ar  174   2.954   6.263   4.448
    1   AR   Ar  175   0.943   6.971   7.372
    1   AR   Ar  176   3.455   3.154   3.710
    1   AR   Ar  177   6.698   4.249  -1.319
    1   AR   Ar  178   2.127   6.518   0.965
    1   AR   Ar  179   3.132   6.304   0.730
    1   AR   Ar  180   5.200   6.355  -7.212
    1   AR   Ar  181   0.048   6.128   2.282
    1   AR   Ar  182   1.058   6.661   2.672
    1   AR   Ar  183   5.300   5.673   1.449
    1   AR   Ar  184   4.048   5.579   0.246
    1   AR   Ar  185   3.411   4.050   4.288
    1   AR   Ar  186   2.934   6.482   3.333
    1   AR   Ar  187   4.025   6.711   3.856
    1   AR   Ar  188   3.473   1.144   1.816
    1   AR   Ar  189   6.050   2.598   6.662
    1   AR   Ar  190   1.203   0.151   4.447
    1   AR   Ar  191   3.983   5.952   4.775
    1   AR   Ar  192   3.816   3.433   6.227
    1   AR   Ar  193   3.098   6.177   1.898
    1   AR   Ar  194   4.684   6.077  -0.451
    1   AR   Ar  195   6.225   1.095   0.960
    1   AR   Ar  196   4.335   6.628   0.781
    1   AR   Ar  197   4.818   2.784   0.321
    1   AR   Ar  198   6.725   6.696   1.272
    1   AR   Ar  199   7.115   0.370   2.067
    1   AR   Ar  200   5.854   2.455  -0.009
    1   AR   Ar  201   6.526   5.650   2.977
    1   AR   Ar  202   5.040   0.252   4.204
    1   AR   Ar  203   0.416   6.824   3.557
    1   AR   Ar  204   4.532   5.232   7.870
    1   AR   Ar  205   5.525   2.026   1.887
    1   AR   Ar  206   5.705   0.230   6.198
    1   AR   Ar  207   0.245   4.056   4.627
    1   AR   Ar  208   0.827   5.912   3.749
    1   AR   Ar  209   5.584   1.883  -1.983
    1   AR   Ar  210   1.782   1.437   0.567
    1   AR   Ar  211   7.018   2.701   0.625
    1   AR   Ar  212   6.644   4.314   0.024
    1   AR   Ar  213   4.006   1.942   0.927
    1   AR   Ar  214   5.444   4.454   1.963
    1   AR   Ar  215   0.335   3.132   2.854
    1   AR   Ar  216   1.995   2.472  -0.387
    1   AR   Ar  217   5.092   2.249   4.360
    1   AR   Ar  218   4.732   2.313   5.381
    1   AR   Ar  219   4.504   4.200   2.384
    1   AR   Ar  220   4.544   4.756   1.342
    1   AR   Ar  221   6.901   6.040   3.861
    1   AR   Ar  222   5.038   6.459   6.165
    1   AR   Ar  223   6.956   1.317   5.911
    1   AR   Ar  224   5.325   1.224   4.742
    1   AR   Ar  225   5.829   2.706   2.609
    1   AR   Ar  226   2.375   3.515   4.048
    1   AR   Ar  227   1.462   2.255   4.004
    1   AR   Ar  228   6.224   1.065   2.274
    1   AR   Ar  229   5.724   4.046  -0.986
    1   AR   Ar  230   4.000   4.832   3.177
    1   AR   Ar  231   4.925   2.553   3.080
    1   AR   Ar  232   5.347   3.143   1.782
    1   AR   Ar  233   6.905   2.347   3.428
    1   AR   Ar  234   6.222   3.010   4.646
    1   AR   Ar  235   6.366   0.897   4.410
    1   AR   Ar  236   4.353   4.335   4.798
    1   AR   Ar  237   4.826   1.472   7.651
    1   AR   Ar  238   4.725   4.846   5.836
    1   AR   Ar  239   1.205   4.223  10.796
    1   AR   Ar  240   1.821   2.999   6.771
    1   AR   Ar  241   1.497   6.634   0.072
    1   AR   Ar  242   5.900   6.325   1.998
    1   AR   Ar  243   4.254   6.003   1.987
    1   AR   Ar  244   6.696   6.367   0.274
    1   AR   Ar  245   3.095   1.500   3.311
    1   AR   Ar  246   5.098   5.994  -1.487
    1   AR   Ar  247   7.059   3.585   1.399
    1   AR   Ar  248   5.477   5.251  -0.700
    1   AR   Ar  249   3.444   0.699   0.572
    1   AR   Ar  250   5.004   6.395   3.881
    1   AR   Ar  251   5.592   3.966   4.976
    1   AR   Ar  252   2.673   4.810   2.493
    1   AR   Ar  253   5.368   2.525   7.582
    1   AR   Ar  254   3.889   4.259  12.777
    1   AR   Ar  255   5.163   6.588   9.001
    1   AR   Ar  256   5.794   5.478   3.748
    7.12000  7.12000 12.00000
Argon-slab step 5580
  256
    1   AR   Ar    1   3.876   3.200  -2.234
    1   AR   Ar    2   5.793   7.097   1.067
    1   AR   Ar    3   4.418   3.336  -1.035
    1   AR   Ar    4   2.526   1.215   1.254
    1   AR   Ar    5   6.681   5.103  -0.547
    1   AR   Ar    6   1.122   1.090   2.334
    1   AR   Ar    7   6.313   4.559   3.113
    1   AR   Ar    8   6.321   3.345  -0.419
    1   AR   Ar    9   0.440   5.737   4.853
    1   AR   Ar   10   5.964   4.540   6.317
    1   AR   Ar   11   0.877   6.650   5.451
    1   AR   Ar   12   7.002   1.715   4.701
    1   AR   Ar   13   0.239   0.138   4.731
    1   AR   Ar   14   4.174   1.054   6.211
    1   AR   Ar   15   2.914   5.917   9.543
    1   AR   Ar   16   0.538   7.039   6.425
    1   AR   Ar   17   5.657   3.591   0.856
    1   AR   Ar   18   6.869   4.132  -2.511
    1   AR   Ar   19   5.191   5.265   0.400
    1   AR   Ar   20   6.878   2.963  -2.276
    1   AR   Ar   21   2.261   1.126   2.491
    1   AR   Ar   22   5.168   0.455   1.967
    1   AR   Ar   23   0.890   6.044   0.618
    1   AR   Ar   24   5.905   2.676   3.720
    1   AR   Ar   25   0.974   2.825   5.746
    1   AR   Ar   26   5.937   6.184   4.757
    1   AR   Ar   27   1.130   0.300   1.272
    1   AR   Ar   28   2.422   2.494   3.870
    1   AR   Ar   29   5.464   0.552   7.823
    1   AR   Ar   30   6.576   1.005   3.331
    1   AR   Ar   31   1.019   0.778   6.750
    1   AR   Ar   32   0.844   1.922   6.232
    1   AR   Ar   33   6.294   5.323   0.669
    1   AR   Ar   34   1.857   4.819   3.222
    1   AR   Ar   35   5.669   5.608   2.623
    1   AR   Ar   36   3.608   1.689  -3.785
    1   AR   Ar   37   4.665   3.682   1.401
    1   AR   Ar   38   6.157   4.712   4.366
    1   AR   Ar   39   0.372   2.929   4.458
    1   AR   Ar   40   0.528   4.003   2.316
    1   AR   Ar   41   0.684   1.682   3.281
    1   AR   Ar   42   5.423   5.514   5.434
    1   AR   Ar   43   7.100   3.177   6.672
    1   AR   Ar   44   1.256   3.872   3.121
    1   AR   Ar   45   1.966   3.598   5.607
    1   AR   Ar   46   6.343   5.326   6.994
    1   AR   Ar   47   2.586   3.711   6.599
    1   AR   Ar   48   0.135   3.519   7.798
    1   AR   Ar   49   0.476   1.377   0.356
    1   AR   Ar   50   2.643   4.237   0.152
    1   AR   Ar   51   5.335   3.701   2.691
    1   AR   Ar   52   5.163   3.307  -1.750
    1   AR   Ar   53   4.678   0.090   2.986
    1   AR   Ar   54   6.545   6.899   2.810
    1   AR   Ar   55   6.751   4.854   2.202
    1   AR   Ar   56   5.578   1.648   3.467
    1   AR   Ar   57   4.676   5.174   2.381
    1   AR   Ar   58   1.396   3.391   4.620
    1   AR   Ar   59   3.149   5.635   5.465
    1   AR   Ar   60   0.752   5.286   2.843
    1   AR   Ar   61   6.985   4.490   6.554
    1   AR   Ar   62   6.751   4.352   5.507
    1   AR   Ar   63   1.935   1.942   7.126
    1   AR   Ar   64   0.721   4.843   4.005
    1   AR   Ar   65   3.974   1.181   2.761
    1   AR   Ar   66   1.480   1.392   1.512
    1   AR   Ar   67   4.708   0.980  -0.437
    1   AR   Ar   68   6.710   0.724   0.031
    1   AR   Ar   69   2.726   2.709   0.683
    1   AR   Ar   70   0.272   1.456   1.513
    1   AR   Ar   71   3.172   0.550   3.049
    1   AR   Ar   72   4.549   1.146   1.450
    1   AR   Ar   73   3.245   0.332   4.148
    1   AR   Ar   74   1.009   0.509   3.265
    1   AR   Ar   75   2.165   0.686   5.374
    1   AR   Ar   76   2.759   0.080   1.610
    1   AR   Ar   77   1.244   5.487   5.960
    1   AR   Ar   78   7.057   5.532   6.030
    1   AR   Ar   79   3.504   6.886   5.144
    1   AR   Ar   80   3.648   4.691   6.044
    1   AR   Ar   81   1.622   6.276   2.005
    1   AR   Ar   82   0.149   5.129   1.248
    1   AR   Ar   83   0.934   3.159   1.780
    1   AR   Ar   84   1.010   4.645   0.958
    1   AR   Ar   85   0.273   3.205  -0.411
    1   AR   Ar   86   1.731   5.564   1.062
    1   AR   Ar   87   3.829   3.165   2.638
    1   AR   Ar   88   3.387   5.413   1.210
    1   AR   Ar   89   5.551   2.497   0.971
    1   AR   Ar   90   3.210   1.224   6.014
    1   AR   Ar   91   1.665   1.343   3.357
    1   AR   Ar   92   3.983   2.898   1.247
    1   AR   Ar   93   1.215   0.784   5.654
    1   AR   Ar   94   6.720   6.661   9.260
    1   AR   Ar   95   5.441   1.087   6.871
    1   AR   Ar   96   2.226   6.331   5.444
    1   AR   Ar   97   4.465   1.307  -1.579
    1   AR   Ar   98   1.666   4.322   4.095
    1   AR   Ar   99   6.185   6.440  -0.957
    1   AR   Ar  100   5.844   2.920  -2.931
    1   AR   Ar  101   4.075   5.949   3.188
    1   AR   Ar  102   4.318   2.017   2.289
    1   AR   Ar  103   1.732   4.341   1.814
    1   AR   Ar  104   3.265   0.340  -0.847
    1   AR   Ar  105   2.921   2.357   2.393
    1   AR   Ar  106   4.556   0.936   3.546
    1   AR   Ar  107   0.769   4.597   5.466
    1   AR   Ar  108   2.161   0.499   3.730
    1   AR   Ar  109   2.399   4.848   4.755
    1   AR   Ar  110   1.907   2.602   5.136
    1   AR   Ar  111   3.843   4.465   7.358
    1   AR   Ar  112   6.084   6.354   6.551
    1   AR   Ar  113   6.894   5.638  -1.537
    1   AR   Ar  114   2.294   0.120  -0.033
    1   AR   Ar  115   0.504   4.439  -0.312
    1   AR   Ar  116   5.472   1.287   0.267
    1   AR   Ar  117   0.241   4.210   3.290
    1   AR   Ar  118   1.972   6.493   3.801
    1   AR   Ar  119   1.890   3.282   2.407
    1   AR   Ar  120   2.093   7.114   2.658
    1   AR   Ar  121   4.950   3.802   7.180
    1   AR   Ar  122   3.113   5.425   3.419
    1   AR   Ar  123   3.794   2.313   5.135
    1   AR   Ar  124   0.900   5.473   1.792
    1   AR   Ar  125   5.934   3.784   3.746
    1   AR   Ar  126   0.328   0.568   7.612
    1   AR   Ar  127   4.677   3.663   5.607
    1   AR   Ar  128   0.814   3.731   6.237
    1   AR   Ar  129   1.715   5.591   4.323
    1   AR   Ar  130   5.014   0.705  -5.015
    1   AR   Ar  131   3.354   6.199  -0.329
    1   AR   Ar  132   2.050   2.679   1.514
    1   AR   Ar  133   4.111   0.419   4.541
    1   AR   Ar  134   2.871   1.478   4.539
    1   AR   Ar  135   6.381   0.038   5.099
    1   AR   Ar  136   5.471   6.632   2.910
    1   AR   Ar  137   2.196   4.769   5.902
    1   AR   Ar  138   5.929   1.657   6.118
    1   AR   Ar  139   6.016   2.029   4.967
    1   AR   Ar  140   4.966   6.292   4.971
    1   AR   Ar  141   3.328   5.229   4.455
    1   AR   Ar  142   4.064   5.459   8.935
    1   AR   Ar  143   5.901   6.350   7.500
    1   AR   Ar  144   0.017   2.584   5.479
    1   AR   Ar  145   5.009   4.821  -1.499
    1   AR   Ar  146   4.059   2.209   3.900
    1   AR   Ar  147   4.778   4.493  -0.247
    1   AR   Ar  148   2.310   5.863  -0.594
    1   AR   Ar  149   6.807   1.773  -0.240
    1   AR   Ar  150   1.239   2.322   2.289
    1   AR   Ar  151   3.001   3.599   1.950
    1   AR   Ar  152   0.868   1.456  -0.864
    1   AR   Ar  153   5.566   0.508   3.071
    1   AR   Ar  154   5.081   3.232   3.990
    1   AR   Ar  155   6.364   3.196   5.667
    1   AR   Ar  156   2.724   3.766   3.032
    1   AR   Ar  157   3.025   5.762   6.505
    1   AR   Ar  158   0.830   2.518   7.209
    1   AR   Ar  159   4.861   0.442   5.567
    1   AR   Ar  160   0.886   1.376   4.319
    1   AR   Ar  161   5.005   4.631   3.553
    1   AR   Ar  162   4.028   5.672  -1.151
    1   AR   Ar  163   6.283   3.821   2.102
    1   AR   Ar  164   2.040   5.927   2.931
    1   AR   Ar  165   3.279   4.085   1.143
    1   AR   Ar  166   2.898   3.462   4.907
    1   AR   Ar  167   6.181   6.961   3.728
    1   AR   Ar  168   5.588   4.126  -2.488
    1   AR   Ar  169   4.434   3.681   3.292
    1   AR   Ar  170   2.990   2.156   6.068
    1   AR   Ar  171   4.506   5.454   3.978
    1   AR   Ar  172   4.367   3.209   4.717
    1   AR   Ar  173   0.951   1.549   7.932
    1   AR   Ar  174   2.946   6.285   4.449
    1   AR   Ar  175   0.919   6.939   7.350
    1   AR   Ar  176   3.474   3.152   3.692
    1   AR   Ar  177   6.709   4.231  -1.321
    1   AR   Ar  178   2.131   6.517   0.946
    1   AR   Ar  179   3.125   6.303   0.720
    1   AR   Ar  180   5.194   6.318  -7.200
    1   AR   Ar  181   0.044   6.113   2.302
    1   AR   Ar  182   1.032   6.650   2.665
    1   AR   Ar  183   5.325   5.649   1.445
    1   AR   Ar  184   4.018   5.553   0.245
    1   AR   Ar  185   3.400   4.053   4.325
    1   AR   Ar  186   2.931   6.457   3.342
    1   AR   Ar  187   4.055   6.726   3.884
    1   AR   Ar  188   3.482   1.144   1.838
    1   AR   Ar  189   6.055   2.618   6.666
    1   AR   Ar  190   1.193   0.158   4.446
    1   AR   Ar  191   4.001   5.971   4.770
    1   AR   Ar  192   3.825   3.428   6.217
    1   AR   Ar  193   3.089   6.178   1.903
    1   AR   Ar  194   4.680   6.084  -0.464
    1   AR   Ar  195   6.198   1.115   0.939
    1   AR   Ar  196   4.366   6.645   0.786
    1   AR   Ar  197   4.809   2.800   0.330
    1   AR   Ar  198   6.728   6.701   1.283
    1   AR   Ar  199   7.115   0.370   2.047
    1   AR   Ar  200   5.847   2.434  -0.005
    1   AR   Ar  201   6.577   5.641   2.991
    1   AR   Ar  202   5.008   0.234   4.163
    1   AR   Ar  203   0.421   6.796   3.580
    1   AR   Ar  204   4.544   5.219   7.876
    1   AR   Ar  205   5.527   2.015   1.915
    1   AR   Ar  206   5.719   0.239   6.167
    1   AR   Ar  207   0.244   4.046   4.646
    1   AR   Ar  208   0.843   5.905   3.775
    1   AR   Ar  209   5.580   1.910  -1.975
    1   AR   Ar  210   1.800   1.465   0.569
    1   AR   Ar  211   7.001   2.704   0.638
    1   AR   Ar  212   6.641   4.345   0.019
    1   AR   Ar  213   4.009   1.936   0.939
    1   AR   Ar  214   5.448   4.459   1.930
    1   AR   Ar  215   0.312   3.146   2.824
    1   AR   Ar  216   1.994   2.475  -0.386
    1   AR   Ar  217   5.102   2.254   4.384
    1   AR   Ar  218   4.758   2.303   5.421
    1   AR   Ar  219   4.485   4.214   2.367
    1   AR   Ar  220   4.524   4.784   1.370
    1   AR   Ar  221   6.915   6.058   3.894
    1   AR   Ar  222   5.030   6.476   6.167
    1   AR   Ar  223   6.945   1.289   5.927
    1   AR   Ar  224   5.362   1.221   4.728
    1   AR   Ar  225   5.837   2.730   2.601
    1   AR   Ar  226   2.369   3.546   4.035
    1   AR   Ar  227   1.454   2.239   4.027
    1   AR   Ar  228   6.219   1.082   2.254
    1   AR   Ar  229   5.696   4.021  -1.016
    1   AR   Ar  230   3.996   4.839   3.176
    1   AR   Ar  231   4.874   2.546   3.082
    1   AR   Ar  232   5.353   3.146   1.814
    1   AR   Ar  233   6.918   2.318   3.417
    1   AR   Ar  234   6.260   3.024   4.656
    1   AR   Ar  235   6.341   0.925   4.420
    1   AR   Ar  236   4.358   4.362   4.741
    1   AR   Ar  237   4.845   1.438   7.656
    1   AR   Ar  238   4.749   4.838   5.822
    1   AR   Ar  239   1.204   4.240  10.780
    1   AR   Ar  240   1.804   2.996   6.775
    1   AR   Ar  241   1.489   6.636   0.061
    1   AR   Ar  242   5.880   6.336   1.994
    1   AR   Ar  243   4.281   5.974   1.993
    1   AR   Ar  244   6.703   6.356   0.250
    1   AR   Ar  245   3.089   1.502   3.302
    1   AR   Ar  246   5.126   5.958  -1.498
    1   AR   Ar  247   7.056   3.575   1.392
    1   AR   Ar  248   5.466   5.273  -0.699
    1   AR   Ar  249   3.442   0.711   0.561
    1   AR   Ar  250   5.018   6.364   3.902
    1   AR   Ar  251   5.612   3.999   5.002
    1   AR   Ar  252   2.680   4.807   2.476
    1   AR   Ar  253   5.393   2.538   7.539
    1   AR   Ar  254   3.859   4.294  12.782
    1   AR   Ar  255   5.167   6.537   9.012
    1   AR   Ar  256   5.816   5.465   3.772
    7.12000  7.12000 12.00000
Argon-slab step 5585
  256
    1   AR   Ar    1   3.855   3.168  -2.214
    1   AR   Ar    2   5.787   7.076   1.064
    1   AR   Ar    3   4.437   3.349  -1.048
    1   AR   Ar    4   2.523   1.210   1.277
    1   AR   Ar    5   6.650   5.107  -0.527
    1   AR   Ar    6   1.118   1.092   2.366
    1   AR   Ar    7   6.282   4.548   3.087
    1   AR   Ar    8   6.302   3.329  -0.393
    1   AR   Ar    9   0.434   5.734   4.850
    1   AR   Ar   10   5.969   4.544   6.334
    1   AR   Ar   11   0.866   6.632   5.447
    1   AR   Ar   12   7.003   1.710   4.696
    1   AR   Ar   13   0.256   0.141   4.719
    1   AR   Ar   14   4.202   1.073   6.213
    1   AR   Ar   15   2.907   5.893   9.520
    1   AR   Ar   16   0.542   7.034   6.457
    1   AR   Ar   17   5.654   3.565   0.845
    1   AR   Ar   18   6.882   4.104  -2.516
    1   AR   Ar   19   5.163   5.267   0.372
    1   AR   Ar   20   6.894   2.940  -2.282
    1   AR   Ar   21   2.241   1.098   2.500
    1   AR   Ar   22   5.197   0.462   1.954
    1   AR   Ar   23   0.860   6.042   0.574
    1   AR   Ar   24   5.924   2.668   3.713
    1   AR   Ar   25   0.966   2.864   5.744
    1   AR   Ar   26   5.945   6.179   4.754
    1   AR   Ar   27   1.134   0.339   1.269
    1   AR   Ar   28   2.443   2.501   3.865
    1   AR   Ar   29   5.460   0.544   7.796
    1   AR   Ar   30   6.548   1.006   3.360
    1   AR   Ar   31   1.007   0.794   6.724
    1   AR   Ar   32   0.853   1.903   6.219
    1   AR   Ar   33   6.299   5.333   0.669
    1   AR   Ar   34   1.865   4.822   3.209
    1   AR   Ar   35   5.680   5.620   2.640
    1   AR   Ar   36   3.593   1.663  -3.789
    1   AR   Ar   37   4.679   3.692   1.399
    1   AR   Ar   38   6.168   4.717   4.385
    1   AR   Ar   39   0.359   2.928   4.444
    1   AR   Ar   40   0.483   3.947   2.289
    1   AR   Ar   41   0.675   1.698   3.300
    1   AR   Ar   42   5.384   5.510   5.430
    1   AR   Ar   43   7.104   3.206   6.698
    1   AR   Ar   44   1.248   3.884   3.143
    1   AR   Ar   45   1.972   3.596   5.577
    1   AR   Ar   46   6.339   5.336   7.009
    1   AR   Ar   47   2.567   3.686   6.632
    1   AR   Ar   48   0.148   3.541   7.816
    1   AR   Ar   49   0.451   1.367   0.345
    1   AR   Ar   50   2.637   4.245   0.151
    1   AR   Ar   51   5.343   3.738   2.682
    1   AR   Ar   52   5.203   3.323  -1.772
    1   AR   Ar   53   4.656   0.057   2.992
    1   AR   Ar   54   6.554   6.915   2.801
    1   AR   Ar   55   6.732   4.854   2.197
    1   AR   Ar   56   5.574   1.612   3.504
    1   AR   Ar   57   4.704   5.179   2.360
    1   AR   Ar   58   1.408   3.378   4.637
    1   AR   Ar   59   3.172   5.615   5.462
    1   AR   Ar   60   0.748   5.309   2.836
    1   AR   Ar   61   6.998   4.485   6.545
    1   AR   Ar   62   6.751   4.325   5.501
    1   AR   Ar   63   1.941   1.941   7.153
    1   AR   Ar   64   0.739   4.818   3.984
    1   AR   Ar   65   3.978   1.155   2.737
    1   AR   Ar   66   1.494   1.423   1.498
    1   AR   Ar   67   4.715   0.982  -0.399
    1   AR   Ar   68   6.724   0.704   0.019
    1   AR   Ar   69   2.680   2.731   0.692
    1   AR   Ar   70   0.276   1.455   1.534
    1   AR   Ar   71   3.197   0.508   3.055
    1   AR   Ar   72   4.560   1.134   1.442
    1   AR   Ar   73   3.225   0.335   4.130
    1   AR   Ar   74   1.000   0.495   3.282
    1   AR   Ar   75   2.144   0.684   5.383
    1   AR   Ar   76   2.757   0.071   1.636
    1   AR   Ar   77   1.261   5.472   5.956
    1   AR   Ar   78   7.083   5.544   6.057
    1   AR   Ar   79   3.498   6.884   5.157
    1   AR   Ar   80   3.641   4.676   6.046
    1   AR   Ar   81   1.634   6.280   1.974
    1   AR   Ar   82   0.132   5.114   1.202
    1   AR   Ar   83   0.952   3.181   1.765
    1   AR   Ar   84   1.032   4.655   0.976
    1   AR   Ar   85   0.281   3.180  -0.423
    1   AR   Ar   86   1.705   5.548   1.066
    1   AR   Ar   87   3.833   3.149   2.653
    1   AR   Ar   88   3.384   5.445   1.255
    1   AR   Ar   89   5.570   2.484   0.987
    1   AR   Ar   90   3.242   1.243   6.013
    1   AR   Ar   91   1.650   1.339   3.324
    1   AR   Ar   92   3.984   2.910   1.219
    1   AR   Ar   93   1.221   0.780   5.657
    1   AR   Ar   94   6.745   6.673   9.267
    1   AR   Ar   95   5.443   1.088   6.863
    1   AR   Ar   96   2.224   6.306   5.460
    1   AR   Ar   97   4.454   1.322  -1.614
    1   AR   Ar   98   1.636   4.313   4.083
    1   AR   Ar   99   6.150   6.422  -0.941
    1   AR   Ar  100   5.867   2.921  -2.928
    1   AR   Ar  101   4.079   5.944   3.190
    1   AR   Ar  102   4.342   2.001   2.265
    1   AR   Ar  103   1.702   4.303   1.825
    1   AR   Ar  104   3.254   0.331  -0.869
    1   AR   Ar  105   2.905   2.364   2.417
    1   AR   Ar  106   4.509   0.940   3.563
    1   AR   Ar  107   0.753   4.628   5.482
    1   AR   Ar  108   2.197   0.522   3.755
    1   AR   Ar  109   2.412   4.838   4.748
    1   AR   Ar  110   1.901   2.602   5.155
    1   AR   Ar  111   3.906   4.476   7.361
    1   AR   Ar  112   6.098   6.360   6.552
    1   AR   Ar  113   6.875   5.607  -1.543
    1   AR   Ar  114   2.263   0.128  -0.021
    1   AR   Ar  115   0.492   4.417  -0.311
    1   AR   Ar  116   5.479   1.274   0.292
    1   AR   Ar  117   0.238   4.218   3.313
    1   AR   Ar  118   2.018   6.509   3.791
    1   AR   Ar  119   1.883   3.294   2.423
    1   AR   Ar  120   2.091   7.109   2.652
    1   AR   Ar  121   4.987   3.801   7.180
    1   AR   Ar  122   3.130   5.425   3.430
    1   AR   Ar  123   3.794   2.308   5.135
    1   AR   Ar  124   0.857   5.471   1.799
    1   AR   Ar  125   5.938   3.782   3.738
    1   AR   Ar  126   0.308   0.609   7.622
    1   AR   Ar  127   4.642   3.679   5.638
    1   AR   Ar  128   0.775   3.725   6.251
    1   AR   Ar  129   1.709   5.616   4.323
    1   AR   Ar  130   5.014   0.699  -5.014
    1   AR   Ar  131   3.340   6.163  -0.321
    1   AR   Ar  132   2.067   2.695   1.489
    1   AR   Ar  133   4.109   0.422   4.542
    1   AR   Ar  134   2.854   1.464   4.517
    1   AR   Ar  135   6.359   0.000   5.126
    1   AR   Ar  136   5.443   6.607   2.912
    1   AR   Ar  137   2.213   4.800   5.881
    1   AR   Ar  138   5.913   1.658   6.130
    1   AR   Ar  139   5.994   2.033   4.959
    1   AR   Ar  140   4.948   6.295   4.955
    1   AR   Ar  141   3.345   5.221   4.438
    1   AR   Ar  142   4.067   5.427   8.971
    1   AR   Ar  143   5.868   6.377   7.543
    1   AR   Ar  144   0.021   2.605   5.475
    1   AR   Ar  145   4.993   4.803  -1.532
    1   AR   Ar  146   4.047   2.227   3.891
    1   AR   Ar  147   4.786   4.479  -0.256
    1   AR   Ar  148   2.350   5.863  -0.560
    1   AR   Ar  149   6.794   1.802  -0.251
    1   AR   Ar  150   1.251   2.326   2.274
    1   AR   Ar  151   2.989   3.588   1.971
    1   AR   Ar  152   0.895   1.473  -0.835
    1   AR   Ar  153   5.532   0.517   3.068
    1   AR   Ar  154   5.107   3.233   3.984
    1   AR   Ar  155   6.344   3.196   5.678
    1   AR   Ar  156   2.734   3.763   3.014
    1   AR   Ar  157   3.063   5.759   6.515
    1   AR   Ar  158   0.826   2.509   7.249
    1   AR   Ar  159   4.857   0.421   5.583
    1   AR   Ar  160   0.865   1.396   4.327
    1   AR   Ar  161   4.976   4.636   3.562
    1   AR   Ar  162   4.043   5.673  -1.157
    1   AR   Ar  163   6.278   3.803   2.130
    1   AR   Ar  164   2.048   5.919   2.941
    1   AR   Ar  165   3.295   4.075   1.111
    1   AR   Ar  166   2.901   3.447   4.916
    1   AR   Ar  167   6.193   6.939   3.739
    1   AR   Ar  168   5.582   4.134  -2.493
    1   AR   Ar  169   4.451   3.702   3.318
    1   AR   Ar  170   3.018   2.178   6.069
    1   AR   Ar  171   4.512   5.449   3.968
    1   AR   Ar  172   4.365   3.210   4.731
    1   AR   Ar  173   0.935   1.551   7.930
    1   AR   Ar  174   2.937   6.306   4.448
    1   AR   Ar  175   0.912   6.906   7.330
    1   AR   Ar  176   3.491   3.150   3.674
    1   AR   Ar  177   6.721   4.212  -1.321
    1   AR   Ar  178   2.137   6.526   0.914
    1   AR   Ar  179   3.122   6.306   0.710
    1   AR   Ar  180   5.189   6.280  -7.188
    1   AR   Ar  181   0.045   6.100   2.317
    1   AR   Ar  182   0.994   6.645   2.670
    1   AR   Ar  183   5.312   5.637   1.449
    1   AR   Ar  184   3.988   5.526   0.246
    1   AR   Ar  185   3.396   4.066   4.352
    1   AR   Ar  186   2.932   6.437   3.349
    1   AR   Ar  187   4.080   6.743   3.912
    1   AR   Ar  188   3.489   1.144   1.856
    1   AR   Ar  189   6.060   2.638   6.668
    1   AR   Ar  190   1.190   0.185   4.447
    1   AR   Ar  191   4.017   5.992   4.765
    1   AR   Ar  192   3.831   3.422   6.208
    1   AR   Ar  193   3.079   6.180   1.909
    1   AR   Ar  194   4.687   6.098  -0.472
    1   AR   Ar  195   6.178   1.134   0.926
    1   AR   Ar  196   4.396   6.660   0.791
    1   AR   Ar  197   4.795   2.817   0.337
    1   AR   Ar  198   6.740   6.726   1.291
    1   AR   Ar  199   7.115   0.371   2.027
    1   AR   Ar  200   5.842   2.411  -0.006
    1   AR   Ar  201   6.637   5.630   3.010
    1   AR   Ar  202   4.989   0.216   4.121
    1   AR   Ar  203   0.423   6.779   3.601
    1   AR   Ar  204   4.555   5.206   7.883
    1   AR   Ar  205   5.527   1.998   1.944
    1   AR   Ar  206   5.716   0.231   6.198
    1   AR   Ar  207   0.244   4.035   4.663
    1   AR   Ar  208   0.838   5.904   3.770
    1   AR   Ar  209   5.575   1.937  -1.966
    1   AR   Ar  210   1.816   1.494   0.558
    1   AR   Ar  211   6.984   2.706   0.650
    1   AR   Ar  212   6.632   4.355   0.029
    1   AR   Ar  213   4.011   1.924   0.950
    1   AR   Ar  214   5.451   4.468   1.894
    1   AR   Ar  215   0.289   3.155   2.798
    1   AR   Ar  216   1.993   2.478  -0.383
    1   AR   Ar  217   5.111   2.256   4.406
    1   AR   Ar  218   4.792   2.293   5.464
    1   AR   Ar  219   4.459   4.217   2.348
    1   AR   Ar  220   4.504   4.812   1.398
    1   AR   Ar  221   6.921   6.073   3.932
    1   AR   Ar  222   5.022   6.492   6.168
    1   AR   Ar  223   6.937   1.261   5.941
    1   AR   Ar  224   5.395   1.216   4.713
    1   AR   Ar  225   5.852   2.754   2.602
    1   AR   Ar  226   2.361   3.578   4.018
    1   AR   Ar  227   1.440   2.223   4.053
    1   AR   Ar  228   6.212   1.098   2.234
    1   AR   Ar  229   5.664   3.997  -1.045
    1   AR   Ar  230   3.991   4.843   3.175
    1   AR   Ar  231   4.822   2.541   3.086
    1   AR   Ar  232   5.368   3.142   1.846
    1   AR   Ar  233   6.929   2.288   3.407
    1   AR   Ar  234   6.299   3.042   4.662
    1   AR   Ar  235   6.316   0.951   4.429
    1   AR   Ar  236   4.365   4.390   4.684
    1   AR   Ar  237   4.862   1.407   7.662
    1   AR   Ar  238   4.771   4.824   5.809
    1   AR   Ar  239   1.204   4.258  10.764
    1   AR   Ar  240   1.783   2.992   6.777
    1   AR   Ar  241   1.480   6.637   0.047
    1   AR   Ar  242   5.869   6.360   1.982
    1   AR   Ar  243   4.302   5.957   1.991
    1   AR   Ar  244   6.709   6.343   0.224
    1   AR   Ar  245   3.074   1.519   3.287
    1   AR   Ar  246   5.154   5.922  -1.507
    1   AR   Ar  247   7.054   3.565   1.384
    1   AR   Ar  248   5.450   5.299  -0.696
    1   AR   Ar  249   3.440   0.723   0.551
    1   AR   Ar  250   5.025   6.341   3.911
    1   AR   Ar  251   5.622   3.986   5.010
    1   AR   Ar  252   2.687   4.802   2.460
    1   AR   Ar  253   5.418   2.552   7.496
    1   AR   Ar  254   3.828   4.329  12.787
    1   AR   Ar  255   5.171   6.486   9.022
    1   AR   Ar  256   5.834   5.457   3.793
    7.12000  7.12000 12.00000
Argon-slab step 5590
  256
    1   AR   Ar    1   3.837   3.137  -2.193
    1   AR   Ar    2   5.782   7.087   1.086
    1   AR   Ar    3   4.455   3.363  -1.059
    1   AR   Ar    4   2.524   1.202   1.304
    1   AR   Ar    5   6.673   5.118  -0.517
    1   AR   Ar    6   1.145   1.085   2.365
    1   AR   Ar    7   6.250   4.539   3.063
    1   AR   Ar    8   6.283   3.315  -0.367
    1   AR   Ar    9   0.429   5.731   4.846
    1   AR   Ar   10   5.942   4.557   6.328
    1   AR   Ar   11   0.855   6.613   5.442
    1   AR   Ar   12   7.007   1.709   4.692
    1   AR   Ar   13   0.258   0.142   4.709
    1   AR   Ar   14   4.241   1.090   6.216
    1   AR   Ar   15   2.901   5.869   9.496
    1   AR   Ar   16   0.536   7.028   6.470
    1   AR   Ar   17   5.652   3.540   0.833
    1   AR   Ar   18   6.894   4.075  -2.520
    1   AR   Ar   19   5.135   5.271   0.346
    1   AR   Ar   20   6.870   2.946  -2.272
    1   AR   Ar   21   2.225   1.070   2.505
    1   AR   Ar   22   5.230   0.468   1.943
    1   AR   Ar   23   0.824   6.035   0.536
    1   AR   Ar   24   5.946   2.657   3.704
    1   AR   Ar   25   0.967   2.903   5.738
    1   AR   Ar   26   5.959   6.173   4.747
    1   AR   Ar   27   1.138   0.380   1.267
    1   AR   Ar   28   2.473   2.506   3.857
    1   AR   Ar   29   5.459   0.532   7.771
    1   AR   Ar   30   6.520   1.006   3.388
    1   AR   Ar   31   0.996   0.815   6.700
    1   AR   Ar   32   0.862   1.881   6.207
    1   AR   Ar   33   6.302   5.344   0.668
    1   AR   Ar   34   1.872   4.828   3.192
    1   AR   Ar   35   5.686   5.621   2.661
    1   AR   Ar   36   3.579   1.638  -3.793
    1   AR   Ar   37   4.674   3.685   1.389
    1   AR   Ar   38   6.183   4.716   4.408
    1   AR   Ar   39   0.345   2.925   4.430
    1   AR   Ar   40   0.441   3.912   2.253
    1   AR   Ar   41   0.665   1.713   3.317
    1   AR   Ar   42   5.354   5.506   5.426
    1   AR   Ar   43   7.105   3.232   6.724
    1   AR   Ar   44   1.240   3.895   3.163
    1   AR   Ar   45   1.977   3.595   5.549
    1   AR   Ar   46   6.335   5.347   7.024
    1   AR   Ar   47   2.551   3.664   6.663
    1   AR   Ar   48   0.162   3.562   7.833
    1   AR   Ar   49   0.433   1.383   0.351
    1   AR   Ar   50   2.648   4.255   0.159
    1   AR   Ar   51   5.352   3.776   2.681
    1   AR   Ar   52   5.245   3.338  -1.798
    1   AR   Ar   53   4.613   0.026   2.999
    1   AR   Ar   54   6.565   6.930   2.785
    1   AR   Ar   55   6.720   4.857   2.188
    1   AR   Ar   56   5.569   1.576   3.542
    1   AR   Ar   57   4.746   5.177   2.353
    1   AR   Ar   58   1.418   3.366   4.653
    1   AR   Ar   59   3.195   5.595   5.455
    1   AR   Ar   60   0.743   5.330   2.833
    1   AR   Ar   61   7.018   4.484   6.538
    1   AR   Ar   62   6.749   4.299   5.494
    1   AR   Ar   63   1.945   1.939   7.181
    1   AR   Ar   64   0.756   4.798   3.965
    1   AR   Ar   65   3.983   1.128   2.716
    1   AR   Ar   66   1.505   1.457   1.486
    1   AR   Ar   67   4.720   0.982  -0.363
    1   AR   Ar   68   6.737   0.684   0.007
    1   AR   Ar   69   2.640   2.753   0.695
    1   AR   Ar   70   0.282   1.453   1.555
    1   AR   Ar   71   3.219   0.460   3.060
    1   AR   Ar   72   4.570   1.123   1.434
    1   AR   Ar   73   3.193   0.334   4.108
    1   AR   Ar   74   0.993   0.481   3.299
    1   AR   Ar   75   2.140   0.680   5.387
    1   AR   Ar   76   2.754   0.064   1.662
    1   AR   Ar   77   1.278   5.459   5.951
    1   AR   Ar   78   7.109   5.555   6.083
    1   AR   Ar   79   3.493   6.882   5.171
    1   AR   Ar   80   3.633   4.660   6.047
    1   AR   Ar   81   1.652   6.282   1.937
    1   AR   Ar   82   0.105   5.098   1.152
    1   AR   Ar   83   0.967   3.183   1.754
    1   AR   Ar   84   1.056   4.663   0.995
    1   AR   Ar   85   0.288   3.155  -0.435
    1   AR   Ar   86   1.680   5.530   1.071
    1   AR   Ar   87   3.836   3.132   2.663
    1   AR   Ar   88   3.385   5.470   1.298
    1   AR   Ar   89   5.590   2.469   1.008
    1   AR   Ar   90   3.268   1.247   6.008
    1   AR   Ar   91   1.637   1.338   3.295
    1   AR   Ar   92   3.982   2.925   1.193
    1   AR   Ar   93   1.209   0.778   5.662
    1   AR   Ar   94   6.770   6.685   9.274
    1   AR   Ar   95   5.446   1.087   6.853
    1   AR   Ar   96   2.208   6.350   5.475
    1   AR   Ar   97   4.445   1.338  -1.648
    1   AR   Ar   98   1.612   4.307   4.086
    1   AR   Ar   99   6.116   6.401  -0.926
    1   AR   Ar  100   5.890   2.922  -2.924
    1   AR   Ar  101   4.077   5.958   3.206
    1   AR   Ar  102   4.367   1.988   2.237
    1   AR   Ar  103   1.671   4.264   1.838
    1   AR   Ar  104   3.243   0.322  -0.890
    1   AR   Ar  105   2.889   2.372   2.442
    1   AR   Ar  106   4.464   0.948   3.587
    1   AR   Ar  107   0.735   4.658   5.498
    1   AR   Ar  108   2.234   0.542   3.780
    1   AR   Ar  109   2.423   4.827   4.742
    1   AR   Ar  110   1.897   2.598   5.173
    1   AR   Ar  111   3.969   4.486   7.362
    1   AR   Ar  112   6.114   6.365   6.544
    1   AR   Ar  113   6.855   5.576  -1.549
    1   AR   Ar  114   2.242   0.141  -0.009
    1   AR   Ar  115   0.472   4.413  -0.341
    1   AR   Ar  116   5.474   1.266   0.306
    1   AR   Ar  117   0.242   4.209   3.323
    1   AR   Ar  118   2.057   6.531   3.787
    1   AR   Ar  119   1.877   3.307   2.438
    1   AR   Ar  120   2.090   7.102   2.647
    1   AR   Ar  121   5.024   3.801   7.179
    1   AR   Ar  122   3.143   5.422   3.440
    1   AR   Ar  123   3.779   2.293   5.142
    1   AR   Ar  124   0.820   5.473   1.808
    1   AR   Ar  125   5.964   3.787   3.733
    1   AR   Ar  126   0.287   0.654   7.631
    1   AR   Ar  127   4.628   3.694   5.663
    1   AR   Ar  128   0.737   3.727   6.265
    1   AR   Ar  129   1.668   5.617   4.321
    1   AR   Ar  130   5.014   0.692  -5.014
    1   AR   Ar  131   3.329   6.128  -0.316
    1   AR   Ar  132   2.078   2.709   1.473
    1   AR   Ar  133   4.110   0.438   4.553
    1   AR   Ar  134   2.836   1.449   4.494
    1   AR   Ar  135   6.336   7.084   5.154
    1   AR   Ar  136   5.431   6.607   2.939
    1   AR   Ar  137   2.231   4.830   5.859
    1   AR   Ar  138   5.895   1.656   6.138
    1   AR   Ar  139   5.976   2.038   4.955
    1   AR   Ar  140   4.930   6.309   4.942
    1   AR   Ar  141   3.363   5.216   4.424
    1   AR   Ar  142   4.071   5.395   9.007
    1   AR   Ar  143   5.834   6.403   7.593
    1   AR   Ar  144   0.024   2.620   5.468
    1   AR   Ar  145   4.976   4.783  -1.566
    1   AR   Ar  146   4.047   2.217   3.902
    1   AR   Ar  147   4.777   4.441  -0.262
    1   AR   Ar  148   2.388   5.864  -0.524
    1   AR   Ar  149   6.778   1.832  -0.263
    1   AR   Ar  150   1.264   2.325   2.262
    1   AR   Ar  151   2.976   3.572   1.995
    1   AR   Ar  152   0.921   1.490  -0.804
    1   AR   Ar  153   5.521   0.526   3.086
    1   AR   Ar  154   5.133   3.247   3.992
    1   AR   Ar  155   6.322   3.202   5.694
    1   AR   Ar  156   2.746   3.760   2.997
    1   AR   Ar  157   3.100   5.755   6.525
    1   AR   Ar  158   0.823   2.500   7.288
    1   AR   Ar  159   4.852   0.399   5.597
    1   AR   Ar  160   0.843   1.410   4.335
    1   AR   Ar  161   4.954   4.637   3.568
    1   AR   Ar  162   4.056   5.671  -1.165
    1   AR   Ar  163   6.275   3.783   2.159
    1   AR   Ar  164   2.054   5.907   2.947
    1   AR   Ar  165   3.312   4.068   1.076
    1   AR   Ar  166   2.899   3.420   4.936
    1   AR   Ar  167   6.200   6.918   3.759
    1   AR   Ar  168   5.576   4.142  -2.496
    1   AR   Ar  169   4.469   3.722   3.331
    1   AR   Ar  170   3.026   2.220   6.043
    1   AR   Ar  171   4.516   5.442   3.966
    1   AR   Ar  172   4.359   3.210   4.743
    1   AR   Ar  173   0.918   1.553   7.926
    1   AR   Ar  174   2.927   6.325   4.446
    1   AR   Ar  175   0.941   6.902   7.318
    1   AR   Ar  176   3.508   3.149   3.658
    1   AR   Ar  177   6.733   4.194  -1.321
    1   AR   Ar  178   2.139   6.537   0.884
    1   AR   Ar  179   3.124   6.311   0.700
    1   AR   Ar  180   5.184   6.243  -7.176
    1   AR   Ar  181   0.051   6.093   2.324
    1   AR   Ar  182   0.952   6.642   2.681
    1   AR   Ar  183   5.275   5.632   1.458
    1   AR   Ar  184   3.961   5.498   0.249
    1   AR   Ar  185   3.385   4.088   4.365
    1   AR   Ar  186   2.939   6.423   3.353
    1   AR   Ar  187   4.098   6.757   3.938
    1   AR   Ar  188   3.491   1.145   1.868
    1   AR   Ar  189   6.069   2.659   6.666
    1   AR   Ar  190   1.201   0.213   4.441
    1   AR   Ar  191   4.024   6.012   4.759
    1   AR   Ar  192   3.832   3.416   6.201
    1   AR   Ar  193   3.089   6.186   1.898
    1   AR   Ar  194   4.697   6.114  -0.474
    1   AR   Ar  195   6.175   1.150   0.928
    1   AR   Ar  196   4.426   6.674   0.796
    1   AR   Ar  197   4.781   2.836   0.343
    1   AR   Ar  198   6.739   6.724   1.318
    1   AR   Ar  199   7.098   0.361   2.047
    1   AR   Ar  200   5.839   2.388  -0.010
    1   AR   Ar  201   6.696   5.614   3.037
    1   AR   Ar  202   4.984   0.199   4.079
    1   AR   Ar  203   0.424   6.780   3.618
    1   AR   Ar  204   4.566   5.193   7.890
    1   AR   Ar  205   5.524   1.978   1.973
    1   AR   Ar  206   5.712   0.218   6.245
    1   AR   Ar  207   0.245   4.024   4.678
    1   AR   Ar  208   0.833   5.896   3.757
    1   AR   Ar  209   5.570   1.966  -1.957
    1   AR   Ar  210   1.833   1.526   0.535
    1   AR   Ar  211   6.965   2.708   0.660
    1   AR   Ar  212   6.618   4.342   0.059
    1   AR   Ar  213   4.013   1.906   0.959
    1   AR   Ar  214   5.454   4.479   1.857
    1   AR   Ar  215   0.263   3.149   2.782
    1   AR   Ar  216   1.992   2.480  -0.380
    1   AR   Ar  217   5.117   2.258   4.427
    1   AR   Ar  218   4.831   2.284   5.507
    1   AR   Ar  219   4.434   4.211   2.335
    1   AR   Ar  220   4.483   4.841   1.421
    1   AR   Ar  221   6.919   6.082   3.976
    1   AR   Ar  222   5.014   6.508   6.166
    1   AR   Ar  223   6.931   1.245   5.955
    1   AR   Ar  224   5.415   1.209   4.700
    1   AR   Ar  225   5.875   2.775   2.616
    1   AR   Ar  226   2.355   3.607   4.000
    1   AR   Ar  227   1.425   2.210   4.078
    1   AR   Ar  228   6.205   1.112   2.213
    1   AR   Ar  229   5.667   3.989  -1.051
    1   AR   Ar  230   3.986   4.844   3.173
    1   AR   Ar  231   4.804   2.549   3.095
    1   AR   Ar  232   5.388   3.149   1.868
    1   AR   Ar  233   6.938   2.260   3.399
    1   AR   Ar  234   6.339   3.060   4.663
    1   AR   Ar  235   6.299   0.972   4.434
    1   AR   Ar  236   4.371   4.401   4.632
    1   AR   Ar  237   4.875   1.380   7.671
    1   AR   Ar  238   4.786   4.802   5.799
    1   AR   Ar  239   1.203   4.275  10.748
    1   AR   Ar  240   1.759   2.985   6.777
    1   AR   Ar  241   1.468   6.637   0.029
    1   AR   Ar  242   5.863   6.392   1.963
    1   AR   Ar  243   4.314   5.957   1.981
    1   AR   Ar  244   6.697   6.346   0.217
    1   AR   Ar  245   3.054   1.544   3.266
    1   AR   Ar  246   5.182   5.887  -1.517
    1   AR   Ar  247   7.053   3.555   1.376
    1   AR   Ar  248   5.445   5.324  -0.686
    1   AR   Ar  249   3.437   0.735   0.543
    1   AR   Ar  250   5.030   6.321   3.908
    1   AR   Ar  251   5.632   3.971   5.017
    1   AR   Ar  252   2.695   4.798   2.443
    1   AR   Ar  253   5.440   2.564   7.455
    1   AR   Ar  254   3.798   4.364  12.792
    1   AR   Ar  255   5.175   6.435   9.032
    1   AR   Ar  256   5.848   5.457   3.807
    7.12000  7.12000 12.00000
Argon-slab step 5595
  256
    1   AR   Ar    1   3.819   3.105  -2.172
    1   AR   Ar    2   5.774   7.100   1.107
    1   AR   Ar    3   4.474   3.378  -1.069
    1   AR   Ar    4   2.529   1.193   1.332
    1   AR   Ar    5   6.695   5.143  -0.518
    1   AR   Ar    6   1.175   1.073   2.357
    1   AR   Ar    7   6.215   4.533   3.040
    1   AR   Ar    8   6.265   3.302  -0.341
    1   AR   Ar    9   0.425   5.728   4.842
    1   AR   Ar   10   5.914   4.570   6.319
    1   AR   Ar   11   0.845   6.594   5.437
    1   AR   Ar   12   7.011   1.712   4.690
    1   AR   Ar   13   0.248   0.143   4.702
    1   AR   Ar   14   4.289   1.107   6.222
    1   AR   Ar   15   2.896   5.844   9.473
    1   AR   Ar   16   0.528   7.027   6.468
    1   AR   Ar   17   5.650   3.516   0.821
    1   AR   Ar   18   6.904   4.046  -2.523
    1   AR   Ar   19   5.106   5.277   0.323
    1   AR   Ar   20   6.846   2.952  -2.262
    1   AR   Ar   21   2.215   1.041   2.505
    1   AR   Ar   22   5.266   0.471   1.936
    1   AR   Ar   23   0.787   6.025   0.509
    1   AR   Ar   24   5.970   2.642   3.695
    1   AR   Ar   25   0.977   2.937   5.730
    1   AR   Ar   26   5.975   6.164   4.736
    1   AR   Ar   27   1.142   0.420   1.267
    1   AR   Ar   28   2.505   2.512   3.849
    1   AR   Ar   29   5.460   0.515   7.747
    1   AR   Ar   30   6.493   1.005   3.412
    1   AR   Ar   31   0.986   0.841   6.680
    1   AR   Ar   32   0.870   1.859   6.196
    1   AR   Ar   33   6.291   5.355   0.659
    1   AR   Ar   34   1.880   4.835   3.175
    1   AR   Ar   35   5.691   5.616   2.682
    1   AR   Ar   36   3.566   1.614  -3.805
    1   AR   Ar   37   4.666   3.686   1.375
    1   AR   Ar   38   6.201   4.709   4.435
    1   AR   Ar   39   0.352   2.922   4.435
    1   AR   Ar   40   0.401   3.902   2.208
    1   AR   Ar   41   0.658   1.725   3.331
    1   AR   Ar   42   5.334   5.509   5.419
    1   AR   Ar   43   7.099   3.255   6.752
    1   AR   Ar   44   1.232   3.904   3.175
    1   AR   Ar   45   1.983   3.598   5.523
    1   AR   Ar   46   6.332   5.360   7.038
    1   AR   Ar   47   2.538   3.643   6.691
    1   AR   Ar   48   0.175   3.583   7.848
    1   AR   Ar   49   0.417   1.407   0.361
    1   AR   Ar   50   2.672   4.266   0.175
    1   AR   Ar   51   5.361   3.816   2.689
    1   AR   Ar   52   5.287   3.352  -1.826
    1   AR   Ar   53   4.555   7.119   3.007
    1   AR   Ar   54   6.575   6.943   2.767
    1   AR   Ar   55   6.726   4.867   2.171
    1   AR   Ar   56   5.564   1.540   3.582
    1   AR   Ar   57   4.797   5.169   2.359
    1   AR   Ar   58   1.424   3.355   4.665
    1   AR   Ar   59   3.217   5.575   5.446
    1   AR   Ar   60   0.737   5.350   2.835
    1   AR   Ar   61   7.039   4.484   6.531
    1   AR   Ar   62   6.744   4.272   5.489
    1   AR   Ar   63   1.948   1.933   7.205
    1   AR   Ar   64   0.774   4.789   3.954
    1   AR   Ar   65   3.991   1.101   2.700
    1   AR   Ar   66   1.514   1.493   1.477
    1   AR   Ar   67   4.713   0.989  -0.367
    1   AR   Ar   68   6.740   0.675   0.007
    1   AR   Ar   69   2.612   2.777   0.683
    1   AR   Ar   70   0.288   1.450   1.575
    1   AR   Ar   71   3.238   0.410   3.062
    1   AR   Ar   72   4.580   1.114   1.427
    1   AR   Ar   73   3.160   0.330   4.088
    1   AR   Ar   74   0.987   0.469   3.317
    1   AR   Ar   75   2.150   0.675   5.386
    1   AR   Ar   76   2.750   0.059   1.687
    1   AR   Ar   77   1.295   5.448   5.946
    1   AR   Ar   78   0.015   5.565   6.109
    1   AR   Ar   79   3.488   6.881   5.186
    1   AR   Ar   80   3.625   4.645   6.047
    1   AR   Ar   81   1.672   6.283   1.898
    1   AR   Ar   82   0.069   5.083   1.140
    1   AR   Ar   83   0.987   3.174   1.753
    1   AR   Ar   84   1.081   4.669   1.013
    1   AR   Ar   85   0.294   3.132  -0.445
    1   AR   Ar   86   1.655   5.515   1.076
    1   AR   Ar   87   3.840   3.114   2.668
    1   AR   Ar   88   3.393   5.482   1.334
    1   AR   Ar   89   5.609   2.453   1.031
    1   AR   Ar   90   3.288   1.244   6.000
    1   AR   Ar   91   1.625   1.341   3.272
    1   AR   Ar   92   3.978   2.943   1.169
    1   AR   Ar   93   1.183   0.776   5.667
    1   AR   Ar   94   6.795   6.697   9.280
    1   AR   Ar   95   5.447   1.082   6.843
    1   AR   Ar   96   2.192   6.392   5.489
    1   AR   Ar   97   4.436   1.353  -1.681
    1   AR   Ar   98   1.610   4.306   4.133
    1   AR   Ar   99   6.081   6.378  -0.909
    1   AR   Ar  100   5.912   2.923  -2.917
    1   AR   Ar  101   4.071   5.979   3.215
    1   AR   Ar  102   4.392   1.978   2.206
    1   AR   Ar  103   1.640   4.226   1.853
    1   AR   Ar  104   3.232   0.312  -0.910
    1   AR   Ar  105   2.874   2.380   2.467
    1   AR   Ar  106   4.420   0.958   3.616
    1   AR   Ar  107   0.715   4.686   5.513
    1   AR   Ar  108   2.265   0.563   3.802
    1   AR   Ar  109   2.431   4.815   4.736
    1   AR   Ar  110   1.895   2.589   5.191
    1   AR   Ar  111   4.032   4.494   7.360
    1   AR   Ar  112   6.131   6.369   6.535
    1   AR   Ar  113   6.862   5.600  -1.565
    1   AR   Ar  114   2.248   0.137  -0.015
    1   AR   Ar  115   0.451   4.413  -0.380
    1   AR   Ar  116   5.469   1.261   0.313
    1   AR   Ar  117   0.239   4.198   3.327
    1   AR   Ar  118   2.084   6.557   3.790
    1   AR   Ar  119   1.871   3.319   2.453
    1   AR   Ar  120   2.088   7.094   2.645
    1   AR   Ar  121   5.060   3.801   7.177
    1   AR   Ar  122   3.152   5.416   3.446
    1   AR   Ar  123   3.764   2.278   5.148
    1   AR   Ar  124   0.788   5.477   1.815
    1   AR   Ar  125   5.993   3.793   3.728
    1   AR   Ar  126   0.266   0.698   7.639
    1   AR   Ar  127   4.622   3.712   5.683
    1   AR   Ar  128   0.703   3.739   6.279
    1   AR   Ar  129   1.628   5.604   4.327
    1   AR   Ar  130   5.011   0.681  -5.007
    1   AR   Ar  131   3.328   6.098  -0.314
    1   AR   Ar  132   2.077   2.723   1.474
    1   AR   Ar  133   4.115   0.477   4.571
    1   AR   Ar  134   2.819   1.434   4.469
    1   AR   Ar  135   6.313   7.050   5.182
    1   AR   Ar  136   5.434   6.624   2.981
    1   AR   Ar  137   2.250   4.861   5.836
    1   AR   Ar  138   5.878   1.658   6.140
    1   AR   Ar  139   5.968   2.058   4.949
    1   AR   Ar  140   4.921   6.333   4.934
    1   AR   Ar  141   3.370   5.222   4.423
    1   AR   Ar  142   4.074   5.364   9.042
    1   AR   Ar  143   5.799   6.430   7.644
    1   AR   Ar  144   0.025   2.630   5.457
    1   AR   Ar  145   4.960   4.762  -1.598
    1   AR   Ar  146   4.049   2.207   3.913
    1   AR   Ar  147   4.769   4.403  -0.270
    1   AR   Ar  148   2.416   5.863  -0.490
    1   AR   Ar  149   6.762   1.862  -0.274
    1   AR   Ar  150   1.279   2.320   2.252
    1   AR   Ar  151   2.962   3.554   2.017
    1   AR   Ar  152   0.947   1.508  -0.771
    1   AR   Ar  153   5.514   0.540   3.105
    1   AR   Ar  154   5.154   3.260   4.002
    1   AR   Ar  155   6.297   3.213   5.715
    1   AR   Ar  156   2.757   3.759   2.984
    1   AR   Ar  157   3.138   5.750   6.535
    1   AR   Ar  158   0.820   2.491   7.325
    1   AR   Ar  159   4.846   0.377   5.608
    1   AR   Ar  160   0.821   1.417   4.345
    1   AR   Ar  161   4.942   4.631   3.570
    1   AR   Ar  162   4.068   5.667  -1.174
    1   AR   Ar  163   6.275   3.764   2.187
    1   AR   Ar  164   2.060   5.894   2.950
    1   AR   Ar  165   3.331   4.061   1.040
    1   AR   Ar  166   2.892   3.387   4.962
    1   AR   Ar  167   6.204   6.897   3.783
    1   AR   Ar  168   5.572   4.149  -2.498
    1   AR   Ar  169   4.484   3.740   3.333
    1   AR   Ar  170   3.032   2.272   6.017
    1   AR   Ar  171   4.515   5.433   3.973
    1   AR   Ar  172   4.352   3.208   4.754
    1   AR   Ar  173   0.902   1.554   7.920
    1   AR   Ar  174   2.919   6.342   4.445
    1   AR   Ar  175   0.980   6.895   7.326
    1   AR   Ar  176   3.521   3.149   3.646
    1   AR   Ar  177   6.745   4.177  -1.319
    1   AR   Ar  178   2.136   6.550   0.857
    1   AR   Ar  179   3.130   6.317   0.691
    1   AR   Ar  180   5.178   6.205  -7.164
    1   AR   Ar  181   0.062   6.092   2.322
    1   AR   Ar  182   0.911   6.639   2.693
    1   AR   Ar  183   5.238   5.626   1.466
    1   AR   Ar  184   3.936   5.469   0.254
    1   AR   Ar  185   3.369   4.114   4.370
    1   AR   Ar  186   2.957   6.416   3.351
    1   AR   Ar  187   4.108   6.766   3.960
    1   AR   Ar  188   3.487   1.146   1.868
    1   AR   Ar  189   6.084   2.681   6.658
    1   AR   Ar  190   1.226   0.242   4.432
    1   AR   Ar  191   4.017   6.027   4.750
    1   AR   Ar  192   3.824   3.408   6.198
    1   AR   Ar  193   3.098   6.162   1.909
    1   AR   Ar  194   4.707   6.129  -0.477
    1   AR   Ar  195   6.197   1.155   0.946
    1   AR   Ar  196   4.455   6.687   0.801
    1   AR   Ar  197   4.767   2.856   0.352
    1   AR   Ar  198   6.731   6.704   1.357
    1   AR   Ar  199   7.078   0.350   2.076
    1   AR   Ar  200   5.835   2.363  -0.015
    1   AR   Ar  201   6.751   5.590   3.074
    1   AR   Ar  202   4.989   0.186   4.037
    1   AR   Ar  203   0.421   6.795   3.633
    1   AR   Ar  204   4.579   5.182   7.900
    1   AR   Ar  205   5.519   1.956   2.002
    1   AR   Ar  206   5.709   0.207   6.291
    1   AR   Ar  207   0.248   4.011   4.691
    1   AR   Ar  208   0.832   5.879   3.744
    1   AR   Ar  209   5.565   1.995  -1.948
    1   AR   Ar  210   1.851   1.558   0.503
    1   AR   Ar  211   6.945   2.709   0.668
    1   AR   Ar  212   6.600   4.314   0.099
    1   AR   Ar  213   4.015   1.886   0.968
    1   AR   Ar  214   5.458   4.490   1.820
    1   AR   Ar  215   0.233   3.124   2.778
    1   AR   Ar  216   1.991   2.482  -0.374
    1   AR   Ar  217   5.119   2.260   4.443
    1   AR   Ar  218   4.871   2.275   5.550
    1   AR   Ar  219   4.427   4.204   2.354
    1   AR   Ar  220   4.459   4.869   1.438
    1   AR   Ar  221   6.908   6.086   4.026
    1   AR   Ar  222   5.007   6.523   6.163
    1   AR   Ar  223   6.932   1.278   5.971
    1   AR   Ar  224   5.412   1.202   4.691
    1   AR   Ar  225   5.907   2.791   2.644
    1   AR   Ar  226   2.353   3.634   3.981
    1   AR   Ar  227   1.412   2.203   4.101
    1   AR   Ar  228   6.198   1.125   2.194
    1   AR   Ar  229   5.721   4.002  -1.024
    1   AR   Ar  230   3.982   4.844   3.169
    1   AR   Ar  231   4.794   2.561   3.106
    1   AR   Ar  232   5.411   3.178   1.874
    1   AR   Ar  233   6.939   2.236   3.391
    1   AR   Ar  234   6.378   3.080   4.659
    1   AR   Ar  235   6.298   0.984   4.435
    1   AR   Ar  236   4.378   4.400   4.585
    1   AR   Ar  237   4.842   1.415   7.669
    1   AR   Ar  238   4.793   4.770   5.793
    1   AR   Ar  239   1.202   4.292  10.731
    1   AR   Ar  240   1.731   2.977   6.776
    1   AR   Ar  241   1.452   6.634   0.008
    1   AR   Ar  242   5.860   6.427   1.943
    1   AR   Ar  243   4.317   5.971   1.964
    1   AR   Ar  244   6.658   6.372   0.236
    1   AR   Ar  245   3.033   1.569   3.246
    1   AR   Ar  246   5.209   5.855  -1.529
    1   AR   Ar  247   7.050   3.545   1.368
    1   AR   Ar  248   5.471   5.350  -0.661
    1   AR   Ar  249   3.434   0.746   0.536
    1   AR   Ar  250   5.043   6.296   3.900
    1   AR   Ar  251   5.641   3.954   5.025
    1   AR   Ar  252   2.703   4.793   2.427
    1   AR   Ar  253   5.457   2.576   7.419
    1   AR   Ar  254   3.768   4.399  12.797
    1   AR   Ar  255   5.179   6.384   9.041
    1   AR   Ar  256   5.859   5.463   3.816
    7.12000  7.12000 12.00000
Argon-slab step 5600
  256
    1   AR   Ar    1   3.802   3.074  -2.149
    1   AR   Ar    2   5.764   7.116   1.124
    1   AR   Ar    3   4.492   3.394  -1.079
    1   AR   Ar    4   2.535   1.181   1.361
    1   AR   Ar    5   6.717   5.173  -0.521
    1   AR   Ar    6   1.198   1.058   2.350
    1   AR   Ar    7   6.179   4.530   3.016
    1   AR   Ar    8   6.244   3.317  -0.328
    1   AR   Ar    9   0.423   5.722   4.838
    1   AR   Ar   10   5.886   4.583   6.309
    1   AR   Ar   11   0.835   6.576   5.432
    1   AR   Ar   12   7.012   1.721   4.690
    1   AR   Ar   13   0.231   0.143   4.696
    1   AR   Ar   14   4.342   1.125   6.228
    1   AR   Ar   15   2.892   5.819   9.449
    1   AR   Ar   16   0.527   7.033   6.465
    1   AR   Ar   17   5.649   3.493   0.808
    1   AR   Ar   18   6.913   4.016  -2.525
    1   AR   Ar   19   5.076   5.284   0.304
    1   AR   Ar   20   6.821   2.959  -2.252
    1   AR   Ar   21   2.214   1.011   2.500
    1   AR   Ar   22   5.303   0.474   1.932
    1   AR   Ar   23   0.762   6.020   0.510
    1   AR   Ar   24   5.993   2.625   3.689
    1   AR   Ar   25   0.993   2.967   5.718
    1   AR   Ar   26   5.991   6.153   4.721
    1   AR   Ar   27   1.147   0.462   1.267
    1   AR   Ar   28   2.525   2.500   3.854
    1   AR   Ar   29   5.462   0.495   7.724
    1   AR   Ar   30   6.469   1.004   3.432
    1   AR   Ar   31   0.974   0.869   6.667
    1   AR   Ar   32   0.877   1.837   6.185
    1   AR   Ar   33   6.269   5.367   0.643
    1   AR   Ar   34   1.886   4.841   3.159
    1   AR   Ar   35   5.699   5.610   2.705
    1   AR   Ar   36   3.554   1.591  -3.823
    1   AR   Ar   37   4.653   3.686   1.364
    1   AR   Ar   38   6.185   4.686   4.462
    1   AR   Ar   39   0.373   2.907   4.444
    1   AR   Ar   40   0.365   3.910   2.162
    1   AR   Ar   41   0.659   1.733   3.343
    1   AR   Ar   42   5.323   5.517   5.409
    1   AR   Ar   43   7.086   3.271   6.784
    1   AR   Ar   44   1.217   3.915   3.162
    1   AR   Ar   45   1.989   3.604   5.503
    1   AR   Ar   46   6.330   5.372   7.050
    1   AR   Ar   47   2.528   3.625   6.717
    1   AR   Ar   48   0.190   3.603   7.862
    1   AR   Ar   49   0.402   1.430   0.373
    1   AR   Ar   50   2.695   4.277   0.191
    1   AR   Ar   51   5.369   3.858   2.705
    1   AR   Ar   52   5.331   3.364  -1.854
    1   AR   Ar   53   4.489   7.095   3.015
    1   AR   Ar   54   6.579   6.951   2.755
    1   AR   Ar   55   6.734   4.878   2.153
    1   AR   Ar   56   5.557   1.507   3.623
    1   AR   Ar   57   4.851   5.160   2.375
    1   AR   Ar   58   1.426   3.346   4.673
    1   AR   Ar   59   3.238   5.555   5.437
    1   AR   Ar   60   0.731   5.367   2.840
    1   AR   Ar   61   7.059   4.485   6.524
    1   AR   Ar   62   6.736   4.246   5.486
    1   AR   Ar   63   1.952   1.904   7.218
    1   AR   Ar   64   0.793   4.793   3.952
    1   AR   Ar   65   4.006   1.073   2.692
    1   AR   Ar   66   1.520   1.533   1.471
    1   AR   Ar   67   4.699   1.000  -0.398
    1   AR   Ar   68   6.726   0.680   0.021
    1   AR   Ar   69   2.593   2.736   0.703
    1   AR   Ar   70   0.295   1.445   1.596
    1   AR   Ar   71   3.230   0.392   3.063
    1   AR   Ar   72   4.590   1.105   1.421
    1   AR   Ar   73   3.142   0.320   4.077
    1   AR   Ar   74   0.985   0.461   3.333
    1   AR   Ar   75   2.168   0.668   5.381
    1   AR   Ar   76   2.744   0.055   1.713
    1   AR   Ar   77   1.314   5.440   5.940
    1   AR   Ar   78   0.041   5.573   6.135
    1   AR   Ar   79   3.484   6.881   5.201
    1   AR   Ar   80   3.618   4.629   6.047
    1   AR   Ar   81   1.692   6.285   1.859
    1   AR   Ar   82   0.031   5.067   1.154
    1   AR   Ar   83   1.011   3.172   1.749
    1   AR   Ar   84   1.083   4.649   1.034
    1   AR   Ar   85   0.299   3.108  -0.455
    1   AR   Ar   86   1.650   5.534   1.071
    1   AR   Ar   87   3.845   3.095   2.668
    1   AR   Ar   88   3.411   5.473   1.353
    1   AR   Ar   89   5.628   2.436   1.055
    1   AR   Ar   90   3.304   1.238   5.989
    1   AR   Ar   91   1.616   1.347   3.259
    1   AR   Ar   92   3.971   2.959   1.144
    1   AR   Ar   93   1.148   0.774   5.670
    1   AR   Ar   94   6.820   6.709   9.287
    1   AR   Ar   95   5.443   1.074   6.837
    1   AR   Ar   96   2.176   6.433   5.502
    1   AR   Ar   97   4.428   1.370  -1.714
    1   AR   Ar   98   1.630   4.322   4.136
    1   AR   Ar   99   6.045   6.352  -0.892
    1   AR   Ar  100   5.935   2.926  -2.908
    1   AR   Ar  101   4.065   6.002   3.219
    1   AR   Ar  102   4.418   1.969   2.173
    1   AR   Ar  103   1.609   4.187   1.870
    1   AR   Ar  104   3.220   0.301  -0.929
    1   AR   Ar  105   2.858   2.390   2.492
    1   AR   Ar  106   4.379   0.970   3.649
    1   AR   Ar  107   0.691   4.712   5.526
    1   AR   Ar  108   2.281   0.589   3.818
    1   AR   Ar  109   2.439   4.801   4.730
    1   AR   Ar  110   1.896   2.576   5.210
    1   AR   Ar  111   4.092   4.498   7.355
    1   AR   Ar  112   6.147   6.352   6.549
    1   AR   Ar  113   6.868   5.624  -1.579
    1   AR   Ar  114   2.273   0.117  -0.024
    1   AR   Ar  115   0.430   4.412  -0.419
    1   AR   Ar  116   5.477   1.256   0.323
    1   AR   Ar  117   0.228   4.184   3.328
    1   AR   Ar  118   2.099   6.588   3.798
    1   AR   Ar  119   1.866   3.329   2.468
    1   AR   Ar  120   2.087   7.084   2.644
    1   AR   Ar  121   5.096   3.801   7.174
    1   AR   Ar  122   3.156   5.407   3.447
    1   AR   Ar  123   3.750   2.264   5.154
    1   AR   Ar  124   0.759   5.481   1.818
    1   AR   Ar  125   6.024   3.799   3.726
    1   AR   Ar  126   0.246   0.741   7.645
    1   AR   Ar  127   4.625   3.732   5.698
    1   AR   Ar  128   0.676   3.763   6.291
    1   AR   Ar  129   1.593   5.588   4.334
    1   AR   Ar  130   4.998   0.654  -4.974
    1   AR   Ar  131   3.345   6.075  -0.314
    1   AR   Ar  132   2.063   2.735   1.496
    1   AR   Ar  133   4.124   0.519   4.596
    1   AR   Ar  134   2.801   1.419   4.442
    1   AR   Ar  135   6.290   7.020   5.210
    1   AR   Ar  136   5.440   6.632   3.004
    1   AR   Ar  137   2.270   4.891   5.813
    1   AR   Ar  138   5.870   1.638   6.197
    1   AR   Ar  139   5.976   2.096   4.938
    1   AR   Ar  140   4.921   6.368   4.930
    1   AR   Ar  141   3.382   5.227   4.425
    1   AR   Ar  142   4.071   5.348   9.068
    1   AR   Ar  143   5.765   6.458   7.694
    1   AR   Ar  144   0.023   2.637   5.445
    1   AR   Ar  145   4.945   4.740  -1.629
    1   AR   Ar  146   4.052   2.196   3.925
    1   AR   Ar  147   4.761   4.364  -0.279
    1   AR   Ar  148   2.425   5.858  -0.457
    1   AR   Ar  149   6.747   1.893  -0.285
    1   AR   Ar  150   1.295   2.309   2.245
    1   AR   Ar  151   2.950   3.534   2.032
    1   AR   Ar  152   0.971   1.526  -0.737
    1   AR   Ar  153   5.509   0.557   3.124
    1   AR   Ar  154   5.172   3.271   4.015
    1   AR   Ar  155   6.269   3.226   5.738
    1   AR   Ar  156   2.768   3.759   2.977
    1   AR   Ar  157   3.175   5.743   6.545
    1   AR   Ar  158   0.818   2.483   7.360
    1   AR   Ar  159   4.841   0.354   5.617
    1   AR   Ar  160   0.799   1.415   4.357
    1   AR   Ar  161   4.940   4.620   3.570
    1   AR   Ar  162   4.080   5.661  -1.185
    1   AR   Ar  163   6.280   3.746   2.215
    1   AR   Ar  164   2.065   5.880   2.950
    1   AR   Ar  165   3.352   4.053   1.006
    1   AR   Ar  166   2.884   3.350   4.988
    1   AR   Ar  167   6.205   6.878   3.809
    1   AR   Ar  168   5.569   4.156  -2.500
    1   AR   Ar  169   4.494   3.753   3.335
    1   AR   Ar  170   3.037   2.328   5.990
    1   AR   Ar  171   4.508   5.423   3.989
    1   AR   Ar  172   4.345   3.201   4.763
    1   AR   Ar  173   0.887   1.556   7.913
    1   AR   Ar  174   2.910   6.353   4.437
    1   AR   Ar  175   0.990   6.923   7.324
    1   AR   Ar  176   3.532   3.151   3.640
    1   AR   Ar  177   6.759   4.160  -1.316
    1   AR   Ar  178   2.131   6.617   0.869
    1   AR   Ar  179   3.139   6.325   0.685
    1   AR   Ar  180   5.175   6.185  -7.148
    1   AR   Ar  181   0.074   6.097   2.312
    1   AR   Ar  182   0.873   6.636   2.705
    1   AR   Ar  183   5.203   5.620   1.474
    1   AR   Ar  184   3.915   5.438   0.263
    1   AR   Ar  185   3.353   4.141   4.371
    1   AR   Ar  186   2.987   6.415   3.343
    1   AR   Ar  187   4.109   6.773   3.979
    1   AR   Ar  188   3.476   1.148   1.856
    1   AR   Ar  189   6.105   2.704   6.641
    1   AR   Ar  190   1.257   0.272   4.420
    1   AR   Ar  191   3.995   6.038   4.739
    1   AR   Ar  192   3.808   3.398   6.200
    1   AR   Ar  193   3.099   6.158   1.936
    1   AR   Ar  194   4.710   6.136  -0.492
    1   AR   Ar  195   6.233   1.157   0.974
    1   AR   Ar  196   4.484   6.698   0.806
    1   AR   Ar  197   4.754   2.875   0.361
    1   AR   Ar  198   6.726   6.682   1.397
    1   AR   Ar  199   7.064   0.345   2.099
    1   AR   Ar  200   5.830   2.337  -0.020
    1   AR   Ar  201   6.802   5.561   3.116
    1   AR   Ar  202   5.004   0.178   3.997
    1   AR   Ar  203   0.414   6.818   3.648
    1   AR   Ar  204   4.594   5.175   7.912
    1   AR   Ar  205   5.523   1.923   2.016
    1   AR   Ar  206   5.708   0.198   6.336
    1   AR   Ar  207   0.253   3.998   4.700
    1   AR   Ar  208   0.832   5.859   3.729
    1   AR   Ar  209   5.558   2.025  -1.939
    1   AR   Ar  210   1.870   1.592   0.466
    1   AR   Ar  211   6.924   2.709   0.673
    1   AR   Ar  212   6.579   4.281   0.144
    1   AR   Ar  213   4.015   1.866   0.976
    1   AR   Ar  214   5.458   4.505   1.816
    1   AR   Ar  215   0.201   3.088   2.783
    1   AR   Ar  216   1.990   2.482  -0.368
    1   AR   Ar  217   5.114   2.263   4.454
    1   AR   Ar  218   4.889   2.267   5.570
    1   AR   Ar  219   4.417   4.193   2.370
    1   AR   Ar  220   4.461   4.877   1.418
    1   AR   Ar  221   6.893   6.087   4.078
    1   AR   Ar  222   4.999   6.536   6.158
    1   AR   Ar  223   6.947   1.232   5.991
    1   AR   Ar  224   5.385   1.197   4.687
    1   AR   Ar  225   5.925   2.804   2.669
    1   AR   Ar  226   2.356   3.655   3.964
    1   AR   Ar  227   1.403   2.202   4.123
    1   AR   Ar  228   6.176   1.142   2.175
    1   AR   Ar  229   5.773   4.016  -0.996
    1   AR   Ar  230   3.979   4.841   3.164
    1   AR   Ar  231   4.787   2.574   3.118
    1   AR   Ar  232   5.431   3.205   1.871
    1   AR   Ar  233   6.931   2.219   3.386
    1   AR   Ar  234   6.418   3.099   4.654
    1   AR   Ar  235   6.316   0.989   4.432
    1   AR   Ar  236   4.387   4.400   4.537
    1   AR   Ar  237   4.807   1.452   7.668
    1   AR   Ar  238   4.794   4.730   5.792
    1   AR   Ar  239   1.201   4.310  10.715
    1   AR   Ar  240   1.698   2.965   6.773
    1   AR   Ar  241   1.433   6.628  -0.016
    1   AR   Ar  242   5.856   6.462   1.926
    1   AR   Ar  243   4.315   5.990   1.944
    1   AR   Ar  244   6.620   6.398   0.255
    1   AR   Ar  245   3.011   1.592   3.227
    1   AR   Ar  246   5.234   5.825  -1.543
    1   AR   Ar  247   7.045   3.535   1.355
    1   AR   Ar  248   5.500   5.372  -0.634
    1   AR   Ar  249   3.425   0.741   0.526
    1   AR   Ar  250   5.064   6.269   3.889
    1   AR   Ar  251   5.650   3.936   5.033
    1   AR   Ar  252   2.711   4.788   2.411
    1   AR   Ar  253   5.467   2.586   7.391
    1   AR   Ar  254   3.738   4.434  12.802
    1   AR   Ar  255   5.183   6.332   9.050
    1   AR   Ar  256   5.868   5.474   3.820
    7.12000  7.12000 12.00000
Argon-slab step 5605
  256
    1   AR   Ar    1   3.786   3.043  -2.125
    1   AR   Ar    2   5.756   0.014   1.135
    1   AR   Ar    3   4.512   3.410  -1.089
    1   AR   Ar    4   2.541   1.169   1.388
    1   AR   Ar    5   6.736   5.202  -0.525
    1   AR   Ar    6   1.212   1.041   2.341
    1   AR   Ar    7   6.144   4.532   2.991
    1   AR   Ar    8   6.225   3.338  -0.317
    1   AR   Ar    9   0.423   5.715   4.835
    1   AR   Ar   10   5.858   4.596   6.298
    1   AR   Ar   11   0.826   6.559   5.426
    1   AR   Ar   12   7.010   1.735   4.693
    1   AR   Ar   13   0.210   0.142   4.690
    1   AR   Ar   14   4.400   1.143   6.236
    1   AR   Ar   15   2.888   5.794   9.424
    1   AR   Ar   16   0.519   7.039   6.449
    1   AR   Ar   17   5.648   3.471   0.794
    1   AR   Ar   18   6.920   3.987  -2.525
    1   AR   Ar   19   5.044   5.291   0.291
    1   AR   Ar   20   6.795   2.965  -2.241
    1   AR   Ar   21   2.224   0.981   2.490
    1   AR   Ar   22   5.340   0.476   1.934
    1   AR   Ar   23   0.734   6.011   0.514
    1   AR   Ar   24   6.014   2.608   3.689
    1   AR   Ar   25   1.014   2.993   5.705
    1   AR   Ar   26   6.005   6.137   4.703
    1   AR   Ar   27   1.152   0.505   1.268
    1   AR   Ar   28   2.527   2.462   3.882
    1   AR   Ar   29   5.464   0.473   7.702
    1   AR   Ar   30   6.449   1.001   3.443
    1   AR   Ar   31   0.961   0.887   6.665
    1   AR   Ar   32   0.884   1.818   6.172
    1   AR   Ar   33   6.244   5.379   0.625
    1   AR   Ar   34   1.890   4.846   3.144
    1   AR   Ar   35   5.715   5.605   2.729
    1   AR   Ar   36   3.542   1.569  -3.840
    1   AR   Ar   37   4.633   3.683   1.356
    1   AR   Ar   38   6.161   4.658   4.490
    1   AR   Ar   39   0.395   2.891   4.451
    1   AR   Ar   40   0.332   3.930   2.125
    1   AR   Ar   41   0.668   1.735   3.352
    1   AR   Ar   42   5.317   5.528   5.398
    1   AR   Ar   43   7.065   3.283   6.821
    1   AR   Ar   44   1.206   3.925   3.148
    1   AR   Ar   45   1.994   3.615   5.489
    1   AR   Ar   46   6.328   5.383   7.061
    1   AR   Ar   47   2.520   3.609   6.741
    1   AR   Ar   48   0.204   3.623   7.874
    1   AR   Ar   49   0.387   1.454   0.385
    1   AR   Ar   50   2.717   4.289   0.205
    1   AR   Ar   51   5.376   3.900   2.727
    1   AR   Ar   52   5.374   3.373  -1.879
    1   AR   Ar   53   4.419   7.074   3.022
    1   AR   Ar   54   6.574   6.949   2.754
    1   AR   Ar   55   6.743   4.889   2.136
    1   AR   Ar   56   5.547   1.477   3.667
    1   AR   Ar   57   4.899   5.150   2.398
    1   AR   Ar   58   1.424   3.338   4.674
    1   AR   Ar   59   3.258   5.536   5.428
    1   AR   Ar   60   0.725   5.379   2.845
    1   AR   Ar   61   7.077   4.489   6.517
    1   AR   Ar   62   6.725   4.220   5.485
    1   AR   Ar   63   1.953   1.876   7.230
    1   AR   Ar   64   0.802   4.806   3.949
    1   AR   Ar   65   4.020   1.050   2.689
    1   AR   Ar   66   1.525   1.574   1.464
    1   AR   Ar   67   4.684   1.011  -0.429
    1   AR   Ar   68   6.710   0.681   0.035
    1   AR   Ar   69   2.587   2.695   0.705
    1   AR   Ar   70   0.303   1.438   1.617
    1   AR   Ar   71   3.210   0.399   3.058
    1   AR   Ar   72   4.600   1.095   1.416
    1   AR   Ar   73   3.158   0.299   4.105
    1   AR   Ar   74   0.972   0.480   3.335
    1   AR   Ar   75   2.189   0.661   5.375
    1   AR   Ar   76   2.738   0.054   1.738
    1   AR   Ar   77   1.333   5.437   5.935
    1   AR   Ar   78   0.068   5.582   6.159
    1   AR   Ar   79   3.480   6.883   5.215
    1   AR   Ar   80   3.610   4.613   6.047
    1   AR   Ar   81   1.688   6.293   1.884
    1   AR   Ar   82   7.114   5.049   1.166
    1   AR   Ar   83   1.034   3.174   1.742
    1   AR   Ar   84   1.075   4.621   1.056
    1   AR   Ar   85   0.302   3.085  -0.463
    1   AR   Ar   86   1.647   5.556   1.065
    1   AR   Ar   87   3.852   3.077   2.661
    1   AR   Ar   88   3.438   5.447   1.360
    1   AR   Ar   89   5.647   2.418   1.079
    1   AR   Ar   90   3.318   1.232   5.977
    1   AR   Ar   91   1.611   1.356   3.254
    1   AR   Ar   92   3.990   2.983   1.136
    1   AR   Ar   93   1.111   0.771   5.666
    1   AR   Ar   94   6.844   6.720   9.293
    1   AR   Ar   95   5.429   1.060   6.842
    1   AR   Ar   96   2.161   6.474   5.513
    1   AR   Ar   97   4.421   1.386  -1.746
    1   AR   Ar   98   1.658   4.343   4.130
    1   AR   Ar   99   6.010   6.324  -0.874
    1   AR   Ar  100   5.957   2.930  -2.898
    1   AR   Ar  101   4.059   6.027   3.220
    1   AR   Ar  102   4.442   1.961   2.139
    1   AR   Ar  103   1.578   4.148   1.888
    1   AR   Ar  104   3.216   0.297  -0.939
    1   AR   Ar  105   2.842   2.402   2.515
    1   AR   Ar  106   4.338   0.984   3.684
    1   AR   Ar  107   0.664   4.734   5.538
    1   AR   Ar  108   2.272   0.622   3.824
    1   AR   Ar  109   2.446   4.787   4.723
    1   AR   Ar  110   1.898   2.557   5.229
    1   AR   Ar  111   4.149   4.496   7.344
    1   AR   Ar  112   6.163   6.321   6.579
    1   AR   Ar  113   6.873   5.647  -1.592
    1   AR   Ar  114   2.304   0.100  -0.033
    1   AR   Ar  115   0.407   4.411  -0.459
    1   AR   Ar  116   5.480   1.253   0.328
    1   AR   Ar  117   0.209   4.169   3.325
    1   AR   Ar  118   2.105   6.623   3.805
    1   AR   Ar  119   1.883   3.333   2.477
    1   AR   Ar  120   2.084   7.070   2.645
    1   AR   Ar  121   5.133   3.801   7.170
    1   AR   Ar  122   3.153   5.390   3.449
    1   AR   Ar  123   3.736   2.251   5.157
    1   AR   Ar  124   0.734   5.485   1.814
    1   AR   Ar  125   6.058   3.802   3.726
    1   AR   Ar  126   0.226   0.782   7.649
    1   AR   Ar  127   4.632   3.748   5.708
    1   AR   Ar  128   0.657   3.794   6.299
    1   AR   Ar  129   1.564   5.568   4.347
    1   AR   Ar  130   4.984   0.626  -4.940
    1   AR   Ar  131   3.380   6.059  -0.317
    1   AR   Ar  132   2.038   2.747   1.536
    1   AR   Ar  133   4.133   0.563   4.626
    1   AR   Ar  134   2.784   1.403   4.414
    1   AR   Ar  135   6.269   6.994   5.241
    1   AR   Ar  136   5.425   6.622   2.958
    1   AR   Ar  137   2.291   4.921   5.790
    1   AR   Ar  138   5.868   1.664   6.199
    1   AR   Ar  139   5.991   2.133   4.933
    1   AR   Ar  140   4.928   6.410   4.929
    1   AR   Ar  141   3.396   5.232   4.430
    1   AR   Ar  142   4.042   5.394   9.062
    1   AR   Ar  143   5.730   6.485   7.743
    1   AR   Ar  144   0.018   2.641   5.432
    1   AR   Ar  145   4.931   4.717  -1.658
    1   AR   Ar  146   4.069   2.188   3.939
    1   AR   Ar  147   4.755   4.326  -0.289
    1   AR   Ar  148   2.399   5.853  -0.444
    1   AR   Ar  149   6.735   1.923  -0.295
    1   AR   Ar  150   1.291   2.280   2.216
    1   AR   Ar  151   2.939   3.510   2.035
    1   AR   Ar  152   0.996   1.544  -0.701
    1   AR   Ar  153   5.492   0.564   3.128
    1   AR   Ar  154   5.187   3.282   4.029
    1   AR   Ar  155   6.242   3.242   5.759
    1   AR   Ar  156   2.778   3.762   2.980
    1   AR   Ar  157   3.212   5.736   6.554
    1   AR   Ar  158   0.816   2.477   7.393
    1   AR   Ar  159   4.836   0.332   5.623
    1   AR   Ar  160   0.781   1.403   4.369
    1   AR   Ar  161   4.950   4.609   3.566
    1   AR   Ar  162   4.090   5.654  -1.196
    1   AR   Ar  163   6.293   3.730   2.241
    1   AR   Ar  164   2.067   5.875   2.946
    1   AR   Ar  165   3.344   4.027   0.995
    1   AR   Ar  166   2.878   3.311   5.013
    1   AR   Ar  167   6.205   6.859   3.835
    1   AR   Ar  168   5.567   4.166  -2.502
    1   AR   Ar  169   4.498   3.758   3.338
    1   AR   Ar  170   3.041   2.386   5.963
    1   AR   Ar  171   4.494   5.414   4.011
    1   AR   Ar  172   4.341   3.184   4.771
    1   AR   Ar  173   0.874   1.559   7.906
    1   AR   Ar  174   2.898   6.348   4.402
    1   AR   Ar  175   0.982   6.976   7.318
    1   AR   Ar  176   3.541   3.155   3.641
    1   AR   Ar  177   6.776   4.144  -1.313
    1   AR   Ar  178   2.123   6.683   0.884
    1   AR   Ar  179   3.151   6.332   0.682
    1   AR   Ar  180   5.173   6.169  -7.131
    1   AR   Ar  181   0.080   6.104   2.298
    1   AR   Ar  182   0.840   6.633   2.716
    1   AR   Ar  183   5.174   5.616   1.479
    1   AR   Ar  184   3.897   5.406   0.275
    1   AR   Ar  185   3.334   4.166   4.370
    1   AR   Ar  186   3.022   6.420   3.329
    1   AR   Ar  187   4.103   6.778   3.998
    1   AR   Ar  188   3.461   1.152   1.836
    1   AR   Ar  189   6.133   2.726   6.618
    1   AR   Ar  190   1.291   0.302   4.406
    1   AR   Ar  191   3.967   6.046   4.727
    1   AR   Ar  192   3.785   3.385   6.204
    1   AR   Ar  193   3.093   6.168   1.978
    1   AR   Ar  194   4.715   6.144  -0.504
    1   AR   Ar  195   6.277   1.158   1.010
    1   AR   Ar  196   4.513   6.707   0.812
    1   AR   Ar  197   4.744   2.895   0.372
    1   AR   Ar  198   6.713   6.663   1.390
    1   AR   Ar  199   7.027   0.348   2.093
    1   AR   Ar  200   5.821   2.313  -0.023
    1   AR   Ar  201   6.850   5.530   3.161
    1   AR   Ar  202   5.025   0.173   3.960
    1   AR   Ar  203   0.399   6.840   3.668
    1   AR   Ar  204   4.625   5.172   7.936
    1   AR   Ar  205   5.531   1.886   2.021
    1   AR   Ar  206   5.709   0.188   6.378
    1   AR   Ar  207   0.262   3.984   4.705
    1   AR   Ar  208   0.827   5.842   3.715
    1   AR   Ar  209   5.552   2.057  -1.930
    1   AR   Ar  210   1.891   1.627   0.427
    1   AR   Ar  211   6.901   2.707   0.676
    1   AR   Ar  212   6.558   4.249   0.189
    1   AR   Ar  213   4.013   1.847   0.985
    1   AR   Ar  214   5.460   4.519   1.810
    1   AR   Ar  215   0.168   3.050   2.789
    1   AR   Ar  216   1.989   2.482  -0.359
    1   AR   Ar  217   5.101   2.268   4.459
    1   AR   Ar  218   4.875   2.262   5.556
    1   AR   Ar  219   4.405   4.181   2.382
    1   AR   Ar  220   4.454   4.858   1.372
    1   AR   Ar  221   6.875   6.086   4.130
    1   AR   Ar  222   4.991   6.546   6.151
    1   AR   Ar  223   6.963   1.186   6.010
    1   AR   Ar  224   5.344   1.193   4.685
    1   AR   Ar  225   5.932   2.813   2.689
    1   AR   Ar  226   2.365   3.669   3.947
    1   AR   Ar  227   1.398   2.207   4.144
    1   AR   Ar  228   6.134   1.161   2.159
    1   AR   Ar  229   5.819   4.032  -0.968
    1   AR   Ar  230   3.978   4.836   3.157
    1   AR   Ar  231   4.780   2.589   3.131
    1   AR   Ar  232   5.449   3.230   1.863
    1   AR   Ar  233   6.911   2.206   3.381
    1   AR   Ar  234   6.456   3.120   4.646
    1   AR   Ar  235   6.341   0.987   4.433
    1   AR   Ar  236   4.399   4.401   4.490
    1   AR   Ar  237   4.774   1.490   7.666
    1   AR   Ar  238   4.793   4.692   5.793
    1   AR   Ar  239   1.200   4.327  10.699
    1   AR   Ar  240   1.662   2.952   6.770
    1   AR   Ar  241   1.414   6.622  -0.041
    1   AR   Ar  242   5.850   6.494   1.916
    1   AR   Ar  243   4.309   6.011   1.925
    1   AR   Ar  244   6.581   6.423   0.275
    1   AR   Ar  245   2.990   1.613   3.208
    1   AR   Ar  246   5.258   5.796  -1.558
    1   AR   Ar  247   7.035   3.522   1.336
    1   AR   Ar  248   5.534   5.392  -0.610
    1   AR   Ar  249   3.412   0.723   0.513
    1   AR   Ar  250   5.088   6.240   3.878
    1   AR   Ar  251   5.658   3.917   5.042
    1   AR   Ar  252   2.720   4.782   2.396
    1   AR   Ar  253   5.469   2.595   7.371
    1   AR   Ar  254   3.707   4.469  12.807
    1   AR   Ar  255   5.186   6.280   9.058
    1   AR   Ar  256   5.876   5.486   3.822
    7.12000  7.12000 12.00000
Argon-slab step 5610
  256
    1   AR   Ar    1   3.771   3.012  -2.101
    1   AR   Ar    2   5.749   0.034   1.134
    1   AR   Ar    3   4.533   3.428  -1.099
    1   AR   Ar    4   2.541   1.156   1.412
    1   AR   Ar    5   6.754   5.232  -0.528
    1   AR   Ar    6   1.228   1.031   2.309
    1   AR   Ar    7   6.133   4.530   3.020
    1   AR   Ar    8   6.208   3.354  -0.302
    1   AR   Ar    9   0.427   5.705   4.835
    1   AR   Ar   10   5.858   4.589   6.304
    1   AR   Ar   11   0.818   6.543   5.421
    1   AR   Ar   12   7.004   1.758   4.700
    1   AR   Ar   13   0.189   0.141   4.685
    1   AR   Ar   14   4.458   1.161   6.244
    1   AR   Ar   15   2.885   5.769   9.400
    1   AR   Ar   16   0.543   7.038   6.429
    1   AR   Ar   17   5.657   3.458   0.797
    1   AR   Ar   18   6.927   3.961  -2.525
    1   AR   Ar   19   5.009   5.298   0.283
    1   AR   Ar   20   6.770   2.970  -2.226
    1   AR   Ar   21   2.244   0.952   2.478
    1   AR   Ar   22   5.372   0.468   1.931
    1   AR   Ar   23   0.703   6.000   0.522
    1   AR   Ar   24   6.029   2.591   3.698
    1   AR   Ar   25   1.036   3.019   5.690
    1   AR   Ar   26   6.015   6.119   4.684
    1   AR   Ar   27   1.148   0.510   1.253
    1   AR   Ar   28   2.530   2.425   3.909
    1   AR   Ar   29   5.467   0.449   7.683
    1   AR   Ar   30   6.434   0.997   3.443
    1   AR   Ar   31   0.940   0.865   6.685
    1   AR   Ar   32   0.891   1.801   6.158
    1   AR   Ar   33   6.217   5.392   0.605
    1   AR   Ar   34   1.893   4.848   3.131
    1   AR   Ar   35   5.741   5.603   2.756
    1   AR   Ar   36   3.530   1.546  -3.857
    1   AR   Ar   37   4.621   3.692   1.352
    1   AR   Ar   38   6.140   4.631   4.516
    1   AR   Ar   39   0.418   2.873   4.457
    1   AR   Ar   40   0.305   3.957   2.099
    1   AR   Ar   41   0.680   1.734   3.359
    1   AR   Ar   42   5.309   5.531   5.397
    1   AR   Ar   43   7.041   3.292   6.859
    1   AR   Ar   44   1.198   3.935   3.133
    1   AR   Ar   45   2.000   3.629   5.480
    1   AR   Ar   46   6.326   5.392   7.071
    1   AR   Ar   47   2.514   3.593   6.764
    1   AR   Ar   48   0.218   3.641   7.885
    1   AR   Ar   49   0.373   1.477   0.399
    1   AR   Ar   50   2.737   4.302   0.217
    1   AR   Ar   51   5.379   3.940   2.751
    1   AR   Ar   52   5.416   3.378  -1.901
    1   AR   Ar   53   4.350   7.055   3.028
    1   AR   Ar   54   6.558   6.935   2.769
    1   AR   Ar   55   6.751   4.900   2.123
    1   AR   Ar   56   5.534   1.452   3.711
    1   AR   Ar   57   4.935   5.137   2.423
    1   AR   Ar   58   1.417   3.331   4.670
    1   AR   Ar   59   3.276   5.518   5.421
    1   AR   Ar   60   0.722   5.385   2.845
    1   AR   Ar   61   7.089   4.497   6.511
    1   AR   Ar   62   6.711   4.195   5.486
    1   AR   Ar   63   1.953   1.849   7.242
    1   AR   Ar   64   0.803   4.823   3.945
    1   AR   Ar   65   4.021   1.047   2.686
    1   AR   Ar   66   1.530   1.614   1.455
    1   AR   Ar   67   4.669   1.022  -0.461
    1   AR   Ar   68   6.694   0.679   0.053
    1   AR   Ar   69   2.586   2.653   0.699
    1   AR   Ar   70   0.312   1.431   1.637
    1   AR   Ar   71   3.212   0.415   3.044
    1   AR   Ar   72   4.612   1.083   1.413
    1   AR   Ar   73   3.194   0.270   4.157
    1   AR   Ar   74   0.963   0.504   3.334
    1   AR   Ar   75   2.211   0.653   5.367
    1   AR   Ar   76   2.731   0.054   1.763
    1   AR   Ar   77   1.350   5.446   5.934
    1   AR   Ar   78   0.095   5.589   6.183
    1   AR   Ar   79   3.475   6.885   5.228
    1   AR   Ar   80   3.604   4.597   6.046
    1   AR   Ar   81   1.678   6.302   1.925
    1   AR   Ar   82   7.079   5.031   1.174
    1   AR   Ar   83   1.056   3.178   1.734
    1   AR   Ar   84   1.065   4.594   1.078
    1   AR   Ar   85   0.302   3.063  -0.471
    1   AR   Ar   86   1.643   5.581   1.060
    1   AR   Ar   87   3.860   3.058   2.649
    1   AR   Ar   88   3.469   5.414   1.360
    1   AR   Ar   89   5.666   2.400   1.102
    1   AR   Ar   90   3.331   1.227   5.963
    1   AR   Ar   91   1.612   1.366   3.255
    1   AR   Ar   92   3.998   2.998   1.127
    1   AR   Ar   93   1.097   0.777   5.661
    1   AR   Ar   94   6.868   6.732   9.299
    1   AR   Ar   95   5.408   1.045   6.853
    1   AR   Ar   96   2.146   6.515   5.523
    1   AR   Ar   97   4.460   1.401  -1.756
    1   AR   Ar   98   1.687   4.365   4.128
    1   AR   Ar   99   5.975   6.297  -0.855
    1   AR   Ar  100   5.976   2.934  -2.888
    1   AR   Ar  101   4.053   6.050   3.219
    1   AR   Ar  102   4.465   1.953   2.106
    1   AR   Ar  103   1.546   4.112   1.907
    1   AR   Ar  104   3.239   0.320  -0.922
    1   AR   Ar  105   2.825   2.418   2.537
    1   AR   Ar  106   4.300   0.999   3.719
    1   AR   Ar  107   0.633   4.754   5.549
    1   AR   Ar  108   2.249   0.658   3.825
    1   AR   Ar  109   2.453   4.772   4.715
    1   AR   Ar  110   1.904   2.537   5.247
    1   AR   Ar  111   4.203   4.489   7.327
    1   AR   Ar  112   6.178   6.292   6.607
    1   AR   Ar  113   6.877   5.669  -1.603
    1   AR   Ar  114   2.338   0.084  -0.043
    1   AR   Ar  115   0.391   4.408  -0.485
    1   AR   Ar  116   5.480   1.251   0.333
    1   AR   Ar  117   0.183   4.153   3.320
    1   AR   Ar  118   2.105   6.657   3.807
    1   AR   Ar  119   1.906   3.332   2.485
    1   AR   Ar  120   2.082   7.052   2.648
    1   AR   Ar  121   5.167   3.800   7.166
    1   AR   Ar  122   3.145   5.371   3.448
    1   AR   Ar  123   3.725   2.237   5.159
    1   AR   Ar  124   0.716   5.486   1.803
    1   AR   Ar  125   6.093   3.803   3.728
    1   AR   Ar  126   0.209   0.812   7.650
    1   AR   Ar  127   4.641   3.746   5.713
    1   AR   Ar  128   0.647   3.825   6.301
    1   AR   Ar  129   1.546   5.573   4.346
    1   AR   Ar  130   4.971   0.599  -4.907
    1   AR   Ar  131   3.422   6.049  -0.326
    1   AR   Ar  132   2.008   2.759   1.586
    1   AR   Ar  133   4.142   0.605   4.659
    1   AR   Ar  134   2.767   1.388   4.386
    1   AR   Ar  135   6.248   6.972   5.272
    1   AR   Ar  136   5.411   6.613   2.910
    1   AR   Ar  137   2.314   4.950   5.768
    1   AR   Ar  138   5.872   1.699   6.191
    1   AR   Ar  139   6.013   2.169   4.930
    1   AR   Ar  140   4.937   6.457   4.929
    1   AR   Ar  141   3.412   5.234   4.435
    1   AR   Ar  142   4.014   5.441   9.056
    1   AR   Ar  143   5.695   6.512   7.791
    1   AR   Ar  144   0.011   2.645   5.420
    1   AR   Ar  145   4.918   4.693  -1.685
    1   AR   Ar  146   4.082   2.218   3.960
    1   AR   Ar  147   4.750   4.289  -0.301
    1   AR   Ar  148   2.361   5.848  -0.435
    1   AR   Ar  149   6.726   1.927  -0.270
    1   AR   Ar  150   1.282   2.246   2.186
    1   AR   Ar  151   2.930   3.483   2.028
    1   AR   Ar  152   1.020   1.563  -0.663
    1   AR   Ar  153   5.455   0.555   3.107
    1   AR   Ar  154   5.201   3.292   4.045
    1   AR   Ar  155   6.215   3.263   5.773
    1   AR   Ar  156   2.789   3.768   2.991
    1   AR   Ar  157   3.249   5.728   6.561
    1   AR   Ar  158   0.814   2.474   7.422
    1   AR   Ar  159   4.832   0.311   5.625
    1   AR   Ar  160   0.768   1.383   4.380
    1   AR   Ar  161   4.972   4.603   3.562
    1   AR   Ar  162   4.100   5.644  -1.209
    1   AR   Ar  163   6.313   3.718   2.265
    1   AR   Ar  164   2.067   5.882   2.935
    1   AR   Ar  165   3.340   4.000   0.990
    1   AR   Ar  166   2.875   3.271   5.036
    1   AR   Ar  167   6.201   6.844   3.860
    1   AR   Ar  168   5.567   4.179  -2.507
    1   AR   Ar  169   4.493   3.752   3.342
    1   AR   Ar  170   3.043   2.445   5.937
    1   AR   Ar  171   4.475   5.403   4.036
    1   AR   Ar  172   4.336   3.167   4.778
    1   AR   Ar  173   0.864   1.561   7.900
    1   AR   Ar  174   2.892   6.339   4.372
    1   AR   Ar  175   0.979   7.029   7.323
    1   AR   Ar  176   3.547   3.160   3.647
    1   AR   Ar  177   6.799   4.129  -1.312
    1   AR   Ar  178   2.114   6.749   0.900
    1   AR   Ar  179   3.162   6.340   0.682
    1   AR   Ar  180   5.171   6.154  -7.114
    1   AR   Ar  181   0.076   6.112   2.284
    1   AR   Ar  182   0.814   6.633   2.728
    1   AR   Ar  183   5.151   5.614   1.480
    1   AR   Ar  184   3.884   5.369   0.291
    1   AR   Ar  185   3.315   4.188   4.368
    1   AR   Ar  186   3.050   6.423   3.320
    1   AR   Ar  187   4.100   6.774   3.983
    1   AR   Ar  188   3.450   1.155   1.813
    1   AR   Ar  189   6.165   2.744   6.595
    1   AR   Ar  190   1.326   0.333   4.393
    1   AR   Ar  191   3.936   6.053   4.717
    1   AR   Ar  192   3.758   3.372   6.209
    1   AR   Ar  193   3.083   6.184   2.026
    1   AR   Ar  194   4.722   6.152  -0.513
    1   AR   Ar  195   6.324   1.159   1.049
    1   AR   Ar  196   4.542   6.716   0.818
    1   AR   Ar  197   4.736   2.915   0.382
    1   AR   Ar  198   6.702   6.645   1.370
    1   AR   Ar  199   6.991   0.362   2.068
    1   AR   Ar  200   5.808   2.291  -0.024
    1   AR   Ar  201   6.893   5.497   3.207
    1   AR   Ar  202   5.047   0.170   3.928
    1   AR   Ar  203   0.379   6.858   3.690
    1   AR   Ar  204   4.668   5.174   7.970
    1   AR   Ar  205   5.525   1.867   2.024
    1   AR   Ar  206   5.750   0.183   6.381
    1   AR   Ar  207   0.273   3.969   4.707
    1   AR   Ar  208   0.817   5.835   3.705
    1   AR   Ar  209   5.544   2.089  -1.922
    1   AR   Ar  210   1.912   1.661   0.388
    1   AR   Ar  211   6.875   2.702   0.675
    1   AR   Ar  212   6.537   4.218   0.235
    1   AR   Ar  213   4.010   1.830   0.992
    1   AR   Ar  214   5.464   4.528   1.802
    1   AR   Ar  215   0.136   3.013   2.796
    1   AR   Ar  216   1.987   2.482  -0.349
    1   AR   Ar  217   5.082   2.274   4.460
    1   AR   Ar  218   4.861   2.256   5.541
    1   AR   Ar  219   4.391   4.169   2.390
    1   AR   Ar  220   4.444   4.836   1.326
    1   AR   Ar  221   6.891   6.086   4.123
    1   AR   Ar  222   4.984   6.551   6.144
    1   AR   Ar  223   6.980   1.140   6.029
    1   AR   Ar  224   5.298   1.189   4.686
    1   AR   Ar  225   5.940   2.822   2.708
    1   AR   Ar  226   2.382   3.676   3.933
    1   AR   Ar  227   1.396   2.216   4.164
    1   AR   Ar  228   6.108   1.164   2.148
    1   AR   Ar  229   5.856   4.052  -0.941
    1   AR   Ar  230   3.979   4.830   3.149
    1   AR   Ar  231   4.774   2.604   3.143
    1   AR   Ar  232   5.463   3.253   1.851
    1   AR   Ar  233   6.886   2.195   3.377
    1   AR   Ar  234   6.494   3.142   4.639
    1   AR   Ar  235   6.366   0.980   4.441
    1   AR   Ar  236   4.410   4.400   4.443
    1   AR   Ar  237   4.741   1.527   7.664
    1   AR   Ar  238   4.794   4.670   5.796
    1   AR   Ar  239   1.198   4.336  10.684
    1   AR   Ar  240   1.623   2.937   6.764
    1   AR   Ar  241   1.396   6.615  -0.066
    1   AR   Ar  242   5.839   6.520   1.916
    1   AR   Ar  243   4.281   6.046   1.914
    1   AR   Ar  244   6.541   6.448   0.295
    1   AR   Ar  245   2.968   1.630   3.193
    1   AR   Ar  246   5.280   5.768  -1.574
    1   AR   Ar  247   7.019   3.507   1.309
    1   AR   Ar  248   5.570   5.407  -0.587
    1   AR   Ar  249   3.399   0.705   0.501
    1   AR   Ar  250   5.114   6.213   3.866
    1   AR   Ar  251   5.664   3.894   5.052
    1   AR   Ar  252   2.730   4.777   2.381
    1   AR   Ar  253   5.466   2.602   7.355
    1   AR   Ar  254   3.677   4.504  12.812
    1   AR   Ar  255   5.190   6.228   9.065
    1   AR   Ar  256   5.884   5.498   3.823
    7.12000  7.12000 12.00000
Argon-slab step 5615
  256
    1   AR   Ar    1   3.757   2.981  -2.076
    1   AR   Ar    2   5.746   0.054   1.115
    1   AR   Ar    3   4.555   3.447  -1.109
    1   AR   Ar    4   2.531   1.142   1.432
    1   AR   Ar    5   6.769   5.262  -0.531
    1   AR   Ar    6   1.245   1.025   2.263
    1   AR   Ar    7   6.130   4.540   3.048
    1   AR   Ar    8   6.194   3.363  -0.282
    1   AR   Ar    9   0.434   5.692   4.836
    1   AR   Ar   10   5.867   4.593   6.295
    1   AR   Ar   11   0.810   6.527   5.416
    1   AR   Ar   12   6.994   1.787   4.710
    1   AR   Ar   13   0.167   0.141   4.680
    1   AR   Ar   14   4.505   1.174   6.247
    1   AR   Ar   15   2.883   5.743   9.375
    1   AR   Ar   16   0.531   7.041   6.431
    1   AR   Ar   17   5.679   3.459   0.823
    1   AR   Ar   18   6.932   3.937  -2.525
    1   AR   Ar   19   4.972   5.304   0.280
    1   AR   Ar   20   6.747   2.972  -2.207
    1   AR   Ar   21   2.272   0.926   2.465
    1   AR   Ar   22   5.392   0.445   1.921
    1   AR   Ar   23   0.672   5.988   0.531
    1   AR   Ar   24   6.036   2.576   3.718
    1   AR   Ar   25   1.058   3.044   5.675
    1   AR   Ar   26   6.019   6.100   4.668
    1   AR   Ar   27   1.142   0.500   1.232
    1   AR   Ar   28   2.533   2.389   3.936
    1   AR   Ar   29   5.465   0.418   7.664
    1   AR   Ar   30   6.424   0.990   3.432
    1   AR   Ar   31   0.923   0.853   6.698
    1   AR   Ar   32   0.897   1.788   6.143
    1   AR   Ar   33   6.188   5.404   0.583
    1   AR   Ar   34   1.895   4.847   3.118
    1   AR   Ar   35   5.778   5.605   2.785
    1   AR   Ar   36   3.519   1.524  -3.874
    1   AR   Ar   37   4.622   3.717   1.351
    1   AR   Ar   38   6.121   4.608   4.539
    1   AR   Ar   39   0.426   2.873   4.453
    1   AR   Ar   40   0.282   3.990   2.082
    1   AR   Ar   41   0.691   1.733   3.366
    1   AR   Ar   42   5.299   5.523   5.409
    1   AR   Ar   43   7.044   3.261   6.864
    1   AR   Ar   44   1.194   3.946   3.117
    1   AR   Ar   45   2.004   3.646   5.478
    1   AR   Ar   46   6.326   5.395   7.083
    1   AR   Ar   47   2.508   3.577   6.784
    1   AR   Ar   48   0.233   3.660   7.895
    1   AR   Ar   49   0.358   1.500   0.414
    1   AR   Ar   50   2.754   4.318   0.225
    1   AR   Ar   51   5.376   3.972   2.773
    1   AR   Ar   52   5.459   3.377  -1.918
    1   AR   Ar   53   4.332   7.068   3.032
    1   AR   Ar   54   6.536   6.914   2.792
    1   AR   Ar   55   6.757   4.911   2.118
    1   AR   Ar   56   5.518   1.433   3.754
    1   AR   Ar   57   4.956   5.122   2.452
    1   AR   Ar   58   1.409   3.323   4.661
    1   AR   Ar   59   3.292   5.500   5.419
    1   AR   Ar   60   0.724   5.381   2.835
    1   AR   Ar   61   7.089   4.516   6.508
    1   AR   Ar   62   6.700   4.168   5.484
    1   AR   Ar   63   1.950   1.823   7.253
    1   AR   Ar   64   0.797   4.840   3.940
    1   AR   Ar   65   4.024   1.045   2.683
    1   AR   Ar   66   1.537   1.649   1.437
    1   AR   Ar   67   4.653   1.033  -0.493
    1   AR   Ar   68   6.679   0.659   0.083
    1   AR   Ar   69   2.586   2.610   0.691
    1   AR   Ar   70   0.322   1.422   1.657
    1   AR   Ar   71   3.212   0.432   3.030
    1   AR   Ar   72   4.626   1.069   1.412
    1   AR   Ar   73   3.231   0.241   4.210
    1   AR   Ar   74   0.958   0.532   3.330
    1   AR   Ar   75   2.233   0.645   5.357
    1   AR   Ar   76   2.723   0.057   1.787
    1   AR   Ar   77   1.364   5.471   5.938
    1   AR   Ar   78   0.122   5.597   6.206
    1   AR   Ar   79   3.475   6.881   5.245
    1   AR   Ar   80   3.598   4.581   6.045
    1   AR   Ar   81   1.668   6.312   1.967
    1   AR   Ar   82   7.047   5.012   1.175
    1   AR   Ar   83   1.071   3.185   1.725
    1   AR   Ar   84   1.052   4.569   1.099
    1   AR   Ar   85   0.301   3.041  -0.477
    1   AR   Ar   86   1.639   5.606   1.054
    1   AR   Ar   87   3.868   3.041   2.633
    1   AR   Ar   88   3.502   5.381   1.360
    1   AR   Ar   89   5.685   2.381   1.123
    1   AR   Ar   90   3.344   1.223   5.948
    1   AR   Ar   91   1.622   1.376   3.259
    1   AR   Ar   92   3.990   2.999   1.117
    1   AR   Ar   93   1.118   0.797   5.661
    1   AR   Ar   94   6.892   6.744   9.305
    1   AR   Ar   95   5.382   1.034   6.864
    1   AR   Ar   96   2.131   6.556   5.532
    1   AR   Ar   97   4.500   1.416  -1.765
    1   AR   Ar   98   1.712   4.389   4.127
    1   AR   Ar   99   5.944   6.275  -0.838
    1   AR   Ar  100   5.991   2.939  -2.879
    1   AR   Ar  101   4.050   6.067   3.216
    1   AR   Ar  102   4.485   1.946   2.072
    1   AR   Ar  103   1.514   4.080   1.927
    1   AR   Ar  104   3.261   0.342  -0.904
    1   AR   Ar  105   2.807   2.439   2.556
    1   AR   Ar  106   4.263   1.015   3.750
    1   AR   Ar  107   0.599   4.771   5.558
    1   AR   Ar  108   2.224   0.693   3.821
    1   AR   Ar  109   2.462   4.760   4.708
    1   AR   Ar  110   1.911   2.515   5.265
    1   AR   Ar  111   4.256   4.479   7.307
    1   AR   Ar  112   6.192   6.269   6.632
    1   AR   Ar  113   6.880   5.691  -1.613
    1   AR   Ar  114   2.336   0.048  -0.031
    1   AR   Ar  115   0.401   4.405  -0.457
    1   AR   Ar  116   5.481   1.250   0.338
    1   AR   Ar  117   0.152   4.138   3.314
    1   AR   Ar  118   2.124   6.655   3.784
    1   AR   Ar  119   1.929   3.328   2.498
    1   AR   Ar  120   2.078   7.031   2.656
    1   AR   Ar  121   5.197   3.791   7.167
    1   AR   Ar  122   3.131   5.352   3.443
    1   AR   Ar  123   3.717   2.224   5.157
    1   AR   Ar  124   0.703   5.484   1.785
    1   AR   Ar  125   6.128   3.799   3.734
    1   AR   Ar  126   0.210   0.810   7.644
    1   AR   Ar  127   4.647   3.720   5.715
    1   AR   Ar  128   0.648   3.849   6.299
    1   AR   Ar  129   1.535   5.582   4.347
    1   AR   Ar  130   4.957   0.572  -4.874
    1   AR   Ar  131   3.465   6.042  -0.339
    1   AR   Ar  132   1.982   2.769   1.636
    1   AR   Ar  133   4.152   0.605   4.652
    1   AR   Ar  134   2.752   1.374   4.359
    1   AR   Ar  135   6.227   6.952   5.305
    1   AR   Ar  136   5.398   6.606   2.863
    1   AR   Ar  137   2.339   4.980   5.746
    1   AR   Ar  138   5.878   1.738   6.179
    1   AR   Ar  139   6.036   2.205   4.930
    1   AR   Ar  140   4.948   6.484   4.918
    1   AR   Ar  141   3.428   5.232   4.438
    1   AR   Ar  142   3.985   5.488   9.049
    1   AR   Ar  143   5.661   6.538   7.838
    1   AR   Ar  144   0.002   2.648   5.411
    1   AR   Ar  145   4.906   4.668  -1.711
    1   AR   Ar  146   4.095   2.247   3.981
    1   AR   Ar  147   4.746   4.252  -0.312
    1   AR   Ar  148   2.321   5.843  -0.424
    1   AR   Ar  149   6.724   1.924  -0.237
    1   AR   Ar  150   1.270   2.214   2.168
    1   AR   Ar  151   2.922   3.453   2.013
    1   AR   Ar  152   1.044   1.583  -0.623
    1   AR   Ar  153   5.423   0.550   3.076
    1   AR   Ar  154   5.214   3.302   4.061
    1   AR   Ar  155   6.190   3.290   5.773
    1   AR   Ar  156   2.802   3.778   3.005
    1   AR   Ar  157   3.286   5.718   6.566
    1   AR   Ar  158   0.807   2.490   7.426
    1   AR   Ar  159   4.827   0.294   5.624
    1   AR   Ar  160   0.769   1.399   4.378
    1   AR   Ar  161   5.004   4.603   3.554
    1   AR   Ar  162   4.110   5.634  -1.214
    1   AR   Ar  163   6.339   3.709   2.289
    1   AR   Ar  164   2.067   5.892   2.924
    1   AR   Ar  165   3.340   3.971   0.990
    1   AR   Ar  166   2.875   3.228   5.056
    1   AR   Ar  167   6.195   6.831   3.884
    1   AR   Ar  168   5.569   4.198  -2.515
    1   AR   Ar  169   4.483   3.737   3.348
    1   AR   Ar  170   3.043   2.506   5.912
    1   AR   Ar  171   4.452   5.394   4.062
    1   AR   Ar  172   4.332   3.149   4.784
    1   AR   Ar  173   0.859   1.563   7.897
    1   AR   Ar  174   2.891   6.332   4.350
    1   AR   Ar  175   0.980   7.083   7.337
    1   AR   Ar  176   3.551   3.166   3.658
    1   AR   Ar  177   6.822   4.123  -1.317
    1   AR   Ar  178   2.104   6.813   0.920
    1   AR   Ar  179   3.174   6.348   0.685
    1   AR   Ar  180   5.168   6.138  -7.097
    1   AR   Ar  181   0.060   6.120   2.269
    1   AR   Ar  182   0.812   6.643   2.752
    1   AR   Ar  183   5.133   5.613   1.480
    1   AR   Ar  184   3.873   5.330   0.312
    1   AR   Ar  185   3.295   4.205   4.364
    1   AR   Ar  186   3.078   6.429   3.308
    1   AR   Ar  187   4.091   6.768   3.957
    1   AR   Ar  188   3.446   1.160   1.791
    1   AR   Ar  189   6.197   2.753   6.581
    1   AR   Ar  190   1.360   0.363   4.380
    1   AR   Ar  191   3.909   6.063   4.711
    1   AR   Ar  192   3.729   3.358   6.214
    1   AR   Ar  193   3.082   6.201   2.059
    1   AR   Ar  194   4.731   6.160  -0.520
    1   AR   Ar  195   6.326   1.166   1.093
    1   AR   Ar  196   4.572   6.723   0.826
    1   AR   Ar  197   4.732   2.934   0.392
    1   AR   Ar  198   6.697   6.626   1.349
    1   AR   Ar  199   6.960   0.383   2.034
    1   AR   Ar  200   5.789   2.273  -0.022
    1   AR   Ar  201   6.931   5.464   3.255
    1   AR   Ar  202   5.066   0.166   3.906
    1   AR   Ar  203   0.355   6.873   3.714
    1   AR   Ar  204   4.677   5.155   7.969
    1   AR   Ar  205   5.498   1.873   2.023
    1   AR   Ar  206   5.801   0.176   6.372
    1   AR   Ar  207   0.286   3.954   4.707
    1   AR   Ar  208   0.802   5.841   3.701
    1   AR   Ar  209   5.537   2.124  -1.913
    1   AR   Ar  210   1.933   1.696   0.351
    1   AR   Ar  211   6.848   2.692   0.670
    1   AR   Ar  212   6.517   4.190   0.281
    1   AR   Ar  213   4.004   1.816   1.000
    1   AR   Ar  214   5.472   4.532   1.791
    1   AR   Ar  215   0.104   2.980   2.801
    1   AR   Ar  216   1.985   2.481  -0.339
    1   AR   Ar  217   5.060   2.280   4.458
    1   AR   Ar  218   4.847   2.249   5.526
    1   AR   Ar  219   4.376   4.157   2.391
    1   AR   Ar  220   4.433   4.812   1.280
    1   AR   Ar  221   6.916   6.085   4.100
    1   AR   Ar  222   4.978   6.551   6.138
    1   AR   Ar  223   6.998   1.095   6.048
    1   AR   Ar  224   5.250   1.183   4.692
    1   AR   Ar  225   5.947   2.829   2.724
    1   AR   Ar  226   2.403   3.675   3.922
    1   AR   Ar  227   1.396   2.227   4.184
    1   AR   Ar  228   6.108   1.141   2.143
    1   AR   Ar  229   5.882   4.078  -0.917
    1   AR   Ar  230   3.985   4.823   3.142
    1   AR   Ar  231   4.770   2.621   3.157
    1   AR   Ar  232   5.475   3.274   1.838
    1   AR   Ar  233   6.863   2.181   3.371
    1   AR   Ar  234   6.529   3.166   4.631
    1   AR   Ar  235   6.387   0.970   4.457
    1   AR   Ar  236   4.421   4.396   4.399
    1   AR   Ar  237   4.744   1.522   7.637
    1   AR   Ar  238   4.798   4.672   5.801
    1   AR   Ar  239   1.189   4.311  10.676
    1   AR   Ar  240   1.583   2.920   6.758
    1   AR   Ar  241   1.379   6.607  -0.090
    1   AR   Ar  242   5.825   6.540   1.925
    1   AR   Ar  243   4.251   6.080   1.904
    1   AR   Ar  244   6.501   6.472   0.315
    1   AR   Ar  245   2.947   1.641   3.180
    1   AR   Ar  246   5.301   5.740  -1.588
    1   AR   Ar  247   6.999   3.492   1.277
    1   AR   Ar  248   5.606   5.415  -0.565
    1   AR   Ar  249   3.384   0.687   0.491
    1   AR   Ar  250   5.140   6.189   3.855
    1   AR   Ar  251   5.669   3.874   5.054
    1   AR   Ar  252   2.740   4.771   2.367
    1   AR   Ar  253   5.459   2.609   7.342
    1   AR   Ar  254   3.647   4.539  12.817
    1   AR   Ar  255   5.194   6.175   9.072
    1   AR   Ar  256   5.895   5.506   3.822
    7.12000  7.12000 12.00000
Argon-slab step 5620
  256
    1   AR   Ar    1   3.744   2.951  -2.051
    1   AR   Ar    2   5.750   0.071   1.078
    1   AR   Ar    3   4.578   3.466  -1.121
    1   AR   Ar    4   2.510   1.128   1.445
    1   AR   Ar    5   6.783   5.291  -0.533
    1   AR   Ar    6   1.257   1.018   2.217
    1   AR   Ar    7   6.137   4.565   3.075
    1   AR   Ar    8   6.182   3.361  -0.257
    1   AR   Ar    9   0.444   5.675   4.838
    1   AR   Ar   10   5.877   4.600   6.281
    1   AR   Ar   11   0.803   6.513   5.411
    1   AR   Ar   12   7.001   1.795   4.702
    1   AR   Ar   13   0.144   0.141   4.678
    1   AR   Ar   14   4.500   1.162   6.236
    1   AR   Ar   15   2.882   5.719   9.355
    1   AR   Ar   16   0.514   7.042   6.424
    1   AR   Ar   17   5.702   3.461   0.846
    1   AR   Ar   18   6.937   3.918  -2.526
    1   AR   Ar   19   4.968   5.280   0.279
    1   AR   Ar   20   6.728   2.971  -2.181
    1   AR   Ar   21   2.304   0.903   2.454
    1   AR   Ar   22   5.402   0.425   1.926
    1   AR   Ar   23   0.639   5.976   0.542
    1   AR   Ar   24   6.030   2.566   3.750
    1   AR   Ar   25   1.078   3.068   5.660
    1   AR   Ar   26   6.033   6.110   4.661
    1   AR   Ar   27   1.136   0.491   1.212
    1   AR   Ar   28   2.536   2.355   3.963
    1   AR   Ar   29   5.461   0.385   7.645
    1   AR   Ar   30   6.417   0.983   3.414
    1   AR   Ar   31   0.910   0.850   6.707
    1   AR   Ar   32   0.902   1.776   6.127
    1   AR   Ar   33   6.158   5.416   0.560
    1   AR   Ar   34   1.896   4.844   3.107
    1   AR   Ar   35   5.822   5.609   2.812
    1   AR   Ar   36   3.535   1.496  -3.869
    1   AR   Ar   37   4.630   3.751   1.352
    1   AR   Ar   38   6.107   4.592   4.557
    1   AR   Ar   39   0.412   2.898   4.434
    1   AR   Ar   40   0.264   4.026   2.071
    1   AR   Ar   41   0.697   1.735   3.371
    1   AR   Ar   42   5.290   5.517   5.420
    1   AR   Ar   43   7.051   3.233   6.870
    1   AR   Ar   44   1.192   3.957   3.101
    1   AR   Ar   45   2.007   3.666   5.478
    1   AR   Ar   46   6.331   5.391   7.100
    1   AR   Ar   47   2.506   3.587   6.804
    1   AR   Ar   48   0.248   3.677   7.903
    1   AR   Ar   49   0.344   1.523   0.430
    1   AR   Ar   50   2.768   4.335   0.229
    1   AR   Ar   51   5.366   3.996   2.791
    1   AR   Ar   52   5.501   3.371  -1.930
    1   AR   Ar   53   4.317   7.088   3.028
    1   AR   Ar   54   6.512   6.890   2.819
    1   AR   Ar   55   6.760   4.921   2.126
    1   AR   Ar   56   5.502   1.417   3.791
    1   AR   Ar   57   4.952   5.106   2.483
    1   AR   Ar   58   1.400   3.316   4.648
    1   AR   Ar   59   3.306   5.484   5.422
    1   AR   Ar   60   0.733   5.371   2.813
    1   AR   Ar   61   7.078   4.544   6.507
    1   AR   Ar   62   6.697   4.139   5.472
    1   AR   Ar   63   1.944   1.798   7.264
    1   AR   Ar   64   0.786   4.854   3.935
    1   AR   Ar   65   4.030   1.044   2.681
    1   AR   Ar   66   1.549   1.674   1.404
    1   AR   Ar   67   4.638   1.045  -0.524
    1   AR   Ar   68   6.664   0.640   0.115
    1   AR   Ar   69   2.586   2.567   0.682
    1   AR   Ar   70   0.301   1.405   1.662
    1   AR   Ar   71   3.209   0.447   3.018
    1   AR   Ar   72   4.641   1.053   1.412
    1   AR   Ar   73   3.266   0.213   4.261
    1   AR   Ar   74   0.954   0.561   3.326
    1   AR   Ar   75   2.254   0.636   5.346
    1   AR   Ar   76   2.716   0.063   1.811
    1   AR   Ar   77   1.376   5.497   5.942
    1   AR   Ar   78   0.149   5.604   6.228
    1   AR   Ar   79   3.481   6.866   5.271
    1   AR   Ar   80   3.592   4.565   6.043
    1   AR   Ar   81   1.656   6.320   2.007
    1   AR   Ar   82   7.019   4.993   1.166
    1   AR   Ar   83   1.074   3.191   1.716
    1   AR   Ar   84   1.037   4.546   1.120
    1   AR   Ar   85   0.298   3.019  -0.483
    1   AR   Ar   86   1.634   5.631   1.049
    1   AR   Ar   87   3.877   3.024   2.615
    1   AR   Ar   88   3.533   5.348   1.361
    1   AR   Ar   89   5.684   2.383   1.116
    1   AR   Ar   90   3.358   1.220   5.932
    1   AR   Ar   91   1.640   1.388   3.261
    1   AR   Ar   92   3.971   2.990   1.107
    1   AR   Ar   93   1.138   0.815   5.656
    1   AR   Ar   94   6.916   6.755   9.311
    1   AR   Ar   95   5.356   1.029   6.871
    1   AR   Ar   96   2.116   6.596   5.539
    1   AR   Ar   97   4.541   1.432  -1.774
    1   AR   Ar   98   1.724   4.413   4.128
    1   AR   Ar   99   5.919   6.268  -0.825
    1   AR   Ar  100   6.000   2.945  -2.874
    1   AR   Ar  101   4.050   6.074   3.209
    1   AR   Ar  102   4.496   1.940   2.040
    1   AR   Ar  103   1.483   4.057   1.949
    1   AR   Ar  104   3.284   0.364  -0.884
    1   AR   Ar  105   2.787   2.467   2.571
    1   AR   Ar  106   4.263   1.012   3.733
    1   AR   Ar  107   0.563   4.787   5.567
    1   AR   Ar  108   2.198   0.721   3.812
    1   AR   Ar  109   2.473   4.750   4.704
    1   AR   Ar  110   1.920   2.492   5.281
    1   AR   Ar  111   4.271   4.467   7.291
    1   AR   Ar  112   6.204   6.255   6.652
    1   AR   Ar  113   6.881   5.709  -1.623
    1   AR   Ar  114   2.327   0.008  -0.016
    1   AR   Ar  115   0.388   4.411  -0.473
    1   AR   Ar  116   5.481   1.249   0.344
    1   AR   Ar  117   0.118   4.123   3.308
    1   AR   Ar  118   2.135   6.656   3.757
    1   AR   Ar  119   1.954   3.322   2.519
    1   AR   Ar  120   2.074   7.007   2.667
    1   AR   Ar  121   5.227   3.782   7.166
    1   AR   Ar  122   3.112   5.335   3.437
    1   AR   Ar  123   3.711   2.210   5.152
    1   AR   Ar  124   0.695   5.479   1.762
    1   AR   Ar  125   6.165   3.788   3.745
    1   AR   Ar  126   0.209   0.803   7.635
    1   AR   Ar  127   4.642   3.692   5.725
    1   AR   Ar  128   0.659   3.864   6.292
    1   AR   Ar  129   1.531   5.588   4.352
    1   AR   Ar  130   4.944   0.535  -4.842
    1   AR   Ar  131   3.507   6.038  -0.355
    1   AR   Ar  132   1.967   2.774   1.680
    1   AR   Ar  133   4.164   0.591   4.643
    1   AR   Ar  134   2.741   1.364   4.335
    1   AR   Ar  135   6.207   6.934   5.337
    1   AR   Ar  136   5.381   6.600   2.821
    1   AR   Ar  137   2.365   5.009   5.727
    1   AR   Ar  138   5.884   1.777   6.166
    1   AR   Ar  139   6.059   2.241   4.930
    1   AR   Ar  140   4.960   6.507   4.905
    1   AR   Ar  141   3.441   5.225   4.436
    1   AR   Ar  142   3.957   5.535   9.042
    1   AR   Ar  143   5.628   6.558   7.886
    1   AR   Ar  144   7.113   2.651   5.404
    1   AR   Ar  145   4.895   4.643  -1.735
    1   AR   Ar  146   4.106   2.275   4.003
    1   AR   Ar  147   4.744   4.216  -0.324
    1   AR   Ar  148   2.281   5.841  -0.413
    1   AR   Ar  149   6.726   1.920  -0.205
    1   AR   Ar  150   1.250   2.189   2.166
    1   AR   Ar  151   2.915   3.422   1.995
    1   AR   Ar  152   1.026   1.612  -0.634
    1   AR   Ar  153   5.396   0.550   3.034
    1   AR   Ar  154   5.226   3.312   4.078
    1   AR   Ar  155   6.166   3.322   5.763
    1   AR   Ar  156   2.819   3.789   3.015
    1   AR   Ar  157   3.324   5.707   6.570
    1   AR   Ar  158   0.798   2.514   7.421
    1   AR   Ar  159   4.822   0.283   5.618
    1   AR   Ar  160   0.774   1.408   4.377
    1   AR   Ar  161   5.043   4.609   3.545
    1   AR   Ar  162   4.120   5.608  -1.214
    1   AR   Ar  163   6.368   3.704   2.313
    1   AR   Ar  164   2.069   5.905   2.914
    1   AR   Ar  165   3.346   3.939   0.996
    1   AR   Ar  166   2.877   3.185   5.074
    1   AR   Ar  167   6.186   6.821   3.905
    1   AR   Ar  168   5.572   4.220  -2.526
    1   AR   Ar  169   4.468   3.716   3.357
    1   AR   Ar  170   3.040   2.567   5.889
    1   AR   Ar  171   4.429   5.386   4.085
    1   AR   Ar  172   4.327   3.131   4.789
    1   AR   Ar  173   0.859   1.565   7.895
    1   AR   Ar  174   2.898   6.340   4.339
    1   AR   Ar  175   0.984   0.017   7.358
    1   AR   Ar  176   3.554   3.173   3.670
    1   AR   Ar  177   6.844   4.131  -1.332
    1   AR   Ar  178   2.088   6.863   0.948
    1   AR   Ar  179   3.185   6.357   0.688
    1   AR   Ar  180   5.166   6.122  -7.080
    1   AR   Ar  181   0.033   6.127   2.262
    1   AR   Ar  182   0.827   6.659   2.783
    1   AR   Ar  183   5.119   5.614   1.478
    1   AR   Ar  184   3.863   5.288   0.336
    1   AR   Ar  185   3.278   4.215   4.359
    1   AR   Ar  186   3.103   6.440   3.293
    1   AR   Ar  187   4.081   6.765   3.942
    1   AR   Ar  188   3.454   1.164   1.772
    1   AR   Ar  189   6.226   2.751   6.576
    1   AR   Ar  190   1.392   0.393   4.368
    1   AR   Ar  191   3.888   6.079   4.708
    1   AR   Ar  192   3.698   3.345   6.218
    1   AR   Ar  193   3.095   6.218   2.067
    1   AR   Ar  194   4.741   6.167  -0.524
    1   AR   Ar  195   6.318   1.174   1.137
    1   AR   Ar  196   4.601   6.730   0.834
    1   AR   Ar  197   4.733   2.954   0.399
    1   AR   Ar  198   6.696   6.608   1.329
    1   AR   Ar  199   6.930   0.406   1.997
    1   AR   Ar  200   5.764   2.258  -0.017
    1   AR   Ar  201   6.960   5.429   3.301
    1   AR   Ar  202   5.082   0.158   3.895
    1   AR   Ar  203   0.330   6.888   3.736
    1   AR   Ar  204   4.688   5.140   7.972
    1   AR   Ar  205   5.466   1.893   2.023
    1   AR   Ar  206   5.853   0.169   6.362
    1   AR   Ar  207   0.300   3.939   4.705
    1   AR   Ar  208   0.783   5.860   3.701
    1   AR   Ar  209   5.529   2.159  -1.905
    1   AR   Ar  210   1.953   1.727   0.317
    1   AR   Ar  211   6.870   2.706   0.636
    1   AR   Ar  212   6.498   4.165   0.330
    1   AR   Ar  213   3.997   1.804   1.008
    1   AR   Ar  214   5.483   4.531   1.776
    1   AR   Ar  215   0.072   2.951   2.803
    1   AR   Ar  216   1.983   2.483  -0.331
    1   AR   Ar  217   5.039   2.286   4.453
    1   AR   Ar  218   4.834   2.243   5.511
    1   AR   Ar  219   4.361   4.146   2.387
    1   AR   Ar  220   4.422   4.787   1.234
    1   AR   Ar  221   6.940   6.082   4.078
    1   AR   Ar  222   4.974   6.544   6.134
    1   AR   Ar  223   7.018   1.050   6.066
    1   AR   Ar  224   5.199   1.174   4.705
    1   AR   Ar  225   5.952   2.835   2.737
    1   AR   Ar  226   2.426   3.666   3.919
    1   AR   Ar  227   1.398   2.242   4.203
    1   AR   Ar  228   6.125   1.106   2.146
    1   AR   Ar  229   5.899   4.109  -0.895
    1   AR   Ar  230   3.993   4.815   3.135
    1   AR   Ar  231   4.767   2.639   3.171
    1   AR   Ar  232   5.484   3.294   1.828
    1   AR   Ar  233   6.845   2.160   3.365
    1   AR   Ar  234   6.561   3.192   4.624
    1   AR   Ar  235   6.406   0.956   4.478
    1   AR   Ar  236   4.430   4.388   4.358
    1   AR   Ar  237   4.747   1.518   7.611
    1   AR   Ar  238   4.803   4.688   5.809
    1   AR   Ar  239   1.180   4.285  10.667
    1   AR   Ar  240   1.589   2.907   6.747
    1   AR   Ar  241   1.363   6.599  -0.114
    1   AR   Ar  242   5.812   6.554   1.936
    1   AR   Ar  243   4.220   6.114   1.895
    1   AR   Ar  244   6.460   6.496   0.332
    1   AR   Ar  245   2.927   1.645   3.172
    1   AR   Ar  246   5.313   5.721  -1.579
    1   AR   Ar  247   6.977   3.481   1.246
    1   AR   Ar  248   5.638   5.405  -0.538
    1   AR   Ar  249   3.378   0.683   0.498
    1   AR   Ar  250   5.136   6.198   3.855
    1   AR   Ar  251   5.670   3.853   5.052
    1   AR   Ar  252   2.751   4.765   2.353
    1   AR   Ar  253   5.451   2.615   7.330
    1   AR   Ar  254   3.617   4.574  12.822
    1   AR   Ar  255   5.197   6.122   9.077
    1   AR   Ar  256   5.911   5.507   3.820
    7.12000  7.12000 12.00000
Argon-slab step 5625
  256
    1   AR   Ar    1   3.732   2.921  -2.025
    1   AR   Ar    2   5.759   0.085   1.026
    1   AR   Ar    3   4.603   3.485  -1.134
    1   AR   Ar    4   2.480   1.114   1.451
    1   AR   Ar    5   6.795   5.321  -0.534
    1   AR   Ar    6   1.267   1.010   2.174
    1   AR   Ar    7   6.152   4.600   3.100
    1   AR   Ar    8   6.172   3.351  -0.230
    1   AR   Ar    9   0.456   5.655   4.839
    1   AR   Ar   10   5.888   4.607   6.265
    1   AR   Ar   11   0.796   6.501   5.408
    1   AR   Ar   12   7.012   1.801   4.691
    1   AR   Ar   13   0.120   0.143   4.680
    1   AR   Ar   14   4.494   1.150   6.222
    1   AR   Ar   15   2.884   5.702   9.353
    1   AR   Ar   16   0.493   7.039   6.411
    1   AR   Ar   17   5.727   3.465   0.862
    1   AR   Ar   18   6.942   3.903  -2.527
    1   AR   Ar   19   4.964   5.256   0.280
    1   AR   Ar   20   6.713   2.965  -2.146
    1   AR   Ar   21   2.339   0.882   2.448
    1   AR   Ar   22   5.403   0.407   1.941
    1   AR   Ar   23   0.606   5.962   0.554
    1   AR   Ar   24   6.014   2.560   3.791
    1   AR   Ar   25   1.096   3.091   5.647
    1   AR   Ar   26   6.047   6.126   4.660
    1   AR   Ar   27   1.132   0.483   1.193
    1   AR   Ar   28   2.539   2.323   3.989
    1   AR   Ar   29   5.456   0.358   7.628
    1   AR   Ar   30   6.411   0.974   3.392
    1   AR   Ar   31   0.897   0.853   6.718
    1   AR   Ar   32   0.907   1.767   6.111
    1   AR   Ar   33   6.127   5.428   0.536
    1   AR   Ar   34   1.897   4.840   3.096
    1   AR   Ar   35   5.870   5.615   2.833
    1   AR   Ar   36   3.552   1.469  -3.864
    1   AR   Ar   37   4.641   3.787   1.354
    1   AR   Ar   38   6.097   4.583   4.568
    1   AR   Ar   39   0.402   2.918   4.412
    1   AR   Ar   40   0.250   4.063   2.062
    1   AR   Ar   41   0.698   1.738   3.374
    1   AR   Ar   42   5.283   5.516   5.428
    1   AR   Ar   43   7.067   3.209   6.879
    1   AR   Ar   44   1.191   3.968   3.085
    1   AR   Ar   45   2.010   3.687   5.480
    1   AR   Ar   46   6.341   5.380   7.124
    1   AR   Ar   47   2.509   3.637   6.824
    1   AR   Ar   48   0.263   3.694   7.911
    1   AR   Ar   49   0.332   1.544   0.450
    1   AR   Ar   50   2.780   4.355   0.230
    1   AR   Ar   51   5.352   4.009   2.801
    1   AR   Ar   52   5.544   3.362  -1.938
    1   AR   Ar   53   4.306   7.114   3.015
    1   AR   Ar   54   6.486   6.866   2.847
    1   AR   Ar   55   6.760   4.932   2.146
    1   AR   Ar   56   5.488   1.406   3.820
    1   AR   Ar   57   4.920   5.090   2.518
    1   AR   Ar   58   1.393   3.310   4.633
    1   AR   Ar   59   3.319   5.469   5.430
    1   AR   Ar   60   0.748   5.356   2.786
    1   AR   Ar   61   7.059   4.578   6.507
    1   AR   Ar   62   6.697   4.116   5.460
    1   AR   Ar   63   1.937   1.773   7.274
    1   AR   Ar   64   0.772   4.864   3.929
    1   AR   Ar   65   4.038   1.044   2.678
    1   AR   Ar   66   1.565   1.691   1.357
    1   AR   Ar   67   4.623   1.056  -0.555
    1   AR   Ar   68   6.648   0.621   0.149
    1   AR   Ar   69   2.586   2.523   0.675
    1   AR   Ar   70   0.274   1.385   1.663
    1   AR   Ar   71   3.204   0.460   3.007
    1   AR   Ar   72   4.659   1.035   1.413
    1   AR   Ar   73   3.294   0.189   4.310
    1   AR   Ar   74   0.951   0.591   3.320
    1   AR   Ar   75   2.276   0.627   5.334
    1   AR   Ar   76   2.708   0.072   1.834
    1   AR   Ar   77   1.386   5.524   5.944
    1   AR   Ar   78   0.176   5.613   6.250
    1   AR   Ar   79   3.486   6.853   5.296
    1   AR   Ar   80   3.587   4.549   6.041
    1   AR   Ar   81   1.642   6.327   2.043
    1   AR   Ar   82   7.006   4.985   1.155
    1   AR   Ar   83   1.061   3.193   1.705
    1   AR   Ar   84   1.020   4.525   1.141
    1   AR   Ar   85   0.293   2.997  -0.493
    1   AR   Ar   86   1.624   5.655   1.062
    1   AR   Ar   87   3.885   3.008   2.597
    1   AR   Ar   88   3.561   5.318   1.364
    1   AR   Ar   89   5.694   2.415   1.119
    1   AR   Ar   90   3.372   1.218   5.914
    1   AR   Ar   91   1.665   1.401   3.260
    1   AR   Ar   92   3.945   2.978   1.101
    1   AR   Ar   93   1.159   0.832   5.649
    1   AR   Ar   94   6.940   6.767   9.316
    1   AR   Ar   95   5.366   1.047   6.881
    1   AR   Ar   96   2.101   6.637   5.545
    1   AR   Ar   97   4.582   1.448  -1.781
    1   AR   Ar   98   1.717   4.435   4.129
    1   AR   Ar   99   5.902   6.280  -0.816
    1   AR   Ar  100   6.002   2.952  -2.872
    1   AR   Ar  101   4.056   6.070   3.196
    1   AR   Ar  102   4.490   1.936   2.009
    1   AR   Ar  103   1.457   4.046   1.976
    1   AR   Ar  104   3.306   0.386  -0.863
    1   AR   Ar  105   2.766   2.500   2.583
    1   AR   Ar  106   4.273   1.007   3.701
    1   AR   Ar  107   0.527   4.802   5.575
    1   AR   Ar  108   2.198   0.732   3.796
    1   AR   Ar  109   2.486   4.746   4.703
    1   AR   Ar  110   1.931   2.471   5.297
    1   AR   Ar  111   4.275   4.452   7.272
    1   AR   Ar  112   6.215   6.253   6.664
    1   AR   Ar  113   6.880   5.722  -1.632
    1   AR   Ar  114   2.322   7.089  -0.006
    1   AR   Ar  115   0.377   4.420  -0.499
    1   AR   Ar  116   5.483   1.246   0.351
    1   AR   Ar  117   0.082   4.110   3.301
    1   AR   Ar  118   2.139   6.661   3.726
    1   AR   Ar  119   1.979   3.317   2.549
    1   AR   Ar  120   2.072   6.984   2.684
    1   AR   Ar  121   5.257   3.773   7.164
    1   AR   Ar  122   3.090   5.320   3.428
    1   AR   Ar  123   3.708   2.196   5.144
    1   AR   Ar  124   0.690   5.472   1.734
    1   AR   Ar  125   6.202   3.773   3.758
    1   AR   Ar  126   0.205   0.793   7.624
    1   AR   Ar  127   4.629   3.666   5.743
    1   AR   Ar  128   0.677   3.872   6.282
    1   AR   Ar  129   1.531   5.592   4.361
    1   AR   Ar  130   4.933   0.483  -4.811
    1   AR   Ar  131   3.549   6.036  -0.372
    1   AR   Ar  132   1.967   2.770   1.714
    1   AR   Ar  133   4.179   0.573   4.643
    1   AR   Ar  134   2.738   1.359   4.316
    1   AR   Ar  135   6.186   6.917   5.370
    1   AR   Ar  136   5.358   6.597   2.791
    1   AR   Ar  137   2.390   5.037   5.709
    1   AR   Ar  138   5.889   1.816   6.151
    1   AR   Ar  139   6.079   2.278   4.931
    1   AR   Ar  140   4.971   6.531   4.892
    1   AR   Ar  141   3.452   5.214   4.429
    1   AR   Ar  142   3.930   5.582   9.034
    1   AR   Ar  143   5.597   6.567   7.936
    1   AR   Ar  144   7.102   2.655   5.399
    1   AR   Ar  145   4.884   4.618  -1.758
    1   AR   Ar  146   4.113   2.303   4.023
    1   AR   Ar  147   4.743   4.181  -0.335
    1   AR   Ar  148   2.242   5.839  -0.399
    1   AR   Ar  149   6.730   1.916  -0.175
    1   AR   Ar  150   1.222   2.169   2.181
    1   AR   Ar  151   2.909   3.391   1.974
    1   AR   Ar  152   1.007   1.642  -0.643
    1   AR   Ar  153   5.372   0.556   2.984
    1   AR   Ar  154   5.238   3.323   4.094
    1   AR   Ar  155   6.141   3.350   5.749
    1   AR   Ar  156   2.841   3.803   3.017
    1   AR   Ar  157   3.361   5.695   6.572
    1   AR   Ar  158   0.788   2.540   7.415
    1   AR   Ar  159   4.817   0.279   5.606
    1   AR   Ar  160   0.783   1.410   4.376
    1   AR   Ar  161   5.065   4.607   3.527
    1   AR   Ar  162   4.113   5.600  -1.227
    1   AR   Ar  163   6.399   3.704   2.336
    1   AR   Ar  164   2.080   5.919   2.877
    1   AR   Ar  165   3.355   3.906   1.007
    1   AR   Ar  166   2.881   3.143   5.084
    1   AR   Ar  167   6.175   6.816   3.923
    1   AR   Ar  168   5.577   4.245  -2.538
    1   AR   Ar  169   4.451   3.693   3.369
    1   AR   Ar  170   3.033   2.624   5.871
    1   AR   Ar  171   4.409   5.383   4.105
    1   AR   Ar  172   4.322   3.112   4.793
    1   AR   Ar  173   0.860   1.565   7.910
    1   AR   Ar  174   2.910   6.341   4.334
    1   AR   Ar  175   0.989   0.070   7.384
    1   AR   Ar  176   3.555   3.181   3.684
    1   AR   Ar  177   6.868   4.140  -1.348
    1   AR   Ar  178   2.056   6.868   0.998
    1   AR   Ar  179   3.195   6.365   0.693
    1   AR   Ar  180   5.163   6.106  -7.064
    1   AR   Ar  181   7.115   6.127   2.289
    1   AR   Ar  182   0.845   6.675   2.815
    1   AR   Ar  183   5.105   5.615   1.476
    1   AR   Ar  184   3.855   5.246   0.359
    1   AR   Ar  185   3.265   4.216   4.350
    1   AR   Ar  186   3.124   6.455   3.276
    1   AR   Ar  187   4.073   6.764   3.938
    1   AR   Ar  188   3.470   1.168   1.756
    1   AR   Ar  189   6.248   2.739   6.575
    1   AR   Ar  190   1.419   0.421   4.359
    1   AR   Ar  191   3.872   6.099   4.709
    1   AR   Ar  192   3.668   3.334   6.221
    1   AR   Ar  193   3.108   6.233   2.077
    1   AR   Ar  194   4.753   6.174  -0.527
    1   AR   Ar  195   6.310   1.182   1.176
    1   AR   Ar  196   4.632   6.735   0.843
    1   AR   Ar  197   4.740   2.973   0.406
    1   AR   Ar  198   6.698   6.591   1.314
    1   AR   Ar  199   6.917   0.429   1.994
    1   AR   Ar  200   5.735   2.248  -0.009
    1   AR   Ar  201   6.982   5.388   3.344
    1   AR   Ar  202   5.071   0.154   3.881
    1   AR   Ar  203   0.308   6.907   3.751
    1   AR   Ar  204   4.701   5.128   7.978
    1   AR   Ar  205   5.445   1.915   2.024
    1   AR   Ar  206   5.903   0.161   6.351
    1   AR   Ar  207   0.317   3.925   4.703
    1   AR   Ar  208   0.764   5.889   3.701
    1   AR   Ar  209   5.521   2.196  -1.897
    1   AR   Ar  210   1.972   1.749   0.291
    1   AR   Ar  211   6.888   2.723   0.641
    1   AR   Ar  212   6.480   4.144   0.381
    1   AR   Ar  213   3.988   1.794   1.015
    1   AR   Ar  214   5.526   4.545   1.776
    1   AR   Ar  215   0.042   2.929   2.802
    1   AR   Ar  216   1.981   2.493  -0.328
    1   AR   Ar  217   5.023   2.292   4.448
    1   AR   Ar  218   4.820   2.236   5.497
    1   AR   Ar  219   4.361   4.138   2.377
    1   AR   Ar  220   4.413   4.763   1.188
    1   AR   Ar  221   6.959   6.079   4.062
    1   AR   Ar  222   4.973   6.531   6.132
    1   AR   Ar  223   7.039   1.004   6.085
    1   AR   Ar  224   5.144   1.163   4.727
    1   AR   Ar  225   5.955   2.840   2.750
    1   AR   Ar  226   2.446   3.653   3.925
    1   AR   Ar  227   1.401   2.259   4.221
    1   AR   Ar  228   6.148   1.071   2.157
    1   AR   Ar  229   5.906   4.108  -0.900
    1   AR   Ar  230   4.003   4.808   3.131
    1   AR   Ar  231   4.766   2.657   3.186
    1   AR   Ar  232   5.493   3.313   1.825
    1   AR   Ar  233   6.832   2.131   3.357
    1   AR   Ar  234   6.586   3.220   4.617
    1   AR   Ar  235   6.421   0.940   4.500
    1   AR   Ar  236   4.435   4.373   4.321
    1   AR   Ar  237   4.751   1.513   7.584
    1   AR   Ar  238   4.808   4.708   5.819
    1   AR   Ar  239   1.174   4.226  10.687
    1   AR   Ar  240   1.606   2.894   6.735
    1   AR   Ar  241   1.347   6.590  -0.136
    1   AR   Ar  242   5.804   6.565   1.939
    1   AR   Ar  243   4.189   6.148   1.887
    1   AR   Ar  244   6.418   6.519   0.343
    1   AR   Ar  245   2.906   1.642   3.167
    1   AR   Ar  246   5.317   5.708  -1.552
    1   AR   Ar  247   6.954   3.479   1.221
    1   AR   Ar  248   5.663   5.378  -0.515
    1   AR   Ar  249   3.376   0.688   0.517
    1   AR   Ar  250   5.128   6.210   3.854
    1   AR   Ar  251   5.661   3.827   5.050
    1   AR   Ar  252   2.762   4.759   2.341
    1   AR   Ar  253   5.442   2.621   7.317
    1   AR   Ar  254   3.586   4.609  12.827
    1   AR   Ar  255   5.200   6.069   9.082
    1   AR   Ar  256   5.931   5.502   3.821
    7.12000  7.12000 12.00000
Argon-slab step 5630
  256
    1   AR   Ar    1   3.721   2.890  -1.998
    1   AR   Ar    2   5.770   0.099   0.970
    1   AR   Ar    3   4.628   3.503  -1.149
    1   AR   Ar    4   2.447   1.099   1.451
    1   AR   Ar    5   6.806   5.350  -0.535
    1   AR   Ar    6   1.276   1.003   2.132
    1   AR   Ar    7   6.170   4.639   3.125
    1   AR   Ar    8   6.161   3.335  -0.201
    1   AR   Ar    9   0.469   5.633   4.840
    1   AR   Ar   10   5.899   4.613   6.249
    1   AR   Ar   11   0.791   6.490   5.406
    1   AR   Ar   12   7.020   1.811   4.681
    1   AR   Ar   13   0.095   0.147   4.690
    1   AR   Ar   14   4.488   1.140   6.208
    1   AR   Ar   15   2.884   5.686   9.352
    1   AR   Ar   16   0.471   7.035   6.396
    1   AR   Ar   17   5.754   3.471   0.869
    1   AR   Ar   18   6.946   3.892  -2.528
    1   AR   Ar   19   4.960   5.232   0.283
    1   AR   Ar   20   6.699   2.956  -2.104
    1   AR   Ar   21   2.374   0.863   2.447
    1   AR   Ar   22   5.397   0.389   1.957
    1   AR   Ar   23   0.573   5.948   0.568
    1   AR   Ar   24   5.992   2.556   3.839
    1   AR   Ar   25   1.105   3.109   5.625
    1   AR   Ar   26   6.058   6.138   4.666
    1   AR   Ar   27   1.127   0.475   1.174
    1   AR   Ar   28   2.540   2.297   4.014
    1   AR   Ar   29   5.449   0.342   7.610
    1   AR   Ar   30   6.405   0.964   3.368
    1   AR   Ar   31   0.884   0.862   6.728
    1   AR   Ar   32   0.911   1.762   6.095
    1   AR   Ar   33   6.096   5.440   0.511
    1   AR   Ar   34   1.897   4.836   3.085
    1   AR   Ar   35   5.918   5.623   2.844
    1   AR   Ar   36   3.560   1.448  -3.860
    1   AR   Ar   37   4.655   3.818   1.356
    1   AR   Ar   38   6.092   4.583   4.574
    1   AR   Ar   39   0.399   2.930   4.387
    1   AR   Ar   40   0.240   4.077   2.061
    1   AR   Ar   41   0.698   1.743   3.376
    1   AR   Ar   42   5.276   5.515   5.427
    1   AR   Ar   43   7.092   3.191   6.890
    1   AR   Ar   44   1.199   3.966   3.071
    1   AR   Ar   45   2.014   3.709   5.482
    1   AR   Ar   46   6.353   5.359   7.152
    1   AR   Ar   47   2.511   3.687   6.843
    1   AR   Ar   48   0.277   3.710   7.916
    1   AR   Ar   49   0.323   1.562   0.474
    1   AR   Ar   50   2.791   4.377   0.230
    1   AR   Ar   51   5.342   4.011   2.800
    1   AR   Ar   52   5.587   3.351  -1.944
    1   AR   Ar   53   4.298   0.024   2.996
    1   AR   Ar   54   6.460   6.842   2.874
    1   AR   Ar   55   6.757   4.945   2.174
    1   AR   Ar   56   5.476   1.396   3.840
    1   AR   Ar   57   4.888   5.074   2.552
    1   AR   Ar   58   1.387   3.305   4.616
    1   AR   Ar   59   3.334   5.456   5.441
    1   AR   Ar   60   0.766   5.339   2.757
    1   AR   Ar   61   7.035   4.613   6.508
    1   AR   Ar   62   6.701   4.102   5.447
    1   AR   Ar   63   1.927   1.749   7.283
    1   AR   Ar   64   0.753   4.872   3.923
    1   AR   Ar   65   4.048   1.046   2.671
    1   AR   Ar   66   1.584   1.706   1.303
    1   AR   Ar   67   4.608   1.068  -0.586
    1   AR   Ar   68   6.631   0.604   0.185
    1   AR   Ar   69   2.587   2.482   0.671
    1   AR   Ar   70   0.247   1.365   1.663
    1   AR   Ar   71   3.197   0.471   2.998
    1   AR   Ar   72   4.677   1.017   1.413
    1   AR   Ar   73   3.312   0.170   4.356
    1   AR   Ar   74   0.948   0.620   3.315
    1   AR   Ar   75   2.298   0.618   5.320
    1   AR   Ar   76   2.702   0.083   1.855
    1   AR   Ar   77   1.395   5.552   5.944
    1   AR   Ar   78   0.203   5.623   6.271
    1   AR   Ar   79   3.490   6.844   5.323
    1   AR   Ar   80   3.582   4.532   6.039
    1   AR   Ar   81   1.622   6.331   2.067
    1   AR   Ar   82   7.002   4.983   1.144
    1   AR   Ar   83   1.032   3.188   1.692
    1   AR   Ar   84   1.032   4.519   1.161
    1   AR   Ar   85   0.288   2.973  -0.522
    1   AR   Ar   86   1.611   5.679   1.089
    1   AR   Ar   87   3.891   2.993   2.578
    1   AR   Ar   88   3.584   5.292   1.372
    1   AR   Ar   89   5.704   2.445   1.110
    1   AR   Ar   90   3.387   1.216   5.895
    1   AR   Ar   91   1.692   1.420   3.254
    1   AR   Ar   92   3.917   2.963   1.097
    1   AR   Ar   93   1.180   0.846   5.639
    1   AR   Ar   94   6.963   6.779   9.322
    1   AR   Ar   95   5.389   1.074   6.886
    1   AR   Ar   96   2.085   6.677   5.551
    1   AR   Ar   97   4.593   1.446  -1.781
    1   AR   Ar   98   1.705   4.455   4.126
    1   AR   Ar   99   5.888   6.304  -0.810
    1   AR   Ar  100   6.000   2.959  -2.875
    1   AR   Ar  101   4.069   6.055   3.179
    1   AR   Ar  102   4.490   1.943   2.002
    1   AR   Ar  103   1.436   4.048   2.008
    1   AR   Ar  104   3.328   0.407  -0.840
    1   AR   Ar  105   2.755   2.515   2.579
    1   AR   Ar  106   4.285   1.002   3.667
    1   AR   Ar  107   0.491   4.816   5.582
    1   AR   Ar  108   2.237   0.717   3.772
    1   AR   Ar  109   2.498   4.747   4.707
    1   AR   Ar  110   1.943   2.450   5.311
    1   AR   Ar  111   4.279   4.435   7.251
    1   AR   Ar  112   6.224   6.260   6.672
    1   AR   Ar  113   6.877   5.735  -1.640
    1   AR   Ar  114   2.361   7.095  -0.037
    1   AR   Ar  115   0.342   4.431  -0.500
    1   AR   Ar  116   5.484   1.243   0.360
    1   AR   Ar  117   0.045   4.097   3.293
    1   AR   Ar  118   2.137   6.669   3.693
    1   AR   Ar  119   2.002   3.315   2.589
    1   AR   Ar  120   2.071   6.966   2.707
    1   AR   Ar  121   5.277   3.772   7.147
    1   AR   Ar  122   3.082   5.335   3.449
    1   AR   Ar  123   3.706   2.181   5.135
    1   AR   Ar  124   0.686   5.465   1.703
    1   AR   Ar  125   6.238   3.756   3.771
    1   AR   Ar  126   0.198   0.781   7.611
    1   AR   Ar  127   4.618   3.638   5.759
    1   AR   Ar  128   0.697   3.879   6.271
    1   AR   Ar  129   1.534   5.594   4.372
    1   AR   Ar  130   4.922   0.432  -4.780
    1   AR   Ar  131   3.591   6.034  -0.388
    1   AR   Ar  132   1.978   2.758   1.739
    1   AR   Ar  133   4.200   0.553   4.649
    1   AR   Ar  134   2.743   1.358   4.307
    1   AR   Ar  135   6.165   6.901   5.403
    1   AR   Ar  136   5.326   6.594   2.779
    1   AR   Ar  137   2.414   5.066   5.695
    1   AR   Ar  138   5.893   1.853   6.134
    1   AR   Ar  139   6.096   2.316   4.932
    1   AR   Ar  140   4.982   6.555   4.879
    1   AR   Ar  141   3.457   5.203   4.420
    1   AR   Ar  142   3.905   5.629   9.025
    1   AR   Ar  143   5.568   6.560   7.990
    1   AR   Ar  144   7.092   2.659   5.397
    1   AR   Ar  145   4.874   4.593  -1.778
    1   AR   Ar  146   4.113   2.330   4.041
    1   AR   Ar  147   4.744   4.149  -0.343
    1   AR   Ar  148   2.203   5.839  -0.385
    1   AR   Ar  149   6.733   1.914  -0.148
    1   AR   Ar  150   1.190   2.151   2.205
    1   AR   Ar  151   2.905   3.361   1.952
    1   AR   Ar  152   0.989   1.673  -0.651
    1   AR   Ar  153   5.350   0.565   2.933
    1   AR   Ar  154   5.249   3.335   4.110
    1   AR   Ar  155   6.119   3.364   5.745
    1   AR   Ar  156   2.832   3.795   3.011
    1   AR   Ar  157   3.398   5.682   6.572
    1   AR   Ar  158   0.779   2.567   7.407
    1   AR   Ar  159   4.811   0.279   5.590
    1   AR   Ar  160   0.796   1.406   4.376
    1   AR   Ar  161   5.082   4.612   3.513
    1   AR   Ar  162   4.095   5.605  -1.250
    1   AR   Ar  163   6.430   3.708   2.360
    1   AR   Ar  164   2.101   5.930   2.827
    1   AR   Ar  165   3.366   3.873   1.021
    1   AR   Ar  166   2.882   3.113   5.075
    1   AR   Ar  167   6.162   6.816   3.935
    1   AR   Ar  168   5.583   4.271  -2.552
    1   AR   Ar  169   4.435   3.672   3.381
    1   AR   Ar  170   3.024   2.665   5.869
    1   AR   Ar  171   4.394   5.385   4.119
    1   AR   Ar  172   4.318   3.093   4.796
    1   AR   Ar  173   0.864   1.566   7.929
    1   AR   Ar  174   2.927   6.331   4.354
    1   AR   Ar  175   0.996   0.120   7.413
    1   AR   Ar  176   3.554   3.169   3.684
    1   AR   Ar  177   6.894   4.147  -1.367
    1   AR   Ar  178   2.022   6.871   1.051
    1   AR   Ar  179   3.206   6.372   0.698
    1   AR   Ar  180   5.161   6.091  -7.047
    1   AR   Ar  181   7.106   6.168   2.253
    1   AR   Ar  182   0.864   6.690   2.847
    1   AR   Ar  183   5.092   5.616   1.474
    1   AR   Ar  184   3.846   5.203   0.379
    1   AR   Ar  185   3.259   4.206   4.338
    1   AR   Ar  186   3.135   6.449   3.276
    1   AR   Ar  187   4.071   6.777   3.949
    1   AR   Ar  188   3.489   1.172   1.741
    1   AR   Ar  189   6.251   2.728   6.567
    1   AR   Ar  190   1.437   0.430   4.363
    1   AR   Ar  191   3.864   6.120   4.712
    1   AR   Ar  192   3.670   3.329   6.234
    1   AR   Ar  193   3.121   6.245   2.089
    1   AR   Ar  194   4.767   6.178  -0.530
    1   AR   Ar  195   6.304   1.190   1.205
    1   AR   Ar  196   4.663   6.740   0.853
    1   AR   Ar  197   4.753   2.981   0.402
    1   AR   Ar  198   6.702   6.574   1.306
    1   AR   Ar  199   6.918   0.447   2.015
    1   AR   Ar  200   5.704   2.240  -0.001
    1   AR   Ar  201   7.000   5.340   3.381
    1   AR   Ar  202   5.026   0.161   3.854
    1   AR   Ar  203   0.290   6.931   3.757
    1   AR   Ar  204   4.714   5.117   7.986
    1   AR   Ar  205   5.443   1.935   2.028
    1   AR   Ar  206   5.952   0.155   6.342
    1   AR   Ar  207   0.335   3.914   4.700
    1   AR   Ar  208   0.751   5.923   3.699
    1   AR   Ar  209   5.513   2.234  -1.890
    1   AR   Ar  210   1.989   1.756   0.276
    1   AR   Ar  211   6.904   2.726   0.645
    1   AR   Ar  212   6.464   4.126   0.434
    1   AR   Ar  213   3.979   1.787   1.021
    1   AR   Ar  214   5.589   4.569   1.787
    1   AR   Ar  215   0.012   2.912   2.798
    1   AR   Ar  216   1.978   2.514  -0.336
    1   AR   Ar  217   5.016   2.297   4.443
    1   AR   Ar  218   4.806   2.229   5.484
    1   AR   Ar  219   4.421   4.147   2.357
    1   AR   Ar  220   4.408   4.743   1.141
    1   AR   Ar  221   6.966   6.076   4.057
    1   AR   Ar  222   4.975   6.514   6.132
    1   AR   Ar  223   7.061   0.958   6.104
    1   AR   Ar  224   5.086   1.149   4.758
    1   AR   Ar  225   5.957   2.843   2.763
    1   AR   Ar  226   2.463   3.636   3.940
    1   AR   Ar  227   1.406   2.277   4.239
    1   AR   Ar  228   6.168   1.043   2.182
    1   AR   Ar  229   5.906   4.084  -0.924
    1   AR   Ar  230   4.014   4.801   3.130
    1   AR   Ar  231   4.767   2.675   3.202
    1   AR   Ar  232   5.499   3.330   1.832
    1   AR   Ar  233   6.819   2.095   3.351
    1   AR   Ar  234   6.602   3.252   4.612
    1   AR   Ar  235   6.434   0.923   4.515
    1   AR   Ar  236   4.438   4.351   4.288
    1   AR   Ar  237   4.752   1.511   7.559
    1   AR   Ar  238   4.809   4.725   5.832
    1   AR   Ar  239   1.167   4.167  10.708
    1   AR   Ar  240   1.623   2.881   6.720
    1   AR   Ar  241   1.332   6.580  -0.156
    1   AR   Ar  242   5.805   6.569   1.928
    1   AR   Ar  243   4.168   6.168   1.879
    1   AR   Ar  244   6.373   6.542   0.348
    1   AR   Ar  245   2.886   1.634   3.165
    1   AR   Ar  246   5.320   5.694  -1.524
    1   AR   Ar  247   6.931   3.494   1.208
    1   AR   Ar  248   5.675   5.344  -0.525
    1   AR   Ar  249   3.374   0.694   0.537
    1   AR   Ar  250   5.119   6.221   3.852
    1   AR   Ar  251   5.641   3.801   5.041
    1   AR   Ar  252   2.757   4.758   2.347
    1   AR   Ar  253   5.431   2.626   7.305
    1   AR   Ar  254   3.556   4.644  12.832
    1   AR   Ar  255   5.202   6.016   9.085
    1   AR   Ar  256   5.953   5.491   3.830
    7.12000  7.12000 12.00000
Argon-slab step 5635
  256
    1   AR   Ar    1   3.710   2.861  -1.971
    1   AR   Ar    2   5.782   0.114   0.914
    1   AR   Ar    3   4.655   3.519  -1.169
    1   AR   Ar    4   2.414   1.084   1.445
    1   AR   Ar    5   6.815   5.379  -0.536
    1   AR   Ar    6   1.287   0.996   2.092
    1   AR   Ar    7   6.185   4.651   3.137
    1   AR   Ar    8   6.165   3.349  -0.190
    1   AR   Ar    9   0.483   5.610   4.838
    1   AR   Ar   10   5.911   4.619   6.231
    1   AR   Ar   11   0.786   6.481   5.405
    1   AR   Ar   12   7.026   1.825   4.670
    1   AR   Ar   13   0.068   0.152   4.706
    1   AR   Ar   14   4.482   1.130   6.194
    1   AR   Ar   15   2.883   5.669   9.352
    1   AR   Ar   16   0.449   7.030   6.379
    1   AR   Ar   17   5.781   3.479   0.869
    1   AR   Ar   18   6.949   3.884  -2.530
    1   AR   Ar   19   4.955   5.209   0.288
    1   AR   Ar   20   6.687   2.946  -2.057
    1   AR   Ar   21   2.404   0.850   2.455
    1   AR   Ar   22   5.386   0.371   1.962
    1   AR   Ar   23   0.540   5.934   0.583
    1   AR   Ar   24   5.968   2.554   3.888
    1   AR   Ar   25   1.100   3.120   5.589
    1   AR   Ar   26   6.066   6.143   4.679
    1   AR   Ar   27   1.123   0.469   1.155
    1   AR   Ar   28   2.540   2.281   4.037
    1   AR   Ar   29   5.441   0.333   7.590
    1   AR   Ar   30   6.399   0.953   3.343
    1   AR   Ar   31   0.876   0.859   6.739
    1   AR   Ar   32   0.916   1.765   6.088
    1   AR   Ar   33   6.066   5.451   0.487
    1   AR   Ar   34   1.892   4.839   3.085
    1   AR   Ar   35   5.966   5.636   2.843
    1   AR   Ar   36   3.532   1.456  -3.861
    1   AR   Ar   37   4.672   3.835   1.358
    1   AR   Ar   38   6.091   4.587   4.575
    1   AR   Ar   39   0.404   2.933   4.357
    1   AR   Ar   40   0.237   4.058   2.071
    1   AR   Ar   41   0.697   1.749   3.375
    1   AR   Ar   42   5.256   5.497   5.404
    1   AR   Ar   43   0.004   3.178   6.903
    1   AR   Ar   44   1.226   3.956   3.076
    1   AR   Ar   45   2.018   3.731   5.484
    1   AR   Ar   46   6.367   5.333   7.180
    1   AR   Ar   47   2.514   3.735   6.860
    1   AR   Ar   48   0.277   3.701   7.930
    1   AR   Ar   49   0.320   1.578   0.504
    1   AR   Ar   50   2.803   4.400   0.230
    1   AR   Ar   51   5.341   4.001   2.789
    1   AR   Ar   52   5.630   3.341  -1.948
    1   AR   Ar   53   4.290   0.055   2.975
    1   AR   Ar   54   6.433   6.818   2.900
    1   AR   Ar   55   6.770   4.955   2.181
    1   AR   Ar   56   5.466   1.388   3.855
    1   AR   Ar   57   4.859   5.064   2.585
    1   AR   Ar   58   1.384   3.303   4.597
    1   AR   Ar   59   3.353   5.446   5.453
    1   AR   Ar   60   0.785   5.321   2.729
    1   AR   Ar   61   7.008   4.647   6.510
    1   AR   Ar   62   6.712   4.097   5.431
    1   AR   Ar   63   1.915   1.726   7.292
    1   AR   Ar   64   0.732   4.879   3.915
    1   AR   Ar   65   4.059   1.050   2.658
    1   AR   Ar   66   1.600   1.721   1.248
    1   AR   Ar   67   4.594   1.081  -0.616
    1   AR   Ar   68   6.612   0.587   0.224
    1   AR   Ar   69   2.591   2.446   0.670
    1   AR   Ar   70   0.221   1.346   1.662
    1   AR   Ar   71   3.190   0.480   2.992
    1   AR   Ar   72   4.695   0.998   1.414
    1   AR   Ar   73   3.317   0.158   4.401
    1   AR   Ar   74   0.946   0.649   3.311
    1   AR   Ar   75   2.317   0.600   5.330
    1   AR   Ar   76   2.698   0.092   1.873
    1   AR   Ar   77   1.402   5.580   5.943
    1   AR   Ar   78   0.230   5.637   6.291
    1   AR   Ar   79   3.492   6.839   5.354
    1   AR   Ar   80   3.578   4.515   6.037
    1   AR   Ar   81   1.593   6.335   2.077
    1   AR   Ar   82   6.999   4.981   1.128
    1   AR   Ar   83   0.995   3.177   1.676
    1   AR   Ar   84   1.039   4.508   1.175
    1   AR   Ar   85   0.281   2.948  -0.551
    1   AR   Ar   86   1.597   5.703   1.116
    1   AR   Ar   87   3.897   2.979   2.559
    1   AR   Ar   88   3.600   5.271   1.387
    1   AR   Ar   89   5.703   2.466   1.081
    1   AR   Ar   90   3.397   1.214   5.882
    1   AR   Ar   91   1.721   1.442   3.244
    1   AR   Ar   92   3.888   2.946   1.096
    1   AR   Ar   93   1.200   0.856   5.627
    1   AR   Ar   94   6.986   6.790   9.327
    1   AR   Ar   95   5.416   1.101   6.882
    1   AR   Ar   96   2.068   6.716   5.555
    1   AR   Ar   97   4.583   1.433  -1.774
    1   AR   Ar   98   1.691   4.471   4.121
    1   AR   Ar   99   5.877   6.333  -0.805
    1   AR   Ar  100   5.995   2.967  -2.880
    1   AR   Ar  101   4.089   6.034   3.160
    1   AR   Ar  102   4.488   1.960   2.013
    1   AR   Ar  103   1.419   4.057   2.045
    1   AR   Ar  104   3.351   0.428  -0.816
    1   AR   Ar  105   2.759   2.497   2.554
    1   AR   Ar  106   4.300   0.997   3.638
    1   AR   Ar  107   0.455   4.827   5.589
    1   AR   Ar  108   2.277   0.690   3.737
    1   AR   Ar  109   2.529   4.765   4.707
    1   AR   Ar  110   1.956   2.431   5.323
    1   AR   Ar  111   4.283   4.417   7.228
    1   AR   Ar  112   6.234   6.278   6.682
    1   AR   Ar  113   6.874   5.747  -1.646
    1   AR   Ar  114   2.402   7.100  -0.067
    1   AR   Ar  115   0.301   4.444  -0.495
    1   AR   Ar  116   5.486   1.238   0.371
    1   AR   Ar  117   0.037   4.084   3.285
    1   AR   Ar  118   2.134   6.676   3.666
    1   AR   Ar  119   2.022   3.315   2.635
    1   AR   Ar  120   2.073   6.959   2.731
    1   AR   Ar  121   5.283   3.784   7.106
    1   AR   Ar  122   3.072   5.351   3.467
    1   AR   Ar  123   3.705   2.167   5.124
    1   AR   Ar  124   0.682   5.459   1.670
    1   AR   Ar  125   6.271   3.740   3.781
    1   AR   Ar  126   0.188   0.769   7.598
    1   AR   Ar  127   4.624   3.602   5.770
    1   AR   Ar  128   0.716   3.885   6.260
    1   AR   Ar  129   1.538   5.596   4.383
    1   AR   Ar  130   4.910   0.381  -4.749
    1   AR   Ar  131   3.632   6.032  -0.401
    1   AR   Ar  132   1.994   2.740   1.758
    1   AR   Ar  133   4.226   0.533   4.658
    1   AR   Ar  134   2.757   1.357   4.308
    1   AR   Ar  135   6.145   6.885   5.431
    1   AR   Ar  136   5.286   6.591   2.780
    1   AR   Ar  137   2.433   5.093   5.686
    1   AR   Ar  138   5.895   1.886   6.115
    1   AR   Ar  139   6.112   2.355   4.935
    1   AR   Ar  140   4.992   6.579   4.866
    1   AR   Ar  141   3.456   5.192   4.413
    1   AR   Ar  142   3.883   5.676   9.015
    1   AR   Ar  143   5.540   6.542   8.050
    1   AR   Ar  144   7.081   2.665   5.396
    1   AR   Ar  145   4.864   4.568  -1.796
    1   AR   Ar  146   4.103   2.354   4.054
    1   AR   Ar  147   4.746   4.120  -0.348
    1   AR   Ar  148   2.165   5.841  -0.369
    1   AR   Ar  149   6.731   1.914  -0.126
    1   AR   Ar  150   1.157   2.133   2.231
    1   AR   Ar  151   2.903   3.333   1.928
    1   AR   Ar  152   0.971   1.705  -0.656
    1   AR   Ar  153   5.329   0.579   2.891
    1   AR   Ar  154   5.259   3.347   4.125
    1   AR   Ar  155   6.099   3.362   5.755
    1   AR   Ar  156   2.806   3.774   2.999
    1   AR   Ar  157   3.436   5.667   6.571
    1   AR   Ar  158   0.769   2.594   7.398
    1   AR   Ar  159   4.806   0.282   5.572
    1   AR   Ar  160   0.814   1.396   4.377
    1   AR   Ar  161   5.099   4.627   3.510
    1   AR   Ar  162   4.080   5.608  -1.273
    1   AR   Ar  163   6.458   3.714   2.384
    1   AR   Ar  164   2.130   5.932   2.787
    1   AR   Ar  165   3.378   3.842   1.036
    1   AR   Ar  166   2.878   3.098   5.050
    1   AR   Ar  167   6.150   6.824   3.942
    1   AR   Ar  168   5.591   4.296  -2.566
    1   AR   Ar  169   4.420   3.655   3.393
    1   AR   Ar  170   3.012   2.683   5.893
    1   AR   Ar  171   4.389   5.391   4.127
    1   AR   Ar  172   4.313   3.075   4.800
    1   AR   Ar  173   0.870   1.568   7.946
    1   AR   Ar  174   2.944   6.312   4.388
    1   AR   Ar  175   1.005   0.162   7.446
    1   AR   Ar  176   3.548   3.158   3.684
    1   AR   Ar  177   6.919   4.154  -1.388
    1   AR   Ar  178   1.988   6.874   1.104
    1   AR   Ar  179   3.216   6.380   0.703
    1   AR   Ar  180   5.158   6.075  -7.030
    1   AR   Ar  181   7.098   6.207   2.220
    1   AR   Ar  182   0.861   6.715   2.862
    1   AR   Ar  183   5.080   5.616   1.472
    1   AR   Ar  184   3.833   5.182   0.384
    1   AR   Ar  185   3.262   4.186   4.322
    1   AR   Ar  186   3.140   6.441   3.281
    1   AR   Ar  187   4.076   6.789   3.959
    1   AR   Ar  188   3.509   1.173   1.728
    1   AR   Ar  189   6.231   2.729   6.546
    1   AR   Ar  190   1.450   0.427   4.376
    1   AR   Ar  191   3.876   6.117   4.720
    1   AR   Ar  192   3.696   3.330   6.255
    1   AR   Ar  193   3.131   6.256   2.103
    1   AR   Ar  194   4.781   6.181  -0.532
    1   AR   Ar  195   6.299   1.200   1.224
    1   AR   Ar  196   4.694   6.744   0.864
    1   AR   Ar  197   4.773   2.971   0.386
    1   AR   Ar  198   6.710   6.559   1.304
    1   AR   Ar  199   6.929   0.453   2.032
    1   AR   Ar  200   5.673   2.236   0.008
    1   AR   Ar  201   7.015   5.284   3.410
    1   AR   Ar  202   4.981   0.170   3.831
    1   AR   Ar  203   0.276   6.959   3.753
    1   AR   Ar  204   4.728   5.108   7.995
    1   AR   Ar  205   5.463   1.955   2.033
    1   AR   Ar  206   5.998   0.152   6.337
    1   AR   Ar  207   0.356   3.910   4.697
    1   AR   Ar  208   0.749   5.958   3.692
    1   AR   Ar  209   5.505   2.272  -1.883
    1   AR   Ar  210   1.998   1.754   0.265
    1   AR   Ar  211   6.917   2.713   0.634
    1   AR   Ar  212   6.452   4.115   0.486
    1   AR   Ar  213   3.971   1.781   1.025
    1   AR   Ar  214   5.652   4.592   1.799
    1   AR   Ar  215   7.104   2.901   2.791
    1   AR   Ar  216   1.975   2.547  -0.352
    1   AR   Ar  217   5.022   2.300   4.440
    1   AR   Ar  218   4.792   2.222   5.473
    1   AR   Ar  219   4.476   4.154   2.335
    1   AR   Ar  220   4.407   4.735   1.107
    1   AR   Ar  221   6.958   6.075   4.064
    1   AR   Ar  222   4.978   6.493   6.132
    1   AR   Ar  223   7.085   0.912   6.122
    1   AR   Ar  224   5.027   1.135   4.794
    1   AR   Ar  225   5.974   2.860   2.751
    1   AR   Ar  226   2.475   3.615   3.961
    1   AR   Ar  227   1.412   2.296   4.256
    1   AR   Ar  228   6.178   1.025   2.220
    1   AR   Ar  229   5.903   4.063  -0.948
    1   AR   Ar  230   4.025   4.794   3.132
    1   AR   Ar  231   4.771   2.691   3.218
    1   AR   Ar  232   5.504   3.346   1.848
    1   AR   Ar  233   6.803   2.055   3.347
    1   AR   Ar  234   6.607   3.286   4.613
    1   AR   Ar  235   6.445   0.916   4.499
    1   AR   Ar  236   4.437   4.324   4.258
    1   AR   Ar  237   4.752   1.511   7.537
    1   AR   Ar  238   4.806   4.734   5.849
    1   AR   Ar  239   1.161   4.108  10.728
    1   AR   Ar  240   1.639   2.869   6.705
    1   AR   Ar  241   1.317   6.569  -0.175
    1   AR   Ar  242   5.815   6.568   1.906
    1   AR   Ar  243   4.188   6.133   1.867
    1   AR   Ar  244   6.326   6.564   0.344
    1   AR   Ar  245   2.865   1.621   3.165
    1   AR   Ar  246   5.321   5.679  -1.496
    1   AR   Ar  247   6.909   3.526   1.210
    1   AR   Ar  248   5.686   5.305  -0.533
    1   AR   Ar  249   3.371   0.699   0.559
    1   AR   Ar  250   5.114   6.241   3.843
    1   AR   Ar  251   5.607   3.777   5.020
    1   AR   Ar  252   2.749   4.759   2.357
    1   AR   Ar  253   5.421   2.631   7.292
    1   AR   Ar  254   3.526   4.680  12.837
    1   AR   Ar  255   5.204   5.963   9.087
    1   AR   Ar  256   5.976   5.477   3.846
    7.12000  7.12000 12.00000
Argon-slab step 5640
  256
    1   AR   Ar    1   3.701   2.831  -1.944
    1   AR   Ar    2   5.792   0.134   0.861
    1   AR   Ar    3   4.682   3.532  -1.195
    1   AR   Ar    4   2.383   1.068   1.435
    1   AR   Ar    5   6.823   5.409  -0.536
    1   AR   Ar    6   1.298   0.990   2.055
    1   AR   Ar    7   6.193   4.621   3.130
    1   AR   Ar    8   6.173   3.367  -0.183
    1   AR   Ar    9   0.496   5.585   4.834
    1   AR   Ar   10   5.923   4.624   6.212
    1   AR   Ar   11   0.779   6.488   5.391
    1   AR   Ar   12   7.030   1.842   4.659
    1   AR   Ar   13   0.041   0.157   4.729
    1   AR   Ar   14   4.477   1.122   6.179
    1   AR   Ar   15   2.879   5.652   9.352
    1   AR   Ar   16   0.426   7.024   6.362
    1   AR   Ar   17   5.803   3.486   0.866
    1   AR   Ar   18   6.951   3.876  -2.532
    1   AR   Ar   19   4.950   5.186   0.292
    1   AR   Ar   20   6.675   2.934  -2.007
    1   AR   Ar   21   2.426   0.847   2.470
    1   AR   Ar   22   5.380   0.353   1.940
    1   AR   Ar   23   0.517   5.947   0.621
    1   AR   Ar   24   5.945   2.553   3.935
    1   AR   Ar   25   1.094   3.128   5.556
    1   AR   Ar   26   6.071   6.142   4.698
    1   AR   Ar   27   1.119   0.463   1.136
    1   AR   Ar   28   2.527   2.269   4.037
    1   AR   Ar   29   5.437   0.320   7.578
    1   AR   Ar   30   6.393   0.941   3.319
    1   AR   Ar   31   0.869   0.863   6.744
    1   AR   Ar   32   0.925   1.778   6.093
    1   AR   Ar   33   6.036   5.463   0.464
    1   AR   Ar   34   1.879   4.852   3.100
    1   AR   Ar   35   6.014   5.653   2.834
    1   AR   Ar   36   3.504   1.464  -3.861
    1   AR   Ar   37   4.694   3.835   1.360
    1   AR   Ar   38   6.092   4.594   4.574
    1   AR   Ar   39   0.414   2.927   4.324
    1   AR   Ar   40   0.243   4.040   2.079
    1   AR   Ar   41   0.697   1.757   3.373
    1   AR   Ar   42   5.241   5.489   5.374
    1   AR   Ar   43   0.038   3.168   6.915
    1   AR   Ar   44   1.250   3.946   3.087
    1   AR   Ar   45   2.023   3.753   5.485
    1   AR   Ar   46   6.380   5.304   7.207
    1   AR   Ar   47   2.517   3.782   6.874
    1   AR   Ar   48   0.277   3.691   7.943
    1   AR   Ar   49   0.322   1.591   0.540
    1   AR   Ar   50   2.816   4.423   0.231
    1   AR   Ar   51   5.354   3.980   2.773
    1   AR   Ar   52   5.672   3.336  -1.948
    1   AR   Ar   53   4.284   0.084   2.952
    1   AR   Ar   54   6.405   6.796   2.925
    1   AR   Ar   55   6.795   4.963   2.176
    1   AR   Ar   56   5.457   1.380   3.868
    1   AR   Ar   57   4.837   5.062   2.613
    1   AR   Ar   58   1.385   3.306   4.576
    1   AR   Ar   59   3.378   5.440   5.463
    1   AR   Ar   60   0.805   5.303   2.704
    1   AR   Ar   61   6.980   4.678   6.511
    1   AR   Ar   62   6.725   4.099   5.415
    1   AR   Ar   63   1.901   1.703   7.300
    1   AR   Ar   64   0.711   4.885   3.908
    1   AR   Ar   65   4.071   1.057   2.637
    1   AR   Ar   66   1.613   1.738   1.196
    1   AR   Ar   67   4.579   1.093  -0.647
    1   AR   Ar   68   6.593   0.572   0.264
    1   AR   Ar   69   2.583   2.454   0.669
    1   AR   Ar   70   0.198   1.330   1.660
    1   AR   Ar   71   3.187   0.485   2.990
    1   AR   Ar   72   4.713   0.980   1.415
    1   AR   Ar   73   3.310   0.154   4.444
    1   AR   Ar   74   0.944   0.677   3.306
    1   AR   Ar   75   2.337   0.585   5.337
    1   AR   Ar   76   2.697   0.096   1.886
    1   AR   Ar   77   1.399   5.565   5.962
    1   AR   Ar   78   0.257   5.654   6.310
    1   AR   Ar   79   3.492   6.836   5.389
    1   AR   Ar   80   3.584   4.490   6.012
    1   AR   Ar   81   1.552   6.341   2.071
    1   AR   Ar   82   6.995   4.977   1.111
    1   AR   Ar   83   0.954   3.164   1.660
    1   AR   Ar   84   1.043   4.499   1.188
    1   AR   Ar   85   0.272   2.923  -0.578
    1   AR   Ar   86   1.583   5.728   1.142
    1   AR   Ar   87   3.902   2.966   2.540
    1   AR   Ar   88   3.609   5.256   1.410
    1   AR   Ar   89   5.703   2.483   1.054
    1   AR   Ar   90   3.387   1.207   5.899
    1   AR   Ar   91   1.752   1.466   3.233
    1   AR   Ar   92   3.863   2.924   1.096
    1   AR   Ar   93   1.221   0.863   5.613
    1   AR   Ar   94   7.009   6.802   9.332
    1   AR   Ar   95   5.447   1.128   6.870
    1   AR   Ar   96   2.050   6.751   5.559
    1   AR   Ar   97   4.574   1.420  -1.767
    1   AR   Ar   98   1.677   4.484   4.115
    1   AR   Ar   99   5.868   6.364  -0.798
    1   AR   Ar  100   5.990   2.974  -2.888
    1   AR   Ar  101   4.113   6.010   3.140
    1   AR   Ar  102   4.474   1.988   2.030
    1   AR   Ar  103   1.406   4.069   2.084
    1   AR   Ar  104   3.373   0.449  -0.791
    1   AR   Ar  105   2.764   2.479   2.530
    1   AR   Ar  106   4.316   0.991   3.617
    1   AR   Ar  107   0.421   4.836   5.594
    1   AR   Ar  108   2.316   0.654   3.695
    1   AR   Ar  109   2.561   4.789   4.707
    1   AR   Ar  110   1.969   2.413   5.335
    1   AR   Ar  111   4.288   4.399   7.203
    1   AR   Ar  112   6.246   6.306   6.703
    1   AR   Ar  113   6.870   5.758  -1.650
    1   AR   Ar  114   2.443   7.104  -0.095
    1   AR   Ar  115   0.260   4.457  -0.486
    1   AR   Ar  116   5.488   1.230   0.384
    1   AR   Ar  117   0.039   4.073   3.277
    1   AR   Ar  118   2.131   6.680   3.652
    1   AR   Ar  119   2.029   3.310   2.678
    1   AR   Ar  120   2.076   6.964   2.747
    1   AR   Ar  121   5.288   3.795   7.064
    1   AR   Ar  122   3.061   5.367   3.480
    1   AR   Ar  123   3.704   2.154   5.113
    1   AR   Ar  124   0.677   5.454   1.637
    1   AR   Ar  125   6.298   3.725   3.785
    1   AR   Ar  126   0.173   0.760   7.584
    1   AR   Ar  127   4.644   3.563   5.777
    1   AR   Ar  128   0.734   3.893   6.248
    1   AR   Ar  129   1.543   5.596   4.395
    1   AR   Ar  130   4.899   0.330  -4.718
    1   AR   Ar  131   3.672   6.032  -0.411
    1   AR   Ar  132   2.010   2.719   1.773
    1   AR   Ar  133   4.252   0.509   4.667
    1   AR   Ar  134   2.779   1.351   4.317
    1   AR   Ar  135   6.126   6.867   5.451
    1   AR   Ar  136   5.242   6.589   2.788
    1   AR   Ar  137   2.445   5.119   5.683
    1   AR   Ar  138   5.893   1.912   6.092
    1   AR   Ar  139   6.124   2.394   4.940
    1   AR   Ar  140   5.002   6.603   4.853
    1   AR   Ar  141   3.450   5.183   4.410
    1   AR   Ar  142   3.864   5.723   9.004
    1   AR   Ar  143   5.514   6.518   8.112
    1   AR   Ar  144   7.073   2.675   5.401
    1   AR   Ar  145   4.854   4.543  -1.811
    1   AR   Ar  146   4.085   2.374   4.063
    1   AR   Ar  147   4.751   4.096  -0.346
    1   AR   Ar  148   2.127   5.844  -0.352
    1   AR   Ar  149   6.723   1.918  -0.108
    1   AR   Ar  150   1.124   2.114   2.258
    1   AR   Ar  151   2.904   3.309   1.904
    1   AR   Ar  152   0.952   1.738  -0.659
    1   AR   Ar  153   5.307   0.599   2.870
    1   AR   Ar  154   5.266   3.360   4.137
    1   AR   Ar  155   6.082   3.351   5.772
    1   AR   Ar  156   2.794   3.761   2.987
    1   AR   Ar  157   3.439   5.693   6.570
    1   AR   Ar  158   0.760   2.621   7.390
    1   AR   Ar  159   4.801   0.287   5.552
    1   AR   Ar  160   0.834   1.382   4.378
    1   AR   Ar  161   5.116   4.650   3.516
    1   AR   Ar  162   4.069   5.620  -1.281
    1   AR   Ar  163   6.479   3.723   2.410
    1   AR   Ar  164   2.167   5.923   2.758
    1   AR   Ar  165   3.389   3.817   1.052
    1   AR   Ar  166   2.872   3.089   5.062
    1   AR   Ar  167   6.136   6.838   3.943
    1   AR   Ar  168   5.600   4.321  -2.580
    1   AR   Ar  169   4.407   3.643   3.404
    1   AR   Ar  170   2.997   2.685   5.935
    1   AR   Ar  171   4.403   5.403   4.136
    1   AR   Ar  172   4.310   3.061   4.805
    1   AR   Ar  173   0.876   1.570   7.962
    1   AR   Ar  174   2.953   6.289   4.419
    1   AR   Ar  175   1.019   0.196   7.483
    1   AR   Ar  176   3.536   3.149   3.685
    1   AR   Ar  177   6.942   4.159  -1.412
    1   AR   Ar  178   1.984   6.901   1.100
    1   AR   Ar  179   3.226   6.387   0.708
    1   AR   Ar  180   5.156   6.059  -7.013
    1   AR   Ar  181   7.091   6.244   2.190
    1   AR   Ar  182   0.853   6.742   2.873
    1   AR   Ar  183   5.068   5.615   1.469
    1   AR   Ar  184   3.827   5.177   0.382
    1   AR   Ar  185   3.274   4.158   4.303
    1   AR   Ar  186   3.141   6.436   3.285
    1   AR   Ar  187   4.083   6.797   3.964
    1   AR   Ar  188   3.526   1.172   1.717
    1   AR   Ar  189   6.214   2.731   6.532
    1   AR   Ar  190   1.461   0.424   4.389
    1   AR   Ar  191   3.907   6.099   4.733
    1   AR   Ar  192   3.725   3.337   6.279
    1   AR   Ar  193   3.150   6.255   2.100
    1   AR   Ar  194   4.795   6.182  -0.533
    1   AR   Ar  195   6.294   1.209   1.236
    1   AR   Ar  196   4.727   6.747   0.877
    1   AR   Ar  197   4.796   2.961   0.371
    1   AR   Ar  198   6.719   6.545   1.302
    1   AR   Ar  199   6.952   0.443   2.048
    1   AR   Ar  200   5.642   2.235   0.016
    1   AR   Ar  201   7.027   5.226   3.434
    1   AR   Ar  202   4.940   0.182   3.811
    1   AR   Ar  203   0.257   6.962   3.746
    1   AR   Ar  204   4.742   5.099   8.004
    1   AR   Ar  205   5.473   1.951   2.026
    1   AR   Ar  206   6.042   0.155   6.342
    1   AR   Ar  207   0.381   3.910   4.695
    1   AR   Ar  208   0.757   5.992   3.680
    1   AR   Ar  209   5.497   2.309  -1.876
    1   AR   Ar  210   2.004   1.747   0.267
    1   AR   Ar  211   6.929   2.690   0.616
    1   AR   Ar  212   6.445   4.115   0.534
    1   AR   Ar  213   3.964   1.778   1.026
    1   AR   Ar  214   5.714   4.614   1.812
    1   AR   Ar  215   7.086   2.892   2.789
    1   AR   Ar  216   1.972   2.586  -0.372
    1   AR   Ar  217   5.037   2.302   4.438
    1   AR   Ar  218   4.778   2.215   5.464
    1   AR   Ar  219   4.518   4.157   2.309
    1   AR   Ar  220   4.421   4.716   1.120
    1   AR   Ar  221   6.938   6.075   4.078
    1   AR   Ar  222   4.984   6.471   6.131
    1   AR   Ar  223   7.108   0.865   6.140
    1   AR   Ar  224   4.974   1.126   4.833
    1   AR   Ar  225   5.993   2.877   2.734
    1   AR   Ar  226   2.481   3.590   3.986
    1   AR   Ar  227   1.418   2.314   4.272
    1   AR   Ar  228   6.175   1.019   2.270
    1   AR   Ar  229   5.897   4.042  -0.973
    1   AR   Ar  230   4.031   4.786   3.140
    1   AR   Ar  231   4.778   2.704   3.234
    1   AR   Ar  232   5.509   3.360   1.871
    1   AR   Ar  233   6.783   2.013   3.346
    1   AR   Ar  234   6.605   3.318   4.623
    1   AR   Ar  235   6.453   0.909   4.480
    1   AR   Ar  236   4.433   4.294   4.232
    1   AR   Ar  237   4.747   1.513   7.518
    1   AR   Ar  238   4.798   4.734   5.871
    1   AR   Ar  239   1.154   4.049  10.748
    1   AR   Ar  240   1.655   2.856   6.687
    1   AR   Ar  241   1.303   6.558  -0.192
    1   AR   Ar  242   5.831   6.560   1.879
    1   AR   Ar  243   4.209   6.098   1.856
    1   AR   Ar  244   6.279   6.581   0.332
    1   AR   Ar  245   2.844   1.605   3.166
    1   AR   Ar  246   5.320   5.662  -1.468
    1   AR   Ar  247   6.887   3.565   1.222
    1   AR   Ar  248   5.695   5.285  -0.535
    1   AR   Ar  249   3.368   0.704   0.581
    1   AR   Ar  250   5.109   6.258   3.832
    1   AR   Ar  251   5.566   3.758   4.994
    1   AR   Ar  252   2.741   4.760   2.369
    1   AR   Ar  253   5.410   2.636   7.278
    1   AR   Ar  254   3.496   4.715  12.843
    1   AR   Ar  255   5.195   5.926   9.100
    1   AR   Ar  256   5.998   5.462   3.868
    7.12000  7.12000 12.00000
Argon-slab step 5645
  256
    1   AR   Ar    1   3.692   2.801  -1.916
    1   AR   Ar    2   5.794   0.162   0.819
    1   AR   Ar    3   4.711   3.542  -1.228
    1   AR   Ar    4   2.354   1.050   1.423
    1   AR   Ar    5   6.829   5.440  -0.535
    1   AR   Ar    6   1.310   0.985   2.020
    1   AR   Ar    7   6.199   4.590   3.121
    1   AR   Ar    8   6.180   3.382  -0.175
    1   AR   Ar    9   0.497   5.572   4.839
    1   AR   Ar   10   5.934   4.628   6.193
    1   AR   Ar   11   0.772   6.500   5.374
    1   AR   Ar   12   7.034   1.861   4.646
    1   AR   Ar   13   0.015   0.160   4.755
    1   AR   Ar   14   4.473   1.116   6.164
    1   AR   Ar   15   2.872   5.635   9.354
    1   AR   Ar   16   0.411   7.029   6.355
    1   AR   Ar   17   5.774   3.470   0.868
    1   AR   Ar   18   6.951   3.869  -2.533
    1   AR   Ar   19   4.945   5.164   0.296
    1   AR   Ar   20   6.663   2.923  -1.955
    1   AR   Ar   21   2.436   0.857   2.489
    1   AR   Ar   22   5.380   0.333   1.896
    1   AR   Ar   23   0.524   5.935   0.600
    1   AR   Ar   24   5.925   2.552   3.975
    1   AR   Ar   25   1.085   3.134   5.527
    1   AR   Ar   26   6.072   6.136   4.721
    1   AR   Ar   27   1.114   0.457   1.116
    1   AR   Ar   28   2.509   2.267   4.029
    1   AR   Ar   29   5.435   0.301   7.570
    1   AR   Ar   30   6.386   0.928   3.297
    1   AR   Ar   31   0.863   0.873   6.744
    1   AR   Ar   32   0.934   1.793   6.099
    1   AR   Ar   33   6.027   5.470   0.464
    1   AR   Ar   34   1.865   4.867   3.114
    1   AR   Ar   35   5.972   5.657   2.798
    1   AR   Ar   36   3.477   1.472  -3.862
    1   AR   Ar   37   4.715   3.819   1.360
    1   AR   Ar   38   6.094   4.601   4.571
    1   AR   Ar   39   0.425   2.915   4.290
    1   AR   Ar   40   0.260   4.026   2.085
    1   AR   Ar   41   0.698   1.765   3.370
    1   AR   Ar   42   5.230   5.489   5.339
    1   AR   Ar   43   0.068   3.162   6.923
    1   AR   Ar   44   1.272   3.937   3.104
    1   AR   Ar   45   2.029   3.774   5.485
    1   AR   Ar   46   6.393   5.300   7.201
    1   AR   Ar   47   2.520   3.829   6.888
    1   AR   Ar   48   0.277   3.680   7.954
    1   AR   Ar   49   0.328   1.602   0.581
    1   AR   Ar   50   2.831   4.447   0.232
    1   AR   Ar   51   5.382   3.952   2.761
    1   AR   Ar   52   5.713   3.337  -1.944
    1   AR   Ar   53   4.277   0.108   2.930
    1   AR   Ar   54   6.377   6.775   2.945
    1   AR   Ar   55   6.819   4.972   2.174
    1   AR   Ar   56   5.448   1.372   3.880
    1   AR   Ar   57   4.825   5.073   2.634
    1   AR   Ar   58   1.390   3.315   4.553
    1   AR   Ar   59   3.400   5.442   5.470
    1   AR   Ar   60   0.824   5.284   2.681
    1   AR   Ar   61   6.951   4.705   6.513
    1   AR   Ar   62   6.738   4.103   5.399
    1   AR   Ar   63   1.884   1.681   7.308
    1   AR   Ar   64   0.724   4.862   3.935
    1   AR   Ar   65   4.081   1.068   2.608
    1   AR   Ar   66   1.619   1.757   1.153
    1   AR   Ar   67   4.565   1.106  -0.677
    1   AR   Ar   68   6.574   0.558   0.305
    1   AR   Ar   69   2.576   2.479   0.673
    1   AR   Ar   70   0.179   1.318   1.656
    1   AR   Ar   71   3.191   0.484   2.994
    1   AR   Ar   72   4.728   0.965   1.415
    1   AR   Ar   73   3.294   0.155   4.485
    1   AR   Ar   74   0.944   0.705   3.303
    1   AR   Ar   75   2.359   0.577   5.342
    1   AR   Ar   76   2.701   0.093   1.892
    1   AR   Ar   77   1.395   5.550   5.980
    1   AR   Ar   78   0.244   5.657   6.304
    1   AR   Ar   79   3.493   6.833   5.424
    1   AR   Ar   80   3.598   4.458   5.974
    1   AR   Ar   81   1.505   6.349   2.059
    1   AR   Ar   82   6.989   4.972   1.090
    1   AR   Ar   83   0.912   3.150   1.645
    1   AR   Ar   84   1.049   4.483   1.190
    1   AR   Ar   85   0.262   2.898  -0.605
    1   AR   Ar   86   1.571   5.754   1.167
    1   AR   Ar   87   3.907   2.954   2.521
    1   AR   Ar   88   3.611   5.244   1.438
    1   AR   Ar   89   5.703   2.495   1.030
    1   AR   Ar   90   3.377   1.201   5.914
    1   AR   Ar   91   1.782   1.491   3.220
    1   AR   Ar   92   3.841   2.896   1.098
    1   AR   Ar   93   1.242   0.868   5.598
    1   AR   Ar   94   7.032   6.814   9.337
    1   AR   Ar   95   5.482   1.155   6.851
    1   AR   Ar   96   2.030   6.780   5.564
    1   AR   Ar   97   4.565   1.408  -1.759
    1   AR   Ar   98   1.665   4.494   4.109
    1   AR   Ar   99   5.859   6.393  -0.789
    1   AR   Ar  100   5.992   2.981  -2.872
    1   AR   Ar  101   4.141   5.984   3.120
    1   AR   Ar  102   4.444   1.968   2.032
    1   AR   Ar  103   1.395   4.082   2.120
    1   AR   Ar  104   3.396   0.469  -0.764
    1   AR   Ar  105   2.769   2.459   2.509
    1   AR   Ar  106   4.332   0.988   3.603
    1   AR   Ar  107   0.388   4.843   5.599
    1   AR   Ar  108   2.354   0.615   3.650
    1   AR   Ar  109   2.583   4.812   4.706
    1   AR   Ar  110   1.981   2.397   5.346
    1   AR   Ar  111   4.293   4.380   7.176
    1   AR   Ar  112   6.259   6.332   6.723
    1   AR   Ar  113   6.864   5.769  -1.654
    1   AR   Ar  114   2.476   7.108  -0.117
    1   AR   Ar  115   0.225   4.465  -0.480
    1   AR   Ar  116   5.492   1.221   0.400
    1   AR   Ar  117   0.044   4.063   3.266
    1   AR   Ar  118   2.128   6.676   3.660
    1   AR   Ar  119   2.016   3.294   2.713
    1   AR   Ar  120   2.079   6.981   2.745
    1   AR   Ar  121   5.293   3.807   7.021
    1   AR   Ar  122   3.047   5.384   3.488
    1   AR   Ar  123   3.701   2.140   5.102
    1   AR   Ar  124   0.671   5.450   1.607
    1   AR   Ar  125   6.318   3.715   3.779
    1   AR   Ar  126   0.152   0.754   7.570
    1   AR   Ar  127   4.667   3.525   5.782
    1   AR   Ar  128   0.749   3.900   6.237
    1   AR   Ar  129   1.548   5.596   4.405
    1   AR   Ar  130   4.887   0.279  -4.687
    1   AR   Ar  131   3.711   6.033  -0.416
    1   AR   Ar  132   2.024   2.694   1.785
    1   AR   Ar  133   4.269   0.476   4.673
    1   AR   Ar  134   2.806   1.337   4.331
    1   AR   Ar  135   6.107   6.847   5.462
    1   AR   Ar  136   5.197   6.587   2.797
    1   AR   Ar  137   2.450   5.144   5.686
    1   AR   Ar  138   5.886   1.929   6.061
    1   AR   Ar  139   6.133   2.432   4.951
    1   AR   Ar  140   5.012   6.627   4.839
    1   AR   Ar  141   3.446   5.176   4.410
    1   AR   Ar  142   3.850   5.770   8.991
    1   AR   Ar  143   5.462   6.514   8.159
    1   AR   Ar  144   7.069   2.689   5.413
    1   AR   Ar  145   4.844   4.518  -1.824
    1   AR   Ar  146   4.064   2.386   4.069
    1   AR   Ar  147   4.738   4.078  -0.351
    1   AR   Ar  148   2.091   5.846  -0.334
    1   AR   Ar  149   6.711   1.922  -0.095
    1   AR   Ar  150   1.091   2.095   2.285
    1   AR   Ar  151   2.906   3.287   1.878
    1   AR   Ar  152   0.933   1.772  -0.661
    1   AR   Ar  153   5.284   0.624   2.865
    1   AR   Ar  154   5.267   3.370   4.138
    1   AR   Ar  155   6.065   3.341   5.785
    1   AR   Ar  156   2.805   3.760   2.981
    1   AR   Ar  157   3.443   5.718   6.567
    1   AR   Ar  158   0.757   2.643   7.384
    1   AR   Ar  159   4.798   0.291   5.535
    1   AR   Ar  160   0.857   1.365   4.380
    1   AR   Ar  161   5.136   4.676   3.529
    1   AR   Ar  162   4.063   5.637  -1.282
    1   AR   Ar  163   6.493   3.736   2.438
    1   AR   Ar  164   2.211   5.906   2.735
    1   AR   Ar  165   3.399   3.801   1.067
    1   AR   Ar  166   2.877   3.081   5.056
    1   AR   Ar  167   6.121   6.856   3.944
    1   AR   Ar  168   5.611   4.343  -2.593
    1   AR   Ar  169   4.396   3.639   3.411
    1   AR   Ar  170   2.980   2.676   5.989
    1   AR   Ar  171   4.429   5.415   4.141
    1   AR   Ar  172   4.307   3.051   4.812
    1   AR   Ar  173   0.884   1.572   7.976
    1   AR   Ar  174   2.956   6.263   4.447
    1   AR   Ar  175   1.020   0.211   7.504
    1   AR   Ar  176   3.524   3.159   3.651
    1   AR   Ar  177   6.964   4.163  -1.438
    1   AR   Ar  178   1.981   6.926   1.096
    1   AR   Ar  179   3.236   6.394   0.714
    1   AR   Ar  180   5.153   6.044  -6.996
    1   AR   Ar  181   7.087   6.277   2.168
    1   AR   Ar  182   0.847   6.768   2.881
    1   AR   Ar  183   5.059   5.612   1.465
    1   AR   Ar  184   3.829   5.173   0.378
    1   AR   Ar  185   3.294   4.125   4.283
    1   AR   Ar  186   3.142   6.435   3.289
    1   AR   Ar  187   4.087   6.798   3.965
    1   AR   Ar  188   3.538   1.165   1.709
    1   AR   Ar  189   6.202   2.738   6.531
    1   AR   Ar  190   1.471   0.456   4.415
    1   AR   Ar  191   3.943   6.081   4.752
    1   AR   Ar  192   3.756   3.348   6.304
    1   AR   Ar  193   3.174   6.246   2.085
    1   AR   Ar  194   4.797   6.168  -0.523
    1   AR   Ar  195   6.289   1.218   1.244
    1   AR   Ar  196   4.760   6.749   0.891
    1   AR   Ar  197   4.784   2.952   0.367
    1   AR   Ar  198   6.729   6.534   1.294
    1   AR   Ar  199   6.981   0.421   2.063
    1   AR   Ar  200   5.611   2.236   0.023
    1   AR   Ar  201   7.034   5.170   3.450
    1   AR   Ar  202   4.911   0.198   3.792
    1   AR   Ar  203   0.236   6.950   3.738
    1   AR   Ar  204   4.756   5.091   8.014
    1   AR   Ar  205   5.454   1.911   1.998
    1   AR   Ar  206   6.083   0.167   6.357
    1   AR   Ar  207   0.408   3.916   4.693
    1   AR   Ar  208   0.772   6.023   3.666
    1   AR   Ar  209   5.489   2.343  -1.869
    1   AR   Ar  210   2.009   1.732   0.263
    1   AR   Ar  211   6.939   2.667   0.597
    1   AR   Ar  212   6.445   4.136   0.568
    1   AR   Ar  213   3.961   1.779   1.023
    1   AR   Ar  214   5.714   4.607   1.850
    1   AR   Ar  215   7.115   2.886   2.802
    1   AR   Ar  216   1.968   2.627  -0.394
    1   AR   Ar  217   5.058   2.302   4.437
    1   AR   Ar  218   4.763   2.207   5.457
    1   AR   Ar  219   4.544   4.158   2.280
    1   AR   Ar  220   4.436   4.711   1.130
    1   AR   Ar  221   6.913   6.074   4.096
    1   AR   Ar  222   4.991   6.449   6.129
    1   AR   Ar  223   0.009   0.821   6.156
    1   AR   Ar  224   4.934   1.130   4.875
    1   AR   Ar  225   6.008   2.890   2.721
    1   AR   Ar  226   2.481   3.561   4.013
    1   AR   Ar  227   1.422   2.326   4.276
    1   AR   Ar  228   6.163   1.019   2.323
    1   AR   Ar  229   5.890   4.024  -1.000
    1   AR   Ar  230   4.031   4.776   3.154
    1   AR   Ar  231   4.788   2.712   3.250
    1   AR   Ar  232   5.515   3.374   1.897
    1   AR   Ar  233   6.760   1.970   3.346
    1   AR   Ar  234   6.601   3.347   4.644
    1   AR   Ar  235   6.458   0.904   4.461
    1   AR   Ar  236   4.426   4.264   4.210
    1   AR   Ar  237   4.740   1.517   7.502
    1   AR   Ar  238   4.786   4.726   5.897
    1   AR   Ar  239   1.147   3.990  10.768
    1   AR   Ar  240   1.670   2.879   6.687
    1   AR   Ar  241   1.287   6.546  -0.208
    1   AR   Ar  242   5.848   6.547   1.852
    1   AR   Ar  243   4.229   6.064   1.846
    1   AR   Ar  244   6.238   6.589   0.311
    1   AR   Ar  245   2.825   1.586   3.169
    1   AR   Ar  246   5.318   5.646  -1.440
    1   AR   Ar  247   6.869   3.599   1.245
    1   AR   Ar  248   5.703   5.279  -0.533
    1   AR   Ar  249   3.364   0.710   0.605
    1   AR   Ar  250   5.104   6.270   3.821
    1   AR   Ar  251   5.577   3.763   4.977
    1   AR   Ar  252   2.734   4.761   2.382
    1   AR   Ar  253   5.398   2.640   7.264
    1   AR   Ar  254   3.465   4.750  12.848
    1   AR   Ar  255   5.183   5.893   9.113
    1   AR   Ar  256   6.019   5.445   3.891
    7.12000  7.12000 12.00000
Argon-slab step 5650
  256
    1   AR   Ar    1   3.683   2.772  -1.888
    1   AR   Ar    2   5.783   0.200   0.791
    1   AR   Ar    3   4.741   3.549  -1.265
    1   AR   Ar    4   2.326   1.031   1.409
    1   AR   Ar    5   6.834   5.472  -0.534
    1   AR   Ar    6   1.324   0.983   1.987
    1   AR   Ar    7   6.203   4.559   3.112
    1   AR   Ar    8   6.189   3.393  -0.167
    1   AR   Ar    9   0.498   5.560   4.840
    1   AR   Ar   10   5.942   4.630   6.171
    1   AR   Ar   11   0.765   6.513   5.358
    1   AR   Ar   12   7.037   1.882   4.632
    1   AR   Ar   13   7.111   0.160   4.783
    1   AR   Ar   14   4.470   1.111   6.150
    1   AR   Ar   15   2.862   5.618   9.356
    1   AR   Ar   16   0.405   7.035   6.356
    1   AR   Ar   17   5.737   3.458   0.871
    1   AR   Ar   18   6.949   3.860  -2.533
    1   AR   Ar   19   4.942   5.143   0.298
    1   AR   Ar   20   6.655   2.910  -1.903
    1   AR   Ar   21   2.432   0.878   2.506
    1   AR   Ar   22   5.369   0.325   1.880
    1   AR   Ar   23   0.539   5.916   0.563
    1   AR   Ar   24   5.912   2.553   4.002
    1   AR   Ar   25   1.075   3.137   5.500
    1   AR   Ar   26   6.068   6.125   4.745
    1   AR   Ar   27   1.108   0.453   1.095
    1   AR   Ar   28   2.489   2.272   4.019
    1   AR   Ar   29   5.433   0.284   7.561
    1   AR   Ar   30   6.380   0.911   3.284
    1   AR   Ar   31   0.861   0.889   6.741
    1   AR   Ar   32   0.941   1.810   6.106
    1   AR   Ar   33   6.024   5.476   0.472
    1   AR   Ar   34   1.852   4.882   3.126
    1   AR   Ar   35   5.931   5.662   2.762
    1   AR   Ar   36   3.449   1.480  -3.863
    1   AR   Ar   37   4.719   3.803   1.356
    1   AR   Ar   38   6.098   4.608   4.567
    1   AR   Ar   39   0.434   2.898   4.254
    1   AR   Ar   40   0.288   4.015   2.090
    1   AR   Ar   41   0.702   1.776   3.366
    1   AR   Ar   42   5.222   5.493   5.301
    1   AR   Ar   43   0.089   3.165   6.923
    1   AR   Ar   44   1.288   3.928   3.133
    1   AR   Ar   45   2.035   3.794   5.484
    1   AR   Ar   46   6.403   5.314   7.172
    1   AR   Ar   47   2.523   3.875   6.900
    1   AR   Ar   48   0.278   3.668   7.964
    1   AR   Ar   49   0.337   1.612   0.624
    1   AR   Ar   50   2.846   4.472   0.235
    1   AR   Ar   51   5.419   3.922   2.757
    1   AR   Ar   52   5.744   3.345  -1.941
    1   AR   Ar   53   4.269   0.125   2.907
    1   AR   Ar   54   6.341   6.765   2.958
    1   AR   Ar   55   6.842   4.982   2.175
    1   AR   Ar   56   5.440   1.363   3.892
    1   AR   Ar   57   4.823   5.095   2.646
    1   AR   Ar   58   1.399   3.332   4.528
    1   AR   Ar   59   3.423   5.452   5.473
    1   AR   Ar   60   0.843   5.265   2.661
    1   AR   Ar   61   6.925   4.727   6.514
    1   AR   Ar   62   6.749   4.108   5.385
    1   AR   Ar   63   1.866   1.659   7.315
    1   AR   Ar   64   0.741   4.839   3.966
    1   AR   Ar   65   4.092   1.084   2.575
    1   AR   Ar   66   1.616   1.779   1.124
    1   AR   Ar   67   4.550   1.118  -0.707
    1   AR   Ar   68   6.561   0.549   0.343
    1   AR   Ar   69   2.571   2.508   0.681
    1   AR   Ar   70   0.162   1.310   1.651
    1   AR   Ar   71   3.207   0.477   3.004
    1   AR   Ar   72   4.740   0.956   1.413
    1   AR   Ar   73   3.272   0.160   4.523
    1   AR   Ar   74   0.944   0.730   3.300
    1   AR   Ar   75   2.385   0.577   5.343
    1   AR   Ar   76   2.708   0.086   1.892
    1   AR   Ar   77   1.389   5.536   5.997
    1   AR   Ar   78   0.231   5.664   6.297
    1   AR   Ar   79   3.496   6.830   5.456
    1   AR   Ar   80   3.612   4.426   5.935
    1   AR   Ar   81   1.456   6.358   2.045
    1   AR   Ar   82   6.983   4.966   1.068
    1   AR   Ar   83   0.870   3.137   1.630
    1   AR   Ar   84   1.059   4.469   1.178
    1   AR   Ar   85   0.251   2.872  -0.630
    1   AR   Ar   86   1.561   5.780   1.188
    1   AR   Ar   87   3.910   2.942   2.503
    1   AR   Ar   88   3.609   5.235   1.470
    1   AR   Ar   89   5.703   2.497   1.011
    1   AR   Ar   90   3.366   1.195   5.927
    1   AR   Ar   91   1.808   1.515   3.208
    1   AR   Ar   92   3.823   2.861   1.102
    1   AR   Ar   93   1.263   0.871   5.582
    1   AR   Ar   94   7.055   6.826   9.341
    1   AR   Ar   95   5.483   1.140   6.860
    1   AR   Ar   96   2.006   6.800   5.570
    1   AR   Ar   97   4.557   1.397  -1.751
    1   AR   Ar   98   1.658   4.500   4.106
    1   AR   Ar   99   5.852   6.422  -0.779
    1   AR   Ar  100   6.001   2.986  -2.842
    1   AR   Ar  101   4.170   5.958   3.101
    1   AR   Ar  102   4.405   1.937   2.030
    1   AR   Ar  103   1.386   4.095   2.151
    1   AR   Ar  104   3.401   0.456  -0.787
    1   AR   Ar  105   2.776   2.437   2.492
    1   AR   Ar  106   4.344   0.992   3.593
    1   AR   Ar  107   0.357   4.847   5.604
    1   AR   Ar  108   2.390   0.577   3.604
    1   AR   Ar  109   2.593   4.830   4.706
    1   AR   Ar  110   1.994   2.382   5.356
    1   AR   Ar  111   4.298   4.362   7.148
    1   AR   Ar  112   6.273   6.354   6.743
    1   AR   Ar  113   6.858   5.779  -1.656
    1   AR   Ar  114   2.478   7.114  -0.113
    1   AR   Ar  115   0.212   4.460  -0.494
    1   AR   Ar  116   5.496   1.210   0.417
    1   AR   Ar  117   0.045   4.070   3.249
    1   AR   Ar  118   2.126   6.665   3.685
    1   AR   Ar  119   1.988   3.266   2.741
    1   AR   Ar  120   2.080   7.005   2.730
    1   AR   Ar  121   5.299   3.819   6.976
    1   AR   Ar  122   3.030   5.399   3.491
    1   AR   Ar  123   3.698   2.127   5.091
    1   AR   Ar  124   0.662   5.447   1.579
    1   AR   Ar  125   6.331   3.707   3.763
    1   AR   Ar  126   0.127   0.751   7.557
    1   AR   Ar  127   4.694   3.488   5.785
    1   AR   Ar  128   0.762   3.908   6.232
    1   AR   Ar  129   1.554   5.595   4.416
    1   AR   Ar  130   4.875   0.228  -4.656
    1   AR   Ar  131   3.746   6.037  -0.414
    1   AR   Ar  132   2.033   2.668   1.794
    1   AR   Ar  133   4.272   0.430   4.671
    1   AR   Ar  134   2.835   1.316   4.348
    1   AR   Ar  135   6.088   6.826   5.468
    1   AR   Ar  136   5.180   6.592   2.797
    1   AR   Ar  137   2.455   5.162   5.692
    1   AR   Ar  138   5.875   1.936   6.025
    1   AR   Ar  139   6.140   2.468   4.971
    1   AR   Ar  140   5.021   6.649   4.825
    1   AR   Ar  141   3.453   5.174   4.411
    1   AR   Ar  142   3.840   5.818   8.977
    1   AR   Ar  143   5.405   6.515   8.203
    1   AR   Ar  144   7.072   2.687   5.412
    1   AR   Ar  145   4.835   4.493  -1.835
    1   AR   Ar  146   4.037   2.395   4.074
    1   AR   Ar  147   4.714   4.066  -0.358
    1   AR   Ar  148   2.056   5.849  -0.316
    1   AR   Ar  149   6.695   1.925  -0.087
    1   AR   Ar  150   1.058   2.076   2.311
    1   AR   Ar  151   2.911   3.268   1.873
    1   AR   Ar  152   0.915   1.807  -0.661
    1   AR   Ar  153   5.260   0.652   2.869
    1   AR   Ar  154   5.262   3.377   4.127
    1   AR   Ar  155   6.048   3.338   5.789
    1   AR   Ar  156   2.834   3.770   2.980
    1   AR   Ar  157   3.446   5.742   6.563
    1   AR   Ar  158   0.764   2.658   7.385
    1   AR   Ar  159   4.797   0.293   5.523
    1   AR   Ar  160   0.879   1.347   4.382
    1   AR   Ar  161   5.158   4.701   3.546
    1   AR   Ar  162   4.062   5.652  -1.289
    1   AR   Ar  163   6.499   3.754   2.466
    1   AR   Ar  164   2.258   5.888   2.715
    1   AR   Ar  165   3.413   3.799   1.078
    1   AR   Ar  166   2.902   3.067   5.040
    1   AR   Ar  167   6.105   6.878   3.947
    1   AR   Ar  168   5.623   4.364  -2.606
    1   AR   Ar  169   4.388   3.640   3.410
    1   AR   Ar  170   2.962   2.664   6.047
    1   AR   Ar  171   4.461   5.424   4.140
    1   AR   Ar  172   4.306   3.045   4.822
    1   AR   Ar  173   0.891   1.573   7.988
    1   AR   Ar  174   2.955   6.235   4.473
    1   AR   Ar  175   0.999   0.204   7.498
    1   AR   Ar  176   3.506   3.174   3.608
    1   AR   Ar  177   6.984   4.166  -1.465
    1   AR   Ar  178   1.979   6.950   1.091
    1   AR   Ar  179   3.246   6.401   0.720
    1   AR   Ar  180   5.151   6.028  -6.980
    1   AR   Ar  181   7.088   6.307   2.159
    1   AR   Ar  182   0.808   6.750   2.873
    1   AR   Ar  183   5.056   5.606   1.459
    1   AR   Ar  184   3.830   5.170   0.371
    1   AR   Ar  185   3.320   4.092   4.262
    1   AR   Ar  186   3.148   6.442   3.300
    1   AR   Ar  187   4.084   6.791   3.965
    1   AR   Ar  188   3.532   1.169   1.711
    1   AR   Ar  189   6.198   2.744   6.547
    1   AR   Ar  190   1.481   0.496   4.445
    1   AR   Ar  191   3.982   6.067   4.775
    1   AR   Ar  192   3.786   3.361   6.331
    1   AR   Ar  193   3.196   6.236   2.072
    1   AR   Ar  194   4.790   6.143  -0.506
    1   AR   Ar  195   6.281   1.227   1.250
    1   AR   Ar  196   4.794   6.751   0.907
    1   AR   Ar  197   4.764   2.944   0.368
    1   AR   Ar  198   6.737   6.526   1.272
    1   AR   Ar  199   7.011   0.391   2.078
    1   AR   Ar  200   5.581   2.239   0.026
    1   AR   Ar  201   7.033   5.120   3.462
    1   AR   Ar  202   4.899   0.212   3.777
    1   AR   Ar  203   0.213   6.943   3.728
    1   AR   Ar  204   4.770   5.083   8.023
    1   AR   Ar  205   5.444   1.871   1.969
    1   AR   Ar  206   6.123   0.189   6.379
    1   AR   Ar  207   0.439   3.923   4.691
    1   AR   Ar  208   0.789   6.049   3.653
    1   AR   Ar  209   5.479   2.372  -1.861
    1   AR   Ar  210   2.016   1.711   0.243
    1   AR   Ar  211   6.949   2.647   0.581
    1   AR   Ar  212   6.444   4.176   0.586
    1   AR   Ar  213   3.960   1.783   1.015
    1   AR   Ar  214   5.713   4.599   1.890
    1   AR   Ar  215   0.031   2.882   2.811
    1   AR   Ar  216   1.963   2.667  -0.415
    1   AR   Ar  217   5.075   2.299   4.437
    1   AR   Ar  218   4.749   2.199   5.451
    1   AR   Ar  219   4.556   4.158   2.254
    1   AR   Ar  220   4.451   4.719   1.138
    1   AR   Ar  221   6.913   6.059   4.138
    1   AR   Ar  222   5.000   6.427   6.125
    1   AR   Ar  223   0.024   0.782   6.168
    1   AR   Ar  224   4.908   1.150   4.919
    1   AR   Ar  225   6.019   2.896   2.714
    1   AR   Ar  226   2.475   3.529   4.040
    1   AR   Ar  227   1.414   2.329   4.238
    1   AR   Ar  228   6.146   1.023   2.367
    1   AR   Ar  229   5.881   4.006  -1.029
    1   AR   Ar  230   4.023   4.762   3.176
    1   AR   Ar  231   4.802   2.715   3.266
    1   AR   Ar  232   5.522   3.386   1.921
    1   AR   Ar  233   6.734   1.929   3.347
    1   AR   Ar  234   6.597   3.370   4.675
    1   AR   Ar  235   6.461   0.900   4.438
    1   AR   Ar  236   4.419   4.236   4.195
    1   AR   Ar  237   4.731   1.523   7.487
    1   AR   Ar  238   4.771   4.714   5.926
    1   AR   Ar  239   1.153   4.004  10.729
    1   AR   Ar  240   1.683   2.911   6.690
    1   AR   Ar  241   1.262   6.525  -0.219
    1   AR   Ar  242   5.866   6.527   1.827
    1   AR   Ar  243   4.246   6.034   1.840
    1   AR   Ar  244   6.203   6.584   0.281
    1   AR   Ar  245   2.811   1.568   3.174
    1   AR   Ar  246   5.313   5.629  -1.415
    1   AR   Ar  247   6.858   3.622   1.280
    1   AR   Ar  248   5.712   5.271  -0.530
    1   AR   Ar  249   3.359   0.715   0.630
    1   AR   Ar  250   5.101   6.279   3.810
    1   AR   Ar  251   5.603   3.778   4.971
    1   AR   Ar  252   2.722   4.779   2.392
    1   AR   Ar  253   5.385   2.643   7.250
    1   AR   Ar  254   3.435   4.785  12.853
    1   AR   Ar  255   5.170   5.860   9.126
    1   AR   Ar  256   6.039   5.428   3.911
    7.12000  7.12000 12.00000
Argon-slab step 5655
  256
    1   AR   Ar    1   3.676   2.742  -1.859
    1   AR   Ar    2   5.796   0.229   0.815
    1   AR   Ar    3   4.774   3.553  -1.306
    1   AR   Ar    4   2.301   1.009   1.396
    1   AR   Ar    5   6.837   5.504  -0.532
    1   AR   Ar    6   1.340   0.982   1.958
    1   AR   Ar    7   6.204   4.533   3.102
    1   AR   Ar    8   6.198   3.403  -0.158
    1   AR   Ar    9   0.500   5.549   4.838
    1   AR   Ar   10   5.947   4.632   6.148
    1   AR   Ar   11   0.759   6.526   5.342
    1   AR   Ar   12   7.040   1.903   4.616
    1   AR   Ar   13   7.089   0.155   4.814
    1   AR   Ar   14   4.468   1.108   6.135
    1   AR   Ar   15   2.850   5.600   9.360
    1   AR   Ar   16   0.406   7.025   6.359
    1   AR   Ar   17   5.699   3.458   0.870
    1   AR   Ar   18   6.946   3.851  -2.533
    1   AR   Ar   19   4.940   5.123   0.298
    1   AR   Ar   20   6.653   2.895  -1.851
    1   AR   Ar   21   2.419   0.904   2.518
    1   AR   Ar   22   5.353   0.321   1.886
    1   AR   Ar   23   0.553   5.896   0.527
    1   AR   Ar   24   5.911   2.556   4.012
    1   AR   Ar   25   1.063   3.139   5.476
    1   AR   Ar   26   6.060   6.108   4.766
    1   AR   Ar   27   1.099   0.449   1.072
    1   AR   Ar   28   2.470   2.280   4.008
    1   AR   Ar   29   5.433   0.271   7.543
    1   AR   Ar   30   6.378   0.889   3.293
    1   AR   Ar   31   0.865   0.909   6.736
    1   AR   Ar   32   0.949   1.828   6.113
    1   AR   Ar   33   6.022   5.483   0.482
    1   AR   Ar   34   1.840   4.900   3.137
    1   AR   Ar   35   5.889   5.666   2.726
    1   AR   Ar   36   3.422   1.488  -3.864
    1   AR   Ar   37   4.727   3.770   1.340
    1   AR   Ar   38   6.104   4.614   4.563
    1   AR   Ar   39   0.441   2.880   4.219
    1   AR   Ar   40   0.324   4.008   2.095
    1   AR   Ar   41   0.703   1.784   3.364
    1   AR   Ar   42   5.214   5.499   5.261
    1   AR   Ar   43   0.097   3.178   6.914
    1   AR   Ar   44   1.300   3.922   3.174
    1   AR   Ar   45   2.040   3.813   5.482
    1   AR   Ar   46   6.406   5.328   7.159
    1   AR   Ar   47   2.536   3.892   6.922
    1   AR   Ar   48   0.278   3.655   7.972
    1   AR   Ar   49   0.347   1.621   0.667
    1   AR   Ar   50   2.863   4.496   0.238
    1   AR   Ar   51   5.459   3.895   2.765
    1   AR   Ar   52   5.766   3.365  -1.934
    1   AR   Ar   53   4.262   0.135   2.885
    1   AR   Ar   54   6.307   6.754   2.964
    1   AR   Ar   55   6.865   4.992   2.178
    1   AR   Ar   56   5.431   1.353   3.903
    1   AR   Ar   57   4.828   5.125   2.651
    1   AR   Ar   58   1.411   3.355   4.501
    1   AR   Ar   59   3.449   5.462   5.475
    1   AR   Ar   60   0.862   5.246   2.642
    1   AR   Ar   61   6.903   4.741   6.515
    1   AR   Ar   62   6.758   4.116   5.376
    1   AR   Ar   63   1.846   1.637   7.322
    1   AR   Ar   64   0.752   4.818   3.998
    1   AR   Ar   65   4.103   1.101   2.543
    1   AR   Ar   66   1.605   1.804   1.111
    1   AR   Ar   67   4.536   1.130  -0.734
    1   AR   Ar   68   6.562   0.547   0.374
    1   AR   Ar   69   2.567   2.539   0.691
    1   AR   Ar   70   0.149   1.304   1.648
    1   AR   Ar   71   3.235   0.465   3.014
    1   AR   Ar   72   4.746   0.952   1.408
    1   AR   Ar   73   3.243   0.167   4.558
    1   AR   Ar   74   0.946   0.754   3.298
    1   AR   Ar   75   2.415   0.586   5.340
    1   AR   Ar   76   2.717   0.076   1.889
    1   AR   Ar   77   1.381   5.522   6.012
    1   AR   Ar   78   0.219   5.675   6.290
    1   AR   Ar   79   3.488   6.839   5.460
    1   AR   Ar   80   3.626   4.394   5.896
    1   AR   Ar   81   1.406   6.370   2.035
    1   AR   Ar   82   6.975   4.960   1.046
    1   AR   Ar   83   0.828   3.124   1.618
    1   AR   Ar   84   1.066   4.455   1.167
    1   AR   Ar   85   0.239   2.845  -0.654
    1   AR   Ar   86   1.555   5.807   1.203
    1   AR   Ar   87   3.924   2.922   2.521
    1   AR   Ar   88   3.602   5.228   1.504
    1   AR   Ar   89   5.702   2.485   1.000
    1   AR   Ar   90   3.356   1.189   5.939
    1   AR   Ar   91   1.825   1.539   3.196
    1   AR   Ar   92   3.808   2.822   1.107
    1   AR   Ar   93   1.283   0.872   5.566
    1   AR   Ar   94   7.078   6.837   9.346
    1   AR   Ar   95   5.478   1.115   6.874
    1   AR   Ar   96   1.977   6.811   5.577
    1   AR   Ar   97   4.549   1.387  -1.744
    1   AR   Ar   98   1.663   4.499   4.106
    1   AR   Ar   99   5.845   6.448  -0.769
    1   AR   Ar  100   6.012   2.988  -2.819
    1   AR   Ar  101   4.200   5.933   3.082
    1   AR   Ar  102   4.362   1.909   2.026
    1   AR   Ar  103   1.380   4.110   2.175
    1   AR   Ar  104   3.407   0.442  -0.808
    1   AR   Ar  105   2.786   2.413   2.480
    1   AR   Ar  106   4.349   1.008   3.585
    1   AR   Ar  107   0.330   4.849   5.608
    1   AR   Ar  108   2.421   0.541   3.563
    1   AR   Ar  109   2.590   4.842   4.706
    1   AR   Ar  110   2.006   2.369   5.366
    1   AR   Ar  111   4.304   4.343   7.119
    1   AR   Ar  112   6.288   6.371   6.764
    1   AR   Ar  113   6.851   5.789  -1.657
    1   AR   Ar  114   2.481   0.000  -0.108
    1   AR   Ar  115   0.198   4.454  -0.505
    1   AR   Ar  116   5.500   1.198   0.435
    1   AR   Ar  117   0.047   4.086   3.228
    1   AR   Ar  118   2.122   6.655   3.709
    1   AR   Ar  119   1.956   3.231   2.765
    1   AR   Ar  120   2.080   7.031   2.710
    1   AR   Ar  121   5.304   3.830   6.928
    1   AR   Ar  122   3.012   5.414   3.490
    1   AR   Ar  123   3.693   2.114   5.082
    1   AR   Ar  124   0.650   5.444   1.556
    1   AR   Ar  125   6.336   3.699   3.742
    1   AR   Ar  126   0.106   0.767   7.551
    1   AR   Ar  127   4.723   3.451   5.787
    1   AR   Ar  128   0.769   3.915   6.252
    1   AR   Ar  129   1.559   5.593   4.425
    1   AR   Ar  130   4.864   0.177  -4.625
    1   AR   Ar  131   3.775   6.044  -0.402
    1   AR   Ar  132   2.036   2.641   1.800
    1   AR   Ar  133   4.267   0.380   4.663
    1   AR   Ar  134   2.865   1.293   4.366
    1   AR   Ar  135   6.068   6.808   5.474
    1   AR   Ar  136   5.180   6.602   2.791
    1   AR   Ar  137   2.483   5.160   5.693
    1   AR   Ar  138   5.860   1.937   5.983
    1   AR   Ar  139   6.143   2.501   5.000
    1   AR   Ar  140   5.031   6.670   4.810
    1   AR   Ar  141   3.473   5.175   4.410
    1   AR   Ar  142   3.833   5.866   8.962
    1   AR   Ar  143   5.348   6.515   8.248
    1   AR   Ar  144   7.078   2.686   5.413
    1   AR   Ar  145   4.827   4.469  -1.844
    1   AR   Ar  146   4.000   2.403   4.077
    1   AR   Ar  147   4.692   4.057  -0.360
    1   AR   Ar  148   2.025   5.850  -0.297
    1   AR   Ar  149   6.676   1.924  -0.083
    1   AR   Ar  150   1.027   2.056   2.337
    1   AR   Ar  151   2.921   3.266   1.870
    1   AR   Ar  152   0.895   1.843  -0.660
    1   AR   Ar  153   5.236   0.682   2.875
    1   AR   Ar  154   5.250   3.382   4.106
    1   AR   Ar  155   6.031   3.341   5.785
    1   AR   Ar  156   2.869   3.784   2.980
    1   AR   Ar  157   3.450   5.766   6.558
    1   AR   Ar  158   0.785   2.662   7.394
    1   AR   Ar  159   4.801   0.291   5.521
    1   AR   Ar  160   0.900   1.332   4.383
    1   AR   Ar  161   5.183   4.726   3.567
    1   AR   Ar  162   4.065   5.663  -1.301
    1   AR   Ar  163   6.501   3.774   2.491
    1   AR   Ar  164   2.306   5.869   2.696
    1   AR   Ar  165   3.427   3.805   1.088
    1   AR   Ar  166   2.915   3.051   5.034
    1   AR   Ar  167   6.087   6.901   3.956
    1   AR   Ar  168   5.636   4.383  -2.618
    1   AR   Ar  169   4.384   3.643   3.399
    1   AR   Ar  170   2.943   2.651   6.106
    1   AR   Ar  171   4.498   5.429   4.133
    1   AR   Ar  172   4.307   3.044   4.835
    1   AR   Ar  173   0.899   1.574   7.997
    1   AR   Ar  174   2.954   6.205   4.498
    1   AR   Ar  175   0.981   0.191   7.495
    1   AR   Ar  176   3.480   3.187   3.567
    1   AR   Ar  177   7.001   4.168  -1.493
    1   AR   Ar  178   1.992   6.946   1.082
    1   AR   Ar  179   3.256   6.408   0.725
    1   AR   Ar  180   5.149   6.012  -6.963
    1   AR   Ar  181   7.094   6.332   2.164
    1   AR   Ar  182   0.770   6.734   2.859
    1   AR   Ar  183   5.067   5.596   1.457
    1   AR   Ar  184   3.829   5.168   0.362
    1   AR   Ar  185   3.356   4.086   4.273
    1   AR   Ar  186   3.164   6.458   3.322
    1   AR   Ar  187   4.073   6.776   3.961
    1   AR   Ar  188   3.510   1.179   1.717
    1   AR   Ar  189   6.199   2.748   6.577
    1   AR   Ar  190   1.494   0.532   4.474
    1   AR   Ar  191   4.022   6.059   4.801
    1   AR   Ar  192   3.814   3.374   6.358
    1   AR   Ar  193   3.218   6.225   2.060
    1   AR   Ar  194   4.788   6.116  -0.488
    1   AR   Ar  195   6.272   1.234   1.255
    1   AR   Ar  196   4.830   6.753   0.924
    1   AR   Ar  197   4.745   2.937   0.371
    1   AR   Ar  198   6.744   6.522   1.234
    1   AR   Ar  199   7.040   0.356   2.095
    1   AR   Ar  200   5.552   2.242   0.023
    1   AR   Ar  201   7.028   5.076   3.469
    1   AR   Ar  202   4.905   0.222   3.765
    1   AR   Ar  203   0.187   6.942   3.719
    1   AR   Ar  204   4.784   5.075   8.033
    1   AR   Ar  205   5.438   1.829   1.939
    1   AR   Ar  206   6.162   0.218   6.405
    1   AR   Ar  207   0.471   3.932   4.688
    1   AR   Ar  208   0.808   6.069   3.642
    1   AR   Ar  209   5.468   2.395  -1.854
    1   AR   Ar  210   2.029   1.687   0.208
    1   AR   Ar  211   6.960   2.633   0.569
    1   AR   Ar  212   6.440   4.226   0.592
    1   AR   Ar  213   3.963   1.789   1.003
    1   AR   Ar  214   5.675   4.592   1.905
    1   AR   Ar  215   0.068   2.879   2.821
    1   AR   Ar  216   1.959   2.707  -0.435
    1   AR   Ar  217   5.081   2.293   4.442
    1   AR   Ar  218   4.729   2.191   5.449
    1   AR   Ar  219   4.561   4.161   2.237
    1   AR   Ar  220   4.465   4.736   1.146
    1   AR   Ar  221   6.921   6.040   4.184
    1   AR   Ar  222   5.011   6.405   6.118
    1   AR   Ar  223   0.027   0.759   6.173
    1   AR   Ar  224   4.889   1.183   4.964
    1   AR   Ar  225   6.027   2.895   2.712
    1   AR   Ar  226   2.465   3.493   4.066
    1   AR   Ar  227   1.406   2.328   4.198
    1   AR   Ar  228   6.124   1.031   2.390
    1   AR   Ar  229   5.872   3.990  -1.058
    1   AR   Ar  230   4.009   4.746   3.203
    1   AR   Ar  231   4.819   2.713   3.282
    1   AR   Ar  232   5.530   3.394   1.938
    1   AR   Ar  233   6.707   1.890   3.350
    1   AR   Ar  234   6.596   3.390   4.709
    1   AR   Ar  235   6.460   0.900   4.413
    1   AR   Ar  236   4.411   4.216   4.191
    1   AR   Ar  237   4.721   1.529   7.473
    1   AR   Ar  238   4.756   4.699   5.955
    1   AR   Ar  239   1.161   4.036  10.674
    1   AR   Ar  240   1.695   2.943   6.687
    1   AR   Ar  241   1.235   6.507  -0.229
    1   AR   Ar  242   5.888   6.534   1.814
    1   AR   Ar  243   4.218   6.024   1.851
    1   AR   Ar  244   6.173   6.570   0.244
    1   AR   Ar  245   2.807   1.551   3.184
    1   AR   Ar  246   5.305   5.614  -1.393
    1   AR   Ar  247   6.851   3.637   1.323
    1   AR   Ar  248   5.721   5.262  -0.526
    1   AR   Ar  249   3.354   0.721   0.656
    1   AR   Ar  250   5.098   6.284   3.800
    1   AR   Ar  251   5.629   3.796   4.970
    1   AR   Ar  252   2.708   4.808   2.402
    1   AR   Ar  253   5.370   2.647   7.235
    1   AR   Ar  254   3.405   4.820  12.858
    1   AR   Ar  255   5.157   5.828   9.137
    1   AR   Ar  256   6.057   5.413   3.927
    7.12000  7.12000 12.00000
Argon-slab step 5660
  256
    1   AR   Ar    1   3.669   2.713  -1.830
    1   AR   Ar    2   5.799   0.249   0.865
    1   AR   Ar    3   4.807   3.554  -1.348
    1   AR   Ar    4   2.277   0.986   1.382
    1   AR   Ar    5   6.839   5.537  -0.529
    1   AR   Ar    6   1.356   0.983   1.933
    1   AR   Ar    7   6.201   4.518   3.093
    1   AR   Ar    8   6.186   3.389  -0.165
    1   AR   Ar    9   0.492   5.568   4.820
    1   AR   Ar   10   5.946   4.632   6.122
    1   AR   Ar   11   0.754   6.513   5.334
    1   AR   Ar   12   7.043   1.924   4.599
    1   AR   Ar   13   7.069   0.147   4.845
    1   AR   Ar   14   4.467   1.107   6.121
    1   AR   Ar   15   2.837   5.583   9.363
    1   AR   Ar   16   0.415   6.996   6.367
    1   AR   Ar   17   5.661   3.470   0.867
    1   AR   Ar   18   6.940   3.839  -2.534
    1   AR   Ar   19   4.941   5.106   0.295
    1   AR   Ar   20   6.665   2.883  -1.814
    1   AR   Ar   21   2.399   0.930   2.522
    1   AR   Ar   22   5.343   0.313   1.895
    1   AR   Ar   23   0.566   5.876   0.491
    1   AR   Ar   24   5.925   2.563   4.007
    1   AR   Ar   25   1.050   3.140   5.455
    1   AR   Ar   26   6.047   6.086   4.782
    1   AR   Ar   27   1.089   0.445   1.048
    1   AR   Ar   28   2.453   2.289   3.996
    1   AR   Ar   29   5.436   0.262   7.514
    1   AR   Ar   30   6.380   0.859   3.324
    1   AR   Ar   31   0.874   0.932   6.733
    1   AR   Ar   32   0.958   1.847   6.119
    1   AR   Ar   33   6.022   5.489   0.494
    1   AR   Ar   34   1.828   4.918   3.145
    1   AR   Ar   35   5.847   5.670   2.690
    1   AR   Ar   36   3.414   1.483  -3.869
    1   AR   Ar   37   4.736   3.727   1.314
    1   AR   Ar   38   6.108   4.608   4.557
    1   AR   Ar   39   0.445   2.862   4.184
    1   AR   Ar   40   0.362   4.004   2.102
    1   AR   Ar   41   0.692   1.771   3.369
    1   AR   Ar   42   5.205   5.507   5.220
    1   AR   Ar   43   0.096   3.198   6.898
    1   AR   Ar   44   1.306   3.918   3.224
    1   AR   Ar   45   2.046   3.831   5.478
    1   AR   Ar   46   6.398   5.344   7.170
    1   AR   Ar   47   2.551   3.902   6.947
    1   AR   Ar   48   0.281   3.640   7.974
    1   AR   Ar   49   0.357   1.631   0.707
    1   AR   Ar   50   2.882   4.521   0.243
    1   AR   Ar   51   5.483   3.872   2.792
    1   AR   Ar   52   5.791   3.390  -1.925
    1   AR   Ar   53   4.255   0.138   2.865
    1   AR   Ar   54   6.274   6.742   2.963
    1   AR   Ar   55   6.888   5.002   2.182
    1   AR   Ar   56   5.474   1.382   3.907
    1   AR   Ar   57   4.836   5.159   2.651
    1   AR   Ar   58   1.409   3.354   4.488
    1   AR   Ar   59   3.478   5.472   5.478
    1   AR   Ar   60   0.879   5.226   2.623
    1   AR   Ar   61   6.889   4.747   6.512
    1   AR   Ar   62   6.763   4.127   5.374
    1   AR   Ar   63   1.823   1.616   7.328
    1   AR   Ar   64   0.754   4.801   4.030
    1   AR   Ar   65   4.115   1.112   2.519
    1   AR   Ar   66   1.589   1.830   1.107
    1   AR   Ar   67   4.520   1.140  -0.757
    1   AR   Ar   68   6.584   0.555   0.394
    1   AR   Ar   69   2.561   2.561   0.699
    1   AR   Ar   70   0.138   1.298   1.648
    1   AR   Ar   71   3.274   0.451   3.019
    1   AR   Ar   72   4.747   0.957   1.398
    1   AR   Ar   73   3.210   0.176   4.586
    1   AR   Ar   74   0.949   0.774   3.296
    1   AR   Ar   75   2.448   0.601   5.333
    1   AR   Ar   76   2.730   0.067   1.884
    1   AR   Ar   77   1.372   5.508   6.025
    1   AR   Ar   78   0.208   5.692   6.283
    1   AR   Ar   79   3.508   6.845   5.453
    1   AR   Ar   80   3.630   4.365   5.866
    1   AR   Ar   81   1.355   6.385   2.030
    1   AR   Ar   82   6.971   4.959   1.025
    1   AR   Ar   83   0.786   3.111   1.606
    1   AR   Ar   84   1.072   4.442   1.156
    1   AR   Ar   85   0.225   2.818  -0.677
    1   AR   Ar   86   1.582   5.829   1.216
    1   AR   Ar   87   3.944   2.916   2.524
    1   AR   Ar   88   3.591   5.221   1.538
    1   AR   Ar   89   5.703   2.461   0.998
    1   AR   Ar   90   3.335   1.188   5.945
    1   AR   Ar   91   1.828   1.563   3.186
    1   AR   Ar   92   3.793   2.784   1.114
    1   AR   Ar   93   1.290   0.874   5.548
    1   AR   Ar   94   7.101   6.849   9.350
    1   AR   Ar   95   5.476   1.089   6.882
    1   AR   Ar   96   1.945   6.817   5.584
    1   AR   Ar   97   4.542   1.379  -1.741
    1   AR   Ar   98   1.682   4.491   4.111
    1   AR   Ar   99   5.837   6.472  -0.761
    1   AR   Ar  100   6.027   2.987  -2.804
    1   AR   Ar  101   4.230   5.908   3.064
    1   AR   Ar  102   4.320   1.891   2.017
    1   AR   Ar  103   1.376   4.126   2.193
    1   AR   Ar  104   3.406   0.436  -0.822
    1   AR   Ar  105   2.789   2.393   2.479
    1   AR   Ar  106   4.347   1.033   3.577
    1   AR   Ar  107   0.308   4.851   5.612
    1   AR   Ar  108   2.442   0.510   3.529
    1   AR   Ar  109   2.576   4.849   4.706
    1   AR   Ar  110   2.018   2.358   5.374
    1   AR   Ar  111   4.310   4.325   7.088
    1   AR   Ar  112   6.303   6.385   6.786
    1   AR   Ar  113   6.843   5.798  -1.656
    1   AR   Ar  114   2.484   0.005  -0.102
    1   AR   Ar  115   0.182   4.449  -0.514
    1   AR   Ar  116   5.504   1.188   0.454
    1   AR   Ar  117   0.059   4.099   3.208
    1   AR   Ar  118   2.117   6.646   3.731
    1   AR   Ar  119   1.927   3.192   2.787
    1   AR   Ar  120   2.077   7.054   2.690
    1   AR   Ar  121   5.310   3.841   6.879
    1   AR   Ar  122   2.992   5.427   3.486
    1   AR   Ar  123   3.686   2.100   5.073
    1   AR   Ar  124   0.635   5.442   1.536
    1   AR   Ar  125   6.346   3.694   3.726
    1   AR   Ar  126   0.090   0.794   7.550
    1   AR   Ar  127   4.756   3.416   5.788
    1   AR   Ar  128   0.773   3.921   6.271
    1   AR   Ar  129   1.564   5.591   4.434
    1   AR   Ar  130   4.857   0.148  -4.614
    1   AR   Ar  131   3.796   6.052  -0.383
    1   AR   Ar  132   2.034   2.613   1.802
    1   AR   Ar  133   4.283   0.391   4.630
    1   AR   Ar  134   2.895   1.269   4.383
    1   AR   Ar  135   6.047   6.796   5.486
    1   AR   Ar  136   5.181   6.613   2.782
    1   AR   Ar  137   2.506   5.157   5.699
    1   AR   Ar  138   5.844   1.937   5.940
    1   AR   Ar  139   6.141   2.529   5.035
    1   AR   Ar  140   5.031   6.683   4.808
    1   AR   Ar  141   3.505   5.180   4.407
    1   AR   Ar  142   3.828   5.913   8.946
    1   AR   Ar  143   5.290   6.514   8.292
    1   AR   Ar  144   7.088   2.688   5.416
    1   AR   Ar  145   4.820   4.448  -1.853
    1   AR   Ar  146   3.964   2.408   4.077
    1   AR   Ar  147   4.670   4.049  -0.361
    1   AR   Ar  148   1.998   5.848  -0.277
    1   AR   Ar  149   6.654   1.917  -0.085
    1   AR   Ar  150   0.996   2.036   2.362
    1   AR   Ar  151   2.939   3.290   1.866
    1   AR   Ar  152   0.891   1.860  -0.645
    1   AR   Ar  153   5.211   0.702   2.885
    1   AR   Ar  154   5.235   3.388   4.081
    1   AR   Ar  155   6.015   3.347   5.778
    1   AR   Ar  156   2.903   3.802   2.978
    1   AR   Ar  157   3.453   5.789   6.552
    1   AR   Ar  158   0.815   2.660   7.409
    1   AR   Ar  159   4.808   0.285   5.528
    1   AR   Ar  160   0.914   1.324   4.383
    1   AR   Ar  161   5.209   4.749   3.590
    1   AR   Ar  162   4.071   5.671  -1.319
    1   AR   Ar  163   6.504   3.794   2.508
    1   AR   Ar  164   2.355   5.852   2.678
    1   AR   Ar  165   3.441   3.816   1.097
    1   AR   Ar  166   2.904   3.057   5.024
    1   AR   Ar  167   6.067   6.926   3.970
    1   AR   Ar  168   5.650   4.401  -2.629
    1   AR   Ar  169   4.383   3.646   3.375
    1   AR   Ar  170   2.923   2.638   6.163
    1   AR   Ar  171   4.538   5.431   4.122
    1   AR   Ar  172   4.310   3.047   4.849
    1   AR   Ar  173   0.906   1.575   8.005
    1   AR   Ar  174   2.953   6.175   4.522
    1   AR   Ar  175   0.967   0.175   7.492
    1   AR   Ar  176   3.451   3.197   3.528
    1   AR   Ar  177   7.016   4.169  -1.521
    1   AR   Ar  178   2.014   6.922   1.070
    1   AR   Ar  179   3.266   6.415   0.732
    1   AR   Ar  180   5.146   5.996  -6.946
    1   AR   Ar  181   7.102   6.356   2.176
    1   AR   Ar  182   0.734   6.723   2.839
    1   AR   Ar  183   5.092   5.586   1.465
    1   AR   Ar  184   3.827   5.167   0.354
    1   AR   Ar  185   3.379   4.109   4.278
    1   AR   Ar  186   3.180   6.478   3.343
    1   AR   Ar  187   4.051   6.771   3.937
    1   AR   Ar  188   3.483   1.187   1.722
    1   AR   Ar  189   6.206   2.749   6.613
    1   AR   Ar  190   1.514   0.560   4.503
    1   AR   Ar  191   4.062   6.056   4.830
    1   AR   Ar  192   3.841   3.388   6.386
    1   AR   Ar  193   3.235   6.214   2.051
    1   AR   Ar  194   4.794   6.088  -0.470
    1   AR   Ar  195   6.259   1.241   1.260
    1   AR   Ar  196   4.866   6.754   0.942
    1   AR   Ar  197   4.726   2.931   0.376
    1   AR   Ar  198   6.753   6.520   1.186
    1   AR   Ar  199   7.067   0.318   2.114
    1   AR   Ar  200   5.523   2.244   0.015
    1   AR   Ar  201   7.020   5.041   3.476
    1   AR   Ar  202   4.924   0.223   3.758
    1   AR   Ar  203   0.158   6.944   3.712
    1   AR   Ar  204   4.797   5.067   8.042
    1   AR   Ar  205   5.434   1.786   1.908
    1   AR   Ar  206   6.201   0.253   6.432
    1   AR   Ar  207   0.504   3.941   4.684
    1   AR   Ar  208   0.829   6.081   3.635
    1   AR   Ar  209   5.456   2.411  -1.846
    1   AR   Ar  210   2.044   1.662   0.165
    1   AR   Ar  211   6.971   2.626   0.562
    1   AR   Ar  212   6.429   4.275   0.591
    1   AR   Ar  213   3.969   1.793   0.988
    1   AR   Ar  214   5.662   4.610   1.883
    1   AR   Ar  215   0.105   2.876   2.831
    1   AR   Ar  216   1.954   2.745  -0.453
    1   AR   Ar  217   5.060   2.303   4.449
    1   AR   Ar  218   4.678   2.187   5.453
    1   AR   Ar  219   4.563   4.168   2.228
    1   AR   Ar  220   4.478   4.755   1.157
    1   AR   Ar  221   6.931   6.020   4.226
    1   AR   Ar  222   5.022   6.384   6.110
    1   AR   Ar  223   0.016   0.753   6.170
    1   AR   Ar  224   4.873   1.221   5.007
    1   AR   Ar  225   6.034   2.887   2.715
    1   AR   Ar  226   2.454   3.457   4.091
    1   AR   Ar  227   1.397   2.324   4.158
    1   AR   Ar  228   6.098   1.042   2.390
    1   AR   Ar  229   5.861   3.975  -1.087
    1   AR   Ar  230   3.994   4.729   3.233
    1   AR   Ar  231   4.838   2.706   3.299
    1   AR   Ar  232   5.539   3.396   1.941
    1   AR   Ar  233   6.681   1.855   3.354
    1   AR   Ar  234   6.596   3.404   4.737
    1   AR   Ar  235   6.456   0.902   4.386
    1   AR   Ar  236   4.406   4.204   4.197
    1   AR   Ar  237   4.708   1.537   7.459
    1   AR   Ar  238   4.741   4.683   5.985
    1   AR   Ar  239   1.170   4.068  10.620
    1   AR   Ar  240   1.703   2.976   6.664
    1   AR   Ar  241   1.204   6.492  -0.238
    1   AR   Ar  242   5.887   6.560   1.806
    1   AR   Ar  243   4.182   6.021   1.868
    1   AR   Ar  244   6.146   6.552   0.208
    1   AR   Ar  245   2.821   1.539   3.200
    1   AR   Ar  246   5.295   5.600  -1.375
    1   AR   Ar  247   6.842   3.646   1.368
    1   AR   Ar  248   5.732   5.251  -0.518
    1   AR   Ar  249   3.348   0.727   0.683
    1   AR   Ar  250   5.097   6.287   3.790
    1   AR   Ar  251   5.649   3.815   4.972
    1   AR   Ar  252   2.694   4.838   2.412
    1   AR   Ar  253   5.354   2.650   7.221
    1   AR   Ar  254   3.419   4.834  12.876
    1   AR   Ar  255   5.142   5.795   9.148
    1   AR   Ar  256   6.039   5.420   3.932
    7.12000  7.12000 12.00000
Argon-slab step 5665
  256
    1   AR   Ar    1   3.664   2.683  -1.801
    1   AR   Ar    2   5.790   0.262   0.920
    1   AR   Ar    3   4.843   3.550  -1.388
    1   AR   Ar    4   2.255   0.961   1.366
    1   AR   Ar    5   6.822   5.541  -0.495
    1   AR   Ar    6   1.370   0.986   1.911
    1   AR   Ar    7   6.193   4.521   3.091
    1   AR   Ar    8   6.169   3.369  -0.175
    1   AR   Ar    9   0.482   5.603   4.796
    1   AR   Ar   10   5.940   4.629   6.093
    1   AR   Ar   11   0.750   6.485   5.333
    1   AR   Ar   12   7.046   1.946   4.579
    1   AR   Ar   13   7.049   0.136   4.876
    1   AR   Ar   14   4.466   1.110   6.107
    1   AR   Ar   15   2.825   5.565   9.367
    1   AR   Ar   16   0.429   6.956   6.378
    1   AR   Ar   17   5.626   3.489   0.859
    1   AR   Ar   18   6.932   3.826  -2.535
    1   AR   Ar   19   4.944   5.090   0.288
    1   AR   Ar   20   6.692   2.890  -1.826
    1   AR   Ar   21   2.377   0.954   2.517
    1   AR   Ar   22   5.335   0.303   1.907
    1   AR   Ar   23   0.579   5.856   0.457
    1   AR   Ar   24   5.948   2.572   3.994
    1   AR   Ar   25   1.036   3.140   5.436
    1   AR   Ar   26   6.031   6.058   4.794
    1   AR   Ar   27   1.078   0.442   1.023
    1   AR   Ar   28   2.438   2.299   3.984
    1   AR   Ar   29   5.440   0.249   7.486
    1   AR   Ar   30   6.383   0.821   3.363
    1   AR   Ar   31   0.886   0.956   6.730
    1   AR   Ar   32   0.966   1.867   6.124
    1   AR   Ar   33   6.022   5.494   0.509
    1   AR   Ar   34   1.817   4.938   3.152
    1   AR   Ar   35   5.806   5.673   2.655
    1   AR   Ar   36   3.450   1.472  -3.870
    1   AR   Ar   37   4.741   3.679   1.283
    1   AR   Ar   38   6.109   4.587   4.547
    1   AR   Ar   39   0.448   2.845   4.150
    1   AR   Ar   40   0.399   4.003   2.112
    1   AR   Ar   41   0.680   1.765   3.377
    1   AR   Ar   42   5.196   5.515   5.179
    1   AR   Ar   43   0.092   3.222   6.878
    1   AR   Ar   44   1.309   3.916   3.279
    1   AR   Ar   45   2.051   3.848   5.473
    1   AR   Ar   46   6.391   5.333   7.165
    1   AR   Ar   47   2.566   3.910   6.970
    1   AR   Ar   48   0.288   3.620   7.957
    1   AR   Ar   49   0.329   1.648   0.706
    1   AR   Ar   50   2.901   4.546   0.249
    1   AR   Ar   51   5.484   3.853   2.835
    1   AR   Ar   52   5.809   3.424  -1.914
    1   AR   Ar   53   4.252   0.135   2.846
    1   AR   Ar   54   6.243   6.731   2.958
    1   AR   Ar   55   6.882   4.998   2.195
    1   AR   Ar   56   5.516   1.409   3.911
    1   AR   Ar   57   4.847   5.191   2.648
    1   AR   Ar   58   1.410   3.355   4.473
    1   AR   Ar   59   3.509   5.482   5.480
    1   AR   Ar   60   0.895   5.205   2.606
    1   AR   Ar   61   6.881   4.745   6.510
    1   AR   Ar   62   6.763   4.143   5.379
    1   AR   Ar   63   1.799   1.595   7.333
    1   AR   Ar   64   0.747   4.788   4.061
    1   AR   Ar   65   4.127   1.129   2.522
    1   AR   Ar   66   1.571   1.857   1.107
    1   AR   Ar   67   4.505   1.149  -0.772
    1   AR   Ar   68   6.620   0.570   0.406
    1   AR   Ar   69   2.554   2.576   0.706
    1   AR   Ar   70   0.129   1.292   1.655
    1   AR   Ar   71   3.321   0.437   3.017
    1   AR   Ar   72   4.742   0.968   1.386
    1   AR   Ar   73   3.175   0.188   4.608
    1   AR   Ar   74   0.954   0.788   3.294
    1   AR   Ar   75   2.483   0.619   5.326
    1   AR   Ar   76   2.742   0.066   1.879
    1   AR   Ar   77   1.362   5.493   6.036
    1   AR   Ar   78   0.198   5.713   6.275
    1   AR   Ar   79   3.537   6.847   5.446
    1   AR   Ar   80   3.617   4.341   5.851
    1   AR   Ar   81   1.304   6.403   2.030
    1   AR   Ar   82   6.969   4.967   1.029
    1   AR   Ar   83   0.745   3.098   1.595
    1   AR   Ar   84   1.075   4.430   1.148
    1   AR   Ar   85   0.239   2.834  -0.677
    1   AR   Ar   86   1.620   5.848   1.223
    1   AR   Ar   87   3.963   2.910   2.527
    1   AR   Ar   88   3.577   5.212   1.571
    1   AR   Ar   89   5.708   2.441   1.000
    1   AR   Ar   90   3.315   1.187   5.950
    1   AR   Ar   91   1.819   1.589   3.177
    1   AR   Ar   92   3.778   2.752   1.123
    1   AR   Ar   93   1.280   0.877   5.529
    1   AR   Ar   94   0.004   6.861   9.355
    1   AR   Ar   95   5.475   1.066   6.885
    1   AR   Ar   96   1.910   6.821   5.591
    1   AR   Ar   97   4.534   1.373  -1.746
    1   AR   Ar   98   1.714   4.477   4.120
    1   AR   Ar   99   5.827   6.493  -0.759
    1   AR   Ar  100   6.044   2.982  -2.796
    1   AR   Ar  101   4.257   5.888   3.050
    1   AR   Ar  102   4.283   1.892   1.997
    1   AR   Ar  103   1.379   4.143   2.211
    1   AR   Ar  104   3.381   0.458  -0.804
    1   AR   Ar  105   2.795   2.372   2.483
    1   AR   Ar  106   4.341   1.064   3.570
    1   AR   Ar  107   0.293   4.856   5.615
    1   AR   Ar  108   2.452   0.483   3.506
    1   AR   Ar  109   2.559   4.854   4.703
    1   AR   Ar  110   2.029   2.348   5.382
    1   AR   Ar  111   4.317   4.306   7.055
    1   AR   Ar  112   6.319   6.396   6.806
    1   AR   Ar  113   6.835   5.807  -1.654
    1   AR   Ar  114   2.487   0.010  -0.094
    1   AR   Ar  115   0.166   4.445  -0.521
    1   AR   Ar  116   5.508   1.180   0.473
    1   AR   Ar  117   0.082   4.103   3.187
    1   AR   Ar  118   2.112   6.633   3.755
    1   AR   Ar  119   1.900   3.151   2.807
    1   AR   Ar  120   2.071   7.072   2.672
    1   AR   Ar  121   5.316   3.851   6.827
    1   AR   Ar  122   2.977   5.422   3.465
    1   AR   Ar  123   3.685   2.094   5.062
    1   AR   Ar  124   0.620   5.441   1.520
    1   AR   Ar  125   6.358   3.691   3.715
    1   AR   Ar  126   0.072   0.823   7.548
    1   AR   Ar  127   4.792   3.382   5.789
    1   AR   Ar  128   0.777   3.928   6.289
    1   AR   Ar  129   1.569   5.589   4.442
    1   AR   Ar  130   4.879   0.162  -4.617
    1   AR   Ar  131   3.806   6.062  -0.358
    1   AR   Ar  132   2.027   2.586   1.801
    1   AR   Ar  133   4.298   0.405   4.596
    1   AR   Ar  134   2.925   1.244   4.399
    1   AR   Ar  135   6.013   6.806   5.490
    1   AR   Ar  136   5.181   6.626   2.770
    1   AR   Ar  137   2.525   5.155   5.710
    1   AR   Ar  138   5.826   1.937   5.896
    1   AR   Ar  139   6.131   2.553   5.073
    1   AR   Ar  140   5.025   6.688   4.814
    1   AR   Ar  141   3.542   5.186   4.402
    1   AR   Ar  142   3.830   5.951   8.932
    1   AR   Ar  143   5.232   6.513   8.336
    1   AR   Ar  144   7.104   2.692   5.422
    1   AR   Ar  145   4.814   4.432  -1.864
    1   AR   Ar  146   3.946   2.414   4.086
    1   AR   Ar  147   4.649   4.042  -0.360
    1   AR   Ar  148   1.977   5.843  -0.257
    1   AR   Ar  149   6.629   1.905  -0.090
    1   AR   Ar  150   0.967   2.017   2.385
    1   AR   Ar  151   2.956   3.312   1.863
    1   AR   Ar  152   0.909   1.847  -0.611
    1   AR   Ar  153   5.189   0.678   2.898
    1   AR   Ar  154   5.218   3.395   4.055
    1   AR   Ar  155   6.002   3.351   5.775
    1   AR   Ar  156   2.930   3.828   2.968
    1   AR   Ar  157   3.457   5.811   6.545
    1   AR   Ar  158   0.850   2.654   7.426
    1   AR   Ar  159   4.817   0.278   5.540
    1   AR   Ar  160   0.920   1.327   4.382
    1   AR   Ar  161   5.236   4.769   3.612
    1   AR   Ar  162   4.080   5.678  -1.339
    1   AR   Ar  163   6.509   3.805   2.511
    1   AR   Ar  164   2.402   5.837   2.660
    1   AR   Ar  165   3.458   3.831   1.104
    1   AR   Ar  166   2.891   3.079   5.000
    1   AR   Ar  167   6.047   6.951   3.989
    1   AR   Ar  168   5.665   4.417  -2.638
    1   AR   Ar  169   4.384   3.649   3.341
    1   AR   Ar  170   2.903   2.626   6.218
    1   AR   Ar  171   4.577   5.430   4.109
    1   AR   Ar  172   4.326   3.038   4.851
    1   AR   Ar  173   0.913   1.576   8.010
    1   AR   Ar  174   2.953   6.144   4.545
    1   AR   Ar  175   0.954   0.157   7.490
    1   AR   Ar  176   3.425   3.198   3.497
    1   AR   Ar  177   7.029   4.169  -1.548
    1   AR   Ar  178   2.044   6.909   1.059
    1   AR   Ar  179   3.276   6.422   0.738
    1   AR   Ar  180   5.144   5.981  -6.929
    1   AR   Ar  181   7.109   6.375   2.190
    1   AR   Ar  182   0.699   6.716   2.816
    1   AR   Ar  183   5.120   5.577   1.474
    1   AR   Ar  184   3.825   5.166   0.346
    1   AR   Ar  185   3.398   4.130   4.282
    1   AR   Ar  186   3.195   6.499   3.363
    1   AR   Ar  187   4.044   6.763   3.932
    1   AR   Ar  188   3.449   1.192   1.724
    1   AR   Ar  189   6.216   2.749   6.650
    1   AR   Ar  190   1.544   0.577   4.533
    1   AR   Ar  191   4.104   6.057   4.858
    1   AR   Ar  192   3.826   3.383   6.409
    1   AR   Ar  193   3.239   6.205   2.045
    1   AR   Ar  194   4.809   6.059  -0.453
    1   AR   Ar  195   6.245   1.248   1.265
    1   AR   Ar  196   4.903   6.754   0.963
    1   AR   Ar  197   4.708   2.927   0.383
    1   AR   Ar  198   6.762   6.519   1.134
    1   AR   Ar  199   7.093   0.281   2.133
    1   AR   Ar  200   5.494   2.244   0.001
    1   AR   Ar  201   7.011   5.020   3.485
    1   AR   Ar  202   4.951   0.219   3.756
    1   AR   Ar  203   0.125   6.950   3.707
    1   AR   Ar  204   4.811   5.060   8.051
    1   AR   Ar  205   5.430   1.742   1.876
    1   AR   Ar  206   6.238   0.290   6.458
    1   AR   Ar  207   0.535   3.949   4.681
    1   AR   Ar  208   0.850   6.087   3.633
    1   AR   Ar  209   5.442   2.425  -1.838
    1   AR   Ar  210   2.061   1.637   0.120
    1   AR   Ar  211   6.975   2.608   0.558
    1   AR   Ar  212   6.408   4.315   0.580
    1   AR   Ar  213   3.977   1.790   0.969
    1   AR   Ar  214   5.682   4.644   1.849
    1   AR   Ar  215   0.141   2.875   2.841
    1   AR   Ar  216   1.949   2.782  -0.471
    1   AR   Ar  217   5.022   2.323   4.456
    1   AR   Ar  218   4.631   2.185   5.460
    1   AR   Ar  219   4.564   4.177   2.224
    1   AR   Ar  220   4.489   4.772   1.171
    1   AR   Ar  221   6.938   6.005   4.261
    1   AR   Ar  222   5.035   6.364   6.099
    1   AR   Ar  223   7.118   0.760   6.162
    1   AR   Ar  224   4.859   1.262   5.048
    1   AR   Ar  225   6.036   2.904   2.705
    1   AR   Ar  226   2.442   3.422   4.114
    1   AR   Ar  227   1.387   2.318   4.117
    1   AR   Ar  228   6.071   1.054   2.377
    1   AR   Ar  229   5.851   3.964  -1.111
    1   AR   Ar  230   3.979   4.712   3.265
    1   AR   Ar  231   4.859   2.697   3.316
    1   AR   Ar  232   5.550   3.392   1.931
    1   AR   Ar  233   6.654   1.825   3.358
    1   AR   Ar  234   6.598   3.396   4.751
    1   AR   Ar  235   6.452   0.905   4.360
    1   AR   Ar  236   4.406   4.199   4.211
    1   AR   Ar  237   4.695   1.547   7.447
    1   AR   Ar  238   4.727   4.666   6.015
    1   AR   Ar  239   1.178   4.100  10.565
    1   AR   Ar  240   1.711   3.009   6.639
    1   AR   Ar  241   1.169   6.480  -0.245
    1   AR   Ar  242   5.887   6.583   1.799
    1   AR   Ar  243   4.161   6.019   1.885
    1   AR   Ar  244   6.121   6.535   0.178
    1   AR   Ar  245   2.849   1.531   3.223
    1   AR   Ar  246   5.281   5.588  -1.361
    1   AR   Ar  247   6.831   3.653   1.412
    1   AR   Ar  248   5.745   5.238  -0.506
    1   AR   Ar  249   3.341   0.732   0.712
    1   AR   Ar  250   5.097   6.287   3.782
    1   AR   Ar  251   5.661   3.832   4.972
    1   AR   Ar  252   2.681   4.866   2.424
    1   AR   Ar  253   5.334   2.652   7.208
    1   AR   Ar  254   3.464   4.834  12.904
    1   AR   Ar  255   5.127   5.762   9.157
    1   AR   Ar  256   6.025   5.424   3.938
    7.12000  7.12000 12.00000
Argon-slab step 5670
  256
    1   AR   Ar    1   3.658   2.654  -1.772
    1   AR   Ar    2   5.792   0.271   0.955
    1   AR   Ar    3   4.878   3.536  -1.423
    1   AR   Ar    4   2.238   0.937   1.349
    1   AR   Ar    5   6.800   5.539  -0.451
    1   AR   Ar    6   1.381   0.991   1.893
    1   AR   Ar    7   6.181   4.542   3.095
    1   AR   Ar    8   6.152   3.349  -0.185
    1   AR   Ar    9   0.489   5.624   4.784
    1   AR   Ar   10   5.929   4.625   6.060
    1   AR   Ar   11   0.755   6.458   5.338
    1   AR   Ar   12   7.047   1.967   4.558
    1   AR   Ar   13   7.030   0.123   4.908
    1   AR   Ar   14   4.465   1.115   6.094
    1   AR   Ar   15   2.813   5.547   9.370
    1   AR   Ar   16   0.445   6.911   6.389
    1   AR   Ar   17   5.601   3.510   0.845
    1   AR   Ar   18   6.922   3.811  -2.539
    1   AR   Ar   19   4.950   5.077   0.278
    1   AR   Ar   20   6.692   2.902  -1.808
    1   AR   Ar   21   2.355   0.976   2.504
    1   AR   Ar   22   5.325   0.295   1.922
    1   AR   Ar   23   0.591   5.835   0.424
    1   AR   Ar   24   5.975   2.581   3.978
    1   AR   Ar   25   1.021   3.140   5.419
    1   AR   Ar   26   6.013   6.030   4.803
    1   AR   Ar   27   1.068   0.438   0.997
    1   AR   Ar   28   2.426   2.308   3.972
    1   AR   Ar   29   5.444   0.230   7.463
    1   AR   Ar   30   6.384   0.775   3.395
    1   AR   Ar   31   0.900   0.981   6.729
    1   AR   Ar   32   0.975   1.888   6.128
    1   AR   Ar   33   6.023   5.499   0.525
    1   AR   Ar   34   1.806   4.959   3.158
    1   AR   Ar   35   5.767   5.677   2.620
    1   AR   Ar   36   3.486   1.462  -3.870
    1   AR   Ar   37   4.736   3.632   1.254
    1   AR   Ar   38   6.117   4.573   4.532
    1   AR   Ar   39   0.447   2.830   4.117
    1   AR   Ar   40   0.429   4.004   2.125
    1   AR   Ar   41   0.666   1.765   3.389
    1   AR   Ar   42   5.183   5.523   5.137
    1   AR   Ar   43   0.088   3.246   6.857
    1   AR   Ar   44   1.311   3.927   3.294
    1   AR   Ar   45   2.056   3.864   5.467
    1   AR   Ar   46   6.382   5.318   7.160
    1   AR   Ar   47   2.581   3.918   6.991
    1   AR   Ar   48   0.297   3.600   7.938
    1   AR   Ar   49   0.292   1.665   0.692
    1   AR   Ar   50   2.921   4.571   0.255
    1   AR   Ar   51   5.476   3.833   2.886
    1   AR   Ar   52   5.822   3.458  -1.911
    1   AR   Ar   53   4.259   0.124   2.827
    1   AR   Ar   54   6.214   6.720   2.951
    1   AR   Ar   55   6.869   4.989   2.211
    1   AR   Ar   56   5.558   1.436   3.914
    1   AR   Ar   57   4.863   5.215   2.639
    1   AR   Ar   58   1.413   3.358   4.454
    1   AR   Ar   59   3.539   5.490   5.484
    1   AR   Ar   60   0.903   5.187   2.579
    1   AR   Ar   61   6.879   4.737   6.505
    1   AR   Ar   62   6.758   4.159   5.390
    1   AR   Ar   63   1.774   1.574   7.336
    1   AR   Ar   64   0.737   4.779   4.091
    1   AR   Ar   65   4.138   1.141   2.548
    1   AR   Ar   66   1.551   1.882   1.107
    1   AR   Ar   67   4.488   1.155  -0.777
    1   AR   Ar   68   6.661   0.586   0.417
    1   AR   Ar   69   2.545   2.590   0.714
    1   AR   Ar   70   0.122   1.283   1.667
    1   AR   Ar   71   3.367   0.428   3.012
    1   AR   Ar   72   4.733   0.956   1.365
    1   AR   Ar   73   3.138   0.199   4.622
    1   AR   Ar   74   0.962   0.796   3.291
    1   AR   Ar   75   2.517   0.638   5.317
    1   AR   Ar   76   2.742   0.094   1.884
    1   AR   Ar   77   1.351   5.480   6.046
    1   AR   Ar   78   0.188   5.738   6.267
    1   AR   Ar   79   3.568   6.846   5.443
    1   AR   Ar   80   3.604   4.318   5.835
    1   AR   Ar   81   1.289   6.410   2.031
    1   AR   Ar   82   6.971   4.983   1.051
    1   AR   Ar   83   0.703   3.084   1.584
    1   AR   Ar   84   1.077   4.418   1.140
    1   AR   Ar   85   0.252   2.849  -0.676
    1   AR   Ar   86   1.603   5.837   1.189
    1   AR   Ar   87   3.982   2.905   2.530
    1   AR   Ar   88   3.560   5.200   1.604
    1   AR   Ar   89   5.723   2.457   0.997
    1   AR   Ar   90   3.295   1.187   5.953
    1   AR   Ar   91   1.802   1.616   3.170
    1   AR   Ar   92   3.761   2.731   1.134
    1   AR   Ar   93   1.268   0.880   5.513
    1   AR   Ar   94   0.027   6.873   9.359
    1   AR   Ar   95   5.476   1.048   6.881
    1   AR   Ar   96   1.875   6.825   5.597
    1   AR   Ar   97   4.529   1.372  -1.752
    1   AR   Ar   98   1.752   4.458   4.132
    1   AR   Ar   99   5.813   6.511  -0.768
    1   AR   Ar  100   6.064   2.975  -2.792
    1   AR   Ar  101   4.278   5.898   3.036
    1   AR   Ar  102   4.251   1.915   1.962
    1   AR   Ar  103   1.392   4.163   2.229
    1   AR   Ar  104   3.372   0.451  -0.799
    1   AR   Ar  105   2.804   2.351   2.489
    1   AR   Ar  106   4.334   1.095   3.565
    1   AR   Ar  107   0.288   4.867   5.617
    1   AR   Ar  108   2.456   0.462   3.490
    1   AR   Ar  109   2.541   4.858   4.697
    1   AR   Ar  110   2.040   2.340   5.390
    1   AR   Ar  111   4.323   4.288   7.021
    1   AR   Ar  112   6.336   6.406   6.826
    1   AR   Ar  113   6.825   5.815  -1.651
    1   AR   Ar  114   2.492   0.013  -0.084
    1   AR   Ar  115   0.149   4.442  -0.527
    1   AR   Ar  116   5.510   1.176   0.491
    1   AR   Ar  117   0.116   4.098   3.167
    1   AR   Ar  118   2.107   6.616   3.778
    1   AR   Ar  119   1.883   3.138   2.834
    1   AR   Ar  120   2.057   7.092   2.652
    1   AR   Ar  121   5.322   3.860   6.773
    1   AR   Ar  122   2.967   5.405   3.434
    1   AR   Ar  123   3.714   2.120   5.041
    1   AR   Ar  124   0.609   5.442   1.508
    1   AR   Ar  125   6.368   3.684   3.705
    1   AR   Ar  126   0.055   0.853   7.544
    1   AR   Ar  127   4.830   3.348   5.790
    1   AR   Ar  128   0.780   3.934   6.306
    1   AR   Ar  129   1.574   5.585   4.449
    1   AR   Ar  130   4.914   0.176  -4.605
    1   AR   Ar  131   3.808   6.072  -0.330
    1   AR   Ar  132   2.018   2.559   1.799
    1   AR   Ar  133   4.280   0.395   4.602
    1   AR   Ar  134   2.955   1.220   4.414
    1   AR   Ar  135   5.970   6.831   5.490
    1   AR   Ar  136   5.180   6.639   2.756
    1   AR   Ar  137   2.542   5.152   5.724
    1   AR   Ar  138   5.833   1.855   5.910
    1   AR   Ar  139   6.114   2.569   5.109
    1   AR   Ar  140   5.022   6.690   4.817
    1   AR   Ar  141   3.581   5.195   4.397
    1   AR   Ar  142   3.840   5.972   8.919
    1   AR   Ar  143   5.175   6.513   8.378
    1   AR   Ar  144   7.113   2.707   5.418
    1   AR   Ar  145   4.810   4.423  -1.878
    1   AR   Ar  146   3.933   2.420   4.093
    1   AR   Ar  147   4.630   4.035  -0.358
    1   AR   Ar  148   1.959   5.836  -0.236
    1   AR   Ar  149   6.602   1.894  -0.094
    1   AR   Ar  150   0.940   1.998   2.405
    1   AR   Ar  151   2.968   3.325   1.861
    1   AR   Ar  152   0.928   1.835  -0.576
    1   AR   Ar  153   5.170   0.660   2.906
    1   AR   Ar  154   5.202   3.404   4.029
    1   AR   Ar  155   5.993   3.353   5.780
    1   AR   Ar  156   2.946   3.866   2.949
    1   AR   Ar  157   3.460   5.833   6.537
    1   AR   Ar  158   0.885   2.647   7.444
    1   AR   Ar  159   4.826   0.269   5.556
    1   AR   Ar  160   0.917   1.339   4.378
    1   AR   Ar  161   5.263   4.784   3.633
    1   AR   Ar  162   4.092   5.684  -1.359
    1   AR   Ar  163   6.516   3.807   2.499
    1   AR   Ar  164   2.435   5.832   2.649
    1   AR   Ar  165   3.477   3.848   1.108
    1   AR   Ar  166   2.879   3.099   4.979
    1   AR   Ar  167   6.026   6.977   4.010
    1   AR   Ar  168   5.680   4.431  -2.645
    1   AR   Ar  169   4.387   3.652   3.301
    1   AR   Ar  170   2.882   2.614   6.272
    1   AR   Ar  171   4.615   5.427   4.096
    1   AR   Ar  172   4.361   3.011   4.833
    1   AR   Ar  173   0.919   1.576   8.014
    1   AR   Ar  174   2.954   6.113   4.567
    1   AR   Ar  175   0.940   0.139   7.487
    1   AR   Ar  176   3.407   3.187   3.477
    1   AR   Ar  177   7.041   4.169  -1.573
    1   AR   Ar  178   2.084   6.913   1.052
    1   AR   Ar  179   3.286   6.429   0.745
    1   AR   Ar  180   5.141   5.965  -6.912
    1   AR   Ar  181   7.109   6.383   2.198
    1   AR   Ar  182   0.667   6.730   2.776
    1   AR   Ar  183   5.130   5.593   1.456
    1   AR   Ar  184   3.823   5.166   0.339
    1   AR   Ar  185   3.408   4.148   4.285
    1   AR   Ar  186   3.208   6.519   3.380
    1   AR   Ar  187   4.064   6.757   3.957
    1   AR   Ar  188   3.411   1.197   1.725
    1   AR   Ar  189   6.229   2.749   6.685
    1   AR   Ar  190   1.583   0.583   4.562
    1   AR   Ar  191   4.147   6.064   4.883
    1   AR   Ar  192   3.801   3.374   6.430
    1   AR   Ar  193   3.224   6.200   2.042
    1   AR   Ar  194   4.834   6.028  -0.436
    1   AR   Ar  195   6.230   1.255   1.270
    1   AR   Ar  196   4.941   6.753   0.985
    1   AR   Ar  197   4.691   2.923   0.391
    1   AR   Ar  198   6.771   6.518   1.080
    1   AR   Ar  199   7.118   0.249   2.152
    1   AR   Ar  200   5.466   2.245  -0.017
    1   AR   Ar  201   7.000   5.015   3.497
    1   AR   Ar  202   4.981   0.210   3.761
    1   AR   Ar  203   0.090   6.956   3.703
    1   AR   Ar  204   4.824   5.054   8.060
    1   AR   Ar  205   5.423   1.699   1.843
    1   AR   Ar  206   6.270   0.328   6.486
    1   AR   Ar  207   0.565   3.955   4.681
    1   AR   Ar  208   0.872   6.089   3.635
    1   AR   Ar  209   5.428   2.438  -1.830
    1   AR   Ar  210   2.077   1.613   0.076
    1   AR   Ar  211   6.957   2.601   0.540
    1   AR   Ar  212   6.378   4.345   0.562
    1   AR   Ar  213   3.987   1.776   0.947
    1   AR   Ar  214   5.701   4.677   1.817
    1   AR   Ar  215   0.176   2.874   2.852
    1   AR   Ar  216   1.943   2.818  -0.487
    1   AR   Ar  217   4.985   2.342   4.462
    1   AR   Ar  218   4.588   2.185   5.474
    1   AR   Ar  219   4.565   4.187   2.223
    1   AR   Ar  220   4.489   4.761   1.188
    1   AR   Ar  221   6.930   6.001   4.278
    1   AR   Ar  222   5.048   6.344   6.085
    1   AR   Ar  223   7.102   0.772   6.150
    1   AR   Ar  224   4.843   1.239   5.039
    1   AR   Ar  225   6.040   2.915   2.701
    1   AR   Ar  226   2.430   3.389   4.133
    1   AR   Ar  227   1.382   2.314   4.081
    1   AR   Ar  228   6.076   1.022   2.379
    1   AR   Ar  229   5.842   3.964  -1.120
    1   AR   Ar  230   3.964   4.695   3.299
    1   AR   Ar  231   4.881   2.684   3.332
    1   AR   Ar  232   5.560   3.388   1.914
    1   AR   Ar  233   6.629   1.800   3.364
    1   AR   Ar  234   6.605   3.384   4.755
    1   AR   Ar  235   6.447   0.910   4.342
    1   AR   Ar  236   4.415   4.199   4.230
    1   AR   Ar  237   4.681   1.557   7.434
    1   AR   Ar  238   4.730   4.647   6.018
    1   AR   Ar  239   1.187   4.132  10.510
    1   AR   Ar  240   1.718   3.042   6.612
    1   AR   Ar  241   1.130   6.473  -0.251
    1   AR   Ar  242   5.889   6.599   1.794
    1   AR   Ar  243   4.163   6.016   1.900
    1   AR   Ar  244   6.100   6.532   0.159
    1   AR   Ar  245   2.885   1.524   3.251
    1   AR   Ar  246   5.265   5.578  -1.351
    1   AR   Ar  247   6.816   3.659   1.453
    1   AR   Ar  248   5.758   5.224  -0.492
    1   AR   Ar  249   3.333   0.738   0.740
    1   AR   Ar  250   5.100   6.286   3.774
    1   AR   Ar  251   5.661   3.844   4.973
    1   AR   Ar  252   2.670   4.890   2.435
    1   AR   Ar  253   5.311   2.655   7.196
    1   AR   Ar  254   3.508   4.834  12.931
    1   AR   Ar  255   5.110   5.729   9.166
    1   AR   Ar  256   6.012   5.433   3.938
    7.12000  7.12000 12.00000
Argon-slab step 5675
  256
    1   AR   Ar    1   3.654   2.624  -1.743
    1   AR   Ar    2   5.795   0.277   0.992
    1   AR   Ar    3   4.912   3.514  -1.453
    1   AR   Ar    4   2.227   0.911   1.327
    1   AR   Ar    5   6.778   5.537  -0.407
    1   AR   Ar    6   1.387   0.998   1.882
    1   AR   Ar    7   6.166   4.575   3.102
    1   AR   Ar    8   6.135   3.328  -0.193
    1   AR   Ar    9   0.520   5.629   4.788
    1   AR   Ar   10   5.924   4.585   6.029
    1   AR   Ar   11   0.774   6.433   5.354
    1   AR   Ar   12   7.048   1.988   4.536
    1   AR   Ar   13   7.010   0.109   4.939
    1   AR   Ar   14   4.465   1.121   6.077
    1   AR   Ar   15   2.801   5.530   9.373
    1   AR   Ar   16   0.460   6.866   6.401
    1   AR   Ar   17   5.592   3.530   0.820
    1   AR   Ar   18   6.909   3.793  -2.546
    1   AR   Ar   19   4.958   5.064   0.266
    1   AR   Ar   20   6.694   2.913  -1.791
    1   AR   Ar   21   2.334   0.998   2.487
    1   AR   Ar   22   5.312   0.292   1.940
    1   AR   Ar   23   0.601   5.812   0.393
    1   AR   Ar   24   6.002   2.590   3.961
    1   AR   Ar   25   1.007   3.140   5.406
    1   AR   Ar   26   5.996   6.005   4.812
    1   AR   Ar   27   1.056   0.443   0.997
    1   AR   Ar   28   2.419   2.316   3.958
    1   AR   Ar   29   5.448   0.204   7.443
    1   AR   Ar   30   6.382   0.721   3.410
    1   AR   Ar   31   0.915   1.004   6.728
    1   AR   Ar   32   0.985   1.911   6.132
    1   AR   Ar   33   6.025   5.502   0.544
    1   AR   Ar   34   1.796   4.980   3.163
    1   AR   Ar   35   5.735   5.684   2.585
    1   AR   Ar   36   3.522   1.451  -3.871
    1   AR   Ar   37   4.713   3.589   1.231
    1   AR   Ar   38   6.134   4.569   4.509
    1   AR   Ar   39   0.445   2.817   4.083
    1   AR   Ar   40   0.448   4.005   2.137
    1   AR   Ar   41   0.648   1.772   3.404
    1   AR   Ar   42   5.165   5.528   5.096
    1   AR   Ar   43   0.083   3.271   6.835
    1   AR   Ar   44   1.310   3.943   3.300
    1   AR   Ar   45   2.061   3.879   5.459
    1   AR   Ar   46   6.368   5.307   7.159
    1   AR   Ar   47   2.596   3.925   7.011
    1   AR   Ar   48   0.305   3.578   7.918
    1   AR   Ar   49   0.257   1.680   0.675
    1   AR   Ar   50   2.941   4.595   0.263
    1   AR   Ar   51   5.461   3.811   2.939
    1   AR   Ar   52   5.832   3.485  -1.929
    1   AR   Ar   53   4.281   0.102   2.807
    1   AR   Ar   54   6.188   6.709   2.943
    1   AR   Ar   55   6.856   4.979   2.228
    1   AR   Ar   56   5.599   1.463   3.916
    1   AR   Ar   57   4.879   5.226   2.625
    1   AR   Ar   58   1.401   3.385   4.480
    1   AR   Ar   59   3.567   5.495   5.489
    1   AR   Ar   60   0.898   5.173   2.539
    1   AR   Ar   61   6.883   4.722   6.499
    1   AR   Ar   62   6.745   4.171   5.403
    1   AR   Ar   63   1.748   1.553   7.338
    1   AR   Ar   64   0.727   4.775   4.117
    1   AR   Ar   65   4.148   1.143   2.578
    1   AR   Ar   66   1.532   1.905   1.107
    1   AR   Ar   67   4.471   1.158  -0.772
    1   AR   Ar   68   6.703   0.605   0.427
    1   AR   Ar   69   2.536   2.603   0.723
    1   AR   Ar   70   0.116   1.273   1.683
    1   AR   Ar   71   3.399   0.426   3.007
    1   AR   Ar   72   4.722   0.939   1.342
    1   AR   Ar   73   3.104   0.206   4.628
    1   AR   Ar   74   0.972   0.797   3.288
    1   AR   Ar   75   2.546   0.659   5.312
    1   AR   Ar   76   2.747   0.123   1.886
    1   AR   Ar   77   1.339   5.466   6.054
    1   AR   Ar   78   0.178   5.764   6.260
    1   AR   Ar   79   3.602   6.843   5.441
    1   AR   Ar   80   3.592   4.295   5.818
    1   AR   Ar   81   1.278   6.416   2.030
    1   AR   Ar   82   6.971   5.002   1.074
    1   AR   Ar   83   0.662   3.070   1.574
    1   AR   Ar   84   1.076   4.406   1.135
    1   AR   Ar   85   0.263   2.864  -0.674
    1   AR   Ar   86   1.573   5.819   1.144
    1   AR   Ar   87   4.000   2.900   2.534
    1   AR   Ar   88   3.540   5.186   1.636
    1   AR   Ar   89   5.738   2.471   0.996
    1   AR   Ar   90   3.275   1.187   5.954
    1   AR   Ar   91   1.783   1.644   3.164
    1   AR   Ar   92   3.742   2.719   1.149
    1   AR   Ar   93   1.255   0.884   5.500
    1   AR   Ar   94   0.049   6.884   9.363
    1   AR   Ar   95   5.478   1.037   6.870
    1   AR   Ar   96   1.838   6.830   5.602
    1   AR   Ar   97   4.531   1.380  -1.736
    1   AR   Ar   98   1.790   4.437   4.144
    1   AR   Ar   99   5.794   6.526  -0.793
    1   AR   Ar  100   6.085   2.967  -2.791
    1   AR   Ar  101   4.290   5.933   3.025
    1   AR   Ar  102   4.222   1.952   1.921
    1   AR   Ar  103   1.418   4.185   2.249
    1   AR   Ar  104   3.372   0.424  -0.804
    1   AR   Ar  105   2.812   2.348   2.462
    1   AR   Ar  106   4.327   1.126   3.565
    1   AR   Ar  107   0.293   4.885   5.616
    1   AR   Ar  108   2.458   0.445   3.481
    1   AR   Ar  109   2.526   4.862   4.690
    1   AR   Ar  110   2.045   2.335   5.394
    1   AR   Ar  111   4.329   4.269   6.985
    1   AR   Ar  112   6.353   6.415   6.846
    1   AR   Ar  113   6.815   5.823  -1.646
    1   AR   Ar  114   2.496   0.017  -0.074
    1   AR   Ar  115   0.130   4.439  -0.531
    1   AR   Ar  116   5.511   1.174   0.507
    1   AR   Ar  117   0.158   4.087   3.148
    1   AR   Ar  118   2.102   6.596   3.802
    1   AR   Ar  119   1.873   3.144   2.865
    1   AR   Ar  120   2.034   7.117   2.627
    1   AR   Ar  121   5.329   3.868   6.716
    1   AR   Ar  122   2.960   5.386   3.407
    1   AR   Ar  123   3.729   2.142   5.020
    1   AR   Ar  124   0.605   5.449   1.502
    1   AR   Ar  125   6.375   3.675   3.696
    1   AR   Ar  126   0.039   0.883   7.539
    1   AR   Ar  127   4.864   3.327   5.797
    1   AR   Ar  128   0.783   3.940   6.321
    1   AR   Ar  129   1.593   5.579   4.454
    1   AR   Ar  130   4.949   0.190  -4.593
    1   AR   Ar  131   3.805   6.082  -0.300
    1   AR   Ar  132   2.008   2.535   1.796
    1   AR   Ar  133   4.261   0.389   4.611
    1   AR   Ar  134   2.983   1.199   4.428
    1   AR   Ar  135   5.926   6.858   5.492
    1   AR   Ar  136   5.160   6.641   2.739
    1   AR   Ar  137   2.558   5.149   5.740
    1   AR   Ar  138   5.839   1.773   5.924
    1   AR   Ar  139   6.091   2.577   5.142
    1   AR   Ar  140   5.022   6.689   4.815
    1   AR   Ar  141   3.621   5.205   4.391
    1   AR   Ar  142   3.851   5.993   8.907
    1   AR   Ar  143   5.117   6.512   8.420
    1   AR   Ar  144   7.112   2.739   5.400
    1   AR   Ar  145   4.806   4.424  -1.896
    1   AR   Ar  146   3.920   2.425   4.089
    1   AR   Ar  147   4.612   4.029  -0.356
    1   AR   Ar  148   1.945   5.826  -0.213
    1   AR   Ar  149   6.574   1.904  -0.086
    1   AR   Ar  150   0.914   1.980   2.421
    1   AR   Ar  151   2.964   3.305   1.846
    1   AR   Ar  152   0.946   1.824  -0.539
    1   AR   Ar  153   5.155   0.650   2.908
    1   AR   Ar  154   5.187   3.415   4.005
    1   AR   Ar  155   5.958   3.346   5.805
    1   AR   Ar  156   2.956   3.914   2.921
    1   AR   Ar  157   3.463   5.855   6.528
    1   AR   Ar  158   0.921   2.640   7.460
    1   AR   Ar  159   4.837   0.260   5.574
    1   AR   Ar  160   0.911   1.355   4.373
    1   AR   Ar  161   5.289   4.792   3.649
    1   AR   Ar  162   4.105   5.690  -1.378
    1   AR   Ar  163   6.525   3.806   2.478
    1   AR   Ar  164   2.424   5.852   2.663
    1   AR   Ar  165   3.500   3.868   1.110
    1   AR   Ar  166   2.872   3.116   4.965
    1   AR   Ar  167   6.005   7.001   4.033
    1   AR   Ar  168   5.696   4.443  -2.651
    1   AR   Ar  169   4.389   3.657   3.259
    1   AR   Ar  170   2.861   2.604   6.324
    1   AR   Ar  171   4.647   5.425   4.087
    1   AR   Ar  172   4.390   2.999   4.820
    1   AR   Ar  173   0.923   1.575   8.017
    1   AR   Ar  174   2.965   6.096   4.576
    1   AR   Ar  175   0.926   0.121   7.483
    1   AR   Ar  176   3.393   3.165   3.466
    1   AR   Ar  177   7.050   4.169  -1.593
    1   AR   Ar  178   2.123   6.917   1.044
    1   AR   Ar  179   3.295   6.436   0.753
    1   AR   Ar  180   5.139   5.949  -6.896
    1   AR   Ar  181   7.094   6.372   2.194
    1   AR   Ar  182   0.646   6.755   2.752
    1   AR   Ar  183   5.130   5.626   1.420
    1   AR   Ar  184   3.823   5.168   0.333
    1   AR   Ar  185   3.409   4.162   4.287
    1   AR   Ar  186   3.217   6.539   3.396
    1   AR   Ar  187   4.085   6.745   3.980
    1   AR   Ar  188   3.371   1.201   1.727
    1   AR   Ar  189   6.243   2.749   6.717
    1   AR   Ar  190   1.629   0.584   4.589
    1   AR   Ar  191   4.193   6.072   4.904
    1   AR   Ar  192   3.776   3.365   6.450
    1   AR   Ar  193   3.231   6.237   2.042
    1   AR   Ar  194   4.864   5.995  -0.418
    1   AR   Ar  195   6.216   1.261   1.275
    1   AR   Ar  196   4.977   6.750   1.009
    1   AR   Ar  197   4.674   2.920   0.401
    1   AR   Ar  198   6.781   6.516   1.027
    1   AR   Ar  199   0.022   0.230   2.171
    1   AR   Ar  200   5.440   2.244  -0.036
    1   AR   Ar  201   6.990   5.022   3.514
    1   AR   Ar  202   5.009   0.199   3.776
    1   AR   Ar  203   0.053   6.964   3.699
    1   AR   Ar  204   4.838   5.048   8.069
    1   AR   Ar  205   5.414   1.657   1.810
    1   AR   Ar  206   6.294   0.361   6.517
    1   AR   Ar  207   0.590   3.958   4.685
    1   AR   Ar  208   0.894   6.088   3.640
    1   AR   Ar  209   5.414   2.451  -1.821
    1   AR   Ar  210   2.093   1.589   0.032
    1   AR   Ar  211   6.939   2.603   0.527
    1   AR   Ar  212   6.340   4.367   0.539
    1   AR   Ar  213   3.999   1.752   0.921
    1   AR   Ar  214   5.719   4.708   1.787
    1   AR   Ar  215   0.222   2.867   2.874
    1   AR   Ar  216   1.938   2.852  -0.501
    1   AR   Ar  217   4.956   2.350   4.462
    1   AR   Ar  218   4.559   2.187   5.497
    1   AR   Ar  219   4.569   4.156   2.230
    1   AR   Ar  220   4.472   4.713   1.208
    1   AR   Ar  221   6.902   6.010   4.275
    1   AR   Ar  222   5.062   6.325   6.069
    1   AR   Ar  223   7.092   0.788   6.135
    1   AR   Ar  224   4.829   1.217   5.026
    1   AR   Ar  225   6.044   2.918   2.703
    1   AR   Ar  226   2.415   3.362   4.143
    1   AR   Ar  227   1.404   2.326   4.070
    1   AR   Ar  228   6.082   0.988   2.380
    1   AR   Ar  229   5.835   3.979  -1.107
    1   AR   Ar  230   3.950   4.680   3.333
    1   AR   Ar  231   4.902   2.668   3.347
    1   AR   Ar  232   5.570   3.386   1.894
    1   AR   Ar  233   6.604   1.778   3.371
    1   AR   Ar  234   6.614   3.373   4.749
    1   AR   Ar  235   6.445   0.919   4.342
    1   AR   Ar  236   4.431   4.200   4.249
    1   AR   Ar  237   4.667   1.568   7.420
    1   AR   Ar  238   4.745   4.627   6.003
    1   AR   Ar  239   1.195   4.164  10.456
    1   AR   Ar  240   1.688   3.061   6.572
    1   AR   Ar  241   1.089   6.469  -0.258
    1   AR   Ar  242   5.897   6.606   1.788
    1   AR   Ar  243   4.186   6.011   1.915
    1   AR   Ar  244   6.082   6.531   0.156
    1   AR   Ar  245   2.925   1.517   3.281
    1   AR   Ar  246   5.248   5.568  -1.343
    1   AR   Ar  247   6.812   3.651   1.465
    1   AR   Ar  248   5.772   5.208  -0.475
    1   AR   Ar  249   3.325   0.743   0.769
    1   AR   Ar  250   5.105   6.284   3.766
    1   AR   Ar  251   5.647   3.848   4.974
    1   AR   Ar  252   2.663   4.904   2.444
    1   AR   Ar  253   5.286   2.657   7.184
    1   AR   Ar  254   3.552   4.834  12.959
    1   AR   Ar  255   5.092   5.695   9.175
    1   AR   Ar  256   6.001   5.446   3.933
    7.12000  7.12000 12.00000
Argon-slab step 5680
  256
    1   AR   Ar    1   3.650   2.594  -1.713
    1   AR   Ar    2   5.804   0.282   1.028
    1   AR   Ar    3   4.942   3.485  -1.477
    1   AR   Ar    4   2.222   0.887   1.301
    1   AR   Ar    5   6.759   5.536  -0.361
    1   AR   Ar    6   1.385   1.006   1.876
    1   AR   Ar    7   6.150   4.611   3.106
    1   AR   Ar    8   6.118   3.306  -0.200
    1   AR   Ar    9   0.560   5.622   4.796
    1   AR   Ar   10   5.915   4.543   5.995
    1   AR   Ar   11   0.795   6.414   5.375
    1   AR   Ar   12   7.046   2.007   4.513
    1   AR   Ar   13   6.990   0.093   4.970
    1   AR   Ar   14   4.465   1.129   6.058
    1   AR   Ar   15   2.791   5.513   9.376
    1   AR   Ar   16   0.475   6.823   6.413
    1   AR   Ar   17   5.597   3.552   0.787
    1   AR   Ar   18   6.892   3.772  -2.556
    1   AR   Ar   19   4.966   5.052   0.254
    1   AR   Ar   20   6.699   2.923  -1.772
    1   AR   Ar   21   2.316   1.023   2.468
    1   AR   Ar   22   5.295   0.293   1.959
    1   AR   Ar   23   0.608   5.786   0.367
    1   AR   Ar   24   6.029   2.600   3.944
    1   AR   Ar   25   0.992   3.140   5.397
    1   AR   Ar   26   5.984   5.987   4.821
    1   AR   Ar   27   1.043   0.454   1.014
    1   AR   Ar   28   2.419   2.321   3.943
    1   AR   Ar   29   5.453   0.170   7.428
    1   AR   Ar   30   6.378   0.661   3.404
    1   AR   Ar   31   0.929   1.026   6.729
    1   AR   Ar   32   0.995   1.934   6.134
    1   AR   Ar   33   6.026   5.505   0.565
    1   AR   Ar   34   1.811   4.982   3.129
    1   AR   Ar   35   5.717   5.698   2.550
    1   AR   Ar   36   3.557   1.440  -3.872
    1   AR   Ar   37   4.675   3.548   1.217
    1   AR   Ar   38   6.158   4.570   4.481
    1   AR   Ar   39   0.441   2.807   4.049
    1   AR   Ar   40   0.459   4.008   2.147
    1   AR   Ar   41   0.626   1.786   3.424
    1   AR   Ar   42   5.139   5.530   5.058
    1   AR   Ar   43   0.079   3.273   6.835
    1   AR   Ar   44   1.305   3.960   3.309
    1   AR   Ar   45   2.065   3.893   5.449
    1   AR   Ar   46   6.351   5.301   7.161
    1   AR   Ar   47   2.611   3.930   7.030
    1   AR   Ar   48   0.314   3.556   7.897
    1   AR   Ar   49   0.224   1.690   0.659
    1   AR   Ar   50   2.958   4.616   0.271
    1   AR   Ar   51   5.443   3.788   2.992
    1   AR   Ar   52   5.843   3.508  -1.964
    1   AR   Ar   53   4.304   0.107   2.799
    1   AR   Ar   54   6.166   6.700   2.935
    1   AR   Ar   55   6.844   4.968   2.246
    1   AR   Ar   56   5.639   1.491   3.918
    1   AR   Ar   57   4.887   5.223   2.608
    1   AR   Ar   58   1.394   3.394   4.509
    1   AR   Ar   59   3.593   5.498   5.494
    1   AR   Ar   60   0.886   5.186   2.510
    1   AR   Ar   61   6.887   4.694   6.490
    1   AR   Ar   62   6.742   4.180   5.406
    1   AR   Ar   63   1.722   1.533   7.337
    1   AR   Ar   64   0.720   4.777   4.138
    1   AR   Ar   65   4.160   1.166   2.610
    1   AR   Ar   66   1.507   1.916   1.105
    1   AR   Ar   67   4.456   1.160  -0.756
    1   AR   Ar   68   6.745   0.624   0.439
    1   AR   Ar   69   2.527   2.616   0.734
    1   AR   Ar   70   0.111   1.262   1.700
    1   AR   Ar   71   3.415   0.432   3.004
    1   AR   Ar   72   4.708   0.925   1.317
    1   AR   Ar   73   3.076   0.201   4.624
    1   AR   Ar   74   0.985   0.793   3.285
    1   AR   Ar   75   2.568   0.684   5.314
    1   AR   Ar   76   2.757   0.153   1.887
    1   AR   Ar   77   1.325   5.453   6.061
    1   AR   Ar   78   0.168   5.792   6.252
    1   AR   Ar   79   3.637   6.839   5.440
    1   AR   Ar   80   3.580   4.274   5.802
    1   AR   Ar   81   1.269   6.420   2.025
    1   AR   Ar   82   6.962   5.016   1.092
    1   AR   Ar   83   0.621   3.055   1.565
    1   AR   Ar   84   1.074   4.396   1.132
    1   AR   Ar   85   0.274   2.878  -0.671
    1   AR   Ar   86   1.543   5.802   1.097
    1   AR   Ar   87   4.017   2.895   2.536
    1   AR   Ar   88   3.520   5.171   1.668
    1   AR   Ar   89   5.755   2.484   0.996
    1   AR   Ar   90   3.268   1.184   5.960
    1   AR   Ar   91   1.762   1.674   3.159
    1   AR   Ar   92   3.722   2.714   1.167
    1   AR   Ar   93   1.240   0.890   5.493
    1   AR   Ar   94   0.072   6.896   9.367
    1   AR   Ar   95   5.480   1.033   6.853
    1   AR   Ar   96   1.801   6.836   5.605
    1   AR   Ar   97   4.534   1.391  -1.732
    1   AR   Ar   98   1.798   4.427   4.133
    1   AR   Ar   99   5.772   6.538  -0.828
    1   AR   Ar  100   6.107   2.957  -2.793
    1   AR   Ar  101   4.297   5.975   3.020
    1   AR   Ar  102   4.195   1.992   1.881
    1   AR   Ar  103   1.454   4.210   2.269
    1   AR   Ar  104   3.373   0.398  -0.807
    1   AR   Ar  105   2.822   2.350   2.428
    1   AR   Ar  106   4.312   1.095   3.606
    1   AR   Ar  107   0.298   4.894   5.620
    1   AR   Ar  108   2.459   0.432   3.476
    1   AR   Ar  109   2.517   4.870   4.686
    1   AR   Ar  110   2.023   2.335   5.382
    1   AR   Ar  111   4.333   4.250   6.949
    1   AR   Ar  112   6.371   6.425   6.864
    1   AR   Ar  113   6.816   5.834  -1.641
    1   AR   Ar  114   2.502   0.020  -0.061
    1   AR   Ar  115   0.110   4.437  -0.534
    1   AR   Ar  116   5.525   1.180   0.522
    1   AR   Ar  117   0.202   4.073   3.134
    1   AR   Ar  118   2.097   6.574   3.826
    1   AR   Ar  119   1.845   3.157   2.851
    1   AR   Ar  120   2.005   0.016   2.603
    1   AR   Ar  121   5.337   3.876   6.657
    1   AR   Ar  122   2.956   5.365   3.385
    1   AR   Ar  123   3.724   2.160   5.000
    1   AR   Ar  124   0.610   5.462   1.503
    1   AR   Ar  125   6.381   3.665   3.686
    1   AR   Ar  126   0.024   0.912   7.532
    1   AR   Ar  127   4.882   3.353   5.820
    1   AR   Ar  128   0.786   3.947   6.334
    1   AR   Ar  129   1.616   5.572   4.458
    1   AR   Ar  130   4.984   0.204  -4.582
    1   AR   Ar  131   3.799   6.093  -0.270
    1   AR   Ar  132   1.998   2.514   1.796
    1   AR   Ar  133   4.243   0.388   4.625
    1   AR   Ar  134   3.012   1.185   4.439
    1   AR   Ar  135   5.881   6.887   5.495
    1   AR   Ar  136   5.128   6.634   2.720
    1   AR   Ar  137   2.572   5.146   5.757
    1   AR   Ar  138   5.845   1.691   5.939
    1   AR   Ar  139   6.063   2.577   5.171
    1   AR   Ar  140   5.027   6.688   4.809
    1   AR   Ar  141   3.660   5.217   4.384
    1   AR   Ar  142   3.863   6.014   8.895
    1   AR   Ar  143   5.059   6.512   8.461
    1   AR   Ar  144   7.114   2.769   5.385
    1   AR   Ar  145   4.804   4.430  -1.915
    1   AR   Ar  146   3.907   2.430   4.072
    1   AR   Ar  147   4.596   4.023  -0.354
    1   AR   Ar  148   1.932   5.817  -0.189
    1   AR   Ar  149   6.542   1.908  -0.083
    1   AR   Ar  150   0.890   1.962   2.432
    1   AR   Ar  151   2.959   3.283   1.833
    1   AR   Ar  152   0.963   1.814  -0.501
    1   AR   Ar  153   5.146   0.649   2.904
    1   AR   Ar  154   5.175   3.430   3.985
    1   AR   Ar  155   5.928   3.342   5.839
    1   AR   Ar  156   2.963   3.967   2.891
    1   AR   Ar  157   3.467   5.877   6.518
    1   AR   Ar  158   0.957   2.633   7.475
    1   AR   Ar  159   4.848   0.250   5.595
    1   AR   Ar  160   0.902   1.372   4.369
    1   AR   Ar  161   5.311   4.789   3.661
    1   AR   Ar  162   4.119   5.696  -1.396
    1   AR   Ar  163   6.532   3.807   2.454
    1   AR   Ar  164   2.419   5.829   2.634
    1   AR   Ar  165   3.526   3.890   1.110
    1   AR   Ar  166   2.872   3.128   4.965
    1   AR   Ar  167   5.986   7.024   4.057
    1   AR   Ar  168   5.712   4.454  -2.655
    1   AR   Ar  169   4.390   3.656   3.229
    1   AR   Ar  170   2.839   2.594   6.376
    1   AR   Ar  171   4.602   5.386   4.062
    1   AR   Ar  172   4.403   3.013   4.819
    1   AR   Ar  173   0.925   1.575   8.020
    1   AR   Ar  174   2.970   6.103   4.578
    1   AR   Ar  175   0.911   0.105   7.478
    1   AR   Ar  176   3.381   3.139   3.459
    1   AR   Ar  177   7.059   4.170  -1.609
    1   AR   Ar  178   2.162   6.920   1.036
    1   AR   Ar  179   3.303   6.443   0.761
    1   AR   Ar  180   5.133   5.954  -6.888
    1   AR   Ar  181   7.063   6.337   2.178
    1   AR   Ar  182   0.639   6.788   2.748
    1   AR   Ar  183   5.112   5.646   1.411
    1   AR   Ar  184   3.827   5.170   0.330
    1   AR   Ar  185   3.402   4.174   4.288
    1   AR   Ar  186   3.224   6.557   3.412
    1   AR   Ar  187   4.106   6.726   3.999
    1   AR   Ar  188   3.330   1.206   1.733
    1   AR   Ar  189   6.259   2.748   6.747
    1   AR   Ar  190   1.679   0.581   4.610
    1   AR   Ar  191   4.237   6.081   4.921
    1   AR   Ar  192   3.752   3.357   6.469
    1   AR   Ar  193   3.238   6.286   2.043
    1   AR   Ar  194   4.897   5.961  -0.399
    1   AR   Ar  195   6.208   1.267   1.280
    1   AR   Ar  196   5.012   6.744   1.034
    1   AR   Ar  197   4.657   2.915   0.410
    1   AR   Ar  198   6.789   6.515   0.974
    1   AR   Ar  199   0.042   0.227   2.187
    1   AR   Ar  200   5.415   2.243  -0.056
    1   AR   Ar  201   6.981   5.036   3.534
    1   AR   Ar  202   5.034   0.187   3.800
    1   AR   Ar  203   0.014   6.971   3.695
    1   AR   Ar  204   4.851   5.040   8.078
    1   AR   Ar  205   5.401   1.617   1.778
    1   AR   Ar  206   6.308   0.389   6.552
    1   AR   Ar  207   0.606   3.957   4.695
    1   AR   Ar  208   0.915   6.087   3.645
    1   AR   Ar  209   5.400   2.465  -1.813
    1   AR   Ar  210   2.098   1.589   0.021
    1   AR   Ar  211   6.922   2.618   0.519
    1   AR   Ar  212   6.324   4.389   0.553
    1   AR   Ar  213   4.012   1.721   0.890
    1   AR   Ar  214   5.738   4.739   1.757
    1   AR   Ar  215   0.270   2.858   2.899
    1   AR   Ar  216   1.935   2.872  -0.499
    1   AR   Ar  217   4.947   2.338   4.450
    1   AR   Ar  218   4.548   2.188   5.532
    1   AR   Ar  219   4.574   4.115   2.239
    1   AR   Ar  220   4.454   4.664   1.229
    1   AR   Ar  221   6.865   6.026   4.261
    1   AR   Ar  222   5.077   6.306   6.050
    1   AR   Ar  223   7.094   0.810   6.114
    1   AR   Ar  224   4.816   1.198   5.013
    1   AR   Ar  225   6.048   2.914   2.711
    1   AR   Ar  226   2.396   3.342   4.138
    1   AR   Ar  227   1.420   2.337   4.059
    1   AR   Ar  228   6.090   0.952   2.380
    1   AR   Ar  229   5.834   3.983  -1.101
    1   AR   Ar  230   3.936   4.667   3.369
    1   AR   Ar  231   4.923   2.650   3.360
    1   AR   Ar  232   5.579   3.387   1.873
    1   AR   Ar  233   6.579   1.758   3.379
    1   AR   Ar  234   6.625   3.364   4.735
    1   AR   Ar  235   6.445   0.931   4.363
    1   AR   Ar  236   4.454   4.203   4.267
    1   AR   Ar  237   4.653   1.580   7.406
    1   AR   Ar  238   4.760   4.606   5.987
    1   AR   Ar  239   1.204   4.196  10.401
    1   AR   Ar  240   1.657   3.080   6.530
    1   AR   Ar  241   1.049   6.469  -0.266
    1   AR   Ar  242   5.899   6.590   1.776
    1   AR   Ar  243   4.222   6.004   1.928
    1   AR   Ar  244   6.068   6.530   0.165
    1   AR   Ar  245   2.965   1.510   3.312
    1   AR   Ar  246   5.230   5.557  -1.336
    1   AR   Ar  247   6.808   3.640   1.466
    1   AR   Ar  248   5.777   5.197  -0.461
    1   AR   Ar  249   3.315   0.746   0.796
    1   AR   Ar  250   5.115   6.280   3.758
    1   AR   Ar  251   5.625   3.845   4.976
    1   AR   Ar  252   2.658   4.908   2.450
    1   AR   Ar  253   5.257   2.658   7.172
    1   AR   Ar  254   3.597   4.834  12.986
    1   AR   Ar  255   5.074   5.661   9.182
    1   AR   Ar  256   5.994   5.464   3.924
    7.12000  7.12000 12.00000
Argon-slab step 5685
  256
    1   AR   Ar    1   3.658   2.566  -1.692
    1   AR   Ar    2   5.818   0.288   1.062
    1   AR   Ar    3   4.966   3.452  -1.497
    1   AR   Ar    4   2.222   0.863   1.271
    1   AR   Ar    5   6.742   5.537  -0.314
    1   AR   Ar    6   1.383   1.010   1.890
    1   AR   Ar    7   6.137   4.634   3.111
    1   AR   Ar    8   6.101   3.284  -0.207
    1   AR   Ar    9   0.600   5.608   4.802
    1   AR   Ar   10   5.905   4.500   5.961
    1   AR   Ar   11   0.816   6.400   5.400
    1   AR   Ar   12   7.043   2.025   4.491
    1   AR   Ar   13   6.969   0.077   5.000
    1   AR   Ar   14   4.464   1.140   6.041
    1   AR   Ar   15   2.781   5.496   9.379
    1   AR   Ar   16   0.490   6.781   6.424
    1   AR   Ar   17   5.611   3.574   0.764
    1   AR   Ar   18   6.873   3.748  -2.569
    1   AR   Ar   19   4.973   5.040   0.245
    1   AR   Ar   20   6.706   2.933  -1.753
    1   AR   Ar   21   2.301   1.049   2.449
    1   AR   Ar   22   5.275   0.295   1.976
    1   AR   Ar   23   0.612   5.756   0.345
    1   AR   Ar   24   6.048   2.611   3.941
    1   AR   Ar   25   0.977   3.139   5.396
    1   AR   Ar   26   5.977   5.977   4.832
    1   AR   Ar   27   1.031   0.464   1.030
    1   AR   Ar   28   2.428   2.321   3.925
    1   AR   Ar   29   5.459   0.133   7.413
    1   AR   Ar   30   6.373   0.597   3.387
    1   AR   Ar   31   0.942   1.045   6.731
    1   AR   Ar   32   1.006   1.960   6.135
    1   AR   Ar   33   6.028   5.507   0.587
    1   AR   Ar   34   1.830   4.980   3.087
    1   AR   Ar   35   5.717   5.720   2.513
    1   AR   Ar   36   3.548   1.443  -3.894
    1   AR   Ar   37   4.628   3.511   1.212
    1   AR   Ar   38   6.185   4.573   4.450
    1   AR   Ar   39   0.437   2.801   4.014
    1   AR   Ar   40   0.467   4.010   2.151
    1   AR   Ar   41   0.602   1.803   3.447
    1   AR   Ar   42   5.106   5.525   5.022
    1   AR   Ar   43   0.075   3.259   6.848
    1   AR   Ar   44   1.299   3.978   3.319
    1   AR   Ar   45   2.069   3.907   5.438
    1   AR   Ar   46   6.332   5.297   7.163
    1   AR   Ar   47   2.627   3.935   7.047
    1   AR   Ar   48   0.323   3.533   7.874
    1   AR   Ar   49   0.194   1.694   0.644
    1   AR   Ar   50   2.973   4.635   0.280
    1   AR   Ar   51   5.426   3.766   3.044
    1   AR   Ar   52   5.856   3.531  -2.009
    1   AR   Ar   53   4.330   0.104   2.790
    1   AR   Ar   54   6.147   6.692   2.927
    1   AR   Ar   55   6.832   4.956   2.265
    1   AR   Ar   56   5.677   1.519   3.919
    1   AR   Ar   57   4.880   5.207   2.589
    1   AR   Ar   58   1.398   3.399   4.529
    1   AR   Ar   59   3.617   5.497   5.500
    1   AR   Ar   60   0.871   5.204   2.485
    1   AR   Ar   61   6.882   4.630   6.470
    1   AR   Ar   62   6.733   4.179   5.440
    1   AR   Ar   63   1.697   1.513   7.334
    1   AR   Ar   64   0.717   4.786   4.152
    1   AR   Ar   65   4.172   1.195   2.636
    1   AR   Ar   66   1.496   1.931   1.065
    1   AR   Ar   67   4.450   1.163  -0.729
    1   AR   Ar   68   6.785   0.644   0.453
    1   AR   Ar   69   2.518   2.627   0.746
    1   AR   Ar   70   0.108   1.250   1.718
    1   AR   Ar   71   3.436   0.439   3.000
    1   AR   Ar   72   4.693   0.911   1.291
    1   AR   Ar   73   3.055   0.180   4.610
    1   AR   Ar   74   0.999   0.787   3.280
    1   AR   Ar   75   2.581   0.713   5.323
    1   AR   Ar   76   2.771   0.184   1.887
    1   AR   Ar   77   1.309   5.440   6.066
    1   AR   Ar   78   0.158   5.772   6.274
    1   AR   Ar   79   3.673   6.836   5.439
    1   AR   Ar   80   3.569   4.254   5.785
    1   AR   Ar   81   1.265   6.422   2.016
    1   AR   Ar   82   6.945   5.027   1.108
    1   AR   Ar   83   0.581   3.039   1.557
    1   AR   Ar   84   1.071   4.386   1.132
    1   AR   Ar   85   0.276   2.854  -0.647
    1   AR   Ar   86   1.515   5.786   1.049
    1   AR   Ar   87   4.034   2.891   2.538
    1   AR   Ar   88   3.500   5.156   1.701
    1   AR   Ar   89   5.771   2.495   0.996
    1   AR   Ar   90   3.269   1.180   5.970
    1   AR   Ar   91   1.740   1.705   3.156
    1   AR   Ar   92   3.701   2.713   1.185
    1   AR   Ar   93   1.223   0.898   5.491
    1   AR   Ar   94   0.095   6.908   9.371
    1   AR   Ar   95   5.481   1.033   6.832
    1   AR   Ar   96   1.779   6.849   5.604
    1   AR   Ar   97   4.537   1.404  -1.735
    1   AR   Ar   98   1.802   4.413   4.120
    1   AR   Ar   99   5.749   6.549  -0.867
    1   AR   Ar  100   6.131   2.944  -2.796
    1   AR   Ar  101   4.300   6.021   3.020
    1   AR   Ar  102   4.169   2.033   1.843
    1   AR   Ar  103   1.497   4.238   2.290
    1   AR   Ar  104   3.374   0.372  -0.809
    1   AR   Ar  105   2.835   2.351   2.398
    1   AR   Ar  106   4.298   1.062   3.655
    1   AR   Ar  107   0.312   4.909   5.621
    1   AR   Ar  108   2.460   0.422   3.474
    1   AR   Ar  109   2.516   4.882   4.685
    1   AR   Ar  110   2.000   2.338   5.370
    1   AR   Ar  111   4.337   4.230   6.912
    1   AR   Ar  112   6.389   6.434   6.881
    1   AR   Ar  113   6.817   5.844  -1.636
    1   AR   Ar  114   2.508   0.023  -0.048
    1   AR   Ar  115   0.088   4.435  -0.536
    1   AR   Ar  116   5.544   1.184   0.535
    1   AR   Ar  117   0.246   4.060   3.126
    1   AR   Ar  118   2.092   6.551   3.850
    1   AR   Ar  119   1.819   3.167   2.835
    1   AR   Ar  120   2.006   7.105   2.609
    1   AR   Ar  121   5.345   3.882   6.600
    1   AR   Ar  122   2.956   5.342   3.369
    1   AR   Ar  123   3.705   2.171   4.984
    1   AR   Ar  124   0.624   5.482   1.510
    1   AR   Ar  125   6.386   3.655   3.675
    1   AR   Ar  126   0.011   0.941   7.523
    1   AR   Ar  127   4.895   3.379   5.842
    1   AR   Ar  128   0.789   3.954   6.345
    1   AR   Ar  129   1.638   5.565   4.461
    1   AR   Ar  130   5.020   0.218  -4.570
    1   AR   Ar  131   3.793   6.104  -0.241
    1   AR   Ar  132   1.988   2.496   1.796
    1   AR   Ar  133   4.223   0.390   4.642
    1   AR   Ar  134   3.040   1.181   4.447
    1   AR   Ar  135   5.838   6.916   5.498
    1   AR   Ar  136   5.100   6.624   2.700
    1   AR   Ar  137   2.587   5.142   5.775
    1   AR   Ar  138   5.849   1.610   5.954
    1   AR   Ar  139   6.032   2.570   5.196
    1   AR   Ar  140   5.039   6.689   4.798
    1   AR   Ar  141   3.690   5.229   4.381
    1   AR   Ar  142   3.875   6.034   8.883
    1   AR   Ar  143   5.001   6.512   8.502
    1   AR   Ar  144   7.119   2.794   5.375
    1   AR   Ar  145   4.803   4.440  -1.936
    1   AR   Ar  146   3.894   2.459   4.071
    1   AR   Ar  147   4.581   4.017  -0.351
    1   AR   Ar  148   1.919   5.807  -0.163
    1   AR   Ar  149   6.506   1.906  -0.084
    1   AR   Ar  150   0.868   1.944   2.439
    1   AR   Ar  151   2.953   3.260   1.821
    1   AR   Ar  152   0.981   1.805  -0.462
    1   AR   Ar  153   5.144   0.659   2.901
    1   AR   Ar  154   5.167   3.446   3.971
    1   AR   Ar  155   5.902   3.341   5.879
    1   AR   Ar  156   2.970   4.019   2.861
    1   AR   Ar  157   3.470   5.898   6.508
    1   AR   Ar  158   0.962   2.652   7.486
    1   AR   Ar  159   4.858   0.238   5.617
    1   AR   Ar  160   0.895   1.388   4.367
    1   AR   Ar  161   5.326   4.774   3.670
    1   AR   Ar  162   4.134   5.702  -1.411
    1   AR   Ar  163   6.538   3.810   2.432
    1   AR   Ar  164   2.406   5.824   2.606
    1   AR   Ar  165   3.553   3.913   1.110
    1   AR   Ar  166   2.878   3.137   4.976
    1   AR   Ar  167   5.973   7.042   4.085
    1   AR   Ar  168   5.738   4.461  -2.642
    1   AR   Ar  169   4.389   3.637   3.245
    1   AR   Ar  170   2.816   2.586   6.425
    1   AR   Ar  171   4.565   5.360   4.042
    1   AR   Ar  172   4.384   3.014   4.835
    1   AR   Ar  173   0.924   1.574   8.023
    1   AR   Ar  174   2.968   6.121   4.582
    1   AR   Ar  175   0.895   0.090   7.471
    1   AR   Ar  176   3.368   3.114   3.453
    1   AR   Ar  177   7.066   4.172  -1.621
    1   AR   Ar  178   2.200   6.923   1.027
    1   AR   Ar  179   3.311   6.450   0.769
    1   AR   Ar  180   5.087   5.947  -6.946
    1   AR   Ar  181   7.023   6.290   2.156
    1   AR   Ar  182   0.642   6.821   2.761
    1   AR   Ar  183   5.084   5.656   1.421
    1   AR   Ar  184   3.836   5.175   0.328
    1   AR   Ar  185   3.391   4.182   4.288
    1   AR   Ar  186   3.229   6.573   3.426
    1   AR   Ar  187   4.127   6.701   4.014
    1   AR   Ar  188   3.289   1.213   1.743
    1   AR   Ar  189   6.274   2.747   6.775
    1   AR   Ar  190   1.733   0.575   4.627
    1   AR   Ar  191   4.275   6.088   4.936
    1   AR   Ar  192   3.728   3.349   6.488
    1   AR   Ar  193   3.239   6.336   2.045
    1   AR   Ar  194   4.930   5.928  -0.378
    1   AR   Ar  195   6.210   1.271   1.285
    1   AR   Ar  196   5.043   6.734   1.061
    1   AR   Ar  197   4.641   2.908   0.416
    1   AR   Ar  198   6.799   6.513   0.924
    1   AR   Ar  199   0.056   0.238   2.197
    1   AR   Ar  200   5.400   2.247  -0.061
    1   AR   Ar  201   6.975   5.054   3.555
    1   AR   Ar  202   5.051   0.179   3.828
    1   AR   Ar  203   7.095   6.979   3.691
    1   AR   Ar  204   4.866   5.025   8.088
    1   AR   Ar  205   5.382   1.580   1.750
    1   AR   Ar  206   6.314   0.410   6.591
    1   AR   Ar  207   0.611   3.955   4.714
    1   AR   Ar  208   0.935   6.085   3.651
    1   AR   Ar  209   5.387   2.481  -1.804
    1   AR   Ar  210   2.061   1.620   0.004
    1   AR   Ar  211   6.904   2.644   0.515
    1   AR   Ar  212   6.322   4.410   0.592
    1   AR   Ar  213   4.025   1.686   0.856
    1   AR   Ar  214   5.757   4.769   1.729
    1   AR   Ar  215   0.318   2.850   2.925
    1   AR   Ar  216   1.934   2.881  -0.485
    1   AR   Ar  217   4.956   2.307   4.428
    1   AR   Ar  218   4.549   2.189   5.575
    1   AR   Ar  219   4.580   4.074   2.248
    1   AR   Ar  220   4.437   4.615   1.250
    1   AR   Ar  221   6.829   6.045   4.242
    1   AR   Ar  222   5.091   6.288   6.029
    1   AR   Ar  223   7.113   0.828   6.139
    1   AR   Ar  224   4.804   1.181   4.998
    1   AR   Ar  225   6.061   2.913   2.714
    1   AR   Ar  226   2.374   3.333   4.123
    1   AR   Ar  227   1.430   2.349   4.049
    1   AR   Ar  228   6.099   0.917   2.380
    1   AR   Ar  229   5.837   3.973  -1.094
    1   AR   Ar  230   3.976   4.692   3.377
    1   AR   Ar  231   4.931   2.628   3.362
    1   AR   Ar  232   5.588   3.389   1.852
    1   AR   Ar  233   6.555   1.739   3.388
    1   AR   Ar  234   6.633   3.361   4.712
    1   AR   Ar  235   6.454   0.906   4.365
    1   AR   Ar  236   4.481   4.207   4.285
    1   AR   Ar  237   4.640   1.591   7.391
    1   AR   Ar  238   4.775   4.584   5.970
    1   AR   Ar  239   1.213   4.228  10.347
    1   AR   Ar  240   1.635   3.095   6.494
    1   AR   Ar  241   1.010   6.472  -0.277
    1   AR   Ar  242   5.898   6.559   1.762
    1   AR   Ar  243   4.263   5.997   1.942
    1   AR   Ar  244   6.053   6.530   0.177
    1   AR   Ar  245   3.005   1.501   3.343
    1   AR   Ar  246   5.213   5.546  -1.332
    1   AR   Ar  247   6.803   3.628   1.461
    1   AR   Ar  248   5.753   5.207  -0.454
    1   AR   Ar  249   3.304   0.747   0.820
    1   AR   Ar  250   5.127   6.273   3.749
    1   AR   Ar  251   5.598   3.840   4.979
    1   AR   Ar  252   2.659   4.897   2.450
    1   AR   Ar  253   5.228   2.660   7.159
    1   AR   Ar  254   3.641   4.834  13.013
    1   AR   Ar  255   5.054   5.626   9.188
    1   AR   Ar  256   5.991   5.489   3.911
    7.12000  7.12000 12.00000
Argon-slab step 5690
  256
    1   AR   Ar    1   3.683   2.541  -1.683
    1   AR   Ar    2   5.839   0.295   1.094
    1   AR   Ar    3   4.998   3.441  -1.494
    1   AR   Ar    4   2.226   0.859   1.319
    1   AR   Ar    5   6.729   5.539  -0.265
    1   AR   Ar    6   1.380   1.010   1.918
    1   AR   Ar    7   6.131   4.635   3.116
    1   AR   Ar    8   6.085   3.261  -0.213
    1   AR   Ar    9   0.583   5.609   4.816
    1   AR   Ar   10   5.892   4.461   5.926
    1   AR   Ar   11   0.837   6.390   5.430
    1   AR   Ar   12   7.036   2.040   4.468
    1   AR   Ar   13   6.948   0.059   5.030
    1   AR   Ar   14   4.462   1.153   6.025
    1   AR   Ar   15   2.772   5.479   9.381
    1   AR   Ar   16   0.505   6.743   6.436
    1   AR   Ar   17   5.627   3.596   0.743
    1   AR   Ar   18   6.852   3.724  -2.584
    1   AR   Ar   19   4.979   5.025   0.239
    1   AR   Ar   20   6.713   2.944  -1.733
    1   AR   Ar   21   2.289   1.076   2.431
    1   AR   Ar   22   5.255   0.296   1.987
    1   AR   Ar   23   0.613   5.721   0.328
    1   AR   Ar   24   6.038   2.624   3.990
    1   AR   Ar   25   0.964   3.136   5.404
    1   AR   Ar   26   5.973   5.974   4.846
    1   AR   Ar   27   1.018   0.474   1.046
    1   AR   Ar   28   2.441   2.320   3.916
    1   AR   Ar   29   5.465   0.093   7.400
    1   AR   Ar   30   6.367   0.536   3.363
    1   AR   Ar   31   0.952   1.062   6.733
    1   AR   Ar   32   1.018   1.987   6.135
    1   AR   Ar   33   6.029   5.509   0.611
    1   AR   Ar   34   1.847   4.977   3.048
    1   AR   Ar   35   5.728   5.748   2.475
    1   AR   Ar   36   3.540   1.446  -3.916
    1   AR   Ar   37   4.580   3.479   1.216
    1   AR   Ar   38   6.214   4.576   4.418
    1   AR   Ar   39   0.434   2.799   3.980
    1   AR   Ar   40   0.476   4.014   2.147
    1   AR   Ar   41   0.575   1.823   3.471
    1   AR   Ar   42   5.071   5.512   4.988
    1   AR   Ar   43   0.074   3.246   6.860
    1   AR   Ar   44   1.290   3.994   3.329
    1   AR   Ar   45   2.070   3.917   5.427
    1   AR   Ar   46   6.314   5.294   7.165
    1   AR   Ar   47   2.643   3.939   7.063
    1   AR   Ar   48   0.333   3.510   7.853
    1   AR   Ar   49   0.165   1.694   0.631
    1   AR   Ar   50   2.982   4.651   0.290
    1   AR   Ar   51   5.414   3.747   3.087
    1   AR   Ar   52   5.871   3.556  -2.058
    1   AR   Ar   53   4.350   0.097   2.779
    1   AR   Ar   54   6.130   6.685   2.921
    1   AR   Ar   55   6.821   4.943   2.283
    1   AR   Ar   56   5.709   1.546   3.921
    1   AR   Ar   57   4.863   5.182   2.572
    1   AR   Ar   58   1.414   3.399   4.538
    1   AR   Ar   59   3.639   5.495   5.505
    1   AR   Ar   60   0.857   5.219   2.464
    1   AR   Ar   61   6.889   4.598   6.467
    1   AR   Ar   62   6.723   4.172   5.468
    1   AR   Ar   63   1.677   1.494   7.328
    1   AR   Ar   64   0.717   4.799   4.159
    1   AR   Ar   65   4.183   1.226   2.657
    1   AR   Ar   66   1.484   1.942   1.022
    1   AR   Ar   67   4.444   1.164  -0.697
    1   AR   Ar   68   6.824   0.664   0.468
    1   AR   Ar   69   2.509   2.638   0.759
    1   AR   Ar   70   0.107   1.239   1.737
    1   AR   Ar   71   3.457   0.449   2.995
    1   AR   Ar   72   4.677   0.895   1.264
    1   AR   Ar   73   3.039   0.147   4.590
    1   AR   Ar   74   1.013   0.781   3.275
    1   AR   Ar   75   2.588   0.744   5.337
    1   AR   Ar   76   2.789   0.217   1.888
    1   AR   Ar   77   1.292   5.427   6.069
    1   AR   Ar   78   0.149   5.720   6.316
    1   AR   Ar   79   3.709   6.833   5.437
    1   AR   Ar   80   3.558   4.234   5.767
    1   AR   Ar   81   1.262   6.421   2.004
    1   AR   Ar   82   6.924   5.038   1.123
    1   AR   Ar   83   0.542   3.022   1.549
    1   AR   Ar   84   1.066   4.378   1.133
    1   AR   Ar   85   0.277   2.827  -0.620
    1   AR   Ar   86   1.490   5.771   0.999
    1   AR   Ar   87   4.049   2.886   2.539
    1   AR   Ar   88   3.480   5.141   1.733
    1   AR   Ar   89   5.788   2.505   0.996
    1   AR   Ar   90   3.273   1.179   5.981
    1   AR   Ar   91   1.726   1.725   3.149
    1   AR   Ar   92   3.683   2.720   1.197
    1   AR   Ar   93   1.203   0.906   5.492
    1   AR   Ar   94   0.117   6.920   9.375
    1   AR   Ar   95   5.479   1.037   6.810
    1   AR   Ar   96   1.782   6.875   5.599
    1   AR   Ar   97   4.541   1.420  -1.743
    1   AR   Ar   98   1.803   4.398   4.108
    1   AR   Ar   99   5.725   6.557  -0.907
    1   AR   Ar  100   6.157   2.928  -2.803
    1   AR   Ar  101   4.298   6.066   3.025
    1   AR   Ar  102   4.146   2.071   1.810
    1   AR   Ar  103   1.543   4.266   2.309
    1   AR   Ar  104   3.351   0.366  -0.789
    1   AR   Ar  105   2.851   2.348   2.371
    1   AR   Ar  106   4.285   1.026   3.709
    1   AR   Ar  107   0.332   4.926   5.620
    1   AR   Ar  108   2.461   0.413   3.475
    1   AR   Ar  109   2.520   4.896   4.686
    1   AR   Ar  110   1.977   2.342   5.358
    1   AR   Ar  111   4.341   4.210   6.875
    1   AR   Ar  112   6.408   6.443   6.897
    1   AR   Ar  113   6.817   5.854  -1.628
    1   AR   Ar  114   2.501   0.016  -0.071
    1   AR   Ar  115   0.065   4.435  -0.537
    1   AR   Ar  116   5.546   1.164   0.551
    1   AR   Ar  117   0.286   4.048   3.128
    1   AR   Ar  118   2.088   6.526   3.873
    1   AR   Ar  119   1.794   3.176   2.819
    1   AR   Ar  120   2.014   7.060   2.621
    1   AR   Ar  121   5.355   3.891   6.552
    1   AR   Ar  122   2.959   5.319   3.360
    1   AR   Ar  123   3.677   2.178   4.979
    1   AR   Ar  124   0.640   5.506   1.518
    1   AR   Ar  125   6.391   3.647   3.663
    1   AR   Ar  126   7.119   0.970   7.513
    1   AR   Ar  127   4.899   3.401   5.846
    1   AR   Ar  128   0.791   3.961   6.354
    1   AR   Ar  129   1.662   5.556   4.462
    1   AR   Ar  130   5.055   0.233  -4.558
    1   AR   Ar  131   3.787   6.116  -0.212
    1   AR   Ar  132   1.976   2.481   1.799
    1   AR   Ar  133   4.202   0.393   4.661
    1   AR   Ar  134   3.068   1.184   4.452
    1   AR   Ar  135   5.798   6.945   5.500
    1   AR   Ar  136   5.083   6.606   2.677
    1   AR   Ar  137   2.601   5.138   5.792
    1   AR   Ar  138   5.853   1.529   5.968
    1   AR   Ar  139   6.055   2.585   5.192
    1   AR   Ar  140   5.061   6.696   4.782
    1   AR   Ar  141   3.699   5.239   4.385
    1   AR   Ar  142   3.889   6.053   8.872
    1   AR   Ar  143   4.959   6.508   8.515
    1   AR   Ar  144   0.004   2.813   5.371
    1   AR   Ar  145   4.804   4.451  -1.955
    1   AR   Ar  146   3.885   2.495   4.065
    1   AR   Ar  147   4.567   4.011  -0.348
    1   AR   Ar  148   1.907   5.798  -0.136
    1   AR   Ar  149   6.466   1.900  -0.086
    1   AR   Ar  150   0.847   1.926   2.442
    1   AR   Ar  151   2.948   3.237   1.810
    1   AR   Ar  152   0.999   1.798  -0.421
    1   AR   Ar  153   5.151   0.678   2.906
    1   AR   Ar  154   5.160   3.461   3.967
    1   AR   Ar  155   5.888   3.341   5.921
    1   AR   Ar  156   2.980   4.064   2.835
    1   AR   Ar  157   3.473   5.920   6.497
    1   AR   Ar  158   0.946   2.688   7.492
    1   AR   Ar  159   4.839   0.233   5.629
    1   AR   Ar  160   0.888   1.404   4.367
    1   AR   Ar  161   5.330   4.749   3.680
    1   AR   Ar  162   4.148   5.708  -1.425
    1   AR   Ar  163   6.541   3.818   2.417
    1   AR   Ar  164   2.388   5.837   2.579
    1   AR   Ar  165   3.582   3.936   1.110
    1   AR   Ar  166   2.889   3.144   4.993
    1   AR   Ar  167   5.968   7.052   4.118
    1   AR   Ar  168   5.766   4.467  -2.624
    1   AR   Ar  169   4.421   3.638   3.235
    1   AR   Ar  170   2.793   2.578   6.474
    1   AR   Ar  171   4.570   5.379   4.036
    1   AR   Ar  172   4.361   3.027   4.858
    1   AR   Ar  173   0.919   1.574   8.027
    1   AR   Ar  174   2.966   6.139   4.585
    1   AR   Ar  175   0.877   0.077   7.462
    1   AR   Ar  176   3.353   3.092   3.444
    1   AR   Ar  177   7.072   4.173  -1.630
    1   AR   Ar  178   2.238   6.924   1.018
    1   AR   Ar  179   3.318   6.458   0.778
    1   AR   Ar  180   5.042   5.940  -7.004
    1   AR   Ar  181   6.981   6.240   2.131
    1   AR   Ar  182   0.653   6.848   2.786
    1   AR   Ar  183   5.061   5.664   1.429
    1   AR   Ar  184   3.852   5.182   0.329
    1   AR   Ar  185   3.378   4.189   4.287
    1   AR   Ar  186   3.231   6.587   3.440
    1   AR   Ar  187   4.149   6.672   4.026
    1   AR   Ar  188   3.248   1.222   1.759
    1   AR   Ar  189   6.286   2.744   6.802
    1   AR   Ar  190   1.789   0.568   4.640
    1   AR   Ar  191   4.299   6.093   4.947
    1   AR   Ar  192   3.704   3.342   6.506
    1   AR   Ar  193   3.240   6.385   2.048
    1   AR   Ar  194   4.962   5.897  -0.356
    1   AR   Ar  195   6.225   1.274   1.291
    1   AR   Ar  196   5.070   6.721   1.089
    1   AR   Ar  197   4.625   2.895   0.416
    1   AR   Ar  198   6.809   6.510   0.877
    1   AR   Ar  199   0.059   0.259   2.199
    1   AR   Ar  200   5.400   2.259  -0.046
    1   AR   Ar  201   6.949   5.045   3.533
    1   AR   Ar  202   5.057   0.178   3.856
    1   AR   Ar  203   7.056   6.985   3.687
    1   AR   Ar  204   4.880   5.011   8.098
    1   AR   Ar  205   5.356   1.547   1.726
    1   AR   Ar  206   6.314   0.427   6.634
    1   AR   Ar  207   0.602   3.953   4.740
    1   AR   Ar  208   0.955   6.082   3.658
    1   AR   Ar  209   5.375   2.497  -1.796
    1   AR   Ar  210   2.015   1.656  -0.018
    1   AR   Ar  211   6.885   2.679   0.514
    1   AR   Ar  212   6.315   4.427   0.628
    1   AR   Ar  213   4.037   1.650   0.820
    1   AR   Ar  214   5.776   4.800   1.701
    1   AR   Ar  215   0.365   2.843   2.949
    1   AR   Ar  216   1.932   2.894  -0.469
    1   AR   Ar  217   4.971   2.267   4.403
    1   AR   Ar  218   4.556   2.191   5.620
    1   AR   Ar  219   4.587   4.034   2.256
    1   AR   Ar  220   4.434   4.605   1.259
    1   AR   Ar  221   6.800   6.065   4.222
    1   AR   Ar  222   5.118   6.281   6.011
    1   AR   Ar  223   0.019   0.850   6.161
    1   AR   Ar  224   4.795   1.169   4.983
    1   AR   Ar  225   6.085   2.919   2.707
    1   AR   Ar  226   2.360   3.342   4.117
    1   AR   Ar  227   1.432   2.360   4.039
    1   AR   Ar  228   6.108   0.881   2.377
    1   AR   Ar  229   5.840   3.940  -1.054
    1   AR   Ar  230   4.015   4.717   3.385
    1   AR   Ar  231   4.920   2.606   3.350
    1   AR   Ar  232   5.597   3.393   1.831
    1   AR   Ar  233   6.536   1.721   3.396
    1   AR   Ar  234   6.636   3.362   4.682
    1   AR   Ar  235   6.467   0.874   4.365
    1   AR   Ar  236   4.508   4.214   4.303
    1   AR   Ar  237   4.628   1.604   7.374
    1   AR   Ar  238   4.790   4.562   5.950
    1   AR   Ar  239   1.221   4.260  10.292
    1   AR   Ar  240   1.645   3.095   6.486
    1   AR   Ar  241   0.973   6.479  -0.290
    1   AR   Ar  242   5.898   6.525   1.749
    1   AR   Ar  243   4.303   5.992   1.957
    1   AR   Ar  244   6.036   6.530   0.190
    1   AR   Ar  245   3.044   1.492   3.372
    1   AR   Ar  246   5.197   5.535  -1.330
    1   AR   Ar  247   6.795   3.618   1.450
    1   AR   Ar  248   5.730   5.215  -0.449
    1   AR   Ar  249   3.292   0.745   0.841
    1   AR   Ar  250   5.141   6.260   3.742
    1   AR   Ar  251   5.569   3.834   4.981
    1   AR   Ar  252   2.661   4.881   2.444
    1   AR   Ar  253   5.198   2.662   7.145
    1   AR   Ar  254   3.685   4.834  13.041
    1   AR   Ar  255   5.034   5.592   9.194
    1   AR   Ar  256   5.990   5.518   3.895
    7.12000  7.12000 12.00000
Argon-slab step 5695
  256
    1   AR   Ar    1   3.709   2.516  -1.673
    1   AR   Ar    2   5.865   0.302   1.125
    1   AR   Ar    3   5.033   3.447  -1.475
    1   AR   Ar    4   2.229   0.863   1.382
    1   AR   Ar    5   6.718   5.541  -0.215
    1   AR   Ar    6   1.370   1.012   1.948
    1   AR   Ar    7   6.127   4.631   3.112
    1   AR   Ar    8   6.069   3.236  -0.217
    1   AR   Ar    9   0.527   5.621   4.834
    1   AR   Ar   10   5.874   4.430   5.890
    1   AR   Ar   11   0.857   6.383   5.463
    1   AR   Ar   12   7.026   2.053   4.446
    1   AR   Ar   13   6.925   0.041   5.059
    1   AR   Ar   14   4.460   1.168   6.012
    1   AR   Ar   15   2.764   5.463   9.382
    1   AR   Ar   16   0.519   6.708   6.448
    1   AR   Ar   17   5.641   3.617   0.723
    1   AR   Ar   18   6.831   3.700  -2.599
    1   AR   Ar   19   4.982   5.007   0.239
    1   AR   Ar   20   6.721   2.955  -1.712
    1   AR   Ar   21   2.282   1.103   2.415
    1   AR   Ar   22   5.239   0.295   1.988
    1   AR   Ar   23   0.611   5.684   0.314
    1   AR   Ar   24   6.027   2.636   4.039
    1   AR   Ar   25   0.963   3.164   5.422
    1   AR   Ar   26   5.971   5.977   4.864
    1   AR   Ar   27   1.006   0.483   1.061
    1   AR   Ar   28   2.454   2.321   3.920
    1   AR   Ar   29   5.473   0.052   7.385
    1   AR   Ar   30   6.356   0.510   3.317
    1   AR   Ar   31   0.958   1.076   6.733
    1   AR   Ar   32   1.031   2.015   6.134
    1   AR   Ar   33   6.029   5.510   0.636
    1   AR   Ar   34   1.858   4.976   3.016
    1   AR   Ar   35   5.744   5.775   2.437
    1   AR   Ar   36   3.531   1.449  -3.938
    1   AR   Ar   37   4.532   3.453   1.230
    1   AR   Ar   38   6.244   4.577   4.385
    1   AR   Ar   39   0.432   2.803   3.951
    1   AR   Ar   40   0.486   4.018   2.132
    1   AR   Ar   41   0.554   1.849   3.485
    1   AR   Ar   42   5.044   5.486   4.957
    1   AR   Ar   43   0.077   3.235   6.868
    1   AR   Ar   44   1.283   4.009   3.338
    1   AR   Ar   45   2.061   3.918   5.422
    1   AR   Ar   46   6.296   5.292   7.165
    1   AR   Ar   47   2.659   3.942   7.077
    1   AR   Ar   48   0.343   3.489   7.833
    1   AR   Ar   49   0.138   1.691   0.619
    1   AR   Ar   50   2.987   4.663   0.301
    1   AR   Ar   51   5.415   3.734   3.111
    1   AR   Ar   52   5.885   3.584  -2.104
    1   AR   Ar   53   4.339   0.079   2.801
    1   AR   Ar   54   6.115   6.678   2.914
    1   AR   Ar   55   6.811   4.929   2.301
    1   AR   Ar   56   5.732   1.572   3.929
    1   AR   Ar   57   4.843   5.154   2.555
    1   AR   Ar   58   1.436   3.396   4.539
    1   AR   Ar   59   3.659   5.489   5.510
    1   AR   Ar   60   0.844   5.232   2.451
    1   AR   Ar   61   6.905   4.587   6.476
    1   AR   Ar   62   6.721   4.158   5.490
    1   AR   Ar   63   1.663   1.478   7.321
    1   AR   Ar   64   0.719   4.813   4.161
    1   AR   Ar   65   4.184   1.251   2.659
    1   AR   Ar   66   1.471   1.950   0.978
    1   AR   Ar   67   4.437   1.165  -0.663
    1   AR   Ar   68   6.862   0.685   0.486
    1   AR   Ar   69   2.499   2.648   0.774
    1   AR   Ar   70   0.107   1.228   1.754
    1   AR   Ar   71   3.466   0.464   2.992
    1   AR   Ar   72   4.670   0.924   1.281
    1   AR   Ar   73   3.024   0.108   4.566
    1   AR   Ar   74   1.028   0.774   3.269
    1   AR   Ar   75   2.590   0.774   5.352
    1   AR   Ar   76   2.809   0.248   1.892
    1   AR   Ar   77   1.272   5.421   6.077
    1   AR   Ar   78   0.139   5.667   6.358
    1   AR   Ar   79   3.745   6.831   5.434
    1   AR   Ar   80   3.547   4.215   5.750
    1   AR   Ar   81   1.260   6.419   1.990
    1   AR   Ar   82   6.906   5.054   1.142
    1   AR   Ar   83   0.595   3.033   1.529
    1   AR   Ar   84   1.059   4.371   1.137
    1   AR   Ar   85   0.276   2.799  -0.592
    1   AR   Ar   86   1.470   5.759   0.948
    1   AR   Ar   87   4.042   2.877   2.527
    1   AR   Ar   88   3.462   5.126   1.764
    1   AR   Ar   89   5.805   2.515   0.996
    1   AR   Ar   90   3.268   1.167   6.007
    1   AR   Ar   91   1.733   1.705   3.116
    1   AR   Ar   92   3.676   2.755   1.183
    1   AR   Ar   93   1.183   0.916   5.495
    1   AR   Ar   94   0.140   6.932   9.379
    1   AR   Ar   95   5.472   1.041   6.791
    1   AR   Ar   96   1.787   6.902   5.592
    1   AR   Ar   97   4.545   1.438  -1.753
    1   AR   Ar   98   1.805   4.384   4.098
    1   AR   Ar   99   5.700   6.563  -0.947
    1   AR   Ar  100   6.183   2.907  -2.814
    1   AR   Ar  101   4.291   6.108   3.036
    1   AR   Ar  102   4.126   2.102   1.783
    1   AR   Ar  103   1.588   4.293   2.326
    1   AR   Ar  104   3.323   0.366  -0.762
    1   AR   Ar  105   2.870   2.342   2.349
    1   AR   Ar  106   4.272   0.989   3.764
    1   AR   Ar  107   0.356   4.944   5.617
    1   AR   Ar  108   2.464   0.406   3.478
    1   AR   Ar  109   2.529   4.912   4.689
    1   AR   Ar  110   1.975   2.343   5.326
    1   AR   Ar  111   4.330   4.194   6.873
    1   AR   Ar  112   6.427   6.452   6.912
    1   AR   Ar  113   6.816   5.864  -1.620
    1   AR   Ar  114   2.495   0.009  -0.093
    1   AR   Ar  115   0.040   4.434  -0.537
    1   AR   Ar  116   5.542   1.147   0.561
    1   AR   Ar  117   0.316   4.037   3.138
    1   AR   Ar  118   2.092   6.546   3.880
    1   AR   Ar  119   1.771   3.184   2.803
    1   AR   Ar  120   2.020   7.014   2.632
    1   AR   Ar  121   5.363   3.905   6.529
    1   AR   Ar  122   2.964   5.296   3.354
    1   AR   Ar  123   3.645   2.179   4.983
    1   AR   Ar  124   0.654   5.534   1.525
    1   AR   Ar  125   6.394   3.639   3.648
    1   AR   Ar  126   7.109   0.998   7.500
    1   AR   Ar  127   4.891   3.414   5.821
    1   AR   Ar  128   0.793   3.968   6.362
    1   AR   Ar  129   1.665   5.552   4.465
    1   AR   Ar  130   5.090   0.247  -4.546
    1   AR   Ar  131   3.782   6.130  -0.184
    1   AR   Ar  132   1.964   2.467   1.801
    1   AR   Ar  133   4.197   0.376   4.658
    1   AR   Ar  134   3.098   1.192   4.455
    1   AR   Ar  135   5.766   6.975   5.502
    1   AR   Ar  136   5.083   6.580   2.649
    1   AR   Ar  137   2.616   5.133   5.808
    1   AR   Ar  138   5.859   1.450   5.978
    1   AR   Ar  139   6.076   2.597   5.185
    1   AR   Ar  140   5.090   6.709   4.762
    1   AR   Ar  141   3.687   5.246   4.397
    1   AR   Ar  142   3.893   6.054   8.868
    1   AR   Ar  143   4.942   6.498   8.487
    1   AR   Ar  144   0.006   2.826   5.372
    1   AR   Ar  145   4.807   4.463  -1.974
    1   AR   Ar  146   3.883   2.528   4.050
    1   AR   Ar  147   4.555   4.006  -0.344
    1   AR   Ar  148   1.893   5.790  -0.108
    1   AR   Ar  149   6.425   1.893  -0.090
    1   AR   Ar  150   0.828   1.909   2.443
    1   AR   Ar  151   2.942   3.222   1.800
    1   AR   Ar  152   1.015   1.791  -0.379
    1   AR   Ar  153   5.164   0.707   2.919
    1   AR   Ar  154   5.155   3.467   3.984
    1   AR   Ar  155   5.891   3.337   5.958
    1   AR   Ar  156   2.996   4.092   2.817
    1   AR   Ar  157   3.476   5.942   6.486
    1   AR   Ar  158   0.930   2.722   7.497
    1   AR   Ar  159   4.794   0.225   5.632
    1   AR   Ar  160   0.884   1.417   4.371
    1   AR   Ar  161   5.322   4.720   3.695
    1   AR   Ar  162   4.161   5.714  -1.438
    1   AR   Ar  163   6.543   3.831   2.408
    1   AR   Ar  164   2.367   5.861   2.553
    1   AR   Ar  165   3.609   3.959   1.110
    1   AR   Ar  166   2.901   3.150   5.014
    1   AR   Ar  167   5.974   7.054   4.157
    1   AR   Ar  168   5.794   4.472  -2.605
    1   AR   Ar  169   4.461   3.639   3.228
    1   AR   Ar  170   2.769   2.571   6.522
    1   AR   Ar  171   4.594   5.404   4.022
    1   AR   Ar  172   4.337   3.045   4.860
    1   AR   Ar  173   0.910   1.574   8.033
    1   AR   Ar  174   2.966   6.156   4.588
    1   AR   Ar  175   0.859   0.065   7.452
    1   AR   Ar  176   3.333   3.075   3.430
    1   AR   Ar  177   7.077   4.174  -1.638
    1   AR   Ar  178   2.276   6.923   1.008
    1   AR   Ar  179   3.325   6.467   0.788
    1   AR   Ar  180   4.997   5.933  -7.062
    1   AR   Ar  181   6.940   6.188   2.107
    1   AR   Ar  182   0.665   6.857   2.805
    1   AR   Ar  183   5.050   5.665   1.429
    1   AR   Ar  184   3.892   5.224   0.325
    1   AR   Ar  185   3.363   4.195   4.285
    1   AR   Ar  186   3.231   6.600   3.454
    1   AR   Ar  187   4.171   6.640   4.035
    1   AR   Ar  188   3.208   1.235   1.780
    1   AR   Ar  189   6.294   2.740   6.827
    1   AR   Ar  190   1.845   0.560   4.650
    1   AR   Ar  191   4.303   6.100   4.957
    1   AR   Ar  192   3.680   3.336   6.523
    1   AR   Ar  193   3.242   6.431   2.051
    1   AR   Ar  194   4.989   5.873  -0.332
    1   AR   Ar  195   6.246   1.288   1.303
    1   AR   Ar  196   5.093   6.705   1.116
    1   AR   Ar  197   4.610   2.877   0.409
    1   AR   Ar  198   6.822   6.506   0.835
    1   AR   Ar  199   0.055   0.285   2.195
    1   AR   Ar  200   5.402   2.272  -0.029
    1   AR   Ar  201   6.929   5.041   3.515
    1   AR   Ar  202   5.050   0.183   3.881
    1   AR   Ar  203   7.021   6.985   3.701
    1   AR   Ar  204   4.895   4.998   8.109
    1   AR   Ar  205   5.368   1.548   1.746
    1   AR   Ar  206   6.299   0.426   6.640
    1   AR   Ar  207   0.584   3.952   4.771
    1   AR   Ar  208   0.975   6.079   3.665
    1   AR   Ar  209   5.364   2.511  -1.790
    1   AR   Ar  210   1.970   1.693  -0.039
    1   AR   Ar  211   6.866   2.718   0.515
    1   AR   Ar  212   6.302   4.438   0.658
    1   AR   Ar  213   4.048   1.615   0.782
    1   AR   Ar  214   5.796   4.830   1.673
    1   AR   Ar  215   0.412   2.837   2.967
    1   AR   Ar  216   1.935   2.919  -0.455
    1   AR   Ar  217   4.977   2.242   4.376
    1   AR   Ar  218   4.560   2.190   5.654
    1   AR   Ar  219   4.595   3.994   2.262
    1   AR   Ar  220   4.435   4.606   1.264
    1   AR   Ar  221   6.778   6.088   4.201
    1   AR   Ar  222   5.147   6.276   5.993
    1   AR   Ar  223   0.049   0.872   6.181
    1   AR   Ar  224   4.790   1.162   4.968
    1   AR   Ar  225   6.107   2.922   2.703
    1   AR   Ar  226   2.346   3.357   4.127
    1   AR   Ar  227   1.428   2.372   4.031
    1   AR   Ar  228   6.119   0.846   2.372
    1   AR   Ar  229   5.845   3.911  -1.012
    1   AR   Ar  230   4.054   4.741   3.393
    1   AR   Ar  231   4.909   2.583   3.337
    1   AR   Ar  232   5.606   3.399   1.810
    1   AR   Ar  233   6.525   1.705   3.400
    1   AR   Ar  234   6.637   3.369   4.646
    1   AR   Ar  235   6.482   0.843   4.367
    1   AR   Ar  236   4.516   4.200   4.330
    1   AR   Ar  237   4.617   1.616   7.355
    1   AR   Ar  238   4.804   4.541   5.926
    1   AR   Ar  239   1.230   4.293  10.237
    1   AR   Ar  240   1.655   3.096   6.476
    1   AR   Ar  241   0.939   6.488  -0.305
    1   AR   Ar  242   5.901   6.491   1.736
    1   AR   Ar  243   4.334   5.991   1.978
    1   AR   Ar  244   6.014   6.529   0.200
    1   AR   Ar  245   3.082   1.484   3.394
    1   AR   Ar  246   5.183   5.522  -1.331
    1   AR   Ar  247   6.786   3.608   1.432
    1   AR   Ar  248   5.713   5.218  -0.446
    1   AR   Ar  249   3.280   0.741   0.859
    1   AR   Ar  250   5.158   6.244   3.734
    1   AR   Ar  251   5.541   3.827   4.982
    1   AR   Ar  252   2.655   4.886   2.436
    1   AR   Ar  253   5.168   2.664   7.129
    1   AR   Ar  254   3.730   4.834  13.068
    1   AR   Ar  255   5.012   5.557   9.198
    1   AR   Ar  256   5.987   5.547   3.873
    7.12000  7.12000 12.00000
Argon-slab step 5700
  256
    1   AR   Ar    1   3.736   2.490  -1.664
    1   AR   Ar    2   5.895   0.308   1.155
    1   AR   Ar    3   5.061   3.455  -1.455
    1   AR   Ar    4   2.228   0.874   1.434
    1   AR   Ar    5   6.709   5.545  -0.165
    1   AR   Ar    6   1.351   1.015   1.980
    1   AR   Ar    7   6.120   4.621   3.097
    1   AR   Ar    8   6.055   3.208  -0.220
    1   AR   Ar    9   0.471   5.634   4.848
    1   AR   Ar   10   5.855   4.412   5.848
    1   AR   Ar   11   0.876   6.377   5.498
    1   AR   Ar   12   7.015   2.057   4.432
    1   AR   Ar   13   6.901   0.022   5.087
    1   AR   Ar   14   4.457   1.184   6.000
    1   AR   Ar   15   2.756   5.448   9.384
    1   AR   Ar   16   0.533   6.674   6.461
    1   AR   Ar   17   5.652   3.635   0.704
    1   AR   Ar   18   6.812   3.679  -2.614
    1   AR   Ar   19   4.981   4.983   0.247
    1   AR   Ar   20   6.728   2.968  -1.692
    1   AR   Ar   21   2.281   1.129   2.405
    1   AR   Ar   22   5.244   0.301   1.976
    1   AR   Ar   23   0.599   5.675   0.297
    1   AR   Ar   24   6.016   2.650   4.088
    1   AR   Ar   25   0.981   3.236   5.447
    1   AR   Ar   26   5.968   5.983   4.885
    1   AR   Ar   27   0.993   0.493   1.077
    1   AR   Ar   28   2.473   2.319   3.923
    1   AR   Ar   29   5.481   0.012   7.370
    1   AR   Ar   30   6.340   0.498   3.267
    1   AR   Ar   31   0.958   1.085   6.729
    1   AR   Ar   32   1.044   2.044   6.132
    1   AR   Ar   33   6.026   5.513   0.663
    1   AR   Ar   34   1.862   4.982   2.998
    1   AR   Ar   35   5.760   5.793   2.403
    1   AR   Ar   36   3.522   1.452  -3.960
    1   AR   Ar   37   4.518   3.434   1.199
    1   AR   Ar   38   6.274   4.576   4.352
    1   AR   Ar   39   0.441   2.796   3.962
    1   AR   Ar   40   0.498   4.023   2.112
    1   AR   Ar   41   0.565   1.890   3.467
    1   AR   Ar   42   5.031   5.448   4.929
    1   AR   Ar   43   0.078   3.227   6.859
    1   AR   Ar   44   1.281   4.020   3.344
    1   AR   Ar   45   2.059   3.898   5.409
    1   AR   Ar   46   6.278   5.289   7.164
    1   AR   Ar   47   2.676   3.944   7.090
    1   AR   Ar   48   0.350   3.473   7.820
    1   AR   Ar   49   0.112   1.688   0.608
    1   AR   Ar   50   2.957   4.684   0.292
    1   AR   Ar   51   5.439   3.730   3.111
    1   AR   Ar   52   5.899   3.610  -2.143
    1   AR   Ar   53   4.328   0.062   2.822
    1   AR   Ar   54   6.101   6.671   2.909
    1   AR   Ar   55   6.802   4.917   2.319
    1   AR   Ar   56   5.756   1.602   3.912
    1   AR   Ar   57   4.822   5.125   2.538
    1   AR   Ar   58   1.456   3.392   4.539
    1   AR   Ar   59   3.676   5.481   5.514
    1   AR   Ar   60   0.841   5.240   2.438
    1   AR   Ar   61   6.920   4.576   6.486
    1   AR   Ar   62   6.730   4.137   5.503
    1   AR   Ar   63   1.657   1.466   7.316
    1   AR   Ar   64   0.723   4.827   4.159
    1   AR   Ar   65   4.171   1.268   2.638
    1   AR   Ar   66   1.457   1.957   0.933
    1   AR   Ar   67   4.430   1.166  -0.629
    1   AR   Ar   68   6.898   0.705   0.506
    1   AR   Ar   69   2.490   2.658   0.790
    1   AR   Ar   70   0.110   1.222   1.770
    1   AR   Ar   71   3.461   0.487   2.993
    1   AR   Ar   72   4.662   0.948   1.298
    1   AR   Ar   73   3.010   0.069   4.541
    1   AR   Ar   74   1.043   0.769   3.263
    1   AR   Ar   75   2.590   0.803   5.366
    1   AR   Ar   76   2.835   0.274   1.902
    1   AR   Ar   77   1.245   5.439   6.112
    1   AR   Ar   78   0.123   5.626   6.348
    1   AR   Ar   79   3.778   6.832   5.433
    1   AR   Ar   80   3.537   4.197   5.733
    1   AR   Ar   81   1.258   6.415   1.975
    1   AR   Ar   82   6.893   5.076   1.167
    1   AR   Ar   83   0.649   3.044   1.509
    1   AR   Ar   84   1.051   4.364   1.144
    1   AR   Ar   85   0.275   2.771  -0.563
    1   AR   Ar   86   1.455   5.749   0.894
    1   AR   Ar   87   4.027   2.870   2.513
    1   AR   Ar   88   3.448   5.112   1.795
    1   AR   Ar   89   5.822   2.525   0.995
    1   AR   Ar   90   3.268   1.159   6.036
    1   AR   Ar   91   1.738   1.686   3.085
    1   AR   Ar   92   3.666   2.796   1.161
    1   AR   Ar   93   1.163   0.925   5.498
    1   AR   Ar   94   0.163   6.944   9.382
    1   AR   Ar   95   5.455   1.043   6.782
    1   AR   Ar   96   1.794   6.932   5.584
    1   AR   Ar   97   4.549   1.456  -1.762
    1   AR   Ar   98   1.810   4.374   4.096
    1   AR   Ar   99   5.676   6.567  -0.986
    1   AR   Ar  100   6.208   2.879  -2.828
    1   AR   Ar  101   4.276   6.145   3.053
    1   AR   Ar  102   4.110   2.124   1.762
    1   AR   Ar  103   1.632   4.315   2.336
    1   AR   Ar  104   3.295   0.367  -0.735
    1   AR   Ar  105   2.892   2.331   2.331
    1   AR   Ar  106   4.259   0.952   3.818
    1   AR   Ar  107   0.383   4.956   5.613
    1   AR   Ar  108   2.467   0.402   3.483
    1   AR   Ar  109   2.541   4.928   4.693
    1   AR   Ar  110   1.977   2.345   5.289
    1   AR   Ar  111   4.320   4.178   6.871
    1   AR   Ar  112   6.447   6.460   6.926
    1   AR   Ar  113   6.814   5.873  -1.610
    1   AR   Ar  114   2.489   0.001  -0.114
    1   AR   Ar  115   0.014   4.435  -0.537
    1   AR   Ar  116   5.534   1.132   0.567
    1   AR   Ar  117   0.339   4.038   3.152
    1   AR   Ar  118   2.097   6.566   3.887
    1   AR   Ar  119   1.748   3.190   2.785
    1   AR   Ar  120   2.025   6.968   2.642
    1   AR   Ar  121   5.361   3.924   6.538
    1   AR   Ar  122   2.971   5.274   3.353
    1   AR   Ar  123   3.610   2.178   4.992
    1   AR   Ar  124   0.662   5.564   1.525
    1   AR   Ar  125   6.397   3.634   3.630
    1   AR   Ar  126   7.101   1.025   7.486
    1   AR   Ar  127   4.869   3.421   5.785
    1   AR   Ar  128   0.794   3.974   6.368
    1   AR   Ar  129   1.637   5.552   4.472
    1   AR   Ar  130   5.125   0.261  -4.534
    1   AR   Ar  131   3.804   6.146  -0.160
    1   AR   Ar  132   1.950   2.454   1.805
    1   AR   Ar  133   4.201   0.346   4.641
    1   AR   Ar  134   3.129   1.201   4.459
    1   AR   Ar  135   5.742   7.007   5.505
    1   AR   Ar  136   5.098   6.551   2.617
    1   AR   Ar  137   2.632   5.128   5.824
    1   AR   Ar  138   5.868   1.376   5.978
    1   AR   Ar  139   6.094   2.608   5.177
    1   AR   Ar  140   5.120   6.722   4.739
    1   AR   Ar  141   3.664   5.253   4.414
    1   AR   Ar  142   3.894   6.049   8.859
    1   AR   Ar  143   4.926   6.487   8.459
    1   AR   Ar  144   0.006   2.835   5.376
    1   AR   Ar  145   4.811   4.474  -1.992
    1   AR   Ar  146   3.887   2.555   4.034
    1   AR   Ar  147   4.544   4.000  -0.339
    1   AR   Ar  148   1.878   5.782  -0.078
    1   AR   Ar  149   6.384   1.886  -0.092
    1   AR   Ar  150   0.809   1.890   2.441
    1   AR   Ar  151   2.940   3.226   1.808
    1   AR   Ar  152   1.023   1.786  -0.339
    1   AR   Ar  153   5.180   0.741   2.939
    1   AR   Ar  154   5.150   3.463   4.024
    1   AR   Ar  155   5.901   3.339   5.982
    1   AR   Ar  156   3.021   4.099   2.815
    1   AR   Ar  157   3.478   5.964   6.474
    1   AR   Ar  158   0.919   2.751   7.498
    1   AR   Ar  159   4.745   0.216   5.635
    1   AR   Ar  160   0.881   1.428   4.378
    1   AR   Ar  161   5.307   4.687   3.714
    1   AR   Ar  162   4.171   5.721  -1.450
    1   AR   Ar  163   6.544   3.849   2.404
    1   AR   Ar  164   2.344   5.892   2.527
    1   AR   Ar  165   3.631   3.981   1.110
    1   AR   Ar  166   2.915   3.155   5.037
    1   AR   Ar  167   5.989   7.048   4.200
    1   AR   Ar  168   5.822   4.483  -2.588
    1   AR   Ar  169   4.479   3.639   3.226
    1   AR   Ar  170   2.745   2.565   6.569
    1   AR   Ar  171   4.617   5.429   4.004
    1   AR   Ar  172   4.312   3.067   4.830
    1   AR   Ar  173   0.900   1.575   8.032
    1   AR   Ar  174   2.958   6.180   4.597
    1   AR   Ar  175   0.840   0.055   7.441
    1   AR   Ar  176   3.328   3.077   3.436
    1   AR   Ar  177   7.080   4.174  -1.644
    1   AR   Ar  178   2.313   6.922   0.999
    1   AR   Ar  179   3.350   6.479   0.781
    1   AR   Ar  180   4.951   5.926  -7.120
    1   AR   Ar  181   6.898   6.137   2.083
    1   AR   Ar  182   0.671   6.844   2.806
    1   AR   Ar  183   5.048   5.674   1.425
    1   AR   Ar  184   3.940   5.272   0.322
    1   AR   Ar  185   3.348   4.200   4.283
    1   AR   Ar  186   3.230   6.612   3.468
    1   AR   Ar  187   4.192   6.606   4.042
    1   AR   Ar  188   3.170   1.253   1.805
    1   AR   Ar  189   6.296   2.734   6.852
    1   AR   Ar  190   1.900   0.551   4.657
    1   AR   Ar  191   4.293   6.112   4.964
    1   AR   Ar  192   3.656   3.329   6.539
    1   AR   Ar  193   3.246   6.473   2.056
    1   AR   Ar  194   5.006   5.862  -0.307
    1   AR   Ar  195   6.246   1.318   1.331
    1   AR   Ar  196   5.111   6.690   1.140
    1   AR   Ar  197   4.595   2.854   0.395
    1   AR   Ar  198   6.839   6.502   0.796
    1   AR   Ar  199   0.045   0.310   2.189
    1   AR   Ar  200   5.404   2.284  -0.013
    1   AR   Ar  201   6.919   5.040   3.501
    1   AR   Ar  202   5.033   0.194   3.901
    1   AR   Ar  203   6.993   6.980   3.728
    1   AR   Ar  204   4.909   4.986   8.120
    1   AR   Ar  205   5.377   1.552   1.770
    1   AR   Ar  206   6.281   0.418   6.636
    1   AR   Ar  207   0.560   3.951   4.803
    1   AR   Ar  208   0.995   6.075   3.673
    1   AR   Ar  209   5.353   2.538  -1.785
    1   AR   Ar  210   1.932   1.731  -0.056
    1   AR   Ar  211   6.845   2.760   0.516
    1   AR   Ar  212   6.284   4.444   0.683
    1   AR   Ar  213   4.056   1.582   0.744
    1   AR   Ar  214   5.817   4.861   1.646
    1   AR   Ar  215   0.459   2.834   2.973
    1   AR   Ar  216   1.970   2.936  -0.470
    1   AR   Ar  217   4.963   2.242   4.347
    1   AR   Ar  218   4.545   2.183   5.647
    1   AR   Ar  219   4.605   3.955   2.264
    1   AR   Ar  220   4.429   4.627   1.269
    1   AR   Ar  221   6.764   6.112   4.181
    1   AR   Ar  222   5.174   6.269   5.973
    1   AR   Ar  223   0.080   0.894   6.199
    1   AR   Ar  224   4.787   1.160   4.952
    1   AR   Ar  225   6.129   2.923   2.702
    1   AR   Ar  226   2.339   3.375   4.132
    1   AR   Ar  227   1.425   2.377   4.039
    1   AR   Ar  228   6.130   0.813   2.360
    1   AR   Ar  229   5.852   3.885  -0.971
    1   AR   Ar  230   4.092   4.763   3.399
    1   AR   Ar  231   4.898   2.562   3.323
    1   AR   Ar  232   5.614   3.406   1.789
    1   AR   Ar  233   6.531   1.690   3.394
    1   AR   Ar  234   6.636   3.380   4.609
    1   AR   Ar  235   6.499   0.815   4.369
    1   AR   Ar  236   4.510   4.174   4.362
    1   AR   Ar  237   4.608   1.628   7.336
    1   AR   Ar  238   4.812   4.523   5.898
    1   AR   Ar  239   1.238   4.325  10.183
    1   AR   Ar  240   1.664   3.095   6.465
    1   AR   Ar  241   0.905   6.499  -0.320
    1   AR   Ar  242   5.893   6.492   1.750
    1   AR   Ar  243   4.350   5.996   2.008
    1   AR   Ar  244   5.988   6.529   0.207
    1   AR   Ar  245   3.111   1.483   3.391
    1   AR   Ar  246   5.174   5.508  -1.335
    1   AR   Ar  247   6.775   3.598   1.408
    1   AR   Ar  248   5.710   5.213  -0.447
    1   AR   Ar  249   3.272   0.738   0.883
    1   AR   Ar  250   5.178   6.230   3.724
    1   AR   Ar  251   5.514   3.820   4.984
    1   AR   Ar  252   2.648   4.902   2.409
    1   AR   Ar  253   5.138   2.666   7.112
    1   AR   Ar  254   3.774   4.834  13.096
    1   AR   Ar  255   4.992   5.539   9.196
    1   AR   Ar  256   5.979   5.573   3.848
    7.12000  7.12000 12.00000
Argon-slab step 5705
  256
    1   AR   Ar    1   3.763   2.463  -1.655
    1   AR   Ar    2   5.931   0.313   1.183
    1   AR   Ar    3   5.044   3.482  -1.438
    1   AR   Ar    4   2.219   0.890   1.467
    1   AR   Ar    5   6.701   5.548  -0.115
    1   AR   Ar    6   1.324   1.019   2.013
    1   AR   Ar    7   6.106   4.612   3.082
    1   AR   Ar    8   6.042   3.175  -0.218
    1   AR   Ar    9   0.414   5.650   4.856
    1   AR   Ar   10   5.834   4.405   5.802
    1   AR   Ar   11   0.895   6.370   5.532
    1   AR   Ar   12   7.011   2.037   4.445
    1   AR   Ar   13   6.876   0.002   5.115
    1   AR   Ar   14   4.453   1.198   5.991
    1   AR   Ar   15   2.749   5.432   9.385
    1   AR   Ar   16   0.545   6.641   6.477
    1   AR   Ar   17   5.659   3.649   0.685
    1   AR   Ar   18   6.801   3.663  -2.630
    1   AR   Ar   19   4.979   4.954   0.262
    1   AR   Ar   20   6.734   2.983  -1.671
    1   AR   Ar   21   2.288   1.155   2.404
    1   AR   Ar   22   5.247   0.306   1.964
    1   AR   Ar   23   0.580   5.687   0.277
    1   AR   Ar   24   6.004   2.664   4.134
    1   AR   Ar   25   1.002   3.306   5.480
    1   AR   Ar   26   5.963   5.992   4.907
    1   AR   Ar   27   0.979   0.503   1.093
    1   AR   Ar   28   2.496   2.315   3.926
    1   AR   Ar   29   5.490   7.091   7.353
    1   AR   Ar   30   6.324   0.491   3.229
    1   AR   Ar   31   0.953   1.090   6.720
    1   AR   Ar   32   1.058   2.074   6.130
    1   AR   Ar   33   6.014   5.519   0.689
    1   AR   Ar   34   1.859   4.999   3.001
    1   AR   Ar   35   5.777   5.790   2.379
    1   AR   Ar   36   3.513   1.455  -3.982
    1   AR   Ar   37   4.519   3.430   1.180
    1   AR   Ar   38   6.303   4.574   4.318
    1   AR   Ar   39   0.457   2.788   4.004
    1   AR   Ar   40   0.510   4.029   2.088
    1   AR   Ar   41   0.576   1.926   3.449
    1   AR   Ar   42   5.027   5.403   4.907
    1   AR   Ar   43   0.074   3.225   6.826
    1   AR   Ar   44   1.290   4.027   3.345
    1   AR   Ar   45   2.060   3.873   5.392
    1   AR   Ar   46   6.262   5.288   7.161
    1   AR   Ar   47   2.693   3.945   7.101
    1   AR   Ar   48   0.350   3.471   7.816
    1   AR   Ar   49   0.088   1.689   0.599
    1   AR   Ar   50   2.927   4.706   0.284
    1   AR   Ar   51   5.480   3.730   3.097
    1   AR   Ar   52   5.908   3.627  -2.170
    1   AR   Ar   53   4.324   0.046   2.842
    1   AR   Ar   54   6.090   6.662   2.904
    1   AR   Ar   55   6.795   4.906   2.334
    1   AR   Ar   56   5.770   1.632   3.887
    1   AR   Ar   57   4.801   5.096   2.522
    1   AR   Ar   58   1.465   3.388   4.540
    1   AR   Ar   59   3.692   5.470   5.519
    1   AR   Ar   60   0.853   5.243   2.422
    1   AR   Ar   61   6.934   4.563   6.497
    1   AR   Ar   62   6.751   4.109   5.509
    1   AR   Ar   63   1.641   1.456   7.335
    1   AR   Ar   64   0.728   4.841   4.154
    1   AR   Ar   65   4.158   1.285   2.617
    1   AR   Ar   66   1.443   1.963   0.888
    1   AR   Ar   67   4.422   1.168  -0.594
    1   AR   Ar   68   6.931   0.721   0.527
    1   AR   Ar   69   2.480   2.667   0.807
    1   AR   Ar   70   0.115   1.222   1.782
    1   AR   Ar   71   3.483   0.513   2.974
    1   AR   Ar   72   4.654   0.968   1.316
    1   AR   Ar   73   2.997   0.039   4.514
    1   AR   Ar   74   1.059   0.765   3.255
    1   AR   Ar   75   2.590   0.829   5.380
    1   AR   Ar   76   2.867   0.292   1.920
    1   AR   Ar   77   1.218   5.458   6.145
    1   AR   Ar   78   0.106   5.589   6.340
    1   AR   Ar   79   3.805   6.838   5.434
    1   AR   Ar   80   3.527   4.179   5.715
    1   AR   Ar   81   1.257   6.411   1.960
    1   AR   Ar   82   6.885   5.102   1.197
    1   AR   Ar   83   0.703   3.055   1.491
    1   AR   Ar   84   1.042   4.359   1.152
    1   AR   Ar   85   0.272   2.742  -0.533
    1   AR   Ar   86   1.447   5.741   0.844
    1   AR   Ar   87   4.012   2.865   2.501
    1   AR   Ar   88   3.452   5.110   1.812
    1   AR   Ar   89   5.840   2.534   0.994
    1   AR   Ar   90   3.273   1.153   6.068
    1   AR   Ar   91   1.740   1.670   3.057
    1   AR   Ar   92   3.651   2.839   1.133
    1   AR   Ar   93   1.142   0.935   5.502
    1   AR   Ar   94   0.186   6.956   9.386
    1   AR   Ar   95   5.428   1.041   6.788
    1   AR   Ar   96   1.801   6.965   5.575
    1   AR   Ar   97   4.553   1.476  -1.770
    1   AR   Ar   98   1.821   4.368   4.102
    1   AR   Ar   99   5.665   6.566  -1.012
    1   AR   Ar  100   6.231   2.845  -2.844
    1   AR   Ar  101   4.254   6.175   3.077
    1   AR   Ar  102   4.099   2.137   1.745
    1   AR   Ar  103   1.670   4.325   2.335
    1   AR   Ar  104   3.269   0.368  -0.708
    1   AR   Ar  105   2.916   2.315   2.316
    1   AR   Ar  106   4.244   0.919   3.865
    1   AR   Ar  107   0.410   4.961   5.608
    1   AR   Ar  108   2.472   0.399   3.490
    1   AR   Ar  109   2.556   4.945   4.698
    1   AR   Ar  110   1.978   2.348   5.252
    1   AR   Ar  111   4.309   4.161   6.868
    1   AR   Ar  112   6.467   6.469   6.940
    1   AR   Ar  113   6.812   5.882  -1.599
    1   AR   Ar  114   2.482   7.108  -0.081
    1   AR   Ar  115   7.106   4.436  -0.536
    1   AR   Ar  116   5.525   1.120   0.571
    1   AR   Ar  117   0.350   4.058   3.165
    1   AR   Ar  118   2.102   6.584   3.894
    1   AR   Ar  119   1.725   3.196   2.768
    1   AR   Ar  120   2.030   6.923   2.651
    1   AR   Ar  121   5.350   3.946   6.572
    1   AR   Ar  122   2.978   5.253   3.354
    1   AR   Ar  123   3.575   2.175   5.004
    1   AR   Ar  124   0.664   5.599   1.517
    1   AR   Ar  125   6.400   3.629   3.607
    1   AR   Ar  126   7.094   1.052   7.470
    1   AR   Ar  127   4.840   3.425   5.745
    1   AR   Ar  128   0.794   3.980   6.372
    1   AR   Ar  129   1.608   5.553   4.478
    1   AR   Ar  130   5.160   0.275  -4.522
    1   AR   Ar  131   3.832   6.169  -0.141
    1   AR   Ar  132   1.935   2.441   1.809
    1   AR   Ar  133   4.203   0.312   4.630
    1   AR   Ar  134   3.161   1.210   4.463
    1   AR   Ar  135   5.728   7.042   5.508
    1   AR   Ar  136   5.118   6.523   2.581
    1   AR   Ar  137   2.648   5.122   5.839
    1   AR   Ar  138   5.885   1.307   5.963
    1   AR   Ar  139   6.111   2.618   5.168
    1   AR   Ar  140   5.148   6.731   4.716
    1   AR   Ar  141   3.638   5.261   4.431
    1   AR   Ar  142   3.898   6.048   8.841
    1   AR   Ar  143   4.908   6.475   8.431
    1   AR   Ar  144   0.005   2.843   5.381
    1   AR   Ar  145   4.817   4.485  -2.009
    1   AR   Ar  146   3.900   2.573   4.021
    1   AR   Ar  147   4.535   3.995  -0.333
    1   AR   Ar  148   1.864   5.776  -0.051
    1   AR   Ar  149   6.345   1.879  -0.092
    1   AR   Ar  150   0.792   1.871   2.436
    1   AR   Ar  151   2.950   3.227   1.839
    1   AR   Ar  152   1.014   1.779  -0.323
    1   AR   Ar  153   5.197   0.776   2.962
    1   AR   Ar  154   5.149   3.448   4.073
    1   AR   Ar  155   5.908   3.357   5.993
    1   AR   Ar  156   3.048   4.090   2.839
    1   AR   Ar  157   3.481   5.987   6.461
    1   AR   Ar  158   0.917   2.767   7.493
    1   AR   Ar  159   4.696   0.206   5.636
    1   AR   Ar  160   0.879   1.439   4.386
    1   AR   Ar  161   5.288   4.650   3.736
    1   AR   Ar  162   4.177   5.729  -1.461
    1   AR   Ar  163   6.544   3.868   2.403
    1   AR   Ar  164   2.343   5.908   2.513
    1   AR   Ar  165   3.646   4.002   1.110
    1   AR   Ar  166   2.930   3.160   5.059
    1   AR   Ar  167   6.007   7.035   4.242
    1   AR   Ar  168   5.811   4.497  -2.565
    1   AR   Ar  169   4.479   3.635   3.232
    1   AR   Ar  170   2.720   2.561   6.615
    1   AR   Ar  171   4.615   5.440   3.985
    1   AR   Ar  172   4.289   3.092   4.804
    1   AR   Ar  173   0.898   1.580   8.000
    1   AR   Ar  174   2.937   6.210   4.617
    1   AR   Ar  175   0.820   0.047   7.429
    1   AR   Ar  176   3.318   3.091   3.440
    1   AR   Ar  177   7.081   4.172  -1.650
    1   AR   Ar  178   2.351   6.922   0.991
    1   AR   Ar  179   3.339   6.457   0.791
    1   AR   Ar  180   4.906   5.919  -7.178
    1   AR   Ar  181   6.856   6.085   2.059
    1   AR   Ar  182   0.683   6.848   2.808
    1   AR   Ar  183   5.048   5.697   1.418
    1   AR   Ar  184   3.988   5.313   0.325
    1   AR   Ar  185   3.333   4.203   4.279
    1   AR   Ar  186   3.228   6.624   3.482
    1   AR   Ar  187   4.191   6.607   4.030
    1   AR   Ar  188   3.136   1.244   1.796
    1   AR   Ar  189   6.279   2.730   6.853
    1   AR   Ar  190   1.951   0.539   4.658
    1   AR   Ar  191   4.279   6.125   4.967
    1   AR   Ar  192   3.631   3.323   6.554
    1   AR   Ar  193   3.253   6.509   2.062
    1   AR   Ar  194   5.011   5.867  -0.280
    1   AR   Ar  195   6.254   1.341   1.355
    1   AR   Ar  196   5.122   6.676   1.160
    1   AR   Ar  197   4.580   2.827   0.375
    1   AR   Ar  198   6.859   6.495   0.762
    1   AR   Ar  199   0.032   0.328   2.186
    1   AR   Ar  200   5.405   2.295   0.003
    1   AR   Ar  201   6.919   5.044   3.491
    1   AR   Ar  202   5.012   0.209   3.914
    1   AR   Ar  203   6.970   6.979   3.752
    1   AR   Ar  204   4.924   4.974   8.132
    1   AR   Ar  205   5.380   1.559   1.799
    1   AR   Ar  206   6.266   0.408   6.631
    1   AR   Ar  207   0.533   3.953   4.835
    1   AR   Ar  208   1.014   6.070   3.680
    1   AR   Ar  209   5.342   2.564  -1.782
    1   AR   Ar  210   1.915   1.768  -0.067
    1   AR   Ar  211   6.823   2.801   0.516
    1   AR   Ar  212   6.264   4.448   0.704
    1   AR   Ar  213   4.062   1.552   0.704
    1   AR   Ar  214   5.838   4.893   1.618
    1   AR   Ar  215   0.507   2.835   2.967
    1   AR   Ar  216   2.004   2.952  -0.483
    1   AR   Ar  217   4.991   2.214   4.328
    1   AR   Ar  218   4.531   2.179   5.637
    1   AR   Ar  219   4.616   3.919   2.259
    1   AR   Ar  220   4.435   4.634   1.281
    1   AR   Ar  221   6.756   6.133   4.166
    1   AR   Ar  222   5.198   6.260   5.953
    1   AR   Ar  223   0.107   0.915   6.216
    1   AR   Ar  224   4.788   1.169   4.959
    1   AR   Ar  225   6.149   2.921   2.703
    1   AR   Ar  226   2.346   3.394   4.128
    1   AR   Ar  227   1.423   2.376   4.057
    1   AR   Ar  228   6.140   0.784   2.335
    1   AR   Ar  229   5.864   3.866  -0.931
    1   AR   Ar  230   4.127   4.782   3.403
    1   AR   Ar  231   4.887   2.544   3.308
    1   AR   Ar  232   5.623   3.413   1.770
    1   AR   Ar  233   6.561   1.679   3.374
    1   AR   Ar  234   6.636   3.394   4.574
    1   AR   Ar  235   6.518   0.791   4.370
    1   AR   Ar  236   4.499   4.155   4.395
    1   AR   Ar  237   4.599   1.641   7.314
    1   AR   Ar  238   4.814   4.507   5.866
    1   AR   Ar  239   1.247   4.357  10.128
    1   AR   Ar  240   1.672   3.095   6.452
    1   AR   Ar  241   0.872   6.510  -0.335
    1   AR   Ar  242   5.890   6.511   1.765
    1   AR   Ar  243   4.353   6.008   2.045
    1   AR   Ar  244   5.956   6.528   0.212
    1   AR   Ar  245   3.141   1.482   3.386
    1   AR   Ar  246   5.169   5.493  -1.339
    1   AR   Ar  247   6.764   3.588   1.380
    1   AR   Ar  248   5.723   5.198  -0.451
    1   AR   Ar  249   3.289   0.749   0.937
    1   AR   Ar  250   5.200   6.224   3.713
    1   AR   Ar  251   5.488   3.813   4.985
    1   AR   Ar  252   2.641   4.925   2.369
    1   AR   Ar  253   5.146   2.681   7.101
    1   AR   Ar  254   3.818   4.834  13.123
    1   AR   Ar  255   4.973   5.532   9.189
    1   AR   Ar  256   5.967   5.591   3.819
    7.12000  7.12000 12.00000
Argon-slab step 5710
  256
    1   AR   Ar    1   3.793   2.436  -1.645
    1   AR   Ar    2   5.970   0.318   1.208
    1   AR   Ar    3   5.022   3.514  -1.421
    1   AR   Ar    4   2.201   0.908   1.477
    1   AR   Ar    5   6.694   5.552  -0.065
    1   AR   Ar    6   1.291   1.022   2.048
    1   AR   Ar    7   6.069   4.600   3.056
    1   AR   Ar    8   6.031   3.136  -0.212
    1   AR   Ar    9   0.358   5.670   4.858
    1   AR   Ar   10   5.815   4.407   5.754
    1   AR   Ar   11   0.914   6.361   5.563
    1   AR   Ar   12   7.002   2.015   4.459
    1   AR   Ar   13   6.850   7.101   5.141
    1   AR   Ar   14   4.449   1.211   5.986
    1   AR   Ar   15   2.742   5.417   9.386
    1   AR   Ar   16   0.554   6.609   6.495
    1   AR   Ar   17   5.659   3.655   0.667
    1   AR   Ar   18   6.800   3.652  -2.647
    1   AR   Ar   19   4.979   4.920   0.282
    1   AR   Ar   20   6.738   2.999  -1.651
    1   AR   Ar   21   2.303   1.179   2.415
    1   AR   Ar   22   5.246   0.310   1.955
    1   AR   Ar   23   0.558   5.696   0.258
    1   AR   Ar   24   5.991   2.679   4.174
    1   AR   Ar   25   1.026   3.372   5.520
    1   AR   Ar   26   5.968   5.975   4.886
    1   AR   Ar   27   0.965   0.513   1.110
    1   AR   Ar   28   2.522   2.311   3.927
    1   AR   Ar   29   5.500   7.051   7.335
    1   AR   Ar   30   6.319   0.469   3.231
    1   AR   Ar   31   0.948   1.092   6.710
    1   AR   Ar   32   1.064   2.095   6.126
    1   AR   Ar   33   5.978   5.538   0.710
    1   AR   Ar   34   1.854   5.029   3.022
    1   AR   Ar   35   5.796   5.763   2.364
    1   AR   Ar   36   3.503   1.452  -3.974
    1   AR   Ar   37   4.541   3.445   1.172
    1   AR   Ar   38   6.335   4.588   4.301
    1   AR   Ar   39   0.472   2.789   4.052
    1   AR   Ar   40   0.522   4.036   2.064
    1   AR   Ar   41   0.586   1.953   3.435
    1   AR   Ar   42   5.028   5.353   4.891
    1   AR   Ar   43   0.074   3.225   6.790
    1   AR   Ar   44   1.311   4.029   3.342
    1   AR   Ar   45   2.060   3.847   5.374
    1   AR   Ar   46   6.246   5.286   7.156
    1   AR   Ar   47   2.711   3.945   7.111
    1   AR   Ar   48   0.339   3.482   7.820
    1   AR   Ar   49   0.066   1.698   0.592
    1   AR   Ar   50   2.899   4.727   0.277
    1   AR   Ar   51   5.526   3.731   3.078
    1   AR   Ar   52   5.911   3.627  -2.182
    1   AR   Ar   53   4.333   0.030   2.861
    1   AR   Ar   54   6.084   6.652   2.901
    1   AR   Ar   55   6.792   4.898   2.347
    1   AR   Ar   56   5.764   1.658   3.874
    1   AR   Ar   57   4.781   5.068   2.506
    1   AR   Ar   58   1.461   3.385   4.544
    1   AR   Ar   59   3.705   5.455   5.524
    1   AR   Ar   60   0.866   5.241   2.416
    1   AR   Ar   61   6.948   4.549   6.508
    1   AR   Ar   62   6.779   4.077   5.511
    1   AR   Ar   63   1.632   1.450   7.360
    1   AR   Ar   64   0.734   4.854   4.148
    1   AR   Ar   65   4.146   1.302   2.595
    1   AR   Ar   66   1.428   1.970   0.846
    1   AR   Ar   67   4.415   1.169  -0.559
    1   AR   Ar   68   6.960   0.729   0.550
    1   AR   Ar   69   2.470   2.675   0.826
    1   AR   Ar   70   0.124   1.233   1.789
    1   AR   Ar   71   3.491   0.545   2.957
    1   AR   Ar   72   4.647   0.984   1.336
    1   AR   Ar   73   2.986   0.030   4.484
    1   AR   Ar   74   1.074   0.762   3.247
    1   AR   Ar   75   2.581   0.814   5.373
    1   AR   Ar   76   2.898   0.304   1.943
    1   AR   Ar   77   1.191   5.478   6.179
    1   AR   Ar   78   0.086   5.559   6.338
    1   AR   Ar   79   3.819   6.851   5.442
    1   AR   Ar   80   3.518   4.161   5.696
    1   AR   Ar   81   1.258   6.407   1.945
    1   AR   Ar   82   6.880   5.132   1.230
    1   AR   Ar   83   0.757   3.065   1.472
    1   AR   Ar   84   1.032   4.355   1.161
    1   AR   Ar   85   0.267   2.712  -0.503
    1   AR   Ar   86   1.439   5.734   0.806
    1   AR   Ar   87   3.996   2.863   2.491
    1   AR   Ar   88   3.485   5.125   1.810
    1   AR   Ar   89   5.857   2.544   0.993
    1   AR   Ar   90   3.284   1.149   6.103
    1   AR   Ar   91   1.735   1.661   3.038
    1   AR   Ar   92   3.648   2.874   1.108
    1   AR   Ar   93   1.122   0.945   5.506
    1   AR   Ar   94   0.208   6.968   9.389
    1   AR   Ar   95   5.390   1.036   6.805
    1   AR   Ar   96   1.811   6.999   5.566
    1   AR   Ar   97   4.556   1.497  -1.777
    1   AR   Ar   98   1.838   4.368   4.118
    1   AR   Ar   99   5.674   6.557  -1.022
    1   AR   Ar  100   6.251   2.805  -2.861
    1   AR   Ar  101   4.229   6.195   3.104
    1   AR   Ar  102   4.095   2.143   1.740
    1   AR   Ar  103   1.704   4.324   2.322
    1   AR   Ar  104   3.245   0.369  -0.681
    1   AR   Ar  105   2.942   2.293   2.304
    1   AR   Ar  106   4.226   0.898   3.900
    1   AR   Ar  107   0.438   4.954   5.601
    1   AR   Ar  108   2.478   0.398   3.496
    1   AR   Ar  109   2.573   4.962   4.702
    1   AR   Ar  110   1.979   2.353   5.213
    1   AR   Ar  111   4.298   4.144   6.862
    1   AR   Ar  112   6.488   6.477   6.953
    1   AR   Ar  113   6.809   5.891  -1.588
    1   AR   Ar  114   2.473   7.090  -0.011
    1   AR   Ar  115   7.076   4.437  -0.535
    1   AR   Ar  116   5.514   1.110   0.574
    1   AR   Ar  117   0.340   4.079   3.176
    1   AR   Ar  118   2.108   6.602   3.902
    1   AR   Ar  119   1.702   3.201   2.750
    1   AR   Ar  120   2.035   6.880   2.660
    1   AR   Ar  121   5.333   3.967   6.620
    1   AR   Ar  122   2.974   5.238   3.354
    1   AR   Ar  123   3.540   2.172   5.015
    1   AR   Ar  124   0.661   5.636   1.502
    1   AR   Ar  125   6.404   3.627   3.579
    1   AR   Ar  126   7.089   1.078   7.451
    1   AR   Ar  127   4.808   3.426   5.706
    1   AR   Ar  128   0.794   3.986   6.375
    1   AR   Ar  129   1.579   5.552   4.484
    1   AR   Ar  130   5.195   0.290  -4.510
    1   AR   Ar  131   3.860   6.202  -0.130
    1   AR   Ar  132   1.920   2.428   1.814
    1   AR   Ar  133   4.203   0.274   4.633
    1   AR   Ar  134   3.193   1.217   4.467
    1   AR   Ar  135   5.721   7.082   5.513
    1   AR   Ar  136   5.135   6.500   2.545
    1   AR   Ar  137   2.665   5.116   5.852
    1   AR   Ar  138   5.907   1.241   5.936
    1   AR   Ar  139   6.124   2.627   5.163
    1   AR   Ar  140   5.167   6.733   4.699
    1   AR   Ar  141   3.612   5.269   4.447
    1   AR   Ar  142   3.903   6.046   8.824
    1   AR   Ar  143   4.891   6.462   8.404
    1   AR   Ar  144   0.007   2.852   5.386
    1   AR   Ar  145   4.824   4.496  -2.024
    1   AR   Ar  146   3.922   2.579   4.011
    1   AR   Ar  147   4.527   3.991  -0.326
    1   AR   Ar  148   1.854   5.771  -0.035
    1   AR   Ar  149   6.311   1.870  -0.092
    1   AR   Ar  150   0.777   1.853   2.428
    1   AR   Ar  151   2.952   3.247   1.847
    1   AR   Ar  152   0.984   1.767  -0.344
    1   AR   Ar  153   5.214   0.811   2.986
    1   AR   Ar  154   5.151   3.425   4.118
    1   AR   Ar  155   5.921   3.367   5.997
    1   AR   Ar  156   3.076   4.076   2.865
    1   AR   Ar  157   3.483   6.009   6.448
    1   AR   Ar  158   0.926   2.769   7.480
    1   AR   Ar  159   4.650   0.196   5.637
    1   AR   Ar  160   0.877   1.449   4.396
    1   AR   Ar  161   5.266   4.612   3.760
    1   AR   Ar  162   4.178   5.738  -1.471
    1   AR   Ar  163   6.545   3.898   2.395
    1   AR   Ar  164   2.376   5.899   2.515
    1   AR   Ar  165   3.654   4.021   1.109
    1   AR   Ar  166   2.945   3.165   5.082
    1   AR   Ar  167   6.026   7.017   4.282
    1   AR   Ar  168   5.799   4.527  -2.549
    1   AR   Ar  169   4.468   3.630   3.245
    1   AR   Ar  170   2.695   2.557   6.661
    1   AR   Ar  171   4.609   5.456   3.967
    1   AR   Ar  172   4.270   3.120   4.783
    1   AR   Ar  173   0.888   1.587   7.972
    1   AR   Ar  174   2.917   6.219   4.638
    1   AR   Ar  175   0.799   0.041   7.415
    1   AR   Ar  176   3.300   3.115   3.433
    1   AR   Ar  177   7.080   4.170  -1.656
    1   AR   Ar  178   2.389   6.923   0.986
    1   AR   Ar  179   3.318   6.428   0.807
    1   AR   Ar  180   4.860   5.912  -7.235
    1   AR   Ar  181   6.815   6.031   2.035
    1   AR   Ar  182   0.698   6.865   2.812
    1   AR   Ar  183   5.057   5.708   1.406
    1   AR   Ar  184   4.036   5.344   0.334
    1   AR   Ar  185   3.318   4.206   4.276
    1   AR   Ar  186   3.225   6.637   3.496
    1   AR   Ar  187   4.189   6.605   4.015
    1   AR   Ar  188   3.112   1.244   1.786
    1   AR   Ar  189   6.249   2.727   6.840
    1   AR   Ar  190   1.997   0.525   4.652
    1   AR   Ar  191   4.271   6.131   4.962
    1   AR   Ar  192   3.606   3.318   6.567
    1   AR   Ar  193   3.249   6.519   2.052
    1   AR   Ar  194   5.008   5.881  -0.252
    1   AR   Ar  195   6.270   1.363   1.375
    1   AR   Ar  196   5.125   6.671   1.170
    1   AR   Ar  197   4.563   2.797   0.350
    1   AR   Ar  198   6.881   6.488   0.729
    1   AR   Ar  199   0.017   0.336   2.187
    1   AR   Ar  200   5.404   2.307   0.020
    1   AR   Ar  201   6.925   5.052   3.484
    1   AR   Ar  202   4.993   0.227   3.920
    1   AR   Ar  203   6.956   6.991   3.770
    1   AR   Ar  204   4.943   4.972   8.123
    1   AR   Ar  205   5.378   1.568   1.833
    1   AR   Ar  206   6.253   0.397   6.624
    1   AR   Ar  207   0.502   3.958   4.863
    1   AR   Ar  208   1.032   6.066   3.688
    1   AR   Ar  209   5.334   2.586  -1.782
    1   AR   Ar  210   1.906   1.795  -0.060
    1   AR   Ar  211   6.801   2.842   0.517
    1   AR   Ar  212   6.247   4.455   0.721
    1   AR   Ar  213   4.066   1.527   0.662
    1   AR   Ar  214   5.859   4.925   1.593
    1   AR   Ar  215   0.554   2.842   2.953
    1   AR   Ar  216   2.038   2.966  -0.496
    1   AR   Ar  217   5.016   2.188   4.314
    1   AR   Ar  218   4.518   2.179   5.625
    1   AR   Ar  219   4.628   3.884   2.248
    1   AR   Ar  220   4.446   4.644   1.295
    1   AR   Ar  221   6.750   6.142   4.161
    1   AR   Ar  222   5.219   6.249   5.931
    1   AR   Ar  223   0.126   0.934   6.227
    1   AR   Ar  224   4.791   1.182   4.970
    1   AR   Ar  225   6.169   2.919   2.706
    1   AR   Ar  226   2.367   3.414   4.118
    1   AR   Ar  227   1.424   2.374   4.075
    1   AR   Ar  228   6.146   0.761   2.292
    1   AR   Ar  229   5.878   3.854  -0.896
    1   AR   Ar  230   4.159   4.794   3.404
    1   AR   Ar  231   4.875   2.527   3.292
    1   AR   Ar  232   5.632   3.421   1.751
    1   AR   Ar  233   6.612   1.668   3.341
    1   AR   Ar  234   6.639   3.409   4.546
    1   AR   Ar  235   6.539   0.773   4.371
    1   AR   Ar  236   4.484   4.141   4.431
    1   AR   Ar  237   4.590   1.654   7.292
    1   AR   Ar  238   4.809   4.495   5.830
    1   AR   Ar  239   1.256   4.389  10.073
    1   AR   Ar  240   1.679   3.094   6.439
    1   AR   Ar  241   0.841   6.522  -0.351
    1   AR   Ar  242   5.897   6.544   1.772
    1   AR   Ar  243   4.346   6.022   2.086
    1   AR   Ar  244   5.921   6.526   0.215
    1   AR   Ar  245   3.170   1.481   3.380
    1   AR   Ar  246   5.169   5.477  -1.343
    1   AR   Ar  247   6.751   3.578   1.351
    1   AR   Ar  248   5.746   5.175  -0.457
    1   AR   Ar  249   3.305   0.755   0.985
    1   AR   Ar  250   5.219   6.230   3.697
    1   AR   Ar  251   5.465   3.807   4.987
    1   AR   Ar  252   2.622   4.926   2.333
    1   AR   Ar  253   5.153   2.697   7.089
    1   AR   Ar  254   3.863   4.834  13.151
    1   AR   Ar  255   4.990   5.529   9.187
    1   AR   Ar  256   5.957   5.599   3.789
    7.12000  7.12000 12.00000
Argon-slab step 5715
  256
    1   AR   Ar    1   3.823   2.409  -1.636
    1   AR   Ar    2   6.014   0.324   1.229
    1   AR   Ar    3   4.997   3.549  -1.403
    1   AR   Ar    4   2.172   0.921   1.469
    1   AR   Ar    5   6.686   5.556  -0.018
    1   AR   Ar    6   1.276   1.045   2.068
    1   AR   Ar    7   6.031   4.593   3.031
    1   AR   Ar    8   6.024   3.091  -0.201
    1   AR   Ar    9   0.301   5.693   4.856
    1   AR   Ar   10   5.803   4.415   5.708
    1   AR   Ar   11   0.933   6.350   5.588
    1   AR   Ar   12   6.991   1.991   4.472
    1   AR   Ar   13   6.823   7.079   5.166
    1   AR   Ar   14   4.445   1.220   5.985
    1   AR   Ar   15   2.736   5.402   9.387
    1   AR   Ar   16   0.560   6.595   6.493
    1   AR   Ar   17   5.652   3.652   0.650
    1   AR   Ar   18   6.810   3.667  -2.656
    1   AR   Ar   19   4.984   4.883   0.304
    1   AR   Ar   20   6.742   3.017  -1.631
    1   AR   Ar   21   2.327   1.198   2.433
    1   AR   Ar   22   5.241   0.315   1.951
    1   AR   Ar   23   0.534   5.705   0.242
    1   AR   Ar   24   5.961   2.688   4.183
    1   AR   Ar   25   1.053   3.433   5.564
    1   AR   Ar   26   5.975   5.953   4.854
    1   AR   Ar   27   0.950   0.524   1.127
    1   AR   Ar   28   2.549   2.306   3.929
    1   AR   Ar   29   5.510   7.010   7.317
    1   AR   Ar   30   6.319   0.442   3.258
    1   AR   Ar   31   0.951   1.094   6.704
    1   AR   Ar   32   1.036   2.081   6.116
    1   AR   Ar   33   5.938   5.558   0.731
    1   AR   Ar   34   1.845   5.065   3.054
    1   AR   Ar   35   5.816   5.716   2.356
    1   AR   Ar   36   3.491   1.441  -3.918
    1   AR   Ar   37   4.569   3.464   1.168
    1   AR   Ar   38   6.366   4.605   4.288
    1   AR   Ar   39   0.483   2.799   4.104
    1   AR   Ar   40   0.533   4.044   2.042
    1   AR   Ar   41   0.597   1.970   3.428
    1   AR   Ar   42   5.033   5.301   4.880
    1   AR   Ar   43   0.075   3.226   6.751
    1   AR   Ar   44   1.339   4.029   3.335
    1   AR   Ar   45   2.061   3.820   5.356
    1   AR   Ar   46   6.231   5.285   7.150
    1   AR   Ar   47   2.730   3.944   7.119
    1   AR   Ar   48   0.343   3.500   7.820
    1   AR   Ar   49   0.047   1.717   0.586
    1   AR   Ar   50   2.872   4.750   0.271
    1   AR   Ar   51   5.564   3.727   3.054
    1   AR   Ar   52   5.907   3.614  -2.183
    1   AR   Ar   53   4.352   0.021   2.877
    1   AR   Ar   54   6.081   6.638   2.899
    1   AR   Ar   55   6.792   4.897   2.357
    1   AR   Ar   56   5.755   1.678   3.864
    1   AR   Ar   57   4.763   5.039   2.489
    1   AR   Ar   58   1.449   3.381   4.550
    1   AR   Ar   59   3.716   5.438   5.531
    1   AR   Ar   60   0.881   5.235   2.417
    1   AR   Ar   61   6.960   4.531   6.520
    1   AR   Ar   62   6.808   4.043   5.513
    1   AR   Ar   63   1.641   1.445   7.380
    1   AR   Ar   64   0.740   4.866   4.142
    1   AR   Ar   65   4.135   1.321   2.572
    1   AR   Ar   66   1.411   1.977   0.808
    1   AR   Ar   67   4.407   1.171  -0.524
    1   AR   Ar   68   6.987   0.728   0.575
    1   AR   Ar   69   2.460   2.682   0.845
    1   AR   Ar   70   0.136   1.254   1.790
    1   AR   Ar   71   3.480   0.544   2.942
    1   AR   Ar   72   4.640   0.998   1.357
    1   AR   Ar   73   2.979   0.045   4.451
    1   AR   Ar   74   1.090   0.759   3.237
    1   AR   Ar   75   2.577   0.792   5.371
    1   AR   Ar   76   2.908   0.305   1.959
    1   AR   Ar   77   1.164   5.498   6.213
    1   AR   Ar   78   0.065   5.537   6.340
    1   AR   Ar   79   3.810   6.863   5.455
    1   AR   Ar   80   3.509   4.143   5.678
    1   AR   Ar   81   1.260   6.403   1.931
    1   AR   Ar   82   6.876   5.164   1.264
    1   AR   Ar   83   0.810   3.077   1.455
    1   AR   Ar   84   1.021   4.352   1.171
    1   AR   Ar   85   0.262   2.681  -0.471
    1   AR   Ar   86   1.426   5.726   0.793
    1   AR   Ar   87   3.979   2.864   2.485
    1   AR   Ar   88   3.524   5.141   1.805
    1   AR   Ar   89   5.874   2.554   0.993
    1   AR   Ar   90   3.297   1.147   6.139
    1   AR   Ar   91   1.720   1.660   3.028
    1   AR   Ar   92   3.701   2.869   1.112
    1   AR   Ar   93   1.103   0.954   5.511
    1   AR   Ar   94   0.231   6.980   9.392
    1   AR   Ar   95   5.349   1.029   6.827
    1   AR   Ar   96   1.820   7.035   5.555
    1   AR   Ar   97   4.560   1.519  -1.783
    1   AR   Ar   98   1.858   4.373   4.141
    1   AR   Ar   99   5.683   6.547  -1.030
    1   AR   Ar  100   6.267   2.761  -2.877
    1   AR   Ar  101   4.202   6.201   3.131
    1   AR   Ar  102   4.108   2.115   1.738
    1   AR   Ar  103   1.734   4.315   2.302
    1   AR   Ar  104   3.222   0.371  -0.654
    1   AR   Ar  105   2.968   2.266   2.293
    1   AR   Ar  106   4.202   0.891   3.920
    1   AR   Ar  107   0.468   4.937   5.591
    1   AR   Ar  108   2.486   0.400   3.501
    1   AR   Ar  109   2.589   4.980   4.708
    1   AR   Ar  110   1.979   2.360   5.174
    1   AR   Ar  111   4.286   4.128   6.856
    1   AR   Ar  112   6.509   6.484   6.965
    1   AR   Ar  113   6.805   5.899  -1.575
    1   AR   Ar  114   2.465   7.072   0.052
    1   AR   Ar  115   7.045   4.439  -0.533
    1   AR   Ar  116   5.504   1.102   0.578
    1   AR   Ar  117   0.315   4.101   3.184
    1   AR   Ar  118   2.113   6.617   3.910
    1   AR   Ar  119   1.679   3.204   2.730
    1   AR   Ar  120   2.039   6.841   2.670
    1   AR   Ar  121   5.315   3.989   6.672
    1   AR   Ar  122   2.962   5.227   3.352
    1   AR   Ar  123   3.505   2.169   5.025
    1   AR   Ar  124   0.653   5.675   1.481
    1   AR   Ar  125   6.400   3.652   3.555
    1   AR   Ar  126   7.085   1.103   7.431
    1   AR   Ar  127   4.774   3.424   5.669
    1   AR   Ar  128   0.760   3.990   6.374
    1   AR   Ar  129   1.550   5.551   4.491
    1   AR   Ar  130   5.230   0.304  -4.498
    1   AR   Ar  131   3.887   6.244  -0.124
    1   AR   Ar  132   1.904   2.415   1.819
    1   AR   Ar  133   4.201   0.232   4.653
    1   AR   Ar  134   3.225   1.223   4.470
    1   AR   Ar  135   5.720   0.006   5.518
    1   AR   Ar  136   5.145   6.483   2.512
    1   AR   Ar  137   2.683   5.109   5.865
    1   AR   Ar  138   5.912   1.225   5.935
    1   AR   Ar  139   6.135   2.636   5.165
    1   AR   Ar  140   5.176   6.726   4.690
    1   AR   Ar  141   3.586   5.278   4.462
    1   AR   Ar  142   3.909   6.044   8.806
    1   AR   Ar  143   4.874   6.448   8.376
    1   AR   Ar  144   0.013   2.862   5.392
    1   AR   Ar  145   4.832   4.507  -2.038
    1   AR   Ar  146   3.946   2.576   3.999
    1   AR   Ar  147   4.521   3.986  -0.319
    1   AR   Ar  148   1.855   5.768  -0.043
    1   AR   Ar  149   6.283   1.860  -0.090
    1   AR   Ar  150   0.761   1.838   2.417
    1   AR   Ar  151   2.943   3.292   1.818
    1   AR   Ar  152   0.964   1.764  -0.342
    1   AR   Ar  153   5.231   0.846   3.010
    1   AR   Ar  154   5.163   3.445   4.086
    1   AR   Ar  155   5.938   3.374   5.997
    1   AR   Ar  156   3.106   4.062   2.893
    1   AR   Ar  157   3.485   6.032   6.434
    1   AR   Ar  158   0.942   2.760   7.461
    1   AR   Ar  159   4.619   0.193   5.640
    1   AR   Ar  160   0.873   1.448   4.408
    1   AR   Ar  161   5.244   4.572   3.786
    1   AR   Ar  162   4.149   5.723  -1.473
    1   AR   Ar  163   6.548   3.938   2.372
    1   AR   Ar  164   2.409   5.893   2.517
    1   AR   Ar  165   3.655   4.039   1.108
    1   AR   Ar  166   2.960   3.170   5.103
    1   AR   Ar  167   6.013   7.013   4.320
    1   AR   Ar  168   5.786   4.570  -2.537
    1   AR   Ar  169   4.454   3.624   3.263
    1   AR   Ar  170   2.670   2.555   6.705
    1   AR   Ar  171   4.603   5.479   3.953
    1   AR   Ar  172   4.254   3.151   4.769
    1   AR   Ar  173   0.867   1.596   7.952
    1   AR   Ar  174   2.896   6.204   4.663
    1   AR   Ar  175   0.778   0.037   7.402
    1   AR   Ar  176   3.275   3.143   3.422
    1   AR   Ar  177   7.087   4.169  -1.666
    1   AR   Ar  178   2.425   6.925   0.991
    1   AR   Ar  179   3.299   6.399   0.823
    1   AR   Ar  180   4.815   5.905  -7.293
    1   AR   Ar  181   6.777   5.977   2.010
    1   AR   Ar  182   0.714   6.881   2.816
    1   AR   Ar  183   5.071   5.706   1.394
    1   AR   Ar  184   4.061   5.356   0.337
    1   AR   Ar  185   3.302   4.207   4.271
    1   AR   Ar  186   3.222   6.650   3.510
    1   AR   Ar  187   4.188   6.601   4.003
    1   AR   Ar  188   3.098   1.271   1.790
    1   AR   Ar  189   6.218   2.723   6.826
    1   AR   Ar  190   2.033   0.506   4.633
    1   AR   Ar  191   4.271   6.129   4.949
    1   AR   Ar  192   3.580   3.313   6.580
    1   AR   Ar  193   3.235   6.498   2.016
    1   AR   Ar  194   5.002   5.900  -0.223
    1   AR   Ar  195   6.290   1.386   1.389
    1   AR   Ar  196   5.120   6.675   1.171
    1   AR   Ar  197   4.542   2.768   0.325
    1   AR   Ar  198   6.904   6.478   0.698
    1   AR   Ar  199   0.000   0.332   2.192
    1   AR   Ar  200   5.400   2.316   0.035
    1   AR   Ar  201   6.933   5.062   3.473
    1   AR   Ar  202   4.980   0.245   3.917
    1   AR   Ar  203   6.951   7.017   3.781
    1   AR   Ar  204   4.970   4.983   8.082
    1   AR   Ar  205   5.372   1.578   1.872
    1   AR   Ar  206   6.242   0.386   6.616
    1   AR   Ar  207   0.470   3.966   4.886
    1   AR   Ar  208   1.050   6.061   3.694
    1   AR   Ar  209   5.328   2.605  -1.783
    1   AR   Ar  210   1.918   1.822  -0.050
    1   AR   Ar  211   6.780   2.882   0.517
    1   AR   Ar  212   6.224   4.459   0.710
    1   AR   Ar  213   4.068   1.504   0.618
    1   AR   Ar  214   5.879   4.956   1.573
    1   AR   Ar  215   0.553   2.850   2.922
    1   AR   Ar  216   2.072   2.979  -0.507
    1   AR   Ar  217   5.034   2.167   4.305
    1   AR   Ar  218   4.513   2.182   5.603
    1   AR   Ar  219   4.642   3.850   2.232
    1   AR   Ar  220   4.463   4.660   1.309
    1   AR   Ar  221   6.744   6.137   4.163
    1   AR   Ar  222   5.229   6.284   5.936
    1   AR   Ar  223   0.130   0.949   6.231
    1   AR   Ar  224   4.793   1.194   4.978
    1   AR   Ar  225   6.188   2.915   2.709
    1   AR   Ar  226   2.398   3.433   4.104
    1   AR   Ar  227   1.429   2.371   4.093
    1   AR   Ar  228   6.152   0.742   2.240
    1   AR   Ar  229   5.894   3.850  -0.866
    1   AR   Ar  230   4.183   4.795   3.397
    1   AR   Ar  231   4.864   2.513   3.276
    1   AR   Ar  232   5.641   3.430   1.734
    1   AR   Ar  233   6.672   1.657   3.303
    1   AR   Ar  234   6.646   3.428   4.525
    1   AR   Ar  235   6.564   0.762   4.370
    1   AR   Ar  236   4.465   4.133   4.467
    1   AR   Ar  237   4.582   1.667   7.268
    1   AR   Ar  238   4.794   4.486   5.794
    1   AR   Ar  239   1.265   4.421  10.019
    1   AR   Ar  240   1.685   3.094   6.425
    1   AR   Ar  241   0.810   6.535  -0.366
    1   AR   Ar  242   5.914   6.582   1.779
    1   AR   Ar  243   4.331   6.035   2.123
    1   AR   Ar  244   5.884   6.523   0.219
    1   AR   Ar  245   3.198   1.482   3.373
    1   AR   Ar  246   5.173   5.459  -1.347
    1   AR   Ar  247   6.738   3.568   1.322
    1   AR   Ar  248   5.773   5.148  -0.464
    1   AR   Ar  249   3.325   0.750   1.017
    1   AR   Ar  250   5.203   6.266   3.681
    1   AR   Ar  251   5.446   3.803   4.989
    1   AR   Ar  252   2.604   4.921   2.295
    1   AR   Ar  253   5.160   2.713   7.075
    1   AR   Ar  254   3.907   4.834  13.178
    1   AR   Ar  255   5.016   5.528   9.185
    1   AR   Ar  256   5.952   5.594   3.757
    7.12000  7.12000 12.00000
Argon-slab step 5720
  256
    1   AR   Ar    1   3.854   2.381  -1.626
    1   AR   Ar    2   6.060   0.334   1.243
    1   AR   Ar    3   4.972   3.579  -1.394
    1   AR   Ar    4   2.139   0.932   1.451
    1   AR   Ar    5   6.673   5.560   0.027
    1   AR   Ar    6   1.275   1.077   2.078
    1   AR   Ar    7   5.997   4.598   3.008
    1   AR   Ar    8   6.020   3.044  -0.189
    1   AR   Ar    9   0.247   5.716   4.854
    1   AR   Ar   10   5.799   4.428   5.667
    1   AR   Ar   11   0.953   6.337   5.604
    1   AR   Ar   12   6.977   1.967   4.486
    1   AR   Ar   13   6.794   7.056   5.191
    1   AR   Ar   14   4.440   1.225   5.988
    1   AR   Ar   15   2.730   5.387   9.388
    1   AR   Ar   16   0.562   6.606   6.462
    1   AR   Ar   17   5.638   3.640   0.633
    1   AR   Ar   18   6.826   3.698  -2.661
    1   AR   Ar   19   4.994   4.845   0.327
    1   AR   Ar   20   6.739   3.028  -1.639
    1   AR   Ar   21   2.357   1.211   2.454
    1   AR   Ar   22   5.230   0.320   1.950
    1   AR   Ar   23   0.526   5.708   0.219
    1   AR   Ar   24   5.921   2.696   4.186
    1   AR   Ar   25   1.081   3.488   5.608
    1   AR   Ar   26   5.978   5.932   4.825
    1   AR   Ar   27   0.934   0.536   1.145
    1   AR   Ar   28   2.578   2.301   3.930
    1   AR   Ar   29   5.521   6.970   7.298
    1   AR   Ar   30   6.313   0.429   3.283
    1   AR   Ar   31   0.966   1.097   6.704
    1   AR   Ar   32   1.036   2.083   6.117
    1   AR   Ar   33   5.915   5.552   0.736
    1   AR   Ar   34   1.836   5.102   3.090
    1   AR   Ar   35   5.836   5.660   2.351
    1   AR   Ar   36   3.479   1.429  -3.863
    1   AR   Ar   37   4.603   3.484   1.166
    1   AR   Ar   38   6.394   4.618   4.279
    1   AR   Ar   39   0.491   2.815   4.157
    1   AR   Ar   40   0.542   4.051   2.024
    1   AR   Ar   41   0.609   1.980   3.428
    1   AR   Ar   42   5.040   5.248   4.873
    1   AR   Ar   43   0.077   3.227   6.711
    1   AR   Ar   44   1.367   4.028   3.324
    1   AR   Ar   45   2.059   3.806   5.346
    1   AR   Ar   46   6.218   5.284   7.143
    1   AR   Ar   47   2.749   3.942   7.127
    1   AR   Ar   48   0.312   3.478   7.848
    1   AR   Ar   49   0.029   1.746   0.581
    1   AR   Ar   50   2.846   4.772   0.266
    1   AR   Ar   51   5.582   3.715   3.023
    1   AR   Ar   52   5.898   3.594  -2.176
    1   AR   Ar   53   4.379   0.020   2.892
    1   AR   Ar   54   6.083   6.620   2.898
    1   AR   Ar   55   6.798   4.907   2.365
    1   AR   Ar   56   5.754   1.688   3.847
    1   AR   Ar   57   4.746   5.012   2.471
    1   AR   Ar   58   1.433   3.376   4.555
    1   AR   Ar   59   3.726   5.418   5.539
    1   AR   Ar   60   0.896   5.226   2.421
    1   AR   Ar   61   6.969   4.511   6.531
    1   AR   Ar   62   6.832   4.007   5.520
    1   AR   Ar   63   1.664   1.441   7.394
    1   AR   Ar   64   0.746   4.877   4.134
    1   AR   Ar   65   4.125   1.340   2.548
    1   AR   Ar   66   1.390   1.986   0.777
    1   AR   Ar   67   4.414   1.176  -0.519
    1   AR   Ar   68   7.000   0.720   0.597
    1   AR   Ar   69   2.450   2.689   0.865
    1   AR   Ar   70   0.143   1.261   1.794
    1   AR   Ar   71   3.461   0.534   2.927
    1   AR   Ar   72   4.631   1.010   1.379
    1   AR   Ar   73   2.976   0.072   4.415
    1   AR   Ar   74   1.105   0.758   3.226
    1   AR   Ar   75   2.583   0.778   5.376
    1   AR   Ar   76   2.889   0.295   1.961
    1   AR   Ar   77   1.138   5.518   6.248
    1   AR   Ar   78   0.041   5.522   6.345
    1   AR   Ar   79   3.773   6.866   5.472
    1   AR   Ar   80   3.501   4.125   5.658
    1   AR   Ar   81   1.265   6.402   1.919
    1   AR   Ar   82   6.872   5.194   1.296
    1   AR   Ar   83   0.864   3.088   1.438
    1   AR   Ar   84   1.013   4.352   1.179
    1   AR   Ar   85   0.255   2.650  -0.439
    1   AR   Ar   86   1.407   5.719   0.803
    1   AR   Ar   87   3.961   2.869   2.480
    1   AR   Ar   88   3.566   5.159   1.798
    1   AR   Ar   89   5.889   2.564   0.994
    1   AR   Ar   90   3.312   1.145   6.174
    1   AR   Ar   91   1.694   1.668   3.029
    1   AR   Ar   92   3.706   2.885   1.121
    1   AR   Ar   93   1.083   0.964   5.516
    1   AR   Ar   94   0.254   6.992   9.396
    1   AR   Ar   95   5.307   1.021   6.849
    1   AR   Ar   96   1.830   7.073   5.545
    1   AR   Ar   97   4.563   1.542  -1.788
    1   AR   Ar   98   1.798   4.385   4.144
    1   AR   Ar   99   5.691   6.534  -1.036
    1   AR   Ar  100   6.283   2.716  -2.892
    1   AR   Ar  101   4.174   6.186   3.148
    1   AR   Ar  102   4.127   2.065   1.725
    1   AR   Ar  103   1.760   4.302   2.281
    1   AR   Ar  104   3.200   0.373  -0.627
    1   AR   Ar  105   2.995   2.240   2.283
    1   AR   Ar  106   4.172   0.898   3.929
    1   AR   Ar  107   0.499   4.914   5.580
    1   AR   Ar  108   2.495   0.406   3.505
    1   AR   Ar  109   2.598   4.986   4.707
    1   AR   Ar  110   1.951   2.354   5.150
    1   AR   Ar  111   4.266   4.139   6.880
    1   AR   Ar  112   6.530   6.490   6.976
    1   AR   Ar  113   6.800   5.907  -1.561
    1   AR   Ar  114   2.459   7.057   0.093
    1   AR   Ar  115   7.012   4.442  -0.531
    1   AR   Ar  116   5.518   1.108   0.596
    1   AR   Ar  117   0.285   4.122   3.191
    1   AR   Ar  118   2.118   6.629   3.919
    1   AR   Ar  119   1.656   3.206   2.710
    1   AR   Ar  120   2.042   6.809   2.681
    1   AR   Ar  121   5.299   4.009   6.722
    1   AR   Ar  122   2.951   5.215   3.350
    1   AR   Ar  123   3.471   2.167   5.035
    1   AR   Ar  124   0.640   5.714   1.460
    1   AR   Ar  125   6.397   3.694   3.537
    1   AR   Ar  126   7.082   1.128   7.409
    1   AR   Ar  127   4.738   3.419   5.639
    1   AR   Ar  128   0.705   3.995   6.372
    1   AR   Ar  129   1.524   5.548   4.499
    1   AR   Ar  130   5.265   0.318  -4.486
    1   AR   Ar  131   3.914   6.292  -0.122
    1   AR   Ar  132   1.889   2.400   1.825
    1   AR   Ar  133   4.199   0.193   4.683
    1   AR   Ar  134   3.257   1.228   4.474
    1   AR   Ar  135   5.722   0.053   5.523
    1   AR   Ar  136   5.153   6.471   2.482
    1   AR   Ar  137   2.702   5.102   5.876
    1   AR   Ar  138   5.904   1.241   5.951
    1   AR   Ar  139   6.144   2.644   5.175
    1   AR   Ar  140   5.165   6.708   4.692
    1   AR   Ar  141   3.564   5.289   4.474
    1   AR   Ar  142   3.916   6.042   8.789
    1   AR   Ar  143   4.857   6.433   8.348
    1   AR   Ar  144   0.022   2.875   5.398
    1   AR   Ar  145   4.840   4.518  -2.050
    1   AR   Ar  146   3.972   2.565   3.983
    1   AR   Ar  147   4.517   3.981  -0.311
    1   AR   Ar  148   1.868   5.767  -0.074
    1   AR   Ar  149   6.262   1.853  -0.081
    1   AR   Ar  150   0.745   1.831   2.405
    1   AR   Ar  151   2.935   3.337   1.789
    1   AR   Ar  152   0.951   1.768  -0.323
    1   AR   Ar  153   5.248   0.880   3.032
    1   AR   Ar  154   5.175   3.460   4.046
    1   AR   Ar  155   5.955   3.381   5.995
    1   AR   Ar  156   3.135   4.051   2.920
    1   AR   Ar  157   3.487   6.056   6.419
    1   AR   Ar  158   0.963   2.746   7.437
    1   AR   Ar  159   4.611   0.200   5.647
    1   AR   Ar  160   0.854   1.454   4.430
    1   AR   Ar  161   5.222   4.532   3.812
    1   AR   Ar  162   4.113   5.703  -1.471
    1   AR   Ar  163   6.549   3.965   2.349
    1   AR   Ar  164   2.443   5.889   2.522
    1   AR   Ar  165   3.650   4.055   1.107
    1   AR   Ar  166   2.975   3.175   5.123
    1   AR   Ar  167   5.988   7.023   4.352
    1   AR   Ar  168   5.773   4.610  -2.531
    1   AR   Ar  169   4.438   3.617   3.284
    1   AR   Ar  170   2.644   2.553   6.749
    1   AR   Ar  171   4.605   5.475   3.969
    1   AR   Ar  172   4.239   3.182   4.759
    1   AR   Ar  173   0.834   1.607   7.939
    1   AR   Ar  174   2.894   6.197   4.661
    1   AR   Ar  175   0.756   0.035   7.388
    1   AR   Ar  176   3.286   3.144   3.408
    1   AR   Ar  177   7.107   4.170  -1.682
    1   AR   Ar  178   2.456   6.927   1.021
    1   AR   Ar  179   3.284   6.367   0.839
    1   AR   Ar  180   4.793   5.916  -7.297
    1   AR   Ar  181   6.742   5.923   1.985
    1   AR   Ar  182   0.731   6.896   2.822
    1   AR   Ar  183   5.085   5.694   1.384
    1   AR   Ar  184   4.050   5.345   0.325
    1   AR   Ar  185   3.287   4.207   4.266
    1   AR   Ar  186   3.217   6.662   3.521
    1   AR   Ar  187   4.186   6.597   4.000
    1   AR   Ar  188   3.094   1.320   1.804
    1   AR   Ar  189   6.187   2.718   6.813
    1   AR   Ar  190   2.056   0.507   4.609
    1   AR   Ar  191   4.277   6.121   4.932
    1   AR   Ar  192   3.553   3.308   6.591
    1   AR   Ar  193   3.261   6.492   1.974
    1   AR   Ar  194   4.995   5.918  -0.193
    1   AR   Ar  195   6.311   1.410   1.398
    1   AR   Ar  196   5.110   6.690   1.165
    1   AR   Ar  197   4.515   2.741   0.303
    1   AR   Ar  198   6.926   6.467   0.669
    1   AR   Ar  199   7.105   0.321   2.200
    1   AR   Ar  200   5.389   2.321   0.052
    1   AR   Ar  201   6.942   5.074   3.461
    1   AR   Ar  202   4.974   0.261   3.907
    1   AR   Ar  203   6.959   7.047   3.792
    1   AR   Ar  204   4.996   4.996   8.041
    1   AR   Ar  205   5.365   1.588   1.913
    1   AR   Ar  206   6.248   0.372   6.610
    1   AR   Ar  207   0.442   3.975   4.899
    1   AR   Ar  208   1.067   6.058   3.698
    1   AR   Ar  209   5.324   2.623  -1.785
    1   AR   Ar  210   1.943   1.850  -0.045
    1   AR   Ar  211   6.762   2.918   0.515
    1   AR   Ar  212   6.200   4.466   0.681
    1   AR   Ar  213   4.069   1.484   0.573
    1   AR   Ar  214   5.895   4.984   1.560
    1   AR   Ar  215   0.539   2.865   2.886
    1   AR   Ar  216   2.106   2.991  -0.517
    1   AR   Ar  217   5.038   2.152   4.305
    1   AR   Ar  218   4.538   2.176   5.557
    1   AR   Ar  219   4.656   3.818   2.214
    1   AR   Ar  220   4.485   4.678   1.326
    1   AR   Ar  221   6.739   6.123   4.168
    1   AR   Ar  222   5.236   6.317   5.940
    1   AR   Ar  223   0.117   0.961   6.225
    1   AR   Ar  224   4.796   1.206   4.983
    1   AR   Ar  225   6.208   2.910   2.712
    1   AR   Ar  226   2.433   3.452   4.089
    1   AR   Ar  227   1.438   2.366   4.110
    1   AR   Ar  228   6.156   0.726   2.189
    1   AR   Ar  229   5.910   3.851  -0.840
    1   AR   Ar  230   4.200   4.786   3.384
    1   AR   Ar  231   4.852   2.501   3.260
    1   AR   Ar  232   5.651   3.440   1.718
    1   AR   Ar  233   6.733   1.645   3.265
    1   AR   Ar  234   6.656   3.447   4.511
    1   AR   Ar  235   6.590   0.756   4.369
    1   AR   Ar  236   4.444   4.132   4.503
    1   AR   Ar  237   4.574   1.681   7.243
    1   AR   Ar  238   4.772   4.478   5.756
    1   AR   Ar  239   1.266   4.447  10.012
    1   AR   Ar  240   1.691   3.093   6.410
    1   AR   Ar  241   0.780   6.549  -0.382
    1   AR   Ar  242   5.939   6.619   1.790
    1   AR   Ar  243   4.322   6.069   2.129
    1   AR   Ar  244   5.846   6.521   0.222
    1   AR   Ar  245   3.226   1.485   3.366
    1   AR   Ar  246   5.180   5.441  -1.350
    1   AR   Ar  247   6.724   3.562   1.295
    1   AR   Ar  248   5.800   5.120  -0.469
    1   AR   Ar  249   3.348   0.734   1.034
    1   AR   Ar  250   5.166   6.322   3.662
    1   AR   Ar  251   5.431   3.798   4.989
    1   AR   Ar  252   2.589   4.911   2.256
    1   AR   Ar  253   5.166   2.730   7.061
    1   AR   Ar  254   3.951   4.834  13.206
    1   AR   Ar  255   5.041   5.528   9.181
    1   AR   Ar  256   5.950   5.580   3.725
    7.12000  7.12000 12.00000
Argon-slab step 5725
  256
    1   AR   Ar    1   3.886   2.353  -1.616
    1   AR   Ar    2   6.108   0.347   1.247
    1   AR   Ar    3   4.948   3.602  -1.398
    1   AR   Ar    4   2.106   0.941   1.428
    1   AR   Ar    5   6.655   5.561   0.068
    1   AR   Ar    6   1.280   1.098   2.085
    1   AR   Ar    7   5.966   4.619   2.988
    1   AR   Ar    8   6.021   3.002  -0.181
    1   AR   Ar    9   0.198   5.737   4.857
    1   AR   Ar   10   5.804   4.447   5.632
    1   AR   Ar   11   0.922   6.340   5.576
    1   AR   Ar   12   6.961   1.943   4.498
    1   AR   Ar   13   6.765   7.033   5.214
    1   AR   Ar   14   4.434   1.228   5.996
    1   AR   Ar   15   2.725   5.372   9.388
    1   AR   Ar   16   0.556   6.619   6.442
    1   AR   Ar   17   5.618   3.621   0.616
    1   AR   Ar   18   6.845   3.729  -2.667
    1   AR   Ar   19   5.008   4.805   0.351
    1   AR   Ar   20   6.730   3.027  -1.687
    1   AR   Ar   21   2.388   1.217   2.480
    1   AR   Ar   22   5.216   0.324   1.952
    1   AR   Ar   23   0.532   5.708   0.192
    1   AR   Ar   24   5.883   2.708   4.181
    1   AR   Ar   25   1.074   3.523   5.645
    1   AR   Ar   26   5.976   5.910   4.798
    1   AR   Ar   27   0.917   0.549   1.164
    1   AR   Ar   28   2.607   2.297   3.932
    1   AR   Ar   29   5.532   6.931   7.278
    1   AR   Ar   30   6.294   0.430   3.301
    1   AR   Ar   31   0.989   1.099   6.708
    1   AR   Ar   32   1.049   2.087   6.135
    1   AR   Ar   33   5.894   5.542   0.731
    1   AR   Ar   34   1.825   5.139   3.127
    1   AR   Ar   35   5.849   5.601   2.352
    1   AR   Ar   36   3.466   1.418  -3.808
    1   AR   Ar   37   4.639   3.505   1.163
    1   AR   Ar   38   6.413   4.620   4.289
    1   AR   Ar   39   0.495   2.834   4.211
    1   AR   Ar   40   0.546   4.056   2.014
    1   AR   Ar   41   0.624   1.986   3.436
    1   AR   Ar   42   5.044   5.207   4.868
    1   AR   Ar   43   0.078   3.226   6.671
    1   AR   Ar   44   1.390   4.025   3.305
    1   AR   Ar   45   2.053   3.808   5.352
    1   AR   Ar   46   6.205   5.284   7.134
    1   AR   Ar   47   2.769   3.939   7.132
    1   AR   Ar   48   0.308   3.472   7.846
    1   AR   Ar   49   0.013   1.780   0.578
    1   AR   Ar   50   2.853   4.789   0.313
    1   AR   Ar   51   5.577   3.693   2.983
    1   AR   Ar   52   5.885   3.572  -2.166
    1   AR   Ar   53   4.411   0.027   2.906
    1   AR   Ar   54   6.089   6.598   2.899
    1   AR   Ar   55   6.809   4.931   2.373
    1   AR   Ar   56   5.765   1.687   3.822
    1   AR   Ar   57   4.731   4.985   2.450
    1   AR   Ar   58   1.415   3.373   4.560
    1   AR   Ar   59   3.736   5.396   5.547
    1   AR   Ar   60   0.911   5.216   2.425
    1   AR   Ar   61   6.962   4.510   6.539
    1   AR   Ar   62   6.842   3.971   5.540
    1   AR   Ar   63   1.696   1.437   7.405
    1   AR   Ar   64   0.750   4.887   4.126
    1   AR   Ar   65   4.116   1.358   2.525
    1   AR   Ar   66   1.363   1.996   0.756
    1   AR   Ar   67   4.424   1.181  -0.522
    1   AR   Ar   68   6.970   0.717   0.598
    1   AR   Ar   69   2.440   2.695   0.886
    1   AR   Ar   70   0.140   1.242   1.802
    1   AR   Ar   71   3.438   0.523   2.912
    1   AR   Ar   72   4.620   1.022   1.400
    1   AR   Ar   73   2.980   0.105   4.381
    1   AR   Ar   74   1.121   0.757   3.215
    1   AR   Ar   75   2.591   0.780   5.377
    1   AR   Ar   76   2.865   0.292   1.964
    1   AR   Ar   77   1.113   5.537   6.284
    1   AR   Ar   78   0.050   5.546   6.353
    1   AR   Ar   79   3.716   6.860   5.494
    1   AR   Ar   80   3.493   4.108   5.638
    1   AR   Ar   81   1.273   6.403   1.909
    1   AR   Ar   82   6.870   5.218   1.318
    1   AR   Ar   83   0.917   3.100   1.422
    1   AR   Ar   84   1.007   4.353   1.182
    1   AR   Ar   85   0.246   2.619  -0.405
    1   AR   Ar   86   1.390   5.711   0.821
    1   AR   Ar   87   3.943   2.874   2.477
    1   AR   Ar   88   3.611   5.177   1.792
    1   AR   Ar   89   5.903   2.573   0.997
    1   AR   Ar   90   3.327   1.143   6.208
    1   AR   Ar   91   1.660   1.684   3.037
    1   AR   Ar   92   3.712   2.894   1.134
    1   AR   Ar   93   1.064   0.975   5.522
    1   AR   Ar   94   0.277   7.005   9.399
    1   AR   Ar   95   5.267   1.010   6.869
    1   AR   Ar   96   1.839   7.110   5.534
    1   AR   Ar   97   4.563   1.559  -1.788
    1   AR   Ar   98   1.742   4.401   4.155
    1   AR   Ar   99   5.699   6.518  -1.041
    1   AR   Ar  100   6.298   2.672  -2.905
    1   AR   Ar  101   4.144   6.153   3.150
    1   AR   Ar  102   4.135   2.020   1.716
    1   AR   Ar  103   1.779   4.286   2.260
    1   AR   Ar  104   3.178   0.374  -0.599
    1   AR   Ar  105   3.020   2.228   2.277
    1   AR   Ar  106   4.138   0.911   3.933
    1   AR   Ar  107   0.530   4.887   5.567
    1   AR   Ar  108   2.504   0.417   3.506
    1   AR   Ar  109   2.594   4.975   4.699
    1   AR   Ar  110   1.934   2.355   5.130
    1   AR   Ar  111   4.244   4.150   6.904
    1   AR   Ar  112   6.552   6.494   6.987
    1   AR   Ar  113   6.792   5.906  -1.565
    1   AR   Ar  114   2.453   7.046   0.109
    1   AR   Ar  115   6.978   4.445  -0.529
    1   AR   Ar  116   5.533   1.115   0.614
    1   AR   Ar  117   0.269   4.134   3.229
    1   AR   Ar  118   2.127   6.629   3.917
    1   AR   Ar  119   1.633   3.206   2.688
    1   AR   Ar  120   2.042   6.784   2.694
    1   AR   Ar  121   5.287   4.029   6.769
    1   AR   Ar  122   2.940   5.203   3.349
    1   AR   Ar  123   3.447   2.188   5.041
    1   AR   Ar  124   0.621   5.751   1.442
    1   AR   Ar  125   6.407   3.738   3.523
    1   AR   Ar  126   7.100   1.152   7.389
    1   AR   Ar  127   4.701   3.411   5.616
    1   AR   Ar  128   0.654   4.005   6.374
    1   AR   Ar  129   1.500   5.544   4.510
    1   AR   Ar  130   5.300   0.333  -4.474
    1   AR   Ar  131   3.940   6.343  -0.121
    1   AR   Ar  132   1.873   2.385   1.831
    1   AR   Ar  133   4.199   0.162   4.715
    1   AR   Ar  134   3.288   1.231   4.478
    1   AR   Ar  135   5.726   0.103   5.528
    1   AR   Ar  136   5.162   6.463   2.457
    1   AR   Ar  137   2.721   5.094   5.887
    1   AR   Ar  138   5.896   1.256   5.966
    1   AR   Ar  139   6.151   2.651   5.190
    1   AR   Ar  140   5.134   6.680   4.706
    1   AR   Ar  141   3.547   5.301   4.482
    1   AR   Ar  142   3.923   6.038   8.773
    1   AR   Ar  143   4.841   6.417   8.320
    1   AR   Ar  144   0.036   2.891   5.404
    1   AR   Ar  145   4.845   4.529  -2.059
    1   AR   Ar  146   3.997   2.550   3.965
    1   AR   Ar  147   4.515   3.976  -0.302
    1   AR   Ar  148   1.886   5.767  -0.115
    1   AR   Ar  149   6.243   1.862  -0.046
    1   AR   Ar  150   0.725   1.836   2.398
    1   AR   Ar  151   2.931   3.361   1.775
    1   AR   Ar  152   0.933   1.771  -0.304
    1   AR   Ar  153   5.265   0.914   3.053
    1   AR   Ar  154   5.186   3.472   4.002
    1   AR   Ar  155   5.972   3.390   5.991
    1   AR   Ar  156   3.164   4.044   2.945
    1   AR   Ar  157   3.489   6.079   6.403
    1   AR   Ar  158   0.985   2.728   7.411
    1   AR   Ar  159   4.620   0.213   5.660
    1   AR   Ar  160   0.819   1.492   4.462
    1   AR   Ar  161   5.201   4.493   3.839
    1   AR   Ar  162   4.077   5.683  -1.469
    1   AR   Ar  163   6.547   3.976   2.325
    1   AR   Ar  164   2.466   5.894   2.528
    1   AR   Ar  165   3.643   4.069   1.106
    1   AR   Ar  166   2.990   3.182   5.142
    1   AR   Ar  167   5.981   7.036   4.375
    1   AR   Ar  168   5.761   4.624  -2.540
    1   AR   Ar  169   4.420   3.611   3.305
    1   AR   Ar  170   2.619   2.552   6.793
    1   AR   Ar  171   4.611   5.469   3.995
    1   AR   Ar  172   4.221   3.207   4.752
    1   AR   Ar  173   0.793   1.620   7.930
    1   AR   Ar  174   2.898   6.189   4.653
    1   AR   Ar  175   0.733   0.036   7.374
    1   AR   Ar  176   3.322   3.124   3.393
    1   AR   Ar  177   0.006   4.170  -1.697
    1   AR   Ar  178   2.481   6.930   1.081
    1   AR   Ar  179   3.274   6.331   0.854
    1   AR   Ar  180   4.787   5.939  -7.265
    1   AR   Ar  181   6.738   5.905   1.990
    1   AR   Ar  182   0.749   6.910   2.829
    1   AR   Ar  183   5.096   5.676   1.379
    1   AR   Ar  184   4.038   5.332   0.316
    1   AR   Ar  185   3.272   4.206   4.260
    1   AR   Ar  186   3.211   6.674   3.530
    1   AR   Ar  187   4.184   6.598   4.009
    1   AR   Ar  188   3.100   1.376   1.817
    1   AR   Ar  189   6.160   2.712   6.798
    1   AR   Ar  190   2.048   0.505   4.573
    1   AR   Ar  191   4.284   6.110   4.914
    1   AR   Ar  192   3.560   3.334   6.618
    1   AR   Ar  193   3.292   6.477   1.933
    1   AR   Ar  194   4.990   5.935  -0.164
    1   AR   Ar  195   6.329   1.437   1.400
    1   AR   Ar  196   5.097   6.710   1.154
    1   AR   Ar  197   4.481   2.719   0.284
    1   AR   Ar  198   6.947   6.455   0.640
    1   AR   Ar  199   0.003   0.300   2.218
    1   AR   Ar  200   5.371   2.318   0.070
    1   AR   Ar  201   6.951   5.087   3.450
    1   AR   Ar  202   4.973   0.277   3.895
    1   AR   Ar  203   6.981   7.073   3.808
    1   AR   Ar  204   5.023   5.009   8.001
    1   AR   Ar  205   5.358   1.597   1.955
    1   AR   Ar  206   6.266   0.358   6.604
    1   AR   Ar  207   0.430   3.985   4.898
    1   AR   Ar  208   1.082   6.055   3.699
    1   AR   Ar  209   5.320   2.640  -1.788
    1   AR   Ar  210   1.978   1.878  -0.045
    1   AR   Ar  211   6.750   2.949   0.509
    1   AR   Ar  212   6.182   4.480   0.650
    1   AR   Ar  213   4.070   1.465   0.528
    1   AR   Ar  214   5.907   5.003   1.556
    1   AR   Ar  215   0.525   2.884   2.847
    1   AR   Ar  216   2.139   3.002  -0.526
    1   AR   Ar  217   5.026   2.144   4.315
    1   AR   Ar  218   4.563   2.176   5.507
    1   AR   Ar  219   4.671   3.787   2.197
    1   AR   Ar  220   4.510   4.697   1.343
    1   AR   Ar  221   6.734   6.109   4.167
    1   AR   Ar  222   5.242   6.350   5.942
    1   AR   Ar  223   0.092   0.971   6.214
    1   AR   Ar  224   4.800   1.216   4.985
    1   AR   Ar  225   6.230   2.905   2.715
    1   AR   Ar  226   2.469   3.471   4.074
    1   AR   Ar  227   1.451   2.358   4.126
    1   AR   Ar  228   6.160   0.713   2.147
    1   AR   Ar  229   5.927   3.857  -0.817
    1   AR   Ar  230   4.210   4.767   3.367
    1   AR   Ar  231   4.841   2.491   3.243
    1   AR   Ar  232   5.634   3.444   1.760
    1   AR   Ar  233   6.792   1.632   3.227
    1   AR   Ar  234   6.667   3.465   4.502
    1   AR   Ar  235   6.618   0.755   4.368
    1   AR   Ar  236   4.423   4.141   4.538
    1   AR   Ar  237   4.564   1.698   7.218
    1   AR   Ar  238   4.744   4.473   5.718
    1   AR   Ar  239   1.263   4.469  10.038
    1   AR   Ar  240   1.696   3.091   6.395
    1   AR   Ar  241   0.750   6.564  -0.398
    1   AR   Ar  242   5.966   6.642   1.796
    1   AR   Ar  243   4.302   6.102   2.128
    1   AR   Ar  244   5.810   6.518   0.226
    1   AR   Ar  245   3.253   1.489   3.359
    1   AR   Ar  246   5.189   5.423  -1.352
    1   AR   Ar  247   6.709   3.561   1.275
    1   AR   Ar  248   5.827   5.091  -0.473
    1   AR   Ar  249   3.374   0.711   1.044
    1   AR   Ar  250   5.132   6.382   3.641
    1   AR   Ar  251   5.417   3.790   4.983
    1   AR   Ar  252   2.579   4.897   2.217
    1   AR   Ar  253   5.182   2.706   7.063
    1   AR   Ar  254   3.996   4.834  13.233
    1   AR   Ar  255   5.065   5.528   9.176
    1   AR   Ar  256   5.946   5.562   3.690
    7.12000  7.12000 12.00000
Argon-slab step 5730
  256
    1   AR   Ar    1   3.917   2.328  -1.605
    1   AR   Ar    2   6.156   0.362   1.231
    1   AR   Ar    3   4.922   3.621  -1.403
    1   AR   Ar    4   2.074   0.950   1.403
    1   AR   Ar    5   6.635   5.561   0.105
    1   AR   Ar    6   1.292   1.109   2.090
    1   AR   Ar    7   5.937   4.650   2.970
    1   AR   Ar    8   6.026   2.968  -0.181
    1   AR   Ar    9   0.158   5.751   4.869
    1   AR   Ar   10   5.814   4.473   5.602
    1   AR   Ar   11   0.894   6.340   5.534
    1   AR   Ar   12   6.978   1.925   4.502
    1   AR   Ar   13   6.737   7.009   5.235
    1   AR   Ar   14   4.428   1.231   6.008
    1   AR   Ar   15   2.720   5.358   9.389
    1   AR   Ar   16   0.549   6.604   6.414
    1   AR   Ar   17   5.595   3.597   0.600
    1   AR   Ar   18   6.857   3.750  -2.667
    1   AR   Ar   19   5.025   4.766   0.375
    1   AR   Ar   20   6.719   3.028  -1.735
    1   AR   Ar   21   2.398   1.193   2.478
    1   AR   Ar   22   5.198   0.328   1.956
    1   AR   Ar   23   0.542   5.706   0.168
    1   AR   Ar   24   5.852   2.723   4.172
    1   AR   Ar   25   1.070   3.549   5.669
    1   AR   Ar   26   5.967   5.888   4.776
    1   AR   Ar   27   0.899   0.563   1.185
    1   AR   Ar   28   2.637   2.293   3.935
    1   AR   Ar   29   5.543   6.891   7.258
    1   AR   Ar   30   6.266   0.442   3.313
    1   AR   Ar   31   1.012   1.101   6.713
    1   AR   Ar   32   1.066   2.090   6.162
    1   AR   Ar   33   5.870   5.539   0.718
    1   AR   Ar   34   1.814   5.175   3.164
    1   AR   Ar   35   5.855   5.544   2.365
    1   AR   Ar   36   3.468   1.418  -3.778
    1   AR   Ar   37   4.676   3.527   1.158
    1   AR   Ar   38   6.431   4.621   4.299
    1   AR   Ar   39   0.496   2.854   4.265
    1   AR   Ar   40   0.545   4.059   2.014
    1   AR   Ar   41   0.643   1.992   3.450
    1   AR   Ar   42   5.028   5.222   4.859
    1   AR   Ar   43   0.074   3.220   6.633
    1   AR   Ar   44   1.410   4.021   3.280
    1   AR   Ar   45   2.051   3.812   5.356
    1   AR   Ar   46   6.193   5.283   7.124
    1   AR   Ar   47   2.789   3.936   7.137
    1   AR   Ar   48   0.332   3.484   7.816
    1   AR   Ar   49   7.118   1.817   0.575
    1   AR   Ar   50   2.861   4.807   0.361
    1   AR   Ar   51   5.549   3.685   2.974
    1   AR   Ar   52   5.872   3.550  -2.154
    1   AR   Ar   53   4.413   0.040   2.929
    1   AR   Ar   54   6.098   6.574   2.902
    1   AR   Ar   55   6.825   4.962   2.381
    1   AR   Ar   56   5.784   1.680   3.791
    1   AR   Ar   57   4.717   4.960   2.428
    1   AR   Ar   58   1.397   3.370   4.565
    1   AR   Ar   59   3.746   5.373   5.556
    1   AR   Ar   60   0.925   5.204   2.429
    1   AR   Ar   61   6.929   4.543   6.542
    1   AR   Ar   62   6.859   3.976   5.548
    1   AR   Ar   63   1.733   1.434   7.417
    1   AR   Ar   64   0.751   4.893   4.124
    1   AR   Ar   65   4.106   1.372   2.505
    1   AR   Ar   66   1.333   2.007   0.741
    1   AR   Ar   67   4.434   1.186  -0.524
    1   AR   Ar   68   6.939   0.712   0.601
    1   AR   Ar   69   2.430   2.701   0.908
    1   AR   Ar   70   0.139   1.222   1.806
    1   AR   Ar   71   3.414   0.512   2.896
    1   AR   Ar   72   4.608   1.034   1.421
    1   AR   Ar   73   2.991   0.140   4.354
    1   AR   Ar   74   1.136   0.757   3.203
    1   AR   Ar   75   2.605   0.784   5.383
    1   AR   Ar   76   2.843   0.281   1.965
    1   AR   Ar   77   1.090   5.555   6.320
    1   AR   Ar   78   0.079   5.595   6.364
    1   AR   Ar   79   3.648   6.847   5.520
    1   AR   Ar   80   3.486   4.090   5.617
    1   AR   Ar   81   1.284   6.407   1.901
    1   AR   Ar   82   6.860   5.171   1.315
    1   AR   Ar   83   0.971   3.112   1.407
    1   AR   Ar   84   1.005   4.359   1.178
    1   AR   Ar   85   0.236   2.588  -0.371
    1   AR   Ar   86   1.383   5.702   0.837
    1   AR   Ar   87   3.919   2.868   2.475
    1   AR   Ar   88   3.655   5.196   1.787
    1   AR   Ar   89   5.915   2.581   1.001
    1   AR   Ar   90   3.342   1.142   6.241
    1   AR   Ar   91   1.622   1.704   3.047
    1   AR   Ar   92   3.721   2.891   1.155
    1   AR   Ar   93   1.045   0.985   5.528
    1   AR   Ar   94   0.300   7.017   9.402
    1   AR   Ar   95   5.229   0.996   6.887
    1   AR   Ar   96   1.847   0.026   5.523
    1   AR   Ar   97   4.558   1.565  -1.782
    1   AR   Ar   98   1.691   4.422   4.176
    1   AR   Ar   99   5.707   6.501  -1.044
    1   AR   Ar  100   6.314   2.631  -2.916
    1   AR   Ar  101   4.112   6.108   3.143
    1   AR   Ar  102   4.125   1.988   1.714
    1   AR   Ar  103   1.791   4.265   2.241
    1   AR   Ar  104   3.158   0.376  -0.570
    1   AR   Ar  105   3.017   2.224   2.287
    1   AR   Ar  106   4.102   0.925   3.934
    1   AR   Ar  107   0.560   4.859   5.554
    1   AR   Ar  108   2.512   0.431   3.502
    1   AR   Ar  109   2.585   4.963   4.692
    1   AR   Ar  110   1.962   2.374   5.129
    1   AR   Ar  111   4.255   4.146   6.897
    1   AR   Ar  112   6.576   6.497   6.996
    1   AR   Ar  113   6.781   5.918  -1.570
    1   AR   Ar  114   2.447   7.035   0.111
    1   AR   Ar  115   6.940   4.449  -0.527
    1   AR   Ar  116   5.549   1.124   0.634
    1   AR   Ar  117   0.257   4.143   3.273
    1   AR   Ar  118   2.137   6.620   3.906
    1   AR   Ar  119   1.626   3.206   2.680
    1   AR   Ar  120   2.039   6.770   2.710
    1   AR   Ar  121   5.279   4.047   6.814
    1   AR   Ar  122   2.930   5.191   3.348
    1   AR   Ar  123   3.432   2.222   5.043
    1   AR   Ar  124   0.592   5.789   1.428
    1   AR   Ar  125   6.425   3.782   3.513
    1   AR   Ar  126   7.117   1.175   7.366
    1   AR   Ar  127   4.664   3.401   5.603
    1   AR   Ar  128   0.676   4.015   6.399
    1   AR   Ar  129   1.479   5.539   4.524
    1   AR   Ar  130   5.334   0.347  -4.462
    1   AR   Ar  131   3.965   6.395  -0.119
    1   AR   Ar  132   1.857   2.369   1.839
    1   AR   Ar  133   4.200   0.143   4.747
    1   AR   Ar  134   3.305   1.229   4.494
    1   AR   Ar  135   5.736   0.148   5.528
    1   AR   Ar  136   5.174   6.458   2.435
    1   AR   Ar  137   2.741   5.086   5.896
    1   AR   Ar  138   5.887   1.269   5.980
    1   AR   Ar  139   6.157   2.658   5.207
    1   AR   Ar  140   5.092   6.648   4.727
    1   AR   Ar  141   3.536   5.315   4.487
    1   AR   Ar  142   3.930   6.033   8.757
    1   AR   Ar  143   4.826   6.401   8.292
    1   AR   Ar  144   0.054   2.909   5.410
    1   AR   Ar  145   4.848   4.539  -2.065
    1   AR   Ar  146   4.023   2.531   3.946
    1   AR   Ar  147   4.513   3.971  -0.292
    1   AR   Ar  148   1.904   5.769  -0.158
    1   AR   Ar  149   6.264   1.870  -0.080
    1   AR   Ar  150   0.701   1.856   2.397
    1   AR   Ar  151   2.936   3.356   1.781
    1   AR   Ar  152   0.914   1.773  -0.283
    1   AR   Ar  153   5.282   0.947   3.071
    1   AR   Ar  154   5.197   3.478   3.959
    1   AR   Ar  155   5.987   3.401   5.985
    1   AR   Ar  156   3.192   4.043   2.969
    1   AR   Ar  157   3.491   6.102   6.385
    1   AR   Ar  158   1.008   2.710   7.383
    1   AR   Ar  159   4.637   0.228   5.676
    1   AR   Ar  160   0.786   1.530   4.495
    1   AR   Ar  161   5.182   4.459   3.864
    1   AR   Ar  162   4.041   5.663  -1.466
    1   AR   Ar  163   6.541   3.976   2.301
    1   AR   Ar  164   2.436   5.933   2.535
    1   AR   Ar  165   3.636   4.083   1.105
    1   AR   Ar  166   3.006   3.190   5.160
    1   AR   Ar  167   5.985   7.051   4.391
    1   AR   Ar  168   5.752   4.638  -2.549
    1   AR   Ar  169   4.398   3.604   3.324
    1   AR   Ar  170   2.593   2.553   6.836
    1   AR   Ar  171   4.614   5.471   4.017
    1   AR   Ar  172   4.198   3.219   4.744
    1   AR   Ar  173   0.752   1.635   7.921
    1   AR   Ar  174   2.903   6.180   4.645
    1   AR   Ar  175   0.707   0.053   7.373
    1   AR   Ar  176   3.356   3.101   3.380
    1   AR   Ar  177   0.023   4.165  -1.710
    1   AR   Ar  178   2.502   6.935   1.157
    1   AR   Ar  179   3.270   6.292   0.865
    1   AR   Ar  180   4.781   5.962  -7.232
    1   AR   Ar  181   6.755   5.920   2.018
    1   AR   Ar  182   0.768   6.923   2.836
    1   AR   Ar  183   5.103   5.657   1.378
    1   AR   Ar  184   4.026   5.318   0.307
    1   AR   Ar  185   3.259   4.205   4.254
    1   AR   Ar  186   3.205   6.683   3.535
    1   AR   Ar  187   4.179   6.601   4.022
    1   AR   Ar  188   3.116   1.422   1.816
    1   AR   Ar  189   6.141   2.706   6.783
    1   AR   Ar  190   2.002   0.491   4.529
    1   AR   Ar  191   4.289   6.094   4.900
    1   AR   Ar  192   3.564   3.359   6.637
    1   AR   Ar  193   3.323   6.457   1.893
    1   AR   Ar  194   4.984   5.949  -0.135
    1   AR   Ar  195   6.344   1.467   1.397
    1   AR   Ar  196   5.084   6.732   1.141
    1   AR   Ar  197   4.438   2.702   0.268
    1   AR   Ar  198   6.939   6.450   0.659
    1   AR   Ar  199   0.022   0.274   2.237
    1   AR   Ar  200   5.342   2.305   0.091
    1   AR   Ar  201   6.959   5.103   3.439
    1   AR   Ar  202   4.975   0.292   3.883
    1   AR   Ar  203   7.014   7.090   3.827
    1   AR   Ar  204   5.050   5.023   7.961
    1   AR   Ar  205   5.351   1.606   1.998
    1   AR   Ar  206   6.283   0.345   6.596
    1   AR   Ar  207   0.433   3.994   4.881
    1   AR   Ar  208   1.096   6.053   3.697
    1   AR   Ar  209   5.316   2.657  -1.791
    1   AR   Ar  210   2.020   1.906  -0.049
    1   AR   Ar  211   6.746   2.971   0.497
    1   AR   Ar  212   6.168   4.498   0.617
    1   AR   Ar  213   4.072   1.447   0.484
    1   AR   Ar  214   5.914   5.007   1.559
    1   AR   Ar  215   0.511   2.905   2.809
    1   AR   Ar  216   2.172   3.011  -0.534
    1   AR   Ar  217   5.001   2.140   4.331
    1   AR   Ar  218   4.588   2.178   5.455
    1   AR   Ar  219   4.685   3.757   2.182
    1   AR   Ar  220   4.536   4.717   1.362
    1   AR   Ar  221   6.727   6.101   4.152
    1   AR   Ar  222   5.247   6.382   5.943
    1   AR   Ar  223   0.063   0.979   6.200
    1   AR   Ar  224   4.803   1.224   4.984
    1   AR   Ar  225   6.253   2.899   2.717
    1   AR   Ar  226   2.503   3.488   4.060
    1   AR   Ar  227   1.434   2.365   4.134
    1   AR   Ar  228   6.163   0.707   2.123
    1   AR   Ar  229   5.944   3.865  -0.795
    1   AR   Ar  230   4.216   4.743   3.348
    1   AR   Ar  231   4.830   2.482   3.227
    1   AR   Ar  232   5.620   3.448   1.802
    1   AR   Ar  233   6.847   1.616   3.188
    1   AR   Ar  234   6.677   3.483   4.498
    1   AR   Ar  235   6.647   0.761   4.370
    1   AR   Ar  236   4.405   4.164   4.570
    1   AR   Ar  237   4.553   1.718   7.192
    1   AR   Ar  238   4.713   4.468   5.680
    1   AR   Ar  239   1.260   4.491  10.064
    1   AR   Ar  240   1.701   3.089   6.382
    1   AR   Ar  241   0.721   6.580  -0.414
    1   AR   Ar  242   5.989   6.633   1.774
    1   AR   Ar  243   4.285   6.122   2.131
    1   AR   Ar  244   5.783   6.513   0.243
    1   AR   Ar  245   3.279   1.494   3.352
    1   AR   Ar  246   5.197   5.405  -1.353
    1   AR   Ar  247   6.691   3.570   1.265
    1   AR   Ar  248   5.835   5.074  -0.477
    1   AR   Ar  249   3.399   0.686   1.051
    1   AR   Ar  250   5.103   6.438   3.615
    1   AR   Ar  251   5.406   3.779   4.969
    1   AR   Ar  252   2.577   4.884   2.178
    1   AR   Ar  253   5.201   2.655   7.079
    1   AR   Ar  254   4.031   4.832  13.256
    1   AR   Ar  255   5.088   5.529   9.168
    1   AR   Ar  256   5.939   5.542   3.655
    7.12000  7.12000 12.00000
Argon-slab step 5735
  256
    1   AR   Ar    1   3.943   2.309  -1.593
    1   AR   Ar    2   6.195   0.369   1.202
    1   AR   Ar    3   4.891   3.633  -1.409
    1   AR   Ar    4   2.046   0.957   1.376
    1   AR   Ar    5   6.622   5.560   0.133
    1   AR   Ar    6   1.314   1.107   2.099
    1   AR   Ar    7   5.909   4.683   2.953
    1   AR   Ar    8   6.031   2.939  -0.192
    1   AR   Ar    9   0.127   5.759   4.893
    1   AR   Ar   10   5.828   4.502   5.576
    1   AR   Ar   11   0.871   6.337   5.480
    1   AR   Ar   12   6.986   1.912   4.504
    1   AR   Ar   13   6.710   6.983   5.255
    1   AR   Ar   14   4.423   1.235   6.022
    1   AR   Ar   15   2.715   5.343   9.389
    1   AR   Ar   16   0.564   6.599   6.421
    1   AR   Ar   17   5.574   3.584   0.585
    1   AR   Ar   18   6.869   3.782  -2.692
    1   AR   Ar   19   5.044   4.727   0.399
    1   AR   Ar   20   6.709   3.029  -1.783
    1   AR   Ar   21   2.398   1.161   2.475
    1   AR   Ar   22   5.179   0.331   1.963
    1   AR   Ar   23   0.555   5.703   0.146
    1   AR   Ar   24   5.828   2.736   4.162
    1   AR   Ar   25   1.070   3.564   5.674
    1   AR   Ar   26   5.951   5.864   4.758
    1   AR   Ar   27   0.881   0.577   1.206
    1   AR   Ar   28   2.668   2.290   3.938
    1   AR   Ar   29   5.548   6.857   7.240
    1   AR   Ar   30   6.232   0.458   3.323
    1   AR   Ar   31   1.034   1.102   6.717
    1   AR   Ar   32   1.083   2.094   6.190
    1   AR   Ar   33   5.840   5.540   0.701
    1   AR   Ar   34   1.803   5.211   3.202
    1   AR   Ar   35   5.860   5.534   2.371
    1   AR   Ar   36   3.491   1.436  -3.785
    1   AR   Ar   37   4.710   3.548   1.150
    1   AR   Ar   38   6.448   4.622   4.309
    1   AR   Ar   39   0.499   2.854   4.241
    1   AR   Ar   40   0.539   4.059   2.024
    1   AR   Ar   41   0.666   2.001   3.469
    1   AR   Ar   42   5.036   5.210   4.855
    1   AR   Ar   43   0.067   3.210   6.594
    1   AR   Ar   44   1.425   4.020   3.253
    1   AR   Ar   45   2.052   3.816   5.359
    1   AR   Ar   46   6.182   5.283   7.113
    1   AR   Ar   47   2.808   3.932   7.142
    1   AR   Ar   48   0.356   3.495   7.784
    1   AR   Ar   49   7.104   1.855   0.574
    1   AR   Ar   50   2.870   4.825   0.409
    1   AR   Ar   51   5.509   3.690   2.984
    1   AR   Ar   52   5.856   3.530  -2.142
    1   AR   Ar   53   4.416   0.054   2.952
    1   AR   Ar   54   6.110   6.547   2.906
    1   AR   Ar   55   6.844   4.991   2.391
    1   AR   Ar   56   5.807   1.671   3.758
    1   AR   Ar   57   4.706   4.936   2.403
    1   AR   Ar   58   1.380   3.369   4.570
    1   AR   Ar   59   3.758   5.349   5.564
    1   AR   Ar   60   0.939   5.192   2.433
    1   AR   Ar   61   6.891   4.578   6.544
    1   AR   Ar   62   6.869   3.992   5.562
    1   AR   Ar   63   1.762   1.432   7.457
    1   AR   Ar   64   0.746   4.889   4.144
    1   AR   Ar   65   4.095   1.381   2.492
    1   AR   Ar   66   1.300   2.019   0.731
    1   AR   Ar   67   4.445   1.192  -0.527
    1   AR   Ar   68   6.911   0.725   0.590
    1   AR   Ar   69   2.421   2.706   0.931
    1   AR   Ar   70   0.140   1.200   1.808
    1   AR   Ar   71   3.401   0.508   2.882
    1   AR   Ar   72   4.593   1.048   1.439
    1   AR   Ar   73   3.008   0.176   4.336
    1   AR   Ar   74   1.152   0.745   3.185
    1   AR   Ar   75   2.622   0.790   5.389
    1   AR   Ar   76   2.830   0.262   1.966
    1   AR   Ar   77   1.074   5.573   6.355
    1   AR   Ar   78   0.099   5.644   6.374
    1   AR   Ar   79   3.663   6.870   5.523
    1   AR   Ar   80   3.481   4.074   5.596
    1   AR   Ar   81   1.298   6.414   1.897
    1   AR   Ar   82   6.857   5.120   1.303
    1   AR   Ar   83   1.024   3.124   1.393
    1   AR   Ar   84   1.008   4.367   1.168
    1   AR   Ar   85   0.222   2.559  -0.335
    1   AR   Ar   86   1.385   5.693   0.848
    1   AR   Ar   87   3.895   2.859   2.472
    1   AR   Ar   88   3.700   5.216   1.782
    1   AR   Ar   89   5.909   2.596   1.000
    1   AR   Ar   90   3.357   1.140   6.273
    1   AR   Ar   91   1.585   1.726   3.058
    1   AR   Ar   92   3.730   2.887   1.176
    1   AR   Ar   93   1.027   0.991   5.527
    1   AR   Ar   94   0.323   7.029   9.405
    1   AR   Ar   95   5.195   0.977   6.902
    1   AR   Ar   96   1.852   0.061   5.512
    1   AR   Ar   97   4.558   1.565  -1.776
    1   AR   Ar   98   1.646   4.443   4.203
    1   AR   Ar   99   5.708   6.492  -1.052
    1   AR   Ar  100   6.329   2.591  -2.926
    1   AR   Ar  101   4.079   6.058   3.134
    1   AR   Ar  102   4.114   1.962   1.704
    1   AR   Ar  103   1.793   4.239   2.222
    1   AR   Ar  104   3.139   0.378  -0.542
    1   AR   Ar  105   3.011   2.243   2.311
    1   AR   Ar  106   4.070   0.939   3.930
    1   AR   Ar  107   0.589   4.831   5.542
    1   AR   Ar  108   2.516   0.450   3.491
    1   AR   Ar  109   2.571   4.950   4.686
    1   AR   Ar  110   1.991   2.395   5.128
    1   AR   Ar  111   4.257   4.132   6.882
    1   AR   Ar  112   6.601   6.498   7.006
    1   AR   Ar  113   6.768   5.940  -1.577
    1   AR   Ar  114   2.440   7.023   0.111
    1   AR   Ar  115   6.901   4.453  -0.524
    1   AR   Ar  116   5.564   1.134   0.655
    1   AR   Ar  117   0.250   4.150   3.315
    1   AR   Ar  118   2.147   6.609   3.896
    1   AR   Ar  119   1.643   3.207   2.695
    1   AR   Ar  120   2.024   6.780   2.731
    1   AR   Ar  121   5.276   4.064   6.856
    1   AR   Ar  122   2.920   5.177   3.348
    1   AR   Ar  123   3.418   2.255   5.044
    1   AR   Ar  124   0.553   5.825   1.419
    1   AR   Ar  125   6.441   3.827   3.504
    1   AR   Ar  126   0.012   1.195   7.339
    1   AR   Ar  127   4.629   3.389   5.601
    1   AR   Ar  128   0.714   4.034   6.441
    1   AR   Ar  129   1.463   5.534   4.543
    1   AR   Ar  130   5.369   0.362  -4.450
    1   AR   Ar  131   3.990   6.446  -0.117
    1   AR   Ar  132   1.840   2.353   1.847
    1   AR   Ar  133   4.201   0.136   4.778
    1   AR   Ar  134   3.270   1.207   4.555
    1   AR   Ar  135   5.771   0.169   5.513
    1   AR   Ar  136   5.189   6.453   2.417
    1   AR   Ar  137   2.762   5.077   5.904
    1   AR   Ar  138   5.878   1.282   5.995
    1   AR   Ar  139   6.160   2.664   5.223
    1   AR   Ar  140   5.057   6.620   4.748
    1   AR   Ar  141   3.532   5.328   4.488
    1   AR   Ar  142   3.935   6.027   8.743
    1   AR   Ar  143   4.814   6.384   8.262
    1   AR   Ar  144   0.074   2.930   5.415
    1   AR   Ar  145   4.846   4.549  -2.068
    1   AR   Ar  146   4.049   2.509   3.928
    1   AR   Ar  147   4.514   3.965  -0.282
    1   AR   Ar  148   1.923   5.771  -0.200
    1   AR   Ar  149   6.297   1.877  -0.132
    1   AR   Ar  150   0.675   1.886   2.399
    1   AR   Ar  151   2.940   3.351   1.788
    1   AR   Ar  152   0.896   1.774  -0.261
    1   AR   Ar  153   5.298   0.981   3.087
    1   AR   Ar  154   5.205   3.474   3.921
    1   AR   Ar  155   6.002   3.416   5.978
    1   AR   Ar  156   3.220   4.046   2.992
    1   AR   Ar  157   3.493   6.126   6.365
    1   AR   Ar  158   1.035   2.692   7.360
    1   AR   Ar  159   4.658   0.241   5.695
    1   AR   Ar  160   0.761   1.565   4.527
    1   AR   Ar  161   5.165   4.438   3.887
    1   AR   Ar  162   4.007   5.642  -1.463
    1   AR   Ar  163   6.534   3.970   2.279
    1   AR   Ar  164   2.418   5.950   2.538
    1   AR   Ar  165   3.629   4.097   1.105
    1   AR   Ar  166   3.019   3.201   5.176
    1   AR   Ar  167   5.992   7.064   4.405
    1   AR   Ar  168   5.749   4.652  -2.560
    1   AR   Ar  169   4.373   3.598   3.340
    1   AR   Ar  170   2.568   2.554   6.878
    1   AR   Ar  171   4.612   5.480   4.026
    1   AR   Ar  172   4.167   3.218   4.730
    1   AR   Ar  173   0.713   1.652   7.913
    1   AR   Ar  174   2.908   6.172   4.636
    1   AR   Ar  175   0.678   0.082   7.382
    1   AR   Ar  176   3.388   3.077   3.368
    1   AR   Ar  177   0.038   4.139  -1.720
    1   AR   Ar  178   2.516   6.937   1.228
    1   AR   Ar  179   3.273   6.268   0.877
    1   AR   Ar  180   4.775   5.985  -7.199
    1   AR   Ar  181   6.776   5.945   2.046
    1   AR   Ar  182   0.788   6.933   2.844
    1   AR   Ar  183   5.103   5.641   1.382
    1   AR   Ar  184   4.014   5.305   0.301
    1   AR   Ar  185   3.250   4.205   4.247
    1   AR   Ar  186   3.200   6.688   3.534
    1   AR   Ar  187   4.173   6.600   4.020
    1   AR   Ar  188   3.142   1.445   1.798
    1   AR   Ar  189   6.135   2.700   6.765
    1   AR   Ar  190   1.953   0.477   4.483
    1   AR   Ar  191   4.286   6.069   4.892
    1   AR   Ar  192   3.567   3.364   6.640
    1   AR   Ar  193   3.351   6.436   1.858
    1   AR   Ar  194   4.977   5.959  -0.106
    1   AR   Ar  195   6.354   1.500   1.388
    1   AR   Ar  196   5.072   6.754   1.128
    1   AR   Ar  197   4.406   2.704   0.265
    1   AR   Ar  198   6.923   6.448   0.691
    1   AR   Ar  199   0.040   0.245   2.256
    1   AR   Ar  200   5.309   2.284   0.115
    1   AR   Ar  201   6.966   5.121   3.430
    1   AR   Ar  202   4.977   0.312   3.875
    1   AR   Ar  203   7.036   7.094   3.822
    1   AR   Ar  204   5.077   5.037   7.921
    1   AR   Ar  205   5.344   1.613   2.041
    1   AR   Ar  206   6.299   0.335   6.587
    1   AR   Ar  207   0.451   4.004   4.850
    1   AR   Ar  208   1.109   6.053   3.691
    1   AR   Ar  209   5.313   2.673  -1.793
    1   AR   Ar  210   2.063   1.935  -0.056
    1   AR   Ar  211   6.754   2.985   0.479
    1   AR   Ar  212   6.156   4.517   0.583
    1   AR   Ar  213   4.074   1.430   0.442
    1   AR   Ar  214   5.914   4.993   1.562
    1   AR   Ar  215   0.498   2.928   2.770
    1   AR   Ar  216   2.205   3.019  -0.541
    1   AR   Ar  217   4.970   2.135   4.349
    1   AR   Ar  218   4.612   2.184   5.402
    1   AR   Ar  219   4.693   3.758   2.199
    1   AR   Ar  220   4.564   4.734   1.379
    1   AR   Ar  221   6.717   6.099   4.121
    1   AR   Ar  222   5.251   6.415   5.942
    1   AR   Ar  223   0.031   0.987   6.185
    1   AR   Ar  224   4.806   1.229   4.980
    1   AR   Ar  225   6.277   2.893   2.719
    1   AR   Ar  226   2.535   3.504   4.046
    1   AR   Ar  227   1.421   2.370   4.141
    1   AR   Ar  228   6.168   0.708   2.121
    1   AR   Ar  229   5.960   3.875  -0.774
    1   AR   Ar  230   4.219   4.716   3.330
    1   AR   Ar  231   4.820   2.474   3.211
    1   AR   Ar  232   5.609   3.452   1.843
    1   AR   Ar  233   6.896   1.598   3.148
    1   AR   Ar  234   6.687   3.498   4.497
    1   AR   Ar  235   6.674   0.774   4.373
    1   AR   Ar  236   4.389   4.199   4.601
    1   AR   Ar  237   4.538   1.740   7.167
    1   AR   Ar  238   4.681   4.465   5.641
    1   AR   Ar  239   1.258   4.513  10.090
    1   AR   Ar  240   1.708   3.084   6.370
    1   AR   Ar  241   0.692   6.598  -0.431
    1   AR   Ar  242   6.012   6.619   1.754
    1   AR   Ar  243   4.265   6.137   2.125
    1   AR   Ar  244   5.765   6.508   0.268
    1   AR   Ar  245   3.305   1.501   3.345
    1   AR   Ar  246   5.205   5.395  -1.350
    1   AR   Ar  247   6.672   3.588   1.267
    1   AR   Ar  248   5.816   5.072  -0.479
    1   AR   Ar  249   3.424   0.659   1.059
    1   AR   Ar  250   5.082   6.487   3.585
    1   AR   Ar  251   5.395   3.766   4.951
    1   AR   Ar  252   2.583   4.877   2.141
    1   AR   Ar  253   5.209   2.604   7.097
    1   AR   Ar  254   4.029   4.819  13.262
    1   AR   Ar  255   5.110   5.531   9.159
    1   AR   Ar  256   5.930   5.522   3.619
    7.12000  7.12000 12.00000
Argon-slab step 5740
  256
    1   AR   Ar    1   3.963   2.300  -1.577
    1   AR   Ar    2   6.197   0.359   1.189
    1   AR   Ar    3   4.861   3.647  -1.415
    1   AR   Ar    4   2.022   0.964   1.348
    1   AR   Ar    5   6.618   5.556   0.152
    1   AR   Ar    6   1.362   1.077   2.123
    1   AR   Ar    7   5.883   4.712   2.938
    1   AR   Ar    8   6.033   2.914  -0.212
    1   AR   Ar    9   0.124   5.768   4.905
    1   AR   Ar   10   5.844   4.532   5.551
    1   AR   Ar   11   0.850   6.331   5.421
    1   AR   Ar   12   6.976   1.906   4.505
    1   AR   Ar   13   6.691   6.956   5.273
    1   AR   Ar   14   4.419   1.240   6.038
    1   AR   Ar   15   2.710   5.329   9.389
    1   AR   Ar   16   0.577   6.599   6.433
    1   AR   Ar   17   5.561   3.588   0.568
    1   AR   Ar   18   6.878   3.812  -2.717
    1   AR   Ar   19   5.019   4.767   0.383
    1   AR   Ar   20   6.701   3.030  -1.831
    1   AR   Ar   21   2.397   1.128   2.475
    1   AR   Ar   22   5.161   0.333   1.972
    1   AR   Ar   23   0.569   5.699   0.126
    1   AR   Ar   24   5.814   2.745   4.153
    1   AR   Ar   25   1.070   3.571   5.664
    1   AR   Ar   26   5.944   5.850   4.759
    1   AR   Ar   27   0.862   0.591   1.228
    1   AR   Ar   28   2.700   2.287   3.941
    1   AR   Ar   29   5.533   6.843   7.231
    1   AR   Ar   30   6.197   0.477   3.331
    1   AR   Ar   31   1.054   1.102   6.721
    1   AR   Ar   32   1.100   2.099   6.218
    1   AR   Ar   33   5.800   5.542   0.685
    1   AR   Ar   34   1.790   5.245   3.240
    1   AR   Ar   35   5.862   5.544   2.384
    1   AR   Ar   36   3.513   1.454  -3.792
    1   AR   Ar   37   4.740   3.570   1.142
    1   AR   Ar   38   6.465   4.623   4.319
    1   AR   Ar   39   0.499   2.849   4.212
    1   AR   Ar   40   0.530   4.058   2.040
    1   AR   Ar   41   0.689   2.012   3.493
    1   AR   Ar   42   5.062   5.177   4.860
    1   AR   Ar   43   0.058   3.198   6.555
    1   AR   Ar   44   1.438   4.024   3.228
    1   AR   Ar   45   2.056   3.820   5.360
    1   AR   Ar   46   6.171   5.284   7.101
    1   AR   Ar   47   2.826   3.929   7.146
    1   AR   Ar   48   0.380   3.507   7.751
    1   AR   Ar   49   7.092   1.894   0.574
    1   AR   Ar   50   2.881   4.844   0.459
    1   AR   Ar   51   5.469   3.695   2.986
    1   AR   Ar   52   5.840   3.513  -2.131
    1   AR   Ar   53   4.420   0.067   2.975
    1   AR   Ar   54   6.125   6.520   2.913
    1   AR   Ar   55   6.864   5.015   2.400
    1   AR   Ar   56   5.831   1.662   3.725
    1   AR   Ar   57   4.697   4.914   2.379
    1   AR   Ar   58   1.365   3.370   4.577
    1   AR   Ar   59   3.772   5.324   5.573
    1   AR   Ar   60   0.951   5.179   2.436
    1   AR   Ar   61   6.851   4.612   6.546
    1   AR   Ar   62   6.873   4.007   5.583
    1   AR   Ar   63   1.789   1.431   7.504
    1   AR   Ar   64   0.752   4.896   4.141
    1   AR   Ar   65   4.084   1.381   2.491
    1   AR   Ar   66   1.266   2.031   0.723
    1   AR   Ar   67   4.456   1.198  -0.533
    1   AR   Ar   68   6.889   0.745   0.573
    1   AR   Ar   69   2.411   2.710   0.954
    1   AR   Ar   70   0.143   1.177   1.807
    1   AR   Ar   71   3.397   0.509   2.869
    1   AR   Ar   72   4.578   1.060   1.456
    1   AR   Ar   73   3.030   0.211   4.329
    1   AR   Ar   74   1.170   0.728   3.163
    1   AR   Ar   75   2.642   0.797   5.394
    1   AR   Ar   76   2.828   0.263   1.999
    1   AR   Ar   77   1.071   5.589   6.389
    1   AR   Ar   78   0.104   5.693   6.383
    1   AR   Ar   79   3.685   6.847   5.518
    1   AR   Ar   80   3.478   4.060   5.574
    1   AR   Ar   81   1.315   6.421   1.894
    1   AR   Ar   82   6.865   5.069   1.285
    1   AR   Ar   83   1.078   3.137   1.380
    1   AR   Ar   84   1.012   4.378   1.153
    1   AR   Ar   85   0.204   2.531  -0.300
    1   AR   Ar   86   1.394   5.684   0.857
    1   AR   Ar   87   3.875   2.851   2.466
    1   AR   Ar   88   3.742   5.237   1.778
    1   AR   Ar   89   5.902   2.610   1.000
    1   AR   Ar   90   3.371   1.138   6.303
    1   AR   Ar   91   1.553   1.750   3.066
    1   AR   Ar   92   3.739   2.885   1.197
    1   AR   Ar   93   1.014   0.988   5.523
    1   AR   Ar   94   0.345   7.041   9.408
    1   AR   Ar   95   5.164   0.954   6.913
    1   AR   Ar   96   1.855   0.095   5.502
    1   AR   Ar   97   4.566   1.556  -1.771
    1   AR   Ar   98   1.610   4.461   4.234
    1   AR   Ar   99   5.703   6.487  -1.061
    1   AR   Ar  100   6.345   2.552  -2.933
    1   AR   Ar  101   4.046   6.005   3.127
    1   AR   Ar  102   4.102   1.947   1.684
    1   AR   Ar  103   1.789   4.209   2.204
    1   AR   Ar  104   3.123   0.381  -0.514
    1   AR   Ar  105   3.002   2.279   2.345
    1   AR   Ar  106   4.040   0.950   3.925
    1   AR   Ar  107   0.618   4.804   5.532
    1   AR   Ar  108   2.515   0.472   3.474
    1   AR   Ar  109   2.553   4.937   4.681
    1   AR   Ar  110   2.020   2.418   5.126
    1   AR   Ar  111   4.256   4.121   6.866
    1   AR   Ar  112   6.627   6.498   7.014
    1   AR   Ar  113   6.755   5.962  -1.583
    1   AR   Ar  114   2.432   7.009   0.113
    1   AR   Ar  115   6.860   4.458  -0.521
    1   AR   Ar  116   5.580   1.145   0.678
    1   AR   Ar  117   0.253   4.159   3.355
    1   AR   Ar  118   2.156   6.598   3.886
    1   AR   Ar  119   1.662   3.200   2.705
    1   AR   Ar  120   1.999   6.815   2.759
    1   AR   Ar  121   5.280   4.080   6.896
    1   AR   Ar  122   2.911   5.164   3.347
    1   AR   Ar  123   3.408   2.283   5.043
    1   AR   Ar  124   0.508   5.862   1.412
    1   AR   Ar  125   6.449   3.869   3.494
    1   AR   Ar  126   0.024   1.210   7.306
    1   AR   Ar  127   4.597   3.377   5.608
    1   AR   Ar  128   0.748   4.063   6.494
    1   AR   Ar  129   1.451   5.529   4.565
    1   AR   Ar  130   5.404   0.376  -4.438
    1   AR   Ar  131   4.013   6.498  -0.114
    1   AR   Ar  132   1.823   2.335   1.856
    1   AR   Ar  133   4.203   0.139   4.803
    1   AR   Ar  134   3.252   1.190   4.598
    1   AR   Ar  135   5.800   0.193   5.499
    1   AR   Ar  136   5.204   6.449   2.401
    1   AR   Ar  137   2.781   5.066   5.910
    1   AR   Ar  138   5.869   1.293   6.009
    1   AR   Ar  139   6.163   2.670   5.237
    1   AR   Ar  140   5.038   6.601   4.766
    1   AR   Ar  141   3.538   5.338   4.484
    1   AR   Ar  142   3.940   6.020   8.729
    1   AR   Ar  143   4.805   6.368   8.231
    1   AR   Ar  144   0.097   2.952   5.419
    1   AR   Ar  145   4.841   4.558  -2.067
    1   AR   Ar  146   4.074   2.483   3.914
    1   AR   Ar  147   4.516   3.960  -0.270
    1   AR   Ar  148   1.941   5.773  -0.241
    1   AR   Ar  149   6.329   1.883  -0.183
    1   AR   Ar  150   0.648   1.920   2.403
    1   AR   Ar  151   2.944   3.344   1.796
    1   AR   Ar  152   0.880   1.771  -0.239
    1   AR   Ar  153   5.313   1.014   3.099
    1   AR   Ar  154   5.210   3.457   3.890
    1   AR   Ar  155   6.016   3.434   5.970
    1   AR   Ar  156   3.249   4.053   3.014
    1   AR   Ar  157   3.495   6.148   6.345
    1   AR   Ar  158   1.080   2.681   7.361
    1   AR   Ar  159   4.682   0.253   5.717
    1   AR   Ar  160   0.753   1.593   4.559
    1   AR   Ar  161   5.149   4.434   3.908
    1   AR   Ar  162   3.975   5.621  -1.459
    1   AR   Ar  163   6.525   3.963   2.259
    1   AR   Ar  164   2.411   5.943   2.537
    1   AR   Ar  165   3.617   4.108   1.073
    1   AR   Ar  166   3.030   3.214   5.190
    1   AR   Ar  167   5.997   7.075   4.416
    1   AR   Ar  168   5.750   4.665  -2.573
    1   AR   Ar  169   4.343   3.593   3.353
    1   AR   Ar  170   2.535   2.550   6.912
    1   AR   Ar  171   4.603   5.494   4.021
    1   AR   Ar  172   4.131   3.209   4.710
    1   AR   Ar  173   0.680   1.673   7.907
    1   AR   Ar  174   2.913   6.167   4.628
    1   AR   Ar  175   0.649   0.112   7.388
    1   AR   Ar  176   3.414   3.052   3.358
    1   AR   Ar  177   0.052   4.114  -1.728
    1   AR   Ar  178   2.515   6.922   1.270
    1   AR   Ar  179   3.279   6.253   0.882
    1   AR   Ar  180   4.769   6.008  -7.167
    1   AR   Ar  181   6.800   5.977   2.074
    1   AR   Ar  182   0.812   6.938   2.853
    1   AR   Ar  183   5.096   5.631   1.393
    1   AR   Ar  184   4.004   5.292   0.295
    1   AR   Ar  185   3.247   4.209   4.242
    1   AR   Ar  186   3.196   6.689   3.528
    1   AR   Ar  187   4.175   6.586   3.976
    1   AR   Ar  188   3.173   1.451   1.766
    1   AR   Ar  189   6.140   2.694   6.743
    1   AR   Ar  190   1.904   0.464   4.437
    1   AR   Ar  191   4.267   6.033   4.893
    1   AR   Ar  192   3.577   3.336   6.659
    1   AR   Ar  193   3.370   6.418   1.831
    1   AR   Ar  194   4.968   5.963  -0.079
    1   AR   Ar  195   6.361   1.535   1.376
    1   AR   Ar  196   5.060   6.775   1.115
    1   AR   Ar  197   4.367   2.710   0.265
    1   AR   Ar  198   6.907   6.446   0.725
    1   AR   Ar  199   0.050   0.223   2.271
    1   AR   Ar  200   5.278   2.254   0.141
    1   AR   Ar  201   6.971   5.142   3.425
    1   AR   Ar  202   4.979   0.340   3.872
    1   AR   Ar  203   7.048   7.088   3.800
    1   AR   Ar  204   5.104   5.052   7.881
    1   AR   Ar  205   5.338   1.619   2.085
    1   AR   Ar  206   6.315   0.326   6.576
    1   AR   Ar  207   0.478   4.013   4.811
    1   AR   Ar  208   1.102   6.052   3.680
    1   AR   Ar  209   5.308   2.687  -1.795
    1   AR   Ar  210   2.107   1.966  -0.062
    1   AR   Ar  211   6.772   2.993   0.461
    1   AR   Ar  212   6.145   4.536   0.548
    1   AR   Ar  213   4.076   1.414   0.404
    1   AR   Ar  214   5.907   4.963   1.564
    1   AR   Ar  215   0.484   2.952   2.732
    1   AR   Ar  216   2.238   3.026  -0.547
    1   AR   Ar  217   4.938   2.130   4.367
    1   AR   Ar  218   4.635   2.193   5.350
    1   AR   Ar  219   4.694   3.782   2.238
    1   AR   Ar  220   4.591   4.746   1.394
    1   AR   Ar  221   6.706   6.102   4.078
    1   AR   Ar  222   5.255   6.448   5.940
    1   AR   Ar  223   0.000   0.994   6.171
    1   AR   Ar  224   4.816   1.228   4.987
    1   AR   Ar  225   6.302   2.889   2.722
    1   AR   Ar  226   2.561   3.515   4.031
    1   AR   Ar  227   1.414   2.373   4.147
    1   AR   Ar  228   6.173   0.714   2.133
    1   AR   Ar  229   5.975   3.886  -0.754
    1   AR   Ar  230   4.220   4.689   3.314
    1   AR   Ar  231   4.814   2.468   3.193
    1   AR   Ar  232   5.604   3.455   1.881
    1   AR   Ar  233   6.940   1.576   3.107
    1   AR   Ar  234   6.694   3.512   4.498
    1   AR   Ar  235   6.701   0.792   4.379
    1   AR   Ar  236   4.374   4.242   4.631
    1   AR   Ar  237   4.520   1.765   7.141
    1   AR   Ar  238   4.669   4.487   5.638
    1   AR   Ar  239   1.255   4.536  10.115
    1   AR   Ar  240   1.714   3.079   6.359
    1   AR   Ar  241   0.663   6.616  -0.447
    1   AR   Ar  242   6.033   6.603   1.734
    1   AR   Ar  243   4.251   6.147   2.115
    1   AR   Ar  244   5.726   6.509   0.306
    1   AR   Ar  245   3.330   1.508   3.338
    1   AR   Ar  246   5.215   5.413  -1.335
    1   AR   Ar  247   6.650   3.612   1.275
    1   AR   Ar  248   5.808   5.071  -0.488
    1   AR   Ar  249   3.450   0.632   1.068
    1   AR   Ar  250   5.070   6.524   3.549
    1   AR   Ar  251   5.385   3.751   4.930
    1   AR   Ar  252   2.594   4.875   2.104
    1   AR   Ar  253   5.206   2.553   7.117
    1   AR   Ar  254   4.027   4.807  13.268
    1   AR   Ar  255   5.131   5.533   9.148
    1   AR   Ar  256   5.920   5.503   3.584
    7.12000  7.12000 12.00000
Argon-slab step 5745
  256
    1   AR   Ar    1   3.974   2.302  -1.559
    1   AR   Ar    2   6.193   0.345   1.173
    1   AR   Ar    3   4.833   3.660  -1.419
    1   AR   Ar    4   2.003   0.969   1.316
    1   AR   Ar    5   6.624   5.551   0.164
    1   AR   Ar    6   1.404   1.049   2.151
    1   AR   Ar    7   5.857   4.728   2.924
    1   AR   Ar    8   6.029   2.891  -0.238
    1   AR   Ar    9   0.139   5.777   4.894
    1   AR   Ar   10   5.859   4.562   5.526
    1   AR   Ar   11   0.831   6.326   5.363
    1   AR   Ar   12   6.945   1.909   4.504
    1   AR   Ar   13   6.682   6.923   5.288
    1   AR   Ar   14   4.417   1.249   6.054
    1   AR   Ar   15   2.705   5.315   9.389
    1   AR   Ar   16   0.591   6.605   6.448
    1   AR   Ar   17   5.556   3.593   0.547
    1   AR   Ar   18   6.886   3.841  -2.743
    1   AR   Ar   19   4.996   4.806   0.366
    1   AR   Ar   20   6.697   3.029  -1.877
    1   AR   Ar   21   2.396   1.097   2.478
    1   AR   Ar   22   5.144   0.336   1.983
    1   AR   Ar   23   0.583   5.695   0.107
    1   AR   Ar   24   5.810   2.743   4.149
    1   AR   Ar   25   1.067   3.574   5.647
    1   AR   Ar   26   5.943   5.841   4.773
    1   AR   Ar   27   0.844   0.605   1.249
    1   AR   Ar   28   2.732   2.285   3.945
    1   AR   Ar   29   5.518   6.830   7.222
    1   AR   Ar   30   6.163   0.494   3.341
    1   AR   Ar   31   1.072   1.101   6.725
    1   AR   Ar   32   1.118   2.104   6.245
    1   AR   Ar   33   5.755   5.544   0.669
    1   AR   Ar   34   1.777   5.279   3.279
    1   AR   Ar   35   5.861   5.567   2.398
    1   AR   Ar   36   3.536   1.472  -3.799
    1   AR   Ar   37   4.761   3.591   1.139
    1   AR   Ar   38   6.482   4.625   4.328
    1   AR   Ar   39   0.493   2.846   4.184
    1   AR   Ar   40   0.520   4.057   2.060
    1   AR   Ar   41   0.702   2.026   3.521
    1   AR   Ar   42   5.091   5.140   4.871
    1   AR   Ar   43   0.049   3.187   6.515
    1   AR   Ar   44   1.447   4.038   3.209
    1   AR   Ar   45   2.063   3.825   5.359
    1   AR   Ar   46   6.160   5.285   7.088
    1   AR   Ar   47   2.843   3.927   7.151
    1   AR   Ar   48   0.404   3.518   7.715
    1   AR   Ar   49   7.082   1.932   0.576
    1   AR   Ar   50   2.893   4.864   0.509
    1   AR   Ar   51   5.434   3.703   2.975
    1   AR   Ar   52   5.821   3.505  -2.123
    1   AR   Ar   53   4.423   0.079   2.997
    1   AR   Ar   54   6.143   6.493   2.921
    1   AR   Ar   55   6.884   5.032   2.408
    1   AR   Ar   56   5.843   1.662   3.705
    1   AR   Ar   57   4.692   4.896   2.362
    1   AR   Ar   58   1.352   3.374   4.585
    1   AR   Ar   59   3.787   5.299   5.580
    1   AR   Ar   60   0.963   5.165   2.439
    1   AR   Ar   61   6.813   4.646   6.545
    1   AR   Ar   62   6.876   4.022   5.606
    1   AR   Ar   63   1.815   1.432   7.551
    1   AR   Ar   64   0.738   4.908   4.133
    1   AR   Ar   65   4.072   1.374   2.499
    1   AR   Ar   66   1.234   2.045   0.719
    1   AR   Ar   67   4.470   1.204  -0.543
    1   AR   Ar   68   6.883   0.741   0.587
    1   AR   Ar   69   2.400   2.714   0.977
    1   AR   Ar   70   0.147   1.154   1.806
    1   AR   Ar   71   3.396   0.512   2.857
    1   AR   Ar   72   4.563   1.070   1.469
    1   AR   Ar   73   3.053   0.243   4.329
    1   AR   Ar   74   1.189   0.715   3.144
    1   AR   Ar   75   2.668   0.796   5.406
    1   AR   Ar   76   2.839   0.282   2.060
    1   AR   Ar   77   1.082   5.604   6.421
    1   AR   Ar   78   0.091   5.737   6.391
    1   AR   Ar   79   3.699   6.818   5.521
    1   AR   Ar   80   3.450   4.063   5.566
    1   AR   Ar   81   1.333   6.430   1.892
    1   AR   Ar   82   6.880   5.020   1.264
    1   AR   Ar   83   1.133   3.149   1.369
    1   AR   Ar   84   1.018   4.391   1.138
    1   AR   Ar   85   0.182   2.508  -0.268
    1   AR   Ar   86   1.406   5.674   0.866
    1   AR   Ar   87   3.861   2.843   2.456
    1   AR   Ar   88   3.782   5.259   1.775
    1   AR   Ar   89   5.897   2.616   1.005
    1   AR   Ar   90   3.384   1.135   6.333
    1   AR   Ar   91   1.530   1.772   3.069
    1   AR   Ar   92   3.750   2.882   1.219
    1   AR   Ar   93   1.000   0.984   5.519
    1   AR   Ar   94   0.368   7.054   9.410
    1   AR   Ar   95   5.136   0.929   6.923
    1   AR   Ar   96   1.855   0.127   5.491
    1   AR   Ar   97   4.584   1.537  -1.768
    1   AR   Ar   98   1.590   4.470   4.267
    1   AR   Ar   99   5.698   6.480  -1.068
    1   AR   Ar  100   6.360   2.516  -2.939
    1   AR   Ar  101   4.013   5.949   3.121
    1   AR   Ar  102   4.091   1.945   1.656
    1   AR   Ar  103   1.781   4.177   2.185
    1   AR   Ar  104   3.109   0.386  -0.487
    1   AR   Ar  105   2.989   2.318   2.383
    1   AR   Ar  106   4.013   0.958   3.918
    1   AR   Ar  107   0.646   4.778   5.524
    1   AR   Ar  108   2.509   0.496   3.453
    1   AR   Ar  109   2.532   4.924   4.677
    1   AR   Ar  110   2.050   2.442   5.123
    1   AR   Ar  111   4.250   4.112   6.849
    1   AR   Ar  112   6.654   6.496   7.022
    1   AR   Ar  113   6.741   5.984  -1.588
    1   AR   Ar  114   2.423   6.993   0.118
    1   AR   Ar  115   6.819   4.465  -0.517
    1   AR   Ar  116   5.595   1.157   0.700
    1   AR   Ar  117   0.271   4.169   3.392
    1   AR   Ar  118   2.165   6.586   3.876
    1   AR   Ar  119   1.681   3.185   2.710
    1   AR   Ar  120   1.969   6.863   2.789
    1   AR   Ar  121   5.291   4.096   6.935
    1   AR   Ar  122   2.904   5.150   3.347
    1   AR   Ar  123   3.401   2.305   5.039
    1   AR   Ar  124   0.487   5.896   1.408
    1   AR   Ar  125   6.443   3.908   3.485
    1   AR   Ar  126   0.030   1.220   7.266
    1   AR   Ar  127   4.567   3.366   5.621
    1   AR   Ar  128   0.779   4.096   6.551
    1   AR   Ar  129   1.442   5.531   4.588
    1   AR   Ar  130   5.439   0.391  -4.426
    1   AR   Ar  131   4.035   6.549  -0.110
    1   AR   Ar  132   1.806   2.316   1.866
    1   AR   Ar  133   4.209   0.153   4.814
    1   AR   Ar  134   3.263   1.182   4.612
    1   AR   Ar  135   5.818   0.223   5.488
    1   AR   Ar  136   5.219   6.445   2.386
    1   AR   Ar  137   2.800   5.055   5.916
    1   AR   Ar  138   5.859   1.302   6.024
    1   AR   Ar  139   6.166   2.676   5.249
    1   AR   Ar  140   5.034   6.590   4.782
    1   AR   Ar  141   3.561   5.338   4.468
    1   AR   Ar  142   3.942   6.012   8.717
    1   AR   Ar  143   4.836   6.360   8.220
    1   AR   Ar  144   0.121   2.975   5.423
    1   AR   Ar  145   4.834   4.568  -2.063
    1   AR   Ar  146   4.093   2.456   3.902
    1   AR   Ar  147   4.519   3.954  -0.258
    1   AR   Ar  148   1.952   5.775  -0.276
    1   AR   Ar  149   6.362   1.888  -0.233
    1   AR   Ar  150   0.624   1.954   2.407
    1   AR   Ar  151   2.948   3.338   1.806
    1   AR   Ar  152   0.868   1.764  -0.216
    1   AR   Ar  153   5.323   1.047   3.104
    1   AR   Ar  154   5.204   3.433   3.873
    1   AR   Ar  155   6.028   3.456   5.961
    1   AR   Ar  156   3.278   4.062   3.037
    1   AR   Ar  157   3.497   6.169   6.323
    1   AR   Ar  158   1.126   2.669   7.360
    1   AR   Ar  159   4.709   0.265   5.740
    1   AR   Ar  160   0.765   1.613   4.593
    1   AR   Ar  161   5.134   4.446   3.928
    1   AR   Ar  162   3.944   5.599  -1.454
    1   AR   Ar  163   6.517   3.964   2.247
    1   AR   Ar  164   2.411   5.924   2.533
    1   AR   Ar  165   3.607   4.119   1.042
    1   AR   Ar  166   3.035   3.231   5.202
    1   AR   Ar  167   6.002   7.084   4.424
    1   AR   Ar  168   5.756   4.676  -2.586
    1   AR   Ar  169   4.315   3.593   3.359
    1   AR   Ar  170   2.490   2.539   6.933
    1   AR   Ar  171   4.591   5.511   4.007
    1   AR   Ar  172   4.092   3.198   4.686
    1   AR   Ar  173   0.654   1.698   7.904
    1   AR   Ar  174   2.917   6.165   4.618
    1   AR   Ar  175   0.618   0.144   7.394
    1   AR   Ar  176   3.433   3.028   3.352
    1   AR   Ar  177   0.064   4.088  -1.733
    1   AR   Ar  178   2.500   6.889   1.282
    1   AR   Ar  179   3.285   6.234   0.869
    1   AR   Ar  180   4.764   6.028  -7.145
    1   AR   Ar  181   6.825   6.014   2.101
    1   AR   Ar  182   0.837   6.935   2.863
    1   AR   Ar  183   5.084   5.630   1.412
    1   AR   Ar  184   3.994   5.280   0.291
    1   AR   Ar  185   3.253   4.219   4.238
    1   AR   Ar  186   3.191   6.688   3.517
    1   AR   Ar  187   4.170   6.576   3.938
    1   AR   Ar  188   3.203   1.450   1.731
    1   AR   Ar  189   6.153   2.688   6.719
    1   AR   Ar  190   1.857   0.451   4.390
    1   AR   Ar  191   4.234   5.989   4.899
    1   AR   Ar  192   3.586   3.305   6.676
    1   AR   Ar  193   3.375   6.408   1.816
    1   AR   Ar  194   4.955   5.961  -0.054
    1   AR   Ar  195   6.365   1.570   1.363
    1   AR   Ar  196   5.048   6.794   1.104
    1   AR   Ar  197   4.323   2.720   0.267
    1   AR   Ar  198   6.890   6.445   0.760
    1   AR   Ar  199   0.038   0.230   2.274
    1   AR   Ar  200   5.255   2.223   0.166
    1   AR   Ar  201   6.976   5.166   3.425
    1   AR   Ar  202   4.980   0.375   3.877
    1   AR   Ar  203   7.061   7.081   3.775
    1   AR   Ar  204   5.132   5.068   7.841
    1   AR   Ar  205   5.331   1.622   2.129
    1   AR   Ar  206   6.334   0.340   6.572
    1   AR   Ar  207   0.507   4.021   4.768
    1   AR   Ar  208   1.066   6.050   3.664
    1   AR   Ar  209   5.301   2.698  -1.795
    1   AR   Ar  210   2.150   1.997  -0.067
    1   AR   Ar  211   6.794   3.000   0.447
    1   AR   Ar  212   6.135   4.553   0.512
    1   AR   Ar  213   4.077   1.399   0.373
    1   AR   Ar  214   5.893   4.924   1.565
    1   AR   Ar  215   0.470   2.978   2.694
    1   AR   Ar  216   2.270   3.033  -0.552
    1   AR   Ar  217   4.911   2.123   4.380
    1   AR   Ar  218   4.654   2.207   5.304
    1   AR   Ar  219   4.687   3.807   2.278
    1   AR   Ar  220   4.617   4.748   1.398
    1   AR   Ar  221   6.695   6.105   4.030
    1   AR   Ar  222   5.259   6.480   5.937
    1   AR   Ar  223   0.010   0.980   6.171
    1   AR   Ar  224   4.815   1.209   4.986
    1   AR   Ar  225   6.326   2.887   2.724
    1   AR   Ar  226   2.581   3.519   4.015
    1   AR   Ar  227   1.416   2.374   4.154
    1   AR   Ar  228   6.179   0.723   2.155
    1   AR   Ar  229   5.988   3.896  -0.734
    1   AR   Ar  230   4.218   4.662   3.301
    1   AR   Ar  231   4.810   2.463   3.173
    1   AR   Ar  232   5.605   3.455   1.916
    1   AR   Ar  233   6.980   1.553   3.065
    1   AR   Ar  234   6.681   3.534   4.506
    1   AR   Ar  235   6.727   0.813   4.385
    1   AR   Ar  236   4.361   4.268   4.650
    1   AR   Ar  237   4.497   1.788   7.114
    1   AR   Ar  238   4.630   4.521   5.673
    1   AR   Ar  239   1.252   4.558  10.141
    1   AR   Ar  240   1.730   3.075   6.362
    1   AR   Ar  241   0.634   6.635  -0.464
    1   AR   Ar  242   6.052   6.587   1.714
    1   AR   Ar  243   4.252   6.151   2.105
    1   AR   Ar  244   5.695   6.517   0.344
    1   AR   Ar  245   3.353   1.518   3.329
    1   AR   Ar  246   5.224   5.431  -1.320
    1   AR   Ar  247   6.626   3.640   1.285
    1   AR   Ar  248   5.819   5.071  -0.505
    1   AR   Ar  249   3.475   0.604   1.077
    1   AR   Ar  250   5.069   6.549   3.506
    1   AR   Ar  251   5.375   3.737   4.908
    1   AR   Ar  252   2.609   4.875   2.069
    1   AR   Ar  253   5.199   2.505   7.140
    1   AR   Ar  254   4.025   4.794  13.274
    1   AR   Ar  255   5.151   5.536   9.135
    1   AR   Ar  256   5.907   5.490   3.553
    7.12000  7.12000 12.00000
Argon-slab step 5750
  256
    1   AR   Ar    1   3.981   2.312  -1.539
    1   AR   Ar    2   6.182   0.328   1.159
    1   AR   Ar    3   4.806   3.673  -1.422
    1   AR   Ar    4   1.987   0.974   1.282
    1   AR   Ar    5   6.635   5.544   0.171
    1   AR   Ar    6   1.439   1.022   2.180
    1   AR   Ar    7   5.832   4.726   2.908
    1   AR   Ar    8   6.033   2.885  -0.236
    1   AR   Ar    9   0.147   5.778   4.879
    1   AR   Ar   10   5.875   4.592   5.500
    1   AR   Ar   11   0.820   6.326   5.310
    1   AR   Ar   12   6.902   1.917   4.501
    1   AR   Ar   13   6.686   6.884   5.300
    1   AR   Ar   14   4.418   1.259   6.070
    1   AR   Ar   15   2.701   5.301   9.389
    1   AR   Ar   16   0.608   6.620   6.463
    1   AR   Ar   17   5.560   3.598   0.519
    1   AR   Ar   18   6.891   3.868  -2.768
    1   AR   Ar   19   4.974   4.845   0.349
    1   AR   Ar   20   6.696   3.027  -1.924
    1   AR   Ar   21   2.399   1.074   2.496
    1   AR   Ar   22   5.129   0.338   1.997
    1   AR   Ar   23   0.597   5.690   0.090
    1   AR   Ar   24   5.820   2.728   4.150
    1   AR   Ar   25   1.060   3.577   5.628
    1   AR   Ar   26   5.942   5.834   4.787
    1   AR   Ar   27   0.828   0.618   1.270
    1   AR   Ar   28   2.765   2.284   3.950
    1   AR   Ar   29   5.504   6.816   7.212
    1   AR   Ar   30   6.133   0.509   3.351
    1   AR   Ar   31   1.088   1.100   6.729
    1   AR   Ar   32   1.125   2.108   6.255
    1   AR   Ar   33   5.708   5.542   0.653
    1   AR   Ar   34   1.764   5.311   3.318
    1   AR   Ar   35   5.860   5.600   2.408
    1   AR   Ar   36   3.559   1.490  -3.806
    1   AR   Ar   37   4.772   3.613   1.141
    1   AR   Ar   38   6.499   4.628   4.338
    1   AR   Ar   39   0.480   2.847   4.157
    1   AR   Ar   40   0.509   4.055   2.082
    1   AR   Ar   41   0.701   2.040   3.551
    1   AR   Ar   42   5.100   5.103   4.881
    1   AR   Ar   43   0.040   3.177   6.474
    1   AR   Ar   44   1.453   4.058   3.195
    1   AR   Ar   45   2.072   3.830   5.357
    1   AR   Ar   46   6.147   5.289   7.077
    1   AR   Ar   47   2.859   3.924   7.155
    1   AR   Ar   48   0.428   3.528   7.678
    1   AR   Ar   49   7.072   1.966   0.583
    1   AR   Ar   50   2.906   4.884   0.560
    1   AR   Ar   51   5.407   3.715   2.952
    1   AR   Ar   52   5.802   3.505  -2.118
    1   AR   Ar   53   4.423   0.093   3.016
    1   AR   Ar   54   6.164   6.467   2.931
    1   AR   Ar   55   6.903   5.041   2.412
    1   AR   Ar   56   5.857   1.670   3.692
    1   AR   Ar   57   4.659   4.903   2.375
    1   AR   Ar   58   1.343   3.379   4.593
    1   AR   Ar   59   3.804   5.271   5.588
    1   AR   Ar   60   0.974   5.150   2.441
    1   AR   Ar   61   6.781   4.663   6.543
    1   AR   Ar   62   6.882   4.038   5.628
    1   AR   Ar   63   1.839   1.433   7.596
    1   AR   Ar   64   0.707   4.926   4.120
    1   AR   Ar   65   4.062   1.362   2.513
    1   AR   Ar   66   1.203   2.060   0.720
    1   AR   Ar   67   4.486   1.209  -0.560
    1   AR   Ar   68   6.888   0.736   0.605
    1   AR   Ar   69   2.390   2.717   1.001
    1   AR   Ar   70   0.148   1.136   1.805
    1   AR   Ar   71   3.402   0.516   2.852
    1   AR   Ar   72   4.549   1.075   1.480
    1   AR   Ar   73   3.076   0.266   4.331
    1   AR   Ar   74   1.212   0.708   3.128
    1   AR   Ar   75   2.695   0.796   5.419
    1   AR   Ar   76   2.851   0.301   2.120
    1   AR   Ar   77   1.101   5.616   6.451
    1   AR   Ar   78   0.063   5.774   6.397
    1   AR   Ar   79   3.708   6.785   5.528
    1   AR   Ar   80   3.409   4.083   5.570
    1   AR   Ar   81   1.351   6.438   1.892
    1   AR   Ar   82   6.899   4.972   1.241
    1   AR   Ar   83   1.188   3.162   1.359
    1   AR   Ar   84   1.025   4.404   1.123
    1   AR   Ar   85   0.160   2.487  -0.245
    1   AR   Ar   86   1.419   5.664   0.874
    1   AR   Ar   87   3.857   2.838   2.438
    1   AR   Ar   88   3.817   5.281   1.772
    1   AR   Ar   89   5.892   2.620   1.009
    1   AR   Ar   90   3.395   1.133   6.362
    1   AR   Ar   91   1.520   1.791   3.064
    1   AR   Ar   92   3.761   2.882   1.241
    1   AR   Ar   93   0.986   0.981   5.516
    1   AR   Ar   94   0.391   7.066   9.413
    1   AR   Ar   95   5.109   0.901   6.930
    1   AR   Ar   96   1.851   0.157   5.480
    1   AR   Ar   97   4.608   1.511  -1.766
    1   AR   Ar   98   1.595   4.448   4.258
    1   AR   Ar   99   5.694   6.471  -1.075
    1   AR   Ar  100   6.375   2.481  -2.943
    1   AR   Ar  101   3.978   5.891   3.114
    1   AR   Ar  102   4.082   1.956   1.624
    1   AR   Ar  103   1.771   4.145   2.165
    1   AR   Ar  104   3.110   0.408  -0.479
    1   AR   Ar  105   2.970   2.353   2.421
    1   AR   Ar  106   3.991   0.961   3.911
    1   AR   Ar  107   0.674   4.754   5.517
    1   AR   Ar  108   2.501   0.520   3.430
    1   AR   Ar  109   2.512   4.911   4.673
    1   AR   Ar  110   2.079   2.469   5.120
    1   AR   Ar  111   4.242   4.105   6.831
    1   AR   Ar  112   6.681   6.493   7.029
    1   AR   Ar  113   6.726   6.006  -1.592
    1   AR   Ar  114   2.421   6.982   0.125
    1   AR   Ar  115   6.782   4.476  -0.510
    1   AR   Ar  116   5.610   1.170   0.723
    1   AR   Ar  117   0.300   4.181   3.427
    1   AR   Ar  118   2.173   6.574   3.865
    1   AR   Ar  119   1.702   3.163   2.710
    1   AR   Ar  120   1.938   6.914   2.820
    1   AR   Ar  121   5.306   4.113   6.973
    1   AR   Ar  122   2.897   5.136   3.348
    1   AR   Ar  123   3.398   2.319   5.032
    1   AR   Ar  124   0.472   5.928   1.403
    1   AR   Ar  125   6.424   3.943   3.474
    1   AR   Ar  126   0.033   1.226   7.221
    1   AR   Ar  127   4.537   3.356   5.635
    1   AR   Ar  128   0.808   4.130   6.609
    1   AR   Ar  129   1.435   5.553   4.601
    1   AR   Ar  130   5.473   0.405  -4.414
    1   AR   Ar  131   4.055   6.599  -0.104
    1   AR   Ar  132   1.789   2.297   1.876
    1   AR   Ar  133   4.218   0.174   4.811
    1   AR   Ar  134   3.275   1.184   4.629
    1   AR   Ar  135   5.823   0.258   5.480
    1   AR   Ar  136   5.232   6.442   2.372
    1   AR   Ar  137   2.778   5.039   5.918
    1   AR   Ar  138   5.848   1.310   6.039
    1   AR   Ar  139   6.169   2.680   5.258
    1   AR   Ar  140   5.040   6.584   4.796
    1   AR   Ar  141   3.571   5.339   4.459
    1   AR   Ar  142   3.945   6.003   8.718
    1   AR   Ar  143   4.895   6.357   8.221
    1   AR   Ar  144   0.146   2.999   5.424
    1   AR   Ar  145   4.825   4.578  -2.058
    1   AR   Ar  146   4.103   2.427   3.892
    1   AR   Ar  147   4.524   3.947  -0.245
    1   AR   Ar  148   1.938   5.773  -0.292
    1   AR   Ar  149   6.393   1.891  -0.282
    1   AR   Ar  150   0.603   1.979   2.406
    1   AR   Ar  151   2.952   3.331   1.817
    1   AR   Ar  152   0.858   1.750  -0.196
    1   AR   Ar  153   5.324   1.076   3.101
    1   AR   Ar  154   5.186   3.410   3.867
    1   AR   Ar  155   6.040   3.480   5.953
    1   AR   Ar  156   3.307   4.072   3.060
    1   AR   Ar  157   3.499   6.187   6.303
    1   AR   Ar  158   1.171   2.656   7.358
    1   AR   Ar  159   4.738   0.276   5.765
    1   AR   Ar  160   0.788   1.630   4.627
    1   AR   Ar  161   5.122   4.465   3.947
    1   AR   Ar  162   3.914   5.577  -1.448
    1   AR   Ar  163   6.511   3.973   2.245
    1   AR   Ar  164   2.412   5.904   2.529
    1   AR   Ar  165   3.598   4.130   1.012
    1   AR   Ar  166   3.034   3.247   5.210
    1   AR   Ar  167   6.006   7.092   4.430
    1   AR   Ar  168   5.763   4.687  -2.599
    1   AR   Ar  169   4.318   3.598   3.332
    1   AR   Ar  170   2.445   2.528   6.955
    1   AR   Ar  171   4.580   5.528   3.989
    1   AR   Ar  172   4.080   3.177   4.694
    1   AR   Ar  173   0.635   1.726   7.905
    1   AR   Ar  174   2.921   6.165   4.609
    1   AR   Ar  175   0.595   0.174   7.397
    1   AR   Ar  176   3.442   3.004   3.351
    1   AR   Ar  177   0.076   4.063  -1.736
    1   AR   Ar  178   2.480   6.851   1.284
    1   AR   Ar  179   3.290   6.211   0.839
    1   AR   Ar  180   4.762   6.034  -7.166
    1   AR   Ar  181   6.851   6.054   2.130
    1   AR   Ar  182   0.861   6.923   2.872
    1   AR   Ar  183   5.069   5.640   1.438
    1   AR   Ar  184   3.984   5.268   0.288
    1   AR   Ar  185   3.268   4.236   4.235
    1   AR   Ar  186   3.187   6.689   3.509
    1   AR   Ar  187   4.158   6.568   3.908
    1   AR   Ar  188   3.226   1.444   1.698
    1   AR   Ar  189   6.169   2.681   6.694
    1   AR   Ar  190   1.811   0.438   4.344
    1   AR   Ar  191   4.199   5.946   4.909
    1   AR   Ar  192   3.594   3.270   6.690
    1   AR   Ar  193   3.363   6.405   1.813
    1   AR   Ar  194   4.938   5.951  -0.032
    1   AR   Ar  195   6.367   1.604   1.349
    1   AR   Ar  196   5.035   6.814   1.097
    1   AR   Ar  197   4.321   2.704   0.261
    1   AR   Ar  198   6.872   6.444   0.796
    1   AR   Ar  199   0.023   0.233   2.277
    1   AR   Ar  200   5.255   2.201   0.186
    1   AR   Ar  201   6.980   5.191   3.430
    1   AR   Ar  202   4.981   0.415   3.888
    1   AR   Ar  203   7.075   7.075   3.749
    1   AR   Ar  204   5.160   5.085   7.801
    1   AR   Ar  205   5.324   1.625   2.172
    1   AR   Ar  206   6.352   0.359   6.569
    1   AR   Ar  207   0.536   4.028   4.723
    1   AR   Ar  208   1.029   6.048   3.648
    1   AR   Ar  209   5.291   2.702  -1.792
    1   AR   Ar  210   2.192   2.028  -0.071
    1   AR   Ar  211   6.816   3.011   0.440
    1   AR   Ar  212   6.126   4.569   0.475
    1   AR   Ar  213   4.075   1.386   0.350
    1   AR   Ar  214   5.876   4.879   1.567
    1   AR   Ar  215   0.457   3.007   2.658
    1   AR   Ar  216   2.279   3.039  -0.560
    1   AR   Ar  217   4.896   2.113   4.378
    1   AR   Ar  218   4.667   2.226   5.278
    1   AR   Ar  219   4.673   3.834   2.316
    1   AR   Ar  220   4.640   4.736   1.389
    1   AR   Ar  221   6.682   6.109   3.980
    1   AR   Ar  222   5.264   6.511   5.934
    1   AR   Ar  223   0.031   0.960   6.174
    1   AR   Ar  224   4.810   1.182   4.978
    1   AR   Ar  225   6.350   2.887   2.727
    1   AR   Ar  226   2.593   3.515   3.997
    1   AR   Ar  227   1.428   2.376   4.164
    1   AR   Ar  228   6.183   0.734   2.180
    1   AR   Ar  229   5.995   3.904  -0.715
    1   AR   Ar  230   4.216   4.636   3.290
    1   AR   Ar  231   4.811   2.459   3.149
    1   AR   Ar  232   5.609   3.454   1.948
    1   AR   Ar  233   7.016   1.526   3.022
    1   AR   Ar  234   6.662   3.557   4.517
    1   AR   Ar  235   6.753   0.835   4.392
    1   AR   Ar  236   4.353   4.268   4.653
    1   AR   Ar  237   4.468   1.806   7.086
    1   AR   Ar  238   4.591   4.552   5.709
    1   AR   Ar  239   1.250   4.580  10.167
    1   AR   Ar  240   1.750   3.073   6.373
    1   AR   Ar  241   0.605   6.655  -0.480
    1   AR   Ar  242   6.066   6.569   1.693
    1   AR   Ar  243   4.270   6.152   2.098
    1   AR   Ar  244   5.674   6.533   0.382
    1   AR   Ar  245   3.372   1.530   3.319
    1   AR   Ar  246   5.231   5.450  -1.307
    1   AR   Ar  247   6.600   3.668   1.291
    1   AR   Ar  248   5.831   5.069  -0.518
    1   AR   Ar  249   3.500   0.575   1.087
    1   AR   Ar  250   5.081   6.564   3.458
    1   AR   Ar  251   5.365   3.723   4.888
    1   AR   Ar  252   2.627   4.877   2.034
    1   AR   Ar  253   5.195   2.495   7.145
    1   AR   Ar  254   4.023   4.782  13.280
    1   AR   Ar  255   5.170   5.539   9.121
    1   AR   Ar  256   5.894   5.485   3.529
    7.12000  7.12000 12.00000
Argon-slab step 5755
  256
    1   AR   Ar    1   3.986   2.325  -1.517
    1   AR   Ar    2   6.161   0.308   1.150
    1   AR   Ar    3   4.781   3.686  -1.424
    1   AR   Ar    4   1.974   0.979   1.247
    1   AR   Ar    5   6.648   5.536   0.178
    1   AR   Ar    6   1.466   0.998   2.204
    1   AR   Ar    7   5.806   4.707   2.888
    1   AR   Ar    8   6.034   2.881  -0.237
    1   AR   Ar    9   0.144   5.769   4.857
    1   AR   Ar   10   5.891   4.619   5.474
    1   AR   Ar   11   0.819   6.334   5.265
    1   AR   Ar   12   6.856   1.929   4.497
    1   AR   Ar   13   6.695   6.850   5.308
    1   AR   Ar   14   4.421   1.272   6.086
    1   AR   Ar   15   2.697   5.286   9.389
    1   AR   Ar   16   0.628   6.642   6.478
    1   AR   Ar   17   5.571   3.603   0.485
    1   AR   Ar   18   6.895   3.895  -2.794
    1   AR   Ar   19   4.954   4.881   0.330
    1   AR   Ar   20   6.700   3.024  -1.969
    1   AR   Ar   21   2.410   1.068   2.538
    1   AR   Ar   22   5.116   0.341   2.012
    1   AR   Ar   23   0.612   5.686   0.075
    1   AR   Ar   24   5.840   2.703   4.156
    1   AR   Ar   25   1.051   3.581   5.611
    1   AR   Ar   26   5.941   5.827   4.800
    1   AR   Ar   27   0.817   0.626   1.287
    1   AR   Ar   28   2.799   2.284   3.956
    1   AR   Ar   29   5.490   6.804   7.200
    1   AR   Ar   30   6.108   0.520   3.364
    1   AR   Ar   31   1.067   1.098   6.745
    1   AR   Ar   32   1.125   2.110   6.253
    1   AR   Ar   33   5.664   5.537   0.637
    1   AR   Ar   34   1.751   5.342   3.358
    1   AR   Ar   35   5.860   5.635   2.412
    1   AR   Ar   36   3.581   1.507  -3.812
    1   AR   Ar   37   4.770   3.634   1.137
    1   AR   Ar   38   6.516   4.633   4.348
    1   AR   Ar   39   0.461   2.853   4.135
    1   AR   Ar   40   0.499   4.054   2.105
    1   AR   Ar   41   0.685   2.052   3.580
    1   AR   Ar   42   5.104   5.066   4.889
    1   AR   Ar   43   0.031   3.169   6.434
    1   AR   Ar   44   1.456   4.082   3.186
    1   AR   Ar   45   2.084   3.835   5.353
    1   AR   Ar   46   6.132   5.296   7.068
    1   AR   Ar   47   2.874   3.923   7.158
    1   AR   Ar   48   0.453   3.538   7.639
    1   AR   Ar   49   7.063   1.995   0.598
    1   AR   Ar   50   2.920   4.905   0.612
    1   AR   Ar   51   5.392   3.729   2.932
    1   AR   Ar   52   5.783   3.516  -2.117
    1   AR   Ar   53   4.420   0.110   3.030
    1   AR   Ar   54   6.186   6.444   2.945
    1   AR   Ar   55   6.918   5.039   2.403
    1   AR   Ar   56   5.876   1.684   3.687
    1   AR   Ar   57   4.630   4.916   2.396
    1   AR   Ar   58   1.338   3.392   4.591
    1   AR   Ar   59   3.817   5.243   5.597
    1   AR   Ar   60   0.984   5.134   2.444
    1   AR   Ar   61   6.754   4.666   6.537
    1   AR   Ar   62   6.890   4.054   5.648
    1   AR   Ar   63   1.861   1.436   7.641
    1   AR   Ar   64   0.668   4.949   4.106
    1   AR   Ar   65   4.053   1.348   2.527
    1   AR   Ar   66   1.174   2.078   0.727
    1   AR   Ar   67   4.505   1.214  -0.584
    1   AR   Ar   68   6.902   0.738   0.619
    1   AR   Ar   69   2.379   2.720   1.026
    1   AR   Ar   70   0.144   1.126   1.807
    1   AR   Ar   71   3.425   0.527   2.868
    1   AR   Ar   72   4.538   1.074   1.488
    1   AR   Ar   73   3.097   0.277   4.331
    1   AR   Ar   74   1.238   0.708   3.121
    1   AR   Ar   75   2.723   0.795   5.433
    1   AR   Ar   76   2.856   0.303   2.155
    1   AR   Ar   77   1.124   5.628   6.481
    1   AR   Ar   78   0.027   5.803   6.401
    1   AR   Ar   79   3.715   6.755   5.532
    1   AR   Ar   80   3.409   4.073   5.594
    1   AR   Ar   81   1.350   6.402   1.897
    1   AR   Ar   82   6.919   4.924   1.219
    1   AR   Ar   83   1.243   3.174   1.351
    1   AR   Ar   84   1.030   4.417   1.110
    1   AR   Ar   85   0.159   2.478  -0.263
    1   AR   Ar   86   1.419   5.649   0.870
    1   AR   Ar   87   3.863   2.835   2.414
    1   AR   Ar   88   3.846   5.301   1.768
    1   AR   Ar   89   5.889   2.626   1.014
    1   AR   Ar   90   3.405   1.130   6.390
    1   AR   Ar   91   1.513   1.796   3.065
    1   AR   Ar   92   3.772   2.885   1.263
    1   AR   Ar   93   0.973   0.977   5.514
    1   AR   Ar   94   0.408   7.077   9.413
    1   AR   Ar   95   5.084   0.873   6.935
    1   AR   Ar   96   1.829   0.194   5.474
    1   AR   Ar   97   4.635   1.483  -1.764
    1   AR   Ar   98   1.606   4.423   4.251
    1   AR   Ar   99   5.689   6.460  -1.081
    1   AR   Ar  100   6.391   2.447  -2.946
    1   AR   Ar  101   3.943   5.830   3.107
    1   AR   Ar  102   4.079   1.978   1.593
    1   AR   Ar  103   1.759   4.113   2.143
    1   AR   Ar  104   3.123   0.441  -0.484
    1   AR   Ar  105   2.945   2.384   2.460
    1   AR   Ar  106   3.975   0.960   3.903
    1   AR   Ar  107   0.702   4.730   5.510
    1   AR   Ar  108   2.491   0.545   3.409
    1   AR   Ar  109   2.491   4.900   4.670
    1   AR   Ar  110   2.109   2.497   5.116
    1   AR   Ar  111   4.233   4.100   6.811
    1   AR   Ar  112   6.667   6.479   7.025
    1   AR   Ar  113   6.710   6.028  -1.595
    1   AR   Ar  114   2.450   7.004   0.131
    1   AR   Ar  115   6.752   4.494  -0.501
    1   AR   Ar  116   5.623   1.184   0.745
    1   AR   Ar  117   0.336   4.192   3.461
    1   AR   Ar  118   2.178   6.563   3.855
    1   AR   Ar  119   1.722   3.136   2.708
    1   AR   Ar  120   1.909   6.966   2.849
    1   AR   Ar  121   5.323   4.130   7.011
    1   AR   Ar  122   2.891   5.122   3.349
    1   AR   Ar  123   3.398   2.326   5.022
    1   AR   Ar  124   0.461   5.957   1.396
    1   AR   Ar  125   6.398   3.977   3.463
    1   AR   Ar  126   0.034   1.229   7.173
    1   AR   Ar  127   4.507   3.348   5.651
    1   AR   Ar  128   0.836   4.163   6.666
    1   AR   Ar  129   1.429   5.575   4.614
    1   AR   Ar  130   5.508   0.419  -4.402
    1   AR   Ar  131   4.074   6.650  -0.097
    1   AR   Ar  132   1.771   2.277   1.888
    1   AR   Ar  133   4.229   0.201   4.800
    1   AR   Ar  134   3.289   1.201   4.650
    1   AR   Ar  135   5.821   0.298   5.475
    1   AR   Ar  136   5.245   6.440   2.359
    1   AR   Ar  137   2.730   5.019   5.917
    1   AR   Ar  138   5.837   1.316   6.055
    1   AR   Ar  139   6.173   2.684   5.264
    1   AR   Ar  140   5.049   6.580   4.809
    1   AR   Ar  141   3.554   5.341   4.458
    1   AR   Ar  142   3.948   5.994   8.728
    1   AR   Ar  143   4.955   6.353   8.221
    1   AR   Ar  144   0.169   3.024   5.421
    1   AR   Ar  145   4.815   4.589  -2.051
    1   AR   Ar  146   4.101   2.400   3.881
    1   AR   Ar  147   4.531   3.941  -0.230
    1   AR   Ar  148   1.924   5.772  -0.307
    1   AR   Ar  149   6.423   1.891  -0.330
    1   AR   Ar  150   0.594   1.971   2.393
    1   AR   Ar  151   2.956   3.303   1.821
    1   AR   Ar  152   0.852   1.729  -0.179
    1   AR   Ar  153   5.313   1.102   3.090
    1   AR   Ar  154   5.157   3.388   3.868
    1   AR   Ar  155   6.045   3.502   5.950
    1   AR   Ar  156   3.335   4.082   3.084
    1   AR   Ar  157   3.498   6.198   6.289
    1   AR   Ar  158   1.217   2.642   7.354
    1   AR   Ar  159   4.765   0.290   5.788
    1   AR   Ar  160   0.813   1.646   4.661
    1   AR   Ar  161   5.112   4.487   3.963
    1   AR   Ar  162   3.886   5.555  -1.442
    1   AR   Ar  163   6.504   3.987   2.252
    1   AR   Ar  164   2.413   5.883   2.525
    1   AR   Ar  165   3.592   4.141   0.984
    1   AR   Ar  166   3.050   3.254   5.209
    1   AR   Ar  167   6.010   7.099   4.433
    1   AR   Ar  168   5.773   4.697  -2.612
    1   AR   Ar  169   4.321   3.601   3.304
    1   AR   Ar  170   2.401   2.516   6.978
    1   AR   Ar  171   4.569   5.543   3.969
    1   AR   Ar  172   4.075   3.155   4.708
    1   AR   Ar  173   0.619   1.757   7.907
    1   AR   Ar  174   2.925   6.169   4.599
    1   AR   Ar  175   0.604   0.193   7.397
    1   AR   Ar  176   3.436   3.017   3.360
    1   AR   Ar  177   0.086   4.037  -1.737
    1   AR   Ar  178   2.458   6.812   1.285
    1   AR   Ar  179   3.296   6.186   0.797
    1   AR   Ar  180   4.760   6.040  -7.186
    1   AR   Ar  181   6.878   6.095   2.162
    1   AR   Ar  182   0.880   6.903   2.879
    1   AR   Ar  183   5.054   5.660   1.471
    1   AR   Ar  184   3.973   5.258   0.287
    1   AR   Ar  185   3.290   4.257   4.234
    1   AR   Ar  186   3.182   6.691   3.502
    1   AR   Ar  187   4.145   6.563   3.886
    1   AR   Ar  188   3.241   1.433   1.668
    1   AR   Ar  189   6.186   2.674   6.668
    1   AR   Ar  190   1.766   0.424   4.297
    1   AR   Ar  191   4.171   5.914   4.923
    1   AR   Ar  192   3.601   3.233   6.702
    1   AR   Ar  193   3.339   6.408   1.818
    1   AR   Ar  194   4.917   5.937  -0.012
    1   AR   Ar  195   6.370   1.638   1.337
    1   AR   Ar  196   5.016   6.834   1.099
    1   AR   Ar  197   4.322   2.678   0.255
    1   AR   Ar  198   6.850   6.444   0.832
    1   AR   Ar  199   0.008   0.231   2.282
    1   AR   Ar  200   5.257   2.177   0.206
    1   AR   Ar  201   6.983   5.217   3.439
    1   AR   Ar  202   4.983   0.456   3.904
    1   AR   Ar  203   7.089   7.071   3.721
    1   AR   Ar  204   5.179   5.100   7.769
    1   AR   Ar  205   5.317   1.627   2.213
    1   AR   Ar  206   6.368   0.378   6.566
    1   AR   Ar  207   0.561   4.036   4.678
    1   AR   Ar  208   0.992   6.046   3.632
    1   AR   Ar  209   5.276   2.699  -1.786
    1   AR   Ar  210   2.232   2.060  -0.074
    1   AR   Ar  211   6.833   3.030   0.445
    1   AR   Ar  212   6.118   4.584   0.438
    1   AR   Ar  213   4.071   1.380   0.340
    1   AR   Ar  214   5.857   4.833   1.570
    1   AR   Ar  215   0.443   3.038   2.623
    1   AR   Ar  216   2.253   3.046  -0.571
    1   AR   Ar  217   4.898   2.097   4.353
    1   AR   Ar  218   4.672   2.251   5.278
    1   AR   Ar  219   4.652   3.861   2.338
    1   AR   Ar  220   4.662   4.712   1.370
    1   AR   Ar  221   6.669   6.112   3.930
    1   AR   Ar  222   5.271   6.539   5.930
    1   AR   Ar  223   0.054   0.941   6.174
    1   AR   Ar  224   4.804   1.152   4.969
    1   AR   Ar  225   6.374   2.889   2.730
    1   AR   Ar  226   2.601   3.506   3.978
    1   AR   Ar  227   1.450   2.378   4.177
    1   AR   Ar  228   6.186   0.747   2.207
    1   AR   Ar  229   5.993   3.907  -0.697
    1   AR   Ar  230   4.212   4.615   3.283
    1   AR   Ar  231   4.816   2.456   3.121
    1   AR   Ar  232   5.615   3.452   1.975
    1   AR   Ar  233   7.048   1.497   2.982
    1   AR   Ar  234   6.642   3.577   4.528
    1   AR   Ar  235   6.778   0.856   4.397
    1   AR   Ar  236   4.343   4.268   4.657
    1   AR   Ar  237   4.431   1.817   7.057
    1   AR   Ar  238   4.554   4.581   5.745
    1   AR   Ar  239   1.256   4.564  10.169
    1   AR   Ar  240   1.767   3.072   6.383
    1   AR   Ar  241   0.575   6.673  -0.495
    1   AR   Ar  242   6.077   6.550   1.673
    1   AR   Ar  243   4.300   6.153   2.094
    1   AR   Ar  244   5.665   6.554   0.415
    1   AR   Ar  245   3.386   1.547   3.308
    1   AR   Ar  246   5.237   5.469  -1.295
    1   AR   Ar  247   6.623   3.655   1.276
    1   AR   Ar  248   5.843   5.067  -0.527
    1   AR   Ar  249   3.501   0.557   1.062
    1   AR   Ar  250   5.103   6.572   3.411
    1   AR   Ar  251   5.356   3.710   4.868
    1   AR   Ar  252   2.645   4.879   2.001
    1   AR   Ar  253   5.195   2.513   7.139
    1   AR   Ar  254   4.021   4.769  13.286
    1   AR   Ar  255   5.188   5.543   9.105
    1   AR   Ar  256   5.881   5.490   3.515
    7.12000  7.12000 12.00000
Argon-slab step 5760
  256
    1   AR   Ar    1   3.992   2.339  -1.494
    1   AR   Ar    2   6.136   0.289   1.143
    1   AR   Ar    3   4.757   3.698  -1.426
    1   AR   Ar    4   1.963   0.983   1.211
    1   AR   Ar    5   6.661   5.528   0.184
    1   AR   Ar    6   1.485   0.977   2.216
    1   AR   Ar    7   5.780   4.680   2.862
    1   AR   Ar    8   6.032   2.879  -0.237
    1   AR   Ar    9   0.130   5.750   4.826
    1   AR   Ar   10   5.908   4.645   5.448
    1   AR   Ar   11   0.830   6.352   5.228
    1   AR   Ar   12   6.849   1.921   4.497
    1   AR   Ar   13   6.698   6.857   5.304
    1   AR   Ar   14   4.427   1.287   6.099
    1   AR   Ar   15   2.693   5.273   9.389
    1   AR   Ar   16   0.650   6.669   6.492
    1   AR   Ar   17   5.587   3.608   0.448
    1   AR   Ar   18   6.897   3.920  -2.818
    1   AR   Ar   19   4.934   4.910   0.309
    1   AR   Ar   20   6.705   3.019  -2.015
    1   AR   Ar   21   2.420   1.081   2.583
    1   AR   Ar   22   5.106   0.344   2.030
    1   AR   Ar   23   0.627   5.682   0.061
    1   AR   Ar   24   5.850   2.684   4.166
    1   AR   Ar   25   1.041   3.587   5.597
    1   AR   Ar   26   5.941   5.821   4.811
    1   AR   Ar   27   0.814   0.629   1.299
    1   AR   Ar   28   2.834   2.284   3.962
    1   AR   Ar   29   5.478   6.792   7.187
    1   AR   Ar   30   6.087   0.527   3.379
    1   AR   Ar   31   1.037   1.096   6.764
    1   AR   Ar   32   1.125   2.114   6.251
    1   AR   Ar   33   5.628   5.533   0.624
    1   AR   Ar   34   1.739   5.371   3.397
    1   AR   Ar   35   5.862   5.662   2.409
    1   AR   Ar   36   3.604   1.525  -3.819
    1   AR   Ar   37   4.754   3.651   1.116
    1   AR   Ar   38   6.528   4.641   4.354
    1   AR   Ar   39   0.438   2.868   4.120
    1   AR   Ar   40   0.489   4.054   2.129
    1   AR   Ar   41   0.659   2.056   3.604
    1   AR   Ar   42   5.105   5.030   4.897
    1   AR   Ar   43   0.023   3.164   6.399
    1   AR   Ar   44   1.458   4.109   3.178
    1   AR   Ar   45   2.096   3.841   5.348
    1   AR   Ar   46   6.113   5.307   7.061
    1   AR   Ar   47   2.890   3.921   7.161
    1   AR   Ar   48   0.478   3.547   7.597
    1   AR   Ar   49   7.054   2.017   0.618
    1   AR   Ar   50   2.934   4.929   0.664
    1   AR   Ar   51   5.393   3.742   2.924
    1   AR   Ar   52   5.765   3.536  -2.118
    1   AR   Ar   53   4.414   0.131   3.041
    1   AR   Ar   54   6.210   6.427   2.962
    1   AR   Ar   55   6.926   5.022   2.379
    1   AR   Ar   56   5.901   1.702   3.686
    1   AR   Ar   57   4.606   4.934   2.416
    1   AR   Ar   58   1.338   3.415   4.574
    1   AR   Ar   59   3.820   5.215   5.607
    1   AR   Ar   60   0.994   5.118   2.447
    1   AR   Ar   61   6.732   4.667   6.529
    1   AR   Ar   62   6.902   4.070   5.665
    1   AR   Ar   63   1.882   1.439   7.684
    1   AR   Ar   64   0.629   4.976   4.094
    1   AR   Ar   65   4.048   1.334   2.538
    1   AR   Ar   66   1.147   2.098   0.740
    1   AR   Ar   67   4.527   1.218  -0.613
    1   AR   Ar   68   6.922   0.745   0.630
    1   AR   Ar   69   2.368   2.722   1.051
    1   AR   Ar   70   0.132   1.128   1.812
    1   AR   Ar   71   3.463   0.543   2.904
    1   AR   Ar   72   4.528   1.069   1.495
    1   AR   Ar   73   3.117   0.279   4.329
    1   AR   Ar   74   1.264   0.710   3.126
    1   AR   Ar   75   2.751   0.794   5.449
    1   AR   Ar   76   2.852   0.285   2.164
    1   AR   Ar   77   1.146   5.639   6.509
    1   AR   Ar   78   7.110   5.825   6.401
    1   AR   Ar   79   3.727   6.733   5.523
    1   AR   Ar   80   3.441   4.049   5.635
    1   AR   Ar   81   1.350   6.367   1.902
    1   AR   Ar   82   6.940   4.877   1.196
    1   AR   Ar   83   1.299   3.187   1.343
    1   AR   Ar   84   1.035   4.430   1.099
    1   AR   Ar   85   0.162   2.475  -0.293
    1   AR   Ar   86   1.411   5.630   0.858
    1   AR   Ar   87   3.877   2.835   2.388
    1   AR   Ar   88   3.870   5.318   1.760
    1   AR   Ar   89   5.886   2.632   1.018
    1   AR   Ar   90   3.413   1.126   6.418
    1   AR   Ar   91   1.512   1.798   3.064
    1   AR   Ar   92   3.783   2.894   1.280
    1   AR   Ar   93   0.960   0.973   5.515
    1   AR   Ar   94   0.402   7.084   9.401
    1   AR   Ar   95   5.059   0.845   6.938
    1   AR   Ar   96   1.801   0.232   5.469
    1   AR   Ar   97   4.662   1.454  -1.762
    1   AR   Ar   98   1.616   4.396   4.244
    1   AR   Ar   99   5.690   6.466  -1.078
    1   AR   Ar  100   6.406   2.415  -2.947
    1   AR   Ar  101   3.907   5.767   3.098
    1   AR   Ar  102   4.083   2.004   1.564
    1   AR   Ar  103   1.747   4.082   2.119
    1   AR   Ar  104   3.137   0.476  -0.489
    1   AR   Ar  105   2.915   2.411   2.499
    1   AR   Ar  106   3.963   0.961   3.892
    1   AR   Ar  107   0.730   4.706   5.505
    1   AR   Ar  108   2.481   0.566   3.396
    1   AR   Ar  109   2.472   4.891   4.668
    1   AR   Ar  110   2.139   2.527   5.111
    1   AR   Ar  111   4.224   4.097   6.789
    1   AR   Ar  112   6.640   6.466   7.020
    1   AR   Ar  113   6.692   6.049  -1.597
    1   AR   Ar  114   2.479   7.023   0.139
    1   AR   Ar  115   6.743   4.510  -0.486
    1   AR   Ar  116   5.633   1.197   0.765
    1   AR   Ar  117   0.336   4.222   3.449
    1   AR   Ar  118   2.182   6.551   3.845
    1   AR   Ar  119   1.743   3.106   2.704
    1   AR   Ar  120   1.885   7.017   2.876
    1   AR   Ar  121   5.342   4.147   7.048
    1   AR   Ar  122   2.886   5.108   3.351
    1   AR   Ar  123   3.402   2.325   5.008
    1   AR   Ar  124   0.453   5.983   1.389
    1   AR   Ar  125   6.370   4.009   3.450
    1   AR   Ar  126   0.034   1.231   7.128
    1   AR   Ar  127   4.479   3.342   5.669
    1   AR   Ar  128   0.862   4.195   6.720
    1   AR   Ar  129   1.423   5.597   4.627
    1   AR   Ar  130   5.543   0.434  -4.390
    1   AR   Ar  131   4.092   6.701  -0.090
    1   AR   Ar  132   1.755   2.263   1.896
    1   AR   Ar  133   4.241   0.229   4.785
    1   AR   Ar  134   3.305   1.230   4.673
    1   AR   Ar  135   5.817   0.341   5.471
    1   AR   Ar  136   5.257   6.445   2.345
    1   AR   Ar  137   2.682   4.998   5.914
    1   AR   Ar  138   5.825   1.320   6.070
    1   AR   Ar  139   6.177   2.688   5.268
    1   AR   Ar  140   5.059   6.576   4.821
    1   AR   Ar  141   3.529   5.328   4.448
    1   AR   Ar  142   3.953   5.985   8.737
    1   AR   Ar  143   5.015   6.348   8.222
    1   AR   Ar  144   0.160   3.053   5.396
    1   AR   Ar  145   4.807   4.601  -2.043
    1   AR   Ar  146   4.085   2.374   3.868
    1   AR   Ar  147   4.539   3.934  -0.215
    1   AR   Ar  148   1.909   5.771  -0.320
    1   AR   Ar  149   6.449   1.887  -0.376
    1   AR   Ar  150   0.592   1.965   2.376
    1   AR   Ar  151   2.959   3.275   1.827
    1   AR   Ar  152   0.847   1.703  -0.166
    1   AR   Ar  153   5.292   1.123   3.075
    1   AR   Ar  154   5.125   3.367   3.874
    1   AR   Ar  155   6.032   3.507   5.966
    1   AR   Ar  156   3.359   4.091   3.107
    1   AR   Ar  157   3.495   6.198   6.288
    1   AR   Ar  158   1.263   2.628   7.348
    1   AR   Ar  159   4.788   0.309   5.810
    1   AR   Ar  160   0.836   1.663   4.695
    1   AR   Ar  161   5.106   4.510   3.974
    1   AR   Ar  162   3.859   5.533  -1.436
    1   AR   Ar  163   6.497   4.003   2.267
    1   AR   Ar  164   2.414   5.864   2.522
    1   AR   Ar  165   3.588   4.151   0.957
    1   AR   Ar  166   3.075   3.252   5.200
    1   AR   Ar  167   6.013   7.104   4.434
    1   AR   Ar  168   5.783   4.705  -2.624
    1   AR   Ar  169   4.322   3.597   3.276
    1   AR   Ar  170   2.360   2.501   7.004
    1   AR   Ar  171   4.561   5.557   3.949
    1   AR   Ar  172   4.070   3.133   4.718
    1   AR   Ar  173   0.606   1.788   7.909
    1   AR   Ar  174   2.928   6.175   4.589
    1   AR   Ar  175   0.612   0.213   7.396
    1   AR   Ar  176   3.420   3.052   3.375
    1   AR   Ar  177   0.095   4.010  -1.738
    1   AR   Ar  178   2.435   6.775   1.285
    1   AR   Ar  179   3.302   6.159   0.752
    1   AR   Ar  180   4.758   6.046  -7.207
    1   AR   Ar  181   6.906   6.137   2.197
    1   AR   Ar  182   0.891   6.876   2.884
    1   AR   Ar  183   5.040   5.685   1.508
    1   AR   Ar  184   3.964   5.211   0.269
    1   AR   Ar  185   3.315   4.280   4.233
    1   AR   Ar  186   3.176   6.694   3.492
    1   AR   Ar  187   4.134   6.560   3.869
    1   AR   Ar  188   3.249   1.418   1.641
    1   AR   Ar  189   6.204   2.667   6.641
    1   AR   Ar  190   1.722   0.410   4.249
    1   AR   Ar  191   4.157   5.898   4.940
    1   AR   Ar  192   3.608   3.195   6.712
    1   AR   Ar  193   3.311   6.413   1.826
    1   AR   Ar  194   4.894   5.921   0.006
    1   AR   Ar  195   6.373   1.671   1.328
    1   AR   Ar  196   4.992   6.848   1.105
    1   AR   Ar  197   4.321   2.654   0.249
    1   AR   Ar  198   6.824   6.446   0.867
    1   AR   Ar  199   7.114   0.221   2.291
    1   AR   Ar  200   5.262   2.150   0.227
    1   AR   Ar  201   6.985   5.242   3.450
    1   AR   Ar  202   4.985   0.495   3.923
    1   AR   Ar  203   7.103   7.068   3.692
    1   AR   Ar  204   5.157   5.110   7.775
    1   AR   Ar  205   5.309   1.631   2.247
    1   AR   Ar  206   6.381   0.395   6.563
    1   AR   Ar  207   0.567   4.051   4.658
    1   AR   Ar  208   0.952   6.045   3.618
    1   AR   Ar  209   5.257   2.691  -1.778
    1   AR   Ar  210   2.272   2.092  -0.075
    1   AR   Ar  211   6.847   3.053   0.455
    1   AR   Ar  212   6.066   4.564   0.424
    1   AR   Ar  213   4.069   1.398   0.354
    1   AR   Ar  214   5.837   4.786   1.573
    1   AR   Ar  215   0.430   3.071   2.589
    1   AR   Ar  216   2.226   3.052  -0.582
    1   AR   Ar  217   4.918   2.074   4.316
    1   AR   Ar  218   4.671   2.279   5.296
    1   AR   Ar  219   4.641   3.887   2.322
    1   AR   Ar  220   4.683   4.681   1.346
    1   AR   Ar  221   6.654   6.116   3.883
    1   AR   Ar  222   5.282   6.562   5.927
    1   AR   Ar  223   0.080   0.921   6.170
    1   AR   Ar  224   4.810   1.185   4.975
    1   AR   Ar  225   6.394   2.895   2.730
    1   AR   Ar  226   2.606   3.494   3.959
    1   AR   Ar  227   1.479   2.383   4.192
    1   AR   Ar  228   6.187   0.762   2.233
    1   AR   Ar  229   5.979   3.902  -0.681
    1   AR   Ar  230   4.209   4.601   3.283
    1   AR   Ar  231   4.823   2.455   3.091
    1   AR   Ar  232   5.622   3.447   1.993
    1   AR   Ar  233   7.016   1.492   2.983
    1   AR   Ar  234   6.622   3.595   4.542
    1   AR   Ar  235   6.801   0.874   4.402
    1   AR   Ar  236   4.331   4.266   4.663
    1   AR   Ar  237   4.411   1.829   7.041
    1   AR   Ar  238   4.524   4.601   5.782
    1   AR   Ar  239   1.262   4.548  10.171
    1   AR   Ar  240   1.780   3.075   6.388
    1   AR   Ar  241   0.545   6.691  -0.510
    1   AR   Ar  242   6.084   6.527   1.652
    1   AR   Ar  243   4.332   6.156   2.093
    1   AR   Ar  244   5.674   6.563   0.430
    1   AR   Ar  245   3.393   1.570   3.296
    1   AR   Ar  246   5.239   5.489  -1.285
    1   AR   Ar  247   6.656   3.634   1.254
    1   AR   Ar  248   5.854   5.066  -0.532
    1   AR   Ar  249   3.504   0.547   1.037
    1   AR   Ar  250   5.131   6.574   3.368
    1   AR   Ar  251   5.348   3.698   4.851
    1   AR   Ar  252   2.664   4.881   1.967
    1   AR   Ar  253   5.186   2.519   7.128
    1   AR   Ar  254   4.019   4.757  13.292
    1   AR   Ar  255   5.192   5.551   9.103
    1   AR   Ar  256   5.866   5.501   3.506
    7.12000  7.12000 12.00000
Argon-slab step 5765
  256
    1   AR   Ar    1   3.999   2.353  -1.471
    1   AR   Ar    2   6.107   0.272   1.137
    1   AR   Ar    3   4.734   3.708  -1.426
    1   AR   Ar    4   1.951   0.987   1.177
    1   AR   Ar    5   6.672   5.518   0.191
    1   AR   Ar    6   1.499   0.959   2.212
    1   AR   Ar    7   5.755   4.657   2.832
    1   AR   Ar    8   6.030   2.876  -0.238
    1   AR   Ar    9   0.110   5.725   4.791
    1   AR   Ar   10   5.914   4.675   5.439
    1   AR   Ar   11   0.845   6.375   5.195
    1   AR   Ar   12   6.852   1.912   4.498
    1   AR   Ar   13   6.702   6.861   5.299
    1   AR   Ar   14   4.435   1.303   6.110
    1   AR   Ar   15   2.689   5.259   9.388
    1   AR   Ar   16   0.672   6.697   6.506
    1   AR   Ar   17   5.604   3.611   0.410
    1   AR   Ar   18   6.897   3.944  -2.842
    1   AR   Ar   19   4.914   4.925   0.284
    1   AR   Ar   20   6.712   3.015  -2.062
    1   AR   Ar   21   2.424   1.098   2.613
    1   AR   Ar   22   5.097   0.349   2.049
    1   AR   Ar   23   0.643   5.678   0.047
    1   AR   Ar   24   5.856   2.678   4.185
    1   AR   Ar   25   1.033   3.596   5.586
    1   AR   Ar   26   5.941   5.815   4.822
    1   AR   Ar   27   0.821   0.631   1.301
    1   AR   Ar   28   2.870   2.285   3.970
    1   AR   Ar   29   5.466   6.780   7.173
    1   AR   Ar   30   6.071   0.530   3.396
    1   AR   Ar   31   1.008   1.094   6.782
    1   AR   Ar   32   1.125   2.118   6.250
    1   AR   Ar   33   5.605   5.533   0.617
    1   AR   Ar   34   1.738   5.380   3.424
    1   AR   Ar   35   5.869   5.675   2.400
    1   AR   Ar   36   3.627   1.543  -3.826
    1   AR   Ar   37   4.736   3.664   1.097
    1   AR   Ar   38   6.509   4.656   4.350
    1   AR   Ar   39   0.412   2.893   4.112
    1   AR   Ar   40   0.480   4.057   2.152
    1   AR   Ar   41   0.629   2.051   3.622
    1   AR   Ar   42   5.102   4.999   4.904
    1   AR   Ar   43   0.030   3.161   6.403
    1   AR   Ar   44   1.459   4.136   3.171
    1   AR   Ar   45   2.109   3.846   5.341
    1   AR   Ar   46   6.097   5.318   7.052
    1   AR   Ar   47   2.905   3.918   7.163
    1   AR   Ar   48   0.503   3.555   7.553
    1   AR   Ar   49   7.035   2.029   0.618
    1   AR   Ar   50   2.946   4.956   0.717
    1   AR   Ar   51   5.401   3.750   2.933
    1   AR   Ar   52   5.746   3.561  -2.121
    1   AR   Ar   53   4.408   0.153   3.049
    1   AR   Ar   54   6.235   6.419   2.984
    1   AR   Ar   55   6.933   5.004   2.354
    1   AR   Ar   56   5.928   1.721   3.688
    1   AR   Ar   57   4.589   4.960   2.434
    1   AR   Ar   58   1.345   3.430   4.556
    1   AR   Ar   59   3.803   5.197   5.618
    1   AR   Ar   60   1.003   5.100   2.451
    1   AR   Ar   61   6.712   4.667   6.519
    1   AR   Ar   62   6.917   4.086   5.677
    1   AR   Ar   63   1.901   1.444   7.726
    1   AR   Ar   64   0.596   5.008   4.088
    1   AR   Ar   65   4.050   1.322   2.543
    1   AR   Ar   66   1.123   2.121   0.759
    1   AR   Ar   67   4.533   1.233  -0.644
    1   AR   Ar   68   6.945   0.755   0.641
    1   AR   Ar   69   2.356   2.723   1.076
    1   AR   Ar   70   0.112   1.139   1.821
    1   AR   Ar   71   3.502   0.560   2.949
    1   AR   Ar   72   4.519   1.061   1.500
    1   AR   Ar   73   3.136   0.276   4.325
    1   AR   Ar   74   1.287   0.713   3.147
    1   AR   Ar   75   2.780   0.792   5.467
    1   AR   Ar   76   2.845   0.256   2.159
    1   AR   Ar   77   1.167   5.649   6.536
    1   AR   Ar   78   7.075   5.838   6.395
    1   AR   Ar   79   3.742   6.722   5.499
    1   AR   Ar   80   3.479   4.037   5.681
    1   AR   Ar   81   1.352   6.332   1.909
    1   AR   Ar   82   6.960   4.829   1.174
    1   AR   Ar   83   1.355   3.199   1.337
    1   AR   Ar   84   1.019   4.439   1.092
    1   AR   Ar   85   0.169   2.478  -0.330
    1   AR   Ar   86   1.402   5.612   0.846
    1   AR   Ar   87   3.895   2.836   2.362
    1   AR   Ar   88   3.888   5.330   1.748
    1   AR   Ar   89   5.885   2.641   1.020
    1   AR   Ar   90   3.420   1.123   6.446
    1   AR   Ar   91   1.516   1.799   3.060
    1   AR   Ar   92   3.781   2.893   1.282
    1   AR   Ar   93   0.948   0.969   5.516
    1   AR   Ar   94   0.396   7.090   9.390
    1   AR   Ar   95   5.034   0.816   6.938
    1   AR   Ar   96   1.768   0.246   5.467
    1   AR   Ar   97   4.690   1.426  -1.758
    1   AR   Ar   98   1.626   4.371   4.236
    1   AR   Ar   99   5.696   6.481  -1.070
    1   AR   Ar  100   6.421   2.384  -2.948
    1   AR   Ar  101   3.870   5.705   3.088
    1   AR   Ar  102   4.094   2.025   1.540
    1   AR   Ar  103   1.733   4.051   2.093
    1   AR   Ar  104   3.154   0.512  -0.495
    1   AR   Ar  105   2.882   2.435   2.539
    1   AR   Ar  106   3.951   0.971   3.877
    1   AR   Ar  107   0.757   4.684   5.501
    1   AR   Ar  108   2.476   0.579   3.401
    1   AR   Ar  109   2.454   4.882   4.667
    1   AR   Ar  110   2.170   2.559   5.106
    1   AR   Ar  111   4.216   4.094   6.766
    1   AR   Ar  112   6.609   6.458   7.019
    1   AR   Ar  113   6.674   6.071  -1.598
    1   AR   Ar  114   2.507   7.041   0.150
    1   AR   Ar  115   6.782   4.494  -0.461
    1   AR   Ar  116   5.640   1.209   0.785
    1   AR   Ar  117   0.335   4.248   3.434
    1   AR   Ar  118   2.183   6.540   3.836
    1   AR   Ar  119   1.763   3.076   2.700
    1   AR   Ar  120   1.870   7.063   2.897
    1   AR   Ar  121   5.360   4.165   7.084
    1   AR   Ar  122   2.882   5.095   3.354
    1   AR   Ar  123   3.408   2.314   4.992
    1   AR   Ar  124   0.451   6.004   1.382
    1   AR   Ar  125   6.342   4.039   3.438
    1   AR   Ar  126   0.031   1.234   7.090
    1   AR   Ar  127   4.451   3.339   5.690
    1   AR   Ar  128   0.886   4.226   6.773
    1   AR   Ar  129   1.417   5.617   4.638
    1   AR   Ar  130   5.573   0.467  -4.412
    1   AR   Ar  131   4.109   6.752  -0.081
    1   AR   Ar  132   1.751   2.271   1.882
    1   AR   Ar  133   4.236   0.259   4.780
    1   AR   Ar  134   3.323   1.268   4.696
    1   AR   Ar  135   5.812   0.384   5.467
    1   AR   Ar  136   5.271   6.459   2.330
    1   AR   Ar  137   2.636   4.977   5.909
    1   AR   Ar  138   5.812   1.324   6.086
    1   AR   Ar  139   6.183   2.692   5.270
    1   AR   Ar  140   5.069   6.573   4.832
    1   AR   Ar  141   3.498   5.305   4.429
    1   AR   Ar  142   3.959   5.976   8.746
    1   AR   Ar  143   5.029   6.364   8.214
    1   AR   Ar  144   0.140   3.082   5.358
    1   AR   Ar  145   4.799   4.614  -2.035
    1   AR   Ar  146   4.059   2.349   3.852
    1   AR   Ar  147   4.549   3.928  -0.198
    1   AR   Ar  148   1.893   5.771  -0.331
    1   AR   Ar  149   6.471   1.879  -0.422
    1   AR   Ar  150   0.594   1.962   2.357
    1   AR   Ar  151   2.960   3.249   1.835
    1   AR   Ar  152   0.842   1.672  -0.156
    1   AR   Ar  153   5.264   1.135   3.069
    1   AR   Ar  154   5.091   3.345   3.882
    1   AR   Ar  155   6.018   3.513   5.981
    1   AR   Ar  156   3.375   4.097   3.129
    1   AR   Ar  157   3.487   6.186   6.299
    1   AR   Ar  158   1.308   2.613   7.341
    1   AR   Ar  159   4.810   0.319   5.806
    1   AR   Ar  160   0.859   1.680   4.727
    1   AR   Ar  161   5.102   4.531   3.981
    1   AR   Ar  162   3.838   5.551  -1.404
    1   AR   Ar  163   6.490   4.021   2.284
    1   AR   Ar  164   2.415   5.845   2.520
    1   AR   Ar  165   3.588   4.158   0.931
    1   AR   Ar  166   3.091   3.248   5.184
    1   AR   Ar  167   6.017   7.109   4.432
    1   AR   Ar  168   5.793   4.712  -2.635
    1   AR   Ar  169   4.322   3.586   3.249
    1   AR   Ar  170   2.332   2.490   7.029
    1   AR   Ar  171   4.555   5.569   3.929
    1   AR   Ar  172   4.066   3.112   4.724
    1   AR   Ar  173   0.580   1.822   7.912
    1   AR   Ar  174   2.932   6.185   4.579
    1   AR   Ar  175   0.620   0.234   7.394
    1   AR   Ar  176   3.400   3.085   3.390
    1   AR   Ar  177   0.103   3.984  -1.738
    1   AR   Ar  178   2.412   6.737   1.285
    1   AR   Ar  179   3.309   6.132   0.705
    1   AR   Ar  180   4.756   6.052  -7.228
    1   AR   Ar  181   6.935   6.178   2.235
    1   AR   Ar  182   0.891   6.846   2.887
    1   AR   Ar  183   5.030   5.710   1.544
    1   AR   Ar  184   3.950   5.155   0.248
    1   AR   Ar  185   3.341   4.303   4.232
    1   AR   Ar  186   3.167   6.697   3.478
    1   AR   Ar  187   4.126   6.558   3.857
    1   AR   Ar  188   3.250   1.399   1.618
    1   AR   Ar  189   6.219   2.663   6.615
    1   AR   Ar  190   1.679   0.396   4.201
    1   AR   Ar  191   4.154   5.895   4.959
    1   AR   Ar  192   3.615   3.155   6.721
    1   AR   Ar  193   3.282   6.417   1.837
    1   AR   Ar  194   4.867   5.908   0.020
    1   AR   Ar  195   6.376   1.703   1.325
    1   AR   Ar  196   4.975   6.831   1.100
    1   AR   Ar  197   4.318   2.631   0.245
    1   AR   Ar  198   6.794   6.450   0.897
    1   AR   Ar  199   7.100   0.206   2.302
    1   AR   Ar  200   5.270   2.123   0.247
    1   AR   Ar  201   6.984   5.263   3.456
    1   AR   Ar  202   4.988   0.533   3.944
    1   AR   Ar  203   7.117   7.068   3.662
    1   AR   Ar  204   5.136   5.121   7.780
    1   AR   Ar  205   5.300   1.642   2.267
    1   AR   Ar  206   6.391   0.409   6.561
    1   AR   Ar  207   0.557   4.073   4.656
    1   AR   Ar  208   0.910   6.045   3.605
    1   AR   Ar  209   5.236   2.680  -1.767
    1   AR   Ar  210   2.310   2.122  -0.073
    1   AR   Ar  211   6.859   3.076   0.462
    1   AR   Ar  212   6.005   4.537   0.417
    1   AR   Ar  213   4.066   1.416   0.372
    1   AR   Ar  214   5.817   4.739   1.577
    1   AR   Ar  215   0.417   3.103   2.557
    1   AR   Ar  216   2.200   3.060  -0.593
    1   AR   Ar  217   4.948   2.047   4.277
    1   AR   Ar  218   4.668   2.308   5.318
    1   AR   Ar  219   4.620   3.913   2.294
    1   AR   Ar  220   4.704   4.652   1.323
    1   AR   Ar  221   6.639   6.123   3.843
    1   AR   Ar  222   5.297   6.577   5.925
    1   AR   Ar  223   0.107   0.900   6.157
    1   AR   Ar  224   4.792   1.201   4.999
    1   AR   Ar  225   6.400   2.912   2.714
    1   AR   Ar  226   2.609   3.482   3.941
    1   AR   Ar  227   1.511   2.389   4.207
    1   AR   Ar  228   6.185   0.778   2.259
    1   AR   Ar  229   5.957   3.892  -0.666
    1   AR   Ar  230   4.209   4.598   3.292
    1   AR   Ar  231   4.848   2.437   3.088
    1   AR   Ar  232   5.630   3.438   2.002
    1   AR   Ar  233   6.980   1.484   2.987
    1   AR   Ar  234   6.603   3.610   4.556
    1   AR   Ar  235   6.824   0.888   4.405
    1   AR   Ar  236   4.316   4.264   4.672
    1   AR   Ar  237   4.415   1.845   7.049
    1   AR   Ar  238   4.511   4.605   5.823
    1   AR   Ar  239   1.268   4.532  10.174
    1   AR   Ar  240   1.789   3.081   6.388
    1   AR   Ar  241   0.555   6.702  -0.512
    1   AR   Ar  242   6.087   6.499   1.634
    1   AR   Ar  243   4.358   6.165   2.096
    1   AR   Ar  244   5.697   6.564   0.432
    1   AR   Ar  245   3.393   1.598   3.284
    1   AR   Ar  246   5.239   5.507  -1.276
    1   AR   Ar  247   6.686   3.618   1.240
    1   AR   Ar  248   5.863   5.065  -0.534
    1   AR   Ar  249   3.508   0.536   1.012
    1   AR   Ar  250   5.164   6.574   3.331
    1   AR   Ar  251   5.340   3.688   4.837
    1   AR   Ar  252   2.684   4.884   1.934
    1   AR   Ar  253   5.172   2.517   7.115
    1   AR   Ar  254   4.017   4.745  13.298
    1   AR   Ar  255   5.177   5.564   9.121
    1   AR   Ar  256   5.850   5.512   3.501
    7.12000  7.12000 12.00000
Argon-slab step 5770
  256
    1   AR   Ar    1   4.007   2.367  -1.448
    1   AR   Ar    2   6.076   0.259   1.130
    1   AR   Ar    3   4.714   3.717  -1.425
    1   AR   Ar    4   1.940   0.991   1.143
    1   AR   Ar    5   6.682   5.507   0.199
    1   AR   Ar    6   1.508   0.944   2.195
    1   AR   Ar    7   5.732   4.648   2.798
    1   AR   Ar    8   6.028   2.871  -0.239
    1   AR   Ar    9   0.086   5.697   4.754
    1   AR   Ar   10   5.925   4.682   5.435
    1   AR   Ar   11   0.862   6.401   5.164
    1   AR   Ar   12   6.854   1.910   4.498
    1   AR   Ar   13   6.708   6.865   5.295
    1   AR   Ar   14   4.445   1.320   6.117
    1   AR   Ar   15   2.702   5.260   9.380
    1   AR   Ar   16   0.693   6.726   6.518
    1   AR   Ar   17   5.617   3.608   0.373
    1   AR   Ar   18   6.896   3.968  -2.863
    1   AR   Ar   19   4.897   4.922   0.256
    1   AR   Ar   20   6.718   3.012  -2.108
    1   AR   Ar   21   2.393   1.073   2.596
    1   AR   Ar   22   5.090   0.355   2.071
    1   AR   Ar   23   0.659   5.676   0.034
    1   AR   Ar   24   5.871   2.684   4.215
    1   AR   Ar   25   1.026   3.606   5.578
    1   AR   Ar   26   5.942   5.809   4.831
    1   AR   Ar   27   0.838   0.648   1.278
    1   AR   Ar   28   2.905   2.287   3.979
    1   AR   Ar   29   5.454   6.768   7.157
    1   AR   Ar   30   6.057   0.532   3.414
    1   AR   Ar   31   0.984   1.092   6.799
    1   AR   Ar   32   1.125   2.123   6.250
    1   AR   Ar   33   5.596   5.535   0.620
    1   AR   Ar   34   1.752   5.360   3.430
    1   AR   Ar   35   5.880   5.673   2.386
    1   AR   Ar   36   3.650   1.561  -3.833
    1   AR   Ar   37   4.717   3.671   1.076
    1   AR   Ar   38   6.483   4.678   4.351
    1   AR   Ar   39   0.384   2.928   4.111
    1   AR   Ar   40   0.472   4.066   2.172
    1   AR   Ar   41   0.600   2.036   3.636
    1   AR   Ar   42   5.095   4.965   4.914
    1   AR   Ar   43   0.044   3.160   6.414
    1   AR   Ar   44   1.458   4.164   3.163
    1   AR   Ar   45   2.123   3.852   5.333
    1   AR   Ar   46   6.100   5.323   7.029
    1   AR   Ar   47   2.921   3.916   7.164
    1   AR   Ar   48   0.529   3.562   7.509
    1   AR   Ar   49   7.020   2.039   0.614
    1   AR   Ar   50   2.957   4.987   0.770
    1   AR   Ar   51   5.409   3.747   2.952
    1   AR   Ar   52   5.729   3.590  -2.123
    1   AR   Ar   53   4.411   0.175   3.057
    1   AR   Ar   54   6.256   6.422   3.001
    1   AR   Ar   55   6.940   4.989   2.329
    1   AR   Ar   56   5.957   1.739   3.690
    1   AR   Ar   57   4.579   4.991   2.446
    1   AR   Ar   58   1.356   3.437   4.538
    1   AR   Ar   59   3.765   5.189   5.625
    1   AR   Ar   60   1.012   5.082   2.456
    1   AR   Ar   61   6.694   4.665   6.510
    1   AR   Ar   62   6.934   4.098   5.685
    1   AR   Ar   63   1.918   1.450   7.767
    1   AR   Ar   64   0.572   5.041   4.090
    1   AR   Ar   65   4.059   1.313   2.541
    1   AR   Ar   66   1.099   2.145   0.781
    1   AR   Ar   67   4.529   1.256  -0.676
    1   AR   Ar   68   6.969   0.768   0.653
    1   AR   Ar   69   2.344   2.724   1.100
    1   AR   Ar   70   0.092   1.153   1.814
    1   AR   Ar   71   3.530   0.576   2.998
    1   AR   Ar   72   4.509   1.053   1.504
    1   AR   Ar   73   3.155   0.270   4.321
    1   AR   Ar   74   1.302   0.722   3.182
    1   AR   Ar   75   2.807   0.787   5.486
    1   AR   Ar   76   2.837   0.224   2.151
    1   AR   Ar   77   1.186   5.660   6.562
    1   AR   Ar   78   7.045   5.844   6.382
    1   AR   Ar   79   3.759   6.718   5.467
    1   AR   Ar   80   3.522   4.032   5.731
    1   AR   Ar   81   1.355   6.297   1.918
    1   AR   Ar   82   6.979   4.782   1.153
    1   AR   Ar   83   1.411   3.211   1.332
    1   AR   Ar   84   1.003   4.449   1.086
    1   AR   Ar   85   0.180   2.486  -0.368
    1   AR   Ar   86   1.394   5.594   0.836
    1   AR   Ar   87   3.915   2.838   2.338
    1   AR   Ar   88   3.900   5.338   1.730
    1   AR   Ar   89   5.885   2.651   1.022
    1   AR   Ar   90   3.426   1.120   6.473
    1   AR   Ar   91   1.521   1.800   3.053
    1   AR   Ar   92   3.774   2.904   1.272
    1   AR   Ar   93   0.938   0.964   5.519
    1   AR   Ar   94   0.391   7.092   9.379
    1   AR   Ar   95   5.011   0.788   6.937
    1   AR   Ar   96   1.733   0.245   5.468
    1   AR   Ar   97   4.718   1.399  -1.754
    1   AR   Ar   98   1.634   4.351   4.227
    1   AR   Ar   99   5.701   6.497  -1.060
    1   AR   Ar  100   6.436   2.353  -2.948
    1   AR   Ar  101   3.857   5.665   3.078
    1   AR   Ar  102   4.113   2.034   1.521
    1   AR   Ar  103   1.718   4.020   2.067
    1   AR   Ar  104   3.173   0.548  -0.499
    1   AR   Ar  105   2.848   2.456   2.581
    1   AR   Ar  106   3.945   0.976   3.864
    1   AR   Ar  107   0.785   4.663   5.498
    1   AR   Ar  108   2.476   0.583   3.430
    1   AR   Ar  109   2.439   4.874   4.666
    1   AR   Ar  110   2.201   2.592   5.100
    1   AR   Ar  111   4.196   4.103   6.766
    1   AR   Ar  112   6.589   6.460   7.008
    1   AR   Ar  113   6.655   6.092  -1.598
    1   AR   Ar  114   2.535   7.057   0.164
    1   AR   Ar  115   6.826   4.481  -0.435
    1   AR   Ar  116   5.644   1.220   0.802
    1   AR   Ar  117   0.333   4.270   3.416
    1   AR   Ar  118   2.180   6.528   3.826
    1   AR   Ar  119   1.782   3.045   2.696
    1   AR   Ar  120   1.866   7.100   2.912
    1   AR   Ar  121   5.379   4.184   7.119
    1   AR   Ar  122   2.879   5.081   3.358
    1   AR   Ar  123   3.416   2.295   4.974
    1   AR   Ar  124   0.452   6.012   1.373
    1   AR   Ar  125   6.316   4.067   3.429
    1   AR   Ar  126   0.024   1.241   7.063
    1   AR   Ar  127   4.423   3.339   5.712
    1   AR   Ar  128   0.911   4.257   6.822
    1   AR   Ar  129   1.411   5.636   4.646
    1   AR   Ar  130   5.602   0.504  -4.442
    1   AR   Ar  131   4.125   6.803  -0.070
    1   AR   Ar  132   1.746   2.277   1.870
    1   AR   Ar  133   4.231   0.289   4.772
    1   AR   Ar  134   3.343   1.308   4.718
    1   AR   Ar  135   5.811   0.413   5.470
    1   AR   Ar  136   5.289   6.483   2.311
    1   AR   Ar  137   2.591   4.954   5.903
    1   AR   Ar  138   5.798   1.326   6.103
    1   AR   Ar  139   6.189   2.696   5.272
    1   AR   Ar  140   5.078   6.571   4.841
    1   AR   Ar  141   3.466   5.281   4.407
    1   AR   Ar  142   3.966   5.967   8.754
    1   AR   Ar  143   5.031   6.384   8.204
    1   AR   Ar  144   0.118   3.110   5.314
    1   AR   Ar  145   4.792   4.628  -2.026
    1   AR   Ar  146   4.027   2.326   3.836
    1   AR   Ar  147   4.560   3.922  -0.180
    1   AR   Ar  148   1.877   5.771  -0.341
    1   AR   Ar  149   6.489   1.877  -0.438
    1   AR   Ar  150   0.600   1.960   2.338
    1   AR   Ar  151   2.959   3.226   1.844
    1   AR   Ar  152   0.838   1.638  -0.146
    1   AR   Ar  153   5.231   1.135   3.078
    1   AR   Ar  154   5.057   3.322   3.891
    1   AR   Ar  155   6.003   3.523   5.996
    1   AR   Ar  156   3.380   4.101   3.147
    1   AR   Ar  157   3.477   6.168   6.318
    1   AR   Ar  158   1.350   2.598   7.333
    1   AR   Ar  159   4.826   0.334   5.795
    1   AR   Ar  160   0.879   1.699   4.756
    1   AR   Ar  161   5.100   4.550   3.981
    1   AR   Ar  162   3.819   5.569  -1.372
    1   AR   Ar  163   6.483   4.038   2.302
    1   AR   Ar  164   2.416   5.827   2.519
    1   AR   Ar  165   3.593   4.163   0.908
    1   AR   Ar  166   3.100   3.246   5.167
    1   AR   Ar  167   6.007   0.001   4.434
    1   AR   Ar  168   5.804   4.718  -2.645
    1   AR   Ar  169   4.321   3.569   3.220
    1   AR   Ar  170   2.353   2.507   7.038
    1   AR   Ar  171   4.550   5.578   3.911
    1   AR   Ar  172   4.065   3.092   4.725
    1   AR   Ar  173   0.534   1.858   7.920
    1   AR   Ar  174   2.936   6.198   4.569
    1   AR   Ar  175   0.626   0.256   7.391
    1   AR   Ar  176   3.382   3.111   3.402
    1   AR   Ar  177   0.110   3.957  -1.738
    1   AR   Ar  178   2.388   6.701   1.284
    1   AR   Ar  179   3.316   6.104   0.658
    1   AR   Ar  180   4.779   6.041  -7.206
    1   AR   Ar  181   6.966   6.217   2.273
    1   AR   Ar  182   0.882   6.814   2.889
    1   AR   Ar  183   5.029   5.728   1.573
    1   AR   Ar  184   3.926   5.119   0.224
    1   AR   Ar  185   3.365   4.320   4.228
    1   AR   Ar  186   3.158   6.701   3.460
    1   AR   Ar  187   4.121   6.557   3.849
    1   AR   Ar  188   3.249   1.379   1.597
    1   AR   Ar  189   6.226   2.675   6.597
    1   AR   Ar  190   1.670   0.399   4.211
    1   AR   Ar  191   4.158   5.898   4.974
    1   AR   Ar  192   3.621   3.116   6.727
    1   AR   Ar  193   3.295   6.389   1.848
    1   AR   Ar  194   4.837   5.908   0.006
    1   AR   Ar  195   6.379   1.733   1.329
    1   AR   Ar  196   4.954   6.814   1.101
    1   AR   Ar  197   4.322   2.618   0.214
    1   AR   Ar  198   6.762   6.457   0.920
    1   AR   Ar  199   7.088   0.186   2.315
    1   AR   Ar  200   5.280   2.094   0.266
    1   AR   Ar  201   6.978   5.280   3.452
    1   AR   Ar  202   4.992   0.569   3.966
    1   AR   Ar  203   0.010   7.069   3.630
    1   AR   Ar  204   5.116   5.133   7.784
    1   AR   Ar  205   5.292   1.664   2.268
    1   AR   Ar  206   6.397   0.422   6.560
    1   AR   Ar  207   0.546   4.079   4.644
    1   AR   Ar  208   0.891   6.033   3.624
    1   AR   Ar  209   5.213   2.668  -1.756
    1   AR   Ar  210   2.348   2.151  -0.070
    1   AR   Ar  211   6.873   3.092   0.456
    1   AR   Ar  212   5.948   4.517   0.411
    1   AR   Ar  213   4.063   1.435   0.391
    1   AR   Ar  214   5.797   4.692   1.581
    1   AR   Ar  215   0.404   3.130   2.526
    1   AR   Ar  216   2.173   3.069  -0.604
    1   AR   Ar  217   4.972   2.024   4.241
    1   AR   Ar  218   4.664   2.337   5.341
    1   AR   Ar  219   4.594   3.939   2.257
    1   AR   Ar  220   4.724   4.629   1.303
    1   AR   Ar  221   6.627   6.134   3.819
    1   AR   Ar  222   5.319   6.585   5.924
    1   AR   Ar  223   0.136   0.877   6.134
    1   AR   Ar  224   4.768   1.212   5.029
    1   AR   Ar  225   6.406   2.930   2.699
    1   AR   Ar  226   2.609   3.471   3.926
    1   AR   Ar  227   1.545   2.395   4.221
    1   AR   Ar  228   6.182   0.795   2.285
    1   AR   Ar  229   5.930   3.880  -0.651
    1   AR   Ar  230   4.215   4.604   3.312
    1   AR   Ar  231   4.873   2.419   3.085
    1   AR   Ar  232   5.639   3.428   2.002
    1   AR   Ar  233   6.942   1.475   2.991
    1   AR   Ar  234   6.583   3.622   4.572
    1   AR   Ar  235   6.846   0.895   4.406
    1   AR   Ar  236   4.335   4.256   4.670
    1   AR   Ar  237   4.414   1.856   7.056
    1   AR   Ar  238   4.515   4.592   5.866
    1   AR   Ar  239   1.274   4.516  10.176
    1   AR   Ar  240   1.793   3.090   6.384
    1   AR   Ar  241   0.574   6.710  -0.511
    1   AR   Ar  242   6.084   6.467   1.622
    1   AR   Ar  243   4.367   6.182   2.107
    1   AR   Ar  244   5.708   6.568   0.433
    1   AR   Ar  245   3.386   1.631   3.273
    1   AR   Ar  246   5.237   5.526  -1.270
    1   AR   Ar  247   6.712   3.614   1.240
    1   AR   Ar  248   5.872   5.066  -0.533
    1   AR   Ar  249   3.513   0.524   0.986
    1   AR   Ar  250   5.197   6.573   3.304
    1   AR   Ar  251   5.333   3.680   4.827
    1   AR   Ar  252   2.704   4.886   1.901
    1   AR   Ar  253   5.164   2.520   7.101
    1   AR   Ar  254   4.015   4.732  13.304
    1   AR   Ar  255   5.160   5.577   9.137
    1   AR   Ar  256   5.830   5.523   3.497
    7.12000  7.12000 12.00000
Argon-slab step 5775
  256
    1   AR   Ar    1   4.017   2.380  -1.425
    1   AR   Ar    2   6.046   0.250   1.123
    1   AR   Ar    3   4.694   3.724  -1.423
    1   AR   Ar    4   1.929   0.995   1.111
    1   AR   Ar    5   6.689   5.495   0.208
    1   AR   Ar    6   1.506   0.928   2.167
    1   AR   Ar    7   5.710   4.656   2.757
    1   AR   Ar    8   6.027   2.862  -0.241
    1   AR   Ar    9   0.060   5.672   4.717
    1   AR   Ar   10   5.925   4.705   5.457
    1   AR   Ar   11   0.878   6.429   5.135
    1   AR   Ar   12   6.857   1.917   4.498
    1   AR   Ar   13   6.713   6.868   5.290
    1   AR   Ar   14   4.457   1.337   6.122
    1   AR   Ar   15   2.728   5.271   9.366
    1   AR   Ar   16   0.713   6.753   6.528
    1   AR   Ar   17   5.622   3.592   0.340
    1   AR   Ar   18   6.895   3.992  -2.883
    1   AR   Ar   19   4.885   4.904   0.226
    1   AR   Ar   20   6.725   3.010  -2.154
    1   AR   Ar   21   2.372   1.061   2.572
    1   AR   Ar   22   5.084   0.363   2.093
    1   AR   Ar   23   0.674   5.674   0.021
    1   AR   Ar   24   5.887   2.691   4.245
    1   AR   Ar   25   1.020   3.615   5.571
    1   AR   Ar   26   5.944   5.803   4.839
    1   AR   Ar   27   0.857   0.664   1.254
    1   AR   Ar   28   2.939   2.291   3.990
    1   AR   Ar   29   5.444   6.757   7.141
    1   AR   Ar   30   6.044   0.531   3.432
    1   AR   Ar   31   0.969   1.091   6.812
    1   AR   Ar   32   1.125   2.127   6.250
    1   AR   Ar   33   5.598   5.540   0.630
    1   AR   Ar   34   1.766   5.339   3.437
    1   AR   Ar   35   5.895   5.661   2.369
    1   AR   Ar   36   3.673   1.578  -3.839
    1   AR   Ar   37   4.697   3.666   1.053
    1   AR   Ar   38   6.458   4.702   4.352
    1   AR   Ar   39   0.355   2.967   4.114
    1   AR   Ar   40   0.466   4.084   2.190
    1   AR   Ar   41   0.570   2.017   3.648
    1   AR   Ar   42   5.083   4.935   4.927
    1   AR   Ar   43   0.059   3.161   6.425
    1   AR   Ar   44   1.456   4.192   3.154
    1   AR   Ar   45   2.136   3.857   5.324
    1   AR   Ar   46   6.100   5.332   7.008
    1   AR   Ar   47   2.934   3.915   7.163
    1   AR   Ar   48   0.554   3.565   7.466
    1   AR   Ar   49   7.011   2.048   0.604
    1   AR   Ar   50   2.964   4.978   0.787
    1   AR   Ar   51   5.409   3.731   2.979
    1   AR   Ar   52   5.711   3.619  -2.125
    1   AR   Ar   53   4.428   0.192   3.065
    1   AR   Ar   54   6.267   6.439   3.001
    1   AR   Ar   55   6.948   4.976   2.304
    1   AR   Ar   56   5.987   1.755   3.692
    1   AR   Ar   57   4.575   5.027   2.455
    1   AR   Ar   58   1.369   3.433   4.522
    1   AR   Ar   59   3.714   5.185   5.632
    1   AR   Ar   60   1.020   5.063   2.461
    1   AR   Ar   61   6.679   4.663   6.500
    1   AR   Ar   62   6.952   4.108   5.687
    1   AR   Ar   63   1.934   1.457   7.806
    1   AR   Ar   64   0.560   5.071   4.099
    1   AR   Ar   65   4.077   1.308   2.533
    1   AR   Ar   66   1.075   2.170   0.806
    1   AR   Ar   67   4.525   1.279  -0.707
    1   AR   Ar   68   6.992   0.782   0.668
    1   AR   Ar   69   2.334   2.724   1.121
    1   AR   Ar   70   0.071   1.168   1.804
    1   AR   Ar   71   3.536   0.591   3.045
    1   AR   Ar   72   4.498   1.043   1.507
    1   AR   Ar   73   3.175   0.264   4.317
    1   AR   Ar   74   1.324   0.731   3.212
    1   AR   Ar   75   2.835   0.781   5.507
    1   AR   Ar   76   2.829   0.191   2.143
    1   AR   Ar   77   1.204   5.670   6.587
    1   AR   Ar   78   7.020   5.842   6.362
    1   AR   Ar   79   3.776   6.719   5.433
    1   AR   Ar   80   3.567   4.031   5.783
    1   AR   Ar   81   1.359   6.262   1.928
    1   AR   Ar   82   6.998   4.734   1.132
    1   AR   Ar   83   1.465   3.225   1.329
    1   AR   Ar   84   0.985   4.458   1.083
    1   AR   Ar   85   0.196   2.500  -0.406
    1   AR   Ar   86   1.386   5.575   0.828
    1   AR   Ar   87   3.936   2.840   2.318
    1   AR   Ar   88   3.907   5.344   1.708
    1   AR   Ar   89   5.885   2.664   1.023
    1   AR   Ar   90   3.431   1.116   6.500
    1   AR   Ar   91   1.528   1.801   3.045
    1   AR   Ar   92   3.770   2.907   1.265
    1   AR   Ar   93   0.932   0.959   5.520
    1   AR   Ar   94   0.395   7.079   9.375
    1   AR   Ar   95   4.988   0.759   6.934
    1   AR   Ar   96   1.715   0.282   5.492
    1   AR   Ar   97   4.745   1.374  -1.750
    1   AR   Ar   98   1.634   4.357   4.214
    1   AR   Ar   99   5.708   6.512  -1.050
    1   AR   Ar  100   6.450   2.322  -2.948
    1   AR   Ar  101   3.879   5.660   3.070
    1   AR   Ar  102   4.138   2.028   1.508
    1   AR   Ar  103   1.703   3.989   2.040
    1   AR   Ar  104   3.193   0.585  -0.504
    1   AR   Ar  105   2.813   2.475   2.626
    1   AR   Ar  106   3.953   0.979   3.849
    1   AR   Ar  107   0.813   4.645   5.496
    1   AR   Ar  108   2.483   0.584   3.477
    1   AR   Ar  109   2.426   4.868   4.667
    1   AR   Ar  110   2.232   2.627   5.094
    1   AR   Ar  111   4.174   4.113   6.773
    1   AR   Ar  112   6.570   6.438   7.024
    1   AR   Ar  113   6.635   6.113  -1.597
    1   AR   Ar  114   2.564   7.072   0.179
    1   AR   Ar  115   6.869   4.469  -0.406
    1   AR   Ar  116   5.644   1.229   0.819
    1   AR   Ar  117   0.331   4.290   3.395
    1   AR   Ar  118   2.174   6.516   3.817
    1   AR   Ar  119   1.802   3.015   2.691
    1   AR   Ar  120   1.873   0.001   2.916
    1   AR   Ar  121   5.397   4.204   7.154
    1   AR   Ar  122   2.876   5.069   3.363
    1   AR   Ar  123   3.426   2.274   4.957
    1   AR   Ar  124   0.454   6.003   1.360
    1   AR   Ar  125   6.295   4.094   3.423
    1   AR   Ar  126   0.007   1.251   7.046
    1   AR   Ar  127   4.396   3.333   5.732
    1   AR   Ar  128   0.935   4.290   6.868
    1   AR   Ar  129   1.405   5.651   4.652
    1   AR   Ar  130   5.631   0.541  -4.471
    1   AR   Ar  131   4.141   6.854  -0.059
    1   AR   Ar  132   1.739   2.282   1.860
    1   AR   Ar  133   4.227   0.319   4.763
    1   AR   Ar  134   3.363   1.343   4.737
    1   AR   Ar  135   5.816   0.419   5.485
    1   AR   Ar  136   5.289   6.484   2.307
    1   AR   Ar  137   2.547   4.930   5.895
    1   AR   Ar  138   5.783   1.328   6.120
    1   AR   Ar  139   6.198   2.687   5.274
    1   AR   Ar  140   5.086   6.570   4.850
    1   AR   Ar  141   3.438   5.267   4.386
    1   AR   Ar  142   3.975   5.957   8.763
    1   AR   Ar  143   5.033   6.403   8.194
    1   AR   Ar  144   0.095   3.136   5.268
    1   AR   Ar  145   4.787   4.643  -2.018
    1   AR   Ar  146   3.994   2.304   3.821
    1   AR   Ar  147   4.573   3.915  -0.160
    1   AR   Ar  148   1.859   5.772  -0.349
    1   AR   Ar  149   6.501   1.880  -0.435
    1   AR   Ar  150   0.615   1.966   2.320
    1   AR   Ar  151   2.956   3.207   1.856
    1   AR   Ar  152   0.832   1.603  -0.137
    1   AR   Ar  153   5.195   1.128   3.098
    1   AR   Ar  154   5.023   3.295   3.901
    1   AR   Ar  155   5.966   3.531   5.996
    1   AR   Ar  156   3.373   4.105   3.161
    1   AR   Ar  157   3.464   6.153   6.313
    1   AR   Ar  158   1.389   2.582   7.326
    1   AR   Ar  159   4.809   0.355   5.798
    1   AR   Ar  160   0.899   1.713   4.778
    1   AR   Ar  161   5.102   4.565   3.972
    1   AR   Ar  162   3.808   5.546  -1.352
    1   AR   Ar  163   6.476   4.053   2.320
    1   AR   Ar  164   2.417   5.809   2.518
    1   AR   Ar  165   3.603   4.166   0.886
    1   AR   Ar  166   3.104   3.249   5.148
    1   AR   Ar  167   5.978   0.021   4.443
    1   AR   Ar  168   5.814   4.722  -2.653
    1   AR   Ar  169   4.319   3.547   3.190
    1   AR   Ar  170   2.378   2.522   7.048
    1   AR   Ar  171   4.548   5.583   3.895
    1   AR   Ar  172   4.067   3.075   4.722
    1   AR   Ar  173   0.489   1.895   7.925
    1   AR   Ar  174   2.941   6.214   4.559
    1   AR   Ar  175   0.631   0.279   7.388
    1   AR   Ar  176   3.369   3.127   3.411
    1   AR   Ar  177   0.115   3.930  -1.738
    1   AR   Ar  178   2.364   6.665   1.284
    1   AR   Ar  179   3.323   6.077   0.613
    1   AR   Ar  180   4.802   6.030  -7.184
    1   AR   Ar  181   7.000   6.254   2.309
    1   AR   Ar  182   0.866   6.781   2.888
    1   AR   Ar  183   5.042   5.711   1.572
    1   AR   Ar  184   3.892   5.107   0.196
    1   AR   Ar  185   3.384   4.321   4.227
    1   AR   Ar  186   3.147   6.707   3.438
    1   AR   Ar  187   4.119   6.558   3.842
    1   AR   Ar  188   3.247   1.359   1.578
    1   AR   Ar  189   6.231   2.683   6.581
    1   AR   Ar  190   1.654   0.420   4.224
    1   AR   Ar  191   4.167   5.902   4.983
    1   AR   Ar  192   3.628   3.077   6.733
    1   AR   Ar  193   3.308   6.359   1.858
    1   AR   Ar  194   4.804   5.915  -0.012
    1   AR   Ar  195   6.380   1.760   1.341
    1   AR   Ar  196   4.931   6.798   1.107
    1   AR   Ar  197   4.331   2.611   0.165
    1   AR   Ar  198   6.735   6.466   0.930
    1   AR   Ar  199   7.076   0.165   2.329
    1   AR   Ar  200   5.290   2.067   0.285
    1   AR   Ar  201   6.967   5.291   3.437
    1   AR   Ar  202   4.996   0.603   3.991
    1   AR   Ar  203   0.024   7.072   3.597
    1   AR   Ar  204   5.097   5.144   7.789
    1   AR   Ar  205   5.283   1.694   2.254
    1   AR   Ar  206   6.401   0.433   6.559
    1   AR   Ar  207   0.554   4.068   4.638
    1   AR   Ar  208   0.886   6.012   3.664
    1   AR   Ar  209   5.189   2.655  -1.743
    1   AR   Ar  210   2.386   2.179  -0.064
    1   AR   Ar  211   6.888   3.098   0.434
    1   AR   Ar  212   5.898   4.511   0.406
    1   AR   Ar  213   4.061   1.454   0.413
    1   AR   Ar  214   5.778   4.646   1.586
    1   AR   Ar  215   0.390   3.149   2.500
    1   AR   Ar  216   2.146   3.079  -0.616
    1   AR   Ar  217   4.969   2.022   4.232
    1   AR   Ar  218   4.662   2.347   5.336
    1   AR   Ar  219   4.568   3.963   2.216
    1   AR   Ar  220   4.695   4.657   1.273
    1   AR   Ar  221   6.623   6.146   3.823
    1   AR   Ar  222   5.345   6.587   5.925
    1   AR   Ar  223   0.161   0.850   6.107
    1   AR   Ar  224   4.744   1.223   5.058
    1   AR   Ar  225   6.411   2.950   2.684
    1   AR   Ar  226   2.601   3.464   3.917
    1   AR   Ar  227   1.578   2.402   4.233
    1   AR   Ar  228   6.157   0.749   2.307
    1   AR   Ar  229   5.901   3.871  -0.637
    1   AR   Ar  230   4.228   4.618   3.340
    1   AR   Ar  231   4.899   2.402   3.083
    1   AR   Ar  232   5.659   3.421   2.005
    1   AR   Ar  233   6.908   1.464   2.991
    1   AR   Ar  234   6.564   3.633   4.588
    1   AR   Ar  235   6.867   0.895   4.406
    1   AR   Ar  236   4.351   4.246   4.670
    1   AR   Ar  237   4.406   1.860   7.063
    1   AR   Ar  238   4.531   4.571   5.908
    1   AR   Ar  239   1.280   4.500  10.178
    1   AR   Ar  240   1.795   3.103   6.376
    1   AR   Ar  241   0.593   6.717  -0.509
    1   AR   Ar  242   6.072   6.430   1.620
    1   AR   Ar  243   4.357   6.207   2.127
    1   AR   Ar  244   5.696   6.574   0.436
    1   AR   Ar  245   3.375   1.661   3.270
    1   AR   Ar  246   5.273   5.549  -1.298
    1   AR   Ar  247   6.732   3.622   1.258
    1   AR   Ar  248   5.880   5.066  -0.529
    1   AR   Ar  249   3.517   0.511   0.959
    1   AR   Ar  250   5.230   6.572   3.286
    1   AR   Ar  251   5.328   3.674   4.821
    1   AR   Ar  252   2.725   4.889   1.868
    1   AR   Ar  253   5.162   2.529   7.086
    1   AR   Ar  254   4.013   4.720  13.310
    1   AR   Ar  255   5.143   5.591   9.152
    1   AR   Ar  256   5.807   5.531   3.493
    7.12000  7.12000 12.00000
Argon-slab step 5780
  256
    1   AR   Ar    1   4.030   2.393  -1.401
    1   AR   Ar    2   6.015   0.242   1.117
    1   AR   Ar    3   4.676   3.730  -1.420
    1   AR   Ar    4   1.919   1.000   1.080
    1   AR   Ar    5   6.696   5.482   0.219
    1   AR   Ar    6   1.488   0.911   2.132
    1   AR   Ar    7   5.686   4.677   2.714
    1   AR   Ar    8   6.029   2.846  -0.244
    1   AR   Ar    9   0.028   5.652   4.686
    1   AR   Ar   10   5.931   4.725   5.482
    1   AR   Ar   11   0.892   6.460   5.107
    1   AR   Ar   12   6.860   1.931   4.497
    1   AR   Ar   13   6.718   6.870   5.285
    1   AR   Ar   14   4.470   1.355   6.126
    1   AR   Ar   15   2.754   5.282   9.352
    1   AR   Ar   16   0.732   6.780   6.537
    1   AR   Ar   17   5.617   3.574   0.331
    1   AR   Ar   18   6.891   4.014  -2.901
    1   AR   Ar   19   4.878   4.878   0.194
    1   AR   Ar   20   6.730   3.011  -2.200
    1   AR   Ar   21   2.366   1.056   2.552
    1   AR   Ar   22   5.078   0.375   2.116
    1   AR   Ar   23   0.688   5.672   0.007
    1   AR   Ar   24   5.904   2.700   4.274
    1   AR   Ar   25   1.016   3.622   5.566
    1   AR   Ar   26   5.946   5.797   4.845
    1   AR   Ar   27   0.878   0.680   1.230
    1   AR   Ar   28   2.967   2.296   4.003
    1   AR   Ar   29   5.434   6.747   7.123
    1   AR   Ar   30   6.033   0.530   3.451
    1   AR   Ar   31   0.965   1.092   6.822
    1   AR   Ar   32   1.125   2.132   6.251
    1   AR   Ar   33   5.604   5.544   0.643
    1   AR   Ar   34   1.801   5.329   3.432
    1   AR   Ar   35   5.914   5.641   2.352
    1   AR   Ar   36   3.695   1.596  -3.846
    1   AR   Ar   37   4.678   3.655   1.029
    1   AR   Ar   38   6.434   4.729   4.354
    1   AR   Ar   39   0.325   3.010   4.120
    1   AR   Ar   40   0.463   4.114   2.203
    1   AR   Ar   41   0.542   1.996   3.660
    1   AR   Ar   42   5.068   4.913   4.943
    1   AR   Ar   43   0.077   3.165   6.435
    1   AR   Ar   44   1.454   4.221   3.143
    1   AR   Ar   45   2.149   3.862   5.314
    1   AR   Ar   46   6.096   5.346   6.990
    1   AR   Ar   47   2.929   3.924   7.162
    1   AR   Ar   48   0.576   3.562   7.425
    1   AR   Ar   49   7.007   2.057   0.589
    1   AR   Ar   50   2.968   4.943   0.780
    1   AR   Ar   51   5.404   3.707   3.009
    1   AR   Ar   52   5.694   3.650  -2.127
    1   AR   Ar   53   4.458   0.205   3.073
    1   AR   Ar   54   6.265   6.467   2.984
    1   AR   Ar   55   6.956   4.970   2.279
    1   AR   Ar   56   6.017   1.768   3.692
    1   AR   Ar   57   4.577   5.066   2.461
    1   AR   Ar   58   1.384   3.420   4.509
    1   AR   Ar   59   3.659   5.181   5.637
    1   AR   Ar   60   1.035   5.052   2.456
    1   AR   Ar   61   6.665   4.660   6.491
    1   AR   Ar   62   6.972   4.114   5.683
    1   AR   Ar   63   1.949   1.465   7.844
    1   AR   Ar   64   0.561   5.092   4.111
    1   AR   Ar   65   4.099   1.305   2.521
    1   AR   Ar   66   1.052   2.196   0.832
    1   AR   Ar   67   4.519   1.302  -0.734
    1   AR   Ar   68   7.015   0.798   0.684
    1   AR   Ar   69   2.331   2.720   1.137
    1   AR   Ar   70   0.048   1.182   1.794
    1   AR   Ar   71   3.521   0.602   3.083
    1   AR   Ar   72   4.488   1.031   1.508
    1   AR   Ar   73   3.196   0.257   4.312
    1   AR   Ar   74   1.351   0.730   3.229
    1   AR   Ar   75   2.862   0.774   5.527
    1   AR   Ar   76   2.821   0.158   2.136
    1   AR   Ar   77   1.220   5.681   6.612
    1   AR   Ar   78   7.000   5.833   6.335
    1   AR   Ar   79   3.789   6.726   5.402
    1   AR   Ar   80   3.610   4.031   5.834
    1   AR   Ar   81   1.365   6.228   1.940
    1   AR   Ar   82   7.014   4.687   1.112
    1   AR   Ar   83   1.512   3.240   1.326
    1   AR   Ar   84   0.968   4.468   1.082
    1   AR   Ar   85   0.216   2.517  -0.443
    1   AR   Ar   86   1.379   5.557   0.821
    1   AR   Ar   87   3.957   2.842   2.302
    1   AR   Ar   88   3.910   5.349   1.682
    1   AR   Ar   89   5.886   2.681   1.022
    1   AR   Ar   90   3.438   1.113   6.526
    1   AR   Ar   91   1.535   1.804   3.035
    1   AR   Ar   92   3.765   2.922   1.250
    1   AR   Ar   93   0.934   0.958   5.515
    1   AR   Ar   94   0.399   7.065   9.370
    1   AR   Ar   95   4.965   0.730   6.929
    1   AR   Ar   96   1.701   0.317   5.516
    1   AR   Ar   97   4.773   1.350  -1.748
    1   AR   Ar   98   1.628   4.383   4.199
    1   AR   Ar   99   5.715   6.528  -1.038
    1   AR   Ar  100   6.464   2.291  -2.949
    1   AR   Ar  101   3.899   5.657   3.060
    1   AR   Ar  102   4.168   2.015   1.498
    1   AR   Ar  103   1.687   3.961   2.016
    1   AR   Ar  104   3.214   0.621  -0.507
    1   AR   Ar  105   2.779   2.492   2.672
    1   AR   Ar  106   4.004   0.979   3.821
    1   AR   Ar  107   0.841   4.632   5.496
    1   AR   Ar  108   2.497   0.584   3.534
    1   AR   Ar  109   2.417   4.864   4.670
    1   AR   Ar  110   2.263   2.662   5.087
    1   AR   Ar  111   4.149   4.121   6.782
    1   AR   Ar  112   6.586   6.447   7.022
    1   AR   Ar  113   6.614   6.134  -1.595
    1   AR   Ar  114   2.594   7.086   0.197
    1   AR   Ar  115   6.910   4.457  -0.377
    1   AR   Ar  116   5.643   1.233   0.837
    1   AR   Ar  117   0.328   4.307   3.372
    1   AR   Ar  118   2.165   6.505   3.808
    1   AR   Ar  119   1.822   2.985   2.686
    1   AR   Ar  120   1.890   0.005   2.909
    1   AR   Ar  121   5.416   4.225   7.186
    1   AR   Ar  122   2.873   5.057   3.369
    1   AR   Ar  123   3.438   2.268   4.945
    1   AR   Ar  124   0.458   5.992   1.348
    1   AR   Ar  125   6.278   4.119   3.421
    1   AR   Ar  126   7.102   1.264   7.036
    1   AR   Ar  127   4.369   3.328   5.753
    1   AR   Ar  128   0.962   4.328   6.907
    1   AR   Ar  129   1.401   5.663   4.654
    1   AR   Ar  130   5.660   0.579  -4.501
    1   AR   Ar  131   4.156   6.904  -0.046
    1   AR   Ar  132   1.730   2.283   1.854
    1   AR   Ar  133   4.224   0.321   4.722
    1   AR   Ar  134   3.384   1.359   4.748
    1   AR   Ar  135   5.823   0.425   5.499
    1   AR   Ar  136   5.290   6.481   2.302
    1   AR   Ar  137   2.535   4.926   5.909
    1   AR   Ar  138   5.777   1.334   6.126
    1   AR   Ar  139   6.208   2.678   5.277
    1   AR   Ar  140   5.093   6.571   4.857
    1   AR   Ar  141   3.418   5.273   4.370
    1   AR   Ar  142   3.985   5.948   8.771
    1   AR   Ar  143   5.035   6.420   8.184
    1   AR   Ar  144   0.074   3.160   5.221
    1   AR   Ar  145   4.783   4.660  -2.009
    1   AR   Ar  146   3.966   2.284   3.807
    1   AR   Ar  147   4.587   3.908  -0.139
    1   AR   Ar  148   1.840   5.772  -0.356
    1   AR   Ar  149   6.509   1.878  -0.430
    1   AR   Ar  150   0.640   1.975   2.313
    1   AR   Ar  151   2.951   3.190   1.870
    1   AR   Ar  152   0.826   1.569  -0.126
    1   AR   Ar  153   5.156   1.118   3.121
    1   AR   Ar  154   4.990   3.266   3.911
    1   AR   Ar  155   5.912   3.541   5.986
    1   AR   Ar  156   3.382   4.105   3.183
    1   AR   Ar  157   3.449   6.140   6.337
    1   AR   Ar  158   1.421   2.566   7.319
    1   AR   Ar  159   4.782   0.379   5.803
    1   AR   Ar  160   0.922   1.702   4.775
    1   AR   Ar  161   5.108   4.578   3.957
    1   AR   Ar  162   3.800   5.514  -1.335
    1   AR   Ar  163   6.470   4.062   2.338
    1   AR   Ar  164   2.419   5.792   2.518
    1   AR   Ar  165   3.617   4.165   0.865
    1   AR   Ar  166   3.106   3.258   5.130
    1   AR   Ar  167   5.950   0.042   4.450
    1   AR   Ar  168   5.824   4.725  -2.661
    1   AR   Ar  169   4.317   3.525   3.157
    1   AR   Ar  170   2.411   2.535   7.059
    1   AR   Ar  171   4.549   5.586   3.882
    1   AR   Ar  172   4.074   3.061   4.714
    1   AR   Ar  173   0.496   1.915   7.902
    1   AR   Ar  174   2.947   6.231   4.549
    1   AR   Ar  175   0.661   0.285   7.416
    1   AR   Ar  176   3.364   3.130   3.414
    1   AR   Ar  177   0.120   3.902  -1.739
    1   AR   Ar  178   2.341   6.628   1.284
    1   AR   Ar  179   3.330   6.050   0.569
    1   AR   Ar  180   4.824   6.019  -7.161
    1   AR   Ar  181   7.037   6.283   2.341
    1   AR   Ar  182   0.847   6.749   2.885
    1   AR   Ar  183   5.061   5.683   1.560
    1   AR   Ar  184   3.852   5.098   0.169
    1   AR   Ar  185   3.396   4.296   4.247
    1   AR   Ar  186   3.137   6.712   3.414
    1   AR   Ar  187   4.118   6.561   3.838
    1   AR   Ar  188   3.245   1.339   1.562
    1   AR   Ar  189   6.235   2.689   6.564
    1   AR   Ar  190   1.627   0.450   4.228
    1   AR   Ar  191   4.180   5.900   4.986
    1   AR   Ar  192   3.635   3.039   6.737
    1   AR   Ar  193   3.321   6.327   1.868
    1   AR   Ar  194   4.771   5.927  -0.030
    1   AR   Ar  195   6.378   1.785   1.361
    1   AR   Ar  196   4.922   6.789   1.112
    1   AR   Ar  197   4.339   2.605   0.117
    1   AR   Ar  198   6.729   6.472   0.902
    1   AR   Ar  199   7.065   0.148   2.345
    1   AR   Ar  200   5.300   2.042   0.302
    1   AR   Ar  201   6.950   5.296   3.411
    1   AR   Ar  202   5.000   0.635   4.018
    1   AR   Ar  203   0.036   7.076   3.562
    1   AR   Ar  204   5.078   5.157   7.793
    1   AR   Ar  205   5.275   1.726   2.234
    1   AR   Ar  206   6.402   0.442   6.558
    1   AR   Ar  207   0.573   4.058   4.659
    1   AR   Ar  208   0.882   5.991   3.705
    1   AR   Ar  209   5.164   2.643  -1.730
    1   AR   Ar  210   2.424   2.206  -0.056
    1   AR   Ar  211   6.904   3.100   0.402
    1   AR   Ar  212   5.856   4.521   0.405
    1   AR   Ar  213   4.060   1.473   0.435
    1   AR   Ar  214   5.759   4.600   1.591
    1   AR   Ar  215   0.376   3.158   2.476
    1   AR   Ar  216   2.119   3.090  -0.628
    1   AR   Ar  217   4.989   2.023   4.257
    1   AR   Ar  218   4.637   2.349   5.327
    1   AR   Ar  219   4.543   3.988   2.174
    1   AR   Ar  220   4.666   4.692   1.247
    1   AR   Ar  221   6.626   6.159   3.855
    1   AR   Ar  222   5.374   6.585   5.927
    1   AR   Ar  223   0.175   0.819   6.082
    1   AR   Ar  224   4.721   1.235   5.086
    1   AR   Ar  225   6.416   2.971   2.669
    1   AR   Ar  226   2.583   3.462   3.916
    1   AR   Ar  227   1.611   2.408   4.242
    1   AR   Ar  228   6.132   0.704   2.329
    1   AR   Ar  229   5.872   3.864  -0.625
    1   AR   Ar  230   4.244   4.635   3.374
    1   AR   Ar  231   4.923   2.385   3.082
    1   AR   Ar  232   5.686   3.417   2.011
    1   AR   Ar  233   6.898   1.453   2.969
    1   AR   Ar  234   6.542   3.643   4.603
    1   AR   Ar  235   6.887   0.888   4.404
    1   AR   Ar  236   4.365   4.231   4.672
    1   AR   Ar  237   4.393   1.860   7.071
    1   AR   Ar  238   4.551   4.550   5.946
    1   AR   Ar  239   1.288   4.484  10.181
    1   AR   Ar  240   1.793   3.117   6.365
    1   AR   Ar  241   0.613   6.723  -0.506
    1   AR   Ar  242   6.049   6.391   1.629
    1   AR   Ar  243   4.338   6.233   2.147
    1   AR   Ar  244   5.687   6.580   0.436
    1   AR   Ar  245   3.362   1.684   3.269
    1   AR   Ar  246   5.308   5.571  -1.328
    1   AR   Ar  247   6.749   3.637   1.287
    1   AR   Ar  248   5.888   5.066  -0.524
    1   AR   Ar  249   3.523   0.496   0.932
    1   AR   Ar  250   5.261   6.572   3.283
    1   AR   Ar  251   5.324   3.670   4.819
    1   AR   Ar  252   2.747   4.892   1.837
    1   AR   Ar  253   5.168   2.544   7.070
    1   AR   Ar  254   4.011   4.707  13.316
    1   AR   Ar  255   5.125   5.606   9.166
    1   AR   Ar  256   5.783   5.537   3.490
    7.12000  7.12000 12.00000
Argon-slab step 5785
  256
    1   AR   Ar    1   4.044   2.405  -1.377
    1   AR   Ar    2   5.986   0.235   1.113
    1   AR   Ar    3   4.660   3.734  -1.415
    1   AR   Ar    4   1.910   1.005   1.049
    1   AR   Ar    5   6.693   5.490   0.234
    1   AR   Ar    6   1.458   0.892   2.093
    1   AR   Ar    7   5.660   4.700   2.670
    1   AR   Ar    8   6.033   2.825  -0.250
    1   AR   Ar    9   7.107   5.643   4.666
    1   AR   Ar   10   5.942   4.743   5.508
    1   AR   Ar   11   0.903   6.494   5.080
    1   AR   Ar   12   6.863   1.951   4.497
    1   AR   Ar   13   6.723   6.873   5.280
    1   AR   Ar   14   4.483   1.374   6.129
    1   AR   Ar   15   2.780   5.293   9.338
    1   AR   Ar   16   0.749   6.806   6.543
    1   AR   Ar   17   5.603   3.554   0.343
    1   AR   Ar   18   6.887   4.036  -2.917
    1   AR   Ar   19   4.874   4.852   0.162
    1   AR   Ar   20   6.736   3.013  -2.244
    1   AR   Ar   21   2.370   1.054   2.538
    1   AR   Ar   22   5.074   0.389   2.141
    1   AR   Ar   23   0.700   5.672  -0.007
    1   AR   Ar   24   5.920   2.710   4.301
    1   AR   Ar   25   1.013   3.623   5.563
    1   AR   Ar   26   5.949   5.789   4.851
    1   AR   Ar   27   0.897   0.695   1.206
    1   AR   Ar   28   2.985   2.305   4.019
    1   AR   Ar   29   5.425   6.737   7.104
    1   AR   Ar   30   6.025   0.508   3.460
    1   AR   Ar   31   0.968   1.095   6.827
    1   AR   Ar   32   1.125   2.137   6.252
    1   AR   Ar   33   5.612   5.548   0.657
    1   AR   Ar   34   1.835   5.320   3.428
    1   AR   Ar   35   5.915   5.642   2.354
    1   AR   Ar   36   3.718   1.614  -3.853
    1   AR   Ar   37   4.659   3.640   1.003
    1   AR   Ar   38   6.410   4.758   4.355
    1   AR   Ar   39   0.295   3.053   4.127
    1   AR   Ar   40   0.463   4.150   2.213
    1   AR   Ar   41   0.514   1.974   3.671
    1   AR   Ar   42   5.054   4.898   4.962
    1   AR   Ar   43   0.097   3.170   6.442
    1   AR   Ar   44   1.451   4.249   3.131
    1   AR   Ar   45   2.162   3.867   5.302
    1   AR   Ar   46   6.088   5.364   6.976
    1   AR   Ar   47   2.931   3.926   7.159
    1   AR   Ar   48   0.595   3.551   7.387
    1   AR   Ar   49   7.006   2.065   0.570
    1   AR   Ar   50   2.968   4.915   0.771
    1   AR   Ar   51   5.396   3.679   3.038
    1   AR   Ar   52   5.676   3.681  -2.128
    1   AR   Ar   53   4.443   0.201   3.093
    1   AR   Ar   54   6.259   6.502   2.958
    1   AR   Ar   55   6.996   4.952   2.300
    1   AR   Ar   56   6.046   1.780   3.692
    1   AR   Ar   57   4.584   5.105   2.465
    1   AR   Ar   58   1.401   3.403   4.498
    1   AR   Ar   59   3.659   5.191   5.663
    1   AR   Ar   60   1.050   5.041   2.451
    1   AR   Ar   61   6.656   4.661   6.482
    1   AR   Ar   62   6.977   4.114   5.676
    1   AR   Ar   63   1.964   1.475   7.880
    1   AR   Ar   64   0.575   5.098   4.118
    1   AR   Ar   65   4.114   1.299   2.517
    1   AR   Ar   66   1.029   2.222   0.859
    1   AR   Ar   67   4.512   1.327  -0.756
    1   AR   Ar   68   7.037   0.815   0.701
    1   AR   Ar   69   2.339   2.711   1.146
    1   AR   Ar   70   0.022   1.184   1.781
    1   AR   Ar   71   3.487   0.606   3.109
    1   AR   Ar   72   4.473   1.013   1.506
    1   AR   Ar   73   3.217   0.251   4.308
    1   AR   Ar   74   1.342   0.722   3.266
    1   AR   Ar   75   2.889   0.766   5.548
    1   AR   Ar   76   2.813   0.124   2.129
    1   AR   Ar   77   1.226   5.686   6.620
    1   AR   Ar   78   6.984   5.819   6.302
    1   AR   Ar   79   3.799   6.739   5.374
    1   AR   Ar   80   3.647   4.033   5.884
    1   AR   Ar   81   1.372   6.193   1.952
    1   AR   Ar   82   7.029   4.642   1.093
    1   AR   Ar   83   1.548   3.255   1.320
    1   AR   Ar   84   0.951   4.477   1.082
    1   AR   Ar   85   0.238   2.536  -0.479
    1   AR   Ar   86   1.373   5.539   0.817
    1   AR   Ar   87   3.969   2.805   2.325
    1   AR   Ar   88   3.904   5.351   1.659
    1   AR   Ar   89   5.887   2.700   1.020
    1   AR   Ar   90   3.444   1.110   6.551
    1   AR   Ar   91   1.542   1.807   3.023
    1   AR   Ar   92   3.760   2.943   1.230
    1   AR   Ar   93   0.945   0.964   5.502
    1   AR   Ar   94   0.403   7.051   9.365
    1   AR   Ar   95   4.944   0.701   6.922
    1   AR   Ar   96   1.680   0.345   5.531
    1   AR   Ar   97   4.801   1.328  -1.748
    1   AR   Ar   98   1.622   4.406   4.183
    1   AR   Ar   99   5.723   6.544  -1.025
    1   AR   Ar  100   6.473   2.279  -2.943
    1   AR   Ar  101   3.898   5.663   3.067
    1   AR   Ar  102   4.199   2.000   1.490
    1   AR   Ar  103   1.671   3.938   1.998
    1   AR   Ar  104   3.236   0.657  -0.509
    1   AR   Ar  105   2.747   2.506   2.720
    1   AR   Ar  106   4.064   0.988   3.808
    1   AR   Ar  107   0.868   4.626   5.497
    1   AR   Ar  108   2.512   0.586   3.592
    1   AR   Ar  109   2.410   4.861   4.674
    1   AR   Ar  110   2.290   2.696   5.080
    1   AR   Ar  111   4.122   4.125   6.796
    1   AR   Ar  112   6.597   6.461   7.024
    1   AR   Ar  113   6.593   6.155  -1.592
    1   AR   Ar  114   2.624   7.100   0.216
    1   AR   Ar  115   6.906   4.459  -0.360
    1   AR   Ar  116   5.642   1.234   0.856
    1   AR   Ar  117   0.324   4.323   3.348
    1   AR   Ar  118   2.152   6.493   3.799
    1   AR   Ar  119   1.839   2.957   2.682
    1   AR   Ar  120   1.917   7.113   2.892
    1   AR   Ar  121   5.434   4.247   7.218
    1   AR   Ar  122   2.872   5.047   3.376
    1   AR   Ar  123   3.452   2.285   4.942
    1   AR   Ar  124   0.462   5.978   1.337
    1   AR   Ar  125   6.266   4.146   3.423
    1   AR   Ar  126   7.071   1.278   7.029
    1   AR   Ar  127   4.346   3.321   5.774
    1   AR   Ar  128   0.992   4.373   6.939
    1   AR   Ar  129   1.398   5.671   4.654
    1   AR   Ar  130   5.689   0.616  -4.531
    1   AR   Ar  131   4.171   6.954  -0.031
    1   AR   Ar  132   1.718   2.280   1.851
    1   AR   Ar  133   4.223   0.322   4.681
    1   AR   Ar  134   3.405   1.345   4.751
    1   AR   Ar  135   5.832   0.430   5.513
    1   AR   Ar  136   5.294   6.481   2.291
    1   AR   Ar  137   2.532   4.925   5.927
    1   AR   Ar  138   5.778   1.342   6.125
    1   AR   Ar  139   6.218   2.671   5.284
    1   AR   Ar  140   5.099   6.572   4.864
    1   AR   Ar  141   3.408   5.293   4.360
    1   AR   Ar  142   3.997   5.938   8.780
    1   AR   Ar  143   5.037   6.436   8.174
    1   AR   Ar  144   0.057   3.180   5.178
    1   AR   Ar  145   4.780   4.677  -2.000
    1   AR   Ar  146   3.950   2.268   3.798
    1   AR   Ar  147   4.602   3.899  -0.118
    1   AR   Ar  148   1.821   5.773  -0.361
    1   AR   Ar  149   6.514   1.874  -0.423
    1   AR   Ar  150   0.667   1.972   2.320
    1   AR   Ar  151   2.944   3.177   1.887
    1   AR   Ar  152   0.817   1.535  -0.114
    1   AR   Ar  153   5.117   1.111   3.139
    1   AR   Ar  154   4.956   3.233   3.924
    1   AR   Ar  155   5.860   3.553   5.974
    1   AR   Ar  156   3.401   4.105   3.210
    1   AR   Ar  157   3.434   6.127   6.359
    1   AR   Ar  158   1.446   2.549   7.313
    1   AR   Ar  159   4.753   0.401   5.807
    1   AR   Ar  160   0.943   1.694   4.769
    1   AR   Ar  161   5.119   4.589   3.938
    1   AR   Ar  162   3.767   5.521  -1.335
    1   AR   Ar  163   6.464   4.067   2.354
    1   AR   Ar  164   2.420   5.776   2.519
    1   AR   Ar  165   3.639   4.159   0.845
    1   AR   Ar  166   3.111   3.274   5.112
    1   AR   Ar  167   5.922   0.062   4.457
    1   AR   Ar  168   5.834   4.727  -2.667
    1   AR   Ar  169   4.315   3.503   3.121
    1   AR   Ar  170   2.450   2.547   7.068
    1   AR   Ar  171   4.553   5.586   3.873
    1   AR   Ar  172   4.086   3.051   4.701
    1   AR   Ar  173   0.492   1.937   7.904
    1   AR   Ar  174   2.955   6.250   4.538
    1   AR   Ar  175   0.696   0.287   7.453
    1   AR   Ar  176   3.368   3.119   3.413
    1   AR   Ar  177   0.123   3.876  -1.740
    1   AR   Ar  178   2.318   6.592   1.284
    1   AR   Ar  179   3.337   6.023   0.525
    1   AR   Ar  180   4.847   6.008  -7.139
    1   AR   Ar  181   7.078   6.298   2.369
    1   AR   Ar  182   0.828   6.718   2.881
    1   AR   Ar  183   5.081   5.653   1.549
    1   AR   Ar  184   3.811   5.089   0.142
    1   AR   Ar  185   3.405   4.258   4.266
    1   AR   Ar  186   3.126   6.719   3.388
    1   AR   Ar  187   4.118   6.567   3.836
    1   AR   Ar  188   3.243   1.320   1.548
    1   AR   Ar  189   6.238   2.693   6.548
    1   AR   Ar  190   1.601   0.478   4.234
    1   AR   Ar  191   4.197   5.892   4.983
    1   AR   Ar  192   3.642   3.003   6.740
    1   AR   Ar  193   3.330   6.294   1.877
    1   AR   Ar  194   4.737   5.940  -0.048
    1   AR   Ar  195   6.376   1.808   1.387
    1   AR   Ar  196   4.934   6.790   1.115
    1   AR   Ar  197   4.396   2.635   0.075
    1   AR   Ar  198   6.730   6.478   0.860
    1   AR   Ar  199   7.056   0.143   2.361
    1   AR   Ar  200   5.309   2.022   0.316
    1   AR   Ar  201   6.929   5.300   3.391
    1   AR   Ar  202   5.007   0.664   4.050
    1   AR   Ar  203   0.047   7.081   3.527
    1   AR   Ar  204   5.060   5.171   7.796
    1   AR   Ar  205   5.265   1.758   2.211
    1   AR   Ar  206   6.401   0.451   6.557
    1   AR   Ar  207   0.584   4.046   4.676
    1   AR   Ar  208   0.877   5.974   3.745
    1   AR   Ar  209   5.139   2.632  -1.716
    1   AR   Ar  210   2.456   2.230  -0.063
    1   AR   Ar  211   6.898   3.106   0.380
    1   AR   Ar  212   5.820   4.541   0.406
    1   AR   Ar  213   4.059   1.492   0.459
    1   AR   Ar  214   5.741   4.554   1.596
    1   AR   Ar  215   0.362   3.157   2.456
    1   AR   Ar  216   2.091   3.102  -0.640
    1   AR   Ar  217   4.988   2.031   4.276
    1   AR   Ar  218   4.612   2.348   5.317
    1   AR   Ar  219   4.520   4.011   2.131
    1   AR   Ar  220   4.637   4.729   1.221
    1   AR   Ar  221   6.655   6.146   3.848
    1   AR   Ar  222   5.404   6.584   5.929
    1   AR   Ar  223   0.176   0.784   6.067
    1   AR   Ar  224   4.699   1.247   5.111
    1   AR   Ar  225   6.421   2.993   2.657
    1   AR   Ar  226   2.555   3.464   3.923
    1   AR   Ar  227   1.644   2.412   4.249
    1   AR   Ar  228   6.105   0.660   2.350
    1   AR   Ar  229   5.845   3.861  -0.617
    1   AR   Ar  230   4.259   4.653   3.411
    1   AR   Ar  231   4.946   2.368   3.083
    1   AR   Ar  232   5.710   3.414   2.012
    1   AR   Ar  233   6.887   1.442   2.947
    1   AR   Ar  234   6.516   3.657   4.615
    1   AR   Ar  235   6.906   0.876   4.401
    1   AR   Ar  236   4.375   4.210   4.675
    1   AR   Ar  237   4.375   1.856   7.079
    1   AR   Ar  238   4.576   4.531   5.977
    1   AR   Ar  239   1.299   4.471  10.192
    1   AR   Ar  240   1.761   3.143   6.340
    1   AR   Ar  241   0.632   6.728  -0.502
    1   AR   Ar  242   6.041   6.352   1.631
    1   AR   Ar  243   4.332   6.250   2.143
    1   AR   Ar  244   5.682   6.586   0.433
    1   AR   Ar  245   3.344   1.701   3.259
    1   AR   Ar  246   5.329   5.601  -1.322
    1   AR   Ar  247   6.780   3.643   1.305
    1   AR   Ar  248   5.872   5.102  -0.518
    1   AR   Ar  249   3.529   0.480   0.904
    1   AR   Ar  250   5.288   6.573   3.294
    1   AR   Ar  251   5.323   3.667   4.821
    1   AR   Ar  252   2.769   4.896   1.807
    1   AR   Ar  253   5.177   2.562   7.053
    1   AR   Ar  254   4.009   4.695  13.322
    1   AR   Ar  255   5.105   5.622   9.178
    1   AR   Ar  256   5.758   5.542   3.486
    7.12000  7.12000 12.00000
Argon-slab step 5790
  256
    1   AR   Ar    1   4.060   2.417  -1.352
    1   AR   Ar    2   5.957   0.229   1.112
    1   AR   Ar    3   4.645   3.738  -1.410
    1   AR   Ar    4   1.903   1.011   1.019
    1   AR   Ar    5   6.687   5.503   0.251
    1   AR   Ar    6   1.425   0.874   2.054
    1   AR   Ar    7   5.629   4.720   2.630
    1   AR   Ar    8   6.039   2.800  -0.257
    1   AR   Ar    9   7.057   5.641   4.655
    1   AR   Ar   10   5.958   4.760   5.536
    1   AR   Ar   11   0.911   6.530   5.055
    1   AR   Ar   12   6.866   1.974   4.496
    1   AR   Ar   13   6.708   6.873   5.263
    1   AR   Ar   14   4.495   1.396   6.134
    1   AR   Ar   15   2.807   5.305   9.324
    1   AR   Ar   16   0.766   6.831   6.547
    1   AR   Ar   17   5.583   3.529   0.363
    1   AR   Ar   18   6.882   4.057  -2.932
    1   AR   Ar   19   4.868   4.832   0.129
    1   AR   Ar   20   6.741   3.020  -2.286
    1   AR   Ar   21   2.379   1.054   2.528
    1   AR   Ar   22   5.082   0.378   2.146
    1   AR   Ar   23   0.711   5.671  -0.023
    1   AR   Ar   24   5.935   2.722   4.322
    1   AR   Ar   25   1.013   3.617   5.562
    1   AR   Ar   26   5.952   5.781   4.855
    1   AR   Ar   27   0.912   0.710   1.181
    1   AR   Ar   28   2.988   2.317   4.038
    1   AR   Ar   29   5.417   6.727   7.084
    1   AR   Ar   30   6.018   0.480   3.466
    1   AR   Ar   31   0.975   1.101   6.829
    1   AR   Ar   32   1.125   2.142   6.254
    1   AR   Ar   33   5.621   5.551   0.669
    1   AR   Ar   34   1.866   5.311   3.424
    1   AR   Ar   35   5.920   5.639   2.359
    1   AR   Ar   36   3.741   1.632  -3.860
    1   AR   Ar   37   4.640   3.626   0.977
    1   AR   Ar   38   6.385   4.789   4.356
    1   AR   Ar   39   0.266   3.096   4.133
    1   AR   Ar   40   0.470   4.183   2.220
    1   AR   Ar   41   0.487   1.952   3.683
    1   AR   Ar   42   5.042   4.890   4.983
    1   AR   Ar   43   0.114   3.178   6.452
    1   AR   Ar   44   1.447   4.277   3.116
    1   AR   Ar   45   2.173   3.873   5.289
    1   AR   Ar   46   6.077   5.387   6.963
    1   AR   Ar   47   2.917   3.922   7.133
    1   AR   Ar   48   0.611   3.533   7.352
    1   AR   Ar   49   7.007   2.070   0.549
    1   AR   Ar   50   2.962   4.893   0.762
    1   AR   Ar   51   5.386   3.652   3.066
    1   AR   Ar   52   5.659   3.712  -2.128
    1   AR   Ar   53   4.419   0.194   3.115
    1   AR   Ar   54   6.251   6.541   2.930
    1   AR   Ar   55   7.039   4.943   2.333
    1   AR   Ar   56   6.074   1.790   3.692
    1   AR   Ar   57   4.595   5.144   2.468
    1   AR   Ar   58   1.420   3.385   4.488
    1   AR   Ar   59   3.671   5.204   5.694
    1   AR   Ar   60   1.065   5.031   2.447
    1   AR   Ar   61   6.658   4.686   6.470
    1   AR   Ar   62   6.953   4.107   5.662
    1   AR   Ar   63   1.977   1.485   7.916
    1   AR   Ar   64   0.597   5.084   4.122
    1   AR   Ar   65   4.090   1.273   2.547
    1   AR   Ar   66   1.002   2.201   0.812
    1   AR   Ar   67   4.502   1.352  -0.772
    1   AR   Ar   68   7.057   0.834   0.719
    1   AR   Ar   69   2.361   2.694   1.147
    1   AR   Ar   70   7.114   1.177   1.767
    1   AR   Ar   71   3.442   0.606   3.125
    1   AR   Ar   72   4.445   0.981   1.500
    1   AR   Ar   73   3.240   0.244   4.305
    1   AR   Ar   74   1.328   0.722   3.300
    1   AR   Ar   75   2.916   0.758   5.568
    1   AR   Ar   76   2.806   0.091   2.123
    1   AR   Ar   77   1.225   5.687   6.618
    1   AR   Ar   78   6.970   5.802   6.266
    1   AR   Ar   79   3.806   6.758   5.349
    1   AR   Ar   80   3.673   4.040   5.929
    1   AR   Ar   81   1.381   6.161   1.959
    1   AR   Ar   82   7.042   4.680   1.071
    1   AR   Ar   83   1.569   3.267   1.306
    1   AR   Ar   84   0.943   4.501   1.082
    1   AR   Ar   85   0.261   2.555  -0.513
    1   AR   Ar   86   1.369   5.521   0.814
    1   AR   Ar   87   3.980   2.766   2.349
    1   AR   Ar   88   3.875   5.340   1.658
    1   AR   Ar   89   5.889   2.721   1.016
    1   AR   Ar   90   3.452   1.107   6.575
    1   AR   Ar   91   1.551   1.811   3.011
    1   AR   Ar   92   3.755   2.966   1.207
    1   AR   Ar   93   0.953   0.982   5.482
    1   AR   Ar   94   0.394   7.038   9.380
    1   AR   Ar   95   4.923   0.672   6.914
    1   AR   Ar   96   1.655   0.361   5.535
    1   AR   Ar   97   4.830   1.307  -1.753
    1   AR   Ar   98   1.624   4.407   4.166
    1   AR   Ar   99   5.730   6.562  -1.009
    1   AR   Ar  100   6.479   2.277  -2.935
    1   AR   Ar  101   3.893   5.671   3.072
    1   AR   Ar  102   4.189   2.024   1.501
    1   AR   Ar  103   1.655   3.927   1.992
    1   AR   Ar  104   3.260   0.693  -0.509
    1   AR   Ar  105   2.721   2.516   2.770
    1   AR   Ar  106   4.125   1.004   3.801
    1   AR   Ar  107   0.896   4.630   5.500
    1   AR   Ar  108   2.504   0.605   3.589
    1   AR   Ar  109   2.408   4.860   4.680
    1   AR   Ar  110   2.310   2.727   5.073
    1   AR   Ar  111   4.095   4.126   6.820
    1   AR   Ar  112   6.606   6.479   7.027
    1   AR   Ar  113   6.571   6.175  -1.590
    1   AR   Ar  114   2.656   7.114   0.236
    1   AR   Ar  115   6.890   4.473  -0.338
    1   AR   Ar  116   5.641   1.228   0.880
    1   AR   Ar  117   0.320   4.338   3.323
    1   AR   Ar  118   2.137   6.481   3.790
    1   AR   Ar  119   1.843   2.948   2.683
    1   AR   Ar  120   1.934   7.106   2.884
    1   AR   Ar  121   5.452   4.269   7.248
    1   AR   Ar  122   2.874   5.037   3.384
    1   AR   Ar  123   3.467   2.315   4.947
    1   AR   Ar  124   0.453   5.976   1.339
    1   AR   Ar  125   6.256   4.174   3.427
    1   AR   Ar  126   7.037   1.293   7.023
    1   AR   Ar  127   4.328   3.310   5.794
    1   AR   Ar  128   1.003   4.393   6.949
    1   AR   Ar  129   1.398   5.674   4.651
    1   AR   Ar  130   5.718   0.654  -4.561
    1   AR   Ar  131   4.185   7.005  -0.016
    1   AR   Ar  132   1.702   2.273   1.852
    1   AR   Ar  133   4.222   0.322   4.640
    1   AR   Ar  134   3.428   1.312   4.747
    1   AR   Ar  135   5.840   0.434   5.526
    1   AR   Ar  136   5.301   6.484   2.278
    1   AR   Ar  137   2.530   4.919   5.944
    1   AR   Ar  138   5.776   1.350   6.125
    1   AR   Ar  139   6.230   2.663   5.296
    1   AR   Ar  140   5.103   6.574   4.870
    1   AR   Ar  141   3.401   5.317   4.350
    1   AR   Ar  142   4.009   5.928   8.788
    1   AR   Ar  143   5.038   6.450   8.164
    1   AR   Ar  144   0.049   3.193   5.142
    1   AR   Ar  145   4.780   4.695  -1.991
    1   AR   Ar  146   3.954   2.259   3.793
    1   AR   Ar  147   4.616   3.884  -0.097
    1   AR   Ar  148   1.800   5.774  -0.365
    1   AR   Ar  149   6.519   1.868  -0.415
    1   AR   Ar  150   0.694   1.969   2.328
    1   AR   Ar  151   2.938   3.165   1.906
    1   AR   Ar  152   0.808   1.503  -0.099
    1   AR   Ar  153   5.077   1.106   3.151
    1   AR   Ar  154   4.922   3.198   3.937
    1   AR   Ar  155   5.808   3.566   5.960
    1   AR   Ar  156   3.416   4.110   3.233
    1   AR   Ar  157   3.419   6.112   6.379
    1   AR   Ar  158   1.465   2.532   7.307
    1   AR   Ar  159   4.724   0.419   5.811
    1   AR   Ar  160   0.963   1.690   4.759
    1   AR   Ar  161   5.139   4.598   3.920
    1   AR   Ar  162   3.736   5.529  -1.335
    1   AR   Ar  163   6.460   4.069   2.370
    1   AR   Ar  164   2.422   5.760   2.520
    1   AR   Ar  165   3.667   4.148   0.827
    1   AR   Ar  166   3.121   3.299   5.094
    1   AR   Ar  167   5.895   0.081   4.463
    1   AR   Ar  168   5.844   4.727  -2.672
    1   AR   Ar  169   4.314   3.482   3.084
    1   AR   Ar  170   2.493   2.560   7.075
    1   AR   Ar  171   4.562   5.585   3.869
    1   AR   Ar  172   4.102   3.047   4.683
    1   AR   Ar  173   0.485   1.960   7.911
    1   AR   Ar  174   2.965   6.271   4.527
    1   AR   Ar  175   0.730   0.287   7.491
    1   AR   Ar  176   3.376   3.099   3.410
    1   AR   Ar  177   0.126   3.849  -1.741
    1   AR   Ar  178   2.296   6.556   1.285
    1   AR   Ar  179   3.344   5.997   0.484
    1   AR   Ar  180   4.870   5.997  -7.117
    1   AR   Ar  181   7.085   6.312   2.360
    1   AR   Ar  182   0.811   6.686   2.876
    1   AR   Ar  183   5.100   5.626   1.543
    1   AR   Ar  184   3.773   5.080   0.115
    1   AR   Ar  185   3.410   4.214   4.284
    1   AR   Ar  186   3.116   6.725   3.361
    1   AR   Ar  187   4.118   6.575   3.836
    1   AR   Ar  188   3.242   1.301   1.535
    1   AR   Ar  189   6.239   2.695   6.531
    1   AR   Ar  190   1.577   0.505   4.246
    1   AR   Ar  191   4.217   5.878   4.974
    1   AR   Ar  192   3.650   2.968   6.742
    1   AR   Ar  193   3.334   6.261   1.885
    1   AR   Ar  194   4.705   5.954  -0.065
    1   AR   Ar  195   6.371   1.832   1.415
    1   AR   Ar  196   4.943   6.792   1.124
    1   AR   Ar  197   4.454   2.666   0.034
    1   AR   Ar  198   6.733   6.485   0.814
    1   AR   Ar  199   7.047   0.155   2.378
    1   AR   Ar  200   5.316   2.008   0.326
    1   AR   Ar  201   6.907   5.301   3.382
    1   AR   Ar  202   5.021   0.687   4.087
    1   AR   Ar  203   0.055   7.086   3.492
    1   AR   Ar  204   5.043   5.185   7.800
    1   AR   Ar  205   5.255   1.787   2.187
    1   AR   Ar  206   6.398   0.458   6.557
    1   AR   Ar  207   0.590   4.035   4.688
    1   AR   Ar  208   0.874   5.966   3.780
    1   AR   Ar  209   5.113   2.622  -1.702
    1   AR   Ar  210   2.459   2.239  -0.079
    1   AR   Ar  211   6.887   3.114   0.361
    1   AR   Ar  212   5.813   4.573   0.399
    1   AR   Ar  213   4.059   1.511   0.484
    1   AR   Ar  214   5.722   4.509   1.599
    1   AR   Ar  215   0.348   3.151   2.436
    1   AR   Ar  216   2.063   3.114  -0.653
    1   AR   Ar  217   4.951   2.048   4.284
    1   AR   Ar  218   4.588   2.346   5.308
    1   AR   Ar  219   4.498   4.035   2.087
    1   AR   Ar  220   4.610   4.763   1.195
    1   AR   Ar  221   6.686   6.134   3.836
    1   AR   Ar  222   5.436   6.583   5.932
    1   AR   Ar  223   0.166   0.745   6.060
    1   AR   Ar  224   4.677   1.259   5.130
    1   AR   Ar  225   6.426   3.013   2.647
    1   AR   Ar  226   2.522   3.469   3.935
    1   AR   Ar  227   1.677   2.412   4.253
    1   AR   Ar  228   6.078   0.618   2.371
    1   AR   Ar  229   5.817   3.861  -0.613
    1   AR   Ar  230   4.258   4.673   3.418
    1   AR   Ar  231   4.969   2.353   3.085
    1   AR   Ar  232   5.729   3.412   2.008
    1   AR   Ar  233   6.876   1.430   2.925
    1   AR   Ar  234   6.482   3.675   4.620
    1   AR   Ar  235   6.925   0.862   4.396
    1   AR   Ar  236   4.380   4.184   4.676
    1   AR   Ar  237   4.354   1.851   7.087
    1   AR   Ar  238   4.606   4.515   6.001
    1   AR   Ar  239   1.307   4.487  10.186
    1   AR   Ar  240   1.721   3.171   6.311
    1   AR   Ar  241   0.651   6.732  -0.498
    1   AR   Ar  242   6.038   6.315   1.625
    1   AR   Ar  243   4.325   6.254   2.143
    1   AR   Ar  244   5.679   6.591   0.425
    1   AR   Ar  245   3.321   1.708   3.241
    1   AR   Ar  246   5.348   5.629  -1.318
    1   AR   Ar  247   6.813   3.645   1.322
    1   AR   Ar  248   5.855   5.137  -0.511
    1   AR   Ar  249   3.536   0.463   0.874
    1   AR   Ar  250   5.309   6.576   3.315
    1   AR   Ar  251   5.324   3.666   4.825
    1   AR   Ar  252   2.791   4.900   1.781
    1   AR   Ar  253   5.189   2.582   7.035
    1   AR   Ar  254   4.007   4.682  13.328
    1   AR   Ar  255   5.085   5.638   9.188
    1   AR   Ar  256   5.733   5.546   3.483
    7.12000  7.12000 12.00000
Argon-slab step 5795
  256
    1   AR   Ar    1   4.076   2.428  -1.327
    1   AR   Ar    2   5.931   0.222   1.116
    1   AR   Ar    3   4.632   3.740  -1.405
    1   AR   Ar    4   1.902   1.015   0.998
    1   AR   Ar    5   6.680   5.514   0.269
    1   AR   Ar    6   1.392   0.857   2.022
    1   AR   Ar    7   5.594   4.733   2.597
    1   AR   Ar    8   6.043   2.775  -0.264
    1   AR   Ar    9   7.006   5.641   4.653
    1   AR   Ar   10   5.975   4.775   5.564
    1   AR   Ar   11   0.918   6.569   5.030
    1   AR   Ar   12   6.859   1.963   4.489
    1   AR   Ar   13   6.662   6.871   5.229
    1   AR   Ar   14   4.507   1.421   6.143
    1   AR   Ar   15   2.834   5.317   9.310
    1   AR   Ar   16   0.781   6.856   6.550
    1   AR   Ar   17   5.561   3.504   0.386
    1   AR   Ar   18   6.888   4.071  -2.934
    1   AR   Ar   19   4.871   4.841   0.176
    1   AR   Ar   20   6.747   3.032  -2.324
    1   AR   Ar   21   2.397   1.071   2.512
    1   AR   Ar   22   5.096   0.354   2.137
    1   AR   Ar   23   0.719   5.672  -0.038
    1   AR   Ar   24   5.947   2.735   4.338
    1   AR   Ar   25   1.014   3.603   5.564
    1   AR   Ar   26   5.955   5.773   4.859
    1   AR   Ar   27   0.922   0.724   1.153
    1   AR   Ar   28   3.007   2.313   4.043
    1   AR   Ar   29   5.409   6.718   7.064
    1   AR   Ar   30   6.011   0.452   3.471
    1   AR   Ar   31   0.982   1.108   6.829
    1   AR   Ar   32   1.125   2.147   6.257
    1   AR   Ar   33   5.633   5.557   0.678
    1   AR   Ar   34   1.891   5.303   3.422
    1   AR   Ar   35   5.929   5.635   2.368
    1   AR   Ar   36   3.764   1.649  -3.866
    1   AR   Ar   37   4.623   3.612   0.953
    1   AR   Ar   38   6.361   4.821   4.356
    1   AR   Ar   39   0.237   3.138   4.136
    1   AR   Ar   40   0.490   4.197   2.221
    1   AR   Ar   41   0.461   1.930   3.693
    1   AR   Ar   42   5.033   4.887   5.005
    1   AR   Ar   43   0.126   3.186   6.464
    1   AR   Ar   44   1.443   4.304   3.100
    1   AR   Ar   45   2.182   3.878   5.275
    1   AR   Ar   46   6.063   5.414   6.952
    1   AR   Ar   47   2.905   3.918   7.105
    1   AR   Ar   48   0.612   3.521   7.328
    1   AR   Ar   49   7.010   2.073   0.528
    1   AR   Ar   50   2.952   4.875   0.749
    1   AR   Ar   51   5.378   3.624   3.091
    1   AR   Ar   52   5.641   3.743  -2.127
    1   AR   Ar   53   4.400   0.186   3.135
    1   AR   Ar   54   6.230   6.572   2.891
    1   AR   Ar   55   7.070   4.957   2.368
    1   AR   Ar   56   6.101   1.799   3.690
    1   AR   Ar   57   4.609   5.183   2.468
    1   AR   Ar   58   1.439   3.369   4.480
    1   AR   Ar   59   3.687   5.211   5.718
    1   AR   Ar   60   1.080   5.025   2.442
    1   AR   Ar   61   6.661   4.710   6.457
    1   AR   Ar   62   6.931   4.098   5.644
    1   AR   Ar   63   1.969   1.488   7.906
    1   AR   Ar   64   0.622   5.054   4.126
    1   AR   Ar   65   4.069   1.247   2.577
    1   AR   Ar   66   0.975   2.179   0.767
    1   AR   Ar   67   4.491   1.379  -0.783
    1   AR   Ar   68   7.062   0.851   0.748
    1   AR   Ar   69   2.392   2.670   1.142
    1   AR   Ar   70   7.112   1.187   1.800
    1   AR   Ar   71   3.394   0.605   3.136
    1   AR   Ar   72   4.435   0.964   1.504
    1   AR   Ar   73   3.261   0.236   4.299
    1   AR   Ar   74   1.309   0.726   3.327
    1   AR   Ar   75   2.944   0.748   5.588
    1   AR   Ar   76   2.797   0.058   2.118
    1   AR   Ar   77   1.223   5.688   6.615
    1   AR   Ar   78   6.955   5.784   6.229
    1   AR   Ar   79   3.811   6.779   5.331
    1   AR   Ar   80   3.682   4.052   5.964
    1   AR   Ar   81   1.397   6.141   1.941
    1   AR   Ar   82   7.049   4.722   1.049
    1   AR   Ar   83   1.581   3.276   1.284
    1   AR   Ar   84   0.948   4.545   1.080
    1   AR   Ar   85   0.284   2.573  -0.546
    1   AR   Ar   86   1.365   5.503   0.814
    1   AR   Ar   87   3.990   2.727   2.373
    1   AR   Ar   88   3.843   5.331   1.658
    1   AR   Ar   89   5.892   2.742   1.013
    1   AR   Ar   90   3.448   1.116   6.594
    1   AR   Ar   91   1.560   1.815   2.998
    1   AR   Ar   92   3.751   2.991   1.183
    1   AR   Ar   93   0.980   1.009   5.480
    1   AR   Ar   94   0.381   7.024   9.400
    1   AR   Ar   95   4.902   0.644   6.903
    1   AR   Ar   96   1.650   0.359   5.540
    1   AR   Ar   97   4.861   1.288  -1.762
    1   AR   Ar   98   1.622   4.408   4.148
    1   AR   Ar   99   5.738   6.582  -0.991
    1   AR   Ar  100   6.472   2.277  -2.938
    1   AR   Ar  101   3.882   5.682   3.076
    1   AR   Ar  102   4.180   2.049   1.513
    1   AR   Ar  103   1.641   3.930   2.002
    1   AR   Ar  104   3.284   0.728  -0.508
    1   AR   Ar  105   2.706   2.518   2.820
    1   AR   Ar  106   4.178   1.029   3.795
    1   AR   Ar  107   0.924   4.641   5.504
    1   AR   Ar  108   2.493   0.625   3.586
    1   AR   Ar  109   2.410   4.861   4.689
    1   AR   Ar  110   2.324   2.753   5.065
    1   AR   Ar  111   4.070   4.125   6.856
    1   AR   Ar  112   6.614   6.498   7.031
    1   AR   Ar  113   6.549   6.194  -1.587
    1   AR   Ar  114   2.689   0.008   0.258
    1   AR   Ar  115   6.871   4.489  -0.315
    1   AR   Ar  116   5.641   1.218   0.908
    1   AR   Ar  117   0.316   4.353   3.298
    1   AR   Ar  118   2.121   6.468   3.782
    1   AR   Ar  119   1.834   2.948   2.684
    1   AR   Ar  120   1.928   7.112   2.895
    1   AR   Ar  121   5.470   4.292   7.277
    1   AR   Ar  122   2.879   5.028   3.392
    1   AR   Ar  123   3.482   2.342   4.960
    1   AR   Ar  124   0.425   5.992   1.361
    1   AR   Ar  125   6.248   4.204   3.433
    1   AR   Ar  126   7.002   1.307   7.017
    1   AR   Ar  127   4.318   3.292   5.812
    1   AR   Ar  128   1.003   4.397   6.943
    1   AR   Ar  129   1.402   5.673   4.649
    1   AR   Ar  130   5.747   0.691  -4.590
    1   AR   Ar  131   4.198   7.055   0.002
    1   AR   Ar  132   1.683   2.263   1.854
    1   AR   Ar  133   4.224   0.322   4.604
    1   AR   Ar  134   3.452   1.271   4.740
    1   AR   Ar  135   5.848   0.437   5.539
    1   AR   Ar  136   5.306   6.490   2.269
    1   AR   Ar  137   2.527   4.894   5.958
    1   AR   Ar  138   5.774   1.358   6.125
    1   AR   Ar  139   6.242   2.657   5.315
    1   AR   Ar  140   5.104   6.577   4.875
    1   AR   Ar  141   3.397   5.340   4.339
    1   AR   Ar  142   4.024   5.917   8.796
    1   AR   Ar  143   5.039   6.463   8.154
    1   AR   Ar  144   0.049   3.199   5.117
    1   AR   Ar  145   4.781   4.712  -1.981
    1   AR   Ar  146   3.975   2.253   3.793
    1   AR   Ar  147   4.630   3.862  -0.079
    1   AR   Ar  148   1.778   5.776  -0.367
    1   AR   Ar  149   6.523   1.859  -0.407
    1   AR   Ar  150   0.720   1.966   2.335
    1   AR   Ar  151   2.931   3.155   1.929
    1   AR   Ar  152   0.797   1.472  -0.083
    1   AR   Ar  153   5.039   1.105   3.158
    1   AR   Ar  154   4.887   3.160   3.952
    1   AR   Ar  155   5.756   3.581   5.944
    1   AR   Ar  156   3.426   4.115   3.251
    1   AR   Ar  157   3.405   6.098   6.398
    1   AR   Ar  158   1.480   2.515   7.301
    1   AR   Ar  159   4.697   0.432   5.813
    1   AR   Ar  160   0.983   1.691   4.742
    1   AR   Ar  161   5.167   4.605   3.904
    1   AR   Ar  162   3.705   5.536  -1.334
    1   AR   Ar  163   6.460   4.072   2.386
    1   AR   Ar  164   2.424   5.745   2.521
    1   AR   Ar  165   3.701   4.134   0.810
    1   AR   Ar  166   3.139   3.335   5.076
    1   AR   Ar  167   5.869   0.100   4.471
    1   AR   Ar  168   5.854   4.726  -2.676
    1   AR   Ar  169   4.314   3.464   3.046
    1   AR   Ar  170   2.540   2.574   7.081
    1   AR   Ar  171   4.576   5.585   3.869
    1   AR   Ar  172   4.123   3.052   4.660
    1   AR   Ar  173   0.480   1.981   7.916
    1   AR   Ar  174   2.975   6.295   4.516
    1   AR   Ar  175   0.762   0.287   7.530
    1   AR   Ar  176   3.385   3.074   3.407
    1   AR   Ar  177   0.128   3.822  -1.743
    1   AR   Ar  178   2.275   6.519   1.287
    1   AR   Ar  179   3.351   5.973   0.444
    1   AR   Ar  180   4.893   5.986  -7.095
    1   AR   Ar  181   7.071   6.319   2.325
    1   AR   Ar  182   0.800   6.654   2.870
    1   AR   Ar  183   5.117   5.601   1.544
    1   AR   Ar  184   3.738   5.070   0.086
    1   AR   Ar  185   3.410   4.170   4.304
    1   AR   Ar  186   3.105   6.730   3.333
    1   AR   Ar  187   4.116   6.583   3.838
    1   AR   Ar  188   3.242   1.282   1.524
    1   AR   Ar  189   6.239   2.697   6.513
    1   AR   Ar  190   1.555   0.529   4.267
    1   AR   Ar  191   4.238   5.859   4.963
    1   AR   Ar  192   3.657   2.934   6.743
    1   AR   Ar  193   3.331   6.227   1.892
    1   AR   Ar  194   4.674   5.966  -0.081
    1   AR   Ar  195   6.366   1.857   1.444
    1   AR   Ar  196   4.950   6.793   1.137
    1   AR   Ar  197   4.511   2.697  -0.006
    1   AR   Ar  198   6.736   6.493   0.768
    1   AR   Ar  199   7.038   0.184   2.396
    1   AR   Ar  200   5.321   2.001   0.331
    1   AR   Ar  201   6.887   5.291   3.366
    1   AR   Ar  202   5.048   0.707   4.130
    1   AR   Ar  203   0.060   7.093   3.458
    1   AR   Ar  204   5.026   5.200   7.803
    1   AR   Ar  205   5.245   1.815   2.162
    1   AR   Ar  206   6.391   0.463   6.557
    1   AR   Ar  207   0.591   4.026   4.694
    1   AR   Ar  208   0.872   5.969   3.808
    1   AR   Ar  209   5.087   2.612  -1.688
    1   AR   Ar  210   2.462   2.247  -0.094
    1   AR   Ar  211   6.874   3.124   0.341
    1   AR   Ar  212   5.814   4.600   0.394
    1   AR   Ar  213   4.060   1.530   0.510
    1   AR   Ar  214   5.703   4.463   1.599
    1   AR   Ar  215   0.337   3.143   2.417
    1   AR   Ar  216   2.035   3.126  -0.665
    1   AR   Ar  217   4.915   2.065   4.291
    1   AR   Ar  218   4.565   2.342   5.300
    1   AR   Ar  219   4.497   4.005   2.104
    1   AR   Ar  220   4.584   4.792   1.167
    1   AR   Ar  221   6.713   6.137   3.828
    1   AR   Ar  222   5.467   6.583   5.936
    1   AR   Ar  223   0.151   0.703   6.056
    1   AR   Ar  224   4.656   1.271   5.141
    1   AR   Ar  225   6.415   3.027   2.652
    1   AR   Ar  226   2.487   3.474   3.949
    1   AR   Ar  227   1.711   2.408   4.253
    1   AR   Ar  228   6.074   0.563   2.393
    1   AR   Ar  229   5.790   3.864  -0.610
    1   AR   Ar  230   4.246   4.693   3.406
    1   AR   Ar  231   4.989   2.338   3.090
    1   AR   Ar  232   5.741   3.410   1.998
    1   AR   Ar  233   6.865   1.416   2.902
    1   AR   Ar  234   6.484   3.730   4.643
    1   AR   Ar  235   6.943   0.847   4.391
    1   AR   Ar  236   4.383   4.152   4.677
    1   AR   Ar  237   4.333   1.846   7.097
    1   AR   Ar  238   4.642   4.501   6.021
    1   AR   Ar  239   1.312   4.524  10.169
    1   AR   Ar  240   1.681   3.199   6.283
    1   AR   Ar  241   0.670   6.735  -0.493
    1   AR   Ar  242   6.026   6.310   1.628
    1   AR   Ar  243   4.325   6.211   2.151
    1   AR   Ar  244   5.678   6.594   0.412
    1   AR   Ar  245   3.328   1.717   3.241
    1   AR   Ar  246   5.365   5.655  -1.315
    1   AR   Ar  247   6.845   3.646   1.342
    1   AR   Ar  248   5.840   5.173  -0.502
    1   AR   Ar  249   3.544   0.446   0.844
    1   AR   Ar  250   5.324   6.580   3.344
    1   AR   Ar  251   5.327   3.665   4.831
    1   AR   Ar  252   2.809   4.903   1.759
    1   AR   Ar  253   5.201   2.602   7.015
    1   AR   Ar  254   4.005   4.670  13.333
    1   AR   Ar  255   5.064   5.655   9.196
    1   AR   Ar  256   5.709   5.550   3.480
    7.12000  7.12000 12.00000
Argon-slab step 5800
  256
    1   AR   Ar    1   4.093   2.438  -1.300
    1   AR   Ar    2   5.906   0.213   1.123
    1   AR   Ar    3   4.620   3.741  -1.398
    1   AR   Ar    4   1.911   1.009   1.015
    1   AR   Ar    5   6.673   5.523   0.286
    1   AR   Ar    6   1.365   0.842   2.000
    1   AR   Ar    7   5.555   4.735   2.572
    1   AR   Ar    8   6.045   2.752  -0.271
    1   AR   Ar    9   6.959   5.639   4.658
    1   AR   Ar   10   5.994   4.790   5.591
    1   AR   Ar   11   0.923   6.610   5.005
    1   AR   Ar   12   6.842   1.939   4.490
    1   AR   Ar   13   6.617   6.867   5.194
    1   AR   Ar   14   4.518   1.448   6.155
    1   AR   Ar   15   2.862   5.329   9.295
    1   AR   Ar   16   0.796   6.882   6.551
    1   AR   Ar   17   5.538   3.481   0.409
    1   AR   Ar   18   6.910   4.075  -2.918
    1   AR   Ar   19   4.868   4.857   0.218
    1   AR   Ar   20   6.754   3.051  -2.358
    1   AR   Ar   21   2.426   1.111   2.486
    1   AR   Ar   22   5.104   0.335   2.127
    1   AR   Ar   23   0.725   5.672  -0.054
    1   AR   Ar   24   5.956   2.749   4.347
    1   AR   Ar   25   1.014   3.585   5.565
    1   AR   Ar   26   5.955   5.765   4.862
    1   AR   Ar   27   0.923   0.736   1.118
    1   AR   Ar   28   3.009   2.322   4.052
    1   AR   Ar   29   5.403   6.709   7.043
    1   AR   Ar   30   6.004   0.424   3.475
    1   AR   Ar   31   0.990   1.116   6.827
    1   AR   Ar   32   1.124   2.152   6.260
    1   AR   Ar   33   5.646   5.568   0.682
    1   AR   Ar   34   1.909   5.297   3.422
    1   AR   Ar   35   5.942   5.633   2.380
    1   AR   Ar   36   3.787   1.667  -3.873
    1   AR   Ar   37   4.608   3.597   0.932
    1   AR   Ar   38   6.334   4.852   4.356
    1   AR   Ar   39   0.210   3.178   4.129
    1   AR   Ar   40   0.523   4.188   2.215
    1   AR   Ar   41   0.473   1.921   3.695
    1   AR   Ar   42   5.026   4.889   5.028
    1   AR   Ar   43   0.137   3.194   6.471
    1   AR   Ar   44   1.439   4.327   3.084
    1   AR   Ar   45   2.191   3.883   5.260
    1   AR   Ar   46   6.047   5.444   6.943
    1   AR   Ar   47   2.894   3.912   7.076
    1   AR   Ar   48   0.590   3.521   7.320
    1   AR   Ar   49   7.013   2.073   0.509
    1   AR   Ar   50   2.939   4.860   0.733
    1   AR   Ar   51   5.371   3.598   3.114
    1   AR   Ar   52   5.623   3.774  -2.125
    1   AR   Ar   53   4.384   0.179   3.152
    1   AR   Ar   54   6.202   6.598   2.846
    1   AR   Ar   55   7.086   4.992   2.405
    1   AR   Ar   56   6.127   1.808   3.689
    1   AR   Ar   57   4.626   5.220   2.467
    1   AR   Ar   58   1.458   3.358   4.475
    1   AR   Ar   59   3.719   5.204   5.720
    1   AR   Ar   60   1.096   5.026   2.436
    1   AR   Ar   61   6.666   4.732   6.446
    1   AR   Ar   62   6.914   4.096   5.630
    1   AR   Ar   63   1.959   1.492   7.894
    1   AR   Ar   64   0.645   5.013   4.132
    1   AR   Ar   65   4.050   1.222   2.605
    1   AR   Ar   66   0.950   2.158   0.723
    1   AR   Ar   67   4.477   1.407  -0.790
    1   AR   Ar   68   7.044   0.867   0.794
    1   AR   Ar   69   2.430   2.642   1.134
    1   AR   Ar   70   7.113   1.195   1.835
    1   AR   Ar   71   3.351   0.606   3.143
    1   AR   Ar   72   4.454   0.972   1.522
    1   AR   Ar   73   3.277   0.227   4.291
    1   AR   Ar   74   1.286   0.736   3.342
    1   AR   Ar   75   2.966   0.745   5.596
    1   AR   Ar   76   2.789   0.027   2.114
    1   AR   Ar   77   1.220   5.688   6.611
    1   AR   Ar   78   6.941   5.766   6.192
    1   AR   Ar   79   3.816   6.788   5.317
    1   AR   Ar   80   3.677   4.069   5.986
    1   AR   Ar   81   1.413   6.120   1.923
    1   AR   Ar   82   7.050   4.765   1.028
    1   AR   Ar   83   1.586   3.282   1.256
    1   AR   Ar   84   0.956   4.587   1.081
    1   AR   Ar   85   0.306   2.591  -0.576
    1   AR   Ar   86   1.363   5.487   0.815
    1   AR   Ar   87   3.998   2.685   2.395
    1   AR   Ar   88   3.810   5.320   1.658
    1   AR   Ar   89   5.897   2.762   1.010
    1   AR   Ar   90   3.445   1.122   6.612
    1   AR   Ar   91   1.572   1.819   2.986
    1   AR   Ar   92   3.745   3.017   1.159
    1   AR   Ar   93   0.999   1.049   5.486
    1   AR   Ar   94   0.367   7.011   9.420
    1   AR   Ar   95   4.882   0.616   6.892
    1   AR   Ar   96   1.665   0.336   5.546
    1   AR   Ar   97   4.892   1.269  -1.774
    1   AR   Ar   98   1.617   4.410   4.132
    1   AR   Ar   99   5.746   6.605  -0.970
    1   AR   Ar  100   6.456   2.277  -2.951
    1   AR   Ar  101   3.867   5.695   3.078
    1   AR   Ar  102   4.171   2.071   1.526
    1   AR   Ar  103   1.617   3.935   2.005
    1   AR   Ar  104   3.310   0.763  -0.504
    1   AR   Ar  105   2.700   2.513   2.872
    1   AR   Ar  106   4.218   1.061   3.786
    1   AR   Ar  107   0.952   4.657   5.509
    1   AR   Ar  108   2.473   0.645   3.587
    1   AR   Ar  109   2.413   4.862   4.698
    1   AR   Ar  110   2.331   2.775   5.057
    1   AR   Ar  111   4.050   4.123   6.906
    1   AR   Ar  112   6.601   6.516   7.021
    1   AR   Ar  113   6.528   6.212  -1.584
    1   AR   Ar  114   2.722   0.021   0.280
    1   AR   Ar  115   6.851   4.504  -0.290
    1   AR   Ar  116   5.641   1.206   0.939
    1   AR   Ar  117   0.312   4.367   3.272
    1   AR   Ar  118   2.103   6.456   3.774
    1   AR   Ar  119   1.813   2.956   2.685
    1   AR   Ar  120   1.940   7.093   2.895
    1   AR   Ar  121   5.488   4.316   7.304
    1   AR   Ar  122   2.889   5.020   3.401
    1   AR   Ar  123   3.494   2.363   4.978
    1   AR   Ar  124   0.398   6.006   1.383
    1   AR   Ar  125   6.241   4.236   3.441
    1   AR   Ar  126   6.968   1.322   7.011
    1   AR   Ar  127   4.312   3.269   5.828
    1   AR   Ar  128   1.003   4.406   6.933
    1   AR   Ar  129   1.409   5.668   4.650
    1   AR   Ar  130   5.776   0.728  -4.620
    1   AR   Ar  131   4.211   7.105   0.020
    1   AR   Ar  132   1.663   2.251   1.857
    1   AR   Ar  133   4.229   0.320   4.572
    1   AR   Ar  134   3.478   1.230   4.731
    1   AR   Ar  135   5.849   0.424   5.556
    1   AR   Ar  136   5.306   6.494   2.268
    1   AR   Ar  137   2.525   4.869   5.971
    1   AR   Ar  138   5.770   1.366   6.127
    1   AR   Ar  139   6.254   2.650   5.340
    1   AR   Ar  140   5.104   6.580   4.880
    1   AR   Ar  141   3.396   5.360   4.327
    1   AR   Ar  142   4.039   5.907   8.804
    1   AR   Ar  143   5.040   6.474   8.144
    1   AR   Ar  144   0.057   3.197   5.106
    1   AR   Ar  145   4.783   4.730  -1.971
    1   AR   Ar  146   4.011   2.251   3.795
    1   AR   Ar  147   4.642   3.838  -0.064
    1   AR   Ar  148   1.757   5.777  -0.369
    1   AR   Ar  149   6.529   1.847  -0.400
    1   AR   Ar  150   0.744   1.962   2.342
    1   AR   Ar  151   2.926   3.146   1.953
    1   AR   Ar  152   0.784   1.441  -0.066
    1   AR   Ar  153   5.003   1.105   3.159
    1   AR   Ar  154   4.854   3.121   3.964
    1   AR   Ar  155   5.706   3.596   5.926
    1   AR   Ar  156   3.425   4.119   3.259
    1   AR   Ar  157   3.392   6.083   6.415
    1   AR   Ar  158   1.493   2.497   7.294
    1   AR   Ar  159   4.671   0.440   5.813
    1   AR   Ar  160   1.001   1.698   4.717
    1   AR   Ar  161   5.194   4.611   3.891
    1   AR   Ar  162   3.675   5.542  -1.333
    1   AR   Ar  163   6.469   4.083   2.406
    1   AR   Ar  164   2.427   5.730   2.521
    1   AR   Ar  165   3.736   4.119   0.792
    1   AR   Ar  166   3.164   3.379   5.058
    1   AR   Ar  167   5.847   0.117   4.479
    1   AR   Ar  168   5.864   4.725  -2.679
    1   AR   Ar  169   4.316   3.448   3.012
    1   AR   Ar  170   2.579   2.591   7.088
    1   AR   Ar  171   4.593   5.586   3.873
    1   AR   Ar  172   4.146   3.065   4.634
    1   AR   Ar  173   0.475   2.003   7.919
    1   AR   Ar  174   2.985   6.322   4.504
    1   AR   Ar  175   0.793   0.288   7.569
    1   AR   Ar  176   3.395   3.049   3.405
    1   AR   Ar  177   0.129   3.796  -1.745
    1   AR   Ar  178   2.255   6.482   1.290
    1   AR   Ar  179   3.357   5.953   0.406
    1   AR   Ar  180   4.915   5.975  -7.073
    1   AR   Ar  181   7.056   6.310   2.286
    1   AR   Ar  182   0.795   6.622   2.864
    1   AR   Ar  183   5.133   5.581   1.555
    1   AR   Ar  184   3.711   5.058   0.055
    1   AR   Ar  185   3.407   4.125   4.325
    1   AR   Ar  186   3.094   6.732   3.306
    1   AR   Ar  187   4.114   6.576   3.838
    1   AR   Ar  188   3.244   1.264   1.514
    1   AR   Ar  189   6.239   2.698   6.494
    1   AR   Ar  190   1.536   0.551   4.298
    1   AR   Ar  191   4.261   5.839   4.948
    1   AR   Ar  192   3.665   2.902   6.743
    1   AR   Ar  193   3.320   6.195   1.898
    1   AR   Ar  194   4.644   5.978  -0.096
    1   AR   Ar  195   6.359   1.882   1.473
    1   AR   Ar  196   4.958   6.794   1.157
    1   AR   Ar  197   4.570   2.729  -0.046
    1   AR   Ar  198   6.738   6.501   0.722
    1   AR   Ar  199   7.034   0.223   2.414
    1   AR   Ar  200   5.325   1.999   0.333
    1   AR   Ar  201   6.866   5.270   3.348
    1   AR   Ar  202   5.088   0.724   4.177
    1   AR   Ar  203   0.057   7.103   3.435
    1   AR   Ar  204   5.010   5.216   7.807
    1   AR   Ar  205   5.233   1.840   2.136
    1   AR   Ar  206   6.380   0.466   6.559
    1   AR   Ar  207   0.591   4.020   4.695
    1   AR   Ar  208   0.870   5.982   3.828
    1   AR   Ar  209   5.063   2.604  -1.673
    1   AR   Ar  210   2.464   2.255  -0.108
    1   AR   Ar  211   6.861   3.136   0.321
    1   AR   Ar  212   5.827   4.616   0.393
    1   AR   Ar  213   4.062   1.548   0.537
    1   AR   Ar  214   5.684   4.418   1.593
    1   AR   Ar  215   0.326   3.134   2.397
    1   AR   Ar  216   2.007   3.137  -0.676
    1   AR   Ar  217   4.880   2.081   4.297
    1   AR   Ar  218   4.542   2.336   5.295
    1   AR   Ar  219   4.502   3.964   2.134
    1   AR   Ar  220   4.558   4.813   1.142
    1   AR   Ar  221   6.706   6.154   3.806
    1   AR   Ar  222   5.500   6.584   5.938
    1   AR   Ar  223   0.154   0.673   6.059
    1   AR   Ar  224   4.635   1.281   5.143
    1   AR   Ar  225   6.400   3.028   2.657
    1   AR   Ar  226   2.476   3.477   3.955
    1   AR   Ar  227   1.749   2.403   4.261
    1   AR   Ar  228   6.071   0.512   2.414
    1   AR   Ar  229   5.763   3.869  -0.607
    1   AR   Ar  230   4.235   4.713   3.393
    1   AR   Ar  231   5.008   2.324   3.098
    1   AR   Ar  232   5.742   3.408   1.980
    1   AR   Ar  233   6.855   1.402   2.879
    1   AR   Ar  234   6.478   3.791   4.660
    1   AR   Ar  235   6.960   0.831   4.385
    1   AR   Ar  236   4.385   4.117   4.676
    1   AR   Ar  237   4.311   1.842   7.108
    1   AR   Ar  238   4.681   4.488   6.037
    1   AR   Ar  239   1.318   4.561  10.152
    1   AR   Ar  240   1.643   3.225   6.257
    1   AR   Ar  241   0.689   6.737  -0.487
    1   AR   Ar  242   6.003   6.350   1.644
    1   AR   Ar  243   4.326   6.168   2.159
    1   AR   Ar  244   5.679   6.594   0.395
    1   AR   Ar  245   3.331   1.718   3.235
    1   AR   Ar  246   5.379   5.678  -1.316
    1   AR   Ar  247   6.875   3.648   1.364
    1   AR   Ar  248   5.826   5.207  -0.490
    1   AR   Ar  249   3.553   0.430   0.813
    1   AR   Ar  250   5.331   6.586   3.378
    1   AR   Ar  251   5.333   3.664   4.838
    1   AR   Ar  252   2.811   4.894   1.739
    1   AR   Ar  253   5.212   2.622   6.994
    1   AR   Ar  254   4.003   4.657  13.339
    1   AR   Ar  255   5.043   5.672   9.204
    1   AR   Ar  256   5.686   5.552   3.477
    7.12000  7.12000 12.00000
Argon-slab step 5805
  256
    1   AR   Ar    1   4.108   2.447  -1.270
    1   AR   Ar    2   5.885   0.204   1.135
    1   AR   Ar    3   4.610   3.742  -1.391
    1   AR   Ar    4   1.926   1.004   1.031
    1   AR   Ar    5   6.666   5.530   0.302
    1   AR   Ar    6   1.342   0.829   1.989
    1   AR   Ar    7   5.515   4.727   2.556
    1   AR   Ar    8   6.043   2.733  -0.277
    1   AR   Ar    9   6.922   5.636   4.666
    1   AR   Ar   10   6.012   4.804   5.616
    1   AR   Ar   11   0.928   6.651   4.979
    1   AR   Ar   12   6.825   1.918   4.494
    1   AR   Ar   13   6.573   6.862   5.159
    1   AR   Ar   14   4.529   1.476   6.169
    1   AR   Ar   15   2.890   5.341   9.280
    1   AR   Ar   16   0.809   6.908   6.552
    1   AR   Ar   17   5.516   3.465   0.427
    1   AR   Ar   18   6.931   4.079  -2.901
    1   AR   Ar   19   4.862   4.879   0.244
    1   AR   Ar   20   6.761   3.075  -2.389
    1   AR   Ar   21   2.455   1.150   2.461
    1   AR   Ar   22   5.105   0.324   2.116
    1   AR   Ar   23   0.719   5.676  -0.047
    1   AR   Ar   24   5.969   2.764   4.356
    1   AR   Ar   25   1.009   3.567   5.561
    1   AR   Ar   26   5.950   5.758   4.866
    1   AR   Ar   27   0.917   0.746   1.075
    1   AR   Ar   28   2.982   2.356   4.073
    1   AR   Ar   29   5.398   6.700   7.022
    1   AR   Ar   30   5.997   0.397   3.478
    1   AR   Ar   31   0.996   1.125   6.824
    1   AR   Ar   32   1.127   2.155   6.269
    1   AR   Ar   33   5.660   5.583   0.683
    1   AR   Ar   34   1.919   5.294   3.423
    1   AR   Ar   35   5.960   5.634   2.395
    1   AR   Ar   36   3.810   1.685  -3.880
    1   AR   Ar   37   4.600   3.581   0.918
    1   AR   Ar   38   6.306   4.882   4.355
    1   AR   Ar   39   0.184   3.217   4.110
    1   AR   Ar   40   0.559   4.168   2.204
    1   AR   Ar   41   0.495   1.915   3.694
    1   AR   Ar   42   5.021   4.893   5.049
    1   AR   Ar   43   0.145   3.200   6.470
    1   AR   Ar   44   1.437   4.344   3.070
    1   AR   Ar   45   2.231   3.898   5.258
    1   AR   Ar   46   6.029   5.476   6.934
    1   AR   Ar   47   2.884   3.906   7.045
    1   AR   Ar   48   0.571   3.519   7.319
    1   AR   Ar   49   7.016   2.073   0.492
    1   AR   Ar   50   2.924   4.847   0.713
    1   AR   Ar   51   5.367   3.574   3.136
    1   AR   Ar   52   5.605   3.805  -2.122
    1   AR   Ar   53   4.370   0.174   3.165
    1   AR   Ar   54   6.181   6.626   2.800
    1   AR   Ar   55   7.098   5.036   2.434
    1   AR   Ar   56   6.152   1.815   3.686
    1   AR   Ar   57   4.642   5.253   2.467
    1   AR   Ar   58   1.475   3.354   4.472
    1   AR   Ar   59   3.750   5.196   5.721
    1   AR   Ar   60   1.113   5.035   2.426
    1   AR   Ar   61   6.671   4.754   6.436
    1   AR   Ar   62   6.902   4.107   5.626
    1   AR   Ar   63   1.949   1.497   7.881
    1   AR   Ar   64   0.667   4.968   4.139
    1   AR   Ar   65   4.034   1.197   2.631
    1   AR   Ar   66   0.926   2.137   0.681
    1   AR   Ar   67   4.462   1.437  -0.795
    1   AR   Ar   68   7.024   0.884   0.838
    1   AR   Ar   69   2.469   2.611   1.124
    1   AR   Ar   70   7.116   1.202   1.871
    1   AR   Ar   71   3.318   0.610   3.145
    1   AR   Ar   72   4.472   0.982   1.539
    1   AR   Ar   73   3.284   0.218   4.278
    1   AR   Ar   74   1.261   0.748   3.349
    1   AR   Ar   75   2.984   0.745   5.595
    1   AR   Ar   76   2.776   0.002   2.112
    1   AR   Ar   77   1.215   5.689   6.607
    1   AR   Ar   78   6.926   5.748   6.154
    1   AR   Ar   79   3.818   6.752   5.294
    1   AR   Ar   80   3.662   4.088   5.997
    1   AR   Ar   81   1.428   6.099   1.906
    1   AR   Ar   82   7.047   4.808   1.007
    1   AR   Ar   83   1.590   3.281   1.221
    1   AR   Ar   84   0.961   4.609   1.073
    1   AR   Ar   85   0.327   2.609  -0.605
    1   AR   Ar   86   1.364   5.479   0.816
    1   AR   Ar   87   4.004   2.640   2.418
    1   AR   Ar   88   3.778   5.307   1.658
    1   AR   Ar   89   5.905   2.776   1.012
    1   AR   Ar   90   3.449   1.104   6.634
    1   AR   Ar   91   1.586   1.822   2.975
    1   AR   Ar   92   3.738   3.042   1.136
    1   AR   Ar   93   1.008   1.096   5.498
    1   AR   Ar   94   0.354   6.998   9.439
    1   AR   Ar   95   4.863   0.589   6.879
    1   AR   Ar   96   1.689   0.302   5.551
    1   AR   Ar   97   4.924   1.252  -1.787
    1   AR   Ar   98   1.611   4.411   4.118
    1   AR   Ar   99   5.753   6.631  -0.945
    1   AR   Ar  100   6.439   2.271  -2.967
    1   AR   Ar  101   3.848   5.711   3.081
    1   AR   Ar  102   4.163   2.091   1.538
    1   AR   Ar  103   1.578   3.932   1.986
    1   AR   Ar  104   3.336   0.798  -0.499
    1   AR   Ar  105   2.696   2.502   2.922
    1   AR   Ar  106   4.235   1.096   3.779
    1   AR   Ar  107   0.979   4.675   5.515
    1   AR   Ar  108   2.443   0.665   3.593
    1   AR   Ar  109   2.419   4.864   4.707
    1   AR   Ar  110   2.336   2.796   5.050
    1   AR   Ar  111   4.033   4.121   6.965
    1   AR   Ar  112   6.583   6.532   7.006
    1   AR   Ar  113   6.507   6.228  -1.582
    1   AR   Ar  114   2.755   0.033   0.302
    1   AR   Ar  115   6.828   4.521  -0.264
    1   AR   Ar  116   5.641   1.194   0.973
    1   AR   Ar  117   0.308   4.379   3.248
    1   AR   Ar  118   2.085   6.442   3.766
    1   AR   Ar  119   1.785   2.968   2.684
    1   AR   Ar  120   1.956   7.066   2.891
    1   AR   Ar  121   5.499   4.341   7.323
    1   AR   Ar  122   2.905   5.012   3.410
    1   AR   Ar  123   3.504   2.376   5.001
    1   AR   Ar  124   0.371   6.018   1.402
    1   AR   Ar  125   6.233   4.269   3.451
    1   AR   Ar  126   6.936   1.336   7.004
    1   AR   Ar  127   4.310   3.244   5.843
    1   AR   Ar  128   1.005   4.418   6.920
    1   AR   Ar  129   1.419   5.660   4.652
    1   AR   Ar  130   5.790   0.738  -4.634
    1   AR   Ar  131   4.224   0.034   0.039
    1   AR   Ar  132   1.645   2.238   1.858
    1   AR   Ar  133   4.241   0.317   4.545
    1   AR   Ar  134   3.507   1.189   4.720
    1   AR   Ar  135   5.849   0.412   5.573
    1   AR   Ar  136   5.292   6.494   2.283
    1   AR   Ar  137   2.524   4.842   5.982
    1   AR   Ar  138   5.771   1.379   6.126
    1   AR   Ar  139   6.268   2.645   5.368
    1   AR   Ar  140   5.102   6.583   4.885
    1   AR   Ar  141   3.400   5.349   4.327
    1   AR   Ar  142   4.051   5.897   8.806
    1   AR   Ar  143   5.040   6.484   8.133
    1   AR   Ar  144   0.066   3.187   5.110
    1   AR   Ar  145   4.777   4.731  -1.984
    1   AR   Ar  146   4.051   2.252   3.796
    1   AR   Ar  147   4.653   3.815  -0.057
    1   AR   Ar  148   1.767   5.782  -0.348
    1   AR   Ar  149   6.528   1.845  -0.408
    1   AR   Ar  150   0.764   1.957   2.348
    1   AR   Ar  151   2.921   3.137   1.980
    1   AR   Ar  152   0.769   1.410  -0.048
    1   AR   Ar  153   4.977   1.107   3.152
    1   AR   Ar  154   4.832   3.083   3.965
    1   AR   Ar  155   5.656   3.612   5.907
    1   AR   Ar  156   3.407   4.120   3.248
    1   AR   Ar  157   3.378   6.068   6.431
    1   AR   Ar  158   1.504   2.479   7.287
    1   AR   Ar  159   4.646   0.444   5.813
    1   AR   Ar  160   1.018   1.710   4.686
    1   AR   Ar  161   5.199   4.616   3.888
    1   AR   Ar  162   3.646   5.549  -1.331
    1   AR   Ar  163   6.480   4.096   2.424
    1   AR   Ar  164   2.430   5.717   2.522
    1   AR   Ar  165   3.763   4.114   0.780
    1   AR   Ar  166   3.193   3.427   5.042
    1   AR   Ar  167   5.831   0.130   4.490
    1   AR   Ar  168   5.874   4.723  -2.681
    1   AR   Ar  169   4.318   3.433   2.985
    1   AR   Ar  170   2.577   2.610   7.093
    1   AR   Ar  171   4.613   5.588   3.880
    1   AR   Ar  172   4.162   3.081   4.614
    1   AR   Ar  173   0.472   2.024   7.920
    1   AR   Ar  174   2.996   6.350   4.492
    1   AR   Ar  175   0.824   0.288   7.607
    1   AR   Ar  176   3.409   3.028   3.404
    1   AR   Ar  177   0.131   3.772  -1.746
    1   AR   Ar  178   2.237   6.445   1.293
    1   AR   Ar  179   3.348   5.953   0.413
    1   AR   Ar  180   4.938   5.963  -7.051
    1   AR   Ar  181   7.040   6.296   2.248
    1   AR   Ar  182   0.794   6.589   2.856
    1   AR   Ar  183   5.147   5.565   1.573
    1   AR   Ar  184   3.689   5.041   0.020
    1   AR   Ar  185   3.399   4.083   4.344
    1   AR   Ar  186   3.082   6.731   3.279
    1   AR   Ar  187   4.111   6.545   3.835
    1   AR   Ar  188   3.247   1.246   1.504
    1   AR   Ar  189   6.238   2.700   6.474
    1   AR   Ar  190   1.519   0.571   4.339
    1   AR   Ar  191   4.283   5.817   4.932
    1   AR   Ar  192   3.673   2.871   6.743
    1   AR   Ar  193   3.302   6.166   1.905
    1   AR   Ar  194   4.614   5.990  -0.109
    1   AR   Ar  195   6.351   1.907   1.501
    1   AR   Ar  196   4.978   6.796   1.185
    1   AR   Ar  197   4.628   2.761  -0.085
    1   AR   Ar  198   6.740   6.511   0.679
    1   AR   Ar  199   7.036   0.265   2.430
    1   AR   Ar  200   5.329   2.002   0.334
    1   AR   Ar  201   6.843   5.246   3.335
    1   AR   Ar  202   5.134   0.745   4.223
    1   AR   Ar  203   0.034   7.117   3.447
    1   AR   Ar  204   4.994   5.234   7.810
    1   AR   Ar  205   5.221   1.864   2.108
    1   AR   Ar  206   6.365   0.467   6.562
    1   AR   Ar  207   0.589   4.019   4.693
    1   AR   Ar  208   0.865   6.002   3.843
    1   AR   Ar  209   5.042   2.596  -1.659
    1   AR   Ar  210   2.473   2.252  -0.115
    1   AR   Ar  211   6.847   3.149   0.303
    1   AR   Ar  212   5.850   4.620   0.393
    1   AR   Ar  213   4.063   1.566   0.564
    1   AR   Ar  214   5.664   4.374   1.582
    1   AR   Ar  215   0.317   3.124   2.376
    1   AR   Ar  216   1.978   3.149  -0.687
    1   AR   Ar  217   4.852   2.094   4.305
    1   AR   Ar  218   4.522   2.329   5.293
    1   AR   Ar  219   4.509   3.925   2.160
    1   AR   Ar  220   4.530   4.828   1.127
    1   AR   Ar  221   6.677   6.180   3.774
    1   AR   Ar  222   5.531   6.584   5.935
    1   AR   Ar  223   0.183   0.661   6.070
    1   AR   Ar  224   4.614   1.289   5.136
    1   AR   Ar  225   6.387   3.019   2.661
    1   AR   Ar  226   2.466   3.480   3.962
    1   AR   Ar  227   1.797   2.411   4.310
    1   AR   Ar  228   6.065   0.464   2.433
    1   AR   Ar  229   5.735   3.874  -0.603
    1   AR   Ar  230   4.238   4.713   3.395
    1   AR   Ar  231   5.026   2.312   3.108
    1   AR   Ar  232   5.724   3.397   1.948
    1   AR   Ar  233   6.844   1.386   2.858
    1   AR   Ar  234   6.467   3.854   4.673
    1   AR   Ar  235   6.977   0.814   4.377
    1   AR   Ar  236   4.388   4.083   4.676
    1   AR   Ar  237   4.288   1.840   7.120
    1   AR   Ar  238   4.722   4.475   6.052
    1   AR   Ar  239   1.323   4.598  10.135
    1   AR   Ar  240   1.610   3.247   6.238
    1   AR   Ar  241   0.708   6.738  -0.480
    1   AR   Ar  242   5.998   6.390   1.641
    1   AR   Ar  243   4.327   6.129   2.167
    1   AR   Ar  244   5.680   6.593   0.373
    1   AR   Ar  245   3.331   1.715   3.226
    1   AR   Ar  246   5.391   5.700  -1.320
    1   AR   Ar  247   6.905   3.650   1.389
    1   AR   Ar  248   5.813   5.242  -0.476
    1   AR   Ar  249   3.565   0.415   0.784
    1   AR   Ar  250   5.345   6.587   3.389
    1   AR   Ar  251   5.341   3.661   4.845
    1   AR   Ar  252   2.812   4.897   1.736
    1   AR   Ar  253   5.224   2.641   6.972
    1   AR   Ar  254   4.002   4.645  13.345
    1   AR   Ar  255   5.022   5.689   9.210
    1   AR   Ar  256   5.662   5.559   3.474
    7.12000  7.12000 12.00000
Argon-slab step 5810
  256
    1   AR   Ar    1   4.118   2.465  -1.239
    1   AR   Ar    2   5.868   0.194   1.149
    1   AR   Ar    3   4.602   3.742  -1.384
    1   AR   Ar    4   1.945   1.001   1.048
    1   AR   Ar    5   6.659   5.534   0.315
    1   AR   Ar    6   1.323   0.819   1.988
    1   AR   Ar    7   5.477   4.711   2.546
    1   AR   Ar    8   6.036   2.719  -0.281
    1   AR   Ar    9   6.899   5.636   4.676
    1   AR   Ar   10   6.027   4.818   5.637
    1   AR   Ar   11   0.934   6.693   4.953
    1   AR   Ar   12   6.821   1.910   4.494
    1   AR   Ar   13   6.560   6.874   5.144
    1   AR   Ar   14   4.541   1.505   6.184
    1   AR   Ar   15   2.913   5.348   9.263
    1   AR   Ar   16   0.822   6.935   6.553
    1   AR   Ar   17   5.494   3.456   0.438
    1   AR   Ar   18   6.943   4.078  -2.884
    1   AR   Ar   19   4.860   4.903   0.247
    1   AR   Ar   20   6.768   3.102  -2.419
    1   AR   Ar   21   2.484   1.188   2.437
    1   AR   Ar   22   5.099   0.324   2.101
    1   AR   Ar   23   0.713   5.668  -0.044
    1   AR   Ar   24   5.999   2.776   4.378
    1   AR   Ar   25   0.994   3.555   5.546
    1   AR   Ar   26   5.933   5.755   4.873
    1   AR   Ar   27   0.905   0.755   1.026
    1   AR   Ar   28   2.951   2.389   4.096
    1   AR   Ar   29   5.394   6.691   7.002
    1   AR   Ar   30   5.990   0.370   3.482
    1   AR   Ar   31   1.001   1.133   6.820
    1   AR   Ar   32   1.140   2.149   6.300
    1   AR   Ar   33   5.674   5.601   0.683
    1   AR   Ar   34   1.922   5.293   3.425
    1   AR   Ar   35   5.982   5.637   2.410
    1   AR   Ar   36   3.834   1.702  -3.886
    1   AR   Ar   37   4.600   3.562   0.916
    1   AR   Ar   38   6.273   4.907   4.350
    1   AR   Ar   39   0.158   3.255   4.083
    1   AR   Ar   40   0.592   4.146   2.191
    1   AR   Ar   41   0.518   1.908   3.691
    1   AR   Ar   42   5.018   4.898   5.070
    1   AR   Ar   43   0.151   3.205   6.459
    1   AR   Ar   44   1.437   4.354   3.060
    1   AR   Ar   45   2.279   3.916   5.259
    1   AR   Ar   46   6.010   5.510   6.925
    1   AR   Ar   47   2.875   3.899   7.012
    1   AR   Ar   48   0.562   3.505   7.367
    1   AR   Ar   49   7.022   2.067   0.484
    1   AR   Ar   50   2.908   4.833   0.690
    1   AR   Ar   51   5.367   3.551   3.156
    1   AR   Ar   52   5.610   3.821  -2.112
    1   AR   Ar   53   4.362   0.173   3.175
    1   AR   Ar   54   6.169   6.651   2.757
    1   AR   Ar   55   7.113   5.080   2.445
    1   AR   Ar   56   6.173   1.822   3.680
    1   AR   Ar   57   4.658   5.275   2.471
    1   AR   Ar   58   1.490   3.356   4.472
    1   AR   Ar   59   3.781   5.187   5.721
    1   AR   Ar   60   1.128   5.055   2.410
    1   AR   Ar   61   6.661   4.760   6.439
    1   AR   Ar   62   6.892   4.116   5.620
    1   AR   Ar   63   1.938   1.503   7.867
    1   AR   Ar   64   0.686   4.924   4.146
    1   AR   Ar   65   4.021   1.173   2.653
    1   AR   Ar   66   0.907   2.120   0.644
    1   AR   Ar   67   4.447   1.467  -0.798
    1   AR   Ar   68   6.998   0.903   0.879
    1   AR   Ar   69   2.508   2.579   1.114
    1   AR   Ar   70   0.002   1.209   1.903
    1   AR   Ar   71   3.296   0.614   3.143
    1   AR   Ar   72   4.488   0.993   1.556
    1   AR   Ar   73   3.284   0.210   4.259
    1   AR   Ar   74   1.235   0.761   3.350
    1   AR   Ar   75   3.002   0.744   5.595
    1   AR   Ar   76   2.750   0.000   2.112
    1   AR   Ar   77   1.210   5.689   6.602
    1   AR   Ar   78   6.910   5.733   6.116
    1   AR   Ar   79   3.819   6.715   5.270
    1   AR   Ar   80   3.644   4.108   6.004
    1   AR   Ar   81   1.441   6.076   1.892
    1   AR   Ar   82   7.041   4.851   0.988
    1   AR   Ar   83   1.592   3.273   1.181
    1   AR   Ar   84   0.957   4.603   1.051
    1   AR   Ar   85   0.346   2.625  -0.631
    1   AR   Ar   86   1.369   5.481   0.816
    1   AR   Ar   87   4.006   2.593   2.441
    1   AR   Ar   88   3.750   5.291   1.658
    1   AR   Ar   89   5.918   2.783   1.019
    1   AR   Ar   90   3.455   1.086   6.655
    1   AR   Ar   91   1.605   1.825   2.965
    1   AR   Ar   92   3.726   3.065   1.115
    1   AR   Ar   93   1.015   1.141   5.514
    1   AR   Ar   94   0.341   6.984   9.459
    1   AR   Ar   95   4.844   0.563   6.866
    1   AR   Ar   96   1.716   0.265   5.557
    1   AR   Ar   97   4.957   1.235  -1.800
    1   AR   Ar   98   1.606   4.412   4.107
    1   AR   Ar   99   5.758   6.658  -0.916
    1   AR   Ar  100   6.420   2.263  -2.986
    1   AR   Ar  101   3.850   5.707   3.063
    1   AR   Ar  102   4.158   2.107   1.529
    1   AR   Ar  103   1.542   3.934   1.975
    1   AR   Ar  104   3.364   0.832  -0.492
    1   AR   Ar  105   2.688   2.487   2.968
    1   AR   Ar  106   4.212   1.125   3.782
    1   AR   Ar  107   1.007   4.694   5.519
    1   AR   Ar  108   2.402   0.685   3.604
    1   AR   Ar  109   2.426   4.867   4.716
    1   AR   Ar  110   2.346   2.821   5.050
    1   AR   Ar  111   4.018   4.118   7.028
    1   AR   Ar  112   6.574   6.548   6.987
    1   AR   Ar  113   6.487   6.243  -1.580
    1   AR   Ar  114   2.782   0.042   0.321
    1   AR   Ar  115   6.803   4.538  -0.236
    1   AR   Ar  116   5.640   1.187   1.009
    1   AR   Ar  117   0.305   4.387   3.224
    1   AR   Ar  118   2.067   6.426   3.760
    1   AR   Ar  119   1.753   2.982   2.682
    1   AR   Ar  120   1.972   7.040   2.886
    1   AR   Ar  121   5.483   4.368   7.311
    1   AR   Ar  122   2.873   5.006   3.386
    1   AR   Ar  123   3.510   2.386   5.026
    1   AR   Ar  124   0.350   6.026   1.412
    1   AR   Ar  125   6.224   4.302   3.461
    1   AR   Ar  126   6.905   1.349   6.996
    1   AR   Ar  127   4.308   3.219   5.857
    1   AR   Ar  128   1.008   4.430   6.905
    1   AR   Ar  129   1.433   5.649   4.658
    1   AR   Ar  130   5.796   0.730  -4.638
    1   AR   Ar  131   4.238   0.082   0.057
    1   AR   Ar  132   1.637   2.235   1.848
    1   AR   Ar  133   4.260   0.314   4.523
    1   AR   Ar  134   3.538   1.151   4.707
    1   AR   Ar  135   5.846   0.403   5.590
    1   AR   Ar  136   5.271   6.483   2.297
    1   AR   Ar  137   2.524   4.814   5.992
    1   AR   Ar  138   5.779   1.399   6.122
    1   AR   Ar  139   6.281   2.639   5.398
    1   AR   Ar  140   5.097   6.586   4.891
    1   AR   Ar  141   3.407   5.319   4.334
    1   AR   Ar  142   4.059   5.887   8.798
    1   AR   Ar  143   5.040   6.492   8.122
    1   AR   Ar  144   0.076   3.174   5.123
    1   AR   Ar  145   4.773   4.731  -1.997
    1   AR   Ar  146   4.079   2.256   3.789
    1   AR   Ar  147   4.663   3.799  -0.059
    1   AR   Ar  148   1.778   5.787  -0.327
    1   AR   Ar  149   6.526   1.842  -0.423
    1   AR   Ar  150   0.776   1.951   2.354
    1   AR   Ar  151   2.917   3.128   2.009
    1   AR   Ar  152   0.752   1.377  -0.032
    1   AR   Ar  153   4.964   1.110   3.136
    1   AR   Ar  154   4.831   3.049   3.946
    1   AR   Ar  155   5.606   3.628   5.888
    1   AR   Ar  156   3.390   4.114   3.235
    1   AR   Ar  157   3.366   6.052   6.445
    1   AR   Ar  158   1.513   2.460   7.280
    1   AR   Ar  159   4.621   0.445   5.810
    1   AR   Ar  160   1.034   1.725   4.648
    1   AR   Ar  161   5.206   4.619   3.886
    1   AR   Ar  162   3.617   5.555  -1.327
    1   AR   Ar  163   6.492   4.110   2.439
    1   AR   Ar  164   2.434   5.704   2.522
    1   AR   Ar  165   3.775   4.126   0.775
    1   AR   Ar  166   3.223   3.468   5.036
    1   AR   Ar  167   5.812   0.112   4.514
    1   AR   Ar  168   5.908   4.695  -2.692
    1   AR   Ar  169   4.318   3.416   2.974
    1   AR   Ar  170   2.573   2.624   7.093
    1   AR   Ar  171   4.631   5.602   3.875
    1   AR   Ar  172   4.157   3.096   4.610
    1   AR   Ar  173   0.469   2.045   7.919
    1   AR   Ar  174   3.006   6.377   4.479
    1   AR   Ar  175   0.855   0.290   7.643
    1   AR   Ar  176   3.427   3.023   3.404
    1   AR   Ar  177   0.132   3.748  -1.747
    1   AR   Ar  178   2.221   6.409   1.295
    1   AR   Ar  179   3.358   5.953   0.443
    1   AR   Ar  180   4.935   5.961  -7.044
    1   AR   Ar  181   7.018   6.283   2.217
    1   AR   Ar  182   0.794   6.556   2.847
    1   AR   Ar  183   5.162   5.552   1.597
    1   AR   Ar  184   3.674   5.021  -0.017
    1   AR   Ar  185   3.390   4.051   4.350
    1   AR   Ar  186   3.068   6.725   3.254
    1   AR   Ar  187   4.105   6.513   3.835
    1   AR   Ar  188   3.250   1.228   1.496
    1   AR   Ar  189   6.234   2.717   6.459
    1   AR   Ar  190   1.503   0.590   4.385
    1   AR   Ar  191   4.305   5.795   4.915
    1   AR   Ar  192   3.681   2.841   6.742
    1   AR   Ar  193   3.276   6.143   1.913
    1   AR   Ar  194   4.586   6.000  -0.121
    1   AR   Ar  195   6.343   1.932   1.529
    1   AR   Ar  196   4.949   6.802   1.186
    1   AR   Ar  197   4.688   2.791  -0.123
    1   AR   Ar  198   6.741   6.524   0.639
    1   AR   Ar  199   7.049   0.304   2.446
    1   AR   Ar  200   5.333   2.006   0.333
    1   AR   Ar  201   6.835   5.220   3.355
    1   AR   Ar  202   5.173   0.777   4.264
    1   AR   Ar  203   0.010   0.011   3.462
    1   AR   Ar  204   4.978   5.248   7.809
    1   AR   Ar  205   5.233   1.870   2.118
    1   AR   Ar  206   6.347   0.467   6.566
    1   AR   Ar  207   0.587   4.022   4.689
    1   AR   Ar  208   0.857   6.024   3.854
    1   AR   Ar  209   5.026   2.591  -1.646
    1   AR   Ar  210   2.485   2.244  -0.117
    1   AR   Ar  211   6.834   3.163   0.286
    1   AR   Ar  212   5.879   4.615   0.394
    1   AR   Ar  213   4.065   1.582   0.591
    1   AR   Ar  214   5.644   4.333   1.565
    1   AR   Ar  215   0.309   3.114   2.354
    1   AR   Ar  216   1.950   3.159  -0.698
    1   AR   Ar  217   4.840   2.099   4.321
    1   AR   Ar  218   4.503   2.324   5.294
    1   AR   Ar  219   4.521   3.895   2.172
    1   AR   Ar  220   4.497   4.837   1.132
    1   AR   Ar  221   6.645   6.211   3.741
    1   AR   Ar  222   5.555   6.603   5.933
    1   AR   Ar  223   0.213   0.648   6.082
    1   AR   Ar  224   4.593   1.294   5.123
    1   AR   Ar  225   6.375   3.008   2.669
    1   AR   Ar  226   2.457   3.481   3.970
    1   AR   Ar  227   1.843   2.408   4.347
    1   AR   Ar  228   6.054   0.425   2.449
    1   AR   Ar  229   5.706   3.880  -0.597
    1   AR   Ar  230   4.245   4.708   3.401
    1   AR   Ar  231   5.041   2.299   3.120
    1   AR   Ar  232   5.702   3.384   1.915
    1   AR   Ar  233   6.831   1.371   2.841
    1   AR   Ar  234   6.453   3.917   4.684
    1   AR   Ar  235   6.993   0.796   4.369
    1   AR   Ar  236   4.392   4.055   4.676
    1   AR   Ar  237   4.264   1.839   7.135
    1   AR   Ar  238   4.763   4.461   6.067
    1   AR   Ar  239   1.329   4.635  10.118
    1   AR   Ar  240   1.590   3.262   6.233
    1   AR   Ar  241   0.727   6.739  -0.473
    1   AR   Ar  242   6.008   6.427   1.624
    1   AR   Ar  243   4.324   6.101   2.169
    1   AR   Ar  244   5.680   6.593   0.349
    1   AR   Ar  245   3.330   1.710   3.218
    1   AR   Ar  246   5.401   5.721  -1.328
    1   AR   Ar  247   6.893   3.658   1.390
    1   AR   Ar  248   5.801   5.276  -0.458
    1   AR   Ar  249   3.582   0.405   0.761
    1   AR   Ar  250   5.360   6.581   3.391
    1   AR   Ar  251   5.352   3.658   4.851
    1   AR   Ar  252   2.797   4.888   1.755
    1   AR   Ar  253   5.234   2.661   6.949
    1   AR   Ar  254   4.000   4.632  13.351
    1   AR   Ar  255   5.003   5.706   9.216
    1   AR   Ar  256   5.630   5.593   3.475
    7.12000  7.12000 12.00000
Argon-slab step 5815
  256
    1   AR   Ar    1   4.120   2.516  -1.206
    1   AR   Ar    2   5.855   0.187   1.163
    1   AR   Ar    3   4.595   3.740  -1.375
    1   AR   Ar    4   1.967   0.999   1.066
    1   AR   Ar    5   6.653   5.538   0.322
    1   AR   Ar    6   1.305   0.809   1.991
    1   AR   Ar    7   5.446   4.687   2.541
    1   AR   Ar    8   6.023   2.712  -0.283
    1   AR   Ar    9   6.891   5.639   4.686
    1   AR   Ar   10   6.039   4.832   5.652
    1   AR   Ar   11   0.940   6.735   4.926
    1   AR   Ar   12   6.836   1.921   4.486
    1   AR   Ar   13   6.571   6.894   5.143
    1   AR   Ar   14   4.554   1.532   6.196
    1   AR   Ar   15   2.935   5.355   9.245
    1   AR   Ar   16   0.835   6.963   6.553
    1   AR   Ar   17   5.479   3.454   0.441
    1   AR   Ar   18   6.923   4.062  -2.873
    1   AR   Ar   19   4.864   4.930   0.231
    1   AR   Ar   20   6.774   3.127  -2.449
    1   AR   Ar   21   2.514   1.226   2.414
    1   AR   Ar   22   5.087   0.331   2.086
    1   AR   Ar   23   0.706   5.656  -0.043
    1   AR   Ar   24   6.028   2.788   4.397
    1   AR   Ar   25   0.968   3.548   5.518
    1   AR   Ar   26   5.905   5.756   4.884
    1   AR   Ar   27   0.893   0.764   0.974
    1   AR   Ar   28   2.918   2.421   4.119
    1   AR   Ar   29   5.390   6.682   6.983
    1   AR   Ar   30   5.984   0.345   3.489
    1   AR   Ar   31   1.005   1.141   6.815
    1   AR   Ar   32   1.153   2.144   6.330
    1   AR   Ar   33   5.686   5.620   0.682
    1   AR   Ar   34   1.913   5.295   3.430
    1   AR   Ar   35   6.007   5.640   2.425
    1   AR   Ar   36   3.857   1.720  -3.893
    1   AR   Ar   37   4.606   3.540   0.926
    1   AR   Ar   38   6.235   4.929   4.341
    1   AR   Ar   39   0.131   3.292   4.051
    1   AR   Ar   40   0.614   4.125   2.178
    1   AR   Ar   41   0.540   1.901   3.687
    1   AR   Ar   42   5.016   4.903   5.089
    1   AR   Ar   43   0.156   3.208   6.443
    1   AR   Ar   44   1.437   4.357   3.052
    1   AR   Ar   45   2.322   3.934   5.260
    1   AR   Ar   46   5.991   5.544   6.916
    1   AR   Ar   47   2.867   3.890   6.978
    1   AR   Ar   48   0.555   3.492   7.418
    1   AR   Ar   49   7.044   2.044   0.501
    1   AR   Ar   50   2.891   4.821   0.668
    1   AR   Ar   51   5.370   3.530   3.174
    1   AR   Ar   52   5.651   3.815  -2.094
    1   AR   Ar   53   4.373   0.173   3.183
    1   AR   Ar   54   6.168   6.657   2.723
    1   AR   Ar   55   7.088   5.096   2.443
    1   AR   Ar   56   6.191   1.829   3.671
    1   AR   Ar   57   4.675   5.279   2.486
    1   AR   Ar   58   1.501   3.367   4.476
    1   AR   Ar   59   3.813   5.178   5.721
    1   AR   Ar   60   1.142   5.082   2.390
    1   AR   Ar   61   6.653   4.764   6.450
    1   AR   Ar   62   6.886   4.123   5.616
    1   AR   Ar   63   1.926   1.510   7.852
    1   AR   Ar   64   0.703   4.884   4.151
    1   AR   Ar   65   4.013   1.149   2.668
    1   AR   Ar   66   0.897   2.108   0.614
    1   AR   Ar   67   4.432   1.485  -0.788
    1   AR   Ar   68   6.968   0.923   0.919
    1   AR   Ar   69   2.548   2.547   1.103
    1   AR   Ar   70   0.012   1.216   1.925
    1   AR   Ar   71   3.279   0.619   3.139
    1   AR   Ar   72   4.503   1.008   1.570
    1   AR   Ar   73   3.280   0.206   4.234
    1   AR   Ar   74   1.209   0.774   3.349
    1   AR   Ar   75   3.021   0.743   5.594
    1   AR   Ar   76   2.724   7.120   2.113
    1   AR   Ar   77   1.204   5.689   6.596
    1   AR   Ar   78   6.894   5.721   6.076
    1   AR   Ar   79   3.820   6.681   5.245
    1   AR   Ar   80   3.623   4.128   6.009
    1   AR   Ar   81   1.450   6.050   1.881
    1   AR   Ar   82   7.033   4.891   0.973
    1   AR   Ar   83   1.595   3.262   1.138
    1   AR   Ar   84   0.951   4.587   1.033
    1   AR   Ar   85   0.363   2.640  -0.654
    1   AR   Ar   86   1.379   5.492   0.815
    1   AR   Ar   87   4.005   2.542   2.467
    1   AR   Ar   88   3.725   5.272   1.659
    1   AR   Ar   89   5.937   2.781   1.030
    1   AR   Ar   90   3.463   1.069   6.675
    1   AR   Ar   91   1.628   1.827   2.958
    1   AR   Ar   92   3.709   3.085   1.097
    1   AR   Ar   93   1.022   1.186   5.534
    1   AR   Ar   94   0.328   6.971   9.478
    1   AR   Ar   95   4.826   0.539   6.852
    1   AR   Ar   96   1.742   0.228   5.561
    1   AR   Ar   97   4.989   1.219  -1.812
    1   AR   Ar   98   1.605   4.411   4.099
    1   AR   Ar   99   5.763   6.686  -0.884
    1   AR   Ar  100   6.400   2.253  -3.006
    1   AR   Ar  101   3.884   5.671   3.016
    1   AR   Ar  102   4.155   2.121   1.506
    1   AR   Ar  103   1.515   3.938   1.966
    1   AR   Ar  104   3.365   0.834  -0.501
    1   AR   Ar  105   2.672   2.470   3.010
    1   AR   Ar  106   4.180   1.155   3.791
    1   AR   Ar  107   0.996   4.679   5.485
    1   AR   Ar  108   2.354   0.706   3.619
    1   AR   Ar  109   2.434   4.870   4.724
    1   AR   Ar  110   2.366   2.854   5.063
    1   AR   Ar  111   4.004   4.115   7.089
    1   AR   Ar  112   6.587   6.548   6.977
    1   AR   Ar  113   6.468   6.257  -1.579
    1   AR   Ar  114   2.800   0.046   0.335
    1   AR   Ar  115   6.773   4.551  -0.216
    1   AR   Ar  116   5.638   1.184   1.046
    1   AR   Ar  117   0.305   4.390   3.201
    1   AR   Ar  118   2.049   6.409   3.755
    1   AR   Ar  119   1.721   2.997   2.679
    1   AR   Ar  120   1.988   7.016   2.879
    1   AR   Ar  121   5.468   4.396   7.298
    1   AR   Ar  122   2.836   5.000   3.353
    1   AR   Ar  123   3.510   2.393   5.051
    1   AR   Ar  124   0.338   6.027   1.405
    1   AR   Ar  125   6.215   4.335   3.471
    1   AR   Ar  126   6.875   1.363   6.987
    1   AR   Ar  127   4.307   3.196   5.870
    1   AR   Ar  128   1.010   4.443   6.888
    1   AR   Ar  129   1.448   5.635   4.664
    1   AR   Ar  130   5.801   0.722  -4.641
    1   AR   Ar  131   4.242   0.083   0.082
    1   AR   Ar  132   1.642   2.237   1.836
    1   AR   Ar  133   4.284   0.309   4.504
    1   AR   Ar  134   3.571   1.116   4.695
    1   AR   Ar  135   5.841   0.401   5.605
    1   AR   Ar  136   5.247   6.440   2.287
    1   AR   Ar  137   2.525   4.785   6.000
    1   AR   Ar  138   5.786   1.419   6.117
    1   AR   Ar  139   6.294   2.634   5.428
    1   AR   Ar  140   5.088   6.586   4.897
    1   AR   Ar  141   3.415   5.288   4.341
    1   AR   Ar  142   4.064   5.877   8.789
    1   AR   Ar  143   5.040   6.497   8.114
    1   AR   Ar  144   0.084   3.158   5.140
    1   AR   Ar  145   4.771   4.730  -2.009
    1   AR   Ar  146   4.088   2.264   3.769
    1   AR   Ar  147   4.668   3.796  -0.071
    1   AR   Ar  148   1.789   5.793  -0.304
    1   AR   Ar  149   6.527   1.832  -0.440
    1   AR   Ar  150   0.781   1.944   2.359
    1   AR   Ar  151   2.914   3.118   2.038
    1   AR   Ar  152   0.732   1.339  -0.018
    1   AR   Ar  153   4.964   1.113   3.114
    1   AR   Ar  154   4.846   3.020   3.910
    1   AR   Ar  155   5.558   3.644   5.871
    1   AR   Ar  156   3.374   4.103   3.221
    1   AR   Ar  157   3.354   6.035   6.458
    1   AR   Ar  158   1.531   2.448   7.299
    1   AR   Ar  159   4.598   0.444   5.805
    1   AR   Ar  160   1.050   1.742   4.607
    1   AR   Ar  161   5.216   4.621   3.885
    1   AR   Ar  162   3.590   5.560  -1.323
    1   AR   Ar  163   6.504   4.124   2.451
    1   AR   Ar  164   2.437   5.692   2.522
    1   AR   Ar  165   3.781   4.142   0.768
    1   AR   Ar  166   3.248   3.484   5.060
    1   AR   Ar  167   5.807   0.083   4.539
    1   AR   Ar  168   5.942   4.668  -2.702
    1   AR   Ar  169   4.316   3.394   2.983
    1   AR   Ar  170   2.596   2.640   7.073
    1   AR   Ar  171   4.647   5.622   3.861
    1   AR   Ar  172   4.135   3.104   4.619
    1   AR   Ar  173   0.467   2.065   7.917
    1   AR   Ar  174   3.016   6.396   4.466
    1   AR   Ar  175   0.885   0.292   7.678
    1   AR   Ar  176   3.448   3.025   3.407
    1   AR   Ar  177   0.135   3.727  -1.746
    1   AR   Ar  178   2.211   6.374   1.295
    1   AR   Ar  179   3.367   5.955   0.476
    1   AR   Ar  180   4.931   5.958  -7.038
    1   AR   Ar  181   6.987   6.272   2.203
    1   AR   Ar  182   0.795   6.524   2.838
    1   AR   Ar  183   5.178   5.541   1.623
    1   AR   Ar  184   3.663   5.000  -0.055
    1   AR   Ar  185   3.384   4.044   4.327
    1   AR   Ar  186   3.054   6.714   3.229
    1   AR   Ar  187   4.096   6.482   3.838
    1   AR   Ar  188   3.255   1.210   1.488
    1   AR   Ar  189   6.230   2.738   6.446
    1   AR   Ar  190   1.487   0.609   4.433
    1   AR   Ar  191   4.326   5.772   4.897
    1   AR   Ar  192   3.689   2.811   6.740
    1   AR   Ar  193   3.245   6.126   1.923
    1   AR   Ar  194   4.558   6.010  -0.132
    1   AR   Ar  195   6.336   1.955   1.558
    1   AR   Ar  196   4.918   6.806   1.188
    1   AR   Ar  197   4.748   2.813  -0.162
    1   AR   Ar  198   6.742   6.541   0.601
    1   AR   Ar  199   7.070   0.340   2.461
    1   AR   Ar  200   5.338   2.012   0.333
    1   AR   Ar  201   6.825   5.200   3.398
    1   AR   Ar  202   5.201   0.825   4.299
    1   AR   Ar  203   7.106   0.027   3.478
    1   AR   Ar  204   4.962   5.244   7.793
    1   AR   Ar  205   5.245   1.875   2.127
    1   AR   Ar  206   6.328   0.467   6.570
    1   AR   Ar  207   0.585   4.027   4.685
    1   AR   Ar  208   0.848   6.047   3.863
    1   AR   Ar  209   5.018   2.587  -1.637
    1   AR   Ar  210   2.497   2.236  -0.119
    1   AR   Ar  211   6.821   3.178   0.270
    1   AR   Ar  212   5.912   4.604   0.397
    1   AR   Ar  213   4.068   1.596   0.617
    1   AR   Ar  214   5.623   4.299   1.542
    1   AR   Ar  215   0.302   3.103   2.333
    1   AR   Ar  216   1.922   3.169  -0.708
    1   AR   Ar  217   4.849   2.093   4.350
    1   AR   Ar  218   4.490   2.320   5.300
    1   AR   Ar  219   4.539   3.875   2.168
    1   AR   Ar  220   4.487   4.830   1.132
    1   AR   Ar  221   6.610   6.241   3.709
    1   AR   Ar  222   5.580   6.630   5.946
    1   AR   Ar  223   0.243   0.636   6.094
    1   AR   Ar  224   4.572   1.295   5.105
    1   AR   Ar  225   6.363   2.997   2.678
    1   AR   Ar  226   2.451   3.483   3.980
    1   AR   Ar  227   1.852   2.430   4.371
    1   AR   Ar  228   6.038   0.409   2.454
    1   AR   Ar  229   5.677   3.886  -0.590
    1   AR   Ar  230   4.252   4.703   3.406
    1   AR   Ar  231   5.039   2.294   3.131
    1   AR   Ar  232   5.679   3.367   1.884
    1   AR   Ar  233   6.816   1.357   2.834
    1   AR   Ar  234   6.439   3.976   4.692
    1   AR   Ar  235   7.009   0.777   4.360
    1   AR   Ar  236   4.400   4.039   4.677
    1   AR   Ar  237   4.240   1.839   7.152
    1   AR   Ar  238   4.803   4.445   6.081
    1   AR   Ar  239   1.335   4.672  10.101
    1   AR   Ar  240   1.582   3.270   6.243
    1   AR   Ar  241   0.755   6.732  -0.471
    1   AR   Ar  242   6.025   6.457   1.602
    1   AR   Ar  243   4.309   6.096   2.162
    1   AR   Ar  244   5.680   6.594   0.322
    1   AR   Ar  245   3.328   1.704   3.213
    1   AR   Ar  246   5.410   5.741  -1.338
    1   AR   Ar  247   6.880   3.665   1.392
    1   AR   Ar  248   5.790   5.310  -0.437
    1   AR   Ar  249   3.601   0.409   0.749
    1   AR   Ar  250   5.369   6.579   3.398
    1   AR   Ar  251   5.364   3.654   4.855
    1   AR   Ar  252   2.779   4.878   1.777
    1   AR   Ar  253   5.235   2.664   6.940
    1   AR   Ar  254   3.998   4.620  13.357
    1   AR   Ar  255   4.987   5.723   9.222
    1   AR   Ar  256   5.603   5.620   3.475
    7.12000  7.12000 12.00000
Argon-slab step 5820
  256
    1   AR   Ar    1   4.114   2.567  -1.168
    1   AR   Ar    2   5.843   0.190   1.172
    1   AR   Ar    3   4.590   3.739  -1.366
    1   AR   Ar    4   1.990   0.998   1.084
    1   AR   Ar    5   6.646   5.544   0.319
    1   AR   Ar    6   1.288   0.802   1.997
    1   AR   Ar    7   5.426   4.653   2.539
    1   AR   Ar    8   6.004   2.709  -0.284
    1   AR   Ar    9   6.899   5.663   4.686
    1   AR   Ar   10   6.043   4.847   5.658
    1   AR   Ar   11   0.946   6.777   4.898
    1   AR   Ar   12   6.854   1.934   4.482
    1   AR   Ar   13   6.587   6.910   5.145
    1   AR   Ar   14   4.569   1.558   6.205
    1   AR   Ar   15   2.958   5.362   9.226
    1   AR   Ar   16   0.848   6.990   6.554
    1   AR   Ar   17   5.474   3.454   0.438
    1   AR   Ar   18   6.903   4.051  -2.863
    1   AR   Ar   19   4.872   4.958   0.203
    1   AR   Ar   20   6.776   3.147  -2.480
    1   AR   Ar   21   2.543   1.264   2.392
    1   AR   Ar   22   5.073   0.339   2.070
    1   AR   Ar   23   0.697   5.645  -0.040
    1   AR   Ar   24   6.057   2.802   4.414
    1   AR   Ar   25   0.972   3.537   5.518
    1   AR   Ar   26   5.867   5.761   4.898
    1   AR   Ar   27   0.882   0.774   0.922
    1   AR   Ar   28   2.887   2.453   4.142
    1   AR   Ar   29   5.388   6.673   6.967
    1   AR   Ar   30   5.979   0.322   3.500
    1   AR   Ar   31   1.008   1.149   6.810
    1   AR   Ar   32   1.165   2.139   6.359
    1   AR   Ar   33   5.693   5.638   0.685
    1   AR   Ar   34   1.888   5.303   3.437
    1   AR   Ar   35   6.023   5.634   2.435
    1   AR   Ar   36   3.880   1.738  -3.900
    1   AR   Ar   37   4.615   3.519   0.946
    1   AR   Ar   38   6.194   4.950   4.329
    1   AR   Ar   39   0.102   3.328   4.017
    1   AR   Ar   40   0.612   4.112   2.170
    1   AR   Ar   41   0.556   1.902   3.696
    1   AR   Ar   42   5.015   4.908   5.106
    1   AR   Ar   43   0.161   3.212   6.422
    1   AR   Ar   44   1.439   4.355   3.044
    1   AR   Ar   45   2.362   3.953   5.261
    1   AR   Ar   46   5.970   5.580   6.905
    1   AR   Ar   47   2.860   3.881   6.941
    1   AR   Ar   48   0.568   3.539   7.419
    1   AR   Ar   49   7.057   2.030   0.490
    1   AR   Ar   50   2.873   4.810   0.647
    1   AR   Ar   51   5.377   3.512   3.188
    1   AR   Ar   52   5.691   3.809  -2.073
    1   AR   Ar   53   4.384   0.175   3.191
    1   AR   Ar   54   6.176   6.635   2.701
    1   AR   Ar   55   7.056   5.107   2.430
    1   AR   Ar   56   6.207   1.835   3.659
    1   AR   Ar   57   4.690   5.270   2.509
    1   AR   Ar   58   1.507   3.385   4.482
    1   AR   Ar   59   3.845   5.169   5.720
    1   AR   Ar   60   1.154   5.113   2.366
    1   AR   Ar   61   6.637   4.786   6.438
    1   AR   Ar   62   6.883   4.130   5.614
    1   AR   Ar   63   1.913   1.517   7.836
    1   AR   Ar   64   0.714   4.854   4.152
    1   AR   Ar   65   4.010   1.127   2.676
    1   AR   Ar   66   0.900   2.103   0.591
    1   AR   Ar   67   4.418   1.495  -0.770
    1   AR   Ar   68   6.934   0.943   0.956
    1   AR   Ar   69   2.587   2.514   1.094
    1   AR   Ar   70   0.028   1.227   1.932
    1   AR   Ar   71   3.263   0.622   3.136
    1   AR   Ar   72   4.514   1.026   1.582
    1   AR   Ar   73   3.275   0.209   4.203
    1   AR   Ar   74   1.183   0.788   3.346
    1   AR   Ar   75   3.041   0.741   5.593
    1   AR   Ar   76   2.699   7.120   2.113
    1   AR   Ar   77   1.198   5.712   6.608
    1   AR   Ar   78   6.877   5.713   6.036
    1   AR   Ar   79   3.821   6.648   5.220
    1   AR   Ar   80   3.603   4.146   6.013
    1   AR   Ar   81   1.453   6.022   1.876
    1   AR   Ar   82   7.028   4.924   0.964
    1   AR   Ar   83   1.598   3.248   1.094
    1   AR   Ar   84   0.944   4.565   1.020
    1   AR   Ar   85   0.379   2.655  -0.676
    1   AR   Ar   86   1.392   5.510   0.815
    1   AR   Ar   87   4.003   2.489   2.495
    1   AR   Ar   88   3.705   5.251   1.660
    1   AR   Ar   89   5.961   2.775   1.042
    1   AR   Ar   90   3.472   1.052   6.694
    1   AR   Ar   91   1.655   1.828   2.953
    1   AR   Ar   92   3.686   3.100   1.080
    1   AR   Ar   93   1.029   1.229   5.555
    1   AR   Ar   94   0.315   6.957   9.498
    1   AR   Ar   95   4.808   0.515   6.839
    1   AR   Ar   96   1.756   0.222   5.572
    1   AR   Ar   97   5.020   1.205  -1.823
    1   AR   Ar   98   1.609   4.408   4.093
    1   AR   Ar   99   5.766   6.715  -0.849
    1   AR   Ar  100   6.380   2.243  -3.025
    1   AR   Ar  101   3.911   5.638   2.975
    1   AR   Ar  102   4.153   2.134   1.485
    1   AR   Ar  103   1.512   3.939   1.954
    1   AR   Ar  104   3.347   0.814  -0.520
    1   AR   Ar  105   2.662   2.475   3.026
    1   AR   Ar  106   4.144   1.185   3.803
    1   AR   Ar  107   0.985   4.663   5.450
    1   AR   Ar  108   2.340   0.710   3.655
    1   AR   Ar  109   2.441   4.873   4.730
    1   AR   Ar  110   2.395   2.894   5.089
    1   AR   Ar  111   3.990   4.111   7.150
    1   AR   Ar  112   6.619   6.587   6.982
    1   AR   Ar  113   6.449   6.269  -1.579
    1   AR   Ar  114   2.805   0.044   0.343
    1   AR   Ar  115   6.731   4.542  -0.232
    1   AR   Ar  116   5.634   1.187   1.084
    1   AR   Ar  117   0.307   4.387   3.179
    1   AR   Ar  118   2.031   6.390   3.753
    1   AR   Ar  119   1.688   3.012   2.675
    1   AR   Ar  120   2.001   6.993   2.872
    1   AR   Ar  121   5.453   4.424   7.282
    1   AR   Ar  122   2.813   4.993   3.321
    1   AR   Ar  123   3.501   2.397   5.076
    1   AR   Ar  124   0.336   6.021   1.381
    1   AR   Ar  125   6.203   4.363   3.480
    1   AR   Ar  126   6.846   1.376   6.977
    1   AR   Ar  127   4.305   3.177   5.883
    1   AR   Ar  128   1.012   4.450   6.875
    1   AR   Ar  129   1.464   5.620   4.670
    1   AR   Ar  130   5.807   0.713  -4.644
    1   AR   Ar  131   4.251   0.067   0.101
    1   AR   Ar  132   1.654   2.227   1.843
    1   AR   Ar  133   4.312   0.301   4.486
    1   AR   Ar  134   3.603   1.085   4.684
    1   AR   Ar  135   5.836   0.411   5.616
    1   AR   Ar  136   5.223   6.395   2.281
    1   AR   Ar  137   2.527   4.755   6.008
    1   AR   Ar  138   5.793   1.439   6.114
    1   AR   Ar  139   6.306   2.628   5.453
    1   AR   Ar  140   5.071   6.566   4.885
    1   AR   Ar  141   3.427   5.267   4.341
    1   AR   Ar  142   4.065   5.869   8.777
    1   AR   Ar  143   5.039   6.492   8.117
    1   AR   Ar  144   0.088   3.141   5.156
    1   AR   Ar  145   4.769   4.728  -2.021
    1   AR   Ar  146   4.085   2.274   3.741
    1   AR   Ar  147   4.681   3.802  -0.075
    1   AR   Ar  148   1.800   5.798  -0.280
    1   AR   Ar  149   6.531   1.819  -0.458
    1   AR   Ar  150   0.779   1.935   2.365
    1   AR   Ar  151   2.910   3.106   2.069
    1   AR   Ar  152   0.710   1.296  -0.009
    1   AR   Ar  153   4.972   1.115   3.090
    1   AR   Ar  154   4.866   2.996   3.871
    1   AR   Ar  155   5.512   3.660   5.858
    1   AR   Ar  156   3.358   4.088   3.206
    1   AR   Ar  157   3.342   6.018   6.469
    1   AR   Ar  158   1.551   2.438   7.325
    1   AR   Ar  159   4.575   0.441   5.797
    1   AR   Ar  160   1.065   1.757   4.567
    1   AR   Ar  161   5.226   4.623   3.886
    1   AR   Ar  162   3.562   5.566  -1.318
    1   AR   Ar  163   6.528   4.132   2.446
    1   AR   Ar  164   2.440   5.680   2.522
    1   AR   Ar  165   3.782   4.160   0.758
    1   AR   Ar  166   3.271   3.482   5.108
    1   AR   Ar  167   5.810   0.051   4.560
    1   AR   Ar  168   5.976   4.641  -2.713
    1   AR   Ar  169   4.314   3.369   3.006
    1   AR   Ar  170   2.635   2.657   7.040
    1   AR   Ar  171   4.664   5.636   3.848
    1   AR   Ar  172   4.107   3.100   4.629
    1   AR   Ar  173   0.466   2.086   7.912
    1   AR   Ar  174   3.025   6.406   4.455
    1   AR   Ar  175   0.915   0.294   7.711
    1   AR   Ar  176   3.463   3.030   3.412
    1   AR   Ar  177   0.155   3.716  -1.752
    1   AR   Ar  178   2.206   6.361   1.281
    1   AR   Ar  179   3.376   5.956   0.509
    1   AR   Ar  180   4.928   5.956  -7.031
    1   AR   Ar  181   6.950   6.266   2.204
    1   AR   Ar  182   0.796   6.491   2.829
    1   AR   Ar  183   5.197   5.531   1.647
    1   AR   Ar  184   3.656   4.980  -0.093
    1   AR   Ar  185   3.392   4.039   4.274
    1   AR   Ar  186   3.039   6.701   3.205
    1   AR   Ar  187   4.081   6.455   3.844
    1   AR   Ar  188   3.262   1.192   1.481
    1   AR   Ar  189   6.226   2.759   6.439
    1   AR   Ar  190   1.471   0.628   4.482
    1   AR   Ar  191   4.347   5.748   4.878
    1   AR   Ar  192   3.697   2.782   6.739
    1   AR   Ar  193   3.209   6.115   1.934
    1   AR   Ar  194   4.531   6.020  -0.141
    1   AR   Ar  195   6.330   1.975   1.588
    1   AR   Ar  196   4.885   6.806   1.191
    1   AR   Ar  197   4.810   2.826  -0.203
    1   AR   Ar  198   6.744   6.560   0.566
    1   AR   Ar  199   7.095   0.369   2.476
    1   AR   Ar  200   5.328   2.024   0.324
    1   AR   Ar  201   6.810   5.187   3.452
    1   AR   Ar  202   5.223   0.883   4.328
    1   AR   Ar  203   7.082   0.044   3.495
    1   AR   Ar  204   4.946   5.242   7.777
    1   AR   Ar  205   5.255   1.879   2.135
    1   AR   Ar  206   6.309   0.465   6.574
    1   AR   Ar  207   0.581   4.030   4.682
    1   AR   Ar  208   0.837   6.070   3.871
    1   AR   Ar  209   5.019   2.584  -1.630
    1   AR   Ar  210   2.521   2.236  -0.117
    1   AR   Ar  211   6.807   3.193   0.256
    1   AR   Ar  212   5.943   4.590   0.403
    1   AR   Ar  213   4.070   1.606   0.640
    1   AR   Ar  214   5.602   4.274   1.514
    1   AR   Ar  215   0.294   3.091   2.311
    1   AR   Ar  216   1.894   3.178  -0.717
    1   AR   Ar  217   4.872   2.077   4.386
    1   AR   Ar  218   4.482   2.316   5.311
    1   AR   Ar  219   4.562   3.864   2.149
    1   AR   Ar  220   4.497   4.814   1.128
    1   AR   Ar  221   6.572   6.269   3.677
    1   AR   Ar  222   5.604   6.647   5.960
    1   AR   Ar  223   0.271   0.624   6.107
    1   AR   Ar  224   4.552   1.292   5.085
    1   AR   Ar  225   6.349   2.987   2.688
    1   AR   Ar  226   2.446   3.483   3.989
    1   AR   Ar  227   1.854   2.438   4.379
    1   AR   Ar  228   6.017   0.426   2.446
    1   AR   Ar  229   5.648   3.892  -0.582
    1   AR   Ar  230   4.260   4.697   3.410
    1   AR   Ar  231   5.044   2.299   3.144
    1   AR   Ar  232   5.666   3.320   1.885
    1   AR   Ar  233   6.796   1.344   2.843
    1   AR   Ar  234   6.434   4.004   4.710
    1   AR   Ar  235   7.023   0.758   4.350
    1   AR   Ar  236   4.410   4.038   4.678
    1   AR   Ar  237   4.214   1.841   7.170
    1   AR   Ar  238   4.841   4.429   6.096
    1   AR   Ar  239   1.341   4.709  10.084
    1   AR   Ar  240   1.582   3.274   6.262
    1   AR   Ar  241   0.784   6.723  -0.469
    1   AR   Ar  242   6.048   6.473   1.584
    1   AR   Ar  243   4.282   6.109   2.143
    1   AR   Ar  244   5.666   6.588   0.308
    1   AR   Ar  245   3.326   1.698   3.212
    1   AR   Ar  246   5.417   5.762  -1.350
    1   AR   Ar  247   6.866   3.673   1.395
    1   AR   Ar  248   5.780   5.343  -0.413
    1   AR   Ar  249   3.624   0.413   0.746
    1   AR   Ar  250   5.371   6.586   3.406
    1   AR   Ar  251   5.378   3.648   4.853
    1   AR   Ar  252   2.756   4.868   1.801
    1   AR   Ar  253   5.233   2.663   6.935
    1   AR   Ar  254   3.996   4.608  13.363
    1   AR   Ar  255   4.975   5.740   9.229
    1   AR   Ar  256   5.632   5.586   3.520
    7.12000  7.12000 12.00000
Argon-slab step 5825
  256
    1   AR   Ar    1   4.118   2.588  -1.131
    1   AR   Ar    2   5.829   0.205   1.174
    1   AR   Ar    3   4.587   3.736  -1.356
    1   AR   Ar    4   2.013   0.996   1.105
    1   AR   Ar    5   6.638   5.556   0.303
    1   AR   Ar    6   1.280   0.842   2.001
    1   AR   Ar    7   5.422   4.606   2.539
    1   AR   Ar    8   5.982   2.710  -0.284
    1   AR   Ar    9   6.914   5.701   4.679
    1   AR   Ar   10   6.039   4.864   5.652
    1   AR   Ar   11   0.952   6.819   4.869
    1   AR   Ar   12   6.874   1.948   4.481
    1   AR   Ar   13   6.610   6.922   5.151
    1   AR   Ar   14   4.585   1.583   6.211
    1   AR   Ar   15   2.982   5.369   9.208
    1   AR   Ar   16   0.863   7.016   6.557
    1   AR   Ar   17   5.477   3.457   0.431
    1   AR   Ar   18   6.885   4.049  -2.857
    1   AR   Ar   19   4.883   4.986   0.167
    1   AR   Ar   20   6.774   3.155  -2.508
    1   AR   Ar   21   2.573   1.301   2.371
    1   AR   Ar   22   5.057   0.342   2.058
    1   AR   Ar   23   0.686   5.634  -0.037
    1   AR   Ar   24   6.085   2.817   4.428
    1   AR   Ar   25   0.984   3.527   5.524
    1   AR   Ar   26   5.824   5.770   4.915
    1   AR   Ar   27   0.872   0.784   0.872
    1   AR   Ar   28   2.859   2.485   4.165
    1   AR   Ar   29   5.386   6.664   6.956
    1   AR   Ar   30   5.976   0.301   3.513
    1   AR   Ar   31   1.010   1.155   6.806
    1   AR   Ar   32   1.176   2.134   6.385
    1   AR   Ar   33   5.693   5.643   0.687
    1   AR   Ar   34   1.849   5.316   3.446
    1   AR   Ar   35   6.024   5.615   2.436
    1   AR   Ar   36   3.903   1.755  -3.906
    1   AR   Ar   37   4.624   3.499   0.974
    1   AR   Ar   38   6.150   4.973   4.319
    1   AR   Ar   39   0.071   3.363   3.983
    1   AR   Ar   40   0.584   4.105   2.165
    1   AR   Ar   41   0.564   1.909   3.710
    1   AR   Ar   42   5.015   4.912   5.121
    1   AR   Ar   43   0.167   3.217   6.400
    1   AR   Ar   44   1.440   4.351   3.036
    1   AR   Ar   45   2.396   3.973   5.262
    1   AR   Ar   46   5.950   5.616   6.894
    1   AR   Ar   47   2.849   3.867   6.905
    1   AR   Ar   48   0.582   3.584   7.420
    1   AR   Ar   49   7.059   2.033   0.436
    1   AR   Ar   50   2.856   4.800   0.629
    1   AR   Ar   51   5.392   3.501   3.194
    1   AR   Ar   52   5.730   3.801  -2.052
    1   AR   Ar   53   4.395   0.178   3.199
    1   AR   Ar   54   6.183   6.603   2.692
    1   AR   Ar   55   7.024   5.118   2.413
    1   AR   Ar   56   6.219   1.841   3.645
    1   AR   Ar   57   4.705   5.259   2.533
    1   AR   Ar   58   1.509   3.409   4.492
    1   AR   Ar   59   3.878   5.160   5.719
    1   AR   Ar   60   1.163   5.144   2.341
    1   AR   Ar   61   6.627   4.803   6.439
    1   AR   Ar   62   6.887   4.134   5.616
    1   AR   Ar   63   1.899   1.524   7.819
    1   AR   Ar   64   0.718   4.840   4.147
    1   AR   Ar   65   4.012   1.107   2.675
    1   AR   Ar   66   0.921   2.103   0.573
    1   AR   Ar   67   4.418   1.495  -0.777
    1   AR   Ar   68   6.897   0.964   0.989
    1   AR   Ar   69   2.626   2.482   1.084
    1   AR   Ar   70   0.046   1.254   1.936
    1   AR   Ar   71   3.244   0.622   3.134
    1   AR   Ar   72   4.520   1.051   1.590
    1   AR   Ar   73   3.270   0.220   4.166
    1   AR   Ar   74   1.158   0.802   3.343
    1   AR   Ar   75   3.061   0.739   5.593
    1   AR   Ar   76   2.678   0.000   2.111
    1   AR   Ar   77   1.202   5.740   6.624
    1   AR   Ar   78   6.859   5.708   5.992
    1   AR   Ar   79   3.823   6.617   5.193
    1   AR   Ar   80   3.582   4.162   6.018
    1   AR   Ar   81   1.451   5.993   1.873
    1   AR   Ar   82   7.028   4.943   0.970
    1   AR   Ar   83   1.601   3.232   1.051
    1   AR   Ar   84   0.936   4.540   1.008
    1   AR   Ar   85   0.394   2.669  -0.696
    1   AR   Ar   86   1.406   5.532   0.816
    1   AR   Ar   87   3.999   2.433   2.526
    1   AR   Ar   88   3.690   5.229   1.661
    1   AR   Ar   89   5.986   2.767   1.049
    1   AR   Ar   90   3.484   1.036   6.711
    1   AR   Ar   91   1.685   1.829   2.949
    1   AR   Ar   92   3.657   3.112   1.066
    1   AR   Ar   93   1.038   1.271   5.577
    1   AR   Ar   94   0.302   6.944   9.517
    1   AR   Ar   95   4.791   0.493   6.827
    1   AR   Ar   96   1.760   0.238   5.588
    1   AR   Ar   97   5.051   1.192  -1.833
    1   AR   Ar   98   1.622   4.401   4.090
    1   AR   Ar   99   5.772   6.733  -0.831
    1   AR   Ar  100   6.350   2.227  -3.047
    1   AR   Ar  101   3.922   5.608   2.946
    1   AR   Ar  102   4.153   2.152   1.471
    1   AR   Ar  103   1.532   3.936   1.937
    1   AR   Ar  104   3.331   0.795  -0.538
    1   AR   Ar  105   2.649   2.485   3.033
    1   AR   Ar  106   4.110   1.214   3.812
    1   AR   Ar  107   0.974   4.649   5.415
    1   AR   Ar  108   2.335   0.710   3.696
    1   AR   Ar  109   2.449   4.879   4.735
    1   AR   Ar  110   2.427   2.935   5.119
    1   AR   Ar  111   3.976   4.107   7.208
    1   AR   Ar  112   6.649   6.625   6.985
    1   AR   Ar  113   6.429   6.280  -1.578
    1   AR   Ar  114   2.800   0.037   0.347
    1   AR   Ar  115   6.693   4.534  -0.251
    1   AR   Ar  116   5.629   1.197   1.123
    1   AR   Ar  117   0.312   4.382   3.158
    1   AR   Ar  118   2.014   6.369   3.752
    1   AR   Ar  119   1.673   3.031   2.668
    1   AR   Ar  120   2.008   7.000   2.877
    1   AR   Ar  121   5.438   4.452   7.264
    1   AR   Ar  122   2.802   4.984   3.288
    1   AR   Ar  123   3.482   2.398   5.100
    1   AR   Ar  124   0.339   6.011   1.348
    1   AR   Ar  125   6.189   4.384   3.484
    1   AR   Ar  126   6.819   1.389   6.966
    1   AR   Ar  127   4.302   3.162   5.896
    1   AR   Ar  128   1.012   4.435   6.882
    1   AR   Ar  129   1.481   5.603   4.675
    1   AR   Ar  130   5.812   0.705  -4.648
    1   AR   Ar  131   4.272   0.045   0.109
    1   AR   Ar  132   1.668   2.219   1.848
    1   AR   Ar  133   4.321   0.281   4.469
    1   AR   Ar  134   3.630   1.058   4.676
    1   AR   Ar  135   5.831   0.434   5.620
    1   AR   Ar  136   5.206   6.354   2.278
    1   AR   Ar  137   2.531   4.725   6.015
    1   AR   Ar  138   5.800   1.458   6.110
    1   AR   Ar  139   6.318   2.621   5.470
    1   AR   Ar  140   5.045   6.532   4.861
    1   AR   Ar  141   3.442   5.261   4.329
    1   AR   Ar  142   4.061   5.860   8.763
    1   AR   Ar  143   5.038   6.486   8.120
    1   AR   Ar  144   0.089   3.123   5.170
    1   AR   Ar  145   4.771   4.723  -2.033
    1   AR   Ar  146   4.079   2.281   3.712
    1   AR   Ar  147   4.694   3.817  -0.074
    1   AR   Ar  148   1.809   5.804  -0.255
    1   AR   Ar  149   6.537   1.803  -0.476
    1   AR   Ar  150   0.772   1.927   2.372
    1   AR   Ar  151   2.907   3.094   2.099
    1   AR   Ar  152   0.685   1.249  -0.003
    1   AR   Ar  153   4.985   1.119   3.066
    1   AR   Ar  154   4.884   2.976   3.843
    1   AR   Ar  155   5.466   3.664   5.852
    1   AR   Ar  156   3.343   4.071   3.188
    1   AR   Ar  157   3.331   6.000   6.479
    1   AR   Ar  158   1.569   2.429   7.352
    1   AR   Ar  159   4.553   0.438   5.786
    1   AR   Ar  160   1.081   1.768   4.533
    1   AR   Ar  161   5.236   4.623   3.889
    1   AR   Ar  162   3.536   5.571  -1.312
    1   AR   Ar  163   6.536   4.129   2.459
    1   AR   Ar  164   2.439   5.669   2.523
    1   AR   Ar  165   3.779   4.178   0.746
    1   AR   Ar  166   3.297   3.477   5.165
    1   AR   Ar  167   5.815   0.021   4.575
    1   AR   Ar  168   6.010   4.615  -2.723
    1   AR   Ar  169   4.316   3.346   3.032
    1   AR   Ar  170   2.674   2.674   7.007
    1   AR   Ar  171   4.680   5.645   3.836
    1   AR   Ar  172   4.080   3.086   4.634
    1   AR   Ar  173   0.466   2.106   7.907
    1   AR   Ar  174   3.031   6.404   4.444
    1   AR   Ar  175   0.945   0.298   7.742
    1   AR   Ar  176   3.449   3.030   3.418
    1   AR   Ar  177   0.188   3.712  -1.761
    1   AR   Ar  178   2.207   6.382   1.247
    1   AR   Ar  179   3.385   5.956   0.543
    1   AR   Ar  180   4.924   5.953  -7.025
    1   AR   Ar  181   6.916   6.257   2.208
    1   AR   Ar  182   0.796   6.459   2.819
    1   AR   Ar  183   5.218   5.521   1.667
    1   AR   Ar  184   3.639   4.970  -0.117
    1   AR   Ar  185   3.400   4.040   4.216
    1   AR   Ar  186   3.024   6.684   3.182
    1   AR   Ar  187   4.061   6.435   3.851
    1   AR   Ar  188   3.269   1.175   1.474
    1   AR   Ar  189   6.221   2.783   6.440
    1   AR   Ar  190   1.454   0.647   4.532
    1   AR   Ar  191   4.367   5.724   4.859
    1   AR   Ar  192   3.706   2.754   6.736
    1   AR   Ar  193   3.175   6.108   1.942
    1   AR   Ar  194   4.505   6.029  -0.150
    1   AR   Ar  195   6.325   1.990   1.620
    1   AR   Ar  196   4.852   6.805   1.194
    1   AR   Ar  197   4.874   2.828  -0.246
    1   AR   Ar  198   6.746   6.582   0.534
    1   AR   Ar  199   0.002   0.390   2.493
    1   AR   Ar  200   5.308   2.038   0.310
    1   AR   Ar  201   6.796   5.183   3.510
    1   AR   Ar  202   5.243   0.945   4.354
    1   AR   Ar  203   7.061   0.063   3.512
    1   AR   Ar  204   4.929   5.242   7.762
    1   AR   Ar  205   5.266   1.882   2.141
    1   AR   Ar  206   6.312   0.491   6.573
    1   AR   Ar  207   0.574   4.025   4.681
    1   AR   Ar  208   0.826   6.092   3.878
    1   AR   Ar  209   5.027   2.582  -1.626
    1   AR   Ar  210   2.552   2.242  -0.111
    1   AR   Ar  211   6.794   3.208   0.244
    1   AR   Ar  212   5.967   4.575   0.414
    1   AR   Ar  213   4.071   1.610   0.655
    1   AR   Ar  214   5.579   4.255   1.482
    1   AR   Ar  215   0.286   3.078   2.288
    1   AR   Ar  216   1.866   3.186  -0.726
    1   AR   Ar  217   4.900   2.057   4.421
    1   AR   Ar  218   4.480   2.313   5.328
    1   AR   Ar  219   4.551   3.874   2.129
    1   AR   Ar  220   4.510   4.796   1.133
    1   AR   Ar  221   6.532   6.294   3.647
    1   AR   Ar  222   5.626   6.651   5.972
    1   AR   Ar  223   0.296   0.615   6.119
    1   AR   Ar  224   4.534   1.287   5.066
    1   AR   Ar  225   6.346   2.981   2.667
    1   AR   Ar  226   2.445   3.484   3.999
    1   AR   Ar  227   1.853   2.437   4.379
    1   AR   Ar  228   5.998   0.464   2.431
    1   AR   Ar  229   5.620   3.898  -0.573
    1   AR   Ar  230   4.267   4.690   3.415
    1   AR   Ar  231   5.050   2.301   3.153
    1   AR   Ar  232   5.654   3.265   1.897
    1   AR   Ar  233   6.772   1.334   2.863
    1   AR   Ar  234   6.441   3.992   4.741
    1   AR   Ar  235   7.038   0.740   4.340
    1   AR   Ar  236   4.422   4.050   4.680
    1   AR   Ar  237   4.187   1.843   7.189
    1   AR   Ar  238   4.877   4.415   6.111
    1   AR   Ar  239   1.346   4.746  10.066
    1   AR   Ar  240   1.588   3.275   6.290
    1   AR   Ar  241   0.814   6.712  -0.466
    1   AR   Ar  242   6.068   6.489   1.556
    1   AR   Ar  243   4.256   6.103   2.117
    1   AR   Ar  244   5.632   6.574   0.315
    1   AR   Ar  245   3.330   1.695   3.207
    1   AR   Ar  246   5.425   5.782  -1.363
    1   AR   Ar  247   6.851   3.682   1.400
    1   AR   Ar  248   5.771   5.376  -0.387
    1   AR   Ar  249   3.648   0.430   0.760
    1   AR   Ar  250   5.368   6.594   3.416
    1   AR   Ar  251   5.393   3.641   4.844
    1   AR   Ar  252   2.729   4.857   1.826
    1   AR   Ar  253   5.230   2.662   6.928
    1   AR   Ar  254   3.994   4.595  13.369
    1   AR   Ar  255   4.969   5.756   9.238
    1   AR   Ar  256   5.669   5.547   3.563
    7.12000  7.12000 12.00000
Argon-slab step 5830
  256
    1   AR   Ar    1   4.141   2.563  -1.100
    1   AR   Ar    2   5.812   0.233   1.168
    1   AR   Ar    3   4.586   3.732  -1.345
    1   AR   Ar    4   2.037   0.995   1.126
    1   AR   Ar    5   6.630   5.572   0.276
    1   AR   Ar    6   1.279   0.916   2.004
    1   AR   Ar    7   5.431   4.548   2.542
    1   AR   Ar    8   5.958   2.713  -0.282
    1   AR   Ar    9   6.931   5.738   4.671
    1   AR   Ar   10   6.027   4.881   5.635
    1   AR   Ar   11   0.959   6.861   4.839
    1   AR   Ar   12   6.896   1.963   4.483
    1   AR   Ar   13   6.640   6.932   5.162
    1   AR   Ar   14   4.601   1.606   6.216
    1   AR   Ar   15   3.007   5.376   9.189
    1   AR   Ar   16   0.883   7.037   6.564
    1   AR   Ar   17   5.475   3.462   0.420
    1   AR   Ar   18   6.871   4.060  -2.856
    1   AR   Ar   19   4.895   5.014   0.129
    1   AR   Ar   20   6.758   3.148  -2.515
    1   AR   Ar   21   2.603   1.338   2.352
    1   AR   Ar   22   5.041   0.339   2.048
    1   AR   Ar   23   0.674   5.623  -0.032
    1   AR   Ar   24   6.113   2.832   4.441
    1   AR   Ar   25   0.995   3.519   5.526
    1   AR   Ar   26   5.780   5.781   4.934
    1   AR   Ar   27   0.866   0.805   0.868
    1   AR   Ar   28   2.838   2.516   4.187
    1   AR   Ar   29   5.384   6.655   6.953
    1   AR   Ar   30   5.976   0.285   3.527
    1   AR   Ar   31   1.011   1.159   6.803
    1   AR   Ar   32   1.204   2.145   6.369
    1   AR   Ar   33   5.676   5.615   0.682
    1   AR   Ar   34   1.804   5.330   3.457
    1   AR   Ar   35   6.024   5.590   2.437
    1   AR   Ar   36   3.926   1.773  -3.913
    1   AR   Ar   37   4.632   3.481   1.008
    1   AR   Ar   38   6.108   4.995   4.317
    1   AR   Ar   39   0.039   3.398   3.949
    1   AR   Ar   40   0.545   4.104   2.162
    1   AR   Ar   41   0.566   1.917   3.711
    1   AR   Ar   42   5.019   4.914   5.136
    1   AR   Ar   43   0.173   3.222   6.375
    1   AR   Ar   44   1.413   4.363   3.026
    1   AR   Ar   45   2.425   3.993   5.264
    1   AR   Ar   46   5.949   5.633   6.880
    1   AR   Ar   47   2.829   3.845   6.871
    1   AR   Ar   48   0.596   3.628   7.419
    1   AR   Ar   49   7.049   2.036   0.383
    1   AR   Ar   50   2.838   4.791   0.612
    1   AR   Ar   51   5.416   3.499   3.190
    1   AR   Ar   52   5.746   3.784  -2.048
    1   AR   Ar   53   4.406   0.180   3.207
    1   AR   Ar   54   6.173   6.581   2.696
    1   AR   Ar   55   6.995   5.130   2.395
    1   AR   Ar   56   6.227   1.849   3.630
    1   AR   Ar   57   4.726   5.247   2.553
    1   AR   Ar   58   1.507   3.437   4.506
    1   AR   Ar   59   3.868   5.151   5.743
    1   AR   Ar   60   1.170   5.168   2.319
    1   AR   Ar   61   6.622   4.817   6.453
    1   AR   Ar   62   6.897   4.139   5.626
    1   AR   Ar   63   1.885   1.530   7.801
    1   AR   Ar   64   0.717   4.840   4.136
    1   AR   Ar   65   4.019   1.089   2.667
    1   AR   Ar   66   0.953   2.106   0.560
    1   AR   Ar   67   4.426   1.488  -0.801
    1   AR   Ar   68   6.856   0.984   1.017
    1   AR   Ar   69   2.664   2.450   1.076
    1   AR   Ar   70   0.059   1.303   1.946
    1   AR   Ar   71   3.222   0.618   3.134
    1   AR   Ar   72   4.521   1.083   1.594
    1   AR   Ar   73   3.267   0.235   4.123
    1   AR   Ar   74   1.133   0.817   3.340
    1   AR   Ar   75   3.083   0.736   5.592
    1   AR   Ar   76   2.682   0.010   2.072
    1   AR   Ar   77   1.220   5.753   6.629
    1   AR   Ar   78   6.841   5.707   5.947
    1   AR   Ar   79   3.827   6.587   5.165
    1   AR   Ar   80   3.561   4.176   6.023
    1   AR   Ar   81   1.448   6.002   1.899
    1   AR   Ar   82   7.037   4.934   1.002
    1   AR   Ar   83   1.605   3.215   1.009
    1   AR   Ar   84   0.929   4.514   0.999
    1   AR   Ar   85   0.407   2.683  -0.714
    1   AR   Ar   86   1.420   5.554   0.817
    1   AR   Ar   87   3.994   2.376   2.559
    1   AR   Ar   88   3.676   5.210   1.663
    1   AR   Ar   89   6.013   2.760   1.050
    1   AR   Ar   90   3.497   1.021   6.727
    1   AR   Ar   91   1.716   1.830   2.946
    1   AR   Ar   92   3.624   3.122   1.052
    1   AR   Ar   93   1.047   1.313   5.599
    1   AR   Ar   94   0.289   6.931   9.536
    1   AR   Ar   95   4.775   0.472   6.816
    1   AR   Ar   96   1.763   0.255   5.604
    1   AR   Ar   97   5.076   1.209  -1.836
    1   AR   Ar   98   1.644   4.393   4.089
    1   AR   Ar   99   5.795   6.745  -0.810
    1   AR   Ar  100   6.305   2.201  -3.072
    1   AR   Ar  101   3.913   5.585   2.932
    1   AR   Ar  102   4.154   2.176   1.467
    1   AR   Ar  103   1.544   3.912   1.928
    1   AR   Ar  104   3.315   0.775  -0.554
    1   AR   Ar  105   2.630   2.495   3.038
    1   AR   Ar  106   4.082   1.241   3.814
    1   AR   Ar  107   0.965   4.637   5.382
    1   AR   Ar  108   2.327   0.709   3.737
    1   AR   Ar  109   2.456   4.886   4.737
    1   AR   Ar  110   2.456   2.973   5.149
    1   AR   Ar  111   3.962   4.102   7.264
    1   AR   Ar  112   6.653   6.635   6.984
    1   AR   Ar  113   6.410   6.291  -1.577
    1   AR   Ar  114   2.791   0.028   0.348
    1   AR   Ar  115   6.664   4.526  -0.277
    1   AR   Ar  116   5.612   1.202   1.142
    1   AR   Ar  117   0.315   4.375   3.139
    1   AR   Ar  118   1.997   6.348   3.752
    1   AR   Ar  119   1.669   3.051   2.658
    1   AR   Ar  120   2.007   7.027   2.890
    1   AR   Ar  121   5.424   4.478   7.243
    1   AR   Ar  122   2.798   4.974   3.257
    1   AR   Ar  123   3.455   2.394   5.126
    1   AR   Ar  124   0.344   5.999   1.310
    1   AR   Ar  125   6.171   4.394   3.482
    1   AR   Ar  126   6.793   1.402   6.954
    1   AR   Ar  127   4.299   3.153   5.909
    1   AR   Ar  128   1.012   4.421   6.887
    1   AR   Ar  129   1.498   5.585   4.679
    1   AR   Ar  130   5.817   0.697  -4.651
    1   AR   Ar  131   4.302   0.016   0.109
    1   AR   Ar  132   1.685   2.210   1.853
    1   AR   Ar  133   4.299   0.244   4.453
    1   AR   Ar  134   3.646   1.033   4.676
    1   AR   Ar  135   5.826   0.469   5.619
    1   AR   Ar  136   5.198   6.319   2.279
    1   AR   Ar  137   2.536   4.695   6.023
    1   AR   Ar  138   5.806   1.477   6.107
    1   AR   Ar  139   6.329   2.611   5.477
    1   AR   Ar  140   5.015   6.498   4.838
    1   AR   Ar  141   3.458   5.255   4.316
    1   AR   Ar  142   4.052   5.853   8.745
    1   AR   Ar  143   5.036   6.479   8.122
    1   AR   Ar  144   0.087   3.105   5.181
    1   AR   Ar  145   4.776   4.707  -2.049
    1   AR   Ar  146   4.076   2.287   3.684
    1   AR   Ar  147   4.695   3.845  -0.075
    1   AR   Ar  148   1.818   5.810  -0.228
    1   AR   Ar  149   6.535   1.799  -0.483
    1   AR   Ar  150   0.763   1.918   2.379
    1   AR   Ar  151   2.905   3.080   2.130
    1   AR   Ar  152   0.657   1.205  -0.005
    1   AR   Ar  153   5.003   1.122   3.044
    1   AR   Ar  154   4.895   2.960   3.836
    1   AR   Ar  155   5.428   3.659   5.850
    1   AR   Ar  156   3.329   4.054   3.165
    1   AR   Ar  157   3.321   5.981   6.488
    1   AR   Ar  158   1.587   2.423   7.378
    1   AR   Ar  159   4.530   0.435   5.771
    1   AR   Ar  160   1.100   1.774   4.510
    1   AR   Ar  161   5.241   4.621   3.894
    1   AR   Ar  162   3.510   5.575  -1.305
    1   AR   Ar  163   6.532   4.119   2.485
    1   AR   Ar  164   2.434   5.659   2.527
    1   AR   Ar  165   3.774   4.194   0.731
    1   AR   Ar  166   3.328   3.475   5.225
    1   AR   Ar  167   5.818   7.115   4.583
    1   AR   Ar  168   6.041   4.591  -2.733
    1   AR   Ar  169   4.324   3.326   3.056
    1   AR   Ar  170   2.709   2.692   6.974
    1   AR   Ar  171   4.698   5.647   3.822
    1   AR   Ar  172   4.059   3.069   4.631
    1   AR   Ar  173   0.467   2.126   7.899
    1   AR   Ar  174   3.035   6.393   4.433
    1   AR   Ar  175   0.975   0.302   7.771
    1   AR   Ar  176   3.427   3.032   3.428
    1   AR   Ar  177   0.220   3.709  -1.770
    1   AR   Ar  178   2.212   6.403   1.211
    1   AR   Ar  179   3.395   5.956   0.578
    1   AR   Ar  180   4.921   5.951  -7.018
    1   AR   Ar  181   6.901   6.241   2.205
    1   AR   Ar  182   0.796   6.428   2.808
    1   AR   Ar  183   5.240   5.508   1.681
    1   AR   Ar  184   3.616   4.966  -0.132
    1   AR   Ar  185   3.409   4.041   4.162
    1   AR   Ar  186   3.010   6.666   3.160
    1   AR   Ar  187   4.034   6.422   3.860
    1   AR   Ar  188   3.276   1.159   1.468
    1   AR   Ar  189   6.215   2.809   6.451
    1   AR   Ar  190   1.438   0.668   4.580
    1   AR   Ar  191   4.382   5.698   4.839
    1   AR   Ar  192   3.718   2.726   6.733
    1   AR   Ar  193   3.153   6.099   1.934
    1   AR   Ar  194   4.495   6.052  -0.201
    1   AR   Ar  195   6.323   2.000   1.655
    1   AR   Ar  196   4.819   6.802   1.197
    1   AR   Ar  197   4.876   2.860  -0.197
    1   AR   Ar  198   6.747   6.606   0.505
    1   AR   Ar  199   0.029   0.404   2.510
    1   AR   Ar  200   5.289   2.050   0.299
    1   AR   Ar  201   6.787   5.188   3.567
    1   AR   Ar  202   5.264   1.007   4.376
    1   AR   Ar  203   7.042   0.082   3.527
    1   AR   Ar  204   4.911   5.245   7.748
    1   AR   Ar  205   5.275   1.883   2.146
    1   AR   Ar  206   6.330   0.534   6.567
    1   AR   Ar  207   0.562   4.011   4.683
    1   AR   Ar  208   0.815   6.114   3.887
    1   AR   Ar  209   5.038   2.580  -1.623
    1   AR   Ar  210   2.583   2.248  -0.105
    1   AR   Ar  211   6.780   3.223   0.233
    1   AR   Ar  212   5.982   4.560   0.434
    1   AR   Ar  213   4.075   1.629   0.633
    1   AR   Ar  214   5.555   4.238   1.448
    1   AR   Ar  215   0.278   3.064   2.266
    1   AR   Ar  216   1.859   3.174  -0.726
    1   AR   Ar  217   4.932   2.036   4.449
    1   AR   Ar  218   4.482   2.310   5.349
    1   AR   Ar  219   4.533   3.891   2.108
    1   AR   Ar  220   4.530   4.780   1.149
    1   AR   Ar  221   6.489   6.314   3.620
    1   AR   Ar  222   5.648   6.645   5.980
    1   AR   Ar  223   0.315   0.631   6.110
    1   AR   Ar  224   4.520   1.280   5.052
    1   AR   Ar  225   6.343   2.976   2.647
    1   AR   Ar  226   2.446   3.486   4.008
    1   AR   Ar  227   1.845   2.434   4.371
    1   AR   Ar  228   5.983   0.509   2.416
    1   AR   Ar  229   5.594   3.905  -0.565
    1   AR   Ar  230   4.272   4.681   3.420
    1   AR   Ar  231   5.057   2.293   3.153
    1   AR   Ar  232   5.639   3.212   1.913
    1   AR   Ar  233   6.744   1.325   2.891
    1   AR   Ar  234   6.445   3.976   4.762
    1   AR   Ar  235   7.051   0.723   4.332
    1   AR   Ar  236   4.434   4.069   4.681
    1   AR   Ar  237   4.160   1.845   7.208
    1   AR   Ar  238   4.904   4.410   6.130
    1   AR   Ar  239   1.352   4.783  10.049
    1   AR   Ar  240   1.598   3.273   6.324
    1   AR   Ar  241   0.844   6.701  -0.463
    1   AR   Ar  242   6.081   6.513   1.511
    1   AR   Ar  243   4.241   6.061   2.087
    1   AR   Ar  244   5.601   6.570   0.318
    1   AR   Ar  245   3.356   1.705   3.179
    1   AR   Ar  246   5.432   5.803  -1.375
    1   AR   Ar  247   6.836   3.690   1.405
    1   AR   Ar  248   5.762   5.409  -0.360
    1   AR   Ar  249   3.669   0.454   0.786
    1   AR   Ar  250   5.360   6.598   3.426
    1   AR   Ar  251   5.408   3.634   4.827
    1   AR   Ar  252   2.698   4.844   1.850
    1   AR   Ar  253   5.225   2.660   6.921
    1   AR   Ar  254   3.992   4.583  13.375
    1   AR   Ar  255   4.967   5.772   9.248
    1   AR   Ar  256   5.707   5.519   3.597
    7.12000  7.12000 12.00000
Argon-slab step 5835
  256
    1   AR   Ar    1   4.161   2.539  -1.065
    1   AR   Ar    2   5.791   0.271   1.155
    1   AR   Ar    3   4.586   3.727  -1.332
    1   AR   Ar    4   2.061   0.994   1.148
    1   AR   Ar    5   6.626   5.587   0.246
    1   AR   Ar    6   1.276   0.992   2.007
    1   AR   Ar    7   5.448   4.482   2.545
    1   AR   Ar    8   5.934   2.717  -0.281
    1   AR   Ar    9   6.946   5.776   4.662
    1   AR   Ar   10   6.010   4.899   5.610
    1   AR   Ar   11   0.964   6.900   4.810
    1   AR   Ar   12   6.918   1.979   4.486
    1   AR   Ar   13   6.675   6.939   5.176
    1   AR   Ar   14   4.618   1.628   6.219
    1   AR   Ar   15   3.026   5.391   9.176
    1   AR   Ar   16   0.906   7.054   6.573
    1   AR   Ar   17   5.510   3.458   0.438
    1   AR   Ar   18   6.869   4.078  -2.859
    1   AR   Ar   19   4.906   5.040   0.092
    1   AR   Ar   20   6.739   3.127  -2.519
    1   AR   Ar   21   2.632   1.375   2.334
    1   AR   Ar   22   5.023   0.330   2.041
    1   AR   Ar   23   0.660   5.613  -0.026
    1   AR   Ar   24   6.148   2.842   4.448
    1   AR   Ar   25   1.005   3.513   5.527
    1   AR   Ar   26   5.737   5.792   4.955
    1   AR   Ar   27   0.864   0.831   0.901
    1   AR   Ar   28   2.826   2.545   4.208
    1   AR   Ar   29   5.381   6.645   6.957
    1   AR   Ar   30   5.978   0.274   3.541
    1   AR   Ar   31   1.012   1.162   6.800
    1   AR   Ar   32   1.215   2.179   6.386
    1   AR   Ar   33   5.656   5.583   0.683
    1   AR   Ar   34   1.754   5.343   3.468
    1   AR   Ar   35   6.022   5.561   2.440
    1   AR   Ar   36   3.949   1.791  -3.919
    1   AR   Ar   37   4.638   3.465   1.045
    1   AR   Ar   38   6.072   5.010   4.335
    1   AR   Ar   39   0.019   3.418   3.936
    1   AR   Ar   40   0.503   4.105   2.154
    1   AR   Ar   41   0.561   1.926   3.697
    1   AR   Ar   42   5.024   4.914   5.149
    1   AR   Ar   43   0.180   3.228   6.348
    1   AR   Ar   44   1.385   4.373   3.015
    1   AR   Ar   45   2.437   4.005   5.262
    1   AR   Ar   46   5.961   5.638   6.865
    1   AR   Ar   47   2.811   3.823   6.834
    1   AR   Ar   48   0.608   3.668   7.420
    1   AR   Ar   49   7.038   2.039   0.334
    1   AR   Ar   50   2.819   4.783   0.598
    1   AR   Ar   51   5.447   3.504   3.177
    1   AR   Ar   52   5.726   3.755  -2.073
    1   AR   Ar   53   4.416   0.183   3.218
    1   AR   Ar   54   6.144   6.575   2.708
    1   AR   Ar   55   6.968   5.141   2.376
    1   AR   Ar   56   6.232   1.859   3.618
    1   AR   Ar   57   4.756   5.233   2.569
    1   AR   Ar   58   1.503   3.464   4.524
    1   AR   Ar   59   3.832   5.142   5.782
    1   AR   Ar   60   1.171   5.180   2.303
    1   AR   Ar   61   6.621   4.827   6.475
    1   AR   Ar   62   6.914   4.144   5.646
    1   AR   Ar   63   1.871   1.530   7.785
    1   AR   Ar   64   0.712   4.851   4.119
    1   AR   Ar   65   4.034   1.102   2.662
    1   AR   Ar   66   0.990   2.110   0.549
    1   AR   Ar   67   4.435   1.482  -0.825
    1   AR   Ar   68   6.813   1.004   1.040
    1   AR   Ar   69   2.687   2.431   1.072
    1   AR   Ar   70   0.072   1.353   1.952
    1   AR   Ar   71   3.198   0.613   3.132
    1   AR   Ar   72   4.519   1.120   1.595
    1   AR   Ar   73   3.264   0.249   4.078
    1   AR   Ar   74   1.109   0.833   3.337
    1   AR   Ar   75   3.104   0.733   5.591
    1   AR   Ar   76   2.693   0.021   2.024
    1   AR   Ar   77   1.226   5.748   6.632
    1   AR   Ar   78   6.822   5.710   5.898
    1   AR   Ar   79   3.831   6.560   5.136
    1   AR   Ar   80   3.540   4.187   6.030
    1   AR   Ar   81   1.449   6.024   1.918
    1   AR   Ar   82   7.046   4.923   1.037
    1   AR   Ar   83   1.608   3.197   0.968
    1   AR   Ar   84   0.922   4.487   0.992
    1   AR   Ar   85   0.419   2.697  -0.731
    1   AR   Ar   86   1.434   5.578   0.820
    1   AR   Ar   87   3.989   2.319   2.592
    1   AR   Ar   88   3.653   5.201   1.666
    1   AR   Ar   89   6.040   2.755   1.043
    1   AR   Ar   90   3.511   1.006   6.742
    1   AR   Ar   91   1.747   1.830   2.943
    1   AR   Ar   92   3.589   3.131   1.040
    1   AR   Ar   93   1.057   1.354   5.621
    1   AR   Ar   94   0.277   6.917   9.555
    1   AR   Ar   95   4.760   0.452   6.805
    1   AR   Ar   96   1.765   0.273   5.619
    1   AR   Ar   97   5.099   1.236  -1.837
    1   AR   Ar   98   1.672   4.385   4.089
    1   AR   Ar   99   5.838   6.773  -0.742
    1   AR   Ar  100   6.261   2.176  -3.095
    1   AR   Ar  101   3.883   5.568   2.930
    1   AR   Ar  102   4.156   2.204   1.472
    1   AR   Ar  103   1.547   3.875   1.925
    1   AR   Ar  104   3.301   0.755  -0.567
    1   AR   Ar  105   2.606   2.504   3.042
    1   AR   Ar  106   4.062   1.264   3.807
    1   AR   Ar  107   0.958   4.629   5.352
    1   AR   Ar  108   2.316   0.708   3.778
    1   AR   Ar  109   2.463   4.898   4.736
    1   AR   Ar  110   2.478   3.001   5.177
    1   AR   Ar  111   3.966   4.107   7.290
    1   AR   Ar  112   6.640   6.626   6.980
    1   AR   Ar  113   6.389   6.287  -1.575
    1   AR   Ar  114   2.787   0.009   0.340
    1   AR   Ar  115   6.641   4.518  -0.310
    1   AR   Ar  116   5.581   1.206   1.156
    1   AR   Ar  117   0.317   4.370   3.125
    1   AR   Ar  118   1.981   6.328   3.755
    1   AR   Ar  119   1.666   3.070   2.648
    1   AR   Ar  120   2.004   7.056   2.905
    1   AR   Ar  121   5.412   4.503   7.218
    1   AR   Ar  122   2.795   4.964   3.228
    1   AR   Ar  123   3.423   2.387   5.153
    1   AR   Ar  124   0.350   5.985   1.271
    1   AR   Ar  125   6.152   4.394   3.474
    1   AR   Ar  126   6.780   1.398   6.936
    1   AR   Ar  127   4.294   3.149   5.924
    1   AR   Ar  128   1.014   4.409   6.889
    1   AR   Ar  129   1.514   5.566   4.680
    1   AR   Ar  130   5.823   0.688  -4.654
    1   AR   Ar  131   4.336   7.105   0.106
    1   AR   Ar  132   1.704   2.202   1.858
    1   AR   Ar  133   4.282   0.208   4.445
    1   AR   Ar  134   3.645   1.009   4.683
    1   AR   Ar  135   5.819   0.508   5.613
    1   AR   Ar  136   5.181   6.337   2.288
    1   AR   Ar  137   2.542   4.667   6.034
    1   AR   Ar  138   5.811   1.497   6.105
    1   AR   Ar  139   6.339   2.597   5.477
    1   AR   Ar  140   4.983   6.469   4.815
    1   AR   Ar  141   3.476   5.249   4.302
    1   AR   Ar  142   4.040   5.845   8.725
    1   AR   Ar  143   5.034   6.469   8.124
    1   AR   Ar  144   0.084   3.089   5.189
    1   AR   Ar  145   4.764   4.691  -2.043
    1   AR   Ar  146   4.077   2.293   3.661
    1   AR   Ar  147   4.682   3.885  -0.077
    1   AR   Ar  148   1.826   5.817  -0.201
    1   AR   Ar  149   6.520   1.813  -0.474
    1   AR   Ar  150   0.757   1.913   2.391
    1   AR   Ar  151   2.902   3.066   2.161
    1   AR   Ar  152   0.624   1.165  -0.019
    1   AR   Ar  153   5.024   1.126   3.022
    1   AR   Ar  154   4.901   2.949   3.854
    1   AR   Ar  155   5.401   3.638   5.848
    1   AR   Ar  156   3.317   4.036   3.132
    1   AR   Ar  157   3.311   5.962   6.496
    1   AR   Ar  158   1.604   2.421   7.402
    1   AR   Ar  159   4.508   0.431   5.754
    1   AR   Ar  160   1.120   1.771   4.502
    1   AR   Ar  161   5.239   4.615   3.900
    1   AR   Ar  162   3.484   5.579  -1.296
    1   AR   Ar  163   6.528   4.107   2.510
    1   AR   Ar  164   2.423   5.650   2.533
    1   AR   Ar  165   3.767   4.209   0.715
    1   AR   Ar  166   3.366   3.477   5.287
    1   AR   Ar  167   5.818   7.092   4.586
    1   AR   Ar  168   6.062   4.574  -2.742
    1   AR   Ar  169   4.334   3.310   3.075
    1   AR   Ar  170   2.739   2.710   6.941
    1   AR   Ar  171   4.717   5.644   3.807
    1   AR   Ar  172   4.044   3.050   4.621
    1   AR   Ar  173   0.469   2.146   7.890
    1   AR   Ar  174   3.038   6.377   4.421
    1   AR   Ar  175   1.005   0.307   7.798
    1   AR   Ar  176   3.399   3.037   3.442
    1   AR   Ar  177   0.252   3.707  -1.778
    1   AR   Ar  178   2.218   6.424   1.175
    1   AR   Ar  179   3.405   5.955   0.614
    1   AR   Ar  180   4.917   5.948  -7.012
    1   AR   Ar  181   6.907   6.216   2.191
    1   AR   Ar  182   0.796   6.396   2.797
    1   AR   Ar  183   5.263   5.490   1.689
    1   AR   Ar  184   3.595   4.964  -0.146
    1   AR   Ar  185   3.381   4.016   4.170
    1   AR   Ar  186   3.016   6.653   3.159
    1   AR   Ar  187   4.002   6.414   3.869
    1   AR   Ar  188   3.284   1.146   1.464
    1   AR   Ar  189   6.208   2.837   6.471
    1   AR   Ar  190   1.427   0.682   4.622
    1   AR   Ar  191   4.391   5.669   4.820
    1   AR   Ar  192   3.727   2.693   6.737
    1   AR   Ar  193   3.137   6.094   1.926
    1   AR   Ar  194   4.486   6.075  -0.252
    1   AR   Ar  195   6.322   2.005   1.695
    1   AR   Ar  196   4.787   6.797   1.200
    1   AR   Ar  197   4.875   2.886  -0.154
    1   AR   Ar  198   6.747   6.631   0.477
    1   AR   Ar  199   0.057   0.414   2.527
    1   AR   Ar  200   5.272   2.058   0.292
    1   AR   Ar  201   6.787   5.202   3.621
    1   AR   Ar  202   5.287   1.064   4.395
    1   AR   Ar  203   7.025   0.100   3.539
    1   AR   Ar  204   4.892   5.252   7.735
    1   AR   Ar  205   5.284   1.883   2.150
    1   AR   Ar  206   6.347   0.573   6.560
    1   AR   Ar  207   0.545   3.987   4.684
    1   AR   Ar  208   0.804   6.135   3.896
    1   AR   Ar  209   5.067   2.594  -1.612
    1   AR   Ar  210   2.614   2.255  -0.098
    1   AR   Ar  211   6.766   3.238   0.224
    1   AR   Ar  212   5.988   4.546   0.462
    1   AR   Ar  213   4.061   1.629   0.637
    1   AR   Ar  214   5.530   4.220   1.414
    1   AR   Ar  215   0.269   3.048   2.243
    1   AR   Ar  216   1.867   3.148  -0.721
    1   AR   Ar  217   4.965   2.018   4.471
    1   AR   Ar  218   4.484   2.305   5.369
    1   AR   Ar  219   4.516   3.908   2.085
    1   AR   Ar  220   4.555   4.764   1.167
    1   AR   Ar  221   6.446   6.329   3.601
    1   AR   Ar  222   5.672   6.634   5.981
    1   AR   Ar  223   0.329   0.665   6.085
    1   AR   Ar  224   4.513   1.273   5.046
    1   AR   Ar  225   6.342   2.971   2.630
    1   AR   Ar  226   2.449   3.490   4.016
    1   AR   Ar  227   1.828   2.437   4.354
    1   AR   Ar  228   5.974   0.555   2.402
    1   AR   Ar  229   5.574   3.912  -0.560
    1   AR   Ar  230   4.275   4.670   3.425
    1   AR   Ar  231   5.066   2.275   3.142
    1   AR   Ar  232   5.623   3.173   1.929
    1   AR   Ar  233   6.717   1.314   2.921
    1   AR   Ar  234   6.445   3.958   4.773
    1   AR   Ar  235   7.065   0.710   4.327
    1   AR   Ar  236   4.445   4.091   4.682
    1   AR   Ar  237   4.134   1.847   7.227
    1   AR   Ar  238   4.920   4.421   6.154
    1   AR   Ar  239   1.358   4.820  10.032
    1   AR   Ar  240   1.612   3.270   6.363
    1   AR   Ar  241   0.870   6.691  -0.460
    1   AR   Ar  242   6.099   6.515   1.475
    1   AR   Ar  243   4.221   6.023   2.049
    1   AR   Ar  244   5.574   6.577   0.320
    1   AR   Ar  245   3.375   1.717   3.151
    1   AR   Ar  246   5.433   5.821  -1.383
    1   AR   Ar  247   6.819   3.699   1.411
    1   AR   Ar  248   5.754   5.443  -0.337
    1   AR   Ar  249   3.691   0.481   0.815
    1   AR   Ar  250   5.347   6.597   3.436
    1   AR   Ar  251   5.423   3.625   4.803
    1   AR   Ar  252   2.664   4.831   1.875
    1   AR   Ar  253   5.218   2.658   6.912
    1   AR   Ar  254   3.990   4.570  13.381
    1   AR   Ar  255   4.969   5.788   9.258
    1   AR   Ar  256   5.723   5.541   3.606
    7.12000  7.12000 12.00000
Argon-slab step 5840
  256
    1   AR   Ar    1   4.180   2.516  -1.029
    1   AR   Ar    2   5.770   0.301   1.139
    1   AR   Ar    3   4.589   3.722  -1.319
    1   AR   Ar    4   2.085   0.994   1.172
    1   AR   Ar    5   6.626   5.600   0.216
    1   AR   Ar    6   1.274   1.068   2.010
    1   AR   Ar    7   5.470   4.412   2.548
    1   AR   Ar    8   5.911   2.723  -0.279
    1   AR   Ar    9   6.960   5.813   4.652
    1   AR   Ar   10   5.993   4.916   5.583
    1   AR   Ar   11   0.967   6.934   4.781
    1   AR   Ar   12   6.941   1.996   4.491
    1   AR   Ar   13   6.712   6.946   5.192
    1   AR   Ar   14   4.635   1.648   6.223
    1   AR   Ar   15   3.020   5.434   9.191
    1   AR   Ar   16   0.931   7.070   6.584
    1   AR   Ar   17   5.543   3.452   0.456
    1   AR   Ar   18   6.885   4.090  -2.867
    1   AR   Ar   19   4.912   5.062   0.057
    1   AR   Ar   20   6.717   3.101  -2.520
    1   AR   Ar   21   2.644   1.402   2.321
    1   AR   Ar   22   5.005   0.318   2.036
    1   AR   Ar   23   0.647   5.603  -0.018
    1   AR   Ar   24   6.189   2.849   4.450
    1   AR   Ar   25   1.016   3.507   5.529
    1   AR   Ar   26   5.698   5.802   4.978
    1   AR   Ar   27   0.864   0.855   0.942
    1   AR   Ar   28   2.818   2.523   4.199
    1   AR   Ar   29   5.377   6.635   6.969
    1   AR   Ar   30   5.982   0.269   3.553
    1   AR   Ar   31   1.013   1.164   6.798
    1   AR   Ar   32   1.220   2.219   6.415
    1   AR   Ar   33   5.635   5.550   0.691
    1   AR   Ar   34   1.703   5.354   3.479
    1   AR   Ar   35   6.015   5.530   2.445
    1   AR   Ar   36   3.973   1.808  -3.926
    1   AR   Ar   37   4.645   3.450   1.083
    1   AR   Ar   38   6.045   5.017   4.373
    1   AR   Ar   39   0.018   3.413   3.955
    1   AR   Ar   40   0.461   4.108   2.141
    1   AR   Ar   41   0.549   1.936   3.673
    1   AR   Ar   42   5.027   4.913   5.166
    1   AR   Ar   43   0.188   3.235   6.320
    1   AR   Ar   44   1.360   4.383   3.003
    1   AR   Ar   45   2.437   4.012   5.256
    1   AR   Ar   46   5.972   5.645   6.849
    1   AR   Ar   47   2.793   3.801   6.797
    1   AR   Ar   48   0.617   3.699   7.424
    1   AR   Ar   49   7.031   2.046   0.295
    1   AR   Ar   50   2.800   4.777   0.586
    1   AR   Ar   51   5.481   3.512   3.160
    1   AR   Ar   52   5.706   3.725  -2.098
    1   AR   Ar   53   4.426   0.185   3.229
    1   AR   Ar   54   6.103   6.582   2.713
    1   AR   Ar   55   6.947   5.148   2.358
    1   AR   Ar   56   6.232   1.873   3.611
    1   AR   Ar   57   4.773   5.213   2.572
    1   AR   Ar   58   1.497   3.487   4.545
    1   AR   Ar   59   3.798   5.139   5.820
    1   AR   Ar   60   1.166   5.177   2.294
    1   AR   Ar   61   6.620   4.835   6.501
    1   AR   Ar   62   6.936   4.149   5.671
    1   AR   Ar   63   1.859   1.524   7.772
    1   AR   Ar   64   0.705   4.868   4.100
    1   AR   Ar   65   4.054   1.133   2.657
    1   AR   Ar   66   1.028   2.113   0.538
    1   AR   Ar   67   4.444   1.476  -0.848
    1   AR   Ar   68   6.768   1.023   1.060
    1   AR   Ar   69   2.686   2.434   1.073
    1   AR   Ar   70   0.078   1.376   1.975
    1   AR   Ar   71   3.174   0.611   3.123
    1   AR   Ar   72   4.513   1.162   1.594
    1   AR   Ar   73   3.261   0.259   4.036
    1   AR   Ar   74   1.085   0.849   3.333
    1   AR   Ar   75   3.127   0.730   5.592
    1   AR   Ar   76   2.704   0.033   1.975
    1   AR   Ar   77   1.228   5.738   6.634
    1   AR   Ar   78   6.802   5.714   5.848
    1   AR   Ar   79   3.838   6.534   5.108
    1   AR   Ar   80   3.519   4.194   6.042
    1   AR   Ar   81   1.454   6.059   1.931
    1   AR   Ar   82   7.053   4.912   1.073
    1   AR   Ar   83   1.612   3.178   0.928
    1   AR   Ar   84   0.917   4.461   0.986
    1   AR   Ar   85   0.430   2.710  -0.746
    1   AR   Ar   86   1.447   5.601   0.825
    1   AR   Ar   87   3.988   2.266   2.621
    1   AR   Ar   88   3.631   5.189   1.668
    1   AR   Ar   89   6.068   2.752   1.031
    1   AR   Ar   90   3.527   0.991   6.755
    1   AR   Ar   91   1.778   1.829   2.939
    1   AR   Ar   92   3.554   3.138   1.029
    1   AR   Ar   93   1.067   1.395   5.642
    1   AR   Ar   94   0.264   6.904   9.575
    1   AR   Ar   95   4.744   0.434   6.794
    1   AR   Ar   96   1.765   0.291   5.633
    1   AR   Ar   97   5.121   1.263  -1.836
    1   AR   Ar   98   1.702   4.381   4.089
    1   AR   Ar   99   5.880   6.800  -0.673
    1   AR   Ar  100   6.217   2.152  -3.119
    1   AR   Ar  101   3.842   5.554   2.935
    1   AR   Ar  102   4.159   2.237   1.483
    1   AR   Ar  103   1.549   3.839   1.920
    1   AR   Ar  104   3.288   0.734  -0.580
    1   AR   Ar  105   2.587   2.502   3.045
    1   AR   Ar  106   4.050   1.282   3.794
    1   AR   Ar  107   0.954   4.625   5.326
    1   AR   Ar  108   2.303   0.707   3.818
    1   AR   Ar  109   2.500   4.898   4.731
    1   AR   Ar  110   2.493   3.020   5.203
    1   AR   Ar  111   3.982   4.119   7.295
    1   AR   Ar  112   6.625   6.617   6.974
    1   AR   Ar  113   6.366   6.261  -1.569
    1   AR   Ar  114   2.790   7.106   0.326
    1   AR   Ar  115   6.621   4.510  -0.348
    1   AR   Ar  116   5.547   1.231   1.172
    1   AR   Ar  117   0.315   4.367   3.118
    1   AR   Ar  118   1.965   6.310   3.758
    1   AR   Ar  119   1.664   3.088   2.638
    1   AR   Ar  120   2.001   7.086   2.920
    1   AR   Ar  121   5.402   4.525   7.190
    1   AR   Ar  122   2.778   4.964   3.226
    1   AR   Ar  123   3.389   2.377   5.181
    1   AR   Ar  124   0.356   5.970   1.230
    1   AR   Ar  125   6.143   4.385   3.450
    1   AR   Ar  126   6.776   1.396   6.920
    1   AR   Ar  127   4.290   3.152   5.939
    1   AR   Ar  128   1.041   4.426   6.915
    1   AR   Ar  129   1.530   5.545   4.678
    1   AR   Ar  130   5.828   0.680  -4.657
    1   AR   Ar  131   4.371   7.073   0.103
    1   AR   Ar  132   1.724   2.194   1.862
    1   AR   Ar  133   4.269   0.185   4.470
    1   AR   Ar  134   3.629   0.985   4.694
    1   AR   Ar  135   5.811   0.548   5.605
    1   AR   Ar  136   5.166   6.360   2.300
    1   AR   Ar  137   2.550   4.642   6.048
    1   AR   Ar  138   5.817   1.518   6.104
    1   AR   Ar  139   6.368   2.591   5.462
    1   AR   Ar  140   4.949   6.452   4.791
    1   AR   Ar  141   3.494   5.244   4.287
    1   AR   Ar  142   4.027   5.837   8.703
    1   AR   Ar  143   5.031   6.458   8.125
    1   AR   Ar  144   0.082   3.076   5.194
    1   AR   Ar  145   4.753   4.674  -2.037
    1   AR   Ar  146   4.082   2.301   3.643
    1   AR   Ar  147   4.660   3.933  -0.074
    1   AR   Ar  148   1.833   5.824  -0.172
    1   AR   Ar  149   6.500   1.824  -0.475
    1   AR   Ar  150   0.759   1.914   2.408
    1   AR   Ar  151   2.901   3.052   2.191
    1   AR   Ar  152   0.588   1.130  -0.038
    1   AR   Ar  153   5.048   1.130   3.001
    1   AR   Ar  154   4.907   2.943   3.889
    1   AR   Ar  155   5.389   3.622   5.833
    1   AR   Ar  156   3.306   4.020   3.094
    1   AR   Ar  157   3.302   5.941   6.502
    1   AR   Ar  158   1.618   2.428   7.421
    1   AR   Ar  159   4.485   0.427   5.734
    1   AR   Ar  160   1.136   1.757   4.505
    1   AR   Ar  161   5.227   4.606   3.908
    1   AR   Ar  162   3.460   5.583  -1.286
    1   AR   Ar  163   6.524   4.094   2.531
    1   AR   Ar  164   2.416   5.638   2.552
    1   AR   Ar  165   3.761   4.223   0.697
    1   AR   Ar  166   3.410   3.482   5.348
    1   AR   Ar  167   5.818   7.070   4.586
    1   AR   Ar  168   6.089   4.561  -2.744
    1   AR   Ar  169   4.346   3.296   3.089
    1   AR   Ar  170   2.760   2.728   6.910
    1   AR   Ar  171   4.731   5.631   3.800
    1   AR   Ar  172   4.033   3.030   4.605
    1   AR   Ar  173   0.472   2.166   7.879
    1   AR   Ar  174   3.039   6.359   4.408
    1   AR   Ar  175   1.035   0.313   7.824
    1   AR   Ar  176   3.370   3.040   3.449
    1   AR   Ar  177   0.284   3.704  -1.787
    1   AR   Ar  178   2.225   6.445   1.140
    1   AR   Ar  179   3.415   5.953   0.651
    1   AR   Ar  180   4.914   5.946  -7.005
    1   AR   Ar  181   6.922   6.188   2.172
    1   AR   Ar  182   0.796   6.364   2.785
    1   AR   Ar  183   5.286   5.469   1.690
    1   AR   Ar  184   3.577   4.962  -0.160
    1   AR   Ar  185   3.356   3.991   4.185
    1   AR   Ar  186   3.022   6.639   3.158
    1   AR   Ar  187   3.969   6.408   3.879
    1   AR   Ar  188   3.290   1.138   1.466
    1   AR   Ar  189   6.202   2.866   6.494
    1   AR   Ar  190   1.439   0.671   4.635
    1   AR   Ar  191   4.391   5.634   4.800
    1   AR   Ar  192   3.733   2.653   6.749
    1   AR   Ar  193   3.144   6.095   1.927
    1   AR   Ar  194   4.478   6.097  -0.301
    1   AR   Ar  195   6.322   2.006   1.738
    1   AR   Ar  196   4.755   6.791   1.202
    1   AR   Ar  197   4.869   2.910  -0.117
    1   AR   Ar  198   6.746   6.658   0.451
    1   AR   Ar  199   0.084   0.421   2.541
    1   AR   Ar  200   5.257   2.061   0.289
    1   AR   Ar  201   6.794   5.221   3.671
    1   AR   Ar  202   5.316   1.111   4.408
    1   AR   Ar  203   7.012   0.112   3.544
    1   AR   Ar  204   4.872   5.263   7.725
    1   AR   Ar  205   5.293   1.882   2.153
    1   AR   Ar  206   6.361   0.604   6.550
    1   AR   Ar  207   0.523   3.958   4.683
    1   AR   Ar  208   0.793   6.155   3.906
    1   AR   Ar  209   5.108   2.618  -1.596
    1   AR   Ar  210   2.644   2.263  -0.090
    1   AR   Ar  211   6.750   3.253   0.216
    1   AR   Ar  212   5.988   4.532   0.495
    1   AR   Ar  213   4.046   1.625   0.636
    1   AR   Ar  214   5.504   4.202   1.380
    1   AR   Ar  215   0.260   3.031   2.221
    1   AR   Ar  216   1.874   3.121  -0.714
    1   AR   Ar  217   4.987   2.016   4.481
    1   AR   Ar  218   4.477   2.300   5.385
    1   AR   Ar  219   4.502   3.927   2.063
    1   AR   Ar  220   4.583   4.749   1.187
    1   AR   Ar  221   6.408   6.340   3.596
    1   AR   Ar  222   5.699   6.620   5.976
    1   AR   Ar  223   0.338   0.701   6.059
    1   AR   Ar  224   4.513   1.267   5.050
    1   AR   Ar  225   6.335   2.971   2.608
    1   AR   Ar  226   2.450   3.496   4.023
    1   AR   Ar  227   1.814   2.448   4.335
    1   AR   Ar  228   5.969   0.602   2.389
    1   AR   Ar  229   5.560   3.919  -0.558
    1   AR   Ar  230   4.277   4.657   3.431
    1   AR   Ar  231   5.077   2.250   3.125
    1   AR   Ar  232   5.617   3.183   1.938
    1   AR   Ar  233   6.691   1.299   2.947
    1   AR   Ar  234   6.443   3.938   4.775
    1   AR   Ar  235   7.055   0.732   4.336
    1   AR   Ar  236   4.455   4.114   4.682
    1   AR   Ar  237   4.108   1.840   7.242
    1   AR   Ar  238   4.928   4.444   6.183
    1   AR   Ar  239   1.364   4.857  10.015
    1   AR   Ar  240   1.628   3.265   6.404
    1   AR   Ar  241   0.879   6.693  -0.467
    1   AR   Ar  242   6.119   6.502   1.443
    1   AR   Ar  243   4.201   5.988   2.006
    1   AR   Ar  244   5.547   6.585   0.323
    1   AR   Ar  245   3.382   1.727   3.127
    1   AR   Ar  246   5.408   5.833  -1.378
    1   AR   Ar  247   6.807   3.703   1.418
    1   AR   Ar  248   5.749   5.477  -0.321
    1   AR   Ar  249   3.715   0.505   0.841
    1   AR   Ar  250   5.327   6.591   3.447
    1   AR   Ar  251   5.437   3.617   4.774
    1   AR   Ar  252   2.630   4.816   1.899
    1   AR   Ar  253   5.209   2.655   6.901
    1   AR   Ar  254   3.988   4.558  13.387
    1   AR   Ar  255   4.971   5.804   9.269
    1   AR   Ar  256   5.737   5.570   3.601
    7.12000  7.12000 12.00000
Argon-slab step 5845
  256
    1   AR   Ar    1   4.199   2.495  -0.990
    1   AR   Ar    2   5.751   0.316   1.120
    1   AR   Ar    3   4.593   3.715  -1.304
    1   AR   Ar    4   2.110   0.994   1.198
    1   AR   Ar    5   6.630   5.612   0.188
    1   AR   Ar    6   1.273   1.143   2.014
    1   AR   Ar    7   5.493   4.342   2.549
    1   AR   Ar    8   5.890   2.730  -0.278
    1   AR   Ar    9   6.964   5.802   4.654
    1   AR   Ar   10   5.979   4.932   5.557
    1   AR   Ar   11   0.964   6.958   4.753
    1   AR   Ar   12   6.963   2.012   4.497
    1   AR   Ar   13   6.750   6.952   5.208
    1   AR   Ar   14   4.652   1.666   6.228
    1   AR   Ar   15   3.016   5.477   9.205
    1   AR   Ar   16   0.956   7.086   6.596
    1   AR   Ar   17   5.526   3.438   0.447
    1   AR   Ar   18   6.927   4.089  -2.878
    1   AR   Ar   19   4.910   5.080   0.025
    1   AR   Ar   20   6.695   3.072  -2.519
    1   AR   Ar   21   2.658   1.432   2.316
    1   AR   Ar   22   4.986   0.306   2.033
    1   AR   Ar   23   0.633   5.594  -0.009
    1   AR   Ar   24   6.230   2.857   4.449
    1   AR   Ar   25   1.028   3.502   5.533
    1   AR   Ar   26   5.685   5.816   4.996
    1   AR   Ar   27   0.862   0.870   0.945
    1   AR   Ar   28   2.817   2.487   4.183
    1   AR   Ar   29   5.373   6.625   6.984
    1   AR   Ar   30   5.985   0.270   3.564
    1   AR   Ar   31   1.014   1.167   6.797
    1   AR   Ar   32   1.225   2.258   6.442
    1   AR   Ar   33   5.614   5.519   0.705
    1   AR   Ar   34   1.650   5.359   3.488
    1   AR   Ar   35   6.002   5.501   2.454
    1   AR   Ar   36   3.996   1.826  -3.933
    1   AR   Ar   37   4.651   3.436   1.120
    1   AR   Ar   38   6.024   5.017   4.424
    1   AR   Ar   39   0.013   3.406   3.971
    1   AR   Ar   40   0.420   4.113   2.122
    1   AR   Ar   41   0.560   1.937   3.663
    1   AR   Ar   42   5.009   4.919   5.197
    1   AR   Ar   43   0.196   3.242   6.292
    1   AR   Ar   44   1.338   4.391   2.991
    1   AR   Ar   45   2.435   4.020   5.247
    1   AR   Ar   46   5.965   5.662   6.831
    1   AR   Ar   47   2.775   3.780   6.758
    1   AR   Ar   48   0.620   3.721   7.434
    1   AR   Ar   49   7.034   2.058   0.271
    1   AR   Ar   50   2.781   4.772   0.576
    1   AR   Ar   51   5.516   3.520   3.143
    1   AR   Ar   52   5.686   3.695  -2.121
    1   AR   Ar   53   4.440   0.172   3.227
    1   AR   Ar   54   6.059   6.597   2.704
    1   AR   Ar   55   6.933   5.147   2.341
    1   AR   Ar   56   6.224   1.878   3.613
    1   AR   Ar   57   4.782   5.173   2.605
    1   AR   Ar   58   1.491   3.506   4.570
    1   AR   Ar   59   3.813   5.152   5.816
    1   AR   Ar   60   1.158   5.166   2.289
    1   AR   Ar   61   6.607   4.831   6.504
    1   AR   Ar   62   6.931   4.155   5.679
    1   AR   Ar   63   1.848   1.508   7.760
    1   AR   Ar   64   0.699   4.886   4.080
    1   AR   Ar   65   4.077   1.160   2.647
    1   AR   Ar   66   1.065   2.116   0.528
    1   AR   Ar   67   4.454   1.469  -0.871
    1   AR   Ar   68   6.722   1.042   1.079
    1   AR   Ar   69   2.684   2.436   1.075
    1   AR   Ar   70   0.072   1.361   2.024
    1   AR   Ar   71   3.149   0.614   3.101
    1   AR   Ar   72   4.506   1.206   1.593
    1   AR   Ar   73   3.260   0.260   4.003
    1   AR   Ar   74   1.060   0.866   3.330
    1   AR   Ar   75   3.149   0.725   5.595
    1   AR   Ar   76   2.715   0.046   1.928
    1   AR   Ar   77   1.230   5.728   6.635
    1   AR   Ar   78   6.780   5.719   5.797
    1   AR   Ar   79   3.845   6.508   5.080
    1   AR   Ar   80   3.500   4.200   6.061
    1   AR   Ar   81   1.463   6.103   1.940
    1   AR   Ar   82   7.058   4.902   1.109
    1   AR   Ar   83   1.623   3.164   0.892
    1   AR   Ar   84   0.913   4.434   0.983
    1   AR   Ar   85   0.440   2.723  -0.759
    1   AR   Ar   86   1.459   5.624   0.832
    1   AR   Ar   87   4.001   2.225   2.634
    1   AR   Ar   88   3.609   5.172   1.667
    1   AR   Ar   89   6.097   2.749   1.017
    1   AR   Ar   90   3.545   0.977   6.767
    1   AR   Ar   91   1.805   1.826   2.935
    1   AR   Ar   92   3.519   3.146   1.019
    1   AR   Ar   93   1.066   1.407   5.653
    1   AR   Ar   94   0.251   6.891   9.594
    1   AR   Ar   95   4.729   0.416   6.784
    1   AR   Ar   96   1.763   0.310   5.648
    1   AR   Ar   97   5.143   1.291  -1.835
    1   AR   Ar   98   1.735   4.383   4.086
    1   AR   Ar   99   5.876   6.792  -0.638
    1   AR   Ar  100   6.173   2.128  -3.141
    1   AR   Ar  101   3.797   5.541   2.943
    1   AR   Ar  102   4.162   2.272   1.498
    1   AR   Ar  103   1.553   3.802   1.917
    1   AR   Ar  104   3.275   0.713  -0.590
    1   AR   Ar  105   2.577   2.487   3.048
    1   AR   Ar  106   4.043   1.293   3.781
    1   AR   Ar  107   0.953   4.624   5.302
    1   AR   Ar  108   2.288   0.706   3.858
    1   AR   Ar  109   2.546   4.899   4.722
    1   AR   Ar  110   2.503   3.026   5.225
    1   AR   Ar  111   3.980   4.123   7.314
    1   AR   Ar  112   6.609   6.608   6.967
    1   AR   Ar  113   6.344   6.237  -1.562
    1   AR   Ar  114   2.789   7.107   0.321
    1   AR   Ar  115   6.602   4.503  -0.388
    1   AR   Ar  116   5.508   1.276   1.190
    1   AR   Ar  117   0.308   4.366   3.118
    1   AR   Ar  118   1.963   6.316   3.737
    1   AR   Ar  119   1.662   3.101   2.631
    1   AR   Ar  120   1.998   7.116   2.936
    1   AR   Ar  121   5.394   4.546   7.160
    1   AR   Ar  122   2.751   4.968   3.244
    1   AR   Ar  123   3.354   2.365   5.210
    1   AR   Ar  124   0.363   5.954   1.188
    1   AR   Ar  125   6.148   4.371   3.413
    1   AR   Ar  126   6.779   1.408   6.908
    1   AR   Ar  127   4.285   3.160   5.956
    1   AR   Ar  128   1.074   4.452   6.933
    1   AR   Ar  129   1.545   5.523   4.674
    1   AR   Ar  130   5.833   0.672  -4.661
    1   AR   Ar  131   4.406   7.043   0.102
    1   AR   Ar  132   1.745   2.185   1.867
    1   AR   Ar  133   4.259   0.161   4.495
    1   AR   Ar  134   3.602   0.963   4.706
    1   AR   Ar  135   5.803   0.585   5.590
    1   AR   Ar  136   5.151   6.383   2.312
    1   AR   Ar  137   2.556   4.623   6.067
    1   AR   Ar  138   5.822   1.540   6.103
    1   AR   Ar  139   6.406   2.586   5.441
    1   AR   Ar  140   4.914   6.448   4.764
    1   AR   Ar  141   3.512   5.238   4.269
    1   AR   Ar  142   4.014   5.829   8.681
    1   AR   Ar  143   5.029   6.446   8.126
    1   AR   Ar  144   0.085   3.066   5.195
    1   AR   Ar  145   4.743   4.655  -2.030
    1   AR   Ar  146   4.093   2.312   3.633
    1   AR   Ar  147   4.631   3.986  -0.068
    1   AR   Ar  148   1.839   5.831  -0.144
    1   AR   Ar  149   6.470   1.830  -0.490
    1   AR   Ar  150   0.770   1.927   2.435
    1   AR   Ar  151   2.900   3.038   2.219
    1   AR   Ar  152   0.567   1.098  -0.058
    1   AR   Ar  153   5.076   1.133   2.982
    1   AR   Ar  154   4.916   2.941   3.932
    1   AR   Ar  155   5.386   3.611   5.811
    1   AR   Ar  156   3.295   4.006   3.054
    1   AR   Ar  157   3.293   5.920   6.508
    1   AR   Ar  158   1.629   2.443   7.437
    1   AR   Ar  159   4.462   0.422   5.713
    1   AR   Ar  160   1.146   1.732   4.515
    1   AR   Ar  161   5.210   4.595   3.916
    1   AR   Ar  162   3.435   5.587  -1.275
    1   AR   Ar  163   6.522   4.079   2.548
    1   AR   Ar  164   2.417   5.623   2.586
    1   AR   Ar  165   3.756   4.235   0.680
    1   AR   Ar  166   3.437   3.484   5.391
    1   AR   Ar  167   5.806   7.042   4.567
    1   AR   Ar  168   6.097   4.560  -2.741
    1   AR   Ar  169   4.356   3.284   3.098
    1   AR   Ar  170   2.768   2.746   6.881
    1   AR   Ar  171   4.740   5.612   3.799
    1   AR   Ar  172   4.024   3.010   4.586
    1   AR   Ar  173   0.477   2.185   7.867
    1   AR   Ar  174   3.037   6.338   4.393
    1   AR   Ar  175   1.056   0.320   7.835
    1   AR   Ar  176   3.350   3.029   3.423
    1   AR   Ar  177   0.314   3.701  -1.797
    1   AR   Ar  178   2.234   6.465   1.105
    1   AR   Ar  179   3.425   5.951   0.688
    1   AR   Ar  180   4.910   5.943  -6.999
    1   AR   Ar  181   6.939   6.163   2.152
    1   AR   Ar  182   0.795   6.332   2.774
    1   AR   Ar  183   5.307   5.447   1.689
    1   AR   Ar  184   3.560   4.962  -0.174
    1   AR   Ar  185   3.334   3.968   4.202
    1   AR   Ar  186   3.028   6.624   3.158
    1   AR   Ar  187   3.937   6.403   3.888
    1   AR   Ar  188   3.292   1.138   1.474
    1   AR   Ar  189   6.197   2.897   6.517
    1   AR   Ar  190   1.456   0.670   4.646
    1   AR   Ar  191   4.381   5.593   4.781
    1   AR   Ar  192   3.736   2.656   6.742
    1   AR   Ar  193   3.155   6.107   1.929
    1   AR   Ar  194   4.477   6.115  -0.343
    1   AR   Ar  195   6.323   2.005   1.782
    1   AR   Ar  196   4.725   6.784   1.203
    1   AR   Ar  197   4.856   2.935  -0.086
    1   AR   Ar  198   6.744   6.684   0.427
    1   AR   Ar  199   0.112   0.428   2.554
    1   AR   Ar  200   5.245   2.059   0.291
    1   AR   Ar  201   6.806   5.242   3.718
    1   AR   Ar  202   5.354   1.140   4.418
    1   AR   Ar  203   7.003   0.120   3.544
    1   AR   Ar  204   4.849   5.277   7.716
    1   AR   Ar  205   5.300   1.879   2.152
    1   AR   Ar  206   6.368   0.620   6.534
    1   AR   Ar  207   0.498   3.929   4.681
    1   AR   Ar  208   0.783   6.174   3.917
    1   AR   Ar  209   5.149   2.643  -1.579
    1   AR   Ar  210   2.674   2.271  -0.081
    1   AR   Ar  211   6.734   3.268   0.208
    1   AR   Ar  212   5.987   4.518   0.527
    1   AR   Ar  213   4.031   1.618   0.633
    1   AR   Ar  214   5.478   4.182   1.350
    1   AR   Ar  215   0.267   3.021   2.248
    1   AR   Ar  216   1.881   3.094  -0.707
    1   AR   Ar  217   4.961   2.047   4.471
    1   AR   Ar  218   4.470   2.294   5.398
    1   AR   Ar  219   4.488   3.946   2.042
    1   AR   Ar  220   4.611   4.734   1.206
    1   AR   Ar  221   6.388   6.350   3.608
    1   AR   Ar  222   5.729   6.606   5.966
    1   AR   Ar  223   0.345   0.736   6.032
    1   AR   Ar  224   4.517   1.261   5.060
    1   AR   Ar  225   6.319   2.977   2.579
    1   AR   Ar  226   2.449   3.504   4.029
    1   AR   Ar  227   1.803   2.467   4.315
    1   AR   Ar  228   5.937   0.619   2.410
    1   AR   Ar  229   5.552   3.927  -0.558
    1   AR   Ar  230   4.275   4.644   3.436
    1   AR   Ar  231   5.082   2.225   3.107
    1   AR   Ar  232   5.604   3.196   1.943
    1   AR   Ar  233   6.672   1.287   2.961
    1   AR   Ar  234   6.444   3.919   4.773
    1   AR   Ar  235   7.045   0.760   4.351
    1   AR   Ar  236   4.462   4.136   4.680
    1   AR   Ar  237   4.093   1.827   7.260
    1   AR   Ar  238   4.930   4.476   6.214
    1   AR   Ar  239   1.371   4.894   9.997
    1   AR   Ar  240   1.645   3.261   6.447
    1   AR   Ar  241   0.887   6.693  -0.472
    1   AR   Ar  242   6.140   6.484   1.414
    1   AR   Ar  243   4.186   5.956   1.962
    1   AR   Ar  244   5.519   6.593   0.329
    1   AR   Ar  245   3.366   1.730   3.112
    1   AR   Ar  246   5.382   5.844  -1.370
    1   AR   Ar  247   6.818   3.687   1.424
    1   AR   Ar  248   5.740   5.492  -0.337
    1   AR   Ar  249   3.746   0.521   0.860
    1   AR   Ar  250   5.302   6.581   3.460
    1   AR   Ar  251   5.448   3.607   4.742
    1   AR   Ar  252   2.595   4.801   1.922
    1   AR   Ar  253   5.197   2.651   6.889
    1   AR   Ar  254   3.986   4.545  13.393
    1   AR   Ar  255   4.975   5.820   9.279
    1   AR   Ar  256   5.748   5.587   3.598
    7.12000  7.12000 12.00000
Argon-slab step 5850
  256
    1   AR   Ar    1   4.185   2.492  -0.996
    1   AR   Ar    2   5.736   0.331   1.111
    1   AR   Ar    3   4.599   3.708  -1.288
    1   AR   Ar    4   2.135   0.994   1.225
    1   AR   Ar    5   6.638   5.623   0.164
    1   AR   Ar    6   1.312   1.129   1.993
    1   AR   Ar    7   5.512   4.279   2.543
    1   AR   Ar    8   5.871   2.738  -0.279
    1   AR   Ar    9   6.961   5.757   4.666
    1   AR   Ar   10   5.970   4.945   5.533
    1   AR   Ar   11   0.952   6.969   4.727
    1   AR   Ar   12   6.985   2.030   4.503
    1   AR   Ar   13   6.787   6.958   5.225
    1   AR   Ar   14   4.670   1.682   6.235
    1   AR   Ar   15   3.012   5.521   9.218
    1   AR   Ar   16   0.982   7.103   6.608
    1   AR   Ar   17   5.514   3.434   0.444
    1   AR   Ar   18   6.985   4.080  -2.892
    1   AR   Ar   19   4.898   5.091  -0.003
    1   AR   Ar   20   6.671   3.043  -2.518
    1   AR   Ar   21   2.672   1.462   2.311
    1   AR   Ar   22   4.966   0.295   2.031
    1   AR   Ar   23   0.620   5.586   0.002
    1   AR   Ar   24   6.270   2.866   4.443
    1   AR   Ar   25   1.040   3.498   5.540
    1   AR   Ar   26   5.707   5.838   5.007
    1   AR   Ar   27   0.858   0.869   0.887
    1   AR   Ar   28   2.823   2.450   4.168
    1   AR   Ar   29   5.369   6.614   7.002
    1   AR   Ar   30   5.984   0.275   3.572
    1   AR   Ar   31   1.016   1.169   6.796
    1   AR   Ar   32   1.219   2.254   6.443
    1   AR   Ar   33   5.595   5.490   0.720
    1   AR   Ar   34   1.594   5.361   3.496
    1   AR   Ar   35   5.983   5.476   2.468
    1   AR   Ar   36   4.020   1.843  -3.939
    1   AR   Ar   37   4.657   3.421   1.155
    1   AR   Ar   38   6.007   5.011   4.480
    1   AR   Ar   39   0.004   3.395   3.982
    1   AR   Ar   40   0.416   4.131   2.132
    1   AR   Ar   41   0.605   1.925   3.682
    1   AR   Ar   42   4.992   4.921   5.228
    1   AR   Ar   43   0.204   3.250   6.263
    1   AR   Ar   44   1.336   4.361   2.978
    1   AR   Ar   45   2.431   4.030   5.235
    1   AR   Ar   46   5.953   5.682   6.812
    1   AR   Ar   47   2.757   3.762   6.718
    1   AR   Ar   48   0.618   3.734   7.447
    1   AR   Ar   49   7.045   2.074   0.260
    1   AR   Ar   50   2.761   4.768   0.568
    1   AR   Ar   51   5.550   3.521   3.129
    1   AR   Ar   52   5.666   3.665  -2.144
    1   AR   Ar   53   4.461   0.135   3.206
    1   AR   Ar   54   6.020   6.618   2.687
    1   AR   Ar   55   6.923   5.144   2.327
    1   AR   Ar   56   6.207   1.867   3.624
    1   AR   Ar   57   4.793   5.134   2.639
    1   AR   Ar   58   1.487   3.521   4.597
    1   AR   Ar   59   3.846   5.159   5.807
    1   AR   Ar   60   1.147   5.152   2.283
    1   AR   Ar   61   6.590   4.825   6.501
    1   AR   Ar   62   6.929   4.161   5.688
    1   AR   Ar   63   1.845   1.487   7.761
    1   AR   Ar   64   0.694   4.905   4.060
    1   AR   Ar   65   4.101   1.181   2.634
    1   AR   Ar   66   1.102   2.118   0.518
    1   AR   Ar   67   4.465   1.460  -0.894
    1   AR   Ar   68   6.674   1.062   1.097
    1   AR   Ar   69   2.681   2.437   1.079
    1   AR   Ar   70   0.061   1.341   2.066
    1   AR   Ar   71   3.123   0.624   3.066
    1   AR   Ar   72   4.498   1.245   1.591
    1   AR   Ar   73   3.262   0.253   3.980
    1   AR   Ar   74   1.036   0.885   3.326
    1   AR   Ar   75   3.166   0.729   5.606
    1   AR   Ar   76   2.727   0.059   1.881
    1   AR   Ar   77   1.231   5.718   6.637
    1   AR   Ar   78   6.756   5.725   5.746
    1   AR   Ar   79   3.853   6.482   5.055
    1   AR   Ar   80   3.487   4.208   6.089
    1   AR   Ar   81   1.475   6.151   1.946
    1   AR   Ar   82   7.061   4.892   1.146
    1   AR   Ar   83   1.643   3.158   0.859
    1   AR   Ar   84   0.910   4.408   0.981
    1   AR   Ar   85   0.450   2.736  -0.772
    1   AR   Ar   86   1.469   5.647   0.842
    1   AR   Ar   87   4.032   2.201   2.626
    1   AR   Ar   88   3.586   5.147   1.663
    1   AR   Ar   89   6.127   2.745   1.002
    1   AR   Ar   90   3.564   0.962   6.777
    1   AR   Ar   91   1.826   1.818   2.930
    1   AR   Ar   92   3.487   3.154   1.010
    1   AR   Ar   93   1.048   1.380   5.650
    1   AR   Ar   94   0.238   6.878   9.612
    1   AR   Ar   95   4.714   0.400   6.773
    1   AR   Ar   96   1.762   0.274   5.680
    1   AR   Ar   97   5.165   1.321  -1.832
    1   AR   Ar   98   1.769   4.390   4.082
    1   AR   Ar   99   5.861   6.774  -0.615
    1   AR   Ar  100   6.129   2.105  -3.163
    1   AR   Ar  101   3.750   5.529   2.952
    1   AR   Ar  102   4.166   2.308   1.513
    1   AR   Ar  103   1.564   3.754   1.922
    1   AR   Ar  104   3.263   0.692  -0.600
    1   AR   Ar  105   2.564   2.470   3.052
    1   AR   Ar  106   4.039   1.296   3.769
    1   AR   Ar  107   0.954   4.627   5.279
    1   AR   Ar  108   2.271   0.705   3.895
    1   AR   Ar  109   2.591   4.904   4.710
    1   AR   Ar  110   2.506   3.027   5.214
    1   AR   Ar  111   3.977   4.125   7.316
    1   AR   Ar  112   6.590   6.600   6.957
    1   AR   Ar  113   6.325   6.213  -1.554
    1   AR   Ar  114   2.804   0.009   0.322
    1   AR   Ar  115   6.583   4.497  -0.426
    1   AR   Ar  116   5.469   1.333   1.209
    1   AR   Ar  117   0.295   4.368   3.125
    1   AR   Ar  118   1.965   6.329   3.710
    1   AR   Ar  119   1.663   3.107   2.631
    1   AR   Ar  120   1.996   0.026   2.952
    1   AR   Ar  121   5.388   4.567   7.131
    1   AR   Ar  122   2.729   4.964   3.272
    1   AR   Ar  123   3.322   2.352   5.237
    1   AR   Ar  124   0.363   5.954   1.174
    1   AR   Ar  125   6.152   4.361   3.387
    1   AR   Ar  126   6.790   1.435   6.902
    1   AR   Ar  127   4.282   3.171   5.974
    1   AR   Ar  128   1.112   4.485   6.945
    1   AR   Ar  129   1.559   5.500   4.668
    1   AR   Ar  130   5.839   0.664  -4.664
    1   AR   Ar  131   4.441   7.017   0.105
    1   AR   Ar  132   1.766   2.176   1.871
    1   AR   Ar  133   4.238   0.152   4.468
    1   AR   Ar  134   3.571   0.944   4.715
    1   AR   Ar  135   5.796   0.616   5.562
    1   AR   Ar  136   5.130   6.402   2.322
    1   AR   Ar  137   2.559   4.610   6.089
    1   AR   Ar  138   5.782   1.537   6.084
    1   AR   Ar  139   6.430   2.572   5.428
    1   AR   Ar  140   4.879   6.453   4.735
    1   AR   Ar  141   3.529   5.231   4.249
    1   AR   Ar  142   4.001   5.821   8.658
    1   AR   Ar  143   5.025   6.432   8.126
    1   AR   Ar  144   0.098   3.065   5.192
    1   AR   Ar  145   4.734   4.636  -2.022
    1   AR   Ar  146   4.106   2.328   3.633
    1   AR   Ar  147   4.599   4.041  -0.058
    1   AR   Ar  148   1.845   5.840  -0.118
    1   AR   Ar  149   6.432   1.833  -0.516
    1   AR   Ar  150   0.788   1.950   2.470
    1   AR   Ar  151   2.900   3.026   2.244
    1   AR   Ar  152   0.569   1.067  -0.074
    1   AR   Ar  153   5.106   1.135   2.963
    1   AR   Ar  154   4.928   2.943   3.976
    1   AR   Ar  155   5.384   3.596   5.790
    1   AR   Ar  156   3.286   3.994   3.013
    1   AR   Ar  157   3.284   5.898   6.513
    1   AR   Ar  158   1.638   2.466   7.450
    1   AR   Ar  159   4.439   0.415   5.691
    1   AR   Ar  160   1.150   1.700   4.529
    1   AR   Ar  161   5.191   4.581   3.926
    1   AR   Ar  162   3.430   5.581  -1.271
    1   AR   Ar  163   6.526   4.059   2.552
    1   AR   Ar  164   2.412   5.618   2.615
    1   AR   Ar  165   3.752   4.248   0.663
    1   AR   Ar  166   3.436   3.482   5.403
    1   AR   Ar  167   5.792   7.013   4.544
    1   AR   Ar  168   6.089   4.568  -2.735
    1   AR   Ar  169   4.367   3.274   3.105
    1   AR   Ar  170   2.762   2.760   6.853
    1   AR   Ar  171   4.745   5.593   3.794
    1   AR   Ar  172   4.015   2.990   4.565
    1   AR   Ar  173   0.482   2.205   7.854
    1   AR   Ar  174   3.029   6.317   4.377
    1   AR   Ar  175   1.067   0.319   7.826
    1   AR   Ar  176   3.332   3.021   3.400
    1   AR   Ar  177   0.343   3.697  -1.807
    1   AR   Ar  178   2.243   6.485   1.072
    1   AR   Ar  179   3.434   5.947   0.727
    1   AR   Ar  180   4.907   5.941  -6.992
    1   AR   Ar  181   6.956   6.142   2.132
    1   AR   Ar  182   0.793   6.300   2.764
    1   AR   Ar  183   5.324   5.425   1.689
    1   AR   Ar  184   3.546   4.963  -0.188
    1   AR   Ar  185   3.313   3.988   4.228
    1   AR   Ar  186   3.034   6.607   3.158
    1   AR   Ar  187   3.909   6.397   3.895
    1   AR   Ar  188   3.285   1.103   1.495
    1   AR   Ar  189   6.192   2.928   6.538
    1   AR   Ar  190   1.480   0.682   4.654
    1   AR   Ar  191   4.363   5.550   4.763
    1   AR   Ar  192   3.746   2.672   6.729
    1   AR   Ar  193   3.162   6.122   1.931
    1   AR   Ar  194   4.502   6.133  -0.355
    1   AR   Ar  195   6.327   1.986   1.798
    1   AR   Ar  196   4.695   6.775   1.203
    1   AR   Ar  197   4.832   2.957  -0.062
    1   AR   Ar  198   6.741   6.711   0.403
    1   AR   Ar  199   0.141   0.432   2.565
    1   AR   Ar  200   5.234   2.051   0.297
    1   AR   Ar  201   6.819   5.263   3.761
    1   AR   Ar  202   5.399   1.158   4.424
    1   AR   Ar  203   7.000   0.123   3.542
    1   AR   Ar  204   4.826   5.293   7.708
    1   AR   Ar  205   5.307   1.874   2.147
    1   AR   Ar  206   6.354   0.614   6.550
    1   AR   Ar  207   0.473   3.903   4.680
    1   AR   Ar  208   0.779   6.201   3.908
    1   AR   Ar  209   5.191   2.669  -1.562
    1   AR   Ar  210   2.705   2.279  -0.072
    1   AR   Ar  211   6.717   3.284   0.202
    1   AR   Ar  212   5.988   4.505   0.554
    1   AR   Ar  213   4.017   1.610   0.630
    1   AR   Ar  214   5.452   4.157   1.326
    1   AR   Ar  215   0.274   3.011   2.275
    1   AR   Ar  216   1.888   3.066  -0.699
    1   AR   Ar  217   4.930   2.087   4.459
    1   AR   Ar  218   4.461   2.290   5.408
    1   AR   Ar  219   4.476   3.968   2.023
    1   AR   Ar  220   4.636   4.722   1.224
    1   AR   Ar  221   6.389   6.365   3.630
    1   AR   Ar  222   5.760   6.591   5.953
    1   AR   Ar  223   0.348   0.769   6.006
    1   AR   Ar  224   4.523   1.257   5.072
    1   AR   Ar  225   6.312   2.980   2.558
    1   AR   Ar  226   2.443   3.508   4.033
    1   AR   Ar  227   1.792   2.493   4.294
    1   AR   Ar  228   5.901   0.628   2.439
    1   AR   Ar  229   5.547   3.933  -0.559
    1   AR   Ar  230   4.269   4.629   3.441
    1   AR   Ar  231   5.070   2.225   3.094
    1   AR   Ar  232   5.581   3.213   1.939
    1   AR   Ar  233   6.659   1.273   2.965
    1   AR   Ar  234   6.447   3.901   4.769
    1   AR   Ar  235   7.035   0.792   4.370
    1   AR   Ar  236   4.468   4.157   4.677
    1   AR   Ar  237   4.081   1.810   7.279
    1   AR   Ar  238   4.929   4.509   6.243
    1   AR   Ar  239   1.377   4.931   9.980
    1   AR   Ar  240   1.663   3.258   6.491
    1   AR   Ar  241   0.896   6.693  -0.476
    1   AR   Ar  242   6.137   6.456   1.402
    1   AR   Ar  243   4.179   5.928   1.920
    1   AR   Ar  244   5.490   6.599   0.339
    1   AR   Ar  245   3.323   1.722   3.112
    1   AR   Ar  246   5.353   5.853  -1.360
    1   AR   Ar  247   6.826   3.671   1.430
    1   AR   Ar  248   5.733   5.497  -0.374
    1   AR   Ar  249   3.783   0.528   0.870
    1   AR   Ar  250   5.272   6.569   3.474
    1   AR   Ar  251   5.455   3.598   4.707
    1   AR   Ar  252   2.604   4.818   1.904
    1   AR   Ar  253   5.184   2.647   6.876
    1   AR   Ar  254   3.984   4.533  13.399
    1   AR   Ar  255   4.978   5.837   9.287
    1   AR   Ar  256   5.754   5.578   3.609
    7.12000  7.12000 12.00000
Argon-slab step 5855
  256
    1   AR   Ar    1   4.172   2.492  -1.001
    1   AR   Ar    2   5.726   0.354   1.116
    1   AR   Ar    3   4.607   3.701  -1.270
    1   AR   Ar    4   2.161   0.995   1.254
    1   AR   Ar    5   6.646   5.632   0.143
    1   AR   Ar    6   1.350   1.113   1.972
    1   AR   Ar    7   5.524   4.231   2.522
    1   AR   Ar    8   5.854   2.746  -0.281
    1   AR   Ar    9   6.958   5.716   4.680
    1   AR   Ar   10   5.968   4.956   5.516
    1   AR   Ar   11   0.933   6.971   4.702
    1   AR   Ar   12   7.007   2.047   4.511
    1   AR   Ar   13   6.823   6.963   5.242
    1   AR   Ar   14   4.687   1.696   6.246
    1   AR   Ar   15   3.003   5.549   9.228
    1   AR   Ar   16   1.008   0.001   6.620
    1   AR   Ar   17   5.512   3.440   0.450
    1   AR   Ar   18   7.048   4.067  -2.904
    1   AR   Ar   19   4.877   5.099  -0.028
    1   AR   Ar   20   6.647   3.015  -2.517
    1   AR   Ar   21   2.683   1.493   2.305
    1   AR   Ar   22   4.945   0.288   2.030
    1   AR   Ar   23   0.608   5.579   0.015
    1   AR   Ar   24   6.308   2.875   4.433
    1   AR   Ar   25   1.047   3.496   5.537
    1   AR   Ar   26   5.729   5.865   5.019
    1   AR   Ar   27   0.855   0.869   0.835
    1   AR   Ar   28   2.834   2.412   4.154
    1   AR   Ar   29   5.366   6.604   7.020
    1   AR   Ar   30   5.978   0.284   3.576
    1   AR   Ar   31   1.017   1.172   6.797
    1   AR   Ar   32   1.213   2.249   6.443
    1   AR   Ar   33   5.578   5.465   0.730
    1   AR   Ar   34   1.548   5.361   3.507
    1   AR   Ar   35   5.960   5.451   2.466
    1   AR   Ar   36   4.043   1.861  -3.946
    1   AR   Ar   37   4.662   3.403   1.185
    1   AR   Ar   38   5.994   5.000   4.531
    1   AR   Ar   39   7.109   3.379   3.984
    1   AR   Ar   40   0.423   4.154   2.146
    1   AR   Ar   41   0.648   1.914   3.694
    1   AR   Ar   42   4.977   4.918   5.260
    1   AR   Ar   43   0.198   3.252   6.247
    1   AR   Ar   44   1.341   4.321   2.966
    1   AR   Ar   45   2.425   4.040   5.220
    1   AR   Ar   46   5.941   5.702   6.792
    1   AR   Ar   47   2.738   3.749   6.679
    1   AR   Ar   48   0.615   3.741   7.461
    1   AR   Ar   49   7.061   2.092   0.254
    1   AR   Ar   50   2.741   4.766   0.561
    1   AR   Ar   51   5.582   3.504   3.127
    1   AR   Ar   52   5.684   3.659  -2.161
    1   AR   Ar   53   4.466   0.142   3.219
    1   AR   Ar   54   5.992   6.643   2.669
    1   AR   Ar   55   6.911   5.140   2.319
    1   AR   Ar   56   6.185   1.861   3.643
    1   AR   Ar   57   4.804   5.098   2.671
    1   AR   Ar   58   1.484   3.534   4.623
    1   AR   Ar   59   3.880   5.168   5.796
    1   AR   Ar   60   1.135   5.140   2.277
    1   AR   Ar   61   6.572   4.819   6.498
    1   AR   Ar   62   6.929   4.166   5.697
    1   AR   Ar   63   1.844   1.462   7.765
    1   AR   Ar   64   0.691   4.924   4.040
    1   AR   Ar   65   4.125   1.194   2.619
    1   AR   Ar   66   1.139   2.120   0.509
    1   AR   Ar   67   4.477   1.450  -0.916
    1   AR   Ar   68   6.626   1.082   1.115
    1   AR   Ar   69   2.676   2.436   1.084
    1   AR   Ar   70   0.048   1.321   2.099
    1   AR   Ar   71   3.100   0.640   3.046
    1   AR   Ar   72   4.498   1.267   1.588
    1   AR   Ar   73   3.266   0.239   3.964
    1   AR   Ar   74   1.011   0.903   3.321
    1   AR   Ar   75   3.164   0.765   5.641
    1   AR   Ar   76   2.738   0.073   1.834
    1   AR   Ar   77   1.232   5.707   6.638
    1   AR   Ar   78   6.730   5.731   5.695
    1   AR   Ar   79   3.859   6.455   5.032
    1   AR   Ar   80   3.482   4.217   6.123
    1   AR   Ar   81   1.489   6.198   1.949
    1   AR   Ar   82   7.061   4.882   1.184
    1   AR   Ar   83   1.664   3.151   0.828
    1   AR   Ar   84   0.907   4.381   0.980
    1   AR   Ar   85   0.458   2.749  -0.783
    1   AR   Ar   86   1.476   5.670   0.857
    1   AR   Ar   87   4.072   2.189   2.604
    1   AR   Ar   88   3.563   5.117   1.656
    1   AR   Ar   89   6.158   2.740   0.988
    1   AR   Ar   90   3.584   0.948   6.786
    1   AR   Ar   91   1.838   1.802   2.925
    1   AR   Ar   92   3.456   3.164   1.001
    1   AR   Ar   93   1.039   1.359   5.642
    1   AR   Ar   94   0.225   6.864   9.631
    1   AR   Ar   95   4.699   0.384   6.762
    1   AR   Ar   96   1.760   0.239   5.711
    1   AR   Ar   97   5.186   1.351  -1.829
    1   AR   Ar   98   1.803   4.402   4.076
    1   AR   Ar   99   5.848   6.755  -0.595
    1   AR   Ar  100   6.086   2.083  -3.185
    1   AR   Ar  101   3.702   5.518   2.961
    1   AR   Ar  102   4.169   2.344   1.529
    1   AR   Ar  103   1.573   3.719   1.915
    1   AR   Ar  104   3.251   0.671  -0.608
    1   AR   Ar  105   2.550   2.455   3.058
    1   AR   Ar  106   4.043   1.294   3.764
    1   AR   Ar  107   0.956   4.630   5.256
    1   AR   Ar  108   2.254   0.705   3.931
    1   AR   Ar  109   2.636   4.912   4.695
    1   AR   Ar  110   2.504   3.019   5.200
    1   AR   Ar  111   3.977   4.126   7.302
    1   AR   Ar  112   6.571   6.593   6.946
    1   AR   Ar  113   6.308   6.191  -1.546
    1   AR   Ar  114   2.832   0.032   0.323
    1   AR   Ar  115   6.561   4.491  -0.464
    1   AR   Ar  116   5.434   1.394   1.227
    1   AR   Ar  117   0.277   4.372   3.139
    1   AR   Ar  118   1.968   6.345   3.685
    1   AR   Ar  119   1.665   3.099   2.643
    1   AR   Ar  120   1.995   0.057   2.967
    1   AR   Ar  121   5.389   4.587   7.108
    1   AR   Ar  122   2.711   4.951   3.310
    1   AR   Ar  123   3.293   2.338   5.265
    1   AR   Ar  124   0.359   5.964   1.178
    1   AR   Ar  125   6.152   4.361   3.380
    1   AR   Ar  126   6.807   1.470   6.898
    1   AR   Ar  127   4.283   3.187   5.992
    1   AR   Ar  128   1.152   4.523   6.952
    1   AR   Ar  129   1.573   5.475   4.659
    1   AR   Ar  130   5.844   0.656  -4.667
    1   AR   Ar  131   4.445   7.015   0.107
    1   AR   Ar  132   1.789   2.168   1.876
    1   AR   Ar  133   4.216   0.149   4.428
    1   AR   Ar  134   3.541   0.931   4.718
    1   AR   Ar  135   5.788   0.643   5.531
    1   AR   Ar  136   5.099   6.416   2.328
    1   AR   Ar  137   2.531   4.591   6.116
    1   AR   Ar  138   5.743   1.536   6.068
    1   AR   Ar  139   6.438   2.547   5.425
    1   AR   Ar  140   4.846   6.461   4.703
    1   AR   Ar  141   3.544   5.224   4.223
    1   AR   Ar  142   3.989   5.812   8.635
    1   AR   Ar  143   5.022   6.416   8.126
    1   AR   Ar  144   0.123   3.070   5.182
    1   AR   Ar  145   4.726   4.616  -2.013
    1   AR   Ar  146   4.121   2.346   3.641
    1   AR   Ar  147   4.566   4.095  -0.046
    1   AR   Ar  148   1.852   5.849  -0.093
    1   AR   Ar  149   6.390   1.833  -0.547
    1   AR   Ar  150   0.809   1.978   2.509
    1   AR   Ar  151   2.902   3.015   2.267
    1   AR   Ar  152   0.567   1.039  -0.096
    1   AR   Ar  153   5.138   1.135   2.947
    1   AR   Ar  154   4.952   2.953   3.994
    1   AR   Ar  155   5.382   3.581   5.770
    1   AR   Ar  156   3.277   3.986   2.971
    1   AR   Ar  157   3.276   5.875   6.517
    1   AR   Ar  158   1.631   2.475   7.457
    1   AR   Ar  159   4.415   0.406   5.669
    1   AR   Ar  160   1.154   1.666   4.548
    1   AR   Ar  161   5.181   4.581   3.947
    1   AR   Ar  162   3.439   5.569  -1.271
    1   AR   Ar  163   6.531   4.063   2.530
    1   AR   Ar  164   2.402   5.624   2.636
    1   AR   Ar  165   3.750   4.260   0.648
    1   AR   Ar  166   3.436   3.475   5.408
    1   AR   Ar  167   5.779   6.983   4.523
    1   AR   Ar  168   6.076   4.577  -2.727
    1   AR   Ar  169   4.378   3.264   3.110
    1   AR   Ar  170   2.744   2.768   6.827
    1   AR   Ar  171   4.744   5.575   3.787
    1   AR   Ar  172   4.005   2.971   4.544
    1   AR   Ar  173   0.489   2.224   7.839
    1   AR   Ar  174   3.013   6.294   4.363
    1   AR   Ar  175   1.086   0.287   7.819
    1   AR   Ar  176   3.319   3.016   3.381
    1   AR   Ar  177   0.371   3.693  -1.818
    1   AR   Ar  178   2.253   6.503   1.039
    1   AR   Ar  179   3.444   5.944   0.768
    1   AR   Ar  180   4.903   5.938  -6.986
    1   AR   Ar  181   6.973   6.128   2.112
    1   AR   Ar  182   0.790   6.267   2.755
    1   AR   Ar  183   5.335   5.403   1.692
    1   AR   Ar  184   3.534   4.965  -0.203
    1   AR   Ar  185   3.299   4.011   4.255
    1   AR   Ar  186   3.039   6.589   3.159
    1   AR   Ar  187   3.890   6.391   3.897
    1   AR   Ar  188   3.274   1.076   1.522
    1   AR   Ar  189   6.189   2.960   6.557
    1   AR   Ar  190   1.510   0.703   4.663
    1   AR   Ar  191   4.341   5.510   4.747
    1   AR   Ar  192   3.765   2.687   6.715
    1   AR   Ar  193   3.162   6.137   1.933
    1   AR   Ar  194   4.530   6.142  -0.370
    1   AR   Ar  195   6.335   1.955   1.794
    1   AR   Ar  196   4.665   6.765   1.202
    1   AR   Ar  197   4.795   2.976  -0.048
    1   AR   Ar  198   6.736   6.737   0.380
    1   AR   Ar  199   0.171   0.434   2.576
    1   AR   Ar  200   5.223   2.040   0.305
    1   AR   Ar  201   6.831   5.282   3.799
    1   AR   Ar  202   5.447   1.169   4.428
    1   AR   Ar  203   7.002   0.125   3.539
    1   AR   Ar  204   4.801   5.312   7.701
    1   AR   Ar  205   5.312   1.868   2.139
    1   AR   Ar  206   6.335   0.598   6.560
    1   AR   Ar  207   0.451   3.887   4.685
    1   AR   Ar  208   0.779   6.234   3.886
    1   AR   Ar  209   5.232   2.696  -1.543
    1   AR   Ar  210   2.734   2.288  -0.061
    1   AR   Ar  211   6.698   3.299   0.196
    1   AR   Ar  212   5.995   4.493   0.573
    1   AR   Ar  213   4.002   1.602   0.627
    1   AR   Ar  214   5.430   4.124   1.312
    1   AR   Ar  215   0.281   3.001   2.302
    1   AR   Ar  216   1.895   3.037  -0.691
    1   AR   Ar  217   4.897   2.120   4.451
    1   AR   Ar  218   4.451   2.287   5.415
    1   AR   Ar  219   4.465   3.992   2.009
    1   AR   Ar  220   4.652   4.715   1.239
    1   AR   Ar  221   6.396   6.382   3.658
    1   AR   Ar  222   5.793   6.577   5.939
    1   AR   Ar  223   0.342   0.794   5.985
    1   AR   Ar  224   4.531   1.254   5.084
    1   AR   Ar  225   6.314   2.978   2.544
    1   AR   Ar  226   2.432   3.508   4.037
    1   AR   Ar  227   1.781   2.524   4.271
    1   AR   Ar  228   5.868   0.637   2.467
    1   AR   Ar  229   5.544   3.939  -0.559
    1   AR   Ar  230   4.256   4.616   3.448
    1   AR   Ar  231   5.057   2.246   3.086
    1   AR   Ar  232   5.548   3.230   1.921
    1   AR   Ar  233   6.648   1.253   2.967
    1   AR   Ar  234   6.453   3.885   4.763
    1   AR   Ar  235   7.026   0.826   4.390
    1   AR   Ar  236   4.461   4.157   4.677
    1   AR   Ar  237   4.070   1.793   7.297
    1   AR   Ar  238   4.923   4.542   6.263
    1   AR   Ar  239   1.383   4.969   9.962
    1   AR   Ar  240   1.682   3.256   6.535
    1   AR   Ar  241   0.905   6.691  -0.479
    1   AR   Ar  242   6.118   6.422   1.402
    1   AR   Ar  243   4.183   5.904   1.879
    1   AR   Ar  244   5.460   6.603   0.355
    1   AR   Ar  245   3.270   1.711   3.121
    1   AR   Ar  246   5.320   5.862  -1.348
    1   AR   Ar  247   6.833   3.655   1.435
    1   AR   Ar  248   5.731   5.506  -0.417
    1   AR   Ar  249   3.827   0.527   0.873
    1   AR   Ar  250   5.241   6.557   3.491
    1   AR   Ar  251   5.457   3.588   4.670
    1   AR   Ar  252   2.612   4.834   1.885
    1   AR   Ar  253   5.168   2.641   6.861
    1   AR   Ar  254   3.982   4.520  13.405
    1   AR   Ar  255   4.981   5.854   9.295
    1   AR   Ar  256   5.760   5.563   3.617
    7.12000  7.12000 12.00000
Argon-slab step 5860
  256
    1   AR   Ar    1   4.155   2.514  -0.991
    1   AR   Ar    2   5.715   0.374   1.122
    1   AR   Ar    3   4.616   3.692  -1.251
    1   AR   Ar    4   2.189   0.995   1.283
    1   AR   Ar    5   6.654   5.641   0.124
    1   AR   Ar    6   1.388   1.099   1.953
    1   AR   Ar    7   5.527   4.203   2.483
    1   AR   Ar    8   5.842   2.758  -0.283
    1   AR   Ar    9   6.956   5.679   4.698
    1   AR   Ar   10   5.971   4.962   5.514
    1   AR   Ar   11   0.911   6.968   4.678
    1   AR   Ar   12   7.031   2.063   4.519
    1   AR   Ar   13   6.857   6.969   5.258
    1   AR   Ar   14   4.705   1.706   6.249
    1   AR   Ar   15   2.992   5.567   9.236
    1   AR   Ar   16   1.034   0.021   6.631
    1   AR   Ar   17   5.517   3.454   0.462
    1   AR   Ar   18   7.111   4.052  -2.916
    1   AR   Ar   19   4.851   5.107  -0.050
    1   AR   Ar   20   6.622   2.988  -2.515
    1   AR   Ar   21   2.667   1.509   2.284
    1   AR   Ar   22   4.923   0.287   2.029
    1   AR   Ar   23   0.597   5.573   0.029
    1   AR   Ar   24   6.313   2.870   4.423
    1   AR   Ar   25   1.039   3.501   5.487
    1   AR   Ar   26   5.749   5.899   5.032
    1   AR   Ar   27   0.856   0.868   0.796
    1   AR   Ar   28   2.849   2.374   4.140
    1   AR   Ar   29   5.364   6.595   7.038
    1   AR   Ar   30   5.968   0.297   3.577
    1   AR   Ar   31   1.019   1.175   6.797
    1   AR   Ar   32   1.205   2.242   6.443
    1   AR   Ar   33   5.564   5.444   0.730
    1   AR   Ar   34   1.541   5.368   3.532
    1   AR   Ar   35   5.937   5.428   2.467
    1   AR   Ar   36   4.066   1.878  -3.952
    1   AR   Ar   37   4.666   3.381   1.210
    1   AR   Ar   38   5.983   4.984   4.569
    1   AR   Ar   39   7.090   3.358   3.975
    1   AR   Ar   40   0.433   4.177   2.153
    1   AR   Ar   41   0.688   1.904   3.701
    1   AR   Ar   42   4.963   4.913   5.292
    1   AR   Ar   43   0.171   3.247   6.251
    1   AR   Ar   44   1.348   4.280   2.955
    1   AR   Ar   45   2.417   4.050   5.204
    1   AR   Ar   46   5.928   5.721   6.769
    1   AR   Ar   47   2.716   3.740   6.642
    1   AR   Ar   48   0.610   3.747   7.475
    1   AR   Ar   49   7.078   2.111   0.251
    1   AR   Ar   50   2.721   4.764   0.557
    1   AR   Ar   51   5.611   3.468   3.141
    1   AR   Ar   52   5.701   3.653  -2.177
    1   AR   Ar   53   4.470   0.151   3.233
    1   AR   Ar   54   5.976   6.671   2.654
    1   AR   Ar   55   6.909   5.125   2.318
    1   AR   Ar   56   6.158   1.860   3.667
    1   AR   Ar   57   4.817   5.063   2.702
    1   AR   Ar   58   1.486   3.546   4.643
    1   AR   Ar   59   3.917   5.178   5.782
    1   AR   Ar   60   1.121   5.128   2.271
    1   AR   Ar   61   6.553   4.814   6.494
    1   AR   Ar   62   6.930   4.170   5.705
    1   AR   Ar   63   1.841   1.435   7.768
    1   AR   Ar   64   0.690   4.941   4.023
    1   AR   Ar   65   4.147   1.196   2.604
    1   AR   Ar   66   1.122   2.136   0.504
    1   AR   Ar   67   4.489   1.439  -0.938
    1   AR   Ar   68   6.577   1.102   1.134
    1   AR   Ar   69   2.668   2.434   1.090
    1   AR   Ar   70   0.039   1.306   2.123
    1   AR   Ar   71   3.080   0.658   3.038
    1   AR   Ar   72   4.489   1.287   1.587
    1   AR   Ar   73   3.270   0.220   3.951
    1   AR   Ar   74   0.987   0.923   3.316
    1   AR   Ar   75   3.162   0.800   5.683
    1   AR   Ar   76   2.732   0.076   1.814
    1   AR   Ar   77   1.223   5.713   6.626
    1   AR   Ar   78   6.701   5.738   5.650
    1   AR   Ar   79   3.860   6.427   5.012
    1   AR   Ar   80   3.487   4.228   6.159
    1   AR   Ar   81   1.506   6.244   1.950
    1   AR   Ar   82   7.061   4.873   1.222
    1   AR   Ar   83   1.685   3.144   0.797
    1   AR   Ar   84   0.905   4.353   0.981
    1   AR   Ar   85   0.466   2.761  -0.793
    1   AR   Ar   86   1.481   5.691   0.877
    1   AR   Ar   87   4.112   2.189   2.579
    1   AR   Ar   88   3.544   5.084   1.645
    1   AR   Ar   89   6.188   2.735   0.974
    1   AR   Ar   90   3.605   0.933   6.792
    1   AR   Ar   91   1.838   1.776   2.919
    1   AR   Ar   92   3.429   3.174   0.993
    1   AR   Ar   93   1.043   1.348   5.628
    1   AR   Ar   94   0.213   6.851   9.650
    1   AR   Ar   95   4.684   0.369   6.750
    1   AR   Ar   96   1.755   0.205   5.742
    1   AR   Ar   97   5.207   1.383  -1.824
    1   AR   Ar   98   1.836   4.417   4.070
    1   AR   Ar   99   5.836   6.734  -0.579
    1   AR   Ar  100   6.043   2.062  -3.205
    1   AR   Ar  101   3.654   5.507   2.970
    1   AR   Ar  102   4.173   2.382   1.543
    1   AR   Ar  103   1.578   3.696   1.894
    1   AR   Ar  104   3.240   0.650  -0.614
    1   AR   Ar  105   2.534   2.446   3.067
    1   AR   Ar  106   4.056   1.275   3.771
    1   AR   Ar  107   0.960   4.632   5.240
    1   AR   Ar  108   2.263   0.692   3.948
    1   AR   Ar  109   2.680   4.922   4.677
    1   AR   Ar  110   2.496   3.008   5.183
    1   AR   Ar  111   3.978   4.128   7.287
    1   AR   Ar  112   6.550   6.586   6.934
    1   AR   Ar  113   6.292   6.169  -1.537
    1   AR   Ar  114   2.861   0.057   0.326
    1   AR   Ar  115   6.538   4.485  -0.499
    1   AR   Ar  116   5.406   1.456   1.238
    1   AR   Ar  117   0.256   4.378   3.159
    1   AR   Ar  118   1.975   6.325   3.679
    1   AR   Ar  119   1.670   3.078   2.670
    1   AR   Ar  120   1.986   0.037   2.988
    1   AR   Ar  121   5.399   4.609   7.099
    1   AR   Ar  122   2.696   4.932   3.355
    1   AR   Ar  123   3.268   2.323   5.291
    1   AR   Ar  124   0.356   5.973   1.179
    1   AR   Ar  125   6.150   4.370   3.389
    1   AR   Ar  126   6.827   1.509   6.894
    1   AR   Ar  127   4.289   3.207   6.007
    1   AR   Ar  128   1.194   4.561   6.958
    1   AR   Ar  129   1.586   5.449   4.648
    1   AR   Ar  130   5.849   0.648  -4.670
    1   AR   Ar  131   4.446   7.020   0.115
    1   AR   Ar  132   1.813   2.159   1.881
    1   AR   Ar  133   4.198   0.150   4.388
    1   AR   Ar  134   3.569   0.935   4.715
    1   AR   Ar  135   5.780   0.666   5.497
    1   AR   Ar  136   5.058   6.422   2.330
    1   AR   Ar  137   2.496   4.580   6.142
    1   AR   Ar  138   5.705   1.539   6.053
    1   AR   Ar  139   6.411   2.524   5.430
    1   AR   Ar  140   4.817   6.467   4.669
    1   AR   Ar  141   3.554   5.215   4.189
    1   AR   Ar  142   3.979   5.804   8.611
    1   AR   Ar  143   5.017   6.399   8.126
    1   AR   Ar  144   0.152   3.075   5.169
    1   AR   Ar  145   4.718   4.595  -2.003
    1   AR   Ar  146   4.134   2.363   3.652
    1   AR   Ar  147   4.533   4.145  -0.034
    1   AR   Ar  148   1.859   5.860  -0.072
    1   AR   Ar  149   6.348   1.833  -0.579
    1   AR   Ar  150   0.832   2.007   2.549
    1   AR   Ar  151   2.906   3.006   2.286
    1   AR   Ar  152   0.562   1.014  -0.127
    1   AR   Ar  153   5.164   1.138   2.936
    1   AR   Ar  154   4.985   2.977   3.988
    1   AR   Ar  155   5.381   3.566   5.750
    1   AR   Ar  156   3.302   3.987   2.950
    1   AR   Ar  157   3.268   5.851   6.520
    1   AR   Ar  158   1.599   2.459   7.455
    1   AR   Ar  159   4.390   0.394   5.648
    1   AR   Ar  160   1.157   1.634   4.571
    1   AR   Ar  161   5.176   4.590   3.976
    1   AR   Ar  162   3.447   5.557  -1.269
    1   AR   Ar  163   6.546   4.062   2.495
    1   AR   Ar  164   2.388   5.639   2.652
    1   AR   Ar  165   3.748   4.272   0.635
    1   AR   Ar  166   3.436   3.467   5.407
    1   AR   Ar  167   5.767   6.951   4.505
    1   AR   Ar  168   6.061   4.587  -2.718
    1   AR   Ar  169   4.390   3.256   3.113
    1   AR   Ar  170   2.720   2.766   6.803
    1   AR   Ar  171   4.739   5.559   3.777
    1   AR   Ar  172   3.993   2.952   4.525
    1   AR   Ar  173   0.497   2.243   7.822
    1   AR   Ar  174   2.988   6.270   4.351
    1   AR   Ar  175   1.105   0.255   7.811
    1   AR   Ar  176   3.312   3.014   3.364
    1   AR   Ar  177   0.397   3.688  -1.830
    1   AR   Ar  178   2.263   6.521   1.007
    1   AR   Ar  179   3.453   5.939   0.810
    1   AR   Ar  180   4.900   5.936  -6.979
    1   AR   Ar  181   6.987   6.121   2.092
    1   AR   Ar  182   0.785   6.233   2.749
    1   AR   Ar  183   5.338   5.382   1.699
    1   AR   Ar  184   3.523   4.968  -0.217
    1   AR   Ar  185   3.290   4.038   4.284
    1   AR   Ar  186   3.044   6.570   3.159
    1   AR   Ar  187   3.880   6.383   3.894
    1   AR   Ar  188   3.262   1.052   1.554
    1   AR   Ar  189   6.187   2.992   6.574
    1   AR   Ar  190   1.541   0.724   4.675
    1   AR   Ar  191   4.320   5.474   4.735
    1   AR   Ar  192   3.786   2.700   6.703
    1   AR   Ar  193   3.159   6.154   1.936
    1   AR   Ar  194   4.560   6.141  -0.390
    1   AR   Ar  195   6.339   1.926   1.793
    1   AR   Ar  196   4.637   6.754   1.200
    1   AR   Ar  197   4.748   2.991  -0.040
    1   AR   Ar  198   6.730   6.762   0.358
    1   AR   Ar  199   0.203   0.429   2.588
    1   AR   Ar  200   5.216   2.055   0.318
    1   AR   Ar  201   6.839   5.296   3.825
    1   AR   Ar  202   5.496   1.179   4.432
    1   AR   Ar  203   7.010   0.127   3.538
    1   AR   Ar  204   4.777   5.332   7.694
    1   AR   Ar  205   5.315   1.864   2.133
    1   AR   Ar  206   6.314   0.578   6.568
    1   AR   Ar  207   0.437   3.884   4.694
    1   AR   Ar  208   0.779   6.265   3.864
    1   AR   Ar  209   5.273   2.723  -1.523
    1   AR   Ar  210   2.764   2.298  -0.050
    1   AR   Ar  211   6.679   3.315   0.191
    1   AR   Ar  212   6.008   4.483   0.584
    1   AR   Ar  213   3.988   1.594   0.629
    1   AR   Ar  214   5.416   4.084   1.307
    1   AR   Ar  215   0.288   2.993   2.329
    1   AR   Ar  216   1.901   3.007  -0.681
    1   AR   Ar  217   4.863   2.135   4.450
    1   AR   Ar  218   4.439   2.288   5.420
    1   AR   Ar  219   4.455   4.017   2.001
    1   AR   Ar  220   4.656   4.716   1.251
    1   AR   Ar  221   6.396   6.374   3.669
    1   AR   Ar  222   5.828   6.562   5.926
    1   AR   Ar  223   0.321   0.808   5.970
    1   AR   Ar  224   4.540   1.254   5.094
    1   AR   Ar  225   6.322   2.973   2.532
    1   AR   Ar  226   2.417   3.503   4.039
    1   AR   Ar  227   1.768   2.555   4.248
    1   AR   Ar  228   5.843   0.641   2.491
    1   AR   Ar  229   5.540   3.944  -0.559
    1   AR   Ar  230   4.228   4.613   3.459
    1   AR   Ar  231   5.045   2.269   3.083
    1   AR   Ar  232   5.508   3.234   1.874
    1   AR   Ar  233   6.646   1.262   2.954
    1   AR   Ar  234   6.463   3.872   4.757
    1   AR   Ar  235   7.016   0.860   4.411
    1   AR   Ar  236   4.449   4.151   4.676
    1   AR   Ar  237   4.060   1.776   7.315
    1   AR   Ar  238   4.908   4.574   6.269
    1   AR   Ar  239   1.395   4.973   9.990
    1   AR   Ar  240   1.701   3.255   6.579
    1   AR   Ar  241   0.913   6.694  -0.481
    1   AR   Ar  242   6.098   6.387   1.402
    1   AR   Ar  243   4.195   5.883   1.840
    1   AR   Ar  244   5.429   6.605   0.376
    1   AR   Ar  245   3.219   1.698   3.137
    1   AR   Ar  246   5.285   5.871  -1.335
    1   AR   Ar  247   6.838   3.638   1.442
    1   AR   Ar  248   5.734   5.517  -0.460
    1   AR   Ar  249   3.876   0.521   0.871
    1   AR   Ar  250   5.210   6.542   3.509
    1   AR   Ar  251   5.460   3.577   4.662
    1   AR   Ar  252   2.613   4.848   1.869
    1   AR   Ar  253   5.150   2.635   6.844
    1   AR   Ar  254   3.980   4.508  13.410
    1   AR   Ar  255   4.983   5.871   9.301
    1   AR   Ar  256   5.768   5.543   3.622
    7.12000  7.12000 12.00000
Argon-slab step 5865
  256
    1   AR   Ar    1   4.139   2.538  -0.980
    1   AR   Ar    2   5.704   0.393   1.130
    1   AR   Ar    3   4.627   3.683  -1.231
    1   AR   Ar    4   2.219   0.996   1.310
    1   AR   Ar    5   6.659   5.649   0.108
    1   AR   Ar    6   1.422   1.086   1.938
    1   AR   Ar    7   5.522   4.186   2.434
    1   AR   Ar    8   5.845   2.783  -0.281
    1   AR   Ar    9   6.958   5.649   4.721
    1   AR   Ar   10   5.979   4.964   5.539
    1   AR   Ar   11   0.887   6.966   4.655
    1   AR   Ar   12   7.055   2.079   4.527
    1   AR   Ar   13   6.891   6.974   5.274
    1   AR   Ar   14   4.730   1.713   6.214
    1   AR   Ar   15   2.982   5.585   9.243
    1   AR   Ar   16   1.052   0.035   6.637
    1   AR   Ar   17   5.526   3.471   0.476
    1   AR   Ar   18   0.022   4.030  -2.920
    1   AR   Ar   19   4.825   5.120  -0.070
    1   AR   Ar   20   6.597   2.962  -2.514
    1   AR   Ar   21   2.641   1.522   2.259
    1   AR   Ar   22   4.899   0.291   2.028
    1   AR   Ar   23   0.590   5.567   0.045
    1   AR   Ar   24   6.270   2.845   4.416
    1   AR   Ar   25   1.026   3.508   5.460
    1   AR   Ar   26   5.769   5.937   5.044
    1   AR   Ar   27   0.861   0.866   0.771
    1   AR   Ar   28   2.866   2.337   4.128
    1   AR   Ar   29   5.360   6.587   7.055
    1   AR   Ar   30   5.955   0.313   3.575
    1   AR   Ar   31   1.021   1.177   6.798
    1   AR   Ar   32   1.197   2.236   6.442
    1   AR   Ar   33   5.553   5.427   0.720
    1   AR   Ar   34   1.534   5.373   3.554
    1   AR   Ar   35   5.917   5.408   2.482
    1   AR   Ar   36   4.090   1.896  -3.959
    1   AR   Ar   37   4.665   3.354   1.228
    1   AR   Ar   38   5.976   4.966   4.582
    1   AR   Ar   39   7.072   3.335   3.958
    1   AR   Ar   40   0.447   4.199   2.156
    1   AR   Ar   41   0.725   1.896   3.702
    1   AR   Ar   42   4.950   4.906   5.320
    1   AR   Ar   43   0.148   3.240   6.250
    1   AR   Ar   44   1.356   4.238   2.944
    1   AR   Ar   45   2.408   4.060   5.186
    1   AR   Ar   46   5.915   5.736   6.745
    1   AR   Ar   47   2.694   3.732   6.609
    1   AR   Ar   48   0.606   3.752   7.488
    1   AR   Ar   49   7.095   2.130   0.247
    1   AR   Ar   50   2.702   4.763   0.553
    1   AR   Ar   51   5.610   3.466   3.144
    1   AR   Ar   52   5.718   3.647  -2.191
    1   AR   Ar   53   4.472   0.162   3.246
    1   AR   Ar   54   5.968   6.699   2.642
    1   AR   Ar   55   6.914   5.102   2.325
    1   AR   Ar   56   6.129   1.861   3.695
    1   AR   Ar   57   4.832   5.031   2.730
    1   AR   Ar   58   1.498   3.559   4.647
    1   AR   Ar   59   3.954   5.189   5.768
    1   AR   Ar   60   1.107   5.117   2.265
    1   AR   Ar   61   6.533   4.810   6.490
    1   AR   Ar   62   6.933   4.173   5.710
    1   AR   Ar   63   1.838   1.408   7.770
    1   AR   Ar   64   0.692   4.957   4.009
    1   AR   Ar   65   4.166   1.187   2.591
    1   AR   Ar   66   1.092   2.155   0.502
    1   AR   Ar   67   4.501   1.428  -0.959
    1   AR   Ar   68   6.528   1.122   1.152
    1   AR   Ar   69   2.658   2.429   1.098
    1   AR   Ar   70   0.037   1.298   2.131
    1   AR   Ar   71   3.057   0.676   3.024
    1   AR   Ar   72   4.472   1.305   1.589
    1   AR   Ar   73   3.271   0.227   3.950
    1   AR   Ar   74   0.959   0.928   3.322
    1   AR   Ar   75   3.159   0.834   5.727
    1   AR   Ar   76   2.715   0.070   1.813
    1   AR   Ar   77   1.227   5.725   6.635
    1   AR   Ar   78   6.669   5.748   5.617
    1   AR   Ar   79   3.856   6.400   4.995
    1   AR   Ar   80   3.499   4.239   6.194
    1   AR   Ar   81   1.524   6.289   1.950
    1   AR   Ar   82   7.059   4.863   1.261
    1   AR   Ar   83   1.706   3.135   0.768
    1   AR   Ar   84   0.904   4.326   0.984
    1   AR   Ar   85   0.474   2.774  -0.802
    1   AR   Ar   86   1.483   5.712   0.902
    1   AR   Ar   87   4.150   2.198   2.555
    1   AR   Ar   88   3.534   5.051   1.630
    1   AR   Ar   89   6.217   2.728   0.962
    1   AR   Ar   90   3.627   0.916   6.797
    1   AR   Ar   91   1.827   1.740   2.913
    1   AR   Ar   92   3.405   3.187   0.985
    1   AR   Ar   93   1.062   1.346   5.609
    1   AR   Ar   94   0.200   6.838   9.669
    1   AR   Ar   95   4.669   0.355   6.737
    1   AR   Ar   96   1.750   0.172   5.772
    1   AR   Ar   97   5.228   1.416  -1.820
    1   AR   Ar   98   1.869   4.436   4.064
    1   AR   Ar   99   5.825   6.711  -0.566
    1   AR   Ar  100   6.000   2.042  -3.225
    1   AR   Ar  101   3.626   5.547   2.981
    1   AR   Ar  102   4.178   2.419   1.554
    1   AR   Ar  103   1.581   3.681   1.864
    1   AR   Ar  104   3.230   0.629  -0.620
    1   AR   Ar  105   2.516   2.444   3.078
    1   AR   Ar  106   4.069   1.255   3.777
    1   AR   Ar  107   0.966   4.626   5.249
    1   AR   Ar  108   2.293   0.670   3.949
    1   AR   Ar  109   2.720   4.934   4.658
    1   AR   Ar  110   2.482   2.996   5.163
    1   AR   Ar  111   3.978   4.130   7.269
    1   AR   Ar  112   6.556   6.596   6.939
    1   AR   Ar  113   6.278   6.148  -1.526
    1   AR   Ar  114   2.892   0.082   0.329
    1   AR   Ar  115   6.514   4.480  -0.532
    1   AR   Ar  116   5.390   1.514   1.237
    1   AR   Ar  117   0.233   4.386   3.183
    1   AR   Ar  118   1.988   6.288   3.670
    1   AR   Ar  119   1.676   3.049   2.705
    1   AR   Ar  120   1.979   0.019   3.009
    1   AR   Ar  121   5.418   4.633   7.103
    1   AR   Ar  122   2.683   4.910   3.405
    1   AR   Ar  123   3.249   2.306   5.318
    1   AR   Ar  124   0.354   5.981   1.176
    1   AR   Ar  125   6.148   4.384   3.405
    1   AR   Ar  126   6.855   1.519   6.897
    1   AR   Ar  127   4.273   3.219   6.035
    1   AR   Ar  128   1.236   4.599   6.963
    1   AR   Ar  129   1.600   5.422   4.636
    1   AR   Ar  130   5.854   0.640  -4.673
    1   AR   Ar  131   4.447   7.032   0.127
    1   AR   Ar  132   1.837   2.152   1.886
    1   AR   Ar  133   4.186   0.155   4.348
    1   AR   Ar  134   3.595   0.941   4.710
    1   AR   Ar  135   5.769   0.670   5.463
    1   AR   Ar  136   5.010   6.421   2.331
    1   AR   Ar  137   2.456   4.579   6.163
    1   AR   Ar  138   5.673   1.544   6.040
    1   AR   Ar  139   6.382   2.499   5.439
    1   AR   Ar  140   4.796   6.470   4.631
    1   AR   Ar  141   3.556   5.203   4.144
    1   AR   Ar  142   3.970   5.796   8.588
    1   AR   Ar  143   5.012   6.381   8.126
    1   AR   Ar  144   0.175   3.070   5.158
    1   AR   Ar  145   4.701   4.608  -1.990
    1   AR   Ar  146   4.145   2.377   3.664
    1   AR   Ar  147   4.503   4.186  -0.024
    1   AR   Ar  148   1.867   5.873  -0.054
    1   AR   Ar  149   6.306   1.833  -0.611
    1   AR   Ar  150   0.854   2.035   2.589
    1   AR   Ar  151   2.911   3.000   2.301
    1   AR   Ar  152   0.553   0.992  -0.171
    1   AR   Ar  153   5.176   1.152   2.938
    1   AR   Ar  154   5.018   3.013   3.971
    1   AR   Ar  155   5.379   3.552   5.732
    1   AR   Ar  156   3.319   4.011   2.952
    1   AR   Ar  157   3.261   5.827   6.522
    1   AR   Ar  158   1.566   2.444   7.452
    1   AR   Ar  159   4.363   0.377   5.628
    1   AR   Ar  160   1.157   1.618   4.590
    1   AR   Ar  161   5.174   4.597   4.004
    1   AR   Ar  162   3.457   5.544  -1.266
    1   AR   Ar  163   6.565   4.058   2.454
    1   AR   Ar  164   2.373   5.657   2.666
    1   AR   Ar  165   3.743   4.284   0.627
    1   AR   Ar  166   3.435   3.458   5.403
    1   AR   Ar  167   5.756   6.919   4.489
    1   AR   Ar  168   6.049   4.554  -2.672
    1   AR   Ar  169   4.402   3.250   3.114
    1   AR   Ar  170   2.693   2.752   6.780
    1   AR   Ar  171   4.729   5.546   3.764
    1   AR   Ar  172   3.980   2.934   4.508
    1   AR   Ar  173   0.507   2.262   7.804
    1   AR   Ar  174   2.955   6.244   4.340
    1   AR   Ar  175   1.124   0.224   7.800
    1   AR   Ar  176   3.311   3.015   3.352
    1   AR   Ar  177   0.423   3.683  -1.842
    1   AR   Ar  178   2.274   6.537   0.976
    1   AR   Ar  179   3.462   5.935   0.853
    1   AR   Ar  180   4.897   5.934  -6.973
    1   AR   Ar  181   6.999   6.121   2.075
    1   AR   Ar  182   0.780   6.199   2.744
    1   AR   Ar  183   5.332   5.362   1.706
    1   AR   Ar  184   3.514   4.971  -0.231
    1   AR   Ar  185   3.285   4.066   4.314
    1   AR   Ar  186   3.047   6.550   3.160
    1   AR   Ar  187   3.879   6.373   3.886
    1   AR   Ar  188   3.252   1.029   1.585
    1   AR   Ar  189   6.185   3.024   6.589
    1   AR   Ar  190   1.573   0.737   4.693
    1   AR   Ar  191   4.305   5.444   4.729
    1   AR   Ar  192   3.804   2.706   6.697
    1   AR   Ar  193   3.153   6.169   1.939
    1   AR   Ar  194   4.593   6.134  -0.412
    1   AR   Ar  195   6.325   1.900   1.804
    1   AR   Ar  196   4.608   6.743   1.198
    1   AR   Ar  197   4.698   3.005  -0.035
    1   AR   Ar  198   6.722   6.786   0.336
    1   AR   Ar  199   0.238   0.419   2.599
    1   AR   Ar  200   5.210   2.086   0.333
    1   AR   Ar  201   6.842   5.302   3.832
    1   AR   Ar  202   5.545   1.188   4.436
    1   AR   Ar  203   7.023   0.146   3.506
    1   AR   Ar  204   4.752   5.353   7.688
    1   AR   Ar  205   5.315   1.864   2.136
    1   AR   Ar  206   6.293   0.557   6.574
    1   AR   Ar  207   0.427   3.896   4.699
    1   AR   Ar  208   0.780   6.293   3.841
    1   AR   Ar  209   5.313   2.751  -1.502
    1   AR   Ar  210   2.793   2.308  -0.038
    1   AR   Ar  211   6.660   3.332   0.186
    1   AR   Ar  212   6.026   4.474   0.589
    1   AR   Ar  213   3.975   1.587   0.635
    1   AR   Ar  214   5.409   4.045   1.308
    1   AR   Ar  215   0.296   2.986   2.355
    1   AR   Ar  216   1.908   2.977  -0.670
    1   AR   Ar  217   4.827   2.135   4.455
    1   AR   Ar  218   4.424   2.292   5.423
    1   AR   Ar  219   4.444   4.043   2.001
    1   AR   Ar  220   4.649   4.725   1.256
    1   AR   Ar  221   6.384   6.371   3.664
    1   AR   Ar  222   5.863   6.548   5.913
    1   AR   Ar  223   0.286   0.811   5.963
    1   AR   Ar  224   4.552   1.257   5.101
    1   AR   Ar  225   6.312   2.967   2.513
    1   AR   Ar  226   2.403   3.493   4.041
    1   AR   Ar  227   1.756   2.586   4.224
    1   AR   Ar  228   5.835   0.635   2.505
    1   AR   Ar  229   5.536   3.948  -0.557
    1   AR   Ar  230   4.197   4.608   3.472
    1   AR   Ar  231   5.036   2.294   3.083
    1   AR   Ar  232   5.468   3.232   1.829
    1   AR   Ar  233   6.641   1.278   2.947
    1   AR   Ar  234   6.475   3.862   4.751
    1   AR   Ar  235   7.007   0.894   4.432
    1   AR   Ar  236   4.446   4.145   4.670
    1   AR   Ar  237   4.048   1.766   7.326
    1   AR   Ar  238   4.883   4.602   6.264
    1   AR   Ar  239   1.407   4.969  10.030
    1   AR   Ar  240   1.719   3.254   6.623
    1   AR   Ar  241   0.918   6.697  -0.480
    1   AR   Ar  242   6.076   6.352   1.402
    1   AR   Ar  243   4.212   5.863   1.801
    1   AR   Ar  244   5.398   6.604   0.402
    1   AR   Ar  245   3.177   1.687   3.157
    1   AR   Ar  246   5.245   5.881  -1.324
    1   AR   Ar  247   6.841   3.622   1.448
    1   AR   Ar  248   5.731   5.530  -0.482
    1   AR   Ar  249   3.927   0.512   0.868
    1   AR   Ar  250   5.182   6.527   3.528
    1   AR   Ar  251   5.463   3.568   4.676
    1   AR   Ar  252   2.602   4.860   1.855
    1   AR   Ar  253   5.131   2.628   6.825
    1   AR   Ar  254   3.978   4.496  13.416
    1   AR   Ar  255   4.984   5.889   9.305
    1   AR   Ar  256   5.776   5.520   3.625
    7.12000  7.12000 12.00000
Argon-slab step 5870
  256
    1   AR   Ar    1   4.125   2.561  -0.969
    1   AR   Ar    2   5.690   0.410   1.138
    1   AR   Ar    3   4.639   3.673  -1.210
    1   AR   Ar    4   2.253   0.996   1.334
    1   AR   Ar    5   6.660   5.658   0.093
    1   AR   Ar    6   1.450   1.075   1.929
    1   AR   Ar    7   5.514   4.176   2.379
    1   AR   Ar    8   5.846   2.808  -0.280
    1   AR   Ar    9   6.969   5.623   4.738
    1   AR   Ar   10   5.987   4.963   5.584
    1   AR   Ar   11   0.862   6.965   4.634
    1   AR   Ar   12   7.079   2.094   4.535
    1   AR   Ar   13   6.923   6.979   5.289
    1   AR   Ar   14   4.740   1.719   6.187
    1   AR   Ar   15   2.972   5.604   9.250
    1   AR   Ar   16   1.041   0.022   6.627
    1   AR   Ar   17   5.537   3.486   0.488
    1   AR   Ar   18   0.029   4.003  -2.919
    1   AR   Ar   19   4.801   5.141  -0.090
    1   AR   Ar   20   6.571   2.937  -2.512
    1   AR   Ar   21   2.614   1.536   2.233
    1   AR   Ar   22   4.875   0.304   2.030
    1   AR   Ar   23   0.587   5.563   0.063
    1   AR   Ar   24   6.222   2.817   4.409
    1   AR   Ar   25   1.010   3.515   5.461
    1   AR   Ar   26   5.787   5.974   5.052
    1   AR   Ar   27   0.870   0.864   0.756
    1   AR   Ar   28   2.884   2.301   4.116
    1   AR   Ar   29   5.357   6.581   7.072
    1   AR   Ar   30   5.940   0.330   3.569
    1   AR   Ar   31   1.022   1.180   6.798
    1   AR   Ar   32   1.188   2.229   6.440
    1   AR   Ar   33   5.542   5.412   0.703
    1   AR   Ar   34   1.529   5.375   3.570
    1   AR   Ar   35   5.911   5.396   2.502
    1   AR   Ar   36   4.114   1.913  -3.965
    1   AR   Ar   37   4.653   3.322   1.237
    1   AR   Ar   38   5.972   4.948   4.576
    1   AR   Ar   39   7.055   3.312   3.937
    1   AR   Ar   40   0.466   4.221   2.153
    1   AR   Ar   41   0.760   1.892   3.699
    1   AR   Ar   42   4.939   4.899   5.340
    1   AR   Ar   43   0.135   3.226   6.229
    1   AR   Ar   44   1.364   4.197   2.934
    1   AR   Ar   45   2.399   4.068   5.168
    1   AR   Ar   46   5.905   5.755   6.717
    1   AR   Ar   47   2.673   3.723   6.581
    1   AR   Ar   48   0.602   3.756   7.500
    1   AR   Ar   49   7.111   2.150   0.243
    1   AR   Ar   50   2.684   4.764   0.552
    1   AR   Ar   51   5.607   3.458   3.152
    1   AR   Ar   52   5.735   3.638  -2.204
    1   AR   Ar   53   4.473   0.176   3.258
    1   AR   Ar   54   5.965   6.726   2.632
    1   AR   Ar   55   6.922   5.075   2.334
    1   AR   Ar   56   6.099   1.864   3.724
    1   AR   Ar   57   4.830   5.006   2.739
    1   AR   Ar   58   1.522   3.576   4.631
    1   AR   Ar   59   3.992   5.199   5.754
    1   AR   Ar   60   1.092   5.108   2.260
    1   AR   Ar   61   6.511   4.808   6.487
    1   AR   Ar   62   6.938   4.176   5.714
    1   AR   Ar   63   1.833   1.379   7.772
    1   AR   Ar   64   0.695   4.969   4.000
    1   AR   Ar   65   4.182   1.170   2.582
    1   AR   Ar   66   1.061   2.174   0.500
    1   AR   Ar   67   4.513   1.418  -0.980
    1   AR   Ar   68   6.480   1.140   1.168
    1   AR   Ar   69   2.646   2.423   1.107
    1   AR   Ar   70   0.045   1.296   2.122
    1   AR   Ar   71   3.033   0.689   3.005
    1   AR   Ar   72   4.448   1.321   1.593
    1   AR   Ar   73   3.268   0.239   3.949
    1   AR   Ar   74   0.932   0.929   3.329
    1   AR   Ar   75   3.158   0.869   5.772
    1   AR   Ar   76   2.698   0.065   1.812
    1   AR   Ar   77   1.238   5.746   6.658
    1   AR   Ar   78   6.632   5.762   5.610
    1   AR   Ar   79   3.844   6.373   4.981
    1   AR   Ar   80   3.517   4.253   6.228
    1   AR   Ar   81   1.545   6.332   1.949
    1   AR   Ar   82   7.057   4.853   1.300
    1   AR   Ar   83   1.728   3.125   0.740
    1   AR   Ar   84   0.901   4.299   0.990
    1   AR   Ar   85   0.488   2.769  -0.829
    1   AR   Ar   86   1.482   5.732   0.932
    1   AR   Ar   87   4.183   2.213   2.534
    1   AR   Ar   88   3.538   5.019   1.610
    1   AR   Ar   89   6.245   2.721   0.951
    1   AR   Ar   90   3.649   0.899   6.799
    1   AR   Ar   91   1.815   1.712   2.937
    1   AR   Ar   92   3.384   3.201   0.978
    1   AR   Ar   93   1.087   1.348   5.590
    1   AR   Ar   94   0.187   6.824   9.688
    1   AR   Ar   95   4.655   0.342   6.724
    1   AR   Ar   96   1.738   0.145   5.800
    1   AR   Ar   97   5.249   1.449  -1.814
    1   AR   Ar   98   1.901   4.456   4.058
    1   AR   Ar   99   5.815   6.686  -0.555
    1   AR   Ar  100   5.957   2.022  -3.245
    1   AR   Ar  101   3.655   5.554   2.990
    1   AR   Ar  102   4.182   2.457   1.559
    1   AR   Ar  103   1.582   3.668   1.832
    1   AR   Ar  104   3.220   0.607  -0.624
    1   AR   Ar  105   2.492   2.447   3.092
    1   AR   Ar  106   4.083   1.233   3.781
    1   AR   Ar  107   0.974   4.621   5.257
    1   AR   Ar  108   2.325   0.648   3.945
    1   AR   Ar  109   2.754   4.947   4.641
    1   AR   Ar  110   2.464   2.983   5.139
    1   AR   Ar  111   3.979   4.131   7.250
    1   AR   Ar  112   6.567   6.611   6.948
    1   AR   Ar  113   6.265   6.126  -1.514
    1   AR   Ar  114   2.924   0.107   0.334
    1   AR   Ar  115   6.489   4.476  -0.564
    1   AR   Ar  116   5.385   1.567   1.217
    1   AR   Ar  117   0.209   4.395   3.210
    1   AR   Ar  118   2.004   6.258   3.652
    1   AR   Ar  119   1.682   3.017   2.741
    1   AR   Ar  120   1.973   0.002   3.028
    1   AR   Ar  121   5.444   4.657   7.116
    1   AR   Ar  122   2.671   4.887   3.457
    1   AR   Ar  123   3.234   2.286   5.343
    1   AR   Ar  124   0.355   5.987   1.167
    1   AR   Ar  125   6.146   4.401   3.423
    1   AR   Ar  126   6.889   1.509   6.904
    1   AR   Ar  127   4.269   3.241   6.051
    1   AR   Ar  128   1.279   4.637   6.967
    1   AR   Ar  129   1.616   5.414   4.618
    1   AR   Ar  130   5.860   0.632  -4.676
    1   AR   Ar  131   4.446   7.046   0.139
    1   AR   Ar  132   1.861   2.146   1.891
    1   AR   Ar  133   4.185   0.162   4.311
    1   AR   Ar  134   3.613   0.949   4.706
    1   AR   Ar  135   5.752   0.650   5.431
    1   AR   Ar  136   4.960   6.414   2.332
    1   AR   Ar  137   2.412   4.588   6.180
    1   AR   Ar  138   5.657   1.550   6.026
    1   AR   Ar  139   6.352   2.474   5.449
    1   AR   Ar  140   4.782   6.469   4.591
    1   AR   Ar  141   3.553   5.192   4.086
    1   AR   Ar  142   3.962   5.787   8.565
    1   AR   Ar  143   5.024   6.421   8.145
    1   AR   Ar  144   0.185   3.050   5.148
    1   AR   Ar  145   4.684   4.620  -1.976
    1   AR   Ar  146   4.152   2.385   3.672
    1   AR   Ar  147   4.477   4.215  -0.019
    1   AR   Ar  148   1.876   5.886  -0.039
    1   AR   Ar  149   6.264   1.833  -0.641
    1   AR   Ar  150   0.876   2.063   2.627
    1   AR   Ar  151   2.917   2.995   2.312
    1   AR   Ar  152   0.540   0.972  -0.223
    1   AR   Ar  153   5.172   1.177   2.954
    1   AR   Ar  154   5.049   3.049   3.945
    1   AR   Ar  155   5.376   3.538   5.717
    1   AR   Ar  156   3.337   4.038   2.955
    1   AR   Ar  157   3.254   5.801   6.523
    1   AR   Ar  158   1.534   2.430   7.448
    1   AR   Ar  159   4.335   0.358   5.609
    1   AR   Ar  160   1.147   1.642   4.586
    1   AR   Ar  161   5.171   4.602   4.031
    1   AR   Ar  162   3.467   5.531  -1.263
    1   AR   Ar  163   6.585   4.052   2.412
    1   AR   Ar  164   2.358   5.677   2.680
    1   AR   Ar  165   3.749   4.287   0.621
    1   AR   Ar  166   3.434   3.451   5.397
    1   AR   Ar  167   5.748   6.887   4.474
    1   AR   Ar  168   6.038   4.522  -2.626
    1   AR   Ar  169   4.414   3.246   3.111
    1   AR   Ar  170   2.666   2.727   6.759
    1   AR   Ar  171   4.714   5.535   3.749
    1   AR   Ar  172   3.965   2.920   4.497
    1   AR   Ar  173   0.516   2.281   7.785
    1   AR   Ar  174   2.919   6.217   4.329
    1   AR   Ar  175   1.143   0.195   7.789
    1   AR   Ar  176   3.314   3.018   3.342
    1   AR   Ar  177   0.448   3.677  -1.855
    1   AR   Ar  178   2.257   6.541   0.989
    1   AR   Ar  179   3.471   5.930   0.897
    1   AR   Ar  180   4.893   5.931  -6.966
    1   AR   Ar  181   7.007   6.124   2.063
    1   AR   Ar  182   0.775   6.163   2.739
    1   AR   Ar  183   5.316   5.343   1.711
    1   AR   Ar  184   3.506   4.975  -0.244
    1   AR   Ar  185   3.281   4.093   4.343
    1   AR   Ar  186   3.049   6.531   3.160
    1   AR   Ar  187   3.883   6.359   3.874
    1   AR   Ar  188   3.248   1.005   1.614
    1   AR   Ar  189   6.183   3.056   6.602
    1   AR   Ar  190   1.606   0.739   4.717
    1   AR   Ar  191   4.297   5.418   4.729
    1   AR   Ar  192   3.815   2.702   6.704
    1   AR   Ar  193   3.147   6.183   1.944
    1   AR   Ar  194   4.609   6.149  -0.415
    1   AR   Ar  195   6.310   1.880   1.818
    1   AR   Ar  196   4.580   6.730   1.196
    1   AR   Ar  197   4.704   3.050  -0.054
    1   AR   Ar  198   6.711   6.804   0.318
    1   AR   Ar  199   0.276   0.405   2.607
    1   AR   Ar  200   5.204   2.119   0.349
    1   AR   Ar  201   6.838   5.303   3.820
    1   AR   Ar  202   5.594   1.197   4.439
    1   AR   Ar  203   7.035   0.164   3.482
    1   AR   Ar  204   4.727   5.375   7.681
    1   AR   Ar  205   5.306   1.871   2.128
    1   AR   Ar  206   6.271   0.535   6.578
    1   AR   Ar  207   0.421   3.924   4.697
    1   AR   Ar  208   0.780   6.318   3.817
    1   AR   Ar  209   5.353   2.780  -1.479
    1   AR   Ar  210   2.822   2.319  -0.026
    1   AR   Ar  211   6.641   3.351   0.180
    1   AR   Ar  212   6.048   4.464   0.589
    1   AR   Ar  213   3.961   1.582   0.641
    1   AR   Ar  214   5.407   4.024   1.309
    1   AR   Ar  215   0.304   2.981   2.380
    1   AR   Ar  216   1.915   2.946  -0.657
    1   AR   Ar  217   4.792   2.127   4.461
    1   AR   Ar  218   4.405   2.302   5.424
    1   AR   Ar  219   4.433   4.068   2.007
    1   AR   Ar  220   4.635   4.739   1.254
    1   AR   Ar  221   6.373   6.369   3.661
    1   AR   Ar  222   5.901   6.536   5.902
    1   AR   Ar  223   0.245   0.808   5.959
    1   AR   Ar  224   4.566   1.262   5.105
    1   AR   Ar  225   6.302   2.959   2.492
    1   AR   Ar  226   2.388   3.486   4.039
    1   AR   Ar  227   1.744   2.616   4.200
    1   AR   Ar  228   5.844   0.618   2.505
    1   AR   Ar  229   5.530   3.951  -0.554
    1   AR   Ar  230   4.162   4.601   3.487
    1   AR   Ar  231   5.034   2.320   3.086
    1   AR   Ar  232   5.435   3.214   1.799
    1   AR   Ar  233   6.629   1.290   2.954
    1   AR   Ar  234   6.505   3.887   4.767
    1   AR   Ar  235   6.997   0.929   4.451
    1   AR   Ar  236   4.454   4.141   4.653
    1   AR   Ar  237   4.022   1.780   7.316
    1   AR   Ar  238   4.851   4.627   6.259
    1   AR   Ar  239   1.420   4.965  10.069
    1   AR   Ar  240   1.735   3.253   6.666
    1   AR   Ar  241   0.914   6.690  -0.470
    1   AR   Ar  242   6.053   6.317   1.401
    1   AR   Ar  243   4.231   5.843   1.761
    1   AR   Ar  244   5.368   6.601   0.431
    1   AR   Ar  245   3.144   1.676   3.182
    1   AR   Ar  246   5.201   5.892  -1.314
    1   AR   Ar  247   6.844   3.606   1.455
    1   AR   Ar  248   5.718   5.546  -0.474
    1   AR   Ar  249   3.977   0.503   0.867
    1   AR   Ar  250   5.157   6.511   3.548
    1   AR   Ar  251   5.466   3.565   4.692
    1   AR   Ar  252   2.578   4.870   1.845
    1   AR   Ar  253   5.110   2.621   6.804
    1   AR   Ar  254   3.976   4.483  13.422
    1   AR   Ar  255   4.984   5.906   9.308
    1   AR   Ar  256   5.784   5.493   3.627
    7.12000  7.12000 12.00000
Argon-slab step 5875
  256
    1   AR   Ar    1   4.114   2.586  -0.957
    1   AR   Ar    2   5.673   0.424   1.148
    1   AR   Ar    3   4.647   3.670  -1.183
    1   AR   Ar    4   2.289   0.996   1.351
    1   AR   Ar    5   6.658   5.666   0.080
    1   AR   Ar    6   1.472   1.066   1.926
    1   AR   Ar    7   5.503   4.169   2.324
    1   AR   Ar    8   5.884   2.810  -0.305
    1   AR   Ar    9   6.989   5.597   4.745
    1   AR   Ar   10   5.992   4.957   5.635
    1   AR   Ar   11   0.843   6.985   4.639
    1   AR   Ar   12   7.104   2.110   4.543
    1   AR   Ar   13   6.955   6.984   5.304
    1   AR   Ar   14   4.729   1.726   6.169
    1   AR   Ar   15   2.963   5.622   9.256
    1   AR   Ar   16   1.029   0.011   6.618
    1   AR   Ar   17   5.549   3.496   0.492
    1   AR   Ar   18   0.036   3.976  -2.916
    1   AR   Ar   19   4.779   5.172  -0.109
    1   AR   Ar   20   6.546   2.913  -2.510
    1   AR   Ar   21   2.589   1.549   2.212
    1   AR   Ar   22   4.849   0.324   2.036
    1   AR   Ar   23   0.649   5.546   0.032
    1   AR   Ar   24   6.173   2.789   4.401
    1   AR   Ar   25   0.995   3.525   5.481
    1   AR   Ar   26   5.800   6.007   5.052
    1   AR   Ar   27   0.880   0.862   0.746
    1   AR   Ar   28   2.904   2.267   4.106
    1   AR   Ar   29   5.353   6.579   7.090
    1   AR   Ar   30   5.924   0.349   3.563
    1   AR   Ar   31   1.022   1.181   6.798
    1   AR   Ar   32   1.178   2.223   6.436
    1   AR   Ar   33   5.533   5.401   0.682
    1   AR   Ar   34   1.524   5.372   3.578
    1   AR   Ar   35   5.941   5.410   2.500
    1   AR   Ar   36   4.138   1.931  -3.972
    1   AR   Ar   37   4.627   3.294   1.233
    1   AR   Ar   38   5.973   4.931   4.564
    1   AR   Ar   39   7.039   3.290   3.914
    1   AR   Ar   40   0.488   4.240   2.148
    1   AR   Ar   41   0.790   1.894   3.689
    1   AR   Ar   42   4.936   4.893   5.342
    1   AR   Ar   43   0.124   3.212   6.208
    1   AR   Ar   44   1.371   4.156   2.923
    1   AR   Ar   45   2.389   4.076   5.148
    1   AR   Ar   46   5.900   5.782   6.685
    1   AR   Ar   47   2.657   3.711   6.555
    1   AR   Ar   48   0.615   3.766   7.509
    1   AR   Ar   49   0.004   2.171   0.239
    1   AR   Ar   50   2.667   4.765   0.551
    1   AR   Ar   51   5.604   3.451   3.161
    1   AR   Ar   52   5.749   3.624  -2.214
    1   AR   Ar   53   4.472   0.192   3.268
    1   AR   Ar   54   5.963   6.747   2.624
    1   AR   Ar   55   6.933   5.048   2.347
    1   AR   Ar   56   6.068   1.868   3.754
    1   AR   Ar   57   4.803   4.991   2.721
    1   AR   Ar   58   1.551   3.595   4.605
    1   AR   Ar   59   4.027   5.209   5.742
    1   AR   Ar   60   1.076   5.101   2.255
    1   AR   Ar   61   6.490   4.806   6.487
    1   AR   Ar   62   6.944   4.177   5.715
    1   AR   Ar   63   1.827   1.351   7.772
    1   AR   Ar   64   0.698   4.978   3.995
    1   AR   Ar   65   4.193   1.147   2.577
    1   AR   Ar   66   1.032   2.193   0.498
    1   AR   Ar   67   4.525   1.409  -1.000
    1   AR   Ar   68   6.436   1.152   1.178
    1   AR   Ar   69   2.632   2.415   1.117
    1   AR   Ar   70   0.061   1.303   2.085
    1   AR   Ar   71   3.008   0.695   2.983
    1   AR   Ar   72   4.420   1.337   1.595
    1   AR   Ar   73   3.260   0.247   3.945
    1   AR   Ar   74   0.906   0.927   3.335
    1   AR   Ar   75   3.158   0.904   5.816
    1   AR   Ar   76   2.702   0.074   1.825
    1   AR   Ar   77   1.249   5.767   6.681
    1   AR   Ar   78   6.593   5.783   5.628
    1   AR   Ar   79   3.826   6.348   4.969
    1   AR   Ar   80   3.538   4.267   6.259
    1   AR   Ar   81   1.566   6.375   1.947
    1   AR   Ar   82   7.056   4.843   1.337
    1   AR   Ar   83   1.750   3.115   0.712
    1   AR   Ar   84   0.899   4.271   0.997
    1   AR   Ar   85   0.501   2.765  -0.854
    1   AR   Ar   86   1.479   5.752   0.964
    1   AR   Ar   87   4.211   2.228   2.519
    1   AR   Ar   88   3.551   4.988   1.588
    1   AR   Ar   89   6.271   2.712   0.942
    1   AR   Ar   90   3.667   0.881   6.802
    1   AR   Ar   91   1.801   1.681   2.970
    1   AR   Ar   92   3.365   3.216   0.971
    1   AR   Ar   93   1.114   1.349   5.574
    1   AR   Ar   94   0.175   6.811   9.707
    1   AR   Ar   95   4.640   0.329   6.709
    1   AR   Ar   96   1.708   0.136   5.823
    1   AR   Ar   97   5.270   1.484  -1.809
    1   AR   Ar   98   1.931   4.476   4.054
    1   AR   Ar   99   5.806   6.659  -0.545
    1   AR   Ar  100   5.915   2.003  -3.263
    1   AR   Ar  101   3.686   5.560   3.001
    1   AR   Ar  102   4.184   2.491   1.556
    1   AR   Ar  103   1.583   3.656   1.800
    1   AR   Ar  104   3.211   0.586  -0.628
    1   AR   Ar  105   2.465   2.455   3.109
    1   AR   Ar  106   4.117   1.200   3.796
    1   AR   Ar  107   0.984   4.618   5.266
    1   AR   Ar  108   2.353   0.628   3.937
    1   AR   Ar  109   2.740   4.941   4.660
    1   AR   Ar  110   2.443   2.972   5.113
    1   AR   Ar  111   3.980   4.133   7.229
    1   AR   Ar  112   6.577   6.627   6.956
    1   AR   Ar  113   6.254   6.122  -1.509
    1   AR   Ar  114   2.957   0.132   0.341
    1   AR   Ar  115   6.464   4.473  -0.594
    1   AR   Ar  116   5.393   1.574   1.218
    1   AR   Ar  117   0.183   4.404   3.237
    1   AR   Ar  118   2.025   6.233   3.636
    1   AR   Ar  119   1.685   2.986   2.777
    1   AR   Ar  120   1.951   0.008   3.029
    1   AR   Ar  121   5.473   4.683   7.131
    1   AR   Ar  122   2.661   4.865   3.508
    1   AR   Ar  123   3.223   2.266   5.368
    1   AR   Ar  124   0.346   6.009   1.157
    1   AR   Ar  125   6.144   4.419   3.442
    1   AR   Ar  126   6.923   1.498   6.909
    1   AR   Ar  127   4.275   3.275   6.055
    1   AR   Ar  128   1.321   4.674   6.970
    1   AR   Ar  129   1.638   5.437   4.595
    1   AR   Ar  130   5.865   0.624  -4.679
    1   AR   Ar  131   4.444   7.061   0.148
    1   AR   Ar  132   1.880   2.144   1.895
    1   AR   Ar  133   4.173   0.179   4.301
    1   AR   Ar  134   3.605   0.950   4.700
    1   AR   Ar  135   5.736   0.628   5.398
    1   AR   Ar  136   4.910   6.404   2.334
    1   AR   Ar  137   2.366   4.607   6.191
    1   AR   Ar  138   5.663   1.553   6.008
    1   AR   Ar  139   6.322   2.449   5.461
    1   AR   Ar  140   4.774   6.463   4.549
    1   AR   Ar  141   3.549   5.185   4.021
    1   AR   Ar  142   3.956   5.779   8.541
    1   AR   Ar  143   5.034   6.459   8.165
    1   AR   Ar  144   0.183   3.019   5.137
    1   AR   Ar  145   4.668   4.631  -1.961
    1   AR   Ar  146   4.156   2.385   3.672
    1   AR   Ar  147   4.460   4.230  -0.023
    1   AR   Ar  148   1.886   5.900  -0.025
    1   AR   Ar  149   6.222   1.834  -0.671
    1   AR   Ar  150   0.896   2.091   2.663
    1   AR   Ar  151   2.925   2.992   2.320
    1   AR   Ar  152   0.525   0.953  -0.279
    1   AR   Ar  153   5.161   1.209   2.978
    1   AR   Ar  154   5.076   3.079   3.917
    1   AR   Ar  155   5.373   3.524   5.708
    1   AR   Ar  156   3.355   4.066   2.958
    1   AR   Ar  157   3.248   5.774   6.523
    1   AR   Ar  158   1.504   2.416   7.444
    1   AR   Ar  159   4.306   0.337   5.590
    1   AR   Ar  160   1.139   1.671   4.585
    1   AR   Ar  161   5.168   4.604   4.053
    1   AR   Ar  162   3.478   5.517  -1.258
    1   AR   Ar  163   6.601   4.044   2.373
    1   AR   Ar  164   2.342   5.699   2.694
    1   AR   Ar  165   3.748   4.289   0.625
    1   AR   Ar  166   3.432   3.444   5.389
    1   AR   Ar  167   5.784   6.873   4.490
    1   AR   Ar  168   6.029   4.495  -2.582
    1   AR   Ar  169   4.425   3.246   3.105
    1   AR   Ar  170   2.640   2.694   6.739
    1   AR   Ar  171   4.697   5.525   3.733
    1   AR   Ar  172   3.954   2.910   4.518
    1   AR   Ar  173   0.524   2.299   7.764
    1   AR   Ar  174   2.881   6.189   4.318
    1   AR   Ar  175   1.162   0.166   7.775
    1   AR   Ar  176   3.322   3.023   3.337
    1   AR   Ar  177   0.471   3.670  -1.869
    1   AR   Ar  178   2.231   6.545   1.011
    1   AR   Ar  179   3.480   5.924   0.942
    1   AR   Ar  180   4.890   5.929  -6.959
    1   AR   Ar  181   7.010   6.129   2.056
    1   AR   Ar  182   0.770   6.126   2.734
    1   AR   Ar  183   5.297   5.328   1.716
    1   AR   Ar  184   3.500   4.979  -0.257
    1   AR   Ar  185   3.281   4.117   4.372
    1   AR   Ar  186   3.050   6.511   3.160
    1   AR   Ar  187   3.890   6.342   3.860
    1   AR   Ar  188   3.255   0.979   1.642
    1   AR   Ar  189   6.180   3.088   6.613
    1   AR   Ar  190   1.640   0.735   4.744
    1   AR   Ar  191   4.292   5.396   4.730
    1   AR   Ar  192   3.817   2.688   6.722
    1   AR   Ar  193   3.140   6.195   1.950
    1   AR   Ar  194   4.623   6.169  -0.413
    1   AR   Ar  195   6.295   1.869   1.837
    1   AR   Ar  196   4.553   6.718   1.196
    1   AR   Ar  197   4.710   3.097  -0.073
    1   AR   Ar  198   6.690   6.806   0.309
    1   AR   Ar  199   0.320   0.391   2.603
    1   AR   Ar  200   5.197   2.154   0.361
    1   AR   Ar  201   6.830   5.299   3.794
    1   AR   Ar  202   5.641   1.205   4.443
    1   AR   Ar  203   7.042   0.178   3.471
    1   AR   Ar  204   4.703   5.398   7.675
    1   AR   Ar  205   5.292   1.883   2.133
    1   AR   Ar  206   6.250   0.513   6.580
    1   AR   Ar  207   0.418   3.958   4.687
    1   AR   Ar  208   0.780   6.340   3.790
    1   AR   Ar  209   5.393   2.809  -1.455
    1   AR   Ar  210   2.851   2.330  -0.012
    1   AR   Ar  211   6.624   3.374   0.175
    1   AR   Ar  212   6.073   4.455   0.587
    1   AR   Ar  213   3.948   1.578   0.649
    1   AR   Ar  214   5.407   4.029   1.310
    1   AR   Ar  215   0.312   2.978   2.405
    1   AR   Ar  216   1.921   2.915  -0.644
    1   AR   Ar  217   4.761   2.118   4.466
    1   AR   Ar  218   4.381   2.317   5.423
    1   AR   Ar  219   4.422   4.091   2.018
    1   AR   Ar  220   4.615   4.756   1.244
    1   AR   Ar  221   6.363   6.370   3.658
    1   AR   Ar  222   5.938   6.529   5.897
    1   AR   Ar  223   0.201   0.804   5.958
    1   AR   Ar  224   4.584   1.269   5.110
    1   AR   Ar  225   6.293   2.950   2.469
    1   AR   Ar  226   2.374   3.495   4.020
    1   AR   Ar  227   1.732   2.642   4.174
    1   AR   Ar  228   5.862   0.600   2.498
    1   AR   Ar  229   5.522   3.953  -0.549
    1   AR   Ar  230   4.129   4.591   3.501
    1   AR   Ar  231   5.039   2.346   3.093
    1   AR   Ar  232   5.417   3.175   1.790
    1   AR   Ar  233   6.610   1.301   2.969
    1   AR   Ar  234   6.506   3.908   4.737
    1   AR   Ar  235   6.988   0.963   4.470
    1   AR   Ar  236   4.460   4.136   4.638
    1   AR   Ar  237   3.997   1.796   7.305
    1   AR   Ar  238   4.815   4.645   6.268
    1   AR   Ar  239   1.433   4.961  10.108
    1   AR   Ar  240   1.745   3.250   6.708
    1   AR   Ar  241   0.906   6.684  -0.464
    1   AR   Ar  242   6.031   6.287   1.409
    1   AR   Ar  243   4.250   5.822   1.722
    1   AR   Ar  244   5.341   6.595   0.462
    1   AR   Ar  245   3.118   1.669   3.210
    1   AR   Ar  246   5.156   5.903  -1.307
    1   AR   Ar  247   6.846   3.590   1.462
    1   AR   Ar  248   5.708   5.562  -0.464
    1   AR   Ar  249   4.025   0.496   0.870
    1   AR   Ar  250   5.155   6.504   3.554
    1   AR   Ar  251   5.472   3.568   4.710
    1   AR   Ar  252   2.545   4.879   1.837
    1   AR   Ar  253   5.088   2.614   6.781
    1   AR   Ar  254   3.974   4.471  13.428
    1   AR   Ar  255   4.984   5.924   9.309
    1   AR   Ar  256   5.790   5.464   3.628
    7.12000  7.12000 12.00000
Argon-slab step 5880
  256
    1   AR   Ar    1   4.104   2.611  -0.944
    1   AR   Ar    2   5.653   0.436   1.159
    1   AR   Ar    3   4.635   3.691  -1.133
    1   AR   Ar    4   2.324   0.995   1.358
    1   AR   Ar    5   6.655   5.675   0.069
    1   AR   Ar    6   1.486   1.059   1.931
    1   AR   Ar    7   5.493   4.165   2.274
    1   AR   Ar    8   5.917   2.812  -0.331
    1   AR   Ar    9   7.015   5.571   4.746
    1   AR   Ar   10   5.989   4.949   5.680
    1   AR   Ar   11   0.823   7.008   4.645
    1   AR   Ar   12   0.008   2.125   4.549
    1   AR   Ar   13   6.985   6.988   5.320
    1   AR   Ar   14   4.700   1.731   6.159
    1   AR   Ar   15   2.955   5.641   9.261
    1   AR   Ar   16   1.014   7.120   6.612
    1   AR   Ar   17   5.562   3.499   0.489
    1   AR   Ar   18   0.041   3.948  -2.912
    1   AR   Ar   19   4.759   5.207  -0.126
    1   AR   Ar   20   6.521   2.890  -2.508
    1   AR   Ar   21   2.573   1.556   2.200
    1   AR   Ar   22   4.823   0.346   2.042
    1   AR   Ar   23   0.713   5.529   0.002
    1   AR   Ar   24   6.134   2.781   4.397
    1   AR   Ar   25   0.985   3.536   5.510
    1   AR   Ar   26   5.805   6.031   5.042
    1   AR   Ar   27   0.891   0.861   0.739
    1   AR   Ar   28   2.924   2.234   4.097
    1   AR   Ar   29   5.347   6.579   7.107
    1   AR   Ar   30   5.908   0.367   3.557
    1   AR   Ar   31   1.022   1.183   6.798
    1   AR   Ar   32   1.168   2.217   6.430
    1   AR   Ar   33   5.523   5.391   0.657
    1   AR   Ar   34   1.521   5.364   3.574
    1   AR   Ar   35   5.903   5.392   2.471
    1   AR   Ar   36   4.162   1.948  -3.978
    1   AR   Ar   37   4.596   3.280   1.213
    1   AR   Ar   38   5.981   4.916   4.554
    1   AR   Ar   39   7.022   3.268   3.892
    1   AR   Ar   40   0.513   4.254   2.141
    1   AR   Ar   41   0.816   1.903   3.675
    1   AR   Ar   42   4.942   4.887   5.329
    1   AR   Ar   43   0.112   3.198   6.188
    1   AR   Ar   44   1.390   4.123   2.926
    1   AR   Ar   45   2.379   4.082   5.130
    1   AR   Ar   46   5.896   5.803   6.651
    1   AR   Ar   47   2.647   3.697   6.529
    1   AR   Ar   48   0.632   3.777   7.517
    1   AR   Ar   49   0.014   2.192   0.233
    1   AR   Ar   50   2.652   4.767   0.552
    1   AR   Ar   51   5.606   3.446   3.161
    1   AR   Ar   52   5.758   3.599  -2.218
    1   AR   Ar   53   4.472   0.210   3.276
    1   AR   Ar   54   5.962   6.754   2.618
    1   AR   Ar   55   6.945   5.025   2.365
    1   AR   Ar   56   6.038   1.874   3.781
    1   AR   Ar   57   4.776   4.978   2.701
    1   AR   Ar   58   1.575   3.618   4.581
    1   AR   Ar   59   4.056   5.220   5.733
    1   AR   Ar   60   1.063   5.097   2.251
    1   AR   Ar   61   6.472   4.804   6.496
    1   AR   Ar   62   6.951   4.178   5.714
    1   AR   Ar   63   1.824   1.334   7.768
    1   AR   Ar   64   0.698   4.984   3.997
    1   AR   Ar   65   4.199   1.122   2.578
    1   AR   Ar   66   1.006   2.211   0.497
    1   AR   Ar   67   4.536   1.401  -1.019
    1   AR   Ar   68   6.396   1.158   1.181
    1   AR   Ar   69   2.618   2.407   1.128
    1   AR   Ar   70   0.075   1.302   2.067
    1   AR   Ar   71   2.981   0.693   2.957
    1   AR   Ar   72   4.408   1.312   1.580
    1   AR   Ar   73   3.253   0.247   3.935
    1   AR   Ar   74   0.881   0.922   3.341
    1   AR   Ar   75   3.159   0.939   5.858
    1   AR   Ar   76   2.704   0.082   1.840
    1   AR   Ar   77   1.259   5.789   6.704
    1   AR   Ar   78   6.563   5.805   5.661
    1   AR   Ar   79   3.804   6.323   4.959
    1   AR   Ar   80   3.560   4.282   6.286
    1   AR   Ar   81   1.589   6.417   1.946
    1   AR   Ar   82   7.032   4.835   1.343
    1   AR   Ar   83   1.762   3.112   0.692
    1   AR   Ar   84   0.896   4.244   1.006
    1   AR   Ar   85   0.515   2.761  -0.879
    1   AR   Ar   86   1.474   5.770   0.999
    1   AR   Ar   87   4.233   2.242   2.510
    1   AR   Ar   88   3.569   4.957   1.564
    1   AR   Ar   89   6.294   2.701   0.935
    1   AR   Ar   90   3.665   0.863   6.814
    1   AR   Ar   91   1.786   1.644   3.004
    1   AR   Ar   92   3.349   3.232   0.964
    1   AR   Ar   93   1.142   1.349   5.564
    1   AR   Ar   94   0.162   6.798   9.725
    1   AR   Ar   95   4.649   0.333   6.715
    1   AR   Ar   96   1.679   0.130   5.843
    1   AR   Ar   97   5.292   1.520  -1.804
    1   AR   Ar   98   1.917   4.454   4.035
    1   AR   Ar   99   5.796   6.631  -0.536
    1   AR   Ar  100   5.872   1.984  -3.281
    1   AR   Ar  101   3.716   5.566   3.010
    1   AR   Ar  102   4.179   2.513   1.550
    1   AR   Ar  103   1.582   3.644   1.768
    1   AR   Ar  104   3.202   0.565  -0.632
    1   AR   Ar  105   2.440   2.463   3.130
    1   AR   Ar  106   4.156   1.165   3.812
    1   AR   Ar  107   0.996   4.617   5.276
    1   AR   Ar  108   2.370   0.614   3.927
    1   AR   Ar  109   2.712   4.936   4.687
    1   AR   Ar  110   2.420   2.963   5.085
    1   AR   Ar  111   3.982   4.135   7.208
    1   AR   Ar  112   6.586   6.643   6.962
    1   AR   Ar  113   6.246   6.141  -1.514
    1   AR   Ar  114   2.990   0.157   0.350
    1   AR   Ar  115   6.439   4.471  -0.621
    1   AR   Ar  116   5.407   1.566   1.214
    1   AR   Ar  117   0.156   4.412   3.262
    1   AR   Ar  118   2.050   6.215   3.620
    1   AR   Ar  119   1.646   2.956   2.773
    1   AR   Ar  120   1.930   0.015   3.029
    1   AR   Ar  121   5.502   4.711   7.146
    1   AR   Ar  122   2.658   4.848   3.553
    1   AR   Ar  123   3.214   2.246   5.393
    1   AR   Ar  124   0.331   6.041   1.144
    1   AR   Ar  125   6.143   4.437   3.460
    1   AR   Ar  126   6.959   1.487   6.914
    1   AR   Ar  127   4.287   3.314   6.053
    1   AR   Ar  128   1.364   4.710   6.972
    1   AR   Ar  129   1.661   5.458   4.576
    1   AR   Ar  130   5.870   0.616  -4.681
    1   AR   Ar  131   4.435   7.057   0.167
    1   AR   Ar  132   1.889   2.151   1.897
    1   AR   Ar  133   4.175   0.194   4.297
    1   AR   Ar  134   3.613   0.968   4.703
    1   AR   Ar  135   5.719   0.603   5.365
    1   AR   Ar  136   4.863   6.393   2.339
    1   AR   Ar  137   2.317   4.633   6.199
    1   AR   Ar  138   5.683   1.547   6.000
    1   AR   Ar  139   6.293   2.426   5.472
    1   AR   Ar  140   4.777   6.450   4.592
    1   AR   Ar  141   3.539   5.188   3.961
    1   AR   Ar  142   3.951   5.771   8.518
    1   AR   Ar  143   5.044   6.496   8.185
    1   AR   Ar  144   0.175   2.984   5.122
    1   AR   Ar  145   4.652   4.642  -1.945
    1   AR   Ar  146   4.156   2.381   3.666
    1   AR   Ar  147   4.455   4.233  -0.039
    1   AR   Ar  148   1.895   5.915  -0.011
    1   AR   Ar  149   6.180   1.835  -0.700
    1   AR   Ar  150   0.914   2.118   2.693
    1   AR   Ar  151   2.933   2.989   2.324
    1   AR   Ar  152   0.509   0.934  -0.335
    1   AR   Ar  153   5.150   1.242   3.008
    1   AR   Ar  154   5.094   3.102   3.895
    1   AR   Ar  155   5.369   3.509   5.709
    1   AR   Ar  156   3.372   4.093   2.960
    1   AR   Ar  157   3.242   5.745   6.523
    1   AR   Ar  158   1.480   2.403   7.439
    1   AR   Ar  159   4.276   0.315   5.570
    1   AR   Ar  160   1.132   1.701   4.590
    1   AR   Ar  161   5.162   4.605   4.069
    1   AR   Ar  162   3.490   5.504  -1.252
    1   AR   Ar  163   6.613   4.034   2.339
    1   AR   Ar  164   2.327   5.720   2.708
    1   AR   Ar  165   3.754   4.307   0.622
    1   AR   Ar  166   3.429   3.437   5.380
    1   AR   Ar  167   5.821   6.864   4.503
    1   AR   Ar  168   6.024   4.478  -2.542
    1   AR   Ar  169   4.433   3.250   3.095
    1   AR   Ar  170   2.617   2.654   6.719
    1   AR   Ar  171   4.677   5.517   3.716
    1   AR   Ar  172   3.945   2.903   4.560
    1   AR   Ar  173   0.529   2.316   7.744
    1   AR   Ar  174   2.846   6.160   4.305
    1   AR   Ar  175   1.181   0.139   7.761
    1   AR   Ar  176   3.332   3.029   3.334
    1   AR   Ar  177   0.479   3.652  -1.886
    1   AR   Ar  178   2.207   6.550   1.034
    1   AR   Ar  179   3.490   5.919   0.986
    1   AR   Ar  180   4.886   5.926  -6.953
    1   AR   Ar  181   7.009   6.135   2.056
    1   AR   Ar  182   0.766   6.088   2.728
    1   AR   Ar  183   5.278   5.317   1.722
    1   AR   Ar  184   3.495   4.985  -0.259
    1   AR   Ar  185   3.283   4.137   4.398
    1   AR   Ar  186   3.051   6.496   3.165
    1   AR   Ar  187   3.898   6.324   3.844
    1   AR   Ar  188   3.274   0.953   1.670
    1   AR   Ar  189   6.177   3.120   6.623
    1   AR   Ar  190   1.673   0.728   4.773
    1   AR   Ar  191   4.286   5.377   4.726
    1   AR   Ar  192   3.814   2.669   6.744
    1   AR   Ar  193   3.133   6.205   1.957
    1   AR   Ar  194   4.637   6.191  -0.411
    1   AR   Ar  195   6.280   1.868   1.864
    1   AR   Ar  196   4.526   6.705   1.197
    1   AR   Ar  197   4.717   3.144  -0.094
    1   AR   Ar  198   6.667   6.807   0.301
    1   AR   Ar  199   0.369   0.377   2.587
    1   AR   Ar  200   5.191   2.193   0.372
    1   AR   Ar  201   6.819   5.292   3.760
    1   AR   Ar  202   5.686   1.210   4.448
    1   AR   Ar  203   7.044   0.190   3.472
    1   AR   Ar  204   4.679   5.421   7.668
    1   AR   Ar  205   5.276   1.899   2.137
    1   AR   Ar  206   6.228   0.492   6.580
    1   AR   Ar  207   0.417   3.995   4.672
    1   AR   Ar  208   0.781   6.359   3.764
    1   AR   Ar  209   5.432   2.839  -1.430
    1   AR   Ar  210   2.879   2.342   0.002
    1   AR   Ar  211   6.609   3.400   0.171
    1   AR   Ar  212   6.101   4.446   0.582
    1   AR   Ar  213   3.934   1.576   0.656
    1   AR   Ar  214   5.406   4.052   1.309
    1   AR   Ar  215   0.319   2.978   2.429
    1   AR   Ar  216   1.928   2.883  -0.629
    1   AR   Ar  217   4.734   2.106   4.470
    1   AR   Ar  218   4.354   2.340   5.420
    1   AR   Ar  219   4.410   4.111   2.033
    1   AR   Ar  220   4.590   4.772   1.226
    1   AR   Ar  221   6.353   6.373   3.654
    1   AR   Ar  222   5.974   6.534   5.901
    1   AR   Ar  223   0.156   0.799   5.957
    1   AR   Ar  224   4.603   1.275   5.114
    1   AR   Ar  225   6.284   2.941   2.444
    1   AR   Ar  226   2.369   3.503   3.996
    1   AR   Ar  227   1.720   2.664   4.147
    1   AR   Ar  228   5.882   0.592   2.484
    1   AR   Ar  229   5.513   3.953  -0.542
    1   AR   Ar  230   4.106   4.571   3.510
    1   AR   Ar  231   5.055   2.371   3.103
    1   AR   Ar  232   5.411   3.120   1.796
    1   AR   Ar  233   6.639   1.319   2.950
    1   AR   Ar  234   6.502   3.929   4.706
    1   AR   Ar  235   6.978   0.997   4.488
    1   AR   Ar  236   4.460   4.128   4.625
    1   AR   Ar  237   3.973   1.812   7.295
    1   AR   Ar  238   4.776   4.658   6.291
    1   AR   Ar  239   1.446   4.957  10.148
    1   AR   Ar  240   1.748   3.248   6.751
    1   AR   Ar  241   0.886   6.689  -0.476
    1   AR   Ar  242   6.016   6.284   1.448
    1   AR   Ar  243   4.270   5.797   1.684
    1   AR   Ar  244   5.420   6.584   0.436
    1   AR   Ar  245   3.099   1.665   3.239
    1   AR   Ar  246   5.111   5.915  -1.302
    1   AR   Ar  247   6.848   3.573   1.465
    1   AR   Ar  248   5.700   5.577  -0.451
    1   AR   Ar  249   4.068   0.495   0.881
    1   AR   Ar  250   5.171   6.515   3.550
    1   AR   Ar  251   5.480   3.577   4.724
    1   AR   Ar  252   2.507   4.889   1.830
    1   AR   Ar  253   5.071   2.616   6.779
    1   AR   Ar  254   3.972   4.458  13.434
    1   AR   Ar  255   4.982   5.943   9.308
    1   AR   Ar  256   5.798   5.434   3.628
    7.12000  7.12000 12.00000
Argon-slab step 5885
  256
    1   AR   Ar    1   4.096   2.636  -0.930
    1   AR   Ar    2   5.628   0.443   1.170
    1   AR   Ar    3   4.623   3.712  -1.083
    1   AR   Ar    4   2.314   0.959   1.345
    1   AR   Ar    5   6.652   5.684   0.059
    1   AR   Ar    6   1.494   1.053   1.941
    1   AR   Ar    7   5.485   4.164   2.240
    1   AR   Ar    8   5.946   2.813  -0.358
    1   AR   Ar    9   7.041   5.545   4.747
    1   AR   Ar   10   5.974   4.939   5.708
    1   AR   Ar   11   0.802   7.032   4.653
    1   AR   Ar   12   0.032   2.137   4.552
    1   AR   Ar   13   7.014   6.993   5.335
    1   AR   Ar   14   4.665   1.733   6.156
    1   AR   Ar   15   2.948   5.659   9.266
    1   AR   Ar   16   0.994   7.109   6.610
    1   AR   Ar   17   5.575   3.496   0.480
    1   AR   Ar   18   0.046   3.919  -2.906
    1   AR   Ar   19   4.738   5.242  -0.142
    1   AR   Ar   20   6.497   2.866  -2.507
    1   AR   Ar   21   2.570   1.555   2.199
    1   AR   Ar   22   4.799   0.370   2.047
    1   AR   Ar   23   0.778   5.514  -0.026
    1   AR   Ar   24   6.113   2.805   4.401
    1   AR   Ar   25   0.977   3.549   5.542
    1   AR   Ar   26   5.802   6.042   5.025
    1   AR   Ar   27   0.902   0.861   0.732
    1   AR   Ar   28   2.944   2.206   4.093
    1   AR   Ar   29   5.341   6.582   7.124
    1   AR   Ar   30   5.891   0.385   3.551
    1   AR   Ar   31   1.021   1.183   6.798
    1   AR   Ar   32   1.157   2.212   6.422
    1   AR   Ar   33   5.514   5.383   0.633
    1   AR   Ar   34   1.516   5.356   3.559
    1   AR   Ar   35   5.856   5.368   2.445
    1   AR   Ar   36   4.186   1.966  -3.984
    1   AR   Ar   37   4.570   3.291   1.177
    1   AR   Ar   38   5.998   4.904   4.551
    1   AR   Ar   39   7.006   3.247   3.871
    1   AR   Ar   40   0.515   4.235   2.108
    1   AR   Ar   41   0.762   1.900   3.658
    1   AR   Ar   42   4.960   4.878   5.306
    1   AR   Ar   43   0.101   3.184   6.169
    1   AR   Ar   44   1.418   4.089   2.924
    1   AR   Ar   45   2.369   4.083   5.115
    1   AR   Ar   46   5.895   5.818   6.617
    1   AR   Ar   47   2.643   3.685   6.503
    1   AR   Ar   48   0.649   3.787   7.524
    1   AR   Ar   49   0.016   2.214   0.226
    1   AR   Ar   50   2.638   4.770   0.553
    1   AR   Ar   51   5.617   3.450   3.147
    1   AR   Ar   52   5.763   3.562  -2.215
    1   AR   Ar   53   4.472   0.228   3.281
    1   AR   Ar   54   5.961   6.745   2.615
    1   AR   Ar   55   6.958   5.009   2.388
    1   AR   Ar   56   6.009   1.886   3.801
    1   AR   Ar   57   4.751   4.965   2.681
    1   AR   Ar   58   1.587   3.642   4.566
    1   AR   Ar   59   4.078   5.233   5.728
    1   AR   Ar   60   1.055   5.107   2.242
    1   AR   Ar   61   6.462   4.801   6.521
    1   AR   Ar   62   6.959   4.178   5.712
    1   AR   Ar   63   1.840   1.365   7.751
    1   AR   Ar   64   0.689   4.978   4.021
    1   AR   Ar   65   4.201   1.095   2.582
    1   AR   Ar   66   0.991   2.224   0.498
    1   AR   Ar   67   4.547   1.394  -1.036
    1   AR   Ar   68   6.362   1.158   1.177
    1   AR   Ar   69   2.617   2.392   1.147
    1   AR   Ar   70   0.091   1.302   2.046
    1   AR   Ar   71   2.953   0.684   2.927
    1   AR   Ar   72   4.398   1.288   1.564
    1   AR   Ar   73   3.256   0.238   3.921
    1   AR   Ar   74   0.858   0.915   3.346
    1   AR   Ar   75   3.161   0.974   5.898
    1   AR   Ar   76   2.703   0.088   1.856
    1   AR   Ar   77   1.270   5.812   6.727
    1   AR   Ar   78   6.550   5.817   5.700
    1   AR   Ar   79   3.777   6.299   4.950
    1   AR   Ar   80   3.580   4.297   6.307
    1   AR   Ar   81   1.612   6.459   1.946
    1   AR   Ar   82   6.994   4.830   1.329
    1   AR   Ar   83   1.755   3.137   0.704
    1   AR   Ar   84   0.891   4.217   1.017
    1   AR   Ar   85   0.528   2.756  -0.902
    1   AR   Ar   86   1.465   5.786   1.035
    1   AR   Ar   87   4.251   2.253   2.507
    1   AR   Ar   88   3.586   4.925   1.541
    1   AR   Ar   89   6.316   2.690   0.929
    1   AR   Ar   90   3.664   0.844   6.825
    1   AR   Ar   91   1.773   1.602   3.038
    1   AR   Ar   92   3.334   3.248   0.958
    1   AR   Ar   93   1.168   1.347   5.559
    1   AR   Ar   94   0.150   6.784   9.744
    1   AR   Ar   95   4.663   0.342   6.725
    1   AR   Ar   96   1.662   0.123   5.855
    1   AR   Ar   97   5.315   1.557  -1.798
    1   AR   Ar   98   1.890   4.430   4.023
    1   AR   Ar   99   5.788   6.604  -0.531
    1   AR   Ar  100   5.830   1.966  -3.298
    1   AR   Ar  101   3.748   5.573   3.015
    1   AR   Ar  102   4.162   2.514   1.544
    1   AR   Ar  103   1.582   3.626   1.743
    1   AR   Ar  104   3.195   0.545  -0.637
    1   AR   Ar  105   2.419   2.470   3.154
    1   AR   Ar  106   4.196   1.133   3.824
    1   AR   Ar  107   1.010   4.619   5.286
    1   AR   Ar  108   2.370   0.607   3.915
    1   AR   Ar  109   2.682   4.943   4.713
    1   AR   Ar  110   2.396   2.954   5.054
    1   AR   Ar  111   3.988   4.136   7.192
    1   AR   Ar  112   6.594   6.658   6.967
    1   AR   Ar  113   6.238   6.161  -1.518
    1   AR   Ar  114   3.024   0.181   0.363
    1   AR   Ar  115   6.416   4.471  -0.647
    1   AR   Ar  116   5.421   1.553   1.202
    1   AR   Ar  117   0.128   4.418   3.284
    1   AR   Ar  118   2.075   6.205   3.606
    1   AR   Ar  119   1.591   2.931   2.756
    1   AR   Ar  120   1.910   0.023   3.028
    1   AR   Ar  121   5.532   4.739   7.160
    1   AR   Ar  122   2.662   4.836   3.587
    1   AR   Ar  123   3.207   2.226   5.417
    1   AR   Ar  124   0.319   6.072   1.124
    1   AR   Ar  125   6.142   4.453   3.477
    1   AR   Ar  126   6.996   1.475   6.917
    1   AR   Ar  127   4.301   3.301   6.061
    1   AR   Ar  128   1.407   4.744   6.974
    1   AR   Ar  129   1.686   5.480   4.562
    1   AR   Ar  130   5.875   0.608  -4.684
    1   AR   Ar  131   4.418   7.066   0.158
    1   AR   Ar  132   1.882   2.171   1.895
    1   AR   Ar  133   4.188   0.204   4.299
    1   AR   Ar  134   3.632   0.998   4.713
    1   AR   Ar  135   5.702   0.577   5.333
    1   AR   Ar  136   4.818   6.383   2.345
    1   AR   Ar  137   2.267   4.661   6.205
    1   AR   Ar  138   5.710   1.539   5.990
    1   AR   Ar  139   6.264   2.403   5.483
    1   AR   Ar  140   4.784   6.436   4.634
    1   AR   Ar  141   3.519   5.207   3.917
    1   AR   Ar  142   3.947   5.762   8.495
    1   AR   Ar  143   5.053   6.531   8.205
    1   AR   Ar  144   0.162   2.952   5.106
    1   AR   Ar  145   4.638   4.652  -1.928
    1   AR   Ar  146   4.156   2.374   3.656
    1   AR   Ar  147   4.462   4.230  -0.066
    1   AR   Ar  148   1.904   5.931   0.002
    1   AR   Ar  149   6.139   1.835  -0.730
    1   AR   Ar  150   0.930   2.147   2.715
    1   AR   Ar  151   2.941   2.986   2.326
    1   AR   Ar  152   0.493   0.916  -0.391
    1   AR   Ar  153   5.141   1.275   3.040
    1   AR   Ar  154   5.102   3.115   3.889
    1   AR   Ar  155   5.364   3.495   5.720
    1   AR   Ar  156   3.386   4.119   2.961
    1   AR   Ar  157   3.237   5.716   6.521
    1   AR   Ar  158   1.465   2.390   7.433
    1   AR   Ar  159   4.246   0.294   5.550
    1   AR   Ar  160   1.129   1.732   4.600
    1   AR   Ar  161   5.153   4.605   4.077
    1   AR   Ar  162   3.502   5.490  -1.246
    1   AR   Ar  163   6.619   4.024   2.313
    1   AR   Ar  164   2.312   5.740   2.721
    1   AR   Ar  165   3.746   4.326   0.631
    1   AR   Ar  166   3.423   3.432   5.371
    1   AR   Ar  167   5.859   6.865   4.511
    1   AR   Ar  168   6.023   4.474  -2.521
    1   AR   Ar  169   4.439   3.258   3.080
    1   AR   Ar  170   2.596   2.609   6.700
    1   AR   Ar  171   4.656   5.510   3.697
    1   AR   Ar  172   3.934   2.898   4.604
    1   AR   Ar  173   0.525   2.332   7.725
    1   AR   Ar  174   2.814   6.130   4.294
    1   AR   Ar  175   1.189   0.118   7.750
    1   AR   Ar  176   3.344   3.035   3.334
    1   AR   Ar  177   0.476   3.626  -1.905
    1   AR   Ar  178   2.186   6.556   1.056
    1   AR   Ar  179   3.497   5.914   1.025
    1   AR   Ar  180   4.883   5.924  -6.946
    1   AR   Ar  181   7.003   6.141   2.062
    1   AR   Ar  182   0.763   6.049   2.720
    1   AR   Ar  183   5.255   5.308   1.722
    1   AR   Ar  184   3.491   5.004  -0.225
    1   AR   Ar  185   3.272   4.152   4.414
    1   AR   Ar  186   3.063   6.499   3.186
    1   AR   Ar  187   3.907   6.305   3.829
    1   AR   Ar  188   3.307   0.928   1.699
    1   AR   Ar  189   6.172   3.151   6.630
    1   AR   Ar  190   1.698   0.725   4.799
    1   AR   Ar  191   4.279   5.360   4.714
    1   AR   Ar  192   3.809   2.653   6.765
    1   AR   Ar  193   3.156   6.174   1.982
    1   AR   Ar  194   4.652   6.216  -0.407
    1   AR   Ar  195   6.267   1.877   1.898
    1   AR   Ar  196   4.502   6.692   1.200
    1   AR   Ar  197   4.723   3.190  -0.115
    1   AR   Ar  198   6.644   6.806   0.294
    1   AR   Ar  199   0.420   0.364   2.562
    1   AR   Ar  200   5.184   2.235   0.382
    1   AR   Ar  201   6.805   5.289   3.741
    1   AR   Ar  202   5.728   1.209   4.459
    1   AR   Ar  203   7.042   0.201   3.482
    1   AR   Ar  204   4.655   5.444   7.660
    1   AR   Ar  205   5.276   1.901   2.161
    1   AR   Ar  206   6.206   0.472   6.578
    1   AR   Ar  207   0.418   4.030   4.653
    1   AR   Ar  208   0.782   6.378   3.738
    1   AR   Ar  209   5.471   2.869  -1.402
    1   AR   Ar  210   2.908   2.355   0.018
    1   AR   Ar  211   6.598   3.430   0.168
    1   AR   Ar  212   6.131   4.437   0.576
    1   AR   Ar  213   3.920   1.575   0.662
    1   AR   Ar  214   5.402   4.081   1.301
    1   AR   Ar  215   0.324   2.981   2.453
    1   AR   Ar  216   1.934   2.850  -0.612
    1   AR   Ar  217   4.714   2.095   4.471
    1   AR   Ar  218   4.322   2.367   5.416
    1   AR   Ar  219   4.398   4.129   2.049
    1   AR   Ar  220   4.560   4.786   1.201
    1   AR   Ar  221   6.343   6.377   3.651
    1   AR   Ar  222   6.002   6.560   5.913
    1   AR   Ar  223   0.118   0.786   5.959
    1   AR   Ar  224   4.623   1.279   5.119
    1   AR   Ar  225   6.276   2.931   2.419
    1   AR   Ar  226   2.370   3.486   3.988
    1   AR   Ar  227   1.709   2.680   4.117
    1   AR   Ar  228   5.900   0.601   2.467
    1   AR   Ar  229   5.502   3.951  -0.533
    1   AR   Ar  230   4.098   4.540   3.514
    1   AR   Ar  231   5.079   2.396   3.115
    1   AR   Ar  232   5.411   3.060   1.808
    1   AR   Ar  233   6.676   1.337   2.926
    1   AR   Ar  234   6.495   3.949   4.675
    1   AR   Ar  235   6.968   1.030   4.506
    1   AR   Ar  236   4.455   4.117   4.616
    1   AR   Ar  237   3.951   1.823   7.286
    1   AR   Ar  238   4.737   4.667   6.325
    1   AR   Ar  239   1.460   4.953  10.187
    1   AR   Ar  240   1.742   3.244   6.794
    1   AR   Ar  241   0.866   6.694  -0.486
    1   AR   Ar  242   5.999   6.280   1.488
    1   AR   Ar  243   4.289   5.769   1.649
    1   AR   Ar  244   5.498   6.572   0.414
    1   AR   Ar  245   3.085   1.662   3.267
    1   AR   Ar  246   5.068   5.927  -1.300
    1   AR   Ar  247   6.852   3.553   1.462
    1   AR   Ar  248   5.693   5.590  -0.438
    1   AR   Ar  249   4.104   0.503   0.903
    1   AR   Ar  250   5.188   6.526   3.546
    1   AR   Ar  251   5.488   3.592   4.732
    1   AR   Ar  252   2.469   4.900   1.824
    1   AR   Ar  253   5.096   2.603   6.787
    1   AR   Ar  254   3.971   4.446  13.440
    1   AR   Ar  255   4.980   5.961   9.306
    1   AR   Ar  256   5.822   5.405   3.623
    7.12000  7.12000 12.00000
Argon-slab step 5890
  256
    1   AR   Ar    1   4.089   2.661  -0.916
    1   AR   Ar    2   5.597   0.444   1.184
    1   AR   Ar    3   4.610   3.733  -1.035
    1   AR   Ar    4   2.306   0.921   1.324
    1   AR   Ar    5   6.649   5.692   0.050
    1   AR   Ar    6   1.497   1.049   1.956
    1   AR   Ar    7   5.491   4.173   2.275
    1   AR   Ar    8   5.965   2.814  -0.366
    1   AR   Ar    9   7.068   5.518   4.750
    1   AR   Ar   10   5.947   4.930   5.720
    1   AR   Ar   11   0.782   7.058   4.661
    1   AR   Ar   12   0.045   2.143   4.549
    1   AR   Ar   13   7.040   6.996   5.350
    1   AR   Ar   14   4.628   1.733   6.157
    1   AR   Ar   15   2.941   5.678   9.271
    1   AR   Ar   16   0.970   7.098   6.612
    1   AR   Ar   17   5.587   3.488   0.469
    1   AR   Ar   18   0.048   3.890  -2.900
    1   AR   Ar   19   4.715   5.272  -0.155
    1   AR   Ar   20   6.495   2.849  -2.494
    1   AR   Ar   21   2.578   1.545   2.207
    1   AR   Ar   22   4.776   0.392   2.052
    1   AR   Ar   23   0.842   5.501  -0.052
    1   AR   Ar   24   6.105   2.815   4.401
    1   AR   Ar   25   0.969   3.561   5.574
    1   AR   Ar   26   5.794   6.037   5.008
    1   AR   Ar   27   0.913   0.862   0.726
    1   AR   Ar   28   2.964   2.185   4.099
    1   AR   Ar   29   5.335   6.586   7.141
    1   AR   Ar   30   5.874   0.403   3.545
    1   AR   Ar   31   1.021   1.179   6.797
    1   AR   Ar   32   1.202   2.251   6.393
    1   AR   Ar   33   5.506   5.376   0.610
    1   AR   Ar   34   1.496   5.355   3.542
    1   AR   Ar   35   5.825   5.344   2.440
    1   AR   Ar   36   4.210   1.983  -3.991
    1   AR   Ar   37   4.554   3.323   1.129
    1   AR   Ar   38   6.020   4.896   4.553
    1   AR   Ar   39   6.989   3.227   3.852
    1   AR   Ar   40   0.513   4.204   2.068
    1   AR   Ar   41   0.703   1.900   3.648
    1   AR   Ar   42   4.985   4.864   5.280
    1   AR   Ar   43   0.090   3.170   6.150
    1   AR   Ar   44   1.446   4.055   2.923
    1   AR   Ar   45   2.358   4.077   5.104
    1   AR   Ar   46   5.893   5.826   6.585
    1   AR   Ar   47   2.643   3.674   6.474
    1   AR   Ar   48   0.668   3.798   7.530
    1   AR   Ar   49   0.010   2.237   0.216
    1   AR   Ar   50   2.626   4.774   0.556
    1   AR   Ar   51   5.638   3.459   3.119
    1   AR   Ar   52   5.762   3.518  -2.209
    1   AR   Ar   53   4.473   0.245   3.281
    1   AR   Ar   54   5.961   6.724   2.614
    1   AR   Ar   55   6.970   5.000   2.414
    1   AR   Ar   56   5.984   1.906   3.812
    1   AR   Ar   57   4.725   4.954   2.662
    1   AR   Ar   58   1.583   3.662   4.562
    1   AR   Ar   59   4.093   5.249   5.728
    1   AR   Ar   60   1.059   5.152   2.212
    1   AR   Ar   61   6.463   4.795   6.562
    1   AR   Ar   62   6.968   4.179   5.707
    1   AR   Ar   63   1.854   1.395   7.733
    1   AR   Ar   64   0.683   4.956   4.025
    1   AR   Ar   65   4.197   1.069   2.590
    1   AR   Ar   66   1.002   2.213   0.502
    1   AR   Ar   67   4.556   1.388  -1.052
    1   AR   Ar   68   6.340   1.157   1.170
    1   AR   Ar   69   2.639   2.368   1.176
    1   AR   Ar   70   0.111   1.301   2.021
    1   AR   Ar   71   2.925   0.671   2.895
    1   AR   Ar   72   4.389   1.268   1.550
    1   AR   Ar   73   3.270   0.222   3.903
    1   AR   Ar   74   0.837   0.905   3.352
    1   AR   Ar   75   3.163   1.011   5.934
    1   AR   Ar   76   2.701   0.090   1.875
    1   AR   Ar   77   1.280   5.836   6.749
    1   AR   Ar   78   6.556   5.813   5.738
    1   AR   Ar   79   3.749   6.277   4.940
    1   AR   Ar   80   3.596   4.315   6.314
    1   AR   Ar   81   1.634   6.499   1.951
    1   AR   Ar   82   6.955   4.823   1.313
    1   AR   Ar   83   1.749   3.142   0.715
    1   AR   Ar   84   0.887   4.189   1.030
    1   AR   Ar   85   0.541   2.752  -0.925
    1   AR   Ar   86   1.454   5.800   1.071
    1   AR   Ar   87   4.266   2.260   2.513
    1   AR   Ar   88   3.599   4.894   1.520
    1   AR   Ar   89   6.335   2.677   0.924
    1   AR   Ar   90   3.655   0.836   6.843
    1   AR   Ar   91   1.765   1.550   3.059
    1   AR   Ar   92   3.321   3.264   0.953
    1   AR   Ar   93   1.194   1.342   5.561
    1   AR   Ar   94   0.137   6.771   9.763
    1   AR   Ar   95   4.679   0.350   6.734
    1   AR   Ar   96   1.680   0.099   5.841
    1   AR   Ar   97   5.340   1.595  -1.793
    1   AR   Ar   98   1.853   4.410   4.015
    1   AR   Ar   99   5.783   6.582  -0.537
    1   AR   Ar  100   5.788   1.948  -3.315
    1   AR   Ar  101   3.782   5.583   3.011
    1   AR   Ar  102   4.170   2.509   1.584
    1   AR   Ar  103   1.582   3.602   1.723
    1   AR   Ar  104   3.189   0.525  -0.643
    1   AR   Ar  105   2.399   2.477   3.181
    1   AR   Ar  106   4.238   1.108   3.831
    1   AR   Ar  107   1.027   4.623   5.297
    1   AR   Ar  108   2.352   0.608   3.901
    1   AR   Ar  109   2.652   4.962   4.735
    1   AR   Ar  110   2.373   2.945   5.022
    1   AR   Ar  111   3.999   4.135   7.184
    1   AR   Ar  112   6.602   6.671   6.971
    1   AR   Ar  113   6.227   6.180  -1.520
    1   AR   Ar  114   3.058   0.204   0.379
    1   AR   Ar  115   6.394   4.472  -0.672
    1   AR   Ar  116   5.430   1.541   1.186
    1   AR   Ar  117   0.101   4.420   3.305
    1   AR   Ar  118   2.097   6.202   3.592
    1   AR   Ar  119   1.536   2.914   2.737
    1   AR   Ar  120   1.890   0.032   3.026
    1   AR   Ar  121   5.561   4.769   7.172
    1   AR   Ar  122   2.669   4.827   3.611
    1   AR   Ar  123   3.201   2.207   5.441
    1   AR   Ar  124   0.309   6.101   1.098
    1   AR   Ar  125   6.143   4.461   3.492
    1   AR   Ar  126   7.034   1.462   6.918
    1   AR   Ar  127   4.315   3.289   6.068
    1   AR   Ar  128   1.451   4.776   6.975
    1   AR   Ar  129   1.711   5.501   4.552
    1   AR   Ar  130   5.880   0.601  -4.687
    1   AR   Ar  131   4.402   7.075   0.137
    1   AR   Ar  132   1.862   2.200   1.892
    1   AR   Ar  133   4.210   0.208   4.308
    1   AR   Ar  134   3.647   1.030   4.726
    1   AR   Ar  135   5.685   0.550   5.303
    1   AR   Ar  136   4.775   6.373   2.354
    1   AR   Ar  137   2.217   4.690   6.210
    1   AR   Ar  138   5.739   1.529   5.979
    1   AR   Ar  139   6.235   2.381   5.494
    1   AR   Ar  140   4.793   6.420   4.674
    1   AR   Ar  141   3.498   5.237   3.893
    1   AR   Ar  142   3.944   5.755   8.472
    1   AR   Ar  143   5.061   6.564   8.225
    1   AR   Ar  144   0.149   2.929   5.094
    1   AR   Ar  145   4.624   4.661  -1.909
    1   AR   Ar  146   4.151   2.367   3.643
    1   AR   Ar  147   4.475   4.224  -0.098
    1   AR   Ar  148   1.912   5.947   0.017
    1   AR   Ar  149   6.097   1.834  -0.760
    1   AR   Ar  150   0.944   2.171   2.724
    1   AR   Ar  151   2.948   2.982   2.325
    1   AR   Ar  152   0.478   0.898  -0.446
    1   AR   Ar  153   5.134   1.307   3.076
    1   AR   Ar  154   5.099   3.120   3.899
    1   AR   Ar  155   5.358   3.479   5.741
    1   AR   Ar  156   3.393   4.140   2.957
    1   AR   Ar  157   3.233   5.685   6.518
    1   AR   Ar  158   1.462   2.378   7.425
    1   AR   Ar  159   4.215   0.273   5.528
    1   AR   Ar  160   1.127   1.763   4.610
    1   AR   Ar  161   5.144   4.605   4.078
    1   AR   Ar  162   3.516   5.477  -1.240
    1   AR   Ar  163   6.618   4.014   2.296
    1   AR   Ar  164   2.299   5.758   2.729
    1   AR   Ar  165   3.732   4.344   0.646
    1   AR   Ar  166   3.416   3.428   5.364
    1   AR   Ar  167   5.896   6.880   4.511
    1   AR   Ar  168   6.024   4.479  -2.507
    1   AR   Ar  169   4.442   3.269   3.062
    1   AR   Ar  170   2.578   2.562   6.679
    1   AR   Ar  171   4.635   5.504   3.678
    1   AR   Ar  172   3.922   2.896   4.642
    1   AR   Ar  173   0.510   2.347   7.707
    1   AR   Ar  174   2.790   6.098   4.286
    1   AR   Ar  175   1.154   0.120   7.757
    1   AR   Ar  176   3.355   3.043   3.336
    1   AR   Ar  177   0.473   3.599  -1.923
    1   AR   Ar  178   2.171   6.565   1.076
    1   AR   Ar  179   3.501   5.909   1.057
    1   AR   Ar  180   4.879   5.921  -6.940
    1   AR   Ar  181   6.993   6.146   2.072
    1   AR   Ar  182   0.762   6.010   2.711
    1   AR   Ar  183   5.223   5.301   1.707
    1   AR   Ar  184   3.487   5.022  -0.189
    1   AR   Ar  185   3.240   4.165   4.416
    1   AR   Ar  186   3.073   6.503   3.206
    1   AR   Ar  187   3.918   6.287   3.817
    1   AR   Ar  188   3.347   0.906   1.728
    1   AR   Ar  189   6.167   3.183   6.635
    1   AR   Ar  190   1.700   0.742   4.810
    1   AR   Ar  191   4.269   5.344   4.694
    1   AR   Ar  192   3.802   2.646   6.779
    1   AR   Ar  193   3.178   6.143   2.011
    1   AR   Ar  194   4.667   6.246  -0.402
    1   AR   Ar  195   6.259   1.890   1.936
    1   AR   Ar  196   4.481   6.679   1.203
    1   AR   Ar  197   4.731   3.233  -0.137
    1   AR   Ar  198   6.619   6.803   0.287
    1   AR   Ar  199   0.471   0.349   2.533
    1   AR   Ar  200   5.178   2.280   0.391
    1   AR   Ar  201   6.795   5.290   3.751
    1   AR   Ar  202   5.766   1.201   4.476
    1   AR   Ar  203   7.037   0.212   3.494
    1   AR   Ar  204   4.633   5.469   7.652
    1   AR   Ar  205   5.275   1.902   2.191
    1   AR   Ar  206   6.183   0.453   6.573
    1   AR   Ar  207   0.421   4.062   4.632
    1   AR   Ar  208   0.783   6.395   3.714
    1   AR   Ar  209   5.509   2.899  -1.373
    1   AR   Ar  210   2.937   2.369   0.035
    1   AR   Ar  211   6.590   3.464   0.166
    1   AR   Ar  212   6.162   4.430   0.568
    1   AR   Ar  213   3.904   1.576   0.667
    1   AR   Ar  214   5.394   4.113   1.279
    1   AR   Ar  215   0.328   2.988   2.475
    1   AR   Ar  216   1.940   2.817  -0.594
    1   AR   Ar  217   4.699   2.084   4.471
    1   AR   Ar  218   4.289   2.396   5.415
    1   AR   Ar  219   4.386   4.145   2.066
    1   AR   Ar  220   4.530   4.798   1.168
    1   AR   Ar  221   6.334   6.382   3.646
    1   AR   Ar  222   6.018   6.584   5.931
    1   AR   Ar  223   0.084   0.769   5.962
    1   AR   Ar  224   4.644   1.279   5.126
    1   AR   Ar  225   6.270   2.921   2.393
    1   AR   Ar  226   2.386   3.467   3.973
    1   AR   Ar  227   1.696   2.691   4.087
    1   AR   Ar  228   5.917   0.623   2.446
    1   AR   Ar  229   5.490   3.947  -0.520
    1   AR   Ar  230   4.109   4.502   3.517
    1   AR   Ar  231   5.111   2.418   3.128
    1   AR   Ar  232   5.410   3.000   1.820
    1   AR   Ar  233   6.711   1.354   2.907
    1   AR   Ar  234   6.488   3.968   4.643
    1   AR   Ar  235   6.958   1.063   4.522
    1   AR   Ar  236   4.444   4.102   4.610
    1   AR   Ar  237   3.931   1.825   7.281
    1   AR   Ar  238   4.699   4.672   6.363
    1   AR   Ar  239   1.473   4.950  10.226
    1   AR   Ar  240   1.729   3.241   6.837
    1   AR   Ar  241   0.846   6.698  -0.495
    1   AR   Ar  242   5.982   6.275   1.528
    1   AR   Ar  243   4.311   5.737   1.618
    1   AR   Ar  244   5.571   6.558   0.405
    1   AR   Ar  245   3.075   1.655   3.288
    1   AR   Ar  246   5.027   5.936  -1.302
    1   AR   Ar  247   6.857   3.530   1.452
    1   AR   Ar  248   5.687   5.598  -0.426
    1   AR   Ar  249   4.133   0.519   0.933
    1   AR   Ar  250   5.207   6.536   3.543
    1   AR   Ar  251   5.494   3.612   4.734
    1   AR   Ar  252   2.430   4.912   1.818
    1   AR   Ar  253   5.120   2.589   6.793
    1   AR   Ar  254   3.975   4.435  13.450
    1   AR   Ar  255   4.978   5.980   9.302
    1   AR   Ar  256   5.831   5.384   3.616
    7.12000  7.12000 12.00000
Argon-slab step 5895
  256
    1   AR   Ar    1   4.084   2.687  -0.901
    1   AR   Ar    2   5.561   0.440   1.198
    1   AR   Ar    3   4.593   3.753  -0.997
    1   AR   Ar    4   2.300   0.885   1.299
    1   AR   Ar    5   6.640   5.684   0.083
    1   AR   Ar    6   1.497   1.047   1.976
    1   AR   Ar    7   5.498   4.185   2.320
    1   AR   Ar    8   5.980   2.817  -0.368
    1   AR   Ar    9   7.094   5.491   4.754
    1   AR   Ar   10   5.917   4.921   5.723
    1   AR   Ar   11   0.763   7.084   4.668
    1   AR   Ar   12   0.025   2.145   4.532
    1   AR   Ar   13   7.052   7.007   5.353
    1   AR   Ar   14   4.592   1.731   6.162
    1   AR   Ar   15   2.954   5.704   9.263
    1   AR   Ar   16   0.942   7.088   6.618
    1   AR   Ar   17   5.597   3.475   0.458
    1   AR   Ar   18   0.049   3.860  -2.894
    1   AR   Ar   19   4.689   5.294  -0.166
    1   AR   Ar   20   6.511   2.836  -2.474
    1   AR   Ar   21   2.578   1.537   2.216
    1   AR   Ar   22   4.757   0.409   2.055
    1   AR   Ar   23   0.906   5.489  -0.077
    1   AR   Ar   24   6.115   2.804   4.397
    1   AR   Ar   25   0.961   3.573   5.605
    1   AR   Ar   26   5.784   6.019   4.996
    1   AR   Ar   27   0.891   0.865   0.735
    1   AR   Ar   28   2.983   2.173   4.117
    1   AR   Ar   29   5.330   6.592   7.157
    1   AR   Ar   30   5.856   0.420   3.540
    1   AR   Ar   31   1.021   1.170   6.796
    1   AR   Ar   32   1.247   2.289   6.363
    1   AR   Ar   33   5.497   5.368   0.590
    1   AR   Ar   34   1.478   5.353   3.517
    1   AR   Ar   35   5.809   5.322   2.453
    1   AR   Ar   36   4.234   2.000  -3.997
    1   AR   Ar   37   4.541   3.364   1.077
    1   AR   Ar   38   6.045   4.893   4.559
    1   AR   Ar   39   6.973   3.207   3.833
    1   AR   Ar   40   0.514   4.170   2.027
    1   AR   Ar   41   0.641   1.901   3.646
    1   AR   Ar   42   4.964   4.854   5.268
    1   AR   Ar   43   0.078   3.156   6.133
    1   AR   Ar   44   1.472   4.023   2.921
    1   AR   Ar   45   2.350   4.043   5.071
    1   AR   Ar   46   5.890   5.826   6.559
    1   AR   Ar   47   2.646   3.664   6.443
    1   AR   Ar   48   0.661   3.797   7.523
    1   AR   Ar   49   7.118   2.261   0.204
    1   AR   Ar   50   2.616   4.778   0.561
    1   AR   Ar   51   5.662   3.473   3.085
    1   AR   Ar   52   5.757   3.474  -2.201
    1   AR   Ar   53   4.477   0.259   3.277
    1   AR   Ar   54   5.947   6.727   2.600
    1   AR   Ar   55   6.983   4.997   2.442
    1   AR   Ar   56   5.960   1.932   3.813
    1   AR   Ar   57   4.752   4.958   2.653
    1   AR   Ar   58   1.563   3.669   4.572
    1   AR   Ar   59   4.102   5.266   5.729
    1   AR   Ar   60   1.066   5.194   2.180
    1   AR   Ar   61   6.469   4.789   6.610
    1   AR   Ar   62   6.976   4.179   5.700
    1   AR   Ar   63   1.868   1.424   7.715
    1   AR   Ar   64   0.678   4.924   4.017
    1   AR   Ar   65   4.189   1.047   2.601
    1   AR   Ar   66   1.019   2.202   0.508
    1   AR   Ar   67   4.566   1.382  -1.068
    1   AR   Ar   68   6.333   1.153   1.161
    1   AR   Ar   69   2.663   2.346   1.205
    1   AR   Ar   70   0.128   1.291   1.984
    1   AR   Ar   71   2.895   0.656   2.861
    1   AR   Ar   72   4.386   1.257   1.543
    1   AR   Ar   73   3.290   0.202   3.883
    1   AR   Ar   74   0.817   0.894   3.359
    1   AR   Ar   75   3.165   1.049   5.965
    1   AR   Ar   76   2.696   0.087   1.896
    1   AR   Ar   77   1.290   5.861   6.770
    1   AR   Ar   78   6.577   5.794   5.771
    1   AR   Ar   79   3.719   6.255   4.930
    1   AR   Ar   80   3.606   4.335   6.308
    1   AR   Ar   81   1.654   6.539   1.962
    1   AR   Ar   82   6.917   4.814   1.297
    1   AR   Ar   83   1.743   3.108   0.718
    1   AR   Ar   84   0.881   4.162   1.043
    1   AR   Ar   85   0.554   2.749  -0.948
    1   AR   Ar   86   1.440   5.810   1.108
    1   AR   Ar   87   4.290   2.246   2.511
    1   AR   Ar   88   3.602   4.865   1.508
    1   AR   Ar   89   6.352   2.664   0.920
    1   AR   Ar   90   3.641   0.835   6.865
    1   AR   Ar   91   1.763   1.485   3.058
    1   AR   Ar   92   3.309   3.280   0.947
    1   AR   Ar   93   1.219   1.336   5.569
    1   AR   Ar   94   0.125   6.757   9.781
    1   AR   Ar   95   4.695   0.358   6.741
    1   AR   Ar   96   1.695   0.057   5.807
    1   AR   Ar   97   5.365   1.635  -1.787
    1   AR   Ar   98   1.812   4.401   4.002
    1   AR   Ar   99   5.783   6.555  -0.552
    1   AR   Ar  100   5.746   1.930  -3.331
    1   AR   Ar  101   3.817   5.595   2.994
    1   AR   Ar  102   4.182   2.504   1.622
    1   AR   Ar  103   1.581   3.578   1.705
    1   AR   Ar  104   3.183   0.506  -0.649
    1   AR   Ar  105   2.411   2.472   3.191
    1   AR   Ar  106   4.263   1.108   3.839
    1   AR   Ar  107   1.046   4.629   5.307
    1   AR   Ar  108   2.324   0.614   3.886
    1   AR   Ar  109   2.623   4.992   4.753
    1   AR   Ar  110   2.351   2.938   4.988
    1   AR   Ar  111   4.017   4.131   7.188
    1   AR   Ar  112   6.608   6.682   6.974
    1   AR   Ar  113   6.216   6.198  -1.520
    1   AR   Ar  114   3.093   0.227   0.400
    1   AR   Ar  115   6.389   4.484  -0.686
    1   AR   Ar  116   5.429   1.533   1.169
    1   AR   Ar  117   0.074   4.418   3.323
    1   AR   Ar  118   2.109   6.209   3.580
    1   AR   Ar  119   1.494   2.916   2.718
    1   AR   Ar  120   1.872   0.040   3.023
    1   AR   Ar  121   5.588   4.800   7.184
    1   AR   Ar  122   2.669   4.814   3.626
    1   AR   Ar  123   3.195   2.189   5.463
    1   AR   Ar  124   0.299   6.129   1.070
    1   AR   Ar  125   6.145   4.455   3.506
    1   AR   Ar  126   7.072   1.449   6.919
    1   AR   Ar  127   4.330   3.280   6.075
    1   AR   Ar  128   1.493   4.807   6.978
    1   AR   Ar  129   1.737   5.521   4.544
    1   AR   Ar  130   5.885   0.593  -4.689
    1   AR   Ar  131   4.387   7.084   0.114
    1   AR   Ar  132   1.835   2.232   1.889
    1   AR   Ar  133   4.239   0.203   4.325
    1   AR   Ar  134   3.660   1.063   4.742
    1   AR   Ar  135   5.668   0.520   5.276
    1   AR   Ar  136   4.734   6.364   2.364
    1   AR   Ar  137   2.169   4.718   6.212
    1   AR   Ar  138   5.768   1.518   5.968
    1   AR   Ar  139   6.208   2.362   5.503
    1   AR   Ar  140   4.804   6.404   4.711
    1   AR   Ar  141   3.483   5.276   3.886
    1   AR   Ar  142   3.940   5.747   8.451
    1   AR   Ar  143   5.089   6.576   8.217
    1   AR   Ar  144   0.149   2.926   5.086
    1   AR   Ar  145   4.611   4.671  -1.889
    1   AR   Ar  146   4.142   2.359   3.627
    1   AR   Ar  147   4.488   4.224  -0.128
    1   AR   Ar  148   1.920   5.962   0.034
    1   AR   Ar  149   6.055   1.831  -0.791
    1   AR   Ar  150   0.947   2.177   2.723
    1   AR   Ar  151   2.958   2.967   2.321
    1   AR   Ar  152   0.462   0.879  -0.499
    1   AR   Ar  153   5.111   1.281   3.038
    1   AR   Ar  154   5.105   3.124   3.899
    1   AR   Ar  155   5.352   3.462   5.767
    1   AR   Ar  156   3.390   4.156   2.945
    1   AR   Ar  157   3.229   5.652   6.515
    1   AR   Ar  158   1.469   2.365   7.415
    1   AR   Ar  159   4.184   0.253   5.505
    1   AR   Ar  160   1.126   1.795   4.618
    1   AR   Ar  161   5.137   4.608   4.073
    1   AR   Ar  162   3.530   5.463  -1.232
    1   AR   Ar  163   6.611   4.005   2.288
    1   AR   Ar  164   2.288   5.770   2.727
    1   AR   Ar  165   3.714   4.358   0.660
    1   AR   Ar  166   3.404   3.427   5.360
    1   AR   Ar  167   5.934   6.906   4.505
    1   AR   Ar  168   6.026   4.488  -2.493
    1   AR   Ar  169   4.443   3.283   3.042
    1   AR   Ar  170   2.561   2.514   6.659
    1   AR   Ar  171   4.618   5.497   3.658
    1   AR   Ar  172   3.908   2.896   4.667
    1   AR   Ar  173   0.485   2.362   7.692
    1   AR   Ar  174   2.776   6.063   4.285
    1   AR   Ar  175   1.119   0.124   7.763
    1   AR   Ar  176   3.367   3.051   3.340
    1   AR   Ar  177   0.469   3.570  -1.941
    1   AR   Ar  178   2.161   6.577   1.092
    1   AR   Ar  179   3.499   5.905   1.078
    1   AR   Ar  180   4.876   5.919  -6.933
    1   AR   Ar  181   6.985   6.149   2.078
    1   AR   Ar  182   0.760   5.974   2.704
    1   AR   Ar  183   5.189   5.292   1.680
    1   AR   Ar  184   3.486   5.041  -0.153
    1   AR   Ar  185   3.210   4.174   4.415
    1   AR   Ar  186   3.081   6.506   3.223
    1   AR   Ar  187   3.931   6.273   3.808
    1   AR   Ar  188   3.391   0.885   1.758
    1   AR   Ar  189   6.114   3.179   6.581
    1   AR   Ar  190   1.701   0.758   4.820
    1   AR   Ar  191   4.258   5.330   4.668
    1   AR   Ar  192   3.794   2.658   6.787
    1   AR   Ar  193   3.198   6.113   2.046
    1   AR   Ar  194   4.682   6.281  -0.394
    1   AR   Ar  195   6.255   1.906   1.973
    1   AR   Ar  196   4.463   6.667   1.206
    1   AR   Ar  197   4.740   3.266  -0.154
    1   AR   Ar  198   6.612   6.816   0.292
    1   AR   Ar  199   0.522   0.333   2.501
    1   AR   Ar  200   5.173   2.328   0.399
    1   AR   Ar  201   6.796   5.293   3.761
    1   AR   Ar  202   5.800   1.186   4.497
    1   AR   Ar  203   7.032   0.223   3.508
    1   AR   Ar  204   4.612   5.493   7.643
    1   AR   Ar  205   5.267   1.886   2.243
    1   AR   Ar  206   6.160   0.435   6.565
    1   AR   Ar  207   0.426   4.092   4.610
    1   AR   Ar  208   0.785   6.413   3.691
    1   AR   Ar  209   5.546   2.927  -1.342
    1   AR   Ar  210   2.965   2.383   0.053
    1   AR   Ar  211   6.588   3.500   0.166
    1   AR   Ar  212   6.195   4.423   0.559
    1   AR   Ar  213   3.886   1.579   0.670
    1   AR   Ar  214   5.383   4.145   1.251
    1   AR   Ar  215   0.329   2.999   2.497
    1   AR   Ar  216   1.946   2.784  -0.575
    1   AR   Ar  217   4.699   2.070   4.464
    1   AR   Ar  218   4.260   2.422   5.422
    1   AR   Ar  219   4.373   4.159   2.080
    1   AR   Ar  220   4.508   4.804   1.127
    1   AR   Ar  221   6.326   6.387   3.640
    1   AR   Ar  222   6.025   6.591   5.948
    1   AR   Ar  223   0.051   0.753   5.968
    1   AR   Ar  224   4.666   1.276   5.135
    1   AR   Ar  225   6.269   2.910   2.370
    1   AR   Ar  226   2.412   3.448   3.953
    1   AR   Ar  227   1.681   2.696   4.055
    1   AR   Ar  228   5.932   0.652   2.423
    1   AR   Ar  229   5.480   3.943  -0.506
    1   AR   Ar  230   4.133   4.465   3.527
    1   AR   Ar  231   5.147   2.438   3.141
    1   AR   Ar  232   5.406   2.940   1.830
    1   AR   Ar  233   6.746   1.381   2.897
    1   AR   Ar  234   6.482   3.983   4.611
    1   AR   Ar  235   6.947   1.094   4.538
    1   AR   Ar  236   4.426   4.083   4.608
    1   AR   Ar  237   3.914   1.814   7.284
    1   AR   Ar  238   4.663   4.675   6.404
    1   AR   Ar  239   1.486   4.946  10.265
    1   AR   Ar  240   1.714   3.239   6.880
    1   AR   Ar  241   0.825   6.701  -0.503
    1   AR   Ar  242   5.963   6.269   1.567
    1   AR   Ar  243   4.330   5.704   1.595
    1   AR   Ar  244   5.638   6.541   0.413
    1   AR   Ar  245   3.070   1.640   3.297
    1   AR   Ar  246   4.991   5.943  -1.308
    1   AR   Ar  247   6.864   3.503   1.435
    1   AR   Ar  248   5.681   5.597  -0.416
    1   AR   Ar  249   4.157   0.535   0.965
    1   AR   Ar  250   5.225   6.546   3.539
    1   AR   Ar  251   5.498   3.638   4.734
    1   AR   Ar  252   2.392   4.925   1.811
    1   AR   Ar  253   5.143   2.576   6.796
    1   AR   Ar  254   3.988   4.428  13.465
    1   AR   Ar  255   4.979   5.941   9.337
    1   AR   Ar  256   5.821   5.379   3.606
    7.12000  7.12000 12.00000
Argon-slab step 5900
  256
    1   AR   Ar    1   4.080   2.714  -0.886
    1   AR   Ar    2   5.522   0.432   1.213
    1   AR   Ar    3   4.572   3.772  -0.981
    1   AR   Ar    4   2.297   0.850   1.271
    1   AR   Ar    5   6.631   5.675   0.117
    1   AR   Ar    6   1.495   1.046   2.000
    1   AR   Ar    7   5.505   4.198   2.364
    1   AR   Ar    8   5.993   2.819  -0.367
    1   AR   Ar    9   7.119   5.463   4.761
    1   AR   Ar   10   5.887   4.912   5.724
    1   AR   Ar   11   0.757   7.056   4.665
    1   AR   Ar   12   0.001   2.136   4.506
    1   AR   Ar   13   7.058   7.016   5.353
    1   AR   Ar   14   4.555   1.728   6.169
    1   AR   Ar   15   2.967   5.730   9.255
    1   AR   Ar   16   0.932   7.082   6.615
    1   AR   Ar   17   5.605   3.463   0.460
    1   AR   Ar   18   0.048   3.831  -2.888
    1   AR   Ar   19   4.661   5.309  -0.175
    1   AR   Ar   20   6.531   2.819  -2.456
    1   AR   Ar   21   2.566   1.508   2.230
    1   AR   Ar   22   4.744   0.420   2.056
    1   AR   Ar   23   0.969   5.479  -0.101
    1   AR   Ar   24   6.127   2.794   4.395
    1   AR   Ar   25   0.953   3.585   5.634
    1   AR   Ar   26   5.775   5.993   4.986
    1   AR   Ar   27   0.869   0.868   0.744
    1   AR   Ar   28   3.002   2.171   4.147
    1   AR   Ar   29   5.325   6.597   7.171
    1   AR   Ar   30   5.839   0.437   3.534
    1   AR   Ar   31   1.022   1.161   6.793
    1   AR   Ar   32   1.292   2.328   6.331
    1   AR   Ar   33   5.488   5.360   0.574
    1   AR   Ar   34   1.461   5.351   3.486
    1   AR   Ar   35   5.801   5.300   2.476
    1   AR   Ar   36   4.259   2.018  -4.003
    1   AR   Ar   37   4.555   3.393   1.068
    1   AR   Ar   38   6.069   4.897   4.567
    1   AR   Ar   39   6.957   3.189   3.815
    1   AR   Ar   40   0.515   4.136   1.991
    1   AR   Ar   41   0.577   1.902   3.650
    1   AR   Ar   42   4.912   4.844   5.263
    1   AR   Ar   43   0.065   3.142   6.117
    1   AR   Ar   44   1.498   3.991   2.920
    1   AR   Ar   45   2.346   4.009   5.043
    1   AR   Ar   46   5.911   5.809   6.561
    1   AR   Ar   47   2.651   3.655   6.410
    1   AR   Ar   48   0.642   3.788   7.507
    1   AR   Ar   49   7.102   2.285   0.190
    1   AR   Ar   50   2.606   4.783   0.566
    1   AR   Ar   51   5.689   3.486   3.050
    1   AR   Ar   52   5.749   3.435  -2.194
    1   AR   Ar   53   4.482   0.268   3.269
    1   AR   Ar   54   5.932   6.728   2.587
    1   AR   Ar   55   6.996   4.997   2.468
    1   AR   Ar   56   5.941   1.952   3.813
    1   AR   Ar   57   4.792   4.968   2.648
    1   AR   Ar   58   1.529   3.661   4.591
    1   AR   Ar   59   4.106   5.286   5.732
    1   AR   Ar   60   1.076   5.227   2.141
    1   AR   Ar   61   6.480   4.783   6.657
    1   AR   Ar   62   6.985   4.180   5.692
    1   AR   Ar   63   1.881   1.451   7.695
    1   AR   Ar   64   0.674   4.894   4.012
    1   AR   Ar   65   4.171   1.030   2.615
    1   AR   Ar   66   1.039   2.191   0.515
    1   AR   Ar   67   4.574   1.378  -1.082
    1   AR   Ar   68   6.342   1.146   1.154
    1   AR   Ar   69   2.687   2.323   1.233
    1   AR   Ar   70   0.138   1.266   1.934
    1   AR   Ar   71   2.873   0.648   2.852
    1   AR   Ar   72   4.391   1.266   1.550
    1   AR   Ar   73   3.312   0.181   3.862
    1   AR   Ar   74   0.798   0.882   3.367
    1   AR   Ar   75   3.166   1.088   5.992
    1   AR   Ar   76   2.690   0.080   1.919
    1   AR   Ar   77   1.300   5.888   6.791
    1   AR   Ar   78   6.608   5.765   5.799
    1   AR   Ar   79   3.688   6.233   4.918
    1   AR   Ar   80   3.612   4.357   6.290
    1   AR   Ar   81   1.670   6.579   1.981
    1   AR   Ar   82   6.881   4.806   1.284
    1   AR   Ar   83   1.738   3.073   0.720
    1   AR   Ar   84   0.876   4.135   1.053
    1   AR   Ar   85   0.566   2.745  -0.970
    1   AR   Ar   86   1.422   5.818   1.144
    1   AR   Ar   87   4.316   2.221   2.532
    1   AR   Ar   88   3.592   4.842   1.509
    1   AR   Ar   89   6.367   2.651   0.915
    1   AR   Ar   90   3.630   0.832   6.890
    1   AR   Ar   91   1.762   1.420   3.056
    1   AR   Ar   92   3.310   3.297   0.952
    1   AR   Ar   93   1.241   1.330   5.582
    1   AR   Ar   94   0.112   6.744   9.800
    1   AR   Ar   95   4.711   0.367   6.748
    1   AR   Ar   96   1.710   0.016   5.773
    1   AR   Ar   97   5.392   1.676  -1.781
    1   AR   Ar   98   1.771   4.404   3.981
    1   AR   Ar   99   5.786   6.520  -0.572
    1   AR   Ar  100   5.704   1.913  -3.346
    1   AR   Ar  101   3.853   5.609   2.964
    1   AR   Ar  102   4.190   2.505   1.632
    1   AR   Ar  103   1.580   3.555   1.689
    1   AR   Ar  104   3.178   0.487  -0.656
    1   AR   Ar  105   2.420   2.468   3.200
    1   AR   Ar  106   4.283   1.121   3.847
    1   AR   Ar  107   1.067   4.636   5.317
    1   AR   Ar  108   2.294   0.621   3.869
    1   AR   Ar  109   2.597   5.026   4.770
    1   AR   Ar  110   2.330   2.930   4.953
    1   AR   Ar  111   4.040   4.125   7.200
    1   AR   Ar  112   6.614   6.690   6.976
    1   AR   Ar  113   6.203   6.215  -1.519
    1   AR   Ar  114   3.129   0.249   0.423
    1   AR   Ar  115   6.409   4.510  -0.684
    1   AR   Ar  116   5.415   1.533   1.155
    1   AR   Ar  117   0.050   4.409   3.338
    1   AR   Ar  118   2.108   6.225   3.573
    1   AR   Ar  119   1.488   2.932   2.706
    1   AR   Ar  120   1.854   0.049   3.018
    1   AR   Ar  121   5.611   4.833   7.197
    1   AR   Ar  122   2.660   4.798   3.635
    1   AR   Ar  123   3.188   2.172   5.485
    1   AR   Ar  124   0.290   6.156   1.041
    1   AR   Ar  125   6.147   4.435   3.518
    1   AR   Ar  126   7.110   1.435   6.919
    1   AR   Ar  127   4.333   3.304   6.089
    1   AR   Ar  128   1.531   4.836   6.985
    1   AR   Ar  129   1.760   5.543   4.535
    1   AR   Ar  130   5.890   0.586  -4.692
    1   AR   Ar  131   4.369   7.100   0.094
    1   AR   Ar  132   1.805   2.266   1.889
    1   AR   Ar  133   4.271   0.192   4.349
    1   AR   Ar  134   3.671   1.096   4.759
    1   AR   Ar  135   5.650   0.488   5.255
    1   AR   Ar  136   4.694   6.356   2.375
    1   AR   Ar  137   2.125   4.745   6.208
    1   AR   Ar  138   5.772   1.511   5.955
    1   AR   Ar  139   6.207   2.349   5.476
    1   AR   Ar  140   4.813   6.389   4.746
    1   AR   Ar  141   3.477   5.319   3.892
    1   AR   Ar  142   3.937   5.741   8.431
    1   AR   Ar  143   5.115   6.586   8.209
    1   AR   Ar  144   0.201   2.954   5.072
    1   AR   Ar  145   4.598   4.680  -1.868
    1   AR   Ar  146   4.132   2.350   3.610
    1   AR   Ar  147   4.497   4.240  -0.147
    1   AR   Ar  148   1.927   5.978   0.052
    1   AR   Ar  149   6.011   1.828  -0.824
    1   AR   Ar  150   0.933   2.152   2.715
    1   AR   Ar  151   2.971   2.944   2.314
    1   AR   Ar  152   0.447   0.860  -0.551
    1   AR   Ar  153   5.089   1.250   3.008
    1   AR   Ar  154   5.111   3.128   3.902
    1   AR   Ar  155   5.347   3.445   5.797
    1   AR   Ar  156   3.380   4.169   2.928
    1   AR   Ar  157   3.227   5.619   6.510
    1   AR   Ar  158   1.482   2.352   7.405
    1   AR   Ar  159   4.153   0.234   5.481
    1   AR   Ar  160   1.125   1.829   4.624
    1   AR   Ar  161   5.131   4.611   4.065
    1   AR   Ar  162   3.546   5.448  -1.224
    1   AR   Ar  163   6.599   3.997   2.286
    1   AR   Ar  164   2.280   5.777   2.712
    1   AR   Ar  165   3.693   4.363   0.663
    1   AR   Ar  166   3.389   3.430   5.362
    1   AR   Ar  167   5.971   6.938   4.496
    1   AR   Ar  168   6.029   4.498  -2.480
    1   AR   Ar  169   4.443   3.299   3.020
    1   AR   Ar  170   2.562   2.540   6.665
    1   AR   Ar  171   4.607   5.488   3.639
    1   AR   Ar  172   3.891   2.902   4.669
    1   AR   Ar  173   0.454   2.376   7.676
    1   AR   Ar  174   2.771   6.026   4.292
    1   AR   Ar  175   1.084   0.128   7.768
    1   AR   Ar  176   3.377   3.060   3.346
    1   AR   Ar  177   0.464   3.541  -1.957
    1   AR   Ar  178   2.160   6.591   1.100
    1   AR   Ar  179   3.491   5.901   1.091
    1   AR   Ar  180   4.872   5.916  -6.927
    1   AR   Ar  181   6.996   6.145   2.062
    1   AR   Ar  182   0.756   5.947   2.702
    1   AR   Ar  183   5.173   5.277   1.649
    1   AR   Ar  184   3.485   5.060  -0.118
    1   AR   Ar  185   3.184   4.181   4.411
    1   AR   Ar  186   3.088   6.508   3.236
    1   AR   Ar  187   3.944   6.265   3.805
    1   AR   Ar  188   3.408   0.877   1.777
    1   AR   Ar  189   6.060   3.176   6.526
    1   AR   Ar  190   1.698   0.763   4.833
    1   AR   Ar  191   4.245   5.317   4.638
    1   AR   Ar  192   3.787   2.692   6.794
    1   AR   Ar  193   3.217   6.083   2.086
    1   AR   Ar  194   4.701   6.316  -0.388
    1   AR   Ar  195   6.257   1.920   2.009
    1   AR   Ar  196   4.446   6.656   1.209
    1   AR   Ar  197   4.751   3.280  -0.160
    1   AR   Ar  198   6.617   6.833   0.301
    1   AR   Ar  199   0.572   0.315   2.468
    1   AR   Ar  200   5.168   2.377   0.409
    1   AR   Ar  201   6.806   5.298   3.771
    1   AR   Ar  202   5.834   1.170   4.519
    1   AR   Ar  203   7.026   0.233   3.521
    1   AR   Ar  204   4.593   5.517   7.632
    1   AR   Ar  205   5.257   1.859   2.301
    1   AR   Ar  206   6.188   0.432   6.560
    1   AR   Ar  207   0.430   4.117   4.589
    1   AR   Ar  208   0.788   6.431   3.670
    1   AR   Ar  209   5.581   2.954  -1.307
    1   AR   Ar  210   2.993   2.398   0.072
    1   AR   Ar  211   6.592   3.536   0.165
    1   AR   Ar  212   6.225   4.419   0.548
    1   AR   Ar  213   3.867   1.583   0.672
    1   AR   Ar  214   5.371   4.179   1.224
    1   AR   Ar  215   0.328   3.015   2.517
    1   AR   Ar  216   1.952   2.751  -0.554
    1   AR   Ar  217   4.748   2.042   4.434
    1   AR   Ar  218   4.238   2.439   5.442
    1   AR   Ar  219   4.359   4.171   2.093
    1   AR   Ar  220   4.496   4.803   1.076
    1   AR   Ar  221   6.319   6.391   3.633
    1   AR   Ar  222   6.026   6.618   5.961
    1   AR   Ar  223   0.019   0.739   5.975
    1   AR   Ar  224   4.690   1.270   5.147
    1   AR   Ar  225   6.274   2.902   2.349
    1   AR   Ar  226   2.437   3.449   3.954
    1   AR   Ar  227   1.664   2.698   4.023
    1   AR   Ar  228   5.947   0.685   2.399
    1   AR   Ar  229   5.476   3.939  -0.491
    1   AR   Ar  230   4.158   4.446   3.545
    1   AR   Ar  231   5.187   2.455   3.153
    1   AR   Ar  232   5.395   2.881   1.836
    1   AR   Ar  233   6.782   1.413   2.895
    1   AR   Ar  234   6.481   3.991   4.577
    1   AR   Ar  235   6.936   1.123   4.554
    1   AR   Ar  236   4.405   4.062   4.608
    1   AR   Ar  237   3.899   1.794   7.291
    1   AR   Ar  238   4.630   4.676   6.446
    1   AR   Ar  239   1.499   4.943  10.304
    1   AR   Ar  240   1.699   3.240   6.920
    1   AR   Ar  241   0.805   6.703  -0.510
    1   AR   Ar  242   5.943   6.263   1.606
    1   AR   Ar  243   4.337   5.678   1.579
    1   AR   Ar  244   5.695   6.521   0.437
    1   AR   Ar  245   3.067   1.617   3.295
    1   AR   Ar  246   4.957   5.947  -1.318
    1   AR   Ar  247   6.873   3.475   1.412
    1   AR   Ar  248   5.675   5.583  -0.408
    1   AR   Ar  249   4.173   0.538   0.987
    1   AR   Ar  250   5.242   6.555   3.536
    1   AR   Ar  251   5.498   3.667   4.733
    1   AR   Ar  252   2.354   4.940   1.805
    1   AR   Ar  253   5.165   2.563   6.798
    1   AR   Ar  254   4.001   4.420  13.479
    1   AR   Ar  255   4.981   5.902   9.370
    1   AR   Ar  256   5.795   5.387   3.595
    7.12000  7.12000 12.00000
Argon-slab step 5905
  256
    1   AR   Ar    1   4.078   2.740  -0.869
    1   AR   Ar    2   5.480   0.421   1.230
    1   AR   Ar    3   4.547   3.789  -0.996
    1   AR   Ar    4   2.295   0.816   1.244
    1   AR   Ar    5   6.621   5.667   0.153
    1   AR   Ar    6   1.492   1.046   2.025
    1   AR   Ar    7   5.510   4.218   2.402
    1   AR   Ar    8   6.006   2.822  -0.361
    1   AR   Ar    9   0.025   5.435   4.771
    1   AR   Ar   10   5.858   4.904   5.725
    1   AR   Ar   11   0.757   7.014   4.658
    1   AR   Ar   12   7.094   2.126   4.476
    1   AR   Ar   13   7.060   7.023   5.352
    1   AR   Ar   14   4.520   1.723   6.179
    1   AR   Ar   15   2.981   5.756   9.247
    1   AR   Ar   16   0.926   7.101   6.608
    1   AR   Ar   17   5.617   3.459   0.507
    1   AR   Ar   18   0.045   3.801  -2.884
    1   AR   Ar   19   4.631   5.320  -0.182
    1   AR   Ar   20   6.549   2.807  -2.444
    1   AR   Ar   21   2.554   1.479   2.244
    1   AR   Ar   22   4.710   0.433   2.022
    1   AR   Ar   23   1.030   5.469  -0.124
    1   AR   Ar   24   6.139   2.788   4.396
    1   AR   Ar   25   0.982   3.588   5.638
    1   AR   Ar   26   5.768   5.964   4.977
    1   AR   Ar   27   0.847   0.872   0.754
    1   AR   Ar   28   3.022   2.174   4.183
    1   AR   Ar   29   5.322   6.603   7.181
    1   AR   Ar   30   5.821   0.453   3.528
    1   AR   Ar   31   1.025   1.152   6.790
    1   AR   Ar   32   1.336   2.365   6.298
    1   AR   Ar   33   5.479   5.350   0.565
    1   AR   Ar   34   1.447   5.351   3.451
    1   AR   Ar   35   5.795   5.273   2.477
    1   AR   Ar   36   4.284   2.035  -4.009
    1   AR   Ar   37   4.587   3.414   1.088
    1   AR   Ar   38   6.090   4.912   4.577
    1   AR   Ar   39   6.942   3.172   3.797
    1   AR   Ar   40   0.515   4.102   1.963
    1   AR   Ar   41   0.549   1.877   3.644
    1   AR   Ar   42   4.867   4.829   5.258
    1   AR   Ar   43   0.051   3.127   6.104
    1   AR   Ar   44   1.524   3.961   2.919
    1   AR   Ar   45   2.348   3.978   5.022
    1   AR   Ar   46   5.934   5.783   6.576
    1   AR   Ar   47   2.656   3.645   6.376
    1   AR   Ar   48   0.647   3.770   7.491
    1   AR   Ar   49   7.086   2.311   0.176
    1   AR   Ar   50   2.598   4.788   0.573
    1   AR   Ar   51   5.678   3.485   3.025
    1   AR   Ar   52   5.738   3.403  -2.191
    1   AR   Ar   53   4.489   0.270   3.261
    1   AR   Ar   54   5.917   6.727   2.577
    1   AR   Ar   55   7.008   5.001   2.493
    1   AR   Ar   56   5.938   1.941   3.828
    1   AR   Ar   57   4.829   4.981   2.647
    1   AR   Ar   58   1.482   3.641   4.613
    1   AR   Ar   59   4.105   5.309   5.736
    1   AR   Ar   60   1.080   5.244   2.101
    1   AR   Ar   61   6.497   4.777   6.700
    1   AR   Ar   62   6.994   4.180   5.681
    1   AR   Ar   63   1.896   1.473   7.677
    1   AR   Ar   64   0.675   4.872   4.007
    1   AR   Ar   65   4.141   1.022   2.630
    1   AR   Ar   66   1.060   2.179   0.523
    1   AR   Ar   67   4.583   1.373  -1.096
    1   AR   Ar   68   6.359   1.137   1.148
    1   AR   Ar   69   2.714   2.301   1.261
    1   AR   Ar   70   0.148   1.241   1.883
    1   AR   Ar   71   2.860   0.627   2.855
    1   AR   Ar   72   4.404   1.298   1.572
    1   AR   Ar   73   3.336   0.165   3.843
    1   AR   Ar   74   0.781   0.870   3.375
    1   AR   Ar   75   3.167   1.130   6.013
    1   AR   Ar   76   2.697   0.096   1.913
    1   AR   Ar   77   1.309   5.917   6.812
    1   AR   Ar   78   6.644   5.733   5.822
    1   AR   Ar   79   3.659   6.213   4.906
    1   AR   Ar   80   3.613   4.379   6.266
    1   AR   Ar   81   1.682   6.618   2.010
    1   AR   Ar   82   6.846   4.797   1.274
    1   AR   Ar   83   1.734   3.037   0.721
    1   AR   Ar   84   0.873   4.108   1.056
    1   AR   Ar   85   0.578   2.742  -0.991
    1   AR   Ar   86   1.403   5.824   1.181
    1   AR   Ar   87   4.340   2.189   2.574
    1   AR   Ar   88   3.572   4.827   1.527
    1   AR   Ar   89   6.378   2.638   0.911
    1   AR   Ar   90   3.621   0.827   6.917
    1   AR   Ar   91   1.763   1.355   3.055
    1   AR   Ar   92   3.330   3.318   0.973
    1   AR   Ar   93   1.262   1.325   5.602
    1   AR   Ar   94   0.100   6.730   9.819
    1   AR   Ar   95   4.727   0.376   6.754
    1   AR   Ar   96   1.725   7.120   5.763
    1   AR   Ar   97   5.419   1.718  -1.774
    1   AR   Ar   98   1.741   4.412   3.962
    1   AR   Ar   99   5.792   6.505  -0.601
    1   AR   Ar  100   5.662   1.896  -3.361
    1   AR   Ar  101   3.885   5.623   2.923
    1   AR   Ar  102   4.197   2.511   1.621
    1   AR   Ar  103   1.577   3.530   1.677
    1   AR   Ar  104   3.173   0.468  -0.663
    1   AR   Ar  105   2.428   2.465   3.210
    1   AR   Ar  106   4.302   1.141   3.853
    1   AR   Ar  107   1.089   4.644   5.325
    1   AR   Ar  108   2.284   0.631   3.865
    1   AR   Ar  109   2.578   5.058   4.787
    1   AR   Ar  110   2.311   2.920   4.918
    1   AR   Ar  111   4.065   4.117   7.217
    1   AR   Ar  112   6.621   6.695   6.977
    1   AR   Ar  113   6.190   6.232  -1.518
    1   AR   Ar  114   3.166   0.272   0.449
    1   AR   Ar  115   6.428   4.537  -0.681
    1   AR   Ar  116   5.393   1.537   1.142
    1   AR   Ar  117   0.028   4.394   3.351
    1   AR   Ar  118   2.098   6.248   3.570
    1   AR   Ar  119   1.517   2.941   2.708
    1   AR   Ar  120   1.847   0.065   3.011
    1   AR   Ar  121   5.628   4.867   7.210
    1   AR   Ar  122   2.648   4.779   3.639
    1   AR   Ar  123   3.181   2.156   5.507
    1   AR   Ar  124   0.280   6.182   1.009
    1   AR   Ar  125   6.147   4.408   3.530
    1   AR   Ar  126   0.027   1.422   6.919
    1   AR   Ar  127   4.305   3.322   6.103
    1   AR   Ar  128   1.544   4.837   7.017
    1   AR   Ar  129   1.777   5.567   4.523
    1   AR   Ar  130   5.895   0.578  -4.694
    1   AR   Ar  131   4.347   0.005   0.081
    1   AR   Ar  132   1.804   2.259   1.891
    1   AR   Ar  133   4.304   0.177   4.376
    1   AR   Ar  134   3.681   1.129   4.776
    1   AR   Ar  135   5.625   0.520   5.281
    1   AR   Ar  136   4.671   6.362   2.377
    1   AR   Ar  137   2.090   4.770   6.193
    1   AR   Ar  138   5.768   1.515   5.970
    1   AR   Ar  139   6.208   2.340   5.446
    1   AR   Ar  140   4.820   6.374   4.779
    1   AR   Ar  141   3.476   5.361   3.903
    1   AR   Ar  142   3.931   5.735   8.414
    1   AR   Ar  143   5.141   6.594   8.205
    1   AR   Ar  144   0.188   2.931   5.045
    1   AR   Ar  145   4.586   4.689  -1.845
    1   AR   Ar  146   4.123   2.340   3.593
    1   AR   Ar  147   4.501   4.274  -0.147
    1   AR   Ar  148   1.935   5.995   0.072
    1   AR   Ar  149   5.968   1.825  -0.856
    1   AR   Ar  150   0.910   2.108   2.701
    1   AR   Ar  151   2.983   2.920   2.306
    1   AR   Ar  152   0.432   0.840  -0.603
    1   AR   Ar  153   5.069   1.206   2.999
    1   AR   Ar  154   5.116   3.130   3.906
    1   AR   Ar  155   5.341   3.429   5.823
    1   AR   Ar  156   3.366   4.172   2.918
    1   AR   Ar  157   3.225   5.583   6.505
    1   AR   Ar  158   1.494   2.339   7.395
    1   AR   Ar  159   4.123   0.216   5.456
    1   AR   Ar  160   1.123   1.863   4.629
    1   AR   Ar  161   5.127   4.615   4.057
    1   AR   Ar  162   3.563   5.434  -1.215
    1   AR   Ar  163   6.585   3.990   2.289
    1   AR   Ar  164   2.271   5.776   2.697
    1   AR   Ar  165   3.668   4.356   0.653
    1   AR   Ar  166   3.368   3.438   5.370
    1   AR   Ar  167   6.009   6.971   4.486
    1   AR   Ar  168   6.053   4.521  -2.451
    1   AR   Ar  169   4.444   3.316   2.997
    1   AR   Ar  170   2.568   2.584   6.678
    1   AR   Ar  171   4.605   5.476   3.622
    1   AR   Ar  172   3.872   2.911   4.650
    1   AR   Ar  173   0.421   2.389   7.660
    1   AR   Ar  174   2.791   5.997   4.306
    1   AR   Ar  175   1.049   0.133   7.771
    1   AR   Ar  176   3.386   3.070   3.353
    1   AR   Ar  177   0.461   3.510  -1.970
    1   AR   Ar  178   2.164   6.608   1.101
    1   AR   Ar  179   3.476   5.899   1.095
    1   AR   Ar  180   4.869   5.914  -6.920
    1   AR   Ar  181   7.005   6.139   2.047
    1   AR   Ar  182   0.753   5.931   2.710
    1   AR   Ar  183   5.188   5.252   1.623
    1   AR   Ar  184   3.486   5.081  -0.083
    1   AR   Ar  185   3.162   4.187   4.405
    1   AR   Ar  186   3.093   6.507   3.244
    1   AR   Ar  187   3.959   6.264   3.807
    1   AR   Ar  188   3.385   0.885   1.782
    1   AR   Ar  189   6.011   3.171   6.471
    1   AR   Ar  190   1.701   0.734   4.860
    1   AR   Ar  191   4.231   5.304   4.604
    1   AR   Ar  192   3.778   2.729   6.797
    1   AR   Ar  193   3.235   6.053   2.130
    1   AR   Ar  194   4.725   6.346  -0.383
    1   AR   Ar  195   6.262   1.929   2.041
    1   AR   Ar  196   4.431   6.645   1.212
    1   AR   Ar  197   4.764   3.272  -0.152
    1   AR   Ar  198   6.632   6.853   0.307
    1   AR   Ar  199   0.622   0.298   2.434
    1   AR   Ar  200   5.166   2.398   0.422
    1   AR   Ar  201   6.817   5.306   3.779
    1   AR   Ar  202   5.867   1.156   4.538
    1   AR   Ar  203   7.019   0.244   3.534
    1   AR   Ar  204   4.578   5.541   7.618
    1   AR   Ar  205   5.252   1.843   2.337
    1   AR   Ar  206   6.228   0.436   6.554
    1   AR   Ar  207   0.433   4.133   4.574
    1   AR   Ar  208   0.791   6.450   3.650
    1   AR   Ar  209   5.612   2.978  -1.270
    1   AR   Ar  210   3.022   2.413   0.093
    1   AR   Ar  211   6.604   3.569   0.163
    1   AR   Ar  212   6.252   4.418   0.537
    1   AR   Ar  213   3.846   1.588   0.673
    1   AR   Ar  214   5.359   4.214   1.200
    1   AR   Ar  215   0.336   3.029   2.529
    1   AR   Ar  216   1.957   2.717  -0.531
    1   AR   Ar  217   4.798   2.018   4.402
    1   AR   Ar  218   4.222   2.447   5.473
    1   AR   Ar  219   4.345   4.181   2.103
    1   AR   Ar  220   4.494   4.797   1.016
    1   AR   Ar  221   6.313   6.395   3.624
    1   AR   Ar  222   6.027   6.655   5.969
    1   AR   Ar  223   7.116   0.724   5.974
    1   AR   Ar  224   4.714   1.260   5.161
    1   AR   Ar  225   6.286   2.897   2.332
    1   AR   Ar  226   2.458   3.464   3.971
    1   AR   Ar  227   1.645   2.698   3.990
    1   AR   Ar  228   5.958   0.701   2.386
    1   AR   Ar  229   5.481   3.938  -0.476
    1   AR   Ar  230   4.154   4.485   3.574
    1   AR   Ar  231   5.227   2.469   3.162
    1   AR   Ar  232   5.378   2.821   1.838
    1   AR   Ar  233   6.817   1.445   2.895
    1   AR   Ar  234   6.486   3.990   4.543
    1   AR   Ar  235   6.925   1.145   4.569
    1   AR   Ar  236   4.380   4.039   4.609
    1   AR   Ar  237   3.899   1.774   7.298
    1   AR   Ar  238   4.621   4.667   6.450
    1   AR   Ar  239   1.513   4.939  10.343
    1   AR   Ar  240   1.683   3.244   6.958
    1   AR   Ar  241   0.784   6.706  -0.516
    1   AR   Ar  242   5.922   6.255   1.643
    1   AR   Ar  243   4.323   5.665   1.570
    1   AR   Ar  244   5.703   6.510   0.460
    1   AR   Ar  245   3.068   1.590   3.288
    1   AR   Ar  246   4.926   5.948  -1.331
    1   AR   Ar  247   6.882   3.447   1.388
    1   AR   Ar  248   5.667   5.552  -0.404
    1   AR   Ar  249   4.183   0.526   0.997
    1   AR   Ar  250   5.258   6.563   3.534
    1   AR   Ar  251   5.496   3.698   4.733
    1   AR   Ar  252   2.316   4.956   1.798
    1   AR   Ar  253   5.185   2.550   6.797
    1   AR   Ar  254   4.014   4.413  13.494
    1   AR   Ar  255   4.981   5.863   9.402
    1   AR   Ar  256   5.759   5.403   3.583
    7.12000  7.12000 12.00000
Argon-slab step 5910
  256
    1   AR   Ar    1   4.076   2.767  -0.852
    1   AR   Ar    2   5.438   0.409   1.247
    1   AR   Ar    3   4.521   3.803  -1.031
    1   AR   Ar    4   2.293   0.783   1.215
    1   AR   Ar    5   6.610   5.660   0.190
    1   AR   Ar    6   1.489   1.045   2.050
    1   AR   Ar    7   5.513   4.244   2.429
    1   AR   Ar    8   6.021   2.823  -0.345
    1   AR   Ar    9   0.050   5.405   4.785
    1   AR   Ar   10   5.830   4.896   5.725
    1   AR   Ar   11   0.759   6.973   4.649
    1   AR   Ar   12   7.063   2.121   4.444
    1   AR   Ar   13   7.059   7.025   5.350
    1   AR   Ar   14   4.484   1.717   6.191
    1   AR   Ar   15   2.996   5.783   9.238
    1   AR   Ar   16   0.930   7.119   6.598
    1   AR   Ar   17   5.627   3.452   0.556
    1   AR   Ar   18   0.039   3.773  -2.882
    1   AR   Ar   19   4.598   5.330  -0.188
    1   AR   Ar   20   6.561   2.802  -2.441
    1   AR   Ar   21   2.541   1.451   2.257
    1   AR   Ar   22   4.681   0.437   1.989
    1   AR   Ar   23   1.090   5.459  -0.146
    1   AR   Ar   24   6.150   2.786   4.401
    1   AR   Ar   25   1.035   3.583   5.626
    1   AR   Ar   26   5.766   5.932   4.970
    1   AR   Ar   27   0.825   0.877   0.764
    1   AR   Ar   28   3.042   2.180   4.221
    1   AR   Ar   29   5.321   6.608   7.185
    1   AR   Ar   30   5.803   0.469   3.521
    1   AR   Ar   31   1.033   1.142   6.786
    1   AR   Ar   32   1.380   2.403   6.264
    1   AR   Ar   33   5.485   5.345   0.590
    1   AR   Ar   34   1.434   5.352   3.414
    1   AR   Ar   35   5.796   5.244   2.462
    1   AR   Ar   36   4.309   2.052  -4.015
    1   AR   Ar   37   4.619   3.436   1.106
    1   AR   Ar   38   6.107   4.934   4.587
    1   AR   Ar   39   6.929   3.157   3.779
    1   AR   Ar   40   0.509   4.069   1.950
    1   AR   Ar   41   0.520   1.851   3.639
    1   AR   Ar   42   4.830   4.808   5.252
    1   AR   Ar   43   0.036   3.113   6.092
    1   AR   Ar   44   1.549   3.936   2.919
    1   AR   Ar   45   2.352   3.950   5.006
    1   AR   Ar   46   5.946   5.764   6.593
    1   AR   Ar   47   2.661   3.637   6.341
    1   AR   Ar   48   0.647   3.779   7.476
    1   AR   Ar   49   7.071   2.336   0.159
    1   AR   Ar   50   2.591   4.795   0.582
    1   AR   Ar   51   5.643   3.469   3.010
    1   AR   Ar   52   5.724   3.376  -2.191
    1   AR   Ar   53   4.499   0.267   3.253
    1   AR   Ar   54   5.900   6.728   2.572
    1   AR   Ar   55   7.021   5.008   2.515
    1   AR   Ar   56   5.934   1.928   3.838
    1   AR   Ar   57   4.858   4.997   2.649
    1   AR   Ar   58   1.428   3.616   4.635
    1   AR   Ar   59   4.097   5.336   5.742
    1   AR   Ar   60   1.045   5.239   2.084
    1   AR   Ar   61   6.519   4.771   6.737
    1   AR   Ar   62   7.003   4.181   5.669
    1   AR   Ar   63   1.914   1.486   7.660
    1   AR   Ar   64   0.683   4.865   3.996
    1   AR   Ar   65   4.100   1.019   2.645
    1   AR   Ar   66   1.065   2.158   0.531
    1   AR   Ar   67   4.592   1.370  -1.109
    1   AR   Ar   68   6.381   1.127   1.143
    1   AR   Ar   69   2.741   2.279   1.289
    1   AR   Ar   70   0.159   1.216   1.833
    1   AR   Ar   71   2.846   0.598   2.853
    1   AR   Ar   72   4.418   1.346   1.601
    1   AR   Ar   73   3.362   0.154   3.827
    1   AR   Ar   74   0.766   0.856   3.382
    1   AR   Ar   75   3.168   1.173   6.032
    1   AR   Ar   76   2.705   0.112   1.901
    1   AR   Ar   77   1.319   5.947   6.831
    1   AR   Ar   78   6.683   5.699   5.840
    1   AR   Ar   79   3.632   6.193   4.894
    1   AR   Ar   80   3.611   4.400   6.239
    1   AR   Ar   81   1.693   6.656   2.045
    1   AR   Ar   82   6.816   4.790   1.271
    1   AR   Ar   83   1.731   2.999   0.722
    1   AR   Ar   84   0.873   4.081   1.045
    1   AR   Ar   85   0.590   2.739  -1.012
    1   AR   Ar   86   1.384   5.829   1.217
    1   AR   Ar   87   4.358   2.156   2.623
    1   AR   Ar   88   3.547   4.817   1.556
    1   AR   Ar   89   6.384   2.624   0.907
    1   AR   Ar   90   3.614   0.819   6.945
    1   AR   Ar   91   1.764   1.290   3.054
    1   AR   Ar   92   3.352   3.320   0.988
    1   AR   Ar   93   1.280   1.322   5.625
    1   AR   Ar   94   0.087   6.717   9.837
    1   AR   Ar   95   4.742   0.386   6.759
    1   AR   Ar   96   1.738   7.119   5.770
    1   AR   Ar   97   5.445   1.761  -1.770
    1   AR   Ar   98   1.759   4.410   3.961
    1   AR   Ar   99   5.799   6.502  -0.629
    1   AR   Ar  100   5.620   1.880  -3.376
    1   AR   Ar  101   3.913   5.637   2.876
    1   AR   Ar  102   4.215   2.518   1.596
    1   AR   Ar  103   1.575   3.506   1.668
    1   AR   Ar  104   3.170   0.449  -0.670
    1   AR   Ar  105   2.435   2.462   3.219
    1   AR   Ar  106   4.322   1.165   3.859
    1   AR   Ar  107   1.112   4.651   5.332
    1   AR   Ar  108   2.289   0.641   3.870
    1   AR   Ar  109   2.568   5.082   4.806
    1   AR   Ar  110   2.292   2.907   4.882
    1   AR   Ar  111   4.090   4.108   7.234
    1   AR   Ar  112   6.628   6.695   6.980
    1   AR   Ar  113   6.177   6.246  -1.520
    1   AR   Ar  114   3.204   0.295   0.477
    1   AR   Ar  115   6.445   4.564  -0.675
    1   AR   Ar  116   5.368   1.544   1.131
    1   AR   Ar  117   0.012   4.371   3.361
    1   AR   Ar  118   2.081   6.276   3.573
    1   AR   Ar  119   1.551   2.951   2.709
    1   AR   Ar  120   1.854   0.092   2.999
    1   AR   Ar  121   5.637   4.902   7.227
    1   AR   Ar  122   2.637   4.762   3.641
    1   AR   Ar  123   3.172   2.140   5.527
    1   AR   Ar  124   0.271   6.207   0.977
    1   AR   Ar  125   6.140   4.379   3.542
    1   AR   Ar  126   0.060   1.410   6.918
    1   AR   Ar  127   4.262   3.322   6.113
    1   AR   Ar  128   1.525   4.796   7.081
    1   AR   Ar  129   1.783   5.597   4.507
    1   AR   Ar  130   5.900   0.571  -4.697
    1   AR   Ar  131   4.319   0.039   0.073
    1   AR   Ar  132   1.801   2.252   1.895
    1   AR   Ar  133   4.338   0.160   4.402
    1   AR   Ar  134   3.691   1.162   4.794
    1   AR   Ar  135   5.598   0.547   5.314
    1   AR   Ar  136   4.649   6.369   2.380
    1   AR   Ar  137   2.062   4.793   6.168
    1   AR   Ar  138   5.769   1.519   5.993
    1   AR   Ar  139   6.210   2.333   5.416
    1   AR   Ar  140   4.823   6.359   4.810
    1   AR   Ar  141   3.476   5.395   3.910
    1   AR   Ar  142   3.924   5.730   8.401
    1   AR   Ar  143   5.164   6.602   8.204
    1   AR   Ar  144   0.177   2.917   5.020
    1   AR   Ar  145   4.573   4.698  -1.820
    1   AR   Ar  146   4.114   2.328   3.580
    1   AR   Ar  147   4.500   4.318  -0.132
    1   AR   Ar  148   1.945   6.013   0.095
    1   AR   Ar  149   5.924   1.823  -0.887
    1   AR   Ar  150   0.887   2.058   2.684
    1   AR   Ar  151   2.995   2.894   2.298
    1   AR   Ar  152   0.417   0.820  -0.653
    1   AR   Ar  153   5.051   1.144   3.011
    1   AR   Ar  154   5.120   3.129   3.911
    1   AR   Ar  155   5.324   3.419   5.836
    1   AR   Ar  156   3.349   4.144   2.943
    1   AR   Ar  157   3.223   5.546   6.498
    1   AR   Ar  158   1.496   2.327   7.399
    1   AR   Ar  159   4.093   0.200   5.431
    1   AR   Ar  160   1.102   1.878   4.631
    1   AR   Ar  161   5.125   4.618   4.050
    1   AR   Ar  162   3.582   5.419  -1.205
    1   AR   Ar  163   6.594   3.997   2.285
    1   AR   Ar  164   2.250   5.767   2.715
    1   AR   Ar  165   3.637   4.337   0.634
    1   AR   Ar  166   3.344   3.448   5.382
    1   AR   Ar  167   6.045   7.005   4.477
    1   AR   Ar  168   6.083   4.546  -2.419
    1   AR   Ar  169   4.444   3.332   2.974
    1   AR   Ar  170   2.574   2.627   6.691
    1   AR   Ar  171   4.612   5.463   3.606
    1   AR   Ar  172   3.852   2.920   4.618
    1   AR   Ar  173   0.389   2.403   7.643
    1   AR   Ar  174   2.836   5.987   4.323
    1   AR   Ar  175   1.014   0.138   7.773
    1   AR   Ar  176   3.392   3.082   3.360
    1   AR   Ar  177   0.457   3.477  -1.979
    1   AR   Ar  178   2.173   6.625   1.098
    1   AR   Ar  179   3.454   5.898   1.092
    1   AR   Ar  180   4.878   5.912  -6.911
    1   AR   Ar  181   7.013   6.133   2.032
    1   AR   Ar  182   0.748   5.925   2.727
    1   AR   Ar  183   5.223   5.222   1.599
    1   AR   Ar  184   3.489   5.104  -0.050
    1   AR   Ar  185   3.146   4.193   4.397
    1   AR   Ar  186   3.094   6.499   3.244
    1   AR   Ar  187   3.977   6.273   3.812
    1   AR   Ar  188   3.363   0.895   1.786
    1   AR   Ar  189   5.976   3.163   6.428
    1   AR   Ar  190   1.714   0.689   4.890
    1   AR   Ar  191   4.217   5.293   4.572
    1   AR   Ar  192   3.768   2.766   6.800
    1   AR   Ar  193   3.253   6.025   2.176
    1   AR   Ar  194   4.753   6.370  -0.381
    1   AR   Ar  195   6.269   1.930   2.068
    1   AR   Ar  196   4.418   6.635   1.214
    1   AR   Ar  197   4.777   3.253  -0.137
    1   AR   Ar  198   6.657   6.874   0.313
    1   AR   Ar  199   0.673   0.280   2.400
    1   AR   Ar  200   5.165   2.374   0.441
    1   AR   Ar  201   6.827   5.316   3.785
    1   AR   Ar  202   5.898   1.145   4.552
    1   AR   Ar  203   7.010   0.254   3.548
    1   AR   Ar  204   4.566   5.564   7.600
    1   AR   Ar  205   5.256   1.837   2.347
    1   AR   Ar  206   6.265   0.444   6.546
    1   AR   Ar  207   0.433   4.134   4.570
    1   AR   Ar  208   0.795   6.470   3.631
    1   AR   Ar  209   5.638   3.001  -1.234
    1   AR   Ar  210   3.050   2.429   0.115
    1   AR   Ar  211   6.622   3.593   0.157
    1   AR   Ar  212   6.269   4.425   0.524
    1   AR   Ar  213   3.824   1.594   0.675
    1   AR   Ar  214   5.349   4.251   1.178
    1   AR   Ar  215   0.386   3.031   2.507
    1   AR   Ar  216   1.963   2.684  -0.507
    1   AR   Ar  217   4.850   1.995   4.370
    1   AR   Ar  218   4.210   2.453   5.508
    1   AR   Ar  219   4.337   4.196   2.122
    1   AR   Ar  220   4.497   4.791   0.950
    1   AR   Ar  221   6.310   6.397   3.614
    1   AR   Ar  222   6.027   6.694   5.974
    1   AR   Ar  223   7.111   0.710   5.973
    1   AR   Ar  224   4.739   1.248   5.176
    1   AR   Ar  225   6.303   2.900   2.318
    1   AR   Ar  226   2.478   3.479   3.986
    1   AR   Ar  227   1.627   2.697   3.957
    1   AR   Ar  228   5.965   0.687   2.389
    1   AR   Ar  229   5.493   3.940  -0.462
    1   AR   Ar  230   4.150   4.524   3.603
    1   AR   Ar  231   5.268   2.479   3.168
    1   AR   Ar  232   5.356   2.762   1.837
    1   AR   Ar  233   6.853   1.476   2.896
    1   AR   Ar  234   6.497   3.981   4.507
    1   AR   Ar  235   6.916   1.157   4.584
    1   AR   Ar  236   4.354   4.015   4.610
    1   AR   Ar  237   3.908   1.758   7.304
    1   AR   Ar  238   4.608   4.686   6.463
    1   AR   Ar  239   1.526   4.936  10.382
    1   AR   Ar  240   1.669   3.255   6.991
    1   AR   Ar  241   0.763   6.708  -0.520
    1   AR   Ar  242   5.900   6.245   1.675
    1   AR   Ar  243   4.312   5.669   1.546
    1   AR   Ar  244   5.681   6.495   0.458
    1   AR   Ar  245   3.070   1.561   3.278
    1   AR   Ar  246   4.897   5.948  -1.344
    1   AR   Ar  247   6.893   3.421   1.364
    1   AR   Ar  248   5.659   5.510  -0.405
    1   AR   Ar  249   4.189   0.510   1.002
    1   AR   Ar  250   5.263   6.568   3.537
    1   AR   Ar  251   5.491   3.731   4.735
    1   AR   Ar  252   2.278   4.972   1.791
    1   AR   Ar  253   5.202   2.535   6.794
    1   AR   Ar  254   4.028   4.405  13.509
    1   AR   Ar  255   4.982   5.824   9.433
    1   AR   Ar  256   5.719   5.422   3.572
    7.12000  7.12000 12.00000
Argon-slab step 5915
  256
    1   AR   Ar    1   4.074   2.794  -0.835
    1   AR   Ar    2   5.397   0.397   1.263
    1   AR   Ar    3   4.495   3.815  -1.072
    1   AR   Ar    4   2.290   0.753   1.186
    1   AR   Ar    5   6.593   5.653   0.217
    1   AR   Ar    6   1.485   1.045   2.074
    1   AR   Ar    7   5.517   4.273   2.446
    1   AR   Ar    8   6.039   2.822  -0.316
    1   AR   Ar    9   0.076   5.375   4.801
    1   AR   Ar   10   5.809   4.879   5.723
    1   AR   Ar   11   0.763   6.933   4.638
    1   AR   Ar   12   7.028   2.124   4.410
    1   AR   Ar   13   7.054   7.022   5.344
    1   AR   Ar   14   4.450   1.708   6.207
    1   AR   Ar   15   3.011   5.809   9.228
    1   AR   Ar   16   0.956   7.115   6.584
    1   AR   Ar   17   5.637   3.442   0.603
    1   AR   Ar   18   0.030   3.744  -2.884
    1   AR   Ar   19   4.566   5.344  -0.193
    1   AR   Ar   20   6.577   2.795  -2.439
    1   AR   Ar   21   2.527   1.425   2.269
    1   AR   Ar   22   4.654   0.433   1.960
    1   AR   Ar   23   1.145   5.448  -0.168
    1   AR   Ar   24   6.160   2.787   4.409
    1   AR   Ar   25   1.086   3.577   5.616
    1   AR   Ar   26   5.767   5.898   4.964
    1   AR   Ar   27   0.803   0.883   0.775
    1   AR   Ar   28   3.063   2.189   4.259
    1   AR   Ar   29   5.322   6.613   7.183
    1   AR   Ar   30   5.786   0.484   3.514
    1   AR   Ar   31   1.048   1.130   6.781
    1   AR   Ar   32   1.425   2.440   6.231
    1   AR   Ar   33   5.495   5.340   0.624
    1   AR   Ar   34   1.427   5.356   3.379
    1   AR   Ar   35   5.814   5.224   2.449
    1   AR   Ar   36   4.335   2.069  -4.021
    1   AR   Ar   37   4.651   3.458   1.124
    1   AR   Ar   38   6.121   4.961   4.596
    1   AR   Ar   39   6.917   3.143   3.760
    1   AR   Ar   40   0.500   4.036   1.951
    1   AR   Ar   41   0.493   1.826   3.635
    1   AR   Ar   42   4.803   4.787   5.243
    1   AR   Ar   43   0.020   3.100   6.079
    1   AR   Ar   44   1.574   3.920   2.922
    1   AR   Ar   45   2.355   3.927   4.995
    1   AR   Ar   46   5.927   5.780   6.604
    1   AR   Ar   47   2.667   3.631   6.304
    1   AR   Ar   48   0.649   3.787   7.460
    1   AR   Ar   49   7.057   2.363   0.140
    1   AR   Ar   50   2.585   4.802   0.592
    1   AR   Ar   51   5.611   3.445   3.003
    1   AR   Ar   52   5.709   3.353  -2.196
    1   AR   Ar   53   4.508   0.257   3.248
    1   AR   Ar   54   5.883   6.730   2.574
    1   AR   Ar   55   7.034   5.017   2.535
    1   AR   Ar   56   5.931   1.913   3.845
    1   AR   Ar   57   4.872   5.015   2.654
    1   AR   Ar   58   1.372   3.590   4.653
    1   AR   Ar   59   4.085   5.366   5.749
    1   AR   Ar   60   1.013   5.224   2.061
    1   AR   Ar   61   6.547   4.765   6.768
    1   AR   Ar   62   7.013   4.177   5.657
    1   AR   Ar   63   1.938   1.486   7.645
    1   AR   Ar   64   0.698   4.872   3.978
    1   AR   Ar   65   4.049   1.022   2.659
    1   AR   Ar   66   1.059   2.130   0.539
    1   AR   Ar   67   4.601   1.367  -1.122
    1   AR   Ar   68   6.402   1.117   1.140
    1   AR   Ar   69   2.769   2.257   1.318
    1   AR   Ar   70   0.170   1.191   1.783
    1   AR   Ar   71   2.833   0.566   2.852
    1   AR   Ar   72   4.431   1.403   1.632
    1   AR   Ar   73   3.390   0.151   3.815
    1   AR   Ar   74   0.753   0.842   3.387
    1   AR   Ar   75   3.169   1.216   6.048
    1   AR   Ar   76   2.711   0.122   1.892
    1   AR   Ar   77   1.320   5.956   6.825
    1   AR   Ar   78   6.722   5.666   5.855
    1   AR   Ar   79   3.615   6.174   4.887
    1   AR   Ar   80   3.605   4.377   6.240
    1   AR   Ar   81   1.702   6.694   2.082
    1   AR   Ar   82   6.792   4.785   1.278
    1   AR   Ar   83   1.729   2.962   0.722
    1   AR   Ar   84   0.878   4.055   1.021
    1   AR   Ar   85   0.602   2.736  -1.033
    1   AR   Ar   86   1.364   5.835   1.253
    1   AR   Ar   87   4.368   2.124   2.666
    1   AR   Ar   88   3.540   4.806   1.587
    1   AR   Ar   89   6.385   2.609   0.903
    1   AR   Ar   90   3.607   0.807   6.972
    1   AR   Ar   91   1.767   1.226   3.055
    1   AR   Ar   92   3.377   3.294   0.996
    1   AR   Ar   93   1.297   1.320   5.652
    1   AR   Ar   94   0.075   6.703   9.856
    1   AR   Ar   95   4.758   0.396   6.763
    1   AR   Ar   96   1.709   0.039   5.818
    1   AR   Ar   97   5.467   1.805  -1.773
    1   AR   Ar   98   1.769   4.405   3.965
    1   AR   Ar   99   5.804   6.508  -0.651
    1   AR   Ar  100   5.577   1.864  -3.391
    1   AR   Ar  101   3.941   5.651   2.829
    1   AR   Ar  102   4.241   2.524   1.565
    1   AR   Ar  103   1.571   3.494   1.658
    1   AR   Ar  104   3.167   0.430  -0.675
    1   AR   Ar  105   2.443   2.461   3.227
    1   AR   Ar  106   4.340   1.190   3.864
    1   AR   Ar  107   1.135   4.659   5.337
    1   AR   Ar  108   2.295   0.652   3.874
    1   AR   Ar  109   2.568   5.096   4.829
    1   AR   Ar  110   2.273   2.904   4.879
    1   AR   Ar  111   4.115   4.098   7.250
    1   AR   Ar  112   6.636   6.691   6.982
    1   AR   Ar  113   6.167   6.257  -1.530
    1   AR   Ar  114   3.243   0.318   0.506
    1   AR   Ar  115   6.462   4.590  -0.667
    1   AR   Ar  116   5.343   1.552   1.122
    1   AR   Ar  117   0.001   4.342   3.369
    1   AR   Ar  118   2.060   6.307   3.583
    1   AR   Ar  119   1.584   2.954   2.710
    1   AR   Ar  120   1.861   0.119   2.987
    1   AR   Ar  121   5.638   4.938   7.245
    1   AR   Ar  122   2.632   4.748   3.639
    1   AR   Ar  123   3.163   2.127   5.545
    1   AR   Ar  124   0.260   6.232   0.944
    1   AR   Ar  125   6.125   4.351   3.554
    1   AR   Ar  126   0.087   1.399   6.918
    1   AR   Ar  127   4.221   3.329   6.119
    1   AR   Ar  128   1.503   4.754   7.147
    1   AR   Ar  129   1.780   5.631   4.484
    1   AR   Ar  130   5.905   0.564  -4.699
    1   AR   Ar  131   4.288   0.077   0.067
    1   AR   Ar  132   1.798   2.244   1.899
    1   AR   Ar  133   4.373   0.144   4.425
    1   AR   Ar  134   3.701   1.196   4.811
    1   AR   Ar  135   5.569   0.570   5.353
    1   AR   Ar  136   4.628   6.375   2.383
    1   AR   Ar  137   2.036   4.815   6.138
    1   AR   Ar  138   5.768   1.520   6.015
    1   AR   Ar  139   6.213   2.329   5.384
    1   AR   Ar  140   4.822   6.346   4.838
    1   AR   Ar  141   3.478   5.415   3.905
    1   AR   Ar  142   3.914   5.726   8.392
    1   AR   Ar  143   5.187   6.608   8.209
    1   AR   Ar  144   0.167   2.910   4.998
    1   AR   Ar  145   4.561   4.707  -1.794
    1   AR   Ar  146   4.104   2.317   3.576
    1   AR   Ar  147   4.498   4.359  -0.111
    1   AR   Ar  148   1.958   6.033   0.120
    1   AR   Ar  149   5.885   1.824  -0.909
    1   AR   Ar  150   0.866   2.005   2.662
    1   AR   Ar  151   3.006   2.868   2.290
    1   AR   Ar  152   0.402   0.799  -0.703
    1   AR   Ar  153   5.037   1.077   3.034
    1   AR   Ar  154   5.121   3.132   3.923
    1   AR   Ar  155   5.280   3.418   5.825
    1   AR   Ar  156   3.333   4.116   2.969
    1   AR   Ar  157   3.223   5.507   6.491
    1   AR   Ar  158   1.483   2.320   7.423
    1   AR   Ar  159   4.063   0.184   5.407
    1   AR   Ar  160   1.093   1.885   4.649
    1   AR   Ar  161   5.126   4.620   4.045
    1   AR   Ar  162   3.602   5.403  -1.193
    1   AR   Ar  163   6.617   4.013   2.276
    1   AR   Ar  164   2.244   5.766   2.720
    1   AR   Ar  165   3.604   4.311   0.612
    1   AR   Ar  166   3.318   3.460   5.397
    1   AR   Ar  167   6.081   7.040   4.468
    1   AR   Ar  168   6.112   4.569  -2.385
    1   AR   Ar  169   4.446   3.348   2.951
    1   AR   Ar  170   2.579   2.668   6.704
    1   AR   Ar  171   4.627   5.452   3.592
    1   AR   Ar  172   3.832   2.930   4.581
    1   AR   Ar  173   0.356   2.416   7.624
    1   AR   Ar  174   2.863   5.989   4.340
    1   AR   Ar  175   0.979   0.144   7.773
    1   AR   Ar  176   3.397   3.095   3.369
    1   AR   Ar  177   0.455   3.442  -1.984
    1   AR   Ar  178   2.184   6.643   1.091
    1   AR   Ar  179   3.424   5.898   1.084
    1   AR   Ar  180   4.905   5.912  -6.898
    1   AR   Ar  181   7.013   6.149   2.068
    1   AR   Ar  182   0.741   5.926   2.749
    1   AR   Ar  183   5.263   5.191   1.578
    1   AR   Ar  184   3.492   5.131  -0.020
    1   AR   Ar  185   3.142   4.202   4.425
    1   AR   Ar  186   3.093   6.485   3.238
    1   AR   Ar  187   3.998   6.291   3.820
    1   AR   Ar  188   3.346   0.909   1.789
    1   AR   Ar  189   5.971   3.144   6.406
    1   AR   Ar  190   1.727   0.642   4.917
    1   AR   Ar  191   4.207   5.282   4.544
    1   AR   Ar  192   3.766   2.791   6.807
    1   AR   Ar  193   3.267   5.998   2.219
    1   AR   Ar  194   4.771   6.382  -0.393
    1   AR   Ar  195   6.277   1.923   2.091
    1   AR   Ar  196   4.407   6.628   1.216
    1   AR   Ar  197   4.788   3.229  -0.118
    1   AR   Ar  198   6.684   6.895   0.317
    1   AR   Ar  199   0.725   0.263   2.367
    1   AR   Ar  200   5.166   2.353   0.460
    1   AR   Ar  201   6.835   5.327   3.788
    1   AR   Ar  202   5.923   1.136   4.562
    1   AR   Ar  203   6.999   0.262   3.562
    1   AR   Ar  204   4.558   5.587   7.577
    1   AR   Ar  205   5.269   1.832   2.343
    1   AR   Ar  206   6.299   0.458   6.538
    1   AR   Ar  207   0.429   4.122   4.577
    1   AR   Ar  208   0.799   6.491   3.615
    1   AR   Ar  209   5.658   3.025  -1.204
    1   AR   Ar  210   3.079   2.445   0.138
    1   AR   Ar  211   6.646   3.605   0.145
    1   AR   Ar  212   6.274   4.441   0.508
    1   AR   Ar  213   3.802   1.600   0.678
    1   AR   Ar  214   5.342   4.286   1.160
    1   AR   Ar  215   0.436   3.035   2.486
    1   AR   Ar  216   1.968   2.650  -0.482
    1   AR   Ar  217   4.902   1.973   4.336
    1   AR   Ar  218   4.200   2.459   5.540
    1   AR   Ar  219   4.331   4.211   2.142
    1   AR   Ar  220   4.501   4.786   0.882
    1   AR   Ar  221   6.310   6.399   3.603
    1   AR   Ar  222   6.028   6.732   5.977
    1   AR   Ar  223   0.002   0.698   5.982
    1   AR   Ar  224   4.727   1.252   5.172
    1   AR   Ar  225   6.323   2.911   2.307
    1   AR   Ar  226   2.497   3.493   3.998
    1   AR   Ar  227   1.608   2.697   3.923
    1   AR   Ar  228   5.970   0.676   2.392
    1   AR   Ar  229   5.509   3.944  -0.449
    1   AR   Ar  230   4.142   4.561   3.632
    1   AR   Ar  231   5.308   2.484   3.169
    1   AR   Ar  232   5.332   2.705   1.834
    1   AR   Ar  233   6.889   1.506   2.898
    1   AR   Ar  234   6.509   3.975   4.477
    1   AR   Ar  235   6.911   1.157   4.601
    1   AR   Ar  236   4.328   3.991   4.611
    1   AR   Ar  237   3.920   1.746   7.309
    1   AR   Ar  238   4.596   4.713   6.480
    1   AR   Ar  239   1.540   4.932  10.421
    1   AR   Ar  240   1.655   3.270   7.022
    1   AR   Ar  241   0.742   6.709  -0.524
    1   AR   Ar  242   5.877   6.230   1.702
    1   AR   Ar  243   4.306   5.672   1.524
    1   AR   Ar  244   5.657   6.473   0.452
    1   AR   Ar  245   3.073   1.533   3.269
    1   AR   Ar  246   4.870   5.945  -1.359
    1   AR   Ar  247   6.905   3.399   1.341
    1   AR   Ar  248   5.652   5.464  -0.412
    1   AR   Ar  249   4.193   0.497   1.008
    1   AR   Ar  250   5.255   6.567   3.548
    1   AR   Ar  251   5.484   3.766   4.737
    1   AR   Ar  252   2.241   4.991   1.784
    1   AR   Ar  253   5.216   2.520   6.790
    1   AR   Ar  254   4.041   4.398  13.524
    1   AR   Ar  255   4.982   5.786   9.464
    1   AR   Ar  256   5.680   5.442   3.560
    7.12000  7.12000 12.00000
Argon-slab step 5920
  256
    1   AR   Ar    1   4.073   2.820  -0.817
    1   AR   Ar    2   5.360   0.385   1.274
    1   AR   Ar    3   4.471   3.827  -1.112
    1   AR   Ar    4   2.286   0.725   1.156
    1   AR   Ar    5   6.554   5.650   0.201
    1   AR   Ar    6   1.480   1.043   2.094
    1   AR   Ar    7   5.521   4.294   2.456
    1   AR   Ar    8   6.060   2.819  -0.275
    1   AR   Ar    9   0.101   5.342   4.818
    1   AR   Ar   10   5.793   4.855   5.718
    1   AR   Ar   11   0.767   6.894   4.627
    1   AR   Ar   12   6.988   2.134   4.374
    1   AR   Ar   13   7.046   7.014   5.336
    1   AR   Ar   14   4.416   1.696   6.227
    1   AR   Ar   15   3.028   5.835   9.218
    1   AR   Ar   16   0.980   7.111   6.571
    1   AR   Ar   17   5.649   3.429   0.648
    1   AR   Ar   18   0.019   3.717  -2.888
    1   AR   Ar   19   4.535   5.367  -0.198
    1   AR   Ar   20   6.596   2.789  -2.437
    1   AR   Ar   21   2.511   1.402   2.280
    1   AR   Ar   22   4.630   0.434   1.939
    1   AR   Ar   23   1.198   5.435  -0.191
    1   AR   Ar   24   6.166   2.792   4.418
    1   AR   Ar   25   1.134   3.570   5.614
    1   AR   Ar   26   5.772   5.865   4.960
    1   AR   Ar   27   0.781   0.889   0.788
    1   AR   Ar   28   3.084   2.198   4.296
    1   AR   Ar   29   5.325   6.616   7.174
    1   AR   Ar   30   5.770   0.497   3.509
    1   AR   Ar   31   1.071   1.116   6.774
    1   AR   Ar   32   1.470   2.478   6.198
    1   AR   Ar   33   5.507   5.335   0.651
    1   AR   Ar   34   1.436   5.366   3.361
    1   AR   Ar   35   5.850   5.216   2.438
    1   AR   Ar   36   4.362   2.086  -4.026
    1   AR   Ar   37   4.681   3.479   1.141
    1   AR   Ar   38   6.135   4.987   4.604
    1   AR   Ar   39   6.908   3.130   3.741
    1   AR   Ar   40   0.490   4.004   1.960
    1   AR   Ar   41   0.470   1.802   3.631
    1   AR   Ar   42   4.792   4.780   5.226
    1   AR   Ar   43   0.005   3.087   6.067
    1   AR   Ar   44   1.598   3.915   2.927
    1   AR   Ar   45   2.353   3.908   4.990
    1   AR   Ar   46   5.906   5.796   6.614
    1   AR   Ar   47   2.673   3.629   6.264
    1   AR   Ar   48   0.651   3.795   7.443
    1   AR   Ar   49   7.045   2.389   0.118
    1   AR   Ar   50   2.579   4.810   0.604
    1   AR   Ar   51   5.583   3.420   3.000
    1   AR   Ar   52   5.691   3.335  -2.203
    1   AR   Ar   53   4.513   0.235   3.247
    1   AR   Ar   54   5.865   6.735   2.585
    1   AR   Ar   55   7.047   5.028   2.553
    1   AR   Ar   56   5.928   1.898   3.850
    1   AR   Ar   57   4.870   5.038   2.663
    1   AR   Ar   58   1.319   3.562   4.662
    1   AR   Ar   59   4.069   5.398   5.756
    1   AR   Ar   60   0.983   5.202   2.036
    1   AR   Ar   61   6.578   4.759   6.796
    1   AR   Ar   62   7.026   4.154   5.648
    1   AR   Ar   63   1.967   1.473   7.633
    1   AR   Ar   64   0.717   4.887   3.958
    1   AR   Ar   65   3.993   1.028   2.672
    1   AR   Ar   66   1.052   2.100   0.548
    1   AR   Ar   67   4.612   1.365  -1.135
    1   AR   Ar   68   6.422   1.108   1.138
    1   AR   Ar   69   2.798   2.235   1.346
    1   AR   Ar   70   0.182   1.167   1.736
    1   AR   Ar   71   2.823   0.534   2.854
    1   AR   Ar   72   4.441   1.464   1.666
    1   AR   Ar   73   3.422   0.153   3.806
    1   AR   Ar   74   0.743   0.825   3.390
    1   AR   Ar   75   3.172   1.256   6.066
    1   AR   Ar   76   2.713   0.121   1.886
    1   AR   Ar   77   1.319   5.960   6.813
    1   AR   Ar   78   6.761   5.631   5.869
    1   AR   Ar   79   3.618   6.161   4.892
    1   AR   Ar   80   3.598   4.342   6.248
    1   AR   Ar   81   1.709   6.705   2.107
    1   AR   Ar   82   6.773   4.784   1.295
    1   AR   Ar   83   1.729   2.924   0.721
    1   AR   Ar   84   0.884   4.029   0.988
    1   AR   Ar   85   0.613   2.734  -1.054
    1   AR   Ar   86   1.346   5.843   1.288
    1   AR   Ar   87   4.375   2.091   2.696
    1   AR   Ar   88   3.558   4.789   1.618
    1   AR   Ar   89   6.379   2.592   0.901
    1   AR   Ar   90   3.602   0.792   6.998
    1   AR   Ar   91   1.771   1.164   3.061
    1   AR   Ar   92   3.395   3.287   1.008
    1   AR   Ar   93   1.313   1.319   5.679
    1   AR   Ar   94   0.064   6.703   9.852
    1   AR   Ar   95   4.773   0.407   6.766
    1   AR   Ar   96   1.680   0.080   5.864
    1   AR   Ar   97   5.481   1.849  -1.793
    1   AR   Ar   98   1.768   4.395   3.968
    1   AR   Ar   99   5.807   6.518  -0.662
    1   AR   Ar  100   5.534   1.847  -3.405
    1   AR   Ar  101   3.976   5.658   2.790
    1   AR   Ar  102   4.267   2.529   1.534
    1   AR   Ar  103   1.594   3.497   1.651
    1   AR   Ar  104   3.165   0.410  -0.679
    1   AR   Ar  105   2.451   2.459   3.236
    1   AR   Ar  106   4.356   1.214   3.869
    1   AR   Ar  107   1.158   4.665   5.341
    1   AR   Ar  108   2.302   0.663   3.878
    1   AR   Ar  109   2.573   5.102   4.854
    1   AR   Ar  110   2.253   2.904   4.897
    1   AR   Ar  111   4.139   4.088   7.265
    1   AR   Ar  112   6.643   6.683   6.984
    1   AR   Ar  113   6.160   6.265  -1.550
    1   AR   Ar  114   3.280   0.342   0.536
    1   AR   Ar  115   6.476   4.617  -0.657
    1   AR   Ar  116   5.321   1.558   1.116
    1   AR   Ar  117   7.116   4.309   3.376
    1   AR   Ar  118   2.041   6.304   3.596
    1   AR   Ar  119   1.616   2.945   2.709
    1   AR   Ar  120   1.866   0.147   2.976
    1   AR   Ar  121   5.634   4.975   7.266
    1   AR   Ar  122   2.636   4.740   3.632
    1   AR   Ar  123   3.154   2.119   5.560
    1   AR   Ar  124   0.254   6.227   0.943
    1   AR   Ar  125   6.101   4.324   3.566
    1   AR   Ar  126   0.106   1.391   6.918
    1   AR   Ar  127   4.185   3.348   6.119
    1   AR   Ar  128   1.481   4.713   7.213
    1   AR   Ar  129   1.770   5.668   4.457
    1   AR   Ar  130   5.910   0.557  -4.701
    1   AR   Ar  131   4.255   0.116   0.060
    1   AR   Ar  132   1.796   2.235   1.903
    1   AR   Ar  133   4.409   0.129   4.441
    1   AR   Ar  134   3.710   1.229   4.829
    1   AR   Ar  135   5.541   0.588   5.396
    1   AR   Ar  136   4.601   6.387   2.375
    1   AR   Ar  137   2.010   4.836   6.108
    1   AR   Ar  138   5.766   1.520   6.037
    1   AR   Ar  139   6.218   2.324   5.353
    1   AR   Ar  140   4.816   6.332   4.866
    1   AR   Ar  141   3.452   5.427   3.920
    1   AR   Ar  142   3.902   5.723   8.386
    1   AR   Ar  143   5.208   6.613   8.217
    1   AR   Ar  144   0.158   2.910   4.978
    1   AR   Ar  145   4.549   4.717  -1.766
    1   AR   Ar  146   4.092   2.308   3.590
    1   AR   Ar  147   4.496   4.389  -0.088
    1   AR   Ar  148   1.974   6.056   0.148
    1   AR   Ar  149   5.853   1.826  -0.914
    1   AR   Ar  150   0.848   1.952   2.638
    1   AR   Ar  151   3.017   2.841   2.282
    1   AR   Ar  152   0.388   0.778  -0.751
    1   AR   Ar  153   5.023   1.041   3.044
    1   AR   Ar  154   5.119   3.139   3.941
    1   AR   Ar  155   5.217   3.425   5.796
    1   AR   Ar  156   3.317   4.089   2.995
    1   AR   Ar  157   3.222   5.467   6.483
    1   AR   Ar  158   1.463   2.321   7.443
    1   AR   Ar  159   4.032   0.169   5.388
    1   AR   Ar  160   1.083   1.891   4.667
    1   AR   Ar  161   5.129   4.620   4.043
    1   AR   Ar  162   3.624   5.387  -1.180
    1   AR   Ar  163   6.637   4.030   2.270
    1   AR   Ar  164   2.249   5.772   2.717
    1   AR   Ar  165   3.570   4.280   0.590
    1   AR   Ar  166   3.292   3.472   5.411
    1   AR   Ar  167   6.117   7.076   4.461
    1   AR   Ar  168   6.141   4.592  -2.352
    1   AR   Ar  169   4.448   3.363   2.929
    1   AR   Ar  170   2.583   2.705   6.717
    1   AR   Ar  171   4.645   5.450   3.580
    1   AR   Ar  172   3.814   2.939   4.541
    1   AR   Ar  173   0.325   2.430   7.604
    1   AR   Ar  174   2.856   6.004   4.352
    1   AR   Ar  175   0.943   0.150   7.771
    1   AR   Ar  176   3.400   3.108   3.378
    1   AR   Ar  177   0.453   3.404  -1.985
    1   AR   Ar  178   2.196   6.661   1.084
    1   AR   Ar  179   3.388   5.900   1.073
    1   AR   Ar  180   4.902   5.900  -6.892
    1   AR   Ar  181   7.020   6.165   2.106
    1   AR   Ar  182   0.727   5.932   2.730
    1   AR   Ar  183   5.298   5.166   1.570
    1   AR   Ar  184   3.495   5.161   0.009
    1   AR   Ar  185   3.149   4.215   4.460
    1   AR   Ar  186   3.090   6.465   3.227
    1   AR   Ar  187   4.023   6.316   3.829
    1   AR   Ar  188   3.326   0.921   1.792
    1   AR   Ar  189   5.988   3.120   6.399
    1   AR   Ar  190   1.740   0.595   4.940
    1   AR   Ar  191   4.204   5.271   4.525
    1   AR   Ar  192   3.778   2.798   6.822
    1   AR   Ar  193   3.270   5.978   2.252
    1   AR   Ar  194   4.786   6.392  -0.406
    1   AR   Ar  195   6.288   1.908   2.109
    1   AR   Ar  196   4.398   6.623   1.217
    1   AR   Ar  197   4.799   3.205  -0.097
    1   AR   Ar  198   6.712   6.915   0.322
    1   AR   Ar  199   0.778   0.246   2.335
    1   AR   Ar  200   5.167   2.335   0.479
    1   AR   Ar  201   6.839   5.338   3.788
    1   AR   Ar  202   5.937   1.127   4.569
    1   AR   Ar  203   6.985   0.269   3.577
    1   AR   Ar  204   4.554   5.609   7.551
    1   AR   Ar  205   5.287   1.816   2.333
    1   AR   Ar  206   6.326   0.476   6.533
    1   AR   Ar  207   0.424   4.103   4.591
    1   AR   Ar  208   0.805   6.515   3.601
    1   AR   Ar  209   5.672   3.049  -1.179
    1   AR   Ar  210   3.108   2.461   0.164
    1   AR   Ar  211   6.672   3.608   0.141
    1   AR   Ar  212   6.266   4.465   0.487
    1   AR   Ar  213   3.780   1.605   0.683
    1   AR   Ar  214   5.343   4.313   1.141
    1   AR   Ar  215   0.484   3.039   2.464
    1   AR   Ar  216   1.974   2.616  -0.454
    1   AR   Ar  217   4.956   1.955   4.302
    1   AR   Ar  218   4.189   2.465   5.567
    1   AR   Ar  219   4.326   4.225   2.162
    1   AR   Ar  220   4.501   4.788   0.814
    1   AR   Ar  221   6.312   6.401   3.591
    1   AR   Ar  222   6.028   6.767   5.977
    1   AR   Ar  223   0.020   0.693   5.991
    1   AR   Ar  224   4.691   1.266   5.155
    1   AR   Ar  225   6.344   2.931   2.297
    1   AR   Ar  226   2.514   3.505   4.006
    1   AR   Ar  227   1.589   2.698   3.891
    1   AR   Ar  228   5.975   0.668   2.394
    1   AR   Ar  229   5.528   3.948  -0.435
    1   AR   Ar  230   4.130   4.591   3.660
    1   AR   Ar  231   5.346   2.480   3.167
    1   AR   Ar  232   5.308   2.654   1.826
    1   AR   Ar  233   6.925   1.535   2.899
    1   AR   Ar  234   6.506   3.990   4.486
    1   AR   Ar  235   6.917   1.147   4.619
    1   AR   Ar  236   4.301   3.966   4.612
    1   AR   Ar  237   3.932   1.737   7.313
    1   AR   Ar  238   4.588   4.740   6.497
    1   AR   Ar  239   1.581   4.935  10.438
    1   AR   Ar  240   1.641   3.290   7.050
    1   AR   Ar  241   0.720   6.711  -0.526
    1   AR   Ar  242   5.852   6.209   1.720
    1   AR   Ar  243   4.303   5.667   1.510
    1   AR   Ar  244   5.631   6.450   0.448
    1   AR   Ar  245   3.078   1.506   3.261
    1   AR   Ar  246   4.843   5.940  -1.373
    1   AR   Ar  247   6.917   3.382   1.330
    1   AR   Ar  248   5.645   5.417  -0.420
    1   AR   Ar  249   4.195   0.492   1.016
    1   AR   Ar  250   5.243   6.566   3.559
    1   AR   Ar  251   5.475   3.801   4.741
    1   AR   Ar  252   2.203   5.010   1.777
    1   AR   Ar  253   5.226   2.502   6.786
    1   AR   Ar  254   4.054   4.390  13.539
    1   AR   Ar  255   4.981   5.748   9.493
    1   AR   Ar  256   5.646   5.462   3.548
    7.12000  7.12000 12.00000
Argon-slab step 5925
  256
    1   AR   Ar    1   4.071   2.846  -0.799
    1   AR   Ar    2   5.332   0.372   1.279
    1   AR   Ar    3   4.449   3.839  -1.151
    1   AR   Ar    4   2.304   0.705   1.136
    1   AR   Ar    5   6.514   5.647   0.187
    1   AR   Ar    6   1.474   1.042   2.107
    1   AR   Ar    7   5.526   4.301   2.460
    1   AR   Ar    8   6.081   2.813  -0.225
    1   AR   Ar    9   0.126   5.308   4.837
    1   AR   Ar   10   5.778   4.833   5.713
    1   AR   Ar   11   0.772   6.855   4.616
    1   AR   Ar   12   6.945   2.146   4.339
    1   AR   Ar   13   7.035   7.003   5.326
    1   AR   Ar   14   4.382   1.680   6.249
    1   AR   Ar   15   3.045   5.861   9.207
    1   AR   Ar   16   0.995   7.106   6.566
    1   AR   Ar   17   5.663   3.413   0.689
    1   AR   Ar   18   0.004   3.691  -2.895
    1   AR   Ar   19   4.506   5.401  -0.204
    1   AR   Ar   20   6.607   2.781  -2.447
    1   AR   Ar   21   2.495   1.381   2.291
    1   AR   Ar   22   4.621   0.470   1.926
    1   AR   Ar   23   1.247   5.422  -0.214
    1   AR   Ar   24   6.167   2.803   4.427
    1   AR   Ar   25   1.169   3.562   5.630
    1   AR   Ar   26   5.776   5.838   4.958
    1   AR   Ar   27   0.756   0.889   0.801
    1   AR   Ar   28   3.104   2.206   4.332
    1   AR   Ar   29   5.329   6.619   7.162
    1   AR   Ar   30   5.758   0.507   3.506
    1   AR   Ar   31   1.101   1.100   6.766
    1   AR   Ar   32   1.515   2.516   6.166
    1   AR   Ar   33   5.523   5.334   0.660
    1   AR   Ar   34   1.449   5.376   3.342
    1   AR   Ar   35   5.900   5.223   2.430
    1   AR   Ar   36   4.389   2.103  -4.031
    1   AR   Ar   37   4.690   3.490   1.146
    1   AR   Ar   38   6.150   5.008   4.609
    1   AR   Ar   39   6.900   3.119   3.720
    1   AR   Ar   40   0.485   3.975   1.970
    1   AR   Ar   41   0.454   1.782   3.629
    1   AR   Ar   42   4.784   4.771   5.211
    1   AR   Ar   43   7.109   3.074   6.055
    1   AR   Ar   44   1.623   3.920   2.934
    1   AR   Ar   45   2.343   3.896   4.992
    1   AR   Ar   46   5.887   5.813   6.623
    1   AR   Ar   47   2.678   3.632   6.224
    1   AR   Ar   48   0.655   3.802   7.425
    1   AR   Ar   49   7.035   2.416   0.094
    1   AR   Ar   50   2.574   4.819   0.616
    1   AR   Ar   51   5.559   3.404   2.995
    1   AR   Ar   52   5.673   3.317  -2.212
    1   AR   Ar   53   4.510   0.201   3.249
    1   AR   Ar   54   5.846   6.742   2.604
    1   AR   Ar   55   7.060   5.041   2.570
    1   AR   Ar   56   5.930   1.882   3.852
    1   AR   Ar   57   4.859   5.063   2.671
    1   AR   Ar   58   1.274   3.533   4.655
    1   AR   Ar   59   4.053   5.430   5.762
    1   AR   Ar   60   0.951   5.175   2.010
    1   AR   Ar   61   6.610   4.753   6.820
    1   AR   Ar   62   7.040   4.131   5.637
    1   AR   Ar   63   2.001   1.453   7.622
    1   AR   Ar   64   0.737   4.903   3.938
    1   AR   Ar   65   3.936   1.035   2.686
    1   AR   Ar   66   1.043   2.068   0.556
    1   AR   Ar   67   4.623   1.364  -1.147
    1   AR   Ar   68   6.439   1.099   1.135
    1   AR   Ar   69   2.827   2.214   1.374
    1   AR   Ar   70   0.197   1.143   1.692
    1   AR   Ar   71   2.817   0.502   2.858
    1   AR   Ar   72   4.446   1.523   1.702
    1   AR   Ar   73   3.454   0.158   3.799
    1   AR   Ar   74   0.737   0.806   3.390
    1   AR   Ar   75   3.176   1.289   6.087
    1   AR   Ar   76   2.712   0.112   1.882
    1   AR   Ar   77   1.318   5.964   6.799
    1   AR   Ar   78   6.797   5.597   5.882
    1   AR   Ar   79   3.642   6.151   4.910
    1   AR   Ar   80   3.600   4.328   6.268
    1   AR   Ar   81   1.717   6.677   2.109
    1   AR   Ar   82   6.759   4.784   1.320
    1   AR   Ar   83   1.744   2.916   0.723
    1   AR   Ar   84   0.891   4.003   0.952
    1   AR   Ar   85   0.624   2.732  -1.074
    1   AR   Ar   86   1.330   5.853   1.320
    1   AR   Ar   87   4.381   2.056   2.710
    1   AR   Ar   88   3.576   4.775   1.647
    1   AR   Ar   89   6.367   2.574   0.900
    1   AR   Ar   90   3.596   0.774   7.022
    1   AR   Ar   91   1.776   1.111   3.073
    1   AR   Ar   92   3.402   3.309   1.027
    1   AR   Ar   93   1.328   1.319   5.708
    1   AR   Ar   94   0.062   6.708   9.846
    1   AR   Ar   95   4.788   0.418   6.769
    1   AR   Ar   96   1.658   0.121   5.905
    1   AR   Ar   97   5.486   1.895  -1.831
    1   AR   Ar   98   1.761   4.376   3.951
    1   AR   Ar   99   5.808   6.530  -0.663
    1   AR   Ar  100   5.491   1.832  -3.419
    1   AR   Ar  101   4.000   5.659   2.775
    1   AR   Ar  102   4.291   2.534   1.503
    1   AR   Ar  103   1.621   3.486   1.664
    1   AR   Ar  104   3.164   0.391  -0.681
    1   AR   Ar  105   2.461   2.456   3.245
    1   AR   Ar  106   4.367   1.234   3.873
    1   AR   Ar  107   1.181   4.671   5.342
    1   AR   Ar  108   2.311   0.673   3.882
    1   AR   Ar  109   2.581   5.104   4.879
    1   AR   Ar  110   2.232   2.897   4.915
    1   AR   Ar  111   4.163   4.076   7.279
    1   AR   Ar  112   6.650   6.673   6.986
    1   AR   Ar  113   6.157   6.269  -1.580
    1   AR   Ar  114   3.312   0.365   0.566
    1   AR   Ar  115   6.484   4.637  -0.646
    1   AR   Ar  116   5.308   1.561   1.118
    1   AR   Ar  117   7.114   4.275   3.383
    1   AR   Ar  118   2.022   6.279   3.611
    1   AR   Ar  119   1.647   2.927   2.705
    1   AR   Ar  120   1.867   0.167   2.966
    1   AR   Ar  121   5.627   5.012   7.286
    1   AR   Ar  122   2.649   4.736   3.622
    1   AR   Ar  123   3.144   2.120   5.570
    1   AR   Ar  124   0.247   6.221   0.943
    1   AR   Ar  125   6.070   4.298   3.575
    1   AR   Ar  126   0.118   1.383   6.919
    1   AR   Ar  127   4.152   3.378   6.112
    1   AR   Ar  128   1.459   4.670   7.277
    1   AR   Ar  129   1.767   5.689   4.444
    1   AR   Ar  130   5.915   0.550  -4.703
    1   AR   Ar  131   4.223   0.154   0.048
    1   AR   Ar  132   1.793   2.226   1.906
    1   AR   Ar  133   4.447   0.115   4.449
    1   AR   Ar  134   3.705   1.244   4.841
    1   AR   Ar  135   5.512   0.603   5.442
    1   AR   Ar  136   4.567   6.406   2.350
    1   AR   Ar  137   1.984   4.856   6.076
    1   AR   Ar  138   5.763   1.520   6.059
    1   AR   Ar  139   6.224   2.318   5.324
    1   AR   Ar  140   4.807   6.318   4.891
    1   AR   Ar  141   3.432   5.424   3.914
    1   AR   Ar  142   3.889   5.721   8.383
    1   AR   Ar  143   5.228   6.617   8.229
    1   AR   Ar  144   0.151   2.916   4.960
    1   AR   Ar  145   4.537   4.729  -1.737
    1   AR   Ar  146   4.076   2.301   3.622
    1   AR   Ar  147   4.494   4.400  -0.077
    1   AR   Ar  148   1.992   6.079   0.179
    1   AR   Ar  149   5.828   1.829  -0.899
    1   AR   Ar  150   0.831   1.898   2.611
    1   AR   Ar  151   3.029   2.814   2.275
    1   AR   Ar  152   0.373   0.755  -0.799
    1   AR   Ar  153   5.006   1.054   3.033
    1   AR   Ar  154   5.107   3.131   3.936
    1   AR   Ar  155   5.150   3.434   5.762
    1   AR   Ar  156   3.302   4.064   3.020
    1   AR   Ar  157   3.222   5.425   6.474
    1   AR   Ar  158   1.438   2.327   7.460
    1   AR   Ar  159   4.000   0.156   5.373
    1   AR   Ar  160   1.072   1.898   4.684
    1   AR   Ar  161   5.135   4.618   4.045
    1   AR   Ar  162   3.649   5.370  -1.166
    1   AR   Ar  163   6.651   4.046   2.265
    1   AR   Ar  164   2.255   5.777   2.711
    1   AR   Ar  165   3.537   4.247   0.570
    1   AR   Ar  166   3.269   3.483   5.423
    1   AR   Ar  167   6.152   7.113   4.454
    1   AR   Ar  168   6.171   4.613  -2.318
    1   AR   Ar  169   4.451   3.377   2.907
    1   AR   Ar  170   2.587   2.737   6.732
    1   AR   Ar  171   4.659   5.459   3.570
    1   AR   Ar  172   3.796   2.950   4.502
    1   AR   Ar  173   0.294   2.443   7.583
    1   AR   Ar  174   2.814   6.035   4.361
    1   AR   Ar  175   0.908   0.157   7.768
    1   AR   Ar  176   3.402   3.119   3.390
    1   AR   Ar  177   0.475   3.382  -1.994
    1   AR   Ar  178   2.208   6.678   1.078
    1   AR   Ar  179   3.348   5.901   1.060
    1   AR   Ar  180   4.889   5.909  -6.921
    1   AR   Ar  181   7.025   6.181   2.142
    1   AR   Ar  182   0.713   5.940   2.702
    1   AR   Ar  183   5.326   5.155   1.587
    1   AR   Ar  184   3.498   5.192   0.037
    1   AR   Ar  185   3.167   4.232   4.491
    1   AR   Ar  186   3.085   6.441   3.214
    1   AR   Ar  187   4.050   6.343   3.838
    1   AR   Ar  188   3.310   0.936   1.793
    1   AR   Ar  189   6.014   3.095   6.393
    1   AR   Ar  190   1.753   0.550   4.961
    1   AR   Ar  191   4.209   5.259   4.515
    1   AR   Ar  192   3.785   2.797   6.845
    1   AR   Ar  193   3.255   5.965   2.269
    1   AR   Ar  194   4.800   6.403  -0.416
    1   AR   Ar  195   6.302   1.889   2.123
    1   AR   Ar  196   4.392   6.623   1.217
    1   AR   Ar  197   4.812   3.183  -0.076
    1   AR   Ar  198   6.739   6.934   0.326
    1   AR   Ar  199   0.831   0.228   2.305
    1   AR   Ar  200   5.169   2.325   0.494
    1   AR   Ar  201   6.841   5.348   3.786
    1   AR   Ar  202   5.938   1.117   4.575
    1   AR   Ar  203   6.967   0.274   3.594
    1   AR   Ar  204   4.553   5.631   7.522
    1   AR   Ar  205   5.304   1.790   2.335
    1   AR   Ar  206   6.346   0.499   6.532
    1   AR   Ar  207   0.420   4.087   4.594
    1   AR   Ar  208   0.812   6.540   3.588
    1   AR   Ar  209   5.683   3.074  -1.158
    1   AR   Ar  210   3.136   2.478   0.190
    1   AR   Ar  211   6.686   3.612   0.174
    1   AR   Ar  212   6.249   4.493   0.461
    1   AR   Ar  213   3.757   1.610   0.690
    1   AR   Ar  214   5.350   4.324   1.116
    1   AR   Ar  215   0.525   3.040   2.446
    1   AR   Ar  216   1.978   2.602  -0.439
    1   AR   Ar  217   5.010   1.940   4.270
    1   AR   Ar  218   4.178   2.472   5.589
    1   AR   Ar  219   4.322   4.239   2.182
    1   AR   Ar  220   4.497   4.798   0.758
    1   AR   Ar  221   6.316   6.402   3.579
    1   AR   Ar  222   6.028   6.798   5.975
    1   AR   Ar  223   0.047   0.693   5.999
    1   AR   Ar  224   4.659   1.280   5.140
    1   AR   Ar  225   6.365   2.955   2.288
    1   AR   Ar  226   2.529   3.515   4.009
    1   AR   Ar  227   1.570   2.699   3.859
    1   AR   Ar  228   5.979   0.663   2.396
    1   AR   Ar  229   5.549   3.953  -0.420
    1   AR   Ar  230   4.110   4.613   3.686
    1   AR   Ar  231   5.380   2.463   3.165
    1   AR   Ar  232   5.287   2.615   1.812
    1   AR   Ar  233   6.958   1.560   2.897
    1   AR   Ar  234   6.496   3.990   4.514
    1   AR   Ar  235   6.945   1.130   4.658
    1   AR   Ar  236   4.274   3.943   4.611
    1   AR   Ar  237   3.946   1.733   7.317
    1   AR   Ar  238   4.582   4.769   6.513
    1   AR   Ar  239   1.641   4.941  10.441
    1   AR   Ar  240   1.628   3.312   7.075
    1   AR   Ar  241   0.697   6.713  -0.528
    1   AR   Ar  242   5.827   6.184   1.732
    1   AR   Ar  243   4.303   5.652   1.501
    1   AR   Ar  244   5.624   6.442   0.445
    1   AR   Ar  245   3.084   1.480   3.253
    1   AR   Ar  246   4.818   5.932  -1.388
    1   AR   Ar  247   6.924   3.378   1.358
    1   AR   Ar  248   5.638   5.370  -0.430
    1   AR   Ar  249   4.196   0.496   1.025
    1   AR   Ar  250   5.229   6.564   3.570
    1   AR   Ar  251   5.465   3.838   4.746
    1   AR   Ar  252   2.165   5.031   1.770
    1   AR   Ar  253   5.215   2.468   6.806
    1   AR   Ar  254   4.067   4.383  13.554
    1   AR   Ar  255   4.981   5.710   9.521
    1   AR   Ar  256   5.648   5.447   3.571
    7.12000  7.12000 12.00000
Argon-slab step 5930
  256
    1   AR   Ar    1   4.069   2.871  -0.781
    1   AR   Ar    2   5.316   0.357   1.272
    1   AR   Ar    3   4.428   3.848  -1.186
    1   AR   Ar    4   2.335   0.690   1.123
    1   AR   Ar    5   6.473   5.645   0.173
    1   AR   Ar    6   1.467   1.042   2.113
    1   AR   Ar    7   5.521   4.307   2.461
    1   AR   Ar    8   6.099   2.806  -0.172
    1   AR   Ar    9   0.151   5.272   4.856
    1   AR   Ar   10   5.764   4.811   5.708
    1   AR   Ar   11   0.778   6.818   4.607
    1   AR   Ar   12   6.900   2.156   4.305
    1   AR   Ar   13   7.023   6.991   5.316
    1   AR   Ar   14   4.349   1.662   6.274
    1   AR   Ar   15   3.062   5.886   9.195
    1   AR   Ar   16   0.992   7.098   6.578
    1   AR   Ar   17   5.680   3.402   0.724
    1   AR   Ar   18   7.108   3.665  -2.903
    1   AR   Ar   19   4.480   5.441  -0.211
    1   AR   Ar   20   6.606   2.774  -2.478
    1   AR   Ar   21   2.477   1.362   2.301
    1   AR   Ar   22   4.605   0.505   1.937
    1   AR   Ar   23   1.295   5.407  -0.237
    1   AR   Ar   24   6.161   2.822   4.432
    1   AR   Ar   25   1.172   3.555   5.669
    1   AR   Ar   26   5.776   5.821   4.962
    1   AR   Ar   27   0.721   0.856   0.814
    1   AR   Ar   28   3.121   2.210   4.366
    1   AR   Ar   29   5.334   6.622   7.146
    1   AR   Ar   30   5.749   0.513   3.505
    1   AR   Ar   31   1.136   1.083   6.759
    1   AR   Ar   32   1.561   2.555   6.135
    1   AR   Ar   33   5.542   5.336   0.653
    1   AR   Ar   34   1.446   5.368   3.329
    1   AR   Ar   35   5.961   5.241   2.427
    1   AR   Ar   36   4.417   2.120  -4.035
    1   AR   Ar   37   4.671   3.486   1.132
    1   AR   Ar   38   6.169   5.016   4.608
    1   AR   Ar   39   6.893   3.110   3.698
    1   AR   Ar   40   0.489   3.950   1.979
    1   AR   Ar   41   0.449   1.765   3.636
    1   AR   Ar   42   4.780   4.757   5.198
    1   AR   Ar   43   7.093   3.061   6.041
    1   AR   Ar   44   1.647   3.932   2.943
    1   AR   Ar   45   2.327   3.892   5.000
    1   AR   Ar   46   5.870   5.832   6.629
    1   AR   Ar   47   2.678   3.641   6.187
    1   AR   Ar   48   0.659   3.809   7.406
    1   AR   Ar   49   7.030   2.442   0.068
    1   AR   Ar   50   2.570   4.830   0.630
    1   AR   Ar   51   5.541   3.399   2.989
    1   AR   Ar   52   5.655   3.301  -2.221
    1   AR   Ar   53   4.501   0.160   3.253
    1   AR   Ar   54   5.825   6.750   2.628
    1   AR   Ar   55   7.073   5.055   2.587
    1   AR   Ar   56   5.940   1.866   3.850
    1   AR   Ar   57   4.848   5.088   2.672
    1   AR   Ar   58   1.236   3.500   4.635
    1   AR   Ar   59   4.037   5.462   5.765
    1   AR   Ar   60   0.919   5.142   1.986
    1   AR   Ar   61   6.642   4.749   6.842
    1   AR   Ar   62   7.054   4.108   5.624
    1   AR   Ar   63   2.035   1.430   7.610
    1   AR   Ar   64   0.754   4.919   3.921
    1   AR   Ar   65   3.879   1.040   2.700
    1   AR   Ar   66   1.034   2.036   0.565
    1   AR   Ar   67   4.636   1.364  -1.160
    1   AR   Ar   68   6.450   1.091   1.132
    1   AR   Ar   69   2.856   2.197   1.402
    1   AR   Ar   70   0.214   1.120   1.655
    1   AR   Ar   71   2.819   0.471   2.864
    1   AR   Ar   72   4.447   1.578   1.740
    1   AR   Ar   73   3.488   0.167   3.792
    1   AR   Ar   74   0.735   0.785   3.387
    1   AR   Ar   75   3.182   1.310   6.116
    1   AR   Ar   76   2.709   0.094   1.881
    1   AR   Ar   77   1.316   5.969   6.786
    1   AR   Ar   78   6.832   5.562   5.895
    1   AR   Ar   79   3.675   6.142   4.932
    1   AR   Ar   80   3.608   4.327   6.297
    1   AR   Ar   81   1.724   6.647   2.110
    1   AR   Ar   82   6.747   4.786   1.351
    1   AR   Ar   83   1.768   2.927   0.727
    1   AR   Ar   84   0.882   3.991   0.929
    1   AR   Ar   85   0.635   2.729  -1.093
    1   AR   Ar   86   1.307   5.860   1.341
    1   AR   Ar   87   4.388   2.020   2.716
    1   AR   Ar   88   3.593   4.763   1.673
    1   AR   Ar   89   6.352   2.554   0.901
    1   AR   Ar   90   3.605   0.766   7.036
    1   AR   Ar   91   1.780   1.081   3.092
    1   AR   Ar   92   3.409   3.327   1.048
    1   AR   Ar   93   1.342   1.318   5.735
    1   AR   Ar   94   0.073   6.674   9.858
    1   AR   Ar   95   4.803   0.430   6.771
    1   AR   Ar   96   1.652   0.165   5.934
    1   AR   Ar   97   5.487   1.943  -1.879
    1   AR   Ar   98   1.747   4.354   3.940
    1   AR   Ar   99   5.810   6.543  -0.656
    1   AR   Ar  100   5.447   1.816  -3.434
    1   AR   Ar  101   3.988   5.663   2.784
    1   AR   Ar  102   4.310   2.542   1.470
    1   AR   Ar  103   1.649   3.471   1.683
    1   AR   Ar  104   3.164   0.371  -0.681
    1   AR   Ar  105   2.474   2.453   3.254
    1   AR   Ar  106   4.374   1.250   3.876
    1   AR   Ar  107   1.202   4.675   5.341
    1   AR   Ar  108   2.321   0.682   3.886
    1   AR   Ar  109   2.588   5.102   4.905
    1   AR   Ar  110   2.211   2.881   4.932
    1   AR   Ar  111   4.179   4.071   7.294
    1   AR   Ar  112   6.656   6.662   6.987
    1   AR   Ar  113   6.143   6.273  -1.588
    1   AR   Ar  114   3.335   0.388   0.594
    1   AR   Ar  115   6.470   4.632  -0.639
    1   AR   Ar  116   5.326   1.534   1.149
    1   AR   Ar  117   0.010   4.274   3.366
    1   AR   Ar  118   2.004   6.259   3.625
    1   AR   Ar  119   1.677   2.904   2.701
    1   AR   Ar  120   1.864   0.174   2.966
    1   AR   Ar  121   5.617   5.048   7.308
    1   AR   Ar  122   2.666   4.734   3.611
    1   AR   Ar  123   3.133   2.134   5.571
    1   AR   Ar  124   0.240   6.214   0.943
    1   AR   Ar  125   6.037   4.274   3.582
    1   AR   Ar  126   0.125   1.377   6.920
    1   AR   Ar  127   4.120   3.416   6.101
    1   AR   Ar  128   1.437   4.627   7.341
    1   AR   Ar  129   1.777   5.682   4.455
    1   AR   Ar  130   5.920   0.543  -4.705
    1   AR   Ar  131   4.192   0.189   0.031
    1   AR   Ar  132   1.791   2.214   1.909
    1   AR   Ar  133   4.486   0.104   4.449
    1   AR   Ar  134   3.692   1.236   4.844
    1   AR   Ar  135   5.484   0.617   5.489
    1   AR   Ar  136   4.537   6.430   2.324
    1   AR   Ar  137   1.959   4.876   6.046
    1   AR   Ar  138   5.778   1.511   6.058
    1   AR   Ar  139   6.230   2.309   5.301
    1   AR   Ar  140   4.796   6.302   4.916
    1   AR   Ar  141   3.414   5.414   3.895
    1   AR   Ar  142   3.858   5.705   8.415
    1   AR   Ar  143   5.247   6.621   8.241
    1   AR   Ar  144   0.144   2.927   4.943
    1   AR   Ar  145   4.526   4.743  -1.708
    1   AR   Ar  146   4.059   2.296   3.664
    1   AR   Ar  147   4.492   4.387  -0.094
    1   AR   Ar  148   2.011   6.104   0.211
    1   AR   Ar  149   5.807   1.834  -0.873
    1   AR   Ar  150   0.818   1.844   2.583
    1   AR   Ar  151   3.040   2.787   2.270
    1   AR   Ar  152   0.359   0.732  -0.846
    1   AR   Ar  153   4.991   1.075   3.018
    1   AR   Ar  154   5.081   3.100   3.895
    1   AR   Ar  155   5.084   3.443   5.726
    1   AR   Ar  156   3.288   4.046   3.044
    1   AR   Ar  157   3.222   5.382   6.465
    1   AR   Ar  158   1.410   2.334   7.476
    1   AR   Ar  159   3.966   0.143   5.362
    1   AR   Ar  160   1.060   1.906   4.701
    1   AR   Ar  161   5.140   4.614   4.049
    1   AR   Ar  162   3.676   5.353  -1.150
    1   AR   Ar  163   6.654   4.064   2.264
    1   AR   Ar  164   2.261   5.781   2.701
    1   AR   Ar  165   3.520   4.230   0.571
    1   AR   Ar  166   3.252   3.492   5.426
    1   AR   Ar  167   6.187   0.031   4.447
    1   AR   Ar  168   6.200   4.633  -2.284
    1   AR   Ar  169   4.453   3.390   2.887
    1   AR   Ar  170   2.590   2.765   6.749
    1   AR   Ar  171   4.667   5.479   3.568
    1   AR   Ar  172   3.782   2.965   4.463
    1   AR   Ar  173   0.265   2.455   7.561
    1   AR   Ar  174   2.755   6.075   4.369
    1   AR   Ar  175   0.873   0.164   7.762
    1   AR   Ar  176   3.414   3.128   3.408
    1   AR   Ar  177   0.513   3.369  -2.010
    1   AR   Ar  178   2.220   6.696   1.072
    1   AR   Ar  179   3.306   5.902   1.048
    1   AR   Ar  180   4.876   5.917  -6.950
    1   AR   Ar  181   7.023   6.197   2.173
    1   AR   Ar  182   0.705   5.946   2.678
    1   AR   Ar  183   5.345   5.158   1.626
    1   AR   Ar  184   3.500   5.224   0.067
    1   AR   Ar  185   3.192   4.252   4.519
    1   AR   Ar  186   3.079   6.417   3.204
    1   AR   Ar  187   4.078   6.371   3.848
    1   AR   Ar  188   3.300   0.955   1.789
    1   AR   Ar  189   6.041   3.071   6.386
    1   AR   Ar  190   1.765   0.507   4.976
    1   AR   Ar  191   4.219   5.250   4.511
    1   AR   Ar  192   3.788   2.791   6.872
    1   AR   Ar  193   3.247   5.964   2.287
    1   AR   Ar  194   4.812   6.415  -0.423
    1   AR   Ar  195   6.319   1.869   2.133
    1   AR   Ar  196   4.387   6.624   1.215
    1   AR   Ar  197   4.825   3.163  -0.053
    1   AR   Ar  198   6.765   6.951   0.330
    1   AR   Ar  199   0.882   0.208   2.277
    1   AR   Ar  200   5.171   2.322   0.506
    1   AR   Ar  201   6.842   5.358   3.783
    1   AR   Ar  202   5.931   1.106   4.582
    1   AR   Ar  203   6.945   0.277   3.611
    1   AR   Ar  204   4.554   5.653   7.491
    1   AR   Ar  205   5.321   1.756   2.352
    1   AR   Ar  206   6.358   0.525   6.538
    1   AR   Ar  207   0.416   4.080   4.576
    1   AR   Ar  208   0.820   6.566   3.575
    1   AR   Ar  209   5.691   3.099  -1.138
    1   AR   Ar  210   3.165   2.495   0.219
    1   AR   Ar  211   6.703   3.611   0.208
    1   AR   Ar  212   6.226   4.524   0.432
    1   AR   Ar  213   3.736   1.614   0.699
    1   AR   Ar  214   5.330   4.342   1.104
    1   AR   Ar  215   0.533   3.028   2.446
    1   AR   Ar  216   1.983   2.588  -0.421
    1   AR   Ar  217   5.060   1.929   4.241
    1   AR   Ar  218   4.167   2.478   5.606
    1   AR   Ar  219   4.322   4.251   2.202
    1   AR   Ar  220   4.490   4.826   0.731
    1   AR   Ar  221   6.321   6.402   3.567
    1   AR   Ar  222   6.028   6.826   5.970
    1   AR   Ar  223   0.083   0.697   6.004
    1   AR   Ar  224   4.636   1.295   5.128
    1   AR   Ar  225   6.386   2.980   2.279
    1   AR   Ar  226   2.543   3.522   4.009
    1   AR   Ar  227   1.551   2.701   3.828
    1   AR   Ar  228   5.982   0.663   2.397
    1   AR   Ar  229   5.570   3.957  -0.403
    1   AR   Ar  230   4.086   4.625   3.709
    1   AR   Ar  231   5.409   2.432   3.161
    1   AR   Ar  232   5.269   2.587   1.791
    1   AR   Ar  233   6.983   1.580   2.888
    1   AR   Ar  234   6.488   3.988   4.543
    1   AR   Ar  235   6.981   1.111   4.698
    1   AR   Ar  236   4.249   3.920   4.611
    1   AR   Ar  237   3.961   1.731   7.319
    1   AR   Ar  238   4.577   4.798   6.528
    1   AR   Ar  239   1.701   4.947  10.444
    1   AR   Ar  240   1.616   3.335   7.098
    1   AR   Ar  241   0.674   6.715  -0.529
    1   AR   Ar  242   5.802   6.155   1.739
    1   AR   Ar  243   4.304   5.629   1.497
    1   AR   Ar  244   5.631   6.444   0.444
    1   AR   Ar  245   3.090   1.456   3.247
    1   AR   Ar  246   4.793   5.923  -1.402
    1   AR   Ar  247   6.930   3.375   1.386
    1   AR   Ar  248   5.629   5.324  -0.441
    1   AR   Ar  249   4.200   0.511   1.034
    1   AR   Ar  250   5.214   6.561   3.582
    1   AR   Ar  251   5.479   3.818   4.744
    1   AR   Ar  252   2.127   5.053   1.762
    1   AR   Ar  253   5.197   2.429   6.832
    1   AR   Ar  254   4.080   4.375  13.569
    1   AR   Ar  255   4.979   5.715   9.505
    1   AR   Ar  256   5.664   5.433   3.594
    7.12000  7.12000 12.00000
Argon-slab step 5935
  256
    1   AR   Ar    1   4.067   2.896  -0.763
    1   AR   Ar    2   5.308   0.340   1.258
    1   AR   Ar    3   4.408   3.855  -1.217
    1   AR   Ar    4   2.365   0.678   1.108
    1   AR   Ar    5   6.434   5.643   0.160
    1   AR   Ar    6   1.459   1.045   2.113
    1   AR   Ar    7   5.504   4.319   2.460
    1   AR   Ar    8   6.109   2.799  -0.120
    1   AR   Ar    9   0.170   5.240   4.872
    1   AR   Ar   10   5.751   4.790   5.703
    1   AR   Ar   11   0.784   6.782   4.600
    1   AR   Ar   12   6.857   2.161   4.273
    1   AR   Ar   13   7.014   6.981   5.316
    1   AR   Ar   14   4.316   1.641   6.299
    1   AR   Ar   15   3.080   5.912   9.184
    1   AR   Ar   16   0.969   7.085   6.608
    1   AR   Ar   17   5.698   3.417   0.744
    1   AR   Ar   18   7.091   3.640  -2.912
    1   AR   Ar   19   4.459   5.481  -0.220
    1   AR   Ar   20   6.604   2.766  -2.507
    1   AR   Ar   21   2.476   1.331   2.275
    1   AR   Ar   22   4.583   0.542   1.968
    1   AR   Ar   23   1.342   5.393  -0.259
    1   AR   Ar   24   6.146   2.852   4.432
    1   AR   Ar   25   1.174   3.548   5.712
    1   AR   Ar   26   5.771   5.819   4.973
    1   AR   Ar   27   0.690   0.821   0.821
    1   AR   Ar   28   3.138   2.199   4.348
    1   AR   Ar   29   5.339   6.625   7.130
    1   AR   Ar   30   5.742   0.517   3.505
    1   AR   Ar   31   1.173   1.064   6.753
    1   AR   Ar   32   1.607   2.595   6.104
    1   AR   Ar   33   5.528   5.367   0.641
    1   AR   Ar   34   1.434   5.350   3.326
    1   AR   Ar   35   6.029   5.264   2.431
    1   AR   Ar   36   4.407   2.119  -4.039
    1   AR   Ar   37   4.649   3.484   1.118
    1   AR   Ar   38   6.193   5.009   4.599
    1   AR   Ar   39   6.887   3.103   3.676
    1   AR   Ar   40   0.503   3.930   1.984
    1   AR   Ar   41   0.457   1.753   3.653
    1   AR   Ar   42   4.780   4.740   5.189
    1   AR   Ar   43   7.079   3.049   6.028
    1   AR   Ar   44   1.671   3.946   2.952
    1   AR   Ar   45   2.306   3.895   5.010
    1   AR   Ar   46   5.855   5.851   6.632
    1   AR   Ar   47   2.667   3.656   6.162
    1   AR   Ar   48   0.662   3.816   7.387
    1   AR   Ar   49   7.030   2.467   0.043
    1   AR   Ar   50   2.566   4.842   0.646
    1   AR   Ar   51   5.527   3.404   2.980
    1   AR   Ar   52   5.637   3.285  -2.231
    1   AR   Ar   53   4.490   0.119   3.257
    1   AR   Ar   54   5.804   6.757   2.655
    1   AR   Ar   55   7.086   5.070   2.603
    1   AR   Ar   56   5.969   1.847   3.840
    1   AR   Ar   57   4.842   5.110   2.665
    1   AR   Ar   58   1.207   3.462   4.609
    1   AR   Ar   59   4.023   5.493   5.765
    1   AR   Ar   60   0.885   5.104   1.965
    1   AR   Ar   61   6.673   4.745   6.862
    1   AR   Ar   62   7.068   4.086   5.609
    1   AR   Ar   63   2.069   1.406   7.597
    1   AR   Ar   64   0.767   4.931   3.909
    1   AR   Ar   65   3.870   1.033   2.730
    1   AR   Ar   66   1.024   2.005   0.574
    1   AR   Ar   67   4.651   1.364  -1.172
    1   AR   Ar   68   6.456   1.082   1.127
    1   AR   Ar   69   2.879   2.202   1.429
    1   AR   Ar   70   0.234   1.099   1.628
    1   AR   Ar   71   2.818   0.460   2.874
    1   AR   Ar   72   4.444   1.625   1.779
    1   AR   Ar   73   3.521   0.177   3.785
    1   AR   Ar   74   0.736   0.762   3.381
    1   AR   Ar   75   3.191   1.323   6.151
    1   AR   Ar   76   2.706   0.070   1.883
    1   AR   Ar   77   1.315   5.974   6.772
    1   AR   Ar   78   6.865   5.526   5.907
    1   AR   Ar   79   3.711   6.133   4.953
    1   AR   Ar   80   3.614   4.328   6.324
    1   AR   Ar   81   1.732   6.614   2.110
    1   AR   Ar   82   6.734   4.787   1.384
    1   AR   Ar   83   1.793   2.937   0.730
    1   AR   Ar   84   0.870   3.982   0.911
    1   AR   Ar   85   0.645   2.727  -1.112
    1   AR   Ar   86   1.270   5.858   1.346
    1   AR   Ar   87   4.392   1.986   2.722
    1   AR   Ar   88   3.605   4.762   1.691
    1   AR   Ar   89   6.334   2.534   0.904
    1   AR   Ar   90   3.617   0.759   7.046
    1   AR   Ar   91   1.781   1.090   3.118
    1   AR   Ar   92   3.417   3.339   1.072
    1   AR   Ar   93   1.352   1.309   5.744
    1   AR   Ar   94   0.085   6.636   9.864
    1   AR   Ar   95   4.817   0.443   6.771
    1   AR   Ar   96   1.662   0.214   5.950
    1   AR   Ar   97   5.487   1.992  -1.930
    1   AR   Ar   98   1.730   4.331   3.932
    1   AR   Ar   99   5.815   6.556  -0.645
    1   AR   Ar  100   5.410   1.798  -3.444
    1   AR   Ar  101   3.953   5.684   2.799
    1   AR   Ar  102   4.319   2.553   1.433
    1   AR   Ar  103   1.675   3.455   1.703
    1   AR   Ar  104   3.165   0.351  -0.680
    1   AR   Ar  105   2.490   2.449   3.265
    1   AR   Ar  106   4.376   1.262   3.880
    1   AR   Ar  107   1.221   4.678   5.335
    1   AR   Ar  108   2.335   0.688   3.893
    1   AR   Ar  109   2.597   5.099   4.930
    1   AR   Ar  110   2.190   2.860   4.948
    1   AR   Ar  111   4.169   4.089   7.320
    1   AR   Ar  112   6.662   6.653   6.986
    1   AR   Ar  113   6.122   6.276  -1.582
    1   AR   Ar  114   3.342   0.411   0.620
    1   AR   Ar  115   6.450   4.636  -0.633
    1   AR   Ar  116   5.346   1.502   1.184
    1   AR   Ar  117   0.025   4.274   3.350
    1   AR   Ar  118   1.989   6.238   3.629
    1   AR   Ar  119   1.704   2.880   2.697
    1   AR   Ar  120   1.856   0.155   2.979
    1   AR   Ar  121   5.606   5.083   7.329
    1   AR   Ar  122   2.684   4.733   3.599
    1   AR   Ar  123   3.120   2.158   5.564
    1   AR   Ar  124   0.233   6.206   0.944
    1   AR   Ar  125   6.035   4.283   3.596
    1   AR   Ar  126   0.130   1.371   6.920
    1   AR   Ar  127   4.086   3.457   6.091
    1   AR   Ar  128   1.415   4.584   7.402
    1   AR   Ar  129   1.781   5.670   4.469
    1   AR   Ar  130   5.925   0.536  -4.707
    1   AR   Ar  131   4.164   0.221   0.010
    1   AR   Ar  132   1.789   2.201   1.910
    1   AR   Ar  133   4.526   0.094   4.444
    1   AR   Ar  134   3.682   1.231   4.838
    1   AR   Ar  135   5.456   0.630   5.535
    1   AR   Ar  136   4.510   6.456   2.297
    1   AR   Ar  137   1.943   4.891   6.022
    1   AR   Ar  138   5.798   1.501   6.052
    1   AR   Ar  139   6.238   2.296   5.283
    1   AR   Ar  140   4.783   6.285   4.940
    1   AR   Ar  141   3.395   5.409   3.872
    1   AR   Ar  142   3.828   5.690   8.447
    1   AR   Ar  143   5.260   6.621   8.247
    1   AR   Ar  144   0.138   2.941   4.926
    1   AR   Ar  145   4.514   4.763  -1.680
    1   AR   Ar  146   4.041   2.290   3.710
    1   AR   Ar  147   4.491   4.357  -0.138
    1   AR   Ar  148   2.031   6.127   0.242
    1   AR   Ar  149   5.786   1.840  -0.843
    1   AR   Ar  150   0.809   1.807   2.563
    1   AR   Ar  151   3.051   2.760   2.268
    1   AR   Ar  152   0.344   0.708  -0.893
    1   AR   Ar  153   4.972   1.088   3.008
    1   AR   Ar  154   5.052   3.071   3.860
    1   AR   Ar  155   5.023   3.453   5.689
    1   AR   Ar  156   3.275   4.036   3.064
    1   AR   Ar  157   3.213   5.375   6.442
    1   AR   Ar  158   1.381   2.341   7.491
    1   AR   Ar  159   3.930   0.131   5.353
    1   AR   Ar  160   1.046   1.914   4.717
    1   AR   Ar  161   5.136   4.595   4.052
    1   AR   Ar  162   3.704   5.336  -1.133
    1   AR   Ar  163   6.649   4.083   2.266
    1   AR   Ar  164   2.266   5.785   2.690
    1   AR   Ar  165   3.530   4.238   0.603
    1   AR   Ar  166   3.246   3.496   5.414
    1   AR   Ar  167   6.222   0.068   4.441
    1   AR   Ar  168   6.202   4.634  -2.251
    1   AR   Ar  169   4.453   3.400   2.869
    1   AR   Ar  170   2.592   2.789   6.767
    1   AR   Ar  171   4.668   5.508   3.574
    1   AR   Ar  172   3.770   2.986   4.428
    1   AR   Ar  173   0.236   2.468   7.537
    1   AR   Ar  174   2.697   6.118   4.378
    1   AR   Ar  175   0.838   0.172   7.755
    1   AR   Ar  176   3.442   3.135   3.437
    1   AR   Ar  177   0.551   3.355  -2.024
    1   AR   Ar  178   2.233   6.717   1.072
    1   AR   Ar  179   3.265   5.903   1.036
    1   AR   Ar  180   4.864   5.925  -6.979
    1   AR   Ar  181   7.009   6.216   2.197
    1   AR   Ar  182   0.708   5.950   2.661
    1   AR   Ar  183   5.357   5.171   1.677
    1   AR   Ar  184   3.499   5.255   0.098
    1   AR   Ar  185   3.222   4.274   4.545
    1   AR   Ar  186   3.072   6.394   3.198
    1   AR   Ar  187   4.107   6.396   3.857
    1   AR   Ar  188   3.296   0.975   1.782
    1   AR   Ar  189   6.067   3.046   6.377
    1   AR   Ar  190   1.778   0.466   4.985
    1   AR   Ar  191   4.229   5.247   4.513
    1   AR   Ar  192   3.790   2.781   6.901
    1   AR   Ar  193   3.235   5.976   2.295
    1   AR   Ar  194   4.821   6.430  -0.428
    1   AR   Ar  195   6.338   1.849   2.137
    1   AR   Ar  196   4.384   6.627   1.214
    1   AR   Ar  197   4.840   3.147  -0.031
    1   AR   Ar  198   6.790   6.968   0.334
    1   AR   Ar  199   0.930   0.185   2.251
    1   AR   Ar  200   5.173   2.324   0.517
    1   AR   Ar  201   6.842   5.368   3.778
    1   AR   Ar  202   5.920   1.094   4.589
    1   AR   Ar  203   6.921   0.279   3.630
    1   AR   Ar  204   4.556   5.675   7.460
    1   AR   Ar  205   5.341   1.716   2.366
    1   AR   Ar  206   6.365   0.553   6.548
    1   AR   Ar  207   0.393   4.061   4.569
    1   AR   Ar  208   0.829   6.593   3.559
    1   AR   Ar  209   5.699   3.123  -1.118
    1   AR   Ar  210   3.194   2.512   0.248
    1   AR   Ar  211   6.721   3.607   0.242
    1   AR   Ar  212   6.200   4.557   0.403
    1   AR   Ar  213   3.714   1.617   0.711
    1   AR   Ar  214   5.291   4.362   1.097
    1   AR   Ar  215   0.539   3.014   2.436
    1   AR   Ar  216   1.987   2.574  -0.403
    1   AR   Ar  217   5.098   1.924   4.221
    1   AR   Ar  218   4.158   2.493   5.615
    1   AR   Ar  219   4.325   4.260   2.224
    1   AR   Ar  220   4.482   4.828   0.730
    1   AR   Ar  221   6.326   6.403   3.555
    1   AR   Ar  222   6.027   6.850   5.964
    1   AR   Ar  223   0.127   0.703   6.006
    1   AR   Ar  224   4.624   1.310   5.118
    1   AR   Ar  225   6.406   3.005   2.271
    1   AR   Ar  226   2.556   3.528   4.007
    1   AR   Ar  227   1.532   2.705   3.798
    1   AR   Ar  228   5.983   0.667   2.397
    1   AR   Ar  229   5.591   3.962  -0.384
    1   AR   Ar  230   4.059   4.628   3.727
    1   AR   Ar  231   5.435   2.391   3.156
    1   AR   Ar  232   5.259   2.566   1.767
    1   AR   Ar  233   6.996   1.594   2.870
    1   AR   Ar  234   6.482   3.983   4.571
    1   AR   Ar  235   7.019   1.091   4.738
    1   AR   Ar  236   4.226   3.901   4.610
    1   AR   Ar  237   3.977   1.732   7.321
    1   AR   Ar  238   4.574   4.829   6.543
    1   AR   Ar  239   1.762   4.954  10.447
    1   AR   Ar  240   1.604   3.359   7.119
    1   AR   Ar  241   0.651   6.718  -0.529
    1   AR   Ar  242   5.776   6.125   1.744
    1   AR   Ar  243   4.305   5.601   1.497
    1   AR   Ar  244   5.638   6.445   0.443
    1   AR   Ar  245   3.094   1.435   3.245
    1   AR   Ar  246   4.768   5.912  -1.416
    1   AR   Ar  247   6.936   3.372   1.413
    1   AR   Ar  248   5.617   5.279  -0.452
    1   AR   Ar  249   4.242   0.514   1.028
    1   AR   Ar  250   5.212   6.553   3.604
    1   AR   Ar  251   5.488   3.798   4.742
    1   AR   Ar  252   2.088   5.076   1.755
    1   AR   Ar  253   5.188   2.401   6.822
    1   AR   Ar  254   4.094   4.368  13.584
    1   AR   Ar  255   4.977   5.720   9.489
    1   AR   Ar  256   5.691   5.419   3.615
    7.12000  7.12000 12.00000
Argon-slab step 5940
  256
    1   AR   Ar    1   4.064   2.920  -0.745
    1   AR   Ar    2   5.305   0.323   1.241
    1   AR   Ar    3   4.389   3.857  -1.244
    1   AR   Ar    4   2.394   0.671   1.092
    1   AR   Ar    5   6.397   5.643   0.147
    1   AR   Ar    6   1.453   1.052   2.108
    1   AR   Ar    7   5.488   4.331   2.455
    1   AR   Ar    8   6.106   2.796  -0.070
    1   AR   Ar    9   0.164   5.224   4.878
    1   AR   Ar   10   5.740   4.769   5.697
    1   AR   Ar   11   0.790   6.747   4.595
    1   AR   Ar   12   6.821   2.162   4.245
    1   AR   Ar   13   7.004   6.971   5.316
    1   AR   Ar   14   4.283   1.620   6.322
    1   AR   Ar   15   3.096   5.938   9.174
    1   AR   Ar   16   0.936   7.070   6.647
    1   AR   Ar   17   5.710   3.411   0.785
    1   AR   Ar   18   7.074   3.617  -2.922
    1   AR   Ar   19   4.441   5.519  -0.229
    1   AR   Ar   20   6.603   2.753  -2.526
    1   AR   Ar   21   2.477   1.305   2.247
    1   AR   Ar   22   4.562   0.580   2.013
    1   AR   Ar   23   1.389   5.379  -0.281
    1   AR   Ar   24   6.122   2.891   4.429
    1   AR   Ar   25   1.175   3.542   5.755
    1   AR   Ar   26   5.761   5.825   4.988
    1   AR   Ar   27   0.667   0.782   0.815
    1   AR   Ar   28   3.150   2.182   4.329
    1   AR   Ar   29   5.344   6.630   7.114
    1   AR   Ar   30   5.736   0.519   3.507
    1   AR   Ar   31   1.211   1.043   6.750
    1   AR   Ar   32   1.655   2.635   6.074
    1   AR   Ar   33   5.510   5.398   0.630
    1   AR   Ar   34   1.420   5.327   3.331
    1   AR   Ar   35   6.101   5.289   2.440
    1   AR   Ar   36   4.371   2.107  -4.041
    1   AR   Ar   37   4.628   3.484   1.102
    1   AR   Ar   38   6.221   4.993   4.586
    1   AR   Ar   39   6.864   3.133   3.651
    1   AR   Ar   40   0.526   3.919   1.987
    1   AR   Ar   41   0.476   1.743   3.678
    1   AR   Ar   42   4.784   4.718   5.185
    1   AR   Ar   43   7.066   3.036   6.013
    1   AR   Ar   44   1.694   3.960   2.957
    1   AR   Ar   45   2.282   3.904   5.022
    1   AR   Ar   46   5.843   5.869   6.630
    1   AR   Ar   47   2.645   3.677   6.148
    1   AR   Ar   48   0.663   3.821   7.367
    1   AR   Ar   49   7.041   2.490   0.019
    1   AR   Ar   50   2.563   4.856   0.662
    1   AR   Ar   51   5.519   3.413   2.969
    1   AR   Ar   52   5.619   3.269  -2.241
    1   AR   Ar   53   4.478   0.081   3.258
    1   AR   Ar   54   5.780   6.762   2.683
    1   AR   Ar   55   7.100   5.086   2.619
    1   AR   Ar   56   6.016   1.824   3.822
    1   AR   Ar   57   4.837   5.132   2.652
    1   AR   Ar   58   1.186   3.420   4.584
    1   AR   Ar   59   4.013   5.522   5.764
    1   AR   Ar   60   0.850   5.063   1.945
    1   AR   Ar   61   6.703   4.743   6.881
    1   AR   Ar   62   7.082   4.064   5.593
    1   AR   Ar   63   2.102   1.382   7.582
    1   AR   Ar   64   0.770   4.938   3.905
    1   AR   Ar   65   3.876   1.018   2.762
    1   AR   Ar   66   1.013   1.973   0.583
    1   AR   Ar   67   4.666   1.374  -1.181
    1   AR   Ar   68   6.456   1.075   1.120
    1   AR   Ar   69   2.902   2.204   1.452
    1   AR   Ar   70   0.251   1.085   1.621
    1   AR   Ar   71   2.817   0.460   2.884
    1   AR   Ar   72   4.440   1.658   1.813
    1   AR   Ar   73   3.547   0.189   3.782
    1   AR   Ar   74   0.740   0.736   3.372
    1   AR   Ar   75   3.202   1.331   6.189
    1   AR   Ar   76   2.704   0.043   1.891
    1   AR   Ar   77   1.313   5.979   6.757
    1   AR   Ar   78   6.896   5.490   5.920
    1   AR   Ar   79   3.744   6.126   4.971
    1   AR   Ar   80   3.616   4.333   6.353
    1   AR   Ar   81   1.743   6.579   2.109
    1   AR   Ar   82   6.721   4.787   1.419
    1   AR   Ar   83   1.817   2.946   0.733
    1   AR   Ar   84   0.857   3.973   0.893
    1   AR   Ar   85   0.655   2.724  -1.129
    1   AR   Ar   86   1.237   5.860   1.350
    1   AR   Ar   87   4.394   1.958   2.735
    1   AR   Ar   88   3.606   4.793   1.686
    1   AR   Ar   89   6.315   2.513   0.910
    1   AR   Ar   90   3.630   0.751   7.055
    1   AR   Ar   91   1.778   1.124   3.146
    1   AR   Ar   92   3.425   3.343   1.100
    1   AR   Ar   93   1.355   1.289   5.723
    1   AR   Ar   94   0.088   6.624   9.872
    1   AR   Ar   95   4.832   0.458   6.771
    1   AR   Ar   96   1.679   0.264   5.967
    1   AR   Ar   97   5.486   2.042  -1.980
    1   AR   Ar   98   1.712   4.309   3.929
    1   AR   Ar   99   5.824   6.570  -0.629
    1   AR   Ar  100   5.403   1.774  -3.446
    1   AR   Ar  101   3.940   5.695   2.833
    1   AR   Ar  102   4.298   2.562   1.447
    1   AR   Ar  103   1.700   3.440   1.726
    1   AR   Ar  104   3.167   0.331  -0.677
    1   AR   Ar  105   2.510   2.444   3.277
    1   AR   Ar  106   4.373   1.268   3.883
    1   AR   Ar  107   1.234   4.677   5.323
    1   AR   Ar  108   2.353   0.692   3.903
    1   AR   Ar  109   2.606   5.095   4.956
    1   AR   Ar  110   2.169   2.836   4.963
    1   AR   Ar  111   4.158   4.108   7.344
    1   AR   Ar  112   6.670   6.657   6.983
    1   AR   Ar  113   6.097   6.293  -1.573
    1   AR   Ar  114   3.336   0.434   0.645
    1   AR   Ar  115   6.442   4.640  -0.646
    1   AR   Ar  116   5.369   1.469   1.222
    1   AR   Ar  117   0.027   4.279   3.341
    1   AR   Ar  118   1.990   6.198   3.605
    1   AR   Ar  119   1.729   2.858   2.694
    1   AR   Ar  120   1.843   0.110   2.988
    1   AR   Ar  121   5.593   5.117   7.351
    1   AR   Ar  122   2.695   4.729   3.588
    1   AR   Ar  123   3.107   2.188   5.553
    1   AR   Ar  124   0.226   6.198   0.946
    1   AR   Ar  125   6.036   4.292   3.609
    1   AR   Ar  126   0.159   1.334   6.903
    1   AR   Ar  127   4.051   3.495   6.082
    1   AR   Ar  128   1.394   4.541   7.463
    1   AR   Ar  129   1.778   5.652   4.485
    1   AR   Ar  130   5.930   0.530  -4.709
    1   AR   Ar  131   4.140   0.252  -0.016
    1   AR   Ar  132   1.788   2.184   1.908
    1   AR   Ar  133   4.567   0.088   4.436
    1   AR   Ar  134   3.696   1.236   4.809
    1   AR   Ar  135   5.427   0.641   5.580
    1   AR   Ar  136   4.484   6.484   2.270
    1   AR   Ar  137   1.952   4.890   6.026
    1   AR   Ar  138   5.818   1.492   6.046
    1   AR   Ar  139   6.248   2.280   5.270
    1   AR   Ar  140   4.770   6.266   4.964
    1   AR   Ar  141   3.377   5.413   3.849
    1   AR   Ar  142   3.801   5.674   8.477
    1   AR   Ar  143   5.268   6.619   8.248
    1   AR   Ar  144   0.131   2.957   4.908
    1   AR   Ar  145   4.504   4.788  -1.653
    1   AR   Ar  146   4.028   2.280   3.753
    1   AR   Ar  147   4.491   4.320  -0.192
    1   AR   Ar  148   2.050   6.147   0.271
    1   AR   Ar  149   5.764   1.848  -0.813
    1   AR   Ar  150   0.807   1.797   2.557
    1   AR   Ar  151   3.044   2.742   2.273
    1   AR   Ar  152   0.320   0.695  -0.858
    1   AR   Ar  153   4.943   1.081   3.009
    1   AR   Ar  154   5.020   3.042   3.830
    1   AR   Ar  155   4.987   3.464   5.670
    1   AR   Ar  156   3.262   4.034   3.079
    1   AR   Ar  157   3.197   5.391   6.410
    1   AR   Ar  158   1.352   2.347   7.505
    1   AR   Ar  159   3.895   0.119   5.344
    1   AR   Ar  160   1.006   1.938   4.730
    1   AR   Ar  161   5.123   4.567   4.055
    1   AR   Ar  162   3.735   5.319  -1.113
    1   AR   Ar  163   6.683   4.038   2.268
    1   AR   Ar  164   2.270   5.787   2.677
    1   AR   Ar  165   3.542   4.252   0.633
    1   AR   Ar  166   3.252   3.497   5.385
    1   AR   Ar  167   6.257   0.103   4.436
    1   AR   Ar  168   6.204   4.634  -2.218
    1   AR   Ar  169   4.452   3.409   2.853
    1   AR   Ar  170   2.593   2.810   6.785
    1   AR   Ar  171   4.669   5.542   3.590
    1   AR   Ar  172   3.761   3.011   4.401
    1   AR   Ar  173   0.208   2.480   7.512
    1   AR   Ar  174   2.649   6.164   4.388
    1   AR   Ar  175   0.802   0.180   7.745
    1   AR   Ar  176   3.469   3.133   3.466
    1   AR   Ar  177   0.588   3.340  -2.037
    1   AR   Ar  178   2.248   6.746   1.078
    1   AR   Ar  179   3.224   5.903   1.025
    1   AR   Ar  180   4.860   5.926  -6.994
    1   AR   Ar  181   6.988   6.205   2.187
    1   AR   Ar  182   0.724   5.950   2.650
    1   AR   Ar  183   5.362   5.187   1.730
    1   AR   Ar  184   3.495   5.284   0.132
    1   AR   Ar  185   3.251   4.297   4.568
    1   AR   Ar  186   3.065   6.375   3.201
    1   AR   Ar  187   4.134   6.418   3.868
    1   AR   Ar  188   3.299   0.995   1.769
    1   AR   Ar  189   6.090   3.020   6.368
    1   AR   Ar  190   1.790   0.427   4.985
    1   AR   Ar  191   4.238   5.251   4.518
    1   AR   Ar  192   3.791   2.771   6.929
    1   AR   Ar  193   3.200   5.995   2.276
    1   AR   Ar  194   4.837   6.446  -0.433
    1   AR   Ar  195   6.357   1.832   2.134
    1   AR   Ar  196   4.383   6.628   1.211
    1   AR   Ar  197   4.856   3.136  -0.009
    1   AR   Ar  198   6.815   6.984   0.337
    1   AR   Ar  199   0.973   0.159   2.228
    1   AR   Ar  200   5.178   2.326   0.531
    1   AR   Ar  201   6.851   5.374   3.775
    1   AR   Ar  202   5.907   1.082   4.598
    1   AR   Ar  203   6.895   0.281   3.648
    1   AR   Ar  204   4.538   5.681   7.464
    1   AR   Ar  205   5.366   1.678   2.370
    1   AR   Ar  206   6.369   0.582   6.561
    1   AR   Ar  207   0.359   4.037   4.569
    1   AR   Ar  208   0.843   6.604   3.560
    1   AR   Ar  209   5.705   3.146  -1.097
    1   AR   Ar  210   3.222   2.530   0.279
    1   AR   Ar  211   6.739   3.604   0.278
    1   AR   Ar  212   6.172   4.589   0.376
    1   AR   Ar  213   3.693   1.620   0.726
    1   AR   Ar  214   5.259   4.372   1.089
    1   AR   Ar  215   0.540   2.997   2.414
    1   AR   Ar  216   1.991   2.560  -0.383
    1   AR   Ar  217   5.119   1.923   4.210
    1   AR   Ar  218   4.151   2.519   5.615
    1   AR   Ar  219   4.332   4.268   2.247
    1   AR   Ar  220   4.469   4.812   0.736
    1   AR   Ar  221   6.332   6.403   3.545
    1   AR   Ar  222   6.025   6.871   5.957
    1   AR   Ar  223   0.175   0.710   6.007
    1   AR   Ar  224   4.638   1.319   5.109
    1   AR   Ar  225   6.404   3.006   2.254
    1   AR   Ar  226   2.569   3.533   4.003
    1   AR   Ar  227   1.513   2.709   3.770
    1   AR   Ar  228   5.984   0.675   2.396
    1   AR   Ar  229   5.611   3.967  -0.362
    1   AR   Ar  230   4.032   4.621   3.739
    1   AR   Ar  231   5.457   2.348   3.149
    1   AR   Ar  232   5.259   2.548   1.743
    1   AR   Ar  233   6.998   1.602   2.851
    1   AR   Ar  234   6.478   3.976   4.598
    1   AR   Ar  235   7.059   1.071   4.778
    1   AR   Ar  236   4.208   3.885   4.611
    1   AR   Ar  237   3.993   1.735   7.324
    1   AR   Ar  238   4.571   4.860   6.557
    1   AR   Ar  239   1.822   4.960  10.450
    1   AR   Ar  240   1.595   3.383   7.138
    1   AR   Ar  241   0.626   6.721  -0.527
    1   AR   Ar  242   5.751   6.098   1.748
    1   AR   Ar  243   4.307   5.571   1.498
    1   AR   Ar  244   5.645   6.446   0.443
    1   AR   Ar  245   3.092   1.418   3.247
    1   AR   Ar  246   4.743   5.899  -1.428
    1   AR   Ar  247   6.940   3.369   1.435
    1   AR   Ar  248   5.601   5.235  -0.464
    1   AR   Ar  249   4.288   0.525   1.020
    1   AR   Ar  250   5.230   6.538   3.638
    1   AR   Ar  251   5.492   3.777   4.740
    1   AR   Ar  252   2.049   5.101   1.747
    1   AR   Ar  253   5.177   2.373   6.811
    1   AR   Ar  254   4.107   4.360  13.599
    1   AR   Ar  255   4.975   5.725   9.472
    1   AR   Ar  256   5.725   5.406   3.636
    7.12000  7.12000 12.00000
Argon-slab step 5945
  256
    1   AR   Ar    1   4.060   2.944  -0.726
    1   AR   Ar    2   5.306   0.303   1.224
    1   AR   Ar    3   4.370   3.853  -1.267
    1   AR   Ar    4   2.421   0.670   1.078
    1   AR   Ar    5   6.365   5.646   0.132
    1   AR   Ar    6   1.448   1.063   2.100
    1   AR   Ar    7   5.474   4.343   2.449
    1   AR   Ar    8   6.088   2.797  -0.027
    1   AR   Ar    9   0.158   5.206   4.882
    1   AR   Ar   10   5.731   4.750   5.690
    1   AR   Ar   11   0.795   6.713   4.594
    1   AR   Ar   12   6.800   2.165   4.226
    1   AR   Ar   13   6.992   6.963   5.315
    1   AR   Ar   14   4.252   1.598   6.341
    1   AR   Ar   15   3.109   5.966   9.167
    1   AR   Ar   16   0.900   7.054   6.688
    1   AR   Ar   17   5.722   3.406   0.824
    1   AR   Ar   18   7.091   3.627  -2.937
    1   AR   Ar   19   4.427   5.550  -0.239
    1   AR   Ar   20   6.601   2.727  -2.512
    1   AR   Ar   21   2.475   1.312   2.247
    1   AR   Ar   22   4.542   0.617   2.065
    1   AR   Ar   23   1.436   5.365  -0.302
    1   AR   Ar   24   6.093   2.936   4.423
    1   AR   Ar   25   1.175   3.539   5.796
    1   AR   Ar   26   5.750   5.835   5.005
    1   AR   Ar   27   0.652   0.737   0.792
    1   AR   Ar   28   3.156   2.161   4.311
    1   AR   Ar   29   5.347   6.638   7.100
    1   AR   Ar   30   5.726   0.535   3.487
    1   AR   Ar   31   1.249   1.022   6.750
    1   AR   Ar   32   1.704   2.673   6.045
    1   AR   Ar   33   5.486   5.428   0.622
    1   AR   Ar   34   1.420   5.311   3.322
    1   AR   Ar   35   6.172   5.315   2.454
    1   AR   Ar   36   4.336   2.094  -4.044
    1   AR   Ar   37   4.607   3.487   1.084
    1   AR   Ar   38   6.248   4.975   4.570
    1   AR   Ar   39   6.841   3.164   3.626
    1   AR   Ar   40   0.558   3.915   1.987
    1   AR   Ar   41   0.500   1.735   3.707
    1   AR   Ar   42   4.790   4.691   5.184
    1   AR   Ar   43   7.059   3.022   5.996
    1   AR   Ar   44   1.718   3.973   2.959
    1   AR   Ar   45   2.264   3.914   5.018
    1   AR   Ar   46   5.835   5.885   6.624
    1   AR   Ar   47   2.616   3.701   6.142
    1   AR   Ar   48   0.657   3.823   7.347
    1   AR   Ar   49   7.064   2.509  -0.003
    1   AR   Ar   50   2.560   4.871   0.679
    1   AR   Ar   51   5.514   3.421   2.957
    1   AR   Ar   52   5.601   3.252  -2.249
    1   AR   Ar   53   4.467   0.048   3.256
    1   AR   Ar   54   5.762   6.766   2.702
    1   AR   Ar   55   7.118   5.102   2.635
    1   AR   Ar   56   6.065   1.791   3.794
    1   AR   Ar   57   4.846   5.152   2.652
    1   AR   Ar   58   1.169   3.375   4.559
    1   AR   Ar   59   4.008   5.546   5.764
    1   AR   Ar   60   0.814   5.019   1.926
    1   AR   Ar   61   6.732   4.741   6.899
    1   AR   Ar   62   7.096   4.043   5.576
    1   AR   Ar   63   2.134   1.359   7.567
    1   AR   Ar   64   0.758   4.935   3.917
    1   AR   Ar   65   3.887   0.997   2.791
    1   AR   Ar   66   1.003   1.942   0.593
    1   AR   Ar   67   4.682   1.384  -1.189
    1   AR   Ar   68   6.451   1.068   1.113
    1   AR   Ar   69   2.923   2.198   1.465
    1   AR   Ar   70   0.264   1.077   1.634
    1   AR   Ar   71   2.820   0.460   2.896
    1   AR   Ar   72   4.430   1.666   1.837
    1   AR   Ar   73   3.546   0.199   3.802
    1   AR   Ar   74   0.745   0.710   3.361
    1   AR   Ar   75   3.213   1.338   6.228
    1   AR   Ar   76   2.689   0.035   1.901
    1   AR   Ar   77   1.312   5.984   6.742
    1   AR   Ar   78   6.925   5.453   5.932
    1   AR   Ar   79   3.771   6.122   4.984
    1   AR   Ar   80   3.612   4.350   6.383
    1   AR   Ar   81   1.755   6.540   2.107
    1   AR   Ar   82   6.708   4.788   1.455
    1   AR   Ar   83   1.838   2.950   0.734
    1   AR   Ar   84   0.844   3.962   0.878
    1   AR   Ar   85   0.665   2.721  -1.145
    1   AR   Ar   86   1.205   5.864   1.353
    1   AR   Ar   87   4.395   1.939   2.765
    1   AR   Ar   88   3.605   4.784   1.678
    1   AR   Ar   89   6.296   2.490   0.921
    1   AR   Ar   90   3.643   0.742   7.062
    1   AR   Ar   91   1.773   1.168   3.173
    1   AR   Ar   92   3.434   3.341   1.131
    1   AR   Ar   93   1.357   1.270   5.700
    1   AR   Ar   94   0.077   6.654   9.883
    1   AR   Ar   95   4.846   0.473   6.770
    1   AR   Ar   96   1.697   0.314   5.991
    1   AR   Ar   97   5.486   2.093  -2.030
    1   AR   Ar   98   1.694   4.288   3.933
    1   AR   Ar   99   5.839   6.585  -0.609
    1   AR   Ar  100   5.383   1.763  -3.477
    1   AR   Ar  101   3.935   5.702   2.877
    1   AR   Ar  102   4.265   2.577   1.455
    1   AR   Ar  103   1.712   3.433   1.745
    1   AR   Ar  104   3.170   0.311  -0.673
    1   AR   Ar  105   2.533   2.438   3.291
    1   AR   Ar  106   4.361   1.310   3.862
    1   AR   Ar  107   1.243   4.673   5.305
    1   AR   Ar  108   2.373   0.695   3.914
    1   AR   Ar  109   2.614   5.091   4.980
    1   AR   Ar  110   2.148   2.811   4.978
    1   AR   Ar  111   4.148   4.127   7.366
    1   AR   Ar  112   6.677   6.661   6.980
    1   AR   Ar  113   6.069   6.317  -1.563
    1   AR   Ar  114   3.324   0.457   0.670
    1   AR   Ar  115   6.460   4.633  -0.686
    1   AR   Ar  116   5.392   1.436   1.262
    1   AR   Ar  117   0.010   4.295   3.343
    1   AR   Ar  118   1.987   6.163   3.577
    1   AR   Ar  119   1.751   2.840   2.692
    1   AR   Ar  120   1.826   0.057   2.998
    1   AR   Ar  121   5.579   5.150   7.373
    1   AR   Ar  122   2.698   4.722   3.578
    1   AR   Ar  123   3.093   2.222   5.539
    1   AR   Ar  124   0.218   6.189   0.949
    1   AR   Ar  125   6.040   4.300   3.620
    1   AR   Ar  126   0.157   1.330   6.882
    1   AR   Ar  127   4.017   3.523   6.075
    1   AR   Ar  128   1.377   4.501   7.524
    1   AR   Ar  129   1.766   5.628   4.502
    1   AR   Ar  130   5.934   0.523  -4.711
    1   AR   Ar  131   4.118   0.280  -0.045
    1   AR   Ar  132   1.787   2.164   1.904
    1   AR   Ar  133   4.559   0.099   4.433
    1   AR   Ar  134   3.700   1.241   4.776
    1   AR   Ar  135   5.397   0.648   5.623
    1   AR   Ar  136   4.459   6.512   2.246
    1   AR   Ar  137   1.966   4.890   6.033
    1   AR   Ar  138   5.839   1.487   6.042
    1   AR   Ar  139   6.259   2.262   5.260
    1   AR   Ar  140   4.759   6.247   4.986
    1   AR   Ar  141   3.363   5.428   3.829
    1   AR   Ar  142   3.778   5.657   8.502
    1   AR   Ar  143   5.274   6.611   8.255
    1   AR   Ar  144   0.124   2.975   4.890
    1   AR   Ar  145   4.496   4.818  -1.628
    1   AR   Ar  146   4.021   2.265   3.790
    1   AR   Ar  147   4.491   4.282  -0.249
    1   AR   Ar  148   2.033   6.138   0.268
    1   AR   Ar  149   5.742   1.858  -0.783
    1   AR   Ar  150   0.814   1.796   2.547
    1   AR   Ar  151   3.027   2.731   2.289
    1   AR   Ar  152   0.297   0.682  -0.823
    1   AR   Ar  153   4.911   1.064   3.019
    1   AR   Ar  154   4.986   3.015   3.805
    1   AR   Ar  155   4.970   3.477   5.663
    1   AR   Ar  156   3.251   4.037   3.089
    1   AR   Ar  157   3.178   5.406   6.380
    1   AR   Ar  158   1.323   2.353   7.517
    1   AR   Ar  159   3.861   0.107   5.333
    1   AR   Ar  160   0.965   1.963   4.744
    1   AR   Ar  161   5.110   4.560   4.057
    1   AR   Ar  162   3.766   5.303  -1.092
    1   AR   Ar  163   6.710   3.997   2.274
    1   AR   Ar  164   2.269   5.786   2.665
    1   AR   Ar  165   3.554   4.272   0.660
    1   AR   Ar  166   3.264   3.495   5.344
    1   AR   Ar  167   6.290   0.134   4.434
    1   AR   Ar  168   6.206   4.633  -2.184
    1   AR   Ar  169   4.450   3.415   2.839
    1   AR   Ar  170   2.594   2.830   6.804
    1   AR   Ar  171   4.672   5.576   3.611
    1   AR   Ar  172   3.752   3.038   4.389
    1   AR   Ar  173   0.181   2.492   7.487
    1   AR   Ar  174   2.612   6.212   4.401
    1   AR   Ar  175   0.767   0.189   7.735
    1   AR   Ar  176   3.484   3.127   3.486
    1   AR   Ar  177   0.624   3.326  -2.052
    1   AR   Ar  178   2.262   6.771   1.085
    1   AR   Ar  179   3.182   5.902   1.015
    1   AR   Ar  180   4.870   5.916  -6.987
    1   AR   Ar  181   6.962   6.174   2.153
    1   AR   Ar  182   0.749   5.947   2.643
    1   AR   Ar  183   5.360   5.194   1.779
    1   AR   Ar  184   3.489   5.311   0.167
    1   AR   Ar  185   3.278   4.321   4.589
    1   AR   Ar  186   3.057   6.359   3.213
    1   AR   Ar  187   4.157   6.433   3.880
    1   AR   Ar  188   3.311   1.012   1.752
    1   AR   Ar  189   6.108   2.994   6.360
    1   AR   Ar  190   1.803   0.390   4.975
    1   AR   Ar  191   4.244   5.261   4.526
    1   AR   Ar  192   3.795   2.766   6.953
    1   AR   Ar  193   3.159   6.017   2.237
    1   AR   Ar  194   4.865   6.462  -0.438
    1   AR   Ar  195   6.372   1.818   2.120
    1   AR   Ar  196   4.382   6.627   1.208
    1   AR   Ar  197   4.873   3.132   0.010
    1   AR   Ar  198   6.839   6.999   0.339
    1   AR   Ar  199   1.010   0.130   2.207
    1   AR   Ar  200   5.175   2.320   0.549
    1   AR   Ar  201   6.874   5.377   3.774
    1   AR   Ar  202   5.892   1.073   4.609
    1   AR   Ar  203   6.872   0.284   3.662
    1   AR   Ar  204   4.523   5.686   7.474
    1   AR   Ar  205   5.396   1.642   2.361
    1   AR   Ar  206   6.372   0.613   6.574
    1   AR   Ar  207   0.330   4.017   4.566
    1   AR   Ar  208   0.834   6.615   3.540
    1   AR   Ar  209   5.711   3.168  -1.076
    1   AR   Ar  210   3.251   2.548   0.311
    1   AR   Ar  211   6.757   3.600   0.315
    1   AR   Ar  212   6.143   4.618   0.353
    1   AR   Ar  213   3.692   1.625   0.729
    1   AR   Ar  214   5.241   4.373   1.083
    1   AR   Ar  215   0.542   2.973   2.394
    1   AR   Ar  216   1.995   2.547  -0.361
    1   AR   Ar  217   5.131   1.927   4.204
    1   AR   Ar  218   4.142   2.525   5.613
    1   AR   Ar  219   4.341   4.276   2.269
    1   AR   Ar  220   4.444   4.806   0.740
    1   AR   Ar  221   6.338   6.403   3.536
    1   AR   Ar  222   6.024   6.891   5.949
    1   AR   Ar  223   0.225   0.716   6.005
    1   AR   Ar  224   4.683   1.320   5.097
    1   AR   Ar  225   6.399   3.002   2.241
    1   AR   Ar  226   2.582   3.538   3.999
    1   AR   Ar  227   1.494   2.712   3.742
    1   AR   Ar  228   5.984   0.685   2.395
    1   AR   Ar  229   5.575   3.971  -0.370
    1   AR   Ar  230   4.007   4.605   3.745
    1   AR   Ar  231   5.477   2.308   3.139
    1   AR   Ar  232   5.240   2.532   1.731
    1   AR   Ar  233   6.988   1.602   2.851
    1   AR   Ar  234   6.474   3.965   4.624
    1   AR   Ar  235   7.097   1.050   4.816
    1   AR   Ar  236   4.200   3.876   4.614
    1   AR   Ar  237   4.009   1.739   7.330
    1   AR   Ar  238   4.569   4.891   6.571
    1   AR   Ar  239   1.882   4.967  10.453
    1   AR   Ar  240   1.589   3.406   7.154
    1   AR   Ar  241   0.625   6.700  -0.515
    1   AR   Ar  242   5.730   6.083   1.751
    1   AR   Ar  243   4.310   5.544   1.502
    1   AR   Ar  244   5.651   6.449   0.444
    1   AR   Ar  245   3.084   1.408   3.254
    1   AR   Ar  246   4.719   5.884  -1.437
    1   AR   Ar  247   6.944   3.355   1.433
    1   AR   Ar  248   5.580   5.193  -0.475
    1   AR   Ar  249   4.335   0.543   1.010
    1   AR   Ar  250   5.249   6.522   3.675
    1   AR   Ar  251   5.489   3.756   4.738
    1   AR   Ar  252   2.010   5.127   1.740
    1   AR   Ar  253   5.165   2.345   6.797
    1   AR   Ar  254   4.120   4.353  13.614
    1   AR   Ar  255   4.980   5.749   9.485
    1   AR   Ar  256   5.762   5.393   3.655
    7.12000  7.12000 12.00000
Argon-slab step 5950
  256
    1   AR   Ar    1   4.057   2.967  -0.706
    1   AR   Ar    2   5.312   0.282   1.210
    1   AR   Ar    3   4.352   3.847  -1.289
    1   AR   Ar    4   2.442   0.678   1.066
    1   AR   Ar    5   6.338   5.653   0.115
    1   AR   Ar    6   1.445   1.075   2.090
    1   AR   Ar    7   5.464   4.353   2.442
    1   AR   Ar    8   6.059   2.802   0.009
    1   AR   Ar    9   0.153   5.187   4.886
    1   AR   Ar   10   5.724   4.731   5.683
    1   AR   Ar   11   0.801   6.680   4.596
    1   AR   Ar   12   6.802   2.179   4.223
    1   AR   Ar   13   6.981   6.955   5.314
    1   AR   Ar   14   4.225   1.577   6.355
    1   AR   Ar   15   3.114   5.997   9.169
    1   AR   Ar   16   0.863   7.039   6.727
    1   AR   Ar   17   5.733   3.401   0.863
    1   AR   Ar   18   0.010   3.658  -2.954
    1   AR   Ar   19   4.416   5.577  -0.248
    1   AR   Ar   20   6.599   2.701  -2.497
    1   AR   Ar   21   2.469   1.320   2.252
    1   AR   Ar   22   4.526   0.651   2.116
    1   AR   Ar   23   1.483   5.352  -0.323
    1   AR   Ar   24   6.063   2.981   4.415
    1   AR   Ar   25   1.173   3.539   5.835
    1   AR   Ar   26   5.740   5.844   5.023
    1   AR   Ar   27   0.641   0.688   0.758
    1   AR   Ar   28   3.154   2.138   4.296
    1   AR   Ar   29   5.342   6.645   7.091
    1   AR   Ar   30   5.730   0.559   3.464
    1   AR   Ar   31   1.286   0.999   6.751
    1   AR   Ar   32   1.757   2.710   6.017
    1   AR   Ar   33   5.454   5.453   0.619
    1   AR   Ar   34   1.432   5.300   3.302
    1   AR   Ar   35   6.233   5.343   2.467
    1   AR   Ar   36   4.302   2.081  -4.045
    1   AR   Ar   37   4.586   3.493   1.064
    1   AR   Ar   38   6.272   4.957   4.555
    1   AR   Ar   39   6.818   3.197   3.601
    1   AR   Ar   40   0.599   3.917   1.984
    1   AR   Ar   41   0.528   1.726   3.736
    1   AR   Ar   42   4.798   4.660   5.185
    1   AR   Ar   43   7.057   3.008   5.976
    1   AR   Ar   44   1.707   3.952   2.987
    1   AR   Ar   45   2.249   3.924   5.003
    1   AR   Ar   46   5.832   5.898   6.613
    1   AR   Ar   47   2.582   3.681   6.147
    1   AR   Ar   48   0.640   3.820   7.325
    1   AR   Ar   49   7.092   2.527  -0.024
    1   AR   Ar   50   2.559   4.887   0.698
    1   AR   Ar   51   5.515   3.428   2.946
    1   AR   Ar   52   5.585   3.234  -2.257
    1   AR   Ar   53   4.459   0.021   3.246
    1   AR   Ar   54   5.750   6.769   2.706
    1   AR   Ar   55   0.015   5.112   2.650
    1   AR   Ar   56   6.099   1.743   3.752
    1   AR   Ar   57   4.901   5.165   2.713
    1   AR   Ar   58   1.157   3.329   4.536
    1   AR   Ar   59   4.010   5.565   5.767
    1   AR   Ar   60   0.779   4.975   1.907
    1   AR   Ar   61   6.761   4.739   6.915
    1   AR   Ar   62   7.111   4.023   5.560
    1   AR   Ar   63   2.166   1.337   7.550
    1   AR   Ar   64   0.734   4.924   3.939
    1   AR   Ar   65   3.897   0.973   2.818
    1   AR   Ar   66   0.992   1.911   0.604
    1   AR   Ar   67   4.700   1.395  -1.198
    1   AR   Ar   68   6.478   1.057   1.091
    1   AR   Ar   69   2.927   2.187   1.450
    1   AR   Ar   70   0.275   1.074   1.662
    1   AR   Ar   71   2.824   0.457   2.907
    1   AR   Ar   72   4.414   1.656   1.853
    1   AR   Ar   73   3.542   0.212   3.821
    1   AR   Ar   74   0.755   0.695   3.353
    1   AR   Ar   75   3.223   1.345   6.267
    1   AR   Ar   76   2.655   0.056   1.915
    1   AR   Ar   77   1.310   5.989   6.727
    1   AR   Ar   78   6.954   5.416   5.945
    1   AR   Ar   79   3.784   6.124   4.987
    1   AR   Ar   80   3.600   4.379   6.418
    1   AR   Ar   81   1.770   6.499   2.102
    1   AR   Ar   82   6.694   4.789   1.492
    1   AR   Ar   83   1.833   2.953   0.734
    1   AR   Ar   84   0.829   3.951   0.863
    1   AR   Ar   85   0.675   2.717  -1.159
    1   AR   Ar   86   1.166   5.842   1.352
    1   AR   Ar   87   4.394   1.930   2.810
    1   AR   Ar   88   3.602   4.764   1.669
    1   AR   Ar   89   6.279   2.464   0.939
    1   AR   Ar   90   3.683   0.723   7.084
    1   AR   Ar   91   1.768   1.214   3.196
    1   AR   Ar   92   3.443   3.334   1.165
    1   AR   Ar   93   1.357   1.254   5.674
    1   AR   Ar   94   0.065   6.683   9.894
    1   AR   Ar   95   4.860   0.489   6.767
    1   AR   Ar   96   1.715   0.361   6.022
    1   AR   Ar   97   5.487   2.145  -2.078
    1   AR   Ar   98   1.676   4.270   3.944
    1   AR   Ar   99   5.830   6.591  -0.592
    1   AR   Ar  100   5.362   1.752  -3.507
    1   AR   Ar  101   3.943   5.725   2.896
    1   AR   Ar  102   4.221   2.596   1.458
    1   AR   Ar  103   1.676   3.465   1.748
    1   AR   Ar  104   3.173   0.291  -0.667
    1   AR   Ar  105   2.559   2.431   3.307
    1   AR   Ar  106   4.345   1.343   3.843
    1   AR   Ar  107   1.249   4.668   5.282
    1   AR   Ar  108   2.395   0.695   3.926
    1   AR   Ar  109   2.623   5.087   5.005
    1   AR   Ar  110   2.128   2.786   4.993
    1   AR   Ar  111   4.137   4.146   7.387
    1   AR   Ar  112   6.682   6.666   6.974
    1   AR   Ar  113   6.042   6.339  -1.558
    1   AR   Ar  114   3.317   0.478   0.693
    1   AR   Ar  115   6.480   4.626  -0.727
    1   AR   Ar  116   5.414   1.405   1.303
    1   AR   Ar  117   7.119   4.295   3.321
    1   AR   Ar  118   1.970   6.170   3.567
    1   AR   Ar  119   1.771   2.826   2.691
    1   AR   Ar  120   1.808   0.004   3.009
    1   AR   Ar  121   5.564   5.182   7.395
    1   AR   Ar  122   2.690   4.714   3.571
    1   AR   Ar  123   3.078   2.256   5.524
    1   AR   Ar  124   0.210   6.180   0.952
    1   AR   Ar  125   6.046   4.307   3.630
    1   AR   Ar  126   0.124   1.334   6.875
    1   AR   Ar  127   3.987   3.538   6.067
    1   AR   Ar  128   1.367   4.466   7.585
    1   AR   Ar  129   1.749   5.600   4.520
    1   AR   Ar  130   5.939   0.517  -4.712
    1   AR   Ar  131   4.082   0.304  -0.071
    1   AR   Ar  132   1.785   2.159   1.888
    1   AR   Ar  133   4.539   0.118   4.431
    1   AR   Ar  134   3.700   1.245   4.741
    1   AR   Ar  135   5.366   0.652   5.665
    1   AR   Ar  136   4.435   6.539   2.226
    1   AR   Ar  137   1.984   4.890   6.041
    1   AR   Ar  138   5.862   1.486   6.039
    1   AR   Ar  139   6.270   2.243   5.250
    1   AR   Ar  140   4.756   6.229   5.007
    1   AR   Ar  141   3.352   5.454   3.813
    1   AR   Ar  142   3.764   5.636   8.520
    1   AR   Ar  143   5.268   6.580   8.290
    1   AR   Ar  144   0.116   2.992   4.870
    1   AR   Ar  145   4.494   4.849  -1.606
    1   AR   Ar  146   4.021   2.249   3.819
    1   AR   Ar  147   4.492   4.244  -0.304
    1   AR   Ar  148   2.016   6.127   0.264
    1   AR   Ar  149   5.719   1.869  -0.753
    1   AR   Ar  150   0.808   1.798   2.540
    1   AR   Ar  151   3.011   2.726   2.314
    1   AR   Ar  152   0.273   0.667  -0.786
    1   AR   Ar  153   4.882   1.039   3.031
    1   AR   Ar  154   4.949   2.987   3.783
    1   AR   Ar  155   4.955   3.489   5.654
    1   AR   Ar  156   3.244   4.040   3.093
    1   AR   Ar  157   3.173   5.421   6.356
    1   AR   Ar  158   1.295   2.358   7.529
    1   AR   Ar  159   3.828   0.096   5.321
    1   AR   Ar  160   0.922   1.989   4.756
    1   AR   Ar  161   5.096   4.567   4.058
    1   AR   Ar  162   3.793   5.289  -1.066
    1   AR   Ar  163   6.731   3.962   2.285
    1   AR   Ar  164   2.263   5.780   2.652
    1   AR   Ar  165   3.564   4.292   0.685
    1   AR   Ar  166   3.277   3.490   5.297
    1   AR   Ar  167   6.316   0.158   4.443
    1   AR   Ar  168   6.208   4.631  -2.150
    1   AR   Ar  169   4.445   3.416   2.829
    1   AR   Ar  170   2.595   2.849   6.822
    1   AR   Ar  171   4.679   5.607   3.634
    1   AR   Ar  172   3.742   3.058   4.402
    1   AR   Ar  173   0.154   2.504   7.460
    1   AR   Ar  174   2.584   6.262   4.416
    1   AR   Ar  175   0.732   0.199   7.724
    1   AR   Ar  176   3.460   3.122   3.484
    1   AR   Ar  177   0.659   3.312  -2.068
    1   AR   Ar  178   2.272   6.788   1.087
    1   AR   Ar  179   3.140   5.902   1.009
    1   AR   Ar  180   4.879   5.907  -6.980
    1   AR   Ar  181   6.933   6.141   2.118
    1   AR   Ar  182   0.778   5.944   2.637
    1   AR   Ar  183   5.352   5.187   1.820
    1   AR   Ar  184   3.481   5.336   0.203
    1   AR   Ar  185   3.300   4.346   4.607
    1   AR   Ar  186   3.050   6.346   3.230
    1   AR   Ar  187   4.174   6.441   3.897
    1   AR   Ar  188   3.329   1.026   1.731
    1   AR   Ar  189   6.119   2.966   6.353
    1   AR   Ar  190   1.816   0.355   4.959
    1   AR   Ar  191   4.248   5.275   4.535
    1   AR   Ar  192   3.804   2.771   6.969
    1   AR   Ar  193   3.122   6.042   2.187
    1   AR   Ar  194   4.886   6.481  -0.441
    1   AR   Ar  195   6.385   1.808   2.093
    1   AR   Ar  196   4.381   6.624   1.200
    1   AR   Ar  197   4.889   3.135   0.027
    1   AR   Ar  198   6.863   7.014   0.342
    1   AR   Ar  199   1.041   0.100   2.187
    1   AR   Ar  200   5.135   2.286   0.573
    1   AR   Ar  201   6.897   5.380   3.771
    1   AR   Ar  202   5.874   1.068   4.621
    1   AR   Ar  203   6.857   0.289   3.665
    1   AR   Ar  204   4.509   5.691   7.483
    1   AR   Ar  205   5.425   1.606   2.344
    1   AR   Ar  206   6.375   0.644   6.588
    1   AR   Ar  207   0.313   4.003   4.560
    1   AR   Ar  208   0.826   6.627   3.517
    1   AR   Ar  209   5.716   3.188  -1.055
    1   AR   Ar  210   3.279   2.568   0.344
    1   AR   Ar  211   6.761   3.596   0.338
    1   AR   Ar  212   6.113   4.643   0.332
    1   AR   Ar  213   3.696   1.642   0.728
    1   AR   Ar  214   5.231   4.375   1.080
    1   AR   Ar  215   0.543   2.944   2.377
    1   AR   Ar  216   1.999   2.533  -0.338
    1   AR   Ar  217   5.140   1.934   4.201
    1   AR   Ar  218   4.132   2.517   5.610
    1   AR   Ar  219   4.352   4.286   2.288
    1   AR   Ar  220   4.411   4.808   0.737
    1   AR   Ar  221   6.346   6.401   3.529
    1   AR   Ar  222   6.023   6.909   5.943
    1   AR   Ar  223   0.277   0.720   6.001
    1   AR   Ar  224   4.732   1.321   5.086
    1   AR   Ar  225   6.389   2.992   2.235
    1   AR   Ar  226   2.595   3.543   3.995
    1   AR   Ar  227   1.476   2.715   3.716
    1   AR   Ar  228   5.983   0.698   2.393
    1   AR   Ar  229   5.539   3.977  -0.375
    1   AR   Ar  230   3.982   4.585   3.747
    1   AR   Ar  231   5.492   2.272   3.128
    1   AR   Ar  232   5.223   2.517   1.722
    1   AR   Ar  233   6.957   1.593   2.906
    1   AR   Ar  234   6.465   3.951   4.650
    1   AR   Ar  235   0.015   1.030   4.854
    1   AR   Ar  236   4.205   3.878   4.620
    1   AR   Ar  237   4.023   1.745   7.339
    1   AR   Ar  238   4.567   4.924   6.585
    1   AR   Ar  239   1.942   4.973  10.455
    1   AR   Ar  240   1.587   3.427   7.168
    1   AR   Ar  241   0.639   6.690  -0.513
    1   AR   Ar  242   5.715   6.084   1.753
    1   AR   Ar  243   4.315   5.520   1.508
    1   AR   Ar  244   5.657   6.456   0.447
    1   AR   Ar  245   3.071   1.404   3.267
    1   AR   Ar  246   4.696   5.871  -1.445
    1   AR   Ar  247   6.949   3.334   1.414
    1   AR   Ar  248   5.554   5.151  -0.486
    1   AR   Ar  249   4.377   0.568   0.999
    1   AR   Ar  250   5.269   6.507   3.713
    1   AR   Ar  251   5.476   3.737   4.737
    1   AR   Ar  252   1.970   5.154   1.732
    1   AR   Ar  253   5.153   2.316   6.783
    1   AR   Ar  254   4.133   4.345  13.629
    1   AR   Ar  255   4.986   5.776   9.507
    1   AR   Ar  256   5.798   5.381   3.674
    7.12000  7.12000 12.00000
Argon-slab step 5955
  256
    1   AR   Ar    1   4.054   2.990  -0.684
    1   AR   Ar    2   5.327   0.257   1.199
    1   AR   Ar    3   4.335   3.837  -1.311
    1   AR   Ar    4   2.450   0.696   1.061
    1   AR   Ar    5   6.317   5.663   0.096
    1   AR   Ar    6   1.441   1.088   2.080
    1   AR   Ar    7   5.459   4.359   2.434
    1   AR   Ar    8   6.024   2.809   0.037
    1   AR   Ar    9   0.149   5.166   4.889
    1   AR   Ar   10   5.721   4.712   5.676
    1   AR   Ar   11   0.806   6.647   4.600
    1   AR   Ar   12   6.821   2.204   4.231
    1   AR   Ar   13   6.970   6.948   5.312
    1   AR   Ar   14   4.204   1.555   6.363
    1   AR   Ar   15   3.112   6.032   9.177
    1   AR   Ar   16   0.825   7.024   6.760
    1   AR   Ar   17   5.743   3.398   0.902
    1   AR   Ar   18   0.049   3.688  -2.971
    1   AR   Ar   19   4.408   5.599  -0.255
    1   AR   Ar   20   6.596   2.676  -2.481
    1   AR   Ar   21   2.463   1.331   2.258
    1   AR   Ar   22   4.516   0.676   2.158
    1   AR   Ar   23   1.530   5.339  -0.343
    1   AR   Ar   24   6.043   3.006   4.401
    1   AR   Ar   25   1.168   3.544   5.871
    1   AR   Ar   26   5.733   5.851   5.040
    1   AR   Ar   27   0.631   0.638   0.722
    1   AR   Ar   28   3.142   2.114   4.285
    1   AR   Ar   29   5.317   6.632   7.095
    1   AR   Ar   30   5.736   0.581   3.444
    1   AR   Ar   31   1.320   0.979   6.755
    1   AR   Ar   32   1.813   2.743   5.991
    1   AR   Ar   33   5.414   5.473   0.621
    1   AR   Ar   34   1.447   5.288   3.277
    1   AR   Ar   35   6.211   5.308   2.474
    1   AR   Ar   36   4.269   2.068  -4.046
    1   AR   Ar   37   4.567   3.502   1.042
    1   AR   Ar   38   6.293   4.942   4.541
    1   AR   Ar   39   6.794   3.230   3.578
    1   AR   Ar   40   0.645   3.921   1.979
    1   AR   Ar   41   0.559   1.717   3.764
    1   AR   Ar   42   4.804   4.627   5.187
    1   AR   Ar   43   7.063   2.994   5.953
    1   AR   Ar   44   1.696   3.929   3.008
    1   AR   Ar   45   2.233   3.935   4.988
    1   AR   Ar   46   5.833   5.906   6.596
    1   AR   Ar   47   2.548   3.664   6.151
    1   AR   Ar   48   0.614   3.813   7.301
    1   AR   Ar   49   7.086   2.523   0.011
    1   AR   Ar   50   2.558   4.905   0.717
    1   AR   Ar   51   5.518   3.432   2.936
    1   AR   Ar   52   5.569   3.218  -2.263
    1   AR   Ar   53   4.461   0.008   3.234
    1   AR   Ar   54   5.737   6.771   2.710
    1   AR   Ar   55   0.024   5.132   2.665
    1   AR   Ar   56   6.123   1.679   3.702
    1   AR   Ar   57   4.916   5.185   2.743
    1   AR   Ar   58   1.146   3.285   4.516
    1   AR   Ar   59   4.020   5.575   5.776
    1   AR   Ar   60   0.745   4.933   1.888
    1   AR   Ar   61   6.790   4.738   6.931
    1   AR   Ar   62   0.005   4.004   5.546
    1   AR   Ar   63   2.196   1.315   7.532
    1   AR   Ar   64   0.706   4.910   3.968
    1   AR   Ar   65   3.895   0.947   2.849
    1   AR   Ar   66   0.982   1.880   0.615
    1   AR   Ar   67   4.719   1.406  -1.206
    1   AR   Ar   68   6.511   1.046   1.065
    1   AR   Ar   69   2.931   2.171   1.429
    1   AR   Ar   70   0.286   1.074   1.695
    1   AR   Ar   71   2.829   0.452   2.918
    1   AR   Ar   72   4.405   1.657   1.866
    1   AR   Ar   73   3.537   0.227   3.840
    1   AR   Ar   74   0.767   0.688   3.350
    1   AR   Ar   75   3.229   1.352   6.306
    1   AR   Ar   76   2.625   0.081   1.938
    1   AR   Ar   77   1.308   5.994   6.711
    1   AR   Ar   78   6.980   5.378   5.958
    1   AR   Ar   79   3.785   6.140   4.982
    1   AR   Ar   80   3.583   4.417   6.455
    1   AR   Ar   81   1.787   6.456   2.094
    1   AR   Ar   82   6.680   4.790   1.530
    1   AR   Ar   83   1.818   2.959   0.738
    1   AR   Ar   84   0.814   3.939   0.851
    1   AR   Ar   85   0.684   2.712  -1.172
    1   AR   Ar   86   1.156   5.817   1.362
    1   AR   Ar   87   4.393   1.929   2.864
    1   AR   Ar   88   3.595   4.744   1.660
    1   AR   Ar   89   6.264   2.434   0.966
    1   AR   Ar   90   3.730   0.701   7.110
    1   AR   Ar   91   1.763   1.260   3.217
    1   AR   Ar   92   3.451   3.326   1.200
    1   AR   Ar   93   1.354   1.243   5.644
    1   AR   Ar   94   0.054   6.712   9.904
    1   AR   Ar   95   4.873   0.507   6.763
    1   AR   Ar   96   1.735   0.401   6.055
    1   AR   Ar   97   5.488   2.196  -2.126
    1   AR   Ar   98   1.658   4.254   3.964
    1   AR   Ar   99   5.818   6.592  -0.579
    1   AR   Ar  100   5.340   1.742  -3.538
    1   AR   Ar  101   3.960   5.760   2.895
    1   AR   Ar  102   4.171   2.615   1.459
    1   AR   Ar  103   1.639   3.497   1.752
    1   AR   Ar  104   3.175   0.270  -0.661
    1   AR   Ar  105   2.573   2.443   3.308
    1   AR   Ar  106   4.330   1.358   3.827
    1   AR   Ar  107   1.254   4.661   5.257
    1   AR   Ar  108   2.419   0.694   3.938
    1   AR   Ar  109   2.630   5.083   5.030
    1   AR   Ar  110   2.109   2.762   5.005
    1   AR   Ar  111   4.126   4.165   7.405
    1   AR   Ar  112   6.687   6.671   6.966
    1   AR   Ar  113   6.015   6.359  -1.559
    1   AR   Ar  114   3.322   0.497   0.712
    1   AR   Ar  115   6.499   4.617  -0.768
    1   AR   Ar  116   5.436   1.373   1.342
    1   AR   Ar  117   7.110   4.289   3.296
    1   AR   Ar  118   1.947   6.189   3.563
    1   AR   Ar  119   1.790   2.815   2.689
    1   AR   Ar  120   1.789   7.072   3.021
    1   AR   Ar  121   5.548   5.215   7.417
    1   AR   Ar  122   2.671   4.708   3.569
    1   AR   Ar  123   3.067   2.276   5.506
    1   AR   Ar  124   0.205   6.172   0.958
    1   AR   Ar  125   6.053   4.312   3.638
    1   AR   Ar  126   0.106   1.353   6.856
    1   AR   Ar  127   3.960   3.544   6.059
    1   AR   Ar  128   1.362   4.437   7.648
    1   AR   Ar  129   1.728   5.569   4.537
    1   AR   Ar  130   5.943   0.510  -4.714
    1   AR   Ar  131   4.026   0.320  -0.090
    1   AR   Ar  132   1.782   2.164   1.865
    1   AR   Ar  133   4.523   0.140   4.424
    1   AR   Ar  134   3.698   1.249   4.705
    1   AR   Ar  135   5.333   0.651   5.705
    1   AR   Ar  136   4.411   6.566   2.212
    1   AR   Ar  137   1.988   4.912   6.021
    1   AR   Ar  138   5.887   1.488   6.037
    1   AR   Ar  139   6.283   2.224   5.240
    1   AR   Ar  140   4.762   6.214   5.026
    1   AR   Ar  141   3.346   5.486   3.800
    1   AR   Ar  142   3.759   5.611   8.528
    1   AR   Ar  143   5.262   6.549   8.324
    1   AR   Ar  144   0.106   3.009   4.851
    1   AR   Ar  145   4.500   4.874  -1.591
    1   AR   Ar  146   4.027   2.248   3.841
    1   AR   Ar  147   4.479   4.241  -0.343
    1   AR   Ar  148   2.000   6.115   0.261
    1   AR   Ar  149   5.695   1.882  -0.723
    1   AR   Ar  150   0.791   1.797   2.538
    1   AR   Ar  151   2.995   2.725   2.345
    1   AR   Ar  152   0.249   0.652  -0.749
    1   AR   Ar  153   4.864   1.010   3.046
    1   AR   Ar  154   4.910   2.960   3.763
    1   AR   Ar  155   4.942   3.501   5.645
    1   AR   Ar  156   3.242   4.041   3.091
    1   AR   Ar  157   3.175   5.435   6.336
    1   AR   Ar  158   1.266   2.363   7.539
    1   AR   Ar  159   3.795   0.085   5.308
    1   AR   Ar  160   0.879   2.015   4.769
    1   AR   Ar  161   5.079   4.576   4.060
    1   AR   Ar  162   3.812   5.280  -1.035
    1   AR   Ar  163   6.747   3.935   2.300
    1   AR   Ar  164   2.255   5.766   2.641
    1   AR   Ar  165   3.566   4.308   0.708
    1   AR   Ar  166   3.288   3.484   5.248
    1   AR   Ar  167   6.333   0.174   4.466
    1   AR   Ar  168   6.195   4.623  -2.124
    1   AR   Ar  169   4.438   3.413   2.822
    1   AR   Ar  170   2.595   2.867   6.841
    1   AR   Ar  171   4.692   5.630   3.659
    1   AR   Ar  172   3.728   3.061   4.422
    1   AR   Ar  173   0.128   2.517   7.432
    1   AR   Ar  174   2.561   6.313   4.432
    1   AR   Ar  175   0.695   0.210   7.716
    1   AR   Ar  176   3.433   3.113   3.465
    1   AR   Ar  177   0.693   3.299  -2.085
    1   AR   Ar  178   2.255   6.792   1.089
    1   AR   Ar  179   3.097   5.904   1.006
    1   AR   Ar  180   4.889   5.897  -6.973
    1   AR   Ar  181   6.903   6.108   2.082
    1   AR   Ar  182   0.809   5.941   2.629
    1   AR   Ar  183   5.341   5.168   1.850
    1   AR   Ar  184   3.473   5.356   0.237
    1   AR   Ar  185   3.316   4.374   4.623
    1   AR   Ar  186   3.042   6.336   3.250
    1   AR   Ar  187   4.181   6.440   3.920
    1   AR   Ar  188   3.353   1.040   1.708
    1   AR   Ar  189   6.122   2.938   6.347
    1   AR   Ar  190   1.829   0.319   4.939
    1   AR   Ar  191   4.249   5.289   4.545
    1   AR   Ar  192   3.813   2.776   6.984
    1   AR   Ar  193   3.091   6.069   2.130
    1   AR   Ar  194   4.890   6.502  -0.442
    1   AR   Ar  195   6.399   1.801   2.058
    1   AR   Ar  196   4.381   6.620   1.188
    1   AR   Ar  197   4.906   3.142   0.042
    1   AR   Ar  198   6.898   6.988   0.355
    1   AR   Ar  199   1.066   0.080   2.168
    1   AR   Ar  200   5.097   2.249   0.601
    1   AR   Ar  201   6.919   5.383   3.767
    1   AR   Ar  202   5.854   1.070   4.634
    1   AR   Ar  203   6.853   0.298   3.652
    1   AR   Ar  204   4.496   5.695   7.492
    1   AR   Ar  205   5.446   1.570   2.326
    1   AR   Ar  206   6.379   0.674   6.600
    1   AR   Ar  207   0.311   3.993   4.547
    1   AR   Ar  208   0.819   6.639   3.492
    1   AR   Ar  209   5.722   3.205  -1.035
    1   AR   Ar  210   3.308   2.589   0.378
    1   AR   Ar  211   6.758   3.573   0.367
    1   AR   Ar  212   6.084   4.663   0.314
    1   AR   Ar  213   3.701   1.656   0.729
    1   AR   Ar  214   5.206   4.402   1.071
    1   AR   Ar  215   0.544   2.912   2.360
    1   AR   Ar  216   2.003   2.520  -0.314
    1   AR   Ar  217   5.150   1.943   4.200
    1   AR   Ar  218   4.123   2.510   5.607
    1   AR   Ar  219   4.362   4.300   2.305
    1   AR   Ar  220   4.377   4.821   0.728
    1   AR   Ar  221   6.356   6.399   3.523
    1   AR   Ar  222   6.022   6.927   5.937
    1   AR   Ar  223   0.330   0.723   5.996
    1   AR   Ar  224   4.782   1.322   5.074
    1   AR   Ar  225   6.374   2.975   2.234
    1   AR   Ar  226   2.607   3.549   3.992
    1   AR   Ar  227   1.458   2.717   3.690
    1   AR   Ar  228   5.982   0.710   2.390
    1   AR   Ar  229   5.545   3.982  -0.378
    1   AR   Ar  230   3.959   4.563   3.748
    1   AR   Ar  231   5.503   2.243   3.116
    1   AR   Ar  232   5.210   2.501   1.713
    1   AR   Ar  233   6.925   1.580   2.968
    1   AR   Ar  234   6.450   3.933   4.676
    1   AR   Ar  235   0.051   1.009   4.892
    1   AR   Ar  236   4.216   3.863   4.633
    1   AR   Ar  237   4.037   1.753   7.355
    1   AR   Ar  238   4.566   4.957   6.599
    1   AR   Ar  239   2.003   4.980  10.458
    1   AR   Ar  240   1.590   3.445   7.179
    1   AR   Ar  241   0.652   6.700  -0.521
    1   AR   Ar  242   5.703   6.095   1.754
    1   AR   Ar  243   4.323   5.502   1.516
    1   AR   Ar  244   5.662   6.467   0.453
    1   AR   Ar  245   3.055   1.406   3.284
    1   AR   Ar  246   4.673   5.860  -1.449
    1   AR   Ar  247   6.957   3.313   1.391
    1   AR   Ar  248   5.525   5.111  -0.496
    1   AR   Ar  249   4.410   0.598   0.986
    1   AR   Ar  250   5.289   6.493   3.751
    1   AR   Ar  251   5.452   3.724   4.736
    1   AR   Ar  252   1.930   5.182   1.725
    1   AR   Ar  253   5.139   2.286   6.766
    1   AR   Ar  254   4.147   4.337  13.643
    1   AR   Ar  255   4.991   5.783   9.518
    1   AR   Ar  256   5.833   5.372   3.690
    7.12000  7.12000 12.00000
Argon-slab step 5960
  256
    1   AR   Ar    1   4.051   3.003  -0.668
    1   AR   Ar    2   5.342   0.246   1.199
    1   AR   Ar    3   4.318   3.827  -1.335
    1   AR   Ar    4   2.459   0.710   1.073
    1   AR   Ar    5   6.299   5.677   0.073
    1   AR   Ar    6   1.438   1.099   2.068
    1   AR   Ar    7   5.464   4.366   2.436
    1   AR   Ar    8   6.007   2.807   0.062
    1   AR   Ar    9   0.149   5.144   4.893
    1   AR   Ar   10   5.722   4.694   5.669
    1   AR   Ar   11   0.811   6.614   4.604
    1   AR   Ar   12   6.843   2.231   4.243
    1   AR   Ar   13   6.959   6.943   5.311
    1   AR   Ar   14   4.195   1.535   6.365
    1   AR   Ar   15   3.105   6.071   9.191
    1   AR   Ar   16   0.788   7.009   6.786
    1   AR   Ar   17   5.767   3.402   0.910
    1   AR   Ar   18   0.073   3.695  -2.949
    1   AR   Ar   19   4.405   5.617  -0.258
    1   AR   Ar   20   6.593   2.651  -2.464
    1   AR   Ar   21   2.477   1.340   2.255
    1   AR   Ar   22   4.516   0.688   2.182
    1   AR   Ar   23   1.577   5.325  -0.363
    1   AR   Ar   24   6.054   2.972   4.370
    1   AR   Ar   25   1.160   3.554   5.906
    1   AR   Ar   26   5.731   5.856   5.057
    1   AR   Ar   27   0.621   0.588   0.685
    1   AR   Ar   28   3.122   2.089   4.278
    1   AR   Ar   29   5.289   6.624   7.102
    1   AR   Ar   30   5.744   0.601   3.428
    1   AR   Ar   31   1.348   0.963   6.767
    1   AR   Ar   32   1.871   2.773   5.972
    1   AR   Ar   33   5.369   5.489   0.625
    1   AR   Ar   34   1.464   5.274   3.251
    1   AR   Ar   35   6.173   5.275   2.479
    1   AR   Ar   36   4.236   2.054  -4.047
    1   AR   Ar   37   4.548   3.514   1.019
    1   AR   Ar   38   6.310   4.929   4.529
    1   AR   Ar   39   6.770   3.263   3.555
    1   AR   Ar   40   0.690   3.920   1.973
    1   AR   Ar   41   0.591   1.707   3.790
    1   AR   Ar   42   4.808   4.592   5.187
    1   AR   Ar   43   7.075   2.979   5.928
    1   AR   Ar   44   1.686   3.903   3.022
    1   AR   Ar   45   2.218   3.946   4.974
    1   AR   Ar   46   5.839   5.910   6.575
    1   AR   Ar   47   2.514   3.648   6.150
    1   AR   Ar   48   0.580   3.804   7.275
    1   AR   Ar   49   7.072   2.514   0.060
    1   AR   Ar   50   2.558   4.924   0.738
    1   AR   Ar   51   5.525   3.433   2.928
    1   AR   Ar   52   5.554   3.205  -2.269
    1   AR   Ar   53   4.485   0.021   3.232
    1   AR   Ar   54   5.722   6.773   2.712
    1   AR   Ar   55   0.059   5.174   2.691
    1   AR   Ar   56   6.144   1.609   3.652
    1   AR   Ar   57   4.917   5.209   2.772
    1   AR   Ar   58   1.136   3.242   4.499
    1   AR   Ar   59   4.038   5.581   5.787
    1   AR   Ar   60   0.712   4.897   1.867
    1   AR   Ar   61   6.818   4.738   6.945
    1   AR   Ar   62   0.019   3.987   5.535
    1   AR   Ar   63   2.225   1.293   7.513
    1   AR   Ar   64   0.682   4.892   3.997
    1   AR   Ar   65   3.874   0.922   2.888
    1   AR   Ar   66   0.971   1.849   0.626
    1   AR   Ar   67   4.738   1.419  -1.213
    1   AR   Ar   68   6.542   1.036   1.039
    1   AR   Ar   69   2.936   2.154   1.406
    1   AR   Ar   70   0.299   1.075   1.731
    1   AR   Ar   71   2.834   0.443   2.930
    1   AR   Ar   72   4.411   1.642   1.862
    1   AR   Ar   73   3.553   0.246   3.848
    1   AR   Ar   74   0.790   0.708   3.358
    1   AR   Ar   75   3.225   1.358   6.343
    1   AR   Ar   76   2.598   0.107   1.968
    1   AR   Ar   77   1.306   6.000   6.695
    1   AR   Ar   78   7.006   5.339   5.971
    1   AR   Ar   79   3.773   6.165   4.972
    1   AR   Ar   80   3.564   4.460   6.493
    1   AR   Ar   81   1.802   6.416   2.080
    1   AR   Ar   82   6.666   4.791   1.570
    1   AR   Ar   83   1.802   2.965   0.742
    1   AR   Ar   84   0.812   3.944   0.854
    1   AR   Ar   85   0.693   2.707  -1.182
    1   AR   Ar   86   1.170   5.826   1.368
    1   AR   Ar   87   4.392   1.933   2.921
    1   AR   Ar   88   3.587   4.725   1.653
    1   AR   Ar   89   6.273   2.420   0.983
    1   AR   Ar   90   3.777   0.680   7.133
    1   AR   Ar   91   1.758   1.306   3.236
    1   AR   Ar   92   3.457   3.320   1.235
    1   AR   Ar   93   1.348   1.239   5.610
    1   AR   Ar   94   0.043   6.741   9.915
    1   AR   Ar   95   4.887   0.525   6.758
    1   AR   Ar   96   1.750   0.424   6.085
    1   AR   Ar   97   5.494   2.189  -2.137
    1   AR   Ar   98   1.640   4.241   3.993
    1   AR   Ar   99   5.830   6.596  -0.566
    1   AR   Ar  100   5.318   1.732  -3.568
    1   AR   Ar  101   3.974   5.796   2.893
    1   AR   Ar  102   4.119   2.630   1.460
    1   AR   Ar  103   1.623   3.524   1.756
    1   AR   Ar  104   3.173   0.250  -0.658
    1   AR   Ar  105   2.587   2.454   3.312
    1   AR   Ar  106   4.318   1.348   3.816
    1   AR   Ar  107   1.257   4.642   5.248
    1   AR   Ar  108   2.443   0.692   3.949
    1   AR   Ar  109   2.635   5.080   5.056
    1   AR   Ar  110   2.105   2.748   5.003
    1   AR   Ar  111   4.116   4.185   7.423
    1   AR   Ar  112   6.691   6.677   6.957
    1   AR   Ar  113   5.988   6.377  -1.565
    1   AR   Ar  114   3.343   0.511   0.726
    1   AR   Ar  115   6.516   4.608  -0.807
    1   AR   Ar  116   5.457   1.341   1.373
    1   AR   Ar  117   7.101   4.281   3.274
    1   AR   Ar  118   1.923   6.208   3.563
    1   AR   Ar  119   1.807   2.808   2.685
    1   AR   Ar  120   1.770   7.025   3.030
    1   AR   Ar  121   5.531   5.247   7.437
    1   AR   Ar  122   2.644   4.706   3.573
    1   AR   Ar  123   3.064   2.287   5.496
    1   AR   Ar  124   0.199   6.164   0.965
    1   AR   Ar  125   6.062   4.314   3.647
    1   AR   Ar  126   0.088   1.373   6.837
    1   AR   Ar  127   3.935   3.545   6.053
    1   AR   Ar  128   1.361   4.410   7.712
    1   AR   Ar  129   1.691   5.543   4.559
    1   AR   Ar  130   5.948   0.504  -4.715
    1   AR   Ar  131   3.978   0.336  -0.105
    1   AR   Ar  132   1.779   2.167   1.839
    1   AR   Ar  133   4.514   0.160   4.393
    1   AR   Ar  134   3.697   1.252   4.670
    1   AR   Ar  135   5.300   0.648   5.746
    1   AR   Ar  136   4.388   6.592   2.204
    1   AR   Ar  137   1.991   4.939   5.995
    1   AR   Ar  138   5.913   1.494   6.035
    1   AR   Ar  139   6.296   2.206   5.230
    1   AR   Ar  140   4.776   6.202   5.044
    1   AR   Ar  141   3.343   5.519   3.791
    1   AR   Ar  142   3.760   5.583   8.531
    1   AR   Ar  143   5.255   6.517   8.357
    1   AR   Ar  144   0.095   3.024   4.832
    1   AR   Ar  145   4.516   4.886  -1.585
    1   AR   Ar  146   4.034   2.268   3.857
    1   AR   Ar  147   4.464   4.249  -0.374
    1   AR   Ar  148   1.984   6.102   0.259
    1   AR   Ar  149   5.670   1.898  -0.692
    1   AR   Ar  150   0.774   1.798   2.538
    1   AR   Ar  151   2.980   2.725   2.378
    1   AR   Ar  152   0.222   0.653  -0.732
    1   AR   Ar  153   4.863   0.980   3.063
    1   AR   Ar  154   4.874   2.938   3.741
    1   AR   Ar  155   4.929   3.514   5.635
    1   AR   Ar  156   3.243   4.041   3.082
    1   AR   Ar  157   3.172   5.448   6.319
    1   AR   Ar  158   1.238   2.369   7.548
    1   AR   Ar  159   3.764   0.074   5.294
    1   AR   Ar  160   0.836   2.043   4.783
    1   AR   Ar  161   5.061   4.586   4.064
    1   AR   Ar  162   3.817   5.274  -0.997
    1   AR   Ar  163   6.763   3.913   2.316
    1   AR   Ar  164   2.247   5.743   2.637
    1   AR   Ar  165   3.553   4.313   0.726
    1   AR   Ar  166   3.293   3.478   5.201
    1   AR   Ar  167   6.336   0.158   4.482
    1   AR   Ar  168   6.177   4.613  -2.098
    1   AR   Ar  169   4.433   3.404   2.822
    1   AR   Ar  170   2.596   2.882   6.861
    1   AR   Ar  171   4.710   5.644   3.684
    1   AR   Ar  172   3.737   3.056   4.420
    1   AR   Ar  173   0.103   2.529   7.402
    1   AR   Ar  174   2.542   6.363   4.449
    1   AR   Ar  175   0.658   0.224   7.714
    1   AR   Ar  176   3.423   3.103   3.459
    1   AR   Ar  177   0.726   3.286  -2.104
    1   AR   Ar  178   2.268   6.803   1.080
    1   AR   Ar  179   3.050   5.909   1.010
    1   AR   Ar  180   4.899   5.887  -6.966
    1   AR   Ar  181   6.873   6.074   2.046
    1   AR   Ar  182   0.841   5.937   2.620
    1   AR   Ar  183   5.329   5.147   1.864
    1   AR   Ar  184   3.468   5.372   0.267
    1   AR   Ar  185   3.329   4.404   4.636
    1   AR   Ar  186   3.034   6.330   3.268
    1   AR   Ar  187   4.176   6.436   3.949
    1   AR   Ar  188   3.378   1.054   1.685
    1   AR   Ar  189   6.119   2.908   6.343
    1   AR   Ar  190   1.841   0.283   4.918
    1   AR   Ar  191   4.249   5.302   4.555
    1   AR   Ar  192   3.822   2.781   6.996
    1   AR   Ar  193   3.065   6.098   2.071
    1   AR   Ar  194   4.871   6.523  -0.440
    1   AR   Ar  195   6.417   1.795   2.018
    1   AR   Ar  196   4.381   6.616   1.170
    1   AR   Ar  197   4.925   3.152   0.056
    1   AR   Ar  198   6.932   6.963   0.366
    1   AR   Ar  199   1.083   0.098   2.144
    1   AR   Ar  200   5.061   2.212   0.632
    1   AR   Ar  201   6.939   5.387   3.760
    1   AR   Ar  202   5.830   1.076   4.648
    1   AR   Ar  203   6.857   0.309   3.626
    1   AR   Ar  204   4.484   5.700   7.501
    1   AR   Ar  205   5.456   1.538   2.314
    1   AR   Ar  206   6.382   0.702   6.611
    1   AR   Ar  207   0.322   3.989   4.528
    1   AR   Ar  208   0.813   6.652   3.465
    1   AR   Ar  209   5.727   3.217  -1.018
    1   AR   Ar  210   3.335   2.612   0.411
    1   AR   Ar  211   6.755   3.552   0.395
    1   AR   Ar  212   6.055   4.677   0.298
    1   AR   Ar  213   3.708   1.667   0.734
    1   AR   Ar  214   5.191   4.425   1.065
    1   AR   Ar  215   0.548   2.895   2.347
    1   AR   Ar  216   2.006   2.506  -0.289
    1   AR   Ar  217   5.161   1.953   4.198
    1   AR   Ar  218   4.115   2.504   5.603
    1   AR   Ar  219   4.373   4.320   2.319
    1   AR   Ar  220   4.350   4.846   0.711
    1   AR   Ar  221   6.368   6.395   3.518
    1   AR   Ar  222   6.021   6.943   5.933
    1   AR   Ar  223   0.306   0.728   5.975
    1   AR   Ar  224   4.831   1.325   5.059
    1   AR   Ar  225   6.356   2.951   2.235
    1   AR   Ar  226   2.602   3.586   3.972
    1   AR   Ar  227   1.441   2.716   3.664
    1   AR   Ar  228   5.986   0.718   2.386
    1   AR   Ar  229   5.577   3.988  -0.378
    1   AR   Ar  230   3.937   4.541   3.748
    1   AR   Ar  231   5.511   2.220   3.104
    1   AR   Ar  232   5.201   2.484   1.705
    1   AR   Ar  233   6.894   1.567   3.030
    1   AR   Ar  234   6.432   3.914   4.704
    1   AR   Ar  235   0.087   0.988   4.928
    1   AR   Ar  236   4.243   3.861   4.650
    1   AR   Ar  237   4.050   1.761   7.374
    1   AR   Ar  238   4.564   4.989   6.613
    1   AR   Ar  239   2.063   4.986  10.461
    1   AR   Ar  240   1.597   3.460   7.188
    1   AR   Ar  241   0.665   6.710  -0.528
    1   AR   Ar  242   5.681   6.095   1.752
    1   AR   Ar  243   4.332   5.488   1.528
    1   AR   Ar  244   5.667   6.483   0.462
    1   AR   Ar  245   3.038   1.414   3.305
    1   AR   Ar  246   4.654   5.857  -1.450
    1   AR   Ar  247   6.956   3.288   1.393
    1   AR   Ar  248   5.492   5.072  -0.507
    1   AR   Ar  249   4.434   0.634   0.973
    1   AR   Ar  250   5.310   6.482   3.790
    1   AR   Ar  251   5.415   3.720   4.736
    1   AR   Ar  252   1.892   5.209   1.719
    1   AR   Ar  253   5.125   2.255   6.749
    1   AR   Ar  254   4.160   4.330  13.658
    1   AR   Ar  255   4.995   5.776   9.523
    1   AR   Ar  256   5.863   5.365   3.703
    7.12000  7.12000 12.00000
Argon-slab step 5965
  256
    1   AR   Ar    1   4.051   2.976  -0.678
    1   AR   Ar    2   5.364   0.231   1.202
    1   AR   Ar    3   4.302   3.816  -1.362
    1   AR   Ar    4   2.465   0.724   1.097
    1   AR   Ar    5   6.282   5.694   0.049
    1   AR   Ar    6   1.435   1.112   2.056
    1   AR   Ar    7   5.476   4.368   2.450
    1   AR   Ar    8   6.018   2.791   0.085
    1   AR   Ar    9   0.147   5.141   4.885
    1   AR   Ar   10   5.728   4.677   5.662
    1   AR   Ar   11   0.817   6.582   4.608
    1   AR   Ar   12   6.867   2.256   4.254
    1   AR   Ar   13   6.950   6.938   5.311
    1   AR   Ar   14   4.203   1.521   6.359
    1   AR   Ar   15   3.095   6.111   9.208
    1   AR   Ar   16   0.752   6.991   6.800
    1   AR   Ar   17   5.788   3.412   0.902
    1   AR   Ar   18   0.110   3.714  -2.930
    1   AR   Ar   19   4.407   5.633  -0.253
    1   AR   Ar   20   6.589   2.628  -2.447
    1   AR   Ar   21   2.497   1.349   2.249
    1   AR   Ar   22   4.522   0.687   2.189
    1   AR   Ar   23   1.623   5.310  -0.384
    1   AR   Ar   24   6.064   2.933   4.338
    1   AR   Ar   25   1.149   3.567   5.939
    1   AR   Ar   26   5.735   5.857   5.074
    1   AR   Ar   27   0.609   0.538   0.649
    1   AR   Ar   28   3.095   2.065   4.272
    1   AR   Ar   29   5.259   6.617   7.111
    1   AR   Ar   30   5.757   0.617   3.416
    1   AR   Ar   31   1.367   0.959   6.793
    1   AR   Ar   32   1.885   2.796   5.983
    1   AR   Ar   33   5.320   5.500   0.632
    1   AR   Ar   34   1.480   5.258   3.226
    1   AR   Ar   35   6.132   5.243   2.486
    1   AR   Ar   36   4.205   2.040  -4.047
    1   AR   Ar   37   4.530   3.527   0.996
    1   AR   Ar   38   6.321   4.927   4.520
    1   AR   Ar   39   6.745   3.297   3.533
    1   AR   Ar   40   0.732   3.909   1.970
    1   AR   Ar   41   0.623   1.697   3.815
    1   AR   Ar   42   4.810   4.558   5.187
    1   AR   Ar   43   7.091   2.963   5.901
    1   AR   Ar   44   1.677   3.874   3.031
    1   AR   Ar   45   2.202   3.957   4.960
    1   AR   Ar   46   5.847   5.912   6.551
    1   AR   Ar   47   2.480   3.637   6.146
    1   AR   Ar   48   0.543   3.794   7.248
    1   AR   Ar   49   7.058   2.504   0.110
    1   AR   Ar   50   2.558   4.943   0.760
    1   AR   Ar   51   5.534   3.432   2.923
    1   AR   Ar   52   5.541   3.198  -2.275
    1   AR   Ar   53   4.510   0.034   3.229
    1   AR   Ar   54   5.705   6.776   2.715
    1   AR   Ar   55   0.098   5.216   2.717
    1   AR   Ar   56   6.152   1.535   3.616
    1   AR   Ar   57   4.914   5.233   2.807
    1   AR   Ar   58   1.127   3.201   4.487
    1   AR   Ar   59   4.064   5.583   5.798
    1   AR   Ar   60   0.680   4.874   1.845
    1   AR   Ar   61   6.840   4.732   6.952
    1   AR   Ar   62   0.034   3.971   5.526
    1   AR   Ar   63   2.254   1.272   7.492
    1   AR   Ar   64   0.664   4.871   4.027
    1   AR   Ar   65   3.838   0.899   2.933
    1   AR   Ar   66   0.959   1.818   0.638
    1   AR   Ar   67   4.758   1.432  -1.221
    1   AR   Ar   68   6.572   1.032   1.031
    1   AR   Ar   69   2.941   2.136   1.384
    1   AR   Ar   70   0.312   1.076   1.769
    1   AR   Ar   71   2.839   0.433   2.944
    1   AR   Ar   72   4.420   1.629   1.852
    1   AR   Ar   73   3.568   0.266   3.854
    1   AR   Ar   74   0.815   0.727   3.363
    1   AR   Ar   75   3.210   1.363   6.381
    1   AR   Ar   76   2.572   0.134   2.000
    1   AR   Ar   77   1.304   6.005   6.678
    1   AR   Ar   78   7.031   5.300   5.984
    1   AR   Ar   79   3.749   6.192   4.955
    1   AR   Ar   80   3.545   4.502   6.531
    1   AR   Ar   81   1.813   6.383   2.058
    1   AR   Ar   82   6.652   4.792   1.612
    1   AR   Ar   83   1.787   2.970   0.748
    1   AR   Ar   84   0.810   3.948   0.859
    1   AR   Ar   85   0.701   2.700  -1.191
    1   AR   Ar   86   1.179   5.840   1.372
    1   AR   Ar   87   4.393   1.939   2.975
    1   AR   Ar   88   3.577   4.708   1.651
    1   AR   Ar   89   6.320   2.431   0.984
    1   AR   Ar   90   3.826   0.661   7.156
    1   AR   Ar   91   1.754   1.353   3.253
    1   AR   Ar   92   3.453   3.323   1.268
    1   AR   Ar   93   1.337   1.238   5.574
    1   AR   Ar   94   0.031   6.771   9.926
    1   AR   Ar   95   4.900   0.543   6.756
    1   AR   Ar   96   1.736   0.415   6.103
    1   AR   Ar   97   5.507   2.211  -2.139
    1   AR   Ar   98   1.622   4.231   4.029
    1   AR   Ar   99   5.859   6.601  -0.553
    1   AR   Ar  100   5.295   1.722  -3.598
    1   AR   Ar  101   3.987   5.833   2.891
    1   AR   Ar  102   4.075   2.633   1.464
    1   AR   Ar  103   1.640   3.544   1.758
    1   AR   Ar  104   3.161   0.228  -0.660
    1   AR   Ar  105   2.599   2.462   3.322
    1   AR   Ar  106   4.307   1.321   3.811
    1   AR   Ar  107   1.257   4.608   5.266
    1   AR   Ar  108   2.452   0.679   3.942
    1   AR   Ar  109   2.638   5.079   5.082
    1   AR   Ar  110   2.124   2.748   4.980
    1   AR   Ar  111   4.106   4.206   7.439
    1   AR   Ar  112   6.694   6.685   6.947
    1   AR   Ar  113   5.962   6.393  -1.574
    1   AR   Ar  114   3.378   0.523   0.736
    1   AR   Ar  115   6.532   4.599  -0.845
    1   AR   Ar  116   5.478   1.307   1.388
    1   AR   Ar  117   7.094   4.274   3.256
    1   AR   Ar  118   1.901   6.218   3.569
    1   AR   Ar  119   1.824   2.804   2.678
    1   AR   Ar  120   1.750   6.989   3.033
    1   AR   Ar  121   5.513   5.281   7.457
    1   AR   Ar  122   2.651   4.704   3.606
    1   AR   Ar  123   3.056   2.289   5.509
    1   AR   Ar  124   0.202   6.198   0.961
    1   AR   Ar  125   6.071   4.313   3.654
    1   AR   Ar  126   0.073   1.395   6.818
    1   AR   Ar  127   3.910   3.545   6.048
    1   AR   Ar  128   1.356   4.422   7.750
    1   AR   Ar  129   1.643   5.520   4.586
    1   AR   Ar  130   5.952   0.498  -4.716
    1   AR   Ar  131   3.982   0.336  -0.092
    1   AR   Ar  132   1.777   2.168   1.811
    1   AR   Ar  133   4.508   0.187   4.366
    1   AR   Ar  134   3.695   1.253   4.637
    1   AR   Ar  135   5.268   0.643   5.786
    1   AR   Ar  136   4.366   6.619   2.202
    1   AR   Ar  137   1.995   4.967   5.968
    1   AR   Ar  138   5.938   1.502   6.032
    1   AR   Ar  139   6.309   2.189   5.219
    1   AR   Ar  140   4.790   6.192   5.061
    1   AR   Ar  141   3.345   5.548   3.788
    1   AR   Ar  142   3.764   5.553   8.531
    1   AR   Ar  143   5.248   6.483   8.389
    1   AR   Ar  144   0.082   3.037   4.816
    1   AR   Ar  145   4.539   4.884  -1.585
    1   AR   Ar  146   4.043   2.299   3.870
    1   AR   Ar  147   4.449   4.259  -0.402
    1   AR   Ar  148   1.969   6.090   0.260
    1   AR   Ar  149   5.645   1.914  -0.662
    1   AR   Ar  150   0.757   1.799   2.540
    1   AR   Ar  151   2.965   2.726   2.408
    1   AR   Ar  152   0.237   0.647  -0.728
    1   AR   Ar  153   4.877   0.955   3.082
    1   AR   Ar  154   4.847   2.941   3.710
    1   AR   Ar  155   4.915   3.526   5.627
    1   AR   Ar  156   3.248   4.041   3.067
    1   AR   Ar  157   3.163   5.461   6.304
    1   AR   Ar  158   1.210   2.375   7.557
    1   AR   Ar  159   3.733   0.066   5.278
    1   AR   Ar  160   0.792   2.073   4.798
    1   AR   Ar  161   5.042   4.597   4.068
    1   AR   Ar  162   3.810   5.269  -0.957
    1   AR   Ar  163   6.779   3.895   2.332
    1   AR   Ar  164   2.243   5.711   2.642
    1   AR   Ar  165   3.524   4.306   0.738
    1   AR   Ar  166   3.307   3.469   5.219
    1   AR   Ar  167   6.333   0.168   4.496
    1   AR   Ar  168   6.160   4.602  -2.072
    1   AR   Ar  169   4.443   3.391   2.835
    1   AR   Ar  170   2.597   2.895   6.883
    1   AR   Ar  171   4.734   5.648   3.708
    1   AR   Ar  172   3.751   3.045   4.416
    1   AR   Ar  173   0.079   2.541   7.372
    1   AR   Ar  174   2.524   6.413   4.466
    1   AR   Ar  175   0.620   0.243   7.720
    1   AR   Ar  176   3.419   3.090   3.452
    1   AR   Ar  177   0.759   3.274  -2.124
    1   AR   Ar  178   2.312   6.818   1.062
    1   AR   Ar  179   2.999   5.919   1.018
    1   AR   Ar  180   4.908   5.878  -6.960
    1   AR   Ar  181   6.843   6.038   2.011
    1   AR   Ar  182   0.875   5.934   2.608
    1   AR   Ar  183   5.314   5.130   1.861
    1   AR   Ar  184   3.467   5.383   0.291
    1   AR   Ar  185   3.341   4.413   4.649
    1   AR   Ar  186   3.023   6.331   3.283
    1   AR   Ar  187   4.162   6.430   3.979
    1   AR   Ar  188   3.406   1.068   1.662
    1   AR   Ar  189   6.112   2.877   6.339
    1   AR   Ar  190   1.853   0.248   4.898
    1   AR   Ar  191   4.248   5.311   4.567
    1   AR   Ar  192   3.830   2.788   7.006
    1   AR   Ar  193   3.042   6.130   2.013
    1   AR   Ar  194   4.838   6.546  -0.436
    1   AR   Ar  195   6.439   1.790   1.975
    1   AR   Ar  196   4.381   6.612   1.147
    1   AR   Ar  197   4.944   3.164   0.069
    1   AR   Ar  198   6.965   6.940   0.376
    1   AR   Ar  199   1.097   0.114   2.122
    1   AR   Ar  200   5.025   2.175   0.664
    1   AR   Ar  201   6.956   5.394   3.751
    1   AR   Ar  202   5.806   1.086   4.662
    1   AR   Ar  203   6.864   0.322   3.593
    1   AR   Ar  204   4.472   5.705   7.511
    1   AR   Ar  205   5.453   1.518   2.319
    1   AR   Ar  206   6.386   0.727   6.622
    1   AR   Ar  207   0.339   3.991   4.503
    1   AR   Ar  208   0.806   6.668   3.448
    1   AR   Ar  209   5.733   3.223  -1.005
    1   AR   Ar  210   3.363   2.636   0.444
    1   AR   Ar  211   6.750   3.532   0.420
    1   AR   Ar  212   6.028   4.687   0.288
    1   AR   Ar  213   3.717   1.675   0.741
    1   AR   Ar  214   5.184   4.443   1.060
    1   AR   Ar  215   0.559   2.902   2.338
    1   AR   Ar  216   2.009   2.493  -0.263
    1   AR   Ar  217   5.174   1.964   4.194
    1   AR   Ar  218   4.101   2.498   5.575
    1   AR   Ar  219   4.384   4.343   2.332
    1   AR   Ar  220   4.334   4.883   0.687
    1   AR   Ar  221   6.381   6.391   3.514
    1   AR   Ar  222   6.016   6.962   5.920
    1   AR   Ar  223   0.283   0.732   5.954
    1   AR   Ar  224   4.877   1.329   5.044
    1   AR   Ar  225   6.335   2.923   2.236
    1   AR   Ar  226   2.592   3.631   3.949
    1   AR   Ar  227   1.425   2.712   3.637
    1   AR   Ar  228   5.996   0.716   2.381
    1   AR   Ar  229   5.608   3.997  -0.373
    1   AR   Ar  230   3.917   4.517   3.755
    1   AR   Ar  231   5.514   2.203   3.092
    1   AR   Ar  232   5.193   2.466   1.698
    1   AR   Ar  233   6.876   1.551   3.081
    1   AR   Ar  234   6.415   3.892   4.732
    1   AR   Ar  235   0.121   0.967   4.963
    1   AR   Ar  236   4.278   3.868   4.668
    1   AR   Ar  237   4.063   1.769   7.396
    1   AR   Ar  238   4.563   5.022   6.627
    1   AR   Ar  239   2.123   4.993  10.464
    1   AR   Ar  240   1.606   3.473   7.195
    1   AR   Ar  241   0.676   6.720  -0.534
    1   AR   Ar  242   5.662   6.101   1.750
    1   AR   Ar  243   4.342   5.480   1.543
    1   AR   Ar  244   5.672   6.502   0.476
    1   AR   Ar  245   3.019   1.426   3.328
    1   AR   Ar  246   4.636   5.865  -1.447
    1   AR   Ar  247   6.964   3.262   1.412
    1   AR   Ar  248   5.457   5.036  -0.519
    1   AR   Ar  249   4.451   0.673   0.960
    1   AR   Ar  250   5.333   6.476   3.830
    1   AR   Ar  251   5.373   3.720   4.733
    1   AR   Ar  252   1.859   5.233   1.715
    1   AR   Ar  253   5.109   2.224   6.730
    1   AR   Ar  254   4.173   4.322  13.673
    1   AR   Ar  255   4.999   5.768   9.527
    1   AR   Ar  256   5.888   5.363   3.711
    7.12000  7.12000 12.00000
Argon-slab step 5970
  256
    1   AR   Ar    1   4.052   2.949  -0.688
    1   AR   Ar    2   5.377   0.228   1.220
    1   AR   Ar    3   4.287   3.804  -1.390
    1   AR   Ar    4   2.464   0.745   1.125
    1   AR   Ar    5   6.265   5.713   0.023
    1   AR   Ar    6   1.434   1.125   2.044
    1   AR   Ar    7   5.492   4.360   2.471
    1   AR   Ar    8   6.023   2.775   0.099
    1   AR   Ar    9   0.146   5.151   4.873
    1   AR   Ar   10   5.738   4.660   5.656
    1   AR   Ar   11   0.822   6.549   4.612
    1   AR   Ar   12   6.890   2.274   4.259
    1   AR   Ar   13   6.944   6.934   5.312
    1   AR   Ar   14   4.234   1.526   6.332
    1   AR   Ar   15   3.085   6.151   9.224
    1   AR   Ar   16   0.717   6.972   6.805
    1   AR   Ar   17   5.766   3.427   0.910
    1   AR   Ar   18   0.151   3.734  -2.914
    1   AR   Ar   19   4.415   5.646  -0.239
    1   AR   Ar   20   6.584   2.606  -2.430
    1   AR   Ar   21   2.518   1.358   2.245
    1   AR   Ar   22   4.492   0.690   2.183
    1   AR   Ar   23   1.669   5.294  -0.405
    1   AR   Ar   24   6.056   2.919   4.339
    1   AR   Ar   25   1.137   3.581   5.971
    1   AR   Ar   26   5.749   5.853   5.089
    1   AR   Ar   27   0.598   0.491   0.614
    1   AR   Ar   28   3.065   2.044   4.266
    1   AR   Ar   29   5.229   6.611   7.122
    1   AR   Ar   30   5.775   0.621   3.408
    1   AR   Ar   31   1.376   0.966   6.834
    1   AR   Ar   32   1.869   2.813   6.013
    1   AR   Ar   33   5.269   5.509   0.639
    1   AR   Ar   34   1.493   5.238   3.204
    1   AR   Ar   35   6.093   5.213   2.497
    1   AR   Ar   36   4.174   2.026  -4.047
    1   AR   Ar   37   4.512   3.543   0.974
    1   AR   Ar   38   6.318   4.959   4.513
    1   AR   Ar   39   6.719   3.329   3.513
    1   AR   Ar   40   0.764   3.888   1.971
    1   AR   Ar   41   0.655   1.688   3.836
    1   AR   Ar   42   4.811   4.530   5.189
    1   AR   Ar   43   7.109   2.945   5.875
    1   AR   Ar   44   1.668   3.845   3.037
    1   AR   Ar   45   2.188   3.969   4.947
    1   AR   Ar   46   5.854   5.906   6.540
    1   AR   Ar   47   2.449   3.631   6.138
    1   AR   Ar   48   0.505   3.784   7.220
    1   AR   Ar   49   7.045   2.494   0.161
    1   AR   Ar   50   2.558   4.963   0.783
    1   AR   Ar   51   5.545   3.426   2.920
    1   AR   Ar   52   5.529   3.202  -2.281
    1   AR   Ar   53   4.533   0.038   3.226
    1   AR   Ar   54   5.687   6.768   2.728
    1   AR   Ar   55   0.136   5.256   2.741
    1   AR   Ar   56   6.125   1.466   3.613
    1   AR   Ar   57   4.912   5.256   2.839
    1   AR   Ar   58   1.117   3.164   4.481
    1   AR   Ar   59   4.094   5.584   5.806
    1   AR   Ar   60   0.648   4.867   1.820
    1   AR   Ar   61   6.853   4.717   6.947
    1   AR   Ar   62   0.050   3.958   5.519
    1   AR   Ar   63   2.282   1.250   7.471
    1   AR   Ar   64   0.657   4.848   4.052
    1   AR   Ar   65   3.798   0.875   2.979
    1   AR   Ar   66   0.948   1.788   0.651
    1   AR   Ar   67   4.779   1.446  -1.228
    1   AR   Ar   68   6.598   1.039   1.050
    1   AR   Ar   69   2.947   2.119   1.364
    1   AR   Ar   70   0.326   1.077   1.806
    1   AR   Ar   71   2.844   0.422   2.962
    1   AR   Ar   72   4.429   1.622   1.839
    1   AR   Ar   73   3.581   0.288   3.859
    1   AR   Ar   74   0.833   0.738   3.362
    1   AR   Ar   75   3.187   1.367   6.419
    1   AR   Ar   76   2.544   0.159   2.031
    1   AR   Ar   77   1.301   6.010   6.661
    1   AR   Ar   78   7.055   5.260   5.996
    1   AR   Ar   79   3.720   6.217   4.936
    1   AR   Ar   80   3.527   4.541   6.568
    1   AR   Ar   81   1.813   6.372   2.040
    1   AR   Ar   82   6.638   4.794   1.654
    1   AR   Ar   83   1.771   2.975   0.755
    1   AR   Ar   84   0.807   3.952   0.865
    1   AR   Ar   85   0.709   2.694  -1.199
    1   AR   Ar   86   1.176   5.862   1.371
    1   AR   Ar   87   4.396   1.947   3.020
    1   AR   Ar   88   3.568   4.695   1.656
    1   AR   Ar   89   6.367   2.439   0.992
    1   AR   Ar   90   3.874   0.643   7.177
    1   AR   Ar   91   1.750   1.399   3.269
    1   AR   Ar   92   3.435   3.343   1.299
    1   AR   Ar   93   1.324   1.239   5.536
    1   AR   Ar   94   0.020   6.800   9.937
    1   AR   Ar   95   4.918   0.557   6.763
    1   AR   Ar   96   1.730   0.391   6.107
    1   AR   Ar   97   5.522   2.232  -2.137
    1   AR   Ar   98   1.604   4.221   4.067
    1   AR   Ar   99   5.883   6.616  -0.540
    1   AR   Ar  100   5.272   1.713  -3.629
    1   AR   Ar  101   3.999   5.871   2.889
    1   AR   Ar  102   4.074   2.641   1.470
    1   AR   Ar  103   1.665   3.560   1.759
    1   AR   Ar  104   3.143   0.214  -0.664
    1   AR   Ar  105   2.607   2.465   3.339
    1   AR   Ar  106   4.302   1.281   3.816
    1   AR   Ar  107   1.256   4.573   5.281
    1   AR   Ar  108   2.442   0.674   3.936
    1   AR   Ar  109   2.640   5.079   5.108
    1   AR   Ar  110   2.144   2.750   4.950
    1   AR   Ar  111   4.097   4.226   7.454
    1   AR   Ar  112   6.697   6.693   6.934
    1   AR   Ar  113   5.935   6.408  -1.586
    1   AR   Ar  114   3.417   0.532   0.745
    1   AR   Ar  115   6.545   4.590  -0.883
    1   AR   Ar  116   5.498   1.270   1.383
    1   AR   Ar  117   7.090   4.270   3.242
    1   AR   Ar  118   1.881   6.211   3.589
    1   AR   Ar  119   1.840   2.801   2.666
    1   AR   Ar  120   1.730   6.972   3.021
    1   AR   Ar  121   5.494   5.315   7.476
    1   AR   Ar  122   2.654   4.705   3.642
    1   AR   Ar  123   3.046   2.292   5.521
    1   AR   Ar  124   0.207   6.227   0.962
    1   AR   Ar  125   6.080   4.308   3.661
    1   AR   Ar  126   0.059   1.418   6.801
    1   AR   Ar  127   3.886   3.544   6.048
    1   AR   Ar  128   1.358   4.427   7.755
    1   AR   Ar  129   1.595   5.497   4.611
    1   AR   Ar  130   5.957   0.492  -4.718
    1   AR   Ar  131   4.008   0.332  -0.071
    1   AR   Ar  132   1.775   2.169   1.783
    1   AR   Ar  133   4.506   0.219   4.341
    1   AR   Ar  134   3.692   1.252   4.608
    1   AR   Ar  135   5.261   0.660   5.783
    1   AR   Ar  136   4.344   6.646   2.203
    1   AR   Ar  137   2.000   4.993   5.943
    1   AR   Ar  138   5.962   1.512   6.029
    1   AR   Ar  139   6.323   2.173   5.207
    1   AR   Ar  140   4.799   6.185   5.076
    1   AR   Ar  141   3.353   5.567   3.792
    1   AR   Ar  142   3.770   5.523   8.530
    1   AR   Ar  143   5.241   6.449   8.419
    1   AR   Ar  144   0.068   3.051   4.803
    1   AR   Ar  145   4.515   4.857  -1.592
    1   AR   Ar  146   4.053   2.323   3.879
    1   AR   Ar  147   4.436   4.271  -0.426
    1   AR   Ar  148   1.956   6.078   0.263
    1   AR   Ar  149   5.620   1.933  -0.630
    1   AR   Ar  150   0.740   1.801   2.544
    1   AR   Ar  151   2.953   2.728   2.431
    1   AR   Ar  152   0.264   0.633  -0.718
    1   AR   Ar  153   4.901   0.940   3.098
    1   AR   Ar  154   4.825   2.946   3.680
    1   AR   Ar  155   4.899   3.537   5.624
    1   AR   Ar  156   3.253   4.040   3.047
    1   AR   Ar  157   3.133   5.445   6.294
    1   AR   Ar  158   1.183   2.382   7.564
    1   AR   Ar  159   3.703   0.062   5.261
    1   AR   Ar  160   0.747   2.104   4.816
    1   AR   Ar  161   5.022   4.609   4.072
    1   AR   Ar  162   3.793   5.261  -0.920
    1   AR   Ar  163   6.793   3.878   2.345
    1   AR   Ar  164   2.247   5.672   2.653
    1   AR   Ar  165   3.487   4.289   0.742
    1   AR   Ar  166   3.286   3.489   5.218
    1   AR   Ar  167   6.329   0.176   4.511
    1   AR   Ar  168   6.142   4.590  -2.045
    1   AR   Ar  169   4.449   3.378   2.848
    1   AR   Ar  170   2.598   2.905   6.907
    1   AR   Ar  171   4.759   5.645   3.734
    1   AR   Ar  172   3.760   3.038   4.419
    1   AR   Ar  173   0.055   2.553   7.340
    1   AR   Ar  174   2.507   6.463   4.482
    1   AR   Ar  175   0.595   0.274   7.731
    1   AR   Ar  176   3.418   3.077   3.441
    1   AR   Ar  177   0.791   3.261  -2.145
    1   AR   Ar  178   2.354   6.828   1.043
    1   AR   Ar  179   2.945   5.931   1.025
    1   AR   Ar  180   4.912   5.867  -6.943
    1   AR   Ar  181   6.813   6.001   1.975
    1   AR   Ar  182   0.912   5.934   2.593
    1   AR   Ar  183   5.295   5.120   1.843
    1   AR   Ar  184   3.468   5.391   0.310
    1   AR   Ar  185   3.352   4.409   4.662
    1   AR   Ar  186   3.007   6.342   3.291
    1   AR   Ar  187   4.140   6.423   4.008
    1   AR   Ar  188   3.434   1.082   1.643
    1   AR   Ar  189   6.103   2.845   6.335
    1   AR   Ar  190   1.865   0.212   4.876
    1   AR   Ar  191   4.240   5.327   4.563
    1   AR   Ar  192   3.838   2.794   7.014
    1   AR   Ar  193   3.019   6.164   1.963
    1   AR   Ar  194   4.802   6.573  -0.431
    1   AR   Ar  195   6.462   1.785   1.932
    1   AR   Ar  196   4.405   6.614   1.155
    1   AR   Ar  197   4.965   3.175   0.079
    1   AR   Ar  198   6.993   6.922   0.380
    1   AR   Ar  199   1.111   0.128   2.100
    1   AR   Ar  200   4.990   2.139   0.696
    1   AR   Ar  201   6.969   5.405   3.741
    1   AR   Ar  202   5.786   1.097   4.674
    1   AR   Ar  203   6.873   0.337   3.557
    1   AR   Ar  204   4.461   5.709   7.506
    1   AR   Ar  205   5.438   1.512   2.340
    1   AR   Ar  206   6.388   0.747   6.632
    1   AR   Ar  207   0.358   3.996   4.475
    1   AR   Ar  208   0.795   6.698   3.471
    1   AR   Ar  209   5.739   3.223  -0.997
    1   AR   Ar  210   3.390   2.661   0.476
    1   AR   Ar  211   6.746   3.515   0.442
    1   AR   Ar  212   5.995   4.692   0.280
    1   AR   Ar  213   3.728   1.680   0.751
    1   AR   Ar  214   5.182   4.458   1.056
    1   AR   Ar  215   0.569   2.908   2.329
    1   AR   Ar  216   2.013   2.480  -0.237
    1   AR   Ar  217   5.187   1.974   4.189
    1   AR   Ar  218   4.077   2.491   5.509
    1   AR   Ar  219   4.395   4.369   2.343
    1   AR   Ar  220   4.323   4.926   0.657
    1   AR   Ar  221   6.395   6.387   3.510
    1   AR   Ar  222   6.005   6.985   5.893
    1   AR   Ar  223   0.262   0.733   5.940
    1   AR   Ar  224   4.916   1.335   5.029
    1   AR   Ar  225   6.312   2.892   2.238
    1   AR   Ar  226   2.598   3.612   3.970
    1   AR   Ar  227   1.410   2.705   3.609
    1   AR   Ar  228   6.015   0.703   2.374
    1   AR   Ar  229   5.637   4.007  -0.364
    1   AR   Ar  230   3.898   4.491   3.773
    1   AR   Ar  231   5.516   2.191   3.083
    1   AR   Ar  232   5.187   2.448   1.692
    1   AR   Ar  233   6.897   1.537   3.103
    1   AR   Ar  234   6.398   3.870   4.759
    1   AR   Ar  235   0.130   0.959   4.969
    1   AR   Ar  236   4.314   3.877   4.685
    1   AR   Ar  237   4.076   1.777   7.419
    1   AR   Ar  238   4.562   5.054   6.641
    1   AR   Ar  239   2.184   4.999  10.466
    1   AR   Ar  240   1.616   3.485   7.200
    1   AR   Ar  241   0.686   6.731  -0.539
    1   AR   Ar  242   5.643   6.112   1.747
    1   AR   Ar  243   4.352   5.475   1.561
    1   AR   Ar  244   5.675   6.524   0.493
    1   AR   Ar  245   2.999   1.441   3.352
    1   AR   Ar  246   4.621   5.883  -1.441
    1   AR   Ar  247   6.976   3.256   1.415
    1   AR   Ar  248   5.418   5.005  -0.533
    1   AR   Ar  249   4.463   0.716   0.948
    1   AR   Ar  250   5.356   6.475   3.871
    1   AR   Ar  251   5.331   3.720   4.724
    1   AR   Ar  252   1.845   5.258   1.719
    1   AR   Ar  253   5.093   2.192   6.710
    1   AR   Ar  254   4.186   4.315  13.688
    1   AR   Ar  255   5.003   5.762   9.531
    1   AR   Ar  256   5.905   5.367   3.712
    7.12000  7.12000 12.00000
Argon-slab step 5975
  256
    1   AR   Ar    1   4.054   2.923  -0.695
    1   AR   Ar    2   5.384   0.231   1.250
    1   AR   Ar    3   4.272   3.790  -1.418
    1   AR   Ar    4   2.460   0.773   1.156
    1   AR   Ar    5   6.247   5.732  -0.003
    1   AR   Ar    6   1.436   1.141   2.032
    1   AR   Ar    7   5.509   4.346   2.495
    1   AR   Ar    8   6.022   2.761   0.104
    1   AR   Ar    9   0.146   5.163   4.868
    1   AR   Ar   10   5.751   4.644   5.650
    1   AR   Ar   11   0.828   6.517   4.615
    1   AR   Ar   12   6.912   2.281   4.257
    1   AR   Ar   13   6.956   6.926   5.287
    1   AR   Ar   14   4.268   1.531   6.304
    1   AR   Ar   15   3.076   6.191   9.241
    1   AR   Ar   16   0.682   6.952   6.803
    1   AR   Ar   17   5.741   3.443   0.920
    1   AR   Ar   18   0.190   3.753  -2.897
    1   AR   Ar   19   4.429   5.656  -0.218
    1   AR   Ar   20   6.578   2.584  -2.412
    1   AR   Ar   21   2.539   1.366   2.241
    1   AR   Ar   22   4.438   0.691   2.172
    1   AR   Ar   23   1.714   5.276  -0.426
    1   AR   Ar   24   6.046   2.906   4.340
    1   AR   Ar   25   1.123   3.599   6.003
    1   AR   Ar   26   5.771   5.846   5.105
    1   AR   Ar   27   0.590   0.448   0.581
    1   AR   Ar   28   3.034   2.026   4.262
    1   AR   Ar   29   5.198   6.605   7.133
    1   AR   Ar   30   5.792   0.593   3.401
    1   AR   Ar   31   1.379   0.980   6.882
    1   AR   Ar   32   1.850   2.822   6.043
    1   AR   Ar   33   5.217   5.518   0.646
    1   AR   Ar   34   1.503   5.214   3.187
    1   AR   Ar   35   6.060   5.188   2.513
    1   AR   Ar   36   4.144   2.012  -4.047
    1   AR   Ar   37   4.493   3.559   0.953
    1   AR   Ar   38   6.313   4.985   4.516
    1   AR   Ar   39   6.690   3.359   3.493
    1   AR   Ar   40   0.786   3.863   1.976
    1   AR   Ar   41   0.687   1.680   3.855
    1   AR   Ar   42   4.816   4.518   5.198
    1   AR   Ar   43   0.007   2.925   5.850
    1   AR   Ar   44   1.659   3.815   3.043
    1   AR   Ar   45   2.174   3.980   4.937
    1   AR   Ar   46   5.862   5.901   6.527
    1   AR   Ar   47   2.422   3.634   6.128
    1   AR   Ar   48   0.468   3.773   7.191
    1   AR   Ar   49   7.037   2.483   0.211
    1   AR   Ar   50   2.557   4.981   0.806
    1   AR   Ar   51   5.559   3.416   2.919
    1   AR   Ar   52   5.518   3.218  -2.288
    1   AR   Ar   53   4.551   0.031   3.224
    1   AR   Ar   54   5.671   6.798   2.745
    1   AR   Ar   55   0.171   5.293   2.763
    1   AR   Ar   56   6.081   1.420   3.637
    1   AR   Ar   57   4.913   5.273   2.863
    1   AR   Ar   58   1.108   3.130   4.479
    1   AR   Ar   59   4.125   5.586   5.810
    1   AR   Ar   60   0.615   4.871   1.794
    1   AR   Ar   61   6.866   4.702   6.941
    1   AR   Ar   62   0.067   3.947   5.513
    1   AR   Ar   63   2.311   1.229   7.448
    1   AR   Ar   64   0.660   4.830   4.067
    1   AR   Ar   65   3.760   0.860   2.980
    1   AR   Ar   66   0.936   1.757   0.665
    1   AR   Ar   67   4.801   1.460  -1.235
    1   AR   Ar   68   6.625   1.047   1.069
    1   AR   Ar   69   2.951   2.102   1.346
    1   AR   Ar   70   0.340   1.078   1.844
    1   AR   Ar   71   2.849   0.411   2.986
    1   AR   Ar   72   4.438   1.625   1.821
    1   AR   Ar   73   3.590   0.310   3.863
    1   AR   Ar   74   0.830   0.722   3.340
    1   AR   Ar   75   3.162   1.372   6.459
    1   AR   Ar   76   2.514   0.182   2.057
    1   AR   Ar   77   1.299   6.015   6.643
    1   AR   Ar   78   7.078   5.220   6.007
    1   AR   Ar   79   3.687   6.235   4.918
    1   AR   Ar   80   3.511   4.575   6.604
    1   AR   Ar   81   1.801   6.389   2.035
    1   AR   Ar   82   6.625   4.795   1.696
    1   AR   Ar   83   1.755   2.979   0.764
    1   AR   Ar   84   0.803   3.954   0.872
    1   AR   Ar   85   0.717   2.687  -1.206
    1   AR   Ar   86   1.161   5.893   1.363
    1   AR   Ar   87   4.404   1.952   3.053
    1   AR   Ar   88   3.554   4.692   1.663
    1   AR   Ar   89   6.414   2.444   1.010
    1   AR   Ar   90   3.923   0.628   7.197
    1   AR   Ar   91   1.748   1.447   3.283
    1   AR   Ar   92   3.404   3.376   1.330
    1   AR   Ar   93   1.309   1.246   5.506
    1   AR   Ar   94   0.008   6.829   9.947
    1   AR   Ar   95   4.933   0.564   6.771
    1   AR   Ar   96   1.728   0.360   6.102
    1   AR   Ar   97   5.537   2.239  -2.132
    1   AR   Ar   98   1.584   4.213   4.106
    1   AR   Ar   99   5.893   6.645  -0.528
    1   AR   Ar  100   5.248   1.704  -3.659
    1   AR   Ar  101   4.010   5.908   2.889
    1   AR   Ar  102   4.093   2.639   1.477
    1   AR   Ar  103   1.701   3.570   1.758
    1   AR   Ar  104   3.141   0.235  -0.670
    1   AR   Ar  105   2.607   2.463   3.365
    1   AR   Ar  106   4.298   1.240   3.826
    1   AR   Ar  107   1.237   4.554   5.294
    1   AR   Ar  108   2.431   0.668   3.931
    1   AR   Ar  109   2.622   5.075   5.122
    1   AR   Ar  110   2.166   2.754   4.918
    1   AR   Ar  111   4.089   4.248   7.469
    1   AR   Ar  112   6.698   6.702   6.920
    1   AR   Ar  113   5.907   6.422  -1.600
    1   AR   Ar  114   3.433   0.532   0.757
    1   AR   Ar  115   6.555   4.581  -0.919
    1   AR   Ar  116   5.520   1.235   1.369
    1   AR   Ar  117   7.089   4.273   3.233
    1   AR   Ar  118   1.863   6.189   3.619
    1   AR   Ar  119   1.856   2.800   2.650
    1   AR   Ar  120   1.710   6.971   2.997
    1   AR   Ar  121   5.476   5.350   7.493
    1   AR   Ar  122   2.655   4.706   3.680
    1   AR   Ar  123   3.033   2.296   5.533
    1   AR   Ar  124   0.218   6.243   0.973
    1   AR   Ar  125   6.092   4.300   3.683
    1   AR   Ar  126   0.049   1.444   6.784
    1   AR   Ar  127   3.864   3.543   6.053
    1   AR   Ar  128   1.368   4.410   7.749
    1   AR   Ar  129   1.546   5.473   4.635
    1   AR   Ar  130   5.961   0.486  -4.719
    1   AR   Ar  131   4.033   0.329  -0.059
    1   AR   Ar  132   1.778   2.168   1.757
    1   AR   Ar  133   4.509   0.256   4.320
    1   AR   Ar  134   3.686   1.249   4.586
    1   AR   Ar  135   5.262   0.682   5.768
    1   AR   Ar  136   4.324   6.674   2.207
    1   AR   Ar  137   2.005   5.020   5.921
    1   AR   Ar  138   5.985   1.524   6.023
    1   AR   Ar  139   6.337   2.157   5.196
    1   AR   Ar  140   4.800   6.181   5.089
    1   AR   Ar  141   3.366   5.577   3.805
    1   AR   Ar  142   3.776   5.494   8.528
    1   AR   Ar  143   5.232   6.413   8.449
    1   AR   Ar  144   0.055   3.069   4.796
    1   AR   Ar  145   4.494   4.826  -1.599
    1   AR   Ar  146   4.063   2.327   3.884
    1   AR   Ar  147   4.425   4.286  -0.448
    1   AR   Ar  148   1.944   6.068   0.271
    1   AR   Ar  149   5.595   1.954  -0.598
    1   AR   Ar  150   0.724   1.804   2.549
    1   AR   Ar  151   2.944   2.732   2.447
    1   AR   Ar  152   0.290   0.619  -0.707
    1   AR   Ar  153   4.897   0.964   3.100
    1   AR   Ar  154   4.811   2.951   3.657
    1   AR   Ar  155   4.880   3.545   5.626
    1   AR   Ar  156   3.258   4.039   3.024
    1   AR   Ar  157   3.096   5.426   6.282
    1   AR   Ar  158   1.155   2.390   7.570
    1   AR   Ar  159   3.675   0.065   5.245
    1   AR   Ar  160   0.703   2.136   4.835
    1   AR   Ar  161   5.003   4.620   4.076
    1   AR   Ar  162   3.770   5.250  -0.887
    1   AR   Ar  163   6.806   3.860   2.354
    1   AR   Ar  164   2.257   5.633   2.667
    1   AR   Ar  165   3.448   4.267   0.736
    1   AR   Ar  166   3.270   3.502   5.234
    1   AR   Ar  167   6.324   0.183   4.523
    1   AR   Ar  168   6.124   4.578  -2.016
    1   AR   Ar  169   4.451   3.367   2.855
    1   AR   Ar  170   2.600   2.914   6.931
    1   AR   Ar  171   4.785   5.640   3.764
    1   AR   Ar  172   3.759   3.037   4.431
    1   AR   Ar  173   0.032   2.565   7.307
    1   AR   Ar  174   2.491   6.513   4.498
    1   AR   Ar  175   0.615   0.323   7.740
    1   AR   Ar  176   3.421   3.064   3.425
    1   AR   Ar  177   0.755   3.227  -2.172
    1   AR   Ar  178   2.395   6.834   1.025
    1   AR   Ar  179   2.889   5.941   1.019
    1   AR   Ar  180   4.907   5.865  -6.927
    1   AR   Ar  181   6.783   5.962   1.940
    1   AR   Ar  182   0.952   5.937   2.577
    1   AR   Ar  183   5.274   5.114   1.819
    1   AR   Ar  184   3.468   5.398   0.324
    1   AR   Ar  185   3.335   4.405   4.646
    1   AR   Ar  186   2.987   6.365   3.292
    1   AR   Ar  187   4.116   6.416   4.033
    1   AR   Ar  188   3.464   1.098   1.627
    1   AR   Ar  189   6.093   2.811   6.331
    1   AR   Ar  190   1.876   0.177   4.855
    1   AR   Ar  191   4.230   5.341   4.557
    1   AR   Ar  192   3.846   2.801   7.020
    1   AR   Ar  193   2.996   6.203   1.929
    1   AR   Ar  194   4.767   6.605  -0.427
    1   AR   Ar  195   6.485   1.779   1.890
    1   AR   Ar  196   4.431   6.617   1.159
    1   AR   Ar  197   4.987   3.187   0.088
    1   AR   Ar  198   7.010   6.912   0.371
    1   AR   Ar  199   1.123   0.138   2.079
    1   AR   Ar  200   4.953   2.102   0.726
    1   AR   Ar  201   6.980   5.418   3.732
    1   AR   Ar  202   5.781   1.106   4.679
    1   AR   Ar  203   6.882   0.352   3.520
    1   AR   Ar  204   4.449   5.713   7.482
    1   AR   Ar  205   5.415   1.513   2.366
    1   AR   Ar  206   6.389   0.762   6.641
    1   AR   Ar  207   0.376   3.997   4.448
    1   AR   Ar  208   0.782   6.727   3.494
    1   AR   Ar  209   5.745   3.215  -0.992
    1   AR   Ar  210   3.418   2.688   0.507
    1   AR   Ar  211   6.741   3.500   0.460
    1   AR   Ar  212   5.938   4.689   0.271
    1   AR   Ar  213   3.741   1.680   0.753
    1   AR   Ar  214   5.182   4.467   1.049
    1   AR   Ar  215   0.578   2.913   2.320
    1   AR   Ar  216   2.016   2.467  -0.209
    1   AR   Ar  217   5.201   1.985   4.180
    1   AR   Ar  218   4.056   2.487   5.442
    1   AR   Ar  219   4.405   4.396   2.353
    1   AR   Ar  220   4.316   4.966   0.625
    1   AR   Ar  221   6.410   6.382   3.506
    1   AR   Ar  222   5.995   7.007   5.869
    1   AR   Ar  223   0.241   0.731   5.933
    1   AR   Ar  224   4.937   1.345   5.019
    1   AR   Ar  225   6.288   2.859   2.240
    1   AR   Ar  226   2.613   3.592   3.982
    1   AR   Ar  227   1.413   2.693   3.584
    1   AR   Ar  228   6.040   0.682   2.365
    1   AR   Ar  229   5.662   4.010  -0.354
    1   AR   Ar  230   3.883   4.467   3.790
    1   AR   Ar  231   5.517   2.185   3.079
    1   AR   Ar  232   5.183   2.431   1.688
    1   AR   Ar  233   6.947   1.523   3.105
    1   AR   Ar  234   6.382   3.848   4.785
    1   AR   Ar  235   0.102   0.970   4.932
    1   AR   Ar  236   4.337   3.877   4.693
    1   AR   Ar  237   4.089   1.784   7.440
    1   AR   Ar  238   4.561   5.084   6.655
    1   AR   Ar  239   2.244   5.006  10.469
    1   AR   Ar  240   1.626   3.495   7.203
    1   AR   Ar  241   0.696   6.742  -0.542
    1   AR   Ar  242   5.625   6.125   1.743
    1   AR   Ar  243   4.360   5.475   1.581
    1   AR   Ar  244   5.677   6.546   0.514
    1   AR   Ar  245   2.981   1.459   3.372
    1   AR   Ar  246   4.607   5.906  -1.431
    1   AR   Ar  247   6.966   3.261   1.413
    1   AR   Ar  248   5.374   4.980  -0.550
    1   AR   Ar  249   4.475   0.760   0.937
    1   AR   Ar  250   5.381   6.479   3.913
    1   AR   Ar  251   5.298   3.720   4.707
    1   AR   Ar  252   1.853   5.288   1.733
    1   AR   Ar  253   5.077   2.160   6.688
    1   AR   Ar  254   4.199   4.307  13.703
    1   AR   Ar  255   5.006   5.755   9.533
    1   AR   Ar  256   5.913   5.378   3.703
    7.12000  7.12000 12.00000
Argon-slab step 5980
  256
    1   AR   Ar    1   4.057   2.897  -0.701
    1   AR   Ar    2   5.390   0.226   1.281
    1   AR   Ar    3   4.257   3.775  -1.446
    1   AR   Ar    4   2.455   0.806   1.188
    1   AR   Ar    5   6.243   5.751   0.014
    1   AR   Ar    6   1.441   1.159   2.021
    1   AR   Ar    7   5.522   4.327   2.520
    1   AR   Ar    8   6.016   2.748   0.103
    1   AR   Ar    9   0.147   5.178   4.870
    1   AR   Ar   10   5.769   4.628   5.643
    1   AR   Ar   11   0.835   6.484   4.618
    1   AR   Ar   12   6.932   2.278   4.246
    1   AR   Ar   13   6.976   6.917   5.258
    1   AR   Ar   14   4.302   1.535   6.276
    1   AR   Ar   15   3.067   6.230   9.257
    1   AR   Ar   16   0.648   6.933   6.797
    1   AR   Ar   17   5.714   3.460   0.931
    1   AR   Ar   18   0.227   3.774  -2.882
    1   AR   Ar   19   4.447   5.663  -0.192
    1   AR   Ar   20   6.572   2.564  -2.394
    1   AR   Ar   21   2.560   1.375   2.238
    1   AR   Ar   22   4.385   0.683   2.160
    1   AR   Ar   23   1.759   5.258  -0.448
    1   AR   Ar   24   6.032   2.893   4.340
    1   AR   Ar   25   1.107   3.619   6.034
    1   AR   Ar   26   5.798   5.837   5.120
    1   AR   Ar   27   0.592   0.414   0.551
    1   AR   Ar   28   3.002   2.012   4.261
    1   AR   Ar   29   5.168   6.598   7.144
    1   AR   Ar   30   5.801   0.523   3.388
    1   AR   Ar   31   1.378   0.995   6.933
    1   AR   Ar   32   1.828   2.822   6.072
    1   AR   Ar   33   5.169   5.528   0.654
    1   AR   Ar   34   1.506   5.185   3.175
    1   AR   Ar   35   6.033   5.173   2.535
    1   AR   Ar   36   4.115   1.997  -4.047
    1   AR   Ar   37   4.478   3.584   0.938
    1   AR   Ar   38   6.308   5.005   4.528
    1   AR   Ar   39   6.651   3.376   3.477
    1   AR   Ar   40   0.796   3.842   1.985
    1   AR   Ar   41   0.719   1.673   3.872
    1   AR   Ar   42   4.827   4.527   5.219
    1   AR   Ar   43   0.005   2.927   5.833
    1   AR   Ar   44   1.650   3.784   3.050
    1   AR   Ar   45   2.163   3.989   4.925
    1   AR   Ar   46   5.870   5.896   6.515
    1   AR   Ar   47   2.400   3.646   6.117
    1   AR   Ar   48   0.432   3.762   7.161
    1   AR   Ar   49   7.037   2.470   0.256
    1   AR   Ar   50   2.547   4.981   0.791
    1   AR   Ar   51   5.575   3.400   2.923
    1   AR   Ar   52   5.507   3.245  -2.295
    1   AR   Ar   53   4.566   0.016   3.224
    1   AR   Ar   54   5.653   6.827   2.762
    1   AR   Ar   55   0.203   5.325   2.779
    1   AR   Ar   56   6.043   1.413   3.677
    1   AR   Ar   57   4.917   5.285   2.875
    1   AR   Ar   58   1.099   3.099   4.482
    1   AR   Ar   59   4.156   5.587   5.812
    1   AR   Ar   60   0.583   4.881   1.767
    1   AR   Ar   61   6.879   4.685   6.937
    1   AR   Ar   62   0.087   3.939   5.507
    1   AR   Ar   63   2.340   1.208   7.424
    1   AR   Ar   64   0.677   4.824   4.070
    1   AR   Ar   65   3.730   0.851   2.967
    1   AR   Ar   66   0.923   1.727   0.680
    1   AR   Ar   67   4.823   1.476  -1.242
    1   AR   Ar   68   6.651   1.054   1.088
    1   AR   Ar   69   2.954   2.085   1.332
    1   AR   Ar   70   0.352   1.078   1.880
    1   AR   Ar   71   2.825   0.400   2.987
    1   AR   Ar   72   4.446   1.636   1.799
    1   AR   Ar   73   3.593   0.330   3.867
    1   AR   Ar   74   0.828   0.706   3.316
    1   AR   Ar   75   3.138   1.377   6.499
    1   AR   Ar   76   2.481   0.202   2.078
    1   AR   Ar   77   1.296   6.020   6.625
    1   AR   Ar   78   7.100   5.185   6.015
    1   AR   Ar   79   3.679   6.203   4.918
    1   AR   Ar   80   3.499   4.601   6.642
    1   AR   Ar   81   1.794   6.408   2.030
    1   AR   Ar   82   6.612   4.795   1.738
    1   AR   Ar   83   1.738   2.983   0.774
    1   AR   Ar   84   0.798   3.955   0.881
    1   AR   Ar   85   0.725   2.680  -1.212
    1   AR   Ar   86   1.137   5.929   1.350
    1   AR   Ar   87   4.418   1.955   3.069
    1   AR   Ar   88   3.536   4.692   1.675
    1   AR   Ar   89   6.455   2.447   1.036
    1   AR   Ar   90   3.924   0.606   7.177
    1   AR   Ar   91   1.745   1.495   3.296
    1   AR   Ar   92   3.369   3.413   1.363
    1   AR   Ar   93   1.290   1.265   5.498
    1   AR   Ar   94   7.117   6.859   9.958
    1   AR   Ar   95   4.943   0.543   6.772
    1   AR   Ar   96   1.725   0.326   6.094
    1   AR   Ar   97   5.561   2.218  -2.132
    1   AR   Ar   98   1.563   4.205   4.143
    1   AR   Ar   99   5.904   6.674  -0.516
    1   AR   Ar  100   5.223   1.695  -3.689
    1   AR   Ar  101   4.020   5.945   2.892
    1   AR   Ar  102   4.115   2.631   1.485
    1   AR   Ar  103   1.748   3.576   1.755
    1   AR   Ar  104   3.156   0.258  -0.692
    1   AR   Ar  105   2.597   2.457   3.397
    1   AR   Ar  106   4.296   1.201   3.839
    1   AR   Ar  107   1.213   4.538   5.305
    1   AR   Ar  108   2.420   0.662   3.928
    1   AR   Ar  109   2.594   5.070   5.123
    1   AR   Ar  110   2.188   2.760   4.886
    1   AR   Ar  111   4.081   4.270   7.483
    1   AR   Ar  112   6.699   6.712   6.905
    1   AR   Ar  113   5.879   6.436  -1.614
    1   AR   Ar  114   3.410   0.516   0.772
    1   AR   Ar  115   6.563   4.572  -0.954
    1   AR   Ar  116   5.541   1.206   1.352
    1   AR   Ar  117   7.099   4.319   3.229
    1   AR   Ar  118   1.846   6.160   3.653
    1   AR   Ar  119   1.872   2.800   2.629
    1   AR   Ar  120   1.691   6.972   2.973
    1   AR   Ar  121   5.476   5.374   7.519
    1   AR   Ar  122   2.655   4.707   3.720
    1   AR   Ar  123   3.015   2.300   5.544
    1   AR   Ar  124   0.233   6.246   0.997
    1   AR   Ar  125   6.105   4.292   3.716
    1   AR   Ar  126   0.035   1.446   6.799
    1   AR   Ar  127   3.846   3.542   6.064
    1   AR   Ar  128   1.376   4.394   7.742
    1   AR   Ar  129   1.498   5.448   4.659
    1   AR   Ar  130   5.965   0.480  -4.720
    1   AR   Ar  131   4.032   0.335  -0.084
    1   AR   Ar  132   1.802   2.165   1.748
    1   AR   Ar  133   4.518   0.294   4.303
    1   AR   Ar  134   3.673   1.243   4.575
    1   AR   Ar  135   5.264   0.705   5.752
    1   AR   Ar  136   4.303   6.704   2.214
    1   AR   Ar  137   2.006   5.046   5.905
    1   AR   Ar  138   6.007   1.538   6.017
    1   AR   Ar  139   6.352   2.143   5.183
    1   AR   Ar  140   4.795   6.179   5.100
    1   AR   Ar  141   3.384   5.581   3.822
    1   AR   Ar  142   3.783   5.465   8.525
    1   AR   Ar  143   5.224   6.377   8.477
    1   AR   Ar  144   0.041   3.092   4.793
    1   AR   Ar  145   4.475   4.795  -1.606
    1   AR   Ar  146   4.070   2.310   3.891
    1   AR   Ar  147   4.415   4.302  -0.469
    1   AR   Ar  148   1.936   6.062   0.277
    1   AR   Ar  149   5.570   1.976  -0.566
    1   AR   Ar  150   0.710   1.809   2.557
    1   AR   Ar  151   2.938   2.737   2.454
    1   AR   Ar  152   0.317   0.605  -0.694
    1   AR   Ar  153   4.878   1.012   3.088
    1   AR   Ar  154   4.811   2.954   3.644
    1   AR   Ar  155   4.859   3.550   5.633
    1   AR   Ar  156   3.262   4.039   3.000
    1   AR   Ar  157   3.055   5.414   6.266
    1   AR   Ar  158   1.127   2.398   7.574
    1   AR   Ar  159   3.647   0.076   5.229
    1   AR   Ar  160   0.659   2.169   4.857
    1   AR   Ar  161   4.985   4.631   4.081
    1   AR   Ar  162   3.744   5.237  -0.856
    1   AR   Ar  163   6.817   3.840   2.357
    1   AR   Ar  164   2.275   5.598   2.679
    1   AR   Ar  165   3.409   4.245   0.725
    1   AR   Ar  166   3.256   3.511   5.258
    1   AR   Ar  167   6.318   0.190   4.533
    1   AR   Ar  168   6.106   4.565  -1.986
    1   AR   Ar  169   4.446   3.363   2.849
    1   AR   Ar  170   2.602   2.922   6.955
    1   AR   Ar  171   4.802   5.652   3.780
    1   AR   Ar  172   3.733   3.030   4.439
    1   AR   Ar  173   0.010   2.577   7.273
    1   AR   Ar  174   2.482   6.538   4.514
    1   AR   Ar  175   0.589   0.295   7.760
    1   AR   Ar  176   3.430   3.055   3.408
    1   AR   Ar  177   0.704   3.186  -2.199
    1   AR   Ar  178   2.433   6.844   1.008
    1   AR   Ar  179   2.832   5.945   0.997
    1   AR   Ar  180   4.898   5.878  -6.925
    1   AR   Ar  181   6.753   5.922   1.906
    1   AR   Ar  182   0.997   5.945   2.559
    1   AR   Ar  183   5.257   5.111   1.798
    1   AR   Ar  184   3.463   5.406   0.333
    1   AR   Ar  185   3.316   4.405   4.632
    1   AR   Ar  186   2.963   6.394   3.290
    1   AR   Ar  187   4.094   6.410   4.049
    1   AR   Ar  188   3.493   1.115   1.616
    1   AR   Ar  189   6.083   2.776   6.325
    1   AR   Ar  190   1.885   0.144   4.835
    1   AR   Ar  191   4.215   5.352   4.556
    1   AR   Ar  192   3.852   2.804   7.028
    1   AR   Ar  193   2.993   6.227   1.925
    1   AR   Ar  194   4.733   6.641  -0.423
    1   AR   Ar  195   6.506   1.772   1.849
    1   AR   Ar  196   4.457   6.620   1.160
    1   AR   Ar  197   5.010   3.197   0.094
    1   AR   Ar  198   7.010   6.907   0.346
    1   AR   Ar  199   1.135   0.146   2.059
    1   AR   Ar  200   4.916   2.065   0.754
    1   AR   Ar  201   6.971   5.442   3.719
    1   AR   Ar  202   5.798   1.110   4.676
    1   AR   Ar  203   6.891   0.368   3.483
    1   AR   Ar  204   4.437   5.719   7.461
    1   AR   Ar  205   5.389   1.512   2.385
    1   AR   Ar  206   6.388   0.770   6.650
    1   AR   Ar  207   0.389   3.986   4.427
    1   AR   Ar  208   0.768   6.755   3.517
    1   AR   Ar  209   5.751   3.202  -0.990
    1   AR   Ar  210   3.447   2.714   0.536
    1   AR   Ar  211   6.735   3.490   0.471
    1   AR   Ar  212   5.889   4.696   0.278
    1   AR   Ar  213   3.755   1.671   0.715
    1   AR   Ar  214   5.182   4.471   1.037
    1   AR   Ar  215   0.588   2.906   2.315
    1   AR   Ar  216   2.019   2.454  -0.181
    1   AR   Ar  217   5.214   1.996   4.169
    1   AR   Ar  218   4.005   2.494   5.437
    1   AR   Ar  219   4.416   4.424   2.363
    1   AR   Ar  220   4.315   5.000   0.595
    1   AR   Ar  221   6.426   6.379   3.503
    1   AR   Ar  222   5.986   7.028   5.845
    1   AR   Ar  223   0.222   0.728   5.932
    1   AR   Ar  224   4.933   1.363   5.016
    1   AR   Ar  225   6.263   2.825   2.242
    1   AR   Ar  226   2.633   3.573   3.986
    1   AR   Ar  227   1.443   2.678   3.565
    1   AR   Ar  228   6.067   0.660   2.354
    1   AR   Ar  229   5.682   4.001  -0.350
    1   AR   Ar  230   3.873   4.446   3.804
    1   AR   Ar  231   5.519   2.190   3.084
    1   AR   Ar  232   5.182   2.414   1.689
    1   AR   Ar  233   6.976   1.511   3.105
    1   AR   Ar  234   6.367   3.829   4.810
    1   AR   Ar  235   0.073   0.983   4.889
    1   AR   Ar  236   4.334   3.866   4.688
    1   AR   Ar  237   4.102   1.790   7.459
    1   AR   Ar  238   4.562   5.111   6.668
    1   AR   Ar  239   2.305   5.013  10.471
    1   AR   Ar  240   1.635   3.504   7.203
    1   AR   Ar  241   0.706   6.752  -0.543
    1   AR   Ar  242   5.603   6.136   1.748
    1   AR   Ar  243   4.362   5.478   1.600
    1   AR   Ar  244   5.677   6.567   0.538
    1   AR   Ar  245   2.978   1.484   3.367
    1   AR   Ar  246   4.593   5.928  -1.419
    1   AR   Ar  247   6.966   3.259   1.408
    1   AR   Ar  248   5.326   4.962  -0.571
    1   AR   Ar  249   4.487   0.807   0.929
    1   AR   Ar  250   5.406   6.486   3.955
    1   AR   Ar  251   5.283   3.716   4.682
    1   AR   Ar  252   1.869   5.312   1.749
    1   AR   Ar  253   5.061   2.128   6.667
    1   AR   Ar  254   4.213   4.300  13.718
    1   AR   Ar  255   5.009   5.749   9.534
    1   AR   Ar  256   5.912   5.395   3.684
    7.12000  7.12000 12.00000
Argon-slab step 5985
  256
    1   AR   Ar    1   4.062   2.873  -0.706
    1   AR   Ar    2   5.396   0.244   1.291
    1   AR   Ar    3   4.242   3.756  -1.473
    1   AR   Ar    4   2.449   0.842   1.221
    1   AR   Ar    5   6.241   5.769   0.042
    1   AR   Ar    6   1.448   1.179   2.010
    1   AR   Ar    7   5.531   4.306   2.542
    1   AR   Ar    8   6.006   2.737   0.100
    1   AR   Ar    9   0.151   5.193   4.879
    1   AR   Ar   10   5.782   4.641   5.627
    1   AR   Ar   11   0.839   6.465   4.629
    1   AR   Ar   12   6.948   2.267   4.228
    1   AR   Ar   13   6.998   6.908   5.230
    1   AR   Ar   14   4.333   1.536   6.246
    1   AR   Ar   15   3.059   6.269   9.272
    1   AR   Ar   16   0.614   6.914   6.789
    1   AR   Ar   17   5.688   3.476   0.942
    1   AR   Ar   18   0.261   3.798  -2.871
    1   AR   Ar   19   4.467   5.670  -0.168
    1   AR   Ar   20   6.566   2.546  -2.376
    1   AR   Ar   21   2.564   1.374   2.251
    1   AR   Ar   22   4.335   0.668   2.146
    1   AR   Ar   23   1.805   5.238  -0.470
    1   AR   Ar   24   6.018   2.880   4.340
    1   AR   Ar   25   1.090   3.640   6.065
    1   AR   Ar   26   5.828   5.826   5.135
    1   AR   Ar   27   0.605   0.392   0.525
    1   AR   Ar   28   2.971   2.002   4.266
    1   AR   Ar   29   5.137   6.589   7.156
    1   AR   Ar   30   5.809   0.463   3.373
    1   AR   Ar   31   1.376   1.010   6.983
    1   AR   Ar   32   1.803   2.813   6.100
    1   AR   Ar   33   5.129   5.543   0.663
    1   AR   Ar   34   1.502   5.151   3.169
    1   AR   Ar   35   6.013   5.169   2.562
    1   AR   Ar   36   4.087   1.982  -4.046
    1   AR   Ar   37   4.482   3.637   0.941
    1   AR   Ar   38   6.301   5.020   4.546
    1   AR   Ar   39   6.597   3.378   3.462
    1   AR   Ar   40   0.801   3.828   1.994
    1   AR   Ar   41   0.751   1.666   3.888
    1   AR   Ar   42   4.839   4.550   5.244
    1   AR   Ar   43   7.110   2.943   5.825
    1   AR   Ar   44   1.641   3.755   3.057
    1   AR   Ar   45   2.155   3.991   4.897
    1   AR   Ar   46   5.878   5.892   6.502
    1   AR   Ar   47   2.383   3.666   6.104
    1   AR   Ar   48   0.397   3.751   7.130
    1   AR   Ar   49   7.048   2.456   0.290
    1   AR   Ar   50   2.563   4.940   0.807
    1   AR   Ar   51   5.592   3.377   2.930
    1   AR   Ar   52   5.498   3.277  -2.302
    1   AR   Ar   53   4.580   7.117   3.224
    1   AR   Ar   54   5.632   6.851   2.776
    1   AR   Ar   55   0.233   5.354   2.788
    1   AR   Ar   56   6.010   1.423   3.721
    1   AR   Ar   57   4.925   5.292   2.875
    1   AR   Ar   58   1.090   3.113   4.479
    1   AR   Ar   59   4.185   5.589   5.810
    1   AR   Ar   60   0.551   4.893   1.741
    1   AR   Ar   61   6.892   4.668   6.933
    1   AR   Ar   62   0.109   3.936   5.501
    1   AR   Ar   63   2.370   1.188   7.400
    1   AR   Ar   64   0.703   4.835   4.059
    1   AR   Ar   65   3.707   0.846   2.952
    1   AR   Ar   66   0.910   1.697   0.696
    1   AR   Ar   67   4.845   1.491  -1.250
    1   AR   Ar   68   6.677   1.059   1.105
    1   AR   Ar   69   2.956   2.069   1.319
    1   AR   Ar   70   0.363   1.076   1.916
    1   AR   Ar   71   2.792   0.387   2.990
    1   AR   Ar   72   4.455   1.650   1.775
    1   AR   Ar   73   3.589   0.349   3.871
    1   AR   Ar   74   0.826   0.691   3.290
    1   AR   Ar   75   3.114   1.383   6.539
    1   AR   Ar   76   2.444   0.219   2.091
    1   AR   Ar   77   1.301   6.025   6.624
    1   AR   Ar   78   7.116   5.174   6.016
    1   AR   Ar   79   3.686   6.139   4.934
    1   AR   Ar   80   3.492   4.619   6.681
    1   AR   Ar   81   1.792   6.428   2.025
    1   AR   Ar   82   6.599   4.794   1.779
    1   AR   Ar   83   1.721   2.987   0.786
    1   AR   Ar   84   0.793   3.956   0.890
    1   AR   Ar   85   0.733   2.672  -1.218
    1   AR   Ar   86   1.115   5.965   1.338
    1   AR   Ar   87   4.438   1.954   3.068
    1   AR   Ar   88   3.519   4.693   1.689
    1   AR   Ar   89   6.484   2.448   1.074
    1   AR   Ar   90   3.924   0.586   7.156
    1   AR   Ar   91   1.744   1.543   3.308
    1   AR   Ar   92   3.349   3.441   1.345
    1   AR   Ar   93   1.295   1.268   5.483
    1   AR   Ar   94   7.105   6.888   9.969
    1   AR   Ar   95   4.954   0.523   6.773
    1   AR   Ar   96   1.722   0.293   6.086
    1   AR   Ar   97   5.565   2.195  -2.115
    1   AR   Ar   98   1.538   4.199   4.174
    1   AR   Ar   99   5.914   6.703  -0.505
    1   AR   Ar  100   5.197   1.687  -3.720
    1   AR   Ar  101   4.028   5.981   2.898
    1   AR   Ar  102   4.137   2.622   1.491
    1   AR   Ar  103   1.801   3.578   1.751
    1   AR   Ar  104   3.169   0.280  -0.715
    1   AR   Ar  105   2.578   2.451   3.431
    1   AR   Ar  106   4.285   1.193   3.841
    1   AR   Ar  107   1.188   4.521   5.314
    1   AR   Ar  108   2.408   0.657   3.927
    1   AR   Ar  109   2.573   5.065   5.113
    1   AR   Ar  110   2.207   2.741   4.873
    1   AR   Ar  111   4.075   4.292   7.498
    1   AR   Ar  112   6.698   6.723   6.888
    1   AR   Ar  113   5.849   6.449  -1.627
    1   AR   Ar  114   3.388   0.499   0.785
    1   AR   Ar  115   6.569   4.562  -0.987
    1   AR   Ar  116   5.561   1.190   1.322
    1   AR   Ar  117   7.113   4.380   3.229
    1   AR   Ar  118   1.830   6.129   3.689
    1   AR   Ar  119   1.887   2.800   2.604
    1   AR   Ar  120   1.714   7.006   2.957
    1   AR   Ar  121   5.478   5.345   7.526
    1   AR   Ar  122   2.655   4.707   3.760
    1   AR   Ar  123   2.990   2.303   5.556
    1   AR   Ar  124   0.247   6.244   1.026
    1   AR   Ar  125   6.116   4.283   3.749
    1   AR   Ar  126   0.049   1.420   6.798
    1   AR   Ar  127   3.832   3.541   6.083
    1   AR   Ar  128   1.355   4.394   7.726
    1   AR   Ar  129   1.450   5.422   4.681
    1   AR   Ar  130   5.969   0.475  -4.721
    1   AR   Ar  131   4.035   0.341  -0.108
    1   AR   Ar  132   1.827   2.161   1.738
    1   AR   Ar  133   4.533   0.329   4.291
    1   AR   Ar  134   3.651   1.236   4.577
    1   AR   Ar  135   5.268   0.727   5.737
    1   AR   Ar  136   4.284   6.697   2.196
    1   AR   Ar  137   2.000   5.072   5.900
    1   AR   Ar  138   6.026   1.552   6.010
    1   AR   Ar  139   6.367   2.130   5.169
    1   AR   Ar  140   4.787   6.178   5.109
    1   AR   Ar  141   3.404   5.581   3.841
    1   AR   Ar  142   3.790   5.436   8.523
    1   AR   Ar  143   5.214   6.339   8.505
    1   AR   Ar  144   0.027   3.115   4.794
    1   AR   Ar  145   4.468   4.782  -1.616
    1   AR   Ar  146   4.071   2.281   3.906
    1   AR   Ar  147   4.405   4.319  -0.488
    1   AR   Ar  148   1.930   6.064   0.280
    1   AR   Ar  149   5.544   1.999  -0.533
    1   AR   Ar  150   0.700   1.816   2.567
    1   AR   Ar  151   2.933   2.741   2.452
    1   AR   Ar  152   0.342   0.593  -0.680
    1   AR   Ar  153   4.866   1.052   3.070
    1   AR   Ar  154   4.822   2.955   3.645
    1   AR   Ar  155   4.879   3.547   5.644
    1   AR   Ar  156   3.266   4.039   2.974
    1   AR   Ar  157   3.021   5.413   6.246
    1   AR   Ar  158   1.099   2.408   7.578
    1   AR   Ar  159   3.620   0.091   5.211
    1   AR   Ar  160   0.656   2.168   4.884
    1   AR   Ar  161   4.968   4.641   4.085
    1   AR   Ar  162   3.718   5.222  -0.826
    1   AR   Ar  163   6.815   3.835   2.352
    1   AR   Ar  164   2.300   5.570   2.691
    1   AR   Ar  165   3.372   4.226   0.708
    1   AR   Ar  166   3.264   3.521   5.276
    1   AR   Ar  167   6.310   0.197   4.538
    1   AR   Ar  168   6.088   4.552  -1.956
    1   AR   Ar  169   4.432   3.366   2.830
    1   AR   Ar  170   2.604   2.930   6.977
    1   AR   Ar  171   4.802   5.689   3.773
    1   AR   Ar  172   3.700   3.032   4.456
    1   AR   Ar  173   7.108   2.590   7.237
    1   AR   Ar  174   2.483   6.540   4.527
    1   AR   Ar  175   0.563   0.268   7.779
    1   AR   Ar  176   3.444   3.048   3.390
    1   AR   Ar  177   0.655   3.141  -2.222
    1   AR   Ar  178   2.465   6.863   0.992
    1   AR   Ar  179   2.778   5.940   0.965
    1   AR   Ar  180   4.891   5.878  -6.929
    1   AR   Ar  181   6.722   5.880   1.873
    1   AR   Ar  182   1.035   5.949   2.542
    1   AR   Ar  183   5.249   5.109   1.785
    1   AR   Ar  184   3.448   5.419   0.337
    1   AR   Ar  185   3.293   4.403   4.624
    1   AR   Ar  186   2.938   6.426   3.286
    1   AR   Ar  187   4.088   6.376   4.013
    1   AR   Ar  188   3.522   1.133   1.610
    1   AR   Ar  189   6.073   2.739   6.319
    1   AR   Ar  190   1.886   0.120   4.818
    1   AR   Ar  191   4.200   5.353   4.567
    1   AR   Ar  192   3.857   2.792   7.051
    1   AR   Ar  193   3.020   6.222   1.947
    1   AR   Ar  194   4.702   6.680  -0.420
    1   AR   Ar  195   6.526   1.764   1.815
    1   AR   Ar  196   4.486   6.623   1.158
    1   AR   Ar  197   5.033   3.208   0.098
    1   AR   Ar  198   6.992   6.898   0.308
    1   AR   Ar  199   1.144   0.153   2.039
    1   AR   Ar  200   4.876   2.026   0.779
    1   AR   Ar  201   6.962   5.465   3.713
    1   AR   Ar  202   5.831   1.111   4.668
    1   AR   Ar  203   6.900   0.384   3.447
    1   AR   Ar  204   4.422   5.731   7.447
    1   AR   Ar  205   5.365   1.509   2.390
    1   AR   Ar  206   6.384   0.772   6.658
    1   AR   Ar  207   0.398   3.963   4.411
    1   AR   Ar  208   0.754   6.780   3.540
    1   AR   Ar  209   5.757   3.184  -0.991
    1   AR   Ar  210   3.476   2.741   0.564
    1   AR   Ar  211   6.726   3.483   0.472
    1   AR   Ar  212   5.846   4.717   0.297
    1   AR   Ar  213   3.772   1.662   0.679
    1   AR   Ar  214   5.174   4.476   1.033
    1   AR   Ar  215   0.600   2.884   2.315
    1   AR   Ar  216   2.021   2.440  -0.153
    1   AR   Ar  217   5.226   2.008   4.155
    1   AR   Ar  218   3.961   2.504   5.431
    1   AR   Ar  219   4.405   4.458   2.339
    1   AR   Ar  220   4.316   5.019   0.572
    1   AR   Ar  221   6.441   6.377   3.499
    1   AR   Ar  222   5.979   7.048   5.822
    1   AR   Ar  223   0.202   0.723   5.932
    1   AR   Ar  224   4.910   1.388   5.017
    1   AR   Ar  225   6.238   2.791   2.243
    1   AR   Ar  226   2.653   3.553   3.990
    1   AR   Ar  227   1.471   2.667   3.553
    1   AR   Ar  228   6.096   0.638   2.340
    1   AR   Ar  229   5.699   3.979  -0.353
    1   AR   Ar  230   3.869   4.425   3.811
    1   AR   Ar  231   5.521   2.205   3.097
    1   AR   Ar  232   5.186   2.400   1.695
    1   AR   Ar  233   6.964   1.498   3.110
    1   AR   Ar  234   6.352   3.813   4.833
    1   AR   Ar  235   0.042   0.996   4.845
    1   AR   Ar  236   4.307   3.852   4.676
    1   AR   Ar  237   4.115   1.796   7.476
    1   AR   Ar  238   4.564   5.130   6.677
    1   AR   Ar  239   2.339   5.017  10.466
    1   AR   Ar  240   1.645   3.510   7.200
    1   AR   Ar  241   0.716   6.760  -0.541
    1   AR   Ar  242   5.581   6.149   1.750
    1   AR   Ar  243   4.354   5.487   1.618
    1   AR   Ar  244   5.676   6.588   0.564
    1   AR   Ar  245   2.976   1.503   3.359
    1   AR   Ar  246   4.580   5.950  -1.404
    1   AR   Ar  247   6.972   3.259   1.416
    1   AR   Ar  248   5.274   4.949  -0.594
    1   AR   Ar  249   4.499   0.854   0.922
    1   AR   Ar  250   5.433   6.498   3.998
    1   AR   Ar  251   5.289   3.709   4.652
    1   AR   Ar  252   1.888   5.333   1.765
    1   AR   Ar  253   5.049   2.098   6.647
    1   AR   Ar  254   4.226   4.292  13.733
    1   AR   Ar  255   5.013   5.744   9.535
    1   AR   Ar  256   5.904   5.414   3.657
    7.12000  7.12000 12.00000
Argon-slab step 5990
  256
    1   AR   Ar    1   4.067   2.849  -0.710
    1   AR   Ar    2   5.400   0.266   1.290
    1   AR   Ar    3   4.227   3.735  -1.499
    1   AR   Ar    4   2.442   0.882   1.255
    1   AR   Ar    5   6.238   5.787   0.070
    1   AR   Ar    6   1.458   1.198   2.001
    1   AR   Ar    7   5.533   4.282   2.562
    1   AR   Ar    8   5.996   2.727   0.097
    1   AR   Ar    9   0.158   5.210   4.890
    1   AR   Ar   10   5.799   4.662   5.608
    1   AR   Ar   11   0.841   6.454   4.646
    1   AR   Ar   12   6.962   2.253   4.204
    1   AR   Ar   13   7.022   6.899   5.205
    1   AR   Ar   14   4.356   1.530   6.213
    1   AR   Ar   15   3.051   6.307   9.287
    1   AR   Ar   16   0.584   6.897   6.778
    1   AR   Ar   17   5.662   3.491   0.954
    1   AR   Ar   18   0.292   3.827  -2.865
    1   AR   Ar   19   4.488   5.680  -0.152
    1   AR   Ar   20   6.562   2.529  -2.357
    1   AR   Ar   21   2.558   1.366   2.275
    1   AR   Ar   22   4.291   0.651   2.131
    1   AR   Ar   23   1.851   5.219  -0.491
    1   AR   Ar   24   6.003   2.866   4.339
    1   AR   Ar   25   1.071   3.663   6.096
    1   AR   Ar   26   5.859   5.815   5.150
    1   AR   Ar   27   0.629   0.378   0.502
    1   AR   Ar   28   2.942   1.996   4.279
    1   AR   Ar   29   5.107   6.579   7.167
    1   AR   Ar   30   5.834   0.512   3.355
    1   AR   Ar   31   1.371   1.023   7.032
    1   AR   Ar   32   1.776   2.800   6.128
    1   AR   Ar   33   5.103   5.568   0.677
    1   AR   Ar   34   1.493   5.114   3.167
    1   AR   Ar   35   5.998   5.177   2.593
    1   AR   Ar   36   4.060   1.967  -4.044
    1   AR   Ar   37   4.484   3.690   0.945
    1   AR   Ar   38   6.292   5.032   4.566
    1   AR   Ar   39   6.545   3.377   3.448
    1   AR   Ar   40   0.803   3.820   2.002
    1   AR   Ar   41   0.783   1.660   3.902
    1   AR   Ar   42   4.847   4.579   5.267
    1   AR   Ar   43   7.095   2.955   5.820
    1   AR   Ar   44   1.632   3.726   3.065
    1   AR   Ar   45   2.156   3.990   4.882
    1   AR   Ar   46   5.885   5.888   6.490
    1   AR   Ar   47   2.368   3.690   6.090
    1   AR   Ar   48   0.364   3.738   7.098
    1   AR   Ar   49   7.071   2.440   0.311
    1   AR   Ar   50   2.582   4.888   0.831
    1   AR   Ar   51   5.609   3.346   2.942
    1   AR   Ar   52   5.489   3.310  -2.308
    1   AR   Ar   53   4.593   7.098   3.224
    1   AR   Ar   54   5.608   6.861   2.780
    1   AR   Ar   55   0.260   5.378   2.791
    1   AR   Ar   56   5.982   1.439   3.758
    1   AR   Ar   57   4.935   5.293   2.865
    1   AR   Ar   58   1.083   3.128   4.476
    1   AR   Ar   59   4.212   5.590   5.805
    1   AR   Ar   60   0.525   4.911   1.714
    1   AR   Ar   61   6.904   4.649   6.931
    1   AR   Ar   62   0.132   3.937   5.495
    1   AR   Ar   63   2.401   1.168   7.375
    1   AR   Ar   64   0.733   4.857   4.040
    1   AR   Ar   65   3.691   0.845   2.935
    1   AR   Ar   66   0.897   1.666   0.712
    1   AR   Ar   67   4.867   1.508  -1.257
    1   AR   Ar   68   6.705   1.058   1.117
    1   AR   Ar   69   2.958   2.053   1.309
    1   AR   Ar   70   0.358   1.057   1.936
    1   AR   Ar   71   2.760   0.375   3.002
    1   AR   Ar   72   4.464   1.662   1.750
    1   AR   Ar   73   3.579   0.365   3.875
    1   AR   Ar   74   0.826   0.681   3.261
    1   AR   Ar   75   3.092   1.389   6.580
    1   AR   Ar   76   2.410   0.227   2.094
    1   AR   Ar   77   1.316   6.029   6.650
    1   AR   Ar   78   0.013   5.163   6.015
    1   AR   Ar   79   3.685   6.079   4.957
    1   AR   Ar   80   3.487   4.633   6.719
    1   AR   Ar   81   1.799   6.448   2.018
    1   AR   Ar   82   6.585   4.790   1.818
    1   AR   Ar   83   1.704   2.990   0.800
    1   AR   Ar   84   0.787   3.956   0.901
    1   AR   Ar   85   0.734   2.685  -1.222
    1   AR   Ar   86   1.108   5.994   1.330
    1   AR   Ar   87   4.460   1.958   3.052
    1   AR   Ar   88   3.502   4.695   1.703
    1   AR   Ar   89   6.497   2.448   1.117
    1   AR   Ar   90   3.924   0.569   7.134
    1   AR   Ar   91   1.743   1.592   3.319
    1   AR   Ar   92   3.330   3.464   1.334
    1   AR   Ar   93   1.308   1.281   5.484
    1   AR   Ar   94   7.094   6.917   9.979
    1   AR   Ar   95   4.965   0.503   6.774
    1   AR   Ar   96   1.717   0.260   6.077
    1   AR   Ar   97   5.548   2.189  -2.078
    1   AR   Ar   98   1.506   4.193   4.193
    1   AR   Ar   99   5.924   6.732  -0.494
    1   AR   Ar  100   5.211   1.711  -3.729
    1   AR   Ar  101   4.035   6.013   2.910
    1   AR   Ar  102   4.157   2.615   1.496
    1   AR   Ar  103   1.857   3.579   1.748
    1   AR   Ar  104   3.180   0.302  -0.739
    1   AR   Ar  105   2.551   2.451   3.462
    1   AR   Ar  106   4.259   1.229   3.826
    1   AR   Ar  107   1.162   4.502   5.320
    1   AR   Ar  108   2.396   0.652   3.928
    1   AR   Ar  109   2.560   5.059   5.090
    1   AR   Ar  110   2.226   2.718   4.864
    1   AR   Ar  111   4.064   4.322   7.501
    1   AR   Ar  112   6.696   6.733   6.876
    1   AR   Ar  113   5.820   6.461  -1.640
    1   AR   Ar  114   3.366   0.479   0.796
    1   AR   Ar  115   6.573   4.552  -1.018
    1   AR   Ar  116   5.584   1.196   1.292
    1   AR   Ar  117   0.007   4.442   3.233
    1   AR   Ar  118   1.813   6.098   3.723
    1   AR   Ar  119   1.901   2.800   2.576
    1   AR   Ar  120   1.737   7.041   2.942
    1   AR   Ar  121   5.474   5.308   7.523
    1   AR   Ar  122   2.663   4.707   3.785
    1   AR   Ar  123   2.956   2.306   5.568
    1   AR   Ar  124   0.245   6.244   1.052
    1   AR   Ar  125   6.124   4.275   3.782
    1   AR   Ar  126   0.069   1.406   6.820
    1   AR   Ar  127   3.824   3.540   6.112
    1   AR   Ar  128   1.333   4.396   7.711
    1   AR   Ar  129   1.402   5.395   4.703
    1   AR   Ar  130   5.974   0.469  -4.721
    1   AR   Ar  131   4.040   0.349  -0.129
    1   AR   Ar  132   1.800   2.123   1.719
    1   AR   Ar  133   4.555   0.357   4.284
    1   AR   Ar  134   3.621   1.228   4.591
    1   AR   Ar  135   5.272   0.749   5.724
    1   AR   Ar  136   4.268   6.700   2.200
    1   AR   Ar  137   1.984   5.097   5.906
    1   AR   Ar  138   6.036   1.568   6.005
    1   AR   Ar  139   6.384   2.118   5.154
    1   AR   Ar  140   4.779   6.178   5.115
    1   AR   Ar  141   3.422   5.579   3.860
    1   AR   Ar  142   3.798   5.409   8.519
    1   AR   Ar  143   5.204   6.300   8.531
    1   AR   Ar  144   0.011   3.132   4.795
    1   AR   Ar  145   4.480   4.795  -1.632
    1   AR   Ar  146   4.066   2.246   3.932
    1   AR   Ar  147   4.395   4.336  -0.507
    1   AR   Ar  148   1.925   6.065   0.284
    1   AR   Ar  149   5.517   2.023  -0.501
    1   AR   Ar  150   0.694   1.825   2.579
    1   AR   Ar  151   2.932   2.745   2.446
    1   AR   Ar  152   0.365   0.586  -0.666
    1   AR   Ar  153   4.859   1.073   3.055
    1   AR   Ar  154   4.840   2.952   3.655
    1   AR   Ar  155   4.871   3.574   5.645
    1   AR   Ar  156   3.269   4.040   2.948
    1   AR   Ar  157   3.029   5.435   6.223
    1   AR   Ar  158   1.070   2.418   7.580
    1   AR   Ar  159   3.594   0.108   5.192
    1   AR   Ar  160   0.655   2.167   4.914
    1   AR   Ar  161   4.951   4.650   4.090
    1   AR   Ar  162   3.709   5.254  -0.847
    1   AR   Ar  163   6.795   3.856   2.340
    1   AR   Ar  164   2.309   5.557   2.685
    1   AR   Ar  165   3.338   4.212   0.684
    1   AR   Ar  166   3.262   3.523   5.293
    1   AR   Ar  167   6.303   0.201   4.539
    1   AR   Ar  168   6.083   4.574  -1.937
    1   AR   Ar  169   4.415   3.374   2.802
    1   AR   Ar  170   2.606   2.938   6.999
    1   AR   Ar  171   4.806   5.725   3.771
    1   AR   Ar  172   3.662   3.036   4.474
    1   AR   Ar  173   7.087   2.602   7.200
    1   AR   Ar  174   2.497   6.530   4.534
    1   AR   Ar  175   0.536   0.241   7.798
    1   AR   Ar  176   3.463   3.041   3.372
    1   AR   Ar  177   0.609   3.090  -2.240
    1   AR   Ar  178   2.493   6.896   0.979
    1   AR   Ar  179   2.727   5.925   0.934
    1   AR   Ar  180   4.887   5.859  -6.944
    1   AR   Ar  181   6.691   5.837   1.841
    1   AR   Ar  182   1.034   5.932   2.532
    1   AR   Ar  183   5.252   5.109   1.782
    1   AR   Ar  184   3.426   5.434   0.335
    1   AR   Ar  185   3.264   4.401   4.623
    1   AR   Ar  186   2.913   6.459   3.282
    1   AR   Ar  187   4.082   6.350   3.974
    1   AR   Ar  188   3.548   1.153   1.607
    1   AR   Ar  189   6.064   2.700   6.311
    1   AR   Ar  190   1.876   0.108   4.806
    1   AR   Ar  191   4.190   5.344   4.579
    1   AR   Ar  192   3.862   2.781   7.072
    1   AR   Ar  193   3.046   6.219   1.974
    1   AR   Ar  194   4.675   6.718  -0.417
    1   AR   Ar  195   6.544   1.756   1.794
    1   AR   Ar  196   4.517   6.625   1.153
    1   AR   Ar  197   5.055   3.217   0.100
    1   AR   Ar  198   6.962   6.883   0.263
    1   AR   Ar  199   1.152   0.159   2.019
    1   AR   Ar  200   4.835   1.985   0.800
    1   AR   Ar  201   6.953   5.487   3.716
    1   AR   Ar  202   5.867   1.113   4.667
    1   AR   Ar  203   6.908   0.400   3.411
    1   AR   Ar  204   4.406   5.751   7.443
    1   AR   Ar  205   5.350   1.508   2.376
    1   AR   Ar  206   6.376   0.767   6.665
    1   AR   Ar  207   0.404   3.939   4.395
    1   AR   Ar  208   0.739   6.802   3.562
    1   AR   Ar  209   5.762   3.160  -0.996
    1   AR   Ar  210   3.508   2.767   0.591
    1   AR   Ar  211   6.714   3.481   0.466
    1   AR   Ar  212   5.809   4.747   0.322
    1   AR   Ar  213   3.790   1.652   0.642
    1   AR   Ar  214   5.155   4.485   1.044
    1   AR   Ar  215   0.610   2.856   2.316
    1   AR   Ar  216   2.024   2.427  -0.124
    1   AR   Ar  217   5.236   2.021   4.142
    1   AR   Ar  218   3.926   2.517   5.423
    1   AR   Ar  219   4.395   4.492   2.314
    1   AR   Ar  220   4.315   5.018   0.564
    1   AR   Ar  221   6.455   6.378   3.494
    1   AR   Ar  222   5.974   7.066   5.800
    1   AR   Ar  223   0.178   0.729   5.936
    1   AR   Ar  224   4.878   1.417   5.017
    1   AR   Ar  225   6.214   2.756   2.242
    1   AR   Ar  226   2.674   3.534   3.995
    1   AR   Ar  227   1.485   2.680   3.568
    1   AR   Ar  228   6.125   0.619   2.324
    1   AR   Ar  229   5.714   3.952  -0.358
    1   AR   Ar  230   3.871   4.406   3.811
    1   AR   Ar  231   5.526   2.227   3.116
    1   AR   Ar  232   5.197   2.390   1.705
    1   AR   Ar  233   6.950   1.485   3.115
    1   AR   Ar  234   6.336   3.801   4.856
    1   AR   Ar  235   0.010   1.010   4.799
    1   AR   Ar  236   4.268   3.840   4.663
    1   AR   Ar  237   4.128   1.799   7.490
    1   AR   Ar  238   4.576   5.153   6.696
    1   AR   Ar  239   2.320   5.003  10.453
    1   AR   Ar  240   1.653   3.513   7.194
    1   AR   Ar  241   0.727   6.763  -0.538
    1   AR   Ar  242   5.562   6.168   1.737
    1   AR   Ar  243   4.336   5.501   1.633
    1   AR   Ar  244   5.675   6.606   0.591
    1   AR   Ar  245   2.973   1.516   3.348
    1   AR   Ar  246   4.567   5.971  -1.387
    1   AR   Ar  247   6.985   3.264   1.436
    1   AR   Ar  248   5.222   4.940  -0.619
    1   AR   Ar  249   4.510   0.901   0.918
    1   AR   Ar  250   5.461   6.513   4.040
    1   AR   Ar  251   5.305   3.700   4.619
    1   AR   Ar  252   1.905   5.352   1.776
    1   AR   Ar  253   5.045   2.073   6.631
    1   AR   Ar  254   4.230   4.286  13.756
    1   AR   Ar  255   5.016   5.738   9.534
    1   AR   Ar  256   5.889   5.434   3.628
    7.12000  7.12000 12.00000
Argon-slab step 5995
  256
    1   AR   Ar    1   4.074   2.827  -0.714
    1   AR   Ar    2   5.398   0.266   1.290
    1   AR   Ar    3   4.213   3.713  -1.523
    1   AR   Ar    4   2.436   0.924   1.288
    1   AR   Ar    5   6.234   5.805   0.099
    1   AR   Ar    6   1.468   1.213   1.994
    1   AR   Ar    7   5.532   4.259   2.579
    1   AR   Ar    8   5.972   2.710   0.090
    1   AR   Ar    9   0.168   5.226   4.903
    1   AR   Ar   10   5.823   4.683   5.591
    1   AR   Ar   11   0.812   6.465   4.612
    1   AR   Ar   12   6.973   2.235   4.178
    1   AR   Ar   13   7.047   6.890   5.182
    1   AR   Ar   14   4.368   1.515   6.172
    1   AR   Ar   15   3.044   6.345   9.302
    1   AR   Ar   16   0.560   6.882   6.766
    1   AR   Ar   17   5.638   3.506   0.965
    1   AR   Ar   18   0.320   3.861  -2.863
    1   AR   Ar   19   4.508   5.698  -0.149
    1   AR   Ar   20   6.558   2.513  -2.339
    1   AR   Ar   21   2.545   1.356   2.299
    1   AR   Ar   22   4.254   0.631   2.113
    1   AR   Ar   23   1.891   5.204  -0.510
    1   AR   Ar   24   5.989   2.852   4.336
    1   AR   Ar   25   1.052   3.685   6.128
    1   AR   Ar   26   5.888   5.805   5.166
    1   AR   Ar   27   0.656   0.369   0.480
    1   AR   Ar   28   2.916   1.991   4.301
    1   AR   Ar   29   5.079   6.568   7.178
    1   AR   Ar   30   5.857   0.565   3.344
    1   AR   Ar   31   1.364   1.036   7.079
    1   AR   Ar   32   1.750   2.785   6.157
    1   AR   Ar   33   5.094   5.602   0.697
    1   AR   Ar   34   1.480   5.074   3.168
    1   AR   Ar   35   5.988   5.194   2.625
    1   AR   Ar   36   4.034   1.952  -4.043
    1   AR   Ar   37   4.482   3.739   0.948
    1   AR   Ar   38   6.280   5.040   4.585
    1   AR   Ar   39   6.497   3.374   3.434
    1   AR   Ar   40   0.803   3.810   2.009
    1   AR   Ar   41   0.813   1.653   3.915
    1   AR   Ar   42   4.822   4.556   5.296
    1   AR   Ar   43   7.078   2.962   5.821
    1   AR   Ar   44   1.622   3.699   3.075
    1   AR   Ar   45   2.170   3.985   4.880
    1   AR   Ar   46   5.892   5.885   6.477
    1   AR   Ar   47   2.355   3.716   6.075
    1   AR   Ar   48   0.334   3.724   7.066
    1   AR   Ar   49   7.092   2.428   0.321
    1   AR   Ar   50   2.597   4.837   0.856
    1   AR   Ar   51   5.624   3.309   2.956
    1   AR   Ar   52   5.481   3.343  -2.312
    1   AR   Ar   53   4.605   7.079   3.225
    1   AR   Ar   54   5.580   6.861   2.778
    1   AR   Ar   55   0.288   5.377   2.787
    1   AR   Ar   56   5.961   1.462   3.781
    1   AR   Ar   57   4.946   5.292   2.849
    1   AR   Ar   58   1.079   3.142   4.476
    1   AR   Ar   59   4.237   5.591   5.799
    1   AR   Ar   60   0.514   4.946   1.685
    1   AR   Ar   61   6.916   4.631   6.929
    1   AR   Ar   62   0.157   3.945   5.489
    1   AR   Ar   63   2.432   1.148   7.352
    1   AR   Ar   64   0.759   4.886   4.016
    1   AR   Ar   65   3.677   0.847   2.920
    1   AR   Ar   66   0.882   1.636   0.730
    1   AR   Ar   67   4.890   1.525  -1.265
    1   AR   Ar   68   6.735   1.049   1.121
    1   AR   Ar   69   2.960   2.037   1.300
    1   AR   Ar   70   0.351   1.037   1.955
    1   AR   Ar   71   2.731   0.365   3.021
    1   AR   Ar   72   4.473   1.668   1.728
    1   AR   Ar   73   3.566   0.377   3.879
    1   AR   Ar   74   0.829   0.676   3.230
    1   AR   Ar   75   3.073   1.396   6.619
    1   AR   Ar   76   2.411   0.209   2.097
    1   AR   Ar   77   1.332   6.033   6.676
    1   AR   Ar   78   0.029   5.153   6.010
    1   AR   Ar   79   3.662   6.049   4.958
    1   AR   Ar   80   3.480   4.646   6.752
    1   AR   Ar   81   1.812   6.466   2.010
    1   AR   Ar   82   6.570   4.782   1.855
    1   AR   Ar   83   1.686   2.993   0.814
    1   AR   Ar   84   0.781   3.955   0.913
    1   AR   Ar   85   0.730   2.711  -1.225
    1   AR   Ar   86   1.123   6.017   1.330
    1   AR   Ar   87   4.479   1.974   3.027
    1   AR   Ar   88   3.485   4.698   1.715
    1   AR   Ar   89   6.497   2.454   1.155
    1   AR   Ar   90   3.938   0.573   7.136
    1   AR   Ar   91   1.743   1.640   3.328
    1   AR   Ar   92   3.310   3.482   1.336
    1   AR   Ar   93   1.319   1.294   5.485
    1   AR   Ar   94   7.082   6.946   9.990
    1   AR   Ar   95   4.978   0.484   6.774
    1   AR   Ar   96   1.711   0.228   6.068
    1   AR   Ar   97   5.531   2.184  -2.040
    1   AR   Ar   98   1.468   4.188   4.202
    1   AR   Ar   99   5.934   6.761  -0.483
    1   AR   Ar  100   5.225   1.735  -3.738
    1   AR   Ar  101   4.040   6.041   2.927
    1   AR   Ar  102   4.173   2.612   1.498
    1   AR   Ar  103   1.913   3.579   1.745
    1   AR   Ar  104   3.190   0.324  -0.764
    1   AR   Ar  105   2.519   2.459   3.489
    1   AR   Ar  106   4.232   1.267   3.810
    1   AR   Ar  107   1.135   4.483   5.325
    1   AR   Ar  108   2.383   0.648   3.933
    1   AR   Ar  109   2.551   5.055   5.059
    1   AR   Ar  110   2.245   2.697   4.853
    1   AR   Ar  111   4.047   4.361   7.489
    1   AR   Ar  112   6.700   6.739   6.882
    1   AR   Ar  113   5.789   6.473  -1.651
    1   AR   Ar  114   3.345   0.458   0.806
    1   AR   Ar  115   6.578   4.541  -1.044
    1   AR   Ar  116   5.610   1.225   1.263
    1   AR   Ar  117   0.020   4.502   3.238
    1   AR   Ar  118   1.795   6.067   3.757
    1   AR   Ar  119   1.910   2.798   2.548
    1   AR   Ar  120   1.760   7.076   2.929
    1   AR   Ar  121   5.468   5.273   7.519
    1   AR   Ar  122   2.682   4.709   3.786
    1   AR   Ar  123   2.914   2.308   5.582
    1   AR   Ar  124   0.220   6.251   1.071
    1   AR   Ar  125   6.130   4.271   3.815
    1   AR   Ar  126   0.092   1.395   6.843
    1   AR   Ar  127   3.823   3.538   6.150
    1   AR   Ar  128   1.309   4.398   7.695
    1   AR   Ar  129   1.356   5.369   4.725
    1   AR   Ar  130   5.977   0.464  -4.722
    1   AR   Ar  131   4.043   0.362  -0.144
    1   AR   Ar  132   1.776   2.090   1.697
    1   AR   Ar  133   4.581   0.380   4.282
    1   AR   Ar  134   3.587   1.218   4.612
    1   AR   Ar  135   5.277   0.771   5.712
    1   AR   Ar  136   4.271   6.696   2.203
    1   AR   Ar  137   1.966   5.119   5.923
    1   AR   Ar  138   6.014   1.587   6.010
    1   AR   Ar  139   6.401   2.108   5.136
    1   AR   Ar  140   4.773   6.179   5.117
    1   AR   Ar  141   3.436   5.572   3.877
    1   AR   Ar  142   3.807   5.382   8.515
    1   AR   Ar  143   5.194   6.261   8.557
    1   AR   Ar  144   7.112   3.135   4.797
    1   AR   Ar  145   4.492   4.809  -1.645
    1   AR   Ar  146   4.056   2.213   3.964
    1   AR   Ar  147   4.381   4.351  -0.524
    1   AR   Ar  148   1.916   6.067   0.287
    1   AR   Ar  149   5.488   2.046  -0.471
    1   AR   Ar  150   0.693   1.834   2.593
    1   AR   Ar  151   2.935   2.748   2.438
    1   AR   Ar  152   0.385   0.583  -0.650
    1   AR   Ar  153   4.852   1.066   3.049
    1   AR   Ar  154   4.861   2.950   3.670
    1   AR   Ar  155   4.862   3.599   5.647
    1   AR   Ar  156   3.268   4.067   2.951
    1   AR   Ar  157   3.036   5.458   6.196
    1   AR   Ar  158   1.042   2.428   7.581
    1   AR   Ar  159   3.587   0.115   5.182
    1   AR   Ar  160   0.654   2.166   4.945
    1   AR   Ar  161   4.935   4.659   4.095
    1   AR   Ar  162   3.711   5.245  -0.855
    1   AR   Ar  163   6.775   3.876   2.330
    1   AR   Ar  164   2.317   5.552   2.681
    1   AR   Ar  165   3.360   4.198   0.650
    1   AR   Ar  166   3.241   3.518   5.320
    1   AR   Ar  167   6.296   0.200   4.537
    1   AR   Ar  168   6.075   4.595  -1.922
    1   AR   Ar  169   4.395   3.384   2.771
    1   AR   Ar  170   2.609   2.947   7.018
    1   AR   Ar  171   4.817   5.755   3.771
    1   AR   Ar  172   3.619   3.038   4.490
    1   AR   Ar  173   7.067   2.615   7.162
    1   AR   Ar  174   2.521   6.508   4.535
    1   AR   Ar  175   0.510   0.216   7.816
    1   AR   Ar  176   3.483   3.034   3.354
    1   AR   Ar  177   0.564   3.034  -2.254
    1   AR   Ar  178   2.518   6.937   0.969
    1   AR   Ar  179   2.683   5.908   0.914
    1   AR   Ar  180   4.883   5.839  -6.959
    1   AR   Ar  181   6.660   5.797   1.810
    1   AR   Ar  182   1.042   5.921   2.519
    1   AR   Ar  183   5.263   5.115   1.791
    1   AR   Ar  184   3.399   5.450   0.329
    1   AR   Ar  185   3.234   4.397   4.627
    1   AR   Ar  186   2.887   6.490   3.278
    1   AR   Ar  187   4.070   6.341   3.938
    1   AR   Ar  188   3.568   1.174   1.604
    1   AR   Ar  189   6.055   2.661   6.302
    1   AR   Ar  190   1.855   0.107   4.799
    1   AR   Ar  191   4.188   5.320   4.588
    1   AR   Ar  192   3.865   2.770   7.091
    1   AR   Ar  193   3.071   6.216   2.002
    1   AR   Ar  194   4.652   6.752  -0.416
    1   AR   Ar  195   6.561   1.743   1.794
    1   AR   Ar  196   4.549   6.626   1.146
    1   AR   Ar  197   5.073   3.227   0.100
    1   AR   Ar  198   6.926   6.864   0.214
    1   AR   Ar  199   1.158   0.167   2.000
    1   AR   Ar  200   4.795   1.944   0.817
    1   AR   Ar  201   6.946   5.505   3.725
    1   AR   Ar  202   5.899   1.116   4.681
    1   AR   Ar  203   6.915   0.415   3.377
    1   AR   Ar  204   4.387   5.779   7.452
    1   AR   Ar  205   5.349   1.515   2.341
    1   AR   Ar  206   6.366   0.758   6.670
    1   AR   Ar  207   0.412   3.924   4.376
    1   AR   Ar  208   0.725   6.821   3.585
    1   AR   Ar  209   5.728   3.181  -1.002
    1   AR   Ar  210   3.540   2.789   0.614
    1   AR   Ar  211   6.699   3.480   0.456
    1   AR   Ar  212   5.777   4.782   0.343
    1   AR   Ar  213   3.806   1.643   0.607
    1   AR   Ar  214   5.131   4.486   1.049
    1   AR   Ar  215   0.620   2.827   2.318
    1   AR   Ar  216   2.027   2.414  -0.094
    1   AR   Ar  217   5.240   2.037   4.132
    1   AR   Ar  218   3.900   2.532   5.415
    1   AR   Ar  219   4.387   4.526   2.289
    1   AR   Ar  220   4.285   5.027   0.547
    1   AR   Ar  221   6.468   6.385   3.488
    1   AR   Ar  222   5.972   7.083   5.777
    1   AR   Ar  223   0.148   0.749   5.945
    1   AR   Ar  224   4.841   1.448   5.014
    1   AR   Ar  225   6.190   2.721   2.241
    1   AR   Ar  226   2.695   3.515   4.000
    1   AR   Ar  227   1.498   2.692   3.583
    1   AR   Ar  228   6.154   0.603   2.305
    1   AR   Ar  229   5.729   3.929  -0.360
    1   AR   Ar  230   3.877   4.389   3.805
    1   AR   Ar  231   5.532   2.252   3.135
    1   AR   Ar  232   5.215   2.384   1.718
    1   AR   Ar  233   6.928   1.475   3.105
    1   AR   Ar  234   6.337   3.804   4.855
    1   AR   Ar  235   7.097   1.024   4.754
    1   AR   Ar  236   4.228   3.832   4.651
    1   AR   Ar  237   4.142   1.801   7.502
    1   AR   Ar  238   4.595   5.173   6.718
    1   AR   Ar  239   2.292   4.980  10.442
    1   AR   Ar  240   1.662   3.514   7.185
    1   AR   Ar  241   0.740   6.761  -0.532
    1   AR   Ar  242   5.557   6.162   1.721
    1   AR   Ar  243   4.313   5.514   1.650
    1   AR   Ar  244   5.672   6.623   0.617
    1   AR   Ar  245   2.972   1.523   3.334
    1   AR   Ar  246   4.554   5.990  -1.367
    1   AR   Ar  247   7.005   3.274   1.464
    1   AR   Ar  248   5.173   4.934  -0.644
    1   AR   Ar  249   4.522   0.946   0.915
    1   AR   Ar  250   5.490   6.531   4.084
    1   AR   Ar  251   5.323   3.691   4.584
    1   AR   Ar  252   1.921   5.371   1.782
    1   AR   Ar  253   5.051   2.057   6.617
    1   AR   Ar  254   4.221   4.282  13.790
    1   AR   Ar  255   5.019   5.734   9.532
    1   AR   Ar  256   5.871   5.454   3.599
    7.12000  7.12000 12.00000
